/*--------------------------------*- C++ -*----------------------------------*\
  =========                 |
  \\      /  F ield         | OpenFOAM: The Open Source CFD Toolbox
   \\    /   O peration     | Website:  https://openfoam.org
    \\  /    A nd           | Version:  7
     \\/     M anipulation  |
\*---------------------------------------------------------------------------*/
FoamFile
{
    version     2.0;
    format      ascii;
    class       volScalarField;
    location    "4";
    object      p;
}
// * * * * * * * * * * * * * * * * * * * * * * * * * * * * * * * * * * * * * //

dimensions      [1 -1 -2 0 0 0 0];

internalField   nonuniform List<scalar> 
64512
(
1
1
1
1
1
1
1
1
1
1
1
1
1
1
1
1
1
1
1
1
1
1
1
1
1
1
1
1
1
1
1
1
1
1
1
1
1
1
1
1
1
1
1
1
1
1
1
1
1.17277
7.09765
10.4185
10.4381
10.5094
10.5704
10.6268
10.6777
10.7264
10.7772
10.8331
10.8939
10.9558
11.0136
11.0644
11.1091
11.151
11.1944
11.2415
11.2913
11.3407
11.3858
11.4245
11.4592
11.495
11.5353
11.5806
11.6284
11.674
11.7132
11.7448
11.7705
11.7929
11.8144
11.8366
11.8604
11.8857
11.9123
11.939
11.9641
11.9857
12.0029
12.0161
12.0265
12.0352
12.0423
12.0488
12.0529
1
1
1
1
1
1
1
1
1
1
1
1
1
1
1
1
1
1
1
1
1
1
1
1
1
1
1
1
1
1
1
1
1
1
1
1
1
1
1
1
1
1
1
1
1
1
1
1
1.17678
7.08557
10.3874
10.4458
10.5118
10.5718
10.6283
10.6797
10.729
10.7797
10.8348
10.8946
10.9554
11.0127
11.0638
11.1091
11.1516
11.1951
11.242
11.2913
11.3401
11.3846
11.4229
11.4572
11.4925
11.5323
11.5774
11.6254
11.6713
11.7109
11.7427
11.7685
11.7907
11.812
11.8342
11.8579
11.8832
11.9095
11.936
11.9609
11.9825
11.9999
12.0132
12.0236
12.032
12.0387
12.045
12.0491
1
1
1
1
1
1
1
1
1
1
1
1
1
1
1
1
1
1
1
1
1
1
1
1
1
1
1
1
1
1
1
1
1
1
1
1
1
1
1
1
1
1
1
1
1
1
1
1
1.15442
6.99805
10.3795
10.4531
10.5087
10.5667
10.6224
10.6741
10.7237
10.7746
10.8298
10.8893
10.9499
11.0072
11.0589
11.1052
11.1487
11.1927
11.2396
11.2887
11.3371
11.3813
11.4192
11.453
11.4875
11.5268
11.5715
11.6195
11.666
11.7064
11.7391
11.7652
11.7875
11.8088
11.831
11.8547
11.8798
11.9057
11.9315
11.9559
11.9773
11.9948
12.0082
12.0186
12.0267
12.0329
12.0389
12.0428
1
1
1
1
1
1
1
1
1
1
1
1
1
1
1
1
1
1
1
1
1
1
1
1
1
1
1
1
1
1
1
1
1
1
1
1
1
1
1
1
1
1
1
1
1
1
1
1
1.09667
6.88673
10.3873
10.4539
10.5061
10.5646
10.6197
10.671
10.7204
10.7708
10.8253
10.8843
10.9448
11.0023
11.0545
11.1016
11.1458
11.1902
11.237
11.2858
11.3337
11.3773
11.4145
11.4476
11.4812
11.5195
11.5636
11.6115
11.6584
11.6995
11.7326
11.759
11.7814
11.8027
11.8249
11.8487
11.8739
11.8997
11.9251
11.9491
11.9704
11.9879
12.0013
12.0115
12.019
12.0244
12.0299
12.0334
1
1
1
1
1
1
1
1
1
1
1
1
1
1
1
1
1
1
1
1
1
1
1
1
1
1
1
1
1
1
1
1
1
1
1
1
1
1
1
1
1
1
1
1
1
1
1
1
1.02197
6.7272
10.3972
10.4487
10.5
10.5598
10.6147
10.6655
10.7141
10.7639
10.8177
10.8765
10.9372
10.9953
11.0479
11.0957
11.1404
11.185
11.2318
11.2803
11.3278
11.3711
11.4077
11.4403
11.4731
11.5108
11.5545
11.6026
11.6501
11.6921
11.7261
11.753
11.7754
11.7964
11.8181
11.8415
11.8662
11.8915
11.9165
11.9401
11.9611
11.9786
11.9919
12.0019
12.0089
12.0135
12.0183
12.0213
1
1
1
1
1
1
1
1
1
1
1
1
1
1
1
1
1
1
1
1
1
1
1
1
1
1
1
1
1
1
1
1
1
1
1
1
1
1
1
1
1
1
1
1
1
1
1
1
1.00068
6.49831
10.3817
10.4339
10.486
10.5502
10.6071
10.6589
10.7081
10.7583
10.8122
10.8707
10.9311
10.9888
11.0411
11.0887
11.1336
11.1783
11.2251
11.2737
11.3209
11.3638
11.3996
11.4314
11.4631
11.4996
11.5422
11.5895
11.6368
11.6789
11.7135
11.7411
11.7641
11.7854
11.8072
11.8305
11.8551
11.8804
11.9054
11.929
11.95
11.9674
11.9806
11.9903
11.9966
12.0005
12.0044
12.0066
1
1
1
1
1
1
1
1
1
1
1
1
1
1
1
1
1
1
1
1
1
1
1
1
1
1
1
1
1
1
1
1
1
1
1
1
1
1
1
1
1
1
1
1
1
1
1
1
1
6.21832
10.3536
10.4234
10.4749
10.5424
10.6003
10.6525
10.7016
10.7512
10.8044
10.8622
10.9223
10.9802
11.0325
11.0804
11.1256
11.1705
11.2175
11.2661
11.3129
11.3554
11.3905
11.4216
11.4524
11.4881
11.5297
11.5761
11.6228
11.665
11.7
11.7283
11.752
11.7736
11.7953
11.8183
11.8426
11.8676
11.8923
11.9157
11.9364
11.9536
11.9666
11.976
11.982
11.9853
11.9884
11.9897
1
1
1
1
1
1
1
1
1
1
1
1
1
1
1
1
1
1
1
1
1
1
1
1
1
1
1
1
1
1
1
1
1
1
1
1
1
1
1
1
1
1
1
1
1
1
1
1
1
5.89424
10.3164
10.4138
10.4649
10.5347
10.5927
10.6447
10.6934
10.7431
10.7962
10.8538
10.9139
10.9717
11.0237
11.0712
11.1161
11.1604
11.2067
11.2547
11.3006
11.3428
11.3774
11.4086
11.4393
11.4747
11.5155
11.5609
11.6067
11.6483
11.6835
11.7124
11.7368
11.7589
11.7807
11.8035
11.8275
11.8523
11.8769
11.8999
11.9202
11.937
11.9499
11.9592
11.9649
11.9677
11.9698
11.9704
1
1
1
1
1
1
1
1
1
1
1
1
1
1
1
1
1
1
1
1
1
1
1
1
1
1
1
1
1
1
1
1
1
1
1
1
1
1
1
1
1
1
1
1
1
1
1
1
1
5.53018
10.2663
10.4018
10.4534
10.5255
10.584
10.6365
10.6854
10.7352
10.788
10.8449
10.9043
10.9619
11.0136
11.0608
11.1056
11.1496
11.1953
11.2427
11.2877
11.3295
11.3637
11.3949
11.4256
11.4605
11.5002
11.5441
11.5883
11.629
11.6639
11.6933
11.7185
11.7414
11.7636
11.7864
11.8102
11.8348
11.859
11.8816
11.9014
11.9179
11.9306
11.9399
11.9456
11.948
11.9491
11.9491
1
1
1
1
1
1
1
1
1
1
1
1
1
1
1
1
1
1
1
1
1
1
1
1
1
1
1
1
1
1
1
1
1
1
1
1
1
1
1
1
1
1
1
1
1
1
1
1
1
5.12902
10.1987
10.3877
10.441
10.5148
10.574
10.6271
10.6763
10.7263
10.7789
10.8352
10.8939
10.9512
11.0024
11.0489
11.0935
11.1369
11.1817
11.2285
11.2726
11.314
11.3481
11.3796
11.4104
11.445
11.4836
11.526
11.5687
11.6082
11.6426
11.6721
11.6978
11.7212
11.7437
11.7666
11.7904
11.8147
11.8384
11.8603
11.8795
11.8955
11.9082
11.9176
11.9232
11.9254
11.9257
11.9253
1
1
1
1
1
1
1
1
1
1
1
1
1
1
1
1
1
1
1
1
1
1
1
1
1
1
1
1
1
1
1
1
1
1
1
1
1
1
1
1
1
1
1
1
1
1
1
1
1
4.69505
10.1047
10.3734
10.4291
10.5034
10.5631
10.6166
10.666
10.7162
10.7688
10.8245
10.8825
10.9393
10.9898
11.0354
11.0794
11.122
11.1659
11.2118
11.2551
11.2963
11.3305
11.3623
11.3933
11.4274
11.4649
11.5056
11.5468
11.5851
11.619
11.6485
11.6746
11.6985
11.7214
11.7445
11.7682
11.7922
11.8153
11.8363
11.8547
11.8702
11.8829
11.8924
11.8981
11.9003
11.9001
11.8997
1
1
1
1
1
1
1
1
1
1
1
1
1
1
1
1
1
1
1
1
1
1
1
1
1
1
1
1
1
1
1
1
1
1
1
1
1
1
1
1
1
1
1
1
1
1
1
1
1
4.23175
9.9775
10.3612
10.4189
10.4928
10.5527
10.6064
10.6558
10.7057
10.758
10.813
10.8702
10.9263
10.9764
11.0211
11.0644
11.1063
11.1489
11.1935
11.2358
11.2764
11.3105
11.3424
11.3736
11.4072
11.4435
11.4827
11.5223
11.5596
11.593
11.6225
11.6487
11.673
11.6963
11.7196
11.7431
11.7667
11.7892
11.8094
11.8269
11.8419
11.8542
11.8639
11.8696
11.872
11.8717
11.8717
1
1
1
1
1
1
1
1
1
1
1
1
1
1
1
1
1
1
1
1
1
1
1
1
1
1
1
1
1
1
1
1
1
1
1
1
1
1
1
1
1
1
1
1
1
1
1
1
1
3.74612
9.80586
10.3522
10.4101
10.4819
10.5411
10.5945
10.6439
10.6936
10.7456
10.7999
10.8561
10.9115
10.961
11.0048
11.0476
11.0891
11.1307
11.1744
11.2159
11.2562
11.2903
11.3223
11.3532
11.386
11.4207
11.4578
11.4956
11.5318
11.5646
11.5939
11.6203
11.6448
11.6683
11.6915
11.7149
11.738
11.7599
11.7794
11.7961
11.8103
11.8223
11.8317
11.8377
11.8405
11.8406
11.8415
1
1
1
1
1
1
1
1
1
1
1
1
1
1
1
1
1
1
1
1
1
1
1
1
1
1
1
1
1
1
1
1
1
1
1
1
1
1
1
1
1
1
1
1
1
1
1
1
1
3.25076
9.57778
10.3464
10.4018
10.4701
10.5285
10.5812
10.6295
10.6783
10.7298
10.784
10.8398
10.895
10.9445
10.9877
11.0296
11.0705
11.1107
11.1531
11.1938
11.2334
11.2678
11.3
11.331
11.3632
11.3965
11.4315
11.4674
11.5022
11.5342
11.5632
11.5896
11.6141
11.6375
11.6605
11.6834
11.7059
11.7272
11.7461
11.7622
11.7756
11.7868
11.7958
11.8019
11.8055
11.8065
11.8084
1
1
1
1
1
1
1
1
1
1
1
1
1
1
1
1
1
1
1
1
1
1
1
1
1
1
1
1
1
1
1
1
1
1
1
1
1
1
1
1
1
1
1
1
1
1
1
1
1
2.75677
9.28071
10.352
10.3983
10.4619
10.5179
10.5697
10.6174
10.6649
10.7153
10.7688
10.8229
10.8763
10.9247
10.967
11.0078
11.0483
11.0877
11.1296
11.1701
11.2092
11.2441
11.2763
11.3073
11.3387
11.3703
11.4032
11.4369
11.4701
11.5014
11.5302
11.5566
11.5811
11.6042
11.6264
11.6484
11.6701
11.6906
11.709
11.7245
11.7371
11.7475
11.756
11.7623
11.7671
11.7693
11.7723
1
1
1
1
1
1
1
1
1
1
1
1
1
1
1
1
1
1
1
1
1
1
1
1
1
1
1
1
1
1
1
1
1
1
1
1
1
1
1
1
1
1
1
1
1
1
1
1
1
2.28355
8.89669
10.368
10.3977
10.4542
10.5059
10.5557
10.6026
10.6499
10.7
10.7527
10.8056
10.8576
10.9051
10.9466
10.9862
11.0265
11.0653
11.1059
11.1454
11.1829
11.2177
11.2494
11.2803
11.3111
11.3416
11.3727
11.4045
11.4363
11.4667
11.4951
11.5213
11.5454
11.5678
11.5891
11.6099
11.6304
11.6501
11.6679
11.6829
11.6949
11.7045
11.7123
11.7187
11.7245
11.728
11.7322
1
1
1
1
1
1
1
1
1
1
1
1
1
1
1
1
1
1
1
1
1
1
1
1
1
1
1
1
1
1
1
1
1
1
1
1
1
1
1
1
1
1
1
1
1
1
1
1
1
1.84375
8.42808
10.3964
10.3921
10.4468
10.4932
10.5421
10.5877
10.6334
10.6819
10.7334
10.7855
10.8367
10.8839
10.9252
10.9637
11.0036
11.042
11.0814
11.1196
11.1554
11.1898
11.2211
11.252
11.2821
11.3115
11.3405
11.37
11.3999
11.4292
11.4571
11.4829
11.5066
11.5283
11.5485
11.568
11.5871
11.6056
11.6225
11.6368
11.6481
11.6571
11.6644
11.6709
11.6776
11.6825
11.6877
1
1
1
1
1
1
1
1
1
1
1
1
1
1
1
1
1
1
1
1
1
1
1
1
1
1
1
1
1
1
1
1
1
1
1
1
1
1
1
1
1
1
1
1
1
1
1
1
1
1.46418
7.87195
10.4198
10.3729
10.4203
10.4634
10.5142
10.5639
10.6127
10.6612
10.7113
10.7625
10.813
10.8601
10.9015
10.9392
10.9783
11.0167
11.0553
11.0927
11.1269
11.1609
11.1918
11.2222
11.2513
11.2791
11.3058
11.3329
11.361
11.3892
11.4165
11.4418
11.4648
11.4854
11.5044
11.5224
11.54
11.5569
11.5725
11.5859
11.5966
11.6052
11.6122
11.6188
11.6259
11.6315
11.6371
1
1
1
1
1
1
1
1
1
1
1
1
1
1
1
1
1
1
1
1
1
1
1
1
1
1
1
1
1
1
1
1
1
1
1
1
1
1
1
1
1
1
1
1
1
1
1
1
1
1.17184
7.26576
10.3592
10.3582
10.4037
10.4511
10.4988
10.5432
10.5869
10.6328
10.6824
10.7344
10.7854
10.8328
10.8747
10.9122
10.9504
10.9889
11.027
11.0641
11.097
11.1304
11.1608
11.1908
11.2186
11.2449
11.2694
11.2941
11.3201
11.347
11.3733
11.3976
11.4193
11.4386
11.4562
11.4728
11.4887
11.5039
11.5177
11.5298
11.5397
11.5478
11.555
11.5619
11.5692
11.575
11.5804
1
1
1
1
1
1
1
1
1
1
1
1
1
1
1
1
1
1
1
1
1
1
1
1
1
1
1
1
1
1
1
1
1
1
1
1
1
1
1
1
1
1
1
1
1
1
1
1
1
1.00769
6.5375
10.2568
10.3032
10.3493
10.4007
10.4552
10.5087
10.558
10.6052
10.6536
10.7038
10.7535
10.8008
10.8436
10.8814
10.9188
10.9574
10.9952
11.0323
11.0646
11.0971
11.1274
11.1571
11.1839
11.2087
11.2312
11.2534
11.2771
11.3022
11.3271
11.3498
11.3699
11.3876
11.4037
11.4188
11.433
11.4463
11.4583
11.4687
11.4776
11.4853
11.4923
11.4993
11.5061
11.5113
11.5158
1
1
1
1
1
1
1
1
1
1
1
1
1
1
1
1
1
1
1
1
1
1
1
1
1
1
1
1
1
1
1
1
1
1
1
1
1
1
1
1
1
1
1
1
1
1
1
1
1
1.00005
5.74581
10.1273
10.2448
10.3161
10.3802
10.4347
10.484
10.529
10.5738
10.6206
10.6693
10.7184
10.7651
10.8081
10.8471
10.8842
10.9223
10.9598
10.9972
11.0296
11.0609
11.0911
11.1207
11.1468
11.1703
11.1909
11.2109
11.2321
11.255
11.2779
11.2987
11.3167
11.3324
11.3466
11.36
11.3724
11.3836
11.3934
11.4018
11.4092
11.416
11.4228
11.4297
11.4359
11.4401
11.4437
1
1
1
1
1
1
1
1
1
1
1
1
1
1
1
1
1
1
1
1
1
1
1
1
1
1
1
1
1
1
1
1
1
1
1
1
1
1
1
1
1
1
1
1
1
1
1
1
1
1
4.85983
9.93393
10.2011
10.2751
10.3447
10.4048
10.4587
10.507
10.5517
10.5959
10.641
10.6863
10.7303
10.7731
10.8105
10.847
10.8847
10.9214
10.9583
10.991
11.0212
11.0512
11.0806
11.1065
11.1289
11.1481
11.166
11.1848
11.205
11.2254
11.2438
11.2593
11.2726
11.2847
11.2959
11.3063
11.3155
11.3232
11.3296
11.3352
11.3406
11.3463
11.3519
11.3563
11.3592
11.3614
1
1
1
1
1
1
1
1
1
1
1
1
1
1
1
1
1
1
1
1
1
1
1
1
1
1
1
1
1
1
1
1
1
1
1
1
1
1
1
1
1
1
1
1
1
1
1
1
1
1
3.95287
9.67605
10.1697
10.2628
10.3303
10.3838
10.4326
10.4788
10.5227
10.567
10.6117
10.6562
10.6983
10.7388
10.7767
10.8087
10.8443
10.8796
10.9158
10.9488
10.978
11.0075
11.0364
11.0624
11.0841
11.1023
11.1186
11.1349
11.1519
11.1694
11.1849
11.1978
11.2085
11.2179
11.2267
11.2347
11.2414
11.2465
11.2502
11.2532
11.2563
11.2601
11.2638
11.2667
11.2684
11.2697
1
1
1
1
1
1
1
1
1
1
1
1
1
1
1
1
1
1
1
1
1
1
1
1
1
1
1
1
1
1
1
1
1
1
1
1
1
1
1
1
1
1
1
1
1
1
1
1
1
1
3.1113
9.27294
10.1823
10.2413
10.3015
10.3597
10.415
10.4605
10.5009
10.5406
10.5807
10.6222
10.6627
10.7015
10.739
10.7725
10.8043
10.8374
10.8702
10.903
10.9315
10.9601
10.9879
11.0141
11.0356
11.0531
11.068
11.0819
11.0952
11.1091
11.1218
11.1318
11.1397
11.1461
11.1518
11.1567
11.1606
11.1631
11.1641
11.1642
11.1642
11.1646
11.1646
11.1642
11.1633
11.1628
1
1
1
1
1
1
1
1
1
1
1
1
1
1
1
1
1
1
1
1
1
1
1
1
1
1
1
1
1
1
1
1
1
1
1
1
1
1
1
1
1
1
1
1
1
1
1
1
1
1
2.28531
8.65427
10.2401
10.2541
10.307
10.3498
10.3897
10.4299
10.4726
10.5144
10.5555
10.5942
10.6306
10.6655
10.6997
10.733
10.7641
10.7941
10.825
10.8549
10.8818
10.9091
10.9354
10.9613
10.9829
10.9999
11.0136
11.0253
11.035
11.0452
11.0544
11.0615
11.0662
11.0694
11.0714
11.0726
11.0732
11.0719
11.0684
11.0638
11.0589
11.0543
11.0502
11.0467
11.0439
11.0428
1
1
1
1
1
1
1
1
1
1
1
1
1
1
1
1
1
1
1
1
1
1
1
1
1
1
1
1
1
1
1
1
1
1
1
1
1
1
1
1
1
1
1
1
1
1
1
1
1
1
1.53739
8.01254
10.3464
10.2247
10.2648
10.3073
10.3582
10.4054
10.4464
10.4841
10.523
10.5619
10.5983
10.6319
10.6641
10.6945
10.7233
10.7505
10.7765
10.8042
10.8311
10.8547
10.8795
10.9044
10.9259
10.9424
10.9549
10.9643
10.9704
10.9768
10.9824
10.9861
10.9877
10.9871
10.985
10.982
10.9779
10.9715
10.963
10.9531
10.9427
10.9319
10.921
10.9105
10.9024
10.8976
1
1
1
1
1
1
1
1
1
1
1
1
1
1
1
1
1
1
1
1
1
1
1
1
1
1
1
1
1
1
1
1
1
1
1
1
1
1
1
1
1
1
1
1
1
1
1
1
1
1
1.04944
7.14645
10.2925
10.2006
10.2444
10.2839
10.3253
10.3701
10.4148
10.4546
10.4918
10.5293
10.5643
10.5963
10.627
10.6562
10.6832
10.7076
10.7307
10.7521
10.7765
10.7993
10.8211
10.8437
10.8646
10.8804
10.8916
10.8989
10.9015
10.9043
10.9062
10.9065
10.9042
10.8994
10.8926
10.8847
10.8747
10.8619
10.846
10.8275
10.8072
10.7861
10.766
10.749
10.7369
10.7319
1
1
1
1
1
1
1
1
1
1
1
1
1
1
1
1
1
1
1
1
1
1
1
1
1
1
1
1
1
1
1
1
1
1
1
1
1
1
1
1
1
1
1
1
1
1
1
1
1
1
1.00037
6.01903
10.0221
10.1041
10.1764
10.2371
10.2919
10.3366
10.3767
10.4178
10.4575
10.4939
10.5281
10.5597
10.589
10.616
10.6411
10.6639
10.685
10.704
10.7228
10.7427
10.7616
10.7806
10.7996
10.8143
10.8239
10.8289
10.8283
10.8271
10.825
10.8214
10.815
10.8056
10.7936
10.7797
10.7624
10.7412
10.7155
10.6865
10.6554
10.6236
10.5918
10.5603
10.5338
10.5168
1
1
1
1
1
1
1
1
1
1
1
1
1
1
1
1
1
1
1
1
1
1
1
1
1
1
1
1
1
1
1
1
1
1
1
1
1
1
1
1
1
1
1
1
1
1
1
1
1
1
0.999999
4.8538
9.81622
10.0494
10.1489
10.2173
10.2623
10.3049
10.3474
10.3842
10.4179
10.4529
10.4876
10.5198
10.5485
10.574
10.5974
10.6186
10.6379
10.6549
10.6707
10.6874
10.7024
10.7169
10.7323
10.7453
10.7529
10.7554
10.7518
10.746
10.7395
10.7313
10.7204
10.706
10.6882
10.6668
10.6409
10.6094
10.5716
10.5283
10.4797
10.4262
10.3705
10.3185
10.2777
10.2618
1
1
1
1
1
1
1
1
1
1
1
1
1
1
1
1
1
1
1
1
1
1
1
1
1
1
1
1
1
1
1
1
1
1
1
1
1
1
1
1
1
1
1
1
1
1
1
1
1
1
1
3.71392
9.38028
10.0497
10.128
10.1881
10.2369
10.2754
10.3117
10.343
10.3761
10.4097
10.4421
10.4746
10.504
10.5288
10.551
10.5712
10.5895
10.6051
10.6182
10.6313
10.6434
10.6533
10.6633
10.6734
10.6791
10.6792
10.6721
10.6611
10.6495
10.6359
10.62
10.6
10.5752
10.5455
10.5094
10.4653
10.4119
10.3494
10.2785
10.2018
10.1218
10.0413
9.95624
9.88505
1
1
1
1
1
1
1
1
1
1
1
1
1
1
1
1
1
1
1
1
1
1
1
1
1
1
1
1
1
1
1
1
1
1
1
1
1
1
1
1
1
1
1
1
1
1
1
1
1
1
1
2.60739
8.72081
10.0935
10.1226
10.1671
10.2098
10.2516
10.2827
10.3121
10.3402
10.3679
10.398
10.4286
10.4563
10.4803
10.5018
10.5211
10.5386
10.5535
10.5649
10.5746
10.5832
10.5894
10.5945
10.6003
10.6033
10.6011
10.5906
10.574
10.5562
10.5364
10.5145
10.488
10.4554
10.4159
10.3678
10.3089
10.2372
10.1522
10.0537
9.93904
9.80067
9.63773
9.47683
9.36146
1
1
1
1
1
1
1
1
1
1
1
1
1
1
1
1
1
1
1
1
1
1
1
1
1
1
1
1
1
1
1
1
1
1
1
1
1
1
1
1
1
1
1
1
1
1
1
1
1
1
1
1.60959
8.01757
10.2108
10.1005
10.1319
10.1713
10.2108
10.2453
10.2771
10.3064
10.3327
10.357
10.3819
10.4074
10.4294
10.4496
10.468
10.4848
10.499
10.5093
10.5166
10.5218
10.5239
10.5244
10.5255
10.525
10.5202
10.5064
10.4846
10.46
10.4331
10.404
10.3699
10.3284
10.278
10.2163
10.1407
10.0479
9.93525
9.79835
9.63112
9.42852
9.18618
8.92361
8.75177
1
1
1
1
1
1
1
1
1
1
1
1
1
1
1
1
1
1
1
1
1
1
1
1
1
1
1
1
1
1
1
1
1
1
1
1
1
1
1
1
1
1
1
1
1
1
1
1
1
1
1
1.04733
6.91387
10.1863
10.0953
10.1036
10.1261
10.1701
10.2077
10.2396
10.2685
10.2949
10.3186
10.3405
10.3618
10.381
10.3984
10.4145
10.4294
10.4424
10.4514
10.4568
10.4589
10.4577
10.4543
10.4504
10.4458
10.4374
10.4203
10.3941
10.3626
10.3277
10.2899
10.2469
10.1954
10.1329
10.0563
9.96226
9.84573
9.70204
9.52399
9.3018
9.00634
8.56627
7.73238
5.76928
1
1
1
1
1
1
1
1
1
1
1
1
1
1
1
1
1
1
1
1
1
1
1
1
1
1
1
1
1
1
1
1
1
1
1
1
1
1
1
1
1
1
1
1
1
1
1
1
1
1
1
1.00015
5.52707
9.82661
9.94216
10.0313
10.0838
10.1267
10.1648
10.1974
10.2268
10.2534
10.2765
10.2969
10.3159
10.333
10.3474
10.3603
10.3724
10.3836
10.3907
10.3944
10.3938
10.3897
10.3829
10.3742
10.3645
10.3514
10.3308
10.3009
10.263
10.2199
10.1727
10.1197
10.0573
9.98185
9.88935
9.77574
9.6346
9.45823
9.23482
8.94114
8.53384
7.89156
6.92235
4.71981
1
1
1
1
1
1
1
1
1
1
1
1
1
1
1
1
1
1
1
1
1
1
1
1
1
1
1
1
1
1
1
1
1
1
1
1
1
1
1
1
1
1
1
1
1
1
1
1
1
1
1
0.999998
4.14788
9.46353
9.9324
10.0115
10.0617
10.0902
10.1195
10.152
10.1819
10.2089
10.2321
10.2521
10.2697
10.2852
10.2974
10.3071
10.316
10.3242
10.3292
10.3306
10.3272
10.3201
10.3101
10.2975
10.2825
10.2642
10.2397
10.206
10.1627
10.1116
10.0543
9.99018
9.91583
9.82683
9.71813
9.58468
9.41873
9.2107
8.94343
8.59466
8.10016
7.43368
6.17083
4.34154
1
1
1
1
1
1
1
1
1
1
1
1
1
1
1
1
1
1
1
1
1
1
1
1
1
1
1
1
1
1
1
1
1
1
1
1
1
1
1
1
1
1
1
1
1
1
1
1
1
1
1
1
2.82498
8.81257
9.96469
10.0004
10.0324
10.0578
10.0848
10.1119
10.1391
10.1646
10.1867
10.2055
10.2216
10.2356
10.2462
10.2535
10.2593
10.264
10.2672
10.2654
10.2591
10.2487
10.2355
10.2193
10.1998
10.176
10.1464
10.1082
10.0597
10.0013
9.93433
9.859
9.7724
9.66995
9.54556
9.39347
9.20416
8.96878
8.66436
8.27482
7.73035
6.98847
5.75333
4.26884
1
1
1
1
1
1
1
1
1
1
1
1
1
1
1
1
1
1
1
1
1
1
1
1
1
1
1
1
1
1
1
1
1
1
1
1
1
1
1
1
1
1
1
1
1
1
1
1
1
1
1
1
1.66671
8.03439
10.0546
9.96408
9.97998
10.0164
10.0482
10.0748
10.0989
10.1213
10.1412
10.1583
10.1727
10.1849
10.1938
10.1995
10.2027
10.2047
10.2055
10.2007
10.1912
10.177
10.1599
10.1397
10.1157
10.087
10.052
10.0091
9.95573
9.89093
9.81499
9.72862
9.62945
9.51373
9.37444
9.20568
8.99632
8.73803
8.40788
7.98354
7.42225
6.65208
5.55336
4.37807
1
1
1
1
1
1
1
1
1
1
1
1
1
1
1
1
1
1
1
1
1
1
1
1
1
1
1
1
1
1
1
1
1
1
1
1
1
1
1
1
1
1
1
1
1
1
1
1
1
1
1
1
1.05367
6.77717
10.0073
9.93668
9.93965
9.97501
10.0081
10.0346
10.0579
10.0786
10.0964
10.1114
10.1239
10.1336
10.1401
10.1437
10.1447
10.1445
10.1418
10.1345
10.1219
10.1041
10.083
10.0587
10.0306
9.99749
9.95751
9.90944
9.85073
9.77969
9.69535
9.59887
9.48804
9.36021
9.20763
9.02467
8.79974
8.52344
8.17752
7.73592
7.16929
6.42696
5.48573
4.51408
1
1
1
1
1
1
1
1
1
1
1
1
1
1
1
1
1
1
1
1
1
1
1
1
1
1
1
1
1
1
1
1
1
1
1
1
1
1
1
1
1
1
1
1
1
1
1
1
1
1
1
1
1.00017
5.16674
9.5714
9.80326
9.87985
9.92816
9.96022
9.98787
10.0119
10.0326
10.0496
10.0634
10.0747
10.0818
10.0856
10.0869
10.0861
10.0836
10.0783
10.0686
10.0532
10.0324
10.007
9.97786
9.94495
9.90708
9.8623
9.80908
9.74512
9.66873
9.57755
9.47205
9.35054
9.21172
9.04726
8.85244
8.61611
8.32792
7.97398
7.53194
6.97499
6.29098
5.48174
4.64731
1
1
1
1
1
1
1
1
1
1
1
1
1
1
1
1
1
1
1
1
1
1
1
1
1
1
1
1
1
1
1
1
1
1
1
1
1
1
1
1
1
1
1
1
1
1
1
1
1
1
1
1
0.999998
3.60418
9.135
9.81353
9.86402
9.90368
9.92361
9.94379
9.96504
9.98468
10.001
10.0139
10.0239
10.029
10.0302
10.029
10.026
10.0212
10.0134
10.0012
9.98302
9.95909
9.92996
9.89648
9.85897
9.81658
9.76749
9.7097
9.64074
9.55911
9.46193
9.34861
9.21756
9.06886
8.895
8.69114
8.44721
8.15299
7.79873
7.36185
6.83524
6.21197
5.50379
4.79061
1
1
1
1
1
1
1
1
1
1
1
1
1
1
1
1
1
1
1
1
1
1
1
1
1
1
1
1
1
1
1
1
1
1
1
1
1
1
1
1
1
1
1
1
1
1
1
1
1
1
1
1
0.999999
2.14773
8.36007
9.88214
9.84459
9.86321
9.88476
9.90512
9.92333
9.94022
9.95477
9.9662
9.97484
9.97797
9.97636
9.97212
9.96614
9.95848
9.94819
9.93378
9.91326
9.88651
9.85414
9.81671
9.77453
9.72719
9.6731
9.61039
9.53655
9.45007
9.34815
9.22922
9.09121
8.93348
8.75201
8.54166
8.29314
7.99797
7.64897
7.22074
6.73627
6.17187
5.53754
4.92399
1
1
1
1
1
1
1
1
1
1
1
1
1
1
1
1
1
1
1
1
1
1
1
1
1
1
1
1
1
1
1
1
1
1
1
1
1
1
1
1
1
1
1
1
1
1
1
1
1
1
1
1
1
1.14013
7.14371
9.94922
9.84173
9.81927
9.84141
9.86215
9.87869
9.89351
9.90631
9.91623
9.9235
9.92493
9.92126
9.91437
9.90554
9.89505
9.88235
9.86589
9.84314
9.81357
9.77763
9.73635
9.6899
9.63823
9.57965
9.51258
9.43457
9.34385
9.23782
9.11454
8.9716
8.80713
8.61911
8.40394
8.15392
7.86137
7.52057
7.11071
6.66357
6.1465
5.58099
5.04633
1
1
1
1
1
1
1
1
1
1
1
1
1
1
1
1
1
1
1
1
1
1
1
1
1
1
1
1
1
1
1
1
1
1
1
1
1
1
1
1
1
1
1
1
1
1
1
1
1
1
1
1
1
1.00168
5.52129
9.51319
9.68784
9.75416
9.78733
9.81239
9.83145
9.846
9.8575
9.86625
9.87234
9.87242
9.86728
9.85802
9.8462
9.83254
9.81688
9.79785
9.77288
9.7409
9.70198
9.65724
9.60699
9.55132
9.48852
9.41692
9.33427
9.23928
9.12959
9.00323
8.85746
8.68937
8.49738
8.27863
8.02841
7.74051
7.41322
7.0248
6.60626
6.13078
5.63389
5.14876
1
1
1
1
1
1
1
1
1
1
1
1
1
1
1
1
1
1
1
1
1
1
1
1
1
1
1
1
1
1
1
1
1
1
1
1
1
1
1
1
1
1
1
1
1
1
1
1
1
1
1
1
1
0.99998
3.74406
9.07955
9.68269
9.7292
9.75791
9.77434
9.78781
9.7995
9.80879
9.81589
9.8201
9.81901
9.81247
9.80113
9.78661
9.76994
9.75135
9.7299
9.703
9.66904
9.62753
9.57932
9.52503
9.46513
9.39827
9.3231
9.2367
9.13828
9.02561
8.89681
8.74919
8.57959
8.38617
8.16608
7.91651
7.63557
7.32038
6.95521
6.56808
6.12687
5.68422
5.22876
1
1
1
1
1
1
1
1
1
1
1
1
1
1
1
1
1
1
1
1
1
1
1
1
1
1
1
1
1
1
1
1
1
1
1
1
1
1
1
1
1
1
1
1
1
1
1
1
1
1
1
1
1
0.999995
2.11246
8.32911
9.74553
9.70279
9.71463
9.73736
9.75099
9.75813
9.76349
9.76741
9.76908
9.7666
9.75867
9.74542
9.72838
9.70852
9.68676
9.66266
9.63343
9.59731
9.55348
9.50243
9.44466
9.38097
9.31041
9.23186
9.1425
9.04083
8.92504
8.79406
8.64532
8.476
8.28371
8.06504
7.81849
7.54503
7.23749
6.90275
6.54308
6.12775
5.72521
5.29446
1
1
1
1
1
1
1
1
1
1
1
1
1
1
1
1
1
1
1
1
1
1
1
1
1
1
1
1
1
1
1
1
1
1
1
1
1
1
1
1
1
1
1
1
1
1
1
1
1
1
1
1
1
0.999999
1.12362
6.94563
9.7795
9.69162
9.67855
9.69457
9.70603
9.71082
9.71452
9.71692
9.71712
9.71357
9.70448
9.68975
9.67066
9.64771
9.62265
9.59573
9.5644
9.52657
9.4811
9.42788
9.36711
9.29967
9.22522
9.14285
9.05064
8.94709
8.82923
8.69668
8.54712
8.37864
8.18892
7.97394
7.73361
7.46516
7.16749
6.86172
6.51777
6.13271
5.76474
5.36224
1
1
1
1
1
1
1
1
1
1
1
1
1
1
1
1
1
1
1
1
1
1
1
1
1
1
1
1
1
1
1
1
1
1
1
1
1
1
1
1
1
1
1
1
1
1
1
1
1
1
1
1
1
1
1.00116
5.10831
9.2952
9.54428
9.62392
9.65731
9.66183
9.66312
9.66485
9.6658
9.66474
9.6604
9.65047
9.63473
9.61385
9.58806
9.5598
9.52987
9.49626
9.45661
9.40939
9.3542
9.29092
9.22033
9.14242
9.05677
8.96202
8.85666
8.73778
8.6043
8.45392
8.28648
8.10019
7.89065
7.65868
7.39416
7.11438
6.8269
6.48876
6.14215
5.80405
5.42999
1
1
1
1
1
1
1
1
1
1
1
1
1
1
1
1
1
1
1
1
1
1
1
1
1
1
1
1
1
1
1
1
1
1
1
1
1
1
1
1
1
1
1
1
1
1
1
1
1
1
1
1
1
1
0.999988
3.08332
8.7768
9.62171
9.62005
9.62042
9.62091
9.62045
9.61928
9.61769
9.6145
9.60862
9.59753
9.58089
9.55828
9.53023
9.49887
9.46553
9.42906
9.3875
9.33889
9.28244
9.21752
9.14456
9.06365
8.97485
8.87749
8.77002
8.65019
8.5168
8.3669
8.20052
8.0176
7.81385
7.58986
7.33499
7.0738
6.78801
6.466
6.1607
5.83804
5.48726
1
1
1
1
1
1
1
1
1
1
1
1
1
1
1
1
1
1
1
1
1
1
1
1
1
1
1
1
1
1
1
1
1
1
1
1
1
1
1
1
1
1
1
1
1
1
1
1
1
1
1
1
1
1
0.999997
1.4757
7.80059
9.74647
9.60824
9.55909
9.56569
9.5695
9.56926
9.56717
9.56275
9.55573
9.54393
9.52669
9.50289
9.47307
9.43896
9.40234
9.36287
9.31928
9.26935
9.21184
9.14556
9.0707
8.98736
8.89589
8.79616
8.68698
8.56664
8.43334
8.28494
8.12038
7.94057
7.74184
7.52649
7.28475
7.03259
6.75347
6.46138
6.17856
5.85828
5.53613
1
1
1
1
1
1
1
1
1
1
1
1
1
1
1
1
1
1
1
1
1
1
1
1
1
1
1
1
1
1
1
1
1
1
1
1
1
1
1
1
1
1
1
1
1
1
1
1
1
1
1
1
1
1
0.999999
1.02218
6.14436
9.37583
9.45832
9.49986
9.51277
9.51925
9.52028
9.51797
9.51246
9.5042
9.49166
9.47367
9.44899
9.41789
9.38144
9.34167
9.29888
9.25269
9.20113
9.14271
9.07565
8.99973
8.91482
8.82142
8.71963
8.60883
8.48788
8.35496
8.20818
8.04635
7.86999
7.6753
7.46744
7.23707
6.99815
6.73197
6.45898
6.18107
5.8775
5.58972
1
1
1
1
1
1
1
1
1
1
1
1
1
1
1
1
1
1
1
1
1
1
1
1
1
1
1
1
1
1
1
1
1
1
1
1
1
1
1
1
1
1
1
1
1
1
1
1
1
1
1
1
1
1
1
0.999931
3.99964
8.9492
9.41625
9.45946
9.48142
9.47915
9.47602
9.47101
9.46334
9.45309
9.43934
9.42041
9.39508
9.36316
9.32476
9.28211
9.23618
9.18731
9.134
9.07467
9.00711
8.93059
8.84464
8.74989
8.64652
8.53445
8.41298
8.28077
8.13593
7.97732
7.80476
7.61457
7.4112
7.19478
6.96906
6.70842
6.45287
6.18712
5.90886
5.63658
1
1
1
1
1
1
1
1
1
1
1
1
1
1
1
1
1
1
1
1
1
1
1
1
1
1
1
1
1
1
1
1
1
1
1
1
1
1
1
1
1
1
1
1
1
1
1
1
1
1
1
1
1
1
1
0.999981
2.04585
8.22366
9.50214
9.44479
9.43815
9.43708
9.43258
9.42488
9.41492
9.40256
9.3874
9.36747
9.34178
9.30948
9.26987
9.22511
9.17655
9.12495
9.0694
9.00863
8.94036
8.86352
8.77727
8.68219
8.57807
8.46523
8.34328
8.21165
8.06876
7.9131
7.74515
7.55868
7.36114
7.15835
6.93518
6.68739
6.45418
6.19903
5.9371
5.66962
1
1
1
1
1
1
1
1
1
1
1
1
1
1
1
1
1
1
1
1
1
1
1
1
1
1
1
1
1
1
1
1
1
1
1
1
1
1
1
1
1
1
1
1
1
1
1
1
1
1
1
1
1
1
1
0.999997
1.10053
6.64
9.44653
9.39057
9.37307
9.38886
9.38704
9.37932
9.36807
9.35349
9.33619
9.31481
9.28855
9.25589
9.21555
9.1693
9.11844
9.06412
9.00615
8.94369
8.87457
8.79764
8.71167
8.61695
8.5128
8.39972
8.27761
8.14654
8.00557
7.85245
7.68966
7.50741
7.31752
7.12034
6.90065
6.6776
6.45533
6.20458
5.95597
5.70182
1
1
1
1
1
1
1
1
1
1
1
1
1
1
1
1
1
1
1
1
1
1
1
1
1
1
1
1
1
1
1
1
1
1
1
1
1
1
1
1
1
1
1
1
1
1
1
1
1
1
1
1
1
1
1
1
1.0006
4.42678
8.93764
9.2921
9.33814
9.35638
9.34788
9.33669
9.32255
9.30526
9.28545
9.26242
9.23549
9.20247
9.16227
9.11547
9.06307
9.00647
8.94619
8.88177
8.81136
8.73409
8.64862
8.55463
8.45123
8.33857
8.21696
8.08634
7.94697
7.79568
7.63778
7.45996
7.27709
7.0847
6.87666
6.66899
6.44546
6.20953
5.97964
5.73924
1
1
1
1
1
1
1
1
1
1
1
1
1
1
1
1
1
1
1
1
1
1
1
1
1
1
1
1
1
1
1
1
1
1
1
1
1
1
1
1
1
1
1
1
1
1
1
1
1
1
1
1
1
1
1
1
0.999994
2.22618
8.28322
9.37616
9.32366
9.32054
9.31112
9.29728
9.27963
9.25941
9.23676
9.21168
9.18334
9.14964
9.10948
9.06238
9.00891
8.95029
8.88769
8.82115
8.74932
8.6716
8.58681
8.4939
8.39181
8.28
8.15971
8.02943
7.8915
7.7423
7.5881
7.41463
7.24121
7.05658
6.85596
6.65122
6.43603
6.22475
6.00445
5.768
1
1
1
1
1
1
1
1
1
1
1
1
1
1
1
1
1
1
1
1
1
1
1
1
1
1
1
1
1
1
1
1
1
1
1
1
1
1
1
1
1
1
1
1
1
1
1
1
1
1
1
1
1
1
1
1
0.999999
1.12742
6.69023
9.35454
9.2953
9.2665
9.26313
9.25041
9.23266
9.212
9.18797
9.16134
9.13149
9.09723
9.05718
9.01035
8.95668
8.89696
8.8326
8.76405
8.6908
8.61244
8.52789
8.4358
8.3351
8.22467
8.10648
7.97662
7.84004
7.69361
7.54084
7.37416
7.2104
7.02818
6.83284
6.63772
6.43843
6.23647
6.01728
5.78784
1
1
1
1
1
1
1
1
1
1
1
1
1
1
1
1
1
1
1
1
1
1
1
1
1
1
1
1
1
1
1
1
1
1
1
1
1
1
1
1
1
1
1
1
1
1
1
1
1
1
1
1
1
1
1
1
1
1.00106
4.37156
8.84082
9.18076
9.22199
9.2281
9.21157
9.19113
9.16878
9.14289
9.11424
9.08205
9.04645
9.00584
8.95904
8.90536
8.84499
8.77923
8.70866
8.63392
8.55465
8.47023
8.37895
8.27946
8.17105
8.05529
7.92615
7.79159
7.64829
7.49688
7.33952
7.17886
6.997
6.81472
6.63362
6.44065
6.23574
6.02379
5.8126
1
1
1
1
1
1
1
1
1
1
1
1
1
1
1
1
1
1
1
1
1
1
1
1
1
1
1
1
1
1
1
1
1
1
1
1
1
1
1
1
1
1
1
1
1
1
1
1
1
1
1
1
1
1
1
1
1
0.999991
2.06992
8.16327
9.29309
9.22198
9.19398
9.16738
9.14771
9.12647
9.09968
9.06894
9.03429
8.99687
8.9554
8.90868
8.85542
8.79524
8.72894
8.65708
8.58097
8.50076
8.41578
8.32483
8.22634
8.12013
8.00638
7.87888
7.74719
7.60646
7.45839
7.30771
7.14544
6.97124
6.80288
6.62705
6.43291
6.23292
6.04036
5.84299
1
1
1
1
1
1
1
1
1
1
1
1
1
1
1
1
1
1
1
1
1
1
1
1
1
1
1
1
1
1
1
1
1
1
1
1
1
1
1
1
1
1
1
1
1
1
1
1
1
1
1
1
1
1
1
1
1
0.999998
1.09551
6.47606
9.13424
9.133
9.1346
9.11508
9.09945
9.07926
9.05201
9.02009
8.98436
8.94608
8.9042
8.85778
8.80524
8.74589
8.67974
8.6073
8.53011
8.44876
8.3629
8.2721
8.17354
8.07046
7.95789
7.83404
7.7056
7.56738
7.42376
7.27524
7.11493
6.95288
6.7899
6.61254
6.42337
6.24062
6.06086
5.86699
1
1
1
1
1
1
1
1
1
1
1
1
1
1
1
1
1
1
1
1
1
1
1
1
1
1
1
1
1
1
1
1
1
1
1
1
1
1
1
1
1
1
1
1
1
1
1
1
1
1
1
1
1
1
1
1
1
1
1.0005
3.90856
8.6414
9.09147
9.08918
9.07567
9.07064
9.04914
9.01729
8.98062
8.94152
8.90061
8.85692
8.80971
8.75712
8.69845
8.633
8.56077
8.48314
8.40076
8.31384
8.22218
8.12473
8.02096
7.91172
7.7922
7.66677
7.53127
7.39111
7.24427
7.09058
6.93555
6.77138
6.59778
6.42285
6.25176
6.07365
5.88002
1
1
1
1
1
1
1
1
1
1
1
1
1
1
1
1
1
1
1
1
1
1
1
1
1
1
1
1
1
1
1
1
1
1
1
1
1
1
1
1
1
1
1
1
1
1
1
1
1
1
1
1
1
1
1
1
1
1
0.999996
1.64778
7.79992
9.24799
9.09654
9.06241
9.03383
9.0063
8.97055
8.93301
8.89368
8.85241
8.80812
8.76056
8.70818
8.65034
8.58602
8.51467
8.43727
8.35449
8.26675
8.17437
8.07699
7.97422
7.86662
7.75121
7.62891
7.49673
7.36001
7.21718
7.06956
6.91547
6.75339
6.59113
6.42741
6.25665
6.07759
5.89213
1
1
1
1
1
1
1
1
1
1
1
1
1
1
1
1
1
1
1
1
1
1
1
1
1
1
1
1
1
1
1
1
1
1
1
1
1
1
1
1
1
1
1
1
1
1
1
1
1
1
1
1
1
1
1
1
1
1
0.999999
1.03625
5.89759
8.88069
8.93873
8.97944
8.99096
8.9633
8.92487
8.88757
8.84888
8.80746
8.76258
8.71437
8.66166
8.60416
8.5408
8.47072
8.39412
8.3116
8.22365
8.13068
8.03299
7.93067
7.82375
7.71132
7.5918
7.46341
7.33096
7.19276
7.048
6.89548
6.74105
6.58835
6.42651
6.25358
6.0816
5.91117
1
1
1
1
1
1
1
1
1
1
1
1
1
1
1
1
1
1
1
1
1
1
1
1
1
1
1
1
1
1
1
1
1
1
1
1
1
1
1
1
1
1
1
1
1
1
1
1
1
1
1
1
1
1
1
1
1
1
1
0.999964
3.17406
8.31501
8.98393
8.98266
8.96359
8.92129
8.88428
8.84783
8.80891
8.76654
8.72025
8.67054
8.61656
8.55863
8.49556
8.42647
8.35088
8.26917
8.18173
8.08897
7.9913
7.88922
7.78321
7.67304
7.55601
7.43176
7.30396
7.16939
7.02709
6.88029
6.73342
6.58309
6.42018
6.25204
6.09386
5.93466
1
1
1
1
1
1
1
1
1
1
1
1
1
1
1
1
1
1
1
1
1
1
1
1
1
1
1
1
1
1
1
1
1
1
1
1
1
1
1
1
1
1
1
1
1
1
1
1
1
1
1
1
1
1
1
1
1
1
1
0.999986
1.32417
7.09106
9.08933
8.96853
8.90659
8.87002
8.83862
8.80442
8.76635
8.72414
8.67758
8.62721
8.57253
8.51432
8.45147
8.38336
8.30908
8.22871
8.1425
8.05072
7.95354
7.85153
7.7459
7.63677
7.52157
7.40123
7.27728
7.14556
7.00773
6.86798
6.7245
6.57389
6.41478
6.25714
6.10944
5.95334
1
1
1
1
1
1
1
1
1
1
1
1
1
1
1
1
1
1
1
1
1
1
1
1
1
1
1
1
1
1
1
1
1
1
1
1
1
1
1
1
1
1
1
1
1
1
1
1
1
1
1
1
1
1
1
1
1
1
1
0.999998
1.00881
4.80171
8.61696
8.80815
8.83601
8.82391
8.80303
8.77105
8.73269
8.68905
8.64047
8.58793
8.53153
8.47208
8.40868
8.34088
8.26761
8.18859
8.10389
8.01363
7.91772
7.81653
7.7115
7.60306
7.48962
7.37285
7.25205