/*--------------------------------*- C++ -*----------------------------------*\
  =========                 |
  \\      /  F ield         | OpenFOAM: The Open Source CFD Toolbox
   \\    /   O peration     | Website:  https://openfoam.org
    \\  /    A nd           | Version:  7
     \\/     M anipulation  |
\*---------------------------------------------------------------------------*/
FoamFile
{
    version     2.0;
    format      ascii;
    class       volScalarField;
    location    "4";
    object      rho;
}
// * * * * * * * * * * * * * * * * * * * * * * * * * * * * * * * * * * * * * //

dimensions      [1 -3 0 0 0 0 0];

internalField   nonuniform List<scalar> 
64512
(
1.40001
1.40001
1.40001
1.40001
1.40001
1.40001
1.40001
1.40001
1.40001
1.40001
1.40001
1.40001
1.40001
1.40001
1.40001
1.40001
1.40001
1.40001
1.40001
1.40001
1.40001
1.40001
1.40001
1.40001
1.40001
1.40001
1.40001
1.40001
1.40001
1.40001
1.40001
1.40001
1.40001
1.40001
1.40001
1.40001
1.40001
1.40001
1.40001
1.40001
1.40001
1.40001
1.40001
1.40001
1.40001
1.40001
1.40001
1.40001
1.50025
4.23607
5.42983
5.43597
5.46098
5.48256
5.50281
5.52119
5.53878
5.55705
5.5771
5.59882
5.6208
5.64117
5.65917
5.67539
5.69127
5.70811
5.7263
5.74489
5.76228
5.77706
5.78924
5.80062
5.81351
5.82894
5.8464
5.8643
5.88053
5.89386
5.90457
5.91375
5.92228
5.93065
5.9391
5.94771
5.95657
5.96579
5.9752
5.9842
5.992
5.99802
6.00206
6.00443
6.00578
6.00658
6.00775
6.0088
1.40001
1.40001
1.40001
1.40001
1.40001
1.40001
1.40001
1.40001
1.40001
1.40001
1.40001
1.40001
1.40001
1.40001
1.40001
1.40001
1.40001
1.40001
1.40001
1.40001
1.40001
1.40001
1.40001
1.40001
1.40001
1.40001
1.40001
1.40001
1.40001
1.40001
1.40001
1.40001
1.40001
1.40001
1.40001
1.40001
1.40001
1.40001
1.40001
1.40001
1.40001
1.40001
1.40001
1.40001
1.40001
1.40001
1.40001
1.40001
1.50131
4.22933
5.41476
5.43574
5.4598
5.48197
5.50288
5.52182
5.53971
5.55794
5.57768
5.59894
5.62045
5.64063
5.65876
5.67532
5.69147
5.70839
5.72648
5.74486
5.76202
5.77661
5.78863
5.79987
5.81261
5.8279
5.84529
5.86321
5.87956
5.89302
5.90382
5.91301
5.9215
5.92981
5.93823
5.94681
5.95564
5.96479
5.97411
5.98305
5.99087
5.99694
6.00103
6.00337
6.00463
6.00531
6.00641
6.00744
1.40001
1.40001
1.40001
1.40001
1.40001
1.40001
1.40001
1.40001
1.40001
1.40001
1.40001
1.40001
1.40001
1.40001
1.40001
1.40001
1.40001
1.40001
1.40001
1.40001
1.40001
1.40001
1.40001
1.40001
1.40001
1.40001
1.40001
1.40001
1.40001
1.40001
1.40001
1.40001
1.40001
1.40001
1.40001
1.40001
1.40001
1.40001
1.40001
1.40001
1.40001
1.40001
1.40001
1.40001
1.40001
1.40001
1.40001
1.40001
1.48879
4.19105
5.40326
5.43252
5.45461
5.47768
5.49956
5.51923
5.53748
5.55577
5.57538
5.59643
5.61774
5.63793
5.65641
5.67355
5.69022
5.70742
5.72557
5.74386
5.76083
5.77524
5.78714
5.79829
5.81083
5.82593
5.84319
5.86115
5.87769
5.89144
5.9025
5.91184
5.92036
5.92866
5.93706
5.94563
5.95441
5.96342
5.97253
5.98128
5.98901
5.99511
5.99924
6.00158
6.00273
6.00324
6.00422
6.00519
1.40001
1.40001
1.40001
1.40001
1.40001
1.40001
1.40001
1.40001
1.40001
1.40001
1.40001
1.40001
1.40001
1.40001
1.40001
1.40001
1.40001
1.40001
1.40001
1.40001
1.40001
1.40001
1.40001
1.40001
1.40001
1.40001
1.40001
1.40001
1.40001
1.40001
1.40001
1.40001
1.40001
1.40001
1.40001
1.40001
1.40001
1.40001
1.40001
1.40001
1.40001
1.40001
1.40001
1.40001
1.40001
1.40001
1.40001
1.40001
1.45631
4.14841
5.4007
5.4291
5.45088
5.47487
5.49713
5.51713
5.53549
5.55359
5.57277
5.59342
5.61459
5.63492
5.65383
5.67156
5.68876
5.70628
5.7245
5.74265
5.75935
5.77354
5.78524
5.79626
5.80856
5.82339
5.84042
5.85832
5.87497
5.88895
5.90021
5.90965
5.91817
5.92644
5.93484
5.94345
5.95226
5.96124
5.97024
5.97887
5.98654
5.99263
5.99675
5.99901
5.99996
6.00021
6.001
6.00183
1.40001
1.40001
1.40001
1.40001
1.40001
1.40001
1.40001
1.40001
1.40001
1.40001
1.40001
1.40001
1.40001
1.40001
1.40001
1.40001
1.40001
1.40001
1.40001
1.40001
1.40001
1.40001
1.40001
1.40001
1.40001
1.40001
1.40001
1.40001
1.40001
1.40001
1.40001
1.40001
1.40001
1.40001
1.40001
1.40001
1.40001
1.40001
1.40001
1.40001
1.40001
1.40001
1.40001
1.40001
1.40001
1.40001
1.40001
1.40001
1.41301
4.09131
5.40501
5.42665
5.4478
5.47206
5.49417
5.51407
5.53228
5.55007
5.56883
5.5892
5.61043
5.63108
5.65038
5.66859
5.68624
5.70402
5.7223
5.74035
5.75683
5.77089
5.78251
5.79351
5.8057
5.82038
5.83728
5.85517
5.872
5.88629
5.89787
5.90749
5.91602
5.92416
5.93237
5.94081
5.94947
5.95829
5.96713
5.97563
5.98323
5.9893
5.99338
5.99553
5.99628
5.9963
5.99685
5.9975
1.40001
1.40001
1.40001
1.40001
1.40001
1.40001
1.40001
1.40001
1.40001
1.40001
1.40001
1.40001
1.40001
1.40001
1.40001
1.40001
1.40001
1.40001
1.40001
1.40001
1.40001
1.40001
1.40001
1.40001
1.40001
1.40001
1.40001
1.40001
1.40001
1.40001
1.40001
1.40001
1.40001
1.40001
1.40001
1.40001
1.40001
1.40001
1.40001
1.40001
1.40001
1.40001
1.40001
1.40001
1.40001
1.40001
1.40001
1.40001
1.40053
4.00276
5.40278
5.42269
5.44321
5.46851
5.49094
5.51093
5.52917
5.547
5.56569
5.58591
5.60704
5.62767
5.64697
5.66529
5.68319
5.70112
5.71939
5.73738
5.75371
5.76773
5.77928
5.79023
5.80219
5.81651
5.83299
5.85052
5.86717
5.88153
5.89335
5.90323
5.91195
5.92016
5.92836
5.93676
5.94541
5.95427
5.96314
5.97165
5.97924
5.98529
5.9893
5.99133
5.99186
5.99163
5.99189
5.99224
1.40001
1.40001
1.40001
1.40001
1.40001
1.40001
1.40001
1.40001
1.40001
1.40001
1.40001
1.40001
1.40001
1.40001
1.40001
1.40001
1.40001
1.40001
1.40001
1.40001
1.40001
1.40001
1.40001
1.40001
1.40001
1.40001
1.40001
1.40001
1.40001
1.40001
1.40001
1.40001
1.40001
1.40001
1.40001
1.40001
1.40001
1.40001
1.40001
1.40001
1.40001
1.40001
1.40001
1.40001
1.40001
1.40001
1.40001
1.40001
1.40001
3.88836
5.39533
5.42127
5.44086
5.4666
5.48868
5.50824
5.52603
5.54353
5.56196
5.58203
5.60315
5.62391
5.64334
5.66185
5.6799
5.69782
5.71598
5.73382
5.74999
5.76407
5.77566
5.78669
5.79853
5.81256
5.82859
5.84568
5.86208
5.87643
5.88846
5.89863
5.90758
5.91588
5.92401
5.93228
5.94081
5.9496
5.95843
5.96687
5.97436
5.98032
5.98426
5.98621
5.98661
5.98619
5.98614
5.98622
1.40001
1.40001
1.40001
1.40001
1.40001
1.40001
1.40001
1.40001
1.40001
1.40001
1.40001
1.40001
1.40001
1.40001
1.40001
1.40001
1.40001
1.40001
1.40001
1.40001
1.40001
1.40001
1.40001
1.40001
1.40001
1.40001
1.40001
1.40001
1.40001
1.40001
1.40001
1.40001
1.40001
1.40001
1.40001
1.40001
1.40001
1.40001
1.40001
1.40001
1.40001
1.40001
1.40001
1.40001
1.40001
1.40001
1.40001
1.40001
1.40001
3.75398
5.38245
5.4192
5.43836
5.46445
5.48597
5.50497
5.52236
5.53982
5.55839
5.57867
5.6
5.62095
5.64036
5.65871
5.67644
5.69381
5.71135
5.72872
5.74456
5.75876
5.77062
5.78203
5.79404
5.80796
5.82358
5.84013
5.85609
5.87028
5.88242
5.89286
5.90209
5.91054
5.91867
5.92685
5.93531
5.94406
5.95285
5.96121
5.96857
5.9744
5.97826
5.98016
5.98047
5.97988
5.97947
5.97929
1.40001
1.40001
1.40001
1.40001
1.40001
1.40001
1.40001
1.40001
1.40001
1.40001
1.40001
1.40001
1.40001
1.40001
1.40001
1.40001
1.40001
1.40001
1.40001
1.40001
1.40001
1.40001
1.40001
1.40001
1.40001
1.40001
1.40001
1.40001
1.40001
1.40001
1.40001
1.40001
1.40001
1.40001
1.40001
1.40001
1.40001
1.40001
1.40001
1.40001
1.40001
1.40001
1.40001
1.40001
1.40001
1.40001
1.40001
1.40001
1.40001
3.60158
5.36523
5.41555
5.43452
5.46096
5.48222
5.50109
5.51849
5.53617
5.55498
5.57545
5.59703
5.61824
5.63767
5.65577
5.67306
5.68975
5.70653
5.72333
5.73881
5.75316
5.76537
5.77721
5.78938
5.8031
5.81812
5.8339
5.84921
5.86309
5.87526
5.88595
5.89549
5.90417
5.91239
5.92054
5.92896
5.93768
5.9464
5.95462
5.96181
5.96752
5.97136
5.97327
5.97354
5.97282
5.97207
5.97165
1.40001
1.40001
1.40001
1.40001
1.40001
1.40001
1.40001
1.40001
1.40001
1.40001
1.40001
1.40001
1.40001
1.40001
1.40001
1.40001
1.40001
1.40001
1.40001
1.40001
1.40001
1.40001
1.40001
1.40001
1.40001
1.40001
1.40001
1.40001
1.40001
1.40001
1.40001
1.40001
1.40001
1.40001
1.40001
1.40001
1.40001
1.40001
1.40001
1.40001
1.40001
1.40001
1.40001
1.40001
1.40001
1.40001
1.40001
1.40001
1.40001
3.43104
5.34356
5.41204
5.43062
5.45683
5.4777
5.49644
5.51392
5.53195
5.55123
5.57213
5.59411
5.6157
5.63515
5.65286
5.66952
5.6853
5.70108
5.71714
5.73222
5.74676
5.75942
5.77179
5.78422
5.79778
5.81219
5.82717
5.84178
5.85528
5.86739
5.87823
5.88797
5.89682
5.90511
5.91327
5.92167
5.93034
5.93894
5.94696
5.95394
5.9595
5.96333
5.96529
5.96554
5.96474
5.96368
5.96311
1.40001
1.40001
1.40001
1.40001
1.40001
1.40001
1.40001
1.40001
1.40001
1.40001
1.40001
1.40001
1.40001
1.40001
1.40001
1.40001
1.40001
1.40001
1.40001
1.40001
1.40001
1.40001
1.40001
1.40001
1.40001
1.40001
1.40001
1.40001
1.40001
1.40001
1.40001
1.40001
1.40001
1.40001
1.40001
1.40001
1.40001
1.40001
1.40001
1.40001
1.40001
1.40001
1.40001
1.40001
1.40001
1.40001
1.40001
1.40001
1.40001
3.24231
5.31379
5.41091
5.42873
5.45374
5.4736
5.49171
5.509
5.52725
5.54703
5.56841
5.59086
5.61287
5.63238
5.64966
5.66567
5.68045
5.6951
5.71029
5.7249
5.73958
5.75272
5.76562
5.77833
5.79172
5.80549
5.81963
5.83351
5.8466
5.85863
5.8696
5.87954
5.88856
5.89695
5.90516
5.91354
5.92213
5.93056
5.93833
5.94505
5.95045
5.95426
5.95628
5.95656
5.95574
5.95449
5.95392
1.40001
1.40001
1.40001
1.40001
1.40001
1.40001
1.40001
1.40001
1.40001
1.40001
1.40001
1.40001
1.40001
1.40001
1.40001
1.40001
1.40001
1.40001
1.40001
1.40001
1.40001
1.40001
1.40001
1.40001
1.40001
1.40001
1.40001
1.40001
1.40001
1.40001
1.40001
1.40001
1.40001
1.40001
1.40001
1.40001
1.40001
1.40001
1.40001
1.40001
1.40001
1.40001
1.40001
1.40001
1.40001
1.40001
1.40001
1.40001
1.40001
3.03554
5.27241
5.41401
5.43015
5.45318
5.47155
5.4884
5.50487
5.52275
5.54263
5.56429
5.58711
5.60956
5.62933
5.64638
5.6619
5.67581
5.6892
5.70326
5.71714
5.73171
5.74517
5.7585
5.7715
5.78474
5.79789
5.81117
5.82432
5.83701
5.84895
5.86002
5.87012
5.87929
5.88776
5.89599
5.90435
5.91285
5.92111
5.92863
5.93508
5.94027
5.94401
5.94607
5.94639
5.9456
5.9443
5.94387
1.40001
1.40001
1.40001
1.40001
1.40001
1.40001
1.40001
1.40001
1.40001
1.40001
1.40001
1.40001
1.40001
1.40001
1.40001
1.40001
1.40001
1.40001
1.40001
1.40001
1.40001
1.40001
1.40001
1.40001
1.40001
1.40001
1.40001
1.40001
1.40001
1.40001
1.40001
1.40001
1.40001
1.40001
1.40001
1.40001
1.40001
1.40001
1.40001
1.40001
1.40001
1.40001
1.40001
1.40001
1.40001
1.40001
1.40001
1.40001
1.40001
2.8128
5.21424
5.42046
5.43417
5.4547
5.47134
5.48668
5.50178
5.51868
5.53812
5.55974
5.58269
5.60543
5.62552
5.64255
5.65786
5.67123
5.68359
5.69657
5.70965
5.72388
5.73755
5.75118
5.76437
5.77738
5.78984
5.80215
5.81443
5.82659
5.83836
5.84948
5.85973
5.869
5.87752
5.88573
5.894
5.90238
5.91048
5.91779
5.924
5.92896
5.93256
5.9346
5.93498
5.93433
5.93318
5.93302
1.40001
1.40001
1.40001
1.40001
1.40001
1.40001
1.40001
1.40001
1.40001
1.40001
1.40001
1.40001
1.40001
1.40001
1.40001
1.40001
1.40001
1.40001
1.40001
1.40001
1.40001
1.40001
1.40001
1.40001
1.40001
1.40001
1.40001
1.40001
1.40001
1.40001
1.40001
1.40001
1.40001
1.40001
1.40001
1.40001
1.40001
1.40001
1.40001
1.40001
1.40001
1.40001
1.40001
1.40001
1.40001
1.40001
1.40001
1.40001
1.40001
2.57836
5.13403
5.4246
5.43838
5.45769
5.47316
5.48699
5.50028
5.5155
5.53377
5.55487
5.57773
5.60075
5.62134
5.6386
5.65386
5.66686
5.67819
5.68994
5.70196
5.71548
5.72917
5.74306
5.75656
5.76953
5.78147
5.79284
5.80415
5.8156
5.82704
5.83812
5.84845
5.8578
5.8663
5.87438
5.88249
5.89069
5.89863
5.90579
5.91179
5.91649
5.91984
5.92175
5.9222
5.92181
5.92095
5.92114
1.40001
1.40001
1.40001
1.40001
1.40001
1.40001
1.40001
1.40001
1.40001
1.40001
1.40001
1.40001
1.40001
1.40001
1.40001
1.40001
1.40001
1.40001
1.40001
1.40001
1.40001
1.40001
1.40001
1.40001
1.40001
1.40001
1.40001
1.40001
1.40001
1.40001
1.40001
1.40001
1.40001
1.40001
1.40001
1.40001
1.40001
1.40001
1.40001
1.40001
1.40001
1.40001
1.40001
1.40001
1.40001
1.40001
1.40001
1.40001
1.40001
2.33766
5.02881
5.42754
5.44253
5.46249
5.47768
5.49064
5.50259
5.51585
5.53211
5.55171
5.57338
5.59569
5.61623
5.63361
5.64889
5.66195
5.67273
5.68353
5.69454
5.70711
5.72058
5.73449
5.74818
5.7611
5.77257
5.78302
5.79327
5.8039
5.81491
5.82592
5.83634
5.84576
5.85417
5.862
5.86976
5.87764
5.88535
5.89235
5.89819
5.90265
5.90574
5.90748
5.90802
5.90803
5.90761
5.90821
1.40001
1.40001
1.40001
1.40001
1.40001
1.40001
1.40001
1.40001
1.40001
1.40001
1.40001
1.40001
1.40001
1.40001
1.40001
1.40001
1.40001
1.40001
1.40001
1.40001
1.40001
1.40001
1.40001
1.40001
1.40001
1.40001
1.40001
1.40001
1.40001
1.40001
1.40001
1.40001
1.40001
1.40001
1.40001
1.40001
1.40001
1.40001
1.40001
1.40001
1.40001
1.40001
1.40001
1.40001
1.40001
1.40001
1.40001
1.40001
1.40001
2.10086
4.89647
5.43275
5.44566
5.46602
5.4819
5.49536
5.50662
5.51817
5.53235
5.54992
5.57007
5.59141
5.61165
5.62908
5.64439
5.6578
5.66838
5.67821
5.68783
5.69875
5.7114
5.72493
5.7387
5.75169
5.76296
5.77273
5.782
5.79173
5.80218
5.81298
5.82337
5.83275
5.84098
5.84844
5.85575
5.86322
5.87066
5.8775
5.88321
5.88747
5.89029
5.89182
5.89239
5.89275
5.8928
5.89385
1.40001
1.40001
1.40001
1.40001
1.40001
1.40001
1.40001
1.40001
1.40001
1.40001
1.40001
1.40001
1.40001
1.40001
1.40001
1.40001
1.40001
1.40001
1.40001
1.40001
1.40001
1.40001
1.40001
1.40001
1.40001
1.40001
1.40001
1.40001
1.40001
1.40001
1.40001
1.40001
1.40001
1.40001
1.40001
1.40001
1.40001
1.40001
1.40001
1.40001
1.40001
1.40001
1.40001
1.40001
1.40001
1.40001
1.40001
1.40001
1.40001
1.87535
4.74215
5.44518
5.44538
5.46674
5.48366
5.49928
5.51086
5.52106
5.53309
5.54863
5.5671
5.58726
5.60699
5.62444
5.63976
5.65357
5.66433
5.67351
5.68184
5.6909
5.70238
5.71523
5.72893
5.74193
5.75307
5.76215
5.77032
5.7789
5.78856
5.79899
5.80929
5.81862
5.82666
5.83376
5.84056
5.84751
5.8545
5.86103
5.86653
5.8706
5.87324
5.87463
5.87524
5.87591
5.87645
5.87787
1.40001
1.40001
1.40001
1.40001
1.40001
1.40001
1.40001
1.40001
1.40001
1.40001
1.40001
1.40001
1.40001
1.40001
1.40001
1.40001
1.40001
1.40001
1.40001
1.40001
1.40001
1.40001
1.40001
1.40001
1.40001
1.40001
1.40001
1.40001
1.40001
1.40001
1.40001
1.40001
1.40001
1.40001
1.40001
1.40001
1.40001
1.40001
1.40001
1.40001
1.40001
1.40001
1.40001
1.40001
1.40001
1.40001
1.40001
1.40001
1.40001
1.67335
4.55052
5.45549
5.4385
5.45718
5.47405
5.49216
5.5074
5.52043
5.533
5.54732
5.56416
5.58289
5.60183
5.61909
5.63433
5.64844
5.65983
5.66896
5.6765
5.68382
5.69386
5.7057
5.71898
5.73171
5.74261
5.75101
5.75809
5.76549
5.77425
5.78419
5.79426
5.8034
5.81117
5.81784
5.82407
5.8304
5.83683
5.84293
5.84814
5.85203
5.85455
5.85587
5.85653
5.85736
5.85816
5.85971
1.40001
1.40001
1.40001
1.40001
1.40001
1.40001
1.40001
1.40001
1.40001
1.40001
1.40001
1.40001
1.40001
1.40001
1.40001
1.40001
1.40001
1.40001
1.40001
1.40001
1.40001
1.40001
1.40001
1.40001
1.40001
1.40001
1.40001
1.40001
1.40001
1.40001
1.40001
1.40001
1.40001
1.40001
1.40001
1.40001
1.40001
1.40001
1.40001
1.40001
1.40001
1.40001
1.40001
1.40001
1.40001
1.40001
1.40001
1.40001
1.40001
1.50411
4.31219
5.42444
5.42628
5.44514
5.46457
5.48293
5.49901
5.51344
5.52729
5.54217
5.55899
5.57709
5.59535
5.61237
5.62761
5.64192
5.65421
5.66385
5.67126
5.67728
5.68575
5.69631
5.70888
5.72113
5.73171
5.73952
5.7456
5.75175
5.75942
5.7686
5.77816
5.78691
5.79429
5.8005
5.80616
5.81182
5.81756
5.82305
5.82781
5.83145
5.83389
5.83525
5.83603
5.83696
5.83784
5.83933
1.40001
1.40001
1.40001
1.40001
1.40001
1.40001
1.40001
1.40001
1.40001
1.40001
1.40001
1.40001
1.40001
1.40001
1.40001
1.40001
1.40001
1.40001
1.40001
1.40001
1.40001
1.40001
1.40001
1.40001
1.40001
1.40001
1.40001
1.40001
1.40001
1.40001
1.40001
1.40001
1.40001
1.40001
1.40001
1.40001
1.40001
1.40001
1.40001
1.40001
1.40001
1.40001
1.40001
1.40001
1.40001
1.40001
1.40001
1.40001
1.40001
1.4057
4.01093
5.36607
5.39256
5.41451
5.43724
5.46022
5.48168
5.50021
5.51676
5.53323
5.55051
5.56825
5.58613
5.60314
5.61852
5.63311
5.64643
5.65709
5.66514
5.67061
5.67763
5.68684
5.69851
5.71015
5.72033
5.72763
5.73278
5.73766
5.74404
5.75217
5.76096
5.7691
5.77597
5.78167
5.78672
5.79167
5.79667
5.80147
5.80567
5.80898
5.81129
5.81264
5.81346
5.81425
5.81489
5.81607
1.40001
1.40001
1.40001
1.40001
1.40001
1.40001
1.40001
1.40001
1.40001
1.40001
1.40001
1.40001
1.40001
1.40001
1.40001
1.40001
1.40001
1.40001
1.40001
1.40001
1.40001
1.40001
1.40001
1.40001
1.40001
1.40001
1.40001
1.40001
1.40001
1.40001
1.40001
1.40001
1.40001
1.40001
1.40001
1.40001
1.40001
1.40001
1.40001
1.40001
1.40001
1.40001
1.40001
1.40001
1.40001
1.40001
1.40001
1.40001
1.40001
1.40005
3.67987
5.29905
5.35808
5.39095
5.41964
5.44406
5.4653
5.48367
5.50105
5.5188
5.53695
5.55535
5.57327
5.59046
5.60649
5.62154
5.63584
5.64784
5.65727
5.66317
5.66915
5.67711
5.6877
5.69866
5.70835
5.71522
5.71959
5.72326
5.72817
5.73499
5.74271
5.75
5.75618
5.76123
5.76558
5.76974
5.77391
5.77788
5.78136
5.78419
5.78623
5.78753
5.78836
5.78892
5.78925
5.79009
1.40001
1.40001
1.40001
1.40001
1.40001
1.40001
1.40001
1.40001
1.40001
1.40001
1.40001
1.40001
1.40001
1.40001
1.40001
1.40001
1.40001
1.40001
1.40001
1.40001
1.40001
1.40001
1.40001
1.40001
1.40001
1.40001
1.40001
1.40001
1.40001
1.40001
1.40001
1.40001
1.40001
1.40001
1.40001
1.40001
1.40001
1.40001
1.40001
1.40001
1.40001
1.40001
1.40001
1.40001
1.40001
1.40001
1.40001
1.40001
1.40001
1.4
3.30789
5.22758
5.3354
5.36923
5.39972
5.42578
5.4488
5.46922
5.48777
5.50535
5.52294
5.54068
5.55818
5.57561
5.59153
5.60704
5.62233
5.63564
5.64664
5.65384
5.65951
5.66659
5.67608
5.68634
5.6955
5.70205
5.70585
5.70843
5.71177
5.71698
5.72334
5.72955
5.73483
5.73907
5.74258
5.74589
5.74922
5.75238
5.75512
5.75732
5.75885
5.75982
5.76025
5.7602
5.76003
5.76039
1.40001
1.40001
1.40001
1.40001
1.40001
1.40001
1.40001
1.40001
1.40001
1.40001
1.40001
1.40001
1.40001
1.40001
1.40001
1.40001
1.40001
1.40001
1.40001
1.40001
1.40001
1.40001
1.40001
1.40001
1.40001
1.40001
1.40001
1.40001
1.40001
1.40001
1.40001
1.40001
1.40001
1.40001
1.40001
1.40001
1.40001
1.40001
1.40001
1.40001
1.40001
1.40001
1.40001
1.40001
1.40001
1.40001
1.40001
1.40001
1.40001
1.40001
2.91469
5.15793
5.32892
5.36644
5.39415
5.41599
5.43581
5.45476
5.47273
5.49042
5.50803
5.52563
5.54266
5.55952
5.57589
5.59036
5.60577
5.62
5.63263
5.64167
5.64786
5.65468
5.66322
5.67285
5.68156
5.68792
5.69139
5.693
5.69475
5.69816
5.7029
5.70782
5.71202
5.71525
5.71774
5.71999
5.7223
5.72449
5.72621
5.72742
5.7282
5.72858
5.7284
5.72779
5.72715
5.72718
1.40001
1.40001
1.40001
1.40001
1.40001
1.40001
1.40001
1.40001
1.40001
1.40001
1.40001
1.40001
1.40001
1.40001
1.40001
1.40001
1.40001
1.40001
1.40001
1.40001
1.40001
1.40001
1.40001
1.40001
1.40001
1.40001
1.40001
1.40001
1.40001
1.40001
1.40001
1.40001
1.40001
1.40001
1.40001
1.40001
1.40001
1.40001
1.40001
1.40001
1.40001
1.40001
1.40001
1.40001
1.40001
1.40001
1.40001
1.40001
1.40001
1.40001
2.5212
5.04205
5.35844
5.37337
5.39309
5.413
5.4321
5.44801
5.46256
5.47757
5.49316
5.50951
5.52588
5.54201
5.55826
5.5734
5.58788
5.60222
5.61519
5.62608
5.63357
5.64065
5.64861
5.65778
5.66619
5.67249
5.67584
5.67671
5.67685
5.67836
5.68133
5.68476
5.68768
5.68966
5.69086
5.69183
5.69298
5.69414
5.69479
5.6949
5.69464
5.69392
5.69247
5.6906
5.68902
5.68838
1.40001
1.40001
1.40001
1.40001
1.40001
1.40001
1.40001
1.40001
1.40001
1.40001
1.40001
1.40001
1.40001
1.40001
1.40001
1.40001
1.40001
1.40001
1.40001
1.40001
1.40001
1.40001
1.40001
1.40001
1.40001
1.40001
1.40001
1.40001
1.40001
1.40001
1.40001
1.40001
1.40001
1.40001
1.40001
1.40001
1.40001
1.40001
1.40001
1.40001
1.40001
1.40001
1.40001
1.40001
1.40001
1.40001
1.40001
1.40001
1.40001
1.40001
2.12076
4.86217
5.41649
5.40788
5.41897
5.42728
5.4351
5.44408
5.45565
5.46882
5.48318
5.4976
5.51176
5.52591
5.5404
5.55514
5.56932
5.58295
5.59613
5.60753
5.61612
5.62392
5.63176
5.64068
5.64902
5.6554
5.65872
5.65912
5.65806
5.65772
5.6587
5.66043
5.66182
5.66233
5.66203
5.6615
5.66129
5.66089
5.65982
5.65826
5.65621
5.6537
5.65084
5.64786
5.64554
5.64468
1.40001
1.40001
1.40001
1.40001
1.40001
1.40001
1.40001
1.40001
1.40001
1.40001
1.40001
1.40001
1.40001
1.40001
1.40001
1.40001
1.40001
1.40001
1.40001
1.40001
1.40001
1.40001
1.40001
1.40001
1.40001
1.40001
1.40001
1.40001
1.40001
1.40001
1.40001
1.40001
1.40001
1.40001
1.40001
1.40001
1.40001
1.40001
1.40001
1.40001
1.40001
1.40001
1.40001
1.40001
1.40001
1.40001
1.40001
1.40001
1.40001
1.40001
1.73386
4.6685
5.47541
5.42031
5.42783
5.43333
5.4422
5.45035
5.45763
5.46556
5.47593
5.48809
5.50065
5.51296
5.52553
5.53821
5.5509
5.56326
5.57493
5.58648
5.59649
5.6043
5.61241
5.62126
5.62969
5.63621
5.63969
5.63991
5.63781
5.6358
5.63483
5.63466
5.63434
5.63316
5.63113
5.62893
5.62681
5.62421
5.62119
5.61773
5.61374
5.60901
5.60359
5.59813
5.59386
5.59162
1.40001
1.40001
1.40001
1.40001
1.40001
1.40001
1.40001
1.40001
1.40001
1.40001
1.40001
1.40001
1.40001
1.40001
1.40001
1.40001
1.40001
1.40001
1.40001
1.40001
1.40001
1.40001
1.40001
1.40001
1.40001
1.40001
1.40001
1.40001
1.40001
1.40001
1.40001
1.40001
1.40001
1.40001
1.40001
1.40001
1.40001
1.40001
1.40001
1.40001
1.40001
1.40001
1.40001
1.40001
1.40001
1.40001
1.40001
1.40001
1.40001
1.40001
1.43697
4.29712
5.44125
5.40672
5.42244
5.43428
5.4445
5.45367
5.46156
5.46813
5.4754
5.48443
5.49395
5.50333
5.51311
5.52347
5.53407
5.54448
5.55472
5.56419
5.57415
5.58279
5.59078
5.59937
5.60792
5.61463
5.61838
5.61873
5.61599
5.61258
5.6097
5.60757
5.60528
5.60216
5.59823
5.594
5.5894
5.58413
5.57821
5.57158
5.56402
5.55555
5.54676
5.53886
5.53315
5.53082
1.40001
1.40001
1.40001
1.40001
1.40001
1.40001
1.40001
1.40001
1.40001
1.40001
1.40001
1.40001
1.40001
1.40001
1.40001
1.40001
1.40001
1.40001
1.40001
1.40001
1.40001
1.40001
1.40001
1.40001
1.40001
1.40001
1.40001
1.40001
1.40001
1.40001
1.40001
1.40001
1.40001
1.40001
1.40001
1.40001
1.40001
1.40001
1.40001
1.40001
1.40001
1.40001
1.40001
1.40001
1.40001
1.40001
1.40001
1.40001
1.40001
1.40001
1.40031
3.79952
5.302
5.35147
5.387
5.41408
5.43519
5.44916
5.45898
5.46776
5.47608
5.48382
5.4912
5.49801
5.50462
5.51148
5.51907
5.52718
5.53559
5.54368
5.5517
5.55984
5.56751
5.57544
5.58377
5.59055
5.59455
5.59516
5.59215
5.58763
5.58299
5.57879
5.5744
5.56924
5.56316
5.55636
5.54864
5.53994
5.53019
5.51957
5.50806
5.4957
5.48265
5.46938
5.45825
5.45143
1.40001
1.40001
1.40001
1.40001
1.40001
1.40001
1.40001
1.40001
1.40001
1.40001
1.40001
1.40001
1.40001
1.40001
1.40001
1.40001
1.40001
1.40001
1.40001
1.40001
1.40001
1.40001
1.40001
1.40001
1.40001
1.40001
1.40001
1.40001
1.40001
1.40001
1.40001
1.40001
1.40001
1.40001
1.40001
1.40001
1.40001
1.40001
1.40001
1.40001
1.40001
1.40001
1.40001
1.40001
1.40001
1.40001
1.40001
1.40001
1.40001
1.40001
1.4
3.29628
5.18838
5.3098
5.36063
5.39447
5.41606
5.43445
5.45072
5.46295
5.47228
5.48093
5.48855
5.49455
5.49902
5.50277
5.50708
5.51219
5.51812
5.52423
5.53041
5.53724
5.54377
5.55042
5.5578
5.56442
5.56845
5.5693
5.56624
5.56085
5.55468
5.54837
5.54186
5.53449
5.52581
5.51589
5.50451
5.4916
5.4771
5.46105
5.44304
5.42268
5.40076
5.37978
5.36323
5.35675
1.40001
1.40001
1.40001
1.40001
1.40001
1.40001
1.40001
1.40001
1.40001
1.40001
1.40001
1.40001
1.40001
1.40001
1.40001
1.40001
1.40001
1.40001
1.40001
1.40001
1.40001
1.40001
1.40001
1.40001
1.40001
1.40001
1.40001
1.40001
1.40001
1.40001
1.40001
1.40001
1.40001
1.40001
1.40001
1.40001
1.40001
1.40001
1.40001
1.40001
1.40001
1.40001
1.40001
1.40001
1.40001
1.40001
1.40001
1.40001
1.40001
1.40001
1.4
2.79705
5.03384
5.29918
5.34196
5.37244
5.39696
5.41638
5.43346
5.44753
5.46053
5.47204
5.48126
5.48863
5.4933
5.49567
5.49758
5.50001
5.5033
5.50697
5.51067
5.51516
5.52019
5.52521
5.53059
5.5364
5.54036
5.54118
5.53802
5.53187
5.52443
5.51613
5.50742
5.49752
5.48584
5.47235
5.45672
5.43872
5.41806
5.39463
5.36822
5.33915
5.30805
5.27635
5.24337
5.21649
1.40001
1.40001
1.40001
1.40001
1.40001
1.40001
1.40001
1.40001
1.40001
1.40001
1.40001
1.40001
1.40001
1.40001
1.40001
1.40001
1.40001
1.40001
1.40001
1.40001
1.40001
1.40001
1.40001
1.40001
1.40001
1.40001
1.40001
1.40001
1.40001
1.40001
1.40001
1.40001
1.40001
1.40001
1.40001
1.40001
1.40001
1.40001
1.40001
1.40001
1.40001
1.40001
1.40001
1.40001
1.40001
1.40001
1.40001
1.40001
1.40001
1.40001
1.4
2.29032
4.86644
5.33982
5.34849
5.36566
5.38363
5.40193
5.41702
5.43109
5.44431
5.45653
5.46818
5.47792
5.4843
5.48743
5.48887
5.48979
5.49093
5.49219
5.49324
5.49473
5.49725
5.50026
5.50333
5.50741
5.51064
5.51135
5.50802
5.50104
5.49225
5.48211
5.47107
5.45839
5.44341
5.42588
5.40532
5.38132
5.35333
5.32114
5.28409
5.24065
5.18746
5.12444
5.06252
5.01859
1.40001
1.40001
1.40001
1.40001
1.40001
1.40001
1.40001
1.40001
1.40001
1.40001
1.40001
1.40001
1.40001
1.40001
1.40001
1.40001
1.40001
1.40001
1.40001
1.40001
1.40001
1.40001
1.40001
1.40001
1.40001
1.40001
1.40001
1.40001
1.40001
1.40001
1.40001
1.40001
1.40001
1.40001
1.40001
1.40001
1.40001
1.40001
1.40001
1.40001
1.40001
1.40001
1.40001
1.40001
1.40001
1.40001
1.40001
1.40001
1.40001
1.40001
1.40001
1.7872
4.70163
5.42332
5.36521
5.3687
5.37627
5.38772
5.40065
5.4142
5.42767
5.43996
5.45109
5.46137
5.47003
5.47525
5.47808
5.47927
5.47954
5.47918
5.47793
5.47643
5.47576
5.47578
5.47628
5.47787
5.47952
5.47963
5.47594
5.4682
5.45807
5.44607
5.43261
5.41699
5.39842
5.37644
5.35035
5.31954
5.28302
5.23986
5.18794
5.12435
5.04672
4.95258
4.84543
4.76681
1.40001
1.40001
1.40001
1.40001
1.40001
1.40001
1.40001
1.40001
1.40001
1.40001
1.40001
1.40001
1.40001
1.40001
1.40001
1.40001
1.40001
1.40001
1.40001
1.40001
1.40001
1.40001
1.40001
1.40001
1.40001
1.40001
1.40001
1.40001
1.40001
1.40001
1.40001
1.40001
1.40001
1.40001
1.40001
1.40001
1.40001
1.40001
1.40001
1.40001
1.40001
1.40001
1.40001
1.40001
1.40001
1.40001
1.40001
1.40001
1.40001
1.40001
1.40001
1.4383
4.23543
5.41501
5.3748
5.37357
5.37448
5.38292
5.39165
5.40112
5.41173
5.42286
5.43355
5.44352
5.45256
5.45953
5.4642
5.46678
5.46751
5.46666
5.46407
5.46024
5.45621
5.45285
5.45054
5.4491
5.44835
5.44687
5.44229
5.43382
5.42225
5.40828
5.39225
5.37354
5.35118
5.32442
5.29229
5.25392
5.20775
5.15208
5.08386
4.99878
4.88499
4.71259
4.36611
3.45259
1.40001
1.40001
1.40001
1.40001
1.40001
1.40001
1.40001
1.40001
1.40001
1.40001
1.40001
1.40001
1.40001
1.40001
1.40001
1.40001
1.40001
1.40001
1.40001
1.40001
1.40001
1.40001
1.40001
1.40001
1.40001
1.40001
1.40001
1.40001
1.40001
1.40001
1.40001
1.40001
1.40001
1.40001
1.40001
1.40001
1.40001
1.40001
1.40001
1.40001
1.40001
1.40001
1.40001
1.40001
1.40001
1.40001
1.40001
1.40001
1.40001
1.40001
1.40001
1.40012
3.61054
5.25053
5.31212
5.35157
5.36857
5.3784
5.38581
5.39228
5.39939
5.40753
5.41609
5.42471
5.43323
5.44078
5.44656
5.45056
5.45249
5.4524
5.44965
5.44476
5.43828
5.43165
5.42604
5.42146
5.41737
5.41321
5.40701
5.3975
5.38448
5.36849
5.34982
5.32797
5.30176
5.27008
5.23164
5.18528
5.12894
5.05989
4.97335
4.85972
4.70091
4.44396
4.03184
3.01637
1.40001
1.40001
1.40001
1.40001
1.40001
1.40001
1.40001
1.40001
1.40001
1.40001
1.40001
1.40001
1.40001
1.40001
1.40001
1.40001
1.40001
1.40001
1.40001
1.40001
1.40001
1.40001
1.40001
1.40001
1.40001
1.40001
1.40001
1.40001
1.40001
1.40001
1.40001
1.40001
1.40001
1.40001
1.40001
1.40001
1.40001
1.40001
1.40001
1.40001
1.40001
1.40001
1.40001
1.40001
1.40001
1.40001
1.40001
1.40001
1.40001
1.40001
1.40001
1.4
2.99845
5.09442
5.29706
5.33798
5.36062
5.37027
5.37754
5.38445
5.39017
5.39568
5.40141
5.4076
5.41435
5.4212
5.42698
5.43139
5.43435
5.43534
5.43347
5.42868
5.42109
5.4121
5.40325
5.39527
5.38781
5.38019
5.37149
5.36023
5.34551
5.32732
5.30584
5.28067
5.25056
5.21398
5.16927
5.11487
5.04823
4.96593
4.86118
4.72454
4.52867
4.25766
3.7188
2.87446
1.40001
1.40001
1.40001
1.40001
1.40001
1.40001
1.40001
1.40001
1.40001
1.40001
1.40001
1.40001
1.40001
1.40001
1.40001
1.40001
1.40001
1.40001
1.40001
1.40001
1.40001
1.40001
1.40001
1.40001
1.40001
1.40001
1.40001
1.40001
1.40001
1.40001
1.40001
1.40001
1.40001
1.40001
1.40001
1.40001
1.40001
1.40001
1.40001
1.40001
1.40001
1.40001
1.40001
1.40001
1.40001
1.40001
1.40001
1.40001
1.40001
1.40001
1.40001
1.4
2.40006
4.89836
5.31641
5.33521
5.34999
5.36007
5.369
5.37628
5.3821
5.38656
5.39003
5.39337
5.39726
5.402
5.40665
5.41055
5.41346
5.41496
5.41431
5.41027
5.40287
5.39285
5.38167
5.37056
5.35977
5.34841
5.33621
5.32214
5.30509
5.2845
5.26017
5.23169
5.19776
5.15661
5.10607
5.04425
4.96787
4.87384
4.7531
4.59847
4.37953
4.07358
3.54262
2.86139
1.40001
1.40001
1.40001
1.40001
1.40001
1.40001
1.40001
1.40001
1.40001
1.40001
1.40001
1.40001
1.40001
1.40001
1.40001
1.40001
1.40001
1.40001
1.40001
1.40001
1.40001
1.40001
1.40001
1.40001
1.40001
1.40001
1.40001
1.40001
1.40001
1.40001
1.40001
1.40001
1.40001
1.40001
1.40001
1.40001
1.40001
1.40001
1.40001
1.40001
1.40001
1.40001
1.40001
1.40001
1.40001
1.40001
1.40001
1.40001
1.40001
1.40001
1.40001
1.4
1.82357
4.70508
5.37618
5.33248
5.33559
5.34723
5.35803
5.36641
5.37284
5.37738
5.38008
5.38167
5.38302
5.38497
5.38732
5.3897
5.39161
5.39275
5.39262
5.38938
5.38277
5.37277
5.36049
5.34694
5.33297
5.31825
5.30216
5.28463
5.26463
5.24123
5.21379
5.18187
5.14406
5.09862
5.04284
4.9746
4.88991
4.78586
4.65338
4.48275
4.25402
3.9327
3.45664
2.91613
1.40001
1.40001
1.40001
1.40001
1.40001
1.40001
1.40001
1.40001
1.40001
1.40001
1.40001
1.40001
1.40001
1.40001
1.40001
1.40001
1.40001
1.40001
1.40001
1.40001
1.40001
1.40001
1.40001
1.40001
1.40001
1.40001
1.40001
1.40001
1.40001
1.40001
1.40001
1.40001
1.40001
1.40001
1.40001
1.40001
1.40001
1.40001
1.40001
1.40001
1.40001
1.40001
1.40001
1.40001
1.40001
1.40001
1.40001
1.40001
1.40001
1.40001
1.40001
1.40001
1.44355
4.17956
5.35674
5.32718
5.32593
5.33621
5.34636
5.35452
5.36135
5.36652
5.36959
5.3708
5.37085
5.37044
5.36993
5.36971
5.36971
5.36969
5.36874
5.36569
5.35966
5.35016
5.33801
5.32334
5.30709
5.28957
5.26989
5.2485
5.22477
5.19787
5.16684
5.13134
5.08977
5.04054
4.98036
4.90696
4.81598
4.70398
4.56371
4.38398
4.15039
3.83765
3.42732
2.98288
1.40001
1.40001
1.40001
1.40001
1.40001
1.40001
1.40001
1.40001
1.40001
1.40001
1.40001
1.40001
1.40001
1.40001
1.40001
1.40001
1.40001
1.40001
1.40001
1.40001
1.40001
1.40001
1.40001
1.40001
1.40001
1.40001
1.40001
1.40001
1.40001
1.40001
1.40001
1.40001
1.40001
1.40001
1.40001
1.40001
1.40001
1.40001
1.40001
1.40001
1.40001
1.40001
1.40001
1.40001