/*--------------------------------*- C++ -*----------------------------------*\
  =========                 |
  \\      /  F ield         | OpenFOAM: The Open Source CFD Toolbox
   \\    /   O peration     | Website:  https://openfoam.org
    \\  /    A nd           | Version:  7
     \\/     M anipulation  |
\*---------------------------------------------------------------------------*/
FoamFile
{
    version     2.0;
    format      ascii;
    class       volScalarField;
    location    "4";
    object      T;
}
// * * * * * * * * * * * * * * * * * * * * * * * * * * * * * * * * * * * * * //

dimensions      [0 0 0 1 0 0 0];

internalField   nonuniform List<scalar> 
64512
(
1
1
1
1
1
1
1
1
1
1
1
1
1
1
1
1
1
1
1
1
1
1
1
1
1
1
1
1
1
1
1
1
1
1
1
1
1
1
1
1
1
1
1
1
1
1
1
1
1.09441
2.34574
2.68625
2.68828
2.69423
2.69921
2.70363
2.70753
2.71126
2.71514
2.71941
2.72406
2.72882
2.73331
2.7372
2.74039
2.74306
2.7456
2.7484
2.75165
2.75535
2.75921
2.76277
2.76573
2.76821
2.77056
2.77314
2.7761
2.77929
2.78231
2.78476
2.78652
2.7878
2.78893
2.7902
2.79176
2.79357
2.79548
2.79734
2.799
2.8004
2.80161
2.80281
2.80413
2.80553
2.80679
2.80777
2.80823
1
1
1
1
1
1
1
1
1
1
1
1
1
1
1
1
1
1
1
1
1
1
1
1
1
1
1
1
1
1
1
1
1
1
1
1
1
1
1
1
1
1
1
1
1
1
1
1
1.09737
2.34549
2.68571
2.69038
2.69544
2.69987
2.70397
2.70774
2.71144
2.71532
2.71956
2.72417
2.72889
2.73335
2.73723
2.74043
2.7431
2.74565
2.74843
2.75165
2.75532
2.75916
2.76268
2.7656
2.76803
2.77035
2.77291
2.77588
2.7791
2.78215
2.78462
2.78638
2.78765
2.78877
2.79004
2.7916
2.7934
2.7953
2.79713
2.79878
2.80019
2.80141
2.80261
2.80393
2.80532
2.80656
2.80752
2.80798
1
1
1
1
1
1
1
1
1
1
1
1
1
1
1
1
1
1
1
1
1
1
1
1
1
1
1
1
1
1
1
1
1
1
1
1
1
1
1
1
1
1
1
1
1
1
1
1
1.08558
2.33768
2.68936
2.69386
2.69721
2.70068
2.7041
2.70758
2.71122
2.71511
2.71941
2.72407
2.72884
2.7333
2.73715
2.74032
2.74298
2.74551
2.74828
2.7515
2.75517
2.759
2.76249
2.76534
2.76769
2.76995
2.77248
2.77546
2.77873
2.78185
2.78437
2.78616
2.78743
2.78856
2.78983
2.79139
2.79318
2.79505
2.79684
2.79845
2.79984
2.80107
2.80229
2.80361
2.80497
2.80617
2.80711
2.80756
1
1
1
1
1
1
1
1
1
1
1
1
1
1
1
1
1
1
1
1
1
1
1
1
1
1
1
1
1
1
1
1
1
1
1
1
1
1
1
1
1
1
1
1
1
1
1
1
1.05427
2.32413
2.69267
2.69576
2.69838
2.70153
2.70462
2.70783
2.71133
2.71521
2.71955
2.72428
2.72909
2.73353
2.73732
2.7404
2.74299
2.74545
2.74817
2.75138
2.75504
2.75885
2.76227
2.76502
2.76724
2.76941
2.77189
2.77489
2.7782
2.78137
2.78393
2.78574
2.78702
2.78815
2.78944
2.79101
2.79281
2.79466
2.79641
2.798
2.79938
2.80062
2.80184
2.80315
2.80447
2.80561
2.80652
2.80694
1
1
1
1
1
1
1
1
1
1
1
1
1
1
1
1
1
1
1
1
1
1
1
1
1
1
1
1
1
1
1
1
1
1
1
1
1
1
1
1
1
1
1
1
1
1
1
1
1.01256
2.30198
2.69308
2.69561
2.69834
2.70168
2.70479
2.70793
2.71133
2.71519
2.71958
2.72438
2.72923
2.73365
2.73736
2.74037
2.74288
2.74527
2.74795
2.75115
2.75482
2.7586
2.76193
2.76456
2.76666
2.76875
2.77122
2.77425
2.77763
2.78086
2.78348
2.78533
2.78662
2.78774
2.78901
2.79056
2.79232
2.79412
2.79584
2.79739
2.79877
2.8
2.80122
2.80253
2.80382
2.80489
2.80575
2.80614
1
1
1
1
1
1
1
1
1
1
1
1
1
1
1
1
1
1
1
1
1
1
1
1
1
1
1
1
1
1
1
1
1
1
1
1
1
1
1
1
1
1
1
1
1
1
1
1
1.00031
2.27285
2.69017
2.69378
2.69703
2.70098
2.70445
2.70781
2.71134
2.71528
2.71973
2.72454
2.72936
2.73371
2.73732
2.74024
2.74267
2.74502
2.7477
2.75095
2.75462
2.75834
2.76151
2.76397
2.76592
2.7679
2.77031
2.77333
2.77672
2.77998
2.78263
2.78452
2.78586
2.78702
2.78831
2.78986
2.7916
2.7934
2.79511
2.79665
2.79802
2.79927
2.80048
2.80178
2.80302
2.80403
2.80483
2.80517
1
1
1
1
1
1
1
1
1
1
1
1
1
1
1
1
1
1
1
1
1
1
1
1
1
1
1
1
1
1
1
1
1
1
1
1
1
1
1
1
1
1
1
1
1
1
1
1
1
2.23891
2.68659
2.69178
2.69534
2.69993
2.70384
2.70751
2.71121
2.7152
2.71958
2.7243
2.72906
2.73339
2.73696
2.73984
2.74229
2.74469
2.74747
2.7508
2.75446
2.75807
2.76103
2.76329
2.7651
2.76701
2.76939
2.77241
2.77581
2.77907
2.78173
2.78365
2.78504
2.78624
2.78755
2.78909
2.7908
2.79257
2.79425
2.79577
2.79712
2.79835
2.79956
2.80085
2.80206
2.80304
2.80377
2.80406
1
1
1
1
1
1
1
1
1
1
1
1
1
1
1
1
1
1
1
1
1
1
1
1
1
1
1
1
1
1
1
1
1
1
1
1
1
1
1
1
1
1
1
1
1
1
1
1
1
2.19819
2.68334
2.69033
2.69398
2.69902
2.70323
2.70712
2.71095
2.71496
2.71926
2.72385
2.72848
2.73271
2.73621
2.73909
2.74162
2.74414
2.74705
2.75046
2.75407
2.75753
2.76027
2.76236
2.76407
2.76596
2.76837
2.77141
2.77479
2.77801
2.78064
2.78258
2.78402
2.78528
2.78662
2.78816
2.78985
2.79158
2.79323
2.79472
2.79605
2.79726
2.79846
2.79974
2.80093
2.80187
2.80255
2.80278
1
1
1
1
1
1
1
1
1
1
1
1
1
1
1
1
1
1
1
1
1
1
1
1
1
1
1
1
1
1
1
1
1
1
1
1
1
1
1
1
1
1
1
1
1
1
1
1
1
2.14969
2.67889
2.68902
2.69294
2.69837
2.70285
2.70694
2.71082
2.71476
2.71886
2.72317
2.72753
2.73158
2.735
2.73793
2.74065
2.74343
2.74657
2.75012
2.75369
2.75698
2.75946
2.76136
2.76297
2.76485
2.76728
2.77032
2.77366
2.77681
2.77938
2.78131
2.7828
2.78413
2.78552
2.78707
2.78875
2.79045
2.79206
2.7935
2.79479
2.79598
2.79717
2.79846
2.79965
2.80057
2.80118
2.80137
1
1
1
1
1
1
1
1
1
1
1
1
1
1
1
1
1
1
1
1
1
1
1
1
1
1
1
1
1
1
1
1
1
1
1
1
1
1
1
1
1
1
1
1
1
1
1
1
1
2.09285
2.67205
2.68712
2.69168
2.69768
2.70253
2.70684
2.71075
2.71457
2.71841
2.72235
2.72635
2.73015
2.73344
2.73642
2.73937
2.74245
2.74588
2.74961
2.75315
2.75628
2.75851
2.76024
2.76177
2.76365
2.76611
2.76917
2.77247
2.77554
2.77802
2.77992
2.78142
2.7828
2.78424
2.78582
2.78749
2.78915
2.7907
2.79209
2.79333
2.79449
2.79568
2.79697
2.79816
2.79906
2.79963
2.7998
1
1
1
1
1
1
1
1
1
1
1
1
1
1
1
1
1
1
1
1
1
1
1
1
1
1
1
1
1
1
1
1
1
1
1
1
1
1
1
1
1
1
1
1
1
1
1
1
1
2.02728
2.66224
2.68398
2.68954
2.69628
2.70177
2.70649
2.71056
2.71432
2.71792
2.7215
2.72509
2.72856
2.73166
2.73461
2.73774
2.74114
2.74488
2.74883
2.7524
2.75541
2.75743
2.75898
2.76042
2.76229
2.76479
2.76787
2.77115
2.77414
2.77654
2.77838
2.77989
2.78131
2.7828
2.78441
2.78607
2.78769
2.78918
2.7905
2.79167
2.7928
2.79398
2.79528
2.79647
2.79738
2.79792
2.7981
1
1
1
1
1
1
1
1
1
1
1
1
1
1
1
1
1
1
1
1
1
1
1
1
1
1
1
1
1
1
1
1
1
1
1
1
1
1
1
1
1
1
1
1
1
1
1
1
1
1.9517
2.64937
2.67931
2.68621
2.69385
2.70013
2.70552
2.70999
2.71386
2.71735
2.72061
2.72382
2.72694
2.72981
2.73265
2.73587
2.73951
2.74354
2.74773
2.7514
2.75434
2.75619
2.75757
2.75891
2.76075
2.76325
2.76636
2.76963
2.77258
2.77491
2.7767
2.77819
2.77963
2.78117
2.78281
2.78447
2.78604
2.78747
2.78871
2.78982
2.79089
2.79205
2.79335
2.79455
2.79548
2.79602
2.79623
1
1
1
1
1
1
1
1
1
1
1
1
1
1
1
1
1
1
1
1
1
1
1
1
1
1
1
1
1
1
1
1
1
1
1
1
1
1
1
1
1
1
1
1
1
1
1
1
1
1.86454
2.63284
2.67379
2.68194
2.69028
2.69726
2.70334
2.70848
2.71281
2.71642
2.71955
2.72245
2.72524
2.72783
2.73046
2.73366
2.73747
2.74177
2.74626
2.75015
2.75315
2.75493
2.75617
2.75737
2.75911
2.76156
2.76465
2.76792
2.77084
2.77313
2.77486
2.77632
2.77778
2.77934
2.78099
2.78264
2.78417
2.78554
2.78671
2.78775
2.78878
2.7899
2.79117
2.79239
2.79337
2.79394
2.79421
1
1
1
1
1
1
1
1
1
1
1
1
1
1
1
1
1
1
1
1
1
1
1
1
1
1
1
1
1
1
1
1
1
1
1
1
1
1
1
1
1
1
1
1
1
1
1
1
1
1.7651
2.61178
2.67024
2.67774
2.68579
2.69315
2.6998
2.70556
2.71047
2.71456
2.7179
2.72078
2.72339
2.72575
2.72813
2.73115
2.73497
2.73943
2.74422
2.74843
2.75161
2.75346
2.75463
2.75573
2.75734
2.7597
2.76275
2.76602
2.76894
2.7712
2.77289
2.77432
2.77575
2.77731
2.77896
2.78058
2.78207
2.78338
2.78449
2.78548
2.78644
2.78751
2.78873
2.78997
2.79101
2.79165
2.79199
1
1
1
1
1
1
1
1
1
1
1
1
1
1
1
1
1
1
1
1
1
1
1
1
1
1
1
1
1
1
1
1
1
1
1
1
1
1
1
1
1
1
1
1
1
1
1
1
1
1.651
2.58372
2.67025
2.67479
2.68132
2.68819
2.69507
2.70136
2.70691
2.71172
2.71562
2.71867
2.72117
2.7233
2.72539
2.72814
2.73186
2.7364
2.74151
2.74617
2.74972
2.75179
2.75297
2.75397
2.75541
2.75762
2.76058
2.76385
2.76681
2.76909
2.77077
2.77217
2.77356
2.7751
2.77671
2.77828
2.77971
2.78096
2.78201
2.78294
2.78384
2.78485
2.78603
2.78728
2.7884
2.78913
2.78956
1
1
1
1
1
1
1
1
1
1
1
1
1
1
1
1
1
1
1
1
1
1
1
1
1
1
1
1
1
1
1
1
1
1
1
1
1
1
1
1
1
1
1
1
1
1
1
1
1
1.52175
2.54375
2.6718
2.67311
2.67762
2.68307
2.6892
2.69561
2.70197
2.70773
2.71243
2.71593
2.71857
2.72064
2.72252
2.72495
2.72846
2.73296
2.73825
2.74333
2.7473
2.74973
2.75099
2.75194
2.75321
2.75524
2.7581
2.76139
2.76444
2.7668
2.7685
2.76986
2.77119
2.77265
2.77421
2.77572
2.77708
2.77826
2.77927
2.78015
2.78099
2.78193
2.78306
2.78431
2.78551
2.78633
2.78684
1
1
1
1
1
1
1
1
1
1
1
1
1
1
1
1
1
1
1
1
1
1
1
1
1
1
1
1
1
1
1
1
1
1
1
1
1
1
1
1
1
1
1
1
1
1
1
1
1
1.37641
2.48819
2.67301
2.6718
2.67536
2.67897
2.6838
2.68974
2.69638
2.70278
2.7082
2.71232
2.71535
2.71759
2.71944
2.72161
2.72483
2.72915
2.73446
2.73986
2.74431
2.74724
2.74873
2.7497
2.75082
2.75265
2.75534
2.75861
2.76176
2.76424
2.76599
2.76732
2.76859
2.76997
2.77145
2.7729
2.77419
2.77529
2.77622
2.77703
2.77781
2.7787
2.77979
2.78105
2.78232
2.78323
2.7838
1
1
1
1
1
1
1
1
1
1
1
1
1
1
1
1
1
1
1
1
1
1
1
1
1
1
1
1
1
1
1
1
1
1
1
1
1
1
1
1
1
1
1
1
1
1
1
1
1
1.225
2.42187
2.67397
2.67024
2.67325
2.67605
2.68018
2.68539
2.69143
2.69759
2.70327
2.70797
2.71154
2.71414
2.71612
2.71814
2.72104
2.72507
2.73022
2.73582
2.7407
2.74425
2.74612
2.74719
2.74819
2.74977
2.75225
2.75546
2.75873
2.76139
2.76325
2.76457
2.76575
2.76702
2.76841
2.76979
2.771
2.77201
2.77285
2.77359
2.77431
2.77515
2.77622
2.77749
2.77879
2.77975
2.78034
1
1
1
1
1
1
1
1
1
1
1
1
1
1
1
1
1
1
1
1
1
1
1
1
1
1
1
1
1
1
1
1
1
1
1
1
1
1
1
1
1
1
1
1
1
1
1
1
1
1.09073
2.35892
2.67363
2.67247
2.67489
2.67755
2.68076
2.68422
2.68829
2.69316
2.69847
2.70342
2.70744
2.71046
2.71269
2.71468
2.71726
2.72089
2.72569
2.73127
2.73649
2.74065
2.74304
2.74435
2.74528
2.74664
2.74887
2.75199
2.75536
2.75823
2.76022
2.76154
2.76262
2.76376
2.76506
2.76636
2.76751
2.76842
2.76915
2.76978
2.77042
2.77123
2.77229
2.77358
2.7749
2.77587
2.77646
1
1
1
1
1
1
1
1
1
1
1
1
1
1
1
1
1
1
1
1
1
1
1
1
1
1
1
1
1
1
1
1
1
1
1
1
1
1
1
1
1
1
1
1
1
1
1
1
1
1.00361
2.2819
2.67599
2.6749
2.67598
2.67803
2.68072
2.68388
2.68739
2.69132
2.69554
2.69981
2.7037
2.70692
2.70938
2.71139
2.71368
2.71683
2.72108
2.72637
2.73172
2.73636
2.73938
2.74107
2.74205
2.74325
2.74524
2.74821
2.75164
2.75471
2.75686
2.7582
2.75917
2.76017
2.76136
2.76259
2.76367
2.7645
2.7651
2.76561
2.76617
2.76693
2.76798
2.76926
2.77055
2.77148
2.772
1
1
1
1
1
1
1
1
1
1
1
1
1
1
1
1
1
1
1
1
1
1
1
1
1
1
1
1
1
1
1
1
1
1
1
1
1
1
1
1
1
1
1
1
1
1
1
1
1
1.00002
2.18599
2.67563
2.67684
2.67904
2.68143
2.68342
2.6856
2.6881
2.691
2.69423
2.6977
2.70115
2.70419
2.70666
2.70864
2.71062
2.71322
2.71675
2.72147
2.72665
2.73151
2.73512
2.73731
2.73847
2.73957
2.74133
2.74412
2.74756
2.75079
2.75313
2.75449
2.75537
2.75623
2.75729
2.75844
2.75946
2.76018
2.76066
2.76103
2.76147
2.76216
2.76318
2.76445
2.76568
2.76655
2.76701
1
1
1
1
1
1
1
1
1
1
1
1
1
1
1
1
1
1
1
1
1
1
1
1
1
1
1
1
1
1
1
1
1
1
1
1
1
1
1
1
1
1
1
1
1
1
1
1
1
1
2.05684
2.66042
2.67678
2.6792
2.6821
2.68474
2.68725
2.68956
2.69189
2.69453
2.69737
2.70019
2.70278
2.70506
2.70674
2.70834
2.71038
2.71309
2.71695
2.7216
2.72635
2.73034
2.73302
2.73448
2.73558
2.73715
2.73972
2.7431
2.74643
2.74894
2.75037
2.75118
2.7519
2.75281
2.75387
2.75483
2.75547
2.75582
2.75606
2.75638
2.75695
2.75787
2.75903
2.76014
2.76091
2.76128
1
1
1
1
1
1
1
1
1
1
1
1
1
1
1
1
1
1
1
1
1
1
1
1
1
1
1
1
1
1
1
1
1
1
1
1
1
1
1
1
1
1
1
1
1
1
1
1
1
1
1.89867
2.62635
2.67178
2.67737
2.68114
2.68416
2.68695
2.68946
2.69186
2.69449
2.69724
2.69992
2.70226
2.70426
2.70583
2.70686
2.7083
2.71024
2.71316
2.71699
2.72124
2.72528
2.7283
2.7301
2.73127
2.73268
2.73503
2.73825
2.74159
2.74425
2.74579
2.74657
2.74717
2.74794
2.74889
2.74975
2.75029
2.7505
2.75057
2.75071
2.75111
2.75185
2.75284
2.75385
2.75456
2.75487
1
1
1
1
1
1
1
1
1
1
1
1
1
1
1
1
1
1
1
1
1
1
1
1
1
1
1
1
1
1
1
1
1
1
1
1
1
1
1
1
1
1
1
1
1
1
1
1
1
1
1.72768
2.57478
2.66033
2.66832
2.67418
2.67941
2.68425
2.6881
2.69127
2.69405
2.69663
2.69916
2.70145
2.70337
2.70493
2.706
2.70695
2.70827
2.71021
2.71312
2.71661
2.72029
2.72335
2.72542
2.72668
2.72796
2.73005
2.73306
2.73625
2.73897
2.74065
2.74147
2.742
2.74264
2.74345
2.74419
2.74459
2.74464
2.74458
2.74454
2.74468
2.74512
2.74583
2.74662
2.74717
2.74735
1
1
1
1
1
1
1
1
1
1
1
1
1
1
1
1
1
1
1
1
1
1
1
1
1
1
1
1
1
1
1
1
1
1
1
1
1
1
1
1
1
1
1
1
1
1
1
1
1
1
1.50863
2.4919
2.64677
2.65461
2.66284
2.6698
2.67624
2.68217
2.68745
2.69165
2.69512
2.69791
2.70022
2.70214
2.70371
2.70492
2.70585
2.70679
2.70814
2.7101
2.71266
2.71567
2.71845
2.72057
2.7219
2.72305
2.72484
2.72753
2.73046
2.73313
2.73493
2.73585
2.73636
2.73689
2.73754
2.7381
2.73834
2.73821
2.73786
2.73747
2.73726
2.73733
2.73771
2.73828
2.7387
2.73885
1
1
1
1
1
1
1
1
1
1
1
1
1
1
1
1
1
1
1
1
1
1
1
1
1
1
1
1
1
1
1
1
1
1
1
1
1
1
1
1
1
1
1
1
1
1
1
1
1
1
1.24136
2.40283
2.64546
2.64092
2.6476
2.65588
2.66465
2.67279
2.67973
2.6855
2.69038
2.69432
2.69744
2.69994
2.70196
2.70346
2.70454
2.70539
2.70626
2.7076
2.70949
2.71161
2.71387
2.71579
2.71707
2.71803
2.71946
2.72169
2.7242
2.72679
2.72864
2.72965
2.7302
2.73062
2.73108
2.7314
2.73142
2.73108
2.73042
2.72964
2.72898
2.7286
2.7285
2.72856
2.7286
2.7285
1
1
1
1
1
1
1
1
1
1
1
1
1
1
1
1
1
1
1
1
1
1
1
1
1
1
1
1
1
1
1
1
1
1
1
1
1
1
1
1
1
1
1
1
1
1
1
1
1
1
1.02244
2.32832
2.64821
2.64133
2.64498
2.64939
2.65505
2.66209
2.6697
2.6767
2.68264
2.68779
2.69206
2.69562
2.69862
2.70097
2.70262
2.7037
2.70455
2.70534
2.70663
2.70816
2.70975
2.71124
2.71232
2.71303
2.71401
2.71565
2.71762
2.71996
2.72184
2.72295
2.72349
2.7238
2.72402
2.72409
2.72385
2.7232
2.7221
2.7207
2.71928
2.7181
2.71733
2.71692
2.71667
2.71655
1
1
1
1
1
1
1
1
1
1
1
1
1
1
1
1
1
1
1
1
1
1
1
1
1
1
1
1
1
1
1
1
1
1
1
1
1
1
1
1
1
1
1
1
1
1
1
1
1
1
1.00015
2.21783
2.64636
2.64334
2.6447
2.64718
2.65101
2.65569
2.66119
2.66746
2.67354
2.67907
2.68419
2.68889
2.69312
2.69664
2.6993
2.70112
2.70233
2.70319
2.70404
2.70508
2.7061
2.70703
2.70777
2.70815
2.70862
2.70958
2.71089
2.71276
2.71452
2.71565
2.71617
2.71633
2.71629
2.71609
2.71553
2.71443
2.71271
2.71056
2.70831
2.70631
2.70464
2.70315
2.70185
2.70086
1
1
1
1
1
1
1
1
1
1
1
1
1
1
1
1
1
1
1
1
1
1
1
1
1
1
1
1
1
1
1
1
1
1
1
1
1
1
1
1
1
1
1
1
1
1
1
1
1
1
1
2.06152
2.64876
2.64967
2.65052
2.65165
2.65273
2.65471
2.65771
2.66119
2.66527
2.67001
2.67514
2.68042
2.68557
2.69021
2.69407
2.69695
2.69895
2.70028
2.70125
2.70215
2.70276
2.70316
2.70347
2.70351
2.70346
2.7037
2.70426
2.70542
2.70679
2.7078
2.70822
2.7082
2.70793
2.70738
2.70639
2.70472
2.70222
2.69905
2.69548
2.69179
2.68828
2.68523
2.68287
2.68194
1
1
1
1
1
1
1
1
1
1
1
1
1
1
1
1
1
1
1
1
1
1
1
1
1
1
1
1
1
1
1
1
1
1
1
1
1
1
1
1
1
1
1
1
1
1
1
1
1
1
1
1.85892
2.60883
2.65505
2.65432
2.65492
2.65551
2.65594
2.65695
2.65814
2.66029
2.6633
2.66709
2.6718
2.67702
2.68219
2.6869
2.69084
2.6939
2.69608
2.6976
2.69873
2.69932
2.69939
2.6993
2.69902
2.69852
2.69814
2.6979
2.69812
2.69879
2.69941
2.69963
2.69941
2.69883
2.69787
2.69634
2.69392
2.6904
2.68585
2.68059
2.67507
2.66963
2.66432
2.65836
2.65296
1
1
1
1
1
1
1
1
1
1
1
1
1
1
1
1
1
1
1
1
1
1
1
1
1
1
1
1
1
1
1
1
1
1
1
1
1
1
1
1
1
1
1
1
1
1
1
1
1
1
1
1.59382
2.50885
2.64633
2.64965
2.65281
2.65505
2.65689
2.65752
2.65822
2.65898
2.66012
2.66218
2.66525
2.66924
2.67384
2.67861
2.68309
2.687
2.69017
2.69257
2.69432
2.69526
2.69538
2.69515
2.69465
2.69382
2.69292
2.69187
2.69106
2.69082
2.69076
2.69057
2.69003
2.68904
2.68755
2.68531
2.68197
2.67723
2.67108
2.66369
2.65515
2.64503
2.63304
2.62075
2.61151
1
1
1
1
1
1
1
1
1
1
1
1
1
1
1
1
1
1
1
1
1
1
1
1
1
1
1
1
1
1
1
1
1
1
1
1
1
1
1
1
1
1
1
1
1
1
1
1
1
1
1
1.26088
2.38739
2.63587
2.63563
2.64212
2.64866
2.6533
2.65588
2.65746
2.65843
2.65919
2.66
2.66137
2.66367
2.66677
2.67054
2.67467
2.67882
2.68263
2.68588
2.68847
2.69015
2.69068
2.69054
2.69005
2.68911
2.68784
2.68611
2.68433
2.68301
2.68202
2.68115
2.68006
2.67852
2.67635
2.67326
2.66886
2.6627
2.65454
2.64416
2.63128
2.61555
2.59677
2.57833
2.57038
1
1
1
1
1
1
1
1
1
1
1
1
1
1
1
1
1
1
1
1
1
1
1
1
1
1
1
1
1
1
1
1
1
1
1
1
1
1
1
1
1
1
1
1
1
1
1
1
1
1
1
1.01945
2.28535
2.63358
2.62957
2.63234
2.63776
2.64507
2.65055
2.65418
2.65644
2.65782
2.65869
2.65946
2.6605
2.66203
2.66421
2.66708
2.67055
2.67428
2.67787
2.68112
2.68365
2.68499
2.68525
2.68496
2.68415
2.68272
2.68057
2.67802
2.67557
2.67346
2.67161
2.6697
2.66738
2.66436
2.66026
2.65463
2.64684
2.63639
2.62274
2.60515
2.58116
2.54485
2.47941
2.33941
1
1
1
1
1
1
1
1
1
1
1
1
1
1
1
1
1
1
1
1
1
1
1
1
1
1
1
1
1
1
1
1
1
1
1
1
1
1
1
1
1
1
1
1
1
1
1
1
1
1
1
1.00007
2.14315
2.62017
2.62025
2.62426
2.62963
2.63599
2.64226
2.64757
2.65169
2.65459
2.65637
2.65742
2.65816
2.65885
2.65973
2.66111
2.66325
2.66619
2.66934
2.67269
2.67574
2.67794
2.67895
2.67898
2.67848
2.67716
2.67489
2.67184
2.66846
2.66517
2.66212
2.65912
2.65577
2.65169
2.64642
2.63941
2.62988
2.61697
2.59961
2.5758
2.54152
2.48612
2.4037
2.19064
1
1
1
1
1
1
1
1
1
1
1
1
1
1
1
1
1
1
1
1
1
1
1
1
1
1
1
1
1
1
1
1
1
1
1
1
1
1
1
1
1
1
1
1
1
1
1
1
1
1
1
0.999999
1.93668
2.60069
2.62512
2.62575
2.62776
2.63046
2.63454
2.63961
2.64459
2.64888
2.6521
2.65422
2.65547
2.65613
2.65642
2.65677
2.65761
2.65924
2.66146
2.66416
2.66702
2.66962
2.6714
2.67207
2.67188
2.67091
2.66883
2.66565
2.66165
2.6573
2.65293
2.64858
2.64395
2.6386
2.63198
2.62345
2.61206
2.5967
2.57568
2.54682
2.5041
2.44434
2.32312
2.11455
1
1
1
1
1
1
1
1
1
1
1
1
1
1
1
1
1
1
1
1
1
1
1
1
1
1
1
1
1
1
1
1
1
1
1
1
1
1
1
1
1
1
1
1
1
1
1
1
1
1
1
1
1.64787
2.51873
2.62407
2.62418
2.62532
2.62702
2.62967
2.63319
2.63741
2.64184
2.6459
2.64915
2.6514
2.65271
2.65315
2.65314
2.65321
2.65369
2.65483
2.65636
2.65836
2.66061
2.6627
2.66399
2.66425
2.66368
2.662
2.65898
2.65473
2.64961
2.64405
2.63828
2.63217
2.62536
2.61724
2.60711
2.59384
2.57627
2.55205
2.51927
2.47117
2.40179
2.27366
2.08863
1
1
1
1
1
1
1
1
1
1
1
1
1
1
1
1
1
1
1
1
1
1
1
1
1
1
1
1
1
1
1
1
1
1
1
1
1
1
1
1
1
1
1
1
1
1
1
1
1
1
1
1
1.27958
2.39065
2.6183
2.616
2.61865
2.62248
2.62551
2.62834
2.63149
2.6351
2.63894
2.64261
2.64569
2.64791
2.64908
2.64937
2.64927
2.64923
2.64949
2.64984
2.65062
2.65187
2.65347
2.65491
2.65557
2.65535
2.65417
2.6516
2.64749
2.64201
2.63552
2.62842
2.62075
2.61233
2.60255
2.59076
2.57569
2.55613
2.52958
2.49333
2.44267
2.36808
2.24921
2.10187
1
1
1
1
1
1
1
1
1
1
1
1
1
1
1
1
1
1
1
1
1
1
1
1
1
1
1
1
1
1
1
1
1
1
1
1
1
1
1
1
1
1
1
1
1
1
1
1
1
1
1
1
1.02189
2.27011
2.61544
2.6114
2.6128
2.61704
2.62074
2.62367
2.6264
2.62929
2.63241
2.63572
2.63896
2.64169
2.64364
2.64468
2.64496
2.64491
2.64468
2.64429
2.64396
2.644
2.64448
2.64536
2.64606
2.64606
2.64532
2.64328
2.63956
2.63408
2.62705
2.6189
2.60981
2.59979
2.58831
2.57483
2.55809
2.53676
2.50861
2.47043
2.41834
2.34461
2.24083
2.11867
1
1
1
1
1
1
1
1
1
1
1
1
1
1
1
1
1
1
1
1
1
1
1
1
1
1
1
1
1
1
1
1
1
1
1
1
1
1
1
1
1
1
1
1
1
1
1
1
1
1
1
1
1.00008
2.08925
2.59295
2.60134
2.60665
2.61128
2.61504
2.61834
2.62123
2.62389
2.62649
2.62921
2.63208
2.63471
2.63699
2.63873
2.63977
2.64012
2.63991
2.63929
2.63828
2.63722
2.63643
2.6362
2.63628
2.63618
2.63556
2.6339
2.63067
2.62555
2.61846
2.60969
2.59946
2.58799
2.57485
2.55968
2.54136
2.51856
2.48934
2.45072
2.39881
2.32984
2.23992
2.13597
1
1
1
1
1
1
1
1
1
1
1
1
1
1
1
1
1
1
1
1
1
1
1
1
1
1
1
1
1
1
1
1
1
1
1
1
1
1
1
1
1
1
1
1
1
1
1
1
1
1
1
1
0.999999
1.822
2.54869
2.60167
2.60426
2.60741
2.61007
2.61293
2.61585
2.61855
2.62095
2.62321
2.62553
2.62769
2.62976
2.63172
2.63338
2.63439
2.63453
2.63405
2.63286
2.63115
2.62931
2.62783
2.62687
2.62618
2.6253
2.62373
2.62086
2.61621
2.6094
2.60047
2.58954
2.57694
2.56239
2.54567
2.52591
2.50189
2.47211
2.43348
2.38396
2.32074
2.24226
2.15478
1
1
1
1
1
1
1
1
1
1
1
1
1
1
1
1
1
1
1
1
1
1
1
1
1
1
1
1
1
1
1
1
1
1
1
1
1
1
1
1
1
1
1
1
1
1
1
1
1
1
1
1
1
1.4444
2.43415
2.59926
2.59884
2.60145
2.60459
2.60768
2.61059
2.6133
2.61569
2.61773
2.61963
2.62125
2.62277
2.62442
2.62616
2.62766
2.62838
2.6282
2.62724
2.62541
2.623
2.62052
2.61838
2.61665
2.61503
2.61309
2.61024
2.60591
2.59957
2.59092
2.57987
2.56657
2.551
2.53302
2.51199
2.487
2.45694
2.41851
2.37265
2.31541
2.24558
2.17169
1
1
1
1
1
1
1
1
1
1
1
1
1
1
1
1
1
1
1
1
1
1
1
1
1
1
1
1
1
1
1
1
1
1
1
1
1
1
1
1
1
1
1
1
1
1
1
1
1
1
1
1
1
1.05623
2.29596
2.59941
2.59434
2.59529
2.59853
2.60184
2.60484
2.60762
2.61008
2.61213
2.61385
2.61509
2.6161
2.61722
2.61861
2.62017
2.62134
2.62158
2.62098
2.61937
2.61684
2.6138
2.6107
2.60788
2.60525
2.60257
2.59933
2.59502
2.58901
2.58082
2.57008
2.55664
2.54052
2.5217
2.49975
2.47405
2.44381
2.40634
2.36368
2.3113
2.24959
2.18644
1
1
1
1
1
1
1
1
1
1
1
1
1
1
1
1
1
1
1
1
1
1
1
1
1
1
1
1
1
1
1
1
1
1
1
1
1
1
1
1
1
1
1
1
1
1
1
1
1
1
1
1
1
1.00067
2.12869
2.57482
2.58131
2.58726
2.59159
2.59532
2.59862
2.60156
2.60414
2.60632
2.60809
2.60918
2.60988
2.61051
2.61136
2.61254
2.61374
2.6143
2.61396
2.61273
2.61044
2.60731
2.6037
2.60001
2.59634
2.59263
2.58858
2.58382
2.57781
2.56999
2.55978
2.54673
2.53068
2.51152
2.48908
2.46298
2.43301
2.39668
2.35622
2.30778
2.25405
2.19786
1
1
1
1
1
1
1
1
1
1
1
1
1
1
1
1
1
1
1
1
1
1
1
1
1
1
1
1
1
1
1
1
1
1
1
1
1
1
1
1
1
1
1
1
1
1
1
1
1
1
1
1
1
0.999995
1.84227
2.53185
2.57765
2.58237
2.58596
2.58916
2.59228
2.59522
2.59785
2.60015
2.602
2.60317
2.60378
2.60409
2.60446
2.60511
2.60597
2.60656
2.60638
2.60548
2.60354
2.60059
2.59684
2.59264
2.58816
2.58349
2.57846
2.57294
2.56653
2.55875
2.54896
2.53652
2.52102
2.50213
2.47971
2.45376
2.42411
2.38911
2.35102
2.30571
2.25805
2.20604
1
1
1
1
1
1
1
1
1
1
1
1
1
1
1
1
1
1
1
1
1
1
1
1
1
1
1
1
1
1
1
1
1
1
1
1
1
1
1
1
1
1
1
1
1
1
1
1
1
1
1
1
1
0.999999
1.42701
2.41929
2.57589
2.57564
2.57834
2.58246
2.58604
2.58887
2.59145
2.59374
2.59565
2.59699
2.59769
2.59789
2.59794
2.59809
2.59842
2.59871
2.59852
2.59771
2.59602
2.59334
2.58975
2.58544
2.58053
2.57514
2.56923
2.56276
2.55557
2.5474
2.53771
2.52582
2.51113
2.49302
2.47126
2.44597
2.41661
2.38385
2.34775
2.30469
2.2613
2.21239
1
1
1
1
1
1
1
1
1
1
1
1
1
1
1
1
1
1
1
1
1
1
1
1
1
1
1
1
1
1
1
1
1
1
1
1
1
1
1
1
1
1
1
1
1
1
1
1
1
1
1
1
1
1
1.04954
2.27425
2.57798
2.57212
2.57297
2.57582
2.57912
2.58188
2.5845
2.58685
2.58887
2.59042
2.59133
2.59161
2.59152
2.59133
2.59118
2.59104
2.59065
2.58974
2.58813
2.58566
2.5823
2.5781
2.57307
2.56728
2.56072
2.55346
2.54541
2.53655
2.52654
2.51487
2.5009
2.4838
2.46325
2.43884
2.41044
2.38017
2.34508
2.30476
2.26474
2.21905
1
1
1
1
1
1
1
1
1
1
1
1
1
1
1
1
1
1
1
1
1
1
1
1
1
1
1
1
1
1
1
1
1
1
1
1
1
1
1
1
1
1
1
1
1
1
1
1
1
1
1
1
1
1
1.00047
2.06714
2.54731
2.55915
2.56612
2.57032
2.5728
2.5751
2.57746
2.57973
2.58178
2.58348
2.58461
2.58511
2.58502
2.58466
2.58419
2.58366
2.58294
2.58179
2.58004
2.5776
2.57437
2.57033
2.56541
2.55955
2.55272
2.54494
2.53619
2.52656
2.51589
2.50402
2.49044
2.47429
2.45516
2.43177
2.4055
2.37718
2.34254
2.30573
2.26866
2.22613
1
1
1
1
1
1
1
1
1
1
1
1
1
1
1
1
1
1
1
1
1
1
1
1
1
1
1
1
1
1
1
1
1
1
1
1
1
1
1
1
1
1
1
1
1
1
1
1
1
1
1
1
1
1
0.999997
1.68888
2.47616
2.55996
2.56221
2.56446
2.56664
2.56874
2.57079
2.57282
2.57472
2.57641
2.57764
2.57832
2.5783
2.57795
2.5773
2.57648
2.57543
2.574
2.57204
2.56948
2.56626
2.56231
2.55752
2.55176
2.54492
2.53693
2.52776
2.51755
2.50623
2.49385
2.48024
2.46466
2.44668
2.4248
2.401
2.37339
2.34064
2.30815
2.27261
2.23259
1
1
1
1
1
1
1
1
1
1
1
1
1
1
1
1
1
1
1
1
1
1
1
1
1
1
1
1
1
1
1
1
1
1
1
1
1
1
1
1
1
1
1
1
1
1
1
1
1
1
1
1
1
1
0.999999
1.19466
2.33881
2.55936
2.55376
2.55488
2.5581
2.56112
2.56355
2.56564
2.56748
2.56911
2.57036
2.57116
2.5713
2.57098
2.57026
2.56927
2.568
2.56636
2.56419
2.56145
2.55808
2.55407
2.54931
2.54366
2.53697
2.52906
2.51984
2.50933
2.49758
2.48467
2.47072
2.45523
2.43805
2.41778
2.39549
2.36917
2.33991
2.31032
2.27525
2.23849
1
1
1
1
1
1
1
1
1
1
1
1
1
1
1
1
1
1
1
1
1
1
1
1
1
1
1
1
1
1
1
1
1
1
1
1
1
1
1
1
1
1
1
1
1
1
1
1
1
1
1
1
1
1
1
1.00904
2.19321
2.54002
2.53991
2.54443
2.54904
2.55285
2.55583
2.55823
2.56017
2.56179
2.56304
2.56387
2.56413
2.56382
2.56309
2.56203
2.56062
2.55881
2.55648
2.55359
2.55006
2.54591
2.54108
2.53546
2.5289
2.52119
2.51214
2.50167
2.48978
2.47658
2.46228
2.44654
2.42966
2.41044
2.38972
2.3653
2.33882
2.31023
2.2775
2.245
1
1
1
1
1
1
1
1
1
1
1
1
1
1
1
1
1
1
1
1
1
1
1
1
1
1
1
1
1
1
1
1
1
1
1
1
1
1
1
1
1
1
1
1
1
1
1
1
1
1
1
1
1
1
1
0.999995
1.8807
2.50457
2.53419
2.53888
2.54282
2.54529
2.548
2.55049
2.55256
2.55425
2.55555
2.55641
2.55674
2.55646
2.55571
2.55459
2.55309
2.55119
2.54879
2.54582
2.54219
2.53789
2.5329
2.52721
2.52068
2.51313
2.50436
2.49418
2.48248
2.46932
2.45487
2.43891
2.42184
2.40354
2.38405
2.36052
2.33633
2.30974
2.28045
2.25025
1
1
1
1
1
1
1
1
1
1
1
1
1
1
1
1
1
1
1
1
1
1
1
1
1
1
1
1
1
1
1
1
1
1
1
1
1
1
1
1
1
1
1
1
1
1
1
1
1
1
1
1
1
1
1
0.999996
1.397
2.39388
2.53633
2.53415
2.53594
2.5382
2.54045
2.54264
2.54467
2.54641
2.54782
2.54878
2.54923
2.549
2.54827
2.54711
2.54553
2.54355
2.54111
2.53812
2.53445
2.53007
2.52495
2.51915
2.51257
2.5051
2.49654
2.4867
2.4754
2.46254
2.44831
2.43225
2.41515
2.39757
2.37793
2.35548
2.33382
2.30896
2.28206
2.2531
1
1
1
1
1
1
1
1
1
1
1
1
1
1
1
1
1
1
1
1
1
1
1
1
1
1
1
1
1
1
1
1
1
1
1
1
1
1
1
1
1
1
1
1
1
1
1
1
1
1
1
1
1
1
1
0.999999
1.04012
2.23945
2.53538
2.52933
2.52945
2.53173
2.53344
2.53515
2.53688
2.53848
2.53987
2.54092
2.54153
2.54138
2.54071
2.53953
2.53786
2.53579
2.5333
2.53031
2.52666
2.52229
2.51715
2.51128
2.50462
2.49713
2.48867
2.47911
2.46826
2.45585
2.44214
2.42631
2.40956
2.39199
2.37214
2.35176
2.3311
2.30691
2.28176
2.25503
1
1
1
1
1
1
1
1
1
1
1
1
1
1
1
1
1
1
1
1
1
1
1
1
1
1
1
1
1
1
1
1
1
1
1
1
1
1
1
1
1
1
1
1
1
1
1
1
1
1
1
1
1
1
1
1
1.00026
1.94729
2.4959
2.519
2.52458
2.52738
2.5278
2.5286
2.52964
2.53076
2.53188
2.53288
2.53359
2.53357
2.53305
2.53192
2.53022
2.52807
2.52552
2.52251
2.51889
2.51458
2.5095
2.50365
2.49696
2.48942
2.481
2.47159
2.46108
2.4491
2.43604
2.42072
2.40451
2.3871
2.36796
2.34866
2.32747
2.30459
2.28166
2.25688
1
1
1
1
1
1
1
1
1
1
1
1
1
1
1
1
1
1
1
1
1
1
1
1
1
1
1
1
1
1
1
1
1
1
1
1
1
1
1
1
1
1
1
1
1
1
1
1
1
1
1
1
1
1
1
1
0.999998
1.44676
2.38894
2.5197
2.51873
2.52107
2.52228
2.52285
2.52324
2.52371
2.52429
2.52496
2.52555
2.52562
2.52521
2.52416
2.52249
2.52029
2.51766
2.5146
2.51099
2.50675
2.50181
2.49606
2.48943
2.48189
2.47352
2.46414
2.45385
2.44224
2.42977
2.41505
2.39984
2.38313
2.3645
2.34512
2.3244
2.30376
2.28175
2.25741
1
1
1
1
1
1
1
1
1
1
1
1
1
1
1
1
1
1
1
1
1
1
1
1
1
1
1
1
1
1
1
1
1
1
1
1
1
1
1
1
1
1
1
1
1
1
1
1
1
1
1
1
1
1
1
1
1
1.0504
2.23033
2.51801
2.51316
2.51362
2.51555
2.51643
2.51677
2.51696
2.51711
2.51735
2.5176
2.51758
2.51722
2.51628
2.51472
2.51256
2.50991
2.5068
2.50317
2.49899
2.49415
2.48853
2.48203
2.47458
2.46634
2.45695
2.44679
2.43551
2.42334
2.40946
2.39537
2.37906
2.36094
2.34238
2.32305
2.30302
2.28094
2.25718
1
1
1
1
1
1
1
1
1
1
1
1
1
1
1
1
1
1
1
1
1
1
1
1
1
1
1
1
1
1
1
1
1
1
1
1
1
1
1
1
1
1
1
1
1
1
1
1
1
1
1
1
1
1
1
1
1
1.00044
1.92776
2.47289
2.49791
2.50575
2.50942
2.51017
2.51057
2.5107
2.51057
2.51038
2.51014
2.50982
2.50927
2.50832
2.50683
2.50474
2.50211
2.49896
2.49531
2.49114
2.48638
2.48089
2.47455
2.4673
2.45926
2.4499
2.4399
2.42892
2.41695
2.40408
2.39051
2.37442
2.3577
2.3406
2.32188
2.30143
2.27981
2.25776
1
1
1
1
1
1
1
1
1
1
1
1
1
1
1
1
1
1
1
1
1
1
1
1
1
1
1
1
1
1
1
1
1
1
1
1
1
1
1
1
1
1
1
1
1
1
1
1
1
1
1
1
1
1
1
1
1
0.999998
1.39447
2.36078
2.50007
2.49897
2.50114
2.50247
2.50371
2.50441
2.50428
2.50386
2.5032
2.50246
2.50158
2.50047
2.49896
2.49694
2.49438
2.49124
2.48759
2.48342
2.47868
2.47328
2.46708
2.46006
2.45224
2.44305
2.43331
2.42256
2.41092
2.39875
2.38516
2.36995
2.35481
2.33844
2.31966
2.2997
2.28004
2.25938
1
1
1
1
1
1
1
1
1
1
1
1
1
1
1
1
1
1
1
1
1
1
1
1
1
1
1
1
1
1
1
1
1
1
1
1
1
1
1
1
1
1
1
1
1
1
1
1
1
1
1
1
1
1
1
1
1
0.999999
1.03776
2.20561
2.48955
2.48926
2.4914
2.49315
2.49546
2.49703
2.49728
2.49697
2.49624
2.49528
2.49412
2.49279
2.49117
2.48914
2.4866
2.4835
2.47985
2.47567
2.47093
2.46558
2.45943
2.45274
2.44509
2.43628
2.42688
2.41639
2.40517
2.39324
2.37987
2.36594
2.35153
2.33518
2.317
2.29902
2.28074
2.26055
1
1
1
1
1
1
1
1
1
1
1
1
1
1
1
1
1
1
1
1
1
1
1
1
1
1
1
1
1
1
1
1
1
1
1
1
1
1
1
1
1
1
1
1
1
1
1
1
1
1
1
1
1
1
1
1
1
1
1.00022
1.84108
2.44081
2.47987
2.48321
2.48539
2.4883
2.48993
2.49038
2.49016
2.48953
2.48853
2.48719
2.48561
2.48377
2.48161
2.47903
2.47592
2.47227
2.46807
2.4633
2.45795
2.45194
2.44525
2.43796
2.42961
2.42055
2.41038
2.39952
2.38777
2.37506
2.36188
2.34745
2.33153
2.31505
2.29844
2.2806
2.26053
1
1
1
1
1
1
1
1
1
1
1
1
1
1
1
1
1
1
1
1
1
1
1
1
1
1
1
1
1
1
1
1
1
1
1
1
1
1
1
1
1
1
1
1
1
1
1
1
1
1
1
1
1
1
1
1
1
1
0.999999
1.25094
2.31339
2.48621
2.47765
2.47889
2.4802
2.48145
2.48189
2.48204
2.48183
2.4812
2.48005
2.47848
2.47653
2.47424
2.47156
2.46839
2.4647
2.46047
2.45567
2.45032
2.44438
2.43784
2.43076
2.42285
2.41416
2.40437
2.3939
2.38258
2.37049
2.35745
2.34321
2.32854
2.31332
2.29697
2.27923
2.26018
1
1
1
1
1
1
1
1
1
1
1
1
1
1
1
1
1
1
1
1
1
1
1
1
1
1
1
1
1
1
1
1
1
1
1
1
1
1
1
1
1
1
1
1
1
1
1
1
1
1
1
1
1
1
1
1
1
1
1
1.01438
2.14124
2.4641
2.46385
2.46717
2.47183
2.47255
2.47292
2.47344
2.47369
2.47347
2.47272
2.47139
2.46951
2.46719
2.46442
2.46116
2.45739
2.4531
2.44827
2.4429
2.43699
2.43056
2.4236
2.41603
2.40767
2.3983
2.38831
2.3775
2.36575
2.35289
2.33941
2.3258
2.31088
2.29438
2.27752
2.2603
1
1
1
1
1
1
1
1
1
1
1
1
1
1
1
1
1
1
1
1
1
1
1
1
1
1
1
1
1
1
1
1
1
1
1
1
1
1
1
1
1
1
1
1
1
1
1
1
1
1
1
1
1
1
1
1
1
1
1
1.00001
1.68596
2.39454
2.46518
2.4664
2.46636
2.46511
2.46506
2.4653
2.46557
2.46549
2.46503
2.46401
2.46234
2.46012
2.45735
2.45405
2.4502
2.44584
2.44096
2.43558
2.42969
2.42333
2.41652
2.40921
2.40114
2.39221
2.38272
2.37233
2.36089
2.34864
2.33603
2.3227
2.30773
2.29182
2.27653
2.26067
1
1
1
1
1
1
1
1
1
1
1
1
1
1
1
1
1
1
1
1
1
1
1
1
1
1
1
1
1
1
1
1
1
1
1
1
1
1
1
1
1
1
1
1
1
1
1
1
1
1
1
1
1
1
1
1
1
1
1
0.999997
1.12704
2.24816
2.47
2.46206
2.45898
2.45802
2.45769
2.4575
2.45743
2.45729
2.45691
2.45613
2.45476
2.45281
2.45023
2.44704
2.44323
2.43886
2.43397
2.42858
2.4227
2.41636
2.40961
2.40245
2.39458
2.38606
2.37699
2.36694
2.35599
2.34451
2.33235
2.31907
2.30458
2.28984
2.27574
2.26041
1
1
1
1
1
1
1
1
1
1
1
1
1
1
1
1
1
1
1
1
1
1
1
1
1
1
1
1
1
1
1
1
1
1
1
1
1
1
1
1
1
1
1
1
1
1
1
1
1
1
1
1
1
1
1
1
1
1
1
0.999999
1.00348
1.98434
2.43386
2.44383
2.44965
2.45104
2.45155
2.45119
2.45064
2.45
2.44924
2.44828
2.44697
2.44521
2.44286
2.43988
2.43624
2.43197
2.42713
2.42178
2.41593
2.40961
2.40291
2.39581
2.38813
2.37997
2.37122
2.36151
2.3512
2.34034
2.32832
2.31546
2.30189
2.28814