/*--------------------------------*- C++ -*----------------------------------*\
  =========                 |
  \\      /  F ield         | OpenFOAM: The Open Source CFD Toolbox
   \\    /   O peration     | Website:  https://openfoam.org
    \\  /    A nd           | Version:  7
     \\/     M anipulation  |
\*---------------------------------------------------------------------------*/
FoamFile
{
    version     2.0;
    format      ascii;
    class       volVectorField;
    location    "4";
    object      U;
}
// * * * * * * * * * * * * * * * * * * * * * * * * * * * * * * * * * * * * * //

dimensions      [0 1 -1 0 0 0 0];

internalField   nonuniform List<vector> 
64512
(
(3 3.7885e-17 0)
(3 3.36304e-17 0)
(3 -1.27075e-16 0)
(3 -4.26958e-16 0)
(3 -8.98172e-17 0)
(3 -1.02902e-16 0)
(3 -1.07056e-16 0)
(3 -1.43554e-16 0)
(3 5.87828e-16 0)
(3 1.0422e-15 0)
(3 5.28317e-16 0)
(3 5.03161e-17 0)
(3 -2.90839e-16 0)
(3 -1.09361e-15 0)
(3 -1.2081e-15 0)
(3 -1.66431e-15 0)
(3 -7.82876e-16 0)
(3 1.58882e-16 0)
(3 4.81083e-16 0)
(3 4.36584e-16 0)
(3 -1.06184e-15 0)
(3 -1.54172e-15 0)
(3 -1.23424e-15 0)
(3 -3.0944e-16 0)
(3 3.39428e-17 0)
(3 -2.85411e-16 0)
(3 -4.57161e-16 0)
(3 1.88567e-17 0)
(3 3.50295e-16 0)
(3 -3.90311e-17 0)
(3 -4.74909e-16 0)
(3 -1.17136e-15 0)
(3 -1.10644e-15 0)
(3 -7.60469e-16 0)
(3 -3.1571e-16 0)
(3 -3.66399e-16 0)
(3 1.6959e-16 0)
(3 4.39341e-16 0)
(3 4.61149e-16 0)
(3 4.39935e-16 0)
(3 4.31568e-16 0)
(3 1.70543e-16 0)
(3 -2.83339e-16 0)
(3 -3.46718e-16 0)
(3 7.14815e-16 0)
(3 1.00674e-15 0)
(3 4.75933e-16 0)
(3 -4.36626e-16 0)
(2.93465 -0.0137409 0)
(1.0496 0.00341196 0)
(0.770216 0.00363553 0)
(0.757616 0.00855503 0)
(0.739987 0.00778541 0)
(0.724136 0.00695707 0)
(0.709254 0.00675056 0)
(0.695429 0.00692491 0)
(0.681971 0.00726183 0)
(0.667936 0.00759589 0)
(0.65269 0.00779009 0)
(0.636383 0.00771509 0)
(0.619876 0.00735587 0)
(0.604081 0.00696072 0)
(0.589231 0.00680157 0)
(0.574832 0.00694186 0)
(0.560088 0.00725808 0)
(0.544436 0.00757521 0)
(0.527807 0.00777559 0)
(0.510617 0.00783188 0)
(0.493681 0.00770342 0)
(0.477749 0.00754696 0)
(0.462698 0.00765681 0)
(0.447648 0.00800209 0)
(0.431888 0.00822664 0)
(0.415326 0.00818098 0)
(0.398079 0.00806025 0)
(0.380333 0.00800925 0)
(0.362534 0.00798695 0)
(0.345148 0.00795782 0)
(0.328315 0.00794218 0)
(0.311849 0.0079552 0)
(0.295454 0.00800792 0)
(0.278872 0.00811496 0)
(0.261959 0.00826901 0)
(0.244712 0.0084468 0)
(0.227204 0.00862813 0)
(0.209474 0.00880207 0)
(0.191518 0.00896809 0)
(0.173325 0.00913865 0)
(0.154885 0.00933169 0)
(0.136162 0.00955792 0)
(0.117054 0.00981863 0)
(0.0974143 0.0101102 0)
(0.0770683 0.0103862 0)
(0.0558222 0.0106453 0)
(0.0338437 0.0107432 0)
(0.0114729 0.0108202 0)
(3 3.33374e-16 0)
(3 1.04348e-16 0)
(3 -1.07007e-16 0)
(3 -5.20187e-16 0)
(3 -3.92918e-16 0)
(3 3.80333e-17 0)
(3 -7.83756e-18 0)
(3 6.73743e-17 0)
(3 6.07194e-16 0)
(3 9.56339e-16 0)
(3 8.08782e-16 0)
(3 8.52171e-16 0)
(3 -1.88605e-16 0)
(3 -7.59817e-16 0)
(3 -1.18678e-15 0)
(3 -1.24121e-15 0)
(3 -7.83261e-16 0)
(3 -7.38104e-16 0)
(3 -2.544e-16 0)
(3 -6.06527e-16 0)
(3 -2.19886e-15 0)
(3 -2.57175e-15 0)
(3 -2.13486e-15 0)
(3 -1.38142e-15 0)
(3 -7.45239e-16 0)
(3 -8.10221e-16 0)
(3 -6.89533e-16 0)
(3 -5.12547e-17 0)
(3 8.0711e-16 0)
(3 6.28124e-16 0)
(3 1.78643e-16 0)
(3 6.69932e-17 0)
(3 -1.40736e-15 0)
(3 -1.2928e-15 0)
(3 -8.62441e-16 0)
(3 -5.1133e-16 0)
(3 2.66759e-16 0)
(3 1.30001e-15 0)
(3 1.6256e-15 0)
(3 1.3906e-15 0)
(3 8.88263e-16 0)
(3 4.46008e-16 0)
(3 -1.89682e-17 0)
(3 2.58019e-16 0)
(3 7.52943e-16 0)
(3 5.25765e-16 0)
(3 -9.25892e-17 0)
(3 -8.42165e-16 0)
(2.95153 -0.00174528 0)
(1.04387 0.00934486 0)
(0.759805 0.00917226 0)
(0.746566 0.0168313 0)
(0.731633 0.0180133 0)
(0.716477 0.0175635 0)
(0.701315 0.0172688 0)
(0.68698 0.0173807 0)
(0.673299 0.0180292 0)
(0.659528 0.0190654 0)
(0.644958 0.0199906 0)
(0.629474 0.0203206 0)
(0.613589 0.0199521 0)
(0.597976 0.0192079 0)
(0.583005 0.0187079 0)
(0.56855 0.0189528 0)
(0.554064 0.0199092 0)
(0.538937 0.0210402 0)
(0.522905 0.0219528 0)
(0.506177 0.0225152 0)
(0.48946 0.0224267 0)
(0.473605 0.0220232 0)
(0.458679 0.0223191 0)
(0.443932 0.0233886 0)
(0.428573 0.0241772 0)
(0.41242 0.0242109 0)
(0.395504 0.0240224 0)
(0.377971 0.0239912 0)
(0.360268 0.0239931 0)
(0.342863 0.0239392 0)
(0.325904 0.0238995 0)
(0.309238 0.023916 0)
(0.292625 0.024019 0)
(0.275872 0.0242647 0)
(0.25888 0.0246578 0)
(0.241659 0.0251537 0)
(0.224268 0.0257029 0)
(0.206728 0.026267 0)
(0.189022 0.0268248 0)
(0.171129 0.0273888 0)
(0.15303 0.0279979 0)
(0.134674 0.0286882 0)
(0.115936 0.0294793 0)
(0.0966475 0.0303799 0)
(0.0766091 0.0312613 0)
(0.05562 0.0321162 0)
(0.0338075 0.0325046 0)
(0.0115018 0.0328576 0)
(3 -1.30257e-16 0)
(3 -1.32958e-16 0)
(3 -2.10324e-16 0)
(3 -5.38893e-16 0)
(3 -6.93768e-16 0)
(3 -5.05758e-16 0)
(3 -3.15832e-16 0)
(3 2.21458e-16 0)
(3 3.74801e-16 0)
(3 4.22854e-16 0)
(3 6.2351e-16 0)
(3 6.00396e-16 0)
(3 -4.36241e-16 0)
(3 -7.21557e-16 0)
(3 -1.26558e-15 0)
(3 -2.0879e-15 0)
(3 -2.79833e-15 0)
(3 -3.10913e-15 0)
(3 -2.50899e-15 0)
(3 -2.81231e-15 0)
(3 -3.15731e-15 0)
(3 -2.98974e-15 0)
(3 -2.82957e-15 0)
(3 -2.23254e-15 0)
(3 -1.93541e-15 0)
(3 -1.48036e-15 0)
(3 -8.76846e-16 0)
(3 -1.44407e-15 0)
(3 -1.43746e-15 0)
(3 -7.90558e-16 0)
(3 4.43962e-16 0)
(3 6.30376e-16 0)
(3 -6.98272e-16 0)
(3 -1.30077e-15 0)
(3 -7.04622e-16 0)
(3 1.39184e-16 0)
(3 1.79914e-15 0)
(3 3.01979e-15 0)
(3 2.89733e-15 0)
(3 2.32562e-15 0)
(3 2.09132e-15 0)
(3 1.95043e-15 0)
(3 2.19963e-15 0)
(3 1.85475e-15 0)
(3 1.38064e-15 0)
(3 2.38207e-16 0)
(3 -1.282e-15 0)
(3 -1.35039e-15 0)
(2.96207 0.0090484 0)
(1.05034 0.0296834 0)
(0.754317 0.0205268 0)
(0.738314 0.0253927 0)
(0.724477 0.027946 0)
(0.709431 0.0289617 0)
(0.694005 0.0295821 0)
(0.679072 0.0297246 0)
(0.664943 0.0300667 0)
(0.651296 0.0310006 0)
(0.63743 0.0321389 0)
(0.622895 0.0328416 0)
(0.607776 0.032772 0)
(0.592437 0.0321939 0)
(0.577255 0.031645 0)
(0.562442 0.0317451 0)
(0.547862 0.0327461 0)
(0.533034 0.0342551 0)
(0.517536 0.035755 0)
(0.501351 0.0368978 0)
(0.485016 0.0369919 0)
(0.469383 0.0363822 0)
(0.454632 0.0367268 0)
(0.440215 0.038336 0)
(0.425316 0.0396002 0)
(0.409703 0.0397564 0)
(0.393349 0.0396366 0)
(0.376332 0.0397886 0)
(0.359035 0.0399668 0)
(0.341868 0.0400228 0)
(0.324941 0.040078 0)
(0.308101 0.0401977 0)
(0.291155 0.0404141 0)
(0.273982 0.0408003 0)
(0.256551 0.0413592 0)
(0.238925 0.0420347 0)
(0.221197 0.0427771 0)
(0.203421 0.0435581 0)
(0.185606 0.0443678 0)
(0.167753 0.0452311 0)
(0.149849 0.0461994 0)
(0.131826 0.0473167 0)
(0.113522 0.0486085 0)
(0.094725 0.0501028 0)
(0.0751841 0.0516083 0)
(0.0546882 0.0531242 0)
(0.0333051 0.0538994 0)
(0.0113659 0.0546588 0)
(3 -3.06973e-16 0)
(3 6.91297e-17 0)
(3 1.38167e-16 0)
(3 -2.75282e-17 0)
(3 -2.11471e-16 0)
(3 -3.41959e-16 0)
(3 -1.05284e-16 0)
(3 2.50918e-16 0)
(3 8.59803e-17 0)
(3 4.44425e-16 0)
(3 3.21847e-16 0)
(3 -3.49053e-16 0)
(3 -5.90775e-16 0)
(3 -6.79266e-16 0)
(3 -2.33207e-15 0)
(3 -2.71249e-15 0)
(3 -2.4939e-15 0)
(3 -2.01057e-15 0)
(3 -1.95715e-15 0)
(3 -2.36567e-15 0)
(3 -2.80051e-15 0)
(3 -2.56507e-15 0)
(3 -1.40008e-15 0)
(3 -9.35607e-16 0)
(3 -5.16306e-16 0)
(3 -1.06404e-16 0)
(3 -1.19335e-15 0)
(3 -1.59418e-15 0)
(3 -1.41611e-15 0)
(3 -1.6286e-15 0)
(3 -8.53807e-16 0)
(3 -1.71645e-16 0)
(3 3.34226e-16 0)
(3 7.16097e-16 0)
(3 1.47987e-15 0)
(3 1.09544e-15 0)
(3 1.13316e-15 0)
(3 2.29068e-15 0)
(3 1.99426e-15 0)
(3 2.27888e-15 0)
(3 2.53475e-15 0)
(3 2.55612e-15 0)
(3 2.7221e-15 0)
(3 2.75591e-15 0)
(3 2.66589e-15 0)
(3 1.67689e-15 0)
(3 4.9142e-16 0)
(3 -9.06518e-16 0)
(2.97059 -0.00357949 0)
(1.07136 0.052166 0)
(0.759726 0.0371875 0)
(0.739649 0.0366157 0)
(0.724666 0.0396878 0)
(0.708612 0.0417563 0)
(0.692457 0.0431867 0)
(0.676804 0.0434533 0)
(0.662204 0.0432257 0)
(0.648588 0.0434502 0)
(0.635294 0.0442722 0)
(0.621547 0.0451632 0)
(0.607004 0.0456683 0)
(0.591758 0.0457829 0)
(0.576181 0.0456193 0)
(0.56079 0.0456085 0)
(0.545844 0.0463098 0)
(0.531083 0.0477453 0)
(0.515993 0.0495541 0)
(0.500289 0.0512365 0)
(0.484268 0.0516373 0)
(0.468779 0.0508946 0)
(0.454086 0.0511953 0)
(0.439844 0.0531587 0)
(0.425232 0.0547623 0)
(0.409984 0.0549889 0)
(0.39404 0.0549417 0)
(0.377428 0.0553159 0)
(0.360461 0.0557471 0)
(0.343468 0.0560288 0)
(0.32652 0.0563232 0)
(0.309473 0.0567015 0)
(0.292183 0.057181 0)
(0.274583 0.0578364 0)
(0.256675 0.058653 0)
(0.238534 0.059547 0)
(0.220266 0.0604578 0)
(0.201957 0.0613683 0)
(0.183673 0.0622935 0)
(0.165471 0.063289 0)
(0.14738 0.0644365 0)
(0.129344 0.0658054 0)
(0.11119 0.0674411 0)
(0.0926873 0.0694143 0)
(0.07353 0.0714842 0)
(0.0535194 0.0736704 0)
(0.0326228 0.074896 0)
(0.0111546 0.07616 0)
(3 2.93507e-16 0)
(3 6.43212e-16 0)
(3 4.92711e-16 0)
(3 2.82541e-16 0)
(3 5.62847e-17 0)
(3 -3.69351e-17 0)
(3 -8.69781e-17 0)
(3 -3.41934e-16 0)
(3 -1.02323e-17 0)
(3 1.83758e-16 0)
(3 3.0115e-16 0)
(3 3.15987e-16 0)
(3 5.18056e-16 0)
(3 -2.29734e-17 0)
(3 -8.64858e-16 0)
(3 -1.07559e-15 0)
(3 -9.85777e-16 0)
(3 -5.08372e-16 0)
(3 -9.10613e-16 0)
(3 -1.27815e-15 0)
(3 -1.26772e-15 0)
(3 -1.52518e-15 0)
(3 -2.03664e-15 0)
(3 -2.22468e-15 0)
(3 -1.91769e-15 0)
(3 -1.52118e-15 0)
(3 -1.31664e-15 0)
(3 -1.17241e-15 0)
(3 -7.70854e-16 0)
(3 -4.00638e-16 0)
(3 -5.3984e-16 0)
(3 -4.83716e-16 0)
(3 6.77497e-16 0)
(3 1.16985e-15 0)
(3 1.11742e-15 0)
(3 1.20638e-15 0)
(3 7.00319e-16 0)
(3 1.14031e-15 0)
(3 2.02024e-15 0)
(3 3.08384e-15 0)
(3 2.34849e-15 0)
(3 2.35344e-15 0)
(3 2.55503e-15 0)
(3 2.66687e-15 0)
(3 2.458e-15 0)
(3 1.96225e-15 0)
(3 2.37895e-15 0)
(3 1.13366e-15 0)
(2.98935 0.00262095 0)
(1.09855 0.0646453 0)
(0.768828 0.0494025 0)
(0.74831 0.0463721 0)
(0.731976 0.0504973 0)
(0.714553 0.0541883 0)
(0.697393 0.0567575 0)
(0.68095 0.0571588 0)
(0.665827 0.0561137 0)
(0.651916 0.0552301 0)
(0.63859 0.0553788 0)
(0.625045 0.0563808 0)
(0.610748 0.0577189 0)
(0.595603 0.0589771 0)
(0.579874 0.0595906 0)
(0.564173 0.0595393 0)
(0.54896 0.059747 0)
(0.534133 0.0608017 0)
(0.519192 0.0627046 0)
(0.503718 0.064885 0)
(0.487805 0.0656945 0)
(0.472297 0.0648942 0)
(0.457507 0.0651152 0)
(0.443252 0.067352 0)
(0.428689 0.0692921 0)
(0.413494 0.0696687 0)
(0.397603 0.0698092 0)
(0.381016 0.0705407 0)
(0.363968 0.071394 0)
(0.346712 0.0720978 0)
(0.329291 0.0728271 0)
(0.311599 0.0736218 0)
(0.293578 0.0744543 0)
(0.27527 0.0753976 0)
(0.256746 0.0764436 0)
(0.238094 0.0775099 0)
(0.219404 0.0785417 0)
(0.200737 0.0795356 0)
(0.182148 0.0805264 0)
(0.163692 0.081589 0)
(0.145408 0.0828222 0)
(0.12726 0.0843148 0)
(0.1091 0.0861365 0)
(0.0907342 0.0884359 0)
(0.0718328 0.0909461 0)
(0.0522567 0.0937408 0)
(0.0318501 0.095424 0)
(0.0108992 0.0972309 0)
(3 3.85697e-17 0)
(3 -2.11091e-16 0)
(3 -4.44053e-16 0)
(3 -3.0175e-16 0)
(3 -3.43413e-16 0)
(3 -6.11129e-16 0)
(3 -8.46026e-16 0)
(3 -9.38188e-16 0)
(3 -1.02135e-16 0)
(3 -2.29499e-16 0)
(3 -8.6287e-18 0)
(3 7.17497e-16 0)
(3 1.44085e-15 0)
(3 6.89156e-16 0)
(3 1.09277e-15 0)
(3 9.75266e-16 0)
(3 6.59827e-16 0)
(3 3.41884e-16 0)
(3 -4.87674e-16 0)
(3 -8.20716e-16 0)
(3 -1.2839e-16 0)
(3 -4.85094e-16 0)
(3 -2.71451e-15 0)
(3 -2.6978e-15 0)
(3 -2.52723e-15 0)
(3 -1.97505e-15 0)
(3 -1.39032e-15 0)
(3 -9.50892e-16 0)
(3 -1.33933e-15 0)
(3 -1.15711e-15 0)
(3 -1.03487e-15 0)
(3 -1.19606e-15 0)
(3 -8.07502e-16 0)
(3 -2.29363e-16 0)
(3 1.67715e-16 0)
(3 8.82527e-16 0)
(3 1.04719e-15 0)
(3 4.96799e-16 0)
(3 1.02976e-15 0)
(3 1.70787e-15 0)
(3 2.65283e-15 0)
(3 2.72267e-15 0)
(3 2.30253e-15 0)
(3 2.0461e-15 0)
(3 2.32444e-15 0)
(3 2.68642e-15 0)
(3 2.59742e-15 0)
(3 1.85549e-15 0)
(2.99971 0.0003229 0)
(1.13381 0.0740884 0)
(0.771949 0.0605827 0)
(0.751361 0.0591837 0)
(0.734941 0.064035 0)
(0.717305 0.0681626 0)
(0.70037 0.0710368 0)
(0.684111 0.0711797 0)
(0.669 0.0692421 0)
(0.654798 0.0672927 0)
(0.640893 0.0668916 0)
(0.626665 0.0681437 0)
(0.611716 0.0704019 0)
(0.596039 0.0728133 0)
(0.579935 0.0741654 0)
(0.56412 0.0739618 0)
(0.549097 0.0734242 0)
(0.534632 0.0739294 0)
(0.520082 0.0759137 0)
(0.504892 0.0786868 0)
(0.488962 0.0800475 0)
(0.473205 0.0792706 0)
(0.458041 0.0793529 0)
(0.44346 0.0817772 0)
(0.428656 0.0840664 0)
(0.413238 0.0846778 0)
(0.397177 0.0850839 0)
(0.380496 0.0862296 0)
(0.363414 0.0875508 0)
(0.346173 0.0887002 0)
(0.328832 0.0898542 0)
(0.311293 0.0910236 0)
(0.29349 0.0921467 0)
(0.275431 0.0933105 0)
(0.257136 0.0945299 0)
(0.238634 0.0957355 0)
(0.219974 0.0968829 0)
(0.201211 0.0979787 0)
(0.182415 0.0990645 0)
(0.163668 0.100214 0)
(0.145038 0.101519 0)
(0.126532 0.103072 0)
(0.108065 0.104957 0)
(0.0895257 0.107422 0)
(0.070589 0.110198 0)
(0.0512357 0.113465 0)
(0.0311702 0.11554 0)
(0.0106491 0.117853 0)
(3 -4.50138e-16 0)
(3 -6.98312e-16 0)
(3 -8.66561e-16 0)
(3 -8.2281e-16 0)
(3 -6.14395e-16 0)
(3 -3.76102e-16 0)
(3 -5.90364e-16 0)
(3 -5.27828e-16 0)
(3 -5.99357e-16 0)
(3 -8.93397e-16 0)
(3 -7.08431e-16 0)
(3 4.31525e-16 0)
(3 1.85409e-15 0)
(3 1.98612e-15 0)
(3 1.94688e-15 0)
(3 1.69165e-15 0)
(3 1.54267e-15 0)
(3 3.1613e-16 0)
(3 3.21125e-17 0)
(3 -1.62567e-16 0)
(3 -1.12407e-16 0)
(3 -4.58604e-16 0)
(3 -1.26648e-15 0)
(3 -1.50214e-15 0)
(3 -1.58333e-15 0)
(3 -1.51485e-15 0)
(3 -1.27348e-15 0)
(3 -1.18106e-15 0)
(3 -7.60736e-16 0)
(3 -7.72845e-16 0)
(3 -2.67911e-16 0)
(3 -8.18957e-17 0)
(3 -2.9111e-16 0)
(3 -5.04069e-16 0)
(3 4.2733e-16 0)
(3 8.086e-16 0)
(3 8.70532e-16 0)
(3 1.08429e-16 0)
(3 -2.70362e-16 0)
(3 -3.0885e-18 0)
(3 1.36852e-15 0)
(3 1.20616e-15 0)
(3 7.3426e-16 0)
(3 1.23016e-15 0)
(3 1.84951e-15 0)
(3 2.48334e-15 0)
(3 2.03783e-15 0)
(3 1.51432e-15 0)
(3 8.99982e-07 0)
(1.18022 0.0863283 0)
(0.772359 0.0707818 0)
(0.750538 0.0708792 0)
(0.735508 0.0770158 0)
(0.718329 0.0816864 0)
(0.70189 0.0849467 0)
(0.685892 0.0850651 0)
(0.670869 0.0825792 0)
(0.656633 0.0797546 0)
(0.642625 0.0788093 0)
(0.628424 0.0802002 0)
(0.613714 0.0832148 0)
(0.598402 0.0866084 0)
(0.582632 0.0885139 0)
(0.567137 0.0879746 0)
(0.552393 0.0865585 0)
(0.538043 0.0864989 0)
(0.523547 0.0886788 0)
(0.508389 0.0922225 0)
(0.492289 0.0943361 0)
(0.47622 0.093696 0)
(0.460687 0.0936251 0)
(0.445794 0.0961635 0)
(0.430791 0.0987913 0)
(0.415201 0.0996769 0)
(0.399018 0.100349 0)
(0.382282 0.101854 0)
(0.365179 0.103569 0)
(0.34792 0.105093 0)
(0.330571 0.106621 0)
(0.313039 0.108148 0)
(0.295256 0.109575 0)
(0.277217 0.111001 0)
(0.25891 0.112465 0)
(0.240334 0.113908 0)
(0.221517 0.115285 0)
(0.202526 0.116595 0)
(0.183457 0.117868 0)
(0.164409 0.119167 0)
(0.145455 0.120569 0)
(0.126611 0.122169 0)
(0.107823 0.124055 0)
(0.0890403 0.126574 0)
(0.0699586 0.129465 0)
(0.050675 0.133053 0)
(0.0307525 0.135412 0)
(0.0104905 0.138148 0)
(3 7.91323e-17 0)
(3 5.39723e-16 0)
(3 5.36365e-16 0)
(3 3.89498e-16 0)
(3 4.4038e-16 0)
(3 4.65634e-16 0)
(3 1.92142e-16 0)
(3 -2.02872e-18 0)
(3 -4.71859e-16 0)
(3 -6.10928e-16 0)
(3 -6.88949e-16 0)
(3 1.91881e-16 0)
(3 9.43893e-16 0)
(3 1.59468e-15 0)
(3 6.90558e-16 0)
(3 -2.80419e-17 0)
(3 -4.01312e-16 0)
(3 -6.80871e-16 0)
(3 -2.74706e-16 0)
(3 3.89151e-16 0)
(3 -6.39485e-17 0)
(3 -3.98393e-17 0)
(3 4.94269e-16 0)
(3 3.99583e-16 0)
(3 -2.15888e-16 0)
(3 -9.23671e-16 0)
(3 -1.20893e-15 0)
(3 -8.27221e-16 0)
(3 -3.75749e-16 0)
(3 3.52026e-16 0)
(3 5.92948e-16 0)
(3 1.07448e-15 0)
(3 5.2086e-16 0)
(3 -5.40337e-16 0)
(3 -1.0718e-15 0)
(3 -5.4758e-16 0)
(3 -2.72618e-16 0)
(3 -9.71734e-18 0)
(3 7.02844e-17 0)
(3 2.23484e-16 0)
(3 5.25623e-16 0)
(3 5.34964e-16 0)
(3 1.25282e-16 0)
(3 2.79557e-16 0)
(3 4.43206e-16 0)
(3 3.03418e-16 0)
(3 6.98214e-16 0)
(3 1.04362e-15 0)
(3 7.0206e-10 0)
(1.24064 0.0997127 0)
(0.77499 0.0818299 0)
(0.749821 0.0823838 0)
(0.735391 0.0897398 0)
(0.718104 0.0949413 0)
(0.701777 0.0985649 0)
(0.685893 0.0986987 0)
(0.671055 0.0957817 0)
(0.656991 0.0921951 0)
(0.642995 0.090731 0)
(0.628776 0.092232 0)
(0.614156 0.0959482 0)
(0.599049 0.10027 0)
(0.583463 0.102731 0)
(0.568097 0.10201 0)
(0.553366 0.0999483 0)
(0.538802 0.0994777 0)
(0.524071 0.101894 0)
(0.508856 0.106185 0)
(0.492738 0.108993 0)
(0.476701 0.108421 0)
(0.461241 0.108085 0)
(0.446464 0.110633 0)
(0.431646 0.113594 0)
(0.416164 0.114815 0)
(0.40005 0.115781 0)
(0.383375 0.117633 0)
(0.366318 0.119716 0)
(0.349086 0.121591 0)
(0.331776 0.12348 0)
(0.314318 0.125366 0)
(0.296639 0.127111 0)
(0.278711 0.128819 0)
(0.260487 0.130557 0)
(0.241926 0.13228 0)
(0.223034 0.133935 0)
(0.203892 0.135502 0)
(0.184621 0.136993 0)
(0.165342 0.138451 0)
(0.14613 0.139942 0)
(0.127001 0.141568 0)
(0.107923 0.143418 0)
(0.0888933 0.145921 0)
(0.0696271 0.148826 0)
(0.0503347 0.152632 0)
(0.0304706 0.155189 0)
(0.0103795 0.158281 0)
(3 -2.64291e-17 0)
(3 -2.35448e-16 0)
(3 3.88208e-17 0)
(3 8.45038e-17 0)
(3 -3.83647e-17 0)
(3 -1.51622e-16 0)
(3 2.21831e-16 0)
(3 -7.27892e-17 0)
(3 -6.90075e-16 0)
(3 -4.09376e-16 0)
(3 4.03242e-17 0)
(3 -1.0022e-16 0)
(3 -4.84213e-16 0)
(3 -4.08093e-16 0)
(3 -3.66799e-16 0)
(3 -6.82529e-16 0)
(3 -1.19984e-15 0)
(3 -9.36124e-16 0)
(3 -1.42309e-16 0)
(3 2.43672e-16 0)
(3 3.06597e-16 0)
(3 3.24641e-16 0)
(3 4.21815e-16 0)
(3 7.49011e-16 0)
(3 1.2809e-15 0)
(3 -1.38673e-16 0)
(3 -4.32596e-16 0)
(3 -8.73661e-16 0)
(3 -1.15227e-15 0)
(3 -1.40458e-15 0)
(3 -1.92851e-15 0)
(3 -1.31858e-15 0)
(3 -1.01488e-15 0)
(3 -1.34846e-15 0)
(3 -1.62156e-15 0)
(3 -1.3098e-15 0)
(3 -1.53585e-15 0)
(3 -1.27133e-15 0)
(3 -1.40132e-15 0)
(3 -9.58081e-16 0)
(3 -1.13855e-15 0)
(3 -4.02171e-16 0)
(3 -9.04893e-16 0)
(3 -1.19285e-15 0)
(3 -1.10956e-15 0)
(3 -1.38853e-15 0)
(3 -1.19133e-15 0)
(3 -2.84075e-16 0)
(3 -1.97185e-14 0)
(1.31603 0.113827 0)
(0.779347 0.0944877 0)
(0.749563 0.0941535 0)
(0.735667 0.102482 0)
(0.718379 0.108157 0)
(0.70218 0.112037 0)
(0.686311 0.112167 0)
(0.671366 0.108936 0)
(0.657075 0.104736 0)
(0.642758 0.102784 0)
(0.628338 0.104311 0)
(0.613829 0.108577 0)
(0.599114 0.113662 0)
(0.583945 0.116626 0)
(0.568889 0.115865 0)
(0.55432 0.113333 0)
(0.539694 0.112521 0)
(0.524865 0.115119 0)
(0.509716 0.120033 0)
(0.493659 0.12345 0)
(0.477634 0.122942 0)
(0.462139 0.122347 0)
(0.447311 0.124908 0)
(0.43254 0.128267 0)
(0.417082 0.129911 0)
(0.401028 0.131194 0)
(0.384473 0.133353 0)
(0.367571 0.135749 0)
(0.350506 0.13793 0)
(0.333386 0.140154 0)
(0.316151 0.142399 0)
(0.298713 0.144484 0)
(0.281019 0.146509 0)
(0.262985 0.148571 0)
(0.244528 0.150637 0)
(0.225632 0.152643 0)
(0.206377 0.154541 0)
(0.186912 0.156314 0)
(0.167379 0.157986 0)
(0.147861 0.159603 0)
(0.128381 0.161278 0)
(0.108923 0.163092 0)
(0.0895254 0.165547 0)
(0.0699245 0.168392 0)
(0.0504377 0.172335 0)
(0.0304482 0.175018 0)
(0.0103626 0.178413 0)
(3 -2.03339e-16 0)
(3 -5.13466e-16 0)
(3 -5.40546e-16 0)
(3 -8.66926e-16 0)
(3 -1.39925e-15 0)
(3 -1.44956e-15 0)
(3 -1.07691e-15 0)
(3 -7.66957e-16 0)
(3 -5.5665e-16 0)
(3 4.09768e-17 0)
(3 8.49945e-16 0)
(3 4.28571e-16 0)
(3 -9.60922e-16 0)
(3 -9.34516e-16 0)
(3 -1.1615e-15 0)
(3 -4.54301e-16 0)
(3 -1.22244e-16 0)
(3 -6.92398e-17 0)
(3 -3.54047e-16 0)
(3 -7.27639e-16 0)
(3 -7.11033e-16 0)
(3 2.89084e-17 0)
(3 1.81998e-16 0)
(3 1.73661e-16 0)
(3 -3.2705e-16 0)
(3 -2.6609e-16 0)
(3 -7.32726e-16 0)
(3 -9.94787e-16 0)
(3 -9.84235e-16 0)
(3 -8.68186e-16 0)
(3 -6.30374e-16 0)
(3 -9.64115e-16 0)
(3 -9.8689e-16 0)
(3 -9.51648e-16 0)
(3 -7.20122e-16 0)
(3 -1.2962e-15 0)
(3 -1.3611e-15 0)
(3 -1.71709e-15 0)
(3 -2.04558e-15 0)
(3 -2.11446e-15 0)
(3 -2.90034e-15 0)
(3 -2.26986e-15 0)
(3 -1.37938e-15 0)
(3 -8.1137e-16 0)
(3 -7.9683e-16 0)
(3 -9.46225e-16 0)
(3 -1.86527e-15 0)
(3 -9.38795e-16 0)
(3 -9.35673e-16 0)
(1.40876 0.12822 0)
(0.785602 0.108942 0)
(0.7495 0.105993 0)
(0.735876 0.11485 0)
(0.718786 0.120999 0)
(0.702881 0.125226 0)
(0.687132 0.125565 0)
(0.672082 0.122296 0)
(0.657544 0.117665 0)
(0.642897 0.115158 0)
(0.628243 0.116478 0)
(0.61382 0.12101 0)
(0.599493 0.126646 0)
(0.584734 0.130104 0)
(0.569938 0.129513 0)
(0.555524 0.126713 0)
(0.540916 0.125637 0)
(0.526107 0.128392 0)
(0.511132 0.133856 0)
(0.495212 0.137871 0)
(0.479183 0.137512 0)
(0.463595 0.136712 0)
(0.448627 0.139274 0)
(0.433838 0.143023 0)
(0.418368 0.1451 0)
(0.402333 0.146665 0)
(0.385822 0.14907 0)
(0.368944 0.151729 0)
(0.351859 0.154184 0)
(0.334713 0.156733 0)
(0.317488 0.159355 0)
(0.300122 0.161816 0)
(0.28256 0.164203 0)
(0.264695 0.166633 0)
(0.246394 0.169089 0)
(0.22759 0.171493 0)
(0.208339 0.173772 0)
(0.188793 0.175879 0)
(0.169111 0.177815 0)
(0.149386 0.179602 0)
(0.129645 0.181358 0)
(0.109887 0.18314 0)
(0.0901736 0.185524 0)
(0.0702629 0.188249 0)
(0.05057 0.192263 0)
(0.0304354 0.195023 0)
(0.0103612 0.198688 0)
(3 1.5836e-16 0)
(3 -1.11481e-16 0)
(3 -6.3231e-17 0)
(3 -1.05441e-16 0)
(3 -1.02739e-15 0)
(3 -8.25874e-16 0)
(3 -6.4422e-16 0)
(3 -5.10236e-16 0)
(3 -1.37088e-16 0)
(3 2.09806e-16 0)
(3 -1.14478e-17 0)
(3 1.52235e-16 0)
(3 -3.27905e-16 0)
(3 -4.65102e-16 0)
(3 -9.14613e-16 0)
(3 2.99631e-17 0)
(3 5.88274e-16 0)
(3 1.33566e-16 0)
(3 -9.34691e-16 0)
(3 -1.55387e-15 0)
(3 -1.89284e-15 0)
(3 -2.00556e-15 0)
(3 -7.76738e-16 0)
(3 -1.26125e-16 0)
(3 -1.09641e-15 0)
(3 -1.1929e-15 0)
(3 -1.28681e-15 0)
(3 -1.14071e-15 0)
(3 -7.31457e-16 0)
(3 -5.14114e-16 0)
(3 -2.17937e-16 0)
(3 -3.80519e-16 0)
(3 1.41667e-16 0)
(3 3.92505e-16 0)
(3 4.68863e-16 0)
(3 1.16465e-16 0)
(3 -2.51636e-16 0)
(3 -1.07105e-16 0)
(3 1.1339e-16 0)
(3 -7.06269e-16 0)
(3 -1.29066e-15 0)
(3 -1.99844e-15 0)
(3 -6.00686e-16 0)
(3 8.57753e-16 0)
(3 2.76635e-16 0)
(3 3.40987e-16 0)
(3 2.07739e-16 0)
(3 9.81158e-16 0)
(3 -4.53586e-15 0)
(1.52177 0.14282 0)
(0.793882 0.125122 0)
(0.750219 0.118632 0)
(0.735962 0.127263 0)
(0.718708 0.133535 0)
(0.702901 0.138065 0)
(0.687268 0.138754 0)
(0.672223 0.135665 0)
(0.657602 0.130826 0)
(0.642773 0.127789 0)
(0.627902 0.128732 0)
(0.61345 0.133283 0)
(0.599354 0.13929 0)
(0.584873 0.143241 0)
(0.570218 0.142975 0)
(0.555926 0.140014 0)
(0.541446 0.13863 0)
(0.526889 0.141458 0)
(0.512424 0.147412 0)
(0.49698 0.152061 0)
(0.481211 0.151989 0)
(0.465762 0.151062 0)
(0.450848 0.15361 0)
(0.43621 0.157724 0)
(0.420871 0.160247 0)
(0.404953 0.162105 0)
(0.388532 0.164765 0)
(0.37167 0.16771 0)
(0.354505 0.170458 0)
(0.337224 0.173334 0)
(0.319876 0.176327 0)
(0.302435 0.179159 0)
(0.284869 0.181899 0)
(0.267059 0.184692 0)
(0.248839 0.187534 0)
(0.230094 0.190346 0)
(0.210846 0.193032 0)
(0.191235 0.195519 0)
(0.171427 0.197781 0)
(0.151517 0.199808 0)
(0.13153 0.201712 0)
(0.111457 0.203507 0)
(0.091379 0.205836 0)
(0.0710773 0.208414 0)
(0.0510514 0.212462 0)
(0.0306323 0.215282 0)
(0.0104455 0.219207 0)
(3 -6.61062e-17 0)
(3 -3.93313e-17 0)
(3 -8.90358e-16 0)
(3 -8.09334e-16 0)
(3 -6.36792e-16 0)
(3 -5.15952e-16 0)
(3 -1.41304e-16 0)
(3 5.24875e-17 0)
(3 6.76436e-17 0)
(3 2.27548e-16 0)
(3 1.45921e-16 0)
(3 6.76345e-16 0)
(3 3.9157e-16 0)
(3 -1.17069e-16 0)
(3 -3.82452e-16 0)
(3 -2.38402e-16 0)
(3 -5.52793e-16 0)
(3 -8.04924e-16 0)
(3 -6.24295e-16 0)
(3 -2.34265e-16 0)
(3 -3.63565e-17 0)
(3 -5.51899e-17 0)
(3 -3.87873e-16 0)
(3 -4.119e-16 0)
(3 -5.64076e-16 0)
(3 -8.40334e-16 0)
(3 -1.63042e-16 0)
(3 2.04254e-16 0)
(3 2.72538e-16 0)
(3 4.4375e-16 0)
(3 6.90703e-16 0)
(3 8.75378e-16 0)
(3 1.35068e-15 0)
(3 1.71622e-15 0)
(3 1.76906e-15 0)
(3 1.51172e-15 0)
(3 2.97965e-16 0)
(3 -8.26447e-16 0)
(3 -1.78127e-15 0)
(3 -1.65688e-15 0)
(3 -1.23329e-15 0)
(3 -1.38555e-15 0)
(3 -2.09498e-15 0)
(3 -2.12928e-15 0)
(3 -1.82811e-15 0)
(3 -7.00193e-16 0)
(3 4.83221e-16 0)
(3 1.41765e-15 0)
(3 1.41366e-16 0)
(1.65914 0.156996 0)
(0.805587 0.142628 0)
(0.752033 0.131863 0)
(0.736934 0.140236 0)
(0.719286 0.146535 0)
(0.703186 0.150986 0)
(0.687466 0.151923 0)
(0.672307 0.149067 0)
(0.657575 0.144158 0)
(0.642635 0.140647 0)
(0.627622 0.141124 0)
(0.613139 0.145526 0)
(0.599201 0.151774 0)
(0.584892 0.156229 0)
(0.570191 0.156408 0)
(0.555749 0.153358 0)
(0.541111 0.151529 0)
(0.526488 0.154222 0)
(0.512305 0.160566 0)
(0.497254 0.165896 0)
(0.481726 0.166265 0)
(0.466497 0.165286 0)
(0.451788 0.167802 0)
(0.43752 0.172253 0)
(0.422575 0.175239 0)
(0.407053 0.177421 0)
(0.391007 0.180377 0)
(0.37442 0.183667 0)
(0.357379 0.186764 0)
(0.340102 0.190001 0)
(0.322696 0.193392 0)
(0.305182 0.196625 0)
(0.287562 0.199743 0)
(0.269736 0.202906 0)
(0.251529 0.206127 0)
(0.232797 0.209329 0)
(0.213527 0.212415 0)
(0.193844 0.215297 0)
(0.173909 0.217929 0)
(0.153817 0.220262 0)
(0.133584 0.222386 0)
(0.113187 0.224251 0)
(0.0927233 0.226559 0)
(0.0720137 0.228989 0)
(0.0516165 0.233042 0)
(0.0308838 0.23592 0)
(0.0105581 0.240098 0)
(3 -1.47644e-16 0)
(3 2.08173e-16 0)
(3 4.71945e-17 0)
(3 -2.31552e-16 0)
(3 -1.92591e-16 0)
(3 -4.98508e-16 0)
(3 -8.30002e-16 0)
(3 -5.04018e-16 0)
(3 3.65633e-18 0)
(3 -2.05623e-16 0)
(3 -5.13734e-16 0)
(3 -2.75139e-16 0)
(3 -3.19182e-16 0)
(3 -9.60762e-17 0)
(3 2.66022e-16 0)
(3 -2.03903e-16 0)
(3 -6.99541e-16 0)
(3 -8.68235e-16 0)
(3 -8.67615e-16 0)
(3 -5.08836e-16 0)
(3 9.32385e-16 0)
(3 1.0598e-15 0)
(3 3.6126e-16 0)
(3 1.91801e-16 0)
(3 6.02418e-16 0)
(3 5.19414e-16 0)
(3 8.24519e-16 0)
(3 1.70084e-15 0)
(3 1.62023e-15 0)
(3 1.87325e-15 0)
(3 2.17124e-15 0)
(3 2.10325e-15 0)
(3 1.32012e-15 0)
(3 1.29689e-15 0)
(3 1.38478e-15 0)
(3 1.44283e-15 0)
(3 -3.50257e-16 0)
(3 -2.32766e-15 0)
(3 -2.58253e-15 0)
(3 -2.98243e-15 0)
(3 -2.45708e-15 0)
(3 -1.79823e-15 0)
(3 -1.8858e-15 0)
(3 -2.12237e-15 0)
(3 -1.79867e-15 0)
(3 -8.40114e-16 0)
(3 -3.39065e-16 0)
(3 6.94441e-16 0)
(3 -2.71891e-15 0)
(1.82353 0.168768 0)
(0.822049 0.160842 0)
(0.75528 0.145713 0)
(0.739265 0.153321 0)
(0.721605 0.159525 0)
(0.705432 0.164118 0)
(0.689667 0.165098 0)
(0.674478 0.162512 0)
(0.659785 0.157608 0)
(0.644853 0.153698 0)
(0.629736 0.153643 0)
(0.615166 0.157779 0)
(0.60126 0.164169 0)
(0.587025 0.169161 0)
(0.572163 0.169959 0)
(0.55738 0.167011 0)
(0.542378 0.164724 0)
(0.527393 0.167111 0)
(0.513148 0.17367 0)
(0.49823 0.179616 0)
(0.482693 0.180482 0)
(0.467441 0.179444 0)
(0.452671 0.181831 0)
(0.438507 0.186524 0)
(0.423753 0.189943 0)
(0.408484 0.192455 0)
(0.392769 0.195746 0)
(0.376525 0.199455 0)
(0.359755 0.202977 0)
(0.342675 0.20663 0)
(0.325416 0.210467 0)
(0.308009 0.214152 0)
(0.290468 0.217694 0)
(0.272708 0.221256 0)
(0.254554 0.224866 0)
(0.235848 0.228453 0)
(0.216559 0.231931 0)
(0.196802 0.235215 0)
(0.176737 0.238252 0)
(0.156454 0.240948 0)
(0.135964 0.243363 0)
(0.115226 0.245362 0)
(0.0943474 0.247699 0)
(0.0732146 0.250008 0)
(0.0523837 0.25406 0)
(0.0312841 0.256993 0)
(0.0107302 0.261417 0)
(3 1.20144e-16 0)
(3 2.10072e-17 0)
(3 1.60455e-16 0)
(3 4.62552e-16 0)
(3 4.12393e-16 0)
(3 -1.5002e-16 0)
(3 -1.00627e-15 0)
(3 -1.68695e-15 0)
(3 -1.58838e-15 0)
(3 -6.42977e-16 0)
(3 2.66604e-16 0)
(3 1.50476e-16 0)
(3 -2.11563e-16 0)
(3 -2.31125e-16 0)
(3 -5.8931e-16 0)
(3 -6.08213e-16 0)
(3 -4.76863e-16 0)
(3 -7.09406e-17 0)
(3 3.61655e-16 0)
(3 -1.10188e-16 0)
(3 -4.4294e-17 0)
(3 1.50661e-16 0)
(3 -1.03546e-16 0)
(3 2.80503e-16 0)
(3 9.238e-16 0)
(3 1.13474e-15 0)
(3 1.05333e-15 0)
(3 8.85389e-16 0)
(3 9.31358e-16 0)
(3 1.6798e-15 0)
(3 1.52856e-15 0)
(3 1.52282e-15 0)
(3 9.87811e-16 0)
(3 8.77564e-16 0)
(3 8.29322e-16 0)
(3 7.34537e-16 0)
(3 -5.39186e-16 0)
(3 -1.06932e-15 0)
(3 -8.93285e-16 0)
(3 -4.88534e-16 0)
(3 -1.03257e-15 0)
(3 -1.13136e-15 0)
(3 -3.50894e-16 0)
(3 6.16683e-17 0)
(3 2.87898e-17 0)
(3 -1.13216e-16 0)
(3 -5.26933e-16 0)
(3 -1.02041e-15 0)
(3 -4.2618e-15 0)
(2.0126 0.176742 0)
(0.842719 0.179703 0)
(0.758163 0.160423 0)
(0.7408 0.166847 0)
(0.72308 0.172567 0)
(0.707061 0.177054 0)
(0.691599 0.17843 0)
(0.677045 0.175762 0)
(0.66287 0.170723 0)
(0.648216 0.166594 0)
(0.633118 0.166031 0)
(0.618483 0.169889 0)
(0.604557 0.176437 0)
(0.590319 0.182052 0)
(0.575235 0.183635 0)
(0.560064 0.180996 0)
(0.544779 0.178232 0)
(0.529571 0.180115 0)
(0.515442 0.186709 0)
(0.500886 0.193223 0)
(0.485476 0.194705 0)
(0.470193 0.193681 0)
(0.455224 0.195926 0)
(0.440894 0.200805 0)
(0.426015 0.20462 0)
(0.41067 0.207406 0)
(0.395005 0.210968 0)
(0.378924 0.215067 0)
(0.362357 0.219011 0)
(0.345499 0.223081 0)
(0.328474 0.227382 0)
(0.311275 0.23157 0)
(0.293883 0.235608 0)
(0.276206 0.239647 0)
(0.258073 0.243714 0)
(0.239333 0.247739 0)
(0.219958 0.251647 0)
(0.200063 0.25536 0)
(0.179816 0.258826 0)
(0.159303 0.261922 0)
(0.13853 0.264678 0)
(0.11744 0.266874 0)
(0.0961403 0.269302 0)
(0.0745809 0.271533 0)
(0.0532839 0.275606 0)
(0.0318093 0.278591 0)
(0.0109416 0.283254 0)
(3 -2.0701e-17 0)
(3 -2.53302e-16 0)
(3 -3.97659e-16 0)
(3 1.48351e-16 0)
(3 4.58384e-16 0)
(3 2.2734e-16 0)
(3 -2.25669e-16 0)
(3 -5.99245e-16 0)
(3 -5.77951e-16 0)
(3 9.63598e-17 0)
(3 9.56104e-16 0)
(3 8.63658e-16 0)
(3 6.42461e-17 0)
(3 -9.76592e-16 0)
(3 -2.31182e-15 0)
(3 -1.84995e-15 0)
(3 -1.04863e-15 0)
(3 -1.9435e-16 0)
(3 1.48501e-15 0)
(3 1.39827e-15 0)
(3 8.6392e-16 0)
(3 -1.54197e-16 0)
(3 2.19854e-17 0)
(3 -7.29639e-16 0)
(3 -5.6044e-16 0)
(3 -3.5142e-16 0)
(3 3.80532e-17 0)
(3 1.82821e-16 0)
(3 7.74221e-16 0)
(3 1.57695e-15 0)
(3 1.48171e-15 0)
(3 1.21784e-15 0)
(3 1.25219e-15 0)
(3 1.10578e-15 0)
(3 6.27093e-17 0)
(3 -3.11199e-16 0)
(3 6.50933e-16 0)
(3 1.07302e-15 0)
(3 1.10955e-15 0)
(3 -3.59865e-16 0)
(3 -6.6081e-16 0)
(3 -5.6986e-16 0)
(3 1.11235e-16 0)
(3 8.69003e-16 0)
(3 1.57364e-15 0)
(3 9.66201e-16 0)
(3 -8.11442e-16 0)
(3 -1.00023e-15 0)
(3 -3.48449e-16 0)
(2.22483 0.177412 0)
(0.869783 0.198725 0)
(0.760142 0.178261 0)
(0.741022 0.181593 0)
(0.723885 0.186126 0)
(0.709281 0.190108 0)
(0.695415 0.191105 0)
(0.681642 0.188814 0)
(0.667153 0.184592 0)
(0.651737 0.180314 0)
(0.635558 0.179327 0)
(0.619846 0.182718 0)
(0.605321 0.189183 0)
(0.59116 0.19524 0)
(0.576452 0.197469 0)
(0.561708 0.195154 0)
(0.546901 0.191819 0)
(0.531989 0.192928 0)
(0.518266 0.199365 0)
(0.504252 0.206487 0)
(0.488995 0.208861 0)
(0.473599 0.208067 0)
(0.458361 0.210252 0)
(0.443819 0.215315 0)
(0.428848 0.219493 0)
(0.413503 0.222476 0)
(0.397967 0.226195 0)
(0.382111 0.230593 0)
(0.365765 0.23491 0)
(0.349085 0.239372 0)
(0.332208 0.244148 0)
(0.315106 0.248893 0)
(0.297741 0.253512 0)
(0.280034 0.258122 0)
(0.26184 0.262732 0)
(0.243031 0.26726 0)
(0.223587 0.271632 0)
(0.203607 0.275782 0)
(0.183241 0.279678 0)
(0.162555 0.283183 0)
(0.141538 0.286316 0)
(0.120112 0.288778 0)
(0.0983847 0.291384 0)