/*--------------------------------*- C++ -*----------------------------------*\
  =========                 |
  \\      /  F ield         | OpenFOAM: The Open Source CFD Toolbox
   \\    /   O peration     | Website:  https://openfoam.org
    \\  /    A nd           | Version:  7
     \\/     M anipulation  |
\*---------------------------------------------------------------------------*/
FoamFile
{
    version     2.0;
    format      ascii;
    class       volScalarField;
    location    "2";
    object      p;
}
// * * * * * * * * * * * * * * * * * * * * * * * * * * * * * * * * * * * * * //

dimensions      [1 -1 -2 0 0 0 0];

internalField   nonuniform List<scalar> 
64512
(
1
1
1
1
1
1
1
1
1
1
1
1
1
1
1
1
1
1
1
1
1
1
1
1
1
1
1
1
1
1
1
1
1
1
1
1
1
1
1
1
1
1
1
1
1
1
1
1
1
1
6.17159
10.4167
10.5196
10.5722
10.6307
10.6845
10.742
10.8045
10.8725
10.9406
11.002
11.0536
11.0974
11.1356
11.1761
11.2255
11.2834
11.3424
11.3949
11.4388
11.4728
11.5036
11.5384
11.5776
11.62
11.6643
11.7079
11.7474
11.7798
11.8044
11.8241
11.844
11.8677
11.8943
11.9199
11.9398
11.9533
11.9616
11.9736
11.9928
12.0212
12.0516
12.076
12.0955
12.1094
12.1148
1
1
1
1
1
1
1
1
1
1
1
1
1
1
1
1
1
1
1
1
1
1
1
1
1
1
1
1
1
1
1
1
1
1
1
1
1
1
1
1
1
1
1
1
1
1
1
1
1
1
6.13428
10.4114
10.5166
10.5687
10.628
10.6818
10.7389
10.8011
10.8689
10.9368
10.9978
11.0487
11.0922
11.1312
11.1727
11.223
11.282
11.3414
11.3939
11.4368
11.4707
11.5019
11.5371
11.5763
11.6185
11.6625
11.7058
11.745
11.7774
11.8024
11.8226
11.8429
11.8661
11.8916
11.9163
11.936
11.9498
11.9596
11.9726
11.9919
12.019
12.0476
12.0715
12.0907
12.1048
12.1109
1
1
1
1
1
1
1
1
1
1
1
1
1
1
1
1
1
1
1
1
1
1
1
1
1
1
1
1
1
1
1
1
1
1
1
1
1
1
1
1
1
1
1
1
1
1
1
1
1
1
6.05198
10.408
10.5096
10.5611
10.6225
10.6772
10.7339
10.7955
10.8626
10.9303
10.991
11.0419
11.0856
11.1251
11.1673
11.2183
11.2783
11.3382
11.3911
11.4334
11.4671
11.4985
11.534
11.5734
11.6155
11.6592
11.702
11.7408
11.773
11.7986
11.8199
11.8409
11.8638
11.8881
11.9114
11.93
11.9438
11.9549
11.9694
11.9898
12.0161
12.0427
12.0657
12.0838
12.097
12.1034
1
1
1
1
1
1
1
1
1
1
1
1
1
1
1
1
1
1
1
1
1
1
1
1
1
1
1
1
1
1
1
1
1
1
1
1
1
1
1
1
1
1
1
1
1
1
1
1
1
1
5.92371
10.4037
10.5021
10.5543
10.617
10.6719
10.7278
10.7881
10.8542
10.9211
10.9814
11.0324
11.0768
11.1172
11.1602
11.2118
11.2724
11.3325
11.386
11.4281
11.462
11.4938
11.5294
11.5686
11.6105
11.6539
11.6961
11.7342
11.7661
11.7923
11.8148
11.8367
11.8595
11.8826
11.9047
11.9226
11.9364
11.9486
11.9642
11.9853
12.0106
12.0351
12.0572
12.0739
12.0859
12.0924
1
1
1
1
1
1
1
1
1
1
1
1
1
1
1
1
1
1
1
1
1
1
1
1
1
1
1
1
1
1
1
1
1
1
1
1
1
1
1
1
1
1
1
1
1
1
1
1
1
1
5.74993
10.3897
10.4934
10.5479
10.6115
10.6665
10.7218
10.7804
10.8449
10.9105
10.9701
11.0217
11.0673
11.1088
11.1523
11.2039
11.2642
11.3239
11.378
11.4207
11.4556
11.4879
11.5236
11.5624
11.6041
11.6471
11.6887
11.7261
11.7574
11.7839
11.8072
11.8299
11.8528
11.8753
11.8968
11.9145
11.9283
11.9411
11.9569
11.9782
12.0023
12.0251
12.0463
12.0618
12.0723
12.0783
1
1
1
1
1
1
1
1
1
1
1
1
1
1
1
1
1
1
1
1
1
1
1
1
1
1
1
1
1
1
1
1
1
1
1
1
1
1
1
1
1
1
1
1
1
1
1
1
1
1
5.52896
10.3612
10.4833
10.5419
10.607
10.6625
10.7165
10.7736
10.8359
10.8997
10.9582
11.0099
11.0569
11.0995
11.1432
11.1944
11.2536
11.3127
11.3675
11.4114
11.4479
11.4808
11.5163
11.5543
11.5952
11.6376
11.6783
11.7149
11.7458
11.7722
11.7959
11.8193
11.8424
11.8648
11.8867
11.9051
11.9194
11.9324
11.9475
11.968
11.9909
12.0126
12.0332
12.0478
12.0568
12.0623
1
1
1
1
1
1
1
1
1
1
1
1
1
1
1
1
1
1
1
1
1
1
1
1
1
1
1
1
1
1
1
1
1
1
1
1
1
1
1
1
1
1
1
1
1
1
1
1
1
1
5.26196
10.3165
10.4713
10.5342
10.6021
10.6593
10.7132
10.768
10.8273
10.889
10.9461
10.9978
11.0457
11.0894
11.1331
11.1837
11.2413
11.2993
11.3542
11.3992
11.4373
11.4712
11.5068
11.5442
11.5842
11.6257
11.6656
11.7016
11.7323
11.7588
11.7826
11.8061
11.8292
11.8517
11.8745
11.8946
11.91
11.923
11.9368
11.9553
11.9764
11.997
12.0169
12.0309
12.0392
12.0442
1
1
1
1
1
1
1
1
1
1
1
1
1
1
1
1
1
1
1
1
1
1
1
1
1
1
1
1
1
1
1
1
1
1
1
1
1
1
1
1
1
1
1
1
1
1
1
1
1
1
4.95162
10.2553
10.4595
10.525
10.5946
10.6543
10.7095
10.7631
10.8197
10.8787
10.934
10.985
11.0337
11.0782
11.1219
11.1718
11.2273
11.2838
11.3381
11.3839
11.4235
11.4589
11.4951
11.5321
11.5713
11.6118
11.6508
11.6863
11.7171
11.7436
11.7672
11.7898
11.8122
11.8348
11.8587
11.881
11.8981
11.9117
11.9243
11.9406
11.9595
11.9786
11.9975
12.0114
12.0199
12.0251
1
1
1
1
1
1
1
1
1
1
1
1
1
1
1
1
1
1
1
1
1
1
1
1
1
1
1
1
1
1
1
1
1
1
1
1
1
1
1
1
1
1
1
1
1
1
1
1
1
1
4.60158
10.1752
10.4489
10.5141
10.5847
10.6464
10.7029
10.7566
10.8118
10.8688
10.9225
10.9722
11.0208
11.0655
11.1089
11.1578
11.2113
11.2663
11.3199
11.3663
11.4074
11.4443
11.4812
11.5179
11.556
11.5952
11.633
11.6681
11.6994
11.7263
11.7496
11.7708
11.7922
11.8152
11.8402
11.8643
11.8836
11.8984
11.9106
11.9249
11.9411
11.9578
11.9747
11.9884
11.9978
12.0035
1
1
1
1
1
1
1
1
1
1
1
1
1
1
1
1
1
1
1
1
1
1
1
1
1
1
1
1
1
1
1
1
1
1
1
1
1
1
1
1
1
1
1
1
1
1
1
1
1
1
4.2188
10.0705
10.4425
10.5033
10.5725
10.6352
10.693
10.7469
10.8011
10.8572
10.9097
10.9588
11.0077
11.0532
11.0969
11.1448
11.1962
11.2488
11.3006
11.3465
11.3884
11.4263
11.4639
11.5003
11.5375
11.5756
11.6126
11.6479
11.6798
11.7072
11.73
11.7502
11.7707
11.7937
11.8192
11.8446
11.8656
11.882
11.8944
11.9073
11.921
11.9345
11.9488
11.9618
11.9725
11.9789
1
1
1
1
1
1
1
1
1
1
1
1
1
1
1
1
1
1
1
1
1
1
1
1
1
1
1
1
1
1
1
1
1
1
1
1
1
1
1
1
1
1
1
1
1
1
1
1
1
1
3.81404
9.92677
10.4383
10.4957
10.5617
10.6233
10.6815
10.7357
10.7897
10.8456
10.8972
10.9451
10.993
11.0382
11.0814
11.1284
11.178
11.2285
11.2785
11.3241
11.3668
11.406
11.4443
11.4806
11.5173
11.5547
11.591
11.6258
11.6576
11.6846
11.7068
11.7266
11.747
11.7701
11.796
11.8222
11.8444
11.8621
11.8751
11.8877
11.8994
11.9094
11.9209
11.9328
11.9442
11.9511
1
1
1
1
1
1
1
1
1
1
1
1
1
1
1
1
1
1
1
1
1
1
1
1
1
1
1
1
1
1
1
1
1
1
1
1
1
1
1
1
1
1
1
1
1
1
1
1
1
1
3.39951
9.73653
10.4349
10.4893
10.5525
10.6112
10.6681
10.7214
10.7743
10.8297
10.8815
10.9292
10.977
11.0226
11.0658
11.1118
11.1594
11.2078
11.2565
11.302
11.3455
11.3852
11.4234
11.4587
11.4942
11.5309
11.5665
11.6006
11.6315
11.6581
11.6803
11.7006
11.7218
11.7455
11.7715
11.7978
11.8202
11.8384
11.852
11.8646
11.875
11.8823
11.8911
11.9013
11.9124
11.9194
1
1
1
1
1
1
1
1
1
1
1
1
1
1
1
1
1
1
1
1
1
1
1
1
1
1
1
1
1
1
1
1
1
1
1
1
1
1
1
1
1
1
1
1
1
1
1
1
1
1
2.97837
9.49834
10.4329
10.4805
10.5398
10.5961
10.6521
10.7047
10.7575
10.8124
10.8642
10.9122
10.9604
11.0068
11.0501
11.0953
11.1409
11.1872
11.2343
11.2793
11.3227
11.3622
11.3999
11.4342
11.4692
11.5058
11.5409
11.5738
11.603
11.6285
11.6507
11.6718
11.6943
11.719
11.7452
11.7709
11.793
11.811
11.8248
11.8373
11.847
11.8529
11.8596
11.8679
11.8774
11.8839
1
1
1
1
1
1
1
1
1
1
1
1
1
1
1
1
1
1
1
1
1
1
1
1
1
1
1
1
1
1
1
1
1
1
1
1
1
1
1
1
1
1
1
1
1
1
1
1
1
1
2.55642
9.19802
10.4368
10.4726
10.5269
10.5796
10.6342
10.6862
10.7386
10.7933
10.8458
10.8947
10.9436
10.9907
11.0342
11.0781
11.1216
11.1655
11.2109
11.2554
11.2987
11.3381
11.3752
11.4088
11.4435
11.4799
11.514
11.5451
11.5722
11.5964
11.6187
11.6409
11.665
11.6909
11.7171
11.742
11.7631
11.7803
11.7936
11.8056
11.8148
11.8203
11.8256
11.8319
11.839
11.8444
1
1
1
1
1
1
1
1
1
1
1
1
1
1
1
1
1
1
1
1
1
1
1
1
1
1
1
1
1
1
1
1
1
1
1
1
1
1
1
1
1
1
1
1
1
1
1
1
1
1
2.14852
8.82526
10.4415
10.4617
10.512
10.5619
10.6156
10.6675
10.7193
10.773
10.8258
10.8754
10.9249
10.9727
11.0166
11.0594
11.1008
11.1421
11.1856
11.2294
11.2729
11.3126
11.3497
11.383
11.4173
11.4528
11.4856
11.5149
11.5399
11.5628
11.585
11.608
11.6331
11.6596
11.6858
11.7097
11.73
11.7462
11.7586
11.7696
11.7783
11.7835
11.7883
11.793
11.7974
11.8017
1
1
1
1
1
1
1
1
1
1
1
1
1
1
1
1
1
1
1
1
1
1
1
1
1
1
1
1
1
1
1
1
1
1
1
1
1
1
1
1
1
1
1
1
1
1
1
1
1
1
1.77197
8.37191
10.4504
10.4451
10.4976
10.5448
10.5975
10.6488
10.6997
10.7519
10.8043
10.8546
10.905
10.9535
10.998
11.0399
11.0792
11.1176
11.1587
11.2012
11.2446
11.2847
11.3221
11.3554
11.3889
11.423
11.4542
11.4818
11.5054
11.5274
11.5495
11.573
11.5986
11.6254
11.6512
11.6741
11.6933
11.7082
11.7191
11.7286
11.7364
11.7413
11.7462
11.7502
11.7525
11.7561
1
1
1
1
1
1
1
1
1
1
1
1
1
1
1
1
1
1
1
1
1
1
1
1
1
1
1
1
1
1
1
1
1
1
1
1
1
1
1
1
1
1
1
1
1
1
1
1
1
1
1.45023
7.83703
10.4401
10.4186
10.4738
10.5212
10.5749
10.6265
10.6771
10.7287
10.7805
10.8304
10.8808
10.9298
10.9752
11.0169
11.0549
11.0907
11.1286
11.1687
11.2111
11.2518
11.2901
11.3241
11.3572
11.3898
11.4197
11.4464
11.4695
11.4912
11.5131
11.5359
11.5608
11.5865
11.6111
11.6326
11.6508
11.6646
11.6745
11.6828
11.6897
11.6941
11.6992
11.7031
11.7044
11.7078
1
1
1
1
1
1
1
1
1
1
1
1
1
1
1
1
1
1
1
1
1
1
1
1
1
1
1
1
1
1
1
1
1
1
1
1
1
1
1
1
1
1
1
1
1
1
1
1
1
1
1.17582
7.2288
10.3787
10.3931
10.4498
10.5015
10.5571
10.6086
10.6577
10.7073
10.7575
10.8065
10.856
10.9043
10.9495
10.9909
11.0285
11.0626
11.0973
11.1339
11.1739
11.2142
11.2531
11.2881
11.321
11.3528
11.382
11.4084
11.4319
11.4538
11.4752
11.4968
11.52
11.5439
11.5666
11.5864
11.6034
11.6167
11.626
11.6334
11.639
11.6421
11.6464
11.6499
11.6508
11.6542
1
1
1
1
1
1
1
1
1
1
1
1
1
1
1
1
1
1
1
1
1
1
1
1
1
1
1
1
1
1
1
1
1
1
1
1
1
1
1
1
1
1
1
1
1
1
1
1
1
1
1.00841
6.50833
10.2928
10.3577
10.4151
10.474
10.5307
10.5821
10.6295
10.6776
10.7271
10.776
10.8258
10.8749
10.9212
10.9638
11.0021
11.0356
11.0677
11.1004
11.1364
11.1747
11.2131
11.249
11.2824
11.3142
11.3431
11.369
11.3923
11.4136
11.4337
11.4536
11.4747
11.4965
11.517
11.535
11.5509
11.5637
11.5727
11.5793
11.5834
11.5845
11.5875
11.5905
11.5918
11.5956
1
1
1
1
1
1
1
1
1
1
1
1
1
1
1
1
1
1
1
1
1
1
1
1
1
1
1
1
1
1
1
1
1
1
1
1
1
1
1
1
1
1
1
1
1
1
1
1
1
1
1.00005
5.69697
10.1348
10.3081
10.3821
10.452
10.5112
10.5628
10.609
10.6555
10.7039
10.752
10.8004
10.8487
10.8941
10.9358
10.974
11.0071
11.0373
11.0664
11.0978
11.1326
11.1691
11.2049
11.2389
11.2714
11.3007
11.3264
11.3489
11.3692
11.3879
11.4063
11.4256
11.4453
11.4635
11.4793
11.4934
11.5054
11.5142
11.5201
11.5226
11.5215
11.5224
11.5242
11.5258
11.5294
1
1
1
1
1
1
1
1
1
1
1
1
1
1
1
1
1
1
1
1
1
1
1
1
1
1
1
1
1
1
1
1
1
1
1
1
1
1
1
1
1
1
1
1
1
1
1
1
1
1
1
4.80738
9.94879
10.2815
10.354
10.4256
10.484
10.534
10.5787
10.6241
10.673
10.7217
10.7697
10.8174
10.8628
10.9046
10.9436
10.9774
11.0067
11.0334
11.0604
11.0909
11.1242
11.1589
11.193
11.2265
11.2563
11.2812
11.3017
11.3199
11.3368
11.3538
11.3717
11.3898
11.4056
11.4186
11.4302
11.4406
11.4486
11.4538
11.455
11.4518
11.4504
11.4507
11.4523
11.4555
1
1
1
1
1
1
1
1
1
1
1
1
1
1
1
1
1
1
1
1
1
1
1
1
1
1
1
1
1
1
1
1
1
1
1
1
1
1
1
1
1
1
1
1
1
1
1
1
1
1
1
3.9012
9.67574
10.2544
10.341
10.4113
10.4654
10.513
10.5572
10.6019
10.649
10.6959
10.7418
10.7871
10.8307
10.8708
10.9091
10.9428
10.9713
10.9963
11.0198
11.0466
11.0773
11.1108
11.1446
11.1785
11.2082
11.2317
11.2498
11.2651
11.2798
11.2957
11.3124
11.329
11.3424
11.3526
11.3613
11.3697
11.3763
11.3807
11.3804
11.375
11.3708
11.3685
11.369
11.3706
1
1
1
1
1
1
1
1
1
1
1
1
1
1
1
1
1
1
1
1
1
1
1
1
1
1
1
1
1
1
1
1
1
1
1
1
1
1
1
1
1
1
1
1
1
1
1
1
1
1
1
3.06288
9.26205
10.2659
10.3249
10.3887
10.4381
10.4839
10.5289
10.5754
10.6234
10.6708
10.7159
10.7588
10.8005
10.8387
10.875
10.9075
10.9349
10.9589
10.9801
11.0036
11.0317
11.0636
11.0962
11.1292
11.1578
11.1793
11.1943
11.2063
11.2177
11.2316
11.247
11.2622
11.2734
11.2805
11.2858
11.2913
11.2955
11.2979
11.2957
11.2883
11.2813
11.2766
11.2756
11.2756
1
1
1
1
1
1
1
1
1
1
1
1
1
1
1
1
1
1
1
1
1
1
1
1
1
1
1
1
1
1
1
1
1
1
1
1
1
1
1
1
1
1
1
1
1
1
1
1
1
1
1
2.24079
8.64914
10.3165
10.3326
10.387
10.4314
10.4718
10.5119
10.555
10.5996
10.6445
10.6881
10.7291
10.7687
10.8053
10.84
10.8712
10.8974
10.9206
10.9407
10.9616
10.9873
11.0172
11.0479
11.0788
11.1053
11.1244
11.1361
11.1443
11.1518
11.1626
11.1757
11.189
11.1978
11.2018
11.2036
11.2053
11.2066
11.2066
11.2018
11.1918
11.1808
11.1719
11.1681
11.1652
1
1
1
1
1
1
1
1
1
1
1
1
1
1
1
1
1
1
1
1
1
1
1
1
1
1
1
1
1
1
1
1
1
1
1
1
1
1
1
1
1
1
1
1
1
1
1
1
1
1
1
1.51067
7.98954
10.4127
10.3018
10.3458
10.3899
10.4349
10.4795
10.5253
10.571
10.6156
10.6585
10.698
10.7356
10.7711
10.804
10.8336
10.8584
10.8807
10.9004
10.9195
10.9426
10.97
10.9984
11.0262
11.05
11.0661
11.0754
11.0797
11.0832
11.0899
11.0994
11.1095
11.1153
11.1158
11.1135
11.111
11.1076
11.103
11.094
11.0801
11.065
11.0525
11.0461
11.0414
1
1
1
1
1
1
1
1
1
1
1
1
1
1
1
1
1
1
1
1
1
1
1
1
1
1
1
1
1
1
1
1
1
1
1
1
1
1
1
1
1
1
1
1
1
1
1
1
1
1
1
1.05484
7.14067
10.347
10.2606
10.3126
10.3621
10.4078
10.448
10.4892
10.5335
10.5805
10.6256
10.6648
10.7
10.7339
10.7654
10.7941
10.8181
10.8392
10.8585
10.8762
10.8968
10.921
10.9462
10.9703
10.9909
11.0046
11.012
11.0124
11.0121
11.0143
11.0192
11.0244
11.026
11.0218
11.0147
11.0074
10.9986
10.9888
10.9748
10.9558
10.9341
10.9143
10.9021
10.8928
1
1
1
1
1
1
1
1
1
1
1
1
1
1
1
1
1
1
1
1
1
1
1
1
1
1
1
1
1
1
1
1
1
1
1
1
1
1
1
1
1
1
1
1
1
1
1
1
1
1
1
1.00056
6.02102
10.0835
10.1748
10.2524
10.3152
10.3715
10.42
10.4617
10.5025
10.5437
10.5847
10.6244
10.6604
10.6939
10.724
10.7516
10.7753
10.7953
10.8142
10.8306
10.8488
10.869
10.8908
10.9109
10.928
10.9396
10.9449
10.9418
10.938
10.9356
10.9349
10.934
10.9297
10.9196
10.9068
10.8935
10.8779
10.8597
10.8366
10.8078
10.7776
10.751
10.7342
10.7237
1
1
1
1
1
1
1
1
1
1
1
1
1
1
1
1
1
1
1
1
1
1
1
1
1
1
1
1
1
1
1
1
1
1
1
1
1
1
1
1
1
1
1
1
1
1
1
1
1
1
1
1
4.90022
9.89593
10.1054
10.2097
10.287
10.3387
10.383
10.4213
10.4605
10.5024
10.5452
10.5826
10.6152
10.6471
10.677
10.7047
10.7289
10.7484
10.7662
10.7814
10.7974
10.8139
10.8319
10.8482
10.862
10.8715
10.8738
10.8681
10.8607
10.8537
10.847
10.839
10.8274
10.81
10.7896
10.768
10.7438
10.7158
10.6824
10.6432
10.6019
10.5606
10.5287
10.5058
1
1
1
1
1
1
1
1
1
1
1
1
1
1
1
1
1
1
1
1
1
1
1
1
1
1
1
1
1
1
1
1
1
1
1
1
1
1
1
1
1
1
1
1
1
1
1
1
1
1
1
1
3.76826
9.45063
10.0967
10.1931
10.262
10.3168
10.3581
10.3914
10.4253
10.4608
10.4979
10.5343
10.5677
10.5991
10.6271
10.6531
10.6772
10.6972
10.7138
10.7277
10.7414
10.7547
10.7694
10.7826
10.7933
10.8
10.7986
10.7904
10.7792
10.7675
10.7543
10.739
10.719
10.6928
10.6627
10.631
10.5961
10.5548
10.5043
10.4442
10.3789
10.3176
10.2705
10.2483
1
1
1
1
1
1
1
1
1
1
1
1
1
1
1
1
1
1
1
1
1
1
1
1
1
1
1
1
1
1
1
1
1
1
1
1
1
1
1
1
1
1
1
1
1
1
1
1
1
1
1
1
2.66271
8.80132
10.1486
10.188
10.2365
10.2855
10.3266
10.3617
10.3918
10.4227
10.4567
10.4908
10.5211
10.5485
10.5744
10.5984
10.6223
10.6417
10.6563
10.6689
10.68
10.6913
10.7025
10.7133
10.7215
10.725
10.7201
10.7088
10.6938
10.6771
10.6574
10.6344
10.6053
10.5689
10.5272
10.4826
10.4327
10.3733
10.3016
10.2188
10.1289
10.0401
9.94803
9.86939
1
1
1
1
1
1
1
1
1
1
1
1
1
1
1
1
1
1
1
1
1
1
1
1
1
1
1
1
1
1
1
1
1
1
1
1
1
1
1
1
1
1
1
1
1
1
1
1
1
1
1
1
1.65602
8.11052
10.2577
10.1721
10.209
10.2534
10.2932
10.324
10.3524
10.3821
10.4141
10.4465
10.4764
10.5031
10.5268
10.5477
10.5662
10.5842
10.5969
10.6073
10.6148
10.624
10.6325
10.6405
10.6458
10.646
10.6383
10.6233
10.604
10.5814
10.5552
10.5242
10.4857
10.4383
10.3832
10.3228
10.2545
10.1737
10.0754
9.95537
9.8085
9.63627
9.46788
9.34527
1
1
1
1
1
1
1
1
1
1
1
1
1
1
1
1
1
1
1
1
1
1
1
1
1
1
1
1
1
1
1
1
1
1
1
1
1
1
1
1
1
1
1
1
1
1
1
1
1
1
1
1
1.05353
7.05456
10.2497
10.1665
10.1791
10.2074
10.2462
10.2817
10.3127
10.3418
10.3713
10.4011
10.4297
10.4559
10.4792
10.4991
10.5143
10.5275
10.5378
10.545
10.5477
10.5532
10.5589
10.5635
10.5653
10.5623
10.5521
10.5337
10.5099
10.4811
10.4479
10.4088
10.3608
10.302
10.2323
10.1535
10.063
9.95474
9.81916
9.64807
9.43814
9.18652
8.91608
8.74242
1
1
1
1
1
1
1
1
1
1
1
1
1
1
1
1
1
1
1
1
1
1
1
1
1
1
1
1
1
1
1
1
1
1
1
1
1
1
1
1
1
1
1
1
1
1
1
1
1
1
1
1
1.00025
5.67983
9.89394
10.0113
10.0964
10.1505
10.194
10.2326
10.2677
10.2978
10.3261
10.3542
10.3815
10.4073
10.4304
10.4495
10.4629
10.473
10.4809
10.4845
10.4821
10.4821
10.4839
10.4843
10.4818
10.4749
10.4617
10.4399
10.4109
10.3759
10.3354
10.2879
10.2304
10.16
10.075
9.97595
9.85983
9.72003
9.54416
9.31916
9.01839
8.57314
7.73283
5.78215
1
1
1
1
1
1
1
1
1
1
1
1
1
1
1
1
1
1
1
1
1
1
1
1
1
1
1
1
1
1
1
1
1
1
1
1
1
1
1
1
1
1
1
1
1
1
1
1
1
1
1
1
0.999998
4.32064
9.55363
9.99636
10.0713
10.127
10.1613
10.1882
10.22
10.2495
10.2778
10.3051
10.3315
10.3566
10.3792
10.3974
10.4096
10.4169
10.4228
10.4237
10.4173
10.4116
10.4077
10.4036
10.3965
10.3849
10.3678
10.3417
10.3074
10.2662
10.2183
10.1622
10.095
10.0129
9.91248
9.79267
9.64963
9.47567
9.25495
8.96051
8.54799
7.90437
6.92959
4.72309
1
1
1
1
1
1
1
1
1
1
1
1
1
1
1
1
1
1
1
1
1
1
1
1
1
1
1
1
1
1
1
1
1
1
1
1
1
1
1
1
1
1
1
1
1
1
1
1
1
1
1
1
1
2.97764
8.91115
10.0194
10.0578
10.0983
10.1303
10.1602
10.1859
10.2093
10.2331
10.2575
10.2817
10.305
10.3261
10.3432
10.3547
10.3606
10.3648
10.362
10.3527
10.3421
10.3324
10.3232
10.3117
10.2951
10.2726
10.241
10.2006
10.1525
10.0969
10.0323
9.95543
9.86171
9.74619
9.60609
9.43636
9.22881
8.96385
8.61533
8.11595
7.44762
6.16846
4.36472
1
1
1
1
1
1
1
1
1
1
1
1
1
1
1
1
1
1
1
1
1
1
1
1
1
1
1
1
1
1
1
1
1
1
1
1
1
1
1
1
1
1
1
1
1
1
1
1
1
1
1
1
1
1.7775
8.18044
10.1039
10.0282
10.0511
10.092
10.1255
10.1507
10.1712
10.1905
10.2104
10.2311
10.2517
10.2704
10.2859
10.2968
10.3018
10.3034
10.2972
10.2854
10.2706
10.2559
10.2419
10.2266
10.2053
10.1766
10.1386
10.0914
10.036
9.97256
9.89946
9.81281
9.7077
9.57776
9.41904
9.22476
8.98791
8.68551
8.29693
7.75302
6.99386
5.75883
4.26648
1
1
1
1
1
1
1
1
1
1
1
1
1
1
1
1
1
1
1
1
1
1
1
1
1
1
1
1
1
1
1
1
1
1
1
1
1
1
1
1
1
1
1
1
1
1
1
1
1
1
1
1
1
1.07055
6.93577
10.0985
10.0107
10.0155
10.0487
10.0831
10.1091
10.1295
10.1469
10.1634
10.1806
10.1981
10.2141
10.2278
10.237
10.241
10.24
10.2312
10.2164
10.198
10.1789
10.1605
10.1414
10.1161
10.0817
10.0369
9.98225
9.91907
9.84729
9.76536
9.66885
9.55284
9.40973
9.23498
9.02018
8.75877
8.42969
8.00655
7.44778
6.66254
5.5708
4.38118
1
1
1
1
1
1
1
1
1
1
1
1
1
1
1
1
1
1
1
1
1
1
1
1
1
1
1
1
1
1
1
1
1
1
1
1
1
1
1
1
1
1
1
1
1
1
1
1
1
1
1
1
1
1.00041
5.34668
9.65779
9.86508
9.94241
9.99531
10.0316
10.0603
10.0829
10.1004
10.1153
10.1298
10.1444
10.1575
10.1684
10.1751
10.1776
10.1742
10.1631
10.1457
10.1243
10.1013
10.0785
10.055
10.0259
9.98677
9.93595
9.87395
9.80299
9.72289
9.63213
9.52564
9.39915
9.24416
9.05601
8.82562
8.54552
8.1992
7.75883
7.19654
6.44554
5.51385
4.52656
1
1
1
1
1
1
1
1
1
1
1
1
1
1
1
1
1
1
1
1
1
1
1
1
1
1
1
1
1
1
1
1
1
1
1
1
1
1
1
1
1
1
1
1
1
1
1
1
1
1
1
1
1
0.999997
3.76559
9.25125
9.87011
9.92411
9.97111
9.99646
10.0189
10.0392
10.0552
10.0683
10.0801
10.0915
10.1015
10.1092
10.1134
10.1137
10.1083
10.0951
10.0754
10.051
10.0241
9.9965
9.96796
9.93477
9.89179
9.83636
9.76822
9.68991
9.60151
9.50196
9.3854
9.24892
9.08384
8.88541
8.64437
8.35217
7.99614
7.55559
6.9981
6.31388
5.51237
4.66817
1
1
1
1
1
1
1
1
1
1
1
1
1
1
1
1
1
1
1
1
1
1
1
1
1
1
1
1
1
1
1
1
1
1
1
1
1
1
1
1
1
1
1
1
1
1
1
1
1
1
1
1
1
0.999999
2.26151
8.47496
9.93387
9.90212
9.92721
9.95247
9.97866
9.99896
10.0134
10.0239
10.0324
10.0402
10.0465
10.0506
10.0517
10.0493
10.0419
10.0274
10.0061
9.97932
9.94875
9.91608
9.88183
9.84369
9.79681
9.73769
9.66489
9.58026
9.48395
9.37574
9.25005
9.10409
8.93029
8.72407
8.47671
8.17891
7.82236
7.38564
6.8517
6.23545
5.53414
4.80793
1
1
1
1
1
1
1
1
1
1
1
1
1
1
1
1
1
1
1
1
1
1
1
1
1
1
1
1
1
1
1
1
1
1
1
1
1
1
1
1
1
1
1
1
1
1
1
1
1
1
1
1
1
1
1.1625
7.31915
10.0178
9.90119
9.88181
9.9066
9.93282
9.95246
9.96658
9.97639
9.9826
9.98732
9.99034
9.9913
9.98982
9.98535
9.97654
9.96135
9.93917
9.90999
9.87519
9.83688
9.79627
9.75246
9.70123
9.63879
9.56273
9.47356
9.37078
9.25426
9.12045
8.96625
8.78578
8.57407
8.32346
8.02481
7.67426
7.2438
6.75173
6.1953
5.56622
4.93516
1
1
1
1
1
1
1
1
1
1
1
1
1
1
1
1
1
1
1
1
1
1
1
1
1
1
1
1
1
1
1
1
1
1
1
1
1
1
1
1
1
1
1
1
1
1
1
1
1
1
1
1
1
1
1.00246
5.70845
9.58075
9.73934
9.80195
9.84332
9.87625
9.89882
9.91471
9.92565
9.93101
9.93353
9.93357
9.93152
9.92742
9.92127
9.91143
9.89582
9.87289
9.84175
9.80335
9.76004
9.71338
9.66357
9.60732
9.54119
9.46227
9.36969
9.26177
9.13806
8.99714
8.83612
8.6509
8.43623
8.18522
7.88915
7.54562
7.13279
6.68282
6.17163
5.59942
5.05048
1
1
1
1
1
1
1
1
1
1
1
1
1
1
1
1
1
1
1
1
1
1
1
1
1
1
1
1
1
1
1
1
1
1
1
1
1
1
1
1
1
1
1
1
1
1
1
1
1
1
1
1
1
1
0.999974
3.89544
9.15321
9.72951
9.77946
9.81575
9.83892
9.85581
9.86872
9.87781
9.88146
9.88169
9.87886
9.87371
9.86672
9.85865
9.84764
9.83109
9.80687
9.77371
9.73215
9.68433
9.63193
9.57593
9.51402
9.44375
9.36207
9.26696
9.15547
9.02658
8.88024
8.71444
8.52633
8.31084
8.06168
7.77088
7.43684
7.0468
6.62965
6.1522
5.63956
5.15514
1
1
1
1
1
1
1
1
1
1
1
1
1
1
1
1
1
1
1
1
1
1
1
1
1
1
1
1
1
1
1
1
1
1
1
1
1
1
1
1
1
1
1
1
1
1
1
1
1
1
1
1
1
1
0.999994
2.20753
8.44626
9.78541
9.75777
9.77068
9.79937
9.81386
9.82318
9.82896
9.83156
9.83026
9.82514
9.81701
9.80687
9.79619
9.78334
9.76506
9.73913
9.70439
9.66088
9.61011
9.55317
9.49139
9.42373
9.34902
9.26428
9.16671
9.05236
8.91967
8.76917
8.60014
8.41077
8.1965
7.95126
7.66811
7.34468
6.97789
6.58725
6.14257
5.69105
5.24326
1
1
1
1
1
1
1
1
1
1
1
1
1
1
1
1
1
1
1
1
1
1
1
1
1
1
1
1
1
1
1
1
1
1
1
1
1
1
1
1
1
1
1
1
1
1
1
1
1
1
1
1
1
1
0.999999
1.13902
7.0593
9.83709
9.74878
9.73938
9.75399
9.76699
9.77444
9.77939
9.78213
9.78058
9.77412
9.76343
9.74995
9.73559
9.71944
9.6982
9.66999
9.63377
9.58903
9.53634
9.47574
9.40857
9.33526
9.25594
9.16777
9.06771
8.95127
8.81648
8.66351
8.49257
8.30305
8.09131
7.85165
7.57879
7.26743
6.9205
6.55549
6.14518
5.73837
5.31084
1
1
1
1
1
1
1
1
1
1
1
1
1
1
1
1
1
1
1
1
1
1
1
1
1
1
1
1
1
1
1
1
1
1
1
1
1
1
1
1
1
1
1
1
1
1
1
1
1
1
1
1
1
1
1
1.00159
5.21501
9.34985
9.59663
9.68308
9.71576
9.7213
9.72373
9.72696
9.72952
9.72853
9.72189
9.70949
9.69303
9.67467
9.65463
9.63028
9.59996
9.56252
9.51702
9.46327
9.40026
9.32898
9.25073
9.16689
9.07492
8.97202
8.85374
8.71802
8.56405
8.39202
8.20265
7.99334
7.76054
7.49936
7.19933
6.87487
6.53386
6.15119
5.77545
5.37163
1
1
1
1
1
1
1
1
1
1
1
1
1
1
1
1
1
1
1
1
1
1
1
1
1
1
1
1
1
1
1
1
1
1
1
1
1
1
1
1
1
1
1
1
1
1
1
1
1
1
1
1
1
1
1
0.999987
3.16868
8.83948
9.66315
9.67112
9.68145
9.6844
9.6835
9.68226
9.68132
9.67865
9.67104
9.65697
9.63781
9.61522
9.59059
9.56241
9.52951
9.49065
9.44432
9.38971
9.32512
9.25125
9.16931
9.08095
8.98481
8.87871
8.75871
8.62319
8.47023
8.29869
8.11007
7.90247
7.67686
7.42299
7.13818
6.84313
6.51504
6.1569
5.80868
5.43278
1
1
1
1
1
1
1
1
1
1
1
1
1
1
1
1
1
1
1
1
1
1
1
1
1
1
1
1
1
1
1
1
1
1
1
1
1
1
1
1
1
1
1
1
1
1
1
1
1
1
1
1
1
1
1
0.999997
1.52052
7.86566
9.78156
9.65596
9.62911
9.63437
9.63338
9.63016
9.62693
9.62318
9.61563
9.60134
9.58096
9.55536
9.52692
9.4954
9.46025
9.41991
9.37241
9.31678
9.25123
9.17621
9.09213
8.99994
8.89953
8.79006
8.66839
8.53338
8.38276
8.21335
8.02699
7.82053
7.59934
7.35064
7.08909
6.81305
6.48982
6.16564
5.84208
5.49567
1
1
1
1
1
1
1
1
1
1
1
1
1
1
1
1
1
1
1
1
1
1
1
1
1
1
1
1
1
1
1
1
1
1
1
1
1
1
1
1
1
1
1
1
1
1
1
1
1
1
1
1
1
1
1
1
1.02614
6.19104
9.41697
9.52563
9.5719
9.58121
9.58039
9.57573
9.57074
9.56587
9.55835
9.54475
9.52423
9.49684
9.4652
9.43036
9.39249
9.34995
9.30051
9.2434
9.17706
9.10171
9.01675
8.92214
8.81806
8.705
8.58168
8.44718
8.29963
8.13399
7.95267
7.74686
7.52969
7.28713
7.04333
6.77208
6.46755
6.18405
5.87515
5.55191
1
1
1
1
1
1
1
1
1
1
1
1
1
1
1
1
1
1
1
1
1
1
1
1
1
1
1
1
1
1
1
1
1
1
1
1
1
1
1
1
1
1
1
1
1
1
1
1
1
1
1
1
1
1
1
1
0.99996
3.98934
8.98937
9.48857
9.52673
9.54394
9.53988
9.53123
9.52199
9.51366
9.50392
9.49009
9.4692
9.4406
9.4066
9.3686
9.32756
9.28211
9.23004
9.1711
9.10397
9.02862
8.94357
8.84798
8.74174
8.62598
8.50106
8.36668
8.22152
8.06048
7.88465
7.68148
7.46993
7.23313
6.99855
6.73436
6.4638
6.19871
5.89343
5.59618
1
1
1
1
1
1
1
1
1
1
1
1
1
1
1
1
1
1
1
1
1
1
1
1
1
1
1
1
1
1
1
1
1
1
1
1
1
1
1
1
1
1
1
1
1
1
1
1
1
1
1
1
1
1
1
1
0.999986
2.01268
8.28266
9.5709
9.49764
9.4906
9.48704
9.47834
9.46818
9.45887
9.44794
9.43442
9.41371
9.38489
9.34945
9.30853
9.264
9.21528
9.16045
9.09961
9.03149
8.95584
8.87087
8.77546
8.66882
8.55193
8.42598
8.29131
8.14712
7.99027
7.81882
7.62335
7.41542
7.1884
6.96238
6.70726
6.45961
6.19374
5.90953
5.64118
1
1
1
1
1
1
1
1
1
1
1
1
1
1
1
1
1
1
1
1
1
1
1
1
1
1
1
1
1
1
1
1
1
1
1
1
1
1
1
1
1
1
1
1
1
1
1
1
1
1
1
1
1
1
1
1
0.999998
1.09091
6.67444
9.46901
9.42896
9.42504
9.43737
9.43034
9.41836
9.40617
9.39328
9.37965
9.35948
9.33126
9.2948
9.25126
9.20294
9.15062
9.09305
9.0303
8.96098
8.88463
8.7997
8.70503
8.5994
8.48328
8.35785
8.2231
8.0792
7.92443
7.75744
7.56953
7.36576
7.15417
6.93327
6.68634
6.4483
6.1928
5.93838
5.6784
1
1
1
1
1
1
1
1
1
1
1
1
1
1
1
1
1
1
1
1
1
1
1
1
1
1
1
1
1
1
1
1
1
1
1
1
1
1
1
1
1
1
1
1
1
1
1
1
1
1
1
1
1
1
1
1
1
1.00051
4.39926
8.97346
9.33942
9.38484
9.40716
9.39816
9.38276
9.36502
9.34676
9.32887
9.30619
9.27731
9.23987
9.19449
9.14312
9.08769
9.02794
8.96362
8.89299
8.81563
8.73039
8.63633
8.53219
8.41807
8.29479
8.16084
8.01805
7.86336
7.70069
7.51759
7.32213
7.12361
6.90342
6.67089
6.44734
6.20636
5.95839
5.69934
1
1
1
1
1
1
1
1
1
1
1
1
1
1
1
1
1
1
1
1
1
1
1
1
1
1
1
1
1
1
1
1
1
1
1
1
1
1
1
1
1
1
1
1
1
1
1
1
1
1
1
1
1
1
1
1
1
0.999996
2.19786
8.32659
9.41709
9.36924
9.36274
9.35014
9.33611
9.31636
9.29465
9.27265
9.24798
9.21908
9.18235
9.1373
9.08471
9.02722
8.96584
8.90021
8.82828
8.74992
8.6643
8.57059
8.46761
8.35562
8.23552
8.10407
7.96376
7.80807
7.6491
7.47036
7.28427
7.09141
6.87789
6.66666
6.45145
6.21613
5.96983
5.72307
1
1
1
1
1
1
1
1
1
1
1
1
1
1
1
1
1
1
1
1
1
1
1
1
1
1
1
1
1
1
1
1
1
1
1
1
1
1
1
1
1
1
1
1
1
1
1
1
1
1
1
1
1
1
1
1
1
0.999999
1.11991
6.70871
9.3395
9.3029
9.30085
9.30234
9.29452
9.27338
9.24615
9.21781
9.1893
9.1584
9.12207
9.07857
9.02682
8.96896
8.90671
8.84022
8.76734
8.68827
8.60234
8.50879
8.40604
8.29547
8.17827
8.05064
7.913
7.75816
7.60251
7.42767
7.24961
7.06201
6.86249
6.66225
6.44515
6.2205
5.98883
5.75885
1
1
1
1
1
1
1
1
1
1
1
1
1
1
1
1
1
1
1
1
1
1
1
1
1
1
1
1
1
1
1
1
1
1
1
1
1
1
1
1
1
1
1
1
1
1
1
1
1
1
1
1
1
1
1
1
1
1
1.00096
4.31328
8.85195
9.22216
9.25064
9.2709
9.26821
9.2425
9.20788
9.17152
9.13608
9.10088
9.06344
9.02094
8.97058
8.91324
8.85034
8.78322
8.70952
8.62999
8.54396
8.4508
8.34789
8.2375
8.12225
7.99889
7.86387
7.71356
7.55935
7.3889
7.21878
7.03761
6.84699
6.64771
6.43721
6.23303
6.01552
5.79062
1
1
1
1
1
1
1
1
1
1
1
1
1
1
1
1
1
1
1
1
1
1
1
1
1
1
1
1
1
1
1
1
1
1
1
1
1
1
1
1
1
1
1
1
1
1
1
1
1
1
1
1
1
1
1
1
1
1
0.999994
2.00101
8.15899
9.3594
9.26521
9.24276
9.22123
9.19295
9.15753
9.11959
9.08076
9.04312
9.00504
8.96387
8.91583
8.86027
8.79737
8.72961
8.65515
8.57543
8.48962
8.39628
8.29292
8.18298
8.06921
7.94802
7.81634
7.67213
7.51854
7.35455
7.19149
7.01347
6.82684
6.63443
6.439
6.24586
6.03267
5.81042
1
1
1
1
1
1
1
1
1
1
1
1
1
1
1
1
1
1
1
1
1
1
1
1
1
1
1
1
1
1
1
1
1
1
1
1
1
1
1
1
1
1
1
1
1
1
1
1
1
1
1
1
1
1
1
1
1
1
0.999999
1.08315
6.41301
9.10646
9.15428
9.1723
9.16318
9.14195
9.1095
9.07212
9.03106
8.99088
8.95159
8.91113
8.86496
8.81094
8.74822
8.67931
8.60414
8.52399
8.43819
8.34397
8.24082
8.1315
8.01764
7.89753
7.76977
7.63111
7.47995
7.32393
7.16419
6.98759
6.80876
6.62765
6.44008
6.24829
6.03855
5.82959
1
1
1
1
1
1
1
1
1
1
1
1
1
1
1
1
1
1
1
1
1
1
1
1
1
1
1
1
1
1
1
1
1
1
1
1
1
1
1
1
1
1
1
1
1
1
1
1
1
1
1
1
1
1
1
1
1
1
1
1.00036
3.78274
8.636
9.13276
9.12945
9.11116
9.09853
9.07297
9.035
8.99059
8.94643
8.90489
8.86318
8.81728
8.76409
8.70199
8.63241
8.55661
8.47604
8.38963
8.29456
8.19184
8.08286
7.96878
7.84993
7.72543
7.59087
7.44508
7.29662
7.13764
6.96491
6.79662
6.62215
6.4347
6.24637
6.04853
5.85639
1
1
1
1
1
1
1
1
1
1
1
1
1
1
1
1
1
1
1
1
1
1
1
1
1
1
1
1
1
1
1
1
1
1
1
1
1
1
1
1
1
1
1
1
1
1
1
1
1
1
1
1
1
1
1
1
1
1
1
0.999998
1.55576
7.71987
9.28852
9.12579
9.07912
9.04699
9.02523
8.98941
8.94712
8.90372
8.86142
8.81817
8.77133
8.71798
8.65642
8.58692
8.51067
8.42969
8.34236
8.24727
8.14466
8.0359
7.92221
7.8037
7.68095
7.55018
7.41191
7.26891
7.11145
6.946
6.78523
6.61143
6.42623
6.24895
6.06551
5.88408
1
1
1
1
1
1
1
1
1
1
1
1
1
1
1
1
1
1
1
1
1
1
1
1
1
1
1
1
1
1
1
1
1
1
1
1
1
1
1
1
1
1
1
1
1
1
1
1
1
1
1
1
1
1
1
1
1
1
1
0.999999
1.02649
5.7355
8.86846
8.93586
8.97745
8.99878
8.98313
8.9487
8.9094
8.86732
8.82288
8.77651
8.72673
8.67167
8.6102
8.54133
8.46535
8.38418
8.29665
8.20222
8.10046
7.99278
7.87977
7.76156
7.63923
7.51172
7.37979
7.24072
7.08782
6.93089
6.77302
6.5992
6.42323
6.25792
6.08468
5.90568
1
1
1
1
1
1
1
1
1
1
1
1
1
1
1
1
1
1
1
1
1
1
1
1
1
1
1
1
1
1
1
1
1
1
1
1
1
1
1
1
1
1
1
1
1
1
1
1
1
1
1
1
1
1
1
1
1
1
1
1
0.999961
2.98657
8.26341
8.97586
8.98792
8.98217
8.94747
8.91419
8.8799
8.83888
8.79062
8.739
8.68419
8.62625
8.56405
8.49542
8.41987
8.33876
8.25119
8.1579
8.05746
7.95145
7.83968
7.72198
7.59987
7.47412
7.34544
7.21032
7.06412
6.91354
6.75703
6.58835
6.42536
6.2678
6.09907
5.9204
1
1
1
1
1
1
1
1
1
1
1
1
1
1
1
1
1
1
1
1
1
1
1
1
1
1
1
1
1
1
1
1
1
1
1
1
1
1
1
1
1
1
1
1
1
1
1
1
1
1
1
1
1
1
1
1
1
1
1
1
0.999987
1.2746
6.86437
9.02346
8.96158
8.93456
8.89781
8.87099
8.84405
8.8046
8.75395
8.6978
8.63897
8.57874
8.51608
8.44816
8.37391
8.29373
8.20734
8.11561
8.01774
7.91456
7.80484
7.68838
7.56696
7.44118
7.31312
7.18138
7.04119
6.8951
6.74243
6.58413
6.43049
6.27534
6.10823
5.9328
1
1
1
1
1
1
1
1
1
1
1
1
1
1
1
1
1
1
1
1
1
1
1
1
1
1
1
1
1
1
1
1
1
1
1
1
1
1
1
1
1
1
1
1
1
1
1
1
1
1
1
1
1
1
1
1
1
1
1
1
0.999998
1.00605
4.32266
8.54449
8.86619
8.86206
8.83649
8.83455
8.81493
8.77407
8.71999
8.65906
8.59607
8.53306
8.46884
8.40147
8.32872
8.24985
8.16509
8.07486
7.97903
7.87848
7.77117
7.65678
7.5368
7.41104
7.28325
7.15386
7.01744
6.87516
6.72946
6.58209
6.43298
6.27793
6.11368
5.94652
1
1
1
1
1
1
1
1
1
1
1
1
1
1
1
1
1
1
1
1
1
1
1
1
1
1
1
1
1
1
1
1
1
1
1
1
1
1
1
1
1
1
1
1
1
1
1
1
1
1
1
1
1
1
1
1
1
1
1
1
1
0.999981
1.71862
7.70056
9.04036
8.88699
8.8383
8.8068
8.77703
8.73109
8.67575
8.61447
8.55106
8.48732
8.42223
8.35523
8.28376
8.20687
8.12463
8.03653
7.94296
7.8448
7.74019
7.62872
7.51109
7.3866
7.25971
7.13154
6.9968
6.85766
6.7192
6.57921
6.43245
6.27865
6.12005
5.96287
1
1
1
1
1
1
1
1
1
1
1
1
1
1
1
1
1
1
1
1
1
1
1
1
1
1
1
1
1
1
1
1
1
1
1
1
1
1
1
1
1
1
1
1
1
1
1
1
1
1
1
1
1
1
1
1
1
1
1
1
1
0.999995
1.04171
5.70333
8.69737
8.72637
8.75164
8.75225
8.72376
8.67778
8.62657
8.56941
8.50798
8.4442
8.37789
8.31016
8.23914
8.16405
8.08415
7.99834
7.90669
7.80991
7.70727
7.59876
7.48423
7.36301
7.23884
7.11211
6.97877
6.84275
6.70971
6.57321
6.42811
6.27804
6.12734
5.97792
1
1
1
1
1
1
1
1
1
1
1
1
1
1
1
1