/*--------------------------------*- C++ -*----------------------------------*\
  =========                 |
  \\      /  F ield         | OpenFOAM: The Open Source CFD Toolbox
   \\    /   O peration     | Website:  https://openfoam.org
    \\  /    A nd           | Version:  7
     \\/     M anipulation  |
\*---------------------------------------------------------------------------*/
FoamFile
{
    version     2.0;
    format      ascii;
    class       volScalarField;
    location    "2";
    object      rho;
}
// * * * * * * * * * * * * * * * * * * * * * * * * * * * * * * * * * * * * * //

dimensions      [1 -3 0 0 0 0 0];

internalField   nonuniform List<scalar> 
64512
(
1.40001
1.40001
1.40001
1.40001
1.40001
1.40001
1.40001
1.40001
1.40001
1.40001
1.40001
1.40001
1.40001
1.40001
1.40001
1.40001
1.40001
1.40001
1.40001
1.40001
1.40001
1.40001
1.40001
1.40001
1.40001
1.40001
1.40001
1.40001
1.40001
1.40001
1.40001
1.40001
1.40001
1.40001
1.40001
1.40001
1.40001
1.40001
1.40001
1.40001
1.40001
1.40001
1.40001
1.40001
1.40001
1.40001
1.40001
1.40001
1.40001
1.40001
3.87442
5.44897
5.46239
5.46952
5.48047
5.49128
5.50625
5.52708
5.55417
5.5847
5.61482
5.64163
5.66395
5.68116
5.69431
5.70516
5.71538
5.72628
5.73964
5.75647
5.77366
5.78958
5.80571
5.8207
5.83392
5.84719
5.86222
5.8788
5.89459
5.90744
5.91718
5.92421
5.92891
5.93201
5.93389
5.93493
5.93667
5.93977
5.94539
5.95245
5.95818
5.95808
5.94839
5.93248
5.92033
5.91611
1.40001
1.40001
1.40001
1.40001
1.40001
1.40001
1.40001
1.40001
1.40001
1.40001
1.40001
1.40001
1.40001
1.40001
1.40001
1.40001
1.40001
1.40001
1.40001
1.40001
1.40001
1.40001
1.40001
1.40001
1.40001
1.40001
1.40001
1.40001
1.40001
1.40001
1.40001
1.40001
1.40001
1.40001
1.40001
1.40001
1.40001
1.40001
1.40001
1.40001
1.40001
1.40001
1.40001
1.40001
1.40001
1.40001
1.40001
1.40001
1.40001
1.40001
3.8582
5.44648
5.46094
5.46787
5.47911
5.49001
5.50494
5.52576
5.5528
5.58332
5.6133
5.6398
5.66201
5.67953
5.69296
5.7041
5.71475
5.72589
5.73928
5.7558
5.77291
5.78898
5.80528
5.82026
5.83338
5.84653
5.86147
5.878
5.89381
5.90679
5.91671
5.92379
5.92828
5.93099
5.93253
5.93349
5.93542
5.93908
5.94507
5.95211
5.9574
5.95667
5.94668
5.9307
5.91864
5.91473
1.40001
1.40001
1.40001
1.40001
1.40001
1.40001
1.40001
1.40001
1.40001
1.40001
1.40001
1.40001
1.40001
1.40001
1.40001
1.40001
1.40001
1.40001
1.40001
1.40001
1.40001
1.40001
1.40001
1.40001
1.40001
1.40001
1.40001
1.40001
1.40001
1.40001
1.40001
1.40001
1.40001
1.40001
1.40001
1.40001
1.40001
1.40001
1.40001
1.40001
1.40001
1.40001
1.40001
1.40001
1.40001
1.40001
1.40001
1.40001
1.40001
1.40001
3.8243
5.44489
5.45763
5.46427
5.47629
5.48764
5.50267
5.52343
5.55034
5.58076
5.6106
5.63702
5.6593
5.67696
5.69062
5.70206
5.71321
5.72473
5.73839
5.75469
5.77165
5.7878
5.80424
5.81919
5.83228
5.84538
5.86023
5.87663
5.89237
5.90557
5.91583
5.92306
5.92736
5.92956
5.93055
5.93119
5.93323
5.93747
5.944
5.95126
5.95627
5.95486
5.94439
5.92801
5.91574
5.91196
1.40001
1.40001
1.40001
1.40001
1.40001
1.40001
1.40001
1.40001
1.40001
1.40001
1.40001
1.40001
1.40001
1.40001
1.40001
1.40001
1.40001
1.40001
1.40001
1.40001
1.40001
1.40001
1.40001
1.40001
1.40001
1.40001
1.40001
1.40001
1.40001
1.40001
1.40001
1.40001
1.40001
1.40001
1.40001
1.40001
1.40001
1.40001
1.40001
1.40001
1.40001
1.40001
1.40001
1.40001
1.40001
1.40001
1.40001
1.40001
1.40001
1.40001
3.77153
5.44278
5.45419
5.46107
5.47354
5.48504
5.49992
5.52032
5.54683
5.57688
5.60644
5.63279
5.65527
5.67326
5.68738
5.69931
5.71101
5.72291
5.73691
5.753
5.76983
5.7861
5.80262
5.81749
5.83055
5.84359
5.8583
5.8745
5.89014
5.90355
5.91418
5.92157
5.92569
5.9274
5.92792
5.92833
5.93053
5.93529
5.94222
5.94956
5.95412
5.95192
5.94093
5.92407
5.91152
5.90783
1.40001
1.40001
1.40001
1.40001
1.40001
1.40001
1.40001
1.40001
1.40001
1.40001
1.40001
1.40001
1.40001
1.40001
1.40001
1.40001
1.40001
1.40001
1.40001
1.40001
1.40001
1.40001
1.40001
1.40001
1.40001
1.40001
1.40001
1.40001
1.40001
1.40001
1.40001
1.40001
1.40001
1.40001
1.40001
1.40001
1.40001
1.40001
1.40001
1.40001
1.40001
1.40001
1.40001
1.40001
1.40001
1.40001
1.40001
1.40001
1.40001
1.40001
3.69841
5.4351
5.45053
5.45894
5.47199
5.48345
5.49783
5.51724
5.54279
5.57203
5.60108
5.62749
5.65043
5.66898
5.68367
5.69619
5.70838
5.72057
5.73483
5.75076
5.76757
5.78401
5.80054
5.81535
5.82843
5.84144
5.85597
5.87188
5.88731
5.90079
5.91166
5.9192
5.92321
5.92457
5.92485
5.92523
5.92763
5.9327
5.93972
5.94691
5.95093
5.94805
5.93656
5.91923
5.90626
5.90251
1.40001
1.40001
1.40001
1.40001
1.40001
1.40001
1.40001
1.40001
1.40001
1.40001
1.40001
1.40001
1.40001
1.40001
1.40001
1.40001
1.40001
1.40001
1.40001
1.40001
1.40001
1.40001
1.40001
1.40001
1.40001
1.40001
1.40001
1.40001
1.40001
1.40001
1.40001
1.40001
1.40001
1.40001
1.40001
1.40001
1.40001
1.40001
1.40001
1.40001
1.40001
1.40001
1.40001
1.40001
1.40001
1.40001
1.40001
1.40001
1.40001
1.40001
3.60339
5.41821
5.44665
5.45832
5.47269
5.48416
5.4974
5.51523
5.53898
5.56684
5.59502
5.62132
5.64476
5.66401
5.67943
5.6928
5.70554
5.71799
5.73236
5.74813
5.76496
5.78148
5.7979
5.81257
5.82561
5.8385
5.85273
5.86828
5.88347
5.89689
5.90786
5.91554
5.91951
5.92073
5.92106
5.92173
5.92445
5.92967
5.93645
5.94321
5.94663
5.94324
5.93134
5.91364
5.90028
5.8964
1.40001
1.40001
1.40001
1.40001
1.40001
1.40001
1.40001
1.40001
1.40001
1.40001
1.40001
1.40001
1.40001
1.40001
1.40001
1.40001
1.40001
1.40001
1.40001
1.40001
1.40001
1.40001
1.40001
1.40001
1.40001
1.40001
1.40001
1.40001
1.40001
1.40001
1.40001
1.40001
1.40001
1.40001
1.40001
1.40001
1.40001
1.40001
1.40001
1.40001
1.40001
1.40001
1.40001
1.40001
1.40001
1.40001
1.40001
1.40001
1.40001
1.40001
3.48654
5.39183
5.44232
5.45833
5.47503
5.48718
5.49949
5.51499
5.53593
5.56174
5.58867
5.61456
5.63834
5.6584
5.67487
5.68941
5.70273
5.71532
5.72944
5.74481
5.76152
5.7781
5.79448
5.80914
5.82221
5.835
5.84887
5.86405
5.87902
5.89238
5.90332
5.91099
5.91482
5.916
5.91661
5.91789
5.92109
5.92639
5.93266
5.93867
5.94131
5.93737
5.92501
5.90708
5.89348
5.88949
1.40001
1.40001
1.40001
1.40001
1.40001
1.40001
1.40001
1.40001
1.40001
1.40001
1.40001
1.40001
1.40001
1.40001
1.40001
1.40001
1.40001
1.40001
1.40001
1.40001
1.40001
1.40001
1.40001
1.40001
1.40001
1.40001
1.40001
1.40001
1.40001
1.40001
1.40001
1.40001
1.40001
1.40001
1.40001
1.40001
1.40001
1.40001
1.40001
1.40001
1.40001
1.40001
1.40001
1.40001
1.40001
1.40001
1.40001
1.40001
1.40001
1.40001
3.34904
5.35813
5.43785
5.4582
5.47756
5.49127
5.50324
5.51653
5.53432
5.55721
5.58232
5.60737
5.63137
5.65226
5.66995
5.68582
5.6998
5.71247
5.72607
5.74076
5.75716
5.7738
5.79032
5.80516
5.8184
5.8311
5.84453
5.85926
5.87401
5.88724
5.89798
5.90532
5.90884
5.90997
5.91094
5.91301
5.91687
5.92236
5.92823
5.93342
5.93521
5.93059
5.91767
5.89963
5.88614
5.8822
1.40001
1.40001
1.40001
1.40001
1.40001
1.40001
1.40001
1.40001
1.40001
1.40001
1.40001
1.40001
1.40001
1.40001
1.40001
1.40001
1.40001
1.40001
1.40001
1.40001
1.40001
1.40001
1.40001
1.40001
1.40001
1.40001
1.40001
1.40001
1.40001
1.40001
1.40001
1.40001
1.40001
1.40001
1.40001
1.40001
1.40001
1.40001
1.40001
1.40001
1.40001
1.40001
1.40001
1.40001
1.40001
1.40001
1.40001
1.40001
1.40001
1.40001
3.1927
5.31872
5.43286
5.45657
5.47887
5.49473
5.50713
5.51902
5.53398
5.5537
5.57653
5.60036
5.6242
5.64566
5.66438
5.68155
5.69636
5.70926
5.72237
5.73628
5.75221
5.76885
5.78554
5.80057
5.81395
5.82648
5.83941
5.85366
5.8682
5.8813
5.89174
5.8986
5.90181
5.90299
5.90432
5.9071
5.91173
5.91767
5.92336
5.92781
5.92864
5.92302
5.90922
5.89101
5.87784
5.87409
1.40001
1.40001
1.40001
1.40001
1.40001
1.40001
1.40001
1.40001
1.40001
1.40001
1.40001
1.40001
1.40001
1.40001
1.40001
1.40001
1.40001
1.40001
1.40001
1.40001
1.40001
1.40001
1.40001
1.40001
1.40001
1.40001
1.40001
1.40001
1.40001
1.40001
1.40001
1.40001
1.40001
1.40001
1.40001
1.40001
1.40001
1.40001
1.40001
1.40001
1.40001
1.40001
1.40001
1.40001
1.40001
1.40001
1.40001
1.40001
1.40001
1.40001
3.02083
5.27557
5.42803
5.45287
5.4775
5.49592
5.5098
5.52131
5.53409
5.55096
5.57109
5.59349
5.6171
5.63921
5.6591
5.67759
5.69325
5.70628
5.71866
5.73145
5.74657
5.76295
5.77973
5.79494
5.80853
5.82104
5.83363
5.84748
5.86179
5.87468
5.88472
5.89115
5.89415
5.89533
5.89686
5.90012
5.90536
5.91183
5.91762
5.92155
5.9215
5.91468
5.89979
5.88124
5.86845
5.86494
1.40001
1.40001
1.40001
1.40001
1.40001
1.40001
1.40001
1.40001
1.40001
1.40001
1.40001
1.40001
1.40001
1.40001
1.40001
1.40001
1.40001
1.40001
1.40001
1.40001
1.40001
1.40001
1.40001
1.40001
1.40001
1.40001
1.40001
1.40001
1.40001
1.40001
1.40001
1.40001
1.40001
1.40001
1.40001
1.40001
1.40001
1.40001
1.40001
1.40001
1.40001
1.40001
1.40001
1.40001
1.40001
1.40001
1.40001
1.40001
1.40001
1.40001
2.83753
5.22685
5.42222
5.44857
5.47467
5.49511
5.51093
5.52312
5.53502
5.5498
5.56721
5.58729
5.60986
5.63205
5.65262
5.6722
5.68879
5.7022
5.71418
5.72615
5.74052
5.75656
5.77337
5.78877
5.80264
5.81527
5.82757
5.84083
5.85448
5.86679
5.87634
5.88254
5.8856
5.8869
5.88861
5.89222
5.89788
5.90478
5.91078
5.91459
5.91387
5.9058
5.88978
5.87073
5.85811
5.85476
1.40001
1.40001
1.40001
1.40001
1.40001
1.40001
1.40001
1.40001
1.40001
1.40001
1.40001
1.40001
1.40001
1.40001
1.40001
1.40001
1.40001
1.40001
1.40001
1.40001
1.40001
1.40001
1.40001
1.40001
1.40001
1.40001
1.40001
1.40001
1.40001
1.40001
1.40001
1.40001
1.40001
1.40001
1.40001
1.40001
1.40001
1.40001
1.40001
1.40001
1.40001
1.40001
1.40001
1.40001
1.40001
1.40001
1.40001
1.40001
1.40001
1.40001
2.64586
5.16747
5.41596
5.44384
5.47111
5.49276
5.51018
5.52337
5.53511
5.54859
5.56392
5.58189
5.60323
5.62539
5.64635
5.66657
5.68384
5.69778
5.70978
5.72137
5.73508
5.7505
5.76688
5.782
5.79585
5.80857
5.82059
5.83312
5.84585
5.85745
5.86668
5.87296
5.8764
5.87806
5.87993
5.8836
5.88933
5.89638
5.90256
5.90643
5.90532
5.89631
5.87925
5.85949
5.84665
5.84327
1.40001
1.40001
1.40001
1.40001
1.40001
1.40001
1.40001
1.40001
1.40001
1.40001
1.40001
1.40001
1.40001
1.40001
1.40001
1.40001
1.40001
1.40001
1.40001
1.40001
1.40001
1.40001
1.40001
1.40001
1.40001
1.40001
1.40001
1.40001
1.40001
1.40001
1.40001
1.40001
1.40001
1.40001
1.40001
1.40001
1.40001
1.40001
1.40001
1.40001
1.40001
1.40001
1.40001
1.40001
1.40001
1.40001
1.40001
1.40001
1.40001
1.40001
2.44431
5.09195
5.41317
5.43855
5.46547
5.48817
5.50751
5.5223
5.53494
5.54803
5.56203
5.57819
5.59809
5.61972
5.64063
5.66096
5.67862
5.69304
5.70528
5.71669
5.7297
5.74422
5.75987
5.77456
5.78844
5.80141
5.81321
5.82488
5.83637
5.847
5.85584
5.86229
5.86629
5.86852
5.87061
5.87417
5.8797
5.88664
5.89288
5.89677
5.89554
5.88612
5.86828
5.84769
5.83417
5.83055
1.40001
1.40001
1.40001
1.40001
1.40001
1.40001
1.40001
1.40001
1.40001
1.40001
1.40001
1.40001
1.40001
1.40001
1.40001
1.40001
1.40001
1.40001
1.40001
1.40001
1.40001
1.40001
1.40001
1.40001
1.40001
1.40001
1.40001
1.40001
1.40001
1.40001
1.40001
1.40001
1.40001
1.40001
1.40001
1.40001
1.40001
1.40001
1.40001
1.40001
1.40001
1.40001
1.40001
1.40001
1.40001
1.40001
1.40001
1.40001
1.40001
1.40001
2.23713
4.99417
5.41661
5.43555
5.46025
5.48277
5.50354
5.52009
5.53402
5.54752
5.5612
5.57628
5.59477
5.61533
5.63561
5.6554
5.67288
5.68751
5.70016
5.71176
5.72437
5.73805
5.75285
5.767
5.78083
5.79391
5.80535
5.81596
5.82601
5.83555
5.84402
5.85076
5.85544
5.85834
5.86067
5.86402
5.86916
5.87574
5.88178
5.88555
5.88433
5.87489
5.8566
5.83515
5.82057
5.81649
1.40001
1.40001
1.40001
1.40001
1.40001
1.40001
1.40001
1.40001
1.40001
1.40001
1.40001
1.40001
1.40001
1.40001
1.40001
1.40001
1.40001
1.40001
1.40001
1.40001
1.40001
1.40001
1.40001
1.40001
1.40001
1.40001
1.40001
1.40001
1.40001
1.40001
1.40001
1.40001
1.40001
1.40001
1.40001
1.40001
1.40001
1.40001
1.40001
1.40001
1.40001
1.40001
1.40001
1.40001
1.40001
1.40001
1.40001
1.40001
1.40001
1.40001
2.03024
4.86929
5.42477
5.43462
5.4564
5.47792
5.49941
5.51746
5.53261
5.54668
5.56051
5.57507
5.59243
5.61175
5.63103
5.64978
5.66658
5.68105
5.69406
5.70608
5.71869
5.73184
5.74591
5.75948
5.77302
5.7859
5.79682
5.8064
5.8151
5.82357
5.83158
5.83845
5.84363
5.84702
5.84956
5.85269
5.85748
5.86366
5.86935
5.87284
5.87162
5.86227
5.84383
5.82168
5.80597
5.80143
1.40001
1.40001
1.40001
1.40001
1.40001
1.40001
1.40001
1.40001
1.40001
1.40001
1.40001
1.40001
1.40001
1.40001
1.40001
1.40001
1.40001
1.40001
1.40001
1.40001
1.40001
1.40001
1.40001
1.40001
1.40001
1.40001
1.40001
1.40001
1.40001
1.40001
1.40001
1.40001
1.40001
1.40001
1.40001
1.40001
1.40001
1.40001
1.40001
1.40001
1.40001
1.40001
1.40001
1.40001
1.40001
1.40001
1.40001
1.40001
1.40001
1.40001
1.834
4.71489
5.43786
5.43529
5.45553
5.47485
5.49578
5.51424
5.53011
5.54474
5.55907
5.57384
5.59071
5.60896
5.62704
5.6444
5.66008
5.6739
5.68693
5.69933
5.71214
5.72503
5.73845
5.75139
5.76436
5.7767
5.78704
5.79575
5.80337
5.8109
5.81842
5.82528
5.83082
5.83462
5.83731
5.84017
5.84453
5.85015
5.85529
5.85835
5.85704
5.84782
5.82947
5.80691
5.79028
5.78541
1.40001
1.40001
1.40001
1.40001
1.40001
1.40001
1.40001
1.40001
1.40001
1.40001
1.40001
1.40001
1.40001
1.40001
1.40001
1.40001
1.40001
1.40001
1.40001
1.40001
1.40001
1.40001
1.40001
1.40001
1.40001
1.40001
1.40001
1.40001
1.40001
1.40001
1.40001
1.40001
1.40001
1.40001
1.40001
1.40001
1.40001
1.40001
1.40001
1.40001
1.40001
1.40001
1.40001
1.40001
1.40001
1.40001
1.40001
1.40001
1.40001
1.40001
1.66164
4.52505
5.44147
5.43128
5.45099
5.46876
5.48913
5.50763
5.5241
5.53966
5.55499
5.57032
5.58711
5.60471
5.62185
5.63796
5.65249
5.66544
5.67805
5.69049
5.70343
5.7163
5.72938
5.74191
5.7543
5.76606
5.77593
5.78408
5.79106
5.79793
5.80487
5.81136
5.81676
5.82052
5.82307
5.82556
5.82949
5.83467
5.83944
5.84217
5.84077
5.83164
5.81349
5.79076
5.77355
5.76853
1.40001
1.40001
1.40001
1.40001
1.40001
1.40001
1.40001
1.40001
1.40001
1.40001
1.40001
1.40001
1.40001
1.40001
1.40001
1.40001
1.40001
1.40001
1.40001
1.40001
1.40001
1.40001
1.40001
1.40001
1.40001
1.40001
1.40001
1.40001
1.40001
1.40001
1.40001
1.40001
1.40001
1.40001
1.40001
1.40001
1.40001
1.40001
1.40001
1.40001
1.40001
1.40001
1.40001
1.40001
1.40001
1.40001
1.40001
1.40001
1.40001
1.40001
1.50616
4.29175
5.41649
5.41987
5.44055
5.46029
5.48123
5.4997
5.51618
5.53216
5.54826
5.56437
5.58133
5.5985
5.6148
5.6299
5.64361
5.65587
5.66788
5.6799
5.69257
5.70532
5.71814
5.73039
5.74234
5.75366
5.76334
5.7713
5.77804
5.78446
5.7908
5.79665
5.80159
5.80505
5.80725
5.80928
5.81276
5.81764
5.82222
5.82474
5.82311
5.81376
5.79554
5.77255
5.75496
5.74981
1.40001
1.40001
1.40001
1.40001
1.40001
1.40001
1.40001
1.40001
1.40001
1.40001
1.40001
1.40001
1.40001
1.40001
1.40001
1.40001
1.40001
1.40001
1.40001
1.40001
1.40001
1.40001
1.40001
1.40001
1.40001
1.40001
1.40001
1.40001
1.40001
1.40001
1.40001
1.40001
1.40001
1.40001
1.40001
1.40001
1.40001
1.40001
1.40001
1.40001
1.40001
1.40001
1.40001
1.40001
1.40001
1.40001
1.40001
1.40001
1.40001
1.40001
1.40632
3.99776
5.36814
5.39895
5.4229
5.44614
5.46782
5.48651
5.50279
5.51891
5.53573
5.55284
5.57069
5.58848
5.60504
5.62012
5.63379
5.64586
5.65736
5.66865
5.68052
5.69275
5.70514
5.71722
5.72901
5.74028
5.74997
5.75779
5.76415
5.76991
5.77541
5.78046
5.78482
5.7879
5.78969
5.7912
5.79417
5.79879
5.80328
5.80562
5.80367
5.79394
5.77546
5.75223
5.73455
5.7294
1.40001
1.40001
1.40001
1.40001
1.40001
1.40001
1.40001
1.40001
1.40001
1.40001
1.40001
1.40001
1.40001
1.40001
1.40001
1.40001
1.40001
1.40001
1.40001
1.40001
1.40001
1.40001
1.40001
1.40001
1.40001
1.40001
1.40001
1.40001
1.40001
1.40001
1.40001
1.40001
1.40001
1.40001
1.40001
1.40001
1.40001
1.40001
1.40001
1.40001
1.40001
1.40001
1.40001
1.40001
1.40001
1.40001
1.40001
1.40001
1.40001
1.40001
1.40005
3.65865
5.29713
5.37258
5.4041
5.43264
5.45595
5.47513
5.49117
5.50694
5.52388
5.54148
5.55961
5.57751
5.59395
5.60875
5.62238
5.63448
5.6457
5.65625
5.66694
5.67816
5.68973
5.70152
5.71333
5.72493
5.73496
5.74279
5.74873
5.75375
5.75842
5.76279
5.76668
5.76946
5.7708
5.77163
5.77387
5.77807
5.78243
5.78464
5.7824
5.7722
5.75321
5.72951
5.71169
5.70636
1.40001
1.40001
1.40001
1.40001
1.40001
1.40001
1.40001
1.40001
1.40001
1.40001
1.40001
1.40001
1.40001
1.40001
1.40001
1.40001
1.40001
1.40001
1.40001
1.40001
1.40001
1.40001
1.40001
1.40001
1.40001
1.40001
1.40001
1.40001
1.40001
1.40001
1.40001
1.40001
1.40001
1.40001
1.40001
1.40001
1.40001
1.40001
1.40001
1.40001
1.40001
1.40001
1.40001
1.40001
1.40001
1.40001
1.40001
1.40001
1.40001
1.40001
1.4
3.28348
5.23472
5.36012
5.39017
5.41898
5.44209
5.46099
5.47684
5.49255
5.50989
5.52795
5.54604
5.56383
5.58036
5.59536
5.60952
5.62219
5.63344
5.64344
5.65284
5.66266
5.67306
5.68433
5.6962
5.70836
5.71885
5.72658
5.73178
5.73574
5.73945
5.74329
5.7469
5.74954
5.7504
5.75041
5.7516
5.75504
5.75905
5.76108
5.75862
5.74811
5.72862
5.70435
5.68626
5.68062
1.40001
1.40001
1.40001
1.40001
1.40001
1.40001
1.40001
1.40001
1.40001
1.40001
1.40001
1.40001
1.40001
1.40001
1.40001
1.40001
1.40001
1.40001
1.40001
1.40001
1.40001
1.40001
1.40001
1.40001
1.40001
1.40001
1.40001
1.40001
1.40001
1.40001
1.40001
1.40001
1.40001
1.40001
1.40001
1.40001
1.40001
1.40001
1.40001
1.40001
1.40001
1.40001
1.40001
1.40001
1.40001
1.40001
1.40001
1.40001
1.40001
1.40001
1.40001
2.88739
5.15831
5.35716
5.38819
5.41442
5.435
5.45289
5.46896
5.48464
5.50102
5.51768
5.53426
5.55069
5.56643
5.58099
5.59522
5.60823
5.61943
5.62892
5.63706
5.64549
5.6549
5.66576
5.67768
5.69026
5.70107
5.7086
5.71291
5.71568
5.71834
5.72172
5.72518
5.72771
5.72813
5.7274
5.72745
5.72985
5.73319
5.73492
5.73228
5.72149
5.70137
5.67617
5.65739
5.65104
1.40001
1.40001
1.40001
1.40001
1.40001
1.40001
1.40001
1.40001
1.40001
1.40001
1.40001
1.40001
1.40001
1.40001
1.40001
1.40001
1.40001
1.40001
1.40001
1.40001
1.40001
1.40001
1.40001
1.40001
1.40001
1.40001
1.40001
1.40001
1.40001
1.40001
1.40001
1.40001
1.40001
1.40001
1.40001
1.40001
1.40001
1.40001
1.40001
1.40001
1.40001
1.40001
1.40001
1.40001
1.40001
1.40001
1.40001
1.40001
1.40001
1.40001
1.40001
2.4937
5.03563
5.38274
5.39478
5.41479
5.43183
5.44821
5.46413
5.48004
5.49584
5.51103
5.52558
5.53983
5.55431
5.56822
5.582
5.59479
5.60563
5.61459
5.62159
5.62852
5.63683
5.64712
5.65881
5.6714
5.6822
5.68932
5.69263
5.69404
5.69535
5.69799
5.70125
5.70375
5.70385
5.70221
5.70102
5.70212
5.70419
5.70518
5.70223
5.69131
5.67068
5.64458
5.625
5.61787
1.40001
1.40001
1.40001
1.40001
1.40001
1.40001
1.40001
1.40001
1.40001
1.40001
1.40001
1.40001
1.40001
1.40001
1.40001
1.40001
1.40001
1.40001
1.40001
1.40001
1.40001
1.40001
1.40001
1.40001
1.40001
1.40001
1.40001
1.40001
1.40001
1.40001
1.40001
1.40001
1.40001
1.40001
1.40001
1.40001
1.40001
1.40001
1.40001
1.40001
1.40001
1.40001
1.40001
1.40001
1.40001
1.40001
1.40001
1.40001
1.40001
1.40001
1.40001
2.09531
4.85661
5.43109
5.42139
5.4333
5.44497
5.45701
5.46979
5.48338
5.49655
5.50862
5.52012
5.53158
5.54407
5.55702
5.57025
5.58254
5.59266
5.60087
5.60686
5.61234
5.6194
5.62888
5.64003
5.65209
5.66248
5.669
5.67128
5.67123
5.67094
5.67243
5.67518
5.67748
5.67717
5.67463
5.67219
5.6717
5.6723
5.67229
5.66881
5.65754
5.63601
5.60848
5.58754
5.57919
1.40001
1.40001
1.40001
1.40001
1.40001
1.40001
1.40001
1.40001
1.40001
1.40001
1.40001
1.40001
1.40001
1.40001
1.40001
1.40001
1.40001
1.40001
1.40001
1.40001
1.40001
1.40001
1.40001
1.40001
1.40001
1.40001
1.40001
1.40001
1.40001
1.40001
1.40001
1.40001
1.40001
1.40001
1.40001
1.40001
1.40001
1.40001
1.40001
1.40001
1.40001
1.40001
1.40001
1.40001
1.40001
1.40001
1.40001
1.40001
1.40001
1.40001
1.40001
1.71663
4.65222
5.48165
5.42916
5.43822
5.44691
5.45848
5.47193
5.48593
5.49848
5.50895
5.51804
5.52681
5.53697
5.54859
5.56065
5.57191
5.58093
5.58803
5.59301
5.59709
5.60272
5.61099
5.62115
5.63219
5.64178
5.64747
5.64895
5.64742
5.64555
5.64559
5.64725
5.64886
5.648
5.64449
5.64058
5.63831
5.63686
5.63499
5.63003
5.61808
5.59577
5.56707
5.54489
5.53566
1.40001
1.40001
1.40001
1.40001
1.40001
1.40001
1.40001
1.40001
1.40001
1.40001
1.40001
1.40001
1.40001
1.40001
1.40001
1.40001
1.40001
1.40001
1.40001
1.40001
1.40001
1.40001
1.40001
1.40001
1.40001
1.40001
1.40001
1.40001
1.40001
1.40001
1.40001
1.40001
1.40001
1.40001
1.40001
1.40001
1.40001
1.40001
1.40001
1.40001
1.40001
1.40001
1.40001
1.40001
1.40001
1.40001
1.40001
1.40001
1.40001
1.40001
1.40001
1.43889
4.28837
5.44256
5.40857
5.42688
5.44267
5.45705
5.46985
5.48263
5.49515
5.50686
5.51651
5.52421
5.5322
5.54209
5.55277
5.56291
5.57075
5.5764
5.5803
5.583
5.58702
5.59353
5.60218
5.61166
5.62002
5.62485
5.6257
5.62283
5.61935
5.61776
5.61794
5.61821
5.61632
5.61144
5.60589
5.60161
5.59784
5.59379
5.58697
5.57375
5.54989
5.51882
5.49424
5.4831
1.40001
1.40001
1.40001
1.40001
1.40001
1.40001
1.40001
1.40001
1.40001
1.40001
1.40001
1.40001
1.40001
1.40001
1.40001
1.40001
1.40001
1.40001
1.40001
1.40001
1.40001
1.40001
1.40001
1.40001
1.40001
1.40001
1.40001
1.40001
1.40001
1.40001
1.40001
1.40001
1.40001
1.40001
1.40001
1.40001
1.40001
1.40001
1.40001
1.40001
1.40001
1.40001
1.40001
1.40001
1.40001
1.40001
1.40001
1.40001
1.40001
1.40001
1.40001
1.40045
3.79739
5.30882
5.35783
5.3934
5.41959
5.44184
5.45979
5.47429
5.48771
5.49979
5.51002
5.51892
5.52725
5.53634
5.54571
5.55457
5.56136
5.56569
5.56854
5.56997
5.57238
5.57669
5.58327
5.59069
5.59745
5.60129
5.60133
5.59723
5.59238
5.58902
5.58731
5.58561
5.582
5.57542
5.56792
5.56115
5.55448
5.5473
5.53699
5.52041
5.4945
5.46139
5.43484
5.42299
1.40001
1.40001
1.40001
1.40001
1.40001
1.40001
1.40001
1.40001
1.40001
1.40001
1.40001
1.40001
1.40001
1.40001
1.40001
1.40001
1.40001
1.40001
1.40001
1.40001
1.40001
1.40001
1.40001
1.40001
1.40001
1.40001
1.40001
1.40001
1.40001
1.40001
1.40001
1.40001
1.40001
1.40001
1.40001
1.40001
1.40001
1.40001
1.40001
1.40001
1.40001
1.40001
1.40001
1.40001
1.40001
1.40001
1.40001
1.40001
1.40001
1.40001
1.40001
1.4
3.3154
5.21098
5.31547
5.36388
5.39832
5.42085
5.43918
5.45449
5.46978
5.48508
5.49916
5.50995
5.51854
5.52746
5.53644
5.54484
5.55132
5.55492
5.55692
5.55739
5.55844
5.56056
5.56469
5.56974
5.5745
5.57716
5.57598
5.57089
5.56464
5.55948
5.55554
5.55139
5.54547
5.53668
5.52646
5.51628
5.50624
5.49546
5.48114
5.4607
5.4317
5.39381
5.36157
5.34497
1.40001
1.40001
1.40001
1.40001
1.40001
1.40001
1.40001
1.40001
1.40001
1.40001
1.40001
1.40001
1.40001
1.40001
1.40001
1.40001
1.40001
1.40001
1.40001
1.40001
1.40001
1.40001
1.40001
1.40001
1.40001
1.40001
1.40001
1.40001
1.40001
1.40001
1.40001
1.40001
1.40001
1.40001
1.40001
1.40001
1.40001
1.40001
1.40001
1.40001
1.40001
1.40001
1.40001
1.40001
1.40001
1.40001
1.40001
1.40001
1.40001
1.40001
1.40001
1.4
2.81912
5.05601
5.3117
5.35327
5.38174
5.40412
5.42176
5.43651
5.451
5.46576
5.48046
5.49372
5.50485
5.51486
5.52366
5.53166
5.53833
5.54235
5.54406
5.54417
5.54423
5.54462
5.54643
5.54905
5.55157
5.55251
5.54983
5.54366
5.53599
5.52893
5.52231
5.51532
5.50661
5.49496
5.4813
5.46721
5.45292
5.43722
5.41677
5.38846
5.35098
5.30672
5.26876
5.25203
1.40001
1.40001
1.40001
1.40001
1.40001
1.40001
1.40001
1.40001
1.40001
1.40001
1.40001
1.40001
1.40001
1.40001
1.40001
1.40001
1.40001
1.40001
1.40001
1.40001
1.40001
1.40001
1.40001
1.40001
1.40001
1.40001
1.40001
1.40001
1.40001
1.40001
1.40001
1.40001
1.40001
1.40001
1.40001
1.40001
1.40001
1.40001
1.40001
1.40001
1.40001
1.40001
1.40001
1.40001
1.40001
1.40001
1.40001
1.40001
1.40001
1.40001
1.40001
1.40001
2.31348
4.89056
5.3594
5.3638
5.37709
5.39266
5.40717
5.42091
5.4335
5.44682
5.46133
5.47533
5.48711
5.49705
5.50603
5.51403
5.5215
5.52638
5.5284
5.52886
5.52838
5.52787
5.52774
5.52823
5.52858
5.52752
5.52321
5.51571
5.50658
5.49743
5.48785
5.47776
5.46576
5.45064
5.43283
5.41385
5.39378
5.3713
5.34344
5.30644
5.25958
5.2064
5.15203
5.11437
1.40001
1.40001
1.40001
1.40001
1.40001
1.40001
1.40001
1.40001
1.40001
1.40001
1.40001
1.40001
1.40001
1.40001
1.40001
1.40001
1.40001
1.40001
1.40001
1.40001
1.40001
1.40001
1.40001
1.40001
1.40001
1.40001
1.40001
1.40001
1.40001
1.40001
1.40001
1.40001
1.40001
1.40001
1.40001
1.40001
1.40001
1.40001
1.40001
1.40001
1.40001
1.40001
1.40001
1.40001
1.40001
1.40001
1.40001
1.40001
1.40001
1.40001
1.40001
1.40001
1.8101
4.72868
5.43961
5.38607
5.38735
5.39415
5.4021
5.40908
5.41782
5.42925
5.44256
5.45615
5.46824
5.47841
5.48704
5.49458
5.50109
5.50691
5.50977
5.51085
5.51012
5.50937
5.50809
5.50683
5.50512
5.50201
5.49614
5.48709
5.47623
5.46452
5.45187
5.43842
5.42277
5.40368
5.38107
5.35616
5.32899
5.29824
5.2605
5.21029
5.14259
5.05841
4.97545
4.92052
1.40001
1.40001
1.40001
1.40001
1.40001
1.40001
1.40001
1.40001
1.40001
1.40001
1.40001
1.40001
1.40001
1.40001
1.40001
1.40001
1.40001
1.40001
1.40001
1.40001
1.40001
1.40001
1.40001
1.40001
1.40001
1.40001
1.40001
1.40001
1.40001
1.40001
1.40001
1.40001
1.40001
1.40001
1.40001
1.40001
1.40001
1.40001
1.40001
1.40001
1.40001
1.40001
1.40001
1.40001
1.40001
1.40001
1.40001
1.40001
1.40001
1.40001
1.40001
1.40001
1.44312
4.2866
5.43062
5.39236
5.39249
5.39565
5.40088
5.40506
5.41018
5.4178
5.4278
5.4389
5.44951
5.45893
5.46716
5.47435
5.48018
5.48525
5.48866
5.49005
5.48897
5.48801
5.48628
5.4837
5.48022
5.47532
5.46802
5.45761
5.4449
5.43037
5.41463
5.39759
5.378
5.35454
5.32656
5.29478
5.25901
5.21751
5.16564
5.09703
5.00665
4.89206
4.76418
4.67671
1.40001
1.40001
1.40001
1.40001
1.40001
1.40001
1.40001
1.40001
1.40001
1.40001
1.40001
1.40001
1.40001
1.40001
1.40001
1.40001
1.40001
1.40001
1.40001
1.40001
1.40001
1.40001
1.40001
1.40001
1.40001
1.40001
1.40001
1.40001
1.40001
1.40001
1.40001
1.40001
1.40001
1.40001
1.40001
1.40001
1.40001
1.40001
1.40001
1.40001
1.40001
1.40001
1.40001
1.40001
1.40001
1.40001
1.40001
1.40001
1.40001
1.40001
1.40001
1.40001
1.40021
3.6672
5.26189
5.32501
5.36352
5.38296
5.39355
5.39993
5.40539
5.41092
5.41768
5.42553
5.43353
5.44112
5.44802
5.45415
5.45908
5.46329
5.46658
5.46758
5.46589
5.46415
5.46208
5.45861
5.45369
5.44724
5.43864
5.42694
5.41223
5.39501
5.37604
5.35517
5.33139
5.30323
5.26948
5.23009
5.18438
5.1304
5.06288
4.97425
4.85068
4.6626
4.30072
3.39863
1.40001
1.40001
1.40001
1.40001
1.40001
1.40001
1.40001
1.40001
1.40001
1.40001
1.40001
1.40001
1.40001
1.40001
1.40001
1.40001
1.40001
1.40001
1.40001
1.40001
1.40001
1.40001
1.40001
1.40001
1.40001
1.40001
1.40001
1.40001
1.40001
1.40001
1.40001
1.40001
1.40001
1.40001
1.40001
1.40001
1.40001
1.40001
1.40001
1.40001
1.40001
1.40001
1.40001
1.40001
1.40001
1.40001
1.40001
1.40001
1.40001
1.40001
1.40001
1.40001
1.4
3.06622
5.10807
5.30598
5.34526
5.37026
5.38271
5.38989
5.39732
5.40343
5.40933
5.41523
5.42085
5.42613
5.43097
5.43524
5.43862
5.44116
5.44357
5.44399
5.44135
5.43823
5.43516
5.4311
5.42525
5.41749
5.40769
5.39457
5.3779
5.35829
5.33617
5.31143
5.28327
5.25016
5.21035
5.163
5.10676
5.03913
4.9538
4.83847
4.67234
4.40522
3.98073
2.96804
1.40001
1.40001
1.40001
1.40001
1.40001
1.40001
1.40001
1.40001
1.40001
1.40001
1.40001
1.40001
1.40001
1.40001
1.40001
1.40001
1.40001
1.40001
1.40001
1.40001
1.40001
1.40001
1.40001
1.40001
1.40001
1.40001
1.40001
1.40001
1.40001
1.40001
1.40001
1.40001
1.40001
1.40001
1.40001
1.40001
1.40001
1.40001
1.40001
1.40001
1.40001
1.40001
1.40001
1.40001
1.40001
1.40001
1.40001
1.40001
1.40001
1.40001
1.40001
1.40001
1.4
2.46557
4.91099
5.32094
5.3403
5.35743
5.36991
5.38068
5.38889
5.39516
5.40079
5.40587
5.41022
5.41379
5.41666
5.41889
5.42028
5.42073
5.42145
5.42018
5.41628
5.41156
5.40684
5.40176
5.39534
5.38665
5.37541
5.36055
5.34199
5.32004
5.29492
5.26648
5.23392
5.19573
5.14974
5.09442
5.02763
4.94638
4.84305
4.70602
4.5052
4.22684
3.67473
2.84362
1.40001
1.40001
1.40001
1.40001
1.40001
1.40001
1.40001
1.40001
1.40001
1.40001
1.40001
1.40001
1.40001
1.40001
1.40001
1.40001
1.40001
1.40001
1.40001
1.40001
1.40001
1.40001
1.40001
1.40001
1.40001
1.40001
1.40001
1.40001
1.40001
1.40001
1.40001
1.40001
1.40001
1.40001
1.40001
1.40001
1.40001
1.40001
1.40001
1.40001
1.40001
1.40001
1.40001
1.40001
1.40001
1.40001
1.40001
1.40001
1.40001
1.40001
1.40001
1.40001
1.4
1.88068
4.74467
5.37873
5.34056
5.34547
5.358
5.36938
5.37789
5.38417
5.38932
5.39393
5.39801
5.40123
5.40324
5.40411
5.40383
5.40224
5.40029
5.39646
5.39072
5.38401
5.37741
5.37102
5.36392
5.3543
5.34155
5.32496
5.30445
5.28023
5.25235
5.22048
5.18368
5.14045
5.08835
5.02547
4.94878
4.85543
4.73636
4.58236
4.36243
4.04578
3.51083
2.8275
1.40001
1.40001
1.40001
1.40001
1.40001
1.40001
1.40001
1.40001
1.40001
1.40001
1.40001
1.40001
1.40001
1.40001
1.40001
1.40001
1.40001
1.40001
1.40001
1.40001
1.40001
1.40001
1.40001
1.40001
1.40001
1.40001
1.40001
1.40001
1.40001
1.40001
1.40001
1.40001
1.40001
1.40001
1.40001
1.40001
1.40001
1.40001
1.40001
1.40001
1.40001
1.40001
1.40001
1.40001
1.40001
1.40001
1.40001
1.40001
1.40001
1.40001
1.40001
1.40001
1.40001
1.45688
4.24491
5.3786
5.34142
5.34052
5.34905
5.35856
5.36558
5.37079
5.37502
5.379
5.38301
5.38664
5.38897
5.38976
5.3886
5.38558
5.38104
5.37435
5.36615
5.35706
5.34821
5.34006
5.33178
5.32115
5.3069
5.28845
5.26582
5.2393
5.20874
5.1737
5.13291
5.08496
5.02716
4.95752
4.8723
4.76857
4.63776
4.46844
4.2408
3.91199
3.43677
2.8877
1.40001
1.40001
1.40001
1.40001
1.40001
1.40001
1.40001
1.40001
1.40001
1.40001
1.40001
1.40001
1.40001
1.40001
1.40001
1.40001
1.40001
1.40001
1.40001
1.40001
1.40001
1.40001
1.40001
1.40001
1.40001
1.40001
1.40001
1.40001
1.40001
1.40001
1.40001
1.40001
1.40001
1.40001
1.40001
1.40001
1.40001
1.40001
1.40001
1.40001
1.40001
1.40001
1.40001
1.40001
1.40001
1.40001
1.40001
1.40001
1.40001
1.40001
1.40001
1.40001
1.40001
1.40035
3.53641
5.19011
5.28716
5.31801
5.33572
5.34557
5.35213
5.35648
5.35949
5.36239
5.36583
5.3696
5.37245
5.37363
5.37244
5.36898
5.36286
5.35378
5.34296
5.33164
5.3202
5.30965
5.29937
5.28727
5.27147
5.25115
5.22628
5.19745
5.16438
5.12647
5.08202
5.02981
4.96689
4.89143
4.79945
4.68754
4.54862
4.37065
4.13975
3.82367
3.41704
2.96334
1.40001
1.40001
1.40001
1.40001
1.40001
1.40001
1.40001
1.40001
1.40001
1.40001
1.40001
1.40001
1.40001
1.40001
1.40001
1.40001
1.40001
1.40001
1.40001
1.40001
1.40001
1.40001
1.40001
1.40001
1.40001
1.40001
1.40001
1.40001
1.40001
1.40001
1.40001
1.40001
1.40001
1.40001
1.40001
1.40001
1.40001
1.40001
1.40001
1.40001
1.40001
1.40001
1.40001