/*--------------------------------*- C++ -*----------------------------------*\
  =========                 |
  \\      /  F ield         | OpenFOAM: The Open Source CFD Toolbox
   \\    /   O peration     | Website:  https://openfoam.org
    \\  /    A nd           | Version:  7
     \\/     M anipulation  |
\*---------------------------------------------------------------------------*/
FoamFile
{
    version     2.0;
    format      ascii;
    class       volScalarField;
    location    "2";
    object      T;
}
// * * * * * * * * * * * * * * * * * * * * * * * * * * * * * * * * * * * * * //

dimensions      [0 0 0 1 0 0 0];

internalField   nonuniform List<scalar> 
64512
(
1
1
1
1
1
1
1
1
1
1
1
1
1
1
1
1
1
1
1
1
1
1
1
1
1
1
1
1
1
1
1
1
1
1
1
1
1
1
1
1
1
1
1
1
1
1
1
1
1
1
2.23008
2.67636
2.69616
2.70611
2.71565
2.72403
2.73124
2.73676
2.74057
2.74266
2.74324
2.74303
2.74303
2.74413
2.74776
2.75465
2.76392
2.77307
2.77943
2.78197
2.78195
2.78175
2.78239
2.78465
2.78852
2.79281
2.79607
2.79758
2.79778
2.79753
2.79758
2.79898
2.80235
2.80716
2.81231
2.81652
2.81886
2.81935
2.8195
2.82068
2.82464
2.83183
2.8422
2.85441
2.86357
2.86687
1
1
1
1
1
1
1
1
1
1
1
1
1
1
1
1
1
1
1
1
1
1
1
1
1
1
1
1
1
1
1
1
1
1
1
1
1
1
1
1
1
1
1
1
1
1
1
1
1
1
2.22591
2.67622
2.69612
2.70604
2.71563
2.72397
2.7311
2.73656
2.74032
2.74239
2.74295
2.7427
2.74269
2.74385
2.74759
2.75456
2.76387
2.77302
2.77935
2.78182
2.7818
2.78162
2.78229
2.78457
2.78843
2.79269
2.7959
2.7974
2.79759
2.79737
2.79746
2.7989
2.80226
2.80701
2.81211
2.8163
2.81864
2.81921
2.81943
2.82064
2.8245
2.83156
2.84194
2.85413
2.86328
2.86663
1
1
1
1
1
1
1
1
1
1
1
1
1
1
1
1
1
1
1
1
1
1
1
1
1
1
1
1
1
1
1
1
1
1
1
1
1
1
1
1
1
1
1
1
1
1
1
1
1
1
2.21552
2.67613
2.69594
2.70587
2.71564
2.72396
2.73096
2.73629
2.73996
2.74201
2.74257
2.74235
2.74237
2.74358
2.74739
2.75439
2.76371
2.77281
2.77911
2.78153
2.78153
2.78137
2.78206
2.78437
2.78823
2.79245
2.79561
2.79705
2.79722
2.79703
2.79722
2.79877
2.80215
2.80685
2.81188
2.81598
2.81825
2.81887
2.81919
2.82054
2.82436
2.83129
2.84169
2.85381
2.86286
2.8662
1
1
1
1
1
1
1
1
1
1
1
1
1
1
1
1
1
1
1
1
1
1
1
1
1
1
1
1
1
1
1
1
1
1
1
1
1
1
1
1
1
1
1
1
1
1
1
1
1
1
2.1989
2.67605
2.69572
2.7057
2.71559
2.7239
2.73076
2.73597
2.73958
2.74161
2.74221
2.74206
2.74216
2.74342
2.74719
2.75413
2.76333
2.7723
2.77857
2.78105
2.78117
2.78103
2.78172
2.78403
2.78786
2.79203
2.79512
2.79649
2.79665
2.7965
2.7968
2.79848
2.80192
2.80658
2.81156
2.81558
2.81778
2.81841
2.8188
2.82029
2.82408
2.83088
2.84132
2.85336
2.86227
2.86559
1
1
1
1
1
1
1
1
1
1
1
1
1
1
1
1
1
1
1
1
1
1
1
1
1
1
1
1
1
1
1
1
1
1
1
1
1
1
1
1
1
1
1
1
1
1
1
1
1
1
2.17659
2.67625
2.69531
2.70513
2.71495
2.72331
2.73027
2.73555
2.73922
2.74132
2.74202
2.74197
2.74215
2.74342
2.74705
2.7537
2.76258
2.77132
2.77764
2.78033
2.7807
2.78062
2.78131
2.78357
2.78734
2.79144
2.79447
2.79579
2.79592
2.79581
2.79619
2.79799
2.80151
2.80618
2.81114
2.81513
2.81726
2.81786
2.81827
2.81987
2.82364
2.83037
2.84086
2.85283
2.86158
2.86484
1
1
1
1
1
1
1
1
1
1
1
1
1
1
1
1
1
1
1
1
1
1
1
1
1
1
1
1
1
1
1
1
1
1
1
1
1
1
1
1
1
1
1
1
1
1
1
1
1
1
2.14814
2.67722
2.69463
2.70388
2.71346
2.72193
2.72914
2.7348
2.73883
2.74116
2.742
2.74206
2.74231
2.74353
2.74685
2.75299
2.76136
2.76982
2.77627
2.77935
2.78008
2.78012
2.78082
2.78295
2.78656
2.79055
2.79352
2.79484
2.79498
2.79489
2.79532
2.79722
2.80082
2.80554
2.81055
2.81458
2.81668
2.81725
2.81761
2.81922
2.82299
2.82972
2.84026
2.8522
2.86082
2.864
1
1
1
1
1
1
1
1
1
1
1
1
1
1
1
1
1
1
1
1
1
1
1
1
1
1
1
1
1
1
1
1
1
1
1
1
1
1
1
1
1
1
1
1
1
1
1
1
1
1
2.11292
2.6787
2.69369
2.70192
2.71104
2.71962
2.72726
2.7335
2.73817
2.74099
2.74209
2.74233
2.74266
2.74375
2.74657
2.75201
2.7597
2.76784
2.77443
2.77798
2.77917
2.77943
2.78017
2.78214
2.78552
2.78937
2.79231
2.79368
2.79388
2.79384
2.79432
2.79625
2.7999
2.80468
2.80978
2.81392
2.81605
2.81661
2.81687
2.8184
2.82211
2.82884
2.83944
2.85138
2.85992
2.86306
1
1
1
1
1
1
1
1
1
1
1
1
1
1
1
1
1
1
1
1
1
1
1
1
1
1
1
1
1
1
1
1
1
1
1
1
1
1
1
1
1
1
1
1
1
1
1
1
1
1
2.06994
2.67957
2.69285
2.69962
2.70786
2.71633
2.72447
2.73149
2.73704
2.74063
2.74217
2.74266
2.74306
2.74394
2.74619
2.7508
2.75769
2.76543
2.77214
2.77621
2.77794
2.7785
2.77933
2.78114
2.78425
2.78791
2.79083
2.7923
2.79264
2.79268
2.79319
2.79508
2.79871
2.80354
2.80874
2.81302
2.81524
2.81583
2.81603
2.81742
2.82102
2.82774
2.83837
2.85036
2.85891
2.86205
1
1
1
1
1
1
1
1
1
1
1
1
1
1
1
1
1
1
1
1
1
1
1
1
1
1
1
1
1
1
1
1
1
1
1
1
1
1
1
1
1
1
1
1
1
1
1
1
1
1
2.01781
2.67834
2.6926
2.69764
2.7047
2.71261
2.72086
2.72863
2.7352
2.73987
2.74213
2.74289
2.74336
2.74402
2.74568
2.74941
2.75542
2.76268
2.76946
2.77407
2.7764
2.77734
2.77827
2.77991
2.7827
2.78613
2.78902
2.79064
2.79118
2.79138
2.79195
2.79376
2.79731
2.80219
2.80749
2.81189
2.81425
2.81494
2.81511
2.81637
2.81981
2.82642
2.83703
2.84905
2.85769
2.86087
1
1
1
1
1
1
1
1
1
1
1
1
1
1
1
1
1
1
1
1
1
1
1
1
1
1
1
1
1
1
1
1
1
1
1
1
1
1
1
1
1
1
1
1
1
1
1
1
1
1
1.95521
2.67246
2.69334
2.69669
2.70223
2.70918
2.71701
2.72503
2.73245
2.73829
2.74159
2.7429
2.74355
2.74409
2.74525
2.74814
2.75322
2.75984
2.76654
2.77156
2.77448
2.77582
2.77687
2.77836
2.78084
2.78402
2.7869
2.78874
2.78956
2.78997
2.79063
2.79237
2.79584
2.80072
2.80607
2.81053
2.81302
2.81383
2.81401
2.81519
2.81846
2.82489
2.83542
2.84747
2.85621
2.85945
1
1
1
1
1
1
1
1
1
1
1
1
1
1
1
1
1
1
1
1
1
1
1
1
1
1
1
1
1
1
1
1
1
1
1
1
1
1
1
1
1
1
1
1
1
1
1
1
1
1
1.8818
2.65887
2.69514
2.69687
2.70088
2.70653
2.71354
2.72128
2.72911
2.73592
2.74036
2.74251
2.74342
2.74385
2.74457
2.74671
2.75088
2.75682
2.7633
2.76866
2.77216
2.77395
2.77518
2.77657
2.77879
2.78174
2.7846
2.78663
2.78772
2.78833
2.78909
2.79084
2.79426
2.79912
2.80448
2.80898
2.81157
2.81247
2.8127
2.81386
2.81698
2.8232
2.83361
2.84565
2.85449
2.85777
1
1
1
1
1
1
1
1
1
1
1
1
1
1
1
1
1
1
1
1
1
1
1
1
1
1
1
1
1
1
1
1
1
1
1
1
1
1
1
1
1
1
1
1
1
1
1
1
1
1
1.79879
2.63789
2.69737
2.69755
2.70029
2.7046
2.71051
2.71754
2.72517
2.73252
2.73802
2.74118
2.74267
2.74322
2.74374
2.74534
2.7487
2.75388
2.76002
2.76556
2.76957
2.77181
2.77321
2.77451
2.77647
2.77922
2.78205
2.78425
2.78559
2.78643
2.78736
2.7892
2.79263
2.79747
2.80279
2.80728
2.8099
2.81086
2.81113
2.81228
2.81527
2.82131
2.83158
2.84358
2.85247
2.85579
1
1
1
1
1
1
1
1
1
1
1
1
1
1
1
1
1
1
1
1
1
1
1
1
1
1
1
1
1
1
1
1
1
1
1
1
1
1
1
1
1
1
1
1
1
1
1
1
1
1
1.70589
2.61152
2.69826
2.69793
2.69982
2.703
2.70775
2.71385
2.721
2.72842
2.73461
2.73873
2.74105
2.74205
2.74265
2.74397
2.74668
2.75111
2.75675
2.76227
2.7666
2.76925
2.77087
2.77215
2.77397
2.77659
2.77941
2.78174
2.78329
2.78433
2.78544
2.7874
2.79088
2.79571
2.80096
2.8054
2.808
2.80897
2.80928
2.8104
2.81329
2.8192
2.82935
2.84131
2.85018
2.8535
1
1
1
1
1
1
1
1
1
1
1
1
1
1
1
1
1
1
1
1
1
1
1
1
1
1
1
1
1
1
1
1
1
1
1
1
1
1
1
1
1
1
1
1
1
1
1
1
1
1
1.59982
2.57846
2.69756
2.69737
2.69909
2.70146
2.70516
2.71024
2.71668
2.72385
2.73039
2.73528
2.73847
2.74018
2.74113
2.74242
2.74469
2.74843
2.75348
2.75879
2.76332
2.76634
2.76825
2.76962
2.7714
2.77392
2.7767
2.77912
2.78083
2.78208
2.78339
2.7855
2.78904
2.79384
2.79901
2.80335
2.80592
2.80687
2.80715
2.80821
2.811
2.81681
2.82688
2.83879
2.84759
2.85089
1
1
1
1
1
1
1
1
1
1
1
1
1
1
1
1
1
1
1
1
1
1
1
1
1
1
1
1
1
1
1
1
1
1
1
1
1
1
1
1
1
1
1
1
1
1
1
1
1
1
1.48157
2.53742
2.69471
2.69501
2.69718
2.69932
2.70244
2.70678
2.71247
2.71914
2.72567
2.73102
2.73494
2.73744
2.73899
2.74051
2.7426
2.74579
2.75022
2.75517
2.75974
2.7631
2.76537
2.76697
2.76879
2.77123
2.77393
2.77639
2.77827
2.77973
2.78126
2.7835
2.78703
2.79176
2.79681
2.80106
2.80361
2.80453
2.80476
2.80571
2.80837
2.81409
2.82412
2.83601
2.84473
2.848
1
1
1
1
1
1
1
1
1
1
1
1
1
1
1
1
1
1
1
1
1
1
1
1
1
1
1
1
1
1
1
1
1
1
1
1
1
1
1
1
1
1
1
1
1
1
1
1
1
1
1.35265
2.4859
2.6905
2.69041
2.69391
2.69646
2.69962
2.70361
2.70873
2.71478
2.72097
2.72641
2.7308
2.73402
2.7363
2.73827
2.74041
2.74322
2.74704
2.75151
2.75596
2.75958
2.76224
2.76414
2.76606
2.76841
2.77101
2.77352
2.77556
2.77727
2.77901
2.78136
2.78487
2.78948
2.79439
2.79852
2.80103
2.8019
2.80205
2.80285
2.80535
2.81095
2.82096
2.83288
2.84158
2.84485
1
1
1
1
1
1
1
1
1
1
1
1
1
1
1
1
1
1
1
1
1
1
1
1
1
1
1
1
1
1
1
1
1
1
1
1
1
1
1
1
1
1
1
1
1
1
1
1
1
1
1.22188
2.4247
2.68608
2.68557
2.69005
2.69343
2.69714
2.70119
2.70596
2.7114
2.71698
2.72204
2.72649
2.73017
2.73314
2.73568
2.73806
2.74066
2.74391
2.74779
2.75196
2.75574
2.75879
2.76108
2.76317
2.76547
2.76798
2.77052
2.77278
2.77474
2.77669
2.7791
2.7825
2.7869
2.79159
2.79557
2.79804
2.79888
2.79896
2.79963
2.80196
2.80742
2.8174
2.8294
2.83815
2.84146
1
1
1
1
1
1
1
1
1
1
1
1
1
1
1
1
1
1
1
1
1
1
1
1
1
1
1
1
1
1
1
1
1
1
1
1
1
1
1
1
1
1
1
1
1
1
1
1
1
1
1.09295
2.35809
2.6826
2.68464
2.68901
2.69255
2.69648
2.70054
2.70493
2.70967
2.71446
2.71895
2.72308
2.72682
2.73016
2.73314
2.73582
2.73833
2.7411
2.74433
2.74806
2.75181
2.75515
2.75782
2.76011
2.76241
2.76486
2.76744
2.76992
2.77215
2.77428
2.77671
2.77994
2.78404
2.78846
2.79226
2.79469
2.79553
2.79558
2.79615
2.79829
2.80351
2.81338
2.82542
2.83428
2.83765
1
1
1
1
1
1
1
1
1
1
1
1
1
1
1
1
1
1
1
1
1
1
1
1
1
1
1
1
1
1
1
1
1
1
1
1
1
1
1
1
1
1
1
1
1
1
1
1
1
1
1.00388
2.2792
2.68436
2.68586
2.68883
2.6925
2.69632
2.70025
2.70434
2.70863
2.71291
2.7169
2.72069
2.72435
2.72786
2.73114
2.73405
2.7365
2.73888
2.74149
2.74465
2.74817
2.75163
2.7546
2.7571
2.75943
2.76182
2.76438
2.76697
2.76938
2.77163
2.77402
2.77704
2.78083
2.78493
2.78855
2.79095
2.79182
2.79185
2.79231
2.79424
2.79919
2.80889
2.82096
2.82997
2.83344
1
1
1
1
1
1
1
1
1
1
1
1
1
1
1
1
1
1
1
1
1
1
1
1
1
1
1
1
1
1
1
1
1
1
1
1
1
1
1
1
1
1
1
1
1
1
1
1
1
1
1.00002
2.17998
2.67856
2.68611
2.68963
2.69351
2.69718
2.70094
2.70484
2.7089
2.71286
2.71639
2.71973
2.72311
2.72648
2.7297
2.7326
2.73494
2.73699
2.7391
2.74169
2.74486
2.74825
2.75136
2.75399
2.75637
2.7587
2.7612
2.76382
2.76635
2.76867
2.77103
2.77384
2.7773
2.78107
2.78448
2.78683
2.78772
2.78774
2.78811
2.78981
2.79445
2.80389
2.81594
2.82511
2.82864
1
1
1
1
1
1
1
1
1
1
1
1
1
1
1
1
1
1
1
1
1
1
1
1
1
1
1
1
1
1
1
1
1
1
1
1
1
1
1
1
1
1
1
1
1
1
1
1
1
1
1
2.04976
2.66076
2.6854
2.68929
2.69347
2.69705
2.70055
2.70415
2.708
2.71189
2.71538
2.71863
2.72194
2.72526
2.72842
2.73127
2.73352
2.73534
2.73711
2.73926
2.74206
2.74525
2.74834
2.75099
2.75336
2.7556
2.75796
2.76049
2.763
2.76534
2.76765
2.77027
2.7734
2.77683
2.77999
2.78224
2.78311
2.78312
2.78341
2.78488
2.7892
2.79834
2.81032
2.81965
2.82324
1
1
1
1
1
1
1
1
1
1
1
1
1
1
1
1
1
1
1
1
1
1
1
1
1
1
1
1
1
1
1
1
1
1
1
1
1
1
1
1
1
1
1
1
1
1
1
1
1
1
1
1.89157
2.62607
2.6798
2.68688
2.69204
2.69578
2.69916
2.70254
2.70622
2.71016
2.71388
2.71735
2.72075
2.72401
2.72696
2.7296
2.7317
2.73335
2.73495
2.73685
2.73942
2.74246
2.74548
2.74805
2.75031
2.75238
2.75453
2.75687
2.7593
2.76159
2.76385
2.76627
2.7691
2.77217
2.77503
2.77713
2.77801
2.77802
2.77824
2.77946
2.78339
2.79216
2.804
2.81342
2.81699
1
1
1
1
1
1
1
1
1
1
1
1
1
1
1
1
1
1
1
1
1
1
1
1
1
1
1
1
1
1
1
1
1
1
1
1
1
1
1
1
1
1
1
1
1
1
1
1
1
1
1
1.71955
2.57503
2.67007
2.67944
2.68603
2.69032
2.69402
2.69768
2.70173
2.7062
2.71078
2.71507
2.71893
2.72235
2.72516
2.72752
2.72942
2.73099
2.73261
2.73449
2.73696
2.73991
2.74282
2.74523
2.74728
2.7491
2.75096
2.75305
2.75531
2.75748
2.75962
2.76182
2.76434
2.76706
2.76959
2.77148
2.77229
2.7723
2.7724
2.7733
2.77681
2.7852
2.79689
2.80639
2.80995
1
1
1
1
1
1
1
1
1
1
1
1
1
1
1
1
1
1
1
1
1
1
1
1
1
1
1
1
1
1
1
1
1
1
1
1
1
1
1
1
1
1
1
1
1
1
1
1
1
1
1
1.49721
2.49327
2.65934
2.66826
2.67644
2.68211
2.68655
2.69055
2.69487
2.69978
2.70528
2.71071
2.71547
2.71934
2.72223
2.72449
2.72632
2.72794
2.72974
2.73184
2.73439
2.73734
2.74017
2.7424
2.74418
2.74571
2.74725
2.74905
2.7511
2.75308
2.75502
2.75693
2.75909
2.76141
2.76363
2.76527
2.76592
2.76596
2.76595
2.76648
2.76951
2.77736
2.78877
2.79826
2.80173
1
1
1
1
1
1
1
1
1
1
1
1
1
1
1
1
1
1
1
1
1
1
1
1
1
1
1
1
1
1
1
1
1
1
1
1
1
1
1
1
1
1
1
1
1
1
1
1
1
1
1
1.23204
2.40431
2.65939
2.6565
2.66341
2.67048
2.67636
2.6812
2.68605
2.69156
2.69778
2.70421
2.70993
2.71447
2.71775
2.72012
2.72206
2.72389
2.72602
2.72851
2.7313
2.73434
2.73715
2.73925
2.7408
2.74204
2.74329
2.74486
2.74667
2.74846
2.75009
2.75165
2.75335
2.75522
2.75706
2.7584
2.75889
2.75875
2.75853
2.75871
2.76113
2.76836
2.77948
2.78899
2.79245
1
1
1
1
1
1
1
1
1
1
1
1
1
1
1
1
1
1
1
1
1
1
1
1
1
1
1
1
1
1
1
1
1
1
1
1
1
1
1
1
1
1
1
1
1
1
1
1
1
1
1
1.02633
2.33118
2.6616
2.65596
2.66041
2.66543
2.67011
2.67415
2.67844
2.68362
2.68987
2.69662
2.7028
2.70779
2.71153
2.71425
2.71652
2.71873
2.72127
2.72422
2.72734
2.73055
2.7334
2.7355
2.73689
2.73794
2.73901
2.74043
2.74194
2.74355
2.74489
2.746
2.74718
2.74849
2.74984
2.7508
2.75107
2.75073
2.75025
2.75012
2.75187
2.75821
2.76872
2.778
2.78126
1
1
1
1
1
1
1
1
1
1
1
1
1
1
1
1
1
1
1
1
1
1
1
1
1
1
1
1
1
1
1
1
1
1
1
1
1
1
1
1
1
1
1
1
1
1
1
1
1
1
1
1.00024
2.2198
2.65916
2.65869
2.66129
2.66467
2.66824
2.6719
2.6755
2.67935
2.68396
2.6894
2.69513
2.70019
2.70421
2.70726
2.7099
2.71254
2.71547
2.71883
2.72225
2.72566
2.72862
2.73086
2.73227
2.73325
2.73428
2.73559
2.73681
2.73824
2.73929
2.73996
2.74055
2.74123
2.74195
2.74243
2.7424
2.74177
2.74073
2.74
2.74092
2.74616
2.75598
2.76512
2.76844
1
1
1
1
1
1
1
1
1
1
1
1
1
1
1
1
1
1
1
1
1
1
1
1
1
1
1
1
1
1
1
1
1
1
1
1
1
1
1
1
1
1
1
1
1
1
1
1
1
1
1
1
2.06923
2.65869
2.6616
2.66479
2.66785
2.6701
2.67251
2.67484
2.67739
2.68062
2.68464
2.6889
2.69297
2.69671
2.69989
2.7028
2.70575
2.70891
2.71244
2.71602
2.71954
2.72266
2.72516
2.7268
2.72792
2.72901
2.73017
2.73124
2.73243
2.73321
2.73347
2.73349
2.73347
2.73341
2.73331
2.73286
2.7317
2.72991
2.72852
2.72868
2.7326
2.74108
2.74925
2.75179
1
1
1
1
1
1
1
1
1
1
1
1
1
1
1
1
1
1
1
1
1
1
1
1
1
1
1
1
1
1
1
1
1
1
1
1
1
1
1
1
1
1
1
1
1
1
1
1
1
1
1
1
1.87136
2.61687
2.6612
2.66575
2.66956
2.6727
2.67466
2.67598
2.67759
2.67944
2.68174
2.68454
2.68761
2.6907
2.69349
2.69618
2.69904
2.70213
2.70548
2.70893
2.71236
2.71555
2.71837
2.72041
2.72188
2.7231
2.72407
2.72503
2.72597
2.72648
2.72642
2.72598
2.72521
2.7243
2.72341
2.72232
2.72048
2.71771
2.71492
2.71356
2.71549
2.72196
2.72906
2.73184
1
1
1
1
1
1
1
1
1
1
1
1
1
1
1
1
1
1
1
1
1
1
1
1
1
1
1
1
1
1
1
1
1
1
1
1
1
1
1
1
1
1
1
1
1
1
1
1
1
1
1
1
1.61134
2.51953
2.65107
2.65917
2.66523
2.67026
2.67372
2.67601
2.67757
2.67897
2.68057
2.68241
2.6844
2.68652
2.68874
2.69092
2.69334
2.69589
2.6986
2.70156
2.7046
2.7077
2.71062
2.71311
2.71502
2.71641
2.71729
2.71811
2.71881
2.7191
2.71882
2.71795
2.71645
2.71464
2.71279
2.71077
2.70791
2.70377
2.69908
2.69605
2.69612
2.69979
2.70326
2.70165
1
1
1
1
1
1
1
1
1
1
1
1
1
1
1
1
1
1
1
1
1
1
1
1
1
1
1
1
1
1
1
1
1
1
1
1
1
1
1
1
1
1
1
1
1
1
1
1
1
1
1
1
1.28084
2.40125
2.64004
2.64405
2.65299
2.6612
2.66757
2.67212
2.67514
2.67717
2.67883
2.68049
2.68223
2.68407
2.68588
2.68753
2.68904
2.6908
2.69262
2.69474
2.697
2.69969
2.70248
2.70514
2.70734
2.7089
2.70985
2.7105
2.71093
2.71096
2.7105
2.70923
2.7071
2.7044
2.70143
2.69819
2.69401
2.6883
2.68143
2.67501
2.67024
2.66701
2.66409
2.65895
1
1
1
1
1
1
1
1
1
1
1
1
1
1
1
1
1
1
1
1
1
1
1
1
1
1
1
1
1
1
1
1
1
1
1
1
1
1
1
1
1
1
1
1
1
1
1
1
1
1
1
1
1.02205
2.30402
2.64236
2.63951
2.64271
2.6485
2.656
2.66313
2.66864
2.6724
2.67508
2.67732
2.67943
2.68153
2.68347
2.68503
2.68606
2.68694
2.68789
2.68905
2.69028
2.69215
2.69446
2.69689
2.69907
2.70071
2.7017
2.70215
2.70232
2.70213
2.7014
2.6998
2.69714
2.69359
2.68942
2.68471
2.67888
2.67114
2.66121
2.65004
2.63918
2.62899
2.62009
2.6171
1
1
1
1
1
1
1
1
1
1
1
1
1
1
1
1
1
1
1
1
1
1
1
1
1
1
1
1
1
1
1
1
1
1
1
1
1
1
1
1
1
1
1
1
1
1
1
1
1
1
1
1
1.0001
2.16835
2.63243
2.63207
2.63539
2.63994
2.64607
2.65295
2.65935
2.66442
2.66842
2.6718
2.67489
2.67781
2.68036
2.68224
2.68326
2.68377
2.6842
2.68461
2.68484
2.68567
2.68717
2.68898
2.69075
2.69219
2.69303
2.69321
2.69304
2.69255
2.69151
2.68958
2.68647
2.68214
2.67674
2.67039
2.66258
2.65245
2.63918
2.62288
2.60289
2.57419
2.51725
2.38185
1
1
1
1
1
1
1
1
1
1
1
1
1
1
1
1
1
1
1
1
1
1
1
1
1
1
1
1
1
1
1
1
1
1
1
1
1
1
1
1
1
1
1
1
1
1
1
1
1
1
1
1
0.999999
1.97276
2.61843
2.63758
2.63783
2.64008
2.64288
2.64636
2.65095
2.65561
2.66002
2.66419
2.66824
2.67212
2.67556
2.67815
2.67964
2.68026
2.6806
2.68062
2.68027
2.68033
2.68085
2.6818
2.68285
2.68371
2.68412
2.68389
2.68328
2.68233
2.68088
2.67859
2.67506
2.67003
2.66345
2.65539
2.64542
2.6326
2.61556
2.59271
2.56129
2.51206
2.43711
2.22785
1
1
1
1
1
1
1
1
1
1
1
1
1
1
1
1
1
1
1
1
1
1
1
1
1
1
1
1
1
1
1
1
1
1
1
1
1
1
1
1
1
1
1
1
1
1
1
1
1
1
1
1
1
1.69077
2.54036
2.63623
2.63675
2.63889
2.64109
2.64359
2.64625
2.64923
2.65265
2.65648
2.66061
2.66487
2.6689
2.67223
2.67452
2.67581
2.67654
2.67645
2.67599
2.67557
2.6754
2.67552
2.67572
2.67573
2.67545
2.67462
2.67331
2.67169
2.66967
2.66693
2.66295
2.65727
2.64959
2.63986
2.62767
2.61208
2.59122
2.56299
2.52206
2.46678
2.35007
2.1489
1
1
1
1
1
1
1
1
1
1
1
1
1
1
1
1
1
1
1
1
1
1
1
1
1
1
1
1
1
1
1
1
1
1
1
1
1
1
1
1
1
1
1
1
1
1
1
1
1
1
1
1
1
1.3232
2.41379
2.62989
2.62885
2.63242
2.63695
2.64011
2.64248
2.64474
2.64723
2.65013
2.65349
2.65725
2.6611
2.6647
2.66767
2.66975
2.67113
2.67142
2.67118
2.67068
2.67012
2.66964
2.66918
2.66841
2.66725
2.66557
2.66341
2.66095
2.65817
2.65479
2.65024
2.6439
2.63522
2.62397
2.60968
2.59155
2.56732
2.53488
2.48812
2.42016
2.29643
2.1125
1
1
1
1
1
1
1
1
1
1
1
1
1
1
1
1
1
1
1
1
1
1
1
1
1
1
1
1
1
1
1
1
1
1
1
1
1
1
1
1
1
1
1
1
1
1
1
1
1
1
1
1
1
1.02875
2.28747
2.62857
2.62383
2.62554
2.63005
2.63437
2.63771
2.64045
2.6429
2.64526
2.64775
2.65051
2.65353
2.6567
2.65967
2.6622
2.66418
2.6652
2.66542
2.66513
2.66453
2.66378
2.6629
2.66158
2.65964
2.65706
2.65394
2.6505
2.64675
2.64251
2.63719
2.63011
2.6205
2.60796
2.59186
2.57149
2.54468
2.50853
2.45872
2.38436
2.26933
2.12407
1
1
1
1
1
1
1
1
1
1
1
1
1
1
1
1
1
1
1
1
1
1
1
1
1
1
1
1
1
1
1
1
1
1
1
1
1
1
1
1
1
1
1
1
1
1
1
1
1
1
1
1
1
1.00016
2.11666
2.60514
2.61221
2.61741
2.62261
2.62729
2.63157
2.63532
2.63841
2.64089
2.64298
2.64493
2.64694
2.64919
2.65154
2.65389
2.65603
2.65764
2.65846
2.65848
2.65814
2.65742
2.65636
2.65474
2.6523
2.64902
2.64501
2.64057
2.63576
2.63047
2.62414
2.61617
2.60563
2.59198
2.57444
2.55225
2.52361
2.48531
2.43377
2.35998
2.2591
2.13854
1
1
1
1
1
1
1
1
1
1
1
1
1
1
1
1
1
1
1
1
1
1
1
1
1
1
1
1
1
1
1
1
1
1
1
1
1
1
1
1
1
1
1
1
1
1
1
1
1
1
1
1
1
0.999999
1.85763
2.56646
2.61281
2.61539
2.61892
2.62215
2.62584
2.62973
2.63329
2.63617
2.63835
2.63999
2.64133
2.64271
2.6442
2.64588
2.64766
2.6493
2.65049
2.6509
2.65075
2.65019
2.64916
2.64749
2.64488
2.64123
2.63662
2.63132
2.62547
2.61903
2.6115
2.60246
2.59094
2.57634
2.55775
2.53425
2.50438
2.46551
2.41339
2.34465
2.25629
2.15325
1
1
1
1
1
1
1
1
1
1
1
1
1
1
1
1
1
1
1
1
1
1
1
1
1
1
1
1
1
1
1
1
1
1
1
1
1
1
1
1
1
1
1
1
1
1
1
1
1
1
1
1
1
1
1.48258
2.45502
2.61086
2.61056
2.6134
2.61669
2.6204
2.62408
2.62759
2.63068
2.63316
2.63496
2.63613
2.637
2.63776
2.63868
2.6398
2.641
2.64209
2.64266
2.64259
2.64212
2.64114
2.63953
2.63698
2.63331
2.62844
2.62259
2.61586
2.60833
2.59959
2.58933
2.57676
2.56126
2.54189
2.5176
2.48729
2.44826
2.39767
2.33505
2.25773
2.16943
1
1
1
1
1
1
1
1
1
1
1
1
1
1
1
1
1
1
1
1
1
1
1
1
1
1
1
1
1
1
1
1
1
1
1
1
1
1
1
1
1
1
1
1
1
1
1
1
1
1
1
1
1
1
1.06542
2.31553
2.61082
2.60612
2.60761
2.61116
2.61469
2.61786
2.621
2.62408
2.62679
2.62899
2.63047
2.63133
2.63186
2.63231
2.63284
2.63345
2.63404
2.63429
2.63405
2.63339
2.63228
2.63068
2.62828
2.62479
2.62002
2.614
2.60675
2.59832
2.58851
2.57709
2.56349
2.54711
2.52709
2.50235
2.47216
2.43323
2.38621
2.32948
2.2603
2.18452
1
1
1
1
1
1
1
1
1
1
1
1
1
1
1
1
1
1
1
1
1
1
1
1
1
1
1
1
1
1
1
1
1
1
1
1
1
1
1
1
1
1
1
1
1
1
1
1
1
1
1
1
1
1
1.00097
2.15543
2.58509
2.59279
2.59906
2.60399
2.60792
2.61097
2.6138
2.61679
2.61948
2.62199
2.62395
2.6252
2.62588
2.62628
2.62652
2.62665
2.62663
2.62634
2.62562
2.62451
2.62305
2.62127
2.61888
2.61557
2.61104
2.60517
2.59777
2.5888
2.5782
2.56581
2.55131
2.53417
2.51363
2.48864
2.45861
2.42085
2.37763
2.32552
2.26285
2.19785
1
1
1
1
1
1
1
1
1
1
1
1
1
1
1
1
1
1
1
1
1
1
1
1
1
1
1
1
1
1
1
1
1
1
1
1
1
1
1
1
1
1
1
1
1
1
1
1
1
1
1
1
1
1
0.999993
1.8745
2.54397
2.58802
2.59391
2.59837
2.60181
2.60454
2.60702
2.60959
2.612
2.61448
2.61675
2.61848
2.61956
2.6202
2.62044
2.62032
2.61987
2.61899
2.61763
2.61587
2.61381
2.61154
2.60887
2.60555
2.60125
2.59567
2.58842
2.57932
2.56835
2.5554
2.54029
2.52259
2.50167
2.47661
2.44691
2.41084
2.37053
2.32172
2.26586
2.20942
1
1
1
1
1
1
1
1
1
1
1
1
1
1
1
1
1
1
1
1
1
1
1
1
1
1
1
1
1
1
1
1
1
1
1
1
1
1
1
1
1
1
1
1
1
1
1
1
1
1
1
1
1
1
0.999998
1.45862
2.43606
2.58407
2.58675
2.59042
2.595
2.59795
2.60031
2.60243
2.60459
2.60687
2.60917
2.61117
2.61266
2.61365
2.61408
2.61392
2.61328
2.61203
2.61018
2.60782
2.60507
2.60209
2.59884
2.59522
2.5909
2.58551
2.5785
2.56954
2.55856
2.54545
2.53011
2.51219
2.49116
2.46626
2.43699
2.40263
2.36458
2.31892
2.2701
2.21864
1
1
1
1
1
1
1
1
1
1
1
1
1
1
1
1
1
1
1
1
1
1
1
1
1
1
1
1
1
1
1
1
1
1
1
1
1
1
1
1
1
1
1
1
1
1
1
1
1
1
1
1
1
1
1
1.0559
2.28611
2.58641
2.58228
2.5845
2.5879
2.59103
2.59342
2.59547
2.59751
2.59961
2.60175
2.60377
2.60543
2.60666
2.60728
2.60716
2.6065
2.60514
2.60305
2.60029
2.59693
2.59316
2.58912
2.5849
2.58023
2.57475
2.56789
2.55919
2.54845
2.53554
2.52036
2.50261
2.48182
2.45744
2.42881
2.39587
2.35998
2.31785
2.27395
2.22524
1
1
1
1
1
1
1
1
1
1
1
1
1
1
1
1
1
1
1
1
1
1
1
1
1
1
1
1
1
1
1
1
1
1
1
1
1
1
1
1
1
1
1
1
1
1
1
1
1
1
1
1
1
1
1
1.00063
2.08293
2.55443
2.5693
2.57783
2.58253
2.58497
2.58683
2.58863
2.59052
2.59249
2.59447
2.59634
2.59795
2.59922
2.59992
2.59986
2.59929
2.59801
2.59594
2.59306
2.58935
2.58497
2.58017
2.57518
2.56986
2.56395
2.55694
2.5484
2.53798
2.52543
2.51065
2.49334
2.47317
2.44969
2.42181
2.39068
2.35683
2.31734
2.27685
2.23108
1
1
1
1
1
1
1
1
1
1
1
1
1
1
1
1
1
1
1
1
1
1
1
1
1
1
1
1
1
1
1
1
1
1
1
1
1
1
1
1
1
1
1
1
1
1
1
1
1
1
1
1
1
1
1
0.999996
1.71021
2.48481
2.5694
2.57402
2.57744
2.57972
2.5813
2.58267
2.58416
2.58585
2.58757
2.58918
2.59058
2.59166
2.59223
2.59214
2.59161
2.59045
2.58851
2.5857
2.58191
2.57725
2.57193
2.56619
2.56007
2.55345
2.546
2.53741
2.52724
2.51509
2.50081
2.48405
2.4648
2.44209
2.41556
2.38713
2.35437
2.31727
2.27964
2.23715
1
1
1
1
1
1
1
1
1
1
1
1
1
1
1
1
1
1
1
1
1
1
1
1
1
1
1
1
1
1
1
1
1
1
1
1
1
1
1
1
1
1
1
1
1
1
1
1
1
1
1
1
1
1
1
0.999999
1.21327
2.34702
2.56866
2.5658
2.56878
2.57248
2.57471
2.57619
2.57753
2.57902
2.58055
2.58193
2.58312
2.58398
2.58432
2.58418
2.58364
2.58254
2.58071
2.57803
2.57436
2.56974
2.56424
2.55801
2.55115
2.54376
2.53567
2.52675
2.51664
2.50477
2.49099
2.47474
2.4563
2.43436
2.41023
2.38375
2.35145
2.31771
2.28277
2.24378
1
1
1
1
1
1
1
1
1
1
1
1
1
1
1
1
1
1
1
1
1
1
1
1
1
1
1
1
1
1
1
1
1
1
1
1
1
1
1
1
1
1
1
1
1
1
1
1
1
1
1
1
1
1
1
1
1.01066
2.19901
2.54683
2.55242
2.55947
2.56421
2.56727
2.56924
2.57075
2.57217
2.57353
2.57471
2.57569
2.57632
2.57638
2.57613
2.5755
2.57434
2.57248
2.56986
2.56635
2.56197
2.55659
2.55021
2.54289
2.53484
2.52611
2.51672
2.50645
2.49471
2.4814
2.46543
2.44771
2.42674
2.40469
2.37896
2.34867
2.31932
2.28616
2.25
1
1
1
1
1
1
1
1
1
1
1
1
1
1
1
1
1
1
1
1
1
1
1
1
1
1
1
1
1
1
1
1
1
1
1
1
1
1
1
1
1
1
1
1
1
1
1
1
1
1
1
1
1
1
1
1
1
1.87876
2.50765
2.54304
2.55168
2.55693
2.55999
2.56242
2.56421
2.56563
2.56676
2.56767
2.56833
2.56869
2.56855
2.56812
2.56734
2.56604
2.56403
2.56136
2.55797
2.55383
2.54872
2.54249
2.5351
2.52672
2.51753
2.50768
2.4971
2.48532
2.47223
2.45644
2.43938
2.41924
2.39845
2.37378
2.34731
2.32029
2.28789
2.25493
1
1
1
1
1
1
1
1
1
1
1
1
1
1
1
1
1
1
1
1
1
1
1
1
1
1
1
1
1
1
1
1
1
1
1
1
1
1
1
1
1
1
1
1
1
1
1
1
1
1
1
1
1
1
1
1
0.999997
1.38728
2.39796
2.54466
2.54321
2.5468
2.55083
2.55412
2.55668
2.55855
2.55972
2.56051
2.56089
2.56096
2.56066
2.56003
2.55907
2.55759
2.55543
2.55266
2.54928
2.54526
2.5404
2.53448
2.52732
2.51898
2.50966
2.49951
2.48859
2.47667
2.46352
2.4481
2.43123
2.41207
2.39232
2.36894
2.34535
2.31879
2.28897
2.25965
1
1
1
1
1
1
1
1
1
1
1
1
1
1
1
1
1
1
1
1
1
1
1
1
1
1
1
1
1
1
1
1
1
1
1
1
1
1
1
1
1
1
1
1
1
1
1
1
1
1
1
1
1
1
1
1
0.999999
1.03651
2.24591
2.54055
2.53617
2.5378
2.54194
2.54528
2.5484
2.55087
2.55236
2.55322
2.55347
2.55333
2.55284
2.55196
2.55075
2.54909
2.54682
2.54399
2.54055
2.53652
2.53178
2.52614
2.51936
2.51139
2.50229
2.49214
2.48104
2.46892
2.4557
2.4405
2.42365
2.40574
2.3865
2.36407
2.34168
2.31668
2.2906
2.26269
1
1
1
1
1
1
1
1
1
1
1
1
1
1
1
1
1
1
1
1
1
1
1
1
1
1
1
1
1
1
1
1
1
1
1
1
1
1
1
1
1
1
1
1
1
1
1
1
1
1
1
1
1
1
1
1
1
1.00022
1.94569
2.50322
2.52564
2.53124
2.53539
2.5377
2.54046
2.54309
2.54491
2.54585
2.54594
2.54567
2.54495
2.5438
2.54232
2.54051
2.53823
2.53541
2.53193
2.52783
2.52308
2.51758
2.51115
2.50364
2.49503
2.48516
2.4742
2.46193
2.44876
2.43357
2.41705
2.40001
2.38058
2.3594
2.3387
2.31549
2.29047
2.26322
1
1
1
1
1
1
1
1
1
1
1
1
1
1
1
1
1
1
1
1
1
1
1
1
1
1
1
1
1
1
1
1
1
1
1
1
1
1
1
1
1
1
1
1
1
1
1
1
1
1
1
1
1
1
1
1
1
0.999999
1.44134
2.40066
2.52654
2.52531
2.52724
2.52913
2.5317
2.53431
2.53642
2.53757
2.53778
2.53758
2.53685
2.53558
2.53391
2.53196
2.5297
2.52696
2.52352
2.51938
2.51458
2.5091
2.50284
2.49571
2.48765
2.47829
2.46776
2.45547
2.44253
2.42747
2.41146
2.39456
2.3754
2.35617
2.33609
2.31349
2.28896
2.26356
1
1
1
1
1
1
1
1
1
1
1
1
1
1
1
1
1
1
1
1
1
1
1
1
1
1
1
1
1
1
1
1
1
1
1
1
1
1
1
1
1
1
1
1
1
1
1
1
1
1
1
1
1
1
1
1
1
1
1.04777
2.24277
2.52249
2.51825
2.51914
2.52133
2.52381
2.52597
2.52778
2.52889
2.52924
2.52911
2.52849
2.52729
2.52558
2.52356
2.5213
2.51865
2.5153
2.51123
2.50644
2.50094
2.49467
2.48771
2.48007
2.47128
2.46124
2.44923
2.43667
2.42193
2.40648
2.3898
2.37168
2.35325
2.33273
2.31102
2.28812
2.26471
1
1
1
1
1
1
1
1
1
1
1
1
1
1
1
1
1
1
1
1
1
1
1
1
1
1
1
1
1
1
1
1
1
1
1
1
1
1
1
1
1
1
1
1
1
1
1
1
1
1
1
1
1
1
1
1
1
1
1.00039
1.92346
2.48121
2.50732
2.51193
2.51559
2.51782
2.51882
2.51975
2.52046
2.52071
2.52063
2.52016
2.51913
2.51751
2.51546
2.51312
2.51048
2.50721
2.50327
2.49858
2.49314
2.48681
2.47981
2.47235
2.46404
2.45442
2.44303
2.43079
2.41655
2.40186
2.38571
2.36828
2.34965
2.32956
2.30978
2.28819
2.26527
1
1
1
1
1
1
1
1
1
1
1
1
1
1
1
1
1
1
1
1
1
1
1
1
1
1
1
1
1
1
1
1
1
1
1
1
1
1
1
1
1
1
1
1
1
1
1
1
1
1
1
1
1
1
1
1
1
1
0.999998
1.37498
2.36795
2.51212
2.50793
2.50924
2.5101
2.51056
2.511
2.51155
2.51177
2.51184
2.51165
2.511
2.50968
2.50774
2.50531
2.50257
2.4993
2.49548
2.49096
2.48561
2.47925
2.47222
2.46481
2.45666
2.44738
2.43667
2.42466
2.41118
2.39729
2.38154
2.3645
2.34646
2.32778
2.30895
2.28771
2.26497
1
1
1
1
1
1
1
1
1
1
1
1
1
1
1
1
1
1
1
1
1
1
1
1
1
1
1
1
1
1
1
1
1
1
1
1
1
1
1
1
1
1
1
1
1
1
1
1
1
1
1
1
1
1
1
1
1
1
1
1.03304
2.2073
2.49649
2.4973
2.49997
2.50147
2.5024
2.50283
2.50322
2.50325
2.50331
2.50332
2.50306
2.50214
2.50043
2.49795
2.49502
2.49163
2.48783
2.48345
2.47816
2.47188
2.46489
2.45737
2.4492
2.4402
2.42998
2.41828
2.40569
2.3923
2.37685
2.3607
2.34388
2.32605
2.3074
2.28636
2.26493
1
1
1
1
1
1
1
1
1
1
1
1
1
1
1
1
1
1
1
1
1
1
1
1
1
1
1
1
1
1
1
1
1
1
1
1
1
1
1
1
1
1
1
1
1
1
1
1
1
1
1
1
1
1
1
1
1
1
1
1.00016
1.82133
2.44646
2.49086
2.49341
2.49412
2.49543
2.49608
2.49599
2.49565
2.49538
2.49538
2.49527
2.49467
2.49325
2.49089
2.48784
2.48429
2.48041
2.47602
2.47076
2.46464
2.45772
2.45014
2.44196
2.4331
2.42315
2.41191
2.40009
2.38692
2.372
2.35707
2.34118
2.32353
2.30531
2.28563
2.26598
1
1
1
1
1
1
1
1
1
1
1
1
1
1
1
1
1
1
1
1
1
1
1
1
1
1
1
1
1
1
1
1
1
1
1
1
1
1
1
1
1
1
1
1
1
1
1
1
1
1
1
1
1
1
1
1
1
1
1
0.999999
1.21856
2.31266
2.49743
2.48762
2.48764
2.48796
2.48886
2.48856
2.48808
2.48772
2.48762
2.48751
2.48707
2.4859
2.48379
2.48079
2.47714
2.47311
2.46858
2.46335
2.45732
2.45051
2.44299
2.43477
2.42594
2.41619
2.40553
2.3942
2.38123
2.36714
2.35318
2.33754
2.32032
2.3035
2.28551
2.26722
1
1
1
1
1
1
1
1
1
1
1
1
1
1
1
1
1
1
1
1
1
1
1
1
1
1
1
1
1
1
1
1
1
1
1
1
1
1
1
1
1
1
1
1
1
1
1
1
1
1
1
1
1
1
1
1
1
1
1
1
1.01053
2.12447
2.47021
2.47045
2.47437
2.48012
2.48168
2.4815
2.48116
2.48072
2.48028
2.47988
2.47929
2.47821
2.47635
2.47359
2.47
2.46588
2.46122
2.45598
2.45003
2.44339
2.43599
2.42781
2.41895
2.40938
2.39919
2.38816
2.3756
2.36241
2.34887
2.33337
2.31736
2.30202
2.28538
2.26761
1
1
1
1
1
1
1
1
1
1
1
1
1
1
1
1
1
1
1
1
1
1
1
1
1
1
1
1
1
1
1
1
1
1
1
1
1
1
1
1
1
1
1
1
1
1
1
1
1
1
1
1
1
1
1
1
1
1
1
1
1
1.64287
2.38903
2.46843
2.47271
2.47499
2.47463
2.47472
2.47475
2.47433
2.47345
2.4725
2.47149
2.47027
2.46856
2.46605
2.46265
2.45856
2.45382
2.44857
2.44268
2.43617
2.42893
2.42085
2.41203
2.40258
2.39263
2.38189
2.36992
2.35736
2.34399
2.32916
2.31462
2.3003
2.28447
2.26701
1
1
1
1
1
1
1
1
1
1
1
1
1
1
1
1
1
1
1
1
1
1
1
1
1
1
1
1
1
1
1
1
1
1
1
1
1
1
1
1
1
1
1
1
1
1
1
1
1
1
1
1
1
1
1
1
1
1
1
1
0.999998
1.1081
2.23038
2.46814
2.46555
2.46649
2.46626
2.46686
2.46759
2.4672
2.46612
2.46475
2.46333
2.46192
2.46028
2.45801
2.45493
2.45104
2.44643
2.44125
2.43548
2.42916
2.42209
2.41416
2.40547
2.39608
2.3862
2.37576
2.36435
2.35221
2.33922
2.32552
2.312
2.29808
2.28256
2.26567
1
1
1
1
1
1
1
1
1
1
1
1
1
1
1
1
1
1
1
1
1
1
1
1
1
1
1
1
1
1
1
1
1
1
1
1
1
1
1
1
1
1
1
1
1
1
1
1
1
1
1
1
1
1
1
1
1
1
1
1
0.999999
1.00238
1.9048
2.42249
2.4504
2.4545
2.45598
2.45899
2.46044
2.45993
2.45866
2.45697
2.4552
2.45352
2.45175
2.44963
2.44686
2.4433
2.43897
2.43395
2.42829
2.4221
2.41518
2.40744
2.39894
2.38964
2.37987
2.36972
2.35871
2.34696
2.33468
2.32206
2.30905
2.29519
2.28003
2.26419
1
1
1
1
1
1
1
1
1
1
1
1
1
1
1
1
1
1
1
1
1
1
1
1
1
1
1
1
1
1
1
1
1
1
1
1
1
1
1
1
1
1
1
1
1
1
1
1
1
1
1
1
1
1
1
1
1
1
1
1
1
0.999996
1.27239
2.28974
2.45637
2.44797
2.44932
2.45095
2.4521
2.45138
2.45008
2.44844
2.44666
2.44489
2.44302
2.44096
2.43842
2.43525
2.43136
2.42667
2.42124
2.41519
2.40841
2.40086
2.39259
2.3835
2.37395
2.36405
2.3533
2.34191
2.3304
2.31854
2.30578
2.29205
2.27752
2.26284
1
1
1
1
1
1
1
1
1
1
1
1
1
1
1
1
1
1
1
1
1
1
1
1
1
1
1
1
1
1
1
1
1
1
1
1
1
1
1
1
1
1
1
1
1
1
1
1
1
1
1
1
1
1
1
1
1
1
1
1
1
0.999999
1.01636
2.10239
2.43257
2.43195
2.43584
2.43999
2.44168
2.44144
2.44081
2.43966
2.43809
2.43628
2.43425
2.43211
2.4297
2.42686
2.42342
2.41916
2.41403
2.40811
2.40143
2.39407
2.38605
2.3773
2.36813
2.35853
2.34804
2.33705
2.32617
2.31471
2.30212
2.28877
2.27508
2.26125
1
1
1
1
1
1
1
1
1
1
1
1
1
1
1
1
1
1
1
1
1
1
1
1
1
1
1
1
1
1
1
1
1
1
1
1
1
1
1
1
1
1
1
1
1
1
1
1
1
1
1
1
1
1