/*--------------------------------*- C++ -*----------------------------------*\
  =========                 |
  \\      /  F ield         | OpenFOAM: The Open Source CFD Toolbox
   \\    /   O peration     | Website:  https://openfoam.org
    \\  /    A nd           | Version:  7
     \\/     M anipulation  |
\*---------------------------------------------------------------------------*/
FoamFile
{
    version     2.0;
    format      ascii;
    class       volVectorField;
    location    "2";
    object      U;
}
// * * * * * * * * * * * * * * * * * * * * * * * * * * * * * * * * * * * * * //

dimensions      [0 1 -1 0 0 0 0];

internalField   nonuniform List<vector> 
64512
(
(3 -1.62073e-16 0)
(3 2.60707e-16 0)
(3 3.30186e-16 0)
(3 -6.75533e-17 0)
(3 -4.18393e-16 0)
(3 -5.46672e-16 0)
(3 -5.04567e-16 0)
(3 -1.98455e-16 0)
(3 -1.3724e-16 0)
(3 1.50767e-17 0)
(3 9.93456e-17 0)
(3 7.86151e-18 0)
(3 -5.27735e-17 0)
(3 -5.19493e-16 0)
(3 -2.36333e-16 0)
(3 2.41348e-16 0)
(3 3.87722e-16 0)
(3 1.34185e-15 0)
(3 1.05263e-15 0)
(3 5.65586e-16 0)
(3 2.77179e-16 0)
(3 3.02851e-16 0)
(3 -1.03878e-16 0)
(3 -3.83097e-16 0)
(3 -9.5188e-16 0)
(3 -7.05228e-16 0)
(3 -4.77377e-16 0)
(3 -5.28497e-16 0)
(3 -4.09952e-16 0)
(3 -5.47817e-16 0)
(3 -6.5511e-16 0)
(3 -6.04382e-16 0)
(3 -8.75992e-16 0)
(3 -7.71594e-16 0)
(3 -6.59837e-16 0)
(3 -7.6297e-16 0)
(3 -1.31135e-15 0)
(3 -1.10547e-15 0)
(3 -1.17984e-15 0)
(3 -9.40988e-16 0)
(3 -7.31125e-16 0)
(3 -6.05535e-16 0)
(3 -5.45682e-16 0)
(3 -2.17069e-17 0)
(3 -3.70706e-16 0)
(3 -3.47925e-16 0)
(3 -4.63561e-16 0)
(3 -5.26846e-16 0)
(3 7.3889e-17 0)
(3 -8.16229e-18 0)
(1.18891 0.00487511 0)
(0.759332 0.00591421 0)
(0.735574 0.00587534 0)
(0.721798 0.00501163 0)
(0.708874 0.00504891 0)
(0.696672 0.00550239 0)
(0.683447 0.00611022 0)
(0.668465 0.00690487 0)
(0.651252 0.00779922 0)
(0.632439 0.00849076 0)
(0.613613 0.00839299 0)
(0.596981 0.00721543 0)
(0.583862 0.00577783 0)
(0.572627 0.00532137 0)
(0.560603 0.00576657 0)
(0.545809 0.00678153 0)
(0.527633 0.0080453 0)
(0.507478 0.00873292 0)
(0.488177 0.00826463 0)
(0.471354 0.00738155 0)
(0.455939 0.00712714 0)
(0.440744 0.00739237 0)
(0.424823 0.00758875 0)
(0.408415 0.00765905 0)
(0.391814 0.00787889 0)
(0.375023 0.00819568 0)
(0.358101 0.00840247 0)
(0.341171 0.00845714 0)
(0.324261 0.00846688 0)
(0.307706 0.00848897 0)
(0.29168 0.00844553 0)
(0.275828 0.00831924 0)
(0.259588 0.00816679 0)
(0.242454 0.00809366 0)
(0.224123 0.00814948 0)
(0.20503 0.00833406 0)
(0.185609 0.00859271 0)
(0.166571 0.00885809 0)
(0.148345 0.00911538 0)
(0.130756 0.00946587 0)
(0.11345 0.00979442 0)
(0.0947924 0.0100853 0)
(0.0763578 0.0103372 0)
(0.056319 0.0105425 0)
(0.0347834 0.0105689 0)
(0.0118236 0.0106149 0)
(3 4.19538e-16 0)
(3 7.05834e-16 0)
(3 5.92136e-16 0)
(3 4.45138e-16 0)
(3 1.57415e-16 0)
(3 -3.31829e-16 0)
(3 -7.44512e-16 0)
(3 -5.31005e-16 0)
(3 -5.57864e-16 0)
(3 -2.60779e-17 0)
(3 1.11523e-16 0)
(3 -1.43452e-16 0)
(3 -4.51552e-16 0)
(3 -5.75414e-16 0)
(3 -6.21146e-17 0)
(3 5.28303e-16 0)
(3 7.47938e-16 0)
(3 1.74575e-15 0)
(3 1.75874e-15 0)
(3 1.7733e-15 0)
(3 1.31797e-15 0)
(3 8.29388e-16 0)
(3 6.89613e-17 0)
(3 -6.20389e-16 0)
(3 -7.86813e-16 0)
(3 -6.02872e-16 0)
(3 -8.59087e-16 0)
(3 -1.3471e-15 0)
(3 -1.59586e-15 0)
(3 -2.30609e-15 0)
(3 -2.61152e-15 0)
(3 -2.39731e-15 0)
(3 -2.81437e-15 0)
(3 -2.34261e-15 0)
(3 -1.60526e-15 0)
(3 -7.44139e-16 0)
(3 -1.33995e-15 0)
(3 -1.11923e-15 0)
(3 -1.14025e-15 0)
(3 -6.03535e-16 0)
(3 -3.22712e-16 0)
(3 3.28859e-16 0)
(3 -8.50873e-17 0)
(3 -5.61039e-16 0)
(3 -8.35662e-16 0)
(3 -7.42413e-16 0)
(3 -1.55131e-16 0)
(3 7.40412e-17 0)
(3 4.92772e-16 0)
(3 2.92533e-15 0)
(1.19355 0.020252 0)
(0.757976 0.0199136 0)
(0.733489 0.0185943 0)
(0.719014 0.0155664 0)
(0.705223 0.0147408 0)
(0.692637 0.0156193 0)
(0.679413 0.0174481 0)
(0.66471 0.0199509 0)
(0.648049 0.0227559 0)
(0.629956 0.0249384 0)
(0.611698 0.0249921 0)
(0.595111 0.0222073 0)
(0.581395 0.0182404 0)
(0.569135 0.0161597 0)
(0.556494 0.016889 0)
(0.541681 0.0196807 0)
(0.523977 0.0232983 0)
(0.504515 0.0253364 0)
(0.485831 0.0243399 0)
(0.469104 0.0222778 0)
(0.453249 0.0216333 0)
(0.437583 0.0222279 0)
(0.421327 0.022534 0)
(0.404773 0.0225586 0)
(0.388145 0.0231761 0)
(0.371375 0.0241892 0)
(0.354468 0.0248708 0)
(0.337596 0.0250496 0)
(0.320846 0.0250599 0)
(0.304537 0.0251212 0)
(0.28876 0.025029 0)
(0.273091 0.024743 0)
(0.256899 0.0244172 0)
(0.239722 0.0243008 0)
(0.221366 0.0245377 0)
(0.202339 0.0250417 0)
(0.183186 0.0257497 0)
(0.164572 0.0264195 0)
(0.146819 0.0271425 0)
(0.129648 0.0282521 0)
(0.112574 0.0293771 0)
(0.0942329 0.0304513 0)
(0.0758249 0.0312884 0)
(0.0559017 0.0319474 0)
(0.034507 0.0320508 0)
(0.0117982 0.0321862 0)
(3 1.13247e-16 0)
(3 2.71282e-16 0)
(3 -8.44912e-17 0)
(3 -6.26652e-17 0)
(3 -2.57504e-16 0)
(3 -9.19645e-16 0)
(3 -8.41076e-16 0)
(3 -1.0453e-15 0)
(3 -1.14587e-15 0)
(3 -4.95797e-16 0)
(3 -4.93815e-16 0)
(3 -1.34417e-15 0)
(3 -1.24679e-15 0)
(3 -5.4795e-16 0)
(3 -1.02087e-16 0)
(3 -2.1739e-16 0)
(3 1.79417e-16 0)
(3 6.48854e-16 0)
(3 1.1161e-15 0)
(3 2.0482e-15 0)
(3 2.12933e-15 0)
(3 1.91389e-15 0)
(3 1.85931e-15 0)
(3 6.60536e-16 0)
(3 1.32977e-15 0)
(3 1.22498e-15 0)
(3 5.33565e-16 0)
(3 2.91376e-16 0)
(3 -4.00136e-16 0)
(3 -2.05692e-15 0)
(3 -3.32579e-15 0)
(3 -4.29612e-15 0)
(3 -3.6351e-15 0)
(3 -2.35664e-15 0)
(3 1.49527e-16 0)
(3 3.78608e-16 0)
(3 -1.44197e-16 0)
(3 -6.56834e-16 0)
(3 -1.10099e-15 0)
(3 -1.65823e-15 0)
(3 -2.21224e-15 0)
(3 -1.93716e-15 0)
(3 -1.6375e-15 0)
(3 -1.72745e-15 0)
(3 -9.76404e-16 0)
(3 -9.02833e-16 0)
(3 -9.55419e-17 0)
(3 2.16654e-16 0)
(3 2.17206e-16 0)
(3 1.08847e-15 0)
(1.20977 0.035269 0)
(0.760926 0.0325808 0)
(0.736574 0.031586 0)
(0.721053 0.0276244 0)
(0.705386 0.0260782 0)
(0.691358 0.0268453 0)
(0.67739 0.0292563 0)
(0.662601 0.0329315 0)
(0.646437 0.0372315 0)
(0.629147 0.0406238 0)
(0.611604 0.040896 0)
(0.595305 0.037179 0)
(0.581095 0.0315894 0)
(0.567575 0.0282995 0)
(0.553739 0.0291019 0)
(0.538445 0.0332059 0)
(0.520943 0.0385828 0)
(0.50203 0.0414706 0)
(0.484057 0.0399467 0)
(0.467697 0.0371246 0)
(0.451688 0.0364778 0)
(0.435763 0.0375879 0)
(0.419216 0.0380416 0)
(0.40242 0.0379484 0)
(0.385569 0.0388346 0)
(0.368588 0.0404413 0)
(0.351442 0.041546 0)
(0.334371 0.0417947 0)
(0.317535 0.0417067 0)
(0.301248 0.0416792 0)
(0.285524 0.0414381 0)
(0.269904 0.0409349 0)
(0.253652 0.0404117 0)
(0.236322 0.0402401 0)
(0.217808 0.0406876 0)
(0.19872 0.0415891 0)
(0.179684 0.0427823 0)
(0.161399 0.0438747 0)
(0.144111 0.0449666 0)
(0.127413 0.0466249 0)
(0.11064 0.0483152 0)
(0.0926993 0.050066 0)
(0.0743876 0.0515228 0)
(0.0547272 0.0528178 0)
(0.0336945 0.0532389 0)
(0.0115746 0.0537137 0)
(3 -3.34496e-16 0)
(3 -4.37752e-16 0)
(3 -8.62181e-17 0)
(3 -6.37894e-16 0)
(3 -7.28437e-16 0)
(3 -2.72767e-16 0)
(3 -5.96776e-16 0)
(3 -5.76868e-16 0)
(3 -8.12713e-16 0)
(3 -8.75403e-16 0)
(3 -1.39833e-15 0)
(3 -1.49572e-15 0)
(3 -8.38911e-16 0)
(3 -1.09081e-16 0)
(3 -1.17553e-16 0)
(3 -8.94878e-16 0)
(3 -2.35229e-16 0)
(3 -7.55494e-16 0)
(3 -5.89318e-16 0)
(3 -1.08011e-16 0)
(3 -4.32056e-17 0)
(3 1.11378e-16 0)
(3 5.74896e-16 0)
(3 8.84977e-16 0)
(3 3.70278e-16 0)
(3 4.54046e-16 0)
(3 1.13106e-15 0)
(3 1.31425e-15 0)
(3 1.02452e-15 0)
(3 -4.06774e-16 0)
(3 -3.07807e-15 0)
(3 -3.55093e-15 0)
(3 -1.90977e-15 0)
(3 -8.66754e-16 0)
(3 -6.17544e-16 0)
(3 -1.23364e-16 0)
(3 2.73352e-16 0)
(3 1.06966e-16 0)
(3 -7.33707e-16 0)
(3 -1.28806e-15 0)
(3 -2.29397e-15 0)
(3 -1.84657e-15 0)
(3 -1.04055e-15 0)
(3 -1.52578e-16 0)
(3 -1.01572e-16 0)
(3 -8.16185e-16 0)
(3 -7.01239e-16 0)
(3 -6.05443e-16 0)
(3 -6.2614e-16 0)
(3 -2.2242e-15 0)
(1.23512 0.0489119 0)
(0.764779 0.0431237 0)
(0.739563 0.0450981 0)
(0.723251 0.0405943 0)
(0.706455 0.0382791 0)
(0.691521 0.0385015 0)
(0.677145 0.0410678 0)
(0.662491 0.045495 0)
(0.646995 0.0509014 0)
(0.630573 0.0552589 0)
(0.613706 0.0559228 0)
(0.597568 0.0520248 0)
(0.58286 0.0456688 0)
(0.56832 0.0415682 0)
(0.553422 0.0423799 0)
(0.537667 0.0473918 0)
(0.520392 0.0538729 0)
(0.502059 0.0570432 0)
(0.484827 0.0549713 0)
(0.468792 0.0517562 0)
(0.452729 0.0514141 0)
(0.436641 0.0531837 0)
(0.419873 0.0538628 0)
(0.40286 0.0536913 0)
(0.38575 0.0548467 0)
(0.368487 0.0570595 0)
(0.350982 0.0586327 0)
(0.333549 0.0589627 0)
(0.316448 0.0587141 0)
(0.299993 0.0584977 0)
(0.284117 0.0580476 0)
(0.268331 0.0573073 0)
(0.251818 0.0565835 0)
(0.234156 0.056363 0)
(0.215325 0.0570391 0)
(0.196005 0.0583657 0)
(0.176875 0.0600148 0)
(0.158659 0.0614528 0)
(0.141557 0.062767 0)
(0.125091 0.0647847 0)
(0.108413 0.0668069 0)
(0.0907765 0.069115 0)
(0.0725333 0.0711741 0)
(0.0531798 0.0732011 0)
(0.0325996 0.0740831 0)
(0.0112514 0.0750567 0)
(3 1.4131e-16 0)
(3 -3.52333e-17 0)
(3 1.40372e-16 0)
(3 -3.79363e-16 0)
(3 -3.53968e-16 0)
(3 9.8033e-17 0)
(3 -6.48688e-16 0)
(3 -4.89012e-16 0)
(3 -3.5099e-16 0)
(3 -4.97438e-17 0)
(3 -3.90791e-16 0)
(3 -3.81678e-16 0)
(3 -4.08524e-16 0)
(3 -3.21424e-16 0)
(3 -4.29469e-16 0)
(3 -4.28653e-16 0)
(3 -8.01077e-16 0)
(3 -1.39349e-15 0)
(3 -1.68961e-15 0)
(3 -1.67115e-15 0)
(3 -1.36981e-15 0)
(3 -9.99049e-16 0)
(3 -5.29865e-16 0)
(3 8.49519e-18 0)
(3 -2.78245e-16 0)
(3 3.00214e-16 0)
(3 1.34979e-15 0)
(3 1.80197e-15 0)
(3 1.84156e-15 0)
(3 -2.48941e-16 0)
(3 -1.39849e-15 0)
(3 -1.14525e-15 0)
(3 -4.33799e-16 0)
(3 -4.64571e-16 0)
(3 -1.04582e-15 0)
(3 -9.5535e-16 0)
(3 2.461e-17 0)
(3 2.09115e-16 0)
(3 1.22975e-16 0)
(3 1.71472e-16 0)
(3 -1.14417e-16 0)
(3 7.37013e-17 0)
(3 4.59765e-16 0)
(3 6.82141e-16 0)
(3 -2.92416e-16 0)
(3 -1.34373e-15 0)
(3 -2.17141e-15 0)
(3 -1.91244e-15 0)
(3 -1.47791e-15 0)
(3 -2.04533e-15 0)
(1.26997 0.0621555 0)
(0.768215 0.0530494 0)
(0.741489 0.0592253 0)
(0.724525 0.054269 0)
(0.706964 0.0511234 0)
(0.691344 0.050308 0)
(0.676703 0.0525205 0)
(0.66226 0.0573382 0)
(0.647404 0.0636043 0)
(0.631758 0.068918 0)
(0.61538 0.0703529 0)
(0.599249 0.0669267 0)
(0.584159 0.0604524 0)
(0.569004 0.0557832 0)
(0.553437 0.0563884 0)
(0.537549 0.0618673 0)
(0.520737 0.0688365 0)
(0.503155 0.0718603 0)
(0.486713 0.0693137 0)
(0.470964 0.0660361 0)
(0.454932 0.0662385 0)
(0.438753 0.0687646 0)
(0.421836 0.0697586 0)
(0.404682 0.0695847 0)
(0.387374 0.0710368 0)
(0.369886 0.073879 0)
(0.352057 0.0759721 0)
(0.33427 0.0764023 0)
(0.316908 0.0759489 0)
(0.300297 0.0754718 0)
(0.284278 0.0747849 0)
(0.268319 0.0738173 0)
(0.251575 0.0729224 0)
(0.23364 0.0727062 0)
(0.214557 0.0736742 0)
(0.195006 0.0755113 0)
(0.175666 0.0776424 0)
(0.157259 0.0793879 0)
(0.139991 0.0807981 0)
(0.123393 0.082959 0)
(0.106513 0.0850434 0)
(0.0889605 0.087689 0)
(0.0707045 0.0902465 0)
(0.0516139 0.0930245 0)
(0.031462 0.0944674 0)
(0.0108932 0.0960777 0)
(3 -1.28095e-17 0)
(3 -6.62729e-17 0)
(3 -3.56073e-16 0)
(3 -7.4222e-16 0)
(3 -1.19819e-15 0)
(3 -1.47716e-15 0)
(3 -6.9822e-16 0)
(3 2.40567e-16 0)
(3 4.92481e-16 0)
(3 7.8661e-16 0)
(3 4.19868e-16 0)
(3 -2.81611e-17 0)
(3 -4.88942e-16 0)
(3 -5.08083e-16 0)
(3 -1.85656e-16 0)
(3 -4.34409e-16 0)
(3 -1.19081e-15 0)
(3 -1.63107e-15 0)
(3 -1.97427e-15 0)
(3 -1.81342e-15 0)
(3 -3.56299e-16 0)
(3 7.97577e-17 0)
(3 7.24296e-17 0)
(3 1.13812e-16 0)
(3 4.83314e-16 0)
(3 1.34034e-15 0)
(3 1.39176e-15 0)
(3 2.21607e-15 0)
(3 2.11678e-15 0)
(3 1.77831e-15 0)
(3 1.13381e-15 0)
(3 1.2342e-15 0)
(3 -1.47556e-16 0)
(3 -7.07563e-16 0)
(3 -4.20188e-16 0)
(3 -4.00462e-16 0)
(3 -3.92067e-16 0)
(3 -3.23634e-16 0)
(3 -2.64218e-17 0)
(3 1.62841e-16 0)
(3 1.10364e-15 0)
(3 1.15101e-15 0)
(3 4.00945e-16 0)
(3 -2.60641e-16 0)
(3 -9.84616e-16 0)
(3 -2.01563e-15 0)
(3 -3.12443e-15 0)
(3 -2.43962e-15 0)
(3 -9.65513e-16 0)
(3 -2.97586e-15 0)
(1.31657 0.0755361 0)
(0.771924 0.0630033 0)
(0.74314 0.0736152 0)
(0.725756 0.0684555 0)
(0.707749 0.0645579 0)
(0.69157 0.0625133 0)
(0.676401 0.0638154 0)
(0.661868 0.0685828 0)
(0.647267 0.0755857 0)
(0.63193 0.0819576 0)
(0.615648 0.0845022 0)
(0.599411 0.0818214 0)
(0.584242 0.0754828 0)
(0.568998 0.0704517 0)
(0.553258 0.0707622 0)
(0.537533 0.0763628 0)
(0.521203 0.0833911 0)
(0.504189 0.0861271 0)
(0.488148 0.0833683 0)
(0.472318 0.08035 0)
(0.456082 0.0812487 0)
(0.43965 0.0845234 0)
(0.42255 0.0858469 0)
(0.40534 0.0857027 0)
(0.388043 0.087429 0)
(0.370675 0.0908612 0)
(0.352954 0.0934611 0)
(0.33526 0.0939646 0)
(0.318056 0.0932439 0)
(0.301634 0.0924449 0)
(0.285729 0.091524 0)
(0.269758 0.0903798 0)
(0.252929 0.0893904 0)
(0.234868 0.0892505 0)
(0.21569 0.0905692 0)
(0.195996 0.0929849 0)
(0.176447 0.0956514 0)
(0.157683 0.0977198 0)
(0.139956 0.0991985 0)
(0.122902 0.101406 0)
(0.10557 0.103393 0)
(0.0878588 0.106148 0)
(0.069485 0.109042 0)
(0.0505207 0.112471 0)
(0.0306313 0.114464 0)
(0.010621 0.11675 0)
(3 -3.6233e-16 0)
(3 -1.96294e-16 0)
(3 6.91731e-18 0)
(3 3.6336e-16 0)
(3 3.52128e-16 0)
(3 -3.25092e-17 0)
(3 1.15828e-15 0)
(3 1.50269e-15 0)
(3 9.98148e-16 0)
(3 1.05399e-16 0)
(3 5.20194e-16 0)
(3 -2.04125e-16 0)
(3 -5.08808e-16 0)
(3 -6.04214e-16 0)
(3 -6.60774e-16 0)
(3 -6.47187e-16 0)
(3 -7.02513e-16 0)
(3 -7.48096e-16 0)
(3 -8.49975e-16 0)
(3 -6.9644e-16 0)
(3 -2.8434e-16 0)
(3 -4.09396e-16 0)
(3 -7.57659e-16 0)
(3 -5.61104e-16 0)
(3 5.22283e-16 0)
(3 1.3287e-15 0)
(3 1.69218e-15 0)
(3 1.539e-15 0)
(3 1.37308e-15 0)
(3 1.87889e-15 0)
(3 3.09414e-15 0)
(3 3.00948e-15 0)
(3 7.98913e-16 0)
(3 -2.74599e-17 0)
(3 3.75949e-18 0)
(3 -1.13749e-16 0)
(3 -3.11482e-16 0)
(3 -6.69437e-16 0)
(3 -7.68999e-16 0)
(3 -5.09369e-16 0)
(3 2.63033e-16 0)
(3 4.98466e-16 0)
(3 -4.60986e-16 0)
(3 -1.19121e-15 0)
(3 -1.88609e-15 0)
(3 -1.00543e-15 0)
(3 -8.98265e-16 0)
(3 -6.68327e-16 0)
(3 -1.16415e-16 0)
(3 -4.78564e-15 0)
(1.3769 0.0891251 0)
(0.77626 0.0736031 0)
(0.744371 0.0879847 0)
(0.726859 0.0829481 0)
(0.708792 0.0780597 0)
(0.692298 0.0746802 0)
(0.67658 0.0751187 0)
(0.661517 0.0796445 0)
(0.64683 0.0872315 0)
(0.631571 0.0947427 0)
(0.615299 0.098451 0)
(0.599046 0.0965094 0)
(0.584046 0.0903813 0)
(0.569043 0.0851272 0)
(0.553404 0.0851722 0)
(0.53788 0.0907664 0)
(0.52182 0.0977116 0)
(0.505051 0.100236 0)
(0.489081 0.0975002 0)
(0.473084 0.0948781 0)
(0.456763 0.0964351 0)
(0.440348 0.100301 0)
(0.423427 0.101849 0)
(0.406503 0.101695 0)
(0.389496 0.103637 0)
(0.372464 0.107588 0)
(0.35501 0.110673 0)
(0.337495 0.111254 0)
(0.320474 0.110262 0)
(0.304172 0.10916 0)
(0.288244 0.108094 0)
(0.272094 0.106933 0)
(0.255038 0.10604 0)
(0.236768 0.106107 0)
(0.217509 0.107849 0)
(0.197704 0.11087 0)
(0.177964 0.114084 0)
(0.158772 0.116447 0)
(0.140449 0.117978 0)
(0.122786 0.120201 0)
(0.10491 0.122035 0)
(0.0869837 0.124728 0)
(0.0685367 0.127792 0)
(0.0496934 0.131707 0)
(0.0300231 0.134163 0)
(0.0104113 0.137071 0)
(3 7.83014e-17 0)
(3 5.58207e-16 0)
(3 4.00795e-16 0)
(3 6.02307e-16 0)
(3 1.29668e-15 0)
(3 2.00973e-15 0)
(3 1.99612e-15 0)
(3 1.32802e-15 0)
(3 5.62224e-16 0)
(3 -8.36778e-16 0)
(3 -6.88477e-16 0)
(3 -3.26271e-16 0)
(3 7.15409e-17 0)
(3 -1.79176e-16 0)
(3 -4.88089e-16 0)
(3 -5.03777e-16 0)
(3 -1.29134e-16 0)
(3 4.05432e-16 0)
(3 4.5306e-16 0)
(3 -3.35223e-16 0)
(3 -5.37471e-16 0)
(3 -3.64578e-16 0)
(3 1.87951e-16 0)
(3 6.96424e-16 0)
(3 1.40318e-15 0)
(3 2.08399e-15 0)
(3 2.91504e-15 0)
(3 1.73884e-15 0)
(3 1.67979e-15 0)
(3 2.40262e-15 0)
(3 2.79246e-15 0)
(3 3.01502e-15 0)
(3 2.81077e-15 0)
(3 1.79239e-15 0)
(3 1.17406e-15 0)
(3 4.83817e-16 0)
(3 3.47159e-17 0)
(3 -1.99488e-16 0)
(3 -5.18198e-16 0)
(3 -3.30135e-16 0)
(3 -7.38422e-16 0)
(3 -1.42995e-15 0)
(3 -1.6065e-15 0)
(3 -1.46585e-15 0)
(3 -2.08037e-15 0)
(3 -6.53885e-18 0)
(3 4.49589e-16 0)
(3 5.96907e-17 0)
(3 -1.00347e-15 0)
(3 1.33658e-15 0)
(1.45305 0.102961 0)
(0.781932 0.0850855 0)
(0.74534 0.102089 0)
(0.72776 0.097474 0)
(0.70971 0.0920063 0)
(0.693071 0.0873442 0)
(0.677017 0.0867199 0)
(0.661495 0.0908361 0)
(0.646496 0.0987496 0)
(0.631368 0.107365 0)
(0.615262 0.112179 0)
(0.599206 0.110857 0)
(0.584558 0.104924 0)
(0.569905 0.099592 0)
(0.554467 0.0995242 0)
(0.539172 0.105148 0)
(0.523318 0.112013 0)
(0.506708 0.114393 0)
(0.490761 0.11177 0)
(0.474648 0.109537 0)
(0.458316 0.111618 0)
(0.441986 0.115884 0)
(0.42526 0.117571 0)
(0.408554 0.117452 0)
(0.391689 0.119653 0)
(0.374805 0.124132 0)
(0.357459 0.12772 0)
(0.340018 0.128402 0)
(0.323124 0.127143 0)
(0.30692 0.125751 0)
(0.291012 0.124594 0)
(0.274771 0.123566 0)
(0.25761 0.122954 0)
(0.239321 0.123311 0)
(0.220185 0.125515 0)
(0.200521 0.129122 0)
(0.180778 0.132846 0)
(0.161253 0.135459 0)
(0.142338 0.137055 0)
(0.124002 0.139342 0)
(0.10547 0.141078 0)
(0.087191 0.143641 0)
(0.0685743 0.146746 0)
(0.0496797 0.150963 0)
(0.0300018 0.153745 0)
(0.0104059 0.15714 0)
(3 3.17784e-16 0)
(3 4.70016e-16 0)
(3 -1.55922e-16 0)
(3 -4.07622e-16 0)
(3 2.40128e-17 0)
(3 6.57693e-16 0)
(3 7.41548e-17 0)
(3 -3.71615e-16 0)
(3 -4.18767e-16 0)
(3 -5.92573e-16 0)
(3 -1.08212e-15 0)
(3 -6.45211e-16 0)
(3 -5.24096e-16 0)
(3 -5.59715e-16 0)
(3 4.96643e-17 0)
(3 5.27911e-16 0)
(3 3.57963e-16 0)
(3 8.54829e-17 0)
(3 -1.51649e-16 0)
(3 -2.01061e-16 0)
(3 -5.79375e-16 0)
(3 -1.74626e-16 0)
(3 4.60845e-16 0)
(3 1.11031e-15 0)
(3 1.22771e-15 0)
(3 1.99579e-15 0)
(3 3.45792e-15 0)
(3 3.89857e-15 0)
(3 4.56392e-15 0)
(3 4.3449e-15 0)
(3 3.02354e-15 0)
(3 2.59404e-15 0)
(3 2.24281e-15 0)
(3 2.04297e-15 0)
(3 1.92307e-15 0)
(3 1.46775e-15 0)
(3 6.98804e-16 0)
(3 -2.42128e-17 0)
(3 -8.01146e-16 0)
(3 -1.40316e-15 0)
(3 -1.85924e-15 0)
(3 -2.55146e-15 0)
(3 -2.25287e-15 0)
(3 -1.46706e-15 0)
(3 -1.1389e-15 0)
(3 -1.31095e-15 0)
(3 -1.389e-15 0)
(3 -1.76722e-15 0)
(3 -2.16139e-15 0)
(3 -5.18942e-15 0)
(1.5476 0.116586 0)
(0.78949 0.0975188 0)
(0.746101 0.116005 0)
(0.728566 0.111819 0)
(0.710685 0.10622 0)
(0.694166 0.100534 0)
(0.678013 0.0988445 0)
(0.662328 0.102345 0)
(0.647239 0.110361 0)
(0.63244 0.119835 0)
(0.61664 0.125493 0)
(0.600808 0.124722 0)
(0.586415 0.118982 0)
(0.571948 0.113703 0)
(0.556643 0.113661 0)
(0.541584 0.119348 0)
(0.525962 0.126164 0)
(0.509503 0.128481 0)
(0.493482 0.126093 0)
(0.477109 0.124316 0)
(0.460554 0.126868 0)
(0.44407 0.131416 0)
(0.427324 0.133207 0)
(0.410675 0.133204 0)
(0.39389 0.135711 0)
(0.377196 0.140682 0)
(0.360109 0.144686 0)
(0.34296 0.145369 0)
(0.326415 0.143741 0)
(0.310465 0.141994 0)
(0.294676 0.14078 0)
(0.278385 0.140045 0)
(0.261108 0.139896 0)
(0.242754 0.140671 0)
(0.223611 0.143435 0)
(0.203989 0.147682 0)
(0.184131 0.151935 0)
(0.16417 0.15479 0)
(0.144563 0.15648 0)
(0.125463 0.158886 0)
(0.106125 0.160597 0)
(0.0874319 0.163017 0)
(0.0686356 0.166073 0)
(0.0497061 0.170443 0)
(0.030064 0.173409 0)
(0.0104304 0.177132 0)
(3 1.41654e-16 0)
(3 4.86442e-17 0)
(3 5.32707e-17 0)
(3 8.63021e-17 0)
(3 -6.49402e-17 0)
(3 -4.94926e-16 0)
(3 -1.47863e-15 0)
(3 -1.77753e-15 0)
(3 -1.69761e-15 0)
(3 -1.34116e-15 0)
(3 -1.45053e-15 0)
(3 -1.1554e-15 0)
(3 -7.86328e-16 0)
(3 -3.00434e-17 0)
(3 1.69447e-16 0)
(3 8.76133e-16 0)
(3 6.29452e-16 0)
(3 3.81863e-16 0)
(3 3.26967e-16 0)
(3 1.23802e-16 0)
(3 -9.14624e-17 0)
(3 -2.09628e-16 0)
(3 2.21319e-16 0)
(3 7.19465e-16 0)
(3 1.21604e-15 0)
(3 1.03444e-15 0)
(3 2.15479e-15 0)
(3 4.0916e-15 0)
(3 4.78327e-15 0)
(3 4.85205e-15 0)
(3 4.68124e-15 0)
(3 3.64262e-15 0)
(3 1.64366e-15 0)
(3 1.45152e-15 0)
(3 1.23282e-15 0)
(3 -4.26961e-16 0)
(3 -5.69624e-16 0)
(3 -3.35359e-16 0)
(3 -5.95002e-16 0)
(3 -1.04368e-15 0)
(3 -1.55651e-15 0)
(3 -1.41186e-15 0)
(3 -8.61486e-16 0)
(3 -5.01485e-16 0)
(3 -6.28531e-16 0)
(3 -1.98126e-15 0)
(3 -2.14015e-15 0)
(3 -2.49829e-15 0)
(3 -1.87023e-15 0)
(3 -8.73117e-15 0)
(1.66286 0.129148 0)
(0.799576 0.111528 0)
(0.747534 0.129959 0)
(0.730073 0.125781 0)
(0.712437 0.120076 0)
(0.696226 0.113733 0)
(0.680165 0.111171 0)
(0.664437 0.114019 0)
(0.649396 0.121966 0)
(0.634959 0.13188 0)
(0.61962 0.138249 0)
(0.604009 0.13794 0)
(0.589523 0.132667 0)
(0.57481 0.127684 0)
(0.559251 0.127877 0)
(0.543954 0.133709 0)
(0.528112 0.140531 0)
(0.511475 0.142861 0)
(0.495259 0.140742 0)
(0.478774 0.13938 0)
(0.462323 0.142285 0)
(0.446102 0.146939 0)
(0.429736 0.148727 0)
(0.413457 0.148841 0)
(0.396974 0.151647 0)
(0.380596 0.157053 0)
(0.363792 0.161382 0)
(0.346872 0.161993 0)
(0.330503 0.159986 0)
(0.314541 0.157963 0)
(0.298575 0.156871 0)
(0.281983 0.156618 0)
(0.264383 0.1571 0)
(0.24578 0.15847 0)
(0.226496 0.161881 0)
(0.206785 0.166793 0)
(0.186749 0.171587 0)
(0.16641 0.174652 0)
(0.146241 0.17639 0)
(0.126532 0.178882 0)
(0.106456 0.180573 0)
(0.0874192 0.182826 0)
(0.0684788 0.185738 0)
(0.0495654 0.190128 0)
(0.0300433 0.193122 0)
(0.0104305 0.19701 0)
(3 8.71159e-17 0)
(3 -1.29561e-16 0)
(3 2.41268e-16 0)
(3 3.68018e-16 0)
(3 1.70377e-17 0)
(3 -4.54313e-16 0)
(3 -1.04477e-15 0)
(3 -7.75182e-16 0)
(3 -7.77518e-16 0)
(3 -9.3466e-16 0)
(3 -6.71155e-16 0)
(3 -5.07366e-16 0)
(3 -9.04676e-17 0)
(3 9.97595e-16 0)
(3 1.22187e-15 0)
(3 8.75755e-16 0)
(3 2.4665e-16 0)
(3 3.00509e-16 0)
(3 5.38906e-16 0)
(3 -4.24147e-17 0)
(3 -2.87021e-16 0)
(3 4.73034e-16 0)
(3 7.37115e-16 0)
(3 1.05458e-15 0)
(3 1.29948e-15 0)
(3 9.57059e-16 0)
(3 8.93006e-16 0)
(3 2.32474e-15 0)
(3 3.50653e-15 0)
(3 3.82884e-15 0)
(3 4.45092e-15 0)
(3 4.47845e-15 0)
(3 2.84862e-15 0)
(3 7.99469e-16 0)
(3 -2.18326e-16 0)
(3 -8.36803e-16 0)
(3 -8.15643e-16 0)
(3 -2.81102e-16 0)
(3 5.21707e-16 0)
(3 3.3244e-17 0)
(3 6.87671e-16 0)
(3 1.26066e-15 0)
(3 1.25951e-15 0)
(3 3.69754e-16 0)
(3 -1.07269e-16 0)
(3 -5.73115e-16 0)
(3 -1.37332e-15 0)
(3 -1.6258e-15 0)
(3 -1.65923e-15 0)
(3 -3.63183e-15 0)
(1.79923 0.138659 0)
(0.81242 0.125886 0)
(0.751436 0.143648 0)
(0.73353 0.139462 0)
(0.715056 0.134093 0)
(0.698325 0.127118 0)
(0.681845 0.124007 0)
(0.665794 0.126339 0)
(0.650484 0.13396 0)
(0.635906 0.14412 0)
(0.620513 0.151019 0)
(0.604592 0.151313 0)
(0.589528 0.146521 0)
(0.574391 0.14188 0)
(0.558824 0.142266 0)
(0.544009 0.148155 0)
(0.529036 0.154867 0)
(0.51341 0.157078 0)
(0.498073 0.155088 0)
(0.482188 0.154036 0)
(0.466156 0.157185 0)
(0.450153 0.161882 0)
(0.43387 0.163738 0)
(0.417524 0.164187 0)
(0.400911 0.167518 0)
(0.384435 0.173495 0)
(0.367551 0.178157 0)
(0.350605 0.178656 0)
(0.334264 0.176264 0)
(0.318253 0.17399 0)
(0.302184 0.173073 0)
(0.285493 0.173345 0)
(0.267821 0.174523 0)
(0.249162 0.17659 0)
(0.229852 0.180676 0)
(0.210077 0.186245 0)
(0.189875 0.191602 0)
(0.169227 0.1949 0)
(0.148621 0.196676 0)
(0.128365 0.199219 0)
(0.107688 0.200904 0)
(0.0882007 0.203016 0)
(0.068957 0.205744 0)
(0.0498714 0.210076 0)
(0.0302768 0.212979 0)
(0.0105192 0.216925 0)
(3 -3.3531e-17 0)
(3 -1.99278e-16 0)
(3 -5.6013e-16 0)
(3 -7.40778e-16 0)
(3 -6.56508e-16 0)
(3 -6.83045e-16 0)
(3 -7.16111e-17 0)
(3 -5.00592e-17 0)
(3 -1.94252e-16 0)
(3 -1.64053e-16 0)
(3 2.56362e-17 0)
(3 4.25298e-17 0)
(3 -3.09709e-16 0)
(3 -5.83553e-16 0)
(3 6.96714e-17 0)
(3 -5.75386e-16 0)
(3 -3.99015e-16 0)
(3 -4.33765e-16 0)
(3 -1.72161e-16 0)
(3 1.23463e-16 0)
(3 7.53992e-17 0)
(3 3.43056e-16 0)
(3 4.46386e-16 0)
(3 8.95169e-16 0)
(3 6.51095e-16 0)
(3 7.64441e-16 0)
(3 8.28866e-16 0)
(3 1.95288e-15 0)
(3 1.93507e-15 0)
(3 2.68365e-15 0)
(3 2.87546e-15 0)
(3 2.72795e-15 0)
(3 2.8202e-15 0)
(3 1.62862e-15 0)
(3 3.67827e-16 0)
(3 4.41524e-17 0)
(3 3.72598e-16 0)
(3 -2.01914e-16 0)
(3 2.16915e-16 0)
(3 5.18253e-16 0)
(3 4.18621e-16 0)
(3 2.29942e-17 0)
(3 -3.57666e-16 0)
(3 -3.09995e-16 0)
(3 -1.07661e-16 0)
(3 6.65908e-16 0)
(3 -5.076e-16 0)
(3 -1.21701e-15 0)
(3 -9.61534e-16 0)
(3 -1.21412e-15 0)
(1.95369 0.145306 0)
(0.827106 0.139642 0)
(0.754993 0.157637 0)
(0.736679 0.153564 0)
(0.716965 0.149111 0)
(0.698833 0.141839 0)
(0.681222 0.1376 0)
(0.664536 0.139179 0)
(0.649063 0.146268 0)
(0.634963 0.156326 0)
(0.620425 0.163645 0)
(0.605173 0.164604 0)
(0.590416 0.160382 0)
(0.57551 0.155923 0)
(0.560361 0.156202 0)
(0.54629 0.161813 0)
(0.532271 0.168173 0)
(0.517507 0.170297 0)
(0.502569 0.168701 0)
(0.486683 0.16831 0)
(0.470408 0.172011 0)
(0.453897 0.176997 0)
(0.43703 0.179092 0)
(0.420176 0.179984 0)
(0.40333 0.183869 0)
(0.386985 0.190328 0)
(0.370456 0.195087 0)
(0.35402 0.195238 0)
(0.338164 0.192352 0)
(0.322358 0.189831 0)
(0.306287 0.189176 0)
(0.289537 0.190123 0)
(0.271784 0.192159 0)
(0.252987 0.195028 0)
(0.233519 0.199827 0)
(0.21354 0.206083 0)
(0.193104 0.21203 0)
(0.172196 0.215586 0)
(0.151293 0.217363 0)
(0.130658 0.219909 0)
(0.109583 0.221579 0)
(0.0896459 0.223577 0)
(0.0699686 0.226155 0)
(0.050539 0.230439 0)
(0.0306774 0.233203 0)
(0.0106634 0.237185 0)
(3 -2.11616e-16 0)
(3 -6.07665e-16 0)
(3 -6.68932e-16 0)
(3 -4.64793e-16 0)
(3 8.29135e-17 0)
(3 1.47943e-16 0)
(3 3.90859e-16 0)
(3 4.79119e-17 0)
(3 -1.21698e-15 0)
(3 -5.91566e-16 0)
(3 -7.43804e-16 0)
(3 -7.87189e-16 0)
(3 -4.22079e-16 0)
(3 -2.15776e-15 0)
(3 -1.90947e-15 0)
(3 -1.36398e-15 0)
(3 -7.4124e-16 0)
(3 -2.67949e-16 0)
(3 -5.19755e-16 0)
(3 -2.2992e-16 0)
(3 4.28987e-16 0)
(3 1.50346e-16 0)
(3 2.94684e-16 0)
(3 5.9398e-16 0)
(3 6.52654e-16 0)
(3 4.64722e-16 0)
(3 6.12918e-16 0)
(3 7.671e-17 0)
(3 7.06075e-16 0)
(3 1.77644e-15 0)
(3 1.9371e-15 0)
(3 2.04725e-15 0)
(3 2.01696e-15 0)
(3 1.17658e-15 0)
(3 7.90541e-16 0)
(3 8.30255e-16 0)
(3 1.37081e-15 0)
(3 9.63782e-16 0)
(3 7.61941e-16 0)
(3 9.62442e-16 0)
(3 7.14617e-17 0)
(3 -1.17951e-15 0)
(3 -1.63862e-15 0)
(3 -4.02466e-16 0)
(3 4.9214e-16 0)
(3 3.13883e-16 0)
(3 7.09198e-17 0)
(3 -3.09785e-16 0)
(3 -5.82886e-16 0)
(3 -9.91e-16 0)
(2.12519 0.148951 0)
(0.844284 0.154378 0)
(0.754945 0.171739 0)
(0.736912 0.16815 0)
(0.717359 0.16499 0)
(0.699229 0.157787 0)
(0.681694 0.15234 0)
(0.665357 0.152569 0)
(0.650608 0.158678 0)
(0.637413 0.168236 0)
(0.623752 0.17574 0)
(0.609028 0.177433 0)
(0.594315 0.173971 0)
(0.579373 0.169726 0)
(0.564193 0.169751 0)
(0.550215 0.174967 0)
(0.536444 0.181114 0)
(0.521749 0.183597 0)
(0.50645 0.182782 0)
(0.490125 0.183191 0)
(0.473504 0.187399 0)
(0.456744 0.192535 0)
(0.439818 0.194671 0)
(0.423085 0.195817 0)
(0.406597 0.200102 0)
(0.390796 0.206857 0)
(0.374773 0.211514 0)
(0.358804 0.211265 0)
(0.343182 0.208057 0)
(0.327242 0.205559 0)
(0.310882 0.205411 0)
(0.293898 0.207237 0)
(0.275995 0.210252 0)
(0.257053 0.213921 0)
(0.23744 0.219352 0)
(0.217309 0.226237 0)
(0.196713 0.232739 0)
(0.175637 0.236558 0)
(0.154554 0.238329 0)
(0.133672 0.240884 0)
(0.112273 0.242566 0)
(0.0918223 0.244505 0)
(0.0715264 0.247013 0)
(0.0515259 0.251322 0)
(0.0311756 0.253968 0)
(0.010825 0.258023 0)
(3 -1.03569e-16 0)
(3 -8.52892e-17 0)
(3 1.25809e-16 0)
(3 5.27985e-16 0)
(3 7.81156e-16 0)
(3 9.92419e-16 0)
(3 6.04114e-16 0)
(3 6.25737e-16 0)
(3 6.7408e-16 0)
(3 9.34538e-16 0)
(3 7.81554e-16 0)
(3 -8.21145e-17 0)
(3 -2.659e-16 0)
(3 -1.09572e-15 0)
(3 -9.91255e-16 0)
(3 -3.61164e-16 0)
(3 -2.24819e-16 0)
(3 -2.71215e-16 0)
(3 -5.82102e-16 0)
(3 -8.09845e-16 0)
(3 -9.06648e-16 0)
(3 -4.42819e-16 0)
(3 -2.34476e-17 0)
(3 -1.42124e-16 0)
(3 3.47647e-16 0)
(3 1.76149e-16 0)
(3 5.2667e-17 0)
(3 -4.33427e-17 0)
(3 4.33501e-16 0)
(3 1.04181e-15 0)
(3 2.11911e-15 0)
(3 2.11192e-15 0)
(3 1.70998e-15 0)
(3 1.26982e-15 0)
(3 2.23968e-15 0)
(3 1.92149e-15 0)
(3 9.40146e-16 0)
(3 6.19486e-16 0)
(3 1.93708e-16 0)
(3 1.62704e-17 0)
(3 -2.62875e-16 0)
(3 -6.49617e-16 0)
(3 3.41605e-17 0)
(3 -3.74475e-17 0)
(3 -2.13883e-16 0)
(3 -6.86498e-17 0)
(3 -6.33146e-17 0)
(3 6.28222e-17 0)
(3 -2.49828e-16 0)
(3 -6.14691e-16 0)
(2.3181 0.148935 0)
(0.871062 0.171246 0)
(0.757152 0.185344 0)
(0.740433 0.182509 0)
(0.722247 0.180734 0)
(0.70545 0.173842 0)
(0.688722 0.167188 0)
(0.672534 0.165669 0)
(0.657767 0.170441 0)
(0.644598 0.179369 0)
(0.630985 0.18737 0)
(0.616068 0.190155 0)
(0.600943 0.187676 0)
(0.58568 0.183771 0)
(0.57013 0.183542 0)
(0.555725 0.188353 0)
(0.541726 0.194458 0)
(0.526809 0.197522 0)
(0.511194 0.19747 0)
(0.494762 0.198411 0)
(0.478248 0.202791 0)
(0.461667 0.207843 0)
(0.444873 0.209914 0)
(0.428164 0.211302 0)
(0.411766 0.216041 0)
(0.396122 0.223133 0)
(0.380229 0.227711 0)
(0.364443 0.22718 0)
(0.348854 0.223874 0)
(0.33269 0.221607 0)
(0.316019 0.2221 0)
(0.298814 0.224895 0)
(0.280788 0.228914 0)
(0.26173 0.233306 0)
(0.241983 0.239221 0)
(0.221724 0.246642 0)
(0.200938 0.253667 0)
(0.179607 0.257793 0)
(0.158238 0.259629 0)
(0.137025 0.262265 0)
(0.115213 0.264015 0)
(0.0941394 0.265963 0)
(0.0730979 0.268443 0)
(0.0524109 0.272809 0)
(0.0315008 0.275358 0)
(0.010899 0.279513 0)
(3 1.85922e-16 0)
(3 6.747e-16 0)
(3 8.07761e-16 0)
(3 9.44852e-16 0)
(3 4.75905e-16 0)
(3 2.17621e-16 0)
(3 4.19037e-16 0)
(3 1.26238e-15 0)
(3 2.11019e-15 0)
(3 1.79806e-15 0)
(3 2.17581e-15 0)
(3 1.6847e-15 0)
(3 1.80146e-16 0)
(3 -7.70037e-16 0)
(3 -1.03927e-15 0)
(3 -8.03532e-16 0)
(3 -6.17206e-16 0)
(3 -7.59871e-16 0)
(3 -4.65339e-16 0)
(3 -8.95127e-16 0)
(3 -8.82631e-16 0)
(3 -7.48299e-16 0)
(3 -6.17359e-16 0)
(3 -8.41157e-16 0)
(3 -5.12494e-16 0)
(3 -1.81732e-16 0)
(3 -4.6601e-16 0)
(3 -1.4878e-16 0)
(3 2.78076e-16 0)
(3 1.46148e-16 0)
(3 8.82209e-16 0)
(3 4.13464e-16 0)
(3 1.54248e-16 0)
(3 6.77115e-16 0)
(3 1.86278e-15 0)
(3 1.79763e-15 0)
(3 8.28671e-16 0)
(3 1.15358e-16 0)
(3 -8.30144e-16 0)
(3 -5.33178e-16 0)
(3 -5.04901e-16 0)
(3 -3.71008e-16 0)
(3 -2.83309e-16 0)
(3 -5.72586e-16 0)
(3 -1.73197e-15 0)
(3 -1.29658e-15 0)
(3 -8.63915e-16 0)
(3 -3.60961e-16 0)
(3 1.5414e-16 0)
(3 -2.42279e-16 0)
(2.52173 0.143702 0)
(0.909762 0.190659 0)
(0.764773 0.197203 0)
(0.750924 0.195454 0)
(0.734618 0.194015 0)
(0.71914 0.187733 0)
(0.702785 0.180822 0)
(0.685989 0.178193 0)
(0.670002 0.182098 0)
(0.655589 0.190887 0)
(0.641214 0.199571 0)
(0.625872 0.203292 0)
(0.6105 0.201552 0)
(0.595036 0.198012 0)
(0.579122 0.197603 0)
(0.56407 0.20206 0)
(0.549557 0.20825 0)
(0.534272 0.211971 0)
(0.518386 0.212557 0)
(0.501962 0.213708 0)
(0.485617 0.217983 0)
(0.46918 0.222939 0)
(0.452283 0.225143 0)
(0.435256 0.226913 0)
(0.418654 0.23213 0)
(0.402999 0.239458 0)
(0.38727 0.243812 0)
(0.371838 0.242972 0)
(0.356442 0.239697 0)
(0.340187 0.237831 0)
(0.323265 0.239078 0)
(0.305797 0.242904 0)
(0.287531 0.247939 0)
(0.268198 0.253015 0)
(0.248111 0.259296 0)
(0.227514 0.267222 0)
(0.206272 0.274825 0)
(0.184365 0.2794 0)
(0.162391 0.281449 0)
(0.140616 0.284251 0)
(0.118277 0.286092 0)
(0.0965496 0.288067 0)
(0.0747553 0.29049 0)
(0.0533609 0.29489 0)
(0.0318418 0.297348 0)
(0.0109847 0.301621 0)
(3 2.64133e-16 0)
(3 -1.15154e-17 0)