/*--------------------------------*- C++ -*----------------------------------*\
  =========                 |
  \\      /  F ield         | OpenFOAM: The Open Source CFD Toolbox
   \\    /   O peration     | Website:  https://openfoam.org
    \\  /    A nd           | Version:  7
     \\/     M anipulation  |
\*---------------------------------------------------------------------------*/
FoamFile
{
    version     2.0;
    format      ascii;
    class       volScalarField;
    location    "3.9";
    object      rho;
}
// * * * * * * * * * * * * * * * * * * * * * * * * * * * * * * * * * * * * * //

dimensions      [1 -3 0 0 0 0 0];

internalField   nonuniform List<scalar> 
4032
(
1.40001
1.40001
1.40001
1.40001
1.40001
1.40001
1.40001
1.40001
1.40001
1.40001
1.40001
1.56511
4.36532
5.4696
5.51656
5.58998
5.65507
5.71693
5.77433
5.82677
5.87277
5.90818
5.93325
5.9508
1.40001
1.40001
1.40001
1.40001
1.40001
1.40001
1.40001
1.40001
1.40001
1.40001
1.40001
1.54241
4.29566
5.45562
5.51071
5.58205
5.6457
5.70599
5.76201
5.81289
5.85699
5.8901
5.91241
5.92829
1.40001
1.40001
1.40001
1.40001
1.40001
1.40001
1.40001
1.40001
1.40001
1.40001
1.40001
1.48617
4.18353
5.44545
5.49459
5.56462
5.62805
5.68741
5.74211
5.7912
5.83356
5.86536
5.88608
5.90163
1.40001
1.40001
1.40001
1.40001
1.40001
1.40001
1.40001
1.40001
1.40001
1.40001
1.40001
1.40854
3.99295
5.42673
5.47396
5.53809
5.59836
5.65402
5.70595
5.75341
5.79528
5.82615
5.84431
5.85673
1.40001
1.40001
1.40001
1.40001
1.40001
1.40001
1.40001
1.40001
1.40001
1.40001
1.40001
1.40011
3.71064
5.36682
5.43028
5.49097
5.551
5.60464
5.65339
5.69551
5.73033
5.75648
5.77204
5.79055
1.40001
1.40001
1.40001
1.40001
1.40001
1.40001
1.40001
1.40001
1.40001
1.40001
1.40001
1.4
3.34958
5.28016
5.39133
5.44668
5.50262
5.54928
5.59031
5.62613
5.65667
5.68181
5.6925
5.68315
1.40001
1.40001
1.40001
1.40001
1.40001
1.40001
1.40001
1.40001
1.40001
1.40001
1.40001
1.4
2.92889
5.15805
5.36561
5.41174
5.45661
5.4896
5.51475
5.53454
5.54297
5.53258
5.51549
5.50814
1.40001
1.40001
1.40001
1.40001
1.40001
1.40001
1.40001
1.40001
1.40001
1.40001
1.40001
1.40001
2.45293
4.99215
5.37534
5.39643
5.42125
5.43581
5.43986
5.43703
5.41889
5.38938
5.33574
5.31095
1.40001
1.40001
1.40001
1.40001
1.40001
1.40001
1.40001
1.40001
1.40001
1.40001
1.40001
1.40001
1.93788
4.75152
5.40853
5.38056
5.3914
5.3866
5.36782
5.33642
5.27599
5.17205
4.86011
4.01627
1.40001
1.40001
1.40001
1.40001
1.40001
1.40001
1.40001
1.40001
1.40001
1.40001
1.40001
1.40001
1.48247
4.28872
5.41496
5.3622
5.34501
5.31935
5.27976
5.21827
5.11576
4.92662
4.60147
3.70625
1.40001
1.40001
1.40001
1.40001
1.40001
1.40001
1.40001
1.40001
1.40001
1.40001
1.40001
1.40001
1.4008
3.56381
5.17626
5.24578
5.25924
5.23091
5.18175
5.09648
4.96508
4.73155
4.39033
3.56722
1.40001
1.40001
1.40001
1.40001
1.40001
1.40001
1.40001
1.40001
1.40001
1.40001
1.40001
1.40001
1.39999
2.74231
4.97551
5.20514
5.20431
5.1718
5.11035
5.00227
4.84238
4.59724
4.21665
3.55301
1.40001
1.40001
1.40001
1.40001
1.40001
1.40001
1.40001
1.40001
1.40001
1.40001
1.40001
1.40001
1.4
1.93391
4.70909
5.22142
5.16034
5.09914
5.02276
4.90346
4.72919
4.48854
4.10052
3.57214
1.40001
1.40001
1.40001
1.40001
1.40001
1.40001
1.40001
1.40001
1.40001
1.40001
1.40001
1.40001
1.4
1.46097
3.9642
5.09788
5.07056
5.01849
4.93853
4.81701
4.646
4.39991
4.04169
3.62296
1.40001
1.40001
1.40001
1.40001
1.40001
1.40001
1.40001
1.40001
1.40001
1.40001
1.40001
1.40001
1.4
1.40017
2.8718
4.91596
5.0425
4.9889
4.89668
4.7557
4.58189
4.3302
4.01564
3.66936
1.40001
1.40001
1.40001
1.40001
1.40001
1.40001
1.40001
1.40001
1.40001
1.40001
1.40001
1.40001
1.40001
1.4
1.78551
4.64956
5.10044
4.96607
4.84298
4.69207
4.50781
4.27985
4.01128
3.71593
1.40001
1.40001
1.40001
1.40001
1.40001
1.40001
1.40001
1.40001
1.40001
1.40001
1.40001
1.40001
1.40001
1.4
1.42236
3.71218
4.94094
4.8591
4.76599
4.6299
4.45709
4.25036
4.01262
3.75095
1.40001
1.40001
1.40001
1.40001
1.40001
1.40001
1.40001
1.40001
1.40001
1.40001
1.40001
1.40001
1.40001
1.4
1.39992
2.42065
4.74923
4.84271
4.76141
4.62628
4.45394
4.25037
4.02386
3.78335
1.40001
1.40001
1.40001
1.40001
1.40001
1.40001
1.40001
1.40001
1.40001
1.40001
1.40001
1.40001
1.40001
1.40001
1.39999
1.56219
3.97835
4.84867
4.75036
4.61308
4.44438
4.25123
4.04103
3.81782
1.40001
1.40001
1.40001
1.40001
1.40001
1.40001
1.40001
1.40001
1.40001
1.40001
1.40001
1.40001
1.40001
1.40001
1.4
1.40272
2.64951
4.6563
4.72381
4.59541
4.43903
4.25895
4.06423
3.85759
1.40001
1.40001
1.40001
1.40001
1.40001
1.40001
1.40001
1.40001
1.40001
1.40001
1.40001
1.40001
1.40001
1.40001
1.4
1.4
1.63384
3.96821
4.75681
4.61135
4.46019
4.28357
4.09523
3.89889
1.40001
1.40001
1.40001
1.40001
1.40001
1.40001
1.40001
1.40001
1.40001
1.40001
1.40001
1.40001
1.40001
1.40001
1.40001
1.4
1.40634
2.56451
4.55337
4.61691
4.47049
4.2992
4.1181
3.93419
1.40001
1.40001
1.40001
1.40001
1.40001
1.40001
1.40001
1.40001
1.40001
1.40001
1.40001
1.40001
1.40001
1.40001
1.40001
1.40001
1.40002
1.59642
3.75839
4.67213
4.50531
4.33633
4.16079
3.98528
1.40001
1.40001
1.40001
1.40001
1.40001
1.40001
1.40001
1.40001
1.40001
1.40001
1.40001
1.40001
1.40001
1.40001
1.40001
1.40001
1.40001
1.40469
2.29105
4.32516
4.52177
4.37231
4.20818
4.03638
1.40001
1.40001
1.40001
1.40001
1.40001
1.40001
1.40001
1.40001
1.40001
1.40001
1.40001
1.40001
1.40001
1.40001
1.40001
1.40001
1.40001
1.40003
1.50666
3.26315
4.52232
4.43568
4.2781
4.10755
1.40001
1.40001
1.40001
1.40001
1.40001
1.40001
1.40001
1.40001
1.40001
1.40001
1.40001
1.40001
1.40001
1.40001
1.40001
1.40001
1.40001
1.40001
1.40177
1.91871
3.96583
4.47591
4.32917
4.15847
1.40001
1.40001
1.40001
1.40001
1.40001
1.40001
1.40001
1.40001
1.40001
1.40001
1.40001
1.40001
1.40001
1.40001
1.40001
1.40001
1.40001
1.40001
1.40001
1.43451
2.59955
4.25495
4.36532
4.2206
1.40001
1.40001
1.40001
1.40001
1.40001
1.40001
1.40001
1.40001
1.40001
1.40001
1.40001
1.40001
1.40001
1.40001
1.40001
1.40001
1.40001
1.40001
1.40001
1.40041
1.59556
3.31334
4.33723
4.29092
1.40001
1.40001
1.40001
1.40001
1.40001
1.40001
1.40001
1.40001
1.40001
1.40001
1.40001
1.40001
1.40001
1.40001
1.40001
1.40001
1.40001
1.40001
1.40001
1.40001
1.40576
1.96159
3.78427
4.30588
1.40001
1.40001
1.40001
1.40001
1.40001
1.40001
1.40001
1.40001
1.40001
1.40001
1.40001
1.40001
1.40001
1.40001
1.40001
1.40001
1.40001
1.40001
1.40001
1.40001
1.40005
1.44132
2.43352
4.03716
1.40001
1.40001
1.40001
1.40001
1.40001
1.40001
1.40001
1.40001
1.40001
1.40001
1.40001
1.40001
1.40001
1.40001
1.40001
1.40001
1.40001
1.40001
1.40001
1.40001
1.40001
1.4006
1.54371
2.92056
1.40001
1.40001
1.40001
1.40001
1.40001
1.40001
1.40001
1.40001
1.40001
1.40001
1.40001
1.40001
1.40001
1.40001
1.40001
1.40001
1.40001
1.40001
1.40001
1.40001
1.40001
1.40001
1.40385
1.73392
1.40001
1.40001
1.40001
1.40001
1.40001
1.40001
1.40001
1.40001
1.40001
1.40001
1.40001
1.40001
1.40001
1.40001
1.40001
1.40001
1.40001
1.40001
1.40001
1.40001
1.40001
1.40001
1.40003
1.41726
1.40001
1.40001
1.40001
1.40001
1.40001
1.40001
1.40001
1.40001
1.40001
1.40001
1.40001
1.40001
1.40001
1.40001
1.40001
1.40001
1.40001
1.40001
1.40001
1.40001
1.40001
1.40001
1.40001
1.40022
1.40001
1.40001
1.40001
1.40001
1.40001
1.40001
1.40001
1.40001
1.40001
1.40001
1.40001
1.40001
1.40001
1.40001
1.40001
1.40001
1.40001
1.40001
1.40001
1.40001
1.40001
1.40001
1.40001
1.40001
1.40001
1.40001
1.40001
1.40001
1.40001
1.40001
1.40001
1.40001
1.40001
1.40001
1.40001
1.40001
1.40001
1.40001
1.40001
1.40001
1.40001
1.40001
1.40001
1.40001
1.40001
1.40001
1.40001
1.40001
1.40001
1.40001
1.40001
1.40001
1.40001
1.40001
1.40001
1.40001
1.40001
1.40001
1.40001
1.40001
1.40001
1.40001
1.40001
1.40001
1.40001
1.40001
1.40001
1.40001
1.40001
1.40001
1.40001
1.40001
1.40001
1.40001
1.40001
1.40001
1.40001
1.40001
1.40001
1.40001
1.40001
1.40001
1.40001
1.40001
1.40001
1.40001
1.40001
1.40001
1.40001
1.40001
1.40001
1.40001
1.40001
1.40001
1.40001
1.40001
1.40001
1.40001
1.40001
1.40001
1.40001
1.40001
1.40001
1.40001
1.40001
1.40001
1.40001
1.40001
1.40001
1.40001
1.40001
1.40001
1.40001
1.40001
1.40001
1.40001
1.40001
1.40001
1.40001
1.40001
1.40001
1.40001
1.40001
1.40001
1.40001
1.40001
1.40001
1.40001
1.40001
1.40001
1.40001
1.40001
1.40001
1.40001
1.40001
1.40001
1.40001
1.40001
1.40001
1.40001
1.40001
1.40001
1.40001
1.40001
1.34912
0.479022
0.198806
0.204479
0.264873
0.334592
0.379671
0.458956
0.57355
0.673221
0.790441
0.891226
0.920562
0.9269
0.94109
0.97139
1.00539
1.04098
1.06822
1.06788
1.05683
1.03682
1.03977
1.05352
1.07966
1.11471
1.11681
1.38088
2.55112
2.85055
2.90436
2.93472
2.94312
2.94583
2.9478
2.95155
2.95017
2.9387
2.92203
2.90727
2.89684
2.88903
2.87559
2.84661
2.81058
2.78104
2.76319
2.75721
2.75433
2.73488
2.69818
2.65922
2.62569
2.60163
2.58755
2.57511
2.55035
2.51663
2.48416
2.45736
2.43896
2.42485
2.40306
2.37547
2.34622
2.3146
2.28592
2.2617
2.24306
2.22928
2.21396
2.1923
2.16648
2.135
2.10001
2.06974
2.04702
2.02849
2.01395
2.00142
1.98404
1.95962
1.92407
1.89024
1.86758
1.85073
1.83542
1.82036
1.8044
1.78473
1.75721
1.73036
1.7152
1.70359
1.69902
1.68076
1.9968
1.25263
0.809584
0.642342
0.632925
0.609962
0.577969
0.548208
0.547967
0.573559
0.643022
0.729548
0.80673
0.860616
0.894816
0.933278
0.982864
1.02954
1.05554
1.06124
1.06529
1.07401
1.08519
1.08844
1.09606
1.11186
1.11366
1.32576
2.5253
2.95642
2.99543
2.99072
2.97754
2.97285
2.9743
2.98243
2.98722
2.97465
2.94634
2.91735
2.89789
2.89306
2.89899
2.89604
2.86295
2.81692
2.77588
2.74427
2.73037
2.72807
2.72028
2.69539
2.65963
2.62402
2.59214
2.56719
2.55195
2.5348
2.51046
2.48235
2.4524
2.4232
2.39707
2.37647
2.35818
2.33684
2.31139
2.2826
2.25381
2.22906
2.20622
2.18739
2.16772
2.14487
2.12118
2.09292
2.06255
2.03504
2.01357
1.99435
1.97657
1.95687
1.93225
1.90632
1.87926
1.85437
1.83593
1.82113
1.80627
1.78903
1.76765
1.74266
1.72081
1.70641
1.6971
1.67563
2.47181
1.83822
1.42114
1.10481
0.921462
0.849022
0.791975
0.719259
0.643673
0.631449
0.65502
0.709626
0.767689
0.830971
0.888494
0.920345
0.962629
1.02612
1.0641
1.08422
1.10272
1.12684
1.15999
1.16898
1.17062
1.16077
1.14272
1.22004
2.54863
3.20874
3.16186
3.12123
3.09797
3.08469
3.07364
3.07723
3.0862
3.09279
3.07586
3.04093
3.00335
2.97449
2.96427
2.97182
2.97152
2.94387
2.89956
2.84148
2.79234
2.76231
2.75324
2.75458
2.7432
2.71369
2.67372
2.62823
2.59385
2.57004
2.55769
2.54307
2.5161
2.48137
2.43653
2.39907
2.37676
2.36299
2.35343
2.33504
2.30866
2.2721
2.22711
2.19021
2.16743
2.15377
2.14523
2.12958
2.10857
2.07816
2.03694
1.99788
1.96999
1.95082
1.93848
1.92433
1.90689
1.8839
1.85437
1.82668
1.80816
1.79375
1.77993
1.76461
1.74324
1.71756
1.69941
1.67481
2.8214
2.26004
1.8786
1.57413
1.29928
1.11933
1.03569
0.982436
0.919105
0.846628
0.781041
0.759426
0.764256
0.782513
0.816884
0.843482
0.879106
0.944913
1.00134
1.03822
1.06855
1.101
1.15212
1.18905
1.19763
1.19616
1.2034
1.30126
2.37681
3.50832
3.45088
3.33115
3.29487
3.2704
3.24314
3.22271
3.20631
3.2054
3.20784
3.18526
3.15255
3.10686
3.07317
3.05637
3.05138
3.03978
3.01144
2.9728
2.91907
2.87047
2.84278
2.82627
2.81606
2.79552
2.76741
2.73263
2.68625
2.64823
2.62318
2.60115
2.57731
2.55068
2.51896
2.47728
2.43744
2.41416
2.39658
2.37978
2.3581
2.33033
2.29533
2.25505
2.21796
2.19337
2.17587
2.16053
2.1431
2.11912
2.08345
2.0412
2.0068
1.98305
1.96537
1.95035
1.93583
1.91921
1.89393
1.8585
1.83105
1.81597
1.80311
1.78991
1.77426
1.74925
1.71811
1.68094
3.03776
2.57692
2.19989
1.90995
1.67989
1.46905
1.24879
1.15485
1.11468
1.05827
0.979041
0.883332
0.820271
0.80659
0.814906
0.84083
0.85325
0.868675
0.886553
0.91293
0.953056
1.01215
1.09483
1.15873
1.18116
1.20774
1.33653
1.61794
2.15478
3.35011
3.65035
3.52871
3.4774
3.43114
3.3931
3.35416
3.32847
3.30898
3.3086
3.30246
3.28036
3.24568
3.19045
3.14858
3.12261
3.10183
3.08602
3.06243
3.03061
2.98611
2.93828
2.90616
2.88076
2.86077
2.83986
2.81618
2.78543
2.7428
2.69826
2.66484
2.63742
2.61289
2.58948
2.5624
2.52629
2.48531
2.45194
2.42431
2.39753
2.37159
2.34746
2.32394
2.29594
2.26104
2.22686
2.19821
2.17073
2.14175
2.11226
2.08596
2.06229
2.03737
2.01238
1.99107
1.972
1.95215
1.9278
1.89736
1.86969
1.85153
1.8371
1.8225
1.80625
1.78164
1.74581
1.70003
3.19485
2.80851
2.47818
2.1599
1.92057
1.74555
1.55622
1.36923
1.25519
1.21412
1.16683
1.09657
1.00635
0.919787
0.891365
0.897846
0.893442
0.879668
0.879734
0.871427
0.873261
0.898229
0.952298
1.02133
1.10632
1.23938
1.60054
1.98696
2.14346
2.60202
3.33965
3.52059
3.60747
3.57791
3.51216
3.4322
3.36394
3.33741
3.33028
3.34821
3.3422
3.31781
3.26924
3.20145
3.16277
3.13883
3.12588
3.1154
3.08999
3.05485
3.00427
2.95546
2.92754
2.90747
2.89192
2.87121
2.84487
2.80362
2.7488
2.70874
2.68477
2.66449
2.64425
2.6212
2.58738
2.53595
2.48655
2.45392
2.43044
2.41125
2.39504
2.37807
2.35598
2.32094
2.27147
2.22825
2.196
2.16959
2.14876
2.13134
2.11279
2.08922
2.05979
2.03107
2.0067
1.98378
1.95961
1.93306
1.90609
1.88445
1.86854
1.85291
1.83498
1.81
1.77656
1.7298
3.30931
2.97134
2.67587
2.38476
2.13048
1.93564
1.77611
1.61811
1.46836
1.3449
1.28221
1.24046
1.18417
1.11026
1.0121
0.96119
0.942017
0.909889
0.899597
0.906323
0.902392
0.891494
0.891449
0.909691
1.00998
1.36386
1.73494
2.01413
2.0778
2.12186
2.53367
3.19095
3.52755
3.61591
3.56931
3.48785
3.38565
3.3459
3.33315
3.35194
3.3579
3.3349
3.30145
3.24063
3.18493
3.15817
3.14241
3.13286
3.10991
3.08174
3.04564
3.00021
2.96477
2.9423
2.92059
2.89348
2.86376
2.82781
2.78346
2.74284
2.71679
2.6959
2.67138
2.64266
2.60588
2.55958
2.51109
2.477
2.45625
2.43947
2.42556
2.40759
2.38486
2.34729
2.29004
2.23951
2.21115
2.19314
2.17832
2.16367
2.14781
2.1277
2.0962
2.05917
2.03118
2.00954
1.98854
1.96482
1.93606
1.90698
1.88591
1.86875
1.85073
1.82948
1.80791
1.77003
3.40312
3.10167
2.8284
2.56618
2.33127
2.12343
1.93476
1.79815
1.68319
1.55657
1.41432
1.32849
1.30055
1.26205
1.19431
1.09368
1.04208
1.00859
0.975886
0.96712
0.951082
0.92805
0.930316
0.995415
1.27137
1.59221
1.74091
1.84662
1.88415
1.90753
1.98686
2.40297
3.04478
3.47074
3.55674
3.51208
3.42185
3.36218
3.3339
3.32293
3.32797
3.32366
3.30106
3.26308
3.20675
3.16429
3.13894
3.11846
3.10732
3.08843
3.06275
3.02865
2.98288
2.94006
2.90879
2.88347
2.85847
2.83368
2.80471
2.76643
2.72313
2.68766
2.65895
2.63082
2.60269
2.57414
2.54323
2.50944
2.48096
2.46222
2.44164
2.41595
2.38448
2.34628
2.30013
2.25749
2.23063
2.21462
2.20361
2.19198
2.17568
2.15145
2.11368
2.07251
2.04445
2.02507
2.00636
1.98411
1.95412
1.9189
1.89105
1.87118
1.85396
1.83791
1.82645
1.80087
3.47414
3.20789
2.95488
2.70478
2.49136
2.30303
2.11045
1.93296
1.82097
1.72048
1.6046
1.49329
1.3845
1.33246
1.30384
1.24905
1.17009
1.11279
1.07284
1.03171
1.00393
0.995484
1.06127
1.31446
1.63558
1.7424
1.7532
1.76359
1.78383
1.80713
1.8141
1.8569
2.14284
2.7521
3.2718
3.44976
3.44317
3.40415
3.35877
3.31954
3.29891
3.28255
3.27435
3.25544
3.22288
3.17097
3.13057
3.10736
3.09224
3.08005
3.05765
3.02853
2.98297
2.92701
2.89334
2.87067
2.85077
2.83136
2.80645
2.7707
2.71816
2.67123
2.64388
2.62202
2.60267
2.5851
2.56407
2.53564
2.49617
2.45485
2.42174
2.39204
2.36225
2.33197
2.3079
2.28709
2.2635
2.23669
2.21074
2.18688
2.16298
2.13842
2.11197
2.08264
2.05603
2.03446
2.01559
1.9948
1.96538
1.92453
1.88844
1.86803
1.85566
1.84585
1.84263
1.82173
3.53526
3.29613
3.05934
2.83004
2.62572
2.43691
2.2573
2.10114
1.96104
1.82153
1.72912
1.651
1.54738
1.43114
1.37198
1.34643
1.29472
1.22468
1.16624
1.12399
1.12058
1.19385
1.44709
1.77998
1.87331
1.833
1.81491
1.8066
1.81415
1.83099
1.83367
1.81478
1.8048
1.92066
2.40409
2.9889
3.31517
3.41727
3.40901
3.34732
3.28548
3.25946
3.24437
3.23882
3.21764
3.18007
3.12929
3.09932
3.0804
3.0676
3.04514
3.0173
2.97636
2.91897
2.88047
2.85835
2.84066
2.82353
2.79995
2.76782
2.71612
2.66455
2.63706
2.61635
2.60224
2.59004
2.56954
2.54157
2.49856
2.44563
2.40454
2.37447
2.34852
2.33032
2.31803
2.3031
2.28196
2.2512
2.21326
2.18038
2.15482
2.13121
2.10868
2.08864
2.06913
2.0483
2.02412
1.99873
1.97055
1.93736
1.90285
1.87807
1.86623
1.85848
1.85032
1.82353
3.5914
3.37122
3.14489
2.9364
2.74653
2.55767
2.37563
2.23641
2.10221
1.96428
1.83332
1.74905
1.67225
1.5786
1.48242
1.42285
1.37935
1.31741
1.25744
1.26053
1.34924
1.62969
1.96152
2.04122
2.00474
1.94721
1.91072
1.90402
1.90877
1.9016
1.88262
1.8568
1.81826
1.79924
1.83831
2.12597
2.69223
3.16269
3.35994
3.37681
3.29819
3.25094
3.2286
3.22727
3.21622
3.188
3.1405
3.09895
3.07587
3.06048
3.04018
3.01378
2.97727
2.92102
2.87471
2.85153
2.83396
2.81761
2.79577
2.76862
2.72632
2.67177
2.63784
2.61781
2.601
2.58047
2.55776
2.53226
2.49443
2.43969
2.39406
2.36909
2.35168
2.33805
2.32457
2.30746
2.2874
2.25521
2.21009
2.17328
2.14907
2.13013
2.11322
2.09417
2.06809
2.03622
2.00953
1.98612
1.9658
1.94861
1.92965
1.9042
1.87623
1.85547
1.84077
1.81094
3.64802
3.4375
3.22642
3.03394
2.84904
2.66282
2.49953
2.35365
2.21259
2.07904
1.96524
1.86399
1.76253
1.68112
1.60405
1.52633
1.45666
1.39465
1.40615
1.53779
1.80577
2.12662
2.21682
2.18549
2.14114
2.08405
2.02965
2.01097
1.99874
1.98134
1.95998
1.93891
1.90699
1.8548
1.8228
1.83178
1.95667
2.36662
2.89928
3.23268
3.26798
3.26931
3.24427
3.23889
3.22491
3.19872
3.16167
3.11134
3.08074
3.06191
3.04203
3.01867
2.9894
2.94409
2.88909
2.85416
2.83296
2.81467
2.79425
2.77211
2.74313
2.69873
2.65049
2.61958
2.59622
2.57348
2.5501
2.52397
2.48953
2.44202
2.39887
2.37779
2.363
2.34754
2.32933
2.30818
2.28148
2.24621
2.2041
2.16986
2.14911
2.13351
2.11774
2.09847
2.07012
2.03035
1.99821
1.98418
1.97472
1.96354
1.94711
1.92148
1.88339
1.84598
1.82613
1.80036
3.70162
3.49754
3.30157
3.122
2.94126
2.75961
2.60966
2.46486
2.3228
2.18339
2.0801
1.97711
1.87621
1.77229
1.69346
1.62342
1.5532
1.57452
1.75482
2.04344
2.27102
2.37046
2.34173
2.30924
2.27573
2.22569
2.1535
2.11073
2.09177
2.07837
2.05884
2.0325
1.99813
1.95404
1.89998
1.85509
1.85355
1.88612
2.08914
2.54061
2.97865
3.18008
3.24079
3.25378
3.24468
3.21503
3.18653
3.14362
3.1041
3.07499
3.04959
3.02569
3.0007
2.96988
2.92735
2.88019
2.8445
2.8192
2.7982
2.77873
2.75714
2.72602
2.67782
2.62711
2.59317
2.56849
2.54482
2.51942
2.49123
2.45879
2.42245
2.39168
2.37067
2.35187
2.33165
2.30788
2.27812
2.24146
2.20267
2.17332
2.15391
2.13666
2.11834
2.09746
2.07004
2.03437
2.00229
1.98038
1.96624
1.95375
1.9415
1.92407
1.88906
1.84368
1.81404
1.79133
3.74828
3.55704
3.37542
3.20328
3.02563
2.85825
2.71111
2.5663
2.41928
2.29503
2.18436
2.07523
1.97233
1.86633
1.78699
1.7252
1.77555
2.0268
2.38172
2.49808
2.51115
2.464
2.42717
2.42035
2.40059
2.36193
2.29654
2.22164
2.18785
2.16637
2.14326
2.11676
2.08929
2.05275
2.00073
1.94724
1.89922
1.87268
1.88176
1.9433
2.22023
2.65912
3.04979
3.16438
3.2341
3.24348
3.21399
3.18325
3.14836
3.10834
3.06562
3.03114
3.00698
2.98354
2.95598
2.9213
2.87827
2.83532
2.80629
2.78588
2.76562
2.74074
2.70338
2.64948
2.59808
2.56684
2.54525
2.52595
2.50698
2.48337
2.44828
2.40388
2.37086
2.3499
2.33039
2.30826
2.28121
2.24711
2.20846
2.17744
2.15723
2.13881
2.11914
2.09692
2.07218
2.04469
2.01292
1.98312
1.96197
1.9458
1.92954
1.91096
1.88836
1.85269
1.82047
1.79042
3.80606
3.62404
3.45022
3.28016
3.10665
2.95138
2.80537
2.65912
2.51372
2.39877
2.28123
2.17426
2.0481
1.96573
1.91911
2.0142
2.28479
2.66894
2.81727
2.74561
2.64466
2.567
2.54116
2.5412
2.52545
2.48789
2.43139
2.34751
2.28388
2.25293
2.22544
2.19713
2.16958
2.14119
2.10173
2.04574
1.99273
1.95011
1.91436
1.90392
1.91712
2.01467
2.3307
2.72833
3.04601
3.16309
3.20047
3.2205
3.18708
3.15301
3.09854
3.03645
3.00867
2.98957
2.96978
2.94683
2.91359
2.86664
2.82163
2.79253
2.76983
2.74614
2.71718
2.6764
2.62247
2.57732
2.55466
2.53852
2.52161
2.50119
2.47038
2.42184
2.37386
2.34722
2.32842
2.3098
2.28961
2.26425
2.22786
2.18298
2.15075
2.1324
2.11564
2.09853
2.0811
2.05972
2.02925
1.99038
1.95774
1.93646
1.91749
1.89823
1.87949
1.86076
1.83909
1.8002
3.85997
3.68696
3.51886
3.34829
3.1831
3.03707
2.89279
2.74171
2.61034
2.48824
2.37226
2.24938
2.14675
2.13635
2.29798
2.61516
2.89199
3.00428
2.96318
2.87149
2.77506
2.70396
2.67712
2.66436
2.63883
2.59673
2.5433
2.46728
2.39
2.34913
2.31929
2.28792
2.25365
2.21927
2.1814
2.13072
2.07509
2.03403
1.99975
1.9631
1.93262
1.92012
1.94036
2.0651
2.38352
2.76136
3.03066
3.14442
3.1831
3.18459
3.14091
3.06413
3.01488
2.99279
2.97719
2.95937
2.93413
2.89501
2.84248
2.80139
2.77481
2.75132
2.72652
2.69684
2.65686
2.60925
2.57256
2.54928
2.52881
2.50674
2.47851
2.43457
2.38093
2.35132
2.33503
2.31978
2.30306
2.28175
2.24664
2.19041
2.14646
2.12811
2.1153
2.10324
2.08975
2.07329
2.0479
2.00315
1.95249
1.92406
1.90697
1.89203
1.87906
1.86771
1.85407
1.81658
3.93172
3.76071
3.59271
3.42277
3.26467
3.1199
2.97484
2.82702
2.70064
2.57012
2.45655
2.34758
2.4001
2.66262
3.03921
3.17442
3.22331
3.17488
3.08662
3.01746
2.9386
2.85209
2.80801
2.7794
2.74375
2.69838
2.64538
2.57526
2.49858
2.44851
2.41398
2.38089
2.34615
2.30726
2.26027
2.20309
2.14489
2.10162
2.07104
2.04255
2.00894
1.97189
1.94411
1.92541
1.94583
2.09729
2.42864
2.78907
3.02959
3.13009
3.15102
3.10577
3.04438
3.00852
2.98538
2.96369
2.94178
2.90989
2.8609
2.81366
2.78315
2.75982
2.73751
2.71363
2.68398
2.64242
2.59529
2.5603
2.53448
2.50953
2.48159
2.44363
2.39248
2.35864
2.3425
2.32764
2.31212
2.29368
2.26282
2.20447
2.147
2.12659
2.11545
2.10633
2.09691
2.08363
2.0637
2.02099
1.95504
1.91548
1.90172
1.89234
1.88632
1.87867
1.86534
1.83051
3.98985
3.8243
3.65602
3.4915
3.34396
3.19807
3.04364
2.9107
2.77578
2.66593
2.57988
2.69747
3.04123
3.43128
3.50768
3.4138
3.34652
3.28647
3.23893
3.18564
3.1058
3.00084
2.93076
2.8909
2.85192
2.80498
2.75146
2.68498
2.60811
2.5524
2.51397
2.47648
2.43712
2.39588
2.34866
2.29003
2.22527
2.1743
2.13784
2.10735
2.07794
2.04465
2.00453
1.96951
1.93386
1.90848
1.94012
2.12356
2.46629
2.79865
3.03322
3.05924
3.06734
3.04706
3.00273
2.96826
2.9439
2.91488
2.87888
2.83387
2.79496
2.76935
2.7482
2.72687
2.7021
2.66609
2.61608
2.57082
2.53933
2.51371
2.4886
2.45788
2.41507
2.37287
2.34725
2.32993
2.31432
2.29743
2.27276
2.22844
2.16654
2.12903
2.11508
2.10442
2.09594
2.08492
2.06762
2.03418
1.97585
1.92434
1.905
1.89603
1.8871
1.87717
1.86887
1.84577
4.05801
3.89792
3.73328
3.57535
3.43069
3.27726
3.12287
2.99089
2.8764
2.87758
3.08525
3.46427
3.73531
3.86151
3.78118
3.61667
3.46836
3.39184
3.36435
3.3285
3.25424
3.15361
3.06661
3.01741
2.97141
2.91861
2.86065
2.79505
2.72066
2.65325
2.60641
2.56537
2.52281
2.47793
2.43009
2.3757
2.31246
2.25161
2.20666
2.17136
2.13968
2.10692
2.07207
2.03051
1.9801
1.93087
1.89647
1.89623
1.95088
2.15084
2.50602
2.79013
2.9686
3.01192
3.00439
2.98808
2.95004
2.9205
2.89861
2.86166
2.81387
2.77895
2.75496
2.73358
2.71102
2.67863
2.6304
2.58142
2.5474
2.52218
2.49988
2.47442
2.4376
2.38992
2.35149
2.32597
2.30638
2.28837
2.26947
2.24562
2.20344
2.14599
2.11418
2.10139
2.09106
2.07868
2.06283
2.03945
2.00124
1.95056
1.91382
1.89809
1.88965
1.88316
1.87812
1.9277
4.1367
3.97446
3.81566
3.659
3.51657
3.34555
3.21426
3.10977
3.21932
3.57591
3.97691
4.04417
4.03491
4.00576
3.90889
3.78518
3.64372
3.54083
3.49462
3.45809
3.39467
3.30759
3.20764
3.14015
3.08873
3.03208
2.97221
2.90875
2.83716
2.76375
2.70135
2.65094
2.60516
2.55967
2.5125
2.46091
2.40123
2.3362
2.2795
2.23587
2.19949
2.16357
2.12705
2.08742
2.04211
1.98718
1.93448
1.88918
1.87496
1.88251
1.95894
2.18419
2.51116
2.75867
2.90912
2.93211
2.94386
2.94178
2.92176
2.88164
2.83336
2.7907
2.75649
2.72884
2.70218
2.67103
2.63095
2.58622
2.5539
2.53273
2.5152
2.49561
2.46584
2.41344
2.35598
2.33147
2.3166
2.29839
2.27979
2.25943
2.22892
2.1834
2.13572
2.10393
2.08281
2.06465
2.04747
2.03066
2.01208
1.97989
1.93682
1.91054
1.9003
1.9115
1.96041
2.17106
4.20933
4.04405
3.88285
3.73621
3.58148
3.44127
3.40981
3.63763
4.06886
4.47543
4.53201
4.36476
4.20162
4.07652
4.00261
3.93817
3.83929
3.72332
3.63919
3.58562
3.53068
3.45445
3.35564
3.26354
3.20272
3.14375
3.08201
3.01903
2.95008
2.87522
2.80454
2.74356
2.68797
2.63536
2.58506
2.53426
2.47819
2.41518
2.35351
2.30115
2.2575
2.21789
2.17837
2.1353
2.08807
2.03556
1.98335
1.93272
1.8935
1.86656
1.85067
1.86383
1.94814
2.17809
2.48472
2.71892
2.82818
2.90169
2.90818
2.89067
2.85189
2.79995
2.76007
2.73204
2.70548
2.67188
2.62705
2.57439
2.54679
2.53821
2.52609
2.50685
2.47833
2.43882
2.38821
2.33516
2.29282
2.27113
2.25399
2.23854
2.22385
2.20483
2.16899
2.11502
2.07731
2.06026
2.04903
2.03746
2.0225
2.00519
1.96938
1.95804
1.98907
2.0928
2.2633
2.5155
4.2525
4.12409
3.94603
3.81464
3.68103
3.79269
4.2118
4.63178
4.83008
4.85824
4.73639
4.54577
4.36638
4.24591
4.16668
4.10256
4.02478
3.91529
3.80341
3.72376
3.66222
3.59102
3.50165
3.40402
3.32492
3.25908
3.19327
3.12637
3.0565
2.98141
2.90542
2.83651
2.77444
2.71448
2.65464
2.59602
2.53889
2.47939
2.41789
2.36088
2.31116
2.26642
2.22426
2.18163
2.13217
2.07478
2.02004
1.974
1.93544
1.89602
1.86033
1.84055
1.81659
1.8323
1.923
2.1661
2.44604
2.71406
2.82996
2.83403
2.81874
2.77921
2.72987
2.69464
2.66887
2.64151
2.61124
2.5759
2.5385
2.51002
2.49779
2.49039
2.47732
2.45482
2.41389
2.35028
2.28992
2.26071
2.25003
2.24194
2.23285
2.21703
2.18599
2.14189
2.09772
2.05586
2.0302
2.02224
2.01848
2.02599
2.0647
2.16231
2.33636
2.50605
2.6669
2.73403
4.15214
4.15776
4.03094
3.97202
4.26296
4.87036
5.27694
5.24284
5.14896
5.0221
4.87129
4.72094
4.57164
4.46978
4.37439
4.27023
4.18156
4.08404
3.97269
3.87178
3.79248
3.71984
3.63853
3.54815
3.45893
3.37725
3.30075
3.22573
3.14917
3.07061
2.99286
2.91984
2.85293
2.78896
2.72344
2.65457
2.58838
2.5298
2.47175
2.41184
2.35722
2.30896
2.26127
2.21384
2.16796
2.11962
2.0638
2.00788
1.96075
1.91836
1.88019
1.84683
1.81719
1.80241
1.76494
1.78356
1.89236
2.15471
2.43755
2.64861
2.74635
2.74706
2.72679
2.69
2.65282
2.62556
2.60228
2.57632
2.53994
2.49629
2.46036
2.4418
2.42681
2.4107
2.39405
2.36598
2.31889
2.27148
2.22864
2.20248
2.19006
2.18009
2.17369
2.15818
2.12244
2.07374
2.03742
2.03807
2.06937
2.18407
2.38018
2.60199
2.71584
2.79374
2.85012
2.8351
3.37657
3.99782
4.22539
4.84245
5.50523
5.81517
5.71102
5.47304
5.29779
5.15651
5.02989
4.90396
4.76626
4.66934
4.57676
4.45538
4.33922
4.24392
4.14222
4.0329
3.93278
3.84986
3.77064
3.6816
3.58572
3.49135
3.40067
3.31447
3.22845
3.14134
3.06216
2.99227
2.92557
2.86102
2.79616
2.72328
2.64118
2.55845
2.49948
2.45337
2.39858
2.34363
2.29689
2.24651
2.18817
2.13299
2.08695
2.03867
1.98713
1.94829
1.91369
1.87681
1.8401
1.79921
1.75398
1.72351
1.69102
1.72044
1.87191
2.13491
2.40422
2.56687
2.63653
2.62635
2.6013
2.59862
2.5889
2.56576
2.53274
2.48708
2.43214
2.39044
2.3749
2.36313
2.35098
2.33754
2.3192
2.27689
2.22725
2.19339
2.16889
2.15152
2.1356
2.12562
2.12052
2.10433
2.11751
2.20769
2.39377
2.61757
2.76406
2.8763
2.92912
2.93794
2.93473
2.89827
2.0274
3.28008
5.34885
6.23538
6.16616
6.06038
5.84935
5.62488
5.46883
5.34195
5.20457
5.0689
4.92127
4.81718
4.7317
4.62198
4.49181
4.37674
4.27928
4.17951
4.0685
3.95845
3.86639
3.77818
3.67997
3.5898
3.49714
3.39662
3.30247
3.21335
3.11855
3.03581
2.96605
2.90078
2.8429
2.78156
2.70184
2.6099
2.52043
2.45534
2.41863
2.37719
2.33151
2.28291
2.2198
2.15265
2.08871
2.05518
2.02798
1.9912
1.95355
1.91704
1.88027
1.83465
1.78409
1.72016
1.66858
1.63067
1.63514
1.68639
1.86638
2.13173
2.36581
2.42419
2.45619
2.48399
2.49298
2.48732
2.474
2.44784
2.40577
2.3553
2.31952
2.30917
2.30274
2.29616
2.28477
2.27046
2.245
2.2042
2.15583
2.12832
2.12118
2.12401
2.14824
2.25071
2.43716
2.66707
2.83541
2.94061
2.99037
3.00647
3.00508
2.98405
2.94758
2.88928
1.44953
2.82369
6.3194
6.62178
6.20694
6.01102
5.83732
5.6717
5.54817
5.4191
5.32402
5.19611
5.04583
4.93824
4.85986
4.76533
4.6455
4.50892
4.40361
4.30784
4.20002
4.06928
3.92678
3.82834
3.76194
3.68151
3.59069
3.47939
3.34931
3.25089
3.17926
3.09914
3.0185
2.94139
2.8564
2.77019
2.69885
2.63789
2.56307
2.48255
2.39826
2.32811
2.27992
2.24694
2.22207
2.1829
2.12647
2.06024
1.99883
1.95203
1.9121
1.87498
1.83912
1.80022
1.7574
1.7078
1.66189
1.62154
1.58748
1.55238
1.56508
1.63616
1.81672
2.08205
2.29647
2.34711
2.38654
2.40834
2.39872
2.37905
2.36312
2.33248
2.28634
2.25504
2.24263
2.23411
2.22484
2.21355
2.19913
2.17785
2.14963
2.13222
2.14283
2.22327
2.4202
2.69263
2.8886
3.01891
3.07404
3.07064
3.04991
3.0218
2.99541
2.9658
2.93191
2.88062
1.40126
2.925
5.84051
6.02119
5.79778
5.70493
5.62624
5.55069
5.49263
5.41663
5.34626
5.21636
5.0629
4.94665
4.86373
4.77265
4.65623
4.52588
4.39317
4.28528
4.20921
4.12245
4.00296
3.87238
3.73714
3.6237
3.53619
3.4617
3.38009
3.27223
3.15671
3.04951
2.95213
2.86727
2.79824
2.73836
2.6795
2.60719
2.5242
2.43866
2.36567
2.31478
2.27112
2.22481
2.1743
2.12403
2.07355
2.02255
1.97492
1.93332
1.89369
1.8561
1.82034
1.78441
1.75018
1.71291
1.66808
1.61551
1.5648
1.52377
1.49734
1.48597
1.50678
1.6121
1.84136
2.0609
2.21195
2.2931
2.32314
2.32662
2.3163
2.29397
2.25369
2.21657
2.19124
2.17162
2.16121
2.15473
2.15663
2.15844
2.17547
2.24072
2.40919
2.66359
2.92011
3.05471
3.10584
3.11366
3.1019
3.07156
3.027
2.97975
2.94752
2.92655
2.90902
2.88069
1.40002
3.15926
5.40128
5.60182
5.50887
5.47775
5.44679
5.40652
5.36166
5.29623
5.20528
5.08499
4.96568
4.86829
4.78649
4.717
4.61522
4.49234
4.36537
4.25128
4.14729
4.04985
3.95205
3.8439
3.72026
3.59906
3.49174
3.39411
3.30074
3.20904
3.10909
3.00968
2.91878
2.8381
2.76558
2.69776
2.63072
2.55894
2.48111
2.40679
2.34579
2.29509
2.24586
2.1934
2.13701
2.08267
2.0345
1.99155
1.95305
1.91709
1.878
1.83469
1.78993
1.74328
1.69858
1.65788
1.6215
1.58432
1.5487
1.51531
1.48019
1.44317
1.41535
1.42227
1.47536
1.63364
1.87138
2.04229
2.16176
2.23047
2.22541
2.21727
2.2069
2.18861
2.14967
2.11915
2.1192
2.122
2.14219
2.21863
2.40747
2.65601
2.89881
3.04507
3.13628
3.14429
3.13765
3.11343
3.07144
3.0101
2.95191
2.91454
2.90035
2.88841
2.87755
2.85382
1.40001
3.25679
5.26842
5.43413
5.38255
5.34472
5.29418
5.24462
5.19094
5.12897
5.04534
4.94528
4.85068
4.76657
4.68767
4.61116
4.50821
4.38537
4.26748
4.16976
4.0649
3.96206
3.86315
3.75579
3.63902
3.52371
3.41493
3.31309
3.21844
3.12723
3.03745
2.95106
2.86917
2.79035
2.71402
2.64086
2.57159
2.50662
2.4461
2.38827
2.32918
2.26728
2.20402
2.14263
2.08632
2.0415
2.00631
1.97349
1.93924
1.90035
1.85398
1.80135
1.74929
1.70193
1.66248
1.63002