/*--------------------------------*- C++ -*----------------------------------*\
  =========                 |
  \\      /  F ield         | OpenFOAM: The Open Source CFD Toolbox
   \\    /   O peration     | Website:  https://openfoam.org
    \\  /    A nd           | Version:  7
     \\/     M anipulation  |
\*---------------------------------------------------------------------------*/
FoamFile
{
    version     2.0;
    format      ascii;
    class       volScalarField;
    location    "1.1";
    object      p;
}
// * * * * * * * * * * * * * * * * * * * * * * * * * * * * * * * * * * * * * //

dimensions      [1 -1 -2 0 0 0 0];

internalField   nonuniform List<scalar> 
64512
(
1
1
1
1
1
1
1
1
1
1
1
1
1
1
1
1
1
1
1
1
1
1
1
1
1
1
1
1
1
1
1
1
1
1
1
1
1
1
1
1
1
1
1
1
1
1
1
1
1
1
1
1
1
3.55331
9.99202
10.7757
10.806
10.9167
10.9905
11.0493
11.091
11.1074
11.1097
11.1203
11.1523
11.1995
11.2913
11.3727
11.4457
11.5064
11.5602
11.6023
11.6329
11.6506
11.6725
11.7076
11.7509
11.7996
11.8476
11.8904
11.9237
11.9476
11.9719
11.9987
12.0266
12.0547
12.0858
12.1198
12.1519
12.1736
12.1813
12.1876
12.1916
12.1886
12.1771
12.1737
1
1
1
1
1
1
1
1
1
1
1
1
1
1
1
1
1
1
1
1
1
1
1
1
1
1
1
1
1
1
1
1
1
1
1
1
1
1
1
1
1
1
1
1
1
1
1
1
1
1
1
1
1
3.50836
9.98389
10.7608
10.8095
10.9156
10.989
11.0462
11.0883
11.1061
11.1076
11.119
11.1491
11.1977
11.2877
11.3694
11.4433
11.5046
11.5585
11.5992
11.6293
11.6474
11.6698
11.7063
11.7506
11.7992
11.8456
11.8861
11.918
11.9427
11.9698
12.0003
12.0311
12.0589
12.0851
12.1123
12.14
12.1629
12.1765
12.1877
12.193
12.1885
12.1755
12.1689
1
1
1
1
1
1
1
1
1
1
1
1
1
1
1
1
1
1
1
1
1
1
1
1
1
1
1
1
1
1
1
1
1
1
1
1
1
1
1
1
1
1
1
1
1
1
1
1
1
1
1
1
1
3.41813
9.97025
10.7449
10.804
10.9074
10.9815
11.0377
11.0818
11.1021
11.1031
11.1159
11.1446
11.1942
11.2827
11.3648
11.4396
11.5004
11.5543
11.5938
11.6231
11.6421
11.6651
11.7033
11.7491
11.7988
11.8442
11.8817
11.9102
11.934
11.9638
12.0001
12.0358
12.0634
12.0837
12.1026
12.1249
12.1492
12.169
12.184
12.1899
12.1852
12.1736
12.1658
1
1
1
1
1
1
1
1
1
1
1
1
1
1
1
1
1
1
1
1
1
1
1
1
1
1
1
1
1
1
1
1
1
1
1
1
1
1
1
1
1
1
1
1
1
1
1
1
1
1
1
1
1
3.30051
9.92522
10.733
10.7968
10.8991
10.9734
11.028
11.0738
11.0976
11.0972
11.1121
11.1392
11.1894
11.276
11.3588
11.4341
11.4939
11.5473
11.5856
11.6142
11.6344
11.6584
11.6985
11.7463
11.7975
11.8428
11.8779
11.9028
11.9242
11.9552
11.9963
12.0364
12.0639
12.0792
12.0912
12.1087
12.1331
12.1576
12.1749
12.1818
12.1789
12.1702
12.1628
1
1
1
1
1
1
1
1
1
1
1
1
1
1
1
1
1
1
1
1
1
1
1
1
1
1
1
1
1
1
1
1
1
1
1
1
1
1
1
1
1
1
1
1
1
1
1
1
1
1
1
1
1
3.15269
9.8507
10.7256
10.7863
10.8887
10.962
11.016
11.064
11.0924
11.0906
11.1078
11.1335
11.1841
11.2686
11.352
11.4276
11.4858
11.5379
11.5752
11.6028
11.6246
11.65
11.6919
11.7417
11.7952
11.8416
11.8753
11.8971
11.9155
11.945
11.9873
12.0296
12.0577
12.0712
12.0807
12.0952
12.1181
12.1437
12.1607
12.1684
12.1686
12.165
12.1608
1
1
1
1
1
1
1
1
1
1
1
1
1
1
1
1
1
1
1
1
1
1
1
1
1
1
1
1
1
1
1
1
1
1
1
1
1
1
1
1
1
1
1
1
1
1
1
1
1
1
1
1
1
2.96853
9.7449
10.7195
10.774
10.8766
10.9488
11.0048
11.0546
11.0871
11.0841
11.1029
11.127
11.1778
11.2601
11.3444
11.4206
11.4771
11.527
11.5625
11.5885
11.6119
11.6392
11.6832
11.7351
11.7911
11.8396
11.8731
11.8925
11.9083
11.9342
11.9739
12.015
12.0439
12.0594
12.0707
12.0849
12.1058
12.1281
12.1422
12.1498
12.1542
12.1569
12.1584
1
1
1
1
1
1
1
1
1
1
1
1
1
1
1
1
1
1
1
1
1
1
1
1
1
1
1
1
1
1
1
1
1
1
1
1
1
1
1
1
1
1
1
1
1
1
1
1
1
1
1
1
1
2.75332
9.59744
10.7112
10.7613
10.8622
10.9362
10.9953
11.0451
11.0814
11.0775
11.0964
11.1189
11.1697
11.2498
11.3355
11.4123
11.4669
11.5137
11.547
11.5707
11.5953
11.6258
11.6732
11.7281
11.786
11.836
11.8693
11.887
11.9009
11.9226
11.9572
11.9944
12.024
12.0436
12.0599
12.0766
12.095
12.1117
12.1209
12.1281
12.1364
12.1448
12.1534
1
1
1
1
1
1
1
1
1
1
1
1
1
1
1
1
1
1
1
1
1
1
1
1
1
1
1
1
1
1
1
1
1
1
1
1
1
1
1
1
1
1
1
1
1
1
1
1
1
1
1
1
1
2.50926
9.39765
10.7056
10.7553
10.8451
10.9217
10.9907
11.0389
11.0732
11.072
11.0882
11.108
11.1583
11.237
11.3245
11.402
11.4551
11.4989
11.5301
11.5505
11.5755
11.61
11.6621
11.7208
11.78
11.8294
11.8611
11.8772
11.8902
11.909
11.9386
11.9719
12.0012
12.0246
12.0473
12.068
12.0836
12.0942
12.0985
12.1051
12.1161
12.1281
12.1431
1
1
1
1
1
1
1
1
1
1
1
1
1
1
1
1
1
1
1
1
1
1
1
1
1
1
1
1
1
1
1
1
1
1
1
1
1
1
1
1
1
1
1
1
1
1
1
1
1
1
1
1
1
2.25878
9.14206
10.692
10.753
10.8309
10.9083
10.9852
11.035
11.0637
11.0674
11.0797
11.096
11.1442
11.2212
11.3101
11.3883
11.4413
11.4831
11.5125
11.5287
11.5527
11.5913
11.6488
11.7126
11.7728
11.8198
11.8483
11.8622
11.8747
11.8925
11.9191
11.9493
11.9777
12.0037
12.0315
12.0558
12.0695
12.0751
12.0766
12.0828
12.0949
12.1068
12.1256
1
1
1
1
1
1
1
1
1
1
1
1
1
1
1
1
1
1
1
1
1
1
1
1
1
1
1
1
1
1
1
1
1
1
1
1
1
1
1
1
1
1
1
1
1
1
1
1
1
1
1
1
1
2.01714
8.83726
10.6682
10.7344
10.8214
10.9004
10.9729
11.0248
11.0525
11.0613
11.0707
11.0843
11.129
11.2034
11.2919
11.3701
11.4247
11.4661
11.4951
11.5068
11.5291
11.5712
11.6339
11.7028
11.764
11.8075
11.8315
11.8422
11.854
11.8717
11.8975
11.9267
11.9543
11.9815
12.0119
12.038
12.0509
12.0543
12.0554
12.062
12.0732
12.0821
12.1009
1
1
1
1
1
1
1
1
1
1
1
1
1
1
1
1
1
1
1
1
1
1
1
1
1
1
1
1
1
1
1
1
1
1
1
1
1
1
1
1
1
1
1
1
1
1
1
1
1
1
1
1
1
1.78111
8.46999
10.6277
10.7179
10.8132
10.8906
10.9576
11.01
11.0379
11.0498
11.0588
11.073
11.1149
11.1855
11.2707
11.3473
11.4043
11.4465
11.4771
11.4857
11.5071
11.5522
11.6182
11.6906
11.7521
11.7923
11.8121
11.8194
11.8294
11.8467
11.8729
11.9026
11.9302
11.9575
11.9877
12.0139
12.0268
12.0311
12.0341
12.0415
12.0504
12.0545
12.0697
1
1
1
1
1
1
1
1
1
1
1
1
1
1
1
1
1
1
1
1
1
1
1
1
1
1
1
1
1
1
1
1
1
1
1
1
1
1
1
1
1
1
1
1
1
1
1
1
1
1
1
1
1
1.54404
8.02897
10.6006
10.7042
10.7976
10.8819
10.9497
10.9998
11.0256
11.0347
11.043
11.0592
11.1002
11.1675
11.2476
11.3205
11.3791
11.4223
11.4563
11.4656
11.4887
11.5365
11.6028
11.6756
11.736
11.7739
11.7914
11.796
11.803
11.8187
11.8446
11.8757
11.904
11.9309
11.9592
11.9836
11.997
12.0045
12.0108
12.0191
12.0256
12.0245
12.0339
1
1
1
1
1
1
1
1
1
1
1
1
1
1
1
1
1
1
1
1
1
1
1
1
1
1
1
1
1
1
1
1
1
1
1
1
1
1
1
1
1
1
1
1
1
1
1
1
1
1
1
1
1
1.28113
7.48235
10.6095
10.7099
10.8006
10.8832
10.9463
10.9882
11.0106
11.0152
11.0239
11.0426
11.0837
11.1488
11.2231
11.2916
11.3499
11.3936
11.4299
11.4453
11.4739
11.5242
11.588
11.6573
11.7153
11.7521
11.7696
11.7732
11.7767
11.7895
11.814
11.8459
11.8752
11.901
11.9262
11.9476
11.9617
11.9736
11.9836
11.9925
11.9974
11.9936
11.9976
1
1
1
1
1
1
1
1
1
1
1
1
1
1
1
1
1
1
1
1
1
1
1
1
1
1
1
1
1
1
1
1
1
1
1
1
1
1
1
1
1
1
1
1
1
1
1
1
1
1
1
1
1
1.02176
6.81516
10.6551
10.7103
10.7774
10.8577
10.9258
10.9704
10.9952
11.0001
11.0058
11.0206
11.0607
11.1254
11.1984
11.2637
11.3197
11.3621
11.3971
11.4224
11.4599
11.5124
11.5721
11.635
11.6893
11.7259
11.7451
11.7494
11.7499
11.7594
11.7815
11.8133
11.8436
11.8685
11.8896
11.907
11.9225
11.9382
11.9508
11.9602
11.9647
11.961
11.9614
1
1
1
1
1
1
1
1
1
1
1
1
1
1
1
1
1
1
1
1
1
1
1
1
1
1
1
1
1
1
1
1
1
1
1
1
1
1
1
1
1
1
1
1
1
1
1
1
1
1
1
1
1
1.0002
6.01412
10.5831
10.6814
10.7584
10.8422
10.9126
10.9582
10.9804
10.9859
10.9859
10.9943
11.0323
11.0969
11.1729
11.2389
11.2919
11.3316
11.3649
11.3982
11.4441
11.4986
11.5527
11.6077
11.6582
11.6948
11.7164
11.7225
11.7212
11.7282
11.748
11.7792
11.81
11.8334
11.8505
11.8635
11.8793
11.8976
11.9114
11.921
11.9265
11.9255
11.9254
1
1
1
1
1
1
1
1
1
1
1
1
1
1
1
1
1
1
1
1
1
1
1
1
1
1
1
1
1
1
1
1
1
1
1
1
1
1
1
1
1
1
1
1
1
1
1
1
1
1
1
1
1
1
5.18299
10.4694
10.6629
10.7397
10.8257
10.8995
10.9485
10.9684
10.9709
10.9633
10.9653
11.0001
11.0645
11.144
11.2159
11.2673
11.3059
11.3391
11.3767
11.4264
11.4792
11.5264
11.5741
11.6226
11.6596
11.683
11.6906
11.6884
11.694
11.7124
11.7431
11.774
11.7961
11.8098
11.8185
11.8332
11.8523
11.8661
11.8756
11.8828
11.886
11.8879
1
1
1
1
1
1
1
1
1
1
1
1
1
1
1
1
1
1
1
1
1
1
1
1
1
1
1
1
1
1
1
1
1
1
1
1
1
1
1
1
1
1
1
1
1
1
1
1
1
1
1
1
1
1
4.36482
10.2685
10.6476
10.7258
10.8086
10.8796
10.9297
10.9517
10.954
10.9426
10.9394
10.9658
11.0275
11.1093
11.1885
11.244
11.2847
11.321
11.36
11.4083
11.4536
11.4938
11.5361
11.5836
11.6212
11.6451
11.6528
11.6501
11.6549
11.6728
11.7036
11.7347
11.7562
11.7673
11.7721
11.7847
11.8027
11.8152
11.8242
11.8331
11.8409
11.8462
1
1
1
1
1
1
1
1
1
1
1
1
1
1
1
1
1
1
1
1
1
1
1
1
1
1
1
1
1
1
1
1
1
1
1
1
1
1
1
1
1
1
1
1
1
1
1
1
1
1
1
1
1
1
3.60102
9.965
10.623
10.704
10.7823
10.8521
10.9066
10.9323
10.9383
10.9274
10.9217
10.9371
10.987
11.067
11.152
11.2178
11.266
11.3088
11.3471
11.3879
11.4213
11.4554
11.4936
11.5412
11.5802
11.6045
11.6115
11.608
11.6112
11.6285
11.6595
11.6906
11.7123
11.7218
11.7241
11.7341
11.7496
11.7599
11.7679
11.7777
11.7887
11.7973
1
1
1
1
1
1
1
1
1
1
1
1
1
1
1
1
1
1
1
1
1
1
1
1
1
1
1
1
1
1
1
1
1
1
1
1
1
1
1
1
1
1
1
1
1
1
1
1
1
1
1
1
1
1
2.90429
9.54738
10.6056
10.6741
10.7481
10.8168
10.8763
10.9088
10.9198
10.9129
10.9064
10.9132
10.9523
11.0251
11.111
11.185
11.2438
11.2937
11.3323
11.364
11.3859
11.4136
11.4471
11.4951
11.5364
11.5622
11.5694
11.5644
11.5645
11.5795
11.609
11.6393
11.6609
11.6698
11.6716
11.6798
11.6925
11.7008
11.7077
11.7174
11.7297
11.74
1
1
1
1
1
1
1
1
1
1
1
1
1
1
1
1
1
1
1
1
1
1
1
1
1
1
1
1
1
1
1
1
1
1
1
1
1
1
1
1
1
1
1
1
1
1
1
1
1
1
1
1
1
1
2.26285
9.00845
10.6
10.6473
10.7114
10.7731
10.833
10.8731
10.8921
10.894
10.8911
10.8948
10.9264
10.9917
11.0734
11.1507
11.2171
11.2689
11.3048
11.3292
11.3438
11.3679
11.3978
11.4454
11.4891
11.5179
11.5266
11.5208
11.5172
11.5275
11.5528
11.5806
11.6011
11.6102
11.6134
11.621
11.6318
11.6385
11.6439
11.6517
11.6621
11.6716
1
1
1
1
1
1
1
1
1
1
1
1
1
1
1
1
1
1
1
1
1
1
1
1
1
1
1
1
1
1
1
1
1
1
1
1
1
1
1
1
1
1
1
1
1
1
1
1
1
1
1
1
1
1
1.69048
8.3622
10.6161
10.6037
10.6691
10.7336
10.7957
10.8387
10.8636
10.8743
10.8771
10.8799
10.9094
10.9719
11.0478
11.1199
11.1814
11.2303
11.264
11.2869
11.2994
11.3206
11.3478
11.3922
11.4364
11.4685
11.4807
11.4763
11.4698
11.4743
11.4932
11.516
11.5329
11.5412
11.5454
11.5532
11.5638
11.5708
11.5756
11.5807
11.5873
11.5938
1
1
1
1
1
1
1
1
1
1
1
1
1
1
1
1
1
1
1
1
1
1
1
1
1
1
1
1
1
1
1
1
1
1
1
1
1
1
1
1
1
1
1
1
1
1
1
1
1
1
1
1
1
1
1.24835
7.5702
10.6144
10.5933
10.65
10.7054
10.7547
10.7942
10.818
10.8338
10.8453
10.8557
10.8875
10.9508
11.023
11.0891
11.1432
11.1866
11.2175
11.2405
11.2531
11.2711
11.2961
11.3361
11.3785
11.4127
11.4292
11.4281
11.4205
11.4196
11.4313
11.4477
11.4593
11.4646
11.468
11.4759
11.4873
11.4956
11.5005
11.5023
11.5031
11.5045
1
1
1
1
1
1
1
1
1
1
1
1
1
1
1
1
1
1
1
1
1
1
1
1
1
1
1
1
1
1
1
1
1
1
1
1
1
1
1
1
1
1
1
1
1
1
1
1
1
1
1
1
1
1
1.0109
6.62948
10.4667
10.5194
10.5992
10.6672
10.7192
10.7548
10.7757
10.7978
10.8183
10.8354
10.8686
10.9285
10.999
11.0586
11.1044
11.1415
11.1694
11.1913
11.2039
11.2196
11.2432
11.2784
11.3175
11.3513
11.3705
11.3725
11.3653
11.3607
11.3663
11.3765
11.382
11.3817
11.381
11.3865
11.3977
11.4083
11.4149
11.4148
11.4104
11.4066
1
1
1
1
1
1
1
1
1
1
1
1
1
1
1
1
1
1
1
1
1
1
1
1
1
1
1
1
1
1
1
1
1
1
1
1
1
1
1
1
1
1
1
1
1
1
1
1
1
1
1
1
1
1
1.00006
5.56459
10.2711
10.4676
10.5581
10.6427
10.7016
10.7342
10.7525
10.7717
10.7882
10.8048
10.8387
10.8945
10.9663
11.0227
11.0658
11.0992
11.1242
11.1419
11.1529
11.1659
11.1876
11.2186
11.254
11.2859
11.3057
11.3086
11.3012
11.2944
11.2956
11.3016
11.3021
11.2956
11.2885
11.2888
11.2975
11.3085
11.3157
11.3135
11.3044
11.2951
1
1
1
1
1
1
1
1
1
1
1
1
1
1
1
1
1
1
1
1
1
1
1
1
1
1
1
1
1
1
1
1
1
1
1
1
1
1
1
1
1
1
1
1
1
1
1
1
1
1
1
1
1
1
1
4.4835
9.93517
10.4342
10.5392
10.6216
10.678
10.7076
10.7263
10.7448
10.7562
10.7681
10.7979
10.8499
10.9249
10.9834
11.0282
11.0591
11.0808
11.0936
11.1017
11.1108
11.1285
11.1565
11.1881
11.2168
11.2354
11.2368
11.2279
11.2186
11.2164
11.2199
11.2174
11.2056
11.1903
11.1813
11.183
11.1912
11.1978
11.1954
11.1845
11.1726
1
1
1
1
1
1
1
1
1
1
1
1
1
1
1
1
1
1
1
1
1
1
1
1
1
1
1
1
1
1
1
1
1
1
1
1
1
1
1
1
1
1
1
1
1
1
1
1
1
1
1
1
1
1
1
3.44144
9.46677
10.3871
10.5044
10.6107
10.6742
10.7051
10.719
10.7269
10.7275
10.7284
10.7481
10.7928
10.8679
10.9316
10.9801
11.01
11.0303
11.0428
11.0501
11.057
11.0705
11.0933
11.1184
11.1426
11.1592
11.1589
11.1477
11.134
11.127
11.128
11.124
11.1094
11.0875
11.0684
11.0604
11.0613
11.0621
11.055
11.0409
11.0257
1
1
1
1
1
1
1
1
1
1
1
1
1
1
1
1
1
1
1
1
1
1
1
1
1
1
1
1
1
1
1
1
1
1
1
1
1
1
1
1
1
1
1
1
1
1
1
1
1
1
1
1
1
1
1
2.38137
8.81126
10.4785
10.477
10.5627
10.6255
10.6698
10.6913
10.6967
10.6901
10.6831
10.6928
10.7284
10.7998
10.8709
10.9265
10.9591
10.9795
10.9923
10.9981
11.0023
11.0099
11.0262
11.0447
11.0649
11.0798
11.0779
11.0629
11.0418
11.0275
11.0238
11.0185
11.0033
10.9764
10.9455
10.9221
10.9087
10.899
10.8872
10.8723
10.8586
1
1
1
1
1
1
1
1
1
1
1
1
1
1
1
1
1
1
1
1
1
1
1
1
1
1
1
1
1
1
1
1
1
1
1
1
1
1
1
1
1
1
1
1
1
1
1
1
1
1
1
1
1
1
1
1.46248
8.00358
10.5954
10.5081
10.5455
10.5957
10.6436
10.6753
10.685
10.6747
10.6606
10.662
10.6879
10.7502
10.8192
10.8679
10.8922
10.91
10.9248
10.9318
10.9378
10.9445
10.9577
10.9712
10.9869
10.9987
10.9944
10.9744
10.9438
10.9196
10.9076
10.899
10.883
10.8525
10.8111
10.772
10.7427
10.7173
10.6903
10.6627
10.6393
1
1
1
1
1
1
1
1
1
1
1
1
1
1
1
1
1
1
1
1
1
1
1
1
1
1
1
1
1
1
1
1
1
1
1
1
1
1
1
1
1
1
1
1
1
1
1
1
1
1
1
1
1
1
1
1.02531
6.96671
10.4229
10.3705
10.4503
10.5214
10.5779
10.612
10.6242
10.6195
10.6133
10.6172
10.639
10.692
10.7572
10.8028
10.8264
10.8453
10.861
10.8658
10.8701
10.8753
10.8859
10.8962
10.9081
10.9164
10.909
10.8835
10.8427
10.8062
10.7822
10.766
10.7469
10.712
10.6592
10.5992
10.5429
10.4886
10.4404
10.3992
10.3788
1
1
1
1
1
1
1
1
1
1
1
1
1
1
1
1
1
1
1
1
1
1
1
1
1
1
1
1
1
1
1
1
1
1
1
1
1
1
1
1
1
1
1
1
1
1
1
1
1
1
1
1
1
1
1
1.0001
5.56406
10.074
10.3076
10.4191
10.4861
10.5426
10.5792
10.5948
10.5965
10.5931
10.5934
10.6065
10.6434
10.699
10.7408
10.764
10.7833
10.7975
10.7974
10.7982
10.8012
10.8094
10.8183
10.8278
10.8325
10.8207
10.7895
10.7396
10.6894
10.6505
10.6221
10.5944
10.5502
10.4833
10.4006
10.3182
10.2365
10.1566
10.0715
9.99234
1
1
1
1
1
1
1
1
1
1
1
1
1
1
1
1
1
1
1
1
1
1
1
1
1
1
1
1
1
1
1
1
1
1
1
1
1
1
1
1
1
1
1
1
1
1
1
1
1
1
1
1
1
1
1
1
4.21568
9.7046
10.2798
10.3835
10.4627
10.517
10.5515
10.5681
10.5731
10.5699
10.5648
10.5713
10.5951
10.6428
10.6828
10.7061
10.7243
10.7336
10.7271
10.7219
10.7207
10.7262
10.7347
10.7426
10.7435
10.7272
10.6909
10.6341
10.5713
10.5159
10.4698
10.4264
10.3673
10.2826
10.1743
10.0509
9.90986
9.74569
9.5835
9.46036
1
1
1
1
1
1
1
1
1
1
1
1
1
1
1
1
1
1
1
1
1
1
1
1
1
1
1
1
1
1
1
1
1
1
1
1
1
1
1
1
1
1
1
1
1
1
1
1
1
1
1
1
1
1
1
1
2.85667
9.03059
10.3439
10.3765
10.4233
10.4709
10.5102
10.5318
10.5393
10.5339
10.521
10.5217
10.5387
10.582
10.6247
10.6508
10.6668
10.6693
10.656
10.6436
10.6362
10.6379
10.6446
10.6501
10.6468
10.6264
10.5859
10.5247
10.4519
10.3798
10.3128
10.2472
10.1668
10.0577
9.9127
9.73887
9.54115
9.29651
9.01996
8.84825
1
1
1
1
1
1
1
1
1
1
1
1
1
1
1
1
1
1
1
1
1
1
1
1
1
1
1
1
1
1
1
1
1
1
1
1
1
1
1
1
1
1
1
1
1
1
1
1
1
1
1
1
1
1
1
1
1.66754
8.25971
10.471
10.3554
10.3766
10.423
10.4644
10.4866
10.4923
10.4825
10.4634
10.4602
10.4745
10.5148
10.562
10.5919
10.6066
10.6036
10.5853
10.566
10.5516
10.5476
10.5489
10.5492
10.5403
10.5153
10.4718
10.4083
10.3293
10.2422
10.1535
10.0614
9.95236
9.81211
9.62678
9.399
9.10969
8.67618
7.79605
5.81801
1
1
1
1
1
1
1
1
1
1
1
1
1
1
1
1
1
1
1
1
1
1
1
1
1
1
1
1
1
1
1
1
1
1
1
1
1
1
1
1
1
1
1
1
1
1
1
1
1
1
1
1
1
1
1
1
1.04805
7.01224
10.3032
10.2529
10.306
10.3656
10.413
10.4399
10.4466
10.4332
10.407
10.3963
10.406
10.4418
10.4915
10.5256
10.5414
10.5361
10.5143
10.488
10.4654
10.4523
10.4453
10.4397
10.4261
10.3968
10.3499
10.2838
10.2008
10.102
9.99363
9.87349
9.73134
9.55566
9.32662
9.03002
8.61498
7.99538
6.92477
4.79417
1
1
1
1
1
1
1
1
1
1
1
1
1
1
1
1
1
1
1
1
1
1
1
1
1
1
1
1
1
1
1
1
1
1
1
1
1
1
1
1
1
1
1
1
1
1
1
1
1
1
1
1
1
1
1
1
1.00025
5.36684
9.87325
10.1721
10.273
10.3174
10.3535
10.3824
10.3931
10.3842
10.3576
10.3412
10.3455
10.3716
10.4161
10.4523
10.4708
10.467
10.4427
10.4097
10.3791
10.3562
10.3413
10.3299
10.3104
10.2745
10.2215
10.1517
10.0655
9.95817
9.83239
9.68586
9.5101
9.2987
9.02392
8.67213
8.16602
7.49599
6.2211
4.43052
1
1
1
1
1
1
1
1
1
1
1
1
1
1
1
1
1
1
1
1
1
1
1
1
1
1
1
1
1
1
1
1
1
1
1
1
1
1
1
1
1
1
1
1
1
1
1
1
1
1
1
1
1
1
1
1
0.999999
3.80581
9.44687
10.1548
10.2262
10.2712
10.3115
10.3418
10.3533
10.3468
10.3175
10.2922
10.2877
10.3047
10.3405
10.3775
10.3997
10.4003
10.3744
10.3361
10.2973
10.2636
10.2392
10.2202
10.1944
10.1521
10.091
10.0152
9.92351
9.80917
9.6684
9.49983
9.2945
9.0517
8.74201
8.34518
7.80082
7.02997
5.81475
4.3753
1
1
1
1
1
1
1
1
1
1
1
1
1
1
1
1
1
1
1
1
1
1
1
1
1
1
1
1
1
1
1
1
1
1
1
1
1
1
1
1
1
1
1
1
1
1
1
1
1
1
1
1
1
1
1
1
1
2.30792
8.72245
10.2047
10.193
10.2267
10.2712
10.3016
10.3125
10.3071
10.2807
10.25
10.2362
10.2455
10.2705
10.3042
10.3281
10.3323
10.3054
10.2637
10.2187
10.1767
10.1428
10.1141
10.0803
10.0313
9.96141
9.87718
9.77703
9.65528
9.50188
9.31582
9.08757
8.81838
8.48645
8.05552
7.49605
6.68868
5.63479
4.4884
1
1
1
1
1
1
1
1
1
1
1
1
1
1
1
1
1
1
1
1
1
1
1
1
1
1
1
1
1
1
1
1
1
1
1
1
1
1
1
1
1
1
1
1
1
1
1
1
1
1
1
1
1
1
1
1
1
1.18396
7.47916
10.2703
10.1877
10.1897
10.2238
10.2542
10.2676
10.265
10.242
10.2053
10.1816
10.1818
10.1998
10.2306
10.2567
10.264
10.237
10.1933
10.1434
10.0947
10.0512
10.011
9.96729
9.9109
9.83337
9.74068
9.63082
9.50019
9.33641
9.1364
8.89195
8.60275
8.25568
7.81433
7.25501
6.48832
5.56651
4.59897
1
1
1
1
1
1
1
1
1
1
1
1
1
1
1
1
1
1
1
1
1
1
1
1
1
1
1
1
1
1
1
1
1
1
1
1
1
1
1
1
1
1
1
1
1
1
1
1
1
1
1
1
1
1
1
1
1
1.00324
5.8032
9.8087
10.043
10.132
10.1633
10.1891
10.2088
10.213
10.1989
10.1619
10.1311
10.1198
10.1311
10.1559
10.1801
10.1866
10.1613
10.1191
10.0689
10.0172
9.96613
9.91408
9.85783
9.79149
9.70667
9.60672
9.48825
9.34851
9.17643
8.96569
8.71006
8.40726
8.0491
7.6099
7.07677
6.36414
5.5611
4.7399
1
1
1
1
1
1
1
1
1
1
1
1
1
1
1
1
1
1
1
1
1
1
1
1
1
1
1
1
1
1
1
1
1
1
1
1
1
1
1
1
1
1
1
1
1
1
1
1
1
1
1
1
1
1
1
1
1
0.999988
3.98017
9.43246
10.048
10.0869
10.1104
10.1326
10.1535
10.1624
10.1548
10.1188
10.0815
10.0582
10.0611
10.0789
10.0974
10.1009
10.0791
10.0412
9.99314
9.94121
9.88472
9.82224
9.75238
9.67395
9.58133
9.47526
9.3503
9.20307
9.0249
8.80754
8.54518
8.23343
7.86979
7.43629
6.93279
6.29289
5.59469
4.8809
1
1
1
1
1
1
1
1
1
1
1
1
1
1
1
1
1
1
1
1
1
1
1
1
1
1
1
1
1
1
1
1
1
1
1
1
1
1
1
1
1
1
1
1
1
1
1
1
1
1
1
1
1
1
1
1
1
0.999998
2.26395
8.71434
10.0654
10.0271
10.0486
10.0728
10.0934
10.1059
10.1053
10.0736
10.0331
10.0008
9.99376
10.0024
10.0123
10.0111
9.99261
9.95833
9.91232
9.86116
9.80206
9.73283
9.65162
9.56109
9.45977
9.34766
9.21755
9.06491
8.88269
8.66256
8.39842
8.0828
7.71913
7.28904
6.82122
6.24877
5.6367
4.99793
1
1
1
1
1
1
1
1
1
1
1
1
1
1
1
1
1
1
1
1
1
1
1
1
1
1
1
1
1
1
1
1
1
1
1
1
1
1
1
1
1
1
1
1
1
1
1
1
1
1
1
1
1
1
1
1
1
1
1.14015
7.30802
10.1099
10.0193
10.0063
10.0302
10.0492
10.0597
10.0595
10.0311
9.98789
9.94666
9.92581
9.92274
9.92554
9.92294
9.90886
9.87687
9.83001
9.776
9.71302
9.6394
9.55173
9.45301
9.34429
9.22581
9.09026
8.93301
8.74815
8.52838
8.26784
7.95555
7.59521
7.17761
6.73566
6.21021
5.67306
5.09551
1
1
1
1
1
1
1
1
1
1
1
1
1
1
1
1
1
1
1
1
1
1
1
1
1
1
1
1
1
1
1
1
1
1
1
1
1
1
1
1
1
1
1
1
1
1
1
1
1
1
1
1
1
1
1
1
1
1
1.00183
5.36559
9.57825
9.86834
9.95996
9.99891
10.0162
10.0268
10.0253
10.0016
9.9575
9.90823
9.86974
9.84829
9.83965
9.835
9.8255
9.79613
9.74784
9.68845
9.61901
9.54049
9.44913
9.34669
9.23407
9.11014
8.96901
8.80729
8.6203
8.40205
8.14822
7.84563
7.49547
7.09626
6.66502
6.1868
5.70937
5.17653
1
1
1
1
1
1
1
1
1
1
1
1
1
1
1
1
1
1
1
1
1
1
1
1
1
1
1
1
1
1
1
1
1
1
1
1
1
1
1
1
1
1
1
1
1
1
1
1
1
1
1
1
1
1
1
1
1
1
0.999993
3.26421
9.0489
9.91322
9.92936
9.94933
9.97171
9.98014
9.97763
9.96229
9.92396
9.87262
9.82058
9.78117
9.75936
9.75012
9.74294
9.71685
9.66759
9.60166
9.52364
9.43896
9.34496
9.24178
9.12852
9.00075
8.85412
8.68769
8.49836
8.28099
8.03385
7.74427
7.41157
7.03066
6.61645
6.18391
5.7413
5.24925
1
1
1
1
1
1
1
1
1
1
1
1
1
1
1
1
1
1
1
1
1
1
1
1
1
1
1
1
1
1
1
1
1
1
1
1
1
1
1
1
1
1
1
1
1
1
1
1
1
1
1
1
1
1
1
1
1
1
0.999999
1.5556
8.00706
10.0016
9.90286
9.88532
9.9071
9.9129
9.91193
9.90694
9.87981
9.83392
9.77604
9.72379
9.68925
9.67047
9.65918
9.6341
9.58529
9.51601
9.4318
9.34084
9.24335
9.13914
9.02601
8.89616
8.74521
8.57496
8.38392
8.167
7.92574
7.64708
7.33715
6.97754
6.58592
6.18775
5.76823
5.3235
1
1
1
1
1
1
1
1
1
1
1
1
1
1
1
1
1
1
1
1
1
1
1
1
1
1
1
1
1
1
1
1
1
1
1
1
1
1
1
1
1
1
1
1
1
1
1
1
1
1
1
1
1
1
1
1
1
1
1
1.02784
6.21364
9.59267
9.76078
9.83925
9.85872
9.84951
9.84456
9.84102
9.82176
9.78372
9.72877
9.6718
9.62927
9.59972
9.57885
9.55058
9.50254
9.43314
9.34591
9.24959
9.1481
9.04181
8.9278
8.79627
8.64192
8.46924
8.27858
8.06396
7.82853
7.5561
7.26889
6.92824
6.55924
6.18862
5.79374
5.39895
1
1
1
1
1
1
1
1
1
1
1
1
1
1
1
1
1
1
1
1
1
1
1
1
1
1
1
1
1
1
1
1
1
1
1
1
1
1
1
1
1
1
1
1
1
1
1
1
1
1
1
1
1
1
1
1
1
1
1
1.00004
3.88997
9.14691
9.75827
9.79469
9.80442
9.80266
9.79188
9.7852
9.77096
9.73631
9.6832
9.62173
9.57143
9.5304
9.49771
9.46537
9.41959
9.35323
9.26668
9.16667
9.06067
8.95092
8.83425
8.70091
8.5446
8.37149
8.1837
7.97394
7.74378
7.47743
7.2051
6.87815
6.53557
6.19027
5.82411
5.46705
1
1
1
1
1
1
1
1
1
1
1
1
1
1
1
1
1
1
1
1
1
1
1
1
1
1
1
1
1
1
1
1
1
1
1
1
1
1
1
1
1
1
1
1
1
1
1
1
1
1
1
1
1
1
1
1
1
1
1
0.999998
1.86746
8.31044
9.85599
9.75688
9.73816
9.74348
9.72942
9.72086
9.71174
9.68498
9.63996
9.57932
9.51913
9.46507
9.41854
9.37979
9.33491
9.27386
9.19132
9.09025
8.98114
8.86786
8.74756
8.6124
8.45531
8.28235
8.09726
7.89266
7.66722
7.41138
7.14359
6.83185
6.52041
6.19284
5.8498
5.51739
1
1
1
1
1
1
1
1
1
1
1
1
1
1
1
1
1
1
1
1
1
1
1
1
1
1
1
1
1
1
1
1
1
1
1
1
1
1
1
1
1
1
1
1
1
1
1
1
1
1
1
1
1
1
1
1
1
1
1
0.999999
1.0631
6.55328
9.54387
9.63691
9.68804
9.69661
9.67199
9.65803
9.64859
9.63043
9.59619
9.53982
9.47088
9.40341
9.34309
9.2952
9.24943
9.19342
9.1156
9.01588
8.90599
8.79063
8.66762
8.53166
8.37523
8.20251
8.01854
7.81747
7.59649
7.35357
7.08852
6.79919
6.51066
6.19601
5.87552
5.5645
1
1
1
1
1
1
1
1
1
1
1
1
1
1
1
1
1
1
1
1
1
1
1
1
1
1
1
1
1
1
1
1
1
1
1
1
1
1
1
1
1
1
1
1
1
1
1
1
1
1
1
1
1
1
1
1
1
1
1
1
1.00026
4.06251
9.06607
9.6123
9.64697
9.64854
9.62652
9.60442
9.58947
9.57606
9.54895
9.49747
9.42492
9.34487
9.27196
9.21395
9.1647
9.10941
9.03579
8.93908
8.83093
8.71577
8.59211
8.45685
8.30313
8.13177
7.94591
7.74448
7.52867
7.29766
7.0413
6.77497
6.4997
6.20201
5.90243
5.60964
1
1
1
1
1
1
1
1
1
1
1
1
1
1
1
1
1
1
1
1
1
1
1
1
1
1
1
1
1
1
1
1
1
1
1
1
1
1
1
1
1
1
1
1
1
1
1
1
1
1
1
1
1
1
1
1
1
1
1
1
0.999999
1.87739
8.26734
9.72024
9.61205
9.58086
9.5684
9.54371
9.52659
9.5132
9.48917
9.44317
9.37243
9.28621
9.204
9.13717
9.0824
9.02533
8.95389
8.86169
8.75549
8.64101
8.5179
8.38423
8.23541
8.06765
7.87886
7.67671
7.46733
7.24435
7.00278
6.75326
6.49377
6.21794
5.93334
5.65657
1
1
1
1
1
1
1
1
1
1
1
1
1
1
1
1
1
1
1
1
1
1
1
1
1
1
1
1
1
1
1
1
1
1
1
1
1
1
1
1
1
1
1
1
1
1
1
1
1
1
1
1
1
1
1
1
1
1
1
1
1
1.06245
6.43178
9.3785
9.46271
9.52054
9.52564
9.49355
9.47471
9.45872
9.43471
9.39143
9.32116
9.2325
9.14064
9.06521
9.00155
8.94154
8.87082
8.78434
8.68123
8.5679
8.44492
8.31176
8.16708
8.00313
7.81654
7.61686
7.41133
7.19303
6.96798
6.73313
6.49262
6.23183
5.96227
5.69988
1
1
1
1
1
1
1
1
1
1
1
1
1
1
1
1
1
1
1
1
1
1
1
1
1
1
1
1
1
1
1
1
1
1
1
1
1
1
1
1
1
1
1
1
1
1
1
1
1
1
1
1
1
1
1
1
1
1
1
1
1
1.00025
3.75775
8.8487
9.45716
9.49255
9.48781
9.45436
9.43143
9.40943
9.38432
9.3441
9.27733
9.19039
9.09305
9.00574
8.92895
8.86195
8.7923
8.71036
8.61384
8.50005
8.3761
8.24156
8.09781
7.93864
7.75914
7.56586
7.36255
7.15064
6.93849
6.71795
6.49186
6.24138
5.99035
5.73983
1
1
1
1
1
1
1
1
1
1
1
1
1
1
1
1
1
1
1
1
1
1
1
1
1
1
1
1
1
1
1
1
1
1
1
1
1
1
1
1
1
1
1
1
1
1
1
1
1
1
1
1
1
1
1
1
1
1
1
1
1
0.999999
1.56532
7.85022
9.58005
9.46956
9.42682
9.40021
9.37153
9.34738
9.32157
9.28462
9.22738
9.15
9.05701
8.96157
8.87073
8.79151
8.71875
8.64038
8.54832
8.43878
8.31195
8.1775
8.0324
7.87578
7.70433
7.51875
7.31905
7.11616
6.91186
6.70315
6.48451
6.2468
6.01236
5.77095
1
1
1
1
1
1
1
1
1
1
1
1
1
1
1
1
1
1
1
1
1
1
1
1
1
1
1
1
1
1
1
1
1
1
1
1
1
1
1
1
1
1
1
1
1
1
1
1
1
1
1
1
1
1
1
1
1
1
1
1
1
1
1.02623
5.78104
9.14001
9.29945
9.36052
9.3636
9.32741
9.29382
9.25977
9.22073
9.17222
9.10588
9.02299
8.9263
8.82713
8.7339
8.65138
8.57281
8.48439
8.38032
8.25461
8.12224
7.9761
7.81978
7.65443
7.47583
7.2836
7.08932
6.89045
6.68971
6.47639
6.25359
6.02881
5.79534
1
1
1
1
1
1
1
1
1
1
1
1
1
1
1
1
1
1
1
1
1
1
1
1
1
1
1
1
1
1
1
1
1
1
1
1
1
1
1
1
1
1
1
1
1
1
1
1
1
1
1
1
1
1
1
1
1
1
1
1
1
1
1
3.04123
8.627
9.33075
9.32682
9.31617
9.27969
9.23947
9.1983
9.15467
9.10878
9.05085
8.97836
8.88813
8.7891
8.68709
8.59136
8.50478
8.41914
8.31931
8.20097
8.07348
7.93012
7.77363
7.6107
7.43712
7.25392
7.06602
6.87342
6.67738
6.47104
6.25821
6.03666
5.81236
1
1
1
1
1
1
1
1
1
1
1
1
1
1
1
1
1
1
1
1
1
1
1
1
1
1
1
1
1
1
1
1
1
1
1
1
1
1
1
1
1
1
1
1
1
1
1
1
1
1
1
1
1
1
1
1
1
1
1
1
1
1
0.999993
1.27391
7.15034
9.34022
9.28302
9.2632
9.23429
9.18758
9.13614
9.08659
9.03949
8.98774
8.92437
8.8442
8.74982
8.64547
8.53891
8.43907
8.34849
8.25398
8.14724
8.02864
7.89065
7.73652
7.57427
7.40407
7.22846
7.04693
6.86116
6.66906
6.46892
6.25869
6.04193
5.82984
1
1
1
1
1
1
1
1
1
1
1
1
1
1
1
1
1
1
1
1
1
1
1
1
1
1
1
1
1
1
1
1
1
1
1
1
1
1
1
1
1
1
1
1
1
1
1
1
1
1
1
1
1
1
1
1
1
1
1
1
1
1
0.999999
1.00597
4.55522
8.79252
9.14166
9.19994
9.197
9.15289
9.09427
9.03629
8.98032
8.92517
8.86578
8.79447
8.70668
8.60451
8.49256
8.38131
8.28042
8.18641
8.09068
7.98328
7.85427
7.70557
7.54419
7.3759
7.20387
7.02792
6.84829
6.66089
6.46458
6.25661
6.05028
5.84803
1
1
1
1
1
1
1
1
1
1
1
1
1
1
1
1
1
1
1
1
1
1
1
1
1
1
1
1
1
1
1
1
1
1
1
1
1
1
1
1
1
1
1
1
1
1
1
1
1
1
1
1
1
1
1
1
1
1
1
1
1
1
1
0.999989
1.89936
8.00891
9.29907
9.1892
9.14683
9.10151
9.04174
8.9822
8.91993
8.86057
8.80202
8.73599
8.65451
8.55707
8.44622
8.33011
8.2209
8.1199
8.02615
7.93033
7.81372
7.67391
7.51704
7.35159
7.18139
7.01028
6.83578
6.65343
6.46151
6.26089
6.06583
5.86972
1
1
1
1
1
1
1
1
1
1
1
1
1
1
1
1
1
1
1
1
1
1
1
1
1
1
1
1
1
1
1
1
1
1
1
1
1
1
1
1
1
1
1
1
1
1
1
1
1
1
1
1
1
1
1
1
1
1
1
1
1
1
1
0.999998
1.0608
5.99685
8.93524
9.02551
9.07163
9.06186
9.01104
8.94662
8.87774
8.81421
8.75288
8.6868
8.60827
8.51445
8.4074
8.29167
8.17656
8.06661
7.96439
7.86948
7.76554
7.63779
7.49005
7.32954
7.16234
6.99504
6.8237
6.6455
6.45929
6.26952
6.08263
5.89203
1
1
1
1
1
1
1
1
1
1
1
1
1
1
1
1
1
1
1
1
1
1
1
1
1
1
1
1
1
1
1
1
1
1
1
1
1
1
1
1
1
1
1
1
1
1
1
1
1
1
1
1
1
1
1
1
1
1
1
1
1
1
1
1
1.00021
3.02866
8.39211
9.05621
9.05076
9.01917
8.97096
8.90763
8.83939
8.77316
8.70668
8.63607
8.55744
8.46748
8.36684
8.25677
8.14123
8.0248
7.91222
7.80767
7.70572
7.58785
7.45258
7.30337
7.14448
6.98202
6.8138
6.64035
6.46183
6.28216
6.10037
5.91514
1
1
1
1
1
1
1
1
1
1
1
1
1
1
1
1
1
1
1
1
1
1
1
1
1
1
1
1
1
1
1
1
1
1
1
1
1
1
1
1
1
1
1
1
1
1
1
1
1
1
1
1
1
1
1
1
1
1
1
1
1
1
1
1
1
1.26175
6.84879
9.05813
8.99625
8.96486
8.93141
8.87566
8.80744
8.73556
8.66207
8.58754
8.50919
8.42397
8.33018
8.22767
8.1154
7.99617
7.87571
7.75952
7.64845
7.53333
7.40894
7.2749
7.12797
6.9712
6.80695
6.63775
6.46628
6.29465
6.11777
5.93789
1
1
1
1
1
1
1
1
1
1
1
1
1
1
1
1
1
1
1
1
1
1
1
1
1
1
1
1
1
1
1
1
1
1
1
1
1
1
1
1
1
1
1
1
1
1
1
1
1
1
1
1
1
1
1
1
1
1
1
1
1
1
1
1
1
1.0052
4.00474
8.4615
8.85295
8.89806
8.89513
8.84927
8.78422
8.70868
8.62801
8.54771
8.46591
8.3819
8.29149
8.19353
8.08592
7.96942
7.84817
7.72615
7.60486
7.48313
7.3621
7.23882
7.10449
6.95673
6.8003
6.63787
6.47304
6.30755
6.13585
5.96093
1
1
1
1
1
1
1
1
1
1
1
1
1
1
1
1
1
1
1
1
1
1
1
1
1
1
1
1
1
1
1
1
1
1
1
1
1
1
1
1
1
1
1
1
1
1
1
1
1
1
1
1
1
1
1
1
1
1
1
1
1
1
1
1
1
0.999998
1.52977
7.33879
8.99323
8.88153
8.83803
8.79471
8.73488
8.66446
8.58637
8.50699
8.42576
8.34225
8.2551
8.16107
8.05795
7.94602
7.82725
7.70378
7.57685
7.44865
7.32509
7.20514
7.07869
6.94021
6.79095
6.63499
6.4762
6.31623
6.1508
5.98132
1
1
1
1
1
1
1
1
1
1
1
1
1
1
1
1
1
1
1
1
1
1
1
1
1
1
1
1
1
1
1
1
1
1
1
1
1
1
1
1
1
1
1
1
1
1
1
1
1
1
1
1
1
1
1
1
1
1
1
1
1
1
1
1
1
0.999999
1.02188
4.80267
8.49572
8.71001
8.74652
8.7431
8.69904
8.63072
8.5518
8.47104
8.39149
8.30989
8.22423
8.13162
8.03204
7.92373
7.80775
7.68493
7.55662
7.42495
7.29712
7.17475
7.04974
6.91655
6.77442
6.62501
6.47259
6.32044
6.16305
5.99906
1
1
1
1
1
1
1
1
1
1
1
1
1
1
1
1
1
1
1
1
1
1
1
1
1
1
1
1
1
1
1
1
1
1
1
1
1
1
1
1
1
1
1
1
1
1
1
1
1
1
1
1
1
1
1
1
1
1
1
1
1
1
1
1
1
1
1.00002
1.84112
7.62077
8.865
8.74909
8.70601
8.66403
8.59636
8.5154
8.43166
8.34846
8.26665
8.18507
8.09849
8.00494
7.90222
7.79042
7.67089
7.54445
7.41262
7.28022
7.15228
7.02627
6.89579
6.75787
6.61226
6.46356
6.31768
6.16879
6.01077
1
1
1
1
1
1
1
1
1
1
1
1
1
1
1
1
1
1
1
1
1
1
1
1
1
1
1
1
1
1
1
1
1
1
1
1
1
1
1
1
1
1
1
1
1
1
1
1
1
1
1
1
1
1
1
1
1
1
1
1
1
1
1
1
1
1
1
1.05251
5.3314
8.47932
8.58478
8.61397
8.60571
8.56154
8.49225
8.4098
8.31931
8.23079
8.14669
8.06466
7.97691
7.87886
7.77021
7.6543
7.53222
7.40407
7.27136
7.13855
7.00744
6.87425
6.73769
6.59621
6.45196
6.3122
6.17124
6.01944
1
1
1
1
1
1
1
1
1
1
1
1
1
1
1
1
1
1
1
1
1
1
1
1
1
1
1
1
1
1
1
1
1
1
1
1
1
1
1
1
1
1
1
1
1
1
1
1
1
1
1
1
1
1
1
1
1
1
1
1
1
1
1
1
1
1
1
1.00018
2.16561
7.73185
8.71219
8.61403
8.56647
8.52069
8.46106
8.38609
8.29683
8.20246
8.11212
8.02613
7.94004
7.84719
7.74339
7.63253
7.51725
7.3958
7.26696
7.13272
6.99672
6.85977
6.72288
6.58444
6.44387
6.3083
6.17276
6.02557
1
1
1
1
1
1
1
1
1
1
1
1
1
1
1
1
1
1
1
1
1
1
1
1
1
1
1
1
1
1
1
1
1
1
1
1
1
1
1
1
1
1
1
1
1
1
1
1
1
1
1
1
1
1
1
1
1
1
1
1
1
1
1
1
1
1
1
1
1.0926
5.60702
8.42621
8.47996
8.47899
8.45793
8.4172
8.35574
8.27842
8.18765
8.09072
7.99629
7.90618
7.8145
7.71396
7.60598
7.49464
7.37924
7.25676
7.12647
6.99105
6.85301
6.71542
6.57868
6.44056
6.30641
6.1738
6.03091
1
1
1
1
1
1
1
1
1
1
1
1
1
1
1
1
1
1
1
1
1
1
1
1
1
1
1
1
1
1
1
1
1
1
1
1
1
1
1
1
1
1
1
1
1
1
1
1
1
1
1
1
1
1
1
1
1
1
1
1
1
1
1
1
1
1
1
1
1.00062
2.35244
7.72044
8.56822
8.47791
8.42853
8.38344
8.32483
8.25496
8.17125
8.07423
7.97264
7.87528
7.78074
7.68366
7.57966
7.47013
7.35758
7.24026
7.11621
6.98626
6.85165
6.71602
6.5817
6.44586
6.31112
6.17819
6.03801
1
1
1
1
1
1
1
1
1
1
1
1
1
1
1
1
1
1
1
1
1
1
1
1
1
1
1
1
1
1
1
1
1
1
1
1
1
1
1
1
1