/*--------------------------------*- C++ -*----------------------------------*\
  =========                 |
  \\      /  F ield         | OpenFOAM: The Open Source CFD Toolbox
   \\    /   O peration     | Website:  https://openfoam.org
    \\  /    A nd           | Version:  7
     \\/     M anipulation  |
\*---------------------------------------------------------------------------*/
FoamFile
{
    version     2.0;
    format      ascii;
    class       volVectorField;
    location    "1.1";
    object      U;
}
// * * * * * * * * * * * * * * * * * * * * * * * * * * * * * * * * * * * * * //

dimensions      [0 1 -1 0 0 0 0];

internalField   nonuniform List<vector> 
64512
(
(3 1.06782e-16 0)
(3 2.1369e-16 0)
(3 4.66615e-16 0)
(3 3.36746e-16 0)
(3 2.11933e-16 0)
(3 -1.15553e-16 0)
(3 -3.40614e-16 0)
(3 -3.17534e-17 0)
(3 -2.39292e-16 0)
(3 -1.01352e-16 0)
(3 3.2071e-16 0)
(3 -1.14678e-16 0)
(3 -3.12908e-16 0)
(3 -2.4061e-16 0)
(3 8.80365e-17 0)
(3 -1.86196e-16 0)
(3 -1.07317e-15 0)
(3 -1.45567e-15 0)
(3 -1.30544e-15 0)
(3 -1.04187e-15 0)
(3 -1.98772e-16 0)
(3 6.83563e-16 0)
(3 1.25524e-15 0)
(3 1.23104e-15 0)
(3 8.30612e-16 0)
(3 1.08535e-15 0)
(3 1.15982e-15 0)
(3 7.60624e-16 0)
(3 7.49057e-16 0)
(3 9.40891e-16 0)
(3 9.11031e-16 0)
(3 7.54579e-16 0)
(3 6.38948e-16 0)
(3 4.92829e-16 0)
(3 3.59851e-16 0)
(3 4.42366e-17 0)
(3 1.08051e-16 0)
(3 -1.82732e-16 0)
(3 -3.86004e-16 0)
(3 -3.44723e-16 0)
(3 -8.72083e-17 0)
(3 3.23209e-16 0)
(3 3.95595e-16 0)
(3 5.9168e-16 0)
(3 8.37655e-16 0)
(3 1.21604e-15 0)
(3 8.19736e-16 0)
(3 5.63918e-16 0)
(3 1.50948e-16 0)
(3 -1.25527e-16 0)
(3 -3.1188e-16 0)
(3 1.93025e-16 0)
(3 2.66626e-17 0)
(1.89156 0.004075 0)
(0.783643 0.00370169 0)
(0.718873 0.00422451 0)
(0.704772 0.00824238 0)
(0.680001 0.00923687 0)
(0.656897 0.0102372 0)
(0.633814 0.0103349 0)
(0.615221 0.00877121 0)
(0.600421 0.00827219 0)
(0.589115 0.00664088 0)
(0.579393 0.00520507 0)
(0.569614 0.00405865 0)
(0.559613 0.00450898 0)
(0.543103 0.00539588 0)
(0.523647 0.00702031 0)
(0.502181 0.00866162 0)
(0.479673 0.00955338 0)
(0.459385 0.00878762 0)
(0.442124 0.00748754 0)
(0.425837 0.00711318 0)
(0.410636 0.00759865 0)
(0.394023 0.00816705 0)
(0.375485 0.00832457 0)
(0.357321 0.00824347 0)
(0.34157 0.00822035 0)
(0.328707 0.00830557 0)
(0.317383 0.0083519 0)
(0.305232 0.0083257 0)
(0.290926 0.00837546 0)
(0.273838 0.00847936 0)
(0.254755 0.00861547 0)
(0.235065 0.00883656 0)
(0.215749 0.00896745 0)
(0.196794 0.0090392 0)
(0.178385 0.00899973 0)
(0.160795 0.00908783 0)
(0.142467 0.00926703 0)
(0.12453 0.00956545 0)
(0.104096 0.00994664 0)
(0.0811633 0.0104193 0)
(0.0571075 0.0110213 0)
(0.032995 0.0115166 0)
(0.0109958 0.0119105 0)
(3 6.31867e-17 0)
(3 4.6814e-16 0)
(3 9.55976e-16 0)
(3 6.81242e-16 0)
(3 8.57168e-16 0)
(3 4.79843e-16 0)
(3 2.9458e-17 0)
(3 1.94205e-19 0)
(3 -2.04912e-16 0)
(3 -4.0427e-17 0)
(3 3.87056e-16 0)
(3 3.55119e-16 0)
(3 7.90707e-17 0)
(3 -3.31378e-16 0)
(3 -4.04606e-16 0)
(3 -4.17487e-16 0)
(3 -9.37362e-16 0)
(3 -1.34381e-15 0)
(3 -1.5013e-15 0)
(3 -1.20315e-15 0)
(3 -6.9044e-16 0)
(3 6.87386e-16 0)
(3 3.53e-15 0)
(3 3.3893e-15 0)
(3 3.02349e-15 0)
(3 2.85853e-15 0)
(3 2.16453e-15 0)
(3 1.03316e-15 0)
(3 1.62351e-15 0)
(3 2.54134e-15 0)
(3 1.61207e-15 0)
(3 8.90238e-16 0)
(3 4.19993e-16 0)
(3 1.84036e-16 0)
(3 9.63955e-17 0)
(3 -1.67648e-16 0)
(3 -6.01731e-16 0)
(3 -3.63118e-16 0)
(3 1.31016e-16 0)
(3 5.71703e-16 0)
(3 4.33493e-16 0)
(3 1.60826e-16 0)
(3 -4.09206e-16 0)
(3 6.14422e-16 0)
(3 2.08828e-15 0)
(3 2.96635e-15 0)
(3 1.84624e-15 0)
(3 1.85537e-16 0)
(3 -4.71875e-16 0)
(3 -3.36825e-16 0)
(3 -2.21634e-16 0)
(3 2.90918e-16 0)
(3 4.46917e-17 0)
(1.90568 0.0202228 0)
(0.784496 0.017645 0)
(0.711872 0.0119197 0)
(0.697929 0.0211871 0)
(0.674067 0.0258247 0)
(0.651363 0.0292902 0)
(0.6287 0.0295882 0)
(0.611275 0.025132 0)
(0.597336 0.0233318 0)
(0.587495 0.0192365 0)
(0.578352 0.0156617 0)
(0.568126 0.0130356 0)
(0.556997 0.0138524 0)
(0.539572 0.0164011 0)
(0.519419 0.0210041 0)
(0.497665 0.0254718 0)
(0.475459 0.0276357 0)
(0.45599 0.0255215 0)
(0.439255 0.0222693 0)
(0.422935 0.0213964 0)
(0.407559 0.0227726 0)
(0.390993 0.0243331 0)
(0.372551 0.0246643 0)
(0.354589 0.0244075 0)
(0.338931 0.0244387 0)
(0.325962 0.0248639 0)
(0.314415 0.0251852 0)
(0.302158 0.0251803 0)
(0.287989 0.0251931 0)
(0.271179 0.0253088 0)
(0.252325 0.0255544 0)
(0.232698 0.0260143 0)
(0.213347 0.026407 0)
(0.194432 0.0269454 0)
(0.17613 0.02736 0)
(0.15863 0.0280033 0)
(0.140498 0.0285008 0)
(0.122608 0.0289183 0)
(0.102582 0.0295083 0)
(0.0804332 0.0307443 0)
(0.057148 0.0326994 0)
(0.033484 0.0346117 0)
(0.0111089 0.0362316 0)
(3 -8.26613e-17 0)
(3 -2.26728e-17 0)
(3 -2.24147e-16 0)
(3 -5.06933e-17 0)
(3 1.37708e-16 0)
(3 2.00159e-16 0)
(3 -1.8449e-16 0)
(3 -2.74547e-16 0)
(3 2.46461e-16 0)
(3 6.65374e-16 0)
(3 3.89671e-16 0)
(3 5.12042e-16 0)
(3 5.59453e-16 0)
(3 7.22216e-17 0)
(3 -2.07866e-16 0)
(3 -3.71004e-16 0)
(3 -1.19287e-16 0)
(3 2.15124e-16 0)
(3 -4.19535e-17 0)
(3 -9.16514e-16 0)
(3 -1.51329e-15 0)
(3 -1.14714e-15 0)
(3 -9.90129e-16 0)
(3 3.36193e-16 0)
(3 1.40318e-15 0)
(3 1.41097e-15 0)
(3 1.3099e-15 0)
(3 7.92456e-16 0)
(3 1.05443e-15 0)
(3 1.42568e-15 0)
(3 1.53557e-15 0)
(3 1.06291e-15 0)
(3 2.51023e-16 0)
(3 1.63577e-17 0)
(3 1.5207e-16 0)
(3 5.82585e-16 0)
(3 4.7498e-16 0)
(3 1.24582e-15 0)
(3 1.71496e-15 0)
(3 1.37587e-15 0)
(3 3.49963e-16 0)
(3 -1.3268e-16 0)
(3 -1.22305e-16 0)
(3 5.64858e-16 0)
(3 1.74958e-15 0)
(3 2.16587e-15 0)
(3 2.10056e-15 0)
(3 1.77082e-15 0)
(3 1.65919e-15 0)
(3 1.1098e-15 0)
(3 8.17412e-16 0)
(3 6.55963e-16 0)
(3 -4.64578e-16 0)
(1.94236 0.0339065 0)
(0.792151 0.0318479 0)
(0.710119 0.0228722 0)
(0.695526 0.0355774 0)
(0.671437 0.0434828 0)
(0.648634 0.0488289 0)
(0.626323 0.0484615 0)
(0.610598 0.0412096 0)
(0.597252 0.0376685 0)
(0.589084 0.0312327 0)
(0.580346 0.0262779 0)
(0.569574 0.0229759 0)
(0.557048 0.0245773 0)
(0.538166 0.0288572 0)
(0.516803 0.0361735 0)
(0.4943 0.0428794 0)
(0.471958 0.0454969 0)
(0.453126 0.041846 0)
(0.436833 0.0369335 0)
(0.420529 0.0357401 0)
(0.404938 0.0379928 0)
(0.388394 0.0404996 0)
(0.369965 0.0409999 0)
(0.352212 0.0405773 0)
(0.336685 0.0406381 0)
(0.323587 0.0413074 0)
(0.311674 0.0419412 0)
(0.299019 0.0421877 0)
(0.284728 0.0423075 0)
(0.267991 0.0424981 0)
(0.249246 0.0427015 0)
(0.229679 0.0433413 0)
(0.210327 0.0438131 0)
(0.191464 0.0445133 0)
(0.173214 0.0452148 0)
(0.155543 0.0462672 0)
(0.13733 0.0471044 0)
(0.119252 0.047896 0)
(0.0997949 0.0490533 0)
(0.0787759 0.0510963 0)
(0.0566171 0.0541966 0)
(0.0337408 0.0570352 0)
(0.0111933 0.0596563 0)
(3 -1.5375e-16 0)
(3 -4.97631e-16 0)
(3 -4.85034e-16 0)
(3 -8.01935e-16 0)
(3 -1.03985e-15 0)
(3 -8.36796e-16 0)
(3 -3.39871e-16 0)
(3 1.57854e-16 0)
(3 8.31722e-18 0)
(3 4.67288e-16 0)
(3 5.86913e-16 0)
(3 3.2513e-16 0)
(3 2.51437e-16 0)
(3 2.19834e-17 0)
(3 8.18821e-17 0)
(3 -3.25818e-16 0)
(3 -4.62464e-16 0)
(3 3.81019e-18 0)
(3 -4.68173e-16 0)
(3 -1.0938e-15 0)
(3 -9.92797e-16 0)
(3 -9.73678e-16 0)
(3 -1.93269e-15 0)
(3 -1.99744e-15 0)
(3 -1.71051e-15 0)
(3 -2.57154e-16 0)
(3 1.00131e-15 0)
(3 1.36888e-15 0)
(3 9.8079e-16 0)
(3 8.55496e-16 0)
(3 8.78515e-16 0)
(3 8.39216e-16 0)
(3 1.31891e-15 0)
(3 1.18862e-15 0)
(3 1.25501e-15 0)
(3 1.56289e-15 0)
(3 1.95484e-15 0)
(3 2.27493e-15 0)
(3 1.7819e-15 0)
(3 1.12776e-15 0)
(3 2.6214e-16 0)
(3 5.44584e-16 0)
(3 1.36876e-15 0)
(3 1.71544e-15 0)
(3 1.04271e-15 0)
(3 6.90281e-16 0)
(3 5.99291e-16 0)
(3 1.27893e-15 0)
(3 1.88223e-15 0)
(3 1.2617e-15 0)
(3 5.67844e-16 0)
(3 3.76636e-16 0)
(3 -4.36169e-16 0)
(1.99017 0.0454145 0)
(0.799762 0.0471956 0)
(0.711348 0.0353606 0)
(0.695695 0.0505137 0)
(0.670616 0.0614788 0)
(0.647378 0.0677437 0)
(0.625782 0.0656766 0)
(0.612547 0.0559465 0)
(0.599888 0.0504957 0)
(0.593418 0.0421712 0)
(0.584715 0.0367028 0)
(0.573347 0.0335731 0)
(0.559572 0.036281 0)
(0.539453 0.0425272 0)
(0.517046 0.0523758 0)
(0.493921 0.0607865 0)
(0.471452 0.0631874 0)
(0.453143 0.0579804 0)
(0.436981 0.051738 0)
(0.420485 0.0503247 0)
(0.404501 0.0533859 0)
(0.387842 0.0567717 0)
(0.369304 0.0574279 0)
(0.3517 0.0568707 0)
(0.336281 0.0569986 0)
(0.323037 0.0579113 0)
(0.310703 0.0588857 0)
(0.297457 0.0595179 0)
(0.282797 0.0597883 0)
(0.265843 0.060127 0)
(0.247 0.0602834 0)
(0.227359 0.0606962 0)
(0.207996 0.0612032 0)
(0.18907 0.0621651 0)
(0.170738 0.0629926 0)
(0.152716 0.0643092 0)
(0.134276 0.0655149 0)
(0.115786 0.0667901 0)
(0.0967703 0.0686207 0)
(0.0767546 0.071344 0)
(0.0556955 0.0752517 0)
(0.0336665 0.0787647 0)
(0.0112049 0.0821224 0)
(3 1.85522e-17 0)
(3 7.51912e-17 0)
(3 8.4138e-17 0)
(3 -6.09764e-17 0)
(3 -6.31436e-17 0)
(3 3.20785e-16 0)
(3 4.89012e-16 0)
(3 3.89249e-16 0)
(3 4.25101e-16 0)
(3 5.1286e-16 0)
(3 4.27923e-16 0)
(3 9.69925e-17 0)
(3 9.99096e-17 0)
(3 5.03347e-16 0)
(3 4.78388e-16 0)
(3 5.79439e-16 0)
(3 -3.23355e-16 0)
(3 -1.26937e-15 0)
(3 -1.74342e-15 0)
(3 -1.666e-15 0)
(3 -8.69569e-16 0)
(3 -2.31005e-16 0)
(3 -3.43387e-16 0)
(3 -9.32311e-16 0)
(3 -1.11124e-15 0)
(3 -6.88703e-16 0)
(3 3.45187e-17 0)
(3 9.95214e-16 0)
(3 7.58571e-16 0)
(3 5.89875e-16 0)
(3 7.15841e-17 0)
(3 -2.30071e-17 0)
(3 1.48252e-15 0)
(3 2.32902e-15 0)
(3 2.27508e-15 0)
(3 1.26852e-15 0)
(3 7.90025e-16 0)
(3 7.00732e-16 0)
(3 8.42297e-16 0)
(3 8.06724e-16 0)
(3 8.39391e-16 0)
(3 1.32702e-15 0)
(3 1.68661e-15 0)
(3 1.97877e-15 0)
(3 1.33613e-15 0)
(3 9.70932e-16 0)
(3 3.97851e-16 0)
(3 4.30268e-16 0)
(3 6.71865e-17 0)
(3 -7.7194e-16 0)
(3 -1.30508e-15 0)
(3 -1.08269e-15 0)
(3 -6.28129e-16 0)
(2.0506 0.057058 0)
(0.807886 0.0611246 0)
(0.712338 0.0495444 0)
(0.694971 0.0673855 0)
(0.66827 0.0803141 0)
(0.644802 0.0855681 0)
(0.624862 0.0806826 0)
(0.61482 0.0690915 0)
(0.602972 0.0621548 0)
(0.597932 0.0526978 0)
(0.589061 0.0475247 0)
(0.57714 0.0451755 0)
(0.562229 0.0491 0)
(0.541195 0.0572183 0)
(0.518159 0.0691568 0)
(0.494786 0.0786103 0)
(0.472438 0.080393 0)
(0.454618 0.0738687 0)
(0.438459 0.0666563 0)
(0.421782 0.0650757 0)
(0.405444 0.0688131 0)
(0.388691 0.0730055 0)
(0.370081 0.0738607 0)
(0.352708 0.0732625 0)
(0.337532 0.0735191 0)
(0.324281 0.0747009 0)
(0.311599 0.0759614 0)
(0.297796 0.0769857 0)
(0.282606 0.0774832 0)
(0.265284 0.0780416 0)
(0.246148 0.078257 0)
(0.22634 0.0786253 0)
(0.206986 0.0791029 0)
(0.187946 0.0800569 0)
(0.169488 0.080925 0)
(0.151106 0.0823897 0)
(0.132272 0.0839215 0)
(0.113205 0.0857127 0)
(0.0942774 0.0882728 0)
(0.0747866 0.0915407 0)
(0.0544717 0.0959292 0)
(0.0331491 0.099743 0)
(0.0111399 0.103548 0)
(3 -9.15394e-18 0)
(3 2.51045e-16 0)
(3 -1.78458e-17 0)
(3 6.39762e-17 0)
(3 2.44603e-16 0)
(3 1.29431e-16 0)
(3 8.47437e-17 0)
(3 1.74728e-16 0)
(3 1.19371e-15 0)
(3 1.36889e-15 0)
(3 1.37977e-15 0)
(3 1.50329e-15 0)
(3 1.91926e-15 0)
(3 2.06417e-15 0)
(3 1.60669e-15 0)
(3 1.21813e-15 0)
(3 7.19383e-16 0)
(3 -8.10409e-16 0)
(3 -8.96331e-16 0)
(3 -3.91638e-16 0)
(3 -3.89255e-16 0)
(3 -1.05482e-15 0)
(3 -1.12177e-15 0)
(3 -1.07589e-15 0)
(3 -7.98282e-16 0)
(3 -4.63079e-16 0)
(3 -7.86259e-17 0)
(3 6.0324e-16 0)
(3 6.13154e-16 0)
(3 3.99906e-16 0)
(3 5.69293e-16 0)
(3 9.41032e-16 0)
(3 9.42083e-16 0)
(3 4.77632e-16 0)
(3 4.76502e-16 0)
(3 3.23736e-16 0)
(3 -5.00679e-16 0)
(3 -4.10452e-16 0)
(3 1.84317e-16 0)
(3 2.66613e-16 0)
(3 8.64244e-16 0)
(3 1.31071e-15 0)
(3 1.30566e-15 0)
(3 7.67722e-16 0)
(3 7.07198e-16 0)
(3 7.96853e-16 0)
(3 7.94709e-16 0)
(3 5.33251e-16 0)
(3 -4.21684e-16 0)
(3 -1.05348e-15 0)
(3 -1.58071e-15 0)
(3 -1.68621e-15 0)
(3 -1.53297e-15 0)
(2.12956 0.0677834 0)
(0.818818 0.0737334 0)
(0.712736 0.0659202 0)
(0.693226 0.0867184 0)
(0.665406 0.0996605 0)
(0.642848 0.101598 0)
(0.625844 0.0933995 0)
(0.618528 0.0803341 0)
(0.606984 0.0728427 0)
(0.602703 0.0629953 0)
(0.593511 0.0586866 0)
(0.581113 0.0576064 0)
(0.565153 0.0628198 0)
(0.543384 0.0727289 0)
(0.519817 0.0863273 0)
(0.496155 0.0962513 0)
(0.473797 0.0972891 0)
(0.456138 0.0897667 0)
(0.439826 0.0818503 0)
(0.423127 0.0800337 0)
(0.406686 0.0842157 0)
(0.390147 0.0890829 0)
(0.371739 0.0902183 0)
(0.354775 0.0897384 0)
(0.33997 0.0902165 0)
(0.326801 0.0916796 0)
(0.313783 0.093142 0)
(0.2995 0.0944487 0)
(0.283672 0.0952033 0)
(0.265986 0.0959762 0)
(0.24646 0.0963746 0)
(0.226419 0.096867 0)
(0.206959 0.0973881 0)
(0.18793 0.0983338 0)
(0.169334 0.0992208 0)
(0.150731 0.100758 0)
(0.131568 0.102503 0)
(0.112022 0.104758 0)
(0.0928326 0.108009 0)
(0.0732526 0.111717 0)
(0.0530828 0.116349 0)
(0.0321644 0.12018 0)
(0.0109978 0.124232 0)
(3 1.44921e-17 0)
(3 1.29082e-16 0)
(3 2.83316e-16 0)
(3 4.13492e-16 0)
(3 3.62388e-16 0)
(3 2.96242e-16 0)
(3 5.1991e-16 0)
(3 6.89595e-16 0)
(3 6.19161e-16 0)
(3 6.92943e-16 0)
(3 1.09493e-15 0)
(3 1.84057e-15 0)
(3 1.85225e-15 0)
(3 1.3123e-15 0)
(3 9.70229e-16 0)
(3 -2.18471e-16 0)
(3 -6.30087e-16 0)
(3 -4.22396e-16 0)
(3 -1.87228e-16 0)
(3 1.01112e-15 0)
(3 -4.9028e-16 0)
(3 -2.70541e-15 0)
(3 -3.3998e-15 0)
(3 -3.19132e-15 0)
(3 -2.04959e-15 0)
(3 -1.58613e-15 0)
(3 -1.22716e-15 0)
(3 -5.34413e-16 0)
(3 1.31165e-16 0)
(3 2.86838e-16 0)
(3 7.8941e-16 0)
(3 2.35819e-15 0)
(3 2.06719e-15 0)
(3 5.71999e-16 0)
(3 1.26006e-16 0)
(3 3.41481e-16 0)
(3 1.51737e-16 0)
(3 -2.92735e-16 0)
(3 -1.98215e-16 0)
(3 -2.31343e-16 0)
(3 -1.85343e-16 0)
(3 -1.21472e-16 0)
(3 1.57809e-16 0)
(3 -8.17778e-16 0)
(3 -9.83864e-16 0)
(3 -1.00533e-15 0)
(3 -8.10448e-16 0)
(3 -4.78612e-16 0)
(3 -8.79886e-16 0)
(3 -6.01636e-16 0)
(3 -7.63348e-16 0)
(3 -1.84778e-15 0)
(3 -2.09287e-15 0)
(2.22544 0.0769575 0)
(0.831148 0.0861858 0)
(0.711611 0.0855596 0)
(0.689973 0.108123 0)
(0.662478 0.118015 0)
(0.642413 0.114959 0)
(0.629859 0.103607 0)
(0.623698 0.0897815 0)
(0.612163 0.0829654 0)
(0.607571 0.0736455 0)
(0.597709 0.0706294 0)
(0.584697 0.0711658 0)
(0.567507 0.077592 0)
(0.544998 0.0891684 0)
(0.520885 0.103993 0)
(0.496939 0.113835 0)
(0.474699 0.113991 0)
(0.457414 0.105581 0)
(0.441314 0.0970618 0)
(0.425021 0.0948946 0)
(0.408858 0.0993324 0)
(0.392627 0.104815 0)
(0.374477 0.106435 0)
(0.357736 0.106333 0)
(0.343025 0.107205 0)
(0.329713 0.108993 0)
(0.316242 0.110568 0)
(0.301518 0.111947 0)
(0.285147 0.112879 0)
(0.26719 0.113817 0)
(0.24738 0.114471 0)
(0.227172 0.115259 0)
(0.207537 0.116001 0)
(0.188517 0.117076 0)
(0.169925 0.118007 0)
(0.151107 0.119559 0)
(0.131875 0.121399 0)
(0.112119 0.123953 0)
(0.0924284 0.127668 0)
(0.0722274 0.131786 0)
(0.0516536 0.136606 0)
(0.0307966 0.140361 0)
(0.0107787 0.144606 0)
(3 1.6643e-16 0)
(3 8.92878e-17 0)
(3 2.18383e-16 0)
(3 5.05113e-16 0)
(3 4.98339e-16 0)
(3 6.04607e-16 0)
(3 1.13446e-16 0)
(3 -2.58737e-16 0)
(3 -8.79103e-16 0)
(3 -9.26571e-16 0)
(3 -4.5419e-16 0)
(3 -5.99638e-17 0)
(3 9.54973e-17 0)
(3 -6.45581e-16 0)
(3 -8.80645e-16 0)
(3 -7.54605e-16 0)
(3 -5.77994e-17 0)
(3 4.59032e-16 0)
(3 7.25048e-16 0)
(3 5.04443e-16 0)
(3 -5.37455e-16 0)
(3 -1.68917e-15 0)
(3 -2.51091e-15 0)
(3 -2.25218e-15 0)
(3 -1.31591e-15 0)
(3 -7.34966e-16 0)
(3 -3.9467e-16 0)
(3 -8.29992e-16 0)
(3 -8.76502e-16 0)
(3 -4.84785e-16 0)
(3 -4.01787e-16 0)
(3 6.38125e-16 0)
(3 1.29305e-15 0)
(3 1.16604e-15 0)
(3 2.10574e-16 0)
(3 -2.54577e-16 0)
(3 -3.49926e-16 0)
(3 1.4129e-17 0)
(3 7.10714e-17 0)
(3 6.66207e-17 0)
(3 -4.93239e-16 0)
(3 -1.37318e-15 0)
(3 -2.01916e-15 0)
(3 -1.78702e-15 0)
(3 -9.96211e-16 0)
(3 -1.34644e-15 0)
(3 -1.721e-15 0)
(3 -9.25622e-16 0)
(3 -2.25903e-16 0)
(3 6.72485e-16 0)
(3 5.60553e-16 0)
(3 -7.83862e-17 0)
(3 -1.37311e-15 0)
(2.33824 0.0819254 0)
(0.846589 0.0985831 0)
(0.709464 0.109117 0)
(0.685535 0.129726 0)
(0.660806 0.133462 0)
(0.645167 0.125594 0)
(0.636756 0.111915 0)
(0.630022 0.098484 0)
(0.61914 0.092683 0)
(0.612629 0.0851415 0)
(0.601676 0.0836327 0)
(0.587906 0.0858863 0)
(0.569456 0.0935287 0)
(0.546309 0.106614 0)
(0.521728 0.12214 0)
(0.497636 0.131226 0)
(0.475846 0.130176 0)
(0.459277 0.12085 0)
(0.443527 0.111881 0)
(0.427663 0.109468 0)
(0.41171 0.114237 0)
(0.395584 0.120511 0)
(0.37753 0.122921 0)
(0.360794 0.123386 0)
(0.345992 0.124678 0)
(0.33244 0.126712 0)
(0.318571 0.128272 0)
(0.303604 0.129472 0)
(0.287005 0.130467 0)
(0.268893 0.131575 0)
(0.248998 0.132534 0)
(0.228674 0.133746 0)
(0.208801 0.134866 0)
(0.189594 0.13624 0)
(0.170977 0.137265 0)
(0.151975 0.138835 0)
(0.132872 0.140719 0)
(0.113154 0.14338 0)
(0.0929035 0.147363 0)
(0.0717422 0.151637 0)
(0.0504012 0.156764 0)
(0.0293269 0.160546 0)
(0.0105272 0.165086 0)
(3 1.38487e-18 0)
(3 8.52321e-18 0)
(3 -6.1937e-17 0)
(3 -1.65949e-16 0)
(3 -5.75541e-17 0)
(3 -1.8835e-16 0)
(3 -7.47265e-16 0)
(3 -9.31342e-16 0)
(3 -1.09856e-15 0)
(3 -1.19504e-15 0)
(3 -1.60049e-15 0)
(3 -1.55199e-15 0)
(3 -1.55163e-15 0)
(3 -1.59728e-15 0)
(3 -1.22119e-15 0)
(3 -3.28819e-16 0)
(3 4.8793e-16 0)
(3 9.4082e-16 0)
(3 9.98192e-16 0)
(3 9.35431e-18 0)
(3 -2.95567e-16 0)
(3 -1.23267e-16 0)
(3 -1.0889e-16 0)
(3 -5.01972e-16 0)
(3 -4.21697e-16 0)
(3 -8.67436e-17 0)
(3 -2.93118e-16 0)
(3 -1.02569e-15 0)
(3 -1.07356e-15 0)
(3 -1.8977e-16 0)
(3 -5.6662e-16 0)
(3 -1.13876e-15 0)
(3 -1.178e-15 0)
(3 -1.09967e-15 0)
(3 -1.09878e-15 0)
(3 -5.34915e-16 0)
(3 -1.77676e-16 0)
(3 1.42257e-16 0)
(3 2.98897e-16 0)
(3 3.87177e-16 0)
(3 -4.42475e-16 0)
(3 -1.13991e-15 0)
(3 -1.68403e-15 0)
(3 -2.11536e-15 0)
(3 -2.00261e-15 0)
(3 -1.5311e-15 0)
(3 -7.51445e-16 0)
(3 -3.3364e-17 0)
(3 7.77494e-16 0)
(3 1.07664e-15 0)
(3 2.56308e-16 0)
(3 4.6595e-16 0)
(3 4.62959e-16 0)
(2.45768 0.0834668 0)
(0.864773 0.115635 0)
(0.704757 0.134588 0)
(0.681829 0.147814 0)
(0.663396 0.144721 0)
(0.652962 0.13332 0)
(0.646109 0.118591 0)
(0.637207 0.107468 0)
(0.626992 0.102969 0)
(0.617778 0.0979368 0)
(0.605339 0.097826 0)
(0.59066 0.101817 0)
(0.571016 0.110636 0)
(0.547379 0.125037 0)
(0.522498 0.140667 0)
(0.498449 0.148238 0)
(0.477466 0.145602 0)
(0.461829 0.135346 0)
(0.44633 0.126197 0)
(0.430794 0.123843 0)
(0.415005 0.129184 0)
(0.399015 0.136468 0)
(0.381119 0.139855 0)
(0.364426 0.140851 0)
(0.349508 0.142401 0)
(0.33564 0.144509 0)
(0.321301 0.146006 0)
(0.306074 0.146995 0)
(0.289317 0.148074 0)
(0.271095 0.149465 0)
(0.251189 0.150776 0)
(0.230775 0.152434 0)
(0.210654 0.153952 0)
(0.191131 0.155704 0)
(0.172271 0.15689 0)
(0.153324 0.158579 0)
(0.134336 0.160528 0)
(0.114737 0.163105 0)
(0.093962 0.167053 0)
(0.0718089 0.171338 0)
(0.0495997 0.17687 0)
(0.0281499 0.180896 0)
(0.0103168 0.18594 0)
(3 1.76166e-16 0)
(3 5.60391e-17 0)
(3 -2.74849e-16 0)
(3 -4.24929e-16 0)
(3 -5.6249e-16 0)
(3 1.02628e-20 0)
(3 5.09371e-17 0)
(3 5.09805e-17 0)
(3 2.14089e-16 0)
(3 -2.75245e-16 0)
(3 -1.25474e-15 0)
(3 -1.38109e-15 0)
(3 -1.56631e-15 0)
(3 -1.02241e-15 0)
(3 -4.67952e-16 0)
(3 8.3182e-17 0)
(3 -1.19103e-16 0)
(3 3.43932e-16 0)
(3 2.70484e-16 0)
(3 2.90369e-16 0)
(3 1.24757e-15 0)
(3 1.7219e-15 0)
(3 1.37311e-15 0)
(3 3.10409e-16 0)
(3 -8.34803e-17 0)
(3 3.2612e-16 0)
(3 3.64275e-16 0)
(3 3.39885e-16 0)
(3 -8.16934e-17 0)
(3 -2.01568e-17 0)
(3 4.20542e-17 0)
(3 -1.28177e-16 0)
(3 -2.51615e-16 0)
(3 -3.84263e-16 0)
(3 -2.12423e-16 0)
(3 7.52678e-16 0)
(3 1.25719e-15 0)
(3 4.76806e-16 0)
(3 2.5133e-16 0)
(3 4.15073e-17 0)
(3 4.31253e-17 0)
(3 -1.95996e-16 0)
(3 -7.71536e-16 0)
(3 -1.74546e-15 0)
(3 -2.4303e-15 0)
(3 -1.58372e-15 0)
(3 -4.7252e-16 0)
(3 -4.3983e-16 0)
(3 -1.61522e-16 0)
(3 -1.19705e-15 0)
(3 -1.44305e-15 0)
(3 -9.71298e-16 0)
(3 6.30413e-17 0)
(2.57415 0.0857258 0)
(0.887111 0.141623 0)
(0.701613 0.157576 0)
(0.685581 0.159479 0)
(0.672408 0.151703 0)
(0.665001 0.138766 0)
(0.656517 0.12547 0)
(0.644881 0.118288 0)
(0.633676 0.115479 0)
(0.622277 0.112379 0)
(0.608331 0.113178 0)
(0.59296 0.118604 0)
(0.572522 0.128557 0)
(0.548592 0.144111 0)
(0.523505 0.15927 0)
(0.499606 0.164699 0)
(0.479701 0.160179 0)
(0.465085 0.148993 0)
(0.449714 0.139936 0)
(0.434436 0.137971 0)
(0.418893 0.144173 0)
(0.403131 0.152707 0)
(0.385392 0.15723 0)
(0.368623 0.158665 0)
(0.353379 0.160303 0)
(0.338965 0.162343 0)
(0.32398 0.163796 0)
(0.308451 0.164714 0)
(0.291591 0.165973 0)
(0.273422 0.167752 0)
(0.253607 0.169412 0)
(0.233187 0.171433 0)
(0.212908 0.17325 0)
(0.193094 0.175367 0)
(0.173936 0.176783 0)
(0.154992 0.178733 0)
(0.13604 0.180836 0)
(0.116477 0.183188 0)
(0.0952531 0.186887 0)
(0.0723227 0.191084 0)
(0.0493845 0.196965 0)
(0.0275225 0.201418 0)
(0.0101758 0.207142 0)
(3 -1.05136e-17 0)
(3 -2.35064e-16 0)
(3 -2.78682e-16 0)
(3 -5.51021e-17 0)
(3 6.97816e-17 0)
(3 2.42813e-16 0)
(3 2.28982e-16 0)
(3 -2.47496e-16 0)
(3 -4.94923e-16 0)
(3 -5.51789e-16 0)
(3 -1.01396e-15 0)
(3 -1.27142e-15 0)
(3 -1.3017e-15 0)
(3 -8.19946e-16 0)
(3 -5.75794e-17 0)
(3 5.14909e-16 0)
(3 8.56278e-16 0)
(3 9.66739e-16 0)
(3 7.4173e-16 0)
(3 8.49565e-16 0)
(3 1.16755e-15 0)
(3 1.03967e-15 0)
(3 8.80054e-16 0)
(3 8.28085e-16 0)
(3 8.70531e-16 0)
(3 8.22819e-16 0)
(3 9.65774e-16 0)
(3 1.39569e-15 0)
(3 1.31605e-15 0)
(3 1.05412e-15 0)
(3 1.26721e-15 0)
(3 1.62957e-15 0)
(3 1.82149e-15 0)
(3 1.7864e-15 0)
(3 1.68482e-15 0)
(3 1.62508e-15 0)
(3 1.4935e-15 0)
(3 9.91693e-16 0)
(3 5.11048e-16 0)
(3 2.90218e-16 0)
(3 2.77889e-16 0)
(3 -2.9061e-16 0)
(3 -1.25219e-15 0)
(3 -2.06696e-15 0)
(3 -2.16223e-15 0)
(3 -2.2236e-15 0)
(3 -2.29929e-15 0)
(3 -2.60386e-15 0)
(3 -2.55878e-15 0)
(3 -2.69036e-15 0)
(3 -1.76859e-15 0)
(3 -8.5524e-16 0)
(3 -1.21268e-15 0)
(2.68904 0.0901775 0)
(0.920103 0.174354 0)
(0.705202 0.172549 0)
(0.697178 0.166405 0)
(0.687367 0.155692 0)
(0.678755 0.143054 0)
(0.666265 0.135166 0)
(0.651224 0.132078 0)
(0.637808 0.130587 0)
(0.625124 0.128321 0)
(0.610547 0.129279 0)
(0.59504 0.13589 0)
(0.574029 0.147 0)
(0.54981 0.163527 0)
(0.524373 0.177598 0)
(0.500739 0.180511 0)
(0.482092 0.17398 0)
(0.468623 0.161886 0)
(0.453428 0.153152 0)
(0.4384 0.151826 0)
(0.423313 0.159184 0)
(0.407847 0.16923 0)
(0.390186 0.175041 0)
(0.373137 0.176798 0)
(0.357367 0.178351 0)
(0.342315 0.180177 0)
(0.326724 0.181594 0)
(0.311046 0.182602 0)
(0.294229 0.18413 0)
(0.276259 0.186399 0)
(0.256557 0.18845 0)
(0.236131 0.19075 0)
(0.215752 0.192762 0)
(0.195776 0.195183 0)
(0.176386 0.196861 0)
(0.157301 0.199169 0)
(0.13821 0.201559 0)
(0.118441 0.203675 0)
(0.0968374 0.207061 0)
(0.073454 0.211089 0)
(0.0500538 0.217269 0)
(0.0277388 0.221996 0)
(0.010162 0.22839 0)
(3 -2.40223e-16 0)
(3 -1.43857e-16 0)
(3 4.64064e-17 0)
(3 3.59315e-17 0)
(3 4.15716e-16 0)
(3 -1.93972e-16 0)
(3 -4.75079e-16 0)
(3 -7.1084e-16 0)
(3 -7.9047e-16 0)
(3 -1.28792e-15 0)
(3 -1.48376e-15 0)
(3 -2.16591e-15 0)
(3 -1.67925e-15 0)
(3 -1.01136e-15 0)
(3 -2.117e-16 0)
(3 9.86204e-17 0)
(3 6.43075e-16 0)
(3 6.79526e-16 0)
(3 8.31411e-16 0)
(3 6.68126e-16 0)
(3 3.81811e-16 0)
(3 3.16236e-16 0)
(3 5.85313e-16 0)
(3 6.44759e-16 0)
(3 3.91273e-16 0)
(3 -1.51714e-16 0)
(3 5.08006e-17 0)
(3 8.49918e-16 0)
(3 1.77888e-15 0)
(3 2.11886e-15 0)
(3 1.68892e-15 0)
(3 7.7405e-16 0)
(3 8.0966e-16 0)
(3 1.5264e-15 0)
(3 1.63922e-15 0)
(3 1.90053e-15 0)
(3 2.37389e-15 0)
(3 1.06997e-15 0)
(3 -7.86433e-16 0)
(3 -1.24142e-15 0)
(3 -9.52069e-16 0)
(3 -4.29938e-16 0)
(3 -3.29254e-16 0)
(3 7.58419e-16 0)
(3 1.71178e-16 0)
(3 -1.41254e-15 0)
(3 -2.32415e-15 0)
(3 -2.20665e-15 0)
(3 -2.13769e-15 0)
(3 -9.96012e-16 0)
(3 -1.74321e-16 0)
(3 3.45921e-16 0)
(3 -6.26709e-16 0)
(2.80709 0.0958162 0)
(0.963971 0.20557 0)
(0.717688 0.178608 0)
(0.712478 0.169494 0)
(0.703502 0.159423 0)
(0.69029 0.151839 0)
(0.673463 0.148469 0)
(0.654664 0.148545 0)
(0.639178 0.147229 0)
(0.625965 0.1448 0)
(0.611465 0.146117 0)
(0.595907 0.153682 0)
(0.574482 0.166001 0)
(0.550113 0.183108 0)
(0.524469 0.195246 0)
(0.50159 0.195424 0)
(0.484507 0.18692 0)
(0.472422 0.174089 0)
(0.457534 0.165942 0)
(0.442678 0.165583 0)
(0.428293 0.174386 0)
(0.413044 0.186129 0)
(0.395297 0.193224 0)
(0.377748 0.195113 0)
(0.36129 0.196421 0)
(0.34561 0.197939 0)
(0.329604 0.199332 0)
(0.313982 0.200545 0)
(0.297338 0.202414 0)
(0.279545 0.205258 0)
(0.259883 0.20781 0)
(0.239314 0.21039 0)
(0.218797 0.212582 0)
(0.198775 0.215251 0)
(0.179264 0.217204 0)
(0.159857 0.21987 0)
(0.140433 0.22263 0)
(0.120164 0.224654 0)
(0.0982309 0.227799 0)
(0.0747712 0.231656 0)
(0.0513261 0.238075 0)
(0.0286975 0.242964 0)
(0.010247 0.2499 0)
(3 5.83252e-17 0)
(3 3.2319e-17 0)
(3 1.60102e-18 0)
(3 -1.27399e-16 0)
(3 -2.01269e-16 0)
(3 8.95004e-17 0)
(3 3.4169e-16 0)
(3 5.52489e-16 0)
(3 2.9356e-16 0)
(3 -1.72433e-16 0)
(3 -2.06492e-16 0)
(3 -1.64183e-16 0)
(3 -2.16054e-16 0)
(3 -1.83924e-16 0)
(3 -4.71829e-16 0)
(3 -1.07045e-15 0)
(3 -8.54935e-16 0)
(3 -7.63147e-16 0)
(3 -2.98349e-16 0)
(3 -8.54317e-17 0)
(3 -3.37067e-16 0)
(3 -1.10031e-16 0)
(3 4.9106e-16 0)
(3 -4.81918e-17 0)
(3 -1.03174e-15 0)
(3 -1.53326e-15 0)
(3 -5.5841e-16 0)
(3 7.39372e-16 0)
(3 1.55828e-15 0)
(3 1.76471e-15 0)
(3 1.38025e-15 0)
(3 6.87469e-16 0)
(3 4.41503e-16 0)
(3 1.10709e-15 0)
(3 1.20571e-15 0)
(3 1.07261e-15 0)
(3 1.03557e-15 0)
(3 6.73338e-16 0)
(3 -2.03112e-16 0)
(3 -5.30984e-16 0)
(3 -7.80068e-16 0)
(3 -3.64746e-16 0)
(3 9.07147e-16 0)
(3 2.59539e-15 0)
(3 2.10982e-15 0)
(3 6.31839e-16 0)
(3 -5.85799e-16 0)
(3 -9.07218e-16 0)
(3 -8.06826e-16 0)
(3 -5.63091e-16 0)
(3 -8.98944e-16 0)
(3 -8.90907e-16 0)
(3 -9.28523e-16 0)
(2.93103 0.0624287 0)
(1.01728 0.22714 0)
(0.731594 0.185464 0)
(0.725597 0.1741 0)
(0.713659 0.169682 0)
(0.696056 0.167365 0)
(0.674529 0.166262 0)
(0.653656 0.165733 0)
(0.638351 0.163051 0)
(0.625791 0.160603 0)
(0.612063 0.163251 0)
(0.595965 0.172201 0)
(0.574047 0.185957 0)
(0.54972 0.202652 0)
(0.524662 0.211589 0)
(0.503531 0.208888 0)
(0.488236 0.198713 0)
(0.476958 0.18576 0)
(0.462221 0.178628 0)
(0.447368 0.179741 0)
(0.433827 0.190205 0)
(0.418651 0.203628 0)
(0.400707 0.211687 0)
(0.382553 0.213407 0)
(0.365278 0.214367 0)
(0.348959 0.215614 0)
(0.332718 0.217051 0)
(0.317232 0.218535 0)
(0.300877 0.220807 0)
(0.283096 0.224216 0)
(0.263451 0.22732 0)
(0.242583 0.230295 0)
(0.221899 0.232753 0)
(0.20199 0.235645 0)
(0.182589 0.237874 0)
(0.162832 0.240838 0)
(0.143019 0.243923 0)
(0.122039 0.246104 0)
(0.0997633 0.249202 0)
(0.0764444 0.252969 0)
(0.0531814 0.259497 0)
(0.0303367 0.264296 0)
(0.010512 0.271407 0)
(3 5.06295e-17 0)
(3 8.74701e-17 0)
(3 2.95499e-17 0)
(3 7.81952e-17 0)
(3 3.23597e-16 0)
(3 6.78156e-16 0)
(3 7.22217e-16 0)
(3 6.89873e-16 0)
(3 -5.68329e-18 0)
(3 5.50113e-17 0)
(3 2.92165e-17 0)
(3 6.65596e-17 0)
(3 -3.08846e-16 0)
(3 -7.89959e-16 0)
(3 -5.13642e-16 0)
(3 -6.56623e-16 0)
(3 -3.80535e-16 0)
(3 5.56227e-16 0)
(3 6.0221e-16 0)
(3 2.88157e-16 0)
(3 -9.77418e-17 0)
(3 -3.49963e-16 0)
(3 -3.70109e-16 0)
(3 -9.60502e-16 0)
(3 -1.48351e-15 0)
(3 -1.28897e-15 0)
(3 8.49853e-17 0)
(3 1.49154e-15 0)
(3 2.46739e-15 0)
(3 2.19713e-15 0)
(3 1.20431e-15 0)
(3 1.08353e-15 0)
(3 1.45553e-15 0)
(3 1.62455e-15 0)
(3 2.40018e-15 0)
(3 1.71477e-15 0)
(3 3.38364e-16 0)
(3 4.73955e-16 0)
(3 9.69778e-16 0)
(3 1.97658e-16 0)
(3 -2.33223e-16 0)
(3 5.04375e-16 0)
(3 1.05111e-15 0)
(3 1.20587e-15 0)
(3 1.72907e-15 0)
(3 2.21492e-15 0)
(3 1.40099e-15 0)
(3 4.0337e-16 0)
(3 2.6868e-16 0)
(3 -2.77521e-16 0)
(3 -7.62743e-16 0)
(3 -1.23391e-15 0)
(3 -1.22322e-15 0)
(3.0067 0.00851037 0)
(1.09184 0.230281 0)
(0.748556 0.187114 0)
(0.731398 0.183791 0)
(0.711863 0.184933 0)
(0.690627 0.184678 0)
(0.670507 0.18366 0)
(0.653493 0.181286 0)
(0.639678 0.177465 0)
(0.626785 0.176364 0)
(0.612349 0.181017 0)
(0.595211 0.191749 0)
(0.573325 0.206656 0)
(0.550028 0.22143 0)
(0.526908 0.226043 0)
(0.508196 0.220512 0)
(0.494074 0.209368 0)
(0.482346 0.197273 0)
(0.467721 0.191607 0)
(0.4528 0.194773 0)
(0.439756 0.207045 0)
(0.424685 0.22191 0)
(0.406532 0.230314 0)
(0.3878 0.231516 0)
(0.369634 0.2321 0)
(0.352665 0.233233 0)
(0.336344 0.234855 0)
(0.321062 0.236622 0)
(0.305147 0.23926 0)
(0.287457 0.243106 0)
(0.267889 0.24669 0)
(0.246713 0.250199 0)
(0.225817 0.253076 0)
(0.205978 0.256297 0)
(0.1866 0.258833 0)
(0.166671 0.262055 0)
(0.146165 0.265451 0)
(0.124213 0.26805 0)
(0.101427 0.271365 0)
(0.0782226 0.275174 0)
(0.0551738 0.281699 0)
(0.0321905 0.286155 0)
(0.0108983 0.293063 0)
(3 -3.40561e-17 0)
(3 -3.20654e-16 0)
(3 -2.19563e-16 0)
(3 2.76629e-16 0)
(3 3.09711e-16 0)
(3 -3.22912e-16 0)
(3 -6.7088e-16 0)
(3 -3.18786e-16 0)
(3 -1.02981e-17 0)
(3 -2.62875e-16 0)
(3 -4.78204e-16 0)
(3 -6.29278e-16 0)
(3 -9.8643e-16 0)
(3 -1.0299e-15 0)
(3 -6.53555e-16 0)
(3 -4.24254e-16 0)
(3 -2.79474e-16 0)
(3 7.35024e-16 0)
(3 1.18096e-15 0)
(3 1.63584e-15 0)
(3 1.29354e-15 0)
(3 -5.243e-17 0)
(3 -1.0559e-15 0)
(3 -3.93729e-16 0)
(3 1.97237e-16 0)
(3 6.14316e-16 0)
(3 6.32106e-17 0)
(3 1.34589e-16 0)
(3 -1.6352e-17 0)
(3 -2.13161e-16 0)
(3 -8.34416e-17 0)
(3 8.17012e-16 0)
(3 1.60215e-15 0)
(3 1.43935e-15 0)
(3 9.52569e-16 0)
(3 6.86882e-16 0)
(3 5.0016e-16 0)
(3 4.55126e-16 0)
(3 9.34188e-16 0)
(3 1.27966e-15 0)
(3 6.69147e-16 0)
(3 1.48968e-15 0)
(3 1.41913e-15 0)
(3 1.62692e-15 0)
(3 1.70265e-15 0)
(3 2.53608e-15 0)
(3 2.50817e-15 0)
(3 1.44429e-15 0)
(3 8.14148e-16 0)
(3 1.08967e-16 0)
(3 -1.71323e-16 0)
(3 -7.35085e-16 0)
(3 -1.38243e-15 0)
(3.00033 5.55639e-05 0)
(1.22046 0.239527 0)
(0.754326 0.197491 0)
(0.729872 0.198591 0)
(0.70907 0.201524 0)
(0.688331 0.200981 0)
(0.670217 0.198498 0)
(0.655203 0.195064 0)
(0.641336 0.191283 0)
(0.627614 0.192737 0)
(0.612021 0.199771 0)
(0.594053 0.212036 0)
(0.573253 0.227199 0)
(0.551821 0.238291 0)
(0.532189 0.23815 0)
(0.515526 0.230574 0)
(0.502102 0.219069 0)
(0.489084 0.208722 0)
(0.474017 0.205227 0)
(0.459191 0.211039 0)
(0.445881 0.225265 0)
(0.430873 0.241178 0)
(0.412456 0.249168 0)
(0.393419 0.249433 0)
(0.374536 0.249589 0)
(0.356991 0.2508 0)
(0.340619 0.25283 0)
(0.325447 0.254941 0)
(0.309927 0.257851 0)
(0.292389 0.262018 0)
(0.272799 0.265983 0)
(0.251313 0.270114 0)
(0.23009 0.27357 0)
(0.210151 0.277311 0)
(0.190515 0.280221 0)
(0.170617 0.283688 0)
(0.149381 0.287398 0)
(0.12649 0.290526 0)
(0.103203 0.294275 0)
(0.080034 0.298272 0)
(0.0570893 0.304737 0)
(0.033966 0.308674 0)
(0.0113706 0.315122 0)
(3 -1.16099e-16 0)
(3 -7.66501e-17 0)
(3 2.07205e-16 0)
(3 1.96497e-16 0)
(3 -5.2128e-16 0)
(3 -5.5014e-16 0)
(3 -1.21439e-17 0)
(3 3.07316e-16 0)
(3 9.93688e-16 0)
(3 6.36905e-16 0)
(3 -3.34648e-16 0)
(3 -7.60781e-16 0)
(3 -1.14832e-15 0)
(3 -1.27259e-15 0)
(3 -1.74486e-15 0)
(3 -1.71041e-15 0)
(3 -1.41079e-15 0)