/*--------------------------------*- C++ -*----------------------------------*\
  =========                 |
  \\      /  F ield         | OpenFOAM: The Open Source CFD Toolbox
   \\    /   O peration     | Website:  https://openfoam.org
    \\  /    A nd           | Version:  7
     \\/     M anipulation  |
\*---------------------------------------------------------------------------*/
FoamFile
{
    version     2.0;
    format      ascii;
    class       volScalarField;
    location    "0.7";
    object      p;
}
// * * * * * * * * * * * * * * * * * * * * * * * * * * * * * * * * * * * * * //

dimensions      [1 -1 -2 0 0 0 0];

internalField   nonuniform List<scalar> 
64512
(
1
1
1
1
1
1
1
1
1
1
1
1
1
1
1
1
1
1
1
1
1
1
1
1
1
1
1
1
1
1
1
1
1
1
1
1
1
1
1
1
1
1
1
1
1
1
1
1
1
1
1
1
1
1
1
1
1
2.09239
9.1541
11.0698
11.1348
11.1768
11.1811
11.2005
11.249
11.3249
11.4205
11.5394
11.6714
11.7796
11.8721
11.9461
11.9873
11.9839
11.9395
11.896
11.8816
11.9212
11.9998
12.0837
12.1458
12.1775
12.1866
12.1921
12.2089
12.2424
12.2692
12.2764
12.2736
12.2741
12.2944
12.3349
12.3828
12.4284
12.4568
12.4836
1
1
1
1
1
1
1
1
1
1
1
1
1
1
1
1
1
1
1
1
1
1
1
1
1
1
1
1
1
1
1
1
1
1
1
1
1
1
1
1
1
1
1
1
1
1
1
1
1
1
1
1
1
1
1
1
1
2.06673
9.10432
11.0504
11.1258
11.1677
11.1749
11.2102
11.258
11.3317
11.424
11.5393
11.6673
11.7764
11.8703
11.9439
11.9839
11.9789
11.9346
11.8922
11.879
11.9194
11.9981
12.0815
12.1431
12.174
12.1828
12.1883
12.2058
12.2402
12.2679
12.2759
12.2734
12.2738
12.2937
12.3334
12.3804
12.4249
12.4519
12.4773
1
1
1
1
1
1
1
1
1
1
1
1
1
1
1
1
1
1
1
1
1
1
1
1
1
1
1
1
1
1
1
1
1
1
1
1
1
1
1
1
1
1
1
1
1
1
1
1
1
1
1
1
1
1
1
1
1
2.00797
9.01449
11.0377
11.1122
11.1535
11.1782
11.223
11.2681
11.3387
11.425
11.5355
11.6592
11.7707
11.8674
11.941
11.9793
11.9719
11.9273
11.8858
11.8742
11.9159
11.9949
12.0775
12.1379
12.1676
12.1758
12.182
12.2009
12.2371
12.2662
12.2751
12.2726
12.2724
12.2908
12.3292
12.375
12.4181
12.4439
12.4678
1
1
1
1
1
1
1
1
1
1
1
1
1
1
1
1
1
1
1
1
1
1
1
1
1
1
1
1
1
1
1
1
1
1
1
1
1
1
1
1
1
1
1
1
1
1
1
1
1
1
1
1
1
1
1
1
1
1.92239
8.87406
11.0205
11.0948
11.1413
11.1846
11.2401
11.2849
11.3486
11.4239
11.5265
11.6467
11.7628
11.8634
11.9367
11.9725
11.962
11.917
11.8764
11.8669
11.9101
11.9895
12.0711
12.1299
12.1576
12.1652
12.1729
12.1946
12.2337
12.265
12.2746
12.2716
12.2698
12.2859
12.322
12.3661
12.4076
12.4322
12.4545
1
1
1
1
1
1
1
1
1
1
1
1
1
1
1
1
1
1
1
1
1
1
1
1
1
1
1
1
1
1
1
1
1
1
1
1
1
1
1
1
1
1
1
1
1
1
1
1
1
1
1
1
1
1
1
1
1
1.80873
8.66939
11.0075
11.0731
11.1405
11.1974
11.2641
11.3056
11.3565
11.4163
11.5103
11.6305
11.754
11.8591
11.9318
11.9645
11.9505
11.905
11.8649
11.8573
11.9021
11.982
12.0624
12.119
12.144
12.1509
12.1608
12.1868
12.2303
12.2649
12.275
12.2702
12.2653
12.2777
12.3111
12.3537
12.3943
12.4179
12.4389
1
1
1
1
1
1
1
1
1
1
1
1
1
1
1
1
1
1
1
1
1
1
1
1
1
1
1
1
1
1
1
1
1
1
1
1
1
1
1
1
1
1
1
1
1
1
1
1
1
1
1
1
1
1
1
1
1
1.66532
8.39231
11.0054
11.0442
11.1523
11.2249
11.2963
11.3269
11.3573
11.3989
11.4879
11.6136
11.7461
11.855
11.926
11.9551
11.9373
11.891
11.8512
11.8453
11.8917
11.9724
12.0516
12.1056
12.1272
12.133
12.1457
12.1776
12.2268
12.2653
12.2756
12.268
12.258
12.2655
12.2959
12.3376
12.3785
12.4021
12.4224
1
1
1
1
1
1
1
1
1
1
1
1
1
1
1
1
1
1
1
1
1
1
1
1
1
1
1
1
1
1
1
1
1
1
1
1
1
1
1
1
1
1
1
1
1
1
1
1
1
1
1
1
1
1
1
1
1
1.49509
8.03181
10.996
11.0254
11.1802
11.2686
11.3287
11.3413
11.3474
11.3738
11.4635
11.5981
11.7385
11.8497
11.9182
11.9437
11.9227
11.8755
11.836
11.8317
11.8794
11.9606
12.0388
12.0897
12.1074
12.1116
12.1275
12.1666
12.2231
12.2659
12.276
12.2643
12.2481
12.2495
12.2769
12.3186
12.3605
12.3843
12.4049
1
1
1
1
1
1
1
1
1
1
1
1
1
1
1
1
1
1
1
1
1
1
1
1
1
1
1
1
1
1
1
1
1
1
1
1
1
1
1
1
1
1
1
1
1
1
1
1
1
1
1
1
1
1
1
1
1
1.31289
7.58128
10.96
11.0647
11.2292
11.3179
11.3489
11.3376
11.3267
11.347
11.4413
11.585
11.7305
11.8421
11.9077
11.9299
11.906
11.8582
11.819
11.8164
11.8649
11.9463
12.0234
12.0711
12.0849
12.0878
12.1071
12.1542
12.2186
12.2661
12.2754
12.2585
12.2352
12.23
12.254
12.296
12.3396
12.3637
12.3851
1
1
1
1
1
1
1
1
1
1
1
1
1
1
1
1
1
1
1
1
1
1
1
1
1
1
1
1
1
1
1
1
1
1
1
1
1
1
1
1
1
1
1
1
1
1
1
1
1
1
1
1
1
1
1
1
1
1.12409
7.06644
10.966
11.1437
11.2829
11.3474
11.3473
11.3161
11.3022
11.3231
11.4233
11.5735
11.7207
11.8311
11.8932
11.9121
11.8863
11.8385
11.8005
11.7997
11.8486
11.9292
12.0048
12.0493
12.0597
12.0625
12.0855
12.1408
12.2128
12.2639
12.2725
12.2505
12.2199
12.2077
12.2281
12.2703
12.3158
12.3401
12.3624
1
1
1
1
1
1
1
1
1
1
1
1
1
1
1
1
1
1
1
1
1
1
1
1
1
1
1
1
1
1
1
1
1
1
1
1
1
1
1
1
1
1
1
1
1
1
1
1
1
1
1
1
1
1
1
1
1
1.00345
6.60446
10.9684
11.1934
11.3054
11.3457
11.3234
11.2864
11.2796
11.305
11.4076
11.5607
11.7074
11.8158
11.874
11.8899
11.8632
11.8166
11.7808
11.7818
11.8304
11.9089
11.982
12.0229
12.0314
12.0362
12.0645
12.1275
12.2058
12.2589
12.266
12.2393
12.2023
12.1841
12.2011
12.243
12.2893
12.3131
12.3364
1
1
1
1
1
1
1
1
1
1
1
1
1
1
1
1
1
1
1
1
1
1
1
1
1
1
1
1
1
1
1
1
1
1
1
1
1
1
1
1
1
1
1
1
1
1
1
1
1
1
1
1
1
1
1
1
1
1.00001
6.08948
10.9649
11.2023
11.2813
11.3145
11.2888
11.2607
11.2618
11.2912
11.3918
11.5451
11.6901
11.7961
11.8503
11.8631
11.8366
11.7923
11.7593
11.7624
11.8101
11.8851
11.9543
11.9916
11.9998
12.0091
12.0446
12.1149
12.1972
12.2502
12.255
12.2239
12.1816
12.1588
12.1727
12.2136
12.2597
12.2828
12.3071
1
1
1
1
1
1
1
1
1
1
1
1
1
1
1
1
1
1
1
1
1
1
1
1
1
1
1
1
1
1
1
1
1
1
1
1
1
1
1
1
1
1
1
1
1
1
1
1
1
1
1
1
1
1
1
1
1
1
5.53601
10.915
11.176
11.2424
11.2736
11.2574
11.2453
11.2464
11.2787
11.3751
11.526
11.6679
11.7708
11.8217
11.8327
11.8076
11.7663
11.7364
11.741
11.7872
11.8573
11.9216
11.9556
11.9655
11.9814
12.0259
12.103
12.1865
12.2374
12.2394
12.2046
12.1584
12.1319
12.1425
12.1816
12.2266
12.249
12.2742
1
1
1
1
1
1
1
1
1
1
1
1
1
1
1
1
1
1
1
1
1
1
1
1
1
1
1
1
1
1
1
1
1
1
1
1
1
1
1
1
1
1
1
1
1
1
1
1
1
1
1
1
1
1
1
1
1
1
4.95915
10.8067
11.1363
11.2056
11.2323
11.2322
11.2383
11.2313
11.266
11.3577
11.5028
11.6402
11.7389
11.7881
11.7995
11.7775
11.7401
11.7128
11.7171
11.7603
11.8245
11.8838
11.916
11.9298
11.9543
12.0081
12.0898
12.1718
12.2195
12.2193
12.1818
12.1328
12.1031
12.1099
12.1466
12.1901
12.2123
12.2386
1
1
1
1
1
1
1
1
1
1
1
1
1
1
1
1
1
1
1
1
1
1
1
1
1
1
1
1
1
1
1
1
1
1
1
1
1
1
1
1
1
1
1
1
1
1
1
1
1
1
1
1
1
1
1
1
1
1
4.38144
10.6256
11.0864
11.1638
11.2024
11.2153
11.2353
11.2157
11.2525
11.3402
11.4741
11.6055
11.6997
11.7493
11.7638
11.7473
11.715
11.6894
11.6909
11.7284
11.7855
11.8407
11.874
11.8941
11.9288
11.9906
12.0729
12.1512
12.1959
12.1949
12.1564
12.1053
12.0717
12.0739
12.1073
12.1493
12.1723
12.2001
1
1
1
1
1
1
1
1
1
1
1
1
1
1
1
1
1
1
1
1
1
1
1
1
1
1
1
1
1
1
1
1
1
1
1
1
1
1
1
1
1
1
1
1
1
1
1
1
1
1
1
1
1
1
1
1
1
1
3.81844
10.3586
11.0219
11.1193
11.1813
11.2073
11.2219
11.2059
11.2392
11.3201
11.439
11.564
11.6546
11.7056
11.7248
11.7162
11.6908
11.6663
11.663
11.6918
11.7404
11.7926
11.8305
11.8609
11.906
11.9723
12.0507
12.1229
12.1655
12.1657
12.1284
12.0761
12.0376
12.0337
12.063
12.1039
12.1289
12.1591
1
1
1
1
1
1
1
1
1
1
1
1
1
1
1
1
1
1
1
1
1
1
1
1
1
1
1
1
1
1
1
1
1
1
1
1
1
1
1
1
1
1
1
1
1
1
1
1
1
1
1
1
1
1
1
1
1
1
3.28256
10.0262
10.9552
11.0733
11.1611
11.2001
11.1955
11.2034
11.2285
11.2971
11.3987
11.5148
11.6055
11.6592
11.6839
11.6842
11.6668
11.6431
11.6334
11.6514
11.6896
11.7405
11.7866
11.8307
11.8853
11.9519
12.0223
12.0861
12.1274
12.1311
12.0977
12.0455
12.002
11.9898
12.0134
12.0528
12.0811
12.1143
1
1
1
1
1
1
1
1
1
1
1
1
1
1
1
1
1
1
1
1
1
1
1
1
1
1
1
1
1
1
1
1
1
1
1
1
1
1
1
1
1
1
1
1
1
1
1
1
1
1
1
1
1
1
1
1
1
1
2.7383
9.60055
10.8599
11.0238
11.1398
11.185
11.1848
11.198
11.2125
11.2638
11.3542
11.4622
11.5559
11.6141
11.6449
11.6528
11.6418
11.618
11.6003
11.607
11.6352
11.6866
11.7436
11.8025
11.8645
11.9282
11.9882
12.0417
12.0813
12.09
12.0629
12.0123
11.9636
11.942
11.9582
11.9956
12.0282
12.0649
1
1
1
1
1
1
1
1
1
1
1
1
1
1
1
1
1
1
1
1
1
1
1
1
1
1
1
1
1
1
1
1
1
1
1
1
1
1
1
1
1
1
1
1
1
1
1
1
1
1
1
1
1
1
1
1
1
1
2.18328
9.05708
10.8263
10.991
11.1231
11.1716
11.1858
11.1882
11.1935
11.221
11.2983
11.4078
11.5055
11.5714
11.6096
11.6233
11.6153
11.5889
11.563
11.559
11.5796
11.6336
11.7027
11.7746
11.8407
11.899
11.9484
11.9911
12.0282
12.0421
12.0223
11.9747
11.9216
11.8906
11.8981
11.9324
11.9691
12.009
1
1
1
1
1
1
1
1
1
1
1
1
1
1
1
1
1
1
1
1
1
1
1
1
1
1
1
1
1
1
1
1
1
1
1
1
1
1
1
1
1
1
1
1
1
1
1
1
1
1
1
1
1
1
1
1
1
1
1.64991
8.35626
10.8513
11.0095
11.1245
11.166
11.1819
11.176
11.1677
11.1766
11.2404
11.3516
11.4523
11.5289
11.5769
11.5967
11.5888
11.5557
11.5201
11.5063
11.524
11.5842
11.6644
11.7447
11.8116
11.8635
11.9021
11.9358
11.9694
11.9874
11.9743
11.9306
11.8751
11.8359
11.834
11.8634
11.9034
11.9455
1
1
1
1
1
1
1
1
1
1
1
1
1
1
1
1
1
1
1
1
1
1
1
1
1
1
1
1
1
1
1
1
1
1
1
1
1
1
1
1
1
1
1
1
1
1
1
1
1
1
1
1
1
1
1
1
1
1
1.17539
7.37781
10.8372
11.0353
11.1266
11.1615
11.1721
11.1627
11.1355
11.1384
11.1911
11.2958
11.3983
11.4836
11.5423
11.5684
11.5594
11.5171
11.4714
11.4505
11.4699
11.5379
11.6268
11.711
11.7752
11.8205
11.8504
11.8765
11.9063
11.9264
11.9187
11.8789
11.8226
11.7769
11.7656
11.7886
11.8299
11.8725
1
1
1
1
1
1
1
1
1
1
1
1
1
1
1
1
1
1
1
1
1
1
1
1
1
1
1
1
1
1
1
1
1
1
1
1
1
1
1
1
1
1
1
1
1
1
1
1
1
1
1
1
1
1
1
1
1
1
1.00437
6.18503
10.7217
11.0374
11.1174
11.16
11.1635
11.1422
11.1104
11.1068
11.1482
11.2451
11.3469
11.436
11.5012
11.533
11.5239
11.4757
11.4226
11.398
11.4204
11.4922
11.585
11.6693
11.7297
11.7698
11.7938
11.8136
11.8387
11.8582
11.8539
11.8178
11.7622
11.7121
11.6926
11.7085
11.7495
11.7906
1
1
1
1
1
1
1
1
1
1
1
1
1
1
1
1
1
1
1
1
1
1
1
1
1
1
1
1
1
1
1
1
1
1
1
1
1
1
1
1
1
1
1
1
1
1
1
1
1
1
1
1
1
1
1
1
1
1
1.00001
4.88677
10.4997
10.9971
11.0921
11.1451
11.1486
11.1128
11.0811
11.0796
11.1123
11.1992
11.2995
11.3888
11.4526
11.4846
11.4781
11.4316
11.379
11.3547
11.3771
11.4448
11.534
11.6161
11.6746
11.7127
11.7339
11.7483
11.7675
11.7835
11.7804
11.7477
11.6935
11.6405
11.6135
11.6214
11.6597
11.6969
1
1
1
1
1
1
1
1
1
1
1
1
1
1
1
1
1
1
1
1
1
1
1
1
1
1
1
1
1
1
1
1
1
1
1
1
1
1
1
1
1
1
1
1
1
1
1
1
1
1
1
1
1
1
1
1
1
1
1
3.70954
10.0692
10.9569
11.041
11.1179
11.1388
11.098
11.0513
11.037
11.0609
11.1433
11.2486
11.3386
11.3991
11.4265
11.422
11.3854
11.3424
11.3225
11.3402
11.3939
11.4717
11.5491
11.6084
11.6489
11.6705
11.6803
11.6916
11.7007
11.6958
11.6652
11.6133
11.5592
11.5267
11.5269
11.561
11.5925
1
1
1
1
1
1
1
1
1
1
1
1
1
1
1
1
1
1
1
1
1
1
1
1
1
1
1
1
1
1
1
1
1
1
1
1
1
1
1
1
1
1
1
1
1
1
1
1
1
1
1
1
1
1
1
1
1
1
1
2.67991
9.42653
10.921
10.9962
11.0881
11.0983
11.0494
11.002
10.9865
11.0063
11.088
11.197
11.2842
11.3399
11.3614
11.3601
11.339
11.3116
11.296
11.3046
11.3382
11.4001
11.4704
11.5314
11.5771
11.6017
11.6079
11.6104
11.6104
11.6017
11.5728
11.5233
11.4688
11.4307
11.4216
11.4482
11.471
1
1
1
1
1
1
1
1
1
1
1
1
1
1
1
1
1
1
1
1
1
1
1
1
1
1
1
1
1
1
1
1
1
1
1
1
1
1
1
1
1
1
1
1
1
1
1
1
1
1
1
1
1
1
1
1
1
1
1
1.80909
8.60721
10.9437
10.944
11.0312
11.0425
11.0086
10.9629
10.943
10.9531
11.0302
11.1359
11.219
11.2748
11.2996
11.3044
11.297
11.2823
11.2658
11.2627
11.278
11.3226
11.385
11.4457
11.4956
11.524
11.5276
11.5216
11.5115
11.4964
11.4668
11.4186
11.3636
11.3211
11.3033
11.3213
11.3346
1
1
1
1
1
1
1
1
1
1
1
1
1
1
1
1
1
1
1
1
1
1
1
1
1
1
1
1
1
1
1
1
1
1
1
1
1
1
1
1
1
1
1
1
1
1
1
1
1
1
1
1
1
1
1
1
1
1
1
1.21434
7.54857
10.8101
10.8405
10.939
10.9787
10.9612
10.9212
10.9012
10.9021
10.9633
11.061
11.1446
11.2079
11.2423
11.2569
11.261
11.2527
11.2302
11.2123
11.2136
11.2436
11.2983
11.3554
11.4056
11.4349
11.4355
11.4219
11.4022
11.3804
11.3501
11.3037
11.2473
11.1979
11.167
11.1711
11.1709
1
1
1
1
1
1
1
1
1
1
1
1
1
1
1
1
1
1
1
1
1
1
1
1
1
1
1
1
1
1
1
1
1
1
1
1
1
1
1
1
1
1
1
1
1
1
1
1
1
1
1
1
1
1
1
1
1
1
1
1.00655
6.25177
10.5917
10.768
10.8802
10.914
10.9106
10.8872
10.8643
10.8555
10.9003
10.9901
11.0707
11.1369
11.1829
11.2112
11.2274
11.2198
11.1875
11.1527
11.1436
11.1645
11.212
11.2645
11.3101
11.3344
11.3297
11.3084
11.2799
11.251
11.2178
11.17
11.1087
11.0504
11.0067
10.997
10.9853
1
1
1
1
1
1
1
1
1
1
1
1
1
1
1
1
1
1
1
1
1
1
1
1
1
1
1
1
1
1
1
1
1
1
1
1
1
1
1
1
1
1
1
1
1
1
1
1
1
1
1
1
1
1
1
1
1
1
1
1.00002
4.83985
10.2337
10.7026
10.8189
10.8636
10.8639
10.8514
10.8227
10.8295
10.8663
10.9331
11.0022
11.0681
11.1228
11.1625
11.1873
11.179
11.1373
11.087
11.0682
11.0836
11.125
11.1727
11.2104
11.2247
11.2116
11.1802
11.1417
11.1051
11.0691
11.0218
10.9569
10.8865
10.8201
10.7829
10.7478
1
1
1
1
1
1
1
1
1
1
1
1
1
1
1
1
1
1
1
1
1
1
1
1
1
1
1
1
1
1
1
1
1
1
1
1
1
1
1
1
1
1
1
1
1
1
1
1
1
1
1
1
1
1
1
1
1
1
1
1
3.45263
9.75431
10.6744
10.7664
10.8153
10.8296
10.8236
10.8002
10.7999
10.8182
10.8702
10.9417
11.0055
11.0614
11.1064
11.1348
11.1273
11.0804
11.0211
10.9914
10.9988
11.0342
11.0758
11.1048
11.1088
11.0846
11.0401
10.9888
10.9422
10.9003
10.8478
10.7688
10.6736
10.5791
10.5145
10.4686
1
1
1
1
1
1
1
1
1
1
1
1
1
1
1
1
1
1
1
1
1
1
1
1
1
1
1
1
1
1
1
1
1
1
1
1
1
1
1
1
1
1
1
1
1
1
1
1
1
1
1
1
1
1
1
1
1
1
1
1
2.19303
9.04825
10.6762
10.7656
10.84
10.8533
10.8244
10.7714
10.7484
10.7599
10.814
10.8872
10.9486
10.9987
11.0389
11.0648
11.0612
11.0176
10.9578
10.9178
10.9115
10.9361
10.9697
10.9909
10.9866
10.9514
10.892
10.824
10.7616
10.7074
10.6456
10.5544
10.4355
10.3036
10.1816
10.0637
1
1
1
1
1
1
1
1
1
1
1
1
1
1
1
1
1
1
1
1
1
1
1
1
1
1
1
1
1
1
1
1
1
1
1
1
1
1
1
1
1
1
1
1
1
1
1
1
1
1
1
1
1
1
1
1
1
1
1
1
1.34672
7.89187
10.6621
10.6499
10.7382
10.7945
10.7922
10.7443
10.7111
10.714
10.7595
10.8308
10.8917
10.9332
10.9612
10.9804
10.984
10.9502
10.8942
10.8454
10.8226
10.8306
10.852
10.8657
10.8555
10.8118
10.7382
10.6511
10.5676
10.4934
10.4125
10.2925
10.1148
9.89366
9.68211
9.52016
1
1
1
1
1
1
1
1
1
1
1
1
1
1
1
1
1
1
1
1
1
1
1
1
1
1
1
1
1
1
1
1
1
1
1
1
1
1
1
1
1
1
1
1
1
1
1
1
1
1
1
1
1
1
1
1
1
1
1
1
1.0139
6.33149
10.3755
10.5668
10.7076
10.772
10.7819
10.7268
10.6848
10.6774
10.6997
10.7544
10.817
10.854
10.8809
10.9012
10.907
10.8774
10.8242
10.7703
10.7324
10.7203
10.7254
10.7294
10.7134
10.6632
10.5783
10.4727
10.3636
10.2583
10.1419
9.97976
9.75216
9.44696
9.11126
8.90052
1
1
1
1
1
1
1
1
1
1
1
1
1
1
1
1
1
1
1
1
1
1
1
1
1
1
1
1
1
1
1
1
1
1
1
1
1
1
1
1
1
1
1
1
1
1
1
1
1
1
1
1
1
1
1
1
1
1
1
1
1.00007
4.69072
10.0169
10.4989
10.6135
10.6957
10.7262
10.6909
10.6533
10.6318
10.6306
10.6644
10.7315
10.7789
10.8092
10.8239
10.8267
10.802
10.7535
10.6943
10.6405
10.6077
10.5943
10.5853
10.5605
10.5037
10.4095
10.2878
10.1518
10.0092
9.84854
9.63729
9.31847
8.81748
7.86476
5.83942
1
1
1
1
1
1
1
1
1
1
1
1
1
1
1
1
1
1
1
1
1
1
1
1
1
1
1
1
1
1
1
1
1
1
1
1
1
1
1
1
1
1
1
1
1
1
1
1
1
1
1
1
1
1
1
1
1
1
1
1
1
3.05049
9.47801
10.4824
10.5372
10.6108
10.6513
10.648
10.6173
10.5851
10.569
10.5839
10.6443
10.693
10.7273
10.7474
10.7552
10.7348
10.686
10.617
10.5454
10.4934
10.4605
10.4352
10.3994
10.3342
10.2323
10.0968
9.93542
9.752
9.53493
9.25249
8.79231
8.1283
6.9693
4.82329
1
1
1
1
1
1
1
1
1
1
1
1
1
1
1
1
1
1
1
1
1
1
1
1
1
1
1
1
1
1
1
1
1
1
1
1
1
1
1
1
1
1
1
1
1
1
1
1
1
1
1
1
1
1
1
1
1
1
1
1
1
1.65793
8.39742
10.5787
10.5601
10.5865
10.6222
10.6077
10.553
10.5022
10.4824
10.4952
10.557
10.6118
10.6498
10.6736
10.6831
10.6661
10.6154
10.5368
10.4473
10.3736
10.3219
10.2818
10.2342
10.1599
10.0502
9.90171
9.71705
9.49722
9.22018
8.8718
8.32945
7.60028
6.29752
4.4627
1
1
1
1
1
1
1
1
1
1
1
1
1
1
1
1
1
1
1
1
1
1
1
1
1
1
1
1
1
1
1
1
1
1
1
1
1
1
1
1
1
1
1
1
1
1
1
1
1
1
1
1
1
1
1
1
1
1
1
1
1
1.0403
6.82124
10.2692
10.4276
10.5577
10.6073
10.5862
10.5226
10.4616
10.4307
10.4324
10.4752
10.5241
10.5624
10.5898
10.6029
10.59
10.5403
10.4548
10.3501
10.2544
10.1822
10.1268
10.0675
9.98571
9.86733
9.70729
9.5018
9.25326
8.9288
8.50862
7.95991
7.10975
5.91687
4.45523
1
1
1
1
1
1
1
1
1
1
1
1
1
1
1
1
1
1
1
1
1
1
1
1
1
1
1
1
1
1
1
1
1
1
1
1
1
1
1
1
1
1
1
1
1
1
1
1
1
1
1
1
1
1
1
1
1
1
1
1
1
1.00023
4.84528
9.88731
10.3701
10.4839
10.5456
10.5423
10.4889
10.4294
10.3902
10.383
10.4027
10.439
10.469
10.4925
10.5062
10.4963
10.4513
10.369
10.2594
10.1446
10.0479
9.97198
9.90075
9.81206
9.68575
9.51615
9.29415
9.01632
8.65918
8.19322
7.61567
6.77699
5.73242
4.53358
1
1
1
1
1
1
1
1
1
1
1
1
1
1
1
1
1
1
1
1
1
1
1
1
1
1
1
1
1
1
1
1
1
1
1
1
1
1
1
1
1
1
1
1
1
1
1
1
1
1
1
1
1
1
1
1
1
1
1
1
1
1
2.90791
9.30352
10.3386
10.3907
10.4654
10.4814
10.4528
10.4004
10.3517
10.3305
10.3345
10.3564
10.3796
10.3959
10.4026
10.3901
10.3512
10.2796
10.1729
10.045
9.92448
9.82499
9.73653
9.63802
9.50645
9.32933
9.09458
8.79238
8.41231
7.93275
7.33734
6.55329
5.64702
4.6517
1
1
1
1
1
1
1
1
1
1
1
1
1
1
1
1
1
1
1
1
1
1
1
1
1
1
1
1
1
1
1
1
1
1
1
1
1
1
1
1
1
1
1
1
1
1
1
1
1
1
1
1
1
1
1
1
1
1
1
1
1
1
1.42616
8.00678
10.4016
10.3862
10.4156
10.4288
10.4067
10.354
10.3008
10.269
10.2705
10.2845
10.3022
10.3115
10.3054
10.2832
10.2446
10.1816
10.0831
9.95241
9.81485
9.69185
9.58048
9.46718
9.33031
9.14703
8.90152
8.58499
8.19261
7.71443
7.12744
6.41892
5.63237
4.79117
1
1
1
1
1
1
1
1
1
1
1
1
1
1
1
1
1
1
1
1
1
1
1
1
1
1
1
1
1
1
1
1
1
1
1
1
1
1
1
1
1
1
1
1
1
1
1
1
1
1
1
1
1
1
1
1
1
1
1
1
1
1
1.01586
6.0882
9.95744
10.2277
10.3584
10.4
10.3901
10.3346
10.2655
10.2103
10.2022
10.2087
10.2201
10.2253
10.2109
10.1794
10.1359
10.0758
9.98645
9.86233
9.71791
9.57327
9.4364
9.30438
9.15797
8.96842
8.71561
8.39381
8.00156
7.53077
6.97698
6.34245
5.64604
4.92005
1
1
1
1
1
1
1
1
1
1
1
1
1
1
1
1
1
1
1
1
1
1
1
1
1
1
1
1
1
1
1
1
1
1
1
1
1
1
1
1
1
1
1
1
1
1
1
1
1
1
1
1
1
1
1
1
1
1
1
1
1
1
1.00004
3.85077
9.48988
10.2133
10.2823
10.3326
10.3494
10.306
10.2309
10.157
10.1275
10.1219
10.1281
10.1344
10.1184
10.0802
10.0289
9.96634
9.88254
9.76922
9.62717
9.46649
9.30626
9.15319
8.99186
8.79535
8.54099
8.22148
7.83813
7.38445
6.87077
6.29078
5.67934
5.04384
1
1
1
1
1
1
1
1
1
1
1
1
1
1
1
1
1
1
1
1
1
1
1
1
1
1
1
1
1
1
1
1
1
1
1
1
1
1
1
1
1
1
1
1
1
1
1
1
1
1
1
1
1
1
1
1
1
1
1
1
1
1
1
1.89214
8.53536
10.2665
10.2152
10.2423
10.2915
10.2768
10.2077
10.1172
10.0539
10.0309
10.0282
10.0373
10.0266
9.98753
9.92826
9.85746
9.7728
9.66884
9.53356
9.36684
9.18848
9.01321
8.83238
8.62653
8.37545
8.06624
7.69834
7.27151
6.79011
6.26142
5.72669
5.1456
1
1
1
1
1
1
1
1
1
1
1
1
1
1
1
1
1
1
1
1
1
1
1
1
1
1
1
1
1
1
1
1
1
1
1
1
1
1
1
1
1
1
1
1
1
1
1
1
1
1
1
1
1
1
1
1
1
1
1
1
1
1
1
1.06415
6.75159
9.93549
10.0544
10.1734
10.24
10.241
10.1875
10.0903
9.99893
9.95091
9.93109
9.93587
9.92943
9.89428
9.83083
9.751
9.66278
9.56418
9.43586
9.27156
9.08323
8.88645
8.68296
8.4648
8.21875
7.92753
7.58299
7.18587
6.73711
6.26312
5.77505
5.23847
1
1
1
1
1
1
1
1
1
1
1
1
1
1
1
1
1
1
1
1
1
1
1
1
1
1
1
1
1
1
1
1
1
1
1
1
1
1
1
1
1
1
1
1
1
1
1
1
1
1
1
1
1
1
1
1
1
1
1
1
1
1
1
1.0004
4.28935
9.43893
10.0171
10.1015
10.1653
10.1868
10.1427
10.0465
9.93913
9.86604
9.82964
9.82739
9.82677
9.80052
9.73714
9.64884
9.55414
9.45536
9.33302
9.17643
8.98802
8.77535
8.5495
8.31544
8.07004
7.79791
7.48369
7.11274
6.69994
6.27483
5.81344
5.32481
1
1
1
1
1
1
1
1
1
1
1
1
1
1
1
1
1
1
1
1
1
1
1
1
1
1
1
1
1
1
1
1
1
1
1
1
1
1
1
1
1
1
1
1
1
1
1
1
1
1
1
1
1
1
1
1
1
1
1
1
1
1
1
1
2.08762
8.62933
10.097
10.0144
10.0549
10.0953
10.0695
9.99107
9.8845
9.7887
9.73667
9.72225
9.7213
9.70065
9.63868
9.54547
9.44432
9.34248
9.22501
9.07869
8.89921
8.68338
8.44207
8.19141
7.93927
7.67813
7.3936
7.04869
6.67509
6.2865
5.8546
5.41925
1
1
1
1
1
1
1
1
1
1
1
1
1
1
1
1
1
1
1
1
1
1
1
1
1
1
1
1
1
1
1
1
1
1
1
1
1
1
1
1
1
1
1
1
1
1
1
1
1
1
1
1
1
1
1
1
1
1
1
1
1
1
1
1
1.09015
6.86273
9.82098
9.88492
9.96984
10.0179
10.0011
9.93279
9.83404
9.72759
9.66535
9.63437
9.62219
9.59594
9.53434
9.44185
9.33693
9.23048
9.11437
8.97673
8.81112
8.6051
8.36162
8.10163
7.83846
7.5791
7.31256
6.99215
6.65364
6.29182
5.8947
5.49591
1
1
1
1
1
1
1
1
1
1
1
1
1
1
1
1
1
1
1
1
1
1
1
1
1
1
1
1
1
1
1
1
1
1
1
1
1
1
1
1
1
1
1
1
1
1
1
1
1
1
1
1
1
1
1
1
1
1
1
1
1
1
1
1
1.0007
4.25103
9.32467
9.82464
9.89682
9.94794
9.94341
9.88086
9.78541
9.67539
9.60053
9.55283
9.52733
9.49034
9.43074
9.34323
9.23768
9.12566
9.00634
8.8724
8.71869
8.52926
8.29692
8.03814
7.76881
7.50748
7.24425
6.95064
6.63888
6.29727
5.93011
5.54954
1
1
1
1
1
1
1
1
1
1
1
1
1
1
1
1
1
1
1
1
1
1
1
1
1
1
1
1
1
1
1
1
1
1
1
1
1
1
1
1
1
1
1
1
1
1
1
1
1
1
1
1
1
1
1
1
1
1
1
1
1
1
1
1
0.999999
1.94145
8.4113
9.88116
9.81659
9.83126
9.85137
9.81408
9.73929
9.63799
9.54761
9.48124
9.43604
9.39092
9.33238
9.25358
9.15418
9.03964
8.91389
8.77739
8.62819
8.45266
8.23622
7.98583
7.72016
7.45984
7.1945
6.92167
6.62733
6.30295
5.95332
5.58561
1
1
1
1
1
1
1
1
1
1
1
1
1
1
1
1
1
1
1
1
1
1
1
1
1
1
1
1
1
1
1
1
1
1
1
1
1
1
1
1
1
1
1
1
1
1
1
1
1
1
1
1
1
1
1
1
1
1
1
1
1
1
1
1
1
1.06672
6.44822
9.58171
9.66127
9.72552
9.76056
9.74526
9.6896
9.60358
9.50372
9.41773
9.34737
9.29226
9.23303
9.16538
9.0779
8.96759
8.83786
8.69762
8.54744
8.37845
8.17138
7.93179
7.67719
7.41882
7.15492
6.89577
6.61351
6.30746
5.97461
5.63068
1
1
1
1
1
1
1
1
1
1
1
1
1
1
1
1
1
1
1
1
1
1
1
1
1
1
1
1
1
1
1
1
1
1
1
1
1
1
1
1
1
1
1
1
1
1
1
1
1
1
1
1
1
1
1
1
1
1
1
1
1
1
1
1
1
1.00036
3.67841
9.1064
9.65141
9.67549
9.70145
9.68716
9.6378
9.55925
9.45547
9.35093
9.25795
9.1874
9.1315
9.07053
8.99613
8.89688
8.77108
8.63237
8.483
8.31478
8.1144
7.88515
7.64107
7.38408
7.12757
6.87254
6.59963
6.31316
5.99877
5.67681
1
1
1
1
1
1
1
1
1
1
1
1
1
1
1
1
1
1
1
1
1
1
1
1
1
1
1
1
1
1
1
1
1
1
1
1
1
1
1
1
1
1
1
1
1
1
1
1
1
1
1
1
1
1
1
1
1
1
1
1
1
1
1
1
1
1
1.49568
7.84856
9.69486
9.63418
9.64042
9.64675
9.60565
9.53404
9.43139
9.31207
9.19881
9.10364
9.03562
8.97384
8.90221
8.81268
8.69714
8.56592
8.4218
8.25569
8.06177
7.84312
7.60623
7.35356
7.10306
6.84624
6.58408
6.31514
6.02206
5.71816
1
1
1
1
1
1
1
1
1
1
1
1
1
1
1
1
1
1
1
1
1
1
1
1
1
1
1
1
1
1
1
1
1
1
1
1
1
1
1
1
1
1
1
1
1
1
1
1
1
1
1
1
1
1
1
1
1
1
1
1
1
1
1
1
1
1
1.01856
5.42519
9.21807
9.44787
9.53379
9.57501
9.56081
9.50411
9.40927
9.28987
9.16687
9.05195
8.95868
8.88336
8.80352
8.71532
8.61166
8.49249
8.35581
8.19531
8.01057
7.80526
7.57841
7.33502
7.08839
6.83291
6.57739
6.31394
6.03608
5.74892
1
1
1
1
1
1
1
1
1
1
1
1
1
1
1
1
1
1
1
1
1
1
1
1
1
1
1
1
1
1
1
1
1
1
1
1
1
1
1
1
1
1
1
1
1
1
1
1
1
1
1
1
1
1
1
1
1
1
1
1
1
1
1
1
1
1
1.00002
2.56208
8.65215
9.52247
9.45826
9.46697
9.46099
9.42378
9.35715
9.26563
9.15578
9.03572
8.91809
8.81599
8.72353
8.62952
8.52863
8.41823
8.28277
8.12788
7.95218
7.7596
7.54538
7.31583
7.07566
6.82501
6.57269
6.31449
6.0523
5.7838
1
1
1
1
1
1
1
1
1
1
1
1
1
1
1
1
1
1
1
1
1
1
1
1
1
1
1
1
1
1
1
1
1
1
1
1
1
1
1
1
1
1
1
1
1
1
1
1
1
1
1
1
1
1
1
1
1
1
1
1
1
1
1
1
1
1
1
1.15687
6.78785
9.35282
9.34137
9.3668
9.37628
9.34832
9.29802
9.22889
9.1338
9.01906
8.89193
8.7686
8.6517
8.55389
8.4481
8.34026
8.21022
8.06089
7.89148
7.70877
7.50895
7.29543
7.06583
6.82384
6.57685
6.32608
6.07415
5.81837
1
1
1
1
1
1
1
1
1
1
1
1
1
1
1
1
1
1
1
1
1
1
1
1
1
1
1
1
1
1
1
1
1
1
1
1
1
1
1
1
1
1
1
1
1
1
1
1
1
1
1
1
1
1
1
1
1
1
1
1
1
1
1
1
1
1
1
1.00188
3.72827
8.85995
9.33926
9.32139
9.30556
9.27574
9.23336
9.16749
9.07828
8.97255
8.85373
8.72975
8.60443
8.48585
8.38096
8.26877
8.14459
8.00061
7.83445
7.65459
7.46296
7.26281
7.0488
6.82124
6.58385
6.34245
6.0981
5.85066
1
1
1
1
1
1
1
1
1
1
1
1
1
1
1
1
1
1
1
1
1
1
1
1
1
1
1
1
1
1
1
1
1
1
1
1
1
1
1
1
1
1
1
1
1
1
1
1
1
1
1
1
1
1
1
1
1
1
1
1
1
1
1
1
1
1
1
1
1.41434
7.52254
9.37484
9.27236
9.2438
9.21576
9.17869
9.11804
9.02759
8.91913
8.80556
8.68747
8.56578
8.44019
8.3139
8.19964
8.07201
7.93898
7.78197
7.60591
7.41842
7.22721
7.02993
6.81998
6.59579
6.3635
6.12282
5.87898
1
1
1
1
1
1
1
1
1
1
1
1
1
1
1
1
1
1
1
1
1
1
1
1
1
1
1
1
1
1
1
1
1
1
1
1
1
1
1
1
1
1
1
1
1
1
1
1
1
1
1
1
1
1
1
1
1
1
1
1
1
1
1
1
1
1
1
1
1.01294
4.66099
8.86628
9.15201
9.16013
9.16784
9.13163
9.07138
8.97605
8.86506
8.75153
8.63708
8.51927
8.39766
8.26573
8.13438
8.00991
7.88052
7.73571
7.56483
7.37744
7.19006
7.00431
6.81041
6.60216
6.38056
6.14455
5.9049
1
1
1
1
1
1
1
1
1
1
1
1
1
1
1
1
1
1
1
1
1
1
1
1
1
1
1
1
1
1
1
1
1
1
1
1
1
1
1
1
1
1
1
1
1
1
1
1
1
1
1
1
1
1
1
1
1
1
1
1
1
1
1
1
1
1
1
1
1.00001
1.78211
7.90555
9.24216
9.13954
9.11587
9.09071
9.02625
8.93158
8.82551
8.71402
8.59977
8.4803
8.35564
8.22542
8.08655
7.9516
7.82144
7.6811
7.52066
7.34248
7.16119
6.98392
6.80164
6.60626
6.39341
6.16321
5.92935
1
1
1
1
1
1
1
1
1
1
1
1
1
1
1
1
1
1
1
1
1
1
1
1
1
1
1
1
1
1
1
1
1
1
1
1
1
1
1
1
1
1
1
1
1
1
1
1
1
1
1
1
1
1
1
1
1
1
1
1
1
1
1
1
1
1
1
1
1
1.04133
5.30412
8.82212
8.98081
9.01197
9.02205
8.97353
8.88894
8.78934
8.67829
8.56437
8.444
8.3164
8.18372
8.04692
7.90806
7.77109
7.62875
7.47667
7.31408
7.14301
6.97096
6.79273
6.60265
6.39701
6.17663
5.952
1
1
1
1
1
1
1
1
1
1
1
1
1
1
1
1
1
1
1
1
1
1
1
1
1
1
1
1
1
1
1
1
1
1
1
1
1
1
1
1
1
1
1
1
1
1
1
1
1
1
1
1
1
1
1
1
1
1
1
1
1
1
1
1
1
1
1
1
1
1.00014
2.11452
8.03024
9.11411
8.98944
8.93711
8.90635
8.8458
8.75778
8.64988
8.53401
8.41393
8.28669
8.15372
8.01688
7.87525
7.73061
7.581
7.42891
7.28075
7.12626
6.96225
6.78715
6.59907
6.39852
6.18841
5.97547
1
1
1
1
1
1
1
1
1
1
1
1
1
1
1
1
1
1
1
1
1
1
1
1
1
1
1
1
1
1
1
1
1
1
1
1
1
1
1
1
1
1
1
1
1
1
1
1
1
1
1
1
1
1
1
1
1
1
1
1
1
1
1
1
1
1
1
1
1
1
1.07793
5.60558
8.74262
8.83167
8.82043
8.82446
8.79505
8.71867
8.61816
8.50252
8.384
8.261
8.13049
7.99329
7.84951
7.69988
7.54603
7.39238
7.24913
7.10594
6.94917
6.77566
6.58903
6.39566
6.19885
6.00096
1
1
1
1
1
1
1
1
1
1
1
1
1
1
1
1
1
1
1
1
1
1
1
1
1
1
1
1
1
1
1
1
1
1
1
1
1
1
1
1
1
1
1
1
1
1
1
1
1
1
1
1
1
1
1
1
1
1
1
1
1
1
1
1
1
1
1
1
1
1
1.00048
2.27068
7.99948
8.97284
8.8277
8.75981
8.72661
8.66773
8.58228
8.47722
8.36193
8.24107
8.11242
7.97625
7.83313
7.68262
7.52591
7.36949
7.22163
7.07815
6.92606
6.75724
6.57664
6.39435
6.21218
6.02866
1
1
1
1
1
1
1
1
1
1
1
1
1
1
1
1
1
1
1
1
1
1
1
1
1
1
1
1
1
1
1
1
1
1
1
1
1
1
1
1
1
1
1
1
1
1
1
1
1
1
1
1
1
1
1
1
1
1
1
1
1
1
1
1
1
1
1
1
1
1
1
1.09775
5.61751
8.62084
8.68695
8.65437
8.63209
8.60205
8.53926
8.44681
8.33619
8.2182
8.09283
7.95965
7.81923
7.67203
7.5176
7.35925
7.20441
7.05487
6.90064
6.73405
6.56014
6.38843
6.22024
6.05073
1
1
1
1
1
1
1
1
1
1
1
1
1
1
1
1
1
1
1
1
1
1
1
1
1
1
1
1
1
1
1
1
1
1
1
1
1
1
1
1
1
1
1
1
1
1
1
1
1
1
1
1
1
1
1
1
1
1
1
1
1
1
1
1
1
1
1
1
1
1
1
1.00074
2.22963
7.84869
8.83084
8.67357
8.58569
8.5408
8.4808
8.4014
8.30505
8.1961
8.07466
7.94237
7.80364
7.66109
7.51199
7.35486
7.19409
7.03503
6.87497
6.70947
6.54224
6.38023
6.22278
6.06269
1
1
1
1
1
1
1
1
1
1
1
1
1
1
1
1
1
1
1
1
1
1
1
1
1
1
1
1
1
1
1
1
1
1
1
1
1
1
1
1
1
1
1
1
1
1
1
1
1
1
1
1
1
1
1
1
1
1
1
1
1
1
1
1
1
1
1
1
1
1
1
1
1.09239
5.37814
8.46845
8.54209
8.49815
8.4562
8.40561
8.34023
8.25982
8.16318
8.05041
7.92309
7.78656
7.64582
7.50105
7.34836
7.18737
7.02329
6.85976
6.69608
6.53346
6.37501
6.22015
6.06384
1
1
1
1
1
1
1
1
1
1
1
1
1
1
1
1
1
1
1
1
1
1
1
1
1
1
1
1
1
1
1
1
1
1
1
1
1
1
1
1
1
1
1
1
1
1
1
1
1
1
1
1
1
1
1
1
1
1
1
1
1
1
1
1
1
1
1
1
1
1
1
1
1.00071
2.07345
7.56515
8.67341
8.5288
8.42808
8.34944
8.27096
8.19743
8.11656
8.02056
7.9029
7.76846
7.62764
7.48508
7.33716
7.18076
7.01833
6.85495
6.69251
6.53123
6.37225
6.2165
6.06161
1
1
1
1
1
1
1
1
1
1
1
1
1
1
1
1
1
1
1
1
1
1
1
1
1
1
1
1
1
1
1
1
1
1
1
1
1
1
1
1
1
1
1
1
1
1
1
1
1
1
1
1
1
1
1
1
1
1
1
1
1
1
1
1
1
1
1
1
1
1
1
1
1
1.07192
4.85442
8.26247
8.41273
8.34497
8.2781
8.21118
8.14125
8.0663
7.97968
7.87425
7.75021
7.61311
7.46964
7.32185
7.16899
7.0122
6.85461
6.69711
6.53863
6.37958
6.22192
6.06564
1
1
1
1
1
1
1
1
1
1
1
1
1
1
1
1
1
1
1
1
1
1
1
1
1
1
1
1
1
1
1
1
1
1
1
1
1
1
1
1
1
1
1
1
1
1
1
1
1
1
1
1
1
1
1
1
1
1
1
1
1
1
1
1
1
1
1
1
1
1
1
1
1
1.00052
1.82356
7.12488
8.48135
8.3607
8.26431
8.17196
8.08382
8.00147
7.91957
7.8295
7.72115
7.59386
7.45486
7.3106
7.16257
7.01137
6.8586
6.70477
6.54862
6.38979
6.2305
6.073
1
1
1
1
1
1
1
1
1
1
1
1
1
1
1
1
1
1
1
1
1
1
1
1
1
1
1
1
1
1
1
1
1
1
1
1
1
1
1
1
1
1
1
1
1
1
1
1
1
1
1
1
1
1
1
1
1
1
1
1
1
1
1
1
1
1
1
1
1
1
1
1
1
1
1.04247
4.037
7.99409
8.33604
8.23116
8.14232
8.05278
7.9663
7.88279
7.79451
7.69214
7.57446
7.44385
7.30334
7.1574
7.00922
6.85966
6.7093
6.558
6.40471
6.24926
6.09263
1
1
1
1
1
1
1
1
1
1
1
1
1
1
1
1
1
1
1
1
1
1
1
1
1
1
1
1
1
1
1
1
1
1
1
1
1
1
1
1
1
1
1
1
1
1
1
1
1
1
1
1
1
1
1
1
1
1
1
1
1
1
1
1
1
1
1
1
1
1
1
1
1
1
1.00025
1.50426
6.48423
8.34206
8.25569
8.12888
8.01803
7.91674
7.82404
7.73666
7.64598
7.54413
7.42787
7.29779
7.15907
7.01557
6.86749
6.71662
6.56622
6.4173
6.26761
6.11477
1
1
1
1
1
1
1
1
1
1
1
1
1
1
1
1
1
1
1
1
1
1
1
1
1
1
1
1
1
1
1
1
1
1
1
1
1
1
1
1
1
1
1
1
1
1
1
1
1
1
1
1
1
1
1
1
1
1
1
1
1
1
1
1
1
1
1
1
1
1
1
1
1
1
1
1.01637
3.05906
7.72555
8.27967
8.14429
8.02455
7.91651
7.81494
7.71275
7.61248
7.51205
7.40655
7.28946
7.15886
7.01865
6.87275
6.72514
6.5789
6.435
6.29078
6.14232
1
1
1
1
1
1
1
1
1
1
1
1
1
1
1
1
1
1
1
1
1
1
1
1
1
1
1
1
1
1
1
1
1
1
1
1
1
1
1
1
1
1
1
1
1
1
1
1
1
1
1
1
1
1
1
1
1
1
1
1
1
1
1
1
1
1
1
1
1
1
1
1
1
1
1
1.00007
1.23831
5.54489
8.08002
8.10286
7.99683
7.88482
7.77912
7.67634
7.57089
7.47161
7.37825
7.27669
7.15961
7.02794
6.88684
6.7433
6.60074
6.45794
6.3125
6.16374
1
1
1
1
1
1
1
1
1
1
1
1
1
1
1
1
1
1
1
1
1
1
1
1
1
1
1
1
1
1
1
1
1
1
1
1
1
1
1
1
1
1
1
1
1
1
1
1
1
1
1
1
1
1
1
1
1
1
1
1
1
1
1
1
1
1
1
1
1
1
1
1
1
1
1
1
1.00423
2.23936
7.09794
8.19581
8.03994
7.91182
7.78475
7.66808
7.55716
7.44824
7.34166
7.24194
7.13957
7.02313
6.89376
6.75932
6.62467
6.48711
6.34215
6.19093
1
1
1
1
1
1
1
1
1
1
1
1
1
1
1
1
1
1
1
1
1
1
1
1
1
1
1
1
1
1
1
1
1
1
1
1
1
1
1
1
1
1
1
1
1
1
1
1
1
1
1
1
1
1
1
1
1
1
1
1
1
1
1
1
1
1
1
1
1
1
1
1
1
1
1
1
1.00001
1.08986
4.12362
7.72083
8.00926
7.88355
7.7589
7.63937
7.537
7.43687
7.33147
7.22886
7.12915
7.02158
6.90233
6.77428
6.64235
6.50686
6.36437
6.21529
1
1
1
1
1
1
1
1
1
1
1
1
1
1
1
1
1
1
1
1
1
1
1
1
1
1
1
1
1
1
1
1
1
1
1
1
1
1
1
1
1
1
1
1
1
1
1
1
1
1
1
1
1
1
1
1
1
1
1
1
1
1
1
1
1
1
1
1
1
1
1
1
1
1
1
1
1
1.00093
1.54653
6.07718
7.98935
7.91963
7.79156
7.65208
7.52365
7.41375
7.30977
7.20432
7.09995
6.9979
6.89325
6.77972
6.65584
6.52418
6.38631
6.24383
1
1
1
1
1
1
1
1
1
1
1
1
1
1
1
1
1
1
1
1
1
1
1
1
1
1
1
1
1
1
1
1
1
1
1
1
1
1
1
1
1
1
1
1
1
1
1
1
1
1
1
1
1
1
1
1
1
1
1
1
1
1
1
1
1
1
1
1
1
1
1
1
1
1
1
1
1
1
1.01881
2.73938
7.21632
7.98151
7.84447
7.70864
7.56521
7.44
7.32608
7.21215
7.09716
6.98514
6.87753
6.76982
6.65357
6.52863
6.39878
6.2652
1
1
1
1
1
1
1
1
1
1
1
1
1
1
1
1
1
1
1
1
1
1
1
1
1
1
1
1
1
1
1
1
1
1
1
1
1
1
1
1
1
1
1
1
1
1
1
1
1
1
1
1
1
1
1
1
1
1
1
1
1
1
1
1
1
1
1
1
1
1
1
1
1
1
1
1
1
1
1.0001
1.17155
4.53597
7.60175
7.79348
7.68195
7.56282
7.43593
7.31928
7.20788