/*--------------------------------*- C++ -*----------------------------------*\
  =========                 |
  \\      /  F ield         | OpenFOAM: The Open Source CFD Toolbox
   \\    /   O peration     | Website:  https://openfoam.org
    \\  /    A nd           | Version:  7
     \\/     M anipulation  |
\*---------------------------------------------------------------------------*/
FoamFile
{
    version     2.0;
    format      ascii;
    class       volScalarField;
    location    "0.7";
    object      rho;
}
// * * * * * * * * * * * * * * * * * * * * * * * * * * * * * * * * * * * * * //

dimensions      [1 -3 0 0 0 0 0];

internalField   nonuniform List<scalar> 
64512
(
1.40001
1.40001
1.40001
1.40001
1.40001
1.40001
1.40001
1.40001
1.40001
1.40001
1.40001
1.40001
1.40001
1.40001
1.40001
1.40001
1.40001
1.40001
1.40001
1.40001
1.40001
1.40001
1.40001
1.40001
1.40001
1.40001
1.40001
1.40001
1.40001
1.40001
1.40001
1.40001
1.40001
1.40001
1.40001
1.40001
1.40001
1.40001
1.40001
1.40001
1.40001
1.40001
1.40001
1.40001
1.40001
1.40001
1.40001
1.40001
1.40001
1.40001
1.40001
1.40001
1.40001
1.40001
1.40001
1.40001
1.40001
1.96749
4.92541
5.59543
5.562
5.54225
5.5358
5.55155
5.58151
5.6142
5.64611
5.68077
5.71839
5.7518
5.78548
5.81425
5.82908
5.82576
5.80641
5.78625
5.77774
5.78906
5.81194
5.83484
5.84817
5.84908
5.84043
5.82778
5.81602
5.80593
5.78897
5.75679
5.70277
5.61941
5.50243
5.35497
5.20019
5.0777
5.01103
4.99669
1.40001
1.40001
1.40001
1.40001
1.40001
1.40001
1.40001
1.40001
1.40001
1.40001
1.40001
1.40001
1.40001
1.40001
1.40001
1.40001
1.40001
1.40001
1.40001
1.40001
1.40001
1.40001
1.40001
1.40001
1.40001
1.40001
1.40001
1.40001
1.40001
1.40001
1.40001
1.40001
1.40001
1.40001
1.40001
1.40001
1.40001
1.40001
1.40001
1.40001
1.40001
1.40001
1.40001
1.40001
1.40001
1.40001
1.40001
1.40001
1.40001
1.40001
1.40001
1.40001
1.40001
1.40001
1.40001
1.40001
1.40001
1.95415
4.90701
5.58717
5.55715
5.53818
5.5332
5.55536
5.58506
5.61651
5.64706
5.68045
5.71675
5.75064
5.78495
5.81355
5.82784
5.82396
5.80461
5.78488
5.77685
5.7884
5.81133
5.83405
5.84715
5.84777
5.83896
5.82634
5.81474
5.80491
5.7881
5.75591
5.70149
5.6175
5.49985
5.35216
5.19771
5.07567
5.00915
4.99459
1.40001
1.40001
1.40001
1.40001
1.40001
1.40001
1.40001
1.40001
1.40001
1.40001
1.40001
1.40001
1.40001
1.40001
1.40001
1.40001
1.40001
1.40001
1.40001
1.40001
1.40001
1.40001
1.40001
1.40001
1.40001
1.40001
1.40001
1.40001
1.40001
1.40001
1.40001
1.40001
1.40001
1.40001
1.40001
1.40001
1.40001
1.40001
1.40001
1.40001
1.40001
1.40001
1.40001
1.40001
1.40001
1.40001
1.40001
1.40001
1.40001
1.40001
1.40001
1.40001
1.40001
1.40001
1.40001
1.40001
1.40001
1.92546
4.87785
5.58074
5.54969
5.5315
5.5341
5.56101
5.58921
5.61871
5.64673
5.67835
5.71341
5.74859
5.78415
5.81268
5.82617
5.82132
5.80181
5.78253
5.77517
5.7871
5.81013
5.83257
5.84528
5.8454
5.83632
5.82386
5.81266
5.80323
5.78658
5.75386
5.69807
5.612
5.49233
5.34396
5.19066
5.07056
5.00536
4.99093
1.40001
1.40001
1.40001
1.40001
1.40001
1.40001
1.40001
1.40001
1.40001
1.40001
1.40001
1.40001
1.40001
1.40001
1.40001
1.40001
1.40001
1.40001
1.40001
1.40001
1.40001
1.40001
1.40001
1.40001
1.40001
1.40001
1.40001
1.40001
1.40001
1.40001
1.40001
1.40001
1.40001
1.40001
1.40001
1.40001
1.40001
1.40001
1.40001
1.40001
1.40001
1.40001
1.40001
1.40001
1.40001
1.40001
1.40001
1.40001
1.40001
1.40001
1.40001
1.40001
1.40001
1.40001
1.40001
1.40001
1.40001
1.88285
4.83332
5.57434
5.54085
5.5252
5.53667
5.56852
5.59564
5.62175
5.64542
5.6741
5.70833
5.74586
5.78313
5.81137
5.8237
5.81764
5.79789
5.77914
5.77262
5.78505
5.80826
5.83033
5.84247
5.84189
5.83253
5.82048
5.81008
5.80147
5.78511
5.75153
5.6935
5.60405
5.4809
5.33101
5.17921
5.06224
4.99945
4.98553
1.40001
1.40001
1.40001
1.40001
1.40001
1.40001
1.40001
1.40001
1.40001
1.40001
1.40001
1.40001
1.40001
1.40001
1.40001
1.40001
1.40001
1.40001
1.40001
1.40001
1.40001
1.40001
1.40001
1.40001
1.40001
1.40001
1.40001
1.40001
1.40001
1.40001
1.40001
1.40001
1.40001
1.40001
1.40001
1.40001
1.40001
1.40001
1.40001
1.40001
1.40001
1.40001
1.40001
1.40001
1.40001
1.40001
1.40001
1.40001
1.40001
1.40001
1.40001
1.40001
1.40001
1.40001
1.40001
1.40001
1.40001
1.82562
4.76828
5.57121
5.5305
5.52253
5.5423
5.57871
5.6035
5.62415
5.64196
5.66745
5.70206
5.74294
5.78212
5.80983
5.82077
5.81339
5.79334
5.77501
5.76931
5.78227
5.80575
5.82746
5.83885
5.83736
5.82766
5.81632
5.80726
5.79996
5.78433
5.74984
5.68917
5.5957
5.46828
5.3163
5.16585
5.05233
4.99231
4.97915
1.40001
1.40001
1.40001
1.40001
1.40001
1.40001
1.40001
1.40001
1.40001
1.40001
1.40001
1.40001
1.40001
1.40001
1.40001
1.40001
1.40001
1.40001
1.40001
1.40001
1.40001
1.40001
1.40001
1.40001
1.40001
1.40001
1.40001
1.40001
1.40001
1.40001
1.40001
1.40001
1.40001
1.40001
1.40001
1.40001
1.40001
1.40001
1.40001
1.40001
1.40001
1.40001
1.40001
1.40001
1.40001
1.40001
1.40001
1.40001
1.40001
1.40001
1.40001
1.40001
1.40001
1.40001
1.40001
1.40001
1.40001
1.7531
4.68044
5.57282
5.51688
5.52352
5.55417
5.59212
5.61203
5.62453
5.63571
5.65894
5.69572
5.74044
5.78119
5.808
5.81735
5.80862
5.78819
5.7702
5.76529
5.77878
5.8026
5.82404
5.83459
5.83196
5.82182
5.81145
5.80429
5.79878
5.78422
5.74906
5.68591
5.58847
5.45693
5.3028
5.15329
5.04269
4.98505
4.97248
1.40001
1.40001
1.40001
1.40001
1.40001
1.40001
1.40001
1.40001
1.40001
1.40001
1.40001
1.40001
1.40001
1.40001
1.40001
1.40001
1.40001
1.40001
1.40001
1.40001
1.40001
1.40001
1.40001
1.40001
1.40001
1.40001
1.40001
1.40001
1.40001
1.40001
1.40001
1.40001
1.40001
1.40001
1.40001
1.40001
1.40001
1.40001
1.40001
1.40001
1.40001
1.40001
1.40001
1.40001
1.40001
1.40001
1.40001
1.40001
1.40001
1.40001
1.40001
1.40001
1.40001
1.40001
1.40001
1.40001
1.40001
1.66597
4.56393
5.57009
5.50399
5.53037
5.57232
5.60588
5.61884
5.62239
5.62754
5.65005
5.69009
5.73811
5.77981
5.80551
5.81334
5.80343
5.78269
5.76504
5.76088
5.77476
5.79884
5.82004
5.82965
5.82572
5.81506
5.80586
5.80116
5.79808
5.7848
5.74894
5.6834
5.58253
5.44772
5.29194
5.14299
5.03411
4.97779
4.96575
1.40001
1.40001
1.40001
1.40001
1.40001
1.40001
1.40001
1.40001
1.40001
1.40001
1.40001
1.40001
1.40001
1.40001
1.40001
1.40001
1.40001
1.40001
1.40001
1.40001
1.40001
1.40001
1.40001
1.40001
1.40001
1.40001
1.40001
1.40001
1.40001
1.40001
1.40001
1.40001
1.40001
1.40001
1.40001
1.40001
1.40001
1.40001
1.40001
1.40001
1.40001
1.40001
1.40001
1.40001
1.40001
1.40001
1.40001
1.40001
1.40001
1.40001
1.40001
1.40001
1.40001
1.40001
1.40001
1.40001
1.40001
1.57121
4.40855
5.55269
5.50873
5.5472
5.59232
5.61597
5.62088
5.61775
5.61936
5.64226
5.68539
5.73559
5.77762
5.80215
5.8086
5.79767
5.77673
5.75948
5.75603
5.77013
5.79427
5.81525
5.82394
5.81877
5.8077
5.79982
5.79796
5.79766
5.78588
5.74937
5.68132
5.57722
5.43945
5.2822
5.13357
5.02582
4.97023
4.95878
1.40001
1.40001
1.40001
1.40001
1.40001
1.40001
1.40001
1.40001
1.40001
1.40001
1.40001
1.40001
1.40001
1.40001
1.40001
1.40001
1.40001
1.40001
1.40001
1.40001
1.40001
1.40001
1.40001
1.40001
1.40001
1.40001
1.40001
1.40001
1.40001
1.40001
1.40001
1.40001
1.40001
1.40001
1.40001
1.40001
1.40001
1.40001
1.40001
1.40001
1.40001
1.40001
1.40001
1.40001
1.40001
1.40001
1.40001
1.40001
1.40001
1.40001
1.40001
1.40001
1.40001
1.40001
1.40001
1.40001
1.40001
1.46869
4.21456
5.54117
5.52864
5.56901
5.60576
5.62005
5.61852
5.61247
5.61259
5.63607
5.68127
5.73243
5.77427
5.79751
5.80264
5.79096
5.77015
5.75361
5.75093
5.76502
5.78887
5.80946
5.81718
5.81101
5.80004
5.7936
5.79467
5.79721
5.7868
5.75005
5.67994
5.57278
5.432
5.27306
5.12439
5.01754
4.96245
4.95144
1.40001
1.40001
1.40001
1.40001
1.40001
1.40001
1.40001
1.40001
1.40001
1.40001
1.40001
1.40001
1.40001
1.40001
1.40001
1.40001
1.40001
1.40001
1.40001
1.40001
1.40001
1.40001
1.40001
1.40001
1.40001
1.40001
1.40001
1.40001
1.40001
1.40001
1.40001
1.40001
1.40001
1.40001
1.40001
1.40001
1.40001
1.40001
1.40001
1.40001
1.40001
1.40001
1.40001
1.40001
1.40001
1.40001
1.40001
1.40001
1.40001
1.40001
1.40001
1.40001
1.40001
1.40001
1.40001
1.40001
1.40001
1.40244
4.02822
5.52039
5.54148
5.58218
5.61019
5.61808
5.61365
5.60853
5.60767
5.63063
5.67678
5.72823
5.76966
5.79153
5.79535
5.78323
5.76298
5.74751
5.74564
5.75944
5.78248
5.80232
5.80897
5.80224
5.79216
5.78769
5.79162
5.79662
5.78721
5.75036
5.67892
5.56969
5.42667
5.26606
5.11668
5.00971
4.95438
4.94364
1.40001
1.40001
1.40001
1.40001
1.40001
1.40001
1.40001
1.40001
1.40001
1.40001
1.40001
1.40001
1.40001
1.40001
1.40001
1.40001
1.40001
1.40001
1.40001
1.40001
1.40001
1.40001
1.40001
1.40001
1.40001
1.40001
1.40001
1.40001
1.40001
1.40001
1.40001
1.40001
1.40001
1.40001
1.40001
1.40001
1.40001
1.40001
1.40001
1.40001
1.40001
1.40001
1.40001
1.40001
1.40001
1.40001
1.40001
1.40001
1.40001
1.40001
1.40001
1.40001
1.40001
1.40001
1.40001
1.40001
1.40001
1.40001
3.80408
5.49707
5.54291
5.57995
5.6067
5.61358
5.60997
5.60582
5.60349
5.62489
5.67157
5.72312
5.76397
5.7843
5.78673
5.77437
5.75506
5.74095
5.73998
5.75334
5.77502
5.7936
5.79911
5.79239
5.78406
5.78225
5.78892
5.79566
5.7867
5.74969
5.67757
5.56747
5.42328
5.26122
5.1104
5.00224
4.94605
4.93542
1.40001
1.40001
1.40001
1.40001
1.40001
1.40001
1.40001
1.40001
1.40001
1.40001
1.40001
1.40001
1.40001
1.40001
1.40001
1.40001
1.40001
1.40001
1.40001
1.40001
1.40001
1.40001
1.40001
1.40001
1.40001
1.40001
1.40001
1.40001
1.40001
1.40001
1.40001
1.40001
1.40001
1.40001
1.40001
1.40001
1.40001
1.40001
1.40001
1.40001
1.40001
1.40001
1.40001
1.40001
1.40001
1.40001
1.40001
1.40001
1.40001
1.40001
1.40001
1.40001
1.40001
1.40001
1.40001
1.40001
1.40001
1.40001
3.56081
5.46119
5.53519
5.57233
5.60128
5.61077
5.6091
5.6023
5.59847
5.61856
5.66568
5.71717
5.75712
5.77589
5.77703
5.76474
5.74668
5.73402
5.73377
5.74658
5.76639
5.78323
5.78768
5.78171
5.77577
5.77722
5.78653
5.79408
5.78501
5.74785
5.6757
5.56578
5.42143
5.25811
5.10532
4.99501
4.93742
4.92667
1.40001
1.40001
1.40001
1.40001
1.40001
1.40001
1.40001
1.40001
1.40001
1.40001
1.40001
1.40001
1.40001
1.40001
1.40001
1.40001
1.40001
1.40001
1.40001
1.40001
1.40001
1.40001
1.40001
1.40001
1.40001
1.40001
1.40001
1.40001
1.40001
1.40001
1.40001
1.40001
1.40001
1.40001
1.40001
1.40001
1.40001
1.40001
1.40001
1.40001
1.40001
1.40001
1.40001
1.40001
1.40001
1.40001
1.40001
1.40001
1.40001
1.40001
1.40001
1.40001
1.40001
1.40001
1.40001
1.40001
1.40001
1.40001
3.30613
5.40772
5.52498
5.56678
5.59606
5.60936
5.61027
5.59639
5.59215
5.61205
5.65934
5.71044
5.74886
5.76622
5.76655
5.75477
5.73828
5.72685
5.72672
5.73861
5.75621
5.7712
5.77504
5.77053
5.76778
5.7726
5.78374
5.79124
5.78176
5.7447
5.67319
5.56429
5.42044
5.25608
5.10097
4.98793
4.92862
4.91763
1.40001
1.40001
1.40001
1.40001
1.40001
1.40001
1.40001
1.40001
1.40001
1.40001
1.40001
1.40001
1.40001
1.40001
1.40001
1.40001
1.40001
1.40001
1.40001
1.40001
1.40001
1.40001
1.40001
1.40001
1.40001
1.40001
1.40001
1.40001
1.40001
1.40001
1.40001
1.40001
1.40001
1.40001
1.40001
1.40001
1.40001
1.40001
1.40001
1.40001
1.40001
1.40001
1.40001
1.40001
1.40001
1.40001
1.40001
1.40001
1.40001
1.40001
1.40001
1.40001
1.40001
1.40001
1.40001
1.40001
1.40001
1.40001
3.04818
5.33339
5.51132
5.56052
5.5953
5.60941
5.61075
5.58813
5.58484
5.60598
5.65225
5.70252
5.73896
5.75523
5.75528
5.74472
5.73031
5.71976
5.71889
5.72902
5.74405
5.75749
5.76167
5.75938
5.76039
5.76823
5.77977
5.78646
5.77669
5.74029
5.67019
5.56292
5.41973
5.25434
5.09664
4.98053
4.91941
4.90817
1.40001
1.40001
1.40001
1.40001
1.40001
1.40001
1.40001
1.40001
1.40001
1.40001
1.40001
1.40001
1.40001
1.40001
1.40001
1.40001
1.40001
1.40001
1.40001
1.40001
1.40001
1.40001
1.40001
1.40001
1.40001
1.40001
1.40001
1.40001
1.40001
1.40001
1.40001
1.40001
1.40001
1.40001
1.40001
1.40001
1.40001
1.40001
1.40001
1.40001
1.40001
1.40001
1.40001
1.40001
1.40001
1.40001
1.40001
1.40001
1.40001
1.40001
1.40001
1.40001
1.40001
1.40001
1.40001
1.40001
1.40001
1.40001
2.79238
5.23683
5.49472
5.55597
5.59799
5.61059
5.60443
5.57933
5.57721
5.60009
5.64424
5.69335
5.72781
5.74279
5.74279
5.73427
5.72269
5.71288
5.71057
5.71782
5.72983
5.74214
5.74781
5.74922
5.7541
5.76368
5.77408
5.77916
5.76934
5.73437
5.66659
5.56148
5.41903
5.25238
5.09182
4.97249
4.90972
4.89835
1.40001
1.40001
1.40001
1.40001
1.40001
1.40001
1.40001
1.40001
1.40001
1.40001
1.40001
1.40001
1.40001
1.40001
1.40001
1.40001
1.40001
1.40001
1.40001
1.40001
1.40001
1.40001
1.40001
1.40001
1.40001
1.40001
1.40001
1.40001
1.40001
1.40001
1.40001
1.40001
1.40001
1.40001
1.40001
1.40001
1.40001
1.40001
1.40001
1.40001
1.40001
1.40001
1.40001
1.40001
1.40001
1.40001
1.40001
1.40001
1.40001
1.40001
1.40001
1.40001
1.40001
1.40001
1.40001
1.40001
1.40001
1.40001
2.54439
5.12777
5.48686
5.55605
5.59935
5.60764
5.58828
5.5719
5.57208
5.59501
5.63559
5.68227
5.7156
5.72916
5.72928
5.72341
5.71526
5.70622
5.70184
5.70521
5.71375
5.72554
5.73394
5.74022
5.74864
5.75853
5.76643
5.76912
5.75945
5.7267
5.66227
5.55992
5.41834
5.24999
5.08613
4.96336
4.89909
4.88772
1.40001
1.40001
1.40001
1.40001
1.40001
1.40001
1.40001
1.40001
1.40001
1.40001
1.40001
1.40001
1.40001
1.40001
1.40001
1.40001
1.40001
1.40001
1.40001
1.40001
1.40001
1.40001
1.40001
1.40001
1.40001
1.40001
1.40001
1.40001
1.40001
1.40001
1.40001
1.40001
1.40001
1.40001
1.40001
1.40001
1.40001
1.40001
1.40001
1.40001
1.40001
1.40001
1.40001
1.40001
1.40001
1.40001
1.40001
1.40001
1.40001
1.40001
1.40001
1.40001
1.40001
1.40001
1.40001
1.40001
1.40001
1.40001
2.28672
5.00601
5.48447
5.55496
5.59386
5.59355
5.57391
5.56493
5.56734
5.5883
5.62652
5.67024
5.70278
5.71522
5.71597
5.71287
5.70784
5.69926
5.69203
5.69114
5.69653
5.70832
5.72048
5.73212
5.74331
5.75231
5.75698
5.75663
5.74689
5.71692
5.65667
5.55769
5.41719
5.24697
5.07938
4.95293
4.88729
4.87597
1.40001
1.40001
1.40001
1.40001
1.40001
1.40001
1.40001
1.40001
1.40001
1.40001
1.40001
1.40001
1.40001
1.40001
1.40001
1.40001
1.40001
1.40001
1.40001
1.40001
1.40001
1.40001
1.40001
1.40001
1.40001
1.40001
1.40001
1.40001
1.40001
1.40001
1.40001
1.40001
1.40001
1.40001
1.40001
1.40001
1.40001
1.40001
1.40001
1.40001
1.40001
1.40001
1.40001
1.40001
1.40001
1.40001
1.40001
1.40001
1.40001
1.40001
1.40001
1.40001
1.40001
1.40001
1.40001
1.40001
1.40001
1.40001
2.02291
4.86866
5.5117
5.55069
5.58066
5.57634
5.56581
5.5602
5.56394
5.57998
5.61385
5.6569
5.68817
5.70102
5.70366
5.70337
5.70034
5.69129
5.68084
5.67586
5.67896
5.69146
5.70789
5.72436
5.73717
5.74434
5.74568
5.74221
5.73198
5.70495
5.64926
5.55419
5.41518
5.2433
5.07167
4.94109
4.87395
4.86252
1.40001
1.40001
1.40001
1.40001
1.40001
1.40001
1.40001
1.40001
1.40001
1.40001
1.40001
1.40001
1.40001
1.40001
1.40001
1.40001
1.40001
1.40001
1.40001
1.40001
1.40001
1.40001
1.40001
1.40001
1.40001
1.40001
1.40001
1.40001
1.40001
1.40001
1.40001
1.40001
1.40001
1.40001
1.40001
1.40001
1.40001
1.40001
1.40001
1.40001
1.40001
1.40001
1.40001
1.40001
1.40001
1.40001
1.40001
1.40001
1.40001
1.40001
1.40001
1.40001
1.40001
1.40001
1.40001
1.40001
1.40001
1.40001
1.76088
4.6783
5.54633
5.55288
5.56812
5.56552
5.5624
5.55928
5.56148
5.57287
5.60042
5.64119
5.6704
5.68567
5.69246
5.69558
5.6933
5.68224
5.66783
5.65906
5.66131
5.67579
5.69637
5.71616
5.72931
5.73447
5.73246
5.72614
5.71524
5.69076
5.63946
5.54869
5.41201
5.23903
5.0632
4.92794
4.85889
4.84705
1.40001
1.40001
1.40001
1.40001
1.40001
1.40001
1.40001
1.40001
1.40001
1.40001
1.40001
1.40001
1.40001
1.40001
1.40001
1.40001
1.40001
1.40001
1.40001
1.40001
1.40001
1.40001
1.40001
1.40001
1.40001
1.40001
1.40001
1.40001
1.40001
1.40001
1.40001
1.40001
1.40001
1.40001
1.40001
1.40001
1.40001
1.40001
1.40001
1.40001
1.40001
1.40001
1.40001
1.40001
1.40001
1.40001
1.40001
1.40001
1.40001
1.40001
1.40001
1.40001
1.40001
1.40001
1.40001
1.40001
1.40001
1.40001
1.50456
4.33296
5.53156
5.54635
5.55878
5.56266
5.56389
5.56331
5.56105
5.56865
5.58908
5.62315
5.65005
5.66856
5.68122
5.6883
5.68593
5.67159
5.65291
5.64127
5.64394
5.66119
5.6853
5.70684
5.71915
5.72218
5.71756
5.70884
5.69721
5.67457
5.62715
5.54077
5.40709
5.23373
5.05383
4.91337
4.84177
4.82893
1.40001
1.40001
1.40001
1.40001
1.40001
1.40001
1.40001
1.40001
1.40001
1.40001
1.40001
1.40001
1.40001
1.40001
1.40001
1.40001
1.40001
1.40001
1.40001
1.40001
1.40001
1.40001
1.40001
1.40001
1.40001
1.40001
1.40001
1.40001
1.40001
1.40001
1.40001
1.40001
1.40001
1.40001
1.40001
1.40001
1.40001
1.40001
1.40001
1.40001
1.40001
1.40001
1.40001
1.40001
1.40001
1.40001
1.40001
1.40001
1.40001
1.40001
1.40001
1.40001
1.40001
1.40001
1.40001
1.40001
1.40001
1.40001
1.40342
3.83812
5.45322
5.53115
5.55451
5.56945
5.57409
5.57177
5.56553
5.56498
5.57726
5.60412
5.62925
5.65085
5.66892
5.67977
5.6773
5.66015
5.63785
5.62451
5.62796
5.64686
5.67294
5.69496
5.70606
5.70738
5.70104
5.69046
5.67785
5.6561
5.61182
5.52981
5.39982
5.22702
5.04352
4.89758
4.82281
4.80837
1.40001
1.40001
1.40001
1.40001
1.40001
1.40001
1.40001
1.40001
1.40001
1.40001
1.40001
1.40001
1.40001
1.40001
1.40001
1.40001
1.40001
1.40001
1.40001
1.40001
1.40001
1.40001
1.40001
1.40001
1.40001
1.40001
1.40001
1.40001
1.40001
1.40001
1.40001
1.40001
1.40001
1.40001
1.40001
1.40001
1.40001
1.40001
1.40001
1.40001
1.40001
1.40001
1.40001
1.40001
1.40001
1.40001
1.40001
1.40001
1.40001
1.40001
1.40001
1.40001
1.40001
1.40001
1.40001
1.40001
1.40001
1.40001
1.40001
3.27374
5.33711
5.51219
5.55568
5.58288
5.58876
5.57903
5.56676
5.56103
5.56456
5.58453
5.60996
5.63499
5.65579
5.66782
5.66569
5.64772
5.62439
5.61076
5.61403
5.63205
5.65756
5.67924
5.68985
5.69058
5.68348
5.67144
5.65737
5.63549
5.5936
5.51589
5.39009
5.21866
5.03197
4.88019
4.80135
4.78447
1.40001
1.40001
1.40001
1.40001
1.40001
1.40001
1.40001
1.40001
1.40001
1.40001
1.40001
1.40001
1.40001
1.40001
1.40001
1.40001
1.40001
1.40001
1.40001
1.40001
1.40001
1.40001
1.40001
1.40001
1.40001
1.40001
1.40001
1.40001
1.40001
1.40001
1.40001
1.40001
1.40001
1.40001
1.40001
1.40001
1.40001
1.40001
1.40001
1.40001
1.40001
1.40001
1.40001
1.40001
1.40001
1.40001
1.40001
1.40001
1.40001
1.40001
1.40001
1.40001
1.40001
1.40001
1.40001
1.40001
1.40001
1.40001
1.40001
2.74849
5.17855
5.51054
5.55823
5.59567
5.60397
5.58658
5.56225
5.5469
5.54395
5.56221
5.5921
5.62112
5.64301
5.65334
5.65048
5.63409
5.61302
5.60065
5.60241
5.61623
5.63837
5.65879
5.66989
5.67157
5.6648
5.65169
5.63547
5.61222
5.57168
5.49802
5.37697
5.20796
5.01886
4.86117
4.77753
4.75759
1.40001
1.40001
1.40001
1.40001
1.40001
1.40001
1.40001
1.40001
1.40001
1.40001
1.40001
1.40001
1.40001
1.40001
1.40001
1.40001
1.40001
1.40001
1.40001
1.40001
1.40001
1.40001
1.40001
1.40001
1.40001
1.40001
1.40001
1.40001
1.40001
1.40001
1.40001
1.40001
1.40001
1.40001
1.40001
1.40001
1.40001
1.40001
1.40001
1.40001
1.40001
1.40001
1.40001
1.40001
1.40001
1.40001
1.40001
1.40001
1.40001
1.40001
1.40001
1.40001
1.40001
1.40001
1.40001
1.40001
1.40001
1.40001
1.40001
2.27631
5.00315
5.53186
5.56467
5.59776
5.59521
5.57115
5.54264
5.52509
5.52236
5.54358
5.57857
5.60919
5.62975
5.63672
5.63279
5.61956
5.60333
5.59264
5.59138
5.59905
5.61611
5.63429
5.64614
5.64976
5.64433
5.6306
5.6119
5.58652
5.54665
5.47695
5.36109
5.19503
5.00373
4.83947
4.74982
4.7258
1.40001
1.40001
1.40001
1.40001
1.40001
1.40001
1.40001
1.40001
1.40001
1.40001
1.40001
1.40001
1.40001
1.40001
1.40001
1.40001
1.40001
1.40001
1.40001
1.40001
1.40001
1.40001
1.40001
1.40001
1.40001
1.40001
1.40001
1.40001
1.40001
1.40001
1.40001
1.40001
1.40001
1.40001
1.40001
1.40001
1.40001
1.40001
1.40001
1.40001
1.40001
1.40001
1.40001
1.40001
1.40001
1.40001
1.40001
1.40001
1.40001
1.40001
1.40001
1.40001
1.40001
1.40001
1.40001
1.40001
1.40001
1.40001
1.40001
1.85711
4.79027
5.5813
5.5568
5.57352
5.56733
5.54753
5.52142
5.50605
5.50458
5.52882
5.56602
5.59604
5.61516
5.62074
5.61642
5.60594
5.59403
5.58377
5.57854
5.58038
5.59192
5.60755
5.61925
5.62451
5.62081
5.60692
5.58587
5.55796
5.51792
5.4515
5.34074
5.17813
4.98527
4.81451
4.71821
4.68971
1.40001
1.40001
1.40001
1.40001
1.40001
1.40001
1.40001
1.40001
1.40001
1.40001
1.40001
1.40001
1.40001
1.40001
1.40001
1.40001
1.40001
1.40001
1.40001
1.40001
1.40001
1.40001
1.40001
1.40001
1.40001
1.40001
1.40001
1.40001
1.40001
1.40001
1.40001
1.40001
1.40001
1.40001
1.40001
1.40001
1.40001
1.40001
1.40001
1.40001
1.40001
1.40001
1.40001
1.40001
1.40001
1.40001
1.40001
1.40001
1.40001
1.40001
1.40001
1.40001
1.40001
1.40001
1.40001
1.40001
1.40001
1.40001
1.40001
1.53244
4.41827
5.54082
5.50846
5.5253
5.53221
5.52126
5.50206
5.49194
5.49232
5.51465
5.55078
5.58021
5.59942
5.60524
5.60187
5.59446
5.58514
5.57367
5.56337
5.56034
5.56736
5.58019
5.59057
5.59618
5.59336
5.57923
5.55621
5.52595
5.48561
5.42251
5.31722
5.15824
4.9634
4.78471
4.67996
4.64565
1.40001
1.40001
1.40001
1.40001
1.40001
1.40001
1.40001
1.40001
1.40001
1.40001
1.40001
1.40001
1.40001
1.40001
1.40001
1.40001
1.40001
1.40001
1.40001
1.40001
1.40001
1.40001
1.40001
1.40001
1.40001
1.40001
1.40001
1.40001
1.40001
1.40001
1.40001
1.40001
1.40001
1.40001
1.40001
1.40001
1.40001
1.40001
1.40001
1.40001
1.40001
1.40001
1.40001
1.40001
1.40001
1.40001
1.40001
1.40001
1.40001
1.40001
1.40001
1.40001
1.40001
1.40001
1.40001
1.40001
1.40001
1.40001
1.40001
1.40516
3.8752
5.42749
5.45907
5.4909
5.50204
5.50061
5.49235
5.48606
5.48599
5.50321
5.53617
5.5626
5.58001
5.58733
5.58746
5.58446
5.57628
5.56187
5.54586
5.53884
5.5426
5.55252
5.56139
5.5659
5.56209
5.54682
5.52187
5.48954
5.44866
5.38815
5.28764
5.13191
4.93511
4.74859
4.63491
4.59508
1.40001
1.40001
1.40001
1.40001
1.40001
1.40001
1.40001
1.40001
1.40001
1.40001
1.40001
1.40001
1.40001
1.40001
1.40001
1.40001
1.40001
1.40001
1.40001
1.40001
1.40001
1.40001
1.40001
1.40001
1.40001
1.40001
1.40001
1.40001
1.40001
1.40001
1.40001
1.40001
1.40001
1.40001
1.40001
1.40001
1.40001
1.40001
1.40001
1.40001
1.40001
1.40001
1.40001
1.40001
1.40001
1.40001
1.40001
1.40001
1.40001
1.40001
1.40001
1.40001
1.40001
1.40001
1.40001
1.40001
1.40001
1.40001
1.40001
1.40003
3.26568
5.27177
5.42627
5.46924
5.48926
5.49242
5.49064
5.48351
5.48782
5.50137
5.52348
5.54294
5.55799
5.56754
5.5722
5.57355
5.5662
5.54857
5.52702
5.51589
5.517
5.52433
5.53167
5.53413
5.52778
5.51011
5.4824
5.44759
5.40587
5.34802
5.25329
5.10201
4.9029
4.70544
4.57817
4.52898
1.40001
1.40001
1.40001
1.40001
1.40001
1.40001
1.40001
1.40001
1.40001
1.40001
1.40001
1.40001
1.40001
1.40001
1.40001
1.40001
1.40001
1.40001
1.40001
1.40001
1.40001
1.40001
1.40001
1.40001
1.40001
1.40001
1.40001
1.40001
1.40001
1.40001
1.40001
1.40001
1.40001
1.40001
1.40001
1.40001
1.40001
1.40001
1.40001
1.40001
1.40001
1.40001
1.40001
1.40001
1.40001
1.40001
1.40001
1.40001
1.40001
1.40001
1.40001
1.40001
1.40001
1.40001
1.40001
1.40001
1.40001
1.40001
1.40001
1.40001
2.6577
5.13421
5.43597
5.46879
5.48931
5.49771
5.49695
5.48898
5.48665
5.48996
5.50321
5.52123
5.53512
5.54645
5.5553
5.56004
5.55377
5.53416
5.5088
5.49275
5.4899
5.49471
5.50001
5.50028
5.49132
5.47025
5.43864
5.40034
5.3569
5.30067
5.21029
5.06125
4.85716
4.64732
4.50559
4.45017
1.40001
1.40001
1.40001
1.40001
1.40001
1.40001
1.40001
1.40001
1.40001
1.40001
1.40001
1.40001
1.40001
1.40001
1.40001
1.40001
1.40001
1.40001
1.40001
1.40001
1.40001
1.40001
1.40001
1.40001
1.40001
1.40001
1.40001
1.40001
1.40001
1.40001
1.40001
1.40001
1.40001
1.40001
1.40001
1.40001
1.40001
1.40001
1.40001
1.40001
1.40001
1.40001
1.40001
1.40001
1.40001
1.40001
1.40001
1.40001
1.40001
1.40001
1.40001
1.40001
1.40001
1.40001
1.40001
1.40001
1.40001
1.40001
1.40001
1.40001
2.06853
4.96961
5.47845
5.4921
5.51481
5.52207
5.51106
5.48782
5.47272
5.46877
5.47991
5.49831
5.51314
5.52537
5.53585
5.54189
5.53732
5.51842
5.49183
5.471
5.46201
5.46246
5.46517
5.46362
5.45245
5.42813
5.39189
5.3486
5.30142
5.24458
5.15766
5.01274
4.8051
4.57968
4.41399
4.33387
1.40001
1.40001
1.40001
1.40001
1.40001
1.40001
1.40001
1.40001
1.40001
1.40001
1.40001
1.40001
1.40001
1.40001
1.40001
1.40001
1.40001
1.40001
1.40001
1.40001
1.40001
1.40001
1.40001
1.40001
1.40001
1.40001
1.40001
1.40001
1.40001
1.40001
1.40001
1.40001
1.40001
1.40001
1.40001
1.40001
1.40001
1.40001
1.40001
1.40001
1.40001
1.40001
1.40001
1.40001
1.40001
1.40001
1.40001
1.40001
1.40001
1.40001
1.40001
1.40001
1.40001
1.40001
1.40001
1.40001
1.40001
1.40001
1.40001
1.40001
1.61653
4.56755
5.48758
5.46139
5.48632
5.5079
5.50421
5.48027
5.45787
5.44828
5.45601
5.4749
5.49239
5.50496
5.51418
5.51956
5.51739
5.5011
5.4746
5.44959
5.43358
5.42774
5.42658
5.42295
5.41032
5.38355
5.34286
5.29366
5.24074
5.18056
5.09407
4.94916
4.72904
4.47276
4.27132
4.173
1.40001
1.40001
1.40001
1.40001
1.40001
1.40001
1.40001
1.40001
1.40001
1.40001
1.40001
1.40001
1.40001
1.40001
1.40001
1.40001
1.40001
1.40001
1.40001
1.40001
1.40001
1.40001
1.40001
1.40001
1.40001
1.40001
1.40001
1.40001
1.40001
1.40001
1.40001
1.40001
1.40001
1.40001
1.40001
1.40001
1.40001
1.40001
1.40001
1.40001
1.40001
1.40001
1.40001
1.40001
1.40001
1.40001
1.40001
1.40001
1.40001
1.40001
1.40001
1.40001
1.40001
1.40001
1.40001
1.40001
1.40001
1.40001
1.40001
1.40001
1.41095
3.90733
5.35208
5.41726
5.47261
5.4992
5.49938
5.47364
5.44698
5.4327
5.43267
5.44756
5.46843
5.48208
5.49261
5.49906
5.49709
5.48084
5.45451
5.4269
5.40473
5.39181
5.38535
5.37867
5.3642
5.33551
5.29128
5.2363
5.17587
5.10822
5.01663
4.86882
4.64279
4.35875
4.10119
3.96755
1.40001
1.40001
1.40001
1.40001
1.40001
1.40001
1.40001
1.40001
1.40001
1.40001
1.40001
1.40001
1.40001
1.40001
1.40001
1.40001
1.40001
1.40001
1.40001
1.40001
1.40001
1.40001
1.40001
1.40001
1.40001
1.40001
1.40001
1.40001
1.40001
1.40001
1.40001
1.40001
1.40001
1.40001
1.40001
1.40001
1.40001
1.40001
1.40001
1.40001
1.40001
1.40001
1.40001
1.40001
1.40001
1.40001
1.40001
1.40001
1.40001
1.40001
1.40001
1.40001
1.40001
1.40001
1.40001
1.40001
1.40001
1.40001
1.40001
1.40001
1.40007
3.19953
5.19717
5.38617
5.43776
5.47187
5.481
5.46296
5.43879
5.41968
5.41195
5.4212
5.44467
5.46283
5.47442
5.47798
5.474
5.45827
5.43305
5.40347
5.37555
5.35565
5.34317
5.33202
5.31428
5.2832
5.23609
5.17611
5.10748
5.02983
4.92958
4.77649
4.53243
4.19835
3.72659
2.86651
1.40001
1.40001
1.40001
1.40001
1.40001
1.40001
1.40001
1.40001
1.40001
1.40001
1.40001
1.40001
1.40001
1.40001
1.40001
1.40001
1.40001
1.40001
1.40001
1.40001
1.40001
1.40001
1.40001
1.40001
1.40001
1.40001
1.40001
1.40001
1.40001
1.40001
1.40001
1.40001
1.40001
1.40001
1.40001
1.40001
1.40001
1.40001
1.40001
1.40001
1.40001
1.40001
1.40001
1.40001
1.40001
1.40001
1.40001
1.40001
1.40001
1.40001
1.40001
1.40001
1.40001
1.40001
1.40001
1.40001
1.40001
1.40001
1.40001
1.40001
1.40001
2.47727
5.05678
5.39862
5.41921
5.44752
5.46208
5.45607
5.43674
5.41409
5.40022
5.40245
5.42247
5.44007
5.45158
5.45515
5.45151
5.43692
5.41183
5.37906
5.34559
5.31953
5.30056
5.28362
5.26153
5.22718
5.17746
5.11331
5.03719
4.94724
4.83251
4.66661
4.39084
4.01708
3.47015
2.54224
1.40001
1.40001
1.40001
1.40001
1.40001
1.40001
1.40001
1.40001
1.40001
1.40001
1.40001
1.40001
1.40001
1.40001
1.40001
1.40001
1.40001
1.40001
1.40001
1.40001
1.40001
1.40001
1.40001
1.40001
1.40001
1.40001
1.40001
1.40001
1.40001
1.40001
1.40001
1.40001
1.40001
1.40001
1.40001
1.40001
1.40001
1.40001
1.40001
1.40001
1.40001
1.40001
1.40001
1.40001
1.40001
1.40001
1.40001
1.40001
1.40001
1.40001
1.40001
1.40001
1.40001
1.40001
1.40001
1.40001
1.40001
1.40001
1.40001
1.40001
1.40001
1.80233
4.75778
5.46008
5.4417
5.44929
5.46215
5.45341
5.426
5.3965
5.38036
5.38068
5.39982
5.41792
5.42848
5.43119
5.42698
5.4137
5.3888
5.35333
5.31465
5.28202
5.25673
5.23422
5.20748
5.16939
5.11674
5.04841
4.96516
4.86538
4.73385
4.55349
4.2698
3.8889
3.28598
2.47961
1.40001
1.40001
1.40001
1.40001
1.40001
1.40001
1.40001
1.40001
1.40001
1.40001
1.40001
1.40001
1.40001
1.40001
1.40001
1.40001
1.40001
1.40001
1.40001
1.40001
1.40001
1.40001
1.40001
1.40001
1.40001
1.40001
1.40001
1.40001
1.40001
1.40001
1.40001
1.40001
1.40001
1.40001
1.40001
1.40001
1.40001
1.40001
1.40001
1.40001
1.40001
1.40001
1.40001
1.40001
1.40001
1.40001
1.40001
1.40001
1.40001
1.40001
1.40001
1.40001
1.40001
1.40001
1.40001
1.40001
1.40001
1.40001
1.40001
1.40001
1.40001
1.43239
4.12688
5.34227
5.39782
5.44593
5.46362
5.45268
5.42155
5.38948
5.36999
5.36549
5.37741
5.39172
5.40022
5.40239
5.3988
5.38747
5.3638
5.32703
5.28421
5.24472
5.21265
5.18441
5.15285
5.1116
5.05559
4.98334
4.89318
4.78486
4.64074
4.4439
4.17407
3.76415
3.20595
2.54007
1.40001
1.40001
1.40001
1.40001
1.40001
1.40001
1.40001
1.40001
1.40001
1.40001
1.40001
1.40001
1.40001
1.40001
1.40001
1.40001
1.40001
1.40001
1.40001
1.40001
1.40001
1.40001
1.40001
1.40001
1.40001
1.40001
1.40001
1.40001
1.40001
1.40001
1.40001
1.40001
1.40001
1.40001
1.40001
1.40001
1.40001
1.40001
1.40001
1.40001
1.40001
1.40001
1.40001
1.40001
1.40001
1.40001
1.40001
1.40001
1.40001
1.40001
1.40001
1.40001
1.40001
1.40001
1.40001
1.40001
1.40001
1.40001
1.40001
1.40001
1.40001
1.40022
3.28042
5.1955
5.38328
5.42518
5.44604
5.4396
5.41287
5.38259
5.36041
5.35225
5.35592
5.36482
5.3692
5.36892
5.36533
5.35568
5.33445
5.29985
5.25634
5.21068
5.17
5.13433
5.09792
5.05385
4.99492
4.91935
4.82347
4.70526
4.55239
4.34652
4.07886
3.68854
3.2008
2.6388
1.40001
1.40001
1.40001
1.40001
1.40001
1.40001
1.40001
1.40001
1.40001
1.40001
1.40001
1.40001
1.40001
1.40001
1.40001
1.40001
1.40001
1.40001
1.40001
1.40001
1.40001
1.40001
1.40001
1.40001
1.40001
1.40001
1.40001
1.40001
1.40001
1.40001
1.40001
1.40001
1.40001
1.40001
1.40001
1.40001
1.40001
1.40001
1.40001
1.40001
1.40001
1.40001
1.40001
1.40001
1.40001
1.40001
1.40001
1.40001
1.40001
1.40001
1.40001
1.40001
1.40001
1.40001
1.40001
1.40001
1.40001
1.40001
1.40001
1.40001
1.40001
1.4
2.42164
5.04133
5.39136
5.39932
5.42194
5.42162
5.40346
5.37673
5.35087
5.33681
5.33438
5.33838
5.3406
5.33758
5.33136
5.32101
5.3024
5.27219
5.23008
5.17993
5.13057
5.08623
5.04353
4.9958
4.93505
4.85688
4.75653
4.62961
4.46991
4.26426
3.99989
3.64373
3.22125
2.749
1.40001
1.40001
1.40001
1.40001
1.40001
1.40001
1.40001
1.40001
1.40001
1.40001
1.40001
1.40001
1.40001
1.40001
1.40001
1.40001
1.40001
1.40001
1.40001
1.40001
1.40001
1.40001
1.40001
1.40001
1.40001
1.40001
1.40001
1.40001
1.40001
1.40001
1.40001
1.40001
1.40001
1.40001