/*--------------------------------*- C++ -*----------------------------------*\
  =========                 |
  \\      /  F ield         | OpenFOAM: The Open Source CFD Toolbox
   \\    /   O peration     | Website:  https://openfoam.org
    \\  /    A nd           | Version:  7
     \\/     M anipulation  |
\*---------------------------------------------------------------------------*/
FoamFile
{
    version     2.0;
    format      ascii;
    class       volScalarField;
    location    "0.7";
    object      T;
}
// * * * * * * * * * * * * * * * * * * * * * * * * * * * * * * * * * * * * * //

dimensions      [0 0 0 1 0 0 0];

internalField   nonuniform List<scalar> 
64512
(
1
1
1
1
1
1
1
1
1
1
1
1
1
1
1
1
1
1
1
1
1
1
1
1
1
1
1
1
1
1
1
1
1
1
1
1
1
1
1
1
1
1
1
1
1
1
1
1
1
1
1
1
1
1
1
1
1
1.48888
2.60197
2.76972
2.80274
2.82332
2.8277
2.82456
2.82157
2.82408
2.83181
2.84384
2.85745
2.8672
2.87289
2.87647
2.87907
2.87989
2.87877
2.87828
2.87903
2.88298
2.89055
2.89934
2.90761
2.91475
2.92125
2.92889
2.93886
2.95205
2.96719
2.98552
3.01311
3.05793
3.12812
3.22483
3.33372
3.42672
3.48024
3.49773
1
1
1
1
1
1
1
1
1
1
1
1
1
1
1
1
1
1
1
1
1
1
1
1
1
1
1
1
1
1
1
1
1
1
1
1
1
1
1
1
1
1
1
1
1
1
1
1
1
1
1
1
1
1
1
1
1
1.48066
2.59753
2.76896
2.80291
2.82309
2.82746
2.82508
2.82205
2.82461
2.8322
2.84397
2.85726
2.86699
2.87272
2.8763
2.87885
2.87958
2.87849
2.87804
2.87885
2.88288
2.89046
2.89922
2.90746
2.91456
2.92105
2.92872
2.93876
2.95205
2.96731
2.98586
3.01373
3.05891
3.1294
3.22613
3.33467
3.42711
3.48017
3.49744
1
1
1
1
1
1
1
1
1
1
1
1
1
1
1
1
1
1
1
1
1
1
1
1
1
1
1
1
1
1
1
1
1
1
1
1
1
1
1
1
1
1
1
1
1
1
1
1
1
1
1
1
1
1
1
1
1
1.46
2.58727
2.76895
2.80325
2.82292
2.82784
2.82544
2.82249
2.82524
2.83263
2.84409
2.85696
2.86662
2.8724
2.87604
2.87857
2.87918
2.87812
2.87765
2.87853
2.88267
2.89027
2.89899
2.90716
2.9142
2.9207
2.92845
2.93865
2.95215
2.96768
2.98671
3.01535
3.06154
3.13296
3.22998
3.33774
3.42869
3.48057
3.49734
1
1
1
1
1
1
1
1
1
1
1
1
1
1
1
1
1
1
1
1
1
1
1
1
1
1
1
1
1
1
1
1
1
1
1
1
1
1
1
1
1
1
1
1
1
1
1
1
1
1
1
1
1
1
1
1
1
1.42941
2.57043
2.76782
2.80333
2.82304
2.82814
2.82593
2.82342
2.82618
2.83302
2.844
2.85643
2.86606
2.87194
2.87566
2.87817
2.87863
2.87758
2.87708
2.87802
2.8823
2.88992
2.89856
2.90663
2.91356
2.92007
2.92796
2.93843
2.95221
2.96814
2.98782
3.01754
3.06526
3.13824
3.23594
3.3427
3.43144
3.4814
3.49738
1
1
1
1
1
1
1
1
1
1
1
1
1
1
1
1
1
1
1
1
1
1
1
1
1
1
1
1
1
1
1
1
1
1
1
1
1
1
1
1
1
1
1
1
1
1
1
1
1
1
1
1
1
1
1
1
1
1.38705
2.5454
2.76609
2.80308
2.8242
2.8285
2.82679
2.82464
2.82694
2.83286
2.84335
2.85559
2.86537
2.87141
2.87522
2.8777
2.87797
2.87693
2.87635
2.87733
2.88173
2.88936
2.8979
2.90582
2.91257
2.91907
2.92713
2.93798
2.95217
2.96852
2.98878
3.01948
3.06869
3.14338
3.24204
3.34799
3.43448
3.48238
3.4975
1
1
1
1
1
1
1
1
1
1
1
1
1
1
1
1
1
1
1
1
1
1
1
1
1
1
1
1
1
1
1
1
1
1
1
1
1
1
1
1
1
1
1
1
1
1
1
1
1
1
1
1
1
1
1
1
1
1.3299
2.51029
2.76477
2.80265
2.82669
2.82938
2.82806
2.82568
2.82696
2.83167
2.84206
2.8546
2.86469
2.87088
2.87473
2.87712
2.87716
2.8761
2.87542
2.87643
2.88095
2.88859
2.89702
2.90472
2.91124
2.91769
2.92594
2.93726
2.95193
2.96867
2.98935
3.02067
3.07084
3.14677
3.24627
3.35179
3.43666
3.48301
3.49755
1
1
1
1
1
1
1
1
1
1
1
1
1
1
1
1
1
1
1
1
1
1
1
1
1
1
1
1
1
1
1
1
1
1
1
1
1
1
1
1
1
1
1
1
1
1
1
1
1
1
1
1
1
1
1
1
1
1.25641
2.46379
2.76377
2.80445
2.83025
2.83116
2.82921
2.82584
2.82556
2.82955
2.84049
2.85364
2.86401
2.87027
2.87409
2.87637
2.8762
2.8751
2.8743
2.87533
2.87998
2.88764
2.89592
2.90337
2.90958
2.91594
2.92438
2.93619
2.95139
2.96854
2.98949
3.02109
3.07161
3.148
3.24792
3.35333
3.43751
3.4831
3.49734
1
1
1
1
1
1
1
1
1
1
1
1
1
1
1
1
1
1
1
1
1
1
1
1
1
1
1
1
1
1
1
1
1
1
1
1
1
1
1
1
1
1
1
1
1
1
1
1
1
1
1
1
1
1
1
1
1
1.16983
2.40755
2.76336
2.81201
2.83404
2.83336
2.82916
2.82389
2.82274
2.82698
2.83892
2.85277
2.86331
2.86952
2.87323
2.87539
2.87504
2.87386
2.87295
2.87402
2.87879
2.88645
2.89459
2.90176
2.90765
2.91389
2.9225
2.93482
2.95051
2.96801
2.98912
3.02078
3.07131
3.14776
3.24782
3.35331
3.43735
3.4826
3.49667
1
1
1
1
1
1
1
1
1
1
1
1
1
1
1
1
1
1
1
1
1
1
1
1
1
1
1
1
1
1
1
1
1
1
1
1
1
1
1
1
1
1
1
1
1
1
1
1
1
1
1
1
1
1
1
1
1
1.07152
2.34735
2.77061
2.82189
2.83643
2.83393
2.82671
2.8197
2.81929
2.82443
2.83756
2.85199
2.86248
2.86852
2.87201
2.87404
2.87359
2.87236
2.87138
2.87251
2.87738
2.88502
2.89299
2.89986
2.90547
2.91163
2.92043
2.93323
2.94934
2.96702
2.98806
3.01954
3.06991
3.14633
3.24657
3.3523
3.43637
3.48139
3.49543
1
1
1
1
1
1
1
1
1
1
1
1
1
1
1
1
1
1
1
1
1
1
1
1
1
1
1
1
1
1
1
1
1
1
1
1
1
1
1
1
1
1
1
1
1
1
1
1
1
1
1
1
1
1
1
1
1
1.00171
2.29537
2.78165
2.82791
2.83539
2.83129
2.82175
2.81474
2.81561
2.8224
2.8364
2.85109
2.86134
2.8671
2.87035
2.87228
2.87184
2.87062
2.86961
2.87081
2.87574
2.88329
2.89105
2.89761
2.90302
2.90924
2.91832
2.93157
2.94795
2.96561
2.98633
3.01732
3.06718
3.14334
3.24372
3.34989
3.43434
3.47943
3.49358
1
1
1
1
1
1
1
1
1
1
1
1
1
1
1
1
1
1
1
1
1
1
1
1
1
1
1
1
1
1
1
1
1
1
1
1
1
1
1
1
1
1
1
1
1
1
1
1
1
1
1
1
1
1
1
1
1
1
2.24109
2.79256
2.82943
2.83046
2.82524
2.81537
2.81019
2.81253
2.82105
2.83536
2.84988
2.85966
2.86513
2.86818
2.87009
2.8698
2.86865
2.86765
2.8689
2.87383
2.88123
2.88872
2.89498
2.90031
2.90676
2.91625
2.92989
2.94637
2.96376
2.984
3.01423
3.06321
3.13875
3.23915
3.34594
3.43118
3.47671
3.49109
1
1
1
1
1
1
1
1
1
1
1
1
1
1
1
1
1
1
1
1
1
1
1
1
1
1
1
1
1
1
1
1
1
1
1
1
1
1
1
1
1
1
1
1
1
1
1
1
1
1
1
1
1
1
1
1
1
1
2.17659
2.79811
2.82672
2.82457
2.81777
2.80896
2.80677
2.81044
2.82045
2.83438
2.84811
2.8572
2.86241
2.86544
2.86753
2.86755
2.86651
2.86554
2.86678
2.87164
2.8788
2.88599
2.892
2.89738
2.9042
2.91426
2.92822
2.94458
2.96151
2.98117
3.01046
3.0583
3.13288
3.23302
3.34051
3.42687
3.47321
3.48795
1
1
1
1
1
1
1
1
1
1
1
1
1
1
1
1
1
1
1
1
1
1
1
1
1
1
1
1
1
1
1
1
1
1
1
1
1
1
1
1
1
1
1
1
1
1
1
1
1
1
1
1
1
1
1
1
1
1
2.09999
2.79776
2.82188
2.81813
2.81006
2.80338
2.80443
2.80964
2.82046
2.83333
2.84556
2.85377
2.85876
2.86207
2.86468
2.8652
2.86432
2.86336
2.86446
2.86907
2.87592
2.88282
2.88872
2.89433
2.90165
2.91228
2.92643
2.94248
2.95884
2.97789
3.00617
3.05267
3.12602
3.22559
3.33374
3.42149
3.46899
3.48423
1
1
1
1
1
1
1
1
1
1
1
1
1
1
1
1
1
1
1
1
1
1
1
1
1
1
1
1
1
1
1
1
1
1
1
1
1
1
1
1
1
1
1
1
1
1
1
1
1
1
1
1
1
1
1
1
1
1
2.01236
2.7892
2.81621
2.81078
2.80295
2.79913
2.80345
2.8099
2.82078
2.83204
2.84201
2.84922
2.8541
2.8581
2.8616
2.86284
2.86217
2.86117
2.86197
2.86608
2.87251
2.87921
2.88523
2.89126
2.89917
2.91023
2.92435
2.93993
2.95573
2.97423
3.00149
3.04652
3.11831
3.21705
3.32578
3.41512
3.46408
3.47995
1
1
1
1
1
1
1
1
1
1
1
1
1
1
1
1
1
1
1
1
1
1
1
1
1
1
1
1
1
1
1
1
1
1
1
1
1
1
1
1
1
1
1
1
1
1
1
1
1
1
1
1
1
1
1
1
1
1
1.91444
2.76924
2.80828
2.80186
2.79634
2.79655
2.80328
2.81185
2.82129
2.83
2.83735
2.84361
2.84864
2.85366
2.85834
2.86048
2.86004
2.85896
2.8593
2.86273
2.86859
2.87518
2.88158
2.88828
2.8968
2.90808
2.92185
2.93678
2.95211
2.97017
2.99648
3.03995
3.10992
3.20755
3.31676
3.40785
3.45856
3.47521
1
1
1
1
1
1
1
1
1
1
1
1
1
1
1
1
1
1
1
1
1
1
1
1
1
1
1
1
1
1
1
1
1
1
1
1
1
1
1
1
1
1
1
1
1
1
1
1
1
1
1
1
1
1
1
1
1
1
1.80617
2.73738
2.79529
2.79025
2.79062
2.79623
2.80476
2.81499
2.82121
2.82679
2.83168
2.83704
2.8427
2.84911
2.85508
2.85807
2.85788
2.8566
2.85641
2.85914
2.86423
2.87079
2.87784
2.88543
2.89451
2.90573
2.91884
2.93297
2.94792
2.96568
2.99118
3.0331
3.1011
3.19729
3.30679
3.3997
3.4524
3.46995
1
1
1
1
1
1
1
1
1
1
1
1
1
1
1
1
1
1
1
1
1
1
1
1
1
1
1
1
1
1
1
1
1
1
1
1
1
1
1
1
1
1
1
1
1
1
1
1
1
1
1
1
1
1
1
1
1
1
1.67648
2.68494
2.77219
2.77831
2.78801
2.79949
2.80928
2.81716
2.81959
2.82185
2.82519
2.83007
2.83692
2.84499
2.85217
2.85566
2.85548
2.85392
2.8532
2.8553
2.85951
2.86621
2.87407
2.88262
2.89212
2.9031
2.91535
2.92852
2.94314
2.96069
2.98551
3.02594
3.09185
3.18639
3.29598
3.39071
3.44558
3.46412
1
1
1
1
1
1
1
1
1
1
1
1
1
1
1
1
1
1
1
1
1
1
1
1
1
1
1
1
1
1
1
1
1
1
1
1
1
1
1
1
1
1
1
1
1
1
1
1
1
1
1
1
1
1
1
1
1
1
1.51099
2.60441
2.74995
2.77217
2.79041
2.80475
2.81365
2.81709
2.81653
2.81532
2.81762
2.82327
2.83179
2.84161
2.84966
2.85318
2.85272
2.85077
2.84963
2.85114
2.85467
2.86167
2.87038
2.8797
2.88941
2.90001
2.91137
2.92354
2.93782
2.95516
2.97938
3.01837
3.08212
3.17489
3.28441
3.38091
3.43804
3.4576
1
1
1
1
1
1
1
1
1
1
1
1
1
1
1
1
1
1
1
1
1
1
1
1
1
1
1
1
1
1
1
1
1
1
1
1
1
1
1
1
1
1
1
1
1
1
1
1
1
1
1
1
1
1
1
1
1
1
1.31178
2.50065
2.7391
2.77573
2.79706
2.80881
2.81438
2.81447
2.81126
2.80776
2.80991
2.81718
2.82755
2.83881
2.84724
2.85052
2.84972
2.84712
2.84557
2.84656
2.84982
2.85738
2.86677
2.87653
2.88625
2.89635
2.90677
2.91822
2.93201
2.94906
2.97264
3.01023
3.0719
3.16286
3.27217
3.37035
3.42975
3.45031
1
1
1
1
1
1
1
1
1
1
1
1
1
1
1
1
1
1
1
1
1
1
1
1
1
1
1
1
1
1
1
1
1
1
1
1
1
1
1
1
1
1
1
1
1
1
1
1
1
1
1
1
1
1
1
1
1
1
1.09371
2.38382
2.74283
2.78552
2.80229
2.80911
2.81116
2.80909
2.8034
2.8003
2.80325
2.81233
2.82434
2.83619
2.84433
2.84721
2.84618
2.84294
2.84103
2.84169
2.84515
2.8533
2.86311
2.87294
2.88248
2.89205
2.90169
2.91252
2.92579
2.94242
2.9653
3.00148
3.06111
3.15027
3.2593
3.35903
3.42064
3.44208
1
1
1
1
1
1
1
1
1
1
1
1
1
1
1
1
1
1
1
1
1
1
1
1
1
1
1
1
1
1
1
1
1
1
1
1
1
1
1
1
1
1
1
1
1
1
1
1
1
1
1
1
1
1
1
1
1
1
1.00193
2.25607
2.75259
2.7937
2.80213
2.80533
2.80387
2.79968
2.79481
2.79418
2.79843
2.80921
2.82201
2.83328
2.84034
2.84277
2.84176
2.83845
2.83648
2.83709
2.84092
2.84922
2.85902
2.86868
2.87792
2.88709
2.8962
2.90645
2.91911
2.93516
2.95724
2.99197
3.04958
3.13696
3.24568
3.34693
3.41073
3.43296
1
1
1
1
1
1
1
1
1
1
1
1
1
1
1
1
1
1
1
1
1
1
1
1
1
1
1
1
1
1
1
1
1
1
1
1
1
1
1
1
1
1
1
1
1
1
1
1
1
1
1
1
1
1
1
1
1
1
1
2.08981
2.75423
2.79309
2.79515
2.79483
2.79276
2.78865
2.78683
2.78933
2.79579
2.80757
2.81988
2.82952
2.83491
2.8368
2.83626
2.83376
2.83242
2.83325
2.83717
2.84493
2.85417
2.86351
2.87257
2.88158
2.89039
2.90008
2.91204
2.92733
2.94848
2.98171
3.03724
3.12278
3.23114
3.33388
3.3998
3.42268
1
1
1
1
1
1
1
1
1
1
1
1
1
1
1
1
1
1
1
1
1
1
1
1
1
1
1
1
1
1
1
1
1
1
1
1
1
1
1
1
1
1
1
1
1
1
1
1
1
1
1
1
1
1
1
1
1
1
1
1.88954
2.72216
2.7837
2.781
2.78163
2.78275
2.78118
2.78159
2.78566
2.79319
2.80477
2.81614
2.82401
2.82807
2.82968
2.83001
2.82913
2.82903
2.8303
2.83383
2.84025
2.84842
2.8573
2.86634
2.87549
2.88425
2.89338
2.9045
2.9188
2.93881
2.97042
3.02375
3.10736
3.21536
3.31971
3.38782
3.41131
1
1
1
1
1
1
1
1
1
1
1
1
1
1
1
1
1
1
1
1
1
1
1
1
1
1
1
1
1
1
1
1
1
1
1
1
1
1
1
1
1
1
1
1
1
1
1
1
1
1
1
1
1
1
1
1
1
1
1
1.64823
2.63777
2.76389
2.76651
2.77315
2.77695
2.77665
2.77897
2.78387
2.79028
2.80022
2.81002
2.81643
2.82
2.82186
2.8235
2.82489
2.82623
2.82774
2.83052
2.83505
2.84186
2.85015
2.8593
2.8688
2.87766
2.88622
2.89645
2.90962
2.92832
2.95821
3.00923
3.09072
3.19823
3.30414
3.37434
3.39826
1
1
1
1
1
1
1
1
1
1
1
1
1
1
1
1
1
1
1
1
1
1
1
1
1
1
1
1
1
1
1
1
1
1
1
1
1
1
1
1
1
1
1
1
1
1
1
1
1
1
1
1
1
1
1
1
1
1
1
1.36381
2.51555
2.74511
2.75728
2.77092
2.77684
2.77818
2.77975
2.78244
2.78574
2.79305
2.80098
2.80675
2.81109
2.81447
2.81786
2.82126
2.82359
2.82464
2.82651
2.82943
2.83474
2.84243
2.85162
2.8614
2.87036
2.87836
2.88769
2.89966
2.91686
2.94479
2.99325
3.07236
3.17928
3.28687
3.35929
3.38367
1
1
1
1
1
1
1
1
1
1
1
1
1
1
1
1
1
1
1
1
1
1
1
1
1
1
1
1
1
1
1
1
1
1
1
1
1
1
1
1
1
1
1
1
1
1
1
1
1
1
1
1
1
1
1
1
1
1
1
1.1094
2.39189
2.73139
2.75517
2.77174
2.77832
2.7794
2.77891
2.77893
2.77897
2.78324
2.78979
2.79604
2.80227
2.80797
2.81329
2.81806
2.82068
2.82082
2.82154
2.8234
2.82738
2.83462
2.84365
2.85336
2.86214
2.86953
2.87799
2.88876
2.90444
2.9304
2.97623
3.05265
3.15856
3.26746
3.34184
3.36644
1
1
1
1
1
1
1
1
1
1
1
1
1
1
1
1
1
1
1
1
1
1
1
1
1
1
1
1
1
1
1
1
1
1
1
1
1
1
1
1
1
1
1
1
1
1
1
1
1
1
1
1
1
1
1
1
1
1
1
1.00286
2.25859
2.73209
2.76151
2.7741
2.7771
2.77696
2.77515
2.77248
2.77028
2.77301
2.77921
2.78628
2.79422
2.80208
2.8091
2.81467
2.81689
2.81607
2.81541
2.81667
2.82005
2.82697
2.83568
2.84486
2.85292
2.8596
2.86712
2.87674
2.89089
2.91471
2.95748
3.03051
3.13482
3.24505
3.32173
3.34693
1
1
1
1
1
1
1
1
1
1
1
1
1
1
1
1
1
1
1
1
1
1
1
1
1
1
1
1
1
1
1
1
1
1
1
1
1
1
1
1
1
1
1
1
1
1
1
1
1
1
1
1
1
1
1
1
1
1
1
1.00001
2.07485
2.71774
2.76133
2.76941
2.7707
2.76918
2.7669
2.76317
2.76273
2.7653
2.77116
2.77889
2.78795
2.79692
2.80456
2.81011
2.81173
2.81014
2.80835
2.80926
2.8126
2.81935
2.82769
2.83597
2.84284
2.84863
2.85502
2.86338
2.87598
2.89767
2.93732
3.00661
3.10859
3.21929
3.29742
3.32238
1
1
1
1
1
1
1
1
1
1
1
1
1
1
1
1
1
1
1
1
1
1
1
1
1
1
1
1
1
1
1
1
1
1
1
1
1
1
1
1
1
1
1
1
1
1
1
1
1
1
1
1
1
1
1
1
1
1
1
1
1.81875
2.65982
2.74913
2.75619
2.75835
2.75779
2.75663
2.75467
2.75578
2.75877
2.76537
2.77446
2.78363
2.79206
2.79895
2.80372
2.80499
2.80308
2.80089
2.8015
2.80485
2.81141
2.81929
2.82655
2.83218
2.83688
2.84192
2.84879
2.85969
2.87898
2.9148
2.97879
3.0765
3.18697
3.26713
3.29337
1
1
1
1
1
1
1
1
1
1
1
1
1
1
1
1
1
1
1
1
1
1
1
1
1
1
1
1
1
1
1
1
1
1
1
1
1
1
1
1
1
1
1
1
1
1
1
1
1
1
1
1
1
1
1
1
1
1
1
1
1.48427
2.54901
2.72827
2.74428
2.75187
2.75163
2.74979
2.74792
2.74962
2.75453
2.76275
2.77215
2.78028
2.78682
2.79172
2.79521
2.79662
2.79512
2.79341
2.79382
2.79681
2.80287
2.81009
2.81633
2.821
2.82455
2.8281
2.83319
2.84193
2.85828
2.88966
2.94774
3.04046
3.14979
3.22933
3.25096
1
1
1
1
1
1
1
1
1
1
1
1
1
1
1
1
1
1
1
1
1
1
1
1
1
1
1
1
1
1
1
1
1
1
1
1
1
1
1
1
1
1
1
1
1
1
1
1
1
1
1
1
1
1
1
1
1
1
1
1
1.16633
2.41895
2.72014
2.73006
2.74019
2.74377
2.745
2.74476
2.74752
2.75311
2.76088
2.76958
2.77628
2.78048
2.78297
2.78513
2.78713
2.78679
2.78594
2.78619
2.78853
2.79359
2.79971
2.80511
2.80904
2.81163
2.81376
2.81687
2.82302
2.83577
2.86168
2.91151
2.99444
3.09678
3.17349
3.19393
1
1
1
1
1
1
1
1
1
1
1
1
1
1
1
1
1
1
1
1
1
1
1
1
1
1
1
1
1
1
1
1
1
1
1
1
1
1
1
1
1
1
1
1
1
1
1
1
1
1
1
1
1
1
1
1
1
1
1
1
1.00603
2.26859
2.71403
2.73084
2.73922
2.74237
2.74481
2.74363
2.74626
2.75156
2.75733
2.76384
2.76932
2.77188
2.77342
2.77533
2.77781
2.77848
2.77824
2.77846
2.78004
2.78357
2.78823
2.79274
2.79609
2.79796
2.79888
2.80003
2.80322
2.81147
2.83032
2.86963
2.9407
3.03431
3.11027
3.14067
1
1
1
1
1
1
1
1
1
1
1
1
1
1
1
1
1
1
1
1
1
1
1
1
1
1
1
1
1
1
1
1
1
1
1
1
1
1
1
1
1
1
1
1
1
1
1
1
1
1
1
1
1
1
1
1
1
1
1
1
1.00002
2.0525
2.69835
2.72894
2.73256
2.73654
2.73978
2.73978
2.74228
2.74639
2.75001
2.75406
2.75943
2.76241
2.7643
2.76625
2.76898
2.77063
2.771
2.77083
2.77122
2.77292
2.77589
2.77933
2.78208
2.78339
2.78325
2.78259
2.7827
2.78596
2.79699
2.82472
2.87835
2.94032
2.95463
2.85197
1
1
1
1
1
1
1
1
1
1
1
1
1
1
1
1
1
1
1
1
1
1
1
1
1
1
1
1
1
1
1
1
1
1
1
1
1
1
1
1
1
1
1
1
1
1
1
1
1
1
1
1
1
1
1
1
1
1
1
1
1
1.72396
2.62406
2.71838
2.72218
2.72696
2.73007
2.73223
2.73403
2.73715
2.74001
2.74274
2.74822
2.75184
2.75485
2.7582
2.76205
2.7642
2.76441
2.76328
2.76184
2.76166
2.76287
2.76503
2.7671
2.76783
2.76686
2.76446
2.76139
2.75969
2.76232
2.77579
2.8034
2.83282
2.81171
2.65618
1
1
1
1
1
1
1
1
1
1
1
1
1
1
1
1
1
1
1
1
1
1
1
1
1
1
1
1
1
1
1
1
1
1
1
1
1
1
1
1
1
1
1
1
1
1
1
1
1
1
1
1
1
1
1
1
1
1
1
1
1
1.28784
2.47099
2.71245
2.71683
2.71983
2.72258
2.72321
2.72287
2.72457
2.72759
2.73077
2.7371
2.74211
2.74659
2.75136
2.75594
2.75831
2.75787
2.7556
2.75208
2.74954
2.74898
2.75007
2.75142
2.75158
2.74986
2.7459
2.73988
2.73281
2.72681
2.7277
2.73111
2.7361
2.68308
2.51967
1
1
1
1
1
1
1
1
1
1
1
1
1
1
1
1
1
1
1
1
1
1
1
1
1
1
1
1
1
1
1
1
1
1
1
1
1
1
1
1
1
1
1
1
1
1
1
1
1
1
1
1
1
1
1
1
1
1
1
1
1
1.01678
2.31404
2.69117
2.70455
2.71411
2.71804
2.71807
2.71725
2.71758
2.71938
2.72211
2.72721
2.73267
2.7383
2.7443
2.74951
2.75195
2.75112
2.74764
2.74217
2.73726
2.73471
2.73466
2.73528
2.73497
2.73248
2.72714
2.71859
2.70742
2.69361
2.68055
2.6698
2.64433
2.58383
2.45558
1
1
1
1
1
1
1
1
1
1
1
1
1
1
1
1
1
1
1
1
1
1
1
1
1
1
1
1
1
1
1
1
1
1
1
1
1
1
1
1
1
1
1
1
1
1
1
1
1
1
1
1
1
1
1
1
1
1
1
1
1
1.00008
2.06785
2.66428
2.69691
2.70544
2.71094
2.71331
2.71288
2.71267
2.71366
2.7159
2.71921
2.72418
2.72976
2.73604
2.74144
2.74379
2.74291
2.73906
2.73256
2.72566
2.7209
2.71911
2.71897
2.71811
2.71478
2.70822
2.69761
2.68272
2.66297
2.63902
2.61396
2.57224
2.50731
2.40528
1
1
1
1
1
1
1
1
1
1
1
1
1
1
1
1
1
1
1
1
1
1
1
1
1
1
1
1
1
1
1
1
1
1
1
1
1
1
1
1
1
1
1
1
1
1
1
1
1
1
1
1
1
1
1
1
1
1
1
1
1
1
1.68113
2.58364
2.68468
2.69422
2.70229
2.70658
2.70827
2.70809
2.70842
2.71
2.71228
2.716
2.72095
2.72675
2.73171
2.73374
2.73305
2.7297
2.72311
2.71492
2.70814
2.70437
2.70271
2.70092
2.69685
2.6892
2.67684
2.65884
2.63479
2.60441
2.56815
2.51793
2.45428
2.36901
1
1
1
1
1
1
1
1
1
1
1
1
1
1
1
1
1
1
1
1
1
1
1
1
1
1
1
1
1
1
1
1
1
1
1
1
1
1
1
1
1
1
1
1
1
1
1
1
1
1
1
1
1
1
1
1
1
1
1
1
1
1
1.19027
2.41987
2.68145
2.68789
2.69361
2.69854
2.70166
2.70165
2.70182
2.70282
2.70503
2.70802
2.71216
2.71695
2.72091
2.72248
2.72187
2.71917
2.71331
2.70495
2.69677
2.69092
2.68709
2.68376
2.6788
2.67011
2.65615
2.636
2.60918
2.57531
2.53288
2.48004
2.41904
2.34559
1
1
1
1
1
1
1
1
1
1
1
1
1
1
1
1
1
1
1
1
1
1
1
1
1
1
1
1
1
1
1
1
1
1
1
1
1
1
1
1
1
1
1
1
1
1
1
1
1
1
1
1
1
1
1
1
1
1
1
1
1
1
1.00649
2.22504
2.64954
2.67244
2.68509
2.69211
2.6963
2.69635
2.69549
2.6947
2.69637
2.69885
2.7022
2.70609
2.7092
2.71053
2.70989
2.70769
2.70296
2.69546
2.6868
2.67893
2.67253
2.66709
2.66073
2.6509
2.63566
2.61424
2.58617
2.55056
2.50678
2.45452
2.39512
2.32918
1
1
1
1
1
1
1
1
1
1
1
1
1
1
1
1
1
1
1
1
1
1
1
1
1
1
1
1
1
1
1
1
1
1
1
1
1
1
1
1
1
1
1
1
1
1
1
1
1
1
1
1
1
1
1
1
1
1
1
1
1
1
1.00001
1.88148
2.59638
2.66416
2.6756
2.68294
2.68885
2.68968
2.68821
2.68604
2.68633
2.68803
2.69088
2.69449
2.69727
2.69848
2.69777
2.69586
2.69211
2.68595
2.67766
2.66824
2.65931
2.65134
2.64296
2.63181
2.61578
2.59385
2.56566
2.53007
2.48748
2.43646
2.38094
2.3202
1
1
1
1
1
1
1
1
1
1
1
1
1
1
1
1
1
1
1
1
1
1
1
1
1
1
1
1
1
1
1
1
1
1
1
1
1
1
1
1
1
1
1
1
1
1
1
1
1
1
1
1
1
1
1
1
1
1
1
1
1
1
1
1.36497
2.46219
2.65899
2.66412
2.67064
2.67903
2.68264
2.6811
2.6779
2.67584
2.67666
2.67875
2.68252
2.68571
2.68703
2.68622
2.68422
2.6809
2.67591
2.66838
2.65832
2.64732
2.63666
2.62572
2.61292
2.59643
2.57475
2.54727
2.51322
2.47226
2.4243
2.37387
2.31494
1
1
1
1
1
1
1
1
1
1
1
1
1
1
1
1
1
1
1
1
1
1
1
1
1
1
1
1
1
1
1
1
1
1
1
1
1
1
1
1
1
1
1
1
1
1
1
1
1
1
1
1
1
1
1
1
1
1
1
1
1
1
1
1.02657
2.28619
2.63194
2.64841
2.66136
2.67027
2.67514
2.67413
2.67057
2.66682
2.66592
2.66709
2.6706
2.67429
2.67599
2.67516
2.6729
2.66961
2.66532
2.65857
2.64866
2.63642
2.62324
2.60947
2.59468
2.57777
2.55699
2.53104
2.49921
2.46067
2.41748
2.37012
2.31468
1
1
1
1
1
1
1
1
1
1
1
1
1
1
1
1
1
1
1
1
1
1
1
1
1
1
1
1
1
1
1
1
1
1
1
1
1
1
1
1
1
1
1
1
1
1
1
1
1
1
1
1
1
1
1
1
1
1
1
1
1
1
1
1.00014
1.94947
2.58077
2.63861
2.65197
2.66047
2.66627
2.66515
2.66178
2.65743
2.65493
2.65544
2.65847
2.6628
2.66528
2.66449
2.66179
2.65812
2.65396
2.64783
2.63858
2.62615
2.61116
2.59476
2.57769
2.55993
2.54008
2.51632
2.48648
2.45108
2.41238
2.36713
2.31602
1
1
1
1
1
1
1
1
1
1
1
1
1
1
1
1
1
1
1
1
1
1
1
1
1
1
1
1
1
1
1
1
1
1
1
1
1
1
1
1
1
1
1
1
1
1
1
1
1
1
1
1
1
1
1
1
1
1
1
1
1
1
1
1
1.42475
2.46192
2.63744
2.6391
2.64636
2.65355
2.6545
2.6523
2.64817
2.64438
2.64438
2.64663
2.65102
2.65405
2.65329
2.65024
2.64604
2.64165
2.63595
2.62758
2.61587
2.60046
2.58233
2.56315
2.54398
2.5243
2.5026
2.47469
2.44276
2.4077
2.36562
2.32027
1
1
1
1
1
1
1
1
1
1
1
1
1
1
1
1
1
1
1
1
1
1
1
1
1
1
1
1
1
1
1
1
1
1
1
1
1
1
1
1
1
1
1
1
1
1
1
1
1
1
1
1
1
1
1
1
1
1
1
1
1
1
1
1
1.03714
2.28802
2.61405
2.6262
2.63602
2.64251
2.64454
2.64245
2.63877
2.6346
2.63421
2.63582
2.63939
2.64197
2.64126
2.63815
2.63356
2.62874
2.62308
2.6154
2.60493
2.59045
2.57209
2.55181
2.53109
2.51083
2.49006
2.46383
2.43504
2.40255
2.36418
2.32306
1
1
1
1
1
1
1
1
1
1
1
1
1
1
1
1
1
1
1
1
1
1
1
1
1
1
1
1
1
1
1
1
1
1
1
1
1
1
1
1
1
1
1
1
1
1
1
1
1
1
1
1
1
1
1
1
1
1
1
1
1
1
1
1
1.00026
1.93372
2.5611
2.61438
2.62585
2.63249
2.63513
2.63276
2.62919
2.62512
2.62404
2.62503
2.62757
2.6292
2.62872
2.62591
2.6212
2.61581
2.60973
2.60229
2.59294
2.58013
2.56298
2.54285
2.52133
2.50037
2.4792
2.45489
2.42825
2.39746
2.36224
2.32303
1
1
1
1
1
1
1
1
1
1
1
1
1
1
1
1
1
1
1
1
1
1
1
1
1
1
1
1
1
1
1
1
1
1
1
1
1
1
1
1
1
1
1
1
1
1
1
1
1
1
1
1
1
1
1
1
1
1
1
1
1
1
1
1
1
1.37166
2.43077
2.61123
2.61279
2.61732
2.62225
2.62173
2.61974
2.61644
2.61445
2.61441
2.61555
2.61646
2.61607
2.61385
2.60963
2.60394
2.59717
2.58945
2.5806
2.56929
2.55392
2.53484
2.51368
2.49254
2.47064
2.44775
2.42221
2.39263
2.35897
2.32122
1
1
1
1
1
1
1
1
1
1
1
1
1
1
1
1
1
1
1
1
1
1
1
1
1
1
1
1
1
1
1
1
1
1
1
1
1
1
1
1
1
1
1
1
1
1
1
1
1
1
1
1
1
1
1
1
1
1
1
1
1
1
1
1
1
1.02738
2.23851
2.58627
2.59671
2.60406
2.6093
2.61107
2.60988
2.60773
2.60534
2.60409
2.60345
2.60355
2.60303
2.6016
2.59835
2.59296
2.58576
2.57768
2.56886
2.55837
2.54419
2.52646
2.50655
2.48556
2.46345
2.44134
2.41624
2.38793
2.35565
2.32058
1
1
1
1
1
1
1
1
1
1
1
1
1
1
1
1
1
1
1
1
1
1
1
1
1
1
1
1
1
1
1
1
1
1
1
1
1
1
1
1
1
1
1
1
1
1
1
1
1
1
1
1
1
1
1
1
1
1
1
1
1
1
1
1
1
1.00013
1.82002
2.52506
2.58959
2.59535
2.59927
2.60064
2.59965
2.59791
2.59554
2.5933
2.5912
2.59002
2.58971
2.58872
2.58645
2.58197
2.57511
2.56717
2.55848
2.54823
2.53491
2.51845
2.49982
2.47913
2.45762
2.43557
2.41099
2.38424
2.35338
2.32044
1
1
1
1
1
1
1
1
1
1
1
1
1
1
1
1
1
1
1
1
1
1
1
1
1
1
1
1
1
1
1
1
1
1
1
1
1
1
1
1
1
1
1
1
1
1
1
1
1
1
1
1
1
1
1
1
1
1
1
1
1
1
1
1
1
1
1.20597
2.36467
2.58501
2.5849
2.58841
2.59163
2.59075
2.58951
2.5874
2.58437
2.58105
2.57814
2.57681
2.5756
2.57346
2.5698
2.56392
2.55671
2.54852
2.53849
2.52585
2.51054
2.49285
2.47278
2.45194
2.4296
2.40589
2.38068
2.35193
2.32087
1
1
1
1
1
1
1
1
1
1
1
1
1
1
1
1
1
1
1
1
1
1
1
1
1
1
1
1
1
1
1
1
1
1
1
1
1
1
1
1
1
1
1
1
1
1
1
1
1
1
1
1
1
1
1
1
1
1
1
1
1
1
1
1
1
1
1.00749
2.10325
2.54223
2.56374
2.57469
2.58023
2.58146
2.5808
2.57934
2.57658
2.57266
2.56854
2.5653
2.56291
2.56002
2.55647
2.55168
2.54564
2.53817
2.52861
2.51674
2.50267
2.48604
2.46702
2.44676
2.42463
2.40168
2.37693
2.34972
2.3204
1
1
1
1
1
1
1
1
1
1
1
1
1
1
1
1
1
1
1
1
1
1
1
1
1
1
1
1
1
1
1
1
1
1
1
1
1
1
1
1
1
1
1
1
1
1
1
1
1
1
1
1
1
1
1
1
1
1
1
1
1
1
1
1
1
1
1.00001
1.55126
2.44938
2.5636
2.56179
2.56462
2.56702
2.56788
2.56883
2.56812
2.56587
2.56165
2.5564
2.55183
2.54796
2.54398
2.5395
2.53431
2.52704
2.51798
2.50683
2.49384
2.47839
2.46081
2.44135
2.41991
2.39732
2.37315
2.34754
2.32025
1
1
1
1
1
1
1
1
1
1
1
1
1
1
1
1
1
1
1
1
1
1
1
1
1
1
1
1
1
1
1
1
1
1
1
1
1
1
1
1
1
1
1
1
1
1
1
1
1
1
1
1
1
1
1
1
1
1
1
1
1
1
1
1
1
1
1
1.06412
2.26138
2.54816
2.54651
2.54925
2.55338
2.55539
2.55735
2.55849
2.55743
2.55426
2.54865
2.54227
2.53625
2.532
2.5272
2.52233
2.51562
2.50711
2.49652
2.48431
2.47005
2.45395
2.43558
2.41519
2.39338
2.37018
2.34583
2.31999
1
1
1
1
1
1
1
1
1
1
1
1
1
1
1
1
1
1
1
1
1
1
1
1
1
1
1
1
1
1
1
1
1
1
1
1
1
1
1
1
1
1
1
1
1
1
1
1
1
1
1
1
1
1
1
1
1
1
1
1
1
1
1
1
1
1
1
1.00071
1.81749
2.48518
2.53946
2.53918
2.54088
2.54277
2.54475
2.54599
2.54568
2.54403
2.53977
2.5334
2.52623
2.52003
2.51548
2.51051
2.50447
2.49652
2.48624
2.47423
2.46057
2.44554
2.4286
2.40969
2.38906
2.36717
2.34405
2.31954
1
1
1
1
1
1
1
1
1
1
1
1
1
1
1
1
1
1
1
1
1
1
1
1
1
1
1
1
1
1
1
1
1
1
1
1
1
1
1
1
1
1
1
1
1
1
1
1
1
1
1
1
1
1
1
1
1
1
1
1
1
1
1
1
1
1
1
1
1.16744
2.32072
2.53469
2.52916
2.53022
2.5311
2.53253
2.53426
2.53451
2.53293
2.52943
2.5239
2.51698
2.50974
2.50332
2.49847
2.4924
2.48553
2.47613
2.46445
2.45109
2.43678
2.42134
2.40416
2.38494
2.36418
2.34181
2.31823
1
1
1
1
1
1
1
1
1
1
1
1
1
1
1
1
1
1
1
1
1
1
1
1
1
1
1
1
1
1
1
1
1
1
1
1
1
1
1
1
1
1
1
1
1
1
1
1
1
1
1
1
1
1
1
1
1
1
1
1
1
1
1
1
1
1
1
1
1.00506
1.97661
2.48295
2.51406
2.51739
2.52028
2.52114
2.523
2.52319
2.52145
2.5179
2.51298
2.50683
2.49998
2.49265
2.48623
2.48071
2.47449
2.46637
2.45522
2.44185
2.42783
2.41342
2.39773
2.38007
2.3605
2.33884
2.31606
1
1
1
1
1
1
1
1
1
1
1
1
1
1
1
1
1
1
1
1
1
1
1
1
1
1
1
1
1
1
1
1
1
1
1
1
1
1
1
1
1
1
1
1
1
1
1
1
1
1
1
1
1
1
1
1
1
1
1
1
1
1
1
1
1
1
1
1
1.00001
1.30581
2.34586
2.51238
2.50733
2.50943
2.51151
2.5121
2.51181
2.51016
2.50701
2.50268
2.49697
2.49017
2.48287
2.47535
2.46891
2.46295
2.45555
2.44553
2.43302
2.41949
2.40586
2.39124
2.3749
2.35637
2.33549
2.31354
1
1
1
1
1
1
1
1
1
1
1
1
1
1
1
1
1
1
1
1
1
1
1
1
1
1
1
1
1
1
1
1
1
1
1
1
1
1
1
1
1
1
1
1
1
1
1
1
1
1
1
1
1
1
1
1
1
1
1
1
1
1
1
1
1
1
1
1
1
1.01666
2.06642
2.47212
2.4874
2.49526
2.49963
2.50017
2.49985
2.49867
2.49609
2.49235
2.48697
2.48021
2.47283
2.46539
2.4583
2.45175
2.44445
2.43547
2.42455
2.41206
2.39892
2.38472
2.369
2.35133
2.33162
2.3108
1
1
1
1
1
1
1
1
1
1
1
1
1
1
1
1
1
1
1
1
1
1
1
1
1
1
1
1
1
1
1
1
1
1
1
1
1
1
1
1
1
1
1
1
1
1
1
1
1
1
1
1
1
1
1
1
1
1
1
1
1
1
1
1
1
1
1
1
1
1.00005
1.41308
2.35153
2.49086
2.48441
2.48551
2.48741
2.48791
2.48735
2.48549
2.482
2.477
2.47062
2.46347
2.45616
2.44878
2.44139
2.43344
2.42466
2.41531
2.40452
2.39222
2.37841
2.36297
2.34594
2.32746
2.30807
1
1
1
1
1
1
1
1
1
1
1
1
1
1
1
1
1
1
1
1
1
1
1
1
1
1
1
1
1
1
1
1
1
1
1
1
1
1
1
1
1
1
1
1
1
1
1
1
1
1
1
1
1
1
1
1
1
1
1
1
1
1
1
1
1
1
1
1
1
1
1.03169
2.09971
2.4569
2.4645
2.4687
2.47322
2.47548
2.47543
2.47425
2.47116
2.46675
2.46113
2.45445
2.44722
2.43971
2.43184
2.42341
2.41446
2.40578
2.39629
2.38487
2.37139
2.35623
2.34001
2.32302
2.3054
1
1
1
1
1
1
1
1
1
1
1
1
1
1
1
1
1
1
1
1
1
1
1
1
1
1
1
1
1
1
1
1
1
1
1
1
1
1
1
1
1
1
1
1
1
1
1
1
1
1
1
1
1
1
1
1
1
1
1
1
1
1
1
1
1
1
1
1
1
1
1.00017
1.4564
2.34129
2.46841
2.46047
2.46023
2.46201
2.46288
2.46241
2.46051
2.45691
2.45186
2.4456
2.43857
2.43108
2.42316
2.41458
2.40548
2.39637
2.38701
2.37624
2.36336
2.34896
2.33405
2.31874
2.30284
1
1
1
1
1
1
1
1
1
1
1
1
1
1
1
1
1
1
1
1
1
1
1
1
1
1
1
1
1
1
1
1
1
1
1
1
1
1
1
1
1
1
1
1
1
1
1
1
1
1
1
1
1
1
1
1
1
1
1
1
1
1
1
1
1
1
1
1
1
1
1
1.03972
2.09262
2.43485
2.44312
2.44398
2.44672
2.44918
2.45011
2.44907
2.44631
2.44201
2.43636
2.42971
2.42239
2.41458
2.40617
2.39711
2.38771
2.37798
2.3671
2.35455
2.34099
2.32737
2.31377
2.29961
1
1
1
1
1
1
1
1
1
1
1
1
1
1
1
1
1
1
1
1
1
1
1
1
1
1
1
1
1
1
1
1
1
1
1
1
1
1
1
1
1
1
1
1
1
1
1
1
1
1
1
1
1
1
1
1
1
1
1
1
1
1
1
1
1
1
1
1
1
1
1
1.00027
1.43959
2.31478
2.44632
2.43756
2.4352
2.43606
2.4365
2.43638
2.43495
2.43186
2.42699
2.42058
2.41335
2.40578
2.39771
2.38883
2.3792
2.36898
2.35784
2.34556
2.33271
2.32015
2.30785
2.29497
1
1
1
1
1
1
1
1
1
1
1
1
1
1
1
1
1
1
1
1
1
1
1
1
1
1
1
1
1
1
1
1
1
1
1
1
1
1
1
1
1
1
1
1
1
1
1
1
1
1
1
1
1
1
1
1
1
1
1
1
1
1
1
1
1
1
1
1
1
1
1
1
1.03718
2.05193
2.40961
2.4218
2.42058
2.42098
2.42171
2.42238
2.42221
2.42056
2.41682
2.41104
2.40396
2.39641
2.38862
2.38015
2.37067
2.36033
2.34929
2.33747
2.32517
2.31299
2.30103
2.2887
1
1
1
1
1
1
1
1
1
1
1
1
1
1
1
1
1
1
1
1
1
1
1
1
1
1
1
1
1
1
1
1
1
1
1
1
1
1
1
1
1
1
1
1
1
1
1
1
1
1
1
1
1
1
1
1
1
1
1
1
1
1
1
1
1
1
1
1
1
1
1
1
1.00026
1.38937
2.27968
2.42302
2.4152
2.41094
2.4087
2.40785
2.40814
2.40773
2.40577
2.40117
2.3943
2.38663
2.37893
2.37085
2.36186
2.35188
2.34115
2.32976
2.31786
2.30579
2.29382
2.28171
1
1
1
1
1
1
1
1
1
1
1
1
1
1
1
1
1
1
1
1
1
1
1
1
1
1
1
1
1
1
1
1
1
1
1
1
1
1
1
1
1
1
1
1
1
1
1
1
1
1
1
1
1
1
1
1
1
1
1
1
1
1
1
1
1
1
1
1
1
1
1
1
1
1.02877
1.9702
2.37703
2.40059
2.3967
2.39468
2.39417
2.39455
2.39466
2.39364
2.39024
2.3844
2.37706
2.36919
2.36102
2.35233
2.34299
2.33306
2.3225
2.31124
2.29944
2.28742
2.27523
1
1
1
1
1
1
1
1
1
1
1
1
1
1
1
1
1
1
1
1
1
1
1
1
1
1
1
1
1
1
1
1
1
1
1
1
1
1
1
1
1
1
1
1
1
1
1
1
1
1
1
1
1
1
1
1
1
1
1
1
1
1
1
1
1
1
1
1
1
1
1
1
1
1.00018
1.30966
2.23058
2.39604
2.38992
2.38605
2.38273
2.38118
2.38049
2.37954
2.3775
2.3733
2.36698
2.35946
2.35149
2.34315
2.33438
2.32513
2.31529
2.30464
2.29316
2.28115
2.26892
1
1
1
1
1
1
1
1
1
1
1
1
1
1
1
1
1
1
1
1
1
1
1
1
1
1
1
1
1
1
1
1
1
1
1
1
1
1
1
1
1
1
1
1
1
1
1
1
1
1
1
1
1
1
1
1
1
1
1
1
1
1
1
1
1
1
1
1
1
1
1
1
1
1
1.01688
1.82973
2.33239
2.38127
2.37477
2.37212
2.37042
2.36893
2.3675
2.36552
2.36197
2.35671
2.35001
2.34229
2.33401
2.32548
2.31669
2.3075
2.29771
2.28714
2.27578
2.26379
1
1
1
1
1
1
1
1
1
1
1
1
1
1
1
1
1
1
1
1
1
1
1
1
1
1
1
1
1
1
1
1
1
1
1
1
1
1
1
1
1
1
1
1
1
1
1
1
1
1
1
1
1
1
1
1
1
1
1
1
1
1
1
1
1
1
1
1
1
1
1
1
1
1
1.00008
1.19805
2.15971
2.37281
2.36839
2.36272
2.35927
2.35602
2.35337
2.35139
2.34908
2.34544
2.34012
2.33326
2.3255
2.31735
2.30879
2.29978
2.29041
2.28061
2.27009
2.25865
1
1
1
1
1
1
1
1
1
1
1
1
1
1
1
1
1
1
1
1
1
1
1
1
1
1
1
1
1
1
1
1
1
1
1
1
1
1
1
1
1
1
1
1
1
1
1
1
1
1
1
1
1
1
1
1
1
1
1
1
1
1
1
1
1
1
1
1
1
1
1
1
1
1
1
1.00637
1.63205
2.27985
2.36208
2.35516
2.35086
2.34708
2.34369
2.34039
2.33731
2.33399
2.32976
2.32403
2.31694
2.30901
2.30063
2.29205
2.28332
2.2743
2.26458
2.25378
1
1
1
1
1
1
1
1
1
1
1
1
1
1
1
1
1
1
1
1
1
1
1
1
1
1
1
1
1
1
1
1
1
1
1
1
1
1
1
1
1
1
1
1
1
1
1
1
1
1
1
1
1
1
1
1
1
1
1
1
1
1
1
1
1
1
1
1
1
1
1
1
1
1
1
1.00002
1.09529
2.04302
2.33488
2.34683
2.34067
2.33507
2.33096
2.32769
2.32444
2.32163
2.31864
2.31438
2.30858
2.30139
2.29338
2.28519
2.27695
2.26824
2.25862
2.24797
1
1
1
1
1
1
1
1
1
1
1
1
1
1
1
1
1
1
1
1
1
1
1
1
1
1
1
1
1
1
1
1
1
1
1
1
1
1
1
1
1
1
1
1
1
1
1
1
1
1
1
1
1
1
1
1
1
1
1
1
1
1
1
1
1
1
1
1
1
1
1
1
1
1
1
1
1.00156
1.42983
2.20716
2.34294
2.3339
2.32786
2.32202
2.31772
2.31435
2.31068
2.3066
2.30284
2.29845
2.29254
2.28549
2.27807
2.27058
2.26253
2.25319
2.24246
1
1
1
1
1
1
1
1
1
1
1
1
1
1
1
1
1
1
1
1
1
1
1
1
1
1
1
1
1
1
1
1
1
1
1
1
1
1
1
1
1
1
1
1
1
1
1
1
1
1
1
1
1
1
1
1
1
1
1
1
1
1
1
1
1
1
1
1
1
1
1
1
1
1
1
1
1
1.03598
1.82717
2.2782
2.32307
2.31497
2.30933
2.30524
2.30287
2.30035
2.297
2.29317
2.2889
2.28375
2.27761
2.27076
2.26357
2.2558
2.24678
2.23636
1
1
1
1
1
1
1
1
1
1
1
1
1
1
1
1
1
1
1
1
1
1
1
1
1
1
1
1
1
1
1
1
1
1
1
1
1
1
1
1
1
1
1
1
1
1
1
1
1
1
1
1
1
1
1
1
1
1
1
1
1
1
1
1
1
1
1
1
1
1
1
1
1
1
1
1
1
1.00032
1.21103
2.08949
2.30947
2.30756
2.30311
2.29719
2.29198
2.28853
2.28536
2.28142
2.27705
2.27267
2.26793
2.26244
2.25603
2.24862
2.24006
2.23039
1
1
1
1
1
1
1
1
1
1
1
1
1
1
1
1
1
1
1
1
1
1
1
1
1
1
1
1
1
1
1
1
1
1
1
1
1
1
1
1
1
1
1
1
1
1
1
1
1
1
1
1
1
1
1
1
1
1
1
1
1
1
1
1
1
1
1
1
1
1
1
1
1
1
1
1
1
1
1.00726
1.54949
2.20233
2.30325
2.29687
2.29199
2.28611
2.28119
2.27696
2.27243
2.26735
2.26215
2.25733
2.25258
2.24692
2.24008
2.23227
2.22356
1
1
1
1
1
1
1
1
1
1
1
1
1
1
1
1
1
1
1
1
1
1
1
1
1
1
1
1
1
1
1
1
1
1
1
1
1
1
1
1
1
1
1
1
1
1
1
1
1
1
1
1
1
1
1
1
1
1
1
1
1
1
1
1
1
1
1
1
1
1
1
1
1
1
1
1
1
1
1.00003
1.06862
1.8791
2.25282
2.28853
2.28175
2.27601
2.27014
2.26548
2.26136