/*--------------------------------*- C++ -*----------------------------------*\
  =========                 |
  \\      /  F ield         | OpenFOAM: The Open Source CFD Toolbox
   \\    /   O peration     | Website:  https://openfoam.org
    \\  /    A nd           | Version:  7
     \\/     M anipulation  |
\*---------------------------------------------------------------------------*/
FoamFile
{
    version     2.0;
    format      ascii;
    class       volVectorField;
    location    "0.7";
    object      U;
}
// * * * * * * * * * * * * * * * * * * * * * * * * * * * * * * * * * * * * * //

dimensions      [0 1 -1 0 0 0 0];

internalField   nonuniform List<vector> 
64512
(
(3 2.08458e-17 0)
(3 3.96757e-16 0)
(3 6.95317e-17 0)
(3 1.92556e-16 0)
(3 2.68912e-16 0)
(3 3.71095e-16 0)
(3 6.23395e-16 0)
(3 1.32984e-16 0)
(3 3.7846e-16 0)
(3 3.89356e-16 0)
(3 8.374e-16 0)
(3 1.02229e-15 0)
(3 3.5916e-16 0)
(3 -3.50356e-17 0)
(3 -3.49347e-17 0)
(3 1.47982e-16 0)
(3 4.05063e-16 0)
(3 3.04058e-16 0)
(3 6.09445e-16 0)
(3 1.03284e-16 0)
(3 -5.06025e-17 0)
(3 -6.25437e-16 0)
(3 -7.01724e-16 0)
(3 -6.43238e-16 0)
(3 -5.29903e-16 0)
(3 -3.31084e-16 0)
(3 -2.66147e-16 0)
(3 7.67289e-18 0)
(3 2.37328e-16 0)
(3 -4.43928e-16 0)
(3 -8.2314e-16 0)
(3 -5.4989e-16 0)
(3 -4.92704e-16 0)
(3 -4.33336e-16 0)
(3 -4.68933e-16 0)
(3 -6.34579e-16 0)
(3 -2.42778e-16 0)
(3 1.27478e-15 0)
(3 1.54671e-15 0)
(3 1.23243e-15 0)
(3 7.37565e-16 0)
(3 4.29474e-16 0)
(3 5.7626e-16 0)
(3 1.23196e-16 0)
(3 -3.20295e-17 0)
(3 -5.94348e-16 0)
(3 -6.34512e-16 0)
(3 -4.92663e-16 0)
(3 -1.34586e-16 0)
(3 9.04532e-16 0)
(3 1.60683e-15 0)
(3 1.50695e-15 0)
(3 -1.45146e-16 0)
(3 -1.3209e-16 0)
(3 -9.35575e-17 0)
(3 9.92283e-16 0)
(3 9.06751e-17 0)
(2.53091 0.00282847 0)
(0.835491 0.00624026 0)
(0.650507 0.00822981 0)
(0.628317 0.0051258 0)
(0.609872 0.00537739 0)
(0.597805 0.00661843 0)
(0.588846 0.00864926 0)
(0.581156 0.00910478 0)
(0.57347 0.00802255 0)
(0.562025 0.00734049 0)
(0.542697 0.00793011 0)
(0.515869 0.00861532 0)
(0.489787 0.00870374 0)
(0.468762 0.00844338 0)
(0.453686 0.00825048 0)
(0.442278 0.00833837 0)
(0.430449 0.00843038 0)
(0.419065 0.00842173 0)
(0.403593 0.00838612 0)
(0.385591 0.00847546 0)
(0.364644 0.00853828 0)
(0.342537 0.00860917 0)
(0.321166 0.00864414 0)
(0.299672 0.00863988 0)
(0.275844 0.00860532 0)
(0.251513 0.00858456 0)
(0.227919 0.00859418 0)
(0.207964 0.00863932 0)
(0.19365 0.00879588 0)
(0.185141 0.00896263 0)
(0.180519 0.00912694 0)
(0.175058 0.00927666 0)
(0.165267 0.00957989 0)
(0.148332 0.0100979 0)
(0.124498 0.0107548 0)
(0.09639 0.0113981 0)
(0.0674732 0.0116773 0)
(0.0388388 0.0118031 0)
(0.0140567 0.0119514 0)
(3 -6.34788e-17 0)
(3 1.41743e-16 0)
(3 -2.3274e-16 0)
(3 -3.32574e-16 0)
(3 1.11574e-16 0)
(3 2.04217e-16 0)
(3 2.27803e-16 0)
(3 2.34096e-16 0)
(3 2.77161e-16 0)
(3 2.15138e-16 0)
(3 4.84788e-16 0)
(3 4.02364e-16 0)
(3 -4.37722e-16 0)
(3 -7.15189e-16 0)
(3 -5.58379e-17 0)
(3 1.902e-15 0)
(3 2.56804e-15 0)
(3 1.90386e-15 0)
(3 1.13302e-15 0)
(3 2.83237e-16 0)
(3 -4.22608e-16 0)
(3 -1.50558e-15 0)
(3 -1.90915e-15 0)
(3 -2.1732e-15 0)
(3 -2.17197e-15 0)
(3 -1.72204e-15 0)
(3 -1.4312e-15 0)
(3 -7.46449e-16 0)
(3 -2.91681e-16 0)
(3 -9.32637e-16 0)
(3 -1.24294e-15 0)
(3 -1.03733e-15 0)
(3 -5.76597e-16 0)
(3 1.68249e-16 0)
(3 3.14332e-17 0)
(3 -1.77764e-16 0)
(3 1.12528e-16 0)
(3 1.48892e-15 0)
(3 1.31655e-15 0)
(3 7.45331e-16 0)
(3 8.92297e-16 0)
(3 1.52076e-15 0)
(3 2.03439e-15 0)
(3 1.52987e-15 0)
(3 9.14746e-16 0)
(3 7.72988e-16 0)
(3 1.21529e-15 0)
(3 1.33936e-15 0)
(3 1.17774e-15 0)
(3 1.28665e-15 0)
(3 2.53678e-15 0)
(3 1.51148e-15 0)
(3 4.81483e-16 0)
(3 4.95561e-16 0)
(3 6.83417e-16 0)
(3 9.16722e-16 0)
(3 1.41498e-15 0)
(2.5402 0.0141741 0)
(0.834833 0.0272373 0)
(0.644482 0.026124 0)
(0.623619 0.0139097 0)
(0.604761 0.0137605 0)
(0.593443 0.0178558 0)
(0.588384 0.0232149 0)
(0.581507 0.0263054 0)
(0.573008 0.0247901 0)
(0.559783 0.0226525 0)
(0.539175 0.0235079 0)
(0.51229 0.025334 0)
(0.486674 0.0256343 0)
(0.466072 0.0251079 0)
(0.450979 0.0247548 0)
(0.439242 0.0250931 0)
(0.427209 0.0253854 0)
(0.415645 0.0252658 0)
(0.400149 0.0250621 0)
(0.38216 0.0252409 0)
(0.361156 0.0253715 0)
(0.338982 0.0255727 0)
(0.317482 0.0257336 0)
(0.29582 0.0257194 0)
(0.271889 0.0256338 0)
(0.24746 0.0255669 0)
(0.223811 0.0255567 0)
(0.203853 0.025631 0)
(0.18959 0.0260267 0)
(0.181162 0.0265146 0)
(0.176625 0.0269586 0)
(0.171329 0.0273847 0)
(0.161843 0.0282631 0)
(0.145439 0.0298069 0)
(0.122346 0.0318118 0)
(0.0950904 0.0338465 0)
(0.066947 0.0349745 0)
(0.0387815 0.0357043 0)
(0.0140721 0.0364793 0)
(3 -2.84912e-16 0)
(3 -3.63145e-16 0)
(3 -4.61311e-16 0)
(3 -6.90231e-16 0)
(3 -2.48221e-16 0)
(3 -4.11358e-16 0)
(3 3.2283e-17 0)
(3 -3.56964e-17 0)
(3 -5.77776e-16 0)
(3 -3.66695e-16 0)
(3 -2.61119e-16 0)
(3 -4.27185e-16 0)
(3 -3.66119e-16 0)
(3 -3.12528e-16 0)
(3 -2.17596e-16 0)
(3 6.96683e-16 0)
(3 2.12739e-15 0)
(3 2.2237e-15 0)
(3 1.0152e-15 0)
(3 2.1833e-16 0)
(3 -2.74989e-17 0)
(3 -3.14384e-16 0)
(3 -5.2763e-16 0)
(3 -6.21065e-16 0)
(3 -6.70644e-16 0)
(3 -1.1269e-15 0)
(3 -9.51389e-16 0)
(3 -7.68015e-16 0)
(3 -6.7343e-16 0)
(3 -5.13263e-16 0)
(3 -3.18788e-17 0)
(3 9.83329e-16 0)
(3 1.2385e-15 0)
(3 1.92846e-15 0)
(3 1.626e-15 0)
(3 1.00775e-15 0)
(3 -4.8109e-16 0)
(3 -1.11542e-15 0)
(3 -5.98623e-16 0)
(3 -8.34404e-16 0)
(3 9.0022e-17 0)
(3 2.11302e-15 0)
(3 2.18573e-15 0)
(3 2.11534e-15 0)
(3 1.72823e-15 0)
(3 1.76975e-15 0)
(3 2.45205e-15 0)
(3 3.32698e-15 0)
(3 2.94367e-15 0)
(3 2.40059e-15 0)
(3 2.16837e-15 0)
(3 1.94098e-15 0)
(3 2.34116e-15 0)
(3 3.55877e-15 0)
(3 3.2731e-15 0)
(3 2.77885e-15 0)
(3 2.03185e-15 0)
(2.56858 0.0258574 0)
(0.841496 0.0489546 0)
(0.644048 0.0433135 0)
(0.624104 0.0247877 0)
(0.603749 0.0228251 0)
(0.592491 0.0292096 0)
(0.589067 0.0381324 0)
(0.581971 0.044005 0)
(0.573102 0.0424596 0)
(0.558997 0.0391316 0)
(0.537293 0.0396902 0)
(0.510347 0.0420277 0)
(0.48515 0.042415 0)
(0.465039 0.0417538 0)
(0.449963 0.0413175 0)
(0.437786 0.0419021 0)
(0.42546 0.0424256 0)
(0.413568 0.0422766 0)
(0.397961 0.0419944 0)
(0.379968 0.0423185 0)
(0.358841 0.0425316 0)
(0.336513 0.0428459 0)
(0.314762 0.04316 0)
(0.292759 0.0431407 0)
(0.268611 0.0429949 0)
(0.243895 0.0428743 0)
(0.219978 0.0428228 0)
(0.199762 0.0429046 0)
(0.185214 0.043465 0)
(0.176458 0.0441772 0)
(0.171578 0.0447593 0)
(0.16602 0.0452878 0)
(0.156482 0.0465316 0)
(0.140423 0.0488867 0)
(0.118087 0.0520465 0)
(0.0919129 0.0553396 0)
(0.0649448 0.0573284 0)
(0.0378076 0.0587755 0)
(0.0137586 0.0603413 0)
(3 -1.51216e-16 0)
(3 -4.87111e-16 0)
(3 -4.21293e-16 0)
(3 -2.02457e-16 0)
(3 -9.02644e-17 0)
(3 -2.86275e-16 0)
(3 1.93425e-16 0)
(3 -6.07738e-16 0)
(3 -9.83682e-16 0)
(3 -8.81883e-16 0)
(3 -4.86521e-16 0)
(3 -4.99567e-16 0)
(3 -1.78634e-17 0)
(3 3.35536e-16 0)
(3 4.11629e-16 0)
(3 1.05964e-16 0)
(3 9.48227e-16 0)
(3 1.32297e-15 0)
(3 2.84257e-16 0)
(3 -6.11077e-16 0)
(3 -6.3774e-16 0)
(3 -1.31493e-15 0)
(3 -1.58537e-15 0)
(3 5.26781e-17 0)
(3 2.45857e-16 0)
(3 2.17089e-16 0)
(3 1.05533e-16 0)
(3 -4.39117e-16 0)
(3 -4.95035e-16 0)
(3 -3.44173e-16 0)
(3 1.60019e-15 0)
(3 2.27802e-15 0)
(3 1.98524e-15 0)
(3 1.3912e-15 0)
(3 1.26832e-15 0)
(3 -8.91338e-17 0)
(3 -1.75146e-15 0)
(3 -2.28906e-15 0)
(3 -1.22129e-15 0)
(3 -7.06629e-16 0)
(3 -2.24568e-16 0)
(3 1.84245e-16 0)
(3 2.20668e-16 0)
(3 2.64033e-16 0)
(3 2.21877e-16 0)
(3 1.07855e-15 0)
(3 2.07414e-15 0)
(3 3.02518e-15 0)
(3 2.35626e-15 0)
(3 2.77137e-15 0)
(3 3.78243e-15 0)
(3 4.22208e-15 0)
(3 4.18479e-15 0)
(3 4.59863e-15 0)
(3 4.84801e-15 0)
(3 5.10629e-15 0)
(3 1.85924e-15 0)
(2.60905 0.035362 0)
(0.850517 0.0709468 0)
(0.643573 0.0584188 0)
(0.627143 0.0354488 0)
(0.606796 0.0321037 0)
(0.596146 0.040747 0)
(0.592699 0.0538688 0)
(0.584361 0.0620838 0)
(0.574618 0.0603508 0)
(0.559645 0.0558039 0)
(0.537067 0.0557889 0)
(0.510433 0.058353 0)
(0.485911 0.0588758 0)
(0.466314 0.058259 0)
(0.451157 0.0578651 0)
(0.438428 0.0587388 0)
(0.425806 0.0595462 0)
(0.413614 0.0594369 0)
(0.397977 0.0591226 0)
(0.380116 0.0596082 0)
(0.358957 0.0599307 0)
(0.336525 0.0603791 0)
(0.314523 0.0609513 0)
(0.292128 0.0609987 0)
(0.267752 0.0608474 0)
(0.242734 0.0607352 0)
(0.218541 0.0607088 0)
(0.198019 0.0608709 0)
(0.183041 0.0616229 0)
(0.173672 0.0625501 0)
(0.168018 0.0631676 0)
(0.161667 0.0636538 0)
(0.151487 0.0649741 0)
(0.135211 0.0677356 0)
(0.113204 0.0716272 0)
(0.0878766 0.0758604 0)
(0.0620626 0.0785816 0)
(0.036167 0.0807141 0)
(0.0131784 0.0831491 0)
(3 1.30497e-16 0)
(3 -8.75351e-17 0)
(3 -2.76269e-17 0)
(3 -1.74765e-18 0)
(3 3.43656e-17 0)
(3 -2.49823e-17 0)
(3 -8.33569e-16 0)
(3 -7.55175e-16 0)
(3 -6.84997e-16 0)
(3 -5.09518e-16 0)
(3 -9.04112e-16 0)
(3 -7.92904e-16 0)
(3 -1.16528e-15 0)
(3 -5.11802e-18 0)
(3 3.94941e-16 0)
(3 7.63787e-16 0)
(3 2.312e-16 0)
(3 -3.53437e-16 0)
(3 -4.64894e-16 0)
(3 -2.64643e-16 0)
(3 -2.1307e-16 0)
(3 -1.68849e-16 0)
(3 4.69308e-16 0)
(3 5.80033e-16 0)
(3 1.26209e-15 0)
(3 1.42487e-15 0)
(3 5.16367e-16 0)
(3 3.19261e-17 0)
(3 1.07986e-16 0)
(3 2.32246e-16 0)
(3 1.06501e-16 0)
(3 -4.12522e-17 0)
(3 -1.77105e-16 0)
(3 -3.1479e-16 0)
(3 -2.20902e-16 0)
(3 6.82593e-17 0)
(3 -3.04634e-16 0)
(3 -9.35593e-17 0)
(3 -1.40371e-15 0)
(3 -9.5194e-16 0)
(3 -1.14587e-15 0)
(3 -1.95874e-15 0)
(3 -1.92002e-15 0)
(3 -1.48822e-15 0)
(3 -1.55244e-15 0)
(3 2.70424e-16 0)
(3 6.63843e-16 0)
(3 9.93922e-16 0)
(3 -1.24241e-16 0)
(3 6.09384e-16 0)
(3 2.63843e-15 0)
(3 3.16636e-15 0)
(3 2.89947e-15 0)
(3 2.65227e-15 0)
(3 2.55669e-15 0)
(3 2.63383e-15 0)
(3 1.97859e-15 0)
(2.66233 0.0445806 0)
(0.863464 0.0930981 0)
(0.644879 0.0702849 0)
(0.632017 0.0450074 0)
(0.611818 0.0424872 0)
(0.601722 0.0541993 0)
(0.59674 0.0721041 0)
(0.586264 0.0813436 0)
(0.575781 0.0783577 0)
(0.560091 0.0721246 0)
(0.53695 0.0712877 0)
(0.511086 0.0741049 0)
(0.487458 0.0750673 0)
(0.468303 0.0746854 0)
(0.45295 0.0743645 0)
(0.439598 0.0754876 0)
(0.426693 0.0765865 0)
(0.414283 0.076556 0)
(0.398758 0.0762391 0)
(0.381264 0.0768726 0)
(0.360324 0.0773166 0)
(0.338004 0.0778998 0)
(0.315933 0.0788282 0)
(0.293279 0.0790332 0)
(0.268844 0.0789614 0)
(0.243708 0.0789458 0)
(0.219443 0.0790384 0)
(0.198794 0.079399 0)
(0.183445 0.0803613 0)
(0.17337 0.0815862 0)
(0.166758 0.0822784 0)
(0.159411 0.0827513 0)
(0.148317 0.0841131 0)
(0.131441 0.0870629 0)
(0.109279 0.0912264 0)
(0.0842967 0.0958633 0)
(0.0592554 0.0988526 0)
(0.0344063 0.101359 0)
(0.0125185 0.104473 0)
(3 1.3561e-16 0)
(3 2.90389e-16 0)
(3 2.13746e-16 0)
(3 2.40699e-16 0)
(3 -9.89906e-17 0)
(3 -6.46136e-16 0)
(3 -6.86512e-16 0)
(3 -5.5953e-16 0)
(3 4.66402e-17 0)
(3 1.03615e-15 0)
(3 9.60711e-16 0)
(3 4.95801e-16 0)
(3 1.20985e-16 0)
(3 -5.49972e-16 0)
(3 -5.92768e-16 0)
(3 -3.36881e-16 0)
(3 -5.6059e-16 0)
(3 -1.54104e-15 0)
(3 -1.38496e-15 0)
(3 2.82147e-18 0)
(3 1.0554e-15 0)
(3 1.32056e-15 0)
(3 1.66522e-15 0)
(3 1.21562e-15 0)
(3 1.24913e-15 0)
(3 1.5285e-15 0)
(3 1.41357e-15 0)
(3 6.73881e-16 0)
(3 2.64622e-16 0)
(3 -4.90997e-16 0)
(3 -1.37801e-15 0)
(3 -1.68163e-15 0)
(3 -1.3736e-15 0)
(3 -6.79985e-16 0)
(3 2.15294e-17 0)
(3 2.60824e-16 0)
(3 8.6674e-16 0)
(3 1.09057e-15 0)
(3 2.29366e-16 0)
(3 -7.7631e-16 0)
(3 -1.89193e-15 0)
(3 -2.22471e-15 0)
(3 -1.67318e-15 0)
(3 -1.02367e-15 0)
(3 1.91516e-16 0)
(3 8.99279e-16 0)
(3 4.07971e-16 0)
(3 -4.46666e-16 0)
(3 -8.91985e-17 0)
(3 -3.55305e-17 0)
(3 4.07296e-17 0)
(3 6.95298e-16 0)
(3 1.0609e-15 0)
(3 1.37421e-15 0)
(3 1.54988e-15 0)
(3 2.05426e-15 0)
(3 1.73357e-15 0)
(2.72912 0.0521439 0)
(0.883422 0.113241 0)
(0.64895 0.0787915 0)
(0.638134 0.0534855 0)
(0.618301 0.0547756 0)
(0.608075 0.071577 0)
(0.600546 0.0932032 0)
(0.587596 0.101078 0)
(0.576609 0.0956979 0)
(0.560676 0.0875696 0)
(0.537411 0.0860878 0)
(0.512551 0.0895085 0)
(0.489607 0.0913054 0)
(0.470511 0.0912443 0)
(0.454721 0.0909257 0)
(0.440641 0.0921862 0)
(0.42745 0.0935143 0)
(0.414904 0.0935506 0)
(0.399615 0.0932379 0)
(0.382659 0.0939921 0)
(0.362093 0.0945948 0)
(0.339976 0.0953213 0)
(0.317894 0.0966806 0)
(0.294997 0.0971363 0)
(0.270573 0.0972381 0)
(0.245465 0.0974162 0)
(0.221368 0.0977337 0)
(0.20085 0.0984021 0)
(0.18533 0.0996425 0)
(0.17465 0.101126 0)
(0.167078 0.101951 0)
(0.158757 0.102439 0)
(0.146876 0.103856 0)
(0.129467 0.106963 0)
(0.107047 0.111178 0)
(0.0821103 0.115827 0)
(0.0574429 0.118581 0)
(0.0332287 0.121043 0)
(0.0120699 0.1245 0)
(3 -1.60873e-16 0)
(3 -1.17043e-16 0)
(3 1.03701e-16 0)
(3 4.35599e-16 0)
(3 -1.48687e-16 0)
(3 -5.21848e-16 0)
(3 -5.21554e-16 0)
(3 -5.98343e-16 0)
(3 -2.27645e-16 0)
(3 1.26954e-16 0)
(3 7.59959e-16 0)
(3 1.39063e-15 0)
(3 3.6859e-16 0)
(3 -1.27147e-15 0)
(3 -1.72252e-15 0)
(3 -1.86069e-15 0)
(3 -1.26625e-15 0)
(3 -9.28275e-16 0)
(3 -9.86118e-16 0)
(3 -1.22156e-16 0)
(3 8.56758e-16 0)
(3 8.48011e-16 0)
(3 1.10793e-15 0)
(3 1.00953e-15 0)
(3 8.5675e-16 0)
(3 7.14645e-16 0)
(3 3.9756e-17 0)
(3 -5.41678e-17 0)
(3 -8.59637e-17 0)
(3 4.85256e-16 0)
(3 6.13532e-16 0)
(3 -1.75819e-16 0)
(3 -6.62959e-16 0)
(3 -6.89578e-16 0)
(3 4.01677e-17 0)
(3 8.48026e-16 0)
(3 1.60643e-15 0)
(3 1.80285e-15 0)
(3 -1.66431e-16 0)
(3 -1.33402e-15 0)
(3 -2.51764e-15 0)
(3 -2.01756e-15 0)
(3 -1.61073e-15 0)
(3 -2.06594e-15 0)
(3 -1.96248e-15 0)
(3 -1.15978e-15 0)
(3 -1.08047e-16 0)
(3 5.35743e-16 0)
(3 1.26352e-15 0)
(3 -1.82038e-16 0)
(3 -1.28917e-15 0)
(3 -1.67381e-15 0)
(3 -1.37141e-15 0)
(3 -3.63098e-16 0)
(3 6.93947e-16 0)
(3 9.76711e-16 0)
(3 -8.89087e-17 0)
(2.8068 0.0553036 0)
(0.913025 0.126514 0)
(0.655359 0.0834052 0)
(0.644176 0.062922 0)
(0.626794 0.0709684 0)
(0.614634 0.094025 0)
(0.603708 0.115939 0)
(0.588566 0.120257 0)
(0.577255 0.111782 0)
(0.561619 0.101943 0)
(0.538765 0.100513 0)
(0.514941 0.104964 0)
(0.492387 0.107845 0)
(0.47309 0.108011 0)
(0.456824 0.107527 0)
(0.442042 0.108794 0)
(0.428548 0.110278 0)
(0.415819 0.110369 0)
(0.400747 0.110076 0)
(0.384317 0.110939 0)
(0.364135 0.111777 0)
(0.342178 0.112658 0)
(0.320046 0.114463 0)
(0.296869 0.115228 0)
(0.272491 0.115572 0)
(0.247553 0.116033 0)
(0.223873 0.116691 0)
(0.20372 0.117774 0)
(0.188217 0.119349 0)
(0.176999 0.121126 0)
(0.168523 0.122019 0)
(0.159235 0.122507 0)
(0.146609 0.123964 0)
(0.128826 0.127188 0)
(0.106295 0.131375 0)
(0.0813721 0.135878 0)
(0.0568652 0.138099 0)
(0.032795 0.140155 0)
(0.0119417 0.143907 0)
(3 7.29888e-17 0)
(3 -8.70667e-17 0)
(3 1.07561e-16 0)
(3 5.02908e-16 0)
(3 7.7656e-16 0)
(3 8.87584e-16 0)
(3 1.76414e-16 0)
(3 1.21567e-16 0)
(3 -1.49967e-16 0)
(3 -1.11485e-15 0)
(3 -1.18627e-15 0)
(3 -1.50765e-16 0)
(3 -1.75166e-18 0)
(3 -7.40416e-16 0)
(3 -1.42451e-15 0)
(3 -1.86252e-15 0)
(3 -1.48558e-15 0)
(3 -3.49353e-16 0)
(3 4.70073e-16 0)
(3 4.84991e-16 0)
(3 3.39486e-16 0)
(3 4.14073e-16 0)
(3 5.10232e-16 0)
(3 8.2515e-16 0)
(3 -2.74096e-16 0)
(3 -1.89049e-15 0)
(3 -2.0284e-15 0)
(3 -9.85926e-16 0)
(3 9.83413e-16 0)
(3 1.28036e-15 0)
(3 9.82342e-16 0)
(3 -1.22626e-16 0)
(3 -9.94747e-16 0)
(3 -6.2892e-16 0)
(3 2.1535e-16 0)
(3 2.22001e-15 0)
(3 2.11925e-15 0)
(3 1.38314e-15 0)
(3 -9.25428e-16 0)
(3 -2.06072e-15 0)
(3 -1.89787e-15 0)
(3 -2.18877e-15 0)
(3 -2.65999e-15 0)
(3 -2.93341e-15 0)
(3 -1.88524e-15 0)
(3 -1.29911e-15 0)
(3 -1.60404e-16 0)
(3 1.30038e-15 0)
(3 5.13456e-16 0)
(3 -4.84811e-16 0)
(3 -1.82196e-15 0)
(3 -1.66783e-15 0)
(3 -1.76945e-15 0)
(3 -1.35524e-15 0)
(3 -2.13531e-16 0)
(3 -3.30657e-16 0)
(3 -7.41496e-16 0)
(2.88471 0.0521964 0)
(0.952569 0.129069 0)
(0.664248 0.0815698 0)
(0.652921 0.0762306 0)
(0.634583 0.0935719 0)
(0.620169 0.120334 0)
(0.60507 0.138145 0)
(0.588211 0.137911 0)
(0.577737 0.12627 0)
(0.56303 0.115664 0)
(0.541151 0.11497 0)
(0.518198 0.120696 0)
(0.495638 0.124725 0)
(0.475878 0.124946 0)
(0.45907 0.124163 0)
(0.443558 0.125357 0)
(0.429745 0.126951 0)
(0.416834 0.127074 0)
(0.402085 0.126809 0)
(0.386285 0.127773 0)
(0.366592 0.128921 0)
(0.344795 0.12996 0)
(0.322536 0.132147 0)
(0.299005 0.133236 0)
(0.27462 0.133854 0)
(0.249915 0.134663 0)
(0.226833 0.13578 0)
(0.20715 0.137398 0)
(0.19181 0.139372 0)
(0.179994 0.141446 0)
(0.1707 0.142546 0)
(0.160582 0.143023 0)
(0.147271 0.144395 0)
(0.129133 0.147495 0)
(0.106485 0.151443 0)
(0.0814902 0.155727 0)
(0.0569586 0.157562 0)
(0.0327283 0.15939 0)
(0.0119645 0.163302 0)
(3 8.92659e-17 0)
(3 2.72746e-16 0)
(3 4.53249e-17 0)
(3 9.22342e-17 0)
(3 2.33487e-16 0)
(3 4.67031e-16 0)
(3 4.56232e-16 0)
(3 3.38893e-16 0)
(3 4.83033e-16 0)
(3 1.35669e-16 0)
(3 -2.66885e-16 0)
(3 -6.05713e-16 0)
(3 2.27603e-16 0)
(3 2.74086e-16 0)
(3 7.96976e-17 0)
(3 -4.6386e-16 0)
(3 -1.11726e-15 0)
(3 -5.12346e-16 0)
(3 5.04716e-16 0)
(3 2.67969e-16 0)
(3 -2.0392e-16 0)
(3 -4.02613e-16 0)
(3 -3.6795e-16 0)
(3 -3.01043e-16 0)
(3 -1.0172e-15 0)
(3 -9.97986e-16 0)
(3 -3.8125e-16 0)
(3 -2.12247e-16 0)
(3 -3.93029e-16 0)
(3 -1.3123e-15 0)
(3 -1.40092e-15 0)
(3 -1.34461e-15 0)
(3 -1.34835e-15 0)
(3 -9.13987e-16 0)
(3 -9.79019e-17 0)
(3 8.21285e-16 0)
(3 9.41808e-16 0)
(3 1.22857e-16 0)
(3 -8.36761e-16 0)
(3 -8.68134e-16 0)
(3 -6.35489e-16 0)
(3 -1.71885e-15 0)
(3 -3.19303e-15 0)
(3 -2.04949e-15 0)
(3 -3.37054e-16 0)
(3 4.11012e-16 0)
(3 1.50497e-15 0)
(3 8.02814e-16 0)
(3 -1.40183e-15 0)
(3 -1.30813e-15 0)
(3 -1.44485e-15 0)
(3 -1.97905e-15 0)
(3 -2.03742e-15 0)
(3 -1.52325e-15 0)
(3 -9.66676e-16 0)
(3 -9.13479e-16 0)
(3 -2.5412e-16 0)
(2.95338 0.0233434 0)
(1.00649 0.125948 0)
(0.67767 0.0850405 0)
(0.662203 0.0974139 0)
(0.639831 0.11994 0)
(0.622733 0.146123 0)
(0.604041 0.158138 0)
(0.587593 0.153227 0)
(0.578773 0.139546 0)
(0.565207 0.129165 0)
(0.544701 0.12975 0)
(0.522161 0.136878 0)
(0.499138 0.141981 0)
(0.478704 0.142042 0)
(0.461344 0.14085 0)
(0.445207 0.141899 0)
(0.431181 0.14353 0)
(0.41824 0.143639 0)
(0.403976 0.143406 0)
(0.38886 0.144488 0)
(0.369678 0.146053 0)
(0.347941 0.147301 0)
(0.325347 0.149797 0)
(0.301317 0.151209 0)
(0.276838 0.152096 0)
(0.25242 0.153274 0)
(0.230147 0.15494 0)
(0.210951 0.157192 0)
(0.195852 0.159612 0)
(0.183375 0.161983 0)
(0.173328 0.163304 0)
(0.162539 0.1639 0)
(0.148751 0.165283 0)
(0.130308 0.168315 0)
(0.107446 0.172012 0)
(0.0821701 0.176065 0)
(0.0573738 0.177433 0)
(0.0327846 0.178941 0)
(0.0120442 0.183027 0)
(3 -1.28922e-16 0)
(3 -2.18819e-18 0)
(3 -6.6903e-16 0)
(3 -1.561e-15 0)
(3 -1.50221e-15 0)
(3 -1.0827e-15 0)
(3 -7.18353e-16 0)
(3 -3.46163e-16 0)
(3 6.94867e-17 0)
(3 2.48245e-16 0)
(3 -3.0469e-16 0)
(3 -4.22615e-16 0)
(3 -1.4923e-16 0)
(3 -2.33112e-17 0)
(3 4.71681e-16 0)
(3 7.16422e-16 0)
(3 4.98579e-16 0)
(3 7.29434e-16 0)
(3 8.64057e-16 0)
(3 5.46029e-16 0)
(3 4.04119e-16 0)
(3 2.03833e-16 0)
(3 2.56479e-16 0)
(3 -8.59214e-16 0)
(3 -4.80586e-16 0)
(3 7.80213e-16 0)
(3 1.00471e-15 0)
(3 1.83182e-16 0)
(3 -1.27606e-15 0)
(3 -8.94489e-16 0)
(3 -2.30797e-17 0)
(3 -2.69376e-16 0)
(3 -2.6935e-16 0)
(3 -2.00707e-16 0)
(3 4.43807e-16 0)
(3 4.68284e-16 0)
(3 -3.98709e-17 0)
(3 -2.70833e-16 0)
(3 -1.11337e-15 0)
(3 -9.62309e-16 0)
(3 -4.01357e-16 0)
(3 -8.02379e-16 0)
(3 -9.22629e-16 0)
(3 3.34877e-17 0)
(3 -5.7271e-17 0)
(3 8.52951e-17 0)
(3 1.38109e-16 0)
(3 -4.07939e-16 0)
(3 -1.55211e-15 0)
(3 -1.59534e-15 0)
(3 -9.85552e-16 0)
(3 -5.17962e-16 0)
(3 -3.00543e-16 0)
(3 -3.86686e-16 0)
(3 -1.08493e-15 0)
(3 -8.92279e-16 0)
(3 -9.93931e-16 0)
(2.99953 0.00196387 0)
(1.08352 0.133729 0)
(0.685431 0.0992714 0)
(0.667102 0.120108 0)
(0.642639 0.144782 0)
(0.621811 0.169522 0)
(0.601275 0.175496 0)
(0.587508 0.166376 0)
(0.580822 0.15197 0)
(0.568383 0.142692 0)
(0.549327 0.144947 0)
(0.526768 0.153604 0)
(0.503004 0.159543 0)
(0.481835 0.159144 0)
(0.463902 0.157469 0)
(0.447187 0.158363 0)
(0.43296 0.160023 0)
(0.420055 0.160132 0)
(0.406343 0.159968 0)
(0.391894 0.161207 0)
(0.373238 0.163264 0)
(0.35151 0.164782 0)
(0.328419 0.167492 0)
(0.303833 0.169204 0)
(0.27924 0.170332 0)
(0.255237 0.171877 0)
(0.23387 0.174147 0)
(0.215234 0.177075 0)
(0.200202 0.179973 0)
(0.186959 0.182653 0)
(0.176093 0.184205 0)
(0.164682 0.184991 0)
(0.15055 0.186475 0)
(0.131967 0.189488 0)
(0.108979 0.192936 0)
(0.0833596 0.196767 0)
(0.0581459 0.197713 0)
(0.0330067 0.198956 0)
(0.0121872 0.203266 0)
(3 -2.54595e-16 0)
(3 1.93184e-16 0)
(3 1.62008e-16 0)
(3 7.85825e-17 0)
(3 -7.84578e-16 0)
(3 -7.04645e-16 0)
(3 -1.01035e-15 0)
(3 -9.4743e-16 0)
(3 -6.6137e-16 0)
(3 -4.25149e-16 0)
(3 -5.71695e-16 0)
(3 -3.84119e-16 0)
(3 -8.03237e-16 0)
(3 -3.10592e-16 0)
(3 7.5654e-16 0)
(3 1.56493e-15 0)
(3 2.12401e-15 0)
(3 1.66773e-15 0)
(3 8.08202e-16 0)
(3 4.17297e-16 0)
(3 2.56112e-16 0)
(3 3.85255e-16 0)
(3 1.44186e-16 0)
(3 -3.85492e-17 0)
(3 2.97328e-16 0)
(3 1.90909e-18 0)
(3 5.40586e-16 0)
(3 -3.09081e-17 0)
(3 -2.23307e-16 0)
(3 8.83483e-16 0)
(3 1.64913e-15 0)
(3 1.37286e-15 0)
(3 1.30935e-15 0)
(3 1.48323e-15 0)
(3 1.24254e-15 0)
(3 1.0991e-16 0)
(3 -1.16136e-15 0)
(3 -2.20942e-15 0)
(3 -2.10322e-15 0)
(3 -2.15175e-15 0)
(3 -1.74582e-15 0)
(3 -9.24192e-16 0)
(3 -4.38749e-16 0)
(3 -1.16486e-15 0)
(3 -1.98062e-15 0)
(3 -2.4655e-15 0)
(3 -3.39451e-15 0)
(3 -3.6024e-15 0)
(3 -2.79423e-15 0)
(3 -1.27619e-15 0)
(3 -9.30039e-16 0)
(3 -4.12504e-16 0)
(3 -1.11619e-16 0)
(3 -2.66933e-16 0)
(3 -5.59793e-16 0)
(3 -1.64592e-16 0)
(3 -1.77172e-16 0)
(3 4.34855e-06 0)
(1.17939 0.150171 0)
(0.696019 0.113972 0)
(0.669121 0.139966 0)
(0.642067 0.168679 0)
(0.618028 0.190572 0)
(0.598508 0.190225 0)
(0.589044 0.178061 0)
(0.584376 0.163686 0)
(0.572513 0.15625 0)
(0.554771 0.160576 0)
(0.531774 0.170983 0)
(0.506968 0.17737 0)
(0.485045 0.176146 0)
(0.466518 0.173948 0)
(0.449282 0.174728 0)
(0.434946 0.176478 0)
(0.422198 0.176658 0)
(0.409167 0.176607 0)
(0.395427 0.178006 0)
(0.377314 0.180553 0)
(0.355602 0.182369 0)
(0.331891 0.185202 0)
(0.306713 0.187229 0)
(0.281997 0.188634 0)
(0.258558 0.190562 0)
(0.238105 0.193452 0)
(0.220125 0.197033 0)
(0.204896 0.200388 0)
(0.190787 0.203454 0)
(0.179005 0.205273 0)
(0.167017 0.206253 0)
(0.152689 0.207903 0)
(0.134137 0.210979 0)
(0.111152 0.214268 0)
(0.0852143 0.217925 0)
(0.059458 0.218506 0)
(0.03358 0.219575 0)
(0.0124509 0.224168 0)
(3 -1.10471e-16 0)
(3 -2.10034e-16 0)
(3 1.89029e-16 0)
(3 5.42162e-16 0)
(3 7.30389e-16 0)
(3 -2.42464e-17 0)
(3 -7.2782e-16 0)
(3 -1.09136e-15 0)
(3 -1.28384e-15 0)
(3 -1.44874e-15 0)
(3 -9.95597e-16 0)
(3 -1.01278e-15 0)
(3 -1.66733e-15 0)
(3 -8.72114e-16 0)
(3 -4.7819e-16 0)
(3 -3.72743e-16 0)
(3 -1.60992e-16 0)
(3 -3.32582e-16 0)
(3 -2.59455e-16 0)
(3 -3.1202e-16 0)
(3 -1.13003e-15 0)
(3 -1.82215e-15 0)
(3 -1.67572e-15 0)
(3 -8.72862e-16 0)
(3 -2.10632e-16 0)
(3 -1.62977e-16 0)
(3 3.56887e-16 0)
(3 8.68177e-16 0)
(3 1.25122e-15 0)
(3 8.93018e-16 0)
(3 1.3232e-15 0)
(3 2.17848e-15 0)
(3 1.64162e-15 0)
(3 1.61228e-15 0)
(3 -6.25754e-17 0)
(3 -8.44758e-16 0)
(3 -1.30653e-15 0)
(3 -1.88949e-15 0)
(3 -1.31301e-15 0)
(3 -1.25005e-15 0)
(3 -1.2272e-15 0)
(3 -8.15228e-16 0)
(3 -4.82199e-16 0)
(3 -7.89687e-16 0)
(3 -2.40583e-15 0)
(3 -3.6846e-15 0)
(3 -4.65997e-15 0)
(3 -5.36449e-15 0)
(3 -4.71428e-15 0)
(3 -2.63398e-15 0)
(3 -2.51504e-15 0)
(3 -2.68892e-15 0)
(3 -2.96439e-15 0)
(3 -2.73308e-15 0)
(3 -1.61147e-15 0)
(3 8.74402e-16 0)
(3 7.43209e-16 0)
(3 5.33039e-10 0)
(1.29978 0.163866 0)
(0.708777 0.128501 0)
(0.668373 0.161179 0)
(0.64039 0.193034 0)
(0.613622 0.2089 0)
(0.597187 0.202965 0)
(0.592227 0.188663 0)
(0.588903 0.174857 0)
(0.577369 0.170022 0)
(0.560681 0.176883 0)
(0.536804 0.189264 0)
(0.510762 0.195419 0)
(0.488338 0.192883 0)
(0.469433 0.19009 0)
(0.451906 0.190826 0)
(0.437606 0.19281 0)
(0.424994 0.193242 0)
(0.412619 0.193416 0)
(0.39949 0.194972 0)
(0.38182 0.197948 0)
(0.360103 0.200062 0)
(0.3357 0.202952 0)
(0.30994 0.205299 0)
(0.285119 0.20709 0)
(0.262448 0.209478 0)
(0.242765 0.212998 0)
(0.225509 0.217153 0)
(0.209771 0.220884 0)
(0.19469 0.224326 0)
(0.181835 0.226466 0)
(0.169215 0.22771 0)
(0.154756 0.229617 0)
(0.136395 0.232861 0)
(0.113595 0.236075 0)
(0.0874228 0.23962 0)
(0.0610903 0.239907 0)
(0.0343992 0.240889 0)
(0.0127822 0.245794 0)
(3 2.13304e-17 0)
(3 -2.8626e-16 0)
(3 -7.61732e-16 0)
(3 -3.80874e-16 0)
(3 3.49225e-16 0)
(3 2.58725e-16 0)
(3 2.9764e-16 0)
(3 1.00347e-16 0)
(3 -5.28116e-16 0)
(3 -1.36727e-15 0)
(3 -2.28201e-15 0)
(3 -2.80635e-15 0)
(3 -2.19876e-15 0)
(3 -1.8069e-15 0)
(3 -2.20397e-15 0)
(3 -2.26477e-15 0)
(3 -2.33838e-15 0)
(3 -1.02754e-15 0)
(3 -1.13821e-15 0)
(3 -1.0711e-15 0)
(3 -1.38394e-15 0)
(3 -1.7854e-15 0)
(3 -1.64333e-15 0)
(3 -5.28995e-16 0)
(3 -5.66963e-16 0)
(3 1.00976e-15 0)
(3 1.27661e-15 0)
(3 1.1426e-15 0)
(3 1.03946e-15 0)
(3 1.76094e-16 0)
(3 1.24132e-15 0)
(3 1.39692e-15 0)
(3 1.18421e-15 0)
(3 5.13791e-16 0)
(3 -6.46976e-16 0)
(3 -1.98808e-15 0)
(3 -2.15533e-15 0)
(3 -2.16524e-15 0)
(3 -2.5781e-15 0)
(3 -6.00065e-16 0)
(3 1.79959e-16 0)
(3 5.20747e-16 0)
(3 3.97963e-16 0)
(3 1.4318e-16 0)
(3 -5.17851e-16 0)
(3 -2.27215e-15 0)
(3 -3.25039e-15 0)
(3 -3.44662e-15 0)
(3 -2.64605e-15 0)
(3 -2.06409e-15 0)
(3 -1.90563e-15 0)
(3 -2.51225e-15 0)
(3 -3.12593e-15 0)
(3 -2.23548e-15 0)
(3 -5.16198e-17 0)
(3 4.70039e-16 0)
(3 -4.85241e-16 0)
(3 1.09963e-14 0)
(1.44525 0.174331 0)
(0.722564 0.143976 0)
(0.666168 0.186402 0)
(0.634868 0.218137 0)
(0.608788 0.223205 0)
(0.599322 0.213598 0)
(0.597086 0.197964 0)
(0.594374 0.185616 0)
(0.58347 0.184081 0)
(0.56721 0.194172 0)
(0.541984 0.208528 0)
(0.514793 0.213318 0)
(0.492299 0.208999 0)
(0.473211 0.205663 0)
(0.455554 0.20656 0)
(0.441192 0.209036 0)
(0.428496 0.209976 0)
(0.416596 0.210532 0)
(0.403897 0.212227 0)
(0.386596 0.215481 0)
(0.364897 0.217859 0)
(0.339884 0.220755 0)
(0.313668 0.223397 0)
(0.28885 0.225745 0)
(0.266886 0.228748 0)
(0.248017 0.232897 0)
(0.231315 0.237507 0)
(0.214889 0.241496 0)
(0.198838 0.245242 0)
(0.184855 0.247743 0)
(0.171573 0.249353 0)
(0.15705 0.251621 0)
(0.139064 0.255084 0)
(0.116577 0.258396 0)
(0.0902379 0.261885 0)
(0.0632334 0.261987 0)
(0.0355942 0.262946 0)
(0.0132347 0.26816 0)
(3 -4.92161e-17 0)
(3 7.18391e-17 0)
(3 5.56188e-17 0)
(3 1.86932e-17 0)
(3 8.21055e-17 0)
(3 2.62087e-16 0)
(3 1.01515e-16 0)
(3 -2.17813e-16 0)
(3 -9.18213e-16 0)
(3 -1.43009e-15 0)
(3 -1.58027e-15 0)
(3 -1.45632e-15 0)
(3 -1.15093e-15 0)
(3 -1.10391e-15 0)
(3 -1.35154e-15 0)
(3 -1.8902e-15 0)
(3 -2.34284e-15 0)
(3 -8.5972e-16 0)
(3 -3.47212e-16 0)
(3 -4.67845e-16 0)
(3 -6.56428e-16 0)
(3 -8.4333e-16 0)
(3 -1.11225e-15 0)
(3 -1.00308e-15 0)
(3 -1.01903e-16 0)
(3 1.57768e-15 0)
(3 2.12661e-15 0)
(3 2.06223e-15 0)
(3 2.19636e-15 0)
(3 2.12467e-16 0)
(3 -9.79335e-16 0)
(3 -7.63385e-16 0)
(3 3.90978e-16 0)
(3 7.59418e-16 0)
(3 -4.10735e-16 0)
(3 -1.9773e-15 0)
(3 -2.15958e-15 0)
(3 -1.37041e-15 0)
(3 -1.09383e-15 0)
(3 -6.13936e-16 0)
(3 -5.12538e-16 0)
(3 2.50788e-16 0)
(3 -2.9155e-16 0)
(3 -1.0447e-15 0)
(3 -1.828e-15 0)
(3 -2.04708e-15 0)
(3 -2.25858e-15 0)
(3 -1.53673e-15 0)
(3 -1.10507e-15 0)
(3 -9.25572e-16 0)
(3 4.54349e-17 0)
(3 3.0988e-16 0)
(3 5.42191e-16 0)
(3 1.27565e-15 0)
(3 1.12272e-15 0)
(3 8.23589e-16 0)
(3 4.65349e-16 0)
(3 4.20555e-15 0)
(1.61161 0.181407 0)
(0.73521 0.165613 0)
(0.661114 0.21709 0)
(0.628505 0.240083 0)
(0.608949 0.234609 0)
(0.606219 0.221665 0)
(0.604595 0.20559 0)
(0.601033 0.195968 0)
(0.591136 0.198649 0)
(0.573841 0.213127 0)
(0.546752 0.228529 0)
(0.519099 0.230452 0)
(0.496914 0.224294 0)
(0.477584 0.2208 0)
(0.459773 0.222266 0)
(0.445131 0.225504 0)
(0.432181 0.227061 0)
(0.420607 0.228031 0)
(0.408168 0.229814 0)
(0.391227 0.23317 0)
(0.369607 0.235762 0)
(0.344221 0.238627 0)
(0.317794 0.241587 0)
(0.293281 0.244647 0)
(0.271914 0.248426 0)
(0.253851 0.253204 0)
(0.237391 0.258144 0)
(0.220182 0.262276 0)
(0.203156 0.266249 0)
(0.188007 0.269132 0)
(0.173987 0.271214 0)
(0.159358 0.273975 0)
(0.141725 0.277769 0)
(0.119607 0.281304 0)
(0.093194 0.284823 0)
(0.0655087 0.28484 0)
(0.0369177 0.28581 0)
(0.0137321 0.291299 0)
(3 1.87796e-16 0)
(3 -1.66896e-16 0)
(3 2.85763e-16 0)
(3 1.67901e-16 0)
(3 -1.21623e-16 0)
(3 -3.44739e-16 0)
(3 -3.1686e-16 0)
(3 -6.14653e-16 0)
(3 -2.70562e-16 0)
(3 -4.92969e-16 0)
(3 -8.04164e-16 0)
(3 -5.54998e-16 0)
(3 -5.90961e-16 0)
(3 -8.96939e-16 0)
(3 -7.51086e-16 0)
(3 -9.51087e-16 0)
(3 -6.07918e-16 0)
(3 -6.95051e-16 0)
(3 1.42165e-16 0)
(3 3.99905e-16 0)
(3 3.43161e-16 0)
(3 -1.16632e-15 0)
(3 -1.73189e-15 0)
(3 -1.94984e-15 0)
(3 -8.12877e-16 0)
(3 5.43732e-16 0)
(3 1.20563e-15 0)
(3 1.98281e-15 0)
(3 2.16774e-15 0)
(3 8.86961e-16 0)
(3 -8.1373e-16 0)
(3 -4.12565e-16 0)
(3 2.51041e-16 0)
(3 -4.27507e-16 0)
(3 -4.9553e-16 0)
(3 -9.12598e-16 0)
(3 -2.62752e-16 0)
(3 1.48598e-15 0)
(3 1.82359e-15 0)
(3 1.07493e-15 0)
(3 5.69653e-16 0)
(3 5.71651e-17 0)
(3 -1.33618e-15 0)
(3 -1.78777e-15 0)
(3 -2.3399e-15 0)
(3 -2.17881e-15 0)
(3 -1.82213e-15 0)
(3 1.90087e-19 0)
(3 -1.59433e-16 0)
(3 -3.99243e-16 0)
(3 4.00349e-16 0)
(3 1.94084e-15 0)
(3 2.75493e-15 0)
(3 2.19397e-15 0)
(3 1.11925e-15 0)
(3 6.45689e-16 0)
(3 1.28564e-15 0)
(3 -6.57246e-15 0)
(1.79406 0.188222 0)
(0.750498 0.195307 0)
(0.657275 0.248149 0)
(0.629015 0.255353 0)
(0.615751 0.243623 0)
(0.615962 0.226411 0)
(0.615318 0.212417 0)
(0.609298 0.20676 0)
(0.59923 0.215161 0)
(0.579379 0.234348 0)
(0.550911 0.248196 0)
(0.524037 0.246128 0)
(0.502 0.238858 0)
(0.482217 0.23582 0)
(0.464256 0.238315 0)
(0.449311 0.242475 0)
(0.436147 0.244499 0)
(0.424917 0.245728 0)
(0.412582 0.247546 0)
(0.395955 0.250885 0)
(0.374426 0.253691 0)
(0.348887 0.256547 0)
(0.322553 0.259926 0)
(0.298584 0.263807 0)
(0.277897 0.268454 0)
(0.260272 0.273873 0)
(0.243652 0.279091 0)
(0.225606 0.283311 0)
(0.207666 0.287471 0)
(0.191427 0.290726 0)
(0.176702 0.293333 0)
(0.161959 0.296696 0)
(0.144659 0.300939 0)
(0.122926 0.304784 0)
(0.0964671 0.308437 0)
(0.0680722 0.308469 0)
(0.0384785 0.3095 0)
(0.0143308 0.315234 0)
(3 1.10606e-16 0)
(3 -9.83641e-17 0)
(3 -6.6252e-17 0)
(3 5.52183e-16 0)
(3 -1.51768e-16 0)
(3 3.69253e-16 0)
(3 7.38764e-16 0)
(3 1.04864e-15 0)
(3 1.02776e-15 0)
(3 7.7855e-16 0)
(3 5.7082e-16 0)
(3 5.9772e-16 0)
(3 5.95761e-16 0)
(3 5.03521e-17 0)
(3 -2.61491e-16 0)
(3 -3.01533e-17 0)
(3 4.30064e-16 0)
(3 5.26427e-17 0)
(3 1.49792e-16 0)
(3 -5.48748e-17 0)
(3 1.75385e-16 0)
(3 2.27107e-16 0)
(3 -1.2366e-16 0)
(3 -2.33899e-16 0)
(3 -2.2056e-16 0)
(3 -1.60331e-17 0)
(3 7.84333e-17 0)