/*--------------------------------*- C++ -*----------------------------------*\
  =========                 |
  \\      /  F ield         | OpenFOAM: The Open Source CFD Toolbox
   \\    /   O peration     | Website:  https://openfoam.org
    \\  /    A nd           | Version:  7
     \\/     M anipulation  |
\*---------------------------------------------------------------------------*/
FoamFile
{
    version     2.0;
    format      ascii;
    class       volScalarField;
    location    "1.9";
    object      rho;
}
// * * * * * * * * * * * * * * * * * * * * * * * * * * * * * * * * * * * * * //

dimensions      [1 -3 0 0 0 0 0];

internalField   nonuniform List<scalar> 
4032
(
1.40001
1.40001
1.40001
1.40001
1.40001
1.40001
1.40001
1.40001
1.40001
1.40001
1.40001
1.40001
3.30215
5.38096
5.50415
5.56935
5.6397
5.69457
5.7368
5.77194
5.80491
5.83223
5.85162
5.86702
1.40001
1.40001
1.40001
1.40001
1.40001
1.40001
1.40001
1.40001
1.40001
1.40001
1.40001
1.40001
3.22856
5.34488
5.49406
5.56124
5.63177
5.68532
5.72541
5.75802
5.78819
5.81254
5.82894
5.84282
1.40001
1.40001
1.40001
1.40001
1.40001
1.40001
1.40001
1.40001
1.40001
1.40001
1.40001
1.40001
3.07873
5.30066
5.47785
5.54591
5.61723
5.66977
5.70776
5.7374
5.76401
5.78476
5.79709
5.8097
1.40001
1.40001
1.40001
1.40001
1.40001
1.40001
1.40001
1.40001
1.40001
1.40001
1.40001
1.40001
2.86266
5.23404
5.45684
5.52306
5.5938
5.64457
5.68042
5.70736
5.73015
5.74573
5.75019
5.75621
1.40001
1.40001
1.40001
1.40001
1.40001
1.40001
1.40001
1.40001
1.40001
1.40001
1.40001
1.40001
2.58856
5.12661
5.43817
5.49929
5.56716
5.61338
5.64288
5.66121
5.67331
5.6821
5.68087
5.69019
1.40001
1.40001
1.40001
1.40001
1.40001
1.40001
1.40001
1.40001
1.40001
1.40001
1.40001
1.40001
2.26683
4.96559
5.44675
5.48809
5.54149
5.57685
5.59762
5.60794
5.61349
5.61936
5.61118
5.59034
1.40001
1.40001
1.40001
1.40001
1.40001
1.40001
1.40001
1.40001
1.40001
1.40001
1.40001
1.40001
1.9089
4.7355
5.44063
5.45146
5.49816
5.53145
5.54608
5.54161
5.52568
5.49459
5.45218
5.42774
1.40001
1.40001
1.40001
1.40001
1.40001
1.40001
1.40001
1.40001
1.40001
1.40001
1.40001
1.40001
1.54
4.4017
5.46155
5.43864
5.46003
5.46897
5.46778
5.44512
5.41008
5.35916
5.27846
5.23346
1.40001
1.40001
1.40001
1.40001
1.40001
1.40001
1.40001
1.40001
1.40001
1.40001
1.40001
1.40001
1.4052
3.82628
5.26333
5.30732
5.34859
5.36781
5.36371
5.33169
5.2686
5.14701
4.82147
3.96235
1.40001
1.40001
1.40001
1.40001
1.40001
1.40001
1.40001
1.40001
1.40001
1.40001
1.40001
1.40001
1.4
3.13315
5.09987
5.26697
5.28843
5.29753
5.27651
5.22664
5.12223
4.91873
4.56121
3.67175
1.40001
1.40001
1.40001
1.40001
1.40001
1.40001
1.40001
1.40001
1.40001
1.40001
1.40001
1.40001
1.4
2.38467
4.86818
5.22786
5.22744
5.22455
5.18551
5.11006
4.97566
4.72734
4.36036
3.54358
1.40001
1.40001
1.40001
1.40001
1.40001
1.40001
1.40001
1.40001
1.40001
1.40001
1.40001
1.40001
1.4
1.65963
4.54245
5.2911
5.20189
5.14648
5.08382
4.98943
4.8379
4.59452
4.20091
3.55475
1.40001
1.40001
1.40001
1.40001
1.40001
1.40001
1.40001
1.40001
1.40001
1.40001
1.40001
1.40001
1.40001
1.41216
3.75408
5.07762
5.07186
5.04028
4.97997
4.87819
4.71873
4.48386
4.09841
3.58163
1.40001
1.40001
1.40001
1.40001
1.40001
1.40001
1.40001
1.40001
1.40001
1.40001
1.40001
1.40001
1.40001
1.39992
2.651
4.86473
5.05915
5.02515
4.94545
4.82156
4.64465
4.40182
4.04477
3.62956
1.40001
1.40001
1.40001
1.40001
1.40001
1.40001
1.40001
1.40001
1.40001
1.40001
1.40001
1.40001
1.40001
1.39999
1.66945
4.46191
5.1043
5.01328
4.90529
4.76026
4.57645
4.33294
4.01841
3.67122
1.40001
1.40001
1.40001
1.40001
1.40001
1.40001
1.40001
1.40001
1.40001
1.40001
1.40001
1.40001
1.40001
1.4
1.41018
3.45057
4.96503
4.94064
4.84914
4.70776
4.52291
4.29381
4.0197
3.71801
1.40001
1.40001
1.40001
1.40001
1.40001
1.40001
1.40001
1.40001
1.40001
1.40001
1.40001
1.40001
1.40001
1.4
1.39994
2.14171
4.7636
4.96628
4.83969
4.68704
4.49849
4.27634
4.02355
3.75456
1.40001
1.40001
1.40001
1.40001
1.40001
1.40001
1.40001
1.40001
1.40001
1.40001
1.40001
1.40001
1.40001
1.40001
1.39999
1.48304
3.88699
4.9161
4.79635
4.65468
4.47624
4.26526
4.03046
3.78744
1.40001
1.40001
1.40001
1.40001
1.40001
1.40001
1.40001
1.40001
1.40001
1.40001
1.40001
1.40001
1.40001
1.40001
1.4
1.4006
2.47737
4.7018
4.79324
4.6567
4.48236
4.27625
4.05666
3.83139
1.40001
1.40001
1.40001
1.40001
1.40001
1.40001
1.40001
1.40001
1.40001
1.40001
1.40001
1.40001
1.40001
1.40001
1.4
1.4
1.56783
3.91826
4.79613
4.6476
4.48453
4.29228
4.08958
3.87478
1.40001
1.40001
1.40001
1.40001
1.40001
1.40001
1.40001
1.40001
1.40001
1.40001
1.40001
1.40001
1.40001
1.40001
1.40001
1.4
1.40305
2.45193
4.54864
4.65024
4.4965
4.32075
4.12955
3.92361
1.40001
1.40001
1.40001
1.40001
1.40001
1.40001
1.40001
1.40001
1.40001
1.40001
1.40001
1.40001
1.40001
1.40001
1.40001
1.40001
1.40001
1.55727
3.71105
4.67803
4.5193
4.34224
4.15469
3.96349
1.40001
1.40001
1.40001
1.40001
1.40001
1.40001
1.40001
1.40001
1.40001
1.40001
1.40001
1.40001
1.40001
1.40001
1.40001
1.40001
1.40001
1.4029
2.23151
4.31643
4.53417
4.36306
4.19024
4.01363
1.40001
1.40001
1.40001
1.40001
1.40001
1.40001
1.40001
1.40001
1.40001
1.40001
1.40001
1.40001
1.40001
1.40001
1.40001
1.40001
1.40001
1.40001
1.49202
3.21185
4.5059
4.41955
4.25312
4.07926
1.40001
1.40001
1.40001
1.40001
1.40001
1.40001
1.40001
1.40001
1.40001
1.40001
1.40001
1.40001
1.40001
1.40001
1.40001
1.40001
1.40001
1.40001
1.40136
1.88299
3.91419
4.48349
4.31912
4.14286
1.40001
1.40001
1.40001
1.40001
1.40001
1.40001
1.40001
1.40001
1.40001
1.40001
1.40001
1.40001
1.40001
1.40001
1.40001
1.40001
1.40001
1.40001
1.40001
1.42953
2.52766
4.2107
4.36399
4.20004
1.40001
1.40001
1.40001
1.40001
1.40001
1.40001
1.40001
1.40001
1.40001
1.40001
1.40001
1.40001
1.40001
1.40001
1.40001
1.40001
1.40001
1.40001
1.40001
1.40032
1.56991
3.206
4.30297
4.2649
1.40001
1.40001
1.40001
1.40001
1.40001
1.40001
1.40001
1.40001
1.40001
1.40001
1.40001
1.40001
1.40001
1.40001
1.40001
1.40001
1.40001
1.40001
1.40001
1.40001
1.40452
1.88805
3.67842
4.28741
1.40001
1.40001
1.40001
1.40001
1.40001
1.40001
1.40001
1.40001
1.40001
1.40001
1.40001
1.40001
1.40001
1.40001
1.40001
1.40001
1.40001
1.40001
1.40001
1.40001
1.40003
1.43109
2.29839
3.94105
1.40001
1.40001
1.40001
1.40001
1.40001
1.40001
1.40001
1.40001
1.40001
1.40001
1.40001
1.40001
1.40001
1.40001
1.40001
1.40001
1.40001
1.40001
1.40001
1.40001
1.40001
1.4004
1.50511
2.71544
1.40001
1.40001
1.40001
1.40001
1.40001
1.40001
1.40001
1.40001
1.40001
1.40001
1.40001
1.40001
1.40001
1.40001
1.40001
1.40001
1.40001
1.40001
1.40001
1.40001
1.40001
1.40001
1.40231
1.63738
1.40001
1.40001
1.40001
1.40001
1.40001
1.40001
1.40001
1.40001
1.40001
1.40001
1.40001
1.40001
1.40001
1.40001
1.40001
1.40001
1.40001
1.40001
1.40001
1.40001
1.40001
1.40001
1.40002
1.40882
1.40001
1.40001
1.40001
1.40001
1.40001
1.40001
1.40001
1.40001
1.40001
1.40001
1.40001
1.40001
1.40001
1.40001
1.40001
1.40001
1.40001
1.40001
1.40001
1.40001
1.40001
1.40001
1.40001
1.40008
1.40001
1.40001
1.40001
1.40001
1.40001
1.40001
1.40001
1.40001
1.40001
1.40001
1.40001
1.40001
1.40001
1.40001
1.40001
1.40001
1.40001
1.40001
1.40001
1.40001
1.40001
1.40001
1.40001
1.40001
1.40001
1.40001
1.40001
1.40001
1.40001
1.40001
1.40001
1.40001
1.40001
1.40001
1.40001
1.40001
1.40001
1.40001
1.40001
1.40001
1.40001
1.40001
1.40001
1.40001
1.40001
1.40001
1.40001
1.40001
1.40001
1.40001
1.40001
1.40001
1.40001
1.40001
1.40001
1.40001
1.40001
1.40001
1.40001
1.40001
1.40001
1.40001
1.40001
1.40001
1.40001
1.40001
1.40001
1.40001
1.40001
1.40001
1.40001
1.40001
1.40001
1.40001
1.40001
1.40001
1.40001
1.40001
1.40001
1.40001
1.40001
1.40001
1.40001
1.40001
1.40001
1.40001
1.40001
1.40001
1.40001
1.40001
1.40001
1.40001
1.40001
1.40001
1.40001
1.40001
1.40001
1.40001
1.40001
1.40001
1.40001
1.40001
1.40001
1.40001
1.40001
1.40001
1.40001
1.40001
1.40001
1.40001
1.40001
1.40001
1.40001
1.40001
1.40001
1.40001
1.40001
1.40001
1.40001
1.40001
1.40001
1.40001
1.40001
1.40001
1.40001
1.40001
1.40001
1.40001
1.40001
1.40001
1.40001
1.40001
1.40001
1.40001
1.40001
1.40001
1.40001
1.40001
1.40001
1.40001
1.40001
1.40001
1.40001
1.40001
1.40001
1.40001
1.40001
1.40001
1.40001
1.40001
1.40001
1.40001
1.40001
1.40001
1.40001
1.40001
1.40001
1.40001
1.40001
1.40001
1.40001
1.40001
1.40001
1.40001
1.40001
1.40001
1.40001
1.40001
1.32245
0.497204
0.223044
0.22018
0.276341
0.334932
0.380785
0.488993
0.603774
0.673801
0.723064
0.776854
0.849022
0.938468
0.978622
0.984155
0.990459
0.994334
1.00032
1.01885
1.02653
1.02082
1.01465
1.01405
1.0181
1.02272
1.03414
1.04512
1.04705
1.0466
1.03943
1.03494
1.03395
1.03604
1.04652
1.0554
1.05266
1.04259
1.02608
1.00759
1.00348
1.01426
1.1334
1.4995
2.12499
2.74599
3.17692
3.28018
3.21451
3.06897
2.93989
2.89317
2.85778
2.84043
2.82205
2.78449
2.73769
2.68291
2.62587
2.57696
2.53794
2.5065
2.48066
2.45648
2.42685
2.39525
2.35696
2.30645
2.25089
2.21004
2.18382
2.16166
2.1452
2.12994
2.10928
2.08577
2.05263
1.99454
1.92944
1.8925
1.87207
1.85575
1.84351
1.83975
1.84071
1.83406
1.82215
1.80362
1.76115
1.69548
1.65549
1.63896
1.62724
1.6172
1.61847
1.61376
1.99347
1.25698
0.836447
0.640508
0.630395
0.608705
0.569179
0.553862
0.566309
0.593505
0.631512
0.682372
0.752023
0.827537
0.900886
0.928795
0.946335
0.966588
0.989056
1.02331
1.04429
1.0456
1.04355
1.04101
1.03985
1.04104
1.0525
1.06416
1.06595
1.06562
1.06082
1.05651
1.05474
1.05377
1.05722
1.06176
1.0594
1.05051
1.03889
1.02709
1.04305
1.15508
1.47195
1.75956
1.95471
2.2819
2.63599
2.87236
3.01513
3.02518
2.98353
2.95346
2.92007
2.88215
2.84853
2.81137
2.76688
2.72162
2.67379
2.62008
2.56553
2.52196
2.49133
2.4652
2.44065
2.41036
2.37463
2.33263
2.28476
2.234
2.19425
2.16938
2.148
2.12624
2.10315
2.07982
2.05296
2.01599
1.97364
1.93043
1.89374
1.87036
1.85605
1.84793
1.84062
1.82786
1.81274
1.79354
1.76446
1.72223
1.67879
1.65087
1.63721
1.62761
1.62456
1.60822
2.45366
1.84626
1.44293
1.08299
0.891512
0.839467
0.78564
0.685852
0.667419
0.669414
0.688122
0.720348
0.764209
0.797794
0.854517
0.899849
0.928724
0.962903
1.01013
1.05494
1.09874
1.11259
1.10844
1.10923
1.10707
1.10515
1.1097
1.11104
1.10841
1.10324
1.09833
1.09754
1.0977
1.09898
1.1005
1.09845
1.09239
1.08129
1.07609
1.10847
1.25188
1.57354
1.88948
1.9852
1.99002
2.02459
2.17817
2.44757
2.76477
3.04865
3.10106
3.1009
3.03895
2.97594
2.91345
2.8587
2.80983
2.77262
2.74173
2.70695
2.65645
2.59159
2.53828
2.50369
2.47093
2.43607
2.40174
2.36929
2.33732
2.29988
2.25209
2.20548
2.17211
2.14407
2.11517
2.08347
2.05285
2.03287
2.01307
1.99075
1.95978
1.9212
1.88838
1.86733
1.85028
1.83269
1.81187
1.78679
1.76138
1.74219
1.72239
1.69522
1.66584
1.64637
1.63422
1.61112
2.80599
2.24632
1.87426
1.5761
1.27724
1.09767
1.03755
0.963067
0.895111
0.851102
0.822321
0.782924
0.756075
0.758758
0.780444
0.817706
0.853422
0.898035
0.961178
1.01663
1.06283
1.09476
1.11041
1.12773
1.15349
1.16189
1.16807
1.16792
1.16346
1.15301
1.14417
1.13861
1.13783
1.13921
1.1378
1.13351
1.12987
1.134
1.17927
1.38976
1.68949
2.00712
2.0988
2.07718
2.05362
2.04258
2.02612
2.06624
2.2379
2.60224
2.89521
3.03014
3.04418
3.03282
2.99598
2.94177
2.89697
2.85869
2.82195
2.7835
2.73698
2.66924
2.59262
2.5412
2.50862
2.47879
2.44896
2.4207
2.39279
2.36324
2.3247
2.26923
2.21418
2.17479
2.14002
2.10867
2.08813
2.07307
2.0602
2.0427
2.02189
1.99201
1.94728
1.90382
1.87495
1.84978
1.82256
1.79723
1.78183
1.77033
1.75852
1.74308
1.71662
1.68088
1.65605
1.62386
3.02516
2.57047
2.18363
1.89487
1.66426
1.42555
1.24311
1.17889
1.10683
1.01782
0.950847
0.899313
0.832987
0.801083
0.803765
0.822345
0.827817
0.836204
0.859027
0.89112
0.933599
1.00038
1.06267
1.09688
1.13625
1.15247
1.16189
1.17183
1.17286
1.17116
1.17741
1.18112
1.18219
1.18066
1.17561
1.1648
1.17105
1.22713
1.49464
1.85268
2.05182
2.15983
2.14791
2.12239
2.08988
2.05863
2.03422
2.01036
2.00808
2.08108
2.30724
2.62207
2.84799
2.96163
2.96107
2.94235
2.93397
2.93428
2.89929
2.85277
2.79656
2.72472
2.63755
2.56468
2.52979
2.50605
2.4858
2.46849
2.44451
2.41747
2.38501
2.33317
2.25759
2.19755
2.16686
2.147
2.13161
2.12227
2.11423
2.0985
2.08021
2.05666
2.0142
1.94854
1.89496
1.86359
1.84148
1.82708
1.81647
1.80816
1.79684
1.7825
1.76101
1.72174
1.67959
1.63641
3.19533
2.80591
2.46011
2.15106
1.91994
1.72205
1.50356
1.36153
1.29724
1.22299
1.1263
1.05368
0.988521
0.935284
0.918054
0.897847
0.874234
0.863328
0.844766
0.838834
0.84448
0.872922
0.933983
0.991697
1.04952
1.0953
1.12153
1.14739
1.16274
1.16559
1.17425
1.18933
1.19386
1.19176
1.18881
1.20117
1.29067
1.56139
1.972
2.11593
2.17255
2.18412
2.1579
2.12374
2.08543
2.04434
2.02161
2.00516
1.99077
1.98591
1.99734
2.08925
2.29085
2.54594
2.74622
2.83493
2.88516
2.90199
2.91648
2.88955
2.83575
2.76611
2.68449
2.60206
2.5465
2.51851
2.497
2.48365
2.46878
2.44674
2.42
2.37828
2.3118
2.24257
2.20627
2.18593
2.16794
2.1551
2.14785
2.13368
2.11602
2.09379
2.05425
1.98974
1.92059
1.88368
1.8663
1.85236
1.84221
1.83707
1.82745
1.8145
1.79829
1.76037
1.70034
1.64582
3.31353
2.97097
2.65985
2.38306
2.12642
1.92645
1.75608
1.58141
1.45333
1.37909
1.30418
1.22411
1.13244
1.06123
1.01411
0.975014
0.937962
0.90874
0.887783
0.864204
0.854499
0.861667
0.874466
0.897452
0.92186
0.960108
1.00346
1.04588
1.0958
1.13064
1.15266
1.18164
1.18769
1.18907
1.20919
1.37344
1.68931
2.03356
2.17314
2.19318
2.18888
2.17822
2.14688
2.10741
2.06949
2.03322
2.01174
2.00056
1.99591
1.97876
1.96814
1.95394
1.95672
2.02863
2.20699
2.45011
2.66654
2.76265
2.83551
2.84839
2.82866
2.78914
2.7239
2.65046
2.58403
2.53662
2.50959
2.48887
2.46751
2.44989
2.42893
2.39974
2.35717
2.30452
2.25603
2.22421
2.20427
2.18606
2.16683
2.14473
2.11992
2.09296
2.06227
2.01619
1.96291
1.92686
1.90507
1.8873
1.8729
1.86141
1.85164
1.8384
1.81779
1.77529
1.7125
1.66592
3.40928
3.10228
2.81269
2.56056
2.3263
2.10668
1.93441
1.7815
1.64519
1.52591
1.4355
1.35555
1.27677
1.20541
1.14695
1.08999
1.04101
1.00561
0.976284
0.945497
0.910903
0.899349
0.895497
0.88244
0.87468
0.878574
0.89201
0.919731
0.964532
1.02897
1.07892
1.13227
1.15197
1.19153
1.38346
1.83742
2.06478
2.19652
2.22974
2.22375
2.19868
2.16112
2.12876
2.09789
2.0671
2.03991
2.01429
1.99629
1.98799
1.97358
1.95424
1.93739
1.93096
1.90885
1.90285
1.96527
2.14447
2.38474
2.60059
2.72301
2.76015
2.75477
2.7248
2.68293
2.63242
2.5781
2.53176
2.50227
2.47625
2.45142
2.42955
2.40748
2.38099
2.34686
2.30534
2.26379
2.23291
2.21043
2.18705
2.16081
2.13148
2.09828
2.05934
2.02216
1.99073
1.96504
1.94392
1.92284
1.90072
1.87778
1.85389
1.82841
1.80244
1.76914
1.72835
1.69298
3.4795
3.19883
2.94305
2.70329
2.47272
2.26878
2.09721
1.93421
1.7918
1.67772
1.5739
1.47132
1.38671
1.32427
1.26187
1.20048
1.14552
1.10529
1.0668
1.02474
0.97861
0.947562
0.925504
0.902899
0.885241
0.884705
0.885654
0.887206
0.89325
0.915774
0.958053
1.01438
1.08563
1.31791
1.76394
2.09912
2.20217
2.22739
2.22454
2.1983
2.17296
2.14232
2.12379
2.11072
2.08778
2.06158
2.03126
1.99798
1.97757
1.96028
1.9423
1.92841
1.91975
1.90799
1.89653
1.85111
1.84436
1.9104
2.08106
2.31824
2.51012
2.66593
2.68748
2.67433
2.66431
2.62504
2.57186
2.52376
2.49169
2.46602
2.43942
2.41591
2.39453
2.36821
2.33549
2.29662
2.25595
2.22657
2.20393
2.17853
2.14757
2.11259
2.07642
2.03981
2.00515
1.98243
1.96313
1.94089
1.91865
1.89338
1.86246
1.82961
1.79625
1.76682
1.75099
1.72615
3.5345
3.2857
3.05253
2.82376
2.60337
2.41737
2.23988
2.0743
1.92863
1.81463
1.70093
1.59835
1.50659
1.43836
1.36862
1.30204
1.2432
1.20334
1.16103
1.11824
1.07422
1.03816
1.00482
0.974153
0.944821
0.929383
0.91628
0.90176
0.891644
0.889581
0.895225
0.927234
1.16538
1.58588
1.91668
2.04704
2.14863
2.16402
2.13011
2.10632
2.09513
2.10053
2.11894
2.12014
2.10276
2.07552
2.04456
2.00873
1.97149
1.94908
1.93453
1.92506
1.9205
1.90705
1.8889
1.86568
1.82766
1.78309
1.78955
1.8615
2.01517
2.246
2.4347
2.57366
2.6259
2.62008
2.59539
2.55065
2.51872
2.48847
2.45884
2.43564
2.41256
2.38642
2.35879
2.32619
2.27972
2.23505
2.21143
2.19031
2.16489
2.13971
2.11426
2.08303
2.0405
1.98752
1.95317
1.94071
1.92721
1.90584
1.87783
1.84375
1.80634
1.78242
1.77172
1.74947
3.593
3.36637
3.1474
2.92392
2.72146
2.54199
2.36907
2.19933
2.06242
1.93854
1.82174
1.71655
1.62855
1.54902
1.47199
1.40208
1.3433
1.29708
1.24745
1.19762
1.15165
1.11528
1.08196
1.04825
1.01526
0.984035
0.958103
0.930703
0.910119
0.900075
0.929604
1.13275
1.50543
1.77288
1.88534
1.91959
1.94194
1.95321
1.95714
1.97588
1.99575
2.01958
2.06017
2.08576
2.0817
2.06769
2.04609
2.01447
1.97204
1.94725
1.93321
1.92763
1.92438
1.90456
1.88605
1.86871
1.84353
1.80138
1.75453
1.73837
1.75048
1.81329
1.95544
2.15638
2.3499
2.48174
2.54669
2.54109
2.52947
2.50113
2.48071
2.45772
2.43118
2.40902
2.38444
2.35444
2.31382
2.25981
2.21124
2.18657
2.17233
2.15812
2.14057
2.11839
2.0835
2.02592
1.96847
1.93161
1.9092
1.89669
1.88391
1.86513
1.8431
1.82213
1.80346
1.77028
3.6505
3.43679
3.22667
3.01514
2.83153
2.65704
2.48321
2.31947
2.19044
2.06109
1.94169
1.82679
1.74353
1.65625
1.57695
1.50006
1.43993
1.38723
1.33204
1.28306
1.2388
1.19917
1.15986
1.12385
1.08882
1.05718
1.02484
0.996594
0.977414
1.00549
1.20308
1.58287
1.81657
1.90439
1.88149
1.85555
1.8287
1.80468
1.78781
1.78521
1.8114
1.85853
1.9168
1.96372
1.98785
2.00619
2.00175
1.98208
1.95976
1.94571
1.93952
1.93655
1.91659
1.89663
1.8851
1.87032
1.84657
1.81185
1.76948
1.72974
1.7189
1.71239
1.7194
1.76698
1.88182
2.04244
2.22652
2.34707
2.44492
2.46404
2.46815
2.45803
2.45252
2.43854
2.41396
2.38299
2.34148
2.28707
2.22825
2.19571
2.18023
2.16417
2.1474
2.12924
2.10617
2.07098
2.0177
1.95722
1.91827
1.89703
1.88302
1.87462
1.86553
1.85212
1.83798
1.79982
3.71189
3.51016
3.30567
3.10693
2.93303
2.76298
2.5852
2.43766
2.30647
2.17716
2.04623
1.93982
1.85204
1.75824
1.67527
1.59603
1.53936
1.47577
1.41669
1.35836
1.31824
1.27901
1.23456
1.19725
1.15967
1.12289
1.08547
1.0582
1.08734
1.30934
1.71127
1.94391
1.99323
1.95925
1.90871
1.86769
1.83233
1.80335
1.786
1.76547
1.74081
1.73653
1.74494
1.76944
1.78899
1.81986
1.84391
1.86339
1.88464
1.89081
1.88528
1.88491
1.88755
1.89428
1.88985
1.87055
1.84114
1.8106
1.78136
1.7515
1.72087
1.69705
1.688
1.68047
1.68491
1.71113
1.78353
1.90134
2.05587
2.1965
2.31328
2.38892
2.42119
2.43228
2.4227
2.39804
2.36339
2.30867
2.25416
2.21947
2.19924
2.17924
2.1583
2.13391
2.11013
2.08881
2.06079
2.01701
1.96049
1.91616
1.89643
1.88503
1.87559
1.86655
1.85554
1.82318
3.76916
3.57854
3.38315
3.19757
3.02895
2.85935
2.68493
2.54631
2.41339
2.28281
2.14755
2.05044
1.9517
1.85947
1.76643
1.69531
1.63204
1.56266
1.50035
1.44109
1.40085
1.35302
1.30744
1.26421
1.2236
1.19056
1.16381
1.20868
1.47303
1.89283
2.10971
2.126
2.07567
2.01908
1.97196
1.93731
1.90527
1.87338
1.83845
1.7936
1.74496
1.7254
1.71264
1.70369
1.69949
1.70014
1.69648
1.69757
1.70643
1.7118
1.73277
1.76716
1.79661
1.81397
1.82559
1.83474
1.82735
1.81074
1.78749
1.76178
1.72806
1.6976
1.67855
1.66876
1.66429
1.65511
1.64555
1.64904
1.6857
1.77179
1.88947
2.0485
2.18219
2.31797
2.3712
2.36491
2.34535
2.31037
2.28203
2.26019
2.2304
2.20353
2.18121
2.15589
2.12537
2.09728
2.07466
2.04732
2.0093
1.9637
1.92293
1.90004
1.88744
1.87705
1.8678
1.83786
3.83397
3.65148
3.4647
3.28715
3.12265
2.95182
2.78554
2.64717
2.51699
2.3775
2.25139
2.15391
2.05123
1.95497
1.85659
1.7936
1.72131
1.65139
1.58277
1.5249
1.48036
1.42643
1.37943
1.33241
1.28523
1.26055
1.32619
1.65286
2.12602
2.30637
2.26882
2.20936
2.14846
2.09766
2.06139
2.02554
1.98728
1.94542
1.9011
1.85133
1.80252
1.76365
1.73151
1.707
1.69232
1.68132
1.67263
1.66527
1.64191
1.59819
1.57948
1.58331
1.60676
1.63848
1.68112
1.73129
1.74726
1.74994
1.74177
1.72569
1.71249
1.6936
1.68263
1.67382
1.6572
1.64207
1.62867
1.6176
1.60933
1.59268
1.59961
1.65253
1.75308
1.90248
2.04942
2.18146
2.25647
2.25583
2.2586
2.25044
2.23835
2.22949
2.21612
2.19286
2.16348
2.12548
2.08184
2.05061
2.02712
2.00111
1.97036
1.93314
1.89997
1.88468
1.8755
1.84855
3.90147
3.72108
3.54088
3.36855
3.204
3.03844
2.88217
2.74272
2.61015
2.46691
2.35177
2.25148
2.1528
2.04059
1.95075
1.88572
1.80878
1.73717
1.65979
1.61142
1.55687
1.5012
1.44427
1.39291
1.36414
1.45166
1.81556
2.31647
2.4942
2.45819
2.35748
2.28057
2.23163
2.18702
2.14608
2.10903
2.0722
2.03263
1.98852
1.93477
1.87358
1.82346
1.78963
1.76079
1.73625
1.71323
1.68998
1.66562
1.64032
1.61021
1.56926
1.53814
1.52202
1.52082
1.5284
1.55193
1.58394
1.61579
1.63359
1.62913
1.63271
1.64495
1.63798
1.63374
1.64185
1.64085
1.63075
1.61844
1.59553
1.57013
1.5497
1.54644
1.54565
1.56679
1.63189
1.74175
1.89024
2.01184
2.1198
2.15961
2.18032
2.19286
2.19288
2.19511
2.18754
2.16168
2.11328
2.07118
2.04158
2.02078
2.00041
1.9745
1.9347
1.89556
1.88054
1.85485
3.96514
3.78626
3.61176
3.44585
3.28349
3.12295
2.97475
2.83702
2.70082
2.56311
2.45086
2.34882
2.2463
2.13122
2.04735
1.97449
1.89776
1.81562
1.74209
1.69116
1.632
1.57188
1.51349
1.48356
1.59384
2.01401
2.48757
2.66883
2.63522
2.54889
2.4496
2.36516
2.31186
2.26726
2.22514
2.18566
2.14639
2.10597
2.06323
2.01543
1.96067
1.90553
1.85972
1.82162
1.78652
1.75281
1.72213
1.69455
1.67063
1.64454
1.60463
1.5515
1.51445
1.50485
1.49706
1.4871
1.4814
1.47994
1.49046
1.50271
1.49836
1.50436
1.52176
1.54165
1.57558
1.59509
1.59817
1.59419
1.57874
1.55692
1.54588
1.53091
1.51612
1.50335
1.50179
1.50899
1.54317
1.61592
1.71197
1.83236
1.96571
2.03369
2.07929
2.12834
2.14745
2.14225
2.12842
2.10618
2.07239
2.04142
2.0252
2.00309
1.96981
1.92742
1.89416
1.86002
4.02407
3.85136
3.68576
3.52506
3.36121
3.20379
3.06648
2.93151
2.79081
2.65672
2.54954
2.44406
2.33549
2.22162
2.14061
2.06051
1.98073
1.8924
1.82498
1.76804
1.69992
1.63936
1.61389
1.7594
2.25023
2.70638
2.84861
2.80115
2.70972
2.62267
2.55067
2.47468
2.40126
2.34437
2.29908
2.25841
2.21854
2.17805
2.13604
2.08992
2.03645
1.9781
1.92621
1.8857
1.8503
1.81562
1.78221
1.75062
1.72015
1.68836
1.65351
1.60652
1.55058
1.51113
1.48925
1.47444
1.46426
1.45951
1.45536
1.44505
1.42232
1.40172
1.39853
1.40143
1.42096
1.45106
1.48319
1.52042
1.52803
1.51479
1.50341
1.49403
1.49173
1.49303
1.49164
1.48509
1.47532
1.46102
1.45915
1.48645
1.54986
1.66086
1.78463
1.89738
1.97428
2.03122
2.07832
2.08616
2.0793
2.05292
2.01518
1.99676
1.98445
1.95975
1.92089
1.87702
4.10568
3.93464
3.77283
3.61345
3.45067
3.29787
3.16047
3.02391
2.87951
2.75452
2.64765
2.53935
2.42176
2.31272
2.23298
2.14651
2.06207
1.97061
1.90925
1.83912
1.77308
1.76726
1.96575
2.51328
2.98366
3.02423
2.95207
2.85471
2.77299
2.71857
2.66551
2.59529
2.50736
2.42771
2.37009
2.3231
2.28047
2.24087
2.2024
2.16062
2.1097
2.04816
1.98724
1.93846
1.8992
1.86438
1.83232
1.80202
1.7714
1.73854
1.70306
1.66161
1.61215
1.55844
1.51032
1.48684
1.47302
1.46049
1.44793
1.43615
1.42316
1.40149
1.36541
1.34107
1.33319
1.33446
1.34421
1.3665
1.40204
1.41642
1.4174
1.42542
1.4345
1.44332
1.44815
1.45429
1.45462
1.44398
1.42626
1.40441
1.39456
1.40596
1.44484
1.52554
1.63747
1.74821
1.85085
1.94153
2.01584
2.02115
2.00633
1.97637
1.95731
1.93643
1.92706
1.90782
4.19902
4.02385
3.85879
3.69672
3.53344
3.38539
3.24729
3.10977
2.96768
2.84717
2.73473
2.62433
2.50669
2.40659
2.32009
2.23309
2.13664
2.05274
1.98601
1.9054
1.93752
2.22653
2.85275
3.21577
3.2367
3.15638
3.0437
2.95323
2.89587
2.84094
2.77601
2.69515
2.60216
2.51717
2.45112
2.39604
2.34652
2.3008
2.25697
2.21236
2.16262
2.10408
2.04348
1.99398
1.95575
1.9227
1.8903
1.85512
1.81626
1.77612
1.73806
1.7007
1.66146
1.62158
1.58016
1.53964
1.50557
1.47789
1.45559
1.43907
1.42632
1.40831
1.37896
1.34656
1.32377
1.30908
1.29946
1.29245
1.29176
1.29755
1.30628
1.32023
1.32891
1.34082
1.35576
1.37033
1.3875
1.3952
1.39243
1.38689
1.37392
1.36206
1.36209
1.37254
1.39526
1.43571
1.50636
1.59972
1.71261
1.81261
1.88159
1.92349
1.92035
1.88761
1.88454
1.88462
4.23812
4.11845
3.9463
3.77811
3.61852
3.47442
3.33396
3.19152
3.05655
2.94232
2.82462
2.70913
2.59055
2.50082
2.40924
2.31791
2.21769
2.13604
2.05688
2.11758
2.56283
3.21666
3.56493
3.49069
3.34014
3.23481
3.1483
3.07432
3.00996
2.94061
2.86034
2.77104
2.68112
2.60101
2.534
2.47595
2.42261
2.37108
2.3194
2.26678
2.21245
2.15581
2.09777
2.04351
2.00082
1.96841
1.94013
1.91047
1.87584
1.83517
1.78805
1.73447
1.67997
1.6405
1.61623
1.59248
1.56579
1.53426
1.49788
1.46041
1.4293
1.41202
1.39923
1.37824
1.34631
1.31367
1.29637
1.28382
1.26489
1.25419
1.25362
1.25114
1.24359
1.24508
1.25421
1.26219
1.27566
1.28891
1.30076
1.31979
1.33358
1.33185
1.3294
1.33478
1.33637
1.33188
1.32959
1.34009
1.37422
1.44115
1.53441
1.6391
1.72894
1.79593
1.80169
1.82054
4.06323
4.18384
4.0509
3.86973
3.71321
3.57026
3.4277
3.27806
3.15262
3.03622
2.91753
2.7905
2.6806
2.59391
2.49611
2.398
2.29979
2.21929
2.33108
2.87464
3.59978
3.89521
3.80416
3.60915
3.44885
3.32898
3.24512
3.1737
3.09883
3.01956
2.93529
2.84838
2.76334
2.68422
2.61459
2.55381
2.4975
2.44127
2.38247
2.32203
2.26416
2.21185
2.16193
2.10829
2.05131
1.99973
1.96056
1.93231
1.90721
1.87884
1.84441
1.80164
1.74472
1.67324
1.62713
1.61155
1.59854
1.57952
1.55305
1.51685
1.47116
1.43213
1.40942
1.39472
1.37989
1.35823
1.329
1.29574
1.26836
1.25257
1.23877
1.22428
1.21827
1.21506
1.20833
1.19465
1.18762
1.18767
1.19271
1.2093
1.23781
1.25249
1.26023
1.27004
1.277
1.27678
1.27142
1.26134
1.26103
1.26601
1.28203
1.32198
1.38997
1.47962
1.55202
1.65328
3.09224
4.08579
4.11561
3.97612
3.80855
3.66205
3.51577
3.37506
3.25009
3.12764
3.00576
2.87481
2.77733
2.68346
2.5761
2.4767
2.40227
2.5761
3.29488
3.92031
4.11626
4.0314
3.87256
3.72054
3.57431
3.4502
3.35327
3.2657
3.18325
3.10231
3.0214
2.93918
2.85328
2.76704
2.68907
2.62206
2.56176
2.503
2.44211
2.37938
2.31981
2.2674
2.21975
2.17058
2.11598
2.05935
2.00705
1.96242
1.92621
1.89651
1.86996
1.83991
1.7987
1.74369
1.67988
1.6325
1.61155
1.59526
1.57722
1.55486
1.52349
1.48655
1.44896
1.41515
1.39137
1.37489
1.3574
1.33335
1.30407
1.27227
1.24402
1.22235
1.20659
1.19746
1.19002
1.18235
1.17372
1.15366
1.13474
1.13358
1.13992
1.15554
1.16355
1.16836
1.18242
1.19082
1.19327
1.19793
1.20526
1.21395
1.21924
1.22465
1.23107
1.24572
1.26979
1.35281
1.82553
3.35899
4.07886
4.06109
3.91903
3.75983
3.60847
3.46553
3.34385
3.22328
3.09954
2.96844
2.87351
2.76221
2.66636
2.61136
2.88526
3.71455
4.3366
4.46488
4.35135
4.15307
3.97991
3.84835
3.71586
3.57874
3.4655
3.37107
3.28328
3.19817
3.11439
3.02878
2.93849
2.84709
2.76239
2.68746
2.61999
2.55723
2.49704
2.43857
2.38196
2.3264
2.2709
2.21561
2.16037
2.10627
2.05618
2.0108
1.9696
1.93057
1.89078
1.85172
1.81817
1.78451
1.74362
1.69868
1.65664
1.6215
1.59202
1.56827
1.54653
1.51889
1.4861
1.45737
1.43452
1.41016
1.38087
1.35151
1.32356
1.2925
1.26167
1.23843
1.21741
1.19917
1.18729
1.1785
1.16611
1.15089
1.1319
1.11317
1.1034
1.09569
1.08555
1.08022
1.08258
1.09148
1.10213
1.11107
1.12433
1.14346
1.16537
1.17577
1.17406
1.16857
1.15611
1.16314
1.42527
2.0326
3.54062
4.0426
4.01191
3.86856
3.69889
3.56746
3.43972
3.31877
3.17693
3.07106
2.96351
2.84216
2.85545
3.26767
4.25911
4.72388
4.67844
4.57783
4.41993
4.26048
4.11392
3.97615
3.83622
3.70166
3.58265
3.47811
3.3817
3.28808
3.19485
3.10107
3.00801
2.91885
2.83546
2.75716
2.68296
2.61339
2.55
2.49341
2.44064
2.38672
2.32794
2.2637
2.19797
2.13953
2.09272
2.05284
2.01459
1.97414
1.92897
1.88019
1.83315
1.79517
1.76673
1.73788
1.70271
1.66695
1.6336
1.59731
1.55482
1.51354
1.48985
1.47699
1.46417
1.44648
1.42161
1.3916
1.35119
1.301
1.2731
1.26008
1.24582
1.2268
1.20722
1.18723
1.16287
1.14343
1.12867
1.10921
1.09569
1.08508
1.06925
1.05497
1.05036
1.049
1.04723
1.04579
1.04632
1.05415
1.06979
1.08854
1.1031
1.10482
1.09763
1.08988
1.40032
1.45422
2.23316
3.6394
4.00825
3.97405
3.81751
3.65926
3.53115
3.40759
3.27957
3.16798
3.02927
3.09446
3.73875
4.7437
5.24616
5.18088
4.90712
4.65973
4.49527
4.3673
4.23887
4.09867
3.95405
3.81812
3.6936
3.57855
3.47028
3.36608
3.26459
3.16694
3.07521
2.98965
2.90831
2.8291
2.75144
2.6762
2.60566
2.54256
2.48654
2.43258
2.37544
2.31282
2.24675
2.18463
2.13238
2.08811
2.04827
2.00861
1.96476
1.91644
1.86843
1.82383
1.78106
1.74497
1.71841
1.69362
1.66285
1.62159
1.57745
1.54441
1.51725
1.4894
1.46867
1.45466
1.4424
1.42479
1.39316
1.34472
1.29648
1.26492
1.2503
1.24235
1.23267
1.21352
1.18306
1.15102
1.12899
1.11296
1.09729
1.08308
1.06462
1.05058
1.04673
1.04197
1.03099
1.01115
0.991701
0.98579
0.987516
0.994743
1.01033
1.02745
1.0311
1.02798
1.40001
1.40095
1.49465
2.39891
3.69856
3.97416
3.93403
3.77957
3.63106
3.4904
3.37303
3.25048
3.38334
4.24047
5.35092
5.542
5.41113
5.25759
5.05059
4.82873
4.63727
4.48566
4.34608
4.20552
4.06747
3.93449
3.80481
3.67758
3.5535
3.43575
3.32849
3.23246
3.14407
3.059
2.97444
2.89041
2.80935
2.73287
2.66142
2.59477
2.53201
2.47064
2.40823
2.34564
2.28496
2.22713
2.17367
2.12452
2.07901
2.03587
1.99224
1.94639
1.90095
1.85887
1.81798
1.7779
1.7407
1.70355
1.6654
1.62657
1.5908
1.56329
1.53855
1.51472
1.49443
1.47578
1.44992
1.4121
1.3722
1.34104
1.31325
1.29235
1.27437
1.25644
1.2379
1.21554
1.19013
1.16871
1.14936
1.12777
1.10212
1.07953
1.07399
1.06799
1.05702
1.04233
1.02379
1.00204
0.984427
0.973575
0.968028
0.964592
0.963631
0.96372
0.961622
0.957179
1.40001
1.40001
1.40219
1.53965
2.53034
3.73239
3.92591
3.88579
3.7475
3.5912
3.45497
3.70585
4.84022
5.84922
6.11673
5.91982
5.5557
5.31457
5.14305
4.9724
4.79061
4.61034
4.4424
4.29026
4.15254
4.02346
3.89742
3.76992
3.63933
3.51103
3.39542
3.29589
3.20671
3.12104
3.03384
2.94392
2.85607
2.77592
2.70466
2.63904
2.57565
2.51287
2.44838
2.38168
2.31723
2.25865
2.20451
2.15307
2.10421
2.05894
2.01766
1.97762
1.93359
1.88474
1.84598
1.81653
1.77941
1.73656
1.6934
1.65472
1.61632
1.57088
1.54479
1.53636
1.52556
1.50412
1.47238
1.42484
1.37265
1.35464
1.34925
1.3347
1.30977
1.28204
1.25801
1.23853
1.22287
1.20654
1.18455
1.15603
1.12537
1.10159
1.08061
1.05992
1.04153
1.02764
1.01314
0.994939
0.982456
0.974249
0.962605
0.952874
0.946516
0.940434
0.934459
0.915394
1.40001
1.40001
1.40002
1.40402
1.58441
2.64665
3.69821
3.89945
3.84477
3.70482
4.03047
5.5446
6.41264
6.32812
6.22171
6.0117
5.70878
5.43679
5.2403
5.07099
4.89433
4.70973
4.53109
4.36827
4.22176
4.08767
3.96124
3.83689
3.71098
3.58476
3.46402
3.35426
3.25555
3.164
3.07449
2.98364
2.89494
2.81416
2.7417
2.67367
2.60706
2.54193
2.47831