/*--------------------------------*- C++ -*----------------------------------*\
  =========                 |
  \\      /  F ield         | OpenFOAM: The Open Source CFD Toolbox
   \\    /   O peration     | Website:  https://openfoam.org
    \\  /    A nd           | Version:  7
     \\/     M anipulation  |
\*---------------------------------------------------------------------------*/
FoamFile
{
    version     2.0;
    format      ascii;
    class       volScalarField;
    location    "1.9";
    object      T;
}
// * * * * * * * * * * * * * * * * * * * * * * * * * * * * * * * * * * * * * //

dimensions      [0 0 0 1 0 0 0];

internalField   nonuniform List<scalar> 
4032
(
1
1
1
1
1
1
1
1
1
1
1
1
2.07942
2.73342
2.74806
2.7562
2.7679
2.7818
2.79823
2.81396
2.82653
2.83699
2.84648
2.85272
1
1
1
1
1
1
1
1
1
1
1
1
2.05709
2.72722
2.74662
2.75476
2.76633
2.78001
2.79608
2.81123
2.82317
2.83306
2.84203
2.84801
1
1
1
1
1
1
1
1
1
1
1
1
2.00189
2.71645
2.74414
2.7518
2.76301
2.77644
2.79225
2.80686
2.81808
2.82745
2.83593
2.84181
1
1
1
1
1
1
1
1
1
1
1
1
1.91257
2.69383
2.73903
2.74558
2.75617
2.7693
2.78517
2.79976
2.81057
2.8194
2.82685
2.83152
1
1
1
1
1
1
1
1
1
1
1
1
1.78689
2.65381
2.72771
2.73457
2.74551
2.75844
2.77396
2.78807
2.79788
2.80583
2.81214
2.8172
1
1
1
1
1
1
1
1
1
1
1
1
1.62598
2.59365
2.71171
2.72102
2.73227
2.74399
2.75861
2.77316
2.78411
2.79199
2.79459
2.79089
1
1
1
1
1
1
1
1
1
1
1
1
1.3919
2.49112
2.6909
2.70186
2.71467
2.72588
2.7396
2.7534
2.76218
2.76391
2.76026
2.7549
1
1
1
1
1
1
1
1
1
1
1
1
1.09733
2.36339
2.68905
2.689
2.69551
2.70239
2.71277
2.72301
2.73058
2.7331
2.73421
2.74832
1
1
1
1
1
1
1
1
1
1
1
1
1.00263
2.2189
2.65335
2.65746
2.66443
2.67166
2.67994
2.6863
2.68852
2.6803
2.63961
2.54308
1
1
1
1
1
1
1
1
1
1
1
1
1
1.99025
2.61345
2.64611
2.65003
2.6524
2.65183
2.65112
2.64448
2.62041
2.56929
2.41579
1
1
1
1
1
1
1
1
1
1
1
1
1
1.63144
2.50179
2.62292
2.63272
2.63276
2.6269
2.61742
2.60124
2.56558
2.50586
2.33402
1
1
1
1
1
1
1
1
1
1
1
1
1
1.15298
2.33263
2.61003
2.60758
2.60729
2.6007
2.58623
2.56266
2.52365
2.45164
2.30537
1
1
1
1
1
1
1
1
1
1
1
1
1
1.00596
2.14498
2.54212
2.56908
2.57176
2.5674
2.5535
2.52774
2.48759
2.41305
2.2977
1
1
1
1
1
1
1
1
1
1
1
1
1
0.999985
1.71717
2.43182
2.54068
2.5443
2.5388
2.5243
2.49766
2.456
2.38645
2.29733
1
1
1
1
1
1
1
1
1
1
1
1
1
0.999995
1.14289
2.25129
2.51474
2.51191
2.50628
2.49107
2.46532
2.4246
2.36499
2.29316
1
1
1
1
1
1
1
1
1
1
1
1
1
0.999999
1.00486
1.99527
2.44189
2.47659
2.47102
2.45709
2.43291
2.39664
2.34657
2.28681
1
1
1
1
1
1
1
1
1
1
1
1
1
1
0.99999
1.41642
2.29174
2.45057
2.43838
2.42541
2.40367
2.37129
2.32783
2.2768
1
1
1
1
1
1
1
1
1
1
1
1
1
1
0.999997
1.04028
2.09009
2.41255
2.40067
2.39064
2.37281
2.34496
2.3075
2.26401
1
1
1
1
1
1
1
1
1
1
1
1
1
1
0.999999
1.00028
1.56998
2.2834
2.38158
2.36417
2.34486
2.31933
2.28801
2.25096
1
1
1
1
1
1
1
1
1
1
1
1
1
1
1
1
1.08369
2.07617
2.35742
2.33741
2.31838
2.29415
2.26678
2.23419
1
1
1
1
1
1
1
1
1
1
1
1
1
1
1
1
1.00135
1.53781
2.21029
2.31575
2.29443
2.27227
2.24665
2.21661
1
1
1
1
1
1
1
1
1
1
1
1
1
1
1
1
1
1.07708
1.98548
2.29253
2.27174
2.24978
2.2247
2.19747
1
1
1
1
1
1
1
1
1
1
1
1
1
1
1
1
1
1.00123
1.41875
2.11777
2.24935
2.22506
2.20387
2.18075
1
1
1
1
1
1
1
1
1
1
1
1
1
1
1
1
1
1
1.04316
1.79438
2.2057
2.20139
2.18479
2.16529
1
1
1
1
1
1
1
1
1
1
1
1
1
1
1
1
1
1
1.00051
1.23968
1.99288
2.18263
2.16215
2.1445
1
1
1
1
1
1
1
1
1
1
1
1
1
1
1
1
1
1
1
1.01281
1.52276
2.04826
2.14499
2.12295
1
1
1
1
1
1
1
1
1
1
1
1
1
1
1
1
1
1
1
1.0001
1.08026
1.75335
2.0814
2.10865
1
1
1
1
1
1
1
1
1
1
1
1
1
1
1
1
1
1
1
1
1.0017
1.23644
1.86407
2.07873
1
1
1
1
1
1
1
1
1
1
1
1
1
1
1
1
1
1
1
1
1.00001
1.01314
1.40262
1.92169
1
1
1
1
1
1
1
1
1
1
1
1
1
1
1
1
1
1
1
1
1
1.00012
1.04664
1.54855
1
1
1
1
1
1
1
1
1
1
1
1
1
1
1
1
1
1
1
1
1
1
1.0008
1.1091
1
1
1
1
1
1
1
1
1
1
1
1
1
1
1
1
1
1
1
1
1
1
1
1.00334
1
1
1
1
1
1
1
1
1
1
1
1
1
1
1
1
1
1
1
1
1
1
1
1.00002
1
1
1
1
1
1
1
1
1
1
1
1
1
1
1
1
1
1
1
1
1
1
1
1
1
1
1
1
1
1
1
1
1
1
1
1
1
1
1
1
1
1
1
1
1
1
1
1
1
1
1
1
1
1
1
1
1
1
1
1
1
1
1
1
1
1
1
1
1
1
1
1
1
1
1
1
1
1
1
1
1
1
1
1
1
1
1
1
1
1
1
1
1
1
1
1
1
1
1
1
1
1
1
1
1
1
1
1
1
1
1
1
1
1
1
1
1
1
1
1
1
1
1
1
1
1
1
1
1
1
1
1
1
1
1
1
1
1
1
1
1
1
1
1
1
1
1
1
1
1
1
1
1
1
1
1
1
1
1
1
1
1
1
1
1
1
1
1
1.71998
1.20895
0.94524
0.984156
1.21187
1.3523
1.42585
1.53303
1.54887
1.54661
1.55419
1.59742
1.67538
1.74314
1.75828
1.75788
1.75134
1.72846
1.71343
1.72258
1.73806
1.7386
1.73645
1.73151
1.72638
1.71968
1.71975
1.72148
1.72182
1.72337
1.72527
1.7281
1.72729
1.72352
1.72121
1.72127
1.71834
1.71666
1.7151
1.70819
1.69741
1.70184
1.78493
2.00581
2.30139
2.5479
2.70006
2.71238
2.68244
2.62174
2.56521
2.54313
2.5246
2.50813
2.49068
2.47044
2.45155
2.42974
2.40352
2.37759
2.35603
2.34025
2.32945
2.32116
2.31203
2.30306
2.29221
2.2769
2.25901
2.24591
2.23865
2.23388
2.23235
2.23165
2.22844
2.22246
2.21002
2.18401
2.15362
2.13532
2.12477
2.11623
2.10927
2.10532
2.10311
2.09623
2.08653
2.07434
2.05274
2.02189
2.0021
1.99345
1.98727
1.98192
1.98232
1.97933
1.9671
1.69835
1.44149
1.31474
1.3536
1.3585
1.35084
1.33647
1.333
1.33504
1.35312
1.39979
1.47156
1.52958
1.57397
1.59741
1.61229
1.61903
1.62554
1.64702
1.66972
1.67907
1.68348
1.68294
1.6794
1.67557
1.67828
1.68325
1.68585
1.6891
1.69341
1.69825
1.6985
1.69518
1.69172
1.69035
1.68847
1.68815
1.68887
1.68669
1.69682
1.76932
1.95741
2.05922
2.11971
2.25321
2.39342
2.47802
2.52138
2.53473
2.51756
2.50462
2.489
2.47091
2.4533
2.43674
2.42065
2.40461
2.38528
2.36176
2.33829
2.32058
2.30897
2.30012
2.29309
2.28542
2.27701
2.26665
2.25327
2.23719
2.22454
2.21834
2.21443
2.21115
2.20734
2.20221
2.19368
2.1779
2.15746
2.13674
2.11989
2.10898
2.10152
2.09608
2.09018
2.08104
2.07104
2.05995
2.04515
2.02479
2.0037
1.99003
1.98286
1.97763
1.97549
1.96671
2.05009
1.87154
1.71908
1.5476
1.43831
1.4075
1.38162
1.327
1.29938
1.272
1.27845
1.30149
1.3348
1.35751
1.39136
1.4227
1.44715
1.47393
1.5073
1.53839
1.56708
1.58633
1.59832
1.6077
1.60643
1.60457
1.60705
1.61086
1.6119
1.61426
1.61876
1.6254
1.62994
1.63147
1.6319
1.63086
1.62932
1.628
1.63257
1.65937
1.75055
1.91889
2.05012
2.03561
2.01213
2.01619
2.07288
2.18203
2.29704
2.3935
2.42451
2.44022
2.4225
2.40051
2.37969
2.3626
2.34903
2.33817
2.32787
2.31682
2.30194
2.2824
2.26548
2.25431
2.24453
2.23618
2.23038
2.22609
2.2211
2.21225
2.19705
2.18136
2.17237
2.16678
2.16156
2.15466
2.14599
2.13909
2.12975
2.11895
2.10544
2.08954
2.07568
2.06589
2.05692
2.04752
2.03736
2.02616
2.01496
2.00568
1.99612
1.98298
1.96843
1.95845
1.95182
1.94066
2.11322
1.95542
1.83865
1.73072
1.60086
1.50669
1.47376
1.43477
1.39318
1.35552
1.32626
1.29303
1.27843
1.28095
1.2955
1.31594
1.33569
1.36246
1.40266
1.43578
1.46051
1.48211
1.50096
1.51861
1.53676
1.54373
1.54876
1.5541
1.55403
1.55284
1.55272
1.55399
1.55761
1.56137
1.56254
1.56362
1.56597
1.57416
1.60734
1.73406
1.87719
2.00732
2.00884
1.99048
1.96893
1.95745
1.94456
1.9605
2.02762
2.1573
2.25813
2.31323
2.32423
2.32137
2.31422
2.30441
2.29497
2.28319
2.27098
2.26096
2.25079
2.23468
2.21328
2.19781
2.18849
2.1814
2.17653
2.17383
2.1711
2.1661
2.15517
2.1359
2.11738
2.10706
2.09946
2.09276
2.08834
2.08439
2.08029
2.07327
2.06472
2.05376
2.03755
2.02104
2.00998
2.00032
1.98977
1.98029
1.97518
1.97141
1.96682
1.9593
1.9465
1.92979
1.91828
1.90462
2.15691
2.03183
1.91488
1.81911
1.73446
1.63618
1.55002
1.52039
1.48513
1.43499
1.39099
1.35454
1.3131
1.29311
1.29406
1.30332
1.30477
1.30913
1.32157
1.33959
1.36228
1.39875
1.43312
1.45301
1.47565
1.48768
1.49518
1.50312
1.50789
1.51046
1.51684
1.52039
1.52555
1.52718
1.5266
1.52648
1.53287
1.5695
1.72033
1.88294
1.95576
1.98737
1.97966
1.96701
1.95133
1.93714
1.92728
1.91874
1.9138
1.9417
2.02568
2.13423
2.20587
2.24111
2.24467
2.24513
2.24977
2.25304
2.24299
2.22969
2.21535
2.1989
2.17626
2.15435
2.14349
2.1371
2.13343
2.13161
2.12802
2.12277
2.11392
2.09619
2.06897
2.04866
2.04053
2.03639
2.03342
2.03187
2.03008
2.02443
2.01793
2.01085
1.9978
1.9753
1.95684
1.94716
1.94087
1.93751
1.93563
1.93443
1.93111
1.92515
1.91536
1.89794
1.87961
1.86127
2.19279
2.08964
1.98901
1.89125
1.8129
1.73987
1.65017
1.58728
1.55919
1.52476
1.47526
1.43278
1.39304
1.36141
1.35036
1.33778
1.32326
1.31625
1.30382
1.30008
1.30356
1.31981
1.35428
1.3856
1.41614
1.44099
1.45505
1.46816
1.47781
1.48264
1.48991
1.49755
1.5046
1.50547
1.50723
1.5168
1.5722
1.71646
1.90127
1.94981
1.96887
1.97333
1.96326
1.95099
1.93864
1.92376
1.91484
1.90758
1.89997
1.89312
1.88929
1.92246
1.99946
2.0889
2.15337
2.18011
2.19869
2.2107
2.21788
2.21103
2.19832
2.1812
2.15955
2.13576
2.11761
2.10822
2.10175
2.09842
2.09511
2.08935
2.08086
2.06592
2.04168
2.01643
2.00356
1.99711
1.99172
1.98802
1.98607
1.98156
1.97633
1.97056
1.95954
1.93987
1.91787
1.90781
1.90447
1.90199
1.90081
1.90099
1.89876
1.89389
1.88696
1.87074
1.84576
1.82127
2.21168
2.1258
2.04038
1.95843
1.87571
1.8055
1.74208
1.67295
1.61804
1.58412
1.54996
1.51267
1.4654
1.42558
1.39859
1.37607
1.35473
1.33748
1.3248
1.31001
1.30264
1.30683
1.3148
1.32795
1.34225
1.36506
1.38953
1.41146
1.43745
1.45699
1.46983
1.4828
1.48857
1.49068
1.50348
1.6006
1.76239
1.91197
1.96424
1.96685
1.96478
1.96068
1.95057
1.9385
1.92689
1.9132
1.90312
1.8964
1.89085
1.87797
1.86593
1.85188
1.84702
1.87649
1.95102
2.04112
2.11311
2.14393
2.16902
2.17783
2.17448
2.16608
2.15006
2.12868
2.10714
2.09079
2.08115
2.07382
2.06631
2.05945
2.05107
2.03932
2.02257
2.00245
1.98414
1.97231
1.96498
1.95847
1.95202
1.94515
1.93811
1.93114
1.92414
1.91277
1.8982
1.88932
1.88521
1.88203
1.87926
1.87666
1.87402
1.86945
1.8612
1.84359
1.81783
1.79498
2.2204
2.1483
2.07407
2.00468
1.93447
1.86256
1.80242
1.74552
1.69178
1.64278
1.60419
1.56838
1.5301
1.49442
1.46501
1.43515
1.40773
1.38731
1.37018
1.35183
1.33059
1.32427
1.32239
1.31451
1.31039
1.31293
1.3208
1.33728
1.3641
1.40123
1.42887
1.45619
1.4658
1.48715
1.59752
1.82266
1.91912
1.97178
1.98016
1.97692
1.96494
1.94802
1.9373
1.9289
1.91842
1.90547
1.89085
1.87853
1.86977
1.85769
1.84327
1.82896
1.81968
1.80397
1.80231
1.83077
1.90819
1.99856
2.07383
2.1131
2.12781
2.12904
2.12438
2.11415
2.09807
2.07963
2.06367
2.05281
2.04253
2.03207
2.02238
2.01229
2.00041
1.98599
1.9699
1.95449
1.94304
1.93488
1.92707
1.91911
1.9111
1.90286
1.89384
1.88581
1.87962
1.87505
1.87175
1.8677
1.86206
1.85496
1.84669
1.83719
1.82731
1.81396
1.79685
1.77851
2.21928
2.15653
2.0957
2.03394
1.96911
1.90746
1.85229
1.796
1.74393
1.70051
1.65897
1.61499
1.57611
1.54702
1.51766
1.48728
1.45877
1.43757
1.41707
1.39391
1.36766
1.3496
1.3367
1.32348
1.313
1.3118
1.31229
1.31343
1.31708
1.33125
1.35705
1.38965
1.42914
1.56548
1.79624
1.92877
1.9719
1.97852
1.97609
1.96324
1.94858
1.93315
1.92591
1.92039
1.90943
1.89422
1.87518
1.85517
1.84157
1.82981
1.81761
1.80606
1.79657
1.78657
1.77757
1.75708
1.75623
1.78697
1.85964
1.94808
2.01454
2.06479
2.07347
2.07488
2.07394
2.06235
2.0448
2.02833
2.01652
2.00627
1.9951
1.98421
1.97377
1.9619
1.94879
1.9348
1.92091
1.91116
1.90392
1.89644
1.88859
1.88088
1.87353
1.86607
1.85912
1.85587
1.85346
1.84862
1.8424
1.83451
1.8242
1.81253
1.80016
1.78853
1.78129
1.76836
2.21398
2.16063
2.10769
2.05187
1.99396
1.94267
1.89004
1.83723
1.78754
1.74736
1.70446
1.66319
1.62402
1.59469
1.56379
1.5327
1.50345
1.48339
1.46184
1.43948
1.4159
1.39618
1.37762
1.3599
1.34252
1.33308
1.32559
1.31751
1.31194
1.31199
1.31561
1.33705
1.48914
1.72056
1.86834
1.90444
1.93381
1.93855
1.92613
1.91542
1.9073
1.90499
1.90449
1.90147
1.88962
1.87293
1.85363
1.83215
1.8117
1.79944
1.7911
1.78425
1.77798
1.76744
1.75515
1.74231
1.72525
1.70618
1.70927
1.74032
1.80288
1.88829
1.9506
1.99605
2.01577
2.0158
2.01041
1.99799
1.98744
1.97684
1.96615
1.9565
1.94602
1.93418
1.92308
1.91213
1.89791
1.88426
1.87722
1.8714
1.8654
1.86099
1.85767
1.85333
1.84484
1.83066
1.82172
1.82027
1.81773
1.81183
1.80359
1.79274
1.77936
1.76997
1.76475
1.75325
2.20665
2.16016
2.11289
2.0609
2.01133
1.96512
1.91749
1.86681
1.82391
1.78292
1.74158
1.7021
1.6679
1.63622
1.60359
1.5721
1.54471
1.52328
1.49971
1.47485
1.45082
1.43165
1.41401
1.39591
1.37776
1.36048
1.34617
1.33064
1.31906
1.31353
1.33402
1.46727
1.68261
1.7988
1.82886
1.83312
1.83741
1.83951
1.83917
1.84528
1.85318
1.85761
1.85963
1.86076
1.85368
1.84005
1.82497
1.80638
1.78425
1.77254
1.7661
1.7624
1.75842
1.74703
1.73506
1.72354
1.70992
1.69076
1.67057
1.66039
1.6649
1.69005
1.74667
1.81952
1.88359
1.92625
1.94943
1.94903
1.94689
1.93938
1.93322
1.92571
1.91616
1.90694
1.89732
1.88749
1.87623
1.86104
1.84651
1.83954
1.83682
1.83544
1.83455
1.83331
1.82862
1.81442
1.79612
1.78439
1.77872
1.7767
1.77449
1.77009
1.76379
1.75642
1.74855
1.73423
2.19579
2.15595
2.11268
2.06632
2.02435
1.98189
1.93642
1.89061
1.8534
1.81328
1.77412
1.73383
1.70422
1.67125
1.63949
1.6071
1.58116
1.5582
1.53294
1.50952
1.48788
1.46842
1.44869
1.43
1.41169
1.39522
1.37826
1.36309
1.35269
1.37164
1.49891
1.70893
1.81767
1.8236
1.81103
1.79448
1.77808
1.76553
1.75555
1.75187
1.75998
1.77329
1.78877
1.79521
1.79486
1.79249
1.78476
1.77062
1.7563
1.74703
1.74192
1.73892
1.72982
1.72162
1.71459
1.70477
1.69107
1.67398
1.65413
1.63558
1.62778
1.62205
1.62421
1.64262
1.68739
1.74621
1.80811
1.84701
1.87911
1.88649
1.88725
1.88539
1.88451
1.88023
1.87212
1.86277
1.85135
1.83668
1.82013
1.81058
1.80692
1.80422
1.80291
1.80227
1.80083
1.79487
1.78028
1.75966
1.74654
1.74125
1.73909
1.73856
1.73737
1.73367
1.72848
1.71488
2.18286
2.14861
2.11021
2.06961
2.03226
1.99306
1.94861
1.91042
1.87474
1.83721
1.7965
1.76203
1.73272
1.69912
1.66803
1.63679
1.61434
1.588
1.56249
1.53606
1.51759
1.49952
1.47853
1.46066
1.44241
1.42424
1.40523
1.39173
1.412
1.5512
1.75862
1.86273
1.8559
1.83368
1.80743
1.78628
1.76867
1.75594
1.74562
1.73027
1.71127
1.69931
1.69863
1.70062
1.69962
1.70381
1.70708
1.70721
1.70739
1.70476
1.69987
1.69571
1.69508
1.6947
1.69139
1.68166
1.66831
1.65393
1.63837
1.6223
1.6068
1.59453
1.58908
1.58484
1.58427
1.59308
1.62042
1.664
1.71883
1.76575
1.80246
1.82707
1.83551
1.84034
1.83794
1.83164
1.82302
1.80935
1.795
1.78557
1.78052
1.77582
1.77161
1.76781
1.76544
1.76329
1.75731
1.74451
1.72593
1.7116
1.70693
1.70526
1.70392
1.70223
1.69883
1.68929
2.16808
2.13785
2.10421
2.06914
2.03559
1.99915
1.95836
1.92511
1.89096
1.85518
1.81518
1.78607
1.75451
1.72358
1.69067
1.66492
1.64142
1.61406
1.58846
1.56326
1.54636
1.52585
1.5057
1.48592
1.46708
1.45164
1.43999
1.46943
1.62405
1.81887
1.9074
1.89799
1.86725
1.83957
1.81703
1.79815
1.77924
1.76043
1.74131
1.7198
1.69686
1.68067
1.66663
1.65333
1.64427
1.63835
1.6313
1.62453
1.62111
1.61838
1.62196
1.63213
1.64075
1.64319
1.64333
1.64484
1.64075
1.6314
1.61898
1.60559
1.5891
1.57382
1.56417
1.5588
1.55517
1.54981
1.5443
1.54082
1.55383
1.58667
1.63007
1.68513
1.72801
1.77211
1.78563
1.78498
1.781
1.7738
1.76906
1.76506
1.75809
1.75094
1.74528
1.73983
1.73427
1.7297
1.72558
1.71845
1.70683
1.69255
1.68014
1.67413
1.67139
1.66913
1.66668
1.65899
2.15529
2.12758
2.09711
2.06635
2.0356
2.00134
1.96542
1.93427
1.90306
1.86657
1.83168
1.80419
1.7732
1.74299
1.7101
1.68916
1.66348
1.63747
1.61109
1.58841
1.57119
1.54923
1.52963
1.50948
1.48851
1.47944
1.51868
1.69962
1.89659
1.95469
1.93579
1.90333
1.87249
1.85052
1.83372
1.81456
1.79224
1.76792
1.74322
1.71764
1.69328
1.6721
1.65325
1.63818
1.62692
1.61632
1.60578
1.59563
1.58049
1.55824
1.54221
1.54149
1.54826
1.55722
1.57105
1.58864
1.58901
1.58737
1.58111
1.57225
1.56407
1.55336
1.54525
1.53891
1.53114
1.52453
1.51782
1.51081
1.50372
1.4921
1.49381
1.51325
1.55133
1.60706
1.65607
1.6982
1.72107
1.72243
1.72643
1.72634
1.7258
1.72489
1.7225
1.71817
1.71262
1.70437
1.69391
1.68593
1.67914
1.67137
1.66271
1.65162
1.64159
1.63751
1.63507
1.62813
2.14255
2.11672
2.08863
2.06036
2.03189
2.00023
1.96862
1.93898
1.90888
1.87354
1.84448
1.81818
1.79072
1.75678
1.72867
1.70832
1.68256
1.65795
1.6299
1.61289
1.5928
1.57153
1.54883
1.52754
1.51816
1.56709
1.75799
1.96032
1.99792
1.98004
1.9391
1.90388
1.88069
1.86193
1.84375
1.82422
1.80255
1.7792
1.75461
1.7271
1.69695
1.67095
1.65178
1.63555
1.62078
1.60614
1.59148
1.57739
1.5644
1.55079
1.52995
1.50872
1.49807
1.49237
1.49356
1.50013
1.50944
1.51911
1.52124
1.5167
1.51563
1.5162
1.51152
1.5056
1.50642
1.50455
1.49864
1.49148
1.48009
1.46737
1.45587
1.44989
1.44571
1.45417
1.48072
1.52298
1.57624
1.61762
1.65189
1.66315
1.6701
1.67511
1.67978
1.68652
1.68614
1.6819
1.67126
1.66041
1.65249
1.64687
1.641
1.63351
1.62196
1.60983
1.60517
1.59781
2.12525
2.10265
2.07776
2.05223
2.02558
1.99714
1.96904
1.94139
1.91228
1.88079
1.85464
1.82951
1.80241
1.76941
1.74528
1.72392
1.70017
1.67342
1.64873
1.63205
1.61155
1.58984
1.56693
1.55967
1.61844
1.82208
2.0063
2.03431
2.01705
1.98115
1.94219
1.9083
1.8858
1.8668
1.84769
1.82751
1.80571
1.78291
1.75941
1.73428
1.70673
1.67941
1.65628
1.63651
1.61853
1.60134
1.58501
1.56974
1.556
1.54231
1.52507
1.50361
1.48449
1.47374
1.46564
1.45726
1.45155
1.448
1.45013
1.45081
1.44531
1.44545
1.4498
1.45554
1.46559
1.46808
1.4678
1.46368
1.45525
1.44513
1.43706
1.42718
1.41803
1.41064
1.40702
1.40824
1.42159
1.4525
1.48854
1.52946
1.57202
1.59147
1.60704
1.62464
1.63946
1.64213
1.6418
1.63907
1.63165
1.62337
1.61906
1.61302
1.60375
1.59106
1.58055
1.56952
2.10379
2.08472
2.06444
2.04237
2.01719
1.99122
1.96765
1.94246
1.91414
1.88539
1.86211
1.83733
1.81017
1.77974
1.75873
1.73676
1.71377
1.68666
1.666
1.64832
1.62576
1.6033
1.60122
1.67472
1.89212
2.06574
2.06938
2.04714
2.01005
1.97514
1.94603
1.91784
1.89055
1.86793
1.8481
1.82803
1.80657
1.78416
1.7616
1.73796
1.71174
1.68389
1.65898
1.63907
1.62157
1.60441
1.58738
1.57072
1.55467
1.53892
1.52343
1.50454
1.48161
1.4627
1.4486
1.43829
1.43081
1.42537
1.42045
1.41302
1.40091
1.38767
1.38233
1.38273
1.38892
1.39895
1.40948
1.41795
1.41795
1.41096
1.40368
1.39708
1.39296
1.39071
1.38718
1.38217
1.37674
1.37133
1.36644
1.37624
1.39929
1.43969
1.4816
1.51787
1.54612
1.56926
1.59102
1.60078
1.60003
1.59358
1.58395
1.58105
1.57902
1.57287
1.56209
1.54773
2.09098
2.07138
2.05254
2.03241
2.00945
1.98628
1.9645
1.94105
1.91346
1.88862
1.86643
1.84245
1.81446
1.78777
1.76915
1.74705
1.72451
1.69812
1.6808
1.66046
1.63763
1.64249
1.74033
1.96169
2.1186
2.10783
2.07186
2.03426
2.00065
1.97512
1.95185
1.92579
1.89588
1.86742
1.844
1.82278
1.80216
1.78205
1.76183
1.73996
1.71492
1.68675
1.65932
1.63666
1.61791
1.601
1.58524
1.57036
1.55541
1.53993
1.52389
1.50567
1.48512
1.46322
1.44271
1.42965
1.41919
1.40895
1.39989
1.39316
1.38678
1.37608
1.35733
1.34305
1.33627
1.33579
1.33815
1.34431
1.354
1.35544
1.35403
1.35515
1.35581
1.3559
1.35396
1.35374
1.35324
1.34815
1.3392
1.32754
1.31631
1.31848
1.33085
1.36088
1.40352
1.44435
1.48323
1.51887
1.54659
1.55131
1.54772
1.54031
1.53812
1.53582
1.53549
1.53136
2.07364
2.05553
2.0381
2.01947
1.99842
1.97809
1.95776
1.93592
1.91077
1.88815
1.86556
1.84214
1.81631
1.79463
1.77542
1.75475
1.72985
1.70754
1.69028
1.6697
1.68581
1.81464
2.03702
2.15087
2.14177
2.1077
2.0679
2.03456
2.00749
1.98144
1.95548
1.92701
1.8956
1.86549
1.84002
1.8175
1.79658
1.77661
1.75654
1.73527
1.71156
1.68483
1.65792
1.63546
1.61713
1.60047
1.58455
1.56866
1.55197
1.535
1.51904
1.50376
1.48753
1.47012
1.45128
1.43309
1.41655
1.40173
1.38822
1.37696
1.36951
1.36187
1.35014
1.33626
1.32282
1.31126
1.30376
1.2983
1.29468
1.29406
1.29512
1.2983
1.2995
1.30087
1.30324
1.30644
1.31116
1.313
1.31139
1.3065
1.29747
1.28665
1.27958
1.28145
1.28846
1.30525
1.33653
1.37497
1.41822
1.45376
1.47766
1.49358
1.49471
1.48879
1.49037
1.49633
2.05061
2.03853
2.02031
2.00281
1.98501
1.96775
1.94898
1.92789
1.90587
1.88631
1.86393
1.84131
1.8169
1.79939
1.77948
1.75867
1.73443
1.71479
1.69852
1.72675
1.9035
2.11296
2.19552
2.17327
2.12819
2.09306
2.06353
2.03675
2.01032
1.98126
1.95028
1.91899
1.88844
1.86019
1.83523
1.81286
1.79213
1.77191
1.75103
1.72881
1.70504
1.68007
1.65501
1.63181
1.61272
1.59762
1.58403
1.56949
1.55317
1.53572
1.51787
1.49892
1.47864
1.46153
1.44977
1.43711
1.42225
1.40623
1.38847
1.37041
1.35469
1.34553
1.34034
1.33189
1.31856
1.30426
1.29271
1.28131
1.26843
1.26143
1.25959
1.25675
1.25205
1.24878
1.25021
1.25052
1.25333
1.25772
1.26203
1.26735
1.26775
1.26332
1.25576
1.25425
1.25307
1.25022
1.24974
1.25461
1.26996
1.29909
1.33611
1.37451
1.40743
1.43314
1.4378
1.44956
1.94358
2.0238
2.00773
1.98646
1.97064
1.9558
1.93917
1.91844
1.90024
1.88176
1.86138
1.83799
1.81715
1.80071
1.78018
1.75926
1.73702
1.72412
1.7717
1.96715
2.18065
2.23724
2.20981
2.15814
2.11394
2.07941
2.05364
2.02986
2.00278
1.97247
1.94092
1.91045
1.88169
1.85459
1.82981
1.80756
1.78684
1.76614
1.74421
1.72092
1.69752
1.67531
1.65377
1.63138
1.60876
1.58812
1.57094
1.55719
1.5452
1.53281
1.51853
1.50202
1.48226
1.45801
1.43898
1.42879
1.42018
1.40801
1.39182
1.37331
1.35357
1.33742
1.32752
1.3209
1.31498
1.30579
1.29137
1.27438
1.25894
1.24772
1.23846
1.23116
1.22846
1.22621
1.2209
1.21104
1.20472
1.20418
1.20582
1.21174
1.22077
1.22098
1.2197
1.21992
1.22062
1.22041
1.21823
1.21377
1.21188
1.21388
1.221
1.23872
1.26786
1.30535
1.33343
1.37888
1.65919
1.94311
1.99709
1.97797
1.95713
1.94177
1.92568
1.90859
1.89247
1.87476
1.85592
1.83315
1.81677
1.79966
1.77855
1.75809
1.75021
1.8175
2.05053
2.22112
2.2431
2.22002
2.18036
2.14123
2.1036
2.07111
2.04424
2.01795
1.99054
1.9617
1.93273
1.90453
1.87634
1.84832
1.82239
1.79948
1.7785
1.75777
1.73592
1.71284
1.69008
1.66916
1.64965
1.62968
1.60812
1.58606
1.56554
1.5476
1.5325
1.5198
1.50867
1.49706
1.48195
1.46257
1.44071
1.42224
1.41029
1.39879
1.38637
1.37233
1.35553
1.33962
1.3256
1.3131
1.30332
1.29534
1.28665
1.27473
1.25904
1.24189
1.22779
1.21808
1.21097
1.20616
1.20221
1.19747
1.19113
1.17986
1.1692
1.1673
1.16914
1.17383
1.17477
1.17486
1.17857
1.18102
1.18159
1.1833
1.18507
1.18657
1.18768
1.18914
1.19198
1.19968
1.21199
1.25686
1.19501
1.72234
1.93722
1.96882
1.95125
1.93207
1.91433
1.89698
1.88255
1.86691
1.84956
1.82865
1.81412
1.79464
1.77466
1.77748
1.87855
2.11219
2.26592
2.28312
2.25569
2.20744
2.16307
2.12926
2.09695
2.06341
2.03389
2.007
1.97992
1.95222
1.92456
1.89692
1.86869
1.8405
1.81414
1.79032
1.76832
1.74715
1.72603
1.7047
1.68347
1.66249
1.64164
1.62082
1.59992
1.5795
1.56053
1.54299
1.52669
1.51127
1.49621
1.4821
1.4703
1.45869
1.44407
1.42721
1.41
1.39389
1.37896
1.36574
1.35328
1.33946
1.32537
1.31319
1.30321
1.29336
1.28151
1.26839
1.2545
1.2388
1.22395
1.21316
1.20479
1.19804
1.19276
1.1875
1.18004
1.17105
1.15989
1.14916
1.14422
1.14077
1.1365
1.13266
1.1331
1.13621
1.14045
1.14399
1.14891
1.15562
1.16238
1.16501
1.16423
1.16197
1.15909
1.1657
1.01009
1.28094
1.75788
1.9216
1.94185
1.92575
1.90426
1.88931
1.87376
1.85899
1.83852
1.82429
1.80791
1.7902
1.80061
1.9415
2.20331
2.29308
2.27814
2.25424
2.2227
2.18715
2.15132
2.11786
2.08539
2.05371
2.02379
1.99536
1.96747
1.93947
1.91136
1.88337
1.85593
1.82973
1.80506
1.78157
1.75879
1.73659
1.71528
1.69513
1.6756
1.65561
1.63437
1.61182
1.58894
1.56813
1.55083
1.53566
1.52091
1.50548
1.4889
1.47194
1.45632
1.44343
1.43296
1.42228
1.40859
1.39332
1.37874
1.36368
1.34659
1.32849
1.31594
1.30868
1.30256
1.2947
1.28361
1.2711
1.25508
1.23503
1.22191
1.21481
1.20812
1.19997
1.19169
1.18401
1.17359
1.16232
1.15298
1.14264
1.1356
1.13032
1.12318
1.11695
1.11453
1.11392
1.11338
1.11258
1.11258
1.1151
1.12027
1.12621
1.13177
1.13317
1.13117
1.1298
1.0001
1.02256
1.35319
1.77068
1.90796
1.91578
1.89788
1.87891
1.86472
1.85035
1.83376
1.81832
1.80063
1.82659
2.01575
2.24867
2.34944
2.33546
2.28022
2.22841
2.19404
2.16598
2.13706
2.10585
2.0738
2.04271
2.01242
1.98253
1.95299
1.92386
1.89531
1.8679
1.8422
1.81823
1.79531
1.77266
1.7499
1.7271
1.70481
1.6838
1.6642
1.64497
1.62495
1.60366
1.58152
1.5605
1.54232
1.52644
1.51176
1.49709
1.48134
1.46475
1.44898
1.43438
1.41993
1.40708
1.39664
1.38659
1.3746
1.35926
1.34273
1.32863
1.31626
1.30469
1.29556
1.28841
1.28285
1.27644
1.26463
1.24565
1.22607
1.212
1.20449
1.20064
1.19678
1.18977
1.17712
1.1611
1.14931
1.14089
1.13229
1.12507
1.117
1.11125
1.10995
1.10824
1.10371
1.09497
1.08595
1.08142
1.08166
1.08405
1.09022
1.09824
1.10142
1.10211
1
1.00031
1.04024
1.40509
1.77967
1.89094
1.88942
1.8726
1.8567
1.84018
1.82571
1.81483
1.85994
2.08269
2.32567
2.34754
2.32482
2.29971
2.26318
2.22088
2.18208
2.15012
2.12091
2.09165
2.06222
2.0325
2.00192
1.97052
1.93882
1.90801
1.87948
1.85361
1.82964
1.80658
1.78371
1.76078
1.7381
1.71597
1.69455
1.6738
1.65356
1.63341
1.61296
1.59259
1.57296
1.55416
1.53634
1.51938
1.5033
1.48801
1.47282
1.45724
1.44222
1.4292
1.41654
1.40314
1.39091
1.37868
1.36536
1.35121
1.33756
1.32569
1.31491
1.30444
1.29548
1.28784
1.27851
1.2646
1.24933
1.23704
1.2257
1.21752
1.21022
1.20318
1.1961
1.18663
1.17463
1.16413
1.15431
1.14323
1.1303
1.11976
1.11821
1.11646
1.11256
1.10657
1.09867
1.08905
1.08063
1.07485
1.0713
1.06897
1.06838
1.06879
1.06863
1.0706
1
1
1.00074
1.06001
1.44458
1.77941
1.86823
1.86651
1.85135
1.83089
1.82062
1.89632
2.1621
2.35872
2.40682
2.37406
2.31194
2.26958
2.23917
2.20739
2.17224
2.1371
2.1045
2.07462
2.04646
2.01846
1.98955
1.95929
1.92782
1.89648
1.8676
1.84207
1.81866
1.79584
1.77256
1.74863
1.72508
1.70304
1.6828
1.66366
1.64472
1.62556
1.60578
1.58561
1.56629
1.54848
1.53135
1.51422
1.4972
1.48125
1.46692
1.45339
1.43885
1.42414
1.41449
1.40759
1.39734
1.38376
1.36854
1.354
1.33912
1.32157
1.30989
1.3056
1.3011
1.29304
1.28094
1.26252
1.24363
1.23731
1.23556
1.23091
1.22213
1.21163
1.20205
1.19332
1.18546
1.17732
1.16644
1.15244
1.13781
1.12642
1.11722
1.10941
1.10282
1.09775
1.09226
1.08473
1.0787
1.07443
1.06843
1.06327
1.06003
1.05735
1.05541
1.05054
1
1
1
1.00141
1.07992
1.47273
1.76634
1.84984
1.84408
1.83316
1.92428
2.24586
2.40967
2.39789
2.38608
2.35593
2.3061
2.26064
2.22519
2.19282
2.15898
2.12408
2.09073
2.06004
2.03128
2.00333
1.97551
1.94732
1.91852
1.88942
1.86115
1.83476
1.81016
1.78645
1.76258
1.73813
1.71457
1.69307
1.67352
1.65495
1.63656
1.61833
1.60026
1.58156
1.56253
1.5447
1.52783
1.51064
1.49283
1.47555
1.46058
1.44823
1.43735
1.42633
1.41433
1.40062
1.38688
1.37363
1.36037
1.3483
1.33797
1.32748
1.31677
1.30487
1.29157
1.27879
1.26648
1.25467
1.24611
1.2407
1.23377
1.22413
1.21211
1.20078
1.19211
1.18525
1.17894
1.1715
1.16113
1.14676
1.13124
1.12011
1.11269
1.1062
1.10035
1.09525
1.08997
1.08448
1.07872
1.07026
1.06131
1.05638
1.05324
1.05049
1.04756
1.03921
1
1
1
1.00001
1.00238
1.09687
1.47632
1.77862
1.8061
1.95205
2.29478
2.46448
2.47803
2.42131
2.37306
2.3395
2.30259
2.25986
2.21935
2.18325
2.1484
2.11324
2.07927
2.04805
2.01905
1.99109
1.96368
1.93683
1.91044
1.88415
1.85758
1.83096
1.80484
1.77942
1.75526
1.73193
1.70885
1.68727
1.66838
1.65021
1.63188
1.61351
1.59549
1.5785
1.56098
1.54288
1.52578
1.50885
1.49217
1.47647
1.46198
1.44828
1.43537
1.42291
1.40978
1.3959
1.38242
1.36996
1.35981
1.35061
1.33986
1.32777
1.31531
1.30153
1.28733
1.27393
1.26163
1.25304
1.24778
1.24217
1.23464
1.22379
1.21032
1.19867
1.19036
1.18378
1.1774
1.17008
1.16029
1.14638
1.1304
1.11908
1.1123
1.10617
1.10054
1.09769
1.09503
1.09012
1.08143
1.06936
1.05927
1.05435
1.05095
1.04805
1.04493
1.03603
1
1
1
1
1.00002
1.00309
1.10916
1.49472
1.75344
2.38509
2.53762
2.49732
2.47617
2.43033
2.36765
2.329
2.29533
2.25926
2.22043
2.18169
2.14433
2.1083
2.07426
2.04315
2.01462
1.98745
1.96076
1.9344
1.90842
1.88255
1.85636
1.82959
1.8027
1.77698
1.7528
1.731
1.7136
1.69766
1.67813
1.65706
1.63529
1.61374
1.59467
1.57774
1.56421
1.55227
1.53778
1.52222
1.50636
1.49044
1.47435
1.45858
1.44387
1.43027
1.41743
1.40495
1.39289
1.38216
1.37273
1.36261
1.35057
1.33696
1.32241
1.30752
1.29336
1.28121
1.27229
1.2661
1.26054
1.25425
1.24552
1.23191
1.21586
1.20457
1.19789
1.19249
1.18695
1.18032
1.17059
1.15506
1.13639
1.12463
1.11923
1.11587
1.11483
1.11372
1.11037
1.10336
1.09166
1.07644
1.06528
1.05994
1.05601
1.05224
1.04842
1.03873
1
1
1
1
1
1.00002
1.00414
1.12646
2.03594
2.74002
2.70779
2.56456
2.50454
2.45065
2.37557
2.32518
2.28816
2.25472
2.22009
2.18278
2.14524
2.10934
2.07528
2.04318
2.01377
1.98679
1.96103
1.93567
1.9102
1.88379
1.85529
1.82522
1.79727
1.77386
1.75382
1.73549
1.71556
1.69172
1.6678
1.64539
1.62555
1.60872
1.59329
1.57814
1.56216
1.54482
1.52832
1.51222
1.49606
1.47974
1.46344
1.44748
1.43215
1.41779
1.40448
1.39206
1.38086
1.37131
1.36225
1.3521
1.34027
1.32671
1.3115
1.29545
1.28058
1.26963
1.26241
1.25664
1.25109
1.24487
1.23593
1.22155
1.20482
1.19417
1.18798
1.1828
1.17753
1.17136
1.1625
1.14738
1.12759
1.11314
1.10857
1.10785
1.10752
1.10657
1.10336
1.09633
1.08379
1.06683
1.05562
1.05097
1.04727
1.04309
1.0387
1.02869
)
;

boundaryField
{
    inlet
    {
        type            fixedValue;
        value           uniform 1;
    }
    outlet
    {
        type            inletOutlet;
        inletValue      uniform 1;
        value           nonuniform List<scalar> 
32
(
1.98112
1.96762
1.94104
1.90441
1.86057
1.82037
1.79498
1.77862
1.76852
1.75348
1.73375
1.71382
1.68891
1.65907
1.62841
1.59801
1.56944
1.54733
1.53132
1.49734
1.44907
1.37643
1.25331
1.16424
1.12914
1.10124
1.06992
1.04957
1.03826
1.03509
1.03783
1.02777
)
;
    }
    bottom
    {
        type            symmetryPlane;
    }
    top
    {
        type            symmetryPlane;
    }
    obstacle
    {
        type            zeroGradient;
    }
    defaultFaces
    {
        type            empty;
    }
}


// ************************************************************************* //
