/*--------------------------------*- C++ -*----------------------------------*\
  =========                 |
  \\      /  F ield         | OpenFOAM: The Open Source CFD Toolbox
   \\    /   O peration     | Website:  https://openfoam.org
    \\  /    A nd           | Version:  7
     \\/     M anipulation  |
\*---------------------------------------------------------------------------*/
FoamFile
{
    version     2.0;
    format      ascii;
    class       volVectorField;
    location    "1.9";
    object      U;
}
// * * * * * * * * * * * * * * * * * * * * * * * * * * * * * * * * * * * * * //

dimensions      [0 1 -1 0 0 0 0];

internalField   nonuniform List<vector> 
4032
(
(3 5.99008e-19 0)
(3 -1.98911e-16 0)
(3 5.22199e-18 0)
(3 5.31784e-16 0)
(3 -2.6708e-16 0)
(3 -5.13997e-16 0)
(3 -3.45727e-16 0)
(3 -3.76013e-18 0)
(3 -3.46268e-16 0)
(3 -5.39677e-16 0)
(3 -7.43088e-16 0)
(3 -8.88047e-16 0)
(1.44263 0.0151972 0)
(0.735515 0.0155944 0)
(0.663036 0.0236808 0)
(0.608211 0.0257236 0)
(0.549383 0.0273625 0)
(0.489189 0.0294658 0)
(0.425721 0.0313986 0)
(0.359402 0.0328749 0)
(0.289538 0.0348461 0)
(0.214133 0.0379594 0)
(0.132638 0.0401854 0)
(0.0486345 0.0442941 0)
(3 5.49239e-17 0)
(3 6.85871e-17 0)
(3 4.30378e-16 0)
(3 5.2142e-16 0)
(3 -9.45935e-17 0)
(3 -6.30564e-16 0)
(3 -5.70659e-16 0)
(3 -2.23957e-17 0)
(3 -2.24211e-16 0)
(3 -5.69978e-16 0)
(3 -8.02675e-16 0)
(3 -1.52376e-15 0)
(1.47507 0.072959 0)
(0.728097 0.066474 0)
(0.646829 0.0731212 0)
(0.589741 0.0761379 0)
(0.529501 0.0795253 0)
(0.469118 0.0851487 0)
(0.406936 0.0911915 0)
(0.343155 0.0969 0)
(0.276572 0.104624 0)
(0.204908 0.115789 0)
(0.126584 0.123882 0)
(0.0465444 0.136134 0)
(3 -2.13443e-17 0)
(3 3.40049e-16 0)
(3 1.28655e-16 0)
(3 -3.39296e-16 0)
(3 -9.78283e-17 0)
(3 8.91134e-17 0)
(3 5.05825e-17 0)
(3 2.43536e-16 0)
(3 7.1277e-16 0)
(3 6.63833e-16 0)
(3 4.43938e-16 0)
(3 -1.34659e-15 0)
(1.57673 0.130697 0)
(0.741272 0.11982 0)
(0.64996 0.12678 0)
(0.589534 0.131746 0)
(0.525934 0.136938 0)
(0.463027 0.144669 0)
(0.399392 0.152364 0)
(0.3353 0.159859 0)
(0.269449 0.171355 0)
(0.199942 0.189666 0)
(0.12287 0.203377 0)
(0.0455916 0.222861 0)
(3 -8.49285e-17 0)
(3 -1.20506e-16 0)
(3 -6.03103e-17 0)
(3 3.12251e-17 0)
(3 -2.0965e-16 0)
(3 2.30331e-16 0)
(3 5.14173e-16 0)
(3 5.99086e-16 0)
(3 9.43026e-16 0)
(3 7.24688e-16 0)
(3 4.81152e-16 0)
(3 -4.05772e-16 0)
(1.74289 0.181217 0)
(0.765755 0.175569 0)
(0.663062 0.181068 0)
(0.602639 0.187971 0)
(0.538362 0.195445 0)
(0.474228 0.205836 0)
(0.408229 0.215712 0)
(0.340982 0.225394 0)
(0.272111 0.240156 0)
(0.201968 0.265143 0)
(0.123631 0.285105 0)
(0.0450313 0.310027 0)
(3 8.32578e-17 0)
(3 -1.29873e-16 0)
(3 -2.78344e-17 0)
(3 -1.79545e-16 0)
(3 -2.32352e-16 0)
(3 6.55789e-17 0)
(3 5.98701e-17 0)
(3 -9.09686e-17 0)
(3 -3.69067e-16 0)
(3 -5.73172e-16 0)
(3 -5.89795e-16 0)
(3 -9.23532e-16 0)
(1.9732 0.218272 0)
(0.801001 0.232907 0)
(0.675488 0.23553 0)
(0.61255 0.24563 0)
(0.546196 0.256522 0)
(0.482389 0.270085 0)
(0.418649 0.282417 0)
(0.354805 0.29421 0)
(0.288554 0.31094 0)
(0.220499 0.3414 0)
(0.138812 0.370424 0)
(0.0522744 0.403312 0)
(3 3.89425e-17 0)
(3 -1.38514e-16 0)
(3 -4.24826e-16 0)
(3 -6.38877e-16 0)
(3 -2.34672e-16 0)
(3 -4.41688e-17 0)
(3 -2.75275e-16 0)
(3 -5.11191e-16 0)
(3 -5.09607e-16 0)
(3 -5.69654e-16 0)
(3 4.74066e-17 0)
(3 -1.07711e-15 0)
(2.26044 0.250336 0)
(0.83989 0.304006 0)
(0.68627 0.297199 0)
(0.633358 0.309246 0)
(0.574934 0.321188 0)
(0.516913 0.335028 0)
(0.456575 0.347846 0)
(0.392866 0.36234 0)
(0.321941 0.385886 0)
(0.244843 0.427828 0)
(0.155151 0.474323 0)
(0.0520733 0.514906 0)
(3 -1.03916e-16 0)
(3 4.43796e-17 0)
(3 -1.46343e-16 0)
(3 -1.69413e-16 0)
(3 -3.13655e-16 0)
(3 -5.8696e-16 0)
(3 -3.9733e-16 0)
(3 -2.36983e-16 0)
(3 -1.42027e-16 0)
(3 1.56203e-16 0)
(3 1.39847e-15 0)
(3 1.0199e-15 0)
(2.67451 0.241845 0)
(0.95436 0.378319 0)
(0.75277 0.331885 0)
(0.705777 0.348687 0)
(0.647806 0.369009 0)
(0.589466 0.390741 0)
(0.52735 0.411322 0)
(0.460222 0.435662 0)
(0.388865 0.469519 0)
(0.3142 0.519468 0)
(0.227549 0.579769 0)
(0.100497 0.651091 0)
(3 5.28094e-17 0)
(3 1.44296e-16 0)
(3 2.74965e-16 0)
(3 4.74807e-17 0)
(3 -6.65215e-16 0)
(3 -1.22818e-15 0)
(3 -1.29098e-15 0)
(3 -1.10531e-15 0)
(3 -7.04663e-16 0)
(3 7.72648e-16 0)
(3 1.19012e-15 0)
(3 5.88426e-16 0)
(3.02737 0.0566118 0)
(1.12816 0.40035 0)
(0.81758 0.366867 0)
(0.77572 0.39872 0)
(0.723548 0.422241 0)
(0.672209 0.446628 0)
(0.614147 0.473362 0)
(0.5527 0.506331 0)
(0.48376 0.545973 0)
(0.40664 0.617483 0)
(0.283414 0.740239 0)
(0.152306 0.915354 0)
(3 4.70374e-17 0)
(3 -2.0087e-16 0)
(3 -9.33603e-17 0)
(3 2.72594e-16 0)
(3 3.19799e-16 0)
(3 3.94809e-17 0)
(3 -8.75825e-16 0)
(3 -9.6333e-16 0)
(3 -5.41719e-16 0)
(3 -4.48977e-16 0)
(3 -4.1222e-16 0)
(3 -9.43444e-16 0)
(3.01135 0.00179352 0)
(1.30588 0.399373 0)
(0.826411 0.425047 0)
(0.773394 0.454119 0)
(0.728759 0.476361 0)
(0.694443 0.505232 0)
(0.656999 0.540121 0)
(0.619796 0.583012 0)
(0.567245 0.636452 0)
(0.517872 0.742635 0)
(0.481982 0.911221 0)
(0.58775 1.18951 0)
(3 -1.09119e-17 0)
(3 -2.99831e-16 0)
(3 8.60194e-18 0)
(3 4.47557e-16 0)
(3 8.67863e-16 0)
(3 5.62881e-16 0)
(3 6.01229e-16 0)
(3 6.26708e-16 0)
(3 1.27393e-16 0)
(3 -9.40183e-16 0)
(3 -1.24027e-15 0)
(3 -5.2848e-16 0)
(3.00011 -2.10794e-06 0)
(1.65934 0.450095 0)
(0.840337 0.483876 0)
(0.772246 0.49584 0)
(0.742669 0.515905 0)
(0.718035 0.542489 0)
(0.699443 0.580739 0)
(0.682736 0.632492 0)
(0.663302 0.704012 0)
(0.654572 0.821459 0)
(0.711375 0.964178 0)
(0.985681 1.13433 0)
(3 -1.21328e-16 0)
(3 3.82911e-16 0)
(3 7.62414e-16 0)
(3 1.14849e-15 0)
(3 9.46504e-16 0)
(3 5.03114e-16 0)
(3 6.39081e-16 0)
(3 5.39354e-16 0)
(3 1.66546e-16 0)
(3 -2.8745e-16 0)
(3 -3.81461e-16 0)
(3 5.56532e-16 0)
(3 -6.12166e-07 0)
(2.29371 0.446411 0)
(0.945421 0.576001 0)
(0.827115 0.524401 0)
(0.798062 0.542708 0)
(0.768252 0.570497 0)
(0.755348 0.610699 0)
(0.748264 0.66653 0)
(0.759827 0.745461 0)
(0.786709 0.852463 0)
(0.900524 0.965231 0)
(1.19607 1.06577 0)
(3 -3.33294e-16 0)
(3 2.46041e-16 0)
(3 4.74676e-16 0)
(3 9.08752e-16 0)
(3 8.14031e-16 0)
(3 6.49356e-16 0)
(3 3.85899e-16 0)
(3 -1.38044e-16 0)
(3 -6.2424e-16 0)
(3 -5.25028e-16 0)
(3 -3.27841e-16 0)
(3 4.42257e-16 0)
(3 -1.5682e-07 0)
(3.03735 0.132665 0)
(1.20569 0.585025 0)
(0.928889 0.557225 0)
(0.89119 0.57965 0)
(0.85164 0.604461 0)
(0.827984 0.641146 0)
(0.820172 0.693157 0)
(0.843728 0.766162 0)
(0.899156 0.859694 0)
(1.04092 0.953195 0)
(1.2975 1.01564 0)
(3 9.86979e-17 0)
(3 -2.10513e-16 0)
(3 -2.21669e-16 0)
(3 -3.84453e-16 0)
(3 -2.61231e-16 0)
(3 -1.41534e-17 0)
(3 -1.08792e-16 0)
(3 -6.47241e-16 0)
(3 -1.3714e-15 0)
(3 -1.02841e-15 0)
(3 -6.70944e-16 0)
(3 -1.89589e-16 0)
(3 -1.61697e-08 0)
(3.02959 0.00279507 0)
(1.46531 0.57027 0)
(0.949915 0.643379 0)
(0.90638 0.645242 0)
(0.88381 0.659015 0)
(0.87604 0.685165 0)
(0.883482 0.722528 0)
(0.914797 0.775623 0)
(0.983894 0.846994 0)
(1.12496 0.916795 0)
(1.33341 0.95761 0)
(3 3.95968e-16 0)
(3 2.88248e-16 0)
(3 -4.42218e-16 0)
(3 -1.1682e-15 0)
(3 -1.48083e-15 0)
(3 -1.40197e-15 0)
(3 -1.4587e-15 0)
(3 -1.37921e-15 0)
(3 -6.11209e-16 0)
(3 -3.49663e-16 0)
(3 1.32665e-16 0)
(3 -1.2219e-16 0)
(3 -5.55374e-10 0)
(3.00043 -7.57728e-06 0)
(2.16108 0.555067 0)
(1.03595 0.717844 0)
(0.956386 0.681386 0)
(0.936134 0.686354 0)
(0.932704 0.704592 0)
(0.946755 0.73724 0)
(0.983684 0.783322 0)
(1.05947 0.840185 0)
(1.18851 0.891591 0)
(1.35811 0.918906 0)
(3 -1.16619e-16 0)
(3 7.59809e-18 0)
(3 -5.11116e-16 0)
(3 -7.60153e-16 0)
(3 -8.69582e-16 0)
(3 -9.68089e-16 0)
(3 -1.38788e-15 0)
(3 -1.16654e-15 0)
(3 -2.15961e-16 0)
(3 4.92245e-16 0)
(3 1.45506e-16 0)
(3 -2.00214e-16 0)
(3 -1.57242e-12 0)
(3.00002 -9.88106e-06 0)
(3.05122 0.141367 0)
(1.3345 0.709536 0)
(1.05606 0.702709 0)
(1.02762 0.70149 0)
(1.01343 0.72181 0)
(1.02046 0.748492 0)
(1.05341 0.785131 0)
(1.12165 0.824928 0)
(1.22862 0.859602 0)
(1.36455 0.876901 0)
(3 -1.64678e-16 0)
(3 -3.21434e-16 0)
(3 -3.61304e-16 0)
(3 -4.20518e-16 0)
(3 1.90918e-16 0)
(3 -7.20907e-17 0)
(3 1.41907e-17 0)
(3 -3.88076e-16 0)
(3 -8.30801e-16 0)
(3 -4.01399e-16 0)
(3 -2.06134e-16 0)
(3 1.90584e-16 0)
(3 -1.67902e-15 0)
(3 -2.04242e-06 0)
(3.02515 0.00184522 0)
(1.72365 0.671474 0)
(1.08797 0.771847 0)
(1.06591 0.767842 0)
(1.06838 0.773718 0)
(1.08334 0.788578 0)
(1.11547 0.80888 0)
(1.17768 0.833041 0)
(1.26641 0.852717 0)
(1.3796 0.860017 0)
(3 8.14491e-17 0)
(3 -3.59794e-17 0)
(3 -3.32725e-17 0)
(3 6.1645e-17 0)
(3 1.50936e-16 0)
(3 6.59254e-16 0)
(3 7.44418e-16 0)
(3 3.42095e-16 0)
(3 -4.8899e-16 0)
(3 -8.06935e-16 0)
(3 -3.07922e-16 0)
(3 3.04397e-16 0)
(3 4.78976e-16 0)
(3 -1.58688e-07 0)
(3.00027 9.88141e-06 0)
(2.68728 0.390381 0)
(1.24971 0.78327 0)
(1.12093 0.777524 0)
(1.13716 0.777635 0)
(1.15323 0.796928 0)
(1.18283 0.814 0)
(1.23536 0.829048 0)
(1.30834 0.840037 0)
(1.40313 0.842385 0)
(3 2.13318e-16 0)
(3 5.43022e-17 0)
(3 4.70531e-16 0)
(3 1.21963e-15 0)
(3 6.5349e-16 0)
(3 6.76066e-16 0)
(3 7.55573e-16 0)
(3 1.29214e-15 0)
(3 1.08227e-15 0)
(3 -2.96495e-16 0)
(3 -1.02466e-15 0)
(3 -3.08176e-16 0)
(3 3.34717e-16 0)
(3 -7.74752e-10 0)
(3.00002 -7.04938e-06 0)
(3.06034 0.0272738 0)
(1.59756 0.736116 0)
(1.1552 0.809957 0)
(1.17606 0.81321 0)
(1.19514 0.82921 0)
(1.23108 0.842367 0)
(1.2817 0.852845 0)
(1.34615 0.856981 0)
(1.42582 0.852964 0)
(3 -4.80179e-18 0)
(3 1.35381e-17 0)
(3 5.81765e-16 0)
(3 5.40677e-16 0)
(3 1.81553e-16 0)
(3 -5.05107e-17 0)
(3 1.09939e-16 0)
(3 7.49849e-16 0)
(3 6.66341e-16 0)
(3 1.92508e-17 0)
(3 -7.71331e-16 0)
(3 4.99258e-16 0)
(3 1.05018e-15 0)
(3 -1.13625e-12 0)
(3 -1.40547e-06 0)
(3.00251 0.000418441 0)
(2.44512 0.543944 0)
(1.26438 0.850638 0)
(1.20123 0.836018 0)
(1.23433 0.838824 0)
(1.27254 0.846305 0)
(1.32422 0.85281 0)
(1.38628 0.853128 0)
(1.456 0.84788 0)
(3 -2.43084e-16 0)
(3 -4.99923e-17 0)
(3 -4.69074e-16 0)
(3 -1.00044e-15 0)
(3 -5.61716e-16 0)
(3 -3.72211e-16 0)
(3 -2.29499e-16 0)
(3 2.93056e-16 0)
(3 1.16732e-15 0)
(3 8.11082e-16 0)
(3 1.79427e-16 0)
(3 2.28466e-16 0)
(3 9.45518e-16 0)
(3 -5.754e-16 0)
(3 -1.03778e-07 0)
(3 7.74437e-07 0)
(3.05655 0.0674637 0)
(1.6529 0.808447 0)
(1.24466 0.845575 0)
(1.27885 0.84785 0)
(1.30776 0.858391 0)
(1.35458 0.86453 0)
(1.41196 0.865698 0)
(1.47531 0.862766 0)
(3 -3.0105e-17 0)
(3 4.15811e-18 0)
(3 -5.73556e-16 0)
(3 -7.42214e-16 0)
(3 -3.53051e-16 0)
(3 -4.54038e-16 0)
(3 -8.20546e-17 0)
(3 1.73575e-16 0)
(3 1.16471e-15 0)
(3 2.24402e-15 0)
(3 1.81054e-15 0)
(3 -1.23167e-15 0)
(3 -1.75712e-15 0)
(3 -1.50989e-15 0)
(3 -5.35214e-10 0)
(3 -7.69496e-08 0)
(3.00555 0.00181635 0)
(2.52891 0.567686 0)
(1.3601 0.900786 0)
(1.30702 0.878309 0)
(1.34471 0.871571 0)
(1.38518 0.867837 0)
(1.4379 0.864439 0)
(1.49717 0.860187 0)
(3 6.80313e-17 0)
(3 -1.3134e-16 0)
(3 -1.19935e-16 0)
(3 -5.00942e-17 0)
(3 2.42338e-16 0)
(3 4.10233e-16 0)
(3 2.3938e-16 0)
(3 9.69736e-17 0)
(3 4.92537e-16 0)
(3 9.20002e-16 0)
(3 7.96566e-16 0)
(3 -5.44772e-17 0)
(3 -1.3551e-15 0)
(3 -1.22325e-15 0)
(3 -8.33766e-13 0)
(3 -1.51649e-08 0)
(3.00001 1.11957e-05 0)
(3.05223 0.0627078 0)
(1.79921 0.817664 0)
(1.35107 0.892064 0)
(1.38828 0.885036 0)
(1.42098 0.881714 0)
(1.464 0.87741 0)
(1.5133 0.871404 0)
(3 6.40704e-17 0)
(3 -3.56151e-17 0)
(3 1.5034e-17 0)
(3 1.78752e-16 0)
(3 -5.80077e-16 0)
(3 -3.47321e-16 0)
(3 -2.41844e-16 0)
(3 3.67118e-17 0)
(3 -1.7602e-16 0)
(3 -8.05069e-16 0)
(3 -1.80849e-15 0)
(3 -1.07347e-15 0)
(3 -1.12605e-15 0)
(3 -9.34821e-16 0)
(3 -1.09608e-15 0)
(3 -1.25139e-09 0)
(3 2.27793e-09 0)
(3.00357 0.00220574 0)
(2.69362 0.452083 0)
(1.53829 0.932662 0)
(1.40639 0.910389 0)
(1.44876 0.905893 0)
(1.48514 0.89723 0)
(1.52837 0.883411 0)
(3 -6.86437e-17 0)
(3 1.08917e-16 0)
(3 -3.03576e-18 0)
(3 -2.7014e-16 0)
(3 -7.04763e-16 0)
(3 -9.60208e-16 0)
(3 -9.34924e-16 0)
(3 -1.13759e-15 0)
(3 -1.5416e-15 0)
(3 -1.45076e-15 0)
(3 -1.57742e-15 0)
(3 -8.95533e-16 0)
(3 -1.05029e-15 0)
(3 -1.58574e-16 0)
(3 5.83365e-16 0)
(3 -3.31815e-11 0)
(3 -2.78921e-11 0)
(3.00001 1.21627e-05 0)
(3.0285 0.0351571 0)
(2.09595 0.782607 0)
(1.47223 0.931126 0)
(1.48096 0.921623 0)
(1.51314 0.908596 0)
(1.54859 0.89434 0)
(3 5.91413e-18 0)
(3 2.46405e-16 0)
(3 5.14793e-17 0)
(3 -2.49207e-16 0)
(3 -2.03583e-16 0)
(3 -1.61415e-16 0)
(3 5.08926e-17 0)
(3 -5.34558e-16 0)
(3 -1.16513e-15 0)
(3 -7.31188e-16 0)
(3 3.34941e-16 0)
(3 5.13613e-16 0)
(3 3.3877e-16 0)
(3 2.59496e-16 0)
(3 7.54707e-16 0)
(3 -1.24391e-13 0)
(3 -9.21027e-12 0)
(3 4.74808e-09 0)
(3.00084 0.00132362 0)
(2.90278 0.250919 0)
(1.78904 0.896482 0)
(1.50581 0.941373 0)
(1.54476 0.927164 0)
(1.5782 0.910411 0)
(3 -1.37762e-17 0)
(3 4.51143e-17 0)
(3 2.38343e-16 0)
(3 2.58204e-16 0)
(3 7.39615e-17 0)
(3 8.87539e-18 0)
(3 9.24103e-18 0)
(3 3.88776e-16 0)
(3 2.40093e-16 0)
(3 -1.25813e-16 0)
(3 -4.24699e-16 0)
(3 -2.15753e-16 0)
(3 7.0066e-17 0)
(3 -4.66497e-16 0)
(3 -2.04695e-16 0)
(3 -1.06321e-15 0)
(3 -9.02158e-13 0)
(3 -1.65025e-12 0)
(3 4.41636e-06 0)
(3.00741 0.0155542 0)
(2.52586 0.575672 0)
(1.6535 0.970602 0)
(1.55658 0.949872 0)
(1.59772 0.935533 0)
(3 2.45246e-17 0)
(3 2.7353e-16 0)
(3 7.8073e-16 0)
(3 7.67581e-16 0)
(3 2.77502e-16 0)
(3 2.35575e-16 0)
(3 2.54954e-16 0)
(3 -1.7653e-16 0)
(3 -4.78956e-16 0)
(3 -4.97904e-16 0)
(3 -1.11464e-15 0)
(3 -4.79888e-16 0)
(3 -3.69182e-17 0)
(3 -2.25863e-16 0)
(3 -6.43816e-16 0)
(3 -9.29742e-16 0)
(3 -3.13758e-14 0)
(3 -1.4342e-12 0)
(3 1.89583e-09 0)
(3.00002 0.000312113 0)
(2.99715 0.0786959 0)
(2.17478 0.786744 0)
(1.62859 0.965045 0)
(1.62112 0.960889 0)
(3 -2.83585e-17 0)
(3 -3.70776e-17 0)
(3 2.68436e-17 0)
(3 -2.79468e-17 0)
(3 1.28908e-16 0)
(3 2.33375e-16 0)
(3 3.64251e-16 0)
(3 -5.5971e-16 0)
(3 -9.75486e-16 0)
(3 1.48306e-17 0)
(3 4.04986e-16 0)
(3 3.20837e-16 0)
(3 3.54923e-17 0)
(3 2.92322e-16 0)
(3 2.84502e-16 0)
(3 6.60133e-16 0)
(3 -6.98796e-16 0)
(3 -5.28709e-13 0)
(3 -3.68088e-13 0)
(3 4.92342e-07 0)
(3.00054 0.00367075 0)
(2.87489 0.258651 0)
(1.96061 0.877309 0)
(1.66965 0.969684 0)
(3 8.34388e-17 0)
(3 -5.68001e-16 0)
(3 -1.00135e-15 0)
(3 -6.05281e-16 0)
(3 3.24047e-16 0)
(3 3.37105e-16 0)
(3 -9.46571e-17 0)
(3 1.05277e-16 0)
(3 5.32727e-16 0)
(3 1.03475e-15 0)
(3 1.15038e-15 0)
(3 4.40049e-16 0)
(3 3.01534e-16 0)
(3 1.00139e-15 0)
(3 1.11551e-15 0)
(3 1.1436e-15 0)
(3 1.56858e-15 0)
(3 -4.11968e-14 0)
(3 -2.18226e-13 0)
(3 2.39884e-10 0)
(3 2.05003e-05 0)
(3.00019 0.0184701 0)
(2.64179 0.468607 0)
(1.86864 0.930762 0)
(3 6.17339e-17 0)
(3 -8.00309e-17 0)
(3 -2.11044e-17 0)
(3 3.45731e-18 0)
(3 7.34217e-19 0)
(3 -1.72518e-16 0)
(3 -3.07315e-16 0)
(3 3.04293e-17 0)
(3 5.1611e-16 0)
(3 6.57342e-16 0)
(3 5.21031e-16 0)
(3 1.48978e-16 0)
(3 2.84205e-16 0)
(3 5.73714e-16 0)
(3 7.48124e-16 0)
(3 9.28651e-16 0)
(3 1.07378e-15 0)
(3 4.78622e-19 0)
(3 -4.07708e-14 0)
(3 -1.29648e-14 0)
(3 1.70645e-08 0)
(2.99995 0.000337974 0)
(2.98917 0.0518078 0)
(2.41563 0.63639 0)
(3 -4.19415e-17 0)
(3 1.93014e-16 0)
(3 4.25557e-16 0)
(3 3.30131e-16 0)
(3 2.93522e-16 0)
(3 8.38462e-17 0)
(3 -2.03484e-16 0)
(3 2.11145e-16 0)
(3 6.33536e-16 0)
(3 7.20061e-16 0)
(3 -8.47506e-17 0)
(3 4.01073e-17 0)
(3 4.52559e-16 0)
(3 7.77955e-16 0)
(3 8.43096e-16 0)
(3 -3.02851e-16 0)
(3 -1.05231e-15 0)
(3 -3.70454e-16 0)
(3 -1.0934e-15 0)
(3 -2.73973e-15 0)
(3 5.32092e-12 0)
(3 5.83955e-07 0)
(2.9998 0.00195125 0)
(2.94289 0.121139 0)
(3 5.35338e-17 0)
(3 1.03134e-16 0)
(3 1.35147e-18 0)
(3 3.80464e-16 0)
(3 7.848e-16 0)
(3 7.98412e-16 0)
(3 4.70114e-16 0)
(3 5.67381e-16 0)
(3 7.44866e-16 0)
(3 9.50251e-17 0)
(3 -9.21774e-16 0)
(3 -1.00805e-15 0)
(3 5.50031e-16 0)
(3 1.21821e-15 0)
(3 5.64319e-16 0)
(3 -1.1915e-15 0)
(3 -1.71898e-15 0)
(3 -9.64774e-16 0)
(3 -3.55102e-16 0)
(3 3.72277e-16 0)
(3 1.10879e-15 0)
(3 3.90731e-10 0)
(3 7.07431e-06 0)
(2.99892 0.006501 0)
(3 -8.60016e-17 0)
(3 -2.91627e-16 0)
(3 -6.97651e-17 0)
(3 2.07206e-16 0)
(3 -1.52406e-16 0)
(3 -6.56288e-16 0)
(3 -4.97768e-16 0)
(3 -6.45499e-16 0)
(3 -5.90592e-16 0)
(3 -8.30922e-16 0)
(3 -6.44934e-16 0)
(3 1.34913e-17 0)
(3 -1.86783e-16 0)
(3 -6.42693e-17 0)
(3 -8.33627e-17 0)
(3 -2.67674e-16 0)
(3 -8.27962e-16 0)
(3 -7.26277e-16 0)
(3 -1.05728e-15 0)
(3 -4.15663e-16 0)
(3 -4.18876e-16 0)
(3 3.70939e-14 0)
(3 7.10912e-09 0)
(2.99999 4.94455e-05 0)
(3 -1.30034e-16 0)
(3 -2.5991e-17 0)
(3 9.99716e-17 0)
(3 -2.23585e-16 0)
(3 -9.0311e-16 0)
(3 -1.21233e-15 0)
(3 -6.97057e-16 0)
(3 -1.11235e-15 0)
(3 -8.945e-16 0)
(3 -3.81989e-16 0)
(3 5.08506e-16 0)
(3 7.14576e-16 0)
(3 2.86154e-16 0)
(3 -5.35179e-16 0)
(3 -7.15087e-16 0)
(3 -1.16667e-16 0)
(3 5.27267e-16 0)
(3 -1.74223e-16 0)
(3 -1.12606e-15 0)
(3 -5.84301e-16 0)
(3 -1.44366e-16 0)
(3 -2.41777e-15 0)
(3 1.47954e-12 0)
(3 6.73166e-08 0)
(3 -7.5482e-18 0)
(3 8.92931e-17 0)
(3 1.50895e-17 0)
(3 -2.54427e-16 0)
(3 -2.1366e-17 0)
(3 4.11317e-16 0)
(3 1.36258e-16 0)
(3 -1.51405e-16 0)
(3 -3.88932e-16 0)
(3 3.95469e-17 0)
(3 5.75872e-16 0)
(3 6.22828e-16 0)
(3 -1.42143e-16 0)
(3 -3.67491e-16 0)
(3 -2.27879e-16 0)
(3 7.72422e-17 0)
(3 7.81953e-16 0)
(3 8.15256e-16 0)
(3 9.28164e-16 0)
(3 8.65288e-16 0)
(3 6.13572e-16 0)
(3 -1.33469e-15 0)
(3 -1.63369e-15 0)
(3 2.60193e-11 0)
(3 -8.41417e-17 0)
(3 -3.24136e-17 0)
(3 -2.14825e-18 0)
(3 -3.423e-18 0)
(3 8.59491e-17 0)
(3 4.36379e-16 0)
(3 6.1987e-16 0)
(3 9.1392e-16 0)
(3 6.04913e-16 0)
(3 4.90577e-16 0)
(3 5.24526e-16 0)
(3 5.15318e-16 0)
(3 -5.06706e-17 0)
(3 3.03937e-16 0)
(3 1.20275e-15 0)
(3 1.59615e-15 0)
(3 1.4787e-15 0)
(3 8.25025e-16 0)
(3 9.8238e-16 0)
(3 4.25181e-16 0)
(3 1.98561e-16 0)
(3 2.91485e-16 0)
(3 -3.22716e-16 0)
(3 9.99057e-16 0)
(3 1.21466e-16 0)
(3 5.26494e-16 0)
(3 3.03246e-16 0)
(3 8.95856e-17 0)
(3 -5.44857e-17 0)
(3 4.05296e-16 0)
(3 1.5275e-15 0)
(3 1.80796e-15 0)
(3 1.69795e-15 0)
(3 7.41925e-16 0)
(3 -6.77719e-16 0)
(3 -1.31052e-15 0)
(3 -5.23309e-16 0)
(3 6.09582e-17 0)
(3 3.33313e-16 0)
(3 9.67899e-18 0)
(3 -3.79364e-16 0)
(3 -8.66271e-16 0)
(3 -1.27088e-15 0)
(3 -4.14367e-16 0)
(3 1.04172e-15 0)
(3 1.05091e-15 0)
(3 1.65073e-15 0)
(3 -1.1489e-16 0)
(3 2.41777e-17 0)
(3 2.06255e-16 0)
(3 2.18636e-16 0)
(3 2.15137e-17 0)
(3 -2.35142e-16 0)
(3 4.31639e-17 0)
(3 1.00771e-15 0)
(3 1.52687e-15 0)
(3 1.49428e-15 0)
(3 9.30734e-16 0)
(3 -2.88012e-16 0)
(3 -1.03533e-15 0)
(3 -5.50708e-16 0)
(3 -3.47196e-16 0)
(3 -8.80281e-16 0)
(3 -1.18151e-15 0)
(3 -1.31033e-15 0)
(3 -1.12352e-15 0)
(3 -8.47597e-16 0)
(3 6.22244e-16 0)
(3 1.79408e-15 0)
(3 1.7702e-15 0)
(3 1.39628e-15 0)
(3 6.60395e-16 0)
(3 -9.35045e-17 0)
(3 -5.2146e-16 0)
(3 -4.17e-16 0)
(3 -1.99467e-16 0)
(3 4.31966e-18 0)
(3 2.50038e-16 0)
(3 6.04078e-16 0)
(3 7.91351e-16 0)
(3 -7.09195e-17 0)
(3 -5.50122e-16 0)
(3 -4.02768e-16 0)
(3 -7.58239e-16 0)
(3 -6.06215e-16 0)
(3 -3.77117e-16 0)
(3 -2.22696e-16 0)
(3 1.36446e-17 0)
(3 1.0143e-16 0)
(3 5.52415e-17 0)
(3 4.31478e-16 0)
(3 1.10406e-15 0)
(3 1.24352e-15 0)
(3 1.14493e-15 0)
(3 3.21538e-16 0)
(3 -4.84635e-16 0)
(3 7.02246e-17 0)
(3 -2.81696e-17 0)
(3 4.75231e-17 0)
(3 6.81305e-17 0)
(3 2.35818e-16 0)
(3 3.20126e-16 0)
(3 4.06015e-16 0)
(3 3.31523e-16 0)
(3 -5.61465e-16 0)
(3 -7.08409e-16 0)
(3 -7.45026e-16 0)
(3 -1.017e-15 0)
(3 -1.1584e-15 0)
(3 -2.83626e-16 0)
(3 -3.96019e-17 0)
(3 -2.16462e-17 0)
(3 4.88339e-16 0)
(3 3.15475e-16 0)
(3 2.75423e-16 0)
(3 3.78557e-16 0)
(3 5.92195e-16 0)
(3 5.69395e-16 0)
(3 2.27212e-16 0)
(3 -8.59385e-16 0)
(1.542 1.22836 0)
(1.95884 1.45814 0)
(2.14492 1.34686 0)
(2.33225 0.737597 0)
(2.67151 0.316653 0)
(2.71152 -0.0890747 0)
(2.71072 -0.161648 0)
(2.54263 -0.255043 0)
(2.36187 -0.357625 0)
(2.3808 -0.362848 0)
(2.43839 -0.287742 0)
(2.46985 -0.177153 0)
(2.48752 -0.120674 0)
(2.49829 -0.128733 0)
(2.49041 -0.12792 0)
(2.46404 -0.111835 0)
(2.4235 -0.0740939 0)
(2.40636 -0.0425893 0)
(2.41244 -0.0294626 0)
(2.43984 -0.0261307 0)
(2.46674 -0.0237503 0)
(2.47418 -0.0171801 0)
(2.4596 -0.00330185 0)
(2.44154 -0.00033897 0)
(2.43402 -0.00409293 0)
(2.43564 -0.00878825 0)
(2.44872 -0.00879865 0)
(2.45546 -0.00609895 0)
(2.45209 -0.00535348 0)
(2.44786 -0.00532477 0)
(2.44172 -0.00547463 0)
(2.44407 -0.00444741 0)
(2.4469 -0.00296189 0)
(2.45121 -0.000826473 0)
(2.46239 -0.00145137 0)
(2.47692 -0.00478252 0)
(2.48249 -0.00595627 0)
(2.49038 -0.00534999 0)
(2.4904 -0.0016079 0)
(2.48522 0.00586161 0)
(2.4857 0.00698093 0)
(2.47804 -0.00074724 0)
(2.37611 -0.067579 0)
(2.14063 -0.204663 0)
(1.87067 -0.297546 0)
(1.68118 -0.279113 0)
(1.60205 -0.210544 0)
(1.55107 -0.137976 0)
(1.58235 -0.0682867 0)
(1.65891 -0.011488 0)
(1.71507 0.00788018 0)
(1.74355 0.00996629 0)
(1.76992 0.00782971 0)
(1.79693 0.00171859 0)
(1.83079 -0.00293434 0)
(1.85795 -0.00410279 0)
(1.88568 -0.00438525 0)
(1.9076 -0.00154788 0)
(1.92286 0.00603937 0)
(1.93795 0.0111939 0)
(1.95891 0.0123241 0)
(1.98343 0.012073 0)
(2.01011 0.0101729 0)
(2.03773 0.0082241 0)
(2.06354 0.00838125 0)
(2.0877 0.00872388 0)
(2.10574 0.00908367 0)
(2.11553 0.00995347 0)
(2.12168 0.011054 0)
(2.13675 0.0112972 0)
(2.15979 0.0111985 0)
(2.1841 0.0109109 0)
(2.21297 0.00961985 0)
(2.24278 0.00709224 0)
(2.26887 0.0046514 0)
(2.29345 0.00295877 0)
(2.31239 0.00173685 0)
(2.31314 0.00452758 0)
(2.30637 0.0101041 0)
(2.31536 0.0136309 0)
(2.33381 0.0138484 0)
(2.35449 0.0136331 0)
(2.37732 0.0133913 0)
(2.4048 0.013502 0)
(2.43339 0.0133184 0)
(2.45231 0.0115229 0)
(2.46909 0.0102056 0)
(2.48405 0.0082473 0)
(2.48407 0.00778279 0)
(2.46734 0.0111605 0)
(2.46882 0.01401 0)
(2.48582 0.0147865 0)
(2.50351 0.0152786 0)
(2.52256 0.0167754 0)
(2.54818 0.0157634 0)
(2.58271 0.0124561 0)
(1.7868 1.0656 0)
(2.29517 0.809581 0)
(2.50787 0.5297 0)
(2.60328 0.0950287 0)
(2.71288 -0.282911 0)
(2.73997 -0.482489 0)
(2.78725 -0.537774 0)
(2.76347 -0.61487 0)
(2.75993 -0.624508 0)
(2.66859 -0.561067 0)
(2.57591 -0.422211 0)
(2.53773 -0.246182 0)
(2.5371 -0.148927 0)
(2.55078 -0.144616 0)
(2.55752 -0.141502 0)
(2.5073 -0.0989273 0)
(2.47149 -0.0460024 0)
(2.45594 -0.0213133 0)
(2.45936 0.000208158 0)
(2.47815 0.00571536 0)
(2.48432 -0.00715952 0)
(2.48089 -0.00645482 0)
(2.46703 -0.000683013 0)
(2.45228 -0.00299582 0)
(2.45248 -0.0098173 0)
(2.45924 -0.0150726 0)
(2.47114 -0.0169819 0)
(2.47738 -0.0129931 0)
(2.47602 -0.00946037 0)
(2.47371 -0.00732059 0)
(2.46803 -0.00596608 0)
(2.46779 -0.00481936 0)
(2.47141 -0.00155263 0)
(2.4768 0.00628081 0)
(2.48613 0.0116259 0)
(2.4953 0.00500536 0)
(2.50079 -0.000917223 0)
(2.50945 -0.00577133 0)
(2.5095 -0.00686579 0)
(2.50511 0.00521695 0)
(2.49288 -0.0133489 0)
(2.42348 -0.115399 0)
(2.22695 -0.370527 0)
(2.04527 -0.625335 0)
(2.01147 -0.650682 0)
(1.9241 -0.481582 0)
(1.79984 -0.217639 0)
(1.69107 -0.0470183 0)
(1.64332 0.0220003 0)
(1.67876 0.0427254 0)
(1.71976 0.0378054 0)
(1.74886 0.0231354 0)
(1.77581 0.0081255 0)
(1.81055 -5.3545e-05 0)
(1.84532 -0.00823256 0)
(1.87241 -0.0150016 0)
(1.89947 -0.0175919 0)
(1.92375 -0.0159125 0)
(1.9451 -0.00442973 0)
(1.96342 0.0170565 0)
(1.97676 0.03622 0)
(1.99365 0.0418927 0)
(2.01702 0.0400382 0)
(2.04298 0.0302238 0)
(2.06894 0.0176086 0)
(2.09178 0.0106953 0)
(2.11326 0.00660554 0)
(2.13153 0.00788604 0)
(2.14512 0.0184091 0)
(2.15348 0.0331081 0)
(2.16608 0.0401686 0)
(2.18809 0.0406401 0)
(2.21278 0.038181 0)
(2.23939 0.0315369 0)
(2.26493 0.0232154 0)
(2.28833 0.0117461 0)
(2.30792 -0.00337361 0)
(2.32 -0.0126928 0)
(2.32671 -0.0050308 0)
(2.33515 0.0118716 0)
(2.34657 0.028095 0)
(2.36359 0.0372738 0)
(2.38249 0.0412338 0)
(2.40351 0.0440178 0)
(2.42551 0.0414649 0)
(2.44492 0.0355609 0)
(2.46367 0.0272165 0)
(2.47964 0.0154746 0)
(2.48957 0.00360582 0)
(2.48855 0.00763202 0)
(2.48566 0.0248731 0)
(2.49329 0.0372672 0)
(2.50913 0.0412302 0)
(2.52601 0.0443038 0)
(2.54596 0.0436581 0)
(2.57441 0.0364812 0)
(1.67806 1.04329 0)
(2.09899 0.813893 0)
(2.34371 0.631291 0)
(2.46853 0.50368 0)
(2.61122 0.165745 0)
(2.65852 -0.108337 0)
(2.70749 -0.112663 0)
(2.76848 -0.163835 0)
(2.83956 -0.299612 0)
(2.77593 -0.42858 0)
(2.75113 -0.465544 0)
(2.71013 -0.428704 0)
(2.69459 -0.386703 0)
(2.71145 -0.373652 0)
(2.71226 -0.347657 0)
(2.65569 -0.259912 0)
(2.62138 -0.177267 0)
(2.59489 -0.123633 0)
(2.56406 -0.0774847 0)
(2.54359 -0.0532348 0)
(2.53024 -0.0412871 0)
(2.5204 -0.017525 0)
(2.51663 0.0164513 0)
(2.51361 0.0180155 0)
(2.51429 0.00353889 0)
(2.51948 -0.00628238 0)
(2.52168 -0.00945013 0)
(2.52087 -0.0103777 0)
(2.52249 -0.0115249 0)
(2.52222 -0.0167332 0)
(2.51449 -0.0225557 0)
(2.51267 -0.0240743 0)
(2.51535 -0.0235497 0)
(2.52302 -0.0159296 0)
(2.53208 -0.00345466 0)
(2.53568 -0.0018693 0)
(2.53998 -0.001967 0)
(2.5437 0.00949194 0)
(2.53675 0.000613915 0)
(2.51546 -0.0366672 0)
(2.4335 -0.169218 0)
(2.2454 -0.421719 0)
(2.10218 -0.573061 0)
(2.02685 -0.690617 0)
(2.07249 -0.71571 0)
(2.07735 -0.66652 0)
(2.06124 -0.546323 0)
(2.00107 -0.36502 0)
(1.90497 -0.18759 0)
(1.8122 -0.0717812 0)
(1.77974 -0.00540326 0)
(1.80098 0.0308221 0)
(1.82611 0.0426654 0)
(1.84946 0.0385191 0)
(1.87511 0.0245574 0)
(1.90305 0.00734849 0)
(1.93195 -0.00400684 0)
(1.95824 -0.00519911 0)
(1.98124 -0.00198164 0)
(2.00179 0.01103 0)
(2.01678 0.0297474 0)
(2.02549 0.0459936 0)
(2.03818 0.0488461 0)
(2.05846 0.0438906 0)
(2.07884 0.0377024 0)
(2.10034 0.0316608 0)
(2.12381 0.0263732 0)
(2.14733 0.0227058 0)
(2.16877 0.0232443 0)
(2.1852 0.0313137 0)
(2.19466 0.0457621 0)
(2.20383 0.0544727 0)
(2.2221 0.0534412 0)
(2.24375 0.0496471 0)
(2.26509 0.0435478 0)
(2.28391 0.0334953 0)
(2.30142 0.0210987 0)
(2.32217 0.0109852 0)
(2.34236 0.00656241 0)
(2.36232 0.0107676 0)
(2.37746 0.0270758 0)
(2.3868 0.0494049 0)
(2.39705 0.0650397 0)
(2.41355 0.0689135 0)
(2.43147 0.0667198 0)
(2.44812 0.060844 0)
(2.46326 0.0507782 0)
(2.47546 0.0386636 0)
(2.48548 0.0280174 0)
(2.49805 0.0237244 0)
(2.51017 0.0311541 0)
(2.51723 0.0494081 0)
(2.52215 0.0653371 0)
(2.53436 0.070858 0)
(2.5525 0.0695497 0)
(2.57942 0.0593998 0)
(1.61371 1.00614 0)
(1.91341 0.888532 0)
(2.19603 0.66976 0)
(2.35473 0.517365 0)
(2.41888 0.423105 0)
(2.55159 0.174095 0)
(2.63241 -0.0222496 0)
(2.67987 -0.107319 0)
(2.7687 -0.260245 0)
(2.77889 -0.339472 0)
(2.76695 -0.417456 0)
(2.75471 -0.479856 0)
(2.77207 -0.470811 0)
(2.77321 -0.468342 0)
(2.7695 -0.462001 0)
(2.735 -0.397807 0)
(2.71833 -0.342494 0)
(2.70053 -0.29795 0)
(2.66501 -0.240109 0)
(2.62912 -0.175464 0)
(2.62072 -0.144694 0)
(2.59553 -0.101698 0)
(2.58057 -0.0499651 0)
(2.5797 -0.0359328 0)
(2.58165 -0.0253433 0)
(2.56788 -0.00552682 0)
(2.56192 0.00612057 0)
(2.56273 0.0138568 0)
(2.56464 0.0155467 0)
(2.56618 0.0134783 0)
(2.55817 0.00326276 0)
(2.55584 -0.0110984 0)
(2.56067 -0.0177755 0)
(2.56929 -0.0180004 0)
(2.57545 -0.0145484 0)
(2.58121 -0.00877728 0)
(2.57964 0.000224445 0)
(2.57178 -0.0116942 0)
(2.54294 -0.0590153 0)
(2.42649 -0.229338 0)
(2.22875 -0.504311 0)
(2.15301 -0.570949 0)
(2.08572 -0.635016 0)
(2.07363 -0.689783 0)
(2.08387 -0.695427 0)
(2.10286 -0.683986 0)
(2.13163 -0.658042 0)
(2.14178 -0.607339 0)
(2.1087 -0.500545 0)
(2.00625 -0.317494 0)
(1.91004 -0.148005 0)
(1.90001 -0.0391343 0)
(1.89273 0.0309574 0)
(1.88963 0.0443055 0)
(1.90138 0.0386333 0)
(1.92746 0.0368905 0)
(1.96067 0.0278413 0)
(1.99438 0.0146865 0)
(2.01954 0.0133977 0)
(2.04361 0.0195366 0)
(2.05959 0.0308816 0)
(2.06681 0.0432894 0)
(2.06823 0.0547127 0)
(2.07858 0.0557649 0)
(2.09666 0.0519888 0)
(2.11719 0.0478236 0)
(2.1401 0.0452201 0)
(2.16459 0.0456876 0)
(2.18853 0.0470658 0)
(2.21051 0.0474582 0)
(2.2261 0.0499271 0)
(2.23113 0.0560523 0)
(2.23634 0.0573196 0)
(2.25149 0.052064 0)
(2.2695 0.0454147 0)
(2.28858 0.0394365 0)
(2.30968 0.038337 0)
(2.33168 0.038016 0)
(2.35705 0.0377123 0)
(2.37981 0.0386714 0)
(2.40184 0.0423944 0)
(2.41784 0.0552178 0)
(2.42264 0.0736413 0)
(2.42601 0.0827569 0)
(2.43795 0.0804118 0)
(2.45207 0.0741532 0)
(2.46408 0.0653959 0)
(2.47618 0.0572223 0)
(2.49276 0.0556695 0)
(2.50968 0.0565746 0)
(2.52725 0.0576054 0)
(2.54338 0.061532 0)
(2.55153 0.0728298 0)
(2.55326 0.0842586 0)
(2.56236 0.0830368 0)
(2.58292 0.073219 0)
(1.57665 0.941523 0)
(1.82509 0.853133 0)
(2.0025 0.763899 0)
(2.1954 0.612832 0)
(2.34147 0.410569 0)
(2.40098 0.342308 0)
(2.47094 0.223839 0)
(2.57998 0.0520596 0)
(2.63429 -0.0258502 0)
(2.68317 -0.0871388 0)
(2.71454 -0.203679 0)
(2.7148 -0.26793 0)
(2.69609 -0.289802 0)
(2.72645 -0.353995 0)
(2.74085 -0.371952 0)
(2.7675 -0.389496 0)
(2.7665 -0.397358 0)
(2.75531 -0.3988 0)
(2.72524 -0.380795 0)
(2.69531 -0.326381 0)
(2.68048 -0.264203 0)
(2.65809 -0.208467 0)
(2.63897 -0.146304 0)
(2.64154 -0.121679 0)
(2.63732 -0.0939307 0)
(2.60521 -0.0535155 0)
(2.59662 -0.0366836 0)
(2.59504 -0.0269816 0)
(2.5921 -0.0179952 0)
(2.58575 0.00105226 0)
(2.58198 0.00995835 0)
(2.57889 0.00642397 0)
(2.58656 0.00231942 0)
(2.59152 0.00136832 0)
(2.59823 0.00454565 0)
(2.60607 0.00839167 0)
(2.59633 -0.0106759 0)
(2.55888 -0.0729772 0)
(2.41581 -0.267066 0)
(2.18696 -0.5665 0)
(2.10522 -0.663604 0)
(2.0965 -0.640833 0)
(2.10979 -0.640282 0)
(2.12054 -0.654997 0)
(2.11167 -0.665941 0)
(2.11804 -0.664632 0)
(2.14385 -0.660024 0)
(2.17244 -0.645881 0)
(2.1905 -0.629449 0)
(2.18251 -0.580881 0)
(2.12044 -0.448502 0)
(2.045 -0.255479 0)
(1.98583 -0.0834528 0)
(1.96727 -0.0092165 0)
(1.94253 0.0261465 0)
(1.95128 0.039137 0)
(1.97092 0.0363004 0)
(2.00896 0.0439843 0)
(2.03713 0.0491123 0)
(2.06651 0.0496938 0)
(2.08847 0.0472691 0)
(2.0999 0.0492505 0)
(2.09881 0.0598003 0)
(2.09864 0.0674675 0)
(2.1155 0.0675932 0)
(2.13514 0.0665229 0)
(2.15685 0.0650817 0)
(2.18217 0.0637986 0)
(2.20534 0.0631554 0)
(2.22882 0.0626065 0)
(2.24929 0.0619865 0)
(2.25981 0.0642632 0)
(2.25584 0.0679857 0)
(2.25986 0.0652935 0)
(2.27891 0.0610483 0)
(2.29953 0.0602633 0)
(2.32049 0.0596446 0)
(2.3454 0.0585466 0)
(2.37161 0.058812 0)
(2.39364 0.061226 0)
(2.41517 0.0651625 0)
(2.43525 0.0726676 0)
(2.4453 0.0846925 0)
(2.43939 0.0935561 0)
(2.43971 0.0888193 0)
(2.45234 0.0794249 0)
(2.46852 0.07275 0)
(2.48648 0.0715806 0)
(2.50466 0.0735813 0)
(2.52503 0.079241 0)
(2.54284 0.0842817 0)
(2.56064 0.0871271 0)
(2.57402 0.0906334 0)
(2.57372 0.0986326 0)
(2.57028 0.0971474 0)
(2.58277 0.081873 0)
(1.55116 0.905163 0)
(1.743 0.848751 0)
(1.90922 0.774333 0)
(2.07096 0.672235 0)
(2.22535 0.521348 0)
(2.31813 0.408486 0)