/*--------------------------------*- C++ -*----------------------------------*\
  =========                 |
  \\      /  F ield         | OpenFOAM: The Open Source CFD Toolbox
   \\    /   O peration     | Website:  https://openfoam.org
    \\  /    A nd           | Version:  7
     \\/     M anipulation  |
\*---------------------------------------------------------------------------*/
FoamFile
{
    version     2.0;
    format      ascii;
    class       volScalarField;
    location    "1.4";
    object      p;
}
// * * * * * * * * * * * * * * * * * * * * * * * * * * * * * * * * * * * * * //

dimensions      [1 -1 -2 0 0 0 0];

internalField   nonuniform List<scalar> 
16128
(
1
1
1
1
1
1
1
1
1
1
1
1
1
1
1
1
1
1
1
1
1
1
1
1
1
2.0465
8.81789
10.6679
10.7326
10.8855
11.0151
11.1338
11.2411
11.3425
11.4376
11.5211
11.5863
11.6465
11.7041
11.764
11.825
11.8808
11.9307
11.9762
12.0227
12.0749
12.1177
12.1568
1
1
1
1
1
1
1
1
1
1
1
1
1
1
1
1
1
1
1
1
1
1
1
1
1
1.98982
8.74443
10.654
10.7384
10.8852
11.0115
11.1264
11.2312
11.3315
11.4268
11.5115
11.5778
11.6389
11.6964
11.7561
11.8178
11.8749
11.9252
11.9683
12.0108
12.0585
12.0992
12.1358
1
1
1
1
1
1
1
1
1
1
1
1
1
1
1
1
1
1
1
1
1
1
1
1
1
1.87543
8.60626
10.646
10.7365
10.8752
11.0006
11.1132
11.2157
11.3143
11.4091
11.4959
11.565
11.6285
11.6865
11.7453
11.8068
11.8645
11.9139
11.9527
11.9896
12.0328
12.0724
12.1079
1
1
1
1
1
1
1
1
1
1
1
1
1
1
1
1
1
1
1
1
1
1
1
1
1
1.73023
8.39372
10.6323
10.7277
10.8598
10.9817
11.0944
11.196
11.2926
11.3851
11.4722
11.5435
11.6096
11.6691
11.7279
11.7889
11.8461
11.8938
11.9276
11.9586
11.9965
12.034
12.0668
1
1
1
1
1
1
1
1
1
1
1
1
1
1
1
1
1
1
1
1
1
1
1
1
1
1.56988
8.09565
10.5965
10.7088
10.8325
10.9579
11.0739
11.1765
11.271
11.358
11.4413
11.5121
11.5809
11.644
11.7043
11.764
11.8183
11.8627
11.8916
11.9176
11.9514
11.9871
12.017
1
1
1
1
1
1
1
1
1
1
1
1
1
1
1
1
1
1
1
1
1
1
1
1
1
1.39382
7.71246
10.5557
10.672
10.798
10.9257
11.0464
11.1511
11.2428
11.3233
11.4016
11.4702
11.5416
11.6094
11.6724
11.7304
11.78
11.8196
11.8438
11.8664
11.8972
11.9306
11.9571
1
1
1
1
1
1
1
1
1
1
1
1
1
1
1
1
1
1
1
1
1
1
1
1
1
1.18904
7.22899
10.5426
10.6472
10.7692
10.895
11.015
11.1167
11.2031
11.2762
11.3493
11.4161
11.4901
11.5625
11.6278
11.684
11.7287
11.7643
11.7856
11.8064
11.8341
11.8632
11.8852
1
1
1
1
1
1
1
1
1
1
1
1
1
1
1
1
1
1
1
1
1
1
1
1
1
1.01083
6.57274
10.5138
10.6106
10.7207
10.8416
10.9597
11.062
11.1496
11.2211
11.2901
11.3532
11.4267
11.5028
11.5712
11.6256
11.6652
11.6967
11.7166
11.7371
11.7618
11.7849
11.8016
1
1
1
1
1
1
1
1
1
1
1
1
1
1
1
1
1
1
1
1
1
1
1
1
1
1.00009
5.77037
10.3885
10.5607
10.6723
10.7933
10.9083
11.0105
11.0991
11.1699
11.2344
11.291
11.3561
11.4262
11.4892
11.5393
11.5755
11.607
11.6313
11.6561
11.6802
11.6974
11.709
1
1
1
1
1
1
1
1
1
1
1
1
1
1
1
1
1
1
1
1
1
1
1
1
1
1
4.90274
10.2092
10.5132
10.6267
10.7487
10.8576
10.9522
11.0345
11.1016
11.1624
11.2147
11.2731
11.3365
11.3919
11.4368
11.4712
11.506
11.5372
11.5647
11.5832
11.5901
11.5918
1
1
1
1
1
1
1
1
1
1
1
1
1
1
1
1
1
1
1
1
1
1
1
1
1
1
4.00195
9.91678
10.4684
10.5813
10.6998
10.8034
10.8942
10.9735
11.0379
11.0939
11.1409
11.1902
11.2422
11.2857
11.3215
11.3507
11.3839
11.4164
11.4444
11.4596
11.4612
11.4599
1
1
1
1
1
1
1
1
1
1
1
1
1
1
1
1
1
1
1
1
1
1
1
1
1
1
3.13572
9.46697
10.4519
10.5377
10.6525
10.747
10.8311
10.9056
10.9661
11.0173
11.061
11.1022
11.1428
11.1733
11.1971
11.2189
11.2472
11.2784
11.3039
11.3099
11.2988
11.2837
1
1
1
1
1
1
1
1
1
1
1
1
1
1
1
1
1
1
1
1
1
1
1
1
1
1
2.27092
8.78021
10.433
10.4752
10.5915
10.6837
10.7662
10.8362
10.8911
10.9351
10.9729
11.004
11.0325
11.0516
11.0635
11.0761
11.0918
11.101
11.1021
11.0926
11.0729
11.0713
1
1
1
1
1
1
1
1
1
1
1
1
1
1
1
1
1
1
1
1
1
1
1
1
1
1
1.48355
7.97774
10.4623
10.4266
10.5223
10.5988
10.6707
10.737
10.7897
10.8313
10.865
10.8856
10.9023
10.9114
10.9137
10.9151
10.9081
10.8939
10.871
10.8424
10.7847
10.7104
1
1
1
1
1
1
1
1
1
1
1
1
1
1
1
1
1
1
1
1
1
1
1
1
1
1
1.03065
6.90075
10.3293
10.3335
10.4415
10.5232
10.5948
10.6497
10.6883
10.7172
10.7359
10.7422
10.7457
10.7459
10.7394
10.7253
10.6953
10.6452
10.5596
10.4347
10.3035
10.2014
1
1
1
1
1
1
1
1
1
1
1
1
1
1
1
1
1
1
1
1
1
1
1
1
1
1
1.00014
5.4725
9.9751
10.2173
10.3448
10.4284
10.4868
10.5266
10.5534
10.5729
10.5807
10.5766
10.5685
10.5601
10.5395
10.5034
10.4386
10.3343
10.1867
9.99966
9.79567
9.7185
1
1
1
1
1
1
1
1
1
1
1
1
1
1
1
1
1
1
1
1
1
1
1
1
1
1
1
4.13026
9.58114
10.1845
10.2885
10.3649
10.4092
10.4342
10.446
10.4483
10.4408
10.4224
10.3993
10.3745
10.3296
10.2619
10.1564
10.0034
9.77407
9.39168
8.50502
6.54891
1
1
1
1
1
1
1
1
1
1
1
1
1
1
1
1
1
1
1
1
1
1
1
1
1
1
1
2.73998
8.88162
10.0938
10.1779
10.2641
10.3109
10.3332
10.3363
10.3241
10.306
10.2768
10.2395
10.1896
10.1151
10.0096
9.85839
9.63739
9.29861
8.68873
7.72191
5.53847
1
1
1
1
1
1
1
1
1
1
1
1
1
1
1
1
1
1
1
1
1
1
1
1
1
1
1
1.51427
7.96521
10.2085
10.1317
10.1731
10.2061
10.2237
10.2169
10.1975
10.1712
10.1353
10.0852
10.0105
9.90434
9.75723
9.55809
9.27431
8.85579
8.17982
7.09683
5.14582
1
1
1
1
1
1
1
1
1
1
1
1
1
1
1
1
1
1
1
1
1
1
1
1
1
1
1
1.02901
6.54536
9.87721
9.94276
10.0167
10.0709
10.0968
10.0874
10.0655
10.0332
9.99192
9.92925
9.83304
9.69703
9.5125
9.26969
8.94212
8.46373
7.79671
6.66189
5.1098
1
1
1
1
1
1
1
1
1
1
1
1
1
1
1
1
1
1
1
1
1
1
1
1
1
1
1
1.00004
4.66678
9.4482
9.87682
9.95736
10.0006
10.0102
9.9879
9.95378
9.9081
9.85293
9.77383
9.65859
9.49741
9.28261
9.00346
8.64481
8.15089
7.49282
6.42838
5.20776
1
1
1
1
1
1
1
1
1
1
1
1
1
1
1
1
1
1
1
1
1
1
1
1
1
1
1
0.999999
2.74604
8.68567
9.84589
9.85954
9.91813
9.92778
9.8941
9.84378
9.78148
9.70877
9.61361
9.48335
9.30489
9.07107
8.7704
8.39253
7.89954
7.26164
6.32954
5.33162
1
1
1
1
1
1
1
1
1
1
1
1
1
1
1
1
1
1
1
1
1
1
1
1
1
1
1
0.999999
1.2937
7.54445
9.9662
9.83117
9.80727
9.81741
9.7821
9.72368
9.65026
9.5621
9.45079
9.30613
9.11441
8.87018
8.56107
8.18039
7.69132
7.08513
6.28131
5.45379
1
1
1
1
1
1
1
1
1
1
1
1
1
1
1
1
1
1
1
1
1
1
1
1
1
1
1
1
1.00847
5.74127
9.44025
9.60623
9.70529
9.70995
9.66267
9.59664
9.51327
9.41217
9.28792
9.13386
8.93504
8.68612
8.37939
8.00692
7.52535
6.96121
6.2734
5.56909
1
1
1
1
1
1
1
1
1
1
1
1
1
1
1
1
1
1
1
1
1
1
1
1
1
1
1
1
0.999957
3.41262
8.81594
9.60227
9.62883
9.6093
9.55822
9.48479
9.39103
9.27697
9.14037
8.97641
8.77022
8.5154
8.21458
7.84779
7.38922
6.87356
6.27068
5.66142
1
1
1
1
1
1
1
1
1
1
1
1
1
1
1
1
1
1
1
1
1
1
1
1
1
1
1
1
0.99999
1.53893
7.85288
9.73565
9.53038
9.46284
9.41783
9.34961
9.25752
9.1389
8.99665
8.82919
8.62242
8.36912
8.07146
7.71247
7.28875
6.81976
6.28423
5.75149
1
1
1
1
1
1
1
1
1
1
1
1
1
1
1
1
1
1
1
1
1
1
1
1
1
1
1
1
0.999998
1.02656
5.98604
9.26825
9.29801
9.31317
9.28753
9.22466
9.13413
9.01514
8.86926
8.70042
8.4899
8.24469
7.9449
7.59675
7.20619
6.77548
6.29565
5.81523
1
1
1
1
1
1
1
1
1
1
1
1
1
1
1
1
1
1
1
1
1
1
1
1
1
1
1
1
1
0.999979
3.34731
8.60794
9.21552
9.24567
9.21946
9.14548
9.04999
8.92312
8.76767
8.59122
8.37615
8.13717
7.83526
7.50269
7.14016
6.74172
6.31161
5.87309
1
1
1
1
1
1
1
1
1
1
1
1
1
1
1
1
1
1
1
1
1
1
1
1
1
1
1
1
1
0.999989
1.36716
7.37072
9.30726
9.18852
9.13033
9.04438
8.94329
8.81698
8.65847
8.47944
8.26745
8.02633
7.73821
7.4232
7.08082
6.71093
6.31765
5.91048
1
1
1
1
1
1
1
1
1
1
1
1
1
1
1
1
1
1
1
1
1
1
1
1
1
1
1
1
1
0.999998
1.01192
5.07725
8.81763
9.00782
9.00254
8.94579
8.84825
8.72388
8.56159
8.37947
8.16525
7.92779
7.65484
7.35512
7.02968
6.68606
6.31832
5.94465
1
1
1
1
1
1
1
1
1
1
1
1
1
1
1
1
1
1
1
1
1
1
1
1
1
1
1
1
1
1
0.999955
2.32215
8.15504
9.07198
8.95398
8.86659
8.76162
8.63306
8.46856
8.28431
8.07116
7.83815
7.58001
7.29571
6.98875
6.66487
6.31797
5.97213
1
1
1
1
1
1
1
1
1
1
1
1
1
1
1
1
1
1
1
1
1
1
1
1
1
1
1
1
1
1
0.99999
1.12653
6.3424
8.9062
8.80163
8.7457
8.64048
8.50904
8.3552
8.18336
7.98135
7.75727
7.51397
7.24649
6.95728
6.64826
6.32279
5.9971
1
1
1
1
1
1
1
1
1
1
1
1
1
1
1
1
1
1
1
1
1
1
1
1
1
1
1
1
1
1
0.999999
1.0011
3.3905
8.26992
8.71953
8.67172
8.57087
8.44219
8.29314
8.12173
7.91962
7.69838
7.46267
7.20722
6.93139
6.63715
6.33271
6.02173
1
1
1
1
1
1
1
1
1
1
1
1
1
1
1
1
1
1
1
1
1
1
1
1
1
1
1
1
1
1
1
0.999998
1.3527
6.81879
8.76615
8.61942
8.49042
8.36278
8.22378
8.05785
7.86115
7.64368
7.41359
7.16772
6.90542
6.62861
6.34194
6.04577
1
1
1
1
1
1
1
1
1
1
1
1
1
1
1
1
1
1
1
1
1
1
1
1
1
1
1
1
1
1
1
1
1.00968
4.04258
8.17488
8.44731
8.37961
8.28678
8.16712
8.00946
7.81816
7.60615
7.38218
7.14483
6.89263
6.62653
6.35064
6.06853
1
1
1
1
1
1
1
1
1
1
1
1
1
1
1
1
1
1
1
1
1
1
1
1
1
1
1
1
1
1
1
1
1.00001
1.5556
6.92101
8.53666
8.36705
8.24552
8.11302
7.95286
7.76631
7.56129
7.34417
7.11458
6.87256
6.61929
6.35709
6.089
1
1
1
1
1
1
1
1
1
1
1
1
1
1
1
1
1
1
1
1
1
1
1
1
1
1
1
1
1
1
1
1
1
1.02351
4.26423
8.02208
8.21902
8.14307
8.02553
7.88169
7.71142
7.51861
7.31187
7.0923
6.85945
6.61565
6.36506
6.10926
1
1
1
1
1
1
1
1
1
1
1
1
1
1
1
1
1
1
1
1
1
1
1
1
1
1
1
1
1
1
1
1
1
1.00007
1.64388
6.756
8.29175
8.13149
7.98991
7.83919
7.67033
7.48029
7.27771
7.0666
6.84463
6.6114
6.37103
6.1274
1
1
1
1
1
1
1
1
1
1
1
1
1
1
1
1
1
1
1
1
1
1
1
1
1
1
1
1
1
1
1
1
1
1
1.03061
4.06733
7.79463
8.01717
7.91085
7.77327
7.61295
7.43538
7.24389
7.04221
6.82991
6.6074
6.37805
6.1463
1
1
1
1
1
1
1
1
1
1
1
1
1
1
1
1
1
1
1
1
1
1
1
1
1
1
1
1
1
1
1
1
1
1
1.00014
1.58249
6.38613
8.03836
7.89345
7.74544
7.58196
7.40926
7.2251
7.02985
6.82436
6.6103
6.39001
6.16649
1
1
1
1
1
1
1
1
1
1
1
1
1
1
1
1
1
1
1
1
1
1
1
1
1
1
1
1
1
1
1
1
1
1
1
1.02499
3.48118
7.4685
7.81434
7.67572
7.52553
7.36083
7.18807
7.00347
6.8094
6.60802
6.40051
6.18697
1
1
1
1
1
1
1
1
1
1
1
1
1
1
1
1
1
1
1
1
1
1
1
1
1
1
1
1
1
1
1
1
1
1
1
1.00014
1.39457
5.83096
7.85355
7.6723
7.51583
7.3424
7.17289
6.99528
6.80935
6.6166
6.41774
6.2128
1
1
1
1
1
1
1
1
1
1
1
1
1
1
1
1
1
1
1
1
1
1
1
1
1
1
1
1
1
1
1
1
1
1
1
1
1.01196
2.72554
6.99827
7.60608
7.45352
7.30314
7.14031
6.96825
6.79169
6.61219
6.42673
6.23403
1
1
1
1
1
1
1
1
1
1
1
1
1
1
1
1
1
1
1
1
1
1
1
1
1
1
1
1
1
1
1
1
1
1
1
1
1.00006
1.19549
4.87156
7.51505
7.45562
7.31408
7.14812
6.97689
6.80034
6.62127
6.43779
6.24884
1
1
1
1
1
1
1
1
1
1
1
1
1
1
1
1
1
1
1
1
1
1
1
1
1
1
1
1
1
1
1
1
1
1
1
1
1
1.00351
2.00958
6.31513
7.48108
7.28028
7.12414
6.95926
6.79153
6.62046
6.44418
6.26168
1
1
1
1
1
1
1
1
1
1
1
1
1
1
1
1
1
1
1
1
1
1
1
1
1
1
1
1
1
1
1
1
1
1
1
1
1
1.00001
1.07026
3.54981
6.96679
7.25672
7.11789
6.96298
6.79971
6.63053
6.45614
6.27714
1
1
1
1
1
1
1
1
1
1
1
1
1
1
1
1
1
1
1
1
1
1
1
1
1
1
1
1
1
1
1
1
1
1
1
1
1
1
1.00081
1.42476
5.21656
7.27134
7.14691
6.99312
6.82824
6.65827
6.48377
6.30607
1
1
1
1
1
1
1
1
1
1
1
1
1
1
1
1
1
1
1
1
1
1
1
1
1
1
1
1
1
1
1
1
1
1
1
1
1
1
1
1.0144
2.32907
6.29216
7.13285
6.96764
6.81021
6.647
6.48043
6.31073
1
1
1
1
1
1
1
1
1
1
1
1
1
1
1
1
1
1
1
1
1
1
1
1
1
1
1
1
1
1
1
1
1
1
1
1
1
1
1
1.0001
1.12001
3.71377
6.7319
6.97035
6.81718
6.65952
6.49867
6.33261
1
1
1
1
1
1
1
1
1
1
1
1
1
1
1
1
1
1
1
1
1
1
1
1
1
1
1
1
1
1
1
1
1
1
1
1
1
1
1
1
1.00193
1.48773
5.02255
6.90483
6.8489
6.6929
6.53192
6.36669
1
1
1
1
1
1
1
1
1
1
1
1
1
1
1
1
1
1
1
1
1
1
1
1
1
1
1
1
1
1
1
1
1
1
1
1
1
1
1
1
1.00001
1.01906
2.23563
5.87568
6.8344
6.70537
6.54335
6.38387
1
1
1
1
1
1
1
1
1
1
1
1
1
1
1
1
1
1
1
1
1
1
1
1
1
1
1
1
1
1
1
1
1
1
1
1
1
1
1
1
1
1.00015
1.10537
3.24754
6.34698
6.72253
6.56788
6.4047
1
1
1
1
1
1
1
1
1
1
1
1
1
1
1
1
1
1
1
1
1
1
1
1
1
1
1
1
1
1
1
1
1
1
1
1
1
1
1
1
1
1
1.0017
1.34085
4.35035
6.46089
6.59775
6.44377
1
1
1
1
1
1
1
1
1
1
1
1
1
1
1
1
1
1
1
1
1
1
1
1
1
1
1
1
1
1
1
1
1
1
1
1
1
1
1
1
1
1
1.00001
1.01076
1.8129
5.13424
6.52322
6.48427
1
1
1
1
1
1
1
1
1
1
1
1
1
1
1
1
1
1
1
1
1
1
1
1
1
1
1
1
1
1
1
1
1
1
1
1
1
1
1
1
1
1
1
1.00008
1.04897
2.46736
5.67483
6.45537
1
1
1
1
1
1
1
1
1
1
1
1
1
1
1
1
1
1
1
1
1
1
1
1
1
1
1
1
1
1
1
1
1
1
1
1
1
1
1
1
1
1
1
1
1.0006
1.15079
3.22246
5.98579
1
1
1
1
1
1
1
1
1
1
1
1
1
1
1
1
1
1
1
1
1
1
1
1
1
1
1
1
1
1
1
1
1
1
1
1
1
1
1
1
1
1
1
1
1
1.0031
1.34867
3.95149
1
1
1
1
1
1
1
1
1
1
1
1
1
1
1
1
1
1
1
1
1
1
1
1
1
1
1
1
1
1
1
1
1
1
1
1
1
1
1
1
1
1
1
1
1
1.00002
1.01158
1.65091
1
1
1
1
1
1
1
1
1
1
1
1
1
1
1
1
1
1
1
1
1
1
1
1
1
1
1
1
1
1
1
1
1
1
1
1
1
1
1
1
1
1
1
1
1
1
1.00009
1.03425
1
1
1
1
1
1
1
1
1
1
1
1
1
1
1
1
1
1
1
1
1
1
1
1
1
1
1
1
1
1
1
1
1
1
1
1
1
1
1
1
1
1
1
1
1
1
1
1.00038
1
1
1
1
1
1
1
1
1
1
1
1
1
1
1
1
1
1
1
1
1
1
1
1
1
1
1
1
1
1
1
1
1
1
1
1
1
1
1
1
1
1
1
1
1
1
1
1
1
1
1
1
1
1
1
1
1
1
1
1
1
1
1
1
1
1
1
1
1
1
1
1
1
1
1
1
1
1
1
1
1
1
1
1
1
1
1
1
1
1
1
1
1
1
1
1
1
1
1
1
1
1
1
1
1
1
1
1
1
1
1
1
1
1
1
1
1
1
1
1
1
1
1
1
1
1
1
1
1
1
1
1
1
1
1
1
1
1
1
1
1
1
1
1
1
1
1
1
1
1
1
1
1
1
1
1
1
1
1
1
1
1
1
1
1
1
1
1
1
1
1
1
1
1
1
1
1
1
1
1
1
1
1
1
1
1
1
1
1
1
1
1
1
1
1
1
1
1
1
1
1
1
1
1
1
1
1
1
1
1
1
1
1
1
1
1
1
1
1
1
1
1
1
1
1
1
1
1
1
1
1
1
1
1
1
1
1
1
1
1
1
1
1
1
1
1
1
1
1
1
1
1
1
1
1
1
1
1
1
1
1
1
1
1
1
1
1
1
1
1
1
1
1
1
1
1
1
1
1
1
1
1
1
1
1
1
1
1
1
1
1
1
1
1
1
1
1
1
1
1
1
1
1
1
1
1
1
1
1
1
1
1
1
1
1
1
1
1
1
1
1
1
1
1
1
1
1
1
1
1
1
1
1
1
1
1
1
1
1
1
1
1
1
1
1
1
1
1
1
1
1
1
1
1
1
1
1
1
1
1
1
1
1
1
1
1
1
1
1
1
1
1
1
1
1
1
1
1
1
1
1
1
1
1
1
1
1
1
1
1
1
1
1
1
1
1
1
1
1
1
1
1
1
1
1
1
1
1
1
1
1
1
1
1
1
1
1
1
1
1
1
1
1
1
1
1
1
1
1
1
1
1
1
1
1
1
1
1
1
1
1
1
1
1
1
1
1
1
1
1
1
1
1
1
1
1
1
1
1
1
1
1
1
1
1
1
1
1
1
1
1
1
1
1
1
1
1
1
1
1
1
1
1
1
1
1
1
1
1
1
1
1
1
1
1
1
1
1
1
1
1
1
1
1
1
1
1
1
1
1
1
1
1
1
1
1
1
1
1
1
1
1
1
1
1
1
1
1
1
1
1
1
1
1
1
1
1
1
1
1
1
1
1
1
1
1
1
1
1
1
1
1
1
1
1
1
1
1
1
1
1
1
1
1
1
1
1
1
1
1
1
1
1
1
1
1
1
1
1
1
1
1
1
1
1
1
1
1
1
1
1
1
1
1
1
1
1
1
1
1
1
1
1
1
1
1
1
1
1
1
1
1
1
1
1
1
1
1
1
1
1
1
1
1
1
1
1
1
1
1
1
1
1
1
1
1
1
1
1
1
1
1
1
1
1
1
1
1
1
1
1
1
1
1
1
1
1
1
1
1
1
1
1
1
1
1
1
1
1
1
1
1
1
1
1
1
1
1
1
1
1
1
1
1
1
1
1
1
1
1
1
1
1
1
1
1
1
1
1
1
1
1
1
1
1
1
1
1
1
1
1
1
1
1
1
1
1
1
1
1
1
1
1
1
1
1
1
1
1
1
1
1
1
1
1
1
1
1
1
1
1
1
1
1
1
1
1
1
1
1
1
1
1
1
1
1
1
1
1
1
1
1
1
1
1
1
1
1
1
1
1
1
1
1
1
1
1
1
1
1
1
1
1
1
1
1
1
1
1
1
1
1
1
1
1
1
1
1
1
1
1
1
1
1
1
1
1
1
1
1
1
1
1
1
1
1
1
1
1
1
1
1
1
1
1
1
1
1
1
1
1
1
1
1
1
1
1
1
1
1
1
1
1
1
1
1
1
1
1
1
1
1
1
1
1
1
1
1
1
1
1
1
1
1
1
1
1
1
1
1
1
1
1
1
1
1
1
1
1
1
1
1
1
1
1
1
1
1
1
1
1
1
1
1
1
1
1
1
1
1
1
1
1
1
1
1
1
1
1
1
1
1
1
1
1
1
1
1
1
1
1
1
1
1
1
1
1
1
1
1
1
1
1
1
1
1
1
1
1
1
1
1
1
1
1
1
1
1
1
1
1
1
1
1
1
1
1
1
1
1
1.17172
0.184829
0.1132
0.0758469
0.0363046
0.0403193
0.0666205
0.120579
0.176076
0.245219
0.345807
0.437734
0.526118
0.605776
0.70406
0.812854
0.844669
0.846105
0.842949
0.857784
0.880238
0.900869
0.913901
0.953378
0.991854
1.00304
1.01744
1.04068
1.05177
1.05642
1.07769
1.11885
1.15666
1.16933
1.16893
1.16606
1.16874
1.17479
1.18765
1.19493
1.19775
1.19767
1.18905
1.18054
1.18041
1.18743
1.2018
1.22018
1.23523
1.24298
1.24243
1.23793
1.23465
1.22989
1.22278
1.21515
1.21161
1.20965
1.20987
1.21637
1.22419
1.22394
1.22126
1.21542
1.20961
1.20856
1.20841
1.20978
1.21066
1.2083
1.20538
1.20063
1.19222
1.18363
1.18037
1.18045
1.18088
1.18192
1.18115
1.17859
1.17488
1.16915
1.16376
1.15996
1.15605
1.15256
1.15146
1.14899
1.14593
1.14347
1.14084
1.1372
1.13171
1.12443
1.11802
1.11355
1.1095
1.10585
1.10281
1.10001
1.09736
1.09445
1.09015
1.08672
1.08617
1.08611
1.08511
1.08204
1.07632
1.06284
1.04353
1.04424
1.06953
1.16605
1.40124
1.80425
2.32885
2.93777
3.48862
3.95732
4.32433
4.58561
4.74503
4.75435
4.71331
4.64411
4.48486
4.32183
4.25477
4.18935
4.13862
4.0817
4.0082
3.92914
3.88988
3.86381
3.83566
3.80212
3.77093
3.73953
3.70936
3.67818
3.64092
3.60584
3.57795
3.55184
3.52692
3.49991
3.46654
3.42496
3.38007
3.33925
3.30118
3.25991
3.22154
3.19851
3.17976
3.16285
3.1436
3.12197
3.09001
3.03507
2.97361
2.94044
2.91997
2.90033
2.88361
2.86688
2.85024
2.83158
2.80809
2.77836
2.74113
2.70045
2.67324
2.65238
2.62933
2.60929
2.59405
2.58114
2.56942
2.55001
2.50911
2.44394
2.39988
2.38892
2.38256
2.37656
2.37526
2.38911
2.39938
2.3688
2.1561
0.874149
0.552079
0.40759
0.278452
0.203713
0.20591
0.222243
0.226662
0.241737
0.25217
0.284227
0.330153
0.372701
0.424225
0.519583
0.627891
0.680103
0.71954
0.754333
0.794619
0.830086
0.856875
0.890719
0.936835
0.965363
0.991324
1.0249
1.05923
1.0721
1.07801
1.09807
1.12432
1.14701
1.15856
1.16548
1.16773
1.16853
1.16862
1.17069
1.17648
1.18232
1.18871
1.19228
1.19231
1.19677
1.20469
1.21088
1.21602
1.22295
1.22851
1.23249
1.23568
1.23276
1.22652
1.21781
1.21125
1.20757
1.20559
1.20852
1.21555
1.21679
1.21567
1.2128
1.20782
1.20611
1.20617
1.20731
1.2087
1.20682
1.20468
1.20182
1.19725
1.19141
1.18623
1.18378
1.18219
1.18044
1.17849
1.17564
1.17183
1.16656
1.16142
1.1575
1.1536
1.15041
1.14621
1.14147
1.13827
1.13669
1.13608
1.13478
1.13277
1.13055
1.12702
1.12176
1.11636
1.11142
1.10687
1.10266
1.09895
1.09537
1.09088
1.08489
1.07958
1.07648
1.07233
1.06866
1.06441
1.06436
1.08497
1.1669
1.35239
1.63448
1.91182
2.10234
2.25086
2.40363
2.66462
2.93468
3.16363
3.38702
3.61439
3.81487
4.00153
4.15175
4.19656
4.22247
4.21924
4.19512
4.16298
4.10772
4.05394
3.99735
3.96017
3.92556
3.88611
3.84242
3.79932
3.75568
3.71605
3.67485
3.62566
3.57866
3.54423
3.51752
3.49548
3.47281
3.44664
3.41599
3.3817
3.34729
3.31198
3.27042
3.22624
3.20005
3.18308
3.16735
3.14802
3.12646
3.09983
3.06288
3.01449
2.96577
2.93134
2.90694
2.88427
2.86192
2.83915
2.81586
2.79251
2.76666
2.73646
2.70488
2.67786
2.65388
2.62917
2.60592
2.58557
2.56816
2.55611
2.5427
2.51394
2.4701
2.43077
2.40925
2.39555
2.38537
2.3778
2.376
2.37933
2.35607
2.97617
1.81888
1.04395
0.770269
0.613303
0.447211
0.40131
0.398617
0.371241
0.312801
0.313287
0.330219
0.339542
0.3544
0.371303
0.388313
0.43828
0.519728
0.591218
0.650361
0.699576
0.750578
0.799338
0.840649
0.887014
0.931987
0.969144
1.01176
1.06903
1.09186
1.09702
1.11193
1.12814
1.14453
1.15959
1.1707
1.17857
1.17809
1.17076
1.16303
1.16114
1.16352
1.17368
1.18957
1.20459
1.21525
1.21868
1.21619
1.21086
1.20977
1.21197
1.22088
1.23492
1.24143
1.24132
1.23642
1.22624
1.21724
1.21186
1.20997
1.21124
1.21291
1.21413
1.21436
1.21182
1.21006
1.2099
1.21002
1.2088
1.20647
1.20311
1.19867
1.19346
1.18842
1.18432
1.18391
1.18472
1.18376
1.18162
1.17836
1.17332
1.16575
1.16011
1.15737
1.15497
1.15478
1.15324
1.14806
1.14307
1.13777
1.13168
1.12798
1.12693
1.12677
1.12566
1.12272
1.11919
1.1152
1.11088
1.10626
1.10248
1.0995
1.09734
1.09345
1.08664
1.07558
1.05724
1.05561
1.07494
1.15776
1.34493
1.62935
1.93852
2.12574
2.24708
2.31816
2.30427
2.25527
2.21962
2.24015
2.33874
2.52653
2.80445
3.11262
3.4128
3.68642
3.88673
3.99193
4.08709
4.11634
4.15028
4.14913
4.1346
4.09387
4.03822
3.97379
3.9101
3.84795
3.78823
3.73272
3.68313
3.6373
3.58817
3.54138
3.50958
3.4941
3.48267
3.4694
3.45524
3.43692
3.4098
3.37733
3.34348
3.30382
3.2551
3.20968
3.17634
3.14797
3.12023
3.09431
3.07085
3.04628
3.01566
2.97854
2.94089
2.90775
2.87989
2.85575
2.83237
2.80631
2.77535
2.74124
2.71377
2.7005
2.68805
2.6718
2.65274
2.63122
2.60495
2.57232
2.53674
2.50377
2.47735
2.45196
2.43721
2.43172
2.42418
2.41517
2.40124
2.38104
2.36126
2.3253
3.53303
2.51008
1.72695
1.31542
1.03924
0.760202
0.612745
0.612677
0.589122
0.519028
0.493717
0.471104
0.43306
0.414158
0.406376
0.404095
0.412332
0.436232
0.476922
0.529984
0.575777
0.623948
0.684799
0.737757
0.783468
0.833046
0.873407
0.907545
0.968606
1.02656
1.05118
1.08208
1.11786
1.14923
1.17078
1.1849
1.1894
1.18321
1.16338
1.14461
1.13958
1.14043
1.1506
1.17264
1.19257
1.2018
1.20709
1.20754
1.20752
1.21103
1.21513
1.22161
1.22926
1.23348
1.23312
1.22746
1.21759
1.21264
1.21208
1.21109
1.2119
1.2134
1.21492
1.21451
1.21219
1.21171
1.21228
1.21158
1.20914
1.2065
1.20239
1.19569
1.1876
1.18113
1.17691
1.1771
1.17997
1.18144
1.18146
1.18039
1.17697
1.17004
1.16143
1.1564
1.15357
1.1514
1.14878
1.14415
1.14076
1.13766
1.13338
1.12995
1.12814
1.12568
1.12294
1.12022
1.11695
1.11306
1.10889
1.10415
1.09912
1.09335
1.08897
1.08603
1.08334
1.08301
1.10077
1.16846
1.34351
1.61572
1.9349
2.17331
2.25227
2.30553
2.35761
2.34979
2.30409
2.23965
2.20507
2.19805
2.2121
2.21149
2.23393
2.30245
2.45178
2.70632
3.04632
3.35076
3.63227
3.79797
3.89206
3.923
3.95127
3.95508
3.97373
3.99054
3.97654
3.94673
3.89312
3.83199
3.7602
3.68466
3.61877
3.56258
3.52049
3.4936
3.47241
3.45164
3.43036
3.4103
3.38775
3.35755
3.32412
3.29184
3.25422
3.20665
3.1646
3.13721
3.11367
3.09075
3.06708
3.04191
3.01582
2.98987
2.95972
2.92295
2.8878
2.86327
2.84213
2.81833
2.78841
2.75242
2.71477
2.68548
2.66975
2.65673
2.64279
2.62758
2.60843
2.5802
2.54267
2.5054
2.47377
2.44511
2.43163
2.42733
2.42329
2.41801
2.40909
2.39324
2.36832
2.3238
3.99125
3.05514
2.30107
1.82914
1.49317
1.19129
0.967458
0.866767
0.791915
0.72437
0.68543
0.644487
0.580264
0.529994
0.518589
0.500331
0.485809
0.487895
0.502505
0.508792
0.510848
0.514935
0.52609
0.551764
0.587742
0.639015
0.70115
0.757932
0.835022
0.934822
0.990798
1.02616
1.06684
1.10485
1.12549
1.14293
1.16084
1.16332
1.15608
1.14748
1.14572
1.14521
1.15431
1.17363
1.1861
1.1934
1.19996
1.20559
1.21074
1.21531
1.21769
1.21778
1.21416
1.21139
1.21105
1.2119
1.21364
1.21752
1.21938
1.21886
1.21514
1.21023
1.20544
1.20234
1.20225
1.20384
1.20849
1.2098
1.20878
1.20806
1.20543
1.19816
1.18838
1.18242
1.18011
1.17997
1.1824
1.18382
1.1838
1.18255
1.17909
1.17203
1.1627
1.15597
1.15162
1.14755
1.14324
1.13952
1.13796
1.13677
1.13536
1.1346
1.13296
1.13029
1.12695
1.12323
1.11896
1.11441
1.1104
1.10589
1.10041
1.09383
1.08667
1.08377
1.09899
1.15884
1.32524
1.60331
1.89931
2.19674
2.35474
2.34379
2.33849
2.35721
2.36484
2.33892
2.29321
2.24895
2.23118
2.2244
2.21177
2.18873
2.15848
2.13608
2.12938
2.14977
2.22638
2.38139
2.61862
2.90912
3.18366
3.40059
3.59074
3.71778
3.80792
3.85055
3.84816
3.85258
3.83896
3.81256
3.77253
3.72665
3.67998
3.63123
3.57966
3.52672
3.48081
3.4427
3.41189
3.38458
3.35571
3.32188
3.29242
3.26799
3.24123
3.20409
3.15722
3.12942
3.11323
3.09735
3.07786
3.05463
3.03113
3.00696
2.97684
2.93796
2.89403
2.86053
2.83531
2.8102
2.78307
2.75362
2.71862
2.67984
2.65191
2.63668
2.62362
2.60828
2.58799
2.56231
2.53519
2.51205
2.4927
2.47402
2.45494
2.43822
2.42438
2.41099
2.39499
2.37466
2.35189
2.32183
4.36551
3.52976
2.82212
2.31262
1.90999
1.57422
1.38651
1.23161
1.05714
0.929676
0.885095
0.834187
0.770312
0.716027
0.680213
0.638811
0.603086
0.590229
0.573808
0.547713
0.5394
0.532275
0.52863
0.531131
0.538388
0.547875
0.561341
0.584771
0.624014
0.698145
0.798951
0.876344
0.954472
1.03656
1.07238
1.10136
1.13028
1.13721
1.13238
1.12851
1.13327
1.14341
1.15323
1.16184
1.16746
1.17295
1.17951
1.18993
1.20015
1.20746
1.21092
1.21145
1.20694
1.20274
1.20273
1.2076
1.21452
1.21709
1.21506
1.21061
1.2055
1.20053
1.1972
1.19737
1.20171
1.20966
1.21557
1.21552
1.21387
1.21131
1.20597
1.19767
1.19026
1.18677
1.18417
1.18166
1.18
1.17838
1.17602
1.17266
1.1674
1.1601
1.1529
1.14929
1.14725
1.14549
1.14443
1.14552
1.14602
1.14381
1.14079
1.13674
1.13109
1.12617
1.12273
1.11959
1.11608
1.11233
1.10913
1.10426
1.09869
1.09483
1.10497
1.1524
1.29664
1.58288
1.91506
2.13077
2.34444
2.43337
2.42006
2.38777
2.3725
2.3633
2.34776
2.32046
2.28204
2.25535
2.24818
2.23608
2.21214
2.18121
2.1529
2.13446
2.11721
2.0976
2.0744
2.06164
2.07288
2.12663
2.24827
2.45952
2.71664
3.0024
3.25497
3.44834
3.56165
3.66531
3.71447
3.72475
3.7044
3.66692
3.65056
3.63462
3.60664
3.56324
3.52395
3.48817
3.46239
3.43035
3.3871
3.33715
3.29114
3.25226
3.21735
3.18066
3.13608
3.10006
3.08254
3.06874
3.05744
3.0438
3.02718
3.00882
2.98547
2.9526
2.91162
2.87285
2.84127
2.81425
2.78698
2.75835
2.72602
2.68869
2.65136
2.62683
2.60994
2.59269
2.57351
2.55082
2.52947
2.51468
2.5009
2.48535
2.46686
2.44256
2.41646
2.39383
2.3761
2.36175
2.34748
2.32863
4.63825
3.88773
3.25925
2.76901
2.34479
1.97176
1.72612
1.549
1.37755
1.22831
1.12203
1.02227
0.928452
0.872214
0.827816
0.782951
0.740938
0.708351
0.680809
0.654365
0.634071
0.61548
0.591716
0.569518
0.570455
0.574708
0.572323
0.56766
0.569299
0.577216
0.600454
0.645367
0.712964
0.816305
0.926394
0.986174
1.04688
1.07983
1.08469
1.0976
1.1166
1.14243
1.1579
1.1595
1.15792
1.15712
1.16264
1.17441
1.18674
1.19489
1.20019
1.20284
1.20532
1.2084
1.21276
1.21513
1.21483
1.21186
1.20583
1.19869
1.19619
1.19611
1.19899
1.2081
1.21806
1.22209
1.22159
1.21683
1.20954
1.2027
1.19555
1.18658
1.18205
1.1802
1.1776
1.17625
1.17625
1.17448
1.17165
1.16821
1.16343
1.15862
1.15578
1.15391
1.15302
1.15258
1.1518
1.1499
1.14678
1.14215
1.13654
1.13021
1.12373
1.11946
1.11702
1.11453
1.11149
1.10839
1.10582
1.10518
1.11105
1.14748
1.27608
1.53923
1.88706
2.20035
2.29545
2.39602
2.46536
2.46015
2.4328
2.39486
2.37462
2.36126
2.3436
2.32095
2.2968
2.2718
2.24532
2.21802
2.1902
2.17349
2.16104
2.14163
2.11611
2.08854
2.06332
2.04489
2.03049
2.01374
1.99947
2.00579
2.04505
2.14332
2.29487
2.52218
2.78048
3.02562
3.22992
3.43078
3.51345
3.52969
3.5468
3.56061
3.55363
3.51374
3.48553
3.48148
3.48051
3.46962
3.43738
3.39696
3.34133
3.272
3.21446
3.17266
3.13082
3.08644
3.05498
3.03915
3.03014
3.02348
3.01054
2.99277
2.96993
2.94297
2.91315
2.87905
2.84468
2.81349
2.78614
2.76065
2.73541
2.70804
2.67341
2.63358
2.60239
2.57962
2.55996
2.53888
2.52399
2.51401
2.5024
2.4889
2.47038
2.43734
2.39401
2.3692
2.35864
2.34997
2.34511
2.33542
4.86934
4.20537
3.63152
3.14505
2.70596
2.37577
2.11482
1.8673
1.62573
1.47244
1.3593
1.26063
1.15101
1.05029
0.971551
0.911976
0.879803
0.845434
0.806772
0.771913
0.74351
0.717269
0.695122
0.662714
0.634127
0.623274
0.610766
0.587058
0.582566
0.589109
0.589652
0.589357
0.596175
0.619518
0.675388
0.74142
0.813777
0.902729
0.971585
1.01921
1.06762
1.1225
1.15304
1.1619
1.15999
1.14216
1.13965
1.14772
1.15777
1.16534
1.17625
1.18747
1.19967
1.21473
1.22159
1.22196
1.21877
1.20805
1.19527
1.18986
1.18904
1.19246
1.20665
1.22171
1.22525
1.225
1.22063
1.21294
1.20397
1.19452
1.18391
1.17624
1.17448
1.17365
1.17319
1.17399
1.17699
1.17751
1.17578
1.17384
1.17108
1.16706
1.16369
1.16076
1.15775
1.15453
1.15087
1.14671
1.14234
1.13789
1.13346
1.12893
1.12389
1.11967
1.11736
1.11491
1.112
1.11098
1.11481
1.14392
1.25933
1.5151
1.85055
2.20984
2.35365
2.39055
2.4408
2.48266
2.47786
2.45073
2.40928
2.38153
2.37416
2.36837
2.34536
2.31541
2.28613
2.26121
2.2358
2.20627
2.17739
2.15908
2.14274
2.12483
2.10357
2.08521
2.06962
2.05184
2.02925
2.00467
1.98522
1.96927
1.95178
1.93094
1.91855
1.93802
1.99986
2.13006
2.31771
2.55158
2.80541
3.06096
3.2137
3.30534
3.39955
3.43999
3.43018
3.42059
3.40886
3.41058
3.42838
3.41564
3.38446
3.32402
3.26445
3.21462
3.16108
3.09682
3.04649
3.02568
3.01818
3.01217
2.99599
2.97415
2.95026
2.92545
2.89866
2.86507
2.82059
2.79211
2.77965
2.76612
2.7483
2.72714
2.69681
2.65435
2.6086
2.5779
2.55585
2.53968
2.52807
2.51594
2.50215
2.48861
2.47084
2.43708
2.38619
2.35546
2.34535
2.3362
2.33264
2.33027
5.04067
4.44238
3.93319
3.47137
3.04081
2.69819
2.41439
2.1719
1.94897
1.74277
1.5611
1.43523
1.34453
1.25575
1.16591
1.06753
1.00903
0.962112
0.918002
0.885162
0.854642
0.820557
0.796057
0.769929
0.728123
0.69983
0.69078
0.673124
0.64127
0.635018
0.633958
0.621169
0.610457
0.616374
0.623006
0.628367
0.640835
0.681659
0.754199
0.836951
0.919078
0.997682
1.06166
1.11796
1.13119
1.13322
1.13961
1.14413
1.14435
1.14379
1.15229
1.16703
1.18796
1.21254
1.22081
1.22075
1.21527
1.19857
1.1836
1.18137
1.18195
1.19023
1.21004
1.22052
1.22229
1.22214
1.21728
1.20769
1.19738
1.18546
1.17522
1.17182
1.17102
1.17089
1.17247
1.17659
1.18035
1.17961
1.17797
1.17531
1.16996
1.16423
1.16026
1.15675
1.15327
1.14981
1.1465
1.14347
1.1406
1.138
1.13584
1.13316
1.12906
1.12505
1.12232
1.12062
1.12082
1.13893
1.23084
1.46514
1.81304
2.19091
2.38405
2.43553
2.46786
2.49614
2.50177
2.48616
2.45464
2.41876
2.39277
2.38712
2.37459
2.347
2.31528
2.29295
2.27453
2.25344
2.22877
2.19847
2.16761
2.14413
2.12742
2.11011
2.0965
2.08591
2.07105
2.0523
2.02718
2.00074
1.97872
1.95846
1.9385
1.91635
1.89479
1.86852
1.85282
1.8507
1.86353
1.90557
2.00014
2.15535
2.37579
2.61121
2.82311
2.97989
3.1383
3.21797
3.22509
3.24979
3.30049
3.34983
3.34692
3.33013
3.30407
3.2666
3.21889
3.15834
3.08716
3.03046
3.00445
2.99205
2.9739
2.95223
2.92593
2.89731
2.87029
2.84469
2.80887
2.78248
2.76244
2.7409
2.72308
2.70552
2.68494
2.65248
2.60771
2.57664
2.56129
2.55014
2.54088
2.52797
2.51062
2.49031
2.46553
2.43304
2.39215
2.35855
2.33862
2.32686
2.3215
2.314
5.18764
4.64488
4.18175
3.72587
3.31407
3.00413
2.70265
2.40011
2.19546
2.00207
1.81254
1.64028
1.50946
1.4106
1.32728
1.24807
1.17982
1.1117
1.03184
0.995161
0.967277
0.931754
0.901442
0.877169
0.834051
0.777846
0.761663
0.754293
0.733234
0.707424
0.699385
0.686489
0.657667
0.643244
0.64156
0.637052
0.636196
0.638225
0.645385
0.666283
0.711331
0.780338
0.859189
0.937688
0.999489
1.04558
1.08122
1.10992
1.14033
1.15323
1.14657
1.15144
1.17704
1.20496
1.21272
1.21192
1.20089
1.18039
1.17273
1.17493
1.18108
1.19455
1.21067
1.21493
1.21495
1.21284
1.20673
1.19876
1.19014
1.18079
1.1741
1.17167
1.17083
1.17146
1.17531
1.17886
1.1784
1.17684
1.17485
1.17139
1.16555
1.15977
1.15559
1.15172
1.14806
1.14519
1.14406
1.14407
1.14326
1.14198
1.14013
1.13622
1.12937
1.12427
1.12351
1.13324
1.19789
1.39821
1.74779
2.15198
2.39851
2.46493
2.50948
2.53836
2.53655
2.51724
2.48348
2.45134
2.42672
2.41398
2.40446
2.37977
2.34701
2.3163
2.29315
2.27895
2.26823
2.24868
2.21964
2.19009
2.16114
2.13448
2.11516
2.10447
2.09689
2.08188
2.06277
2.04238
2.0195
1.99585
1.97257
1.95098
1.93086
1.91348
1.89293
1.86052
1.83323
1.82459
1.81549
1.80576
1.80306
1.81097
1.83776
1.89729
2.00607
2.16376
2.34112
2.52375
2.73426
2.88892
2.98191
3.08662
3.16883
3.24862
3.2496
3.23249
3.21753
3.1931
3.14766
3.08645
3.02971
2.99842
2.97833
2.95856
2.93222
2.895
2.85422
2.82821
2.80808
2.78393
2.75307
2.72593
2.70896
2.69281
2.67189
2.6398
2.59929
2.57501
2.56455
2.55853
2.55094
2.53628
2.51962
2.4974
2.4648
2.42845
2.40111
2.37931
2.35333
2.32877
2.31909
2.30837
5.30428
4.81336
4.3778
3.93858
3.55813
3.2473
2.9341
2.63278
2.42668
2.21758
2.00367
1.8311
1.71933
1.60328
1.47945
1.3969
1.33146
1.25964
1.17991
1.1244
1.08716
1.03761
0.985265
0.958222
0.926974
0.881247
0.841323
0.827102
0.812426
0.790788
0.77486
0.760864
0.739851
0.711607
0.693793
0.679118
0.661938
0.654374
0.652715
0.651729
0.653737
0.663404
0.687053
0.728932
0.785616
0.841805
0.902095
0.969985
1.03848
1.10185
1.12229
1.1418
1.18093
1.19623
1.19525
1.19127
1.17498
1.16177
1.16318
1.1706
1.18404
1.19991
1.20539
1.20245
1.19698
1.19095