/*--------------------------------*- C++ -*----------------------------------*\
  =========                 |
  \\      /  F ield         | OpenFOAM: The Open Source CFD Toolbox
   \\    /   O peration     | Website:  https://openfoam.org
    \\  /    A nd           | Version:  7
     \\/     M anipulation  |
\*---------------------------------------------------------------------------*/
FoamFile
{
    version     2.0;
    format      ascii;
    class       volScalarField;
    location    "1.4";
    object      T;
}
// * * * * * * * * * * * * * * * * * * * * * * * * * * * * * * * * * * * * * //

dimensions      [0 0 0 1 0 0 0];

internalField   nonuniform List<scalar> 
16128
(
1
1
1
1
1
1
1
1
1
1
1
1
1
1
1
1
1
1
1
1
1
1
1
1
1
1.45883
2.55556
2.73594
2.73746
2.74483
2.74935
2.75277
2.75738
2.76654
2.7822
2.80186
2.81905
2.82886
2.83067
2.82973
2.82877
2.82996
2.83597
2.84965
2.87292
2.90424
2.93126
2.94374
1
1
1
1
1
1
1
1
1
1
1
1
1
1
1
1
1
1
1
1
1
1
1
1
1
1.44001
2.54796
2.73528
2.7379
2.74472
2.74887
2.75205
2.75668
2.76599
2.78175
2.8014
2.81851
2.82826
2.83
2.82906
2.82818
2.82955
2.83571
2.84932
2.87239
2.90337
2.93016
2.94244
1
1
1
1
1
1
1
1
1
1
1
1
1
1
1
1
1
1
1
1
1
1
1
1
1
1.39893
2.53158
2.73519
2.73762
2.74343
2.74744
2.75082
2.75594
2.76559
2.78127
2.80065
2.8176
2.82727
2.82899
2.82804
2.82723
2.82881
2.8352
2.84872
2.87163
2.90229
2.92883
2.94093
1
1
1
1
1
1
1
1
1
1
1
1
1
1
1
1
1
1
1
1
1
1
1
1
1
1.34486
2.50903
2.73384
2.73574
2.74088
2.7453
2.74975
2.75566
2.76546
2.7806
2.79926
2.81575
2.8254
2.82732
2.82646
2.82575
2.82751
2.83409
2.84756
2.87035
2.9007
2.92695
2.93875
1
1
1
1
1
1
1
1
1
1
1
1
1
1
1
1
1
1
1
1
1
1
1
1
1
1.28147
2.47833
2.72713
2.73119
2.73712
2.74336
2.74946
2.75616
2.76573
2.77977
2.7971
2.8128
2.82258
2.82502
2.82438
2.82376
2.82551
2.83208
2.84544
2.86822
2.89846
2.92455
2.93611
1
1
1
1
1
1
1
1
1
1
1
1
1
1
1
1
1
1
1
1
1
1
1
1
1
1.20352
2.4318
2.71549
2.72484
2.73376
2.74193
2.74937
2.75661
2.76575
2.77833
2.794
2.80874
2.81877
2.82193
2.82162
2.8211
2.82268
2.82899
2.84217
2.86501
2.89532
2.9214
2.93276
1
1
1
1
1
1
1
1
1
1
1
1
1
1
1
1
1
1
1
1
1
1
1
1
1
1.10163
2.36673
2.70678
2.72094
2.73215
2.74156
2.74955
2.75663
2.76492
2.77578
2.78972
2.80354
2.81383
2.81773
2.81779
2.81742
2.81878
2.82479
2.83778
2.86072
2.89117
2.91728
2.92844
1
1
1
1
1
1
1
1
1
1
1
1
1
1
1
1
1
1
1
1
1
1
1
1
1
1.00492
2.28695
2.70327
2.71918
2.7305
2.74014
2.74822
2.75517
2.76272
2.77229
2.78475
2.79753
2.80776
2.81235
2.81292
2.81268
2.81383
2.81946
2.83224
2.85527
2.88588
2.91205
2.92308
1
1
1
1
1
1
1
1
1
1
1
1
1
1
1
1
1
1
1
1
1
1
1
1
1
1.00003
2.19033
2.69668
2.71896
2.72995
2.73936
2.74694
2.75343
2.76031
2.7688
2.77986
2.79143
2.80092
2.80542
2.80597
2.80573
2.80673
2.81228
2.82518
2.84842
2.87937
2.90579
2.91679
1
1
1
1
1
1
1
1
1
1
1
1
1
1
1
1
1
1
1
1
1
1
1
1
1
1
2.06754
2.6835
2.7182
2.72901
2.73814
2.74489
2.75041
2.75625
2.7636
2.77342
2.78393
2.79275
2.79717
2.79765
2.79735
2.79829
2.80402
2.81719
2.84037
2.8713
2.89773
2.90843
1
1
1
1
1
1
1
1
1
1
1
1
1
1
1
1
1
1
1
1
1
1
1
1
1
1
1.91657
2.65536
2.71352
2.72494
2.73409
2.74054
2.74576
2.75115
2.75771
2.76634
2.7758
2.78391
2.78811
2.78837
2.78783
2.78855
2.79409
2.80697
2.8298
2.86079
2.88768
2.89866
1
1
1
1
1
1
1
1
1
1
1
1
1
1
1
1
1
1
1
1
1
1
1
1
1
1
1.74257
2.6075
2.7033
2.7154
2.72618
2.733
2.73844
2.74375
2.74974
2.75735
2.76603
2.77372
2.77803
2.77827
2.77749
2.77794
2.78297
2.79514
2.81721
2.84775
2.87467
2.88526
1
1
1
1
1
1
1
1
1
1
1
1
1
1
1
1
1
1
1
1
1
1
1
1
1
1
1.5112
2.51991
2.68571
2.69896
2.71291
2.72134
2.72814
2.73405
2.73974
2.74643
2.75435
2.76167
2.76633
2.76709
2.76625
2.76651
2.77035
2.77994
2.79946
2.82891
2.85616
2.86839
1
1
1
1
1
1
1
1
1
1
1
1
1
1
1
1
1
1
1
1
1
1
1
1
1
1
1.22151
2.41025
2.67458
2.68184
2.6953
2.70526
2.71346
2.72042
2.72642
2.73283
2.74029
2.74718
2.75231
2.75396
2.75351
2.75354
2.75535
2.76231
2.77909
2.80696
2.83162
2.83814
1
1
1
1
1
1
1
1
1
1
1
1
1
1
1
1
1
1
1
1
1
1
1
1
1
1
1.013
2.30704
2.66607
2.67218
2.68418
2.69339
2.70139
2.70775
2.71297
2.71839
2.72447
2.73052
2.73584
2.73834
2.7383
2.73796
2.73816
2.74155
2.75206
2.77158
2.79111
2.79608
1
1
1
1
1
1
1
1
1
1
1
1
1
1
1
1
1
1
1
1
1
1
1
1
1
1
1.00005
2.14784
2.65174
2.67002
2.67997
2.68673
2.69174
2.69567
2.69928
2.70343
2.70803
2.7131
2.71798
2.7208
2.72073
2.71951
2.71738
2.71616
2.71945
2.73188
2.75137
2.77194
1
1
1
1
1
1
1
1
1
1
1
1
1
1
1
1
1
1
1
1
1
1
1
1
1
1
1
1.94035
2.62142
2.66816
2.67871
2.68521
2.68819
2.68971
2.69105
2.69278
2.69526
2.6985
2.70174
2.70349
2.70248
2.69949
2.69444
2.68869
2.68271
2.67427
2.63688
2.53597
1
1
1
1
1
1
1
1
1
1
1
1
1
1
1
1
1
1
1
1
1
1
1
1
1
1
1
1.63101
2.52583
2.6482
2.66656
2.67761
2.68207
2.68361
2.68398
2.68386
2.68474
2.68631
2.68761
2.68718
2.68438
2.67871
2.67007
2.65812
2.64066
2.60708
2.55203
2.38317
1
1
1
1
1
1
1
1
1
1
1
1
1
1
1
1
1
1
1
1
1
1
1
1
1
1
1
1.22212
2.38659
2.63607
2.64712
2.66133
2.67081
2.67497
2.6751
2.67473
2.6748
2.67519
2.67486
2.67254
2.66711
2.65796
2.64518
2.62726
2.60082
2.55583
2.47611
2.28967
1
1
1
1
1
1
1
1
1
1
1
1
1
1
1
1
1
1
1
1
1
1
1
1
1
1
1
1.01199
2.25546
2.60393
2.62267
2.63925
2.65301
2.66094
2.66271
2.6631
2.66316
2.66321
2.66207
2.65823
2.65033
2.63782
2.62091
2.59832
2.56465
2.51571
2.41932
2.25531
1
1
1
1
1
1
1
1
1
1
1
1
1
1
1
1
1
1
1
1
1
1
1
1
1
1
1
1.00002
2.01803
2.57271
2.60809
2.62588
2.63851
2.64621
2.64884
2.64968
2.6497
2.64943
2.64785
2.64318
2.63364
2.61858
2.59804
2.57164
2.53459
2.48272
2.38612
2.25759
1
1
1
1
1
1
1
1
1
1
1
1
1
1
1
1
1
1
1
1
1
1
1
1
1
1
1
1
1.61942
2.47818
2.59548
2.61025
2.62351
2.63109
2.63336
2.63373
2.6334
2.63278
2.63094
2.62609
2.61608
2.59989
2.57723
2.54808
2.50923
2.45636
2.36924
2.26401
1
1
1
1
1
1
1
1
1
1
1
1
1
1
1
1
1
1
1
1
1
1
1
1
1
1
1
1
1.122
2.33001
2.60061
2.5992
2.60575
2.61399
2.61633
2.61608
2.61527
2.61408
2.61171
2.60662
2.59661
2.5804
2.55716
2.52702
2.48695
2.43491
2.35868
2.27178
1
1
1
1
1
1
1
1
1
1
1
1
1
1
1
1
1
1
1
1
1
1
1
1
1
1
1
1
1.00339
2.15211
2.56307
2.5767
2.59098
2.59854
2.5996
2.59878
2.597
2.5947
2.59137
2.58584
2.57593
2.56016
2.53761
2.50794
2.4675
2.41792
2.35243
2.2794
1
1
1
1
1
1
1
1
1
1
1
1
1
1
1
1
1
1
1
1
1
1
1
1
1
1
1
1
0.99999
1.7642
2.4872
2.56285
2.57726
2.58359
2.5851
2.58394
2.5812
2.57734
2.57238
2.56561
2.55505
2.53918
2.51759
2.48853
2.44964
2.40375
2.34636
2.28412
1
1
1
1
1
1
1
1
1
1
1
1
1
1
1
1
1
1
1
1
1
1
1
1
1
1
1
1
0.999997
1.21924
2.34653
2.56367
2.55732
2.56217
2.56722
2.56739
2.56531
2.56071
2.55438
2.54639
2.53514
2.51918
2.49801
2.46978
2.4339
2.39198
2.34135
2.28795
1
1
1
1
1
1
1
1
1
1
1
1
1
1
1
1
1
1
1
1
1
1
1
1
1
1
1
1
1
1.01077
2.17002
2.52758
2.53281
2.54215
2.54944
2.55113
2.54954
2.54495
2.53781
2.52894
2.51666
2.50092
2.47941
2.45212
2.41926
2.38088
2.33568
2.28775
1
1
1
1
1
1
1
1
1
1
1
1
1
1
1
1
1
1
1
1
1
1
1
1
1
1
1
1
1
1.00001
1.73792
2.4455
2.51446
2.53019
2.53679
2.53678
2.53508
2.53016
2.52238
2.51279
2.49991
2.48445
2.46257
2.43655
2.40625
2.3709
2.33062
2.28726
1
1
1
1
1
1
1
1
1
1
1
1
1
1
1
1
1
1
1
1
1
1
1
1
1
1
1
1
1
0.999998
1.14548
2.28252
2.51496
2.51353
2.51856
2.51882
2.51723
2.51271
2.50504
2.4956
2.48329
2.4679
2.44734
2.42295
2.39453
2.3619
2.32526
2.28532
1
1
1
1
1
1
1
1
1
1
1
1
1
1
1
1
1
1
1
1
1
1
1
1
1
1
1
1
1
0.999999
1.00473
2.03062
2.46991
2.4874
2.49557
2.49926
2.49823
2.4946
2.4874
2.4784
2.4666
2.45218
2.43348
2.41084
2.38418
2.35413
2.32007
2.28363
1
1
1
1
1
1
1
1
1
1
1
1
1
1
1
1
1
1
1
1
1
1
1
1
1
1
1
1
1
1
0.999992
1.4679
2.35659
2.48106
2.47724
2.47934
2.47899
2.47626
2.46981
2.46128
2.45017
2.43682
2.42014
2.39949
2.37493
2.34692
2.31504
2.28164
1
1
1
1
1
1
1
1
1
1
1
1
1
1
1
1
1
1
1
1
1
1
1
1
1
1
1
1
1
1
0.999998
1.05036
2.17885
2.46199
2.45571
2.45821
2.45746
2.45515
2.45049
2.44369
2.43398
2.42186
2.40702
2.38846
2.36597
2.33974
2.31016
2.27907
1
1
1
1
1
1
1
1
1
1
1
1
1
1
1
1
1
1
1
1
1
1
1
1
1
1
1
1
1
1
1
1.00043
1.72442
2.37879
2.44306
2.44376
2.44229
2.43961
2.43548
2.42933
2.42012
2.4085
2.39452
2.37726
2.35633
2.33188
2.30466
2.27534
1
1
1
1
1
1
1
1
1
1
1
1
1
1
1
1
1
1
1
1
1
1
1
1
1
1
1
1
1
1
1
1
1.13889
2.20812
2.4367
2.43008
2.42681
2.42386
2.42035
2.41491
2.40645
2.39519
2.38154
2.36496
2.34534
2.32273
2.29757
2.2701
1
1
1
1
1
1
1
1
1
1
1
1
1
1
1
1
1
1
1
1
1
1
1
1
1
1
1
1
1
1
1
1
1.00377
1.84048
2.36485
2.40872
2.40776
2.40735
2.40547
2.40072
2.39274
2.38202
2.36895
2.35324
2.33456
2.31304
2.28921
2.26359
1
1
1
1
1
1
1
1
1
1
1
1
1
1
1
1
1
1
1
1
1
1
1
1
1
1
1
1
1
1
1
1
1
1.21298
2.19898
2.4016
2.39384
2.39267
2.39014
2.38498
2.37711
2.36676
2.35418
2.33921
2.32176
2.30192
2.27998
2.25633
1
1
1
1
1
1
1
1
1
1
1
1
1
1
1
1
1
1
1
1
1
1
1
1
1
1
1
1
1
1
1
1
1
1.00918
1.86654
2.33575
2.37471
2.37294
2.37068
2.36674
2.35996
2.3504
2.33865
2.32482
2.3088
2.29066
2.2707
2.24906
1
1
1
1
1
1
1
1
1
1
1
1
1
1
1
1
1
1
1
1
1
1
1
1
1
1
1
1
1
1
1
1
1
1.00002
1.24216
2.16721
2.36548
2.35904
2.35557
2.35073
2.34366
2.33395
2.32246
2.30972
2.29542
2.27924
2.26128
2.24176
1
1
1
1
1
1
1
1
1
1
1
1
1
1
1
1
1
1
1
1
1
1
1
1
1
1
1
1
1
1
1
1
1
1
1.01192
1.82098
2.29632
2.34269
2.33768
2.33242
2.32559
2.31686
2.30652
2.29506
2.28233
2.268
2.25203
2.23458
1
1
1
1
1
1
1
1
1
1
1
1
1
1
1
1
1
1
1
1
1
1
1
1
1
1
1
1
1
1
1
1
1
1
1.00005
1.21928
2.11889
2.32826
2.32199
2.31678
2.31005
2.30202
2.2927
2.2822
2.27051
2.25755
2.24316
2.2273
1
1
1
1
1
1
1
1
1
1
1
1
1
1
1
1
1
1
1
1
1
1
1
1
1
1
1
1
1
1
1
1
1
1
1
1.00966
1.70236
2.23917
2.30427
2.29702
2.29131
2.2848
2.27725
2.26819
2.25787
2.24645
2.23377
2.21949
1
1
1
1
1
1
1
1
1
1
1
1
1
1
1
1
1
1
1
1
1
1
1
1
1
1
1
1
1
1
1
1
1
1
1
1.00004
1.15118
2.04743
2.29231
2.28271
2.27696
2.27016
2.26347
2.25556
2.24638
2.23606
2.22451
2.21149
1
1
1
1
1
1
1
1
1
1
1
1
1
1
1
1
1
1
1
1
1
1
1
1
1
1
1
1
1
1
1
1
1
1
1
1
1.00453
1.53294
2.16518
2.26627
2.25839
2.25337
2.24757
2.24057
2.23261
2.22379
2.21378
2.2023
1
1
1
1
1
1
1
1
1
1
1
1
1
1
1
1
1
1
1
1
1
1
1
1
1
1
1
1
1
1
1
1
1
1
1
1
1.00002
1.07566
1.91566
2.2427
2.24672
2.2425
2.23612
2.22901
2.22099
2.21227
2.20268
2.19192
1
1
1
1
1
1
1
1
1
1
1
1
1
1
1
1
1
1
1
1
1
1
1
1
1
1
1
1
1
1
1
1
1
1
1
1
1
1.00126
1.34729
2.07966
2.23466
2.22388
2.21978
2.21403
2.20711
2.19931
2.19062
2.1808
1
1
1
1
1
1
1
1
1
1
1
1
1
1
1
1
1
1
1
1
1
1
1
1
1
1
1
1
1
1
1
1
1
1
1
1
1
1
1.02706
1.69258
2.15189
2.21281
2.20559
2.19986
2.19367
2.18654
2.17843
2.16928
1
1
1
1
1
1
1
1
1
1
1
1
1
1
1
1
1
1
1
1
1
1
1
1
1
1
1
1
1
1
1
1
1
1
1
1
1
1
1.00027
1.15954
1.93671
2.19784
2.19323
2.1877
2.1816
2.17485
2.1672
2.15857
1
1
1
1
1
1
1
1
1
1
1
1
1
1
1
1
1
1
1
1
1
1
1
1
1
1
1
1
1
1
1
1
1
1
1
1
1
1
1
1.00533
1.4241
2.05935
2.17937
2.17009
2.16468
2.15901
2.15261
2.14515
1
1
1
1
1
1
1
1
1
1
1
1
1
1
1
1
1
1
1
1
1
1
1
1
1
1
1
1
1
1
1
1
1
1
1
1
1
1
1
1.00003
1.0459
1.71061
2.11143
2.16202
2.15233
2.14553
2.13939
2.13255
1
1
1
1
1
1
1
1
1
1
1
1
1
1
1
1
1
1
1
1
1
1
1
1
1
1
1
1
1
1
1
1
1
1
1
1
1
1
1
1
1.00065
1.18027
1.89685
2.14002
2.14174
2.13546
2.12876
2.12158
1
1
1
1
1
1
1
1
1
1
1
1
1
1
1
1
1
1
1
1
1
1
1
1
1
1
1
1
1
1
1
1
1
1
1
1
1
1
1
1
1
1.00701
1.39658
1.99451
2.12725
2.12153
2.11503
2.10892
1
1
1
1
1
1
1
1
1
1
1
1
1
1
1
1
1
1
1
1
1
1
1
1
1
1
1
1
1
1
1
1
1
1
1
1
1
1
1
1
1
1.00005
1.04007
1.61287
2.04646
2.11293
2.10333
2.09629
1
1
1
1
1
1
1
1
1
1
1
1
1
1
1
1
1
1
1
1
1
1
1
1
1
1
1
1
1
1
1
1
1
1
1
1
1
1
1
1
1
1
1.00056
1.1275
1.7913
2.06204
2.0989
2.08871
1
1
1
1
1
1
1
1
1
1
1
1
1
1
1
1
1
1
1
1
1
1
1
1
1
1
1
1
1
1
1
1
1
1
1
1
1
1
1
1
1
1
1
1.00384
1.27941
1.88569
2.07538
2.08002
1
1
1
1
1
1
1
1
1
1
1
1
1
1
1
1
1
1
1
1
1
1
1
1
1
1
1
1
1
1
1
1
1
1
1
1
1
1
1
1
1
1
1
1.00002
1.01825
1.44325
1.94992
2.06523
1
1
1
1
1
1
1
1
1
1
1
1
1
1
1
1
1
1
1
1
1
1
1
1
1
1
1
1
1
1
1
1
1
1
1
1
1
1
1
1
1
1
1
1
1.00019
1.05687
1.59491
1.98696
1
1
1
1
1
1
1
1
1
1
1
1
1
1
1
1
1
1
1
1
1
1
1
1
1
1
1
1
1
1
1
1
1
1
1
1
1
1
1
1
1
1
1
1
1
1.00104
1.12877
1.71433
1
1
1
1
1
1
1
1
1
1
1
1
1
1
1
1
1
1
1
1
1
1
1
1
1
1
1
1
1
1
1
1
1
1
1
1
1
1
1
1
1
1
1
1
1
1
1.00411
1.22749
1
1
1
1
1
1
1
1
1
1
1
1
1
1
1
1
1
1
1
1
1
1
1
1
1
1
1
1
1
1
1
1
1
1
1
1
1
1
1
1
1
1
1
1
1
1
1.00003
1.01251
1
1
1
1
1
1
1
1
1
1
1
1
1
1
1
1
1
1
1
1
1
1
1
1
1
1
1
1
1
1
1
1
1
1
1
1
1
1
1
1
1
1
1
1
1
1
1
1.00012
1
1
1
1
1
1
1
1
1
1
1
1
1
1
1
1
1
1
1
1
1
1
1
1
1
1
1
1
1
1
1
1
1
1
1
1
1
1
1
1
1
1
1
1
1
1
1
1
1
1
1
1
1
1
1
1
1
1
1
1
1
1
1
1
1
1
1
1
1
1
1
1
1
1
1
1
1
1
1
1
1
1
1
1
1
1
1
1
1
1
1
1
1
1
1
1
1
1
1
1
1
1
1
1
1
1
1
1
1
1
1
1
1
1
1
1
1
1
1
1
1
1
1
1
1
1
1
1
1
1
1
1
1
1
1
1
1
1
1
1
1
1
1
1
1
1
1
1
1
1
1
1
1
1
1
1
1
1
1
1
1
1
1
1
1
1
1
1
1
1
1
1
1
1
1
1
1
1
1
1
1
1
1
1
1
1
1
1
1
1
1
1
1
1
1
1
1
1
1
1
1
1
1
1
1
1
1
1
1
1
1
1
1
1
1
1
1
1
1
1
1
1
1
1
1
1
1
1
1
1
1
1
1
1
1
1
1
1
1
1
1
1
1
1
1
1
1
1
1
1
1
1
1
1
1
1
1
1
1
1
1
1
1
1
1
1
1
1
1
1
1
1
1
1
1
1
1
1
1
1
1
1
1
1
1
1
1
1
1
1
1
1
1
1
1
1
1
1
1
1
1
1
1
1
1
1
1
1
1
1
1
1
1
1
1
1
1
1
1
1
1
1
1
1
1
1
1
1
1
1
1
1
1
1
1
1
1
1
1
1
1
1
1
1
1
1
1
1
1
1
1
1
1
1
1
1
1
1
1
1
1
1
1
1
1
1
1
1
1
1
1
1
1
1
1
1
1
1
1
1
1
1
1
1
1
1
1
1
1
1
1
1
1
1
1
1
1
1
1
1
1
1
1
1
1
1
1
1
1
1
1
1
1
1
1
1
1
1
1
1
1
1
1
1
1
1
1
1
1
1
1
1
1
1
1
1
1
1
1
1
1
1
1
1
1
1
1
1
1
1
1
1
1
1
1
1
1
1
1
1
1
1
1
1
1
1
1
1
1
1
1
1
1
1
1
1
1
1
1
1
1
1
1
1
1
1
1
1
1
1
1
1
1
1
1
1
1
1
1
1
1
1
1
1
1
1
1
1
1
1
1
1
1
1
1
1
1
1
1
1
1
1
1
1
1
1
1
1
1
1
1
1
1
1
1
1
1
1
1
1
1
1
1
1
1
1
1
1
1
1
1
1
1
1
1
1
1
1
1
1
1
1
1
1
1
1
1
1
1
1
1
1
1
1
1
1
1
1
1
1
1
1
1
1
1
1
1
1
1
1
1
1
1
1
1
1
1
1
1
1
1
1
1
1
1
1
1
1
1
1
1
1
1
1
1
1
1
1
1
1
1
1
1
1
1
1
1
1
1
1
1
1
1
1
1
1
1
1
1
1
1
1
1
1
1
1
1
1
1
1
1
1
1
1
1
1
1
1
1
1
1
1
1
1
1
1
1
1
1
1
1
1
1
1
1
1
1
1
1
1
1
1
1
1
1
1
1
1
1
1
1
1
1
1
1
1
1
1
1
1
1
1
1
1
1
1
1
1
1
1
1
1
1
1
1
1
1
1
1
1
1
1
1
1
1
1
1
1
1
1
1
1
1
1
1
1
1
1
1
1
1
1
1
1
1
1
1
1
1
1
1
1
1
1
1
1
1
1
1
1
1
1
1
1
1
1
1
1
1
1
1
1
1
1
1
1
1
1
1
1
1
1
1
1
1
1
1
1
1
1
1
1
1
1
1
1
1
1
1
1
1
1
1
1
1
1
1
1
1
1
1
1
1
1
1
1
1
1
1
1
1
1
1
1
1
1
1
1
1
1
1
1
1
1
1
1
1
1
1
1
1
1
1
1
1
1
1
1
1
1
1
1
1
1
1
1
1
1
1
1
1
1
1
1
1
1
1
1
1
1
1
1
1
1
1
1
1
1
1
1
1
1
1
1
1
1
1
1
1
1
1
1
1
1
1
1
1
1
1
1
1
1
1
1
1
1
1
1
1
1
1
1
1
1
1
1
1
1
1
1
1
1
1
1
1
1
1
1
1
1
1
1
1
1
1
1
1
1
1
1
1
1
1
1
1
1
1
1
1
1
1
1
1
1
1
1
1
1
1
1
1.6149
0.905163
0.943898
1.03677
1.0113
1.02977
1.09323
1.1677
1.20352
1.26258
1.38031
1.51258
1.61385
1.65059
1.66077
1.65891
1.64874
1.65018
1.667
1.69877
1.70492
1.69428
1.67139
1.67137
1.67899
1.68621
1.70313
1.72894
1.73281
1.72686
1.72211
1.71881
1.72187
1.73142
1.74004
1.74965
1.75578
1.75752
1.75877
1.76047
1.76378
1.76927
1.77248
1.77155
1.77051
1.77045
1.77092
1.77317
1.77405
1.7723
1.7657
1.75626
1.74924
1.74344
1.73779
1.73379
1.73198
1.73052
1.73014
1.73164
1.7343
1.73442
1.73447
1.73443
1.73481
1.7372
1.73911
1.74053
1.74099
1.74048
1.74048
1.74027
1.73909
1.73792
1.73821
1.73984
1.74123
1.74218
1.74201
1.74158
1.74095
1.73889
1.73546
1.73163
1.727
1.72258
1.72002
1.71756
1.7171
1.71748
1.71766
1.71714
1.71517
1.7119
1.7089
1.70661
1.70446
1.70323
1.70309
1.70329
1.70409
1.70548
1.70676
1.70846
1.71136
1.71412
1.71558
1.7156
1.71455
1.70913
1.7007
1.70121
1.71472
1.76525
1.87403
2.02018
2.16929
2.3146
2.41943
2.49757
2.55319
2.58828
2.61005
2.60931
2.60431
2.59619
2.5745
2.55036
2.54191
2.53232
2.5253
2.51767
2.50689
2.49417
2.48723
2.48166
2.47475
2.46596
2.45673
2.4467
2.43627
2.42555
2.41429
2.40472
2.3978
2.39278
2.38977
2.38747
2.38452
2.38003
2.37447
2.36899
2.36306
2.35529
2.34727
2.34252
2.33907
2.3365
2.33392
2.33128
2.32683
2.31751
2.30606
2.29948
2.2944
2.28813
2.28147
2.27489
2.26943
2.26499
2.26095
2.25653
2.2504
2.24206
2.23481
2.22743
2.21819
2.21289
2.21277
2.21483
2.21999
2.22456
2.22466
2.21854
2.21487
2.21669
2.21731
2.2159
2.21395
2.21425
2.21362
2.20054
1.8887
1.48676
1.32462
1.26291
1.21971
1.18365
1.15666
1.12141
1.08994
1.10622
1.13486
1.20214
1.27204
1.30304
1.32231
1.36779
1.42132
1.45509
1.49669
1.53935
1.57055
1.57862
1.57653
1.57993
1.59454
1.61028
1.6308
1.65666
1.67375
1.67434
1.67147
1.67168
1.67426
1.68313
1.69664
1.71094
1.71883
1.71946
1.71825
1.71811
1.72093
1.72837
1.73785
1.74264
1.74291
1.7442
1.74461
1.74371
1.74167
1.73924
1.73542
1.73123
1.7285
1.72446
1.71963
1.7151
1.71174
1.70951
1.70812
1.70868
1.71127
1.71251
1.7133
1.71437
1.71527
1.71739
1.71962
1.72146
1.72268
1.72264
1.7232
1.72392
1.72439
1.72466
1.72526
1.72695
1.7278
1.72772
1.72745
1.72696
1.72611
1.72419
1.72115
1.71772
1.71362
1.70953
1.70507
1.70181
1.70144
1.70195
1.7031
1.70352
1.70337
1.70279
1.70129
1.69869
1.69599
1.69414
1.69341
1.69335
1.69377
1.69508
1.69674
1.69778
1.69877
1.69993
1.69908
1.69752
1.696
1.69907
1.71066
1.75107
1.83605
1.93773
2.01599
2.05023
2.07982
2.10373
2.15244
2.20501
2.24772
2.28393
2.32323
2.36328
2.40376
2.43702
2.45675
2.46971
2.47569
2.47421
2.47163
2.46618
2.46112
2.45416
2.44984
2.44505
2.43803
2.42898
2.41917
2.40863
2.39833
2.38764
2.37577
2.36493
2.35767
2.35358
2.35218
2.35158
2.35082
2.34914
2.34624
2.34256
2.33787
2.33088
2.32219
2.31699
2.31415
2.31207
2.30982
2.30767
2.30485
2.2999
2.29187
2.28247
2.27473
2.26799
2.26082
2.25364
2.24707
2.2416
2.23745
2.23372
2.22924
2.22348
2.21716
2.20983
2.20111
2.19525
2.19423
2.19533
2.1999
2.2063
2.20915
2.20845
2.20666
2.20613
2.20534
2.20362
2.2001
2.19632
2.19282
2.18148
2.00037
1.78016
1.5352
1.42759
1.36135
1.27399
1.2306
1.21187
1.17387
1.10821
1.10658
1.11883
1.12617
1.14092
1.16006
1.1706
1.20214
1.25369
1.30013
1.34568
1.38258
1.41403
1.43928
1.45693
1.47657
1.49908
1.52072
1.54331
1.56831
1.58298
1.59109
1.60142
1.6056
1.60839
1.61698
1.63156
1.64202
1.64456
1.64439
1.64197
1.64138
1.64419
1.65243
1.66269
1.67135
1.67838
1.6812
1.68042
1.67696
1.67293
1.6695
1.66955
1.67282
1.67434
1.67372
1.67051
1.6649
1.66001
1.65754
1.6571
1.65812
1.6602
1.66243
1.66448
1.66595
1.66796
1.6704
1.67256
1.67395
1.67499
1.67558
1.67595
1.6764
1.67744
1.67998
1.68454
1.68805
1.68894
1.68892
1.68841
1.68696
1.68409
1.68127
1.67913
1.67644
1.67415
1.67102
1.66704
1.66539
1.66458
1.66378
1.66376
1.66458
1.66524
1.66503
1.66382
1.6622
1.66081
1.6605
1.66061
1.6614
1.66356
1.66738
1.66979
1.66972
1.66768
1.66028
1.66151
1.67141
1.71145
1.79246
1.89084
1.97604
2.00619
2.02322
2.01955
2.00317
1.96868
1.93642
1.93188
1.94555
1.98272
2.04298
2.10982
2.17356
2.22827
2.27148
2.30166
2.32618
2.34141
2.35528
2.36162
2.36624
2.36358
2.35796
2.35034
2.34125
2.33103
2.32064
2.31091
2.3023
2.29419
2.28525
2.27608
2.27081
2.27095
2.27247
2.27465
2.27735
2.27872
2.27799
2.27578
2.27248
2.26708
2.25863
2.25027
2.24462
2.24047
2.23707
2.23468
2.23311
2.23125
2.22757
2.22164
2.21465
2.20761
2.20097
2.19485
2.1891
2.18329
2.17713
2.17108
2.16728
2.16649
2.16506
2.16167
2.15673
2.15234
2.14953
2.14766
2.14697
2.14758
2.15101
2.15535
2.15982
2.16355
2.16442
2.16397
2.16031
2.15208
2.14181
2.12804
2.0514
1.88602
1.70948
1.60078
1.51328
1.39998
1.32051
1.31968
1.30087
1.2476
1.21711
1.19207
1.1613
1.15321
1.14986
1.1471
1.15301
1.16767
1.19283
1.22362
1.25137
1.28108
1.31782
1.34652
1.36661
1.38731
1.40504
1.42003
1.44626
1.47604
1.4967
1.51789
1.53485
1.5442
1.55328
1.56395
1.56942
1.56883
1.56483
1.55974
1.55852
1.55948
1.56467
1.57489
1.58514
1.59206
1.59758
1.60054
1.60185
1.60196
1.60102
1.60131
1.60367
1.60566
1.60537
1.60226
1.5965
1.59257
1.59204
1.59224
1.59374
1.59617
1.59861
1.59991
1.60078
1.60256
1.60491
1.60674
1.60852
1.61057
1.61148
1.61139
1.61089
1.61132
1.61423
1.62033
1.6263
1.62922
1.6302
1.63032
1.62955
1.62695
1.62335
1.62094
1.61896
1.61638
1.61281
1.60881
1.60777
1.60782
1.60789
1.60841
1.60922
1.60913
1.60869
1.60797
1.60683
1.60591
1.6059
1.60613
1.60684
1.60827
1.6112
1.61395
1.61458
1.61852
1.62971
1.66177
1.73374
1.82951
1.91607
1.96355
1.96501
1.96158
1.95904
1.94722
1.92012
1.88873
1.86835
1.86015
1.85674
1.85027
1.85279
1.86874
1.90651
1.96489
2.03503
2.09489
2.14807
2.18145
2.2017
2.21386
2.22548
2.23316
2.2419
2.2488
2.2484
2.24529
2.23757
2.2288
2.21901
2.20821
2.19826
2.18916
2.18296
2.18185
2.18205
2.18256
2.18324
2.18394
2.18384
2.18209
2.17892
2.17493
2.16904
2.16097
2.15418
2.15055
2.14808
2.14612
2.14419
2.14193
2.13931
2.1365
2.13249
2.12643
2.11984
2.11491
2.11052
2.10563
2.09971
2.09301
2.08684
2.0834
2.08273
2.08194
2.08051
2.07905
2.07803
2.07686
2.07506
2.07438
2.07567
2.0782
2.08214
2.08601
2.088
2.08831
2.08653
2.08046
2.0697
2.05592
2.1019
1.95791
1.81715
1.71795
1.6333
1.54195
1.4621
1.42173
1.38247
1.34184
1.31646
1.29099
1.25398
1.22484
1.2157
1.20254
1.18882
1.18824
1.19378
1.19461
1.19419
1.19639
1.20266
1.21735
1.23687
1.26323
1.29398
1.32153
1.35689
1.40104
1.42956
1.44944
1.46883
1.48408
1.49353
1.50212
1.51203
1.51543
1.5149
1.51416
1.51467
1.51503
1.51826
1.52541
1.53151
1.5364
1.5415
1.54655
1.54994
1.55043
1.54986
1.5492
1.54781
1.54734
1.54706
1.54653
1.54543
1.54487
1.54447
1.54438
1.54431
1.54414
1.54374
1.54371
1.54476
1.54663
1.54951
1.5513
1.55308
1.55597
1.55787
1.55771
1.55639
1.55647
1.55916
1.56476
1.57082
1.57397
1.57493
1.57499
1.57405
1.57112
1.56724
1.56443
1.56224
1.55956
1.55599
1.5529
1.55214
1.55217
1.55284
1.55442
1.55508
1.55498
1.55442
1.55343
1.55218
1.55146
1.5515
1.55169
1.55216
1.55295
1.55368
1.55738
1.56771
1.5967
1.66598
1.76059
1.84493
1.91659
1.93758
1.92299
1.9102
1.9045
1.89951
1.88495
1.86445
1.84791
1.84022
1.83647
1.83107
1.82333
1.81604
1.81151
1.80945
1.81431
1.83303
1.87023
1.92275
1.98093
2.02966
2.06661
2.09975
2.12392
2.14171
2.15179
2.15458
2.15933
2.15951
2.15813
2.15474
2.15044
2.14513
2.13831
2.13099
2.12464
2.1199
2.11663
2.11433
2.11224
2.10955
2.10572
2.10212
2.09866
2.09425
2.08795
2.07991
2.0757
2.07418
2.07291
2.07107
2.06859
2.06603
2.06335
2.05951
2.05359
2.04588
2.03965
2.0348
2.02986
2.02461
2.01931
2.01367
2.00817
2.00566
2.00551
2.00538
2.00487
2.00354
2.00177
2.00097
2.00149
2.00386
2.00667
2.00732
2.00711
2.00644
2.00479
2.00111
1.99474
1.98617
1.9782
2.14498
2.02411
1.90696
1.81215
1.72376
1.63715
1.58767
1.54075
1.47522
1.4173
1.39629
1.37241
1.34331
1.31766
1.29737
1.27221
1.24846
1.23803
1.22546
1.20754
1.20082
1.19526
1.18973
1.19063
1.19417
1.19935
1.20781
1.22073
1.24248
1.2824
1.33397
1.36977
1.40288
1.43637
1.45139
1.46299
1.47477
1.48121
1.482
1.48348
1.48765
1.49143
1.4939
1.49688
1.50006
1.50386
1.50841
1.51436
1.51833
1.52025
1.52012
1.51983
1.5179
1.51649
1.5164
1.51754
1.51844
1.51783
1.51571
1.51374
1.51254
1.51168
1.51143
1.51228
1.51504
1.51847
1.52094
1.52154
1.52246
1.5241
1.52481
1.52419
1.52307
1.52324
1.52461
1.52759
1.53128
1.53293
1.53295
1.53237
1.53049
1.5273
1.52412
1.52239
1.52117
1.51972
1.51822
1.5175
1.51688
1.51564
1.51512
1.51466
1.51346
1.51218
1.51134
1.51064
1.50999
1.50963
1.50978
1.5093
1.50964
1.51263
1.51983
1.54311
1.60471
1.7076
1.80221
1.85324
1.9028
1.90868
1.90086
1.88526
1.87522
1.86921
1.86167
1.85101
1.83892
1.83156
1.82948
1.8259
1.81986
1.81332
1.80792
1.80451
1.80043
1.79479
1.78792
1.78328
1.78461
1.79643
1.82515
1.87255
1.92494
1.97935
2.0234
2.05579
2.07474
2.09335
2.10351
2.1098
2.10801
2.10554
2.10644
2.106
2.10293
2.09738
2.09357
2.09029
2.08784
2.08346
2.07688
2.06928
2.06181
2.05485
2.04826
2.04136
2.03268
2.02534
2.02266
2.02133
2.02059
2.01936
2.01741
2.01512
2.01196
2.00677
1.99954
1.99242
1.98661
1.98164
1.97662
1.97147
1.96608
1.96035
1.95537
1.95349
1.95284
1.95192
1.95041
1.94784
1.94595
1.94603
1.94664
1.94698
1.94641
1.94362
1.93926
1.93482
1.93069
1.92667
1.9221
1.91805
2.17477
2.0726
1.97653
1.89276
1.80991
1.72658
1.6673
1.61855
1.56608
1.51664
1.47963
1.44127
1.40181
1.3776
1.35665
1.3339
1.31159
1.29359
1.27777
1.26217
1.24982
1.23768
1.2221
1.20653
1.20642
1.20845
1.20671
1.20319
1.20385
1.20853
1.22219
1.24875
1.28577
1.3383
1.38913
1.41324
1.43579
1.44891
1.45324
1.46071
1.46998
1.48053
1.48616
1.48677
1.48645
1.48633
1.48923
1.49474
1.49978
1.50282
1.50439
1.5046
1.50475
1.50531
1.50654
1.50687
1.50598
1.50349
1.5001
1.49729
1.49649
1.49662
1.49828
1.50243
1.50655
1.50828
1.50829
1.50731
1.50624
1.50591
1.50552
1.50401
1.50349
1.50372
1.50416
1.50586
1.50903
1.51014
1.50998
1.50929
1.50755
1.50523
1.50353
1.50228
1.50141
1.50069
1.49967
1.49795
1.49569
1.49321
1.49099
1.48897
1.48698
1.48572
1.48518
1.48468
1.4843
1.48409
1.48452
1.48681
1.49121
1.50914
1.56338
1.65926
1.76488
1.844
1.86357
1.88451
1.8935
1.88945
1.87769
1.86403
1.85682
1.85178
1.84591
1.83969
1.83408
1.8285
1.82264
1.81684
1.81121
1.80842
1.80645
1.80224
1.79583
1.78827
1.78062
1.77414
1.76818
1.76123
1.75526
1.75488
1.76396
1.78896
1.8261
1.87799
1.93153
1.97761
2.01496
2.05221
2.0663
2.06958
2.07417
2.07955
2.0793
2.07356
2.07148
2.07195
2.07305
2.07182
2.06705
2.0605
2.05084
2.03878
2.02841
2.02005
2.011
2.00121
1.99513
1.993
1.99213
1.99153
1.98967
1.98693
1.98332
1.97879
1.97349
1.96727
1.96115
1.95581
1.951
1.94635
1.94181
1.93721
1.932
1.92652
1.92276
1.92023
1.91787
1.91463
1.91221
1.91071
1.90905
1.90746
1.90524
1.89993
1.89148
1.88636
1.88415
1.88213
1.88087
1.87897
2.19904
2.11372
2.03174
1.95383
1.87387
1.80816
1.75254
1.69358
1.62772
1.58354
1.5496
1.51812
1.47979
1.44177
1.4087
1.38162
1.36695
1.35128
1.33292
1.31551
1.30065
1.28605
1.27322
1.25463
1.23809
1.2316
1.22398
1.20969
1.20644
1.2097
1.20987
1.21004
1.2149
1.22948
1.26307
1.29933
1.33508
1.37574
1.40653
1.4272
1.44779
1.4706
1.48269
1.48546
1.48419
1.47661
1.4754
1.47823
1.48236
1.48574
1.49003
1.49347
1.49681
1.50131
1.50323
1.50317
1.50142
1.49643
1.49084
1.48848
1.48808
1.4893
1.49481
1.50084
1.5025
1.50253
1.50139
1.49949
1.49778
1.49645
1.49476
1.49349
1.49359
1.49394
1.4947
1.49636
1.49953
1.50089
1.50097
1.50081
1.49983
1.49774
1.49569
1.49391
1.49221
1.4905
1.48859
1.48623
1.48355
1.48094
1.47873
1.47694
1.47523
1.47395
1.47345
1.47289
1.47291
1.47389
1.47655
1.49036
1.53849
1.63236
1.73676
1.83217
1.86542
1.87106
1.88076
1.887
1.88345
1.87235
1.8591
1.85069
1.84795
1.84544
1.83915
1.83288
1.82767
1.82309
1.81827
1.81265
1.80703
1.80336
1.79967
1.79481
1.78863
1.78266
1.77694
1.77041
1.76237
1.75376
1.74663
1.74072
1.73464
1.72787
1.7242
1.72984
1.74746
1.78314
1.83069
1.885
1.93915
1.98859
2.01534
2.03124
2.04886
2.05646
2.05462
2.05253
2.05068
2.05186
2.05571
2.05361
2.04851
2.03837
2.0275
2.01732
2.00616
1.99362
1.98394
1.97973
1.97831
1.97737
1.97467
1.97091
1.96674
1.96256
1.958
1.95197
1.9437
1.93895
1.93707
1.93474
1.9314
1.92753
1.92234
1.91548
1.90816
1.90346
1.89999
1.89707
1.89428
1.89071
1.88663
1.88328
1.87999
1.87418
1.86457
1.85849
1.85668
1.85502
1.8544
1.85394
2.21477
2.14112
2.07232
2.00284
1.93055
1.86813
1.8117
1.75858
1.7061
1.65464
1.60441
1.56561
1.5366
1.50751
1.47606
1.43829
1.41478
1.39542
1.37673
1.3623
1.34816
1.33133
1.31851
1.30506
1.2841
1.26948
1.26437
1.25471
1.23687
1.23288
1.23237
1.2255
1.22047
1.2242
1.22898
1.2332
1.24136
1.26583
1.30615
1.34746
1.3856
1.41988
1.44724
1.46943
1.47244
1.47251
1.47391
1.47485
1.47501
1.47508
1.47849
1.48318
1.48938
1.4972
1.49977
1.49968
1.49737
1.49045
1.48395
1.48235
1.48237
1.4852
1.49274
1.49729
1.49821
1.49824
1.49695
1.49456
1.49253
1.49033
1.48885
1.48891
1.48931
1.48979
1.49109
1.4937
1.49623
1.49646
1.49647
1.49591
1.49373
1.49093
1.48874
1.48671
1.48469
1.4828
1.48113
1.47941
1.47743
1.47548
1.47397
1.47271
1.47135
1.47028
1.46951
1.46974
1.47074
1.47913
1.51734
1.60546
1.71679
1.82008
1.86668
1.87654
1.88275
1.88631
1.88589
1.87935
1.86833
1.8571
1.84931
1.8466
1.84193
1.83517
1.82913
1.82586
1.8233
1.81982
1.81544
1.80967
1.80314
1.7976
1.79286
1.78725
1.78203
1.77746
1.77169
1.76476
1.75627
1.7477
1.74042
1.73386
1.72752
1.72074
1.71433
1.70719
1.70325
1.70382
1.7081
1.72091
1.74822
1.78992
1.84387
1.89498
1.93776
1.96836
1.99911
2.0131
2.01312
2.01709
2.02685
2.03626
2.03592
2.03293
2.02789
2.02037
2.01058
1.99836
1.98429
1.97308
1.96815
1.96614
1.96316
1.95954
1.95482
1.94949
1.9449
1.94101
1.93502
1.93012
1.92618
1.92199
1.91853
1.91523
1.91135
1.90523
1.89711
1.89196
1.88948
1.88721
1.88452
1.88005
1.87417
1.86825
1.86276
1.85705
1.85017
1.84441
1.84096
1.83901
1.83811
1.83611
2.22647
2.16208
2.10247
2.03753
1.97306
1.92098
1.86561
1.80433
1.76029
1.71566
1.66786
1.62089
1.58301
1.55277
1.52507
1.498
1.47467
1.45007
1.41886
1.40346
1.39136
1.37573
1.36212
1.35115
1.33162
1.30511
1.29674
1.29285
1.28217
1.2691
1.26555
1.25947
1.24453
1.23772
1.23762
1.23583
1.23669
1.23865
1.2439
1.25691
1.28316
1.31978
1.35795
1.39292
1.41888
1.43782
1.45098
1.46042
1.47126
1.47644
1.47393
1.47529
1.48299
1.4916
1.49424
1.49395
1.49004
1.48206
1.47805
1.47838
1.47995
1.48445
1.49077
1.49324
1.49347
1.49301
1.49156
1.49014
1.48886
1.48736
1.48677
1.48713
1.48769
1.48844
1.49039
1.49241
1.49259
1.49245
1.49193
1.49051
1.48798
1.48541
1.4833
1.48115
1.47901
1.47725
1.47632
1.47578
1.47467
1.47326
1.47192
1.47023
1.46784
1.46672
1.4671
1.4716
1.49856
1.57644
1.69311
1.80587
1.86475
1.8797
1.8895
1.89322
1.89223
1.88507
1.87354
1.86318
1.85545
1.85103
1.84681
1.83939
1.83171
1.82592
1.82251
1.82121
1.82039
1.81752
1.81195
1.80565
1.79907
1.79212
1.78574
1.78089
1.77659
1.77035
1.76357
1.75683
1.74955
1.74208
1.7348
1.72817
1.72217
1.71711
1.71133
1.70269
1.69563
1.69349
1.69125
1.68893
1.68818
1.69017
1.69726
1.71334
1.74263
1.78296
1.82713
1.87023
1.91627
1.94676
1.96422
1.98434
1.99868
2.01236
2.01234
2.00842
2.00443
1.99823
1.98829
1.97625
1.96598
1.96068
1.95737
1.95407
1.9495
1.94309
1.93647
1.9327
1.92967
1.92521
1.91895
1.91345
1.90989
1.90629
1.90157
1.89447
1.88596
1.88152
1.87989
1.87885
1.87678
1.87184
1.86554
1.85836
1.85061
1.84406
1.84039
1.83786
1.83397
1.82976
1.82807
1.82509
2.23324
2.17689
2.12301
2.06345
2.00766
1.95862
1.90462
1.84776
1.8067
1.76161
1.71135
1.66776
1.63843
1.60623
1.56922
1.54339
1.52258
1.49825
1.47001
1.44947
1.43503
1.41519
1.39368
1.38245
1.3693
1.34977
1.33194
1.32539
1.31854
1.30852
1.30169
1.29572
1.28616
1.27271
1.26435
1.25743
1.24895
1.24607
1.24651
1.24688
1.2484
1.25432
1.26755
1.29016
1.31973
1.34672
1.37358
1.40194
1.42989
1.45456
1.46197
1.4685
1.48137
1.48532
1.4848
1.48332
1.47769
1.47252
1.47272
1.47464
1.47897
1.48498
1.48739
1.48679
1.48558
1.48425
1.48368
1.48409
1.48548
1.48638
1.4868
1.48734
1.48779
1.48848
1.48976
1.48998
1.48966
1.48893
1.48723
1.48425
1.48051
1.47793
1.47626
1.47452
1.47342
1.47352
1.47426
1.4744
1.47348
1.47189
1.46954
1.46593
1.46396
1.46597
1.48237
1.54238
1.65807
1.78064
1.86287
1.88209
1.89315
1.8987
1.89903
1.89378
1.88223
1.86956
1.86017
1.85411
1.85071