/*--------------------------------*- C++ -*----------------------------------*\
  =========                 |
  \\      /  F ield         | OpenFOAM: The Open Source CFD Toolbox
   \\    /   O peration     | Website:  https://openfoam.org
    \\  /    A nd           | Version:  7
     \\/     M anipulation  |
\*---------------------------------------------------------------------------*/
FoamFile
{
    version     2.0;
    format      ascii;
    class       volVectorField;
    location    "1.4";
    object      U;
}
// * * * * * * * * * * * * * * * * * * * * * * * * * * * * * * * * * * * * * //

dimensions      [0 1 -1 0 0 0 0];

internalField   nonuniform List<vector> 
16128
(
(3 3.45766e-17 0)
(3 2.14226e-16 0)
(3 6.89288e-16 0)
(3 7.02537e-16 0)
(3 2.50519e-16 0)
(3 2.47404e-16 0)
(3 2.71744e-16 0)
(3 4.8084e-16 0)
(3 6.54328e-16 0)
(3 1.75862e-16 0)
(3 -2.20739e-16 0)
(3 -3.32614e-16 0)
(3 1.8325e-16 0)
(3 7.0667e-17 0)
(3 2.72386e-16 0)
(3 -2.71942e-16 0)
(3 -4.04484e-16 0)
(3 -1.2717e-16 0)
(3 4.00366e-16 0)
(3 8.31871e-16 0)
(3 6.86694e-16 0)
(3 -1.0262e-16 0)
(3 -2.27891e-16 0)
(3 -6.51953e-18 0)
(3 -3.76789e-16 0)
(2.55503 0.00526255 0)
(0.881403 0.00776589 0)
(0.718474 0.010159 0)
(0.686217 0.0164901 0)
(0.642064 0.0187084 0)
(0.601475 0.0170285 0)
(0.567149 0.0136332 0)
(0.538518 0.0117739 0)
(0.511599 0.0118139 0)
(0.483877 0.0126177 0)
(0.455165 0.0130121 0)
(0.428223 0.0132846 0)
(0.400637 0.0143256 0)
(0.369832 0.0158665 0)
(0.336807 0.0170519 0)
(0.301519 0.0175762 0)
(0.265074 0.017733 0)
(0.226634 0.0181491 0)
(0.18607 0.0187426 0)
(0.145445 0.0196685 0)
(0.103856 0.0209559 0)
(0.0617248 0.0219224 0)
(0.0226553 0.0232042 0)
(3 1.48161e-16 0)
(3 3.54996e-16 0)
(3 3.83946e-16 0)
(3 -7.88398e-17 0)
(3 -2.88924e-16 0)
(3 2.88982e-16 0)
(3 1.91793e-16 0)
(3 3.7673e-16 0)
(3 5.75725e-16 0)
(3 3.93187e-16 0)
(3 -6.06351e-19 0)
(3 -1.49109e-16 0)
(3 -2.98256e-16 0)
(3 -4.58066e-16 0)
(3 -3.34669e-17 0)
(3 2.56822e-16 0)
(3 1.01589e-16 0)
(3 4.6536e-16 0)
(3 7.70036e-16 0)
(3 1.15958e-15 0)
(3 7.85013e-16 0)
(3 4.3789e-16 0)
(3 3.13251e-16 0)
(3 3.7551e-16 0)
(3 -2.01728e-16 0)
(2.58014 0.0266132 0)
(0.884252 0.0367451 0)
(0.708705 0.0357253 0)
(0.672559 0.0462489 0)
(0.629429 0.0504243 0)
(0.591948 0.0459163 0)
(0.560834 0.0384857 0)
(0.533464 0.0348779 0)
(0.506748 0.0359445 0)
(0.478666 0.0386426 0)
(0.449376 0.0396252 0)
(0.42156 0.0401434 0)
(0.392953 0.0428307 0)
(0.361508 0.0471497 0)
(0.328263 0.0504072 0)
(0.293402 0.051769 0)
(0.257815 0.0522323 0)
(0.220484 0.0536563 0)
(0.181357 0.0558346 0)
(0.142237 0.0590259 0)
(0.102181 0.0634263 0)
(0.0612287 0.0668344 0)
(0.0225405 0.0712386 0)
(3 -1.30591e-16 0)
(3 -6.4115e-17 0)
(3 -1.32541e-16 0)
(3 -2.12203e-16 0)
(3 4.51817e-16 0)
(3 1.2326e-15 0)
(3 8.7912e-16 0)
(3 3.19695e-16 0)
(3 -1.52963e-17 0)
(3 -2.9094e-16 0)
(3 -1.17621e-16 0)
(3 2.85329e-16 0)
(3 -1.05316e-16 0)
(3 -1.40791e-16 0)
(3 -4.46457e-16 0)
(3 -8.96945e-17 0)
(3 2.12517e-16 0)
(3 1.67069e-16 0)
(3 -2.80646e-17 0)
(3 -4.57051e-16 0)
(3 -4.48733e-16 0)
(3 -3.78037e-16 0)
(3 -8.42186e-16 0)
(3 -1.5611e-15 0)
(3 -1.78475e-15 0)
(2.64068 0.0428926 0)
(0.901486 0.0632218 0)
(0.710246 0.0674456 0)
(0.668943 0.0806886 0)
(0.62516 0.0831303 0)
(0.590702 0.0735804 0)
(0.562738 0.0624212 0)
(0.536341 0.0581086 0)
(0.509675 0.061193 0)
(0.48069 0.0664737 0)
(0.44995 0.0683593 0)
(0.420102 0.0690816 0)
(0.389285 0.0731436 0)
(0.356072 0.0797815 0)
(0.321328 0.0846145 0)
(0.28555 0.08625 0)
(0.249598 0.0865039 0)
(0.212368 0.0884616 0)
(0.174298 0.0918282 0)
(0.136628 0.0968344 0)
(0.0984317 0.103805 0)
(0.0592577 0.109319 0)
(0.0219467 0.116511 0)
(3 -6.587e-17 0)
(3 -5.80472e-16 0)
(3 -8.30714e-17 0)
(3 6.2884e-16 0)
(3 7.98998e-16 0)
(3 9.54491e-16 0)
(3 7.82749e-16 0)
(3 5.19091e-16 0)
(3 7.76987e-16 0)
(3 6.62852e-17 0)
(3 -3.34799e-16 0)
(3 -4.75486e-16 0)
(3 -2.15332e-16 0)
(3 1.33414e-16 0)
(3 -7.8757e-17 0)
(3 -1.8325e-16 0)
(3 8.71128e-17 0)
(3 -2.72705e-16 0)
(3 -7.03368e-16 0)
(3 -1.5722e-15 0)
(3 -1.72187e-15 0)
(3 -2.03695e-15 0)
(3 -2.28993e-15 0)
(3 -2.34443e-15 0)
(3 -2.01103e-15 0)
(2.71446 0.0497268 0)
(0.921968 0.0905211 0)
(0.707715 0.10427 0)
(0.664603 0.115157 0)
(0.626854 0.11189 0)
(0.600474 0.0969195 0)
(0.575206 0.0833361 0)
(0.548536 0.0800725 0)
(0.520897 0.0864369 0)
(0.490182 0.0953125 0)
(0.457375 0.0986747 0)
(0.42529 0.0999049 0)
(0.392353 0.105437 0)
(0.357402 0.114317 0)
(0.320876 0.120614 0)
(0.283609 0.122381 0)
(0.246467 0.122252 0)
(0.208302 0.124349 0)
(0.17023 0.128263 0)
(0.132995 0.134255 0)
(0.0957991 0.142966 0)
(0.0577713 0.150038 0)
(0.0213915 0.159518 0)
(3 7.04234e-17 0)
(3 9.53033e-17 0)
(3 3.91013e-16 0)
(3 1.87116e-16 0)
(3 1.27566e-16 0)
(3 8.65056e-17 0)
(3 4.599e-16 0)
(3 1.32656e-15 0)
(3 1.36688e-15 0)
(3 9.52658e-16 0)
(3 -3.20225e-16 0)
(3 -1.06576e-15 0)
(3 -8.18161e-16 0)
(3 1.28667e-16 0)
(3 5.06753e-16 0)
(3 -6.54353e-17 0)
(3 4.2754e-16 0)
(3 -1.25642e-16 0)
(3 -7.924e-16 0)
(3 -1.26643e-15 0)
(3 -1.56024e-15 0)
(3 -1.86688e-15 0)
(3 -1.76057e-15 0)
(3 -9.92953e-16 0)
(3 -9.31809e-16 0)
(2.79097 0.0558503 0)
(0.948651 0.125575 0)
(0.705288 0.142701 0)
(0.669538 0.144873 0)
(0.642917 0.132958 0)
(0.619965 0.114798 0)
(0.593271 0.103062 0)
(0.563935 0.103502 0)
(0.533042 0.114492 0)
(0.499136 0.126907 0)
(0.464186 0.131066 0)
(0.430825 0.132249 0)
(0.397043 0.138876 0)
(0.361784 0.149753 0)
(0.324468 0.157445 0)
(0.28627 0.159416 0)
(0.248164 0.159066 0)
(0.208946 0.161361 0)
(0.170437 0.165688 0)
(0.132881 0.172136 0)
(0.0956971 0.181821 0)
(0.0577479 0.18965 0)
(0.0212937 0.200662 0)
(3 -1.29584e-16 0)
(3 2.2042e-16 0)
(3 3.39125e-16 0)
(3 1.37029e-16 0)
(3 9.85244e-17 0)
(3 2.47598e-16 0)
(3 3.31519e-16 0)
(3 8.44264e-16 0)
(3 5.8847e-16 0)
(3 2.33657e-16 0)
(3 3.35568e-16 0)
(3 2.69689e-16 0)
(3 -2.72447e-16 0)
(3 -4.29053e-16 0)
(3 -2.42127e-16 0)
(3 -5.86394e-16 0)
(3 -9.14137e-16 0)
(3 -8.83121e-16 0)
(3 -5.28896e-16 0)
(3 -7.54478e-16 0)
(3 -1.00032e-15 0)
(3 -1.06864e-15 0)
(3 -9.01238e-16 0)
(3 -1.27586e-15 0)
(3 -1.32349e-15 0)
(2.8752 0.0666333 0)
(0.991985 0.168 0)
(0.713139 0.173579 0)
(0.690768 0.160823 0)
(0.666803 0.148422 0)
(0.640522 0.134393 0)
(0.609354 0.127413 0)
(0.575837 0.13235 0)
(0.54143 0.146838 0)
(0.505379 0.160885 0)
(0.469934 0.164264 0)
(0.436645 0.164819 0)
(0.402999 0.172463 0)
(0.368316 0.185407 0)
(0.330805 0.194674 0)
(0.292054 0.197036 0)
(0.25319 0.196667 0)
(0.212905 0.199326 0)
(0.173686 0.204237 0)
(0.135303 0.211015 0)
(0.0974631 0.221354 0)
(0.0588056 0.229372 0)
(0.0215214 0.241362 0)
(3 -7.61879e-18 0)
(3 -1.64958e-16 0)
(3 -5.54969e-16 0)
(3 -7.58446e-17 0)
(3 -1.96437e-16 0)
(3 -5.98778e-16 0)
(3 -8.5053e-16 0)
(3 -4.59409e-16 0)
(3 -2.07647e-16 0)
(3 -4.68697e-16 0)
(3 -8.60602e-17 0)
(3 3.5987e-17 0)
(3 -2.12712e-16 0)
(3 -1.17521e-15 0)
(3 -1.49061e-15 0)
(3 -9.82896e-16 0)
(3 -1.17677e-15 0)
(3 -8.64217e-16 0)
(3 -8.42773e-16 0)
(3 -1.31528e-15 0)
(3 -2.10508e-15 0)
(3 -1.97688e-15 0)
(3 -1.75432e-15 0)
(3 -1.34439e-15 0)
(3 -1.2698e-15 0)
(2.96148 0.0334469 0)
(1.04873 0.206537 0)
(0.734248 0.18797 0)
(0.710743 0.176654 0)
(0.68344 0.170923 0)
(0.652502 0.161935 0)
(0.616634 0.158542 0)
(0.579223 0.165519 0)
(0.543697 0.181357 0)
(0.508913 0.194885 0)
(0.475755 0.196749 0)
(0.443854 0.196838 0)
(0.41092 0.205748 0)
(0.376999 0.22091 0)
(0.339415 0.231923 0)
(0.300281 0.23487 0)
(0.260699 0.234775 0)
(0.219246 0.238139 0)
(0.17887 0.24407 0)
(0.13912 0.251332 0)
(0.100114 0.262266 0)
(0.0602694 0.270089 0)
(0.0218256 0.282673 0)
(3 2.57717e-16 0)
(3 4.31282e-16 0)
(3 3.64019e-16 0)
(3 3.17744e-16 0)
(3 -1.95676e-17 0)
(3 -5.38502e-16 0)
(3 -6.04466e-16 0)
(3 -7.55206e-16 0)
(3 -3.57629e-16 0)
(3 -9.21979e-17 0)
(3 -1.58075e-16 0)
(3 -1.86356e-16 0)
(3 -1.5412e-16 0)
(3 -1.67198e-16 0)
(3 -3.62187e-16 0)
(3 -3.3088e-16 0)
(3 -2.68106e-17 0)
(3 -2.63503e-16 0)
(3 -1.08224e-15 0)
(3 -1.45955e-15 0)
(3 -1.20443e-15 0)
(3 -1.10226e-15 0)
(3 -4.47373e-16 0)
(3 3.71843e-16 0)
(3 2.93257e-16 0)
(3.00505 0.00449436 0)
(1.13187 0.229236 0)
(0.750367 0.205947 0)
(0.714807 0.200918 0)
(0.681539 0.196764 0)
(0.648321 0.190936 0)
(0.614302 0.190397 0)
(0.580699 0.198519 0)
(0.549213 0.21392 0)
(0.517322 0.22618 0)
(0.48558 0.227365 0)
(0.453617 0.228024 0)
(0.420407 0.238924 0)
(0.386477 0.256789 0)
(0.348199 0.269957 0)
(0.307859 0.273778 0)
(0.267179 0.274087 0)
(0.225001 0.278155 0)
(0.184496 0.285298 0)
(0.144293 0.293248 0)
(0.104458 0.30494 0)
(0.0630161 0.312541 0)
(0.0226259 0.325625 0)
(3 7.84708e-18 0)
(3 1.08362e-16 0)
(3 2.645e-16 0)
(3 8.11501e-17 0)
(3 4.87185e-17 0)
(3 1.60787e-16 0)
(3 3.63886e-16 0)
(3 1.63668e-16 0)
(3 7.5731e-16 0)
(3 9.40344e-16 0)
(3 8.21532e-16 0)
(3 7.38119e-16 0)
(3 5.79789e-16 0)
(3 1.12784e-16 0)
(3 -6.91839e-17 0)
(3 -2.64702e-16 0)
(3 -2.54212e-16 0)
(3 -4.60749e-16 0)
(3 -4.03148e-16 0)
(3 -5.87422e-16 0)
(3 -3.0666e-16 0)
(3 -9.90791e-17 0)
(3 -1.13555e-16 0)
(3 -3.31216e-17 0)
(3 8.87948e-17 0)
(3.00018 2.10783e-05 0)
(1.26304 0.259358 0)
(0.755542 0.232025 0)
(0.71472 0.227255 0)
(0.683541 0.222569 0)
(0.651632 0.21818 0)
(0.619604 0.218785 0)
(0.588194 0.22799 0)
(0.55841 0.244155 0)
(0.52695 0.257164 0)
(0.493939 0.259466 0)
(0.459443 0.261253 0)
(0.423754 0.273958 0)
(0.388582 0.294209 0)
(0.350611 0.309176 0)
(0.312178 0.313327 0)
(0.274524 0.31334 0)
(0.23533 0.317505 0)
(0.196383 0.326044 0)
(0.155832 0.335768 0)
(0.11408 0.349582 0)
(0.0690907 0.358127 0)
(0.0245956 0.372284 0)
(3 -1.63394e-16 0)
(3 -2.2037e-16 0)
(3 -5.23256e-16 0)
(3 -4.30578e-16 0)
(3 -2.1811e-16 0)
(3 -8.61218e-17 0)
(3 1.55402e-16 0)
(3 3.56338e-16 0)
(3 3.49007e-17 0)
(3 -3.91709e-17 0)
(3 -4.52237e-16 0)
(3 -4.79503e-18 0)
(3 1.57505e-16 0)
(3 1.78821e-16 0)
(3 1.34657e-16 0)
(3 -3.35238e-16 0)
(3 -6.94774e-16 0)
(3 -9.1772e-16 0)
(3 -1.73764e-16 0)
(3 6.25473e-16 0)
(3 1.01324e-15 0)
(3 1.32845e-15 0)
(3 8.61332e-16 0)
(3 -3.04274e-17 0)
(3 -9.86842e-17 0)
(3 -5.98091e-09 0)
(1.46393 0.284338 0)
(0.775828 0.257007 0)
(0.719896 0.254763 0)
(0.687509 0.248732 0)
(0.654036 0.245687 0)
(0.62021 0.247218 0)
(0.58698 0.257408 0)
(0.556252 0.274695 0)
(0.524831 0.289097 0)
(0.492166 0.292942 0)
(0.458418 0.295554 0)
(0.424559 0.309296 0)
(0.392406 0.330792 0)
(0.357891 0.346316 0)
(0.323027 0.350118 0)
(0.288031 0.350314 0)
(0.250239 0.356102 0)
(0.210577 0.368256 0)
(0.167751 0.381668 0)
(0.122898 0.398586 0)
(0.0741898 0.408593 0)
(0.0257178 0.423534 0)
(3 1.84345e-16 0)
(3 6.68757e-17 0)
(3 2.33394e-16 0)
(3 1.15275e-16 0)
(3 4.26614e-17 0)
(3 4.4317e-16 0)
(3 1.18706e-15 0)
(3 1.25748e-15 0)
(3 7.18064e-16 0)
(3 -1.7978e-16 0)
(3 -1.29284e-15 0)
(3 -1.90847e-15 0)
(3 -1.68973e-15 0)
(3 -8.11917e-16 0)
(3 -3.22109e-16 0)
(3 -8.81661e-16 0)
(3 -9.86581e-16 0)
(3 3.0316e-16 0)
(3 1.056e-15 0)
(3 1.62915e-15 0)
(3 2.60116e-15 0)
(3 2.55987e-15 0)
(3 1.91309e-15 0)
(3 9.47924e-16 0)
(3 9.6287e-16 0)
(3 -1.8778e-12 0)
(1.73264 0.301054 0)
(0.802043 0.289642 0)
(0.71937 0.286143 0)
(0.685004 0.276858 0)
(0.651386 0.274913 0)
(0.618453 0.277514 0)
(0.586499 0.288229 0)
(0.557798 0.305896 0)
(0.529257 0.321165 0)
(0.499398 0.326363 0)
(0.468094 0.329106 0)
(0.43682 0.34264 0)
(0.407254 0.364281 0)
(0.374726 0.380307 0)
(0.341028 0.385246 0)
(0.306153 0.388044 0)
(0.268051 0.397123 0)
(0.227828 0.413561 0)
(0.183368 0.431117 0)
(0.135607 0.451622 0)
(0.0821941 0.463836 0)
(0.0283792 0.479624 0)
(3 8.13041e-18 0)
(3 -4.83288e-17 0)
(3 3.4586e-16 0)
(3 8.32934e-16 0)
(3 1.07651e-15 0)
(3 1.07472e-15 0)
(3 1.40446e-15 0)
(3 1.16883e-15 0)
(3 7.1356e-17 0)
(3 -3.8361e-16 0)
(3 -7.63689e-16 0)
(3 -1.38058e-15 0)
(3 -1.92749e-15 0)
(3 -1.89364e-15 0)
(3 -1.69042e-15 0)
(3 -1.06274e-15 0)
(3 -5.29919e-16 0)
(3 6.25246e-16 0)
(3 1.27267e-15 0)
(3 1.06654e-15 0)
(3 1.73686e-15 0)
(3 1.60655e-15 0)
(3 1.64927e-15 0)
(3 1.74895e-15 0)
(3 3.08987e-15 0)
(3 -3.32965e-12 0)
(2.0565 0.314277 0)
(0.833297 0.336724 0)
(0.726362 0.321436 0)
(0.700146 0.308561 0)
(0.669136 0.306591 0)
(0.637848 0.30888 0)
(0.606378 0.318773 0)
(0.577808 0.335392 0)
(0.550546 0.350393 0)
(0.52241 0.35685 0)
(0.492456 0.359935 0)
(0.462213 0.373098 0)
(0.433282 0.395232 0)
(0.400712 0.413282 0)
(0.36601 0.421418 0)
(0.329939 0.428248 0)
(0.290666 0.441223 0)
(0.248882 0.462954 0)
(0.201502 0.486288 0)
(0.149973 0.511711 0)
(0.091623 0.527319 0)
(0.0305242 0.543201 0)
(3 -2.39175e-16 0)
(3 -5.90453e-16 0)
(3 -3.9967e-16 0)
(3 6.49624e-18 0)
(3 3.9387e-16 0)
(3 7.76707e-17 0)
(3 -1.41874e-16 0)
(3 -2.99864e-16 0)
(3 -5.9052e-16 0)
(3 -5.23267e-16 0)
(3 -6.03772e-16 0)
(3 -2.73818e-17 0)
(3 -3.3373e-16 0)
(3 -5.40327e-16 0)
(3 -2.69553e-16 0)
(3 1.64009e-16 0)
(3 7.8951e-16 0)
(3 1.42263e-15 0)
(3 1.05071e-15 0)
(3 1.20844e-15 0)
(3 9.88487e-16 0)
(3 1.15369e-15 0)
(3 1.71246e-15 0)
(3 2.29412e-15 0)
(3 2.92144e-15 0)
(3 -1.89471e-12 0)
(2.48155 0.301822 0)
(0.918664 0.383467 0)
(0.770424 0.335341 0)
(0.747592 0.324631 0)
(0.715151 0.326455 0)
(0.682436 0.332783 0)
(0.64834 0.345202 0)
(0.616317 0.362344 0)
(0.587128 0.377801 0)
(0.558705 0.386404 0)
(0.528825 0.39092 0)
(0.498285 0.404105 0)
(0.469069 0.42694 0)
(0.436519 0.447389 0)
(0.401011 0.458868 0)
(0.363895 0.470042 0)
(0.322997 0.488078 0)
(0.281503 0.515385 0)
(0.233634 0.544452 0)
(0.179973 0.5757 0)
(0.113625 0.599384 0)
(0.0403238 0.619585 0)
(3 4.61851e-17 0)
(3 3.12679e-16 0)
(3 9.74953e-17 0)
(3 -8.97167e-16 0)
(3 -9.39499e-16 0)
(3 -3.87458e-16 0)
(3 -2.58921e-16 0)
(3 -1.68861e-16 0)
(3 3.5265e-16 0)
(3 4.52869e-16 0)
(3 7.95928e-16 0)
(3 9.86367e-16 0)
(3 7.92567e-16 0)
(3 4.35944e-16 0)
(3 8.22258e-16 0)
(3 1.17627e-15 0)
(3 1.77465e-15 0)
(3 1.44364e-15 0)
(3 6.27467e-16 0)
(3 6.44632e-16 0)
(3 8.94552e-16 0)
(3 9.89131e-16 0)
(3 4.57524e-16 0)
(3 1.76915e-16 0)
(3 3.7184e-16 0)
(3 -5.13599e-13 0)
(2.93219 0.131164 0)
(1.06606 0.394462 0)
(0.823589 0.356095 0)
(0.797813 0.348493 0)
(0.76183 0.352924 0)
(0.728132 0.360829 0)
(0.693837 0.37402 0)
(0.66052 0.390523 0)
(0.630241 0.40525 0)
(0.602077 0.415134 0)
(0.572689 0.422019 0)
(0.54238 0.435451 0)
(0.513322 0.458829 0)
(0.4818 0.481872 0)
(0.446092 0.497541 0)
(0.407671 0.513339 0)
(0.366906 0.535832 0)
(0.324004 0.569466 0)
(0.271535 0.609419 0)
(0.208104 0.654131 0)
(0.132314 0.69488 0)
(0.0414401 0.720422 0)
(3 1.13073e-17 0)
(3 8.51452e-16 0)
(3 6.8739e-16 0)
(3 2.28137e-16 0)
(3 -1.33628e-16 0)
(3 -2.36204e-16 0)
(3 -3.79348e-16 0)
(3 -2.28124e-16 0)
(3 8.50264e-18 0)
(3 3.05264e-16 0)
(3 8.13173e-16 0)
(3 1.22685e-15 0)
(3 1.65589e-15 0)
(3 1.78803e-15 0)
(3 1.95157e-15 0)
(3 1.74357e-15 0)
(3 1.34666e-15 0)
(3 9.20889e-16 0)
(3 7.48e-16 0)
(3 1.27715e-16 0)
(3 -5.88806e-16 0)
(3 -1.1537e-15 0)
(3 -1.09749e-15 0)
(3 -3.92334e-16 0)
(3 -5.64151e-17 0)
(3 -3.52503e-14 0)
(3.02899 0.00959388 0)
(1.20054 0.3703 0)
(0.831501 0.385285 0)
(0.800315 0.388575 0)
(0.765062 0.390505 0)
(0.736102 0.394414 0)
(0.710851 0.405972 0)
(0.686505 0.420506 0)
(0.661989 0.433409 0)
(0.63761 0.443336 0)
(0.611689 0.452518 0)
(0.583668 0.467049 0)
(0.556301 0.491822 0)
(0.527477 0.518529 0)
(0.493454 0.539063 0)
(0.456046 0.559113 0)
(0.415533 0.586967 0)
(0.37178 0.629925 0)
(0.321813 0.684216 0)
(0.262219 0.740544 0)
(0.189393 0.797858 0)
(0.0731596 0.845958 0)
(3 5.5787e-17 0)
(3 -1.71959e-16 0)
(3 -4.83104e-17 0)
(3 5.0496e-17 0)
(3 -1.89825e-16 0)
(3 -1.06356e-15 0)
(3 -1.08977e-15 0)
(3 -1.08083e-15 0)
(3 -1.00263e-15 0)
(3 -2.41411e-16 0)
(3 8.99585e-17 0)
(3 4.96566e-16 0)
(3 1.10417e-15 0)
(3 1.51624e-15 0)
(3 1.37463e-15 0)
(3 5.67686e-16 0)
(3 4.26996e-17 0)
(3 1.62373e-16 0)
(3 2.77562e-16 0)
(3 3.18755e-16 0)
(3 -3.49507e-16 0)
(3 -9.07488e-16 0)
(3 -4.83883e-16 0)
(3 -2.41756e-16 0)
(3 -1.48899e-16 0)
(3 -1.98314e-15 0)
(3.00083 2.16994e-05 0)
(1.3986 0.379474 0)
(0.81354 0.403258 0)
(0.772258 0.402421 0)
(0.745885 0.40553 0)
(0.723086 0.410792 0)
(0.70455 0.425138 0)
(0.686829 0.443309 0)
(0.668126 0.45903 0)
(0.648314 0.470939 0)
(0.62829 0.482995 0)
(0.606075 0.499197 0)
(0.584894 0.525099 0)
(0.563046 0.554895 0)
(0.535005 0.580569 0)
(0.502332 0.605929 0)
(0.465754 0.639564 0)
(0.42858 0.688512 0)
(0.38779 0.751567 0)
(0.328749 0.834466 0)
(0.22797 0.950515 0)
(0.123622 1.07915 0)
(3 -1.98718e-16 0)
(3 -4.79692e-16 0)
(3 -6.35395e-16 0)
(3 -7.37574e-16 0)
(3 -8.60843e-16 0)
(3 -1.26856e-15 0)
(3 -1.09436e-15 0)
(3 -1.28313e-15 0)
(3 -1.05206e-15 0)
(3 -3.90917e-16 0)
(3 4.74118e-16 0)
(3 5.22367e-16 0)
(3 4.65895e-16 0)
(3 2.40193e-16 0)
(3 -3.26257e-17 0)
(3 6.03405e-17 0)
(3 -2.49501e-16 0)
(3 -6.22512e-16 0)
(3 -9.96754e-17 0)
(3 2.34667e-16 0)
(3 3.55429e-16 0)
(3 1.79104e-16 0)
(3 -2.4112e-16 0)
(3 -8.39839e-16 0)
(3 -1.67918e-15 0)
(3 -1.86106e-15 0)
(3 -9.13483e-08 0)
(1.73763 0.421581 0)
(0.824817 0.446399 0)
(0.760195 0.42351 0)
(0.742215 0.426764 0)
(0.72292 0.432219 0)
(0.706678 0.446191 0)
(0.690344 0.464204 0)
(0.672389 0.480046 0)
(0.653545 0.492633 0)
(0.635774 0.506917 0)
(0.617209 0.525697 0)
(0.601405 0.553884 0)
(0.586302 0.58768 0)
(0.566683 0.619641 0)
(0.54227 0.65104 0)
(0.514531 0.689292 0)
(0.486573 0.744024 0)
(0.454606 0.826058 0)
(0.422448 0.955971 0)
(0.408245 1.12018 0)
(0.514954 1.38371 0)
(3 -1.27996e-16 0)
(3 -3.90454e-17 0)
(3 -6.36686e-17 0)
(3 2.30416e-16 0)
(3 -8.12818e-17 0)
(3 -5.22122e-16 0)
(3 -9.05393e-16 0)
(3 -1.06288e-15 0)
(3 -8.73833e-16 0)
(3 -5.75625e-16 0)
(3 2.08181e-16 0)
(3 9.12222e-16 0)
(3 8.97232e-16 0)
(3 7.91378e-16 0)
(3 9.61981e-16 0)
(3 5.87386e-16 0)
(3 3.90445e-16 0)
(3 2.74877e-16 0)
(3 6.89408e-17 0)
(3 5.93674e-17 0)
(3 8.20488e-17 0)
(3 3.78032e-16 0)
(3 5.20479e-16 0)
(3 7.98918e-17 0)
(3 -6.67045e-16 0)
(3 1.07877e-15 0)
(3 -4.78797e-08 0)
(2.29911 0.417039 0)
(0.916402 0.505887 0)
(0.797692 0.450199 0)
(0.773694 0.444188 0)
(0.75039 0.45117 0)
(0.730423 0.467167 0)
(0.710069 0.48696 0)
(0.688071 0.503665 0)
(0.667229 0.515789 0)
(0.648563 0.530294 0)
(0.631806 0.549945 0)
(0.618997 0.578854 0)
(0.608776 0.61501 0)
(0.597187 0.651765 0)
(0.581803 0.688326 0)
(0.564855 0.731726 0)
(0.549098 0.79377 0)
(0.542605 0.890246 0)
(0.548871 1.02764 0)
(0.628234 1.18337 0)
(0.933462 1.38976 0)
(3 1.50297e-17 0)
(3 5.64464e-17 0)
(3 3.00078e-16 0)
(3 6.28328e-16 0)
(3 6.11065e-16 0)
(3 5.55089e-16 0)
(3 -7.98378e-18 0)
(3 -5.0601e-16 0)
(3 -5.49379e-16 0)
(3 -2.35462e-16 0)
(3 6.54738e-18 0)
(3 1.52828e-16 0)
(3 4.05763e-16 0)
(3 6.73862e-16 0)
(3 9.39236e-16 0)
(3 1.13048e-15 0)
(3 9.44685e-16 0)
(3 9.76464e-16 0)
(3 8.42496e-16 0)
(3 7.96862e-16 0)
(3 7.83569e-16 0)
(3 4.88911e-16 0)
(3 5.00703e-16 0)
(3 1.09876e-15 0)
(3 8.14818e-16 0)
(3 1.84546e-15 0)
(3 -7.53647e-09 0)
(2.95841 0.161927 0)
(1.1238 0.508955 0)
(0.872685 0.473999 0)
(0.839384 0.467293 0)
(0.803596 0.475012 0)
(0.774052 0.491366 0)
(0.746763 0.511338 0)
(0.719457 0.527889 0)
(0.693958 0.538874 0)
(0.672311 0.552478 0)
(0.655259 0.572145 0)
(0.643014 0.600928 0)
(0.635676 0.638071 0)
(0.629671 0.678532 0)
(0.622217 0.719662 0)
(0.616802 0.767173 0)
(0.616317 0.831615 0)
(0.634903 0.927323 0)
(0.679691 1.05179 0)
(0.82376 1.19342 0)
(1.14581 1.33193 0)
(3 -1.40325e-16 0)
(3 -1.23284e-16 0)
(3 -2.84385e-16 0)
(3 -4.44563e-16 0)
(3 -1.83824e-16 0)
(3 2.03948e-16 0)
(3 1.59947e-16 0)
(3 -1.74699e-16 0)
(3 -2.69512e-16 0)
(3 -2.75984e-16 0)
(3 -2.06647e-16 0)
(3 -2.48735e-16 0)
(3 -3.79206e-16 0)
(3 -5.89632e-16 0)
(3 -8.807e-16 0)
(3 -5.10422e-17 0)
(3 6.43606e-16 0)
(3 9.1647e-16 0)
(3 8.88901e-16 0)
(3 5.46158e-16 0)
(3 5.6373e-16 0)
(3 3.12848e-16 0)
(3 -2.41016e-16 0)
(3 2.31399e-16 0)
(3 4.92226e-16 0)
(3 1.16827e-15 0)
(3 -4.94618e-10 0)
(3.03676 0.00791333 0)
(1.30386 0.479435 0)
(0.882366 0.521383 0)
(0.85195 0.513119 0)
(0.821362 0.513004 0)
(0.794629 0.526185 0)
(0.769807 0.546016 0)
(0.744715 0.561822 0)
(0.721065 0.569436 0)
(0.701005 0.578823 0)
(0.685303 0.595526 0)
(0.67457 0.621738 0)
(0.668933 0.65764 0)
(0.667083 0.699471 0)
(0.666529 0.743152 0)
(0.670747 0.792004 0)
(0.685573 0.854342 0)
(0.720616 0.9427 0)
(0.798731 1.0546 0)
(0.970083 1.16964 0)
(1.24672 1.25429 0)
(3 1.41206e-16 0)
(3 -9.66409e-18 0)
(3 -6.06171e-16 0)
(3 -9.57242e-16 0)
(3 -1.05721e-15 0)
(3 -8.77239e-16 0)
(3 -1.30654e-15 0)
(3 -1.32411e-15 0)
(3 -1.00895e-15 0)
(3 -9.28094e-16 0)
(3 -9.09886e-16 0)
(3 -8.35576e-16 0)
(3 -6.92718e-16 0)
(3 -9.1334e-16 0)
(3 -9.60276e-16 0)
(3 -7.97546e-16 0)
(3 -1.31157e-16 0)
(3 4.97593e-16 0)
(3 -9.27338e-17 0)
(3 -9.5898e-16 0)
(3 -9.89515e-16 0)
(3 -6.52839e-16 0)
(3 1.73493e-16 0)
(3 5.18373e-16 0)
(3 5.33284e-16 0)
(3 1.32273e-15 0)
(3 -8.36929e-12 0)
(3.00076 3.35614e-06 0)
(1.64253 0.502064 0)
(0.870452 0.549227 0)
(0.841069 0.533083 0)
(0.828603 0.53949 0)
(0.810138 0.552828 0)
(0.792452 0.572361 0)
(0.773781 0.587459 0)
(0.755088 0.593258 0)
(0.737889 0.601261 0)
(0.723414 0.616958 0)
(0.713541 0.641835 0)
(0.708899 0.676196 0)
(0.709774 0.717714 0)
(0.714914 0.762249 0)
(0.726419 0.81036 0)
(0.752578 0.8673 0)
(0.799749 0.942897 0)
(0.895849 1.03793 0)
(1.06635 1.12351 0)
(1.3026 1.17912 0)
(3 -9.66842e-18 0)
(3 -2.11946e-16 0)
(3 -4.14892e-16 0)
(3 -4.08818e-16 0)
(3 -3.08719e-16 0)
(3 -4.801e-16 0)
(3 -5.89864e-16 0)
(3 -1.03434e-15 0)
(3 -6.96612e-16 0)
(3 -2.04367e-16 0)
(3 -5.0941e-16 0)
(3 -8.66041e-16 0)
(3 -7.24254e-16 0)
(3 -1.08068e-15 0)
(3 -7.95296e-16 0)
(3 -8.71544e-16 0)
(3 -8.91202e-16 0)
(3 -3.20914e-16 0)
(3 4.47165e-16 0)
(3 -1.85688e-17 0)
(3 -5.16933e-16 0)
(3 -7.78211e-16 0)
(3 -6.01358e-16 0)
(3 3.33584e-16 0)
(3 5.20176e-17 0)
(3 1.72639e-15 0)
(3 -2.16435e-14 0)
(3 -2.71427e-07 0)
(2.34397 0.47424 0)
(0.961059 0.598869 0)
(0.871093 0.542323 0)
(0.862537 0.5541 0)
(0.839894 0.574041 0)
(0.820357 0.594819 0)
(0.804835 0.610843 0)
(0.79046 0.617817 0)
(0.777465 0.625844 0)
(0.766246 0.640074 0)
(0.758231 0.66243 0)
(0.754969 0.694006 0)
(0.757429 0.733487 0)
(0.766741 0.777112 0)
(0.783572 0.822994 0)
(0.816478 0.873487 0)
(0.872463 0.935217 0)
(0.974279 1.01295 0)
(1.13071 1.07511 0)
(1.32723 1.11119 0)
(3 -7.35238e-17 0)
(3 -2.57481e-16 0)
(3 -3.54911e-16 0)
(3 -6.02012e-16 0)
(3 -4.93635e-16 0)
(3 -4.89892e-17 0)
(3 7.28599e-16 0)
(3 9.48461e-16 0)
(3 5.73473e-16 0)
(3 -2.57084e-16 0)
(3 -1.28908e-15 0)
(3 -1.34748e-15 0)
(3 -1.24497e-15 0)
(3 -9.22489e-16 0)
(3 -2.62751e-16 0)
(3 -3.44703e-16 0)
(3 -5.63292e-16 0)
(3 -7.75055e-16 0)
(3 -5.64917e-16 0)
(3 -4.01211e-16 0)
(3 -6.00655e-16 0)
(3 -8.06129e-16 0)
(3 -1.06391e-15 0)
(3 -9.96265e-16 0)
(3 -2.7265e-16 0)
(3 8.39667e-16 0)
(3 2.29852e-16 0)
(3 -3.37294e-07 0)
(3.07008 0.111199 0)
(1.2214 0.587512 0)
(0.932535 0.554502 0)
(0.910215 0.584201 0)
(0.881738 0.602162 0)
(0.855277 0.616696 0)
(0.839469 0.629749 0)
(0.827869 0.636867 0)
(0.818642 0.645612 0)
(0.811031 0.660387 0)
(0.805106 0.682522 0)
(0.803397 0.713027 0)
(0.807196 0.75014 0)
(0.81993 0.791015 0)
(0.841041 0.833042 0)
(0.878526 0.876153 0)
(0.938194 0.922998 0)
(1.03591 0.982432 0)
(1.17024 1.02668 0)
(1.33646 1.05072 0)
(3 9.2331e-17 0)
(3 -9.74796e-17 0)
(3 -2.49896e-16 0)
(3 -1.19011e-16 0)
(3 -4.7251e-16 0)
(3 -3.12724e-16 0)
(3 3.92041e-16 0)
(3 8.85997e-16 0)
(3 1.85914e-16 0)
(3 -7.88583e-16 0)
(3 -1.45343e-15 0)
(3 -1.1583e-15 0)
(3 -9.52683e-16 0)
(3 1.01501e-16 0)
(3 5.30136e-16 0)
(3 -1.95156e-16 0)
(3 -6.02164e-16 0)
(3 -6.40777e-16 0)
(3 -8.3301e-16 0)
(3 -7.64326e-16 0)
(3 -1.05138e-15 0)
(3 -7.75815e-16 0)
(3 -1.92747e-16 0)
(3 -2.03363e-16 0)
(3 -7.33688e-17 0)
(3 -5.52437e-16 0)
(3 -3.24757e-16 0)
(3 -7.68978e-08 0)
(3.02124 0.00169964 0)
(1.45845 0.565706 0)
(0.932967 0.619961 0)
(0.905178 0.619313 0)
(0.890251 0.633426 0)
(0.876135 0.645279 0)
(0.866248 0.652937 0)
(0.859078 0.657974 0)
(0.853653 0.666438 0)
(0.850077 0.681456 0)
(0.847666 0.703037 0)
(0.849178 0.731765 0)
(0.855884 0.765653 0)
(0.87185 0.802948 0)
(0.89726 0.841176 0)
(0.939264 0.878961 0)
(0.999814 0.915026 0)
(1.09117 0.959038 0)
(1.20678 0.990677 0)
(1.34753 1.00826 0)
(3 8.65223e-17 0)
(3 2.04676e-16 0)
(3 4.08053e-16 0)
(3 8.15976e-16 0)
(3 8.24264e-16 0)
(3 2.47723e-16 0)
(3 3.01032e-17 0)
(3 -7.903e-17 0)
(3 -5.45221e-16 0)
(3 -5.66167e-16 0)
(3 -3.8536e-16 0)
(3 -4.14486e-16 0)
(3 -2.86159e-16 0)
(3 4.96102e-17 0)
(3 -1.93603e-16 0)
(3 -3.67232e-16 0)
(3 -5.7963e-16 0)
(3 -5.07262e-16 0)
(3 -2.15704e-16 0)
(3 -9.34731e-17 0)
(3 -1.59993e-16 0)
(3 -5.81136e-17 0)
(3 8.4202e-17 0)
(3 1.08983e-16 0)
(3 -3.63277e-16 0)
(3 -1.55577e-15 0)
(3 -1.31533e-15 0)
(3 -4.74565e-09 0)
(3.00021 -5.09325e-06 0)
(2.10366 0.557675 0)
(0.988893 0.663759 0)
(0.923213 0.621332 0)
(0.917313 0.636476 0)
(0.908224 0.656237 0)
(0.89843 0.668016 0)
(0.891057 0.674856 0)
(0.886108 0.684395 0)
(0.884423 0.700098 0)
(0.885464 0.721512 0)
(0.891228 0.748465 0)
(0.902267 0.77884 0)
(0.920955 0.811784 0)
(0.950694 0.845336 0)
(0.995821 0.877392 0)
(1.05481 0.9052 0)
(1.1373 0.935235 0)
(1.23614 0.956742 0)
(1.35642 0.968516 0)
(3 -1.01806e-17 0)
(3 2.49872e-16 0)
(3 6.41288e-16 0)
(3 6.14135e-16 0)
(3 6.89263e-16 0)
(3 7.33088e-16 0)
(3 6.65449e-16 0)
(3 5.24023e-16 0)
(3 2.03963e-16 0)
(3 5.96497e-16 0)
(3 6.6578e-16 0)
(3 4.73061e-16 0)
(3 6.25294e-16 0)
(3 3.56629e-16 0)
(3 4.52947e-16 0)
(3 -1.77404e-16 0)
(3 -6.82663e-16 0)
(3 -1.09477e-15 0)
(3 -1.14533e-15 0)
(3 -5.97441e-16 0)
(3 5.23966e-16 0)
(3 -1.60136e-16 0)
(3 -5.05405e-16 0)
(3 -7.91069e-16 0)
(3 -8.73513e-16 0)
(3 -1.34418e-15 0)
(3 -2.6536e-16 0)
(3 -2.00209e-11 0)
(3.00001 -5.63458e-06 0)
(2.9793 0.192548 0)
(1.21675 0.646867 0)
(0.979502 0.626843 0)
(0.967132 0.658381 0)
(0.950046 0.679497 0)
(0.935462 0.689137 0)
(0.924487 0.695256 0)
(0.917819 0.703651 0)
(0.916444 0.717856 0)
(0.920139 0.737218 0)
(0.929926 0.761266 0)
(0.944727 0.789172 0)
(0.966342 0.819033 0)
(0.999886 0.84917 0)
(1.04702 0.878029 0)
(1.10507 0.901855 0)
(1.1802 0.923799 0)
(1.26705 0.938286 0)
(1.37161 0.946137 0)
(3 -1.48772e-16 0)
(3 4.76055e-16 0)
(3 6.34156e-16 0)
(3 5.63268e-16 0)
(3 6.54844e-16 0)
(3 1.00098e-15 0)
(3 1.53879e-15 0)
(3 1.47777e-15 0)
(3 1.4354e-15 0)
(3 1.38496e-15 0)
(3 1.45304e-15 0)
(3 1.08118e-15 0)
(3 1.23161e-15 0)
(3 7.55335e-16 0)
(3 4.8831e-16 0)
(3 3.59513e-16 0)
(3 4.59444e-16 0)
(3 3.83313e-16 0)
(3 -6.62798e-16 0)
(3 -1.29367e-15 0)
(3 -1.02433e-15 0)
(3 -3.70666e-16 0)
(3 -1.04855e-16 0)
(3 4.8497e-17 0)
(3 -1.53423e-16 0)
(3 5.01557e-16 0)
(3 1.21068e-15 0)
(3 -1.54178e-14 0)
(3 -1.07773e-06 0)
(3.03835 0.00613317 0)
(1.45861 0.612995 0)
(0.993078 0.684143 0)
(0.972134 0.699839 0)
(0.960198 0.709771 0)
(0.953554 0.715027 0)
(0.948281 0.718956 0)
(0.945017 0.723624 0)
(0.945964 0.734672 0)
(0.952457 0.751416 0)
(0.966235 0.772576 0)
(0.983541 0.796751 0)
(1.00817 0.82216 0)
(1.04317 0.846967 0)
(1.08872 0.87139 0)
(1.14467 0.892114 0)
(1.21264 0.908571 0)
(1.29136 0.918495 0)
(1.38369 0.922975 0)
(3 3.412e-16 0)
(3 5.423e-16 0)
(3 4.99908e-16 0)
(3 7.23535e-17 0)
(3 -1.00273e-16 0)
(3 6.67031e-16 0)
(3 1.26231e-15 0)
(3 1.0243e-15 0)
(3 7.74397e-16 0)
(3 3.53388e-16 0)
(3 1.11499e-15 0)
(3 1.14772e-15 0)
(3 5.16968e-16 0)
(3 2.91978e-16 0)
(3 1.61991e-16 0)
(3 4.68402e-16 0)
(3 6.82803e-16 0)
(3 5.99346e-16 0)
(3 9.34588e-17 0)
(3 -2.22573e-16 0)
(3 -2.61868e-16 0)
(3 4.77978e-16 0)
(3 1.26423e-15 0)
(3 1.57724e-15 0)
(3 1.47727e-15 0)
(3 1.16588e-15 0)
(3 1.17117e-15 0)
(3 1.24034e-15 0)
(3 -7.79183e-08 0)
(3.00062 7.6253e-06 0)
(2.1504 0.570881 0)
(1.06059 0.733947 0)
(0.990401 0.707346 0)
(0.984002 0.717607 0)
(0.979173 0.725318 0)
(0.975541 0.732249 0)
(0.974638 0.737184 0)
(0.977765 0.74606 0)
(0.986296 0.760739 0)
(1.00204 0.779895 0)
(1.02028 0.802881 0)
(1.04699 0.826095 0)
(1.08176 0.84808 0)
(1.12504 0.869116 0)
(1.17814 0.887135 0)
(1.24056 0.900288 0)
(1.31329 0.908593 0)
(1.39521 0.911694 0)
(3 1.46537e-16 0)
(3 8.8362e-17 0)
(3 -1.41904e-17 0)
(3 1.67409e-16 0)
(3 5.64957e-16 0)
(3 6.77242e-16 0)
(3 1.30926e-16 0)
(3 -1.8765e-16 0)
(3 8.74705e-17 0)
(3 2.9923e-16 0)
(3 3.73937e-16 0)
(3 5.11077e-16 0)
(3 2.07758e-16 0)
(3 2.66522e-16 0)
(3 4.4004e-16 0)
(3 1.64548e-16 0)
(3 -5.4884e-16 0)
(3 -7.48129e-16 0)
(3 1.37655e-16 0)
(3 5.60389e-16 0)
(3 8.94636e-16 0)
(3 1.31187e-15 0)
(3 2.62784e-15 0)
(3 2.55324e-15 0)
(3 1.452e-15 0)
(3 1.28259e-15 0)
(3 1.43837e-15 0)
(3 1.19746e-15 0)
(3 -5.61704e-10 0)
(3.00001 -5.08609e-06 0)
(3.04582 0.14137 0)
(1.32671 0.713444 0)
(1.05334 0.719947 0)
(1.03437 0.72581 0)
(1.01939 0.737553 0)
(1.01077 0.745492 0)
(1.0097 0.74712 0)
(1.01249 0.753775 0)
(1.02095 0.767854 0)
(1.03649 0.787242 0)
(1.05497 0.808086 0)
(1.08105 0.827436 0)
(1.11431 0.846203 0)
(1.15457 0.862703 0)
(1.20286 0.876594 0)
(1.26009 0.886913 0)
(1.32616 0.893813 0)
(1.40055 0.895639 0)
(3 -2.64122e-16 0)
(3 -7.43999e-16 0)
(3 -8.43145e-16 0)
(3 -9.47699e-17 0)
(3 5.67492e-16 0)
(3 3.95433e-17 0)
(3 -2.39084e-16 0)
(3 -1.84607e-16 0)
(3 2.02897e-16 0)
(3 3.30594e-17 0)
(3 -3.44538e-16 0)
(3 -3.58348e-16 0)
(3 -1.17112e-16 0)
(3 -1.24843e-16 0)
(3 -1.85617e-16 0)
(3 -5.36391e-16 0)
(3 -7.05757e-16 0)
(3 -6.20231e-16 0)
(3 5.19117e-17 0)
(3 1.56686e-16 0)
(3 3.84973e-16 0)
(3 3.8463e-16 0)
(3 5.56587e-16 0)
(3 6.5912e-16 0)
(3 9.53754e-16 0)
(3 7.69292e-16 0)
(3 4.33039e-16 0)
(3 -1.67965e-16 0)
(3 -5.02827e-13 0)
(3 -1.55802e-06 0)
(3.02404 0.00189355 0)
(1.68577 0.684129 0)
(1.06778 0.774661 0)
(1.04902 0.760654 0)
(1.04691 0.764256 0)
(1.0457 0.765819 0)
(1.04449 0.766262 0)
(1.04651 0.768803 0)
(1.05394 0.778581 0)
(1.0687 0.796469 0)
(1.08693 0.815452 0)
(1.11164 0.833052 0)
(1.14334 0.849592 0)
(1.18136 0.863664 0)
(1.22609 0.874535 0)
(1.27896 0.882245 0)
(1.33865 0.886839 0)
(1.40727 0.887295 0)
(3 -1.43328e-16 0)
(3 -3.13261e-16 0)
(3 3.61567e-16 0)
(3 5.12754e-16 0)
(3 2.45055e-16 0)
(3 -1.68627e-16 0)
(3 -1.3793e-16 0)
(3 -5.23448e-16 0)
(3 -5.01258e-16 0)
(3 -3.94805e-16 0)
(3 -8.8803e-17 0)
(3 2.28236e-16 0)
(3 5.03879e-16 0)
(3 3.29294e-16 0)
(3 -1.82602e-16 0)
(3 2.38513e-17 0)
(3 -1.0877e-16 0)
(3 -1.95289e-16 0)
(3 -3.89837e-16 0)
(3 -3.78897e-16 0)
(3 -3.03784e-16 0)
(3 -4.89403e-16 0)
(3 -1.34436e-15 0)
(3 -1.51591e-15 0)
(3 -3.6022e-16 0)
(3 -2.23115e-16 0)
(3 -1.29989e-15 0)
(3 -1.928e-15 0)
(3 -1.86742e-15 0)
(3 -1.45146e-07 0)
(3.00025 6.84694e-06 0)
(2.62366 0.427156 0)
(1.20773 0.777655 0)
(1.08491 0.755611 0)