/*--------------------------------*- C++ -*----------------------------------*\
  =========                 |
  \\      /  F ield         | OpenFOAM: The Open Source CFD Toolbox
   \\    /   O peration     | Website:  https://openfoam.org
    \\  /    A nd           | Version:  7
     \\/     M anipulation  |
\*---------------------------------------------------------------------------*/
FoamFile
{
    version     2.0;
    format      ascii;
    class       volVectorField;
    location    "4";
    object      U;
}
// * * * * * * * * * * * * * * * * * * * * * * * * * * * * * * * * * * * * * //

dimensions      [0 1 -1 0 0 0 0];

internalField   nonuniform List<vector> 
4032
(
(3 -1.51145e-17 0)
(3 3.19917e-17 0)
(3 1.59385e-16 0)
(3 4.60558e-16 0)
(3 5.29313e-16 0)
(3 3.07328e-16 0)
(3 4.35814e-17 0)
(3 -4.84363e-16 0)
(3 -7.5291e-16 0)
(3 -6.58707e-16 0)
(3 -3.50869e-16 0)
(2.90993 0.00314485 0)
(0.993092 0.0165679 0)
(0.708577 0.0194465 0)
(0.656101 0.0240515 0)
(0.595749 0.0255673 0)
(0.536051 0.0268577 0)
(0.474398 0.0282686 0)
(0.410727 0.0299359 0)
(0.344334 0.0318853 0)
(0.27498 0.0338 0)
(0.202041 0.0361676 0)
(0.124877 0.0379047 0)
(0.0456527 0.0417535 0)
(3 8.58943e-17 0)
(3 2.77379e-16 0)
(3 4.38765e-16 0)
(3 1.21e-15 0)
(3 1.4975e-15 0)
(3 1.44363e-15 0)
(3 4.53482e-16 0)
(3 -4.66289e-16 0)
(3 -1.52053e-15 0)
(3 -1.52934e-15 0)
(3 -9.49026e-16 0)
(2.92089 0.0206792 0)
(1.001 0.0759729 0)
(0.696385 0.067617 0)
(0.641912 0.0718588 0)
(0.582818 0.0765761 0)
(0.523554 0.0811834 0)
(0.461892 0.0861213 0)
(0.397913 0.0915375 0)
(0.331318 0.0976168 0)
(0.262269 0.103337 0)
(0.190827 0.110489 0)
(0.116277 0.115757 0)
(0.042004 0.125943 0)
(3 2.9642e-16 0)
(3 3.79904e-16 0)
(3 9.86741e-16 0)
(3 1.36158e-15 0)
(3 1.35814e-15 0)
(3 9.77755e-16 0)
(3 5.52458e-16 0)
(3 -2.16951e-16 0)
(3 -9.18477e-16 0)
(3 -7.75478e-16 0)
(3 -1.02718e-15 0)
(2.96417 0.0322648 0)
(1.04037 0.13841 0)
(0.713053 0.116168 0)
(0.658095 0.122857 0)
(0.597161 0.13067 0)
(0.536114 0.138562 0)
(0.472929 0.147085 0)
(0.407308 0.156165 0)
(0.338791 0.165954 0)
(0.267282 0.17444 0)
(0.193449 0.18474 0)
(0.116511 0.191544 0)
(0.0414407 0.204872 0)
(3 -2.83439e-17 0)
(3 2.48476e-16 0)
(3 3.56688e-16 0)
(3 3.14084e-16 0)
(3 2.19267e-16 0)
(3 8.68415e-17 0)
(3 -2.79661e-16 0)
(3 -5.33606e-16 0)
(3 -4.56911e-16 0)
(3 -4.68719e-16 0)
(3 -1.05232e-15 0)
(3.00659 0.0049657 0)
(1.11751 0.18269 0)
(0.742601 0.154447 0)
(0.690448 0.16817 0)
(0.63154 0.180114 0)
(0.571029 0.191626 0)
(0.507977 0.204523 0)
(0.441319 0.218703 0)
(0.370086 0.234644 0)
(0.293556 0.248689 0)
(0.213574 0.264273 0)
(0.129068 0.274067 0)
(0.0452999 0.289383 0)
(3 -1.20456e-16 0)
(3 1.48933e-16 0)
(3 -5.80146e-16 0)
(3 -9.75346e-16 0)
(3 -1.09111e-15 0)
(3 -1.00057e-15 0)
(3 -5.70988e-16 0)
(3 1.54861e-16 0)
(3 -8.077e-17 0)
(3 -3.75271e-16 0)
(3 -6.10992e-16 0)
(3.0004 2.08564e-05 0)
(1.23185 0.226363 0)
(0.749905 0.198887 0)
(0.693548 0.218273 0)
(0.638374 0.234611 0)
(0.581011 0.249595 0)
(0.521867 0.267121 0)
(0.459347 0.286782 0)
(0.392828 0.309254 0)
(0.319742 0.328727 0)
(0.240827 0.349815 0)
(0.150438 0.366101 0)
(0.0556703 0.388158 0)
(3 2.47508e-17 0)
(3 -2.26693e-17 0)
(3 3.57905e-17 0)
(3 -5.33004e-16 0)
(3 -1.17137e-15 0)
(3 -1.37725e-15 0)
(3 -3.89927e-16 0)
(3 2.90438e-16 0)
(3 5.39328e-16 0)
(3 4.41313e-16 0)
(3 2.05174e-16 0)
(3 -7.45271e-08 0)
(1.41799 0.276542 0)
(0.766666 0.248807 0)
(0.694842 0.262983 0)
(0.64552 0.281302 0)
(0.595497 0.298776 0)
(0.545671 0.320046 0)
(0.491678 0.344799 0)
(0.431525 0.375681 0)
(0.358463 0.407633 0)
(0.272403 0.444328 0)
(0.170784 0.478122 0)
(0.0572727 0.509369 0)
(3 -1.265e-16 0)
(3 -2.42465e-16 0)
(3 -4.45166e-17 0)
(3 1.19515e-16 0)
(3 -1.47293e-17 0)
(3 2.15819e-16 0)
(3 1.85144e-16 0)
(3 -2.65003e-16 0)
(3 3.58674e-18 0)
(3 8.8273e-16 0)
(3 1.29668e-15 0)
(3 -6.64559e-08 0)
(1.69841 0.327923 0)
(0.798269 0.314304 0)
(0.696169 0.31123 0)
(0.644802 0.326347 0)
(0.596525 0.34392 0)
(0.552885 0.369003 0)
(0.507288 0.400991 0)
(0.458978 0.443545 0)
(0.399982 0.492068 0)
(0.329806 0.54368 0)
(0.237594 0.594574 0)
(0.103094 0.655011 0)
(3 1.87858e-16 0)
(3 -2.18841e-16 0)
(3 -5.27111e-16 0)
(3 -1.4986e-16 0)
(3 1.02411e-15 0)
(3 1.27294e-15 0)
(3 2.07431e-16 0)
(3 1.45443e-16 0)
(3 -5.46068e-17 0)
(3 6.51941e-16 0)
(3 1.11017e-15 0)
(3 -1.34789e-08 0)
(2.11115 0.365658 0)
(0.858247 0.399902 0)
(0.719985 0.372531 0)
(0.669358 0.380969 0)
(0.621248 0.393403 0)
(0.579131 0.416226 0)
(0.539277 0.450648 0)
(0.50096 0.498972 0)
(0.457719 0.559387 0)
(0.396391 0.641033 0)
(0.276963 0.756688 0)
(0.152558 0.921354 0)
(3 1.31544e-17 0)
(3 -9.00888e-17 0)
(3 -3.93657e-16 0)
(3 -1.66029e-16 0)
(3 3.74075e-16 0)
(3 1.27301e-16 0)
(3 2.29282e-16 0)
(3 3.58901e-16 0)
(3 5.7353e-16 0)
(3 2.30294e-16 0)
(3 2.26842e-16 0)
(3 -1.33347e-09 0)
(2.6999 0.285876 0)
(0.997805 0.479552 0)
(0.808334 0.409506 0)
(0.755577 0.417704 0)
(0.696372 0.436078 0)
(0.643317 0.460302 0)
(0.599339 0.495557 0)
(0.562103 0.547329 0)
(0.528711 0.624368 0)
(0.496542 0.749545 0)
(0.465461 0.9224 0)
(0.579755 1.20162 0)
(3 -4.22959e-17 0)
(3 -5.4537e-17 0)
(3 -2.16049e-16 0)
(3 -3.52695e-16 0)
(3 -4.57287e-16 0)
(3 -7.21621e-16 0)
(3 -5.22596e-16 0)
(3 -3.6833e-16 0)
(3 4.9592e-16 0)
(3 1.04878e-15 0)
(3 6.7787e-16 0)
(3 -4.86461e-11 0)
(3.07303 0.0358493 0)
(1.23229 0.470285 0)
(0.882956 0.450334 0)
(0.839624 0.479095 0)
(0.786198 0.494069 0)
(0.73117 0.51383 0)
(0.68203 0.54538 0)
(0.641631 0.59538 0)
(0.621952 0.679227 0)
(0.621947 0.814702 0)
(0.686173 0.964542 0)
(0.971141 1.13931 0)
(3 2.99992e-17 0)
(3 -3.61077e-16 0)
(3 -4.28248e-16 0)
(3 -5.99219e-16 0)
(3 -7.25841e-16 0)
(3 -8.50624e-16 0)
(3 -8.13547e-16 0)
(3 -3.62338e-16 0)
(3 7.3162e-17 0)
(3 8.26672e-17 0)
(3 -2.41069e-16 0)
(3 -8.52671e-13 0)
(3.00692 5.05636e-05 0)
(1.45852 0.463287 0)
(0.881926 0.514786 0)
(0.835593 0.534427 0)
(0.802105 0.554423 0)
(0.774519 0.5783 0)
(0.746298 0.608756 0)
(0.72009 0.649902 0)
(0.72097 0.721755 0)
(0.748491 0.835832 0)
(0.870993 0.960483 0)
(1.17847 1.06785 0)
(3 6.92381e-17 0)
(3 1.04726e-16 0)
(3 -2.01533e-16 0)
(3 -2.01654e-16 0)
(3 -7.93329e-16 0)
(3 -5.54574e-16 0)
(3 -4.15553e-16 0)
(3 -2.90836e-16 0)
(3 -1.5049e-15 0)
(3 -2.81683e-15 0)
(3 -2.83384e-15 0)
(3 -9.49811e-15 0)
(3.00004 -1.81782e-06 0)
(1.987 0.493296 0)
(0.93257 0.580904 0)
(0.854297 0.561213 0)
(0.837314 0.584042 0)
(0.824165 0.610963 0)
(0.813696 0.645678 0)
(0.804349 0.683772 0)
(0.817156 0.745347 0)
(0.865864 0.835146 0)
(1.00948 0.938086 0)
(1.27308 1.00743 0)
(3 3.68982e-17 0)
(3 3.03673e-16 0)
(3 2.77857e-16 0)
(3 5.77977e-17 0)
(3 -6.4737e-16 0)
(3 -8.30522e-16 0)
(3 -1.24902e-15 0)
(3 -1.73797e-15 0)
(3 -2.15775e-15 0)
(3 -2.3458e-15 0)
(3 -2.21098e-15 0)
(3 -1.21112e-15 0)
(3 -2.17598e-06 0)
(2.79609 0.297059 0)
(1.10941 0.633495 0)
(0.926424 0.576978 0)
(0.89934 0.600925 0)
(0.882615 0.632557 0)
(0.87819 0.671915 0)
(0.883168 0.713196 0)
(0.904557 0.765754 0)
(0.967451 0.832355 0)
(1.10544 0.90414 0)
(1.31632 0.946149 0)
(3 6.17694e-17 0)
(3 1.41616e-16 0)
(3 7.36959e-16 0)
(3 8.54954e-16 0)
(3 3.44138e-16 0)
(3 -1.0321e-16 0)
(3 -6.32871e-16 0)
(3 -6.82235e-16 0)
(3 -3.16377e-16 0)
(3 -4.18383e-16 0)
(3 -3.65773e-16 0)
(3 6.00273e-16 0)
(3 -4.51423e-07 0)
(3.06999 0.020978 0)
(1.44321 0.624751 0)
(0.998498 0.654468 0)
(0.949609 0.654002 0)
(0.927343 0.67102 0)
(0.928555 0.700119 0)
(0.946754 0.736813 0)
(0.981086 0.779162 0)
(1.0529 0.830181 0)
(1.17814 0.87995 0)
(1.34721 0.906179 0)
(3 3.52323e-17 0)
(3 1.62136e-16 0)
(3 3.64368e-16 0)
(3 6.37244e-16 0)
(3 1.44656e-15 0)
(3 1.70853e-15 0)
(3 1.22643e-15 0)
(3 2.43821e-16 0)
(3 -2.0203e-17 0)
(3 -3.39476e-16 0)
(3 1.78584e-16 0)
(3 8.8216e-16 0)
(3 -4.46596e-08 0)
(3.00323 4.91354e-05 0)
(2.02113 0.596481 0)
(1.06157 0.724047 0)
(1.00898 0.698873 0)
(0.994572 0.696626 0)
(0.993719 0.714743 0)
(1.01172 0.74456 0)
(1.05172 0.782281 0)
(1.12295 0.821068 0)
(1.22976 0.85328 0)
(1.36384 0.867934 0)
(3 -4.46097e-17 0)
(3 2.2508e-16 0)
(3 2.52992e-16 0)
(3 2.57847e-16 0)
(3 6.58772e-16 0)
(3 4.70141e-16 0)
(3 2.74695e-16 0)
(3 2.30327e-16 0)
(3 -1.03335e-15 0)
(3 -1.49584e-15 0)
(3 -4.7237e-17 0)
(3 4.51741e-16 0)
(3 -1.35423e-09 0)
(3.00001 -2.566e-07 0)
(2.96284 0.203848 0)
(1.29215 0.693914 0)
(1.08247 0.716101 0)
(1.08616 0.719234 0)
(1.08181 0.739812 0)
(1.08892 0.765188 0)
(1.12041 0.792562 0)
(1.18312 0.82337 0)
(1.27263 0.84542 0)
(1.38338 0.853619 0)
(3 -1.86499e-17 0)
(3 -7.20855e-17 0)
(3 6.42009e-18 0)
(3 3.02085e-17 0)
(3 -3.77254e-16 0)
(3 -5.53417e-16 0)
(3 -2.49408e-16 0)
(3 -1.85981e-16 0)
(3 -1.74066e-16 0)
(3 -1.43994e-16 0)
(3 -2.6508e-16 0)
(3 -2.3592e-16 0)
(3 -2.84433e-12 0)
(3 -5.05455e-07 0)
(3.03773 0.0049882 0)
(1.58728 0.657806 0)
(1.09989 0.757194 0)
(1.10905 0.764463 0)
(1.11584 0.782054 0)
(1.13949 0.795514 0)
(1.17595 0.808289 0)
(1.23252 0.821532 0)
(1.30875 0.833084 0)
(1.40281 0.836288 0)
(3 -1.38398e-16 0)
(3 -5.87184e-16 0)
(3 -9.53292e-16 0)
(3 -8.00402e-16 0)
(3 -1.05597e-15 0)
(3 -8.19379e-16 0)
(3 -3.66698e-16 0)
(3 -4.23194e-16 0)
(3 5.71042e-16 0)
(3 1.09076e-15 0)
(3 4.20448e-16 0)
(3 -6.69744e-18 0)
(3 -4.47333e-15 0)
(3 -9.52874e-08 0)
(3.00066 2.61899e-05 0)
(2.42658 0.496186 0)
(1.21263 0.788064 0)
(1.13412 0.790821 0)
(1.14825 0.794082 0)
(1.17629 0.80464 0)
(1.21652 0.817177 0)
(1.27099 0.828894 0)
(1.34024 0.837286 0)
(1.42174 0.836914 0)
(3 -2.64388e-17 0)
(3 2.45427e-16 0)
(3 2.10452e-16 0)
(3 8.27727e-17 0)
(3 3.42766e-16 0)
(3 3.79296e-16 0)
(3 1.94789e-16 0)
(3 2.82552e-16 0)
(3 5.393e-16 0)
(3 4.43329e-16 0)
(3 -3.59002e-18 0)
(3 -6.42833e-17 0)
(3 -2.00981e-16 0)
(3 -2.98223e-09 0)
(3.00002 -7.98986e-06 0)
(3.06064 0.0648344 0)
(1.57917 0.775059 0)
(1.18468 0.787248 0)
(1.19934 0.795381 0)
(1.22063 0.807459 0)
(1.25753 0.818104 0)
(1.30701 0.827524 0)
(1.36892 0.832823 0)
(1.44203 0.83039 0)
(3 5.54092e-17 0)
(3 4.76573e-17 0)
(3 3.71045e-16 0)
(3 4.02345e-16 0)
(3 2.33786e-16 0)
(3 3.97928e-16 0)
(3 3.03387e-16 0)
(3 3.04506e-16 0)
(3 -1.23831e-16 0)
(3 -4.81964e-16 0)
(3 -9.65162e-16 0)
(3 -6.20368e-16 0)
(3 -7.19677e-16 0)
(3 -1.05608e-11 0)
(3 -2.00087e-06 0)
(3.00721 0.00125332 0)
(2.33714 0.616685 0)
(1.27373 0.85251 0)
(1.22561 0.837396 0)
(1.25552 0.834843 0)
(1.28795 0.838519 0)
(1.3335 0.842413 0)
(1.38998 0.842658 0)
(1.4552 0.838654 0)
(3 1.69269e-17 0)
(3 -3.12178e-16 0)
(3 -2.76925e-16 0)
(3 -2.5444e-16 0)
(3 -6.94298e-16 0)
(3 -7.59644e-16 0)
(3 -7.05357e-16 0)
(3 -4.47274e-16 0)
(3 -5.48457e-16 0)
(3 -5.86044e-16 0)
(3 -5.64656e-16 0)
(3 -1.01263e-15 0)
(3 -1.13774e-15 0)
(3 -5.98771e-15 0)
(3 -1.7018e-07 0)
(3.00002 7.58041e-06 0)
(3.04596 0.104748 0)
(1.65126 0.828293 0)
(1.27252 0.836646 0)
(1.3041 0.836151 0)
(1.32809 0.839233 0)
(1.36777 0.840068 0)
(1.41766 0.838514 0)
(1.47465 0.83537 0)
(3 1.22718e-16 0)
(3 -9.88478e-17 0)
(3 -7.39285e-16 0)
(3 -8.73521e-16 0)
(3 -9.42768e-16 0)
(3 -1.27604e-15 0)
(3 -1.04188e-15 0)
(3 7.34542e-17 0)
(3 1.68053e-16 0)
(3 -1.57993e-16 0)
(3 -2.30694e-16 0)
(3 -3.18082e-16 0)
(3 -8.52394e-16 0)
(3 -1.48324e-15 0)
(3 -2.08129e-09 0)
(3 -1.13645e-07 0)
(3.00903 0.00320249 0)
(2.44776 0.613198 0)
(1.37259 0.893656 0)
(1.33003 0.877655 0)
(1.36075 0.868061 0)
(1.3937 0.864144 0)
(1.43578 0.859263 0)
(1.48477 0.853042 0)
(3 5.90833e-17 0)
(3 -1.82554e-16 0)
(3 -5.11313e-16 0)
(3 -6.34751e-16 0)
(3 -4.44189e-16 0)
(3 -1.32152e-16 0)
(3 2.22173e-16 0)
(3 2.04008e-16 0)
(3 3.94702e-16 0)
(3 5.23426e-16 0)
(3 2.36593e-16 0)
(3 1.09873e-16 0)
(3 -1.40264e-16 0)
(3 -3.33953e-16 0)
(3 -4.79397e-12 0)
(3 -2.79182e-08 0)
(3.00004 3.47938e-05 0)
(3.04269 0.0859696 0)
(1.79438 0.82646 0)
(1.37002 0.886709 0)
(1.40838 0.878918 0)
(1.43428 0.871743 0)
(1.46818 0.862494 0)
(1.50829 0.85246 0)
(3 -9.40876e-17 0)
(3 5.1275e-18 0)
(3 4.28237e-16 0)
(3 9.79209e-16 0)
(3 9.5803e-16 0)
(3 1.20602e-15 0)
(3 1.01101e-15 0)
(3 3.94619e-16 0)
(3 2.86962e-17 0)
(3 1.42767e-16 0)
(3 1.03496e-16 0)
(3 1.04108e-16 0)
(3 -3.20248e-17 0)
(3 3.548e-16 0)
(3 -1.35945e-15 0)
(3 -2.58332e-09 0)
(3 1.82412e-08 0)
(3.00483 0.00346416 0)
(2.65685 0.486962 0)
(1.54012 0.932392 0)
(1.42822 0.908617 0)
(1.46056 0.899036 0)
(1.49032 0.888277 0)
(1.52592 0.874112 0)
(3 -7.28651e-17 0)
(3 3.77564e-16 0)
(3 4.96741e-16 0)
(3 5.02204e-16 0)
(3 7.74947e-16 0)
(3 5.92267e-16 0)
(3 -7.44761e-18 0)
(3 2.03927e-16 0)
(3 3.46778e-16 0)
(3 1.61827e-16 0)
(3 7.98483e-17 0)
(3 5.8769e-18 0)
(3 -2.2371e-16 0)
(3 2.9099e-16 0)
(3 1.04024e-15 0)
(3 -1.00464e-10 0)
(3 -9.85359e-11 0)
(3.00001 2.99637e-05 0)
(3.0304 0.0429277 0)
(2.06745 0.786009 0)
(1.48846 0.919289 0)
(1.49872 0.909617 0)
(1.52571 0.89618 0)
(1.55665 0.881603 0)
(3 1.335e-17 0)
(3 1.74032e-16 0)
(3 -1.0266e-16 0)
(3 -5.79818e-16 0)
(3 -2.08156e-16 0)
(3 2.46122e-17 0)
(3 -1.3241e-16 0)
(3 9.91428e-17 0)
(3 6.73557e-16 0)
(3 7.07764e-16 0)
(3 7.86107e-16 0)
(3 5.79353e-16 0)
(3 6.87659e-16 0)
(3 5.60274e-16 0)
(3 8.38329e-16 0)
(3 -8.59709e-13 0)
(3 -3.09625e-11 0)
(3 1.92076e-08 0)
(3.00113 0.00181027 0)
(2.87418 0.275866 0)
(1.76878 0.891907 0)
(1.51875 0.93167 0)
(1.55343 0.920445 0)
(1.58692 0.903247 0)
(3 -7.26575e-17 0)
(3 -1.58155e-16 0)
(3 1.08488e-16 0)
(3 9.17655e-17 0)
(3 -4.47086e-17 0)
(3 -2.77331e-16 0)
(3 -1.81709e-16 0)
(3 -1.88505e-16 0)
(3 -4.86633e-16 0)
(3 -4.51238e-16 0)
(3 9.00268e-17 0)
(3 -4.4822e-18 0)
(3 4.26972e-16 0)
(3 2.63217e-16 0)
(3 -8.81424e-17 0)
(3 -2.10893e-15 0)
(3 -4.04137e-12 0)
(3 -7.4348e-13 0)
(3 7.93923e-06 0)
(3.0083 0.017644 0)
(2.46742 0.604222 0)
(1.63343 0.953707 0)
(1.56475 0.941164 0)
(1.60022 0.925904 0)
(3 -1.34854e-17 0)
(3 -7.02607e-17 0)
(3 2.51698e-17 0)
(3 3.46134e-16 0)
(3 1.01039e-16 0)
(3 -1.60755e-16 0)
(3 -7.86811e-16 0)
(3 -1.18799e-15 0)
(3 -1.34921e-15 0)
(3 -9.58129e-16 0)
(3 -6.68874e-16 0)
(3 -8.5075e-16 0)
(3 -5.89957e-16 0)
(3 -9.96885e-17 0)
(3 -2.80063e-16 0)
(3 -3.15966e-16 0)
(3 -2.30119e-13 0)
(3 -2.27629e-13 0)
(3 3.97029e-09 0)
(3.00003 0.000447466 0)
(2.99325 0.0919569 0)
(2.09455 0.796626 0)
(1.6239 0.945482 0)
(1.62002 0.941811 0)
(3 4.42807e-16 0)
(3 3.52906e-16 0)
(3 -3.02216e-16 0)
(3 -3.49125e-16 0)
(3 -3.15685e-16 0)
(3 6.40262e-17 0)
(3 -7.25257e-17 0)
(3 -5.92807e-16 0)
(3 1.2615e-16 0)
(3 5.51521e-16 0)
(3 3.00566e-17 0)
(3 -2.84403e-16 0)
(3 -8.90035e-16 0)
(3 -1.02141e-15 0)
(3 -1.54678e-15 0)
(3 -1.09736e-15 0)
(3 -3.24435e-15 0)
(3 -7.54759e-14 0)
(3 1.03517e-12 0)
(3 8.77909e-07 0)
(3.00095 0.00481327 0)
(2.82733 0.299155 0)
(1.89466 0.88442 0)
(1.65428 0.956549 0)
(3 -4.81731e-17 0)
(3 1.60465e-17 0)
(3 1.50805e-16 0)
(3 1.16354e-16 0)
(3 1.62407e-16 0)
(3 2.87172e-16 0)
(3 9.28461e-16 0)
(3 1.93618e-15 0)
(3 1.46647e-15 0)
(3 9.50767e-16 0)
(3 1.03534e-15 0)
(3 1.01499e-15 0)
(3 -1.15332e-16 0)
(3 -1.30321e-15 0)
(3 -1.7085e-15 0)
(3 -1.7094e-15 0)
(3 -1.08898e-15 0)
(3 -1.03346e-14 0)
(3 -1.30755e-14 0)
(3 4.98674e-10 0)
(2.99999 3.67867e-05 0)
(3.00086 0.0227151 0)
(2.54681 0.530674 0)
(1.81384 0.939714 0)
(3 -2.45579e-16 0)
(3 -8.86897e-17 0)
(3 7.13741e-16 0)
(3 7.35063e-16 0)
(3 4.75103e-16 0)
(3 3.60079e-16 0)
(3 6.05198e-16 0)
(3 1.02499e-15 0)
(3 1.01468e-15 0)
(3 9.02164e-16 0)
(3 1.16305e-15 0)
(3 4.94105e-16 0)
(3 4.3722e-17 0)
(3 6.66505e-17 0)
(3 -7.19901e-17 0)
(3 -7.21549e-16 0)
(3 -2.39661e-17 0)
(3 -7.73324e-16 0)
(3 -5.4193e-15 0)
(3 8.81622e-14 0)
(3 3.39505e-08 0)
(2.99994 0.000590093 0)
(2.98236 0.0692135 0)
(2.30281 0.705083 0)
(3 1.50234e-16 0)
(3 7.42811e-17 0)
(3 -7.57913e-17 0)
(3 1.29497e-16 0)
(3 8.11864e-17 0)
(3 1.51904e-16 0)
(3 -5.49945e-17 0)
(3 -2.55566e-16 0)
(3 -1.97102e-16 0)
(3 -1.61368e-16 0)
(3 -7.96267e-17 0)
(3 -2.5636e-16 0)
(3 -5.24272e-17 0)
(3 3.1197e-16 0)
(3 3.91213e-16 0)
(3 8.17248e-16 0)
(3 1.05168e-15 0)
(3 2.74199e-16 0)
(3 -2.07627e-15 0)
(3 -2.79832e-15 0)
(3 1.6157e-11 0)
(3 1.37111e-06 0)
(2.9999 0.00314731 0)
(2.89114 0.184399 0)
(3 6.64429e-19 0)
(3 -1.85323e-16 0)
(3 -1.99328e-16 0)
(3 -4.09457e-17 0)
(3 -2.10071e-17 0)
(3 4.50522e-16 0)
(3 8.48707e-16 0)
(3 8.87145e-16 0)
(3 2.62599e-16 0)
(3 -7.07652e-16 0)
(3 -8.48222e-16 0)
(3 -7.87572e-16 0)
(3 5.32134e-16 0)
(3 7.13276e-16 0)
(3 1.23663e-15 0)
(3 1.68832e-15 0)
(3 1.09401e-15 0)
(3 -1.61668e-16 0)
(3 -4.86957e-16 0)
(3 -9.17348e-16 0)
(3 1.4958e-15 0)
(3 1.22236e-09 0)
(3 1.61801e-05 0)
(2.99676 0.0122558 0)
(3 -1.41892e-16 0)
(3 -1.16249e-16 0)
(3 -8.70774e-17 0)
(3 -3.96159e-16 0)
(3 -5.10554e-16 0)
(3 -3.32133e-16 0)
(3 2.56485e-16 0)
(3 8.58441e-16 0)
(3 6.70817e-16 0)
(3 3.16346e-16 0)
(3 -4.62661e-16 0)
(3 -9.23802e-16 0)
(3 -9.41277e-16 0)
(3 4.00411e-16 0)
(3 7.15201e-16 0)
(3 2.75782e-16 0)
(3 -1.13985e-15 0)
(3 -7.42321e-16 0)
(3 3.71893e-16 0)
(3 1.03296e-15 0)
(3 4.37091e-17 0)
(3 1.57309e-13 0)
(3 2.68856e-08 0)
(2.99998 9.04553e-05 0)
(3 -1.28013e-17 0)
(3 1.97626e-17 0)
(3 -1.35582e-16 0)
(3 -1.59021e-16 0)
(3 -1.8335e-16 0)
(3 -6.69274e-16 0)
(3 -8.40323e-16 0)
(3 -8.1306e-16 0)
(3 -5.20651e-16 0)
(3 1.02977e-16 0)
(3 3.07122e-16 0)
(3 -3.55174e-16 0)
(3 -8.01063e-16 0)
(3 2.59414e-16 0)
(3 3.44373e-16 0)
(3 -5.96636e-18 0)
(3 -8.48615e-16 0)
(3 -1.47661e-15 0)
(3 -6.71509e-16 0)
(3 -8.19392e-17 0)
(3 -6.51448e-16 0)
(3 -1.52587e-15 0)
(3 9.88534e-12 0)
(3 1.31912e-07 0)
(3 -1.66782e-17 0)
(3 -4.31158e-17 0)
(3 -3.97821e-17 0)
(3 2.57449e-16 0)
(3 3.82715e-16 0)
(3 -5.57888e-17 0)
(3 -7.47894e-16 0)
(3 -1.59549e-15 0)
(3 -8.06798e-16 0)
(3 -7.23112e-17 0)
(3 2.28763e-16 0)
(3 4.14456e-16 0)
(3 4.03471e-16 0)
(3 2.21509e-16 0)
(3 3.05277e-16 0)
(3 3.40843e-16 0)
(3 -1.96366e-16 0)
(3 -6.89045e-16 0)
(3 -5.4187e-16 0)
(3 -9.55096e-16 0)
(3 -1.10328e-15 0)
(3 -3.45926e-16 0)
(3 1.16959e-15 0)
(3 4.38489e-11 0)
(3 1.86193e-16 0)
(3 3.41643e-16 0)
(3 -1.94953e-16 0)
(3 -6.31081e-16 0)
(3 -5.92209e-16 0)
(3 -1.71044e-16 0)
(3 -3.74451e-16 0)
(3 -8.28432e-16 0)
(3 -7.3096e-16 0)
(3 -3.4123e-17 0)
(3 2.53845e-16 0)
(3 2.70437e-16 0)
(3 -6.98375e-17 0)
(3 -1.01677e-15 0)
(3 -1.46338e-15 0)
(3 -1.54504e-15 0)
(3 -7.76684e-17 0)
(3 1.7232e-16 0)
(3 -9.93734e-17 0)
(3 -9.63383e-16 0)
(3 -7.60848e-16 0)
(3 1.68615e-16 0)
(3 -2.42139e-17 0)
(3 5.155e-15 0)
(3 8.59482e-17 0)
(3 -5.15534e-17 0)
(3 -2.38948e-16 0)
(3 -8.4439e-16 0)
(3 -8.65404e-16 0)
(3 -6.46459e-16 0)
(3 -4.66489e-16 0)
(3 -1.5001e-16 0)
(3 -8.08654e-16 0)
(3 -9.24476e-16 0)
(3 -5.17194e-16 0)
(3 -3.47763e-16 0)
(3 -3.74378e-16 0)
(3 -1.50366e-15 0)
(3 -2.17179e-15 0)
(3 -2.0442e-15 0)
(3 -1.43075e-15 0)
(3 -8.79571e-16 0)
(3 -7.52556e-16 0)
(3 -6.32562e-16 0)
(3 -5.60411e-17 0)
(3 2.54781e-16 0)
(3 3.79634e-16 0)
(3 4.08285e-16 0)
(3 -2.44982e-16 0)
(3 -4.52723e-16 0)
(3 2.46081e-17 0)
(3 2.25912e-16 0)
(3 -1.38928e-16 0)
(3 -9.54518e-16 0)
(3 -9.96052e-16 0)
(3 -3.9915e-16 0)
(3 5.37743e-18 0)
(3 -8.9913e-16 0)
(3 -1.82283e-15 0)
(3 -7.68045e-16 0)
(3 1.3228e-16 0)
(3 3.303e-17 0)
(3 -3.52032e-16 0)
(3 -9.54274e-16 0)
(3 -2.01964e-15 0)
(3 -2.20895e-15 0)
(3 -1.10298e-15 0)
(3 -8.76542e-16 0)
(3 -1.76196e-15 0)
(3 -5.67459e-16 0)
(3 5.49962e-16 0)
(3 -2.07622e-16 0)
(3 -4.40847e-18 0)
(3 3.37843e-18 0)
(3 3.68165e-16 0)
(3 4.59285e-16 0)
(3 1.15128e-17 0)
(3 -3.11368e-16 0)
(3 -5.05981e-16 0)
(3 -2.28782e-16 0)
(3 4.0019e-16 0)
(3 -3.10835e-16 0)
(3 -7.54823e-16 0)
(3 -3.68358e-16 0)
(3 5.05047e-16 0)
(3 7.12251e-16 0)
(3 7.25186e-16 0)
(3 -1.41545e-16 0)
(3 -6.87308e-16 0)
(3 -9.37204e-16 0)
(3 -7.34358e-16 0)
(3 -1.12042e-15 0)
(3 -1.38907e-15 0)
(3 -1.12621e-15 0)
(3 3.11717e-16 0)
(3 -8.14224e-16 0)
(1.4598 1.28323 0)
(1.9891 1.14677 0)
(2.43906 1.34157 0)
(2.41917 0.921425 0)
(2.40001 0.394973 0)
(2.4644 -0.0675486 0)
(2.55202 -0.321961 0)
(2.58459 -0.423956 0)
(2.50557 -0.31472 0)
(2.42407 -0.225693 0)
(2.38577 -0.216849 0)
(2.37979 -0.187225 0)
(2.39839 -0.176683 0)
(2.45234 -0.167834 0)
(2.44595 -0.149869 0)
(2.4138 -0.107479 0)
(2.35413 -0.0457295 0)
(2.33761 -0.0210991 0)
(2.33898 -0.0157237 0)
(2.36855 -0.0174188 0)
(2.41852 -0.0219062 0)
(2.42456 -0.0202509 0)
(2.41181 -0.0170445 0)
(2.38024 -0.0114064 0)
(2.36086 -0.00773928 0)
(2.35654 -0.00561974 0)
(2.39254 -0.0178393 0)
(1.37429 0.027488 0)
(0.808442 0.0319879 0)
(0.707201 0.023737 0)
(0.690111 0.00476141 0)
(0.697582 -0.00850634 0)
(0.721108 -0.0204198 0)
(0.755815 -0.029891 0)
(0.796457 -0.0353498 0)
(0.840129 -0.0362526 0)
(0.881926 -0.0327094 0)
(0.919868 -0.0271812 0)
(0.955177 -0.0233269 0)
(0.990136 -0.022245 0)
(1.02531 -0.0232029 0)
(1.05894 -0.0248895 0)
(1.09005 -0.0246989 0)
(1.11763 -0.0220916 0)
(1.14388 -0.0188623 0)
(1.17291 -0.0172187 0)
(1.20879 -0.0175742 0)
(1.25145 -0.0192708 0)
(1.29205 -0.0206684 0)
(1.32104 -0.0199593 0)
(1.34252 -0.0167119 0)
(1.36193 -0.00982754 0)
(1.38247 -0.00538385 0)
(1.40868 -0.00331848 0)
(1.44434 -0.0040484 0)
(1.47585 -0.0093147 0)
(1.49662 -0.01243 0)
(1.5165 -0.0121545 0)
(1.53328 -0.00870359 0)
(1.5503 -0.0043758 0)
(1.56984 -0.0024178 0)
(1.595 -0.00196506 0)
(1.6263 -0.00365151 0)
(1.64977 -0.00582298 0)
(1.67008 -0.00578821 0)
(1.68902 -0.00393918 0)
(1.70556 -0.000766408 0)
(1.7227 0.00142001 0)
(1.7408 0.00192508 0)
(1.76147 0.00154118 0)
(1.78271 0.000415361 0)
(1.80171 -0.000104865 0)
(1.82046 0.000269736 0)
(1.83753 0.00174007 0)
(1.85211 0.00359555 0)
(1.86663 0.00473127 0)
(1.88358 0.00490261 0)
(1.90158 0.00488107 0)
(1.92087 0.00364743 0)
(1.93894 0.00163683 0)
(1.95684 0.00141896 0)
(1.97244 0.00224335 0)
(1.98305 0.00433715 0)
(1.99234 0.0065628 0)
(2.00509 0.00761136 0)
(2.02138 0.00775777 0)
(2.03816 0.00771315 0)
(2.05636 0.00658018 0)
(2.07275 0.00493338 0)
(2.08836 0.00440864 0)
(2.09777 0.00492628 0)
(2.10045 0.00667566 0)
(2.1068 0.0081687 0)
(2.12087 0.00818318 0)
(2.13482 0.00782636 0)
(2.15915 0.00757931 0)
(1.74438 1.14334 0)
(2.2782 0.774507 0)
(2.58611 0.368514 0)
(2.64813 0.174715 0)
(2.65582 -0.180933 0)
(2.69783 -0.420428 0)
(2.74011 -0.640978 0)
(2.72837 -0.694829 0)
(2.70524 -0.629077 0)
(2.62396 -0.464284 0)
(2.56259 -0.301441 0)
(2.51959 -0.206743 0)
(2.50673 -0.170522 0)
(2.51537 -0.155809 0)
(2.49023 -0.136598 0)
(2.4464 -0.114222 0)
(2.42689 -0.0640134 0)
(2.41585 -0.000440089 0)
(2.41521 0.0251465 0)
(2.42576 0.0176321 0)
(2.44701 0.00840683 0)
(2.43984 0.000349942 0)
(2.43017 -0.015872 0)
(2.41276 -0.0347789 0)
(2.4037 -0.029162 0)
(2.40534 -0.00631247 0)
(2.4189 0.00347778 0)
(1.50534 0.15848 0)
(0.816514 0.115104 0)
(0.75561 0.0266862 0)
(0.776837 -0.0272103 0)
(0.805747 -0.0444778 0)
(0.833334 -0.0434868 0)
(0.860161 -0.0440878 0)
(0.893398 -0.0504106 0)
(0.934244 -0.0569052 0)
(0.977249 -0.0533152 0)
(1.01327 -0.0378442 0)
(1.03966 -0.0197348 0)
(1.06285 -0.0107054 0)
(1.08675 -0.0135106 0)
(1.11702 -0.024007 0)
(1.15285 -0.0348302 0)
(1.18804 -0.0362146 0)
(1.21545 -0.0266943 0)
(1.23922 -0.0126953 0)
(1.26374 -0.00400786 0)
(1.29072 -0.00602489 0)
(1.32514 -0.0185147 0)
(1.36136 -0.0313855 0)
(1.38887 -0.0322281 0)
(1.40954 -0.0238873 0)
(1.42882 -0.00622561 0)
(1.44917 0.00914994 0)
(1.46815 0.0121461 0)
(1.48975 0.00235339 0)
(1.51715 -0.0142516 0)
(1.54254 -0.024135 0)
(1.56328 -0.0250046 0)
(1.58295 -0.017398 0)
(1.60254 -0.00292466 0)
(1.62223 0.00814183 0)
(1.64111 0.00925758 0)
(1.66119 0.00264656 0)
(1.68522 -0.00552299 0)
(1.70644 -0.00737282 0)
(1.72572 -0.00460917 0)
(1.74343 0.00329088 0)
(1.75815 0.0105621 0)
(1.7732 0.0124784 0)
(1.78984 0.0092685 0)
(1.80957 0.00219154 0)
(1.83026 -0.00201025 0)
(1.84906 -0.00232521 0)
(1.86754 0.00169906 0)
(1.88307 0.0105544 0)
(1.89491 0.0188308 0)
(1.90722 0.0210831 0)
(1.9234 0.0188409 0)
(1.94213 0.013787 0)
(1.96044 0.00550027 0)
(1.97647 -0.00071568 0)
(1.99254 -0.00118099 0)
(2.00681 0.00567595 0)
(2.01862 0.0166219 0)
(2.02875 0.0251501 0)
(2.04081 0.0271265 0)
(2.05619 0.024507 0)
(2.07307 0.019514 0)
(2.08893 0.010828 0)
(2.10243 0.003535 0)
(2.11279 0.00492192 0)
(2.12211 0.0142176 0)
(2.13092 0.0242697 0)
(2.14127 0.0265206 0)
(2.16265 0.0246755 0)
(1.68168 1.03234 0)
(2.07982 0.839302 0)
(2.30314 0.645524 0)
(2.47448 0.418383 0)
(2.61743 0.171887 0)
(2.69941 -0.0287305 0)
(2.71054 -0.217409 0)
(2.7128 -0.309272 0)
(2.7426 -0.311687 0)
(2.77982 -0.382554 0)
(2.76513 -0.440839 0)
(2.72612 -0.436419 0)
(2.6975 -0.436444 0)
(2.66863 -0.421495 0)
(2.6419 -0.356111 0)
(2.59304 -0.24512 0)
(2.57623 -0.187759 0)
(2.56761 -0.127424 0)
(2.54979 -0.0523886 0)
(2.53318 -0.0405114 0)
(2.50054 -0.0244092 0)
(2.4767 -0.0113286 0)
(2.46804 0.00589215 0)
(2.47225 0.00274804 0)
(2.48645 -0.0221859 0)
(2.48863 -0.0247785 0)
(2.48535 -0.015335 0)
(1.92616 0.193102 0)
(0.975726 0.118025 0)
(0.915842 -0.000884167 0)
(0.99839 -0.0615466 0)
(1.04905 -0.0671956 0)
(1.07708 -0.06771 0)
(1.09345 -0.0694535 0)
(1.1078 -0.0708408 0)
(1.12975 -0.0749236 0)
(1.16325 -0.0802465 0)
(1.20011 -0.0808724 0)
(1.22705 -0.0728603 0)
(1.24255 -0.0602705 0)
(1.25539 -0.0462146 0)
(1.27116 -0.0414354 0)
(1.29202 -0.0461414 0)
(1.32261 -0.0581434 0)
(1.3548 -0.0662603 0)
(1.37805 -0.0645446 0)
(1.3956 -0.0553788 0)
(1.41274 -0.0393626 0)
(1.43283 -0.0287077 0)
(1.45281 -0.0290666 0)
(1.47742 -0.0365307 0)
(1.50265 -0.0391845 0)
(1.52366 -0.0340832 0)
(1.54161 -0.023712 0)
(1.55399 -0.00876729 0)
(1.56573 0.00262307 0)
(1.58292 0.00309272 0)
(1.6018 -0.00665828 0)
(1.6268 -0.0187162 0)
(1.65082 -0.0230949 0)
(1.66943 -0.0216777 0)
(1.68726 -0.0166486 0)
(1.7009 -0.00657817 0)
(1.71474 0.00188941 0)
(1.73218 0.00354373 0)
(1.7507 0.000649026 0)
(1.77148 -0.00298657 0)
(1.78984 -0.00324 0)
(1.80708 0.000806651 0)
(1.81992 0.0101278 0)
(1.82824 0.0183332 0)
(1.84128 0.0194255 0)
(1.85785 0.0148403 0)
(1.87816 0.00696836 0)
(1.89721 0.00345613 0)
(1.9143 0.00445966 0)
(1.93041 0.0117051 0)
(1.94102 0.0241879 0)
(1.94646 0.034108 0)
(1.95595 0.0338778 0)
(1.97093 0.0285013 0)
(1.98858 0.0215858 0)
(2.00951 0.0145307 0)
(2.0264 0.01257 0)
(2.04263 0.0153141 0)
(2.05642 0.0243701 0)
(2.06479 0.035741 0)
(2.07026 0.0412495 0)
(2.07995 0.0374216 0)
(2.09311 0.0304994 0)
(2.10932 0.0241741 0)
(2.12557 0.0184381 0)
(2.14107 0.0179791 0)
(2.15521 0.0232882 0)
(2.16426 0.0338263 0)
(2.17526 0.0406249 0)
(1.61803 0.9732 0)
(1.89763 0.872981 0)
(2.11421 0.736039 0)
(2.33787 0.492193 0)
(2.47509 0.30472 0)
(2.54674 0.231313 0)
(2.59531 0.0693924 0)
(2.68007 -0.134237 0)
(2.70826 -0.280157 0)
(2.7408 -0.365352 0)
(2.78229 -0.443391 0)
(2.79771 -0.505964 0)
(2.76668 -0.494792 0)
(2.7474 -0.472855 0)
(2.72061 -0.438133 0)
(2.69515 -0.382107 0)
(2.68885 -0.353464 0)
(2.69615 -0.328653 0)
(2.66493 -0.243407 0)
(2.63661 -0.175474 0)
(2.58143 -0.118086 0)
(2.54638 -0.0664627 0)
(2.53936 -0.0395102 0)
(2.53659 -0.0425742 0)
(2.54524 -0.0307124 0)
(2.55058 -0.0166309 0)
(2.5245 -0.0576982 0)
(2.40984 -0.176198 0)
(1.31298 0.0556375 0)
(1.16016 0.0362006 0)
(1.2457 -0.0278286 0)
(1.30911 -0.0867279 0)
(1.33031 -0.101589 0)
(1.34123 -0.0976749 0)
(1.3452 -0.0843599 0)
(1.35242 -0.0689431 0)
(1.36861 -0.0629651 0)
(1.39393 -0.062603 0)
(1.42125 -0.0657894 0)
(1.43872 -0.0649649 0)
(1.4507 -0.0558739 0)
(1.45747 -0.0398153 0)
(1.46846 -0.0282273 0)
(1.48453 -0.0262471 0)
(1.50794 -0.0336133 0)
(1.53281 -0.0449184 0)
(1.54937 -0.048896 0)
(1.56358 -0.046325 0)
(1.57372 -0.0345517 0)
(1.58131 -0.0179246 0)
(1.5962 -0.00997613 0)
(1.61471 -0.00952886 0)
(1.63548 -0.0147173 0)
(1.65254 -0.0204066 0)
(1.66813 -0.0229685 0)
(1.68006 -0.0175753 0)
(1.68794 -0.00508545 0)
(1.70176 0.00340986 0)
(1.71903 0.00629522 0)
(1.73958 0.00339495 0)
(1.75709 -0.00243976 0)
(1.77256 -0.00761674 0)
(1.78666 -0.0090461 0)
(1.79883 -0.00292154 0)
(1.80893 0.00760787 0)
(1.82178 0.0150543 0)
(1.83828 0.0166903 0)
(1.8554 0.015163 0)
(1.87149 0.0119748 0)
(1.88561 0.0108607 0)
(1.89645 0.0152351 0)
(1.90365 0.0235951 0)
(1.91331 0.0291209 0)
(1.92811 0.029673 0)
(1.94402 0.0253646 0)
(1.96013 0.0180476 0)
(1.97451 0.012903 0)
(1.98678 0.0111068 0)
(1.9949 0.0157495 0)
(1.99981 0.0261051 0)
(2.00989 0.035512 0)
(2.02544 0.0401246 0)
(2.04062 0.0406165 0)
(2.05755 0.0367769 0)
(2.07375 0.0322063 0)
(2.08865 0.0298035 0)
(2.09976 0.0301561 0)
(2.10417 0.0348824 0)
(2.10658 0.0408234 0)
(2.11709 0.0445982 0)
(2.13219 0.0463126 0)
(2.14711 0.0456377 0)
(2.16312 0.042341 0)
(2.17783 0.0389282 0)
(2.18926 0.0386475 0)
(2.20058 0.0446168 0)
(1.56676 0.922808 0)
(1.79627 0.848253 0)
(1.98634 0.755734 0)
(2.16432 0.611482 0)
(2.32687 0.435033 0)
(2.43544 0.289616 0)
(2.50329 0.199778 0)
(2.52981 0.127405 0)
(2.59881 -0.0076099 0)
(2.66493 -0.146249 0)
(2.69535 -0.248954 0)
(2.72099 -0.299212 0)
(2.73832 -0.306549 0)
(2.71764 -0.345249 0)
(2.70073 -0.361023 0)
(2.70424 -0.374582 0)
(2.71969 -0.416037 0)
(2.73851 -0.437097 0)
(2.72672 -0.399119 0)
(2.69969 -0.331883 0)
(2.66055 -0.254411 0)
(2.62613 -0.185537 0)
(2.6035 -0.130734 0)
(2.5908 -0.125164 0)
(2.60858 -0.0654511 0)
(2.58518 -0.0862607 0)
(2.48451 -0.18967 0)
(2.2681 -0.557425 0)
(1.73753 -0.277341 0)
(1.36304 -0.0757687 0)
(1.38099 -0.0224007 0)
(1.44857 -0.0481034 0)
(1.48018 -0.0984909 0)
(1.49956 -0.110797 0)
(1.50476 -0.10132 0)
(1.50526 -0.0789866 0)
(1.51021 -0.0623916 0)
(1.52422 -0.0612263 0)
(1.54332 -0.0643516 0)
(1.56806 -0.0680264 0)
(1.58451 -0.066307 0)
(1.59587 -0.0588993 0)
(1.60132 -0.0463712 0)
(1.60844 -0.0386212 0)
(1.62287 -0.0388406 0)
(1.6405 -0.0428427 0)
(1.65979 -0.0469727 0)
(1.67324 -0.0469242 0)
(1.68455 -0.0424252 0)
(1.69141 -0.0310933 0)
(1.6969 -0.0198388 0)
(1.7112 -0.0160084 0)
(1.72804 -0.0160713 0)
(1.74462 -0.0171832 0)
(1.76009 -0.017495 0)
(1.77372 -0.0157357 0)
(1.78381 -0.00947335 0)
(1.7917 -0.00184714 0)
(1.80521 0.000495672 0)
(1.82108 -0.00089943 0)
(1.83577 -0.00351112 0)
(1.84947 -0.00478333 0)
(1.8632 -0.00353544 0)
(1.87616 0.000468086 0)
(1.8867 0.00778874 0)
(1.89491 0.0158702 0)
(1.90543 0.020017 0)
(1.91946 0.0211727 0)
(1.93439 0.0214239 0)
(1.94894 0.021614 0)
(1.96213 0.022904 0)
(1.97244 0.0273028 0)
(1.97986 0.0341784 0)
(1.98802 0.0385167 0)
(1.99921 0.0390116 0)
(2.01172 0.0370385 0)
(2.0243 0.0333951 0)
(2.03634 0.0293535 0)
(2.04725 0.0278745 0)
(2.05686 0.0324104 0)
(2.06527 0.0422826 0)
(2.07395 0.0507693 0)
(2.08576 0.0543802 0)
(2.09982 0.0545972 0)
(2.11415 0.05205 0)
(2.12727 0.0467917 0)
(2.13757 0.0404646 0)
(2.14466 0.0375979 0)
(2.15121 0.0419351 0)
(2.15962 0.0506459 0)
(2.16955 0.0582278 0)