/*--------------------------------*- C++ -*----------------------------------*\
  =========                 |
  \\      /  F ield         | OpenFOAM: The Open Source CFD Toolbox
   \\    /   O peration     | Website:  https://openfoam.org
    \\  /    A nd           | Version:  7
     \\/     M anipulation  |
\*---------------------------------------------------------------------------*/
FoamFile
{
    version     2.0;
    format      ascii;
    class       volScalarField;
    location    "2.8";
    object      T;
}
// * * * * * * * * * * * * * * * * * * * * * * * * * * * * * * * * * * * * * //

dimensions      [0 0 0 1 0 0 0];

internalField   nonuniform List<scalar> 
64512
(
1
1
1
1
1
1
1
1
1
1
1
1
1
1
1
1
1
1
1
1
1
1
1
1
1
1
1
1
1
1
1
1
1
1
1
1
1
1
1
1
1
1
1
1
1
1
1
1
1
2.03181
2.66844
2.70219
2.70738
2.71196
2.71493
2.71666
2.71748
2.71817
2.71945
2.7221
2.7267
2.73332
2.74122
2.74887
2.75474
2.75795
2.75885
2.75879
2.7588
2.75953
2.76215
2.76717
2.77356
2.77923
2.78267
2.78387
2.78431
2.7852
2.78724
2.79044
2.79403
2.79714
2.79932
2.80067
2.80151
2.80205
2.80246
2.80296
2.8038
2.80507
2.80703
2.8097
2.81295
2.81644
2.81886
2.81971
1
1
1
1
1
1
1
1
1
1
1
1
1
1
1
1
1
1
1
1
1
1
1
1
1
1
1
1
1
1
1
1
1
1
1
1
1
1
1
1
1
1
1
1
1
1
1
1
1
2.02487
2.66564
2.7022
2.70752
2.71221
2.71512
2.71671
2.71735
2.71793
2.71917
2.72187
2.72658
2.73329
2.74124
2.74893
2.75479
2.75796
2.75881
2.75874
2.75873
2.75944
2.76201
2.76701
2.77336
2.77903
2.7825
2.78374
2.78421
2.78511
2.78714
2.79032
2.79392
2.79702
2.79918
2.80049
2.80129
2.80182
2.80224
2.80277
2.80362
2.80487
2.8068
2.80947
2.81273
2.81624
2.81868
2.81954
1
1
1
1
1
1
1
1
1
1
1
1
1
1
1
1
1
1
1
1
1
1
1
1
1
1
1
1
1
1
1
1
1
1
1
1
1
1
1
1
1
1
1
1
1
1
1
1
1
2.00968
2.66152
2.7018
2.70747
2.71241
2.71531
2.7168
2.71721
2.71759
2.71869
2.72136
2.72614
2.73296
2.74105
2.74885
2.75475
2.7579
2.75869
2.75859
2.75857
2.75927
2.76179
2.76673
2.77304
2.77867
2.78215
2.78345
2.784
2.78494
2.78696
2.79013
2.79371
2.7968
2.79892
2.80019
2.80095
2.80146
2.8019
2.80245
2.8033
2.80453
2.80645
2.80912
2.81239
2.81593
2.81838
2.81926
1
1
1
1
1
1
1
1
1
1
1
1
1
1
1
1
1
1
1
1
1
1
1
1
1
1
1
1
1
1
1
1
1
1
1
1
1
1
1
1
1
1
1
1
1
1
1
1
1
1.98743
2.65538
2.70087
2.70725
2.71259
2.71558
2.71699
2.71715
2.71728
2.71814
2.72065
2.7254
2.73231
2.74057
2.74857
2.75456
2.75772
2.7585
2.75837
2.75831
2.75897
2.76139
2.76626
2.77253
2.77816
2.78168
2.78306
2.7837
2.78469
2.7867
2.78984
2.79338
2.79643
2.79852
2.79973
2.80045
2.80095
2.80141
2.80199
2.80284
2.80404
2.80595
2.80861
2.81189
2.81546
2.81792
2.81882
1
1
1
1
1
1
1
1
1
1
1
1
1
1
1
1
1
1
1
1
1
1
1
1
1
1
1
1
1
1
1
1
1
1
1
1
1
1
1
1
1
1
1
1
1
1
1
1
1
1.95939
2.64834
2.69956
2.70664
2.71246
2.71561
2.71707
2.71707
2.71697
2.71757
2.71982
2.72441
2.73137
2.73982
2.74804
2.75416
2.75737
2.75817
2.75801
2.75789
2.75849
2.76081
2.76557
2.77176
2.7774
2.78099
2.78249
2.78325
2.7843
2.78631
2.7894
2.79289
2.7959
2.79793
2.79911
2.7998
2.8003
2.80078
2.80139
2.80225
2.80342
2.80532
2.80799
2.81129
2.81489
2.81735
2.81827
1
1
1
1
1
1
1
1
1
1
1
1
1
1
1
1
1
1
1
1
1
1
1
1
1
1
1
1
1
1
1
1
1
1
1
1
1
1
1
1
1
1
1
1
1
1
1
1
1
1.92567
2.64089
2.69776
2.70556
2.71204
2.71544
2.71701
2.71694
2.71665
2.71704
2.71895
2.72331
2.73022
2.73879
2.74719
2.75343
2.75672
2.75756
2.7574
2.75725
2.75784
2.7601
2.76475
2.77085
2.77646
2.78012
2.78177
2.78266
2.78378
2.78578
2.7888
2.79222
2.79517
2.79718
2.79834
2.79903
2.79955
2.80006
2.80068
2.80152
2.80266
2.80455
2.80724
2.81056
2.81417
2.81664
2.81757
1
1
1
1
1
1
1
1
1
1
1
1
1
1
1
1
1
1
1
1
1
1
1
1
1
1
1
1
1
1
1
1
1
1
1
1
1
1
1
1
1
1
1
1
1
1
1
1
1
1.88441
2.63254
2.69543
2.70396
2.71124
2.71497
2.71673
2.71669
2.7163
2.7165
2.71806
2.7221
2.7289
2.73751
2.74604
2.7524
2.75575
2.75665
2.75653
2.75639
2.75702
2.75928
2.76383
2.76978
2.77529
2.77902
2.78083
2.78189
2.7831
2.78512
2.78806
2.79138
2.79425
2.79622
2.79739
2.7981
2.79864
2.79917
2.7998
2.80061
2.80173
2.80363
2.80634
2.8097
2.81335
2.81583
2.81677
1
1
1
1
1
1
1
1
1
1
1
1
1
1
1
1
1
1
1
1
1
1
1
1
1
1
1
1
1
1
1
1
1
1
1
1
1
1
1
1
1
1
1
1
1
1
1
1
1
1.83346
2.62213
2.69202
2.70168
2.71004
2.71418
2.71615
2.71625
2.71586
2.71592
2.71717
2.72086
2.72748
2.73606
2.74464
2.75105
2.75442
2.75539
2.75533
2.75525
2.75599
2.75834
2.76279
2.76853
2.77388
2.77763
2.77961
2.78085
2.78219
2.78423
2.7871
2.79031
2.79312
2.79509
2.79629
2.79705
2.79764
2.79819
2.79881
2.79958
2.80066
2.80254
2.80527
2.80868
2.81236
2.81486
2.81581
1
1
1
1
1
1
1
1
1
1
1
1
1
1
1
1
1
1
1
1
1
1
1
1
1
1
1
1
1
1
1
1
1
1
1
1
1
1
1
1
1
1
1
1
1
1
1
1
1
1.77132
2.60872
2.68705
2.69861
2.70837
2.71299
2.71522
2.71562
2.71527
2.71525
2.71627
2.71965
2.72598
2.73439
2.74291
2.7493
2.75268
2.75375
2.75379
2.75384
2.75478
2.75728
2.76165
2.76715
2.77229
2.77602
2.77817
2.77961
2.78111
2.78321
2.78601
2.7891
2.7918
2.79372
2.79493
2.79574
2.79638
2.79697
2.79758
2.79831
2.79937
2.80125
2.80401
2.80748
2.81121
2.81373
2.81469
1
1
1
1
1
1
1
1
1
1
1
1
1
1
1
1
1
1
1
1
1
1
1
1
1
1
1
1
1
1
1
1
1
1
1
1
1
1
1
1
1
1
1
1
1
1
1
1
1
1.69838
2.59203
2.68143
2.69485
2.70585
2.71122
2.71391
2.71469
2.71448
2.71447
2.71539
2.71849
2.72443
2.73249
2.74079
2.74716
2.75055
2.75175
2.75198
2.75223
2.75344
2.7561
2.76039
2.76562
2.7705
2.77417
2.77646
2.7781
2.77977
2.78195
2.7847
2.78767
2.79027
2.79216
2.79341
2.79427
2.79497
2.79559
2.7962
2.79691
2.79792
2.7998
2.80259
2.8061
2.80989
2.81243
2.81342
1
1
1
1
1
1
1
1
1
1
1
1
1
1
1
1
1
1
1
1
1
1
1
1
1
1
1
1
1
1
1
1
1
1
1
1
1
1
1
1
1
1
1
1
1
1
1
1
1
1.61489
2.57142
2.67734
2.6909
2.70224
2.70854
2.71205
2.71337
2.71349
2.71363
2.71459
2.71745
2.72289
2.7304
2.73833
2.74465
2.74812
2.7495
2.74998
2.75049
2.75196
2.75478
2.75898
2.76394
2.76855
2.77212
2.77452
2.77637
2.77823
2.7805
2.78322
2.78607
2.78856
2.7904
2.79167
2.79258
2.79334
2.794
2.79463
2.79532
2.79631
2.79817
2.80097
2.80451
2.80836
2.81096
2.812
1
1
1
1
1
1
1
1
1
1
1
1
1
1
1
1
1
1
1
1
1
1
1
1
1
1
1
1
1
1
1
1
1
1
1
1
1
1
1
1
1
1
1
1
1
1
1
1
1
1.52076
2.54493
2.67609
2.6874
2.69793
2.70478
2.70917
2.71133
2.71212
2.71264
2.71376
2.71642
2.7213
2.72812
2.73555
2.74179
2.74545
2.74707
2.74782
2.74859
2.7503
2.75325
2.75737
2.76208
2.76641
2.76987
2.77234
2.77437
2.77643
2.7788
2.7815
2.78424
2.78663
2.78844
2.78972
2.79069
2.7915
2.79221
2.79286
2.79355
2.79452
2.79637
2.79915
2.8027
2.80661
2.8093
2.8104
1
1
1
1
1
1
1
1
1
1
1
1
1
1
1
1
1
1
1
1
1
1
1
1
1
1
1
1
1
1
1
1
1
1
1
1
1
1
1
1
1
1
1
1
1
1
1
1
1
1.42032
2.51145
2.67777
2.68457
2.69322
2.69992
2.70518
2.70838
2.71014
2.71128
2.71271
2.71528
2.71965
2.72574
2.7326
2.73868
2.74257
2.74446
2.74551
2.74655
2.74845
2.75153
2.75559
2.76007
2.76413
2.76744
2.76994
2.77213
2.77436
2.77686
2.77955
2.78221
2.7845
2.78627
2.78757
2.78858
2.78943
2.79018
2.79086
2.79157
2.79254
2.79435
2.7971
2.80065
2.80463
2.80741
2.8086
1
1
1
1
1
1
1
1
1
1
1
1
1
1
1
1
1
1
1
1
1
1
1
1
1
1
1
1
1
1
1
1
1
1
1
1
1
1
1
1
1
1
1
1
1
1
1
1
1
1.30987
2.46578
2.67969
2.68248
2.68909
2.69501
2.70061
2.70475
2.70752
2.70945
2.71133
2.71398
2.71796
2.72337
2.72957
2.73535
2.73941
2.74162
2.74302
2.74435
2.74644
2.74964
2.75362
2.75789
2.76169
2.76485
2.76736
2.76968
2.77207
2.77467
2.77736
2.77994
2.78215
2.78388
2.7852
2.78624
2.78713
2.78791
2.78863
2.78937
2.79034
2.79213
2.79483
2.79836
2.80239
2.80526
2.80652
1
1
1
1
1
1
1
1
1
1
1
1
1
1
1
1
1
1
1
1
1
1
1
1
1
1
1
1
1
1
1
1
1
1
1
1
1
1
1
1
1
1
1
1
1
1
1
1
1
1.19803
2.41033
2.67966
2.68122
2.68624
2.69121
2.69651
2.70108
2.70462
2.70731
2.70972
2.71254
2.71628
2.72109
2.72659
2.73195
2.73608
2.73861
2.74036
2.742
2.74424
2.7475
2.75141
2.75552
2.75912
2.76214
2.76464
2.76703
2.76953
2.7722
2.7749
2.77742
2.77958
2.78129
2.78262
2.78369
2.78458
2.78538
2.78613
2.7869
2.78789
2.78966
2.79232
2.79583
2.79988
2.80284
2.80416
1
1
1
1
1
1
1
1
1
1
1
1
1
1
1
1
1
1
1
1
1
1
1
1
1
1
1
1
1
1
1
1
1
1
1
1
1
1
1
1
1
1
1
1
1
1
1
1
1
1.0835
2.34884
2.68151
2.68276
2.68606
2.69003
2.69448
2.69865
2.70222
2.70524
2.70803
2.71103
2.71464
2.71901
2.72388
2.72872
2.73274
2.73546
2.7375
2.73942
2.7418
2.74512
2.74897
2.75296
2.75641
2.7593
2.76175
2.76416
2.76673
2.76946
2.77218
2.77468
2.7768
2.7785
2.77983
2.78089
2.78178
2.78257
2.78335
2.78415
2.78517
2.78693
2.78955
2.79302
2.79708
2.80008
2.80142
1
1
1
1
1
1
1
1
1
1
1
1
1
1
1
1
1
1
1
1
1
1
1
1
1
1
1
1
1
1
1
1
1
1
1
1
1
1
1
1
1
1
1
1
1
1
1
1
1
1.00347
2.28279
2.68253
2.68275
2.68534
2.68923
2.69338
2.69724
2.70066
2.70372
2.70663
2.70969
2.7132
2.7172
2.72152
2.72581
2.72956
2.73233
2.73456
2.7367
2.73919
2.7425
2.74627
2.75014
2.75348
2.75628
2.7587
2.76112
2.76372
2.76648
2.76919
2.77167
2.77377
2.77545
2.77678
2.77783
2.77871
2.77949
2.78027
2.7811
2.78214
2.78389
2.78648
2.78993
2.79397
2.79701
2.79834
1
1
1
1
1
1
1
1
1
1
1
1
1
1
1
1
1
1
1
1
1
1
1
1
1
1
1
1
1
1
1
1
1
1
1
1
1
1
1
1
1
1
1
1
1
1
1
1
1
1.00002
2.19836
2.6793
2.68283
2.68609
2.69018
2.69411
2.69764
2.70073
2.70347
2.70613
2.70897
2.71226
2.71599
2.71984
2.7236
2.72694
2.72956
2.73177
2.73398
2.73647
2.73969
2.74332
2.74707
2.75036
2.7531
2.7555
2.75789
2.76046
2.7632
2.76591
2.76838
2.77048
2.77216
2.77348
2.77451
2.77536
2.77611
2.77689
2.77773
2.77878
2.78053
2.78308
2.78648
2.79049
2.79352
2.79482
1
1
1
1
1
1
1
1
1
1
1
1
1
1
1
1
1
1
1
1
1
1
1
1
1
1
1
1
1
1
1
1
1
1
1
1
1
1
1
1
1
1
1
1
1
1
1
1
1
1
2.08699
2.66664
2.68241
2.68627
2.69053
2.69443
2.69794
2.70096
2.70363
2.70623
2.70896
2.71198
2.71534
2.71876
2.72203
2.72492
2.72728
2.72931
2.73145
2.73385
2.73685
2.74028
2.74385
2.74707
2.74975
2.75211
2.75443
2.75694
2.75965
2.76236
2.76483
2.76691
2.76857
2.76986
2.77087
2.77168
2.77241
2.77316
2.77399
2.77504
2.77677
2.77929
2.78265
2.78662
2.78963
2.79088
1
1
1
1
1
1
1
1
1
1
1
1
1
1
1
1
1
1
1
1
1
1
1
1
1
1
1
1
1
1
1
1
1
1
1
1
1
1
1
1
1
1
1
1
1
1
1
1
1
1
1.95049
2.63979
2.67822
2.68438
2.68943
2.69349
2.69698
2.70001
2.7028
2.70558
2.70846
2.71152
2.71483
2.71808
2.72105
2.72362
2.72566
2.72743
2.7293
2.73145
2.73412
2.73725
2.74056
2.74367
2.74629
2.74858
2.7508
2.75322
2.75585
2.75851
2.76095
2.76301
2.76463
2.76589
2.76687
2.76767
2.76837
2.76909
2.7699
2.77091
2.77261
2.77508
2.77837
2.78227
2.78522
2.78637
1
1
1
1
1
1
1
1
1
1
1
1
1
1
1
1
1
1
1
1
1
1
1
1
1
1
1
1
1
1
1
1
1
1
1
1
1
1
1
1
1
1
1
1
1
1
1
1
1
1
1.79433
2.59999
2.67037
2.67939
2.68537
2.68982
2.69369
2.6972
2.70058
2.70396
2.70725
2.71045
2.71373
2.71696
2.71984
2.72227
2.72423
2.72582
2.72749
2.72941
2.73164
2.73438
2.73736
2.7403
2.7428
2.74497
2.74704
2.74929
2.75178
2.75436
2.75675
2.75876
2.76033
2.76155
2.7625
2.76328
2.76394
2.7646
2.76534
2.76629
2.76793
2.77032
2.77354
2.77738
2.78027
2.78134
1
1
1
1
1
1
1
1
1
1
1
1
1
1
1
1
1
1
1
1
1
1
1
1
1
1
1
1
1
1
1
1
1
1
1
1
1
1
1
1
1
1
1
1
1
1
1
1
1
1
1.62248
2.54782
2.66058
2.67056
2.67709
2.68182
2.68638
2.69098
2.69562
2.70009
2.70435
2.70835
2.71198
2.71526
2.71814
2.7206
2.72257
2.72417
2.72567
2.72745
2.72946
2.73178
2.73434
2.73697
2.73933
2.74133
2.74319
2.74522
2.7475
2.74992
2.75221
2.75414
2.75564
2.7568
2.75772
2.75846
2.75908
2.75968
2.76037
2.76124
2.76275
2.765
2.7681
2.77182
2.7746
2.77556
1
1
1
1
1
1
1
1
1
1
1
1
1
1
1
1
1
1
1
1
1
1
1
1
1
1
1
1
1
1
1
1
1
1
1
1
1
1
1
1
1
1
1
1
1
1
1
1
1
1
1.41236
2.473
2.65525
2.65929
2.66614
2.67179
2.67736
2.68282
2.68829
2.6936
2.69888
2.70386
2.70831
2.71218
2.71544
2.7182
2.72045
2.72223
2.72378
2.72542
2.72727
2.72929
2.73146
2.73378
2.73589
2.73769
2.7393
2.74103
2.74302
2.74519
2.74731
2.74913
2.75054
2.75164
2.75252
2.75322
2.75375
2.75425
2.75481
2.75556
2.75685
2.75889
2.76189
2.76551
2.7682
2.76909
1
1
1
1
1
1
1
1
1
1
1
1
1
1
1
1
1
1
1
1
1
1
1
1
1
1
1
1
1
1
1
1
1
1
1
1
1
1
1
1
1
1
1
1
1
1
1
1
1
1
1.17408
2.38901
2.65771
2.65344
2.65715
2.66217
2.66769
2.67329
2.67919
2.68532
2.69141
2.69718
2.70245
2.70708
2.71103
2.71442
2.71729
2.71959
2.72145
2.72321
2.72502
2.72683
2.72866
2.73056
2.73248
2.73407
2.73539
2.73677
2.73838
2.74021
2.74208
2.74373
2.74503
2.74604
2.74686
2.74749
2.7479
2.74826
2.74868
2.7493
2.75033
2.75202
2.75481
2.75823
2.76076
2.76152
1
1
1
1
1
1
1
1
1
1
1
1
1
1
1
1
1
1
1
1
1
1
1
1
1
1
1
1
1
1
1
1
1
1
1
1
1
1
1
1
1
1
1
1
1
1
1
1
1
1
1.00868
2.32034
2.66016
2.65306
2.65581
2.65893
2.66262
2.66667
2.67144
2.67712
2.68316
2.68911
2.69482
2.70012
2.70484
2.70899
2.71264
2.71572
2.71819
2.72031
2.72228
2.7241
2.72581
2.72748
2.72908
2.73047
2.73152
2.73249
2.73363
2.73502
2.73654
2.73795
2.73911
2.74005
2.74077
2.74123
2.74147
2.74162
2.7418
2.74214
2.74278
2.74407
2.74655
2.74979
2.75222
2.75298
1
1
1
1
1
1
1
1
1
1
1
1
1
1
1
1
1
1
1
1
1
1
1
1
1
1
1
1
1
1
1
1
1
1
1
1
1
1
1
1
1
1
1
1
1
1
1
1
1
1
1.00003
2.20631
2.65962
2.65768
2.65844
2.65986
2.66236
2.66533
2.66858
2.6722
2.67644
2.68145
2.68684
2.69222
2.69738
2.70216
2.70653
2.71042
2.71365
2.71632
2.71863
2.72065
2.72245
2.72412
2.72566
2.72688
2.72766
2.72821
2.72884
2.72971
2.73078
2.73187
2.73284
2.73364
2.73415
2.73437
2.73435
2.73423
2.73411
2.73413
2.73437
2.7352
2.73712
2.73988
2.74201
2.74257
1
1
1
1
1
1
1
1
1
1
1
1
1
1
1
1
1
1
1
1
1
1
1
1
1
1
1
1
1
1
1
1
1
1
1
1
1
1
1
1
1
1
1
1
1
1
1
1
1
1
1
2.06134
2.65897
2.66024
2.66153
2.6633
2.66479
2.66667
2.66877
2.67116
2.67382
2.67674
2.68054
2.68501
2.68983
2.69469
2.69939
2.70383
2.70772
2.71099
2.71376
2.71614
2.71825
2.72016
2.72183
2.72309
2.72372
2.72391
2.72405
2.72438
2.72492
2.72559
2.72627
2.72677
2.72698
2.72689
2.72655
2.72605
2.72547
2.72488
2.7245
2.7246
2.72572
2.72797
2.72994
2.73057
1
1
1
1
1
1
1
1
1
1
1
1
1
1
1
1
1
1
1
1
1
1
1
1
1
1
1
1
1
1
1
1
1
1
1
1
1
1
1
1
1
1
1
1
1
1
1
1
1
1
1
1.87481
2.62021
2.66272
2.66331
2.66513
2.66691
2.66819
2.6695
2.67097
2.67256
2.67448
2.67696
2.68
2.68352
2.68767
2.69208
2.69654
2.70071
2.7044
2.70756
2.71036
2.71291
2.71524
2.71726
2.71875
2.71944
2.71942
2.71924
2.71909
2.71905
2.71916
2.71937
2.71946
2.71928
2.71879
2.71799
2.71695
2.71572
2.71437
2.71317
2.71254
2.71283
2.71397
2.71495
2.71476
1
1
1
1
1
1
1
1
1
1
1
1
1
1
1
1
1
1
1
1
1
1
1
1
1
1
1
1
1
1
1
1
1
1
1
1
1
1
1
1
1
1
1
1
1
1
1
1
1
1
1
1.64008
2.53212
2.65169
2.65699
2.66177
2.66552
2.66834
2.67012
2.67135
2.67261
2.67391
2.67531
2.67705
2.67945
2.68239
2.68576
2.68954
2.69338
2.69702
2.70032
2.7034
2.70638
2.70919
2.7117
2.71361
2.71457
2.71463
2.71431
2.71374
2.71311
2.71264
2.71228
2.71182
2.71111
2.71006
2.70865
2.7069
2.70485
2.70246
2.69989
2.69756
2.69612
2.69583
2.69577
2.69573
1
1
1
1
1
1
1
1
1
1
1
1
1
1
1
1
1
1
1
1
1
1
1
1
1
1
1
1
1
1
1
1
1
1
1
1
1
1
1
1
1
1
1
1
1
1
1
1
1
1
1
1.32622
2.40887
2.64369
2.64518
2.65226
2.65827
2.66322
2.66701
2.66976
2.67183
2.67334
2.6746
2.67576
2.67706
2.67879
2.68114
2.68377
2.68665
2.68963
2.69262
2.69567
2.69881
2.70198
2.70497
2.70741
2.70889
2.70926
2.70894
2.70813
2.70706
2.70599
2.70497
2.70386
2.70247
2.70072
2.69852
2.69584
2.69263
2.68881
2.6845
2.68032
2.677
2.67454
2.67103
2.66652
1
1
1
1
1
1
1
1
1
1
1
1
1
1
1
1
1
1
1
1
1
1
1
1
1
1
1
1
1
1
1
1
1
1
1
1
1
1
1
1
1
1
1
1
1
1
1
1
1
1
1
1.03217
2.30492
2.64006
2.63595
2.63952
2.64549
2.65299
2.6595
2.6645
2.66828
2.67099
2.67292
2.67431
2.67546
2.67666
2.67807
2.67967
2.68139
2.68328
2.68543
2.68796
2.69085
2.69398
2.69721
2.70013
2.70222
2.70311
2.70293
2.70214
2.7008
2.69917
2.69746
2.69562
2.69345
2.69085
2.68766
2.68378
2.67913
2.67359
2.66708
2.65984
2.65178
2.64263
2.63298
2.62481
1
1
1
1
1
1
1
1
1
1
1
1
1
1
1
1
1
1
1
1
1
1
1
1
1
1
1
1
1
1
1
1
1
1
1
1
1
1
1
1
1
1
1
1
1
1
1
1
1
1
1
1.00022
2.18932
2.62761
2.6257
2.63119
2.63698
2.64312
2.64968
2.65585
2.66129
2.66567
2.66893
2.67129
2.673
2.67436
2.67562
2.6767
2.67754
2.67832
2.67937
2.68094
2.68316
2.68572
2.68876
2.69186
2.69443
2.69594
2.69614
2.6955
2.69404
2.69201
2.68965
2.68705
2.68404
2.68047
2.67611
2.67078
2.66435
2.65656
2.64695
2.6353
2.6216
2.60577
2.59048
2.58438
1
1
1
1
1
1
1
1
1
1
1
1
1
1
1
1
1
1
1
1
1
1
1
1
1
1
1
1
1
1
1
1
1
1
1
1
1
1
1
1
1
1
1
1
1
1
1
1
1
1
1
0.999998
2.0078
2.61729
2.63082
2.63405
2.63581
2.63805
2.64207
2.64716
2.65271
2.6579
2.66229
2.66589
2.66872
2.6709
2.67263
2.67389
2.67447
2.67451
2.67462
2.67519
2.67641
2.67804
2.68035
2.68306
2.68573
2.68771
2.68844
2.68799
2.68661
2.68437
2.68149
2.67817
2.6743
2.66968
2.66401
2.65702
2.64846
2.63801
2.62497
2.60857
2.58643
2.55283
2.48999
2.35229
1
1
1
1
1
1
1
1
1
1
1
1
1
1
1
1
1
1
1
1
1
1
1
1
1
1
1
1
1
1
1
1
1
1
1
1
1
1
1
1
1
1
1
1
1
1
1
1
1
1
1
1
1.76162
2.56166
2.63447
2.63403
2.63572
2.6379
2.63942
2.64198
2.64574
2.65006
2.6544
2.65851
2.66225
2.66545
2.66812
2.67009
2.67106
2.67101
2.67068
2.67053
2.6708
2.67142
2.6726
2.67438
2.67655
2.67859
2.6797
2.67949
2.67832
2.67604
2.6728
2.66887
2.66417
2.65848
2.65142
2.64266
2.63178
2.61836
2.60133
2.57851
2.54578
2.49281
2.41325
2.20232
1
1
1
1
1
1
1
1
1
1
1
1
1
1
1
1
1
1
1
1
1
1
1
1
1
1
1
1
1
1
1
1
1
1
1
1
1
1
1
1
1
1
1
1
1
1
1
1
1
1
1
1
1.42456
2.4407
2.63183
2.63027
2.63276
2.63533
2.63741
2.63951
2.64177
2.64442
2.64748
2.65092
2.65462
2.65833
2.66182
2.66471
2.66658
2.66714
2.66688
2.66642
2.6661
2.66589
2.66595
2.66647
2.66758
2.66902
2.67007
2.67004
2.6691
2.66689
2.66347
2.65906
2.65364
2.64695
2.63852
2.62795
2.61469
2.5982
2.57702
2.54873
2.50726
2.45
2.33017
2.12666
1
1
1
1
1
1
1
1
1
1
1
1
1
1
1
1
1
1
1
1
1
1
1
1
1
1
1
1
1
1
1
1
1
1
1
1
1
1
1
1
1
1
1
1
1
1
1
1
1
1
1
1
1.05422
2.31115
2.62738
2.623
2.62479
2.62883
2.63339
2.63636
2.63863
2.64053
2.64243
2.64466
2.64745
2.65074
2.65435
2.65779
2.6605
2.66206
2.66237
2.66211
2.66161
2.66097
2.66016
2.65949
2.6593
2.65959
2.66001
2.6599
2.659
2.65688
2.65339
2.64865
2.64263
2.63505
2.62537
2.61314
2.59762
2.5783
2.55331
2.52062
2.47371
2.40453
2.27943
2.09459
1
1
1
1
1
1
1
1
1
1
1
1
1
1
1
1
1
1
1
1
1
1
1
1
1
1
1
1
1
1
1
1
1
1
1
1
1
1
1
1
1
1
1
1
1
1
1
1
1
1
1
1
1.00067
2.18142
2.60612
2.60815
2.6144
2.62073
2.62691
2.63138
2.63466
2.63688
2.63847
2.63991
2.64165
2.64393
2.64686
2.65013
2.65309
2.65545
2.65672
2.657
2.65676
2.65611
2.65496
2.65344
2.65197
2.65089
2.65019
2.64948
2.64826
2.64604
2.6425
2.63754
2.63105
2.62276
2.61206
2.59843
2.58103
2.55922
2.53123
2.49435
2.44431
2.36925
2.25404
2.10494
1
1
1
1
1
1
1
1
1
1
1
1
1
1
1
1
1
1
1
1
1
1
1
1
1
1
1
1
1
1
1
1
1
1
1
1
1
1
1
1
1
1
1
1
1
1
1
1
1
1
1
1
0.999994
1.96671
2.5831
2.60969
2.61427
2.61794
2.62148
2.62556
2.62944
2.63241
2.63445
2.63584
2.63703
2.63839
2.64027
2.64281
2.64526
2.64773
2.64968
2.65075
2.65099
2.65066
2.64961
2.64774
2.64537
2.64303
2.64102
2.63927
2.63735
2.63475
2.63098
2.62579
2.6189
2.61006
2.59861
2.58393
2.56515
2.54141
2.51124
2.47177
2.41941
2.34518
2.24513
2.12097
1
1
1
1
1
1
1
1
1
1
1
1
1
1
1
1
1
1
1
1
1
1
1
1
1
1
1
1
1
1
1
1
1
1
1
1
1
1
1
1
1
1
1
1
1
1
1
1
1
1
1
1
0.999999
1.64614
2.50313
2.60893
2.61185
2.6133
2.61581
2.61945
2.62327
2.62678
2.62957
2.63153
2.63282
2.63378
2.63487
2.63645
2.63801
2.63987
2.64174
2.64328
2.64414
2.64421
2.64359
2.64191
2.6392
2.63599
2.63277
2.62978
2.62679
2.62341
2.6191
2.6135
2.60622
2.59692
2.58498
2.56964
2.55003
2.52509
2.49354
2.45317
2.39979
2.3308
2.24269
2.13648
1
1
1
1
1
1
1
1
1
1
1
1
1
1
1
1
1
1
1
1
1
1
1
1
1
1
1
1
1
1
1
1
1
1
1
1
1
1
1
1
1
1
1
1
1
1
1
1
1
1
1
1
1
1.23842
2.37467
2.60579
2.60179
2.60407
2.60856
2.61263
2.6164
2.62011
2.62348
2.62618
2.62803
2.62917
2.63
2.63091
2.63165
2.63263
2.6338
2.63514
2.63629
2.63683
2.63658
2.63536
2.63284
2.62928
2.62522
2.6211
2.61692
2.61249
2.60733
2.60107
2.59326
2.58351
2.5712
2.55556
2.53561
2.51021
2.47817
2.43788
2.38588
2.32201
2.24468
2.15434
1
1
1
1
1
1
1
1
1
1
1
1
1
1
1
1
1
1
1
1
1
1
1
1
1
1
1
1
1
1
1
1
1
1
1
1
1
1
1
1
1
1
1
1
1
1
1
1
1
1
1
1
1
1.01492
2.25252
2.59483
2.59209
2.59618
2.60094
2.60529
2.60908
2.6128
2.61641
2.61966
2.62222
2.62391
2.62499
2.62571
2.62604
2.62631
2.62659
2.62715
2.62795
2.62859
2.6286
2.62787
2.62582
2.62244
2.61806
2.61317
2.60793
2.60237
2.59611
2.58891
2.58035
2.57002
2.55734
2.54157
2.5217
2.49647
2.46493
2.42511
2.3761
2.31839
2.2488
2.17076
1
1
1
1
1
1
1
1
1
1
1
1
1
1
1
1
1
1
1
1
1
1
1
1
1
1
1
1
1
1
1
1
1
1
1
1
1
1
1
1
1
1
1
1
1
1
1
1
1
1
1
1
1
1.00003
2.03331
2.57137
2.58875
2.59381
2.59724
2.59975
2.60254
2.6057
2.60907
2.61239
2.61531
2.61759
2.61921
2.62022
2.62057
2.62047
2.62015
2.61986
2.61988
2.62005
2.62004
2.61954
2.61796
2.61503
2.61079
2.60556
2.59959
2.59303
2.58571
2.57746
2.56794
2.55687
2.54371
2.5278
2.50823
2.48366
2.45325
2.41443
2.36971
2.31706
2.2529
2.18578
1
1
1
1
1
1
1
1
1
1
1
1
1
1
1
1
1
1
1
1
1
1
1
1
1
1
1
1
1
1
1
1
1
1
1
1
1
1
1
1
1
1
1
1
1
1
1
1
1
1
1
1
1
1
1.69471
2.50419
2.58962
2.59146
2.59252
2.59448
2.59692
2.59949
2.60229
2.60515
2.60793
2.61041
2.61244
2.61393
2.61469
2.61463
2.61416
2.61333
2.61247
2.61184
2.61135
2.61066
2.60927
2.60677
2.60293
2.5978
2.59156
2.58436
2.57619
2.56699
2.55645
2.54447
2.53064
2.51445
2.49511
2.4714
2.44241
2.40593
2.36485
2.31584
2.25781
2.19953
1
1
1
1
1
1
1
1
1
1
1
1
1
1
1
1
1
1
1
1
1
1
1
1
1
1
1
1
1
1
1
1
1
1
1
1
1
1
1
1
1
1
1
1
1
1
1
1
1
1
1
1
1
1
1.25451
2.37298
2.58648
2.58176
2.58378
2.58787
2.59109
2.59361
2.59599
2.59826
2.60058
2.60281
2.60491
2.60672
2.60801
2.60839
2.60806
2.60711
2.60572
2.60428
2.60302
2.60178
2.6002
2.59787
2.59439
2.58959
2.58345
2.57602
2.56733
2.55738
2.54604
2.53319
2.51856
2.50187
2.4826
2.45964
2.4322
2.39863
2.36038
2.31495
2.26312
2.21109
1
1
1
1
1
1
1
1
1
1
1
1
1
1
1
1
1
1
1
1
1
1
1
1
1
1
1
1
1
1
1
1
1
1
1
1
1
1
1
1
1
1
1
1
1
1
1
1
1
1
1
1
1
1
1.01648
2.24125
2.57374
2.57128
2.57578
2.58078
2.58473
2.5876
2.58993
2.59179
2.59363
2.59539
2.59718
2.59891
2.60048
2.6014
2.60137
2.60068
2.59922
2.59728
2.59526
2.5933
2.59118
2.58862
2.58523
2.58071
2.57486
2.56757
2.55881
2.54849
2.5366
2.52311
2.50782
2.4905
2.471
2.44848
2.42235
2.39141
2.35642
2.31413
2.26853
2.22095
1
1
1
1
1
1
1
1
1
1
1
1
1
1
1
1
1
1
1
1
1
1
1
1
1
1
1
1
1
1
1
1
1
1
1
1
1
1
1
1
1
1
1
1
1
1
1
1
1
1
1
1
1
1
1.00003
1.99111
2.54337
2.56695
2.573
2.57678
2.57961
2.58183
2.58384
2.5855
2.587
2.58832
2.58966
2.59102
2.59247
2.59367
2.59411
2.59372
2.5925
2.59049
2.588
2.58537
2.58258
2.57951
2.57589
2.57142
2.5658
2.5588
2.55025
2.53998
2.52793
2.51407
2.49835
2.48064
2.46072
2.43833
2.41306
2.38451
2.35263
2.31327
2.27296
2.22807
1
1
1
1
1
1
1
1
1
1
1
1
1
1
1
1
1
1
1
1
1
1
1
1
1
1
1
1
1
1
1
1
1
1
1
1
1
1
1
1
1
1
1
1
1
1
1
1
1
1
1
1
1
1
1
1.58184
2.45656
2.56991
2.57076
2.57232
2.57442
2.57622
2.57786
2.57932
2.58062
2.58166
2.58259
2.58348
2.5845
2.58555
2.58624
2.58608
2.5852
2.58343
2.58086
2.57783
2.57448
2.57081
2.5667
2.56198
2.55637
2.54958
2.54134
2.53139
2.51957
2.50578
2.48997
2.47204
2.45218
2.42976
2.40474
2.37814
2.34799
2.31176
2.27578
2.23387
1
1
1
1
1
1
1
1
1
1
1
1
1
1
1
1
1
1
1
1
1
1
1
1
1
1
1
1
1
1
1
1
1
1
1
1
1
1
1
1
1
1
1
1
1
1
1
1
1
1
1
1
1
1
1
1.09361
2.3102
2.57074
2.56429
2.56533
2.56779
2.56988
2.57153
2.57297
2.57422
2.57514
2.57584
2.57635
2.57687
2.5775
2.57805
2.57799
2.57737
2.57592
2.57355
2.57042
2.56674
2.56259
2.55797
2.55282
2.54697
2.54018
2.53214
2.52254
2.51116
2.4978
2.48231
2.46454
2.445
2.42243
2.39785
2.37263
2.34302
2.31013
2.27735
2.23878
1
1
1
1
1
1
1
1
1
1
1
1
1
1
1
1
1
1
1
1
1
1
1
1
1
1
1
1
1
1
1
1
1
1
1
1
1
1
1
1
1
1
1
1
1
1
1
1
1
1
1
1
1
1
1
1.00208
2.13742
2.54311
2.54923
2.55683
2.56145
2.56331
2.56508
2.56655
2.56781
2.56873
2.56931
2.56957
2.56967
2.56976
2.56988
2.56972
2.56913
2.56788
2.56576
2.56278
2.55905
2.55467
2.54968
2.54411
2.53788
2.53086
2.52279
2.51342
2.50247
2.4897
2.47487
2.45764
2.4387
2.41616
2.3926
2.36824
2.3389
2.30896
2.27818
2.24314
1
1
1
1
1
1
1
1
1
1
1
1
1
1
1
1
1
1
1
1
1
1
1
1
1
1
1
1
1
1
1
1
1
1
1
1
1
1
1
1
1
1
1
1
1
1
1
1
1
1
1
1
1
1
1
0.999986
1.7822
2.48853
2.546
2.55172
2.55424
2.55665
2.5587
2.56028
2.5616
2.56254
2.56306
2.5631
2.5629
2.56253
2.56213
2.56161
2.56083
2.55957
2.55762
2.55486
2.55125
2.54687
2.54174
2.5359
2.52931
2.52195
2.51366
2.50428
2.49359
2.48134
2.46726
2.45091
2.43261
2.41092
2.38884
2.36436
2.3358
2.3088
2.27921
2.24666
1
1
1
1
1
1
1
1
1
1
1
1
1
1
1
1
1
1
1
1
1
1
1
1
1
1
1
1
1
1
1
1
1
1
1
1
1
1
1
1
1
1
1
1
1
1
1
1
1
1
1
1
1
1
1
0.999996
1.27822
2.36261
2.54679
2.54213
2.54413
2.54753
2.55053
2.55287
2.5547
2.55596
2.55662
2.5566
2.55626
2.5556
2.55475
2.55378
2.55265
2.55121
2.54924
2.5466
2.54318
2.53894
2.53388
2.52798
2.5212
2.51356
2.50498
2.49543
2.4848
2.47284
2.45942
2.4439
2.42643
2.40638
2.38539
2.36081
2.3346
2.30914
2.28019
2.24952
1
1
1
1
1
1
1
1
1
1
1
1
1
1
1
1
1
1
1
1
1
1
1
1
1
1
1
1
1
1
1
1
1
1
1
1
1
1
1
1
1
1
1
1
1
1
1
1
1
1
1
1
1
1
1
0.999999
1.01859
2.21579
2.53177
2.53016
2.53328
2.53754
2.54116
2.54433
2.54685
2.54869
2.54979
2.54999
2.54966
2.5489
2.54776
2.54639
2.54484
2.54308
2.54095
2.53829
2.53498
2.53091
2.526
2.52019
2.5134
2.50562
2.49686
2.48711
2.4764
2.46447
2.45143
2.43661
2.4202
2.40163
2.38148
2.35821
2.33454
2.30925
2.28089
2.25219
1
1
1
1
1
1
1
1
1
1
1
1
1
1
1
1
1
1
1
1
1
1
1
1
1
1
1
1
1
1
1
1
1
1
1
1
1
1
1
1
1
1
1
1
1
1
1
1
1
1
1
1
1
1
1
1
1.00004
1.89502
2.49639
2.52285
2.52724
2.53093
2.53333
2.53607
2.53865
2.54082
2.54239
2.54304
2.54283
2.54214
2.54091
2.53929
2.53739
2.53527
2.53288
2.53008
2.52675
2.52277
2.51802
2.51236
2.5057
2.49798
2.48921
2.47939
2.46864
2.45653
2.44366
2.42937
2.41368
2.39632
2.37754
2.35625
2.3339
2.30862
2.28241
2.25543
1
1
1
1
1
1
1
1
1
1
1
1
1
1
1
1
1
1
1
1
1
1
1
1
1
1
1
1
1
1
1
1
1
1
1
1
1
1
1
1
1
1
1
1
1
1
1
1
1
1
1
1
1
1
1
1
1
1.38653
2.387
2.52514
2.52278
2.52407
2.52538
2.52729
2.52954
2.53186
2.53392
2.53526
2.53549
2.53507
2.534
2.53236
2.53026
2.52785
2.52517
2.52217
2.51872
2.51472
2.51002
2.50448
2.49798
2.49046
2.48185
2.47213
2.46143
2.44913
2.43643
2.42231
2.40697
2.39102
2.37337
2.35322
2.33157
2.30817
2.28481
2.25873
1
1
1
1
1
1
1
1
1
1
1
1
1
1
1
1
1
1
1
1
1
1
1
1
1
1
1
1
1
1
1
1
1
1
1
1
1
1
1
1
1
1
1
1
1
1
1
1
1
1
1
1
1
1
1
1
1
1.03668
2.23184
2.51943
2.51573
2.51677
2.51794
2.51943
2.52103
2.52291
2.52493
2.52666
2.52754
2.52743
2.52672
2.52529
2.52322
2.52069
2.5178
2.5146
2.51099
2.50687
2.50212
2.49663
2.49024
2.48295
2.47462
2.46515
2.45462
2.44244
2.42988
2.41565
2.40084
2.38581
2.36834
2.34913
2.32925
2.30822
2.28615
2.26061
1
1
1
1
1
1
1
1
1
1
1
1
1
1
1
1
1
1
1
1
1
1
1
1
1
1
1
1
1
1
1
1
1
1
1
1
1
1
1
1
1
1
1
1
1
1
1
1
1
1
1
1
1
1
1
1
1
1.00021
1.90233
2.47829
2.50702
2.51076
2.5129
2.51378
2.51448
2.51543
2.51669
2.51808
2.51918
2.51945
2.51904
2.51793
2.51608
2.51361
2.51065
2.50731
2.50355
2.49929
2.49443
2.48889
2.48255
2.47544
2.46739
2.45821
2.44801
2.43621
2.42377
2.40974
2.39559
2.38036
2.36291
2.34544
2.32744
2.30736
2.28554
2.2612
1
1
1
1
1
1
1
1
1
1
1
1
1
1
1
1
1
1
1
1
1
1
1
1
1
1
1
1
1
1
1
1
1
1
1
1
1
1
1
1
1
1
1
1
1
1
1
1
1
1
1
1
1
1
1
1
1
0.999999
1.36001
2.3637
2.51143
2.50716
2.50753
2.50731
2.50757
2.50791
2.50847
2.5093
2.51027
2.51087
2.51074
2.51003
2.50855
2.50635
2.5035
2.50016
2.49633
2.49197
2.48702
2.48141
2.47505
2.46806
2.46015
2.45125
2.44145
2.43021
2.4181
2.40466
2.39069
2.37511
2.35849
2.34247
2.32477
2.30449
2.28409
2.26236
1
1
1
1
1
1
1
1
1
1
1
1
1
1
1
1
1
1
1
1
1
1
1
1
1
1
1
1
1
1
1
1
1
1
1
1
1
1
1
1
1
1
1
1
1
1
1
1
1
1
1
1
1
1
1
1
1
1
1.03093
2.20503
2.49593
2.49584
2.49807
2.49923
2.50058
2.50092
2.50105
2.50128
2.50173
2.50223
2.50221
2.50176
2.50064
2.49876
2.49616
2.49296
2.48915
2.48479
2.47979
2.47413
2.46779
2.4608
2.4529
2.44425
2.43484
2.42422
2.41264
2.39974
2.38592
2.37081
2.35521
2.33913
2.32077
2.3015
2.28353
2.2637
1
1
1
1
1
1
1
1
1
1
1
1
1
1
1
1
1
1
1
1
1
1
1
1
1
1
1
1
1
1
1
1
1
1
1
1
1
1
1
1
1
1
1
1
1
1
1
1
1
1
1
1
1
1
1
1
1
1
1.00013
1.83187
2.44905
2.48654
2.49037
2.49241
2.49482
2.49506
2.49482
2.49439
2.49411
2.49402
2.49383
2.49336
2.49241
2.49082
2.48852
2.48554
2.48189
2.47763
2.4727
2.46706
2.46076
2.45375
2.44588
2.43733
2.42819
2.41813
2.40702
2.39469
2.38151
2.36722
2.35179
2.33535
2.31754
2.30007
2.28327
2.26384
1
1
1
1
1
1
1
1
1
1
1
1
1
1
1
1
1
1
1
1
1
1
1
1
1
1
1
1
1
1
1
1
1
1
1
1
1
1
1
1
1
1
1
1
1
1
1
1
1
1
1
1
1
1
1
1
1
1
0.999999
1.2419
2.31793
2.49356
2.48537
2.4864
2.48742
2.48811
2.4878
2.48726
2.48667
2.48613
2.48561
2.48496
2.48401
2.48257
2.48051
2.47778
2.47436
2.4703
2.46552
2.46002
2.4538
2.44686
2.43907
2.43054
2.42156
2.41182
2.40112
2.38953
2.37723
2.36343
2.34812
2.33234
2.31591
2.29914
2.28205
2.26253
1
1
1
1
1
1
1
1
1
1
1
1
1
1
1
1
1
1
1
1
1
1
1
1
1
1
1
1
1
1
1
1
1
1
1
1
1
1
1
1
1
1
1
1
1
1
1
1
1
1
1
1
1
1
1
1
1
1
1
1.01332
2.14065
2.47075
2.47107
2.47497
2.47924
2.48033
2.48036
2.48019
2.47968
2.4789
2.478
2.47701
2.47586
2.47435
2.47237
2.46979
2.46657
2.46273
2.45817
2.45291
2.44688
2.44007
2.43243
2.42397
2.41504
2.40541
2.39506
2.3842
2.37254
2.35914
2.34466
2.33015
2.31451
2.29763
2.27999
2.2615
1
1
1
1
1
1
1
1
1
1
1
1
1
1
1
1
1
1
1
1
1
1
1
1
1
1
1
1
1
1
1
1
1
1
1
1
1
1
1
1
1
1
1
1
1
1
1
1
1
1
1
1
1
1
1
1
1
1
1
1.00001
1.68242
2.39836
2.47132
2.47256
2.47361
2.47339
2.4736
2.47357
2.47313
2.47221
2.47097
2.46957
2.46802
2.46623
2.46413
2.46158
2.45848
2.45484
2.45052
2.44554
2.43976
2.4332
2.42579
2.41754
2.40868
2.39912
2.38907
2.37871
2.36742
2.35464
2.34142
2.32786
2.31248
2.29562
2.27882
2.26185
1
1
1
1
1
1
1
1
1
1
1
1
1
1
1
1
1
1
1
1
1
1
1
1
1
1
1
1
1
1
1
1
1
1
1
1
1
1
1
1
1
1
1
1
1
1
1
1
1
1
1
1
1
1
1
1
1
1
1
0.999997
1.12542
2.24909
2.47465
2.46698
2.46502
2.4654
2.46614
2.46645
2.46615
2.46535
2.46409
2.46248
2.4606
2.4585
2.45615
2.45348
2.45038
2.44682
2.44268
2.43792
2.43242
2.42615
2.41906
2.41113
2.40245
2.39305
2.38322
2.37307
2.36204
2.35004
2.33785
2.32476
2.30971
2.29386
2.27839
2.26243
1
1
1
1
1
1
1
1
1
1
1
1
1
1
1
1
1
1
1
1
1
1
1
1
1
1
1
1
1
1
1
1
1
1
1
1
1
1
1
1
1
1
1
1
1
1
1
1
1
1
1
1
1
1
1
1
1
1
1
0.999999
1.00338
1.98173
2.43746
2.4483
2.45401
2.45683
2.45916
2.45996
2.45967
2.45891
2.45763
2.45584
2.45365
2.45116
2.44845
2.44552
2.44228
2.43871
2.43467
2.4301
2.42486
2.41892
2.41219
2.40465
2.39631
2.38722
2.37759
2.36752
2.35677
2.34544
2.33371
2.32088
2.30679
2.29233
2.27786
2.26224
1
1
1
1
1
1
1
1
1
1
1
1
1
1
1
1
1
1
1
1
1
1
1
1
1
1
1
1
1
1
1
1
1
1
1
1
1
1
1
1
1
1
1
1
1
1
1
1
1
1
1
1
1
1
1
1
1
1
1
1
0.999992
1.39805
2.32219
2.45259
2.4487
2.44975
2.45165
2.45281
2.4528
2.45238
2.45129
2.44949
2.44712
2.44436
2.44133
2.43809
2.43461
2.43088
2.4268
2.42228
2.41721
2.41153
2.40514
2.39799
2.39008
2.3814
2.37204
2.3621
2.35169
2.34075
2.32909
2.31674
2.30382
2.29046
2.27647
2.26112
1
1
1
1
1
1
1
1
1
1
1
1
1
1
1
1
1
1
1
1
1
1
1
1
1
1
1
1
1
1
1
1
1
1
1
1
1
1
1
1
1
1
1
1
1
1
1
1
1
1
1
1
1
1
1
1
1
1
1
1
0.999998
1.03755