/*--------------------------------*- C++ -*----------------------------------*\
  =========                 |
  \\      /  F ield         | OpenFOAM: The Open Source CFD Toolbox
   \\    /   O peration     | Website:  https://openfoam.org
    \\  /    A nd           | Version:  7
     \\/     M anipulation  |
\*---------------------------------------------------------------------------*/
FoamFile
{
    version     2.0;
    format      ascii;
    class       volVectorField;
    location    "2.8";
    object      U;
}
// * * * * * * * * * * * * * * * * * * * * * * * * * * * * * * * * * * * * * //

dimensions      [0 1 -1 0 0 0 0];

internalField   nonuniform List<vector> 
64512
(
(3 1.64904e-16 0)
(3 2.3108e-16 0)
(3 -1.17276e-16 0)
(3 -2.60053e-16 0)
(3 3.90937e-16 0)
(3 6.78332e-16 0)
(3 8.45816e-16 0)
(3 9.21935e-16 0)
(3 4.45571e-16 0)
(3 1.13714e-16 0)
(3 4.2349e-17 0)
(3 1.2765e-16 0)
(3 7.03486e-17 0)
(3 -1.30949e-16 0)
(3 -1.21998e-17 0)
(3 -1.86935e-16 0)
(3 -3.50704e-16 0)
(3 -3.1841e-16 0)
(3 -4.06596e-16 0)
(3 -3.40969e-16 0)
(3 -4.43739e-16 0)
(3 -1.13107e-15 0)
(3 -9.21938e-16 0)
(3 -2.16874e-16 0)
(3 -1.7452e-16 0)
(3 -1.30931e-16 0)
(3 -4.84114e-16 0)
(3 -4.68034e-16 0)
(3 -4.87437e-16 0)
(3 -4.55462e-16 0)
(3 -4.8798e-16 0)
(3 -5.98981e-16 0)
(3 -8.52788e-16 0)
(3 -1.06864e-15 0)
(3 -9.69059e-16 0)
(3 -3.02429e-16 0)
(3 2.56579e-17 0)
(3 5.39969e-16 0)
(3 4.2179e-16 0)
(3 1.10677e-16 0)
(3 -1.95436e-16 0)
(3 -5.67074e-16 0)
(3 -8.91122e-16 0)
(3 -6.57288e-16 0)
(3 -6.52435e-16 0)
(3 -1.18891e-15 0)
(3 -1.5476e-15 0)
(3 -6.28531e-16 0)
(3 -6.37237e-16 0)
(1.50993 0.00394513 0)
(0.787258 0.00287818 0)
(0.748204 0.00883037 0)
(0.730034 0.00696792 0)
(0.713313 0.00588585 0)
(0.699706 0.00544452 0)
(0.68767 0.00561344 0)
(0.67564 0.00599677 0)
(0.662323 0.0065216 0)
(0.646682 0.00720672 0)
(0.628443 0.00788041 0)
(0.608574 0.00819402 0)
(0.589099 0.00760848 0)
(0.572267 0.0063396 0)
(0.558575 0.00550787 0)
(0.546426 0.00565108 0)
(0.533671 0.00644947 0)
(0.518856 0.00749993 0)
(0.501884 0.00837445 0)
(0.484052 0.00832783 0)
(0.467423 0.00743622 0)
(0.452768 0.00681103 0)
(0.438835 0.00701123 0)
(0.424061 0.00761905 0)
(0.408033 0.00798508 0)
(0.391025 0.00788943 0)
(0.373684 0.00770568 0)
(0.356466 0.00772416 0)
(0.339367 0.00788424 0)
(0.322311 0.00807011 0)
(0.305154 0.00822686 0)
(0.287834 0.0083346 0)
(0.270483 0.00839803 0)
(0.253385 0.00845162 0)
(0.23677 0.00850497 0)
(0.220599 0.0085491 0)
(0.204513 0.00860188 0)
(0.188016 0.00871552 0)
(0.170655 0.00891216 0)
(0.152166 0.00912477 0)
(0.132788 0.0093364 0)
(0.112961 0.00954799 0)
(0.09242 0.0097549 0)
(0.0720652 0.00998924 0)
(0.0514473 0.0102215 0)
(0.0307101 0.0103316 0)
(0.010258 0.0104417 0)
(3 1.53983e-16 0)
(3 1.42022e-16 0)
(3 -5.73474e-16 0)
(3 -8.3344e-16 0)
(3 -1.65586e-16 0)
(3 6.65626e-16 0)
(3 8.27657e-16 0)
(3 1.10135e-15 0)
(3 5.36814e-16 0)
(3 1.22094e-16 0)
(3 -1.52648e-17 0)
(3 3.79181e-16 0)
(3 7.88042e-16 0)
(3 1.09029e-15 0)
(3 8.78157e-16 0)
(3 4.02848e-16 0)
(3 -1.99851e-16 0)
(3 -9.89309e-16 0)
(3 -1.99062e-15 0)
(3 -1.8017e-15 0)
(3 -1.25515e-15 0)
(3 -1.18439e-15 0)
(3 2.88597e-16 0)
(3 9.15947e-16 0)
(3 1.5092e-15 0)
(3 1.433e-15 0)
(3 1.16387e-15 0)
(3 2.75731e-16 0)
(3 -6.82064e-16 0)
(3 -6.43981e-16 0)
(3 -5.11976e-16 0)
(3 -4.36917e-16 0)
(3 -7.81188e-16 0)
(3 -1.23865e-15 0)
(3 -2.1358e-15 0)
(3 -1.62777e-15 0)
(3 -9.36698e-16 0)
(3 3.28779e-16 0)
(3 4.57413e-16 0)
(3 -6.97704e-17 0)
(3 -6.08393e-16 0)
(3 -1.36416e-15 0)
(3 -1.13235e-15 0)
(3 -4.83791e-16 0)
(3 -4.53598e-16 0)
(3 -8.73787e-16 0)
(3 -8.55432e-16 0)
(3 -6.16146e-16 0)
(3 1.99647e-16 0)
(1.51982 0.0193646 0)
(0.78418 0.014153 0)
(0.744874 0.0249058 0)
(0.72757 0.0210069 0)
(0.710164 0.0178156 0)
(0.69558 0.0153974 0)
(0.682945 0.0152556 0)
(0.670827 0.0165388 0)
(0.657763 0.018425 0)
(0.642685 0.0207041 0)
(0.625263 0.0228082 0)
(0.606281 0.0238386 0)
(0.587354 0.02256 0)
(0.570408 0.019317 0)
(0.555969 0.0166785 0)
(0.542992 0.0165426 0)
(0.529848 0.0186347 0)
(0.515061 0.02169 0)
(0.498448 0.0242668 0)
(0.481085 0.0243317 0)
(0.464756 0.0221525 0)
(0.44986 0.0205006 0)
(0.435524 0.0209818 0)
(0.42059 0.0226591 0)
(0.404636 0.0236397 0)
(0.387877 0.0233569 0)
(0.370743 0.0229058 0)
(0.353544 0.0230503 0)
(0.336325 0.0235545 0)
(0.319121 0.0240814 0)
(0.301895 0.024506 0)
(0.284618 0.0248036 0)
(0.267382 0.0250121 0)
(0.250407 0.0252331 0)
(0.233896 0.0254665 0)
(0.217828 0.0256527 0)
(0.201894 0.0258275 0)
(0.18563 0.0261515 0)
(0.168574 0.0267135 0)
(0.150454 0.0273459 0)
(0.131468 0.0280195 0)
(0.112008 0.0287107 0)
(0.0917913 0.0293811 0)
(0.0717161 0.0301215 0)
(0.0513083 0.0308491 0)
(0.0306956 0.0312209 0)
(0.0103018 0.0316276 0)
(3 1.43819e-17 0)
(3 2.09022e-17 0)
(3 -3.79455e-16 0)
(3 -7.75012e-16 0)
(3 -8.64245e-16 0)
(3 -6.48247e-16 0)
(3 -6.80552e-16 0)
(3 -1.32938e-16 0)
(3 2.49394e-16 0)
(3 3.35519e-16 0)
(3 2.72154e-16 0)
(3 4.62312e-16 0)
(3 7.54538e-16 0)
(3 1.03898e-15 0)
(3 1.1083e-15 0)
(3 1.39605e-15 0)
(3 1.14175e-15 0)
(3 -2.41007e-16 0)
(3 -1.77899e-15 0)
(3 -2.08417e-15 0)
(3 -1.11151e-15 0)
(3 -5.16866e-16 0)
(3 -1.80228e-17 0)
(3 2.98151e-16 0)
(3 5.73709e-16 0)
(3 5.35006e-16 0)
(3 5.27429e-16 0)
(3 6.98561e-16 0)
(3 -1.8894e-16 0)
(3 -1.15024e-15 0)
(3 -1.08718e-15 0)
(3 -1.18418e-15 0)
(3 -9.78176e-16 0)
(3 -2.1652e-15 0)
(3 -2.71619e-15 0)
(3 -3.7957e-15 0)
(3 -3.96485e-15 0)
(3 -2.05233e-15 0)
(3 -6.62177e-16 0)
(3 -4.74199e-16 0)
(3 -1.11893e-15 0)
(3 -8.56399e-16 0)
(3 -8.63596e-16 0)
(3 -1.4301e-15 0)
(3 -1.39438e-15 0)
(3 -1.05309e-15 0)
(3 -1.65946e-15 0)
(3 -1.74228e-15 0)
(3 -1.67694e-15 0)
(1.54695 0.0336672 0)
(0.785708 0.0254308 0)
(0.746424 0.0394491 0)
(0.730058 0.0352448 0)
(0.711823 0.0313936 0)
(0.695354 0.0276251 0)
(0.680766 0.02642 0)
(0.667528 0.0277056 0)
(0.654212 0.0304033 0)
(0.639552 0.0339499 0)
(0.623027 0.0373152 0)
(0.605171 0.0390519 0)
(0.587184 0.0374869 0)
(0.570549 0.0330362 0)
(0.555518 0.0290927 0)
(0.541441 0.0286408 0)
(0.527456 0.0316162 0)
(0.512344 0.0362217 0)
(0.495804 0.0400402 0)
(0.478717 0.0400632 0)
(0.462675 0.0368552 0)
(0.447543 0.034425 0)
(0.432733 0.0351649 0)
(0.417541 0.0377582 0)
(0.401511 0.0392744 0)
(0.384866 0.0388589 0)
(0.367854 0.0382608 0)
(0.350618 0.0385928 0)
(0.333195 0.0394098 0)
(0.315706 0.0401926 0)
(0.29824 0.0408012 0)
(0.280841 0.0412324 0)
(0.263578 0.0415428 0)
(0.2466 0.0418757 0)
(0.230049 0.0422135 0)
(0.213916 0.0424596 0)
(0.19796 0.0426863 0)
(0.181789 0.0431683 0)
(0.164972 0.0440512 0)
(0.147237 0.0450584 0)
(0.128726 0.0461574 0)
(0.109762 0.047312 0)
(0.0900297 0.0484665 0)
(0.0704401 0.0497806 0)
(0.0504789 0.0511011 0)
(0.0302425 0.0518445 0)
(0.0102007 0.0526803 0)
(3 -3.5379e-17 0)
(3 -2.23222e-16 0)
(3 1.4476e-16 0)
(3 2.48878e-16 0)
(3 4.54363e-16 0)
(3 -5.15931e-17 0)
(3 -9.89885e-17 0)
(3 -2.46558e-16 0)
(3 3.89983e-16 0)
(3 5.51729e-16 0)
(3 6.20582e-16 0)
(3 4.78153e-16 0)
(3 -4.74361e-17 0)
(3 6.15851e-17 0)
(3 -1.91278e-17 0)
(3 9.72681e-17 0)
(3 -7.08406e-17 0)
(3 1.6741e-18 0)
(3 -2.06148e-16 0)
(3 -3.56816e-17 0)
(3 3.1491e-17 0)
(3 -2.28009e-17 0)
(3 -7.93967e-16 0)
(3 -1.03587e-15 0)
(3 -1.72802e-15 0)
(3 -1.05665e-15 0)
(3 -6.63165e-16 0)
(3 -3.18928e-16 0)
(3 -3.60494e-16 0)
(3 -1.48429e-15 0)
(3 -1.55506e-15 0)
(3 -7.76129e-16 0)
(3 -4.77362e-16 0)
(3 -1.03163e-15 0)
(3 -1.56397e-15 0)
(3 -1.40126e-15 0)
(3 -1.70143e-15 0)
(3 -2.06895e-15 0)
(3 -1.57884e-15 0)
(3 -9.84148e-16 0)
(3 -8.42828e-16 0)
(3 -4.45665e-16 0)
(3 -9.82164e-16 0)
(3 -1.36226e-15 0)
(3 -1.21424e-15 0)
(3 -1.41305e-15 0)
(3 -2.16478e-15 0)
(3 -2.21917e-15 0)
(3 -2.65704e-15 0)
(1.58665 0.0460772 0)
(0.78871 0.0359962 0)
(0.749599 0.0518876 0)
(0.733846 0.049116 0)
(0.715133 0.0458976 0)
(0.697305 0.041426 0)
(0.68105 0.0388137 0)
(0.666632 0.0394374 0)
(0.653108 0.0423717 0)
(0.639006 0.0466865 0)
(0.62354 0.0509318 0)
(0.60688 0.0532346 0)
(0.589779 0.0518118 0)
(0.573306 0.0469973 0)
(0.557679 0.0423231 0)
(0.542572 0.0416296 0)
(0.527759 0.0452287 0)
(0.512373 0.050978 0)
(0.495935 0.0556083 0)
(0.479076 0.0555284 0)
(0.463167 0.0516352 0)
(0.447661 0.0487423 0)
(0.432302 0.0497863 0)
(0.416815 0.0531868 0)
(0.400652 0.0551659 0)
(0.384036 0.0546452 0)
(0.367022 0.0539841 0)
(0.349621 0.0545635 0)
(0.331871 0.0556985 0)
(0.313972 0.0566951 0)
(0.296147 0.0574324 0)
(0.278515 0.0579537 0)
(0.261124 0.0583385 0)
(0.244039 0.058762 0)
(0.227317 0.0591772 0)
(0.210938 0.0594451 0)
(0.194725 0.0596665 0)
(0.178367 0.0602167 0)
(0.161491 0.0612922 0)
(0.143862 0.0625235 0)
(0.125595 0.0639125 0)
(0.10697 0.0654324 0)
(0.0876405 0.0670223 0)
(0.0685712 0.068925 0)
(0.0491675 0.0708983 0)
(0.0294675 0.0720958 0)
(0.00999177 0.0734685 0)
(3 -2.03841e-16 0)
(3 2.36242e-17 0)
(3 2.41885e-16 0)
(3 4.12008e-16 0)
(3 1.41236e-16 0)
(3 1.98751e-16 0)
(3 2.34535e-16 0)
(3 -4.18891e-17 0)
(3 -2.95653e-16 0)
(3 -1.72169e-16 0)
(3 4.89968e-16 0)
(3 2.38642e-16 0)
(3 -1.78466e-16 0)
(3 -7.00995e-16 0)
(3 -9.47899e-16 0)
(3 -1.48815e-15 0)
(3 -7.99501e-16 0)
(3 1.44233e-17 0)
(3 4.53086e-16 0)
(3 1.01032e-15 0)
(3 1.16461e-15 0)
(3 9.82293e-16 0)
(3 2.39674e-16 0)
(3 -3.20493e-17 0)
(3 -5.27729e-16 0)
(3 -7.04264e-16 0)
(3 -4.43871e-16 0)
(3 -8.89955e-16 0)
(3 -1.24826e-15 0)
(3 -9.57774e-16 0)
(3 -5.61659e-16 0)
(3 4.06515e-16 0)
(3 8.17253e-17 0)
(3 -7.16507e-17 0)
(3 -1.3823e-15 0)
(3 -1.58565e-15 0)
(3 -2.07789e-15 0)
(3 -2.7145e-15 0)
(3 -2.30689e-15 0)
(3 -2.09588e-15 0)
(3 -1.73477e-15 0)
(3 -2.19787e-15 0)
(3 -1.53279e-15 0)
(3 -8.54078e-16 0)
(3 -7.74985e-16 0)
(3 -1.07826e-15 0)
(3 -1.21529e-15 0)
(3 -1.68661e-15 0)
(3 -3.03714e-16 0)
(1.63749 0.0571839 0)
(0.791942 0.0458621 0)
(0.751417 0.0634501 0)
(0.735647 0.0631677 0)
(0.716563 0.0612049 0)
(0.697975 0.0566618 0)
(0.680823 0.052427 0)
(0.665589 0.0514926 0)
(0.652048 0.0539607 0)
(0.638729 0.0585747 0)
(0.624453 0.0634587 0)
(0.608931 0.0664882 0)
(0.592508 0.0658321 0)
(0.576025 0.0614695 0)
(0.559905 0.056475 0)
(0.544064 0.0553497 0)
(0.528792 0.0591667 0)
(0.51355 0.0655651 0)
(0.497573 0.0706175 0)
(0.481115 0.0704704 0)
(0.465395 0.0662251 0)
(0.449642 0.0631291 0)
(0.433938 0.064524 0)
(0.418371 0.0686603 0)
(0.402244 0.0710817 0)
(0.385759 0.0705332 0)
(0.368789 0.0699183 0)
(0.351258 0.070812 0)
(0.333209 0.0722884 0)
(0.314906 0.0734898 0)
(0.296699 0.0743332 0)
(0.278789 0.0749241 0)
(0.261219 0.0753719 0)
(0.243971 0.0758862 0)
(0.22701 0.0763942 0)
(0.21028 0.0767159 0)
(0.193648 0.0769675 0)
(0.176873 0.0775922 0)
(0.159657 0.0788053 0)
(0.141811 0.0801374 0)
(0.123451 0.0816494 0)
(0.104855 0.0833551 0)
(0.0856539 0.0852245 0)
(0.0669032 0.0876138 0)
(0.0479347 0.0902096 0)
(0.028702 0.0918801 0)
(0.00977788 0.0938386 0)
(3 6.48107e-18 0)
(3 1.76438e-16 0)
(3 2.64232e-16 0)
(3 1.46628e-16 0)
(3 -2.07693e-16 0)
(3 -3.00865e-16 0)
(3 -7.62588e-16 0)
(3 -1.25152e-15 0)
(3 -1.29468e-15 0)
(3 -8.74602e-16 0)
(3 -6.84519e-16 0)
(3 -9.08154e-16 0)
(3 -9.64829e-16 0)
(3 -1.15236e-15 0)
(3 -1.55759e-15 0)
(3 -1.93413e-15 0)
(3 -1.72006e-15 0)
(3 -1.36743e-15 0)
(3 -8.68794e-16 0)
(3 2.15227e-16 0)
(3 9.23948e-16 0)
(3 1.23632e-15 0)
(3 1.64812e-15 0)
(3 1.35429e-15 0)
(3 1.1198e-15 0)
(3 1.08179e-16 0)
(3 -5.0409e-16 0)
(3 -4.49884e-16 0)
(3 -4.7801e-16 0)
(3 -1.65858e-16 0)
(3 -1.71255e-16 0)
(3 -4.65891e-16 0)
(3 -6.13041e-16 0)
(3 -2.27867e-16 0)
(3 -5.55751e-16 0)
(3 -1.13717e-15 0)
(3 -1.01867e-15 0)
(3 -1.25722e-15 0)
(3 -1.45878e-15 0)
(3 -1.29369e-15 0)
(3 -1.15085e-15 0)
(3 -1.10605e-15 0)
(3 -5.91806e-16 0)
(3 1.67843e-16 0)
(3 3.05887e-16 0)
(3 2.89707e-16 0)
(3 1.1664e-16 0)
(3 4.97606e-16 0)
(3 -2.28324e-15 0)
(1.69995 0.0687402 0)
(0.795638 0.0562994 0)
(0.751771 0.074535 0)
(0.736532 0.0768862 0)
(0.717656 0.0763433 0)
(0.698978 0.0724165 0)
(0.681412 0.067009 0)
(0.665451 0.0641295 0)
(0.651425 0.0654524 0)
(0.638411 0.0698955 0)
(0.624826 0.0752465 0)
(0.609943 0.0792308 0)
(0.59377 0.0798044 0)
(0.577092 0.0763569 0)
(0.56065 0.0713277 0)
(0.54446 0.0696139 0)
(0.529084 0.0731623 0)
(0.514294 0.0797511 0)
(0.49894 0.0850051 0)
(0.482861 0.0850118 0)
(0.467123 0.0807994 0)
(0.451026 0.0777227 0)
(0.434955 0.0794766 0)
(0.419292 0.0842532 0)
(0.403187 0.0870829 0)
(0.38682 0.0865781 0)
(0.369925 0.0860839 0)
(0.35239 0.0873015 0)
(0.334275 0.0890847 0)
(0.315884 0.0904345 0)
(0.29764 0.0913351 0)
(0.279777 0.091974 0)
(0.262303 0.0924943 0)
(0.245106 0.0931351 0)
(0.228053 0.0937931 0)
(0.211044 0.0942435 0)
(0.193982 0.0946038 0)
(0.176705 0.0953546 0)
(0.159008 0.0967025 0)
(0.140768 0.0980671 0)
(0.122128 0.0995795 0)
(0.103359 0.101313 0)
(0.0841336 0.103299 0)
(0.0655267 0.106028 0)
(0.0468772 0.109162 0)
(0.0280223 0.111268 0)
(0.00958504 0.113799 0)
(3 -1.88408e-17 0)
(3 -7.20513e-16 0)
(3 -5.86862e-16 0)
(3 -4.77144e-16 0)
(3 3.37234e-17 0)
(3 4.85623e-17 0)
(3 -2.86995e-16 0)
(3 -9.37362e-16 0)
(3 -1.46042e-15 0)
(3 -1.46847e-15 0)
(3 -1.67607e-15 0)
(3 -1.86094e-15 0)
(3 -1.98368e-15 0)
(3 -1.60273e-15 0)
(3 -1.63539e-15 0)
(3 -1.53156e-15 0)
(3 -1.64971e-15 0)
(3 -1.49506e-15 0)
(3 -4.25762e-16 0)
(3 4.13565e-16 0)
(3 6.2237e-16 0)
(3 8.65843e-16 0)
(3 6.85547e-16 0)
(3 4.98333e-16 0)
(3 2.20505e-16 0)
(3 -1.49409e-17 0)
(3 -9.73623e-16 0)
(3 -1.07847e-15 0)
(3 -8.43267e-16 0)
(3 -5.06169e-16 0)
(3 -9.77867e-16 0)
(3 -1.69463e-15 0)
(3 -9.59639e-16 0)
(3 4.32009e-16 0)
(3 9.98454e-16 0)
(3 1.04066e-15 0)
(3 3.69828e-16 0)
(3 1.01417e-16 0)
(3 -3.07546e-16 0)
(3 -4.49675e-17 0)
(3 -7.11511e-17 0)
(3 -1.02941e-16 0)
(3 -2.0568e-16 0)
(3 1.38596e-16 0)
(3 4.33728e-16 0)
(3 5.9546e-16 0)
(3 4.28977e-16 0)
(3 3.74751e-16 0)
(3 -1.17798e-15 0)
(1.77766 0.0813973 0)
(0.80154 0.0680352 0)
(0.751632 0.0852578 0)
(0.737168 0.0901327 0)
(0.718603 0.0909357 0)
(0.700257 0.0880341 0)
(0.682716 0.0822304 0)
(0.666293 0.0775591 0)
(0.651551 0.077313 0)
(0.638256 0.0811919 0)
(0.624791 0.0868032 0)
(0.610154 0.0917463 0)
(0.594089 0.0936828 0)
(0.577329 0.0913546 0)
(0.560902 0.0864091 0)
(0.544732 0.0839287 0)
(0.529375 0.0868978 0)
(0.514947 0.0934127 0)
(0.499987 0.0989061 0)
(0.483992 0.0994284 0)
(0.46795 0.0955752 0)
(0.451457 0.0926346 0)
(0.435106 0.0946689 0)
(0.419509 0.0999198 0)
(0.403655 0.103071 0)
(0.387668 0.102633 0)
(0.371156 0.102279 0)
(0.353972 0.103788 0)
(0.336169 0.105824 0)
(0.318058 0.10727 0)
(0.300091 0.108195 0)
(0.282495 0.108887 0)
(0.265235 0.109535 0)
(0.248124 0.110401 0)
(0.23096 0.111332 0)
(0.213623 0.112038 0)
(0.196058 0.112618 0)
(0.178194 0.113572 0)
(0.15992 0.115081 0)
(0.141181 0.116446 0)
(0.122145 0.117876 0)
(0.103068 0.119518 0)
(0.0836953 0.121486 0)
(0.0650234 0.124392 0)
(0.046467 0.127947 0)
(0.0277427 0.130407 0)
(0.00952707 0.133451 0)
(3 -1.29168e-16 0)
(3 -3.41155e-16 0)
(3 -4.16119e-16 0)
(3 -1.67469e-16 0)
(3 -1.26206e-16 0)
(3 -1.36861e-16 0)
(3 1.85676e-16 0)
(3 4.17415e-16 0)
(3 2.34837e-16 0)
(3 -5.56441e-16 0)
(3 -7.44071e-16 0)
(3 -9.39406e-16 0)
(3 -1.70898e-15 0)
(3 -2.39938e-15 0)
(3 -2.03078e-15 0)
(3 -1.23153e-15 0)
(3 -6.49998e-16 0)
(3 -5.40572e-16 0)
(3 -4.53396e-16 0)
(3 -3.96045e-17 0)
(3 -4.26046e-17 0)
(3 4.31587e-17 0)
(3 -5.88998e-16 0)
(3 -1.45508e-15 0)
(3 -1.56299e-15 0)
(3 -1.36565e-15 0)
(3 -2.06183e-15 0)
(3 -1.82573e-15 0)
(3 -1.23588e-15 0)
(3 -1.39739e-15 0)
(3 -1.10953e-15 0)
(3 -5.94937e-16 0)
(3 -2.927e-16 0)
(3 8.77477e-18 0)
(3 2.42876e-16 0)
(3 -3.22597e-16 0)
(3 -8.87635e-16 0)
(3 -3.19122e-16 0)
(3 5.39614e-18 0)
(3 1.5805e-17 0)
(3 8.98781e-17 0)
(3 -5.5865e-17 0)
(3 3.6116e-16 0)
(3 8.18134e-17 0)
(3 2.775e-16 0)
(3 7.59378e-16 0)
(3 4.38908e-16 0)
(3 -8.66423e-16 0)
(3 -4.32837e-15 0)
(1.8748 0.0945127 0)
(0.811059 0.0815526 0)
(0.751463 0.0956698 0)
(0.738168 0.102931 0)
(0.720013 0.104784 0)
(0.702335 0.103024 0)
(0.685101 0.0975469 0)
(0.668554 0.0916808 0)
(0.653189 0.0898052 0)
(0.63931 0.0928545 0)
(0.625653 0.0985207 0)
(0.611058 0.104286 0)
(0.595083 0.107443 0)
(0.578317 0.106195 0)
(0.561913 0.101475 0)
(0.54579 0.0982401 0)
(0.530362 0.100458 0)
(0.516143 0.106767 0)
(0.501492 0.112617 0)
(0.485621 0.113921 0)
(0.469438 0.110595 0)
(0.452868 0.10777 0)
(0.436561 0.109898 0)
(0.421284 0.115374 0)
(0.405859 0.118706 0)
(0.390349 0.118318 0)
(0.37429 0.118094 0)
(0.357538 0.119844 0)
(0.340129 0.122072 0)
(0.322343 0.123587 0)
(0.30461 0.124568 0)
(0.28712 0.125426 0)
(0.269815 0.126391 0)
(0.252485 0.127714 0)
(0.234905 0.129144 0)
(0.216964 0.130285 0)
(0.198665 0.131195 0)
(0.180024 0.132387 0)
(0.161028 0.134032 0)
(0.1417 0.135327 0)
(0.122244 0.136582 0)
(0.10289 0.138037 0)
(0.0834247 0.139883 0)
(0.0647133 0.142837 0)
(0.0462363 0.146718 0)
(0.027591 0.149458 0)
(0.00951766 0.152958 0)
(3 2.47009e-17 0)
(3 5.57267e-16 0)
(3 7.01764e-16 0)
(3 6.75037e-16 0)
(3 5.32213e-16 0)
(3 -2.1198e-17 0)
(3 7.25727e-17 0)
(3 5.53482e-16 0)
(3 7.08654e-16 0)
(3 3.24526e-16 0)
(3 5.50415e-16 0)
(3 9.01782e-16 0)
(3 -4.42807e-16 0)
(3 -1.16648e-15 0)
(3 -1.45142e-15 0)
(3 -1.14338e-15 0)
(3 -7.53594e-16 0)
(3 -1.60397e-16 0)
(3 7.16472e-17 0)
(3 -6.9848e-16 0)
(3 -3.77652e-16 0)
(3 1.19455e-16 0)
(3 -1.11386e-15 0)
(3 -2.61757e-15 0)
(3 -3.10713e-15 0)
(3 -3.09307e-15 0)
(3 -2.23852e-15 0)
(3 -1.94524e-15 0)
(3 -1.20342e-15 0)
(3 -1.36926e-15 0)
(3 -1.70133e-15 0)
(3 -1.71347e-15 0)
(3 -1.00152e-15 0)
(3 -1.29431e-15 0)
(3 -1.32024e-15 0)
(3 -5.45058e-16 0)
(3 1.9089e-17 0)
(3 -1.01859e-16 0)
(3 -2.00304e-16 0)
(3 1.80067e-16 0)
(3 4.87187e-16 0)
(3 9.33188e-16 0)
(3 1.08807e-15 0)
(3 1.10804e-15 0)
(3 1.32358e-15 0)
(3 1.63387e-15 0)
(3 5.39042e-16 0)
(3 -7.90279e-16 0)
(3 -3.27599e-15 0)
(1.99363 0.106253 0)
(0.825087 0.0971705 0)
(0.750847 0.105862 0)
(0.739058 0.11503 0)
(0.721479 0.117826 0)
(0.704773 0.117103 0)
(0.688082 0.112484 0)
(0.671827 0.106126 0)
(0.656147 0.102799 0)
(0.641708 0.104835 0)
(0.627883 0.110351 0)
(0.613407 0.11673 0)
(0.597606 0.120938 0)
(0.580872 0.120739 0)
(0.564412 0.11641 0)
(0.548269 0.112522 0)
(0.53266 0.113873 0)
(0.518493 0.119849 0)
(0.504138 0.126121 0)
(0.488434 0.128344 0)
(0.472223 0.125621 0)
(0.455709 0.122848 0)
(0.43948 0.124895 0)
(0.424415 0.13043 0)
(0.409207 0.133926 0)
(0.393849 0.133687 0)
(0.377898 0.133673 0)
(0.361238 0.135711 0)
(0.343871 0.138204 0)
(0.326025 0.139924 0)
(0.308092 0.141153 0)
(0.290261 0.14238 0)
(0.272514 0.143834 0)
(0.254708 0.145726 0)
(0.236661 0.147697 0)
(0.218284 0.149244 0)
(0.199589 0.15041 0)
(0.180593 0.151747 0)
(0.161294 0.153435 0)
(0.14174 0.15458 0)
(0.122157 0.155594 0)
(0.102755 0.156812 0)
(0.0833148 0.158477 0)
(0.0646188 0.161381 0)
(0.0462021 0.165507 0)
(0.0275684 0.168453 0)
(0.00955476 0.17235 0)
(3 1.37994e-16 0)
(3 3.74995e-16 0)
(3 1.44348e-16 0)
(3 -2.61037e-16 0)
(3 -1.86182e-16 0)
(3 8.41557e-17 0)
(3 -2.56411e-16 0)
(3 -3.21412e-16 0)
(3 -4.04324e-17 0)
(3 6.79625e-16 0)
(3 5.45509e-16 0)
(3 4.51013e-16 0)
(3 9.08171e-17 0)
(3 -1.67799e-16 0)
(3 -5.51521e-16 0)
(3 2.40342e-16 0)
(3 5.52474e-16 0)
(3 7.76938e-16 0)
(3 6.73005e-16 0)
(3 -6.12674e-17 0)
(3 -6.00025e-16 0)
(3 -9.22176e-16 0)
(3 -1.14281e-15 0)
(3 -1.47538e-15 0)
(3 -1.59964e-15 0)
(3 -7.86549e-16 0)
(3 -9.43199e-17 0)
(3 4.8157e-17 0)
(3 4.19386e-16 0)
(3 6.19116e-16 0)
(3 1.74799e-17 0)
(3 -5.73437e-16 0)
(3 -6.3402e-16 0)
(3 -4.30288e-16 0)
(3 -5.71488e-16 0)
(3 -8.10089e-17 0)
(3 5.79112e-16 0)
(3 7.80192e-17 0)
(3 -6.30374e-16 0)
(3 -3.26391e-16 0)
(3 5.62636e-16 0)
(3 1.07912e-15 0)
(3 1.09924e-15 0)
(3 2.19657e-15 0)
(3 2.0774e-15 0)
(3 2.03862e-15 0)
(3 2.95471e-16 0)
(3 1.97485e-16 0)
(3 -3.31276e-16 0)
(2.13198 0.115697 0)
(0.843176 0.115944 0)
(0.749181 0.116223 0)
(0.738153 0.126303 0)
(0.721341 0.130175 0)
(0.705339 0.130556 0)
(0.6891 0.127043 0)
(0.673231 0.120855 0)
(0.657533 0.116425 0)
(0.642681 0.117242 0)
(0.628709 0.122352 0)
(0.614443 0.129156 0)
(0.598959 0.134298 0)
(0.582439 0.13512 0)
(0.56606 0.131349 0)
(0.550055 0.126982 0)
(0.534419 0.12738 0)
(0.520289 0.1329 0)
(0.506354 0.139608 0)
(0.490934 0.142789 0)
(0.474795 0.140728 0)
(0.458375 0.137996 0)
(0.442181 0.139874 0)
(0.427203 0.145415 0)
(0.412046 0.149141 0)
(0.39664 0.149151 0)
(0.380641 0.149384 0)
(0.363978 0.151711 0)
(0.346615 0.154491 0)
(0.328723 0.156481 0)
(0.31066 0.158032 0)
(0.292618 0.159672 0)
(0.274616 0.161615 0)
(0.256569 0.164042 0)
(0.238325 0.166503 0)
(0.21979 0.168402 0)
(0.200958 0.169771 0)
(0.181813 0.171221 0)
(0.162344 0.172951 0)
(0.14263 0.173974 0)
(0.122937 0.174789 0)
(0.103459 0.175817 0)
(0.0839612 0.177318 0)
(0.0651493 0.180123 0)
(0.0466241 0.184441 0)
(0.0278122 0.187519 0)
(0.0096764 0.191746 0)
(3 -1.09896e-16 0)
(3 -1.75444e-16 0)
(3 -3.22527e-16 0)
(3 -7.2511e-16 0)
(3 -9.51196e-16 0)
(3 -5.03484e-16 0)
(3 -4.88328e-16 0)
(3 -2.14318e-16 0)
(3 5.54373e-16 0)
(3 6.97019e-16 0)
(3 -5.54255e-16 0)
(3 -1.1969e-15 0)
(3 -7.78977e-16 0)
(3 -2.52885e-16 0)
(3 1.29458e-15 0)
(3 1.72362e-15 0)
(3 1.90236e-15 0)
(3 1.43954e-15 0)
(3 1.13611e-15 0)
(3 1.0314e-15 0)
(3 -3.07745e-17 0)
(3 -1.1533e-15 0)
(3 -1.13321e-15 0)
(3 -3.98707e-16 0)
(3 4.85044e-17 0)
(3 -2.76509e-17 0)
(3 4.09623e-16 0)
(3 9.79196e-16 0)
(3 1.10196e-15 0)
(3 1.64667e-15 0)
(3 2.16482e-15 0)
(3 1.91909e-15 0)
(3 9.95426e-16 0)
(3 1.35368e-15 0)
(3 1.11341e-15 0)
(3 3.32618e-16 0)
(3 5.67955e-16 0)
(3 5.38187e-16 0)
(3 1.87577e-16 0)
(3 -2.49815e-16 0)
(3 -2.52944e-18 0)
(3 7.05564e-16 0)
(3 1.33697e-15 0)
(3 7.88375e-16 0)
(3 -5.32728e-16 0)
(3 -6.38228e-16 0)
(3 -2.17586e-16 0)
(3 1.54349e-16 0)
(3 -3.26321e-15 0)
(2.2879 0.121993 0)
(0.866761 0.136792 0)
(0.750214 0.127868 0)
(0.738325 0.137747 0)
(0.722229 0.142265 0)
(0.707084 0.143745 0)
(0.691592 0.141105 0)
(0.676296 0.135458 0)
(0.660664 0.130395 0)
(0.645316 0.129983 0)
(0.630888 0.134463 0)
(0.61662 0.141446 0)
(0.60141 0.147338 0)
(0.585197 0.149102 0)
(0.568987 0.146028 0)
(0.553146 0.141392 0)
(0.537447 0.140849 0)
(0.523128 0.14584 0)
(0.50941 0.152943 0)
(0.494168 0.157091 0)
(0.477999 0.155782 0)
(0.461596 0.153102 0)
(0.445357 0.15475 0)
(0.430375 0.160271 0)
(0.415197 0.164299 0)
(0.39965 0.164645 0)
(0.383528 0.165138 0)
(0.366799 0.167745 0)
(0.349395 0.170844 0)
(0.331429 0.173178 0)
(0.313235 0.175133 0)
(0.295011 0.177231 0)
(0.27682 0.179658 0)
(0.258647 0.18258 0)
(0.240372 0.185473 0)
(0.22189 0.187662 0)
(0.203144 0.189186 0)
(0.184046 0.19073 0)
(0.164544 0.19253 0)
(0.144724 0.193508 0)
(0.124899 0.19422 0)
(0.105261 0.195158 0)
(0.085562 0.19656 0)
(0.0664533 0.199251 0)
(0.0476034 0.203718 0)
(0.0283878 0.206868 0)
(0.00990203 0.211348 0)
(3 -1.32206e-16 0)
(3 -2.44551e-16 0)
(3 -3.43562e-16 0)
(3 -5.37102e-16 0)
(3 -7.80046e-16 0)
(3 -9.21841e-16 0)
(3 -6.23544e-16 0)
(3 -9.06619e-17 0)
(3 4.2844e-17 0)
(3 9.17599e-17 0)
(3 1.35712e-16 0)
(3 -3.50733e-16 0)
(3 -8.71373e-16 0)
(3 -5.84357e-16 0)
(3 1.0057e-15 0)
(3 1.24666e-15 0)
(3 1.72036e-15 0)
(3 1.76016e-15 0)
(3 1.89931e-15 0)
(3 1.62302e-15 0)
(3 1.01856e-15 0)
(3 -3.62144e-16 0)
(3 -7.60705e-16 0)
(3 -3.32173e-17 0)
(3 -3.62953e-17 0)
(3 -6.29547e-16 0)
(3 -1.89213e-16 0)
(3 6.41403e-16 0)
(3 8.79007e-16 0)
(3 8.51733e-16 0)
(3 1.46583e-15 0)
(3 2.04132e-15 0)
(3 1.53374e-15 0)
(3 1.66126e-16 0)
(3 -1.90887e-16 0)
(3 1.67567e-16 0)
(3 3.11218e-16 0)
(3 4.43608e-16 0)
(3 2.72521e-16 0)
(3 4.13294e-16 0)
(3 -1.86239e-16 0)
(3 -7.45198e-16 0)
(3 -6.90934e-16 0)
(3 -8.64491e-16 0)
(3 -1.20531e-15 0)
(3 -1.16256e-15 0)
(3 -3.9177e-16 0)
(3 2.71171e-16 0)
(3 -1.06015e-16 0)
(2.45571 0.12143 0)
(0.898009 0.155906 0)
(0.756019 0.141011 0)
(0.742594 0.149798 0)
(0.726695 0.154043 0)
(0.712423 0.156121 0)
(0.697594 0.15451 0)
(0.682402 0.14991 0)
(0.666573 0.144873 0)
(0.650484 0.143445 0)
(0.63521 0.147082 0)
(0.620675 0.153885 0)
(0.605707 0.160188 0)
(0.589856 0.162725 0)
(0.573691 0.160515 0)
(0.557623 0.155997 0)
(0.541458 0.154694 0)
(0.526474 0.159126 0)
(0.512562 0.166505 0)
(0.497364 0.171507 0)
(0.481153 0.170945 0)
(0.464768 0.168299 0)
(0.448461 0.169657 0)
(0.433424 0.175152 0)
(0.418201 0.179572 0)
(0.402516 0.18033 0)
(0.386341 0.181062 0)
(0.369678 0.183904 0)
(0.352416 0.187312 0)
(0.334577 0.190021 0)
(0.31645 0.192408 0)
(0.29823 0.194954 0)
(0.280021 0.197807 0)
(0.261879 0.201134 0)
(0.243714 0.204376 0)
(0.225394 0.206796 0)
(0.206798 0.208458 0)
(0.187755 0.210141 0)
(0.168168 0.21212 0)
(0.148139 0.213213 0)
(0.12804 0.213984 0)
(0.108082 0.214968 0)
(0.0880284 0.216362 0)
(0.0684542 0.218945 0)
(0.0490861 0.223529 0)
(0.0292758 0.226729 0)
(0.0102349 0.231405 0)
(3 4.81834e-17 0)
(3 -1.35135e-16 0)
(3 -4.75612e-16 0)
(3 -2.71455e-16 0)
(3 -7.78381e-16 0)
(3 -1.85963e-15 0)
(3 -1.66689e-15 0)
(3 -8.2422e-16 0)
(3 -1.14597e-15 0)
(3 -8.81411e-16 0)
(3 -7.02518e-17 0)
(3 -3.32046e-16 0)
(3 -3.36313e-16 0)
(3 -2.77271e-16 0)
(3 2.04185e-16 0)
(3 5.72893e-16 0)
(3 8.32892e-16 0)
(3 1.72718e-15 0)
(3 1.61065e-15 0)
(3 1.11349e-15 0)
(3 9.29536e-16 0)
(3 8.16592e-16 0)
(3 8.46848e-16 0)
(3 2.70922e-16 0)
(3 1.81588e-16 0)
(3 1.56795e-16 0)
(3 -4.60218e-16 0)
(3 1.35535e-16 0)
(3 3.59437e-16 0)
(3 8.32521e-16 0)
(3 1.17264e-15 0)
(3 1.54105e-15 0)
(3 1.30943e-15 0)
(3 5.77704e-16 0)
(3 -2.22217e-17 0)
(3 4.04014e-17 0)
(3 -2.26989e-16 0)
(3 -6.6604e-16 0)
(3 -8.57604e-16 0)
(3 -9.32694e-16 0)
(3 -1.39584e-15 0)
(3 -2.25902e-15 0)
(3 -2.36503e-15 0)
(3 -1.19934e-15 0)
(3 -9.91958e-16 0)
(3 -8.59434e-16 0)
(3 -5.85428e-16 0)
(3 -2.30062e-16 0)
(3 -1.30709e-15 0)
(2.61751 0.11624 0)
(0.933429 0.174093 0)
(0.764186 0.154786 0)
(0.751414 0.161844 0)
(0.73575 0.164827 0)
(0.721923 0.167302 0)
(0.707146 0.167262 0)
(0.691743 0.164254 0)
(0.675534 0.159961 0)
(0.658808 0.157812 0)
(0.642679 0.160301 0)
(0.627713 0.166415 0)
(0.612773 0.172756 0)
(0.59692 0.176129 0)
(0.580224 0.175235 0)
(0.563326 0.171377 0)
(0.546392 0.169469 0)
(0.530612 0.173088 0)
(0.516512 0.180361 0)
(0.501556 0.185937 0)
(0.485406 0.186112 0)
(0.468932 0.18356 0)
(0.452378 0.184608 0)
(0.437118 0.190057 0)
(0.421825 0.194893 0)
(0.406082 0.196066 0)
(0.389978 0.196954 0)
(0.373489 0.199956 0)
(0.356437 0.203672 0)
(0.338737 0.206814 0)
(0.320665 0.209693 0)
(0.302447 0.212703 0)
(0.284246 0.215938 0)
(0.266184 0.2196 0)
(0.24818 0.223134 0)
(0.230048 0.225774 0)
(0.211585 0.227616 0)
(0.192545 0.22954 0)
(0.172808 0.231845 0)
(0.152485 0.233229 0)
(0.132017 0.234213 0)
(0.111643 0.235358 0)
(0.0911337 0.23683 0)
(0.0709804 0.239336 0)
(0.05095 0.244024 0)
(0.0304161 0.247297 0)
(0.0106561 0.25216 0)
(3 -2.51672e-17 0)
(3 6.06604e-17 0)
(3 1.20041e-16 0)
(3 1.40374e-16 0)
(3 -1.19987e-18 0)
(3 -5.88184e-16 0)
(3 -1.33517e-15 0)
(3 -1.67461e-15 0)
(3 -1.2604e-15 0)
(3 -1.21956e-15 0)
(3 -1.04827e-15 0)
(3 -8.0274e-16 0)
(3 -6.40402e-17 0)
(3 -1.22804e-16 0)
(3 -1.03841e-16 0)
(3 2.35347e-16 0)
(3 6.10846e-16 0)
(3 6.18118e-16 0)
(3 -3.49423e-16 0)
(3 1.67901e-16 0)
(3 1.77087e-15 0)
(3 1.83327e-15 0)
(3 4.50168e-16 0)
(3 1.8341e-16 0)
(3 8.27833e-16 0)
(3 1.68329e-15 0)
(3 1.06367e-15 0)
(3 -3.58813e-16 0)
(3 -8.50156e-16 0)
(3 -2.03938e-16 0)
(3 6.96437e-16 0)
(3 6.87449e-16 0)
(3 4.11406e-16 0)
(3 -1.08455e-16 0)
(3 -8.12476e-16 0)
(3 -1.20034e-15 0)
(3 -1.25015e-15 0)
(3 -1.00909e-15 0)
(3 -7.46959e-16 0)
(3 -1.11173e-15 0)
(3 -1.91216e-15 0)
(3 -1.98299e-15 0)
(3 -1.38486e-15 0)
(3 -1.02999e-15 0)
(3 -7.32194e-16 0)
(3 -1.44903e-15 0)
(3 -1.98383e-15 0)
(3 -1.29505e-15 0)
(3 -1.89095e-15 0)
(2.77145 0.10409 0)
(0.978947 0.186405 0)
(0.775 0.164608 0)
(0.763916 0.172021 0)
(0.747838 0.175498 0)
(0.733857 0.178861 0)
(0.719143 0.179902 0)
(0.703765 0.17841 0)
(0.687507 0.175177 0)
(0.670518 0.172646 0)
(0.653639 0.1739 0)
(0.63784 0.179112 0)
(0.622357 0.185534 0)
(0.605995 0.190055 0)
(0.588573 0.190696 0)
(0.570977 0.187642 0)
(0.553631 0.185025 0)
(0.537313 0.187436 0)
(0.522946 0.194217 0)
(0.508056 0.20028 0)
(0.491635 0.20144 0)
(0.474676 0.199196 0)
(0.457605 0.199883 0)
(0.441933 0.205132 0)
(0.426516 0.210274 0)
(0.410647 0.211845 0)
(0.39444 0.212881 0)
(0.377888 0.216059 0)
(0.360823 0.220141 0)
(0.34313 0.223764 0)
(0.325114 0.22712 0)
(0.307027 0.230516 0)
(0.289027 0.23402 0)
(0.271218 0.23792 0)
(0.253464 0.24171 0)
(0.235498 0.244615 0)
(0.217062 0.246747 0)
(0.197891 0.249063 0)
(0.177882 0.251864 0)
(0.157149 0.253712 0)
(0.136194 0.255048 0)
(0.115289 0.256447 0)
(0.0942267 0.258069 0)
(0.0734295 0.260528 0)
(0.052707 0.265308 0)
(0.031491 0.268664 0)
(0.0110379 0.273708 0)
(3 6.49702e-17 0)
(3 9.02304e-17 0)
(3 5.71153e-16 0)
(3 6.83146e-16 0)
(3 7.58506e-16 0)
(3 1.01949e-15 0)
(3 5.18324e-16 0)
(3 -3.14492e-16 0)
(3 -4.26694e-16 0)
(3 -3.77218e-16 0)
(3 -1.77451e-16 0)
(3 7.62325e-17 0)
(3 1.80991e-16 0)
(3 -2.0062e-16 0)
(3 -7.53349e-16 0)
(3 -2.32691e-16 0)
(3 7.22817e-17 0)
(3 -9.19191e-16 0)
(3 -5.01592e-16 0)
(3 -2.34826e-16 0)
(3 1.04626e-16 0)
(3 4.61063e-16 0)
(3 3.29105e-16 0)
(3 3.73081e-16 0)
(3 6.3875e-16 0)
(3 9.59733e-16 0)
(3 1.95405e-15 0)
(3 1.19555e-15 0)
(3 6.05829e-16 0)
(3 1.08558e-15 0)
(3 1.59872e-15 0)
(3 8.7325e-16 0)
(3 -6.52953e-16 0)
(3 -1.28685e-15 0)
(3 -8.67481e-16 0)
(3 -9.36637e-16 0)
(3 -1.12982e-15 0)
(3 -6.45214e-16 0)
(3 -5.51838e-16 0)
(3 -1.16585e-15 0)
(3 -1.87352e-15 0)
(3 -1.97379e-15 0)
(3 -2.27173e-15 0)
(3 -2.60833e-15 0)
(3 -2.74218e-15 0)
(3 -2.48539e-15 0)
(3 -2.34849e-15 0)
(3 -1.34627e-15 0)
(3 -7.92517e-16 0)
(2.90054 0.0718441 0)
(1.02799 0.196113 0)
(0.782129 0.172215 0)
(0.774657 0.181911 0)
(0.76019 0.185737 0)
(0.746609 0.189153 0)
(0.732005 0.191368 0)
(0.716713 0.19161 0)
(0.700633 0.189853 0)
(0.683745 0.187719 0)
(0.666476 0.188207 0)
(0.64987 0.192578 0)
(0.633793 0.198989 0)
(0.61714 0.204442 0)
(0.59949 0.206313 0)
(0.581633 0.204022 0)
(0.564042 0.200867 0)
(0.547081 0.202089 0)
(0.531991 0.208353 0)
(0.516802 0.215025 0)
(0.499938 0.217344 0)
(0.482432 0.215478 0)
(0.464801 0.215626 0)
(0.448523 0.220453 0)
(0.432717 0.225844 0)
(0.416378 0.227933 0)
(0.399713 0.229187 0)
(0.382853 0.2325 0)
(0.365708 0.236844 0)
(0.348114 0.240798 0)
(0.330315 0.24447 0)
(0.312489 0.248129 0)
(0.294717 0.251847 0)
(0.277066 0.256002 0)
(0.259372 0.260141 0)
(0.241339 0.263452 0)
(0.222716 0.266027 0)
(0.203267 0.268882 0)
(0.182909 0.27232 0)
(0.161727 0.274774 0)
(0.140244 0.276568 0)
(0.118754 0.278289 0)
(0.0970899 0.280107 0)