/*--------------------------------*- C++ -*----------------------------------*\
  =========                 |
  \\      /  F ield         | OpenFOAM: The Open Source CFD Toolbox
   \\    /   O peration     | Website:  https://openfoam.org
    \\  /    A nd           | Version:  7
     \\/     M anipulation  |
\*---------------------------------------------------------------------------*/
FoamFile
{
    version     2.0;
    format      ascii;
    class       volScalarField;
    location    "0.8";
    object      T;
}
// * * * * * * * * * * * * * * * * * * * * * * * * * * * * * * * * * * * * * //

dimensions      [0 0 0 1 0 0 0];

internalField   nonuniform List<scalar> 
16128
(
1
1
1
1
1
1
1
1
1
1
1
1
1
1
1
1
1
1
1
1
1
1
1
1
1
1
1
1.06761
2.36566
2.79456
2.82518
2.82991
2.82776
2.82865
2.83491
2.8489
2.86662
2.88034
2.88779
2.89234
2.89783
2.9074
2.92213
2.94979
3.01246
3.11568
3.21726
3.25998
1
1
1
1
1
1
1
1
1
1
1
1
1
1
1
1
1
1
1
1
1
1
1
1
1
1
1
1.05512
2.35537
2.79529
2.82636
2.8284
2.82676
2.82787
2.83445
2.84871
2.86636
2.87989
2.88722
2.89177
2.89736
2.90708
2.92192
2.9499
3.01299
3.11621
3.21719
3.25951
1
1
1
1
1
1
1
1
1
1
1
1
1
1
1
1
1
1
1
1
1
1
1
1
1
1
1
1.02071
2.3327
2.7986
2.82608
2.82632
2.82493
2.82634
2.83356
2.84835
2.86591
2.87907
2.88616
2.89071
2.89653
2.90661
2.92189
2.95077
3.01517
3.11873
3.21846
3.25959
1
1
1
1
1
1
1
1
1
1
1
1
1
1
1
1
1
1
1
1
1
1
1
1
1
1
1
1.00018
2.30135
2.79979
2.8247
2.82403
2.82263
2.82443
2.8323
2.84756
2.8649
2.87755
2.88434
2.88884
2.89479
2.90519
2.9211
2.95123
3.01744
3.12182
3.22034
3.25982
1
1
1
1
1
1
1
1
1
1
1
1
1
1
1
1
1
1
1
1
1
1
1
1
1
1
1
1
2.25777
2.80019
2.8222
2.82092
2.81942
2.82148
2.82987
2.8456
2.86287
2.87519
2.88177
2.8862
2.89216
2.90266
2.91912
2.95052
3.01831
3.12352
3.2214
3.25965
1
1
1
1
1
1
1
1
1
1
1
1
1
1
1
1
1
1
1
1
1
1
1
1
1
1
1
1
2.19882
2.79915
2.8183
2.81637
2.81441
2.81661
2.82555
2.84224
2.86004
2.87232
2.87862
2.88274
2.88845
2.89882
2.91561
2.94804
3.01714
3.12326
3.22093
3.25837
1
1
1
1
1
1
1
1
1
1
1
1
1
1
1
1
1
1
1
1
1
1
1
1
1
1
1
1
2.12215
2.79472
2.81256
2.80999
2.80677
2.80895
2.81921
2.83771
2.85658
2.86893
2.87479
2.87836
2.88361
2.89368
2.91051
2.94341
3.01331
3.12053
3.21854
3.25563
1
1
1
1
1
1
1
1
1
1
1
1
1
1
1
1
1
1
1
1
1
1
1
1
1
1
1
1
2.02398
2.7833
2.80383
2.80008
2.79621
2.79928
2.8119
2.83282
2.85268
2.86491
2.87021
2.87309
2.87779
2.88742
2.90397
2.93663
3.00631
3.11422
3.21327
3.25084
1
1
1
1
1
1
1
1
1
1
1
1
1
1
1
1
1
1
1
1
1
1
1
1
1
1
1
1
1.9032
2.75877
2.79022
2.78532
2.78476
2.79057
2.8056
2.82848
2.84847
2.85991
2.8644
2.86661
2.87081
2.87988
2.89572
2.92743
2.99592
3.10403
3.20479
3.24356
1
1
1
1
1
1
1
1
1
1
1
1
1
1
1
1
1
1
1
1
1
1
1
1
1
1
1
1
1.74234
2.70926
2.7699
2.76814
2.77274
2.78461
2.80253
2.82496
2.84359
2.85309
2.85668
2.85861
2.86279
2.87155
2.88645
2.91645
2.98262
3.09
3.19234
3.23242
1
1
1
1
1
1
1
1
1
1
1
1
1
1
1
1
1
1
1
1
1
1
1
1
1
1
1
1
1.5267
2.61831
2.7462
2.75364
2.76564
2.7823
2.80154
2.821
2.83643
2.84368
2.84669
2.84914
2.85413
2.86261
2.87561
2.90274
2.96536
3.07139
3.17572
3.21776
1
1
1
1
1
1
1
1
1
1
1
1
1
1
1
1
1
1
1
1
1
1
1
1
1
1
1
1
1.28982
2.50379
2.73306
2.74745
2.76379
2.78068
2.79788
2.81368
2.82544
2.8314
2.83463
2.83848
2.84468
2.85284
2.86357
2.88729
2.94525
3.04847
3.15379
3.19706
1
1
1
1
1
1
1
1
1
1
1
1
1
1
1
1
1
1
1
1
1
1
1
1
1
1
1
1
1.07712
2.38788
2.72421
2.74759
2.7651
2.77819
2.7903
2.80181
2.81046
2.81623
2.8204
2.82631
2.83393
2.84149
2.84983
2.86849
2.91906
3.01756
3.12411
3.17111
1
1
1
1
1
1
1
1
1
1
1
1
1
1
1
1
1
1
1
1
1
1
1
1
1
1
1
1
1.00141
2.25162
2.72746
2.75226
2.76362
2.77086
2.77775
2.78541
2.79262
2.79859
2.80444
2.81277
2.82153
2.82772
2.83345
2.84693
2.88974
2.98229
3.08741
3.12996
1
1
1
1
1
1
1
1
1
1
1
1
1
1
1
1
1
1
1
1
1
1
1
1
1
1
1
1
1
2.04585
2.70515
2.74595
2.75352
2.75564
2.75862
2.76421
2.77209
2.77969
2.78844
2.79881
2.80717
2.8116
2.81441
2.82195
2.85254
2.92996
3.03014
3.07633
1
1
1
1
1
1
1
1
1
1
1
1
1
1
1
1
1
1
1
1
1
1
1
1
1
1
1
1
1
1.71601
2.61961
2.72979
2.73446
2.736
2.73863
2.74421
2.75314
2.76329
2.77394
2.78436
2.79124
2.79294
2.79177
2.79229
2.80936
2.87196
2.97297
3.04547
1
1
1
1
1
1
1
1
1
1
1
1
1
1
1
1
1
1
1
1
1
1
1
1
1
1
1
1
1
1.28024
2.47171
2.71282
2.71882
2.72287
2.72297
2.72483
2.73149
2.74338
2.75708
2.76848
2.77403
2.77264
2.76638
2.75948
2.76305
2.79144
2.81852
2.77664
1
1
1
1
1
1
1
1
1
1
1
1
1
1
1
1
1
1
1
1
1
1
1
1
1
1
1
1
1
1.01553
2.31099
2.67783
2.69803
2.71014
2.71259
2.71555
2.72129
2.73103
2.74253
2.75204
2.75484
2.75099
2.73998
2.72362
2.7097
2.69929
2.6914
2.58179
1
1
1
1
1
1
1
1
1
1
1
1
1
1
1
1
1
1
1
1
1
1
1
1
1
1
1
1
1
1.00007
2.06505
2.64862
2.68619
2.70134
2.7061
2.70919
2.71353
2.72024
2.72754
2.73339
2.73289
2.7266
2.71151
2.68786
2.65979
2.628
2.57994
2.43673
1
1
1
1
1
1
1
1
1
1
1
1
1
1
1
1
1
1
1
1
1
1
1
1
1
1
1
1
1
1
1.67425
2.56052
2.66939
2.68199
2.69308
2.69981
2.70443
2.70843
2.71076
2.71165
2.70811
2.69852
2.68034
2.65334
2.61643
2.57325
2.49406
2.3654
1
1
1
1
1
1
1
1
1
1
1
1
1
1
1
1
1
1
1
1
1
1
1
1
1
1
1
1
1
1
1.15969
2.39324
2.65916
2.66181
2.67368
2.6846
2.68928
2.69123
2.69082
2.68782
2.68037
2.66783
2.64797
2.62012
2.58116
2.53029
2.44182
2.33066
1
1
1
1
1
1
1
1
1
1
1
1
1
1
1
1
1
1
1
1
1
1
1
1
1
1
1
1
1
1
1.0045
2.18227
2.6144
2.64402
2.65896
2.66973
2.67198
2.67154
2.6689
2.66258
2.65205
2.63709
2.61663
2.58875
2.55073
2.49607
2.41347
2.31771
1
1
1
1
1
1
1
1
1
1
1
1
1
1
1
1
1
1
1
1
1
1
1
1
1
1
1
1
1
1
1
1.7764
2.53386
2.62485
2.63985
2.65079
2.6509
2.64914
2.64464
2.63634
2.62443
2.60859
2.58858
2.56148
2.52579
2.47157
2.39915
2.31476
1
1
1
1
1
1
1
1
1
1
1
1
1
1
1
1
1
1
1
1
1
1
1
1
1
1
1
1
1
1
1
1.20568
2.3744
2.61833
2.61739
2.62731
2.62882
2.62601
2.62001
2.61061
2.59837
2.58342
2.56457
2.53914
2.50505
2.45477
2.3915
2.31743
1
1
1
1
1
1
1
1
1
1
1
1
1
1
1
1
1
1
1
1
1
1
1
1
1
1
1
1
1
1
1
1.00763
2.14437
2.56898
2.59833
2.60861
2.60955
2.60569
2.59839
2.58829
2.57568
2.56192
2.54475
2.52259
2.48938
2.44463
2.38869
2.3239
1
1
1
1
1
1
1
1
1
1
1
1
1
1
1
1
1
1
1
1
1
1
1
1
1
1
1
1
1
1
1
1.00001
1.65934
2.47524
2.58634
2.58856
2.58781
2.58412
2.57616
2.56557
2.55285
2.54029
2.52539
2.50657
2.47485
2.43587
2.38691
2.33118
1
1
1
1
1
1
1
1
1
1
1
1
1
1
1
1
1
1
1
1
1
1
1
1
1
1
1
1
1
1
1
1
1.09931
2.29238
2.5657
2.56303
2.56592
2.56394
2.55672
2.54603
2.53243
2.52037
2.50733
2.48966
2.46248
2.42832
2.3854
2.33604
1
1
1
1
1
1
1
1
1
1
1
1
1
1
1
1
1
1
1
1
1
1
1
1
1
1
1
1
1
1
1
1
1.0018
1.93822
2.4965
2.54157
2.54821
2.54648
2.53945
2.52854
2.51534
2.50228
2.4881
2.47116
2.44801
2.41776
2.38065
2.33594
1
1
1
1
1
1
1
1
1
1
1
1
1
1
1
1
1
1
1
1
1
1
1
1
1
1
1
1
1
1
1
1
1
1.29933
2.34545
2.5296
2.52676
2.52638
2.52107
2.51158
2.49918
2.48498
2.46894
2.45206
2.4318
2.40559
2.37357
2.3337
1
1
1
1
1
1
1
1
1
1
1
1
1
1
1
1
1
1
1
1
1
1
1
1
1
1
1
1
1
1
1
1
1
1.01623
2.07934
2.47234
2.5
2.50096
2.49947
2.49398
2.48379
2.46874
2.45108
2.43298
2.41338
2.39012
2.36182
2.32733
1
1
1
1
1
1
1
1
1
1
1
1
1
1
1
1
1
1
1
1
1
1
1
1
1
1
1
1
1
1
1
1
1
1.00004
1.45715
2.34698
2.48635
2.47881
2.4771
2.47325
2.46545
2.45199
2.43458
2.41547
2.39552
2.37427
2.349
2.31891
1
1
1
1
1
1
1
1
1
1
1
1
1
1
1
1
1
1
1
1
1
1
1
1
1
1
1
1
1
1
1
1
1
1
1.04122
2.10725
2.43638
2.45318
2.45246
2.45048
2.44514
2.43469
2.41923
2.4005
2.38005
2.35833
2.33419
2.30694
1
1
1
1
1
1
1
1
1
1
1
1
1
1
1
1
1
1
1
1
1
1
1
1
1
1
1
1
1
1
1
1
1
1
1.00029
1.48493
2.30604
2.44217
2.43356
2.43126
2.42553
2.41606
2.40251
2.38536
2.36533
2.34315
2.31964
2.29411
1
1
1
1
1
1
1
1
1
1
1
1
1
1
1
1
1
1
1
1
1
1
1
1
1
1
1
1
1
1
1
1
1
1
1
1.04746
2.05977
2.39286
2.41133
2.40908
2.40325
2.39471
2.3835
2.36896
2.3506
2.3291
2.3063
2.28193
1
1
1
1
1
1
1
1
1
1
1
1
1
1
1
1
1
1
1
1
1
1
1
1
1
1
1
1
1
1
1
1
1
1
1
1.00039
1.41857
2.24476
2.39949
2.39104
2.38439
2.37549
2.36486
2.35154
2.33482
2.31492
2.29324
2.27011
1
1
1
1
1
1
1
1
1
1
1
1
1
1
1
1
1
1
1
1
1
1
1
1
1
1
1
1
1
1
1
1
1
1
1
1
1.03553
1.9469
2.33617
2.36906
2.36061
2.35195
2.34307
2.33241
2.31857
2.30119
2.28122
2.25972
1
1
1
1
1
1
1
1
1
1
1
1
1
1
1
1
1
1
1
1
1
1
1
1
1
1
1
1
1
1
1
1
1
1
1
1
1.00028
1.31047
2.16535
2.35471
2.34269
2.33468
2.32422
2.31276
2.30055
2.28618
2.26861
2.24836
1
1
1
1
1
1
1
1
1
1
1
1
1
1
1
1
1
1
1
1
1
1
1
1
1
1
1
1
1
1
1
1
1
1
1
1
1
1.01755
1.72955
2.25016
2.32336
2.31136
2.30275
2.29231
2.28173
2.27027
2.2559
2.23786
1
1
1
1
1
1
1
1
1
1
1
1
1
1
1
1
1
1
1
1
1
1
1
1
1
1
1
1
1
1
1
1
1
1
1
1
1
1.0001
1.15321
2.03113
2.30103
2.29363
2.28443
2.27459
2.26404
2.25335
2.24106
2.22544
1
1
1
1
1
1
1
1
1
1
1
1
1
1
1
1
1
1
1
1
1
1
1
1
1
1
1
1
1
1
1
1
1
1
1
1
1
1
1.00402
1.47256
2.15624
2.27903
2.26562
2.25978
2.25122
2.24128
2.22911
2.21438
1
1
1
1
1
1
1
1
1
1
1
1
1
1
1
1
1
1
1
1
1
1
1
1
1
1
1
1
1
1
1
1
1
1
1
1
1
1
1.00001
1.0496
1.79126
2.19522
2.25031
2.23874
2.23193
2.22298
2.21189
2.19859
1
1
1
1
1
1
1
1
1
1
1
1
1
1
1
1
1
1
1
1
1
1
1
1
1
1
1
1
1
1
1
1
1
1
1
1
1
1
1
1.0006
1.2114
1.97528
2.2279
2.22149
2.21481
2.20665
2.19573
2.18282
1
1
1
1
1
1
1
1
1
1
1
1
1
1
1
1
1
1
1
1
1
1
1
1
1
1
1
1
1
1
1
1
1
1
1
1
1
1
1
1
1.0082
1.45305
2.07476
2.20694
2.19588
2.18962
2.18088
2.16932
1
1
1
1
1
1
1
1
1
1
1
1
1
1
1
1
1
1
1
1
1
1
1
1
1
1
1
1
1
1
1
1
1
1
1
1
1
1
1
1
1.00004
1.04796
1.6756
2.11588
2.18483
2.17073
2.16154
2.15184
1
1
1
1
1
1
1
1
1
1
1
1
1
1
1
1
1
1
1
1
1
1
1
1
1
1
1
1
1
1
1
1
1
1
1
1
1
1
1
1
1
1.00062
1.14671
1.84934
2.12219
2.16029
2.14618
2.13528
1
1
1
1
1
1
1
1
1
1
1
1
1
1
1
1
1
1
1
1
1
1
1
1
1
1
1
1
1
1
1
1
1
1
1
1
1
1
1
1
1
1
1.00428
1.30852
1.93618
2.12881
2.13169
2.12155
1
1
1
1
1
1
1
1
1
1
1
1
1
1
1
1
1
1
1
1
1
1
1
1
1
1
1
1
1
1
1
1
1
1
1
1
1
1
1
1
1
1
1.00002
1.01953
1.46724
1.98689
2.11392
2.1091
1
1
1
1
1
1
1
1
1
1
1
1
1
1
1
1
1
1
1
1
1
1
1
1
1
1
1
1
1
1
1
1
1
1
1
1
1
1
1
1
1
1
1
1.00017
1.05684
1.59765
2.01439
2.09473
1
1
1
1
1
1
1
1
1
1
1
1
1
1
1
1
1
1
1
1
1
1
1
1
1
1
1
1
1
1
1
1
1
1
1
1
1
1
1
1
1
1
1
1
1.00089
1.11769
1.69762
2.0212
1
1
1
1
1
1
1
1
1
1
1
1
1
1
1
1
1
1
1
1
1
1
1
1
1
1
1
1
1
1
1
1
1
1
1
1
1
1
1
1
1
1
1
1
1
1.00309
1.19352
1.76376
1
1
1
1
1
1
1
1
1
1
1
1
1
1
1
1
1
1
1
1
1
1
1
1
1
1
1
1
1
1
1
1
1
1
1
1
1
1
1
1
1
1
1
1
1
1.00001
1.00798
1.27164
1
1
1
1
1
1
1
1
1
1
1
1
1
1
1
1
1
1
1
1
1
1
1
1
1
1
1
1
1
1
1
1
1
1
1
1
1
1
1
1
1
1
1
1
1
1
1.00005
1.01654
1
1
1
1
1
1
1
1
1
1
1
1
1
1
1
1
1
1
1
1
1
1
1
1
1
1
1
1
1
1
1
1
1
1
1
1
1
1
1
1
1
1
1
1
1
1
1
1.00015
1
1
1
1
1
1
1
1
1
1
1
1
1
1
1
1
1
1
1
1
1
1
1
1
1
1
1
1
1
1
1
1
1
1
1
1
1
1
1
1
1
1
1
1
1
1
1
1
1
1
1
1
1
1
1
1
1
1
1
1
1
1
1
1
1
1
1
1
1
1
1
1
1
1
1
1
1
1
1
1
1
1
1
1
1
1
1
1
1
1
1
1
1
1
1
1
1
1
1
1
1
1
1
1
1
1
1
1
1
1
1
1
1
1
1
1
1
1
1
1
1
1
1
1
1
1
1
1
1
1
1
1
1
1
1
1
1
1
1
1
1
1
1
1
1
1
1
1
1
1
1
1
1
1
1
1
1
1
1
1
1
1
1
1
1
1
1
1
1
1
1
1
1
1
1
1
1
1
1
1
1
1
1
1
1
1
1
1
1
1
1
1
1
1
1
1
1
1
1
1
1
1
1
1
1
1
1
1
1
1
1
1
1
1
1
1
1
1
1
1
1
1
1
1
1
1
1
1
1
1
1
1
1
1
1
1
1
1
1
1
1
1
1
1
1
1
1
1
1
1
1
1
1
1
1
1
1
1
1
1
1
1
1
1
1
1
1
1
1
1
1
1
1
1
1
1
1
1
1
1
1
1
1
1
1
1
1
1
1
1
1
1
1
1
1
1
1
1
1
1
1
1
1
1
1
1
1
1
1
1
1
1
1
1
1
1
1
1
1
1
1
1
1
1
1
1
1
1
1
1
1
1
1
1
1
1
1
1
1
1
1
1
1
1
1
1
1
1
1
1
1
1
1
1
1
1
1
1
1
1
1
1
1
1
1
1
1
1
1
1
1
1
1
1
1
1
1
1
1
1
1
1
1
1
1
1
1
1
1
1
1
1
1
1
1
1
1
1
1
1
1
1
1
1
1
1
1
1
1
1
1
1
1
1
1
1
1
1
1
1
1
1
1
1
1
1
1
1
1
1
1
1
1
1
1
1
1
1
1
1
1
1
1
1
1
1
1
1
1
1
1
1
1
1
1
1
1
1
1
1
1
1
1
1
1
1
1
1
1
1
1
1
1
1
1
1
1
1
1
1
1
1
1
1
1
1
1
1
1
1
1
1
1
1
1
1
1
1
1
1
1
1
1
1
1
1
1
1
1
1
1
1
1
1
1
1
1
1
1
1
1
1
1
1
1
1
1
1
1
1
1
1
1
1
1
1
1
1
1
1
1
1
1
1
1
1
1
1
1
1
1
1
1
1
1
1
1
1
1
1
1
1
1
1
1
1
1
1
1
1
1
1
1
1
1
1
1
1
1
1
1
1
1
1
1
1
1
1
1
1
1
1
1
1
1
1
1
1
1
1
1
1
1
1
1
1
1
1
1
1
1
1
1
1
1
1
1
1
1
1
1
1
1
1
1
1
1
1
1
1
1
1
1
1
1
1
1
1
1
1
1
1
1
1
1
1
1
1
1
1
1
1
1
1
1
1
1
1
1
1
1
1
1
1
1
1
1
1
1
1
1
1
1
1
1
1
1
1
1
1
1
1
1
1
1
1
1
1
1
1
1
1
1
1
1
1
1
1
1
1
1
1
1
1
1
1
1
1
1
1
1
1
1
1
1
1
1
1
1
1
1
1
1
1
1
1
1
1
1
1
1
1
1
1
1
1
1
1
1
1
1
1
1
1
1
1
1
1
1
1
1
1
1
1
1
1
1
1
1
1
1
1
1
1
1
1
1
1
1
1
1
1
1
1
1
1
1
1
1
1
1
1
1
1
1
1
1
1
1
1
1
1
1
1
1
1
1
1
1
1
1
1
1
1
1
1
1
1
1
1
1
1
1
1
1
1
1
1
1
1
1
1
1
1
1
1
1
1
1
1
1
1
1
1
1
1
1
1
1
1
1
1
1
1
1
1
1
1
1
1
1
1
1
1
1
1
1
1
1
1
1
1
1
1
1
1
1
1
1
1
1
1
1
1
1
1
1
1
1
1
1
1
1
1
1
1
1
1
1
1
1
1
1
1
1
1
1
1
1
1
1
1
1
1
1
1
1
1
1
1
1
1
1
1
1
1
1
1
1
1
1
1
1
1
1
1
1
1
1
1
1
1
1
1
1
1
1
1
1
1
1
1
1
1
1
1
1
1
1
1
1
1
1
1
1
1
1
1
1
1
1
1
1
1
1
1
1
1
1
1
1
1
1
1
1
1
1
1
1
1
1
1
1
1
1
1
1
1
1
1
1
1
1
1
1
1
1
1
1
1
1
1
1
1
1
1
1
1
1
1
1
1
1
1
1
1
1
1
1
1
1
1
1
1
1
1
1
1
1
1
1
1
1
1
1
1
1
1
1
1
1
1
1
1
1
1
1
1
1
1
1
1
1
1
1
1
1
1
1
1
1
1
1
1
1
1
1
1
1
1
1
1
1
1
1
1
1
1
1
1
1
1
1
1
1
1
1
1
1
1
1
1
1
1
1
1
1
1
1
1
1
1
1
1
1
1
1
1
1
1
1
1
1
1
1
1
1
1
1
1
1
1
1
1
1
1
1
1
1
1
1
1
1
1
1
1
1
1
1
1
1
1
1
1
1
1
1
1
1
1
1
1
1
1
1
1
1
1
1
1
1
1
1
1
1
1
1
1
1
1
1
1
1
1
1
1
1
1
1
1
1
1
1
1
1
1
1
1
1
1
1
1
1
1
1
1
1
1
1
1
1
1
1
1
1
1
1
1
1
1
1
1
1
1
1
1
1
1
1
1
1
1
1
1
1
1
1
1
1
1
1
1
1
1
1
1
1
1
1
1
1
1
1
1
1
1
1
1
1
1
1
1
1
1
1
1
1
1
1
1
1
1
1
1
1
1
1
1
1
1
1
1
1
1
1
1
1
1
1
1
1
1
1
1
1
1
1
1
1
1
1
1
1
1
1
1
1.83976
1.11458
0.586225
0.814637
1.25181
1.27844
1.3118
1.39192
1.47757
1.51381
1.55996
1.63464
1.7668
1.84889
1.84893
1.84569
1.84945
1.86349
1.91994
1.98101
1.98101
1.9505
1.91658
1.91888
1.94407
1.98023
1.98493
1.97777
1.94193
1.89553
1.88457
1.89167
1.92346
1.96518
1.97846
1.97704
1.96665
1.94375
1.92422
1.92
1.92126
1.9317
1.93706
1.93493
1.93273
1.93137
1.92764
1.92359
1.92198
1.92066
1.91931
1.91648
1.9116
1.90922
1.90791
1.90541
1.90349
1.90274
1.90149
1.89964
1.8978
1.89685
1.89728
1.89794
1.89849
1.89937
1.90017
1.90054
1.90065
1.90028
1.89835
1.89464
1.89223
1.89207
1.89376
1.89669
1.89864
1.90073
1.90394
1.90804
1.91109
1.91111
1.90686
1.89695
1.88257
1.86698
1.85437
1.84569
1.84187
1.84138
1.8418
1.84653
1.85676
1.86706
1.87309
1.87515
1.87569
1.87395
1.86338
1.84424
1.83224
1.82759
1.82525
1.82418
1.82453
1.82818
1.83274
1.83547
1.83736
1.83817
1.83759
1.83427
1.82672
1.82111
1.8205
1.82068
1.82483
1.83281
1.83815
1.84187
1.84487
1.84646
1.84521
1.84295
1.84405
1.84682
1.85045
1.85578
1.86177
1.86731
1.87203
1.87506
1.87449
1.87306
1.8757
1.87953
1.88183
1.88407
1.88581
1.88606
1.88455
1.88163
1.87613
1.87239
1.87237
1.87221
1.87229
1.87353
1.87432
1.87359
1.86998
1.86416
1.85683
1.84806
1.83937
1.83264
1.82814
1.82377
1.81604
1.80059
1.77297
1.73148
1.68662
1.66051
1.65227
1.64986
1.64764
1.64357
1.63915
1.629
1.6091
1.57858
1.53835
1.48977
1.43255
1.3614
1.2651
1.13782
1.01948
0.977485
0.976713
0.976962
0.976112
0.976119
0.976574
0.977468
0.978887
0.980798
0.984686
0.991844
0.995705
0.997458
2.10611
1.78486
1.45265
1.23414
1.26665
1.27957
1.27057
1.248
1.224
1.23107
1.25925
1.32383
1.38759
1.44526
1.50594
1.54529
1.58268
1.62127
1.67264
1.73781
1.78588
1.79225
1.79712
1.81257
1.83867
1.87229
1.88379
1.8824
1.86537
1.83299
1.82464
1.83013
1.85382
1.8875
1.90358
1.90506
1.9003
1.88378
1.87084
1.87024
1.87393
1.8866
1.89477
1.89614
1.89643
1.89445
1.89012
1.88655
1.88423
1.88272
1.88183
1.88102
1.87812
1.87814
1.87944
1.87979
1.87846
1.87576
1.87396
1.87269
1.87177
1.87084
1.87086
1.87158
1.87259
1.87434
1.87594
1.87748
1.87924
1.88049
1.88061
1.87966
1.87675
1.8738
1.87345
1.87488
1.8774
1.87913
1.88068
1.88238
1.88337
1.88335
1.88206
1.87786
1.87109
1.86441
1.85766
1.85033
1.84252
1.83693
1.83583
1.83694
1.84377
1.8522
1.85444
1.85567
1.85595
1.85392
1.8467
1.83623
1.82947
1.82545
1.82237
1.82032
1.81977
1.821
1.82304
1.82388
1.82409
1.82376
1.82241
1.82089
1.82063
1.81955
1.81806
1.81801
1.82026
1.82452
1.8274
1.82976
1.83237
1.83542
1.83809
1.84029
1.84197
1.84384
1.8461
1.84903
1.85281
1.85691
1.86107
1.86562
1.86891
1.87159
1.875
1.87735
1.87872
1.87969
1.87963
1.87828
1.87712
1.87586
1.87393
1.87197
1.86994
1.86903
1.86877
1.86874
1.86815
1.86609
1.86357
1.86026
1.85489
1.84769
1.84003
1.83247
1.82653
1.82094
1.81243
1.79693
1.77012
1.72993
1.6856
1.65982
1.65222
1.64892
1.64591
1.64169
1.63692
1.62688
1.6073
1.57663
1.53573
1.48549
1.426
1.35613
1.26626
1.14683
1.02727
0.977392
0.975279
0.975803
0.974529
0.974009
0.974403
0.975539
0.977337
0.980449
0.984965
0.990124
0.99349
0.995823
2.1356
1.94363
1.76753
1.60196
1.50183
1.43474
1.34323
1.29267
1.28562
1.26356
1.23543
1.24777
1.26212
1.28223
1.31064
1.33086
1.34762
1.37508
1.41335
1.46279
1.52316
1.56884
1.60559
1.63913
1.66451
1.69068
1.71409
1.73906
1.74146
1.73365
1.73069
1.73217
1.74128
1.75755
1.76906
1.77377
1.7718
1.76335
1.75793
1.75804
1.76208
1.77199
1.782
1.79245
1.80119
1.80401
1.80443
1.80373
1.80149
1.79972
1.79868
1.79788
1.79783
1.79947
1.80366
1.80572
1.80541
1.8044
1.80448
1.80543
1.80668
1.80646
1.80635
1.80633
1.80592
1.80583
1.80623
1.80756
1.81114
1.81583
1.81875
1.82073
1.82247
1.82384
1.82529
1.82818
1.83101
1.83098
1.82862
1.82456
1.82214
1.82164
1.82112
1.82075
1.82182
1.82307
1.82306
1.82245
1.8216
1.81983
1.8163
1.81317
1.81297
1.81355
1.81362
1.81349
1.81266
1.80955
1.80403
1.80116
1.79867
1.79596
1.79459
1.79475
1.7965
1.79783
1.79767
1.79664
1.79334
1.78799
1.78428
1.78422
1.78662
1.79126
1.79678
1.80032
1.80167
1.80264
1.8025
1.80087
1.80034
1.80298
1.8086
1.81447
1.82082
1.82603
1.82959
1.83227
1.83283
1.83262
1.83294
1.83553
1.84245
1.85083
1.85843
1.86375
1.86569
1.86583
1.86377
1.85853
1.85516
1.8545
1.85448
1.85516
1.8569
1.85776
1.85772
1.85653
1.85201
1.84681
1.84541
1.84305
1.83833
1.83356
1.8302
1.82669
1.8209
1.81353
1.80349
1.78772
1.76287
1.72695
1.6868
1.66027
1.65056
1.64453
1.63904
1.63441
1.62877
1.61818
1.59898
1.56943
1.52951
1.48041
1.42278
1.35335
1.27172
1.17196
1.06451
0.994746
0.975721
0.974059
0.974187
0.975366
0.976069
0.977351
0.979779
0.983935
0.986977
0.988311
0.990296
0.994733
2.16661
2.02329
1.878
1.74463
1.68192
1.60286
1.49458
1.43884
1.4205
1.37934
1.32708
1.3179
1.30514
1.28456
1.26623
1.26182
1.26201
1.27001
1.28809
1.31355
1.354
1.39092
1.43286
1.47942
1.49975
1.51367
1.53418
1.56516
1.60122
1.61635
1.62558
1.63181
1.63279
1.63589
1.64165
1.64861
1.65092
1.64792
1.64592
1.64667
1.64987
1.65558
1.66291
1.6721
1.68043
1.68812
1.69344
1.69513
1.69622
1.69709
1.69772
1.69865
1.70027
1.70271
1.70552
1.70634
1.7062
1.70644
1.70751
1.70965
1.71225
1.71405
1.71521
1.71549
1.71535
1.71533
1.71578
1.71735
1.72058
1.7255
1.72961
1.73179
1.73329
1.73485
1.73732
1.74198
1.74896
1.75428
1.75487
1.75361
1.75078
1.74877
1.74845
1.74935
1.75174
1.75482
1.75808
1.76123
1.76334
1.76427
1.76425
1.76173
1.75672
1.75446
1.75415
1.7537
1.75214
1.75023
1.74956
1.74917
1.74781
1.74533
1.74403
1.74426
1.74497
1.74518
1.74523
1.74411
1.74074
1.7367
1.73519
1.73521
1.73694
1.74309
1.75091
1.75424
1.7555
1.7573
1.75806
1.75718
1.75712
1.76058
1.76544
1.77078
1.77729
1.7821
1.7854
1.7888
1.79103
1.79163
1.79226
1.79499
1.80187
1.81078
1.81973
1.82657
1.83021
1.83187
1.83179
1.82859
1.82426
1.82271
1.82174
1.82158
1.82284
1.82409
1.82415
1.82417
1.82322
1.82004
1.81757
1.81586
1.81252
1.80805
1.80418
1.80088
1.79592
1.78871
1.77946
1.7667
1.7477
1.72046
1.68801
1.66194
1.64902
1.639
1.62825
1.61923
1.6101
1.59709
1.5771
1.54815
1.50922
1.46144
1.40805
1.34907
1.27809
1.19515
1.1058
1.02425
0.981527
0.972634
0.97217
0.974242
0.978407
0.981142
0.983313
0.985041
0.98623
0.987857
0.989773
0.99378
2.18127
2.06663
1.95931
1.8476
1.77073
1.69825
1.60359
1.55968
1.52875
1.47769
1.41848
1.38902
1.36448
1.33697
1.30788
1.2901
1.28245
1.28191
1.28335
1.29331
1.29194
1.28599
1.28773
1.30799
1.33575
1.36236
1.4004
1.44196
1.48555
1.51384
1.52583
1.53656
1.53833
1.53925
1.54346
1.55047
1.56349
1.57713
1.58103
1.58389
1.58772
1.59093
1.59213
1.59267
1.59441
1.59869
1.60259
1.60661
1.6102
1.6125
1.61521
1.61804
1.62083
1.62376
1.62463
1.62421
1.62286
1.62233
1.62255
1.6238
1.62648
1.62979
1.63222
1.63309
1.63357
1.63409
1.63455
1.63534
1.6372
1.64059
1.64422
1.64657
1.64787
1.64922
1.65155
1.6561
1.66357
1.67078
1.67352
1.67348
1.67157
1.66968
1.6698
1.67211
1.67682
1.68178
1.68669
1.69123
1.69326
1.69481
1.69592
1.69521
1.69012
1.68271
1.67895
1.67828
1.67908
1.68108
1.68249
1.68381
1.68453
1.68466
1.68474
1.68419
1.68305
1.6808
1.67701
1.67273
1.67006
1.66982
1.67057
1.6731
1.67893
1.68661
1.69077
1.69221
1.69377
1.69403
1.69306
1.69335
1.69771
1.70426
1.71091
1.71684
1.72032
1.72273
1.72507
1.726
1.7266
1.72847
1.73296
1.73989
1.74842
1.75731
1.76478
1.77056
1.7734
1.77378
1.77402
1.77531
1.77635
1.77748
1.77754
1.77706
1.77576
1.77372
1.77122
1.76964
1.76949
1.77001
1.77078
1.77117
1.77103
1.77005
1.76654
1.76068
1.75361
1.74535
1.73565
1.72441
1.71154
1.69623
1.6778
1.6591
1.64522
1.63272
1.61783
1.60353
1.58906
1.57136
1.54802
1.51747
1.47816
1.43057
1.37849
1.32526
1.26827
1.2017
1.12215
1.04075
0.987488
0.974203
0.973847
0.977432
0.983128
0.984038
0.984516
0.985201
0.985993
0.987122
0.988644
0.992094
2.20291
2.10454
2.00498
1.91763
1.84232
1.7709
1.68518
1.63447
1.60056
1.55151
1.50336
1.47232
1.43944
1.39904
1.36937
1.34491
1.3282
1.32047
1.30847
1.2955
1.2874
1.27612
1.26342
1.26062
1.26439
1.27287
1.28756
1.3161
1.35703
1.40312
1.42523
1.44346
1.4563
1.46364
1.47491
1.48558
1.4986
1.51677
1.52543
1.53134
1.53722
1.54005
1.54052
1.5408
1.54319
1.54728
1.54913
1.5523
1.55586
1.55928
1.56348
1.56736
1.56939
1.57202
1.57304
1.57188
1.5704
1.56965
1.56837
1.56741
1.56774
1.56891
1.57041
1.57173
1.57267
1.57307
1.57305
1.57331
1.57485
1.57839
1.58269
1.58624
1.58908
1.59136
1.59384
1.59747
1.60256
1.60803
1.61148
1.61215
1.61123
1.60787
1.60519
1.60582
1.61016
1.61636
1.6222
1.62797
1.6311
1.63237
1.63345
1.63348
1.63101
1.62368
1.61744
1.61716
1.61932
1.62193
1.62398
1.62658
1.62897
1.63042
1.63026
1.62787
1.62262
1.61613
1.61121
1.60909
1.60896
1.60971
1.61233
1.61798
1.62597
1.63155
1.63334
1.63382
1.63279
1.63058
1.63025
1.63342
1.64012
1.64819
1.65597
1.66038
1.66264
1.66339
1.66266
1.66194
1.66284
1.66668
1.67247
1.68031
1.6891
1.69689
1.70381
1.70858
1.71005
1.71026
1.71143
1.71405
1.71707
1.72006
1.72081
1.72075
1.71988
1.71756
1.71344
1.71019
1.71022
1.71084
1.71185
1.71282
1.71304
1.71298
1.71179
1.70791
1.70161
1.69329
1.68308
1.67167
1.66091
1.65267
1.64549
1.63707
1.62771
1.61702
1.60299
1.5868
1.56869
1.54688
1.5197
1.48567
1.44313
1.393
1.33881
1.2843
1.23159
1.17654
1.11339
1.04475
0.994478
0.979367
0.978553
0.98156
0.985836
0.985983
0.985825
0.985819
0.986056
0.986624
0.98758
0.990856
2.22072
2.1335
2.04527
1.96751
1.89453
1.82594
1.75437
1.70631
1.6608
1.60804
1.55656
1.52854
1.49713
1.45854
1.42693
1.39439
1.37007
1.36168
1.34979
1.32959
1.31655
1.3042
1.28492
1.27637
1.27633
1.2737
1.27482
1.27799
1.28291
1.2894
1.29948
1.31295
1.33715
1.36019
1.38849
1.4192
1.44036
1.46502
1.4801
1.4917
1.50146
1.50443
1.505
1.5062
1.50992
1.51403
1.51746
1.52113
1.52484
1.53011
1.53511
1.5352
1.53531
1.53676
1.53745
1.53646
1.53575
1.53536
1.53466
1.53376
1.53301
1.5325
1.53253
1.53308
1.53384
1.53461
1.53519
1.53638
1.53905
1.54334
1.54745
1.54985
1.55197
1.55367
1.55499
1.55652
1.55912
1.56305
1.56645
1.56843
1.56905
1.56821
1.56461
1.56259
1.56427
1.56961
1.57542
1.58019
1.58337
1.58427
1.58469
1.58482
1.58429
1.58159
1.57775
1.57702
1.57819
1.58063
1.58462
1.58814
1.58861
1.58739
1.58355
1.57585
1.56688
1.56237
1.56121
1.56119
1.56253
1.56674
1.57407
1.58162
1.58468
1.58456
1.58271
1.57915
1.57667
1.57699
1.58058
1.58713
1.59645
1.60542
1.60991
1.61125
1.61009
1.60677
1.60521
1.60649
1.61015
1.61594
1.62357
1.63091
1.6363
1.64045
1.64335
1.64462
1.64566
1.64834
1.65212
1.65616
1.66028
1.66204
1.66222
1.66195
1.66014
1.6574
1.65467
1.65309
1.65251
1.65249
1.65278
1.65256
1.65106
1.64899
1.64684
1.64387
1.63944
1.63294
1.62417
1.61444
1.60484
1.59797
1.5957
1.59423
1.59129
1.5858
1.57689
1.56417
1.54713
1.52448
1.49505
1.45778
1.41197
1.35883
1.30071
1.24036
1.18191
1.12867
1.0791
1.03077
0.99601
0.98459
0.983748
0.985927
0.988916
0.988714
0.987705
0.986825
0.986325
0.986308
0.986609
0.98953
2.23796
2.15707
2.07963
2.00963
1.94042
1.8691
1.8124
1.75706
1.70848
1.66449
1.61815
1.57781
1.53524
1.49384
1.47216
1.4521
1.42796
1.40994
1.39455
1.37802
1.36054
1.34231
1.3211
1.30679
1.30104
1.29342
1.28509
1.28066
1.27688
1.27156
1.25946
1.25067
1.2511
1.25607
1.27279
1.31015
1.3492
1.38628
1.41773
1.44192
1.46423
1.47119
1.47301
1.47685
1.48241
1.4882
1.49367
1.49589
1.50085
1.50791
1.51301
1.5125
1.51197
1.5123
1.51141
1.51004
1.51022
1.51079
1.51127
1.51171
1.51138
1.51004
1.51011
1.51082
1.51158
1.51262
1.51399
1.51566
1.51775
1.52016
1.52127
1.52148
1.52268
1.52406
1.52496
1.52659
1.52968
1.5337
1.5366
1.53962
1.54234
1.54333
1.54253
1.53921
1.53806
1.53955
1.54347
1.54767
1.5515
1.55332
1.55366
1.55411
1.55485
1.5557
1.55601
1.55491
1.55321
1.55393
1.55481
1.55467
1.55341
1.55059
1.54473
1.53653
1.53128
1.5299
1.52984
1.53119
1.53603
1.54404
1.54967
1.55037
1.54899
1.54542
1.54037
1.53808
1.53855
1.54183
1.5487
1.5585
1.56646
1.5696
1.57
1.56831
1.56467
1.56319
1.56414
1.56722
1.5731
1.58096
1.58657
1.58858
1.5896
1.5903
1.59036
1.59073
1.59348
1.59829
1.60367
1.60922
1.61155
1.6116
1.61109
1.60847
1.60549
1.60369
1.60199
1.60046
1.59968
1.59941
1.59865
1.59654
1.59334
1.59002
1.58679
1.58326
1.5792
1.57417
1.5674
1.55914
1.54959
1.5416
1.54018
1.54091
1.54172
1.54088
1.53827
1.53284
1.52185
1.50252
1.4738
1.43571
1.38838
1.33357
1.27227
1.20438
1.13559
1.07769
1.03593
1.00853
0.994018
0.989346
0.988969
0.990188
0.991758
0.991494
0.989883
0.988246
0.987716
0.987715
0.987916
0.990392
2.25211
2.17795
2.11035
2.04377
1.97453
1.91016
1.85762
1.80388
1.75293
1.70973
1.66646
1.62065
1.58295
1.54182
1.51129
1.48821
1.46896
1.45434
1.43857
1.41937
1.39748
1.37716
1.35594
1.34362
1.33469
1.32389
1.31044
1.30393
1.29727
1.28532
1.26677
1.24977
1.24102
1.24078
1.24139
1.24661
1.25869
1.27961
1.31091
1.3402
1.37403
1.40448
1.42725
1.44507
1.45905
1.46906
1.47681
1.47635
1.47825
1.48577
1.49007
1.48943
1.48917
1.49017
1.49098
1.49061
1.49024
1.49027
1.49078
1.4921
1.4926
1.49264
1.49356
1.49503
1.49633
1.49779
1.49933
1.50053
1.50096
1.50083
1.4999
1.49922
1.50027
1.50209
1.50344
1.50533
1.50937
1.51385
1.51691
1.5207
1.52436
1.52616
1.52628
1.52462
1.522
1.5212
1.52238
1.52639
1.53032
1.53317
1.53595
1.53689
1.53838
1.53991
1.54035
1.53859
1.533
1.52951
1.52854
1.52753
1.52564
1.52238
1.51838
1.51477
1.51293
1.51232
1.51284
1.51565
1.52056
1.52322
1.52323
1.52233
1.51968
1.51572
1.5137
1.514
1.5164
1.52203
1.52956
1.53457
1.53654
1.53723
1.53594
1.5335
1.53343
1.53491
1.53771
1.54238
1.54726
1.54976
1.55023
1.54969
1.54902
1.54908
1.55015
1.55352
1.55871
1.56487
1.56966
1.5705
1.56918
1.56582
1.56191
1.55982
1.5586
1.55753
1.55667
1.55592
1.55512
1.55358
1.55058
1.54671
1.54269
1.53861
1.53436
1.52982
1.52533
1.52117
1.5158
1.50796
1.49896
1.4899
1.48501
1.48461
1.48539
1.48707
1.48839
1.48833
1.48475
1.47247
1.44827
1.41169
1.36473
1.31054
1.24867
1.17611
1.0981
1.03597
1.00524
0.995781
0.99381
0.993665
0.99367
0.993638
0.993523
0.993118
0.992077
0.990387
0.989428
0.989126
0.989294
0.991973
2.26577
2.19961
2.13745
2.07246
2.00453
1.9497
1.89542
1.84386
1.79303
1.75002
1.70437
1.6599
1.61996
1.58804
1.56195
1.53793
1.50924
1.48781
1.47312
1.45697
1.43707
1.4152
1.39023
1.38004
1.3717
1.3609
1.34753
1.33807
1.32684
1.31077
1.28832
1.26807
1.25856
1.25103
1.24229
1.24197
1.2455
1.24606
1.2469
1.25216
1.26722
1.29488
1.32679
1.35995
1.39265
1.42153
1.44577
1.45541
1.46073
1.46981
1.47355
1.47205
1.4691
1.46755
1.46778
1.46903
1.47051
1.47352
1.47533
1.4758
1.47598
1.47598
1.47649
1.47845
1.48153
1.48424
1.48671
1.48831
1.48864
1.48725
1.48455
1.48337
1.48389
1.48551
1.48751
1.49135
1.49602
1.49868
1.50135
1.50509
1.50781
1.50867
1.50871
1.50872
1.50862
1.50833
1.50859
1.51157
1.51572
1.51947
1.523
1.52379
1.52436
1.5247
1.52433
1.52158
1.51505
1.50983
1.50826
1.50712
1.50558
1.50382
1.50278
1.50258
1.50264
1.50226
1.5024
1.50275
1.50254
1.5018
1.50066
1.49891
1.49743
1.49697
1.49734
1.49943
1.50376
1.50752
1.50902
1.50987
1.51044
1.51013
1.50997
1.51082
1.51276
1.51606
1.51924
1.52038
1.52022
1.5193
1.5183
1.51795
1.51825
1.51971
1.52345
1.52938
1.53469
1.5366
1.53586
1.53231
1.52692
1.52257
1.52046
1.51977
1.51991
1.5204
1.52004
1.51847
1.51585
1.51247
1.50888
1.5053
1.50143
1.49688
1.49135
1.48529
1.47954
1.47387
1.46708
1.45905
1.45138
1.44404
1.43678
1.43356
1.43354
1.43519
1.43849
1.44008
1.4389
1.43094
1.41038
1.37619
1.33179
1.28043
1.22027
1.14665
1.06703
1.01254
0.996634
0.995602
0.995835
0.995954
0.995674
0.995058
0.994191
0.993554
0.992994
0.992595
0.992285
0.992124
0.992378
0.994579
2.2767
2.21799
2.15911
2.09568
2.03741
1.98292
1.92911
1.87605
1.83127
1.78408
1.73975
1.70213
1.6651
1.62787
1.59898
1.57818
1.55699
1.5341
1.50869
1.48361
1.46222
1.44556
1.4263
1.41517
1.40448
1.39096
1.37663
1.36659
1.35447
1.33698
1.3112
1.29307
1.28522
1.27713
1.26757
1.26308
1.25927
1.25088
1.2415
1.24226
1.24359
1.2439
1.24706
1.26225
1.29107
1.32595
1.36571
1.39801
1.42349
1.44586
1.45382
1.45756
1.45786
1.45044
1.44728
1.44791
1.45067
1.45594
1.45901
1.45854
1.45815
1.45862
1.46005
1.46305
1.46702
1.47011
1.47294
1.47535
1.47683
1.47713
1.47691
1.4765
1.47596
1.47595
1.47732
1.48057
1.48176
1.48228
1.48415
1.4872
1.48983
1.49096
1.4922
1.49473
1.49741
1.49914
1.50002
1.50124
1.50431
1.50709
1.50863
1.50873
1.50863
1.50837
1.50758
1.50596
1.50239
1.49728
1.49457
1.49348
1.49285
1.49271
1.49372
1.49415
1.49367
1.4922
1.49034
1.48781
1.48548
1.48368
1.48219
1.48152
1.48179
1.48355
1.48648
1.48868
1.48946
1.48961
1.48961
1.48883
1.48913
1.49041
1.49194
1.49468
1.49781
1.49888
1.49868
1.49768
1.49555
1.49387
1.49316
1.4932
1.49499
1.49978
1.50528
1.50762
1.50758
1.50537
1.49999
1.49425
1.49024
1.48812
1.48786
1.48914
1.4906
1.49009
1.48752
1.48307
1.47872
1.47527
1.4722
1.46942
1.46677
1.46269
1.45566
1.44707
1.43822
1.42912
1.42076
1.41267
1.40652
1.4006
1.39359
1.38904
1.38874
1.3899
1.39161
1.39187
1.38995
1.38073
1.35984
1.32743
1.28666
1.23967
1.18366
1.11422
1.04416
1.00591
0.997491
0.996523
0.996217
0.995994
0.995457
0.994267
0.993134
0.992902
0.99343
0.994504
0.995067
0.995318
0.995619
0.996795
2.28476
2.23252
2.17574
2.11835
2.06529
2.01176
1.95671
1.90765
1.86317
1.81946
1.7774
1.73899
1.70444
1.67133
1.64388
1.61592
1.58883
1.56632
1.54714
1.52485
1.4981
1.46982
1.4523
1.44481
1.43664
1.42595
1.41161
1.39687
1.37928
1.35811
1.3321
1.32004
1.31314
1.3052
1.29563
1.29007
1.28435
1.27512
1.26398
1.25547
1.24879
1.2395
1.23842
1.2394