/*--------------------------------*- C++ -*----------------------------------*\
  =========                 |
  \\      /  F ield         | OpenFOAM: The Open Source CFD Toolbox
   \\    /   O peration     | Website:  https://openfoam.org
    \\  /    A nd           | Version:  7
     \\/     M anipulation  |
\*---------------------------------------------------------------------------*/
FoamFile
{
    version     2.0;
    format      ascii;
    class       volVectorField;
    location    "0.8";
    object      U;
}
// * * * * * * * * * * * * * * * * * * * * * * * * * * * * * * * * * * * * * //

dimensions      [0 1 -1 0 0 0 0];

internalField   nonuniform List<vector> 
16128
(
(3 -1.42139e-16 0)
(3 -1.71386e-16 0)
(3 -9.11032e-17 0)
(3 4.75308e-16 0)
(3 6.09715e-16 0)
(3 -1.37292e-16 0)
(3 3.54148e-16 0)
(3 1.14805e-15 0)
(3 1.29097e-15 0)
(3 8.69481e-16 0)
(3 1.10606e-15 0)
(3 2.59651e-16 0)
(3 -8.86971e-16 0)
(3 -4.83311e-16 0)
(3 -5.72697e-17 0)
(3 -2.16985e-16 0)
(3 -8.16552e-16 0)
(3 -9.17906e-16 0)
(3 -4.4477e-16 0)
(3 -3.9534e-16 0)
(3 -2.73895e-16 0)
(3 -1.88667e-16 0)
(3 -1.29048e-16 0)
(3 2.25177e-18 0)
(3 2.63935e-16 0)
(3 4.01578e-16 0)
(3 9.13553e-17 0)
(2.94521 0.000612694 0)
(0.988519 0.00790108 0)
(0.666764 0.005462 0)
(0.653036 0.0136408 0)
(0.624636 0.0163121 0)
(0.591749 0.0185275 0)
(0.555606 0.0179301 0)
(0.51797 0.0162276 0)
(0.479555 0.0156901 0)
(0.441386 0.0159592 0)
(0.404791 0.0163278 0)
(0.368981 0.0164821 0)
(0.333234 0.0165541 0)
(0.296355 0.0167814 0)
(0.258696 0.017245 0)
(0.220652 0.0178416 0)
(0.189983 0.0185921 0)
(0.160303 0.0197823 0)
(0.126186 0.021397 0)
(0.0842805 0.0229942 0)
(0.0284159 0.0244379 0)
(3 2.51544e-17 0)
(3 1.175e-16 0)
(3 3.96444e-16 0)
(3 8.9367e-16 0)
(3 1.20568e-15 0)
(3 5.427e-16 0)
(3 1.64947e-16 0)
(3 2.04669e-16 0)
(3 2.57486e-16 0)
(3 8.0396e-17 0)
(3 5.14592e-16 0)
(3 1.69177e-16 0)
(3 -4.36166e-17 0)
(3 -6.2776e-17 0)
(3 -1.07547e-16 0)
(3 -5.94992e-16 0)
(3 -8.84262e-16 0)
(3 -1.21274e-15 0)
(3 -8.61518e-16 0)
(3 -1.16704e-15 0)
(3 -1.1224e-15 0)
(3 -1.06836e-15 0)
(3 -1.14002e-15 0)
(3 -8.58011e-16 0)
(3 -2.91121e-16 0)
(3 -5.32807e-17 0)
(3 6.49192e-17 0)
(2.95363 0.00714132 0)
(1 0.0365532 0)
(0.663789 0.0250564 0)
(0.644553 0.038078 0)
(0.616386 0.048233 0)
(0.58347 0.0549437 0)
(0.547116 0.0533221 0)
(0.509286 0.0478721 0)
(0.470777 0.0457065 0)
(0.432874 0.0466701 0)
(0.396376 0.0480849 0)
(0.360442 0.048673 0)
(0.324507 0.048827 0)
(0.28753 0.0493478 0)
(0.249969 0.0506446 0)
(0.212575 0.0524585 0)
(0.182888 0.0551557 0)
(0.154519 0.0591406 0)
(0.122009 0.0644068 0)
(0.0818256 0.0695497 0)
(0.027657 0.0739511 0)
(3 -1.33581e-16 0)
(3 -2.31012e-16 0)
(3 -7.13098e-17 0)
(3 -2.52448e-16 0)
(3 -4.91757e-17 0)
(3 1.6908e-16 0)
(3 -1.68985e-16 0)
(3 -2.02176e-16 0)
(3 -2.11694e-16 0)
(3 -2.00379e-16 0)
(3 -4.04414e-16 0)
(3 -2.5394e-16 0)
(3 6.19624e-16 0)
(3 4.61254e-18 0)
(3 -2.08407e-16 0)
(3 -1.33129e-15 0)
(3 -1.44866e-15 0)
(3 -1.39243e-15 0)
(3 -9.96972e-16 0)
(3 -7.75916e-16 0)
(3 -4.57302e-16 0)
(3 2.89586e-16 0)
(3 9.64787e-17 0)
(3 -1.56701e-16 0)
(3 2.64497e-16 0)
(3 6.15087e-16 0)
(3 3.86886e-16 0)
(2.98131 0.00393389 0)
(1.03441 0.0633316 0)
(0.670111 0.0465432 0)
(0.644463 0.0652982 0)
(0.616322 0.0814132 0)
(0.582948 0.0922183 0)
(0.546063 0.0899277 0)
(0.507825 0.0811803 0)
(0.46852 0.0771943 0)
(0.43016 0.0785355 0)
(0.393144 0.0809747 0)
(0.356457 0.0821711 0)
(0.319501 0.0825083 0)
(0.281289 0.0831164 0)
(0.242432 0.0846966 0)
(0.204287 0.0869173 0)
(0.174242 0.0904072 0)
(0.146249 0.0963809 0)
(0.114941 0.10481 0)
(0.0770142 0.113092 0)
(0.0259 0.120769 0)
(3 -2.39558e-16 0)
(3 -2.44336e-16 0)
(3 -1.69441e-16 0)
(3 -2.42475e-16 0)
(3 -3.81143e-16 0)
(3 -5.82074e-16 0)
(3 -1.07255e-16 0)
(3 5.67598e-16 0)
(3 2.79318e-16 0)
(3 -5.82409e-17 0)
(3 -1.22085e-15 0)
(3 -1.30979e-15 0)
(3 -1.15342e-15 0)
(3 -1.44418e-15 0)
(3 -1.98422e-15 0)
(3 -2.18112e-15 0)
(3 -2.32125e-15 0)
(3 -1.3193e-15 0)
(3 -5.96634e-16 0)
(3 -5.40297e-16 0)
(3 1.43173e-16 0)
(3 5.75054e-16 0)
(3 1.19446e-15 0)
(3 1.76438e-15 0)
(3 1.96671e-15 0)
(3 2.36661e-15 0)
(3 2.00909e-15 0)
(2.99985 0.000200425 0)
(1.08522 0.0929941 0)
(0.674734 0.0695333 0)
(0.645954 0.0921603 0)
(0.619628 0.11446 0)
(0.585916 0.129036 0)
(0.54922 0.126172 0)
(0.511812 0.114486 0)
(0.472525 0.108834 0)
(0.434225 0.110632 0)
(0.397091 0.114356 0)
(0.359909 0.116596 0)
(0.321986 0.117655 0)
(0.282387 0.118844 0)
(0.241807 0.121001 0)
(0.202087 0.123486 0)
(0.170475 0.127065 0)
(0.141463 0.133965 0)
(0.11004 0.14439 0)
(0.0731897 0.154346 0)
(0.0241736 0.164318 0)
(3 1.54917e-16 0)
(3 5.64959e-16 0)
(3 1.00868e-15 0)
(3 7.66142e-16 0)
(3 -1.13725e-16 0)
(3 -5.42632e-17 0)
(3 -1.55556e-16 0)
(3 -1.12226e-16 0)
(3 -3.95936e-17 0)
(3 -1.18443e-15 0)
(3 -1.31453e-15 0)
(3 -2.14543e-15 0)
(3 -3.36624e-15 0)
(3 -3.40091e-15 0)
(3 -3.11856e-15 0)
(3 -2.26727e-15 0)
(3 -8.99572e-16 0)
(3 -7.58409e-16 0)
(3 -9.01635e-16 0)
(3 -1.0003e-15 0)
(3 -9.48442e-16 0)
(3 -3.8999e-16 0)
(3 2.5998e-16 0)
(3 7.62047e-16 0)
(3 1.17277e-15 0)
(3 1.52372e-15 0)
(3 7.99838e-16 0)
(3 5.68674e-08 0)
(1.16114 0.122645 0)
(0.682415 0.0923611 0)
(0.647091 0.120468 0)
(0.619512 0.149366 0)
(0.583707 0.166372 0)
(0.547856 0.161582 0)
(0.513263 0.146911 0)
(0.476065 0.13981 0)
(0.439679 0.142197 0)
(0.403771 0.14755 0)
(0.366849 0.151288 0)
(0.328435 0.153537 0)
(0.287891 0.155749 0)
(0.245988 0.158804 0)
(0.20486 0.161764 0)
(0.171532 0.165458 0)
(0.140882 0.172505 0)
(0.108557 0.184261 0)
(0.0715816 0.194367 0)
(0.0231093 0.205486 0)
(3 1.62969e-16 0)
(3 1.0353e-16 0)
(3 -8.82974e-17 0)
(3 -2.88292e-16 0)
(3 -3.73742e-16 0)
(3 -3.71668e-16 0)
(3 -9.04528e-16 0)
(3 -1.1879e-15 0)
(3 -1.17451e-15 0)
(3 -1.15269e-15 0)
(3 -5.79598e-16 0)
(3 -1.17831e-15 0)
(3 -2.53062e-15 0)
(3 -2.2658e-15 0)
(3 -1.98433e-15 0)
(3 -1.40154e-15 0)
(3 -8.03308e-16 0)
(3 -9.46143e-16 0)
(3 -1.09567e-15 0)
(3 -6.07159e-16 0)
(3 -3.62572e-16 0)
(3 3.81395e-16 0)
(3 1.16378e-15 0)
(3 8.72631e-16 0)
(3 7.44257e-16 0)
(3 4.92224e-17 0)
(3 -8.1732e-16 0)
(3 3.38712e-13 0)
(1.26722 0.151715 0)
(0.692928 0.11709 0)
(0.647655 0.152746 0)
(0.616474 0.18752 0)
(0.578662 0.203369 0)
(0.54664 0.194328 0)
(0.517137 0.176541 0)
(0.482882 0.168556 0)
(0.448329 0.172319 0)
(0.412909 0.18041 0)
(0.375406 0.186473 0)
(0.336221 0.190339 0)
(0.295057 0.193799 0)
(0.252466 0.19801 0)
(0.210408 0.201784 0)
(0.175525 0.206019 0)
(0.143107 0.212865 0)
(0.109303 0.224843 0)
(0.0714302 0.234252 0)
(0.0224851 0.245937 0)
(3 -2.13858e-16 0)
(3 -5.91572e-16 0)
(3 -1.13315e-15 0)
(3 -1.10238e-15 0)
(3 -1.05012e-15 0)
(3 -1.23674e-15 0)
(3 -1.54202e-15 0)
(3 -1.57494e-15 0)
(3 -1.4147e-15 0)
(3 -8.18042e-16 0)
(3 1.27365e-19 0)
(3 -2.38958e-16 0)
(3 -4.17699e-16 0)
(3 -7.02329e-16 0)
(3 -9.52783e-16 0)
(3 -8.7745e-16 0)
(3 -1.1907e-15 0)
(3 -9.99579e-16 0)
(3 -2.62071e-16 0)
(3 7.03337e-16 0)
(3 9.798e-16 0)
(3 1.12289e-15 0)
(3 1.4744e-15 0)
(3 1.23951e-15 0)
(3 -2.30682e-16 0)
(3 -2.47921e-15 0)
(3 -2.24613e-15 0)
(3 -2.66433e-15 0)
(1.41024 0.180703 0)
(0.706264 0.145389 0)
(0.648496 0.190386 0)
(0.612508 0.228124 0)
(0.574857 0.23724 0)
(0.550998 0.222761 0)
(0.526262 0.202968 0)
(0.494056 0.195615 0)
(0.460169 0.202303 0)
(0.424017 0.214107 0)
(0.385204 0.2225 0)
(0.345317 0.227689 0)
(0.304018 0.2323 0)
(0.261347 0.237917 0)
(0.218722 0.243037 0)
(0.1822 0.248377 0)
(0.147802 0.255541 0)
(0.112088 0.267727 0)
(0.0726421 0.275629 0)
(0.0223174 0.286978 0)
(3 1.3822e-16 0)
(3 -1.05077e-16 0)
(3 -2.30974e-16 0)
(3 -2.45226e-16 0)
(3 -9.32306e-16 0)
(3 -1.07228e-15 0)
(3 -5.37252e-16 0)
(3 -2.28071e-16 0)
(3 -3.16664e-18 0)
(3 8.21305e-18 0)
(3 1.05196e-16 0)
(3 1.35366e-16 0)
(3 3.25531e-16 0)
(3 -2.08738e-16 0)
(3 -4.1991e-16 0)
(3 -5.73003e-16 0)
(3 -5.24961e-16 0)
(3 3.70282e-16 0)
(3 1.01736e-15 0)
(3 9.95015e-16 0)
(3 1.46028e-15 0)
(3 1.31225e-15 0)
(3 1.4082e-15 0)
(3 1.65833e-15 0)
(3 -1.07043e-15 0)
(3 -1.37517e-15 0)
(3 -1.02928e-15 0)
(3 -8.40951e-16 0)
(1.59716 0.205799 0)
(0.721826 0.179679 0)
(0.646551 0.233687 0)
(0.60774 0.266829 0)
(0.577951 0.265848 0)
(0.564041 0.246358 0)
(0.542219 0.226146 0)
(0.510232 0.222057 0)
(0.47528 0.233623 0)
(0.436791 0.249708 0)
(0.395781 0.259621 0)
(0.354911 0.265495 0)
(0.313393 0.271275 0)
(0.270799 0.278617 0)
(0.2279 0.285615 0)
(0.189904 0.292551 0)
(0.153535 0.300589 0)
(0.11573 0.313073 0)
(0.0744212 0.319553 0)
(0.0224017 0.330016 0)
(3 1.17933e-16 0)
(3 2.22762e-16 0)
(3 -6.11095e-17 0)
(3 -4.03483e-16 0)
(3 -6.19585e-16 0)
(3 -1.09931e-15 0)
(3 -9.09358e-16 0)
(3 -6.20996e-16 0)
(3 -3.13944e-16 0)
(3 1.41662e-16 0)
(3 -1.92755e-16 0)
(3 -9.98324e-17 0)
(3 -2.89255e-16 0)
(3 -3.41509e-16 0)
(3 -3.12782e-16 0)
(3 -4.38321e-17 0)
(3 1.03358e-15 0)
(3 1.76757e-15 0)
(3 2.19966e-15 0)
(3 2.38658e-15 0)
(3 1.99569e-15 0)
(3 1.17162e-15 0)
(3 -5.61684e-16 0)
(3 -1.30108e-15 0)
(3 -1.4168e-15 0)
(3 -2.5872e-16 0)
(3 -8.886e-17 0)
(3 9.88493e-16 0)
(1.82842 0.233599 0)
(0.74285 0.226183 0)
(0.647725 0.280753 0)
(0.613658 0.297985 0)
(0.596998 0.286539 0)
(0.585699 0.264277 0)
(0.563571 0.246627 0)
(0.529246 0.250072 0)
(0.490513 0.268949 0)
(0.447873 0.288981 0)
(0.404539 0.298446 0)
(0.36354 0.30379 0)
(0.323175 0.310395 0)
(0.282265 0.319361 0)
(0.24065 0.328405 0)
(0.201865 0.337516 0)
(0.163324 0.34746 0)
(0.122545 0.361133 0)
(0.0780991 0.36726 0)
(0.0232857 0.376741 0)
(3 -4.9595e-16 0)
(3 -4.05701e-16 0)
(3 -5.05376e-16 0)
(3 -1.06997e-15 0)
(3 -6.68352e-16 0)
(3 -1.114e-15 0)
(3 -9.06734e-16 0)
(3 -3.62243e-16 0)
(3 2.16881e-16 0)
(3 7.7942e-16 0)
(3 9.56082e-16 0)
(3 7.53466e-16 0)
(3 6.25533e-16 0)
(3 7.93427e-16 0)
(3 4.23428e-16 0)
(3 1.18513e-16 0)
(3 6.91148e-16 0)
(3 1.62814e-15 0)
(3 2.47506e-15 0)
(3 2.62039e-15 0)
(3 1.59445e-15 0)
(3 7.74286e-16 0)
(3 4.05148e-16 0)
(3 -4.65138e-16 0)
(3 -2.37056e-16 0)
(3 -5.65648e-16 0)
(3 -1.73105e-16 0)
(3 -2.9247e-15 0)
(2.12338 0.253954 0)
(0.789759 0.281404 0)
(0.667283 0.321457 0)
(0.640471 0.316343 0)
(0.626727 0.298943 0)
(0.611101 0.280646 0)
(0.583577 0.271234 0)
(0.544984 0.284179 0)
(0.500216 0.310394 0)
(0.45355 0.331389 0)
(0.410868 0.337501 0)
(0.373384 0.340961 0)
(0.336697 0.348038 0)
(0.298217 0.359048 0)
(0.257023 0.371568 0)
(0.216037 0.384479 0)
(0.173936 0.397686 0)
(0.129327 0.413349 0)
(0.081438 0.420072 0)
(0.0239709 0.428393 0)
(3 -1.14586e-16 0)
(3 -4.09168e-16 0)
(3 -1.19036e-16 0)
(3 2.74306e-16 0)
(3 7.76788e-16 0)
(3 1.31723e-15 0)
(3 1.44786e-15 0)
(3 1.37392e-15 0)
(3 1.13582e-15 0)
(3 1.00067e-15 0)
(3 1.11271e-15 0)
(3 8.32034e-16 0)
(3 6.84534e-16 0)
(3 4.26406e-16 0)
(3 2.51661e-16 0)
(3 -3.09666e-16 0)
(3 -2.36599e-16 0)
(3 7.27044e-16 0)
(3 1.34772e-15 0)
(3 -2.06206e-16 0)
(3 -2.56632e-16 0)
(3 7.9533e-17 0)
(3 3.22594e-17 0)
(3 -6.4537e-16 0)
(3 -6.42765e-16 0)
(3 -1.57906e-15 0)
(3 -2.18776e-16 0)
(3 -1.5658e-15 0)
(2.4902 0.238051 0)
(0.878625 0.319444 0)
(0.706632 0.338169 0)
(0.675998 0.336134 0)
(0.652692 0.322609 0)
(0.629808 0.308242 0)
(0.594795 0.306516 0)
(0.550454 0.32585 0)
(0.501905 0.354916 0)
(0.457829 0.37252 0)
(0.42239 0.373119 0)
(0.390492 0.374626 0)
(0.357176 0.383674 0)
(0.319651 0.398677 0)
(0.27851 0.416083 0)
(0.235523 0.433538 0)
(0.19028 0.450675 0)
(0.141555 0.469535 0)
(0.0885202 0.478677 0)
(0.0264134 0.4864 0)
(3 1.18595e-16 0)
(3 2.57174e-16 0)
(3 6.83398e-16 0)
(3 1.78612e-15 0)
(3 1.68034e-15 0)
(3 1.37302e-15 0)
(3 6.96341e-16 0)
(3 1.96754e-16 0)
(3 1.8909e-16 0)
(3 -2.06087e-17 0)
(3 1.03462e-17 0)
(3 -6.0422e-17 0)
(3 9.25437e-17 0)
(3 -7.62414e-16 0)
(3 -2.75544e-16 0)
(3 -4.21802e-16 0)
(3 -7.09824e-16 0)
(3 -6.27327e-16 0)
(3 -8.66482e-16 0)
(3 -7.82984e-16 0)
(3 -7.98438e-16 0)
(3 -1.76678e-16 0)
(3 -2.59888e-16 0)
(3 -6.45225e-16 0)
(3 -1.41982e-15 0)
(3 -1.627e-15 0)
(3 -9.00396e-17 0)
(3 9.9239e-16 0)
(2.83621 0.142539 0)
(0.982452 0.348061 0)
(0.731666 0.367531 0)
(0.695665 0.369964 0)
(0.66272 0.357489 0)
(0.629648 0.343045 0)
(0.590551 0.346515 0)
(0.549719 0.36959 0)
(0.509538 0.39702 0)
(0.474215 0.40709 0)
(0.445284 0.403026 0)
(0.416056 0.406096 0)
(0.384292 0.419237 0)
(0.346326 0.439664 0)
(0.304117 0.462556 0)
(0.257309 0.486187 0)
(0.206383 0.509392 0)
(0.152137 0.533138 0)
(0.0944114 0.546025 0)
(0.0277832 0.553048 0)
(3 3.63306e-16 0)
(3 6.66449e-16 0)
(3 9.57235e-16 0)
(3 9.11032e-16 0)
(3 9.5143e-16 0)
(3 3.02571e-16 0)
(3 -1.01282e-16 0)
(3 -1.35681e-16 0)
(3 -4.03804e-17 0)
(3 -1.79864e-16 0)
(3 -3.66109e-16 0)
(3 -3.62819e-17 0)
(3 3.14487e-17 0)
(3 5.00986e-16 0)
(3 2.13341e-16 0)
(3 -7.21148e-16 0)
(3 -1.25621e-15 0)
(3 -2.11577e-15 0)
(3 -2.16798e-15 0)
(3 -2.08422e-16 0)
(3 -4.82058e-17 0)
(3 -1.63895e-16 0)
(3 -5.76896e-17 0)
(3 -1.19838e-16 0)
(3 -6.23491e-16 0)
(3 3.45499e-16 0)
(3 8.36341e-16 0)
(3 9.50401e-16 0)
(2.9823 0.0320291 0)
(1.08745 0.361162 0)
(0.728417 0.402307 0)
(0.683067 0.406226 0)
(0.654726 0.389981 0)
(0.627519 0.378008 0)
(0.597416 0.38489 0)
(0.566948 0.407502 0)
(0.5355 0.42944 0)
(0.505667 0.434207 0)
(0.478311 0.431207 0)
(0.448985 0.438208 0)
(0.416355 0.456411 0)
(0.377332 0.48343 0)
(0.332749 0.512761 0)
(0.284097 0.543065 0)
(0.2318 0.571815 0)
(0.176026 0.600503 0)
(0.111858 0.621362 0)
(0.035961 0.632306 0)
(3 -9.63043e-17 0)
(3 -2.4648e-16 0)
(3 -3.44303e-16 0)
(3 -1.53367e-16 0)
(3 -1.8122e-16 0)
(3 -4.00523e-16 0)
(3 -5.57823e-16 0)
(3 -9.69089e-16 0)
(3 -1.35972e-15 0)
(3 -1.3584e-15 0)
(3 -1.78187e-15 0)
(3 -1.49911e-15 0)
(3 -1.61693e-15 0)
(3 -1.01402e-15 0)
(3 -9.32115e-16 0)
(3 -6.114e-16 0)
(3 -8.53297e-16 0)
(3 -1.69554e-15 0)
(3 -1.69548e-15 0)
(3 -1.24627e-15 0)
(3 4.93989e-16 0)
(3 9.00031e-16 0)
(3 6.91763e-16 0)
(3 4.28349e-16 0)
(3 2.36682e-16 0)
(3 -4.70251e-17 0)
(3 2.7102e-16 0)
(3 1.47063e-17 0)
(3.00138 0.00153436 0)
(1.27425 0.403982 0)
(0.722531 0.441661 0)
(0.680008 0.436949 0)
(0.666715 0.419263 0)
(0.648357 0.409291 0)
(0.627034 0.415675 0)
(0.605254 0.435457 0)
(0.578385 0.454039 0)
(0.549331 0.458975 0)
(0.5189 0.460463 0)
(0.485698 0.47388 0)
(0.448634 0.499144 0)
(0.407975 0.532376 0)
(0.362762 0.566156 0)
(0.315101 0.601188 0)
(0.260641 0.638242 0)
(0.19759 0.679822 0)
(0.126227 0.717932 0)
(0.0366489 0.736376 0)
(3 -2.54763e-16 0)
(3 -3.14031e-16 0)
(3 -3.94095e-16 0)
(3 1.37885e-16 0)
(3 -6.81013e-17 0)
(3 -6.44031e-16 0)
(3 -1.10261e-15 0)
(3 -1.61845e-15 0)
(3 -1.95173e-15 0)
(3 -2.88577e-15 0)
(3 -3.20243e-15 0)
(3 -3.28027e-15 0)
(3 -2.86915e-15 0)
(3 -1.75086e-15 0)
(3 -7.97297e-16 0)
(3 -6.3159e-16 0)
(3 -1.09065e-15 0)
(3 -1.21722e-15 0)
(3 -1.85653e-15 0)
(3 -1.52643e-15 0)
(3 -9.41851e-16 0)
(3 5.57167e-16 0)
(3 5.62324e-16 0)
(3 6.09034e-16 0)
(3 -1.75546e-16 0)
(3 -1.34698e-15 0)
(3 -1.80124e-15 0)
(3 -1.29823e-15 0)
(3.00001 2.83984e-06 0)
(1.62669 0.474642 0)
(0.75734 0.490157 0)
(0.710132 0.45624 0)
(0.706138 0.435555 0)
(0.693583 0.423969 0)
(0.678473 0.42914 0)
(0.660505 0.450166 0)
(0.631783 0.47274 0)
(0.596916 0.484443 0)
(0.558691 0.494667 0)
(0.518302 0.51682 0)
(0.476265 0.548741 0)
(0.434778 0.585483 0)
(0.39312 0.621087 0)
(0.351488 0.661391 0)
(0.305247 0.710466 0)
(0.250937 0.763572 0)
(0.184567 0.819134 0)
(0.0711427 0.866074 0)
(3 -1.45539e-16 0)
(3 -3.27872e-16 0)
(3 -5.08513e-16 0)
(3 -9.66592e-16 0)
(3 -9.62904e-16 0)
(3 -9.09023e-16 0)
(3 -1.0603e-15 0)
(3 -1.93992e-15 0)
(3 -2.19506e-15 0)
(3 -2.35371e-15 0)
(3 -2.84632e-15 0)
(3 -3.3296e-15 0)
(3 -2.58843e-15 0)
(3 -1.73513e-15 0)
(3 -1.49874e-15 0)
(3 -1.49274e-15 0)
(3 -1.5048e-15 0)
(3 -9.35089e-16 0)
(3 -9.7706e-16 0)
(3 -1.64735e-15 0)
(3 -2.3124e-15 0)
(3 -2.41937e-15 0)
(3 -1.76009e-15 0)
(3 -9.86532e-16 0)
(3 -5.24755e-16 0)
(3 -4.25755e-16 0)
(3 -8.94113e-16 0)
(3 -1.43508e-15 0)
(3 3.3818e-10 0)
(2.22839 0.459936 0)
(0.868508 0.524041 0)
(0.779459 0.467399 0)
(0.764373 0.445896 0)
(0.7431 0.439678 0)
(0.724077 0.452377 0)
(0.704164 0.479324 0)
(0.673042 0.506371 0)
(0.631532 0.523626 0)
(0.583724 0.539467 0)
(0.53682 0.566402 0)
(0.497406 0.600875 0)
(0.464494 0.637315 0)
(0.433245 0.672218 0)
(0.40398 0.714216 0)
(0.370489 0.769425 0)
(0.3205 0.849201 0)
(0.227502 0.973317 0)
(0.120922 1.11433 0)
(3 -1.01928e-16 0)
(3 -1.53966e-16 0)
(3 -7.19398e-16 0)
(3 -1.26753e-15 0)
(3 -1.29164e-15 0)
(3 -9.48203e-16 0)
(3 -1.43192e-15 0)
(3 -1.41556e-15 0)
(3 -1.26522e-15 0)
(3 -9.45459e-16 0)
(3 -9.73923e-16 0)
(3 -5.17757e-16 0)
(3 -9.15998e-16 0)
(3 -4.84886e-16 0)
(3 -6.65546e-17 0)
(3 -1.31976e-16 0)
(3 -1.29249e-16 0)
(3 7.93887e-17 0)
(3 3.51078e-17 0)
(3 -1.63806e-15 0)
(3 -3.71391e-15 0)
(3 -4.11074e-15 0)
(3 -3.99702e-15 0)
(3 -2.76718e-15 0)
(3 -6.14566e-16 0)
(3 5.9952e-17 0)
(3 -6.06406e-16 0)
(3 -1.34627e-16 0)
(3 -7.73606e-13 0)
(2.90258 0.194249 0)
(1.06735 0.521551 0)
(0.813829 0.503552 0)
(0.792614 0.482929 0)
(0.765192 0.476116 0)
(0.736678 0.488376 0)
(0.70847 0.518451 0)
(0.673341 0.5497 0)
(0.633804 0.570854 0)
(0.594792 0.587682 0)
(0.560557 0.611792 0)
(0.532045 0.642452 0)
(0.50887 0.677523 0)
(0.487571 0.714249 0)
(0.465863 0.760886 0)
(0.445044 0.833519 0)
(0.422119 0.958269 0)
(0.422171 1.13489 0)
(0.535009 1.42326 0)
(3 1.53938e-16 0)
(3 3.61484e-16 0)
(3 3.09719e-16 0)
(3 1.41864e-16 0)
(3 2.17797e-16 0)
(3 5.75632e-16 0)
(3 8.78243e-16 0)
(3 9.02454e-16 0)
(3 3.44949e-16 0)
(3 1.19252e-16 0)
(3 4.8829e-16 0)
(3 1.31306e-15 0)
(3 1.32347e-15 0)
(3 7.0142e-16 0)
(3 8.39121e-16 0)
(3 1.06788e-15 0)
(3 1.24612e-15 0)
(3 2.43198e-16 0)
(3 -3.54603e-16 0)
(3 -1.46652e-15 0)
(3 -2.90552e-15 0)
(3 -3.27024e-15 0)
(3 -2.63975e-15 0)
(3 -1.55415e-15 0)
(3 -5.99353e-16 0)
(3 2.29374e-16 0)
(3 -1.31737e-16 0)
(3 -4.93775e-16 0)
(3 -2.38942e-13 0)
(3.03613 0.0141318 0)
(1.23596 0.511216 0)
(0.796179 0.536381 0)
(0.771443 0.516944 0)
(0.748572 0.510719 0)
(0.72788 0.523048 0)
(0.70804 0.55435 0)
(0.681784 0.588029 0)
(0.651708 0.609507 0)
(0.622402 0.624028 0)
(0.598436 0.646461 0)
(0.578746 0.675714 0)
(0.565383 0.710537 0)
(0.554071 0.750059 0)
(0.543158 0.803104 0)
(0.543697 0.889961 0)
(0.558485 1.02237 0)
(0.64885 1.18594 0)
(0.959155 1.40573 0)
(3 -4.13951e-17 0)
(3 1.043e-16 0)
(3 5.6531e-16 0)
(3 9.61734e-16 0)
(3 1.25639e-15 0)
(3 9.10037e-16 0)
(3 1.51425e-15 0)
(3 1.26656e-15 0)
(3 1.13036e-15 0)
(3 1.00316e-15 0)
(3 1.09233e-15 0)
(3 9.90459e-16 0)
(3 7.34249e-16 0)
(3 2.03268e-16 0)
(3 -5.06204e-16 0)
(3 -3.5366e-16 0)
(3 -2.72804e-16 0)
(3 -5.88818e-16 0)
(3 -4.10633e-16 0)
(3 -6.24973e-16 0)
(3 -8.32376e-16 0)
(3 -1.23155e-15 0)
(3 -1.15887e-15 0)
(3 -7.29661e-16 0)
(3 3.37436e-16 0)
(3 7.54647e-16 0)
(3 8.74486e-16 0)
(3 3.79195e-16 0)
(3 -8.88425e-15 0)
(3.00075 6.25406e-05 0)
(1.61359 0.543208 0)
(0.806545 0.569162 0)
(0.771561 0.543824 0)
(0.758955 0.54471 0)
(0.744264 0.558367 0)
(0.728653 0.589619 0)
(0.708125 0.621453 0)
(0.685071 0.640228 0)
(0.663085 0.653418 0)
(0.647478 0.674262 0)
(0.636916 0.700756 0)
(0.63309 0.733666 0)
(0.631252 0.774897 0)
(0.633211 0.832457 0)
(0.651389 0.921089 0)
(0.698997 1.03989 0)
(0.84397 1.18211 0)
(1.17569 1.3289 0)
(3 -1.49847e-16 0)
(3 -2.85023e-16 0)
(3 -4.35766e-16 0)
(3 1.08429e-16 0)
(3 2.58379e-16 0)
(3 5.32806e-16 0)
(3 9.08351e-16 0)
(3 7.82904e-16 0)
(3 1.18935e-15 0)
(3 1.90158e-15 0)
(3 1.70737e-15 0)
(3 1.20879e-15 0)
(3 1.23259e-15 0)
(3 1.51618e-15 0)
(3 1.25669e-15 0)
(3 6.6275e-16 0)
(3 -3.35659e-16 0)
(3 -2.92801e-16 0)
(3 6.18532e-16 0)
(3 5.58729e-16 0)
(3 1.24125e-15 0)
(3 1.50565e-15 0)
(3 8.89112e-16 0)
(3 3.67965e-16 0)
(3 -1.21631e-17 0)
(3 1.9924e-16 0)
(3 -4.37729e-16 0)
(3 -3.22254e-16 0)
(3 -9.20357e-16 0)
(3 3.66941e-11 0)
(2.31545 0.487047 0)
(0.917133 0.610904 0)
(0.819553 0.551919 0)
(0.803911 0.557472 0)
(0.786428 0.579773 0)
(0.770954 0.615759 0)
(0.750459 0.647416 0)
(0.730013 0.665228 0)
(0.712946 0.678054 0)
(0.702167 0.697277 0)
(0.699119 0.72205 0)
(0.703334 0.754277 0)
(0.70877 0.796209 0)
(0.724638 0.85589 0)
(0.752698 0.942037 0)
(0.828221 1.04734 0)
(0.995053 1.16288 0)
(1.2818 1.26019 0)
(3 1.88852e-17 0)
(3 -2.12883e-16 0)
(3 -6.83951e-16 0)
(3 -7.2012e-16 0)
(3 -3.8031e-16 0)
(3 3.84971e-16 0)
(3 5.30439e-16 0)
(3 7.80098e-16 0)
(3 1.39533e-15 0)
(3 1.53371e-15 0)
(3 1.34316e-15 0)
(3 1.55585e-15 0)
(3 1.89348e-15 0)
(3 2.57682e-15 0)
(3 3.35984e-15 0)
(3 3.13785e-15 0)
(3 2.95867e-15 0)
(3 1.42934e-15 0)
(3 1.26397e-16 0)
(3 1.83558e-16 0)
(3 7.06081e-16 0)
(3 1.23725e-15 0)
(3 1.52453e-15 0)
(3 9.92153e-16 0)
(3 8.36422e-16 0)
(3 7.21982e-16 0)
(3 -3.59776e-16 0)
(3 -4.66168e-16 0)
(3 6.03981e-17 0)
(3 -5.21064e-10 0)
(3.02789 0.128038 0)
(1.17644 0.605463 0)
(0.884621 0.587631 0)
(0.852896 0.591374 0)
(0.817944 0.615541 0)
(0.798752 0.651932 0)
(0.784718 0.677825 0)
(0.773121 0.686264 0)
(0.762011 0.696102 0)
(0.755723 0.71337 0)
(0.755719 0.737562 0)
(0.765605 0.770458 0)
(0.77791 0.812912 0)
(0.804719 0.870996 0)
(0.842328 0.950143 0)
(0.933831 1.04072 0)
(1.09793 1.12705 0)
(1.32832 1.18726 0)
(3 1.96046e-16 0)
(3 2.83056e-16 0)
(3 4.23753e-16 0)
(3 2.52508e-16 0)
(3 1.21558e-17 0)
(3 -5.03465e-16 0)
(3 -2.2458e-16 0)
(3 7.32783e-16 0)
(3 2.27234e-15 0)
(3 1.70122e-15 0)
(3 1.71326e-15 0)
(3 1.85374e-15 0)
(3 2.19026e-15 0)
(3 2.8389e-15 0)
(3 2.38868e-15 0)
(3 2.38541e-15 0)
(3 2.72564e-15 0)
(3 2.7487e-15 0)
(3 1.21089e-15 0)
(3 4.04841e-16 0)
(3 1.55124e-16 0)
(3 -2.75619e-16 0)
(3 -7.03312e-17 0)
(3 2.10411e-16 0)
(3 3.88665e-16 0)
(3 2.22934e-16 0)
(3 1.64013e-16 0)
(3 -3.25241e-16 0)
(3 1.38812e-16 0)
(3 -3.97654e-10 0)
(3.01836 0.00358235 0)
(1.43192 0.583829 0)
(0.882731 0.642011 0)
(0.845566 0.629766 0)
(0.829994 0.650838 0)
(0.824823 0.679135 0)
(0.818606 0.697782 0)
(0.814076 0.702388 0)
(0.807014 0.710915 0)
(0.803552 0.726865 0)
(0.804973 0.75051 0)
(0.817239 0.784231 0)
(0.836902 0.82785 0)
(0.869298 0.884456 0)
(0.918372 0.955242 0)
(1.01691 1.03137 0)
(1.16635 1.0949 0)
(1.35381 1.13572 0)
(3 6.96632e-18 0)
(3 2.17735e-16 0)
(3 1.90983e-16 0)
(3 -1.74226e-16 0)
(3 -9.11874e-16 0)
(3 -1.75076e-15 0)
(3 -1.67573e-15 0)
(3 -7.99256e-16 0)
(3 -5.04191e-16 0)
(3 4.39921e-16 0)
(3 1.80369e-15 0)
(3 2.25698e-15 0)
(3 2.2474e-15 0)
(3 1.79391e-15 0)
(3 1.057e-15 0)
(3 7.68193e-16 0)
(3 1.03071e-15 0)
(3 2.05761e-15 0)
(3 2.00849e-15 0)
(3 7.20575e-16 0)
(3 -3.11818e-16 0)
(3 -1.10455e-15 0)
(3 -1.64949e-15 0)
(3 -1.01748e-15 0)
(3 -6.59691e-16 0)
(3 -9.01791e-16 0)
(3 -1.45895e-15 0)
(3 -1.177e-15 0)
(3 1.13708e-16 0)
(3 -9.17787e-11 0)
(3.00013 5.24792e-06 0)
(2.12168 0.555435 0)
(0.95331 0.685306 0)
(0.873126 0.643429 0)
(0.866532 0.665286 0)
(0.862834 0.693733 0)
(0.85772 0.713071 0)
(0.855364 0.718007 0)
(0.850026 0.724289 0)
(0.847384 0.738603 0)
(0.849646 0.761668 0)
(0.861981 0.79539 0)
(0.887618 0.838978 0)
(0.922391 0.892752 0)
(0.98 0.953644 0)
(1.07638 1.01315 0)
(1.20542 1.06072 0)
(1.36069 1.08677 0)
(3 -1.92044e-16 0)
(3 -1.25765e-16 0)
(3 -1.02361e-16 0)
(3 -9.91665e-17 0)
(3 -1.08848e-15 0)
(3 -1.08417e-15 0)
(3 -1.3028e-15 0)
(3 -1.31468e-15 0)
(3 -2.0945e-15 0)
(3 -1.35291e-15 0)
(3 6.71827e-16 0)
(3 1.12984e-15 0)
(3 5.73858e-16 0)
(3 1.52199e-16 0)
(3 6.18684e-17 0)
(3 4.9255e-16 0)
(3 6.63306e-16 0)
(3 4.64208e-16 0)
(3 3.84715e-16 0)
(3 6.22175e-16 0)
(3 3.83076e-16 0)
(3 -4.50987e-16 0)
(3 -5.51835e-16 0)
(3 -5.4084e-16 0)
(3 -4.89892e-16 0)
(3 -9.16332e-16 0)
(3 -1.45393e-15 0)
(3 -1.38493e-15 0)
(3 -8.58136e-16 0)
(3 -2.09821e-12 0)
(3 -2.32952e-07 0)
(2.99307 0.17541 0)
(1.20074 0.684158 0)
(0.944369 0.667313 0)
(0.924539 0.689533 0)
(0.904576 0.718515 0)
(0.890381 0.736323 0)
(0.887209 0.740699 0)
(0.885505 0.743472 0)
(0.885295 0.754949 0)
(0.890027 0.775398 0)
(0.9042 0.806103 0)
(0.931884 0.848152 0)
(0.970335 0.898287 0)
(1.03329 0.950851 0)
(1.12435 0.997866 0)
(1.23471 1.03425 0)
(1.36913 1.05271 0)
(3 9.03628e-17 0)
(3 -9.37319e-17 0)
(3 1.68778e-16 0)
(3 5.93869e-16 0)
(3 7.49636e-16 0)
(3 4.81345e-16 0)
(3 3.70222e-17 0)
(3 8.02892e-17 0)
(3 -5.68023e-16 0)
(3 -6.17894e-16 0)
(3 -4.44942e-16 0)
(3 -5.14592e-16 0)
(3 -6.55922e-16 0)
(3 -6.67643e-16 0)
(3 -5.87777e-16 0)
(3 -6.42929e-17 0)
(3 1.50312e-17 0)
(3 -1.58283e-16 0)
(3 -4.51519e-17 0)
(3 6.09243e-16 0)
(3 1.39898e-15 0)
(3 1.89218e-15 0)
(3 1.18269e-15 0)
(3 7.78197e-17 0)
(3 -5.60965e-16 0)
(3 -3.07547e-16 0)
(3 -3.61111e-16 0)
(3 -6.63785e-16 0)
(3 -1.01758e-15 0)
(3 -8.09252e-15 0)
(3 -9.58165e-08 0)
(3.02646 0.00554611 0)
(1.51113 0.654841 0)
(0.960885 0.721983 0)
(0.928818 0.730793 0)
(0.92056 0.754259 0)
(0.916268 0.762815 0)
(0.918309 0.763915 0)
(0.920964 0.76298 0)
(0.922845 0.771727 0)
(0.930202 0.789727 0)
(0.947653 0.816745 0)
(0.973575 0.856362 0)
(1.01577 0.90163 0)
(1.08059 0.944212 0)
(1.16249 0.981014 0)
(1.25762 1.00683 0)
(1.37606 1.01689 0)
(3 7.36936e-18 0)
(3 -9.93388e-17 0)
(3 7.8444e-17 0)
(3 -1.99252e-18 0)
(3 1.31838e-15 0)
(3 9.00946e-16 0)
(3 8.96109e-16 0)
(3 3.07112e-16 0)
(3 5.62783e-17 0)
(3 -5.85288e-16 0)
(3 -7.86249e-16 0)
(3 -7.17558e-16 0)
(3 -8.89163e-16 0)
(3 -9.97198e-16 0)
(3 -9.69302e-16 0)
(3 -1.00438e-15 0)
(3 -7.3746e-16 0)
(3 1.71044e-17 0)
(3 6.14376e-16 0)
(3 8.77e-16 0)
(3 9.55322e-16 0)
(3 7.74761e-16 0)
(3 3.20986e-16 0)
(3 -8.17747e-16 0)
(3 -9.31648e-16 0)
(3 -8.46223e-16 0)
(3 -3.56086e-16 0)
(3 -1.55962e-16 0)
(3 -4.79247e-16 0)
(3 3.3092e-17 0)
(3 -5.13145e-09 0)
(3.00024 1.90119e-05 0)
(2.32939 0.522919 0)
(1.05905 0.741694 0)
(0.960014 0.737861 0)
(0.955974 0.761713 0)
(0.954936 0.777183 0)
(0.956683 0.782854 0)
(0.961593 0.782251 0)
(0.965014 0.786286 0)
(0.973119 0.803162 0)
(0.991537 0.827961 0)
(1.01579 0.863418 0)
(1.05914 0.902533 0)
(1.12107 0.937018 0)
(1.19491 0.966248 0)
(1.2818 0.985721 0)
(1.38786 0.99411 0)
(3 3.40859e-17 0)
(3 2.63028e-16 0)
(3 -5.41669e-17 0)
(3 4.14159e-17 0)
(3 9.38487e-18 0)
(3 4.38509e-16 0)
(3 3.66944e-16 0)
(3 2.13343e-16 0)
(3 1.34059e-16 0)
(3 -4.4991e-16 0)
(3 -5.50626e-16 0)
(3 -7.29736e-16 0)
(3 -3.72694e-16 0)
(3 -3.45843e-16 0)
(3 -1.82535e-16 0)
(3 -4.63504e-16 0)
(3 -6.87212e-16 0)
(3 -8.12327e-16 0)
(3 1.18849e-17 0)
(3 1.21846e-16 0)
(3 -6.09816e-16 0)
(3 -6.0365e-16 0)
(3 -8.40747e-16 0)
(3 -1.60188e-15 0)
(3 -1.95453e-15 0)
(3 -1.06869e-15 0)
(3 2.74252e-16 0)
(3 4.02778e-16 0)
(3 2.19523e-17 0)
(3 6.62839e-17 0)
(3 -2.0158e-11 0)
(3 -5.37408e-07 0)
(3.06948 0.090478 0)
(1.33456 0.718125 0)
(1.02392 0.761788 0)
(0.998821 0.782483 0)
(0.986954 0.801111 0)
(0.986591 0.807247 0)
(0.993784 0.80822 0)
(1.00175 0.810177 0)
(1.01279 0.82355 0)
(1.03147 0.846259 0)
(1.05788 0.876677 0)
(1.10055 0.908065 0)
(1.15762 0.935583 0)
(1.22533 0.95674 0)
(1.3061 0.968483 0)
(1.39936 0.972001 0)
(3 -5.05001e-19 0)
(3 6.90578e-17 0)
(3 -2.00332e-16 0)
(3 -1.50996e-16 0)
(3 -1.16313e-16 0)
(3 8.43019e-17 0)
(3 -2.47206e-16 0)
(3 4.70336e-16 0)
(3 5.4984e-16 0)
(3 5.45634e-16 0)
(3 3.40162e-16 0)
(3 -8.38492e-17 0)
(3 -1.80414e-16 0)
(3 -8.74338e-17 0)
(3 7.27909e-16 0)
(3 2.56421e-16 0)
(3 -1.25409e-15 0)
(3 -1.54475e-15 0)
(3 -1.58859e-15 0)
(3 -1.52828e-15 0)
(3 -8.49896e-16 0)
(3 -4.60802e-16 0)
(3 -6.30287e-16 0)
(3 -4.28345e-16 0)
(3 -2.66426e-16 0)
(3 8.58887e-16 0)
(3 1.42816e-15 0)
(3 1.50144e-15 0)
(3 7.57344e-16 0)
(3 -5.1688e-16 0)
(3 -2.40677e-15 0)
(3 -2.64775e-07 0)
(3.01064 0.00112828 0)
(1.84843 0.682687 0)
(1.0607 0.819409 0)
(1.024 0.816919 0)
(1.0202 0.818091 0)
(1.02306 0.819183 0)
(1.03189 0.820014 0)
(1.04341 0.82179 0)
(1.05708 0.829769 0)
(1.07512 0.851808 0)
(1.10056 0.878866 0)
(1.13863 0.906044 0)
(1.18933 0.930178 0)
(1.25215 0.947599 0)
(1.32845 0.957875 0)
(1.41256 0.95973 0)
(3 7.96004e-17 0)
(3 1.99291e-16 0)
(3 1.30338e-16 0)
(3 -4.30188e-16 0)
(3 -3.1823e-16 0)
(3 2.75521e-16 0)
(3 6.11064e-16 0)
(3 7.07062e-16 0)
(3 8.7745e-16 0)
(3 7.2459e-16 0)
(3 -2.22034e-17 0)
(3 -2.45875e-16 0)
(3 -3.00189e-16 0)
(3 1.60895e-16 0)
(3 3.06089e-16 0)
(3 -6.4676e-16 0)
(3 -1.55801e-15 0)
(3 -1.47493e-15 0)
(3 -1.95008e-15 0)
(3 -2.00453e-15 0)
(3 -1.70896e-15 0)
(3 -7.3819e-16 0)
(3 -5.57494e-16 0)
(3 4.56582e-16 0)
(3 1.67106e-15 0)
(3 1.65886e-15 0)
(3 1.94247e-15 0)
(3 2.57691e-15 0)
(3 1.47357e-15 0)
(3 5.6338e-16 0)
(3 8.83588e-15 0)
(3 -1.7482e-08 0)
(3.00004 3.89149e-06 0)
(2.8796 0.273373 0)
(1.2708 0.798853 0)
(1.07733 0.825445 0)
(1.07564 0.826817 0)
(1.07096 0.833104 0)
(1.07117 0.838514 0)
(1.08086 0.842021 0)
(1.09457 0.850983 0)
(1.11423 0.867172 0)
(1.13966 0.887944 0)
(1.17491 0.909485 0)
(1.22093 0.92907 0)
(1.27872 0.942791 0)
(1.34894 0.949533 0)
(1.42572 0.946824 0)
(3 -9.35523e-17 0)
(3 -2.28772e-16 0)
(3 -4.09868e-16 0)
(3 -3.67747e-16 0)
(3 -1.59923e-16 0)
(3 4.48027e-16 0)
(3 5.58433e-16 0)
(3 3.43933e-16 0)
(3 1.55925e-16 0)
(3 -6.09563e-18 0)
(3 -1.40607e-16 0)
(3 -3.03948e-17 0)
(3 9.04668e-17 0)
(3 -7.94409e-17 0)
(3 1.96735e-16 0)
(3 -1.35145e-15 0)
(3 -1.00192e-15 0)
(3 -1.33564e-15 0)
(3 -1.50478e-15 0)
(3 -1.23918e-15 0)
(3 -1.21416e-15 0)
(3 -9.3891e-16 0)
(3 6.49207e-16 0)
(3 1.33109e-15 0)
(3 1.43425e-15 0)
(3 1.86156e-15 0)
(3 1.88916e-15 0)
(3 2.062e-15 0)
(3 2.74956e-16 0)
(3 -4.77091e-16 0)
(3 1.77704e-15 0)
(3 -5.95529e-11 0)
(3 -3.25651e-07 0)
(3.03815 0.0112725 0)
(1.65004 0.768763 0)
(1.09724 0.869515 0)
(1.09056 0.864476 0)
(1.09293 0.867362 0)
(1.09905 0.868015 0)
(1.11578 0.861896 0)
(1.13285 0.862068 0)
(1.15261 0.87285 0)
(1.1774 0.887912 0)
(1.20999 0.904429 0)
(1.25216 0.920406 0)
(1.30506 0.933178 0)
(1.36765 0.939993 0)
(1.43839 0.938162 0)
(3 -1.68302e-16 0)
(3 -5.45719e-16 0)
(3 -5.44553e-16 0)
(3 -5.13763e-16 0)
(3 -4.3245e-16 0)
(3 -1.85015e-16 0)
(3 -2.99563e-17 0)
(3 -1.0596e-16 0)
(3 -6.87477e-16 0)
(3 -5.98765e-16 0)
(3 -6.25875e-17 0)
(3 4.73222e-16 0)
(3 3.89373e-16 0)
(3 1.23061e-16 0)
(3 1.39926e-16 0)
(3 -1.83484e-16 0)
(3 -7.59887e-16 0)
(3 -6.47469e-16 0)
(3 -2.33447e-16 0)
(3 -4.00994e-16 0)
(3 -3.42008e-16 0)
(3 -7.79289e-16 0)
(3 4.79055e-17 0)
(3 1.06056e-15 0)
(3 1.50664e-15 0)
(3 1.51419e-15 0)
(3 1.05956e-15 0)
(3 1.02486e-15 0)
(3 -1.07058e-15 0)
(3 -1.75067e-15 0)
(3 2.67189e-16 0)
(3 -3.93695e-14 0)
(3 -4.38647e-08 0)
(3.00054 0.000115599 0)
(2.67075 0.434496 0)
(1.27103 0.857214 0)
(1.12943 0.865561 0)
(1.13754 0.869195 0)
(1.14168 0.874368 0)
(1.15394 0.872965 0)
(1.16546 0.879239 0)
(1.18333 0.890535 0)
(1.2087 0.902703 0)
(1.24082 0.914691 0)
(1.2815 0.924926 0)
(1.33091 0.932046 0)