/*--------------------------------*- C++ -*----------------------------------*\
  =========                 |
  \\      /  F ield         | OpenFOAM: The Open Source CFD Toolbox
   \\    /   O peration     | Website:  https://openfoam.org
    \\  /    A nd           | Version:  7
     \\/     M anipulation  |
\*---------------------------------------------------------------------------*/
FoamFile
{
    version     2.0;
    format      ascii;
    class       volScalarField;
    location    "3.8";
    object      p;
}
// * * * * * * * * * * * * * * * * * * * * * * * * * * * * * * * * * * * * * //

dimensions      [1 -1 -2 0 0 0 0];

internalField   nonuniform List<scalar> 
4032
(
1
1
1
1
1
1
1
1
1
1
1
1.26784
7.42847
10.6128
10.7536
10.9604
11.1458
11.3222
11.4837
11.6272
11.7515
11.8498
11.9233
11.9749
1
1
1
1
1
1
1
1
1
1
1
1.23017
7.26287
10.5813
10.7386
10.9379
11.1195
11.2919
11.4497
11.5892
11.7086
11.8004
11.8654
11.9111
1
1
1
1
1
1
1
1
1
1
1
1.12471
6.94484
10.5424
10.6896
10.8869
11.0681
11.2371
11.39
11.5238
11.639
11.7293
11.7927
11.8407
1
1
1
1
1
1
1
1
1
1
1
1.00843
6.43076
10.4677
10.6263
10.813
10.9874
11.147
11.2932
11.4231
11.5359
11.6205
11.6727
11.7066
1
1
1
1
1
1
1
1
1
1
1
1.00007
5.74356
10.303
10.5148
10.6911
10.8627
11.0145
11.1501
11.2635
11.3551
11.4236
11.4666
11.5174
1
1
1
1
1
1
1
1
1
1
1
1
4.89701
10.06
10.4044
10.5658
10.7256
10.8597
10.9759
11.0734
11.1529
11.2139
11.2319
11.1921
1
1
1
1
1
1
1
1
1
1
1
1
3.94099
9.68084
10.2942
10.4439
10.5843
10.6896
10.7678
10.8229
10.8411
10.8053
10.7432
10.7024
1
1
1
1
1
1
1
1
1
1
1
1
2.90383
9.09117
10.2076
10.3349
10.4451
10.5167
10.549
10.55
10.5002
10.4223
10.2994
10.29
1
1
1
1
1
1
1
1
1
1
1
1
1.851
8.21618
10.1734
10.2051
10.2985
10.336
10.3192
10.2539
10.1057
9.83952
9.06446
7.17936
1
1
1
1
1
1
1
1
1
1
1
1
1.09291
6.97467
10.1697
10.0694
10.0843
10.0849
10.0314
9.90315
9.662
9.18915
8.38946
6.33562
1
1
1
1
1
1
1
1
1
1
1
1
1.00074
5.30378
9.57927
9.76668
9.8296
9.79573
9.71308
9.5338
9.23399
8.67038
7.83926
5.88537
1
1
1
1
1
1
1
1
1
1
1
1
0.99999
3.42694
8.91562
9.62236
9.65787
9.59701
9.47022
9.23283
8.86716
8.28947
7.38384
5.7982
1
1
1
1
1
1
1
1
1
1
1
1
0.999998
1.77606
7.92289
9.60146
9.47672
9.35883
9.19609
8.92586
8.5238
7.9667
7.05582
5.82771
1
1
1
1
1
1
1
1
1
1
1
1
1
1.06466
6.14584
9.18861
9.18405
9.09229
8.92891
8.65737
8.26428
7.69037
6.86246
5.9014
1
1
1
1
1
1
1
1
1
1
1
1
1
1.00014
3.64333
8.53383
9.06669
8.95811
8.76244
8.4496
8.05407
7.47291
6.75591
5.96257
1
1
1
1
1
1
1
1
1
1
1
1
1
0.999998
1.52165
7.5327
9.10329
8.80537
8.55089
8.22768
7.82531
7.30797
6.70396
6.02998
1
1
1
1
1
1
1
1
1
1
1
1
1
1
1.02448
5.45421
8.61253
8.44955
8.27907
8.00973
7.64663
7.19532
6.66655
6.07825
1
1
1
1
1
1
1
1
1
1
1
1
1
1
0.999932
2.66564
7.85756
8.35707
8.18599
7.91041
7.55417
7.12744
6.6372
6.12198
1
1
1
1
1
1
1
1
1
1
1
1
1
1
0.999981
1.19972
5.95535
8.27369
8.07374
7.79859
7.45439
7.05602
6.61063
6.15494
1
1
1
1
1
1
1
1
1
1
1
1
1
1
0.999997
1.00301
3.05512
7.52058
7.9509
7.68248
7.36545
6.99651
6.59809
6.18368
1
1
1
1
1
1
1
1
1
1
1
1
1
1
1
0.999999
1.29289
5.79665
7.90835
7.62235
7.33504
6.98083
6.60452
6.20873
1
1
1
1
1
1
1
1
1
1
1
1
1
1
1
1
1.00689
2.81363
7.08578
7.56141
7.26815
6.93323
6.57982
6.20975
1
1
1
1
1
1
1
1
1
1
1
1
1
1
1
1
1.00002
1.23444
5.23433
7.56284
7.23897
6.91795
6.58395
6.23883
1
1
1
1
1
1
1
1
1
1
1
1
1
1
1
1
1
1.00477
2.3041
6.44898
7.19034
6.89155
6.58413
6.26293
1
1
1
1
1
1
1
1
1
1
1
1
1
1
1
1
1
1.00002
1.1221
4.12973
7.05283
6.91648
6.62711
6.32063
1
1
1
1
1
1
1
1
1
1
1
1
1
1
1
1
1
1
1.00177
1.69147
5.59064
6.91927
6.63754
6.3341
1
1
1
1
1
1
1
1
1
1
1
1
1
1
1
1
1
1
1.00001
1.03743
2.82003
6.19507
6.65254
6.37825
1
1
1
1
1
1
1
1
1
1
1
1
1
1
1
1
1
1
1
1.00039
1.23296
4.15304
6.46676
6.43793
1
1
1
1
1
1
1
1
1
1
1
1
1
1
1
1
1
1
1
1
1.00586
1.74809
5.08518
6.38605
1
1
1
1
1
1
1
1
1
1
1
1
1
1
1
1
1
1
1
1
1.00004
1.04487
2.49457
5.59369
1
1
1
1
1
1
1
1
1
1
1
1
1
1
1
1
1
1
1
1
1
1.00057
1.16633
3.35037
1
1
1
1
1
1
1
1
1
1
1
1
1
1
1
1
1
1
1
1
1
1
1.00391
1.41679
1
1
1
1
1
1
1
1
1
1
1
1
1
1
1
1
1
1
1
1
1
1
1.00002
1.01774
1
1
1
1
1
1
1
1
1
1
1
1
1
1
1
1
1
1
1
1
1
1
1
1.0002
1
1
1
1
1
1
1
1
1
1
1
1
1
1
1
1
1
1
1
1
1
1
1
1
1
1
1
1
1
1
1
1
1
1
1
1
1
1
1
1
1
1
1
1
1
1
1
1
1
1
1
1
1
1
1
1
1
1
1
1
1
1
1
1
1
1
1
1
1
1
1
1
1
1
1
1
1
1
1
1
1
1
1
1
1
1
1
1
1
1
1
1
1
1
1
1
1
1
1
1
1
1
1
1
1
1
1
1
1
1
1
1
1
1
1
1
1
1
1
1
1
1
1
1
1
1
1
1
1
1
1
1
1
1
1
1
1
1
1
1
1
1
1
1
1.56604
0.420567
0.208861
0.173531
0.20089
0.23935
0.32006
0.449479
0.636964
0.809149
0.960382
1.05502
1.09184
1.116
1.15405
1.21326
1.261
1.29857
1.30306
1.29412
1.27129
1.25527
1.26876
1.32056
1.35924
1.36348
1.35042
1.31292
3.43754
5.63046
5.84032
5.92024
5.94391
5.93183
5.91402
5.87847
5.82179
5.74668
5.68186
5.63852
5.60884
5.57174
5.50667
5.41424
5.31811
5.24057
5.19013
5.15637
5.10836
5.01995
4.90915
4.80506
4.72277
4.67284
4.64523
4.58733
4.49088
4.38485
4.28417
4.20358
4.14829
4.11696
4.07567
4.00895
3.92839
3.82456
3.71847
3.64523
3.58986
3.55
3.52565
3.49303
3.44197
3.38374
3.31814
3.25586
3.20589
3.16278
3.12632
3.08677
3.04071
2.98224
2.90074
2.81855
2.76527
2.73049
2.70379
2.68653
2.65939
2.62233
2.56819
2.49364
2.42971
2.39024
2.36715
2.33104
2.80229
1.41266
0.888345
0.69318
0.607861
0.547469
0.484488
0.471794
0.501237
0.581119
0.652551
0.733315
0.837574
0.915867
0.985234
1.06992
1.12234
1.16915
1.21266
1.24855
1.27337
1.27275
1.2806
1.29945
1.31888
1.33181
1.32964
1.31451
3.22511
5.68781
5.98566
5.99449
5.95083
5.89484
5.85905
5.84035
5.83735
5.79854
5.7071
5.60863
5.53273
5.49078
5.46742
5.42808
5.34143
5.2325
5.13415
5.0601
5.02003
4.99059
4.92471
4.82289
4.72047
4.63175
4.55839
4.51081
4.46775
4.41061
4.33384
4.24637
4.15788
4.07922
4.01164
3.95716
3.89982
3.83749
3.77221
3.69644
3.62174
3.56074
3.50989
3.46163
3.42053
3.37359
3.32141
3.2633
3.20077
3.14476
3.09959
3.06246
3.02765
2.98121
2.924
2.85671
2.78655
2.73253
2.69695
2.66529
2.63665
2.60614
2.56608
2.51551
2.46137
2.40888
2.371
2.32402
3.63758
2.42321
1.66531
1.20529
0.998473
0.871344
0.748671
0.620387
0.556235
0.571629
0.61574
0.671447
0.751368
0.828231
0.871223
0.935415
1.0071
1.05614
1.12091
1.20053
1.29288
1.32638
1.32527
1.31486
1.32183
1.3169
1.30426
1.31783
2.80726
5.95313
6.26777
6.01902
5.94048
5.88733
5.82899
5.7879
5.80057
5.84315
5.8318
5.73065
5.59483
5.4852
5.41658
5.39651
5.39028
5.32437
5.21385
5.09685
4.99713
4.93138
4.89871
4.85993
4.78891
4.68815
4.5625
4.45649
4.38993
4.35637
4.34055
4.29813
4.22658
4.12433
3.99117
3.88131
3.81918
3.7848
3.77202
3.74051
3.68798
3.61634
3.51944
3.43573
3.38483
3.34904
3.31575
3.27357
3.22242
3.15527
3.07891
3.0183
2.97555
2.94562
2.92028
2.88527
2.83709
2.76704
2.69259
2.64156
2.60301
2.56601
2.53795
2.51455
2.48651
2.44595
2.39086
2.31435
4.24447
3.16454
2.41326
1.85805
1.44032
1.24387
1.13731
1.00385
0.831469
0.743228
0.729038
0.719857
0.721761
0.733902
0.746541
0.768959
0.829019
0.90023
0.970502
1.05856
1.17072
1.23886
1.2561
1.26465
1.2932
1.30222
1.31043
1.38628
2.28424
5.86418
6.67015
6.2171
6.00307
5.92083
5.83193
5.76691
5.74138
5.75188
5.77389
5.7221
5.62979
5.4884
5.38297
5.31829
5.29007
5.27395
5.21043
5.12452
5.01173
4.89606
4.826
4.77858
4.73924
4.6787
4.60382
4.50493
4.40196
4.33632
4.29039
4.25079
4.19542
4.12191
4.02922
3.92547
3.8395
3.78883
3.75779
3.72707
3.68289
3.6269
3.55028
3.46134
3.38145
3.32612
3.28615
3.24933
3.21025
3.16232
3.09421
3.01299
2.95858
2.92836
2.90251
2.8784
2.84662
2.79987
2.72234
2.63385
2.5759
2.54384
2.52118
2.50438
2.48595
2.45944
2.42239
2.32342
4.665
3.72097
3.00238
2.46444
1.97263
1.61013
1.46336
1.34873
1.20627
1.02377
0.870268
0.815148
0.779936
0.779658
0.780181
0.781098
0.785355
0.793476
0.810188
0.863999
0.970802
1.08961
1.1592
1.19074
1.22481
1.2406
1.33857
1.76805
2.4122
4.55914
6.30992
6.449
6.15882
6.01155
5.85476
5.75787
5.7154
5.68514
5.68905
5.67812
5.62292
5.52682
5.38396
5.28389
5.21919
5.18585
5.16586
5.1094
5.03506
4.92164
4.79746
4.7244
4.67091
4.62901
4.58956
4.53584
4.46089
4.35807
4.26196
4.18904
4.1216
4.05706
4.00219
3.9531
3.89503
3.82306
3.75517
3.69966
3.64597
3.5897
3.53152
3.4697
3.40194
3.33412
3.27581
3.22593
3.17929
3.13143
3.07775
3.0193
2.96675
2.92582
2.89357
2.86311
2.82929
2.78526
2.72167
2.64258
2.57845
2.54238
2.51796
2.49562
2.4736
2.44827
2.41515
2.3263
4.99521
4.1694
3.452
2.94189
2.50383
2.09562
1.76638
1.58796
1.48656
1.36199
1.20843
1.02689
0.929823
0.924871
0.915701
0.872888
0.846361
0.8275
0.806418
0.803575
0.822239
0.874466
0.94346
1.00899
1.08251
1.19223
1.62101
2.46531
2.81431
3.29281
4.74157
5.84852
6.14911
6.16707
6.00951
5.81645
5.6702
5.60804
5.59534
5.61939
5.59148
5.51823
5.3962
5.24974
5.16721
5.11944
5.10704
5.07842
5.01778
4.93004
4.79799
4.68958
4.63544
4.60277
4.57758
4.52974
4.46382
4.35551
4.22199
4.12859
4.07343
4.03327
4.00363
3.97077
3.92231
3.84657
3.74687
3.66459
3.60625
3.55713
3.51207
3.4654
3.40838
3.33625
3.26399
3.20829
3.16298
3.12054
3.07727
3.02878
2.9726
2.91982
2.87918
2.84245
2.80318
2.75905
2.71134
2.66226
2.60943
2.55544
2.51471
2.48524
2.45693
2.42246
2.38249
2.31321
5.2057
4.49981
3.84321
3.30387
2.87366
2.51408
2.20434
1.90904
1.65775
1.55982
1.47223
1.33835
1.17252
1.05489
1.02537
0.986302
0.925365
0.895331
0.874426
0.842164
0.824031
0.822753
0.831646
0.857234
0.931883
1.3183
2.06002
2.70787
2.86151
2.86448
3.19215
4.38029
5.5832
6.06278
6.07908
5.9209
5.70831
5.57999
5.53583
5.54426
5.53627
5.47717
5.39691
5.2834
5.17391
5.11398
5.08351
5.05009
4.98781
4.92017
4.82667
4.71238
4.63936
4.59522
4.54621
4.48685
4.41668
4.32816
4.21927
4.12249
4.06601
4.02844
3.9986
3.95929
3.90967
3.83911
3.73947
3.64282
3.58097
3.5372
3.49699
3.45528
3.40327
3.33103
3.25022
3.19218
3.15441
3.12059
3.08381
3.03708
2.97093
2.89588
2.84115
2.80133
2.76387
2.72883
2.6993
2.67142
2.63592
2.58251
2.51741
2.46631
2.42752
2.38617
2.35115
2.30414
5.37578
4.73745
4.14995
3.65768
3.19779
2.78901
2.52139
2.25947
1.9829
1.7474
1.62158
1.53988
1.43633
1.29425
1.16929
1.12719
1.07695
1.02102
0.987339
0.952102
0.889886
0.850301
0.853797
0.910095
1.17873
1.75403
2.22405
2.45625
2.51676
2.51858
2.55846
2.88217
3.97264
5.3019
5.90972
5.92344
5.78762
5.62522
5.50868
5.45262
5.40975
5.39321
5.37072
5.31345
5.22552
5.11461
5.03131
4.97203
4.9315
4.89318
4.83575
4.75307
4.63628
4.53381
4.46926
4.41445
4.36237
4.31215
4.25625
4.17998
4.08385
4.0112
3.9633
3.91759
3.86767
3.81014
3.73881
3.6521
3.57545
3.52555
3.4836
3.43877
3.38535
3.31634
3.23876
3.18074
3.1437
3.1121
3.07858
3.03679
2.97182
2.87963
2.80237
2.75943
2.73142
2.70779
2.68919
2.66998
2.64518
2.6045
2.53278
2.4498
2.39277
2.3536
2.33317
2.29909
5.50173
4.92091
4.38874
3.92703
3.49078
3.09039
2.76535
2.50287
2.27648
2.05686
1.83828
1.67175
1.60234
1.52406
1.38673
1.25827
1.21718
1.16772
1.09914
1.03584
0.983359
0.93375
0.969126
1.22748
1.71754
2.20066
2.27745
2.2689
2.25648
2.24984
2.25328
2.27314
2.50209
3.42878
4.75291
5.56897
5.75097
5.71864
5.57291
5.40445
5.31992
5.27803
5.2894
5.30266
5.24396
5.13959
5.00228
4.92024
4.87085
4.83652
4.8038
4.74229
4.64124
4.50762
4.42239
4.37066
4.33618
4.30934
4.26127
4.19737
4.105
3.99926
3.91938
3.8612
3.81484
3.77364
3.73017
3.66941
3.58968
3.51127
3.45153
3.40217
3.35282
3.2981
3.2367
3.1835
3.14616
3.10903
3.06871
3.02218
2.9624
2.88537
2.80553
2.75351
2.72782
2.71427
2.70475
2.68063
2.64655
2.595
2.52038
2.43619
2.38093
2.35226
2.33845
2.3066
5.59653
5.07273
4.5993
4.14754
3.71234
3.35858
3.0425
2.73658
2.46465
2.2883
2.10286
1.90548
1.74165
1.67147
1.58011
1.4399
1.35176
1.3072
1.23858
1.15474
1.1056
1.14989
1.44823
1.94276
2.32244
2.39191
2.35145
2.30644
2.29041
2.2871
2.27784
2.25001
2.22661
2.29255
2.8328
4.02341
5.10961
5.58797
5.61408
5.42968
5.26567
5.20959
5.19847
5.23695
5.209
5.13525
4.99884
4.87408
4.81666
4.77467
4.74844
4.70249
4.63377
4.52352
4.40598
4.3442
4.29915
4.26084
4.22149
4.16997
4.10188
4.00166
3.89923
3.83113
3.78044
3.73546
3.69402
3.652
3.59114
3.50625
3.43317
3.38321
3.3397
3.29508
3.24218
3.17317
3.09961
3.05263
3.01557
2.9746
2.93297
2.89434
2.85008
2.79138
2.73376
2.69304
2.6592
2.62597
2.58807
2.54258
2.48871
2.43585
2.39558
2.36941
2.35485
2.32029
5.67183
5.2002
4.76514
4.32872
3.91603
3.57701
3.26541
2.96199
2.69493
2.48086
2.29391
2.12638
1.95504
1.82316
1.71689
1.61514
1.50767
1.41904
1.35152
1.29453
1.35029
1.70598
2.30666
2.63338
2.62263
2.54382
2.47205
2.44461
2.43181
2.40371
2.35883
2.29591
2.23778
2.22802
2.23605
2.45149
3.29863
4.45189
5.22595
5.34807
5.25309
5.16282
5.13206
5.16672
5.1523
5.09722
4.99586
4.8493
4.76546
4.71953
4.68976
4.65985
4.60926
4.53903
4.42872
4.32129
4.26219
4.21586
4.16872
4.11973
4.06944
4.00327
3.91093
3.81809
3.75174
3.70318
3.65946
3.61493
3.56475
3.49864
3.4245
3.36935
3.32915
3.28968
3.23975
3.16452
3.07433
3.00987
2.97492
2.95117
2.93347
2.90922
2.87324
2.81766
2.73809
2.66179
2.61299
2.57566
2.53979
2.50381
2.47564
2.45343
2.42574
2.39166
2.36199
2.2955
5.73815
5.31081
4.90169
4.48229
4.11129
3.78143
3.46296
3.15378
2.92002
2.69828
2.48712
2.28623
2.14791
2.00756
1.86634
1.75061
1.64463
1.55035
1.49075
1.57303
1.95394
2.64296
3.00076
2.96003
2.83812
2.71394
2.65611
2.63942
2.60195
2.54891
2.49364
2.42896
2.34939
2.27442
2.23534
2.22897
2.28486
2.683
3.62041
4.62853
5.00061
5.10411
5.12938
5.13592
5.10246
5.04778
4.9682
4.83987
4.73058
4.68001
4.64563
4.62088
4.57873
4.52497
4.44495
4.32701
4.22933
4.17101
4.12084
4.07154
4.02346
3.97497
3.91433
3.82938
3.74138
3.67611
3.62559
3.57768
3.52906
3.47806
3.42057
3.35922
3.30662
3.26455
3.21871
3.15486
3.07476
3.0019
2.94919
2.91761
2.89375
2.87355
2.85121
2.81209
2.73556
2.64389
2.58143
2.54375
2.51379
2.49135
2.47628
2.46108
2.43947
2.4023
2.34343
2.26506
5.79476
5.3995
5.0076
4.61599
4.27582
3.95713
3.63531
3.34517
3.10938
2.88472
2.6667
2.46591
2.31351
2.16493
2.02536
1.87763
1.77727
1.73328
1.86503
2.29302
2.87594
3.26254
3.25669
3.16888
3.06837
2.94092
2.84472
2.80342
2.7612
2.71192
2.65765
2.59095
2.4991
2.39401
2.32849
2.27306
2.23513
2.2436
2.35915
2.9305
3.83209
4.62117
4.87913
5.01794
5.06162
5.00511
4.92939
4.81679
4.70331
4.64242
4.60875
4.58186
4.53924
4.48881
4.42425
4.32398
4.20625
4.13556
4.0879
4.04153
3.99499
3.94776
3.89453
3.82528
3.7359
3.65229
3.59243
3.54488
3.50142
3.45842
3.41032
3.35205
3.28615
3.22417
3.17292
3.12642
3.07629
3.01311
2.94263
2.88878
2.8598
2.83665
2.80784
2.77047
2.71646
2.6363
2.56348
2.52589
2.50741
2.50001
2.49358
2.47306
2.43584
2.36848
2.30017
2.23494
5.83454
5.47202
5.10078
4.74372
4.42525
4.11098
3.78877
3.52773
3.28677
3.05645
2.82151
2.6444
2.47303
2.31516
2.15287
2.00939
2.00926
2.22921
2.85339
3.29877
3.52296
3.51625
3.43513
3.37218
3.29635
3.18636
3.05231
2.96261
2.91038
2.85698
2.7954
2.73074
2.66006
2.56142
2.45464
2.38567
2.32768
2.27339
2.25212
2.26302
2.45227
3.08251
3.92976
4.5679
4.80172
4.91494
4.89003
4.79741
4.70051
4.6061
4.55359
4.51989
4.48027
4.43377
4.3767
4.29474
4.18058
4.09803
4.05447
4.01394
3.97127
3.92535
3.8726
3.80399
3.71102
3.61918
3.56283
3.5232
3.48451
3.44324
3.39632
3.33654
3.25644
3.17746
3.12928
3.09574
3.06201
3.01942
2.95773
2.8831
2.82356
2.78473
2.75205
2.71831
2.68236
2.64064
2.59494
2.54344
2.50376
2.48347
2.46398
2.43818
2.40044
2.33741
2.26937
2.21108
5.89106
5.54858
5.19512
4.86091
4.55377
4.24144
3.93654
3.68762
3.44555
3.20397
2.98273
2.79955
2.61719
2.45405
2.28576
2.3323
2.67843
3.39391
3.95733
3.97007
3.82488
3.66886
3.58267
3.55036
3.48936
3.39682
3.27619
3.14335
3.06132
2.99841
2.93233
2.86095
2.78536
2.69947
2.60107
2.51214
2.44606
2.38726
2.31816
2.26345
2.22115
2.24275
2.49722
3.15893
3.94508
4.49881
4.66146
4.75737
4.71699
4.61003
4.50336
4.43714
4.40144
4.36405
4.31946
4.2603
4.17016
4.07095
4.0126
3.9741
3.93665
3.89665
3.84891
3.78104
3.67807
3.57804
3.52899
3.49514
3.46112
3.42447
3.38104
3.32151
3.23147
3.1373
3.09188
3.06449
3.03673
3.00564
2.96212
2.88979
2.80036
2.73889
2.70349
2.67391
2.65008
2.63185
2.60939
2.57232
2.51624
2.46476
2.42893
2.39647
2.35933
2.31054
2.26385
2.21559
5.93441
5.6026
5.27148
4.96196
4.66074
4.35122
4.07601
3.82979
3.58592
3.33631
3.13459
2.92835
2.7622
2.6053
2.70087
3.20894
3.87625
4.39452
4.41489
4.28895
4.07159
3.85535
3.75226
3.7131
3.66764
3.58638
3.48714
3.35244
3.2212
3.13555
3.06346
2.98861
2.90818
2.81909
2.72036
2.62335
2.54413
2.48351
2.4233
2.35499
2.28809
2.217
2.17435
2.21481
2.55102
3.24102
3.93474
4.42633
4.53602
4.57328
4.48915
4.37498
4.32991
4.29135
4.25377
4.21584
4.15549
4.05961
3.97094
3.92235
3.88498
3.84775
3.806
3.7467
3.64988
3.54571
3.4908
3.45689
3.42496
3.39172
3.35327
3.29968
3.2131
3.10894
3.05361
3.02727
3.00267
2.97741
2.94669
2.8941
2.80084
2.70575
2.66207
2.6427
2.63199
2.62441
2.60453
2.5761
2.52501
2.44946
2.38905
2.35056
2.31639
2.28631
2.27147
2.23289
6.00101
5.67463
5.35946
5.05946
4.76198
4.46242
4.20907
3.96185
3.7095
3.47628
3.25395
3.08141
2.98432
3.19681
3.91621
4.50704
4.73971
4.78864
4.66769
4.52671
4.35715
4.13028
3.96563
3.88862
3.8317
3.74977
3.65122
3.53127
3.39252
3.27744
3.18708
3.10368
3.02266
2.93834
2.84477
2.74235
2.64627
2.56875
2.50259
2.44283
2.37777
2.30627
2.23758
2.15915
2.13268
2.21508
2.60071
3.29489
3.91731
4.2939
4.35051
4.3243
4.28794
4.23223
4.19305
4.15784
4.10985
4.03667
3.93786
3.86558
3.82513
3.7911
3.7541
3.70353
3.62098
3.51401
3.44447
3.40916
3.38124
3.35401
3.32268
3.27729
3.20049
3.09244
3.01727
2.98434
2.95887
2.9342
2.90788
2.87159
2.81066
2.72363
2.65158
2.62352
2.60689
2.59183
2.58315
2.56433
2.51982
2.43876
2.35264
2.30438
2.28443
2.2726
2.2627
2.23105
6.02831
5.71658
5.42494
5.13464
4.83924
4.56512
4.32545
4.07307
3.81349
3.59046
3.39627
3.4176
3.79153
4.71434
5.32039
5.20704
5.06996
4.94454
4.85569
4.7669
4.62839
4.427
4.20695
4.0815
3.99612
3.90664
3.80399
3.6886
3.55504
3.4206
3.31204
3.21948
3.13281
3.04735
2.95984
2.86382
2.75722
2.6595
2.57792
2.51024
2.44869
2.38804
2.31758
2.23981
2.15257
2.09808
2.09302
2.21144
2.62667
3.28717
3.83306
4.09896
4.13764
4.16966
4.14105
4.1018
4.06003
3.99653
3.9019
3.80398
3.7587
3.73119
3.70161
3.66285
3.60019
3.49915
3.40141
3.35561
3.33035
3.30878
3.2862
3.25449
3.19565
3.09111
2.98636
2.94095
2.91512
2.88993
2.86288
2.83278
2.79706
2.74332
2.66929
2.61149
2.58068
2.55869
2.53437
2.50516
2.47329
2.42432
2.35488
2.29512
2.26587
2.25348
2.24737
2.22756
6.07189
5.77844
5.49918
5.22063
4.93462
4.67963
4.4323
4.1641
3.94015
3.74718
3.90762
4.5635
5.38035
6.03354
5.99396
5.64375
5.2924
5.1141
5.03737
4.9793
4.84525
4.65979
4.4347
4.26877
4.16292
4.06582
3.95948
3.84445
3.71487
3.56828
3.4328
3.326
3.23574
3.14919
3.06267
2.97183
2.86929
2.75751
2.65478
2.5729
2.50577
2.44888
2.39365
2.33051
2.24869
2.16383
2.0749
2.03847
2.05033
2.19822
2.6448
3.22847
3.74018
3.90984
3.99444
4.04266
4.01003
3.95392
3.86696
3.74281
3.68229
3.65966
3.63517
3.60513
3.56124
3.48661
3.37822
3.30793
3.28064
3.26063
3.24159
3.21779
3.17555
3.0957
2.98597
2.9075
2.86923
2.8446
2.8231
2.8033
2.7801
2.74383
2.68048
2.60221
2.54925
2.51618
2.48601
2.4552
2.42412
2.39579
2.36315
2.31865
2.27378
2.23903
2.22971
2.22919
6.14763
5.86151
5.5809
5.30761
5.02316
4.78419
4.51381
4.28329
4.18705
4.52266
5.49301
6.16441
6.38811
6.40112
6.19348
5.89838
5.57113
5.36318
5.26461
5.19028
5.05004
4.86772
4.65095
4.46771
4.34036
4.22956
4.11666
3.9945
3.8607
3.71089
3.55948
3.43255
3.33194
3.24217
3.15512
3.06673
2.97148
2.86513
2.75382
2.65464
2.57242
2.50261
2.44229
2.38321
2.31557
2.23653
2.14905
2.0686
2.00643
1.98074
2.00578
2.17512
2.61858
3.16218
3.59791
3.83807
3.91594
3.91703
3.85134
3.71633
3.62916
3.59891
3.57358
3.54582
3.51194
3.46447
3.38876
3.29674
3.23348
3.19966
3.1763
3.15214
3.12291
3.07263
2.9883
2.89827
2.83835
2.80377
2.78548
2.77026
2.7505
2.72106
2.66714
2.58165
2.50835
2.46485
2.43361
2.40836
2.38886
2.37396
2.35828
2.32751
2.28858
2.23849
2.23245
2.38315
6.20946
5.92248
5.65116
5.37753
5.10418
4.87021
4.63908
4.74584
5.35427
6.48962
7.20898
7.08327
6.8406
6.5505
6.32839
6.12915
5.87179
5.64261
5.50081
5.39592
5.25518
5.06919
4.85186
4.65751
4.50628
4.3775
4.25377
4.12538
3.99048
3.84501
3.69135
3.54879
3.43028
3.32846
3.2331
3.1405
3.04701
2.94821
2.84425
2.74414
2.65292
2.57039
2.49408
2.42221
2.35452
2.28792
2.21596
2.13777
2.06117
1.98889
1.95674
1.92746
1.95836
2.1564
2.58377
3.11018
3.49768
3.72961
3.74455
3.70716
3.6365
3.57209
3.53366
3.50329
3.4745
3.44296
3.39486
3.30413
3.21426
3.1737
3.14573
3.11711
3.07954
3.03143
2.97684
2.90886
2.82557
2.78845
2.77805
2.76221
2.7372
2.70018
2.64696
2.57365
2.49855
2.43365
2.38361
2.36341
2.35299
2.34496
2.33918
2.33643
2.32139
2.34569
2.45738
2.89019
6.22429
6.00498
5.73199
5.41887
5.20449
5.07983
5.459
6.48947
7.35492
7.86863
7.73627
7.35097
7.02329
6.76944
6.57465
6.3967
6.17338
5.91873
5.73416
5.6014
5.45487
5.26581
5.03938
4.8231
4.65986
4.51823
4.38214
4.24496
4.10547
3.96197
3.81298
3.66767
3.53751
3.42476
3.32025
3.21949
3.12054
3.02028
2.91855
2.81975
2.7273
2.64124
2.5594
2.48037
2.40399
2.33287
2.26351
2.19312
2.12128
2.0474
1.97465
1.91166
1.88972
1.86432
1.91046
2.14253
2.57345
3.1014
3.40212
3.56034
3.55164
3.50035
3.4694
3.47442
3.4666
3.43853
3.39904
3.31953
3.21584
3.10867
3.03783
3.01399
3.00309
2.99979
2.97804
2.92823
2.85904
2.78449
2.71595
2.6716
2.64426
2.61305
2.57421
2.53563
2.49078
2.42534
2.3643
2.3452
2.34027
2.34397
2.34826
2.40878
2.56198
2.80371
3.11145
3.48605
5.77493
6.06982
5.8267
5.51256
5.62858
6.44253
7.80894
8.48136
8.53865
8.31319
7.92586
7.53172
7.21757
7.03341
6.835
6.62645
6.42635
6.18141
5.95012
5.78707
5.63578
5.44818
5.23136
5.00101
4.80551
4.65333
4.51171
4.36844
4.22251
4.07424
3.92178
3.7712
3.63222
3.51151
3.40328
3.30069
3.19853
3.09238
2.98282
2.87459
2.77449
2.68709
2.60959
2.53574
2.46117
2.38149
2.29791
2.21357
2.1361
2.06805
2.00268
1.94186
1.88775
1.84047
1.80616
1.79459
1.86406
2.13397
2.57551
3.10629
3.33633
3.34649
3.35807
3.33003
3.32001
3.31179
3.29208
3.26236
3.19683
3.08186
2.99064
2.94291
2.92184
2.90618
2.89414
2.88585
2.85593
2.77719
2.6898
2.6214
2.57319
2.55075
2.5329
2.51243
2.48364
2.43462
2.38507
2.34643
2.34283
2.38668
2.54897
2.85533
3.20629
3.47191
3.73985
3.79618
4.10988
5.78267
5.80541
6.34344
7.703
9.10296
9.46538
9.03065
8.76393
8.48137
8.16248
7.83763
7.51075
7.32729
7.12874
6.87997
6.66602
6.44669
6.19622
5.97418
5.78873
5.60412
5.40329
5.18459
4.96681
4.77345
4.61651
4.47304
4.32587
4.17303
4.0195
3.86736
3.72614
3.59811
3.48125
3.3726
3.26774
3.16154
3.0499
2.93362
2.82379
2.72948
2.64963
2.57676
2.50451
2.42569
2.34075
2.25303
2.17301
2.10585
2.04705
1.9927
1.93355
1.87699
1.81976
1.77478
1.73615
1.74128
1.83449
2.14188
2.59804
3.05053
3.28281
3.2513
3.25443
3.23895
3.20393
3.15851
3.11008
3.05324
2.97907
2.91347
2.86008
2.82964
2.8214
2.8125
2.78704
2.74413
2.6728
2.59939
2.54211
2.48511
2.44152
2.42097
2.41222
2.418
2.4052
2.43556
2.56263
2.8454
3.21212
3.59266
3.77958
3.8228
3.85683
3.81979
1.82871
4.20499
6.54099
9.47735
10.248
10.3445
9.94823
9.33042
8.87197
8.61803
8.39502
8.11371
7.77442
7.552
7.36095
7.11016
6.8611
6.64632
6.41944
6.18492
5.95675
5.75378
5.55805
5.33745
5.1255
4.92682
4.73763
4.58061
4.44099
4.27977
4.10828
3.94919
3.79889
3.67735
3.58682
3.49676
3.39298
3.28624
3.17186
3.04995
2.93535
2.83906
2.75842
2.68386
2.60844
2.52538
2.43483
2.34239
2.25857
2.18707
2.12641
2.07067
2.01217
1.95024
1.88156
1.80715
1.73587
1.68075
1.67024
1.70059
1.84921
2.18997
2.65795
2.95446
3.12186
3.14554
3.1261
3.10636
3.07624
3.02357
2.95938
2.90621
2.85908
2.80436
2.75193
2.7197
2.68988
2.65615
2.62567
2.58647
2.52186
2.45877
2.42509
2.41298
2.40845
2.44747
2.58609
2.89322
3.29045
3.67602
3.81547
3.8771
3.89612
3.90142
3.88336
3.82518
1.05447
2.38589
8.97306
12.1041
11.1777
10.6498
10.0735
9.49676
9.08645
8.83205
8.66751
8.42452
8.09747
7.84241
7.656
7.37498
7.04637
6.83698
6.65735
6.42665
6.18533
5.92088
5.65995
5.48179
5.30628
5.12297
4.92337
4.70387
4.5234
4.40149
4.26218
4.09819
3.93939
3.78064
3.62924
3.50189
3.39015
3.27801
3.15805
3.0327
2.91318
2.80746
2.71857
2.6418
2.57206
2.50087
2.42275
2.33704
2.25286
2.17723
2.11168
2.0537
1.99767
1.93898
1.87209
1.81257
1.74979
1.68999
1.63274
1.60023
1.59963
1.64817
1.83957
2.2118
2.62348
2.83024
2.95578
2.97886
2.96839
2.96249
2.95849
2.92653
2.87928
2.80774
2.71292
2.63653
2.5948
2.56583
2.5375
2.50835
2.48828
2.477
2.4475
2.46492
2.57335
2.895
3.30071
3.68298
3.8735
4.00875
4.03204
4.01089
3.98107
3.97043
3.9373
3.85986
1.00095
2.38251
10.2794
12.0526
11.0067
10.4096
9.94628
9.54988
9.25931
9.04179
8.90718
8.64493
8.29468
8.00046
7.81087
7.62481
7.32589
6.99458
6.75692
6.59309
6.38915
6.13652
5.86259
5.56717
5.3071
5.12318
4.99309
4.85587
4.67849
4.47665
4.27224
4.07507
3.91557
3.80031
3.68965
3.57081
3.4512
3.32937
3.20369
3.07656
2.95342
2.83872
2.73916
2.65641
2.58656
2.52308
2.45949
2.38685
2.30168
2.21719
2.14247
2.07868
2.02457
1.97366
1.91572
1.85055
1.78807
1.72488
1.65195
1.59136
1.56169
1.55497
1.56851
1.63065
1.85067
2.22711
2.65837
2.73864
2.79809
2.83459
2.84245
2.8265
2.80153
2.75408
2.67874
2.59979
2.53822
2.50087
2.48073
2.48053
2.49053
2.51865
2.63708
2.93794
3.33664
3.70994
3.94135
4.0767
4.11112
4.12819
4.11403
4.07604
4.02576
3.97041
3.91392
3.82786
1.00001
3.27817
10.1723
11.2295
10.727
10.4484
10.1328
9.82053
9.55076
9.29609
9.0534
8.77609
8.46234
8.18727
7.98519
7.77662
7.49965
7.17405
6.88868
6.65213
6.43127
6.20427
5.96268
5.69971
5.4408
5.21674
5.02596
4.85511
4.69442
4.52068
4.34202
4.17702
4.02276
3.87286
3.72982
3.59743
3.46859
3.33946
3.21301
3.09197
2.97963
2.87466
2.77752
2.68695
2.60102
2.51731
2.43565
2.35665
2.28215
2.21262
2.1459
2.07944
2.01318
1.95172
1.89566
1.84165
1.79242
1.75433
1.7116
1.65055
1.58248
1.53477
1.49945
1.47954
1.50424
1.62183
1.91436
2.27908
2.61759
2.73575
2.7592
2.76754
2.73449
2.68334
2.62622
2.55655
2.48531
2.46468
2.46635
2.49766
2.63042
2.92842
3.40357
3.77473
4.04623
4.15213
4.18353
4.18913
4.16942
4.121
4.07406
4.02903
3.98496
3.943
3.90101
3.82139
1
3.59832
9.92939
10.6994
10.6377
10.4457
10.1856
9.91654
9.65894
9.42351
9.17759
8.90295
8.61571
8.34187
8.1254
7.91002
7.61342
7.28989
7.01456
6.75116
6.50106
6.26567
6.03049
5.78499
5.53571
5.29588
5.07935
4.8899
4.71667
4.55038
4.39084
4.23728
4.0831
3.92652
3.77436
3.63233
3.49814
3.37092
3.25115
3.13665
3.02639
2.9178
2.81091
2.70764
2.61095
2.52134
2.43876
2.36391
2.29377
2.22563
2.15635
2.08568
2.01436
1.95076
1.90177
1.86166
1.81889
1.76704
1.71015
1.65003
1.58598
1.52678
1.48442
1.45949
1.44652
1.4483
1.49413
1.67147
1.99669
2.32707
2.57761
2.69122
2.68137
2.65237
2.60621
2.54026
2.48616
2.492
2.58735
2.85153
3.34338
3.83312
4.17499
4.24692
4.26744
4.26214
4.23767
4.20019
4.14002
4.08872
4.04981
4.0178
3.9842
3.94094
3.89869
3.83002
1
3.53488
9.82764
10.6069
10.4413
10.349
10.1642
9.96473
9.74483
9.51302
9.25512
8.98156
8.71221
8.46864
8.2651
8.03931
7.71564
7.38427
7.11615
6.87307
6.62301
6.37491
6.11335
5.8379
5.57004
5.32875
5.12209
4.94026
4.76909
4.59916
4.42576
4.25356
4.08827
3.93427
3.79134
3.65647
3.52664
3.39996
3.27545
3.15371
3.03841
2.92976
2.82543
2.72436
2.6273
2.53615
2.45201
2.37417
2.29951
2.22715
2.15736
2.09153
2.02685
1.96867
1.91784
1.86824
1.81585
1.75907
1.70391
1.65469
1.60224
1.54943
1.50238
1.47042
1.44177
1.41999
1.39467
1.39649
1.45875
1.69892
2.06721
2.37717
2.50726
2.55335
2.57205
2.55848
2.62955
2.84283
3.28179
3.79862
4.21912
4.40566
4.4629
4.40492
4.32808
4.25289
4.19889
4.16332
4.12602
4.08806
4.04985
4.00561
3.96993
3.9352
3.90354
3.84626
1
3.38768
9.87122
10.606
10.4471
10.3364
10.171
9.99248
9.77501
9.54081
9.28991
9.0364
8.78844
8.55063
8.30097
7.99818
7.67186
7.3783
7.15357
6.92467
6.65025
6.37005
6.09266
5.84564
5.62689
5.42248
5.22089
5.01464
4.8034
4.59862
4.41177
4.24803
4.10311
3.96958
3.83687
3.69653
3.54642
3.39611
3.26026
3.14204
3.03789
2.94161
2.84855
2.75575
2.65845
2.55604
2.45677
2.3699
2.29468
2.22678
2.16507
2.10879
2.05125
1.98653
1.91432
1.84766
1.79466
1.74635
1.69785
1.66482
1.63784
1.59626
1.54602
1.49694
1.44763
1.40237
1.36635
1.33975
1.32802
1.36233
1.50791
1.81455
2.22651
2.43924
2.58398
2.88183
3.26313
3.68
4.02644
4.33641
4.51876
4.51144
4.4527
4.34265
4.27037
4.22624
4.19514
4.18702
4.17796
4.14044
4.09459
4.03264
3.96457
3.92785
3.90686
3.86058
1
3.29876
9.84707
10.5999
10.432
10.3126
10.1495
9.97326
9.76019
9.5401
9.31219
9.08214
8.84425
8.5875
8.30051
8.00509
7.72686
7.47767
7.25638
6.97025
6.65976
6.36541
6.1184
5.89955
5.69008
5.482
5.26439
5.03001
4.79022
4.57587
4.40043
4.25297
4.11817
3.98736
3.85135
3.70193
3.53931
3.38082
3.24805
3.14016
3.0466
2.95804
2.86862
2.77287
2.667
2.5555
2.45007
2.36207
2.29069
2.23045
2.17845
2.12673
2.06234
1.98405
1.90044
1.82576
1.77062
1.73081
1.70122
1.67186
1.63124
1.58314
1.53274
1.48448
1.43832
1.3948
1.3547
1.31637
1.29986
1.28249
1.2955
1.39582
1.69959
2.24956
2.96253
3.6258
4.17805
4.76632
5.01135
4.95919
4.82004
4.59911
4.43929
4.30115
4.22082
4.184
4.16105
4.1701
4.18647
4.16081
4.11524
4.05435
3.98354
3.94329
3.91951
3.87395
)
;

boundaryField
{
    inlet
    {
        type            fixedValue;
        value           uniform 1;
    }
    outlet
    {
        type            zeroGradient;
    }
    bottom
    {
        type            symmetryPlane;
    }
    top
    {
        type            symmetryPlane;
    }
    obstacle
    {
        type            zeroGradient;
    }
    defaultFaces
    {
        type            empty;
    }
}


// ************************************************************************* //
