/*--------------------------------*- C++ -*----------------------------------*\
  =========                 |
  \\      /  F ield         | OpenFOAM: The Open Source CFD Toolbox
   \\    /   O peration     | Website:  https://openfoam.org
    \\  /    A nd           | Version:  7
     \\/     M anipulation  |
\*---------------------------------------------------------------------------*/
FoamFile
{
    version     2.0;
    format      ascii;
    class       volScalarField;
    location    "3.8";
    object      T;
}
// * * * * * * * * * * * * * * * * * * * * * * * * * * * * * * * * * * * * * //

dimensions      [0 0 0 1 0 0 0];

internalField   nonuniform List<scalar> 
4032
(
1
1
1
1
1
1
1
1
1
1
1
1.14397
2.39553
2.71574
2.72915
2.74571
2.75969
2.77209
2.78251
2.79133
2.79936
2.80663
2.8126
2.81657
1
1
1
1
1
1
1
1
1
1
1
1.12594
2.37986
2.71423
2.72813
2.74399
2.75777
2.76995
2.78016
2.7887
2.79641
2.80324
2.80866
2.81223
1
1
1
1
1
1
1
1
1
1
1
1.06901
2.33799
2.70988
2.7242
2.74029
2.75416
2.76619
2.77612
2.78427
2.79166
2.7984
2.80378
2.80757
1
1
1
1
1
1
1
1
1
1
1
1.00384
2.27169
2.70186
2.71901
2.73503
2.74863
2.76011
2.76964
2.77753
2.78469
2.79101
2.79564
2.79845
1
1
1
1
1
1
1
1
1
1
1
1.00002
2.1859
2.68867
2.71069
2.72615
2.73979
2.7509
2.75987
2.76675
2.77241
2.7773
2.78083
2.78446
1
1
1
1
1
1
1
1
1
1
1
1
2.06647
2.66862
2.70121
2.71568
2.72896
2.73941
2.74757
2.75381
2.75888
2.76242
2.76222
2.75757
1
1
1
1
1
1
1
1
1
1
1
1
1.90366
2.62944
2.68417
2.70078
2.71497
2.72512
2.73187
2.73579
2.73667
2.73332
2.72632
2.72017
1
1
1
1
1
1
1
1
1
1
1
1
1.6779
2.55308
2.65526
2.67979
2.69663
2.70753
2.71318
2.71448
2.71109
2.70596
2.70166
2.7137
1
1
1
1
1
1
1
1
1
1
1
1
1.35552
2.42593
2.63007
2.65335
2.67257
2.68486
2.68966
2.68838
2.67995
2.66156
2.6106
2.51162
1
1
1
1
1
1
1
1
1
1
1
1
1.03779
2.29349
2.63207
2.63118
2.64073
2.65213
2.65748
2.65449
2.64181
2.60917
2.55235
2.39122
1
1
1
1
1
1
1
1
1
1
1
1
1.00029
2.10744
2.59283
2.60388
2.6131
2.61762
2.62032
2.61542
2.60038
2.5623
2.49875
2.31446
1
1
1
1
1
1
1
1
1
1
1
1
0.999997
1.77671
2.51466
2.58624
2.59562
2.59393
2.59044
2.58027
2.56013
2.52121
2.44867
2.28963
1
1
1
1
1
1
1
1
1
1
1
1
0.999999
1.30917
2.3629
2.5698
2.56846
2.56659
2.56036
2.54586
2.52089
2.482
2.40674
2.28519
1
1
1
1
1
1
1
1
1
1
1
1
1
1.02593
2.18315
2.52436
2.53567
2.53526
2.52974
2.51478
2.48894
2.44624
2.37614
2.28335
1
1
1
1
1
1
1
1
1
1
1
1
1
1.00008
1.79377
2.43553
2.51517
2.51199
2.50428
2.48691
2.46086
2.41619
2.3547
2.27918
1
1
1
1
1
1
1
1
1
1
1
1
1
0.999999
1.20396
2.27555
2.49719
2.48228
2.47278
2.45625
2.43047
2.39131
2.33956
2.27598
1
1
1
1
1
1
1
1
1
1
1
1
1
1
1.00972
2.06743
2.44268
2.43612
2.43372
2.42313
2.40213
2.3699
2.32583
2.27133
1
1
1
1
1
1
1
1
1
1
1
1
1
1
0.999996
1.5517
2.31856
2.4168
2.40865
2.3957
2.37603
2.34776
2.31009
2.26499
1
1
1
1
1
1
1
1
1
1
1
1
1
1
0.999996
1.07812
2.10278
2.39111
2.38212
2.36894
2.34966
2.32405
2.29175
2.25473
1
1
1
1
1
1
1
1
1
1
1
1
1
1
0.999999
1.00118
1.62566
2.26365
2.35871
2.34222
2.32402
2.30097
2.27347
2.24175
1
1
1
1
1
1
1
1
1
1
1
1
1
1
1
1
1.11242
2.05428
2.33008
2.31521
2.30225
2.28182
2.25679
2.22743
1
1
1
1
1
1
1
1
1
1
1
1
1
1
1
1
1.00263
1.55484
2.18287
2.2915
2.27439
2.25646
2.23523
2.20969
1
1
1
1
1
1
1
1
1
1
1
1
1
1
1
1
1.00001
1.08974
1.96137
2.26561
2.2472
2.23192
2.21415
2.19278
1
1
1
1
1
1
1
1
1
1
1
1
1
1
1
1
1
1.00176
1.42236
2.09163
2.22324
2.20524
2.19004
2.1725
1
1
1
1
1
1
1
1
1
1
1
1
1
1
1
1
1
1.00001
1.04679
1.7855
2.18549
2.18265
2.16935
2.15386
1
1
1
1
1
1
1
1
1
1
1
1
1
1
1
1
1
1
1.00061
1.24454
1.9827
2.1635
2.1461
2.13019
1
1
1
1
1
1
1
1
1
1
1
1
1
1
1
1
1
1
1
1.01397
1.53364
2.04307
2.13192
2.11321
1
1
1
1
1
1
1
1
1
1
1
1
1
1
1
1
1
1
1
1.00012
1.08779
1.76793
2.08893
2.09933
1
1
1
1
1
1
1
1
1
1
1
1
1
1
1
1
1
1
1
1
1.00204
1.25806
1.88994
2.0758
1
1
1
1
1
1
1
1
1
1
1
1
1
1
1
1
1
1
1
1
1.00001
1.01652
1.44762
1.94436
1
1
1
1
1
1
1
1
1
1
1
1
1
1
1
1
1
1
1
1
1
1.00018
1.06181
1.61454
1
1
1
1
1
1
1
1
1
1
1
1
1
1
1
1
1
1
1
1
1
1
1.0013
1.15036
1
1
1
1
1
1
1
1
1
1
1
1
1
1
1
1
1
1
1
1
1
1
1.00001
1.00622
1
1
1
1
1
1
1
1
1
1
1
1
1
1
1
1
1
1
1
1
1
1
1
1.00006
1
1
1
1
1
1
1
1
1
1
1
1
1
1
1
1
1
1
1
1
1
1
1
1
1
1
1
1
1
1
1
1
1
1
1
1
1
1
1
1
1
1
1
1
1
1
1
1
1
1
1
1
1
1
1
1
1
1
1
1
1
1
1
1
1
1
1
1
1
1
1
1
1
1
1
1
1
1
1
1
1
1
1
1
1
1
1
1
1
1
1
1
1
1
1
1
1
1
1
1
1
1
1
1
1
1
1
1
1
1
1
1
1
1
1
1
1
1
1
1
1
1
1
1
1
1
1
1
1
1
1
1
1
1
1
1
1
1
1
1
1
1
1
1
1.69219
1.1593
1.02541
1.10665
1.21211
1.26536
1.31385
1.36916
1.45907
1.55811
1.67241
1.72765
1.72309
1.69455
1.66143
1.66212
1.70524
1.759
1.76508
1.74893
1.7088
1.68277
1.68447
1.71087
1.73655
1.73826
1.72679
1.69361
2.38165
2.82217
2.83359
2.83036
2.81946
2.80519
2.79241
2.77851
2.76264
2.7451
2.72875
2.71494
2.703
2.69003
2.67293
2.65195
2.63071
2.61238
2.59865
2.58825
2.57596
2.5583
2.53724
2.51674
2.49915
2.48659
2.47773
2.46386
2.44477
2.4245
2.40507
2.38855
2.37594
2.36764
2.35774
2.34343
2.32693
2.30664
2.28628
2.27169
2.25997
2.25084
2.24457
2.23668
2.22529
2.21266
2.19859
2.18508
2.17385
2.16395
2.15505
2.14509
2.13374
2.11989
2.10141
2.08264
2.06972
2.06102
2.05443
2.05012
2.04369
2.03542
2.02346
2.00668
1.99163
1.98159
1.97514
1.96431
1.94722
1.6229
1.43584
1.38839
1.36994
1.33399
1.25853
1.23276
1.25227
1.31732
1.38617
1.44812
1.50415
1.52322
1.5258
1.54239
1.5832
1.63691
1.6702
1.6725
1.66154
1.6458
1.64658
1.66273
1.68259
1.68805
1.68292
1.6648
2.31586
2.80201
2.81247
2.80347
2.7845
2.7631
2.7471
2.7357
2.72794
2.71628
2.69831
2.67896
2.6617
2.64857
2.63802
2.62514
2.60622
2.58472
2.56469
2.54838
2.53775
2.52948
2.51626
2.49799
2.47919
2.46167
2.44581
2.4341
2.42379
2.41155
2.39614
2.37926
2.36233
2.3467
2.33243
2.32079
2.30945
2.29729
2.28419
2.26924
2.25466
2.24239
2.23157
2.22116
2.21222
2.2021
2.19082
2.17841
2.1651
2.15273
2.14223
2.13352
2.12515
2.1142
2.10072
2.08498
2.06887
2.0562
2.04746
2.03998
2.03352
2.02678
2.01798
2.00658
1.99395
1.9814
1.97178
1.95878
2.03779
1.83696
1.66873
1.53684
1.46778
1.41474
1.35073
1.26715
1.22062
1.23011
1.26018
1.29993
1.34541
1.37908
1.39227
1.41388
1.44736
1.48025
1.51912
1.55547
1.58449
1.59113
1.59316
1.59671
1.60772
1.60787
1.60283
1.60618
2.12136
2.7174
2.72894
2.69638
2.67734
2.65826
2.63994
2.62684
2.62387
2.62499
2.62104
2.60455
2.58321
2.56418
2.55008
2.54247
2.53667
2.5224
2.50266
2.48203
2.46485
2.45376
2.44844
2.44259
2.43188
2.41574
2.39461
2.37597
2.36301
2.35516
2.35036
2.3419
2.3296
2.3123
2.28976
2.27099
2.25992
2.25327
2.25
2.24347
2.23379
2.22087
2.20319
2.18748
2.17756
2.17026
2.16343
2.15494
2.14472
2.1313
2.11616
2.10417
2.09538
2.0888
2.08269
2.07421
2.06296
2.04703
2.03002
2.01806
2.00938
2.00129
1.99532
1.99029
1.98415
1.97518
1.9626
1.9441
2.10156
1.94481
1.81256
1.69205
1.58001
1.5187
1.48093
1.42496
1.34413
1.29584
1.28921
1.2853
1.28843
1.29547
1.30163
1.31116
1.33645
1.36608
1.39693
1.43529
1.48087
1.5066
1.51536
1.5205
1.53344
1.53871
1.5434
1.57074
1.85223
2.49977
2.62893
2.57517
2.54694
2.52977
2.51176
2.49878
2.49277
2.49213
2.49342
2.48575
2.47346
2.45495
2.43998
2.4294
2.4225
2.41674
2.405
2.39132
2.37503
2.35952
2.35132
2.34664
2.34286
2.33558
2.32548
2.31068
2.29393
2.28252
2.27475
2.26847
2.2602
2.2496
2.23649
2.22092
2.20696
2.19849
2.19356
2.18881
2.18171
2.17254
2.15998
2.14497
2.13099
2.12125
2.11434
2.10797
2.10119
2.09306
2.08142
2.06679
2.05703
2.05179
2.04719
2.04255
2.03553
2.02483
2.00757
1.98753
1.97405
1.96673
1.96191
1.95897
1.95609
1.9515
1.94458
1.92411
2.14821
2.01896
1.90561
1.80801
1.7016
1.6073
1.56529
1.53051
1.48393
1.41669
1.34846
1.31947
1.30357
1.30572
1.30773
1.30662
1.30706
1.30941
1.31497
1.33784
1.38376
1.43069
1.45607
1.46689
1.47808
1.48396
1.51876
1.65582
1.81972
2.21238
2.45278
2.49052
2.45993
2.44005
2.41971
2.40458
2.39745
2.39274
2.39262
2.39082
2.38402
2.37255
2.3549
2.34158
2.33208
2.32602
2.32163
2.31279
2.3026
2.28838
2.27346
2.26589
2.26099
2.25729
2.25312
2.24591
2.23501
2.21982
2.2056
2.1953
2.18628
2.17799
2.17111
2.1649
2.15715
2.14685
2.13674
2.12844
2.12043
2.11209
2.10344
2.0941
2.08361
2.07284
2.06349
2.05557
2.04831
2.04096
2.03253
2.02325
2.01501
2.0088
2.00402
1.99919
1.99305
1.98402
1.97011
1.95253
1.9378
1.92932
1.92398
1.9199
1.91674
1.91353
1.90877
1.89314
2.18238
2.0765
1.97113
1.88701
1.80526
1.71835
1.6375
1.58925
1.56145
1.52436
1.47359
1.40511
1.36351
1.36204
1.35863
1.33992
1.32797
1.31833
1.30784
1.30665
1.31484
1.338
1.36709
1.39261
1.41926
1.45893
1.60532
1.82631
1.89647
1.98515
2.21113
2.35735
2.40117
2.40571
2.38736
2.3631
2.34383
2.33609
2.33491
2.33783
2.33404
2.32432
2.30893
2.29045
2.27964
2.27288
2.27029
2.26531
2.25661
2.24538
2.22923
2.21652
2.21102
2.20818
2.20572
2.19932
2.18983
2.17443
2.15544
2.1426
2.13554
2.13067
2.12757
2.12401
2.11787
2.10727
2.09236
2.07985
2.07118
2.06405
2.05769
2.05115
2.04286
2.03179
2.02041
2.01178
2.0049
1.99852
1.99203
1.98466
1.97581
1.96748
1.96128
1.95558
1.94891
1.94061
1.93092
1.92041
1.90864
1.89642
1.88736
1.88133
1.87646
1.87127
1.86526
1.85482
2.19831
2.11327
2.02373
1.94117
1.86737
1.79923
1.73512
1.66697
1.60121
1.57415
1.54903
1.50817
1.45255
1.4081
1.39667
1.38147
1.35728
1.34402
1.33422
1.31921
1.31077
1.31028
1.31434
1.32576
1.35893
1.51185
1.7355
1.87803
1.9039
1.90114
1.96108
2.15074
2.30891
2.3688
2.37118
2.35305
2.32775
2.31223
2.30691
2.30811
2.30698
2.29955
2.2889
2.27387
2.25941
2.25095
2.2461
2.24099
2.23268
2.22373
2.2116
2.19725
2.18834
2.18314
2.17701
2.16906
2.15927
2.14679
2.13159
2.11818
2.11058
2.10585
2.10236
2.09739
2.09062
2.08025
2.06518
2.05035
2.04098
2.03448
2.02861
2.02246
2.01457
2.00331
1.99038
1.98125
1.97555
1.9704
1.96461
1.95696
1.94565
1.93252
1.92338
1.917
1.9107
1.90451
1.89912
1.89355
1.88586
1.87408
1.85986
1.84882
1.84095
1.83348
1.82814
1.82207
2.20827
2.13483
2.05971
1.99012
1.91748
1.84573
1.79551
1.74181
1.67909
1.61945
1.58529
1.56268
1.53265
1.4883
1.44518
1.42971
1.41145
1.39033
1.3763
1.36104
1.33521
1.31805
1.31956
1.34499
1.45613
1.64987
1.77042
1.81544
1.82356
1.82019
1.82534
1.88825
2.07849
2.26608
2.34265
2.34448
2.32881
2.30902
2.29494
2.28832
2.28334
2.28122
2.27762
2.26897
2.25642
2.24164
2.23008
2.22177
2.21631
2.21105
2.20327
2.19223
2.17671
2.16304
2.1546
2.14729
2.14023
2.13306
2.12513
2.11421
2.10061
2.09057
2.08403
2.0776
2.07042
2.06177
2.05074
2.03731
2.02543
2.01769
2.01122
2.00418
1.99562
1.98448
1.9718
1.96238
1.95664
1.95164
1.94608
1.93882
1.92718
1.91031
1.89618
1.88894
1.88429
1.88031
1.87735
1.87404
1.86912
1.86039
1.84483
1.82682
1.81463
1.80676
1.80367
1.79891
2.21299
2.1484
2.0836
2.02209
1.95807
1.89347
1.83643
1.78612
1.73947
1.69109
1.6383
1.59418
1.57528
1.55364
1.51338
1.47133
1.45705
1.44009
1.41546
1.39124
1.3703
1.35054
1.3672
1.47329
1.63503
1.75974
1.76769
1.76581
1.76058
1.75458
1.75154
1.75224
1.80093
1.98593
2.19249
2.30416
2.3217
2.31679
2.29854
2.2789
2.26906
2.263
2.2634
2.26372
2.25445
2.23992
2.22184
2.21066
2.2034
2.19838
2.19372
2.18509
2.17136
2.15335
2.14187
2.13485
2.12985
2.12572
2.11857
2.10917
2.09585
2.0806
2.06903
2.06061
2.05368
2.0475
2.04078
2.03126
2.01857
2.00602
1.99635
1.9884
1.98042
1.9714
1.9612
1.95231
1.94607
1.93977
1.93288
1.92475
1.91407
1.90026
1.88538
1.87563
1.87095
1.86874
1.86733
1.86312
1.85684
1.84663
1.83102
1.81302
1.80096
1.79462
1.79197
1.78644
2.21336
2.15751
2.10261
2.0452
1.98448
1.93138
1.87995
1.82563
1.77296
1.73734
1.69692
1.65043
1.60855
1.59037
1.56578
1.5251
1.49725
1.48278
1.46025
1.43134
1.41385
1.43248
1.54051
1.68526
1.77967
1.78521
1.77548
1.76385
1.75605
1.75056
1.74669
1.74051
1.73027
1.74355
1.86484
2.08097
2.2399
2.29668
2.29821
2.27633
2.25639
2.24882
2.24666
2.25032
2.24547
2.23386
2.21533
2.19886
2.19093
2.18477
2.18049
2.17369
2.16421
2.14921
2.13304
2.12449
2.11809
2.11247
2.10663
2.099
2.08891
2.07431
2.05919
2.04902
2.0415
2.03464
2.02834
2.02171
2.01186
1.99813
1.98612
1.97791
1.97073
1.96322
1.95426
1.94245
1.92956
1.9214
1.91488
1.90769
1.90026
1.89335
1.88531
1.87401
1.86285
1.85508
1.84854
1.84229
1.83529
1.82666
1.81599
1.8049
1.7959
1.78991
1.78678
1.78068
2.2103
2.16229
2.11412
2.06111
2.00647
1.95837
1.9106
1.86018
1.81229
1.7715
1.73317
1.69689
1.6575
1.62543
1.59801
1.57059
1.54027
1.5138
1.49282
1.47553
1.49668
1.61569
1.76777
1.83697
1.82999
1.80922
1.79311
1.78511
1.77918
1.76966
1.75678
1.73973
1.72482
1.7199
1.71909
1.76724
1.94456
2.13271
2.23515
2.25182
2.24093
2.23051
2.22626
2.23013
2.22738
2.21872
2.20448
2.18504
2.1738
2.16728
2.16277
2.15825
2.15116
2.14159
2.12669
2.1119
2.10376
2.09734
2.09058
2.08347
2.07628
2.06675
2.05311
2.03907
2.02906
2.02178
2.0152
2.00833
2.00039
1.98966
1.97746
1.96826
1.96155
1.95495
1.94648
1.9335
1.91785
1.90668
1.90081
1.8968
1.89377
1.88923
1.88233
1.8713
1.85581
1.84107
1.8317
1.82461
1.8178
1.81106
1.80579
1.80119
1.79509
1.78784
1.78143
1.76803
2.20344
2.16209
2.11938
2.07127
2.02528
1.98115
1.93492
1.88617
1.84731
1.80785
1.76757
1.72637
1.69712
1.66564
1.63171
1.60229
1.57435
1.54818
1.53207
1.55873
1.67055
1.83465
1.89773
1.88758
1.86191
1.83593
1.82187
1.81581
1.80531
1.79145
1.77693
1.76004
1.73991
1.71977
1.70897
1.70334
1.71328
1.80334
1.98079
2.13412
2.18496
2.19893
2.2041
2.20623
2.20213
2.19457
2.18372
2.16697
2.15279
2.14612
2.14131
2.1377
2.13184
2.12473
2.11429
2.09876
2.08566
2.07797
2.07125
2.06458
2.05803
2.0513
2.04258
2.03015
2.01687
2.00707
1.99953
1.99237
1.98493
1.97689
1.96762
1.9576
1.94905
1.9422
1.93456
1.92373
1.91002
1.89748
1.88864
1.88358
1.87963
1.87599
1.87155
1.8635
1.84832
1.83015
1.81809
1.81121
1.80552
1.80133
1.79878
1.79611
1.79175
1.78381
1.77097
1.75469
2.19346
2.15802
2.11881
2.07628
2.03669
1.99656
1.95237
1.9095
1.87267
1.83508
1.79605
1.75767
1.72734
1.69582
1.66446
1.62934
1.60405
1.59517
1.63325
1.74151
1.86977
1.93808
1.93387
1.91406
1.89394
1.86952
1.84851
1.83737
1.82618
1.81348
1.79958
1.783
1.76103
1.73533
1.7179
1.70201
1.69166
1.68956
1.71287
1.83515
1.99305
2.10771
2.14193
2.16212
2.1706
2.16458
2.15491
2.14063
2.12705
2.11995
2.11565
2.11172
2.10582
2.09947
2.09165
2.07916
2.06401
2.05509
2.04924
2.04346
2.03758
2.03151
2.02452
2.01495
2.00208
1.98976
1.98093
1.97402
1.96769
1.96128
1.95392
1.94486
1.93444
1.92448
1.91615
1.90862
1.90049
1.89018
1.87833
1.86942
1.86475
1.86067
1.85529
1.84828
1.83786
1.82199
1.80783
1.8008
1.79758
1.79648
1.79555
1.79185
1.78451
1.77003
1.75532
1.7413
2.1807
2.15026
2.11554
2.0789
2.04393
2.0065
1.96464
1.92886
1.89355
1.85733
1.81742
1.78599
1.75372
1.722
1.68802
1.65459
1.65757
1.71652
1.85114
1.93195
1.971
1.96808
1.95143
1.93738
1.92231
1.90171
1.87515
1.85526
1.84235
1.8292
1.8142
1.79822
1.78076
1.75771
1.73259
1.71441
1.69908
1.68316
1.67693
1.67411
1.71442
1.84385
1.98328
2.07199
2.10514
2.12382
2.12138
2.11079
2.09965
2.08918
2.08319
2.07884
2.07355
2.06784
2.06125
2.05158
2.03744
2.02744
2.02264
2.01813
2.01332
2.00809
2.00192
1.99332
1.98062
1.9676
1.95979
1.95434
1.94894
1.94316
1.93654
1.9278
1.91547
1.90309
1.89576
1.89086
1.88592
1.87951
1.86978
1.85725
1.84736
1.841
1.83544
1.82945
1.82289
1.81545
1.80682
1.79641
1.78876
1.78528
1.78173
1.77679
1.76934
1.75653
1.7426
1.72953
2.16813
2.14119
2.11025
2.07799
2.046
2.01087
1.97382
1.94197
1.90857
1.87255
1.83731
1.80672
1.77418
1.74341
1.7111
1.72283
1.80127
1.93903
2.02776
2.02725
2.00388
1.97832
1.96176
1.95381
1.94146
1.92375
1.90042
1.87394
1.85596
1.84143
1.82602
1.80917
1.79115
1.77098
1.7482
1.72682
1.70966
1.69395
1.67598
1.66138
1.64824
1.65045
1.70551
1.8336
1.95964
2.03856
2.06107
2.07706
2.07318
2.06098
2.04846
2.04123
2.03712
2.03265
2.02753
2.02086
2.01037
1.9986
1.99212
1.98814
1.9844
1.98053
1.97575
1.96805
1.95468
1.94098
1.93468
1.93049
1.92625
1.92168
1.91616
1.90811
1.89478
1.88034
1.87408
1.87066
1.86711
1.863
1.85674
1.84516
1.8298
1.81976
1.81438
1.80961
1.80574
1.80284
1.7987
1.79163
1.78099
1.77118
1.76461
1.75884
1.7522
1.743
1.7341
1.7243
2.15175
2.12781
2.10101
2.07363
2.04426
2.01108
1.97987
1.95005
1.91814
1.88284
1.8531
1.82047
1.79276
1.76685
1.7891
1.88914
2.00336
2.07894
2.07923
2.0591
2.02529
1.99109
1.97289
1.9644
1.95463
1.93871
1.91936
1.89382
1.8683
1.85011
1.83396
1.81694
1.79872
1.77874
1.75654
1.73412
1.71469
1.69874
1.68274
1.66581
1.64861
1.63273
1.6185
1.62524
1.69757
1.82636
1.93433
2.00472
2.02048
2.02689
2.01717
2.005
2.00108
1.99691
1.99239
1.98816
1.98171
1.97099
1.96076
1.9555
1.95178
1.94844
1.94486
1.93897
1.92723
1.9135
1.90679
1.90303
1.89954
1.89595
1.89169
1.88516
1.87316
1.85761
1.85005
1.84715
1.84454
1.84189
1.83829
1.83078
1.81548
1.7994
1.79284
1.79046
1.7895
1.78889
1.78572
1.78054
1.77082
1.75628
1.74511
1.73858
1.73279
1.72789
1.72597
1.71948
2.13539
2.11382
2.09054
2.06617
2.03952
2.00957
1.9826
1.95415
1.92294
1.89229
1.86135
1.83584
1.82514
1.86818
1.9902
2.077
2.10984
2.11136
2.09514
2.0746
2.04875
2.01415
1.98764
1.97357
1.96213
1.94646
1.92782
1.90547
1.87958
1.85692
1.83806
1.82009
1.80236
1.78399
1.7638
1.74141
1.71947
1.70065
1.68395
1.66861
1.65201
1.63511
1.61786
1.60135
1.5885
1.60582
1.68762
1.81383
1.91003
1.96034
1.96995
1.96903
1.96733
1.96255
1.95794
1.95386
1.94898
1.94171
1.93082
1.92254
1.91821
1.91495
1.91193
1.9076
1.89864
1.88512
1.8766
1.87303
1.87052
1.86823
1.86549
1.86074
1.85086
1.83506
1.82436
1.82075
1.81824
1.81598
1.81349
1.8094
1.80113
1.7874
1.77542
1.77186
1.77018
1.76866
1.76802
1.76528
1.75739
1.74221
1.72572
1.71713
1.71454
1.71374
1.71296
1.70829
2.11366
2.09472
2.07543
2.05396
2.0295
2.00468
1.98108
1.95364
1.9232
1.89628
1.87193
1.87871
1.94724
2.08709
2.16308
2.14837
2.12913
2.11105
2.09854
2.08592
2.06585
2.03642
2.0033
1.98239
1.96687
1.95049
1.93187
1.911
1.88685
1.86182
1.8404
1.8215
1.80336
1.78531
1.76691
1.74694
1.72451
1.70297
1.68395
1.66743
1.6521
1.63665
1.61938
1.60133
1.58175
1.56798
1.56028
1.58567
1.67383
1.79051
1.87268
1.90991
1.91739
1.92576
1.92362
1.92085
1.917
1.91075
1.90089
1.8897
1.8847
1.88198
1.87955
1.87666
1.87104
1.85932
1.84675
1.84193
1.84015
1.83906
1.83801
1.83576
1.82922
1.81456
1.7989
1.79323
1.79064
1.78815
1.78551
1.78272
1.77917
1.77211
1.76068
1.7518
1.74794
1.74547
1.74252
1.73882
1.73468
1.72695
1.71429
1.70308
1.69854
1.69753
1.69718
1.69486
2.09461
2.07722
2.05993
2.04113
2.01928
1.99849
1.97572
1.94891
1.92535
1.90731
1.93503
2.03239
2.14226
2.21935
2.21388
2.17416
2.13271
2.11055
2.09958
2.09051
2.07177
2.0459
2.01351
1.98769
1.96958
1.9525
1.93385
1.91357
1.89089
1.86535
1.84095
1.82052
1.80239
1.78467
1.76684
1.74824
1.72764
1.70497
1.6831
1.66456
1.64859
1.63455
1.62077
1.60498
1.5861
1.56663
1.54704
1.53332
1.53392
1.56563
1.65799
1.76037
1.8376
1.86212
1.87636
1.88927
1.88668
1.88102
1.87189
1.85768
1.85096
1.84905
1.84684
1.84448
1.84129
1.83415
1.82076
1.81231
1.81051
1.81
1.80985
1.80918
1.80556
1.79534
1.77912
1.7675
1.76264
1.76006
1.75838
1.75733
1.75594
1.75229
1.74323
1.73083
1.72323
1.71919
1.71567
1.7123
1.70894
1.70591
1.70178
1.69478
1.68665
1.67977
1.67834
1.68201
2.08176
2.06423
2.04651
2.02838
2.00742
1.98906
1.9654
1.94402
1.94548
1.99784
2.12419
2.20246
2.22774
2.22806
2.206
2.17476
2.14012
2.11614
2.10257
2.09154
2.07266
2.04834
2.01837
1.9912
1.97136
1.95352
1.93477
1.91409
1.89135
1.86612
1.84035
1.81774
1.79887
1.78154
1.76444
1.74693
1.7281
1.70718
1.68516
1.66468
1.6468
1.63087
1.61648
1.60225
1.5863
1.56778
1.54813
1.52891
1.51438
1.50384
1.50847
1.54688
1.63874
1.73291
1.80149
1.83634
1.85251
1.85476
1.84831
1.83292
1.82332
1.82062
1.81792
1.8151
1.81249
1.80876
1.80072
1.78935
1.78251
1.78041
1.77988
1.77929
1.77771
1.77207
1.75994
1.7463
1.73782
1.73392
1.7331
1.73276
1.73177
1.72905
1.72167
1.70825
1.69692
1.69113
1.68788
1.68581
1.68491
1.68485
1.68457
1.68061
1.67354
1.66441
1.66534
1.70418
2.06654
2.04903
2.03267
2.01447
1.99497
1.97668
1.96513
1.9843
2.06842
2.20098
2.27473
2.26495
2.24349
2.21605
2.19346
2.17318
2.14697
2.12137
2.10365
2.08965
2.0714
2.04757
2.01886
1.99144
1.96897
1.94924
1.92988
1.9095
1.88771
1.86393
1.83855
1.81456
1.79403
1.77592
1.75865
1.74156
1.72404
1.70543
1.68567
1.66613
1.6477
1.63038
1.61382
1.59783
1.5823
1.56677
1.55021
1.53243
1.51529
1.49797
1.4894
1.48087
1.48813
1.53478
1.62343
1.71497
1.77644
1.81278
1.81788
1.81467
1.80801
1.80114
1.79693
1.79349
1.79041
1.78739
1.78233
1.77128
1.76076
1.75754
1.75618
1.75492
1.75224
1.74682
1.73896
1.72863
1.71671
1.71361
1.71401
1.7132
1.71084
1.70666
1.69968
1.6889
1.67732
1.66727
1.66072
1.66016
1.66077
1.66185
1.66295
1.66508
1.66566
1.67357
1.70054
1.79186
2.05014
2.03601
2.01917
1.9978
1.98271
1.98591
2.03944
2.15841
2.24418
2.2947
2.28413
2.25379
2.22835
2.20648
2.18877
2.17191
2.1497
2.12272
2.10149
2.0849
2.06648
2.04302
2.01449
1.98569
1.96221
1.94123
1.92108
1.90098
1.88035
1.8585
1.83517
1.81196
1.79083
1.77227
1.75498
1.73803
1.72095
1.70321
1.68481
1.66645
1.64872
1.63163
1.61474
1.59791
1.58152
1.56632
1.55147
1.53625
1.52051
1.50428
1.48807
1.47373
1.46813
1.46452
1.47675
1.53264
1.62156
1.71434
1.76045
1.78559
1.78574
1.78037
1.77692
1.77814
1.77729
1.77393
1.76992
1.76056
1.7464
1.7305
1.72214
1.72185
1.72276
1.72441
1.72251
1.71583
1.70584
1.69483
1.68486
1.67909
1.67647
1.67352
1.6692
1.66419
1.65792
1.64817
1.63924
1.63882
1.64
1.64352
1.64801
1.66497
1.70011
1.74911
1.80568
1.86644
1.96443
2.02734
2.00847
1.98997
2.00901
2.10576
2.24053
2.30143
2.31
2.29256
2.26526
2.23615
2.21213
2.19757
2.18114
2.16275
2.14319
2.11843
2.09381
2.07476
2.05612
2.03321
2.00734
1.97958
1.95449
1.9336
1.91366
1.89376
1.87399
1.85382
1.83232
1.81006
1.78871
1.76988
1.75287
1.7367
1.72029
1.70272
1.684
1.66494
1.64669
1.63018
1.61488
1.59973
1.5844
1.56834
1.55173
1.5349
1.51898
1.50511
1.49208
1.48038
1.47007
1.46132
1.45407
1.45628
1.4764
1.54048
1.63011
1.72278
1.75767
1.75679
1.7568
1.75245
1.75051
1.74942
1.74777
1.74529
1.73645
1.71873
1.70529
1.69904
1.69694
1.69616
1.69628
1.69627
1.69178
1.67862
1.66432
1.65422
1.64828
1.6468
1.64569
1.64388
1.64043
1.6332
1.62583
1.62228
1.62422
1.63647
1.67403
1.7352
1.79785
1.84058
1.88232
1.88469
1.72811
1.97286
1.98526
2.05162
2.17957
2.29156
2.32905
2.29802
2.28684
2.27185
2.25087
2.2287
2.20454
2.19021
2.17442
2.15339
2.13328
2.11194
2.08774
2.06538
2.04509
2.02355
2.00025
1.97615
1.95193
1.92921
1.90913
1.88947
1.8698
1.85069
1.83111
1.8104
1.79001
1.77057
1.75214
1.73544
1.71939
1.7028
1.68486
1.66554
1.6466
1.62977
1.61519
1.60165
1.58794
1.57297
1.55718
1.54119
1.52688
1.51563
1.50652
1.49842
1.48913
1.47952
1.46893
1.46089
1.4552
1.45834
1.48411
1.55766
1.64931
1.72727
1.75942
1.75214
1.74868
1.7442
1.73763
1.73032
1.72302
1.71467
1.70289
1.692
1.68297
1.67775
1.67642
1.67483
1.67066
1.66378
1.65193
1.63973
1.63058
1.62181
1.61546
1.61361
1.6142
1.61701
1.61773
1.62704
1.65648
1.71181
1.77484
1.83441
1.86133
1.86807
1.86992
1.86451
1.2701
1.74263
2.02352
2.28261
2.34344
2.36046
2.33749
2.30067
2.27328
2.25786
2.24309
2.22324
2.19802
2.18079
2.16601
2.14658
2.12532
2.10442
2.08326
2.06258
2.04159
2.02142
1.99958
1.97478
1.95269
1.93204
1.91173
1.89357
1.87511
1.85331
1.83145
1.81143
1.79217
1.77677
1.76558
1.75366
1.73901
1.72342
1.70621
1.68707
1.6682
1.65171
1.63776
1.625
1.6122
1.59831
1.58352
1.56858
1.55532
1.54484
1.53685
1.52986
1.52204
1.51256
1.50042
1.48495
1.46961
1.45768
1.45884
1.46802
1.50657
1.5859
1.67668
1.72406
1.75214
1.74792
1.74095
1.73468
1.72755
1.71813
1.70774
1.69808
1.6879
1.67507
1.66293
1.65559
1.64973
1.6443
1.64013
1.6341
1.62258
1.61151
1.60705
1.60519
1.60628
1.61585
1.64509
1.70277
1.77039
1.82862
1.84774
1.85493
1.85746
1.86026
1.85817
1.85082
1.02033
1.40651
2.25352
2.5001
2.44667
2.41491
2.37314
2.3295
2.29735
2.27698
2.26309
2.24318
2.21735
2.19753
2.18242
2.15893
2.13166
2.11447
2.09877
2.07795
2.05648
2.03276
2.00875
1.99208
1.97513
1.95684
1.93619
1.91192
1.89081
1.87553
1.85846
1.83871
1.81909
1.79944
1.78084
1.7644
1.74926
1.73323
1.71513
1.69533
1.67571
1.65797
1.64302
1.63033
1.61934
1.60883
1.59772
1.58535
1.57312
1.56274
1.55458
1.54777
1.54085
1.53218
1.52008
1.50784
1.49381
1.47974
1.46684
1.46045
1.45955
1.473
1.52308
1.60957
1.69313
1.72376
1.73969
1.73559
1.72816
1.7238
1.72135
1.7134
1.70101
1.68351
1.66203
1.6451
1.63651
1.63124
1.62627
1.62144
1.6185
1.61609
1.6118
1.61611
1.63862
1.69806
1.76495
1.82189
1.84947
1.86794
1.87309
1.87074
1.86677
1.86529
1.86105
1.85247
1.0003
1.53628
2.61806
2.65353
2.5633
2.49452
2.44056
2.3954
2.36124
2.33566
2.31833
2.29196
2.26031
2.23435
2.21655
2.19855
2.17316
2.14712
2.12691
2.11226
2.095
2.07448
2.05258
2.02669
2.00106
1.98232
1.9687
1.95391
1.93467
1.91174
1.88672
1.86183
1.84165
1.82699
1.81273
1.79706
1.78068
1.7632
1.74423
1.72426
1.70442
1.6857
1.66948
1.65638
1.64607
1.63756
1.62971
1.62082
1.61008
1.59943
1.59012
1.58209
1.57502
1.56744
1.55696
1.54328
1.52842
1.51268
1.49379
1.47682
1.46756
1.46618
1.47063
1.48867
1.54703
1.63449
1.72017
1.72462
1.72641
1.72171
1.7171
1.71121
1.703
1.68843
1.66803
1.65014
1.63815
1.6306
1.62604
1.62437
1.62487
1.62947
1.65275
1.70922
1.7757
1.83285
1.86727
1.88683
1.89374
1.89639
1.89431
1.88864
1.88083
1.87161
1.86251
1.85174
1
1.84084
2.75973
2.73672
2.6745
2.62377
2.5714
2.52142
2.47804
2.43955
2.40491
2.36996
2.33474
2.30467
2.28291
2.26255
2.23776
2.20964
2.18595
2.16729
2.15049
2.13308
2.11297
2.08883
2.06341
2.04043
2.01994
2.00111
1.98246
1.96156
1.9393
1.91847
1.89912
1.87954
1.85991
1.84117
1.82225
1.80266
1.7828
1.76326
1.74478
1.72737
1.71146
1.69714
1.68419
1.67212
1.66093
1.65084
1.64205
1.63389
1.62531
1.61536
1.60397
1.59219
1.58025
1.56757
1.55459
1.54332
1.53051
1.51252
1.49318
1.47952
1.47013
1.46311
1.47004
1.50318
1.58054
1.66193
1.72733
1.73701
1.72952
1.72268
1.71105
1.69534
1.67825
1.66022
1.64472
1.63646
1.63515
1.63909
1.66276
1.71742
1.79715
1.85702
1.90187
1.92143
1.92792
1.92818
1.92502
1.91708
1.90856
1.89966
1.89062
1.88211
1.87447
1.86333
1
1.90524
2.76434
2.75619
2.73696
2.70531
2.66632
2.62483
2.58401
2.54602
2.50879
2.47123
2.4349
2.40206
2.37703
2.35416
2.32577
2.29748
2.27529
2.25402
2.23337
2.21308
2.19121
2.16696
2.1412
2.11487
2.08942
2.06591
2.04384
2.02245
2.00166
1.98133
1.96056
1.9386
1.91617
1.89431
1.87298
1.8522
1.83206
1.81247
1.7935
1.77495
1.75703
1.74018
1.72492
1.71143
1.6997
1.68951
1.67988
1.66997
1.65887
1.64598
1.63126
1.61687
1.60468
1.59344
1.5807
1.56516
1.54816
1.52994
1.51067
1.49306
1.47978
1.47125
1.46738
1.46628
1.47947
1.53066
1.61619
1.68571
1.73323
1.73312
1.72612
1.71426
1.69916
1.6806
1.66212
1.66012
1.67708
1.72725
1.81218
1.88664
1.94045
1.96044
1.97253
1.97308
1.96891
1.96069
1.94869
1.93834
1.92967
1.9215
1.91292
1.90336
1.89517
1.88394
1
1.86516
2.72242
2.7559
2.73825
2.72301
2.69967
2.67413
2.64584
2.61643
2.58554
2.5544
2.52466
2.49836
2.47684
2.45445
2.42453
2.39459
2.37038
2.34776
2.3239
2.29945
2.27213
2.24125
2.20941
2.17933
2.15234
2.12773
2.10414
2.08049
2.05604
2.03115
2.00647
1.98267
1.95986
1.93767
1.91562
1.89358
1.87161
1.85001
1.82953
1.81033
1.79228
1.77527
1.75934
1.74472
1.73146
1.71909
1.70668
1.69379
1.68023
1.66645
1.65167
1.63691
1.62262
1.60797
1.59245
1.57578
1.55919
1.54416
1.52796
1.51129
1.49601
1.48487
1.47461
1.46707
1.45926
1.4572
1.47634
1.54688
1.64287
1.70017
1.71877
1.71737
1.71629
1.70788
1.71783
1.75477
1.83196
1.91508
1.97849
2.00653
2.02662
2.02255
2.01444
2.00326
1.99277
1.98349
1.97329
1.96267
1.95228
1.94163
1.93272
1.92433
1.91729
1.90666
1
1.8113
2.68425
2.74971
2.7364
2.72438
2.70703
2.68759
2.66493
2.64202
2.61944
2.59814
2.57808
2.55894
2.53828
2.5121
2.4827
2.45489
2.43228
2.40823
2.37878
2.34768
2.31535
2.28464
2.25575
2.22774
2.1997
2.17068
2.14052
2.11073
2.08284
2.05752
2.03424
2.01214
1.98983
1.96602
1.94016
1.91374
1.8894
1.86793
1.84897
1.83165
1.81526
1.79929
1.78278
1.76528
1.74799
1.73259
1.71883
1.7057
1.69277
1.67994
1.66581
1.64886
1.6291
1.61008
1.59413
1.57901
1.56367
1.55269
1.5435
1.52999
1.51379
1.49749
1.48112
1.46629
1.45394
1.4445
1.43738
1.44748
1.49225
1.57746
1.6771
1.71618
1.74253
1.79856
1.86418
1.92503
1.97619
2.02268
2.05285
2.06138
2.05777
2.04465
2.0316
2.02111
2.01181
2.00529
1.99823
1.98631
1.97339
1.95931
1.9459
1.93742
1.93206
1.92256
1
1.78702
2.66753
2.74439
2.73236
2.72197
2.70608
2.68751
2.66631
2.64639
2.62828
2.61213
2.5964
2.57883
2.55734
2.53309
2.50826
2.48459
2.46196
2.43162
2.3973
2.36306
2.33249
2.30418
2.27606
2.24721
2.21653
2.18323
2.1487
2.11698
2.08997
2.0664
2.04427
2.02233
1.99919
1.9736
1.94554
1.91767
1.89364
1.87373
1.85653
1.84063
1.82489
1.80824
1.78982
1.77016
1.75122
1.73514
1.72177
1.70999
1.69906
1.68692
1.67078
1.65061
1.62844
1.60735
1.59027
1.57685
1.56612
1.5553
1.54177
1.52663
1.5108
1.49529
1.48006
1.46527
1.45127
1.43772
1.43012
1.42171
1.42529
1.45734
1.54926
1.68428
1.82368
1.93305
2.01391
2.08876
2.12758
2.12336
2.10998
2.0875
2.06997
2.0523
2.03623
2.02413
2.01411
2.01006
2.00607
1.99588
1.98198
1.96729
1.95322
1.94449
1.93889
1.92937
)
;

boundaryField
{
    inlet
    {
        type            fixedValue;
        value           uniform 1;
    }
    outlet
    {
        type            inletOutlet;
        inletValue      uniform 1;
        value           nonuniform List<scalar> 
32
(
1.96519
1.9592
1.94362
1.92212
1.8916
1.85459
1.82282
1.79994
1.78775
1.78109
1.76749
1.75418
1.74124
1.73007
1.72492
1.71989
1.70885
1.69547
1.68208
1.70367
1.79038
1.86611
1.88441
1.86443
1.85182
1.85242
1.85112
1.86264
1.88388
1.90673
1.92278
1.92964
)
;
    }
    bottom
    {
        type            symmetryPlane;
    }
    top
    {
        type            symmetryPlane;
    }
    obstacle
    {
        type            zeroGradient;
    }
    defaultFaces
    {
        type            empty;
    }
}


// ************************************************************************* //
