/*--------------------------------*- C++ -*----------------------------------*\
  =========                 |
  \\      /  F ield         | OpenFOAM: The Open Source CFD Toolbox
   \\    /   O peration     | Website:  https://openfoam.org
    \\  /    A nd           | Version:  7
     \\/     M anipulation  |
\*---------------------------------------------------------------------------*/
FoamFile
{
    version     2.0;
    format      ascii;
    class       volScalarField;
    location    "3.2";
    object      p;
}
// * * * * * * * * * * * * * * * * * * * * * * * * * * * * * * * * * * * * * //

dimensions      [1 -1 -2 0 0 0 0];

internalField   nonuniform List<scalar> 
64512
(
1
1
1
1
1
1
1
1
1
1
1
1
1
1
1
1
1
1
1
1
1
1
1
1
1
1
1
1
1
1
1
1
1
1
1
1
1
1
1
1
1
1
1
1
1
1
1
1
1
6.20164
10.372
10.4379
10.4957
10.5609
10.6253
10.6882
10.7487
10.8069
10.8624
10.9148
10.9646
11.0124
11.0591
11.1052
11.15
11.1938
11.2382
11.2834
11.3284
11.373
11.4169
11.4585
11.4982
11.5379
11.5791
11.6207
11.6596
11.6944
11.7257
11.7542
11.7808
11.8065
11.8325
11.8588
11.8844
11.9087
11.9311
11.9515
11.9697
11.9855
11.9988
12.0094
12.0173
12.0222
12.0254
12.0273
1
1
1
1
1
1
1
1
1
1
1
1
1
1
1
1
1
1
1
1
1
1
1
1
1
1
1
1
1
1
1
1
1
1
1
1
1
1
1
1
1
1
1
1
1
1
1
1
1
6.15199
10.3566
10.4423
10.4968
10.5613
10.625
10.6874
10.7476
10.8054
10.8606
10.9133
10.9634
11.0113
11.0575
11.1028
11.1471
11.1909
11.2357
11.2818
11.3277
11.3728
11.4167
11.458
11.4973
11.5364
11.577
11.618
11.6566
11.6914
11.7229
11.7517
11.7784
11.8043
11.8302
11.8564
11.8818
11.906
11.9283
11.9487
11.9668
11.9822
11.9952
12.0056
12.0135
12.0186
12.022
12.024
1
1
1
1
1
1
1
1
1
1
1
1
1
1
1
1
1
1
1
1
1
1
1
1
1
1
1
1
1
1
1
1
1
1
1
1
1
1
1
1
1
1
1
1
1
1
1
1
1
6.05456
10.3455
10.4426
10.4942
10.5585
10.6218
10.6843
10.7445
10.802
10.8572
10.91
10.9604
11.0084
11.0543
11.0991
11.1428
11.1864
11.2315
11.2786
11.3256
11.3712
11.4154
11.4563
11.4953
11.5337
11.5735
11.6137
11.6519
11.6866
11.7184
11.7475
11.7746
11.8007
11.8265
11.8524
11.8775
11.9015
11.9238
11.9441
11.962
11.9772
11.9897
11.9997
12.0075
12.0128
12.0165
12.0187
1
1
1
1
1
1
1
1
1
1
1
1
1
1
1
1
1
1
1
1
1
1
1
1
1
1
1
1
1
1
1
1
1
1
1
1
1
1
1
1
1
1
1
1
1
1
1
1
1
5.91416
10.327
10.4417
10.4904
10.5551
10.6179
10.6802
10.7403
10.7977
10.8526
10.9053
10.9558
11.0037
11.0491
11.0935
11.137
11.1805
11.2262
11.2744
11.3223
11.3683
11.4126
11.4531
11.4916
11.5291
11.5679
11.6072
11.6449
11.6797
11.7117
11.7414
11.7689
11.7951
11.8209
11.8464
11.8711
11.8947
11.9169
11.9371
11.9548
11.9695
11.9815
11.9911
11.9987
12.0041
12.008
12.0105
1
1
1
1
1
1
1
1
1
1
1
1
1
1
1
1
1
1
1
1
1
1
1
1
1
1
1
1
1
1
1
1
1
1
1
1
1
1
1
1
1
1
1
1
1
1
1
1
1
5.73111
10.2998
10.4381
10.4845
10.5504
10.6127
10.6746
10.7348
10.7922
10.8467
10.899
10.9493
10.9971
11.0424
11.0867
11.1304
11.1743
11.2204
11.2692
11.3178
11.3639
11.4083
11.4481
11.4861
11.5227
11.5604
11.5987
11.6359
11.6707
11.703
11.7332
11.7611
11.7874
11.813
11.8382
11.8626
11.8861
11.9081
11.9282
11.9455
11.9599
11.9714
11.9806
11.9879
11.9931
11.997
11.9996
1
1
1
1
1
1
1
1
1
1
1
1
1
1
1
1
1
1
1
1
1
1
1
1
1
1
1
1
1
1
1
1
1
1
1
1
1
1
1
1
1
1
1
1
1
1
1
1
1
5.50604
10.2625
10.4309
10.4759
10.544
10.6063
10.6681
10.7282
10.7857
10.8399
10.8917
10.9417
10.9893
11.0346
11.0791
11.1234
11.1679
11.2143
11.2634
11.3121
11.3578
11.4018
11.4409
11.4782
11.5139
11.5506
11.5881
11.6249
11.6597
11.6924
11.7229
11.7511
11.7774
11.8028
11.8278
11.852
11.8752
11.8971
11.9169
11.934
11.9481
11.9593
11.9681
11.9749
11.9797
11.9834
11.9857
1
1
1
1
1
1
1
1
1
1
1
1
1
1
1
1
1
1
1
1
1
1
1
1
1
1
1
1
1
1
1
1
1
1
1
1
1
1
1
1
1
1
1
1
1
1
1
1
1
5.24003
10.2131
10.4204
10.4651
10.5369
10.5993
10.6611
10.721
10.7784
10.8322
10.8833
10.9329
10.9805
11.0259
11.0707
11.1158
11.1609
11.2074
11.2563
11.3049
11.3499
11.3933
11.4317
11.4683
11.5033
11.5391
11.5758
11.6123
11.6471
11.6799
11.7106
11.7389
11.7651
11.7902
11.8149
11.839
11.8622
11.8838
11.9034
11.9203
11.9341
11.9452
11.9537
11.96
11.9641
11.9672
11.9692
1
1
1
1
1
1
1
1
1
1
1
1
1
1
1
1
1
1
1
1
1
1
1
1
1
1
1
1
1
1
1
1
1
1
1
1
1
1
1
1
1
1
1
1
1
1
1
1
1
4.93188
10.1542
10.4062
10.4518
10.5282
10.591
10.6531
10.7127
10.77
10.8236
10.8741
10.9234
10.9711
11.0167
11.0617
11.1072
11.1526
11.1989
11.2474
11.2955
11.3395
11.3822
11.4198
11.4558
11.4903
11.5254
11.5614
11.5976
11.6325
11.6653
11.6959
11.7239
11.7498
11.7747
11.7992
11.8232
11.8463
11.8678
11.8871
11.9037
11.9176
11.9287
11.9372
11.9432
11.9469
11.9494
11.9511
1
1
1
1
1
1
1
1
1
1
1
1
1
1
1
1
1
1
1
1
1
1
1
1
1
1
1
1
1
1
1
1
1
1
1
1
1
1
1
1
1
1
1
1
1
1
1
1
1
4.58605
10.0772
10.3912
10.4408
10.5196
10.5821
10.6441
10.7031
10.7602
10.8138
10.8642
10.9132
10.9611
11.0071
11.0521
11.0977
11.1431
11.1889
11.2364
11.2837
11.3267
11.3684
11.4057
11.4412
11.4753
11.5098
11.5454
11.5813
11.616
11.6485
11.6786
11.7062
11.7318
11.7564
11.7809
11.805
11.8281
11.8495
11.8686
11.8851
11.8988
11.9099
11.9183
11.9239
11.9273
11.9292
11.9304
1
1
1
1
1
1
1
1
1
1
1
1
1
1
1
1
1
1
1
1
1
1
1
1
1
1
1
1
1
1
1
1
1
1
1
1
1
1
1
1
1
1
1
1
1
1
1
1
1
4.20688
9.97751
10.3773
10.4321
10.5118
10.5735
10.6349
10.693
10.7494
10.803
10.8532
10.9021
10.9501
10.9963
11.0414
11.0867
11.132
11.1773
11.2237
11.2699
11.312
11.3525
11.3895
11.4245
11.4583
11.4925
11.5276
11.5631
11.5973
11.6292
11.6587
11.6857
11.7109
11.7353
11.7596
11.7838
11.8069
11.8283
11.8473
11.8637
11.8773
11.8883
11.8965
11.9019
11.9051
11.9065
11.9073
1
1
1
1
1
1
1
1
1
1
1
1
1
1
1
1
1
1
1
1
1
1
1
1
1
1
1
1
1
1
1
1
1
1
1
1
1
1
1
1
1
1
1
1
1
1
1
1
1
3.80127
9.84269
10.3654
10.4249
10.5034
10.5645
10.6258
10.683
10.7385
10.792
10.8422
10.8908
10.9387
10.985
11.0298
11.0746
11.1195
11.1642
11.2093
11.2544
11.2959
11.3351
11.3719
11.4064
11.4402
11.4739
11.5084
11.5433
11.5769
11.608
11.6367
11.6631
11.688
11.7122
11.7364
11.7604
11.7835
11.8048
11.8238
11.84
11.8534
11.8641
11.8719
11.877
11.88
11.8811
11.8816
1
1
1
1
1
1
1
1
1
1
1
1
1
1
1
1
1
1
1
1
1
1
1
1
1
1
1
1
1
1
1
1
1
1
1
1
1
1
1
1
1
1
1
1
1
1
1
1
1
3.38355
9.6529
10.3585
10.4197
10.4925
10.5528
10.6129
10.6697
10.7249
10.7787
10.8293
10.8778
10.9255
10.9717
11.0161
11.0601
11.1044
11.1485
11.1921
11.2361
11.2773
11.3151
11.3518
11.3858
11.4196
11.4532
11.4871
11.5215
11.5545
11.585
11.613
11.6389
11.6634
11.6872
11.7109
11.7345
11.7572
11.7783
11.7973
11.8134
11.8265
11.8368
11.8443
11.849
11.8518
11.8527
11.8531
1
1
1
1
1
1
1
1
1
1
1
1
1
1
1
1
1
1
1
1
1
1
1
1
1
1
1
1
1
1
1
1
1
1
1
1
1
1
1
1
1
1
1
1
1
1
1
1
1
2.96252
9.40201
10.3564
10.4148
10.4816
10.541
10.5993
10.6545
10.7088
10.7616
10.812
10.8599
10.907
10.953
10.9972
11.0407
11.0845
11.1283
11.1711
11.2146
11.2557
11.2931
11.3298
11.3634
11.3971
11.4304
11.4637
11.4972
11.5296
11.5593
11.5865
11.612
11.6362
11.6596
11.6829
11.7059
11.7282
11.7491
11.7679
11.784
11.7967
11.8067
11.8137
11.818
11.8207
11.8214
11.8219
1
1
1
1
1
1
1
1
1
1
1
1
1
1
1
1
1
1
1
1
1
1
1
1
1
1
1
1
1
1
1
1
1
1
1
1
1
1
1
1
1
1
1
1
1
1
1
1
1
2.53894
9.08771
10.3644
10.4089
10.4712
10.5291
10.5874
10.6415
10.694
10.7456
10.7959
10.8435
10.8899
10.9354
10.9791
11.0219
11.0649
11.1083
11.1503
11.1926
11.2333
11.2699
11.3061
11.3389
11.3721
11.4047
11.4375
11.4702
11.5019
11.531
11.5576
11.5828
11.6068
11.6299
11.6526
11.6749
11.6965
11.7169
11.7354
11.7512
11.7637
11.7734
11.7799
11.7838
11.7862
11.7868
11.7873
1
1
1
1
1
1
1
1
1
1
1
1
1
1
1
1
1
1
1
1
1
1
1
1
1
1
1
1
1
1
1
1
1
1
1
1
1
1
1
1
1
1
1
1
1
1
1
1
1
2.11783
8.70342
10.3816
10.4059
10.4635
10.5166
10.5718
10.6251
10.677
10.7277
10.7777
10.8254
10.8716
10.9168
10.9601
11.0022
11.0441
11.0867
11.128
11.169
11.2092
11.2455
11.2808
11.3127
11.3451
11.3769
11.409
11.4408
11.4719
11.5003
11.5263
11.5508
11.5744
11.597
11.6191
11.6406
11.6614
11.6811
11.6992
11.7147
11.727
11.7366
11.7428
11.7462
11.7484
11.7488
11.7494
1
1
1
1
1
1
1
1
1
1
1
1
1
1
1
1
1
1
1
1
1
1
1
1
1
1
1
1
1
1
1
1
1
1
1
1
1
1
1
1
1
1
1
1
1
1
1
1
1
1.72558
8.25693
10.4108
10.3968
10.4512
10.5012
10.5565
10.6086
10.659
10.7084
10.7574
10.8051
10.8514
10.8964
10.9395
10.981
11.0217
11.0633
11.1043
11.1444
11.1844
11.2202
11.2544
11.2852
11.3166
11.3474
11.3786
11.4095
11.4398
11.4674
11.4924
11.516
11.539
11.5611
11.5825
11.6032
11.6232
11.6421
11.6595
11.6745
11.6866
11.696
11.7018
11.7046
11.7066
11.7067
11.7074
1
1
1
1
1
1
1
1
1
1
1
1
1
1
1
1
1
1
1
1
1
1
1
1
1
1
1
1
1
1
1
1
1
1
1
1
1
1
1
1
1
1
1
1
1
1
1
1
1
1.39109
7.70715
10.4154
10.382
10.4276
10.4732
10.5275
10.5826
10.6359
10.687
10.7358
10.783
10.8289
10.8734
10.9162
10.9572
10.9972
11.0375
11.0784
11.1178
11.1577
11.1931
11.2262
11.2563
11.2865
11.3162
11.3465
11.3765
11.4057
11.4324
11.4562
11.4786
11.5005
11.5219
11.5425
11.5623
11.5811
11.5989
11.6154
11.6298
11.6416
11.6508
11.6564
11.659
11.6607
11.6608
11.6616
1
1
1
1
1
1
1
1
1
1
1
1
1
1
1
1
1
1
1
1
1
1
1
1
1
1
1
1
1
1
1
1
1
1
1
1
1
1
1
1
1
1
1
1
1
1
1
1
1
1.13077
7.12792
10.3534
10.3601
10.4032
10.456
10.5112
10.565
10.6156
10.6638
10.7105
10.7571
10.8029
10.8473
10.8899
10.9306
10.9701
11.0092
11.0497
11.0888
11.1284
11.1636
11.1956
11.2251
11.2541
11.2829
11.3123
11.3415
11.3697
11.3952
11.4177
11.4386
11.4592
11.4795
11.499
11.5176
11.5352
11.5519
11.5673
11.581
11.5923
11.601
11.6062
11.6085
11.6099
11.6097
11.6106
1
1
1
1
1
1
1
1
1
1
1
1
1
1
1
1
1
1
1
1
1
1
1
1
1
1
1
1
1
1
1
1
1
1
1
1
1
1
1
1
1
1
1
1
1
1
1
1
1
1.00523
6.42369
10.2526
10.3142
10.3616
10.4162
10.4718
10.5285
10.5824
10.6328
10.681
10.7274
10.7726
10.8166
10.8593
10.9003
10.9396
10.978
11.0176
11.0568
11.0958
11.1311
11.1621
11.1912
11.2193
11.2474
11.276
11.3043
11.3314
11.3557
11.3767
11.396
11.415
11.4336
11.4517
11.4688
11.4849
11.5001
11.5143
11.5269
11.5374
11.5455
11.5502
11.5526
11.554
11.5538
11.5549
1
1
1
1
1
1
1
1
1
1
1
1
1
1
1
1
1
1
1
1
1
1
1
1
1
1
1
1
1
1
1
1
1
1
1
1
1
1
1
1
1
1
1
1
1
1
1
1
1
1.00003
5.65984
10.1177
10.2569
10.3275
10.395
10.454
10.5087
10.5595
10.6071
10.6529
10.6978
10.7418
10.785
10.8271
10.8673
10.9063
10.944
10.9824
11.0214
11.0595
11.0953
11.1257
11.1545
11.1817
11.209
11.2366
11.264
11.29
11.3132
11.3329
11.3506
11.3678
11.3845
11.4006
11.4158
11.4303
11.4439
11.4567
11.468
11.4772
11.4843
11.4883
11.4903
11.4915
11.4911
11.492
1
1
1
1
1
1
1
1
1
1
1
1
1
1
1
1
1
1
1
1
1
1
1
1
1
1
1
1
1
1
1
1
1
1
1
1
1
1
1
1
1
1
1
1
1
1
1
1
1
1
4.80347
9.9441
10.2283
10.2959
10.3618
10.4238
10.4818
10.5352
10.5839
10.6292
10.6723
10.7141
10.7548
10.7943
10.8334
10.8705
10.9074
10.9448
10.9831
11.02
11.0558
11.0861
11.1145
11.1409
11.1675
11.1942
11.2206
11.2455
11.2674
11.286
11.3021
11.3171
11.3316
11.3454
11.3583
11.3706
11.3823
11.393
11.4024
11.41
11.4159
11.4191
11.421
11.4221
11.4218
11.4227
1
1
1
1
1
1
1
1
1
1
1
1
1
1
1
1
1
1
1
1
1
1
1
1
1
1
1
1
1
1
1
1
1
1
1
1
1
1
1
1
1
1
1
1
1
1
1
1
1
1
3.92846
9.69671
10.2005
10.28
10.3463
10.4047
10.4582
10.5084
10.5549
10.5996
10.6429
10.6848
10.7251
10.7636
10.8005
10.8366
10.8707
10.9053
10.9422
10.9778
11.0128
11.0432
11.071
11.0969
11.1226
11.1482
11.1734
11.1972
11.218
11.2353
11.2498
11.2627
11.2748
11.2859
11.2963
11.3061
11.3153
11.3237
11.331
11.3366
11.3406
11.3426
11.3435
11.3436
11.3428
11.3432
1
1
1
1
1
1
1
1
1
1
1
1
1
1
1
1
1
1
1
1
1
1
1
1
1
1
1
1
1
1
1
1
1
1
1
1
1
1
1
1
1
1
1
1
1
1
1
1
1
1
3.11471
9.3087
10.2201
10.264
10.3223
10.3795
10.4381
10.49
10.5346
10.5762
10.6153
10.6536
10.6915
10.7286
10.765
10.8001
10.8344
10.8675
10.9003
10.9335
10.9662
10.9969
11.024
11.0491
11.0739
11.0983
11.1224
11.145
11.1646
11.1806
11.1933
11.204
11.2134
11.2216
11.2291
11.236
11.242
11.2472
11.2513
11.2539
11.2558
11.2563
11.2561
11.2556
11.2545
11.2548
1
1
1
1
1
1
1
1
1
1
1
1
1
1
1
1
1
1
1
1
1
1
1
1
1
1
1
1
1
1
1
1
1
1
1
1
1
1
1
1
1
1
1
1
1
1
1
1
1
1
2.33146
8.7262
10.2475
10.268
10.3227
10.3698
10.4169
10.4615
10.5062
10.5493
10.5897
10.6274
10.6629
10.6967
10.7296
10.7624
10.7949
10.8269
10.8588
10.8885
10.9186
10.9471
10.9734
10.9978
11.0214
11.0445
11.0672
11.0886
11.1069
11.1214
11.1323
11.1406
11.1471
11.1521
11.1564
11.1599
11.1622
11.1635
11.1639
11.1635
11.1627
11.1606
11.1578
11.1548
11.1519
11.151
1
1
1
1
1
1
1
1
1
1
1
1
1
1
1
1
1
1
1
1
1
1
1
1
1
1
1
1
1
1
1
1
1
1
1
1
1
1
1
1
1
1
1
1
1
1
1
1
1
1
1.61342
8.1095
10.3364
10.2414
10.2889
10.334
10.3863
10.4368
10.4828
10.5226
10.56
10.5964
10.6313
10.6649
10.697
10.7275
10.7573
10.7865
10.8154
10.8428
10.868
10.8954
10.9205
10.9429
10.965
10.9866
11.0078
11.0276
11.0446
11.0575
11.0664
11.0722
11.0755
11.0769
11.0775
11.077
11.0748
11.0711
11.0665
11.0613
11.056
11.0502
11.0445
11.0396
11.0355
11.0341
1
1
1
1
1
1
1
1
1
1
1
1
1
1
1
1
1
1
1
1
1
1
1
1
1
1
1
1
1
1
1
1
1
1
1
1
1
1
1
1
1
1
1
1
1
1
1
1
1
1
1.09562
7.24628
10.3299
10.2514
10.2757
10.3107
10.3538
10.4019
10.4496
10.4928
10.5305
10.5657
10.5991
10.631
10.6619
10.6915
10.7197
10.7469
10.7733
10.7977
10.8198
10.841
10.8645
10.8858
10.9052
10.9247
10.9439
10.9619
10.9773
10.9884
10.9955
10.9986
10.998
10.9958
10.9921
10.9867
10.9791
10.9697
10.9593
10.9489
10.9387
10.9279
10.9165
10.9055
10.8966
10.8916
1
1
1
1
1
1
1
1
1
1
1
1
1
1
1
1
1
1
1
1
1
1
1
1
1
1
1
1
1
1
1
1
1
1
1
1
1
1
1
1
1
1
1
1
1
1
1
1
1
1
1.00161
6.21218
10.0926
10.1276
10.1987
10.2614
10.3175
10.366
10.41
10.4529
10.4947
10.5311
10.5639
10.595
10.6253
10.654
10.6807
10.7061
10.7303
10.7526
10.7723
10.7904
10.8086
10.8263
10.8432
10.8598
10.876
10.8917
10.9048
10.9141
10.9192
10.9188
10.9145
10.9079
10.8993
10.8884
10.8745
10.8583
10.8405
10.8219
10.8026
10.7825
10.763
10.7463
10.7339
10.7286
1
1
1
1
1
1
1
1
1
1
1
1
1
1
1
1
1
1
1
1
1
1
1
1
1
1
1
1
1
1
1
1
1
1
1
1
1
1
1
1
1
1
1
1
1
1
1
1
1
1
1
5.06769
9.88696
10.0817
10.1722
10.2345
10.2874
10.3374
10.3833
10.423
10.4576
10.4908
10.5245
10.5557
10.5855
10.6139
10.6399
10.6638
10.6859
10.7061
10.724
10.7393
10.7538
10.7681
10.7809
10.7932
10.8058
10.818
10.828
10.8351
10.8373
10.8331
10.8248
10.8133
10.799
10.7816
10.7604
10.7359
10.7086
10.68
10.6506
10.6208
10.5904
10.5596
10.5329
10.5153
1
1
1
1
1
1
1
1
1
1
1
1
1
1
1
1
1
1
1
1
1
1
1
1
1
1
1
1
1
1
1
1
1
1
1
1
1
1
1
1
1
1
1
1
1
1
1
1
1
1
1
3.94218
9.49873
10.0564
10.1391
10.206
10.2576
10.3057
10.3465
10.383
10.4177
10.4511
10.4806
10.5112
10.5417
10.5703
10.5961
10.6191
10.6397
10.6582
10.6742
10.6873
10.6983
10.7092
10.7185
10.7261
10.7341
10.7416
10.7476
10.7514
10.7498
10.7419
10.7289
10.7116
10.6908
10.6659
10.6362
10.6019
10.5634
10.5214
10.4755
10.4246
10.3707
10.3196
10.2785
10.262
1
1
1
1
1
1
1
1
1
1
1
1
1
1
1
1
1
1
1
1
1
1
1
1
1
1
1
1
1
1
1
1
1
1
1
1
1
1
1
1
1
1
1
1
1
1
1
1
1
1
1
2.88807
8.93542
10.0418
10.1136
10.1911
10.2458
10.2855
10.3185
10.3507
10.3809
10.4088
10.4374
10.467
10.4949
10.5226
10.5483
10.5709
10.5906
10.6077
10.6222
10.6335
10.6416
10.649
10.6549
10.6585
10.6617
10.6638
10.665
10.6645
10.6582
10.6458
10.6272
10.6035
10.5751
10.5417
10.5021
10.456
10.4028
10.3426
10.2753
10.2016
10.1234
10.0439
9.95848
9.88602
1
1
1
1
1
1
1
1
1
1
1
1
1
1
1
1
1
1
1
1
1
1
1
1
1
1
1
1
1
1
1
1
1
1
1
1
1
1
1
1
1
1
1
1
1
1
1
1
1
1
1
1.85549
8.17461
10.2009
10.1327
10.1735
10.2076
10.2445
10.2821
10.3166
10.3469
10.3733
10.3976
10.4214
10.4473
10.4729
10.4969
10.5188
10.5378
10.5541
10.5672
10.5769
10.5831
10.5873
10.5895
10.5891
10.5874
10.5844
10.5802
10.5738
10.5628
10.545
10.5202
10.4891
10.4523
10.4091
10.3579
10.2978
10.2272
10.1458
10.0516
9.94051
9.8039
9.64105
9.48001
9.36466
1
1
1
1
1
1
1
1
1
1
1
1
1
1
1
1
1
1
1
1
1
1
1
1
1
1
1
1
1
1
1
1
1
1
1
1
1
1
1
1
1
1
1
1
1
1
1
1
1
1
1
1.09544
7.18753
10.2712
10.1429
10.1259
10.1563
10.2039
10.2453
10.2793
10.3089
10.3355
10.3595
10.3815
10.4026
10.4238
10.4453
10.4653
10.4829
10.4981
10.5098
10.5177
10.522
10.5234
10.5224
10.5184
10.512
10.5037
10.4938
10.4813
10.4647
10.441
10.4092
10.3699
10.3234
10.2691
10.2047
10.1284
10.0376
9.92926
9.79731
9.63369
9.43241
9.19145
8.93259
8.76301
1
1
1
1
1
1
1
1
1
1
1
1
1
1
1
1
1
1
1
1
1
1
1
1
1
1
1
1
1
1
1
1
1
1
1
1
1
1
1
1
1
1
1
1
1
1
1
1
1
1
1
1.00081
5.95581
9.94658
9.97459
10.0633
10.1153
10.1626
10.2058
10.24
10.2696
10.2955
10.3189
10.3396
10.3591
10.3776
10.395
10.4118
10.427
10.4397
10.45
10.4554
10.4577
10.4565
10.4524
10.4452
10.4345
10.421
10.4051
10.3864
10.3633
10.3333
10.2943
10.2463
10.1893
10.1227
10.0436
9.94936
9.83519
9.69619
9.52348
9.30555
9.01263
8.57539
7.73701
5.77993
1
1
1
1
1
1
1
1
1
1
1
1
1
1
1
1
1
1
1
1
1
1
1
1
1
1
1
1
1
1
1
1
1
1
1
1
1
1
1
1
1
1
1
1
1
1
1
1
1
1
1
0.99999
4.56241
9.57141
9.93942
10.046
10.0903
10.1255
10.1633
10.1972
10.227
10.2524
10.2755
10.2956
10.3135
10.3302
10.3456
10.3592
10.3711
10.3813
10.3894
10.3918
10.3916
10.3874
10.3802
10.3698
10.3553
10.3371
10.3153
10.2902
10.2602
10.2234
10.177
10.1201
10.052
9.97198
9.87704
9.76325
9.6244
9.45254
9.2344
8.94501
8.54058
7.90068
6.93897
4.73775
1
1
1
1
1
1
1
1
1
1
1
1
1
1
1
1
1
1
1
1
1
1
1
1
1
1
1
1
1
1
1
1
1
1
1
1
1
1
1
1
1
1
1
1
1
1
1
1
1
1
1
0.999998
3.25075
9.04726
9.95
10.0132
10.0677
10.1046
10.127
10.1533
10.1808
10.2061
10.2289
10.2488
10.2658
10.281
10.2947
10.3061
10.3149
10.3219
10.3271
10.3272
10.3235
10.3159
10.3053
10.2916
10.2737
10.2513
10.224
10.1923
10.1552
10.111
10.0567
9.99104
9.91192
9.81847
9.70717
9.57333
9.40936
9.20522
8.94261
8.59705
8.10467
7.44767
6.1884
4.37431
1
1
1
1
1
1
1
1
1
1
1
1
1
1
1
1
1
1
1
1
1
1
1
1
1
1
1
1
1
1
1
1
1
1
1
1
1
1
1
1
1
1
1
1
1
1
1
1
1
1
1
1
2.01872
8.26838
10.0579
10.0113
10.0349
10.0642
10.0921
10.1181
10.1419
10.1641
10.1845
10.2026
10.2181
10.2312
10.2429
10.2523
10.2586
10.2624
10.2646
10.2631
10.2556
10.2443
10.2299
10.2122
10.1905
10.1639
10.1316
10.0937
10.0493
9.99758
9.93546
9.861
9.77132
9.66477
9.53726
9.38407
9.19593
8.96344
8.66338
8.27697
7.73583
6.99254
5.76286
4.27351
1
1
1
1
1
1
1
1
1
1
1
1
1
1
1
1
1
1
1
1
1
1
1
1
1
1
1
1
1
1
1
1
1
1
1
1
1
1
1
1
1
1
1
1
1
1
1
1
1
1
1
1
1.12411
7.16865
10.1316
10.0186
9.99367
10.0179
10.0529
10.0787
10.1012
10.1211
10.1391
10.1552
10.169
10.1802
10.1894
10.1965
10.2005
10.2017
10.2011
10.1969
10.1865
10.1715
10.1532
10.1314
10.1057
10.075
10.0382
9.99459
9.94334
9.88384
9.81352
9.73008
9.63015
9.51169
9.36927
9.19891
8.98953
8.73304
8.40626
7.98532
7.42966
6.64738
5.55818
4.37331
1
1
1
1
1
1
1
1
1
1
1
1
1
1
1
1
1
1
1
1
1
1
1
1
1
1
1
1
1
1
1
1
1
1
1
1
1
1
1
1
1
1
1
1
1
1
1
1
1
1
1
1
1.00136
5.74987
9.74191
9.83905
9.91804
9.96461
10.0047
10.0332
10.0571
10.0768
10.0933
10.1074
10.1194
10.1283
10.1353
10.1397
10.1415
10.1406
10.1371
10.1302
10.1178
10.0996
10.0773
10.0514
10.0211
9.98579
9.94415
9.89507
9.83729
9.77028
9.69197
9.60013
9.49073
9.3615
9.20611
9.02111
8.79458
8.51881
8.17489
7.73738
7.17464
6.42336
5.49682
4.51441
1
1
1
1
1
1
1
1
1
1
1
1
1
1
1
1
1
1
1
1
1
1
1
1
1
1
1
1
1
1
1
1
1
1
1
1
1
1
1
1
1
1
1
1
1
1
1
1
1
1
1
1
0.999983
4.17954
9.32868
9.81723
9.90023
9.94694
9.97088
9.99266
10.014
10.0321
10.0471
10.0593
10.0694
10.0762
10.0808
10.0826
10.0818
10.0786
10.0724
10.0627
10.048
10.0269
10.0006
9.97048
9.93588
9.89606
9.84981
9.79576
9.73228
9.65846
9.57237
9.47235
9.35417
9.21501
9.04893
8.85204
8.61328
8.32405
7.97063
7.53195
6.97515
6.29392
5.49258
4.64854
1
1
1
1
1
1
1
1
1
1
1
1
1
1
1
1
1
1
1
1
1
1
1
1
1
1
1
1
1
1
1
1
1
1
1
1
1
1
1
1
1
1
1
1
1
1
1
1
1
1
1
1
0.999996
2.64009
8.66094
9.89141
9.89389
9.91052
9.92873
9.95369
9.97255
9.98832
10.0012
10.0114
10.0193
10.0239
10.0262
10.0254
10.0217
10.0159
10.0073
9.99499
9.97815
9.95469
9.92493
9.89056
9.85177
9.80757
9.75644
9.69712
9.62797
9.54783
9.45458
9.34695
9.22123
9.07391
8.8998
8.69369
8.44744
8.15075
7.7952
7.35954
6.83332
6.21868
5.51483
4.78544
1
1
1
1
1
1
1
1
1
1
1
1
1
1
1
1
1
1
1
1
1
1
1
1
1
1
1
1
1
1
1
1
1
1
1
1
1
1
1
1
1
1
1
1
1
1
1
1
1
1
1
1
0.999999
1.39301
7.73231
10.0409
9.89802
9.86081
9.88244
9.9104
9.92806
9.94244
9.95378
9.96257
9.96836
9.97146
9.97173
9.96884
9.96258
9.95385
9.94254
9.92765
9.90843
9.88252
9.84964
9.81084
9.76726
9.71871
9.66316
9.59927
9.52518
9.43967
9.34037
9.22594
9.09344
8.93934
8.7592
8.54694
8.29653
7.99803
7.64636
7.21975
6.73298
6.17695
5.54674
4.91675
1
1
1
1
1
1
1
1
1
1
1
1
1
1
1
1
1
1
1
1
1
1
1
1
1
1
1
1
1
1
1
1
1
1
1
1
1
1
1
1
1
1
1
1
1
1
1
1
1
1
1
1
1
1.01701
6.30385
9.69669
9.7281
9.79
9.82938
9.86116
9.8791
9.89351
9.90438
9.91202
9.91643
9.91833
9.917
9.91229
9.9037
9.89197
9.8777
9.86013
9.83836
9.81034
9.77484
9.73233
9.68419
9.63115
9.57142
9.50338
9.4245
9.33379
9.22898
9.10867
8.97039
8.81115
8.62695
8.41185
8.16048
7.86443
7.52273
7.11099
6.6567
6.15337
5.58838
5.04134
1
1
1
1
1
1
1
1
1
1
1
1
1
1
1
1
1
1
1
1
1
1
1
1
1
1
1
1
1
1
1
1
1
1
1
1
1
1
1
1
1
1
1
1
1
1
1
1
1
1
1
1
1
0.99994
4.50185
9.27523
9.6753
9.76432
9.80814
9.82497
9.83632
9.8475
9.85646
9.86213
9.86505
9.86539
9.86249
9.85612
9.84565
9.83122
9.81381
9.79332
9.76884
9.73868
9.70098
9.65541
9.60294
9.54487
9.48036
9.40814
9.32532
9.2306
9.1214
8.99658
8.85369
8.69046
8.50349
8.28761
8.03793
7.74774
7.4192
7.02369
6.60464
6.1438
5.63212
5.14353
1
1
1
1
1
1
1
1
1
1
1
1
1
1
1
1
1
1
1
1
1
1
1
1
1
1
1
1
1
1
1
1
1
1
1
1
1
1
1
1
1
1
1
1
1
1
1
1
1
1
1
1
1
0.999984
2.72851
8.66849
9.75675
9.7634
9.77231
9.78006
9.79241
9.80175
9.80852
9.81215
9.81334
9.81193
9.80747
9.79952
9.78744
9.77078
9.75029
9.72668
9.69935
9.66688
9.62706
9.57894
9.52286
9.46031
9.39121
9.31477
9.22842
9.13054
9.01781
8.88923
8.74271
8.5767
8.38827
8.17333
7.92749
7.64589
7.32884
6.95482
6.57338
6.14137
5.67662
5.22882
1
1
1
1
1
1
1
1
1
1
1
1
1
1
1
1
1
1
1
1
1
1
1
1
1
1
1
1
1
1
1
1
1
1
1
1
1
1
1
1
1
1
1
1
1
1
1
1
1
1
1
1
1
0.999997
1.35179
7.64611
9.89488
9.75796
9.71036
9.72553
9.74405
9.75456
9.76087
9.7631
9.76266
9.75937
9.75311
9.74337
9.72963
9.71097
9.68766
9.66084
9.63039
9.59545
9.55369
9.50364
9.44493
9.37866
9.30509
9.22407
9.13383
9.03261
8.91756
8.78703
8.6381
8.4706
8.28185
8.06878
7.82827
7.55602
7.2473
6.90361
6.55242
6.14041
5.7205
5.30398
1
1
1
1
1
1
1
1
1
1
1
1
1
1
1
1
1
1
1
1
1
1
1
1
1
1
1
1
1
1
1
1
1
1
1
1
1
1
1
1
1
1
1
1
1
1
1
1
1
1
1
1
1
1
1.01279
6.06966
9.50586
9.58522
9.64068
9.66886
9.69243
9.70545
9.71264
9.71401
9.71227
9.7071
9.69891
9.68723
9.67176
9.65122
9.62552
9.59578
9.56216
9.52451
9.48061
9.42866
9.36773
9.29845
9.22107
9.13598
9.0422
8.93801
8.82103
8.68954
8.54002
8.37197
8.18347
7.97334
7.73958
7.47464
7.179
6.86731
6.52887
6.13682
5.76589
5.37695
1
1
1
1
1
1
1
1
1
1
1
1
1
1
1
1
1
1
1
1
1
1
1
1
1
1
1
1
1
1
1
1
1
1
1
1
1
1
1
1
1
1
1
1
1
1
1
1
1
1
1
1
1
1
0.999925
4.12009
9.08065
9.54222
9.60578
9.63974
9.65333
9.66065
9.6652
9.66515
9.66195
9.65495
9.64487
9.63129
9.61411
9.59184
9.56414
9.53178
9.49504
9.45435
9.40813
9.35451
9.29204
9.22078
9.14063
9.05216
8.95498
8.84783
8.72888
8.59614
8.44694
8.28031
8.09355
7.88605
7.65909
7.4023
7.12579
6.82924
6.49712
6.14586
5.81415
5.43934
1
1
1
1
1
1
1
1
1
1
1
1
1
1
1
1
1
1
1
1
1
1
1
1
1
1
1
1
1
1
1
1
1
1
1
1
1
1
1
1
1
1
1
1
1
1
1
1
1
1
1
1
1
1
0.999981
2.27445
8.35138
9.63037
9.59566
9.59938
9.61302
9.62022
9.6217
9.61909
9.61355
9.60426
9.59196
9.57616
9.55701
9.53296
9.50344
9.46881
9.42925
9.38551
9.33672
9.28129
9.21739
9.14456
9.06234
8.97137
8.87143
8.76176
8.64115
8.50778
8.35945
8.19497
8.01213
7.80641
7.58678
7.33948
7.07609
6.79091
6.47918
6.16717
5.84651
5.48601
1
1
1
1
1
1
1
1
1
1
1
1
1
1
1
1
1
1
1
1
1
1
1
1
1
1
1
1
1
1
1
1
1
1
1
1
1
1
1
1
1
1
1
1
1
1
1
1
1
1
1
1
1
1
0.999997
1.15294
6.97578
9.67096
9.56803
9.54677
9.56314
9.57333
9.57509
9.57166
9.56459
9.55352
9.53926
9.5214
9.50021
9.47443
9.44336
9.40686
9.36488
9.31829
9.26678
9.20936
9.14413
9.07028
8.98691
8.89449
8.79266
8.68101
8.55881
8.42491
8.27751
8.11536
7.9363
7.73445
7.52364
7.28064
7.03001
6.76517
6.46877
6.17479
5.85923
5.53453
1
1
1
1
1
1
1
1
1
1
1
1
1
1
1
1
1
1
1
1
1
1
1
1
1
1
1
1
1
1
1
1
1
1
1
1
1
1
1
1
1
1
1
1
1
1
1
1
1
1
1
1
1
1
1
1.00182
5.05903
9.16865
9.41701
9.49276
9.52441
9.53175
9.52972
9.52466
9.51587
9.50319
9.48701
9.46723
9.44384
9.41636
9.38389
9.34585
9.30192
9.25292
9.19881
9.13916
9.07238
8.99757
8.91349
8.82036
8.71747
8.60459
8.48124
8.34703
8.20074
8.04096
7.86587
7.67088
7.46422
7.22821
6.99644
6.74122
6.45403
6.17731
5.88217
5.59379
1
1
1
1
1
1
1
1
1
1
1
1
1
1
1
1
1
1
1
1
1
1
1
1
1
1
1
1
1
1
1
1
1
1
1
1
1
1
1
1
1
1
1
1
1
1
1
1
1
1
1
1
1
1
1
0.999981
2.8788
8.6037
9.51104
9.48916
9.48498
9.4935
9.49102
9.4828
9.47098
9.4559
9.43726
9.4152
9.38933
9.35973
9.3256
9.28605
9.24046
9.18943
9.13298
9.07107
9.0026
8.92677
8.84223
8.749
8.64587
8.53262
8.40879
8.27453
8.12944
7.97178
7.80089
7.61235
7.40869
7.18627
6.96629
6.7092
6.44369
6.19126
5.91373
5.63881
1
1
1
1
1
1
1
1
1
1
1
1
1
1
1
1
1
1
1
1
1
1
1
1
1
1
1
1
1
1
1
1
1
1
1
1
1
1
1
1
1
1
1
1
1
1
1
1
1
1
1
1
1
1
1
0.999995
1.27846
7.46239
9.61625
9.47191
9.44001
9.43956
9.44034
9.43346
9.42214
9.40664
9.38667
9.36293
9.33517
9.30366
9.26785
9.227
9.18014
9.12758
9.06925
9.00534
8.93515
8.85814
8.77309
8.67995
8.57713
8.46419
8.34064
8.20674
8.06321
7.90735
7.7403
7.55654
7.35993
7.15117
6.93149
6.68294
6.44731
6.20549
5.93666
5.6695
1
1
1
1
1
1
1
1
1
1
1
1
1
1
1
1
1
1
1
1
1
1
1
1
1
1
1
1
1
1
1
1
1
1
1
1
1
1
1
1
1
1
1
1
1
1
1
1
1
1
1
1
1
1
1
0.999999
1.00716
5.58521
9.1506
9.29892
9.36963
9.39785
9.39529
9.38579
9.37415
9.35836
9.33753
9.31229
9.28281
9.24937
9.21161
9.16924
9.12112
9.06729
9.00746
8.94197
8.87027
8.79206
8.70641
8.61325
8.51094
8.39877
8.27637
8.14345
8.00198
7.84732
7.68372
7.50501
7.3158
7.11469
6.89945
6.67178
6.45024
6.20507
5.95266
5.70145
1
1
1
1
1
1
1
1
1
1
1
1
1
1
1
1
1
1
1
1
1
1
1
1
1
1
1
1
1
1
1
1
1
1
1
1
1
1
1
1
1
1
1
1
1
1
1
1
1
1
1
1
1
1
1
1
0.999935
3.23346
8.6587
9.37552
9.36845
9.35603
9.35519
9.34752
9.33327
9.31437
9.29116
9.26352
9.23188
9.19638
9.15658
9.1126
9.06334
9.00853
8.94763
8.88106
8.80818
8.72883
8.64255
8.54921
8.44732
8.33617
8.21553
8.08425
7.94518
7.79118
7.63179
7.45742
7.27322
7.08119
6.87657
6.66294
6.44196
6.20565
5.97751
5.73876
1
1
1
1
1
1
1
1
1
1
1
1
1
1
1
1
1
1
1
1
1
1
1
1
1
1
1
1
1
1
1
1
1
1
1
1
1
1
1
1
1
1
1
1
1
1
1
1
1
1
1
1
1
1
1
1
0.999984
1.40731
7.62343
9.49811
9.34801
9.31482
9.30276
9.2981
9.28417
9.2657
9.24231
9.21383
9.18076
9.14377
9.10237
9.05692
9.00658
8.951
8.88934
8.82208
8.74843
8.6683
8.58155
8.48798
8.3863
8.27622
8.15763
8.02849
7.89156
7.73911
7.58397
7.41193
7.23531
7.0538
6.85327
6.64608
6.43317
6.21835
6.00382
5.7672
1
1
1
1
1
1
1
1
1
1
1
1
1
1
1
1
1
1
1
1
1
1
1
1
1
1
1
1
1
1
1
1
1
1
1
1
1
1
1
1
1
1
1
1
1
1
1
1
1
1
1
1
1
1
1
1
0.999997
1.0154
5.73515
9.06676
9.17761
9.23469
9.26101
9.25536
9.23837
9.21882
9.19433
9.16506
9.13081
9.09249
9.04977
9.00301
8.95163
8.89535
8.83309
8.76526
8.69114
8.61064
8.52356
8.42981
8.32816
8.21909
8.10244
7.9753
7.84067
7.69192
7.53923
7.37097
7.20392
7.02572
6.82833
6.63348
6.43454
6.23163
6.02032
5.7872
1
1
1
1
1
1
1
1
1
1
1
1
1
1
1
1
1
1
1
1
1
1
1
1
1
1
1
1
1
1
1
1
1
1
1
1
1
1
1
1
1
1
1
1
1
1
1
1
1
1
1
1
1
1
1
1
1
0.999914
3.2304
8.55406
9.2502
9.23953
9.22192
9.21264
9.20007
9.17835
9.15046
9.11879
9.08281
9.04263
8.99847
8.95044
8.89797
8.84095
8.77823
8.71002
8.63562
8.55501
8.46804
8.37431
8.27253
8.16477
8.04973
7.9241
7.79224
7.64819
7.49741
7.3358
7.17419
6.99495
6.8085
6.62937
6.43716
6.23402
6.02678
5.80834
1
1
1
1
1
1
1
1
1
1
1
1
1
1
1
1
1
1
1
1
1
1
1
1
1
1
1
1
1
1
1
1
1
1
1
1
1
1
1
1
1
1
1
1
1
1
1
1
1
1
1
1
1
1
1
1
1
0.999978
1.35011
7.47285
9.37882
9.2233
9.18329
9.16325
9.1543
9.13073
9.10199
9.07014
9.03406
8.99324
8.9484
8.89962
8.84633
8.78856
8.72534
8.65687
8.58218
8.50154
8.41515
8.32124
8.21984
8.11354
7.99881
7.87501
7.74623
7.60701
7.45939
7.30431
7.14413
6.96937
6.79678
6.625
6.43193
6.23292
6.04038
5.83708
1
1
1
1
1
1
1
1
1
1
1
1
1
1
1
1
1
1
1
1
1
1
1
1
1
1
1
1
1
1
1
1
1
1
1
1
1
1
1
1
1
1
1
1
1
1
1
1
1
1
1
1
1
1
1
1
1
0.999996
1.01109
5.46878
8.90909
9.03472
9.09341
9.12521
9.11551
9.08655
9.05641
9.02376
8.98704
8.94564
8.90012
8.85053
8.79637
8.73773
8.67395
8.60524
8.53043
8.45006
8.36391
8.27018
8.16986
8.06449
7.95035
7.82906
7.70293
7.56781
7.42366
7.27309
7.11625
6.95066
6.78563
6.61273
6.42204
6.23948
6.05961
5.86191
1
1
1
1
1
1
1
1
1
1
1
1
1
1
1
1
1
1
1
1
1
1
1
1
1
1
1
1
1
1
1
1
1
1
1
1
1
1
1
1
1
1
1
1
1
1
1
1
1
1
1
1
1
1
1
1
1
1
0.999924
2.89563
8.32701
9.1188
9.11123
9.10779
9.07444
9.0442
9.01424
8.98028
8.94242
8.90038
8.85417
8.80368
8.74852
8.68892
8.62449
8.5553
8.48054
8.40057
8.31441
8.22148
8.1224
8.01766
7.90548
7.78637
7.6622
7.53002
7.38937
7.24372
7.09317
6.93403
6.77091
6.6005
6.42061
6.25108
6.07475
5.87913
1
1
1
1
1
1
1
1
1
1
1
1
1
1
1
1
1
1
1
1
1
1
1
1
1
1
1
1
1
1
1
1
1
1
1
1
1
1
1
1
1
1
1
1
1
1
1
1
1
1
1
1
1
1
1
1
1
1
0.999981
1.26438
6.98914
9.19302
9.09524
9.04244
9.01516
8.99369
8.96703
8.93362
8.89596
8.85417
8.80802
8.75716
8.70147
8.64126
8.57643
8.50691
8.43239
8.35278
8.26702
8.1751
8.07733
7.97342
7.86317
7.74599
7.62371
7.49364
7.3567
7.21707
7.07193
6.91527
6.75635
6.59382
6.42366
6.25703
6.07865
5.89214
1
1
1
1
1
1
1
1
1
1
1
1
1
1
1
1
1
1
1
1
1
1
1
1
1
1
1
1
1
1
1
1
1
1
1
1
1
1
1
1
1
1
1
1
1
1
1
1
1
1
1
1
1
1
1
1
1
1
0.999997
1.00573
4.69412
8.7126
8.94915
8.97407
8.97069
8.95867
8.93127
8.89618
8.85662
8.81307
8.76549
8.71333
8.65668
8.59563
8.53025
8.46046
8.38603
8.30676
8.22181
8.13089
8.03419
7.93172
7.82297
7.70787
7.58761
7.45982
7.32679
7.19243
7.05052
6.89702
6.74577
6.5897
6.42409
6.25821
6.08233
5.91118
1
1
1
1
1
1
1
1
1
1
1
1
1
1
1
1
1
1
1
1
1
1
1
1
1
1
1
1
1
1
1
1
1
1
1
1
1
1
1
1
1
1
1
1
1
1
1
1
1
1
1
1
1
1
1
1
1
1
1
0.999968
2.11954
8.03544
9.08485
8.99627
8.95271
8.922
8.8906
8.85555
8.81545
8.77094
8.72234
8.66952
8.61258
8.55125
8.48574
8.41591
8.34157
8.26268
8.17849
8.08857
7.99294
7.89194
7.78464
7.67157
7.55351
7.42865
7.29953
7.16884
7.02882
6.88075
6.73668
6.5827
6.42019
6.25904
6.09296
5.93403
1
1
1
1
1
1
1
1
1
1
1
1
1
1
1
1
1
1
1
1
1
1
1
1
1
1
1
1
1
1
1
1
1
1
1
1
1
1
1
1
1
1
1
1
1
1
1
1
1
1
1
1
1
1
1
1
1
1
1
0.999992
1.09949
6.28242
8.88519
8.89101
8.88725
8.864
8.83892
8.80925
8.77083
8.72634
8.67749
8.62486
8.56848
8.50779
8.44286
8.37335
8.29928
8.22081
8.13732
8.04849
7.95402
7.85434
7.7486
7.63741
7.52171
7.4001
7.2745
7.14645
7.00849
6.86642
6.72638
6.5735
6.4175
6.26369
6.1073
5.95342
1
1
1
1
1
1
1
1
1
1
1
1
1
1
1
1
1
1
1
1
1
1
1
1
1
1
1
1
1
1
1
1
1
1
1
1
1
1
1
1
1
1
1
1
1
1
1
1
1
1
1
1
1
1
1
1
1
1
1
0.999999
1.00056
3.51253
8.33616
8.85046
8.85175
8.8305
8.81386
8.78111
8.739
8.69065
8.63884
8.58454
8.52762
8.46707
8.40249
8.33311
8.25918
8.18081
8.09774
8.00983
7.9166
7.81832
7.71429
7.60506
7.49185
7.37318
7.25061
7.12491
6.98996
6.85283
6.71418
6.56464
6.41725
6.26995