/*--------------------------------*- C++ -*----------------------------------*\
  =========                 |
  \\      /  F ield         | OpenFOAM: The Open Source CFD Toolbox
   \\    /   O peration     | Website:  https://openfoam.org
    \\  /    A nd           | Version:  7
     \\/     M anipulation  |
\*---------------------------------------------------------------------------*/
FoamFile
{
    version     2.0;
    format      ascii;
    class       volScalarField;
    location    "3.2";
    object      rho;
}
// * * * * * * * * * * * * * * * * * * * * * * * * * * * * * * * * * * * * * //

dimensions      [1 -3 0 0 0 0 0];

internalField   nonuniform List<scalar> 
64512
(
1.40001
1.40001
1.40001
1.40001
1.40001
1.40001
1.40001
1.40001
1.40001
1.40001
1.40001
1.40001
1.40001
1.40001
1.40001
1.40001
1.40001
1.40001
1.40001
1.40001
1.40001
1.40001
1.40001
1.40001
1.40001
1.40001
1.40001
1.40001
1.40001
1.40001
1.40001
1.40001
1.40001
1.40001
1.40001
1.40001
1.40001
1.40001
1.40001
1.40001
1.40001
1.40001
1.40001
1.40001
1.40001
1.40001
1.40001
1.40001
1.40001
3.88467
5.41447
5.42784
5.44456
5.46602
5.48871
5.51222
5.53617
5.56038
5.58436
5.60737
5.62864
5.64738
5.66306
5.67556
5.68557
5.69518
5.70733
5.72385
5.74412
5.76605
5.78735
5.80516
5.81768
5.82619
5.83469
5.8468
5.86268
5.87959
5.89515
5.90809
5.91734
5.92383
5.93007
5.93784
5.94699
5.95636
5.96487
5.97206
5.97794
5.9827
5.98635
5.98859
5.98931
5.98885
5.98834
5.9884
1.40001
1.40001
1.40001
1.40001
1.40001
1.40001
1.40001
1.40001
1.40001
1.40001
1.40001
1.40001
1.40001
1.40001
1.40001
1.40001
1.40001
1.40001
1.40001
1.40001
1.40001
1.40001
1.40001
1.40001
1.40001
1.40001
1.40001
1.40001
1.40001
1.40001
1.40001
1.40001
1.40001
1.40001
1.40001
1.40001
1.40001
1.40001
1.40001
1.40001
1.40001
1.40001
1.40001
1.40001
1.40001
1.40001
1.40001
1.40001
1.40001
3.86366
5.40823
5.42887
5.44475
5.46606
5.48853
5.51192
5.53579
5.55991
5.58387
5.60695
5.6283
5.647
5.66241
5.67458
5.68438
5.69399
5.70632
5.72322
5.74389
5.76601
5.78732
5.80499
5.81737
5.82562
5.83389
5.84583
5.86164
5.87855
5.89417
5.90718
5.91647
5.92299
5.92924
5.93698
5.94607
5.9554
5.9639
5.97107
5.97688
5.98153
5.98507
5.98723
5.98794
5.98755
5.98712
5.98722
1.40001
1.40001
1.40001
1.40001
1.40001
1.40001
1.40001
1.40001
1.40001
1.40001
1.40001
1.40001
1.40001
1.40001
1.40001
1.40001
1.40001
1.40001
1.40001
1.40001
1.40001
1.40001
1.40001
1.40001
1.40001
1.40001
1.40001
1.40001
1.40001
1.40001
1.40001
1.40001
1.40001
1.40001
1.40001
1.40001
1.40001
1.40001
1.40001
1.40001
1.40001
1.40001
1.40001
1.40001
1.40001
1.40001
1.40001
1.40001
1.40001
3.82393
5.40405
5.42785
5.44296
5.46446
5.48696
5.51055
5.5347
5.55901
5.58307
5.60623
5.62758
5.64613
5.66117
5.67292
5.68238
5.69186
5.70442
5.72187
5.7431
5.76552
5.78695
5.80449
5.81671
5.82463
5.83258
5.84427
5.85995
5.87687
5.89257
5.90567
5.91503
5.92161
5.92788
5.93557
5.94457
5.95382
5.96228
5.96942
5.97516
5.97969
5.98309
5.98513
5.98581
5.98549
5.98517
5.98535
1.40001
1.40001
1.40001
1.40001
1.40001
1.40001
1.40001
1.40001
1.40001
1.40001
1.40001
1.40001
1.40001
1.40001
1.40001
1.40001
1.40001
1.40001
1.40001
1.40001
1.40001
1.40001
1.40001
1.40001
1.40001
1.40001
1.40001
1.40001
1.40001
1.40001
1.40001
1.40001
1.40001
1.40001
1.40001
1.40001
1.40001
1.40001
1.40001
1.40001
1.40001
1.40001
1.40001
1.40001
1.40001
1.40001
1.40001
1.40001
1.40001
3.76665
5.39825
5.42635
5.4402
5.46193
5.48453
5.50846
5.53315
5.55791
5.58222
5.60542
5.62662
5.64478
5.65924
5.67048
5.67959
5.689
5.70186
5.71993
5.74175
5.76448
5.78606
5.80347
5.81552
5.82305
5.83058
5.84189
5.8574
5.87432
5.89015
5.9034
5.91289
5.91956
5.92584
5.93345
5.94234
5.95147
5.95985
5.9669
5.97254
5.97692
5.98014
5.98203
5.98266
5.98237
5.98214
5.9824
1.40001
1.40001
1.40001
1.40001
1.40001
1.40001
1.40001
1.40001
1.40001
1.40001
1.40001
1.40001
1.40001
1.40001
1.40001
1.40001
1.40001
1.40001
1.40001
1.40001
1.40001
1.40001
1.40001
1.40001
1.40001
1.40001
1.40001
1.40001
1.40001
1.40001
1.40001
1.40001
1.40001
1.40001
1.40001
1.40001
1.40001
1.40001
1.40001
1.40001
1.40001
1.40001
1.40001
1.40001
1.40001
1.40001
1.40001
1.40001
1.40001
3.69121
5.39031
5.4241
5.43653
5.45841
5.48109
5.50546
5.5309
5.55639
5.58109
5.60436
5.62535
5.64303
5.65685
5.66757
5.67645
5.68584
5.69893
5.7175
5.73983
5.76279
5.7845
5.80184
5.8138
5.82098
5.82801
5.83881
5.85402
5.87091
5.88687
5.90032
5.91
5.91678
5.92307
5.93061
5.93939
5.94842
5.95671
5.96368
5.96921
5.97345
5.9765
5.97822
5.97875
5.97843
5.97821
5.9785
1.40001
1.40001
1.40001
1.40001
1.40001
1.40001
1.40001
1.40001
1.40001
1.40001
1.40001
1.40001
1.40001
1.40001
1.40001
1.40001
1.40001
1.40001
1.40001
1.40001
1.40001
1.40001
1.40001
1.40001
1.40001
1.40001
1.40001
1.40001
1.40001
1.40001
1.40001
1.40001
1.40001
1.40001
1.40001
1.40001
1.40001
1.40001
1.40001
1.40001
1.40001
1.40001
1.40001
1.40001
1.40001
1.40001
1.40001
1.40001
1.40001
3.59731
5.3795
5.42075
5.43186
5.45417
5.47698
5.50179
5.5279
5.55418
5.57941
5.60287
5.62378
5.64106
5.65427
5.66445
5.67313
5.68257
5.69582
5.71468
5.73732
5.76032
5.78206
5.79935
5.81132
5.81827
5.8248
5.835
5.84984
5.86669
5.88278
5.89645
5.90636
5.91327
5.91954
5.92699
5.93565
5.94459
5.95278
5.95964
5.96507
5.9692
5.97212
5.97368
5.97406
5.97361
5.97331
5.97356
1.40001
1.40001
1.40001
1.40001
1.40001
1.40001
1.40001
1.40001
1.40001
1.40001
1.40001
1.40001
1.40001
1.40001
1.40001
1.40001
1.40001
1.40001
1.40001
1.40001
1.40001
1.40001
1.40001
1.40001
1.40001
1.40001
1.40001
1.40001
1.40001
1.40001
1.40001
1.40001
1.40001
1.40001
1.40001
1.40001
1.40001
1.40001
1.40001
1.40001
1.40001
1.40001
1.40001
1.40001
1.40001
1.40001
1.40001
1.40001
1.40001
3.48465
5.3648
5.41683
5.42666
5.44983
5.47268
5.49776
5.52423
5.55108
5.57677
5.60052
5.6216
5.63882
5.65168
5.66138
5.6698
5.67918
5.69243
5.71139
5.73415
5.75703
5.77871
5.79605
5.80816
5.81505
5.82112
5.83067
5.84506
5.86181
5.87797
5.89182
5.90195
5.90897
5.91522
5.92256
5.93113
5.93999
5.94808
5.95482
5.96015
5.9642
5.96704
5.96846
5.96866
5.96801
5.96752
5.96765
1.40001
1.40001
1.40001
1.40001
1.40001
1.40001
1.40001
1.40001
1.40001
1.40001
1.40001
1.40001
1.40001
1.40001
1.40001
1.40001
1.40001
1.40001
1.40001
1.40001
1.40001
1.40001
1.40001
1.40001
1.40001
1.40001
1.40001
1.40001
1.40001
1.40001
1.40001
1.40001
1.40001
1.40001
1.40001
1.40001
1.40001
1.40001
1.40001
1.40001
1.40001
1.40001
1.40001
1.40001
1.40001
1.40001
1.40001
1.40001
1.40001
3.35183
5.34705
5.41372
5.42188
5.44549
5.46816
5.49339
5.51994
5.54703
5.57305
5.59713
5.61865
5.63627
5.64924
5.65867
5.66675
5.67577
5.6887
5.70748
5.73013
5.75267
5.77416
5.79166
5.8041
5.81113
5.81685
5.82574
5.83959
5.85616
5.87231
5.88628
5.8966
5.90373
5.90992
5.91715
5.92562
5.93439
5.94238
5.94902
5.95427
5.9583
5.96113
5.96251
5.96259
5.96181
5.96115
5.96116
1.40001
1.40001
1.40001
1.40001
1.40001
1.40001
1.40001
1.40001
1.40001
1.40001
1.40001
1.40001
1.40001
1.40001
1.40001
1.40001
1.40001
1.40001
1.40001
1.40001
1.40001
1.40001
1.40001
1.40001
1.40001
1.40001
1.40001
1.40001
1.40001
1.40001
1.40001
1.40001
1.40001
1.40001
1.40001
1.40001
1.40001
1.40001
1.40001
1.40001
1.40001
1.40001
1.40001
1.40001
1.40001
1.40001
1.40001
1.40001
1.40001
3.19936
5.32228
5.41332
5.42047
5.44294
5.46429
5.48889
5.51503
5.54205
5.56826
5.59272
5.61488
5.63335
5.64698
5.65657
5.6644
5.67287
5.68506
5.7031
5.72525
5.74732
5.76853
5.78628
5.79918
5.80661
5.81217
5.82043
5.83363
5.84984
5.86585
5.87981
5.89026
5.89752
5.9037
5.91085
5.91924
5.92797
5.93592
5.94248
5.94766
5.95164
5.95442
5.95572
5.95567
5.95478
5.9539
5.95375
1.40001
1.40001
1.40001
1.40001
1.40001
1.40001
1.40001
1.40001
1.40001
1.40001
1.40001
1.40001
1.40001
1.40001
1.40001
1.40001
1.40001
1.40001
1.40001
1.40001
1.40001
1.40001
1.40001
1.40001
1.40001
1.40001
1.40001
1.40001
1.40001
1.40001
1.40001
1.40001
1.40001
1.40001
1.40001
1.40001
1.40001
1.40001
1.40001
1.40001
1.40001
1.40001
1.40001
1.40001
1.40001
1.40001
1.40001
1.40001
1.40001
3.02797
5.28783
5.41704
5.42321
5.44351
5.46239
5.48516
5.5101
5.53652
5.56271
5.58739
5.61015
5.62972
5.64457
5.6549
5.66279
5.67074
5.68182
5.69846
5.7196
5.74118
5.762
5.78
5.79344
5.80148
5.80709
5.81476
5.82714
5.84281
5.85854
5.87237
5.88292
5.89031
5.89651
5.90355
5.91183
5.92049
5.9284
5.93493
5.94007
5.94398
5.94668
5.9479
5.94775
5.94678
5.94573
5.94546
1.40001
1.40001
1.40001
1.40001
1.40001
1.40001
1.40001
1.40001
1.40001
1.40001
1.40001
1.40001
1.40001
1.40001
1.40001
1.40001
1.40001
1.40001
1.40001
1.40001
1.40001
1.40001
1.40001
1.40001
1.40001
1.40001
1.40001
1.40001
1.40001
1.40001
1.40001
1.40001
1.40001
1.40001
1.40001
1.40001
1.40001
1.40001
1.40001
1.40001
1.40001
1.40001
1.40001
1.40001
1.40001
1.40001
1.40001
1.40001
1.40001
2.83993
5.23799
5.4248
5.43002
5.44706
5.4629
5.48307
5.5058
5.53091
5.55681
5.58164
5.60489
5.62561
5.64203
5.65363
5.66194
5.66948
5.67921
5.69382
5.71345
5.73451
5.75479
5.77303
5.78708
5.79599
5.80184
5.80894
5.82034
5.83523
5.85055
5.86416
5.8748
5.88238
5.88864
5.89557
5.90369
5.91223
5.9201
5.92663
5.93173
5.93551
5.93805
5.93913
5.93884
5.93778
5.93662
5.93626
1.40001
1.40001
1.40001
1.40001
1.40001
1.40001
1.40001
1.40001
1.40001
1.40001
1.40001
1.40001
1.40001
1.40001
1.40001
1.40001
1.40001
1.40001
1.40001
1.40001
1.40001
1.40001
1.40001
1.40001
1.40001
1.40001
1.40001
1.40001
1.40001
1.40001
1.40001
1.40001
1.40001
1.40001
1.40001
1.40001
1.40001
1.40001
1.40001
1.40001
1.40001
1.40001
1.40001
1.40001
1.40001
1.40001
1.40001
1.40001
1.40001
2.64122
5.16473
5.43227
5.43852
5.45261
5.46541
5.482
5.5017
5.52474
5.54997
5.57492
5.59868
5.62055
5.63868
5.65193
5.66112
5.66847
5.67677
5.68895
5.70658
5.72685
5.74655
5.765
5.77971
5.78969
5.79604
5.80272
5.81309
5.82711
5.84192
5.85529
5.86604
5.87384
5.88013
5.88685
5.89467
5.90299
5.91076
5.91727
5.92231
5.92596
5.92832
5.92923
5.92881
5.92767
5.92645
5.92605
1.40001
1.40001
1.40001
1.40001
1.40001
1.40001
1.40001
1.40001
1.40001
1.40001
1.40001
1.40001
1.40001
1.40001
1.40001
1.40001
1.40001
1.40001
1.40001
1.40001
1.40001
1.40001
1.40001
1.40001
1.40001
1.40001
1.40001
1.40001
1.40001
1.40001
1.40001
1.40001
1.40001
1.40001
1.40001
1.40001
1.40001
1.40001
1.40001
1.40001
1.40001
1.40001
1.40001
1.40001
1.40001
1.40001
1.40001
1.40001
1.40001
2.43511
5.06682
5.43437
5.44453
5.45881
5.47038
5.48366
5.49955
5.51938
5.54253
5.56694
5.59076
5.61336
5.6331
5.64827
5.65885
5.66646
5.67378
5.68373
5.69909
5.71823
5.73758
5.75625
5.77158
5.7827
5.78969
5.79603
5.80529
5.8182
5.83236
5.84542
5.85627
5.86434
5.87073
5.87725
5.88475
5.8928
5.90044
5.90691
5.9119
5.91542
5.91759
5.91831
5.91773
5.91651
5.91524
5.91485
1.40001
1.40001
1.40001
1.40001
1.40001
1.40001
1.40001
1.40001
1.40001
1.40001
1.40001
1.40001
1.40001
1.40001
1.40001
1.40001
1.40001
1.40001
1.40001
1.40001
1.40001
1.40001
1.40001
1.40001
1.40001
1.40001
1.40001
1.40001
1.40001
1.40001
1.40001
1.40001
1.40001
1.40001
1.40001
1.40001
1.40001
1.40001
1.40001
1.40001
1.40001
1.40001
1.40001
1.40001
1.40001
1.40001
1.40001
1.40001
1.40001
2.22548
4.95096
5.43464
5.44665
5.46358
5.47613
5.4884
5.50147
5.51768
5.53771
5.56061
5.58402
5.60679
5.62755
5.64441
5.65657
5.66487
5.67168
5.67964
5.6923
5.70969
5.72845
5.74697
5.76262
5.77472
5.7824
5.78855
5.79677
5.80854
5.82198
5.83475
5.84568
5.85404
5.86054
5.86685
5.87396
5.88165
5.88906
5.8954
5.9003
5.90369
5.9057
5.90623
5.90547
5.90414
5.90282
5.90245
1.40001
1.40001
1.40001
1.40001
1.40001
1.40001
1.40001
1.40001
1.40001
1.40001
1.40001
1.40001
1.40001
1.40001
1.40001
1.40001
1.40001
1.40001
1.40001
1.40001
1.40001
1.40001
1.40001
1.40001
1.40001
1.40001
1.40001
1.40001
1.40001
1.40001
1.40001
1.40001
1.40001
1.40001
1.40001
1.40001
1.40001
1.40001
1.40001
1.40001
1.40001
1.40001
1.40001
1.40001
1.40001
1.40001
1.40001
1.40001
1.40001
2.01336
4.82009
5.43693
5.44729
5.46654
5.48023
5.49294
5.50491
5.51842
5.53506
5.55547
5.57773
5.6002
5.62147
5.63963
5.65336
5.66265
5.66942
5.676
5.68607
5.70138
5.71921
5.7373
5.75303
5.76589
5.77427
5.7804
5.7877
5.79827
5.81088
5.82324
5.8341
5.84265
5.84924
5.85534
5.86205
5.86933
5.87643
5.88259
5.88739
5.89068
5.89258
5.89294
5.89201
5.89059
5.88919
5.88887
1.40001
1.40001
1.40001
1.40001
1.40001
1.40001
1.40001
1.40001
1.40001
1.40001
1.40001
1.40001
1.40001
1.40001
1.40001
1.40001
1.40001
1.40001
1.40001
1.40001
1.40001
1.40001
1.40001
1.40001
1.40001
1.40001
1.40001
1.40001
1.40001
1.40001
1.40001
1.40001
1.40001
1.40001
1.40001
1.40001
1.40001
1.40001
1.40001
1.40001
1.40001
1.40001
1.40001
1.40001
1.40001
1.40001
1.40001
1.40001
1.40001
1.81129
4.67634
5.44676
5.44332
5.46376
5.4802
5.49624
5.50873
5.52045
5.53431
5.55178
5.57214
5.59368
5.61479
5.63365
5.64874
5.6593
5.66655
5.6726
5.68068
5.69385
5.71024
5.72759
5.74312
5.75641
5.76541
5.77165
5.77818
5.78756
5.79918
5.81095
5.82155
5.83016
5.83681
5.84273
5.84907
5.85591
5.86264
5.86854
5.87316
5.87632
5.8781
5.87829
5.87716
5.87561
5.87412
5.87382
1.40001
1.40001
1.40001
1.40001
1.40001
1.40001
1.40001
1.40001
1.40001
1.40001
1.40001
1.40001
1.40001
1.40001
1.40001
1.40001
1.40001
1.40001
1.40001
1.40001
1.40001
1.40001
1.40001
1.40001
1.40001
1.40001
1.40001
1.40001
1.40001
1.40001
1.40001
1.40001
1.40001
1.40001
1.40001
1.40001
1.40001
1.40001
1.40001
1.40001
1.40001
1.40001
1.40001
1.40001
1.40001
1.40001
1.40001
1.40001
1.40001
1.63132
4.48473
5.44755
5.43545
5.45328
5.4705
5.48869
5.50462
5.51886
5.5333
5.54923
5.56735
5.58711
5.60725
5.62614
5.64217
5.65417
5.66244
5.66884
5.67572
5.68693
5.70151
5.71774
5.7329
5.74627
5.75582
5.76231
5.7683
5.77653
5.78701
5.79797
5.80808
5.81655
5.82317
5.82889
5.8348
5.84113
5.84738
5.85292
5.85731
5.86033
5.862
5.86206
5.86083
5.85919
5.85765
5.85742
1.40001
1.40001
1.40001
1.40001
1.40001
1.40001
1.40001
1.40001
1.40001
1.40001
1.40001
1.40001
1.40001
1.40001
1.40001
1.40001
1.40001
1.40001
1.40001
1.40001
1.40001
1.40001
1.40001
1.40001
1.40001
1.40001
1.40001
1.40001
1.40001
1.40001
1.40001
1.40001
1.40001
1.40001
1.40001
1.40001
1.40001
1.40001
1.40001
1.40001
1.40001
1.40001
1.40001
1.40001
1.40001
1.40001
1.40001
1.40001
1.40001
1.47961
4.2566
5.41497
5.41959
5.43783
5.45888
5.4791
5.49775
5.5145
5.52982
5.54497
5.56155
5.57964
5.5985
5.61691
5.63343
5.64682
5.65654
5.664
5.67064
5.68028
5.69292
5.7076
5.72215
5.73528
5.74527
5.75217
5.75791
5.76512
5.7744
5.78437
5.79377
5.80189
5.80832
5.81376
5.8192
5.82498
5.83073
5.83588
5.83998
5.84279
5.84427
5.84413
5.84274
5.84097
5.83934
5.83912
1.40001
1.40001
1.40001
1.40001
1.40001
1.40001
1.40001
1.40001
1.40001
1.40001
1.40001
1.40001
1.40001
1.40001
1.40001
1.40001
1.40001
1.40001
1.40001
1.40001
1.40001
1.40001
1.40001
1.40001
1.40001
1.40001
1.40001
1.40001
1.40001
1.40001
1.40001
1.40001
1.40001
1.40001
1.40001
1.40001
1.40001
1.40001
1.40001
1.40001
1.40001
1.40001
1.40001
1.40001
1.40001
1.40001
1.40001
1.40001
1.40001
1.40389
3.9652
5.3581
5.39034
5.41231
5.43543
5.45811
5.48052
5.50108
5.51926
5.53612
5.55265
5.56964
5.5873
5.6052
5.62208
5.63664
5.64808
5.65711
5.66453
5.67325
5.68425
5.69716
5.71085
5.72352
5.73381
5.74118
5.7469
5.75326
5.76128
5.77011
5.77863
5.78615
5.79221
5.79722
5.8021
5.80725
5.81241
5.81707
5.82076
5.82322
5.82444
5.82414
5.8227
5.8209
5.81926
5.81911
1.40001
1.40001
1.40001
1.40001
1.40001
1.40001
1.40001
1.40001
1.40001
1.40001
1.40001
1.40001
1.40001
1.40001
1.40001
1.40001
1.40001
1.40001
1.40001
1.40001
1.40001
1.40001
1.40001
1.40001
1.40001
1.40001
1.40001
1.40001
1.40001
1.40001
1.40001
1.40001
1.40001
1.40001
1.40001
1.40001
1.40001
1.40001
1.40001
1.40001
1.40001
1.40001
1.40001
1.40001
1.40001
1.40001
1.40001
1.40001
1.40001
1.40003
3.64609
5.29532
5.35912
5.3899
5.41871
5.44431
5.46749
5.48807
5.50653
5.52384
5.54052
5.55716
5.57419
5.59152
5.60828
5.62372
5.63675
5.64746
5.6564
5.665
5.67503
5.6863
5.69887
5.71087
5.72125
5.72902
5.73488
5.7406
5.74745
5.75511
5.76265
5.76939
5.77487
5.77932
5.78353
5.78799
5.79251
5.79661
5.79977
5.80174
5.80257
5.802
5.80039
5.79846
5.79672
5.79651
1.40001
1.40001
1.40001
1.40001
1.40001
1.40001
1.40001
1.40001
1.40001
1.40001
1.40001
1.40001
1.40001
1.40001
1.40001
1.40001
1.40001
1.40001
1.40001
1.40001
1.40001
1.40001
1.40001
1.40001
1.40001
1.40001
1.40001
1.40001
1.40001
1.40001
1.40001
1.40001
1.40001
1.40001
1.40001
1.40001
1.40001
1.40001
1.40001
1.40001
1.40001
1.40001
1.40001
1.40001
1.40001
1.40001
1.40001
1.40001
1.40001
1.40001
3.28569
5.23841
5.3452
5.37384
5.40159
5.42802
5.4524
5.47431
5.49377
5.5113
5.52774
5.54382
5.55998
5.57632
5.59281
5.60824
5.62242
5.63485
5.64554
5.65472
5.66446
5.67458
5.68598
5.69724
5.70751
5.71562
5.72171
5.72702
5.73281
5.73926
5.7457
5.75149
5.75617
5.75989
5.7633
5.76693
5.77064
5.77397
5.77639
5.77771
5.77807
5.77723
5.77551
5.77352
5.77178
5.77157
1.40001
1.40001
1.40001
1.40001
1.40001
1.40001
1.40001
1.40001
1.40001
1.40001
1.40001
1.40001
1.40001
1.40001
1.40001
1.40001
1.40001
1.40001
1.40001
1.40001
1.40001
1.40001
1.40001
1.40001
1.40001
1.40001
1.40001
1.40001
1.40001
1.40001
1.40001
1.40001
1.40001
1.40001
1.40001
1.40001
1.40001
1.40001
1.40001
1.40001
1.40001
1.40001
1.40001
1.40001
1.40001
1.40001
1.40001
1.40001
1.40001
1.40001
2.90508
5.17424
5.34217
5.37114
5.39699
5.42043
5.44193
5.46191
5.48011
5.49711
5.51346
5.52947
5.54533
5.56114
5.57687
5.5923
5.60644
5.61943
5.63158
5.64181
5.65179
5.66141
5.67181
5.68236
5.69238
5.7007
5.70708
5.71218
5.71711
5.72238
5.72766
5.73236
5.7361
5.73893
5.74144
5.74413
5.74689
5.74926
5.75084
5.75142
5.75112
5.74977
5.74763
5.74527
5.7433
5.7429
1.40001
1.40001
1.40001
1.40001
1.40001
1.40001
1.40001
1.40001
1.40001
1.40001
1.40001
1.40001
1.40001
1.40001
1.40001
1.40001
1.40001
1.40001
1.40001
1.40001
1.40001
1.40001
1.40001
1.40001
1.40001
1.40001
1.40001
1.40001
1.40001
1.40001
1.40001
1.40001
1.40001
1.40001
1.40001
1.40001
1.40001
1.40001
1.40001
1.40001
1.40001
1.40001
1.40001
1.40001
1.40001
1.40001
1.40001
1.40001
1.40001
1.40001
2.52365
5.06023
5.3727
5.37989
5.39832
5.41837
5.43931
5.45784
5.47336
5.48764
5.50138
5.51535
5.52983
5.54473
5.56
5.57511
5.58973
5.60316
5.61523
5.62618
5.63631
5.64617
5.65593
5.66587
5.67558
5.68405
5.69075
5.69585
5.70014
5.70432
5.70836
5.71186
5.71449
5.71625
5.71771
5.71927
5.72078
5.7219
5.72227
5.72179
5.72068
5.7187
5.71613
5.71348
5.71139
5.71094
1.40001
1.40001
1.40001
1.40001
1.40001
1.40001
1.40001
1.40001
1.40001
1.40001
1.40001
1.40001
1.40001
1.40001
1.40001
1.40001
1.40001
1.40001
1.40001
1.40001
1.40001
1.40001
1.40001
1.40001
1.40001
1.40001
1.40001
1.40001
1.40001
1.40001
1.40001
1.40001
1.40001
1.40001
1.40001
1.40001
1.40001
1.40001
1.40001
1.40001
1.40001
1.40001
1.40001
1.40001
1.40001
1.40001
1.40001
1.40001
1.40001
1.40001
2.14232
4.88395
5.41365
5.4074
5.41999
5.43189
5.44465
5.45694
5.46936
5.48167
5.49375
5.50584
5.51819
5.53096
5.54426
5.55807
5.57193
5.5853
5.59784
5.60859
5.61881
5.62839
5.63788
5.64747
5.65686
5.6654
5.67243
5.67772
5.68163
5.68485
5.68766
5.68987
5.69122
5.69178
5.69202
5.69224
5.69229
5.69193
5.69094
5.68934
5.68718
5.68419
5.6806
5.67701
5.67425
5.6733
1.40001
1.40001
1.40001
1.40001
1.40001
1.40001
1.40001
1.40001
1.40001
1.40001
1.40001
1.40001
1.40001
1.40001
1.40001
1.40001
1.40001
1.40001
1.40001
1.40001
1.40001
1.40001
1.40001
1.40001
1.40001
1.40001
1.40001
1.40001
1.40001
1.40001
1.40001
1.40001
1.40001
1.40001
1.40001
1.40001
1.40001
1.40001
1.40001
1.40001
1.40001
1.40001
1.40001
1.40001
1.40001
1.40001
1.40001
1.40001
1.40001
1.40001
1.77341
4.69608
5.46176
5.41713
5.4285
5.43766
5.45052
5.46294
5.47362
5.48221
5.49031
5.49917
5.50915
5.52012
5.53176
5.54365
5.55578
5.56783
5.57941
5.58991
5.59898
5.60871
5.61798
5.6269
5.636
5.64455
5.65186
5.65744
5.66122
5.6637
5.66534
5.66619
5.66614
5.6653
5.66414
5.66277
5.66105
5.6588
5.65594
5.65254
5.64871
5.6443
5.63957
5.63519
5.63193
5.63082
1.40001
1.40001
1.40001
1.40001
1.40001
1.40001
1.40001
1.40001
1.40001
1.40001
1.40001
1.40001
1.40001
1.40001
1.40001
1.40001
1.40001
1.40001
1.40001
1.40001
1.40001
1.40001
1.40001
1.40001
1.40001
1.40001
1.40001
1.40001
1.40001
1.40001
1.40001
1.40001
1.40001
1.40001
1.40001
1.40001
1.40001
1.40001
1.40001
1.40001
1.40001
1.40001
1.40001
1.40001
1.40001
1.40001
1.40001
1.40001
1.40001
1.40001
1.46586
4.33991
5.45084
5.41882
5.42675
5.43786
5.45099
5.46471
5.47649
5.48516
5.49158
5.49784
5.50488
5.51292
5.52193
5.53164
5.54175
5.55205
5.56216
5.57142
5.57953
5.58722
5.59604
5.60472
5.6131
5.6214
5.62884
5.63472
5.63857
5.64052
5.64117
5.6407
5.63906
5.63673
5.63389
5.63066
5.62683
5.62233
5.61728
5.61188
5.60625
5.59994
5.59306
5.5864
5.58134
5.57885
1.40001
1.40001
1.40001
1.40001
1.40001
1.40001
1.40001
1.40001
1.40001
1.40001
1.40001
1.40001
1.40001
1.40001
1.40001
1.40001
1.40001
1.40001
1.40001
1.40001
1.40001
1.40001
1.40001
1.40001
1.40001
1.40001
1.40001
1.40001
1.40001
1.40001
1.40001
1.40001
1.40001
1.40001
1.40001
1.40001
1.40001
1.40001
1.40001
1.40001
1.40001
1.40001
1.40001
1.40001
1.40001
1.40001
1.40001
1.40001
1.40001
1.40001
1.40125
3.88317
5.33156
5.35742
5.39084
5.4179
5.44005
5.45733
5.47095
5.48179
5.49084
5.49751
5.50324
5.50917
5.51582
5.52297
5.53041
5.53826
5.54631
5.55395
5.56071
5.56696
5.57368
5.581
5.5887
5.59636
5.6035
5.60947
5.6134
5.61501
5.61486
5.61303
5.60986
5.60583
5.60109
5.59564
5.5893
5.58218
5.5743
5.56585
5.55679
5.54699
5.53704
5.52821
5.52176
5.51912
1.40001
1.40001
1.40001
1.40001
1.40001
1.40001
1.40001
1.40001
1.40001
1.40001
1.40001
1.40001
1.40001
1.40001
1.40001
1.40001
1.40001
1.40001
1.40001
1.40001
1.40001
1.40001
1.40001
1.40001
1.40001
1.40001
1.40001
1.40001
1.40001
1.40001
1.40001
1.40001
1.40001
1.40001
1.40001
1.40001
1.40001
1.40001
1.40001
1.40001
1.40001
1.40001
1.40001
1.40001
1.40001
1.40001
1.40001
1.40001
1.40001
1.40001
1.4
3.38865
5.21655
5.32003
5.36594
5.39613
5.42069
5.442
5.46023
5.47456
5.48509
5.49327
5.50042
5.50625
5.5116
5.51684
5.52196
5.52721
5.53264
5.538
5.5429
5.54725
5.55194
5.55765
5.56385
5.5702
5.5765
5.58206
5.58576
5.5872
5.58624
5.58307
5.5784
5.5725
5.56552
5.55753
5.54829
5.53791
5.52644
5.51421
5.50136
5.48786
5.47381
5.45966
5.44778
5.44054
1.40001
1.40001
1.40001
1.40001
1.40001
1.40001
1.40001
1.40001
1.40001
1.40001
1.40001
1.40001
1.40001
1.40001
1.40001
1.40001
1.40001
1.40001
1.40001
1.40001
1.40001
1.40001
1.40001
1.40001
1.40001
1.40001
1.40001
1.40001
1.40001
1.40001
1.40001
1.40001
1.40001
1.40001
1.40001
1.40001
1.40001
1.40001
1.40001
1.40001
1.40001
1.40001
1.40001
1.40001
1.40001
1.40001
1.40001
1.40001
1.40001
1.40001
1.40001
2.90142
5.07389
5.29733
5.34117
5.37405
5.39926
5.42207
5.44069
5.45694
5.47116
5.4832
5.49199
5.49962
5.506
5.51103
5.51497
5.5183
5.52135
5.52425
5.52679
5.52882
5.53095
5.53459
5.53919
5.54362
5.54852
5.5529
5.55578
5.5568
5.55506
5.55082
5.54448
5.53646
5.52703
5.51616
5.50357
5.48935
5.47352
5.45623
5.43714
5.41578
5.39288
5.37098
5.3536
5.34669
1.40001
1.40001
1.40001
1.40001
1.40001
1.40001
1.40001
1.40001
1.40001
1.40001
1.40001
1.40001
1.40001
1.40001
1.40001
1.40001
1.40001
1.40001
1.40001
1.40001
1.40001
1.40001
1.40001
1.40001
1.40001
1.40001
1.40001
1.40001
1.40001
1.40001
1.40001
1.40001
1.40001
1.40001
1.40001
1.40001
1.40001
1.40001
1.40001
1.40001
1.40001
1.40001
1.40001
1.40001
1.40001
1.40001
1.40001
1.40001
1.40001
1.40001
1.40001
2.42192
4.92715
5.30763
5.33513
5.3667
5.38967
5.40763
5.42367
5.43908
5.4533
5.46589
5.47744
5.48782
5.49584
5.50226
5.50677
5.50968
5.51138
5.51227
5.51251
5.5121
5.51151
5.51241
5.51478
5.51722
5.52012
5.5227
5.52428
5.52434
5.5217
5.51622
5.50811
5.49784
5.48569
5.47158
5.45511
5.43626
5.41476
5.39054
5.36335
5.33336
5.30118
5.26846
5.23455
5.20697
1.40001
1.40001
1.40001
1.40001
1.40001
1.40001
1.40001
1.40001
1.40001
1.40001
1.40001
1.40001
1.40001
1.40001
1.40001
1.40001
1.40001
1.40001
1.40001
1.40001
1.40001
1.40001
1.40001
1.40001
1.40001
1.40001
1.40001
1.40001
1.40001
1.40001
1.40001
1.40001
1.40001
1.40001
1.40001
1.40001
1.40001
1.40001
1.40001
1.40001
1.40001
1.40001
1.40001
1.40001
1.40001
1.40001
1.40001
1.40001
1.40001
1.40001
1.40001
1.91715
4.74102
5.40639
5.3657
5.37318
5.3809
5.39256
5.40709
5.42193
5.4358
5.44821
5.45951
5.46998
5.48
5.48841
5.4946
5.4987
5.50061
5.50076
5.49947
5.49696
5.49375
5.49157
5.49104
5.49114
5.49144
5.49175
5.49151
5.48994
5.48609
5.47918
5.46923
5.4566
5.4415
5.42377
5.40286
5.37852
5.35026
5.31786
5.2804
5.23616
5.18174
5.11729
5.05446
5.01032
1.40001
1.40001
1.40001
1.40001
1.40001
1.40001
1.40001
1.40001
1.40001
1.40001
1.40001
1.40001
1.40001
1.40001
1.40001
1.40001
1.40001
1.40001
1.40001
1.40001
1.40001
1.40001
1.40001
1.40001
1.40001
1.40001
1.40001
1.40001
1.40001
1.40001
1.40001
1.40001
1.40001
1.40001
1.40001
1.40001
1.40001
1.40001
1.40001
1.40001
1.40001
1.40001
1.40001
1.40001
1.40001
1.40001
1.40001
1.40001
1.40001
1.40001
1.40001
1.4766
4.36283
5.45477
5.39493
5.37727
5.37922
5.38845
5.39854
5.4088
5.41959
5.43063
5.44141
5.45151
5.46105
5.47001
5.47793
5.48389
5.48731
5.48811
5.48652
5.48276
5.47753
5.47232
5.46856
5.46591
5.46334
5.46083
5.45807
5.45435
5.44879
5.44024
5.42827
5.41306
5.39472
5.37298
5.34708
5.3165
5.28031
5.23747
5.18547
5.12108
5.04194
4.94674
4.84007
4.76199
1.40001
1.40001
1.40001
1.40001
1.40001
1.40001
1.40001
1.40001
1.40001
1.40001
1.40001
1.40001
1.40001
1.40001
1.40001
1.40001
1.40001
1.40001
1.40001
1.40001
1.40001
1.40001
1.40001
1.40001
1.40001
1.40001
1.40001
1.40001
1.40001
1.40001
1.40001
1.40001
1.40001
1.40001
1.40001
1.40001
1.40001
1.40001
1.40001
1.40001
1.40001
1.40001
1.40001
1.40001
1.40001
1.40001
1.40001
1.40001
1.40001
1.40001
1.40001
1.4007
3.80191
5.31179
5.3299
5.36408
5.3777
5.38781
5.39624
5.40255
5.40906
5.41629
5.42431
5.4327
5.44137
5.45001
5.45804
5.46511
5.47022
5.47243
5.47173
5.46779
5.46162
5.45417
5.44722
5.44141
5.43598
5.43017
5.42427
5.41777
5.40982
5.39925
5.3851
5.36722
5.34545
5.31941
5.28811
5.2506
5.20531
5.15044
5.08249
4.9969
4.88202
4.70913
4.36039
3.45144
1.40001
1.40001
1.40001
1.40001
1.40001
1.40001
1.40001
1.40001
1.40001
1.40001
1.40001
1.40001
1.40001
1.40001
1.40001
1.40001
1.40001
1.40001
1.40001
1.40001
1.40001
1.40001
1.40001
1.40001
1.40001
1.40001
1.40001
1.40001
1.40001
1.40001
1.40001
1.40001
1.40001
1.40001
1.40001
1.40001
1.40001
1.40001
1.40001
1.40001
1.40001
1.40001
1.40001
1.40001
1.40001
1.40001
1.40001
1.40001
1.40001
1.40001
1.40001
1.39999
3.17915
5.13435
5.30185
5.35053
5.36967
5.38171
5.39153
5.39805
5.4026
5.4063
5.41067
5.41592
5.42216
5.4294
5.43702
5.44402
5.44975
5.45338
5.45415
5.45093
5.44487
5.43633
5.42695
5.41802
5.40946
5.40055
5.39104
5.38119
5.37021
5.35708
5.34045
5.31972
5.29429
5.26367
5.22661
5.18171
5.12679
5.05891
4.97292
4.85893
4.69918
4.44156
4.03181
3.01797
1.40001
1.40001
1.40001
1.40001
1.40001
1.40001
1.40001
1.40001
1.40001
1.40001
1.40001
1.40001
1.40001
1.40001
1.40001
1.40001
1.40001
1.40001
1.40001
1.40001
1.40001
1.40001
1.40001
1.40001
1.40001
1.40001
1.40001
1.40001
1.40001
1.40001
1.40001
1.40001
1.40001
1.40001
1.40001
1.40001
1.40001
1.40001
1.40001
1.40001
1.40001
1.40001
1.40001
1.40001
1.40001
1.40001
1.40001
1.40001
1.40001
1.40001
1.40001
1.4
2.59421
4.95927
5.29999
5.33375
5.35931
5.37477
5.38259
5.38975
5.39508
5.39818
5.40031
5.40251
5.40556
5.41009
5.41601
5.42214
5.42731
5.43108
5.43291
5.43096
5.42559
5.41708
5.40653
5.39515
5.38366
5.37184
5.35874
5.34505
5.33036
5.3139
5.29426
5.27049
5.24137
5.20617
5.16329
5.11089
5.04618
4.96541
4.86143
4.72427
4.52723
4.25836
3.72025
2.88521
1.40001
1.40001
1.40001
1.40001
1.40001
1.40001
1.40001
1.40001
1.40001
1.40001
1.40001
1.40001
1.40001
1.40001
1.40001
1.40001
1.40001
1.40001
1.40001
1.40001
1.40001
1.40001
1.40001
1.40001
1.40001
1.40001
1.40001
1.40001
1.40001
1.40001
1.40001
1.40001
1.40001
1.40001
1.40001
1.40001
1.40001
1.40001
1.40001
1.40001
1.40001
1.40001
1.40001
1.40001
1.40001
1.40001
1.40001
1.40001
1.40001
1.40001
1.40001
1.4
2.00747
4.7608
5.36102
5.33969
5.34821
5.35998
5.37102
5.38021
5.38676
5.39069
5.39243
5.39283
5.39305
5.39412
5.39696
5.40096
5.40471
5.40764
5.4093
5.40829
5.40367
5.39579
5.38511
5.37243
5.35855
5.34385
5.32762
5.31004
5.29125
5.27091
5.24769
5.22046
5.18756
5.1478
5.09918
5.03965
4.96559
4.87341
4.75392
4.59916
4.37975
4.07155
3.54196
2.85983
1.40001
1.40001
1.40001
1.40001
1.40001
1.40001
1.40001
1.40001
1.40001
1.40001
1.40001
1.40001
1.40001
1.40001
1.40001
1.40001
1.40001
1.40001
1.40001
1.40001
1.40001
1.40001
1.40001
1.40001
1.40001
1.40001
1.40001
1.40001
1.40001
1.40001
1.40001
1.40001
1.40001
1.40001
1.40001
1.40001
1.40001
1.40001
1.40001
1.40001
1.40001
1.40001
1.40001
1.40001
1.40001
1.40001
1.40001
1.40001
1.40001
1.40001
1.40001
1.40001
1.49903
4.36009
5.40771
5.35695
5.34103
5.34726
5.35873
5.36762
5.37492
5.38003
5.38273
5.38324
5.38238
5.38107
5.38059
5.38137
5.38278
5.38392
5.38445
5.38325
5.37896
5.37147
5.3612
5.34832
5.33317
5.31629
5.29742
5.2764
5.25349
5.22879
5.20137
5.17005
5.13304
5.08891
5.03495
4.96915
4.88696
4.78511
4.65425
4.48418
4.2563
3.92838
3.45524
2.91017
1.40001
1.40001
1.40001
1.40001
1.40001
1.40001
1.40001
1.40001
1.40001
1.40001
1.40001
1.40001
1.40001
1.40001
1.40001
1.40001
1.40001
1.40001
1.40001
1.40001
1.40001
1.40001
1.40001
1.40001
1.40001
1.40001
1.40001
1.40001
1.40001
1.40001
1.40001
1.40001
1.40001
1.40001
1.40001
1.40001
1.40001
1.40001
1.40001
1.40001
1.40001
1.40001
1.40001
1.40001
1.40001
1.40001
1.40001
1.40001
1.40001
1.40001
1.40001
1.40001
1.40116
3.72333
5.24362
5.29074
5.32019
5.3335
5.34498
5.3534
5.36092
5.36676
5.37056
5.37198
5.37141
5.36924
5.36661
5.36428
5.36269
5.36151
5.36009
5.35761
5.35292
5.34538
5.33528
5.32252
5.30691
5.28865
5.26764
5.24381
5.21719
5.18814
5.1562
5.12049
5.0791
5.03057
4.97171
4.90054
4.81186
4.7023
4.56395
4.38584
4.15293
3.83509
3.42978
2.97944
1.40001
1.40001
1.40001
1.40001
1.40001
1.40001
1.40001
1.40001
1.40001
1.40001
1.40001
1.40001
1.40001
1.40001
1.40001
1.40001
1.40001
1.40001
1.40001
1.40001
1.40001
1.40001
1.40001
1.40001
1.40001
1.40001
1.40001
1.40001
1.40001
1.40001
1.40001
1.40001
1.40001
1.40001
1.40001
1.40001
1.40001
1.40001
1.40001
1.40001
1.40001
1.40001
1.40001
1.40001