/*--------------------------------*- C++ -*----------------------------------*\
  =========                 |
  \\      /  F ield         | OpenFOAM: The Open Source CFD Toolbox
   \\    /   O peration     | Website:  https://openfoam.org
    \\  /    A nd           | Version:  7
     \\/     M anipulation  |
\*---------------------------------------------------------------------------*/
FoamFile
{
    version     2.0;
    format      ascii;
    class       volVectorField;
    location    "3.2";
    object      U;
}
// * * * * * * * * * * * * * * * * * * * * * * * * * * * * * * * * * * * * * //

dimensions      [0 1 -1 0 0 0 0];

internalField   nonuniform List<vector> 
64512
(
(3 -7.80274e-18 0)
(3 -4.27382e-17 0)
(3 -6.66449e-17 0)
(3 3.73304e-16 0)
(3 3.02022e-16 0)
(3 5.49182e-16 0)
(3 7.36982e-16 0)
(3 2.8669e-16 0)
(3 2.74868e-16 0)
(3 4.1515e-16 0)
(3 2.88442e-16 0)
(3 -9.3919e-17 0)
(3 1.15663e-16 0)
(3 1.46985e-16 0)
(3 2.80464e-16 0)
(3 -4.07506e-17 0)
(3 2.43563e-16 0)
(3 7.57191e-16 0)
(3 1.64736e-16 0)
(3 -8.14895e-16 0)
(3 -1.64349e-15 0)
(3 -1.33012e-15 0)
(3 -1.27513e-15 0)
(3 -4.51558e-16 0)
(3 5.74519e-16 0)
(3 9.95877e-16 0)
(3 1.72097e-16 0)
(3 -6.01997e-16 0)
(3 -1.15638e-15 0)
(3 -8.20385e-16 0)
(3 2.43931e-16 0)
(3 1.16932e-15 0)
(3 6.04398e-16 0)
(3 -3.04157e-16 0)
(3 -9.07204e-16 0)
(3 -4.2076e-16 0)
(3 1.23233e-16 0)
(3 4.58549e-16 0)
(3 7.72362e-17 0)
(3 -2.63496e-16 0)
(3 -6.43513e-16 0)
(3 -5.90753e-16 0)
(3 -3.31739e-16 0)
(3 4.11577e-16 0)
(3 5.7449e-16 0)
(3 8.19558e-16 0)
(3 7.07158e-16 0)
(3 8.87714e-16 0)
(3 4.57839e-16 0)
(1.1835 0.00433641 0)
(0.770835 0.00314187 0)
(0.751094 0.00689266 0)
(0.734138 0.00715923 0)
(0.716785 0.00698596 0)
(0.700304 0.00647669 0)
(0.685096 0.00596728 0)
(0.670974 0.00572996 0)
(0.657321 0.00578668 0)
(0.64353 0.00608025 0)
(0.629124 0.00656538 0)
(0.613816 0.00712393 0)
(0.597706 0.00748844 0)
(0.581479 0.00733648 0)
(0.566067 0.00673456 0)
(0.551704 0.00622706 0)
(0.537672 0.00620316 0)
(0.522926 0.00662365 0)
(0.506851 0.00724755 0)
(0.489597 0.00772048 0)
(0.472282 0.0076381 0)
(0.456301 0.00712167 0)
(0.441739 0.00689685 0)
(0.427405 0.00728276 0)
(0.41221 0.00786131 0)
(0.396219 0.00806168 0)
(0.379964 0.00792822 0)
(0.363628 0.00786139 0)
(0.347046 0.0079466 0)
(0.330404 0.00806122 0)
(0.313658 0.00814536 0)
(0.296784 0.00822368 0)
(0.2798 0.00832011 0)
(0.262687 0.0084328 0)
(0.245353 0.00853873 0)
(0.2278 0.00863745 0)
(0.210032 0.00874981 0)
(0.191996 0.0088956 0)
(0.173645 0.00906932 0)
(0.154957 0.00928153 0)
(0.135883 0.0095339 0)
(0.11637 0.00979575 0)
(0.096351 0.010074 0)
(0.0757025 0.0103513 0)
(0.0544927 0.0106089 0)
(0.0328309 0.0107146 0)
(0.0110571 0.0107964 0)
(3 -5.62094e-17 0)
(3 -3.7675e-16 0)
(3 -2.58968e-16 0)
(3 1.86885e-16 0)
(3 -2.1689e-17 0)
(3 6.57424e-18 0)
(3 7.37267e-17 0)
(3 -6.08826e-17 0)
(3 1.4422e-16 0)
(3 2.95109e-16 0)
(3 9.21345e-17 0)
(3 -2.67672e-16 0)
(3 -2.73312e-17 0)
(3 1.28943e-16 0)
(3 -5.45283e-18 0)
(3 -3.34796e-16 0)
(3 -1.30272e-16 0)
(3 5.27047e-16 0)
(3 -4.01685e-17 0)
(3 -9.61586e-16 0)
(3 -9.96031e-16 0)
(3 -5.13384e-16 0)
(3 -1.49154e-16 0)
(3 1.07948e-15 0)
(3 2.22289e-15 0)
(3 2.47104e-15 0)
(3 2.20842e-15 0)
(3 2.83924e-16 0)
(3 -6.26939e-16 0)
(3 -4.35578e-16 0)
(3 1.25706e-15 0)
(3 1.70674e-15 0)
(3 1.49705e-15 0)
(3 8.51922e-16 0)
(3 -1.89333e-16 0)
(3 8.96279e-16 0)
(3 1.54919e-15 0)
(3 1.22931e-15 0)
(3 2.07544e-16 0)
(3 -4.00961e-16 0)
(3 -6.47001e-16 0)
(3 -4.76786e-16 0)
(3 6.22875e-16 0)
(3 9.30348e-16 0)
(3 1.08842e-15 0)
(3 1.76457e-15 0)
(3 1.64168e-15 0)
(3 1.08751e-15 0)
(3 1.07037e-15 0)
(1.19054 0.019621 0)
(0.767842 0.0134651 0)
(0.747325 0.0190744 0)
(0.731388 0.0204433 0)
(0.714417 0.0204242 0)
(0.697937 0.0192971 0)
(0.682409 0.0178191 0)
(0.667896 0.0168862 0)
(0.653974 0.0168629 0)
(0.640102 0.0176474 0)
(0.625814 0.0190761 0)
(0.610785 0.020775 0)
(0.594976 0.0219748 0)
(0.57889 0.0217658 0)
(0.563374 0.0201987 0)
(0.548696 0.0186633 0)
(0.534346 0.0183917 0)
(0.519502 0.0194743 0)
(0.50358 0.0212418 0)
(0.486592 0.022631 0)
(0.469463 0.0224922 0)
(0.453498 0.02111 0)
(0.438715 0.0204569 0)
(0.424177 0.0215445 0)
(0.408904 0.0232596 0)
(0.392887 0.02389 0)
(0.376647 0.0235664 0)
(0.360313 0.0234161 0)
(0.343754 0.0236834 0)
(0.32717 0.0240181 0)
(0.310515 0.0242671 0)
(0.293756 0.0245158 0)
(0.276899 0.0248319 0)
(0.259924 0.0252037 0)
(0.242747 0.0255593 0)
(0.225376 0.0258921 0)
(0.207821 0.0262561 0)
(0.190032 0.0267109 0)
(0.171949 0.0272496 0)
(0.15354 0.0279117 0)
(0.134745 0.0287025 0)
(0.115508 0.0295201 0)
(0.0957618 0.0303836 0)
(0.0753764 0.0312422 0)
(0.0543769 0.0320492 0)
(0.0328488 0.0324194 0)
(0.0111013 0.0327562 0)
(3 -2.56102e-16 0)
(3 -3.79075e-16 0)
(3 -1.63732e-16 0)
(3 -1.03133e-16 0)
(3 -9.51071e-17 0)
(3 -1.17732e-17 0)
(3 -1.28607e-16 0)
(3 -8.9999e-17 0)
(3 1.34602e-16 0)
(3 8.40354e-17 0)
(3 -1.47402e-17 0)
(3 -2.77334e-16 0)
(3 -2.75847e-16 0)
(3 4.48415e-16 0)
(3 7.48463e-16 0)
(3 1.39518e-16 0)
(3 1.16429e-17 0)
(3 -2.52245e-16 0)
(3 2.40627e-17 0)
(3 -2.15323e-17 0)
(3 1.9247e-16 0)
(3 2.61179e-16 0)
(3 6.6215e-16 0)
(3 4.97278e-16 0)
(3 6.15872e-16 0)
(3 9.94516e-16 0)
(3 1.197e-15 0)
(3 3.16986e-16 0)
(3 -7.93491e-16 0)
(3 -1.11905e-15 0)
(3 -6.94532e-16 0)
(3 -6.35845e-16 0)
(3 -4.48734e-16 0)
(3 -8.71199e-17 0)
(3 3.53563e-16 0)
(3 8.92603e-16 0)
(3 1.7307e-15 0)
(3 1.71595e-15 0)
(3 9.90175e-16 0)
(3 5.2544e-16 0)
(3 3.57009e-16 0)
(3 7.32123e-16 0)
(3 1.7813e-15 0)
(3 1.55315e-15 0)
(3 1.30262e-15 0)
(3 1.69875e-15 0)
(3 1.41072e-15 0)
(3 1.13477e-15 0)
(3 1.69106e-15 0)
(1.20978 0.0332845 0)
(0.768682 0.0238029 0)
(0.74784 0.0315871 0)
(0.732432 0.0339381 0)
(0.715597 0.034198 0)
(0.698997 0.0327279 0)
(0.682927 0.0305095 0)
(0.667649 0.0289101 0)
(0.653028 0.0286657 0)
(0.638697 0.0297271 0)
(0.624278 0.0318499 0)
(0.609426 0.0344552 0)
(0.593927 0.0363383 0)
(0.578055 0.0361439 0)
(0.562521 0.0339062 0)
(0.547519 0.0316221 0)
(0.532709 0.0311857 0)
(0.517574 0.0328227 0)
(0.501649 0.0355589 0)
(0.484829 0.0377358 0)
(0.467837 0.0375862 0)
(0.451884 0.0354849 0)
(0.436815 0.0344479 0)
(0.421964 0.0361197 0)
(0.406489 0.0388058 0)
(0.390276 0.0397981 0)
(0.373869 0.0392934 0)
(0.357346 0.0390749 0)
(0.34062 0.0395087 0)
(0.323898 0.04002 0)
(0.307126 0.0403799 0)
(0.290271 0.0407448 0)
(0.273338 0.0412254 0)
(0.256316 0.0417991 0)
(0.239131 0.0423512 0)
(0.221805 0.0428742 0)
(0.204364 0.0434523 0)
(0.18677 0.0441775 0)
(0.168957 0.0450378 0)
(0.150878 0.0461041 0)
(0.132452 0.0473975 0)
(0.113607 0.0487544 0)
(0.094274 0.050215 0)
(0.074315 0.0516947 0)
(0.0537123 0.053114 0)
(0.0325231 0.0538277 0)
(0.0110291 0.0545196 0)
(3 1.16143e-16 0)
(3 4.28074e-16 0)
(3 1.10553e-16 0)
(3 7.47846e-17 0)
(3 3.85095e-16 0)
(3 8.86461e-16 0)
(3 1.01284e-15 0)
(3 8.8785e-16 0)
(3 4.04909e-16 0)
(3 -1.55299e-16 0)
(3 -1.30691e-16 0)
(3 -3.496e-17 0)
(3 -1.87072e-16 0)
(3 1.27533e-15 0)
(3 1.48236e-15 0)
(3 1.48423e-15 0)
(3 9.08798e-16 0)
(3 -8.68644e-17 0)
(3 2.1444e-16 0)
(3 2.82114e-16 0)
(3 -1.15035e-16 0)
(3 -4.43619e-16 0)
(3 -4.85225e-16 0)
(3 -8.56395e-16 0)
(3 -4.9412e-16 0)
(3 -4.00313e-16 0)
(3 -2.60205e-17 0)
(3 -4.78474e-16 0)
(3 -1.61513e-15 0)
(3 -2.13585e-15 0)
(3 -2.75201e-15 0)
(3 -2.65978e-15 0)
(3 -1.98316e-15 0)
(3 -7.99795e-16 0)
(3 -1.02292e-17 0)
(3 7.91144e-16 0)
(3 1.00963e-15 0)
(3 1.34153e-15 0)
(3 1.60233e-15 0)
(3 9.39536e-16 0)
(3 9.56406e-16 0)
(3 1.34403e-15 0)
(3 1.6429e-15 0)
(3 1.93186e-15 0)
(3 1.73799e-15 0)
(3 8.26473e-16 0)
(3 3.39035e-17 0)
(3 2.47892e-16 0)
(3 3.14848e-16 0)
(1.23729 0.0460604 0)
(0.769478 0.0342097 0)
(0.74861 0.0434514 0)
(0.734111 0.0468958 0)
(0.717607 0.0475435 0)
(0.701076 0.0461582 0)
(0.684673 0.0435783 0)
(0.66888 0.0413401 0)
(0.653805 0.0407451 0)
(0.63924 0.0419162 0)
(0.624852 0.0445134 0)
(0.610284 0.0477984 0)
(0.595158 0.0502424 0)
(0.579542 0.0501991 0)
(0.564034 0.0476226 0)
(0.548796 0.0448623 0)
(0.533626 0.0443466 0)
(0.518271 0.0464414 0)
(0.502394 0.0499591 0)
(0.485758 0.052779 0)
(0.468868 0.0526996 0)
(0.452848 0.0500926 0)
(0.43741 0.0487749 0)
(0.422194 0.0509643 0)
(0.406497 0.0545246 0)
(0.390045 0.055907 0)
(0.373392 0.0553243 0)
(0.356572 0.0551151 0)
(0.339561 0.0557404 0)
(0.322564 0.056427 0)
(0.305512 0.0568871 0)
(0.288365 0.0573481 0)
(0.271129 0.0579562 0)
(0.253809 0.058677 0)
(0.236351 0.0593585 0)
(0.218801 0.0599977 0)
(0.201212 0.0607049 0)
(0.183571 0.0616031 0)
(0.165825 0.0626792 0)
(0.14792 0.0640441 0)
(0.129766 0.0657508 0)
(0.111274 0.0675833 0)
(0.0923643 0.069615 0)
(0.0728826 0.0717258 0)
(0.0527676 0.0738071 0)
(0.0320157 0.0749412 0)
(0.0108976 0.0760893 0)
(3 1.03882e-16 0)
(3 2.73337e-16 0)
(3 1.558e-17 0)
(3 -1.98351e-16 0)
(3 -4.51567e-16 0)
(3 -5.67266e-16 0)
(3 8.47678e-17 0)
(3 6.2865e-16 0)
(3 5.87645e-17 0)
(3 -8.90654e-16 0)
(3 -1.22659e-15 0)
(3 -3.65593e-16 0)
(3 2.97868e-16 0)
(3 8.07827e-16 0)
(3 1.09461e-15 0)
(3 1.51961e-15 0)
(3 1.3908e-15 0)
(3 7.79738e-16 0)
(3 -5.91046e-16 0)
(3 -1.46711e-15 0)
(3 -1.49861e-15 0)
(3 -1.82817e-15 0)
(3 -1.44784e-15 0)
(3 -6.6046e-17 0)
(3 2.67296e-17 0)
(3 -1.69764e-16 0)
(3 -2.89043e-16 0)
(3 -4.84971e-17 0)
(3 -3.09078e-16 0)
(3 -5.21576e-16 0)
(3 -3.03072e-16 0)
(3 -4.04232e-17 0)
(3 2.30914e-16 0)
(3 4.19521e-16 0)
(3 1.17226e-15 0)
(3 1.37635e-15 0)
(3 1.52244e-15 0)
(3 1.94839e-15 0)
(3 1.72347e-15 0)
(3 1.63289e-15 0)
(3 1.30546e-15 0)
(3 1.14023e-15 0)
(3 4.33696e-16 0)
(3 3.3673e-16 0)
(3 2.8044e-16 0)
(3 7.64735e-17 0)
(3 3.68566e-17 0)
(3 3.12704e-17 0)
(3 1.96538e-15 0)
(1.27426 0.0586788 0)
(0.770917 0.0446126 0)
(0.749163 0.0547646 0)
(0.735275 0.0595665 0)
(0.718737 0.0607855 0)
(0.702076 0.0598293 0)
(0.685261 0.0571941 0)
(0.668962 0.0543041 0)
(0.653488 0.0530902 0)
(0.638799 0.0540981 0)
(0.624575 0.0569372 0)
(0.610411 0.0607333 0)
(0.595758 0.0637114 0)
(0.580479 0.064014 0)
(0.565093 0.0614175 0)
(0.549792 0.0583743 0)
(0.534477 0.0577651 0)
(0.519118 0.0601638 0)
(0.503505 0.0642777 0)
(0.487235 0.0676537 0)
(0.470541 0.0677877 0)
(0.454504 0.0648829 0)
(0.438808 0.0632977 0)
(0.423375 0.0658533 0)
(0.407658 0.0701537 0)
(0.391173 0.0719634 0)
(0.374452 0.0714356 0)
(0.357488 0.0713388 0)
(0.34032 0.0722036 0)
(0.323146 0.0730979 0)
(0.305874 0.0736946 0)
(0.28845 0.0742886 0)
(0.270874 0.0750513 0)
(0.25317 0.0759331 0)
(0.235305 0.0767462 0)
(0.217345 0.0774891 0)
(0.199374 0.0782858 0)
(0.181417 0.0792778 0)
(0.163449 0.0804504 0)
(0.145437 0.081961 0)
(0.127305 0.0839226 0)
(0.108965 0.0860875 0)
(0.0903453 0.0885913 0)
(0.0712643 0.091278 0)
(0.0516431 0.0940302 0)
(0.0313635 0.0956371 0)
(0.0107133 0.0973202 0)
(3 -2.08647e-18 0)
(3 2.24086e-17 0)
(3 2.67626e-16 0)
(3 2.51755e-16 0)
(3 -4.7775e-16 0)
(3 -5.96577e-16 0)
(3 -2.60334e-16 0)
(3 1.26252e-16 0)
(3 -5.47347e-16 0)
(3 -5.24712e-16 0)
(3 -4.82463e-16 0)
(3 -3.21459e-16 0)
(3 1.99224e-17 0)
(3 3.39464e-16 0)
(3 1.02927e-15 0)
(3 1.42041e-15 0)
(3 3.35571e-16 0)
(3 -1.34013e-16 0)
(3 -1.89767e-15 0)
(3 -3.57337e-15 0)
(3 -3.28558e-15 0)
(3 -1.53986e-15 0)
(3 -3.07596e-17 0)
(3 2.40367e-16 0)
(3 1.62202e-17 0)
(3 -5.36113e-16 0)
(3 -5.59968e-16 0)
(3 -9.97524e-17 0)
(3 -4.23739e-16 0)
(3 -6.59119e-16 0)
(3 -2.11779e-16 0)
(3 7.04888e-16 0)
(3 6.06865e-16 0)
(3 9.77267e-16 0)
(3 8.78911e-16 0)
(3 7.30792e-16 0)
(3 8.5993e-16 0)
(3 6.7502e-16 0)
(3 -4.13859e-17 0)
(3 4.46526e-16 0)
(3 4.08167e-18 0)
(3 -2.05642e-16 0)
(3 -3.08853e-16 0)
(3 -5.96751e-17 0)
(3 3.671e-16 0)
(3 1.2662e-15 0)
(3 1.11582e-15 0)
(3 8.8313e-16 0)
(3 -2.06614e-15 0)
(1.32221 0.0713807 0)
(0.773402 0.0553537 0)
(0.749566 0.0656889 0)
(0.73623 0.0720028 0)
(0.719516 0.0739234 0)
(0.702752 0.0736315 0)
(0.685622 0.0711917 0)
(0.668942 0.0677268 0)
(0.65313 0.065661 0)
(0.638305 0.0662199 0)
(0.624191 0.0690763 0)
(0.610345 0.0732442 0)
(0.596085 0.0767804 0)
(0.581093 0.0776285 0)
(0.565818 0.0752884 0)
(0.550523 0.0720935 0)
(0.535164 0.0713513 0)
(0.519862 0.0738968 0)
(0.504507 0.0784468 0)
(0.48857 0.0823549 0)
(0.471996 0.0828852 0)
(0.455862 0.0798941 0)
(0.439921 0.0780114 0)
(0.424317 0.0807295 0)
(0.408704 0.0856061 0)
(0.392353 0.0878761 0)
(0.375722 0.0875432 0)
(0.358766 0.0876609 0)
(0.341574 0.088807 0)
(0.324339 0.0899421 0)
(0.306945 0.0907181 0)
(0.289318 0.0914919 0)
(0.271459 0.0924503 0)
(0.253413 0.0935287 0)
(0.235163 0.0945077 0)
(0.216787 0.0953832 0)
(0.19839 0.0962791 0)
(0.180029 0.0973414 0)
(0.161711 0.0985435 0)
(0.143427 0.100082 0)
(0.12513 0.102143 0)
(0.106754 0.104461 0)
(0.088259 0.107275 0)
(0.0694509 0.110402 0)
(0.0502974 0.11377 0)
(0.0305163 0.115856 0)
(0.0104497 0.118107 0)
(3 -3.49301e-17 0)
(3 -1.56596e-16 0)
(3 5.55814e-17 0)
(3 4.15477e-16 0)
(3 5.15496e-16 0)
(3 1.43126e-16 0)
(3 -1.82617e-16 0)
(3 -2.19068e-16 0)
(3 -1.81928e-16 0)
(3 -1.59949e-16 0)
(3 -4.84516e-16 0)
(3 -1.1146e-15 0)
(3 -9.80217e-16 0)
(3 -4.05679e-16 0)
(3 5.55777e-17 0)
(3 -9.68993e-16 0)
(3 -1.52866e-15 0)
(3 -1.79677e-15 0)
(3 -2.13395e-15 0)
(3 -2.13734e-15 0)
(3 -1.33851e-15 0)
(3 -9.20043e-17 0)
(3 -1.76024e-16 0)
(3 -6.0328e-16 0)
(3 -1.20935e-15 0)
(3 -9.5739e-16 0)
(3 -1.21374e-15 0)
(3 -1.51479e-15 0)
(3 -1.43495e-15 0)
(3 -1.249e-15 0)
(3 -1.56197e-15 0)
(3 -1.54468e-15 0)
(3 -3.10888e-16 0)
(3 2.69795e-17 0)
(3 -6.87042e-17 0)
(3 -1.24286e-16 0)
(3 3.93711e-18 0)
(3 -3.82584e-16 0)
(3 -9.41293e-16 0)
(3 -1.45344e-15 0)
(3 -1.11832e-15 0)
(3 -9.02031e-16 0)
(3 -9.94524e-16 0)
(3 -7.21683e-16 0)
(3 -3.13392e-16 0)
(3 -2.84276e-17 0)
(3 4.5042e-17 0)
(3 4.59754e-16 0)
(3 -1.50425e-15 0)
(1.38268 0.0846892 0)
(0.776843 0.0668563 0)
(0.749749 0.0763265 0)
(0.737235 0.0841843 0)
(0.72037 0.0869548 0)
(0.703606 0.087514 0)
(0.686225 0.0854849 0)
(0.669169 0.0816406 0)
(0.652933 0.0785745 0)
(0.6378 0.0783889 0)
(0.62365 0.081046 0)
(0.610017 0.0854589 0)
(0.596108 0.0895726 0)
(0.581399 0.0911158 0)
(0.566239 0.0892495 0)
(0.55099 0.0860011 0)
(0.535643 0.0850365 0)
(0.520431 0.0876053 0)
(0.505317 0.0924655 0)
(0.489695 0.0968923 0)
(0.473215 0.0979885 0)
(0.456922 0.0951128 0)
(0.44073 0.0928894 0)
(0.424917 0.0955432 0)
(0.409417 0.100819 0)
(0.393264 0.103577 0)
(0.3768 0.103582 0)
(0.359952 0.104022 0)
(0.342842 0.105496 0)
(0.325646 0.106914 0)
(0.308232 0.107922 0)
(0.29051 0.108933 0)
(0.272477 0.110139 0)
(0.2542 0.111463 0)
(0.235675 0.112656 0)
(0.216985 0.113707 0)
(0.198249 0.114727 0)
(0.179547 0.115862 0)
(0.160903 0.117068 0)
(0.142328 0.11857 0)
(0.123793 0.120623 0)
(0.105253 0.122932 0)
(0.086717 0.125873 0)
(0.0679759 0.129235 0)
(0.0491349 0.133079 0)
(0.0297277 0.135575 0)
(0.0101913 0.138355 0)
(3 1.35946e-17 0)
(3 -2.58292e-16 0)
(3 -8.21227e-16 0)
(3 -9.1464e-16 0)
(3 -1.01836e-15 0)
(3 -1.49977e-15 0)
(3 -1.06814e-15 0)
(3 -7.58672e-16 0)
(3 3.6043e-16 0)
(3 5.82799e-16 0)
(3 3.08929e-16 0)
(3 -2.20522e-16 0)
(3 -3.74764e-16 0)
(3 2.43122e-16 0)
(3 -8.50872e-16 0)
(3 -1.68849e-15 0)
(3 -2.33107e-15 0)
(3 -2.29837e-15 0)
(3 -1.28903e-15 0)
(3 5.58837e-16 0)
(3 3.12019e-16 0)
(3 -5.69443e-16 0)
(3 -1.23456e-15 0)
(3 -1.89792e-15 0)
(3 -1.71077e-15 0)
(3 -1.71236e-15 0)
(3 -1.65803e-15 0)
(3 -1.42901e-15 0)
(3 -1.10256e-15 0)
(3 -8.2606e-16 0)
(3 -7.50673e-16 0)
(3 -1.51272e-15 0)
(3 -1.42924e-15 0)
(3 -1.55153e-15 0)
(3 -1.31886e-15 0)
(3 -7.17891e-16 0)
(3 -2.40912e-16 0)
(3 5.06825e-16 0)
(3 1.5138e-16 0)
(3 -7.16054e-16 0)
(3 -8.7033e-16 0)
(3 -1.04435e-15 0)
(3 -1.1882e-15 0)
(3 -1.323e-15 0)
(3 -1.51185e-15 0)
(3 -1.52041e-15 0)
(3 -3.79853e-16 0)
(3 6.06072e-16 0)
(3 -3.09135e-15 0)
(1.45852 0.0987905 0)
(0.782392 0.0799912 0)
(0.748659 0.0864695 0)
(0.737255 0.0957975 0)
(0.720668 0.0994202 0)
(0.704398 0.101173 0)
(0.687149 0.0998965 0)
(0.669937 0.0960135 0)
(0.653343 0.0920246 0)
(0.637772 0.0908279 0)
(0.623408 0.0930215 0)
(0.60986 0.0975072 0)
(0.596247 0.10216 0)
(0.581809 0.104484 0)
(0.56675 0.103258 0)
(0.551551 0.100051 0)
(0.536249 0.0987744 0)
(0.521183 0.101213 0)
(0.506385 0.106237 0)
(0.491167 0.111157 0)
(0.47492 0.112982 0)
(0.458586 0.110452 0)
(0.442271 0.10789 0)
(0.426304 0.110268 0)
(0.410958 0.115743 0)
(0.395078 0.118967 0)
(0.378859 0.119406 0)
(0.362218 0.120244 0)
(0.345291 0.122068 0)
(0.328231 0.123796 0)
(0.310901 0.125086 0)
(0.293195 0.126394 0)
(0.275111 0.127909 0)
(0.256735 0.129541 0)
(0.238071 0.131011 0)
(0.219201 0.132293 0)
(0.200245 0.133482 0)
(0.181292 0.134723 0)
(0.16237 0.135961 0)
(0.143491 0.137435 0)
(0.124635 0.139464 0)
(0.105767 0.141693 0)
(0.0869491 0.14465 0)
(0.067947 0.148087 0)
(0.0490268 0.152251 0)
(0.0295823 0.155061 0)
(0.0101492 0.158297 0)
(3 1.26435e-16 0)
(3 4.74001e-17 0)
(3 3.02492e-17 0)
(3 -1.05329e-16 0)
(3 -4.86891e-16 0)
(3 -5.83862e-16 0)
(3 -9.18982e-16 0)
(3 -9.80819e-16 0)
(3 -4.65169e-16 0)
(3 1.00637e-15 0)
(3 1.57922e-15 0)
(3 1.47199e-15 0)
(3 3.54427e-16 0)
(3 -3.83197e-16 0)
(3 -1.36538e-15 0)
(3 -1.92684e-15 0)
(3 -1.88904e-15 0)
(3 -1.60375e-15 0)
(3 4.23409e-16 0)
(3 1.31488e-15 0)
(3 6.05384e-16 0)
(3 -4.64591e-16 0)
(3 -8.45101e-16 0)
(3 -1.02248e-15 0)
(3 -8.99279e-16 0)
(3 -1.25322e-15 0)
(3 -1.12211e-15 0)
(3 -3.14013e-16 0)
(3 3.93535e-16 0)
(3 6.76317e-16 0)
(3 3.08929e-16 0)
(3 -6.69905e-16 0)
(3 -1.63241e-15 0)
(3 -1.71921e-15 0)
(3 -1.76631e-15 0)
(3 -2.13524e-15 0)
(3 -1.88764e-15 0)
(3 -1.66291e-15 0)
(3 -1.87501e-15 0)
(3 -2.41796e-15 0)
(3 -2.4341e-15 0)
(3 -2.05606e-15 0)
(3 -1.44529e-15 0)
(3 -1.37917e-15 0)
(3 -1.19909e-15 0)
(3 -1.20119e-15 0)
(3 -3.33246e-16 0)
(3 2.41473e-16 0)
(3 -2.97764e-15 0)
(1.5521 0.113349 0)
(0.789756 0.095377 0)
(0.747955 0.0972868 0)
(0.736719 0.107094 0)
(0.720121 0.111351 0)
(0.704397 0.114301 0)
(0.687546 0.114011 0)
(0.67051 0.110519 0)
(0.653863 0.105955 0)
(0.637983 0.103668 0)
(0.623327 0.105155 0)
(0.609746 0.109526 0)
(0.596334 0.114635 0)
(0.582095 0.117775 0)
(0.56705 0.117323 0)
(0.55178 0.114273 0)
(0.536416 0.112561 0)
(0.521382 0.114642 0)
(0.506819 0.119663 0)
(0.49202 0.125069 0)
(0.476086 0.127765 0)
(0.459763 0.125837 0)
(0.443405 0.123007 0)
(0.427303 0.124948 0)
(0.412075 0.130448 0)
(0.396444 0.134106 0)
(0.380454 0.135053 0)
(0.364046 0.136339 0)
(0.347359 0.138514 0)
(0.330524 0.140553 0)
(0.313409 0.142148 0)
(0.295889 0.14379 0)
(0.277946 0.145656 0)
(0.259662 0.147641 0)
(0.241033 0.149445 0)
(0.222126 0.151017 0)
(0.203057 0.152434 0)
(0.183923 0.153837 0)
(0.16475 0.155168 0)
(0.145555 0.156669 0)
(0.126333 0.158712 0)
(0.107064 0.160857 0)
(0.087854 0.163782 0)
(0.0685124 0.167203 0)
(0.0493442 0.171574 0)
(0.0297148 0.174631 0)
(0.0101923 0.178267 0)
(3 -1.33669e-16 0)
(3 -2.04798e-17 0)
(3 1.95047e-16 0)
(3 4.24376e-16 0)
(3 9.1231e-16 0)
(3 9.70373e-16 0)
(3 5.34761e-16 0)
(3 4.88555e-18 0)
(3 -5.80235e-16 0)
(3 -4.17651e-16 0)
(3 -2.58084e-16 0)
(3 -2.60506e-16 0)
(3 2.11225e-16 0)
(3 -2.79152e-16 0)
(3 -8.75589e-16 0)
(3 -9.43223e-16 0)
(3 -3.37631e-16 0)
(3 -3.01519e-16 0)
(3 8.53264e-16 0)
(3 8.92642e-16 0)
(3 8.07178e-16 0)
(3 6.73234e-16 0)
(3 2.33866e-16 0)
(3 5.65045e-16 0)
(3 2.99258e-16 0)
(3 -1.16215e-16 0)
(3 -1.5989e-16 0)
(3 -1.40222e-16 0)
(3 7.71734e-17 0)
(3 1.4167e-15 0)
(3 1.48632e-15 0)
(3 1.1856e-15 0)
(3 6.41873e-16 0)
(3 3.18351e-16 0)
(3 1.62413e-16 0)
(3 -1.48628e-15 0)
(3 -2.64865e-15 0)
(3 -3.03785e-15 0)
(3 -2.43342e-15 0)
(3 -1.95816e-15 0)
(3 -1.66522e-15 0)
(3 -1.16607e-15 0)
(3 -1.04442e-15 0)
(3 -7.19759e-16 0)
(3 -7.04826e-16 0)
(3 -8.21748e-16 0)
(3 -7.94533e-16 0)
(3 -8.773e-16 0)
(3 -8.14807e-16 0)
(1.66632 0.127885 0)
(0.800115 0.113065 0)
(0.747696 0.108103 0)
(0.736535 0.118185 0)
(0.72006 0.123477 0)
(0.704634 0.127099 0)
(0.688119 0.12777 0)
(0.671268 0.124926 0)
(0.654617 0.120195 0)
(0.638493 0.116957 0)
(0.623462 0.117538 0)
(0.609719 0.121596 0)
(0.596447 0.127043 0)
(0.582429 0.130997 0)
(0.567434 0.131426 0)
(0.552053 0.128721 0)
(0.536525 0.126525 0)
(0.521322 0.127992 0)
(0.506748 0.132809 0)
(0.492178 0.138667 0)
(0.476443 0.142323 0)
(0.459997 0.141248 0)
(0.443517 0.138289 0)
(0.427172 0.139682 0)
(0.411885 0.145046 0)
(0.396359 0.149078 0)
(0.380487 0.150557 0)
(0.364239 0.1523 0)
(0.347746 0.1548 0)
(0.33111 0.157127 0)
(0.314242 0.159041 0)
(0.296991 0.161052 0)
(0.279319 0.163315 0)
(0.261297 0.165709 0)
(0.242903 0.167909 0)
(0.224178 0.169842 0)
(0.205222 0.171556 0)
(0.186119 0.173195 0)
(0.166877 0.174697 0)
(0.147503 0.176297 0)
(0.128006 0.178409 0)
(0.108392 0.180493 0)
(0.0888089 0.183352 0)
(0.0691391 0.186676 0)
(0.0497126 0.191153 0)
(0.0298907 0.194366 0)
(0.010247 0.198331 0)
(3 -1.56575e-16 0)
(3 -2.1126e-16 0)
(3 -2.7322e-16 0)
(3 -1.54588e-16 0)
(3 4.90667e-16 0)
(3 8.76769e-16 0)
(3 7.4222e-16 0)
(3 2.95366e-16 0)
(3 -4.93882e-16 0)
(3 -7.34214e-16 0)
(3 -1.06668e-15 0)
(3 -1.01142e-15 0)
(3 -4.35623e-16 0)
(3 -3.50364e-16 0)
(3 -9.09073e-17 0)
(3 -3.98973e-16 0)
(3 3.89478e-16 0)
(3 1.00445e-15 0)
(3 7.074e-16 0)
(3 2.55296e-16 0)
(3 4.51213e-16 0)
(3 5.0624e-16 0)
(3 3.56968e-16 0)
(3 -2.83517e-17 0)
(3 -5.74705e-16 0)
(3 -6.08479e-16 0)
(3 -4.70638e-16 0)
(3 -4.27906e-16 0)
(3 -1.36195e-17 0)
(3 2.08462e-16 0)
(3 1.67675e-15 0)
(3 3.49933e-15 0)
(3 2.57861e-15 0)
(3 1.76451e-15 0)
(3 4.78826e-16 0)
(3 -8.55418e-16 0)
(3 -2.72231e-15 0)
(3 -3.14065e-15 0)
(3 -2.18786e-15 0)
(3 -8.37217e-16 0)
(3 -1.11342e-15 0)
(3 -7.98546e-16 0)
(3 -1.12379e-15 0)
(3 -1.22495e-15 0)
(3 -9.36491e-16 0)
(3 -6.78388e-16 0)
(3 -9.10944e-16 0)
(3 -1.08331e-15 0)
(3 -5.05422e-15 0)
(1.80316 0.140544 0)
(0.814685 0.13272 0)
(0.748806 0.11944 0)
(0.737182 0.128785 0)
(0.72146 0.134978 0)
(0.706478 0.139924 0)
(0.690237 0.141381 0)
(0.673595 0.139289 0)
(0.656921 0.134755 0)
(0.640575 0.130795 0)
(0.625099 0.130401 0)
(0.610994 0.133909 0)
(0.597731 0.139479 0)
(0.583987 0.144151 0)
(0.569216 0.14552 0)
(0.553847 0.14341 0)
(0.538193 0.140847 0)
(0.522745 0.141532 0)
(0.508018 0.145978 0)
(0.493591 0.152219 0)
(0.478017 0.156838 0)
(0.46151 0.15682 0)
(0.444964 0.153908 0)
(0.428451 0.154706 0)
(0.413067 0.159774 0)
(0.397594 0.164069 0)
(0.381773 0.166047 0)
(0.365586 0.168204 0)
(0.349154 0.170967 0)
(0.332566 0.173514 0)
(0.315812 0.175713 0)
(0.298712 0.178077 0)
(0.281214 0.180731 0)
(0.263375 0.183544 0)
(0.245155 0.186177 0)
(0.226567 0.188533 0)
(0.207686 0.190631 0)
(0.188575 0.192611 0)
(0.16922 0.194403 0)
(0.149614 0.196219 0)
(0.129789 0.198496 0)
(0.10978 0.200579 0)
(0.0897805 0.20337 0)
(0.069758 0.206532 0)
(0.0500587 0.211023 0)
(0.0300454 0.214295 0)
(0.01029 0.218503 0)
(3 1.13809e-16 0)
(3 -6.07611e-16 0)
(3 -3.75093e-16 0)
(3 -7.17569e-17 0)
(3 -1.1332e-16 0)
(3 -3.41293e-17 0)
(3 1.18918e-16 0)
(3 2.59337e-17 0)
(3 -3.02578e-16 0)
(3 -5.70019e-16 0)
(3 -2.20091e-16 0)
(3 -1.15047e-16 0)
(3 -4.77017e-16 0)
(3 -6.5674e-16 0)
(3 -2.86737e-16 0)
(3 -4.59335e-17 0)
(3 6.29063e-16 0)
(3 9.36582e-16 0)
(3 5.75217e-16 0)
(3 1.63648e-16 0)
(3 2.01408e-16 0)
(3 8.98864e-17 0)
(3 -1.75407e-16 0)
(3 -8.18066e-16 0)
(3 -8.455e-16 0)
(3 -1.07412e-15 0)
(3 -5.67768e-16 0)
(3 1.7852e-16 0)
(3 6.72598e-16 0)
(3 6.57432e-16 0)
(3 9.07667e-16 0)
(3 5.2386e-16 0)
(3 6.6771e-16 0)
(3 2.31999e-16 0)
(3 -7.79635e-16 0)
(3 -1.61611e-15 0)
(3 -1.99589e-15 0)
(3 -2.58293e-15 0)
(3 -2.38329e-15 0)
(3 -2.20491e-15 0)
(3 -2.33502e-15 0)
(3 -2.52525e-15 0)
(3 -2.583e-15 0)
(3 -2.69676e-15 0)
(3 -2.29415e-15 0)
(3 -1.6853e-15 0)
(3 -1.54755e-15 0)
(3 -1.2667e-15 0)
(3 -2.27508e-15 0)
(1.95893 0.150601 0)
(0.832352 0.154044 0)
(0.751312 0.131789 0)
(0.73778 0.139281 0)
(0.722803 0.146023 0)
(0.708948 0.15184 0)
(0.693745 0.154267 0)
(0.677929 0.15302 0)
(0.661699 0.149057 0)
(0.645381 0.144716 0)
(0.629553 0.143362 0)
(0.615068 0.14616 0)
(0.601783 0.151585 0)
(0.588348 0.156734 0)
(0.573859 0.158998 0)
(0.558484 0.157748 0)
(0.542633 0.155143 0)
(0.526859 0.155006 0)
(0.511873 0.158937 0)
(0.497518 0.165453 0)
(0.482211 0.171006 0)
(0.465763 0.17219 0)
(0.44921 0.169538 0)
(0.432574 0.169775 0)
(0.416977 0.174467 0)
(0.401368 0.178984 0)
(0.385353 0.181503 0)
(0.368932 0.184133 0)
(0.352215 0.1872 0)
(0.335302 0.189986 0)
(0.318292 0.19248 0)
(0.300997 0.195195 0)
(0.28336 0.198223 0)
(0.265439 0.201433 0)
(0.247195 0.204495 0)
(0.228614 0.207296 0)
(0.209737 0.209826 0)
(0.1906 0.212217 0)
(0.171151 0.214384 0)
(0.151362 0.216496 0)
(0.131277 0.219005 0)
(0.110946 0.221127 0)
(0.0905961 0.223844 0)
(0.0702725 0.226778 0)
(0.0503329 0.23119 0)
(0.0301552 0.234417 0)
(0.0103179 0.238778 0)
(3 4.36898e-17 0)
(3 4.9628e-17 0)
(3 -1.96404e-17 0)
(3 2.80632e-17 0)
(3 -6.3402e-17 0)
(3 1.46102e-16 0)
(3 3.25447e-16 0)
(3 6.60968e-16 0)
(3 3.60162e-16 0)
(3 -2.57964e-16 0)
(3 -3.79789e-16 0)
(3 -4.22831e-17 0)
(3 -1.08967e-16 0)
(3 5.9478e-18 0)
(3 1.03001e-16 0)
(3 6.5579e-16 0)
(3 6.17922e-16 0)
(3 5.50201e-16 0)
(3 7.2606e-16 0)
(3 4.74033e-16 0)
(3 -2.6606e-16 0)
(3 2.59653e-16 0)
(3 3.8759e-16 0)
(3 -1.14382e-16 0)
(3 -1.74375e-16 0)
(3 1.53506e-16 0)
(3 2.82697e-16 0)
(3 4.95536e-16 0)
(3 5.25733e-16 0)
(3 1.01343e-15 0)
(3 2.78403e-16 0)
(3 -1.43031e-15 0)
(3 -1.44831e-15 0)
(3 -1.03805e-15 0)
(3 -1.0736e-15 0)
(3 -1.08105e-15 0)
(3 -1.70086e-15 0)
(3 -2.66056e-15 0)
(3 -3.08459e-15 0)
(3 -2.97352e-15 0)
(3 -1.81632e-15 0)
(3 -1.96307e-15 0)
(3 -1.92423e-15 0)
(3 -1.93825e-15 0)
(3 -1.91836e-15 0)
(3 -1.08404e-15 0)
(3 -7.50687e-16 0)
(3 -4.14026e-16 0)
(3 -3.52871e-15 0)
(2.13014 0.157937 0)
(0.851588 0.176187 0)
(0.752732 0.146749 0)
(0.73675 0.150897 0)
(0.722054 0.157015 0)
(0.708727 0.16312 0)
(0.694267 0.166845 0)
(0.678886 0.166663 0)
(0.662732 0.163591 0)
(0.646258 0.159425 0)
(0.630044 0.157156 0)
(0.615081 0.158867 0)
(0.601729 0.163836 0)
(0.588761 0.169372 0)
(0.574901 0.172595 0)
(0.560054 0.172341 0)
(0.544598 0.169928 0)
(0.529041 0.168857 0)
(0.514215 0.171938 0)
(0.500364 0.178478 0)
(0.485903 0.184902 0)
(0.469942 0.187346 0)
(0.453626 0.185234 0)
(0.437056 0.185072 0)
(0.421293 0.189405 0)
(0.405537 0.194138 0)
(0.389322 0.197223 0)
(0.372707 0.200364 0)
(0.355786 0.203766 0)
(0.338664 0.206792 0)
(0.321498 0.209557 0)
(0.304094 0.21258 0)
(0.286362 0.215922 0)
(0.268348 0.219465 0)
(0.250031 0.222908 0)
(0.231386 0.226136 0)
(0.212432 0.229112 0)
(0.193184 0.231957 0)
(0.173569 0.234565 0)
(0.153545 0.237052 0)
(0.13317 0.239862 0)
(0.112496 0.242081 0)
(0.0917595 0.244745 0)
(0.0710874 0.247419 0)
(0.0508281 0.251683 0)
(0.0303972 0.25478 0)
(0.0103905 0.259219 0)
(3 -1.0468e-16 0)
(3 2.25291e-16 0)
(3 1.99341e-16 0)
(3 1.57801e-16 0)
(3 6.31671e-17 0)
(3 2.31869e-16 0)
(3 5.64601e-16 0)
(3 8.59371e-16 0)
(3 1.11576e-15 0)
(3 1.02438e-15 0)
(3 1.8457e-16 0)
(3 -2.84717e-16 0)
(3 2.61609e-17 0)
(3 3.02866e-16 0)
(3 3.66945e-16 0)
(3 3.06412e-16 0)
(3 2.22275e-17 0)
(3 -2.63487e-16 0)
(3 -3.60111e-16 0)
(3 -2.40417e-16 0)
(3 -4.29315e-16 0)
(3 -1.40801e-16 0)
(3 4.84279e-16 0)
(3 1.10636e-15 0)
(3 1.03032e-15 0)
(3 1.11359e-15 0)
(3 7.01319e-16 0)
(3 -1.17058e-16 0)
(3 -5.14038e-16 0)
(3 -7.43164e-16 0)
(3 -4.00792e-16 0)
(3 -3.61898e-16 0)
(3 -1.36136e-15 0)
(3 -1.24789e-15 0)
(3 -1.20193e-15 0)
(3 -1.26539e-15 0)
(3 -1.40072e-15 0)
(3 -2.31567e-15 0)
(3 -2.79585e-15 0)
(3 -2.82474e-15 0)
(3 -2.41999e-15 0)
(3 -2.20224e-15 0)
(3 -1.7214e-15 0)
(3 -1.15566e-15 0)
(3 -1.21484e-15 0)
(3 -9.47735e-16 0)
(3 -6.02366e-16 0)
(3 -3.35028e-16 0)
(3 -3.79048e-15 0)
(2.32475 0.163104 0)
(0.880929 0.197729 0)
(0.759806 0.163654 0)
(0.741973 0.163796 0)
(0.72605 0.168681 0)
(0.712064 0.174819 0)
(0.697705 0.179334 0)
(0.682416 0.180628 0)
(0.666249 0.178505 0)
(0.649586 0.174679 0)
(0.633012 0.171593 0)
(0.617403 0.171955 0)
(0.603591 0.176011 0)
(0.590754 0.1815 0)
(0.577293 0.185449 0)
(0.562702 0.186254 0)
(0.547188 0.184483 0)
(0.531335 0.182757 0)
(0.516042 0.184757 0)
(0.502126 0.191054 0)
(0.48834 0.198317 0)
(0.472858 0.202118 0)
(0.456839 0.200854 0)
(0.440578 0.200486 0)
(0.424949 0.204467 0)
(0.409394 0.209347 0)
(0.393351 0.21293 0)
(0.37692 0.216576 0)
(0.360125 0.220352 0)
(0.343039 0.223668 0)
(0.325826 0.226752 0)
(0.308325 0.230133 0)
(0.290421 0.233825 0)
(0.272181 0.237719 0)
(0.253635 0.241555 0)
(0.234775 0.245221 0)
(0.215607 0.248661 0)
(0.196135 0.251984 0)
(0.176272 0.255075 0)
(0.155968 0.257985 0)
(0.135291 0.261142 0)
(0.114278 0.263498 0)
(0.0931476 0.266125 0)
(0.0721092 0.268521 0)
(0.0514806 0.272588 0)
(0.0307347 0.275489 0)
(0.0104952 0.279951 0)
(3 -1.68369e-16 0)
(3 -1.30544e-16 0)
(3 -1.10214e-16 0)
(3 -1.20804e-16 0)
(3 -4.05685e-16 0)
(3 -3.30294e-16 0)
(3 3.36314e-17 0)
(3 1.50923e-17 0)
(3 6.57191e-17 0)
(3 -7.76156e-17 0)
(3 -9.44954e-17 0)
(3 -6.58969e-16 0)
(3 -3.27333e-16 0)
(3 -3.91946e-16 0)
(3 -8.10838e-16 0)
(3 -1.73053e-15 0)
(3 -1.54137e-15 0)
(3 -1.76069e-15 0)
(3 -1.95886e-15 0)
(3 -2.22868e-15 0)
(3 -1.15953e-15 0)
(3 -8.40929e-16 0)
(3 -5.09994e-16 0)
(3 1.56604e-15 0)
(3 2.88097e-15 0)
(3 2.2377e-15 0)
(3 1.67555e-15 0)
(3 4.98126e-16 0)
(3 -4.94722e-16 0)
(3 -9.95125e-16 0)
(3 -8.32445e-16 0)
(3 -3.389e-16 0)
(3 -1.55818e-15 0)
(3 -1.34469e-15 0)
(3 -1.30812e-15 0)
(3 -1.07931e-15 0)
(3 -7.07175e-16 0)
(3 -3.49198e-16 0)
(3 -8.34891e-16 0)
(3 -1.67667e-15 0)
(3 -2.69643e-15 0)
(3 -2.85391e-15 0)
(3 -2.87032e-15 0)
(3 -2.48542e-15 0)
(3 -1.61318e-15 0)
(3 -1.31507e-15 0)
(3 -1.33087e-15 0)
(3 -1.01086e-15 0)
(3 -4.4188e-16 0)
(2.53705 0.159521 0)
(0.923344 0.215015 0)
(0.773595 0.179448 0)
(0.755587 0.177668 0)
(0.737885 0.181275 0)
(0.722948 0.186916 0)
(0.708013 0.191562 0)
(0.692365 0.194091 0)
(0.675682 0.193568 0)
(0.658582 0.190303 0)
(0.641376 0.186796 0)
(0.624758 0.18585 0)
(0.609713 0.188768 0)
(0.59603 0.193973 0)
(0.58207 0.198577 0)
(0.56693 0.200571 0)
(0.550661 0.199774 0)
(0.533968 0.197711 0)
(0.517747 0.198292 0)
(0.503184 0.20374 0)
(0.489754 0.211462 0)
(0.474803 0.216497 0)
(0.459082 0.216216 0)
(0.443202 0.215738 0)
(0.427828 0.21936 0)
(0.412612 0.224334 0)
(0.39689 0.228379 0)
(0.38082 0.232577 0)
(0.364337 0.236848 0)
(0.347456 0.240595 0)
(0.330324 0.244112 0)
(0.312846 0.24794 0)
(0.294892 0.252035 0)
(0.276546 0.256295 0)
(0.257881 0.260514 0)
(0.238892 0.264604 0)
(0.219555 0.268496 0)
(0.199859 0.272304 0)
(0.179719 0.275909 0)
(0.159095 0.279289 0)
(0.13808 0.282839 0)
(0.116692 0.285381 0)
(0.0951135 0.288002 0)
(0.0736281 0.290134 0)
(0.052515 0.293991 0)