/*--------------------------------*- C++ -*----------------------------------*\
  =========                 |
  \\      /  F ield         | OpenFOAM: The Open Source CFD Toolbox
   \\    /   O peration     | Website:  https://openfoam.org
    \\  /    A nd           | Version:  7
     \\/     M anipulation  |
\*---------------------------------------------------------------------------*/
FoamFile
{
    version     2.0;
    format      ascii;
    class       volScalarField;
    location    "3.7";
    object      p;
}
// * * * * * * * * * * * * * * * * * * * * * * * * * * * * * * * * * * * * * //

dimensions      [1 -1 -2 0 0 0 0];

internalField   nonuniform List<scalar> 
16128
(
1
1
1
1
1
1
1
1
1
1
1
1
1
1
1
1
1
1
1
1
1
1
1
1
4.5451
10.2134
10.5117
10.6062
10.7231
10.831
10.9352
11.0349
11.131
11.2229
11.3111
11.3963
11.4768
11.5514
11.6211
11.6873
11.7491
11.8057
11.8572
11.9033
11.9434
11.9752
11.9989
12.0158
1
1
1
1
1
1
1
1
1
1
1
1
1
1
1
1
1
1
1
1
1
1
1
1
4.4648
10.1656
10.5076
10.604
10.7207
10.8281
10.9316
11.0306
11.126
11.2174
11.3049
11.3896
11.4695
11.5434
11.6124
11.6777
11.7386
11.7942
11.8447
11.8901
11.9295
11.9609
11.9844
12.0013
1
1
1
1
1
1
1
1
1
1
1
1
1
1
1
1
1
1
1
1
1
1
1
1
4.29064
10.1072
10.4968
10.5933
10.7103
10.818
10.9215
11.0203
11.1153
11.2063
11.2934
11.3776
11.457
11.5305
11.599
11.6636
11.7235
11.7778
11.8268
11.8704
11.9081
11.9381
11.9605
11.9767
1
1
1
1
1
1
1
1
1
1
1
1
1
1
1
1
1
1
1
1
1
1
1
1
4.03604
10.0177
10.4844
10.5805
10.6968
10.8038
10.9067
11.0045
11.0984
11.1884
11.2744
11.3576
11.4361
11.5088
11.5763
11.64
11.6987
11.7518
11.7995
11.8416
11.8777
11.9061
11.9269
11.942
1
1
1
1
1
1
1
1
1
1
1
1
1
1
1
1
1
1
1
1
1
1
1
1
3.71012
9.88543
10.4713
10.5653
10.6805
10.7862
10.8878
10.9844
11.077
11.1657
11.2503
11.3321
11.4093
11.4808
11.5471
11.6092
11.6663
11.7175
11.7634
11.8037
11.838
11.8649
11.8841
11.8985
1
1
1
1
1
1
1
1
1
1
1
1
1
1
1
1
1
1
1
1
1
1
1
1
3.32296
9.69496
10.4567
10.5462
10.6599
10.7636
10.8634
10.9585
11.0493
11.1363
11.2192
11.2991
11.3748
11.4448
11.5097
11.5702
11.6257
11.6752
11.7191
11.7571
11.7888
11.8134
11.8301
11.8431
1
1
1
1
1
1
1
1
1
1
1
1
1
1
1
1
1
1
1
1
1
1
1
1
2.88909
9.42501
10.442
10.5233
10.6343
10.7344
10.8317
10.9247
11.0136
11.0986
11.1797
11.2575
11.3313
11.3994
11.4622
11.5205
11.5737
11.6208
11.6624
11.6983
11.7279
11.751
11.7658
11.7781
1
1
1
1
1
1
1
1
1
1
1
1
1
1
1
1
1
1
1
1
1
1
1
1
2.43504
9.06076
10.4367
10.5044
10.6113
10.7063
10.8
10.8902
10.9764
11.0583
11.1358
11.2095
11.2798
11.3444
11.4041
11.4595
11.5103
11.5552
11.5946
11.6281
11.6549
11.6751
11.687
11.6975
1
1
1
1
1
1
1
1
1
1
1
1
1
1
1
1
1
1
1
1
1
1
1
1
1.97793
8.57597
10.4436
10.4829
10.5862
10.6726
10.7629
10.8507
10.9349
11.0142
11.0886
11.1577
11.2233
11.2833
11.3383
11.3889
11.4351
11.4755
11.5106
11.5407
11.5648
11.5831
11.5935
11.6037
1
1
1
1
1
1
1
1
1
1
1
1
1
1
1
1
1
1
1
1
1
1
1
1
1.54481
7.98547
10.4482
10.4389
10.5438
10.6268
10.7165
10.8018
10.8836
10.9611
11.0334
11.0987
11.1597
11.2148
11.2644
11.3089
11.3493
11.3845
11.4149
11.4404
11.4593
11.4718
11.4774
11.4837
1
1
1
1
1
1
1
1
1
1
1
1
1
1
1
1
1
1
1
1
1
1
1
1
1.16322
7.26181
10.4203
10.4019
10.4921
10.567
10.6528
10.7389
10.8207
10.896
10.9661
11.0286
11.0853
11.1355
11.1793
11.2171
11.2497
11.2766
11.2974
11.3134
11.3253
11.3329
11.3363
11.3442
1
1
1
1
1
1
1
1
1
1
1
1
1
1
1
1
1
1
1
1
1
1
1
1
1.00601
6.39676
10.2247
10.295
10.4028
10.4935
10.5825
10.6631
10.7419
10.8177
10.8874
10.9479
11
11.0449
11.0825
11.1125
11.1355
11.1524
11.1637
11.1712
11.1743
11.1677
11.1565
11.1492
1
1
1
1
1
1
1
1
1
1
1
1
1
1
1
1
1
1
1
1
1
1
1
1
1.00002
5.40665
10.0328
10.2125
10.3263
10.4264
10.5145
10.5956
10.6681
10.7331
10.7945
10.8513
10.8989
10.938
10.9696
10.9916
11.0043
11.0093
11.0047
10.9908
10.9677
10.9424
10.9173
10.9182
1
1
1
1
1
1
1
1
1
1
1
1
1
1
1
1
1
1
1
1
1
1
1
1
1
4.34007
9.68888
10.1423
10.2628
10.368
10.4488
10.5155
10.5748
10.6313
10.687
10.7379
10.7802
10.8132
10.8389
10.8515
10.852
10.8412
10.8156
10.7816
10.7386
10.6934
10.6254
10.5489
1
1
1
1
1
1
1
1
1
1
1
1
1
1
1
1
1
1
1
1
1
1
1
1
1
3.28118
9.21387
10.0849
10.2125
10.3195
10.3935
10.4499
10.4982
10.5409
10.5802
10.6198
10.6546
10.6779
10.6939
10.6937
10.6802
10.6513
10.6018
10.5345
10.4343
10.2949
10.1491
10.0407
1
1
1
1
1
1
1
1
1
1
1
1
1
1
1
1
1
1
1
1
1
1
1
1
1
2.18638
8.43625
10.1671
10.2007
10.2669
10.3214
10.3697
10.4135
10.4507
10.4794
10.5039
10.5237
10.5353
10.5377
10.52
10.489
10.4357
10.3517
10.2342
10.0731
9.87042
9.65353
9.55875
1
1
1
1
1
1
1
1
1
1
1
1
1
1
1
1
1
1
1
1
1
1
1
1
1
1.26476
7.55412
10.2758
10.1369
10.1723
10.2338
10.2834
10.3234
10.354
10.3743
10.387
10.3923
10.3918
10.375
10.3389
10.2846
10.2021
10.0815
9.91655
9.67381
9.28648
8.43137
6.48848
1
1
1
1
1
1
1
1
1
1
1
1
1
1
1
1
1
1
1
1
1
1
1
1
1
1.00835
6.3098
9.95892
9.96898
10.0586
10.1243
10.1802
10.2212
10.2478
10.2627
10.2659
10.2575
10.2401
10.2059
10.1507
10.0702
9.95678
9.79538
9.56475
9.21995
8.62137
7.68561
5.51989
1
1
1
1
1
1
1
1
1
1
1
1
1
1
1
1
1
1
1
1
1
1
1
1
1
0.999963
4.75133
9.54589
9.88694
9.98652
10.0324
10.0777
10.116
10.1368
10.1457
10.141
10.1204
10.0858
10.0343
9.96002
9.85411
9.70872
9.50786
9.21799
8.79622
8.12939
7.07305
5.13986
1
1
1
1
1
1
1
1
1
1
1
1
1
1
1
1
1
1
1
1
1
1
1
1
1
0.99999
3.22989
8.96487
9.86348
9.92001
9.96798
9.99353
10.0158
10.0252
10.0254
10.0119
9.98068
9.93098
9.86083
9.76638
9.63767
9.46277
9.22655
8.89659
8.41913
7.75026
6.64329
5.1008
1
1
1
1
1
1
1
1
1
1
1
1
1
1
1
1
1
1
1
1
1
1
1
1
1
0.999998
1.86662
8.13634
9.88351
9.84504
9.88745
9.91263
9.9258
9.92393
9.91077
9.88413
9.8409
9.77733
9.68982
9.5762
9.42667
9.22814
8.96295
8.60768
8.11326
7.44846
6.41353
5.19834
1
1
1
1
1
1
1
1
1
1
1
1
1
1
1
1
1
1
1
1
1
1
1
1
1
1
1.08612
6.70728
9.85254
9.78424
9.78673
9.81556
9.82345
9.81456
9.79175
9.75415
9.7002
9.62494
9.52325
9.39279
9.22492
9.00806
8.72394
8.35223
7.86018
7.21758
6.3098
5.31841
1
1
1
1
1
1
1
1
1
1
1
1
1
1
1
1
1
1
1
1
1
1
1
1
1
1
1.00048
4.90952
9.3083
9.62259
9.69531
9.71845
9.71703
9.70185
9.67178
9.6253
9.56116
9.47472
9.36136
9.21726
9.03494
8.80544
8.51303
8.137
7.651
7.04937
6.27108
5.44645
1
1
1
1
1
1
1
1
1
1
1
1
1
1
1
1
1
1
1
1
1
1
1
1
1
1
0.999994
2.94416
8.67443
9.61094
9.61672
9.63658
9.63106
9.60453
9.5629
9.50511
9.42963
9.3318
9.20783
9.05285
8.85969
8.62144
8.32694
7.95829
7.49032
6.93216
6.25329
5.55768
1
1
1
1
1
1
1
1
1
1
1
1
1
1
1
1
1
1
1
1
1
1
1
1
1
1
0.999998
1.39134
7.62708
9.71666
9.57337
9.53017
9.51957
9.48941
9.44341
9.37976
9.29716
9.19201
9.06033
8.89762
8.69789
8.45511
8.16266
7.80524
7.3687
6.84623
6.24878
5.65675
1
1
1
1
1
1
1
1
1
1
1
1
1
1
1
1
1
1
1
1
1
1
1
1
1
1
1
1.01543
5.87058
9.25982
9.37393
9.42083
9.41079
9.37417
9.32499
9.25727
9.1697
9.05874
8.92134
8.75354
8.55007
8.30641
8.01897
7.6698
7.26942
6.78531
6.25655
5.73726
1
1
1
1
1
1
1
1
1
1
1
1
1
1
1
1
1
1
1
1
1
1
1
1
1
1
1
0.999907
3.54566
8.7087
9.31957
9.33389
9.32579
9.28874
9.23092
9.15221
9.05462
8.93567
8.79213
8.62077
8.41676
8.17616
7.8925
7.55339
7.18156
6.73979
6.27394
5.80063
1
1
1
1
1
1
1
1
1
1
1
1
1
1
1
1
1
1
1
1
1
1
1
1
1
1
1
0.999976
1.60798
7.82296
9.45744
9.29486
9.22584
9.1807
9.11853
9.03693
8.93647
8.81405
8.66819
8.49607
8.2921
8.06024
7.7772
7.45575
7.10332
6.7008
6.28894
5.84581
1
1
1
1
1
1
1
1
1
1
1
1
1
1
1
1
1
1
1
1
1
1
1
1
1
1
1
0.999996
1.03497
6.00093
9.03588
9.09078
9.10918
9.0748
9.0109
8.92825
8.82592
8.70161
8.55473
8.38293
8.18429
7.95414
7.67819
7.37767
7.04275
6.67448
6.30094
5.88841
1
1
1
1
1
1
1
1
1
1
1
1
1
1
1
1
1
1
1
1
1
1
1
1
1
1
1
1
0.999935
3.37968
8.42943
9.05429
9.03728
8.99525
8.93181
8.84258
8.73246
8.60226
8.45204
8.27961
8.08222
7.85548
7.59313
7.31114
6.99305
6.65297
6.30728
5.92326
1
1
1
1
1
1
1
1
1
1
1
1
1
1
1
1
1
1
1
1
1
1
1
1
1
1
1
1
0.999979
1.38741
7.35531
9.1979
9.00998
8.9086
8.8333
8.74003
8.63022
8.50336
8.35591
8.1857
7.98943
7.76973
7.52211
7.25556
6.9551
6.63849
6.31476
5.95889
1
1
1
1
1
1
1
1
1
1
1
1
1
1
1
1
1
1
1
1
1
1
1
1
1
1
1
1
0.999997
1.01351
5.27068
8.69595
8.78298
8.78717
8.72786
8.63806
8.53311
8.41104
8.26758
8.10121
7.90992
7.69399
7.45763
7.20378
6.92112
6.62362
6.31921
5.98907
1
1
1
1
1
1
1
1
1
1
1
1
1
1
1
1
1
1
1
1
1
1
1
1
1
1
1
1
1
0.999925
2.55266
8.01706
8.7763
8.73717
8.66206
8.57023
8.46471
8.34185
8.19722
8.03045
7.8418
7.63023
7.40173
7.15862
6.89107
6.6091
6.3244
6.01651
1
1
1
1
1
1
1
1
1
1
1
1
1
1
1
1
1
1
1
1
1
1
1
1
1
1
1
1
1
0.999981
1.18018
6.31533
8.75165
8.66402
8.58217
8.48968
8.38725
8.26646
8.1226
7.958
7.77444
7.57133
7.35248
7.11983
6.86383
6.59495
6.3264
6.03815
1
1
1
1
1
1
1
1
1
1
1
1
1
1
1
1
1
1
1
1
1
1
1
1
1
1
1
1
1
0.999997
1.00233
3.56086
8.11078
8.52437
8.48137
8.41728
8.32408
8.20406
8.05939
7.89664
7.71796
7.52233
7.31124
7.08616
6.84078
6.58505
6.32844
6.05875
1
1
1
1
1
1
1
1
1
1
1
1
1
1
1
1
1
1
1
1
1
1
1
1
1
1
1
1
1
1
0.999993
1.4243
6.82168
8.62591
8.47564
8.38507
8.27672
8.14635
7.99878
7.83762
7.66349
7.47471
7.27126
7.05388
6.81978
6.57636
6.32973
6.07628
1
1
1
1
1
1
1
1
1
1
1
1
1
1
1
1
1
1
1
1
1
1
1
1
1
1
1
1
1
1
0.999998
1.01465
4.30264
8.14059
8.32267
8.28749
8.1966
8.07483
7.93453
7.7794
7.61172
7.43013
7.23417
7.02458
6.8015
6.56928
6.33277
6.09115
1
1
1
1
1
1
1
1
1
1
1
1
1
1
1
1
1
1
1
1
1
1
1
1
1
1
1
1
1
1
1
1
1.67483
7.04662
8.44537
8.28695
8.1645
8.03494
7.89268
7.73842
7.57234
7.39277
7.1996
6.9956
6.78224
6.56105
6.3355
6.10425
1
1
1
1
1
1
1
1
1
1
1
1
1
1
1
1
1
1
1
1
1
1
1
1
1
1
1
1
1
1
1
1
1.03604
4.70648
8.06893
8.15299
8.07482
7.96583
7.83629
7.68929
7.52673
7.35071
7.16283
6.96661
6.76363
6.55385
6.33855
6.11787
1
1
1
1
1
1
1
1
1
1
1
1
1
1
1
1
1
1
1
1
1
1
1
1
1
1
1
1
1
1
1
1
1.0001
1.85197
7.05047
8.23606
8.06833
7.93811
7.80423
7.65617
7.49524
7.323
7.14086
6.95094
6.75438
6.55202
6.34385
6.13154
1
1
1
1
1
1
1
1
1
1
1
1
1
1
1
1
1
1
1
1
1
1
1
1
1
1
1
1
1
1
1
1
1
1.05513
4.79225
7.92253
7.96238
7.87309
7.75318
7.6128
7.45708
7.28839
7.11097
6.92684
6.73673
6.54317
6.34575
6.14329
1
1
1
1
1
1
1
1
1
1
1
1
1
1
1
1
1
1
1
1
1
1
1
1
1
1
1
1
1
1
1
1
1
1.00027
1.90874
6.84927
7.99785
7.85404
7.72465
7.58189
7.42604
7.26033
7.08936
6.91365
6.73236
6.54756
6.35911
6.16402
1
1
1
1
1
1
1
1
1
1
1
1
1
1
1
1
1
1
1
1
1
1
1
1
1
1
1
1
1
1
1
1
1
1
1.06129
4.52589
7.7188
7.78772
7.672
7.53743
7.38786
7.23158
7.06991
6.90289
6.72942
6.55126
6.36795
6.1784
1
1
1
1
1
1
1
1
1
1
1
1
1
1
1
1
1
1
1
1
1
1
1
1
1
1
1
1
1
1
1
1
1
1
1.00042
1.80188
6.50194
7.79541
7.64863
7.51452
7.36522
7.21391
7.05913
6.89956
6.73254
6.55992
6.38153
6.19626
1
1
1
1
1
1
1
1
1
1
1
1
1
1
1
1
1
1
1
1
1
1
1
1
1
1
1
1
1
1
1
1
1
1
1
1.04794
3.93861
7.43307
7.59727
7.46979
7.33258
7.19341
7.04978
6.89827
6.73595
6.56608
6.39215
6.21117
1
1
1
1
1
1
1
1
1
1
1
1
1
1
1
1
1
1
1
1
1
1
1
1
1
1
1
1
1
1
1
1
1
1
1
1.00036
1.56936
5.97202
7.61565
7.464
7.33844
7.20183
7.05581
6.90098
6.73785
6.56939
6.40031
6.22671
1
1
1
1
1
1
1
1
1
1
1
1
1
1
1
1
1
1
1
1
1
1
1
1
1
1
1
1
1
1
1
1
1
1
1
1
1.0252
3.07254
6.96115
7.44059
7.31764
7.18573
7.03835
6.88577
6.72971
6.56861
6.40548
6.24093
1
1
1
1
1
1
1
1
1
1
1
1
1
1
1
1
1
1
1
1
1
1
1
1
1
1
1
1
1
1
1
1
1
1
1
1
1.00018
1.29566
5.18587
7.46752
7.33127
7.18875
7.03596
6.88715
6.73714
6.58115
6.41955
6.25863
1
1
1
1
1
1
1
1
1
1
1
1
1
1
1
1
1
1
1
1
1
1
1
1
1
1
1
1
1
1
1
1
1
1
1
1
1
1.00762
2.29963
6.46533
7.29348
7.14539
7.01565
6.87519
6.72875
6.57885
6.42355
6.26471
1
1
1
1
1
1
1
1
1
1
1
1
1
1
1
1
1
1
1
1
1
1
1
1
1
1
1
1
1
1
1
1
1
1
1
1
1
1.00004
1.11921
4.0578
7.0674
7.16469
7.03641
6.89666
6.74904
6.59856
6.44636
6.29017
1
1
1
1
1
1
1
1
1
1
1
1
1
1
1
1
1
1
1
1
1
1
1
1
1
1
1
1
1
1
1
1
1
1
1
1
1
1
1.0018
1.64178
5.61132
7.18149
7.03205
6.88887
6.74486
6.59911
6.45217
6.30374
1
1
1
1
1
1
1
1
1
1
1
1
1
1
1
1
1
1
1
1
1
1
1
1
1
1
1
1
1
1
1
1
1
1
1
1
1
1
1.00001
1.03212
2.78036
6.49431
7.01759
6.88621
6.75068
6.61273
6.47004
6.32364
1
1
1
1
1
1
1
1
1
1
1
1
1
1
1
1
1
1
1
1
1
1
1
1
1
1
1
1
1
1
1
1
1
1
1
1
1
1
1
1.00031
1.21839
4.36992
6.86524
6.91579
6.78231
6.641
6.49668
6.34909
1
1
1
1
1
1
1
1
1
1
1
1
1
1
1
1
1
1
1
1
1
1
1
1
1
1
1
1
1
1
1
1
1
1
1
1
1
1
1
1
1.00501
1.8113
5.56847
6.88767
6.78424
6.6428
6.50252
6.36146
1
1
1
1
1
1
1
1
1
1
1
1
1
1
1
1
1
1
1
1
1
1
1
1
1
1
1
1
1
1
1
1
1
1
1
1
1
1
1
1
1.00003
1.04996
2.8476
6.28279
6.78203
6.65944
6.51695
6.38021
1
1
1
1
1
1
1
1
1
1
1
1
1
1
1
1
1
1
1
1
1
1
1
1
1
1
1
1
1
1
1
1
1
1
1
1
1
1
1
1
1
1.00061
1.23818
4.1714
6.56122
6.68586
6.55476
6.41107
1
1
1
1
1
1
1
1
1
1
1
1
1
1
1
1
1
1
1
1
1
1
1
1
1
1
1
1
1
1
1
1
1
1
1
1
1
1
1
1
1
1
1.00616
1.7295
5.19655
6.62941
6.57534
6.43474
1
1
1
1
1
1
1
1
1
1
1
1
1
1
1
1
1
1
1
1
1
1
1
1
1
1
1
1
1
1
1
1
1
1
1
1
1
1
1
1
1
1
1.00004
1.04195
2.53575
5.8743
6.5564
6.46124
1
1
1
1
1
1
1
1
1
1
1
1
1
1
1
1
1
1
1
1
1
1
1
1
1
1
1
1
1
1
1
1
1
1
1
1
1
1
1
1
1
1
1
1.00052
1.17009
3.56165
6.21552
6.49443
1
1
1
1
1
1
1
1
1
1
1
1
1
1
1
1
1
1
1
1
1
1
1
1
1
1
1
1
1
1
1
1
1
1
1
1
1
1
1
1
1
1
1
1
1.0038
1.47518
4.54321
6.32922
1
1
1
1
1
1
1
1
1
1
1
1
1
1
1
1
1
1
1
1
1
1
1
1
1
1
1
1
1
1
1
1
1
1
1
1
1
1
1
1
1
1
1
1
1.00002
1.02046
2.01354
5.22355
1
1
1
1
1
1
1
1
1
1
1
1
1
1
1
1
1
1
1
1
1
1
1
1
1
1
1
1
1
1
1
1
1
1
1
1
1
1
1
1
1
1
1
1
1
1.00021
1.07893
2.71561
1
1
1
1
1
1
1
1
1
1
1
1
1
1
1
1
1
1
1
1
1
1
1
1
1
1
1
1
1
1
1
1
1
1
1
1
1
1
1
1
1
1
1
1
1
1
1.0013
1.21858
1
1
1
1
1
1
1
1
1
1
1
1
1
1
1
1
1
1
1
1
1
1
1
1
1
1
1
1
1
1
1
1
1
1
1
1
1
1
1
1
1
1
1
1
1
1
1.00001
1.00638
1
1
1
1
1
1
1
1
1
1
1
1
1
1
1
1
1
1
1
1
1
1
1
1
1
1
1
1
1
1
1
1
1
1
1
1
1
1
1
1
1
1
1
1
1
1
1
1.00005
1
1
1
1
1
1
1
1
1
1
1
1
1
1
1
1
1
1
1
1
1
1
1
1
1
1
1
1
1
1
1
1
1
1
1
1
1
1
1
1
1
1
1
1
1
1
1
1
1
1
1
1
1
1
1
1
1
1
1
1
1
1
1
1
1
1
1
1
1
1
1
1
1
1
1
1
1
1
1
1
1
1
1
1
1
1
1
1
1
1
1
1
1
1
1
1
1
1
1
1
1
1
1
1
1
1
1
1
1
1
1
1
1
1
1
1
1
1
1
1
1
1
1
1
1
1
1
1
1
1
1
1
1
1
1
1
1
1
1
1
1
1
1
1
1
1
1
1
1
1
1
1
1
1
1
1
1
1
1
1
1
1
1
1
1
1
1
1
1
1
1
1
1
1
1
1
1
1
1
1
1
1
1
1
1
1
1
1
1
1
1
1
1
1
1
1
1
1
1
1
1
1
1
1
1
1
1
1
1
1
1
1
1
1
1
1
1
1
1
1
1
1
1
1
1
1
1
1
1
1
1
1
1
1
1
1
1
1
1
1
1
1
1
1
1
1
1
1
1
1
1
1
1
1
1
1
1
1
1
1
1
1
1
1
1
1
1
1
1
1
1
1
1
1
1
1
1
1
1
1
1
1
1
1
1
1
1
1
1
1
1
1
1
1
1
1
1
1
1
1
1
1
1
1
1
1
1
1
1
1
1
1
1
1
1
1
1
1
1
1
1
1
1
1
1
1
1
1
1
1
1
1
1
1
1
1
1
1
1
1
1
1
1
1
1
1
1
1
1
1
1
1
1
1
1
1
1
1
1
1
1
1
1
1
1
1
1
1
1
1
1
1
1
1
1
1
1
1
1
1
1
1
1
1
1
1
1
1
1
1
1
1
1
1
1
1
1
1
1
1
1
1
1
1
1
1
1
1
1
1
1
1
1
1
1
1
1
1
1
1
1
1
1
1
1
1
1
1
1
1
1
1
1
1
1
1
1
1
1
1
1
1
1
1
1
1
1
1
1
1
1
1
1
1
1
1
1
1
1
1
1
1
1
1
1
1
1
1
1
1
1
1
1
1
1
1
1
1
1
1
1
1
1
1
1
1
1
1
1
1
1
1
1
1
1
1
1
1
1
1
1
1
1
1
1
1
1
1
1
1
1
1
1
1
1
1
1
1
1
1
1
1
1
1
1
1
1
1
1
1
1
1
1
1
1
1
1
1
1
1
1
1
1
1
1
1
1
1
1
1
1
1
1
1
1
1
1
1
1
1
1
1
1
1
1
1
1
1
1
1
1
1
1
1
1
1
1
1
1
1
1
1
1
1
1
1
1
1
1
1
1
1
1
1
1
1
1
1
1
1
1
1
1
1
1
1
1
1
1
1
1
1
1
1
1
1
1
1
1
1
1
1
1
1
1
1
1
1
1
1
1
1
1
1
1
1
1
1
1
1
1
1
1
1
1
1
1
1
1
1
1
1
1
1
1
1
1
1
1
1
1
1
1
1
1
1
1
1
1
1
1
1
1
1
1
1
1
1
1
1
1
1
1
1
1
1
1
1
1
1
1
1
1
1
1
1
1
1
1
1
1
1
1
1
1
1
1
1
1
1
1
1
1
1
1
1
1
1
1
1
1.1854
0.175492
0.0925439
0.0741843
0.0533887
0.0537214
0.0774117
0.12396
0.176111
0.24889
0.363462
0.456219
0.539679
0.605304
0.673658
0.757052
0.793626
0.804032
0.858403
0.917232
0.950818
0.984422
1.01642
1.04415
1.05595
1.07021
1.08259
1.08734
1.0969
1.11761
1.15079
1.18672
1.20556
1.2153
1.22085
1.2249
1.22891
1.2425
1.25836
1.26619
1.2733
1.27693
1.27977
1.2819
1.28758
1.29723
1.30916
1.32298
1.33545
1.34346
1.34367
1.33905
1.33047
1.32014
1.31579
1.31499
1.32344
1.34542
1.35523
3.17551
5.82462
6.05088
6.12283
6.18003
6.20781
6.21027
6.1908
6.16139
6.13559
6.12184
6.11767
6.10923
6.08343
6.04406
6.00138
5.96492
5.93826
5.91676
5.88869
5.84395
5.78481
5.7246
5.67551
5.64278
5.62314
5.60945
5.58912
5.55162
5.49098
5.417
5.34837
5.29452
5.25894
5.23782
5.22305
5.20362
5.17005
5.1217
5.06606
5.01079
4.96121
4.92215
4.89896
4.89469
4.89499
4.88248
4.85069
4.80267
4.73765
4.64189
4.54721
4.48072
4.43468
4.40896
4.40729
4.40903
4.39882
4.3805
4.35353
4.3128
4.26405
4.20689
4.14915
4.1023
4.06648
4.0398
4.02066
4.0058
3.99395
3.97714
3.94713
3.90973
3.85979
3.81483
3.77874
3.74441
3.71034
3.6722
3.6185
3.55314
3.49723
3.46114
3.43565
3.41722
3.41223
3.41734
3.42085
3.41095
3.3876
3.35694
3.31094
3.25833
3.21803
3.18859
3.16427
3.14259
3.12175
3.09717
3.06243
3.01862
2.98498
2.96316
2.9463
2.93926
2.94087
2.93609
2.92166
2.9024
2.87463
2.82938
2.77867
2.74633
2.72695
2.71156
2.70022
2.69761
2.70121
2.69304
2.67459
2.64763
2.59942
2.54079
2.50472
2.48663
2.47367
2.4663
2.47032
2.47593
2.46868
2.4541
2.44124
2.4019
2.18765
0.936194
0.53335
0.36693
0.297442
0.249671
0.22493
0.215017
0.234722
0.257353
0.265079
0.291246
0.333877
0.38723
0.450609
0.532954
0.618736
0.658131
0.701842
0.766781
0.842789
0.905947
0.959579
1.00831
1.02249
1.04705
1.07758
1.08973
1.09408
1.10582
1.12921
1.15091
1.17186
1.19077
1.20565
1.21934
1.23223
1.24331
1.24831
1.25206
1.2587
1.2653
1.27292
1.28193
1.29118
1.29937
1.30546
1.31073
1.31667
1.32483
1.33286
1.33635
1.33532
1.33217
1.32853
1.32625
1.32858
1.33795
1.34471
3.01613
5.81292
6.16514
6.2112
6.2242
6.21831
6.20142
6.18235
6.1648
6.14657
6.12434
6.09797
6.07384
6.05274
6.02756
5.98718
5.93682
5.89068
5.85872
5.84157
5.82577
5.79687
5.74798
5.68523
5.62371
5.57044
5.53433
5.517
5.50527
5.48718
5.45227
5.39764
5.33535
5.27727
5.22898
5.19135
5.16665
5.14783
5.11996
5.07575
5.02209
4.9664
4.91401
4.87145
4.8428
4.82382
4.79929
4.76536
4.72451
4.67995
4.63461
4.59029
4.54664
4.50715
4.47633
4.4514
4.41945
4.38052
4.3416
4.3071
4.28044
4.25333
4.22478
4.19094
4.15326
4.11252
4.07072
4.03293
4.0024
3.97528
3.94987
3.9196
3.88101
3.84025
3.80177
3.76608
3.73152
3.69724
3.66233
3.6262
3.5882
3.54501
3.49871
3.45875
3.43193
3.41515
3.40459
3.39058
3.37242
3.35677
3.3384
3.31198
3.28293
3.24619
3.20565
3.16798
3.13679
3.11003
3.08463
3.05741
3.0299
3.00524
2.97955
2.95999
2.94947
2.94073
2.92257
2.90255
2.88234
2.86112
2.83204
2.79993
2.76895
2.74114
2.72042
2.70641
2.69566
2.68366
2.67106
2.65745
2.63777
2.60709
2.56837
2.52899
2.49929
2.4823
2.47194
2.4651
2.45869
2.45269
2.4408
2.42806
2.39515
2.96526
1.87209
1.15843
0.730747
0.640592
0.523133
0.406031
0.359991
0.364867
0.358822
0.324431
0.323359
0.339078
0.371542
0.409651
0.429022
0.466322
0.529009
0.577903
0.628089
0.707389
0.780585
0.866056
0.952336
0.985826
1.02087
1.06939
1.10152
1.10236
1.11556
1.13606
1.15613
1.17955
1.19945
1.20857
1.21574
1.2252
1.23747
1.24302
1.24791
1.25694
1.26753
1.27691
1.28441
1.29322
1.30582
1.31444
1.31635
1.31675
1.31935
1.32475
1.3306
1.33733
1.34332
1.34627
1.3448
1.34191
1.33714
1.34381
2.60953
5.82823
6.34921
6.2548
6.26131
6.25077
6.21372
6.18056
6.16901
6.17265
6.17656
6.15084
6.1
6.0538
6.02708
6.01208
5.98288
5.93165
5.87602
5.82967
5.79661
5.77999
5.77056
5.7487
5.69517
5.62172
5.54352
5.47671
5.42818
5.41124
5.41254
5.40594
5.37646
5.32852
5.27138
5.21352
5.16691
5.13524
5.11444
5.09265
5.06215
5.02635
4.98978
4.94732
4.89013
4.82121
4.75044
4.68264
4.62535
4.58662
4.56684
4.55556
4.54602
4.54125
4.53764
4.5173
4.47606
4.41953
4.34653
4.27438
4.22628
4.19693
4.1819
4.17686
4.17307
4.15914
4.13164
4.09067
4.03169
3.965
3.91406
3.87713
3.84773
3.82502
3.79853
3.76363
3.72198
3.67393
3.63355
3.6067
3.58848
3.56935
3.5457
3.51792
3.48041
3.43325
3.38863
3.35698
3.33284
3.31082
3.29236
3.28683
3.28292
3.26461
3.23933
3.20185
3.14972
3.09622
3.05647
3.03133
3.01523
3.0074
2.99996
2.98615
2.96565
2.93894
2.9087
2.88161
2.85592
2.82978
2.81355
2.80171
2.78731
2.77062
2.74881
2.72027
2.68958
2.66733
2.6493
2.62975
2.60951
2.59375
2.57805
2.56011
2.53508
2.5037
2.47445
2.45597
2.4437
2.43295
2.42223
2.41133
2.38127
3.51685
2.55591
1.765
1.30058
1.06464
0.848929
0.678196
0.589926
0.557569
0.539152
0.492433
0.444154
0.441296
0.446316
0.436456
0.426824
0.433949
0.457686
0.480232
0.504488
0.553945
0.615455
0.695346
0.801311
0.883866
0.917424
0.956603
1.01747
1.04518
1.084
1.12382
1.15044
1.17043
1.18752
1.20651
1.21537
1.22364
1.23541
1.23977
1.24121
1.24423
1.25156
1.26095
1.2698
1.28284
1.30026
1.30954
1.31311
1.31409
1.31442
1.31568
1.31737
1.3201
1.32625
1.3338
1.33644
1.3377
1.34761
1.39688
2.13146
5.71396
6.73905
6.38642
6.27033
6.26204
6.23546
6.17791
6.145
6.13193
6.14833
6.15765
6.11079
6.04984
5.99413
5.95605
5.93427
5.91548
5.88225
5.83478
5.77997
5.73225
5.69444
5.67574
5.66009
5.62652
5.57718
5.51557
5.45693
5.41425
5.38678
5.37218
5.35148
5.31138
5.26305
5.20666
5.14897
5.1029
5.06556
5.03534
5.0069
4.98128
4.95951
4.93335
4.89464
4.84682
4.79148
4.72701
4.6633
4.615
4.58231
4.55816
4.54308
4.53975
4.53397
4.50867
4.47245
4.42849
4.37015
4.30005
4.23723
4.19535
4.16762
4.15162
4.14867
4.14251
4.1228
4.09401
4.04627
3.97191
3.89682
3.84973
3.81951
3.798
3.78551
3.76904
3.73972
3.70376
3.66298
3.62597
3.59792
3.57658
3.55768
3.5358
3.50458
3.45604
3.4001
3.3535
3.31765
3.29084
3.27184
3.26422
3.25951
3.24907
3.23165
3.20562
3.16532
3.11495
3.07173
3.04273
3.02327
3.01313
3.00903
2.99503
2.97473
2.9481
2.91053
2.86868
2.83533
2.81488
2.8014
2.79195
2.78573
2.77688
2.76258
2.74148
2.70822
2.66545
2.62687
2.60225
2.5872
2.57781
2.57436
2.56784
2.55317
2.53214
2.49987
2.46154
2.42969
2.40987
2.39634
2.3873
2.36438
3.95831
3.11404
2.3933
1.83794
1.4844
1.20772
1.01333
0.914894
0.808441
0.740675
0.693506
0.611164
0.5602
0.558885
0.540943
0.506028
0.505161
0.518172
0.518482
0.523194
0.520399
0.518415
0.526217
0.559448
0.630729
0.701081
0.767469
0.877179
0.968923
1.02182
1.0669
1.10054
1.12216
1.13793
1.16672
1.19376
1.20402
1.21783
1.23014
1.23608
1.2412
1.25033
1.26187
1.27678
1.29819
1.31372
1.31799
1.32027
1.31857
1.30906
1.30022
1.29751
1.29954
1.30828
1.32831
1.34702
1.3609
1.43458
1.74318
2.25799
4.43132
6.56406
6.63098
6.38529
6.26685
6.22056
6.18574
6.14615
6.12825
6.12589
6.14141
6.13071
6.09589
6.04959
5.99046
5.94651
5.91763
5.89037
5.85491
5.80924
5.75197
5.70012
5.6627
5.63395
5.61074
5.58024
5.54291
5.49932
5.45313
5.41301
5.3834
5.35764
5.31972
5.27769
5.22418
5.16071
5.10967
5.07078
5.03295
4.99315
4.95127
4.91146
4.87397
4.83892
4.80788
4.77488
4.73916
4.69805
4.64988
4.61014
4.58088
4.55968
4.54541
4.51963
4.48503
4.44788
4.40714
4.36015
4.30701
4.25676
4.21775
4.18794
4.1645
4.14241
4.11838
4.09293
4.06195
4.01854
3.95564
3.88511
3.83187
3.79648
3.76939
3.74788
3.73443
3.7245
3.70697
3.68379
3.65877
3.62975
3.59882
3.56722
3.53304
3.4918
3.44138
3.38879
3.34541
3.31672
3.29767
3.28372
3.26939
3.25133
3.231
3.20482
3.17318
3.13977
3.11168
3.09084
3.07143
3.05284
3.03379
3.01306
2.99127
2.96652
2.93482
2.89458
2.85594
2.83316
2.81868
2.80583
2.79413
2.7819
2.76882
2.75441
2.73659
2.71158
2.67478
2.63094
2.60155
2.5874
2.57699
2.56998
2.56082
2.54756
2.53084
2.50684
2.47382
2.43782
2.40727
2.3845
2.36935
2.34464
4.34017
3.53468
2.86981
2.34869
1.94035
1.6046
1.34961
1.21949
1.08086
0.969821
0.919658
0.853079
0.745402
0.708881
0.681972
0.627506
0.612899
0.61296
0.597819
0.567301
0.557734
0.551148
0.539677
0.539676
0.54789
0.564248
0.586558
0.643217
0.745535
0.828944
0.905851
0.973523
1.02589
1.06506
1.11997
1.17077
1.18415
1.19834
1.21476
1.22017
1.22133
1.22974
1.24409
1.26382
1.28345
1.29603
1.30124
1.30414
1.30429
1.30091
1.29861
1.29572
1.29581
1.30439
1.32709
1.359
1.44299
1.77326
2.47994
2.73515
3.19493
5.09343
6.3079
6.54005
6.41675
6.29477
6.22276
6.15337
6.0959
6.0702
6.06096
6.08085
6.08193
6.05565
6.0047
5.93121
5.88008
5.84835
5.82328
5.7969
5.76035
5.70958
5.65149
5.60648
5.57362
5.54713
5.51641
5.48244
5.44326
5.40675
5.37713
5.34811
5.31579
5.28078
5.23802
5.18448
5.12861
5.07927
5.03311
4.98508
4.93349
4.886
4.84983
4.82083
4.80091
4.7836
4.76015
4.72977
4.68492
4.63082
4.58953
4.55792
4.52839
4.49607
4.4608
4.42368
4.3848
4.3435
4.30117
4.26245
4.22965
4.19847
4.16521
4.12942
4.09507
4.06413
4.03198
3.99347
3.9465
3.89753
3.85354
3.81292
3.77539
3.74602
3.72373
3.70991
3.70258
3.69157
3.67448
3.65096
3.61459
3.56737
3.51898
3.47281
3.42959
3.39112
3.35835
3.33102
3.30942
3.29058
3.27057
3.24606
3.21459
3.17827
3.14602
3.12495
3.11019
3.10027
3.09255
3.0787
3.05815
3.0298
2.99453
2.95594
2.91642
2.88003
2.85088
2.82927
2.81441
2.8021
2.78991
2.77649
2.76169
2.74483
2.72536
2.70298
2.67678
2.6463
2.61358
2.59045
2.57803
2.56617
2.55234
2.53546
2.51537
2.493
2.46911
2.44317
2.41482
2.3865
2.36422
2.33213
4.63762
3.89342
3.28113
2.78024
2.35905
1.9788
1.73415
1.54303
1.37937
1.21969
1.12683
1.04659
0.944539
0.876351
0.839979
0.782991
0.733731
0.726655
0.712033
0.665217
0.639614
0.635791
0.616522
0.589817
0.589434
0.59701
0.595768
0.594047
0.605259
0.628088
0.669334
0.729874
0.804121
0.893395
0.977101
1.08119
1.13675
1.15905
1.18611
1.19366
1.19349
1.20273
1.22485
1.25527
1.27399
1.28122
1.28533
1.28879
1.29057
1.29006
1.29338
1.29515
1.29488
1.30602
1.33704
1.46363
1.81816
2.41352
2.91001
2.98164
3.00491
3.48349
5.09979
6.2278
6.49835
6.40565
6.29585
6.17418
6.0806
6.04781
6.03065
6.0485
6.06413
6.04697
6.01058
5.94751
5.87835
5.83584
5.81151
5.79119
5.75821
5.7149
5.65846
5.59944
5.55595
5.52255
5.49165
5.45679
5.42021
5.38057
5.33777
5.30203
5.27145
5.23931
5.20508
5.1655
5.11992
5.07405
5.03034
4.98644
4.9415
4.89964
4.86674
4.84531
4.83328
4.82011
4.79529
4.75995
4.71044
4.65268
4.59881
4.55093
4.50975
4.47386
4.43953
4.40515
4.37017
4.33421
4.29869
4.26531
4.23168
4.19532
4.15534
4.11238
4.06972
4.03128
3.99576
3.95894
3.92156
3.88803
3.8575
3.82609
3.79182
3.75824
3.73388
3.71857
3.71153
3.69966
3.67846
3.64239
3.5864
3.52925
3.48397
3.45083
3.42788
3.40971
3.39119
3.36699
3.33415
3.29592
3.25775
3.22012
3.18404
3.15419
3.13463
3.12105
3.11325
3.11124
3.1053
3.09052
3.06937
3.03277
2.98553
2.94358
2.91173
2.88739
2.86464
2.83927
2.81237
2.78997
2.77313
2.75809
2.74324
2.72803
2.71247
2.69765
2.6836
2.66681
2.64115
2.60522
2.57331
2.55275
2.53502
2.51677
2.49883
2.48242
2.46728
2.45068
2.42804
2.39267
2.35491
2.31696
4.85275
4.18142
3.63597
3.16109
2.71537
2.35224
2.0857
1.85321
1.64913
1.50606
1.37239
1.25776
1.1349
1.02448
0.981943
0.945935
0.889715
0.863778
0.845237
0.798393
0.74361
0.730361
0.718863
0.681065
0.652746
0.651061
0.64275
0.623372
0.618921
0.622771
0.623726
0.627803
0.641951
0.678538
0.740367
0.826059
0.930031
0.996211
1.06328
1.11346
1.13784
1.163
1.20116
1.25541
1.27132
1.27117
1.26477
1.25916
1.26097
1.267
1.27584
1.28741
1.30508
1.34009
1.47706
1.93105
2.48569
2.86091
2.9155
2.99095
3.03503
3.0796
3.60892
5.1112
6.23692
6.38729
6.3072
6.20471
6.1299
6.08492
6.04949
6.0371
6.04774
6.04201
6.01421
5.97563
5.91917
5.84827
5.79966
5.76393
5.73235
5.70205
5.66678
5.62297
5.5721
5.52695
5.49259
5.45954
5.42237
5.3765
5.32185
5.27124
5.23458
5.20134
5.16952
5.13773
5.10321
5.06745
5.03397
5.00313
4.97441
4.94385
4.90745
4.86673
4.82864
4.79331
4.7557
4.71621
4.67657
4.63414
4.58925
4.54062
4.49181
4.4499
4.41452
4.38144
4.34724
4.3107
4.27461
4.24141
4.20977
4.17952
4.1489
4.11481
4.07425
4.02599
3.97759
3.9373
3.90707
3.88399
3.86351
3.84452
3.82434
3.7996
3.76818
3.73567
3.70763
3.67589
3.63687
3.59265
3.54469
3.50555
3.48142
3.46691
3.46039
3.45058
3.43066
3.39727
3.34287
3.28099
3.2305
3.19322
3.16663
3.14917
3.13623
3.1296
3.12886
3.12274
3.10816
3.0882
3.05477
3.01029
2.96988
2.94096
2.9201
2.9006
2.87767
2.84742
2.80995
2.7753
2.75236
2.73694
2.72438
2.7142
2.70855
2.70567
2.69892
2.68717
2.66529
2.62172
2.56811
2.53117
2.50966
2.49416
2.48224
2.47258
2.46237
2.45048
2.43348
2.39829
2.35143
2.31256
5.03209
4.43613
3.9386
3.47533
3.02967
2.69673
2.40183
2.1505
1.92661
1.75938
1.59833
1.45662
1.34105
1.2229
1.1421
1.09896
1.03476
0.980433
0.962059
0.934465
0.869417
0.819718
0.809737
0.79066
0.746281
0.727917
0.72457
0.704151
0.677118
0.665759
0.654265
0.650936
0.653097
0.652041
0.657534
0.674855
0.709457
0.753921
0.811192
0.902679
0.994163
1.07393
1.14798
1.22301
1.25358
1.25948
1.25694
1.23634
1.22701
1.232
1.24392
1.27742
1.36004
1.54982
2.02035
2.58701
2.83929
2.93407
2.95087
2.98484
3.04678
3.08012
3.12468
3.6141
5.07984
6.06646
6.23664
6.23272
6.2068
6.17592
6.10565
6.03758
6.01517
5.99956
6.00763
5.9923
5.95247
5.88606
5.79489
5.73984
5.70617
5.6878
5.67649
5.64788
5.6066
5.54923
5.49685
5.45696
5.41805
5.37323
5.32164
5.26757
5.22418
5.19152
5.1623
5.13503
5.10666
5.07735
5.04947
5.02461
4.9995
4.96698
4.92534
4.86709
4.79745
4.73929
4.69992
4.67003
4.63952
4.60761
4.57459
4.53545
4.4884
4.44012
4.39978
4.36551
4.33083
4.29285
4.25582
4.22479
4.19901
4.17655
4.15271
4.12532
4.08921
4.03676
3.97676
3.93442
3.90925
3.88928
3.87564
3.86764
3.85281
3.8291
3.79362
3.7384
3.67881
3.62928
3.58708
3.54929
3.52662
3.51206
3.50535
3.50069
3.48714
3.46588
3.43046
3.38068
3.32098
3.26184
3.21539
3.18571
3.16785
3.15596
3.15112
3.15099
3.14283
3.12693
3.10244
3.06389
3.02126
2.98658
2.96346
2.94555
2.92846
2.909
2.88353
2.84975
2.81141
2.77497
2.74615
2.72846
2.7173
2.7114
2.71545
2.71801
2.70803
2.68969
2.65887
2.61447
2.56606
2.52486
2.49832
2.4841
2.4737
2.46584
2.45968
2.44924
2.42818
2.39345
2.35728
2.32154
5.16695
4.64721
4.18515
3.72101
3.32455
2.99471
2.6924
2.40566
2.19415
1.99872
1.8251
1.65229
1.52522
1.41161
1.31774
1.2667
1.21477
1.12194
1.06757
1.04683
1.0057
0.933485
0.900117
0.890099
0.859915
0.814362
0.800831
0.789918
0.757904
0.731973
0.710709
0.698413
0.691907
0.683241
0.672893
0.677549
0.678558
0.675502
0.68025
0.706325
0.76218
0.840901
0.937879
1.03618
1.12996
1.18902
1.21567
1.21622
1.20396
1.202
1.21957
1.29448
1.60217
2.06436
2.64167
2.90019
2.91533
2.91901
2.9209
2.94604
3.02519
3.07219
3.07808
3.11829
3.55696
4.89722
5.85749
6.15099
6.25402
6.25267
6.18301
6.07776
5.99687
5.97125
5.95681
5.97475
5.95828
5.91476
5.82732
5.73118
5.68888
5.66769
5.66925
5.65588
5.622
5.57256
5.50172
5.44204
5.40316
5.36731
5.32708
5.27819
5.23048
5.19552
5.16641
5.14092
5.11317
5.08359
5.05509
5.02682
4.99576
4.96058
4.91971
4.86414
4.78699
4.71307
4.66664
4.63297
4.6054
4.58818
4.56621
4.53635
4.49948
4.45111
4.40148
4.35959
4.32204
4.28675
4.25516
4.22732
4.20353
4.18259
4.16067
4.13223
4.09376
4.04418
3.99184
3.94739
3.91803
3.89777
3.88345
3.86753
3.8453
3.81762
3.77991
3.72571
3.65849
3.60153
3.56273
3.54231
3.53186
3.53095
3.52822
3.51551
3.49116
3.4502
3.40069
3.3508
3.30443
3.26216
3.22709
3.20194
3.18556
3.17693
3.17355
3.16616
3.14714
3.11404
3.06964
3.02779
2.99495
2.97627
2.96276
2.94982
2.93275
2.9073
2.87683
2.84533
2.81735
2.79279
2.76759
2.74469
2.73134