/*--------------------------------*- C++ -*----------------------------------*\
  =========                 |
  \\      /  F ield         | OpenFOAM: The Open Source CFD Toolbox
   \\    /   O peration     | Website:  https://openfoam.org
    \\  /    A nd           | Version:  7
     \\/     M anipulation  |
\*---------------------------------------------------------------------------*/
FoamFile
{
    version     2.0;
    format      ascii;
    class       volScalarField;
    location    "3.7";
    object      T;
}
// * * * * * * * * * * * * * * * * * * * * * * * * * * * * * * * * * * * * * //

dimensions      [0 0 0 1 0 0 0];

internalField   nonuniform List<scalar> 
16128
(
1
1
1
1
1
1
1
1
1
1
1
1
1
1
1
1
1
1
1
1
1
1
1
1
2.00776
2.67671
2.69905
2.70819
2.71961
2.73079
2.74101
2.74901
2.75429
2.75739
2.75973
2.76289
2.76816
2.77569
2.78392
2.79063
2.79473
2.79701
2.799
2.80172
2.80531
2.80889
2.81157
2.81309
1
1
1
1
1
1
1
1
1
1
1
1
1
1
1
1
1
1
1
1
1
1
1
1
1.99593
2.67339
2.69874
2.70808
2.71951
2.73066
2.74083
2.74874
2.75392
2.75695
2.75923
2.76238
2.76765
2.77517
2.78336
2.78998
2.79397
2.79618
2.79813
2.80082
2.80438
2.80793
2.81059
2.8121
1
1
1
1
1
1
1
1
1
1
1
1
1
1
1
1
1
1
1
1
1
1
1
1
1.96707
2.66828
2.69724
2.70692
2.71857
2.72989
2.74016
2.74807
2.75316
2.75609
2.75829
2.7614
2.76671
2.77429
2.78248
2.78901
2.79288
2.79499
2.79686
2.79948
2.80295
2.8064
2.80897
2.81043
1
1
1
1
1
1
1
1
1
1
1
1
1
1
1
1
1
1
1
1
1
1
1
1
1.92269
2.65961
2.69432
2.7045
2.71658
2.72831
2.7389
2.74695
2.75199
2.75476
2.75679
2.75978
2.76503
2.77264
2.78085
2.78733
2.7911
2.79312
2.79496
2.79753
2.80092
2.80426
2.80671
2.80809
1
1
1
1
1
1
1
1
1
1
1
1
1
1
1
1
1
1
1
1
1
1
1
1
1.86248
2.64672
2.68988
2.70068
2.71336
2.72573
2.7369
2.74531
2.75041
2.75306
2.75489
2.75765
2.76274
2.7703
2.77855
2.78505
2.78878
2.79073
2.79248
2.79497
2.79825
2.80148
2.80382
2.80515
1
1
1
1
1
1
1
1
1
1
1
1
1
1
1
1
1
1
1
1
1
1
1
1
1.78412
2.62798
2.68403
2.6956
2.70892
2.72194
2.73381
2.74278
2.74814
2.75075
2.75238
2.75484
2.75966
2.7671
2.77541
2.78205
2.78587
2.78779
2.78945
2.7918
2.79491
2.79799
2.80017
2.80142
1
1
1
1
1
1
1
1
1
1
1
1
1
1
1
1
1
1
1
1
1
1
1
1
1.68588
2.60156
2.67856
2.69002
2.7034
2.71663
2.72909
2.73879
2.74468
2.74748
2.74904
2.75124
2.75571
2.76293
2.77128
2.77812
2.7821
2.78403
2.78559
2.7878
2.79075
2.79373
2.7958
2.79702
1
1
1
1
1
1
1
1
1
1
1
1
1
1
1
1
1
1
1
1
1
1
1
1
1.56827
2.56552
2.67627
2.68511
2.69731
2.7101
2.72288
2.7334
2.74014
2.74341
2.74503
2.74697
2.75099
2.7578
2.76607
2.77314
2.77741
2.77945
2.78094
2.78297
2.78571
2.78851
2.79043
2.79156
1
1
1
1
1
1
1
1
1
1
1
1
1
1
1
1
1
1
1
1
1
1
1
1
1.42601
2.51182
2.67658
2.68002
2.69033
2.70199
2.71474
2.72603
2.73399
2.73824
2.74032
2.74218
2.74576
2.752
2.76
2.76718
2.77169
2.77378
2.77512
2.7769
2.77942
2.78212
2.78402
2.78517
1
1
1
1
1
1
1
1
1
1
1
1
1
1
1
1
1
1
1
1
1
1
1
1
1.25934
2.43829
2.67632
2.67513
2.68373
2.69327
2.70501
2.7165
2.72569
2.73143
2.73449
2.7366
2.73985
2.74547
2.75302
2.76018
2.76492
2.76714
2.76836
2.76985
2.77202
2.77436
2.77601
2.77695
1
1
1
1
1
1
1
1
1
1
1
1
1
1
1
1
1
1
1
1
1
1
1
1
1.08359
2.35605
2.67705
2.67476
2.68035
2.68625
2.69526
2.70586
2.71569
2.72285
2.72721
2.72993
2.73302
2.73799
2.74493
2.75195
2.75684
2.75906
2.75992
2.76087
2.76256
2.7646
2.76618
2.76731
1
1
1
1
1
1
1
1
1
1
1
1
1
1
1
1
1
1
1
1
1
1
1
1
1.0027
2.26555
2.67338
2.67274
2.67705
2.68208
2.68882
2.69683
2.70556
2.71332
2.71883
2.72229
2.72531
2.72957
2.73573
2.74242
2.74731
2.74953
2.75012
2.75071
2.75182
2.75289
2.75353
2.75358
1
1
1
1
1
1
1
1
1
1
1
1
1
1
1
1
1
1
1
1
1
1
1
1
1.00001
2.14279
2.67123
2.67399
2.67753
2.68175
2.6864
2.69207
2.69842
2.70462
2.70985
2.71365
2.71654
2.72002
2.72524
2.73136
2.73614
2.73824
2.73819
2.73752
2.73685
2.73682
2.73639
2.73681
1
1
1
1
1
1
1
1
1
1
1
1
1
1
1
1
1
1
1
1
1
1
1
1
1
1.97522
2.64257
2.67124
2.6767
2.68178
2.68532
2.6886
2.6924
2.69679
2.70114
2.70453
2.70695
2.70953
2.7136
2.71861
2.72279
2.72454
2.72378
2.72205
2.72005
2.71846
2.71452
2.70864
1
1
1
1
1
1
1
1
1
1
1
1
1
1
1
1
1
1
1
1
1
1
1
1
1
1.764
2.57579
2.65706
2.67006
2.67877
2.68327
2.6862
2.6889
2.69161
2.69413
2.69628
2.69774
2.69901
2.70144
2.70454
2.70748
2.7085
2.70703
2.70347
2.69734
2.68849
2.67841
2.66978
1
1
1
1
1
1
1
1
1
1
1
1
1
1
1
1
1
1
1
1
1
1
1
1
1
1.46817
2.45481
2.64101
2.6563
2.66705
2.67416
2.67925
2.68317
2.68621
2.68817
2.68906
2.68903
2.68888
2.6893
2.68966
2.69054
2.69003
2.6869
2.68018
2.66928
2.65542
2.64451
2.64799
1
1
1
1
1
1
1
1
1
1
1
1
1
1
1
1
1
1
1
1
1
1
1
1
1
1.11629
2.33757
2.6336
2.63246
2.64221
2.65507
2.66511
2.67252
2.67772
2.68066
2.68142
2.68075
2.67946
2.67742
2.67509
2.67306
2.67002
2.66436
2.65452
2.63749
2.60867
2.54824
2.42995
1
1
1
1
1
1
1
1
1
1
1
1
1
1
1
1
1
1
1
1
1
1
1
1
1
1.00349
2.23133
2.61639
2.61548
2.62342
2.63413
2.64564
2.656
2.66403
2.66951
2.67174
2.67124
2.66934
2.66575
2.66098
2.65562
2.64921
2.63998
2.62514
2.60011
2.55338
2.4811
2.29581
1
1
1
1
1
1
1
1
1
1
1
1
1
1
1
1
1
1
1
1
1
1
1
1
1
0.999993
2.03762
2.6019
2.61583
2.61899
2.62233
2.62892
2.63786
2.64639
2.65393
2.65857
2.65935
2.65776
2.6537
2.64729
2.63892
2.62869
2.61529
2.59518
2.56357
2.5099
2.41888
2.22157
1
1
1
1
1
1
1
1
1
1
1
1
1
1
1
1
1
1
1
1
1
1
1
1
1
0.999998
1.74344
2.53747
2.61494
2.61493
2.61654
2.6188
2.62326
2.62902
2.63585
2.6418
2.64447
2.64365
2.64002
2.63303
2.62268
2.60903
2.59137
2.56674
2.52949
2.47396
2.37149
2.20073
1
1
1
1
1
1
1
1
1
1
1
1
1
1
1
1
1
1
1
1
1
1
1
1
1
1
1.3487
2.40353
2.60646
2.60623
2.60956
2.61138
2.61329
2.6156
2.61919
2.6237
2.62695
2.62681
2.62407
2.61747
2.6064
2.59059
2.5694
2.54107
2.50071
2.44347
2.34411
2.20947
1
1
1
1
1
1
1
1
1
1
1
1
1
1
1
1
1
1
1
1
1
1
1
1
1
1
1.03458
2.25386
2.59971
2.59786
2.59974
2.60314
2.60434
2.60441
2.60491
2.60646
2.6083
2.60816
2.60588
2.59997
2.58918
2.57271
2.54964
2.51863
2.4766
2.4191
2.33006
2.22078
1
1
1
1
1
1
1
1
1
1
1
1
1
1
1
1
1
1
1
1
1
1
1
1
1
1
1.0002
2.03923
2.55392
2.5806
2.58968
2.59389
2.59485
2.59424
2.59295
2.59172
2.59089
2.58942
2.58642
2.58062
2.57042
2.55447
2.53143
2.49971
2.45688
2.40121
2.32349
2.23316
1
1
1
1
1
1
1
1
1
1
1
1
1
1
1
1
1
1
1
1
1
1
1
1
1
1
0.999998
1.65727
2.46533
2.56571
2.57593
2.58254
2.58502
2.58448
2.5826
2.57964
2.57622
2.57234
2.56751
2.56075
2.55056
2.53535
2.51348
2.48307
2.44157
2.38897
2.32019
2.24415
1
1
1
1
1
1
1
1
1
1
1
1
1
1
1
1
1
1
1
1
1
1
1
1
1
1
1
1.15991
2.31956
2.56209
2.55958
2.56421
2.56971
2.57132
2.57035
2.56747
2.56294
2.55717
2.55023
2.54172
2.53065
2.51563
2.49508
2.46681
2.42884
2.37972
2.31916
2.25469
1
1
1
1
1
1
1
1
1
1
1
1
1
1
1
1
1
1
1
1
1
1
1
1
1
1
1
1.00628
2.15773
2.53007
2.53583
2.54555
2.55163
2.55506
2.55574
2.55405
2.54991
2.54346
2.53504
2.52474
2.51218
2.49654
2.47668
2.44999
2.41637
2.37182
2.31904
2.26318
1
1
1
1
1
1
1
1
1
1
1
1
1
1
1
1
1
1
1
1
1
1
1
1
1
1
1
0.999982
1.78529
2.46867
2.51977
2.52974
2.53581
2.53944
2.54076
2.53964
2.53622
2.53006
2.52119
2.50985
2.49603
2.47946
2.45922
2.43339
2.40306
2.36364
2.31841
2.26888
1
1
1
1
1
1
1
1
1
1
1
1
1
1
1
1
1
1
1
1
1
1
1
1
1
1
1
0.999994
1.24119
2.33419
2.52428
2.51706
2.51865
2.52156
2.5231
2.52255
2.52021
2.51515
2.50706
2.49588
2.48153
2.46468
2.44335
2.41829
2.38957
2.35444
2.31587
2.27089
1
1
1
1
1
1
1
1
1
1
1
1
1
1
1
1
1
1
1
1
1
1
1
1
1
1
1
0.999999
1.01406
2.16668
2.49718
2.49662
2.50166
2.50373
2.50493
2.50467
2.50296
2.49892
2.49203
2.48188
2.46839
2.45141
2.42989
2.40575
2.37784
2.3456
2.3115
2.27068
1
1
1
1
1
1
1
1
1
1
1
1
1
1
1
1
1
1
1
1
1
1
1
1
1
1
1
1
1.00001
1.7403
2.42672
2.48508
2.4893
2.49029
2.49017
2.48888
2.48633
2.48219
2.47594
2.46691
2.45457
2.43846
2.41812
2.39514
2.36804
2.3379
2.30624
2.26898
1
1
1
1
1
1
1
1
1
1
1
1
1
1
1
1
1
1
1
1
1
1
1
1
1
1
1
1
0.999996
1.15181
2.27739
2.49062
2.48005
2.47737
2.47571
2.47297
2.4695
2.46514
2.45922
2.45103
2.43979
2.4253
2.40698
2.38566
2.36004
2.33175
2.30174
2.26721
1
1
1
1
1
1
1
1
1
1
1
1
1
1
1
1
1
1
1
1
1
1
1
1
1
1
1
1
0.999999
1.00535
2.05797
2.45101
2.45741
2.46252
2.46105
2.45797
2.4541
2.44929
2.4431
2.43511
2.4247
2.41137
2.39504
2.37573
2.35229
2.32595
2.29766
2.2655
1
1
1
1
1
1
1
1
1
1
1
1
1
1
1
1
1
1
1
1
1
1
1
1
1
1
1
1
1
0.999985
1.5269
2.34376
2.44671
2.4492
2.44817
2.4456
2.44166
2.43627
2.42924
2.42057
2.41008
2.39731
2.38233
2.36493
2.3438
2.31966
2.29372
2.26399
1
1
1
1
1
1
1
1
1
1
1
1
1
1
1
1
1
1
1
1
1
1
1
1
1
1
1
1
1
0.999995
1.07049
2.16318
2.43752
2.43348
2.43287
2.43122
2.42821
2.42312
2.4158
2.40666
2.39596
2.38353
2.36943
2.3534
2.33409
2.31217
2.2887
2.26163
1
1
1
1
1
1
1
1
1
1
1
1
1
1
1
1
1
1
1
1
1
1
1
1
1
1
1
1
1
0.999999
1.00093
1.75076
2.35735
2.41143
2.41394
2.41558
2.41432
2.41023
2.40328
2.39422
2.38349
2.37115
2.3573
2.34185
2.3239
2.3039
2.28247
2.25819
1
1
1
1
1
1
1
1
1
1
1
1
1
1
1
1
1
1
1
1
1
1
1
1
1
1
1
1
1
1
0.999998
1.16327
2.19348
2.4091
2.40073
2.40152
2.40002
2.39612
2.3899
2.38162
2.37148
2.35954
2.34595
2.33078
2.31368
2.29502
2.27509
2.25323
1
1
1
1
1
1
1
1
1
1
1
1
1
1
1
1
1
1
1
1
1
1
1
1
1
1
1
1
1
1
1
1.0057
1.8787
2.35805
2.37734
2.38154
2.38109
2.37882
2.37439
2.36774
2.35898
2.34811
2.33521
2.32051
2.30409
2.2863
2.26742
2.24714
1
1
1
1
1
1
1
1
1
1
1
1
1
1
1
1
1
1
1
1
1
1
1
1
1
1
1
1
1
1
1
1
1.25142
2.20295
2.37766
2.3698
2.36707
2.3638
2.35933
2.35345
2.34577
2.33595
2.32393
2.31009
2.29463
2.27777
2.25984
2.24063
1
1
1
1
1
1
1
1
1
1
1
1
1
1
1
1
1
1
1
1
1
1
1
1
1
1
1
1
1
1
1
1
1.01397
1.93668
2.33948
2.353
2.34981
2.3467
2.34282
2.33762
2.33076
2.32202
2.31131
2.29887
2.28487
2.26935
2.25248
2.23432
1
1
1
1
1
1
1
1
1
1
1
1
1
1
1
1
1
1
1
1
1
1
1
1
1
1
1
1
1
1
1
1
1.00004
1.30844
2.19192
2.34837
2.33918
2.33456
2.32968
2.32373
2.3168
2.30869
2.29914
2.28802
2.27527
2.26098
2.24517
2.22805
1
1
1
1
1
1
1
1
1
1
1
1
1
1
1
1
1
1
1
1
1
1
1
1
1
1
1
1
1
1
1
1
1
1.02135
1.9414
2.3124
2.32572
2.32118
2.31597
2.30982
2.30268
2.29452
2.28543
2.27525
2.26375
2.25099
2.23685
2.2212
1
1
1
1
1
1
1
1
1
1
1
1
1
1
1
1
1
1
1
1
1
1
1
1
1
1
1
1
1
1
1
1
1
1.0001
1.32474
2.1614
2.31637
2.30921
2.30429
2.29785
2.29011
2.28159
2.27264
2.26314
2.25274
2.24135
2.22875
2.21452
1
1
1
1
1
1
1
1
1
1
1
1
1
1
1
1
1
1
1
1
1
1
1
1
1
1
1
1
1
1
1
1
1
1
1.02372
1.88964
2.27674
2.29896
2.29208
2.28522
2.27757
2.2694
2.26074
2.25159
2.24171
2.23106
2.21935
2.20626
1
1
1
1
1
1
1
1
1
1
1
1
1
1
1
1
1
1
1
1
1
1
1
1
1
1
1
1
1
1
1
1
1
1
1.00015
1.28902
2.11362
2.28612
2.27887
2.27362
2.26657
2.2588
2.25044
2.2415
2.23177
2.22136
2.21011
2.19768
1
1
1
1
1
1
1
1
1
1
1
1
1
1
1
1
1
1
1
1
1
1
1
1
1
1
1
1
1
1
1
1
1
1
1
1.01845
1.77908
2.22674
2.26875
2.26094
2.25427
2.24768
2.24043
2.23212
2.22255
2.21204
2.20091
2.18877
1
1
1
1
1
1
1
1
1
1
1
1
1
1
1
1
1
1
1
1
1
1
1
1
1
1
1
1
1
1
1
1
1
1
1
1.00012
1.21039
2.0441
2.25448
2.24754
2.24405
2.23875
2.23175
2.22331
2.21363
2.20305
2.19209
2.1804
1
1
1
1
1
1
1
1
1
1
1
1
1
1
1
1
1
1
1
1
1
1
1
1
1
1
1
1
1
1
1
1
1
1
1
1
1.00956
1.59968
2.15017
2.2342
2.22892
2.22505
2.21937
2.21214
2.20364
2.19394
2.18351
2.17251
1
1
1
1
1
1
1
1
1
1
1
1
1
1
1
1
1
1
1
1
1
1
1
1
1
1
1
1
1
1
1
1
1
1
1
1
1.00006
1.11196
1.94314
2.22224
2.21614
2.21122
2.20593
2.20038
2.19366
2.18537
2.17561
2.16516
1
1
1
1
1
1
1
1
1
1
1
1
1
1
1
1
1
1
1
1
1
1
1
1
1
1
1
1
1
1
1
1
1
1
1
1
1
1.0028
1.41873
2.08286
2.20199
2.19339
2.18979
2.18553
2.18022
2.17368
2.16557
2.1561
1
1
1
1
1
1
1
1
1
1
1
1
1
1
1
1
1
1
1
1
1
1
1
1
1
1
1
1
1
1
1
1
1
1
1
1
1
1.00001
1.0455
1.77659
2.15734
2.18962
2.18196
2.17555
2.16937
2.16298
2.15592
2.14769
1
1
1
1
1
1
1
1
1
1
1
1
1
1
1
1
1
1
1
1
1
1
1
1
1
1
1
1
1
1
1
1
1
1
1
1
1
1
1.00062
1.23091
1.97465
2.17677
2.16907
2.16301
2.15689
2.1506
2.14408
2.13701
1
1
1
1
1
1
1
1
1
1
1
1
1
1
1
1
1
1
1
1
1
1
1
1
1
1
1
1
1
1
1
1
1
1
1
1
1
1
1
1.01203
1.52422
2.07194
2.15793
2.15048
2.14491
2.13939
2.13326
2.1265
1
1
1
1
1
1
1
1
1
1
1
1
1
1
1
1
1
1
1
1
1
1
1
1
1
1
1
1
1
1
1
1
1
1
1
1
1
1
1
1.0001
1.08251
1.80988
2.12397
2.14571
2.13811
2.13099
2.12405
2.11684
1
1
1
1
1
1
1
1
1
1
1
1
1
1
1
1
1
1
1
1
1
1
1
1
1
1
1
1
1
1
1
1
1
1
1
1
1
1
1
1
1.00176
1.2803
1.95445
2.13027
2.12617
2.11971
2.11327
2.10651
1
1
1
1
1
1
1
1
1
1
1
1
1
1
1
1
1
1
1
1
1
1
1
1
1
1
1
1
1
1
1
1
1
1
1
1
1
1
1
1
1.00001
1.0187
1.53192
2.03545
2.11613
2.10904
2.10231
2.09633
1
1
1
1
1
1
1
1
1
1
1
1
1
1
1
1
1
1
1
1
1
1
1
1
1
1
1
1
1
1
1
1
1
1
1
1
1
1
1
1
1
1.00019
1.08934
1.76787
2.07205
2.10573
2.09675
2.08864
1
1
1
1
1
1
1
1
1
1
1
1
1
1
1
1
1
1
1
1
1
1
1
1
1
1
1
1
1
1
1
1
1
1
1
1
1
1
1
1
1
1
1.00215
1.25359
1.89398
2.08786
2.08729
2.08033
1
1
1
1
1
1
1
1
1
1
1
1
1
1
1
1
1
1
1
1
1
1
1
1
1
1
1
1
1
1
1
1
1
1
1
1
1
1
1
1
1
1
1.00001
1.01553
1.45711
1.97462
2.07508
2.07066
1
1
1
1
1
1
1
1
1
1
1
1
1
1
1
1
1
1
1
1
1
1
1
1
1
1
1
1
1
1
1
1
1
1
1
1
1
1
1
1
1
1
1
1.00016
1.06359
1.65722
2.0167
2.06574
1
1
1
1
1
1
1
1
1
1
1
1
1
1
1
1
1
1
1
1
1
1
1
1
1
1
1
1
1
1
1
1
1
1
1
1
1
1
1
1
1
1
1
1
1.00129
1.17103
1.80418
2.03069
1
1
1
1
1
1
1
1
1
1
1
1
1
1
1
1
1
1
1
1
1
1
1
1
1
1
1
1
1
1
1
1
1
1
1
1
1
1
1
1
1
1
1
1
1.00001
1.00734
1.32919
1.88076
1
1
1
1
1
1
1
1
1
1
1
1
1
1
1
1
1
1
1
1
1
1
1
1
1
1
1
1
1
1
1
1
1
1
1
1
1
1
1
1
1
1
1
1
1
1.00006
1.02925
1.48913
1
1
1
1
1
1
1
1
1
1
1
1
1
1
1
1
1
1
1
1
1
1
1
1
1
1
1
1
1
1
1
1
1
1
1
1
1
1
1
1
1
1
1
1
1
1
1.00041
1.08108
1
1
1
1
1
1
1
1
1
1
1
1
1
1
1
1
1
1
1
1
1
1
1
1
1
1
1
1
1
1
1
1
1
1
1
1
1
1
1
1
1
1
1
1
1
1
1
1.00216
1
1
1
1
1
1
1
1
1
1
1
1
1
1
1
1
1
1
1
1
1
1
1
1
1
1
1
1
1
1
1
1
1
1
1
1
1
1
1
1
1
1
1
1
1
1
1
1.00001
1
1
1
1
1
1
1
1
1
1
1
1
1
1
1
1
1
1
1
1
1
1
1
1
1
1
1
1
1
1
1
1
1
1
1
1
1
1
1
1
1
1
1
1
1
1
1
1
1
1
1
1
1
1
1
1
1
1
1
1
1
1
1
1
1
1
1
1
1
1
1
1
1
1
1
1
1
1
1
1
1
1
1
1
1
1
1
1
1
1
1
1
1
1
1
1
1
1
1
1
1
1
1
1
1
1
1
1
1
1
1
1
1
1
1
1
1
1
1
1
1
1
1
1
1
1
1
1
1
1
1
1
1
1
1
1
1
1
1
1
1
1
1
1
1
1
1
1
1
1
1
1
1
1
1
1
1
1
1
1
1
1
1
1
1
1
1
1
1
1
1
1
1
1
1
1
1
1
1
1
1
1
1
1
1
1
1
1
1
1
1
1
1
1
1
1
1
1
1
1
1
1
1
1
1
1
1
1
1
1
1
1
1
1
1
1
1
1
1
1
1
1
1
1
1
1
1
1
1
1
1
1
1
1
1
1
1
1
1
1
1
1
1
1
1
1
1
1
1
1
1
1
1
1
1
1
1
1
1
1
1
1
1
1
1
1
1
1
1
1
1
1
1
1
1
1
1
1
1
1
1
1
1
1
1
1
1
1
1
1
1
1
1
1
1
1
1
1
1
1
1
1
1
1
1
1
1
1
1
1
1
1
1
1
1
1
1
1
1
1
1
1
1
1
1
1
1
1
1
1
1
1
1
1
1
1
1
1
1
1
1
1
1
1
1
1
1
1
1
1
1
1
1
1
1
1
1
1
1
1
1
1
1
1
1
1
1
1
1
1
1
1
1
1
1
1
1
1
1
1
1
1
1
1
1
1
1
1
1
1
1
1
1
1
1
1
1
1
1
1
1
1
1
1
1
1
1
1
1
1
1
1
1
1
1
1
1
1
1
1
1
1
1
1
1
1
1
1
1
1
1
1
1
1
1
1
1
1
1
1
1
1
1
1
1
1
1
1
1
1
1
1
1
1
1
1
1
1
1
1
1
1
1
1
1
1
1
1
1
1
1
1
1
1
1
1
1
1
1
1
1
1
1
1
1
1
1
1
1
1
1
1
1
1
1
1
1
1
1
1
1
1
1
1
1
1
1
1
1
1
1
1
1
1
1
1
1
1
1
1
1
1
1
1
1
1
1
1
1
1
1
1
1
1
1
1
1
1
1
1
1
1
1
1
1
1
1
1
1
1
1
1
1
1
1
1
1
1
1
1
1
1
1
1
1
1
1
1
1
1
1
1
1
1
1
1
1
1
1
1
1
1
1
1
1
1
1
1
1
1
1
1
1
1
1
1
1
1
1
1
1
1
1
1
1
1
1
1
1
1
1
1
1
1
1
1
1
1
1
1
1
1
1
1
1
1
1
1
1
1
1
1
1
1
1
1
1
1
1
1
1
1
1
1
1
1
1
1
1
1
1
1
1
1
1
1
1
1
1
1
1
1
1
1
1
1
1
1
1
1
1
1
1
1
1
1
1
1
1
1
1
1
1
1
1
1
1
1
1
1
1
1
1
1
1
1
1
1
1
1
1
1
1
1
1
1
1
1
1
1
1
1
1
1
1
1
1
1
1
1
1.54282
0.841949
0.826288
0.949315
1.02024
1.04973
1.11255
1.12534
1.13894
1.19769
1.33026
1.48436
1.58376
1.58697
1.56932
1.55177
1.54829
1.55765
1.6182
1.65643
1.64842
1.62465
1.6064
1.60894
1.61592
1.62824
1.6337
1.63109
1.63003
1.63157
1.63718
1.64863
1.66055
1.67033
1.67366
1.67304
1.66984
1.66937
1.67164
1.678
1.68599
1.68798
1.68699
1.68299
1.68066
1.6812
1.68494
1.69107
1.69404
1.69402
1.69097
1.68408
1.67493
1.66623
1.6608
1.6578
1.65794
1.66226
1.66527
2.28078
2.79792
2.8269
2.82484
2.82459
2.82404
2.82148
2.81392
2.80202
2.78818
2.77517
2.7657
2.75936
2.7533
2.74796
2.74297
2.73857
2.73492
2.7312
2.72534
2.71567
2.7031
2.69009
2.67847
2.669
2.6614
2.65438
2.64605
2.63565
2.6229
2.60944
2.59777
2.58891
2.58325
2.58021
2.5785
2.57629
2.57155
2.5636
2.55357
2.54269
2.53174
2.52172
2.51394
2.50929
2.50503
2.49892
2.49035
2.48044
2.4686
2.45265
2.43748
2.42712
2.42004
2.41614
2.41591
2.41604
2.41423
2.41121
2.40653
2.39961
2.39164
2.3826
2.37382
2.36681
2.3612
2.35644
2.35213
2.34771
2.34304
2.33665
2.32739
2.31666
2.30407
2.29311
2.28442
2.2767
2.26963
2.26232
2.25262
2.24123
2.23143
2.22489
2.22008
2.2163
2.21494
2.21527
2.21502
2.21164
2.2058
2.19884
2.18896
2.17781
2.16866
2.16125
2.15456
2.14824
2.14193
2.1347
2.12551
2.11482
2.10642
2.10055
2.09592
2.09368
2.0935
2.09204
2.08888
2.08524
2.0803
2.07203
2.06276
2.05711
2.05394
2.05123
2.04891
2.04818
2.04848
2.04532
2.03938
2.03172
2.01968
2.00574
1.99677
1.99214
1.98898
1.9873
1.9883
1.98951
1.98761
1.98388
1.9802
1.97026
1.81261
1.45394
1.24157
1.12914
1.13922
1.15452
1.13745
1.05828
1.03592
1.05273
1.08894
1.15763
1.22565
1.26391
1.28454
1.31016
1.34709
1.38183
1.42875
1.47678
1.51363
1.52435
1.53063
1.54614
1.55724
1.57553
1.58914
1.58764
1.58533
1.58751
1.59508
1.60471
1.61629
1.62778
1.63538
1.63889
1.63955
1.63971
1.64085
1.64513
1.65208
1.65605
1.65683
1.6568
1.65701
1.65846
1.66165
1.66457
1.66576
1.66602
1.66579
1.66395
1.66008
1.65547
1.65107
1.64728
1.64533
1.64563
1.64725
2.23753
2.78363
2.82023
2.81481
2.80878
2.80347
2.79768
2.79063
2.78143
2.76939
2.75563
2.74307
2.73407
2.72828
2.72418
2.71939
2.71359
2.7078
2.70287
2.69878
2.69384
2.68619
2.67539
2.66269
2.65007
2.63814
2.62809
2.62065
2.61453
2.60809
2.60006
2.59007
2.57987
2.57099
2.56396
2.55871
2.55539
2.55274
2.54837
2.54099
2.53144
2.52066
2.50948
2.49921
2.4906
2.48331
2.47547
2.46722
2.45871
2.45027
2.4424
2.43488
2.42759
2.42122
2.4165
2.41288
2.4081
2.40192
2.39541
2.38952
2.38517
2.38105
2.37687
2.37183
2.36616
2.35997
2.3533
2.34662
2.34008
2.33304
2.32555
2.31686
2.30666
2.29607
2.28617
2.27727
2.26917
2.26181
2.25509
2.24858
2.24179
2.23401
2.22565
2.21846
2.21347
2.20991
2.20722
2.20387
2.19971
2.19589
2.19136
2.18525
2.17839
2.16988
2.16056
2.15161
2.14349
2.13597
2.12885
2.12139
2.11398
2.10714
2.10028
2.09508
2.09203
2.08949
2.08542
2.08155
2.07799
2.07439
2.06938
2.06374
2.05827
2.0534
2.04976
2.04701
2.04451
2.04143
2.03774
2.03332
2.02723
2.01875
2.00881
1.99921
1.99232
1.9883
1.9858
1.98431
1.98302
1.98173
1.97879
1.97523
1.96675
1.92381
1.71729
1.51184
1.32189
1.30989
1.25934
1.1794
1.11297
1.10508
1.09358
1.06118
1.06214
1.07904
1.10708
1.13821
1.14432
1.16404
1.20556
1.23948
1.27303
1.32449
1.36567
1.40417
1.44289
1.46484
1.48573
1.50558
1.51486
1.51732
1.52552
1.53604
1.54535
1.55563
1.56403
1.5668
1.56829
1.57052
1.57509
1.57933
1.58354
1.58922
1.59335
1.5951
1.59655
1.59968
1.60611
1.61193
1.61311
1.61273
1.61221
1.61256
1.61434
1.61756
1.61927
1.61859
1.61555
1.61178
1.60729
1.60992
2.07636
2.70341
2.75931
2.74233
2.73743
2.73253
2.72522
2.71808
2.71193
2.70524
2.69668
2.68482
2.67189
2.66296
2.65859
2.65692
2.65412
2.64855
2.64183
2.63568
2.63058
2.6268
2.62326
2.61745
2.60708
2.5937
2.57972
2.56758
2.55793
2.55268
2.55016
2.54666
2.54047
2.53261
2.52383
2.51514
2.50829
2.50416
2.50211
2.50009
2.49654
2.49136
2.48497
2.4766
2.46528
2.45201
2.43859
2.42583
2.41471
2.40681
2.40231
2.39934
2.3969
2.39578
2.39523
2.39246
2.38668
2.37824
2.36684
2.35566
2.3484
2.3442
2.34239
2.34221
2.34235
2.34121
2.33795
2.33213
2.32249
2.31038
2.30001
2.29144
2.28372
2.2768
2.26902
2.26003
2.25042
2.24035
2.23226
2.227
2.22341
2.2199
2.21589
2.21116
2.20461
2.19607
2.18768
2.18162
2.17705
2.17276
2.16889
2.16719
2.16548
2.1608
2.15467
2.14605
2.13437
2.12217
2.11244
2.10542
2.10001
2.09624
2.09286
2.08866
2.08357
2.07762
2.07137
2.06614
2.06151
2.05701
2.05468
2.05315
2.05119
2.04878
2.04514
2.03972
2.03325
2.02805
2.0236
2.01852
2.01293
2.00809
2.00315
1.99821
1.99206
1.98468
1.97796
1.97369
1.97108
1.96899
1.96677
1.96416
1.95681
1.98862
1.83157
1.65463
1.52443
1.45698
1.38051
1.30338
1.24943
1.22138
1.19913
1.15715
1.12196
1.1221
1.12816
1.12315
1.11594
1.12024
1.13335
1.14455
1.15966
1.19113
1.23049
1.27573
1.33051
1.37105
1.38474
1.39778
1.42075
1.43729
1.45828
1.47702
1.48799
1.49509
1.50014
1.50526
1.50759
1.51087
1.51674
1.52084
1.52252
1.52412
1.52572
1.52729
1.53025
1.53691
1.54636
1.55168
1.55322
1.55337
1.55315
1.55343
1.55526
1.55912
1.5643
1.56562
1.56466
1.56291
1.56681
1.5845
1.82825
2.51505
2.66579
2.62528
2.61367
2.61277
2.60988
2.60272
2.59662
2.59125
2.58768
2.58261
2.57181
2.56256
2.55595
2.55208
2.55038
2.5492
2.54661
2.54252
2.53729
2.53221
2.52722
2.52335
2.51914
2.51259
2.5047
2.49568
2.48697
2.48003
2.47488
2.47134
2.4669
2.45995
2.45203
2.44333
2.43503
2.42916
2.42554
2.42369
2.42237
2.4212
2.41993
2.4172
2.41175
2.4042
2.39467
2.3828
2.3706
2.3607
2.35333
2.34801
2.34496
2.34438
2.34375
2.34059
2.33593
2.33012
2.32214
2.31223
2.30309
2.29701
2.29326
2.29183
2.2927
2.29349
2.29262
2.29017
2.28439
2.27359
2.26149
2.25285
2.24612
2.24009
2.23514
2.22935
2.22161
2.21321
2.20445
2.19695
2.19176
2.18835
2.18562
2.18238
2.1775
2.16965
2.16039
2.15247
2.14627
2.14169
2.13846
2.13707
2.13608
2.13376
2.1297
2.12364
2.11481
2.10385
2.09364
2.0859
2.07993
2.07598
2.07353
2.06936
2.06455
2.05893
2.05136
2.04303
2.03658
2.03305
2.03112
2.03036
2.03041
2.02996
2.02825
2.02509
2.0191
2.01043
2.00203
1.99641
1.99266
1.98981
1.98815
1.98563
1.98116
1.97574
1.9684
1.9599
1.95293
1.94878
1.94614
1.94431
1.93907
2.04566
1.9143
1.77909
1.66057
1.57393
1.48987
1.4213
1.38386
1.33702
1.30009
1.26999
1.21929
1.18942
1.19056
1.18221
1.16177
1.15997
1.16433
1.1602
1.16046
1.15799
1.15841
1.16466
1.18552
1.22764
1.26316
1.29222
1.33977
1.38032
1.40377
1.42246
1.43555
1.44336
1.44859
1.45853
1.46816
1.47233
1.4782
1.48409
1.48733
1.48926
1.49135
1.49388
1.49917
1.50873
1.51583
1.5178
1.51857
1.51782
1.51418
1.51154
1.51168
1.51456
1.52066
1.52775
1.53252
1.53725
1.56213
1.65958
1.79206
2.21222
2.49504
2.53778
2.51271
2.50048
2.49625
2.49325
2.4888
2.48566
2.48318
2.4819
2.47825
2.47358
2.46956
2.46463
2.46116
2.45925
2.45761
2.45535
2.45217
2.44735
2.44215
2.43752
2.43318
2.42936
2.42493
2.42018
2.41506
2.40966
2.40464
2.40043
2.39638
2.39056
2.38421
2.37653
2.36784
2.36127
2.35699
2.35363
2.35075
2.34806
2.34572
2.34328
2.34029
2.33674
2.33176
2.32545
2.31787
2.30899
2.3013
2.29548
2.29136
2.28877
2.2851
2.28083
2.27654
2.27185
2.26613
2.25923
2.25253
2.24737
2.24356
2.24081
2.23857
2.23661
2.23498
2.23284
2.22886
2.22139
2.21185
2.20409
2.19823
2.19273
2.18721
2.18235
2.17796
2.17246
2.16666
2.16127
2.15583
2.15065
2.14584
2.14093
2.13495
2.12737
2.11933
2.11282
2.10886
2.10649
2.10482
2.10285
2.09995
2.09639
2.09145
2.08517
2.07819
2.07182
2.06662
2.06153
2.05646
2.05128
2.04588
2.04054
2.03495
2.02826
2.02011
2.01249
2.0082
2.00568
2.00375
2.00239
2.00122
2.00012
1.99887
1.99695
1.99343
1.98724
1.97901
1.97313
1.97004
1.96735
1.96512
1.96218
1.9583
1.95384
1.94812
1.94092
1.93336
1.92704
1.92244
1.91948
1.91439
2.09622
1.97721
1.86475
1.76767
1.67964
1.59438
1.52128
1.48142
1.4304
1.38429
1.36247
1.3338
1.28521
1.26767
1.25331
1.22424
1.21424
1.21243
1.20106
1.18087
1.17558
1.1723
1.16437
1.16398
1.16853
1.17834
1.19151
1.22313
1.2774
1.3163
1.34862
1.37523
1.39484
1.40924
1.42923
1.4477
1.45269
1.45789
1.46415
1.46716
1.4681
1.47096
1.47514
1.48147
1.4888
1.49391
1.49637
1.49758
1.49757
1.49627
1.49549
1.49491
1.49592
1.50053
1.5086
1.51891
1.54624
1.64562
1.82489
1.8749
1.9633
2.25743
2.41374
2.4595
2.44903
2.43641
2.42941
2.42292
2.41683
2.41345
2.41169
2.41329
2.41352
2.41172
2.40809
2.40168
2.39728
2.39486
2.39316
2.39162
2.3892
2.38485
2.37869
2.37323
2.36892
2.36548
2.36193
2.35842
2.35451
2.35083
2.34768
2.34426
2.34014
2.3355
2.32982
2.32276
2.31551
2.30939
2.30417
2.29927
2.29442
2.29045
2.28798
2.28607
2.28475
2.28314
2.27998
2.27533
2.26826
2.25945
2.25229
2.24671
2.24183
2.23711
2.23255
2.22813
2.22362
2.21873
2.21356
2.20875
2.20466
2.20067
2.19627
2.19164
2.18764
2.1846
2.18173
2.17817
2.17334
2.16792
2.16269
2.15721
2.15126
2.14568
2.14053
2.13637
2.13328
2.12974
2.12574
2.1213
2.11512
2.10745
2.09986
2.09297
2.08682
2.08164
2.07749
2.07422
2.07179
2.06962
2.06705
2.06344
2.05827
2.05195
2.04611
2.04206
2.03896
2.03652
2.03426
2.03065
2.0257
2.01936
2.01176
2.00364
1.99554
1.98826
1.98253
1.9784
1.97577
1.97384
1.97217
1.97053
1.96886
1.96697
1.9647
1.96195
1.95838
1.95366
1.9479
1.94355
1.94099
1.93818
1.93465
1.9303
1.92527
1.91998
1.9147
1.90934
1.90376
1.89835
1.89433
1.88822
2.13393
2.03025
1.93495
1.84846
1.76591
1.67976
1.62045
1.5689
1.51989
1.46829
1.43679
1.40652
1.36573
1.33776
1.32172
1.29541
1.27102
1.26661
1.2582
1.23328
1.2196
1.21726
1.20575
1.18931
1.18867
1.19257
1.19172
1.19115
1.19807
1.21084
1.23368
1.26553
1.3011
1.34077
1.37505
1.41596
1.43628
1.44313
1.45118
1.45375
1.45422
1.45803
1.46551
1.47471
1.48004
1.48261
1.48499
1.48718
1.48817
1.48816
1.4893
1.48992
1.49009
1.49415
1.50444
1.54644
1.65247
1.79969
1.90393
1.919
1.92358
2.01135
2.24783
2.38803
2.42885
2.42109
2.4104
2.39905
2.38951
2.3855
2.38338
2.38566
2.38772
2.38621
2.38323
2.37748
2.37051
2.36639
2.36442
2.36296
2.36012
2.35619
2.35044
2.34371
2.3385
2.33454
2.33098
2.32711
2.32325
2.31922
2.31471
2.3108
2.3073
2.30339
2.29908
2.29401
2.28816
2.28237
2.27705
2.27197
2.26704
2.26274
2.25984
2.25859
2.25854
2.25806
2.25527
2.25034
2.24296
2.23412
2.2257
2.21817
2.21184
2.20661
2.20193
2.1975
2.19312
2.18862
2.18413
2.17986
2.17545
2.17057
2.16513
2.15926
2.15357
2.14872
2.14454
2.14037
2.13623
2.13262
2.12926
2.12543
2.12065
2.11537
2.11106
2.10789
2.10604
2.1034
2.09914
2.09257
2.08304
2.07351
2.06617
2.06115
2.05805
2.0559
2.05384
2.05103
2.04681
2.04142
2.03574
2.02991
2.02413
2.01928
2.01612
2.01384
2.01236
2.01172
2.01011
2.00673
2.00224
1.99482
1.98534
1.9769
1.9705
1.96563
1.96113
1.95622
1.95114
1.94715
1.94443
1.94218
1.94009
1.9381
1.93622
1.93466
1.93328
1.9313
1.92736
1.92088
1.91467
1.9105
1.90663
1.90238
1.8981
1.89425
1.89094
1.88765
1.8834
1.87663
1.86945
1.86222
2.15974
2.07056
1.99092
1.91398
1.83255
1.75886
1.70121
1.64565
1.59201
1.55338
1.51432
1.47706
1.43368
1.39242
1.37542
1.36058
1.33692
1.32575
1.31723
1.29561
1.26953
1.26256
1.25633
1.23635
1.22091
1.21998
1.21555
1.20578
1.20216
1.20408
1.20453
1.20701
1.2156
1.23633
1.26873
1.31018
1.35693
1.38362
1.40868
1.42674
1.43587
1.44563
1.45936
1.47641
1.47959
1.47952
1.47802
1.47721
1.47834
1.48071
1.48345
1.48688
1.49225
1.50367
1.54858
1.68398
1.81867
1.8945
1.90652
1.92248
1.93116
1.9395
2.03371
2.25424
2.39207
2.4133
2.405
2.39479
2.38712
2.38219
2.37832
2.37713
2.37862
2.3782
2.37541
2.37137
2.36539
2.35762
2.35247
2.34897
2.34579
2.34277
2.33926
2.33456
2.32872
2.32346
2.31949
2.31569
2.31136
2.30613
2.29994
2.29414
2.28987
2.28588
2.28196
2.27801
2.27369
2.26921
2.265
2.26112
2.25759
2.25398
2.24981
2.24531
2.2414
2.23779
2.23349
2.22831
2.22253
2.21615
2.20938
2.20208
2.19484
2.18876
2.18381
2.17928
2.17461
2.16959
2.16461
2.16004
2.15564
2.15145
2.14724
2.14253
2.1369
2.13022
2.12367
2.1185
2.11482
2.11212
2.10967
2.10725
2.10443
2.10069
2.09577
2.09062
2.08615
2.08105
2.07464
2.06719
2.05928
2.0529
2.04907
2.04687
2.04608
2.04491
2.0423
2.0374
2.02885
2.01897
2.01101
2.0053
2.00135
1.99883
1.99693
1.99595
1.99583
1.99456
1.99171
1.98768
1.9811
1.97248
1.96461
1.95896
1.95484
1.95099
1.94655
1.94076
1.93354
1.92696
1.92292
1.92046
1.91858
1.91727
1.91694
1.91723
1.91701
1.91576
1.91224
1.90403
1.89338
1.88599
1.88175
1.87852
1.87589
1.87374
1.87156
1.86936
1.86632
1.8596
1.85044
1.84295
2.18103
2.1046
2.0352
1.96406
1.88803
1.827
1.76836
1.71392
1.66149
1.62097
1.57743
1.53511
1.49899
1.46088
1.43312
1.41712
1.3923
1.37081
1.3637
1.35276
1.32564
1.30295
1.29762
1.28826
1.26703
1.2584
1.2568
1.24659
1.2323
1.2261
1.21956
1.21835
1.21952
1.21905
1.22209
1.23166
1.25055
1.27423
1.30242
1.34396
1.38237
1.4142
1.4428
1.46907
1.47711
1.47838
1.47752
1.47111
1.46866
1.47072
1.47452
1.4845
1.5107
1.57167
1.70382
1.83982
1.89334
1.91107
1.91545
1.92326
1.93491
1.94069
1.94891
2.03779
2.25807
2.37943
2.39766
2.39642
2.39289
2.38989
2.38269
2.37537
2.37324
2.37151
2.37216
2.37002
2.36509
2.3576
2.3474
2.34135
2.3379
2.33606
2.33494
2.33186
2.32723
2.32057
2.31437
2.30965
2.30493
2.29957
2.29356
2.28729
2.28217
2.27823
2.27466
2.27134
2.26793
2.26434
2.26077
2.25743
2.25393
2.24946
2.24397
2.23651
2.22762
2.22053
2.21598
2.21237
2.20835
2.20384
2.19907
2.19347
2.18674
2.1798
2.174
2.16908
2.16411
2.1587
2.1534
2.14895
2.14523
2.14198
2.13857
2.13462
2.1294
2.12198
2.11368
2.1081
2.10498
2.10249
2.10089
2.09995
2.0977
2.09384
2.08805
2.07914
2.06948
2.06147
2.05501
2.04944
2.04617
2.04397
2.04291
2.04226
2.04033
2.03712
2.03153
2.02347
2.01358
2.00383
1.99637
1.99183
1.98925
1.98762
1.98699
1.98708
1.98571
1.98261
1.97787
1.97064
1.96252
1.956
1.95162
1.94825
1.94508
1.94146
1.9367
1.93042
1.92325
1.91636
1.91092
1.90776
1.90601
1.90527
1.90662
1.90756
1.90617
1.90319
1.89755
1.88895
1.87938
1.87106
1.86574
1.86298
1.86088
1.8594
1.85827
1.8563
1.85236
1.84567
1.83878
1.83201
2.19695
2.13195
2.06955
2.00116
1.938
1.88175
1.82602
1.76816
1.72318
1.67863
1.63518
1.58892
1.55348
1.51974
1.48997
1.47327
1.45609
1.42366
1.40347
1.39536
1.37935
1.35041
1.33606
1.33155
1.31848
1.29854
1.29236
1.28701
1.27154
1.25884
1.24832
1.24236
1.23911
1.23479
1.22925
1.23151
1.23205
1.23079
1.23365
1.24788
1.27715
1.31508
1.35848
1.39949
1.43552
1.45593
1.46421
1.46446
1.46112
1.46099
1.46735
1.49174
1.59001
1.71803
1.85191
1.90729
1.91055
1.91121
1.91189
1.91755
1.93265
1.93989
1.93996
1.94654
2.02693
2.23274
2.35426
2.38734
2.39756
2.39659
2.38868
2.37839
2.37002
2.36696
2.36466
2.3659
2.36321
2.35755
2.34762
2.33678
2.33216
2.33003
2.33044
2.32901
2.32505
2.31903
2.3104
2.30308
2.2984
2.29413
2.2894
2.28362
2.27789
2.27362
2.27005
2.26707
2.26389
2.26046
2.25698
2.25328
2.2489
2.24383
2.23811
2.23076
2.22088
2.21141
2.20554
2.20135
2.19774
2.19529
2.1921
2.1879
2.18281
2.17607
2.16898
2.16288
2.15744
2.15237
2.14783
2.14381
2.14039
2.13735
2.13413
2.12995
2.12435
2.11721
2.10984
2.10378
2.09995
2.09746
2.09575
2.09355
2.09018
2.08577
2.07963
2.07084
2.06004
2.05104
2.04501
2.04188
2.0402
2.0402
2.04006
2.03813
2.0341
2.02732
2.0191
2.01101
2.00368
1.99702
1.9914
1.98732
1.98474
1.98345
1.98306
1.98182
1.97816
1.97186
1.96349
1.9558
1.94987
1.94644
1.94396
1.94164
1.93852
1.9338
1.9281
1.92234
1.91734
1.91296
1.9082
1.90377
1.90143
1.9005
1.89912
1.89631
1.89247
1.88806
1.8826
1.87683
1.8714
1.86581
1.85992
1.85549
1.85327
1.85109
1.84752
1.84248
1.83788
1.83382
1.83097
1.82656
2.21093
2.15589
2.09703
2.03432
1.98013
1.92571
1.86953
1.81822
1.77388
1.72831
1.68295
1.64118