/*--------------------------------*- C++ -*----------------------------------*\
  =========                 |
  \\      /  F ield         | OpenFOAM: The Open Source CFD Toolbox
   \\    /   O peration     | Website:  https://openfoam.org
    \\  /    A nd           | Version:  7
     \\/     M anipulation  |
\*---------------------------------------------------------------------------*/
FoamFile
{
    version     2.0;
    format      ascii;
    class       volVectorField;
    location    "3.7";
    object      U;
}
// * * * * * * * * * * * * * * * * * * * * * * * * * * * * * * * * * * * * * //

dimensions      [0 1 -1 0 0 0 0];

internalField   nonuniform List<vector> 
16128
(
(3 -2.00186e-18 0)
(3 7.54712e-17 0)
(3 -3.57218e-16 0)
(3 -2.07665e-16 0)
(3 -2.68677e-16 0)
(3 -2.86453e-16 0)
(3 -2.97031e-16 0)
(3 -5.36864e-16 0)
(3 -6.24273e-16 0)
(3 -4.15448e-16 0)
(3 -4.5284e-16 0)
(3 -3.97368e-16 0)
(3 -4.49417e-16 0)
(3 -2.39114e-17 0)
(3 4.72291e-16 0)
(3 1.095e-15 0)
(3 4.36039e-16 0)
(3 9.26292e-17 0)
(3 -4.44593e-16 0)
(3 -3.51255e-16 0)
(3 1.23751e-16 0)
(3 9.30086e-17 0)
(3 -4.85408e-16 0)
(3 -7.06447e-16 0)
(1.5582 0.00756834 0)
(0.781564 0.00661912 0)
(0.727557 0.0132356 0)
(0.697235 0.0135527 0)
(0.665249 0.0134977 0)
(0.634869 0.013238 0)
(0.605322 0.0130585 0)
(0.576267 0.0131008 0)
(0.547042 0.0134068 0)
(0.517061 0.0139811 0)
(0.486126 0.0145284 0)
(0.454795 0.0146444 0)
(0.423738 0.0145743 0)
(0.392747 0.0148044 0)
(0.361246 0.0153166 0)
(0.328881 0.0158587 0)
(0.295553 0.0163676 0)
(0.261256 0.0169434 0)
(0.225795 0.0176797 0)
(0.188752 0.0185589 0)
(0.149873 0.0195595 0)
(0.108908 0.0206839 0)
(0.0661532 0.0212876 0)
(0.0230111 0.0219929 0)
(3 -2.41671e-16 0)
(3 -2.61561e-16 0)
(3 -9.90431e-16 0)
(3 -9.15054e-16 0)
(3 -1.10887e-15 0)
(3 -1.21976e-15 0)
(3 -1.01349e-15 0)
(3 -1.31534e-15 0)
(3 -1.53325e-15 0)
(3 -1.40756e-15 0)
(3 -1.49304e-15 0)
(3 -7.46219e-16 0)
(3 -6.04357e-16 0)
(3 3.49537e-16 0)
(3 2.13532e-15 0)
(3 2.72213e-15 0)
(3 1.91415e-15 0)
(3 1.1726e-15 0)
(3 3.31558e-16 0)
(3 -8.65631e-16 0)
(3 -6.47008e-16 0)
(3 1.29864e-16 0)
(3 -3.60716e-16 0)
(3 -1.84854e-16 0)
(1.57565 0.0369469 0)
(0.776803 0.0297566 0)
(0.719492 0.039036 0)
(0.689042 0.0391445 0)
(0.657004 0.038838 0)
(0.626522 0.0379509 0)
(0.596903 0.0373609 0)
(0.567826 0.0375562 0)
(0.538618 0.0386235 0)
(0.508716 0.0405401 0)
(0.477875 0.0423902 0)
(0.446592 0.0428787 0)
(0.415572 0.0427443 0)
(0.384668 0.0435279 0)
(0.353374 0.0452228 0)
(0.321342 0.0470269 0)
(0.288516 0.0487386 0)
(0.254942 0.0506526 0)
(0.220464 0.053035 0)
(0.184627 0.0558476 0)
(0.147066 0.059021 0)
(0.107385 0.0626176 0)
(0.0655651 0.0647414 0)
(0.0230019 0.0672867 0)
(3 -2.16109e-16 0)
(3 -5.15203e-16 0)
(3 1.74022e-17 0)
(3 -6.16561e-16 0)
(3 -9.4354e-16 0)
(3 -9.09737e-16 0)
(3 -1.17898e-15 0)
(3 -1.26063e-15 0)
(3 -1.04767e-15 0)
(3 -1.40471e-15 0)
(3 -1.15205e-15 0)
(3 -5.93059e-16 0)
(3 3.43399e-16 0)
(3 1.31718e-15 0)
(3 2.11873e-15 0)
(3 2.57546e-15 0)
(3 2.26608e-15 0)
(3 1.46931e-15 0)
(3 3.22519e-16 0)
(3 -5.87568e-16 0)
(3 -1.10714e-15 0)
(3 -1.13392e-15 0)
(3 -8.75415e-16 0)
(3 -1.35135e-15 0)
(1.62963 0.065927 0)
(0.782257 0.05372 0)
(0.720882 0.0659223 0)
(0.689779 0.0664553 0)
(0.656919 0.066156 0)
(0.625473 0.0647217 0)
(0.594877 0.0635851 0)
(0.564935 0.0636966 0)
(0.535027 0.0652523 0)
(0.504646 0.0682408 0)
(0.47345 0.0712143 0)
(0.44175 0.0720173 0)
(0.410222 0.0717314 0)
(0.378762 0.0728701 0)
(0.34696 0.0754867 0)
(0.314459 0.0782454 0)
(0.281254 0.0807778 0)
(0.247502 0.0835759 0)
(0.213184 0.0871331 0)
(0.177947 0.0915018 0)
(0.141456 0.0966177 0)
(0.103329 0.102691 0)
(0.0631141 0.106546 0)
(0.0222764 0.111259 0)
(3 2.29498e-16 0)
(3 3.95752e-16 0)
(3 2.38918e-16 0)
(3 -3.75906e-18 0)
(3 -1.62534e-16 0)
(3 -1.66964e-16 0)
(3 -4.1565e-16 0)
(3 -5.0018e-16 0)
(3 -4.84253e-16 0)
(3 -8.48057e-16 0)
(3 -8.2882e-16 0)
(3 -5.76825e-16 0)
(3 4.64336e-16 0)
(3 1.19097e-15 0)
(3 1.51155e-15 0)
(3 1.50805e-15 0)
(3 1.39336e-15 0)
(3 2.25338e-16 0)
(3 -4.72934e-16 0)
(3 -3.64034e-16 0)
(3 -7.10441e-16 0)
(3 -1.09308e-15 0)
(3 -1.29784e-15 0)
(3 -4.86532e-16 0)
(1.7128 0.0921021 0)
(0.79053 0.0784988 0)
(0.723686 0.0925257 0)
(0.693027 0.0932336 0)
(0.660487 0.0931658 0)
(0.629086 0.0914535 0)
(0.5983 0.0899383 0)
(0.568058 0.0900516 0)
(0.537842 0.0921216 0)
(0.507255 0.0961763 0)
(0.475874 0.100369 0)
(0.443775 0.101749 0)
(0.411634 0.101566 0)
(0.379438 0.103218 0)
(0.34691 0.106873 0)
(0.313638 0.110682 0)
(0.279614 0.114041 0)
(0.24507 0.117569 0)
(0.210115 0.121936 0)
(0.174542 0.127342 0)
(0.138131 0.13376 0)
(0.100697 0.141803 0)
(0.0613441 0.147163 0)
(0.0217427 0.153951 0)
(3 1.33496e-16 0)
(3 7.42333e-17 0)
(3 -3.75855e-16 0)
(3 -4.25831e-16 0)
(3 -3.10644e-16 0)
(3 -4.32919e-16 0)
(3 -6.53862e-16 0)
(3 -2.55999e-16 0)
(3 -3.22849e-16 0)
(3 -2.99636e-16 0)
(3 1.45189e-16 0)
(3 2.09374e-16 0)
(3 1.88619e-16 0)
(3 -2.54005e-16 0)
(3 -3.26306e-16 0)
(3 -1.53529e-16 0)
(3 2.50806e-17 0)
(3 -1.60654e-16 0)
(3 -5.35834e-16 0)
(3 3.43884e-17 0)
(3 3.91673e-16 0)
(3 6.57658e-16 0)
(3 -2.74473e-16 0)
(3 -1.93104e-15 0)
(1.82659 0.116938 0)
(0.801748 0.105071 0)
(0.725533 0.118666 0)
(0.695141 0.119973 0)
(0.662827 0.120237 0)
(0.631484 0.118508 0)
(0.600587 0.116708 0)
(0.570239 0.116731 0)
(0.540072 0.119131 0)
(0.509802 0.124086 0)
(0.478885 0.129513 0)
(0.447013 0.131702 0)
(0.414809 0.131813 0)
(0.382361 0.134034 0)
(0.349532 0.138768 0)
(0.31583 0.143711 0)
(0.281202 0.147977 0)
(0.245941 0.15226 0)
(0.210265 0.157354 0)
(0.174092 0.163619 0)
(0.137282 0.170973 0)
(0.0999388 0.18064 0)
(0.0607104 0.1873 0)
(0.0216411 0.196 0)
(3 2.56447e-17 0)
(3 -6.78123e-18 0)
(3 -2.94687e-17 0)
(3 2.33638e-16 0)
(3 4.28795e-16 0)
(3 9.1793e-17 0)
(3 -2.56059e-16 0)
(3 -4.48495e-16 0)
(3 2.93005e-17 0)
(3 1.097e-15 0)
(3 1.56953e-15 0)
(3 1.64527e-15 0)
(3 1.28047e-15 0)
(3 1.17668e-16 0)
(3 -8.31544e-16 0)
(3 -6.35464e-16 0)
(3 -4.5453e-16 0)
(3 -1.32233e-17 0)
(3 -4.82944e-16 0)
(3 3.6774e-17 0)
(3 6.40828e-16 0)
(3 1.18731e-15 0)
(3 7.59474e-16 0)
(3 -1.8493e-15 0)
(1.97528 0.138982 0)
(0.818933 0.13434 0)
(0.72819 0.144423 0)
(0.698537 0.146093 0)
(0.666825 0.146889 0)
(0.635922 0.145467 0)
(0.605175 0.14357 0)
(0.574892 0.143424 0)
(0.544931 0.145894 0)
(0.515187 0.151479 0)
(0.485044 0.158112 0)
(0.453676 0.161435 0)
(0.42158 0.162177 0)
(0.388966 0.165169 0)
(0.355836 0.171168 0)
(0.321603 0.177507 0)
(0.286131 0.18293 0)
(0.249784 0.188121 0)
(0.212923 0.193933 0)
(0.175634 0.200927 0)
(0.137851 0.208863 0)
(0.100072 0.219818 0)
(0.0605291 0.227574 0)
(0.0216516 0.237995 0)
(3 4.82609e-17 0)
(3 6.53554e-16 0)
(3 1.00913e-15 0)
(3 1.65046e-15 0)
(3 1.80686e-15 0)
(3 1.79808e-15 0)
(3 1.07249e-15 0)
(3 -9.26968e-17 0)
(3 3.05943e-16 0)
(3 6.43786e-16 0)
(3 1.70354e-15 0)
(3 2.53548e-15 0)
(3 1.92544e-15 0)
(3 8.44899e-16 0)
(3 2.86703e-16 0)
(3 -2.80079e-16 0)
(3 -1.02473e-16 0)
(3 5.99649e-16 0)
(3 7.50982e-16 0)
(3 5.31536e-16 0)
(3 7.41493e-16 0)
(3 9.5109e-16 0)
(3 1.07587e-15 0)
(3 3.74285e-16 0)
(2.15818 0.155947 0)
(0.843016 0.167255 0)
(0.730682 0.169617 0)
(0.701395 0.171636 0)
(0.669974 0.173034 0)
(0.63947 0.172249 0)
(0.608874 0.170564 0)
(0.578664 0.170224 0)
(0.548944 0.172444 0)
(0.519873 0.178278 0)
(0.490905 0.186006 0)
(0.460579 0.190767 0)
(0.429119 0.192473 0)
(0.396893 0.1964 0)
(0.364053 0.203825 0)
(0.329916 0.211852 0)
(0.294169 0.218772 0)
(0.257159 0.22517 0)
(0.219283 0.231881 0)
(0.18074 0.23969 0)
(0.141488 0.248037 0)
(0.102508 0.260024 0)
(0.0617659 0.268655 0)
(0.0221559 0.280564 0)
(3 -1.6435e-18 0)
(3 -3.92148e-17 0)
(3 3.10103e-16 0)
(3 6.60552e-16 0)
(3 6.90828e-16 0)
(3 8.48272e-16 0)
(3 1.0646e-15 0)
(3 1.41369e-15 0)
(3 6.0598e-16 0)
(3 3.74873e-16 0)
(3 1.13701e-15 0)
(3 1.69435e-15 0)
(3 1.30646e-15 0)
(3 8.0736e-16 0)
(3 -1.65299e-16 0)
(3 1.06286e-16 0)
(3 1.47593e-15 0)
(3 1.76412e-15 0)
(3 2.1489e-15 0)
(3 1.94178e-15 0)
(3 1.31664e-15 0)
(3 1.16242e-16 0)
(3 1.22291e-16 0)
(3 1.16768e-16 0)
(2.37024 0.167399 0)
(0.876473 0.205278 0)
(0.734845 0.19568 0)
(0.706469 0.198133 0)
(0.675655 0.200086 0)
(0.645682 0.200178 0)
(0.61491 0.198882 0)
(0.584023 0.198257 0)
(0.553477 0.199773 0)
(0.523815 0.205183 0)
(0.494999 0.213595 0)
(0.465214 0.219877 0)
(0.434294 0.222725 0)
(0.402799 0.227547 0)
(0.371012 0.236346 0)
(0.338006 0.246252 0)
(0.302967 0.255085 0)
(0.265996 0.263242 0)
(0.227416 0.271385 0)
(0.1876 0.280427 0)
(0.146576 0.289276 0)
(0.105918 0.302132 0)
(0.0635483 0.311429 0)
(0.0227174 0.324529 0)
(3 -1.35066e-16 0)
(3 -4.65398e-16 0)
(3 -3.67195e-16 0)
(3 -3.65535e-16 0)
(3 -5.01125e-16 0)
(3 -6.4709e-16 0)
(3 -2.39329e-16 0)
(3 4.82996e-16 0)
(3 6.99848e-16 0)
(3 7.19103e-16 0)
(3 8.68755e-16 0)
(3 5.95191e-16 0)
(3 2.94573e-16 0)
(3 2.55275e-16 0)
(3 2.621e-16 0)
(3 1.76952e-15 0)
(3 2.3616e-15 0)
(3 2.45469e-15 0)
(3 1.851e-15 0)
(3 1.45814e-15 0)
(3 9.65491e-16 0)
(3 4.10422e-16 0)
(3 -5.63573e-17 0)
(3 -1.33755e-15 0)
(2.60747 0.170076 0)
(0.931281 0.244025 0)
(0.755178 0.220716 0)
(0.728802 0.223322 0)
(0.697052 0.225968 0)
(0.666402 0.227711 0)
(0.633819 0.228063 0)
(0.600552 0.228026 0)
(0.567423 0.229121 0)
(0.535321 0.233691 0)
(0.504803 0.242105 0)
(0.474153 0.249446 0)
(0.442691 0.25312 0)
(0.411059 0.258331 0)
(0.379738 0.268072 0)
(0.34776 0.279869 0)
(0.313718 0.291055 0)
(0.277335 0.30164 0)
(0.238648 0.311922 0)
(0.197996 0.322855 0)
(0.155192 0.332697 0)
(0.112313 0.346627 0)
(0.0673446 0.356643 0)
(0.0240474 0.370808 0)
(3 -3.43077e-16 0)
(3 -5.81024e-16 0)
(3 -6.20441e-16 0)
(3 -4.51847e-16 0)
(3 -3.08656e-16 0)
(3 -1.58831e-16 0)
(3 -4.42164e-16 0)
(3 -7.9891e-16 0)
(3 -5.26394e-16 0)
(3 -4.64673e-16 0)
(3 -5.49887e-16 0)
(3 -8.58401e-16 0)
(3 -4.03845e-16 0)
(3 3.912e-16 0)
(3 9.49578e-16 0)
(3 1.03548e-15 0)
(3 9.79488e-16 0)
(3 1.23513e-15 0)
(3 9.94843e-16 0)
(3 6.50153e-16 0)
(3 5.80977e-16 0)
(3 3.17825e-16 0)
(3 3.245e-16 0)
(3 -1.85685e-17 0)
(2.85158 0.128978 0)
(1.01137 0.270592 0)
(0.787254 0.233191 0)
(0.765976 0.242986 0)
(0.731663 0.249294 0)
(0.699492 0.254827 0)
(0.664884 0.257815 0)
(0.629256 0.259225 0)
(0.593218 0.260429 0)
(0.557756 0.264226 0)
(0.524071 0.272381 0)
(0.491012 0.280556 0)
(0.457544 0.284941 0)
(0.424299 0.290085 0)
(0.391984 0.300112 0)
(0.359961 0.313399 0)
(0.326302 0.32703 0)
(0.290139 0.34061 0)
(0.251001 0.353953 0)
(0.209208 0.367782 0)
(0.164421 0.379456 0)
(0.119057 0.394784 0)
(0.0713748 0.40561 0)
(0.025175 0.420547 0)
(3 -7.03444e-17 0)
(3 -2.36198e-17 0)
(3 -1.35098e-16 0)
(3 -3.68089e-16 0)
(3 -2.48882e-16 0)
(3 -1.80822e-16 0)
(3 1.55849e-16 0)
(3 -5.44103e-17 0)
(3 -4.87759e-16 0)
(3 -1.112e-15 0)
(3 -1.66356e-15 0)
(3 -1.62318e-15 0)
(3 -1.39666e-15 0)
(3 -1.19766e-15 0)
(3 -8.33395e-16 0)
(3 -3.45471e-17 0)
(3 -1.3503e-16 0)
(3 7.88139e-17 0)
(3 1.8313e-16 0)
(3 2.47424e-16 0)
(3 -7.08564e-17 0)
(3 -1.11752e-16 0)
(3 4.26942e-16 0)
(3 1.5221e-15 0)
(2.99421 0.0292875 0)
(1.09827 0.279363 0)
(0.799825 0.247869 0)
(0.789391 0.267575 0)
(0.760358 0.276246 0)
(0.730956 0.282724 0)
(0.697684 0.287649 0)
(0.662115 0.291442 0)
(0.625223 0.29414 0)
(0.587994 0.297714 0)
(0.551761 0.305357 0)
(0.516156 0.314051 0)
(0.480162 0.319121 0)
(0.444444 0.3239 0)
(0.409951 0.333522 0)
(0.376665 0.347628 0)
(0.342676 0.363445 0)
(0.306714 0.380139 0)
(0.26786 0.396885 0)
(0.226124 0.414074 0)
(0.180133 0.428407 0)
(0.131951 0.446362 0)
(0.0797213 0.459134 0)
(0.0283097 0.475484 0)
(3 2.01634e-16 0)
(3 5.57639e-16 0)
(3 5.97815e-16 0)
(3 1.05674e-16 0)
(3 -8.09573e-16 0)
(3 -6.43311e-16 0)
(3 2.75878e-16 0)
(3 5.25719e-16 0)
(3 3.68714e-16 0)
(3 -1.40965e-16 0)
(3 -8.12811e-16 0)
(3 -1.18292e-15 0)
(3 -1.2291e-15 0)
(3 -1.08651e-15 0)
(3 -9.38596e-16 0)
(3 -8.0508e-16 0)
(3 -1.6045e-15 0)
(3 -2.59023e-15 0)
(3 -1.83785e-15 0)
(3 -1.39029e-15 0)
(3 -1.00791e-15 0)
(3 -6.48451e-16 0)
(3 6.66292e-16 0)
(3 6.25863e-16 0)
(3.00518 0.00215326 0)
(1.19469 0.284267 0)
(0.796071 0.259239 0)
(0.785304 0.288393 0)
(0.760801 0.303221 0)
(0.736984 0.31197 0)
(0.711823 0.317997 0)
(0.684321 0.322365 0)
(0.653204 0.326477 0)
(0.619024 0.331519 0)
(0.583625 0.340024 0)
(0.547453 0.349838 0)
(0.509824 0.356147 0)
(0.471655 0.360862 0)
(0.434395 0.369663 0)
(0.398777 0.383815 0)
(0.363707 0.401045 0)
(0.327463 0.420452 0)
(0.288226 0.440964 0)
(0.245226 0.463246 0)
(0.195901 0.482666 0)
(0.144198 0.505083 0)
(0.0872701 0.520996 0)
(0.0297927 0.53812 0)
(3 9.69594e-17 0)
(3 2.19571e-16 0)
(3 1.38306e-16 0)
(3 1.38501e-16 0)
(3 -7.14029e-17 0)
(3 9.71818e-17 0)
(3 -2.32591e-17 0)
(3 2.31093e-16 0)
(3 3.80064e-16 0)
(3 3.42127e-16 0)
(3 -1.15303e-16 0)
(3 -7.72682e-16 0)
(3 -7.16853e-16 0)
(3 -2.25565e-16 0)
(3 -7.2309e-17 0)
(3 -1.68602e-15 0)
(3 -2.22387e-15 0)
(3 -1.87274e-15 0)
(3 -1.36494e-15 0)
(3 -1.29957e-15 0)
(3 -8.86046e-16 0)
(3 3.47713e-17 0)
(3 5.53024e-16 0)
(3 6.62639e-17 0)
(3.00009 3.10638e-06 0)
(1.35457 0.310775 0)
(0.795591 0.273424 0)
(0.764565 0.301115 0)
(0.743089 0.318912 0)
(0.723304 0.330453 0)
(0.704722 0.339548 0)
(0.68609 0.3475 0)
(0.665673 0.354432 0)
(0.641203 0.361603 0)
(0.612544 0.372148 0)
(0.580206 0.384649 0)
(0.543974 0.394001 0)
(0.505153 0.400207 0)
(0.465826 0.408514 0)
(0.427738 0.42232 0)
(0.390787 0.440326 0)
(0.353706 0.462311 0)
(0.313898 0.487193 0)
(0.271645 0.515169 0)
(0.222933 0.539711 0)
(0.170125 0.56752 0)
(0.106158 0.590436 0)
(0.0384328 0.611971 0)
(3 2.05362e-16 0)
(3 -1.49004e-16 0)
(3 -2.81846e-16 0)
(3 -6.93642e-17 0)
(3 3.96996e-16 0)
(3 2.34365e-16 0)
(3 -2.27878e-16 0)
(3 -1.86483e-16 0)
(3 -5.84535e-17 0)
(3 1.68471e-16 0)
(3 2.11559e-16 0)
(3 4.79596e-16 0)
(3 6.61034e-16 0)
(3 5.51486e-16 0)
(3 1.12176e-16 0)
(3 -1.28131e-15 0)
(3 -1.15873e-15 0)
(3 -9.50671e-16 0)
(3 -4.34998e-16 0)
(3 3.82797e-16 0)
(3 7.36057e-16 0)
(3 8.21418e-16 0)
(3 4.68052e-16 0)
(3 -1.45844e-16 0)
(3 -5.3982e-09 0)
(1.61575 0.346259 0)
(0.813156 0.319577 0)
(0.740977 0.31928 0)
(0.722849 0.331018 0)
(0.706125 0.339887 0)
(0.691674 0.349376 0)
(0.677329 0.359928 0)
(0.662342 0.371941 0)
(0.645131 0.384747 0)
(0.625699 0.399913 0)
(0.602283 0.416734 0)
(0.572934 0.430918 0)
(0.53815 0.440863 0)
(0.499936 0.450112 0)
(0.461472 0.46391 0)
(0.423595 0.482337 0)
(0.386087 0.506065 0)
(0.347118 0.534155 0)
(0.305825 0.567941 0)
(0.254566 0.602398 0)
(0.194178 0.642766 0)
(0.122388 0.681455 0)
(0.0387712 0.707922 0)
(3 -5.13398e-17 0)
(3 -5.39792e-16 0)
(3 -6.12659e-16 0)
(3 -4.0391e-16 0)
(3 4.75784e-17 0)
(3 7.15802e-17 0)
(3 -8.61351e-17 0)
(3 -1.84472e-17 0)
(3 -4.89039e-17 0)
(3 -1.01622e-16 0)
(3 5.62086e-17 0)
(3 4.2891e-16 0)
(3 8.70171e-16 0)
(3 9.64084e-16 0)
(3 1.06671e-15 0)
(3 8.60407e-16 0)
(3 5.70967e-16 0)
(3 3.95567e-16 0)
(3 5.98707e-16 0)
(3 9.86736e-16 0)
(3 7.81045e-16 0)
(3 1.7343e-16 0)
(3 -5.08849e-16 0)
(3 -5.17754e-16 0)
(3 -5.00681e-09 0)
(1.99797 0.378733 0)
(0.85619 0.388133 0)
(0.748968 0.357966 0)
(0.725509 0.352 0)
(0.707062 0.357025 0)
(0.691135 0.365779 0)
(0.675574 0.375627 0)
(0.660384 0.387061 0)
(0.645191 0.401005 0)
(0.629684 0.418895 0)
(0.614414 0.440424 0)
(0.594253 0.460866 0)
(0.567435 0.477408 0)
(0.534259 0.49046 0)
(0.498813 0.506154 0)
(0.462163 0.525608 0)
(0.425146 0.550905 0)
(0.386908 0.58292 0)
(0.34712 0.625218 0)
(0.300711 0.673376 0)
(0.245992 0.7248 0)
(0.177592 0.778507 0)
(0.0694301 0.827032 0)
(3 -3.12107e-16 0)
(3 -2.8607e-16 0)
(3 -1.26402e-16 0)
(3 1.65896e-16 0)
(3 1.79938e-16 0)
(3 2.73392e-16 0)
(3 2.16917e-16 0)
(3 -1.59633e-16 0)
(3 -4.56329e-16 0)
(3 -7.90556e-16 0)
(3 -6.45805e-16 0)
(3 -2.14849e-16 0)
(3 -3.95705e-16 0)
(3 4.6124e-16 0)
(3 9.10725e-16 0)
(3 7.2172e-16 0)
(3 4.33272e-16 0)
(3 8.25134e-16 0)
(3 8.05975e-16 0)
(3 -6.43452e-17 0)
(3 -5.78167e-16 0)
(3 -7.84561e-16 0)
(3 -1.36862e-15 0)
(3 -2.15149e-15 0)
(3 -9.97064e-10 0)
(2.55274 0.337087 0)
(0.957318 0.44381 0)
(0.81632 0.375435 0)
(0.780392 0.36718 0)
(0.744586 0.376036 0)
(0.714936 0.38476 0)
(0.690477 0.394863 0)
(0.669495 0.405864 0)
(0.651383 0.418895 0)
(0.635596 0.436081 0)
(0.622466 0.458636 0)
(0.608901 0.483594 0)
(0.591246 0.5071 0)
(0.565574 0.526789 0)
(0.536674 0.546591 0)
(0.504191 0.568858 0)
(0.470202 0.596833 0)
(0.435524 0.632422 0)
(0.402469 0.679593 0)
(0.36566 0.73635 0)
(0.313245 0.813763 0)
(0.218578 0.924773 0)
(0.120106 1.05112 0)
(3 -2.30929e-17 0)
(3 -8.6076e-17 0)
(3 -1.32664e-16 0)
(3 -2.72568e-16 0)
(3 1.4406e-16 0)
(3 -1.77976e-16 0)
(3 -7.82146e-17 0)
(3 -1.73488e-16 0)
(3 -5.25041e-16 0)
(3 -5.74041e-16 0)
(3 -2.58377e-16 0)
(3 2.3884e-16 0)
(3 2.90038e-16 0)
(3 -6.47118e-19 0)
(3 -3.58764e-16 0)
(3 -1.8937e-16 0)
(3 -1.35916e-16 0)
(3 4.62228e-16 0)
(3 4.46951e-16 0)
(3 -4.59321e-16 0)
(3 -5.87634e-16 0)
(3 -9.75572e-16 0)
(3 -1.10312e-15 0)
(3 -2.34424e-15 0)
(3 -9.40605e-11 0)
(3.04074 0.0752528 0)
(1.15989 0.427663 0)
(0.878609 0.406052 0)
(0.849064 0.406882 0)
(0.804391 0.410433 0)
(0.76066 0.415202 0)
(0.724174 0.420859 0)
(0.694223 0.428339 0)
(0.669785 0.438768 0)
(0.650249 0.45397 0)
(0.635315 0.475454 0)
(0.623516 0.501795 0)
(0.611397 0.529862 0)
(0.594612 0.556407 0)
(0.57353 0.582201 0)
(0.547995 0.609335 0)
(0.520621 0.641097 0)
(0.491938 0.679016 0)
(0.466169 0.730752 0)
(0.437813 0.806143 0)
(0.41066 0.929306 0)
(0.396793 1.085 0)
(0.506312 1.3383 0)
(3 1.43269e-16 0)
(3 2.23351e-16 0)
(3 -1.79093e-16 0)
(3 -6.39171e-16 0)
(3 -9.66128e-16 0)
(3 -7.43062e-16 0)
(3 -6.30243e-16 0)
(3 -3.33762e-16 0)
(3 1.11299e-16 0)
(3 2.60942e-16 0)
(3 2.21354e-16 0)
(3 2.97008e-16 0)
(3 5.96523e-16 0)
(3 3.8333e-16 0)
(3 -8.44992e-17 0)
(3 1.03426e-16 0)
(3 5.58986e-16 0)
(3 3.90983e-16 0)
(3 2.49573e-16 0)
(3 3.67857e-16 0)
(3 1.72325e-16 0)
(3 -6.46841e-16 0)
(3 -1.37134e-15 0)
(3 -1.45385e-15 0)
(3 -3.30166e-12 0)
(3.01717 0.0018162 0)
(1.30801 0.403649 0)
(0.874448 0.439579 0)
(0.849575 0.454652 0)
(0.820811 0.454513 0)
(0.791926 0.453554 0)
(0.759879 0.455098 0)
(0.727749 0.458612 0)
(0.69867 0.4645 0)
(0.674031 0.475279 0)
(0.65542 0.493435 0)
(0.642136 0.518422 0)
(0.632294 0.548292 0)
(0.621906 0.579551 0)
(0.609043 0.611229 0)
(0.592362 0.644036 0)
(0.574155 0.680534 0)
(0.554485 0.722135 0)
(0.53808 0.778896 0)
(0.532067 0.86592 0)
(0.53991 0.995444 0)
(0.617722 1.14361 0)
(0.915864 1.33786 0)
(3 1.18829e-16 0)
(3 3.87752e-16 0)
(3 4.10688e-16 0)
(3 3.0243e-16 0)
(3 -2.25246e-16 0)
(3 -1.54674e-16 0)
(3 -1.19483e-16 0)
(3 -1.85419e-16 0)
(3 1.5209e-16 0)
(3 1.95032e-16 0)
(3 3.87949e-16 0)
(3 3.497e-16 0)
(3 3.63532e-16 0)
(3 1.09154e-15 0)
(3 7.35069e-16 0)
(3 -1.02516e-16 0)
(3 7.53228e-17 0)
(3 9.38604e-18 0)
(3 2.21066e-16 0)
(3 8.31529e-16 0)
(3 6.85235e-17 0)
(3 -2.52791e-16 0)
(3 -7.8856e-16 0)
(3 -6.30275e-16 0)
(3 -4.58988e-14 0)
(3.00022 -5.06977e-06 0)
(1.58122 0.422039 0)
(0.852231 0.451474 0)
(0.830361 0.46305 0)
(0.81473 0.470211 0)
(0.799958 0.477218 0)
(0.780469 0.48359 0)
(0.75625 0.48931 0)
(0.730254 0.49452 0)
(0.704386 0.501673 0)
(0.682536 0.51527 0)
(0.66614 0.536753 0)
(0.656214 0.565277 0)
(0.649106 0.598284 0)
(0.642906 0.634117 0)
(0.635458 0.672145 0)
(0.627683 0.713587 0)
(0.620184 0.759854 0)
(0.616324 0.818388 0)
(0.63185 0.903652 0)
(0.67502 1.01944 0)
(0.816278 1.15368 0)
(1.13618 1.28072 0)
(3 -1.92246e-16 0)
(3 -4.70137e-16 0)
(3 -3.13032e-16 0)
(3 1.08826e-19 0)
(3 5.03298e-16 0)
(3 7.62312e-16 0)
(3 1.46589e-15 0)
(3 1.33745e-15 0)
(3 1.06524e-15 0)
(3 1.09302e-15 0)
(3 5.65765e-16 0)
(3 4.0921e-16 0)
(3 3.36214e-16 0)
(3 -7.2055e-17 0)
(3 -1.10291e-16 0)
(3 -5.24045e-16 0)
(3 -1.71217e-16 0)
(3 -4.47334e-16 0)
(3 -1.45933e-16 0)
(3 5.59635e-17 0)
(3 4.53838e-16 0)
(3 4.39316e-16 0)
(3 5.39125e-16 0)
(3 6.08234e-16 0)
(3 5.09199e-16 0)
(3.00001 -5.07609e-06 0)
(2.08319 0.450454 0)
(0.903991 0.495732 0)
(0.829882 0.472358 0)
(0.821641 0.48372 0)
(0.808107 0.493476 0)
(0.794473 0.503401 0)
(0.777814 0.51309 0)
(0.758599 0.521512 0)
(0.73665 0.529226 0)
(0.715059 0.539881 0)
(0.697012 0.55713 0)
(0.685028 0.582292 0)
(0.67901 0.614071 0)
(0.676836 0.651101 0)
(0.677064 0.692423 0)
(0.6795 0.737842 0)
(0.685191 0.787811 0)
(0.696726 0.846074 0)
(0.72672 0.924252 0)
(0.799023 1.02419 0)
(0.964778 1.13172 0)
(1.23402 1.20901 0)
(3 -9.48581e-17 0)
(3 -2.32194e-16 0)
(3 -2.78885e-16 0)
(3 -4.2611e-16 0)
(3 -3.44155e-16 0)
(3 1.1253e-15 0)
(3 1.58067e-15 0)
(3 1.09599e-15 0)
(3 3.57407e-16 0)
(3 -1.14404e-16 0)
(3 -5.56452e-16 0)
(3 -8.94592e-16 0)
(3 -7.64595e-16 0)
(3 -6.36928e-16 0)
(3 -4.06567e-16 0)
(3 1.10555e-16 0)
(3 2.11441e-16 0)
(3 4.33665e-16 0)
(3 5.45293e-16 0)
(3 1.39361e-15 0)
(3 2.06806e-15 0)
(3 2.6317e-15 0)
(3 1.93969e-15 0)
(3 1.42073e-15 0)
(3 1.41458e-15 0)
(3 -1.09731e-06 0)
(2.78549 0.282097 0)
(1.06639 0.54457 0)
(0.88391 0.485312 0)
(0.857322 0.494552 0)
(0.832633 0.508456 0)
(0.814443 0.520277 0)
(0.798961 0.532323 0)
(0.783995 0.544087 0)
(0.767143 0.55493 0)
(0.748944 0.565915 0)
(0.732137 0.580654 0)
(0.718583 0.601885 0)
(0.712361 0.630587 0)
(0.712108 0.66583 0)
(0.717384 0.707172 0)
(0.728256 0.754165 0)
(0.745556 0.806276 0)
(0.772433 0.863974 0)
(0.815502 0.934086 0)
(0.904642 1.01713 0)
(1.06764 1.09501 0)
(1.29452 1.14366 0)
(3 1.997e-16 0)
(3 6.36879e-16 0)
(3 6.28042e-16 0)
(3 -1.83818e-17 0)
(3 -1.66999e-16 0)
(3 1.4781e-16 0)
(3 -2.53163e-16 0)
(3 -8.20178e-16 0)
(3 -8.89643e-16 0)
(3 -1.35673e-15 0)
(3 -1.67108e-15 0)
(3 -1.59045e-15 0)
(3 -1.23002e-15 0)
(3 1.89143e-16 0)
(3 8.05596e-16 0)
(3 1.2811e-15 0)
(3 1.00999e-15 0)
(3 1.27171e-15 0)
(3 1.12933e-15 0)
(3 1.13603e-15 0)
(3 1.36155e-15 0)
(3 1.41893e-15 0)
(3 3.02386e-17 0)
(3 -4.98108e-16 0)
(3 9.85329e-16 0)
(3 -1.04454e-07 0)
(3.06818 0.0237759 0)
(1.32385 0.520243 0)
(0.933657 0.521616 0)
(0.897515 0.531625 0)
(0.868335 0.533456 0)
(0.843022 0.539198 0)
(0.824738 0.549488 0)
(0.810442 0.56199 0)
(0.797154 0.575431 0)
(0.782911 0.588444 0)
(0.769217 0.603397 0)
(0.756619 0.621958 0)
(0.74995 0.647089 0)
(0.750206 0.678997 0)
(0.757918 0.71757 0)
(0.773916 0.76266 0)
(0.799432 0.813703 0)
(0.837772 0.869482 0)
(0.893369 0.932553 0)
(0.989443 0.999992 0)
(1.1359 1.05409 0)
(1.32318 1.08199 0)
(3 -1.82585e-16 0)
(3 4.09313e-16 0)
(3 1.28406e-16 0)
(3 4.00794e-16 0)
(3 1.89753e-16 0)
(3 -9.46593e-16 0)
(3 -1.11956e-15 0)
(3 -1.11514e-15 0)
(3 -8.24901e-16 0)
(3 -4.35371e-16 0)
(3 -2.84479e-16 0)
(3 -3.49488e-16 0)
(3 -8.57634e-17 0)
(3 1.10881e-16 0)
(3 1.07539e-15 0)
(3 1.55341e-15 0)
(3 1.44477e-15 0)
(3 1.20502e-15 0)
(3 1.26936e-15 0)
(3 6.89136e-16 0)
(3 3.97443e-16 0)
(3 3.72365e-16 0)
(3 2.07678e-16 0)
(3 1.34174e-16 0)
(3 1.42901e-15 0)
(3 -3.90782e-09 0)
(3.00399 1.13833e-05 0)
(1.60423 0.507365 0)
(0.918288 0.575792 0)
(0.890118 0.559678 0)
(0.876754 0.562611 0)
(0.860778 0.566038 0)
(0.84544 0.572319 0)
(0.832585 0.582484 0)
(0.822524 0.595851 0)
(0.812664 0.609981 0)
(0.803444 0.625819 0)
(0.794879 0.643594 0)
(0.789637 0.665659 0)
(0.790557 0.693749 0)
(0.799575 0.728217 0)
(0.818243 0.769025 0)
(0.848262 0.815892 0)
(0.893386 0.867462 0)
(0.9581 0.923488 0)
(1.05677 0.979938 0)
(1.18537 1.0192 0)
(1.34392 1.03566 0)
(3 -2.71906e-16 0)
(3 -2.72496e-16 0)
(3 -5.57962e-17 0)
(3 4.99716e-16 0)
(3 4.76412e-16 0)
(3 -2.24418e-16 0)
(3 -2.24225e-16 0)
(3 -3.29778e-16 0)
(3 -8.91206e-17 0)
(3 6.96367e-16 0)
(3 1.29895e-15 0)
(3 1.24709e-15 0)
(3 1.28541e-15 0)
(3 9.6672e-16 0)
(3 6.20966e-16 0)
(3 5.30746e-16 0)
(3 3.74912e-16 0)
(3 -2.7154e-16 0)
(3 -3.35048e-16 0)
(3 -2.26313e-16 0)
(3 -4.02584e-16 0)
(3 2.6772e-16 0)
(3 2.71089e-16 0)
(3 1.10237e-16 0)
(3 5.01421e-16 0)
(3 -5.81583e-11 0)
(3.00002 -6.80157e-07 0)
(2.26205 0.485566 0)
(0.98681 0.6052 0)
(0.913718 0.561439 0)
(0.906011 0.570095 0)
(0.890878 0.581272 0)
(0.874968 0.589729 0)
(0.860932 0.599162 0)
(0.850946 0.612047 0)
(0.843092 0.62675 0)
(0.837064 0.643368 0)
(0.832629 0.661759 0)
(0.830387 0.68248 0)
(0.832763 0.707336 0)
(0.842536 0.737481 0)
(0.862136 0.773071 0)
(0.893313 0.813915 0)
(0.940085 0.858929 0)
(1.00737 0.907063 0)
(1.10399 0.954359 0)
(1.21722 0.984061 0)
(1.35637 0.995855 0)
(3 6.48393e-17 0)
(3 5.0415e-17 0)
(3 1.87369e-16 0)
(3 2.36865e-16 0)
(3 2.77029e-16 0)
(3 3.47507e-16 0)
(3 2.36777e-16 0)
(3 3.34796e-16 0)
(3 6.2997e-16 0)
(3 7.82003e-16 0)
(3 9.28974e-16 0)
(3 1.24564e-15 0)
(3 1.07572e-15 0)
(3 7.74821e-16 0)
(3 -1.98468e-16 0)
(3 -5.50446e-16 0)
(3 -1.24625e-15 0)
(3 -1.55446e-15 0)
(3 -2.28703e-15 0)
(3 -2.2609e-15 0)
(3 -2.39501e-15 0)
(3 -1.73397e-15 0)
(3 -1.08738e-15 0)
(3 -6.44752e-16 0)
(3 -3.81731e-16 0)
(3 -7.16138e-14 0)
(3 -8.38879e-07 0)
(3.03349 0.136798 0)
(1.22774 0.589841 0)
(0.968171 0.576514 0)
(0.949718 0.59255 0)
(0.929965 0.602313 0)
(0.910517 0.609643 0)
(0.8943 0.61783 0)
(0.882102 0.629332 0)
(0.873994 0.643462 0)
(0.869263 0.659867 0)
(0.867765 0.678441 0)
(0.869148 0.69892 0)
(0.874326 0.721799 0)
(0.885547 0.748334 0)
(0.905782 0.779262 0)
(0.937356 0.814161 0)
(0.983734 0.851712 0)
(1.04923 0.892437 0)
(1.13925 0.929999 0)
(1.24285 0.954672 0)
(1.36704 0.966144 0)
(3 1.17488e-16 0)
(3 -7.06151e-17 0)
(3 -1.69258e-16 0)
(3 -1.95705e-16 0)
(3 1.56908e-16 0)
(3 1.42396e-16 0)
(3 2.05849e-16 0)
(3 4.38634e-16 0)
(3 1.19109e-16 0)
(3 8.75545e-17 0)
(3 2.9273e-16 0)
(3 1.39606e-16 0)
(3 -3.72001e-16 0)
(3 -9.28709e-16 0)
(3 -1.05217e-15 0)
(3 -8.91726e-16 0)
(3 -3.31829e-16 0)
(3 -3.73607e-16 0)
(3 -1.00084e-15 0)
(3 -2.45498e-15 0)
(3 -2.898e-15 0)
(3 -2.10781e-15 0)
(3 -1.44351e-15 0)
(3 -8.91621e-16 0)
(3 -2.8472e-16 0)
(3 -1.37038e-16 0)
(3 -1.77062e-07 0)
(3.03009 0.00270284 0)
(1.45483 0.567102 0)
(0.970921 0.632506 0)
(0.949776 0.622523 0)
(0.938033 0.629935 0)
(0.928158 0.635879 0)
(0.918775 0.641568 0)
(0.909657 0.649882 0)
(0.903327 0.661228 0)
(0.900259 0.675515 0)
(0.900929 0.692554 0)
(0.905423 0.712047 0)
(0.913908 0.733543 0)
(0.92746 0.756989 0)
(0.94819 0.783475 0)
(0.979738 0.812682 0)
(1.02411 0.842859 0)
(1.08473 0.876726 0)
(1.16395 0.904808 0)
(1.25772 0.924928 0)
(1.36663 0.936388 0)
(3 5.65729e-18 0)
(3 7.79273e-18 0)
(3 5.03318e-17 0)
(3 2.12722e-16 0)
(3 5.84742e-16 0)
(3 5.61183e-16 0)
(3 7.00182e-16 0)
(3 4.78235e-16 0)
(3 -6.91967e-17 0)
(3 1.74043e-17 0)
(3 5.35443e-17 0)
(3 3.40598e-18 0)
(3 -2.52582e-16 0)
(3 -6.91212e-16 0)
(3 -6.37168e-16 0)
(3 3.12009e-16 0)
(3 1.33049e-15 0)
(3 8.75288e-16 0)
(3 5.24765e-16 0)
(3 -1.18239e-15 0)
(3 -2.33882e-15 0)
(3 -2.07909e-15 0)
(3 -2.12692e-15 0)
(3 -1.38317e-15 0)
(3 -1.21051e-15 0)
(3 -6.26565e-16 0)
(3 -1.48593e-08 0)
(3.00047 -8.39925e-06 0)
(2.05712 0.558876 0)
(1.0172 0.666273 0)
(0.963608 0.629318 0)
(0.961097 0.635531 0)
(0.954544 0.646696 0)
(0.946925 0.656067 0)
(0.939757 0.665588 0)
(0.93454 0.676659 0)
(0.93224 0.689853 0)
(0.933713 0.70558 0)
(0.939685 0.723816 0)
(0.950531 0.744176 0)
(0.966387 0.766305 0)
(0.988566 0.789882 0)
(1.02079 0.814793 0)
(1.06365 0.840033 0)
(1.11987 0.866836 0)
(1.1891 0.887401 0)
(1.27356 0.903802 0)
(1.36856 0.913803 0)
(3 -9.8801e-17 0)
(3 -4.35661e-17 0)
(3 -1.21736e-17 0)
(3 -1.03599e-17 0)
(3 1.77151e-18 0)
(3 5.38181e-17 0)
(3 1.31246e-16 0)
(3 -2.65348e-18 0)
(3 1.5913e-17 0)
(3 -3.92906e-16 0)
(3 -1.08118e-15 0)
(3 -7.40725e-16 0)
(3 -1.89401e-16 0)
(3 2.11073e-18 0)
(3 -6.59783e-18 0)
(3 2.38644e-16 0)
(3 1.30346e-16 0)
(3 2.36114e-16 0)
(3 4.03537e-17 0)
(3 1.09246e-16 0)
(3 -2.61812e-16 0)
(3 -1.8544e-15 0)
(3 -2.54025e-15 0)
(3 -2.95097e-15 0)
(3 -2.7616e-15 0)
(3 -2.15637e-15 0)
(3 -8.39112e-11 0)
(3.00003 -1.27184e-05 0)
(2.9469 0.213298 0)
(1.22661 0.653601 0)
(1.0125 0.632139 0)
(1.002 0.649082 0)
(0.990791 0.661944 0)
(0.979567 0.67103 0)
(0.971833 0.680639 0)
(0.966758 0.691622 0)
(0.964806 0.703991 0)
(0.966649 0.717958 0)
(0.972798 0.734003 0)
(0.984901 0.752265 0)
(1.00179 0.771989 0)
(1.02585 0.792868 0)
(1.05817 0.813733 0)
(1.09961 0.834985 0)
(1.15072 0.85486 0)
(1.21155 0.870103 0)
(1.28648 0.883477 0)
(1.36825 0.89082 0)
(3 7.69715e-17 0)
(3 -7.2274e-17 0)
(3 -2.10674e-16 0)
(3 -6.22617e-16 0)
(3 -8.9846e-16 0)
(3 -1.00247e-15 0)
(3 -1.31896e-15 0)
(3 -1.02727e-15 0)
(3 -8.13133e-16 0)
(3 -1.11294e-15 0)
(3 -9.66131e-16 0)
(3 -1.22667e-15 0)
(3 -1.29327e-15 0)
(3 -1.3725e-15 0)
(3 -1.15313e-15 0)
(3 -9.73016e-16 0)
(3 -1.53414e-15 0)
(3 -1.71488e-15 0)
(3 -6.29507e-16 0)
(3 7.6338e-16 0)
(3 8.73499e-16 0)
(3 -1.22251e-15 0)
(3 -2.14938e-15 0)
(3 -2.08725e-15 0)
(3 -2.01913e-15 0)
(3 -1.84034e-15 0)
(3 -1.28143e-13 0)
(3 -2.77623e-06 0)
(3.04614 0.00708936 0)
(1.47626 0.622541 0)
(1.02328 0.686463 0)
(1.00714 0.678115 0)
(0.999427 0.685415 0)
(0.995143 0.692551 0)
(0.993048 0.700025 0)
(0.992146 0.709389 0)
(0.993295 0.719845 0)
(0.99728 0.732153 0)
(1.00444 0.745359 0)
(1.01675 0.761228 0)
(1.03479 0.779204 0)
(1.06013 0.797779 0)
(1.09244 0.816266 0)
(1.13285 0.83452 0)
(1.18002 0.849962 0)
(1.23548 0.862432 0)
(1.30255 0.872684 0)
(1.37417 0.876365 0)
(3 6.38529e-18 0)
(3 -6.15298e-17 0)
(3 -3.41641e-16 0)
(3 -6.28905e-16 0)
(3 -9.63213e-16 0)
(3 -7.30081e-16 0)
(3 -6.60064e-16 0)
(3 -1.05862e-15 0)
(3 -1.07266e-15 0)
(3 -4.80333e-16 0)
(3 -2.95706e-16 0)
(3 -6.97492e-16 0)
(3 -1.60068e-15 0)
(3 -1.98597e-15 0)
(3 -2.29531e-15 0)
(3 -2.42924e-15 0)
(3 -1.651e-15 0)
(3 -1.77945e-15 0)
(3 -9.16497e-16 0)
(3 -1.15354e-16 0)
(3 5.31065e-17 0)
(3 3.15127e-16 0)
(3 1.26201e-15 0)
(3 1.23714e-15 0)
(3 3.79948e-16 0)
(3 2.07124e-16 0)
(3 3.57441e-16 0)
(3 -2.37749e-07 0)
(3.00104 7.99612e-07 0)
(2.14449 0.585439 0)
(1.08004 0.730132 0)
(1.02401 0.686953 0)
(1.02186 0.690042 0)
(1.02019 0.699642 0)
(1.01838 0.709169 0)
(1.01912 0.719603 0)
(1.02199 0.730503 0)
(1.02751 0.742635 0)
(1.03579 0.754728 0)
(1.04814 0.767705 0)
(1.06603 0.782353 0)
(1.09103 0.798606 0)
(1.12238 0.814514 0)
(1.16099 0.829749 0)
(1.20482 0.842091 0)
(1.25682 0.852184 0)
(1.31747 0.859398 0)
(1.38127 0.861177 0)
(3 -1.11501e-16 0)
(3 -1.9499e-16 0)
(3 -2.23087e-16 0)
(3 -3.58387e-16 0)
(3 -4.26699e-16 0)
(3 -2.80207e-16 0)
(3 2.82774e-16 0)
(3 8.73838e-17 0)
(3 1.41018e-16 0)
(3 7.89263e-18 0)
(3 -5.16111e-16 0)
(3 -5.55467e-16 0)
(3 -7.12738e-16 0)
(3 -1.53736e-15 0)
(3 -1.78259e-15 0)
(3 -1.50963e-15 0)
(3 -1.29762e-15 0)
(3 -1.29284e-15 0)
(3 -8.3986e-16 0)
(3 -7.20889e-16 0)
(3 9.07912e-18 0)
(3 1.70035e-15 0)
(3 2.63797e-15 0)
(3 2.4831e-15 0)
(3 2.11643e-15 0)