/*--------------------------------*- C++ -*----------------------------------*\
  =========                 |
  \\      /  F ield         | OpenFOAM: The Open Source CFD Toolbox
   \\    /   O peration     | Website:  https://openfoam.org
    \\  /    A nd           | Version:  7
     \\/     M anipulation  |
\*---------------------------------------------------------------------------*/
FoamFile
{
    version     2.0;
    format      ascii;
    class       volScalarField;
    location    "2.9";
    object      p;
}
// * * * * * * * * * * * * * * * * * * * * * * * * * * * * * * * * * * * * * //

dimensions      [1 -1 -2 0 0 0 0];

internalField   nonuniform List<scalar> 
258048
(
1
1
1
1
1
1
1
1
1
1
1
1
1
1
1
1
1
1
1
1
1
1
1
1
1
1
1
1
1
1
1
1
1
1
1
1
1
1
1
1
1
1
1
1
1
1
1
1
1
1
1
1
1
1
1
1
1
1
1
1
1
1
1
1
1
1
1
1
1
1
1
1
1
1
1
1
1
1
1
1
1
1
1
1
1
1
1
1
1
1
1
1
1
1
1
1
1
1
1.66124
8.2313
10.3907
10.4091
10.445
10.4779
10.5093
10.539
10.5682
10.5979
10.6288
10.6602
10.6906
10.7193
10.7471
10.7747
10.8019
10.8287
10.8554
10.8821
10.9094
10.9382
10.9678
10.9955
11.0192
11.0385
11.055
11.0726
11.0967
11.13
11.1685
11.2058
11.2361
11.2565
11.2684
11.2776
11.2918
11.3174
11.3535
11.3922
11.4241
11.4427
11.4478
11.446
11.4462
11.4573
11.484
11.5229
11.5654
11.6014
11.6251
11.638
11.6471
11.6585
11.6767
11.6988
11.7168
11.7264
11.7326
11.7436
11.7631
11.7917
11.8228
11.8458
11.8544
11.8507
11.8482
11.8566
11.8774
11.9049
11.9278
11.9378
11.9353
11.9284
11.9252
11.9314
11.9477
11.97
11.9927
12.0124
12.0291
12.0431
12.0513
12.0531
12.0476
12.035
12.0195
12.0076
12.0057
12.0153
12.034
12.0568
12.0767
12.0917
1
1
1
1
1
1
1
1
1
1
1
1
1
1
1
1
1
1
1
1
1
1
1
1
1
1
1
1
1
1
1
1
1
1
1
1
1
1
1
1
1
1
1
1
1
1
1
1
1
1
1
1
1
1
1
1
1
1
1
1
1
1
1
1
1
1
1
1
1
1
1
1
1
1
1
1
1
1
1
1
1
1
1
1
1
1
1
1
1
1
1
1
1
1
1
1
1
1
1.65239
8.21089
10.3868
10.4086
10.4447
10.4777
10.5091
10.5386
10.5678
10.5978
10.6289
10.6601
10.69
10.7183
10.746
10.7743
10.8029
10.8308
10.8578
10.8835
10.9088
10.9354
10.9642
10.993
11.0189
11.0408
11.0596
11.0781
11.1006
11.1302
11.1652
11.2002
11.2301
11.2524
11.2682
11.2813
11.2971
11.3205
11.3521
11.3866
11.4168
11.4374
11.4472
11.4496
11.4521
11.463
11.4865
11.5211
11.5606
11.5961
11.6213
11.6368
11.648
11.6603
11.6774
11.6975
11.7143
11.7245
11.7321
11.744
11.7634
11.7912
11.8216
11.8449
11.8544
11.8519
11.8492
11.8561
11.8756
11.9032
11.9276
11.939
11.9372
11.9301
11.9259
11.931
11.9472
11.9702
11.9934
12.0128
12.0289
12.0424
12.0507
12.0531
12.048
12.0355
12.0198
12.0074
12.0052
12.0149
12.0337
12.0565
12.0762
12.0909
1
1
1
1
1
1
1
1
1
1
1
1
1
1
1
1
1
1
1
1
1
1
1
1
1
1
1
1
1
1
1
1
1
1
1
1
1
1
1
1
1
1
1
1
1
1
1
1
1
1
1
1
1
1
1
1
1
1
1
1
1
1
1
1
1
1
1
1
1
1
1
1
1
1
1
1
1
1
1
1
1
1
1
1
1
1
1
1
1
1
1
1
1
1
1
1
1
1
1.63177
8.17343
10.3831
10.4068
10.4435
10.4769
10.5085
10.5377
10.5668
10.5969
10.6281
10.659
10.6884
10.7163
10.7438
10.7726
10.8026
10.8323
10.8603
10.8858
10.9094
10.933
10.9596
10.9888
11.0169
11.0421
11.0643
11.085
11.1069
11.133
11.163
11.1935
11.2217
11.2458
11.2662
11.2847
11.3036
11.3259
11.3525
11.3807
11.4069
11.4281
11.4428
11.4516
11.4589
11.4708
11.4913
11.5201
11.5548
11.5884
11.615
11.634
11.6486
11.6627
11.6789
11.6962
11.711
11.7215
11.731
11.7447
11.7649
11.7914
11.8196
11.8417
11.8522
11.8521
11.8506
11.856
11.8725
11.898
11.923
11.9366
11.9374
11.9312
11.9259
11.9292
11.9441
11.9673
11.9913
12.0108
12.0262
12.0388
12.0469
12.05
12.0461
12.0344
12.019
12.0062
12.0035
12.013
12.0321
12.0551
12.0749
12.0894
1
1
1
1
1
1
1
1
1
1
1
1
1
1
1
1
1
1
1
1
1
1
1
1
1
1
1
1
1
1
1
1
1
1
1
1
1
1
1
1
1
1
1
1
1
1
1
1
1
1
1
1
1
1
1
1
1
1
1
1
1
1
1
1
1
1
1
1
1
1
1
1
1
1
1
1
1
1
1
1
1
1
1
1
1
1
1
1
1
1
1
1
1
1
1
1
1
1
1.60153
8.12049
10.3803
10.4059
10.4431
10.4763
10.5079
10.537
10.5658
10.5955
10.6264
10.6568
10.6858
10.7133
10.7405
10.7698
10.801
10.8323
10.8617
10.8879
10.9107
10.932
10.9559
10.9839
11.0138
11.0425
11.0685
11.0918
11.1135
11.1363
11.161
11.1866
11.2124
11.2385
11.2645
11.2886
11.3102
11.3306
11.3517
11.3734
11.3958
11.4181
11.4385
11.455
11.4676
11.48
11.4963
11.5182
11.5467
11.5783
11.607
11.6307
11.65
11.6659
11.6799
11.6932
11.7052
11.7166
11.7295
11.7467
11.7682
11.7925
11.8163
11.8358
11.8476
11.8515
11.852
11.8565
11.8702
11.893
11.9175
11.9337
11.9378
11.9334
11.928
11.9298
11.9427
11.9652
11.9894
12.0092
12.0243
12.0361
12.0437
12.0472
12.0443
12.0337
12.0187
12.0056
12.0023
12.0114
12.0304
12.0535
12.0733
12.0875
1
1
1
1
1
1
1
1
1
1
1
1
1
1
1
1
1
1
1
1
1
1
1
1
1
1
1
1
1
1
1
1
1
1
1
1
1
1
1
1
1
1
1
1
1
1
1
1
1
1
1
1
1
1
1
1
1
1
1
1
1
1
1
1
1
1
1
1
1
1
1
1
1
1
1
1
1
1
1
1
1
1
1
1
1
1
1
1
1
1
1
1
1
1
1
1
1
1
1.56331
8.05024
10.3798
10.4055
10.4431
10.4758
10.5073
10.5361
10.5641
10.5932
10.6233
10.6532
10.6818
10.709
10.7366
10.7664
10.7983
10.8307
10.8613
10.8888
10.9129
10.934
10.9555
10.9807
11.0093
11.0398
11.0691
11.0953
11.1188
11.1402
11.1611
11.1821
11.205
11.232
11.2619
11.2904
11.314
11.3334
11.3506
11.3676
11.3866
11.4092
11.4343
11.4577
11.4758
11.4889
11.5014
11.5166
11.5382
11.5668
11.5976
11.6269
11.6515
11.669
11.6801
11.6884
11.6974
11.7096
11.727
11.7494
11.7733
11.795
11.8132
11.8283
11.8406
11.8489
11.8534
11.8584
11.8697
11.8887
11.911
11.9285
11.9359
11.9346
11.9306
11.9311
11.9416
11.9619
11.9852
12.0051
12.0205
12.0322
12.0397
12.0436
12.0416
12.0318
12.0176
12.0046
12.0007
12.0091
12.0277
12.0506
12.0704
12.0844
1
1
1
1
1
1
1
1
1
1
1
1
1
1
1
1
1
1
1
1
1
1
1
1
1
1
1
1
1
1
1
1
1
1
1
1
1
1
1
1
1
1
1
1
1
1
1
1
1
1
1
1
1
1
1
1
1
1
1
1
1
1
1
1
1
1
1
1
1
1
1
1
1
1
1
1
1
1
1
1
1
1
1
1
1
1
1
1
1
1
1
1
1
1
1
1
1
1
1.51792
7.96222
10.3842
10.4052
10.4428
10.4749
10.5068
10.5358
10.5638
10.5924
10.6218
10.6508
10.6785
10.7047
10.7316
10.7615
10.7941
10.8273
10.8592
10.8885
10.9146
10.9373
10.9581
10.9806
11.0061
11.0351
11.0657
11.0948
11.1208
11.1431
11.1627
11.1807
11.2009
11.2269
11.2571
11.2877
11.3134
11.3332
11.3492
11.3639
11.3809
11.4031
11.431
11.4593
11.4817
11.496
11.5055
11.5147
11.5299
11.555
11.5877
11.6229
11.6528
11.6718
11.6797
11.6827
11.6883
11.7016
11.7243
11.7526
11.7791
11.7983
11.8102
11.8196
11.8307
11.8431
11.8531
11.8604
11.8699
11.8852
11.9039
11.9213
11.9321
11.9348
11.9333
11.9337
11.9418
11.9586
11.9797
11.9994
12.0156
12.0278
12.0355
12.0397
12.0381
12.0292
12.016
12.0035
11.9993
12.007
12.0248
12.0472
12.0669
12.0806
1
1
1
1
1
1
1
1
1
1
1
1
1
1
1
1
1
1
1
1
1
1
1
1
1
1
1
1
1
1
1
1
1
1
1
1
1
1
1
1
1
1
1
1
1
1
1
1
1
1
1
1
1
1
1
1
1
1
1
1
1
1
1
1
1
1
1
1
1
1
1
1
1
1
1
1
1
1
1
1
1
1
1
1
1
1
1
1
1
1
1
1
1
1
1
1
1
1
1.4663
7.85507
10.3933
10.4039
10.4413
10.473
10.5054
10.5355
10.5643
10.5932
10.6225
10.651
10.6775
10.7019
10.7264
10.7544
10.7863
10.82
10.8537
10.8859
10.9149
10.9405
10.9631
10.9844
11.0064
11.031
11.0592
11.0891
11.118
11.1436
11.1649
11.1827
11.2006
11.2232
11.2503
11.2799
11.3077
11.3301
11.3477
11.3626
11.3788
11.4001
11.4284
11.4595
11.485
11.5007
11.5084
11.5127
11.5226
11.5441
11.5776
11.6175
11.6523
11.6728
11.6781
11.6769
11.6794
11.6938
11.7217
11.7555
11.7839
11.8004
11.807
11.8112
11.8203
11.8355
11.8512
11.8619
11.8707
11.8823
11.8972
11.9133
11.9265
11.9336
11.9357
11.937
11.9428
11.9554
11.9731
11.9921
12.0094
12.0227
12.0312
12.0355
12.034
12.0257
12.0135
12.002
11.9978
12.0047
12.0215
12.0428
12.0622
12.0758
1
1
1
1
1
1
1
1
1
1
1
1
1
1
1
1
1
1
1
1
1
1
1
1
1
1
1
1
1
1
1
1
1
1
1
1
1
1
1
1
1
1
1
1
1
1
1
1
1
1
1
1
1
1
1
1
1
1
1
1
1
1
1
1
1
1
1
1
1
1
1
1
1
1
1
1
1
1
1
1
1
1
1
1
1
1
1
1
1
1
1
1
1
1
1
1
1
1
1.41077
7.73032
10.4024
10.4028
10.4395
10.4696
10.5006
10.5316
10.5623
10.5929
10.6233
10.6524
10.6782
10.7009
10.723
10.748
10.7772
10.8099
10.8445
10.8795
10.9124
10.942
10.9679
10.9901
11.0095
11.0293
11.0527
11.0808
11.1118
11.1415
11.1668
11.1863
11.2029
11.2212
11.2433
11.2701
11.2984
11.3241
11.3453
11.3623
11.3789
11.399
11.4259
11.458
11.4858
11.503
11.5099
11.5114
11.5175
11.5357
11.5687
11.6107
11.6485
11.6706
11.6751
11.6716
11.6727
11.6881
11.7193
11.7562
11.7855
11.8002
11.8034
11.8042
11.8112
11.8276
11.8471
11.8614
11.8705
11.8794
11.8913
11.9054
11.9199
11.9311
11.937
11.9399
11.9437
11.9521
11.966
11.9837
12.0021
12.017
12.0266
12.031
12.0294
12.0215
12.0104
12
11.9961
12.0024
12.0177
12.0378
12.0568
12.0701
1
1
1
1
1
1
1
1
1
1
1
1
1
1
1
1
1
1
1
1
1
1
1
1
1
1
1
1
1
1
1
1
1
1
1
1
1
1
1
1
1
1
1
1
1
1
1
1
1
1
1
1
1
1
1
1
1
1
1
1
1
1
1
1
1
1
1
1
1
1
1
1
1
1
1
1
1
1
1
1
1
1
1
1
1
1
1
1
1
1
1
1
1
1
1
1
1
1
1.35287
7.58834
10.4036
10.4024
10.4406
10.4689
10.4964
10.5254
10.5565
10.5896
10.623
10.6542
10.681
10.7027
10.7224
10.7443
10.7702
10.8003
10.8341
10.8702
10.9058
10.9394
10.9692
10.9938
11.013
11.0295
11.048
11.0726
11.1035
11.1369
11.167
11.19
11.2064
11.2209
11.2375
11.2599
11.288
11.3168
11.3421
11.3623
11.3799
11.3991
11.4235
11.4545
11.4833
11.5021
11.5095
11.5103
11.515
11.531
11.5618
11.6028
11.6407
11.6638
11.6695
11.6674
11.6699
11.6862
11.717
11.7532
11.782
11.7962
11.7987
11.7986
11.8048
11.821
11.8416
11.8579
11.8679
11.8758
11.8862
11.8986
11.9135
11.9276
11.9371
11.9415
11.9438
11.9487
11.959
11.975
11.994
12.0105
12.0213
12.0261
12.0242
12.0167
12.0066
11.9975
11.9941
11.9997
12.0136
12.0323
12.0507
12.0637
1
1
1
1
1
1
1
1
1
1
1
1
1
1
1
1
1
1
1
1
1
1
1
1
1
1
1
1
1
1
1
1
1
1
1
1
1
1
1
1
1
1
1
1
1
1
1
1
1
1
1
1
1
1
1
1
1
1
1
1
1
1
1
1
1
1
1
1
1
1
1
1
1
1
1
1
1
1
1
1
1
1
1
1
1
1
1
1
1
1
1
1
1
1
1
1
1
1
1.28802
7.41728
10.3939
10.402
10.4421
10.47
10.4947
10.5196
10.5477
10.5808
10.6176
10.6533
10.6836
10.7075
10.7269
10.7464
10.7689
10.7949
10.8253
10.8596
10.8957
10.9319
10.9658
10.9941
11.015
11.0302
11.0454
11.0661
11.0949
11.1301
11.1646
11.1915
11.209
11.2204
11.2322
11.2505
11.2777
11.3092
11.3387
11.3625
11.3815
11.4
11.4216
11.4497
11.4779
11.4977
11.5071
11.5098
11.5153
11.5301
11.5574
11.594
11.6286
11.6519
11.6616
11.6647
11.6712
11.6881
11.7158
11.7476
11.7738
11.7882
11.7926
11.7943
11.8013
11.8165
11.8356
11.8517
11.8623
11.871
11.8812
11.8931
11.9079
11.9234
11.9354
11.9409
11.9423
11.9447
11.9523
11.9666
11.9854
12.0032
12.0152
12.0205
12.0187
12.0115
12.0023
11.9943
11.9913
11.9963
12.009
12.0264
12.0439
12.0564
1
1
1
1
1
1
1
1
1
1
1
1
1
1
1
1
1
1
1
1
1
1
1
1
1
1
1
1
1
1
1
1
1
1
1
1
1
1
1
1
1
1
1
1
1
1
1
1
1
1
1
1
1
1
1
1
1
1
1
1
1
1
1
1
1
1
1
1
1
1
1
1
1
1
1
1
1
1
1
1
1
1
1
1
1
1
1
1
1
1
1
1
1
1
1
1
1
1
1.21992
7.22852
10.3755
10.3993
10.4417
10.4734
10.4985
10.52
10.5432
10.5716
10.6064
10.6459
10.6825
10.7114
10.7334
10.7521
10.7709
10.7922
10.8178
10.8488
10.884
10.9215
10.9587
10.9914
11.0153
11.031
11.0446
11.0626
11.0885
11.1225
11.1591
11.1895
11.2088
11.2191
11.2279
11.243
11.2688
11.3018
11.3348
11.3622
11.3833
11.4013
11.4198
11.4435
11.4695
11.4899
11.5023
11.5091
11.517
11.5315
11.5548
11.5847
11.6138
11.637
11.6524
11.6626
11.6743
11.6917
11.7148
11.7403
11.7624
11.7773
11.7853
11.791
11.7998
11.8134
11.8292
11.8432
11.8542
11.8647
11.876
11.8887
11.9038
11.9194
11.9319
11.938
11.9389
11.94
11.9458
11.9586
11.9767
11.995
12.0082
12.0142
12.0128
12.006
11.9976
11.9904
11.9878
11.9923
12.0039
12.0201
12.0366
12.0486
1
1
1
1
1
1
1
1
1
1
1
1
1
1
1
1
1
1
1
1
1
1
1
1
1
1
1
1
1
1
1
1
1
1
1
1
1
1
1
1
1
1
1
1
1
1
1
1
1
1
1
1
1
1
1
1
1
1
1
1
1
1
1
1
1
1
1
1
1
1
1
1
1
1
1
1
1
1
1
1
1
1
1
1
1
1
1
1
1
1
1
1
1
1
1
1
1
1
1.14708
7.03328
10.3554
10.3894
10.4301
10.4705
10.5033
10.5268
10.5474
10.5691
10.5958
10.6303
10.6694
10.7058
10.7355
10.7585
10.7766
10.7936
10.8131
10.8388
10.8715
10.9091
10.9487
10.9856
11.0139
11.0319
11.0457
11.0623
11.0851
11.1161
11.1521
11.1841
11.2057
11.2167
11.2242
11.2368
11.2607
11.2941
11.3299
11.3612
11.3849
11.4027
11.4187
11.4374
11.4599
11.4801
11.496
11.5078
11.5185
11.5329
11.5522
11.5753
11.5992
11.6221
11.6429
11.6605
11.6769
11.694
11.7126
11.732
11.7503
11.7655
11.7774
11.7877
11.7985
11.8105
11.8224
11.8333
11.8444
11.8568
11.8703
11.8848
11.9004
11.9156
11.9274
11.9329
11.9336
11.9342
11.9392
11.9509
11.9681
11.9863
12.0003
12.0072
12.0063
12.0004
11.9926
11.986
11.9835
11.9875
11.9983
12.0133
12.0289
12.0401
1
1
1
1
1
1
1
1
1
1
1
1
1
1
1
1
1
1
1
1
1
1
1
1
1
1
1
1
1
1
1
1
1
1
1
1
1
1
1
1
1
1
1
1
1
1
1
1
1
1
1
1
1
1
1
1
1
1
1
1
1
1
1
1
1
1
1
1
1
1
1
1
1
1
1
1
1
1
1
1
1
1
1
1
1
1
1
1
1
1
1
1
1
1
1
1
1
1
1.05641
6.82425
10.3443
10.3828
10.4201
10.4597
10.4984
10.5301
10.5539
10.5728
10.5927
10.6192
10.6552
10.697
10.7351
10.7644
10.7851
10.8
10.8146
10.8343
10.8626
10.8977
10.9369
10.9754
11.007
11.0283
11.0439
11.0601
11.0806
11.1089
11.1441
11.1774
11.2017
11.2147
11.2221
11.2328
11.2543
11.287
11.3244
11.3589
11.3851
11.4032
11.4171
11.4315
11.4504
11.4701
11.489
11.5047
11.5176
11.5316
11.5476
11.5661
11.5873
11.6107
11.6348
11.6572
11.6762
11.6925
11.7078
11.7236
11.74
11.7558
11.7703
11.7834
11.7953
11.8058
11.8147
11.8233
11.8342
11.8482
11.864
11.8806
11.897
11.9116
11.9219
11.9263
11.9266
11.9274
11.9325
11.9435
11.9596
11.9773
11.9917
11.9992
11.9992
11.9943
11.9872
11.9809
11.9783
11.9817
11.9918
12.0059
12.0206
12.0311
1
1
1
1
1
1
1
1
1
1
1
1
1
1
1
1
1
1
1
1
1
1
1
1
1
1
1
1
1
1
1
1
1
1
1
1
1
1
1
1
1
1
1
1
1
1
1
1
1
1
1
1
1
1
1
1
1
1
1
1
1
1
1
1
1
1
1
1
1
1
1
1
1
1
1
1
1
1
1
1
1
1
1
1
1
1
1
1
1
1
1
1
1
1
1
1
1
1
1.00244
6.55147
10.3289
10.3797
10.4131
10.4503
10.49
10.5267
10.5561
10.5783
10.5958
10.6151
10.6423
10.6806
10.7235
10.761
10.7887
10.8064
10.8185
10.8325
10.8547
10.8858
10.9237
10.9635
10.9982
11.0231
11.0411
11.0575
11.0768
11.1031
11.137
11.1712
11.198
11.2136
11.2216
11.2307
11.2491
11.2797
11.317
11.3535
11.3822
11.4012
11.4139
11.426
11.4429
11.4625
11.483
11.4998
11.5129
11.526
11.5401
11.5574
11.5793
11.6047
11.6299
11.6519
11.67
11.6851
11.6992
11.7149
11.7323
11.7496
11.7651
11.7781
11.7889
11.7979
11.8055
11.8134
11.8247
11.8397
11.8572
11.8755
11.8929
11.907
11.9159
11.9188
11.9186
11.9197
11.925
11.9359
11.9512
11.968
11.9823
11.9903
11.9912
11.9877
11.9815
11.9755
11.9725
11.9752
11.9846
11.9978
12.0119
12.0217
1
1
1
1
1
1
1
1
1
1
1
1
1
1
1
1
1
1
1
1
1
1
1
1
1
1
1
1
1
1
1
1
1
1
1
1
1
1
1
1
1
1
1
1
1
1
1
1
1
1
1
1
1
1
1
1
1
1
1
1
1
1
1
1
1
1
1
1
1
1
1
1
1
1
1
1
1
1
1
1
1
1
1
1
1
1
1
1
1
1
1
1
1
1
1
1
1
1
1.00002
6.22096
10.3026
10.3771
10.4024
10.437
10.4768
10.5189
10.556
10.5838
10.602
10.6163
10.6353
10.666
10.7085
10.7532
10.7892
10.8118
10.8239
10.8336
10.85
10.8764
10.9119
10.9517
10.9884
11.0163
11.0363
11.0532
11.0718
11.0963
11.1288
11.1635
11.1929
11.2116
11.2211
11.2293
11.2449
11.2731
11.3094
11.3466
11.3767
11.3964
11.409
11.4207
11.4375
11.4579
11.4788
11.4942
11.5044
11.5153
11.529
11.5486
11.5747
11.6031
11.628
11.6466
11.6601
11.6724
11.6873
11.7064
11.7275
11.7469
11.7616
11.7717
11.7794
11.7868
11.7947
11.8039
11.8162
11.8322
11.8504
11.8695
11.8874
11.9014
11.9092
11.9108
11.9098
11.911
11.9169
11.9279
11.9427
11.9585
11.9723
11.9804
11.9824
11.9804
11.9755
11.9697
11.9662
11.9682
11.9766
11.9891
12.0027
12.012
1
1
1
1
1
1
1
1
1
1
1
1
1
1
1
1
1
1
1
1
1
1
1
1
1
1
1
1
1
1
1
1
1
1
1
1
1
1
1
1
1
1
1
1
1
1
1
1
1
1
1
1
1
1
1
1
1
1
1
1
1
1
1
1
1
1
1
1
1
1
1
1
1
1
1
1
1
1
1
1
1
1
1
1
1
1
1
1
1
1
1
1
1
1
1
1
1
1
1
5.86964
10.2716
10.3757
10.3912
10.4241
10.4609
10.5055
10.5501
10.5856
10.6087
10.6215
10.634
10.6568
10.6934
10.7399
10.7835
10.8134
10.8283
10.8362
10.8478
10.8691
10.901
10.9399
10.9781
11.0086
11.0307
11.0485
11.0667
11.0898
11.1211
11.1564
11.1879
11.2094
11.2207
11.2287
11.242
11.2674
11.3013
11.3374
11.3677
11.3881
11.4017
11.4148
11.433
11.4546
11.475
11.4881
11.4945
11.5025
11.5165
11.54
11.5716
11.603
11.6267
11.6399
11.6473
11.6567
11.6735
11.6981
11.7246
11.746
11.7586
11.7642
11.7676
11.7733
11.7825
11.7943
11.8087
11.8254
11.8435
11.8623
11.8802
11.8944
11.9017
11.9022
11.9007
11.9019
11.9082
11.9195
11.9341
11.949
11.9619
11.9699
11.9727
11.9724
11.9688
11.9635
11.9597
11.9606
11.9679
11.9796
11.9929
12.0015
1
1
1
1
1
1
1
1
1
1
1
1
1
1
1
1
1
1
1
1
1
1
1
1
1
1
1
1
1
1
1
1
1
1
1
1
1
1
1
1
1
1
1
1
1
1
1
1
1
1
1
1
1
1
1
1
1
1
1
1
1
1
1
1
1
1
1
1
1
1
1
1
1
1
1
1
1
1
1
1
1
1
1
1
1
1
1
1
1
1
1
1
1
1
1
1
1
1
1
5.50196
10.2238
10.374
10.3828
10.4148
10.4462
10.4884
10.5376
10.5813
10.612
10.6281
10.637
10.6535
10.683
10.726
10.7726
10.8092
10.8294
10.8379
10.8465
10.8634
10.8914
10.929
10.9682
11.001
11.0252
11.044
11.062
11.0838
11.1139
11.1492
11.182
11.2057
11.2187
11.2268
11.2384
11.2613
11.293
11.3277
11.3577
11.3787
11.3935
11.4081
11.4277
11.4507
11.4705
11.4816
11.4853
11.4912
11.5051
11.5313
11.5666
11.6007
11.6232
11.6318
11.6344
11.6415
11.6599
11.6898
11.7217
11.7449
11.755
11.7559
11.7549
11.7585
11.7691
11.7842
11.8011
11.8189
11.8365
11.8542
11.8714
11.8859
11.8933
11.8934
11.8916
11.8927
11.8991
11.9106
11.9249
11.9389
11.9508
11.9584
11.9619
11.9631
11.9611
11.9566
11.9527
11.9527
11.9588
11.9695
11.9823
11.9901
1
1
1
1
1
1
1
1
1
1
1
1
1
1
1
1
1
1
1
1
1
1
1
1
1
1
1
1
1
1
1
1
1
1
1
1
1
1
1
1
1
1
1
1
1
1
1
1
1
1
1
1
1
1
1
1
1
1
1
1
1
1
1
1
1
1
1
1
1
1
1
1
1
1
1
1
1
1
1
1
1
1
1
1
1
1
1
1
1
1
1
1
1
1
1
1
1
1
1
5.11761
10.1621
10.3742
10.3777
10.409
10.4363
10.4737
10.5224
10.5716
10.6096
10.6316
10.6418
10.6537
10.6771
10.7144
10.7603
10.801
10.8268
10.8383
10.8456
10.8593
10.8834
10.9189
10.9585
10.9933
11.0197
11.0396
11.0574
11.0782
11.1072
11.1423
11.1759
11.2012
11.2156
11.2236
11.2334
11.2542
11.284
11.3177
11.3481
11.3702
11.3857
11.4003
11.4194
11.4429
11.4628
11.474
11.4782
11.4841
11.4977
11.5234
11.5586
11.5928
11.6148
11.6219
11.6229
11.6294
11.6488
11.6813
11.7162
11.7405
11.7491
11.7467
11.7424
11.7442
11.7554
11.7733
11.7932
11.8122
11.8294
11.8457
11.8617
11.876
11.8838
11.884
11.8823
11.8832
11.8895
11.9009
11.9148
11.9281
11.9391
11.9463
11.9503
11.9528
11.9522
11.949
11.9453
11.9448
11.9497
11.9591
11.971
11.9776
1
1
1
1
1
1
1
1
1
1
1
1
1
1
1
1
1
1
1
1
1
1
1
1
1
1
1
1
1
1
1
1
1
1
1
1
1
1
1
1
1
1
1
1
1
1
1
1
1
1
1
1
1
1
1
1
1
1
1
1
1
1
1
1
1
1
1
1
1
1
1
1
1
1
1
1
1
1
1
1
1
1
1
1
1
1
1
1
1
1
1
1
1
1
1
1
1
1
1
4.71202
10.0896
10.3735
10.3753
10.4043
10.4279
10.4621
10.5087
10.5601
10.6032
10.6315
10.6453
10.6555
10.6739
10.7052
10.7486
10.7911
10.8212
10.837
10.8446
10.8558
10.8767
10.9097
10.9493
10.9859
11.0143
11.0351
11.0527
11.0723
11.1003
11.1353
11.1696
11.1964
11.2119
11.2191
11.2267
11.2449
11.2735
11.3074
11.3395
11.3636
11.3797
11.3928
11.4084
11.4306
11.4517
11.466
11.4739
11.4813
11.4944
11.5169
11.5478
11.5791
11.6011
11.6104
11.6137
11.6215
11.6412
11.6733
11.7078
11.7319
11.7403
11.7366
11.7308
11.7312
11.7422
11.762
11.7842
11.8047
11.8219
11.8368
11.8513
11.8649
11.873
11.8739
11.8726
11.8737
11.8797
11.8904
11.9039
11.9166
11.9272
11.9341
11.9382
11.9415
11.942
11.9401
11.9374
11.9368
11.9406
11.9485
11.9589
11.9636
1
1
1
1
1
1
1
1
1
1
1
1
1
1
1
1
1
1
1
1
1
1
1
1
1
1
1
1
1
1
1
1
1
1
1
1
1
1
1
1
1
1
1
1
1
1
1
1
1
1
1
1
1
1
1
1
1
1
1
1
1
1
1
1
1
1
1
1
1
1
1
1
1
1
1
1
1
1
1
1
1
1
1
1
1
1
1
1
1
1
1
1
1
1
1
1
1
1
1
4.29485
9.99355
10.3687
10.3765
10.4039
10.4245
10.4549
10.4981
10.5493
10.5946
10.6278
10.6461
10.6568
10.6717
10.6979
10.7382
10.7811
10.8142
10.8339
10.8431
10.853
10.8716
10.9021
10.9414
10.979
11.009
11.0305
11.0477
11.066
11.0925
11.1273
11.1627
11.191
11.2075
11.2143
11.2195
11.2345
11.2615
11.2962
11.3309
11.3578
11.3747
11.3857
11.3965
11.4151
11.4373
11.4571
11.4708
11.4809
11.4933
11.5111
11.535
11.5614
11.5839
11.5982
11.6068
11.6175
11.6365
11.6651
11.6961
11.719
11.7281
11.7254
11.7201
11.7199
11.7303
11.7505
11.7741
11.796
11.8136
11.8277
11.8405
11.8527
11.8609
11.863
11.8626
11.8639
11.8694
11.8793
11.892
11.9045
11.9151
11.9217
11.9256
11.9289
11.9303
11.9297
11.9287
11.9288
11.9318
11.9378
11.946
11.9481
1
1
1
1
1
1
1
1
1
1
1
1
1
1
1
1
1
1
1
1
1
1
1
1
1
1
1
1
1
1
1
1
1
1
1
1
1
1
1
1
1
1
1
1
1
1
1
1
1
1
1
1
1
1
1
1
1
1
1
1
1
1
1
1
1
1
1
1
1
1
1
1
1
1
1
1
1
1
1
1
1
1
1
1
1
1
1
1
1
1
1
1
1
1
1
1
1
1
1
3.87516
9.86365
10.3626
10.3773
10.4048
10.4246
10.4521
10.4915
10.5407
10.5858
10.6212
10.6434
10.6557
10.6692
10.6919
10.7291
10.7713
10.8062
10.8285
10.8398
10.8496
10.8668
10.8953
10.934
10.9722
11.0035
11.0257
11.0424
11.0589
11.0829
11.1168
11.1531
11.1832
11.2015
11.209
11.213
11.2249
11.2493
11.2839
11.3208
11.351
11.3694
11.3791
11.3865
11.4005
11.422
11.4461
11.4656
11.4795
11.4917
11.5049
11.5219
11.5434
11.5662
11.5858
11.6008
11.6149
11.633
11.6566
11.6822
11.7028
11.7129
11.713
11.7097
11.71
11.7198
11.7393
11.7633
11.7861
11.8045
11.818
11.8292
11.8397
11.8477
11.851
11.8517
11.8535
11.8585
11.8674
11.8794
11.8921
11.9029
11.9094
11.9124
11.9152
11.9169
11.9179
11.9192
11.9207
11.9233
11.9272
11.9322
11.9311
1
1
1
1
1
1
1
1
1
1
1
1
1
1
1
1
1
1
1
1
1
1
1
1
1
1
1
1
1
1
1
1
1
1
1
1
1
1
1
1
1
1
1
1
1
1
1
1
1
1
1
1
1
1
1
1
1
1
1
1
1
1
1
1
1
1
1
1
1
1
1
1
1
1
1
1
1
1
1
1
1
1
1
1
1
1
1
1
1
1
1
1
1
1
1
1
1
1
1
3.45945
9.69376
10.3589
10.3771
10.4055
10.425
10.4503
10.4871
10.534
10.5777
10.6133
10.6377
10.6516
10.6654
10.6867
10.7215
10.7625
10.7978
10.8216
10.8346
10.8452
10.8621
10.8895
10.9273
10.9658
10.998
11.0209
11.0372
11.0524
11.0731
11.1044
11.1402
11.172
11.193
11.203
11.2078
11.218
11.239
11.271
11.3074
11.3398
11.3609
11.3717
11.3788
11.3901
11.4091
11.4334
11.456
11.4732
11.4861
11.4971
11.5102
11.5284
11.551
11.5739
11.5938
11.611
11.6284
11.6476
11.6676
11.685
11.6957
11.6991
11.6988
11.7008
11.7104
11.7288
11.7521
11.7751
11.794
11.8074
11.8174
11.8263
11.8339
11.8382
11.8399
11.8421
11.8468
11.8548
11.8664
11.8797
11.8909
11.8967
11.8986
11.9001
11.9018
11.9047
11.9089
11.9124
11.9147
11.9164
11.9176
11.913
1
1
1
1
1
1
1
1
1
1
1
1
1
1
1
1
1
1
1
1
1
1
1
1
1
1
1
1
1
1
1
1
1
1
1
1
1
1
1
1
1
1
1
1
1
1
1
1
1
1
1
1
1
1
1
1
1
1
1
1
1
1
1
1
1
1
1
1
1
1
1
1
1
1
1
1
1
1
1
1
1
1
1
1
1
1
1
1
1
1
1
1
1
1
1
1
1
1
1
3.05045
9.48297
10.3596
10.3768
10.4054
10.4257
10.4502
10.4844
10.5286
10.5704
10.6055
10.6298
10.6448
10.6602
10.682
10.7156
10.755
10.7896
10.8138
10.8278
10.8393
10.8568
10.8833
10.9201
10.9589
10.9921
11.0161
11.0327
11.0471
11.065
11.0919
11.1248
11.1564
11.1803
11.1944
11.2027
11.2135
11.232
11.2602
11.293
11.3248
11.3484
11.3629
11.3729
11.3846
11.4009
11.4218
11.4425
11.4602
11.4746
11.487
11.5004
11.5179
11.5397
11.5629
11.5846
11.6037
11.6211
11.6376
11.6533
11.6673
11.6776
11.6833
11.6866
11.6913
11.7017
11.7191
11.741
11.7633
11.7821
11.7956
11.8049
11.8126
11.8196
11.8242
11.8265
11.8292
11.8338
11.8416
11.8534
11.8677
11.8788
11.8834
11.8838
11.8836
11.8854
11.8905
11.898
11.9036
11.9057
11.9049
11.9021
11.8941
1
1
1
1
1
1
1
1
1
1
1
1
1
1
1
1
1
1
1
1
1
1
1
1
1
1
1
1
1
1
1
1
1
1
1
1
1
1
1
1
1
1
1
1
1
1
1
1
1
1
1
1
1
1
1
1
1
1
1
1
1
1
1
1
1
1
1
1
1
1
1
1
1
1
1
1
1
1
1
1
1
1
1
1
1
1
1
1
1
1
1
1
1
1
1
1
1
1
1
2.64945
9.22653
10.3648
10.3778
10.4053
10.4263
10.4506
10.4832
10.5246
10.5642
10.5975
10.621
10.6367
10.6545
10.6781
10.7111
10.7489
10.782
10.8054
10.8197
10.8326
10.8509
10.877
10.9124
10.951
10.985
11.01
11.0277
11.0424
11.0588
11.0817
11.11
11.139
11.1638
11.1823
11.1959
11.21
11.228
11.2524
11.2797
11.3075
11.3317
11.3509
11.3667
11.3813
11.3964
11.4123
11.4277
11.4426
11.4584
11.4747
11.4923
11.5115
11.5321
11.5528
11.573
11.5922
11.6101
11.6261
11.6398
11.651
11.6598
11.6665
11.6727
11.6808
11.6931
11.7102
11.7304
11.7508
11.7688
11.7822
11.7915
11.7987
11.8049
11.8092
11.8116
11.8146
11.8197
11.828
11.8407
11.856
11.8664
11.8688
11.8677
11.866
11.8683
11.8759
11.8862
11.894
11.8958
11.8924
11.8856
11.875
1
1
1
1
1
1
1
1
1
1
1
1
1
1
1
1
1
1
1
1
1
1
1
1
1
1
1
1
1
1
1
1
1
1
1
1
1
1
1
1
1
1
1
1
1
1
1
1
1
1
1
1
1
1
1
1
1
1
1
1
1
1
1
1
1
1
1
1
1
1
1
1
1
1
1
1
1
1
1
1
1
1
1
1
1
1
1
1
1
1
1
1
1
1
1
1
1
1
1
2.26662
8.9179
10.3731
10.3798
10.4044
10.4255
10.4505
10.4823
10.5205
10.5574
10.5885
10.6106
10.6274
10.6478
10.6739
10.7071
10.7431
10.7744
10.7966
10.8113
10.8257
10.8454
10.8714
10.9045
10.9412
10.9749
11.0009
11.0206
11.037
11.0538
11.0745
11.0989
11.1237
11.1464
11.1666
11.1851
11.2044
11.2244
11.2469
11.2695
11.292
11.3143
11.3363
11.3581
11.3775
11.393
11.4045
11.4133
11.4239
11.4396
11.4606
11.4843
11.5069
11.5262
11.5428
11.559
11.5767
11.5956
11.6131
11.6268
11.6364
11.643
11.6493
11.6575
11.669
11.684
11.7016
11.72
11.7378
11.754
11.7673
11.7771
11.7844
11.7899
11.7932
11.795
11.7984
11.8045
11.8145
11.8286
11.8441
11.853
11.8527
11.8499
11.8477
11.8511
11.8611
11.8739
11.883
11.8843
11.8785
11.8684
11.8562
1
1
1
1
1
1
1
1
1
1
1
1
1
1
1
1
1
1
1
1
1
1
1
1
1
1
1
1
1
1
1
1
1
1
1
1
1
1
1
1
1
1
1
1
1
1
1
1
1
1
1
1
1
1
1
1
1
1
1
1
1
1
1
1
1
1
1
1
1
1
1
1
1
1
1
1
1
1
1
1
1
1
1
1
1
1
1
1
1
1
1
1
1
1
1
1
1
1
1
1.92269
8.54953
10.3815
10.3799
10.4021
10.4243
10.4501
10.4813
10.5166
10.5503
10.5787
10.5992
10.6173
10.6404
10.6688
10.7021
10.7365
10.7658
10.787
10.8026
10.8193
10.8409
10.8672
10.8978
10.931
10.9623
10.9881
11.0097
11.0294
11.0487
11.0695
11.0915
11.1124
11.1312
11.1496
11.17
11.1944
11.2187
11.2422
11.2625
11.2803
11.2989
11.3203
11.3455
11.3694
11.3872
11.3968
11.401
11.4074
11.422
11.446
11.4751
11.5012
11.5197
11.5321
11.5436
11.5589
11.5786
11.5987
11.6141
11.6229
11.6274
11.6323
11.6414
11.656
11.6742
11.6928
11.7095
11.7242
11.7381
11.7509
11.7615
11.7693
11.7742
11.7761
11.7772
11.7809
11.7886
11.8012
11.8169
11.8314
11.8379
11.8352
11.8307
11.829
11.8342
11.8465
11.8609
11.8701
11.8707
11.863
11.8506
11.8383
1
1
1
1
1
1
1
1
1
1
1
1
1
1
1
1
1
1
1
1
1
1
1
1
1
1
1
1
1
1
1
1
1
1
1
1
1
1
1
1
1
1
1
1
1
1
1
1
1
1
1
1
1
1
1
1
1
1
1
1
1
1
1
1
1
1
1
1
1
1
1
1
1
1
1
1
1
1
1
1
1
1
1
1
1
1
1
1
1
1
1
1
1
1
1
1
1
1
1
1.62845
8.12509
10.3836
10.3797
10.4004
10.4222
10.4487
10.4793
10.5123
10.5434
10.5693
10.5885
10.6083
10.6335
10.6629
10.6954
10.7275
10.7549
10.7757
10.7929
10.8124
10.8366
10.864
10.8931
10.9226
10.95
10.9731
10.9946
11.0171
11.0402
11.0635
11.0857
11.1045
11.1198
11.1346
11.1531
11.1796
11.2089
11.2361
11.2572
11.2723
11.287
11.3051
11.33
11.3564
11.3774
11.3882
11.3909
11.3946
11.4074
11.432
11.4637
11.4921
11.5105
11.5199
11.5275
11.5404
11.5606
11.5831
11.6009
11.6098
11.6125
11.6158
11.6252
11.6422
11.6634
11.6832
11.6985
11.7101
11.7213
11.7334
11.7446
11.7531
11.7574
11.7581
11.7585
11.7628
11.7726
11.788
11.8048
11.8171
11.8205
11.8162
11.8108
11.8102
11.8179
11.8321
11.8468
11.855
11.8546
11.8457
11.8325
11.8216
1
1
1
1
1
1
1
1
1
1
1
1
1
1
1
1
1
1
1
1
1
1
1
1
1
1
1
1
1
1
1
1
1
1
1
1
1
1
1
1
1
1
1
1
1
1
1
1
1
1
1
1
1
1
1
1
1
1
1
1
1
1
1
1
1
1
1
1
1
1
1
1
1
1
1
1
1
1
1
1
1
1
1
1
1
1
1
1
1
1
1
1
1
1
1
1
1
1
1
1.3814
7.65668
10.3713
10.3725
10.3926
10.4165
10.4435
10.4732
10.5041
10.5334
10.5582
10.5785
10.6011
10.6285
10.6582
10.6886
10.7175
10.7422
10.7625
10.7812
10.8031
10.8301
10.8599
10.8896
10.9173
10.9413
10.9605
10.9786
11.0002
11.0256
11.053
11.0781
11.0976
11.1115
11.1234
11.1383
11.1627
11.1944
11.226
11.2506
11.266
11.2782
11.292
11.3135
11.3394
11.3633
11.3775
11.3822
11.3853
11.396
11.4186
11.4497
11.4788
11.4976
11.5062
11.5117
11.5227
11.5426
11.5668
11.5865
11.5961
11.5979
11.6
11.6091
11.6278
11.6514
11.6724
11.6865
11.6954
11.704
11.7147
11.7262
11.7353
11.7393
11.7393
11.7395
11.7447
11.757
11.7746
11.7913
11.8008
11.8011
11.7958
11.7908
11.7922
11.8022
11.8173
11.831
11.8375
11.8357
11.8268
11.8142
11.806
1
1
1
1
1
1
1
1
1
1
1
1
1
1
1
1
1
1
1
1
1
1
1
1
1
1
1
1
1
1
1
1
1
1
1
1
1
1
1
1
1
1
1
1
1
1
1
1
1
1
1
1
1
1
1
1
1
1
1
1
1
1
1
1
1
1
1
1
1
1
1
1
1
1
1
1
1
1
1
1
1
1
1
1
1
1
1
1
1
1
1
1
1
1
1
1
1
1
1
1.16233
7.16142
10.3525
10.3717
10.3863
10.4115
10.4398
10.4686
10.4966
10.523
10.5468
10.5695
10.5953
10.624
10.6528
10.6809
10.707
10.7296
10.7493
10.7688
10.7919
10.8205
10.8518
10.8835
10.912
10.9351
10.9523
10.967
10.9848
11.008
11.0365
11.0654
11.0885
11.1041
11.1154
11.1279
11.1479
11.1782
11.2117
11.2404
11.2589
11.2707
11.2814
11.2981
11.3212
11.346
11.3645
11.3733
11.3776
11.3866
11.4057
11.4335
11.4616
11.4813
11.4909
11.4964
11.5065
11.5256
11.55
11.5707
11.5812
11.5831
11.5844
11.5933
11.6129
11.638
11.6599
11.6734
11.6802
11.6863
11.6953
11.7063
11.7155
11.7196
11.7198
11.7208
11.7274
11.7418
11.7602
11.7754
11.782
11.78
11.7743
11.7712
11.7754
11.787
11.8014
11.813
11.8176
11.8145
11.8064
11.7961
11.7913
1
1
1
1
1
1
1
1
1
1
1
1
1
1
1
1
1
1
1
1
1
1
1
1
1
1
1
1
1
1
1
1
1
1
1
1
1
1
1
1
1
1
1
1
1
1
1
1
1
1
1
1
1
1
1
1
1
1
1
1
1
1
1
1
1
1
1
1
1
1
1
1
1
1
1
1
1
1
1
1
1
1
1
1
1
1
1
1
1
1
1
1
1
1
1
1
1
1
1
1.00823
6.64968
10.2968
10.3327
10.3585
10.3894
10.4203
10.4504
10.4791
10.5059
10.5313
10.5585
10.5893
10.6206
10.6501
10.6769
10.7004
10.7205
10.7388
10.758
10.7808
10.8087
10.8394
10.872
10.9031
10.9284
10.9467
10.9604
10.975
10.9933
11.0176
11.047
11.0739
11.094
11.1081
11.1209
11.1375
11.1637
11.1953
11.2261
11.2482
11.262
11.2719
11.2848
11.3042
11.328
11.3492
11.3624
11.3693
11.3773
11.3925
11.416
11.442
11.4627
11.4746
11.4816
11.4918
11.5097
11.5331
11.5538
11.5651
11.5676
11.5688
11.5775
11.5972
11.623
11.6456
11.659
11.6645
11.6683
11.6752
11.685
11.6939
11.6985
11.7
11.7025
11.711
11.7265
11.7441
11.7565
11.7606
11.7578
11.753
11.7525
11.7593
11.7713
11.7839
11.7926
11.795
11.7913
11.785
11.7781
11.7768
1
1
1
1
1
1
1
1
1
1
1
1
1
1
1
1
1
1
1
1
1
1
1
1
1
1
1
1
1
1
1
1
1
1
1
1
1
1
1
1
1
1
1
1
1
1
1
1
1
1
1
1
1
1
1
1
1
1
1
1
1
1
1
1
1
1
1
1
1
1
1
1
1
1
1
1
1
1
1
1
1
1
1
1
1
1
1
1
1
1
1
1
1
1
1
1
1
1
1
1.00006
6.03492
10.2094
10.3019
10.3443
10.3789
10.4091
10.4382
10.466
10.4931
10.5201
10.5488
10.5793
10.6089
10.6368
10.6627
10.6866
10.7087
10.7299
10.7509
10.7731
10.7981
10.8245
10.855
10.8876
10.9165
10.9389
10.9554
10.9698
10.9843
11.0018
11.0267
11.0544
11.079
11.0986
11.1148
11.1306
11.1522
11.1794
11.209
11.2335
11.2505
11.2621
11.2736
11.2897
11.3108
11.3323
11.3485
11.3582
11.3661
11.3785
11.3979
11.4217
11.4432
11.4578
11.4673
11.478
11.4947
11.5163
11.5361
11.5477
11.5512
11.5526
11.5611
11.5803
11.6063
11.6295
11.6433
11.6482
11.6502
11.6547
11.6624
11.6706
11.6763
11.6798
11.6848
11.695
11.7104
11.7257
11.7351
11.7373
11.7346
11.7324
11.735
11.7434
11.7542
11.7639
11.7695
11.7701
11.7669
11.7633
11.7602
11.762
1
1
1
1
1
1
1
1
1
1
1
1
1
1
1
1
1
1
1
1
1
1
1
1
1
1
1
1
1
1
1
1
1
1
1
1
1
1
1
1
1
1
1
1
1
1
1
1
1
1
1
1
1
1
1
1
1
1
1
1
1
1
1
1
1
1
1
1
1
1
1
1
1
1
1
1
1
1
1
1
1
1
1
1
1
1
1
1
1
1
1
1
1
1
1
1
1
1
1
1
5.3572
10.1164
10.276
10.321
10.36
10.3923
10.423
10.4528
10.4823
10.5117
10.5415
10.5709
10.5982
10.6241
10.6488
10.6725
10.6955
10.7188
10.7435
10.7696
10.7951
10.8177
10.8404