/*--------------------------------*- C++ -*----------------------------------*\
  =========                 |
  \\      /  F ield         | OpenFOAM: The Open Source CFD Toolbox
   \\    /   O peration     | Website:  https://openfoam.org
    \\  /    A nd           | Version:  7
     \\/     M anipulation  |
\*---------------------------------------------------------------------------*/
FoamFile
{
    version     2.0;
    format      ascii;
    class       volScalarField;
    location    "2.9";
    object      rho;
}
// * * * * * * * * * * * * * * * * * * * * * * * * * * * * * * * * * * * * * //

dimensions      [1 -3 0 0 0 0 0];

internalField   nonuniform List<scalar> 
258048
(
1.40001
1.40001
1.40001
1.40001
1.40001
1.40001
1.40001
1.40001
1.40001
1.40001
1.40001
1.40001
1.40001
1.40001
1.40001
1.40001
1.40001
1.40001
1.40001
1.40001
1.40001
1.40001
1.40001
1.40001
1.40001
1.40001
1.40001
1.40001
1.40001
1.40001
1.40001
1.40001
1.40001
1.40001
1.40001
1.40001
1.40001
1.40001
1.40001
1.40001
1.40001
1.40001
1.40001
1.40001
1.40001
1.40001
1.40001
1.40001
1.40001
1.40001
1.40001
1.40001
1.40001
1.40001
1.40001
1.40001
1.40001
1.40001
1.40001
1.40001
1.40001
1.40001
1.40001
1.40001
1.40001
1.40001
1.40001
1.40001
1.40001
1.40001
1.40001
1.40001
1.40001
1.40001
1.40001
1.40001
1.40001
1.40001
1.40001
1.40001
1.40001
1.40001
1.40001
1.40001
1.40001
1.40001
1.40001
1.40001
1.40001
1.40001
1.40001
1.40001
1.40001
1.40001
1.40001
1.40001
1.40001
1.40001
1.76881
4.65772
5.42132
5.42013
5.43012
5.44207
5.45462
5.46706
5.47948
5.49192
5.5041
5.51537
5.52525
5.53405
5.54291
5.55273
5.5634
5.57448
5.58555
5.59613
5.6061
5.61589
5.6256
5.63484
5.64342
5.65131
5.65901
5.66755
5.67842
5.69201
5.70635
5.71888
5.72775
5.73263
5.73507
5.73763
5.74322
5.75375
5.76809
5.78263
5.79356
5.7987
5.79903
5.79782
5.79834
5.80401
5.8158
5.83124
5.84651
5.85788
5.86381
5.86599
5.86791
5.87224
5.88021
5.88978
5.89706
5.90049
5.90192
5.90424
5.90948
5.91886
5.93006
5.9387
5.94196
5.94045
5.93895
5.94105
5.94742
5.95635
5.96391
5.96717
5.96611
5.96364
5.96268
5.96534
5.97182
5.98046
5.98927
5.99689
6.00333
6.00847
6.01111
6.01108
6.00811
6.00197
5.99413
5.98693
5.98264
5.98175
5.98349
5.98699
5.99098
5.99522
1.40001
1.40001
1.40001
1.40001
1.40001
1.40001
1.40001
1.40001
1.40001
1.40001
1.40001
1.40001
1.40001
1.40001
1.40001
1.40001
1.40001
1.40001
1.40001
1.40001
1.40001
1.40001
1.40001
1.40001
1.40001
1.40001
1.40001
1.40001
1.40001
1.40001
1.40001
1.40001
1.40001
1.40001
1.40001
1.40001
1.40001
1.40001
1.40001
1.40001
1.40001
1.40001
1.40001
1.40001
1.40001
1.40001
1.40001
1.40001
1.40001
1.40001
1.40001
1.40001
1.40001
1.40001
1.40001
1.40001
1.40001
1.40001
1.40001
1.40001
1.40001
1.40001
1.40001
1.40001
1.40001
1.40001
1.40001
1.40001
1.40001
1.40001
1.40001
1.40001
1.40001
1.40001
1.40001
1.40001
1.40001
1.40001
1.40001
1.40001
1.40001
1.40001
1.40001
1.40001
1.40001
1.40001
1.40001
1.40001
1.40001
1.40001
1.40001
1.40001
1.40001
1.40001
1.40001
1.40001
1.40001
1.40001
1.76383
4.64917
5.41897
5.41961
5.43009
5.44219
5.45477
5.46719
5.47961
5.49204
5.50416
5.51523
5.52486
5.53354
5.54248
5.55266
5.56389
5.57541
5.58649
5.59663
5.60579
5.61472
5.6242
5.63394
5.64339
5.65229
5.66081
5.66964
5.67981
5.69193
5.7049
5.71656
5.7253
5.73093
5.73486
5.73898
5.74523
5.75498
5.76766
5.78062
5.79087
5.79677
5.79876
5.79901
5.80048
5.80607
5.81671
5.83059
5.8448
5.85594
5.86242
5.86555
5.86825
5.8729
5.88049
5.88932
5.89623
5.89987
5.90176
5.90437
5.90959
5.9187
5.92964
5.93839
5.94198
5.94084
5.93931
5.94089
5.94679
5.95575
5.96383
5.96757
5.96681
5.96426
5.96295
5.9652
5.97165
5.98054
5.98949
5.99705
6.00326
6.00824
6.01091
6.01107
6.00825
6.00217
5.99425
5.98688
5.9825
5.98162
5.9834
5.98689
5.99081
5.99494
1.40001
1.40001
1.40001
1.40001
1.40001
1.40001
1.40001
1.40001
1.40001
1.40001
1.40001
1.40001
1.40001
1.40001
1.40001
1.40001
1.40001
1.40001
1.40001
1.40001
1.40001
1.40001
1.40001
1.40001
1.40001
1.40001
1.40001
1.40001
1.40001
1.40001
1.40001
1.40001
1.40001
1.40001
1.40001
1.40001
1.40001
1.40001
1.40001
1.40001
1.40001
1.40001
1.40001
1.40001
1.40001
1.40001
1.40001
1.40001
1.40001
1.40001
1.40001
1.40001
1.40001
1.40001
1.40001
1.40001
1.40001
1.40001
1.40001
1.40001
1.40001
1.40001
1.40001
1.40001
1.40001
1.40001
1.40001
1.40001
1.40001
1.40001
1.40001
1.40001
1.40001
1.40001
1.40001
1.40001
1.40001
1.40001
1.40001
1.40001
1.40001
1.40001
1.40001
1.40001
1.40001
1.40001
1.40001
1.40001
1.40001
1.40001
1.40001
1.40001
1.40001
1.40001
1.40001
1.40001
1.40001
1.40001
1.75288
4.63498
5.416
5.41865
5.42997
5.44242
5.4552
5.46757
5.47985
5.49203
5.5038
5.51448
5.52382
5.5325
5.54162
5.55225
5.56414
5.5763
5.58763
5.59744
5.60578
5.61352
5.62233
5.63241
5.64288
5.65315
5.66288
5.67229
5.68197
5.69254
5.70341
5.7133
5.72141
5.72792
5.73382
5.74024
5.74783
5.7572
5.76799
5.77856
5.78722
5.79322
5.7969
5.79952
5.80289
5.80889
5.81838
5.83023
5.84272
5.8532
5.86015
5.86449
5.86844
5.87375
5.881
5.88886
5.8951
5.89886
5.90136
5.9046
5.91014
5.91881
5.92895
5.93728
5.94119
5.94092
5.93981
5.94087
5.94569
5.95391
5.96221
5.96672
5.96686
5.96467
5.96296
5.96456
5.97054
5.97952
5.98875
5.99635
6.00232
6.00699
6.0096
6.00999
6.00755
6.00181
5.994
5.98649
5.98192
5.98097
5.98283
5.98641
5.99038
5.99445
1.40001
1.40001
1.40001
1.40001
1.40001
1.40001
1.40001
1.40001
1.40001
1.40001
1.40001
1.40001
1.40001
1.40001
1.40001
1.40001
1.40001
1.40001
1.40001
1.40001
1.40001
1.40001
1.40001
1.40001
1.40001
1.40001
1.40001
1.40001
1.40001
1.40001
1.40001
1.40001
1.40001
1.40001
1.40001
1.40001
1.40001
1.40001
1.40001
1.40001
1.40001
1.40001
1.40001
1.40001
1.40001
1.40001
1.40001
1.40001
1.40001
1.40001
1.40001
1.40001
1.40001
1.40001
1.40001
1.40001
1.40001
1.40001
1.40001
1.40001
1.40001
1.40001
1.40001
1.40001
1.40001
1.40001
1.40001
1.40001
1.40001
1.40001
1.40001
1.40001
1.40001
1.40001
1.40001
1.40001
1.40001
1.40001
1.40001
1.40001
1.40001
1.40001
1.40001
1.40001
1.40001
1.40001
1.40001
1.40001
1.40001
1.40001
1.40001
1.40001
1.40001
1.40001
1.40001
1.40001
1.40001
1.40001
1.73667
4.61533
5.41328
5.4183
5.43057
5.44318
5.45605
5.46831
5.4802
5.49181
5.50294
5.51307
5.52223
5.53103
5.54052
5.55167
5.56418
5.57688
5.5885
5.59821
5.60601
5.61282
5.62067
5.63063
5.64206
5.65377
5.66493
5.67503
5.68426
5.69317
5.70171
5.70956
5.71682
5.7243
5.7327
5.74178
5.75068
5.75939
5.76809
5.77615
5.78318
5.78931
5.79493
5.8004
5.8059
5.81215
5.82012
5.82956
5.83989
5.84958
5.85723
5.86325
5.86888
5.87488
5.88136
5.88776
5.89309
5.89718
5.90081
5.90526
5.91135
5.9192
5.9278
5.93522
5.93959
5.94068
5.94027
5.94103
5.94488
5.95213
5.96028
5.96568
5.96699
5.96545
5.96368
5.96475
5.97007
5.97881
5.98815
5.99583
6.00167
6.00609
6.00856
6.00905
6.00695
6.00158
5.99394
5.98633
5.98155
5.98043
5.98225
5.98585
5.98985
5.99383
1.40001
1.40001
1.40001
1.40001
1.40001
1.40001
1.40001
1.40001
1.40001
1.40001
1.40001
1.40001
1.40001
1.40001
1.40001
1.40001
1.40001
1.40001
1.40001
1.40001
1.40001
1.40001
1.40001
1.40001
1.40001
1.40001
1.40001
1.40001
1.40001
1.40001
1.40001
1.40001
1.40001
1.40001
1.40001
1.40001
1.40001
1.40001
1.40001
1.40001
1.40001
1.40001
1.40001
1.40001
1.40001
1.40001
1.40001
1.40001
1.40001
1.40001
1.40001
1.40001
1.40001
1.40001
1.40001
1.40001
1.40001
1.40001
1.40001
1.40001
1.40001
1.40001
1.40001
1.40001
1.40001
1.40001
1.40001
1.40001
1.40001
1.40001
1.40001
1.40001
1.40001
1.40001
1.40001
1.40001
1.40001
1.40001
1.40001
1.40001
1.40001
1.40001
1.40001
1.40001
1.40001
1.40001
1.40001
1.40001
1.40001
1.40001
1.40001
1.40001
1.40001
1.40001
1.40001
1.40001
1.40001
1.40001
1.7159
4.58893
5.41164
5.41841
5.43158
5.44426
5.45703
5.46886
5.47999
5.49086
5.50129
5.51099
5.52015
5.52928
5.53944
5.55123
5.56418
5.5771
5.58879
5.59858
5.60648
5.61314
5.62024
5.62945
5.64071
5.65321
5.66557
5.6766
5.686
5.69391
5.70062
5.7065
5.71271
5.72092
5.73137
5.74254
5.75252
5.76095
5.76827
5.7744
5.77988
5.78577
5.79295
5.80102
5.80869
5.81526
5.82176
5.82887
5.8369
5.84555
5.85387
5.86179
5.86931
5.87597
5.88143
5.88596
5.89029
5.8948
5.89996
5.90622
5.91318
5.92013
5.92664
5.93252
5.93714
5.9398
5.94075
5.9417
5.94475
5.95063
5.95797
5.96384
5.96634
5.96588
5.96461
5.96524
5.96967
5.97765
5.98668
5.99444
6.00039
6.00477
6.00719
6.00779
6.00598
6.00098
5.9936
5.98601
5.98103
5.97967
5.98132
5.98486
5.98888
5.99279
1.40001
1.40001
1.40001
1.40001
1.40001
1.40001
1.40001
1.40001
1.40001
1.40001
1.40001
1.40001
1.40001
1.40001
1.40001
1.40001
1.40001
1.40001
1.40001
1.40001
1.40001
1.40001
1.40001
1.40001
1.40001
1.40001
1.40001
1.40001
1.40001
1.40001
1.40001
1.40001
1.40001
1.40001
1.40001
1.40001
1.40001
1.40001
1.40001
1.40001
1.40001
1.40001
1.40001
1.40001
1.40001
1.40001
1.40001
1.40001
1.40001
1.40001
1.40001
1.40001
1.40001
1.40001
1.40001
1.40001
1.40001
1.40001
1.40001
1.40001
1.40001
1.40001
1.40001
1.40001
1.40001
1.40001
1.40001
1.40001
1.40001
1.40001
1.40001
1.40001
1.40001
1.40001
1.40001
1.40001
1.40001
1.40001
1.40001
1.40001
1.40001
1.40001
1.40001
1.40001
1.40001
1.40001
1.40001
1.40001
1.40001
1.40001
1.40001
1.40001
1.40001
1.40001
1.40001
1.40001
1.40001
1.40001
1.69108
4.55596
5.41195
5.41861
5.43254
5.44521
5.45793
5.46939
5.47992
5.49013
5.49995
5.50934
5.51846
5.52781
5.53832
5.55058
5.56388
5.5769
5.58858
5.59847
5.60673
5.61389
5.6209
5.62937
5.63979
5.65195
5.66473
5.67662
5.68654
5.69421
5.69994
5.70444
5.70977
5.71808
5.72929
5.74169
5.75271
5.76146
5.76832
5.77348
5.77784
5.78326
5.7913
5.80122
5.81063
5.81771
5.8231
5.82799
5.83395
5.84144
5.85032
5.8603
5.86978
5.87698
5.88119
5.8838
5.88697
5.892
5.89904
5.90745
5.9153
5.92129
5.92552
5.92934
5.9336
5.93778
5.94066
5.94242
5.94488
5.94945
5.95548
5.96127
5.96496
5.96597
5.9656
5.96616
5.96975
5.97655
5.9848
5.99247
5.9987
6.00326
6.00579
6.00647
6.00479
6.00009
5.99306
5.98565
5.98056
5.97894
5.98032
5.98367
5.98768
5.99154
1.40001
1.40001
1.40001
1.40001
1.40001
1.40001
1.40001
1.40001
1.40001
1.40001
1.40001
1.40001
1.40001
1.40001
1.40001
1.40001
1.40001
1.40001
1.40001
1.40001
1.40001
1.40001
1.40001
1.40001
1.40001
1.40001
1.40001
1.40001
1.40001
1.40001
1.40001
1.40001
1.40001
1.40001
1.40001
1.40001
1.40001
1.40001
1.40001
1.40001
1.40001
1.40001
1.40001
1.40001
1.40001
1.40001
1.40001
1.40001
1.40001
1.40001
1.40001
1.40001
1.40001
1.40001
1.40001
1.40001
1.40001
1.40001
1.40001
1.40001
1.40001
1.40001
1.40001
1.40001
1.40001
1.40001
1.40001
1.40001
1.40001
1.40001
1.40001
1.40001
1.40001
1.40001
1.40001
1.40001
1.40001
1.40001
1.40001
1.40001
1.40001
1.40001
1.40001
1.40001
1.40001
1.40001
1.40001
1.40001
1.40001
1.40001
1.40001
1.40001
1.40001
1.40001
1.40001
1.40001
1.40001
1.40001
1.66276
4.51611
5.41435
5.41847
5.43296
5.44563
5.45835
5.46971
5.48003
5.48984
5.49947
5.50885
5.51802
5.52731
5.53747
5.54929
5.56234
5.57526
5.58708
5.59747
5.60639
5.61451
5.6224
5.63069
5.64012
5.65089
5.66281
5.67475
5.68533
5.69359
5.69943
5.70358
5.70824
5.71578
5.72646
5.73907
5.75113
5.76093
5.76828
5.77326
5.77707
5.78188
5.78996
5.80094
5.81153
5.81922
5.82397
5.82717
5.83121
5.83759
5.84675
5.85836
5.8696
5.87734
5.88048
5.88154
5.88366
5.88918
5.89816
5.90857
5.91711
5.92207
5.92431
5.92622
5.92979
5.93509
5.94002
5.94299
5.94526
5.94851
5.95315
5.95844
5.96297
5.96553
5.96645
5.96735
5.97012
5.97545
5.98252
5.98992
5.99655
6.00155
6.00433
6.00505
6.00338
5.99886
5.99222
5.98515
5.98005
5.97816
5.97914
5.98214
5.98609
5.98991
1.40001
1.40001
1.40001
1.40001
1.40001
1.40001
1.40001
1.40001
1.40001
1.40001
1.40001
1.40001
1.40001
1.40001
1.40001
1.40001
1.40001
1.40001
1.40001
1.40001
1.40001
1.40001
1.40001
1.40001
1.40001
1.40001
1.40001
1.40001
1.40001
1.40001
1.40001
1.40001
1.40001
1.40001
1.40001
1.40001
1.40001
1.40001
1.40001
1.40001
1.40001
1.40001
1.40001
1.40001
1.40001
1.40001
1.40001
1.40001
1.40001
1.40001
1.40001
1.40001
1.40001
1.40001
1.40001
1.40001
1.40001
1.40001
1.40001
1.40001
1.40001
1.40001
1.40001
1.40001
1.40001
1.40001
1.40001
1.40001
1.40001
1.40001
1.40001
1.40001
1.40001
1.40001
1.40001
1.40001
1.40001
1.40001
1.40001
1.40001
1.40001
1.40001
1.40001
1.40001
1.40001
1.40001
1.40001
1.40001
1.40001
1.40001
1.40001
1.40001
1.40001
1.40001
1.40001
1.40001
1.40001
1.40001
1.63205
4.4693
5.41792
5.41848
5.43299
5.44533
5.45744
5.46864
5.47909
5.48919
5.49921
5.50911
5.51857
5.52778
5.53745
5.54826
5.56018
5.57238
5.58405
5.59502
5.60508
5.61453
5.62375
5.6327
5.64137
5.65058
5.66087
5.67199
5.68291
5.69211
5.69884
5.70344
5.70776
5.7142
5.72361
5.73562
5.74823
5.75933
5.76784
5.77334
5.77702
5.78122
5.78871
5.80008
5.81157
5.81986
5.82436
5.82657
5.82923
5.83459
5.84359
5.85591
5.86825
5.87656
5.87927
5.8795
5.88112
5.8871
5.89734
5.90892
5.91777
5.922
5.92295
5.92357
5.92644
5.93221
5.93861
5.94285
5.94524
5.94759
5.95111
5.95568
5.96066
5.96464
5.96695
5.96842
5.97045
5.9743
5.98006
5.98702
5.99404
5.99961
6.00275
6.00354
6.00179
5.99738
5.99112
5.98449
5.97948
5.97733
5.97782
5.98037
5.9842
5.98798
1.40001
1.40001
1.40001
1.40001
1.40001
1.40001
1.40001
1.40001
1.40001
1.40001
1.40001
1.40001
1.40001
1.40001
1.40001
1.40001
1.40001
1.40001
1.40001
1.40001
1.40001
1.40001
1.40001
1.40001
1.40001
1.40001
1.40001
1.40001
1.40001
1.40001
1.40001
1.40001
1.40001
1.40001
1.40001
1.40001
1.40001
1.40001
1.40001
1.40001
1.40001
1.40001
1.40001
1.40001
1.40001
1.40001
1.40001
1.40001
1.40001
1.40001
1.40001
1.40001
1.40001
1.40001
1.40001
1.40001
1.40001
1.40001
1.40001
1.40001
1.40001
1.40001
1.40001
1.40001
1.40001
1.40001
1.40001
1.40001
1.40001
1.40001
1.40001
1.40001
1.40001
1.40001
1.40001
1.40001
1.40001
1.40001
1.40001
1.40001
1.40001
1.40001
1.40001
1.40001
1.40001
1.40001
1.40001
1.40001
1.40001
1.40001
1.40001
1.40001
1.40001
1.40001
1.40001
1.40001
1.40001
1.40001
1.59976
4.41593
5.41929
5.41944
5.43442
5.4459
5.45636
5.46647
5.47672
5.4876
5.49885
5.50989
5.52018
5.52939
5.53836
5.54804
5.55849
5.56936
5.58032
5.59133
5.6022
5.61309
5.6238
5.63386
5.64272
5.65086
5.65947
5.66929
5.67989
5.68993
5.69791
5.70351
5.70795
5.71339
5.72123
5.73202
5.74484
5.75722
5.76715
5.77355
5.77731
5.78097
5.78748
5.79846
5.81044
5.81935
5.82413
5.8261
5.82827
5.83291
5.84117
5.85308
5.86537
5.874
5.87723
5.87793
5.88008
5.88638
5.89655
5.90789
5.91657
5.9206
5.92124
5.9215
5.92406
5.9298
5.93665
5.94166
5.94435
5.94641
5.94934
5.9533
5.95839
5.96338
5.96703
5.96905
5.97048
5.97305
5.97762
5.98402
5.99125
5.99738
6.00095
6.00185
6.00002
5.99569
5.98979
5.98362
5.97876
5.97636
5.97635
5.97842
5.98207
5.98577
1.40001
1.40001
1.40001
1.40001
1.40001
1.40001
1.40001
1.40001
1.40001
1.40001
1.40001
1.40001
1.40001
1.40001
1.40001
1.40001
1.40001
1.40001
1.40001
1.40001
1.40001
1.40001
1.40001
1.40001
1.40001
1.40001
1.40001
1.40001
1.40001
1.40001
1.40001
1.40001
1.40001
1.40001
1.40001
1.40001
1.40001
1.40001
1.40001
1.40001
1.40001
1.40001
1.40001
1.40001
1.40001
1.40001
1.40001
1.40001
1.40001
1.40001
1.40001
1.40001
1.40001
1.40001
1.40001
1.40001
1.40001
1.40001
1.40001
1.40001
1.40001
1.40001
1.40001
1.40001
1.40001
1.40001
1.40001
1.40001
1.40001
1.40001
1.40001
1.40001
1.40001
1.40001
1.40001
1.40001
1.40001
1.40001
1.40001
1.40001
1.40001
1.40001
1.40001
1.40001
1.40001
1.40001
1.40001
1.40001
1.40001
1.40001
1.40001
1.40001
1.40001
1.40001
1.40001
1.40001
1.40001
1.40001
1.56413
4.35379
5.41776
5.42137
5.43661
5.44699
5.45573
5.46394
5.47304
5.48407
5.49683
5.50986
5.52189
5.53218
5.54092
5.54955
5.55847
5.56743
5.57686
5.58697
5.59785
5.60971
5.6221
5.63372
5.64347
5.65134
5.65885
5.66731
5.67687
5.68715
5.69633
5.7031
5.70799
5.7127
5.7191
5.72866
5.74148
5.75496
5.76631
5.77378
5.77781
5.78099
5.7863
5.79623
5.8081
5.81758
5.82315
5.82585
5.82831
5.83259
5.83964
5.84991
5.86087
5.86955
5.87438
5.87694
5.88055
5.88705
5.89612
5.90593
5.91367
5.91774
5.91903
5.91993
5.92276
5.92814
5.9345
5.93945
5.9424
5.94471
5.94761
5.9514
5.95646
5.96195
5.96648
5.96891
5.96998
5.97163
5.97522
5.9811
5.98831
5.99483
5.99885
5.99994
5.99811
5.99386
5.98828
5.9825
5.97782
5.97516
5.9747
5.97633
5.97972
5.98327
1.40001
1.40001
1.40001
1.40001
1.40001
1.40001
1.40001
1.40001
1.40001
1.40001
1.40001
1.40001
1.40001
1.40001
1.40001
1.40001
1.40001
1.40001
1.40001
1.40001
1.40001
1.40001
1.40001
1.40001
1.40001
1.40001
1.40001
1.40001
1.40001
1.40001
1.40001
1.40001
1.40001
1.40001
1.40001
1.40001
1.40001
1.40001
1.40001
1.40001
1.40001
1.40001
1.40001
1.40001
1.40001
1.40001
1.40001
1.40001
1.40001
1.40001
1.40001
1.40001
1.40001
1.40001
1.40001
1.40001
1.40001
1.40001
1.40001
1.40001
1.40001
1.40001
1.40001
1.40001
1.40001
1.40001
1.40001
1.40001
1.40001
1.40001
1.40001
1.40001
1.40001
1.40001
1.40001
1.40001
1.40001
1.40001
1.40001
1.40001
1.40001
1.40001
1.40001
1.40001
1.40001
1.40001
1.40001
1.40001
1.40001
1.40001
1.40001
1.40001
1.40001
1.40001
1.40001
1.40001
1.40001
1.40001
1.52714
4.28584
5.414
5.42234
5.43746
5.44823
5.45653
5.46337
5.4708
5.48031
5.49274
5.50759
5.52223
5.53452
5.5442
5.55217
5.5593
5.56607
5.57333
5.58209
5.59264
5.6051
5.61894
5.63249
5.64362
5.65182
5.65885
5.66646
5.67484
5.68432
5.69394
5.70169
5.70732
5.71184
5.71728
5.72589
5.73842
5.75261
5.76518
5.77378
5.77837
5.78119
5.78525
5.79345
5.80459
5.81444
5.8212
5.82543
5.82889
5.83311
5.83876
5.84658
5.85549
5.86402
5.8709
5.87616
5.88166
5.88825
5.89576
5.90333
5.90959
5.91383
5.91642
5.91874
5.92221
5.92703
5.9322
5.93643
5.93955
5.94245
5.94579
5.94989
5.95506
5.96062
5.96535
5.96792
5.96881
5.96994
5.97288
5.97832
5.98531
5.99201
5.99642
5.99778
5.99605
5.99195
5.98662
5.98115
5.97657
5.97369
5.97287
5.9741
5.97718
5.98053
1.40001
1.40001
1.40001
1.40001
1.40001
1.40001
1.40001
1.40001
1.40001
1.40001
1.40001
1.40001
1.40001
1.40001
1.40001
1.40001
1.40001
1.40001
1.40001
1.40001
1.40001
1.40001
1.40001
1.40001
1.40001
1.40001
1.40001
1.40001
1.40001
1.40001
1.40001
1.40001
1.40001
1.40001
1.40001
1.40001
1.40001
1.40001
1.40001
1.40001
1.40001
1.40001
1.40001
1.40001
1.40001
1.40001
1.40001
1.40001
1.40001
1.40001
1.40001
1.40001
1.40001
1.40001
1.40001
1.40001
1.40001
1.40001
1.40001
1.40001
1.40001
1.40001
1.40001
1.40001
1.40001
1.40001
1.40001
1.40001
1.40001
1.40001
1.40001
1.40001
1.40001
1.40001
1.40001
1.40001
1.40001
1.40001
1.40001
1.40001
1.40001
1.40001
1.40001
1.40001
1.40001
1.40001
1.40001
1.40001
1.40001
1.40001
1.40001
1.40001
1.40001
1.40001
1.40001
1.40001
1.40001
1.40001
1.48569
4.21127
5.40723
5.41874
5.43265
5.44619
5.45705
5.46471
5.4715
5.47895
5.48892
5.50244
5.5183
5.53344
5.54592
5.55503
5.56124
5.56592
5.57053
5.5771
5.58679
5.59955
5.61464
5.63011
5.64311
5.65231
5.65954
5.66678
5.67403
5.68212
5.6911
5.6992
5.70564
5.71061
5.71563
5.7235
5.73545
5.74997
5.76358
5.77351
5.7789
5.78154
5.78457
5.79082
5.80067
5.81061
5.81871
5.82475
5.82932
5.83359
5.8379
5.84329
5.8502
5.85853
5.86735
5.87536
5.88246
5.88897
5.89494
5.9004
5.90528
5.90963
5.9136
5.91755
5.92175
5.92598
5.92975
5.93296
5.93607
5.93964
5.94378
5.94856
5.95395
5.95935
5.96381
5.96616
5.96692
5.9679
5.97056
5.97565
5.98231
5.98898
5.99368
5.99532
5.9938
5.98997
5.98488
5.9796
5.97505
5.97195
5.97083
5.97171
5.97447
5.9776
1.40001
1.40001
1.40001
1.40001
1.40001
1.40001
1.40001
1.40001
1.40001
1.40001
1.40001
1.40001
1.40001
1.40001
1.40001
1.40001
1.40001
1.40001
1.40001
1.40001
1.40001
1.40001
1.40001
1.40001
1.40001
1.40001
1.40001
1.40001
1.40001
1.40001
1.40001
1.40001
1.40001
1.40001
1.40001
1.40001
1.40001
1.40001
1.40001
1.40001
1.40001
1.40001
1.40001
1.40001
1.40001
1.40001
1.40001
1.40001
1.40001
1.40001
1.40001
1.40001
1.40001
1.40001
1.40001
1.40001
1.40001
1.40001
1.40001
1.40001
1.40001
1.40001
1.40001
1.40001
1.40001
1.40001
1.40001
1.40001
1.40001
1.40001
1.40001
1.40001
1.40001
1.40001
1.40001
1.40001
1.40001
1.40001
1.40001
1.40001
1.40001
1.40001
1.40001
1.40001
1.40001
1.40001
1.40001
1.40001
1.40001
1.40001
1.40001
1.40001
1.40001
1.40001
1.40001
1.40001
1.40001
1.40001
1.43266
4.12936
5.40257
5.41455
5.42673
5.43988
5.4529
5.46391
5.4725
5.4797
5.48787
5.4991
5.51422
5.53143
5.54663
5.55755
5.56405
5.56736
5.56972
5.57387
5.58201
5.59425
5.60966
5.62608
5.64056
5.65115
5.65921
5.66642
5.6729
5.67981
5.68809
5.69635
5.70369
5.7095
5.71449
5.72174
5.7329
5.74737
5.76163
5.77274
5.77904
5.78172
5.78388
5.78845
5.79688
5.80669
5.81599
5.82344
5.82881
5.83305
5.83635
5.8401
5.84589
5.8543
5.86433
5.87403
5.88204
5.88831
5.89318
5.8974
5.90163
5.90618
5.91106
5.916
5.92058
5.92429
5.927
5.92938
5.93243
5.93655
5.94158
5.94716
5.95285
5.95801
5.96194
5.96386
5.96449
5.96551
5.96817
5.97306
5.97938
5.98584
5.99065
5.99253
5.9913
5.98783
5.98299
5.97781
5.97319
5.96985
5.96847
5.96905
5.97154
5.97443
1.40001
1.40001
1.40001
1.40001
1.40001
1.40001
1.40001
1.40001
1.40001
1.40001
1.40001
1.40001
1.40001
1.40001
1.40001
1.40001
1.40001
1.40001
1.40001
1.40001
1.40001
1.40001
1.40001
1.40001
1.40001
1.40001
1.40001
1.40001
1.40001
1.40001
1.40001
1.40001
1.40001
1.40001
1.40001
1.40001
1.40001
1.40001
1.40001
1.40001
1.40001
1.40001
1.40001
1.40001
1.40001
1.40001
1.40001
1.40001
1.40001
1.40001
1.40001
1.40001
1.40001
1.40001
1.40001
1.40001
1.40001
1.40001
1.40001
1.40001
1.40001
1.40001
1.40001
1.40001
1.40001
1.40001
1.40001
1.40001
1.40001
1.40001
1.40001
1.40001
1.40001
1.40001
1.40001
1.40001
1.40001
1.40001
1.40001
1.40001
1.40001
1.40001
1.40001
1.40001
1.40001
1.40001
1.40001
1.40001
1.40001
1.40001
1.40001
1.40001
1.40001
1.40001
1.40001
1.40001
1.40001
1.40001
1.40175
4.02549
5.39925
5.41139
5.42097
5.43297
5.44658
5.45993
5.47141
5.4809
5.48904
5.49834
5.51065
5.52659
5.54319
5.55666
5.56507
5.56863
5.56965
5.57151
5.57756
5.58869
5.60409
5.62138
5.63728
5.64947
5.65853
5.66593
5.67204
5.67806
5.68558
5.69382
5.70191
5.70864
5.71387
5.72054
5.73065
5.74454
5.75897
5.77091
5.77813
5.78111
5.78276
5.78629
5.79384
5.80364
5.81361
5.82141
5.8268
5.83089
5.83376
5.83709
5.84307
5.85209
5.8624
5.87192
5.87959
5.88544
5.89002
5.89428
5.89892
5.90403
5.90922
5.9141
5.91826
5.92144
5.92373
5.92588
5.92904
5.93359
5.93926
5.94547
5.95148
5.95649
5.95985
5.96123
5.96168
5.96277
5.96557
5.9704
5.97643
5.98259
5.98734
5.98938
5.98852
5.98551
5.98099
5.97588
5.9711
5.9675
5.96586
5.96618
5.96847
5.97114
1.40001
1.40001
1.40001
1.40001
1.40001
1.40001
1.40001
1.40001
1.40001
1.40001
1.40001
1.40001
1.40001
1.40001
1.40001
1.40001
1.40001
1.40001
1.40001
1.40001
1.40001
1.40001
1.40001
1.40001
1.40001
1.40001
1.40001
1.40001
1.40001
1.40001
1.40001
1.40001
1.40001
1.40001
1.40001
1.40001
1.40001
1.40001
1.40001
1.40001
1.40001
1.40001
1.40001
1.40001
1.40001
1.40001
1.40001
1.40001
1.40001
1.40001
1.40001
1.40001
1.40001
1.40001
1.40001
1.40001
1.40001
1.40001
1.40001
1.40001
1.40001
1.40001
1.40001
1.40001
1.40001
1.40001
1.40001
1.40001
1.40001
1.40001
1.40001
1.40001
1.40001
1.40001
1.40001
1.40001
1.40001
1.40001
1.40001
1.40001
1.40001
1.40001
1.40001
1.40001
1.40001
1.40001
1.40001
1.40001
1.40001
1.40001
1.40001
1.40001
1.40001
1.40001
1.40001
1.40001
1.40001
1.40001
1.40003
3.8939
5.39338
5.40859
5.41421
5.42481
5.43866
5.45444
5.46949
5.48202
5.49125
5.49922
5.50899
5.52238
5.53868
5.55425
5.56507
5.56977
5.57033
5.57047
5.57432
5.58404
5.59896
5.61662
5.63356
5.64707
5.65703
5.66474
5.6707
5.67602
5.68281
5.69098
5.69972
5.70735
5.71312
5.71949
5.72864
5.74177
5.75608
5.7685
5.77641
5.77966
5.78114
5.7843
5.79162
5.80162
5.81173
5.81904
5.82347
5.82697
5.82987
5.83409
5.84152
5.85152
5.86163
5.86978
5.87576
5.88074
5.88567
5.89119
5.89727
5.90315
5.90801
5.91178
5.91478
5.91743
5.91987
5.92247
5.92605
5.93097
5.93693
5.94343
5.94964
5.95462
5.95755
5.95842
5.95863
5.95975
5.96272
5.96759
5.97343
5.97924
5.9838
5.9859
5.98541
5.98296
5.97886
5.97385
5.96887
5.96496
5.96301
5.96308
5.96523
5.96768
1.40001
1.40001
1.40001
1.40001
1.40001
1.40001
1.40001
1.40001
1.40001
1.40001
1.40001
1.40001
1.40001
1.40001
1.40001
1.40001
1.40001
1.40001
1.40001
1.40001
1.40001
1.40001
1.40001
1.40001
1.40001
1.40001
1.40001
1.40001
1.40001
1.40001
1.40001
1.40001
1.40001
1.40001
1.40001
1.40001
1.40001
1.40001
1.40001
1.40001
1.40001
1.40001
1.40001
1.40001
1.40001
1.40001
1.40001
1.40001
1.40001
1.40001
1.40001
1.40001
1.40001
1.40001
1.40001
1.40001
1.40001
1.40001
1.40001
1.40001
1.40001
1.40001
1.40001
1.40001
1.40001
1.40001
1.40001
1.40001
1.40001
1.40001
1.40001
1.40001
1.40001
1.40001
1.40001
1.40001
1.40001
1.40001
1.40001
1.40001
1.40001
1.40001
1.40001
1.40001
1.40001
1.40001
1.40001
1.40001
1.40001
1.40001
1.40001
1.40001
1.40001
1.40001
1.40001
1.40001
1.40001
1.40001
1.40001
3.75085
5.38558
5.40724
5.40821
5.4176
5.43044
5.44759
5.46603
5.48193
5.49352
5.50125
5.50884
5.51965
5.53394
5.54984
5.563
5.56996
5.57118
5.5705
5.57244
5.5803
5.59418
5.61182
5.62951
5.64412
5.655
5.66317
5.66921
5.67413
5.68042
5.68854
5.69768
5.70609
5.71243
5.7186
5.72696
5.73916
5.75296
5.76533
5.77356
5.77713
5.77881
5.78217
5.78977
5.8001
5.81
5.81649
5.8197
5.82232
5.82545
5.83116
5.84053
5.85157
5.86111
5.86716
5.8709
5.87493
5.8806
5.88818
5.8963
5.90292
5.90701
5.90909
5.91052
5.91255
5.91547
5.91904
5.92338
5.92864
5.93459
5.94097
5.94717
5.95225
5.95496
5.95542
5.95545
5.95655
5.95967
5.96464
5.97038
5.97586
5.98012
5.98215
5.98198
5.98013
5.97654
5.97168
5.96651
5.96224
5.9599
5.95971
5.96175
5.96394
1.40001
1.40001
1.40001
1.40001
1.40001
1.40001
1.40001
1.40001
1.40001
1.40001
1.40001
1.40001
1.40001
1.40001
1.40001
1.40001
1.40001
1.40001
1.40001
1.40001
1.40001
1.40001
1.40001
1.40001
1.40001
1.40001
1.40001
1.40001
1.40001
1.40001
1.40001
1.40001
1.40001
1.40001
1.40001
1.40001
1.40001
1.40001
1.40001
1.40001
1.40001
1.40001
1.40001
1.40001
1.40001
1.40001
1.40001
1.40001
1.40001
1.40001
1.40001
1.40001
1.40001
1.40001
1.40001
1.40001
1.40001
1.40001
1.40001
1.40001
1.40001
1.40001
1.40001
1.40001
1.40001
1.40001
1.40001
1.40001
1.40001
1.40001
1.40001
1.40001
1.40001
1.40001
1.40001
1.40001
1.40001
1.40001
1.40001
1.40001
1.40001
1.40001
1.40001
1.40001
1.40001
1.40001
1.40001
1.40001
1.40001
1.40001
1.40001
1.40001
1.40001
1.40001
1.40001
1.40001
1.40001
1.40001
1.40001
3.59711
5.37027
5.40688
5.40455
5.41292
5.42359
5.44006
5.46058
5.47984
5.49445
5.50355
5.50991
5.51839
5.53045
5.5451
5.55922
5.5685
5.57148
5.57085
5.57153
5.57752
5.58997
5.60723
5.6254
5.64096
5.65271
5.66141
5.66767
5.67245
5.67841
5.68638
5.69558
5.70442
5.71127
5.71726
5.72495
5.73632
5.74965
5.76191
5.77044
5.77443
5.77639
5.77992
5.78771
5.79836
5.80796
5.81377
5.81615
5.81815
5.82149
5.82826
5.83899
5.85088
5.85989
5.86406
5.866
5.86919
5.87561
5.88521
5.89532
5.90262
5.90581
5.90613
5.90592
5.90723
5.91066
5.91542
5.92076
5.92643
5.93221
5.9382
5.94417
5.94934
5.9521
5.95238
5.95229
5.95332
5.95647
5.96148
5.96714
5.97228
5.97619
5.97808
5.97815
5.97687
5.97383
5.96927
5.964
5.95938
5.95664
5.95615
5.95802
5.95989
1.40001
1.40001
1.40001
1.40001
1.40001
1.40001
1.40001
1.40001
1.40001
1.40001
1.40001
1.40001
1.40001
1.40001
1.40001
1.40001
1.40001
1.40001
1.40001
1.40001
1.40001
1.40001
1.40001
1.40001
1.40001
1.40001
1.40001
1.40001
1.40001
1.40001
1.40001
1.40001
1.40001
1.40001
1.40001
1.40001
1.40001
1.40001
1.40001
1.40001
1.40001
1.40001
1.40001
1.40001
1.40001
1.40001
1.40001
1.40001
1.40001
1.40001
1.40001
1.40001
1.40001
1.40001
1.40001
1.40001
1.40001
1.40001
1.40001
1.40001
1.40001
1.40001
1.40001
1.40001
1.40001
1.40001
1.40001
1.40001
1.40001
1.40001
1.40001
1.40001
1.40001
1.40001
1.40001
1.40001
1.40001
1.40001
1.40001
1.40001
1.40001
1.40001
1.40001
1.40001
1.40001
1.40001
1.40001
1.40001
1.40001
1.40001
1.40001
1.40001
1.40001
1.40001
1.40001
1.40001
1.40001
1.40001
1.40001
3.4323
5.34819
5.40816
5.40387
5.4115
5.42016
5.43451
5.45465
5.4759
5.49326
5.50451
5.51117
5.51793
5.52795
5.54095
5.5551
5.56602
5.57108
5.57152
5.57156
5.57592
5.58661
5.60296
5.62122
5.63751
5.65013
5.65934
5.66593
5.67089
5.67685
5.6848
5.69391
5.70275
5.70983
5.71544
5.72238
5.73298
5.74596
5.75834
5.7675
5.77222
5.7744
5.77758
5.78465
5.7952
5.80476
5.8106
5.81324
5.81544
5.81899
5.82582
5.83647
5.84826
5.85684
5.8603
5.86158
5.86453
5.87144
5.88218
5.8935
5.90118
5.90377
5.90285
5.9014
5.90205
5.90575
5.91157
5.91797
5.92413
5.92979
5.93529
5.94082
5.94594
5.94883
5.94916
5.94905
5.95001
5.9531
5.95803
5.96356
5.96844
5.97205
5.97381
5.97405
5.97323
5.97074
5.96658
5.96138
5.95651
5.95337
5.95248
5.95404
5.95543
1.40001
1.40001
1.40001
1.40001
1.40001
1.40001
1.40001
1.40001
1.40001
1.40001
1.40001
1.40001
1.40001
1.40001
1.40001
1.40001
1.40001
1.40001
1.40001
1.40001
1.40001
1.40001
1.40001
1.40001
1.40001
1.40001
1.40001
1.40001
1.40001
1.40001
1.40001
1.40001
1.40001
1.40001
1.40001
1.40001
1.40001
1.40001
1.40001
1.40001
1.40001
1.40001
1.40001
1.40001
1.40001
1.40001
1.40001
1.40001
1.40001
1.40001
1.40001
1.40001
1.40001
1.40001
1.40001
1.40001
1.40001
1.40001
1.40001
1.40001
1.40001
1.40001
1.40001
1.40001
1.40001
1.40001
1.40001
1.40001
1.40001
1.40001
1.40001
1.40001
1.40001
1.40001
1.40001
1.40001
1.40001
1.40001
1.40001
1.40001
1.40001
1.40001
1.40001
1.40001
1.40001
1.40001
1.40001
1.40001
1.40001
1.40001
1.40001
1.40001
1.40001
1.40001
1.40001
1.40001
1.40001
1.40001
1.40001
3.25486
5.32193
5.41052
5.40557
5.41215
5.41893
5.43157
5.45023
5.47181
5.49079
5.50413
5.5117
5.51768
5.52591
5.53723
5.55116
5.56337
5.57046
5.5726
5.57261
5.57553
5.58427
5.59917
5.61714
5.63394
5.64731
5.65698
5.6639
5.66921
5.67549
5.68372
5.69281
5.70152
5.70841
5.71329
5.71918
5.72887
5.74163
5.75457
5.76494
5.77086
5.77336
5.77566
5.78084
5.79038
5.80025
5.80728
5.81131
5.81431
5.81805
5.82401
5.8331
5.84354
5.85184
5.85602
5.85802
5.86148
5.86855
5.87932
5.89064
5.89827
5.90069
5.89927
5.89725
5.89739
5.90108
5.90756
5.91486
5.92155
5.92723
5.93226
5.93723
5.94208
5.94507
5.94566
5.9457
5.94667
5.94963
5.95434
5.95968
5.96437
5.96781
5.96947
5.96975
5.96922
5.96717
5.96347
5.95854
5.95362
5.95013
5.94874
5.94975
5.95043
1.40001
1.40001
1.40001
1.40001
1.40001
1.40001
1.40001
1.40001
1.40001
1.40001
1.40001
1.40001
1.40001
1.40001
1.40001
1.40001
1.40001
1.40001
1.40001
1.40001
1.40001
1.40001
1.40001
1.40001
1.40001
1.40001
1.40001
1.40001
1.40001
1.40001
1.40001
1.40001
1.40001
1.40001
1.40001
1.40001
1.40001
1.40001
1.40001
1.40001