/*--------------------------------*- C++ -*----------------------------------*\
  =========                 |
  \\      /  F ield         | OpenFOAM: The Open Source CFD Toolbox
   \\    /   O peration     | Website:  https://openfoam.org
    \\  /    A nd           | Version:  7
     \\/     M anipulation  |
\*---------------------------------------------------------------------------*/
FoamFile
{
    version     2.0;
    format      ascii;
    class       volScalarField;
    location    "2.9";
    object      T;
}
// * * * * * * * * * * * * * * * * * * * * * * * * * * * * * * * * * * * * * //

dimensions      [0 0 0 1 0 0 0];

internalField   nonuniform List<scalar> 
258048
(
1
1
1
1
1
1
1
1
1
1
1
1
1
1
1
1
1
1
1
1
1
1
1
1
1
1
1
1
1
1
1
1
1
1
1
1
1
1
1
1
1
1
1
1
1
1
1
1
1
1
1
1
1
1
1
1
1
1
1
1
1
1
1
1
1
1
1
1
1
1
1
1
1
1
1
1
1
1
1
1
1
1
1
1
1
1
1
1
1
1
1
1
1
1
1
1
1
1
1.31486
2.47414
2.68331
2.68865
2.69296
2.69549
2.69736
2.69883
2.70016
2.70163
2.70351
2.70594
2.70881
2.71178
2.71446
2.71661
2.71824
2.71957
2.72087
2.72242
2.72439
2.72683
2.72949
2.73188
2.73362
2.73458
2.73493
2.73517
2.73587
2.73753
2.74011
2.74323
2.74639
2.74902
2.75077
2.75177
2.75256
2.75375
2.75567
2.75812
2.76063
2.76266
2.76372
2.76387
2.76367
2.76366
2.76447
2.7665
2.76944
2.77268
2.77554
2.77757
2.77884
2.77952
2.78007
2.78081
2.78164
2.78231
2.7831
2.78463
2.78678
2.78912
2.79119
2.79256
2.79305
2.79291
2.793
2.79399
2.7959
2.79818
2.80001
2.80083
2.80072
2.80027
2.79996
2.80017
2.80096
2.80213
2.80333
2.80435
2.80525
2.8061
2.80678
2.80721
2.80732
2.80725
2.8073
2.8079
2.80946
2.81214
2.81569
2.81938
2.82216
2.82366
1
1
1
1
1
1
1
1
1
1
1
1
1
1
1
1
1
1
1
1
1
1
1
1
1
1
1
1
1
1
1
1
1
1
1
1
1
1
1
1
1
1
1
1
1
1
1
1
1
1
1
1
1
1
1
1
1
1
1
1
1
1
1
1
1
1
1
1
1
1
1
1
1
1
1
1
1
1
1
1
1
1
1
1
1
1
1
1
1
1
1
1
1
1
1
1
1
1
1.31156
2.47255
2.68346
2.68877
2.6929
2.6954
2.69724
2.69867
2.70001
2.70155
2.70351
2.70599
2.70886
2.71177
2.7144
2.71656
2.71825
2.71966
2.72101
2.72253
2.7244
2.72668
2.72927
2.7317
2.73356
2.73467
2.7352
2.73553
2.73617
2.73761
2.73998
2.74297
2.74609
2.74883
2.75081
2.75203
2.75289
2.75393
2.75555
2.75772
2.76013
2.76231
2.76372
2.76417
2.76409
2.76405
2.76465
2.76637
2.76911
2.77232
2.77528
2.7775
2.77891
2.77964
2.78012
2.78072
2.78146
2.78217
2.78307
2.78466
2.7868
2.78908
2.79111
2.7925
2.79306
2.79298
2.79308
2.79395
2.79578
2.79807
2.79999
2.8009
2.80086
2.80039
2.80001
2.80015
2.80093
2.80214
2.80338
2.80438
2.80524
2.80606
2.80674
2.80721
2.80735
2.80728
2.80732
2.80788
2.80942
2.8121
2.81567
2.81935
2.82212
2.8236
1
1
1
1
1
1
1
1
1
1
1
1
1
1
1
1
1
1
1
1
1
1
1
1
1
1
1
1
1
1
1
1
1
1
1
1
1
1
1
1
1
1
1
1
1
1
1
1
1
1
1
1
1
1
1
1
1
1
1
1
1
1
1
1
1
1
1
1
1
1
1
1
1
1
1
1
1
1
1
1
1
1
1
1
1
1
1
1
1
1
1
1
1
1
1
1
1
1
1.30328
2.4688
2.68398
2.6888
2.69264
2.69507
2.69686
2.69824
2.69963
2.70131
2.70346
2.70608
2.70897
2.71178
2.71425
2.71633
2.71807
2.7196
2.72109
2.7227
2.72454
2.72667
2.72904
2.73139
2.7333
2.73457
2.73536
2.73593
2.73666
2.738
2.74015
2.7429
2.74589
2.74867
2.75083
2.75225
2.75322
2.75417
2.75547
2.75726
2.75947
2.76175
2.76354
2.76442
2.76458
2.76459
2.765
2.7663
2.7687
2.7718
2.77486
2.77733
2.77896
2.7798
2.78022
2.78063
2.7812
2.78192
2.78299
2.78473
2.7869
2.78909
2.79096
2.79227
2.7929
2.79301
2.79317
2.79395
2.79557
2.79771
2.79968
2.80075
2.80087
2.80045
2.80001
2.80003
2.80071
2.80195
2.80323
2.80424
2.80505
2.8058
2.80646
2.807
2.80722
2.80719
2.80725
2.80779
2.80929
2.81196
2.81556
2.81925
2.82202
2.82348
1
1
1
1
1
1
1
1
1
1
1
1
1
1
1
1
1
1
1
1
1
1
1
1
1
1
1
1
1
1
1
1
1
1
1
1
1
1
1
1
1
1
1
1
1
1
1
1
1
1
1
1
1
1
1
1
1
1
1
1
1
1
1
1
1
1
1
1
1
1
1
1
1
1
1
1
1
1
1
1
1
1
1
1
1
1
1
1
1
1
1
1
1
1
1
1
1
1
1.29106
2.46325
2.6846
2.68873
2.69223
2.69454
2.69629
2.69771
2.6992
2.70108
2.70346
2.70621
2.70908
2.71172
2.71396
2.71589
2.71764
2.71932
2.72102
2.72285
2.72477
2.72678
2.72891
2.73105
2.73294
2.73438
2.73542
2.73629
2.73721
2.73853
2.74047
2.74299
2.74583
2.74863
2.75094
2.75248
2.75347
2.75428
2.75523
2.75665
2.75871
2.76119
2.76344
2.76481
2.76524
2.76525
2.7654
2.76618
2.76811
2.77108
2.77432
2.77714
2.77908
2.78002
2.78029
2.78043
2.78078
2.78154
2.78289
2.78487
2.78711
2.78914
2.79074
2.79184
2.79256
2.79298
2.79328
2.79399
2.79541
2.79736
2.7993
2.80055
2.8009
2.80059
2.80015
2.80007
2.80062
2.80179
2.80308
2.80411
2.80489
2.80559
2.80622
2.8068
2.80711
2.80712
2.80721
2.80773
2.80918
2.81183
2.81543
2.81914
2.82189
2.82333
1
1
1
1
1
1
1
1
1
1
1
1
1
1
1
1
1
1
1
1
1
1
1
1
1
1
1
1
1
1
1
1
1
1
1
1
1
1
1
1
1
1
1
1
1
1
1
1
1
1
1
1
1
1
1
1
1
1
1
1
1
1
1
1
1
1
1
1
1
1
1
1
1
1
1
1
1
1
1
1
1
1
1
1
1
1
1
1
1
1
1
1
1
1
1
1
1
1
1.27551
2.45599
2.68528
2.68857
2.69173
2.69388
2.69566
2.69721
2.69888
2.70095
2.7035
2.70632
2.70909
2.7115
2.71349
2.71525
2.71697
2.71879
2.72077
2.72291
2.72508
2.7271
2.72902
2.73083
2.73248
2.73397
2.73525
2.73642
2.73766
2.73913
2.74104
2.74337
2.74599
2.74867
2.75096
2.75255
2.75352
2.75419
2.75489
2.75607
2.75807
2.76073
2.76338
2.76518
2.76587
2.76591
2.76582
2.7661
2.76747
2.77024
2.77368
2.77691
2.77922
2.78024
2.78031
2.78015
2.78024
2.78102
2.78272
2.78506
2.78744
2.78931
2.79053
2.79135
2.79206
2.79277
2.79338
2.79412
2.79535
2.79705
2.79885
2.8002
2.80077
2.80067
2.80033
2.80016
2.80054
2.80155
2.80277
2.80381
2.80462
2.80529
2.80591
2.80653
2.80691
2.80698
2.80712
2.80764
2.80905
2.81166
2.81524
2.81893
2.82167
2.82308
1
1
1
1
1
1
1
1
1
1
1
1
1
1
1
1
1
1
1
1
1
1
1
1
1
1
1
1
1
1
1
1
1
1
1
1
1
1
1
1
1
1
1
1
1
1
1
1
1
1
1
1
1
1
1
1
1
1
1
1
1
1
1
1
1
1
1
1
1
1
1
1
1
1
1
1
1
1
1
1
1
1
1
1
1
1
1
1
1
1
1
1
1
1
1
1
1
1
1.25665
2.44672
2.68626
2.68838
2.69118
2.69319
2.69508
2.69687
2.69882
2.70111
2.70375
2.70652
2.70907
2.71113
2.71278
2.71434
2.71606
2.71806
2.72036
2.72288
2.72539
2.72758
2.72935
2.73084
2.73212
2.73342
2.73481
2.73628
2.7379
2.7397
2.74176
2.74402
2.74641
2.74878
2.75078
2.75229
2.75327
2.7539
2.75452
2.75563
2.75765
2.76045
2.76337
2.76548
2.76639
2.76645
2.76619
2.76606
2.76689
2.76936
2.77297
2.77666
2.77933
2.78044
2.78032
2.77982
2.77965
2.78044
2.7825
2.78526
2.78781
2.78953
2.79036
2.7908
2.7914
2.79235
2.79335
2.79424
2.79532
2.79678
2.79836
2.79971
2.80051
2.80069
2.80051
2.80034
2.80055
2.80131
2.80237
2.8034
2.80426
2.80496
2.80559
2.80624
2.80666
2.80679
2.80698
2.80754
2.80894
2.8115
2.81504
2.81869
2.82141
2.8228
1
1
1
1
1
1
1
1
1
1
1
1
1
1
1
1
1
1
1
1
1
1
1
1
1
1
1
1
1
1
1
1
1
1
1
1
1
1
1
1
1
1
1
1
1
1
1
1
1
1
1
1
1
1
1
1
1
1
1
1
1
1
1
1
1
1
1
1
1
1
1
1
1
1
1
1
1
1
1
1
1
1
1
1
1
1
1
1
1
1
1
1
1
1
1
1
1
1
1.23458
2.43509
2.68744
2.68813
2.69059
2.69248
2.69451
2.69662
2.69891
2.70146
2.70418
2.70681
2.70904
2.71067
2.7119
2.71317
2.71484
2.71703
2.71971
2.72271
2.72561
2.72806
2.72987
2.73113
2.73204
2.73293
2.73413
2.73577
2.73779
2.74012
2.74254
2.7449
2.74707
2.74898
2.75047
2.75166
2.75264
2.75342
2.75418
2.7554
2.75752
2.76038
2.76337
2.76566
2.76675
2.76687
2.76645
2.76599
2.76644
2.76857
2.77225
2.7763
2.77928
2.7805
2.78029
2.7795
2.77909
2.7799
2.78229
2.78541
2.7881
2.78968
2.79018
2.79028
2.79073
2.79184
2.79321
2.79433
2.79535
2.79654
2.79788
2.79916
2.80014
2.80062
2.80066
2.80055
2.80061
2.80107
2.8019
2.80287
2.8038
2.80459
2.80527
2.80593
2.80636
2.80654
2.8068
2.80742
2.80883
2.81134
2.8148
2.8184
2.82108
2.82244
1
1
1
1
1
1
1
1
1
1
1
1
1
1
1
1
1
1
1
1
1
1
1
1
1
1
1
1
1
1
1
1
1
1
1
1
1
1
1
1
1
1
1
1
1
1
1
1
1
1
1
1
1
1
1
1
1
1
1
1
1
1
1
1
1
1
1
1
1
1
1
1
1
1
1
1
1
1
1
1
1
1
1
1
1
1
1
1
1
1
1
1
1
1
1
1
1
1
1.21019
2.42151
2.68801
2.68784
2.69012
2.69176
2.69375
2.69616
2.69885
2.70169
2.70452
2.70703
2.70895
2.71018
2.71104
2.71206
2.7136
2.71589
2.71888
2.72231
2.72564
2.72842
2.7304
2.73159
2.7322
2.73266
2.73348
2.73505
2.73742
2.74032
2.74328
2.74586
2.74785
2.74925
2.75013
2.7509
2.75178
2.75272
2.75379
2.75529
2.75755
2.76043
2.76336
2.76569
2.76691
2.76713
2.76663
2.76594
2.76615
2.76798
2.77162
2.77584
2.77902
2.78036
2.78014
2.7792
2.77869
2.77954
2.78211
2.78541
2.78817
2.78966
2.78996
2.78986
2.79017
2.79132
2.79292
2.79428
2.79531
2.79629
2.79745
2.79862
2.79969
2.80045
2.80074
2.80072
2.80067
2.80083
2.80139
2.80227
2.80327
2.80417
2.80492
2.80559
2.80603
2.80625
2.80658
2.80727
2.80871
2.81118
2.81455
2.81806
2.82069
2.82203
1
1
1
1
1
1
1
1
1
1
1
1
1
1
1
1
1
1
1
1
1
1
1
1
1
1
1
1
1
1
1
1
1
1
1
1
1
1
1
1
1
1
1
1
1
1
1
1
1
1
1
1
1
1
1
1
1
1
1
1
1
1
1
1
1
1
1
1
1
1
1
1
1
1
1
1
1
1
1
1
1
1
1
1
1
1
1
1
1
1
1
1
1
1
1
1
1
1
1.18395
2.40577
2.68762
2.68725
2.68969
2.69128
2.69318
2.69563
2.69853
2.70163
2.70462
2.70713
2.70888
2.70984
2.71045
2.71125
2.71266
2.71494
2.71808
2.72176
2.7254
2.72849
2.7307
2.73195
2.73241
2.73255
2.73298
2.73432
2.73685
2.74024
2.7438
2.74673
2.74863
2.74955
2.74985
2.75015
2.75085
2.75194
2.75335
2.7552
2.75766
2.76057
2.76338
2.76562
2.76686
2.76714
2.76666
2.7659
2.76602
2.76765
2.77113
2.7753
2.77851
2.77993
2.77978
2.77894
2.77852
2.77942
2.78195
2.78518
2.7879
2.78938
2.78967
2.78952
2.78978
2.79089
2.79253
2.79403
2.7951
2.79602
2.79707
2.79814
2.79923
2.8002
2.80073
2.8008
2.80068
2.80061
2.8009
2.80164
2.80269
2.8037
2.80454
2.80523
2.80565
2.80592
2.80632
2.80709
2.80856
2.811
2.81428
2.81768
2.82026
2.82156
1
1
1
1
1
1
1
1
1
1
1
1
1
1
1
1
1
1
1
1
1
1
1
1
1
1
1
1
1
1
1
1
1
1
1
1
1
1
1
1
1
1
1
1
1
1
1
1
1
1
1
1
1
1
1
1
1
1
1
1
1
1
1
1
1
1
1
1
1
1
1
1
1
1
1
1
1
1
1
1
1
1
1
1
1
1
1
1
1
1
1
1
1
1
1
1
1
1
1.15287
2.3851
2.6859
2.6862
2.68899
2.69103
2.69307
2.69539
2.6981
2.70113
2.70424
2.70689
2.70869
2.7097
2.71031
2.71103
2.71235
2.71452
2.71757
2.72125
2.72499
2.72825
2.73069
2.73209
2.73254
2.73251
2.73263
2.73369
2.73617
2.73989
2.74395
2.7473
2.74923
2.74977
2.74959
2.74947
2.74997
2.75118
2.75292
2.75513
2.75783
2.76079
2.76347
2.76554
2.76667
2.76694
2.76655
2.76591
2.76605
2.76758
2.7708
2.77469
2.77776
2.7792
2.77924
2.77877
2.77861
2.77955
2.78186
2.78478
2.78733
2.78883
2.78926
2.78925
2.78957
2.79061
2.79213
2.79359
2.79471
2.79567
2.79672
2.79774
2.79883
2.79989
2.80058
2.80074
2.80056
2.80035
2.80045
2.80103
2.80207
2.80317
2.8041
2.80482
2.80526
2.80556
2.80602
2.80686
2.80837
2.81079
2.81398
2.81728
2.81979
2.82105
1
1
1
1
1
1
1
1
1
1
1
1
1
1
1
1
1
1
1
1
1
1
1
1
1
1
1
1
1
1
1
1
1
1
1
1
1
1
1
1
1
1
1
1
1
1
1
1
1
1
1
1
1
1
1
1
1
1
1
1
1
1
1
1
1
1
1
1
1
1
1
1
1
1
1
1
1
1
1
1
1
1
1
1
1
1
1
1
1
1
1
1
1
1
1
1
1
1
1.11836
2.36126
2.68301
2.68503
2.68848
2.69129
2.69363
2.69578
2.69807
2.70062
2.7034
2.70614
2.70824
2.70953
2.71036
2.71118
2.71246
2.71451
2.7174
2.72091
2.72459
2.72791
2.73046
2.73201
2.73255
2.73248
2.73244
2.73323
2.73557
2.73937
2.74377
2.74748
2.74953
2.74985
2.74941
2.74896
2.74926
2.75051
2.75251
2.75505
2.75799
2.761
2.76355
2.76537
2.76631
2.76653
2.76631
2.76594
2.7662
2.76768
2.77059
2.77403
2.77678
2.77828
2.77868
2.77863
2.77883
2.77984
2.7818
2.78427
2.78655
2.78809
2.78876
2.78902
2.78947
2.79041
2.79171
2.793
2.79414
2.79525
2.79635
2.79741
2.79851
2.79958
2.8003
2.80051
2.80032
2.80004
2.80002
2.80046
2.80144
2.80258
2.8036
2.80437
2.80483
2.80518
2.8057
2.80659
2.80813
2.81053
2.81365
2.81685
2.81929
2.82049
1
1
1
1
1
1
1
1
1
1
1
1
1
1
1
1
1
1
1
1
1
1
1
1
1
1
1
1
1
1
1
1
1
1
1
1
1
1
1
1
1
1
1
1
1
1
1
1
1
1
1
1
1
1
1
1
1
1
1
1
1
1
1
1
1
1
1
1
1
1
1
1
1
1
1
1
1
1
1
1
1
1
1
1
1
1
1
1
1
1
1
1
1
1
1
1
1
1
1.08093
2.33816
2.68114
2.68425
2.68785
2.69155
2.69462
2.69687
2.69879
2.70066
2.70257
2.7047
2.70685
2.70865
2.71006
2.71141
2.71293
2.71493
2.7176
2.72083
2.7243
2.7275
2.73005
2.73173
2.73245
2.73247
2.73238
2.73299
2.73512
2.73886
2.74342
2.74736
2.74957
2.74986
2.7493
2.74859
2.7487
2.7499
2.7521
2.75495
2.75811
2.76117
2.7636
2.76514
2.76587
2.76601
2.76597
2.76595
2.76636
2.76779
2.77036
2.77335
2.7758
2.77732
2.7781
2.77852
2.77906
2.78006
2.78166
2.78369
2.78572
2.78729
2.78823
2.78879
2.78937
2.79021
2.79125
2.79233
2.79347
2.79472
2.79595
2.7971
2.79824
2.79928
2.79995
2.80014
2.79994
2.79964
2.79957
2.79992
2.80082
2.80196
2.80304
2.80388
2.80438
2.80479
2.80535
2.80628
2.80783
2.81022
2.81329
2.8164
2.81876
2.81991
1
1
1
1
1
1
1
1
1
1
1
1
1
1
1
1
1
1
1
1
1
1
1
1
1
1
1
1
1
1
1
1
1
1
1
1
1
1
1
1
1
1
1
1
1
1
1
1
1
1
1
1
1
1
1
1
1
1
1
1
1
1
1
1
1
1
1
1
1
1
1
1
1
1
1
1
1
1
1
1
1
1
1
1
1
1
1
1
1
1
1
1
1
1
1
1
1
1
1.03233
2.31367
2.68059
2.68461
2.68821
2.69191
2.6954
2.69811
2.69996
2.70123
2.7023
2.70352
2.70524
2.70742
2.70961
2.71167
2.71369
2.71584
2.71835
2.72129
2.72441
2.72723
2.72953
2.73114
2.73197
2.73212
2.7321
2.73262
2.73457
2.73822
2.74289
2.74711
2.74953
2.74992
2.74932
2.74846
2.74835
2.7494
2.75168
2.75475
2.75811
2.76121
2.76353
2.76485
2.76539
2.76546
2.76558
2.76583
2.76639
2.76774
2.77
2.77267
2.77498
2.77659
2.77761
2.77836
2.77909
2.78002
2.78135
2.7831
2.785
2.78661
2.78774
2.7885
2.78916
2.78989
2.79072
2.79163
2.79277
2.79413
2.7955
2.79678
2.79796
2.79896
2.79955
2.79968
2.79946
2.79917
2.7991
2.7994
2.80022
2.80133
2.80244
2.80332
2.80388
2.80436
2.80498
2.80593
2.80749
2.80985
2.81288
2.81591
2.81819
2.81928
1
1
1
1
1
1
1
1
1
1
1
1
1
1
1
1
1
1
1
1
1
1
1
1
1
1
1
1
1
1
1
1
1
1
1
1
1
1
1
1
1
1
1
1
1
1
1
1
1
1
1
1
1
1
1
1
1
1
1
1
1
1
1
1
1
1
1
1
1
1
1
1
1
1
1
1
1
1
1
1
1
1
1
1
1
1
1
1
1
1
1
1
1
1
1
1
1
1
1.00119
2.2785
2.67825
2.68539
2.68925
2.69292
2.69639
2.6992
2.70106
2.70206
2.70251
2.70285
2.70372
2.70563
2.70836
2.71125
2.71412
2.71682
2.71937
2.72198
2.72461
2.72696
2.72895
2.73047
2.73137
2.73166
2.73173
2.73222
2.73404
2.73761
2.74236
2.74679
2.74948
2.75007
2.7495
2.74852
2.74816
2.74898
2.75117
2.75434
2.75785
2.76101
2.7633
2.76454
2.76502
2.7651
2.76529
2.76562
2.76619
2.7674
2.76944
2.772
2.77442
2.77621
2.77734
2.7781
2.77879
2.7796
2.78079
2.78251
2.78445
2.78616
2.78737
2.78815
2.78875
2.78937
2.79009
2.79096
2.79213
2.79354
2.795
2.79639
2.79764
2.7986
2.79911
2.79915
2.79889
2.79863
2.79858
2.79886
2.79962
2.80068
2.8018
2.80271
2.80333
2.8039
2.80459
2.80556
2.8071
2.80944
2.81241
2.81537
2.81759
2.81864
1
1
1
1
1
1
1
1
1
1
1
1
1
1
1
1
1
1
1
1
1
1
1
1
1
1
1
1
1
1
1
1
1
1
1
1
1
1
1
1
1
1
1
1
1
1
1
1
1
1
1
1
1
1
1
1
1
1
1
1
1
1
1
1
1
1
1
1
1
1
1
1
1
1
1
1
1
1
1
1
1
1
1
1
1
1
1
1
1
1
1
1
1
1
1
1
1
1
1.00001
2.23667
2.67433
2.68611
2.68985
2.69352
2.69692
2.69991
2.70197
2.70292
2.70299
2.70273
2.70277
2.704
2.70679
2.71045
2.71423
2.71763
2.7204
2.72278
2.725
2.72688
2.72848
2.72983
2.73075
2.73114
2.73127
2.73174
2.73346
2.73692
2.74167
2.74628
2.74929
2.75019
2.74973
2.74869
2.74811
2.7487
2.75068
2.75379
2.75732
2.76054
2.7629
2.76422
2.76478
2.76494
2.76516
2.7654
2.76575
2.76669
2.76862
2.77132
2.77405
2.7761
2.77727
2.77784
2.77822
2.77881
2.78002
2.78194
2.7841
2.78593
2.7871
2.78772
2.78813
2.78864
2.78936
2.79031
2.79154
2.79299
2.79448
2.79592
2.79721
2.79816
2.79862
2.79859
2.79827
2.79802
2.798
2.7983
2.79903
2.80002
2.80111
2.80203
2.80272
2.8034
2.80416
2.80517
2.80669
2.80898
2.81189
2.81479
2.81697
2.81798
1
1
1
1
1
1
1
1
1
1
1
1
1
1
1
1
1
1
1
1
1
1
1
1
1
1
1
1
1
1
1
1
1
1
1
1
1
1
1
1
1
1
1
1
1
1
1
1
1
1
1
1
1
1
1
1
1
1
1
1
1
1
1
1
1
1
1
1
1
1
1
1
1
1
1
1
1
1
1
1
1
1
1
1
1
1
1
1
1
1
1
1
1
1
1
1
1
1
1
2.19084
2.67014
2.68641
2.68992
2.69376
2.6969
2.69987
2.70217
2.7034
2.70359
2.70304
2.70249
2.70299
2.70528
2.70925
2.71381
2.71794
2.72109
2.72341
2.72537
2.72687
2.72808
2.72924
2.73016
2.73065
2.73086
2.73132
2.73292
2.73623
2.74093
2.7457
2.74903
2.75026
2.74997
2.74896
2.7482
2.74855
2.75022
2.75309
2.75651
2.75974
2.76225
2.76381
2.76457
2.76487
2.76508
2.76514
2.76516
2.76583
2.7677
2.77064
2.77376
2.77606
2.77719
2.77747
2.77747
2.77781
2.77912
2.78139
2.78388
2.78582
2.78687
2.78722
2.78736
2.78774
2.78854
2.78966
2.791
2.79248
2.79396
2.79538
2.79667
2.79763
2.79807
2.79797
2.79762
2.79738
2.79739
2.79772
2.79844
2.79936
2.8004
2.80131
2.80206
2.80284
2.8037
2.80474
2.80626
2.8085
2.81132
2.81414
2.8163
2.81728
1
1
1
1
1
1
1
1
1
1
1
1
1
1
1
1
1
1
1
1
1
1
1
1
1
1
1
1
1
1
1
1
1
1
1
1
1
1
1
1
1
1
1
1
1
1
1
1
1
1
1
1
1
1
1
1
1
1
1
1
1
1
1
1
1
1
1
1
1
1
1
1
1
1
1
1
1
1
1
1
1
1
1
1
1
1
1
1
1
1
1
1
1
1
1
1
1
1
1
2.14137
2.66531
2.68615
2.68957
2.69369
2.6965
2.69921
2.70167
2.70335
2.70397
2.70359
2.70274
2.70277
2.70435
2.70805
2.71291
2.7176
2.72122
2.72365
2.72549
2.72681
2.72773
2.72873
2.72968
2.73029
2.73061
2.73106
2.7325
2.73557
2.74012
2.74496
2.74859
2.75016
2.75005
2.74916
2.74828
2.74844
2.74979
2.75236
2.75557
2.75876
2.76141
2.76324
2.76428
2.76475
2.76495
2.76486
2.76462
2.7651
2.76686
2.76992
2.77331
2.77582
2.77695
2.77701
2.77672
2.7769
2.77826
2.78083
2.78363
2.78569
2.7866
2.78665
2.78652
2.78676
2.78763
2.78896
2.79047
2.792
2.79342
2.79477
2.79602
2.797
2.79745
2.79733
2.79696
2.79673
2.79675
2.79711
2.79781
2.79868
2.79964
2.80053
2.80132
2.80221
2.80315
2.80426
2.8058
2.80799
2.81072
2.81345
2.81558
2.81652
1
1
1
1
1
1
1
1
1
1
1
1
1
1
1
1
1
1
1
1
1
1
1
1
1
1
1
1
1
1
1
1
1
1
1
1
1
1
1
1
1
1
1
1
1
1
1
1
1
1
1
1
1
1
1
1
1
1
1
1
1
1
1
1
1
1
1
1
1
1
1
1
1
1
1
1
1
1
1
1
1
1
1
1
1
1
1
1
1
1
1
1
1
1
1
1
1
1
1
2.08743
2.66014
2.68555
2.68861
2.6929
2.69566
2.69817
2.70071
2.70279
2.70393
2.70401
2.70334
2.70306
2.70407
2.70714
2.71183
2.71675
2.72075
2.72345
2.72525
2.72656
2.72738
2.7283
2.72929
2.73005
2.7305
2.73096
2.7322
2.73493
2.73921
2.74402
2.74791
2.74986
2.74998
2.74924
2.7483
2.74828
2.74935
2.75164
2.75464
2.75774
2.76046
2.76248
2.76372
2.76439
2.76463
2.76455
2.7643
2.76467
2.76625
2.76919
2.77258
2.77518
2.77637
2.77642
2.77607
2.77621
2.77757
2.78024
2.78319
2.78532
2.78616
2.78601
2.78568
2.78579
2.7867
2.78821
2.78989
2.79149
2.79288
2.79414
2.79531
2.79628
2.79676
2.79665
2.79629
2.79606
2.79608
2.79644
2.79713
2.79794
2.79884
2.79971
2.80054
2.8015
2.80253
2.80372
2.80531
2.80748
2.81011
2.81274
2.81481
2.81569
1
1
1
1
1
1
1
1
1
1
1
1
1
1
1
1
1
1
1
1
1
1
1
1
1
1
1
1
1
1
1
1
1
1
1
1
1
1
1
1
1
1
1
1
1
1
1
1
1
1
1
1
1
1
1
1
1
1
1
1
1
1
1
1
1
1
1
1
1
1
1
1
1
1
1
1
1
1
1
1
1
1
1
1
1
1
1
1
1
1
1
1
1
1
1
1
1
1
1
2.02677
2.65422
2.68419
2.68713
2.69137
2.69409
2.69664
2.69937
2.70188
2.70353
2.70417
2.70397
2.70363
2.70425
2.70664
2.71081
2.71554
2.71965
2.72259
2.72449
2.72588
2.72684
2.72785
2.72899
2.72994
2.73053
2.731
2.732
2.7343
2.73817
2.74283
2.74689
2.74927
2.74976
2.74917
2.7482
2.74801
2.74885
2.75093
2.75377
2.75679
2.7595
2.76158
2.76289
2.7637
2.76408
2.7642
2.76417
2.76453
2.7659
2.76849
2.77159
2.77413
2.77546
2.77571
2.77555
2.77578
2.77713
2.77969
2.78255
2.78467
2.78551
2.7853
2.78489
2.78492
2.7858
2.78741
2.78924
2.79092
2.79231
2.79348
2.79454
2.79547
2.79597
2.79591
2.7956
2.79538
2.7954
2.79572
2.79638
2.79716
2.79803
2.79887
2.79971
2.80072
2.80182
2.80309
2.80478
2.80696
2.8095
2.81201
2.81399
2.81476
1
1
1
1
1
1
1
1
1
1
1
1
1
1
1
1
1
1
1
1
1
1
1
1
1
1
1
1
1
1
1
1
1
1
1
1
1
1
1
1
1
1
1
1
1
1
1
1
1
1
1
1
1
1
1
1
1
1
1
1
1
1
1
1
1
1
1
1
1
1
1
1
1
1
1
1
1
1
1
1
1
1
1
1
1
1
1
1
1
1
1
1
1
1
1
1
1
1
1
1.95965
2.64589
2.68193
2.6855
2.68966
2.69222
2.69471
2.69756
2.70051
2.70272
2.70397
2.7043
2.70425
2.70468
2.70651
2.70999
2.7142
2.71808
2.72107
2.72312
2.72469
2.72599
2.72731
2.72876
2.72995
2.73069
2.73115
2.7319
2.73367
2.73697
2.74133
2.74548
2.74831
2.7493
2.74894
2.74801
2.74765
2.7483
2.75021
2.75294
2.75588
2.75853
2.76058
2.76187
2.76274
2.76332
2.76377
2.7641
2.76457
2.76571
2.7678
2.7704
2.77275
2.77428
2.77494
2.77516
2.77561
2.77689
2.77912
2.78169
2.78372
2.78462
2.78451
2.78416
2.78414
2.78496
2.78659
2.7885
2.79027
2.79169
2.7928
2.79375
2.79459
2.79509
2.79512
2.79488
2.79469
2.79468
2.79495
2.79556
2.79634
2.79721
2.79802
2.79884
2.79987
2.801
2.80238
2.80419
2.80643
2.8089
2.81128
2.81312
2.81373
1
1
1
1
1
1
1
1
1
1
1
1
1
1
1
1
1
1
1
1
1
1
1
1
1
1
1
1
1
1
1
1
1
1
1
1
1
1
1
1
1
1
1
1
1
1
1
1
1
1
1
1
1
1
1
1
1
1
1
1
1
1
1
1
1
1
1
1
1
1
1
1
1
1
1
1
1
1
1
1
1
1
1
1
1
1
1
1
1
1
1
1
1
1
1
1
1
1
1
1.88636
2.63404
2.67955
2.68379
2.68787
2.6903
2.69263
2.69539
2.69861
2.70132
2.70325
2.70422
2.70461
2.70519
2.70665
2.70944
2.71295
2.71633
2.71908
2.72113
2.7229
2.72465
2.72651
2.72846
2.72999
2.73094
2.7314
2.73188
2.73305
2.73561
2.73949
2.74362
2.74687
2.74845
2.74846
2.74779
2.74733
2.74778
2.74947
2.75205
2.75491
2.75749
2.7595
2.76083
2.76175
2.76246
2.76321
2.76391
2.76455
2.7655
2.76706
2.76916
2.77129
2.773
2.77412
2.77482
2.77553
2.77671
2.77854
2.78069
2.78253
2.78351
2.78363
2.78343
2.78345
2.78421
2.78577
2.7877
2.78953
2.791
2.79207
2.79292
2.79366
2.79415
2.79425
2.7941
2.79395
2.79392
2.79412
2.79469
2.7955
2.79639
2.79717
2.79793
2.79892
2.80007
2.80156
2.80355
2.80588
2.80831
2.81055
2.81219
2.8126
1
1
1
1
1
1
1
1
1
1
1
1
1
1
1
1
1
1
1
1
1
1
1
1
1
1
1
1
1
1
1
1
1
1
1
1
1
1
1
1
1
1
1
1
1
1
1
1
1
1
1
1
1
1
1
1
1
1
1
1
1
1
1
1
1
1
1
1
1
1
1
1
1
1
1
1
1
1
1
1
1
1
1
1
1
1
1
1
1
1
1
1
1
1
1
1
1
1
1
1.80678
2.61817
2.67785
2.68238
2.68635
2.68849
2.69046
2.693
2.69623
2.69925
2.7018
2.70359
2.70459
2.70556
2.70691
2.70916
2.71197
2.71467
2.71693
2.71874
2.72058
2.72282
2.72534
2.72794
2.72995
2.73116
2.73167
2.73194
2.73257
2.73429
2.73747
2.74135
2.74488
2.74711
2.74778
2.7475
2.74716
2.74742
2.74876
2.75102
2.7537
2.75623
2.75829
2.75981
2.7609
2.76171
2.76256
2.76342
2.76418
2.765
2.76622
2.76797
2.76998
2.77183
2.77329
2.77439
2.77533
2.77645
2.77792
2.77965
2.78123
2.78226
2.78262
2.78263
2.78279
2.78353
2.785
2.78686
2.7887
2.79021
2.79128
2.79205
2.79269
2.79316
2.79333
2.79326
2.79314
2.7931
2.79324
2.7938
2.79467
2.79558
2.7963
2.79698
2.79788
2.79903
2.80065
2.80285
2.80531
2.80772
2.80981
2.81121
2.81139
1
1
1
1
1
1
1
1
1
1
1
1
1
1
1
1
1
1
1
1
1
1
1
1
1
1
1
1
1
1
1
1
1
1
1
1
1
1
1
1
1
1
1
1
1
1
1
1
1
1
1
1
1
1
1
1
1
1
1
1
1
1
1
1
1
1
1
1
1
1
1
1
1
1
1
1
1
1
1
1
1
1
1
1
1
1
1
1
1
1
1
1
1
1
1
1
1
1
1
1.71992
2.59796
2.67687
2.68137
2.68525
2.68719
2.68875
2.69076
2.69363
2.69671
2.69971
2.70223
2.70405
2.70559
2.70712
2.70907
2.71127
2.71327
2.71491
2.71626
2.71797
2.72055
2.72371
2.72704
2.72968
2.73124
2.73186
2.73201
2.73226
2.73323
2.73554
2.73889
2.74241
2.74519
2.74667
2.74702
2.74703
2.74727
2.74826
2.75001
2.75232
2.75475
2.75697
2.75882
2.76024
2.76119
2.76193
2.76263
2.76331
2.76407
2.76522
2.7669
2.76892
2.77087
2.77249
2.77378
2.77488
2.77597
2.77722
2.77861
2.77994
2.78093
2.78147
2.78174
2.7821
2.78289
2.78427
2.78603
2.78781
2.78932
2.79041
2.79114
2.79171
2.79214
2.79234
2.79231
2.79223
2.79218
2.79232
2.7929
2.79385
2.79476
2.79538
2.79597
2.79675
2.79789
2.79968
2.8021
2.80469
2.80709
2.80902
2.81016
2.81013
1
1
1
1
1
1
1
1
1
1
1
1
1
1
1
1
1
1
1
1
1
1
1
1
1
1
1
1
1
1
1
1
1
1
1
1
1
1
1
1
1
1
1
1
1
1
1
1
1
1
1
1
1
1
1
1
1
1
1
1
1
1
1
1
1
1
1
1
1
1
1
1
1
1
1
1
1
1
1
1
1
1
1
1
1
1
1
1
1
1
1
1
1
1
1
1
1
1
1
1.62278
2.57184
2.67639
2.68066
2.68446
2.68632
2.68756
2.68905
2.69136
2.69416
2.69727
2.70025
2.70283
2.70518
2.70715
2.70903
2.71078
2.71216
2.71317
2.71401
2.71543
2.71812
2.72176
2.7257
2.72899
2.73102
2.73183
2.73199
2.73202
2.73246
2.73397
2.73661
2.73982
2.74282
2.74502
2.74621
2.7468
2.74721
2.74796
2.74914
2.75089
2.75306
2.75546
2.75778
2.75964
2.76078
2.76135
2.76169
2.76209
2.7628
2.76407
2.76595
2.7681
2.77009
2.77168
2.77296
2.7741
2.77523
2.77641
2.77761
2.77872
2.7796
2.78023
2.78073
2.78132
2.78224
2.78359
2.78521
2.78686
2.78832
2.78942
2.79017
2.79071
2.79109
2.79127
2.79125
2.79121
2.79119
2.79138
2.79203
2.79306
2.7939
2.79438
2.79489
2.79554
2.79671
2.79867
2.80129
2.80401
2.80641
2.80816
2.80905
2.80885
1
1
1
1
1
1
1
1
1
1
1
1
1
1
1
1
1
1
1
1
1
1
1
1
1
1
1
1
1
1
1
1
1
1
1
1
1
1
1
1
1
1
1
1
1
1
1
1
1
1
1
1
1
1
1
1
1
1
1
1
1
1
1
1
1
1
1
1
1
1
1
1
1
1
1
1
1
1
1
1
1
1
1
1
1
1
1
1
1
1
1
1
1
1
1
1
1
1
1
1.51627
2.53971
2.67644
2.6801
2.68364
2.68549
2.68663
2.68783
2.68962
2.69195
2.69481
2.69788
2.70098
2.70414
2.70677
2.70881
2.71028
2.71121
2.71172
2.71213
2.71326
2.71589
2.71973
2.724
2.72777
2.73027
2.73139
2.73167
2.73168
2.7319
2.73287
2.73482
2.73748
2.74034
2.74293
2.7449
2.74624
2.74703
2.74774
2.74853
2.74967
2.75141
2.7538
2.75653
2.7589
2.7603
2.76074
2.76073
2.76079
2.76135
2.76282
2.76503
2.76739
2.76937
2.77082
2.77195
2.77303
2.77422
2.77546
2.77663
2.7776
2.77833
2.77896
2.77962
2.78045
2.78156
2.78293
2.78441
2.78587
2.78721
2.78831
2.78912
2.78968
2.79002
2.79012
2.79009
2.79007
2.79011
2.79044
2.7912
2.79225
2.79298
2.79328
2.79369
2.79428
2.79551
2.79766
2.80042
2.80323
2.80561
2.80723
2.80789
2.80757
1
1
1
1
1
1
1
1
1
1
1
1
1
1
1
1
1
1
1
1
1
1
1
1
1
1
1
1
1
1
1
1
1
1
1
1
1
1
1
1
1
1
1
1
1
1
1
1
1
1
1
1
1
1
1
1
1
1
1
1
1
1
1
1
1
1
1
1
1
1
1
1
1
1
1
1
1
1
1
1
1
1
1
1
1
1
1
1
1
1
1
1
1
1
1
1
1
1
1
1.40667
2.50206
2.67712
2.67943
2.68253
2.68447
2.68575
2.68695
2.68843
2.69029
2.69268
2.69549
2.69878
2.70249
2.70577
2.70814
2.70955
2.71024
2.71048
2.71067
2.71163
2.71413
2.71792
2.72219
2.72609
2.72886
2.73028
2.73085
2.73107
2.73137
2.73213
2.73359
2.73566
2.73808
2.74063
2.74305
2.74513
2.74653
2.74747
2.74812
2.7488
2.75001
2.7521
2.75497
2.75775
2.75952
2.76002
2.75984
2.75962
2.76001
2.76155
2.76402
2.76659
2.76858
2.76986
2.77078
2.77177
2.77301
2.7744
2.77564
2.77654
2.77713
2.77768
2.77843
2.77949
2.78082
2.78225
2.7836
2.78484
2.78602
2.7871
2.78798
2.78858
2.78889
2.78891
2.78883
2.78884
2.78899
2.78952
2.7904
2.79138
2.79194
2.79208
2.79239
2.79298
2.79436
2.79666
2.79949
2.8023
2.80466
2.80619
2.80668
2.80634
1
1
1
1
1
1
1
1
1
1
1
1
1
1
1
1
1
1
1
1
1
1
1
1
1
1
1
1
1
1
1
1
1
1
1
1
1
1
1
1
1
1
1
1
1
1
1
1
1
1
1
1
1
1
1
1
1
1
1
1
1
1
1
1
1
1
1
1
1
1
1
1
1
1
1
1
1
1
1
1
1
1
1
1
1
1
1
1
1
1
1
1
1
1
1
1
1
1
1
1.29798
2.45704
2.67755
2.67885
2.6814
2.68329
2.68484
2.68626
2.68772
2.68933
2.69128
2.69362
2.69678
2.70065
2.70427
2.70693
2.70845
2.7091
2.70929
2.70949
2.71048
2.71292
2.71652
2.72052
2.72424
2.72702
2.72859
2.72942
2.72998
2.73059
2.73148
2.73275
2.73435
2.73624
2.73845
2.74088
2.74345
2.74553
2.74696
2.74774
2.74819
2.74893
2.75052
2.7532
2.75617
2.75835
2.75915
2.759
2.75866
2.75889
2.76031
2.76284
2.76553
2.76757
2.76876
2.76952
2.77041
2.77169
2.77323
2.7746
2.77549
2.77597
2.77644
2.77723
2.77846
2.78
2.7815
2.78275
2.78377
2.78477
2.7858
2.78674
2.7874
2.78769
2.78764
2.78751
2.78755
2.78787
2.78862
2.78958
2.79039
2.79075
2.7908
2.79102
2.79169
2.79325
2.79566
2.79848
2.80121
2.80354
2.80502
2.80545
2.80518
1
1
1
1
1
1
1
1
1
1
1
1
1
1
1
1
1
1
1
1
1
1
1
1
1
1
1
1
1
1
1
1
1
1
1
1
1
1
1
1
1
1
1
1
1
1
1
1
1
1
1
1
1
1
1
1
1
1
1
1
1
1
1
1
1
1
1
1
1
1
1
1
1
1
1
1
1
1
1
1
1
1
1
1
1
1
1
1
1
1
1
1
1
1
1
1
1
1
1
1.19224
2.40412
2.67684
2.67838
2.68056
2.68247
2.68422
2.68582
2.68735
2.68886
2.69054
2.69263
2.6956
2.69928
2.70281
2.70552
2.70711
2.70781
2.70812
2.70854
2.7097
2.71211
2.7155
2.71919
2.72256
2.72513
2.7267
2.72761
2.7284
2.72934
2.73057
2.73197
2.7334
2.73487
2.7366
2.73875
2.74138
2.744
2.74603
2.7472
2.74768
2.74813
2.74917
2.75138
2.75428
2.75681
2.75807
2.75814
2.75786
2.75796
2.75913
2.76149
2.76417
2.76628
2.7675
2.76822
2.76906
2.77034
2.77197
2.77345
2.77439
2.77482
2.77522
2.77602
2.77739
2.77908
2.78066
2.78182
2.78266
2.78348
2.78443
2.78539
2.78609
2.78638
2.7863
2.78616
2.78626
2.78677
2.7877
2.78866
2.78927
2.78942
2.78943
2.78963
2.79045
2.79218
2.79462
2.79735
2.79995
2.80222
2.80374
2.80421
2.80409
1
1
1
1
1
1
1
1
1
1
1
1
1
1
1
1
1
1
1
1
1
1
1
1
1
1
1
1
1
1
1
1
1
1
1
1
1
1
1
1
1
1
1
1
1
1
1
1
1
1
1
1
1
1
1
1
1
1
1
1
1
1
1
1
1
1
1
1
1
1
1
1
1
1
1
1
1
1
1
1
1
1
1
1
1
1
1
1
1
1
1
1
1
1
1
1
1
1
1
1.08685
2.34839
2.6777
2.67965
2.68092
2.68275
2.68456
2.6862
2.68762
2.68895
2.69044
2.69246
2.69534
2.6987
2.70183
2.70428
2.70582
2.70664
2.70716
2.70788
2.70924
2.71157
2.71464
2.71803
2.72111
2.72345
2.72492
2.72585
2.72673
2.72783
2.72931
2.73099
2.73251
2.7338
2.73516
2.73692
2.7393
2.74211
2.74461
2.7463
2.74707
2.74745
2.74808
2.7497
2.75228
2.75497
2.75672
2.75722
2.75711
2.75714
2.758
2.76002
2.76256
2.76473
2.76609
2.76688
2.76774
2.76901
2.77065
2.7722
2.77319
2.77363
2.774
2.77482
2.77626
2.77806
2.77969
2.78081
2.78151
2.78216
2.783
2.78393
2.78466
2.78496
2.78491
2.78483
2.78502
2.7857
2.7867
2.78757
2.78799
2.788
2.78799
2.78828
2.7893
2.79113
2.7935
2.79606
2.79853
2.80074
2.80233
2.80296
2.80308
1
1
1
1
1
1
1
1
1
1
1
1
1
1
1
1
1
1
1
1
1
1
1
1
1
1
1
1
1
1
1
1
1
1
1
1
1
1
1
1
1
1
1
1
1
1
1
1
1
1
1
1
1
1
1
1
1
1
1
1
1
1
1
1
1
1
1
1
1
1
1
1
1
1
1
1
1
1
1
1
1
1
1
1
1
1
1
1
1
1
1
1
1
1
1
1
1
1
1
1.00386
2.29101
2.67872
2.67952
2.68087
2.68272
2.68447
2.6861
2.68758
2.689
2.69058
2.69274
2.69567
2.69885
2.70162
2.70372
2.70512
2.706
2.70672
2.70763
2.70909
2.71127
2.71392
2.71694
2.71979
2.72201
2.72349
2.72446
2.72538
2.72649
2.72795
2.72975
2.73145
2.73281
2.73402
2.73548
2.7375
2.74017
2.74286
2.74498
2.74615
2.74668
2.74713
2.74826
2.75039
2.75301
2.75512
2.7561
2.75625
2.75629
2.75688
2.75849
2.7608
2.76301
2.76457
2.76554
2.76646
2.76771
2.7693
2.77084
2.77189
2.77239
2.77276
2.7736
2.77506
2.77692
2.77859
2.7797
2.78031
2.78081
2.78152
2.78237
2.78309
2.78344
2.78348
2.78352
2.78385
2.78464
2.78558
2.78628
2.78654
2.7865
2.78652
2.787
2.78821
2.79004
2.79225
2.79459
2.79694
2.79912
2.80084
2.80172
2.80208
1
1
1
1
1
1
1
1
1
1
1
1
1
1
1
1
1
1
1
1
1
1
1
1
1
1
1
1
1
1
1
1
1
1
1
1
1
1
1
1
1
1
1
1
1
1
1
1
1
1
1
1
1
1
1
1
1
1
1
1
1
1
1
1
1
1
1
1
1
1
1
1
1
1
1
1
1
1
1
1
1
1
1
1
1
1
1
1
1
1
1
1
1
1
1
1
1
1
1
1.00002
2.21869
2.67738
2.68062
2.68251
2.68416
2.68558
2.68701
2.68844
2.68996
2.69167
2.69379
2.69628
2.69879
2.70103
2.70285
2.70429
2.7055
2.70664
2.70785
2.70935
2.71128
2.71343
2.71591
2.71847
2.72065
2.72229
2.72348
2.72452
2.72561
2.72687
2.7285
2.73022
2.73171
2.73301
2.73439
2.7361
2.73842
2.74101
2.74334
2.74486
2.74569
2.7462
2.74705
2.74873
2.75109
2.75332
2.75469
2.75516
2.75529
2.75571
2.75696
2.759
2.76122
2.76298
2.76418
2.7652
2.76643
2.76792
2.76941
2.77049
2.77107
2.77148
2.77232
2.77378
2.77565
2.77736
2.77849
2.77907
2.77944
2.77999
2.78072
2.7814
2.78183
2.78202
2.78223
2.78271
2.78351
2.78432
2.78482
2.78497
2.78494
2.7851
2.7858
2.78712
2.78885
2.79082
2.79294
2.7952
2.79741
2.79931
2.80047
2.80106
1
1
1
1
1
1
1
1
1
1
1
1
1
1
1
1
1
1
1
1
1
1
1
1
1
1
1
1
1
1
1
1
1
1
1
1
1
1
1
1
1
1
1
1
1
1
1
1
1
1
1
1
1
1
1
1
1
1
1
1
1
1
1
1
1
1
1
1
1
1
1
1
1
1
1
1
1
1
1
1
1
1
1
1
1
1
1
1
1
1
1
1
1
1
1
1
1
1
1
1
2.12763
2.67132
2.68061
2.68247
2.68434
2.68604
2.68781
2.68958
2.69135
2.69319
2.69515
2.69717
2.69908
2.70088
2.70245
2.70384
2.70517
2.7066
2.70825
2.71011
2.71203
2.7138