/*--------------------------------*- C++ -*----------------------------------*\
  =========                 |
  \\      /  F ield         | OpenFOAM: The Open Source CFD Toolbox
   \\    /   O peration     | Website:  https://openfoam.org
    \\  /    A nd           | Version:  7
     \\/     M anipulation  |
\*---------------------------------------------------------------------------*/
FoamFile
{
    version     2.0;
    format      ascii;
    class       volScalarField;
    location    "3";
    object      p;
}
// * * * * * * * * * * * * * * * * * * * * * * * * * * * * * * * * * * * * * //

dimensions      [1 -1 -2 0 0 0 0];

internalField   nonuniform List<scalar> 
64512
(
1
1
1
1
1
1
1
1
1
1
1
1
1
1
1
1
1
1
1
1
1
1
1
1
1
1
1
1
1
1
1
1
1
1
1
1
1
1
1
1
1
1
1
1
1
1
1
1
1
5.57548
10.3715
10.461
10.5157
10.5808
10.6422
10.7002
10.7562
10.8117
10.8656
10.917
10.9661
11.013
11.0604
11.1104
11.1612
11.2113
11.2585
11.3021
11.3425
11.3821
11.4225
11.4623
11.5014
11.5406
11.5794
11.6156
11.6495
11.6829
11.7171
11.7509
11.7827
11.8117
11.8388
11.8647
11.8901
11.9144
11.9359
11.9533
11.9666
11.9774
11.9878
11.9997
12.0127
12.0245
12.034
12.041
1
1
1
1
1
1
1
1
1
1
1
1
1
1
1
1
1
1
1
1
1
1
1
1
1
1
1
1
1
1
1
1
1
1
1
1
1
1
1
1
1
1
1
1
1
1
1
1
1
5.52759
10.3464
10.4622
10.5167
10.5813
10.6423
10.7002
10.7562
10.8115
10.8651
10.9163
10.9655
11.0127
11.0598
11.1094
11.1601
11.2097
11.2565
11.3001
11.3406
11.3806
11.4212
11.4615
11.5007
11.5395
11.5779
11.6139
11.6478
11.6812
11.7152
11.7484
11.7795
11.8082
11.8353
11.8618
11.8878
11.9122
11.9334
11.9505
11.9635
11.9742
11.9847
11.9967
12.0095
12.021
12.0301
12.0369
1
1
1
1
1
1
1
1
1
1
1
1
1
1
1
1
1
1
1
1
1
1
1
1
1
1
1
1
1
1
1
1
1
1
1
1
1
1
1
1
1
1
1
1
1
1
1
1
1
5.43059
10.3234
10.4611
10.5151
10.5784
10.6386
10.6971
10.7536
10.8092
10.8629
10.914
10.9632
11.0107
11.0575
11.1069
11.1575
11.2068
11.2531
11.2965
11.337
11.3774
11.4184
11.4591
11.4987
11.5372
11.5753
11.611
11.6449
11.6784
11.712
11.7445
11.7746
11.8028
11.8301
11.8571
11.8838
11.9085
11.9294
11.9459
11.9586
11.9693
11.9799
11.9919
12.0045
12.0154
12.0241
12.0305
1
1
1
1
1
1
1
1
1
1
1
1
1
1
1
1
1
1
1
1
1
1
1
1
1
1
1
1
1
1
1
1
1
1
1
1
1
1
1
1
1
1
1
1
1
1
1
1
1
5.28927
10.2938
10.4589
10.5127
10.5749
10.6341
10.6928
10.7501
10.806
10.86
10.911
10.9601
11.0072
11.0536
11.1028
11.1534
11.2025
11.2483
11.2917
11.3322
11.3728
11.4141
11.4551
11.495
11.5331
11.5711
11.6066
11.6406
11.6738
11.7066
11.7381
11.7673
11.7951
11.8228
11.8505
11.8777
11.9025
11.923
11.939
11.9513
11.962
11.9727
11.9847
11.9967
12.0068
12.0148
12.0208
1
1
1
1
1
1
1
1
1
1
1
1
1
1
1
1
1
1
1
1
1
1
1
1
1
1
1
1
1
1
1
1
1
1
1
1
1
1
1
1
1
1
1
1
1
1
1
1
1
5.10621
10.2558
10.4553
10.5084
10.5701
10.6279
10.6862
10.7441
10.8008
10.8555
10.9071
10.9561
11.0024
11.0482
11.097
11.1478
11.197
11.2427
11.2861
11.3267
11.3671
11.4084
11.4493
11.4893
11.5273
11.5652
11.6006
11.6345
11.6671
11.6991
11.7295
11.7581
11.7859
11.8139
11.8422
11.8697
11.8944
11.9145
11.9301
11.9422
11.953
11.9638
11.9754
11.9867
11.9958
12.0028
12.0082
1
1
1
1
1
1
1
1
1
1
1
1
1
1
1
1
1
1
1
1
1
1
1
1
1
1
1
1
1
1
1
1
1
1
1
1
1
1
1
1
1
1
1
1
1
1
1
1
1
4.88517
10.2045
10.4503
10.5021
10.5641
10.6207
10.6783
10.7365
10.7939
10.8494
10.9019
10.9508
10.9966
11.0419
11.0897
11.1405
11.1899
11.236
11.2797
11.3203
11.3601
11.4008
11.4413
11.4814
11.5192
11.5571
11.5922
11.6258
11.6578
11.6889
11.7186
11.7469
11.7749
11.8032
11.8316
11.8589
11.8832
11.9031
11.9185
11.9308
11.9419
11.9528
11.9642
11.9747
11.9829
11.989
11.9938
1
1
1
1
1
1
1
1
1
1
1
1
1
1
1
1
1
1
1
1
1
1
1
1
1
1
1
1
1
1
1
1
1
1
1
1
1
1
1
1
1
1
1
1
1
1
1
1
1
4.62987
10.1364
10.4441
10.4932
10.5563
10.6127
10.6696
10.7276
10.7856
10.8416
10.8944
10.9435
10.9894
11.0346
11.0811
11.1315
11.1812
11.2279
11.2723
11.313
11.3519
11.3918
11.4314
11.4715
11.5092
11.5468
11.5813
11.6143
11.6456
11.6761
11.7055
11.7341
11.7624
11.7908
11.819
11.8458
11.8698
11.8895
11.9052
11.9178
11.9292
11.9402
11.9509
11.9604
11.9677
11.9729
11.9772
1
1
1
1
1
1
1
1
1
1
1
1
1
1
1
1
1
1
1
1
1
1
1
1
1
1
1
1
1
1
1
1
1
1
1
1
1
1
1
1
1
1
1
1
1
1
1
1
1
4.34228
10.0486
10.4376
10.4815
10.5466
10.6034
10.6604
10.7182
10.7765
10.8325
10.885
10.9342
10.9805
11.0259
11.0715
11.1209
11.1709
11.2182
11.2632
11.3039
11.3418
11.3808
11.4196
11.4596
11.4969
11.5341
11.5679
11.6001
11.6308
11.661
11.6907
11.7197
11.7483
11.7766
11.8039
11.8298
11.853
11.8725
11.8886
11.9018
11.9137
11.9248
11.9351
11.9437
11.9501
11.9546
11.9585
1
1
1
1
1
1
1
1
1
1
1
1
1
1
1
1
1
1
1
1
1
1
1
1
1
1
1
1
1
1
1
1
1
1
1
1
1
1
1
1
1
1
1
1
1
1
1
1
1
4.02323
9.93808
10.4309
10.4689
10.5365
10.5933
10.6505
10.7086
10.7669
10.8228
10.8751
10.9242
10.971
11.0166
11.0617
11.1099
11.1599
11.2074
11.2527
11.2934
11.3307
11.369
11.4069
11.4465
11.4831
11.5196
11.5526
11.5841
11.6143
11.6444
11.6743
11.7037
11.7324
11.7601
11.7864
11.811
11.8332
11.8526
11.8692
11.8832
11.8957
11.9069
11.9168
11.9248
11.9308
11.9349
11.9387
1
1
1
1
1
1
1
1
1
1
1
1
1
1
1
1
1
1
1
1
1
1
1
1
1
1
1
1
1
1
1
1
1
1
1
1
1
1
1
1
1
1
1
1
1
1
1
1
1
3.67378
9.80089
10.4213
10.4557
10.5262
10.5825
10.6395
10.6973
10.7554
10.8113
10.8632
10.9116
10.9586
11.0042
11.0496
11.0964
11.146
11.1933
11.2385
11.2793
11.3165
11.3544
11.3915
11.4305
11.4667
11.5026
11.5351
11.5663
11.5963
11.6262
11.6561
11.6857
11.7143
11.7414
11.7666
11.7898
11.8109
11.83
11.8471
11.8621
11.8754
11.8867
11.8963
11.9037
11.9093
11.9132
11.9169
1
1
1
1
1
1
1
1
1
1
1
1
1
1
1
1
1
1
1
1
1
1
1
1
1
1
1
1
1
1
1
1
1
1
1
1
1
1
1
1
1
1
1
1
1
1
1
1
1
3.30337
9.62704
10.4102
10.4458
10.5178
10.5729
10.6289
10.6854
10.7425
10.7981
10.8498
10.8974
10.9439
10.9899
11.0356
11.0815
11.1303
11.1772
11.2218
11.2627
11.2997
11.3374
11.3734
11.4118
11.4477
11.4832
11.5158
11.547
11.5768
11.6063
11.6356
11.6648
11.6932
11.7199
11.7442
11.7661
11.7861
11.8047
11.8223
11.8382
11.8522
11.8637
11.8729
11.8798
11.8853
11.8892
11.893
1
1
1
1
1
1
1
1
1
1
1
1
1
1
1
1
1
1
1
1
1
1
1
1
1
1
1
1
1
1
1
1
1
1
1
1
1
1
1
1
1
1
1
1
1
1
1
1
1
2.92244
9.40848
10.398
10.4367
10.5077
10.5615
10.6167
10.672
10.7284
10.7838
10.8358
10.8831
10.9286
10.9741
11.0191
11.0645
11.1124
11.1588
11.203
11.2439
11.2809
11.3181
11.353
11.3908
11.4265
11.462
11.4948
11.5263
11.5559
11.5846
11.6129
11.6413
11.6692
11.6956
11.7193
11.7402
11.7591
11.777
11.7948
11.8115
11.8261
11.8377
11.8467
11.8533
11.8586
11.8626
11.8664
1
1
1
1
1
1
1
1
1
1
1
1
1
1
1
1
1
1
1
1
1
1
1
1
1
1
1
1
1
1
1
1
1
1
1
1
1
1
1
1
1
1
1
1
1
1
1
1
1
2.53527
9.12521
10.3911
10.4338
10.4988
10.5507
10.6047
10.6588
10.714
10.7687
10.8206
10.8679
10.9126
10.9574
11.0017
11.0462
11.0932
11.1395
11.183
11.2238
11.2604
11.2966
11.3305
11.3675
11.4031
11.4387
11.4719
11.5035
11.5328
11.5605
11.5875
11.6149
11.6422
11.6682
11.6915
11.7116
11.7297
11.7471
11.7648
11.7817
11.7968
11.8085
11.8174
11.8238
11.8289
11.833
11.8366
1
1
1
1
1
1
1
1
1
1
1
1
1
1
1
1
1
1
1
1
1
1
1
1
1
1
1
1
1
1
1
1
1
1
1
1
1
1
1
1
1
1
1
1
1
1
1
1
1
2.15813
8.76788
10.3946
10.4306
10.4891
10.5382
10.5904
10.6431
10.6975
10.7516
10.8035
10.8512
10.8954
10.9393
10.9831
11.0268
11.0726
11.1187
11.1616
11.2023
11.2383
11.2735
11.3068
11.3431
11.3785
11.414
11.4472
11.4785
11.5072
11.5339
11.5598
11.5861
11.6126
11.638
11.6608
11.6805
11.698
11.7148
11.7321
11.7489
11.764
11.7757
11.7847
11.7911
11.796
11.7999
11.803
1
1
1
1
1
1
1
1
1
1
1
1
1
1
1
1
1
1
1
1
1
1
1
1
1
1
1
1
1
1
1
1
1
1
1
1
1
1
1
1
1
1
1
1
1
1
1
1
1
1.79786
8.33505
10.4055
10.4295
10.4794
10.525
10.5749
10.6255
10.6781
10.7314
10.7836
10.832
10.8762
10.9193
10.9623
11.0054
11.05
11.0958
11.1382
11.179
11.2147
11.249
11.2822
11.3177
11.3527
11.3876
11.4203
11.4508
11.4788
11.5047
11.5297
11.555
11.5805
11.6051
11.6272
11.6464
11.6634
11.6796
11.6962
11.7125
11.7273
11.739
11.7485
11.7552
11.7598
11.7631
11.7655
1
1
1
1
1
1
1
1
1
1
1
1
1
1
1
1
1
1
1
1
1
1
1
1
1
1
1
1
1
1
1
1
1
1
1
1
1
1
1
1
1
1
1
1
1
1
1
1
1
1.4775
7.83716
10.4151
10.4152
10.4609
10.5033
10.5518
10.6025
10.6556
10.7095
10.762
10.8107
10.8551
10.8974
10.94
10.9826
11.0257
11.0708
11.113
11.1537
11.1896
11.2232
11.2565
11.2909
11.3254
11.3591
11.391
11.4206
11.4478
11.4732
11.4975
11.5218
11.5461
11.5694
11.5905
11.609
11.6256
11.6413
11.6571
11.6725
11.6868
11.6986
11.7085
11.7155
11.7197
11.722
11.7234
1
1
1
1
1
1
1
1
1
1
1
1
1
1
1
1
1
1
1
1
1
1
1
1
1
1
1
1
1
1
1
1
1
1
1
1
1
1
1
1
1
1
1
1
1
1
1
1
1
1.19581
7.26385
10.4155
10.4093
10.4468
10.4881
10.5342
10.5823
10.6325
10.6845
10.7365
10.7857
10.8306
10.8727
10.9148
10.957
10.999
11.0431
11.0852
11.1256
11.162
11.1951
11.2287
11.2621
11.2959
11.3282
11.3591
11.3876
11.4143
11.4392
11.4629
11.4863
11.5091
11.5308
11.5506
11.5683
11.5843
11.5992
11.6138
11.6282
11.642
11.654
11.6643
11.6716
11.6754
11.6765
11.6769
1
1
1
1
1
1
1
1
1
1
1
1
1
1
1
1
1
1
1
1
1
1
1
1
1
1
1
1
1
1
1
1
1
1
1
1
1
1
1
1
1
1
1
1
1
1
1
1
1
1.01007
6.63334
10.3198
10.356
10.4037
10.452
10.5009
10.5528
10.6056
10.6587
10.7107
10.7593
10.8037
10.845
10.8864
10.9282
10.9693
11.0123
11.0543
11.0944
11.1318
11.1649
11.1985
11.2308
11.2637
11.2946
11.3244
11.3521
11.3782
11.4027
11.4258
11.448
11.4692
11.4891
11.5074
11.5241
11.5392
11.553
11.5663
11.5796
11.5931
11.6053
11.6157
11.6229
11.6259
11.6257
11.6252
1
1
1
1
1
1
1
1
1
1
1
1
1
1
1
1
1
1
1
1
1
1
1
1
1
1
1
1
1
1
1
1
1
1
1
1
1
1
1
1
1
1
1
1
1
1
1
1
1
1.00006
5.90775
10.1966
10.3071
10.3692
10.4273
10.4789
10.5297
10.5797
10.6305
10.6811
10.7291
10.7732
10.8141
10.8548
10.8957
10.9362
10.9784
11.0203
11.0602
11.0985
11.1319
11.165
11.1962
11.2281
11.2576
11.2865
11.3136
11.3393
11.3633
11.3857
11.4065
11.426
11.4441
11.4609
11.4763
11.49
11.5023
11.5139
11.5261
11.539
11.5513
11.5617
11.5686
11.5708
11.5695
11.5685
1
1
1
1
1
1
1
1
1
1
1
1
1
1
1
1
1
1
1
1
1
1
1
1
1
1
1
1
1
1
1
1
1
1
1
1
1
1
1
1
1
1
1
1
1
1
1
1
1
1
5.08701
10.0393
10.2667
10.3341
10.396
10.4529
10.5072
10.5583
10.6086
10.6582
10.7049
10.7476
10.7866
10.8246
10.8637
10.9023
10.9425
10.9838
11.0232
11.0617
11.0955
11.1277
11.1579
11.1884
11.217
11.2451
11.2719
11.2973
11.3208
11.3422
11.3615
11.3791
11.3955
11.4106
11.4244
11.4364
11.4468
11.4567
11.4675
11.4798
11.492
11.5018
11.5077
11.5091
11.5067
11.5055
1
1
1
1
1
1
1
1
1
1
1
1
1
1
1
1
1
1
1
1
1
1
1
1
1
1
1
1
1
1
1
1
1
1
1
1
1
1
1
1
1
1
1
1
1
1
1
1
1
1
4.23407
9.82648
10.2338
10.3089
10.3756
10.431
10.4819
10.5316
10.5807
10.6299
10.6769
10.7201
10.759
10.7957
10.833
10.8702
10.9073
10.9462
10.984
11.0215
11.0559
11.0869
11.116
11.1451
11.1728
11.2003
11.2267
11.2517
11.2745
11.2947
11.3124
11.3284
11.3431
11.3565
11.3683
11.3781
11.386
11.3937
11.4029
11.4139
11.4253
11.4342
11.4393
11.44
11.4372
11.4362
1
1
1
1
1
1
1
1
1
1
1
1
1
1
1
1
1
1
1
1
1
1
1
1
1
1
1
1
1
1
1
1
1
1
1
1
1
1
1
1
1
1
1
1
1
1
1
1
1
1
3.40033
9.49949
10.2306
10.2958
10.3596
10.4147
10.4669
10.5141
10.5596
10.6055
10.6498
10.6904
10.7273
10.7626
10.7987
10.8354
10.872
10.9092
10.9446
10.98
11.0129
11.0426
11.0709
11.0981
11.1249
11.1515
11.1774
11.2019
11.2239
11.2429
11.2591
11.2734
11.2862
11.2975
11.307
11.3142
11.3197
11.3251
11.3324
11.3416
11.3514
11.3587
11.3622
11.362
11.3588
11.3579
1
1
1
1
1
1
1
1
1
1
1
1
1
1
1
1
1
1
1
1
1
1
1
1
1
1
1
1
1
1
1
1
1
1
1
1
1
1
1
1
1
1
1
1
1
1
1
1
1
1
2.62641
9.02126
10.2465
10.2954
10.3536
10.3974
10.4414
10.4862
10.5335
10.5801
10.6247
10.6652
10.7005
10.7332
10.7663
10.8005
10.8353
10.8703
10.9043
10.936
10.9689
10.9964
11.0228
11.048
11.0738
11.0991
11.124
11.1476
11.1686
11.1865
11.2013
11.2139
11.2246
11.2335
11.2405
11.2447
11.2474
11.25
11.2543
11.2604
11.2673
11.2723
11.2745
11.2741
11.2712
11.2709
1
1
1
1
1
1
1
1
1
1
1
1
1
1
1
1
1
1
1
1
1
1
1
1
1
1
1
1
1
1
1
1
1
1
1
1
1
1
1
1
1
1
1
1
1
1
1
1
1
1
1.8929
8.39725
10.3287
10.2855
10.3372
10.3773
10.4217
10.4656
10.5092
10.5517
10.5941
10.6342
10.6703
10.7033
10.7355
10.7675
10.7997
10.8317
10.863
10.8918
10.9198
10.949
10.9732
10.9954
11.0191
11.0428
11.0663
11.0885
11.1084
11.125
11.1385
11.1493
11.1578
11.1641
11.1676
11.1686
11.1681
11.1675
11.1686
11.171
11.1742
11.1758
11.1757
11.1736
11.1701
11.1694
1
1
1
1
1
1
1
1
1
1
1
1
1
1
1
1
1
1
1
1
1
1
1
1
1
1
1
1
1
1
1
1
1
1
1
1
1
1
1
1
1
1
1
1
1
1
1
1
1
1
1.27182
7.61625
10.3984
10.2986
10.3138
10.3447
10.3866
10.4318
10.4781
10.5217
10.5632
10.6031
10.6395
10.6722
10.7032
10.7333
10.7636
10.7936
10.8224
10.849
10.8735
10.8987
10.9213
10.9411
10.9617
10.983
11.0043
11.0248
11.0432
11.0585
11.0705
11.0795
11.0857
11.0885
11.0885
11.0859
11.0817
11.077
11.073
11.0695
11.0668
11.064
11.0613
11.0583
11.055
11.0549
1
1
1
1
1
1
1
1
1
1
1
1
1
1
1
1
1
1
1
1
1
1
1
1
1
1
1
1
1
1
1
1
1
1
1
1
1
1
1
1
1
1
1
1
1
1
1
1
1
1
1.0108
6.73931
10.245
10.1834
10.2547
10.3073
10.3536
10.3956
10.4383
10.4844
10.5288
10.5692
10.6055
10.6385
10.6691
10.6979
10.7261
10.7541
10.7811
10.8061
10.8283
10.8503
10.8705
10.887
10.9027
10.9209
10.9393
10.9571
10.9733
10.9868
10.9969
11.0038
11.0071
11.0062
11.0024
10.9955
10.9866
10.9767
10.9665
10.9568
10.9481
10.9401
10.9324
10.9245
10.9179
10.915
1
1
1
1
1
1
1
1
1
1
1
1
1
1
1
1
1
1
1
1
1
1
1
1
1
1
1
1
1
1
1
1
1
1
1
1
1
1
1
1
1
1
1
1
1
1
1
1
1
1
1.00003
5.60827
9.99359
10.1388
10.2233
10.2779
10.3253
10.3695
10.4128
10.4515
10.4894
10.5292
10.5671
10.601
10.6318
10.66
10.6868
10.7129
10.7382
10.7617
10.782
10.8012
10.8192
10.8333
10.8448
10.8575
10.8721
10.8866
10.8999
10.9106
10.9181
10.9224
10.9219
10.9174
10.9093
10.8973
10.8827
10.866
10.8478
10.8292
10.8105
10.793
10.7777
10.7653
10.7563
10.7538
1
1
1
1
1
1
1
1
1
1
1
1
1
1
1
1
1
1
1
1
1
1
1
1
1
1
1
1
1
1
1
1
1
1
1
1
1
1
1
1
1
1
1
1
1
1
1
1
1
1
1
4.52496
9.74582
10.0685
10.171
10.2459
10.2943
10.3349
10.3728
10.4129
10.4522
10.4901
10.5251
10.5583
10.59
10.6186
10.6448
10.6695
10.6931
10.7152
10.7341
10.7511
10.7664
10.7783
10.7866
10.7946
10.8043
10.8146
10.8239
10.8309
10.8349
10.8352
10.8303
10.8215
10.8083
10.7905
10.7686
10.7431
10.715
10.686
10.6571
10.63
10.6043
10.5785
10.5562
10.5418
1
1
1
1
1
1
1
1
1
1
1
1
1
1
1
1
1
1
1
1
1
1
1
1
1
1
1
1
1
1
1
1
1
1
1
1
1
1
1
1
1
1
1
1
1
1
1
1
1
1
1
3.45568
9.28687
10.073
10.1754
10.238
10.2802
10.3132
10.3426
10.3773
10.4122
10.4472
10.4814
10.5144
10.5437
10.5721
10.5984
10.6223
10.6446
10.6652
10.6833
10.6986
10.7117
10.7214
10.7269
10.7309
10.7358
10.741
10.7457
10.7482
10.7479
10.7426
10.7329
10.719
10.6998
10.6747
10.644
10.6082
10.5685
10.5261
10.4808
10.4328
10.3837
10.3379
10.3017
10.2889
1
1
1
1
1
1
1
1
1
1
1
1
1
1
1
1
1
1
1
1
1
1
1
1
1
1
1
1
1
1
1
1
1
1
1
1
1
1
1
1
1
1
1
1
1
1
1
1
1
1
1
2.38173
8.59796
10.1547
10.1718
10.2067
10.2396
10.2757
10.3104
10.3441
10.3777
10.4105
10.4404
10.4684
10.4967
10.5243
10.5488
10.5714
10.5925
10.6116
10.6286
10.6431
10.6546
10.6624
10.6657
10.6662
10.6661
10.666
10.6654
10.6631
10.657
10.6459
10.6303
10.61
10.5834
10.5497
10.5087
10.4606
10.4061
10.3458
10.2795
10.2091
10.1359
10.0619
9.98143
9.91227
1
1
1
1
1
1
1
1
1
1
1
1
1
1
1
1
1
1
1
1
1
1
1
1
1
1
1
1
1
1
1
1
1
1
1
1
1
1
1
1
1
1
1
1
1
1
1
1
1
1
1
1.44315
7.85498
10.2934
10.1586
10.1688
10.202
10.2404
10.2742
10.3067
10.3396
10.3721
10.4023
10.4285
10.4524
10.4755
10.4984
10.5187
10.5374
10.5546
10.5702
10.5839
10.5942
10.6006
10.6019
10.5996
10.5947
10.589
10.5826
10.5744
10.5625
10.5454
10.5232
10.4953
10.4601
10.4163
10.3631
10.3007
10.2288
10.1478
10.0551
9.94722
9.81515
9.65745
9.50101
9.38865
1
1
1
1
1
1
1
1
1
1
1
1
1
1
1
1
1
1
1
1
1
1
1
1
1
1
1
1
1
1
1
1
1
1
1
1
1
1
1
1
1
1
1
1
1
1
1
1
1
1
1
1.0244
6.78752
10.1264
10.0777
10.1241
10.162
10.1986
10.2358
10.269
10.3006
10.3314
10.3612
10.3874
10.4102
10.431
10.45
10.467
10.4823
10.4964
10.5093
10.5215
10.5303
10.5355
10.5351
10.5305
10.5216
10.5102
10.4975
10.4832
10.4653
10.4418
10.4123
10.3758
10.3306
10.2753
10.2085
10.1297
10.0376
9.93006
9.79994
9.63945
9.44292
9.20721
8.95177
8.78514
1
1
1
1
1
1
1
1
1
1
1
1
1
1
1
1
1
1
1
1
1
1
1
1
1
1
1
1
1
1
1
1
1
1
1
1
1
1
1
1
1
1
1
1
1
1
1
1
1
1
1
1.00003
5.37715
9.78646
9.99785
10.0756
10.1235
10.1607
10.1948
10.2273
10.2579
10.2876
10.3171
10.3435
10.3655
10.3849
10.4021
10.4164
10.4278
10.438
10.4474
10.457
10.4631
10.4671
10.465
10.4579
10.4458
10.4292
10.4101
10.3891
10.365
10.3348
10.2975
10.2518
10.196
10.1283
10.0466
9.94965
9.83419
9.69614
9.52556
9.31071
9.02156
8.5871
7.74885
5.78459
1
1
1
1
1
1
1
1
1
1
1
1
1
1
1
1
1
1
1
1
1
1
1
1
1
1
1
1
1
1
1
1
1
1
1
1
1
1
1
1
1
1
1
1
1
1
1
1
1
1
1
1
4.07247
9.4649
9.97492
10.0484
10.1034
10.134
10.154
10.1811
10.2105
10.2403
10.2697
10.2965
10.3188
10.3373
10.3535
10.3662
10.3746
10.3807
10.386
10.3914
10.3946
10.3965
10.3923
10.3824
10.367
10.3457
10.3208
10.2932
10.2625
10.2257
10.1802
10.1248
10.0577
9.97704
9.87973
9.76355
9.62328
9.4521
9.23589
8.94898
8.54696
7.90842
6.94671
4.73677
1
1
1
1
1
1
1
1
1
1
1
1
1
1
1
1
1
1
1
1
1
1
1
1
1
1
1
1
1
1
1
1
1
1
1
1
1
1
1
1
1
1
1
1
1
1
1
1
1
1
1
1
2.77101
8.76801
10.0046
10.0372
10.0734
10.1003
10.1241
10.1464
10.1704
10.1966
10.2238
10.2492
10.2706
10.2882
10.3029
10.3141
10.3208
10.3235
10.325
10.3255
10.3248
10.3239
10.317
10.3041
10.2853
10.2596
10.2295
10.1957
10.1582
10.1142
10.0603
9.99493
9.91637
9.823
9.71018
9.57458
9.40903
9.20478
8.94343
8.59935
8.10915
7.45525
6.19419
4.38086
1
1
1
1
1
1
1
1
1
1
1
1
1
1
1
1
1
1
1
1
1
1
1
1
1
1
1
1
1
1
1
1
1
1
1
1
1
1
1
1
1
1
1
1
1
1
1
1
1
1
1
1
1.63848
8.01864
10.1012
10.011
10.0248
10.0592
10.0887
10.1116
10.1329
10.1548
10.1779
10.2006
10.2205
10.2371
10.2506
10.2603
10.2658
10.2663
10.2647
10.2604
10.2558
10.2511
10.2414
10.2249
10.2019
10.1719
10.1366
10.0969
10.0526
10.0013
9.93924
9.86429
9.77439
9.66851
9.5408
9.38699
9.19734
8.96382
8.66374
8.27807
7.73932
6.99852
5.76706
4.28292
1
1
1
1
1
1
1
1
1
1
1
1
1
1
1
1
1
1
1
1
1
1
1
1
1
1
1
1
1
1
1
1
1
1
1
1
1
1
1
1
1
1
1
1
1
1
1
1
1
1
1
1
1.04943
6.78154
10.0426
9.96747
9.98194
10.0152
10.0493
10.073
10.0935
10.1133
10.1334
10.1531
10.1705
10.1856
10.1974
10.2049
10.2088
10.2075
10.2029
10.1949
10.1858
10.1761
10.1634
10.144
10.1171
10.083
10.0425
9.99717
9.94641
9.88774
9.81765
9.73363
9.63285
9.51467
9.37302
9.20329
8.99283
8.7348
8.40642
7.9849
7.42947
6.65222
5.56558
4.37218
1
1
1
1
1
1
1
1
1
1
1
1
1
1
1
1
1
1
1
1
1
1
1
1
1
1
1
1
1
1
1
1
1
1
1
1
1
1
1
1
1
1
1
1
1
1
1
1
1
1
1
1
1.00015
5.19323
9.59215
9.84271
9.92692
9.97509
10.0067
10.03
10.05
10.0687
10.0872
10.105
10.1204
10.1337
10.1441
10.1491
10.1508
10.1476
10.1406
10.1298
10.1165
10.1018
10.0851
10.0633
10.0331
9.99482
9.94912
9.89743
9.83985
9.77394
9.69612
9.60399
9.49372
9.36423
9.20982
9.02612
8.7996
8.52248
8.1761
7.73644
7.17192
6.42582
5.50144
4.51173
1
1
1
1
1
1
1
1
1
1
1
1
1
1
1
1
1
1
1
1
1
1
1
1
1
1
1
1
1
1
1
1
1
1
1
1
1
1
1
1
1
1
1
1
1
1
1
1
1
1
1
1
0.999998
3.66326
9.18176
9.84952
9.90673
9.95453
9.97237
9.98798
10.0047
10.0216
10.0387
10.0549
10.0686
10.08
10.0891
10.0917
10.091
10.086
10.0769
10.0636
10.0468
10.0271
10.0054
9.98011
9.94767
9.90627
9.85615
9.79847
9.73395
9.66102
9.57606
9.47652
9.35794
9.21834
9.05286
8.85671
8.61883
8.3292
7.97308
7.53278
6.97199
6.29362
5.49607
4.64461
1
1
1
1
1
1
1
1
1
1
1
1
1
1
1
1
1
1
1
1
1
1
1
1
1
1
1
1
1
1
1
1
1
1
1
1
1
1
1
1
1
1
1
1
1
1
1
1
1
1
1
1
1
2.20648
8.3898
9.92351
9.89185
9.91219
9.93258
9.95156
9.96563
9.97905
9.99283
10.0064
10.0183
10.0281
10.0353
10.0361
10.0328
10.0252
10.0136
9.99757
9.97737
9.95325
9.92672
9.89747
9.86286
9.81925
9.76519
9.70188
9.62995
9.54955
9.45762
9.35126
9.22571
9.078
8.90389
8.69811
8.45252
8.15627
7.79935
7.36278
6.83161
6.21905
5.51683
4.78014
1
1
1
1
1
1
1
1
1
1
1
1
1
1
1
1
1
1
1
1
1
1
1
1
1
1
1
1
1
1
1
1
1
1
1
1
1
1
1
1
1
1
1
1
1
1
1
1
1
1
1
1
1
1.15477
7.25026
10.0048
9.89488
9.86533
9.88818
9.91094
9.92495
9.93638
9.94684
9.95703
9.96669
9.97448
9.97965
9.97885
9.97341
9.96344
9.94933
9.93087
9.90769
9.8803
9.84935
9.81556
9.77721
9.73103
9.67366
9.60585
9.52782
9.44061
9.34225
9.22972
9.09823
8.94415
8.76341
8.55114
8.30112
8.00332
7.65164
7.22355
6.7351
6.17961
5.54828
4.9133
1
1
1
1
1
1
1
1
1
1
1
1
1
1
1
1
1
1
1
1
1
1
1
1
1
1
1
1
1
1
1
1
1
1
1
1
1
1
1
1
1
1
1
1
1
1
1
1
1
1
1
1
1
1.00216
5.68208
9.58009
9.72658
9.79706
9.83161
9.86086
9.87956
9.89199
9.90051
9.90781
9.91513
9.92116
9.9244
9.92223
9.9151
9.90295
9.8862
9.86507
9.83869
9.80789
9.77282
9.73464
9.69217
9.64305
9.58315
9.51176
9.42892
9.33574
9.23051
9.1119
8.97511
8.81634
8.63132
8.41563
8.16453
7.86932
7.52708
7.11545
6.66236
6.15882
5.59001
5.0392
1
1
1
1
1
1
1
1
1
1
1
1
1
1
1
1
1
1
1
1
1
1
1
1
1
1
1
1
1
1
1
1
1
1
1
1
1
1
1
1
1
1
1
1
1
1
1
1
1
1
1
1
1
0.999975
3.94644
9.16187
9.69612
9.76237
9.80485
9.82388
9.83693
9.84713
9.85312
9.85773
9.86253
9.86656
9.86778
9.86424
9.8556
9.84153
9.82252
9.79901
9.7704
9.73683
9.69838
9.65609
9.609
9.55571
9.4927
9.41822
9.33135
9.23372
9.123
8.99894
8.8577
8.69557
8.50816
8.29134
8.0417
7.7517
7.42313
7.02934
6.60916
6.15067
5.63649
5.1457
1
1
1
1
1
1
1
1
1
1
1
1
1
1
1
1
1
1
1
1
1
1
1
1
1
1
1
1
1
1
1
1
1
1
1
1
1
1
1
1
1
1
1
1
1
1
1
1
1
1
1
1
1
0.999994
2.28327
8.4046
9.77713
9.75229
9.76898
9.78851
9.80134
9.8071
9.80927
9.81041
9.81186
9.81306
9.81192
9.80685
9.79672
9.78087
9.75991
9.73391
9.70324
9.66688
9.62479
9.57802
9.52622
9.46866
9.40266
9.32611
9.23685
9.13514
9.02039
8.89183
8.7459
8.58112
8.39297
8.17721
7.93112
7.64902
7.33242
6.95994
6.57651
6.14856
5.68097
5.23223
1
1
1
1
1
1
1
1
1
1
1
1
1
1
1
1
1
1
1
1
1
1
1
1
1
1
1
1
1
1
1
1
1
1
1
1
1
1
1
1
1
1
1
1
1
1
1
1
1
1
1
1
1
0.999999
1.16261
7.14622
9.84739
9.74262
9.72259
9.74189
9.75514
9.76024
9.76163
9.7609
9.75984
9.75867
9.75559
9.74922
9.73764
9.72015
9.69743
9.6692
9.63624
9.59787
9.55291
9.50223
9.44617
9.38443
9.31511
9.23625
9.14503
9.04017
8.92146
8.78958
8.64081
8.47426
8.28627
8.07327
7.83262
7.55898
7.25048
6.90923
6.5568
6.14506
5.72158
5.30849
1
1
1
1
1
1
1
1
1
1
1
1
1
1
1
1
1
1
1
1
1
1
1
1
1
1
1
1
1
1
1
1
1
1
1
1
1
1
1
1
1
1
1
1
1
1
1
1
1
1
1
1
1
1
1.00227
5.39265
9.3829
9.59486
9.67324
9.69943
9.70804
9.71264
9.71342
9.71106
9.70775
9.70412
9.69889
9.6911
9.6782
9.65936
9.63499
9.60486
9.56964
9.52944
9.48211
9.42761
9.36716
9.30117
9.2285
9.14746
9.05488
8.94846
8.82755
8.69238
8.54159
8.37456
8.18705
7.97749
7.74448
7.47787
7.18299
6.87139
6.53145
6.13867
5.7694
5.38127
1
1
1
1
1
1
1
1
1
1
1
1
1
1
1
1
1
1
1
1
1
1
1
1
1
1
1
1
1
1
1
1
1
1
1
1
1
1
1
1
1
1
1
1
1
1
1
1
1
1
1
1
1
1
0.999975
3.41423
8.91909
9.63788
9.65247
9.65525
9.66683
9.67181
9.67081
9.66595
9.6596
9.65273
9.64469
9.63479
9.6203
9.59996
9.57384
9.54184
9.50423
9.46151
9.41217
9.35511
9.29118
9.22154
9.1457
9.06221
8.96804
8.86058
8.73861
8.60165
8.44938
8.28176
8.09603
7.89
7.66427
7.40762
7.12925
6.83126
6.5028
6.14972
5.81671
5.44007
1
1
1
1
1
1
1
1
1
1
1
1
1
1
1
1
1
1
1
1
1
1
1
1
1
1
1
1
1
1
1
1
1
1
1
1
1
1
1
1
1
1
1
1
1
1
1
1
1
1
1
1
1
1
0.999994
1.73515
8.09677
9.73315
9.61893
9.59612
9.61452
9.62335
9.62301
9.61767
9.60971
9.60029
9.58952
9.5772
9.56119
9.5396
9.51199
9.47833
9.43859
9.39351
9.34238
9.28392
9.2174
9.14433
9.06504
8.97868
8.88275
8.7748
8.65296
8.51596
8.36374
8.19619
8.01221
7.8087
7.59296
7.34549
7.07853
6.79667
6.48483
6.16507
5.84479
5.48465
1
1
1
1
1
1
1
1
1
1
1
1
1
1
1
1
1
1
1
1
1
1
1
1
1
1
1
1
1
1
1
1
1
1
1
1
1
1
1
1
1
1
1
1
1
1
1
1
1
1
1
1
1
1
0.999999
1.05258
6.53583
9.52475
9.50372
9.53594
9.5603
9.57312
9.57489
9.57078
9.56214
9.55055
9.53703
9.52191
9.50406
9.48106
9.45197
9.41669
9.37492
9.32757
9.27433
9.21448
9.14644
9.07097
8.98866
8.89943
8.80153
8.69299
8.57165
8.43573
8.28483
8.11849
7.93653
7.73624
7.52792
7.28633
7.03579
6.77336
6.47119
6.17222
5.86247
5.53877
1
1
1
1
1
1
1
1
1
1
1
1
1
1
1
1
1
1
1
1
1
1
1
1
1
1
1
1
1
1
1
1
1
1
1
1
1
1
1
1
1
1
1
1
1
1
1
1
1
1
1
1
1
1
1
1.00011
4.41782
9.05053
9.43514
9.50132
9.52835
9.53592
9.53264
9.52686
9.51624
9.50184
9.48509
9.46663
9.44633
9.4218
9.39126
9.35452
9.31105
9.26183
9.20677
9.1456
9.07665
8.99973
8.91495
8.82293
8.72283
8.61353
8.49287
8.35883
8.21047
8.04653
7.86768
7.67199
7.46587
7.23209
7.00285
6.74795
6.45499
6.18131
5.89027
5.59525
1
1
1
1
1
1
1
1
1
1
1
1
1
1
1
1
1
1
1
1
1
1
1
1
1
1
1
1
1
1
1
1
1
1
1
1
1
1
1
1
1
1
1
1
1
1
1
1
1
1
1
1
1
1
1
0.999999
2.3721
8.38869
9.54099
9.49995
9.48933
9.49417
9.49151
9.48433
9.47172
9.45467
9.43486
9.41314
9.39007
9.36383
9.33192
9.29398
9.24921
9.19853
9.14181
9.07915
9.00921
8.93135
8.84496
8.75093
8.64895
8.53879
8.41851
8.28632
8.14103
7.98025
7.80558
7.61382
7.40977
7.18928
6.9696
6.71504
6.44903
6.1996
5.91957
5.6367
1
1
1
1
1
1
1
1
1
1
1
1
1
1
1
1
1
1
1
1
1
1
1
1
1
1
1
1
1
1
1
1
1
1
1
1
1
1
1
1
1
1
1
1
1
1
1
1
1
1
1
1
1
1
1
1
1.16573
6.97446
9.57254
9.46217
9.43516
9.4414
9.44396
9.43862
9.4262
9.40772
9.38538
9.36051
9.33434
9.30596
9.27256
9.23352
9.18778
9.13591
9.07768
9.01356
8.94258
8.86402
8.77676
8.6815
8.57825
8.46727
8.34714
8.21649
8.07445
7.91739
7.7475
7.56013
7.36184
7.15171
6.93258
6.68938
6.45383
6.20982
5.93766
5.66997
1
1
1
1
1
1
1
1
1
1
1
1
1
1
1
1
1
1
1
1
1
1
1
1
1
1
1
1
1
1
1
1
1
1
1
1
1
1
1
1
1
1
1
1
1
1
1
1
1
1
1
1
1
1
1
1
1.00212
4.94237
9.05741
9.31031
9.37628
9.40123
9.40287
9.39484
9.38128
9.36135
9.33701
9.30947
9.2803
9.2496
9.21468
9.17476
9.12836
9.07563
9.01618
8.95075
8.87872
8.79957
8.71199
8.61622
8.51247
8.40088
8.28084
8.15117
8.01204
7.85823
7.69361
7.51227
7.31888
7.11532
6.90392
6.67822
6.45311
6.20596
5.95589
5.70848
1
1
1
1
1
1
1
1
1
1
1
1
1
1
1
1
1
1
1
1
1
1
1
1
1
1
1
1
1
1
1
1
1
1
1
1
1
1
1
1
1
1
1
1
1
1
1
1
1
1
1
1
1
1
1
1
0.99998
2.6704
8.44081
9.4129
9.37705
9.36274
9.36394
9.35611
9.34003
9.31764
9.29087
9.26047
9.22811
9.19441
9.15756
9.11669
9.06982
9.01646
8.95614
8.88953
8.81642
8.73663
8.64898
8.55323
8.44967
8.33797
8.21811
8.0891
7.95236
7.80114
7.64286
7.46686
7.27826
7.08689
6.88366
6.66442
6.44161
6.20838
5.98346
5.74547
1
1
1
1
1
1
1
1
1
1
1
1
1
1
1
1
1
1
1
1
1
1
1
1
1
1
1
1
1
1
1
1
1
1
1
1
1
1
1
1
1
1
1
1
1
1
1
1
1
1
1
1
1
1
1
1
0.999995
1.22363
7.10896
9.46898
9.34819
9.31684
9.31181
9.30791
9.29224
9.27038
9.24358
9.2121
9.17778
9.14149
9.10276
9.06075
9.01333
8.95941
8.89851
8.83108
8.75715
8.67686
8.58928
8.49393
8.39095
8.27975
8.16044
8.03205
7.89661
7.74795
7.59492
7.42318
7.24409
7.06325
6.85964
6.6475
6.43813
6.22336
6.00668
5.77068
1
1
1
1
1
1
1
1
1
1
1
1
1
1
1
1
1
1
1
1
1
1
1
1
1
1
1
1
1
1
1
1
1
1
1
1
1
1
1
1
1
1
1
1
1
1
1
1
1
1
1
1
1
1
1
1
0.999999
1.00413
5.03042
8.96868
9.18457
9.24736
9.27335
9.26336
9.24441
9.22232
9.19567
9.164
9.1283
9.08973
9.04893
9.00543
8.9573
8.90307
8.84207
8.77431
8.69989
8.6191
8.53159
8.43671
8.33463
8.22467
8.10631
7.97853
7.84374
7.69808
7.54797
7.38247
7.21482
7.0353
6.8346
6.63995
6.44464
6.23441
6.01773
5.7894
1
1
1
1
1
1
1
1
1
1
1
1
1
1
1
1
1
1
1
1
1
1
1
1
1
1
1
1
1
1
1
1
1
1
1
1
1
1
1
1
1
1
1
1
1
1
1
1
1
1
1
1
1
1
1
1
1
0.999967
2.62552
8.33847
9.28813
9.2559
9.24584
9.22398
9.20379
9.18026
9.15252
9.11963
9.08238
9.04158
8.99833
8.95276
8.90335
8.84861
8.78749
8.71969
8.6451
8.56422
8.47655
8.38256
8.28084
8.17279
8.05575
7.92881
7.79511
7.65218
7.50412
7.34627
7.18438
7.00525
6.81786
6.63817
6.44556
6.23311
6.0264
5.8173
1
1
1
1
1
1
1
1
1
1
1
1
1
1
1
1
1
1
1
1
1
1
1
1
1
1
1
1
1
1
1
1
1
1
1
1
1
1
1
1
1
1
1
1
1
1
1
1
1
1
1
1
1
1
1
1
1
0.999992
1.20755
6.92423
9.32125
9.22808
9.18436
9.16848
9.1516
9.12962
9.10372
9.07218
9.03543
8.99371
8.94851
8.90081
8.84967
8.79442
8.73339
8.6661
8.59187
8.51112
8.42357
8.32999
8.22901
8.12282
8.00665
7.88142
7.74983
7.60983
7.46431
7.31192
7.15226
6.98036
6.80737
6.63131
6.43648
6.23344
6.04486
5.84961
1
1
1
1
1
1
1
1
1
1
1
1
1
1
1
1
1
1
1
1
1
1
1
1
1
1
1
1
1
1
1
1
1
1
1
1
1
1
1
1
1
1
1
1
1
1
1
1
1
1
1
1
1
1
1
1
1
0.999999
1.00337
4.65975
8.82824
9.08566
9.12607
9.12918
9.11302
9.08937
9.06214
9.03045
8.9927
8.94945
8.90182
8.8517
8.79846
8.74224
8.6811
8.61436
8.54055
8.46013
8.37311
8.27963
8.17925
8.07369
7.95909
7.83658
7.70781
7.57123
7.42798
7.27835
7.12303
6.96074
6.79281
6.61612
6.42829
6.24376
6.06468
5.87136
1
1
1
1
1
1
1
1
1
1
1
1
1
1
1
1
1
1
1
1
1
1
1
1
1
1
1
1
1
1
1
1
1
1
1
1
1
1
1
1
1
1
1
1
1
1
1
1
1
1
1
1
1
1
1
1
1
1
0.999978
2.20058
8.17627
9.19021
9.1269
9.09436
9.06546
9.04122
9.01671
8.9876
8.95046
8.90655
8.85748
8.80528
8.7499
8.69216
8.63027
8.56372
8.49044
8.4106
8.32432
8.23123
8.13199
8.02592
7.91373
7.79407
7.66853
7.53526
7.39415
7.24786
7.09861
6.94137
6.77412
6.60306
6.42907
6.25606
6.07702
5.88515
1
1
1
1
1
1
1
1
1
1
1
1
1
1
1
1
1
1
1
1
1
1
1
1
1
1
1
1
1
1
1
1
1
1
1
1
1
1
1
1
1
1
1
1
1
1
1
1
1
1
1
1
1
1
1
1
1
1
0.999995
1.11493
6.49534
9.06464
9.04743
9.03768
9.01451
8.99439
8.97066
8.94203
8.90553
8.86161
8.81244
8.75932
8.70256
8.64376
8.58105
8.51465
8.44191
8.36288
8.27738
8.18516
8.08665
7.98125
7.87027
7.75298
7.63074
7.50034
7.36215
7.22079
7.07588
6.91957
6.75663
6.59563
6.43126
6.26065
6.07932
5.89804
1
1
1
1
1
1
1
1
1
1
1
1
1
1
1
1
1
1
1
1
1
1
1
1
1
1
1
1
1
1
1
1
1
1
1
1
1
1
1
1
1
1
1
1
1
1
1
1
1
1
1
1
1
1
1
1
1
1
0.999999
1.00081
3.84048
8.5555
9.00539
8.99425
8.97487
8.96137
8.94187
8.9093
8.86909
8.82363
8.77333
8.71886
8.66022
8.59941
8.53506
8.4679
8.39497
8.31663
8.23208
8.14105
8.0435
7.93958
7.82975
7.71473
7.59523
7.4675
7.33346
7.19711
7.05414
6.89939
6.74487
6.59161
6.42993
6.26071
6.08359
5.91727
1
1
1
1
1
1
1
1
1
1
1
1
1
1
1
1
1
1
1
1
1
1
1
1
1
1
1
1
1
1
1
1
1
1
1
1
1
1
1
1
1
1
1
1
1
1
1
1
1
1
1
1
1
1
1
1
1
1
1
0.999995
1.53967
7.64379
9.16794
9.00393
8.96299
8.93026
8.90071
8.86348
8.82262
8.7797
8.7313
8.67764
8.61825
8.55577
8.48992
8.42159
8.34874
8.27134
8.18784
8.09823
8.00213
7.89973
7.79121
7.67815
7.56057
7.43576
7.30624
7.17353
7.03184
6.88234
6.73661
6.58503
6.4241
6.26135
6.09476
5.93858
1
1
1
1
1
1
1
1
1
1
1
1
1
1
1
1
1
1
1
1
1
1
1
1
1
1
1
1
1
1
1
1
1
1
1
1
1
1
1
1
1
1
1
1
1
1
1
1
1
1
1
1
1
1
1
1
1
1
1
0.999999
1.025
5.62659
8.75646
8.82199
8.8656
8.88184
8.86091
8.82182
8.78157
8.74021
8.69295
8.63934
8.57928
8.51553
8.44818
8.37815
8.30476
8.22758
8.14514
8.05715
7.96302
7.8626
7.75598
7.6448
7.52899
7.40714
7.28122
7.15104
7.01198
6.86976
6.72909
6.57683
6.42024
6.26695
6.10959
5.95638
1
1
1
1
1
1
1
1
1
1
1
1
1
1
1
1
1
1
1
1
1
1
1
1
1
1
1
1
1
1
1
1
1
1
1
1
1
1
1
1
1
1
1
1
1
1
1
1
1
1
1
1
1
1
1
1
1
1
1
1
0.999943
2.85244
8.15729
8.88334
8.88771
8.87281
8.82567
8.78231
8.74448
8.70302
8.6554
8.60142
8.54139
8.47669
8.40791
8.33612
8.26174
8.18419
8.10268
8.01626
7.92433
7.82625
7.72183
7.61239
7.49852
7.37926
7.25584
7.12841
6.99378
6.85746
6.71842
6.56764
6.41963
6.27488
6.12201
5.96695
1
1
1
1
1
1
1
1
1
1
1
1
1
1
1
1