/*--------------------------------*- C++ -*----------------------------------*\
  =========                 |
  \\      /  F ield         | OpenFOAM: The Open Source CFD Toolbox
   \\    /   O peration     | Website:  https://openfoam.org
    \\  /    A nd           | Version:  7
     \\/     M anipulation  |
\*---------------------------------------------------------------------------*/
FoamFile
{
    version     2.0;
    format      ascii;
    class       volScalarField;
    location    "3";
    object      rho;
}
// * * * * * * * * * * * * * * * * * * * * * * * * * * * * * * * * * * * * * //

dimensions      [1 -3 0 0 0 0 0];

internalField   nonuniform List<scalar> 
64512
(
1.40001
1.40001
1.40001
1.40001
1.40001
1.40001
1.40001
1.40001
1.40001
1.40001
1.40001
1.40001
1.40001
1.40001
1.40001
1.40001
1.40001
1.40001
1.40001
1.40001
1.40001
1.40001
1.40001
1.40001
1.40001
1.40001
1.40001
1.40001
1.40001
1.40001
1.40001
1.40001
1.40001
1.40001
1.40001
1.40001
1.40001
1.40001
1.40001
1.40001
1.40001
1.40001
1.40001
1.40001
1.40001
1.40001
1.40001
1.40001
1.40001
3.61461
5.383
5.43387
5.46466
5.49515
5.51729
5.53131
5.54139
5.55161
5.56405
5.57984
5.59989
5.62316
5.64767
5.67337
5.69883
5.72216
5.74059
5.75217
5.75799
5.76264
5.77105
5.78533
5.80381
5.82354
5.84226
5.85729
5.86784
5.87617
5.88548
5.897
5.90961
5.92158
5.9319
5.94035
5.94761
5.95452
5.96135
5.96787
5.97351
5.97814
5.98182
5.9846
5.98607
5.98626
5.98638
5.98758
1.40001
1.40001
1.40001
1.40001
1.40001
1.40001
1.40001
1.40001
1.40001
1.40001
1.40001
1.40001
1.40001
1.40001
1.40001
1.40001
1.40001
1.40001
1.40001
1.40001
1.40001
1.40001
1.40001
1.40001
1.40001
1.40001
1.40001
1.40001
1.40001
1.40001
1.40001
1.40001
1.40001
1.40001
1.40001
1.40001
1.40001
1.40001
1.40001
1.40001
1.40001
1.40001
1.40001
1.40001
1.40001
1.40001
1.40001
1.40001
1.40001
3.59306
5.3721
5.43488
5.46529
5.49536
5.51729
5.5313
5.54133
5.55151
5.56386
5.57957
5.59963
5.62299
5.64736
5.67292
5.69832
5.72153
5.73984
5.75142
5.75729
5.7621
5.77061
5.78504
5.80358
5.82318
5.84176
5.85668
5.86722
5.87557
5.88481
5.89613
5.90848
5.92031
5.93067
5.9393
5.94674
5.95372
5.96047
5.96685
5.9724
5.97702
5.98073
5.98352
5.98492
5.985
5.98501
5.98613
1.40001
1.40001
1.40001
1.40001
1.40001
1.40001
1.40001
1.40001
1.40001
1.40001
1.40001
1.40001
1.40001
1.40001
1.40001
1.40001
1.40001
1.40001
1.40001
1.40001
1.40001
1.40001
1.40001
1.40001
1.40001
1.40001
1.40001
1.40001
1.40001
1.40001
1.40001
1.40001
1.40001
1.40001
1.40001
1.40001
1.40001
1.40001
1.40001
1.40001
1.40001
1.40001
1.40001
1.40001
1.40001
1.40001
1.40001
1.40001
1.40001
3.55135
5.36148
5.43493
5.46492
5.49432
5.51594
5.53028
5.54062
5.55093
5.56323
5.57876
5.59863
5.62189
5.64615
5.67163
5.69701
5.72026
5.73856
5.7502
5.75609
5.76105
5.76968
5.78423
5.8029
5.82239
5.84086
5.85566
5.86621
5.87457
5.88371
5.89477
5.9068
5.91842
5.92878
5.93759
5.94525
5.95234
5.95903
5.96526
5.97069
5.97529
5.97904
5.98181
5.98309
5.98299
5.98283
5.98384
1.40001
1.40001
1.40001
1.40001
1.40001
1.40001
1.40001
1.40001
1.40001
1.40001
1.40001
1.40001
1.40001
1.40001
1.40001
1.40001
1.40001
1.40001
1.40001
1.40001
1.40001
1.40001
1.40001
1.40001
1.40001
1.40001
1.40001
1.40001
1.40001
1.40001
1.40001
1.40001
1.40001
1.40001
1.40001
1.40001
1.40001
1.40001
1.40001
1.40001
1.40001
1.40001
1.40001
1.40001
1.40001
1.40001
1.40001
1.40001
1.40001
3.49072
5.34827
5.43478
5.46428
5.49309
5.51446
5.52922
5.54013
5.55063
5.56279
5.57788
5.59717
5.61988
5.64389
5.66929
5.69474
5.71815
5.73671
5.74874
5.75482
5.75984
5.76842
5.78289
5.80157
5.82094
5.83938
5.85415
5.86475
5.87303
5.88191
5.89259
5.90427
5.91573
5.92616
5.93517
5.94303
5.95017
5.95676
5.96282
5.96813
5.97272
5.97648
5.97918
5.98026
5.97988
5.97948
5.98033
1.40001
1.40001
1.40001
1.40001
1.40001
1.40001
1.40001
1.40001
1.40001
1.40001
1.40001
1.40001
1.40001
1.40001
1.40001
1.40001
1.40001
1.40001
1.40001
1.40001
1.40001
1.40001
1.40001
1.40001
1.40001
1.40001
1.40001
1.40001
1.40001
1.40001
1.40001
1.40001
1.40001
1.40001
1.40001
1.40001
1.40001
1.40001
1.40001
1.40001
1.40001
1.40001
1.40001
1.40001
1.40001
1.40001
1.40001
1.40001
1.40001
3.41141
5.33167
5.43382
5.46272
5.49132
5.51254
5.52786
5.53956
5.55043
5.56251
5.57707
5.59538
5.61704
5.64065
5.66586
5.69152
5.71534
5.73453
5.74731
5.75376
5.75865
5.76687
5.78092
5.79947
5.81875
5.83724
5.85207
5.86279
5.87093
5.87944
5.88967
5.90105
5.91245
5.92298
5.93214
5.9401
5.94723
5.95373
5.95968
5.96493
5.96952
5.97327
5.97581
5.97659
5.97586
5.97514
5.9758
1.40001
1.40001
1.40001
1.40001
1.40001
1.40001
1.40001
1.40001
1.40001
1.40001
1.40001
1.40001
1.40001
1.40001
1.40001
1.40001
1.40001
1.40001
1.40001
1.40001
1.40001
1.40001
1.40001
1.40001
1.40001
1.40001
1.40001
1.40001
1.40001
1.40001
1.40001
1.40001
1.40001
1.40001
1.40001
1.40001
1.40001
1.40001
1.40001
1.40001
1.40001
1.40001
1.40001
1.40001
1.40001
1.40001
1.40001
1.40001
1.40001
3.31502
5.31085
5.43111
5.4597
5.48853
5.51018
5.52657
5.53936
5.55073
5.56264
5.57649
5.59339
5.6138
5.63683
5.66155
5.68732
5.71172
5.73187
5.74576
5.75283
5.75743
5.76497
5.77824
5.79648
5.8157
5.83426
5.84923
5.86008
5.86806
5.87616
5.88598
5.89715
5.90854
5.91914
5.92833
5.93622
5.94325
5.94967
5.9556
5.9609
5.96559
5.96937
5.97174
5.97223
5.97117
5.97014
5.9706
1.40001
1.40001
1.40001
1.40001
1.40001
1.40001
1.40001
1.40001
1.40001
1.40001
1.40001
1.40001
1.40001
1.40001
1.40001
1.40001
1.40001
1.40001
1.40001
1.40001
1.40001
1.40001
1.40001
1.40001
1.40001
1.40001
1.40001
1.40001
1.40001
1.40001
1.40001
1.40001
1.40001
1.40001
1.40001
1.40001
1.40001
1.40001
1.40001
1.40001
1.40001
1.40001
1.40001
1.40001
1.40001
1.40001
1.40001
1.40001
1.40001
3.20301
5.28593
5.42651
5.45444
5.48421
5.50722
5.5253
5.53955
5.55171
5.56339
5.57611
5.59129
5.61027
5.63267
5.65675
5.68251
5.7074
5.72865
5.74391
5.75184
5.75615
5.76282
5.77501
5.7928
5.8119
5.83048
5.84553
5.85647
5.86429
5.87206
5.88158
5.89267
5.9041
5.91474
5.92386
5.9316
5.93848
5.94485
5.95086
5.95628
5.96107
5.96484
5.96694
5.96705
5.96565
5.96429
5.96458
1.40001
1.40001
1.40001
1.40001
1.40001
1.40001
1.40001
1.40001
1.40001
1.40001
1.40001
1.40001
1.40001
1.40001
1.40001
1.40001
1.40001
1.40001
1.40001
1.40001
1.40001
1.40001
1.40001
1.40001
1.40001
1.40001
1.40001
1.40001
1.40001
1.40001
1.40001
1.40001
1.40001
1.40001
1.40001
1.40001
1.40001
1.40001
1.40001
1.40001
1.40001
1.40001
1.40001
1.40001
1.40001
1.40001
1.40001
1.40001
1.40001
3.07591
5.25737
5.42039
5.44674
5.47808
5.50306
5.52366
5.53999
5.55335
5.56485
5.57623
5.58952
5.60671
5.62822
5.65172
5.67719
5.70241
5.72464
5.74132
5.75026
5.75444
5.76022
5.77123
5.78845
5.80734
5.82582
5.84093
5.85199
5.85973
5.86728
5.87664
5.8877
5.89914
5.90968
5.91855
5.92594
5.93254
5.93884
5.94497
5.9506
5.95555
5.95932
5.96123
5.961
5.95927
5.95766
5.95784
1.40001
1.40001
1.40001
1.40001
1.40001
1.40001
1.40001
1.40001
1.40001
1.40001
1.40001
1.40001
1.40001
1.40001
1.40001
1.40001
1.40001
1.40001
1.40001
1.40001
1.40001
1.40001
1.40001
1.40001
1.40001
1.40001
1.40001
1.40001
1.40001
1.40001
1.40001
1.40001
1.40001
1.40001
1.40001
1.40001
1.40001
1.40001
1.40001
1.40001
1.40001
1.40001
1.40001
1.40001
1.40001
1.40001
1.40001
1.40001
1.40001
2.93333
5.2248
5.41486
5.43846
5.47111
5.49775
5.52112
5.54015
5.5551
5.56692
5.57728
5.58869
5.60381
5.62378
5.64676
5.67163
5.69701
5.72003
5.73808
5.74822
5.75256
5.7576
5.76737
5.78379
5.80228
5.82053
5.83567
5.84687
5.85463
5.86202
5.87121
5.88219
5.89355
5.90389
5.91241
5.91936
5.92559
5.93177
5.93805
5.94396
5.94912
5.95292
5.9547
5.95422
5.95227
5.95055
5.95071
1.40001
1.40001
1.40001
1.40001
1.40001
1.40001
1.40001
1.40001
1.40001
1.40001
1.40001
1.40001
1.40001
1.40001
1.40001
1.40001
1.40001
1.40001
1.40001
1.40001
1.40001
1.40001
1.40001
1.40001
1.40001
1.40001
1.40001
1.40001
1.40001
1.40001
1.40001
1.40001
1.40001
1.40001
1.40001
1.40001
1.40001
1.40001
1.40001
1.40001
1.40001
1.40001
1.40001
1.40001
1.40001
1.40001
1.40001
1.40001
1.40001
2.77475
5.18617
5.41006
5.43118
5.46456
5.49192
5.51723
5.53874
5.55565
5.56833
5.57827
5.58807
5.60098
5.61893
5.64115
5.66525
5.69054
5.71407
5.73332
5.74481
5.74971
5.75429
5.76281
5.77826
5.79634
5.81439
5.82964
5.84114
5.84905
5.85631
5.86524
5.87602
5.88722
5.89733
5.90549
5.91196
5.91776
5.92376
5.9302
5.93643
5.94185
5.9457
5.94733
5.9466
5.94449
5.94271
5.94287
1.40001
1.40001
1.40001
1.40001
1.40001
1.40001
1.40001
1.40001
1.40001
1.40001
1.40001
1.40001
1.40001
1.40001
1.40001
1.40001
1.40001
1.40001
1.40001
1.40001
1.40001
1.40001
1.40001
1.40001
1.40001
1.40001
1.40001
1.40001
1.40001
1.40001
1.40001
1.40001
1.40001
1.40001
1.40001
1.40001
1.40001
1.40001
1.40001
1.40001
1.40001
1.40001
1.40001
1.40001
1.40001
1.40001
1.40001
1.40001
1.40001
2.60244
5.13495
5.4063
5.42665
5.45984
5.48681
5.51281
5.53577
5.55449
5.56843
5.57879
5.58773
5.59882
5.61463
5.63544
5.65878
5.68367
5.70731
5.72736
5.7402
5.74594
5.75034
5.75763
5.77194
5.78957
5.80749
5.82296
5.83486
5.84299
5.85005
5.85853
5.86892
5.87989
5.88982
5.8977
5.90373
5.90907
5.91482
5.92134
5.92788
5.93357
5.93746
5.93898
5.93805
5.93586
5.93411
5.9343
1.40001
1.40001
1.40001
1.40001
1.40001
1.40001
1.40001
1.40001
1.40001
1.40001
1.40001
1.40001
1.40001
1.40001
1.40001
1.40001
1.40001
1.40001
1.40001
1.40001
1.40001
1.40001
1.40001
1.40001
1.40001
1.40001
1.40001
1.40001
1.40001
1.40001
1.40001
1.40001
1.40001
1.40001
1.40001
1.40001
1.40001
1.40001
1.40001
1.40001
1.40001
1.40001
1.40001
1.40001
1.40001
1.40001
1.40001
1.40001
1.40001
2.41817
5.0643
5.40388
5.42433
5.45614
5.48188
5.50762
5.53119
5.55139
5.5671
5.57873
5.5879
5.59783
5.61151
5.63008
5.65221
5.6764
5.69989
5.72037
5.73452
5.74133
5.7458
5.75204
5.76512
5.78217
5.79999
5.81572
5.82806
5.83644
5.84324
5.85112
5.86095
5.8716
5.88136
5.88905
5.89472
5.89962
5.90505
5.91156
5.91831
5.92424
5.92818
5.92961
5.92853
5.92629
5.92457
5.92476
1.40001
1.40001
1.40001
1.40001
1.40001
1.40001
1.40001
1.40001
1.40001
1.40001
1.40001
1.40001
1.40001
1.40001
1.40001
1.40001
1.40001
1.40001
1.40001
1.40001
1.40001
1.40001
1.40001
1.40001
1.40001
1.40001
1.40001
1.40001
1.40001
1.40001
1.40001
1.40001
1.40001
1.40001
1.40001
1.40001
1.40001
1.40001
1.40001
1.40001
1.40001
1.40001
1.40001
1.40001
1.40001
1.40001
1.40001
1.40001
1.40001
2.22686
4.9687
5.40481
5.4263
5.45496
5.47865
5.50312
5.52631
5.54719
5.56443
5.57777
5.58799
5.59762
5.60972
5.62592
5.64612
5.66919
5.69229
5.71281
5.72802
5.73592
5.74063
5.74608
5.75791
5.77421
5.79186
5.8078
5.82051
5.82911
5.83563
5.84286
5.85205
5.86229
5.87186
5.87941
5.88484
5.88937
5.89449
5.90086
5.90769
5.91375
5.91772
5.91912
5.91796
5.91566
5.91395
5.91408
1.40001
1.40001
1.40001
1.40001
1.40001
1.40001
1.40001
1.40001
1.40001
1.40001
1.40001
1.40001
1.40001
1.40001
1.40001
1.40001
1.40001
1.40001
1.40001
1.40001
1.40001
1.40001
1.40001
1.40001
1.40001
1.40001
1.40001
1.40001
1.40001
1.40001
1.40001
1.40001
1.40001
1.40001
1.40001
1.40001
1.40001
1.40001
1.40001
1.40001
1.40001
1.40001
1.40001
1.40001
1.40001
1.40001
1.40001
1.40001
1.40001
2.03443
4.84476
5.41134
5.42976
5.45514
5.47637
5.49887
5.52095
5.5419
5.56031
5.57555
5.58749
5.59762
5.60875
5.62283
5.6407
5.66207
5.68448
5.70473
5.72077
5.72983
5.73507
5.74018
5.75082
5.76614
5.78339
5.79928
5.81213
5.82087
5.82718
5.83383
5.84237
5.85213
5.86143
5.86882
5.87408
5.87833
5.88313
5.88925
5.89595
5.902
5.90598
5.90742
5.90628
5.9039
5.90209
5.90202
1.40001
1.40001
1.40001
1.40001
1.40001
1.40001
1.40001
1.40001
1.40001
1.40001
1.40001
1.40001
1.40001
1.40001
1.40001
1.40001
1.40001
1.40001
1.40001
1.40001
1.40001
1.40001
1.40001
1.40001
1.40001
1.40001
1.40001
1.40001
1.40001
1.40001
1.40001
1.40001
1.40001
1.40001
1.40001
1.40001
1.40001
1.40001
1.40001
1.40001
1.40001
1.40001
1.40001
1.40001
1.40001
1.40001
1.40001
1.40001
1.40001
1.84659
4.69646
5.42431
5.43516
5.45557
5.47454
5.49506
5.51538
5.53553
5.55457
5.57158
5.58562
5.59691
5.60766
5.62012
5.63575
5.65498
5.67631
5.69611
5.71278
5.72309
5.72915
5.73441
5.74395
5.75805
5.77447
5.78997
5.80269
5.81154
5.81779
5.82406
5.83201
5.84121
5.85007
5.85719
5.86226
5.86627
5.87075
5.87652
5.88294
5.88886
5.89288
5.89445
5.89343
5.89097
5.88894
5.88857
1.40001
1.40001
1.40001
1.40001
1.40001
1.40001
1.40001
1.40001
1.40001
1.40001
1.40001
1.40001
1.40001
1.40001
1.40001
1.40001
1.40001
1.40001
1.40001
1.40001
1.40001
1.40001
1.40001
1.40001
1.40001
1.40001
1.40001
1.40001
1.40001
1.40001
1.40001
1.40001
1.40001
1.40001
1.40001
1.40001
1.40001
1.40001
1.40001
1.40001
1.40001
1.40001
1.40001
1.40001
1.40001
1.40001
1.40001
1.40001
1.40001
1.67657
4.52668
5.43561
5.43354
5.45033
5.46743
5.48691
5.50692
5.52737
5.54743
5.56596
5.58181
5.59456
5.60566
5.61732
5.63118
5.64813
5.66792
5.6871
5.7041
5.71568
5.72277
5.72859
5.73719
5.74991
5.76509
5.77987
5.79225
5.80118
5.80755
5.81361
5.82101
5.82952
5.83777
5.84447
5.8493
5.85311
5.85728
5.86262
5.86865
5.87438
5.87841
5.88014
5.87924
5.87665
5.87424
5.87349
1.40001
1.40001
1.40001
1.40001
1.40001
1.40001
1.40001
1.40001
1.40001
1.40001
1.40001
1.40001
1.40001
1.40001
1.40001
1.40001
1.40001
1.40001
1.40001
1.40001
1.40001
1.40001
1.40001
1.40001
1.40001
1.40001
1.40001
1.40001
1.40001
1.40001
1.40001
1.40001
1.40001
1.40001
1.40001
1.40001
1.40001
1.40001
1.40001
1.40001
1.40001
1.40001
1.40001
1.40001
1.40001
1.40001
1.40001
1.40001
1.40001
1.51912
4.31466
5.4357
5.43093
5.44393
5.45976
5.4782
5.49762
5.51759
5.53776
5.55714
5.57455
5.58905
5.60122
5.61299
5.62587
5.64098
5.65908
5.6775
5.69449
5.70726
5.71551
5.72222
5.73014
5.74149
5.75512
5.76893
5.78083
5.78983
5.79641
5.80237
5.80925
5.817
5.82449
5.83066
5.83517
5.83871
5.84249
5.84729
5.85285
5.85834
5.86244
5.86434
5.86356
5.86081
5.85796
5.85684
1.40001
1.40001
1.40001
1.40001
1.40001
1.40001
1.40001
1.40001
1.40001
1.40001
1.40001
1.40001
1.40001
1.40001
1.40001
1.40001
1.40001
1.40001
1.40001
1.40001
1.40001
1.40001
1.40001
1.40001
1.40001
1.40001
1.40001
1.40001
1.40001
1.40001
1.40001
1.40001
1.40001
1.40001
1.40001
1.40001
1.40001
1.40001
1.40001
1.40001
1.40001
1.40001
1.40001
1.40001
1.40001
1.40001
1.40001
1.40001
1.40001
1.40765
4.05746
5.39076
5.40542
5.42369
5.44245
5.46223
5.48344
5.50482
5.52585
5.54598
5.56426
5.58003
5.59337
5.60587
5.61869
5.63274
5.64938
5.66699
5.68376
5.69765
5.70712
5.71481
5.72236
5.7325
5.7445
5.75719
5.76853
5.77755
5.78434
5.79025
5.7966
5.80352
5.81019
5.81572
5.81982
5.82299
5.82626
5.83045
5.83551
5.84079
5.84495
5.84694
5.84618
5.84316
5.83978
5.83834
1.40001
1.40001
1.40001
1.40001
1.40001
1.40001
1.40001
1.40001
1.40001
1.40001
1.40001
1.40001
1.40001
1.40001
1.40001
1.40001
1.40001
1.40001
1.40001
1.40001
1.40001
1.40001
1.40001
1.40001
1.40001
1.40001
1.40001
1.40001
1.40001
1.40001
1.40001
1.40001
1.40001
1.40001
1.40001
1.40001
1.40001
1.40001
1.40001
1.40001
1.40001
1.40001
1.40001
1.40001
1.40001
1.40001
1.40001
1.40001
1.40001
1.40006
3.75214
5.33115
5.37848
5.4041
5.42777
5.44924
5.47045
5.4911
5.51164
5.53168
5.5503
5.56688
5.5814
5.59499
5.60836
5.62231
5.63816
5.65515
5.67166
5.68641
5.69713
5.70577
5.71328
5.72248
5.73301
5.74457
5.75531
5.76429
5.77125
5.77709
5.7829
5.78898
5.7948
5.79964
5.80321
5.80582
5.80842
5.81186
5.81636
5.8214
5.82559
5.8276
5.82678
5.8235
5.81967
5.81805
1.40001
1.40001
1.40001
1.40001
1.40001
1.40001
1.40001
1.40001
1.40001
1.40001
1.40001
1.40001
1.40001
1.40001
1.40001
1.40001
1.40001
1.40001
1.40001
1.40001
1.40001
1.40001
1.40001
1.40001
1.40001
1.40001
1.40001
1.40001
1.40001
1.40001
1.40001
1.40001
1.40001
1.40001
1.40001
1.40001
1.40001
1.40001
1.40001
1.40001
1.40001
1.40001
1.40001
1.40001
1.40001
1.40001
1.40001
1.40001
1.40001
1.4
3.40651
5.27157
5.35779
5.38578
5.41147
5.43512
5.45765
5.47889
5.49942
5.51917
5.53742
5.55381
5.56845
5.58218
5.59604
5.60994
5.62522
5.64175
5.65794
5.67318
5.68503
5.69451
5.70233
5.71093
5.72036
5.73091
5.74112
5.75
5.75703
5.76272
5.76795
5.77319
5.77815
5.78227
5.78519
5.78711
5.78889
5.79152
5.79543
5.80016
5.80426
5.80613
5.80507
5.80143
5.79719
5.79547
1.40001
1.40001
1.40001
1.40001
1.40001
1.40001
1.40001
1.40001
1.40001
1.40001
1.40001
1.40001
1.40001
1.40001
1.40001
1.40001
1.40001
1.40001
1.40001
1.40001
1.40001
1.40001
1.40001
1.40001
1.40001
1.40001
1.40001
1.40001
1.40001
1.40001
1.40001
1.40001
1.40001
1.40001
1.40001
1.40001
1.40001
1.40001
1.40001
1.40001
1.40001
1.40001
1.40001
1.40001
1.40001
1.40001
1.40001
1.40001
1.40001
1.40001
3.0401
5.21152
5.34855
5.37716
5.40368
5.42617
5.44668
5.46661
5.48599
5.50518
5.52335
5.53996
5.55485
5.56876
5.58277
5.59685
5.61133
5.62698
5.64258
5.65771
5.67062
5.68079
5.68922
5.69758
5.70638
5.7161
5.72579
5.73449
5.74146
5.74692
5.7516
5.75606
5.76021
5.76355
5.76569
5.76673
5.76752
5.76916
5.77228
5.77646
5.78027
5.78191
5.78061
5.77673
5.7723
5.77065
1.40001
1.40001
1.40001
1.40001
1.40001
1.40001
1.40001
1.40001
1.40001
1.40001
1.40001
1.40001
1.40001
1.40001
1.40001
1.40001
1.40001
1.40001
1.40001
1.40001
1.40001
1.40001
1.40001
1.40001
1.40001
1.40001
1.40001
1.40001
1.40001
1.40001
1.40001
1.40001
1.40001
1.40001
1.40001
1.40001
1.40001
1.40001
1.40001
1.40001
1.40001
1.40001
1.40001
1.40001
1.40001
1.40001
1.40001
1.40001
1.40001
1.40001
2.66025
5.11782
5.36354
5.38287
5.40545
5.42599
5.4452
5.46198
5.47799
5.49451
5.51091
5.52625
5.5404
5.554
5.56792
5.58216
5.59662
5.61163
5.62625
5.64081
5.65381
5.66457
5.67375
5.68209
5.69065
5.69977
5.709
5.71745
5.72429
5.72953
5.73371
5.73744
5.74075
5.7432
5.74438
5.7444
5.74415
5.74479
5.74701
5.75042
5.75363
5.75478
5.75304
5.74881
5.74418
5.74254
1.40001
1.40001
1.40001
1.40001
1.40001
1.40001
1.40001
1.40001
1.40001
1.40001
1.40001
1.40001
1.40001
1.40001
1.40001
1.40001
1.40001
1.40001
1.40001
1.40001
1.40001
1.40001
1.40001
1.40001
1.40001
1.40001
1.40001
1.40001
1.40001
1.40001
1.40001
1.40001
1.40001
1.40001
1.40001
1.40001
1.40001
1.40001
1.40001
1.40001
1.40001
1.40001
1.40001
1.40001
1.40001
1.40001
1.40001
1.40001
1.40001
1.40001
2.28662
4.97256
5.3945
5.40274
5.42017
5.43345
5.44653
5.45929
5.47309
5.48749
5.50232
5.51668
5.52978
5.54219
5.55485
5.56793
5.58141
5.59528
5.60915
5.62231
5.63569
5.64644
5.65596
5.66445
5.67304
5.68175
5.69054
5.69867
5.70535
5.71038
5.71416
5.71722
5.71963
5.72102
5.72119
5.72008
5.71866
5.71806
5.71903
5.72111
5.72324
5.72371
5.72162
5.71728
5.71271
5.71127
1.40001
1.40001
1.40001
1.40001
1.40001
1.40001
1.40001
1.40001
1.40001
1.40001
1.40001
1.40001
1.40001
1.40001
1.40001
1.40001
1.40001
1.40001
1.40001
1.40001
1.40001
1.40001
1.40001
1.40001
1.40001
1.40001
1.40001
1.40001
1.40001
1.40001
1.40001
1.40001
1.40001
1.40001
1.40001
1.40001
1.40001
1.40001
1.40001
1.40001
1.40001
1.40001
1.40001
1.40001
1.40001
1.40001
1.40001
1.40001
1.40001
1.40001
1.91906
4.78417
5.44672
5.42206
5.43606
5.44487
5.45518
5.46508
5.47503
5.48523
5.49677
5.50918
5.52141
5.53313
5.54464
5.55604
5.56762
5.57957
5.59178
5.6036
5.61526
5.62709
5.63659
5.6448
5.65324
5.6617
5.67009
5.67788
5.68438
5.68924
5.69269
5.69511
5.69659
5.6969
5.69579
5.6934
5.69062
5.68869
5.68828
5.68882
5.68954
5.68892
5.68607
5.68113
5.6763
5.67469
1.40001
1.40001
1.40001
1.40001
1.40001
1.40001
1.40001
1.40001
1.40001
1.40001
1.40001
1.40001
1.40001
1.40001
1.40001
1.40001
1.40001
1.40001
1.40001
1.40001
1.40001
1.40001
1.40001
1.40001
1.40001
1.40001
1.40001
1.40001
1.40001
1.40001
1.40001
1.40001
1.40001
1.40001
1.40001
1.40001
1.40001
1.40001
1.40001
1.40001
1.40001
1.40001
1.40001
1.40001
1.40001
1.40001
1.40001
1.40001
1.40001
1.40001
1.57556
4.49961
5.48068
5.43686
5.43887
5.44565
5.45627
5.46726
5.47761
5.48667
5.49601
5.50657
5.51741
5.52763
5.53723
5.5464
5.5557
5.56549
5.57569
5.58595
5.596
5.60642
5.61572
5.62364
5.63157
5.63961
5.64755
5.65499
5.66128
5.66599
5.66914
5.67096
5.67156
5.6706
5.66817
5.66435
5.66008
5.65647
5.65398
5.65208
5.65057
5.64841
5.64474
5.63951
5.63471
5.63328
1.40001
1.40001
1.40001
1.40001
1.40001
1.40001
1.40001
1.40001
1.40001
1.40001
1.40001
1.40001
1.40001
1.40001
1.40001
1.40001
1.40001
1.40001
1.40001
1.40001
1.40001
1.40001
1.40001
1.40001
1.40001
1.40001
1.40001
1.40001
1.40001
1.40001
1.40001
1.40001
1.40001
1.40001
1.40001
1.40001
1.40001
1.40001
1.40001
1.40001
1.40001
1.40001
1.40001
1.40001
1.40001
1.40001
1.40001
1.40001
1.40001
1.40001
1.40841
4.11117
5.40121
5.38291
5.4118
5.43232
5.44874
5.46181
5.47316
5.48456
5.49535
5.50563
5.51548
5.52459
5.53267
5.53961
5.54619
5.55329
5.56122
5.56968
5.57807
5.58691
5.59523
5.60213
5.60863
5.61594
5.62321
5.63007
5.63601
5.64046
5.64324
5.64448
5.64407
5.64184
5.63799
5.63254
5.62649
5.62074
5.61567
5.61133
5.60741
5.60322
5.5979
5.59103
5.58499
5.58248
1.40001
1.40001
1.40001
1.40001
1.40001
1.40001
1.40001
1.40001
1.40001
1.40001
1.40001
1.40001
1.40001
1.40001
1.40001
1.40001
1.40001
1.40001
1.40001
1.40001
1.40001
1.40001
1.40001
1.40001
1.40001
1.40001
1.40001
1.40001
1.40001
1.40001
1.40001
1.40001
1.40001
1.40001
1.40001
1.40001
1.40001
1.40001
1.40001
1.40001
1.40001
1.40001
1.40001
1.40001
1.40001
1.40001
1.40001
1.40001
1.40001
1.40001
1.40003
3.61816
5.26479
5.34351
5.38519
5.41136
5.43236
5.45014
5.46592
5.47851
5.48969
5.5012
5.51212
5.52145
5.52889
5.53445
5.53894
5.54352
5.54893
5.55516
5.5615
5.5683
5.57516
5.58089
5.58583
5.59129
5.5975
5.60356
5.60886
5.61281
5.61501
5.61554
5.61404
5.6106
5.60521
5.59793
5.58975
5.58124
5.57284
5.56505
5.5574
5.54954
5.54133
5.53298
5.5261
5.52367
1.40001
1.40001
1.40001
1.40001
1.40001
1.40001
1.40001
1.40001
1.40001
1.40001
1.40001
1.40001
1.40001
1.40001
1.40001
1.40001
1.40001
1.40001
1.40001
1.40001
1.40001
1.40001
1.40001
1.40001
1.40001
1.40001
1.40001
1.40001
1.40001
1.40001
1.40001
1.40001
1.40001
1.40001
1.40001
1.40001
1.40001
1.40001
1.40001
1.40001
1.40001
1.40001
1.40001
1.40001
1.40001
1.40001
1.40001
1.40001
1.40001
1.40001
1.4
3.1553
5.15412
5.30006
5.35155
5.38798
5.41192
5.43092
5.44759
5.46378
5.4785
5.49201
5.50386
5.51424
5.52281
5.52868
5.53246
5.53542
5.53871
5.54272
5.54689
5.55128
5.55588
5.55989
5.56318
5.56677
5.57123
5.57598
5.58026
5.58327
5.5846
5.58407
5.58133
5.57655
5.56949
5.56017
5.54921
5.53713
5.52481
5.51296
5.50146
5.48998
5.47772
5.46443
5.45267
5.4458
1.40001
1.40001
1.40001
1.40001
1.40001
1.40001
1.40001
1.40001
1.40001
1.40001
1.40001
1.40001
1.40001
1.40001
1.40001
1.40001
1.40001
1.40001
1.40001
1.40001
1.40001
1.40001
1.40001
1.40001
1.40001
1.40001
1.40001
1.40001
1.40001
1.40001
1.40001
1.40001
1.40001
1.40001
1.40001
1.40001
1.40001
1.40001
1.40001
1.40001
1.40001
1.40001
1.40001
1.40001
1.40001
1.40001
1.40001
1.40001
1.40001
1.40001
1.40001
2.68031
5.01215
5.30399
5.35241
5.38108
5.40068
5.41657
5.43059
5.44592
5.46088
5.47541
5.4891
5.50158
5.51133
5.5189
5.52387
5.52691
5.52926
5.5316
5.53384
5.53589
5.53791
5.53962
5.54083
5.54236
5.54484
5.54766
5.55036
5.55204
5.55222
5.55022
5.54609
5.53977
5.53076
5.51897
5.50473
5.48866
5.47169
5.45453
5.43674
5.41751
5.39651
5.37563
5.35862
5.35234
1.40001
1.40001
1.40001
1.40001
1.40001
1.40001
1.40001
1.40001
1.40001
1.40001
1.40001
1.40001
1.40001
1.40001
1.40001
1.40001
1.40001
1.40001
1.40001
1.40001
1.40001
1.40001
1.40001
1.40001
1.40001
1.40001
1.40001
1.40001
1.40001
1.40001
1.40001
1.40001
1.40001
1.40001
1.40001
1.40001
1.40001
1.40001
1.40001
1.40001
1.40001
1.40001
1.40001
1.40001
1.40001
1.40001
1.40001
1.40001
1.40001
1.40001
1.40001
2.17936
4.84335
5.36734
5.36614
5.37699
5.38855
5.40207
5.41575
5.4296
5.4437
5.45773
5.47084
5.48301
5.49453
5.50434
5.51118
5.51568
5.51859
5.52041
5.52141
5.52173
5.52143
5.52063
5.51938
5.51858
5.5186
5.51896
5.51949
5.51949
5.51798
5.51425
5.5084
5.50016
5.48884
5.47414
5.45615
5.43541
5.41258
5.38835
5.36244
5.33471
5.30466
5.27317
5.23976
5.2127
1.40001
1.40001
1.40001
1.40001
1.40001
1.40001
1.40001
1.40001
1.40001
1.40001
1.40001
1.40001
1.40001
1.40001
1.40001
1.40001
1.40001
1.40001
1.40001
1.40001
1.40001
1.40001
1.40001
1.40001
1.40001
1.40001
1.40001
1.40001
1.40001
1.40001
1.40001
1.40001
1.40001
1.40001
1.40001
1.40001
1.40001
1.40001
1.40001
1.40001
1.40001
1.40001
1.40001
1.40001
1.40001
1.40001
1.40001
1.40001
1.40001
1.40001
1.40001
1.69085
4.63893
5.45991
5.39367
5.38731
5.39089
5.39871
5.40678
5.41625
5.4276
5.44016
5.45273
5.46434
5.47516
5.48518
5.49398
5.50031
5.50471
5.50726
5.50812
5.5077
5.50585
5.50286
5.49905
5.4956
5.4927
5.49015
5.48796
5.48558
5.48197
5.47633
5.46847
5.45793
5.44391
5.42586
5.40357
5.37741
5.34779
5.31532
5.27908
5.23707
5.18485
5.12169
5.05932
5.01561
1.40001
1.40001
1.40001
1.40001
1.40001
1.40001
1.40001
1.40001
1.40001
1.40001
1.40001
1.40001
1.40001
1.40001
1.40001
1.40001
1.40001
1.40001
1.40001
1.40001
1.40001
1.40001
1.40001
1.40001
1.40001
1.40001
1.40001
1.40001
1.40001
1.40001
1.40001
1.40001
1.40001
1.40001
1.40001
1.40001
1.40001
1.40001
1.40001
1.40001
1.40001
1.40001
1.40001
1.40001
1.40001
1.40001
1.40001
1.40001
1.40001
1.40001
1.40001
1.41969
4.16191
5.38807
5.36885
5.38316
5.39136
5.39791
5.40436
5.41021
5.41714
5.42568
5.43566
5.44589
5.45581
5.4654
5.47418
5.48153
5.4872
5.49097
5.49252
5.49233
5.48992
5.48564
5.47969
5.47354
5.46758
5.46188
5.45634
5.45097
5.44485
5.43687
5.4266
5.41334
5.39619
5.37432
5.34724
5.31502
5.27757
5.23464
5.18372
5.12145
5.04478
4.9512
4.84456
4.7667
1.40001
1.40001
1.40001
1.40001
1.40001
1.40001
1.40001
1.40001
1.40001
1.40001
1.40001
1.40001
1.40001
1.40001
1.40001
1.40001
1.40001
1.40001
1.40001
1.40001
1.40001
1.40001
1.40001
1.40001
1.40001
1.40001
1.40001
1.40001
1.40001
1.40001
1.40001
1.40001
1.40001
1.40001
1.40001
1.40001
1.40001
1.40001
1.40001
1.40001
1.40001
1.40001
1.40001
1.40001
1.40001
1.40001
1.40001
1.40001
1.40001
1.40001
1.40001
1.40002
3.53148
5.21686
5.3223
5.35867
5.37944
5.39201
5.40023
5.40602
5.41065
5.41568
5.42218
5.42955
5.43721
5.44526
5.45345
5.46083
5.46661
5.47108
5.47357
5.47427
5.47205
5.46767
5.46055
5.45204
5.4432
5.43426
5.42502
5.41606
5.40686
5.39604
5.38288
5.36652
5.34589
5.31994
5.28771
5.24884
5.20243
5.14748
5.08051
4.99685
4.88417
4.7124
4.36287
3.44988
1.40001
1.40001
1.40001
1.40001
1.40001
1.40001
1.40001
1.40001
1.40001
1.40001
1.40001
1.40001
1.40001
1.40001
1.40001
1.40001
1.40001
1.40001
1.40001
1.40001
1.40001
1.40001
1.40001
1.40001
1.40001
1.40001
1.40001
1.40001
1.40001
1.40001
1.40001
1.40001
1.40001
1.40001
1.40001
1.40001
1.40001
1.40001
1.40001
1.40001
1.40001
1.40001
1.40001
1.40001
1.40001
1.40001
1.40001
1.40001
1.40001
1.40001
1.40001
1.4
2.95961
5.07893
5.29815
5.33926
5.36685
5.38117
5.38884
5.39657
5.40264
5.40748
5.41211
5.41681
5.42162
5.42701
5.43339
5.43991
5.44497
5.44892
5.4515
5.45278
5.45139
5.44782
5.44062
5.43069
5.41937
5.40717
5.39453
5.38167
5.36884
5.35466
5.33803
5.31807
5.29358
5.2633
5.2257
5.17985
5.124
5.05599
4.97075
4.85828
4.70023
4.44358
4.03361
3.01378
1.40001
1.40001
1.40001
1.40001
1.40001
1.40001
1.40001
1.40001
1.40001
1.40001
1.40001
1.40001
1.40001
1.40001
1.40001
1.40001
1.40001
1.40001
1.40001
1.40001
1.40001
1.40001
1.40001
1.40001
1.40001
1.40001
1.40001
1.40001
1.40001
1.40001
1.40001
1.40001
1.40001
1.40001
1.40001
1.40001
1.40001
1.40001
1.40001
1.40001
1.40001
1.40001
1.40001
1.40001
1.40001
1.40001
1.40001
1.40001
1.40001
1.40001
1.40001
1.4
2.37206
4.87382
5.31847
5.33637
5.35364
5.36638
5.37693
5.3856
5.393
5.39909
5.40384
5.40727
5.40969
5.41207
5.41537
5.4195
5.42325
5.42575
5.42762
5.42827
5.42732
5.42484
5.41839
5.40826
5.39538
5.38048
5.36477
5.34819
5.33128
5.31312
5.29246
5.26834
5.23958
5.20488
5.16191
5.10908
5.04368
4.96264
4.85909
4.72287
4.52738
4.26039
3.7219
2.88588
1.40001
1.40001
1.40001
1.40001
1.40001
1.40001
1.40001
1.40001
1.40001
1.40001
1.40001
1.40001
1.40001
1.40001
1.40001
1.40001
1.40001
1.40001
1.40001
1.40001
1.40001
1.40001
1.40001
1.40001
1.40001
1.40001
1.40001
1.40001
1.40001
1.40001
1.40001
1.40001
1.40001
1.40001
1.40001
1.40001
1.40001
1.40001
1.40001
1.40001
1.40001
1.40001
1.40001
1.40001
1.40001
1.40001
1.40001
1.40001
1.40001
1.40001
1.40001
1.40001
1.80688
4.69755
5.38482
5.34007
5.34172
5.35245
5.36353
5.37272
5.38074
5.38769
5.39336
5.39723
5.39907
5.39974
5.4003
5.40124
5.40254
5.40317
5.40339
5.40266
5.40133
5.39902
5.39353
5.38398
5.37056
5.35394
5.33551
5.31558
5.29462
5.27217
5.24712
5.21847
5.185
5.14562
5.09736
5.03801
4.96357
4.87098
4.75148
4.59725
4.37936
4.07281
3.54293
2.86342
1.40001
1.40001
1.40001
1.40001
1.40001
1.40001
1.40001
1.40001
1.40001
1.40001
1.40001
1.40001
1.40001
1.40001
1.40001
1.40001
1.40001
1.40001
1.40001
1.40001
1.40001
1.40001
1.40001
1.40001
1.40001
1.40001
1.40001
1.40001
1.40001
1.40001
1.40001
1.40001
1.40001
1.40001
1.40001
1.40001
1.40001
1.40001
1.40001
1.40001
1.40001
1.40001
1.40001
1.40001
1.40001
1.40001
1.40001
1.40001
1.40001
1.40001
1.40001
1.40001
1.44011
4.17875
5.36258
5.33089
5.3336
5.34208
5.35204
5.35968
5.36698
5.37402
5.38038
5.38523
5.3877
5.38821
5.38736
5.38558
5.38378
5.38172
5.3796
5.37672
5.37378
5.3705
5.36542
5.35675
5.34368
5.32654
5.3062
5.28357
5.25906
5.23238
5.20269
5.16922
5.13065
5.08617
5.03264
4.96751
4.8853
4.78308
4.65173
4.48164
4.25428
3.92902
3.45755
2.90888
1.40001
1.40001
1.40001
1.40001
1.40001
1.40001
1.40001
1.40001
1.40001
1.40001
1.40001
1.40001
1.40001
1.40001
1.40001
1.40001
1.40001
1.40001
1.40001
1.40001
1.40001
1.40001
1.40001
1.40001
1.40001
1.40001
1.40001
1.40001
1.40001
1.40001
1.40001
1.40001
1.40001
1.40001
1.40001
1.40001
1.40001
1.40001
1.40001
1.40001
1.40001
1.40001
1.40001
1.40001
1.40001
1.40001
1.40001
1.40001
1.40001
1.40001
1.40001
1.40001
1.40012
3.47021
5.16914
5.28305
5.31637
5.33245
5.34114
5.34711
5.35287
5.35895
5.36512
5.37054
5.37402
5.37537
5.37462
5.37158
5.36745
5.36247
5.35746
5.35219
5.34671
5.34137
5.33549
5.32732
5.31487
5.29787
5.27654
5.2518
5.22428
5.19378
5.15962
5.12139
5.07775
5.02797
4.96912
4.89863
4.81039
4.70071
4.56171
4.38301
4.14975
3.83456
3.43078
2.97748
1.40001
1.40001
1.40001
1.40001
1.40001
1.40001
1.40001
1.40001
1.40001
1.40001
1.40001
1.40001
1.40001
1.40001
1.40001
1.40001
1.40001
1.40001
1.40001
1.40001
1.40001
1.40001
1.40001
1.40001
1.40001
1.40001
1.40001
1.40001
1.40001
1.40001
1.40001
1.40001
1.40001
1.40001
1.40001
1.40001
1.40001
1.40001