/*--------------------------------*- C++ -*----------------------------------*\
  =========                 |
  \\      /  F ield         | OpenFOAM: The Open Source CFD Toolbox
   \\    /   O peration     | Website:  https://openfoam.org
    \\  /    A nd           | Version:  7
     \\/     M anipulation  |
\*---------------------------------------------------------------------------*/
FoamFile
{
    version     2.0;
    format      ascii;
    class       volScalarField;
    location    "3";
    object      T;
}
// * * * * * * * * * * * * * * * * * * * * * * * * * * * * * * * * * * * * * //

dimensions      [0 0 0 1 0 0 0];

internalField   nonuniform List<scalar> 
64512
(
1
1
1
1
1
1
1
1
1
1
1
1
1
1
1
1
1
1
1
1
1
1
1
1
1
1
1
1
1
1
1
1
1
1
1
1
1
1
1
1
1
1
1
1
1
1
1
1
1
2.15948
2.69742
2.6952
2.69403
2.69569
2.70043
2.70827
2.71751
2.7265
2.73397
2.73912
2.74159
2.74192
2.74176
2.74168
2.74193
2.74299
2.74571
2.75079
2.75783
2.76523
2.77099
2.7738
2.7744
2.77442
2.77482
2.77636
2.77944
2.78346
2.78719
2.78979
2.79135
2.79258
2.7941
2.79624
2.79881
2.80128
2.80311
2.80414
2.8046
2.80496
2.80565
2.80715
2.80951
2.81217
2.81433
2.81541
1
1
1
1
1
1
1
1
1
1
1
1
1
1
1
1
1
1
1
1
1
1
1
1
1
1
1
1
1
1
1
1
1
1
1
1
1
1
1
1
1
1
1
1
1
1
1
1
1
2.15378
2.69635
2.69501
2.69399
2.6957
2.70046
2.70829
2.71752
2.72649
2.73394
2.73907
2.74156
2.74194
2.74177
2.74167
2.7419
2.7429
2.74558
2.75065
2.7577
2.76513
2.7709
2.77373
2.77434
2.77432
2.7747
2.77623
2.77933
2.78335
2.78706
2.78961
2.79112
2.79233
2.79387
2.79605
2.79866
2.80114
2.80294
2.80394
2.80439
2.80474
2.80545
2.80695
2.8093
2.81194
2.81408
2.81514
1
1
1
1
1
1
1
1
1
1
1
1
1
1
1
1
1
1
1
1
1
1
1
1
1
1
1
1
1
1
1
1
1
1
1
1
1
1
1
1
1
1
1
1
1
1
1
1
1
2.14083
2.69567
2.69472
2.69377
2.69548
2.70019
2.70801
2.71723
2.72621
2.73369
2.73889
2.74148
2.74196
2.74179
2.74168
2.74189
2.74281
2.74537
2.75036
2.75739
2.76485
2.77065
2.77354
2.77417
2.77413
2.7745
2.77602
2.77913
2.78315
2.78682
2.78931
2.79077
2.79195
2.79352
2.79576
2.79842
2.8009
2.80267
2.80362
2.80404
2.8044
2.80512
2.80664
2.80897
2.81158
2.81368
2.81472
1
1
1
1
1
1
1
1
1
1
1
1
1
1
1
1
1
1
1
1
1
1
1
1
1
1
1
1
1
1
1
1
1
1
1
1
1
1
1
1
1
1
1
1
1
1
1
1
1
2.12134
2.69458
2.69423
2.69347
2.69518
2.69977
2.70743
2.71657
2.72554
2.73316
2.73858
2.74142
2.74208
2.74192
2.74178
2.74196
2.74276
2.74508
2.74989
2.75683
2.76432
2.77022
2.77322
2.77391
2.77386
2.7742
2.7757
2.77879
2.78278
2.7864
2.78882
2.79023
2.79141
2.79303
2.79534
2.79805
2.80052
2.80224
2.80314
2.80354
2.8039
2.80464
2.80617
2.80848
2.81103
2.81309
2.81409
1
1
1
1
1
1
1
1
1
1
1
1
1
1
1
1
1
1
1
1
1
1
1
1
1
1
1
1
1
1
1
1
1
1
1
1
1
1
1
1
1
1
1
1
1
1
1
1
1
2.09553
2.693
2.69378
2.69314
2.69484
2.69915
2.70642
2.71533
2.72432
2.73217
2.738
2.74129
2.74227
2.74217
2.74201
2.74215
2.74276
2.74475
2.74923
2.756
2.7635
2.76957
2.77275
2.77355
2.77349
2.77381
2.77523
2.77825
2.78219
2.78577
2.78816
2.78956
2.79077
2.79243
2.7948
2.79753
2.79998
2.80166
2.80253
2.80291
2.80328
2.80404
2.80558
2.80785
2.81033
2.81232
2.81327
1
1
1
1
1
1
1
1
1
1
1
1
1
1
1
1
1
1
1
1
1
1
1
1
1
1
1
1
1
1
1
1
1
1
1
1
1
1
1
1
1
1
1
1
1
1
1
1
1
2.06311
2.69003
2.69383
2.69301
2.69466
2.69847
2.70505
2.71352
2.72244
2.73057
2.73698
2.74094
2.74241
2.74245
2.7423
2.74236
2.74277
2.74437
2.74841
2.7549
2.76238
2.76866
2.7721
2.77307
2.77301
2.77328
2.77458
2.77747
2.78133
2.7849
2.78731
2.78876
2.79001
2.79171
2.79408
2.79681
2.79923
2.80089
2.80174
2.80213
2.80253
2.80332
2.80486
2.8071
2.80952
2.81144
2.81235
1
1
1
1
1
1
1
1
1
1
1
1
1
1
1
1
1
1
1
1
1
1
1
1
1
1
1
1
1
1
1
1
1
1
1
1
1
1
1
1
1
1
1
1
1
1
1
1
1
2.02367
2.68468
2.69452
2.69332
2.69481
2.69789
2.70348
2.71119
2.71987
2.72826
2.73529
2.74014
2.74233
2.74265
2.7425
2.74248
2.74271
2.74396
2.74749
2.75361
2.761
2.76751
2.77126
2.77245
2.7724
2.77261
2.77373
2.77643
2.7802
2.78378
2.78628
2.78783
2.78914
2.79086
2.79322
2.79591
2.79831
2.79996
2.80082
2.80124
2.80167
2.80248
2.80401
2.80619
2.80856
2.81042
2.81128
1
1
1
1
1
1
1
1
1
1
1
1
1
1
1
1
1
1
1
1
1
1
1
1
1
1
1
1
1
1
1
1
1
1
1
1
1
1
1
1
1
1
1
1
1
1
1
1
1
1.9764
2.67588
2.69586
2.69412
2.69535
2.69757
2.70193
2.70859
2.71677
2.72523
2.73286
2.73869
2.74186
2.74267
2.74255
2.74244
2.74259
2.74351
2.74649
2.75213
2.75936
2.76608
2.7702
2.77164
2.77162
2.77177
2.77269
2.77517
2.77884
2.78247
2.7851
2.78677
2.78815
2.78987
2.79217
2.79478
2.79715
2.7988
2.7997
2.80016
2.80062
2.80146
2.80297
2.8051
2.80743
2.80924
2.81007
1
1
1
1
1
1
1
1
1
1
1
1
1
1
1
1
1
1
1
1
1
1
1
1
1
1
1
1
1
1
1
1
1
1
1
1
1
1
1
1
1
1
1
1
1
1
1
1
1
1.92019
2.66295
2.69689
2.69497
2.6962
2.69758
2.70067
2.70609
2.71348
2.72178
2.72986
2.73658
2.74091
2.7425
2.74253
2.74241
2.74247
2.74307
2.74548
2.75055
2.75756
2.76446
2.76897
2.77069
2.7707
2.77079
2.77152
2.77376
2.77731
2.78099
2.78376
2.78557
2.78702
2.78871
2.79092
2.79345
2.79577
2.79743
2.79838
2.7989
2.79941
2.80026
2.80176
2.80387
2.80619
2.80797
2.80878
1
1
1
1
1
1
1
1
1
1
1
1
1
1
1
1
1
1
1
1
1
1
1
1
1
1
1
1
1
1
1
1
1
1
1
1
1
1
1
1
1
1
1
1
1
1
1
1
1
1.85361
2.64575
2.69681
2.69518
2.6968
2.69769
2.69978
2.70392
2.71032
2.71821
2.72638
2.73374
2.73917
2.7418
2.74227
2.74216
2.74217
2.74248
2.74431
2.74876
2.75547
2.7625
2.76742
2.76948
2.76957
2.76962
2.77019
2.77222
2.77565
2.77936
2.78226
2.7842
2.7857
2.78737
2.7895
2.79193
2.79419
2.79586
2.79688
2.79748
2.79804
2.79891
2.80039
2.80247
2.80479
2.80654
2.80734
1
1
1
1
1
1
1
1
1
1
1
1
1
1
1
1
1
1
1
1
1
1
1
1
1
1
1
1
1
1
1
1
1
1
1
1
1
1
1
1
1
1
1
1
1
1
1
1
1
1.77708
2.62474
2.69581
2.69488
2.69697
2.69776
2.69928
2.70235
2.70765
2.71483
2.72278
2.73035
2.73656
2.74032
2.74155
2.7416
2.74162
2.74176
2.74309
2.7469
2.75319
2.76025
2.76551
2.76797
2.76822
2.76826
2.76872
2.77057
2.77386
2.77756
2.78055
2.78259
2.78415
2.78581
2.78787
2.79021
2.79242
2.79411
2.79519
2.79587
2.79648
2.79736
2.79882
2.80089
2.80321
2.80497
2.80576
1
1
1
1
1
1
1
1
1
1
1
1
1
1
1
1
1
1
1
1
1
1
1
1
1
1
1
1
1
1
1
1
1
1
1
1
1
1
1
1
1
1
1
1
1
1
1
1
1
1.69195
2.60093
2.69385
2.69369
2.69619
2.69728
2.6987
2.70119
2.70559
2.71188
2.71928
2.72668
2.73323
2.73791
2.74008
2.74057
2.74072
2.74083
2.74182
2.74505
2.75082
2.75774
2.76324
2.76614
2.76664
2.76671
2.76713
2.76882
2.77195
2.77559
2.77864
2.78076
2.78237
2.78403
2.78603
2.78831
2.79048
2.79217
2.79331
2.79406
2.79472
2.79561
2.79706
2.79911
2.80144
2.8032
2.80399
1
1
1
1
1
1
1
1
1
1
1
1
1
1
1
1
1
1
1
1
1
1
1
1
1
1
1
1
1
1
1
1
1
1
1
1
1
1
1
1
1
1
1
1
1
1
1
1
1
1.5939
2.57116
2.6916
2.69197
2.69449
2.69612
2.69787
2.70023
2.70401
2.7094
2.71594
2.72282
2.72932
2.7346
2.73777
2.73901
2.73947
2.73972
2.74055
2.74326
2.74839
2.75497
2.76061
2.76395
2.76479
2.76496
2.76537
2.76692
2.76988
2.77343
2.77649
2.77867
2.78033
2.782
2.78397
2.7862
2.78835
2.79006
2.79124
2.79204
2.79274
2.79363
2.79508
2.79713
2.79944
2.80122
2.802
1
1
1
1
1
1
1
1
1
1
1
1
1
1
1
1
1
1
1
1
1
1
1
1
1
1
1
1
1
1
1
1
1
1
1
1
1
1
1
1
1
1
1
1
1
1
1
1
1
1.48513
2.53368
2.68925
2.68941
2.69192
2.69404
2.69631
2.69889
2.70242
2.70709
2.71274
2.71887
2.72501
2.73057
2.73463
2.73681
2.73782
2.73838
2.73917
2.74147
2.74592
2.75201
2.75767
2.76141
2.76268
2.76303
2.76348
2.7649
2.76765
2.77107
2.77412
2.77637
2.77807
2.77974
2.78169
2.78389
2.78604
2.78777
2.78898
2.7898
2.79051
2.79141
2.79287
2.79492
2.79722
2.79899
2.79976
1
1
1
1
1
1
1
1
1
1
1
1
1
1
1
1
1
1
1
1
1
1
1
1
1
1
1
1
1
1
1
1
1
1
1
1
1
1
1
1
1
1
1
1
1
1
1
1
1
1.36306
2.48466
2.68565
2.68646
2.68922
2.69157
2.69423
2.69715
2.70063
2.7048
2.70965
2.71498
2.72057
2.7261
2.73078
2.7339
2.73565
2.73668
2.73758
2.73959
2.74339
2.74887
2.75445
2.75852
2.76028
2.76088
2.76141
2.76272
2.76526
2.76852
2.77154
2.77384
2.77559
2.77726
2.77918
2.78136
2.7835
2.78525
2.78648
2.7873
2.78801
2.78891
2.79041
2.79248
2.79475
2.7965
2.79723
1
1
1
1
1
1
1
1
1
1
1
1
1
1
1
1
1
1
1
1
1
1
1
1
1
1
1
1
1
1
1
1
1
1
1
1
1
1
1
1
1
1
1
1
1
1
1
1
1
1.23377
2.42387
2.68253
2.68359
2.68706
2.68949
2.69232
2.69545
2.69892
2.70276
2.70695
2.7115
2.71641
2.72162
2.72658
2.73046
2.73295
2.73455
2.7357
2.73755
2.74079
2.74561
2.75096
2.75524
2.75753
2.75847
2.75914
2.76039
2.76272
2.7658
2.76877
2.77111
2.77289
2.77455
2.77642
2.77857
2.78072
2.7825
2.78373
2.78454
2.78525
2.78615
2.78768
2.78977
2.79201
2.79371
2.79438
1
1
1
1
1
1
1
1
1
1
1
1
1
1
1
1
1
1
1
1
1
1
1
1
1
1
1
1
1
1
1
1
1
1
1
1
1
1
1
1
1
1
1
1
1
1
1
1
1
1.10204
2.35695
2.68259
2.68336
2.68657
2.68937
2.69211
2.69485
2.69782
2.70116
2.70482
2.70874
2.71295
2.71758
2.7224
2.72667
2.72978
2.73196
2.73347
2.73526
2.73807
2.74223
2.74723
2.7516
2.75438
2.75573
2.75662
2.75787
2.76002
2.76291
2.7658
2.76814
2.76995
2.77159
2.77342
2.77553
2.77768
2.77946
2.78068
2.78147
2.78217
2.78309
2.78465
2.78675
2.78896
2.7906
2.79121
1
1
1
1
1
1
1
1
1
1
1
1
1
1
1
1
1
1
1
1
1
1
1
1
1
1
1
1
1
1
1
1
1
1
1
1
1
1
1
1
1
1
1
1
1
1
1
1
1
1.00458
2.2888
2.68009
2.68221
2.68547
2.68864
2.69146
2.69428
2.69724
2.70043
2.70376
2.70712
2.7106
2.71446
2.71876
2.72297
2.7264
2.72902
2.73092
2.73275
2.73527
2.73885
2.74338
2.74768
2.75085
2.75262
2.7538
2.75512
2.75714
2.75984
2.76261
2.76493
2.76675
2.76837
2.77015
2.77222
2.77434
2.7761
2.77731
2.77809
2.77879
2.77974
2.7813
2.78338
2.78554
2.7871
2.78766
1
1
1
1
1
1
1
1
1
1
1
1
1
1
1
1
1
1
1
1
1
1
1
1
1
1
1
1
1
1
1
1
1
1
1
1
1
1
1
1
1
1
1
1
1
1
1
1
1
1.00002
2.20431
2.67772
2.68291
2.68627
2.68954
2.69221
2.69477
2.69739
2.70024
2.70326
2.70629
2.70932
2.71254
2.71614
2.71986
2.72322
2.72603
2.72821
2.73012
2.73247
2.73554
2.73952
2.74357
2.74695
2.74911
2.75062
2.75207
2.75403
2.75655
2.75918
2.76145
2.76326
2.76487
2.76661
2.76862
2.77068
2.7724
2.77357
2.77434
2.77504
2.77601
2.77755
2.77959
2.7817
2.78321
2.78375
1
1
1
1
1
1
1
1
1
1
1
1
1
1
1
1
1
1
1
1
1
1
1
1
1
1
1
1
1
1
1
1
1
1
1
1
1
1
1
1
1
1
1
1
1
1
1
1
1
1
2.09066
2.6662
2.68271
2.6863
2.68956
2.69251
2.69531
2.69794
2.70068
2.70358
2.70647
2.70925
2.71194
2.71479
2.71786
2.72076
2.72338
2.72564
2.72758
2.72976
2.7324
2.73577
2.73942
2.74279
2.74524
2.74707
2.74871
2.75066
2.75302
2.75549
2.75767
2.75946
2.76105
2.76275
2.76469
2.76667
2.76833
2.76946
2.77022
2.77093
2.7719
2.77337
2.77531
2.77738
2.77883
2.77936
1
1
1
1
1
1
1
1
1
1
1
1
1
1
1
1
1
1
1
1
1
1
1
1
1
1
1
1
1
1
1
1
1
1
1
1
1
1
1
1
1
1
1
1
1
1
1
1
1
1
1.94984
2.63975
2.67874
2.68404
2.68814
2.6913
2.69424
2.69716
2.70015
2.70325
2.70627
2.70908
2.71162
2.71408
2.71663
2.7191
2.72134
2.72343
2.72529
2.72727
2.72955
2.7323
2.73544
2.73856
2.74114
2.7432
2.74502
2.74698
2.7492
2.7515
2.75357
2.75533
2.75691
2.75856
2.76041
2.76229
2.76384
2.76492
2.76564
2.76632
2.76726
2.76863
2.77047
2.77251
2.77396
2.77452
1
1
1
1
1
1
1
1
1
1
1
1
1
1
1
1
1
1
1
1
1
1
1
1
1
1
1
1
1
1
1
1
1
1
1
1
1
1
1
1
1
1
1
1
1
1
1
1
1
1
1.78949
2.59863
2.67043
2.67779
2.68312
2.68719
2.69112
2.69495
2.69871
2.70229
2.7055
2.70828
2.71069
2.71294
2.71523
2.7175
2.71965
2.72165
2.72338
2.72514
2.72702
2.7292
2.73176
2.73444
2.73693
2.73908
2.74101
2.74296
2.74506
2.74719
2.74915
2.75084
2.75239
2.75397
2.75572
2.75746
2.75891
2.75994
2.76063
2.76125
2.76209
2.7633
2.76499
2.76699
2.76843
2.76901
1
1
1
1
1
1
1
1
1
1
1
1
1
1
1
1
1
1
1
1
1
1
1
1
1
1
1
1
1
1
1
1
1
1
1
1
1
1
1
1
1
1
1
1
1
1
1
1
1
1
1.60804
2.5399
2.65923
2.66782
2.67429
2.67904
2.68392
2.68912
2.69445
2.69926
2.70335
2.70657
2.70909
2.71129
2.71347
2.71568
2.71785
2.71987
2.72165
2.72316
2.72486
2.7265
2.72845
2.73059
2.73281
2.73486
2.73677
2.73866
2.74061
2.74257
2.74439
2.746
2.74747
2.74898
2.7506
2.75217
2.75352
2.75443
2.75504
2.75552
2.75618
2.75718
2.75873
2.76073
2.76222
2.76284
1
1
1
1
1
1
1
1
1
1
1
1
1
1
1
1
1
1
1
1
1
1
1
1
1
1
1
1
1
1
1
1
1
1
1
1
1
1
1
1
1
1
1
1
1
1
1
1
1
1
1.38092
2.45731
2.65484
2.65576
2.66224
2.66824
2.6746
2.68099
2.68727
2.69312
2.69827
2.70239
2.70554
2.70817
2.71069
2.71319
2.71563
2.71786
2.71975
2.72122
2.72255
2.72407
2.72551
2.72705
2.72883
2.73063
2.73238
2.73411
2.73587
2.73764
2.73929
2.74078
2.74217
2.74355
2.74494
2.74635
2.74756
2.74836
2.74883
2.74916
2.7496
2.7503
2.75164
2.75353
2.755
2.75562
1
1
1
1
1
1
1
1
1
1
1
1
1
1
1
1
1
1
1
1
1
1
1
1
1
1
1
1
1
1
1
1
1
1
1
1
1
1
1
1
1
1
1
1
1
1
1
1
1
1
1.13011
2.36972
2.65621
2.6519
2.65484
2.6595
2.66506
2.67128
2.67808
2.68477
2.69076
2.69576
2.69971
2.703
2.70613
2.70927
2.71236
2.71516
2.71742
2.71909
2.72034
2.72155
2.72268
2.72378
2.72507
2.72649
2.72793
2.72941
2.73092
2.73243
2.73387
2.73522
2.73647
2.73761
2.73879
2.73999
2.74102
2.74162
2.74183
2.74187
2.74195
2.74231
2.74342
2.74522
2.74673
2.74741
1
1
1
1
1
1
1
1
1
1
1
1
1
1
1
1
1
1
1
1
1
1
1
1
1
1
1
1
1
1
1
1
1
1
1
1
1
1
1
1
1
1
1
1
1
1
1
1
1
1
1.00477
2.29498
2.65553
2.64853
2.65283
2.65637
2.66025
2.66467
2.67007
2.67628
2.68234
2.68761
2.69203
2.69593
2.69975
2.70365
2.70755
2.71114
2.71408
2.71624
2.71772
2.71895
2.71995
2.72072
2.7215
2.72249
2.72355
2.72465
2.72581
2.727
2.72816
2.72929
2.7303
2.73115
2.73207
2.733
2.73373
2.73405
2.73397
2.73368
2.73341
2.73346
2.73413
2.73552
2.73681
2.73731
1
1
1
1
1
1
1
1
1
1
1
1
1
1
1
1
1
1
1
1
1
1
1
1
1
1
1
1
1
1
1
1
1
1
1
1
1
1
1
1
1
1
1
1
1
1
1
1
1
1
1.00001
2.17005
2.65748
2.65638
2.65779
2.65905
2.66099
2.66366
2.66707
2.67083
2.67505
2.67958
2.6839
2.68797
2.69214
2.69657
2.70116
2.70553
2.70927
2.71215
2.71416
2.71569
2.71687
2.71762
2.7181
2.71861
2.71926
2.71994
2.72067
2.72143
2.72224
2.72306
2.72367
2.72421
2.72479
2.72534
2.72568
2.72563
2.72518
2.7243
2.72334
2.7228
2.72297
2.72393
2.72505
2.72561
1
1
1
1
1
1
1
1
1
1
1
1
1
1
1
1
1
1
1
1
1
1
1
1
1
1
1
1
1
1
1
1
1
1
1
1
1
1
1
1
1
1
1
1
1
1
1
1
1
1
1
2.00773
2.64724
2.65957
2.6608
2.66228
2.66301
2.66416
2.66575
2.66814
2.67102
2.67411
2.67726
2.68064
2.68451
2.68891
2.6937
2.6985
2.70287
2.70648
2.70924
2.71137
2.71299
2.71402
2.71451
2.71478
2.71504
2.7153
2.71557
2.71585
2.71622
2.71655
2.71663
2.71676
2.71689
2.71695
2.7168
2.71627
2.71522
2.71369
2.71201
2.71077
2.71026
2.71026
2.71037
2.71009
1
1
1
1
1
1
1
1
1
1
1
1
1
1
1
1
1
1
1
1
1
1
1
1
1
1
1
1
1
1
1
1
1
1
1
1
1
1
1
1
1
1
1
1
1
1
1
1
1
1
1
1.805
2.59403
2.65879
2.66154
2.66364
2.66491
2.66563
2.66633
2.66773
2.66937
2.67124
2.6733
2.67564
2.67835
2.68187
2.68612
2.69071
2.69521
2.69929
2.70276
2.70564
2.70796
2.70957
2.71038
2.71063
2.71067
2.7106
2.71046
2.71028
2.71011
2.70976
2.70932
2.70889
2.70844
2.70787
2.70707
2.70586
2.7041
2.70173
2.69888
2.69606
2.69381
2.69236
2.69144
2.69126
1
1
1
1
1
1
1
1
1
1
1
1
1
1
1
1
1
1
1
1
1
1
1
1
1
1
1
1
1
1
1
1
1
1
1
1
1
1
1
1
1
1
1
1
1
1
1
1
1
1
1
1.53001
2.4853
2.64874
2.65377
2.65751
2.66036
2.66307
2.6653
2.6672
2.66893
2.67048
2.67174
2.67294
2.67456
2.67681
2.67972
2.68327
2.68719
2.69115
2.69497
2.6985
2.70155
2.70393
2.70537
2.70591
2.70587
2.70567
2.70525
2.70467
2.70387
2.70287
2.70178
2.70065
2.69944
2.69808
2.69644
2.69436
2.69161
2.68806
2.68374
2.6792
2.67505
2.67139
2.66693
2.66219
1
1
1
1
1
1
1
1
1
1
1
1
1
1
1
1
1
1
1
1
1
1
1
1
1
1
1
1
1
1
1
1
1
1
1
1
1
1
1
1
1
1
1
1
1
1
1
1
1
1
1
1.19491
2.37059
2.63939
2.63681
2.64257
2.64943
2.65557
2.66036
2.66409
2.66701
2.66923
2.67081
2.67187
2.6727
2.67371
2.67527
2.67733
2.67997
2.6831
2.68663
2.69032
2.69385
2.69694
2.69914
2.70026
2.70042
2.70022
2.69967
2.69876
2.69749
2.69589
2.69407
2.69212
2.69001
2.68766
2.68497
2.68178
2.67781
2.67283
2.66659
2.65915
2.65027
2.63985
2.6291
2.62065
1
1
1
1
1
1
1
1
1
1
1
1
1
1
1
1
1
1
1
1
1
1
1
1
1
1
1
1
1
1
1
1
1
1
1
1
1
1
1
1
1
1
1
1
1
1
1
1
1
1
1
1.0102
2.28322
2.63117
2.62792
2.63299
2.63883
2.64513
2.65159
2.65732
2.6621
2.66585
2.66861
2.67036
2.67134
2.67198
2.67255
2.67331
2.67447
2.67623
2.67874
2.68195
2.68538
2.6888
2.69162
2.69346
2.6941
2.69401
2.69349
2.69245
2.69088
2.68878
2.68625
2.68339
2.68022
2.67671
2.67276
2.66822
2.66272
2.65579
2.64674
2.63505
2.62056
2.60343
2.58692
2.58024
1
1
1
1
1
1
1
1
1
1
1
1
1
1
1
1
1
1
1
1
1
1
1
1
1
1
1
1
1
1
1
1
1
1
1
1
1
1
1
1
1
1
1
1
1
1
1
1
1
1
1
1.00002
2.1317
2.62631
2.62988
2.63234
2.63464
2.63817
2.643
2.64859
2.65424
2.65944
2.66386
2.66706
2.66898
2.67
2.67042
2.67048
2.67056
2.671
2.67217
2.6743
2.67695
2.68011
2.68308
2.68545
2.68668
2.68683
2.68647
2.68548
2.68381
2.68138
2.67823
2.67447
2.67017
2.66537
2.65999
2.65384
2.64644
2.63714
2.6249
2.60865
2.58595
2.55114
2.48654
2.34746
1
1
1
1
1
1
1
1
1
1
1
1
1
1
1
1
1
1
1
1
1
1
1
1
1
1
1
1
1
1
1
1
1
1
1
1
1
1
1
1
1
1
1
1
1
1
1
1
1
1
1
1
1.92643
2.609
2.63581
2.63478
2.6356
2.63654
2.63798
2.64122
2.64587
2.65122
2.65657
2.66119
2.66458
2.66672
2.66774
2.66782
2.66751
2.66715
2.66723
2.66801
2.66949
2.67174
2.6742
2.67652
2.67815
2.67866
2.67849
2.67769
2.67611
2.67356
2.66996
2.66539
2.65998
2.65383
2.64686
2.63889
2.62932
2.61729
2.60128
2.57882
2.54579
2.49164
2.4111
2.20039
1
1
1
1
1
1
1
1
1
1
1
1
1
1
1
1
1
1
1
1
1
1
1
1
1
1
1
1
1
1
1
1
1
1
1
1
1
1
1
1
1
1
1
1
1
1
1
1
1
1
1
1
1.63547
2.51861
2.63357
2.63329
2.63426
2.63502
2.63604
2.63758
2.64019
2.64403
2.64873
2.65363
2.65799
2.66136
2.66354
2.66442
2.66431
2.66378
2.66324
2.66305
2.66333
2.66432
2.66572
2.66737
2.66885
2.66955
2.66952
2.66895
2.66758
2.66509
2.66124
2.65605
2.64964
2.64219
2.63358
2.62365
2.61172
2.59675
2.57679
2.54911
2.5076
2.44987
2.32996
2.12526
1
1
1
1
1
1
1
1
1
1
1
1
1
1
1
1
1
1
1
1
1
1
1
1
1
1
1
1
1
1
1
1
1
1
1
1
1
1
1
1
1
1
1
1
1
1
1
1
1
1
1
1
1.26952
2.38979
2.62622
2.62457
2.62738
2.63111
2.63338
2.63485
2.63647
2.63875
2.64197
2.64596
2.65023
2.65421
2.65742
2.65947
2.66027
2.66009
2.65956
2.6588
2.65826
2.65819
2.65836
2.65881
2.65945
2.65985
2.65977
2.6593
2.65812
2.6558
2.65193
2.64638
2.63919
2.63058
2.62041
2.60854
2.59416
2.57636
2.55274
2.52093
2.47413
2.4057
2.27888
2.09404
1
1
1
1
1
1
1
1
1
1
1
1
1
1
1
1
1
1
1
1
1
1
1
1
1
1
1
1
1
1
1
1
1
1
1
1
1
1
1
1
1
1
1
1
1
1
1
1
1
1
1
1
1.02021
2.27202
2.62181
2.61767
2.62014
2.62468
2.62874
2.63118
2.63294
2.63465
2.63677
2.63952
2.64283
2.64649
2.64998
2.65281
2.6547
2.65539
2.65523
2.65458
2.65366
2.65276
2.65193
2.65118
2.65061
2.65017
2.64966
2.64898
2.64782
2.64562
2.64186
2.63621
2.62853
2.61898
2.60743
2.59379
2.57712
2.55667
2.53004
2.49438
2.4449
2.37035
2.25358
2.10427
1
1
1
1
1
1
1
1
1
1
1
1
1
1
1
1
1
1
1
1
1
1
1
1
1
1
1
1
1
1
1
1
1
1
1
1
1
1
1
1
1
1
1
1
1
1
1
1
1
1
1
1
1.00007
2.09514
2.59793
2.60831
2.61414
2.6189
2.62294
2.6261
2.62851
2.63042
2.63222
2.6342
2.6365
2.63929
2.64238
2.64519
2.64765
2.64929
2.64993
2.64971
2.64896
2.64775
2.64627
2.64461
2.64283
2.64121
2.63976
2.63842
2.63689
2.63461
2.63093
2.62539
2.61755
2.60741
2.59478
2.57962
2.56102
2.53823
2.50927
2.47114
2.4196
2.34607
2.24498
2.12141
1
1
1
1
1
1
1
1
1
1
1
1
1
1
1
1
1
1
1
1
1
1
1
1
1
1
1
1
1
1
1
1
1
1
1
1
1
1
1
1
1
1
1
1
1
1
1
1
1
1
1
1
1
1.83622
2.5564
2.6088
2.61184
2.61543
2.61797
2.62058
2.62318
2.62549
2.62748
2.62927
2.631
2.63296
2.63532
2.63748
2.63978
2.64185
2.6433
2.64377
2.64344
2.6424
2.64072
2.63852
2.63593
2.63318
2.63055
2.62813
2.62579
2.62309
2.61932
2.61388
2.60609
2.59569
2.58239
2.56605
2.546
2.52141
2.49073
2.45158
2.39919
2.33112
2.2429
2.1378
1
1
1
1
1
1
1
1
1
1
1
1
1
1
1
1
1
1
1
1
1
1
1
1
1
1
1
1
1
1
1
1
1
1
1
1
1
1
1
1
1
1
1
1
1
1
1
1
1
1
1
1
1
1.46441
2.44123
2.60678
2.60673
2.60942
2.61239
2.61532
2.61791
2.62032
2.62252
2.62442
2.62602
2.62753
2.62917
2.6306
2.6322
2.63394
2.63564
2.63673
2.63686
2.63628
2.63485
2.63261
2.62967
2.62616
2.62237
2.61866
2.61509
2.6115
2.60727
2.60172
2.59404
2.58366
2.57014
2.55315
2.53219
2.50642
2.47481
2.435
2.38435
2.32213
2.24479
2.15494
1
1
1
1
1
1
1
1
1
1
1
1
1
1
1
1
1
1
1
1
1
1
1
1
1
1
1
1
1
1
1
1
1
1
1
1
1
1
1
1
1
1
1
1
1
1
1
1
1
1
1
1
1
1.06207
2.30557
2.60566
2.60122
2.60232
2.6059
2.6095
2.61234
2.61485
2.61714
2.61917
2.62088
2.62228
2.62349
2.62432
2.62516
2.62618
2.62747
2.62874
2.62936
2.62916
2.6282
2.62628
2.62337
2.61953
2.61494
2.61007
2.60517
2.60037
2.59529
2.58929
2.58153
2.57125
2.55782
2.54071
2.51944
2.49319
2.46137
2.42141
2.37396
2.31697
2.24752
2.17129
1
1
1
1
1
1
1
1
1
1
1
1
1
1
1
1
1
1
1
1
1
1
1
1
1
1
1
1
1
1
1
1
1
1
1
1
1
1
1
1
1
1
1
1
1
1
1
1
1
1
1
1
1
1.00086
2.15013
2.58179
2.58665
2.59327
2.5983
2.60272
2.60619
2.60903
2.61143
2.61355
2.61543
2.61694
2.61803
2.61856
2.61883
2.61911
2.61964
2.6205
2.62117
2.62117
2.62061
2.61916
2.6166
2.61287
2.608
2.60235
2.5963
2.59018
2.58384
2.57697
2.56878
2.55849
2.54528
2.52847
2.50746
2.48144
2.4501
2.41102
2.36626
2.31405
2.25139
2.18614
1
1
1
1
1
1
1
1
1
1
1
1
1
1
1
1
1
1
1
1
1
1
1
1
1
1
1
1
1
1
1
1
1
1
1
1
1
1
1
1
1
1
1
1
1
1
1
1
1
1
1
1
1
0.999993
1.88562
2.54626
2.58272
2.58848
2.59312
2.59672
2.59994
2.60283
2.60526
2.60747
2.60949
2.61118
2.61235
2.61284
2.61278
2.61254
2.61235
2.61249
2.61277
2.61274
2.61234
2.61125
2.6091
2.6057
2.60094
2.595
2.58818
2.58096
2.57334
2.5653
2.55633
2.54572
2.53264
2.51625
2.4959
2.47067
2.44059
2.40288
2.36088
2.3129
2.25612
2.19849
1
1
1
1
1
1
1
1
1
1
1
1
1
1
1
1
1
1
1
1
1
1
1
1
1
1
1
1
1
1
1
1
1
1
1
1
1
1
1
1
1
1
1
1
1
1
1
1
1
1
1
1
1
0.999998
1.48303
2.43768
2.5836
2.58406
2.58698
2.59053
2.59385
2.59652
2.59892
2.60116
2.60327
2.6051
2.60641
2.60702
2.60687
2.60636
2.60567
2.60506
2.60472
2.60433
2.60369
2.60259
2.60068
2.59767
2.5933
2.58757
2.58055
2.57259
2.56393
2.5547
2.5446
2.53332
2.52009
2.50406
2.48451
2.46048
2.43183
2.39623
2.35776
2.3128
2.26106
2.20861
1
1
1
1
1
1
1
1
1
1
1
1
1
1
1
1
1
1
1
1
1
1
1
1
1
1
1
1
1
1
1
1
1
1
1
1
1
1
1
1
1
1
1
1
1
1
1
1
1
1
1
1
1
1
1.06505
2.29296
2.5854
2.5796
2.58048
2.58352
2.58677
2.58942
2.59192
2.59427
2.5965
2.59851
2.60005
2.60088
2.60079
2.60024
2.59931
2.59819
2.59717
2.59623
2.59513
2.59372
2.59176
2.58896
2.585
2.5797
2.5729
2.56471
2.55536
2.54517
2.53401
2.52183
2.50813
2.49222
2.47336
2.45054
2.42312
2.39089
2.3558
2.31262
2.26583
2.21772
1
1
1
1
1
1
1
1
1
1
1
1
1
1
1
1
1
1
1
1
1
1
1
1
1
1
1
1
1
1
1
1
1
1
1
1
1
1
1
1
1
1
1
1
1
1
1
1
1
1
1
1
1
1
1.00091
2.10755
2.55746
2.56666
2.57354
2.57722
2.57989
2.58233
2.58471
2.58702
2.5893
2.59143
2.59319
2.59429
2.59439
2.59394
2.59298
2.59162
2.59011
2.5886
2.58691
2.58493
2.58258
2.57968
2.57594
2.57108
2.56475
2.55681
2.54732
2.53653
2.52456
2.51154
2.49713
2.48099
2.46265
2.44064
2.41489
2.38609
2.3528
2.31189
2.2714
2.22655
1
1
1
1
1
1
1
1
1
1
1
1
1
1
1
1
1
1
1
1
1
1
1
1
1
1
1
1
1
1
1
1
1
1
1
1
1
1
1
1
1
1
1
1
1
1
1
1
1
1
1
1
1
1
0.999993
1.76572
2.49987
2.56489
2.56866
2.57054
2.57322
2.57564
2.57783
2.57994
2.58208
2.58418
2.58603
2.58736
2.58776
2.58743
2.58655
2.58515
2.58337
2.58137
2.57914
2.57659
2.5737
2.57044
2.56663
2.56197
2.55607
2.54858
2.53937
2.5285
2.51612
2.50246
2.48743
2.47086
2.45263
2.43131
2.40727
2.38024
2.34859
2.31248
2.2765
2.23353
1
1
1
1
1
1
1
1
1
1
1
1
1
1
1
1
1
1
1
1
1
1
1
1
1
1
1
1
1
1
1
1
1
1
1
1
1
1
1
1
1
1
1
1
1
1
1
1
1
1
1
1
1
1
0.999998
1.29402
2.37484
2.5621
2.55849
2.56081
2.56478
2.56802
2.5704
2.5725
2.57455
2.57656
2.57841
2.5799
2.58061
2.58043
2.57971
2.57841
2.57656
2.5743
2.57169
2.5687
2.56526
2.56148
2.55729
2.55253
2.54681
2.53976
2.53106
2.52055
2.50827
2.49437
2.47895
2.46187
2.44383
2.42281
2.39962
2.37422
2.34461
2.31251
2.27866
2.23837
1
1
1
1
1
1
1
1
1
1
1
1
1
1
1
1
1
1
1
1
1
1
1
1
1
1
1
1
1
1
1
1
1
1
1
1
1
1
1
1
1
1
1
1
1
1
1
1
1
1
1
1
1
1
1
1.0213
2.23663
2.55062
2.54769
2.55176
2.55619
2.56003
2.5627
2.56497
2.56701
2.56894
2.57072
2.57226
2.5732
2.57316
2.57262
2.57146
2.56965
2.5673
2.56448
2.56119
2.55737
2.5531
2.54842
2.54329
2.53747
2.53063
2.52239
2.51243
2.50062
2.48694
2.47152
2.45425
2.43621
2.41504
2.39288
2.36915
2.34061
2.31119
2.27905
2.24367
1
1
1
1
1
1
1
1
1
1
1
1
1
1
1
1
1
1
1
1
1
1
1
1
1
1
1
1
1
1
1
1
1
1
1
1
1
1
1
1
1
1
1
1
1
1
1
1
1
1
1
1
1
1
1
1.00006
1.95738
2.51799
2.54156
2.54691
2.55044
2.55331
2.55538
2.55751
2.55945
2.56122
2.56287
2.56434
2.56537
2.56552
2.5651
2.56407
2.56235
2.56004
2.55717
2.55377
2.54976
2.54516
2.54002
2.53441
2.52825
2.52135
2.51336
2.50392
2.49275
2.47962
2.46462
2.44763
2.42938
2.40836
2.38762
2.36412
2.3362
2.3095
2.27984
2.24823
1
1
1
1
1
1
1
1
1
1
1
1
1
1
1
1
1
1
1
1
1
1
1
1
1
1
1
1
1
1
1
1
1
1
1
1
1
1
1
1
1
1
1
1
1
1
1
1
1
1
1
1
1
1
1
1
1.49848
2.4197
2.54572
2.54402
2.54489
2.54683
2.54852
2.55028
2.55195
2.55351
2.55499
2.55634
2.55739
2.5577
2.55736
2.55645
2.55485
2.55263
2.5498
2.5464
2.54234
2.5376
2.53216
2.52615
2.51958
2.51242
2.50442
2.49528
2.48467
2.47221
2.45791
2.44145
2.42332
2.40324
2.38291
2.35887
2.33331
2.30883
2.28032
2.25041
1
1
1
1
1
1
1
1
1
1
1
1
1
1
1
1
1
1
1
1
1
1
1
1
1
1
1
1
1
1
1
1
1
1
1
1
1
1
1
1
1
1
1
1
1
1
1
1
1
1
1
1
1
1
1
1
1.06586
2.26745
2.54762
2.5393
2.53939
2.54057
2.54207
2.54341
2.54469
2.5459
2.5471
2.54825
2.54921
2.54961
2.54936
2.54857
2.54709
2.54496
2.54219
2.53884
2.53482
2.53007
2.52452
2.51827
2.51137
2.5039
2.49572
2.48664
2.47642
2.46454
2.45101
2.43526
2.41785
2.39874
2.37825
2.35495
2.33203
2.30771
2.2799
2.25167
1
1
1
1
1
1
1
1
1
1
1
1
1
1
1
1
1
1
1
1
1
1
1
1
1
1
1
1
1
1
1
1
1
1
1
1
1
1
1
1
1
1
1
1
1
1
1
1
1
1
1
1
1
1
1
1
1.00086
2.03146
2.51029
2.52607
2.53274
2.53581
2.53709
2.53765
2.53824
2.53882
2.5395
2.54027
2.54101
2.54142
2.54125
2.5406
2.53925
2.53722
2.53452
2.53122
2.52727
2.52259
2.51708
2.51076
2.50371
2.49598
2.48759
2.4784
2.46835
2.45683
2.44398
2.42908
2.41244
2.39415
2.37445
2.35279
2.33068
2.30568
2.27992
2.25374
1
1
1
1
1
1
1
1
1
1
1
1
1
1
1
1
1
1
1
1
1
1
1
1
1
1
1
1
1
1
1
1
1
1
1
1
1
1
1
1
1
1
1
1
1
1
1
1
1
1
1
1
1
1
1
1
0.999995
1.57446
2.41749
2.52916
2.52862
2.52991
2.53187
2.53271
2.53278
2.53266
2.53262
2.53273
2.53299
2.53318
2.53304
2.53249
2.53128
2.52938
2.52676
2.52351
2.5196
2.515
2.50958
2.50333
2.49627
2.48844
2.47989
2.47056
2.46055
2.44917
2.43693
2.4227
2.40675
2.38988
2.37125
2.35036
2.32834
2.30481
2.28143
2.25612
1
1
1
1
1
1
1
1
1
1
1
1
1
1
1
1
1
1
1
1
1
1
1
1
1
1
1
1
1
1
1
1
1
1
1
1
1
1
1
1
1
1
1
1
1
1
1
1
1
1
1
1
1
1
1
1
0.999999
1.08834
2.26553
2.52752
2.52074
2.52205
2.52464
2.52665
2.52692
2.52667
2.52623
2.52576
2.52545
2.52524
2.52495
2.52438
2.52328
2.52151
2.519
2.51582
2.51196
2.50743
2.50212
2.49598
2.48902
2.48123
2.47266
2.46326
2.45321
2.44191
2.43007
2.41624
2.4013
2.38568
2.36729
2.34726
2.32679
2.30517
2.28273
2.25756
1
1
1
1
1
1
1
1
1
1
1
1
1
1
1
1
1
1
1
1
1
1
1
1
1
1
1
1
1
1
1
1
1
1
1
1
1
1
1
1
1
1
1
1
1
1
1
1
1
1
1
1
1
1
1
1
1
1.00165
2.03514
2.49011
2.50264
2.51088
2.51742
2.51946
2.52036
2.52045
2.52006
2.51932
2.5185
2.51774
2.51706
2.5163
2.51518
2.51351
2.51115
2.50809
2.50432
2.49985
2.49463
2.48859
2.48177
2.47412
2.46563
2.45624
2.44616
2.43502
2.42333
2.41
2.39615
2.38077
2.36279
2.34468
2.32598
2.30506
2.28273
2.2584
1
1
1
1
1
1
1
1
1
1
1
1
1
1
1
1
1
1
1
1
1
1
1
1
1
1
1
1
1
1
1
1
1
1
1
1
1
1
1
1
1
1
1
1
1
1
1
1
1
1
1
1
1
1
1
1
1
0.999992
1.5572
2.39615
2.50594
2.50632
2.50944
2.51152
2.51328
2.51411
2.51396
2.51327
2.51219
2.51096
2.50975
2.50857
2.50723
2.50552
2.50326
2.50034
2.4967
2.49233
2.48718
2.48128
2.47454
2.46709
2.45875
2.44944
2.43944
2.42849
2.41691
2.40422
2.39086
2.3755
2.35884
2.34248
2.3243
2.30336
2.28223
2.26018
1
1
1
1
1
1
1
1
1
1
1
1
1
1
1
1
1
1
1
1
1
1
1
1
1
1
1
1
1
1
1
1
1
1
1
1
1
1
1
1
1
1
1
1
1
1
1
1
1
1
1
1
1
1
1
1
1
0.999998
1.08185
2.24413
2.50523
2.49912
2.4994
2.50172
2.50425
2.50603
2.50681
2.50656
2.50573
2.5044
2.50281
2.50117
2.49944
2.49755
2.49528
2.49248
2.489
2.48478
2.47975
2.47397
2.46734
2.46008
2.45183
2.44268
2.43287
2.42218
2.41082
2.39861
2.38542
2.37071
2.35549
2.33958
2.32118
2.30138
2.28242
2.26221
1
1
1
1
1
1
1
1
1
1
1
1
1
1
1
1
1
1
1
1
1
1
1
1
1
1
1
1
1
1
1
1
1
1
1
1
1
1
1
1
1
1
1
1
1
1
1
1
1
1
1
1
1
1
1
1
1
1
1.00135
1.9714
2.46643
2.48117
2.48889
2.49306
2.49559
2.49763
2.49909
2.49953
2.49905
2.49788
2.49616
2.49419
2.49205
2.48985
2.48742
2.48464
2.48126
2.47719
2.47235
2.4667
2.4602
2.45303
2.44492
2.436
2.42644
2.41606
2.40492
2.39297
2.3802
2.36642
2.35171
2.33568
2.31806
2.30031
2.28255
2.26271
1
1
1
1
1
1
1
1
1
1
1
1
1
1
1
1
1
1
1
1
1
1
1
1
1
1
1
1
1
1
1
1
1
1
1
1
1
1
1
1
1
1
1
1
1
1
1
1
1
1
1
1
1
1
1
1
1
1
0.999995
1.43249
2.36087
2.48378
2.48234
2.48403
2.48587
2.48805
2.49023
2.49169
2.49165
2.49092
2.48942
2.48739
2.485
2.48248
2.47978
2.47687
2.47349
2.46953
2.46489
2.45942
2.45314
2.44602
2.43814
2.42946
2.42015
2.41004
2.39909
2.38747
2.37531
2.36207
2.34747
2.33198
2.31584
2.29933
2.2818
2.26225
1
1
1
1
1
1
1
1
1
1
1
1
1
1
1
1
1
1
1
1
1
1
1
1
1
1
1
1
1
1
1
1
1
1
1
1
1
1
1
1
1
1
1
1
1
1
1
1
1
1
1
1
1
1
1
1
1
1
0.999999
1.04534
2.20446
2.47611
2.47405
2.47495
2.4762
2.47838
2.48076
2.48275
2.48344
2.48306
2.482
2.48025
2.47792
2.47529
2.47237
2.46928
2.46582
2.4619
2.45739
2.45214
2.44608
2.43914
2.43145
2.42298
2.41393
2.40404
2.39331
2.38213
2.37042
2.35732
2.34317
2.3288
2.3137
2.29753
2.27974
2.26143
1
1
1
1
1
1
1
1
1
1
1
1
1
1
1
1
1
1
1
1
1
1
1
1
1
1
1
1
1
1
1
1
1
1
1
1
1
1
1
1
1
1
1
1
1
1
1
1
1
1
1
1
1
1
1
1
1
1
1
1.00034
1.82524
2.42604
2.4674
2.468
2.46883
2.47067
2.47275
2.47421
2.47504
2.47494
2.47428
2.47292
2.47083
2.46825
2.46523
2.46197
2.45834
2.45437
2.44992
2.44484
2.43901
2.43235
2.42488
2.41669
2.40789
2.39819
2.38778
2.37702
2.36547
2.35254
2.33926
2.32579
2.31106
2.2951
2.27785
2.26124
1
1
1
1
1
1
1
1
1
1
1
1
1
1
1
1
1
1
1
1
1
1
1
1
1
1
1
1
1
1
1
1
1
1
1
1
1
1
1
1
1
1
1
1
1
1
1
1
1
1
1
1
1
1
1
1
1
1
1
0.999999
1.20992
2.29388
2.4748
2.46424
2.46388
2.46403
2.46448
2.4649
2.4655
2.46593
2.4657
2.46486
2.46321
2.46089
2.45797
2.45466
2.45096
2.44694
2.44249
2.43753
2.4319
2.4255
2.4183
2.4104
2.40183
2.3924
2.38237
2.37189
2.3604
2.34795
2.3356
2.32237
2.3078
2.29263
2.27661
2.26122
1
1
1
1
1
1
1
1
1
1
1
1
1
1
1
1
1
1
1
1
1
1
1
1
1
1
1
1
1
1
1
1
1
1
1
1
1
1
1
1
1
1
1
1
1
1
1
1
1
1
1
1
1
1
1
1
1
1
1
1
1.00985
2.10321
2.4489
2.4488
2.45165
2.45626
2.45675
2.4565
2.45673
2.45717
2.45707
2.4565
2.45521
2.45325
2.45059
2.44737
2.4437
2.43967
2.43522
2.43032
2.42484
2.41869
2.41177
2.40418
2.3959
2.38681
2.37712
2.36685
2.35555
2.34375
2.33189
2.31863
2.3046
2.29052
2.2756
2.26074
1
1
1
1
1
1
1
1
1
1
1
1
1
1
1
1
1
1
1
1
1
1
1
1
1
1
1
1
1
1
1
1
1
1
1
1
1
1
1
1
1
1
1
1
1
1
1
1
1
1
1
1
1
1
1
1
1
1
1
1
0.999998
1.60577
2.36683
2.4499
2.45238
2.4527
2.4508
2.44948
2.4492
2.44904
2.44869
2.44803
2.44691
2.44521
2.44283
2.43982
2.4363
2.43232
2.42793
2.4231
2.41776
2.4118
2.40514
2.39782
2.38985
2.38111
2.37174
2.36175
2.35086
2.3396
2.32789
2.31476
2.30163
2.28851
2.27421
2.25927
1
1
1
1
1
1
1
1
1
1
1
1
1
1
1
1
1
1
1
1
1
1
1
1
1
1
1
1
1
1
1
1
1
1
1
1
1
1
1
1
1
1
1
1
1
1
1
1
1
1
1
1
1
1
1
1
1
1
1
1
0.999997