/*--------------------------------*- C++ -*----------------------------------*\
  =========                 |
  \\      /  F ield         | OpenFOAM: The Open Source CFD Toolbox
   \\    /   O peration     | Website:  https://openfoam.org
    \\  /    A nd           | Version:  7
     \\/     M anipulation  |
\*---------------------------------------------------------------------------*/
FoamFile
{
    version     2.0;
    format      ascii;
    class       volVectorField;
    location    "3";
    object      U;
}
// * * * * * * * * * * * * * * * * * * * * * * * * * * * * * * * * * * * * * //

dimensions      [0 1 -1 0 0 0 0];

internalField   nonuniform List<vector> 
64512
(
(3 8.05466e-18 0)
(3 -2.13006e-17 0)
(3 5.52443e-17 0)
(3 -1.49503e-17 0)
(3 4.56023e-18 0)
(3 -3.62029e-16 0)
(3 -9.09073e-16 0)
(3 -8.46488e-16 0)
(3 -8.10648e-16 0)
(3 -9.40036e-16 0)
(3 -9.92418e-16 0)
(3 -9.47659e-16 0)
(3 -7.38312e-16 0)
(3 -2.38358e-16 0)
(3 2.56516e-16 0)
(3 -1.63997e-16 0)
(3 -1.0953e-15 0)
(3 -1.43668e-15 0)
(3 -7.3445e-16 0)
(3 -2.00657e-16 0)
(3 2.3101e-16 0)
(3 5.00786e-16 0)
(3 2.05275e-16 0)
(3 3.1175e-17 0)
(3 -3.69216e-17 0)
(3 2.32659e-16 0)
(3 4.31121e-17 0)
(3 5.22568e-16 0)
(3 1.16899e-15 0)
(3 8.65311e-16 0)
(3 5.60031e-16 0)
(3 5.74847e-17 0)
(3 2.93655e-16 0)
(3 2.77266e-16 0)
(3 -1.32404e-16 0)
(3 -7.37564e-16 0)
(3 -5.90434e-16 0)
(3 -1.48306e-16 0)
(3 1.18943e-16 0)
(3 1.33778e-16 0)
(3 -3.1078e-16 0)
(3 -5.70774e-16 0)
(3 -7.11033e-16 0)
(3 6.59349e-16 0)
(3 9.14282e-16 0)
(3 4.45236e-16 0)
(3 -4.01905e-16 0)
(3 -1.15731e-15 0)
(3 -1.80299e-15 0)
(1.30515 0.00402012 0)
(0.775521 0.00279435 0)
(0.747018 0.00823992 0)
(0.72961 0.0071161 0)
(0.71417 0.00610023 0)
(0.700804 0.00540519 0)
(0.68785 0.00537063 0)
(0.674086 0.00575975 0)
(0.659134 0.00628847 0)
(0.643396 0.00683524 0)
(0.627202 0.00736442 0)
(0.610625 0.00776149 0)
(0.593562 0.00775813 0)
(0.577195 0.00711503 0)
(0.562201 0.00628913 0)
(0.548353 0.00598332 0)
(0.534671 0.00625075 0)
(0.520294 0.00689928 0)
(0.504547 0.00770216 0)
(0.487423 0.00812407 0)
(0.470403 0.00762893 0)
(0.454655 0.00686069 0)
(0.439736 0.00681371 0)
(0.424312 0.00742601 0)
(0.408008 0.00798648 0)
(0.391389 0.00805673 0)
(0.375047 0.00789561 0)
(0.35893 0.00788038 0)
(0.342822 0.00798937 0)
(0.326624 0.00808764 0)
(0.310281 0.0081601 0)
(0.293722 0.00823313 0)
(0.276883 0.00830052 0)
(0.259715 0.00836044 0)
(0.24224 0.0084378 0)
(0.224583 0.00854235 0)
(0.206878 0.00868568 0)
(0.189152 0.00886984 0)
(0.17134 0.00905802 0)
(0.153295 0.0092561 0)
(0.134881 0.00945788 0)
(0.115858 0.00971976 0)
(0.0960058 0.00999353 0)
(0.0753677 0.0102241 0)
(0.0540894 0.010426 0)
(0.0325783 0.0104931 0)
(0.0110812 0.0105474 0)
(3 -4.23938e-17 0)
(3 -1.0762e-16 0)
(3 4.32788e-16 0)
(3 3.84488e-16 0)
(3 4.19199e-16 0)
(3 -6.15203e-16 0)
(3 -7.84894e-16 0)
(3 -6.10528e-16 0)
(3 -3.80222e-16 0)
(3 -1.44029e-16 0)
(3 -4.26894e-16 0)
(3 -6.22037e-16 0)
(3 -3.46514e-16 0)
(3 3.07365e-16 0)
(3 8.48347e-16 0)
(3 -2.55864e-16 0)
(3 -1.02334e-15 0)
(3 -1.11023e-15 0)
(3 2.9419e-16 0)
(3 1.64197e-15 0)
(3 2.24596e-15 0)
(3 2.01304e-15 0)
(3 8.3338e-16 0)
(3 4.98907e-17 0)
(3 2.84672e-16 0)
(3 2.61739e-16 0)
(3 9.38796e-16 0)
(3 1.40747e-15 0)
(3 1.86151e-15 0)
(3 1.69494e-15 0)
(3 6.55544e-16 0)
(3 -3.81244e-16 0)
(3 -4.81516e-16 0)
(3 -4.63058e-16 0)
(3 -9.84891e-16 0)
(3 -1.18081e-15 0)
(3 -7.41432e-16 0)
(3 3.3249e-16 0)
(3 1.33947e-16 0)
(3 -2.50497e-16 0)
(3 -7.33059e-16 0)
(3 -1.55331e-15 0)
(3 -1.61766e-15 0)
(3 -5.86667e-16 0)
(3 7.54645e-16 0)
(3 8.74057e-16 0)
(3 -1.08984e-15 0)
(3 -2.47688e-15 0)
(3 -2.28391e-15 0)
(1.31298 0.0191915 0)
(0.772827 0.0133164 0)
(0.743595 0.0230602 0)
(0.727018 0.0209147 0)
(0.711328 0.0182887 0)
(0.697355 0.0157793 0)
(0.68394 0.0150815 0)
(0.670148 0.0160973 0)
(0.655396 0.0178198 0)
(0.63991 0.0196691 0)
(0.623989 0.0213888 0)
(0.607732 0.0226542 0)
(0.59096 0.0227651 0)
(0.574629 0.0212327 0)
(0.559268 0.0188812 0)
(0.544886 0.0176021 0)
(0.530887 0.0181571 0)
(0.516494 0.0200433 0)
(0.501022 0.0224466 0)
(0.48429 0.0237876 0)
(0.467576 0.0225976 0)
(0.451814 0.0205311 0)
(0.436575 0.0202502 0)
(0.421015 0.0219194 0)
(0.404734 0.0235315 0)
(0.388235 0.023773 0)
(0.372033 0.0234176 0)
(0.355976 0.0234761 0)
(0.339864 0.0238503 0)
(0.323634 0.0241622 0)
(0.30727 0.0244065 0)
(0.290729 0.0246665 0)
(0.273971 0.0249017 0)
(0.256945 0.0250935 0)
(0.239653 0.0253238 0)
(0.222185 0.0256376 0)
(0.204657 0.0260807 0)
(0.187108 0.0266574 0)
(0.169495 0.0272426 0)
(0.151695 0.0278444 0)
(0.133568 0.0284422 0)
(0.114861 0.0292172 0)
(0.0953293 0.0300479 0)
(0.0749811 0.0307884 0)
(0.0539355 0.031473 0)
(0.032578 0.0317778 0)
(0.0111143 0.0320692 0)
(3 1.19015e-16 0)
(3 3.64398e-16 0)
(3 6.39519e-16 0)
(3 6.25666e-16 0)
(3 2.61653e-16 0)
(3 -2.20427e-16 0)
(3 -4.31497e-17 0)
(3 3.02101e-17 0)
(3 3.78192e-16 0)
(3 6.59507e-16 0)
(3 2.54464e-16 0)
(3 3.58732e-16 0)
(3 2.01507e-16 0)
(3 1.27087e-16 0)
(3 -2.27041e-16 0)
(3 -3.20491e-18 0)
(3 -1.02639e-16 0)
(3 -3.95654e-16 0)
(3 9.47995e-16 0)
(3 1.45268e-15 0)
(3 2.45612e-15 0)
(3 2.5973e-15 0)
(3 2.5328e-15 0)
(3 1.78132e-15 0)
(3 9.04542e-16 0)
(3 5.75006e-16 0)
(3 5.26606e-16 0)
(3 1.20639e-17 0)
(3 1.3861e-17 0)
(3 2.23418e-16 0)
(3 7.58763e-17 0)
(3 3.89361e-16 0)
(3 2.38585e-16 0)
(3 1.99738e-16 0)
(3 2.32287e-16 0)
(3 -1.5714e-16 0)
(3 -9.48356e-16 0)
(3 -1.30184e-15 0)
(3 -1.81355e-15 0)
(3 -2.57919e-15 0)
(3 -2.00081e-15 0)
(3 -2.10628e-15 0)
(3 -1.96396e-15 0)
(3 -1.88813e-15 0)
(3 -1.12587e-15 0)
(3 2.94627e-16 0)
(3 1.50308e-16 0)
(3 -1.70906e-16 0)
(3 -1.28981e-16 0)
(1.33528 0.0337467 0)
(0.774329 0.0242911 0)
(0.744572 0.0367485 0)
(0.728541 0.0346695 0)
(0.71251 0.031498 0)
(0.697496 0.0278585 0)
(0.682843 0.0262767 0)
(0.668325 0.0273351 0)
(0.653411 0.029792 0)
(0.638093 0.0326849 0)
(0.622505 0.0354661 0)
(0.606668 0.0375416 0)
(0.59033 0.0378459 0)
(0.574191 0.0357795 0)
(0.558504 0.0323714 0)
(0.543356 0.0301647 0)
(0.52863 0.0306983 0)
(0.513893 0.0334771 0)
(0.4985 0.0371885 0)
(0.482026 0.0393266 0)
(0.465597 0.037712 0)
(0.449873 0.0346912 0)
(0.434254 0.0342353 0)
(0.418435 0.0367377 0)
(0.401997 0.0391625 0)
(0.385409 0.0394589 0)
(0.369164 0.0389234 0)
(0.353019 0.0391088 0)
(0.336777 0.0397571 0)
(0.320376 0.0402302 0)
(0.303823 0.0405621 0)
(0.287109 0.0409405 0)
(0.270232 0.041317 0)
(0.253163 0.0416497 0)
(0.2359 0.0420471 0)
(0.218506 0.0425565 0)
(0.201077 0.0432444 0)
(0.183657 0.0441326 0)
(0.166227 0.0450327 0)
(0.148696 0.0459755 0)
(0.130931 0.0469258 0)
(0.112667 0.0481898 0)
(0.0936257 0.049584 0)
(0.0737534 0.0508797 0)
(0.053172 0.0521239 0)
(0.032182 0.0527572 0)
(0.0110147 0.0534125 0)
(3 1.89542e-16 0)
(3 3.67976e-16 0)
(3 -1.58544e-17 0)
(3 -5.29023e-16 0)
(3 -6.8191e-16 0)
(3 -7.17429e-16 0)
(3 -8.6718e-16 0)
(3 -1.00217e-15 0)
(3 -4.03051e-16 0)
(3 -3.02881e-16 0)
(3 -1.41509e-16 0)
(3 -2.15349e-16 0)
(3 -1.03734e-15 0)
(3 -1.34615e-15 0)
(3 -5.60859e-16 0)
(3 8.05566e-16 0)
(3 6.27868e-16 0)
(3 3.6568e-16 0)
(3 5.05841e-16 0)
(3 1.88264e-15 0)
(3 2.96974e-15 0)
(3 3.87492e-15 0)
(3 3.60717e-15 0)
(3 3.15246e-15 0)
(3 2.2468e-15 0)
(3 1.74903e-15 0)
(3 2.59572e-16 0)
(3 -1.26127e-15 0)
(3 -1.42942e-15 0)
(3 -1.04199e-15 0)
(3 -4.63435e-16 0)
(3 -2.70167e-16 0)
(3 -2.08297e-16 0)
(3 1.30411e-16 0)
(3 -3.86306e-16 0)
(3 -1.9526e-15 0)
(3 -2.88886e-15 0)
(3 -2.53102e-15 0)
(3 -1.75425e-15 0)
(3 -2.17456e-15 0)
(3 -2.25629e-15 0)
(3 -1.31193e-15 0)
(3 -8.87489e-16 0)
(3 -7.5557e-16 0)
(3 -3.09444e-16 0)
(3 4.22563e-16 0)
(3 2.02458e-15 0)
(3 2.0811e-15 0)
(3 7.42067e-16 0)
(1.36832 0.0474412 0)
(0.776874 0.035376 0)
(0.746305 0.0491764 0)
(0.730752 0.047874 0)
(0.714527 0.044968 0)
(0.698783 0.0408099 0)
(0.683187 0.0382628 0)
(0.66813 0.0388924 0)
(0.653315 0.0416436 0)
(0.638484 0.0452588 0)
(0.62354 0.0489288 0)
(0.608335 0.0517539 0)
(0.592538 0.0524072 0)
(0.576545 0.0503023 0)
(0.560477 0.0463954 0)
(0.544579 0.043416 0)
(0.529103 0.0437329 0)
(0.514035 0.0471226 0)
(0.498758 0.0518352 0)
(0.482549 0.054626 0)
(0.46633 0.0528705 0)
(0.450516 0.0492822 0)
(0.434403 0.0487622 0)
(0.418214 0.0519526 0)
(0.40151 0.0550351 0)
(0.384714 0.0553408 0)
(0.368285 0.0546736 0)
(0.351901 0.0550398 0)
(0.335376 0.0559871 0)
(0.318641 0.0566236 0)
(0.301727 0.0570303 0)
(0.28466 0.0575119 0)
(0.267478 0.0580188 0)
(0.250165 0.0584801 0)
(0.232713 0.059019 0)
(0.215164 0.0596694 0)
(0.197602 0.0605089 0)
(0.180087 0.0615859 0)
(0.162634 0.0626663 0)
(0.145198 0.0638244 0)
(0.127656 0.0650154 0)
(0.109752 0.0666827 0)
(0.09119 0.0686002 0)
(0.0718431 0.0704663 0)
(0.0518682 0.0723294 0)
(0.0314206 0.0733765 0)
(0.0107862 0.074514 0)
(3 -1.08829e-16 0)
(3 -3.08821e-16 0)
(3 -3.04453e-16 0)
(3 -1.37581e-16 0)
(3 -1.90604e-16 0)
(3 -2.0173e-16 0)
(3 -1.08927e-16 0)
(3 7.47394e-17 0)
(3 -1.67714e-16 0)
(3 -8.50819e-16 0)
(3 -1.28067e-15 0)
(3 -9.6023e-16 0)
(3 -6.83339e-16 0)
(3 -5.85628e-16 0)
(3 -3.93216e-16 0)
(3 -4.02419e-16 0)
(3 -4.29749e-16 0)
(3 -2.74998e-16 0)
(3 -1.55656e-16 0)
(3 8.62303e-16 0)
(3 1.93622e-15 0)
(3 2.31231e-15 0)
(3 1.51233e-15 0)
(3 5.99423e-16 0)
(3 1.53993e-16 0)
(3 -6.71564e-16 0)
(3 -8.11722e-16 0)
(3 -5.27593e-16 0)
(3 -1.70833e-16 0)
(3 -4.92165e-16 0)
(3 -5.01288e-16 0)
(3 -5.88416e-16 0)
(3 -5.93052e-16 0)
(3 -7.17046e-16 0)
(3 -1.61058e-15 0)
(3 -1.90132e-15 0)
(3 -1.64413e-15 0)
(3 -1.7511e-15 0)
(3 -1.90575e-15 0)
(3 -1.63951e-15 0)
(3 -2.05569e-15 0)
(3 -1.64593e-15 0)
(3 -1.1133e-15 0)
(3 -5.19692e-16 0)
(3 -2.20996e-18 0)
(3 1.2547e-15 0)
(3 2.36588e-15 0)
(3 2.11287e-15 0)
(3 3.1964e-15 0)
(1.41252 0.0607424 0)
(0.780081 0.0465753 0)
(0.747405 0.0609954 0)
(0.731931 0.0608906 0)
(0.715371 0.058763 0)
(0.698922 0.0547075 0)
(0.682433 0.0511945 0)
(0.666709 0.0507111 0)
(0.652009 0.0532198 0)
(0.637828 0.0572026 0)
(0.623812 0.0616009 0)
(0.609519 0.0652166 0)
(0.594444 0.0665621 0)
(0.578613 0.0649665 0)
(0.562215 0.0610962 0)
(0.545753 0.0573883 0)
(0.52973 0.0571384 0)
(0.514581 0.0607086 0)
(0.499724 0.0660981 0)
(0.484017 0.069487 0)
(0.468112 0.0679489 0)
(0.452304 0.0641712 0)
(0.435856 0.0636662 0)
(0.419448 0.0673894 0)
(0.402617 0.0709864 0)
(0.385732 0.0712885 0)
(0.3692 0.0705535 0)
(0.352638 0.0711487 0)
(0.335876 0.0724225 0)
(0.318844 0.0732557 0)
(0.301594 0.0737838 0)
(0.284184 0.0744226 0)
(0.266678 0.0751106 0)
(0.249059 0.0757379 0)
(0.23131 0.0764332 0)
(0.213457 0.0772068 0)
(0.19558 0.0781398 0)
(0.177763 0.0793115 0)
(0.160051 0.0804472 0)
(0.14244 0.0816737 0)
(0.124831 0.082937 0)
(0.107014 0.084839 0)
(0.0887148 0.0871398 0)
(0.0697441 0.0894917 0)
(0.0503425 0.0919584 0)
(0.0304678 0.0934498 0)
(0.0104817 0.095139 0)
(3 -1.15215e-16 0)
(3 -2.28587e-16 0)
(3 -7.12033e-17 0)
(3 7.08375e-16 0)
(3 5.84628e-16 0)
(3 8.34198e-16 0)
(3 7.23754e-16 0)
(3 7.4957e-16 0)
(3 -1.19204e-16 0)
(3 -6.12069e-16 0)
(3 -1.59885e-15 0)
(3 -1.46973e-15 0)
(3 -8.77891e-16 0)
(3 -8.31846e-16 0)
(3 -1.30495e-15 0)
(3 -1.02269e-15 0)
(3 -6.44134e-16 0)
(3 -4.78898e-16 0)
(3 -5.67469e-18 0)
(3 -3.30916e-16 0)
(3 -4.52044e-16 0)
(3 -1.08317e-15 0)
(3 -1.15338e-15 0)
(3 -1.85902e-15 0)
(3 -2.11716e-15 0)
(3 -1.86286e-15 0)
(3 -1.20302e-15 0)
(3 -8.42243e-16 0)
(3 7.48251e-17 0)
(3 1.37296e-16 0)
(3 5.81519e-16 0)
(3 6.3493e-16 0)
(3 1.18694e-17 0)
(3 -1.0508e-15 0)
(3 -1.1716e-15 0)
(3 -9.03383e-16 0)
(3 -8.12824e-16 0)
(3 -2.16474e-15 0)
(3 -2.9122e-15 0)
(3 -2.78006e-15 0)
(3 -2.05631e-15 0)
(3 -1.40806e-15 0)
(3 -5.53693e-17 0)
(3 1.6971e-16 0)
(3 -8.4879e-17 0)
(3 -4.39932e-16 0)
(3 1.57984e-16 0)
(3 1.08094e-15 0)
(3 -2.03626e-15 0)
(1.46885 0.0737043 0)
(0.783637 0.0582971 0)
(0.748316 0.0729559 0)
(0.732923 0.0738766 0)
(0.716181 0.0725969 0)
(0.699342 0.0691318 0)
(0.682129 0.065088 0)
(0.665495 0.0631594 0)
(0.650357 0.0646759 0)
(0.636497 0.0685743 0)
(0.623263 0.0733982 0)
(0.609933 0.077823 0)
(0.595657 0.0802005 0)
(0.580024 0.0796075 0)
(0.563432 0.0763018 0)
(0.546601 0.0720677 0)
(0.530153 0.0708939 0)
(0.514951 0.0741579 0)
(0.50059 0.0798794 0)
(0.485473 0.0838595 0)
(0.469883 0.0828961 0)
(0.454143 0.0792623 0)
(0.437544 0.0788302 0)
(0.421106 0.0829257 0)
(0.404348 0.0868922 0)
(0.387564 0.0871914 0)
(0.371092 0.0864487 0)
(0.354515 0.0873023 0)
(0.337692 0.0889207 0)
(0.320558 0.0899909 0)
(0.303174 0.0906985 0)
(0.285614 0.0915537 0)
(0.267937 0.0924745 0)
(0.250116 0.0933147 0)
(0.23212 0.0942097 0)
(0.213964 0.0951415 0)
(0.195739 0.0961821 0)
(0.17755 0.0974363 0)
(0.159463 0.0985844 0)
(0.141501 0.0998046 0)
(0.123591 0.101023 0)
(0.105583 0.103007 0)
(0.0872552 0.105521 0)
(0.0683771 0.108205 0)
(0.0492971 0.111179 0)
(0.0297735 0.113076 0)
(0.0102614 0.115324 0)
(3 9.76051e-17 0)
(3 -6.52751e-17 0)
(3 -6.23904e-17 0)
(3 -3.5483e-16 0)
(3 2.42484e-17 0)
(3 2.39489e-16 0)
(3 9.80851e-17 0)
(3 -6.4199e-17 0)
(3 -5.43089e-16 0)
(3 -4.37022e-16 0)
(3 -9.34323e-16 0)
(3 -8.13756e-16 0)
(3 -5.91469e-16 0)
(3 -3.20987e-16 0)
(3 -2.67431e-16 0)
(3 -2.01283e-16 0)
(3 6.29221e-16 0)
(3 7.89247e-16 0)
(3 6.04219e-17 0)
(3 -6.31541e-17 0)
(3 -1.70878e-16 0)
(3 -8.6431e-16 0)
(3 -7.18251e-16 0)
(3 -4.85754e-16 0)
(3 -8.53837e-16 0)
(3 -6.97332e-16 0)
(3 -7.29445e-16 0)
(3 -1.01707e-16 0)
(3 2.88006e-16 0)
(3 6.39248e-16 0)
(3 4.13835e-16 0)
(3 5.15945e-16 0)
(3 3.64345e-16 0)
(3 3.64322e-16 0)
(3 4.42081e-16 0)
(3 -8.0272e-17 0)
(3 -1.0629e-15 0)
(3 -1.9926e-15 0)
(3 -1.89935e-15 0)
(3 -1.80853e-15 0)
(3 -9.73175e-16 0)
(3 -5.35323e-16 0)
(3 1.15482e-16 0)
(3 2.78054e-16 0)
(3 -1.83926e-16 0)
(3 -1.20719e-15 0)
(3 -9.29614e-16 0)
(3 -3.31232e-16 0)
(3 -2.30443e-15 0)
(1.53832 0.0863399 0)
(0.78801 0.0706074 0)
(0.74937 0.0847727 0)
(0.734322 0.0868444 0)
(0.717507 0.0864633 0)
(0.700447 0.0838306 0)
(0.682633 0.0798263 0)
(0.665075 0.0765973 0)
(0.649001 0.0765294 0)
(0.634873 0.07966 0)
(0.622005 0.0845004 0)
(0.609522 0.0896385 0)
(0.596102 0.0932032 0)
(0.580895 0.0939978 0)
(0.564405 0.0916855 0)
(0.547452 0.0872966 0)
(0.530732 0.0850156 0)
(0.515351 0.0875013 0)
(0.501342 0.0932116 0)
(0.486746 0.0977704 0)
(0.47137 0.0976524 0)
(0.455693 0.0943978 0)
(0.439073 0.0940613 0)
(0.422732 0.0983717 0)
(0.406173 0.10258 0)
(0.389592 0.102897 0)
(0.373257 0.102207 0)
(0.356767 0.103342 0)
(0.340033 0.105324 0)
(0.322979 0.106675 0)
(0.305657 0.10762 0)
(0.288109 0.108747 0)
(0.270364 0.109957 0)
(0.252369 0.111078 0)
(0.234089 0.112255 0)
(0.215554 0.113428 0)
(0.196888 0.114637 0)
(0.178226 0.116 0)
(0.159655 0.117146 0)
(0.141224 0.118308 0)
(0.122886 0.119386 0)
(0.104548 0.121327 0)
(0.0860511 0.123898 0)
(0.0671601 0.126762 0)
(0.0483136 0.130142 0)
(0.0290849 0.132389 0)
(0.0100398 0.135175 0)
(3 6.37219e-17 0)
(3 3.00305e-16 0)
(3 3.96303e-16 0)
(3 5.98363e-18 0)
(3 2.7193e-16 0)
(3 2.95438e-16 0)
(3 1.20122e-16 0)
(3 2.09605e-16 0)
(3 2.64945e-16 0)
(3 1.7207e-16 0)
(3 4.93272e-16 0)
(3 5.38271e-16 0)
(3 8.30469e-16 0)
(3 8.01697e-16 0)
(3 7.83517e-16 0)
(3 5.61491e-16 0)
(3 1.77454e-15 0)
(3 2.62812e-15 0)
(3 1.56355e-15 0)
(3 1.67795e-15 0)
(3 1.08579e-15 0)
(3 -5.92215e-17 0)
(3 -6.23891e-16 0)
(3 -1.14114e-15 0)
(3 -1.38727e-15 0)
(3 -1.05689e-15 0)
(3 -6.25003e-16 0)
(3 1.03139e-16 0)
(3 7.13644e-16 0)
(3 1.07233e-15 0)
(3 8.29687e-16 0)
(3 5.23045e-16 0)
(3 7.85617e-16 0)
(3 9.83018e-16 0)
(3 6.80707e-16 0)
(3 7.89958e-19 0)
(3 -1.11665e-15 0)
(3 -1.07683e-15 0)
(3 -7.80315e-16 0)
(3 4.2624e-16 0)
(3 6.14025e-16 0)
(3 -1.17497e-16 0)
(3 -7.25495e-16 0)
(3 -6.57205e-16 0)
(3 -4.80148e-16 0)
(3 -4.46939e-16 0)
(3 -1.05013e-15 0)
(3 -1.37311e-15 0)
(3 -5.65768e-15 0)
(1.62254 0.0988839 0)
(0.793543 0.0835703 0)
(0.750349 0.096305 0)
(0.735927 0.0997939 0)
(0.719099 0.100271 0)
(0.702049 0.0986878 0)
(0.683957 0.0951741 0)
(0.66573 0.091123 0)
(0.648629 0.0892329 0)
(0.633686 0.0909412 0)
(0.620675 0.0953634 0)
(0.608549 0.100823 0)
(0.595848 0.105656 0)
(0.581211 0.107954 0)
(0.564987 0.106915 0)
(0.548031 0.102831 0)
(0.531157 0.0995394 0)
(0.515407 0.10091 0)
(0.501413 0.106311 0)
(0.487151 0.111415 0)
(0.471851 0.112271 0)
(0.456199 0.109511 0)
(0.43963 0.109253 0)
(0.423432 0.113644 0)
(0.407079 0.118012 0)
(0.390656 0.118403 0)
(0.374385 0.117842 0)
(0.357928 0.119293 0)
(0.341262 0.12168 0)
(0.324305 0.123382 0)
(0.307072 0.124644 0)
(0.289551 0.126112 0)
(0.271721 0.127677 0)
(0.253523 0.129155 0)
(0.23495 0.130694 0)
(0.21608 0.132176 0)
(0.197092 0.133587 0)
(0.178153 0.135051 0)
(0.159344 0.136154 0)
(0.140702 0.137197 0)
(0.122163 0.13805 0)
(0.103657 0.139848 0)
(0.0850364 0.142348 0)
(0.0661885 0.145233 0)
(0.0475036 0.148902 0)
(0.0285081 0.151412 0)
(0.00986039 0.154676 0)
(3 -7.56786e-17 0)
(3 3.97804e-16 0)
(3 9.51705e-16 0)
(3 1.26665e-15 0)
(3 1.08137e-15 0)
(3 4.6828e-16 0)
(3 -4.06493e-17 0)
(3 3.13062e-16 0)
(3 1.10944e-15 0)
(3 1.2098e-15 0)
(3 1.53361e-15 0)
(3 1.43107e-15 0)
(3 1.07529e-15 0)
(3 7.27324e-16 0)
(3 1.06512e-15 0)
(3 1.27462e-15 0)
(3 1.49403e-15 0)
(3 1.43385e-15 0)
(3 1.09796e-15 0)
(3 3.61342e-16 0)
(3 -2.86737e-16 0)
(3 -1.5077e-16 0)
(3 -9.74291e-16 0)
(3 -1.3762e-15 0)
(3 -2.08029e-16 0)
(3 -1.97095e-17 0)
(3 -7.16424e-17 0)
(3 -2.84567e-16 0)
(3 1.01288e-16 0)
(3 7.03885e-16 0)
(3 9.4968e-16 0)
(3 8.2301e-16 0)
(3 1.03306e-15 0)
(3 7.42316e-16 0)
(3 -7.68733e-18 0)
(3 -6.3118e-16 0)
(3 -6.17392e-16 0)
(3 -2.31193e-16 0)
(3 -3.44189e-17 0)
(3 3.02241e-16 0)
(3 2.9571e-16 0)
(3 -3.6292e-16 0)
(3 -1.96773e-15 0)
(3 -1.79854e-15 0)
(3 -1.48556e-15 0)
(3 -7.60133e-16 0)
(3 -1.29194e-15 0)
(3 -2.35584e-15 0)
(3 -6.32699e-15 0)
(1.72433 0.111464 0)
(0.801232 0.0974448 0)
(0.751454 0.107573 0)
(0.737852 0.112746 0)
(0.720928 0.113925 0)
(0.704238 0.113506 0)
(0.686389 0.110749 0)
(0.668045 0.106413 0)
(0.65032 0.10301 0)
(0.634377 0.102949 0)
(0.62065 0.106387 0)
(0.608332 0.111903 0)
(0.596033 0.117787 0)
(0.582014 0.121627 0)
(0.566091 0.121944 0)
(0.549247 0.118572 0)
(0.53234 0.114553 0)
(0.5162 0.114684 0)
(0.501946 0.119515 0)
(0.487845 0.125055 0)
(0.472516 0.126902 0)
(0.456808 0.124667 0)
(0.440277 0.124437 0)
(0.424158 0.128783 0)
(0.407928 0.133248 0)
(0.391566 0.133774 0)
(0.375272 0.133403 0)
(0.358804 0.135186 0)
(0.342204 0.137997 0)
(0.325373 0.140093 0)
(0.308285 0.141713 0)
(0.290864 0.14355 0)
(0.273044 0.145496 0)
(0.254766 0.147368 0)
(0.236069 0.149312 0)
(0.217083 0.151138 0)
(0.198033 0.152758 0)
(0.179097 0.154303 0)
(0.160314 0.155341 0)
(0.141664 0.156256 0)
(0.123039 0.156888 0)
(0.104371 0.15854 0)
(0.0855231 0.160954 0)
(0.0664904 0.16379 0)
(0.0476711 0.167679 0)
(0.0285559 0.170386 0)
(0.00989916 0.174069 0)
(3 1.18224e-16 0)
(3 1.34298e-16 0)
(3 -3.59896e-17 0)
(3 2.40585e-16 0)
(3 -1.28797e-16 0)
(3 -7.04102e-17 0)
(3 -4.81142e-17 0)
(3 -5.5508e-16 0)
(3 1.98115e-16 0)
(3 1.285e-15 0)
(3 1.37636e-15 0)
(3 1.26986e-15 0)
(3 1.01575e-15 0)
(3 1.01075e-15 0)
(3 9.36168e-16 0)
(3 8.78001e-16 0)
(3 -1.71185e-16 0)
(3 -2.82251e-17 0)
(3 2.8995e-16 0)
(3 2.97939e-16 0)
(3 3.24189e-16 0)
(3 2.97222e-16 0)
(3 7.82477e-16 0)
(3 7.98676e-16 0)
(3 1.86683e-15 0)
(3 1.87902e-15 0)
(3 1.70778e-15 0)
(3 5.85731e-16 0)
(3 1.00114e-17 0)
(3 -1.01537e-15 0)
(3 -1.45407e-15 0)
(3 -9.80144e-16 0)
(3 -1.62982e-16 0)
(3 2.29487e-16 0)
(3 -5.70035e-16 0)
(3 -5.75477e-16 0)
(3 1.48129e-16 0)
(3 5.3707e-17 0)
(3 -2.58018e-16 0)
(3 -1.27764e-15 0)
(3 -1.27645e-15 0)
(3 -1.30463e-15 0)
(3 -2.10175e-15 0)
(3 -1.48438e-15 0)
(3 -9.25763e-16 0)
(3 -4.95749e-16 0)
(3 -1.04945e-15 0)
(3 -3.19224e-15 0)
(3 -4.35618e-15 0)
(1.84704 0.122719 0)
(0.812938 0.112303 0)
(0.752646 0.11817 0)
(0.740211 0.125325 0)
(0.723372 0.127107 0)
(0.707398 0.127672 0)
(0.690257 0.125814 0)
(0.672367 0.121632 0)
(0.654482 0.117247 0)
(0.637764 0.115582 0)
(0.623111 0.117735 0)
(0.610313 0.122921 0)
(0.598303 0.129506 0)
(0.585094 0.134767 0)
(0.569725 0.136429 0)
(0.553163 0.134015 0)
(0.536364 0.129626 0)
(0.519904 0.128601 0)
(0.50519 0.132757 0)
(0.491077 0.138635 0)
(0.475669 0.141454 0)
(0.459848 0.139773 0)
(0.443329 0.139538 0)
(0.427172 0.143757 0)
(0.410904 0.1483 0)
(0.394421 0.14906 0)
(0.377931 0.148956 0)
(0.361301 0.151083 0)
(0.344614 0.154318 0)
(0.327748 0.156825 0)
(0.310648 0.158826 0)
(0.293196 0.161039 0)
(0.275301 0.163367 0)
(0.256922 0.16563 0)
(0.238139 0.167975 0)
(0.219121 0.170135 0)
(0.200118 0.17194 0)
(0.181286 0.173551 0)
(0.162597 0.174541 0)
(0.143949 0.175394 0)
(0.125174 0.175899 0)
(0.106217 0.177498 0)
(0.0869741 0.179897 0)
(0.0675594 0.18268 0)
(0.0483992 0.186768 0)
(0.0289481 0.189629 0)
(0.0100481 0.193678 0)
(3 -3.99207e-17 0)
(3 -5.04128e-16 0)
(3 -1.00496e-15 0)
(3 -7.25053e-16 0)
(3 -6.18364e-16 0)
(3 -4.88131e-16 0)
(3 -2.85026e-16 0)
(3 -1.02833e-15 0)
(3 -8.00257e-16 0)
(3 2.8679e-16 0)
(3 7.14855e-16 0)
(3 1.01633e-15 0)
(3 1.82902e-15 0)
(3 1.83202e-15 0)
(3 6.24452e-16 0)
(3 -1.01684e-16 0)
(3 -3.78201e-16 0)
(3 -7.26465e-17 0)
(3 1.75289e-16 0)
(3 3.91421e-16 0)
(3 4.72906e-16 0)
(3 7.17182e-16 0)
(3 1.67178e-15 0)
(3 2.37855e-15 0)
(3 2.56393e-15 0)
(3 2.41075e-15 0)
(3 2.05548e-15 0)
(3 1.24488e-15 0)
(3 -3.74805e-18 0)
(3 -7.28043e-16 0)
(3 -2.29791e-15 0)
(3 -3.29453e-15 0)
(3 -2.40826e-15 0)
(3 -1.14769e-15 0)
(3 -5.67768e-16 0)
(3 -1.26544e-16 0)
(3 2.46947e-16 0)
(3 1.27149e-16 0)
(3 -1.6919e-15 0)
(3 -2.45587e-15 0)
(3 -2.43415e-15 0)
(3 -1.70352e-15 0)
(3 -1.07302e-15 0)
(3 -4.41402e-17 0)
(3 5.5208e-16 0)
(3 4.86338e-16 0)
(3 -1.22932e-15 0)
(3 -2.34992e-15 0)
(3 -6.41326e-15 0)
(1.9889 0.131356 0)
(0.828372 0.128666 0)
(0.75274 0.12906 0)
(0.741196 0.137564 0)
(0.724571 0.139874 0)
(0.709199 0.141248 0)
(0.6927 0.140405 0)
(0.675233 0.136951 0)
(0.657287 0.132296 0)
(0.639968 0.129163 0)
(0.624366 0.129904 0)
(0.610781 0.13422 0)
(0.598743 0.140983 0)
(0.586361 0.147431 0)
(0.57188 0.150494 0)
(0.555771 0.149237 0)
(0.539172 0.144949 0)
(0.522574 0.142964 0)
(0.507441 0.146347 0)
(0.493361 0.152428 0)
(0.478067 0.156116 0)
(0.462327 0.154981 0)
(0.446046 0.154697 0)
(0.430019 0.158735 0)
(0.413871 0.163377 0)
(0.397369 0.164484 0)
(0.38078 0.164707 0)
(0.364071 0.167169 0)
(0.347339 0.1708 0)
(0.33044 0.173712 0)
(0.313317 0.176092 0)
(0.295844 0.178667 0)
(0.277936 0.181341 0)
(0.259569 0.183944 0)
(0.240846 0.186629 0)
(0.221942 0.18907 0)
(0.203099 0.191034 0)
(0.184438 0.19273 0)
(0.165846 0.193755 0)
(0.147147 0.194686 0)
(0.128126 0.19522 0)
(0.108767 0.196895 0)
(0.0890192 0.199366 0)
(0.0691009 0.202095 0)
(0.049484 0.206347 0)
(0.0295715 0.209303 0)
(0.0102713 0.213645 0)
(3 -1.54182e-16 0)
(3 -4.79902e-16 0)
(3 -8.48581e-16 0)
(3 -7.51156e-16 0)
(3 -8.33947e-16 0)
(3 -7.86462e-16 0)
(3 -4.46124e-16 0)
(3 -5.13182e-16 0)
(3 -1.36268e-16 0)
(3 -2.56076e-16 0)
(3 -1.90621e-16 0)
(3 4.81453e-16 0)
(3 1.52386e-15 0)
(3 2.30415e-15 0)
(3 1.73501e-15 0)
(3 1.04675e-15 0)
(3 9.16277e-16 0)
(3 5.4879e-16 0)
(3 8.74459e-17 0)
(3 -2.88046e-16 0)
(3 4.79076e-17 0)
(3 1.3317e-15 0)
(3 2.13034e-15 0)
(3 2.80483e-15 0)
(3 3.04024e-15 0)
(3 2.81425e-15 0)
(3 2.25727e-15 0)
(3 1.62305e-15 0)
(3 5.39481e-16 0)
(3 -3.47101e-17 0)
(3 -6.08906e-16 0)
(3 -1.09092e-15 0)
(3 -1.19301e-15 0)
(3 -1.22981e-15 0)
(3 -3.84954e-16 0)
(3 -1.30107e-16 0)
(3 -1.09491e-16 0)
(3 -1.81222e-16 0)
(3 -3.36695e-16 0)
(3 -1.9676e-15 0)
(3 -2.41733e-15 0)
(3 -8.01323e-16 0)
(3 2.20956e-17 0)
(3 -6.43795e-16 0)
(3 -8.608e-16 0)
(3 -1.79703e-15 0)
(3 -2.29339e-15 0)
(3 -2.00874e-15 0)
(3 -2.75775e-15 0)
(2.14585 0.138196 0)
(0.846367 0.149155 0)
(0.749775 0.139815 0)
(0.738721 0.148843 0)
(0.722957 0.151797 0)
(0.708938 0.154034 0)
(0.693817 0.154268 0)
(0.677464 0.151911 0)
(0.659951 0.14771 0)
(0.642211 0.143823 0)
(0.625587 0.142972 0)
(0.610932 0.146091 0)
(0.598243 0.152334 0)
(0.586292 0.159427 0)
(0.572749 0.163881 0)
(0.557283 0.163935 0)
(0.541052 0.160155 0)
(0.524586 0.157432 0)
(0.509225 0.159977 0)
(0.495279 0.166103 0)
(0.480287 0.170564 0)
(0.464737 0.170015 0)
(0.448794 0.169649 0)
(0.43298 0.1735 0)
(0.417078 0.178327 0)
(0.400649 0.179922 0)
(0.384053 0.180548 0)
(0.367342 0.183339 0)
(0.350606 0.187334 0)
(0.333681 0.190636 0)
(0.316531 0.193398 0)
(0.299054 0.196329 0)
(0.281187 0.19932 0)
(0.262922 0.202205 0)
(0.24436 0.205162 0)
(0.225642 0.20784 0)
(0.20697 0.20997 0)
(0.188418 0.21183 0)
(0.169796 0.213042 0)
(0.150888 0.214241 0)
(0.131459 0.214984 0)
(0.111565 0.216868 0)
(0.0912263 0.219489 0)
(0.0707432 0.222149 0)
(0.0506382 0.22651 0)
(0.0302442 0.229502 0)
(0.0104984 0.23406 0)
(3 1.87911e-16 0)
(3 1.07505e-16 0)
(3 -3.23814e-16 0)
(3 -5.2921e-16 0)
(3 -5.99485e-16 0)
(3 -5.99405e-16 0)
(3 -5.30184e-16 0)
(3 -1.38643e-16 0)
(3 -8.21672e-17 0)
(3 1.01056e-16 0)
(3 2.79287e-16 0)
(3 7.12645e-16 0)
(3 1.03993e-15 0)
(3 1.26866e-15 0)
(3 1.36796e-15 0)
(3 6.17018e-16 0)
(3 -8.84816e-17 0)
(3 -1.92707e-16 0)
(3 3.39064e-16 0)
(3 5.65622e-17 0)
(3 1.84223e-15 0)
(3 1.78658e-15 0)
(3 1.48792e-15 0)
(3 1.33909e-15 0)
(3 1.19951e-15 0)
(3 2.16632e-15 0)
(3 2.3402e-15 0)
(3 2.06369e-15 0)
(3 1.59331e-15 0)
(3 1.13423e-15 0)
(3 6.5026e-17 0)
(3 -1.98768e-16 0)
(3 -1.06289e-15 0)
(3 -1.39687e-15 0)
(3 -9.97958e-16 0)
(3 -1.02404e-15 0)
(3 -1.2684e-15 0)
(3 -8.6932e-16 0)
(3 1.86927e-16 0)
(3 -4.0757e-18 0)
(3 -4.64167e-16 0)
(3 2.80153e-17 0)
(3 1.45041e-16 0)
(3 -9.49424e-16 0)
(3 -1.5459e-15 0)
(3 -1.69973e-15 0)
(3 -2.09435e-15 0)
(3 -2.48032e-15 0)
(3 -5.02518e-15 0)
(2.32557 0.142389 0)
(0.875135 0.171355 0)
(0.752615 0.152663 0)
(0.740482 0.160319 0)
(0.725949 0.163357 0)
(0.713072 0.166077 0)
(0.6989 0.167311 0)
(0.683057 0.166424 0)
(0.665421 0.163449 0)
(0.646972 0.159626 0)
(0.62923 0.157491 0)
(0.613414 0.159 0)
(0.59987 0.16422 0)
(0.587845 0.171293 0)
(0.574892 0.176809 0)
(0.559821 0.178264 0)
(0.543562 0.175358 0)
(0.526885 0.172157 0)
(0.510987 0.173798 0)
(0.496841 0.179775 0)
(0.482032 0.184887 0)
(0.466582 0.184965 0)
(0.450906 0.184463 0)
(0.435324 0.188122 0)
(0.419772 0.193231 0)
(0.403511 0.195433 0)
(0.387007 0.196511 0)
(0.370406 0.199605 0)
(0.353783 0.203912 0)
(0.336957 0.207572 0)
(0.319921 0.210698 0)
(0.302591 0.213969 0)
(0.284913 0.21725 0)
(0.266872 0.220373 0)
(0.248541 0.223561 0)
(0.230003 0.226478 0)
(0.211407 0.228843 0)
(0.192796 0.231009 0)
(0.173938 0.232594 0)
(0.154629 0.23425 0)
(0.134649 0.23535 0)
(0.114149 0.237528 0)
(0.0932202 0.240335 0)
(0.0721982 0.242878 0)
(0.0516615 0.247251 0)
(0.0308604 0.250215 0)
(0.0106892 0.254903 0)
(3 -5.97305e-18 0)
(3 1.17161e-16 0)
(3 3.06791e-16 0)
(3 1.97158e-16 0)
(3 2.08919e-16 0)
(3 2.55306e-16 0)
(3 -2.22781e-16 0)
(3 -1.59111e-16 0)
(3 -2.44846e-16 0)
(3 -2.12296e-16 0)
(3 1.11594e-15 0)
(3 1.01313e-15 0)
(3 5.01228e-16 0)
(3 -2.10187e-16 0)
(3 -1.23192e-16 0)
(3 1.91919e-17 0)
(3 -5.45663e-16 0)
(3 -5.16539e-16 0)
(3 3.07602e-16 0)
(3 5.36427e-16 0)
(3 4.48932e-16 0)
(3 4.72875e-16 0)
(3 2.492e-16 0)
(3 -2.23714e-16 0)
(3 -2.24525e-16 0)
(3 5.68658e-16 0)
(3 1.09402e-15 0)
(3 1.10632e-15 0)
(3 1.43967e-15 0)
(3 1.3939e-15 0)
(3 1.08251e-15 0)
(3 9.55299e-17 0)
(3 -8.00367e-16 0)
(3 -1.75117e-15 0)
(3 -1.80672e-15 0)
(3 -1.68202e-15 0)
(3 -1.39814e-15 0)
(3 -4.62892e-16 0)
(3 1.21343e-15 0)
(3 2.22207e-15 0)
(3 1.60015e-15 0)
(3 2.60983e-16 0)
(3 -2.44371e-16 0)
(3 -9.71236e-16 0)
(3 -1.43112e-15 0)
(3 -1.2855e-15 0)
(3 -1.15623e-15 0)
(3 -1.70601e-15 0)
(3 -4.97348e-15 0)
(2.5138 0.141652 0)
(0.911866 0.193738 0)
(0.761782 0.165476 0)
(0.748802 0.170181 0)
(0.73501 0.173349 0)
(0.722687 0.176756 0)
(0.708799 0.179541 0)
(0.692876 0.18077 0)
(0.674913 0.179571 0)
(0.656008 0.176287 0)
(0.637579 0.173069 0)
(0.62075 0.17273 0)
(0.606094 0.17651 0)
(0.593303 0.183227 0)
(0.580219 0.189658 0)
(0.565003 0.192695 0)
(0.54818 0.191041 0)
(0.530905 0.187606 0)
(0.514235 0.18818 0)
(0.499618 0.193675 0)
(0.48492 0.1992 0)
(0.469447 0.19992 0)
(0.453787 0.199215 0)
(0.438212 0.20263 0)
(0.422851 0.208067 0)
(0.406643 0.210953 0)
(0.39016 0.212486 0)
(0.373672 0.215815 0)
(0.35724 0.220358 0)
(0.34064 0.224324 0)
(0.323855 0.227796 0)
(0.306779 0.231413 0)
(0.28933 0.23501 0)
(0.271471 0.238412 0)
(0.253256 0.241892 0)
(0.234728 0.245149 0)
(0.216001 0.247884 0)
(0.197123 0.25051 0)
(0.177846 0.252619 0)
(0.158014 0.254848 0)
(0.137438 0.256381 0)
(0.116361 0.258877 0)
(0.0949284 0.261866 0)
(0.0734435 0.264235 0)
(0.0525472 0.268526 0)
(0.0314184 0.271386 0)
(0.0108427 0.27613 0)
(3 -4.42144e-18 0)
(3 6.07876e-17 0)
(3 4.29594e-16 0)
(3 4.78061e-16 0)
(3 1.40041e-16 0)
(3 7.64696e-17 0)
(3 3.38773e-16 0)
(3 5.55224e-16 0)
(3 7.49393e-16 0)
(3 1.05042e-15 0)
(3 5.93135e-16 0)
(3 -8.82466e-17 0)
(3 -2.97231e-16 0)
(3 -4.74845e-16 0)
(3 -3.9024e-16 0)
(3 2.86789e-16 0)
(3 1.32469e-15 0)
(3 1.12622e-15 0)
(3 1.00606e-15 0)
(3 1.21596e-15 0)
(3 1.04978e-15 0)
(3 8.97936e-16 0)
(3 5.17012e-16 0)
(3 1.3875e-16 0)
(3 6.88087e-17 0)
(3 -3.29414e-16 0)
(3 -4.22849e-16 0)
(3 2.47582e-17 0)
(3 3.81073e-16 0)
(3 1.40759e-15 0)
(3 1.85994e-15 0)
(3 1.00196e-15 0)
(3 -5.02592e-18 0)
(3 -7.13973e-16 0)
(3 -1.599e-15 0)
(3 -1.43512e-15 0)
(3 -9.97293e-16 0)
(3 -7.294e-17 0)
(3 1.54817e-15 0)
(3 2.43532e-15 0)
(3 1.79072e-15 0)
(3 1.01962e-15 0)
(3 -1.86034e-17 0)
(3 -9.39505e-16 0)
(3 -1.17937e-15 0)
(3 -1.22561e-15 0)
(3 -8.00826e-16 0)
(3 -1.19451e-15 0)
(3 -1.86369e-15 0)
(2.70092 0.130924 0)
(0.95969 0.209228 0)
(0.77499 0.176715 0)
(0.76185 0.180446 0)
(0.748155 0.182694 0)
(0.735723 0.187204 0)
(0.721738 0.191943 0)
(0.705942 0.195217 0)
(0.688326 0.195511 0)
(0.669714 0.192817 0)
(0.6511 0.188959 0)
(0.633395 0.187024 0)
(0.617315 0.189272 0)
(0.603083 0.195463 0)
(0.589154 0.202787 0)
(0.573386 0.20754 0)
(0.555829 0.207372 0)
(0.537918 0.203901 0)
(0.520481 0.203223 0)
(0.505139 0.207884 0)
(0.490313 0.213644 0)
(0.474491 0.21515 0)
(0.458377 0.21431 0)
(0.442376 0.217393 0)
(0.426867 0.223102 0)
(0.410521 0.22664 0)
(0.393931 0.228524 0)
(0.377499 0.231953 0)
(0.361265 0.236623 0)
(0.344923 0.240844 0)
(0.328397 0.244665 0)
(0.311536 0.248681 0)
(0.294212 0.252689 0)
(0.276381 0.256484 0)
(0.258119 0.260374 0)
(0.239469 0.264093 0)
(0.220519 0.267303 0)
(0.201327 0.270472 0)
(0.181623 0.273168 0)
(0.161299 0.276014 0)
(0.140186 0.278011 0)
(0.11861 0.280834 0)
(0.0967528 0.284007 0)
(0.0748236 0.286179 0)
(0.0535515 0.290331 0)
(0.0320488 0.293022 0)
(0.0110162 0.297775 0)