/*--------------------------------*- C++ -*----------------------------------*\
  =========                 |
  \\      /  F ield         | OpenFOAM: The Open Source CFD Toolbox
   \\    /   O peration     | Website:  https://openfoam.org
    \\  /    A nd           | Version:  7
     \\/     M anipulation  |
\*---------------------------------------------------------------------------*/
FoamFile
{
    version     2.0;
    format      ascii;
    class       volScalarField;
    location    "0.8";
    object      rho;
}
// * * * * * * * * * * * * * * * * * * * * * * * * * * * * * * * * * * * * * //

dimensions      [1 -3 0 0 0 0 0];

internalField   nonuniform List<scalar> 
4032
(
1.40001
1.40001
1.40001
1.40001
1.40001
1.40001
1.40001
1.40001
1.40001
1.40001
1.40001
1.40001
1.40001
1.80363
4.70283
5.51438
5.48551
5.56376
5.65616
5.74373
5.78193
5.71197
5.57455
5.49297
1.40001
1.40001
1.40001
1.40001
1.40001
1.40001
1.40001
1.40001
1.40001
1.40001
1.40001
1.40001
1.40001
1.75872
4.61638
5.49559
5.48487
5.56065
5.65279
5.73389
5.76358
5.68751
5.54825
5.46775
1.40001
1.40001
1.40001
1.40001
1.40001
1.40001
1.40001
1.40001
1.40001
1.40001
1.40001
1.40001
1.40001
1.66009
4.47275
5.48597
5.47531
5.55135
5.64417
5.71758
5.73632
5.65247
5.50892
5.42911
1.40001
1.40001
1.40001
1.40001
1.40001
1.40001
1.40001
1.40001
1.40001
1.40001
1.40001
1.40001
1.40001
1.51477
4.22923
5.47661
5.47026
5.54341
5.62812
5.68868
5.69719
5.60585
5.45568
5.37213
1.40001
1.40001
1.40001
1.40001
1.40001
1.40001
1.40001
1.40001
1.40001
1.40001
1.40001
1.40001
1.40001
1.40749
3.8761
5.43271
5.44222
5.51411
5.59203
5.6397
5.63487
5.53945
5.3853
5.30688
1.40001
1.40001
1.40001
1.40001
1.40001
1.40001
1.40001
1.40001
1.40001
1.40001
1.40001
1.40001
1.40001
1.40006
3.42121
5.33485
5.4153
5.47827
5.54419
5.57928
5.57559
5.48343
5.31878
5.20846
1.40001
1.40001
1.40001
1.40001
1.40001
1.40001
1.40001
1.40001
1.40001
1.40001
1.40001
1.40001
1.40001
1.40001
2.91555
5.19525
5.40351
5.44226
5.48774
5.5033
5.48247
5.37035
5.18556
5.05912
1.40001
1.40001
1.40001
1.40001
1.40001
1.40001
1.40001
1.40001
1.40001
1.40001
1.40001
1.40001
1.40001
1.40001
2.35984
5.00582
5.40295
5.40569
5.41918
5.40755
5.36435
5.24679
5.03594
4.8894
1.40001
1.40001
1.40001
1.40001
1.40001
1.40001
1.40001
1.40001
1.40001
1.40001
1.40001
1.40001
1.40001
1.40001
1.81095
4.71965
5.44726
5.41096
5.37795
5.32244
5.22743
5.04831
4.6389
3.70845
1.40001
1.40001
1.40001
1.40001
1.40001
1.40001
1.40001
1.40001
1.40001
1.40001
1.40001
1.40001
1.40001
1.40001
1.44103
4.11058
5.34128
5.29038
5.25526
5.18725
5.06906
4.8345
4.43337
3.48016
1.40001
1.40001
1.40001
1.40001
1.40001
1.40001
1.40001
1.40001
1.40001
1.40001
1.40001
1.40001
1.40001
1.40001
1.40034
3.20483
5.16424
5.20011
5.16006
5.07752
4.93779
4.67954
4.28436
3.44011
1.40001
1.40001
1.40001
1.40001
1.40001
1.40001
1.40001
1.40001
1.40001
1.40001
1.40001
1.40001
1.40001
1.40001
1.4
2.23467
4.91605
5.16767
5.074
4.96761
4.79889
4.55327
4.13146
3.45863
1.40001
1.40001
1.40001
1.40001
1.40001
1.40001
1.40001
1.40001
1.40001
1.40001
1.40001
1.40001
1.40001
1.40001
1.40001
1.52739
4.21884
5.11495
4.99088
4.87558
4.69462
4.45319
4.05421
3.53841
1.40001
1.40001
1.40001
1.40001
1.40001
1.40001
1.40001
1.40001
1.40001
1.40001
1.40001
1.40001
1.40001
1.40001
1.40001
1.40213
2.98892
4.96216
4.966
4.83076
4.63961
4.38778
4.02776
3.60496
1.40001
1.40001
1.40001
1.40001
1.40001
1.40001
1.40001
1.40001
1.40001
1.40001
1.40001
1.40001
1.40001
1.40001
1.40001
1.4
1.75101
4.52566
4.98206
4.78982
4.60275
4.35318
4.03901
3.67605
1.40001
1.40001
1.40001
1.40001
1.40001
1.40001
1.40001
1.40001
1.40001
1.40001
1.40001
1.40001
1.40001
1.40001
1.40001
1.4
1.41635
3.27166
4.83269
4.77201
4.58194
4.34498
4.05614
3.72999
1.40001
1.40001
1.40001
1.40001
1.40001
1.40001
1.40001
1.40001
1.40001
1.40001
1.40001
1.40001
1.40001
1.40001
1.40001
1.40001
1.40004
1.8636
4.40953
4.83683
4.59506
4.35551
4.07837
3.78382
1.40001
1.40001
1.40001
1.40001
1.40001
1.40001
1.40001
1.40001
1.40001
1.40001
1.40001
1.40001
1.40001
1.40001
1.40001
1.40001
1.40001
1.42635
3.0437
4.68012
4.60774
4.37035
4.12845
3.86144
1.40001
1.40001
1.40001
1.40001
1.40001
1.40001
1.40001
1.40001
1.40001
1.40001
1.40001
1.40001
1.40001
1.40001
1.40001
1.40001
1.40001
1.40015
1.74784
4.03203
4.69053
4.44623
4.1891
3.92719
1.40001
1.40001
1.40001
1.40001
1.40001
1.40001
1.40001
1.40001
1.40001
1.40001
1.40001
1.40001
1.40001
1.40001
1.40001
1.40001
1.40001
1.40001
1.41341
2.48035
4.37434
4.53002
4.2596
4.0187
1.40001
1.40001
1.40001
1.40001
1.40001
1.40001
1.40001
1.40001
1.40001
1.40001
1.40001
1.40001
1.40001
1.40001
1.40001
1.40001
1.40001
1.40001
1.40007
1.54056
3.27372
4.44889
4.32554
4.0715
1.40001
1.40001
1.40001
1.40001
1.40001
1.40001
1.40001
1.40001
1.40001
1.40001
1.40001
1.40001
1.40001
1.40001
1.40001
1.40001
1.40001
1.40001
1.40001
1.40264
1.88746
3.81875
4.39377
4.192
1.40001
1.40001
1.40001
1.40001
1.40001
1.40001
1.40001
1.40001
1.40001
1.40001
1.40001
1.40001
1.40001
1.40001
1.40001
1.40001
1.40001
1.40001
1.40001
1.40001
1.42751
2.35544
4.04261
4.27262
1.40001
1.40001
1.40001
1.40001
1.40001
1.40001
1.40001
1.40001
1.40001
1.40001
1.40001
1.40001
1.40001
1.40001
1.40001
1.40001
1.40001
1.40001
1.40001
1.40001
1.40026
1.50882
2.75793
4.09791
1.40001
1.40001
1.40001
1.40001
1.40001
1.40001
1.40001
1.40001
1.40001
1.40001
1.40001
1.40001
1.40001
1.40001
1.40001
1.40001
1.40001
1.40001
1.40001
1.40001
1.40001
1.40204
1.63671
3.05989
1.40001
1.40001
1.40001
1.40001
1.40001
1.40001
1.40001
1.40001
1.40001
1.40001
1.40001
1.40001
1.40001
1.40001
1.40001
1.40001
1.40001
1.40001
1.40001
1.40001
1.40001
1.40001
1.4076
1.78317
1.40001
1.40001
1.40001
1.40001
1.40001
1.40001
1.40001
1.40001
1.40001
1.40001
1.40001
1.40001
1.40001
1.40001
1.40001
1.40001
1.40001
1.40001
1.40001
1.40001
1.40001
1.40001
1.40005
1.41829
1.40001
1.40001
1.40001
1.40001
1.40001
1.40001
1.40001
1.40001
1.40001
1.40001
1.40001
1.40001
1.40001
1.40001
1.40001
1.40001
1.40001
1.40001
1.40001
1.40001
1.40001
1.40001
1.40001
1.40016
1.40001
1.40001
1.40001
1.40001
1.40001
1.40001
1.40001
1.40001
1.40001
1.40001
1.40001
1.40001
1.40001
1.40001
1.40001
1.40001
1.40001
1.40001
1.40001
1.40001
1.40001
1.40001
1.40001
1.40001
1.40001
1.40001
1.40001
1.40001
1.40001
1.40001
1.40001
1.40001
1.40001
1.40001
1.40001
1.40001
1.40001
1.40001
1.40001
1.40001
1.40001
1.40001
1.40001
1.40001
1.40001
1.40001
1.40001
1.40001
1.40001
1.40001
1.40001
1.40001
1.40001
1.40001
1.40001
1.40001
1.40001
1.40001
1.40001
1.40001
1.40001
1.40001
1.40001
1.40001
1.40001
1.40001
1.40001
1.40001
1.40001
1.40001
1.40001
1.40001
1.40001
1.40001
1.40001
1.40001
1.40001
1.40001
1.40001
1.40001
1.40001
1.40001
1.40001
1.40001
1.40001
1.40001
1.40001
1.40001
1.40001
1.40001
1.40001
1.40001
1.40001
1.40001
1.40001
1.40001
1.40001
1.40001
1.40001
1.40001
1.40001
1.40001
1.40001
1.40001
1.40001
1.40001
1.40001
1.40001
1.40001
1.40001
1.40001
1.40001
1.40001
1.40001
1.40001
1.40001
1.40001
1.40001
1.40001
1.40001
1.40001
1.40001
1.40001
1.40001
1.40001
1.40001
1.40001
1.40001
1.40001
1.40001
1.40001
1.40001
1.40001
1.40001
1.40001
1.40001
1.40001
1.40001
1.40001
1.40001
1.40001
1.40001
1.40001
1.40001
1.40001
1.40001
1.40001
1.40001
1.40001
1.40001
1.40001
1.40001
1.40001
1.40001
1.40001
1.40001
1.40001
1.40001
1.40001
1.40001
1.40001
1.40001
1.40001
1.40001
1.40001
1.40001
1.40001
1.40001
1.40001
1.40001
1.40001
1.40001
1.40001
1.40001
1.40001
1.40001
1.40001
1.40001
1.40001
1.40001
1.40001
1.40001
1.40001
1.40001
1.40001
1.40001
1.40001
1.40001
1.40001
1.40001
1.40001
1.40001
1.40001
1.40001
1.40001
1.40001
1.40001
1.40001
1.40001
1.40001
1.40001
1.40001
1.40001
1.40001
1.40001
1.40001
1.40001
1.40001
1.40001
1.40001
1.40001
1.40001
1.40001
1.40001
1.40001
1.40001
1.40001
1.40001
1.40001
1.40001
1.40001
1.40001
1.40001
1.40001
1.40001
1.40001
1.40001
1.40001
1.40001
1.40001
1.40001
1.40001
1.40001
1.40001
1.40001
1.40001
1.40001
1.40001
1.40001
1.40001
1.40001
1.40001
1.40001
1.40001
1.40001
1.40001
1.40001
1.40001
1.40001
1.40001
1.40001
1.40001
1.40001
1.40001
1.40001
1.40001
1.40001
1.40001
1.40001
1.40001
1.40001
1.40001
1.40001
1.40001
1.40001
1.40001
1.40001
1.40001
1.40001
1.40001
1.40001
1.40001
1.40001
1.40001
1.40001
1.40001
1.40001
1.40001
1.40001
1.40001
1.40001
1.40001
1.40001
1.40001
1.40001
1.40001
1.40001
1.40001
1.18786
0.447544
0.177999
0.181384
0.232579
0.276181
0.321734
0.400885
0.524577
0.615595
0.647525
0.674373
0.699623
0.717804
0.74448
0.784974
0.800709
0.798349
0.781954
0.764928
0.759828
0.755785
0.75208
0.749597
0.74443
0.738436
0.732584
0.726269
0.715955
0.704211
0.701005
0.699989
0.700292
0.704663
0.708488
0.707445
0.704195
0.697662
0.685997
0.677032
0.673929
0.671728
0.668955
0.666854
0.666322
0.66587
0.663097
0.658881
0.649471
0.636398
0.629629
0.628646
0.629452
0.630852
0.632528
0.634055
0.63532
0.636407
0.638769
0.643115
0.649327
0.65642
0.662203
0.666167
0.669225
0.67205
0.675565
0.679581
0.68367
0.68922
0.699378
0.718008
0.739616
0.751422
0.756732
0.761494
0.767453
0.772274
0.775921
0.780847
0.789322
0.803398
0.82549
0.857619
0.902716
0.963401
1.0474
1.16412
1.30582
1.40778
1.42829
1.42342
1.41253
1.40724
1.40433
1.40567
1.82609
1.14411
0.745853
0.598617
0.571335
0.512713
0.47425
0.486749
0.494489
0.518007
0.551614
0.588957
0.631306
0.675414
0.712849
0.75409
0.786305
0.79013
0.784039
0.773397
0.77721
0.778519
0.776095
0.771543
0.766153
0.762006
0.756049
0.749578
0.741826
0.7333
0.729519
0.726226
0.724338
0.724687
0.722995
0.718859
0.713779
0.707789
0.699096
0.693633
0.69092
0.686419
0.678757
0.671356
0.667012
0.663834
0.661466
0.657885
0.652113
0.647801
0.646613
0.644766
0.640718
0.636853
0.635418
0.635549
0.637389
0.64127
0.645696
0.651278
0.659188
0.664109
0.666299
0.668093
0.66995
0.672682
0.677316
0.683398
0.68965
0.696938
0.708605
0.728808
0.75034
0.756219
0.757957
0.760771
0.767334
0.774649
0.779346
0.784259
0.791935
0.804642
0.825004
0.855589
0.89602
0.950138
1.03528
1.17088
1.31475
1.40024
1.41672
1.41217
1.40311
1.39834
1.39609
1.39944
2.34787
1.70963
1.31705
1.0354
0.877036
0.747835
0.637875
0.618084
0.601457
0.577858
0.593677
0.632521
0.669584
0.697224
0.722538
0.750141
0.784114
0.805444
0.816802
0.828046
0.846081
0.861643
0.858702
0.850756
0.846017
0.837352
0.824265
0.808486
0.791288
0.779565
0.775584
0.770806
0.767511
0.766653
0.765203
0.76116
0.751999
0.741878
0.736892
0.734672
0.731861
0.726622
0.718232
0.70802
0.697273
0.684648
0.669519
0.661237
0.659956
0.661462
0.666318
0.669048
0.669503
0.667728
0.661584
0.65283
0.647656
0.6488
0.653011
0.660833
0.67376
0.68398
0.687146
0.688335
0.686892
0.684945
0.687074
0.691109
0.697787
0.707181
0.71934
0.73865
0.762886
0.771938
0.774143
0.774922
0.777588
0.784717
0.792804
0.799801
0.809218
0.823272
0.84382
0.872725
0.912175
0.967644
1.05425
1.19044
1.3289
1.38989
1.40412
1.40952
1.40961
1.40657
1.40495
1.41007
2.72575
2.17543
1.7318
1.44241
1.24425
1.07489
0.910424
0.853924
0.819637
0.756473
0.710948
0.71065
0.699974
0.676883
0.68105
0.694469
0.724524
0.757109
0.788781
0.8187
0.842696
0.870026
0.874073
0.877047
0.889122
0.895885
0.892731
0.881005
0.862155
0.847083
0.838756
0.830101
0.822774
0.818692
0.816855
0.81422
0.804506
0.793801
0.790473
0.787281
0.781693
0.773369
0.762215
0.749618
0.737022
0.721551
0.703496
0.696511
0.695004
0.694804
0.69738
0.700394
0.701447
0.701488
0.696664
0.685933
0.678874
0.678047
0.679698
0.685753
0.696434
0.706749
0.711457
0.713802
0.715162
0.716447
0.718797
0.721641
0.726384
0.733056
0.74064
0.752214
0.769841
0.786059
0.795284
0.801434
0.807077
0.815244
0.826456
0.836787
0.846678
0.859141
0.877281
0.903403
0.940588
0.996259
1.08474
1.21822
1.33515
1.37236
1.38374
1.3953
1.40847
1.41637
1.41799
1.41929
2.98332
2.53201
2.12501
1.78411
1.55181
1.36367
1.18686
1.10276
1.02936
0.939408
0.852332
0.821662
0.784804
0.730156
0.699385
0.704059
0.714417
0.718128
0.729834
0.760899
0.795526
0.826601
0.850125
0.866046
0.884245
0.902637
0.902174
0.892526
0.889594
0.89372
0.897594
0.894397
0.886104
0.878321
0.868636
0.856616
0.84266
0.833348
0.829763
0.827325
0.82498
0.819991
0.811226
0.797631
0.776927
0.750536
0.735738
0.73303
0.731707
0.731814
0.73592
0.738794
0.738913
0.738152
0.731993
0.719773
0.713929
0.713465
0.714333
0.719146
0.728973
0.737982
0.740465
0.742196
0.744794
0.748131
0.752089
0.757757
0.766021
0.772289
0.776665
0.782851
0.792406
0.803958
0.815626
0.827075
0.839023
0.852729
0.867423
0.880657
0.893071
0.907812
0.927733
0.955014
0.992943
1.04752
1.13079
1.24752
1.3396
1.36996
1.38199
1.39793
1.41964
1.42777
1.4257
1.42069
3.16006
2.7636
2.39736
2.08636
1.85509
1.6391
1.43055
1.31589
1.22966
1.13772
1.04696
0.994613
0.940698
0.869274
0.798159
0.789207
0.772695
0.744059
0.732074
0.735843
0.739744
0.742377
0.757002
0.787235
0.822702
0.865966
0.88666
0.884995
0.887483
0.897881
0.907023
0.9077
0.907316
0.909848
0.908387
0.899203
0.885121
0.873378
0.864275
0.857551
0.853689
0.850281
0.844302
0.831941
0.807911
0.778071
0.766374
0.764343
0.762811
0.763561
0.768468
0.769767
0.76902
0.767702
0.761925
0.750287
0.744752
0.744041
0.744283
0.747756
0.756816
0.767691
0.772977
0.775034
0.777862
0.78164
0.786438
0.793022
0.801404
0.808103
0.812649
0.817397
0.823317
0.831204
0.841716
0.854812
0.871167
0.890871
0.911456
0.931144
0.951198
0.972952
0.996351
1.02443
1.06453
1.12212
1.19929
1.28592
1.3424
1.36537
1.38211
1.40799
1.42836
1.42993
1.42653
1.4186
3.28739
2.94315
2.61641
2.30681
2.07664
1.87241
1.67864
1.54204
1.42805
1.29475
1.19397
1.13934
1.0834
1.00632
0.919091
0.887543
0.85832
0.816464
0.765268
0.755076
0.753434
0.742488
0.734138
0.738377
0.755149
0.78181
0.814009
0.842529
0.858683
0.877288
0.900876
0.908112
0.912983
0.916657
0.918277
0.918308
0.914979
0.908618
0.900522
0.889247
0.876556
0.867464
0.859012
0.847124
0.8295
0.807066
0.794362
0.792431
0.791479
0.793474
0.796352
0.794136
0.791512
0.788114
0.780913
0.771603
0.768513
0.76826
0.768965
0.773475
0.782611
0.793497
0.800788
0.803261
0.805901
0.810551
0.817614
0.82535
0.832463
0.838402
0.843601
0.848732
0.85428
0.861193
0.870918
0.885581
0.906174
0.929713
0.952991
0.9767
1.00244
1.0292
1.05688
1.09172
1.14315
1.20973
1.27266
1.31817
1.34503
1.36217
1.38257
1.41308
1.42821
1.42856
1.42534
1.41539
3.38587
3.07408
2.76693
2.49915
2.28499
2.06756
1.85648
1.72241
1.61105
1.47961
1.35509
1.27887
1.20883
1.12837
1.04437
1.01003
0.977515
0.931729
0.865371
0.835676
0.819615
0.79063
0.758079
0.74698
0.74789
0.748999
0.752625
0.765881
0.78892
0.816617
0.849379
0.881002
0.897597
0.904258
0.915698
0.924413
0.922599
0.920472
0.91836
0.910788
0.896901
0.882063
0.870031
0.860627
0.849187
0.8334
0.818587
0.814171
0.813304
0.814431
0.814041
0.809678
0.804875
0.800171
0.79475
0.790114
0.788614
0.78886
0.790799
0.796352
0.804161
0.813309
0.822533
0.825204
0.828023
0.835125
0.846261
0.854335
0.860262
0.86596
0.872201
0.878884
0.885081
0.891774
0.901944
0.919203
0.942037
0.965263
0.988598
1.01307
1.03797
1.06542
1.10313
1.16082
1.23663
1.29833
1.32466
1.33644
1.34685
1.35882
1.38026
1.41163
1.42428
1.42456
1.42215
1.41497
3.47329
3.19257
2.9163
2.64554
2.4294
2.23548
2.03966
1.88612
1.75632
1.61159
1.49578
1.41916
1.34926
1.25885
1.15726
1.10708
1.07022
1.02657
0.967713
0.920861
0.892939
0.85839
0.808583
0.769201
0.764787
0.763893
0.761025
0.758603
0.759679
0.763819
0.775871
0.796063
0.824924
0.853086
0.878233
0.910275
0.922721
0.923323
0.925614
0.922636
0.913421
0.90264
0.891515
0.881584
0.871112
0.859912
0.84521
0.829788
0.826432
0.825763
0.824325
0.81996
0.81571
0.81302
0.811832
0.811034
0.809811
0.809757
0.811333
0.814876
0.819166
0.825866
0.838077
0.84577
0.851465
0.863027
0.876117
0.881566
0.886318
0.89139
0.896772
0.903543
0.911948
0.922795
0.939117
0.960411
0.979861
0.998196
1.01924
1.04236
1.06767
1.10297
1.16501
1.25919
1.32298
1.336
1.33689
1.339
1.34615
1.35682
1.38078
1.41057
1.41841
1.4188
1.41764
1.41307
3.57243
3.30035
3.03655
2.78827
2.57734
2.37498
2.18143
2.03096
1.9018
1.7651
1.62752
1.52064
1.44809
1.37715
1.29594
1.22447
1.1679
1.11765
1.06244
1.01204
0.978022
0.945168
0.899987
0.845164
0.829227
0.819494
0.80483
0.789671
0.778079
0.769938
0.756537
0.753369
0.757533
0.774406
0.804494
0.842465
0.884036
0.911027
0.919688
0.920617
0.917535
0.914824
0.916796
0.913397
0.906018
0.89496
0.877281
0.852214
0.835867
0.832092
0.830293
0.829656
0.829397
0.830768
0.833755
0.833974
0.83315
0.830539
0.828659
0.829134
0.831035
0.837394
0.853187
0.87034
0.881661
0.893246
0.901114
0.90536
0.910227
0.914882
0.91922
0.926316
0.939486
0.961279
0.988324
1.00675
1.01711
1.02967
1.04816
1.07152
1.10336
1.16036
1.25823
1.32973
1.34311
1.34544
1.33916
1.33746
1.3423
1.3573
1.38888
1.40999
1.41246
1.41288
1.41193
1.41087
3.65395
3.39332
3.14872
2.91154
2.69743
2.50381
2.32306
2.16303
2.01873
1.8867
1.76891
1.66007
1.55675
1.46847
1.40187
1.33166
1.26469
1.21058
1.1585
1.10815
1.05808
1.01193
0.970436
0.928294
0.894847
0.867104
0.843875
0.830772
0.817385
0.796201
0.767639
0.756057
0.755525
0.754366
0.758436
0.774984
0.800695
0.83816
0.865131
0.88271
0.90036
0.916596
0.927098
0.932742
0.931858
0.926601
0.911966
0.882527
0.851417
0.842193
0.84002
0.840237
0.843327
0.848727
0.853474
0.854209
0.853317
0.848429
0.843514
0.843145
0.84521
0.854684
0.878216
0.903677
0.912826
0.917036
0.921462
0.925813
0.931031
0.93681
0.942408
0.953522
0.978583
1.01474
1.03705
1.04188
1.04555
1.05593
1.07506
1.1036
1.15219
1.24293
1.32647
1.34415
1.34827
1.34125
1.32941
1.33197
1.34289
1.36953
1.4003
1.40807
1.40875
1.40896
1.40839
1.40877
3.76564
3.51004
3.26305
3.03805
2.83029
2.62863
2.44827
2.29661
2.15415
2.01064
1.88646
1.77714
1.66699
1.57809
1.51491
1.44851
1.36962
1.28524
1.23224
1.19886
1.15478
1.10037
1.04931
1.01436
0.979041
0.938221
0.899177
0.887385
0.881087
0.862812
0.824825
0.797002
0.787203
0.777024
0.763011
0.75601
0.758071
0.767095
0.785099
0.809935
0.844897
0.887135
0.921367
0.932305
0.932459
0.931956
0.926247
0.90715
0.878698
0.866335
0.861716
0.860405
0.863015
0.865709
0.86722
0.867443
0.866225
0.86139
0.858618
0.859478
0.86426
0.880461
0.913581
0.933281
0.936849
0.938749
0.941646
0.945007
0.949829
0.958109
0.969504
0.99213
1.03286
1.06221
1.06812
1.06802
1.06979
1.08049
1.10245
1.14303
1.22106
1.31356
1.34168
1.34715
1.34462
1.3273
1.32715
1.33506
1.35629
1.38859
1.40372
1.40545
1.40605
1.40563
1.40512
1.40691
3.82956
3.59729
3.35891
3.12858
2.93262
2.75396
2.57909
2.41662
2.26812
2.13252
2.0187
1.91265
1.78894
1.66804
1.60844
1.56313
1.50111
1.41469
1.31224
1.26348
1.22653
1.1819
1.1302
1.09656
1.06607
1.02761
0.971665
0.929216
0.922574
0.911211
0.883703
0.847079
0.829901
0.815222
0.788321
0.763305
0.760255
0.7646
0.767881
0.772384
0.789994
0.82768
0.87439
0.905652
0.922888
0.92762
0.92605
0.914389
0.902219
0.895839
0.890486
0.887385
0.888014
0.885184
0.881777
0.87908
0.875243
0.873382
0.873707
0.876692
0.885942
0.906951
0.938124
0.952599
0.95617
0.959006
0.962491
0.966546
0.973293
0.985681
1.0069
1.04348
1.08066
1.0915
1.09313
1.09366
1.09992
1.11185
1.13776
1.19974
1.29332
1.3362
1.3436
1.34427
1.33065
1.32701
1.33386
1.3544
1.38535
1.39979
1.40098
1.40147
1.40108
1.40088
1.40183
1.4054
3.93956
3.70157
3.46685
3.24574
3.04555
2.86077
2.69392
2.54318
2.39512
2.24404
2.1171
2.01851
1.91703
1.80479
1.7053
1.63939
1.585
1.51697
1.42747
1.35897
1.31227
1.26002
1.19668
1.16395
1.14405
1.11382
1.06249
1.00293
0.98473
0.970509
0.945898
0.911088
0.891562
0.876943
0.848453
0.804016
0.785777
0.787023
0.785355
0.781717
0.782256
0.792523
0.818314
0.84736
0.871627
0.89281
0.909889
0.909453
0.905702
0.906204
0.908011
0.911699
0.912355
0.908379
0.903088
0.896721
0.892451
0.891661
0.892425
0.897772
0.90949
0.926697
0.945644
0.959539
0.968547
0.975745
0.982903
0.992233
1.00766
1.03085
1.06072
1.09272
1.1099
1.11386
1.11591
1.12262
1.13565
1.15314
1.18704
1.26142
1.32552
1.33828
1.34082
1.33453
1.32959
1.33507
1.35353
1.38212
1.39678
1.39863
1.39903
1.39754
1.39428
1.39443
1.39558
1.40295
4.07479
3.82843
3.59725
3.37674
3.17666
2.9936
2.81701
2.65338
2.51152
2.37575
2.24539
2.12754
2.02255
1.91478
1.8109
1.73665
1.67776
1.60924
1.51704
1.44316
1.39874
1.35059
1.28348
1.23882
1.21612
1.18264
1.13137
1.07102
1.05252
1.03807
1.01093
0.970543
0.947184
0.932589
0.905354
0.85496
0.820966
0.81847
0.815139
0.799753
0.793123
0.800574
0.809081
0.810945
0.816506
0.831594
0.857977
0.885077
0.897077
0.90324
0.910728
0.920526
0.923745
0.922734
0.922081
0.92091
0.919763
0.918928
0.920218
0.926507
0.935321
0.94455
0.954537
0.965581
0.977907
0.990692
1.00325
1.01828
1.04065
1.06948
1.09596
1.11491
1.12565
1.13059
1.13605
1.14637
1.16324
1.18755
1.22836
1.29285
1.32953
1.3358
1.33686
1.33701
1.3416
1.356
1.37997
1.39052
1.39199
1.39235
1.38983
1.38783
1.38914
1.3911
1.39291
1.40256
4.17045
3.97296
3.72049
3.50493
3.31816
3.13186
2.94737
2.78466
2.63908
2.48936
2.3459
2.23438
2.14511
2.0471
1.92788
1.81793
1.76236
1.7046
1.62555
1.54213
1.48569
1.43316
1.36169
1.31475
1.29288
1.26674
1.21286
1.13423
1.11094
1.09836
1.07382
1.03365
1.00681
0.993144
0.967785
0.92014
0.879004
0.873855
0.872959
0.860105
0.833156
0.829572
0.829437
0.821369
0.808311
0.807751
0.816233
0.839001
0.865419
0.884268
0.901726
0.920665
0.926817
0.927022
0.927703
0.92972
0.93383
0.93831
0.943767
0.951751
0.961654
0.970721
0.976846
0.984144
0.995605
1.01009
1.02586
1.04394
1.06646
1.09226
1.11537
1.13112
1.14066
1.148
1.15626
1.16818
1.18709
1.21695
1.26177
1.30783
1.3284
1.33544
1.34099
1.34912
1.36285
1.37795
1.3846
1.38631
1.38595
1.38027
1.37511
1.37584
1.37958
1.38737
1.39609
1.41377
4.07342
4.07959
3.88777
3.63834
3.44212
3.27245
3.09048
2.9089
2.76285
2.62672
2.48617
2.33681
2.23173
2.1532
2.05758
1.94636
1.86346
1.78905
1.70445
1.62897
1.58168
1.534
1.46444
1.38435
1.35848
1.34035
1.29385
1.21961
1.18121
1.16505
1.13954
1.09298
1.06166
1.04865
1.02852
0.988901
0.941213
0.93143
0.929606
0.916812
0.882287
0.861898
0.854029
0.839439
0.818885
0.815231
0.819431
0.826178
0.837158
0.85191
0.873299
0.898294
0.915288
0.920319
0.922451
0.925768
0.933415
0.942128
0.949741
0.959679
0.975076
0.99355
1.00641
1.01496
1.02424
1.03613
1.05146
1.07023
1.09067
1.11172
1.13273
1.15079
1.16442
1.17522
1.18587
1.19936
1.22167
1.25959
1.30353
1.32523
1.33222
1.33961
1.35025
1.36349
1.37411
1.37867
1.37968
1.3784
1.3726
1.37189
1.37369
1.37515
1.37803
1.38512
1.4015
1.4317
3.23265
4.01722
4.00577
3.81801
3.58637
3.38694
3.21752
3.06297
2.90247
2.74152
2.59902
2.46794
2.36069
2.26382
2.15681
2.04512
1.96513
1.89981
1.81563
1.71923
1.66302
1.61892
1.55823
1.4823
1.44443
1.41509
1.36786
1.29278
1.24704
1.23193
1.20895
1.16401
1.12087
1.10768
1.09042
1.05713
1.00855
0.994798
0.992512
0.980448
0.945802
0.910797
0.900039
0.887457
0.862224
0.843842
0.842003
0.843608
0.846576
0.853484
0.860722
0.873277
0.888716
0.899579
0.907031
0.914795
0.927316
0.941683
0.951832
0.962223
0.977754
0.998809
1.01911
1.03314
1.04267
1.05262
1.06731
1.08631
1.10509
1.12263
1.14122
1.16017
1.17819
1.19741
1.21843
1.24108
1.27001
1.31301
1.34255
1.34712
1.34929
1.35259
1.35756
1.36546
1.37117
1.37191
1.36981
1.36441
1.36462
1.36834
1.37425
1.3804
1.38992
1.40799
1.43514
1.4512
1.90223
3.31121
3.95532
3.93492
3.76985
3.54929
3.34517
3.18817
3.03925
2.88846
2.73736
2.58986
2.47223
2.38236
2.28938
2.17205
2.0524
1.98326
1.91297
1.82787
1.77023
1.72208
1.65344
1.55924
1.51559
1.49277
1.45242
1.38819
1.32601
1.29924
1.27266
1.22348
1.18406
1.17278
1.15989
1.13367
1.08164
1.05743
1.05065
1.03478
1.00198
0.963458
0.950046
0.939348
0.917072
0.882376
0.873569
0.868802
0.862039
0.861994
0.86574
0.874387
0.88921
0.904446
0.916078
0.926212
0.93714
0.950326
0.962532
0.973708
0.987746
1.00788
1.03255
1.05428
1.06902
1.08065
1.09372
1.11002
1.1261
1.14059
1.15498
1.17091
1.18867
1.2098
1.23643
1.26606
1.29991
1.34209
1.3614
1.3635
1.36283
1.35852
1.35754
1.3602
1.36309
1.36456
1.36347
1.36177
1.36348
1.36762
1.37385
1.38837
1.41651
1.44596
1.45828
1.45857
1.43085
1.98295
3.3012
3.88725
3.87459
3.73387
3.51226
3.33361
3.17883
3.01179
2.86939
2.75097
2.61927
2.4789
2.38655
2.29665
2.18148
2.09082
2.01288
1.91654
1.85447
1.81933
1.76419
1.67112
1.60079
1.56929
1.52679
1.46536
1.4108
1.38126
1.35003
1.29374
1.23919
1.23037
1.22523
1.20381
1.16089
1.13236
1.11529
1.09308
1.05497
1.01037
1.00015
0.993828
0.977667
0.945799
0.928646
0.91925
0.907131
0.897313
0.897485
0.900906
0.909127
0.921973
0.938291
0.956461
0.974946
0.997724
1.02656
1.05739
1.08562
1.11544
1.14893
1.18413
1.21979
1.25282
1.27311
1.28024
1.28386
1.28601
1.28581
1.28394
1.28621
1.29591
1.31533
1.33617
1.36741
1.3893
1.38493
1.37939
1.37326
1.36737
1.36228
1.35792
1.35843
1.36164
1.36478
1.36694
1.37055
1.37833
1.39455
1.42286
1.449
1.45659
1.45805
1.45754
1.40035
1.44117
2.00266
3.22496
3.84294
3.82133
3.69265
3.49798
3.33433
3.16066
2.99817
2.8798
2.75962
2.61925
2.49677
2.40772
2.29643
2.19427
2.12766
2.04837
1.95997
1.90435
1.84869
1.76269
1.69921
1.66391
1.62075
1.55711
1.4886
1.45517
1.42265
1.36625
1.31002
1.30227
1.29633
1.27504
1.23163
1.20089
1.17918
1.15279
1.11407
1.06558
1.05199
1.04715
1.0339
1.00611
0.988283
0.980626
0.97248
0.959861
0.962162
0.974891
1.00329
1.04884
1.10661
1.16557
1.21586
1.2617
1.31007
1.35781
1.39891
1.43581
1.47202
1.51099
1.55093
1.5843
1.60621
1.60983
1.60908
1.60732
1.60452
1.60116
1.60028
1.60456
1.61955
1.63939
1.64017
1.60981
1.55341
1.50138
1.46395
1.43261
1.40426
1.38406
1.37265
1.36837
1.36992
1.37536
1.3851
1.40468
1.4348
1.45203
1.45452
1.45521
1.45535
1.45202
1.40001
1.40051
1.4455
1.95429
3.17734
3.74828
3.73405
3.68081
3.52274
3.31918
3.14153
3.01849
2.8958
2.75321
2.60716
2.5267
2.43874
2.31784
2.22062
2.15587
2.08108
2.01569
1.95343
1.8609
1.77938
1.74698
1.70906
1.64781
1.58038
1.54139
1.50607
1.44766
1.38338
1.37199
1.36784
1.34714
1.30456
1.27138
1.24444
1.21378
1.17094
1.12263
1.11012
1.10994
1.10646
1.09426
1.09707
1.11974
1.15329
1.18529
1.23335
1.30113
1.37258
1.44647
1.5206
1.58178
1.62221
1.64717
1.66437
1.67817
1.68967
1.69868
1.71416
1.74035
1.76358
1.77333
1.77125
1.7632
1.75832
1.75616
1.75413
1.75406
1.76201
1.78138
1.80543
1.82196
1.82466
1.81573
1.79531
1.7683
1.73686
1.69475
1.63406
1.56338
1.50063
1.45182
1.42161
1.41029
1.41255
1.43081
1.44804
1.4519
1.45333
1.45437
1.45499
1.44609
1.40001
1.40001
1.4006
1.44046
1.90507
3.05015
3.6007
3.71132
3.68208
3.52186
3.31225
3.15499
3.03021
2.88624
2.73985
2.64906
2.56048
2.45327
2.3591
2.27544
2.17195
2.1025
2.05745
1.98117
1.88542
1.83603
1.7967
1.73383
1.66283
1.62693
1.59184
1.53802
1.47022
1.45246
1.44394
1.41859
1.36725
1.33447
1.31029
1.28475
1.24812
1.21059
1.21102
1.23249
1.29223
1.37413
1.46232
1.55629
1.62736
1.67848
1.73144
1.76914
1.78726
1.81268
1.8487
1.86657
1.86886
1.86413
1.85187
1.8308
1.82234
1.81816
1.81685
1.82672
1.83111
1.82149
1.80511
1.78461
1.77632
1.77288
1.76996
1.77107
1.78313
1.80027
1.81086
1.81282
1.81096
1.80528
1.80262
1.80975
1.82025
1.82321
1.81619
1.80004
1.77138
1.72668
1.67696
1.62094
1.55295
1.48647
1.45279
1.44829
1.44818
1.44484
1.43951
1.42007
1.40001
1.40001
1.40001
1.40053
1.43291
1.84219
2.81065
3.50565
3.69685
3.66198
3.51134
3.32686
3.1727
2.99998
2.87674
2.79031
2.68905
2.56761
2.4711
2.4063
2.30377
2.19444
2.14316
2.08496
2.00089
1.93769
1.89242
1.82155
1.75223
1.71723
1.68458
1.63056
1.5485
1.52695
1.51812
1.494
1.44478
1.41374
1.40476
1.41138
1.44285
1.49709
1.58475
1.69888
1.84459
1.96527
2.04218
2.07381
2.0982
2.1026
2.08207
2.04883
2.03429
2.02164
2.01838
2.0038
1.98539
1.96645
1.93818
1.89984
1.88409
1.87756
1.87381
1.87438
1.86583
1.84935
1.81719
1.78371
1.77507
1.77316
1.77401
1.78417
1.79546
1.78877
1.78353
1.78087
1.77637
1.77053
1.77291
1.78415
1.79942
1.80331
1.80789
1.82815
1.85486
1.86794
1.87115
1.85974
1.82444
1.74738
1.62317
1.49983
1.43521
1.41514
1.40563
1.39274
1.40001
1.40001
1.40001
1.40001
1.40039
1.42486
1.72581
2.53561
3.41917
3.645
3.59474
3.48267
3.34599
3.15987
3.01891
2.90901
2.80882
2.69142
2.57839
2.52451
2.43624
2.31335
2.24318
2.18982
2.10884
2.04249
1.99454
1.9207
1.83459
1.80401
1.77745
1.72744
1.64295
1.60995
1.60551
1.59971
1.61195
1.66136
1.77061
1.91299
2.05545
2.18575
2.25431
2.32545
2.41341
2.40512
2.36456
2.33614
2.31275
2.28102
2.22984
2.16739
2.13354
2.10203
2.06835
2.03779
2.0094
1.97778
1.93913
1.89783
1.87892
1.87283
1.8694
1.86015
1.84532
1.82598
1.79671
1.76995
1.76113
1.75662
1.75337
1.75373
1.7565
1.75147
1.7468
1.74192
1.73417
1.72896
1.72925
1.73846
1.75255
1.76185
1.77289
1.79566
1.83224
1.86658
1.88669
1.89681
1.90072
1.89428
1.85881
1.77341
1.63517
1.49841
1.41473
1.38724
1.40001
1.40001
1.40001
1.40001
1.40001
1.40025
1.41441
1.60387
2.31857
3.30762
3.51071
3.49497
3.47578
3.36181
3.18182
3.03595
2.93207
2.79634
2.69148
2.64365
2.56591
2.44131
2.33782
2.28623
2.2201
2.15092
2.09882
2.02342
1.92883
1.88949
1.86867
1.83097
1.78726
1.81431
1.90153
2.05945
2.2681
2.43016
2.5581
2.67672
2.72332
2.71088
2.70088
2.69271
2.67556
2.62718
2.55942
2.50337
2.46335
2.41328
2.34225
2.27534
2.23973
2.2078
2.17437
2.14219
2.10726
2.06755
2.02657
1.99243
1.97077
1.95587
1.93896
1.91786
1.89634
1.87014
1.8379
1.81978
1.81184
1.80353
1.79398
1.78392
1.77059
1.76631
1.7644
1.75745
1.74714
1.73713
1.72625
1.7203
1.72174
1.73129
1.75102
1.77543
1.80022
1.83082
1.86506
1.89097
1.90237
1.90589
1.90203
1.88309
1.84082
1.75771
1.64531
1.48761
1.40001
1.40001
1.40001
1.40001
1.40001
1.40001
1.40011
1.40699
1.52722
2.17518
3.03391
3.36745
3.49866
3.48576
3.36313
3.21018
3.07607
2.89989
2.81488
2.75776
2.66973
2.57008
2.47833
2.38751
2.29788
2.24495
2.20051
2.14515
2.05302
2.0177
2.05792
2.17248
2.35321
2.57405
2.7598
2.99539
3.10318
3.08743
3.0723
3.04724
2.98077
2.88103
2.83359
2.78922
2.72436
2.6476
2.57381
2.50431
2.44001
2.378
2.30936
2.2561
2.21417
2.17339
2.13469
2.10277
2.07336
2.04006
2.00441
1.97237
1.9471
1.92564
1.90373
1.87926
1.85209
1.82425
1.80162
1.79005
1.78099
1.76957
1.75597
1.74158
1.72838
1.71565
1.70651
1.70044
1.69447
1.69346
1.69446
1.69261
1.68799
1.6847
1.68391
1.68911
1.70167
1.7182
1.74297
1.78037
1.82089
1.85014
1.86425
1.86503
1.85364
1.84535
1.82554
1.72472
1.40001
1.40001
1.40001
1.40001
1.40001
1.40001
1.40001
1.40004
1.40355
1.48486
1.9726
2.67277
3.25963
3.47364
3.44417