/*--------------------------------*- C++ -*----------------------------------*\
  =========                 |
  \\      /  F ield         | OpenFOAM: The Open Source CFD Toolbox
   \\    /   O peration     | Website:  https://openfoam.org
    \\  /    A nd           | Version:  7
     \\/     M anipulation  |
\*---------------------------------------------------------------------------*/
FoamFile
{
    version     2.0;
    format      ascii;
    class       volVectorField;
    location    "0.8";
    object      U;
}
// * * * * * * * * * * * * * * * * * * * * * * * * * * * * * * * * * * * * * //

dimensions      [0 1 -1 0 0 0 0];

internalField   nonuniform List<vector> 
4032
(
(3 -9.34438e-17 0)
(3 -2.95126e-16 0)
(3 -6.14079e-16 0)
(3 -4.79857e-16 0)
(3 -4.48898e-16 0)
(3 -6.54801e-16 0)
(3 -6.462e-16 0)
(3 -1.0502e-15 0)
(3 -8.09594e-16 0)
(3 -5.3054e-16 0)
(3 -4.7005e-16 0)
(3 -5.23303e-16 0)
(3 -5.10702e-16 0)
(2.67226 0.00818207 0)
(0.845312 0.0239549 0)
(0.607085 0.0164582 0)
(0.563709 0.0245201 0)
(0.495826 0.0286515 0)
(0.432616 0.0319266 0)
(0.3716 0.0341428 0)
(0.3035 0.0361908 0)
(0.230957 0.039328 0)
(0.146228 0.0426135 0)
(0.0530776 0.0475095 0)
(3 -7.99716e-17 0)
(3 -8.2311e-17 0)
(3 -3.44201e-16 0)
(3 -4.43227e-16 0)
(3 -1.21426e-15 0)
(3 -6.17933e-16 0)
(3 -7.45943e-16 0)
(3 -9.33141e-16 0)
(3 -1.21466e-15 0)
(3 -1.61548e-15 0)
(3 -1.17516e-15 0)
(3 1.30405e-17 0)
(3 -6.8267e-16 0)
(2.70189 0.0442979 0)
(0.851404 0.103399 0)
(0.597372 0.0631748 0)
(0.550254 0.0715416 0)
(0.483288 0.0869302 0)
(0.417679 0.0962228 0)
(0.355562 0.10236 0)
(0.286562 0.108795 0)
(0.216954 0.119553 0)
(0.136052 0.13025 0)
(0.0495498 0.144511 0)
(3 6.47001e-17 0)
(3 2.96019e-16 0)
(3 2.17874e-17 0)
(3 -4.84065e-16 0)
(3 -7.20712e-16 0)
(3 -6.38229e-16 0)
(3 -7.94651e-16 0)
(3 -9.11476e-16 0)
(3 -1.27873e-15 0)
(3 -1.4482e-15 0)
(3 -1.38069e-15 0)
(3 -8.35095e-16 0)
(3 -2.70833e-15 0)
(2.80077 0.0813589 0)
(0.899931 0.175241 0)
(0.618357 0.1101 0)
(0.566068 0.124185 0)
(0.494679 0.152764 0)
(0.421281 0.167708 0)
(0.353103 0.174319 0)
(0.277697 0.181596 0)
(0.206916 0.196291 0)
(0.127006 0.212433 0)
(0.0461569 0.234064 0)
(3 1.077e-16 0)
(3 4.62398e-17 0)
(3 1.35713e-16 0)
(3 2.09178e-17 0)
(3 4.16964e-16 0)
(3 -1.59453e-16 0)
(3 -6.57657e-16 0)
(3 -1.00252e-15 0)
(3 -9.33253e-16 0)
(3 -7.15284e-16 0)
(3 -9.56718e-16 0)
(3 -1.74192e-15 0)
(3 -1.56192e-15 0)
(2.93966 0.0559054 0)
(0.988553 0.22063 0)
(0.651027 0.154296 0)
(0.593946 0.183221 0)
(0.515135 0.226292 0)
(0.432905 0.245528 0)
(0.359387 0.250858 0)
(0.278695 0.258891 0)
(0.206569 0.276418 0)
(0.126003 0.297221 0)
(0.044753 0.322699 0)
(3 1.47133e-16 0)
(3 1.85709e-16 0)
(3 3.39755e-16 0)
(3 4.05516e-16 0)
(3 3.54548e-16 0)
(3 1.2559e-17 0)
(3 -3.05123e-16 0)
(3 -6.72735e-16 0)
(3 -5.46531e-16 0)
(3 -3.12766e-16 0)
(3 -9.80539e-17 0)
(3 3.15671e-16 0)
(3 3.16104e-16 0)
(3.00336 0.00493815 0)
(1.12835 0.261752 0)
(0.672759 0.209204 0)
(0.60282 0.258235 0)
(0.522841 0.308636 0)
(0.443047 0.325905 0)
(0.375581 0.327429 0)
(0.303322 0.335011 0)
(0.23306 0.356366 0)
(0.14672 0.386775 0)
(0.0555626 0.421335 0)
(3 7.57762e-17 0)
(3 4.71602e-17 0)
(3 -4.79427e-16 0)
(3 -4.53494e-16 0)
(3 -7.8258e-16 0)
(3 -5.81197e-16 0)
(3 -2.79468e-16 0)
(3 5.43809e-16 0)
(3 4.36517e-16 0)
(3 3.82525e-16 0)
(3 4.06905e-17 0)
(3 2.50371e-17 0)
(3 -6.84843e-16 0)
(3.00006 2.60177e-05 0)
(1.35113 0.315314 0)
(0.696172 0.274119 0)
(0.608195 0.335444 0)
(0.536412 0.388407 0)
(0.470369 0.400414 0)
(0.415054 0.39584 0)
(0.347347 0.409393 0)
(0.272013 0.445772 0)
(0.175737 0.498905 0)
(0.0588603 0.545666 0)
(3 -2.34414e-16 0)
(3 -5.44964e-17 0)
(3 2.47163e-17 0)
(3 1.0153e-16 0)
(3 -1.51946e-17 0)
(3 2.73424e-17 0)
(3 7.95219e-17 0)
(3 3.90277e-16 0)
(3 -8.05307e-17 0)
(3 -8.15073e-17 0)
(3 -7.55026e-16 0)
(3 -5.72503e-16 0)
(3 -1.28102e-15 0)
(3 1.1174e-08 0)
(1.69819 0.375594 0)
(0.74594 0.355536 0)
(0.639496 0.414645 0)
(0.582885 0.458323 0)
(0.532279 0.457411 0)
(0.482383 0.456538 0)
(0.423235 0.484169 0)
(0.352253 0.535197 0)
(0.258186 0.614882 0)
(0.108038 0.698809 0)
(3 -1.25283e-16 0)
(3 1.53434e-16 0)
(3 4.91215e-16 0)
(3 7.83198e-16 0)
(3 1.30881e-15 0)
(3 9.30419e-16 0)
(3 5.75837e-16 0)
(3 -7.11236e-16 0)
(3 -1.04353e-15 0)
(3 -1.02798e-15 0)
(3 -6.31315e-16 0)
(3 -1.76978e-16 0)
(3 -7.74994e-16 0)
(3 3.09244e-13 0)
(2.22497 0.377128 0)
(0.850094 0.44312 0)
(0.7157 0.46892 0)
(0.670094 0.492856 0)
(0.620182 0.496356 0)
(0.566737 0.508644 0)
(0.51197 0.554886 0)
(0.433031 0.641568 0)
(0.297692 0.787254 0)
(0.158383 0.979885 0)
(3 -5.65959e-17 0)
(3 -3.09351e-16 0)
(3 -3.01019e-16 0)
(3 -4.31341e-16 0)
(3 -2.70749e-16 0)
(3 -3.39768e-17 0)
(3 5.18905e-17 0)
(3 -1.02687e-16 0)
(3 4.67602e-16 0)
(3 5.11743e-16 0)
(3 6.71222e-16 0)
(3 -1.42003e-16 0)
(3 -5.26448e-16 0)
(3 -6.78476e-16 0)
(2.84585 0.203171 0)
(1.03075 0.486069 0)
(0.799321 0.501769 0)
(0.754706 0.541478 0)
(0.696789 0.555752 0)
(0.626389 0.581625 0)
(0.558566 0.649413 0)
(0.509973 0.77901 0)
(0.486069 0.965957 0)
(0.596311 1.26455 0)
(3 3.10134e-16 0)
(3 2.40418e-16 0)
(3 -3.90471e-16 0)
(3 -1.7024e-16 0)
(3 -5.90213e-16 0)
(3 -8.54339e-16 0)
(3 -9.90564e-16 0)
(3 5.88813e-16 0)
(3 1.34219e-15 0)
(3 2.1177e-15 0)
(3 1.67383e-15 0)
(3 1.05808e-15 0)
(3 6.40236e-16 0)
(3 -2.87046e-16 0)
(3.04553 0.018512 0)
(1.23546 0.487688 0)
(0.820463 0.566656 0)
(0.758024 0.613699 0)
(0.702915 0.635354 0)
(0.660026 0.66296 0)
(0.630066 0.726613 0)
(0.628154 0.849455 0)
(0.698937 1.00385 0)
(0.996805 1.19149 0)
(3 2.04049e-16 0)
(3 2.09863e-16 0)
(3 7.46724e-17 0)
(3 2.08464e-16 0)
(3 2.35939e-16 0)
(3 -5.04543e-18 0)
(3 -1.39713e-16 0)
(3 4.63952e-16 0)
(3 5.85884e-16 0)
(3 3.83083e-16 0)
(3 1.04781e-15 0)
(3 1.43947e-15 0)
(3 1.40127e-15 0)
(3 1.76879e-16 0)
(3.00155 7.00185e-05 0)
(1.66994 0.53772 0)
(0.863579 0.649042 0)
(0.784209 0.682221 0)
(0.753469 0.695041 0)
(0.730661 0.714978 0)
(0.728022 0.770915 0)
(0.760768 0.870177 0)
(0.886404 0.992764 0)
(1.20455 1.1107 0)
(3 -3.15619e-16 0)
(3 -5.72453e-16 0)
(3 -3.99657e-16 0)
(3 -9.37858e-16 0)
(3 -6.96877e-16 0)
(3 -4.31585e-16 0)
(3 -4.10564e-16 0)
(3 -6.33417e-16 0)
(3 -6.95497e-16 0)
(3 -9.26385e-16 0)
(3 -1.56041e-16 0)
(3 1.60394e-16 0)
(3 -8.8767e-16 0)
(3 -1.52156e-15 0)
(3 -8.60821e-08 0)
(2.49812 0.415056 0)
(1.029 0.706005 0)
(0.869181 0.716845 0)
(0.851627 0.718437 0)
(0.835624 0.741468 0)
(0.841177 0.792189 0)
(0.891523 0.86964 0)
(1.03316 0.963331 0)
(1.29612 1.03099 0)
(3 -2.37228e-16 0)
(3 -3.19733e-16 0)
(3 -6.70636e-16 0)
(3 -1.08455e-15 0)
(3 -1.21414e-15 0)
(3 -9.35714e-16 0)
(3 -6.94929e-16 0)
(3 -1.04475e-15 0)
(3 -1.00607e-15 0)
(3 -9.44537e-16 0)
(3 -8.84391e-16 0)
(3 -4.48464e-16 0)
(3 -1.97312e-15 0)
(3 -2.56451e-15 0)
(3 -2.21625e-08 0)
(3.07686 0.0607275 0)
(1.35679 0.714511 0)
(0.962425 0.770225 0)
(0.945261 0.768421 0)
(0.92854 0.798008 0)
(0.943941 0.838666 0)
(1.00613 0.889841 0)
(1.14459 0.950276 0)
(1.35772 0.984638 0)
(3 -2.55581e-17 0)
(3 1.29296e-16 0)
(3 1.30587e-16 0)
(3 3.56185e-17 0)
(3 -9.53466e-16 0)
(3 -7.96603e-16 0)
(3 -5.12937e-16 0)
(3 -6.90501e-16 0)
(3 -8.30139e-16 0)
(3 -5.53326e-16 0)
(3 -1.58408e-16 0)
(3 -8.29411e-17 0)
(3 -9.56933e-16 0)
(3 -9.47864e-16 0)
(3 -1.61496e-09 0)
(3.00682 0.000656746 0)
(1.97521 0.66919 0)
(1.05854 0.840109 0)
(1.00626 0.829204 0)
(1.02635 0.819043 0)
(1.04397 0.841328 0)
(1.10491 0.878094 0)
(1.22263 0.916792 0)
(1.39026 0.936663 0)
(3 2.49838e-16 0)
(3 3.21692e-16 0)
(3 3.11276e-16 0)
(3 1.40198e-16 0)
(3 8.51911e-17 0)
(3 -5.54547e-16 0)
(3 -9.46319e-16 0)
(3 -1.39549e-15 0)
(3 -1.32209e-15 0)
(3 -4.13381e-16 0)
(3 -2.7904e-16 0)
(3 -5.55015e-16 0)
(3 -1.67481e-16 0)
(3 7.33187e-16 0)
(3 -3.86177e-11 0)
(3.00002 1.92101e-06 0)
(2.99617 0.202562 0)
(1.3446 0.837292 0)
(1.08768 0.837355 0)
(1.11874 0.841845 0)
(1.12531 0.870529 0)
(1.18072 0.896764 0)
(1.28148 0.919181 0)
(1.41656 0.926682 0)
(3 7.62955e-17 0)
(3 -8.88268e-17 0)
(3 2.20981e-16 0)
(3 8.59096e-16 0)
(3 1.17218e-15 0)
(3 5.64786e-16 0)
(3 -7.05774e-16 0)
(3 -1.47948e-15 0)
(3 -1.28996e-15 0)
(3 -7.50281e-16 0)
(3 -8.53133e-16 0)
(3 -1.2018e-15 0)
(3 1.97861e-16 0)
(3 1.07328e-15 0)
(3 5.73746e-13 0)
(3 -4.12232e-08 0)
(3.02416 0.00527607 0)
(1.89614 0.772646 0)
(1.15162 0.912824 0)
(1.1444 0.903938 0)
(1.18922 0.897671 0)
(1.24499 0.894141 0)
(1.33468 0.898625 0)
(1.44469 0.902859 0)
(3 -2.1507e-16 0)
(3 -3.59684e-17 0)
(3 2.43223e-16 0)
(3 7.18542e-16 0)
(3 -2.11212e-16 0)
(3 -5.55043e-16 0)
(3 -4.78281e-16 0)
(3 -4.74197e-16 0)
(3 -5.2159e-16 0)
(3 -5.22829e-16 0)
(3 -5.63001e-16 0)
(3 8.16527e-17 0)
(3 5.53646e-16 0)
(3 7.80462e-16 0)
(3 -6.51652e-15 0)
(3 -2.25235e-09 0)
(3.00018 5.57483e-05 0)
(2.93048 0.268284 0)
(1.45134 0.908309 0)
(1.20213 0.903584 0)
(1.26284 0.904271 0)
(1.29821 0.91625 0)
(1.37021 0.919937 0)
(1.46131 0.91734 0)
(3 4.053e-17 0)
(3 1.55763e-16 0)
(3 8.22917e-17 0)
(3 -9.21826e-16 0)
(3 -1.87998e-15 0)
(3 -2.14642e-15 0)
(3 -1.12907e-15 0)
(3 7.09431e-16 0)
(3 1.14136e-16 0)
(3 -6.88293e-16 0)
(3 -1.11794e-15 0)
(3 3.28977e-16 0)
(3 1.21316e-15 0)
(3 9.95767e-16 0)
(3 8.95709e-16 0)
(3 -3.66078e-11 0)
(3 2.27567e-08 0)
(3.02273 0.0107932 0)
(2.12199 0.769723 0)
(1.29236 0.968703 0)
(1.28691 0.956286 0)
(1.34749 0.937538 0)
(1.41387 0.916584 0)
(1.4934 0.903646 0)
(3 -1.15377e-16 0)
(3 -5.9457e-16 0)
(3 -5.20381e-16 0)
(3 -4.92865e-16 0)
(3 -4.80398e-16 0)
(3 5.06447e-16 0)
(3 1.28304e-15 0)
(3 1.41657e-15 0)
(3 1.2492e-15 0)
(3 -5.74797e-16 0)
(3 -1.30529e-15 0)
(3 -4.65736e-16 0)
(3 3.28328e-16 0)
(3 1.84805e-15 0)
(3 1.87327e-15 0)
(3 -1.75603e-12 0)
(3 -1.22524e-12 0)
(3.00019 0.000158137 0)
(2.98303 0.188489 0)
(1.68017 0.916515 0)
(1.33453 0.96895 0)
(1.39657 0.953593 0)
(1.44911 0.945126 0)
(1.51146 0.933666 0)
(3 3.44716e-17 0)
(3 -5.80698e-17 0)
(3 -1.20063e-16 0)
(3 6.52445e-16 0)
(3 1.40924e-15 0)
(3 3.04423e-15 0)
(3 3.8963e-15 0)
(3 3.11602e-15 0)
(3 1.51979e-15 0)
(3 4.24303e-16 0)
(3 -2.27208e-16 0)
(3 -8.86942e-17 0)
(3 1.60887e-16 0)
(3 1.20539e-15 0)
(3 1.06813e-15 0)
(3 -3.27066e-14 0)
(3 -6.21883e-13 0)
(3 1.19522e-07 0)
(3.00813 0.00820017 0)
(2.54088 0.584708 0)
(1.49807 1.01041 0)
(1.42644 0.972355 0)
(1.49875 0.95689 0)
(1.5458 0.943466 0)
(3 2.17722e-16 0)
(3 7.64515e-16 0)
(3 7.05011e-16 0)
(3 8.72344e-16 0)
(3 1.69567e-15 0)
(3 1.70603e-15 0)
(3 1.65816e-15 0)
(3 1.83285e-15 0)
(3 1.60035e-15 0)
(3 1.5739e-15 0)
(3 1.01056e-15 0)
(3 -4.02505e-16 0)
(3 -5.76921e-16 0)
(3 -3.38488e-16 0)
(3 -1.01588e-16 0)
(3 -6.31192e-16 0)
(3 -1.45255e-13 0)
(3 1.04344e-11 0)
(3.00003 6.78512e-05 0)
(3.01577 0.0670628 0)
(2.09206 0.840491 0)
(1.49929 1.01089 0)
(1.511 1.00411 0)
(1.56396 0.988237 0)
(3 -1.64113e-16 0)
(3 -1.88583e-16 0)
(3 1.3853e-16 0)
(3 -3.28117e-16 0)
(3 9.22161e-17 0)
(3 -2.06117e-16 0)
(3 -1.68025e-16 0)
(3 2.33501e-16 0)
(3 7.92094e-16 0)
(3 1.01477e-15 0)
(3 6.74041e-16 0)
(3 -4.02409e-16 0)
(3 -3.72566e-16 0)
(3 2.30271e-16 0)
(3 5.80687e-16 0)
(3 7.50156e-17 0)
(3 -1.46515e-14 0)
(3 -8.16675e-14 0)
(3 3.55657e-08 0)
(3.00091 0.00224886 0)
(2.89049 0.270929 0)
(1.86599 0.93837 0)
(1.56338 1.01567 0)
(1.6047 0.999889 0)
(3 -7.18964e-17 0)
(3 -1.11247e-16 0)
(3 -5.19805e-16 0)
(3 -7.35801e-16 0)
(3 -1.2734e-15 0)
(3 -1.29753e-15 0)
(3 -1.08371e-15 0)
(3 -3.8432e-16 0)
(3 7.40214e-16 0)
(3 1.29549e-15 0)
(3 1.23756e-15 0)
(3 9.40512e-16 0)
(3 8.987e-16 0)
(3 1.00483e-15 0)
(3 1.0191e-15 0)
(3 5.79377e-16 0)
(3 -5.47225e-16 0)
(3 -7.73007e-14 0)
(3 2.91282e-12 0)
(3 6.70618e-06 0)
(3.00366 0.0172022 0)
(2.61768 0.518947 0)
(1.78912 0.986241 0)
(1.64028 1.02747 0)
(3 1.63577e-16 0)
(3 4.66362e-16 0)
(3 1.80666e-16 0)
(3 -6.06767e-17 0)
(3 -5.75955e-16 0)
(3 -2.37443e-16 0)
(3 -4.13793e-16 0)
(3 -2.39637e-17 0)
(3 6.94555e-16 0)
(3 1.90019e-15 0)
(3 2.46231e-15 0)
(3 1.98593e-15 0)
(3 1.17638e-15 0)
(3 9.31598e-16 0)
(3 9.84069e-16 0)
(3 5.08016e-16 0)
(3 5.89549e-19 0)
(3 -1.53464e-14 0)
(3 -4.63693e-14 0)
(3 2.599e-09 0)
(3 0.000211089 0)
(2.99316 0.0578399 0)
(2.38874 0.685745 0)
(1.79543 1.01134 0)
(3 -1.88921e-17 0)
(3 2.76684e-16 0)
(3 4.27244e-16 0)
(3 5.66469e-16 0)
(3 6.8908e-16 0)
(3 9.22006e-16 0)
(3 7.42184e-16 0)
(3 9.41925e-16 0)
(3 1.02366e-15 0)
(3 1.02201e-15 0)
(3 5.79867e-16 0)
(3 4.12055e-16 0)
(3 -3.81353e-16 0)
(3 -2.06421e-16 0)
(3 5.68967e-16 0)
(3 6.94518e-16 0)
(3 -1.9796e-16 0)
(3 -7.19216e-16 0)
(3 -3.10054e-14 0)
(3 1.66031e-13 0)
(3 2.28874e-07 0)
(2.99998 0.00171321 0)
(2.95225 0.126331 0)
(2.25546 0.78498 0)
(3 -6.12933e-17 0)
(3 -1.32895e-17 0)
(3 2.63621e-16 0)
(3 7.35896e-16 0)
(3 5.05947e-16 0)
(3 1.43411e-15 0)
(3 1.85956e-15 0)
(3 1.36642e-15 0)
(3 4.49045e-16 0)
(3 -6.41146e-16 0)
(3 -8.42383e-16 0)
(3 -9.65137e-16 0)
(3 -1.0458e-15 0)
(3 -1.23286e-15 0)
(3 -1.09364e-15 0)
(3 -7.43131e-16 0)
(3 -8.95709e-16 0)
(3 3.77411e-16 0)
(3 -5.22575e-15 0)
(3 -1.30373e-14 0)
(3 5.41196e-11 0)
(3 4.3071e-06 0)
(2.99954 0.00592393 0)
(2.88589 0.212076 0)
(3 -3.37015e-17 0)
(3 -2.3717e-16 0)
(3 -6.11568e-17 0)
(3 3.73467e-17 0)
(3 -2.58017e-17 0)
(3 1.9683e-17 0)
(3 1.42846e-16 0)
(3 -2.68988e-16 0)
(3 -1.025e-15 0)
(3 -1.13829e-15 0)
(3 -8.73818e-16 0)
(3 -5.28389e-16 0)
(3 -1.28474e-16 0)
(3 -8.11148e-16 0)
(3 -7.50255e-16 0)
(3 -4.2015e-16 0)
(3 7.24034e-16 0)
(3 1.74271e-15 0)
(3 2.22613e-15 0)
(3 -4.01756e-15 0)
(3 -1.84697e-15 0)
(3 2.25179e-09 0)
(3 2.88565e-05 0)
(2.99749 0.0132519 0)
(3 1.67103e-16 0)
(3 1.2481e-16 0)
(3 8.99334e-17 0)
(3 -4.37628e-16 0)
(3 -8.38637e-16 0)
(3 -1.00224e-15 0)
(3 -8.79973e-16 0)
(3 -7.58886e-16 0)
(3 -7.63046e-16 0)
(3 -6.48358e-16 0)
(3 -7.07152e-16 0)
(3 2.97354e-16 0)
(3 4.10525e-16 0)
(3 1.46865e-16 0)
(3 -5.62413e-16 0)
(3 -1.19471e-16 0)
(3 4.13088e-16 0)
(3 8.69132e-16 0)
(3 9.94301e-16 0)
(3 2.39241e-16 0)
(3 -1.71919e-15 0)
(3 1.62348e-13 0)
(3 2.59098e-08 0)
(2.99998 0.000103219 0)
(3 -8.22937e-17 0)
(3 1.44012e-16 0)
(3 2.29133e-16 0)
(3 5.93791e-16 0)
(3 3.32429e-16 0)
(3 -1.45745e-16 0)
(3 -3.53081e-16 0)
(3 -3.36108e-16 0)
(3 -6.92074e-18 0)
(3 1.22622e-16 0)
(3 2.62945e-16 0)
(3 7.34547e-16 0)
(3 1.13838e-15 0)
(3 -5.56659e-17 0)
(3 -3.51201e-16 0)
(3 -2.32927e-16 0)
(3 -3.13066e-16 0)
(3 -2.95593e-17 0)
(3 2.89601e-16 0)
(3 -5.01789e-16 0)
(3 -7.67842e-16 0)
(3 -4.69142e-16 0)
(3 3.1211e-12 0)
(3 1.31211e-07 0)
(3 -3.1903e-17 0)
(3 -1.51221e-17 0)
(3 1.06862e-16 0)
(3 8.15407e-16 0)
(3 9.43534e-16 0)
(3 5.58442e-16 0)
(3 2.9234e-16 0)
(3 8.31366e-17 0)
(3 3.79364e-16 0)
(3 4.89045e-16 0)
(3 5.75871e-16 0)
(3 4.10331e-16 0)
(3 5.50063e-16 0)
(3 2.35814e-16 0)
(3 4.22681e-16 0)
(3 -4.49963e-16 0)
(3 -1.05719e-15 0)
(3 -1.2783e-15 0)
(3 4.6693e-16 0)
(3 9.96719e-16 0)
(3 1.1817e-15 0)
(3 8.5752e-16 0)
(3 4.86832e-16 0)
(3 2.40252e-11 0)
(3 3.14082e-16 0)
(3 9.0224e-17 0)
(3 -3.11775e-16 0)
(3 -2.7737e-16 0)
(3 -2.46849e-16 0)
(3 1.08891e-16 0)
(3 6.02209e-17 0)
(3 4.0326e-16 0)
(3 5.19751e-16 0)
(3 5.76055e-16 0)
(3 7.09235e-16 0)
(3 8.39277e-16 0)
(3 5.96663e-16 0)
(3 2.74878e-16 0)
(3 -3.19538e-17 0)
(3 -1.32395e-15 0)
(3 -1.60325e-15 0)
(3 -2.40586e-15 0)
(3 -5.52406e-16 0)
(3 1.92797e-15 0)
(3 1.78127e-15 0)
(3 1.20045e-15 0)
(3 3.62329e-18 0)
(3 1.32619e-15 0)
(3 -4.12875e-17 0)
(3 -5.8303e-16 0)
(3 -7.93947e-16 0)
(3 -1.05226e-15 0)
(3 -6.45061e-16 0)
(3 -1.53246e-16 0)
(3 -2.31237e-16 0)
(3 -1.09763e-16 0)
(3 -5.82128e-16 0)
(3 -4.11343e-16 0)
(3 3.04315e-17 0)
(3 6.21262e-16 0)
(3 1.57039e-15 0)
(3 1.90961e-15 0)
(3 3.84654e-16 0)
(3 -7.34724e-16 0)
(3 -1.07677e-15 0)
(3 -8.18882e-16 0)
(3 -2.47967e-16 0)
(3 6.67944e-16 0)
(3 5.63323e-16 0)
(3 6.93958e-16 0)
(3 4.71501e-16 0)
(3 2.82164e-16 0)
(3 -1.43101e-16 0)
(3 -1.05532e-16 0)
(3 1.98274e-17 0)
(3 2.42586e-16 0)
(3 3.60293e-16 0)
(3 9.53548e-17 0)
(3 -3.81823e-16 0)
(3 -8.87469e-16 0)
(3 -1.36556e-15 0)
(3 -1.56874e-15 0)
(3 -1.14589e-15 0)
(3 -1.8236e-16 0)
(3 1.89045e-16 0)
(3 1.39105e-15 0)
(3 1.12791e-15 0)
(3 6.45928e-16 0)
(3 1.47965e-16 0)
(3 2.14118e-16 0)
(3 -4.77081e-16 0)
(3 -6.69471e-16 0)
(3 -3.49843e-16 0)
(3 5.18315e-16 0)
(3 1.43791e-15 0)
(3 1.05608e-15 0)
(3 -7.55677e-17 0)
(3 1.9155e-16 0)
(3 6.16447e-16 0)
(3 9.29259e-16 0)
(3 7.97858e-16 0)
(3 1.81233e-16 0)
(3 2.77504e-18 0)
(3 -6.48153e-16 0)
(3 -2.08576e-16 0)
(3 -2.33202e-16 0)
(3 -5.66542e-16 0)
(3 -1.33136e-15 0)
(3 -1.47562e-15 0)
(3 -1.1818e-15 0)
(3 -4.83188e-16 0)
(3 3.68117e-16 0)
(3 9.62598e-16 0)
(3 2.72977e-16 0)
(3 3.58269e-16 0)
(3 5.76302e-16 0)
(3 1.03539e-15 0)
(3 1.73424e-15 0)
(3 1.4405e-15 0)
(3 9.34922e-16 0)
(3 -3.25016e-17 0)
(3 2.30997e-16 0)
(3 5.65796e-16 0)
(3 4.86867e-16 0)
(3 4.67052e-16 0)
(3 4.59339e-16 0)
(3 7.26218e-16 0)
(3 8.22349e-16 0)
(3 1.45546e-15 0)
(3 1.27086e-15 0)
(3 -5.99808e-16 0)
(3 -1.88204e-15 0)
(3 -2.54109e-15 0)
(3 -2.97757e-15 0)
(3 -2.65421e-15 0)
(3 -4.48193e-16 0)
(3 8.00669e-16 0)
(3 8.17378e-16 0)
(3 2.13701e-15 0)
(3 2.59976e-15 0)
(3 2.60792e-15 0)
(3 2.21134e-15 0)
(3 6.36539e-16 0)
(3 -8.02355e-17 0)
(3 1.41215e-16 0)
(3 2.31121e-16 0)
(3 -6.88261e-17 0)
(3 -4.30963e-16 0)
(3 -5.83261e-16 0)
(3 -3.8054e-16 0)
(3 -1.15285e-16 0)
(3 1.92969e-16 0)
(3 4.14111e-17 0)
(3 -6.46775e-16 0)
(3 -1.32077e-15 0)
(3 -2.04239e-15 0)
(3 -2.75544e-15 0)
(3 -2.50487e-15 0)
(3 -1.59983e-15 0)
(3 -8.11193e-16 0)
(3 -3.4607e-16 0)
(3 -8.19059e-17 0)
(3 1.43683e-15 0)
(3 2.57446e-15 0)
(3 2.14576e-15 0)
(3 6.3053e-16 0)
(3 1.88997e-16 0)
(3 5.87363e-17 0)
(3 -1.37078e-16 0)
(3 -5.86274e-16 0)
(3 -1.48094e-15 0)
(3 -1.44961e-15 0)
(3 -1.36901e-15 0)
(3 -1.54001e-15 0)
(3 -1.51636e-15 0)
(3 -1.05449e-15 0)
(3 -1.97275e-15 0)
(3 -2.20284e-15 0)
(3 -2.35376e-15 0)
(3 -1.42326e-15 0)
(3 -1.27166e-15 0)
(3 -5.32967e-16 0)
(3 -4.03446e-16 0)
(3 -6.29416e-17 0)
(3 8.35763e-16 0)
(3 1.1961e-15 0)
(3 3.82549e-16 0)
(3 1.34934e-16 0)
(3 3.75137e-16 0)
(3 7.15592e-16 0)
(3 1.23942e-15 0)
(3 1.75201e-15 0)
(3 -3.57079e-16 0)
(3 -4.91071e-16 0)
(3 -7.20553e-16 0)
(3 -5.85731e-16 0)
(3 -4.28923e-16 0)
(3 -8.27919e-16 0)
(3 -1.48012e-15 0)
(3 -1.77287e-15 0)
(3 -2.1368e-15 0)
(3 -2.57558e-15 0)
(3 -2.13598e-15 0)
(3 -9.17015e-16 0)
(3 -5.51224e-16 0)
(3 -4.69904e-16 0)
(3 -4.09783e-16 0)
(3 8.4825e-16 0)
(3 2.57295e-15 0)
(3 2.8836e-15 0)
(3 1.77232e-15 0)
(3 1.71909e-16 0)
(3 7.66149e-16 0)
(3 8.83879e-16 0)
(3 1.12217e-15 0)
(3 1.59333e-15 0)
(3 1.76422e-16 0)
(3 5.03808e-16 0)
(3 4.98871e-16 0)
(3 4.48129e-16 0)
(3 5.88086e-16 0)
(3 7.04492e-16 0)
(3 6.07436e-16 0)
(3 -1.60836e-16 0)
(3 -8.1297e-16 0)
(3 -7.12339e-16 0)
(3 -1.77138e-16 0)
(3 -5.11481e-16 0)
(3 -1.08008e-15 0)
(3 -1.18569e-15 0)
(3 -9.72496e-16 0)
(3 4.91474e-16 0)
(3 1.84379e-15 0)
(3 2.03707e-15 0)
(3 1.70231e-15 0)
(3 4.82768e-16 0)
(3 -3.04817e-17 0)
(3 -2.84155e-16 0)
(3 8.56237e-17 0)
(3 6.42043e-16 0)
(3 1.82849e-16 0)
(3 3.63202e-16 0)
(3 5.54251e-16 0)
(3 7.37049e-16 0)
(3 8.90977e-16 0)
(3 9.5787e-16 0)
(3 1.16228e-15 0)
(3 1.00314e-15 0)
(3 1.47436e-16 0)
(3 1.96705e-16 0)
(3 4.74992e-16 0)
(3 -1.85195e-16 0)
(3 -1.23091e-15 0)
(3 -1.22588e-15 0)
(3 -5.77703e-16 0)
(3 1.04574e-16 0)
(3 6.62494e-16 0)
(3 1.17029e-15 0)
(3 1.16492e-15 0)
(3 1.2438e-15 0)
(3 9.09493e-16 0)
(3 -2.1067e-16 0)
(3 4.98633e-17 0)
(3 3.20799e-16 0)
(1.61157 1.33424 0)
(2.06476 1.52122 0)
(2.33309 1.47132 0)
(2.54736 0.883659 0)
(2.77371 0.407822 0)
(2.75139 -0.036171 0)
(2.78097 -0.253184 0)
(2.73611 -0.326168 0)
(2.66777 -0.453255 0)
(2.71771 -0.383386 0)
(2.71581 -0.220934 0)
(2.68971 -0.190104 0)
(2.68903 -0.18569 0)
(2.70771 -0.13349 0)
(2.72602 -0.104153 0)
(2.72958 -0.0887762 0)
(2.74769 -0.0650966 0)
(2.75238 -0.0618427 0)
(2.76264 -0.0444166 0)
(2.74897 -0.018165 0)
(2.7384 -0.0117975 0)
(2.747 -0.00692076 0)
(2.76241 -0.00208735 0)
(2.77752 0.00368274 0)
(2.79399 0.00426745 0)
(2.81242 0.0046896 0)
(2.82775 0.00598453 0)
(2.83604 0.00628767 0)
(2.83362 0.00423645 0)
(2.8321 0.00147065 0)
(2.84219 0.000734955 0)
(2.84876 -0.00106719 0)
(2.85806 -0.00386109 0)
(2.87314 -0.00514245 0)
(2.88495 -0.00396978 0)
(2.88815 -0.00324241 0)
(2.89225 -0.00197031 0)
(2.8932 0.000157635 0)
(2.88945 0.00404723 0)
(2.8918 0.00863264 0)
(2.90066 0.0120518 0)
(2.90591 0.0135942 0)
(2.91186 0.0129611 0)
(2.92135 0.0114209 0)
(2.93265 0.00729266 0)
(2.94656 -0.0003752 0)
(2.95931 -0.00544191 0)
(2.9717 -0.00737782 0)
(2.97254 -0.00626443 0)
(2.95624 -0.000903321 0)
(2.94052 0.00571847 0)
(2.9335 0.00950774 0)
(2.92945 0.010145 0)
(2.92489 0.00873755 0)
(2.92351 0.00582139 0)
(2.92291 0.00361309 0)
(2.91929 0.00272785 0)
(2.91249 0.00322708 0)
(2.9028 0.0043476 0)
(2.88871 0.00765293 0)
(2.87208 0.0115114 0)
(2.85473 0.0124508 0)
(2.83988 0.00991944 0)
(2.82707 0.00720995 0)
(2.81689 0.00540728 0)
(2.81047 0.00409294 0)
(2.80657 0.00333234 0)
(2.80148 0.00336547 0)
(2.79585 0.0027921 0)
(2.79081 0.00183683 0)
(2.78628 0.00178043 0)
(2.78198 0.00400655 0)
(2.77457 0.00507024 0)
(2.76693 0.00155718 0)
(2.76607 -0.00179538 0)
(2.76945 -0.00475045 0)
(2.77708 -0.00505287 0)
(2.78206 -0.00182382 0)
(2.78115 0.00160168 0)
(2.77599 0.00511916 0)
(2.76658 0.00838455 0)
(2.75481 0.00924173 0)
(2.7452 0.00375852 0)
(2.74442 -0.00949608 0)
(2.76011 -0.023196 0)
(2.79197 -0.0267913 0)
(2.82615 -0.0200128 0)
(2.84628 -0.0102215 0)
(2.86413 -0.00778641 0)
(2.89807 -0.0116433 0)
(2.9116 -0.0135436 0)
(2.91446 -0.0134657 0)
(2.92295 -0.011304 0)
(2.9336 -0.0102302 0)
(2.94071 -0.00883123 0)
(2.95005 -0.00785623 0)
(1.85818 1.14577 0)
(2.4184 0.860971 0)
(2.67826 0.607967 0)
(2.82029 0.0504438 0)
(2.85358 -0.344047 0)
(2.89896 -0.425756 0)
(2.93428 -0.60302 0)
(2.93133 -0.658488 0)
(2.90572 -0.62126 0)
(2.87268 -0.542065 0)
(2.80072 -0.369251 0)
(2.77172 -0.262646 0)
(2.76638 -0.22173 0)
(2.75742 -0.155674 0)
(2.75882 -0.0969113 0)
(2.75472 -0.0827218 0)
(2.76797 -0.0572995 0)
(2.76849 -0.0390254 0)
(2.75685 -0.0175287 0)
(2.74014 0.0246389 0)
(2.73105 0.0197299 0)
(2.74535 0.0139026 0)
(2.75998 0.0236339 0)
(2.77236 0.0271987 0)
(2.78813 0.0244046 0)
(2.80706 0.0150801 0)
(2.826 0.0102278 0)
(2.84051 0.00671208 0)
(2.84209 -0.00210858 0)
(2.83941 -0.0131492 0)
(2.84977 -0.0155566 0)
(2.86292 -0.015534 0)
(2.87562 -0.0150508 0)
(2.88942 -0.00915291 0)
(2.89666 -0.00538207 0)
(2.90431 -0.000290657 0)
(2.90764 0.00348206 0)
(2.90672 0.00433966 0)
(2.90116 0.00393319 0)
(2.90561 0.00631213 0)
(2.91614 0.0129503 0)
(2.92583 0.0259761 0)
(2.93264 0.0408845 0)
(2.93978 0.0454191 0)
(2.94966 0.0399106 0)
(2.96005 0.0266298 0)
(2.97079 0.00812569 0)
(2.97648 -0.0092359 0)
(2.97512 -0.0239534 0)
(2.9684 -0.0244166 0)
(2.96406 -0.0139321 0)
(2.95854 0.000534388 0)
(2.95104 0.0161864 0)
(2.94307 0.0269203 0)
(2.93375 0.0278133 0)
(2.92738 0.0205521 0)
(2.92425 0.00730354 0)
(2.91907 -0.00151331 0)
(2.90936 -0.00304479 0)
(2.90018 -0.00216065 0)
(2.89104 0.00794896 0)
(2.87411 0.0211133 0)
(2.85813 0.0287387 0)
(2.84388 0.0292724 0)
(2.83047 0.023995 0)
(2.82096 0.015803 0)
(2.81539 0.0074845 0)
(2.81153 0.00199011 0)
(2.80768 -0.00212209 0)
(2.80439 -0.0067015 0)
(2.80083 -0.0104992 0)
(2.79917 -0.00964743 0)
(2.79542 0.000233994 0)
(2.78035 0.00656333 0)
(2.7729 0.00688655 0)
(2.77046 0.00213247 0)
(2.77673 -0.00390803 0)
(2.78551 -0.00163365 0)
(2.78832 0.0024863 0)
(2.78532 0.00830327 0)
(2.77797 0.0168968 0)
(2.7686 0.022704 0)
(2.75935 0.0177059 0)
(2.75491 -0.000474198 0)
(2.76008 -0.0235615 0)
(2.77767 -0.040947 0)
(2.80703 -0.0450862 0)
(2.83945 -0.0306434 0)
(2.86562 -0.0138847 0)
(2.89476 -0.0139177 0)
(2.90946 -0.0199727 0)
(2.91438 -0.0222974 0)
(2.92278 -0.0207045 0)
(2.93217 -0.0185201 0)
(2.9385 -0.0152655 0)
(2.9499 -0.0130052 0)
(1.71353 1.10669 0)
(2.20433 0.845216 0)
(2.46722 0.645458 0)
(2.54905 0.522577 0)
(2.73538 0.155008 0)
(2.84702 -0.0285237 0)
(2.86496 -0.082665 0)
(2.89844 -0.254522 0)
(2.91065 -0.321006 0)
(2.94612 -0.3834 0)
(2.93353 -0.404096 0)
(2.8944 -0.472354 0)
(2.88523 -0.47343 0)
(2.86718 -0.381793 0)
(2.85732 -0.289608 0)
(2.85816 -0.250152 0)
(2.85414 -0.203303 0)
(2.82114 -0.149117 0)
(2.78837 -0.0854074 0)
(2.78232 -0.0255551 0)
(2.78143 -0.01884 0)
(2.79243 0.0100141 0)
(2.79594 0.0348082 0)
(2.79652 0.0419426 0)
(2.80718 0.0326477 0)
(2.82165 0.0111468 0)
(2.83948 -0.0032954 0)
(2.85685 -0.00373639 0)
(2.85608 -0.00865806 0)
(2.85831 -0.0222713 0)
(2.86956 -0.029022 0)
(2.88671 -0.0278616 0)
(2.90293 -0.0245808 0)
(2.91364 -0.0162198 0)
(2.91828 -0.005254 0)
(2.92021 0.00754358 0)
(2.91847 0.0194124 0)
(2.91508 0.017296 0)
(2.91997 0.0102922 0)
(2.92777 0.00588681 0)
(2.93564 0.00387846 0)
(2.94831 0.00457069 0)
(2.96285 0.0107346 0)
(2.97449 0.0211938 0)
(2.98222 0.0312463 0)
(2.98381 0.0401591 0)
(2.97979 0.0367737 0)
(2.97802 0.0206291 0)
(2.9797 0.0125309 0)
(2.98543 0.00638788 0)
(2.99062 -0.00178158 0)
(2.9889 -0.00526562 0)
(2.98646 -0.00301353 0)
(2.98015 0.00797594 0)
(2.96904 0.021879 0)
(2.95427 0.0302274 0)
(2.939 0.0333036 0)
(2.93342 0.0318827 0)
(2.92711 0.0254756 0)
(2.92259 0.0214095 0)
(2.92115 0.0178124 0)
(2.91271 0.0153553 0)
(2.90023 0.0160402 0)
(2.89127 0.0198727 0)
(2.87641 0.0257012 0)
(2.86214 0.0314457 0)
(2.85422 0.0318618 0)
(2.84549 0.0271204 0)
(2.84219 0.0183503 0)
(2.84159 0.0111583 0)
(2.83943 0.00282497 0)
(2.83852 -0.00505612 0)
(2.8359 -0.00761589 0)
(2.81604 -0.00635359 0)
(2.80361 -0.00284419 0)
(2.7954 0.00272855 0)
(2.79176 0.00394641 0)
(2.79735 0.00538221 0)
(2.80602 0.0144657 0)
(2.80865 0.022359 0)
(2.80582 0.0253149 0)
(2.80043 0.0225107 0)
(2.79545 0.01019 0)
(2.79318 -0.0159087 0)
(2.79767 -0.0498654 0)
(2.80989 -0.0715099 0)
(2.83113 -0.0680293 0)
(2.86285 -0.0475823 0)
(2.891 -0.0311169 0)
(2.90677 -0.0341388 0)
(2.91743 -0.0395843 0)
(2.92699 -0.040325 0)
(2.93293 -0.0385639 0)
(2.94051 -0.0353486 0)
(2.948 -0.0290397 0)
(2.96282 -0.0215063 0)
(1.66222 0.990666 0)
(1.96666 0.888526 0)
(2.17822 0.80592 0)
(2.43017 0.557829 0)
(2.60128 0.262235 0)
(2.68674 0.19685 0)
(2.70474 0.135704 0)
(2.81209 -0.0661754 0)
(2.84971 -0.284879 0)
(2.89139 -0.314787 0)
(2.91614 -0.369198 0)
(2.92405 -0.452841 0)
(2.90864 -0.501982 0)
(2.92795 -0.467553 0)
(2.92339 -0.412743 0)
(2.91528 -0.388079 0)
(2.88942 -0.346615 0)
(2.87153 -0.296114 0)
(2.86455 -0.243452 0)
(2.85716 -0.193996 0)
(2.85919 -0.166357 0)
(2.84709 -0.113494 0)
(2.82986 -0.0458096 0)
(2.83268 0.00139633 0)
(2.83601 0.0117754 0)
(2.84898 0.023717 0)
(2.8564 0.0240514 0)
(2.8666 0.0348119 0)
(2.8633 0.0405836 0)
(2.86651 0.0270632 0)
(2.88691 0.00739608 0)
(2.90614 -0.00830403 0)
(2.92247 -0.0154184 0)
(2.93006 -0.0157549 0)
(2.92978 -0.0145087 0)
(2.92627 -0.0127071 0)
(2.92158 -0.00856271 0)
(2.92567 -0.00328238 0)
(2.93679 0.00139845 0)
(2.94442 0.00788884 0)
(2.953 0.0128424 0)
(2.96638 0.0212488 0)
(2.98296 0.0299505 0)
(2.99626 0.032114 0)
(2.99982 0.0301922 0)
(2.99412 0.0236819 0)
(2.98854 0.0125569 0)
(2.99494 0.0107847 0)
(3.00221 0.0138379 0)
(3.00978 0.0190459 0)
(3.01893 0.0205782 0)
(3.0209 0.0174948 0)
(3.01854 0.0152071 0)
(3.01525 0.0143297 0)
(3.00409 0.0149724 0)
(2.98574 0.0183901 0)
(2.9709 0.0253838 0)
(2.9665 0.0293667 0)
(2.96421 0.0313258 0)
(2.96168 0.0352931 0)
(2.96382 0.0366786 0)
(2.96322 0.0294104 0)
(2.95415 0.0229294 0)
(2.94411 0.0201246 0)
(2.93289 0.0177398 0)
(2.92299 0.017564 0)
(2.91434 0.0184795 0)
(2.90784 0.0199505 0)
(2.90586 0.022397 0)
(2.90485 0.023814 0)
(2.90121 0.0238528 0)
(2.89469 0.0249248 0)
(2.88684 0.0202911 0)
(2.8724 0.00895353 0)
(2.85224 0.00099763 0)
(2.83705 -0.00276705 0)
(2.82823 -0.00428107 0)
(2.82916 -0.00341759 0)
(2.83766 0.000886683 0)
(2.84399 0.00643084 0)
(2.84604 0.0104301 0)
(2.84723 0.0119221 0)
(2.85118 0.005642 0)
(2.85851 -0.0161228 0)
(2.86717 -0.0491822 0)
(2.8753 -0.0762352 0)
(2.88785 -0.082213 0)
(2.91256 -0.0689275 0)
(2.92264 -0.0520614 0)
(2.91995 -0.0479953 0)
(2.92539 -0.0486672 0)
(2.93621 -0.0487203 0)
(2.94925 -0.0451043 0)
(2.95961 -0.0363536 0)
(2.96723 -0.0272539 0)
(2.97766 -0.0229272 0)
(1.6158 0.957985 0)
(1.86064 0.874001 0)
(2.05775 0.801755 0)
(2.26194 0.662096 0)
(2.432 0.442892 0)
(2.50959 0.374678 0)
(2.59241 0.266791 0)
(2.69891 0.0665796 0)
(2.73853 -0.0348338 0)
(2.76837 -0.0290045 0)
(2.79322 -0.0878995 0)
(2.82913 -0.23979 0)
(2.83782 -0.304036 0)
(2.85914 -0.291625 0)
(2.87443 -0.343471 0)
(2.8717 -0.369588 0)
(2.89025 -0.397356 0)
(2.91527 -0.378354 0)
(2.92465 -0.353866 0)
(2.90718 -0.335644 0)
(2.89095 -0.298419 0)
(2.87343 -0.232882 0)
(2.85652 -0.150398 0)
(2.85985 -0.0943971 0)
(2.86467 -0.0863415 0)
(2.86835 -0.0592365 0)
(2.87074 -0.0431444 0)
(2.86871 -0.0114112 0)
(2.86884 0.0253172 0)
(2.86793 0.0286364 0)
(2.88418 0.0265689 0)
(2.89477 0.0245592 0)
(2.9105 0.0225739 0)
(2.9182 0.0221531 0)
(2.92278 0.0151757 0)
(2.92536 -0.00601477 0)
(2.92139 -0.0205959 0)
(2.92583 -0.0191241 0)
(2.93556 -0.0130556 0)
(2.94469 -0.00282915 0)
(2.95517 0.0107152 0)
(2.96747 0.0193157 0)
(2.98701 0.0279023 0)
(3.00574 0.0401711 0)
(3.00998 0.0442044 0)
(2.99663 0.0282957 0)
(2.99391 0.0149198 0)
(3.00219 0.0141244 0)
(3.00985 0.015129 0)
(3.02157 0.0168893 0)
(3.03726 0.0198347 0)
(3.04315 0.0216753 0)
(3.04338 0.0220134 0)
(3.04143 0.0227294 0)
(3.03028 0.0237727 0)
(3.00998 0.0264497 0)
(2.999 0.0306027 0)
(2.99729 0.032656 0)
(2.99751 0.0342535 0)
(2.99917 0.0344443 0)
(3.00495 0.034739 0)
(3.00812 0.0324392 0)
(3.00068 0.0299847 0)
(2.99406 0.0282328 0)
(2.98499 0.0277736 0)
(2.97466 0.026563 0)
(2.96619 0.0224864 0)
(2.96304 0.0171769 0)
(2.96629 0.0174772 0)
(2.96591 0.0246827 0)
(2.96174 0.0303494 0)
(2.95448 0.0337181 0)
(2.9427 0.0320572 0)
(2.92557 0.0233616 0)
(2.90531 0.0144822 0)
(2.88654 0.00739268 0)
(2.8748 0.00188097 0)
(2.87292 0.00149274 0)
(2.87792 0.0071076 0)
(2.88385 0.0134602 0)
(2.88948 0.0152878 0)
(2.89651 0.00944916 0)
(2.90618 -0.00900133 0)
(2.91934 -0.0383853 0)
(2.93379 -0.0666569 0)
(2.94464 -0.0829872 0)
(2.95378 -0.083837 0)
(2.96367 -0.0738331 0)
(2.95071 -0.0626401 0)
(2.9358 -0.057673 0)
(2.93876 -0.0554929 0)
(2.95257 -0.0515813 0)
(2.97019 -0.0435611 0)
(2.97836 -0.0376252 0)
(2.97892 -0.0354232 0)
(2.98527 -0.028791 0)
(1.59003 0.924182 0)
(1.78522 0.881364 0)
(1.98453 0.800175 0)
(2.16319 0.67776 0)
(2.28091 0.565648 0)
(2.36686 0.516797 0)
(2.47029 0.419924 0)
(2.58966 0.222059 0)
(2.64262 0.0981323 0)
(2.67447 0.0943298 0)
(2.72041 0.0244516 0)