/*--------------------------------*- C++ -*----------------------------------*\
  =========                 |
  \\      /  F ield         | OpenFOAM: The Open Source CFD Toolbox
   \\    /   O peration     | Website:  https://openfoam.org
    \\  /    A nd           | Version:  7
     \\/     M anipulation  |
\*---------------------------------------------------------------------------*/
FoamFile
{
    version     2.0;
    format      ascii;
    class       volScalarField;
    location    "2.5";
    object      T;
}
// * * * * * * * * * * * * * * * * * * * * * * * * * * * * * * * * * * * * * //

dimensions      [0 0 0 1 0 0 0];

internalField   nonuniform List<scalar> 
4032
(
1
1
1
1
1
1
1
1
1
1
1
1
2.23521
2.72795
2.73696
2.74714
2.75703
2.76669
2.77797
2.79192
2.80828
2.8243
2.83674
2.84357
1
1
1
1
1
1
1
1
1
1
1
1
2.21556
2.7243
2.73529
2.7452
2.7551
2.76454
2.77548
2.78895
2.80474
2.82018
2.83211
2.83872
1
1
1
1
1
1
1
1
1
1
1
1
2.16928
2.71865
2.7321
2.74193
2.7519
2.7611
2.77164
2.78454
2.79965
2.81449
2.8258
2.83242
1
1
1
1
1
1
1
1
1
1
1
1
2.09544
2.70569
2.72741
2.73745
2.74758
2.75646
2.76652
2.77873
2.7929
2.80652
2.81619
2.82115
1
1
1
1
1
1
1
1
1
1
1
1
1.99062
2.68108
2.71938
2.72964
2.73979
2.7481
2.75712
2.76789
2.7803
2.79253
2.80116
2.80712
1
1
1
1
1
1
1
1
1
1
1
1
1.84982
2.63967
2.70423
2.71647
2.72795
2.7363
2.74462
2.75456
2.76607
2.77678
2.78116
2.77841
1
1
1
1
1
1
1
1
1
1
1
1
1.65911
2.57167
2.68148
2.70006
2.71376
2.72213
2.72956
2.73754
2.74419
2.74727
2.74509
2.74096
1
1
1
1
1
1
1
1
1
1
1
1
1.38516
2.45736
2.65719
2.67847
2.69551
2.70456
2.71114
2.71552
2.71714
2.71799
2.71887
2.7316
1
1
1
1
1
1
1
1
1
1
1
1
1.04788
2.32816
2.65806
2.66214
2.67118
2.67925
2.68375
2.68553
2.6812
2.66924
2.6264
2.52905
1
1
1
1
1
1
1
1
1
1
1
1
1.00055
2.17167
2.61914
2.62794
2.6386
2.6479
2.64961
2.64808
2.63786
2.61116
2.56167
2.40456
1
1
1
1
1
1
1
1
1
1
1
1
0.999995
1.90611
2.56596
2.61383
2.62125
2.62423
2.62089
2.61295
2.59578
2.55955
2.50034
2.32666
1
1
1
1
1
1
1
1
1
1
1
1
0.999999
1.49147
2.43417
2.59272
2.60163
2.60076
2.59394
2.5801
2.55537
2.51587
2.44279
2.29128
1
1
1
1
1
1
1
1
1
1
1
1
1
1.06761
2.25426
2.57012
2.57425
2.57351
2.56575
2.54976
2.52112
2.47925
2.40102
2.28699
1
1
1
1
1
1
1
1
1
1
1
1
1
1.00097
2.0082
2.50117
2.53938
2.53893
2.53373
2.51907
2.49243
2.44837
2.37439
2.28408
1
1
1
1
1
1
1
1
1
1
1
1
1
0.999994
1.5109
2.36541
2.51024
2.50693
2.5028
2.49037
2.46761
2.42341
2.35911
2.28481
1
1
1
1
1
1
1
1
1
1
1
1
1
0.999998
1.06607
2.16663
2.47204
2.46962
2.46913
2.45929
2.43944
2.40092
2.34701
2.28391
1
1
1
1
1
1
1
1
1
1
1
1
1
1
1.00082
1.7753
2.37059
2.44375
2.43771
2.4287
2.40969
2.3777
2.33351
2.28045
1
1
1
1
1
1
1
1
1
1
1
1
1
1
0.999998
1.17662
2.19103
2.42249
2.40914
2.4002
2.38082
2.35162
2.31434
2.27028
1
1
1
1
1
1
1
1
1
1
1
1
1
1
0.999999
1.0068
1.89734
2.34453
2.37824
2.36767
2.34965
2.32351
2.29163
2.25442
1
1
1
1
1
1
1
1
1
1
1
1
1
1
1
1.00001
1.27265
2.16578
2.35962
2.33854
2.32034
2.29777
2.27137
2.23933
1
1
1
1
1
1
1
1
1
1
1
1
1
1
1
1
1.01669
1.88589
2.3063
2.30328
2.28849
2.27017
2.24812
2.22112
1
1
1
1
1
1
1
1
1
1
1
1
1
1
1
1
1.00007
1.28233
2.11903
2.28835
2.26504
2.24676
2.22572
2.2021
1
1
1
1
1
1
1
1
1
1
1
1
1
1
1
1
1
1.01782
1.76894
2.22851
2.23743
2.22122
2.20246
2.18156
1
1
1
1
1
1
1
1
1
1
1
1
1
1
1
1
1
1.00011
1.20428
2.01853
2.22422
2.20048
2.18348
2.16425
1
1
1
1
1
1
1
1
1
1
1
1
1
1
1
1
1
1
1.00907
1.54471
2.09047
2.18385
2.16487
2.14621
1
1
1
1
1
1
1
1
1
1
1
1
1
1
1
1
1
1
1.00006
1.08945
1.82146
2.15306
2.14796
2.13136
1
1
1
1
1
1
1
1
1
1
1
1
1
1
1
1
1
1
1
1.00197
1.29554
1.95895
2.12586
2.11165
1
1
1
1
1
1
1
1
1
1
1
1
1
1
1
1
1
1
1
1.00001
1.02148
1.53182
2.00596
2.09712
1
1
1
1
1
1
1
1
1
1
1
1
1
1
1
1
1
1
1
1
1.00024
1.09104
1.7229
2.03114
1
1
1
1
1
1
1
1
1
1
1
1
1
1
1
1
1
1
1
1
1
1.00231
1.22864
1.81914
1
1
1
1
1
1
1
1
1
1
1
1
1
1
1
1
1
1
1
1
1
1.00001
1.01315
1.37358
1
1
1
1
1
1
1
1
1
1
1
1
1
1
1
1
1
1
1
1
1
1
1.00014
1.04172
1
1
1
1
1
1
1
1
1
1
1
1
1
1
1
1
1
1
1
1
1
1
1
1.00073
1
1
1
1
1
1
1
1
1
1
1
1
1
1
1
1
1
1
1
1
1
1
1
1
1
1
1
1
1
1
1
1
1
1
1
1
1
1
1
1
1
1
1
1
1
1
1
1
1
1
1
1
1
1
1
1
1
1
1
1
1
1
1
1
1
1
1
1
1
1
1
1
1
1
1
1
1
1
1
1
1
1
1
1
1
1
1
1
1
1
1
1
1
1
1
1
1
1
1
1
1
1
1
1
1
1
1
1
1
1
1
1
1
1
1
1
1
1
1
1
1
1
1
1
1
1
1
1
1
1
1
1
1
1
1
1
1
1
1
1
1
1
1
1
1
1
1
1
1
1
1
1
1
1
1
1
1
1
1
1
1
1
1
1
1
1
1
1
1.70073
1.2114
0.963449
0.957307
1.07996
1.23062
1.35128
1.47596
1.60799
1.63947
1.63508
1.62164
1.63569
1.69584
1.76876
1.78389
1.7779
1.74092
1.69654
1.6914
1.71204
1.74201
1.74535
1.73571
1.70522
1.68647
1.6863
1.70085
1.72416
1.72831
1.723
1.70504
1.68925
1.68455
1.68482
1.70322
1.8592
2.50498
2.82359
2.79682
2.74689
2.70919
2.66687
2.62982
2.59974
2.5755
2.55688
2.54393
2.52708
2.50495
2.4855
2.46875
2.45402
2.43997
2.42174
2.40151
2.37948
2.3597
2.34335
2.32883
2.31843
2.30679
2.29328
2.28008
2.26357
2.24332
2.22598
2.2137
2.20372
2.19633
2.1916
2.18537
2.17771
2.16684
2.14828
2.12712
2.11515
2.10866
2.10356
2.09983
2.09782
2.09436
2.08812
2.07792
2.05761
2.0327
2.02009
2.01457
2.00992
2.00612
2.00451
1.99981
1.99055
1.9783
1.9593
1.93177
1.92847
1.67856
1.5293
1.33179
1.28802
1.28245
1.28333
1.30531
1.33602
1.35987
1.37538
1.39861
1.44182
1.50856
1.58699
1.63942
1.65102
1.64625
1.6332
1.63349
1.65118
1.6788
1.68753
1.68493
1.67371
1.66096
1.65999
1.66834
1.68079
1.68754
1.68745
1.6824
1.67329
1.66427
1.67563
1.77996
1.97383
2.25652
2.60364
2.66334
2.65696
2.63306
2.60199
2.57768
2.56262
2.54648
2.53019
2.51291
2.49388
2.47574
2.46037
2.44713
2.43519
2.42247
2.40612
2.38838
2.36872
2.34856
2.33127
2.3155
2.30197
2.28974
2.27889
2.26874
2.25687
2.24213
2.22541
2.20975
2.19786
2.1888
2.18101
2.17435
2.16753
2.15879
2.14512
2.12719
2.11204
2.1037
2.09853
2.09423
2.09043
2.08571
2.07911
2.06965
2.05484
2.03545
2.01918
2.01074
2.00591
2.00148
1.99684
1.99094
1.98268
1.9721
1.9583
1.93462
2.04099
1.84433
1.71608
1.58857
1.47447
1.38406
1.31562
1.29033
1.28539
1.27449
1.27654
1.30041
1.32698
1.3524
1.39502
1.4453
1.48005
1.51354
1.54161
1.55846
1.57212
1.58413
1.59444
1.60326
1.6095
1.61197
1.61511
1.61551
1.61138
1.60901
1.60928
1.61302
1.61783
1.64003
1.72763
1.94175
2.04496
2.05481
2.22138
2.42633
2.53358
2.53976
2.52883
2.50976
2.49001
2.48057
2.46995
2.4529
2.43275
2.41815
2.4068
2.39721
2.38867
2.378
2.36614
2.35336
2.33827
2.32154
2.30476
2.28733
2.27011
2.25567
2.24396
2.23473
2.2277
2.2203
2.21095
2.1982
2.18289
2.16903
2.1586
2.14999
2.14127
2.13189
2.12298
2.11306
2.10106
2.08911
2.08149
2.0761
2.07048
2.06387
2.05537
2.04507
2.035
2.02531
2.01452
2.00175
1.99147
1.98528
1.97913
1.97167
1.9625
1.95196
1.94245
1.92865
2.10424
1.94959
1.81706
1.71413
1.63274
1.55105
1.44662
1.37563
1.36786
1.35621
1.33309
1.30731
1.29056
1.28615
1.29399
1.31697
1.35165
1.39583
1.44117
1.46868
1.47913
1.48749
1.49978
1.51713
1.5407
1.56156
1.5655
1.56323
1.55372
1.54658
1.54537
1.5484
1.56852
1.67355
1.8716
2.00255
2.02777
2.0078
2.0155
2.12523
2.30738
2.39902
2.43119
2.44332
2.42659
2.41241
2.39799
2.38265
2.36693
2.3535
2.34482
2.33695
2.329
2.31978
2.31142
2.30206
2.29007
2.27616
2.26144
2.24611
2.23067
2.21641
2.20462
2.19617
2.19009
2.18481
2.17836
2.16927
2.15586
2.13928
2.12577
2.1154
2.10557
2.0969
2.09015
2.08385
2.07599
2.06456
2.05236
2.04439
2.03776
2.02968
2.01944
2.00976
2.0036
1.99899
1.99348
1.98423
1.97049
1.95887
1.95088
1.94258
1.93274
1.92267
1.91634
1.90921
2.15114
2.02781
1.9159
1.7999
1.72
1.66235
1.5921
1.49968
1.43345
1.41392
1.39581
1.37291
1.3501
1.31452
1.28843
1.28826
1.29445
1.31289
1.34745
1.38329
1.40302
1.42052
1.43906
1.45695
1.48194
1.50673
1.5178
1.52
1.51849
1.5119
1.51203
1.52359
1.61291
1.833
1.96565
2.01079
2.01425
2.00445
1.9885
1.98601
2.05914
2.21131
2.32165
2.37751
2.38674
2.37891
2.36099
2.34248
2.32651
2.31147
2.29915
2.29048
2.28136
2.27194
2.26442
2.25747
2.24855
2.23681
2.22252
2.20659
2.19035
2.17643
2.16677
2.16009
2.15473
2.14965
2.14362
2.13583
2.12431
2.10668
2.08826
2.07646
2.06858
2.06241
2.05699
2.05187
2.04596
2.03642
2.02093
2.00601
1.99596
1.98729
1.97992
1.9744
1.97037
1.96629
1.96188
1.95587
1.9442
1.92683
1.91346
1.90442
1.89636
1.89045
1.88727
1.88172
2.1781
2.07416
1.98461
1.88822
1.79275
1.72664
1.67081
1.61106
1.55418
1.48766
1.44421
1.43382
1.42174
1.39291
1.35187
1.31811
1.30521
1.30602
1.31055
1.31726
1.3289
1.34238
1.36774
1.39663
1.42297
1.44913
1.47407
1.49151
1.49182
1.48986
1.5058
1.59799
1.81727
1.95823
1.99688
2.00988
2.0099
1.99803
1.98304
1.96687
1.96049
1.99973
2.12539
2.27683
2.3348
2.34358
2.34063
2.32672
2.31131
2.29385
2.27438
2.25787
2.24642
2.23798
2.2317
2.2257
2.21825
2.20919
2.19697
2.18131
2.16475
2.15106
2.14119
2.1333
2.12614
2.11921
2.11237
2.10491
2.09495
2.07971
2.06039
2.04726
2.03983
2.03351
2.02804
2.0228
2.01747
2.0093
1.993
1.97161
1.95839
1.95126
1.94545
1.94079
1.93851
1.93498
1.9306
1.92633
1.91803
1.8979
1.87538
1.8658
1.86144
1.85804
1.85765
1.85378
2.19976
2.1109
2.02958
1.94642
1.86611
1.79884
1.72548
1.66733
1.63014
1.58491
1.52752
1.47633
1.45773
1.44141
1.41651
1.38762
1.35779
1.324
1.3112
1.31195
1.31696
1.32883
1.33455
1.34084
1.35369
1.37461
1.40189
1.43642
1.45702
1.47841
1.60289
1.80558
1.97563
2.00374
2.01327
2.01274
2.00671
1.99139
1.97547
1.95941
1.94794
1.93818
1.95606
2.05671
2.20222
2.27954
2.30416
2.31059
2.30433
2.2871
2.26475
2.24194
2.22275
2.2127
2.20676
2.20269
2.1962
2.18852
2.17834
2.16442
2.14835
2.13376
2.12287
2.11404
2.10531
2.09605
2.08654
2.07723
2.06765
2.0559
2.04084
2.02733
2.01886
2.01199
2.00558
1.9995
1.99318
1.98462
1.9693
1.94666
1.9323
1.92645
1.92088
1.91552
1.91257
1.90974
1.90453
1.89983
1.89215
1.87419
1.84919
1.8374
1.83398
1.83088
1.82945
1.82605
2.21145
2.1351
2.06351
1.98812
1.91496
1.85483
1.79024
1.72154
1.67508
1.6419
1.60279
1.55821
1.50989
1.47448
1.4617
1.4482
1.42758
1.39281
1.35007
1.33592
1.33344
1.33126
1.33146
1.33288
1.32864
1.32683
1.3343
1.35882
1.39101
1.51834
1.76709
1.9218
1.99568
2.00092
1.9982
1.99028
1.98598
1.97725
1.9672
1.9539
1.93892
1.9253
1.91008
1.91465
1.97219
2.09846
2.20378
2.25616
2.27715
2.2727
2.25268
2.2322
2.20997
2.19344
2.18455
2.17797
2.17332
2.16733
2.15973
2.14971
2.13561
2.11848
2.10476
2.09562
2.08711
2.07815
2.06812
2.05673
2.04475
2.03331
2.02257
2.01188
2.00212
1.99393
1.98647
1.9792
1.97178
1.96313
1.95121
1.93447
1.91744
1.90807
1.90235
1.89674
1.89225
1.88822
1.88284
1.87627
1.86731
1.85409
1.83799
1.82273
1.81402
1.81011
1.80825
1.80471
2.2182
2.15261
2.08819
2.02062
1.95496
1.89646
1.83923
1.78133
1.73065
1.68251
1.64493
1.61672
1.58328
1.54062
1.49505
1.47677
1.46536
1.44649
1.42
1.3905
1.36698
1.34408
1.33424
1.33665
1.33562
1.33191
1.32837
1.33469
1.4381
1.69443
1.83616
1.90085
1.94362
1.94531
1.94191
1.94344
1.94707
1.9465
1.94206
1.93136
1.91906
1.90551
1.8934
1.88246
1.86899
1.89304
1.98922
2.1125
2.19641
2.22302
2.22683
2.21788
2.2019
2.18046
2.16049
2.15065
2.14438
2.14119
2.13692
2.13012
2.12016
2.10286
2.0834
2.07326
2.06592
2.05832
2.05021
2.04062
2.02869
2.01508
2.00251
1.99328
1.98567
1.9778
1.96968
1.96124
1.95236
1.94353
1.93508
1.92549
1.91167
1.8956
1.88661
1.88113
1.87524
1.86736
1.85762
1.8481
1.84043
1.83469
1.82828
1.81908
1.80749
1.79701
1.7917
1.78473
2.21699
2.16091
2.10337
2.04423
1.987
1.9307
1.87375
1.82451
1.782
1.73595
1.68414
1.64823
1.62479
1.59552
1.56062
1.52547
1.48868
1.47323
1.46472
1.4473
1.42405
1.39382
1.36179
1.35543
1.3522
1.34303
1.34901
1.4248
1.65463
1.81051
1.84928
1.84713
1.84717
1.85001
1.8569
1.86658
1.87305
1.88221
1.8908
1.88825
1.88083
1.87892
1.87296
1.86329
1.84925
1.82838
1.83373
1.888
1.99936
2.10225
2.15825
2.18091
2.18338
2.16751
2.14116
2.1216
2.11247
2.10896
2.10811
2.10396
2.09789
2.085
2.06289
2.04647
2.03892
2.03281
2.02702
2.02035
2.01269
2.00193
1.98667
1.97126
1.9624
1.9572
1.9513
1.94387
1.93532
1.92719
1.92011
1.91293
1.90367
1.89017
1.87381
1.86054
1.85105
1.84325
1.83532
1.82717
1.82062
1.81686
1.81397
1.80978
1.80209
1.79006
1.7788
1.76652
2.21125
2.16413
2.11318
2.06124
2.01096
1.95984
1.9076
1.85871
1.81524
1.77515
1.7333
1.69568
1.65699
1.62158
1.59969
1.57665
1.54451
1.50602
1.48767
1.4774
1.46396
1.4457
1.41688
1.38573
1.3704
1.37091
1.43361
1.65206
1.83097
1.85627
1.84541
1.82973
1.8152
1.80347
1.79491
1.78648
1.77912
1.78415
1.7911
1.80341
1.81685
1.82932
1.83058
1.82885
1.82012
1.80679
1.79402
1.78367
1.80519
1.88738
2.00311
2.0889
2.12959
2.13379
2.12125
2.09655
2.08303
2.07579
2.07382
2.07215
2.06813
2.06037
2.04468
2.02332
2.01017
2.00394
1.99886
1.99452
1.98922
1.9828
1.97251
1.95523
1.9383
1.93093
1.92709
1.92229
1.91637
1.91038
1.90427
1.8977
1.89019
1.87954
1.86242
1.84255
1.82926
1.82078
1.814
1.80865
1.80507
1.8021
1.79901
1.79547
1.79002
1.78068
1.76817
1.75033
2.20284
2.16201
2.11662
2.07203
2.02653
1.9781
1.9312
1.8893
1.84645
1.80179
1.76461
1.73158
1.69623
1.65955
1.62578
1.60465
1.58128
1.55345
1.52857
1.50225
1.48367
1.47502
1.45891
1.43086
1.42271
1.48189
1.68336
1.86635
1.8896
1.87088
1.84668
1.8253
1.80869
1.79596
1.78403
1.77278
1.7592
1.74044
1.7239
1.72227
1.72791
1.73727
1.74815
1.76026
1.76639
1.76497
1.75944
1.74724
1.7415
1.74978
1.79749
1.89632
1.99781
2.06164
2.07348
2.06924
2.05614
2.04466
2.04043
2.03847
2.03456
2.02869
2.02127
2.00779
1.98714
1.97273
1.96656
1.96235
1.95942
1.95503
1.94941
1.94005
1.92271
1.905
1.89843
1.89543
1.89225
1.88849
1.88385
1.87815
1.87127
1.86216
1.84793
1.8277
1.80909
1.79912
1.79479
1.7921
1.78945
1.78663
1.78345
1.77974
1.77485
1.76721
1.7551
1.73524
2.1894
2.15371
2.11516
2.07597
2.03452
1.99115
1.95117
1.91021
1.86901
1.82801
1.79451
1.75828
1.72386
1.69073
1.66272
1.63537
1.60626
1.58199
1.56464
1.54388
1.51551
1.48989
1.47945
1.4748
1.53221
1.7358
1.91473
1.93463
1.91293
1.8854
1.85961
1.83886
1.81898
1.80012
1.78213
1.76548
1.74803
1.72699
1.70848
1.69561
1.68518
1.67686
1.67115
1.67298
1.67737
1.68429
1.68726
1.69313
1.6939
1.69251
1.69582
1.71924
1.78664
1.88636
1.96373
2.01089
2.01593
2.01036
2.00723
2.00422
2.00345
1.99965
1.99398
1.98663
1.97073
1.94727
1.93435
1.92958
1.92611
1.92424
1.92062
1.91554
1.90641
1.88773
1.87078
1.86624
1.86373
1.86099
1.85754
1.85299
1.84721
1.83949
1.82789
1.81036
1.79153
1.78039
1.77657
1.77459
1.77265
1.77043
1.76774
1.76369
1.75665
1.74522
1.73441
1.71765
2.17452
2.14314
2.11076
2.07577
2.03774
2.00026
1.96417
1.9265
1.88602
1.85035
1.81704
1.78327
1.74872
1.71758
1.69121
1.66359
1.63611
1.60789
1.58622
1.57079
1.54826
1.52063
1.51311
1.57067
1.77515
1.95692
1.97721
1.95634
1.92968
1.90457
1.877
1.84934
1.82624
1.80724
1.7902
1.77314
1.75478
1.73095
1.70439
1.68417
1.67134
1.66053
1.65112
1.64156
1.63273
1.62291
1.61246
1.61251
1.61326
1.61594
1.62341
1.62747
1.64007
1.68187
1.75782
1.85138
1.92812
1.96625
1.96339
1.96725
1.97473
1.97365
1.96818
1.96044
1.94806
1.92949
1.91005
1.89975
1.89564
1.89303
1.89121
1.88756
1.8823
1.87172
1.85209
1.83707
1.83296
1.83052
1.82788
1.82461
1.82043
1.81452
1.80522
1.79081
1.77439
1.76327
1.75758
1.75442
1.75232
1.75052
1.74845
1.74475
1.73723
1.72385
1.70766
1.69062
2.15751
2.1313
2.10321
2.07184
2.03789
2.0061
1.97223
1.93635
1.90022
1.86907
1.83568
1.80334
1.76946
1.74277
1.71412
1.68676
1.66024
1.63697
1.61291
1.5868
1.56691
1.55928
1.62341
1.8307
2.0019
2.01618
1.99433
1.96733
1.94333
1.91701
1.88687
1.86057
1.83928
1.82052
1.80304
1.78535
1.76578
1.74143
1.71335
1.6883
1.66963
1.65544
1.64222
1.63002
1.6176
1.60417
1.59148
1.57689
1.56095
1.55048
1.5508
1.55198
1.5516
1.55717
1.57759
1.62509
1.71394
1.81714
1.88476
1.91724
1.93051
1.93998
1.94031
1.93471
1.9233
1.91009
1.89581
1.88055
1.87072
1.86571
1.86224
1.85999
1.85593
1.84901
1.83574
1.81592
1.8034
1.80023
1.79798
1.79561
1.79292
1.78921
1.78298
1.77235
1.75774
1.74471
1.73722
1.73326
1.73061
1.7281
1.72511
1.72083
1.71409
1.70132
1.68378
1.66796
2.14219
2.11917
2.09417
2.0655
2.03636
2.00717
1.97649
1.94214
1.91213
1.88179
1.85111
1.81782
1.78892
1.76219
1.73367
1.70754
1.68071
1.65897
1.63365
1.6082
1.60105
1.66823
1.88407
2.05142
2.05334
2.03087
2.00252
1.97738
1.95284
1.92406
1.89474
1.8704
1.84957
1.83027
1.81177
1.79302
1.77224
1.74754
1.71935
1.6946
1.67619
1.66039
1.64565
1.63102
1.61567
1.59883
1.58045
1.56135
1.54349
1.53213
1.52438
1.51411
1.50526
1.50118
1.49488
1.49478
1.51151
1.56444
1.66819
1.76757
1.8536
1.87787
1.89185
1.89847
1.89691
1.89214
1.88081
1.86847
1.85744
1.84642
1.83693
1.83141
1.82704
1.82224
1.81458
1.80131
1.7839
1.77412
1.77068
1.76836
1.76618
1.76359
1.75999
1.75427
1.74383
1.72872
1.71627
1.71021
1.70706
1.70424
1.70047
1.6951
1.6884
1.67824
1.66566
1.6515
2.1267
2.10574
2.08236
2.0573
2.03238
2.00508
1.97505
1.94583
1.91927
1.89018
1.85995
1.8289
1.80485
1.77694
1.75083
1.72283
1.70049
1.67395
1.64879
1.64351
1.71994
1.93631
2.09777
2.09288
2.06514
2.03518
2.00972
1.9856
1.95861
1.92961
1.9021
1.87798
1.85633
1.83637
1.81744
1.79866
1.77877
1.75608
1.72945
1.70272
1.6815
1.66442
1.64893
1.63349
1.61725
1.59933
1.57957
1.5573
1.53586
1.51949
1.5074
1.49627
1.48828
1.48213
1.47172
1.46163
1.4517
1.44435
1.45739
1.50903
1.6149
1.72303
1.80481
1.84759
1.85204
1.85913
1.86034
1.85616
1.84593
1.83277
1.81984
1.81032
1.803
1.79667
1.79136
1.78367
1.77227
1.75855
1.74881
1.74501
1.7437
1.74336
1.7428
1.73842
1.72852
1.71499
1.6999
1.68855
1.68319
1.68063
1.67646
1.66985
1.66294
1.65607
1.65056
1.6396
2.11351
2.0935
2.07069
2.04774
2.02474
2.00012
1.97241
1.94728
1.921
1.89478
1.86524
1.84067
1.81591
1.78996
1.76304
1.7377
1.7135
1.68614
1.68857
1.77631
1.99263
2.13871
2.13435
2.1043
2.07181
2.0444
2.01858
1.99161
1.9631
1.93405
1.90651
1.88191
1.85998
1.83985
1.82058
1.80132
1.78112
1.75872
1.73311
1.70666
1.68486
1.66787
1.6527
1.63736
1.62096
1.60324
1.58362
1.56086
1.53714
1.51709
1.50151
1.48915
1.47918
1.46809
1.45623
1.44517
1.43349
1.42155
1.41033
1.40219
1.41203
1.46267
1.55647
1.67642
1.7527
1.81242
1.82624
1.82383
1.82241
1.81884
1.8084
1.79788
1.78739
1.778
1.77108
1.76551
1.75782
1.74562
1.7355
1.72994
1.72608
1.72219
1.71691
1.71236
1.70798
1.69929
1.68734
1.67556
1.66354
1.65419
1.64889
1.64448
1.63979
1.63571
1.63301
1.6254
2.09399
2.07557
2.05525
2.03517
2.01422
1.99044
1.96711
1.94584
1.92181
1.89562
1.86962
1.84841
1.8233
1.79936
1.77242
1.74755
1.72201
1.72573
1.83832
2.05962
2.18151
2.16906
2.13241
2.09891
2.07435
2.0505
2.02418
1.99625
1.96727
1.93692
1.90751
1.88216
1.86045
1.84076
1.82195
1.80322
1.78348
1.76119
1.73522
1.70799
1.68555
1.66871
1.65383
1.63887
1.62294
1.60534
1.58502
1.5617
1.53745
1.51746
1.50179
1.4885
1.47566
1.46254
1.45035
1.43837
1.42492
1.40876
1.39321
1.38241
1.37482
1.36949
1.37675
1.41826
1.51035
1.63221
1.71709
1.7616
1.78847
1.7953
1.79355
1.78918
1.77974
1.76971
1.75887
1.74604
1.73428
1.7286
1.7243
1.71901
1.71203
1.70511
1.6992
1.69395
1.6864
1.67924
1.6732
1.66395
1.65041
1.63656
1.62727
1.62232
1.61969
1.61782
1.61661
1.61292
2.07755
2.05771
2.03998
2.02246
2.00375
1.98224
1.96186
1.94249
1.92031
1.89414
1.8735
1.85238
1.82961
1.80447
1.77833
1.75518
1.76709
1.89487
2.12797
2.22707
2.21171
2.17246
2.13066
2.10015
2.0767
2.05249
2.02644
1.9993
1.97039
1.93882
1.90776
1.88188
1.86019
1.84038
1.82129
1.80212
1.78198
1.75976
1.73461
1.70797
1.68428
1.66547
1.64935
1.63402
1.61869
1.60259
1.58429
1.56267
1.53934
1.51747
1.49905
1.48479
1.47289
1.46187
1.45048
1.43773
1.42383
1.40722
1.39003
1.37467
1.36301
1.35305
1.34688
1.34215
1.34811
1.38186
1.47214
1.57385
1.66527
1.7127
1.74867
1.76139
1.76431
1.76198
1.75032
1.73445
1.72327
1.71345
1.70313
1.69771
1.69647
1.69391
1.6884
1.67951
1.67105
1.66326
1.65277
1.642
1.63253
1.62342
1.61497
1.60837
1.60373
1.60112
1.59942
1.59324
2.06671
2.04765
2.02756
2.01044
1.99281
1.97279
1.9538
1.93571
1.91524
1.89193
1.87295
1.8509
1.82981
1.80542
1.78251
1.80099
1.9623
2.17739
2.2654
2.24247
2.20032
2.16273
2.13117
2.10378
2.07793
2.05159
2.02443
1.99674
1.96792
1.93742
1.90726
1.88075
1.85781
1.83664
1.81611
1.79553
1.77443
1.75227
1.72882
1.7048
1.68213
1.6623
1.64472
1.62805
1.61158
1.59514
1.5783
1.5601
1.54046
1.52106
1.50306
1.48621
1.47075
1.45774
1.44691
1.4365
1.42566
1.41281
1.39785
1.38071
1.36399
1.34922
1.34008
1.33247
1.32605
1.31995
1.32255
1.34428
1.41508
1.51646
1.61919
1.67292
1.71089
1.72798
1.72741
1.7258
1.71872
1.70341
1.69082
1.68471
1.67923
1.67284
1.66684
1.6645
1.66074
1.65172
1.6394
1.62839
1.61919
1.61065
1.60334
1.59714
1.59282
1.58982
1.58605
1.57576
2.03457
2.03285
2.01569
1.99841
1.98091
1.96257
1.94558
1.9283
1.90672
1.88716
1.86933
1.85012
1.8281
1.80684
1.83515
2.01847
2.22289
2.29513
2.27869
2.23536
2.1931
2.15693
2.12714
2.10106
2.07421
2.04674
2.01876
1.99042
1.96204
1.93384
1.90585
1.87858
1.85307
1.82939
1.80678
1.78467
1.76286
1.74124
1.7197
1.69826
1.67722
1.65731
1.6389
1.62148
1.60428
1.58667
1.56849
1.55026
1.53302
1.51761
1.50334
1.48906
1.47469
1.46101
1.44754
1.43384
1.4203
1.40893
1.39838
1.3851
1.36968
1.35538
1.34355
1.33215
1.3222
1.31257
1.30502
1.29519
1.29223
1.3077
1.36935
1.47413
1.5783
1.6391
1.66825
1.68861
1.68994
1.6892
1.68571
1.67587
1.66518
1.65829
1.6535
1.64704
1.63856
1.63237
1.62727
1.62005
1.61093
1.60182
1.59501
1.58906
1.58198
1.57193
1.56415
1.55713
1.87672
2.00991
2.00193
1.98504
1.9686
1.95191
1.93606
1.91918
1.8997
1.88178
1.8631
1.84568
1.83
1.87137
2.08377
2.27072
2.29336
2.28155
2.25207
2.22102
2.18804
2.15356
2.12063
2.09087
2.06323
2.03569
2.00777
1.97974
1.95208
1.92486
1.89761
1.87029
1.84395
1.81933
1.79612
1.77377
1.75207
1.73105
1.71064
1.69067
1.67094
1.65166
1.63327
1.61578
1.59894
1.58231
1.56548
1.54831
1.53105
1.51439
1.49909
1.4856
1.47374
1.46232
1.4503
1.43753
1.42438
1.41212
1.39887
1.38265
1.36775
1.35794
1.34921
1.33972
1.3287
1.31588
1.30208
1.289
1.28035
1.27052
1.26897
1.28395
1.33402
1.43178
1.53165
1.60696
1.62721
1.64393
1.65045
1.65475
1.65436
1.65282
1.6462
1.63499
1.62607
1.61907
1.61019
1.60203
1.59733
1.59464
1.59067
1.58406
1.57357
1.56058
1.551
1.53932
1.50381
1.90164
1.98718
1.97475
1.95593
1.93953
1.92576
1.90951
1.89256
1.87273
1.85743
1.84984
1.91179
2.13277
2.32592
2.34148
2.30195
2.25711
2.22696
2.2038
2.17645
2.14472
2.11121
2.07905
2.04975
2.02175
1.994
1.96649
1.93932
1.91231
1.88517
1.85813
1.8322
1.80818
1.78593
1.76483
1.74441
1.72449
1.70487
1.68545
1.66619
1.64728
1.62901
1.6115
1.59481
1.5788
1.56309
1.54737
1.53145
1.51539
1.49979
1.48485
1.47049
1.45696
1.44576
1.43697
1.42787
1.41686
1.40404
1.39033
1.37631
1.36188
1.34785
1.3371
1.32961
1.32156
1.30943
1.29635
1.28305
1.26879
1.26061
1.25608
1.25325
1.26459
1.30614
1.39135
1.48521
1.56418
1.58977
1.60531
1.61801
1.62492
1.62633
1.62436
1.61883
1.6074
1.5973
1.59302
1.58932
1.58311
1.57512
1.56772
1.56123
1.55219
1.54084
1.52757
1.09293
1.6045
1.90628
1.96474
1.94897
1.92881
1.91317
1.89953
1.88153
1.86434
1.86743
1.95297
2.18845
2.34529
2.34362
2.31511
2.27724
2.24014
2.20891
2.18234
2.15514
2.12646
2.09618
2.06492
2.03456
2.00585
1.9784
1.95181
1.92561
1.89938
1.87313
1.84736
1.82292
1.80027
1.77928
1.75945
1.74025
1.72131
1.70244
1.68336
1.66423
1.64542
1.62726
1.60992
1.59349
1.57769
1.56199
1.5461
1.53019
1.51482
1.50037
1.48672
1.47399
1.46241
1.45144
1.43965
1.42583
1.41052
1.39826
1.39024
1.38156
1.36942
1.3563
1.34427
1.33317
1.32403
1.31562
1.30369
1.28801
1.27246
1.26134
1.25344
1.24769
1.24251
1.23701
1.24279
1.27704
1.34747
1.43633
1.51081
1.57128
1.58409
1.58676
1.58989
1.59157
1.59403
1.59434
1.59217
1.58552
1.57512
1.56528
1.55636
1.54518
1.5348
1.52968
1.52196
1.0027
1.16137
1.67427
1.89811
1.94088
1.92453
1.90647
1.88758
1.87283
1.88266
2.01063
2.23612
2.36474
2.36438
2.32439
2.28271
2.24948
2.21992
2.19035
2.16132
2.13326
2.10577
2.07807
2.04961
2.02109
1.99309
1.966
1.93992
1.91469
1.88996
1.86576
1.84217
1.8195
1.79807
1.7778
1.7583
1.7393
1.72072
1.70244
1.68417
1.66581
1.64755
1.62964
1.61229
1.59557
1.57923
1.56287
1.54634
1.52971
1.51332
1.49809
1.48513
1.47426
1.46439
1.45464
1.44355
1.42971
1.41461
1.40115
1.38912
1.37772
1.36807
1.36037
1.35218
1.3417
1.32892
1.31376
1.29791
1.28612
1.27797
1.2686
1.2582
1.24686
1.23897
1.23257
1.22762
1.22116
1.22086
1.2457
1.30492
1.39859
1.47859
1.54219
1.561
1.56107
1.56464
1.56669
1.56868
1.57222
1.56907
1.56157
1.54804
1.53422
1.5254
1.51715
1.50446
1.00002
1.00739
1.23713
1.71019
1.88837
1.91761
1.90372
1.88144
1.90834
2.06819
2.28928
2.36043
2.35107
2.33586
2.30469
2.26758
2.23509
2.20479
2.17576
2.14809
2.12148
2.09444
2.06728
2.04045
2.01338
1.98669
1.96066
1.9353
1.91077
1.88729
1.86465
1.84275
1.82156
1.80113
1.78145
1.76225
1.7433
1.72466
1.7067
1.68968
1.6731
1.65605
1.63799
1.61919
1.60042
1.58207
1.56413
1.54655
1.52955
1.51365
1.49938
1.4871
1.47671
1.46698
1.45598
1.44319
1.43227
1.42354
1.41171
1.39748
1.38559
1.37574
1.3656
1.35448
1.34185
1.32702
1.31288
1.30187
1.29042
1.27677
1.26513
1.2592
1.25562
1.25126
1.2433
1.23236
1.21928
1.20761
1.19627
1.197
1.21867
1.27783
1.37175
1.44402
1.50761
1.53974
1.54257
1.54322
1.54297
1.54209
1.54096
1.53919
1.53305
1.52272
1.50937
1.49465
1
1.00007
1.01629
1.30143
1.73203
1.87867
1.8871
1.95484
2.13675
2.32023
2.37901
2.36251
2.33181
2.31388
2.29393
2.2635
2.2317
2.20211
2.17401
2.14593
2.11846
2.09314
2.06787
2.04112
2.01285
1.98561
1.95997
1.93492
1.91054
1.88735
1.86564
1.84547
1.82638
1.80764
1.78886
1.77014
1.75185
1.73439
1.71774
1.70109
1.68344
1.66469
1.64502
1.62477
1.60457
1.58471
1.56538
1.54699
1.52983
1.51412
1.50041
1.48911
1.47943
1.46989
1.45972
1.44954
1.43908
1.4248
1.40831
1.39301
1.38118
1.37487
1.3695
1.36136
1.34878
1.33277
1.31503
1.29767
1.28364
1.27391
1.26804
1.26239
1.25514
1.24723
1.23911
1.23005
1.21776
1.20405
1.19324
1.18621
1.18237
1.18448
1.20255
1.25766
1.34404
1.41607
1.47126
1.51695
1.52151
1.51803
1.5191
1.517
1.51407
1.51115
1.50663
1.49276
1
1
1.0002
1.02941
1.36243
1.6969
1.94311
2.24159
2.35945
2.40883
2.4113
2.38801
2.36082
2.33663
2.31676
2.29071
2.26099
2.23127
2.20298
2.17513
2.14638
2.11587
2.08528
2.05718
2.03287
2.00886
1.98344
1.95783
1.93303
1.90992
1.88888
1.86937
1.85042
1.83125
1.81178
1.79251
1.77369
1.75557
1.738
1.71987
1.70035
1.67983
1.65912
1.63872
1.61847
1.59837
1.57867
1.55985
1.54217
1.52591
1.51189
1.50042
1.49076
1.48173
1.4724
1.46178
1.44803
1.43033
1.41216
1.39787
1.38799
1.37937
1.36921
1.35753
1.34496
1.33083
1.31436
1.29768
1.28425
1.27523
1.26833
1.26151
1.25386
1.2461
1.23858
1.23036
1.2197
1.20548
1.19241
1.184
1.17788
1.17367
1.16941
1.16881
1.18375
1.23156
1.2995
1.38583
1.43538
1.47535
1.50242
1.50414
1.50039
1.49389
1.48949
1.47952
1
1
1
1.00056
1.04566
1.4402
2.28855
2.55051
2.52705
2.50083
2.48774
2.4613
2.43075
2.40116
2.37596
2.3487
2.31805
2.28377
2.24933
2.21578
2.18235
2.14938
2.11694
2.08545
2.05444
2.02433
1.99576
1.96862
1.94314
1.91946
1.89735
1.87631
1.85582
1.8356
1.81572
1.79649
1.7781
1.75989
1.7407
1.72019
1.69864
1.67645
1.65451
1.63347
1.61346
1.59403
1.57463
1.55544
1.53684
1.51949
1.50465
1.49294
1.48345
1.47483
1.46578
1.45524
1.44403
1.43511
1.42641
1.41493
1.40197
1.38868
1.37576
1.36305
1.34992
1.33657
1.32228
1.30799
1.2955
1.28526
1.27666
1.26933
1.26244
1.25538
1.24759
1.23683
1.22302
1.2072
1.19343
1.18418
1.17752
1.1717
1.16595
1.1617
1.15704
1.15503
1.16328
1.19843
1.26576
1.34131
1.40679
1.45248
1.47849
1.48257
1.47987
1.46857
1
1
1
1
1.00099
1.73025
2.74405
2.73788
2.67807
2.62473
2.58975
2.55293
2.51328
2.47589
2.44381
2.4117
2.37718
2.33695
2.29563
2.25545
2.21674
2.17966
2.14406
2.10959
2.07583
2.04325
2.01249
1.98398
1.9578
1.93365
1.91094
1.88903
1.86743
1.8461
1.82543
1.80586
1.78739
1.76901
1.74947
1.72822
1.70531
1.68126
1.65747
1.63529
1.61504
1.59601
1.57727
1.55816
1.53872
1.51989
1.50365
1.4914
1.48209
1.47382
1.4652
1.4559
1.44652
1.43575
1.42236
1.40771
1.39286
1.37917
1.36698
1.35546
1.34337
1.32996
1.31595
1.30234
1.28946
1.27804
1.26858
1.26124
1.25524
1.24917
1.24257
1.23686
1.22844
1.21598
1.20384
1.19464
1.18708
1.17997
1.17293
1.16556
1.15804
1.15161
1.14338
1.13854
1.14542
1.17413
1.24165
1.31866
1.3808
1.43166
1.45043
1.49978
1
1
1
1
1.00001
2.07675
2.89772
2.8302
2.76513
2.71859
2.67232
2.62619
2.57844
2.53389
2.49302
2.45536
2.41537
2.36953
2.322
2.27621
2.23329
2.19303
2.15501
2.11885
2.08427
2.05126
2.02016
1.99143
1.96513
1.94077
1.91752
1.89465
1.8719
1.84978
1.82913
1.81017
1.79217
1.77395
1.75457
1.73341
1.7103
1.68589
1.66145
1.63806
1.61616
1.59589
1.57738
1.55996
1.5422
1.52344
1.50569
1.49155
1.48059
1.4714
1.46347
1.45608
1.44784
1.43724
1.42376
1.40752
1.39104
1.37686
1.36482
1.35375
1.34219
1.32906
1.3153
1.30157
1.28816
1.27631
1.26669
1.2592
1.25344
1.24848
1.24301
1.23385
1.22053
1.20662
1.19432
1.18517
1.1777
1.17077
1.16389
1.15639
1.14856
1.14111
1.13273
1.1241
1.11503
1.11225
1.1209
1.15366
1.23133
1.32957
1.43121
1.58
)
;

boundaryField
{
    inlet
    {
        type            fixedValue;
        value           uniform 1;
    }
    outlet
    {
        type            inletOutlet;
        inletValue      uniform 1;
        value           nonuniform List<scalar> 
32
(
1.93048
1.93316
1.9285
1.91003
1.88267
1.85476
1.82711
1.80616
1.78528
1.76647
1.74954
1.73409
1.71671
1.69036
1.66815
1.65152
1.63947
1.62547
1.61349
1.59289
1.57495
1.55747
1.53907
1.52746
1.52211
1.50419
1.49417
1.49162
1.47968
1.46656
1.49767
1.57707
)
;
    }
    bottom
    {
        type            symmetryPlane;
    }
    top
    {
        type            symmetryPlane;
    }
    obstacle
    {
        type            zeroGradient;
    }
    defaultFaces
    {
        type            empty;
    }
}


// ************************************************************************* //
