/*--------------------------------*- C++ -*----------------------------------*\
  =========                 |
  \\      /  F ield         | OpenFOAM: The Open Source CFD Toolbox
   \\    /   O peration     | Website:  https://openfoam.org
    \\  /    A nd           | Version:  7
     \\/     M anipulation  |
\*---------------------------------------------------------------------------*/
FoamFile
{
    version     2.0;
    format      ascii;
    class       volVectorField;
    location    "2.5";
    object      U;
}
// * * * * * * * * * * * * * * * * * * * * * * * * * * * * * * * * * * * * * //

dimensions      [0 1 -1 0 0 0 0];

internalField   nonuniform List<vector> 
4032
(
(3 -5.4281e-18 0)
(3 3.21423e-17 0)
(3 -3.43277e-16 0)
(3 -2.1884e-16 0)
(3 -1.64114e-16 0)
(3 9.73641e-17 0)
(3 2.27715e-16 0)
(3 -4.79359e-17 0)
(3 -2.56204e-16 0)
(3 -3.28706e-16 0)
(3 1.57093e-16 0)
(3 3.20089e-16 0)
(1.17412 0.015857 0)
(0.722306 0.015737 0)
(0.667262 0.0215778 0)
(0.611705 0.0239871 0)
(0.553922 0.0257871 0)
(0.494386 0.0275213 0)
(0.432198 0.0293486 0)
(0.366542 0.0314957 0)
(0.296541 0.034149 0)
(0.220306 0.0380357 0)
(0.137093 0.0408124 0)
(0.0507323 0.0455496 0)
(3 -1.53237e-17 0)
(3 4.11727e-16 0)
(3 -1.47088e-16 0)
(3 -1.16243e-16 0)
(3 -9.29103e-17 0)
(3 3.59955e-16 0)
(3 4.58172e-16 0)
(3 -5.93793e-17 0)
(3 -8.70543e-16 0)
(3 -1.19559e-15 0)
(3 -7.99973e-16 0)
(3 -9.62367e-16 0)
(1.19935 0.0723214 0)
(0.716573 0.0625531 0)
(0.655193 0.0674483 0)
(0.598675 0.0732757 0)
(0.54005 0.0778717 0)
(0.480374 0.08302 0)
(0.418568 0.0887689 0)
(0.353941 0.09587 0)
(0.285646 0.104516 0)
(0.212203 0.117069 0)
(0.131659 0.126332 0)
(0.049033 0.140417 0)
(3 2.29828e-16 0)
(3 1.49752e-16 0)
(3 -1.87618e-17 0)
(3 -3.8572e-16 0)
(3 -3.27601e-16 0)
(3 8.75206e-17 0)
(3 -8.11204e-17 0)
(3 -2.71193e-16 0)
(3 -3.5785e-16 0)
(3 -1.36539e-15 0)
(3 -1.83611e-15 0)
(3 -2.21345e-15 0)
(1.27675 0.126857 0)
(0.728114 0.109796 0)
(0.660405 0.116226 0)
(0.602099 0.124991 0)
(0.541505 0.132084 0)
(0.480401 0.140089 0)
(0.417311 0.148958 0)
(0.351582 0.160046 0)
(0.282228 0.173202 0)
(0.209137 0.193165 0)
(0.128514 0.208143 0)
(0.0484726 0.230547 0)
(3 1.29912e-16 0)
(3 9.22132e-17 0)
(3 -1.45858e-16 0)
(3 -4.20783e-16 0)
(3 -4.02743e-16 0)
(3 -6.08092e-16 0)
(3 -8.46664e-16 0)
(3 -7.26894e-16 0)
(3 -6.17474e-16 0)
(3 -8.07937e-16 0)
(3 -8.58178e-16 0)
(3 -9.21253e-16 0)
(1.40097 0.178525 0)
(0.743905 0.160066 0)
(0.667912 0.166581 0)
(0.609649 0.177635 0)
(0.548685 0.187096 0)
(0.487461 0.198485 0)
(0.423559 0.211458 0)
(0.356247 0.227877 0)
(0.284291 0.245943 0)
(0.209899 0.272853 0)
(0.127661 0.293216 0)
(0.0467252 0.320844 0)
(3 -2.4901e-16 0)
(3 -8.3597e-17 0)
(3 -5.26581e-17 0)
(3 9.80842e-17 0)
(3 -5.8362e-17 0)
(3 -1.32829e-16 0)
(3 -2.33081e-17 0)
(3 3.45909e-16 0)
(3 3.58996e-16 0)
(3 6.58933e-16 0)
(3 9.78412e-16 0)
(3 5.50817e-16 0)
(1.58417 0.227181 0)
(0.766172 0.214804 0)
(0.676908 0.218082 0)
(0.620592 0.229787 0)
(0.562455 0.240792 0)
(0.505287 0.255351 0)
(0.445507 0.272718 0)
(0.382214 0.295371 0)
(0.311845 0.319109 0)
(0.237262 0.353738 0)
(0.14832 0.383054 0)
(0.056588 0.418516 0)
(3 -1.12918e-16 0)
(3 -1.25983e-16 0)
(3 2.95336e-17 0)
(3 1.51993e-16 0)
(3 3.97358e-16 0)
(3 6.45161e-16 0)
(3 1.05212e-15 0)
(3 1.51904e-15 0)
(3 1.74546e-15 0)
(3 1.60224e-15 0)
(3 1.6153e-15 0)
(3 -9.595e-16 0)
(1.83931 0.273001 0)
(0.798633 0.277756 0)
(0.684418 0.270919 0)
(0.626794 0.281077 0)
(0.569105 0.293146 0)
(0.51497 0.310542 0)
(0.459721 0.332216 0)
(0.401851 0.36268 0)
(0.332268 0.397361 0)
(0.254461 0.446222 0)
(0.160261 0.493664 0)
(0.0547891 0.537599 0)
(3 -1.64958e-16 0)
(3 -1.64242e-16 0)
(3 1.25529e-17 0)
(3 -3.6851e-16 0)
(3 9.63133e-17 0)
(3 7.83316e-16 0)
(3 9.36623e-16 0)
(3 9.06757e-16 0)
(3 1.07698e-15 0)
(3 6.87191e-16 0)
(3 4.87623e-16 0)
(3 -1.67187e-15 0)
(2.18948 0.30975 0)
(0.849263 0.355444 0)
(0.702308 0.331968 0)
(0.6502 0.340322 0)
(0.595253 0.350039 0)
(0.542718 0.36698 0)
(0.489341 0.390329 0)
(0.435924 0.428294 0)
(0.376191 0.475531 0)
(0.311403 0.537145 0)
(0.225068 0.603402 0)
(0.0984121 0.676327 0)
(3 1.29551e-16 0)
(3 -2.22226e-17 0)
(3 -1.71157e-16 0)
(3 -4.56594e-16 0)
(3 -4.73545e-16 0)
(3 -3.26179e-16 0)
(3 1.97353e-16 0)
(3 3.43804e-16 0)
(3 5.81558e-16 0)
(3 8.57714e-16 0)
(3 7.25773e-16 0)
(3 -3.41057e-17 0)
(2.69404 0.267385 0)
(0.975106 0.434006 0)
(0.780968 0.366882 0)
(0.730986 0.37775 0)
(0.669264 0.39745 0)
(0.609968 0.421006 0)
(0.550373 0.44824 0)
(0.497792 0.490245 0)
(0.443852 0.544246 0)
(0.383416 0.630877 0)
(0.269863 0.761855 0)
(0.149083 0.934622 0)
(3 5.51306e-16 0)
(3 2.9809e-16 0)
(3 2.69755e-16 0)
(3 6.8028e-16 0)
(3 6.132e-16 0)
(3 5.56834e-16 0)
(3 8.95381e-17 0)
(3 -2.54567e-16 0)
(3 3.12974e-16 0)
(3 4.63989e-16 0)
(3 4.82545e-16 0)
(3 2.04466e-16 0)
(3.06812 0.0393294 0)
(1.18192 0.435177 0)
(0.851815 0.404859 0)
(0.807264 0.434025 0)
(0.75388 0.454746 0)
(0.697286 0.47899 0)
(0.637521 0.506517 0)
(0.583349 0.549014 0)
(0.531477 0.614436 0)
(0.49132 0.737424 0)
(0.460318 0.920305 0)
(0.57616 1.20575 0)
(3 -2.61478e-17 0)
(3 9.78949e-17 0)
(3 4.30958e-16 0)
(3 8.8398e-16 0)
(3 1.20514e-15 0)
(3 1.045e-15 0)
(3 4.80417e-16 0)
(3 -5.75342e-16 0)
(3 -5.62275e-16 0)
(3 -5.47925e-16 0)
(3 -4.44365e-16 0)
(3 -6.53254e-16 0)
(3.00749 0.000144747 0)
(1.3787 0.430188 0)
(0.852875 0.46479 0)
(0.803592 0.490285 0)
(0.763767 0.513283 0)
(0.730331 0.544633 0)
(0.694877 0.577856 0)
(0.657608 0.620207 0)
(0.63002 0.688895 0)
(0.622916 0.811752 0)
(0.682933 0.960037 0)
(0.969056 1.13378 0)
(3 -2.20072e-16 0)
(3 -3.71965e-16 0)
(3 -3.51793e-16 0)
(3 -6.96653e-16 0)
(3 -2.42739e-16 0)
(3 -2.03789e-16 0)
(3 -6.57876e-17 0)
(3 -4.30313e-16 0)
(3 -9.21173e-16 0)
(3 -9.76047e-16 0)
(3 -5.73458e-16 0)
(3 -5.60779e-16 0)
(3.00005 -2.23503e-06 0)
(1.80833 0.475061 0)
(0.883224 0.527324 0)
(0.808468 0.525254 0)
(0.784524 0.547482 0)
(0.765784 0.578995 0)
(0.75365 0.61871 0)
(0.737007 0.664156 0)
(0.736309 0.73249 0)
(0.758147 0.838279 0)
(0.874475 0.959508 0)
(1.18547 1.06611 0)
(3 -3.06653e-17 0)
(3 -5.48681e-17 0)
(3 -1.00117e-16 0)
(3 -6.31095e-16 0)
(3 -7.35616e-16 0)
(3 -1.49055e-16 0)
(3 -1.74946e-16 0)
(3 -1.5341e-16 0)
(3 -3.65483e-16 0)
(3 -5.20837e-16 0)
(3 -6.63553e-16 0)
(3 1.44484e-16 0)
(3.00001 -2.39622e-06 0)
(2.54243 0.390094 0)
(1.02036 0.607816 0)
(0.868231 0.557205 0)
(0.836873 0.572734 0)
(0.816753 0.603636 0)
(0.814569 0.647473 0)
(0.814636 0.698283 0)
(0.832388 0.763593 0)
(0.880534 0.846445 0)
(1.01647 0.939199 0)
(1.27441 1.00105 0)
(3 6.62801e-17 0)
(3 1.23194e-16 0)
(3 -7.32151e-17 0)
(3 2.74214e-17 0)
(3 -3.87132e-16 0)
(3 -2.93756e-16 0)
(3 -2.88778e-16 0)
(3 -3.48105e-16 0)
(3 -1.01688e-16 0)
(3 2.7858e-16 0)
(3 4.39243e-16 0)
(3 7.87305e-16 0)
(3 -4.81242e-07 0)
(3.08502 0.0567654 0)
(1.33309 0.609857 0)
(0.972962 0.593612 0)
(0.927128 0.60519 0)
(0.892333 0.630837 0)
(0.882291 0.671155 0)
(0.888649 0.720511 0)
(0.914868 0.780174 0)
(0.982353 0.849695 0)
(1.11962 0.91652 0)
(1.32958 0.954944 0)
(3 1.43758e-17 0)
(3 1.44438e-16 0)
(3 1.49445e-16 0)
(3 3.86256e-16 0)
(3 6.83543e-16 0)
(3 3.96629e-16 0)
(3 1.07796e-16 0)
(3 2.25627e-16 0)
(3 3.55561e-16 0)
(3 4.31475e-16 0)
(3 6.54305e-16 0)
(3 8.97742e-16 0)
(3 -4.55168e-08 0)
(3.01041 0.000215017 0)
(1.68082 0.576942 0)
(1.00046 0.670006 0)
(0.961478 0.668422 0)
(0.93983 0.680808 0)
(0.935324 0.707188 0)
(0.94962 0.744301 0)
(0.984443 0.788088 0)
(1.059 0.840343 0)
(1.18413 0.885671 0)
(1.35288 0.906366 0)
(3 -2.48497e-16 0)
(3 2.33128e-16 0)
(3 7.01431e-16 0)
(3 5.56402e-16 0)
(3 4.21633e-16 0)
(3 2.94397e-16 0)
(3 7.00268e-16 0)
(3 8.99249e-16 0)
(3 8.86632e-16 0)
(3 5.82982e-16 0)
(3 5.77955e-16 0)
(3 3.04677e-16 0)
(3 -1.28813e-09 0)
(3.00007 -1.96667e-06 0)
(2.51334 0.423658 0)
(1.12569 0.706745 0)
(1.00815 0.709415 0)
(0.994967 0.712506 0)
(0.991664 0.726115 0)
(1.00677 0.757078 0)
(1.04651 0.792803 0)
(1.12224 0.833336 0)
(1.23266 0.865855 0)
(1.37226 0.87924 0)
(3 9.44321e-17 0)
(3 1.84799e-16 0)
(3 -3.75597e-16 0)
(3 -8.54984e-16 0)
(3 -8.41855e-16 0)
(3 -4.94454e-16 0)
(3 -3.89102e-16 0)
(3 -4.03944e-16 0)
(3 -2.48092e-16 0)
(3 2.71247e-16 0)
(3 -4.97208e-17 0)
(3 -2.05665e-16 0)
(3 -2.73511e-12 0)
(3.00001 -3.21418e-06 0)
(3.0713 0.0512531 0)
(1.46364 0.700099 0)
(1.08498 0.735466 0)
(1.06828 0.734224 0)
(1.0557 0.751301 0)
(1.06691 0.768287 0)
(1.10293 0.790804 0)
(1.17207 0.819451 0)
(1.26537 0.840991 0)
(1.38268 0.849239 0)
(3 5.07555e-18 0)
(3 -3.09236e-16 0)
(3 -3.03686e-16 0)
(3 -4.87523e-16 0)
(3 -4.27696e-16 0)
(3 -9.91385e-17 0)
(3 -1.50238e-16 0)
(3 -1.75259e-16 0)
(3 -3.26352e-16 0)
(3 -1.71145e-16 0)
(3 3.53666e-17 0)
(3 8.12398e-16 0)
(3 -1.60486e-15 0)
(3 -6.62749e-07 0)
(3.00695 0.000490216 0)
(2.07918 0.630252 0)
(1.15105 0.800845 0)
(1.10934 0.789317 0)
(1.11496 0.786299 0)
(1.12634 0.792943 0)
(1.15835 0.804975 0)
(1.21852 0.820831 0)
(1.29895 0.833922 0)
(1.39838 0.838514 0)
(3 -1.58258e-17 0)
(3 -3.36289e-16 0)
(3 -2.74788e-16 0)
(3 -9.37707e-17 0)
(3 5.01758e-17 0)
(3 -1.63811e-16 0)
(3 2.80438e-16 0)
(3 7.14218e-16 0)
(3 1.60698e-16 0)
(3 -3.67791e-16 0)
(3 9.47229e-17 0)
(3 3.00316e-16 0)
(3 4.74912e-17 0)
(3 -5.36221e-08 0)
(3.00003 1.5958e-06 0)
(3.00309 0.171402 0)
(1.42752 0.780207 0)
(1.16807 0.787211 0)
(1.1901 0.795054 0)
(1.19899 0.803398 0)
(1.22598 0.810154 0)
(1.27299 0.818105 0)
(1.33902 0.825299 0)
(1.42043 0.82813 0)
(3 1.0415e-16 0)
(3 3.45219e-16 0)
(3 1.84716e-17 0)
(3 6.3741e-16 0)
(3 1.01169e-15 0)
(3 9.9268e-16 0)
(3 6.8548e-16 0)
(3 9.24053e-16 0)
(3 6.56803e-16 0)
(3 6.12032e-17 0)
(3 -3.52596e-16 0)
(3 -1.18009e-15 0)
(3 -9.73886e-16 0)
(3 -2.3792e-10 0)
(3 -1.15357e-06 0)
(3.02349 0.00336905 0)
(1.89499 0.714807 0)
(1.20194 0.837775 0)
(1.20384 0.832589 0)
(1.2338 0.836757 0)
(1.27088 0.843087 0)
(1.3167 0.846771 0)
(1.37301 0.84648 0)
(1.43947 0.842398 0)
(3 -1.41778e-16 0)
(3 3.57398e-16 0)
(3 1.28535e-15 0)
(3 1.5878e-15 0)
(3 6.0556e-16 0)
(3 4.95903e-16 0)
(3 1.01061e-15 0)
(3 9.41743e-16 0)
(3 8.7338e-16 0)
(3 7.54065e-16 0)
(3 2.41622e-16 0)
(3 -1.40632e-16 0)
(3 -6.49009e-16 0)
(3 -4.14031e-13 0)
(3 -2.16114e-07 0)
(3.00022 4.68688e-05 0)
(2.89687 0.282172 0)
(1.44372 0.845417 0)
(1.23809 0.819845 0)
(1.27995 0.830883 0)
(1.31609 0.842184 0)
(1.36318 0.846323 0)
(1.41342 0.844906 0)
(1.4704 0.837931 0)
(3 -6.05372e-17 0)
(3 2.04519e-16 0)
(3 8.51942e-16 0)
(3 2.98356e-16 0)
(3 -2.39125e-16 0)
(3 -6.08595e-16 0)
(3 -4.3942e-16 0)
(3 -4.48663e-16 0)
(3 -8.19696e-17 0)
(3 1.57844e-16 0)
(3 1.23561e-17 0)
(3 -1.87562e-16 0)
(3 -2.45564e-16 0)
(3 4.42932e-16 0)
(3 -6.24098e-09 0)
(3 -3.4531e-07 0)
(3.03375 0.00992552 0)
(1.92754 0.74544 0)
(1.28763 0.867828 0)
(1.2959 0.864439 0)
(1.33601 0.866114 0)
(1.38211 0.867744 0)
(1.43249 0.865789 0)
(1.48885 0.857091 0)
(3 9.29325e-17 0)
(3 9.95601e-17 0)
(3 -3.87625e-16 0)
(3 -7.73056e-16 0)
(3 -4.60809e-16 0)
(3 -6.28345e-16 0)
(3 -1.53259e-15 0)
(3 -1.66504e-15 0)
(3 -1.19247e-15 0)
(3 -8.56406e-16 0)
(3 -8.61876e-16 0)
(3 -7.37357e-16 0)
(3 -6.11156e-16 0)
(3 9.65622e-16 0)
(3 -2.21784e-11 0)
(3 -8.5125e-08 0)
(3.00052 0.000235273 0)
(2.87724 0.292803 0)
(1.54699 0.890061 0)
(1.32615 0.857957 0)
(1.37026 0.860017 0)
(1.40838 0.8629 0)
(1.45633 0.861904 0)
(1.51125 0.855764 0)
(3 1.39323e-16 0)
(3 -6.10068e-16 0)
(3 -7.71373e-16 0)
(3 -5.28182e-16 0)
(3 -9.50798e-17 0)
(3 1.82721e-17 0)
(3 1.07519e-16 0)
(3 3.68729e-16 0)
(3 6.7135e-16 0)
(3 9.58828e-18 0)
(3 -3.11003e-16 0)
(3 -1.25771e-16 0)
(3 1.98665e-17 0)
(3 3.48218e-16 0)
(3 -5.99294e-15 0)
(3 -7.24142e-09 0)
(3 3.22655e-07 0)
(3.02527 0.0131863 0)
(2.14375 0.736361 0)
(1.39762 0.90218 0)
(1.39158 0.895024 0)
(1.42737 0.886544 0)
(1.46852 0.880389 0)
(1.51518 0.874339 0)
(3 -1.08405e-16 0)
(3 -6.55937e-16 0)
(3 -5.80967e-16 0)
(3 3.05072e-16 0)
(3 9.22868e-16 0)
(3 1.01882e-15 0)
(3 1.08105e-15 0)
(3 1.91815e-15 0)
(3 1.5664e-15 0)
(3 5.43585e-16 0)
(3 1.15996e-16 0)
(3 4.59749e-16 0)
(3 7.80298e-16 0)
(3 3.10146e-16 0)
(3 8.47641e-16 0)
(3 -2.19067e-10 0)
(3 -1.73316e-10 0)
(3.00034 0.000360252 0)
(2.95067 0.203721 0)
(1.74567 0.88131 0)
(1.42474 0.903393 0)
(1.46614 0.894064 0)
(1.49676 0.884405 0)
(1.53353 0.875113 0)
(3 5.87573e-17 0)
(3 1.18847e-16 0)
(3 1.30926e-16 0)
(3 2.37368e-16 0)
(3 1.59901e-16 0)
(3 4.23366e-16 0)
(3 3.40432e-16 0)
(3 4.02589e-16 0)
(3 4.75574e-17 0)
(3 -2.79711e-16 0)
(3 -6.61451e-17 0)
(3 3.94578e-16 0)
(3 5.31323e-16 0)
(3 8.21539e-16 0)
(3 1.43029e-15 0)
(3 -1.32974e-12 0)
(3 -4.9233e-11 0)
(3 6.46827e-07 0)
(3.00925 0.0105976 0)
(2.52125 0.600245 0)
(1.54671 0.949897 0)
(1.48829 0.926331 0)
(1.51902 0.91143 0)
(1.54994 0.8971 0)
(3 8.1566e-18 0)
(3 2.55568e-16 0)
(3 7.46602e-16 0)
(3 7.97205e-16 0)
(3 3.91421e-16 0)
(3 3.77158e-16 0)
(3 6.0912e-17 0)
(3 -8.81599e-16 0)
(3 -8.45492e-16 0)
(3 -2.32537e-16 0)
(3 -2.29474e-17 0)
(3 1.35761e-16 0)
(3 5.90583e-16 0)
(3 7.23856e-16 0)
(3 1.24742e-15 0)
(3 -9.08569e-16 0)
(3 -5.85774e-12 0)
(3 1.42079e-10 0)
(3.00004 0.000199299 0)
(3.01901 0.0821098 0)
(2.04213 0.809662 0)
(1.55191 0.934579 0)
(1.55793 0.924568 0)
(1.5862 0.905272 0)
(3 -1.25344e-16 0)
(3 1.30208e-16 0)
(3 5.51516e-16 0)
(3 5.41087e-16 0)
(3 2.12189e-16 0)
(3 7.95083e-17 0)
(3 -4.10917e-16 0)
(3 -1.1473e-15 0)
(3 -1.19229e-15 0)
(3 -5.24347e-16 0)
(3 2.19776e-16 0)
(3 4.37721e-16 0)
(3 1.0527e-15 0)
(3 1.2155e-15 0)
(3 1.09285e-15 0)
(3 7.50238e-16 0)
(3 -2.49632e-13 0)
(3 -4.21649e-13 0)
(3 2.76217e-07 0)
(3.00178 0.00402292 0)
(2.81721 0.324554 0)
(1.81757 0.901331 0)
(1.58405 0.94895 0)
(1.61161 0.933842 0)
(3 -2.32027e-16 0)
(3 -2.77137e-16 0)
(3 -1.29297e-16 0)
(3 -2.92234e-16 0)
(3 -4.11433e-16 0)
(3 -7.5746e-16 0)
(3 -7.87638e-16 0)
(3 -9.15305e-16 0)
(3 -6.18265e-16 0)
(3 -7.23473e-17 0)
(3 1.16082e-15 0)
(3 1.45285e-15 0)
(3 1.20318e-15 0)
(3 1.819e-15 0)
(3 1.64641e-15 0)
(3 2.16071e-15 0)
(3 -1.36641e-15 0)
(3 -1.69428e-13 0)
(3 1.05091e-10 0)
(3 2.76857e-05 0)
(3.00436 0.0245263 0)
(2.47859 0.592744 0)
(1.72002 0.960829 0)
(1.6201 0.951121 0)
(3 2.58346e-16 0)
(3 6.23701e-17 0)
(3 -3.13059e-16 0)
(3 -3.2629e-17 0)
(3 -5.00978e-16 0)
(3 -7.66029e-16 0)
(3 -1.28676e-15 0)
(3 -7.2774e-16 0)
(3 -2.18516e-16 0)
(3 -1.46061e-16 0)
(3 3.87194e-16 0)
(3 7.41222e-16 0)
(3 8.10039e-16 0)
(3 9.36686e-16 0)
(3 1.2262e-15 0)
(3 1.39049e-15 0)
(3 1.54769e-15 0)
(3 -3.02025e-14 0)
(3 -2.01788e-14 0)
(3 2.11595e-08 0)
(2.99999 0.000680702 0)
(2.97797 0.0927325 0)
(2.19993 0.771174 0)
(1.68416 0.95994 0)
(3 4.57185e-16 0)
(3 9.45968e-16 0)
(3 3.67298e-16 0)
(3 3.2163e-16 0)
(3 -1.61288e-16 0)
(3 -2.68483e-16 0)
(3 -4.78126e-16 0)
(3 4.6993e-17 0)
(3 2.49129e-16 0)
(3 6.58004e-17 0)
(3 -5.69577e-16 0)
(3 -4.9266e-16 0)
(3 6.81536e-17 0)
(3 -4.88845e-17 0)
(3 2.98781e-16 0)
(3 8.00139e-17 0)
(3 -8.56007e-17 0)
(3 -1.46469e-15 0)
(3 -9.81717e-15 0)
(3 8.13544e-12 0)
(3 1.57521e-06 0)
(3.00005 0.00478436 0)
(2.86465 0.254433 0)
(2.00612 0.857978 0)
(3 -8.39563e-17 0)
(3 1.03883e-16 0)
(3 3.18389e-16 0)
(3 -1.98454e-16 0)
(3 3.52698e-17 0)
(3 -1.1052e-16 0)
(3 5.08346e-16 0)
(3 8.5583e-16 0)
(3 8.40299e-16 0)
(3 7.2735e-16 0)
(3 -7.35743e-17 0)
(3 -3.75291e-16 0)
(3 -3.40688e-16 0)
(3 5.25402e-16 0)
(3 3.43507e-16 0)
(3 6.97676e-17 0)
(3 -7.64903e-17 0)
(3 -1.51448e-16 0)
(3 -2.16111e-15 0)
(3 -1.29145e-15 0)
(3 1.14522e-09 0)
(2.99999 3.33461e-05 0)
(2.99826 0.018853 0)
(2.66242 0.440997 0)
(3 -1.24695e-16 0)
(3 -8.4113e-17 0)
(3 1.54837e-16 0)
(3 -3.85134e-16 0)
(3 -7.76494e-16 0)
(3 -7.58821e-16 0)
(3 -1.34828e-17 0)
(3 3.43004e-16 0)
(3 9.54723e-16 0)
(3 1.03133e-15 0)
(3 9.31925e-16 0)
(3 4.10866e-16 0)
(3 6.45377e-17 0)
(3 1.23263e-16 0)
(3 -4.40867e-16 0)
(3 -8.25812e-16 0)
(3 -2.46236e-16 0)
(3 -1.30631e-16 0)
(3 -2.55568e-16 0)
(3 -1.16712e-15 0)
(3 2.10123e-13 0)
(3 3.58148e-08 0)
(2.99992 0.00036814 0)
(2.98772 0.047624 0)
(3 -1.8303e-17 0)
(3 -2.17815e-16 0)
(3 -5.03628e-16 0)
(3 6.03741e-17 0)
(3 3.04749e-17 0)
(3 1.90793e-16 0)
(3 2.10506e-16 0)
(3 5.18666e-16 0)
(3 2.96245e-16 0)
(3 7.69402e-17 0)
(3 3.19425e-16 0)
(3 6.72196e-16 0)
(3 3.67433e-16 0)
(3 -4.43944e-16 0)
(3 -8.69549e-16 0)
(3 -1.16968e-15 0)
(3 -1.09454e-15 0)
(3 -7.90473e-16 0)
(3 -5.23522e-16 0)
(3 -5.78424e-16 0)
(3 2.80816e-16 0)
(3 1.65077e-11 0)
(3 7.06295e-07 0)
(2.99972 0.00181349 0)
(3 -5.0467e-17 0)
(3 -2.05963e-16 0)
(3 -3.05589e-16 0)
(3 2.35843e-16 0)
(3 9.28123e-16 0)
(3 9.19133e-16 0)
(3 5.74226e-16 0)
(3 2.19638e-16 0)
(3 -3.6513e-16 0)
(3 -3.97754e-16 0)
(3 -2.50623e-16 0)
(3 -1.26509e-16 0)
(3 -4.14613e-16 0)
(3 -1.46782e-15 0)
(3 -1.303e-15 0)
(3 -8.23462e-16 0)
(3 -5.30065e-16 0)
(3 -8.96369e-17 0)
(3 3.14604e-16 0)
(3 1.0919e-15 0)
(3 9.33048e-16 0)
(3 3.09305e-15 0)
(3 6.20487e-10 0)
(3 6.52141e-06 0)
(3 -7.90105e-17 0)
(3 1.98397e-16 0)
(3 4.50902e-16 0)
(3 4.37711e-16 0)
(3 -1.42342e-16 0)
(3 -1.03579e-16 0)
(3 -2.08238e-17 0)
(3 -2.50735e-16 0)
(3 -2.45771e-16 0)
(3 -6.51756e-17 0)
(3 -1.02096e-16 0)
(3 -7.0569e-16 0)
(3 -5.27315e-16 0)
(3 -8.47868e-16 0)
(3 -6.83102e-16 0)
(3 -4.0942e-16 0)
(3 4.19092e-16 0)
(3 6.28025e-16 0)
(3 1.27549e-15 0)
(3 1.52362e-15 0)
(3 1.13623e-15 0)
(3 1.37014e-15 0)
(3 7.4672e-14 0)
(3 7.8545e-09 0)
(3 2.24263e-18 0)
(3 -5.02441e-17 0)
(3 -2.32795e-17 0)
(3 7.22758e-17 0)
(3 -3.03806e-16 0)
(3 -1.3271e-16 0)
(3 -6.24361e-17 0)
(3 1.31548e-16 0)
(3 3.16362e-16 0)
(3 7.12049e-17 0)
(3 -2.7781e-16 0)
(3 -3.23565e-16 0)
(3 -6.87972e-17 0)
(3 5.73697e-16 0)
(3 6.11053e-16 0)
(3 9.65055e-17 0)
(3 4.96052e-17 0)
(3 -9.20281e-17 0)
(3 4.99319e-16 0)
(3 1.02162e-15 0)
(3 1.07755e-15 0)
(3 9.5776e-16 0)
(3 3.37106e-16 0)
(3 1.87318e-12 0)
(3 1.25475e-16 0)
(3 1.36371e-16 0)
(3 -1.01779e-16 0)
(3 -6.15179e-16 0)
(3 4.00126e-16 0)
(3 5.22978e-16 0)
(3 3.3522e-16 0)
(3 1.00735e-16 0)
(3 -1.93852e-16 0)
(3 -2.42968e-17 0)
(3 -7.03826e-17 0)
(3 -4.47615e-17 0)
(3 1.72387e-16 0)
(3 -2.75754e-16 0)
(3 -4.46344e-16 0)
(3 -2.80699e-16 0)
(3 -6.6267e-16 0)
(3 -3.69672e-16 0)
(3 -2.0071e-16 0)
(3 -1.43117e-16 0)
(3 3.71929e-16 0)
(3 5.22062e-16 0)
(3 5.73559e-16 0)
(3 2.90269e-16 0)
(3 -1.35175e-16 0)
(3 -4.72442e-16 0)
(3 -5.74625e-16 0)
(3 -7.16072e-16 0)
(3 -6.78198e-16 0)
(3 4.01664e-17 0)
(3 5.26091e-16 0)
(3 6.33899e-16 0)
(3 -1.78067e-17 0)
(3 -2.64804e-16 0)
(3 -4.47604e-17 0)
(3 1.38604e-16 0)
(3 -4.87401e-16 0)
(3 -7.14254e-16 0)
(3 -7.5278e-16 0)
(3 -6.13402e-16 0)
(3 -1.34912e-15 0)
(3 -1.16538e-15 0)
(3 -6.65927e-16 0)
(3 -6.11371e-16 0)
(3 -5.84891e-16 0)
(3 -4.10545e-16 0)
(3 -3.06432e-16 0)
(3 -9.23411e-16 0)
(3 -2.88498e-16 0)
(3 -5.87151e-16 0)
(3 -1.63712e-15 0)
(3 -1.41131e-15 0)
(3 -1.15392e-15 0)
(3 -3.38358e-16 0)
(3 4.62742e-16 0)
(3 9.90801e-16 0)
(3 -4.83923e-17 0)
(3 -7.2649e-16 0)
(3 -1.97768e-16 0)
(3 3.13779e-16 0)
(3 -3.71806e-16 0)
(3 -1.12248e-16 0)
(3 2.90023e-16 0)
(3 -3.48205e-16 0)
(3 -4.74327e-16 0)
(3 -7.21289e-16 0)
(3 -1.01497e-15 0)
(3 -1.19262e-15 0)
(3 -1.48701e-15 0)
(3 -1.79182e-15 0)
(3 -2.05762e-15 0)
(3 -1.74852e-15 0)
(3 3.41303e-17 0)
(3 3.35945e-17 0)
(3 -5.43486e-16 0)
(3 -5.06755e-16 0)
(3 -1.92126e-16 0)
(3 2.51158e-17 0)
(3 3.27781e-16 0)
(3 3.89517e-16 0)
(3 -5.23043e-16 0)
(3 -7.58549e-16 0)
(3 -4.30906e-16 0)
(3 2.89245e-16 0)
(3 4.19462e-16 0)
(3 1.53077e-16 0)
(3 2.57221e-16 0)
(3 8.35934e-17 0)
(3 3.45551e-16 0)
(3 2.93548e-16 0)
(3 -8.35901e-16 0)
(3 -1.05569e-15 0)
(3 -1.18554e-15 0)
(3 -1.26096e-15 0)
(3 -1.12924e-15 0)
(3 -9.46554e-16 0)
(1.54315 1.23133 0)
(2.04385 1.46547 0)
(2.18927 1.65318 0)
(2.22326 0.759194 0)
(2.49662 0.371832 0)
(2.61427 0.00164931 0)
(2.65241 -0.231376 0)
(2.63078 -0.283345 0)
(2.50501 -0.270969 0)
(2.42685 -0.352024 0)
(2.41236 -0.368242 0)
(2.39962 -0.257783 0)
(2.4018 -0.154681 0)
(2.4114 -0.118314 0)
(2.4362 -0.0973238 0)
(2.42298 -0.071948 0)
(2.40151 -0.056025 0)
(2.37778 -0.0453817 0)
(2.3667 -0.0270638 0)
(2.37595 -0.0149273 0)
(2.40218 -0.00971787 0)
(2.41944 -0.0125434 0)
(2.41041 -0.0150569 0)
(2.39856 -0.0166402 0)
(2.37817 -0.0113448 0)
(2.36922 -0.00351108 0)
(2.37108 0.00062241 0)
(2.38939 0.0011874 0)
(2.41475 -0.00417485 0)
(2.41875 -0.00915666 0)
(2.41632 -0.0109 0)
(2.40538 -0.00952063 0)
(2.39314 -0.00278479 0)
(2.39378 0.00220736 0)
(2.39936 0.0054873 0)
(2.39476 -0.00777475 0)
(2.23914 -0.115582 0)
(1.35094 -0.164863 0)
(1.06723 -0.122047 0)
(1.13806 -0.0966428 0)
(1.20949 -0.0719031 0)
(1.2675 -0.0431639 0)
(1.35161 -0.028047 0)
(1.40641 -0.024313 0)
(1.43713 -0.0186495 0)
(1.46402 -0.0109983 0)
(1.49058 -0.00661645 0)
(1.52575 -0.00496303 0)
(1.56086 -0.00512639 0)
(1.58701 -0.00531892 0)
(1.61184 -0.00525119 0)
(1.63725 -0.00530482 0)
(1.6656 -0.00468473 0)
(1.69658 -0.00245551 0)
(1.72192 -0.000668318 0)
(1.74375 0.00155521 0)
(1.7594 0.003953 0)
(1.77585 0.00507184 0)
(1.79653 0.00520674 0)
(1.82044 0.0048807 0)
(1.8511 0.00338241 0)
(1.87839 0.000755399 0)
(1.90211 0.000268477 0)
(1.92385 0.00105441 0)
(1.93788 0.00345493 0)
(1.94402 0.00702369 0)
(1.95336 0.0093486 0)
(1.9705 0.00963814 0)
(1.98995 0.00952791 0)
(2.01195 0.00870931 0)
(2.03686 0.00672684 0)
(2.05854 0.00511483 0)
(2.0794 0.00484803 0)
(2.09612 0.00526758 0)
(2.09995 0.00653299 0)
(2.09818 0.00819975 0)
(2.11018 0.00854088 0)
(2.1289 0.00851014 0)
(2.14829 0.00838769 0)
(2.16926 0.00779888 0)
(2.19322 0.00655257 0)
(2.21475 0.0054285 0)
(2.23433 0.00511387 0)
(2.24975 0.00478576 0)
(2.249 0.00603785 0)
(2.23924 0.00864354 0)
(2.24893 0.00977016 0)
(2.26765 0.0102066 0)
(2.28624 0.0105494 0)
(2.30646 0.0110502 0)
(2.33076 0.0103564 0)
(2.34922 0.00799995 0)
(2.36523 0.00710019 0)
(2.37894 0.00618851 0)
(2.37418 0.0070138 0)
(2.36943 0.0103327 0)
(1.7777 1.06474 0)
(2.30113 0.755309 0)
(2.5444 0.544448 0)
(2.6057 0.171519 0)
(2.71465 -0.289411 0)
(2.66547 -0.451448 0)
(2.71914 -0.54881 0)
(2.74974 -0.621099 0)
(2.7467 -0.587492 0)
(2.70557 -0.529578 0)
(2.62792 -0.455287 0)
(2.51154 -0.309857 0)
(2.46004 -0.178148 0)
(2.46048 -0.113875 0)
(2.47386 -0.0999073 0)
(2.47221 -0.0613004 0)
(2.46648 -0.0452954 0)
(2.45576 -0.0264484 0)
(2.43518 -0.00168888 0)
(2.42429 0.0158415 0)
(2.42507 0.0253787 0)
(2.43112 0.0143853 0)
(2.43205 -0.017342 0)
(2.43072 -0.0445676 0)
(2.42569 -0.0460539 0)
(2.4181 -0.0236307 0)
(2.41868 0.00967999 0)
(2.42341 0.024734 0)
(2.42682 0.0181355 0)
(2.43479 -0.00176082 0)
(2.43885 -0.0208826 0)
(2.43847 -0.0251751 0)
(2.43539 -0.0168602 0)
(2.43032 0.010343 0)
(2.41772 -0.00427274 0)
(2.35889 -0.114327 0)
(1.98958 -0.525846 0)
(1.75162 -0.440343 0)
(1.31846 -0.145236 0)
(1.27528 -0.0364746 0)
(1.29992 -0.0196018 0)
(1.32498 0.00291474 0)
(1.37566 0.00283817 0)
(1.42286 -0.0123134 0)
(1.46214 -0.0225846 0)
(1.49213 -0.0173777 0)
(1.51922 -0.00388832 0)
(1.54893 0.00889857 0)
(1.57618 0.00968863 0)
(1.60074 0.00462306 0)
(1.62532 -0.000605224 0)
(1.65166 -0.00380392 0)
(1.68096 -0.00349722 0)
(1.71041 -0.000958064 0)
(1.73546 0.000740768 0)
(1.75728 0.0044837 0)
(1.77359 0.00984126 0)
(1.78819 0.0157475 0)
(1.80741 0.0194801 0)
(1.82888 0.0209007 0)
(1.85409 0.01827 0)
(1.88014 0.0118813 0)
(1.90358 0.00577581 0)
(1.92502 0.000278592 0)
(1.94324 -0.00321982 0)
(1.95739 0.00141511 0)
(1.96945 0.0133467 0)
(1.98161 0.0242251 0)
(1.99793 0.0290465 0)
(2.01728 0.0298651 0)
(2.03848 0.0271766 0)
(2.06093 0.0207508 0)
(2.08137 0.013835 0)
(2.09877 0.00667082 0)
(2.10918 0.00423632 0)
(2.11193 0.0124451 0)
(2.11783 0.021961 0)
(2.13328 0.0251648 0)
(2.15224 0.025942 0)
(2.17169 0.0263458 0)
(2.1928 0.0244208 0)
(2.2136 0.0192381 0)
(2.23279 0.0128704 0)
(2.24929 0.00503549 0)
(2.25763 0.000931511 0)
(2.25615 0.0111385 0)
(2.25757 0.0256603 0)
(2.27044 0.0319604 0)
(2.28766 0.0335169 0)
(2.30479 0.0348131 0)
(2.32502 0.0328132 0)
(2.3459 0.0267468 0)
(2.36304 0.0197143 0)
(2.37833 0.0109246 0)
(2.38386 0.0041124 0)
(2.38378 0.0177932 0)
(1.66241 1.0516 0)
(2.0483 0.882741 0)
(2.36613 0.589235 0)
(2.52473 0.377331 0)
(2.61842 0.178245 0)
(2.64522 0.00704648 0)
(2.65887 -0.132374 0)
(2.71517 -0.249859 0)
(2.78212 -0.323976 0)
(2.81736 -0.414705 0)
(2.81874 -0.463126 0)
(2.75407 -0.460601 0)
(2.65469 -0.403213 0)
(2.64094 -0.347793 0)
(2.64297 -0.292165 0)
(2.61537 -0.200645 0)
(2.60058 -0.156455 0)
(2.58686 -0.137065 0)
(2.55837 -0.0859819 0)
(2.52215 -0.0320681 0)
(2.49525 -0.0066886 0)
(2.48361 0.00280726 0)
(2.47946 0.00484305 0)
(2.48309 -0.000959 0)
(2.50097 -0.0240669 0)
(2.50267 -0.0291595 0)
(2.49768 -0.0220893 0)
(2.48716 -0.00950182 0)
(2.47448 -0.00614881 0)
(2.47588 -0.0133585 0)
(2.47924 -0.0193954 0)
(2.48842 -0.0227795 0)
(2.4899 -0.0180147 0)
(2.46964 -0.0446369 0)
(2.39042 -0.166403 0)
(2.15143 -0.41235 0)
(1.89949 -0.6027 0)
(1.91443 -0.672919 0)
(1.75135 -0.452938 0)
(1.51769 -0.180595 0)
(1.44394 -0.0686616 0)
(1.43344 -0.0111829 0)
(1.45627 -0.0249456 0)
(1.4915 -0.0584931 0)
(1.52897 -0.0578791 0)
(1.55617 -0.0473831 0)
(1.58263 -0.0287784 0)
(1.60538 -0.0108895 0)
(1.62261 -0.000575546 0)
(1.64142 -0.00183438 0)
(1.66329 -0.00709635 0)
(1.68912 -0.0120291 0)
(1.71845 -0.0121496 0)
(1.74547 -0.0104401 0)
(1.76926 -0.00794582 0)
(1.7882 -0.0031916 0)
(1.80254 0.000950619 0)
(1.81735 0.00633646 0)
(1.83591 0.013667 0)
(1.8553 0.0209647 0)
(1.87423 0.0257694 0)
(1.89328 0.0262646 0)
(1.91191 0.0229524 0)
(1.93159 0.0176396 0)
(1.95312 0.0136426 0)
(1.97409 0.0124683 0)
(1.99339 0.0160749 0)
(2.0087 0.0262001 0)
(2.02029 0.0364904 0)
(2.03293 0.0405758 0)
(2.04906 0.040195 0)
(2.0663 0.0376697 0)
(2.08267 0.0323252 0)
(2.09759 0.0252047 0)
(2.11276 0.0198851 0)
(2.12694 0.0203586 0)
(2.13756 0.0287229 0)
(2.14693 0.0380463 0)
(2.16247 0.0408801 0)
(2.18139 0.0404638 0)
(2.20045 0.0389237 0)
(2.21817 0.035138 0)
(2.23393 0.0282053 0)
(2.24684 0.0198515 0)
(2.25859 0.0140134 0)
(2.2707 0.0161173 0)
(2.2806 0.0295174 0)
(2.28634 0.0473679 0)
(2.29544 0.0558043 0)
(2.31248 0.0561592 0)
(2.3294 0.0541293 0)
(2.34588 0.0477871 0)
(2.36031 0.0381253 0)
(2.37225 0.0271581 0)
(2.3808 0.020012 0)
(2.39577 0.0274113 0)
(1.60142 0.978866 0)
(1.89336 0.876279 0)
(2.13895 0.72193 0)
(2.34782 0.522878 0)
(2.48424 0.319266 0)
(2.56984 0.151979 0)
(2.59825 0.0514899 0)
(2.66847 -0.123323 0)
(2.73445 -0.280664 0)
(2.7523 -0.381444 0)
(2.78894 -0.450044 0)
(2.81598 -0.503593 0)
(2.79371 -0.481776 0)
(2.75285 -0.440445 0)
(2.73115 -0.410352 0)
(2.70193 -0.353942 0)
(2.69195 -0.322305 0)
(2.69527 -0.307687 0)
(2.67712 -0.245837 0)
(2.63888 -0.163422 0)
(2.60047 -0.109515 0)
(2.56744 -0.0725462 0)
(2.54975 -0.048031 0)
(2.5375 -0.0403049 0)
(2.54112 -0.0314446 0)
(2.55571 -0.00953743 0)
(2.55659 0.00502016 0)
(2.55019 0.00922374 0)
(2.52919 0.00220169 0)
(2.5153 -0.00113008 0)
(2.52298 0.00211217 0)
(2.52923 0.00759057 0)
(2.52685 -0.0137763 0)
(2.4042 -0.175922 0)
(2.21261 -0.424751 0)
(1.98061 -0.624088 0)
(1.94371 -0.643206 0)
(1.97111 -0.678734 0)
(1.95949 -0.64825 0)
(1.85076 -0.485307 0)
(1.67879 -0.233398 0)
(1.57184 -0.0630906 0)
(1.54092 -0.0308448 0)
(1.56604 -0.0129134 0)
(1.59866 -0.0108461 0)
(1.62599 -0.014319 0)
(1.65347 -0.0134362 0)
(1.67346 -0.0116471 0)
(1.68639 -0.00212991 0)
(1.69662 0.00622983 0)
(1.71493 0.00628402 0)
(1.73776 0.00450906 0)
(1.76426 0.00176248 0)
(1.78923 0.00143846 0)
(1.8122 0.00377599 0)
(1.83057 0.00878298 0)
(1.8448 0.0136039 0)
(1.859 0.0170495 0)
(1.87482 0.0188097 0)
(1.89079 0.0193161 0)
(1.9058 0.0192671 0)
(1.92062 0.019033 0)
(1.93714 0.020053 0)
(1.9565 0.0234707 0)
(1.97734 0.0279688 0)
(1.99869 0.0324376 0)
(2.01905 0.0356597 0)
(2.03742 0.038833 0)
(2.04984 0.0441032 0)
(2.05598 0.0475841 0)
(2.06551 0.0451642 0)
(2.07943 0.0404204 0)
(2.0943 0.0364443 0)
(2.11022 0.0351088 0)
(2.12805 0.0359528 0)
(2.1463 0.0376198 0)
(2.16215 0.0420276 0)
(2.17151 0.05043 0)
(2.17882 0.0557744 0)
(2.19314 0.0536963 0)
(2.20991 0.049248 0)
(2.22586 0.0433613 0)
(2.23911 0.036473 0)
(2.25221 0.0318921 0)
(2.2689 0.0320963 0)
(2.28663 0.0341842 0)
(2.30319 0.0394808 0)
(2.31373 0.0515606 0)
(2.3168 0.0666385 0)
(2.32301 0.072594 0)
(2.33569 0.0699717 0)
(2.34859 0.0648374 0)
(2.36013 0.057434 0)
(2.37108 0.0484581 0)
(2.38318 0.0441897 0)
(2.40774 0.0455678 0)
(1.56399 0.939768 0)
(1.80181 0.853732 0)
(2.00096 0.748359 0)
(2.16354 0.643447 0)
(2.3435 0.449161 0)
(2.44736 0.261177 0)
(2.51245 0.183571 0)
(2.53472 0.13131 0)
(2.59211 0.00126061 0)
(2.66647 -0.142527 0)
(2.69414 -0.226155 0)
(2.72706 -0.292155 0)
(2.75544 -0.316608 0)
(2.75095 -0.339644 0)
(2.71469 -0.361814 0)
(2.71018 -0.367318 0)
(2.71644 -0.392253 0)
(2.73138 -0.416049 0)
(2.73181 -0.383029 0)
(2.71679 -0.317019 0)
(2.68876 -0.251326 0)
(2.65908 -0.20242 0)
(2.616 -0.14579 0)
(2.58675 -0.100885 0)
(2.58246 -0.0677064 0)
(2.59396 -0.045143 0)
(2.59275 -0.0367502 0)
(2.58516 -0.0264891 0)
(2.56613 -0.0133738 0)
(2.55046 -0.00226439 0)
(2.55125 0.00297901 0)
(2.54547 -0.00715799 0)
(2.47586 -0.107273 0)
(2.18108 -0.41205 0)
(1.96928 -0.653557 0)
(1.95929 -0.638543 0)
(1.99411 -0.637487 0)
(2.00949 -0.641068 0)
(2.01714 -0.653671 0)
(2.01558 -0.635625 0)
(1.94739 -0.533571 0)
(1.80056 -0.309508 0)
(1.67954 -0.131542 0)
(1.64228 -0.0456871 0)
(1.63778 -0.00813422 0)
(1.6599 0.00335061 0)
(1.69614 -0.00472268 0)
(1.72057 -0.0136489 0)
(1.73834 -0.0118929 0)
(1.74838 -0.000435954 0)
(1.76081 0.00918507 0)
(1.78156 0.00971905 0)
(1.80319 0.00646977 0)
(1.82389 0.00399425 0)
(1.84568 0.00584954 0)
(1.86599 0.0129449 0)
(1.88479 0.0193422 0)
(1.90181 0.0235041 0)
(1.91578 0.0267897 0)
(1.92705 0.0286643 0)
(1.93753 0.0293239 0)
(1.95002 0.0302738 0)
(1.96666 0.0329565 0)
(1.98579 0.0370792 0)
(2.0058 0.0424492 0)
(2.02599 0.0476728 0)
(2.0454 0.0513438 0)
(2.06367 0.054022 0)
(2.07773 0.0569599 0)
(2.08233 0.0597819 0)
(2.08475 0.0577728 0)
(2.0965 0.0520517 0)
(2.11269 0.0484084 0)
(2.13078 0.0477975 0)
(2.15002 0.0488658 0)
(2.16969 0.0517818 0)
(2.18794 0.0565537 0)
(2.19994 0.0641711 0)
(2.20137 0.0720725 0)
(2.20442 0.0705602 0)
(2.21672 0.062066 0)
(2.23169 0.0524895 0)
(2.24803 0.0457111 0)
(2.26518 0.0446468 0)
(2.28462 0.0472582 0)
(2.30355 0.0522713 0)
(2.32184 0.0573176 0)
(2.33737 0.0652717 0)
(2.34259 0.0782146 0)
(2.33762 0.0881317 0)
(2.34052 0.08496 0)
(2.35111 0.076474 0)
(2.36355 0.0683912 0)
(2.37866 0.0633674 0)
(2.3927 0.0640324 0)
(2.41954 0.0670944 0)
(1.53872 0.893954 0)
(1.72855 0.839801 0)