/*--------------------------------*- C++ -*----------------------------------*\
  =========                 |
  \\      /  F ield         | OpenFOAM: The Open Source CFD Toolbox
   \\    /   O peration     | Website:  https://openfoam.org
    \\  /    A nd           | Version:  7
     \\/     M anipulation  |
\*---------------------------------------------------------------------------*/
FoamFile
{
    version     2.0;
    format      ascii;
    class       volScalarField;
    location    "1.7";
    object      rho;
}
// * * * * * * * * * * * * * * * * * * * * * * * * * * * * * * * * * * * * * //

dimensions      [1 -3 0 0 0 0 0];

internalField   nonuniform List<scalar> 
4032
(
1.40001
1.40001
1.40001
1.40001
1.40001
1.40001
1.40001
1.40001
1.40001
1.40001
1.40001
1.40001
2.88298
5.31476
5.50716
5.55038
5.60154
5.652
5.71571
5.78304
5.83809
5.85915
5.84573
5.8402
1.40001
1.40001
1.40001
1.40001
1.40001
1.40001
1.40001
1.40001
1.40001
1.40001
1.40001
1.40001
2.81371
5.26858
5.50001
5.54267
5.5926
5.64225
5.70519
5.77008
5.82179
5.83978
5.82413
5.8183
1.40001
1.40001
1.40001
1.40001
1.40001
1.40001
1.40001
1.40001
1.40001
1.40001
1.40001
1.40001
2.6672
5.2087
5.49124
5.52918
5.57693
5.62578
5.68828
5.7511
5.79906
5.81302
5.7935
5.78677
1.40001
1.40001
1.40001
1.40001
1.40001
1.40001
1.40001
1.40001
1.40001
1.40001
1.40001
1.40001
2.45608
5.11026
5.48805
5.51544
5.55952
5.60604
5.66658
5.72597
5.76863
5.77635
5.74957
5.73775
1.40001
1.40001
1.40001
1.40001
1.40001
1.40001
1.40001
1.40001
1.40001
1.40001
1.40001
1.40001
2.18842
4.95819
5.50448
5.51368
5.54854
5.58451
5.63538
5.68481
5.71718
5.71862
5.68709
5.68106
1.40001
1.40001
1.40001
1.40001
1.40001
1.40001
1.40001
1.40001
1.40001
1.40001
1.40001
1.40001
1.8745
4.73683
5.51401
5.5024
5.53321
5.5586
5.5969
5.63736
5.66461
5.66373
5.62601
5.5927
1.40001
1.40001
1.40001
1.40001
1.40001
1.40001
1.40001
1.40001
1.40001
1.40001
1.40001
1.40001
1.56047
4.43351
5.53464
5.49744
5.51366
5.51876
5.53412
5.5555
5.56515
5.53646
5.47828
5.44358
1.40001
1.40001
1.40001
1.40001
1.40001
1.40001
1.40001
1.40001
1.40001
1.40001
1.40001
1.40001
1.40812
3.93504
5.38345
5.40166
5.43265
5.43889
5.44031
5.44484
5.436
5.39475
5.30635
5.25839
1.40001
1.40001
1.40001
1.40001
1.40001
1.40001
1.40001
1.40001
1.40001
1.40001
1.40001
1.40001
1.40003
3.30477
5.23022
5.35743
5.37534
5.37177
5.35504
5.33698
5.28936
5.18595
4.85639
3.98369
1.40001
1.40001
1.40001
1.40001
1.40001
1.40001
1.40001
1.40001
1.40001
1.40001
1.40001
1.40001
1.4
2.63204
5.02696
5.3224
5.32536
5.30801
5.27269
5.21976
5.1259
4.93901
4.58988
3.69119
1.40001
1.40001
1.40001
1.40001
1.40001
1.40001
1.40001
1.40001
1.40001
1.40001
1.40001
1.40001
1.40001
1.935
4.7711
5.35525
5.30157
5.24875
5.18395
5.09174
4.96226
4.72971
4.38106
3.56731
1.40001
1.40001
1.40001
1.40001
1.40001
1.40001
1.40001
1.40001
1.40001
1.40001
1.40001
1.40001
1.40001
1.4656
4.11376
5.27734
5.22881
5.16768
5.08716
4.9712
4.81541
4.57907
4.20576
3.54701
1.40001
1.40001
1.40001
1.40001
1.40001
1.40001
1.40001
1.40001
1.40001
1.40001
1.40001
1.40001
1.40001
1.40036
3.2019
5.12315
5.16114
5.09859
5.01008
4.87907
4.70278
4.46413
4.08802
3.56433
1.40001
1.40001
1.40001
1.40001
1.40001
1.40001
1.40001
1.40001
1.40001
1.40001
1.40001
1.40001
1.40001
1.4
2.19195
4.87205
5.13346
5.04578
4.94537
4.8059
4.61944
4.37373
4.01887
3.60686
1.40001
1.40001
1.40001
1.40001
1.40001
1.40001
1.40001
1.40001
1.40001
1.40001
1.40001
1.40001
1.40001
1.4
1.51338
4.12775
5.04314
4.96626
4.88202
4.7435
4.56685
4.31503
3.99855
3.65105
1.40001
1.40001
1.40001
1.40001
1.40001
1.40001
1.40001
1.40001
1.40001
1.40001
1.40001
1.40001
1.40001
1.4
1.40123
2.93971
4.84049
4.91169
4.85188
4.72147
4.5366
4.29635
4.01074
3.70671
1.40001
1.40001
1.40001
1.40001
1.40001
1.40001
1.40001
1.40001
1.40001
1.40001
1.40001
1.40001
1.40001
1.40001
1.4
1.75909
4.49105
4.96836
4.84602
4.69735
4.50579
4.27929
4.02257
3.75077
1.40001
1.40001
1.40001
1.40001
1.40001
1.40001
1.40001
1.40001
1.40001
1.40001
1.40001
1.40001
1.40001
1.40001
1.4
1.41791
3.39536
4.81137
4.7822
4.65204
4.48184
4.27085
4.03806
3.79101
1.40001
1.40001
1.40001
1.40001
1.40001
1.40001
1.40001
1.40001
1.40001
1.40001
1.40001
1.40001
1.40001
1.40001
1.4
1.39999
1.97503
4.53197
4.83654
4.66267
4.4861
4.27962
4.06097
3.8307
1.40001
1.40001
1.40001
1.40001
1.40001
1.40001
1.40001
1.40001
1.40001
1.40001
1.40001
1.40001
1.40001
1.40001
1.40001
1.4
1.44704
3.49525
4.72771
4.64012
4.47781
4.28757
4.08371
3.86851
1.40001
1.40001
1.40001
1.40001
1.40001
1.40001
1.40001
1.40001
1.40001
1.40001
1.40001
1.40001
1.40001
1.40001
1.40001
1.4
1.40022
2.03556
4.34096
4.68318
4.50837
4.32592
4.12927
3.92231
1.40001
1.40001
1.40001
1.40001
1.40001
1.40001
1.40001
1.40001
1.40001
1.40001
1.40001
1.40001
1.40001
1.40001
1.40001
1.40001
1.40001
1.45406
3.21627
4.59045
4.52455
4.34975
4.16214
3.96563
1.40001
1.40001
1.40001
1.40001
1.40001
1.40001
1.40001
1.40001
1.40001
1.40001
1.40001
1.40001
1.40001
1.40001
1.40001
1.40001
1.40001
1.40048
1.87993
4.02984
4.58623
4.3949
4.21713
4.02592
1.40001
1.40001
1.40001
1.40001
1.40001
1.40001
1.40001
1.40001
1.40001
1.40001
1.40001
1.40001
1.40001
1.40001
1.40001
1.40001
1.40001
1.40001
1.42919
2.6679
4.35853
4.42187
4.26156
4.08159
1.40001
1.40001
1.40001
1.40001
1.40001
1.40001
1.40001
1.40001
1.40001
1.40001
1.40001
1.40001
1.40001
1.40001
1.40001
1.40001
1.40001
1.40001
1.40029
1.62386
3.48338
4.45883
4.33878
4.16069
1.40001
1.40001
1.40001
1.40001
1.40001
1.40001
1.40001
1.40001
1.40001
1.40001
1.40001
1.40001
1.40001
1.40001
1.40001
1.40001
1.40001
1.40001
1.40001
1.40676
2.07719
3.98798
4.38154
4.23053
1.40001
1.40001
1.40001
1.40001
1.40001
1.40001
1.40001
1.40001
1.40001
1.40001
1.40001
1.40001
1.40001
1.40001
1.40001
1.40001
1.40001
1.40001
1.40001
1.40005
1.4584
2.6619
4.17646
4.29208
1.40001
1.40001
1.40001
1.40001
1.40001
1.40001
1.40001
1.40001
1.40001
1.40001
1.40001
1.40001
1.40001
1.40001
1.40001
1.40001
1.40001
1.40001
1.40001
1.40001
1.40089
1.61278
3.20728
4.22236
1.40001
1.40001
1.40001
1.40001
1.40001
1.40001
1.40001
1.40001
1.40001
1.40001
1.40001
1.40001
1.40001
1.40001
1.40001
1.40001
1.40001
1.40001
1.40001
1.40001
1.40001
1.40689
1.88859
3.58055
1.40001
1.40001
1.40001
1.40001
1.40001
1.40001
1.40001
1.40001
1.40001
1.40001
1.40001
1.40001
1.40001
1.40001
1.40001
1.40001
1.40001
1.40001
1.40001
1.40001
1.40001
1.40005
1.43154
2.21098
1.40001
1.40001
1.40001
1.40001
1.40001
1.40001
1.40001
1.40001
1.40001
1.40001
1.40001
1.40001
1.40001
1.40001
1.40001
1.40001
1.40001
1.40001
1.40001
1.40001
1.40001
1.40001
1.40042
1.48534
1.40001
1.40001
1.40001
1.40001
1.40001
1.40001
1.40001
1.40001
1.40001
1.40001
1.40001
1.40001
1.40001
1.40001
1.40001
1.40001
1.40001
1.40001
1.40001
1.40001
1.40001
1.40001
1.40001
1.40174
1.40001
1.40001
1.40001
1.40001
1.40001
1.40001
1.40001
1.40001
1.40001
1.40001
1.40001
1.40001
1.40001
1.40001
1.40001
1.40001
1.40001
1.40001
1.40001
1.40001
1.40001
1.40001
1.40001
1.40001
1.40001
1.40001
1.40001
1.40001
1.40001
1.40001
1.40001
1.40001
1.40001
1.40001
1.40001
1.40001
1.40001
1.40001
1.40001
1.40001
1.40001
1.40001
1.40001
1.40001
1.40001
1.40001
1.40001
1.40001
1.40001
1.40001
1.40001
1.40001
1.40001
1.40001
1.40001
1.40001
1.40001
1.40001
1.40001
1.40001
1.40001
1.40001
1.40001
1.40001
1.40001
1.40001
1.40001
1.40001
1.40001
1.40001
1.40001
1.40001
1.40001
1.40001
1.40001
1.40001
1.40001
1.40001
1.40001
1.40001
1.40001
1.40001
1.40001
1.40001
1.40001
1.40001
1.40001
1.40001
1.40001
1.40001
1.40001
1.40001
1.40001
1.40001
1.40001
1.40001
1.40001
1.40001
1.40001
1.40001
1.40001
1.40001
1.40001
1.40001
1.40001
1.40001
1.40001
1.40001
1.40001
1.40001
1.40001
1.40001
1.40001
1.40001
1.40001
1.40001
1.40001
1.40001
1.40001
1.40001
1.40001
1.40001
1.40001
1.40001
1.40001
1.40001
1.40001
1.40001
1.40001
1.40001
1.40001
1.40001
1.40001
1.40001
1.40001
1.40001
1.40001
1.40001
1.40001
1.40001
1.40001
1.40001
1.40001
1.40001
1.40001
1.40001
1.40001
1.40001
1.40001
1.40001
1.40001
1.40001
1.40001
1.40001
1.40001
1.40001
1.40001
1.40001
1.40001
1.40001
1.40001
1.40001
1.40001
1.40001
1.40001
1.40001
1.40001
1.40001
1.40001
1.40001
1.40001
1.40001
1.40001
1.40001
1.40001
1.40001
1.40001
1.40001
1.40001
1.40001
1.40001
1.40001
1.40001
1.40001
1.40001
1.40001
1.40001
1.40001
1.40001
1.40001
1.40001
1.40001
1.33843
0.508239
0.191852
0.189777
0.247445
0.297235
0.349754
0.447609
0.595639
0.686199
0.723806
0.760276
0.809854
0.892002
0.978334
0.9955
0.992414
0.976898
0.968144
0.957143
0.962002
0.984905
1.00753
1.01135
1.0087
1.00193
0.996317
0.995998
0.996357
0.99706
1.00012
1.0077
1.01443
1.01754
1.01843
1.0182
1.0168
1.01416
1.01152
1.00964
1.00905
1.00747
1.0023
0.997476
0.999827
1.03111
1.18472
1.53205
2.04587
2.49334
2.78758
3.00082
3.0492
2.974
2.86937
2.74443
2.65535
2.59394
2.56239
2.5377
2.51294
2.48207
2.45177
2.4091
2.36356
2.3333
2.30629
2.27602
2.24552
2.21853
2.19311
2.16793
2.14231
2.11513
2.08328
2.04147
1.9922
1.95727
1.93722
1.91937
1.9036
1.89233
1.87956
1.86185
1.84048
1.80278
1.74101
1.69643
1.67576
1.6611
1.64814
1.63779
1.6271
1.61387
1.59838
1.554
1.9815
1.26817
0.818992
0.635926
0.616455
0.565861
0.526924
0.535983
0.550787
0.583464
0.618348
0.659843
0.715987
0.78957
0.882673
0.941694
0.948359
0.953456
0.963531
0.969076
0.987239
1.01855
1.03606
1.03463
1.03087
1.02543
1.01899
1.01741
1.01745
1.01792
1.01997
1.02607
1.02914
1.0295
1.02887
1.02848
1.02781
1.02638
1.02417
1.02222
1.01959
1.01465
1.00964
1.01882
1.07241
1.24895
1.53613
1.7283
1.86361
2.08808
2.33891
2.53887
2.70698
2.78059
2.79275
2.76021
2.71176
2.66207
2.62807
2.59788
2.564
2.52771
2.49273
2.44945
2.40328
2.36275
2.32433
2.28885
2.25231
2.22173
2.20161
2.18396
2.16304
2.13887
2.11054
2.07555
2.03172
1.98432
1.94926
1.9264
1.90755
1.89213
1.87804
1.86255
1.84309
1.81323
1.77099
1.72611
1.69206
1.67087
1.65627
1.64284
1.63125
1.61928
1.60558
1.56817
2.45897
1.82133
1.42525
1.10864
0.935458
0.826243
0.712623
0.674564
0.653619
0.640293
0.662408
0.701314
0.739147
0.773362
0.822941
0.891282
0.92615
0.953981
0.998203
1.03103
1.05976
1.09285
1.10208
1.09825
1.09249
1.08597
1.07413
1.06126
1.05798
1.05844
1.06078
1.06382
1.06554
1.06591
1.06536
1.06511
1.06498
1.06405
1.06221
1.06043
1.05725
1.05406
1.06922
1.16583
1.39629
1.68321
1.83885
1.91005
1.91598
1.93282
1.99701
2.1459
2.38462
2.60111
2.7659
2.82747
2.83794
2.79915
2.75033
2.70534
2.6571
2.60514
2.55405
2.50412
2.46282
2.42444
2.38591
2.34616
2.29887
2.25881
2.23759
2.22095
2.20133
2.17798
2.15229
2.12498
2.09431
2.0543
2.0043
1.9612
1.9329
1.91162
1.89194
1.87046
1.84547
1.82261
1.80174
1.77837
1.74962
1.71924
1.69526
1.67631
1.65853
1.63852
1.61927
1.58791
2.8132
2.24975
1.84094
1.53656
1.3022
1.14917
1.01389
0.904662
0.872419
0.828381
0.788094
0.76804
0.748209
0.744701
0.751479
0.779074
0.828804
0.881954
0.943118
1.00329
1.03852
1.07411
1.1037
1.10964
1.12069
1.13356
1.13208
1.1218
1.11541
1.1148
1.11274
1.10942
1.10676
1.1046
1.1019
1.10015
1.10062
1.10073
1.09944
1.10018
1.10406
1.13185
1.26737
1.57221
1.82803
1.96668
2.01646
2.00913
1.9757
1.93873
1.91986
1.91789
1.97584
2.12681
2.37717
2.60982
2.75563
2.77849
2.77253
2.75606
2.73869
2.70444
2.6597
2.60709
2.56088
2.51983
2.47795
2.43347
2.37745
2.31875
2.27629
2.25318
2.23383
2.21594
2.19748
2.17598
2.15263
2.12496
2.08492
2.02881
1.97903
1.94899
1.92479
1.90063
1.8799
1.8644
1.8492
1.83266
1.81286
1.78584
1.75263
1.7233
1.69847
1.67276
1.65161
1.62329
3.02914
2.57843
2.18113
1.8777
1.62977
1.43588
1.29889
1.16153
1.06037
1.00822
0.941579
0.877637
0.821794
0.790578
0.774183
0.777952
0.790842
0.810232
0.843623
0.895536
0.945517
0.996237
1.05615
1.08737
1.10462
1.12648
1.13587
1.13059
1.13411
1.14611
1.14956
1.14757
1.14506
1.14305
1.13911
1.13238
1.12688
1.12514
1.12637
1.13986
1.20037
1.38437
1.70903
1.98207
2.05418
2.05914
2.0352
2.00686
1.98214
1.95762
1.93233
1.91437
1.88856
1.88244
1.93074
2.07254
2.29256
2.49892
2.64107
2.70028
2.72118
2.70471
2.67599
2.65817
2.6397
2.60407
2.5631
2.51118
2.45187
2.38741
2.31543
2.26092
2.236
2.22082
2.21525
2.21044
2.19917
2.18168
2.15829
2.11704
2.04967
1.98611
1.9506
1.93073
1.91861
1.91048
1.90146
1.8879
1.87208
1.85016
1.81307
1.76561
1.72799
1.70311
1.69107
1.66922
3.19079
2.80727
2.46561
2.16717
1.90657
1.68643
1.53472
1.40395
1.26455
1.18426
1.11666
1.03909
0.981014
0.934829
0.894435
0.852333
0.837966
0.840451
0.832147
0.82841
0.837648
0.86374
0.908491
0.969462
1.01894
1.06791
1.11334
1.12053
1.12922
1.14478
1.14816
1.14521
1.14404
1.14606
1.15059
1.15001
1.14829
1.14963
1.16618
1.28306
1.53817
1.83208
2.07181
2.10844
2.07683
2.05538
2.03963
2.02727
2.007
1.98239
1.94805
1.8994
1.86486
1.85014
1.84321
1.84237
1.87622
1.98534
2.15619
2.35175
2.49718
2.59273
2.61184
2.6279
2.61652
2.61203
2.5935
2.56125
2.5146
2.45467
2.37976
2.30235
2.25249
2.22757
2.21152
2.21117
2.22118
2.21058
2.19132
2.16401
2.11545
2.04358
1.98911
1.96582
1.95119
1.94062
1.93727
1.9299
1.9167
1.89721
1.86199
1.80682
1.75717
1.7357
1.72606
1.7047
3.30414
2.9597
2.65564
2.38685
2.14284
1.92032
1.73684
1.59612
1.47043
1.35914
1.27513
1.18899
1.11306
1.05469
1.00336
0.956105
0.918184
0.898653
0.87347
0.844873
0.843784
0.845531
0.84674
0.85793
0.890183
0.94065
1.00493
1.05986
1.08942
1.12107
1.13489
1.13225
1.13645
1.14147
1.14861
1.14884
1.15236
1.18421
1.34641
1.71046
1.96116
2.11932
2.13823
2.11896
2.07654
2.05204
2.03902
2.03528
2.01317
1.97994
1.93452
1.88363
1.85626
1.83863
1.82622
1.81714
1.81253
1.80773
1.81997
1.8794
1.99582
2.16216
2.3182
2.44883
2.50333
2.54049
2.54664
2.53843
2.5178
2.48651
2.43512
2.37435
2.31409
2.25767
2.2261
2.21032
2.19673
2.18955
2.18291
2.16883
2.14285
2.10112
2.05151
2.00925
1.98303
1.96697
1.95397
1.94448
1.93361
1.91721
1.89019
1.84948
1.80258
1.76465
1.74857
1.72525
3.39101
3.08337
2.81271
2.55334
2.31062
2.1137
1.93429
1.77347
1.63549
1.52415
1.42017
1.3337
1.25928
1.19289
1.12711
1.06679
1.02558
0.997655
0.969406
0.930783
0.904034
0.888371
0.86375
0.85476
0.856273
0.868109
0.892424
0.936046
0.983824
1.03073
1.07171
1.09436
1.10787
1.1169
1.13165
1.14441
1.20602
1.40709
1.81018
2.06972
2.16239
2.16278
2.13276
2.07804
2.04126
2.02711
2.02194
2.01994
2.0014
1.96932
1.92327
1.87651
1.85446
1.84097
1.82667
1.81126
1.79747
1.78596
1.77895
1.7727
1.75953
1.78511
1.85779
1.98176
2.14994
2.29346
2.39748
2.44614
2.46989
2.46126
2.43473
2.41358
2.37783
2.3239
2.27392
2.23156
2.20528
2.18804
2.17207
2.15537
2.1408
2.12589
2.10416
2.06882
2.02517
1.98874
1.96493
1.94606
1.93212
1.92224
1.90726
1.88159
1.84696
1.80707
1.77621
1.74118
3.46143
3.18864
2.93705
2.6843
2.45983
2.27272
2.09262
1.92303
1.79174
1.67894
1.56462
1.45612
1.38045
1.31608
1.24938
1.1894
1.13804
1.0952
1.04903
1.00405
0.968603
0.940028
0.909389
0.876744
0.870744
0.874204
0.879264
0.883365
0.895944
0.918514
0.950833
0.989517
1.02248
1.05471
1.09592
1.1984
1.50283
1.84196
2.13918
2.19516
2.20228
2.17975
2.13637
2.06808
2.02202
2.00633
2.00195
1.99775
1.98436
1.96033
1.93212
1.90242
1.8694
1.84483
1.82292
1.80298
1.79038
1.77868
1.76756
1.76147
1.75199
1.73657
1.70502
1.68997
1.72796
1.82541
1.97681
2.13307
2.26365
2.36807
2.39589
2.39033
2.37144
2.35002
2.3279
2.29101
2.24613
2.20592
2.17967
2.16009
2.14723
2.13661
2.1219
2.10054
2.07089
2.0305
1.98879
1.95894
1.93537
1.91197
1.89653
1.88446
1.86689
1.84169
1.81432
1.7673
3.52766
3.28208
3.04424
2.80335
2.59767
2.40944
2.23137
2.06496
1.93839
1.81072
1.69484
1.58576
1.50869
1.43175
1.35783
1.29217
1.24553
1.20004
1.15188
1.10198
1.0603
1.02375
0.98897
0.947176
0.932105
0.923201
0.905733
0.888552
0.887503
0.886136
0.886163
0.892086
0.915577
0.955702
1.0722
1.4466
1.81471
2.04726
2.14106
2.17257
2.16759
2.14951
2.11091
2.06567
2.02786
2.00637
1.99313
1.98284
1.96681
1.95327
1.93945
1.92154
1.89473
1.85802
1.82265
1.7981
1.78374
1.77507
1.76931
1.76046
1.74739
1.73236
1.71189
1.68367
1.62807
1.61152
1.6356
1.70511
1.82424
1.9819
2.13476
2.26151
2.30491
2.3225
2.30925
2.29414
2.2748
2.24758
2.2137
2.1877
2.17161
2.15614
2.13906
2.12161
2.10083
2.07133
2.0292
1.9849
1.94891
1.92111
1.90039
1.88348
1.86995
1.85638
1.83958
1.79922
3.58949
3.36279
3.1351
2.91052
2.71862
2.53597
2.3507
2.19588
2.06874
1.94134
1.81645
1.70578
1.62654
1.54326
1.47038
1.3999
1.34384
1.28787
1.23656
1.18918
1.1496
1.10974
1.07039
1.02739
0.999066
0.975642
0.947555
0.911473
0.899174
0.892769
0.885737
0.887288
0.9014
1.02335
1.36121
1.72155
1.84825
1.94361
1.97672
2.01243
2.03653
2.05481
2.05756
2.05919
2.03638
2.00275
1.98333
1.97
1.95633
1.94782
1.943
1.92803
1.90576
1.87603
1.83786
1.80304
1.77962
1.76529
1.7542
1.74426
1.73441
1.72078
1.7066
1.68679
1.65277
1.60794
1.58603
1.5757
1.58118
1.61563
1.70159
1.83083
1.97793
2.10152
2.1822
2.21357
2.23833
2.23244
2.21833
2.20453
2.18648
2.17381
2.16948
2.1531
2.13382
2.10688
2.06987
2.02436
1.98179
1.94858
1.92219
1.90142
1.88116
1.8527
1.83546
1.81131
3.64825
3.43631
3.21974
3.01236
2.82899
2.64919
2.46369
2.32046
2.18777
2.05956
1.92431
1.82898
1.74061
1.65207
1.56596
1.49981
1.44646
1.38346
1.32748
1.27091
1.22803
1.18504
1.14555
1.10787
1.08113
1.05312
1.02075
0.977888
0.953724
0.934937
0.921916
0.93607
1.05338
1.38265
1.73241
1.80377
1.80606
1.78778
1.7829
1.80744
1.85422
1.90613
1.94354
1.9706
1.97797
1.96076
1.93826
1.93197
1.93848
1.94491
1.94096
1.92727
1.90888
1.88747
1.85945
1.81964
1.78021
1.75864
1.74635
1.73452
1.7242
1.71148
1.69734
1.68346
1.66164
1.62771
1.59758
1.573
1.55789
1.5469
1.54173
1.55516
1.59983
1.67898
1.78591
1.89214
1.99537
2.069
2.12476
2.16852
2.17181
2.15389
2.14457
2.14624
2.14889
2.13497
2.10644
2.06749
2.01961
1.98399
1.96119
1.93771
1.90482
1.86307
1.84476
1.82296
3.71341
3.50904
3.29951
3.10435
2.92897
2.74879
2.57066
2.43147
2.29908
2.16456
2.03458
1.94406
1.84736
1.75735
1.66328
1.60114
1.5381
1.47255
1.41144
1.35577
1.31158
1.26432
1.22118
1.17726
1.15014
1.12039
1.08579
1.0474
1.01631
0.98931
1.00015
1.12229
1.46202
1.83641
1.89266
1.84588
1.79797
1.76252
1.75343
1.74991
1.74602
1.74715
1.75224
1.76414
1.783
1.80045
1.82479
1.84477
1.85955
1.87349
1.88505
1.89714
1.90021
1.89095
1.8695
1.82484
1.78479
1.76972
1.75592
1.73973
1.72272
1.70473
1.6859
1.66292
1.64417
1.62856
1.61083
1.5894
1.56772
1.54602
1.52767
1.517
1.51028
1.50625
1.51342
1.54132
1.59612
1.68447
1.78791
1.88942
1.98365
2.06347
2.07935
2.09662
2.10995
2.10947
2.1041
2.08547
2.05195
2.02681
2.00325
1.97761
1.94566
1.90945
1.87612
1.83985
3.76663
3.57067
3.37112
3.18458
3.01664
2.84147
2.67476
2.53525
2.40356
2.25973
2.14626
2.05259
1.95413
1.85358
1.76067
1.69982
1.62838
1.56175
1.49145
1.43765
1.38917
1.33962
1.29562
1.25346
1.22296
1.18719
1.15029
1.11187
1.07926
1.107
1.29159
1.63179
1.96801
2.03167
1.98459
1.91092
1.84364
1.79987
1.77015
1.75178
1.73743
1.72562
1.72133
1.71205
1.69414
1.6729
1.67341
1.68238
1.70285
1.723
1.75033
1.77874
1.81066
1.83257
1.82975
1.81288
1.7902
1.78193
1.77162
1.75352
1.7257
1.70302
1.6829
1.6569
1.63357
1.62169
1.60738
1.59192
1.57805
1.55906
1.52894
1.50816
1.49976
1.49196
1.47987
1.46506
1.45289
1.45058
1.46993
1.51447
1.58714
1.69208
1.79852
1.89089
1.95382
2.00363
2.05266
2.05741
2.04787
2.01937
2.00169
1.99314
1.98141
1.9626
1.9318
1.87554
3.83181
3.64053
3.4506
3.26908
3.10134
2.93395
2.77779
2.64027
2.50384
2.3579
2.25163
2.1555
2.05926
1.94682
1.86348
1.79421
1.71658
1.64539
1.5712
1.52239
1.46783
1.41659
1.36381
1.32283
1.28954
1.24907
1.21574
1.1801
1.20926
1.44817
1.83041
2.12172
2.18102
2.12203
2.05444
1.99153
1.938
1.89232
1.85052
1.81587
1.78596
1.75638
1.72242
1.69847
1.68369
1.66847
1.64251
1.60942
1.59001
1.58981
1.59779
1.6134
1.63117
1.66547
1.70095
1.72897
1.73893
1.73884
1.73454
1.71918
1.71053
1.70072
1.68773
1.66276
1.6359
1.61475
1.59601
1.58342
1.57446
1.56069
1.53148
1.50495
1.49489
1.48683
1.47452
1.45814
1.44213
1.42742
1.40848
1.38624
1.38535
1.39976
1.43935
1.50681
1.59956
1.69716
1.79642
1.87828
1.95776
1.97336
1.96166
1.9595
1.955
1.95291
1.944
1.91208
3.89474
3.70705
3.52783
3.35609
3.18475
3.01883
2.87399
2.73936
2.59944
2.45886
2.34982
2.25073
2.14836
2.03714
1.95873
1.88113
1.80371
1.71884
1.65154
1.60271
1.54467
1.49261
1.43413
1.396
1.35199
1.31409
1.28736
1.3442
1.64121
2.06066
2.27878
2.33109
2.27504
2.1986
2.13632
2.09141
2.04619
1.98868
1.9316
1.88555
1.84858
1.81454
1.78095
1.75202
1.72273
1.69023
1.6546
1.61471
1.58326
1.57231
1.56065
1.54792
1.54004
1.54195
1.55019
1.56813
1.57918
1.58114
1.59793
1.61492
1.64169
1.6573
1.64905
1.64255
1.63095
1.61698
1.60023
1.58079
1.56414
1.54535
1.51894
1.50116
1.49444
1.48972
1.4775
1.46205
1.44749
1.43053
1.40701
1.37848
1.35579
1.344
1.33804
1.33942
1.35149
1.37975
1.43773
1.51908
1.61502
1.70244
1.78566
1.82953
1.85601
1.87351
1.89739
1.89189
3.97911
3.79423
3.61945
3.45045
3.27867
3.113
2.96991
2.83336
2.69371
2.56101
2.45124
2.344
2.23468
2.12976
2.05059
1.96774
1.88646
1.79597
1.73549
1.68189
1.62414
1.56655
1.50908
1.46006
1.41765
1.39776
1.4868
1.86808
2.31541
2.4592
2.46915
2.41558
2.34298
2.28195
2.22768
2.18197
2.13261
2.07792
2.02147
1.96939
1.92491
1.88621
1.85199
1.81961
1.78576
1.75032
1.71071
1.66523
1.61362
1.57519
1.55458
1.53908
1.52838
1.52235
1.51221
1.50059
1.48694
1.46692
1.459
1.46175
1.47504
1.50921
1.54263
1.56983
1.59384
1.59463
1.56913
1.55321
1.54011
1.52588
1.51395
1.50528
1.50004
1.48629
1.47056
1.46048
1.44998
1.43381
1.41032
1.3803
1.35331
1.3385
1.32993
1.32244
1.31477
1.30646
1.29869
1.30316
1.32137
1.35646
1.41337
1.49294
1.58677
1.66742
1.7203
1.77464
4.04734
3.8718
3.70215
3.53239
3.35929
3.20363
3.06069
2.9183
2.77278
2.65403
2.54544
2.43498
2.31726
2.21973
2.13896
2.05131
1.96589
1.87721
1.82122
1.7605
1.70041
1.63832
1.57694
1.52792
1.52273
1.66302
2.09479
2.58993
2.70549
2.61831
2.52921
2.46722
2.41261
2.36814
2.32413
2.27597
2.22181
2.15995
2.0964
2.04176
1.99537
1.95256
1.91192
1.87344
1.83758
1.80453
1.76984
1.7282
1.67885
1.63287
1.59799
1.57009
1.54696
1.52633
1.50566
1.48709
1.47017
1.45304
1.42629
1.40852
1.3958
1.39399
1.40521
1.42009
1.4473
1.4799
1.49259
1.4967
1.49664
1.48674
1.46596
1.46016
1.45956
1.46597
1.47176
1.46399
1.45486
1.43877
1.41113
1.37775
1.35501
1.34172
1.33128
1.32126
1.31113
1.30035
1.28816
1.27167
1.25229
1.24188
1.24493
1.25929
1.29218
1.34231
1.39907
1.50831
4.12866
3.95036
3.78693
3.61865
3.45007
3.29733
3.1522
3.00576
2.86358
2.7511
2.63905
2.52466
2.40204
2.31366
2.22829
2.14125
2.04627
1.96579
1.90887
1.83905
1.77776
1.70756
1.64144
1.66182
1.87267
2.37462
2.83467
2.89271
2.81899
2.70258
2.60195
2.53689
2.49783
2.45673
2.41074
2.36029
2.30384
2.23897
2.16975
2.1087
2.05948
2.01635
1.97549
1.93612
1.89859
1.86256
1.82591
1.78497
1.73814
1.69431
1.66039
1.63176
1.60394
1.57502
1.54482
1.51375
1.48317
1.45178
1.42181
1.4007
1.38617
1.367
1.35516
1.35173
1.35527
1.36261
1.3685
1.37579
1.38299
1.39041
1.38728
1.38732
1.3957
1.4143
1.42803
1.43416
1.43213
1.41759
1.39252
1.37567
1.36275
1.35122
1.34177
1.33169
1.31933
1.30661
1.29195
1.27075
1.24647
1.22359
1.21209
1.20933
1.2108
1.21669
1.21801
1.24425
4.20056
4.04589
3.87561
3.7082
3.54517
3.39425
3.24876
3.09961
2.9634
2.84605
2.73009
2.61254
2.49557
2.40735
2.31494
2.22622
2.13014
2.06094
1.99229
1.92043
1.8499
1.77557
1.81609
2.13964
2.67724
3.08946
3.11504
3.02588
2.90099
2.79616
2.7123
2.64655
2.5908
2.53676
2.48155
2.42574
2.36966
2.31288
2.25253
2.18903
2.13066
2.08044
2.03419
1.98931
1.94709
1.90939
1.87387
1.83559
1.78984
1.73758
1.6951
1.66846
1.64762
1.62692
1.6024
1.57164
1.53318
1.49358
1.46173
1.43263
1.40079
1.36902
1.34985
1.33777
1.32499
1.31964
1.31969
1.31683
1.30605
1.29487
1.29268
1.28431
1.28627
1.30211
1.3294
1.3673
1.38728
1.38611
1.36784
1.34886
1.33498
1.31961
1.31019
1.30781
1.30894
1.30666
1.29564
1.27632
1.25039
1.22554
1.20897
1.19566
1.18602
1.1821
1.17992
1.17009
4.20043
4.15071
3.97888
3.79897
3.64397
3.49347
3.34314
3.19205
3.06586
2.943
2.82353
2.69383
2.59133
2.50183
2.40513
2.31101
2.21455
2.14969
2.06747
1.9998
1.9294
1.99843
2.45502
3.03725
3.32626
3.31373
3.20472
3.08597
2.99038
2.90906
2.82252
2.74332
2.67504
2.61292
2.55104
2.4912
2.43586
2.38426
2.32933
2.26419
2.1954
2.13702
2.08957
2.04613
2.00282
1.96027
1.92031
1.88179
1.84238
1.79927
1.75245
1.71231
1.68461
1.66259
1.64068
1.61474
1.58099
1.5421
1.50484
1.47349
1.44425
1.41438
1.38411
1.35317
1.32622
1.30912
1.30247
1.29376
1.28407
1.28122
1.26661
1.23334
1.21487
1.21319
1.21547
1.22985
1.25063
1.27793
1.29091
1.29494
1.29555
1.28732
1.27345
1.26922
1.26883
1.26795
1.26648
1.2594
1.2497
1.23498
1.21408
1.19584
1.18137
1.16811
1.15893
1.1402
3.80104
4.15867
4.08061
3.90273
3.74014
3.59203
3.43588
3.29209
3.16518
3.04445
2.91442
2.7795
2.6869
2.59591
2.50215
2.38909
2.30497
2.22498
2.15261
2.09957
2.24199
2.7991
3.45859
3.5781
3.53386
3.43121
3.30541
3.20139
3.12283
3.03371
2.92806
2.83017
2.75336
2.68836
2.62687
2.56813
2.51341
2.45972
2.39987
2.32882
2.2538
2.19051
2.14131
2.099
2.05777
2.01472
1.96932
1.92245
1.87826
1.83937
1.80122
1.76246
1.7273
1.69814
1.67297
1.64757
1.61972
1.58744
1.54444
1.49745
1.46715
1.44508
1.42163
1.39839
1.3719
1.33646
1.3098
1.29336
1.27764
1.2682
1.25931
1.23969
1.21016
1.18716
1.17473
1.17025
1.17026
1.17744
1.18074
1.18372
1.19556
1.20982
1.20871
1.20158
1.20074
1.20166
1.20484
1.20858
1.21339
1.21332
1.20697
1.19859
1.18443
1.16609
1.14883
1.12125
2.52683
3.91585
4.1169
4.01559
3.84564
3.68611
3.53916
3.39719
3.25795
3.13514
3.0112
2.88511
2.77708
2.68014
2.5844
2.48311
2.38658
2.29589
2.29501
2.55257
3.24152
3.83825
3.87722
3.75031
3.61771
3.51094
3.4226
3.34307
3.25756
3.14893
3.02802
2.92028
2.83805
2.77023
2.70761
2.64796
2.58987
2.52941
2.46097
2.38461
2.31356
2.25628
2.20654
2.1595
2.11362
2.06684
2.01759
1.96574
1.91562
1.87267
1.83614
1.80176
1.76722
1.73345
1.70314
1.67597
1.65145
1.62948
1.60322
1.56449
1.51555
1.47449
1.44796
1.42825
1.40834
1.37965
1.34255
1.3122
1.29012
1.27368
1.26072
1.24581
1.21733
1.18596
1.16953
1.161
1.15545
1.14777
1.13755
1.12608
1.11937
1.11698
1.11509
1.1126
1.1081
1.10741
1.11584
1.13637
1.14685
1.15126
1.16032
1.16603
1.16322
1.14957
1.1319
1.10645
1.57124
2.79718
3.96421
4.06911
3.96386
3.79114
3.63475
3.49551
3.36747
3.23549
3.1012
2.97773
2.88004
2.77831
2.66904
2.56956
2.46454
2.51866
2.9421
3.7334
4.24209
4.23067
4.07421
3.89134
3.72439
3.61316
3.52963
3.44452
3.34684
3.23924
3.12841
3.02534
2.9364
2.85906
2.78895
2.72319
2.6582
2.58926
2.51381
2.43793
2.3745
2.32238
2.27252
2.22198
2.17119
2.11893
2.06531
2.01327
1.96597
1.92197
1.87931
1.83936
1.80361
1.7704
1.73633
1.69994
1.66628
1.64134
1.62221
1.60205
1.56985
1.53371
1.49519
1.45203
1.41876
1.39502
1.374
1.35072
1.32675
1.30318
1.27774
1.24736
1.21673
1.19453
1.17837
1.16646
1.15586
1.14432
1.13134
1.11413
1.09394
1.08085
1.07348
1.06633
1.05516
1.0404
1.03641
1.04205
1.05713
1.06562
1.07907
1.09739
1.10145
1.09694
1.08734
1.07787
1.40518
1.67789
3.0104
3.96606
4.01968
3.90881
3.74602
3.59834
3.46276
3.32875
3.20268
3.08656
2.97688
2.86065
2.75941
2.66212
2.78242
3.43056
4.23796
4.58094
4.49575
4.31965
4.14733
3.996
3.85658
3.73524
3.62864
3.52367
3.41886
3.31671
3.21729
3.12128
3.02968
2.94428
2.86515
2.79006
2.71615
2.64164
2.56819
2.50066
2.44173
2.38683
2.33084
2.2743
2.21962
2.16506
2.11072
2.06065
2.01567
1.97115
1.92405
1.87691
1.83605
1.80344
1.77464
1.74473
1.71171
1.67541
1.6358
1.6024
1.58906
1.57434
1.54338
1.49685
1.45376
1.41688
1.38625
1.36954
1.35631
1.3409
1.31799
1.28032
1.23168
1.19282
1.18108
1.17512
1.16647
1.15336
1.13596
1.11506
1.09262
1.07325
1.06119
1.05038
1.03987
1.02357
0.999499
0.992309
0.993325
0.995758
0.998748
1.009
1.01917
1.02139
1.01471
1.01349
1.40004
1.41181
1.79095
3.1633
3.94374
3.97181
3.8614
3.70248
3.56034
3.43563
3.29683
3.1831
3.06604
2.96279
2.88055
3.12691
3.99274
4.75921
5.00241
4.90722
4.66655
4.42736
4.25045
4.10123
3.96883
3.84816
3.73431
3.62258
3.51294
3.40726
3.30546
3.20742
3.11291
3.02231
2.93561
2.85168
2.77093
2.69545
2.62774
2.56749
2.50986
2.44893
2.38228
2.31449
2.25424
2.20296
2.15681
2.11318
2.06883
2.01988
1.96551
1.90879
1.85716
1.82147
1.7994
1.77789
1.75032
1.7179
1.68236
1.63667
1.59337
1.56234
1.53698
1.51098
1.48652
1.45952
1.43057
1.4113
1.39426
1.36953
1.33575
1.29854
1.2571
1.22215
1.19841
1.17921
1.16491
1.15577
1.14542
1.12782
1.10172
1.07654
1.06161
1.04987
1.03367
1.01367
0.991401
0.978248
0.974121
0.973261
0.969799
0.963051
0.958629
0.949388
0.938893
0.937816
1.40001
1.40011
1.42189
1.89895
3.2577
3.91679
3.92743
3.82091
3.66525
3.5211
3.40379
3.28049
3.15517
3.13408
3.56943
4.66007
5.29054
5.25775
5.14391
4.97324
4.77745
4.57395
4.39056
4.22437
4.07966
3.95243
3.83467
3.72066
3.60895
3.49978
3.39291
3.28895
3.18843
3.09145
2.9982
2.90824
2.82379
2.7492
2.68402
2.62497
2.56759
2.50598
2.43666
2.36248
2.29206
2.23334
2.18795
2.15048
2.11197
2.06363
2.0044
1.94814
1.89633
1.84621
1.80557
1.78092
1.76538
1.75045
1.7219
1.67201
1.62147
1.58596
1.55427
1.52121
1.49057
1.46068
1.42726
1.39723
1.37884
1.36017
1.33526
1.30777
1.28286
1.25517
1.2241
1.19532
1.17108
1.1553
1.14477
1.1312
1.11347
1.09687
1.08039
1.05773
1.02356
0.995784
0.982318
0.974373
0.969737
0.967772
0.963128
0.954432
0.945
0.932292
0.92135
0.900584
1.40001
1.40001
1.40026
1.43483
1.98653
3.31103
3.88385
3.87854
3.78609
3.64041
3.49062
3.34455
3.3841
4.10895
5.28052
5.87026
5.81939
5.52973
5.23702
5.01957
4.86089
4.70105
4.52608
4.35201
4.19618
4.05784
3.93027
3.80885
3.69152
3.57872
3.47045
3.36578
3.26384
3.16399
3.0665
2.97227
2.88411
2.80496
2.73314
2.66616
2.60325
2.54228
2.47922
2.41286
2.34682
2.2856
2.22983
2.17732
2.12699
2.08003
2.03134
1.97811
1.92963
1.88497
1.84447
1.8111
1.77744
1.7373
1.7046
1.68753
1.66335
1.63199
1.59824
1.56085
1.52079
1.48333
1.44409
1.40305
1.37947
1.3695
1.36309
1.35123
1.32826
1.29345
1.25358
1.21728
1.18388
1.16378
1.15669
1.15305
1.14772
1.13472
1.11309
1.07791
1.02811
0.994511
0.983632
0.976927
0.972519
0.968676
0.961424
0.951221
0.940614
0.929432
0.914801
0.887231
1.40001
1.40001
1.40001
1.40051
1.44822
2.04534
3.34337
3.84213
3.83189
3.75537
3.55928
3.61385
4.59216
6.06707
6.21371
6.06873
5.88579
5.66274
5.40102
5.15359
4.96797
4.80799
4.64634
4.4823
4.32251
4.17017
4.0263
3.89133
3.76514
3.64748
3.53726
3.43176
3.32865
3.22792
3.13031
3.03428
2.9403
2.85378