/*--------------------------------*- C++ -*----------------------------------*\
  =========                 |
  \\      /  F ield         | OpenFOAM: The Open Source CFD Toolbox
   \\    /   O peration     | Website:  https://openfoam.org
    \\  /    A nd           | Version:  7
     \\/     M anipulation  |
\*---------------------------------------------------------------------------*/
FoamFile
{
    version     2.0;
    format      ascii;
    class       volScalarField;
    location    "2.2";
    object      T;
}
// * * * * * * * * * * * * * * * * * * * * * * * * * * * * * * * * * * * * * //

dimensions      [0 0 0 1 0 0 0];

internalField   nonuniform List<scalar> 
16128
(
1
1
1
1
1
1
1
1
1
1
1
1
1
1
1
1
1
1
1
1
1
1
1
1
1.5032
2.55418
2.70711
2.71804
2.72846
2.73525
2.74094
2.74675
2.75363
2.76152
2.76915
2.77508
2.77899
2.7818
2.7849
2.78938
2.79546
2.80223
2.80891
2.81585
2.82398
2.83272
2.83984
2.84314
1
1
1
1
1
1
1
1
1
1
1
1
1
1
1
1
1
1
1
1
1
1
1
1
1.49019
2.54883
2.70709
2.71818
2.72837
2.73497
2.74058
2.74635
2.75321
2.76107
2.76866
2.77455
2.77839
2.78115
2.7842
2.78866
2.79474
2.8015
2.80815
2.81505
2.82314
2.8318
2.8389
2.84219
1
1
1
1
1
1
1
1
1
1
1
1
1
1
1
1
1
1
1
1
1
1
1
1
1.45313
2.53514
2.70581
2.71655
2.7269
2.73353
2.73927
2.74525
2.75228
2.76023
2.76784
2.77367
2.7774
2.78004
2.78303
2.7875
2.79365
2.80048
2.80718
2.81407
2.82204
2.83051
2.83746
2.84066
1
1
1
1
1
1
1
1
1
1
1
1
1
1
1
1
1
1
1
1
1
1
1
1
1.40111
2.51448
2.70418
2.71359
2.72392
2.73066
2.73671
2.74309
2.75053
2.75879
2.76656
2.7724
2.776
2.77848
2.78131
2.7857
2.79187
2.79879
2.80559
2.81254
2.82043
2.82867
2.83539
2.83846
1
1
1
1
1
1
1
1
1
1
1
1
1
1
1
1
1
1
1
1
1
1
1
1
1.33622
2.48655
2.7033
2.7098
2.71955
2.72632
2.7328
2.73979
2.74785
2.75661
2.7647
2.77065
2.77419
2.7765
2.77912
2.78337
2.78954
2.79655
2.80347
2.81051
2.81829
2.82622
2.83263
2.8355
1
1
1
1
1
1
1
1
1
1
1
1
1
1
1
1
1
1
1
1
1
1
1
1
1.25471
2.44587
2.70197
2.70565
2.71459
2.72131
2.72827
2.73593
2.74467
2.75397
2.76242
2.76857
2.77212
2.77433
2.77676
2.78082
2.78684
2.79377
2.80065
2.80769
2.81533
2.82297
2.82908
2.83178
1
1
1
1
1
1
1
1
1
1
1
1
1
1
1
1
1
1
1
1
1
1
1
1
1.1561
2.39013
2.6991
2.70167
2.70968
2.71608
2.72339
2.73167
2.741
2.75071
2.75941
2.7657
2.76932
2.77144
2.7737
2.77752
2.78331
2.79006
2.79682
2.80379
2.8113
2.81887
2.82483
2.82752
1
1
1
1
1
1
1
1
1
1
1
1
1
1
1
1
1
1
1
1
1
1
1
1
1.04675
2.32675
2.69795
2.69968
2.706
2.71204
2.71946
2.72813
2.73787
2.74783
2.75666
2.76295
2.76641
2.76824
2.77013
2.77348
2.77878
2.78516
2.79167
2.79848
2.80585
2.8134
2.81925
2.82188
1
1
1
1
1
1
1
1
1
1
1
1
1
1
1
1
1
1
1
1
1
1
1
1
1.00133
2.25332
2.69386
2.69583
2.70094
2.70703
2.71456
2.72343
2.73331
2.74331
2.75207
2.75822
2.76161
2.76343
2.7653
2.76857
2.77366
2.77972
2.78583
2.79222
2.79916
2.8066
2.81234
2.81495
1
1
1
1
1
1
1
1
1
1
1
1
1
1
1
1
1
1
1
1
1
1
1
1
1
2.15468
2.6863
2.69379
2.69872
2.70497
2.71222
2.72073
2.73027
2.73995
2.74833
2.75403
2.75702
2.75853
2.76012
2.76306
2.76778
2.77345
2.77915
2.78495
2.79121
2.79825
2.80376
2.80614
1
1
1
1
1
1
1
1
1
1
1
1
1
1
1
1
1
1
1
1
1
1
1
1
1
2.02326
2.66661
2.68963
2.69521
2.70189
2.709
2.71716
2.72624
2.73544
2.74336
2.74857
2.75114
2.7523
2.75356
2.75616
2.7605
2.76576
2.77085
2.77569
2.7811
2.78773
2.79316
2.79566
1
1
1
1
1
1
1
1
1
1
1
1
1
1
1
1
1
1
1
1
1
1
1
1
1
1.86133
2.62851
2.68201
2.68927
2.69667
2.704
2.71212
2.72107
2.73013
2.73786
2.74276
2.7449
2.74559
2.74633
2.74829
2.75196
2.75665
2.76102
2.76497
2.76964
2.77526
2.77972
2.78121
1
1
1
1
1
1
1
1
1
1
1
1
1
1
1
1
1
1
1
1
1
1
1
1
1
1.66486
2.56334
2.66941
2.67917
2.68794
2.69557
2.70374
2.71286
2.72235
2.73059
2.73589
2.73797
2.73818
2.73822
2.73929
2.74209
2.74583
2.74887
2.75124
2.75398
2.75801
2.76152
2.76359
1
1
1
1
1
1
1
1
1
1
1
1
1
1
1
1
1
1
1
1
1
1
1
1
1
1.40208
2.46144
2.65795
2.66547
2.67583
2.68404
2.69225
2.70138
2.7113
2.7205
2.72699
2.72973
2.72973
2.72928
2.72953
2.73093
2.73299
2.73443
2.73525
2.73635
2.73827
2.73848
2.73474
1
1
1
1
1
1
1
1
1
1
1
1
1
1
1
1
1
1
1
1
1
1
1
1
1
1.10159
2.35439
2.658
2.65457
2.6608
2.66854
2.67721
2.68658
2.69677
2.7069
2.71488
2.71914
2.71962
2.71896
2.71824
2.71793
2.7182
2.7178
2.71614
2.71264
2.70723
2.70129
2.69496
1
1
1
1
1
1
1
1
1
1
1
1
1
1
1
1
1
1
1
1
1
1
1
1
1
1.0027
2.25044
2.64586
2.6436
2.65044
2.65767
2.66459
2.6717
2.68033
2.69032
2.69927
2.70546
2.70737
2.70679
2.7052
2.70334
2.70151
2.69838
2.69265
2.68363
2.6732
2.66605
2.67103
1
1
1
1
1
1
1
1
1
1
1
1
1
1
1
1
1
1
1
1
1
1
1
1
1
1
2.07796
2.6373
2.64589
2.64988
2.65279
2.65541
2.65908
2.66477
2.67282
2.68112
2.68857
2.69219
2.69201
2.69012
2.68685
2.68271
2.67663
2.66711
2.65137
2.62505
2.56714
2.44773
1
1
1
1
1
1
1
1
1
1
1
1
1
1
1
1
1
1
1
1
1
1
1
1
1
1
1.83293
2.58564
2.64439
2.64914
2.65199
2.65232
2.65272
2.65439
2.65866
2.66435
2.6709
2.67507
2.67515
2.6731
2.66859
2.66212
2.65279
2.63813
2.61388
2.56847
2.49843
2.3118
1
1
1
1
1
1
1
1
1
1
1
1
1
1
1
1
1
1
1
1
1
1
1
1
1
1
1.48281
2.46258
2.63453
2.64045
2.646
2.64736
2.64728
2.64747
2.64883
2.65109
2.65473
2.65751
2.65717
2.65448
2.6487
2.6399
2.62744
2.6082
2.57762
2.52493
2.4343
2.23702
1
1
1
1
1
1
1
1
1
1
1
1
1
1
1
1
1
1
1
1
1
1
1
1
1
1
1.0683
2.31572
2.62815
2.62974
2.63455
2.63841
2.64003
2.64011
2.64019
2.64023
2.64094
2.64126
2.63977
2.63566
2.62811
2.61686
2.60128
2.5786
2.54301
2.48825
2.38648
2.21932
1
1
1
1
1
1
1
1
1
1
1
1
1
1
1
1
1
1
1
1
1
1
1
1
1
1
1.00114
2.16056
2.5894
2.60336
2.61386
2.62208
2.62723
2.62965
2.63023
2.62976
2.62888
2.62706
2.62361
2.61756
2.60796
2.59423
2.57561
2.55008
2.51232
2.45759
2.35842
2.22481
1
1
1
1
1
1
1
1
1
1
1
1
1
1
1
1
1
1
1
1
1
1
1
1
1
1
0.999992
1.8841
2.54778
2.58939
2.60059
2.60849
2.61392
2.61729
2.61869
2.61839
2.61712
2.6142
2.60916
2.60124
2.58961
2.57348
2.55202
2.52381
2.48535
2.43134
2.3426
2.23696
1
1
1
1
1
1
1
1
1
1
1
1
1
1
1
1
1
1
1
1
1
1
1
1
1
1
0.999998
1.46171
2.42975
2.57789
2.58591
2.59426
2.59938
2.60235
2.60395
2.60415
2.60314
2.60021
2.59474
2.58595
2.57299
2.55511
2.53163
2.50131
2.46169
2.40903
2.33274
2.2466
1
1
1
1
1
1
1
1
1
1
1
1
1
1
1
1
1
1
1
1
1
1
1
1
1
1
1
1.05737
2.27557
2.57922
2.57604
2.57873
2.58305
2.58551
2.58702
2.58764
2.58692
2.58445
2.57937
2.57076
2.55765
2.53907
2.51448
2.48309
2.44261
2.39177
2.32589
2.25478
1
1
1
1
1
1
1
1
1
1
1
1
1
1
1
1
1
1
1
1
1
1
1
1
1
1
1
1.00066
2.05236
2.53525
2.55674
2.56589
2.56887
2.56975
2.57026
2.5702
2.56933
2.56696
2.56247
2.55474
2.54249
2.52454
2.50007
2.46826
2.42834
2.37941
2.32114
2.25986
1
1
1
1
1
1
1
1
1
1
1
1
1
1
1
1
1
1
1
1
1
1
1
1
1
1
1
0.999996
1.62052
2.43961
2.54716
2.55156
2.55534
2.55691
2.55638
2.55492
2.55261
2.54926
2.54445
2.53724
2.5261
2.50972
2.48677
2.45616
2.41777
2.37135
2.31895
2.26396
1
1
1
1
1
1
1
1
1
1
1
1
1
1
1
1
1
1
1
1
1
1
1
1
1
1
1
0.999999
1.10529
2.2812
2.54201
2.53605
2.53917
2.54292
2.54241
2.5404
2.53688
2.53233
2.52657
2.5191
2.50861
2.494
2.47296
2.44486
2.40885
2.36586
2.31863
2.26747
1
1
1
1
1
1
1
1
1
1
1
1
1
1
1
1
1
1
1
1
1
1
1
1
1
1
1
1
1.00254
2.06583
2.49445
2.51101
2.52425
2.52822
2.52837
2.52672
2.52268
2.51686
2.50969
2.50107
2.49014
2.47689
2.45758
2.43268
2.40027
2.36167
2.31927
2.27145
1
1
1
1
1
1
1
1
1
1
1
1
1
1
1
1
1
1
1
1
1
1
1
1
1
1
1
1
0.999988
1.58878
2.39571
2.49461
2.50959
2.51469
2.51569
2.51431
2.51019
2.50328
2.49466
2.48427
2.4725
2.45881
2.44087
2.41898
2.39055
2.35679
2.31898
2.27483
1
1
1
1
1
1
1
1
1
1
1
1
1
1
1
1
1
1
1
1
1
1
1
1
1
1
1
1
0.999997
1.09104
2.23013
2.48893
2.48988
2.49555
2.49951
2.49933
2.49622
2.48952
2.48043
2.46909
2.45639
2.44178
2.42445
2.40461
2.37953
2.35022
2.31654
2.27743
1
1
1
1
1
1
1
1
1
1
1
1
1
1
1
1
1
1
1
1
1
1
1
1
1
1
1
1
0.999999
1.00168
1.91957
2.43623
2.46579
2.47266
2.48032
2.48324
2.48087
2.47517
2.4666
2.45534
2.442
2.42655
2.40932
2.39036
2.36742
2.34177
2.31165
2.27706
1
1
1
1
1
1
1
1
1
1
1
1
1
1
1
1
1
1
1
1
1
1
1
1
1
1
1
1
1
0.999995
1.31658
2.30481
2.46776
2.45943
2.46257
2.46486
2.46349
2.45958
2.45288
2.44271
2.4295
2.41376
2.39645
2.3775
2.35586
2.33245
2.30532
2.27503
1
1
1
1
1
1
1
1
1
1
1
1
1
1
1
1
1
1
1
1
1
1
1
1
1
1
1
1
1
0.999999
1.02263
2.13031
2.4413
2.43822
2.44118
2.44241
2.44241
2.44106
2.43705
2.42901
2.41685
2.40163
2.38456
2.36568
2.34485
2.32256
2.29765
2.27047
1
1
1
1
1
1
1
1
1
1
1
1
1
1
1
1
1
1
1
1
1
1
1
1
1
1
1
1
1
1
1.00007
1.64755
2.35589
2.42688
2.42704
2.42686
2.42582
2.42423
2.42075
2.41392
2.40338
2.38959
2.37353
2.35522
2.33496
2.31329
2.28982
2.2645
1
1
1
1
1
1
1
1
1
1
1
1
1
1
1
1
1
1
1
1
1
1
1
1
1
1
1
1
1
1
1
1.10923
2.18616
2.42541
2.41685
2.41337
2.40992
2.40681
2.40281
2.39677
2.38801
2.3763
2.36197
2.34491
2.32546
2.30461
2.28214
2.2581
1
1
1
1
1
1
1
1
1
1
1
1
1
1
1
1
1
1
1
1
1
1
1
1
1
1
1
1
1
1
1
1.00236
1.80667
2.35866
2.39666
2.3957
2.39478
2.39221
2.38767
2.38124
2.37292
2.36248
2.34977
2.33423
2.31614
2.29653
2.27503
2.25216
1
1
1
1
1
1
1
1
1
1
1
1
1
1
1
1
1
1
1
1
1
1
1
1
1
1
1
1
1
1
1
1
1.19451
2.19546
2.39551
2.38568
2.38271
2.37907
2.37368
2.36671
2.35833
2.34847
2.3369
2.32294
2.30654
2.2884
2.26819
2.24664
1
1
1
1
1
1
1
1
1
1
1
1
1
1
1
1
1
1
1
1
1
1
1
1
1
1
1
1
1
1
1
1
1.00801
1.8816
2.342
2.36711
2.36559
2.36289
2.35851
2.35236
2.34446
2.3349
2.32401
2.31138
2.29659
2.27988
2.26118
2.24109
1
1
1
1
1
1
1
1
1
1
1
1
1
1
1
1
1
1
1
1
1
1
1
1
1
1
1
1
1
1
1
1
1.00001
1.25562
2.18076
2.36192
2.35422
2.35062
2.34582
2.33949
2.33154
2.32225
2.31186
2.3
2.28631
2.27079
2.25359
2.23502
1
1
1
1
1
1
1
1
1
1
1
1
1
1
1
1
1
1
1
1
1
1
1
1
1
1
1
1
1
1
1
1
1
1.01409
1.8842
2.31032
2.33916
2.33509
2.33054
2.32475
2.31751
2.309
2.29927
2.28817
2.27547
2.26118
2.24534
2.22808
1
1
1
1
1
1
1
1
1
1
1
1
1
1
1
1
1
1
1
1
1
1
1
1
1
1
1
1
1
1
1
1
1
1.00005
1.26914
2.14507
2.32843
2.32193
2.31801
2.31233
2.30534
2.29734
2.28803
2.27739
2.26529
2.25183
2.23701
2.22082
1
1
1
1
1
1
1
1
1
1
1
1
1
1
1
1
1
1
1
1
1
1
1
1
1
1
1
1
1
1
1
1
1
1
1.01557
1.82332
2.26931
2.3096
2.30392
2.29802
2.29161
2.28445
2.27586
2.2659
2.25461
2.24198
2.22813
2.21317
1
1
1
1
1
1
1
1
1
1
1
1
1
1
1
1
1
1
1
1
1
1
1
1
1
1
1
1
1
1
1
1
1
1
1.00008
1.23204
2.09274
2.29509
2.28979
2.2854
2.27951
2.27262
2.26438
2.25497
2.24453
2.23284
2.21981
2.20576
1
1
1
1
1
1
1
1
1
1
1
1
1
1
1
1
1
1
1
1
1
1
1
1
1
1
1
1
1
1
1
1
1
1
1
1.01138
1.69317
2.21253
2.27673
2.26913
2.26386
2.25822
2.25135
2.24318
2.23384
2.22333
2.21135
2.19788
1
1
1
1
1
1
1
1
1
1
1
1
1
1
1
1
1
1
1
1
1
1
1
1
1
1
1
1
1
1
1
1
1
1
1
1.00006
1.15433
2.02316
2.26502
2.25333
2.24943
2.24477
2.23916
2.23226
2.22387
2.21421
2.20318
2.19045
1
1
1
1
1
1
1
1
1
1
1
1
1
1
1
1
1
1
1
1
1
1
1
1
1
1
1
1
1
1
1
1
1
1
1
1
1.005
1.52698
2.14348
2.23726
2.23202
2.22838
2.22403
2.21858
2.21154
2.20289
2.19298
2.18174
1
1
1
1
1
1
1
1
1
1
1
1
1
1
1
1
1
1
1
1
1
1
1
1
1
1
1
1
1
1
1
1
1
1
1
1
1.00002
1.07756
1.90171
2.22305
2.22118
2.21667
2.2116
2.20634
2.19997
2.19219
2.18318
2.17317
1
1
1
1
1
1
1
1
1
1
1
1
1
1
1
1
1
1
1
1
1
1
1
1
1
1
1
1
1
1
1
1
1
1
1
1
1
1.00138
1.34762
2.06777
2.20801
2.19999
2.19598
2.19122
2.1857
2.17909
2.17126
2.16235
1
1
1
1
1
1
1
1
1
1
1
1
1
1
1
1
1
1
1
1
1
1
1
1
1
1
1
1
1
1
1
1
1
1
1
1
1
1
1.02866
1.69808
2.14043
2.19291
2.18554
2.17988
2.17424
2.16793
2.1606
2.1522
1
1
1
1
1
1
1
1
1
1
1
1
1
1
1
1
1
1
1
1
1
1
1
1
1
1
1
1
1
1
1
1
1
1
1
1
1
1
1.0003
1.16774
1.93659
2.18041
2.17469
2.16881
2.16263
2.15614
2.149
2.14101
1
1
1
1
1
1
1
1
1
1
1
1
1
1
1
1
1
1
1
1
1
1
1
1
1
1
1
1
1
1
1
1
1
1
1
1
1
1
1
1.00616
1.43862
2.05196
2.16162
2.15447
2.14821
2.14229
2.13601
2.12898
1
1
1
1
1
1
1
1
1
1
1
1
1
1
1
1
1
1
1
1
1
1
1
1
1
1
1
1
1
1
1
1
1
1
1
1
1
1
1
1.00004
1.05171
1.7315
2.10401
2.14906
2.14095
2.13346
2.12669
2.11982
1
1
1
1
1
1
1
1
1
1
1
1
1
1
1
1
1
1
1
1
1
1
1
1
1
1
1
1
1
1
1
1
1
1
1
1
1
1
1
1
1.00082
1.20239
1.90669
2.13261
2.13117
2.12412
2.11715
2.10984
1
1
1
1
1
1
1
1
1
1
1
1
1
1
1
1
1
1
1
1
1
1
1
1
1
1
1
1
1
1
1
1
1
1
1
1
1
1
1
1
1
1.00919
1.43019
2.00593
2.11828
2.11276
2.10545
2.09864
1
1
1
1
1
1
1
1
1
1
1
1
1
1
1
1
1
1
1
1
1
1
1
1
1
1
1
1
1
1
1
1
1
1
1
1
1
1
1
1
1
1.00007
1.05117
1.66668
2.05612
2.10727
2.09748
2.08891
1
1
1
1
1
1
1
1
1
1
1
1
1
1
1
1
1
1
1
1
1
1
1
1
1
1
1
1
1
1
1
1
1
1
1
1
1
1
1
1
1
1
1.00085
1.16512
1.83831
2.0765
2.09134
2.08274
1
1
1
1
1
1
1
1
1
1
1
1
1
1
1
1
1
1
1
1
1
1
1
1
1
1
1
1
1
1
1
1
1
1
1
1
1
1
1
1
1
1
1
1.00645
1.34694
1.92687
2.07541
2.07328
1
1
1
1
1
1
1
1
1
1
1
1
1
1
1
1
1
1
1
1
1
1
1
1
1
1
1
1
1
1
1
1
1
1
1
1
1
1
1
1
1
1
1
1.00005
1.03119
1.53376
1.98474
2.06345
1
1
1
1
1
1
1
1
1
1
1
1
1
1
1
1
1
1
1
1
1
1
1
1
1
1
1
1
1
1
1
1
1
1
1
1
1
1
1
1
1
1
1
1
1.00043
1.09523
1.69841
2.01082
1
1
1
1
1
1
1
1
1
1
1
1
1
1
1
1
1
1
1
1
1
1
1
1
1
1
1
1
1
1
1
1
1
1
1
1
1
1
1
1
1
1
1
1
1
1.00249
1.20785
1.81254
1
1
1
1
1
1
1
1
1
1
1
1
1
1
1
1
1
1
1
1
1
1
1
1
1
1
1
1
1
1
1
1
1
1
1
1
1
1
1
1
1
1
1
1
1
1.00001
1.01069
1.3511
1
1
1
1
1
1
1
1
1
1
1
1
1
1
1
1
1
1
1
1
1
1
1
1
1
1
1
1
1
1
1
1
1
1
1
1
1
1
1
1
1
1
1
1
1
1
1.0001
1.03398
1
1
1
1
1
1
1
1
1
1
1
1
1
1
1
1
1
1
1
1
1
1
1
1
1
1
1
1
1
1
1
1
1
1
1
1
1
1
1
1
1
1
1
1
1
1
1
1.00052
1
1
1
1
1
1
1
1
1
1
1
1
1
1
1
1
1
1
1
1
1
1
1
1
1
1
1
1
1
1
1
1
1
1
1
1
1
1
1
1
1
1
1
1
1
1
1
1
1
1
1
1
1
1
1
1
1
1
1
1
1
1
1
1
1
1
1
1
1
1
1
1
1
1
1
1
1
1
1
1
1
1
1
1
1
1
1
1
1
1
1
1
1
1
1
1
1
1
1
1
1
1
1
1
1
1
1
1
1
1
1
1
1
1
1
1
1
1
1
1
1
1
1
1
1
1
1
1
1
1
1
1
1
1
1
1
1
1
1
1
1
1
1
1
1
1
1
1
1
1
1
1
1
1
1
1
1
1
1
1
1
1
1
1
1
1
1
1
1
1
1
1
1
1
1
1
1
1
1
1
1
1
1
1
1
1
1
1
1
1
1
1
1
1
1
1
1
1
1
1
1
1
1
1
1
1
1
1
1
1
1
1
1
1
1
1
1
1
1
1
1
1
1
1
1
1
1
1
1
1
1
1
1
1
1
1
1
1
1
1
1
1
1
1
1
1
1
1
1
1
1
1
1
1
1
1
1
1
1
1
1
1
1
1
1
1
1
1
1
1
1
1
1
1
1
1
1
1
1
1
1
1
1
1
1
1
1
1
1
1
1
1
1
1
1
1
1
1
1
1
1
1
1
1
1
1
1
1
1
1
1
1
1
1
1
1
1
1
1
1
1
1
1
1
1
1
1
1
1
1
1
1
1
1
1
1
1
1
1
1
1
1
1
1
1
1
1
1
1
1
1
1
1
1
1
1
1
1
1
1
1
1
1
1
1
1
1
1
1
1
1
1
1
1
1
1
1
1
1
1
1
1
1
1
1
1
1
1
1
1
1
1
1
1
1
1
1
1
1
1
1
1
1
1
1
1
1
1
1
1
1
1
1
1
1
1
1
1
1
1
1
1
1
1
1
1
1
1
1
1
1
1
1
1
1
1
1
1
1
1
1
1
1
1
1
1
1
1
1
1
1
1
1
1
1
1
1
1
1
1
1
1
1
1
1
1
1
1
1
1
1
1
1
1
1
1
1
1
1
1
1
1
1
1
1
1
1
1
1
1
1
1
1
1
1
1
1
1
1
1
1
1
1
1
1
1
1
1
1
1
1
1
1
1
1
1
1
1
1
1
1
1
1
1
1
1
1
1
1
1
1
1
1
1
1
1
1
1
1
1
1
1
1
1
1
1
1
1
1
1
1
1
1
1
1
1
1
1
1
1
1
1
1
1
1
1
1
1
1
1
1
1
1
1
1
1
1
1
1
1
1
1
1
1
1
1
1
1
1
1
1
1
1
1
1
1
1
1
1
1
1
1
1
1
1
1
1
1
1
1
1
1
1
1
1
1
1
1
1
1
1
1
1
1
1
1
1
1
1
1
1
1
1
1
1
1
1
1
1
1
1
1
1
1
1
1
1
1
1
1
1
1
1
1
1
1
1
1
1
1
1
1
1
1
1
1
1
1
1
1
1
1
1
1
1
1
1
1
1
1
1
1
1
1
1
1
1
1
1
1
1
1
1
1
1
1
1
1
1
1
1
1
1
1
1
1
1
1
1
1
1
1
1
1
1
1
1
1
1
1
1
1
1
1
1
1
1
1
1
1
1
1
1
1
1
1
1
1
1
1
1
1
1
1
1
1
1
1
1
1
1
1
1
1
1
1
1
1
1
1
1
1
1
1
1
1
1
1
1
1
1
1
1
1
1
1
1
1
1
1
1
1
1
1
1
1
1
1
1
1
1
1
1
1
1
1
1
1
1
1
1
1
1
1
1
1
1
1
1
1
1
1
1
1
1
1
1.57736
0.992959
0.529314
0.607683
0.956576
1.05298
1.08684
1.15363
1.25136
1.27068
1.29388
1.354
1.4278
1.47364
1.51506
1.56614
1.6308
1.6522
1.64331
1.63449
1.63535
1.64479
1.67056
1.68257
1.66639
1.63605
1.63532
1.64728
1.66251
1.68383
1.69554
1.6938
1.68634
1.68155
1.68169
1.68534
1.68834
1.68733
1.68364
1.68236
1.68342
1.68137
1.67618
1.67174
1.66819
1.66622
1.66633
1.67075
1.67511
1.67743
1.68051
1.68308
1.68339
1.6829
1.68133
1.68082
1.68148
1.68329
1.68729
1.69134
1.69182
1.69065
1.68775
1.68373
1.68101
1.67921
1.67687
1.67576
1.67582
1.67602
1.67502
1.67352
1.67338
1.67331
1.67253
1.67019
1.66409
1.66205
1.68666
1.82628
2.1709
2.66818
2.79572
2.76275
2.73023
2.71206
2.67082
2.64207
2.624
2.6129
2.60515
2.59671
2.58921
2.58259
2.57251
2.55985
2.54662
2.53381
2.52268
2.51244
2.50215
2.49315
2.48376
2.4722
2.46137
2.44991
2.43679
2.42522
2.41618
2.40846
2.40336
2.39793
2.38937
2.37919
2.3653
2.34954
2.33805
2.33079
2.32538
2.32306
2.32309
2.32088
2.3149
2.30721
2.29636
2.28455
2.27559
2.2687
2.26269
2.25864
2.25612
2.2531
2.25073
2.24771
2.24071
2.23207
2.22836
2.22649
2.2247
2.22357
2.22204
2.21877
2.21377
2.20346
2.18804
2.17858
2.17424
2.17048
2.16696
2.16421
2.16015
2.15426
2.14717
2.13841
2.13053
2.12404
2.11869
2.11383
2.10888
2.10357
2.09535
2.08254
2.07142
2.06463
2.05855
2.05175
2.04484
2.03915
2.03514
2.03075
2.02712
2.02441
2.02202
2.01866
2.01311
2.00511
1.99544
1.98671
1.98075
1.97832
1.97829
1.97976
1.9824
1.98627
1.99156
1.99417
1.99521
1.99489
1.99125
1.98403
1.97539
1.95759
1.82427
1.48418
1.15714
1.06997
1.12307
1.10725
1.05711
1.01417
1.00527
1.01481
1.04422
1.07478
1.13628
1.20408
1.2638
1.32613
1.37188
1.40705
1.44642
1.48156
1.50844
1.53303
1.56292
1.59001
1.59132
1.58381
1.58641
1.59851
1.61383
1.6316
1.64038
1.64147
1.63985
1.63929
1.64212
1.65085
1.65805
1.65788
1.65496
1.65384
1.65507
1.65523
1.65377
1.65134
1.64898
1.64665
1.64618
1.6486
1.65349
1.65619
1.65865
1.66071
1.66238
1.66383
1.66481
1.66558
1.66643
1.66709
1.66842
1.67098
1.67232
1.67219
1.67143
1.6698
1.66731
1.66566
1.66399
1.66235
1.66139
1.66049
1.6603
1.66014
1.66051
1.66136
1.66087
1.65845
1.66051
1.6796
1.81273
1.99673
2.09444
2.37315
2.59442
2.66433
2.66372
2.65663
2.62711
2.60926
2.59833
2.59126
2.58409
2.57376
2.56603
2.56018
2.55271
2.54252
2.53099
2.5198
2.50828
2.49707
2.48661
2.47687
2.46888
2.46037
2.45115
2.44199
2.43104
2.41782
2.40579
2.39666
2.38929
2.3837
2.37754
2.36961
2.36024
2.34925
2.33706
2.3264
2.31949
2.31489
2.31161
2.30782
2.30362
2.298
2.29075
2.28251
2.27352
2.26529
2.25894
2.25388
2.24924
2.24521
2.24209
2.23937
2.23539
2.22959
2.22451
2.22149
2.21945
2.21732
2.21481
2.21157
2.20701
2.19942
2.18827
2.17774
2.17144
2.16731
2.16347
2.15957
2.15522
2.14956
2.14279
2.13469
2.12605
2.11868
2.1126
2.10757
2.10323
2.09849
2.09194
2.08287
2.07267
2.0636
2.05627
2.04942
2.04257
2.03708
2.03243
2.02663
2.02194
2.01792
2.01435
2.01076
2.00625
2.00114
1.99587
1.99024
1.98433
1.9799
1.97864
1.97932
1.98158
1.98477
1.98704
1.98821
1.98844
1.98761
1.98456
1.9793
1.97268
1.95847
1.90972
1.69655
1.53426
1.38498
1.26307
1.19685
1.17177
1.14134
1.09937
1.06147
1.03343
1.03735
1.05695
1.08899
1.1199
1.14116
1.17454
1.2052
1.24622
1.30247
1.34702
1.37956
1.41028
1.44217
1.47929
1.50208
1.51745
1.52781
1.53952
1.55391
1.56182
1.56572
1.56704
1.56763
1.57054
1.57925
1.58736
1.58919
1.58948
1.59087
1.59373
1.59755
1.60233
1.60511
1.60478
1.6031
1.60235
1.60383
1.60928
1.61363
1.61534
1.61623
1.61677
1.61847
1.62117
1.62462
1.62614
1.62598
1.62513
1.62459
1.62444
1.62457
1.62528
1.62601
1.62669
1.62742
1.62743
1.62707
1.62699
1.6264
1.62598
1.62619
1.62667
1.62612
1.62399
1.62983
1.66023
1.7811
1.98755
2.06711
2.03197
2.06438
2.26253
2.49191
2.56702
2.58827
2.56936
2.5579
2.54512
2.53655
2.52777
2.52023
2.51619
2.51162
2.505
2.49688
2.48762
2.4791
2.47045
2.4602
2.44963
2.44014
2.43132
2.42414
2.41801
2.41164
2.40459
2.39577
2.38404
2.37096
2.35979
2.35128
2.34389
2.33811
2.33375
2.32784
2.32053
2.31272
2.30342
2.29334
2.28497
2.2789
2.27347
2.26903
2.26631
2.26333
2.25901
2.25373
2.24668
2.2386
2.23162
2.22616
2.22153
2.21747
2.21471
2.21254
2.21034
2.20801
2.20515
2.20139
2.197
2.19209
2.18627
2.18013
2.174
2.16737
2.161
2.15578
2.151
2.14612
2.14106
2.13538
2.12892
2.1219
2.11425
2.10609
2.09829
2.0919
2.08628
2.08088
2.07596
2.07135
2.06612
2.05914
2.05019
2.04162
2.0345
2.02818
2.02151
2.01529
2.00992
2.00509
2.00029
1.99558
1.99144
1.98775
1.98591
1.98483
1.98362
1.98101
1.97722
1.9751
1.97474
1.97451
1.97394
1.9732
1.97257
1.97198
1.97037
1.96677
1.96096
1.94951
1.99614
1.81347
1.68006
1.58571
1.48292
1.34539
1.28294
1.26489
1.24309
1.21151
1.16735
1.14024
1.13649
1.12076
1.10078
1.10228
1.1237
1.12938
1.13339
1.14905
1.18173
1.23048
1.27939
1.3148
1.35506
1.39544
1.42015
1.43792
1.45315
1.47011
1.4851
1.49214
1.49701
1.5002
1.50584
1.51752
1.52683
1.52819
1.52847
1.52933
1.53201
1.53559
1.54052
1.54413
1.54403
1.54391
1.5447
1.5478
1.55452
1.56089
1.56244
1.56312
1.56325
1.56337
1.56511
1.56844
1.57074
1.57226
1.57236
1.57184
1.57099
1.57075
1.57111
1.57177
1.57272
1.57371
1.57446
1.57531
1.57672
1.57874
1.58085
1.58274
1.58319
1.58255
1.58862
1.6286
1.76128
1.94158
2.02592
2.02147
2.01078
2.00152
2.02625
2.19609
2.37683
2.46703
2.48835
2.49944
2.48741
2.47649
2.46428
2.45917
2.45724
2.45382
2.44766
2.44015
2.43219
2.42453
2.41749
2.40994
2.40102
2.39231
2.38462
2.37749
2.37137
2.36576
2.3599
2.35302
2.34411
2.33262
2.32086
2.31182
2.30497
2.29939
2.29555
2.2922
2.28736
2.28129
2.27329
2.26173
2.24998
2.24181
2.23645
2.23281
2.23088
2.22999
2.22878
2.2261
2.22163
2.21425
2.2057
2.19864
2.19275
2.18789
2.18475
2.18274
2.18114
2.17943
2.17716
2.17383
2.16904
2.16275
2.15606
2.15076
2.1465
2.14199
2.13635
2.12993
2.12454
2.12017
2.11549
2.11015
2.10443
2.09856
2.09237
2.08521
2.0763
2.06658
2.05851
2.05291
2.04963
2.0473
2.04499
2.04128
2.03605
2.02873
2.01977
2.01105
2.00375
1.99748
1.99153
1.98558
1.97964
1.97423
1.97063
1.97003
1.97039
1.97208
1.97334
1.97346
1.97191
1.96658
1.95924
1.95431
1.95223
1.95096
1.94964
1.94838
1.947
1.94456
1.94032
1.93208
2.06515
1.91979
1.78615
1.68626
1.6116
1.53254
1.42904
1.3491
1.34012
1.32129
1.28286
1.23925
1.22179
1.19764
1.16462
1.16401
1.17373
1.17275
1.16037
1.1491
1.14885
1.15373
1.16804
1.19057
1.22531
1.27895
1.32091
1.35612
1.386
1.409
1.42792
1.43635
1.44314
1.4491
1.45577
1.46825
1.48556
1.49286
1.49373
1.49479
1.49603
1.50091
1.50643
1.50843
1.50816
1.50804
1.50936
1.51339
1.52048
1.52591
1.52608
1.52608
1.5248
1.52173
1.5215
1.52321
1.52673
1.53245
1.5345
1.53428
1.53359
1.53191
1.53113
1.53114
1.53153
1.53222
1.53263
1.53308
1.5342
1.53598
1.53866
1.54035
1.54268
1.55058
1.59374
1.76057
1.92373
1.989
2.00748
2.00428
2.00275
1.99571
1.98274
2.00031
2.11444
2.29099
2.39807
2.43605
2.45355
2.44566
2.43189
2.42055
2.41327
2.40831
2.40243
2.3956
2.38908
2.38197
2.37489
2.36774
2.35974
2.35111
2.34364
2.3372
2.33119
2.32567
2.3199
2.3133
2.30554
2.2957
2.2841
2.2746
2.26892
2.26473
2.26178
2.25919
2.25434
2.24825
2.24054
2.22914
2.21658
2.20777
2.20285
2.20004
2.19867
2.19781
2.19615
2.19382
2.19036
2.18409
2.17489
2.16667
2.16137
2.1579
2.15529
2.15269
2.14937
2.14503
2.14071
2.13674
2.13224
2.12728
2.12298
2.11946
2.11606
2.11208
2.1064
2.09847
2.0906
2.08551
2.0816
2.07761
2.07354
2.06904
2.06389
2.0581
2.04992
2.03829
2.028
2.02292
2.02009
2.01782
2.01617
2.01463
2.0116
2.00711
2.00059
1.9912
1.98124
1.97361
1.96728
1.96084
1.95454
1.9507
1.95005
1.95018
1.95144
1.95373
1.95532
1.95604
1.95596
1.95244
1.94151
1.92945
1.92514
1.92386
1.92264
1.92102
1.91843
1.91489
1.91196
1.9064
2.1136
1.98918
1.88561
1.78845
1.68884
1.62577
1.55475
1.46941
1.42758
1.41016
1.37748
1.32044
1.29611
1.28125
1.24619
1.23354
1.23679
1.23535
1.21899
1.19184
1.17103
1.16844
1.17122
1.17409
1.17778
1.1917
1.21112
1.23642
1.27344
1.30817
1.3465
1.37559
1.39724
1.41453
1.42449
1.43719
1.45677
1.47001
1.47424
1.47611
1.47524
1.47806
1.48261
1.48485
1.48745
1.48966
1.49136
1.4944
1.49928
1.50431
1.50585
1.50573
1.50527
1.502
1.50022
1.50116
1.50525
1.51343
1.51702
1.51701
1.51664
1.51468
1.51246
1.51106
1.50982
1.509
1.50856
1.5085
1.50913
1.51054
1.51343
1.51828
1.5264
1.57001
1.73583
1.93355
1.98438
1.99292
1.99352
1.99452
1.99399
1.98984
1.9789
1.97098
1.97884
2.05386
2.22075
2.34713
2.41067
2.4204
2.41238
2.40264
2.39228
2.38406
2.37674
2.36947
2.3636
2.358
2.35197
2.34511
2.33791
2.3294
2.31982
2.31146
2.30498
2.29917
2.2937
2.28791
2.28113
2.27298
2.2638
2.25473
2.24742
2.24244
2.23858
2.23515
2.23058
2.22468
2.21723
2.20789
2.19872
2.19084
2.1839
2.1784
2.17453
2.17191
2.16968
2.16731
2.16427
2.1593
2.15138
2.14271
2.1373
2.13381
2.13073
2.12759
2.12363
2.11788
2.11047
2.10401
2.0996
2.09614
2.09317
2.09018
2.08698
2.08343
2.0784
2.07157
2.06357
2.05584
2.05051
2.04691
2.04348
2.04032
2.03655
2.03177
2.02428
2.01407
2.00474
1.99796
1.99335
1.99033
1.98808
1.98679
1.9854
1.98257
1.97902
1.97312
1.96249
1.95072
1.94218
1.93596
1.93214
1.93103
1.93079
1.93113
1.93222
1.93328
1.93397
1.93455
1.93424
1.93044
1.92108
1.9086
1.89943
1.89582
1.89417
1.89204
1.88898
1.88565
1.88323
1.87951
2.148
2.04433
1.95379
1.86462
1.77241
1.70637
1.64916
1.57163
1.5036
1.48211
1.45853
1.4122
1.37033
1.34975
1.3199
1.29279
1.28962
1.28699
1.27289
1.24783
1.22085
1.21359
1.21417
1.21093
1.20191
1.1995
1.19867
1.19659
1.19968
1.20945
1.23263
1.26926
1.30773
1.34887
1.3817
1.40235
1.42203
1.44347
1.46129
1.46558
1.46385
1.46358
1.46609
1.47046
1.47662
1.48238
1.48485
1.4863
1.48813
1.49179
1.49459
1.49511
1.49516
1.49457
1.49291
1.49323
1.49566
1.50178
1.50594
1.5063
1.50622
1.50479
1.50288
1.50185
1.50158
1.50119
1.50075
1.50088
1.50164
1.50322
1.50678
1.51781
1.57718
1.73367
1.92963
1.99156
1.99357
1.99109
1.98803
1.98768
1.98542
1.98409
1.97764
1.97096
1.96647
1.96938
2.01582
2.15102
2.30668
2.38468
2.38962
2.39244
2.38563
2.37692
2.36716
2.35791
2.35108
2.34568
2.34131
2.33649
2.32982
2.32126
2.31081
2.30066
2.29292
2.2867
2.28091
2.275
2.26854
2.26147
2.25466
2.24804
2.24087
2.23377
2.22815
2.22334
2.21803
2.21153
2.20412
2.19671
2.19063
2.18521
2.17905
2.17146
2.16349
2.15724
2.15341
2.15089
2.14803
2.14373
2.13763
2.13029
2.12384
2.11933
2.11524
2.11106
2.10638
2.1003
2.09185
2.08317
2.07804
2.07432
2.071
2.06783
2.06407
2.05987
2.05528
2.0505
2.04521
2.03873
2.03161
2.02629
2.02285
2.02019
2.01642
2.01034
2.00253
1.99561
1.9898
1.98363
1.97665
1.97081
1.96739
1.96503
1.96407
1.96337
1.96065
1.95517
1.9457
1.93449
1.92561
1.92075
1.91859
1.91737
1.91643
1.91565
1.91535
1.91543
1.91566
1.91434
1.91046
1.90457
1.89799
1.89133
1.884
1.87592
1.86937
1.86529
1.86268
1.85996
1.8579
1.85559
2.17153
2.08551
2.00842
1.92765
1.84204
1.7768
1.72174
1.66144
1.59527
1.5484
1.51731
1.48138
1.4427
1.41824
1.39522
1.36636
1.34608
1.3348
1.32458
1.30589
1.27726
1.25683
1.25227
1.25136
1.24694
1.23411
1.22278
1.21502
1.20597
1.2057
1.20784
1.21516
1.22727
1.24663
1.27823
1.31127
1.34471
1.37748
1.40769
1.44003
1.45254
1.45157
1.45274
1.45935
1.46859
1.47823
1.48365
1.48438
1.48371
1.48213
1.48322
1.48541
1.48792
1.49068
1.49203
1.49288
1.49439
1.49629
1.49821
1.49878
1.49889
1.49847
1.49825
1.4985
1.49903
1.49914
1.49963
1.50083
1.50212
1.50424
1.51355
1.59649
1.77482
1.93251
1.99914
1.99658
1.99564
1.99198
1.991
1.98755
1.98161
1.98003
1.97756
1.97151
1.96621
1.96157
1.95743
1.97814
2.08208
2.23964
2.34252
2.37196
2.38126
2.37539
2.36496
2.35464
2.34665
2.34055
2.33662
2.33249
2.32691
2.31932
2.3096
2.29963
2.29039
2.2818
2.27352
2.26614
2.26014
2.25566
2.25186
2.24701
2.24171
2.23506
2.22611
2.21679
2.2086
2.2015
2.1956
2.19106
2.18708
2.18308
2.17855
2.17275
2.16492
2.15532
2.1467
2.14021
2.13652
2.13394
2.13024
2.1242
2.11679
2.11085
2.106
2.1012
2.09607
2.09024
2.08314
2.07479
2.06732
2.06215
2.05796
2.05341
2.04862
2.04413
2.0406
2.03795
2.03525
2.0318
2.02665
2.01914
2.01066
2.00267
1.99649
1.99181
1.98734
1.98294
1.9793
1.97525
1.96985
1.96308
1.95685
1.95299
1.95023
1.94661
1.94226
1.93749
1.93136
1.92509
1.92001
1.91598
1.91276
1.91034
1.90843
1.90668
1.9049
1.90208
1.897
1.89165
1.88655
1.88238
1.87973
1.8774
1.87386
1.86683
1.85551
1.84713
1.84416
1.84171
1.83972
1.83736
2.18712
2.11547
2.04772
1.97323
1.90127
1.84305
1.78346
1.72128
1.66759
1.62187
1.5822
1.54832
1.51047
1.47309
1.45073
1.43444
1.41289
1.38482
1.36422
1.34948
1.33414
1.31628
1.2944
1.28547
1.28549
1.27985
1.26629
1.25447
1.24175
1.22518
1.21916
1.21994
1.22311
1.22443
1.22833
1.2354
1.24829
1.27472
1.30961
1.35096
1.38955
1.41916
1.43758
1.4467
1.456
1.4692
1.47744
1.47816
1.47837
1.47621
1.4745
1.47676
1.48036
1.4859
1.49252
1.49593
1.49636
1.49492
1.49371
1.49372
1.49429
1.49512
1.49599
1.49693
1.49777
1.49851
1.4991
1.50043
1.503
1.51365
1.59465
1.81827
1.94968
2.00735
2.00664
1.99555
1.99051
1.98982
1.98936
1.98762
1.97921
1.9737
1.97078
1.96735
1.96329
1.9588
1.9552
1.94912
1.95711
2.01612
2.16245
2.28367
2.35951
2.36704
2.3623
2.35493
2.34676
2.34017
2.33542
2.33047
2.32511
2.31812
2.30956
2.30058
2.29178
2.28271
2.27327
2.26526
2.25911
2.25424
2.25165
2.2486
2.24337
2.23646
2.22663
2.21529
2.20553
2.19787
2.1922
2.18775
2.18417
2.18102
2.17743
2.17307
2.16721
2.1586
2.14728
2.13742
2.13076
2.12594
2.12189
2.11744
2.11155
2.1047
2.09915
2.09436
2.08958
2.08461
2.07933
2.07321
2.06534
2.05599
2.04655
2.03918
2.03501
2.03268
2.03231
2.03274
2.03237
2.03024
2.02627
2.01812
2.00463
1.99163
1.98338
1.97895
1.97596
1.97367
1.9723
1.96989
1.96616
1.96133
1.95414
1.94515
1.9369
1.9309
1.92663
1.92351
1.9218
1.92048
1.91879
1.91625
1.91284
1.90894
1.90505
1.90104
1.89583
1.8887
1.88109
1.87536
1.87164
1.86967
1.8684
1.86667
1.86436
1.86006
1.85103
1.84021
1.83394
1.83069
1.82891
1.82709
2.20003
2.13824
2.07661
2.01027
1.95036
1.89222
1.83319
1.77824
1.73302
1.6845
1.63656
1.60507
1.57889
1.5425
1.49988
1.47968
1.466
1.44539
1.40931
1.38405
1.37494
1.36495
1.35021
1.33071
1.31963
1.31768
1.31011
1.29502
1.27897
1.26476
1.2521
1.24334
1.23621
1.23099
1.23144
1.23614
1.23507
1.2355
1.23878
1.25047
1.27512
1.31104
1.35398
1.38944
1.41182
1.43076
1.45151
1.46716
1.47138
1.47231
1.46936
1.46896
1.47287
1.47973
1.48983
1.49469
1.49551
1.49553
1.49292
1.49183
1.49242
1.49446
1.49585
1.49637
1.49671
1.49653
1.49668
1.49893
1.51233
1.59633
1.81434
1.9762
2.00934
2.01044
2.00094
1.9908
1.98805
1.98776
1.98752
1.9845
1.9762
1.96759
1.96219
1.96022
1.95895
1.95666
1.9548
1.95119
1.94456
1.94161
1.96879
2.07181
2.22131
2.31662
2.34345
2.35197
2.34731
2.34063
2.33465
2.32798
2.32123
2.31378
2.30673
2.29931
2.29172
2.28427
2.27652
2.2683
2.26026
2.25404
2.24872
2.24379
2.23941
2.23375
2.22576
2.21496
2.20466
2.19715
2.19109
2.18599
2.18199
2.179
2.17624
2.17233
2.16709
2.15978
2.15043
2.13912
2.12831
2.12083
2.11561
2.11108
2.10579
2.0997
2.09375
2.0888
2.08459
2.08072
2.07643
2.07152
2.06516
2.05523
2.0432
2.03436
2.02981
2.02768
2.02764
2.03079
2.03036
2.02822
2.02447
2.01689
2.00387
1.98902
1.97939
1.97422
1.97138
1.9709
1.9725
1.97092
1.9667
1.96149
1.95328
1.94217
1.93162
1.92354
1.91871
1.91673
1.91571
1.91544
1.91587
1.91486
1.91268
1.9092
1.9034
1.89576
1.88756
1.87926
1.87175
1.86632
1.86395
1.86258
1.86248
1.86181
1.85914
1.85475
1.8477
1.84036
1.83332
1.82673
1.82188
1.81582
2.20984
2.15527
2.09816
2.03949
1.98716
1.93412
1.87675
1.82568
1.78374
1.74172
1.69695
1.65413
1.62599
1.59548
1.56242
1.52623
1.50442
1.48701
1.46218
1.43108
1.4076
1.4011
1.39449
1.38192
1.3625
1.34638
1.34004
1.33087
1.31471
1.30127
1.2938
1.28429
1.27448
1.26718
1.26112
1.25472
1.24824
1.24195
1.23479
1.23053
1.23137
1.2367
1.25271
1.28276
1.32043