/*--------------------------------*- C++ -*----------------------------------*\
  =========                 |
  \\      /  F ield         | OpenFOAM: The Open Source CFD Toolbox
   \\    /   O peration     | Website:  https://openfoam.org
    \\  /    A nd           | Version:  7
     \\/     M anipulation  |
\*---------------------------------------------------------------------------*/
FoamFile
{
    version     2.0;
    format      ascii;
    class       volVectorField;
    location    "2.2";
    object      U;
}
// * * * * * * * * * * * * * * * * * * * * * * * * * * * * * * * * * * * * * //

dimensions      [0 1 -1 0 0 0 0];

internalField   nonuniform List<vector> 
16128
(
(3 -1.27365e-16 0)
(3 8.45204e-17 0)
(3 -7.8911e-17 0)
(3 -2.82182e-16 0)
(3 2.47204e-17 0)
(3 -1.6902e-16 0)
(3 1.1284e-16 0)
(3 1.21237e-16 0)
(3 -1.47252e-17 0)
(3 -1.52481e-17 0)
(3 6.0671e-16 0)
(3 1.06429e-15 0)
(3 1.10192e-15 0)
(3 1.47134e-15 0)
(3 1.20295e-15 0)
(3 7.9536e-16 0)
(3 -2.41211e-16 0)
(3 -4.28698e-16 0)
(3 -3.58693e-16 0)
(3 9.731e-17 0)
(3 4.80514e-16 0)
(3 2.18474e-16 0)
(3 -2.71574e-16 0)
(3 -2.78611e-16 0)
(2.47942 0.00516742 0)
(0.880929 0.00794209 0)
(0.729522 0.0132166 0)
(0.699186 0.0133829 0)
(0.666149 0.0132944 0)
(0.634956 0.0133425 0)
(0.603734 0.0136332 0)
(0.57272 0.0138297 0)
(0.542279 0.0137284 0)
(0.512721 0.0135273 0)
(0.483526 0.0138099 0)
(0.453164 0.0148124 0)
(0.420548 0.0158936 0)
(0.386459 0.0162671 0)
(0.35257 0.0158922 0)
(0.319673 0.0154149 0)
(0.287494 0.0152768 0)
(0.25534 0.0156227 0)
(0.222356 0.0164166 0)
(0.187636 0.0176794 0)
(0.150219 0.0191399 0)
(0.10985 0.0206723 0)
(0.0669946 0.0214421 0)
(0.0233366 0.0222593 0)
(3 -3.35591e-16 0)
(3 -2.73646e-16 0)
(3 1.32771e-16 0)
(3 2.38533e-16 0)
(3 5.2612e-17 0)
(3 -1.27617e-16 0)
(3 4.41126e-16 0)
(3 5.6031e-16 0)
(3 5.14277e-16 0)
(3 1.95793e-16 0)
(3 1.13369e-15 0)
(3 1.78487e-15 0)
(3 1.19751e-15 0)
(3 9.49422e-16 0)
(3 6.51741e-16 0)
(3 8.78461e-17 0)
(3 -6.06919e-16 0)
(3 -4.0859e-16 0)
(3 -1.50845e-16 0)
(3 3.2786e-16 0)
(3 5.70198e-16 0)
(3 1.18168e-15 0)
(3 3.79435e-16 0)
(3 9.46783e-17 0)
(2.49627 0.0262975 0)
(0.878275 0.0373924 0)
(0.720096 0.0396477 0)
(0.69018 0.0374208 0)
(0.657882 0.0374866 0)
(0.626931 0.0381182 0)
(0.595801 0.0392027 0)
(0.56505 0.0398661 0)
(0.534983 0.0399334 0)
(0.505493 0.0398826 0)
(0.475901 0.0409877 0)
(0.445079 0.0438525 0)
(0.412352 0.0467862 0)
(0.378662 0.0477512 0)
(0.345509 0.0468739 0)
(0.313251 0.0458885 0)
(0.281449 0.0458027 0)
(0.249551 0.0469559 0)
(0.216988 0.0492941 0)
(0.183085 0.0530783 0)
(0.146864 0.0574805 0)
(0.107938 0.0623068 0)
(0.0662044 0.0649663 0)
(0.0233037 0.0679461 0)
(3 2.0611e-16 0)
(3 1.69974e-16 0)
(3 3.72271e-16 0)
(3 2.48387e-16 0)
(3 -4.50998e-16 0)
(3 -3.07097e-16 0)
(3 -2.48574e-16 0)
(3 -4.81925e-17 0)
(3 1.59269e-16 0)
(3 1.84152e-16 0)
(3 9.55288e-16 0)
(3 2.00156e-15 0)
(3 2.8563e-15 0)
(3 2.72074e-15 0)
(3 2.27859e-15 0)
(3 1.41351e-15 0)
(3 1.09284e-15 0)
(3 9.93092e-16 0)
(3 5.83505e-16 0)
(3 1.18842e-16 0)
(3 -1.5821e-16 0)
(3 -3.14532e-16 0)
(3 -1.79694e-16 0)
(3 -4.23845e-16 0)
(2.55753 0.0484038 0)
(0.894384 0.067737 0)
(0.72589 0.0668244 0)
(0.694929 0.0639781 0)
(0.660874 0.0644526 0)
(0.628444 0.0656429 0)
(0.596105 0.066954 0)
(0.564596 0.0674266 0)
(0.534038 0.067332 0)
(0.503856 0.0675655 0)
(0.473191 0.0696739 0)
(0.441293 0.0741821 0)
(0.40787 0.078338 0)
(0.374099 0.0792682 0)
(0.341356 0.0776568 0)
(0.309485 0.0762982 0)
(0.277746 0.0764557 0)
(0.245555 0.078378 0)
(0.212556 0.0818425 0)
(0.178504 0.0875603 0)
(0.142582 0.0943098 0)
(0.104796 0.102216 0)
(0.0642378 0.106928 0)
(0.0227833 0.112444 0)
(3 1.35221e-16 0)
(3 3.67323e-16 0)
(3 -1.57334e-17 0)
(3 -3.45857e-16 0)
(3 -4.6803e-16 0)
(3 -7.2503e-17 0)
(3 1.76997e-16 0)
(3 2.80903e-16 0)
(3 5.53561e-16 0)
(3 8.20468e-16 0)
(3 1.23983e-15 0)
(3 2.23287e-15 0)
(3 2.76057e-15 0)
(3 2.42511e-15 0)
(3 1.12644e-15 0)
(3 8.27776e-16 0)
(3 4.76106e-16 0)
(3 4.93523e-16 0)
(3 2.76046e-16 0)
(3 -1.67786e-16 0)
(3 -9.32894e-16 0)
(3 -1.89359e-15 0)
(3 -1.39789e-15 0)
(3 -2.63479e-16 0)
(2.63645 0.0590203 0)
(0.915123 0.0943866 0)
(0.733151 0.0921503 0)
(0.703697 0.0899869 0)
(0.66963 0.0910852 0)
(0.637008 0.0929222 0)
(0.604211 0.0944871 0)
(0.572139 0.0947732 0)
(0.540793 0.0948364 0)
(0.509398 0.0959562 0)
(0.47722 0.0994895 0)
(0.444016 0.105535 0)
(0.409882 0.110376 0)
(0.376225 0.110799 0)
(0.344083 0.108411 0)
(0.312599 0.107013 0)
(0.280685 0.107924 0)
(0.247648 0.111069 0)
(0.213282 0.115719 0)
(0.177855 0.123032 0)
(0.140846 0.13135 0)
(0.103068 0.141655 0)
(0.0628083 0.148101 0)
(0.0223803 0.156034 0)
(3 -2.03467e-16 0)
(3 -1.71946e-16 0)
(3 -3.94783e-18 0)
(3 3.05479e-16 0)
(3 4.38543e-16 0)
(3 4.13156e-16 0)
(3 6.2087e-16 0)
(3 5.69618e-16 0)
(3 1.81154e-16 0)
(3 2.58471e-16 0)
(3 8.89678e-16 0)
(3 1.76072e-15 0)
(3 1.87438e-15 0)
(3 9.78583e-16 0)
(3 2.927e-16 0)
(3 -2.16323e-16 0)
(3 -1.02123e-15 0)
(3 -2.19265e-15 0)
(3 -1.97718e-15 0)
(3 -1.70086e-15 0)
(3 -1.19524e-15 0)
(3 -1.60261e-15 0)
(3 -1.47095e-15 0)
(3 -1.20019e-15 0)
(2.72615 0.0668147 0)
(0.940467 0.122165 0)
(0.737259 0.115972 0)
(0.708716 0.116962 0)
(0.674313 0.118955 0)
(0.641875 0.121386 0)
(0.609423 0.123008 0)
(0.577756 0.123062 0)
(0.546513 0.123501 0)
(0.514861 0.125725 0)
(0.482478 0.130485 0)
(0.44978 0.137358 0)
(0.417029 0.141996 0)
(0.385222 0.141414 0)
(0.354318 0.138384 0)
(0.322809 0.137583 0)
(0.289787 0.140104 0)
(0.254813 0.145279 0)
(0.217976 0.15148 0)
(0.180166 0.160305 0)
(0.140965 0.169492 0)
(0.102332 0.181408 0)
(0.0617044 0.189006 0)
(0.0220038 0.198896 0)
(3 -5.26641e-17 0)
(3 -1.41137e-16 0)
(3 -4.12931e-17 0)
(3 -5.49991e-17 0)
(3 2.09458e-17 0)
(3 1.35281e-16 0)
(3 -4.37098e-16 0)
(3 -5.38009e-16 0)
(3 -7.99144e-16 0)
(3 -6.99991e-16 0)
(3 1.69026e-16 0)
(3 3.60018e-16 0)
(3 1.12988e-15 0)
(3 4.53885e-16 0)
(3 -1.13608e-17 0)
(3 -4.32147e-16 0)
(3 -5.39308e-16 0)
(3 -1.49218e-15 0)
(3 -1.95814e-15 0)
(3 -1.88896e-15 0)
(3 -1.10397e-15 0)
(3 -4.28436e-16 0)
(3 -9.1615e-16 0)
(3 -1.42073e-15 0)
(2.8263 0.0724089 0)
(0.978722 0.151782 0)
(0.745335 0.137595 0)
(0.718589 0.143684 0)
(0.684014 0.146522 0)
(0.652121 0.149265 0)
(0.620389 0.150752 0)
(0.589314 0.150762 0)
(0.558281 0.152023 0)
(0.526715 0.15559 0)
(0.494798 0.161124 0)
(0.46342 0.167739 0)
(0.432603 0.171271 0)
(0.402264 0.169999 0)
(0.371168 0.167891 0)
(0.337961 0.169429 0)
(0.302256 0.174809 0)
(0.264221 0.182618 0)
(0.224408 0.190298 0)
(0.184282 0.200217 0)
(0.142939 0.209541 0)
(0.103232 0.222187 0)
(0.0618376 0.230253 0)
(0.0220058 0.24145 0)
(3 -9.56332e-17 0)
(3 -9.57173e-17 0)
(3 -1.11539e-16 0)
(3 -5.3792e-16 0)
(3 -6.39394e-16 0)
(3 -1.24241e-15 0)
(3 -1.53851e-15 0)
(3 -1.85545e-15 0)
(3 -1.43123e-15 0)
(3 -1.12101e-15 0)
(3 -8.83468e-16 0)
(3 -1.47805e-15 0)
(3 -1.61106e-15 0)
(3 -7.95528e-16 0)
(3 -6.7665e-16 0)
(3 -6.6652e-16 0)
(3 -9.16908e-16 0)
(3 -8.32963e-16 0)
(3 -1.1529e-15 0)
(3 -7.86949e-16 0)
(3 -2.78071e-16 0)
(3 3.25766e-16 0)
(3 5.53071e-17 0)
(3 -1.90652e-16 0)
(2.92849 0.0575 0)
(1.03004 0.178877 0)
(0.758165 0.156064 0)
(0.734166 0.168298 0)
(0.700281 0.172765 0)
(0.669178 0.175387 0)
(0.638194 0.176603 0)
(0.607652 0.176904 0)
(0.576948 0.179262 0)
(0.545772 0.184006 0)
(0.514453 0.189585 0)
(0.483871 0.195135 0)
(0.453686 0.197915 0)
(0.422998 0.197734 0)
(0.390522 0.198269 0)
(0.355517 0.203153 0)
(0.317789 0.211785 0)
(0.277707 0.222227 0)
(0.235824 0.231157 0)
(0.19382 0.24191 0)
(0.150628 0.251301 0)
(0.108849 0.264525 0)
(0.0651652 0.273026 0)
(0.023295 0.285437 0)
(3 1.01578e-16 0)
(3 1.24697e-17 0)
(3 -3.15655e-16 0)
(3 -3.45322e-16 0)
(3 -3.39717e-16 0)
(3 -7.5555e-16 0)
(3 -6.54274e-16 0)
(3 -6.09988e-16 0)
(3 -7.01835e-16 0)
(3 -7.50027e-16 0)
(3 -1.45969e-15 0)
(3 -2.62472e-15 0)
(3 -4.24669e-15 0)
(3 -3.81902e-15 0)
(3 -1.62615e-15 0)
(3 -1.59721e-15 0)
(3 -2.30492e-15 0)
(3 -2.92549e-15 0)
(3 -2.39323e-15 0)
(3 -1.24709e-15 0)
(3 -1.45403e-16 0)
(3 3.52661e-16 0)
(3 3.09328e-16 0)
(3 2.60072e-16 0)
(2.9927 0.0138706 0)
(1.08584 0.202215 0)
(0.76993 0.172484 0)
(0.748711 0.190913 0)
(0.71701 0.197655 0)
(0.686715 0.200365 0)
(0.656495 0.201471 0)
(0.626668 0.202242 0)
(0.596563 0.205771 0)
(0.565708 0.211844 0)
(0.534117 0.217909 0)
(0.502589 0.223473 0)
(0.470649 0.227262 0)
(0.437266 0.229404 0)
(0.401797 0.232733 0)
(0.364374 0.24043 0)
(0.325198 0.251556 0)
(0.28468 0.264038 0)
(0.242635 0.273981 0)
(0.200428 0.285586 0)
(0.156489 0.295462 0)
(0.113274 0.309434 0)
(0.0677752 0.318521 0)
(0.0241979 0.332132 0)
(3 1.45334e-16 0)
(3 8.50871e-17 0)
(3 -6.07829e-17 0)
(3 2.58794e-17 0)
(3 -1.68324e-17 0)
(3 -7.93267e-17 0)
(3 -3.95177e-16 0)
(3 -2.52813e-16 0)
(3 -4.37179e-17 0)
(3 5.97108e-17 0)
(3 -3.6574e-16 0)
(3 -1.321e-15 0)
(3 -2.28463e-15 0)
(3 -2.54769e-15 0)
(3 -2.37939e-15 0)
(3 -2.07624e-15 0)
(3 -1.97552e-15 0)
(3 -2.06405e-15 0)
(3 -1.65704e-15 0)
(3 -2.10536e-15 0)
(3 -1.81002e-15 0)
(3 -3.19589e-16 0)
(3 3.42401e-16 0)
(3 3.81899e-16 0)
(3.00192 0.00113166 0)
(1.17229 0.220263 0)
(0.76908 0.189675 0)
(0.745182 0.214377 0)
(0.71536 0.224449 0)
(0.685657 0.22768 0)
(0.656321 0.228796 0)
(0.627346 0.230074 0)
(0.597914 0.234922 0)
(0.567474 0.242569 0)
(0.536002 0.249336 0)
(0.504519 0.254964 0)
(0.472746 0.259483 0)
(0.439733 0.263357 0)
(0.404886 0.268662 0)
(0.368387 0.278257 0)
(0.330233 0.291072 0)
(0.290732 0.3053 0)
(0.249038 0.31677 0)
(0.206417 0.329931 0)
(0.16163 0.341323 0)
(0.116822 0.356543 0)
(0.0695978 0.366277 0)
(0.0247363 0.380775 0)
(3 -1.517e-16 0)
(3 -2.27816e-16 0)
(3 -1.62444e-16 0)
(3 -3.53239e-16 0)
(3 -1.86421e-16 0)
(3 -5.79169e-16 0)
(3 -7.74506e-16 0)
(3 -5.73348e-16 0)
(3 4.30486e-17 0)
(3 1.61086e-16 0)
(3 -1.91124e-16 0)
(3 -1.17493e-15 0)
(3 -1.18036e-15 0)
(3 -7.53671e-16 0)
(3 -8.91416e-16 0)
(3 -8.38385e-16 0)
(3 -7.45166e-16 0)
(3 -1.70253e-16 0)
(3 -2.61466e-16 0)
(3 -7.17504e-16 0)
(3 -1.40203e-15 0)
(3 -1.32822e-15 0)
(3 -3.10712e-16 0)
(3 -3.70501e-16 0)
(3.00003 1.85652e-06 0)
(1.31575 0.25144 0)
(0.773156 0.21445 0)
(0.735415 0.235615 0)
(0.707319 0.247162 0)
(0.67843 0.251055 0)
(0.65064 0.252373 0)
(0.62362 0.254316 0)
(0.597194 0.260826 0)
(0.570367 0.270259 0)
(0.541927 0.277938 0)
(0.512407 0.284065 0)
(0.48154 0.28999 0)
(0.448761 0.296344 0)
(0.413914 0.304151 0)
(0.3776 0.315891 0)
(0.339702 0.330555 0)
(0.300353 0.346935 0)
(0.258033 0.360895 0)
(0.213796 0.3764 0)
(0.167355 0.389986 0)
(0.120526 0.40654 0)
(0.0715592 0.416741 0)
(0.0249186 0.431376 0)
(3 -2.89446e-16 0)
(3 -3.28146e-16 0)
(3 -5.72979e-16 0)
(3 -1.29599e-15 0)
(3 -1.59176e-15 0)
(3 -1.49334e-15 0)
(3 -8.36115e-17 0)
(3 -8.47858e-18 0)
(3 -4.45337e-17 0)
(3 -3.67571e-16 0)
(3 -4.65442e-16 0)
(3 -1.20303e-15 0)
(3 -1.40793e-15 0)
(3 -1.00098e-15 0)
(3 -1.0801e-15 0)
(3 -1.18259e-15 0)
(3 -6.09234e-16 0)
(3 1.41583e-16 0)
(3 1.46742e-16 0)
(3 2.1296e-16 0)
(3 8.51871e-17 0)
(3 1.41976e-16 0)
(3 3.57165e-16 0)
(3 -1.01298e-16 0)
(3 -2.01612e-09 0)
(1.53295 0.283519 0)
(0.792664 0.250235 0)
(0.730203 0.260684 0)
(0.700405 0.270002 0)
(0.671148 0.273891 0)
(0.643311 0.275222 0)
(0.616127 0.276848 0)
(0.590294 0.283694 0)
(0.565735 0.294733 0)
(0.540383 0.304181 0)
(0.514214 0.311946 0)
(0.486675 0.320019 0)
(0.457054 0.329089 0)
(0.424876 0.339352 0)
(0.390652 0.353186 0)
(0.354059 0.369952 0)
(0.315351 0.389055 0)
(0.27277 0.406401 0)
(0.227751 0.424881 0)
(0.179885 0.441076 0)
(0.130514 0.459692 0)
(0.0778065 0.471045 0)
(0.0271145 0.485945 0)
(3 1.41513e-17 0)
(3 -1.26634e-16 0)
(3 -5.01978e-16 0)
(3 -1.94505e-16 0)
(3 -4.44397e-16 0)
(3 -5.58605e-16 0)
(3 -2.90258e-16 0)
(3 -1.47037e-16 0)
(3 -6.31853e-16 0)
(3 -3.13539e-16 0)
(3 -1.42367e-16 0)
(3 4.96222e-17 0)
(3 -4.13956e-16 0)
(3 -1.44627e-15 0)
(3 -2.99852e-15 0)
(3 -2.69085e-15 0)
(3 -1.4046e-15 0)
(3 6.4019e-16 0)
(3 1.44994e-15 0)
(3 1.84061e-15 0)
(3 1.65458e-15 0)
(3 1.39241e-15 0)
(3 6.98648e-16 0)
(3 6.30379e-16 0)
(3 -9.15219e-10 0)
(1.82052 0.30885 0)
(0.8207 0.298004 0)
(0.728295 0.29403 0)
(0.696952 0.2961 0)
(0.668758 0.299022 0)
(0.641401 0.300852 0)
(0.614017 0.302311 0)
(0.587882 0.308162 0)
(0.564101 0.318746 0)
(0.540685 0.328435 0)
(0.517129 0.33714 0)
(0.492597 0.347197 0)
(0.46608 0.359246 0)
(0.436569 0.372729 0)
(0.404544 0.38963 0)
(0.369612 0.409489 0)
(0.332121 0.432127 0)
(0.289835 0.45385 0)
(0.244125 0.476625 0)
(0.193697 0.496981 0)
(0.141219 0.519124 0)
(0.0847716 0.532847 0)
(0.0282865 0.547377 0)
(3 1.47126e-16 0)
(3 1.50355e-16 0)
(3 7.98662e-17 0)
(3 6.32256e-16 0)
(3 1.19463e-15 0)
(3 1.50518e-15 0)
(3 2.41777e-16 0)
(3 -2.00305e-17 0)
(3 -9.71177e-16 0)
(3 -7.68975e-16 0)
(3 -4.04144e-16 0)
(3 2.61516e-16 0)
(3 7.46837e-16 0)
(3 -3.29257e-16 0)
(3 -1.31287e-15 0)
(3 -1.47401e-15 0)
(3 -3.4969e-17 0)
(3 1.48362e-15 0)
(3 2.34766e-15 0)
(3 2.22022e-15 0)
(3 1.4496e-15 0)
(3 8.1991e-16 0)
(3 3.39885e-16 0)
(3 9.96006e-16 0)
(3 -1.42498e-10 0)
(2.18559 0.325066 0)
(0.869455 0.357636 0)
(0.748895 0.328757 0)
(0.71942 0.324709 0)
(0.68988 0.326345 0)
(0.660754 0.328362 0)
(0.631121 0.329931 0)
(0.602362 0.334648 0)
(0.576354 0.344102 0)
(0.551782 0.353099 0)
(0.527881 0.361933 0)
(0.503752 0.373433 0)
(0.478265 0.388168 0)
(0.45037 0.404859 0)
(0.420448 0.424853 0)
(0.387774 0.448197 0)
(0.352391 0.475013 0)
(0.312819 0.502114 0)
(0.269322 0.53029 0)
(0.220139 0.555142 0)
(0.167002 0.581859 0)
(0.103963 0.602074 0)
(0.0367791 0.620261 0)
(3 1.27497e-16 0)
(3 8.01671e-17 0)
(3 6.09934e-16 0)
(3 4.55719e-16 0)
(3 3.69503e-16 0)
(3 6.00492e-16 0)
(3 5.68984e-16 0)
(3 -2.27169e-16 0)
(3 -1.05114e-15 0)
(3 -1.72311e-15 0)
(3 -1.93529e-15 0)
(3 -5.93413e-16 0)
(3 2.52303e-17 0)
(3 4.08185e-16 0)
(3 9.96485e-16 0)
(3 9.24188e-16 0)
(3 8.96993e-16 0)
(3 9.77792e-16 0)
(3 9.39325e-16 0)
(3 5.62378e-16 0)
(3 1.09649e-16 0)
(3 -2.32922e-16 0)
(3 3.29907e-17 0)
(3 5.88911e-16 0)
(3 -9.85221e-12 0)
(2.67312 0.265557 0)
(0.978608 0.4039 0)
(0.809422 0.344423 0)
(0.779854 0.339898 0)
(0.74289 0.346812 0)
(0.70726 0.352848 0)
(0.672096 0.356996 0)
(0.638041 0.361469 0)
(0.606703 0.369982 0)
(0.577547 0.378531 0)
(0.549996 0.387763 0)
(0.523474 0.400628 0)
(0.49678 0.417515 0)
(0.469055 0.436746 0)
(0.440284 0.459279 0)
(0.40979 0.485906 0)
(0.378214 0.516731 0)
(0.34274 0.549092 0)
(0.302371 0.583876 0)
(0.251811 0.618303 0)
(0.192114 0.657368 0)
(0.120413 0.692948 0)
(0.0377651 0.715638 0)
(3 -1.48108e-17 0)
(3 -6.01846e-17 0)
(3 1.16366e-16 0)
(3 8.72487e-18 0)
(3 -6.25613e-17 0)
(3 1.15408e-17 0)
(3 5.53617e-16 0)
(3 7.8198e-16 0)
(3 3.44904e-16 0)
(3 -2.50341e-16 0)
(3 -1.01655e-15 0)
(3 -1.10603e-15 0)
(3 -1.09307e-15 0)
(3 2.76247e-16 0)
(3 1.60437e-15 0)
(3 1.31179e-15 0)
(3 8.12026e-16 0)
(3 5.05803e-16 0)
(3 1.28877e-16 0)
(3 6.86128e-18 0)
(3 -7.92674e-17 0)
(3 7.20036e-17 0)
(3 2.36651e-16 0)
(3 3.94402e-16 0)
(3 -5.94712e-13 0)
(3.02748 0.0535795 0)
(1.14327 0.389591 0)
(0.854853 0.367781 0)
(0.830379 0.375141 0)
(0.794348 0.380417 0)
(0.758259 0.38419 0)
(0.72149 0.38894 0)
(0.684826 0.394092 0)
(0.649618 0.402101 0)
(0.615767 0.409537 0)
(0.583778 0.417657 0)
(0.55361 0.430349 0)
(0.524668 0.448072 0)
(0.496152 0.468809 0)
(0.46745 0.49277 0)
(0.439489 0.52123 0)
(0.411234 0.555564 0)
(0.379338 0.594509 0)
(0.342935 0.639964 0)
(0.298163 0.689132 0)
(0.244459 0.739753 0)
(0.176296 0.789784 0)
(0.0686607 0.834638 0)
(3 -1.49236e-16 0)
(3 3.44482e-17 0)
(3 -2.6868e-16 0)
(3 -5.30804e-16 0)
(3 -3.98593e-16 0)
(3 -1.39595e-16 0)
(3 -4.699e-17 0)
(3 6.54113e-16 0)
(3 1.56491e-15 0)
(3 1.82815e-15 0)
(3 1.55199e-15 0)
(3 1.08002e-16 0)
(3 -1.62488e-16 0)
(3 6.74466e-16 0)
(3 9.19297e-16 0)
(3 1.12383e-15 0)
(3 1.20936e-15 0)
(3 1.20355e-15 0)
(3 6.20115e-17 0)
(3 1.20466e-16 0)
(3 5.78632e-16 0)
(3 1.04696e-15 0)
(3 8.58721e-16 0)
(3 1.20698e-15 0)
(3 -1.08915e-13 0)
(3.01069 0.00176817 0)
(1.26967 0.368068 0)
(0.843744 0.393676 0)
(0.825111 0.41605 0)
(0.79563 0.417478 0)
(0.772001 0.418118 0)
(0.749133 0.421212 0)
(0.722671 0.426043 0)
(0.692641 0.434372 0)
(0.659425 0.442458 0)
(0.625505 0.450921 0)
(0.592262 0.463347 0)
(0.561064 0.481385 0)
(0.531059 0.502541 0)
(0.502594 0.526668 0)
(0.475582 0.556043 0)
(0.450173 0.593655 0)
(0.423505 0.638874 0)
(0.396239 0.692207 0)
(0.362729 0.751505 0)
(0.312241 0.828115 0)
(0.218647 0.936288 0)
(0.118491 1.06061 0)
(3 4.59506e-17 0)
(3 -1.03167e-16 0)
(3 -2.20067e-16 0)
(3 -2.23352e-16 0)
(3 -3.44209e-16 0)
(3 -3.25091e-16 0)
(3 -2.92984e-16 0)
(3 5.76861e-16 0)
(3 2.07485e-15 0)
(3 2.41435e-15 0)
(3 2.33258e-15 0)
(3 2.28394e-15 0)
(3 1.45499e-15 0)
(3 1.3748e-15 0)
(3 1.42266e-15 0)
(3 1.90677e-15 0)
(3 1.92913e-15 0)
(3 1.95237e-16 0)
(3 -5.19386e-16 0)
(3 -5.3314e-16 0)
(3 7.4984e-16 0)
(3 1.68081e-15 0)
(3 1.50523e-15 0)
(3 1.42859e-15 0)
(3 -1.29165e-14 0)
(3.00011 -1.38042e-06 0)
(1.50946 0.387475 0)
(0.82781 0.404718 0)
(0.799607 0.423034 0)
(0.781869 0.43007 0)
(0.765355 0.433221 0)
(0.750295 0.441452 0)
(0.733633 0.452379 0)
(0.713816 0.465327 0)
(0.688775 0.477023 0)
(0.660945 0.48739 0)
(0.630927 0.499333 0)
(0.601961 0.516769 0)
(0.572898 0.537437 0)
(0.545421 0.561042 0)
(0.519453 0.590066 0)
(0.497144 0.62897 0)
(0.476361 0.677448 0)
(0.458098 0.738088 0)
(0.434399 0.818672 0)
(0.409313 0.942414 0)
(0.396809 1.09684 0)
(0.507963 1.35487 0)
(3 1.88576e-16 0)
(3 4.50163e-17 0)
(3 4.03338e-17 0)
(3 2.59947e-16 0)
(3 3.90344e-16 0)
(3 4.06568e-17 0)
(3 2.31422e-17 0)
(3 2.0603e-16 0)
(3 6.77213e-16 0)
(3 3.95907e-16 0)
(3 2.74674e-17 0)
(3 7.56838e-17 0)
(3 2.02957e-16 0)
(3 -5.65858e-17 0)
(3 3.21109e-16 0)
(3 4.34812e-16 0)
(3 6.96322e-18 0)
(3 -9.86381e-16 0)
(3 -9.54579e-16 0)
(3 -5.53737e-16 0)
(3 -1.83367e-17 0)
(3 7.66546e-16 0)
(3 1.51702e-15 0)
(3 1.56713e-15 0)
(3 1.05785e-15 0)
(3 -6.08868e-07 0)
(1.91719 0.431075 0)
(0.858585 0.455278 0)
(0.788793 0.436564 0)
(0.782968 0.442791 0)
(0.769549 0.449914 0)
(0.754974 0.459212 0)
(0.740021 0.470989 0)
(0.726014 0.486409 0)
(0.708819 0.50193 0)
(0.689137 0.516609 0)
(0.66565 0.531154 0)
(0.642135 0.55044 0)
(0.617052 0.572563 0)
(0.592719 0.596753 0)
(0.569221 0.624966 0)
(0.550364 0.663252 0)
(0.536153 0.713369 0)
(0.52738 0.780525 0)
(0.527574 0.875662 0)
(0.537906 1.00881 0)
(0.6174 1.15897 0)
(0.912318 1.34836 0)
(3 2.44656e-16 0)
(3 5.17221e-16 0)
(3 2.54308e-16 0)
(3 1.6055e-16 0)
(3 -9.30721e-17 0)
(3 -5.5117e-16 0)
(3 -6.9578e-16 0)
(3 -7.84509e-16 0)
(3 -1.22856e-15 0)
(3 -1.38268e-15 0)
(3 -1.35144e-15 0)
(3 -1.81092e-15 0)
(3 -1.84796e-15 0)
(3 -1.65445e-15 0)
(3 -1.16155e-15 0)
(3 -1.34663e-15 0)
(3 -1.52625e-15 0)
(3 -1.17157e-15 0)
(3 -3.60595e-16 0)
(3 -7.64626e-17 0)
(3 -6.12782e-16 0)
(3 -7.36138e-16 0)
(3 -4.59948e-16 0)
(3 -1.12852e-16 0)
(3 -1.03603e-16 0)
(3 -1.56628e-07 0)
(2.55308 0.37263 0)
(0.973869 0.513051 0)
(0.840058 0.446978 0)
(0.819292 0.452716 0)
(0.796958 0.465924 0)
(0.775473 0.478467 0)
(0.755541 0.490164 0)
(0.740289 0.505464 0)
(0.725377 0.522645 0)
(0.711304 0.540689 0)
(0.69432 0.558447 0)
(0.677699 0.579903 0)
(0.659957 0.604108 0)
(0.642091 0.629934 0)
(0.623739 0.657934 0)
(0.609162 0.694562 0)
(0.602006 0.744038 0)
(0.603556 0.811601 0)
(0.625567 0.906801 0)
(0.67194 1.03038 0)
(0.816151 1.16714 0)
(1.14753 1.28825 0)
(3 -6.79235e-17 0)
(3 5.93644e-17 0)
(3 -9.7552e-17 0)
(3 -6.45326e-16 0)
(3 -1.06861e-15 0)
(3 -9.75806e-16 0)
(3 -8.14438e-16 0)
(3 -1.161e-15 0)
(3 -1.96346e-15 0)
(3 -1.33807e-15 0)
(3 -9.95943e-16 0)
(3 -1.08243e-15 0)
(3 -1.22098e-15 0)
(3 -1.05353e-15 0)
(3 -1.31028e-15 0)
(3 -1.26286e-15 0)
(3 -5.84e-16 0)
(3 1.9057e-16 0)
(3 3.08692e-16 0)
(3 1.37631e-16 0)
(3 -2.02803e-16 0)
(3 -2.50206e-16 0)
(3 -1.5514e-15 0)
(3 -1.91446e-15 0)
(3 -1.73241e-15 0)
(3 -1.55305e-08 0)
(3.08479 0.0611631 0)
(1.2183 0.494783 0)
(0.902916 0.477439 0)
(0.870579 0.487248 0)
(0.840283 0.495144 0)
(0.811108 0.502776 0)
(0.784568 0.51023 0)
(0.764127 0.522884 0)
(0.747624 0.539605 0)
(0.734878 0.558768 0)
(0.721671 0.579006 0)
(0.709478 0.602839 0)
(0.698721 0.63005 0)
(0.688707 0.659298 0)
(0.678142 0.689476 0)
(0.670001 0.724955 0)
(0.67013 0.771627 0)
(0.682986 0.83416 0)
(0.718655 0.920606 0)
(0.795059 1.0302 0)
(0.96536 1.14201 0)
(1.25015 1.21541 0)
(3 -3.18101e-16 0)
(3 -3.31138e-16 0)
(3 -3.54907e-16 0)
(3 -5.79068e-16 0)
(3 -3.14482e-16 0)
(3 3.34466e-16 0)
(3 3.1563e-16 0)
(3 -5.55902e-16 0)
(3 -1.24475e-15 0)
(3 -8.9832e-16 0)
(3 -3.37592e-16 0)
(3 -1.41625e-16 0)
(3 -2.77307e-16 0)
(3 -1.39723e-15 0)
(3 -2.02056e-15 0)
(3 -1.43104e-15 0)
(3 -2.34437e-16 0)
(3 2.34804e-16 0)
(3 1.52948e-17 0)
(3 1.18526e-16 0)
(3 5.73911e-17 0)
(3 -7.2942e-16 0)
(3 -1.50378e-15 0)
(3 -1.38263e-15 0)
(3 -1.12519e-15 0)
(3 -6.65316e-10 0)
(3.01225 0.000282295 0)
(1.41364 0.473982 0)
(0.900266 0.526425 0)
(0.867052 0.521336 0)
(0.843598 0.528326 0)
(0.82115 0.534206 0)
(0.79961 0.53883 0)
(0.781117 0.54727 0)
(0.766558 0.560796 0)
(0.755728 0.578371 0)
(0.745948 0.598553 0)
(0.73827 0.622456 0)
(0.733178 0.650372 0)
(0.730891 0.681511 0)
(0.729735 0.714167 0)
(0.730382 0.749658 0)
(0.738021 0.793055 0)
(0.760523 0.848752 0)
(0.805414 0.922919 0)
(0.898495 1.01504 0)
(1.06577 1.09872 0)
(1.29943 1.14836 0)
(3 -1.44803e-16 0)
(3 -3.09627e-16 0)
(3 -2.70043e-17 0)
(3 4.68366e-16 0)
(3 8.01977e-16 0)
(3 1.39806e-15 0)
(3 1.38914e-15 0)
(3 6.73438e-16 0)
(3 -1.66937e-16 0)
(3 -2.42168e-16 0)
(3 -2.63395e-16 0)
(3 -2.02903e-16 0)
(3 -3.70012e-16 0)
(3 -4.30058e-16 0)
(3 -8.81019e-16 0)
(3 -7.11511e-16 0)
(3 -5.03305e-16 0)
(3 -9.00456e-16 0)
(3 -1.39763e-15 0)
(3 -1.06246e-15 0)
(3 -1.3618e-15 0)
(3 -1.35924e-15 0)
(3 -5.8111e-16 0)
(3 2.96381e-16 0)
(3 5.30951e-16 0)
(3 -1.15124e-11 0)
(3.0001 -4.37982e-06 0)
(1.86276 0.488579 0)
(0.920686 0.55442 0)
(0.866357 0.540374 0)
(0.853166 0.551143 0)
(0.836552 0.556258 0)
(0.820181 0.558891 0)
(0.804817 0.565021 0)
(0.79193 0.576699 0)
(0.781788 0.593638 0)
(0.773355 0.613848 0)
(0.767919 0.637593 0)
(0.765999 0.665488 0)
(0.768807 0.697636 0)
(0.77565 0.732691 0)
(0.786154 0.7698 0)
(0.802583 0.810774 0)
(0.832413 0.85941 0)
(0.884546 0.919676 0)
(0.981716 0.992952 0)
(1.13095 1.05259 0)
(1.32754 1.08553 0)
(3 -2.17515e-17 0)
(3 -1.15651e-16 0)
(3 -3.73185e-17 0)
(3 2.97097e-16 0)
(3 3.70886e-16 0)
(3 2.27764e-16 0)
(3 1.61289e-16 0)
(3 3.7687e-16 0)
(3 8.99583e-16 0)
(3 3.44346e-16 0)
(3 1.20362e-16 0)
(3 3.03955e-17 0)
(3 1.10492e-16 0)
(3 4.84099e-16 0)
(3 9.37354e-16 0)
(3 6.22671e-16 0)
(3 -8.8729e-17 0)
(3 -9.04682e-16 0)
(3 -1.72279e-15 0)
(3 -1.99136e-15 0)
(3 -1.82236e-15 0)
(3 -1.72035e-15 0)
(3 -7.55034e-16 0)
(3 2.57184e-16 0)
(3 1.1489e-15 0)
(3 -1.36966e-14 0)
(3.00001 -3.93543e-06 0)
(2.60831 0.368767 0)
(1.04195 0.602352 0)
(0.906612 0.546523 0)
(0.88906 0.558425 0)
(0.867821 0.570055 0)
(0.849555 0.575884 0)
(0.834225 0.583506 0)
(0.82134 0.595129 0)
(0.811556 0.61166 0)
(0.803699 0.631023 0)
(0.799078 0.652985 0)
(0.79889 0.678573 0)
(0.804577 0.708622 0)
(0.816569 0.742974 0)
(0.834962 0.780714 0)
(0.86047 0.821079 0)
(0.897038 0.865332 0)
(0.954406 0.913865 0)
(1.04862 0.970251 0)
(1.17732 1.01262 0)
(1.34185 1.03469 0)
(3 9.0108e-17 0)
(3 3.71103e-17 0)
(3 1.41598e-17 0)
(3 1.33532e-16 0)
(3 -2.42235e-17 0)
(3 -4.38334e-16 0)
(3 -1.84497e-16 0)
(3 1.66102e-16 0)
(3 8.19852e-16 0)
(3 1.09138e-15 0)
(3 1.85152e-16 0)
(3 -4.51748e-16 0)
(3 1.4599e-16 0)
(3 8.66762e-16 0)
(3 6.60776e-16 0)
(3 2.29115e-16 0)
(3 -2.36375e-16 0)
(3 -7.20485e-16 0)
(3 -1.10002e-15 0)
(3 -1.59162e-15 0)
(3 -1.46704e-15 0)
(3 -1.71345e-15 0)
(3 -1.71555e-15 0)
(3 -1.73355e-15 0)
(3 1.1934e-16 0)
(3 6.20567e-16 0)
(3 -7.52879e-07 0)
(3.08047 0.0455501 0)
(1.31815 0.58032 0)
(0.96188 0.572593 0)
(0.931864 0.591231 0)
(0.907758 0.594163 0)
(0.88537 0.596194 0)
(0.868201 0.602013 0)
(0.854345 0.612446 0)
(0.84457 0.628698 0)
(0.837237 0.648174 0)
(0.832675 0.668798 0)
(0.832981 0.691861 0)
(0.840119 0.718876 0)
(0.854872 0.750258 0)
(0.877824 0.785894 0)
(0.910068 0.824903 0)
(0.953156 0.867281 0)
(1.01434 0.907874 0)
(1.1025 0.949385 0)
(1.21348 0.979052 0)
(1.35329 0.99442 0)
(3 1.06915e-16 0)
(3 1.04944e-16 0)
(3 1.24706e-16 0)
(3 -1.8955e-16 0)
(3 -5.89238e-16 0)
(3 -7.88809e-16 0)
(3 -7.1166e-16 0)
(3 -7.08224e-16 0)
(3 3.25511e-16 0)
(3 9.22141e-16 0)
(3 1.25718e-15 0)
(3 7.92747e-16 0)
(3 4.75506e-16 0)
(3 3.68502e-16 0)
(3 9.19246e-18 0)
(3 -3.32761e-16 0)
(3 -2.29161e-16 0)
(3 -5.64676e-17 0)
(3 -2.14381e-16 0)
(3 -6.61628e-17 0)
(3 -1.56966e-16 0)
(3 -8.97799e-17 0)
(3 -6.29644e-17 0)
(3 -1.66885e-16 0)
(3 -3.0726e-16 0)
(3 3.24996e-16 0)
(3 -6.60917e-08 0)
(3.00795 0.000140663 0)
(1.61092 0.561239 0)
(0.950924 0.633513 0)
(0.928767 0.61862 0)
(0.918754 0.621413 0)
(0.907172 0.623528 0)
(0.894961 0.626184 0)
(0.883545 0.633468 0)
(0.875454 0.647497 0)
(0.870789 0.666061 0)
(0.868058 0.685044 0)
(0.869002 0.704758 0)
(0.876747 0.727892 0)
(0.892578 0.755192 0)
(0.91697 0.78682 0)
(0.95185 0.82217 0)
(0.998813 0.861758 0)
(1.06321 0.899448 0)
(1.14529 0.931277 0)
(1.24423 0.953064 0)
(1.36356 0.963468 0)
(3 -4.64672e-17 0)
(3 8.91484e-17 0)
(3 1.39475e-17 0)
(3 -2.28091e-16 0)
(3 -3.3683e-16 0)
(3 -3.98515e-16 0)
(3 -7.00422e-16 0)
(3 -8.34223e-16 0)
(3 -5.94257e-17 0)
(3 7.21327e-16 0)
(3 9.45224e-16 0)
(3 1.9659e-15 0)
(3 1.64374e-15 0)
(3 6.78186e-16 0)
(3 4.14908e-16 0)
(3 7.47833e-16 0)
(3 8.46415e-16 0)
(3 1.23259e-15 0)
(3 2.26482e-15 0)
(3 2.42849e-15 0)
(3 1.89335e-15 0)
(3 1.14127e-15 0)
(3 5.08685e-16 0)
(3 -3.19167e-16 0)
(3 -4.1165e-16 0)
(3 4.17738e-16 0)
(3 -1.68376e-09 0)
(3.00004 -1.82527e-06 0)
(2.34373 0.499142 0)
(1.02978 0.66332 0)
(0.954642 0.617884 0)
(0.948663 0.626167 0)
(0.937967 0.636673 0)
(0.925922 0.642452 0)
(0.915096 0.649591 0)
(0.907351 0.66248 0)
(0.904332 0.680787 0)
(0.904188 0.700142 0)
(0.906632 0.717948 0)
(0.914606 0.737778 0)
(0.930584 0.76153 0)
(0.954957 0.788888 0)
(0.989899 0.81924 0)
(1.03737 0.854057 0)
(1.10136 0.887642 0)
(1.17794 0.91399 0)
(1.26881 0.932311 0)
(1.37298 0.9412 0)
(3 -3.71814e-17 0)
(3 3.17606e-16 0)
(3 -1.61406e-16 0)
(3 -5.081e-17 0)
(3 2.85584e-16 0)
(3 5.82774e-16 0)
(3 7.22241e-16 0)
(3 5.00809e-16 0)
(3 6.85112e-16 0)
(3 6.15471e-16 0)
(3 9.63175e-16 0)
(3 1.12669e-15 0)
(3 1.63969e-15 0)
(3 1.66377e-15 0)
(3 1.21954e-15 0)
(3 8.80259e-16 0)
(3 3.66005e-16 0)
(3 1.40656e-15 0)
(3 2.06128e-15 0)
(3 2.09257e-15 0)
(3 2.34533e-15 0)
(3 1.64035e-15 0)
(3 -2.28485e-16 0)
(3 -9.30241e-16 0)
(3 -3.84648e-16 0)
(3 -1.09783e-16 0)
(3 -3.10963e-12 0)
(3 -2.0784e-06 0)
(3.07816 0.097864 0)
(1.31166 0.638873 0)
(1.0099 0.635865 0)
(0.992067 0.650818 0)
(0.975737 0.656249 0)
(0.959951 0.660487 0)
(0.947803 0.666996 0)
(0.939145 0.678166 0)
(0.93618 0.694668 0)
(0.938476 0.713344 0)
(0.943637 0.730776 0)
(0.952731 0.747602 0)
(0.968191 0.768222 0)
(0.992138 0.791421 0)
(1.02596 0.816259 0)
(1.07152 0.846359 0)
(1.1317 0.874522 0)
(1.20166 0.896585 0)
(1.28505 0.912469 0)
(1.37685 0.919643 0)
(3 1.64263e-16 0)
(3 1.51653e-16 0)
(3 1.50541e-16 0)
(3 2.60309e-16 0)
(3 1.96859e-16 0)
(3 2.37307e-16 0)
(3 3.46263e-16 0)
(3 5.76677e-16 0)
(3 5.4786e-16 0)
(3 5.91867e-16 0)
(3 1.22471e-15 0)
(3 9.96941e-16 0)
(3 9.13769e-16 0)
(3 1.00293e-15 0)
(3 1.06206e-15 0)
(3 1.11574e-15 0)
(3 1.12666e-15 0)
(3 9.11799e-16 0)
(3 1.24741e-15 0)
(3 1.44143e-15 0)
(3 1.33796e-15 0)
(3 8.89564e-16 0)
(3 4.52613e-16 0)
(3 5.03678e-16 0)
(3 2.34046e-16 0)
(3 1.59347e-16 0)
(3 -3.48317e-15 0)
(3 -4.13768e-07 0)
(3.01802 0.000785227 0)
(1.60597 0.613624 0)
(1.00817 0.694192 0)
(0.992402 0.68231 0)
(0.982631 0.680585 0)
(0.977419 0.681638 0)
(0.971613 0.687097 0)
(0.966435 0.695574 0)
(0.964541 0.708748 0)
(0.96886 0.725536 0)
(0.977235 0.742554 0)
(0.988762 0.758752 0)
(1.00435 0.775629 0)
(1.02794 0.795998 0)
(1.06052 0.817084 0)
(1.10363 0.841748 0)
(1.15853 0.863784 0)
(1.22253 0.882112 0)
(1.29935 0.896572 0)
(1.38161 0.902625 0)
(3 -7.90427e-17 0)
(3 -1.37998e-16 0)
(3 -1.16142e-16 0)
(3 -2.03206e-16 0)
(3 -7.26334e-16 0)
(3 -1.01347e-15 0)
(3 -9.71478e-16 0)
(3 -6.79564e-16 0)
(3 -6.31999e-16 0)
(3 -5.60458e-16 0)
(3 -7.42711e-16 0)
(3 8.79956e-17 0)
(3 1.21783e-16 0)
(3 -1.34163e-16 0)
(3 -3.02546e-17 0)
(3 7.07159e-16 0)
(3 1.22315e-15 0)
(3 9.66185e-16 0)
(3 1.25864e-15 0)
(3 1.49339e-15 0)
(3 6.40443e-16 0)
(3 9.74098e-16 0)
(3 1.85476e-15 0)
(3 1.86324e-15 0)
(3 1.70877e-15 0)
(3 1.773e-15 0)
(3 9.16425e-16 0)
(3 -3.18581e-08 0)
(3.00017 -3.30509e-06 0)
(2.40631 0.499188 0)
(1.10088 0.726194 0)
(1.01192 0.685163 0)
(1.00277 0.686189 0)
(0.999014 0.690567 0)
(0.995871 0.699587 0)
(0.992682 0.70999 0)
(0.991494 0.72164 0)
(0.996285 0.736559 0)
(1.00708 0.752859 0)
(1.02091 0.769304 0)
(1.03799 0.784227 0)
(1.061 0.800541 0)
(1.09243 0.817961 0)
(1.13331 0.837192 0)
(1.18259 0.853556 0)
(1.2405 0.867709 0)
(1.30947 0.880018 0)
(1.38332 0.884269 0)
(3 -1.02588e-16 0)
(3 -1.50443e-16 0)
(3 -2.53687e-16 0)
(3 -7.60236e-16 0)
(3 -4.68002e-16 0)
(3 -1.60318e-16 0)
(3 -6.30008e-17 0)
(3 -5.84156e-17 0)
(3 -4.25428e-16 0)
(3 -3.9068e-16 0)
(3 -8.12433e-16 0)
(3 -8.61459e-16 0)
(3 -7.23323e-16 0)
(3 -3.19825e-16 0)
(3 1.63503e-17 0)
(3 -2.29336e-16 0)
(3 -4.04418e-17 0)
(3 4.9028e-16 0)
(3 4.51126e-16 0)
(3 8.36746e-16 0)
(3 1.73782e-15 0)
(3 2.23653e-15 0)
(3 2.67432e-15 0)
(3 2.1855e-15 0)
(3 1.30664e-15 0)
(3 2.59902e-16 0)
(3 3.52478e-16 0)
(3 -1.4356e-10 0)
(3.00001 -6.33879e-06 0)
(3.07584 0.078062 0)
(1.41004 0.701644 0)
(1.06628 0.704758 0)
(1.04696 0.699657 0)
(1.0323 0.703161 0)
(1.02518 0.713241 0)
(1.02044 0.724399 0)
(1.01927 0.734383 0)
(1.02295 0.746865 0)
(1.03419 0.762268 0)
(1.04912 0.777987 0)
(1.06788 0.792159 0)
(1.09154 0.806755 0)
(1.12188 0.821146 0)
(1.16066 0.836029 0)
(1.20565 0.848552 0)
(1.25946 0.860711 0)
(1.32162 0.870013 0)
(1.38925 0.872558 0)
(3 2.49975e-17 0)
(3 -1.38913e-16 0)
(3 -1.96347e-16 0)
(3 2.02865e-17 0)
(3 5.66568e-16 0)
(3 1.70572e-15 0)
(3 1.56911e-15 0)
(3 9.56804e-16 0)
(3 5.87982e-16 0)
(3 2.62966e-16 0)
(3 5.30892e-17 0)
(3 -1.39573e-16 0)
(3 2.04664e-16 0)
(3 5.38985e-16 0)
(3 5.83659e-16 0)
(3 2.23585e-17 0)
(3 -1.64138e-16 0)
(3 4.73054e-16 0)
(3 3.7481e-16 0)
(3 5.17294e-16 0)
(3 1.86332e-15 0)
(3 2.01192e-15 0)
(3 1.6021e-15 0)
(3 1.2586e-15 0)
(3 2.86359e-16 0)
(3 -1.13541e-15 0)
(3 -6.4454e-16 0)