/*--------------------------------*- C++ -*----------------------------------*\
  =========                 |
  \\      /  F ield         | OpenFOAM: The Open Source CFD Toolbox
   \\    /   O peration     | Website:  https://openfoam.org
    \\  /    A nd           | Version:  7
     \\/     M anipulation  |
\*---------------------------------------------------------------------------*/
FoamFile
{
    version     2.0;
    format      ascii;
    class       volScalarField;
    location    "3.7";
    object      rho;
}
// * * * * * * * * * * * * * * * * * * * * * * * * * * * * * * * * * * * * * //

dimensions      [1 -3 0 0 0 0 0];

internalField   nonuniform List<scalar> 
4032
(
1.40001
1.40001
1.40001
1.40001
1.40001
1.40001
1.40001
1.40001
1.40001
1.40001
1.40001
1.53658
4.31098
5.46598
5.51326
5.58787
5.6564
5.72232
5.78298
5.83599
5.87997
5.91293
5.93714
5.95479
1.40001
1.40001
1.40001
1.40001
1.40001
1.40001
1.40001
1.40001
1.40001
1.40001
1.40001
1.51518
4.24282
5.45342
5.50834
5.58025
5.64737
5.71205
5.77171
5.82339
5.86545
5.89573
5.9166
5.93181
1.40001
1.40001
1.40001
1.40001
1.40001
1.40001
1.40001
1.40001
1.40001
1.40001
1.40001
1.45776
4.12644
5.44062
5.49002
5.55991
5.62652
5.68993
5.74795
5.79794
5.83913
5.86966
5.89076
5.90758
1.40001
1.40001
1.40001
1.40001
1.40001
1.40001
1.40001
1.40001
1.40001
1.40001
1.40001
1.40433
3.9257
5.41448
5.46637
5.53219
5.597
5.65772
5.71368
5.76222
5.80217
5.82986
5.84609
5.85728
1.40001
1.40001
1.40001
1.40001
1.40001
1.40001
1.40001
1.40001
1.40001
1.40001
1.40001
1.40004
3.63835
5.35644
5.42872
5.49017
5.55314
5.61017
5.66161
5.70401
5.73703
5.7606
5.77527
5.7942
1.40001
1.40001
1.40001
1.40001
1.40001
1.40001
1.40001
1.40001
1.40001
1.40001
1.40001
1.4
3.27734
5.26921
5.39141
5.44742
5.50476
5.55402
5.59755
5.63374
5.66235
5.68479
5.6937
5.68293
1.40001
1.40001
1.40001
1.40001
1.40001
1.40001
1.40001
1.40001
1.40001
1.40001
1.40001
1.40001
2.85952
5.14572
5.37074
5.4163
5.46151
5.49667
5.52384
5.54322
5.54954
5.53687
5.51763
5.50915
1.40001
1.40001
1.40001
1.40001
1.40001
1.40001
1.40001
1.40001
1.40001
1.40001
1.40001
1.40001
2.38482
4.9743
5.38789
5.40288
5.42638
5.44277
5.44861
5.44593
5.42633
5.39409
5.33826
5.31345
1.40001
1.40001
1.40001
1.40001
1.40001
1.40001
1.40001
1.40001
1.40001
1.40001
1.40001
1.40001
1.87925
4.72593
5.42333
5.39033
5.39909
5.39405
5.37573
5.34473
5.28316
5.17744
4.86262
4.01657
1.40001
1.40001
1.40001
1.40001
1.40001
1.40001
1.40001
1.40001
1.40001
1.40001
1.40001
1.40001
1.46491
4.22266
5.40212
5.34995
5.34525
5.32682
5.28945
5.22894
5.12547
4.93487
4.60704
3.70945
1.40001
1.40001
1.40001
1.40001
1.40001
1.40001
1.40001
1.40001
1.40001
1.40001
1.40001
1.40001
1.40044
3.47876
5.16788
5.25565
5.27095
5.246
5.19695
5.11108
4.9783
4.7432
4.39775
3.56857
1.40001
1.40001
1.40001
1.40001
1.40001
1.40001
1.40001
1.40001
1.40001
1.40001
1.40001
1.40001
1.4
2.65555
4.95025
5.21108
5.21014
5.18555
5.12486
5.01705
4.85606
4.60947
4.22496
3.54872
1.40001
1.40001
1.40001
1.40001
1.40001
1.40001
1.40001
1.40001
1.40001
1.40001
1.40001
1.40001
1.4
1.86372
4.67836
5.23747
5.16853
5.11011
5.03372
4.9146
4.73953
4.49995
4.10711
3.57611
1.40001
1.40001
1.40001
1.40001
1.40001
1.40001
1.40001
1.40001
1.40001
1.40001
1.40001
1.40001
1.4
1.44503
3.91589
5.08981
5.06835
5.02349
4.94516
4.8241
4.65305
4.40525
4.04446
3.62453
1.40001
1.40001
1.40001
1.40001
1.40001
1.40001
1.40001
1.40001
1.40001
1.40001
1.40001
1.40001
1.40001
1.40002
2.81314
4.89225
5.04996
4.99555
4.90127
4.76011
4.58392
4.33252
4.01791
3.66917
1.40001
1.40001
1.40001
1.40001
1.40001
1.40001
1.40001
1.40001
1.40001
1.40001
1.40001
1.40001
1.40001
1.4
1.74955
4.61515
5.10835
4.96957
4.84146
4.68885
4.50856
4.27881
4.01182
3.71421
1.40001
1.40001
1.40001
1.40001
1.40001
1.40001
1.40001
1.40001
1.40001
1.40001
1.40001
1.40001
1.40001
1.4
1.41823
3.67269
4.9324
4.8558
4.75959
4.62422
4.45669
4.24908
4.01416
3.74877
1.40001
1.40001
1.40001
1.40001
1.40001
1.40001
1.40001
1.40001
1.40001
1.40001
1.40001
1.40001
1.40001
1.4
1.39991
2.38764
4.73943
4.84198
4.75371
4.61845
4.44863
4.2474
4.02524
3.78249
1.40001
1.40001
1.40001
1.40001
1.40001
1.40001
1.40001
1.40001
1.40001
1.40001
1.40001
1.40001
1.40001
1.40001
1.39998
1.55312
3.95167
4.83889
4.7378
4.60491
4.43898
4.24902
4.04125
3.81784
1.40001
1.40001
1.40001
1.40001
1.40001
1.40001
1.40001
1.40001
1.40001
1.40001
1.40001
1.40001
1.40001
1.40001
1.4
1.40238
2.61213
4.64136
4.7143
4.58987
4.43509
4.25751
4.06431
3.85935
1.40001
1.40001
1.40001
1.40001
1.40001
1.40001
1.40001
1.40001
1.40001
1.40001
1.40001
1.40001
1.40001
1.40001
1.4
1.4
1.62069
3.92942
4.74565
4.60781
4.46005
4.28557
4.09822
3.90255
1.40001
1.40001
1.40001
1.40001
1.40001
1.40001
1.40001
1.40001
1.40001
1.40001
1.40001
1.40001
1.40001
1.40001
1.40001
1.4
1.4056
2.49975
4.53395
4.62317
4.47704
4.30477
4.12254
3.93698
1.40001
1.40001
1.40001
1.40001
1.40001
1.40001
1.40001
1.40001
1.40001
1.40001
1.40001
1.40001
1.40001
1.40001
1.40001
1.4
1.40002
1.5749
3.71175
4.67412
4.51305
4.34129
4.1631
3.98566
1.40001
1.40001
1.40001
1.40001
1.40001
1.40001
1.40001
1.40001
1.40001
1.40001
1.40001
1.40001
1.40001
1.40001
1.40001
1.40001
1.40001
1.40372
2.24362
4.30928
4.53248
4.37656
4.20983
4.03599
1.40001
1.40001
1.40001
1.40001
1.40001
1.40001
1.40001
1.40001
1.40001
1.40001
1.40001
1.40001
1.40001
1.40001
1.40001
1.40001
1.40001
1.40002
1.49475
3.21186
4.51481
4.43689
4.27804
4.10718
1.40001
1.40001
1.40001
1.40001
1.40001
1.40001
1.40001
1.40001
1.40001
1.40001
1.40001
1.40001
1.40001
1.40001
1.40001
1.40001
1.40001
1.40001
1.40147
1.88609
3.93047
4.47877
4.3339
4.16278
1.40001
1.40001
1.40001
1.40001
1.40001
1.40001
1.40001
1.40001
1.40001
1.40001
1.40001
1.40001
1.40001
1.40001
1.40001
1.40001
1.40001
1.40001
1.40001
1.43025
2.55045
4.23719
4.37033
4.22363
1.40001
1.40001
1.40001
1.40001
1.40001
1.40001
1.40001
1.40001
1.40001
1.40001
1.40001
1.40001
1.40001
1.40001
1.40001
1.40001
1.40001
1.40001
1.40001
1.40035
1.579
3.26685
4.33017
4.28949
1.40001
1.40001
1.40001
1.40001
1.40001
1.40001
1.40001
1.40001
1.40001
1.40001
1.40001
1.40001
1.40001
1.40001
1.40001
1.40001
1.40001
1.40001
1.40001
1.40001
1.40497
1.93079
3.75201
4.30378
1.40001
1.40001
1.40001
1.40001
1.40001
1.40001
1.40001
1.40001
1.40001
1.40001
1.40001
1.40001
1.40001
1.40001
1.40001
1.40001
1.40001
1.40001
1.40001
1.40001
1.40004
1.4371
2.39386
4.01705
1.40001
1.40001
1.40001
1.40001
1.40001
1.40001
1.40001
1.40001
1.40001
1.40001
1.40001
1.40001
1.40001
1.40001
1.40001
1.40001
1.40001
1.40001
1.40001
1.40001
1.40001
1.40052
1.5325
2.88253
1.40001
1.40001
1.40001
1.40001
1.40001
1.40001
1.40001
1.40001
1.40001
1.40001
1.40001
1.40001
1.40001
1.40001
1.40001
1.40001
1.40001
1.40001
1.40001
1.40001
1.40001
1.40001
1.40343
1.71397
1.40001
1.40001
1.40001
1.40001
1.40001
1.40001
1.40001
1.40001
1.40001
1.40001
1.40001
1.40001
1.40001
1.40001
1.40001
1.40001
1.40001
1.40001
1.40001
1.40001
1.40001
1.40001
1.40003
1.41449
1.40001
1.40001
1.40001
1.40001
1.40001
1.40001
1.40001
1.40001
1.40001
1.40001
1.40001
1.40001
1.40001
1.40001
1.40001
1.40001
1.40001
1.40001
1.40001
1.40001
1.40001
1.40001
1.40001
1.40016
1.40001
1.40001
1.40001
1.40001
1.40001
1.40001
1.40001
1.40001
1.40001
1.40001
1.40001
1.40001
1.40001
1.40001
1.40001
1.40001
1.40001
1.40001
1.40001
1.40001
1.40001
1.40001
1.40001
1.40001
1.40001
1.40001
1.40001
1.40001
1.40001
1.40001
1.40001
1.40001
1.40001
1.40001
1.40001
1.40001
1.40001
1.40001
1.40001
1.40001
1.40001
1.40001
1.40001
1.40001
1.40001
1.40001
1.40001
1.40001
1.40001
1.40001
1.40001
1.40001
1.40001
1.40001
1.40001
1.40001
1.40001
1.40001
1.40001
1.40001
1.40001
1.40001
1.40001
1.40001
1.40001
1.40001
1.40001
1.40001
1.40001
1.40001
1.40001
1.40001
1.40001
1.40001
1.40001
1.40001
1.40001
1.40001
1.40001
1.40001
1.40001
1.40001
1.40001
1.40001
1.40001
1.40001
1.40001
1.40001
1.40001
1.40001
1.40001
1.40001
1.40001
1.40001
1.40001
1.40001
1.40001
1.40001
1.40001
1.40001
1.40001
1.40001
1.40001
1.40001
1.40001
1.40001
1.40001
1.40001
1.40001
1.40001
1.40001
1.40001
1.40001
1.40001
1.40001
1.40001
1.40001
1.40001
1.40001
1.40001
1.40001
1.40001
1.40001
1.40001
1.40001
1.40001
1.40001
1.40001
1.40001
1.40001
1.40001
1.40001
1.40001
1.40001
1.40001
1.40001
1.40001
1.40001
1.40001
1.40001
1.40001
1.40001
1.40001
1.40001
1.3395
0.525981
0.200143
0.191586
0.219863
0.278603
0.37527
0.486321
0.63114
0.735877
0.818823
0.861135
0.863837
0.890527
0.942763
0.991096
1.04294
1.06426
1.06072
1.05143
1.05461
1.06054
1.06688
1.06852
1.06893
1.0718
1.0775
1.08286
1.41042
2.61774
2.89646
2.93317
2.95023
2.95914
2.9674
2.97088
2.9644
2.95174
2.93914
2.92945
2.92107
2.91021
2.89156
2.86672
2.8447
2.83004
2.82304
2.81818
2.79519
2.74943
2.6987
2.65582
2.6274
2.61871
2.62645
2.62894
2.60359
2.56551
2.52287
2.48647
2.45809
2.43934
2.42211
2.39587
2.36683
2.33581
2.30497
2.27825
2.25463
2.23463
2.21673
2.19517
2.1703
2.13984
2.10688
2.07884
2.05754
2.03981
2.02684
2.01474
1.99619
1.97074
1.93365
1.89512
1.86872
1.85069
1.83661
1.82788
1.82118
1.80828
1.78853
1.75428
1.71392
1.68784
1.67487
1.65693
1.99176
1.23738
0.86414
0.675298
0.617029
0.573049
0.541902
0.547988
0.571648
0.605927
0.643169
0.709732
0.777273
0.825426
0.877475
0.939009
0.99269
1.035
1.05356
1.05872
1.07066
1.08218
1.09196
1.09047
1.09151
1.09367
1.09782
1.09934
1.36866
2.60112
2.99339
3.0178
3.00861
3.00219
3.00661
3.01345
3.01372
2.99685
2.97051
2.94823
2.93664
2.93617
2.93815
2.91985
2.88107
2.84194
2.81028
2.79473
2.78917
2.77872
2.75271
2.71474
2.67471
2.64224
2.61779
2.60209
2.59026
2.57473
2.5496
2.51811
2.48288
2.44812
2.41911
2.39529
2.37641
2.35498
2.3287
2.29818
2.26466
2.23434
2.21053
2.19167
2.17299
2.15118
2.12888
2.10227
2.07336
2.04742
2.02717
2.00731
1.98893
1.96926
1.94388
1.9175
1.89026
1.86473
1.84455
1.82935
1.81435
1.80045
1.78481
1.76199
1.73427
1.70581
1.68451
1.65987
2.49234
1.79502
1.38764
1.15446
1.00069
0.865534
0.7232
0.651526
0.650247
0.664039
0.676066
0.714006
0.788246
0.830706
0.857186
0.906614
0.957571
1.00968
1.07292
1.10776
1.12982
1.15187
1.15267
1.1456
1.14201
1.14334
1.14854
1.15223
1.27943
2.65832
3.24282
3.17676
3.14141
3.12922
3.13069
3.13194
3.13984
3.13843
3.10667
3.06805
3.03647
3.0194
3.0235
3.03367
3.01418
2.97012
2.91203
2.85501
2.81994
2.80707
2.80991
2.8048
2.78117
2.74277
2.68948
2.63631
2.60299
2.5861
2.58105
2.57032
2.54492
2.51162
2.46802
2.42589
2.39981
2.38138
2.36717
2.34582
2.31748
2.27695
2.22735
2.19037
2.16923
2.15732
2.15135
2.13776
2.1175
2.08855
2.04865
2.01149
1.98484
1.96398
1.95041
1.93967
1.92389
1.90335
1.87455
1.84162
1.81566
1.79466
1.7767
1.76468
1.75249
1.73645
1.71398
1.67247
2.83508
2.29051
1.83301
1.51418
1.34651
1.21988
1.07006
0.89653
0.838563
0.834122
0.819408
0.793939
0.791756
0.792228
0.797026
0.818845
0.861882
0.917545
1.00303
1.07342
1.09879
1.1255
1.15147
1.16138
1.1738
1.18957
1.20326
1.23102
1.37856
2.49455
3.54027
3.47694
3.36686
3.31115
3.29122
3.27309
3.27291
3.27716
3.25853
3.22247
3.17991
3.14434
3.12218
3.11655
3.10967
3.08284
3.04501
2.9919
2.93648
2.90504
2.88781
2.87809
2.85843
2.82703
2.78753
2.73658
2.68466
2.65355
2.63359
2.61889
2.59823
2.57232
2.54226
2.5031
2.45919
2.42933
2.40815
2.3882
2.36537
2.33616
2.29384
2.24329
2.20871
2.19059
2.17701
2.16652
2.15152
2.13046
2.09616
2.04887
2.01063
1.99049
1.97673
1.96614
1.9545
1.93872
1.91647
1.87911
1.832
1.80055
1.78596
1.77635
1.77053
1.76104
1.74776
1.70481
3.03539
2.5947
2.22601
1.87919
1.61111
1.47282
1.35666
1.21867
1.05224
0.955032
0.934214
0.915501
0.8852
0.848697
0.822773
0.823067
0.822759
0.828841
0.866315
0.941592
1.00051
1.04425
1.09676
1.13511
1.15821
1.17635
1.22232
1.42146
1.74399
2.21616
3.26233
3.60902
3.59836
3.51374
3.44619
3.3759
3.362
3.35773
3.36194
3.34584
3.31567
3.26999
3.22278
3.19423
3.17296
3.15702
3.13612
3.10793
3.06733
3.01502
2.97321
2.94324
2.91422
2.88432
2.85478
2.82187
2.78041
2.73576
2.70273
2.67678
2.65158
2.62662
2.60179
2.57406
2.53777
2.49484
2.45941
2.43202
2.40653
2.38065
2.352
2.31747
2.2776
2.24294
2.21983
2.20012
2.17928
2.15556
2.1276
2.09626
2.06563
2.03972
2.02047
2.00399
1.98707
1.96781
1.94386
1.91164
1.87114
1.83464
1.81404
1.80203
1.79255
1.78268
1.77119
1.73313
3.19468
2.80589
2.47788
2.18306
1.91825
1.68536
1.53833
1.4441
1.33106
1.18703
1.06604
1.04351
1.03369
0.992403
0.934074
0.903873
0.875427
0.849723
0.849184
0.860487
0.881606
0.906393
0.949757
1.01781
1.07818
1.1456
1.3353
1.75997
2.08689
2.18806
2.52002
3.20886
3.54221
3.62445
3.56735
3.46167
3.39509
3.37194
3.37433
3.39332
3.37858
3.34431
3.28516
3.23101
3.20452
3.18928
3.18362
3.1673
3.13659
3.0866
3.0226
2.97549
2.94701
2.92334
2.90048
2.87494
2.84233
2.79574
2.74407
2.70843
2.6835
2.66122
2.63948
2.61696
2.58741
2.54233
2.49586
2.46541
2.44205
2.42133
2.40108
2.37699
2.34132
2.29442
2.25611
2.22887
2.20397
2.17969
2.15824
2.1404
2.12131
2.09541
2.06453
2.03764
2.01434
1.99009
1.96407
1.93814
1.91293
1.88595
1.85631
1.83178
1.81618
1.80218
1.78696
1.75149
3.30751
2.97331
2.66559
2.38172
2.15642
1.9452
1.72845
1.57956
1.50564
1.41024
1.28539
1.1753
1.1371
1.10927
1.05537
0.99238
0.951655
0.920211
0.881796
0.872029
0.878595
0.882274
0.888363
0.909182
0.954301
1.13523
1.58694
1.91377
2.10586
2.13784
2.16633
2.48555
3.11518
3.51986
3.58894
3.52253
3.43456
3.38471
3.37228
3.3951
3.39772
3.37267
3.3305
3.26608
3.22123
3.20097
3.19089
3.17551
3.14676
3.11279
3.06446
3.00901
2.97009
2.9437
2.91858
2.89233
2.86307
2.82535
2.77706
2.73284
2.70463
2.68153
2.65909
2.63505
2.60552
2.56578
2.52104
2.48915
2.46862
2.44999
2.43104
2.40957
2.37806
2.32695
2.27337
2.23933
2.21709
2.19993
2.18566
2.17304
2.15826
2.13522
2.09514
2.05233
2.02261
1.99934
1.97897
1.96262
1.94762
1.92907
1.9021
1.86501
1.83451
1.81308
1.79525
1.76623
3.39966
3.10632
2.82794
2.55513
2.32689
2.14026
1.94984
1.77369
1.64106
1.54714
1.46663
1.37158
1.25762
1.20977
1.18105
1.12303
1.05748
1.02645
0.992941
0.952563
0.928921
0.908075
0.909345
0.926953
1.04366
1.36776
1.74409
1.85723
1.91571
1.95592
1.99459
2.07421
2.39467
2.96746
3.41496
3.52088
3.48149
3.40515
3.37551
3.3656
3.378
3.36813
3.34296
3.30262
3.24154
3.19459
3.16695
3.14501
3.13568
3.11808
3.08956
3.04796
2.98943
2.94241
2.91427
2.8898
2.86527
2.83939
2.80766
2.76535
2.7205
2.68609
2.65753
2.62959
2.60169
2.57476
2.54256
2.50427
2.48263
2.46434
2.44144
2.41511
2.38336
2.3415
2.29282
2.25276
2.2307
2.21676
2.20935
2.19999
2.18208
2.15502
2.11127
2.06204
2.02572
2.00452
1.9904
1.97984
1.97135
1.95864
1.93587
1.89638
1.84861
1.8144
1.79845
1.7771
3.47427
3.21218
2.95218
2.70718
2.49338
2.28888
2.10504
1.95941
1.81975
1.6754
1.58058
1.52026
1.42452
1.31454
1.27514
1.24077
1.17314
1.10658
1.07507
1.04384
1.00016
0.967767
0.969557
1.06118
1.34672
1.68689
1.79213
1.78731
1.78927
1.80577
1.83777
1.87493
1.92924
2.15195
2.66732
3.20442
3.42528
3.4319
3.38866
3.34512
3.32345
3.32053
3.32656
3.30621
3.26842
3.20241
3.15185
3.12698
3.11248
3.11007
3.08995
3.05874
3.00891
2.9465
2.90811
2.88342
2.86265
2.84303
2.81775
2.78105
2.72878
2.68365
2.65352
2.62804
2.60414
2.58049
2.55198
2.51562
2.4766
2.4474
2.42393
2.39901
2.37252
2.34798
2.32179
2.28989
2.25559
2.22985
2.20929
2.1869
2.16382
2.13884
2.1111
2.07958
2.04963
2.02595
2.00986
1.99692
1.98116
1.95916
1.93495
1.90251
1.86099
1.82552
1.81159
1.79437
3.54023
3.30025
3.05454
2.83563
2.63428
2.43433
2.24925
2.1038
1.97132
1.8374
1.71158
1.63168
1.55141
1.45309
1.37209
1.33359
1.28713
1.21864
1.16245
1.12649
1.08924
1.09674
1.18916
1.47393
1.76249
1.85914
1.8399
1.82081
1.81939
1.83294
1.84085
1.82536
1.80306
1.80863
1.90547
2.31505
2.90463
3.30704
3.39633
3.34717
3.30111
3.27358
3.26972
3.28478
3.26844
3.22953
3.16264
3.11659
3.09429
3.08113
3.07163
3.04679
3.01206
2.95895
2.90629
2.87727
2.85539
2.83432
2.80995
2.78029
2.73307
2.68087
2.65136
2.6303
2.61014
2.5874
2.55943
2.51998
2.46879
2.42944
2.4069
2.38839
2.37151
2.35693
2.34059
2.31861
2.28233
2.23654
2.19921
2.17206
2.14804
2.1249
2.10704
2.09215
2.07405
2.05131
2.02628
1.9974
1.96739
1.93962
1.91428
1.8902
1.86915
1.85103
1.83523
1.80543
3.59743
3.37241
3.14524
2.94465
2.74886
2.55026
2.38723
2.23817
2.09413
1.95976
1.85261
1.75023
1.65321
1.56744
1.49156
1.42747
1.37262
1.31987
1.25964
1.20916
1.21772
1.32878
1.63823
1.94545
2.00355
1.96605
1.92448
1.90779
1.90579
1.89983
1.88409
1.86436
1.82999
1.80331
1.80067
1.82832
2.0598
2.56674
3.09429
3.30463
3.29123
3.256
3.23705
3.24676
3.25346
3.23401
3.19335
3.13109
3.08711
3.06342
3.04445
3.02529
3.00143
2.96726
2.91713
2.87685
2.85104
2.82568
2.8006
2.77365
2.73536
2.68547
2.65132
2.62971
2.61038
2.58929
2.56408
2.52689
2.47195
2.42423
2.39974
2.38363
2.37486
2.37081
2.35533
2.33275
2.29546
2.24124
2.19337
2.16285
2.14065
2.12441
2.11262
2.10254
2.08924
2.06776
2.02924
1.9871
1.9562
1.93044
1.90548
1.88846
1.87875
1.87012
1.85791
1.8184
3.65248
3.43891
3.23122
3.0401
2.84868
2.66026
2.50607
2.3587
2.21075
2.07487
1.97271
1.86745
1.76464
1.67121
1.60522
1.5311
1.45895
1.3982
1.34088
1.35403
1.50485
1.83489
2.14499
2.19492
2.14379
2.07393
2.03432
2.02299
2.01362
1.99086
1.96568
1.93926
1.90105
1.85199
1.82106
1.81125
1.81851
1.89313
2.22338
2.7225
3.11473
3.2098
3.22536
3.23509
3.2387
3.22493
3.20275
3.16489
3.10854
3.05801
3.02913
3.00637
2.98358
2.95916
2.92959
2.8945
2.8571
2.82275
2.79402
2.76654
2.73476
2.69501
2.65494
2.62432
2.60156
2.58179
2.56073
2.53361
2.49293
2.4417
2.40419
2.38546
2.37039
2.35379
2.3364
2.3176
2.29234
2.24643
2.19283
2.16199
2.14618
2.13392
2.12183
2.10655
2.08581
2.05337
2.0108
1.97391
1.94774
1.92781
1.91294
1.90004
1.88573
1.86743
1.84761
1.80862
3.70467
3.49936
3.30643
3.12456
2.93664
2.76345
2.61217
2.46584
2.31371
2.19119
2.08078
1.97405
1.86697
1.77713
1.70143
1.62618
1.55166
1.48473
1.50566
1.68919
2.02052
2.31459
2.36898
2.33172
2.27648
2.20562
2.14792
2.12754
2.10998
2.08655
2.06148
2.03458
1.99885
1.94657
1.89912
1.86471
1.8409
1.84106
1.85604
1.97855
2.34741
2.82196
3.1005
3.18025
3.22568
3.23357
3.20824
3.18316
3.146
3.09128
3.03512
3.00074
2.97608
2.95355
2.93392
2.91022
2.8772
2.8367
2.798
2.76546
2.73619
2.70655
2.67163
2.63137
2.59663
2.57376
2.55452
2.53466
2.51133
2.47637
2.42885
2.38773
2.36145
2.34191
2.32244
2.30107
2.27674
2.24727
2.21107
2.17703
2.15596
2.14107
2.12521
2.10586
2.07928
2.04176
1.99753
1.96377
1.94721
1.936
1.92459
1.90972
1.89136
1.86684
1.84021
1.79855
3.74834
3.55752
3.3781
3.20246
3.02145
2.86173
2.7132
2.56245
2.41349
2.29891
2.18437
2.07584
1.96659
1.87987
1.78848
1.71547
1.65086
1.69176
1.93541
2.25642
2.47444
2.52181
2.47516
2.43626
2.40245
2.34885
2.27461
2.23155
2.20842
2.18351
2.15757
2.13056
2.09788
2.052
1.99262
1.94586
1.91319
1.8798
1.85834
1.85546
1.88647
2.06565
2.45062
2.85813
3.10881
3.1809
3.22689
3.2095
3.17488
3.12955
3.06304
3.01459
2.98853
2.96919
2.95209
2.92982
2.90142
2.86224
2.81298
2.77122
2.74418
2.72024
2.6924
2.65469
2.60809
2.57179
2.55146
2.53499
2.51784
2.49578
2.45958
2.4072
2.36103
2.33092
2.30905
2.28816
2.26779
2.24987
2.2294
2.19859
2.16508
2.14263
2.1239
2.10238
2.07448
2.03421
1.98981
1.97074
1.96057
1.94894
1.93476
1.91672
1.89476
1.86448
1.8294
1.78954
3.80439
3.62351
3.45083
3.27736
3.10562
2.9533
2.80602
2.65073
2.51503
2.39932
2.28357
2.16672
2.06433
1.96481
1.88626
1.83395
1.91119
2.22899
2.60719
2.68027
2.6664
2.61323
2.57201
2.55691
2.531
2.48543
2.40992
2.34183
2.30783
2.27783
2.24713
2.21628
2.18288
2.14247
2.08902
2.03173
1.9921
1.96239
1.93179
1.89804
1.87548
1.86933
1.909
2.1157
2.51718
2.88623
3.11846
3.17157
3.18959
3.15969
3.10188
3.04582
3.00671
2.9899
2.97574
2.95589
2.92916
2.89053
2.83189
2.7797
2.75468
2.73362
2.71041
2.68207
2.64102
2.58772
2.55059
2.53191
2.51582
2.49747
2.47235
2.43292
2.37782
2.32839
2.30013
2.28279
2.26887
2.25571
2.23956
2.21324
2.17125
2.13412
2.11279
2.09393
2.07027
2.03918
2.00926
1.97954
1.95246
1.93812
1.92704
1.91574
1.89871
1.86898
1.82852
1.79072
3.85964
3.68705
3.51712
3.34562
3.18448
3.03742
2.89055
2.73722
2.61164
2.49284
2.37198
2.25357
2.14657
2.0591
2.03477
2.16791
2.4888
2.86934
2.99036
2.91942
2.80123
2.72357
2.69679
2.68421
2.65213
2.60384
2.53421
2.45736
2.41139
2.37764
2.34478
2.31097
2.273
2.22821
2.1735
2.11605
2.07329
2.03989
2.0107
1.97953
1.94011
1.9052
1.86877
1.85727
1.91505
2.16922
2.5927
2.92474
3.09637
3.13325
3.13375
3.09215
3.03884
3.01597
2.99546
2.97347
2.94745
2.91108
2.85188
2.79214
2.76502
2.74617
2.72629
2.70344
2.6717
2.62117
2.5657
2.53056
2.50742
2.48734
2.46687
2.44217
2.40588
2.35521
2.30744
2.28485
2.27159
2.25893
2.24392
2.22136
2.18082
2.13299
2.10186
2.08187
2.06463
2.05031
2.03126
1.99616
1.95749
1.93584
1.92046
1.90528
1.88968
1.87041
1.84667
1.80615
3.93275
3.76174
3.59101
3.4223
3.26744
3.11898
2.97077
2.82706
2.70613
2.58174
2.45214
2.33762
2.23849
2.27239
2.50229
2.83556
3.08129
3.17248
3.12892
3.04245
2.94447
2.86482
2.82945
2.80229
2.75991
2.70733
2.64449
2.57002
2.51519
2.47564
2.43822
2.40129
2.36066
2.31288
2.25434
2.19136
2.1448
2.11138
2.08108
2.05169
2.01872
1.97875
1.93045
1.87897
1.85225
1.85927
1.9529
2.24054
2.62816
2.94551
3.04963
3.08256
3.06965
3.04373
3.01557
2.99186
2.95881
2.92243
2.86824
2.81017
2.77705
2.75735
2.73827
2.71687
2.69017
2.64901
2.58714
2.53295
2.50302
2.48117
2.46085
2.44092
2.41919
2.38834
2.3434
2.2983
2.27127
2.25559
2.24106
2.22163
2.18834
2.13872
2.09613
2.07565
2.06455
2.05428
2.03991
2.01362
1.96915
1.93248
1.91322
1.89941
1.88641
1.87449
1.86181
1.82045
3.99433
3.82596
3.65513
3.49493
3.34562
3.19598
3.04458
2.91491
2.79102
2.65895
2.53666
2.44372
2.53438
2.87654
3.30062
3.37765
3.36616
3.30339
3.23113
3.17777
3.10789
3.01958
2.96126
2.91963
2.87409
2.82064
2.76075
2.68994
2.62276
2.57546
2.53239
2.48971
2.44532
2.3979
2.34529
2.28446
2.22526
2.18136
2.14699
2.11457
2.08228
2.0488
2.00933
1.95998
1.90301
1.85224
1.84382
1.86337
1.98178
2.30127
2.64356
2.92403
3.00411
3.02394
3.03752
3.01682
2.97692
2.93485
2.87883
2.82909
2.79299
2.76559
2.74379
2.72263
2.69879
2.66629
2.61192
2.54544
2.50295
2.47928
2.46062
2.44383
2.4268
2.40702
2.37748
2.33042
2.28291
2.25158
2.22799
2.20686
2.18371
2.15404
2.12195
2.09073
2.0658
2.05156
2.04069
2.02214
1.98678
1.94985
1.92138
1.8984
1.88422
1.8776
1.86928
1.8303
4.06033
3.89835
3.73275
3.57894
3.42938
3.28083
3.12747
3.00567
2.8668
2.74624
2.6893
2.85514
3.24717
3.65321
3.74981
3.63845
3.49569
3.41786
3.37754
3.34386
3.27624
3.18237
3.09475
3.03762
2.98933
2.93589
2.87527
2.80741
2.73081
2.66509
2.61524
2.57014
2.52496
2.47851
2.42948
2.37244
2.30764
2.2487
2.20585
2.17145
2.1395
2.10706
2.07175
2.03031
1.97482
1.91871
1.87586
1.84711
1.84261
1.87329
2.01823
2.31798
2.63218
2.84557
2.96695
2.99572
2.99327
2.9495
2.8924
2.84953
2.81002
2.77101
2.74221
2.72032
2.69822
2.67187
2.63326
2.57663
2.51883
2.4854
2.46397
2.4456
2.42959
2.41363
2.39355
2.35895
2.3068
2.25785
2.22364
2.19827
2.17818
2.16237
2.14623
2.12323
2.09077
2.05837
2.03004
2.00652
1.98815
1.96843
1.94238
1.91243
1.88914
1.87354
1.85508
1.82717
4.1378
3.97412
3.81475
3.66375
3.51643
3.36187
3.2097
3.08394
2.95966
2.98835
3.26026
3.67333
3.90889
4.02904
3.96504
3.82621
3.67192
3.56218
3.51363
3.48417
3.4227
3.33483
3.24022
3.16039
3.10198
3.04817
2.98867
2.92271
2.84772
2.76767
2.69886
2.6478
2.60241
2.55782
2.51167
2.4583
2.39432
2.32836
2.27636
2.2367
2.20169
2.16646
2.12848
2.08558
2.0343
1.97912
1.93034
1.89075
1.85807
1.84586
1.83444
1.86236
2.00757
2.27773
2.60034
2.79891
2.92375
2.93091
2.91955
2.87684
2.82728
2.77412
2.7341
2.7084
2.68668
2.66379
2.63891
2.60608
2.5527
2.4975
2.47726
2.46368
2.44672
2.42835
2.40552
2.37263
2.3266
2.27191
2.22773
2.20102
2.18558
2.17424
2.16338
2.14783
2.11671
2.06844
2.02403
2.00033
1.98783
1.97575
1.95893
1.93139
1.89716
1.87472
1.85257
1.86047
4.21033
4.04306
3.89464
3.74035
3.59637
3.4272
3.30631
3.20079
3.32498
3.74179
4.20945
4.28407
4.21518
4.16723
4.09698
3.99559
3.87072
3.74157
3.66599
3.61712
3.55881
3.47953
3.38605
3.28962
3.21354
3.15136
3.09006
3.0253
2.95517
2.87891
2.80263
2.73716
2.68123
2.6294
2.57912
2.5272
2.47033
2.40855
2.34947
2.3008
2.25957
2.21903
2.17755
2.13326
2.08508
2.03376
1.98384
1.9404
1.9028
1.86533
1.83425
1.82038
1.79877
1.82708
1.98151
2.26897
2.57663
2.80921
2.86857
2.86985
2.8402
2.77137
2.70941
2.67975
2.66487
2.65803
2.64591
2.62137
2.57836
2.52559
2.47702
2.44662
2.42806
2.4085
2.38753
2.36627
2.33657
2.29213
2.24671
2.21738
2.19828
2.17927
2.15694
2.13746
2.11646
2.07998
2.0401
2.01379
1.99116
1.9687
1.95058
1.93326
1.91234
1.88638
1.89412
2.03556
4.25129
4.12427
3.96692
3.81919
3.66298
3.52035
3.50141
3.76079
4.25008
4.65626
4.72645
4.56541
4.38794
4.27627
4.2182
4.15782
4.05626
3.93179
3.83287
3.75999
3.6944
3.61832
3.52965
3.43278
3.34096
3.26161
3.18952
3.12115
3.05405
2.98517
2.91247
2.8394
2.7709
2.7074
2.64729
2.59118
2.5381
2.48255
2.42272
2.36505
2.31511
2.26821
2.2225
2.17686
2.13017
2.0824
2.03419
1.98986
1.94874
1.90735
1.86767
1.82467
1.78916
1.76111
1.74164
1.79002
1.96711
2.29235
2.5803
2.78349
2.80273
2.77614
2.72393
2.68404
2.66093
2.64666
2.62544
2.59987
2.57667
2.54312
2.48661
2.4386
2.41646
2.39998
2.38152
2.35823
2.33147
2.30242
2.26978
2.23707
2.20572
2.17717
2.15249
2.13026
2.10317
2.07304
2.04946
2.02651
1.99707
1.96732
1.95395
1.94126
1.95315
2.0037
2.13017
2.41096
4.11164
4.19343
4.06075
3.89696
3.73908
3.85584
4.34158
4.84303
5.05147
5.07282
4.94749
4.75406
4.56843
4.45383
4.39421
4.3272
4.22983
4.1105
4.00463
3.91796
3.83801
3.75571
3.6669
3.57009
3.47069
3.37928
3.29694
3.22111
3.14944
3.07843
3.00437
2.92732
2.85156
2.78157
2.71781
2.65884
2.60316
2.546
2.48394
2.41819
2.35826
2.30477
2.25522
2.20699
2.15828
2.11073
2.06469
2.02465
1.98735
1.95155
1.91153
1.86473
1.80904
1.75265
1.71849
1.692
1.69205
1.77087
1.98583
2.31881
2.55283
2.68071
2.68638
2.68048
2.6695
2.65195
2.62652
2.60486
2.57836
2.53796
2.48615
2.43616
2.40607
2.39038
2.37879
2.36662
2.35067
2.32977
2.29685
2.24696
2.1978
2.17465
2.16123
2.14113
2.11599
2.09018
2.06293
2.033
2.01359
1.99073
1.99468
2.03823
2.17148
2.37565
2.55525
2.70796
3.28472
4.14859
4.09739
4.01058
4.32166
5.01173
5.52456
5.4773
5.35224
5.24741
5.11252
4.95828
4.79298
4.68445
4.60732
4.51595
4.40867
4.28383
4.16563
4.06743
3.97937
3.891
3.79733
3.69603
3.58868
3.48643
3.39584
3.31454
3.23736
3.16052
3.08155
3.00012
2.91986
2.84503
2.77876
2.71808
2.65965
2.60124
2.54031
2.47291
2.40969
2.35277
2.29937
2.2465
2.19195
2.13694
2.08154
2.03001
1.98589
1.9516
1.91936
1.88542
1.84096
1.78649
1.73537
1.69451
1.6642
1.64512
1.65809
1.76021
1.99721
2.30971
2.46679
2.56096
2.59878
2.58993
2.57703
2.57125
2.55765
2.52768
2.48116
2.43518
2.40625
2.37884
2.35261
2.33168
2.31749
2.30155
2.27559
2.23863
2.20287
2.17011
2.13472
2.10595
2.0845
2.06925
2.05835
2.04451
2.05402
2.10735
2.23703
2.42634
2.61698
2.75519
2.85201
2.86832
1.97364
3.56655
4.03422
4.88687
5.74165
6.0678
5.9977
5.74851
5.50029
5.36612
5.26926
5.14303
4.98425
4.8742
4.78897
4.67811
4.56317
4.44181
4.3171
4.20378
4.10354
4.00673
3.90611
3.7987
3.68632
3.57872
3.48253
3.39642
3.31524
3.23502
3.15348
3.06961
2.98698
2.90846
2.83836
2.77442
2.71103
2.64669
2.58614
2.52857
2.46746
2.40841
2.35215
2.29534
2.23569
2.176
2.11959
2.06691
2.01925
1.97859
1.94595
1.91318
1.87632
1.83056
1.77938
1.72504
1.67762
1.63415
1.59811
1.59292
1.62742
1.75462
1.99032
2.26598
2.45463
2.47778
2.50424
2.49232
2.46973
2.44387
2.43291
2.42154
2.39867
2.36721
2.32843
2.29291
2.2756
2.26344
2.25114
2.23652
2.21101
2.16715
2.11324
2.08542
2.07547
2.06946
2.07921
2.15218
2.3038
2.52896
2.71926
2.84845
2.93078
2.95097
2.94993
2.91303
1.44422
2.21222
4.39579
6.40868
6.43821
6.26353
6.04207
5.81385
5.6189
5.50663
5.42632
5.30529
5.14084
5.02216
4.94055
4.81083
4.68245
4.57091
4.44313
4.315
4.20312
4.09858
3.99102
3.8782
3.76327
3.65343
3.55281
3.46094
3.37443
3.2897
3.20479
3.11843
3.033
2.95039
2.87318
2.80125
2.73113
2.66032
2.58787
2.51486
2.44297
2.37472
2.31365
2.25854
2.2033
2.14535
2.08904
2.03618
1.9832
1.92992
1.88648
1.8555
1.82876
1.79747
1.75847
1.71344
1.67403
1.63898
1.59594
1.54761
1.52246
1.52745
1.57999
1.73397
1.98985
2.22937
2.4187
2.42258
2.40713
2.39744
2.38135
2.35632
2.33515
2.31399
2.28587
2.25075
2.22551
2.21232
2.19928
2.1821
2.15853
2.12529
2.09546
2.08515
2.09323
2.15579
2.31268
2.56425
2.78311
2.96288
3.00055
2.9975
2.99162
2.97786
2.95585
2.90624
1.40062
1.53106
4.90349
6.69724
6.27781
6.02538
5.85919
5.71553
5.60094
5.5307
5.46018
5.33611
5.17416
5.05017
4.9714
4.88144
4.73305
4.58426
4.48438
4.3831
4.27688
4.17327
4.06559
3.95275
3.8377
3.7258
3.62117
3.52514
3.43553
3.34891
3.26256
3.17427
3.08515
2.99733
2.91125
2.82971
2.75501
2.68234
2.60129
2.51673
2.43462
2.36077
2.29675
2.2425
2.19437
2.14559
2.08933
2.02909
1.97147
1.91488
1.8639
1.82608
1.80084
1.781
1.76041
1.72713
1.68184
1.63791
1.59346
1.54503
1.50518
1.4787
1.47767
1.49592
1.57498
1.74396
2.01622
2.19613
2.30068
2.33144
2.32818
2.31856
2.30224
2.27952
2.25194
2.21467
2.18474
2.1578
2.13567
2.11789
2.10967
2.1049
2.11455
2.17631
2.32754
2.57401
2.82908
2.99454
3.02675
3.03706
3.01726
3.00912
2.99969
2.97982
2.95423
2.90407
1.40001
1.79375
4.78302
5.98093
5.72874
5.65318
5.59703
5.55167
5.50149
5.44975
5.38074
5.26598
5.12652
5.01474
4.93515
4.84081
4.70641
4.54653
4.41328
4.30479
4.19818
4.0947
3.98924
3.87816
3.76373
3.65186
3.54707
3.45061
3.36052
3.27362
3.18751
3.09945
3.0107
2.92331
2.84129
2.76426
2.68865
2.61272
2.5368
2.46267
2.38871
2.31887
2.25389
2.19308
2.13618
2.08424
2.03597
1.98626
1.94151
1.90737
1.8726
1.82713
1.77875
1.7376
1.70556
1.67647
1.64461
1.61409
1.59035
1.56661
1.53008
1.48425
1.4476
1.4251
1.41688
1.44016
1.54206
1.74741
1.98652
2.09998
2.18486
2.22848
2.21964
2.20438
2.18993
2.17005
2.14451
2.10886
2.08983
2.08755
2.09986
2.15964
2.32997
2.5782
2.84373
3.00019
3.08924
3.08645
3.07004
3.04099
3.01172
2.98587
2.96187
2.94014
2.92455
2.88534
1.40001
2.06988
4.79451
5.56273
5.5034
5.47811
5.43531
5.39194
5.34415
5.29588
5.22461
5.11215
4.98585
4.88018
4.79624
4.69463
4.56993
4.42777
4.30227
4.20564
4.10527
4.00459
3.90397
3.7974
3.68545
3.57558
3.47375
3.38068
3.29374
3.20963
3.126
3.04033
2.95406
2.8694
2.78904
2.71248
2.63758
2.5633
2.48931
2.41682
2.34489
2.27557
2.21001
2.14965
2.09495
2.04739
2.00768
1.97131