/*--------------------------------*- C++ -*----------------------------------*\
  =========                 |
  \\      /  F ield         | OpenFOAM: The Open Source CFD Toolbox
   \\    /   O peration     | Website:  https://openfoam.org
    \\  /    A nd           | Version:  7
     \\/     M anipulation  |
\*---------------------------------------------------------------------------*/
FoamFile
{
    version     2.0;
    format      ascii;
    class       volScalarField;
    location    "2.5";
    object      p;
}
// * * * * * * * * * * * * * * * * * * * * * * * * * * * * * * * * * * * * * //

dimensions      [1 -1 -2 0 0 0 0];

internalField   nonuniform List<scalar> 
16128
(
1
1
1
1
1
1
1
1
1
1
1
1
1
1
1
1
1
1
1
1
1
1
1
1
2.96774
9.60089
10.5208
10.6182
10.7444
10.8576
10.9661
11.0683
11.1663
11.2596
11.348
11.432
11.5109
11.5837
11.6515
11.7149
11.7743
11.8289
11.8798
11.9248
11.9647
11.9942
12.014
12.0283
1
1
1
1
1
1
1
1
1
1
1
1
1
1
1
1
1
1
1
1
1
1
1
1
2.90784
9.53573
10.5173
10.6202
10.7453
10.8564
10.9633
11.0645
11.1618
11.2543
11.3419
11.4252
11.5033
11.5757
11.6431
11.7063
11.7651
11.8189
11.8687
11.9125
11.9516
11.9807
12.0005
12.0149
1
1
1
1
1
1
1
1
1
1
1
1
1
1
1
1
1
1
1
1
1
1
1
1
2.76691
9.43854
10.5124
10.6128
10.7379
10.848
10.9542
11.055
11.1518
11.2437
11.3306
11.413
11.4906
11.5626
11.6303
11.6938
11.7524
11.8052
11.8531
11.8945
11.9316
11.959
11.978
11.9922
1
1
1
1
1
1
1
1
1
1
1
1
1
1
1
1
1
1
1
1
1
1
1
1
2.55649
9.28054
10.5085
10.6028
10.7257
10.8335
10.9385
11.0385
11.1346
11.2257
11.3117
11.3931
11.4696
11.5409
11.6082
11.6716
11.73
11.7821
11.8287
11.8684
11.9034
11.9293
11.9469
11.9604
1
1
1
1
1
1
1
1
1
1
1
1
1
1
1
1
1
1
1
1
1
1
1
1
2.30196
9.04948
10.4998
10.5841
10.7036
10.809
10.9131
11.0123
11.1077
11.1982
11.2836
11.3645
11.4407
11.5119
11.5792
11.6426
11.7006
11.7518
11.7968
11.8343
11.8671
11.891
11.9068
11.9196
1
1
1
1
1
1
1
1
1
1
1
1
1
1
1
1
1
1
1
1
1
1
1
1
2.02916
8.73781
10.495
10.5653
10.6813
10.7836
10.8863
10.9841
11.0781
11.1672
11.2513
11.3308
11.4055
11.4753
11.541
11.603
11.6595
11.7094
11.7531
11.7891
11.8203
11.8431
11.8574
11.8698
1
1
1
1
1
1
1
1
1
1
1
1
1
1
1
1
1
1
1
1
1
1
1
1
1.74473
8.33651
10.4977
10.5424
10.6558
10.754
10.8552
10.952
11.0447
11.132
11.2137
11.2905
11.3628
11.4305
11.4945
11.5549
11.6099
11.6584
11.7005
11.7345
11.7633
11.7839
11.7957
11.8071
1
1
1
1
1
1
1
1
1
1
1
1
1
1
1
1
1
1
1
1
1
1
1
1
1.45166
7.81916
10.4884
10.5063
10.6228
10.7184
10.8185
10.9137
11.0045
11.0899
11.1693
11.2434
11.313
11.3786
11.4406
11.499
11.5519
11.5983
11.6379
11.6691
11.6948
11.7125
11.7217
11.7319
1
1
1
1
1
1
1
1
1
1
1
1
1
1
1
1
1
1
1
1
1
1
1
1
1.18137
7.24904
10.476
10.4752
10.5854
10.6764
10.7716
10.8638
10.9528
11.036
11.1126
11.1837
11.2505
11.3136
11.3731
11.4289
11.479
11.522
11.5583
11.5863
11.6096
11.6259
11.634
11.6446
1
1
1
1
1
1
1
1
1
1
1
1
1
1
1
1
1
1
1
1
1
1
1
1
1.00896
6.52474
10.3335
10.4035
10.5139
10.6103
10.7048
10.7949
10.8821
10.9656
11.0429
11.1131
11.1775
11.2376
11.2939
11.3462
11.3928
11.4326
11.4656
11.4906
11.5095
11.52
11.524
11.5316
1
1
1
1
1
1
1
1
1
1
1
1
1
1
1
1
1
1
1
1
1
1
1
1
1.00005
5.67069
10.1689
10.3379
10.4502
10.5562
10.6513
10.741
10.8241
10.9002
10.9693
11.0328
11.0925
11.1484
11.2003
11.2478
11.2896
11.3238
11.3499
11.3675
11.3793
11.3869
11.3894
11.3991
1
1
1
1
1
1
1
1
1
1
1
1
1
1
1
1
1
1
1
1
1
1
1
1
1
4.74732
9.9329
10.274
10.3874
10.4946
10.5845
10.666
10.7415
10.8119
10.8772
10.9368
10.9901
11.0398
11.0865
11.1282
11.1639
11.1919
11.2124
11.225
11.2293
11.2257
11.2147
11.2101
1
1
1
1
1
1
1
1
1
1
1
1
1
1
1
1
1
1
1
1
1
1
1
1
1
3.78087
9.58253
10.2309
10.3439
10.4491
10.5357
10.6101
10.6755
10.7352
10.7882
10.8353
10.879
10.9202
10.9584
10.9918
11.0186
11.0376
11.0468
11.041
11.0216
11.0019
10.9795
10.9848
1
1
1
1
1
1
1
1
1
1
1
1
1
1
1
1
1
1
1
1
1
1
1
1
1
2.81196
9.02956
10.2107
10.3037
10.3966
10.4759
10.5461
10.6062
10.6583
10.7033
10.7405
10.7704
10.7962
10.8202
10.8406
10.853
10.8571
10.8474
10.8241
10.7874
10.7508
10.6899
10.6169
1
1
1
1
1
1
1
1
1
1
1
1
1
1
1
1
1
1
1
1
1
1
1
1
1
1.85269
8.29176
10.2854
10.2604
10.3497
10.4228
10.4824
10.5333
10.5765
10.6126
10.6407
10.6601
10.6723
10.6796
10.6833
10.6757
10.658
10.6235
10.567
10.4747
10.3454
10.2107
10.1104
1
1
1
1
1
1
1
1
1
1
1
1
1
1
1
1
1
1
1
1
1
1
1
1
1
1.103
7.29033
10.3433
10.2442
10.2744
10.3299
10.3893
10.4414
10.4829
10.5129
10.5331
10.5413
10.5403
10.5312
10.5147
10.4851
10.4393
10.3668
10.2584
10.1065
9.91832
9.71443
9.63745
1
1
1
1
1
1
1
1
1
1
1
1
1
1
1
1
1
1
1
1
1
1
1
1
1
1.00113
5.99099
9.97456
10.0386
10.1418
10.2212
10.2848
10.3381
10.3785
10.4052
10.4169
10.4154
10.403
10.3766
10.3386
10.2844
10.2067
10.0935
9.93683
9.702
9.3217
8.44823
6.50601
1
1
1
1
1
1
1
1
1
1
1
1
1
1
1
1
1
1
1
1
1
1
1
1
1
0.999991
4.54886
9.6084
9.99356
10.0887
10.1452
10.1878
10.2304
10.2649
10.2868
10.2906
10.2805
10.2575
10.2142
10.1541
10.0731
9.96232
9.8061
9.58248
9.23996
8.64108
7.69539
5.51891
1
1
1
1
1
1
1
1
1
1
1
1
1
1
1
1
1
1
1
1
1
1
1
1
1
0.999998
3.10992
8.97131
9.93996
10.0198
10.0789
10.1128
10.1377
10.1579
10.1694
10.1616
10.1407
10.1051
10.0461
9.96504
9.85731
9.71275
9.51472
9.22994
8.81201
8.14997
7.06841
5.17996
1
1
1
1
1
1
1
1
1
1
1
1
1
1
1
1
1
1
1
1
1
1
1
1
1
1
1.81762
8.13295
9.99612
9.95457
9.9955
10.0292
10.0472
10.0563
10.0539
10.0345
10.0006
9.95075
9.8768
9.77633
9.64339
9.46804
9.2318
8.90596
8.42799
7.76303
6.64156
5.12875
1
1
1
1
1
1
1
1
1
1
1
1
1
1
1
1
1
1
1
1
1
1
1
1
1
1
1.07803
6.75516
9.94584
9.87315
9.88648
9.92714
9.94532
9.94958
9.93519
9.90726
9.86045
9.79551
9.70551
9.58675
9.43174
9.23148
8.96603
8.61376
8.11608
7.46632
6.41129
5.21624
1
1
1
1
1
1
1
1
1
1
1
1
1
1
1
1
1
1
1
1
1
1
1
1
1
1
1.00042
4.98819
9.41817
9.72764
9.80831
9.83638
9.84286
9.83857
9.81488
9.77703
9.71987
9.64239
9.53861
9.40498
9.2324
9.0127
8.72785
8.35991
7.869
7.2393
6.29844
5.34666
1
1
1
1
1
1
1
1
1
1
1
1
1
1
1
1
1
1
1
1
1
1
1
1
1
1
0.999995
3.10989
8.81782
9.69837
9.73266
9.74639
9.75329
9.73881
9.70329
9.65195
9.58237
9.49247
9.37636
9.22927
9.04217
8.80837
8.51288
8.14167
7.66821
7.06867
6.2538
5.46883
1
1
1
1
1
1
1
1
1
1
1
1
1
1
1
1
1
1
1
1
1
1
1
1
1
1
0.999999
1.55117
7.88255
9.81376
9.69058
9.65943
9.64082
9.61707
9.57682
9.51974
9.4429
9.34444
9.21929
9.06439
8.86838
8.62662
8.32562
7.95961
7.50042
6.94292
6.24171
5.56819
1
1
1
1
1
1
1
1
1
1
1
1
1
1
1
1
1
1
1
1
1
1
1
1
1
1
1
1.03109
6.2148
9.41003
9.47433
9.50829
9.50281
9.48161
9.44251
9.38503
9.30523
9.20116
9.06833
8.90656
8.70523
8.46156
8.16228
7.80422
7.35922
6.84744
6.24034
5.65688
1
1
1
1
1
1
1
1
1
1
1
1
1
1
1
1
1
1
1
1
1
1
1
1
1
1
1
0.999956
4.01565
8.95873
9.40342
9.43719
9.41819
9.38754
9.34101
9.27552
9.18667
9.0736
8.93201
8.7629
8.5586
8.31535
8.0242
7.67318
7.25108
6.77936
6.25094
5.73188
1
1
1
1
1
1
1
1
1
1
1
1
1
1
1
1
1
1
1
1
1
1
1
1
1
1
1
0.999984
2.00437
8.15982
9.42216
9.36401
9.31792
9.27601
9.22383
9.15476
9.06202
8.94505
8.8005
8.62727
8.42269
8.18155
7.89828
7.5596
7.1665
6.73033
6.26408
5.78657
1
1
1
1
1
1
1
1
1
1
1
1
1
1
1
1
1
1
1
1
1
1
1
1
1
1
1
0.999997
1.09168
6.44416
9.23797
9.22985
9.2001
9.16508
9.1142
9.04329
8.94749
8.8275
8.68109
8.50733
8.30378
8.06381
7.786
7.46421
7.09978
6.70079
6.28353
5.84166
1
1
1
1
1
1
1
1
1
1
1
1
1
1
1
1
1
1
1
1
1
1
1
1
1
1
1
1
1.00047
3.94767
8.70155
9.13026
9.11672
9.09376
9.03676
8.95548
8.84969
8.7233
8.57231
8.39599
8.19667
7.95831
7.68637
7.38504
7.04479
6.67846
6.29627
5.88481
1
1
1
1
1
1
1
1
1
1
1
1
1
1
1
1
1
1
1
1
1
1
1
1
1
1
1
1
0.999996
1.71419
7.84173
9.24974
9.09162
9.00619
8.93528
8.84858
8.7426
8.61876
8.46988
8.29637
8.09712
7.86729
7.60468
7.31983
6.99967
6.66352
6.30567
5.92765
1
1
1
1
1
1
1
1
1
1
1
1
1
1
1
1
1
1
1
1
1
1
1
1
1
1
1
1
0.999999
1.04425
5.92583
8.87807
8.88888
8.87899
8.82173
8.74095
8.64127
8.52199
8.37652
8.20628
8.01017
7.78605
7.53504
7.2623
6.96052
6.6474
6.30891
5.96357
1
1
1
1
1
1
1
1
1
1
1
1
1
1
1
1
1
1
1
1
1
1
1
1
1
1
1
1
1
1.00001
3.14398
8.21031
8.81481
8.81698
8.7626
8.67717
8.57171
8.44815
8.30004
8.12923
7.93596
7.71641
7.47527
7.2126
6.92812
6.63143
6.31504
5.99606
1
1
1
1
1
1
1
1
1
1
1
1
1
1
1
1
1
1
1
1
1
1
1
1
1
1
1
1
1
0.999994
1.31403
6.86442
8.9016
8.77565
8.69048
8.59456
8.48777
8.3655
8.21898
8.05064
7.86218
7.65129
7.42101
7.16976
6.90039
6.61652
6.32084
6.02039
1
1
1
1
1
1
1
1
1
1
1
1
1
1
1
1
1
1
1
1
1
1
1
1
1
1
1
1
1
0.999999
1.0081
4.36335
8.37122
8.59913
8.57135
8.51076
8.41776
8.29737
8.15049
7.98351
7.79884
7.59546
7.37379
7.13292
6.8758
6.60412
6.32586
6.03965
1
1
1
1
1
1
1
1
1
1
1
1
1
1
1
1
1
1
1
1
1
1
1
1
1
1
1
1
1
1
0.999971
1.69399
7.4281
8.74117
8.57812
8.47377
8.36605
8.2348
8.08526
7.92005
7.73837
7.54033
7.32599
7.09566
6.8506
6.5928
6.32926
6.05713
1
1
1
1
1
1
1
1
1
1
1
1
1
1
1
1
1
1
1
1
1
1
1
1
1
1
1
1
1
1
0.999993
1.03983
5.27834
8.37032
8.42999
8.38594
8.28657
8.15854
8.01495
7.85551
7.67853
7.48648
7.28051
7.06136
6.82852
6.58377
6.33237
6.07397
1
1
1
1
1
1
1
1
1
1
1
1
1
1
1
1
1
1
1
1
1
1
1
1
1
1
1
1
1
1
0.999999
1.00004
2.25966
7.61663
8.47759
8.35496
8.23353
8.10225
7.95954
7.80153
7.62743
7.43995
7.24032
7.02866
6.80512
6.57257
6.3339
6.0901
1
1
1
1
1
1
1
1
1
1
1
1
1
1
1
1
1
1
1
1
1
1
1
1
1
1
1
1
1
1
1
1
1.11593
5.71406
8.33059
8.25119
8.14888
8.0263
7.89124
7.73963
7.5726
7.39202
7.19981
6.99551
6.782
6.56302
6.33788
6.10637
1
1
1
1
1
1
1
1
1
1
1
1
1
1
1
1
1
1
1
1
1
1
1
1
1
1
1
1
1
1
1
1
1.00095
2.61209
7.59954
8.22333
8.10893
7.98944
7.85368
7.70157
7.53659
7.36049
7.17391
6.97715
6.77219
6.56144
6.34479
6.12195
1
1
1
1
1
1
1
1
1
1
1
1
1
1
1
1
1
1
1
1
1
1
1
1
1
1
1
1
1
1
1
1
1
1.1778
5.75705
8.17042
8.06462
7.95024
7.81161
7.65994
7.49729
7.32516
7.1433
6.95276
6.75547
6.55276
6.34519
6.1342
1
1
1
1
1
1
1
1
1
1
1
1
1
1
1
1
1
1
1
1
1
1
1
1
1
1
1
1
1
1
1
1
1
1.00245
2.61125
7.39816
8.02002
7.90145
7.77098
7.623
7.46284
7.29484
7.11955
6.9377
6.74997
6.55613
6.35604
6.15284
1
1
1
1
1
1
1
1
1
1
1
1
1
1
1
1
1
1
1
1
1
1
1
1
1
1
1
1
1
1
1
1
1
1
1.17848
5.53956
7.99303
7.88035
7.74359
7.58753
7.42818
7.26545
7.09825
6.92501
6.74436
6.55668
6.36297
6.16484
1
1
1
1
1
1
1
1
1
1
1
1
1
1
1
1
1
1
1
1
1
1
1
1
1
1
1
1
1
1
1
1
1
1
1.00258
2.4071
7.11228
7.83192
7.68279
7.54335
7.39536
7.24304
7.08354
6.91629
6.74097
6.55888
6.37206
6.18073
1
1
1
1
1
1
1
1
1
1
1
1
1
1
1
1
1
1
1
1
1
1
1
1
1
1
1
1
1
1
1
1
1
1
1.00001
1.13802
5.06079
7.73594
7.6625
7.52604
7.37853
7.22888
7.07145
6.907
6.73633
6.56011
6.37911
6.19496
1
1
1
1
1
1
1
1
1
1
1
1
1
1
1
1
1
1
1
1
1
1
1
1
1
1
1
1
1
1
1
1
1
1
1
1.00173
2.10065
6.66566
7.64052
7.47899
7.35582
7.21196
7.05868
6.89858
6.7333
6.5637
6.38978
6.2128
1
1
1
1
1
1
1
1
1
1
1
1
1
1
1
1
1
1
1
1
1
1
1
1
1
1
1
1
1
1
1
1
1
1
1
1
1.08582
4.21729
7.38111
7.46922
7.34262
7.20052
7.05074
6.89514
6.73502
6.57062
6.40344
6.23313
1
1
1
1
1
1
1
1
1
1
1
1
1
1
1
1
1
1
1
1
1
1
1
1
1
1
1
1
1
1
1
1
1
1
1
1
1.00092
1.68309
5.99423
7.51061
7.33374
7.19489
7.04809
6.89811
6.74412
6.58395
6.41954
6.25262
1
1
1
1
1
1
1
1
1
1
1
1
1
1
1
1
1
1
1
1
1
1
1
1
1
1
1
1
1
1
1
1
1
1
1
1
1
1.03522
3.1323
6.87958
7.30899
7.18224
7.0447
6.89884
6.74785
6.59143
6.42841
6.26204
1
1
1
1
1
1
1
1
1
1
1
1
1
1
1
1
1
1
1
1
1
1
1
1
1
1
1
1
1
1
1
1
1
1
1
1
1
1.00031
1.3082
5.03242
7.3225
7.19981
7.06167
6.91296
6.76066
6.60496
6.44461
6.28001
1
1
1
1
1
1
1
1
1
1
1
1
1
1
1
1
1
1
1
1
1
1
1
1
1
1
1
1
1
1
1
1
1
1
1
1
1
1
1.00834
2.20039
6.28041
7.16816
7.03454
6.8963
6.74858
6.59699
6.445
6.29105
1
1
1
1
1
1
1
1
1
1
1
1
1
1
1
1
1
1
1
1
1
1
1
1
1
1
1
1
1
1
1
1
1
1
1
1
1
1
1.00005
1.10206
3.74331
6.81601
7.04236
6.91487
6.76953
6.6206
6.47044
6.31968
1
1
1
1
1
1
1
1
1
1
1
1
1
1
1
1
1
1
1
1
1
1
1
1
1
1
1
1
1
1
1
1
1
1
1
1
1
1
1
1.00151
1.51156
5.2188
7.03327
6.93072
6.78299
6.63764
6.48939
6.33855
1
1
1
1
1
1
1
1
1
1
1
1
1
1
1
1
1
1
1
1
1
1
1
1
1
1
1
1
1
1
1
1
1
1
1
1
1
1
1
1.00001
1.02129
2.4197
6.16463
6.90141
6.77921
6.63488
6.49234
6.34733
1
1
1
1
1
1
1
1
1
1
1
1
1
1
1
1
1
1
1
1
1
1
1
1
1
1
1
1
1
1
1
1
1
1
1
1
1
1
1
1
1.00019
1.14175
3.75109
6.57337
6.79836
6.66676
6.52024
6.37723
1
1
1
1
1
1
1
1
1
1
1
1
1
1
1
1
1
1
1
1
1
1
1
1
1
1
1
1
1
1
1
1
1
1
1
1
1
1
1
1
1
1.00266
1.5247
4.96607
6.72958
6.69439
6.54793
6.40359
1
1
1
1
1
1
1
1
1
1
1
1
1
1
1
1
1
1
1
1
1
1
1
1
1
1
1
1
1
1
1
1
1
1
1
1
1
1
1
1
1
1.00001
1.02292
2.26582
5.78296
6.6612
6.56213
6.41838
1
1
1
1
1
1
1
1
1
1
1
1
1
1
1
1
1
1
1
1
1
1
1
1
1
1
1
1
1
1
1
1
1
1
1
1
1
1
1
1
1
1
1.00022
1.11555
3.28585
6.23922
6.58395
6.45362
1
1
1
1
1
1
1
1
1
1
1
1
1
1
1
1
1
1
1
1
1
1
1
1
1
1
1
1
1
1
1
1
1
1
1
1
1
1
1
1
1
1
1
1.00207
1.36907
4.36774
6.38462
6.47952
1
1
1
1
1
1
1
1
1
1
1
1
1
1
1
1
1
1
1
1
1
1
1
1
1
1
1
1
1
1
1
1
1
1
1
1
1
1
1
1
1
1
1
1.00001
1.01307
1.86695
5.14423
6.40774
1
1
1
1
1
1
1
1
1
1
1
1
1
1
1
1
1
1
1
1
1
1
1
1
1
1
1
1
1
1
1
1
1
1
1
1
1
1
1
1
1
1
1
1
1.00011
1.05818
2.56428
5.6665
1
1
1
1
1
1
1
1
1
1
1
1
1
1
1
1
1
1
1
1
1
1
1
1
1
1
1
1
1
1
1
1
1
1
1
1
1
1
1
1
1
1
1
1
1
1.00084
1.17856
3.37401
1
1
1
1
1
1
1
1
1
1
1
1
1
1
1
1
1
1
1
1
1
1
1
1
1
1
1
1
1
1
1
1
1
1
1
1
1
1
1
1
1
1
1
1
1
1
1.00421
1.41745
1
1
1
1
1
1
1
1
1
1
1
1
1
1
1
1
1
1
1
1
1
1
1
1
1
1
1
1
1
1
1
1
1
1
1
1
1
1
1
1
1
1
1
1
1
1
1.00003
1.01677
1
1
1
1
1
1
1
1
1
1
1
1
1
1
1
1
1
1
1
1
1
1
1
1
1
1
1
1
1
1
1
1
1
1
1
1
1
1
1
1
1
1
1
1
1
1
1
1.00016
1
1
1
1
1
1
1
1
1
1
1
1
1
1
1
1
1
1
1
1
1
1
1
1
1
1
1
1
1
1
1
1
1
1
1
1
1
1
1
1
1
1
1
1
1
1
1
1
1
1
1
1
1
1
1
1
1
1
1
1
1
1
1
1
1
1
1
1
1
1
1
1
1
1
1
1
1
1
1
1
1
1
1
1
1
1
1
1
1
1
1
1
1
1
1
1
1
1
1
1
1
1
1
1
1
1
1
1
1
1
1
1
1
1
1
1
1
1
1
1
1
1
1
1
1
1
1
1
1
1
1
1
1
1
1
1
1
1
1
1
1
1
1
1
1
1
1
1
1
1
1
1
1
1
1
1
1
1
1
1
1
1
1
1
1
1
1
1
1
1
1
1
1
1
1
1
1
1
1
1
1
1
1
1
1
1
1
1
1
1
1
1
1
1
1
1
1
1
1
1
1
1
1
1
1
1
1
1
1
1
1
1
1
1
1
1
1
1
1
1
1
1
1
1
1
1
1
1
1
1
1
1
1
1
1
1
1
1
1
1
1
1
1
1
1
1
1
1
1
1
1
1
1
1
1
1
1
1
1
1
1
1
1
1
1
1
1
1
1
1
1
1
1
1
1
1
1
1
1
1
1
1
1
1
1
1
1
1
1
1
1
1
1
1
1
1
1
1
1
1
1
1
1
1
1
1
1
1
1
1
1
1
1
1
1
1
1
1
1
1
1
1
1
1
1
1
1
1
1
1
1
1
1
1
1
1
1
1
1
1
1
1
1
1
1
1
1
1
1
1
1
1
1
1
1
1
1
1
1
1
1
1
1
1
1
1
1
1
1
1
1
1
1
1
1
1
1
1
1
1
1
1
1
1
1
1
1
1
1
1
1
1
1
1
1
1
1
1
1
1
1
1
1
1
1
1
1
1
1
1
1
1
1
1
1
1
1
1
1
1
1
1
1
1
1
1
1
1
1
1
1
1
1
1
1
1
1
1
1
1
1
1
1
1
1
1
1
1
1
1
1
1
1
1
1
1
1
1
1
1
1
1
1
1
1
1
1
1
1
1
1
1
1
1
1
1
1
1
1
1
1
1
1
1
1
1
1
1
1
1
1
1
1
1
1
1
1
1
1
1
1
1
1
1
1
1
1
1
1
1
1
1
1
1
1
1
1
1
1
1
1
1
1
1
1
1
1
1
1
1
1
1
1
1
1
1
1
1
1
1
1
1
1
1
1
1
1
1
1
1
1
1
1
1
1
1
1
1
1
1
1
1
1
1
1
1
1
1
1
1
1
1
1
1
1
1
1
1
1
1
1
1
1
1
1
1
1
1
1
1
1
1
1
1
1
1
1
1
1
1
1
1
1
1
1
1
1
1
1
1
1
1
1
1
1
1
1
1
1
1
1
1
1
1
1
1
1
1
1
1
1
1
1
1
1
1
1
1
1
1
1
1
1
1
1
1
1
1
1
1
1
1
1
1
1
1
1
1
1
1
1
1
1
1
1
1
1
1
1
1
1
1
1
1
1
1
1
1
1
1
1
1
1
1
1
1
1
1
1
1
1
1
1
1
1
1
1
1
1
1
1
1
1
1
1
1
1
1
1
1
1
1
1
1
1
1
1
1
1
1
1
1
1
1
1
1
1
1
1
1
1
1
1
1
1
1
1
1
1
1
1
1
1
1
1
1
1
1
1
1
1
1
1
1
1
1
1
1
1
1
1
1
1
1
1
1
1
1
1.22071
0.292574
0.0580113
0.0121124
0.0196688
0.0555858
0.130746
0.168914
0.198929
0.290658
0.379536
0.440111
0.48944
0.543371
0.593611
0.666563
0.728147
0.791155
0.873043
0.936515
0.977019
0.989874
1.01569
1.02985
1.04344
1.05199
1.05812
1.0735
1.09868
1.13235
1.1591
1.17779
1.1914
1.19901
1.20811
1.22081
1.22664
1.22974
1.23166
1.23283
1.23495
1.24193
1.26166
1.28358
1.29048
1.29424
1.29801
1.29991
1.30006
1.30254
1.30906
1.31419
1.31677
1.31951
1.32565
1.3322
1.33328
1.33278
1.32902
1.32477
1.32311
1.32268
1.32666
1.33498
1.33802
1.33446
1.32715
1.31688
1.31075
1.31048
1.31285
1.31699
1.32049
1.34874
2.7607
6.52014
7.14224
6.94562
6.71555
6.52911
6.4632
6.46298
6.45331
6.36866
6.28338
6.21087
6.14269
6.07676
6.01378
5.94843
5.87473
5.79723
5.72194
5.65165
5.58751
5.52814
5.46572
5.39683
5.32907
5.26916
5.22276
5.19172
5.16009
5.10586
5.04203
4.97274
4.89192
4.8144
4.7605
4.71976
4.70213
4.70405
4.69021
4.65089
4.60169
4.52516
4.42418
4.35771
4.31909
4.28971
4.2736
4.24707
4.20982
4.15829
4.08039
4.01425
3.97625
3.9445
3.92208
3.9101
3.88577
3.85698
3.8274
3.79145
3.74941
3.72156
3.69918
3.67987
3.65832
3.62935
3.59207
3.53253
3.45387
3.3879
3.34998
3.32655
3.30744
3.2954
3.29044
3.27624
3.25487
3.23083
3.19619
3.15813
3.13464
3.11594
3.09803
3.07758
3.04981
3.00714
2.94795
2.89484
2.86127
2.83926
2.82129
2.80441
2.78914
2.77642
2.7649
2.753
2.74065
2.72756
2.71121
2.68853
2.6581
2.61956
2.57352
2.53117
2.50213
2.48449
2.47149
2.46188
2.45922
2.45595
2.44489
2.42836
2.39383
2.33711
2.29222
2.27235
2.26451
2.25146
2.13084
1.10828
0.607862
0.295895
0.17515
0.182556
0.234278
0.238488
0.224374
0.226538
0.244165
0.272424
0.306376
0.344919
0.408032
0.484834
0.566644
0.630027
0.685666
0.748703
0.834514
0.925609
0.964094
0.982269
1.01081
1.03469
1.05191
1.0703
1.08859
1.11705
1.15007
1.16829
1.17628
1.18422
1.18976
1.19325
1.20344
1.21732
1.23427
1.24606
1.24731
1.24678
1.25195
1.26431
1.27788
1.28933
1.29772
1.30294
1.30554
1.3061
1.30544
1.30564
1.30666
1.3099
1.31773
1.32805
1.33282
1.3333
1.33108
1.3236
1.3162
1.31373
1.31572
1.32429
1.33295
1.33431
1.33276
1.32907
1.32204
1.31647
1.31353
1.31291
1.341
1.56029
2.60173
5.85851
6.93249
6.77941
6.53101
6.42003
6.39856
6.42866
6.43335
6.36572
6.27994
6.196
6.11439
6.04216
5.97716
5.91094
5.83844
5.76207
5.68624
5.61424
5.55002
5.49738
5.44901
5.39905
5.34949
5.30152
5.25377
5.19949
5.13604
5.07451
5.01816
4.9586
4.89808
4.83914
4.78117
4.73366
4.70129
4.68313
4.65651
4.61952
4.57417
4.5182
4.45914
4.39435
4.33396
4.29197
4.25982
4.23294
4.20081
4.15748
4.10294
4.04606
3.99661
3.95938
3.93235
3.91411
3.8881
3.85941
3.82946
3.79119
3.74397
3.7064
3.67964
3.65472
3.63221
3.61016
3.58026
3.54066
3.49231
3.43344
3.37553
3.33803
3.31588
3.29836
3.2831
3.26488
3.24309
3.21877
3.19092
3.16016
3.13214
3.10893
3.08655
3.06304
3.03732
3.00495
2.96505
2.9223
2.88088
2.84877
2.8273
2.8105
2.79611
2.78292
2.76762
2.751
2.73111
2.70852
2.68659
2.66485
2.64249
2.61763
2.58856
2.55613
2.52222
2.49533
2.47899
2.46794
2.45742
2.44473
2.43099
2.41273
2.38537
2.34832
2.3135
2.28547
2.26949
2.2513
2.9433
1.6402
1.15843
0.872137
0.568136
0.412538
0.405739
0.375337
0.30791
0.29583
0.310054
0.314105
0.321329
0.346057
0.38733
0.423601
0.462591
0.51216
0.552189
0.597056
0.671966
0.785513
0.863676
0.903028
0.954353
1.01162
1.05283
1.08069
1.09481
1.11851
1.15703
1.18136
1.19374
1.20394
1.20337
1.19102
1.18819
1.19589
1.21382
1.2428
1.26363
1.26827
1.26885
1.2716
1.27596
1.28143
1.28831
1.29702
1.30582
1.31128
1.3139
1.31435
1.31361
1.31497
1.31754
1.32191
1.32614
1.32947
1.33146
1.33092
1.32814
1.32419
1.32243
1.32428
1.32663
1.32761
1.32871
1.32771
1.32386
1.31955
1.32003
1.35647
1.58771
2.31532
2.8719
4.15517
6.01789
6.72325
6.66527
6.56493
6.50297
6.46022
6.41149
6.38423
6.32087
6.23772
6.14456
6.06034
5.98769
5.91707
5.84787
5.77919
5.70374
5.62473
5.54402
5.47508
5.41511
5.36538
5.33076
5.31123
5.28691
5.23502
5.16823
5.08632
4.99521
4.92455
4.87767
4.83792
4.80231
4.76826
4.72531
4.67272
4.61695
4.56455
4.51965
4.48789
4.46168
4.42523
4.37981
4.31988
4.25562
4.20607
4.16455
4.12855
4.09624
4.06263
4.02602
3.99006
3.95807
3.92674
3.89629
3.86673
3.83406
3.79117
3.73633
3.68752
3.65541
3.62901
3.60278
3.57455
3.54999
3.52994
3.50583
3.47714
3.43539
3.38101
3.33332
3.30235
3.27819
3.25528
3.23133
3.20631
3.18112
3.15451
3.12542
3.09682
3.06986
3.0426
3.0133
2.98568
2.96354
2.94116
2.91382
2.8786
2.84537
2.82364
2.80653
2.78852
2.76861
2.74568
2.71914
2.69059
2.6635
2.6396
2.61698
2.59793
2.58464
2.57025
2.55216
2.52685
2.49782
2.47268
2.45191
2.43073
2.40726
2.38429
2.36352
2.34659
2.33097
2.31076
2.28544
2.25146
3.52814
2.35758
1.70328
1.33242
1.02134
0.782726
0.702338
0.619999
0.496693
0.47683
0.476916
0.463124
0.443299
0.437703
0.423505
0.417382
0.422661
0.437519
0.455021
0.469527
0.496824
0.563708
0.659893
0.740564
0.811203
0.891844
0.952266
1.00283
1.03778
1.07706
1.1289
1.15908
1.16705
1.17964
1.18908
1.18906
1.18741
1.19672
1.21599
1.23985
1.25483
1.25918
1.26205
1.26551
1.27073
1.2747
1.278
1.28173
1.28616
1.28964
1.29373
1.30045
1.30976
1.31685
1.31979
1.31922
1.3179
1.31997
1.32336
1.32659
1.33
1.33115
1.33203
1.33229
1.33034
1.32791
1.32555
1.31977
1.31347
1.31447
1.34474
1.62257
2.27528
3.09352
3.20564
3.31259
4.17145
5.66156
6.48823
6.65404
6.56384
6.43641
6.33654
6.32557
6.29887
6.22808
6.13956
6.04094
5.96139
5.88698
5.8236
5.76654
5.70204
5.63446
5.55868
5.47865
5.4158
5.36429
5.32523
5.30173
5.27091
5.22094
5.16356
5.09398
5.005
4.92136
4.86909
4.82956
4.79855
4.76602
4.72398
4.67034
4.60494
4.54683
4.50704
4.4763
4.45251
4.42478
4.38849
4.33809
4.26785
4.20217
4.15677
4.12398
4.09543
4.07009
4.04436
4.01438
3.97759
3.93447
3.8934
3.85752
3.82142
3.78049
3.73407
3.68555
3.64083
3.60325
3.57074
3.54414
3.5243
3.51049
3.50032
3.48333
3.45954
3.42388
3.37226
3.32263
3.28718
3.25818
3.23026
3.20259
3.17518
3.14643
3.11441
3.08022
3.04659
3.01504
2.98942
2.97193
2.95892
2.94669
2.92925
2.90779
2.87823
2.84439
2.81674
2.7946
2.77204
2.74417
2.70838
2.67055
2.63894
2.61452
2.59754
2.58629
2.57944
2.57564
2.56706
2.55194
2.52632
2.48594
2.4446
2.4143
2.38931
2.36567
2.35
2.3416
2.33264
2.32182
2.30576
2.2611
3.97871
2.97471
2.30019
1.82797
1.45481
1.20976
1.06334
0.913258
0.746876
0.687634
0.654382
0.611226
0.585259
0.569903
0.545615
0.507043
0.487795
0.492757
0.50628
0.508258
0.503408
0.495233
0.503264
0.524883
0.563125
0.639307
0.743631
0.856197
0.95505
1.01798
1.0753
1.11102
1.11484
1.12595
1.14788
1.15932
1.17317
1.19936
1.22064
1.23316
1.24525
1.25967
1.27067
1.27814
1.2807
1.27652
1.27274
1.27251
1.272
1.2735
1.27951
1.29629
1.31973
1.331
1.33323
1.33087
1.3181
1.30723
1.30511
1.30786
1.31546
1.32431
1.32783
1.32843
1.32817
1.32817
1.32525
1.32294
1.32319
1.35151
1.59468
2.37506
3.00296
3.32349
3.31262
3.26237
3.32719
4.01767
5.45704
6.3184
6.6394
6.51271
6.39456
6.32182
6.28486
6.22142
6.15195
6.0513
5.93775
5.85337
5.79108
5.74618
5.69692
5.63987
5.5721
5.4908
5.42273
5.37302
5.33269
5.2987
5.25241
5.19992
5.14275
5.07805
5.0038
4.93269
4.8822
4.84261
4.80215
4.75823
4.70751
4.64555
4.58238
4.54058
4.50856
4.48133
4.45602
4.42292
4.38338
4.32902
4.25746
4.19194
4.15215
4.124
4.09987
4.08085
4.0597
4.03159
3.99431
3.94284
3.8867
3.83745
3.79498
3.7563
3.71891
3.67869
3.63274
3.5871
3.55417
3.53256
3.51413
3.50046
3.49129
3.47638
3.45573
3.43084
3.39195
3.33873
3.2932
3.26235
3.23664
3.21126
3.18372
3.15042
3.10677
3.05628
3.01543
2.99072
2.97506
2.96391
2.95833
2.95218
2.93813
2.92068
2.8989
2.86564
2.82432
2.79064
2.76329
2.73336
2.69658
2.65611
2.62327
2.60466
2.59341
2.58512
2.58099
2.57857
2.57082
2.55881
2.54132
2.50584
2.44724
2.39685
2.36918
2.35453
2.3464
2.34021
2.33294
2.32335
2.31267
2.27068
4.35768
3.47728
2.84237
2.34461
1.90562
1.63334
1.41652
1.21505
1.03928
0.958721
0.889109
0.805008
0.747907
0.719919
0.695779
0.661985
0.609932
0.577498
0.578562
0.579793
0.569276
0.551626
0.53756
0.529319
0.527588
0.536835
0.564513
0.621171
0.715579
0.81477
0.89207
0.959321
0.999856
1.03061
1.08725
1.12235
1.14874
1.18487
1.20192
1.20944
1.22363
1.24093
1.25441
1.26308
1.26509
1.26252
1.25924
1.26427
1.2698
1.2736
1.2842
1.30718
1.32231
1.3252
1.32631
1.32478
1.31326
1.30026
1.29837
1.30197
1.31335
1.32831
1.33272
1.33337
1.33318
1.33044
1.32537
1.32693
1.36113
1.59732
2.3739
3.04501
3.29104
3.35829
3.33335
3.28544
3.25673
3.31398
3.88894
5.14645
6.24634
6.44318
6.41793
6.33542
6.25545
6.17803
6.12366
6.03922
5.92921
5.84336
5.78135
5.74027
5.6992
5.64957
5.59325
5.52129
5.4418
5.38306
5.33594
5.29189
5.24105
5.18653
5.12985
5.07016
5.00699
4.94463
4.88824
4.83764
4.7894
4.74107
4.69038
4.63651
4.5863
4.54763
4.51592
4.48747
4.45554
4.41824
4.37051
4.31492
4.25862
4.20617
4.16174
4.12977
4.10495
4.08571
4.06212
4.03087
3.98542
3.92848
3.87241
3.82316
3.78186
3.74705
3.7151
3.68197
3.6442
3.60198
3.56183
3.53187
3.51109
3.49393
3.48131
3.46634
3.44559
3.42129
3.38857
3.34356
3.29703
3.26364
3.23903
3.21575
3.18996
3.1568
3.11006
3.05076
3.00231
2.97958
2.96532
2.95435
2.95055
2.95208
2.94423
2.92826
2.90939
2.88204
2.83774
2.78652
2.74545
2.7118
2.67952
2.64907
2.62398
2.60587
2.59385
2.58537
2.57976
2.57409
2.56468
2.55326
2.53716
2.50578
2.45402
2.39904
2.36515
2.35105
2.34231
2.33621
2.33101
2.32236
2.31205
2.27113
4.63018
3.85998
3.29633
2.79147
2.31812
2.03563
1.79762
1.5355
1.32192
1.21156
1.11634
1.01635
0.956117
0.891386
0.821817
0.791895
0.761491
0.707847
0.671917
0.66718
0.6609
0.648177
0.631137
0.610208
0.580063
0.568352
0.570392
0.57566
0.590324
0.615688
0.652073
0.703726
0.778908
0.851184
0.927537
1.01599
1.08247
1.1476
1.18072
1.1819
1.1922
1.20871
1.23003
1.2451
1.25161
1.25327
1.25379
1.26068
1.26697
1.27203
1.28266
1.30053
1.31084
1.31398
1.3159
1.31532
1.30959
1.30391
1.30235
1.30449
1.31393
1.32601
1.32901
1.32907
1.32772
1.32302
1.32458
1.35913
1.6616
2.33585
3.1129
3.27951
3.34006
3.33898
3.33669
3.28761
3.24503
3.22223
3.26209
3.67643
4.84461
6.03131
6.28914
6.33135
6.23623
6.16977
6.10384
6.01983
5.92218
5.84022
5.78029
5.73537
5.68699
5.63399
5.5768
5.51309
5.44429
5.37942
5.32698
5.27828
5.22835
5.17544
5.11898
5.06055
5.00062
4.93685
4.87322
4.81639
4.76728
4.72215
4.67998
4.64024
4.6006
4.55943
4.51878
4.48012
4.43928
4.39115
4.34053
4.29522
4.25823
4.2232
4.18456
4.14271
4.10632
4.07562
4.04085
3.99762
3.94835
3.89998
3.85544
3.81367
3.77577
3.74345
3.71432
3.68626
3.65763
3.62616
3.58995
3.54971
3.51284
3.48757
3.46737
3.44785
3.42661
3.40312
3.37624
3.34389
3.3055
3.26897
3.2386
3.21077
3.18066
3.14673
3.10868
3.06741
3.02433
2.98615
2.96365
2.9497
2.93962
2.93721
2.93417
2.92102
2.90293
2.87867
2.84054
2.78603
2.73364
2.69812
2.67454
2.65606
2.63803
2.6181
2.59944
2.58648
2.5763
2.56722
2.5598
2.54581
2.52113
2.48639
2.45025
2.41964
2.39049
2.36057
2.34051
2.32988
2.32066
2.3114
2.30013
2.26278
4.85537
4.18384
3.65146
3.16959
2.72355
2.38632
2.12412
1.85116
1.62585
1.48356
1.34442
1.20404
1.13933
1.0835
0.996961
0.939719
0.90273
0.852585
0.811372
0.786715
0.762969
0.747458
0.727411
0.697292
0.659481
0.631795
0.623588
0.611876
0.605624
0.612263
0.621778
0.627141
0.636553
0.660513
0.701431
0.781589
0.875389
0.965304
1.07284
1.12858
1.15086
1.16789
1.19036
1.21374
1.23079
1.23949
1.24425
1.24874
1.25534
1.26935
1.28633
1.29213
1.29279
1.28985
1.28906
1.29388
1.3005
1.30638
1.30919
1.31202
1.31689
1.32206
1.32291
1.32209
1.31989
1.31845
1.34912
1.67242
2.5014
2.99973
3.28252
3.37382
3.3765
3.35896
3.32937
3.29312
3.24251
3.19923
3.18482
3.20083
3.48473
4.52795
5.68728
6.18515
6.17571
6.12873
6.06724
5.97973
5.90575
5.84452
5.78329
5.72395
5.65972
5.59916
5.54348
5.49427
5.44096
5.37839
5.31028
5.25241
5.20057
5.14847
5.09625
5.04306
4.98601
4.92246
4.85538
4.79985
4.75749
4.71987
4.68635
4.65308
4.61341
4.56871
4.5192
4.46705
4.41309
4.3654
4.32751
4.29545
4.26978
4.24263
4.20756
4.16337
4.10799
4.05168
4.00155
3.95767
3.91778
3.88241
3.85054
3.8177
3.78075
3.74411
3.71288
3.68741
3.66429
3.6403
3.61184
3.57721
3.53452
3.49008
3.45965
3.4403
3.42155
3.39693
3.36947
3.3366
3.30103
3.26339
3.2275
3.1951
3.1645
3.13522
3.10948
3.08613
3.05845
3.02006
2.97892
2.95336
2.93851
2.92816
2.92092
2.908
2.88862
2.86351
2.82965
2.78482
2.73609
2.69974
2.6785
2.66259
2.64781
2.63287
2.61628
2.59794
2.58052
2.56125
2.53734
2.51255
2.48558
2.46061
2.4441
2.43013
2.4124
2.38567
2.35326
2.33158
2.31986
2.30621
2.28559
2.2484
5.02057
4.43675
3.94322
3.46112
3.05364
2.72312
2.42328
2.1293
1.90047
1.72895
1.58352
1.43192
1.33359
1.25727
1.16315
1.09467
1.04485
0.989532
0.949226
0.91472
0.869159
0.831268
0.812651
0.790539
0.759718
0.725532
0.711012
0.699257
0.684352
0.673375
0.662086
0.65013
0.643296
0.63523
0.635215
0.644342
0.67203
0.722484
0.807238
0.908615
1.00185
1.0827
1.13456
1.1741
1.19753
1.20871
1.21018
1.21378
1.23143
1.26396
1.2867
1.29142
1.28749
1.27158
1.26298
1.26688
1.2803
1.30063
1.31078
1.31539
1.32055
1.3244
1.32355
1.31889
1.314
1.34687
1.6382
2.54999
3.11622
3.26958
3.32213
3.34346
3.34389
3.33267
3.30634
3.27259
3.23043
3.18808
3.16551
3.15336
3.15705
3.34357
4.15016
5.36301
6.00792
6.05578
6.0193
5.94325
5.89468
5.85032
5.79383
5.72503
5.65146
5.58071
5.51623
5.46885
5.4244
5.37087
5.30451
5.23653
5.17846
5.12558
5.07773
5.03116
4.98045
4.91755
4.84586
4.7944
4.7572
4.72673
4.70169
4.66835
4.62795
4.57941
4.51543
4.44716
4.39562
4.35972
4.32885
4.30449
4.28217
4.25009
4.21357
4.16575
4.10068
4.03288
3.97852
3.93772
3.90709
3.88108
3.85506
3.82555
3.78782
3.74228
3.71244
3.69053
3.66773
3.64334
3.62002
3.59444
3.56226
3.51895
3.46783
3.42253
3.38923
3.36311
3.33775
3.31531
3.28902
3.25263
3.20885
3.17412
3.15141
3.13312
3.11766
3.10457
3.08725
3.0613
3.01848
2.96663
2.92534
2.89683
2.87764
2.86268
2.8478
2.82969
2.80868
2.78566
2.75676
2.72288
2.69334
2.67451
2.6613
2.64909
2.63403
2.6079
2.57071
2.53426
2.50429
2.48011
2.46256
2.45037
2.43989
2.43092
2.42008
2.40567
2.38059
2.34368
2.30663
2.27773
2.25741
2.23435
5.17124
4.6514
4.17172
3.71945
3.34517
3.00209
2.67197
2.38983
2.17247
1.97741
1.78293
1.64061
1.54279
1.45696
1.35618
1.25763
1.18439
1.11758
1.07915
1.05093
1.00923
0.944169
0.898662
0.872676
0.848064
0.828494
0.808863
0.783589
0.762552
0.750889
0.734201
0.709834
0.677824
0.660735
0.651057
0.650823
0.656351
0.665245
0.680806
0.709673
0.756409
0.82846
0.912855
0.994254
1.06191
1.12018
1.144
1.15953
1.19819
1.25735
1.29003
1.29324
1.28943
1.26473
1.24586
1.24797
1.25815
1.28076
1.30091
1.30903
1.31422
1.31658
1.31708
1.32179
1.36952
1.6692
2.48402
3.22179
3.32261
3.33289
3.30779
3.30156
3.30522
3.29731
3.2861
3.26591
3.22344
3.18165
3.15755
3.14097
3.12964
3.12633
3.23505
3.82908
5.0212
5.70207
5.92391
5.91354
5.87951
5.85649
5.79187
5.72721
5.65566
5.57526
5.50088
5.44863
5.40099
5.35352
5.29961
5.23477
5.16552
5.10561
5.05582
5.01366
4.97185
4.91986
4.85726
4.80383
4.7653
4.73581
4.71011
4.67606
4.63611
4.58541
4.51074
4.43424
4.38918
4.35619
4.32702
4.30541
4.28085
4.24667
4.20749
4.15834
4.09528
4.02718
3.97299
3.93867
3.91319
3.8894
3.86362
3.83453
3.79626
3.74206
3.69003
3.65876
3.63655
3.62427
3.61654
3.59508
3.57051
3.53851
3.48498
3.41795
3.37223
3.34442
3.32018
3.29372
3.26501
3.23345
3.1968
3.16642
3.14759
3.13712
3.13735
3.12777
3.10913
3.08399
3.04207
2.98244
2.92387
2.88176
2.85085
2.83026
2.81505
2.80517
2.79666
2.78549
2.77125
2.75293
2.72792
2.69972
2.67503
2.65132
2.62361
2.59185
2.55096
2.50932
2.48034
2.46294
2.45211
2.44717
2.45106
2.44858
2.43777
2.42236