/*--------------------------------*- C++ -*----------------------------------*\
  =========                 |
  \\      /  F ield         | OpenFOAM: The Open Source CFD Toolbox
   \\    /   O peration     | Website:  https://openfoam.org
    \\  /    A nd           | Version:  7
     \\/     M anipulation  |
\*---------------------------------------------------------------------------*/
FoamFile
{
    version     2.0;
    format      ascii;
    class       volScalarField;
    location    "2.5";
    object      T;
}
// * * * * * * * * * * * * * * * * * * * * * * * * * * * * * * * * * * * * * //

dimensions      [0 0 0 1 0 0 0];

internalField   nonuniform List<scalar> 
16128
(
1
1
1
1
1
1
1
1
1
1
1
1
1
1
1
1
1
1
1
1
1
1
1
1
1.70987
2.6267
2.69665
2.70869
2.72266
2.73577
2.74743
2.75629
2.76203
2.76528
2.76742
2.76995
2.77406
2.7802
2.78756
2.79436
2.7992
2.802
2.80403
2.80681
2.8122
2.81949
2.8257
2.82876
1
1
1
1
1
1
1
1
1
1
1
1
1
1
1
1
1
1
1
1
1
1
1
1
1.69712
2.62185
2.69623
2.70875
2.72266
2.73561
2.74713
2.75591
2.7616
2.7648
2.7669
2.76941
2.77351
2.77967
2.78702
2.79378
2.79855
2.80128
2.80326
2.806
2.81136
2.81861
2.82481
2.82787
1
1
1
1
1
1
1
1
1
1
1
1
1
1
1
1
1
1
1
1
1
1
1
1
1.66193
2.61086
2.69414
2.70733
2.72157
2.73453
2.74605
2.75483
2.76052
2.76372
2.76584
2.76838
2.77254
2.77876
2.78615
2.7929
2.7976
2.80025
2.80215
2.80484
2.81011
2.81724
2.82335
2.82636
1
1
1
1
1
1
1
1
1
1
1
1
1
1
1
1
1
1
1
1
1
1
1
1
1.60424
2.59064
2.69058
2.70464
2.7193
2.73233
2.74389
2.75274
2.75853
2.76185
2.76406
2.76668
2.77089
2.77713
2.78452
2.79126
2.79593
2.79855
2.80043
2.80314
2.80837
2.81537
2.82134
2.82425
1
1
1
1
1
1
1
1
1
1
1
1
1
1
1
1
1
1
1
1
1
1
1
1
1.53304
2.56619
2.68767
2.70129
2.71583
2.72873
2.74032
2.74931
2.75534
2.75892
2.76138
2.76419
2.76852
2.77482
2.78223
2.78899
2.79368
2.79631
2.79819
2.80091
2.80607
2.81293
2.81873
2.82153
1
1
1
1
1
1
1
1
1
1
1
1
1
1
1
1
1
1
1
1
1
1
1
1
1.44794
2.53505
2.68709
2.69839
2.71205
2.72443
2.7359
2.74505
2.75143
2.75539
2.75816
2.76115
2.76554
2.77177
2.77908
2.7858
2.79051
2.79319
2.79513
2.79791
2.80303
2.80979
2.81545
2.81821
1
1
1
1
1
1
1
1
1
1
1
1
1
1
1
1
1
1
1
1
1
1
1
1
1.34733
2.49214
2.68777
2.69509
2.70757
2.71912
2.73043
2.73991
2.74684
2.75131
2.75439
2.75749
2.76184
2.76793
2.77511
2.78182
2.78662
2.78941
2.79142
2.79424
2.79924
2.8058
2.81128
2.81397
1
1
1
1
1
1
1
1
1
1
1
1
1
1
1
1
1
1
1
1
1
1
1
1
1.22467
2.42962
2.68745
2.69091
2.70226
2.71272
2.72384
2.73381
2.74152
2.74665
2.75008
2.75326
2.7575
2.76339
2.7704
2.77709
2.782
2.78492
2.78698
2.78977
2.79459
2.80086
2.80618
2.80881
1
1
1
1
1
1
1
1
1
1
1
1
1
1
1
1
1
1
1
1
1
1
1
1
1.09505
2.36106
2.68894
2.68851
2.69701
2.70594
2.71658
2.72697
2.73545
2.74122
2.74495
2.74815
2.7522
2.75781
2.76458
2.7712
2.77619
2.77921
2.7813
2.78402
2.78866
2.79476
2.80003
2.80273
1
1
1
1
1
1
1
1
1
1
1
1
1
1
1
1
1
1
1
1
1
1
1
1
1.00407
2.28089
2.68486
2.68585
2.69243
2.70073
2.7106
2.72046
2.72889
2.73499
2.73907
2.74238
2.74624
2.75149
2.75791
2.76432
2.76932
2.77245
2.77459
2.77728
2.78159
2.78717
2.79222
2.79479
1
1
1
1
1
1
1
1
1
1
1
1
1
1
1
1
1
1
1
1
1
1
1
1
1.00002
2.17709
2.6785
2.68593
2.69264
2.70067
2.70904
2.71735
2.72448
2.72967
2.7332
2.73614
2.73966
2.74445
2.75036
2.75635
2.76117
2.76422
2.7662
2.76848
2.77221
2.77758
2.78261
2.78539
1
1
1
1
1
1
1
1
1
1
1
1
1
1
1
1
1
1
1
1
1
1
1
1
1
2.04167
2.65856
2.6833
2.6915
2.69961
2.70669
2.71315
2.71867
2.72298
2.72622
2.72905
2.73222
2.73645
2.74169
2.74704
2.75141
2.75427
2.75618
2.75819
2.76124
2.76581
2.77002
2.77191
1
1
1
1
1
1
1
1
1
1
1
1
1
1
1
1
1
1
1
1
1
1
1
1
1
1.87034
2.61726
2.67411
2.68634
2.69612
2.70348
2.70909
2.71343
2.71685
2.71948
2.72184
2.72463
2.72823
2.73252
2.73681
2.74034
2.74271
2.74403
2.74472
2.74595
2.7493
2.75273
2.75536
1
1
1
1
1
1
1
1
1
1
1
1
1
1
1
1
1
1
1
1
1
1
1
1
1
1.65425
2.5424
2.65585
2.67375
2.68619
2.695
2.7013
2.7059
2.7095
2.71244
2.715
2.71748
2.72019
2.72314
2.72591
2.72803
2.72921
2.72909
2.72869
2.72863
2.73014
2.73042
2.72712
1
1
1
1
1
1
1
1
1
1
1
1
1
1
1
1
1
1
1
1
1
1
1
1
1
1.35874
2.43199
2.64319
2.65543
2.67045
2.68112
2.68888
2.69477
2.69949
2.70349
2.70695
2.70985
2.71217
2.71387
2.71489
2.71482
2.71417
2.71232
2.70937
2.70494
2.69932
2.69369
2.68801
1
1
1
1
1
1
1
1
1
1
1
1
1
1
1
1
1
1
1
1
1
1
1
1
1
1.04372
2.32598
2.64649
2.64433
2.65089
2.66089
2.67073
2.67893
2.68571
2.69153
2.69657
2.70034
2.70273
2.7034
2.70287
2.70095
2.69776
2.69285
2.6857
2.67614
2.66615
2.65966
2.66639
1
1
1
1
1
1
1
1
1
1
1
1
1
1
1
1
1
1
1
1
1
1
1
1
1
1.00044
2.20362
2.63201
2.63025
2.63557
2.64391
2.6528
2.66129
2.6692
2.67653
2.68285
2.68807
2.69114
2.69118
2.68973
2.68614
2.6803
2.67191
2.66065
2.64401
2.61764
2.55849
2.44187
1
1
1
1
1
1
1
1
1
1
1
1
1
1
1
1
1
1
1
1
1
1
1
1
1
0.999998
2.00876
2.61769
2.63418
2.63654
2.6386
2.64168
2.64662
2.65288
2.65978
2.66627
2.67246
2.67648
2.67651
2.67461
2.66977
2.66163
2.64969
2.63266
2.60652
2.56029
2.48902
2.30522
1
1
1
1
1
1
1
1
1
1
1
1
1
1
1
1
1
1
1
1
1
1
1
1
1
0.999999
1.71896
2.54282
2.62916
2.63316
2.63549
2.63643
2.63775
2.6405
2.64474
2.6493
2.65471
2.65886
2.65913
2.65711
2.65158
2.64169
2.62666
2.60434
2.57099
2.51697
2.42418
2.23246
1
1
1
1
1
1
1
1
1
1
1
1
1
1
1
1
1
1
1
1
1
1
1
1
1
1
1.33425
2.40608
2.62038
2.62292
2.62792
2.6304
2.63093
2.63159
2.63275
2.63435
2.63713
2.6398
2.63976
2.63753
2.63153
2.62057
2.60327
2.57759
2.53833
2.48159
2.37697
2.20984
1
1
1
1
1
1
1
1
1
1
1
1
1
1
1
1
1
1
1
1
1
1
1
1
1
1
1.03151
2.26336
2.61281
2.61142
2.61505
2.6207
2.62276
2.62323
2.62249
2.62177
2.62133
2.62115
2.61978
2.61637
2.60957
2.59796
2.5795
2.55219
2.51084
2.45364
2.35079
2.21797
1
1
1
1
1
1
1
1
1
1
1
1
1
1
1
1
1
1
1
1
1
1
1
1
1
1
1.00017
2.05607
2.57163
2.59481
2.60447
2.6101
2.61275
2.61355
2.61243
2.61041
2.6077
2.60467
2.60084
2.59548
2.58727
2.5748
2.55582
2.5281
2.48754
2.43133
2.33802
2.23179
1
1
1
1
1
1
1
1
1
1
1
1
1
1
1
1
1
1
1
1
1
1
1
1
1
1
0.999999
1.70221
2.4923
2.57903
2.59155
2.59748
2.60149
2.60276
2.60177
2.59936
2.59545
2.59034
2.58398
2.57608
2.56569
2.55174
2.53222
2.50492
2.46642
2.41299
2.33228
2.24556
1
1
1
1
1
1
1
1
1
1
1
1
1
1
1
1
1
1
1
1
1
1
1
1
1
1
1
1.2263
2.35374
2.57721
2.57578
2.58039
2.5852
2.58812
2.58809
2.58651
2.58277
2.57694
2.56903
2.55915
2.54657
2.53077
2.51012
2.48322
2.4463
2.39717
2.32822
2.25568
1
1
1
1
1
1
1
1
1
1
1
1
1
1
1
1
1
1
1
1
1
1
1
1
1
1
1
1.01268
2.202
2.54923
2.55264
2.55958
2.56517
2.5698
2.57184
2.57133
2.56867
2.56328
2.55493
2.54392
2.52974
2.51236
2.49053
2.46341
2.42735
2.38268
2.32435
2.26324
1
1
1
1
1
1
1
1
1
1
1
1
1
1
1
1
1
1
1
1
1
1
1
1
1
1
1
1.00001
1.88324
2.50568
2.53994
2.54795
2.55041
2.55375
2.55626
2.55614
2.5541
2.54926
2.54111
2.52982
2.51505
2.49676
2.47433
2.44647
2.41142
2.37006
2.32024
2.26748
1
1
1
1
1
1
1
1
1
1
1
1
1
1
1
1
1
1
1
1
1
1
1
1
1
1
1
0.999997
1.38315
2.38474
2.53322
2.53323
2.53446
2.53673
2.53898
2.53914
2.53757
2.53345
2.52609
2.51527
2.50087
2.4826
2.46015
2.4323
2.39871
2.35978
2.31591
2.2679
1
1
1
1
1
1
1
1
1
1
1
1
1
1
1
1
1
1
1
1
1
1
1
1
1
1
1
0.999999
1.03666
2.21644
2.51732
2.51672
2.51781
2.52025
2.52238
2.52242
2.52091
2.51707
2.5103
2.50029
2.48675
2.46909
2.4472
2.42048
2.38883
2.35262
2.31309
2.26879
1
1
1
1
1
1
1
1
1
1
1
1
1
1
1
1
1
1
1
1
1
1
1
1
1
1
1
1
1.00021
1.8547
2.45936
2.49941
2.50431
2.50808
2.50871
2.50785
2.50533
2.50096
2.4941
2.48442
2.47193
2.45516
2.43439
2.40986
2.38048
2.34719
2.31074
2.26941
1
1
1
1
1
1
1
1
1
1
1
1
1
1
1
1
1
1
1
1
1
1
1
1
1
1
1
1
0.999999
1.27594
2.32213
2.49952
2.49317
2.49388
2.49381
2.49235
2.4893
2.48471
2.47783
2.46847
2.45634
2.44085
2.4216
2.39929
2.37243
2.34242
2.3086
2.27083
1
1
1
1
1
1
1
1
1
1
1
1
1
1
1
1
1
1
1
1
1
1
1
1
1
1
1
1
1
1.01759
2.14197
2.46962
2.47182
2.47626
2.47719
2.47634
2.47377
2.46926
2.46231
2.45297
2.44106
2.42626
2.40846
2.38793
2.36358
2.33661
2.30546
2.27158
1
1
1
1
1
1
1
1
1
1
1
1
1
1
1
1
1
1
1
1
1
1
1
1
1
1
1
1
1
1.00002
1.67635
2.38418
2.45152
2.46243
2.46429
2.4632
2.46041
2.45565
2.44836
2.43872
2.42677
2.41219
2.39532
2.37599
2.35379
2.32936
2.30141
2.27113
1
1
1
1
1
1
1
1
1
1
1
1
1
1
1
1
1
1
1
1
1
1
1
1
1
1
1
1
1
0.999999
1.12292
2.22283
2.45406
2.44796
2.44883
2.44796
2.44561
2.44126
2.43422
2.42467
2.41286
2.3987
2.38251
2.36409
2.34349
2.3208
2.29576
2.26864
1
1
1
1
1
1
1
1
1
1
1
1
1
1
1
1
1
1
1
1
1
1
1
1
1
1
1
1
1
1
1.0032
1.90647
2.40347
2.42234
2.42759
2.43096
2.43041
2.42721
2.42084
2.41174
2.40026
2.3865
2.3707
2.35284
2.33318
2.31167
2.28874
2.26391
1
1
1
1
1
1
1
1
1
1
1
1
1
1
1
1
1
1
1
1
1
1
1
1
1
1
1
1
1
1
0.999995
1.26047
2.25383
2.42369
2.41603
2.41665
2.41581
2.41259
2.40691
2.39874
2.38798
2.37478
2.3594
2.34209
2.3231
2.30258
2.28102
2.25785
1
1
1
1
1
1
1
1
1
1
1
1
1
1
1
1
1
1
1
1
1
1
1
1
1
1
1
1
1
1
0.999998
1.0155
2.03331
2.38773
2.39896
2.39965
2.39831
2.39558
2.39123
2.38453
2.37504
2.36294
2.34853
2.33213
2.31393
2.29423
2.27348
2.25148
1
1
1
1
1
1
1
1
1
1
1
1
1
1
1
1
1
1
1
1
1
1
1
1
1
1
1
1
1
1
1
1.00003
1.4354
2.2638
2.39102
2.38595
2.38298
2.37965
2.37539
2.3694
2.3611
2.35041
2.33735
2.32208
2.30486
2.28615
2.26632
2.24544
1
1
1
1
1
1
1
1
1
1
1
1
1
1
1
1
1
1
1
1
1
1
1
1
1
1
1
1
1
1
1
1
1.04525
2.07509
2.37174
2.36833
2.36537
2.36193
2.35795
2.35261
2.34547
2.33622
2.32476
2.31097
2.29529
2.2782
2.25973
2.23992
1
1
1
1
1
1
1
1
1
1
1
1
1
1
1
1
1
1
1
1
1
1
1
1
1
1
1
1
1
1
1
1
1.00037
1.52402
2.25998
2.35626
2.35094
2.34752
2.34326
2.33772
2.33089
2.32256
2.31245
2.30036
2.28631
2.27058
2.25328
2.23446
1
1
1
1
1
1
1
1
1
1
1
1
1
1
1
1
1
1
1
1
1
1
1
1
1
1
1
1
1
1
1
1
1
1.06918
2.07041
2.3443
2.33851
2.33407
2.32866
2.32261
2.31573
2.30781
2.29853
2.2877
2.27525
2.26115
2.24544
2.2283
1
1
1
1
1
1
1
1
1
1
1
1
1
1
1
1
1
1
1
1
1
1
1
1
1
1
1
1
1
1
1
1
1
1.00093
1.5182
2.22721
2.32489
2.31912
2.31426
2.30829
2.3013
2.29351
2.28481
2.27508
2.26412
2.25168
2.23755
2.22191
1
1
1
1
1
1
1
1
1
1
1
1
1
1
1
1
1
1
1
1
1
1
1
1
1
1
1
1
1
1
1
1
1
1
1.06921
2.03314
2.31517
2.30892
2.30226
2.29476
2.28734
2.27964
2.27141
2.2624
2.2523
2.24092
2.22809
2.21376
1
1
1
1
1
1
1
1
1
1
1
1
1
1
1
1
1
1
1
1
1
1
1
1
1
1
1
1
1
1
1
1
1
1
1.00097
1.46202
2.18505
2.29498
2.2865
2.28047
2.27393
2.26692
2.25911
2.2504
2.24068
2.22992
2.21811
2.20504
1
1
1
1
1
1
1
1
1
1
1
1
1
1
1
1
1
1
1
1
1
1
1
1
1
1
1
1
1
1
1
1
1
1
1
1.05342
1.96029
2.27878
2.27611
2.26935
2.26237
2.25535
2.24752
2.23884
2.22935
2.21902
2.20782
2.19573
1
1
1
1
1
1
1
1
1
1
1
1
1
1
1
1
1
1
1
1
1
1
1
1
1
1
1
1
1
1
1
1
1
1
1
1.00063
1.37643
2.13113
2.26376
2.254
2.24978
2.24358
2.23616
2.2278
2.21865
2.20879
2.19817
2.18681
1
1
1
1
1
1
1
1
1
1
1
1
1
1
1
1
1
1
1
1
1
1
1
1
1
1
1
1
1
1
1
1
1
1
1
1
1.03308
1.82427
2.21938
2.24816
2.24039
2.233
2.22551
2.21748
2.20877
2.19931
2.18923
2.17845
1
1
1
1
1
1
1
1
1
1
1
1
1
1
1
1
1
1
1
1
1
1
1
1
1
1
1
1
1
1
1
1
1
1
1
1
1.00032
1.24807
2.0417
2.23702
2.22723
2.22186
2.21525
2.20792
2.19984
2.19079
2.1809
2.17036
1
1
1
1
1
1
1
1
1
1
1
1
1
1
1
1
1
1
1
1
1
1
1
1
1
1
1
1
1
1
1
1
1
1
1
1
1
1.01337
1.60916
2.13813
2.215
2.20859
2.20328
2.19712
2.18991
2.18155
2.17198
2.16155
1
1
1
1
1
1
1
1
1
1
1
1
1
1
1
1
1
1
1
1
1
1
1
1
1
1
1
1
1
1
1
1
1
1
1
1
1
1.0001
1.11649
1.91649
2.20149
2.19649
2.19158
2.18591
2.17939
2.17182
2.1631
2.15324
1
1
1
1
1
1
1
1
1
1
1
1
1
1
1
1
1
1
1
1
1
1
1
1
1
1
1
1
1
1
1
1
1
1
1
1
1
1
1.00305
1.39086
2.05719
2.18228
2.17541
2.17069
2.16522
2.1588
2.15158
2.14334
1
1
1
1
1
1
1
1
1
1
1
1
1
1
1
1
1
1
1
1
1
1
1
1
1
1
1
1
1
1
1
1
1
1
1
1
1
1
1.00001
1.03881
1.71773
2.12144
2.16965
2.16181
2.15493
2.14843
2.14162
2.13418
1
1
1
1
1
1
1
1
1
1
1
1
1
1
1
1
1
1
1
1
1
1
1
1
1
1
1
1
1
1
1
1
1
1
1
1
1
1
1
1.00051
1.18757
1.92256
2.15473
2.1507
2.14387
2.13744
2.13068
2.12343
1
1
1
1
1
1
1
1
1
1
1
1
1
1
1
1
1
1
1
1
1
1
1
1
1
1
1
1
1
1
1
1
1
1
1
1
1
1
1
1
1.00787
1.44001
2.02911
2.1374
2.13073
2.12417
2.11805
2.11145
1
1
1
1
1
1
1
1
1
1
1
1
1
1
1
1
1
1
1
1
1
1
1
1
1
1
1
1
1
1
1
1
1
1
1
1
1
1
1
1
1.00006
1.0536
1.70651
2.07979
2.12547
2.11693
2.10911
2.10218
1
1
1
1
1
1
1
1
1
1
1
1
1
1
1
1
1
1
1
1
1
1
1
1
1
1
1
1
1
1
1
1
1
1
1
1
1
1
1
1
1
1.0009
1.19019
1.87588
2.10559
2.10817
2.10084
2.09356
1
1
1
1
1
1
1
1
1
1
1
1
1
1
1
1
1
1
1
1
1
1
1
1
1
1
1
1
1
1
1
1
1
1
1
1
1
1
1
1
1
1
1.00839
1.39769
1.97097
2.09434
2.0899
2.08295
1
1
1
1
1
1
1
1
1
1
1
1
1
1
1
1
1
1
1
1
1
1
1
1
1
1
1
1
1
1
1
1
1
1
1
1
1
1
1
1
1
1
1.00007
1.04339
1.61299
2.02448
2.08333
2.07491
1
1
1
1
1
1
1
1
1
1
1
1
1
1
1
1
1
1
1
1
1
1
1
1
1
1
1
1
1
1
1
1
1
1
1
1
1
1
1
1
1
1
1
1.00068
1.13581
1.7867
2.0425
2.07153
1
1
1
1
1
1
1
1
1
1
1
1
1
1
1
1
1
1
1
1
1
1
1
1
1
1
1
1
1
1
1
1
1
1
1
1
1
1
1
1
1
1
1
1
1.00465
1.29151
1.87753
2.05049
1
1
1
1
1
1
1
1
1
1
1
1
1
1
1
1
1
1
1
1
1
1
1
1
1
1
1
1
1
1
1
1
1
1
1
1
1
1
1
1
1
1
1
1
1.00003
1.02154
1.45973
1.93966
1
1
1
1
1
1
1
1
1
1
1
1
1
1
1
1
1
1
1
1
1
1
1
1
1
1
1
1
1
1
1
1
1
1
1
1
1
1
1
1
1
1
1
1
1
1.00026
1.06656
1.61647
1
1
1
1
1
1
1
1
1
1
1
1
1
1
1
1
1
1
1
1
1
1
1
1
1
1
1
1
1
1
1
1
1
1
1
1
1
1
1
1
1
1
1
1
1
1
1.00142
1.15079
1
1
1
1
1
1
1
1
1
1
1
1
1
1
1
1
1
1
1
1
1
1
1
1
1
1
1
1
1
1
1
1
1
1
1
1
1
1
1
1
1
1
1
1
1
1
1.00001
1.00595
1
1
1
1
1
1
1
1
1
1
1
1
1
1
1
1
1
1
1
1
1
1
1
1
1
1
1
1
1
1
1
1
1
1
1
1
1
1
1
1
1
1
1
1
1
1
1
1.00005
1
1
1
1
1
1
1
1
1
1
1
1
1
1
1
1
1
1
1
1
1
1
1
1
1
1
1
1
1
1
1
1
1
1
1
1
1
1
1
1
1
1
1
1
1
1
1
1
1
1
1
1
1
1
1
1
1
1
1
1
1
1
1
1
1
1
1
1
1
1
1
1
1
1
1
1
1
1
1
1
1
1
1
1
1
1
1
1
1
1
1
1
1
1
1
1
1
1
1
1
1
1
1
1
1
1
1
1
1
1
1
1
1
1
1
1
1
1
1
1
1
1
1
1
1
1
1
1
1
1
1
1
1
1
1
1
1
1
1
1
1
1
1
1
1
1
1
1
1
1
1
1
1
1
1
1
1
1
1
1
1
1
1
1
1
1
1
1
1
1
1
1
1
1
1
1
1
1
1
1
1
1
1
1
1
1
1
1
1
1
1
1
1
1
1
1
1
1
1
1
1
1
1
1
1
1
1
1
1
1
1
1
1
1
1
1
1
1
1
1
1
1
1
1
1
1
1
1
1
1
1
1
1
1
1
1
1
1
1
1
1
1
1
1
1
1
1
1
1
1
1
1
1
1
1
1
1
1
1
1
1
1
1
1
1
1
1
1
1
1
1
1
1
1
1
1
1
1
1
1
1
1
1
1
1
1
1
1
1
1
1
1
1
1
1
1
1
1
1
1
1
1
1
1
1
1
1
1
1
1
1
1
1
1
1
1
1
1
1
1
1
1
1
1
1
1
1
1
1
1
1
1
1
1
1
1
1
1
1
1
1
1
1
1
1
1
1
1
1
1
1
1
1
1
1
1
1
1
1
1
1
1
1
1
1
1
1
1
1
1
1
1
1
1
1
1
1
1
1
1
1
1
1
1
1
1
1
1
1
1
1
1
1
1
1
1
1
1
1
1
1
1
1
1
1
1
1
1
1
1
1
1
1
1
1
1
1
1
1
1
1
1
1
1
1
1
1
1
1
1
1
1
1
1
1
1
1
1
1
1
1
1
1
1
1
1
1
1
1
1
1
1
1
1
1
1
1
1
1
1
1
1
1
1
1
1
1
1
1
1
1
1
1
1
1
1
1
1
1
1
1
1
1
1
1
1
1
1
1
1
1
1
1
1
1
1
1
1
1
1
1
1
1
1
1
1
1
1
1
1
1
1
1
1
1
1
1
1
1
1
1
1
1
1
1
1
1
1
1
1
1
1
1
1
1
1
1
1
1
1
1
1
1
1
1
1
1
1
1
1
1
1
1
1
1
1
1
1
1
1
1
1
1
1
1
1
1
1
1
1
1
1
1
1
1
1
1
1
1
1
1
1
1
1
1
1
1
1
1
1
1
1
1
1
1
1
1
1
1
1
1
1
1
1
1
1
1
1
1
1
1
1
1
1
1
1
1
1
1
1
1
1
1
1
1
1
1
1
1
1
1
1
1
1
1
1
1
1
1
1
1
1
1
1
1
1
1
1
1
1
1
1
1
1
1
1
1
1
1
1
1
1
1
1
1
1
1
1
1
1
1
1
1
1
1
1
1
1
1
1
1
1
1
1
1
1
1
1
1
1
1
1
1
1
1
1
1
1
1
1
1
1
1
1
1
1
1
1
1
1
1
1
1
1
1
1
1
1
1
1
1
1
1
1
1
1
1
1
1
1
1
1
1
1
1
1
1
1
1
1
1
1
1
1
1
1
1
1
1
1
1
1
1
1
1
1
1
1
1
1
1
1
1
1
1
1
1
1
1.56888
1.04105
0.683737
0.443149
0.602807
0.89021
1.09909
1.13946
1.194
1.35952
1.43479
1.43832
1.43626
1.44073
1.45705
1.50051
1.54595
1.60158
1.66081
1.66802
1.6537
1.62268
1.61926
1.62462
1.64391
1.65607
1.65804
1.65742
1.65413
1.65384
1.66154
1.67939
1.692
1.69283
1.69036
1.68543
1.68093
1.68129
1.68467
1.68798
1.68752
1.68388
1.68277
1.68431
1.68385
1.68402
1.68477
1.68442
1.6823
1.68013
1.67984
1.68031
1.6812
1.6827
1.6855
1.68754
1.68756
1.68691
1.68458
1.68167
1.67945
1.67735
1.67656
1.67701
1.67669
1.67344
1.66925
1.66544
1.66318
1.66287
1.66309
1.66322
1.66394
1.67427
2.16108
2.80877
2.84904
2.82054
2.78543
2.75228
2.7261
2.70834
2.69531
2.67846
2.66812
2.65857
2.64489
2.62667
2.60687
2.5884
2.57258
2.55969
2.5483
2.53689
2.52509
2.51345
2.50207
2.49132
2.48197
2.47385
2.46673
2.4604
2.45296
2.44206
2.43029
2.41866
2.40646
2.39545
2.38794
2.38224
2.37987
2.38042
2.37888
2.37362
2.36664
2.35524
2.33955
2.32841
2.3209
2.3147
2.31102
2.30639
2.30084
2.29343
2.28186
2.27185
2.26576
2.2602
2.256
2.25364
2.24958
2.24538
2.24143
2.23659
2.23067
2.22693
2.22374
2.22068
2.21682
2.21138
2.20436
2.19334
2.17901
2.16662
2.1592
2.15453
2.15051
2.14749
2.14556
2.14155
2.13607
2.13017
2.12262
2.11486
2.11004
2.10614
2.1022
2.09736
2.09081
2.08126
2.06857
2.05697
2.0492
2.04396
2.03966
2.03566
2.03209
2.02921
2.02678
2.02449
2.02235
2.02007
2.0171
2.01281
2.00682
1.99901
1.98952
1.98041
1.97374
1.96946
1.96616
1.96351
1.9624
1.96117
1.95868
1.95586
1.9499
1.93954
1.93197
1.93021
1.93074
1.93031
1.80562
1.51673
1.32438
1.17587
1.03205
1.02113
1.05727
1.04447
1.04269
1.06537
1.10612
1.1375
1.15613
1.17603
1.22164
1.28055
1.34334
1.3975
1.43732
1.46701
1.50021
1.53342
1.5458
1.55582
1.57429
1.59045
1.60085
1.60696
1.60646
1.60833
1.62035
1.63639
1.64517
1.64932
1.64804
1.64307
1.64216
1.64593
1.65696
1.66453
1.66397
1.66005
1.65662
1.65674
1.65856
1.6617
1.66371
1.66375
1.66288
1.66119
1.65976
1.65966
1.66015
1.66173
1.66471
1.66829
1.67038
1.67074
1.66998
1.66703
1.66295
1.6601
1.6591
1.65969
1.66106
1.66092
1.65987
1.65856
1.6563
1.65413
1.65234
1.65073
1.66075
1.74018
2.04637
2.62151
2.75498
2.73576
2.70942
2.69501
2.68282
2.67289
2.66341
2.65005
2.64029
2.63067
2.61719
2.60041
2.58272
2.56604
2.55145
2.5392
2.52812
2.51702
2.50588
2.49584
2.48701
2.47923
2.47247
2.46604
2.45908
2.45022
2.43902
2.42754
2.41713
2.40724
2.39812
2.38972
2.3817
2.37531
2.37117
2.36906
2.3658
2.36118
2.35537
2.34746
2.33817
2.32728
2.31669
2.30888
2.30287
2.29833
2.29368
2.28777
2.27997
2.27132
2.26338
2.25705
2.25224
2.24897
2.24476
2.24064
2.23671
2.23157
2.22481
2.21942
2.21559
2.21173
2.20796
2.20401
2.19839
2.19081
2.18152
2.17052
2.16008
2.15316
2.14862
2.14466
2.14083
2.13619
2.13078
2.12501
2.11885
2.11243
2.10668
2.10182
2.09697
2.09168
2.08568
2.07818
2.06911
2.05948
2.05038
2.04329
2.03829
2.03428
2.03084
2.02776
2.0244
2.021
2.01718
2.01305
2.00915
2.00522
2.00102
1.99613
1.99017
1.98317
1.97574
1.96981
1.96594
1.96304
1.96027
1.95719
1.95426
1.95086
1.94613
1.93991
1.93458
1.93101
1.92993
1.92867
1.92322
1.63962
1.51924
1.43988
1.30509
1.17775
1.15408
1.11673
1.05351
1.05189
1.06672
1.06439
1.06684
1.08389
1.11745
1.14083
1.16723
1.20302
1.22985
1.25846
1.30606
1.37418
1.41774
1.43567
1.45644
1.48229
1.50697
1.52713
1.53526
1.54274
1.55559
1.56693
1.57488
1.57959
1.57859
1.57271
1.57158
1.57599
1.58635
1.5988
1.60557
1.60646
1.60643
1.60716
1.60883
1.61049
1.61107
1.61178
1.61327
1.61488
1.61664
1.61802
1.61865
1.61933
1.61972
1.62095
1.62359
1.62708
1.62966
1.63015
1.62906
1.62613
1.62384
1.62309
1.62323
1.62429
1.62593
1.62638
1.62562
1.62422
1.62307
1.63647
1.71507
1.92708
2.03159
2.25661
2.51549
2.6031
2.61924
2.61762
2.61234
2.60122
2.58916
2.58413
2.57816
2.57032
2.55886
2.54542
2.53202
2.51917
2.50774
2.49779
2.48777
2.47722
2.46593
2.45582
2.44716
2.44042
2.43605
2.43359
2.4302
2.42257
2.41229
2.3996
2.38592
2.37559
2.36895
2.36351
2.35891
2.35487
2.34986
2.34365
2.33709
2.33108
2.32587
2.32197
2.31809
2.31179
2.30397
2.2941
2.28383
2.2762
2.27027
2.26548
2.26115
2.25617
2.25046
2.24468
2.2394
2.23433
2.22977
2.22584
2.22181
2.21629
2.20863
2.20163
2.19716
2.19339
2.18943
2.18479
2.1804
2.1766
2.17186
2.16659
2.15929
2.14956
2.14073
2.13457
2.12937
2.12419
2.1187
2.11306
2.10752
2.10186
2.09587
2.08996
2.08424
2.07837
2.0719
2.06547
2.05988
2.05437
2.0482
2.04054
2.03328
2.02831
2.02427
2.02007
2.01563
2.01077
2.00539
1.99996
1.99513
1.99107
1.98724
1.98393
1.9815
1.97875
1.97531
1.9701
1.9637
1.95782
1.95282
1.94792
1.94276
1.93833
1.93522
1.93347
1.93238
1.93071
1.92736
1.92255
1.99303
1.78717
1.65014
1.55756
1.46043
1.36093
1.32029
1.26466
1.17531
1.1599
1.16043
1.15199
1.13911
1.13366
1.11806
1.10698
1.10964
1.11827
1.13006
1.14194
1.16221
1.20764
1.26648
1.30728
1.33648
1.36939
1.39856
1.42752
1.4496
1.46809
1.48604
1.49583
1.49941
1.50438
1.50847
1.50982
1.51116
1.51751
1.5261
1.53366
1.53778
1.53959
1.54221
1.54661
1.55237
1.55418
1.55355
1.55252
1.55284
1.55388
1.55657
1.56141
1.56608
1.56758
1.56755
1.56729
1.56789
1.57137
1.57603
1.57924
1.58014
1.57956
1.5789
1.57864
1.57839
1.57895
1.58034
1.57998
1.57859
1.5792
1.59069
1.68485
1.86263
2.03924
2.03688
2.04385
2.18589
2.38939
2.4965
2.53971
2.53113
2.51616
2.50452
2.50346
2.50118
2.49449
2.48549
2.47432
2.46465
2.45544
2.44755
2.44052
2.43284
2.42508
2.41645
2.40723
2.4
2.39399
2.38939
2.38661
2.38262
2.37582
2.36805
2.35898
2.34767
2.33703
2.33047
2.32561
2.32201
2.3184
2.31388
2.3083
2.3013
2.29499
2.2906
2.28696
2.28388
2.27981
2.27414
2.26638
2.25592
2.24632
2.23987
2.23535
2.23153
2.22815
2.22456
2.22015
2.21458
2.20813
2.20235
2.19785
2.19368
2.18895
2.18326
2.17688
2.17071
2.16543
2.16071
2.15661
2.15348
2.15137
2.14996
2.14731
2.14306
2.13668
2.12768
2.11877
2.11209
2.10633
2.10056
2.0947
2.0889
2.08294
2.07649
2.06967
2.0629
2.05626
2.05048
2.04613
2.04267
2.03949
2.03526
2.0303
2.02396
2.01683
2.01083
2.00592
2.00101
1.99518
1.98795
1.98051
1.97467
1.9706
1.96818
1.9669
1.96652
1.9668
1.96598
1.96315
1.95778
1.94904
1.93972
1.93284
1.92754
1.92307
1.92119
1.9212
1.92131
1.9213
1.92
1.91316
2.05304
1.89422
1.77143
1.67016
1.57406
1.50292
1.45449
1.38878
1.30363
1.27376
1.25726
1.2341
1.21992
1.21021
1.19271
1.16373
1.1458
1.148
1.15602
1.15732
1.15447
1.14873
1.15391
1.1665
1.1877
1.22996
1.28442
1.33822
1.38393
1.41042
1.4302
1.44161
1.44386
1.44917
1.459
1.46538
1.47253
1.48354
1.49073
1.49425
1.49793
1.50318
1.50898
1.51535
1.51841
1.5177
1.51554
1.51356
1.51222
1.51265
1.51596
1.52415
1.53285
1.53548
1.53554
1.53412
1.53015
1.52916
1.53072
1.53422
1.53768
1.53962
1.54029
1.54062
1.54103
1.54229
1.54295
1.54335
1.54502
1.55597
1.63833
1.85164
1.98266
2.02984
2.02465
2.00923
2.01915
2.13518
2.33332
2.44442
2.4845
2.47301
2.4635
2.4556
2.45119
2.44452
2.43785
2.42757
2.41552
2.40687
2.40061
2.39597
2.39064
2.38458
2.37764
2.3693
2.36244
2.35736
2.35285
2.34869
2.34268
2.3359
2.32886
2.32135
2.31293
2.30491
2.29931
2.29481
2.29
2.28476
2.27894
2.272
2.26505
2.26083
2.25752
2.25441
2.25113
2.24644
2.24081
2.23307
2.22276
2.21335
2.20786
2.20415
2.20106
2.19869
2.19587
2.19193
2.18667
2.17932
2.1714
2.16491
2.15981
2.1555
2.15138
2.14659
2.14051
2.13412
2.12962
2.12687
2.12445
2.12267
2.12155
2.11931
2.11598
2.11194
2.10548
2.0964
2.08844
2.08289
2.0781
2.07321
2.06785
2.06141
2.05299
2.04319
2.03521
2.03013
2.02646
2.02343
2.02146
2.01938
2.0159
2.012
2.00739
2.00066
1.99233
1.98539
1.97969
1.97351
1.96608
1.95813
1.95208
1.94932
1.94824
1.94789
1.94832
1.94924
1.94898
1.94756
1.94462
1.93761
1.92507
1.91398
1.90827
1.90568
1.90469
1.90448
1.90441
1.90432
1.9041
1.89843
2.10488
1.97487
1.86935
1.77475
1.67654
1.61145
1.55165
1.48393
1.41671
1.38721
1.35954
1.32271
1.29569
1.2804
1.26554
1.24465
1.21292
1.19322
1.19379
1.19433
1.18819
1.1777
1.16666
1.15948
1.15845
1.16468
1.18234
1.2157
1.26772
1.31623
1.34826
1.3741
1.38982
1.40204
1.42384
1.43787
1.44865
1.46214
1.46779
1.47016
1.47523
1.48209
1.48862
1.49365
1.49505
1.4945
1.49311
1.49426
1.4953
1.49642
1.5011
1.51059
1.51584
1.51641
1.51641
1.51526
1.51109
1.50805
1.50856
1.51185
1.51713
1.52181
1.52306
1.52333
1.52346
1.52298
1.52184
1.52366
1.53695
1.61624
1.82683
1.97089
2.01524
2.01993
2.01473
2.00563
1.99915
2.0092
2.10759
2.2876
2.42027
2.44303
2.44414
2.43704
2.42854
2.42018
2.41464
2.40569
2.39369
2.3848
2.37877
2.37494
2.37087
2.3658
2.36014
2.35276
2.34448
2.3385
2.33339
2.32798
2.32132
2.31427
2.3073
2.30042
2.2935
2.28686
2.28079
2.27501
2.2691
2.26295
2.25654
2.24999
2.24411
2.23974
2.23605
2.23244
2.22798
2.22239
2.21527
2.20718
2.1991
2.19161
2.18534
2.18105
2.1779
2.17565
2.17267
2.16828
2.16156
2.15315
2.1451
2.13835
2.13311
2.12907
2.12552
2.1217
2.11692
2.11113
2.10545
2.1014
2.09882
2.09665
2.095
2.09277
2.08944
2.08549
2.08011
2.07262
2.06485
2.05927
2.05515
2.05117
2.04663
2.04065
2.03201
2.0208
2.0114
2.00692
2.00395
2.00119
1.99963
1.99918
1.99683
1.99318
1.98919
1.98366
1.97486
1.96456
1.95624
1.94944
1.94298
1.93709
1.93257
1.92983
1.92872
1.92848
1.92877
1.92907
1.92868
1.92783
1.92578
1.92007
1.90952
1.89774
1.89026
1.88729
1.88584
1.88532
1.88526
1.88483
1.88421
1.87849
2.14151
2.03365
1.9458
1.85648
1.76035
1.70055
1.64468
1.57294
1.50668
1.47179
1.43901
1.4023
1.37938
1.35139
1.31775
1.3019
1.28694
1.26114
1.24255
1.23919
1.23496
1.22709
1.21669
1.20469
1.18793
1.18112
1.18228
1.18534
1.19373
1.20829
1.22901
1.25733
1.29556
1.32882
1.36079
1.39697
1.42271
1.44592
1.45647
1.45665
1.46039
1.46678
1.47481
1.48041
1.48326
1.48435
1.48482
1.48732
1.48911
1.49058
1.49447
1.50106
1.50473
1.50586
1.50653
1.50639
1.50462
1.50302
1.50292
1.50452
1.50865
1.51292
1.514
1.51407
1.51376
1.51222
1.51299
1.5257
1.62706
1.80738
1.97171
2.00524
2.0139
2.01322
2.01199
2.00261
1.99449
1.9902
1.99753
2.07089
2.24793
2.39657
2.42262
2.43116
2.42123
2.4144
2.40734
2.39818
2.38747
2.37858
2.37224
2.36761
2.36264
2.35727
2.35162
2.34527
2.33805
2.33079
2.32458
2.31837
2.31176
2.30489
2.29795
2.29119
2.28461
2.27771
2.27076
2.26431
2.25835
2.2525
2.24679
2.2413
2.23594
2.23056
2.22517
2.21974
2.21363
2.20627
2.19838
2.1913
2.18561
2.18029
2.17455
2.16853
2.16356
2.15951
2.15483
2.14872
2.14139
2.13414
2.12765
2.12171
2.11651
2.11231
2.10862
2.10501
2.10121
2.0969
2.09176
2.08584
2.08043
2.077
2.07429
2.07137
2.06795
2.06401
2.05949
2.05411
2.04783
2.04183
2.03689
2.03229
2.02715
2.02121
2.01441
2.00686
1.99862
1.99114
1.98669
1.98386
1.98156
1.98064
1.97951
1.97652
1.97272
1.9677
1.9599
1.94882
1.93805
1.93088
1.92622
1.92272
1.91962
1.91647
1.91389
1.91259
1.91188
1.91146
1.91122
1.90958
1.90552
1.89908
1.89212
1.88614
1.88
1.8733
1.86896
1.86705
1.86561
1.86453
1.86312
1.857
2.17043
2.08107
2.00234
1.92207
1.84001
1.77449
1.71789
1.65125
1.59213
1.55323
1.51083
1.46365
1.44138
1.42067
1.3867
1.36308
1.34725
1.32555
1.3073
1.2955
1.28325
1.27478
1.26449
1.24954
1.23067
1.21568
1.21092
1.20417
1.1999
1.20355
1.20887
1.21221
1.21813
1.23182
1.25409
1.29555
1.33988
1.3778
1.41915
1.43994
1.44827
1.45405
1.46108
1.46847
1.47448
1.47841
1.48095
1.48276
1.48462
1.48871
1.4941
1.49614
1.49668
1.49612
1.49607
1.49815
1.50058
1.5023
1.50314
1.50435
1.5065
1.5086
1.50907
1.50878
1.50797
1.50775
1.51851
1.62629
1.8459
1.94861
2.00134
2.0185
2.01874
2.01546
2.00937
2.00203
1.99239
1.98463
1.98216
1.98523
2.03749
2.20747
2.35812
2.41794
2.41609
2.41052
2.40365
2.3939
2.38567
2.37861
2.37176
2.36534
2.3584
2.35196
2.34643
2.34187
2.33643
2.32914
2.32053
2.31284
2.30582
2.29897
2.29253
2.28638
2.28005
2.27302
2.2655
2.25929
2.25433
2.24945
2.24467
2.23966
2.2338
2.22744
2.22042
2.21286
2.20476
2.1974
2.19124
2.18578
2.18131
2.17675
2.1712
2.16453
2.15641
2.14826
2.14107
2.13483
2.12918
2.12406
2.11937
2.11457
2.10918
2.10382
2.0992
2.09534
2.09181
2.08819
2.08402
2.07893
2.07248
2.06566
2.06111
2.05828
2.05532
2.05124
2.04675
2.04143
2.03556
2.02923
2.02315
2.01764
2.01232
2.00716
2.0027
1.9986
1.99353
1.98612
1.97794
1.9727
1.96965
1.96748
1.96595
1.96341
1.9597
1.95488
1.94826
1.93932
1.92932
1.92158
1.91698
1.91378
1.91121
1.90893
1.90665
1.90412
1.90163
1.89865
1.89454
1.89001
1.88494
1.88024
1.87741
1.87519
1.87204
1.86659
1.85928
1.85433
1.85186
1.84919
1.84513
1.83772
2.18964
2.11533
2.04601
1.97076
1.90177
1.84183
1.78187
1.71642
1.66245
1.61892
1.57861
1.53411
1.50434
1.47892
1.4452
1.4205
1.4024
1.38128
1.36528
1.35051
1.32987
1.31218
1.30399
1.29442
1.28065
1.26398
1.25597
1.24942
1.24134
1.23563
1.22988
1.22386
1.21992
1.21534
1.21541
1.22101
1.23705
1.26421
1.30658
1.35356
1.39299
1.42412
1.44264
1.45603
1.464
1.46845
1.46987
1.47177
1.47762
1.48725
1.49426
1.49614
1.49525
1.49077
1.48814
1.48958
1.49388
1.49996
1.50314
1.50497
1.50726
1.50883
1.50856
1.50704
1.5053
1.51687
1.61444
1.85671
1.97376
2.00064
2.0085
2.01126
2.01117
2.00914
2.0043
1.99783
1.98968
1.9818
1.97781
1.97585
1.97689
2.01264
2.15138
2.32343
2.40334
2.40685
2.40189
2.39196
2.38587
2.38037
2.37376
2.3662
2.35828
2.3507
2.3439
2.33914
2.33453
2.32829
2.31973
2.31055
2.30263
2.29558
2.28946
2.28393
2.27827
2.27132
2.26317
2.25731
2.25285
2.24872
2.24493
2.2399
2.23392
2.22684
2.21757
2.20775
2.20019
2.19452
2.18931
2.18492
2.18078
2.17531
2.16937
2.162
2.15221
2.14216
2.13434
2.12857
2.12414
2.12028
2.11633
2.11182
2.10599
2.09884
2.09412
2.09057
2.08681
2.08283
2.07907
2.07514
2.07034
2.06367
2.05551
2.04822
2.04284
2.03848
2.03431
2.03074
2.02651
2.02049
2.01298
2.00714
2.00341
2.00014
1.99733
1.995
1.99187
1.98703
1.97885
1.96852
1.96019
1.9546
1.95098
1.94828
1.94558
1.94224
1.93832
1.93402
1.92817
1.92084
1.91457
1.9108
1.90845
1.90662
1.90436
1.89994
1.89316
1.88631
1.8808
1.8763
1.87299
1.87065
1.86866
1.86713
1.8652
1.86245
1.85708
1.84852
1.83979
1.83308
1.82867
1.82339
2.20496
2.14165
2.07758
2.01139
1.95259
1.89403
1.83171
1.77376
1.72691
1.68172
1.63208
1.59346
1.5663
1.54102
1.50972
1.47803
1.45282
1.4284
1.41418
1.40354
1.38731
1.36114
1.34221
1.33098
1.32004
1.31121
1.30215
1.2901
1.27987
1.27435
1.26635
1.25438
1.23794
1.22873
1.22348
1.22333
1.22637
1.23123
1.23982
1.25532
1.27959
1.31509
1.35393
1.38807
1.41403
1.43509
1.44431
1.45129
1.46599
1.48521
1.49513
1.49633
1.49536
1.48798
1.48212
1.48279
1.48599
1.49315
1.49976
1.50269
1.50477
1.50576
1.50574
1.5073
1.52395
1.62341
1.83765
1.98976
2.00939
2.0097
2.00513
2.00285
2.00299
2.00152
1.99975
1.99619
1.98831
1.98043
1.97609
1.97325
1.97151
1.97174
1.99259
2.09949
2.28009
2.36754
2.3924
2.39009
2.3852
2.38191
2.37395
2.36634
2.35844
2.34979
2.34181
2.33636
2.33109
2.32522
2.31792
2.30895
2.29935
2.29109
2.28472
2.27989
2.2754
2.26981
2.26287
2.25693
2.25252
2.24873
2.24498
2.23973
2.23351
2.22583
2.21507
2.20411
2.1974
2.19227
2.18747
2.18356
2.17913
2.17339
2.16712
2.15958
2.15011
2.1399
2.13176
2.12662
2.12271
2.11904
2.11512
2.11061
2.10448
2.09561
2.0872
2.08228
2.07862
2.07638
2.07489
2.07133
2.06746
2.06254
2.05415
2.0432
2.03569
2.03111
2.02693
2.02238
2.01776
2.01291
2.00723
2.0025
1.9997
1.99816
1.99826
1.99643
1.99292
1.98819
1.9802
1.96884
1.95734
1.94899
1.94306
1.93926
1.93643
1.93443
1.93257
1.93018
1.92707
1.92322
1.9183
1.91289
1.90834
1.90416
1.89919
1.89342
1.88589
1.87809
1.87279
1.86977
1.86797
1.86727
1.86836
1.86784
1.86533
1.86178
1.85614
1.84654
1.83443
1.82465
1.8196
1.81506
2.21383
2.15944
2.10086
2.04292
1.99025
1.93615
1.8768
1.8254
1.77704
1.73376
1.69117
1.65526
1.6209
1.58841
1.56071
1.53637
1.51224
1.47986
1.45428
1.43958
1.42635
1.41064
1.39377
1.37392
1.34967
1.34265
1.33852
1.33107
1.32021
1.31297
1.30372
1.29028