/*--------------------------------*- C++ -*----------------------------------*\
  =========                 |
  \\      /  F ield         | OpenFOAM: The Open Source CFD Toolbox
   \\    /   O peration     | Website:  https://openfoam.org
    \\  /    A nd           | Version:  7
     \\/     M anipulation  |
\*---------------------------------------------------------------------------*/
FoamFile
{
    version     2.0;
    format      ascii;
    class       volScalarField;
    location    "2.6";
    object      rho;
}
// * * * * * * * * * * * * * * * * * * * * * * * * * * * * * * * * * * * * * //

dimensions      [1 -3 0 0 0 0 0];

internalField   nonuniform List<scalar> 
4032
(
1.40001
1.40001
1.40001
1.40001
1.40001
1.40001
1.40001
1.40001
1.40001
1.40001
1.40001
1.40001
3.91223
5.45555
5.50494
5.57208
5.64426
5.71615
5.7847
5.84391
5.88809
5.91295
5.92716
5.94198
1.40001
1.40001
1.40001
1.40001
1.40001
1.40001
1.40001
1.40001
1.40001
1.40001
1.40001
1.40001
3.83644
5.43144
5.49451
5.56158
5.63364
5.70407
5.77063
5.82736
5.86904
5.89155
5.90344
5.91714
1.40001
1.40001
1.40001
1.40001
1.40001
1.40001
1.40001
1.40001
1.40001
1.40001
1.40001
1.40001
3.68679
5.40255
5.47511
5.54146
5.61337
5.68222
5.74681
5.80127
5.8408
5.86149
5.87082
5.88471
1.40001
1.40001
1.40001
1.40001
1.40001
1.40001
1.40001
1.40001
1.40001
1.40001
1.40001
1.40001
3.46823
5.35927
5.44983
5.51402
5.58548
5.65243
5.71497
5.76712
5.80348
5.81917
5.82058
5.82652
1.40001
1.40001
1.40001
1.40001
1.40001
1.40001
1.40001
1.40001
1.40001
1.40001
1.40001
1.40001
3.1825
5.29112
5.42016
5.47959
5.54709
5.60837
5.66426
5.7086
5.73697
5.74865
5.74735
5.76035
1.40001
1.40001
1.40001
1.40001
1.40001
1.40001
1.40001
1.40001
1.40001
1.40001
1.40001
1.40001
2.83473
5.18301
5.39828
5.44841
5.50698
5.55849
5.60451
5.64066
5.66243
5.66986
5.66088
5.64447
1.40001
1.40001
1.40001
1.40001
1.40001
1.40001
1.40001
1.40001
1.40001
1.40001
1.40001
1.40001
2.43098
5.02358
5.41626
5.43916
5.47763
5.51299
5.54215
5.55941
5.55735
5.52873
5.49073
5.46965
1.40001
1.40001
1.40001
1.40001
1.40001
1.40001
1.40001
1.40001
1.40001
1.40001
1.40001
1.40001
1.98933
4.78953
5.43307
5.41853
5.44393
5.46478
5.47418
5.4714
5.44237
5.39119
5.31236
5.26748
1.40001
1.40001
1.40001
1.40001
1.40001
1.40001
1.40001
1.40001
1.40001
1.40001
1.40001
1.40001
1.53822
4.43186
5.46646
5.41398
5.40839
5.39957
5.38533
5.36032
5.29614
5.17942
4.85123
3.98859
1.40001
1.40001
1.40001
1.40001
1.40001
1.40001
1.40001
1.40001
1.40001
1.40001
1.40001
1.40001
1.40393
3.79817
5.25009
5.28557
5.30769
5.30338
5.27835
5.2302
5.13003
4.93676
4.59423
3.69294
1.40001
1.40001
1.40001
1.40001
1.40001
1.40001
1.40001
1.40001
1.40001
1.40001
1.40001
1.40001
1.39998
3.04283
5.08249
5.2486
5.25233
5.23595
5.19343
5.11631
4.98578
4.7482
4.38926
3.55869
1.40001
1.40001
1.40001
1.40001
1.40001
1.40001
1.40001
1.40001
1.40001
1.40001
1.40001
1.40001
1.4
2.23902
4.84006
5.23293
5.20762
5.17195
5.10641
5.0042
4.84767
4.60711
4.21827
3.54325
1.40001
1.40001
1.40001
1.40001
1.40001
1.40001
1.40001
1.40001
1.40001
1.40001
1.40001
1.40001
1.4
1.55514
4.34314
5.25492
5.17017
5.09788
5.01012
4.89546
4.72837
4.49567
4.10637
3.58145
1.40001
1.40001
1.40001
1.40001
1.40001
1.40001
1.40001
1.40001
1.40001
1.40001
1.40001
1.40001
1.4
1.40298
3.47954
5.06893
5.04601
4.99475
4.91437
4.79569
4.63481
4.40107
4.04765
3.62841
1.40001
1.40001
1.40001
1.40001
1.40001
1.40001
1.40001
1.40001
1.40001
1.40001
1.40001
1.40001
1.40001
1.39997
2.36817
4.84968
5.0331
4.97594
4.87996
4.7435
4.57737
4.33423
4.02675
3.68082
1.40001
1.40001
1.40001
1.40001
1.40001
1.40001
1.40001
1.40001
1.40001
1.40001
1.40001
1.40001
1.40001
1.4
1.56152
4.1692
5.02772
4.95201
4.84785
4.6995
4.52577
4.2916
4.0213
3.72182
1.40001
1.40001
1.40001
1.40001
1.40001
1.40001
1.40001
1.40001
1.40001
1.40001
1.40001
1.40001
1.40001
1.4
1.40274
2.99323
4.87549
4.89671
4.80414
4.67459
4.49549
4.27574
4.02958
3.75953
1.40001
1.40001
1.40001
1.40001
1.40001
1.40001
1.40001
1.40001
1.40001
1.40001
1.40001
1.40001
1.40001
1.4
1.39999
1.77478
4.49292
4.96201
4.8132
4.67643
4.4891
4.27143
4.03803
3.78917
1.40001
1.40001
1.40001
1.40001
1.40001
1.40001
1.40001
1.40001
1.40001
1.40001
1.40001
1.40001
1.40001
1.40001
1.4
1.41888
3.3854
4.8078
4.77284
4.6551
4.48025
4.27227
4.0501
3.82276
1.40001
1.40001
1.40001
1.40001
1.40001
1.40001
1.40001
1.40001
1.40001
1.40001
1.40001
1.40001
1.40001
1.40001
1.4
1.40001
1.96584
4.48677
4.83549
4.6718
4.49169
4.29098
4.08311
3.87182
1.40001
1.40001
1.40001
1.40001
1.40001
1.40001
1.40001
1.40001
1.40001
1.40001
1.40001
1.40001
1.40001
1.40001
1.40001
1.4
1.44447
3.43412
4.72479
4.64883
4.48898
4.3083
4.11639
3.91449
1.40001
1.40001
1.40001
1.40001
1.40001
1.40001
1.40001
1.40001
1.40001
1.40001
1.40001
1.40001
1.40001
1.40001
1.40001
1.40001
1.40022
2.00233
4.30676
4.68692
4.51403
4.34044
4.15638
3.96301
1.40001
1.40001
1.40001
1.40001
1.40001
1.40001
1.40001
1.40001
1.40001
1.40001
1.40001
1.40001
1.40001
1.40001
1.40001
1.40001
1.40001
1.44836
3.17167
4.57928
4.51696
4.35589
4.18415
4.00625
1.40001
1.40001
1.40001
1.40001
1.40001
1.40001
1.40001
1.40001
1.40001
1.40001
1.40001
1.40001
1.40001
1.40001
1.40001
1.40001
1.40001
1.4004
1.86164
3.99502
4.56325
4.39154
4.23132
4.06224
1.40001
1.40001
1.40001
1.40001
1.40001
1.40001
1.40001
1.40001
1.40001
1.40001
1.40001
1.40001
1.40001
1.40001
1.40001
1.40001
1.40001
1.40001
1.42733
2.64683
4.33491
4.41158
4.2719
4.11419
1.40001
1.40001
1.40001
1.40001
1.40001
1.40001
1.40001
1.40001
1.40001
1.40001
1.40001
1.40001
1.40001
1.40001
1.40001
1.40001
1.40001
1.40001
1.40027
1.62053
3.47074
4.44836
4.34039
4.18292
1.40001
1.40001
1.40001
1.40001
1.40001
1.40001
1.40001
1.40001
1.40001
1.40001
1.40001
1.40001
1.40001
1.40001
1.40001
1.40001
1.40001
1.40001
1.40001
1.40672
2.08152
3.987
4.37411
4.2421
1.40001
1.40001
1.40001
1.40001
1.40001
1.40001
1.40001
1.40001
1.40001
1.40001
1.40001
1.40001
1.40001
1.40001
1.40001
1.40001
1.40001
1.40001
1.40001
1.40005
1.46059
2.69549
4.17981
4.29596
1.40001
1.40001
1.40001
1.40001
1.40001
1.40001
1.40001
1.40001
1.40001
1.40001
1.40001
1.40001
1.40001
1.40001
1.40001
1.40001
1.40001
1.40001
1.40001
1.40001
1.40098
1.63021
3.27493
4.25065
1.40001
1.40001
1.40001
1.40001
1.40001
1.40001
1.40001
1.40001
1.40001
1.40001
1.40001
1.40001
1.40001
1.40001
1.40001
1.40001
1.40001
1.40001
1.40001
1.40001
1.40001
1.40803
1.94451
3.67487
1.40001
1.40001
1.40001
1.40001
1.40001
1.40001
1.40001
1.40001
1.40001
1.40001
1.40001
1.40001
1.40001
1.40001
1.40001
1.40001
1.40001
1.40001
1.40001
1.40001
1.40001
1.40007
1.43943
2.32471
1.40001
1.40001
1.40001
1.40001
1.40001
1.40001
1.40001
1.40001
1.40001
1.40001
1.40001
1.40001
1.40001
1.40001
1.40001
1.40001
1.40001
1.40001
1.40001
1.40001
1.40001
1.40001
1.40059
1.51378
1.40001
1.40001
1.40001
1.40001
1.40001
1.40001
1.40001
1.40001
1.40001
1.40001
1.40001
1.40001
1.40001
1.40001
1.40001
1.40001
1.40001
1.40001
1.40001
1.40001
1.40001
1.40001
1.40001
1.40274
1.40001
1.40001
1.40001
1.40001
1.40001
1.40001
1.40001
1.40001
1.40001
1.40001
1.40001
1.40001
1.40001
1.40001
1.40001
1.40001
1.40001
1.40001
1.40001
1.40001
1.40001
1.40001
1.40001
1.40002
1.40001
1.40001
1.40001
1.40001
1.40001
1.40001
1.40001
1.40001
1.40001
1.40001
1.40001
1.40001
1.40001
1.40001
1.40001
1.40001
1.40001
1.40001
1.40001
1.40001
1.40001
1.40001
1.40001
1.40001
1.40001
1.40001
1.40001
1.40001
1.40001
1.40001
1.40001
1.40001
1.40001
1.40001
1.40001
1.40001
1.40001
1.40001
1.40001
1.40001
1.40001
1.40001
1.40001
1.40001
1.40001
1.40001
1.40001
1.40001
1.40001
1.40001
1.40001
1.40001
1.40001
1.40001
1.40001
1.40001
1.40001
1.40001
1.40001
1.40001
1.40001
1.40001
1.40001
1.40001
1.40001
1.40001
1.40001
1.40001
1.40001
1.40001
1.40001
1.40001
1.40001
1.40001
1.40001
1.40001
1.40001
1.40001
1.40001
1.40001
1.40001
1.40001
1.40001
1.40001
1.40001
1.40001
1.40001
1.40001
1.40001
1.40001
1.40001
1.40001
1.40001
1.40001
1.40001
1.40001
1.40001
1.40001
1.40001
1.40001
1.40001
1.40001
1.40001
1.40001
1.40001
1.40001
1.40001
1.40001
1.40001
1.40001
1.40001
1.40001
1.40001
1.40001
1.40001
1.40001
1.40001
1.40001
1.40001
1.40001
1.40001
1.40001
1.40001
1.40001
1.40001
1.40001
1.40001
1.40001
1.40001
1.40001
1.40001
1.40001
1.40001
1.40001
1.40001
1.40001
1.40001
1.40001
1.40001
1.40001
1.40001
1.40001
1.40001
1.40001
1.30344
0.463424
0.249045
0.23779
0.250646
0.268829
0.339917
0.462354
0.616066
0.71004
0.763748
0.80506
0.851509
0.917777
1.00092
1.04681
1.04546
1.02865
1.00435
1.00264
1.01028
1.03529
1.07605
1.09037
1.08942
1.07041
1.05165
1.05394
1.06525
1.08943
1.10771
1.10792
1.1003
1.088
1.09363
1.205
2.42613
3.38234
3.40539
3.41608
3.36285
3.26547
3.19272
3.15628
3.13169
3.10509
3.06359
3.0199
2.98368
2.95634
2.92093
2.87931
2.84018
2.80581
2.77804
2.7535
2.72271
2.68531
2.64078
2.5901
2.53909
2.49477
2.4623
2.43732
2.419
2.40985
2.39927
2.3768
2.35038
2.31888
2.27372
2.2159
2.16701
2.13615
2.11523
2.09737
2.0819
2.0692
2.05281
2.03392
2.0054
1.95796
1.91372
1.89042
1.87445
1.85991
1.84649
1.8312
1.81278
1.78305
1.73368
1.69335
1.67611
1.66285
1.6527
1.63776
2.00067
1.20895
0.818159
0.694071
0.628251
0.556465
0.531729
0.54577
0.56937
0.603296
0.643708
0.700402
0.763765
0.82424
0.905516
0.975728
0.987966
0.995305
1.00956
1.0259
1.04382
1.06545
1.08294
1.08636
1.08916
1.08682
1.08632
1.0858
1.08983
1.09646
1.10304
1.10887
1.10941
1.11864
1.21767
1.53171
2.31362
3.26358
3.3964
3.38338
3.36306
3.28696
3.23539
3.19051
3.15474
3.11978
3.07869
3.03886
3.00747
2.98544
2.95529
2.9127
2.86676
2.81982
2.77974
2.74542
2.71633
2.68712
2.65137
2.61458
2.57337
2.52576
2.47895
2.44661
2.4239
2.40604
2.3899
2.37065
2.34665
2.31799
2.28067
2.2351
2.18931
2.15202
2.12528
2.10536
2.08814
2.07061
2.05095
2.02744
1.99965
1.96454
1.92724
1.89884
1.87893
1.86267
1.84696
1.83073
1.81208
1.78669
1.74698
1.70346
1.67982
1.66589
1.65602
1.63911
2.48907
1.84571
1.39055
1.09628
0.959546
0.838301
0.72443
0.690697
0.665381
0.668434
0.692572
0.741009
0.795219
0.818079
0.847242
0.907904
0.954583
0.991811
1.03945
1.09152
1.13618
1.14446
1.13914
1.12315
1.11815
1.12285
1.13805
1.15102
1.15363
1.148
1.12775
1.12283
1.13377
1.2188
1.59914
2.00191
2.17477
2.74002
3.31871
3.51456
3.51568
3.44705
3.38742
3.31163
3.24975
3.18486
3.13941
3.10325
3.07231
3.04715
3.01639
2.97627
2.93513
2.8894
2.83408
2.77409
2.72927
2.69597
2.66951
2.64598
2.61715
2.58474
2.54233
2.48907
2.44487
2.41829
2.39662
2.37358
2.34665
2.31651
2.28496
2.25348
2.22018
2.18617
2.15577
2.13004
2.10611
2.0819
2.05617
2.02694
1.99455
1.96663
1.94375
1.92041
1.89657
1.87557
1.85682
1.8379
1.8166
1.79203
1.76304
1.72839
1.69643
1.67607
1.66498
1.64485
2.8143
2.27786
1.83139
1.52443
1.31914
1.16302
1.03286
0.932859
0.868417
0.827254
0.811871
0.802887
0.785465
0.77451
0.774538
0.797327
0.85302
0.914958
0.980069
1.05267
1.10928
1.13537
1.14546
1.14412
1.1482
1.16095
1.18541
1.20766
1.20906
1.19987
1.17163
1.17466
1.24668
1.57649
2.02834
2.26622
2.24739
2.30655
2.70429
3.20413
3.49355
3.53924
3.50235
3.4158
3.33512
3.25635
3.20882
3.17426
3.1457
3.11762
3.07709
3.03506
2.99378
2.95074
2.90051
2.83732
2.77889
2.74238
2.71379
2.68898
2.66275
2.63365
2.60034
2.55206
2.48995
2.4465
2.42116
2.39667
2.36984
2.3418
2.31474
2.28696
2.25683
2.22455
2.19215
2.16184
2.13343
2.10449
2.07259
2.03823
2.00785
1.98601
1.96657
1.94608
1.923
1.89841
1.87514
1.85239
1.82854
1.80505
1.78319
1.76052
1.7337
1.70219
1.68106
1.65712
3.04809
2.61057
2.19787
1.8723
1.63837
1.44161
1.31357
1.2146
1.1062
0.974799
0.916675
0.888794
0.857414
0.837109
0.823012
0.818627
0.819342
0.82801
0.855687
0.922309
1.00436
1.06236
1.10529
1.12749
1.13329
1.14781
1.17766
1.20784
1.21654
1.21651
1.22202
1.32212
1.62901
2.09202
2.25872
2.30549
2.29574
2.27522
2.31187
2.57467
3.0683
3.39431
3.48276
3.50228
3.4251
3.34192
3.26332
3.22015
3.18711
3.15974
3.12729
3.08717
3.04404
2.99727
2.94679
2.89031
2.82967
2.78484
2.75539
2.7305
2.70373
2.67444
2.64228
2.60142
2.54349
2.47825
2.43907
2.41576
2.39367
2.37147
2.34971
2.32695
2.30088
2.26902
2.23027
2.18908
2.15203
2.11974
2.08947
2.06261
2.04177
2.02243
2.00177
1.97921
1.9535
1.92416
1.89463
1.86772
1.84338
1.82306
1.80667
1.79132
1.7733
1.74615
1.71152
1.6725
3.20336
2.83134
2.46655
2.16579
1.93497
1.70147
1.51486
1.42535
1.33644
1.22341
1.09781
1.01123
0.98486
0.967021
0.94243
0.911821
0.877241
0.847372
0.844072
0.852746
0.874767
0.910559
0.961838
1.0256
1.07091
1.1047
1.14188
1.18851
1.20275
1.21278
1.31223
1.7053
2.11692
2.33065
2.29988
2.28814
2.28799
2.26945
2.24251
2.26226
2.42661
2.84109
3.22809
3.41934
3.43856
3.38602
3.30502
3.24921
3.20847
3.17655
3.14356
3.10307
3.05905
3.01469
2.97101
2.92667
2.87658
2.82128
2.77927
2.75009
2.72228
2.69478
2.66613
2.63385
2.59214
2.5332
2.47168
2.43645
2.41518
2.39714
2.37797
2.35702
2.33341
2.30335
2.25996
2.20625
2.16049
2.1293
2.1082
2.09191
2.07588
2.05796
2.03725
2.01179
1.98001
1.94321
1.90728
1.88012
1.8616
1.8472
1.83389
1.82076
1.80698
1.788
1.75708
1.69711
3.32845
3.00435
2.6717
2.38648
2.1667
1.94861
1.75542
1.60058
1.47975
1.39759
1.31512
1.22127
1.10896
1.04882
1.02514
0.996587
0.964786
0.937618
0.901611
0.870948
0.865391
0.868438
0.883642
0.915623
0.96046
1.00739
1.04788
1.09471
1.14024
1.21857
1.61092
2.09493
2.29732
2.34819
2.31871
2.29157
2.26726
2.25559
2.24593
2.23175
2.213
2.29063
2.6107
3.04154
3.33822
3.36506
3.33818
3.28073
3.23794
3.19398
3.14656
3.08943
3.04913
3.01582
2.98377
2.95043
2.91274
2.86435
2.80382
2.75444
2.72461
2.69997
2.67663
2.6497
2.61897
2.57748
2.51608
2.45848
2.43085
2.41141
2.39429
2.37518
2.35324
2.32548
2.27984
2.21274
2.16489
2.14474
2.12988
2.11713
2.10359
2.08741
2.068
2.03981
1.99588
1.94381
1.90831
1.89015
1.87699
1.86502
1.85465
1.84412
1.83224
1.81755
1.79166
1.71879
3.4142
3.12662
2.83671
2.57016
2.33877
2.12779
1.96198
1.81712
1.65326
1.50811
1.44859
1.38797
1.30238
1.20599
1.12001
1.08224
1.06717
1.0505
1.01377
0.958177
0.904564
0.884349
0.884605
0.894365
0.906827
0.920484
0.936721
0.966391
1.0514
1.40317
1.94052
2.17118
2.25168
2.28417
2.25925
2.26252
2.26056
2.25042
2.24198
2.22897
2.20135
2.16618
2.20159
2.42307
2.84796
3.19634
3.28552
3.30319
3.26662
3.21649
3.15018
3.07951
3.03895
3.00941
2.9889
2.96656
2.93373
2.89417
2.83577
2.76829
2.72759
2.70066
2.67744
2.65717
2.63167
2.60171
2.55844
2.49505
2.44143
2.41566
2.39707
2.3807
2.36036
2.3345
2.29648
2.23833
2.18316
2.15782
2.14206
2.12813
2.11752
2.10501
2.08832
2.06321
2.0116
1.94323
1.90929
1.8955
1.88337
1.87403
1.87172
1.86821
1.85696
1.84067
1.8104
1.73396
3.487
3.22121
2.95657
2.72114
2.50559
2.28434
2.1027
1.9758
1.83687
1.69242
1.56989
1.47776
1.42102
1.36273
1.29248
1.20412
1.13565
1.11531
1.09052
1.0493
1.00862
0.971135
0.923456
0.907115
0.908961
0.914014
0.927094
0.993607
1.27769
1.74387
1.93818
2.03968
2.08949
2.12098
2.15325
2.19411
2.22496
2.22963
2.23199
2.22253
2.19882
2.16121
2.1451
2.15615
2.28036
2.62396
3.01881
3.2213
3.26508
3.24251
3.16871
3.08218
3.0361
3.00612
2.99224
2.97377
2.94334
2.90814
2.8607
2.79593
2.73884
2.70669
2.68193
2.65879
2.63665
2.61124
2.58137
2.53593
2.47065
2.41852
2.39213
2.37201
2.3526
2.33085
2.3057
2.27296
2.22588
2.17863
2.15637
2.14394
2.13539
2.12148
2.10166
2.07393
2.02681
1.9639
1.92227
1.90498
1.89296
1.88262
1.87366
1.8617
1.84769
1.83162
1.80706
1.74916
3.54106
3.29649
3.05674
2.83534
2.62899
2.42941
2.25542
2.09842
1.95839
1.84058
1.72978
1.61655
1.50373
1.45311
1.41309
1.34831
1.27161
1.20178
1.15185
1.12261
1.10199
1.07811
1.03341
0.96992
0.937618
0.938816
0.977597
1.21778
1.66394
1.88043
1.89569
1.89588
1.91008
1.93604
1.97536
2.01748
2.07614
2.12982
2.16138
2.16755
2.16983
2.1594
2.1481
2.13456
2.1207
2.18107
2.43745
2.81648
3.11101
3.20258
3.18529
3.10318
3.05632
3.02425
3.00709
2.97971
2.95067
2.91641
2.87471
2.8238
2.76533
2.7178
2.68848
2.66413
2.6406
2.61631
2.59034
2.55932
2.51051
2.44201
2.3931
2.36703
2.34642
2.32965
2.31351
2.29502
2.26967
2.22765
2.17466
2.13787
2.11792
2.1016
2.08291
2.06076
2.03457
1.99881
1.9518
1.9199
1.90786
1.89772
1.88368
1.8655
1.84419
1.81982
1.79596
1.76068
3.59166
3.36387
3.14812
2.94281
2.73828
2.54986
2.38723
2.23139
2.08184
1.95368
1.85322
1.75308
1.64567
1.55714
1.48817
1.43547
1.3859
1.33092
1.26984
1.19149
1.15154
1.14229
1.11792
1.07064
1.02247
1.04487
1.26273
1.68825
1.95892
1.94711
1.91702
1.88269
1.87383
1.86931
1.86841
1.86567
1.87763
1.91365
1.95793
1.99961
2.04614
2.09396
2.10405
2.09441
2.08284
2.08569
2.11736
2.26861
2.57799
2.90594
3.08165
3.07346
3.07707
3.06489
3.03337
2.99976
2.96184
2.92364
2.88588
2.84473
2.79538
2.73941
2.69914
2.67278
2.64849
2.62377
2.59915
2.57372
2.54007
2.48272
2.41126
2.37034
2.34983
2.33328
2.32115
2.31057
2.29332
2.26604
2.21211
2.14976
2.11442
2.09233
2.0727
2.05425
2.03733
2.01882
1.99219
1.95376
1.91405
1.88656
1.87049
1.85523
1.83646
1.8123
1.79328
1.77184
3.65301
3.43326
3.23122
3.03452
2.83605
2.66013
2.49922
2.34747
2.20136
2.07743
1.96204
1.858
1.76952
1.68599
1.60019
1.51335
1.45123
1.41602
1.3754
1.31512
1.24236
1.19307
1.17109
1.14516
1.16907
1.39571
1.83329
2.08503
2.06737
2.01741
1.96784
1.93137
1.90984
1.89178
1.87399
1.86212
1.84518
1.83065
1.82028
1.82694
1.85025
1.89344
1.93104
1.9621
2.00106
2.00788
2.00521
2.02888
2.12069
2.3244
2.65073
2.87836
3.00768
3.03645
3.04341
3.02274
2.97848
2.94315
2.90334
2.85903
2.81283
2.75892
2.71447
2.68653
2.66121
2.63539
2.61002
2.58554
2.55828
2.51719
2.45383
2.39352
2.36182
2.34317
2.32829
2.31745
2.30276
2.28258
2.247
2.18473
2.12304
2.08976
2.07115
2.05592
2.04171
2.02755
2.01194
1.98438
1.93419
1.88842
1.86299
1.84564
1.82843
1.81282
1.80422
1.78567
3.70456
3.50014
3.30419
3.11234
2.93111
2.76656
2.60622
2.44894
2.31516
2.19643
2.08046
1.96374
1.86791
1.78505
1.70467
1.62799
1.55768
1.48246
1.42849
1.39645
1.35085
1.28986
1.23927
1.2637
1.50477
1.97118
2.24945
2.23044
2.16542
2.11307
2.0718
2.03656
2.00114
1.96452
1.9279
1.89419
1.86481
1.83636
1.81129
1.80807
1.80154
1.78926
1.77403
1.77665
1.79222
1.82057
1.84554
1.87307
1.91883
1.98154
2.11044
2.35645
2.67193
2.86946
2.97498
3.0045
2.99893
2.96833
2.93214
2.88117
2.82061
2.76367
2.72553
2.70163
2.67825
2.65326
2.62598
2.59653
2.56679
2.53364
2.49006
2.43866
2.39405
2.3617
2.33821
2.3195
2.30205
2.28316
2.25868
2.21801
2.15669
2.10251
2.07707
2.06179
2.04915
2.03663
2.02184
2.00119
1.96103
1.90105
1.85992
1.84092
1.82877
1.82039
1.81885
1.80145
3.76296
3.57168
3.38265
3.19441
3.02628
2.86568
2.70586
2.5522
2.42419
2.29849
2.182
2.06686
1.9742
1.88143
1.7884
1.71158
1.6543
1.58774
1.51127
1.45057
1.41257
1.36853
1.39508
1.65872
2.1418
2.41305
2.39165
2.32403
2.26514
2.22212
2.1788
2.13293
2.0867
2.04214
1.99914
1.95575
1.91591
1.88298
1.86119
1.83858
1.81281
1.78638
1.76242
1.73015
1.69836
1.68943
1.69589
1.7134
1.7408
1.78112
1.81668
1.88322
2.04283
2.34603
2.62111
2.85636
2.9308
2.9557
2.95163
2.90527
2.83986
2.77276
2.73348
2.71087
2.69
2.66841
2.64372
2.61137
2.57306
2.53664
2.50311
2.46818
2.42989
2.39219
2.35932
2.33038
2.3042
2.27985
2.25606
2.22955
2.19241
2.14354
2.09899
2.07173
2.05423
2.03931
2.02435
2.00661
1.97667
1.92278
1.86881
1.84895
1.84021
1.8321
1.83056
1.8141
3.8246
3.64157
3.45643
3.2806
3.1189
2.95894
2.79701
2.65655
2.52586
2.39966
2.27334
2.16703
2.06847
1.97494
1.88643
1.80276
1.73059
1.66772
1.60619
1.53727
1.47874
1.51357
1.81497
2.33026
2.59322
2.56493
2.48231
2.41681
2.37012
2.32501
2.27928
2.23289
2.18606
2.13717
2.08616
2.03647
1.99143
1.95188
1.91871
1.88935
1.8644
1.83638
1.79668
1.74084
1.6909
1.67229
1.66577
1.65986
1.66036
1.66719
1.66191
1.65927
1.67586
1.74586
1.94137
2.27706
2.58298
2.79888
2.89598
2.89436
2.86376
2.79801
2.74977
2.7182
2.69367
2.67304
2.65273
2.6242
2.58508
2.54394
2.50821
2.47641
2.44261
2.40876
2.37809
2.34726
2.31588
2.28427
2.25458
2.23017
2.20665
2.17737
2.13796
2.09668
2.06569
2.04187
2.02131
2.00165
1.97913
1.94454
1.89845
1.86693
1.85452
1.84424
1.83763
1.82016
3.89112
3.71579
3.53609
3.36904
3.20937
3.04804
2.8923
2.7564
2.62238
2.49163
2.36637
2.26511
2.15998
2.0655
1.97184
1.89894
1.82028
1.7468
1.67823
1.61478
1.66174
2.00348
2.54797
2.7959
2.75781
2.65911
2.5726
2.51796
2.46918
2.42215
2.37659
2.3298
2.2792
2.22307
2.1636
2.10721
2.05956
2.02103
1.98788
1.95737
1.92692
1.89233
1.84888
1.79629
1.73909
1.69154
1.67063
1.65408
1.64701
1.64037
1.63098
1.62164
1.60305
1.5684
1.57272
1.64803
1.88314
2.20633
2.56788
2.74061
2.80582
2.79473
2.78396
2.74951
2.70987
2.67447
2.64893
2.6249
2.59895
2.56837
2.52614
2.47495
2.43566
2.40939
2.38339
2.35548
2.32812
2.30188
2.27172
2.23826
2.21553
2.1942
2.16139
2.1245
2.08938
2.05703
2.02745
2.00051
1.97738
1.95621
1.92945
1.89618
1.87162
1.85513
1.84442
1.82378
3.94978
3.78138
3.61672
3.45417
3.2901
3.12761
2.98531
2.84711
2.7125
2.57443
2.4626
2.35535
2.2526
2.14957
2.06328
1.98433
1.90401
1.83026
1.75454
1.80929
2.19461
2.77508
2.98804
2.94232
2.83694
2.73446
2.67029
2.61708
2.56622
2.51853
2.4729
2.42561
2.37306
2.31202
2.24449
2.18252
2.13453
2.09639
2.06201
2.0285
1.99322
1.95299
1.9069
1.85379
1.79661
1.74889
1.71501
1.68904
1.66633
1.64623
1.62757
1.60914
1.59014
1.57073
1.53873
1.51034
1.52083
1.5994
1.82952
2.168
2.49461
2.66292
2.72595
2.72875
2.70254
2.66679
2.64394
2.62587
2.60701
2.58266
2.54426
2.49273
2.44028
2.39815
2.37371
2.35756
2.34301
2.32459
2.29857
2.26109
2.21313
2.17435
2.15248
2.13175
2.10707
2.07831
2.04657
2.01512
1.98686
1.9631
1.9415
1.91671
1.88933
1.864
1.84796
1.82404
4.01956
3.85264
3.6925
3.53238
3.36784
3.2125
3.07116
2.93329
2.79645
2.66828
2.55865
2.44695
2.34311
2.238
2.15678
2.068
1.98834
1.91322
1.98441
2.43212
2.98137
3.1989
3.15443
3.05322
2.95058
2.84916
2.77238
2.71563
2.66235
2.61173
2.56344
2.51463
2.46175
2.40065
2.32931
2.25792
2.20144
2.15857
2.12176
2.08673
2.0518
2.01568
1.97653
1.92951
1.8722
1.81491
1.77036
1.73871
1.71239
1.68764
1.6628
1.63733
1.60967
1.57915
1.54566
1.50765
1.4947
1.48319
1.49016
1.56973
1.77494
2.09513
2.38799
2.61148
2.62582
2.62162
2.61122
2.59214
2.58796
2.56955
2.54291
2.50266
2.44646
2.40341
2.37975
2.35885
2.33515
2.31239
2.29327
2.2647
2.21316
2.16887
2.14689
2.12818
2.10726
2.08445
2.06138
2.03726
2.00923
1.97762
1.94876
1.92592
1.90091
1.87538
1.85622
1.82512
4.07412
3.9123
3.75408
3.59304
3.43497
3.29519
3.15527
3.01543
2.87634
2.76407
2.64907
2.54032
2.42636
2.33122
2.23739
2.15165
2.07709
2.17293
2.69288
3.26889
3.38998
3.32424
3.2369
3.1609
3.08266
2.98274
2.8766
2.80702
2.75157
2.69836
2.64684
2.59569
2.54256
2.48437
2.41736
2.34411
2.2783
2.22649
2.18337
2.14395
2.10581
2.06789
2.02921
1.98741
1.93917
1.88586
1.83522
1.79342
1.75848
1.7267
1.69741
1.66965
1.64136
1.60984
1.57583
1.54224
1.50987
1.48061
1.47318
1.46328
1.46122
1.52154
1.68551
1.97981
2.25826
2.4813
2.56596
2.56941
2.56913
2.55489
2.52161
2.48624
2.44952
2.41633
2.38635
2.35531
2.32775
2.30666
2.28515
2.25603
2.2196
2.1828
2.1479
2.12684
2.11375
2.1008
2.08119
2.05595
2.02488
1.99414
1.96344
1.92541
1.89763
1.8826
1.86529
1.82936
4.14791
3.98118
3.8264
3.66822
3.51663
3.38019
3.24203
3.09614
2.96993
2.85781
2.74066
2.62513
2.51416
2.41458
2.32068
2.25194
2.39237
3.00381
3.57851
3.67139
3.56358
3.42486
3.33695
3.27633
3.20217
3.10909
2.99304
2.89785
2.83495
2.77878
2.72465
2.67173
2.61874
2.5633
2.501
2.4295
2.35811
2.29845
2.24906
2.20441
2.16131
2.11825
2.07484
2.03148
1.98758
1.94228
1.89804
1.85916
1.82484
1.79096
1.75443
1.71333
1.67176
1.63658
1.60707
1.57863
1.54846
1.52059
1.49595
1.46693
1.44665
1.42743
1.41645
1.45229
1.60078
1.86658
2.17822
2.38426
2.50565
2.52663
2.51899
2.49637
2.4612
2.42802
2.39079
2.3492
2.31582
2.29029
2.26669
2.2471
2.22826
2.19601
2.1581
2.13301
2.11164
2.0874
2.06416
2.03972
2.02156
2.00487
1.97847
1.93753
1.90032
1.86972
1.85025
1.828
4.22048
4.06618
3.90398
3.74789
3.60029
3.46366
3.32498
3.18037
3.05922
2.94124
2.82481
2.70426
2.59576
2.49699
2.42921
2.6284
3.31594
3.94389
3.92687
3.78842
3.65511
3.55298
3.48236
3.41454
3.33008
3.23374
3.11724
3.00438
2.92458
2.86099
2.80263
2.7466
2.69138
2.63529
2.57501
2.50742
2.43657
2.3729
2.3197
2.27298
2.22837
2.18252
2.13355
2.08275
2.03342
1.98712
1.94396
1.90479
1.8696
1.83637
1.80279
1.76638
1.72525
1.68071
1.63682
1.59909
1.56865
1.54667
1.52691
1.50162
1.47298
1.43987
1.41082
1.38256
1.3735
1.40209
1.54293
1.78656
2.1047
2.2926
2.42286
2.46018
2.46077
2.45334
2.41828
2.36052
2.32013
2.29226
2.26515
2.23865
2.2094
2.18368
2.1652
2.14224
2.11158
2.08174
2.05912
2.0416
2.02281
1.99471
1.96293
1.93534
1.90149
1.8679
1.85196
1.8297
4.22533
4.15349
3.99135
3.82873
3.68488
3.54707
3.40309
3.26426
3.14752
3.02883
2.90859
2.77836
2.67507
2.62758
2.89261
3.66946
4.22904
4.24961
4.08889
3.91988
3.78399
3.68714
3.61235
3.53713
3.44874
3.35097
3.24186
3.1284
3.0321
2.95586
2.8896
2.82759
2.76695
2.70597
2.64336
2.57803
2.511
2.44638
2.38793
2.33586
2.2876
2.23987
2.19026
2.13873
2.08729
2.03765
1.99017
1.94482
1.90196
1.86237
1.82674
1.79423
1.76159
1.72618
1.68808
1.64946
1.61057
1.57476
1.54458
1.52122
1.5016
1.4764
1.44141
1.40185
1.37152
1.34878
1.34442
1.36954
1.48863
1.73183
2.01622
2.21451
2.33118
2.39262
2.3842
2.36181
2.34151
2.31055
2.27336
2.24409
2.21769
2.19285
2.15884
2.11625
2.09174
2.0799
2.0663
2.05034
2.02617
1.99699
1.96463
1.92471
1.89442
1.88085
1.86876
1.83729
3.89942
4.18679
4.08656
3.9192
3.7673
3.63036
3.48448
3.35528
3.23032
3.11471
2.98195
2.85905
2.84542
3.20704
4.04819
4.5325
4.51438
4.36514
4.22476
4.08904
3.95653
3.83895
3.73891
3.64728
3.55728
3.46164
3.35954
3.25327
3.15177
3.06295
2.98547
2.91481
2.84689
2.77935
2.71205
2.64585
2.58119
2.51767
2.45544
2.39571
2.33911
2.28523
2.23364
2.18403
2.13554
2.08709
2.03806
1.98933
1.9427
1.89925
1.85819
1.81853
1.78072
1.74635
1.71418
1.68161
1.64805
1.61476
1.58099
1.54664
1.51227
1.48285
1.46024
1.43574
1.40161
1.36707
1.34185
1.32488
1.3181
1.34272
1.43746
1.6588
1.91928
2.16839
2.2329
2.27666
2.27659
2.27862
2.2801
2.26915
2.249
2.21369
2.16495
2.11773
2.08541
2.06107
2.04438
2.03183
2.02113
2.00364
1.97131
1.9285
1.89779
1.87488
1.85488
1.83012
2.70283
4.01149
4.14446
4.02453
3.86257
3.71715
3.57818
3.44201
3.32144
3.19969
3.04815
3.08667
3.58661
4.52284
4.91998
4.86075
4.63343
4.47757
4.36787
4.25084
4.12229
3.99398
3.87763
3.77188
3.6725
3.57386
3.4735
3.37254
3.27234
3.17513
3.08402
3.00056
2.9232
2.84952
2.77878
2.71127
2.64638
2.58228
2.51768
2.45274
2.38894
2.32799
2.27162
2.22035
2.17255
2.12523
2.07577
2.02375
1.9722
1.92547
1.88334
1.84404
1.80662
1.77078
1.73515
1.69962
1.66768
1.63956
1.61146
1.58036
1.54579
1.50817
1.46739
1.4332
1.41139
1.39004
1.35691
1.33091
1.3125
1.30363
1.29142
1.30848
1.38801
1.574
1.8091
2.06726
2.16849
2.19952
2.22761
2.22242
2.2106
2.19945
2.17581
2.13725
2.093
2.06428
2.04652
2.02926
2.00668
1.98059
1.95654
1.93799
1.91101
1.87538
1.85317
1.82469
1.63794
3.04115
4.03768
4.08632
3.97117
3.80797
3.66807
3.52293
3.41285
3.27747
3.37747
4.03313
4.96599
5.31422
5.16074
4.97537
4.7801
4.63138
4.51397
4.39416
4.27057
4.14363
4.01906
3.89985
3.78601
3.67801
3.5748
3.47502
3.37666
3.27717
3.17685
3.08005
2.99085
2.90968
2.83515
2.76538
2.69808
2.6309
2.56295
2.49543
2.43041
2.36798
2.30855
2.25256
2.20034
2.15177
2.10475
2.05569
2.00283
1.95117
1.90682
1.86822
1.82957
1.79054
1.75468
1.71997
1.68542
1.65198
1.62113
1.5926
1.56411
1.53099
1.49429
1.46051
1.42801
1.4009
1.37995
1.35741
1.32957
1.30243
1.28234
1.27709
1.26053
1.26613
1.32669
1.49829
1.74254
1.97001
2.14845
2.17055
2.1663
2.14989
2.11924
2.10909
2.10178
2.08542
2.06516
2.03522
2.00543
1.9805
1.95524
1.9214
1.88965
1.87305
1.85824
1.82463
1.40921
1.80567
3.29504
4.03721
4.0348
3.91691
3.7416
3.61583
3.53014
3.77289
4.64544
5.40609
5.71453
5.58824
5.3422
5.13939
4.95756
4.80541
4.67391
4.54471
4.41118
4.27431
4.14046
4.01346
3.88968
3.77009
3.66019
3.55629
3.4545
3.3535
3.2511
3.14773
3.04975
2.9623
2.8838
2.81019
2.73885
2.66838
2.59843
2.53068
2.46688
2.40572
2.34551
2.28667
2.2293
2.17231
2.11577
2.06326
2.01559
1.96886
1.92153
1.87969
1.85155
1.82483
1.789
1.74971
1.70927
1.66908
1.6327
1.59803
1.56439
1.54097
1.52486
1.5003
1.46459
1.42444
1.3817
1.35025
1.33517
1.32276
1.30964
1.28709
1.25764
1.23703
1.21387
1.21817
1.28889
1.45004
1.69573
1.90487
2.07272
2.10649
2.09594
2.0793
2.05194
2.03594
2.03252
2.02907
2.01428
1.99514
1.96531
1.92299
1.88548
1.85192
1.83308
1.81044
1.40009
1.42404
1.99644
3.45891
4.0234
3.98493
3.82159
3.83443
4.31605
5.34417
5.99806
6.00663
5.90553
5.7265
5.52358
5.33601
5.15274
4.97186
4.8203
4.68023
4.53278
4.37992
4.23001
4.09661
3.97246
3.84506
3.72595
3.61806
3.51172
3.4063
3.30565
3.20363
3.1019
3.00727
2.92336
2.848
2.77626
2.70453
2.63318
2.56493
2.50179
2.44388
2.38838
2.3306
2.26701
2.20057
2.13701
2.08094
2.03356
1.99224
1.95222
1.91026
1.86416
1.81749
1.77673
1.74046
1.7089
1.67963
1.64866
1.61701
1.58914
1.56207
1.528
1.4899
1.44874
1.40437
1.37214
1.35742
1.34603
1.32885
1.30668
1.28581
1.26788
1.24744
1.21349
1.19011
1.18625
1.19516
1.25957
1.40548
1.6467
1.8245
1.97158
2.04108
2.03158
2.01766
2.01189
1.99967
1.98492
1.96631
1.94739
1.92527
1.89077
1.8482
1.82798
1.80357
1.40001
1.40032
1.44897
2.1699
3.65003
3.82516
4.09601
5.00745
6.01078
6.47901
6.44435
6.2498
6.01829
5.86227
5.69348
5.51565
5.32644
5.12558
4.91902
4.74682
4.60969
4.46889
4.30981
4.13655
4.00068
3.90283
3.80237
3.69078
3.57027
3.44574
3.32992
3.2272
3.13396
3.04641
2.96086
2.87633
2.79489
2.71683
2.64267
2.57248
2.50629
2.44329
2.38063
2.31593
2.25173
2.19127
2.13566
2.08378
2.03538
1.99027
1.94786
1.90733
1.866
1.82605
1.79061
1.75819
1.72488
1.68943
1.65602
1.62571
1.59659
1.56616
1.53274
1.49562
1.45071
1.40526
1.37855
1.36316
1.34821
1.3309
1.31279
1.29706
1.27784
1.24639
1.20573
1.18342
1.17174
1.16432
1.16179
1.17296
1.23447
1.36975
1.56286
1.75287
1.86865
1.94793
1.98866
1.99519
1.9896
1.96745
1.93217
1.89338
1.86105
1.84559
1.83286
1.80386
1.40001
1.40001
1.40079
1.48739
2.37692
3.32103
5.54838
6.65745
6.73501
6.69806
6.49418
6.25368
6.04055
5.87508
5.70795
5.5356
5.36889
5.19366
5.00337
4.81898
4.64018
4.47801
4.33075
4.17925
4.02703
3.88759
3.76092
3.64948
3.55909
3.47627
3.38375
3.29014
3.1997
3.10924
3.0164
2.92293
2.83276
2.75232
2.68059
2.61158
2.53949
2.46447
2.39009
2.31879
2.25269
2.1939
2.14389
2.09848
2.05145
2.00239