/*--------------------------------*- C++ -*----------------------------------*\
  =========                 |
  \\      /  F ield         | OpenFOAM: The Open Source CFD Toolbox
   \\    /   O peration     | Website:  https://openfoam.org
    \\  /    A nd           | Version:  7
     \\/     M anipulation  |
\*---------------------------------------------------------------------------*/
FoamFile
{
    version     2.0;
    format      ascii;
    class       volScalarField;
    location    "3.2";
    object      p;
}
// * * * * * * * * * * * * * * * * * * * * * * * * * * * * * * * * * * * * * //

dimensions      [1 -1 -2 0 0 0 0];

internalField   nonuniform List<scalar> 
258048
(
1
1
1
1
1
1
1
1
1
1
1
1
1
1
1
1
1
1
1
1
1
1
1
1
1
1
1
1
1
1
1
1
1
1
1
1
1
1
1
1
1
1
1
1
1
1
1
1
1
1
1
1
1
1
1
1
1
1
1
1
1
1
1
1
1
1
1
1
1
1
1
1
1
1
1
1
1
1
1
1
1
1
1
1
1
1
1
1
1
1
1
1
1
1
1
1
1
1
2.81451
9.35227
10.407
10.4124
10.4491
10.4736
10.4838
10.5051
10.5578
10.6132
10.6644
10.7039
10.7212
10.7209
10.7198
10.7376
10.7752
10.8197
10.862
10.8954
10.9195
10.9395
10.9632
10.9944
11.0302
11.0645
11.0923
11.1108
11.1212
11.1309
11.1472
11.1742
11.2088
11.2429
11.2708
11.2901
11.3041
11.3204
11.3447
11.376
11.4074
11.4309
11.4439
11.4508
11.46
11.4778
11.5043
11.5343
11.5609
11.5797
11.5924
11.6043
11.6197
11.6397
11.663
11.6866
11.7078
11.7255
11.7404
11.7537
11.7664
11.7791
11.7932
11.81
11.8295
11.8499
11.8679
11.8801
11.8852
11.8859
11.888
11.8961
11.9102
11.9261
11.9393
11.9494
11.9587
11.9706
11.9849
11.9978
12.0052
12.0075
12.0096
12.0148
12.0238
12.0339
12.0407
12.0443
12.0465
12.0475
12.046
12.0418
12.0346
12.0253
1
1
1
1
1
1
1
1
1
1
1
1
1
1
1
1
1
1
1
1
1
1
1
1
1
1
1
1
1
1
1
1
1
1
1
1
1
1
1
1
1
1
1
1
1
1
1
1
1
1
1
1
1
1
1
1
1
1
1
1
1
1
1
1
1
1
1
1
1
1
1
1
1
1
1
1
1
1
1
1
1
1
1
1
1
1
1
1
1
1
1
1
1
1
1
1
1
1
2.79614
9.33196
10.407
10.4126
10.4494
10.4744
10.4882
10.5111
10.5595
10.6145
10.6649
10.7007
10.7152
10.7159
10.7185
10.7389
10.7765
10.8208
10.862
10.894
10.9174
10.9377
10.9625
10.9943
11.0303
11.0645
11.0914
11.1087
11.1188
11.1293
11.1469
11.1751
11.21
11.2436
11.2704
11.2889
11.3028
11.3196
11.3443
11.3756
11.4066
11.4297
11.4429
11.4505
11.4605
11.4785
11.5043
11.5331
11.5585
11.5773
11.5911
11.6048
11.6218
11.6422
11.6645
11.6863
11.7056
11.7226
11.7383
11.7533
11.7671
11.78
11.7931
11.8083
11.8265
11.8473
11.8668
11.8811
11.8878
11.8876
11.8878
11.8933
11.9056
11.9223
11.9383
11.9509
11.9612
11.9719
11.9841
11.9958
12.0037
12.0073
12.0097
12.014
12.0218
12.0316
12.0401
12.0453
12.0476
12.0476
12.0448
12.04
12.034
12.0267
1
1
1
1
1
1
1
1
1
1
1
1
1
1
1
1
1
1
1
1
1
1
1
1
1
1
1
1
1
1
1
1
1
1
1
1
1
1
1
1
1
1
1
1
1
1
1
1
1
1
1
1
1
1
1
1
1
1
1
1
1
1
1
1
1
1
1
1
1
1
1
1
1
1
1
1
1
1
1
1
1
1
1
1
1
1
1
1
1
1
1
1
1
1
1
1
1
1
2.76397
9.31864
10.4027
10.4108
10.447
10.4719
10.4908
10.5198
10.5643
10.6166
10.6637
10.6949
10.7068
10.7095
10.7156
10.7398
10.7787
10.8225
10.8617
10.8918
10.9142
10.9348
10.9611
10.9943
11.031
11.0648
11.0903
11.1059
11.1151
11.1264
11.1458
11.1757
11.2114
11.2446
11.27
11.2874
11.3009
11.318
11.3433
11.3747
11.4053
11.428
11.4412
11.4497
11.4608
11.4794
11.5046
11.5318
11.5556
11.5737
11.5885
11.6042
11.6236
11.6453
11.667
11.6866
11.7034
11.7187
11.7346
11.7513
11.7671
11.7809
11.7936
11.807
11.8232
11.8431
11.8641
11.8814
11.8902
11.8904
11.8891
11.8912
11.9003
11.9163
11.9349
11.9511
11.964
11.9744
11.9841
11.9931
12.0005
12.0055
12.0089
12.0129
12.0192
12.0281
12.038
12.045
12.0481
12.0475
12.0435
12.0375
12.032
12.0268
1
1
1
1
1
1
1
1
1
1
1
1
1
1
1
1
1
1
1
1
1
1
1
1
1
1
1
1
1
1
1
1
1
1
1
1
1
1
1
1
1
1
1
1
1
1
1
1
1
1
1
1
1
1
1
1
1
1
1
1
1
1
1
1
1
1
1
1
1
1
1
1
1
1
1
1
1
1
1
1
1
1
1
1
1
1
1
1
1
1
1
1
1
1
1
1
1
1
2.70938
9.29382
10.4001
10.4072
10.4423
10.4691
10.494
10.5265
10.5689
10.6179
10.6601
10.6858
10.6962
10.7025
10.715
10.7436
10.7829
10.8243
10.8601
10.8877
10.9092
10.9312
10.9597
10.9945
11.0313
11.0639
11.0874
11.1012
11.1103
11.1231
11.1449
11.1767
11.2131
11.2454
11.2693
11.2854
11.2985
11.3159
11.3417
11.3731
11.4033
11.4255
11.439
11.4485
11.461
11.4801
11.5047
11.5302
11.5522
11.5696
11.5854
11.6035
11.6252
11.6483
11.6695
11.6871
11.7014
11.7147
11.73
11.7477
11.7655
11.7808
11.7936
11.8061
11.8209
11.8395
11.8608
11.8802
11.8909
11.8917
11.8891
11.8885
11.895
11.91
11.9307
11.9509
11.9662
11.9766
11.9842
11.9908
11.9972
12.0027
12.0069
12.0107
12.0162
12.0249
12.0361
12.045
12.0483
12.0466
12.0413
12.0348
12.0301
12.0274
1
1
1
1
1
1
1
1
1
1
1
1
1
1
1
1
1
1
1
1
1
1
1
1
1
1
1
1
1
1
1
1
1
1
1
1
1
1
1
1
1
1
1
1
1
1
1
1
1
1
1
1
1
1
1
1
1
1
1
1
1
1
1
1
1
1
1
1
1
1
1
1
1
1
1
1
1
1
1
1
1
1
1
1
1
1
1
1
1
1
1
1
1
1
1
1
1
1
2.64151
9.26125
10.4037
10.4062
10.4393
10.4657
10.4944
10.53
10.5724
10.6174
10.6531
10.6738
10.6853
10.6972
10.7168
10.7489
10.788
10.8265
10.858
10.8829
10.9042
10.9279
10.9587
10.9949
11.0314
11.0622
11.0833
11.0955
11.1051
11.1199
11.1441
11.1776
11.2144
11.2458
11.2682
11.2832
11.2959
11.3136
11.3396
11.3709
11.4006
11.4225
11.4362
11.4467
11.4603
11.48
11.5042
11.5283
11.5491
11.5658
11.5822
11.602
11.6256
11.6499
11.6711
11.6875
11.6998
11.7113
11.7252
11.7427
11.7616
11.7787
11.7928
11.8058
11.8202
11.8378
11.8578
11.8768
11.8884
11.8903
11.8876
11.8861
11.8913
11.905
11.9262
11.9489
11.9667
11.9779
11.9845
11.9894
11.9941
11.9989
12.003
12.007
12.0127
12.0222
12.0344
12.0441
12.0472
12.0441
12.0379
12.0315
12.028
12.0275
1
1
1
1
1
1
1
1
1
1
1
1
1
1
1
1
1
1
1
1
1
1
1
1
1
1
1
1
1
1
1
1
1
1
1
1
1
1
1
1
1
1
1
1
1
1
1
1
1
1
1
1
1
1
1
1
1
1
1
1
1
1
1
1
1
1
1
1
1
1
1
1
1
1
1
1
1
1
1
1
1
1
1
1
1
1
1
1
1
1
1
1
1
1
1
1
1
1
2.56258
9.22107
10.396
10.3991
10.4344
10.4631
10.4954
10.5332
10.5756
10.6164
10.6456
10.6632
10.6785
10.6966
10.7213
10.7543
10.7914
10.8258
10.8536
10.8775
10.9
10.9259
10.9584
10.9949
11.03
11.0585
11.0775
11.0889
11.1001
11.1174
11.1439
11.1787
11.2151
11.2452
11.2662
11.2805
11.2933
11.3113
11.3377
11.3687
11.3979
11.4194
11.4332
11.4443
11.4586
11.4786
11.5025
11.526
11.5462
11.563
11.58
11.6005
11.625
11.6499
11.6712
11.6869
11.6982
11.7083
11.7208
11.7371
11.7559
11.7743
11.7907
11.8055
11.8208
11.8379
11.856
11.8723
11.8826
11.8856
11.8842
11.8839
11.8894
11.9023
11.9223
11.9449
11.9645
11.9776
11.9848
11.9887
11.9916
11.9943
11.9974
12.0019
12.0092
12.0204
12.0333
12.0425
12.0444
12.0402
12.0338
12.0282
12.0263
12.027
1
1
1
1
1
1
1
1
1
1
1
1
1
1
1
1
1
1
1
1
1
1
1
1
1
1
1
1
1
1
1
1
1
1
1
1
1
1
1
1
1
1
1
1
1
1
1
1
1
1
1
1
1
1
1
1
1
1
1
1
1
1
1
1
1
1
1
1
1
1
1
1
1
1
1
1
1
1
1
1
1
1
1
1
1
1
1
1
1
1
1
1
1
1
1
1
1
1
2.47684
9.16358
10.3766
10.3886
10.4289
10.4627
10.4998
10.5386
10.5789
10.6141
10.637
10.655
10.6758
10.6994
10.7265
10.7578
10.7917
10.8226
10.8486
10.8735
10.8984
10.926
10.9588
10.9942
11.0269
11.0526
11.0701
11.082
11.0956
11.116
11.1447
11.1799
11.2151
11.2433
11.2629
11.2769
11.2902
11.3093
11.3364
11.367
11.3953
11.416
11.4297
11.4412
11.4559
11.4759
11.4994
11.5226
11.543
11.5604
11.5785
11.5999
11.6245
11.6489
11.6695
11.6846
11.6954
11.7051
11.7169
11.7323
11.7502
11.7687
11.7867
11.804
11.8212
11.8387
11.855
11.8676
11.875
11.8779
11.8788
11.8815
11.8886
11.9015
11.9195
11.94
11.9596
11.9752
11.9845
11.9886
11.9895
11.9895
11.9909
11.9959
12.0058
12.0193
12.0322
12.0399
12.0402
12.0351
12.0289
12.0247
12.0244
12.0255
1
1
1
1
1
1
1
1
1
1
1
1
1
1
1
1
1
1
1
1
1
1
1
1
1
1
1
1
1
1
1
1
1
1
1
1
1
1
1
1
1
1
1
1
1
1
1
1
1
1
1
1
1
1
1
1
1
1
1
1
1
1
1
1
1
1
1
1
1
1
1
1
1
1
1
1
1
1
1
1
1
1
1
1
1
1
1
1
1
1
1
1
1
1
1
1
1
1
2.37815
9.08327
10.3568
10.3832
10.425
10.4632
10.504
10.5429
10.5801
10.6097
10.6298
10.6511
10.6771
10.7033
10.7295
10.7576
10.7882
10.8173
10.8441
10.8715
10.8989
10.9273
10.9591
10.9922
11.0218
11.045
11.0618
11.0753
11.0921
11.1155
11.1458
11.1807
11.214
11.2397
11.2578
11.2719
11.2865
11.3077
11.3359
11.3662
11.3932
11.4125
11.4257
11.4374
11.4524
11.4723
11.4953
11.518
11.5387
11.5574
11.5773
11.6
11.6248
11.648
11.6666
11.6801
11.6904
11.7005
11.713
11.7285
11.7457
11.7633
11.7813
11.8002
11.8198
11.8387
11.8542
11.8638
11.8678
11.8691
11.8716
11.8778
11.888
11.9015
11.9176
11.9352
11.9537
11.9708
11.9827
11.9877
11.9872
11.9847
11.9844
11.99
12.0023
12.0177
12.03
12.0358
12.0347
12.0294
12.0243
12.0215
12.0222
12.0225
1
1
1
1
1
1
1
1
1
1
1
1
1
1
1
1
1
1
1
1
1
1
1
1
1
1
1
1
1
1
1
1
1
1
1
1
1
1
1
1
1
1
1
1
1
1
1
1
1
1
1
1
1
1
1
1
1
1
1
1
1
1
1
1
1
1
1
1
1
1
1
1
1
1
1
1
1
1
1
1
1
1
1
1
1
1
1
1
1
1
1
1
1
1
1
1
1
1
2.26725
8.98279
10.346
10.3802
10.4224
10.4625
10.5056
10.5447
10.5789
10.6052
10.6262
10.6512
10.6797
10.7053
10.7289
10.7537
10.7821
10.8114
10.8402
10.8701
10.8997
10.9289
10.9593
10.9896
11.0159
11.0366
11.0534
11.0691
11.089
11.115
11.1465
11.1805
11.2116
11.2347
11.2513
11.2659
11.2827
11.3065
11.3362
11.3659
11.391
11.4083
11.4205
11.4326
11.4483
11.4685
11.4909
11.5125
11.533
11.553
11.5754
11.6004
11.6261
11.6481
11.664
11.6747
11.6837
11.6944
11.7086
11.7256
11.7429
11.7591
11.7755
11.794
11.8152
11.8362
11.8524
11.8606
11.8621
11.8614
11.8639
11.8724
11.8858
11.9009
11.916
11.9311
11.9477
11.965
11.9789
11.9852
11.9842
11.9803
11.9789
11.9847
11.9986
12.0148
12.0259
12.03
12.0284
12.024
12.0201
12.0184
12.0192
12.0178
1
1
1
1
1
1
1
1
1
1
1
1
1
1
1
1
1
1
1
1
1
1
1
1
1
1
1
1
1
1
1
1
1
1
1
1
1
1
1
1
1
1
1
1
1
1
1
1
1
1
1
1
1
1
1
1
1
1
1
1
1
1
1
1
1
1
1
1
1
1
1
1
1
1
1
1
1
1
1
1
1
1
1
1
1
1
1
1
1
1
1
1
1
1
1
1
1
1
2.1484
8.85686
10.3528
10.3773
10.4193
10.4597
10.5026
10.5412
10.5742
10.6014
10.6257
10.653
10.6807
10.7045
10.7261
10.7489
10.776
10.8062
10.8368
10.8687
10.8999
10.9293
10.9582
10.9858
11.0094
11.0287
11.0461
11.0638
11.0862
11.1142
11.1461
11.1791
11.2078
11.2286
11.2439
11.2595
11.279
11.3058
11.3369
11.3657
11.3884
11.4034
11.4144
11.4272
11.4444
11.4654
11.4871
11.5071
11.5263
11.5467
11.5717
11.5996
11.6267
11.6479
11.6611
11.6688
11.6758
11.6866
11.7029
11.7224
11.7409
11.7562
11.7705
11.7873
11.8086
11.8312
11.8491
11.8577
11.8581
11.8558
11.857
11.8657
11.8812
11.8985
11.914
11.9278
11.9424
11.9585
11.973
11.9806
11.9802
11.9763
11.9746
11.9804
11.9942
12.0097
12.0195
12.0228
12.0218
12.0189
12.0164
12.0152
12.015
12.0114
1
1
1
1
1
1
1
1
1
1
1
1
1
1
1
1
1
1
1
1
1
1
1
1
1
1
1
1
1
1
1
1
1
1
1
1
1
1
1
1
1
1
1
1
1
1
1
1
1
1
1
1
1
1
1
1
1
1
1
1
1
1
1
1
1
1
1
1
1
1
1
1
1
1
1
1
1
1
1
1
1
1
1
1
1
1
1
1
1
1
1
1
1
1
1
1
1
1
2.02557
8.70838
10.3634
10.3763
10.4167
10.4556
10.497
10.5344
10.5678
10.5979
10.6258
10.6535
10.6793
10.7015
10.7223
10.7448
10.7718
10.8025
10.8341
10.8667
10.8982
10.9275
10.9554
10.9815
11.0039
11.0232
11.0415
11.0604
11.0836
11.1122
11.1438
11.1755
11.2022
11.2214
11.2365
11.2535
11.2758
11.3051
11.3367
11.3638
11.3837
11.3965
11.4067
11.4207
11.4399
11.4624
11.4839
11.5027
11.5203
11.5402
11.5665
11.597
11.6263
11.6479
11.6596
11.6648
11.6695
11.6792
11.6963
11.7177
11.7374
11.7526
11.7652
11.7799
11.7999
11.8233
11.8433
11.8537
11.8546
11.8517
11.8516
11.8594
11.8753
11.8941
11.9108
11.9245
11.9377
11.9519
11.9655
11.974
11.9754
11.9726
11.9714
11.9767
11.9887
12.0023
12.0112
12.0147
12.0155
12.0147
12.0131
12.0116
12.0095
12.0038
1
1
1
1
1
1
1
1
1
1
1
1
1
1
1
1
1
1
1
1
1
1
1
1
1
1
1
1
1
1
1
1
1
1
1
1
1
1
1
1
1
1
1
1
1
1
1
1
1
1
1
1
1
1
1
1
1
1
1
1
1
1
1
1
1
1
1
1
1
1
1
1
1
1
1
1
1
1
1
1
1
1
1
1
1
1
1
1
1
1
1
1
1
1
1
1
1
1
1.89856
8.53942
10.3704
10.3795
10.4163
10.4528
10.4918
10.5284
10.5623
10.5941
10.624
10.6511
10.6753
10.6972
10.7188
10.7424
10.7696
10.8001
10.8315
10.8632
10.8941
10.923
10.9506
10.9765
10.9993
11.0195
11.0387
11.058
11.0806
11.1084
11.1394
11.1699
11.1955
11.2145
11.2306
11.2495
11.2742
11.3049
11.3361
11.3612
11.3785
11.3892
11.3991
11.4145
11.4354
11.459
11.4803
11.4982
11.5146
11.5334
11.5591
11.5897
11.6202
11.6429
11.6549
11.6597
11.6637
11.6728
11.6895
11.7112
11.7317
11.7474
11.7598
11.7736
11.7925
11.8153
11.836
11.8481
11.8506
11.8482
11.8475
11.854
11.8689
11.8879
11.9056
11.92
11.9327
11.9453
11.9574
11.9664
11.97
11.9692
11.9688
11.973
11.9822
11.993
12.0015
12.0063
12.0095
12.0108
12.0096
12.0069
12.0027
11.9954
1
1
1
1
1
1
1
1
1
1
1
1
1
1
1
1
1
1
1
1
1
1
1
1
1
1
1
1
1
1
1
1
1
1
1
1
1
1
1
1
1
1
1
1
1
1
1
1
1
1
1
1
1
1
1
1
1
1
1
1
1
1
1
1
1
1
1
1
1
1
1
1
1
1
1
1
1
1
1
1
1
1
1
1
1
1
1
1
1
1
1
1
1
1
1
1
1
1
1.76363
8.34633
10.3744
10.3809
10.413
10.4492
10.4874
10.5234
10.5578
10.5906
10.6209
10.6472
10.6706
10.6932
10.716
10.7407
10.7681
10.798
10.8285
10.8589
10.8885
10.9171
10.945
10.9718
10.9962
11.0179
11.0378
11.0567
11.0776
11.103
11.1314
11.1599
11.1848
11.2051
11.2239
11.2457
11.2723
11.3026
11.3315
11.354
11.3697
11.3803
11.3916
11.4091
11.431
11.4551
11.4762
11.4941
11.5105
11.5295
11.5545
11.5835
11.6126
11.6351
11.6482
11.6546
11.66
11.6692
11.6845
11.7041
11.7235
11.7396
11.7533
11.7679
11.7863
11.8076
11.8273
11.8402
11.8448
11.8443
11.8446
11.8504
11.8635
11.881
11.8986
11.9136
11.9264
11.9384
11.9495
11.9586
11.9637
11.9651
11.9655
11.9681
11.9743
11.9827
11.9911
11.9981
12.0036
12.0062
12.0052
12.001
11.9948
11.9871
1
1
1
1
1
1
1
1
1
1
1
1
1
1
1
1
1
1
1
1
1
1
1
1
1
1
1
1
1
1
1
1
1
1
1
1
1
1
1
1
1
1
1
1
1
1
1
1
1
1
1
1
1
1
1
1
1
1
1
1
1
1
1
1
1
1
1
1
1
1
1
1
1
1
1
1
1
1
1
1
1
1
1
1
1
1
1
1
1
1
1
1
1
1
1
1
1
1
1.62888
8.127
10.3733
10.3811
10.4104
10.4461
10.4828
10.5196
10.5548
10.5875
10.6172
10.6425
10.6662
10.6898
10.7133
10.7379
10.7652
10.7947
10.8247
10.854
10.8825
10.9106
10.9389
10.9671
10.9934
11.0167
11.0374
11.0561
11.0751
11.0975
11.123
11.1492
11.1737
11.1962
11.2188
11.2439
11.2717
11.3006
11.3262
11.3455
11.3604
11.3724
11.3865
11.4058
11.4273
11.45
11.4704
11.489
11.5072
11.5276
11.5518
11.5775
11.6025
11.6229
11.6374
11.6473
11.656
11.6667
11.6805
11.6965
11.7131
11.7292
11.7453
11.7627
11.7822
11.8021
11.8192
11.8307
11.8365
11.8389
11.8416
11.8477
11.8586
11.8732
11.8893
11.9046
11.9185
11.9311
11.9422
11.9511
11.9571
11.9599
11.9607
11.9619
11.9656
11.9724
11.981
11.99
11.9974
12.0005
11.9991
11.9937
11.9864
11.9794
1
1
1
1
1
1
1
1
1
1
1
1
1
1
1
1
1
1
1
1
1
1
1
1
1
1
1
1
1
1
1
1
1
1
1
1
1
1
1
1
1
1
1
1
1
1
1
1
1
1
1
1
1
1
1
1
1
1
1
1
1
1
1
1
1
1
1
1
1
1
1
1
1
1
1
1
1
1
1
1
1
1
1
1
1
1
1
1
1
1
1
1
1
1
1
1
1
1
1.50037
7.87976
10.3695
10.3832
10.4088
10.4441
10.4802
10.5167
10.5512
10.5833
10.6127
10.6389
10.6638
10.6878
10.7107
10.7347
10.7615
10.7904
10.8199
10.8488
10.877
10.905
10.9334
10.9625
10.9903
11.0153
11.0371
11.0556
11.0731
11.0923
11.1143
11.1381
11.1626
11.188
11.2148
11.2428
11.2706
11.2964
11.3177
11.3345
11.3502
11.3655
11.3833
11.4041
11.4238
11.4436
11.462
11.4815
11.5024
11.5255
11.5497
11.5723
11.5922
11.6086
11.6232
11.6374
11.6515
11.6657
11.6791
11.6915
11.7036
11.7175
11.7348
11.7555
11.7771
11.7962
11.8105
11.82
11.8264
11.8321
11.8382
11.8454
11.8542
11.8653
11.8788
11.8939
11.9094
11.9236
11.9353
11.944
11.95
11.9531
11.954
11.9545
11.9567
11.9628
11.9716
11.9819
11.99
11.9929
11.9911
11.9853
11.978
11.9726
1
1
1
1
1
1
1
1
1
1
1
1
1
1
1
1
1
1
1
1
1
1
1
1
1
1
1
1
1
1
1
1
1
1
1
1
1
1
1
1
1
1
1
1
1
1
1
1
1
1
1
1
1
1
1
1
1
1
1
1
1
1
1
1
1
1
1
1
1
1
1
1
1
1
1
1
1
1
1
1
1
1
1
1
1
1
1
1
1
1
1
1
1
1
1
1
1
1
1.37039
7.59613
10.3677
10.3861
10.4102
10.4436
10.4778
10.5129
10.5462
10.578
10.608
10.6359
10.6624
10.6865
10.7084
10.731
10.7564
10.7844
10.8139
10.8434
10.8722
10.9002
10.9284
10.9573
10.9858
11.0121
11.0352
11.0542
11.0706
11.0871
11.1058
11.1274
11.1522
11.1806
11.2111
11.241
11.268
11.29
11.3072
11.3221
11.3394
11.359
11.381
11.403
11.421
11.4374
11.4529
11.4722
11.4958
11.5224
11.5479
11.5686
11.5838
11.5955
11.6082
11.6248
11.6445
11.6634
11.6776
11.6872
11.695
11.7058
11.723
11.7461
11.7701
11.7893
11.8017
11.8094
11.816
11.8242
11.8337
11.8425
11.8499
11.8578
11.8684
11.8827
11.8995
11.9157
11.9283
11.9365
11.9415
11.9442
11.9453
11.946
11.9482
11.9541
11.9628
11.9732
11.9808
11.9832
11.9812
11.976
11.9698
11.9663
1
1
1
1
1
1
1
1
1
1
1
1
1
1
1
1
1
1
1
1
1
1
1
1
1
1
1
1
1
1
1
1
1
1
1
1
1
1
1
1
1
1
1
1
1
1
1
1
1
1
1
1
1
1
1
1
1
1
1
1
1
1
1
1
1
1
1
1
1
1
1
1
1
1
1
1
1
1
1
1
1
1
1
1
1
1
1
1
1
1
1
1
1
1
1
1
1
1
1.24168
7.29264
10.3678
10.3853
10.4097
10.4419
10.4751
10.509
10.5407
10.5715
10.6017
10.6314
10.6595
10.6838
10.7051
10.7265
10.7503
10.7773
10.807
10.8376
10.8675
10.896
10.9239
10.9519
10.9798
11.0066
11.0309
11.0508
11.0668
11.0815
11.0979
11.1178
11.1433
11.174
11.2069
11.2377
11.2632
11.282
11.2964
11.3102
11.3289
11.3525
11.378
11.4013
11.4184
11.4322
11.4448
11.4627
11.4868
11.5156
11.5427
11.5628
11.5754
11.5839
11.5945
11.6116
11.6349
11.6579
11.6743
11.6831
11.6884
11.6963
11.7119
11.7354
11.7607
11.7808
11.7931
11.8
11.8064
11.8155
11.827
11.837
11.8436
11.8493
11.8577
11.8711
11.8889
11.9067
11.9202
11.928
11.9318
11.9339
11.9356
11.9374
11.9404
11.9462
11.9542
11.9632
11.9697
11.9718
11.9702
11.9663
11.9619
11.9599
1
1
1
1
1
1
1
1
1
1
1
1
1
1
1
1
1
1
1
1
1
1
1
1
1
1
1
1
1
1
1
1
1
1
1
1
1
1
1
1
1
1
1
1
1
1
1
1
1
1
1
1
1
1
1
1
1
1
1
1
1
1
1
1
1
1
1
1
1
1
1
1
1
1
1
1
1
1
1
1
1
1
1
1
1
1
1
1
1
1
1
1
1
1
1
1
1
1
1.10988
6.98298
10.3696
10.384
10.4065
10.4386
10.4724
10.5062
10.5375
10.5673
10.5967
10.6268
10.6556
10.6805
10.7019
10.7226
10.745
10.7709
10.8001
10.8312
10.862
10.8911
10.919
10.9463
10.9735
11
11.0246
11.0449
11.0608
11.0748
11.0902
11.1099
11.1362
11.1683
11.2019
11.2324
11.2565
11.2735
11.2868
11.3007
11.3199
11.345
11.372
11.3964
11.4139
11.4272
11.4387
11.455
11.4776
11.5059
11.5333
11.5541
11.567
11.5752
11.5851
11.6013
11.6243
11.6484
11.6667
11.6767
11.6819
11.6884
11.7018
11.7235
11.7484
11.7694
11.7831
11.7911
11.7979
11.8074
11.8193
11.8296
11.836
11.8406
11.848
11.8609
11.8788
11.8971
11.9108
11.9179
11.9207
11.9226
11.9253
11.9289
11.933
11.9382
11.9447
11.9515
11.9567
11.9592
11.9587
11.9565
11.954
11.9527
1
1
1
1
1
1
1
1
1
1
1
1
1
1
1
1
1
1
1
1
1
1
1
1
1
1
1
1
1
1
1
1
1
1
1
1
1
1
1
1
1
1
1
1
1
1
1
1
1
1
1
1
1
1
1
1
1
1
1
1
1
1
1
1
1
1
1
1
1
1
1
1
1
1
1
1
1
1
1
1
1
1
1
1
1
1
1
1
1
1
1
1
1
1
1
1
1
1
1.00552
6.65357
10.3192
10.3633
10.3937
10.4304
10.467
10.5021
10.5336
10.5626
10.5907
10.6193
10.6479
10.6737
10.6964
10.7172
10.739
10.7642
10.7928
10.8242
10.8558
10.8856
10.9138
10.9411
10.9679
10.9938
11.0174
11.037
11.0526
11.0668
11.0827
11.1037
11.1311
11.1627
11.1951
11.2242
11.2472
11.2643
11.2789
11.2945
11.3137
11.3376
11.3633
11.3874
11.4065
11.422
11.4348
11.4505
11.4698
11.4941
11.5189
11.5403
11.556
11.5672
11.5789
11.5944
11.615
11.637
11.6554
11.6675
11.6747
11.6818
11.6939
11.7129
11.7355
11.7565
11.772
11.7822
11.7903
11.7995
11.8102
11.8196
11.8258
11.8307
11.8383
11.8511
11.8685
11.8862
11.8992
11.9059
11.9086
11.911
11.9151
11.9205
11.9254
11.9294
11.9336
11.9382
11.9426
11.946
11.9472
11.9471
11.9457
11.9443
1
1
1
1
1
1
1
1
1
1
1
1
1
1
1
1
1
1
1
1
1
1
1
1
1
1
1
1
1
1
1
1
1
1
1
1
1
1
1
1
1
1
1
1
1
1
1
1
1
1
1
1
1
1
1
1
1
1
1
1
1
1
1
1
1
1
1
1
1
1
1
1
1
1
1
1
1
1
1
1
1
1
1
1
1
1
1
1
1
1
1
1
1
1
1
1
1
1
1.00005
6.23289
10.2662
10.3476
10.3822
10.4216
10.4609
10.4979
10.5302
10.5589
10.5857
10.6134
10.6418
10.6682
10.6913
10.7121
10.7337
10.7584
10.786
10.8167
10.8482
10.8783
10.907
10.9353
10.9628
10.9881
11.0102
11.0281
11.0431
11.0579
11.0758
11.0992
11.1274
11.1572
11.186
11.212
11.2342
11.2532
11.2719
11.291
11.3101
11.3308
11.352
11.3739
11.3945
11.4142
11.4308
11.4473
11.4637
11.4824
11.5025
11.5232
11.5426
11.5594
11.575
11.5908
11.6077
11.625
11.641
11.6543
11.665
11.6749
11.6871
11.7032
11.7223
11.7419
11.7591
11.7723
11.7825
11.7916
11.8004
11.8081
11.8141
11.8201
11.8287
11.8417
11.8581
11.8742
11.886
11.8926
11.8961
11.8998
11.9054
11.912
11.9168
11.9192
11.921
11.9237
11.9278
11.9326
11.9362
11.9375
11.9366
11.9345
1
1
1
1
1
1
1
1
1
1
1
1
1
1
1
1
1
1
1
1
1
1
1
1
1
1
1
1
1
1
1
1
1
1
1
1
1
1
1
1
1
1
1
1
1
1
1
1
1
1
1
1
1
1
1
1
1
1
1
1
1
1
1
1
1
1
1
1
1
1
1
1
1
1
1
1
1
1
1
1
1
1
1
1
1
1
1
1
1
1
1
1
1
1
1
1
1
1
1
5.77846
10.2156
10.3292
10.3692
10.4119
10.454
10.4925
10.5257
10.5544
10.5804
10.6075
10.6357
10.662
10.6852
10.7062
10.728
10.7522
10.7787
10.8084
10.8395
10.8699
10.8998
10.9298
10.958
10.9824
11.0027
11.0192
11.0338
11.0498
11.0704
11.0964
11.1248
11.1518
11.1761
11.1982
11.2193
11.2413
11.2654
11.2885
11.3081
11.3256
11.3416
11.3596
11.3803
11.4036
11.4252
11.4437
11.4584
11.4718
11.4861
11.5042
11.5261
11.5492
11.5704
11.5876
11.6013
11.6132
11.6254
11.6387
11.6529
11.6669
11.6806
11.6947
11.7101
11.7274
11.7451
11.761
11.7737
11.783
11.79
11.7957
11.8014
11.8085
11.8184
11.8316
11.8467
11.8609
11.8717
11.8787
11.8836
11.889
11.8957
11.9022
11.9061
11.9071
11.9072
11.9087
11.9131
11.9196
11.9251
11.9274
11.9263
11.9235
1
1
1
1
1
1
1
1
1
1
1
1
1
1
1
1
1
1
1
1
1
1
1
1
1
1
1
1
1
1
1
1
1
1
1
1
1
1
1
1
1
1
1
1
1
1
1
1
1
1
1
1
1
1
1
1
1
1
1
1
1
1
1
1
1
1
1
1
1
1
1
1
1
1
1
1
1
1
1
1
1
1
1
1
1
1
1
1
1
1
1
1
1
1
1
1
1
1
1
5.30601
10.1508
10.3144
10.3548
10.4015
10.4458
10.4866
10.5216
10.5506
10.5758
10.602
10.6294
10.6552
10.6785
10.6999
10.722
10.7458
10.7713
10.8002
10.831
10.8618
10.8928
10.9236
10.9517
10.9751
10.9941
11.0102
11.0255
11.0433
11.0664
11.0938
11.121
11.1448
11.1652
11.1844
11.2051
11.2297
11.2577
11.2838
11.3041
11.3195
11.3317
11.3465
11.3663
11.3909
11.4158
11.4368
11.4513
11.4617
11.4717
11.487
11.5096
11.537
11.5633
11.5829
11.5949
11.6025
11.6106
11.6225
11.6388
11.6567
11.673
11.6864
11.6987
11.713
11.73
11.7477
11.7627
11.7729
11.7789
11.7829
11.7881
11.7961
11.8072
11.8205
11.8342
11.8467
11.8568
11.8648
11.8716
11.8785
11.8852
11.8904
11.8931
11.8931
11.8925
11.8939
11.899
11.9069
11.9134
11.9161
11.9147
11.9114
1
1
1
1
1
1
1
1
1
1
1
1
1
1
1
1
1
1
1
1
1
1
1
1
1
1
1
1
1
1
1
1
1
1
1
1
1
1
1
1
1
1
1
1
1
1
1
1
1
1
1
1
1
1
1
1
1
1
1
1
1
1
1
1
1
1
1
1
1
1
1
1
1
1
1
1
1
1
1
1
1
1
1
1
1
1
1
1
1
1
1
1
1
1
1
1
1
1
1
4.82907
10.0606
10.3031
10.3411
10.3904
10.4362
10.479
10.5155
10.5454
10.5706
10.5961
10.6228
10.648
10.6711
10.6929
10.7154
10.739
10.7644
10.7931
10.8242
10.8553
10.8864
10.9164
10.9435
10.9661
10.9853
11.0023
11.019
11.0384
11.062
11.0882
11.1133
11.1352
11.1545
11.1735
11.1946
11.2197
11.248
11.2743
11.2954
11.3112
11.3229
11.3368
11.3557
11.379
11.4039
11.4255
11.4409
11.451
11.4595
11.4733
11.4953
11.5238
11.5523
11.574
11.5861
11.5916
11.5971
11.6073
11.6242
11.6448
11.6635
11.6772
11.6877
11.6994
11.7149
11.7331
11.7498
11.7612
11.7669
11.77
11.7746
11.7829
11.7947
11.8078
11.8206
11.8319
11.8419
11.851
11.8598
11.8675
11.873
11.8765
11.8778
11.8775
11.8775
11.8797
11.8858
11.8941
11.9006
11.9033
11.9016
11.8986
1
1
1
1
1
1
1
1
1
1
1
1
1
1
1
1
1
1
1
1
1
1
1
1
1
1
1
1
1
1
1
1
1
1
1
1
1
1
1
1
1
1
1
1
1
1
1
1
1
1
1
1
1
1
1
1
1
1
1
1
1
1
1
1
1
1
1
1
1
1
1
1
1
1
1
1
1
1
1
1
1
1
1
1
1
1
1
1
1
1
1
1
1
1
1
1
1
1
1
4.35378
9.93391
10.2949
10.3297
10.3812
10.428
10.4714
10.5086
10.5389
10.5646
10.5902
10.6161
10.6409
10.6636
10.6852
10.7077
10.7317
10.7578
10.7872
10.8188
10.8501
10.8802
10.9084
10.9341
10.9566
10.977
10.996
11.0145
11.0338
11.0551
11.0781
11.1015
11.1241
11.1457
11.1669
11.1888
11.212
11.2363
11.2595
11.2808
11.2998
11.3149
11.3307
11.3488
11.3686
11.39
11.4098
11.4261
11.4386
11.4492
11.4637
11.4847
11.5113
11.5388
11.561
11.5742
11.5801
11.585
11.5943
11.6106
11.6317
11.6517
11.6662
11.6761
11.6862
11.7
11.7176
11.735
11.7475
11.7537
11.7567
11.761
11.7693
11.7811
11.794
11.806
11.8167
11.827
11.8374
11.8477
11.8554
11.859
11.8605
11.8605
11.8608
11.8624
11.8662
11.8731
11.8809
11.8865
11.8888
11.8873
11.8853
1
1
1
1
1
1
1
1
1
1
1
1
1
1
1
1
1
1
1
1
1
1
1
1
1
1
1
1
1
1
1
1
1
1
1
1
1
1
1
1
1
1
1
1
1
1
1
1
1
1
1
1
1
1
1
1
1
1
1
1
1
1
1
1
1
1
1
1
1
1
1
1
1
1
1
1
1
1
1
1
1
1
1
1
1
1
1
1
1
1
1
1
1
1
1
1
1
1
1
3.8776
9.76914
10.2916
10.3235
10.3756
10.4223
10.4655
10.502
10.5311
10.5564
10.583
10.6096
10.6337
10.6557
10.6764
10.6986
10.7229
10.7502
10.7811
10.8137
10.8451
10.8737
10.8999
10.9244
10.9473
10.9693
10.9906
11.0102
11.028
11.0454
11.0645
11.0868
11.112
11.1382
11.1632
11.1861
11.2061
11.2242
11.2423
11.2625
11.2858
11.307
11.3268
11.3445
11.36
11.3756
11.3911
11.4077
11.4243
11.4399
11.457
11.4769
11.5
11.5237
11.5444
11.559
11.5672
11.5737
11.5831
11.5983
11.6181
11.6378
11.6529
11.6633
11.673
11.6857
11.702
11.7189
11.7319
11.739
11.7426
11.7472
11.7554
11.7669
11.7793
11.7908
11.8013
11.8121
11.8234
11.8345
11.8416
11.8434
11.8428
11.842
11.8435
11.8473
11.8532
11.8604
11.8667
11.871
11.8727
11.8717
11.8712
1
1
1
1
1
1
1
1
1
1
1
1
1
1
1
1
1
1
1
1
1
1
1
1
1
1
1
1
1
1
1
1
1
1
1
1
1
1
1
1
1
1
1
1
1
1
1
1
1
1
1
1
1
1
1
1
1
1
1
1
1
1
1
1
1
1
1
1
1
1
1
1
1
1
1
1
1
1
1
1
1
1
1
1
1
1
1
1
1
1
1
1
1
1
1
1
1
1
1
3.39221
9.56715
10.2952
10.3231
10.3762
10.4204
10.4602
10.4936
10.5211
10.5475
10.5753
10.6025
10.6264
10.6476
10.6674
10.6892
10.7135
10.7416
10.7737
10.8074
10.8391
10.8667
10.8915
10.9152
10.9383
10.9615
10.9846
11.0053
11.0218
11.0354
11.0507
11.0717
11.0989
11.1296
11.159
11.1834
11.2011
11.2139
11.227
11.2447
11.2704
11.2973
11.3216
11.3397
11.3517
11.3617
11.3722
11.388
11.4085
11.4301
11.451
11.4705
11.4897
11.5085
11.5262
11.5412
11.5525
11.562
11.5728
11.587
11.6044
11.6223
11.6374
11.649
11.6596
11.6718
11.6866
11.702
11.7146
11.7225
11.7274
11.7329
11.7415
11.7526
11.7643
11.7752
11.7855
11.7966
11.8084
11.8194
11.8257
11.8263
11.8244
11.8233
11.826
11.8319
11.8398
11.8469
11.8515
11.8542
11.8553
11.8553
11.8562
1
1
1
1
1
1
1
1
1
1
1
1
1
1
1
1
1
1
1
1
1
1
1
1
1
1
1
1
1
1
1
1
1
1
1
1
1
1
1
1
1
1
1
1
1
1
1
1
1
1
1
1
1
1
1
1
1
1
1
1
1
1
1
1
1
1
1
1
1
1
1
1
1
1
1
1
1
1
1
1
1
1
1
1
1
1
1
1
1
1
1
1
1
1
1
1
1
1
1
2.9019
9.32458
10.3079
10.3302
10.3804
10.4175
10.4531
10.4841
10.5112
10.5385
10.5674
10.5954
10.6198
10.6406
10.6595
10.6804
10.7042
10.7319
10.7645
10.7991
10.8314
10.8593
10.8838
10.9069
10.9297
10.953
10.9767
10.9982
11.0146
11.0265
11.0395
11.0585
11.085
11.1172
11.1501
11.1772
11.1952
11.2062
11.2166
11.2313
11.2557
11.2847
11.3119
11.3312
11.3419
11.3487
11.3555
11.3699
11.3924
11.4187
11.4433
11.4635
11.4799
11.4942
11.5082
11.5224
11.5361
11.5493
11.5623
11.576
11.5906
11.6057
11.6201
11.6332
11.6455
11.6581
11.6714
11.6845
11.6957
11.7042
11.711
11.7182
11.7274
11.7383
11.7492
11.7593
11.7693
11.7803
11.7919
11.8022
11.8078
11.808
11.8059
11.805
11.8087
11.8161
11.8252
11.8318
11.835
11.8363
11.8372
11.8381
11.84
1
1
1
1
1
1
1
1
1
1
1
1
1
1
1
1
1
1
1
1
1
1
1
1
1
1
1
1
1
1
1
1
1
1
1
1
1
1
1
1
1
1
1
1
1
1
1
1
1
1
1
1
1
1
1
1
1
1
1
1
1
1
1
1
1
1
1
1
1
1
1
1
1
1
1
1
1
1
1
1
1
1
1
1
1
1
1
1
1
1
1
1
1
1
1
1
1
1
1
2.43716
9.0218
10.3309
10.3419
10.384
10.4142
10.4461
10.4742
10.5019
10.5301
10.5595
10.5876
10.6125
10.6336
10.6524
10.6732
10.6956
10.7222
10.7545
10.7898
10.8233
10.8522
10.877
10.8991
10.9202
10.9416
10.9646
10.9876
11.0061
11.0196
11.0328
11.0496
11.0728
11.102
11.1347
11.1649
11.1866
11.1997
11.2109
11.2239
11.244
11.2704
11.2968
11.3172
11.3294
11.3365
11.3423
11.3555
11.3776
11.4053
11.4323
11.454
11.4697
11.4811
11.4916
11.5039
11.5187
11.5349
11.5506
11.5643
11.5765
11.5886
11.6018
11.616
11.6305
11.6439
11.6559
11.6664
11.6758
11.6846
11.6934
11.7029
11.7131
11.7237
11.7337
11.743
11.7523
11.7627
11.7736
11.7827
11.7879
11.7888
11.7875
11.7876
11.7918
11.7998
11.8086
11.8145
11.8169
11.8176
11.8186
11.8202
11.8225
1
1
1
1
1
1
1
1
1
1
1
1
1
1
1
1
1
1
1
1
1
1
1
1
1
1
1
1
1
1
1
1
1
1
1
1
1
1
1
1
1
1
1
1
1
1
1
1
1
1
1
1
1
1
1
1
1
1
1
1
1
1
1
1
1
1
1
1
1
1
1
1
1
1
1
1
1
1
1
1
1
1
1
1
1
1
1
1
1
1
1
1
1
1
1
1
1
1
1
2.01758
8.64779
10.356
10.3524
10.3841
10.4097
10.4398
10.4674
10.493
10.5199
10.5485
10.577
10.6032
10.6246
10.6444
10.6663
10.6883
10.7136
10.7446
10.7797
10.8143
10.845
10.8707
10.8919
10.9102
10.9281
10.9492
10.9735
10.996
11.0139
11.0295
11.045
11.0634
11.0866
11.115
11.1467
11.1741
11.1932
11.208
11.2206
11.2355
11.2557
11.2777
11.2981
11.3136
11.3245
11.3323
11.345
11.3648
11.3908
11.4181
11.4413
11.4577
11.4682
11.4767
11.4868
11.5013
11.5192
11.537
11.5511
11.5616
11.5712
11.583
11.598
11.6144
11.6288
11.6396
11.6477
11.6552
11.6642
11.6751
11.6868
11.6982
11.7085
11.7176
11.726
11.7347
11.7441
11.7535
11.7614
11.7666
11.7687
11.7693
11.7708
11.7752
11.7825
11.7899
11.7949
11.7972
11.7981
11.7995
11.8016
11.8039
1
1
1
1
1
1
1
1
1
1
1
1
1
1
1
1
1
1
1
1
1
1
1
1
1
1
1
1
1
1
1
1
1
1
1
1
1
1
1
1
1
1
1
1
1
1
1
1
1
1
1
1
1
1
1
1
1
1
1
1
1
1
1
1
1
1
1
1
1
1
1
1
1
1
1
1
1
1
1
1
1
1
1
1
1
1
1
1
1
1
1
1
1
1
1
1
1
1
1
1.66677
8.20758
10.384
10.3561
10.3791
10.4029
10.432
10.4599
10.486
10.5115
10.5371
10.5635
10.5894
10.6132
10.6355
10.6587
10.6814
10.7057
10.7349
10.7689
10.8042
10.837
10.8642
10.8853
10.9013
10.9157
10.9332
10.9564
10.9827
11.0068
11.0263
11.0422
11.0569
11.0745
11.0968
11.1258
11.1573
11.1839
11.2042
11.218
11.2288
11.2418
11.2576
11.2766
11.2954
11.3116
11.3237
11.3368
11.3538
11.3762
11.4016
11.4255
11.4435
11.4548
11.4625
11.4712
11.4848
11.5029
11.5215
11.5359
11.5455
11.5535
11.5642
11.5797
11.5972
11.6123
11.6222
11.6283
11.6344
11.6436
11.6563
11.6699
11.682
11.6919
11.7002
11.708
11.7161
11.7245
11.7322
11.7386
11.7439
11.7478
11.7509
11.7543
11.7588
11.764
11.7691
11.7733
11.7759
11.7776
11.7799
11.7821
11.7842
1
1
1
1
1
1
1
1
1
1
1
1
1
1
1
1
1
1
1
1
1
1
1
1
1
1
1
1
1
1
1
1
1
1
1
1
1
1
1
1
1
1
1
1
1
1
1
1
1
1
1
1
1
1
1
1
1
1
1
1
1
1
1
1
1
1
1
1
1
1
1
1
1
1
1
1
1
1
1
1
1
1
1
1
1
1
1
1
1
1
1
1
1
1
1
1
1
1
1
1.38234
7.69176
10.3754
10.3469
10.363
10.3909
10.4217
10.4515
10.4775
10.5012
10.5245
10.5492
10.5746
10.6
10.6256
10.6512
10.6741
10.6977
10.7251
10.7569
10.7917
10.8257
10.8553
10.8781
10.8939
10.9062
10.9198
10.94
10.9661
10.9945
11.0193
11.0379
11.0521
11.0665
11.084
11.1077
11.1387
11.1697
11.1956
11.2121
11.2212
11.2291
11.2393
11.256
11.2763
11.2973
11.3143
11.3288
11.3439
11.3625
11.3847
11.4076
11.4268
11.4397
11.4482
11.4567
11.4693
11.4865
11.5045
11.5186
11.5278
11.5353
11.5457
11.5612
11.579
11.5941
11.6034
11.6084
11.6139
11.6234
11.6373
11.6518
11.6641
11.6736
11.6813
11.6889
11.6967
11.7042
11.7101
11.715
11.7203
11.726
11.7318
11.7375
11.7417
11.7443
11.747
11.75
11.753
11.7559
11.7591
11.7616
11.7638
1
1
1
1
1
1
1
1
1
1
1
1
1
1
1
1
1
1
1
1
1
1
1
1
1
1
1
1
1
1
1
1
1
1
1
1
1
1
1
1
1
1
1
1
1
1
1
1
1
1
1
1
1
1
1
1
1
1
1
1
1
1
1
1
1
1
1
1
1
1
1
1
1
1
1
1
1
1
1
1
1
1
1
1
1
1
1
1
1
1
1
1
1
1
1
1
1
1
1
1.15006
7.16306
10.3496
10.3341
10.3442
10.3744
10.4087
10.4442
10.4752
10.4998
10.5199
10.5393
10.5612
10.5856
10.6131
10.6411
10.6667
10.6913
10.7169