/*--------------------------------*- C++ -*----------------------------------*\
  =========                 |
  \\      /  F ield         | OpenFOAM: The Open Source CFD Toolbox
   \\    /   O peration     | Website:  https://openfoam.org
    \\  /    A nd           | Version:  7
     \\/     M anipulation  |
\*---------------------------------------------------------------------------*/
FoamFile
{
    version     2.0;
    format      ascii;
    class       volScalarField;
    location    "3.2";
    object      rho;
}
// * * * * * * * * * * * * * * * * * * * * * * * * * * * * * * * * * * * * * //

dimensions      [1 -3 0 0 0 0 0];

internalField   nonuniform List<scalar> 
258048
(
1.40001
1.40001
1.40001
1.40001
1.40001
1.40001
1.40001
1.40001
1.40001
1.40001
1.40001
1.40001
1.40001
1.40001
1.40001
1.40001
1.40001
1.40001
1.40001
1.40001
1.40001
1.40001
1.40001
1.40001
1.40001
1.40001
1.40001
1.40001
1.40001
1.40001
1.40001
1.40001
1.40001
1.40001
1.40001
1.40001
1.40001
1.40001
1.40001
1.40001
1.40001
1.40001
1.40001
1.40001
1.40001
1.40001
1.40001
1.40001
1.40001
1.40001
1.40001
1.40001
1.40001
1.40001
1.40001
1.40001
1.40001
1.40001
1.40001
1.40001
1.40001
1.40001
1.40001
1.40001
1.40001
1.40001
1.40001
1.40001
1.40001
1.40001
1.40001
1.40001
1.40001
1.40001
1.40001
1.40001
1.40001
1.40001
1.40001
1.40001
1.40001
1.40001
1.40001
1.40001
1.40001
1.40001
1.40001
1.40001
1.40001
1.40001
1.40001
1.40001
1.40001
1.40001
1.40001
1.40001
1.40001
1.40001
2.36288
5.04648
5.41838
5.42039
5.43361
5.44153
5.44413
5.4514
5.47127
5.49271
5.51283
5.52871
5.53597
5.5361
5.53548
5.54111
5.55354
5.56857
5.58333
5.59566
5.60543
5.61426
5.62458
5.63728
5.65075
5.66267
5.67129
5.67622
5.67877
5.68187
5.68844
5.69982
5.71406
5.72758
5.73783
5.7442
5.74838
5.75361
5.76225
5.774
5.78598
5.79497
5.7998
5.80219
5.8054
5.81179
5.8215
5.83262
5.84243
5.84938
5.85404
5.85838
5.86402
5.87132
5.87973
5.88813
5.89546
5.90138
5.90631
5.91078
5.9152
5.91986
5.92531
5.93197
5.93974
5.9478
5.95474
5.95919
5.96065
5.96032
5.96036
5.96255
5.96717
5.97262
5.97721
5.98056
5.98352
5.98713
5.99136
5.99489
5.99635
5.99614
5.99594
5.99707
5.99994
6.00324
6.00521
6.00566
6.00498
6.00285
5.99919
5.99486
5.99039
5.98632
1.40001
1.40001
1.40001
1.40001
1.40001
1.40001
1.40001
1.40001
1.40001
1.40001
1.40001
1.40001
1.40001
1.40001
1.40001
1.40001
1.40001
1.40001
1.40001
1.40001
1.40001
1.40001
1.40001
1.40001
1.40001
1.40001
1.40001
1.40001
1.40001
1.40001
1.40001
1.40001
1.40001
1.40001
1.40001
1.40001
1.40001
1.40001
1.40001
1.40001
1.40001
1.40001
1.40001
1.40001
1.40001
1.40001
1.40001
1.40001
1.40001
1.40001
1.40001
1.40001
1.40001
1.40001
1.40001
1.40001
1.40001
1.40001
1.40001
1.40001
1.40001
1.40001
1.40001
1.40001
1.40001
1.40001
1.40001
1.40001
1.40001
1.40001
1.40001
1.40001
1.40001
1.40001
1.40001
1.40001
1.40001
1.40001
1.40001
1.40001
1.40001
1.40001
1.40001
1.40001
1.40001
1.40001
1.40001
1.40001
1.40001
1.40001
1.40001
1.40001
1.40001
1.40001
1.40001
1.40001
1.40001
1.40001
2.35335
5.03768
5.41832
5.4207
5.43404
5.4419
5.44561
5.45338
5.47167
5.49307
5.51303
5.52766
5.53397
5.53451
5.53524
5.54169
5.55398
5.5689
5.58324
5.59513
5.60471
5.61366
5.62442
5.63732
5.65086
5.66265
5.67093
5.67546
5.67788
5.68128
5.68837
5.70018
5.71454
5.72783
5.73768
5.74376
5.74791
5.7533
5.76212
5.77386
5.7857
5.79455
5.79945
5.80209
5.80558
5.81205
5.82153
5.83218
5.8416
5.84851
5.85356
5.85854
5.86476
5.87224
5.8803
5.888
5.89468
5.90036
5.90556
5.91061
5.91545
5.92019
5.9253
5.93135
5.93868
5.94684
5.95434
5.9595
5.96152
5.96095
5.96032
5.96158
5.96553
5.97129
5.97683
5.9811
5.98441
5.98762
5.99109
5.99418
5.99583
5.99605
5.99596
5.99679
5.9992
6.00244
6.00501
6.00602
6.00537
6.00293
5.99879
5.99417
5.99014
5.98684
1.40001
1.40001
1.40001
1.40001
1.40001
1.40001
1.40001
1.40001
1.40001
1.40001
1.40001
1.40001
1.40001
1.40001
1.40001
1.40001
1.40001
1.40001
1.40001
1.40001
1.40001
1.40001
1.40001
1.40001
1.40001
1.40001
1.40001
1.40001
1.40001
1.40001
1.40001
1.40001
1.40001
1.40001
1.40001
1.40001
1.40001
1.40001
1.40001
1.40001
1.40001
1.40001
1.40001
1.40001
1.40001
1.40001
1.40001
1.40001
1.40001
1.40001
1.40001
1.40001
1.40001
1.40001
1.40001
1.40001
1.40001
1.40001
1.40001
1.40001
1.40001
1.40001
1.40001
1.40001
1.40001
1.40001
1.40001
1.40001
1.40001
1.40001
1.40001
1.40001
1.40001
1.40001
1.40001
1.40001
1.40001
1.40001
1.40001
1.40001
1.40001
1.40001
1.40001
1.40001
1.40001
1.40001
1.40001
1.40001
1.40001
1.40001
1.40001
1.40001
1.40001
1.40001
1.40001
1.40001
1.40001
1.40001
2.33664
5.03095
5.41758
5.42118
5.43409
5.44119
5.44613
5.45591
5.47288
5.49355
5.51265
5.52589
5.53147
5.53286
5.53475
5.54229
5.55479
5.56934
5.58294
5.59423
5.60361
5.61281
5.62415
5.63754
5.65123
5.66279
5.67047
5.67436
5.67654
5.68029
5.68811
5.70057
5.71517
5.72823
5.73755
5.74319
5.7472
5.75276
5.76182
5.77361
5.78529
5.79394
5.79885
5.8018
5.80569
5.81237
5.82164
5.83171
5.84053
5.84722
5.85262
5.85835
5.86542
5.87334
5.88118
5.88812
5.89388
5.89898
5.90425
5.90991
5.91546
5.92055
5.92548
5.93093
5.93748
5.94533
5.95333
5.9595
5.9623
5.96187
5.96079
5.96089
5.96361
5.96912
5.97563
5.9812
5.9854
5.98851
5.9911
5.99326
5.99475
5.99542
5.99569
5.99642
5.99827
6.0012
6.00429
6.00597
6.00558
6.00296
5.99836
5.99325
5.9894
5.98693
1.40001
1.40001
1.40001
1.40001
1.40001
1.40001
1.40001
1.40001
1.40001
1.40001
1.40001
1.40001
1.40001
1.40001
1.40001
1.40001
1.40001
1.40001
1.40001
1.40001
1.40001
1.40001
1.40001
1.40001
1.40001
1.40001
1.40001
1.40001
1.40001
1.40001
1.40001
1.40001
1.40001
1.40001
1.40001
1.40001
1.40001
1.40001
1.40001
1.40001
1.40001
1.40001
1.40001
1.40001
1.40001
1.40001
1.40001
1.40001
1.40001
1.40001
1.40001
1.40001
1.40001
1.40001
1.40001
1.40001
1.40001
1.40001
1.40001
1.40001
1.40001
1.40001
1.40001
1.40001
1.40001
1.40001
1.40001
1.40001
1.40001
1.40001
1.40001
1.40001
1.40001
1.40001
1.40001
1.40001
1.40001
1.40001
1.40001
1.40001
1.40001
1.40001
1.40001
1.40001
1.40001
1.40001
1.40001
1.40001
1.40001
1.40001
1.40001
1.40001
1.40001
1.40001
1.40001
1.40001
1.40001
1.40001
2.30938
5.02193
5.41943
5.4222
5.43382
5.44047
5.44674
5.45753
5.47384
5.49363
5.51139
5.52301
5.52834
5.53126
5.53531
5.54414
5.55643
5.56988
5.58212
5.5926
5.6019
5.61179
5.62407
5.63799
5.65157
5.66256
5.66941
5.67263
5.67482
5.67926
5.68803
5.70118
5.71594
5.72862
5.73731
5.74247
5.74633
5.75205
5.76132
5.77312
5.78463
5.79309
5.79806
5.80139
5.80576
5.81265
5.8217
5.83116
5.83936
5.84577
5.85152
5.85809
5.866
5.87441
5.88208
5.88831
5.89316
5.89755
5.9026
5.90862
5.91491
5.92053
5.92551
5.93061
5.93663
5.94402
5.95209
5.95898
5.96247
5.96229
5.96075
5.95993
5.96172
5.96683
5.97415
5.98114
5.9862
5.9893
5.99114
5.99247
5.99361
5.99443
5.99497
5.99564
5.99717
6.00004
6.00365
6.00598
6.0057
6.0027
5.99763
5.9923
5.98874
5.98719
1.40001
1.40001
1.40001
1.40001
1.40001
1.40001
1.40001
1.40001
1.40001
1.40001
1.40001
1.40001
1.40001
1.40001
1.40001
1.40001
1.40001
1.40001
1.40001
1.40001
1.40001
1.40001
1.40001
1.40001
1.40001
1.40001
1.40001
1.40001
1.40001
1.40001
1.40001
1.40001
1.40001
1.40001
1.40001
1.40001
1.40001
1.40001
1.40001
1.40001
1.40001
1.40001
1.40001
1.40001
1.40001
1.40001
1.40001
1.40001
1.40001
1.40001
1.40001
1.40001
1.40001
1.40001
1.40001
1.40001
1.40001
1.40001
1.40001
1.40001
1.40001
1.40001
1.40001
1.40001
1.40001
1.40001
1.40001
1.40001
1.40001
1.40001
1.40001
1.40001
1.40001
1.40001
1.40001
1.40001
1.40001
1.40001
1.40001
1.40001
1.40001
1.40001
1.40001
1.40001
1.40001
1.40001
1.40001
1.40001
1.40001
1.40001
1.40001
1.40001
1.40001
1.40001
1.40001
1.40001
1.40001
1.40001
2.27538
5.01083
5.42402
5.42446
5.43426
5.43966
5.44665
5.45825
5.47447
5.49301
5.50876
5.5189
5.525
5.5303
5.53689
5.54677
5.55863
5.57061
5.5812
5.59078
5.60017
5.61094
5.62412
5.63851
5.65186
5.66204
5.66796
5.67062
5.67306
5.67835
5.6881
5.70184
5.71664
5.72884
5.73692
5.74165
5.74541
5.75128
5.76071
5.77246
5.78379
5.79207
5.7971
5.80074
5.80554
5.81265
5.82155
5.83054
5.83826
5.84443
5.85038
5.85755
5.86616
5.87499
5.88266
5.88844
5.89262
5.89633
5.9009
5.90686
5.91354
5.91984
5.92528
5.93051
5.93638
5.94333
5.95092
5.95772
5.96151
5.96171
5.96015
5.95905
5.9604
5.96505
5.97253
5.98044
5.98641
5.98975
5.99126
5.99197
5.99253
5.99308
5.99361
5.99432
5.99593
5.99906
6.00305
6.00568
6.00529
6.00187
5.99648
5.99118
5.98805
5.98725
1.40001
1.40001
1.40001
1.40001
1.40001
1.40001
1.40001
1.40001
1.40001
1.40001
1.40001
1.40001
1.40001
1.40001
1.40001
1.40001
1.40001
1.40001
1.40001
1.40001
1.40001
1.40001
1.40001
1.40001
1.40001
1.40001
1.40001
1.40001
1.40001
1.40001
1.40001
1.40001
1.40001
1.40001
1.40001
1.40001
1.40001
1.40001
1.40001
1.40001
1.40001
1.40001
1.40001
1.40001
1.40001
1.40001
1.40001
1.40001
1.40001
1.40001
1.40001
1.40001
1.40001
1.40001
1.40001
1.40001
1.40001
1.40001
1.40001
1.40001
1.40001
1.40001
1.40001
1.40001
1.40001
1.40001
1.40001
1.40001
1.40001
1.40001
1.40001
1.40001
1.40001
1.40001
1.40001
1.40001
1.40001
1.40001
1.40001
1.40001
1.40001
1.40001
1.40001
1.40001
1.40001
1.40001
1.40001
1.40001
1.40001
1.40001
1.40001
1.40001
1.40001
1.40001
1.40001
1.40001
1.40001
1.40001
2.23538
4.99605
5.4234
5.42358
5.43369
5.4396
5.44752
5.45946
5.47523
5.4922
5.50575
5.51499
5.52291
5.53078
5.53945
5.54958
5.56039
5.57056
5.57957
5.58874
5.59873
5.61043
5.62434
5.63883
5.65163
5.66083
5.66597
5.66842
5.67149
5.67784
5.68849
5.70259
5.71713
5.72871
5.73619
5.74067
5.7445
5.7506
5.76021
5.77186
5.78296
5.79103
5.79607
5.79993
5.80495
5.81221
5.82101
5.82976
5.83728
5.84343
5.8496
5.85704
5.86596
5.87501
5.88268
5.88825
5.89205
5.89532
5.89939
5.90493
5.91156
5.91832
5.92456
5.93042
5.93655
5.94331
5.95017
5.95603
5.95932
5.95987
5.95886
5.95818
5.95969
5.9641
5.97114
5.97901
5.98562
5.98967
5.99137
5.99176
5.99164
5.99147
5.99161
5.99249
5.99469
5.99844
6.00266
6.0051
6.00436
6.00054
5.99504
5.99004
5.98748
5.9871
1.40001
1.40001
1.40001
1.40001
1.40001
1.40001
1.40001
1.40001
1.40001
1.40001
1.40001
1.40001
1.40001
1.40001
1.40001
1.40001
1.40001
1.40001
1.40001
1.40001
1.40001
1.40001
1.40001
1.40001
1.40001
1.40001
1.40001
1.40001
1.40001
1.40001
1.40001
1.40001
1.40001
1.40001
1.40001
1.40001
1.40001
1.40001
1.40001
1.40001
1.40001
1.40001
1.40001
1.40001
1.40001
1.40001
1.40001
1.40001
1.40001
1.40001
1.40001
1.40001
1.40001
1.40001
1.40001
1.40001
1.40001
1.40001
1.40001
1.40001
1.40001
1.40001
1.40001
1.40001
1.40001
1.40001
1.40001
1.40001
1.40001
1.40001
1.40001
1.40001
1.40001
1.40001
1.40001
1.40001
1.40001
1.40001
1.40001
1.40001
1.40001
1.40001
1.40001
1.40001
1.40001
1.40001
1.40001
1.40001
1.40001
1.40001
1.40001
1.40001
1.40001
1.40001
1.40001
1.40001
1.40001
1.40001
2.19155
4.9738
5.41565
5.42022
5.4331
5.44135
5.45067
5.46208
5.47634
5.49089
5.50216
5.51169
5.52206
5.5323
5.54211
5.55174
5.56131
5.56994
5.57799
5.58738
5.59822
5.6106
5.62465
5.63875
5.65066
5.65889
5.66351
5.66622
5.67032
5.67785
5.68928
5.70344
5.71736
5.72809
5.73497
5.73936
5.7435
5.75009
5.76
5.77151
5.78221
5.78992
5.79486
5.79884
5.80401
5.81127
5.81996
5.8286
5.83618
5.84257
5.84912
5.85685
5.86579
5.87465
5.88208
5.88743
5.89109
5.89423
5.89809
5.9033
5.90961
5.91637
5.92319
5.9299
5.9367
5.94353
5.94972
5.95423
5.95654
5.95703
5.95682
5.95724
5.95939
5.96383
5.97015
5.9773
5.98394
5.98886
5.99128
5.9917
5.99092
5.9898
5.98931
5.99036
5.99348
5.99803
6.00225
6.0042
6.0029
5.99874
5.99339
5.98888
5.98687
5.98661
1.40001
1.40001
1.40001
1.40001
1.40001
1.40001
1.40001
1.40001
1.40001
1.40001
1.40001
1.40001
1.40001
1.40001
1.40001
1.40001
1.40001
1.40001
1.40001
1.40001
1.40001
1.40001
1.40001
1.40001
1.40001
1.40001
1.40001
1.40001
1.40001
1.40001
1.40001
1.40001
1.40001
1.40001
1.40001
1.40001
1.40001
1.40001
1.40001
1.40001
1.40001
1.40001
1.40001
1.40001
1.40001
1.40001
1.40001
1.40001
1.40001
1.40001
1.40001
1.40001
1.40001
1.40001
1.40001
1.40001
1.40001
1.40001
1.40001
1.40001
1.40001
1.40001
1.40001
1.40001
1.40001
1.40001
1.40001
1.40001
1.40001
1.40001
1.40001
1.40001
1.40001
1.40001
1.40001
1.40001
1.40001
1.40001
1.40001
1.40001
1.40001
1.40001
1.40001
1.40001
1.40001
1.40001
1.40001
1.40001
1.40001
1.40001
1.40001
1.40001
1.40001
1.40001
1.40001
1.40001
1.40001
1.40001
2.14162
4.94348
5.40426
5.418
5.4339
5.44469
5.45498
5.4652
5.47714
5.48896
5.49888
5.50979
5.52235
5.53387
5.54378
5.55261
5.56111
5.5689
5.57688
5.58686
5.59842
5.61107
5.62472
5.63805
5.6489
5.6563
5.66082
5.66427
5.66964
5.67833
5.69027
5.70409
5.71713
5.72679
5.73307
5.73758
5.74234
5.74976
5.76015
5.7715
5.78163
5.78878
5.79347
5.79753
5.80283
5.81009
5.8186
5.82706
5.83475
5.84157
5.84875
5.85696
5.86595
5.87436
5.88108
5.88585
5.88935
5.89265
5.89677
5.90207
5.90814
5.91453
5.92129
5.92855
5.93614
5.94343
5.94928
5.95273
5.95383
5.95378
5.95415
5.95587
5.95917
5.96385
5.96948
5.97561
5.98186
5.98735
5.99067
5.99141
5.99016
5.98814
5.98703
5.98824
5.99224
5.99746
6.00146
6.00277
6.00096
5.99673
5.99178
5.98779
5.98611
5.98556
1.40001
1.40001
1.40001
1.40001
1.40001
1.40001
1.40001
1.40001
1.40001
1.40001
1.40001
1.40001
1.40001
1.40001
1.40001
1.40001
1.40001
1.40001
1.40001
1.40001
1.40001
1.40001
1.40001
1.40001
1.40001
1.40001
1.40001
1.40001
1.40001
1.40001
1.40001
1.40001
1.40001
1.40001
1.40001
1.40001
1.40001
1.40001
1.40001
1.40001
1.40001
1.40001
1.40001
1.40001
1.40001
1.40001
1.40001
1.40001
1.40001
1.40001
1.40001
1.40001
1.40001
1.40001
1.40001
1.40001
1.40001
1.40001
1.40001
1.40001
1.40001
1.40001
1.40001
1.40001
1.40001
1.40001
1.40001
1.40001
1.40001
1.40001
1.40001
1.40001
1.40001
1.40001
1.40001
1.40001
1.40001
1.40001
1.40001
1.40001
1.40001
1.40001
1.40001
1.40001
1.40001
1.40001
1.40001
1.40001
1.40001
1.40001
1.40001
1.40001
1.40001
1.40001
1.40001
1.40001
1.40001
1.40001
2.08551
4.9071
5.39662
5.41619
5.4344
5.44746
5.45882
5.46819
5.47768
5.48724
5.49696
5.50918
5.52271
5.53437
5.54388
5.55209
5.56007
5.56789
5.5763
5.58677
5.59881
5.61151
5.62461
5.63693
5.64673
5.65351
5.65825
5.66268
5.66928
5.67892
5.69109
5.70435
5.71634
5.72492
5.73067
5.73548
5.74117
5.74967
5.76064
5.77171
5.78104
5.78739
5.79167
5.79586
5.80146
5.80885
5.81713
5.82521
5.8328
5.84008
5.84818
5.85718
5.86646
5.87444
5.88019
5.88398
5.88702
5.89056
5.89533
5.90116
5.90726
5.91314
5.91926
5.92635
5.93446
5.94245
5.9485
5.9514
5.95162
5.95095
5.95131
5.95388
5.95838
5.96363
5.96891
5.97417
5.97975
5.98532
5.9893
5.99054
5.98913
5.9866
5.98508
5.98637
5.9909
5.99645
6.00005
6.00076
5.99876
5.99478
5.99036
5.98677
5.98506
5.98389
1.40001
1.40001
1.40001
1.40001
1.40001
1.40001
1.40001
1.40001
1.40001
1.40001
1.40001
1.40001
1.40001
1.40001
1.40001
1.40001
1.40001
1.40001
1.40001
1.40001
1.40001
1.40001
1.40001
1.40001
1.40001
1.40001
1.40001
1.40001
1.40001
1.40001
1.40001
1.40001
1.40001
1.40001
1.40001
1.40001
1.40001
1.40001
1.40001
1.40001
1.40001
1.40001
1.40001
1.40001
1.40001
1.40001
1.40001
1.40001
1.40001
1.40001
1.40001
1.40001
1.40001
1.40001
1.40001
1.40001
1.40001
1.40001
1.40001
1.40001
1.40001
1.40001
1.40001
1.40001
1.40001
1.40001
1.40001
1.40001
1.40001
1.40001
1.40001
1.40001
1.40001
1.40001
1.40001
1.40001
1.40001
1.40001
1.40001
1.40001
1.40001
1.40001
1.40001
1.40001
1.40001
1.40001
1.40001
1.40001
1.40001
1.40001
1.40001
1.40001
1.40001
1.40001
1.40001
1.40001
1.40001
1.40001
2.02467
4.86276
5.39737
5.41377
5.43309
5.4481
5.46045
5.46944
5.47747
5.48611
5.49629
5.50899
5.5223
5.53354
5.5428
5.55091
5.559
5.56737
5.57626
5.58696
5.59901
5.61144
5.62383
5.63523
5.64433
5.65093
5.65623
5.66162
5.66916
5.67937
5.69146
5.70409
5.71496
5.7226
5.72797
5.73329
5.74014
5.74986
5.7613
5.77196
5.78032
5.78574
5.78959
5.79405
5.8002
5.80791
5.81596
5.82344
5.83053
5.83797
5.84696
5.85699
5.8668
5.87447
5.87925
5.88193
5.88426
5.88787
5.89343
5.90017
5.90666
5.9122
5.91754
5.92396
5.93202
5.94054
5.94719
5.9502
5.95002
5.94882
5.94877
5.95145
5.95675
5.96277
5.96818
5.97299
5.97788
5.98303
5.98725
5.98894
5.98775
5.98522
5.98357
5.98483
5.98933
5.99465
5.99779
5.99818
5.99641
5.99299
5.98907
5.98569
5.98359
5.98158
1.40001
1.40001
1.40001
1.40001
1.40001
1.40001
1.40001
1.40001
1.40001
1.40001
1.40001
1.40001
1.40001
1.40001
1.40001
1.40001
1.40001
1.40001
1.40001
1.40001
1.40001
1.40001
1.40001
1.40001
1.40001
1.40001
1.40001
1.40001
1.40001
1.40001
1.40001
1.40001
1.40001
1.40001
1.40001
1.40001
1.40001
1.40001
1.40001
1.40001
1.40001
1.40001
1.40001
1.40001
1.40001
1.40001
1.40001
1.40001
1.40001
1.40001
1.40001
1.40001
1.40001
1.40001
1.40001
1.40001
1.40001
1.40001
1.40001
1.40001
1.40001
1.40001
1.40001
1.40001
1.40001
1.40001
1.40001
1.40001
1.40001
1.40001
1.40001
1.40001
1.40001
1.40001
1.40001
1.40001
1.40001
1.40001
1.40001
1.40001
1.40001
1.40001
1.40001
1.40001
1.40001
1.40001
1.40001
1.40001
1.40001
1.40001
1.40001
1.40001
1.40001
1.40001
1.40001
1.40001
1.40001
1.40001
1.96089
4.81113
5.40068
5.41177
5.43095
5.44681
5.46001
5.46918
5.47689
5.48553
5.49611
5.50848
5.52077
5.53156
5.54099
5.54975
5.55856
5.56756
5.57676
5.58719
5.59871
5.61062
5.62238
5.63326
5.64223
5.64923
5.65527
5.66134
5.66923
5.67947
5.69117
5.70297
5.71288
5.71992
5.72528
5.73131
5.73935
5.75009
5.76167
5.77165
5.77892
5.78341
5.78694
5.79187
5.7988
5.80707
5.81506
5.82206
5.82856
5.83582
5.84527
5.85624
5.86683
5.87464
5.87884
5.88062
5.88214
5.88535
5.89119
5.89861
5.90557
5.91101
5.91571
5.92131
5.92888
5.9376
5.94496
5.94859
5.94861
5.94723
5.94676
5.94913
5.95462
5.96121
5.96703
5.97178
5.97617
5.98069
5.98465
5.9866
5.98602
5.98394
5.98246
5.98353
5.98741
5.99201
5.99482
5.99533
5.99414
5.99147
5.98794
5.98447
5.98169
5.97887
1.40001
1.40001
1.40001
1.40001
1.40001
1.40001
1.40001
1.40001
1.40001
1.40001
1.40001
1.40001
1.40001
1.40001
1.40001
1.40001
1.40001
1.40001
1.40001
1.40001
1.40001
1.40001
1.40001
1.40001
1.40001
1.40001
1.40001
1.40001
1.40001
1.40001
1.40001
1.40001
1.40001
1.40001
1.40001
1.40001
1.40001
1.40001
1.40001
1.40001
1.40001
1.40001
1.40001
1.40001
1.40001
1.40001
1.40001
1.40001
1.40001
1.40001
1.40001
1.40001
1.40001
1.40001
1.40001
1.40001
1.40001
1.40001
1.40001
1.40001
1.40001
1.40001
1.40001
1.40001
1.40001
1.40001
1.40001
1.40001
1.40001
1.40001
1.40001
1.40001
1.40001
1.40001
1.40001
1.40001
1.40001
1.40001
1.40001
1.40001
1.40001
1.40001
1.40001
1.40001
1.40001
1.40001
1.40001
1.40001
1.40001
1.40001
1.40001
1.40001
1.40001
1.40001
1.40001
1.40001
1.40001
1.40001
1.89431
4.75313
5.40294
5.4114
5.42901
5.44484
5.45868
5.4688
5.47695
5.48553
5.49573
5.50704
5.51832
5.52905
5.53915
5.54896
5.55868
5.56825
5.57747
5.58721
5.59778
5.60891
5.62024
5.63106
5.64044
5.64821
5.65503
5.6615
5.6692
5.67897
5.69008
5.70113
5.71043
5.71733
5.72317
5.73011
5.73924
5.75059
5.76202
5.77116
5.77733
5.781
5.78436
5.78983
5.79742
5.80613
5.81405
5.82071
5.82674
5.83359
5.84285
5.85385
5.86482
5.87299
5.87726
5.87889
5.88019
5.88317
5.8889
5.89644
5.90367
5.90927
5.91385
5.91907
5.92616
5.93463
5.94219
5.94641
5.94701
5.94582
5.94521
5.94717
5.95228
5.95897
5.96517
5.97014
5.97434
5.97832
5.98184
5.98395
5.9841
5.98274
5.9816
5.98228
5.98508
5.98871
5.99139
5.99237
5.99201
5.9901
5.98671
5.98283
5.97927
5.9759
1.40001
1.40001
1.40001
1.40001
1.40001
1.40001
1.40001
1.40001
1.40001
1.40001
1.40001
1.40001
1.40001
1.40001
1.40001
1.40001
1.40001
1.40001
1.40001
1.40001
1.40001
1.40001
1.40001
1.40001
1.40001
1.40001
1.40001
1.40001
1.40001
1.40001
1.40001
1.40001
1.40001
1.40001
1.40001
1.40001
1.40001
1.40001
1.40001
1.40001
1.40001
1.40001
1.40001
1.40001
1.40001
1.40001
1.40001
1.40001
1.40001
1.40001
1.40001
1.40001
1.40001
1.40001
1.40001
1.40001
1.40001
1.40001
1.40001
1.40001
1.40001
1.40001
1.40001
1.40001
1.40001
1.40001
1.40001
1.40001
1.40001
1.40001
1.40001
1.40001
1.40001
1.40001
1.40001
1.40001
1.40001
1.40001
1.40001
1.40001
1.40001
1.40001
1.40001
1.40001
1.40001
1.40001
1.40001
1.40001
1.40001
1.40001
1.40001
1.40001
1.40001
1.40001
1.40001
1.40001
1.40001
1.40001
1.82348
4.68729
5.40378
5.41019
5.4257
5.44212
5.457
5.46844
5.47767
5.48635
5.49565
5.50546
5.51585
5.52672
5.53756
5.54833
5.55889
5.56895
5.57812
5.5871
5.59657
5.60687
5.61795
5.62907
5.63922
5.64793
5.6554
5.66202
5.66912
5.6778
5.6877
5.69773
5.70658
5.7139
5.72089
5.72909
5.73906
5.75033
5.76097
5.76904
5.77452
5.77806
5.78193
5.78816
5.79617
5.80505
5.8129
5.81951
5.82555
5.83243
5.84143
5.85186
5.86233
5.8704
5.87505
5.87724
5.87899
5.88205
5.88728
5.89408
5.90089
5.90663
5.9116
5.91703
5.92388
5.93174
5.93887
5.94338
5.94475
5.94429
5.94405
5.94584
5.95034
5.95651
5.96265
5.96782
5.97208
5.97582
5.97903
5.98123
5.98191
5.9813
5.98044
5.98058
5.98228
5.985
5.9877
5.98944
5.98993
5.98852
5.98515
5.98069
5.97645
5.97297
1.40001
1.40001
1.40001
1.40001
1.40001
1.40001
1.40001
1.40001
1.40001
1.40001
1.40001
1.40001
1.40001
1.40001
1.40001
1.40001
1.40001
1.40001
1.40001
1.40001
1.40001
1.40001
1.40001
1.40001
1.40001
1.40001
1.40001
1.40001
1.40001
1.40001
1.40001
1.40001
1.40001
1.40001
1.40001
1.40001
1.40001
1.40001
1.40001
1.40001
1.40001
1.40001
1.40001
1.40001
1.40001
1.40001
1.40001
1.40001
1.40001
1.40001
1.40001
1.40001
1.40001
1.40001
1.40001
1.40001
1.40001
1.40001
1.40001
1.40001
1.40001
1.40001
1.40001
1.40001
1.40001
1.40001
1.40001
1.40001
1.40001
1.40001
1.40001
1.40001
1.40001
1.40001
1.40001
1.40001
1.40001
1.40001
1.40001
1.40001
1.40001
1.40001
1.40001
1.40001
1.40001
1.40001
1.40001
1.40001
1.40001
1.40001
1.40001
1.40001
1.40001
1.40001
1.40001
1.40001
1.40001
1.40001
1.75166
4.60994
5.40247
5.4091
5.42343
5.43985
5.45515
5.46838
5.47905
5.4879
5.49613
5.50441
5.51396
5.52488
5.53607
5.54722
5.5584
5.56898
5.57836
5.58682
5.59536
5.60489
5.61569
5.62715
5.63811
5.64771
5.65584
5.6626
5.6691
5.67661
5.68518
5.69415
5.70269
5.71077
5.7192
5.72875
5.73936
5.75023
5.75962
5.76647
5.77155
5.77554
5.78038
5.78731
5.79518
5.80361
5.81115
5.818
5.82462
5.83198
5.84069
5.84993
5.85891
5.86621
5.87133
5.87478
5.87772
5.88133
5.88603
5.89153
5.89731
5.90304
5.90885
5.9152
5.92235
5.92961
5.93574
5.93976
5.94161
5.9422
5.94288
5.94486
5.9486
5.95373
5.95932
5.96459
5.96923
5.9732
5.97641
5.97863
5.97959
5.97942
5.97873
5.97841
5.9792
5.98134
5.98412
5.9866
5.9877
5.98651
5.98299
5.97806
5.97345
5.97028
1.40001
1.40001
1.40001
1.40001
1.40001
1.40001
1.40001
1.40001
1.40001
1.40001
1.40001
1.40001
1.40001
1.40001
1.40001
1.40001
1.40001
1.40001
1.40001
1.40001
1.40001
1.40001
1.40001
1.40001
1.40001
1.40001
1.40001
1.40001
1.40001
1.40001
1.40001
1.40001
1.40001
1.40001
1.40001
1.40001
1.40001
1.40001
1.40001
1.40001
1.40001
1.40001
1.40001
1.40001
1.40001
1.40001
1.40001
1.40001
1.40001
1.40001
1.40001
1.40001
1.40001
1.40001
1.40001
1.40001
1.40001
1.40001
1.40001
1.40001
1.40001
1.40001
1.40001
1.40001
1.40001
1.40001
1.40001
1.40001
1.40001
1.40001
1.40001
1.40001
1.40001
1.40001
1.40001
1.40001
1.40001
1.40001
1.40001
1.40001
1.40001
1.40001
1.40001
1.40001
1.40001
1.40001
1.40001
1.40001
1.40001
1.40001
1.40001
1.40001
1.40001
1.40001
1.40001
1.40001
1.40001
1.40001
1.68173
4.52036
5.4009
5.4101
5.42281
5.43883
5.4542
5.46836
5.4799
5.48901
5.49679
5.5044
5.5134
5.52389
5.53475
5.54592
5.55738
5.56834
5.57801
5.58639
5.59451
5.60346
5.61383
5.62537
5.63692
5.64733
5.6561
5.66308
5.66912
5.67545
5.68261
5.69047
5.69884
5.70795
5.71796
5.72868
5.73941
5.74924
5.75711
5.76302
5.76828
5.77339
5.77957
5.78704
5.79431
5.80167
5.80849
5.81561
5.82319
5.83146
5.84017
5.84828
5.85539
5.86126
5.86643
5.87139
5.87631
5.88116
5.88575
5.88995
5.8941
5.89897
5.90518
5.91263
5.92046
5.92737
5.93246
5.93572
5.93783
5.93961
5.94157
5.94397
5.947
5.95089
5.95558
5.96076
5.96595
5.97052
5.97398
5.97613
5.97706
5.977
5.97635
5.97579
5.9761
5.97793
5.98077
5.98371
5.98508
5.98384
5.98014
5.97505
5.97046
5.96788
1.40001
1.40001
1.40001
1.40001
1.40001
1.40001
1.40001
1.40001
1.40001
1.40001
1.40001
1.40001
1.40001
1.40001
1.40001
1.40001
1.40001
1.40001
1.40001
1.40001
1.40001
1.40001
1.40001
1.40001
1.40001
1.40001
1.40001
1.40001
1.40001
1.40001
1.40001
1.40001
1.40001
1.40001
1.40001
1.40001
1.40001
1.40001
1.40001
1.40001
1.40001
1.40001
1.40001
1.40001
1.40001
1.40001
1.40001
1.40001
1.40001
1.40001
1.40001
1.40001
1.40001
1.40001
1.40001
1.40001
1.40001
1.40001
1.40001
1.40001
1.40001
1.40001
1.40001
1.40001
1.40001
1.40001
1.40001
1.40001
1.40001
1.40001
1.40001
1.40001
1.40001
1.40001
1.40001
1.40001
1.40001
1.40001
1.40001
1.40001
1.40001
1.40001
1.40001
1.40001
1.40001
1.40001
1.40001
1.40001
1.40001
1.40001
1.40001
1.40001
1.40001
1.40001
1.40001
1.40001
1.40001
1.40001
1.61141
4.42079
5.40346
5.41311
5.42422
5.43874
5.45334
5.46754
5.47946
5.48911
5.4971
5.50477
5.51356
5.52345
5.53372
5.5444
5.55559
5.56666
5.57679
5.58567
5.5939
5.6025
5.61233
5.6235
5.63516
5.64613
5.65559
5.66298
5.6688
5.6742
5.68013
5.68701
5.69534
5.70545
5.71682
5.72836
5.73885
5.74737
5.75379
5.75899
5.76477
5.77141
5.77907
5.78701
5.79368
5.7998
5.80557
5.81261
5.82109
5.8306
5.83973
5.84713
5.85258
5.85675
5.86122
5.86706
5.87398
5.88051
5.88539
5.88859
5.89118
5.89489
5.90102
5.9093
5.91789
5.92475
5.92914
5.93174
5.9339
5.93663
5.93988
5.94291
5.94545
5.94819
5.95185
5.95673
5.96239
5.96766
5.97146
5.97347
5.9741
5.97388
5.97327
5.97279
5.97308
5.97485
5.97765
5.9806
5.98184
5.98043
5.97665
5.97174
5.96758
5.96568
1.40001
1.40001
1.40001
1.40001
1.40001
1.40001
1.40001
1.40001
1.40001
1.40001
1.40001
1.40001
1.40001
1.40001
1.40001
1.40001
1.40001
1.40001
1.40001
1.40001
1.40001
1.40001
1.40001
1.40001
1.40001
1.40001
1.40001
1.40001
1.40001
1.40001
1.40001
1.40001
1.40001
1.40001
1.40001
1.40001
1.40001
1.40001
1.40001
1.40001
1.40001
1.40001
1.40001
1.40001
1.40001
1.40001
1.40001
1.40001
1.40001
1.40001
1.40001
1.40001
1.40001
1.40001
1.40001
1.40001
1.40001
1.40001
1.40001
1.40001
1.40001
1.40001
1.40001
1.40001
1.40001
1.40001
1.40001
1.40001
1.40001
1.40001
1.40001
1.40001
1.40001
1.40001
1.40001
1.40001
1.40001
1.40001
1.40001
1.40001
1.40001
1.40001
1.40001
1.40001
1.40001
1.40001
1.40001
1.40001
1.40001
1.40001
1.40001
1.40001
1.40001
1.40001
1.40001
1.40001
1.40001
1.40001
1.54104
4.31434
5.40831
5.41448
5.42446
5.438
5.45207
5.46592
5.47765
5.48736
5.49572
5.50399
5.5131
5.5226
5.53231
5.54236
5.55306
5.5641
5.57472
5.58439
5.59317
5.60176
5.61111
5.6216
5.63283
5.64394
5.65393
5.66182
5.66769
5.67262
5.67773
5.68399
5.69243
5.70331
5.71552
5.72738
5.7374
5.74481
5.75023
5.75505
5.76133
5.76935
5.77829
5.78673
5.79309
5.79831
5.80303
5.8095
5.81811
5.82838
5.83802
5.84522
5.84973
5.85275
5.8565
5.86253
5.87069
5.87872
5.88435
5.88727
5.88894
5.89159
5.8971
5.90545
5.91448
5.9216
5.92588
5.92821
5.93028
5.93337
5.93736
5.94087
5.94316
5.94512
5.94801
5.95259
5.95857
5.96444
5.96858
5.97043
5.97067
5.97026
5.96982
5.96971
5.9703
5.97205
5.97458
5.97704
5.97788
5.97636
5.97273
5.9683
5.9648
5.96345
1.40001
1.40001
1.40001
1.40001
1.40001
1.40001
1.40001
1.40001
1.40001
1.40001
1.40001
1.40001
1.40001
1.40001
1.40001
1.40001
1.40001
1.40001
1.40001
1.40001
1.40001
1.40001
1.40001
1.40001
1.40001
1.40001
1.40001
1.40001
1.40001
1.40001
1.40001
1.40001
1.40001
1.40001
1.40001
1.40001
1.40001
1.40001
1.40001
1.40001
1.40001
1.40001
1.40001
1.40001
1.40001
1.40001
1.40001
1.40001
1.40001
1.40001
1.40001
1.40001
1.40001
1.40001
1.40001
1.40001
1.40001
1.40001
1.40001
1.40001
1.40001
1.40001
1.40001
1.40001
1.40001
1.40001
1.40001
1.40001
1.40001
1.40001
1.40001
1.40001
1.40001
1.40001
1.40001
1.40001
1.40001
1.40001
1.40001
1.40001
1.40001
1.40001
1.40001
1.40001
1.40001
1.40001
1.40001
1.40001
1.40001
1.40001
1.40001
1.40001
1.40001
1.40001
1.40001
1.40001
1.40001
1.40001
1.4648
4.1962
5.40965
5.41425
5.42313
5.4363
5.45038
5.46407
5.4756
5.48512
5.49359
5.50238
5.51182
5.5213
5.53071
5.54029
5.55045
5.56127
5.57211
5.58241
5.59181
5.60064
5.60973
5.61962
5.63026
5.64111
5.65118
5.65933
5.66538
5.67026
5.67519
5.68144
5.69021
5.70151
5.71392
5.72562
5.73509
5.74183
5.74691
5.75178
5.75823
5.76684
5.77638
5.78523
5.79178
5.79686
5.80115
5.80704
5.81501
5.82503
5.83475
5.84219
5.8468
5.84974
5.85329
5.85899
5.86707
5.87547
5.88175
5.88509
5.88671
5.88885
5.89354
5.9012
5.91001
5.91742
5.92214
5.92481
5.92708
5.93032
5.93449
5.93816
5.94039
5.942
5.94451
5.94889
5.95495
5.96102
5.96521
5.96684
5.96675
5.96625
5.96615
5.96668
5.96769
5.96924
5.9712
5.97288
5.97328
5.97183
5.96863
5.96489
5.96202
5.96093
1.40001
1.40001
1.40001
1.40001
1.40001
1.40001
1.40001
1.40001
1.40001
1.40001
1.40001
1.40001
1.40001
1.40001
1.40001
1.40001
1.40001
1.40001
1.40001
1.40001
1.40001
1.40001
1.40001
1.40001
1.40001
1.40001
1.40001
1.40001
1.40001
1.40001
1.40001
1.40001
1.40001
1.40001
1.40001
1.40001
1.40001
1.40001
1.40001
1.40001
1.40001
1.40001
1.40001
1.40001
1.40001
1.40001
1.40001
1.40001
1.40001
1.40001
1.40001
1.40001
1.40001
1.40001
1.40001
1.40001
1.40001
1.40001
1.40001
1.40001
1.40001
1.40001
1.40001
1.40001
1.40001
1.40001
1.40001
1.40001
1.40001
1.40001
1.40001
1.40001
1.40001
1.40001
1.40001
1.40001
1.40001
1.40001
1.40001
1.40001
1.40001
1.40001
1.40001
1.40001
1.40001
1.40001
1.40001
1.40001
1.40001
1.40001
1.40001
1.40001
1.40001
1.40001
1.40001
1.40001
1.40001
1.40001
1.40396
4.06642
5.38738
5.40554
5.41784
5.43264
5.44749
5.46124
5.47266
5.48203
5.49029
5.49895
5.50846
5.51826
5.52796
5.53748
5.54737
5.558
5.56892
5.57971
5.58979
5.59906
5.60818
5.61774
5.62791
5.63823
5.64785
5.65578
5.66188
5.66702
5.6724
5.67934
5.68861
5.69978
5.71167
5.72274
5.73175
5.7384
5.74388
5.74935
5.75588
5.76418
5.77331
5.78218
5.78937
5.79524
5.80001
5.80561
5.81236
5.82083
5.8296
5.83726
5.84291
5.84698
5.85118
5.85665
5.86382
5.87147
5.8778
5.88186
5.88421
5.88657
5.89075
5.89738
5.90534
5.91268
5.91804
5.9215
5.92422
5.92739
5.93116
5.93452
5.93673
5.93843
5.94102
5.94537
5.95125
5.95708
5.96107
5.96257
5.96245
5.96212
5.96253
5.96373
5.96503
5.96614
5.96728
5.96817
5.96827
5.96711
5.96456
5.96155
5.95912
5.95797
1.40001
1.40001
1.40001
1.40001
1.40001
1.40001
1.40001
1.40001
1.40001
1.40001
1.40001
1.40001
1.40001
1.40001
1.40001
1.40001
1.40001
1.40001
1.40001
1.40001
1.40001
1.40001
1.40001
1.40001
1.40001
1.40001
1.40001
1.40001
1.40001
1.40001
1.40001
1.40001
1.40001
1.40001
1.40001
1.40001
1.40001
1.40001
1.40001
1.40001
1.40001