/*--------------------------------*- C++ -*----------------------------------*\
  =========                 |
  \\      /  F ield         | OpenFOAM: The Open Source CFD Toolbox
   \\    /   O peration     | Website:  https://openfoam.org
    \\  /    A nd           | Version:  7
     \\/     M anipulation  |
\*---------------------------------------------------------------------------*/
FoamFile
{
    version     2.0;
    format      ascii;
    class       volScalarField;
    location    "3.2";
    object      T;
}
// * * * * * * * * * * * * * * * * * * * * * * * * * * * * * * * * * * * * * //

dimensions      [0 0 0 1 0 0 0];

internalField   nonuniform List<scalar> 
258048
(
1
1
1
1
1
1
1
1
1
1
1
1
1
1
1
1
1
1
1
1
1
1
1
1
1
1
1
1
1
1
1
1
1
1
1
1
1
1
1
1
1
1
1
1
1
1
1
1
1
1
1
1
1
1
1
1
1
1
1
1
1
1
1
1
1
1
1
1
1
1
1
1
1
1
1
1
1
1
1
1
1
1
1
1
1
1
1
1
1
1
1
1
1
1
1
1
1
1
1.66759
2.59453
2.68896
2.68937
2.69228
2.69467
2.69601
2.69789
2.70157
2.70514
2.70826
2.71048
2.7113
2.71118
2.71119
2.71293
2.71635
2.72021
2.72363
2.72598
2.72723
2.72794
2.72884
2.73044
2.73279
2.73553
2.73823
2.7404
2.74175
2.74264
2.74349
2.74465
2.74626
2.74814
2.75002
2.75168
2.75309
2.75456
2.75632
2.75831
2.76019
2.7616
2.76242
2.76294
2.76365
2.7649
2.76665
2.76859
2.77029
2.77152
2.77236
2.77314
2.77414
2.77546
2.77703
2.77869
2.78027
2.78167
2.78289
2.78395
2.78487
2.78567
2.78644
2.78728
2.78823
2.78926
2.79023
2.79102
2.79154
2.79185
2.79232
2.79319
2.79434
2.79551
2.79648
2.79725
2.79806
2.79914
2.80051
2.80189
2.80292
2.80357
2.80416
2.80484
2.8056
2.80639
2.80707
2.80769
2.80853
2.80976
2.81113
2.81217
2.8126
2.81233
1
1
1
1
1
1
1
1
1
1
1
1
1
1
1
1
1
1
1
1
1
1
1
1
1
1
1
1
1
1
1
1
1
1
1
1
1
1
1
1
1
1
1
1
1
1
1
1
1
1
1
1
1
1
1
1
1
1
1
1
1
1
1
1
1
1
1
1
1
1
1
1
1
1
1
1
1
1
1
1
1
1
1
1
1
1
1
1
1
1
1
1
1
1
1
1
1
1
1.66342
2.59341
2.68899
2.68926
2.69215
2.69468
2.69639
2.69843
2.70179
2.70529
2.70829
2.71019
2.71076
2.71069
2.71098
2.71298
2.71645
2.72032
2.72366
2.72589
2.72707
2.72778
2.72874
2.7304
2.73277
2.73552
2.73818
2.74027
2.74159
2.74252
2.74344
2.74468
2.74633
2.74818
2.74999
2.7516
2.753
2.7545
2.75628
2.75827
2.76013
2.76151
2.76235
2.76292
2.76369
2.76495
2.76665
2.7685
2.77013
2.77135
2.77227
2.77317
2.77429
2.77563
2.77714
2.77867
2.78013
2.78147
2.78275
2.78392
2.78491
2.78572
2.78643
2.78716
2.78803
2.78908
2.79016
2.79111
2.79173
2.79196
2.7923
2.793
2.79404
2.79527
2.79641
2.79735
2.79823
2.79924
2.80046
2.80174
2.80281
2.80356
2.80416
2.80478
2.80547
2.80624
2.80702
2.80775
2.8086
2.80975
2.81104
2.81207
2.81257
2.8124
1
1
1
1
1
1
1
1
1
1
1
1
1
1
1
1
1
1
1
1
1
1
1
1
1
1
1
1
1
1
1
1
1
1
1
1
1
1
1
1
1
1
1
1
1
1
1
1
1
1
1
1
1
1
1
1
1
1
1
1
1
1
1
1
1
1
1
1
1
1
1
1
1
1
1
1
1
1
1
1
1
1
1
1
1
1
1
1
1
1
1
1
1
1
1
1
1
1
1.65604
2.59318
2.68824
2.68857
2.6915
2.69438
2.69681
2.69941
2.70242
2.70558
2.70817
2.70959
2.70988
2.70987
2.71049
2.71292
2.71661
2.72052
2.72372
2.72577
2.72681
2.72747
2.72851
2.73028
2.73275
2.73553
2.73812
2.74009
2.74133
2.74228
2.74329
2.74465
2.74638
2.74822
2.74996
2.7515
2.75287
2.75438
2.7562
2.75818
2.76002
2.76137
2.76223
2.76286
2.7637
2.765
2.76666
2.76841
2.76992
2.7711
2.77209
2.77313
2.77441
2.77584
2.77731
2.77869
2.77997
2.78121
2.78249
2.78378
2.78491
2.78577
2.78645
2.78707
2.78781
2.78881
2.79
2.79117
2.79193
2.79217
2.79238
2.79283
2.79369
2.79487
2.79618
2.79737
2.79842
2.79941
2.80045
2.80155
2.80259
2.80344
2.80411
2.8047
2.8053
2.80601
2.80686
2.80773
2.80862
2.80971
2.81093
2.81193
2.81244
2.81238
1
1
1
1
1
1
1
1
1
1
1
1
1
1
1
1
1
1
1
1
1
1
1
1
1
1
1
1
1
1
1
1
1
1
1
1
1
1
1
1
1
1
1
1
1
1
1
1
1
1
1
1
1
1
1
1
1
1
1
1
1
1
1
1
1
1
1
1
1
1
1
1
1
1
1
1
1
1
1
1
1
1
1
1
1
1
1
1
1
1
1
1
1
1
1
1
1
1
1.6425
2.59091
2.68667
2.68714
2.69042
2.69403
2.69734
2.70033
2.70313
2.70588
2.70788
2.7087
2.70873
2.70888
2.71006
2.71298
2.71686
2.72073
2.72372
2.72553
2.7264
2.72706
2.72821
2.73012
2.73267
2.73544
2.73793
2.73977
2.74097
2.74198
2.7431
2.7446
2.74641
2.74825
2.74991
2.75137
2.7527
2.75422
2.75604
2.75802
2.75984
2.76118
2.76206
2.76278
2.76371
2.76504
2.76666
2.76828
2.76968
2.77081
2.77187
2.77308
2.77452
2.77604
2.77748
2.77873
2.77983
2.78093
2.78217
2.78353
2.78479
2.78575
2.78643
2.78699
2.78766
2.78859
2.78981
2.79112
2.79201
2.79228
2.7924
2.79265
2.79333
2.79445
2.7959
2.79735
2.79856
2.79955
2.80045
2.80138
2.80235
2.80324
2.80397
2.80455
2.80511
2.8058
2.80672
2.80772
2.80862
2.80962
2.81076
2.81174
2.81231
2.81242
1
1
1
1
1
1
1
1
1
1
1
1
1
1
1
1
1
1
1
1
1
1
1
1
1
1
1
1
1
1
1
1
1
1
1
1
1
1
1
1
1
1
1
1
1
1
1
1
1
1
1
1
1
1
1
1
1
1
1
1
1
1
1
1
1
1
1
1
1
1
1
1
1
1
1
1
1
1
1
1
1
1
1
1
1
1
1
1
1
1
1
1
1
1
1
1
1
1
1.62528
2.58756
2.68531
2.68575
2.68942
2.69355
2.69747
2.70086
2.70372
2.70607
2.7074
2.70767
2.7076
2.70802
2.70974
2.71302
2.71708
2.7209
2.72366
2.72523
2.72598
2.72666
2.72794
2.72996
2.73254
2.73526
2.73762
2.73933
2.74053
2.74162
2.74288
2.74451
2.7464
2.74823
2.74983
2.75123
2.75252
2.75402
2.75583
2.7578
2.7596
2.76094
2.76186
2.76265
2.76366
2.76502
2.7666
2.76813
2.76945
2.77054
2.77164
2.77297
2.77455
2.77615
2.77759
2.77875
2.77972
2.78068
2.78183
2.78317
2.7845
2.78559
2.78636
2.78696
2.78762
2.7885
2.78965
2.79094
2.79188
2.79224
2.79233
2.7925
2.79308
2.79412
2.79559
2.79721
2.79859
2.79963
2.80047
2.80127
2.80213
2.80298
2.80371
2.8043
2.80488
2.80562
2.8066
2.80765
2.80854
2.80943
2.81051
2.8115
2.81215
2.8124
1
1
1
1
1
1
1
1
1
1
1
1
1
1
1
1
1
1
1
1
1
1
1
1
1
1
1
1
1
1
1
1
1
1
1
1
1
1
1
1
1
1
1
1
1
1
1
1
1
1
1
1
1
1
1
1
1
1
1
1
1
1
1
1
1
1
1
1
1
1
1
1
1
1
1
1
1
1
1
1
1
1
1
1
1
1
1
1
1
1
1
1
1
1
1
1
1
1
1.60493
2.58395
2.68363
2.68435
2.68844
2.69292
2.69729
2.70111
2.70417
2.70622
2.70696
2.7069
2.7069
2.70762
2.70963
2.71301
2.71708
2.72076
2.72334
2.72485
2.72563
2.72641
2.72776
2.72981
2.73233
2.73492
2.73715
2.73878
2.74004
2.74125
2.74265
2.7444
2.74635
2.74814
2.7497
2.75104
2.75231
2.75379
2.7556
2.75755
2.75934
2.76068
2.76163
2.76247
2.76352
2.7649
2.76645
2.76794
2.76923
2.77032
2.77147
2.77287
2.7745
2.77615
2.77759
2.77871
2.7796
2.78046
2.7815
2.78276
2.78408
2.78527
2.7862
2.78694
2.78767
2.78854
2.78957
2.79067
2.79154
2.79198
2.79214
2.79238
2.79296
2.79393
2.79532
2.79693
2.79843
2.7996
2.80048
2.80123
2.80195
2.80266
2.80333
2.80395
2.80464
2.80551
2.80653
2.80754
2.80834
2.80915
2.81021
2.81125
2.81201
2.81235
1
1
1
1
1
1
1
1
1
1
1
1
1
1
1
1
1
1
1
1
1
1
1
1
1
1
1
1
1
1
1
1
1
1
1
1
1
1
1
1
1
1
1
1
1
1
1
1
1
1
1
1
1
1
1
1
1
1
1
1
1
1
1
1
1
1
1
1
1
1
1
1
1
1
1
1
1
1
1
1
1
1
1
1
1
1
1
1
1
1
1
1
1
1
1
1
1
1
1.58225
2.57933
2.68248
2.68331
2.68732
2.69195
2.69687
2.70119
2.70447
2.70625
2.70656
2.70644
2.70663
2.70758
2.70964
2.71285
2.71671
2.72025
2.72285
2.72453
2.72549
2.72636
2.72771
2.72966
2.73202
2.73441
2.73651
2.73813
2.73952
2.7409
2.74245
2.7443
2.74624
2.74798
2.74948
2.75079
2.75204
2.75354
2.75538
2.75731
2.75907
2.76039
2.76136
2.76224
2.76331
2.76468
2.7662
2.76767
2.76897
2.77012
2.77135
2.7728
2.77446
2.77608
2.77747
2.77854
2.77939
2.78021
2.7812
2.78238
2.78365
2.78485
2.78591
2.78683
2.78771
2.78863
2.78955
2.79039
2.79107
2.79152
2.79182
2.79225
2.79292
2.79387
2.79513
2.79659
2.79808
2.79942
2.80046
2.80122
2.80179
2.80232
2.80288
2.80356
2.80441
2.80543
2.80647
2.80735
2.80804
2.80879
2.80986
2.81099
2.81187
2.81223
1
1
1
1
1
1
1
1
1
1
1
1
1
1
1
1
1
1
1
1
1
1
1
1
1
1
1
1
1
1
1
1
1
1
1
1
1
1
1
1
1
1
1
1
1
1
1
1
1
1
1
1
1
1
1
1
1
1
1
1
1
1
1
1
1
1
1
1
1
1
1
1
1
1
1
1
1
1
1
1
1
1
1
1
1
1
1
1
1
1
1
1
1
1
1
1
1
1
1.55463
2.5724
2.68298
2.68301
2.68593
2.69042
2.69582
2.70075
2.70437
2.70609
2.70632
2.70638
2.70683
2.70781
2.70959
2.71236
2.71592
2.71944
2.72227
2.72427
2.72549
2.72645
2.72774
2.72951
2.73161
2.73377
2.73574
2.73741
2.73898
2.74055
2.74226
2.74418
2.74608
2.74773
2.74913
2.75041
2.7517
2.7533
2.7552
2.75712
2.75883
2.7601
2.76105
2.76195
2.76304
2.76439
2.76587
2.76731
2.76864
2.76988
2.77124
2.77279
2.77446
2.776
2.77726
2.77822
2.77902
2.77986
2.78088
2.78206
2.78329
2.78444
2.78552
2.78657
2.78763
2.78866
2.78956
2.79021
2.79064
2.79096
2.79139
2.79203
2.79287
2.79387
2.795
2.79625
2.79766
2.7991
2.80034
2.80115
2.80162
2.80198
2.80244
2.80316
2.80418
2.80532
2.80632
2.80706
2.80765
2.80841
2.80952
2.81074
2.81171
2.81203
1
1
1
1
1
1
1
1
1
1
1
1
1
1
1
1
1
1
1
1
1
1
1
1
1
1
1
1
1
1
1
1
1
1
1
1
1
1
1
1
1
1
1
1
1
1
1
1
1
1
1
1
1
1
1
1
1
1
1
1
1
1
1
1
1
1
1
1
1
1
1
1
1
1
1
1
1
1
1
1
1
1
1
1
1
1
1
1
1
1
1
1
1
1
1
1
1
1
1.522
2.56281
2.68397
2.68312
2.68501
2.68888
2.69433
2.69972
2.70378
2.70579
2.70635
2.70672
2.70729
2.70806
2.70939
2.71164
2.7149
2.71845
2.72157
2.72397
2.72552
2.72664
2.72786
2.72941
2.73118
2.73305
2.73491
2.73665
2.73838
2.74015
2.74204
2.74401
2.74587
2.7474
2.74869
2.74995
2.75133
2.75305
2.75504
2.75696
2.75858
2.75975
2.76065
2.76157
2.7627
2.76406
2.7655
2.76687
2.76818
2.76952
2.77106
2.77278
2.77451
2.77598
2.77706
2.77783
2.77853
2.7794
2.78052
2.7818
2.78304
2.78411
2.78509
2.78615
2.78734
2.78854
2.78951
2.79008
2.79033
2.79049
2.7909
2.79169
2.79272
2.79382
2.79489
2.79597
2.79724
2.7987
2.80007
2.80098
2.8014
2.80167
2.80205
2.80281
2.80393
2.80511
2.80604
2.80667
2.80723
2.80804
2.80922
2.81051
2.81149
2.81172
1
1
1
1
1
1
1
1
1
1
1
1
1
1
1
1
1
1
1
1
1
1
1
1
1
1
1
1
1
1
1
1
1
1
1
1
1
1
1
1
1
1
1
1
1
1
1
1
1
1
1
1
1
1
1
1
1
1
1
1
1
1
1
1
1
1
1
1
1
1
1
1
1
1
1
1
1
1
1
1
1
1
1
1
1
1
1
1
1
1
1
1
1
1
1
1
1
1
1.48556
2.54992
2.68538
2.68359
2.68485
2.68784
2.69277
2.69821
2.70271
2.70537
2.70656
2.70725
2.70776
2.70827
2.7092
2.711
2.71388
2.71738
2.72075
2.72354
2.72546
2.72676
2.72796
2.72929
2.73075
2.73234
2.73409
2.73587
2.73775
2.73972
2.74175
2.74378
2.7456
2.74701
2.74819
2.74945
2.75093
2.75281
2.75488
2.75677
2.75828
2.75934
2.76017
2.76114
2.76235
2.76375
2.76514
2.76641
2.76765
2.76902
2.77074
2.77267
2.7745
2.77592
2.77683
2.77738
2.77794
2.77881
2.78008
2.78152
2.78284
2.78386
2.78472
2.78569
2.78691
2.78825
2.78935
2.78997
2.79014
2.79016
2.79047
2.79126
2.79243
2.79366
2.79475
2.79576
2.79688
2.79824
2.79966
2.80066
2.80112
2.80138
2.80176
2.80252
2.80363
2.80477
2.80561
2.80617
2.80678
2.80771
2.80895
2.81025
2.81119
2.8113
1
1
1
1
1
1
1
1
1
1
1
1
1
1
1
1
1
1
1
1
1
1
1
1
1
1
1
1
1
1
1
1
1
1
1
1
1
1
1
1
1
1
1
1
1
1
1
1
1
1
1
1
1
1
1
1
1
1
1
1
1
1
1
1
1
1
1
1
1
1
1
1
1
1
1
1
1
1
1
1
1
1
1
1
1
1
1
1
1
1
1
1
1
1
1
1
1
1
1.44619
2.53408
2.68649
2.6843
2.68524
2.68743
2.69154
2.69661
2.70135
2.70476
2.70667
2.70765
2.70814
2.70848
2.70912
2.71054
2.71304
2.71637
2.71983
2.72291
2.72518
2.72672
2.72797
2.72917
2.7304
2.73178
2.73339
2.73514
2.73708
2.73919
2.74134
2.74343
2.74521
2.74655
2.74767
2.74894
2.75052
2.75252
2.75465
2.75646
2.75784
2.75877
2.75957
2.76061
2.76194
2.76343
2.76481
2.76601
2.76715
2.76849
2.7703
2.77239
2.7744
2.77586
2.77667
2.77706
2.77746
2.77825
2.77956
2.78113
2.78254
2.78356
2.78433
2.78519
2.78636
2.78777
2.78903
2.78978
2.78999
2.78995
2.79014
2.79086
2.79204
2.79337
2.79455
2.79555
2.79658
2.7978
2.79912
2.80019
2.80079
2.80112
2.80152
2.80226
2.80327
2.80427
2.80504
2.80562
2.80637
2.80743
2.80872
2.80998
2.81081
2.8108
1
1
1
1
1
1
1
1
1
1
1
1
1
1
1
1
1
1
1
1
1
1
1
1
1
1
1
1
1
1
1
1
1
1
1
1
1
1
1
1
1
1
1
1
1
1
1
1
1
1
1
1
1
1
1
1
1
1
1
1
1
1
1
1
1
1
1
1
1
1
1
1
1
1
1
1
1
1
1
1
1
1
1
1
1
1
1
1
1
1
1
1
1
1
1
1
1
1
1.40315
2.51523
2.68716
2.68532
2.6861
2.68767
2.69087
2.69526
2.69991
2.70381
2.70639
2.70774
2.70833
2.70864
2.70914
2.7103
2.71242
2.71543
2.71882
2.72204
2.72461
2.72643
2.7278
2.72899
2.73013
2.73136
2.73282
2.73447
2.73635
2.7385
2.74077
2.74295
2.74476
2.7461
2.74722
2.74852
2.75018
2.75223
2.75434
2.75607
2.75732
2.75816
2.75895
2.76007
2.7615
2.76306
2.76443
2.76557
2.76664
2.76792
2.76968
2.77178
2.77387
2.77543
2.77627
2.77664
2.777
2.77774
2.77902
2.78061
2.78208
2.78315
2.78393
2.78475
2.78588
2.78729
2.78862
2.78949
2.7898
2.78977
2.78991
2.79052
2.79161
2.79295
2.7942
2.79526
2.79626
2.79736
2.79855
2.79966
2.80043
2.80087
2.80133
2.80199
2.80283
2.80366
2.80438
2.80506
2.80597
2.80715
2.80847
2.80967
2.81035
2.81023
1
1
1
1
1
1
1
1
1
1
1
1
1
1
1
1
1
1
1
1
1
1
1
1
1
1
1
1
1
1
1
1
1
1
1
1
1
1
1
1
1
1
1
1
1
1
1
1
1
1
1
1
1
1
1
1
1
1
1
1
1
1
1
1
1
1
1
1
1
1
1
1
1
1
1
1
1
1
1
1
1
1
1
1
1
1
1
1
1
1
1
1
1
1
1
1
1
1
1.35406
2.49289
2.6878
2.68629
2.68689
2.6881
2.69056
2.69414
2.6984
2.7025
2.70565
2.70752
2.70835
2.70876
2.70922
2.71018
2.71193
2.71456
2.71775
2.72101
2.72382
2.72593
2.72751
2.7288
2.72995
2.7311
2.73242
2.73391
2.73565
2.73771
2.73995
2.74213
2.74398
2.74543
2.7467
2.7481
2.74979
2.75178
2.75373
2.75533
2.75654
2.75741
2.75831
2.75956
2.76104
2.76262
2.76399
2.76514
2.76623
2.76752
2.76925
2.77125
2.77326
2.77481
2.77573
2.77622
2.77667
2.77742
2.77859
2.78004
2.78144
2.78256
2.78345
2.78435
2.78549
2.78683
2.78812
2.78904
2.78947
2.78959
2.78977
2.79029
2.79125
2.79249
2.79373
2.79484
2.79586
2.79691
2.79801
2.7991
2.79999
2.80061
2.80109
2.80163
2.80229
2.80298
2.80368
2.80449
2.80557
2.80684
2.80817
2.80929
2.80983
2.80966
1
1
1
1
1
1
1
1
1
1
1
1
1
1
1
1
1
1
1
1
1
1
1
1
1
1
1
1
1
1
1
1
1
1
1
1
1
1
1
1
1
1
1
1
1
1
1
1
1
1
1
1
1
1
1
1
1
1
1
1
1
1
1
1
1
1
1
1
1
1
1
1
1
1
1
1
1
1
1
1
1
1
1
1
1
1
1
1
1
1
1
1
1
1
1
1
1
1
1.30188
2.46811
2.68816
2.68687
2.68734
2.68841
2.6903
2.69322
2.69695
2.70096
2.70447
2.70685
2.70816
2.7088
2.70927
2.71002
2.71144
2.71372
2.71668
2.7199
2.72288
2.72527
2.7271
2.72855
2.72978
2.73092
2.73213
2.73347
2.73504
2.73695
2.73909
2.74123
2.74314
2.74477
2.74625
2.7478
2.74952
2.75136
2.75308
2.7545
2.75569
2.7567
2.75781
2.75918
2.76061
2.7621
2.76341
2.76463
2.76586
2.76727
2.76895
2.77073
2.77246
2.77388
2.7749
2.77564
2.77632
2.77716
2.77823
2.77943
2.78065
2.78179
2.78287
2.78399
2.78524
2.78653
2.78767
2.7885
2.789
2.7893
2.78961
2.79012
2.79093
2.79197
2.79311
2.79424
2.79534
2.79643
2.79752
2.79857
2.79953
2.80026
2.80076
2.8012
2.80169
2.80228
2.80299
2.80395
2.80514
2.80643
2.80776
2.80882
2.80927
2.80913
1
1
1
1
1
1
1
1
1
1
1
1
1
1
1
1
1
1
1
1
1
1
1
1
1
1
1
1
1
1
1
1
1
1
1
1
1
1
1
1
1
1
1
1
1
1
1
1
1
1
1
1
1
1
1
1
1
1
1
1
1
1
1
1
1
1
1
1
1
1
1
1
1
1
1
1
1
1
1
1
1
1
1
1
1
1
1
1
1
1
1
1
1
1
1
1
1
1
1.24903
2.44045
2.68796
2.68692
2.68724
2.68841
2.69009
2.69248
2.69563
2.69933
2.70301
2.70592
2.70783
2.70878
2.70925
2.70986
2.71101
2.71295
2.71566
2.71882
2.72192
2.72457
2.72664
2.72826
2.7296
2.73077
2.73192
2.73313
2.73452
2.73622
2.73819
2.74026
2.74226
2.74412
2.74588
2.74757
2.74922
2.7508
2.75223
2.75349
2.75477
2.75604
2.75742
2.75888
2.76019
2.76147
2.76266
2.76396
2.7654
2.76701
2.7687
2.77027
2.77165
2.7728
2.77384
2.77487
2.77593
2.777
2.77804
2.779
2.77992
2.78092
2.78211
2.78348
2.78492
2.78619
2.78717
2.78787
2.78841
2.7889
2.78942
2.78998
2.79063
2.79144
2.79241
2.79353
2.79473
2.79593
2.79705
2.79808
2.79904
2.7998
2.80031
2.80069
2.80108
2.80164
2.80236
2.80341
2.80464
2.8059
2.80721
2.80826
2.8087
2.80865
1
1
1
1
1
1
1
1
1
1
1
1
1
1
1
1
1
1
1
1
1
1
1
1
1
1
1
1
1
1
1
1
1
1
1
1
1
1
1
1
1
1
1
1
1
1
1
1
1
1
1
1
1
1
1
1
1
1
1
1
1
1
1
1
1
1
1
1
1
1
1
1
1
1
1
1
1
1
1
1
1
1
1
1
1
1
1
1
1
1
1
1
1
1
1
1
1
1
1.1906
2.40559
2.68622
2.68617
2.6869
2.68833
2.68991
2.69192
2.69457
2.69793
2.70165
2.705
2.7074
2.70865
2.70917
2.70967
2.71059
2.71225
2.71474
2.71782
2.72101
2.72384
2.72612
2.72789
2.72932
2.73054
2.73169
2.73284
2.73406
2.73553
2.7373
2.73929
2.74139
2.7435
2.74551
2.7473
2.74884
2.75014
2.75126
2.75239
2.75382
2.75543
2.7571
2.75864
2.75981
2.76085
2.76185
2.76316
2.76481
2.76668
2.76847
2.76992
2.77099
2.77181
2.77272
2.77392
2.77536
2.77676
2.77786
2.77863
2.77926
2.78006
2.78126
2.78284
2.78446
2.78578
2.78666
2.78724
2.78778
2.78844
2.78917
2.78982
2.79036
2.79093
2.79171
2.79278
2.79407
2.7954
2.79658
2.79757
2.79845
2.79918
2.79973
2.80012
2.8005
2.80105
2.80177
2.80282
2.80402
2.80525
2.80655
2.80763
2.80814
2.80821
1
1
1
1
1
1
1
1
1
1
1
1
1
1
1
1
1
1
1
1
1
1
1
1
1
1
1
1
1
1
1
1
1
1
1
1
1
1
1
1
1
1
1
1
1
1
1
1
1
1
1
1
1
1
1
1
1
1
1
1
1
1
1
1
1
1
1
1
1
1
1
1
1
1
1
1
1
1
1
1
1
1
1
1
1
1
1
1
1
1
1
1
1
1
1
1
1
1
1.12805
2.36647
2.68383
2.68529
2.68665
2.68825
2.68985
2.69171
2.69405
2.69714
2.70072
2.70421
2.7069
2.70839
2.70903
2.70951
2.71029
2.71173
2.714
2.71698
2.7202
2.72315
2.72558
2.72747
2.72897
2.73025
2.73144
2.73255
2.73366
2.73493
2.7365
2.7384
2.74059
2.74291
2.7451
2.74695
2.74838
2.74943
2.75032
2.75138
2.75294
2.75483
2.75674
2.75835
2.75946
2.76031
2.76112
2.76234
2.76405
2.76611
2.76803
2.76945
2.77033
2.77093
2.77169
2.77293
2.77461
2.7763
2.77755
2.77827
2.77874
2.77936
2.78047
2.7821
2.78385
2.78526
2.78615
2.7867
2.78721
2.78792
2.78876
2.78947
2.78994
2.79036
2.791
2.79201
2.79336
2.7948
2.79604
2.79699
2.79777
2.79846
2.79906
2.79953
2.79996
2.80051
2.80119
2.80215
2.80327
2.80448
2.80581
2.80696
2.80759
2.80776
1
1
1
1
1
1
1
1
1
1
1
1
1
1
1
1
1
1
1
1
1
1
1
1
1
1
1
1
1
1
1
1
1
1
1
1
1
1
1
1
1
1
1
1
1
1
1
1
1
1
1
1
1
1
1
1
1
1
1
1
1
1
1
1
1
1
1
1
1
1
1
1
1
1
1
1
1
1
1
1
1
1
1
1
1
1
1
1
1
1
1
1
1
1
1
1
1
1
1.06079
2.32978
2.68362
2.68507
2.68649
2.68825
2.68997
2.69191
2.69423
2.69715
2.70051
2.70384
2.70654
2.70818
2.70901
2.70954
2.71024
2.71149
2.71354
2.71635
2.71949
2.72248
2.72502
2.72703
2.72863
2.72998
2.73119
2.73228
2.7333
2.73441
2.73582
2.73767
2.73993
2.74237
2.74464
2.7465
2.74784
2.74876
2.74958
2.75064
2.75222
2.75421
2.7562
2.75788
2.75899
2.7598
2.76053
2.76167
2.76331
2.76536
2.76732
2.76879
2.76969
2.77025
2.77096
2.77213
2.77381
2.77558
2.77696
2.77778
2.77824
2.77877
2.77976
2.78129
2.78304
2.78454
2.78554
2.78617
2.78672
2.78743
2.78828
2.789
2.78944
2.78979
2.79035
2.79133
2.7927
2.79416
2.7954
2.79631
2.79701
2.79768
2.79836
2.79896
2.79945
2.79995
2.80054
2.80135
2.8024
2.80364
2.80503
2.8063
2.80704
2.80726
1
1
1
1
1
1
1
1
1
1
1
1
1
1
1
1
1
1
1
1
1
1
1
1
1
1
1
1
1
1
1
1
1
1
1
1
1
1
1
1
1
1
1
1
1
1
1
1
1
1
1
1
1
1
1
1
1
1
1
1
1
1
1
1
1
1
1
1
1
1
1
1
1
1
1
1
1
1
1
1
1
1
1
1
1
1
1
1
1
1
1
1
1
1
1
1
1
1
1.00269
2.29072
2.68162
2.68404
2.68581
2.68794
2.69001
2.69224
2.69468
2.69749
2.70058
2.70363
2.70622
2.70797
2.70895
2.70955
2.71024
2.7114
2.71328
2.71589
2.71891
2.72187
2.72449
2.72665
2.72839
2.72982
2.73103
2.73205
2.73297
2.73399
2.73533
2.73716
2.73943
2.74184
2.74406
2.74586
2.74719
2.74816
2.7491
2.7503
2.75183
2.75369
2.75555
2.75717
2.75836
2.7593
2.76013
2.76125
2.76271
2.76451
2.76632
2.76783
2.7689
2.76966
2.77047
2.77159
2.7731
2.77475
2.77615
2.7771
2.7777
2.77829
2.7792
2.78057
2.78219
2.78371
2.78486
2.78565
2.78628
2.78696
2.78771
2.78835
2.78878
2.78913
2.7897
2.79068
2.79202
2.79343
2.79462
2.79549
2.79618
2.79689
2.79767
2.79839
2.79893
2.79934
2.79979
2.80044
2.80144
2.80277
2.80426
2.80564
2.80646
2.80668
1
1
1
1
1
1
1
1
1
1
1
1
1
1
1
1
1
1
1
1
1
1
1
1
1
1
1
1
1
1
1
1
1
1
1
1
1
1
1
1
1
1
1
1
1
1
1
1
1
1
1
1
1
1
1
1
1
1
1
1
1
1
1
1
1
1
1
1
1
1
1
1
1
1
1
1
1
1
1
1
1
1
1
1
1
1
1
1
1
1
1
1
1
1
1
1
1
1
1.00002
2.24226
2.68125
2.68367
2.68519
2.68747
2.68996
2.69259
2.69533
2.69816
2.70101
2.70385
2.70635
2.70813
2.70918
2.7098
2.71047
2.71154
2.71322
2.71556
2.71835
2.7212
2.72387
2.72623
2.7282
2.72976
2.73097
2.7319
2.73273
2.73369
2.73502
2.73686
2.73907
2.74131
2.74331
2.74498
2.74633
2.74752
2.74881
2.75026
2.75175
2.75331
2.75479
2.75619
2.75745
2.75866
2.75977
2.76098
2.76227
2.76373
2.76523
2.76668
2.76798
2.76909
2.77016
2.77129
2.77256
2.77389
2.77514
2.77618
2.77702
2.77779
2.77872
2.77991
2.78132
2.78277
2.78404
2.78504
2.78581
2.78647
2.78709
2.7876
2.78801
2.78842
2.78906
2.79005
2.79133
2.79263
2.79373
2.79459
2.79533
2.79613
2.79701
2.7978
2.79833
2.79864
2.79893
2.79944
2.80043
2.80187
2.80351
2.80498
2.80582
2.806
1
1
1
1
1
1
1
1
1
1
1
1
1
1
1
1
1
1
1
1
1
1
1
1
1
1
1
1
1
1
1
1
1
1
1
1
1
1
1
1
1
1
1
1
1
1
1
1
1
1
1
1
1
1
1
1
1
1
1
1
1
1
1
1
1
1
1
1
1
1
1
1
1
1
1
1
1
1
1
1
1
1
1
1
1
1
1
1
1
1
1
1
1
1
1
1
1
1
1
2.18511
2.68008
2.68251
2.68405
2.68657
2.68953
2.69257
2.69561
2.69856
2.70136
2.70411
2.70658
2.70842
2.70957
2.71025
2.71091
2.71186
2.71325
2.71525
2.71775
2.72045
2.72318
2.72578
2.72802
2.72974
2.73098
2.73188
2.73264
2.73357
2.73491
2.73674
2.73882
2.74078
2.74249
2.74397
2.74538
2.74689
2.74865
2.7504
2.7519
2.75316
2.75417
2.75522
2.75641
2.75786
2.75933
2.76073
2.76195
2.76308
2.76419
2.76544
2.76688
2.76838
2.7698
2.77104
2.7721
2.77307
2.77407
2.77512
2.77619
2.77723
2.77827
2.77935
2.78053
2.78183
2.78315
2.78433
2.78526
2.78593
2.78642
2.78679
2.78716
2.78766
2.78839
2.78939
2.79057
2.79174
2.79276
2.79364
2.79448
2.7954
2.79634
2.79712
2.7976
2.79781
2.79798
2.79841
2.79941
2.80099
2.80276
2.80427
2.80511
2.80523
1
1
1
1
1
1
1
1
1
1
1
1
1
1
1
1
1
1
1
1
1
1
1
1
1
1
1
1
1
1
1
1
1
1
1
1
1
1
1
1
1
1
1
1
1
1
1
1
1
1
1
1
1
1
1
1
1
1
1
1
1
1
1
1
1
1
1
1
1
1
1
1
1
1
1
1
1
1
1
1
1
1
1
1
1
1
1
1
1
1
1
1
1
1
1
1
1
1
1
2.12035
2.67576
2.68123
2.68242
2.68505
2.68833
2.69188
2.69529
2.69846
2.70137
2.70418
2.7067
2.70862
2.70993
2.71077
2.71147
2.71226
2.71332
2.71493
2.71709
2.7196
2.72235
2.72515
2.72764
2.72956
2.73096
2.73194
2.73273
2.73366
2.73498
2.73669
2.73848
2.74011
2.74155
2.74294
2.74447
2.74634
2.74849
2.7505
2.75202
2.75302
2.75364
2.75435
2.75542
2.75694
2.75867
2.7603
2.76158
2.76254
2.76334
2.76437
2.76579
2.76753
2.76928
2.77068
2.77165
2.77235
2.77308
2.77403
2.77524
2.77654
2.77775
2.77879
2.77978
2.7809
2.78218
2.78348
2.78457
2.78529
2.78569
2.78595
2.78628
2.78684
2.78764
2.78864
2.78973
2.79079
2.79176
2.79269
2.79366
2.79467
2.7956
2.79631
2.79671
2.79686
2.79698
2.79741
2.79845
2.80011
2.80196
2.8035
2.8043
2.8044
1
1
1
1
1
1
1
1
1
1
1
1
1
1
1
1
1
1
1
1
1
1
1
1
1
1
1
1
1
1
1
1
1
1
1
1
1
1
1
1
1
1
1
1
1
1
1
1
1
1
1
1
1
1
1
1
1
1
1
1
1
1
1
1
1
1
1
1
1
1
1
1
1
1
1
1
1
1
1
1
1
1
1
1
1
1
1
1
1
1
1
1
1
1
1
1
1
1
1
2.04959
2.6676
2.68079
2.6809
2.68312
2.68635
2.69013
2.69391
2.69743
2.7006
2.7036
2.70634
2.7085
2.71004
2.71109
2.71189
2.71257
2.71337
2.71462
2.71641
2.71865
2.7213
2.72416
2.72689
2.72915
2.73088
2.73213
2.73305
2.73396
2.73509
2.73644
2.73784
2.73919
2.74054
2.74203
2.74381
2.74595
2.74829
2.75037
2.75189
2.7528
2.75323
2.75375
2.75467
2.75609
2.75787
2.75964
2.76105
2.76202
2.76271
2.76359
2.76489
2.76664
2.7685
2.77006
2.77106
2.77165
2.77222
2.77305
2.77427
2.77574
2.77711
2.77819
2.77906
2.78002
2.78121
2.78254
2.78373
2.78453
2.7849
2.7851
2.78539
2.78597
2.78681
2.7878
2.78881
2.78979
2.79074
2.79175
2.79286
2.79392
2.79475
2.79534
2.79565
2.79579
2.79596
2.79645
2.79755
2.79923
2.80107
2.80262
2.80341
2.80352
1
1
1
1
1
1
1
1
1
1
1
1
1
1
1
1
1
1
1
1
1
1
1
1
1
1
1
1
1
1
1
1
1
1
1
1
1
1
1
1
1
1
1
1
1
1
1
1
1
1
1
1
1
1
1
1
1
1
1
1
1
1
1
1
1
1
1
1
1
1
1
1
1
1
1
1
1
1
1
1
1
1
1
1
1
1
1
1
1
1
1
1
1
1
1
1
1
1
1
1.97332
2.65504
2.68066
2.67998
2.68174
2.68445
2.68783
2.69149
2.69513
2.69858
2.70191
2.70507
2.70775
2.70976
2.7111
2.71202
2.71266
2.7133
2.71425
2.71566
2.71754
2.71993
2.72274
2.72571
2.72846
2.73073
2.73242
2.73353
2.7343
2.73503
2.73586
2.73685
2.73806
2.73953
2.74132
2.7434
2.74569
2.74796
2.74992
2.7514
2.75238
2.75288
2.7534
2.75419
2.75536
2.75695
2.7587
2.76028
2.76146
2.76227
2.76312
2.76425
2.7658
2.76756
2.76916
2.77027
2.77093
2.77148
2.77224
2.77339
2.77487
2.77632
2.77746
2.77831
2.77917
2.78025
2.78154
2.78276
2.78362
2.78403
2.78421
2.78449
2.78507
2.78591
2.78688
2.78784
2.78877
2.78973
2.79082
2.79203
2.79308
2.79377
2.79423
2.79447
2.79465
2.79494
2.79553
2.79669
2.79831
2.80009
2.80162
2.80243
2.8026
1
1
1
1
1
1
1
1
1
1
1
1
1
1
1
1
1
1
1
1
1
1
1
1
1
1
1
1
1
1
1
1
1
1
1
1
1
1
1
1
1
1
1
1
1
1
1
1
1
1
1
1
1
1
1
1
1
1
1
1
1
1
1
1
1
1
1
1
1
1
1
1
1
1
1
1
1
1
1
1
1
1
1
1
1
1
1
1
1
1
1
1
1
1
1
1
1
1
1
1.88944
2.63747
2.68028
2.67945
2.68113
2.68329
2.68587
2.68877
2.69189
2.69526
2.69897
2.70268
2.706
2.70871
2.71064
2.71181
2.71246
2.71299
2.71372
2.71479
2.71626
2.71824
2.72087
2.72407
2.72741
2.73039
2.73262
2.73395
2.73452
2.73476
2.735
2.73559
2.73677
2.73851
2.74068
2.7431
2.74548
2.74757
2.74928
2.75063
2.75176
2.75252
2.75319
2.75389
2.75474
2.75599
2.75757
2.75929
2.7608
2.76191
2.76285
2.76382
2.76505
2.76652
2.76803
2.76928
2.77014
2.77081
2.77157
2.77262
2.77398
2.77539
2.77657
2.77748
2.77833
2.77933
2.78053
2.7817
2.78258
2.78305
2.78328
2.78358
2.78415
2.78498
2.78591
2.78682
2.78773
2.78872
2.78986
2.79112
2.79213
2.79268
2.79301
2.79321
2.79347
2.79391
2.79465
2.79582
2.79733
2.79901
2.80052
2.80136
2.80163
1
1
1
1
1
1
1
1
1
1
1
1
1
1
1
1
1
1
1
1
1
1
1
1
1
1
1
1
1
1
1
1
1
1
1
1
1
1
1
1
1
1
1
1
1
1
1
1
1
1
1
1
1
1
1
1
1
1
1
1
1
1
1
1
1
1
1
1
1
1
1
1
1
1
1
1
1
1
1
1
1
1
1
1
1
1
1
1
1
1
1
1
1
1
1
1
1
1
1
1.79356
2.6142
2.67945
2.67895
2.68101
2.68284
2.68459
2.68643
2.6886
2.69143
2.69509
2.6992
2.70321
2.70669
2.70935
2.7111
2.71192
2.71237
2.71293
2.71373
2.71483
2.71639
2.71873
2.72202
2.72589
2.72963
2.73255
2.73419
2.73457
2.73438
2.73409
2.73428
2.73533
2.73729
2.73985
2.74262
2.74519
2.74724
2.74876
2.74989
2.75103
2.75201
2.75288
2.75355
2.75413
2.75504
2.7564
2.75822
2.76006
2.76154
2.76263
2.76349
2.76438
2.76548
2.76679
2.76813
2.76925
2.77015
2.77098
2.77193
2.77308
2.77436
2.77554
2.77654
2.77746
2.77844
2.77952
2.78058
2.78143
2.78194
2.78226
2.78264
2.78323
2.78404
2.78492
2.78578
2.78667
2.78767
2.78883
2.79008
2.79103
2.79151
2.79175
2.79193
2.79229
2.79286
2.79374
2.79489
2.79627
2.79785
2.79933
2.80024
2.80059
1
1
1
1
1
1
1
1
1
1
1
1
1
1
1
1
1
1
1
1
1
1
1
1
1
1
1
1
1
1
1
1
1
1
1
1
1
1
1
1
1
1
1
1
1
1
1
1
1
1
1
1
1
1
1
1
1
1
1
1
1
1
1
1
1
1
1
1
1
1
1
1
1
1
1
1
1
1
1
1
1
1
1
1
1
1
1
1
1
1
1
1
1
1
1
1
1
1
1
1.68362
2.58534
2.67783
2.67833
2.68092
2.68241
2.68367
2.68475
2.68607
2.68812
2.69125
2.69531
2.69973
2.70387
2.70724
2.70962
2.7108
2.71132
2.7118
2.71247
2.71331
2.71452
2.71654
2.71973
2.72388
2.72824
2.73192
2.73398
2.73436
2.73395
2.73328
2.7331
2.73379
2.73568
2.73849
2.74169
2.74465
2.74693
2.7485
2.74941
2.75031
2.75128
2.75223
2.75292
2.7534
2.75412
2.75536
2.75725
2.75931
2.76105
2.7623
2.76312
2.76376
2.76451
2.76558
2.76692
2.76826
2.76941
2.77038
2.77126
2.77219
2.77326
2.77439
2.7755
2.77655
2.77756
2.77853
2.77942
2.78016
2.78072
2.78116
2.78166
2.78231
2.78309
2.78392
2.78472
2.78557
2.78657
2.78771
2.78888
2.78978
2.79026
2.79049
2.79069
2.79112
2.79179
2.79275
2.79386
2.79511
2.79662
2.79808
2.79905
2.79948
1
1
1
1
1
1
1
1
1
1
1
1
1
1
1
1
1
1
1
1
1
1
1
1
1
1
1
1
1
1
1
1
1
1
1
1
1
1
1
1
1
1
1
1
1
1
1
1
1
1
1
1
1
1
1
1
1
1
1
1
1
1
1
1
1
1
1
1
1
1
1
1
1
1
1
1
1
1
1
1
1
1
1
1
1
1
1
1
1
1
1
1
1
1
1
1
1
1
1
1.56329
2.55041
2.67588
2.67731
2.68035
2.68174
2.68291
2.68357
2.68437
2.68579
2.68829
2.69189
2.69616
2.70052
2.7044
2.70737
2.709
2.70981
2.71042
2.71111
2.71185
2.71282
2.71447
2.71734
2.72142
2.72605
2.73029
2.733
2.73374
2.73339
2.73265
2.73215
2.73241
2.73382
2.73654
2.7401
2.74364
2.74644
2.74832
2.74917
2.74971
2.75036
2.75114
2.75184
2.7524
2.7532
2.75452
2.75649
2.7586
2.76043
2.76175
2.76258
2.76311
2.76363
2.76447
2.76573
2.7672
2.76858
2.7697
2.77055
2.77129
2.77212
2.77317
2.77437
2.77558
2.77664
2.77751
2.77822
2.77882
2.77939
2.77999
2.78064
2.78137
2.78214
2.78289
2.78363
2.78444
2.78538
2.78646
2.78754
2.7884
2.78894
2.78923
2.7895
2.78997
2.79068
2.79163
2.79267
2.79386
2.79533
2.7968
2.79782
2.79828
1
1
1
1
1
1
1
1
1
1
1
1
1
1
1
1
1
1
1
1
1
1
1
1
1
1
1
1
1
1
1
1
1
1
1
1
1
1
1
1
1
1
1
1
1
1
1
1
1
1
1
1
1
1
1
1
1
1
1
1
1
1
1
1
1
1
1
1
1
1
1
1
1
1
1
1
1
1
1
1
1
1
1
1
1
1
1
1
1
1
1
1
1
1
1
1
1
1
1
1.43642
2.50923
2.67475
2.67575
2.67874
2.6805
2.68199
2.68281
2.68333
2.68429
2.68621
2.68924
2.69308
2.69715
2.70107
2.70447
2.70665
2.70792
2.70883
2.70966
2.71046
2.71133
2.71269
2.71508
2.71874
2.72321
2.72772
2.73113
2.73258
2.73259
2.73207
2.73143
2.73126
2.73199
2.73423
2.73791
2.74207
2.74562
2.74803
2.749
2.74918
2.74935
2.74972
2.75031
2.75108
2.75222
2.75382
2.7559
2.75796
2.75968
2.76095
2.76183
2.76237
2.76278
2.76346
2.76462
2.76614
2.76767
2.76891
2.76975
2.77034
2.77097
2.77191
2.77319
2.77454
2.77567
2.77645
2.77697
2.77743
2.77801
2.77875
2.77957
2.78038
2.78113
2.78182
2.7825
2.78325
2.78413
2.78511
2.78607
2.78693
2.78756
2.78799
2.78835
2.78884
2.78951
2.79035
2.79132
2.79251
2.79398
2.79548
2.79654
2.79701
1
1
1
1
1
1
1
1
1
1
1
1
1
1
1
1
1
1
1
1
1
1
1
1
1
1
1
1
1
1
1
1
1
1
1
1
1
1
1
1
1
1
1
1
1
1
1
1
1
1
1
1
1
1
1
1
1
1
1
1
1
1
1
1
1
1
1
1
1
1
1
1
1
1
1
1
1
1
1
1
1
1
1
1
1
1
1
1
1
1
1
1
1
1
1
1
1
1
1
1.31089
2.46109
2.67552
2.67446
2.67673
2.67887
2.68083
2.68209
2.68293
2.68382
2.68521
2.68747
2.69064
2.6943
2.69795
2.70133
2.70393
2.70572
2.70704
2.70814
2.70914
2.71011
2.71131
2.71324
2.71624
2.72018
2.72453
2.7284
2.73072
2.73146
2.73132
2.73075
2.73026
2.73048
2.732
2.73537
2.73991
2.74426
2.74736
2.74861
2.74857
2.7483
2.74818
2.74853
2.74948
2.75109
2.75311
2.75534
2.75733
2.75884
2.75997
2.76085
2.76146
2.76189
2.76251
2.7636
2.76513
2.76671
2.768
2.76882
2.76931
2.7698
2.77066
2.77197
2.77342
2.7746
2.7753
2.77568
2.77603
2.77662
2.77748
2.77844
2.7793
2.78003
2.78067
2.78129
2.782
2.7828
2.78366
2.78452
2.78537
2.78612
2.78672
2.78722
2.78771
2.78825
2.78894
2.78983
2.79104
2.79257
2.79413
2.7952
2.79566
1
1
1
1
1
1
1
1
1
1
1
1
1
1
1
1
1
1
1
1
1
1
1
1
1
1
1
1
1
1
1
1
1
1
1
1
1
1
1
1
1
1
1
1
1
1
1
1
1
1
1
1
1
1
1
1
1
1
1
1
1
1
1
1
1
1
1
1
1
1
1
1
1
1
1
1
1
1
1
1
1
1
1
1
1
1
1
1
1
1
1
1
1
1
1
1
1
1
1
1.19152
2.40525
2.67537
2.67391
2.6754
2.67776
2.68
2.6817
2.68281
2.68372
2.68493
2.68681
2.68936
2.69234
2.69557
2.69872
2.70136
2.70347
2.70515
2.70656
2.70783
2.70902
2.71026
2.71188
2.71424
2.71743
2.72124
2.72516
2.72812
2.72967
2.73009
2.72986
2.72936
2.72928
2.73018
2.7329
2.73732
2.74213
2.74593
2.74766
2.74768
2.74718
2.74665
2.74678
2.74776
2.74975
2.7522
2.75464
2.75662
2.75798
2.7589
2.75969
2.76035
2.76087
2.76154
2.76264
2.76416
2.76572
2.76697
2.76774
2.76817
2.7686
2.76943
2.77075
2.77223
2.77341
2.77406
2.77435
2.77464
2.77525
2.7762
2.77723
2.77811
2.77881
2.7794
2.78001
2.78069
2.78143
2.78216
2.7829
2.78376
2.78462
2.7854
2.78606
2.78653
2.78691
2.78741
2.78823
2.78947
2.79108
2.7927
2.7938
2.79426
1
1
1
1
1
1
1
1
1
1
1
1
1
1
1
1
1
1
1
1
1
1
1
1
1
1
1
1
1
1
1
1
1
1
1
1
1
1
1
1
1
1
1
1
1
1
1
1
1
1
1
1
1
1
1
1
1
1
1
1
1
1
1
1
1
1
1
1
1
1
1
1
1
1
1
1
1
1
1
1
1
1
1
1
1
1
1
1
1
1
1
1
1
1
1
1
1
1
1
1.08082
2.34963
2.67707
2.67553
2.67599
2.67785
2.68005
2.68217
2.68373
2.68484
2.68588
2.68725