/*--------------------------------*- C++ -*----------------------------------*\
  =========                 |
  \\      /  F ield         | OpenFOAM: The Open Source CFD Toolbox
   \\    /   O peration     | Website:  https://openfoam.org
    \\  /    A nd           | Version:  7
     \\/     M anipulation  |
\*---------------------------------------------------------------------------*/
FoamFile
{
    version     2.0;
    format      ascii;
    class       volScalarField;
    location    "3.1";
    object      p;
}
// * * * * * * * * * * * * * * * * * * * * * * * * * * * * * * * * * * * * * //

dimensions      [1 -1 -2 0 0 0 0];

internalField   nonuniform List<scalar> 
258048
(
1
1
1
1
1
1
1
1
1
1
1
1
1
1
1
1
1
1
1
1
1
1
1
1
1
1
1
1
1
1
1
1
1
1
1
1
1
1
1
1
1
1
1
1
1
1
1
1
1
1
1
1
1
1
1
1
1
1
1
1
1
1
1
1
1
1
1
1
1
1
1
1
1
1
1
1
1
1
1
1
1
1
1
1
1
1
1
1
1
1
1
1
1
1
1
1
1
1
2.35232
9.0458
10.4033
10.4272
10.447
10.4619
10.4859
10.5189
10.5637
10.6135
10.6575
10.6856
10.6998
10.7137
10.7378
10.7745
10.817
10.8557
10.8845
10.902
10.9122
10.9258
10.9516
10.9882
11.0276
11.0627
11.0891
11.1066
11.1209
11.1403
11.1678
11.1996
11.2299
11.2548
11.273
11.2865
11.3009
11.3215
11.3496
11.3805
11.4082
11.4294
11.4451
11.4595
11.4768
11.4991
11.5257
11.5529
11.5759
11.5916
11.6008
11.6079
11.6182
11.6343
11.6561
11.6808
11.7043
11.7235
11.7383
11.7507
11.7635
11.7787
11.797
11.8185
11.8415
11.8623
11.877
11.8839
11.8846
11.883
11.8841
11.8931
11.9114
11.9343
11.9547
11.9685
11.9763
11.9826
11.9915
12.0017
12.0077
12.0073
12.0042
12.003
12.0083
12.0219
12.0401
12.0541
12.0582
12.0535
12.0455
12.0394
12.0377
12.0341
1
1
1
1
1
1
1
1
1
1
1
1
1
1
1
1
1
1
1
1
1
1
1
1
1
1
1
1
1
1
1
1
1
1
1
1
1
1
1
1
1
1
1
1
1
1
1
1
1
1
1
1
1
1
1
1
1
1
1
1
1
1
1
1
1
1
1
1
1
1
1
1
1
1
1
1
1
1
1
1
1
1
1
1
1
1
1
1
1
1
1
1
1
1
1
1
1
1
2.34499
9.03377
10.3948
10.4218
10.4499
10.4677
10.4908
10.5221
10.564
10.6106
10.6534
10.6834
10.7005
10.7165
10.741
10.7769
10.8181
10.8551
10.8826
10.9
10.9113
10.9264
10.9527
10.9889
11.0273
11.0611
11.0868
11.1046
11.1199
11.1403
11.168
11.1995
11.2291
11.2534
11.2716
11.2856
11.3005
11.3214
11.3493
11.3798
11.4074
11.4289
11.4453
11.4604
11.4778
11.4996
11.525
11.5507
11.5728
11.5885
11.5989
11.6074
11.6188
11.6356
11.6573
11.6813
11.7036
11.7214
11.7356
11.7488
11.7632
11.7794
11.7978
11.8179
11.839
11.8588
11.8745
11.8837
11.887
11.8869
11.8874
11.8934
11.9079
11.9294
11.9517
11.9688
11.9791
11.9852
11.9911
11.998
12.0035
12.0055
12.0051
12.0056
12.0104
12.0217
12.0374
12.0514
12.0572
12.054
12.0468
12.0401
12.0373
12.0333
1
1
1
1
1
1
1
1
1
1
1
1
1
1
1
1
1
1
1
1
1
1
1
1
1
1
1
1
1
1
1
1
1
1
1
1
1
1
1
1
1
1
1
1
1
1
1
1
1
1
1
1
1
1
1
1
1
1
1
1
1
1
1
1
1
1
1
1
1
1
1
1
1
1
1
1
1
1
1
1
1
1
1
1
1
1
1
1
1
1
1
1
1
1
1
1
1
1
2.31371
9.01545
10.3847
10.4149
10.4503
10.4718
10.4943
10.5242
10.5628
10.6062
10.6468
10.6777
10.6985
10.7176
10.7436
10.7789
10.8186
10.8535
10.8795
10.897
10.9098
10.9267
10.9538
10.9898
11.027
11.0588
11.0834
11.1013
11.1179
11.1395
11.168
11.1994
11.2283
11.2519
11.2697
11.284
11.2994
11.3206
11.3484
11.3787
11.4061
11.428
11.4451
11.4609
11.4787
11.5002
11.5246
11.5489
11.5697
11.5848
11.5956
11.6055
11.6186
11.6366
11.6588
11.6825
11.7037
11.7201
11.7327
11.7454
11.7609
11.7789
11.7983
11.8179
11.8368
11.8542
11.8693
11.8805
11.8872
11.8905
11.8917
11.8953
11.9052
11.9227
11.9453
11.9661
11.9808
11.9888
11.9922
11.9942
11.9971
12.0008
12.0043
12.0082
12.0138
12.0226
12.034
12.0459
12.0533
12.0529
12.0476
12.0407
12.0358
12.0303
1
1
1
1
1
1
1
1
1
1
1
1
1
1
1
1
1
1
1
1
1
1
1
1
1
1
1
1
1
1
1
1
1
1
1
1
1
1
1
1
1
1
1
1
1
1
1
1
1
1
1
1
1
1
1
1
1
1
1
1
1
1
1
1
1
1
1
1
1
1
1
1
1
1
1
1
1
1
1
1
1
1
1
1
1
1
1
1
1
1
1
1
1
1
1
1
1
1
2.26572
8.98382
10.3817
10.4121
10.4507
10.4732
10.4956
10.5238
10.559
10.5998
10.6401
10.6732
10.6973
10.7192
10.7456
10.7799
10.8175
10.8504
10.8754
10.8939
10.9088
10.9276
10.9554
10.9908
11.0262
11.0559
11.0791
11.0971
11.1149
11.138
11.1673
11.1988
11.2272
11.2501
11.2676
11.2818
11.2976
11.3189
11.3467
11.377
11.4044
11.4268
11.4445
11.4609
11.4788
11.4998
11.5235
11.547
11.5672
11.5819
11.5925
11.6023
11.6164
11.6357
11.6591
11.6834
11.7045
11.72
11.7312
11.7424
11.7574
11.7764
11.797
11.8168
11.8347
11.8504
11.8643
11.8767
11.8874
11.8935
11.8948
11.8964
11.9027
11.9172
11.9395
11.9638
11.9823
11.9912
11.9919
11.99
11.9906
11.9957
12.0035
12.0109
12.017
12.0232
12.0307
12.0403
12.0487
12.0514
12.0484
12.0416
12.0348
12.0279
1
1
1
1
1
1
1
1
1
1
1
1
1
1
1
1
1
1
1
1
1
1
1
1
1
1
1
1
1
1
1
1
1
1
1
1
1
1
1
1
1
1
1
1
1
1
1
1
1
1
1
1
1
1
1
1
1
1
1
1
1
1
1
1
1
1
1
1
1
1
1
1
1
1
1
1
1
1
1
1
1
1
1
1
1
1
1
1
1
1
1
1
1
1
1
1
1
1
2.20881
8.93346
10.3779
10.4114
10.4514
10.4745
10.4957
10.5218
10.5554
10.5951
10.6353
10.6697
10.6963
10.7197
10.7459
10.7787
10.8145
10.8461
10.8711
10.8908
10.9078
10.9283
10.9568
10.9917
11.0255
11.0533
11.0752
11.0929
11.1115
11.1355
11.1656
11.1974
11.2257
11.2483
11.2655
11.2795
11.2952
11.3165
11.3443
11.3748
11.4026
11.4253
11.4434
11.4598
11.4774
11.4981
11.5215
11.5452
11.5658
11.5806
11.5906
11.5991
11.6119
11.6316
11.6569
11.6831
11.7056
11.7213
11.7316
11.7406
11.7533
11.7716
11.7931
11.8144
11.833
11.8484
11.8611
11.873
11.8848
11.8927
11.8953
11.8964
11.9012
11.9144
11.9355
11.9606
11.981
11.9906
11.9898
11.9858
11.9849
11.991
12.0023
12.0126
12.0188
12.0231
12.0277
12.0347
12.0432
12.0483
12.0475
12.0413
12.0335
12.0255
1
1
1
1
1
1
1
1
1
1
1
1
1
1
1
1
1
1
1
1
1
1
1
1
1
1
1
1
1
1
1
1
1
1
1
1
1
1
1
1
1
1
1
1
1
1
1
1
1
1
1
1
1
1
1
1
1
1
1
1
1
1
1
1
1
1
1
1
1
1
1
1
1
1
1
1
1
1
1
1
1
1
1
1
1
1
1
1
1
1
1
1
1
1
1
1
1
1
2.14024
8.86561
10.3765
10.4131
10.4542
10.4768
10.4959
10.5199
10.552
10.5911
10.6311
10.6663
10.6942
10.718
10.7436
10.7755
10.8108
10.8423
10.8678
10.8887
10.9072
10.9288
10.9575
10.992
11.0246
11.0511
11.072
11.0894
11.1081
11.1325
11.1628
11.1949
11.2232
11.2459
11.263
11.2769
11.2924
11.3136
11.3413
11.372
11.4002
11.4234
11.4417
11.4577
11.4747
11.4949
11.5186
11.5432
11.5649
11.5803
11.5899
11.5968
11.6072
11.6253
11.6514
11.6804
11.7056
11.7229
11.733
11.7401
11.7497
11.7653
11.7866
11.81
11.8311
11.8476
11.86
11.8701
11.8796
11.8876
11.8923
11.895
11.9013
11.9144
11.9343
11.9569
11.9761
11.986
11.9856
11.982
11.9813
11.9879
12.0005
12.0123
12.0188
12.0221
12.025
12.0301
12.0379
12.044
12.0447
12.0396
12.032
12.0238
1
1
1
1
1
1
1
1
1
1
1
1
1
1
1
1
1
1
1
1
1
1
1
1
1
1
1
1
1
1
1
1
1
1
1
1
1
1
1
1
1
1
1
1
1
1
1
1
1
1
1
1
1
1
1
1
1
1
1
1
1
1
1
1
1
1
1
1
1
1
1
1
1
1
1
1
1
1
1
1
1
1
1
1
1
1
1
1
1
1
1
1
1
1
1
1
1
1
2.06058
8.7811
10.3794
10.4163
10.457
10.4777
10.4946
10.5174
10.5492
10.5882
10.6283
10.6635
10.6915
10.7152
10.7404
10.7721
10.8071
10.8387
10.8645
10.886
10.9056
10.928
10.9571
10.9915
11.0237
11.0496
11.07
11.0873
11.1059
11.1301
11.1601
11.1916
11.2197
11.2426
11.2599
11.274
11.2896
11.3106
11.3381
11.3687
11.3971
11.4207
11.439
11.4548
11.4713
11.4912
11.5152
11.5406
11.5636
11.58
11.5898
11.596
11.6045
11.6199
11.6447
11.6748
11.7029
11.7228
11.734
11.7404
11.7474
11.7598
11.7793
11.8036
11.8276
11.8468
11.8598
11.8681
11.8743
11.8803
11.8862
11.8927
11.9023
11.9168
11.9353
11.9541
11.9693
11.9778
11.9792
11.9781
11.9793
11.9862
11.9981
12.0097
12.0166
12.0199
12.0223
12.0261
12.0325
12.0384
12.04
12.0365
12.0303
12.0228
1
1
1
1
1
1
1
1
1
1
1
1
1
1
1
1
1
1
1
1
1
1
1
1
1
1
1
1
1
1
1
1
1
1
1
1
1
1
1
1
1
1
1
1
1
1
1
1
1
1
1
1
1
1
1
1
1
1
1
1
1
1
1
1
1
1
1
1
1
1
1
1
1
1
1
1
1
1
1
1
1
1
1
1
1
1
1
1
1
1
1
1
1
1
1
1
1
1
1.97287
8.67981
10.3858
10.4181
10.457
10.4762
10.4924
10.5155
10.5477
10.5867
10.6264
10.6607
10.6881
10.7113
10.7363
10.7681
10.8034
10.8353
10.8613
10.8832
10.9035
10.9263
10.9558
10.9904
11.0226
11.0484
11.0686
11.0858
11.1043
11.128
11.1572
11.1878
11.2152
11.238
11.2558
11.2705
11.2867
11.3078
11.3349
11.3651
11.3933
11.417
11.4357
11.4517
11.4684
11.4881
11.5118
11.5368
11.5602
11.5776
11.5885
11.5953
11.6035
11.6174
11.6396
11.6677
11.6964
11.7189
11.7327
11.7402
11.7467
11.757
11.7736
11.7966
11.8218
11.8436
11.8583
11.866
11.8696
11.8729
11.8787
11.8887
11.9024
11.9191
11.9364
11.9511
11.9615
11.9681
11.9717
11.9742
11.9783
11.9857
11.996
12.006
12.0128
12.0166
12.0192
12.0223
12.0272
12.032
12.0339
12.0321
12.0282
12.0221
1
1
1
1
1
1
1
1
1
1
1
1
1
1
1
1
1
1
1
1
1
1
1
1
1
1
1
1
1
1
1
1
1
1
1
1
1
1
1
1
1
1
1
1
1
1
1
1
1
1
1
1
1
1
1
1
1
1
1
1
1
1
1
1
1
1
1
1
1
1
1
1
1
1
1
1
1
1
1
1
1
1
1
1
1
1
1
1
1
1
1
1
1
1
1
1
1
1
1.88102
8.56212
10.3897
10.4172
10.4531
10.4722
10.4904
10.5151
10.5479
10.5864
10.6247
10.6575
10.684
10.707
10.7326
10.765
10.8006
10.8325
10.8583
10.88
10.9003
10.9233
10.9532
10.988
11.0204
11.0465
11.0671
11.0846
11.1033
11.1267
11.1549
11.1842
11.2105
11.2327
11.2508
11.2661
11.2829
11.3042
11.3309
11.3606
11.3884
11.4122
11.4317
11.4489
11.4666
11.4866
11.5097
11.5332
11.5555
11.5729
11.5856
11.5946
11.6043
11.6178
11.6375
11.6616
11.6873
11.7103
11.7273
11.7384
11.7469
11.7568
11.7711
11.7909
11.8145
11.837
11.8536
11.8624
11.8656
11.8675
11.8726
11.8839
11.9006
11.9193
11.9358
11.9472
11.9538
11.9584
11.9637
11.97
11.977
11.9848
11.9934
12.0014
12.0077
12.0122
12.0152
12.0179
12.0216
12.0251
12.0273
12.027
12.0254
12.0208
1
1
1
1
1
1
1
1
1
1
1
1
1
1
1
1
1
1
1
1
1
1
1
1
1
1
1
1
1
1
1
1
1
1
1
1
1
1
1
1
1
1
1
1
1
1
1
1
1
1
1
1
1
1
1
1
1
1
1
1
1
1
1
1
1
1
1
1
1
1
1
1
1
1
1
1
1
1
1
1
1
1
1
1
1
1
1
1
1
1
1
1
1
1
1
1
1
1
1.78546
8.42543
10.3884
10.4143
10.4474
10.468
10.4897
10.5161
10.5487
10.5857
10.6222
10.6536
10.6796
10.7032
10.7301
10.7631
10.7985
10.8299
10.8551
10.8762
10.8963
10.9193
10.9491
10.9837
11.0163
11.0431
11.0645
11.0828
11.102
11.1253
11.1528
11.1812
11.2067
11.2284
11.2466
11.2624
11.2798
11.3013
11.3276
11.3565
11.3834
11.4068
11.4267
11.4451
11.4641
11.4846
11.507
11.5285
11.5484
11.5649
11.5793
11.5919
11.6048
11.6193
11.6374
11.6576
11.6787
11.6992
11.718
11.734
11.7469
11.7584
11.7714
11.7875
11.8071
11.8278
11.8454
11.8566
11.8617
11.8642
11.869
11.8796
11.8965
11.9157
11.9319
11.9418
11.9467
11.9506
11.9566
11.9653
11.9744
11.9827
11.9901
11.9968
12.0024
12.0068
12.0099
12.0125
12.0154
12.0183
12.0208
12.0218
12.0217
12.0184
1
1
1
1
1
1
1
1
1
1
1
1
1
1
1
1
1
1
1
1
1
1
1
1
1
1
1
1
1
1
1
1
1
1
1
1
1
1
1
1
1
1
1
1
1
1
1
1
1
1
1
1
1
1
1
1
1
1
1
1
1
1
1
1
1
1
1
1
1
1
1
1
1
1
1
1
1
1
1
1
1
1
1
1
1
1
1
1
1
1
1
1
1
1
1
1
1
1
1.68597
8.26373
10.3859
10.4078
10.4417
10.4645
10.4891
10.5165
10.5483
10.5837
10.6187
10.6493
10.6756
10.7005
10.7288
10.7622
10.7971
10.8278
10.8524
10.873
10.8929
10.9157
10.9452
10.9791
11.0115
11.0385
11.0603
11.0793
11.099
11.1221
11.1491
11.1771
11.2022
11.2235
11.2412
11.2566
11.2738
11.2953
11.3216
11.3507
11.3777
11.4014
11.422
11.4412
11.4616
11.4828
11.5048
11.5248
11.5425
11.5573
11.5719
11.5869
11.6034
11.6203
11.638
11.6555
11.6724
11.689
11.7068
11.7259
11.7441
11.7592
11.7725
11.7859
11.8009
11.8178
11.8346
11.8483
11.857
11.862
11.8671
11.8763
11.8912
11.9091
11.9248
11.9351
11.9406
11.9447
11.951
11.9601
11.97
11.9787
11.986
11.9922
11.9971
12.0007
12.0033
12.0057
12.0085
12.0117
12.0147
12.0165
12.0171
12.0147
1
1
1
1
1
1
1
1
1
1
1
1
1
1
1
1
1
1
1
1
1
1
1
1
1
1
1
1
1
1
1
1
1
1
1
1
1
1
1
1
1
1
1
1
1
1
1
1
1
1
1
1
1
1
1
1
1
1
1
1
1
1
1
1
1
1
1
1
1
1
1
1
1
1
1
1
1
1
1
1
1
1
1
1
1
1
1
1
1
1
1
1
1
1
1
1
1
1
1.58427
8.07572
10.3883
10.3989
10.4376
10.4611
10.4866
10.5139
10.5452
10.5799
10.6145
10.6456
10.6728
10.699
10.7278
10.7606
10.7945
10.8246
10.8489
10.8693
10.8889
10.9114
10.9401
10.9733
11.0056
11.0332
11.0557
11.0753
11.0953
11.1185
11.1453
11.1734
11.1988
11.22
11.2372
11.2517
11.2681
11.289
11.3153
11.3451
11.373
11.3974
11.4182
11.4372
11.4578
11.4792
11.5015
11.5213
11.5381
11.5517
11.565
11.5795
11.5976
11.6172
11.6363
11.6532
11.668
11.6818
11.6973
11.7163
11.7375
11.7569
11.7725
11.7849
11.7965
11.8092
11.8236
11.8384
11.8507
11.8592
11.8657
11.8734
11.885
11.9002
11.9154
11.9273
11.935
11.9404
11.9464
11.9543
11.9637
11.9729
11.9809
11.9873
11.9917
11.9941
11.9957
11.9979
12.001
12.0051
12.0089
12.011
12.0114
12.0099
1
1
1
1
1
1
1
1
1
1
1
1
1
1
1
1
1
1
1
1
1
1
1
1
1
1
1
1
1
1
1
1
1
1
1
1
1
1
1
1
1
1
1
1
1
1
1
1
1
1
1
1
1
1
1
1
1
1
1
1
1
1
1
1
1
1
1
1
1
1
1
1
1
1
1
1
1
1
1
1
1
1
1
1
1
1
1
1
1
1
1
1
1
1
1
1
1
1
1.47976
7.86164
10.3901
10.3937
10.4348
10.4589
10.4839
10.5104
10.5409
10.5753
10.6106
10.6429
10.6712
10.6982
10.727
10.7589
10.7919
10.8216
10.8457
10.8658
10.885
10.9068
10.9346
10.9672
10.9997
11.028
11.0513
11.0713
11.0913
11.1142
11.1411
11.1697
11.1957
11.2172
11.234
11.2474
11.2622
11.2821
11.3082
11.3392
11.3686
11.394
11.4148
11.4325
11.4516
11.4725
11.4954
11.5167
11.535
11.549
11.5612
11.5737
11.5897
11.6094
11.6302
11.6491
11.6649
11.678
11.6911
11.7074
11.7279
11.7498
11.7689
11.7829
11.7932
11.8028
11.8141
11.8279
11.8424
11.8543
11.8628
11.8698
11.8785
11.8907
11.9051
11.9188
11.9292
11.9363
11.9418
11.9482
11.9565
11.966
11.9749
11.9817
11.9858
11.9872
11.9878
11.9899
11.9933
11.998
12.0024
12.0048
12.0048
12.0048
1
1
1
1
1
1
1
1
1
1
1
1
1
1
1
1
1
1
1
1
1
1
1
1
1
1
1
1
1
1
1
1
1
1
1
1
1
1
1
1
1
1
1
1
1
1
1
1
1
1
1
1
1
1
1
1
1
1
1
1
1
1
1
1
1
1
1
1
1
1
1
1
1
1
1
1
1
1
1
1
1
1
1
1
1
1
1
1
1
1
1
1
1
1
1
1
1
1
1.37323
7.61776
10.3858
10.3953
10.4306
10.4561
10.4806
10.506
10.5357
10.5702
10.6064
10.6399
10.6693
10.6966
10.725
10.7564
10.7889
10.8184
10.8426
10.8626
10.881
10.9018
10.9284
10.9604
10.9932
11.0226
11.0469
11.0674
11.0871
11.1092
11.1356
11.1643
11.1911
11.2133
11.2302
11.2427
11.2561
11.2746
11.3003
11.3323
11.3638
11.391
11.4126
11.4292
11.4459
11.4645
11.4866
11.5094
11.5304
11.5467
11.5589
11.5691
11.5811
11.5983
11.6197
11.642
11.661
11.6753
11.6872
11.7004
11.7179
11.7395
11.7611
11.7784
11.79
11.7984
11.8071
11.8187
11.833
11.847
11.8576
11.8649
11.8722
11.8824
11.8957
11.9102
11.9225
11.931
11.9364
11.9416
11.9489
11.9585
11.9678
11.9749
11.9788
11.9798
11.9801
11.9821
11.9855
11.99
11.9943
11.9965
11.9974
12
1
1
1
1
1
1
1
1
1
1
1
1
1
1
1
1
1
1
1
1
1
1
1
1
1
1
1
1
1
1
1
1
1
1
1
1
1
1
1
1
1
1
1
1
1
1
1
1
1
1
1
1
1
1
1
1
1
1
1
1
1
1
1
1
1
1
1
1
1
1
1
1
1
1
1
1
1
1
1
1
1
1
1
1
1
1
1
1
1
1
1
1
1
1
1
1
1
1
1.26666
7.3481
10.3794
10.4012
10.4271
10.4521
10.4758
10.5007
10.53
10.5644
10.6011
10.6357
10.6659
10.6934
10.7215
10.7524
10.7849
10.8146
10.8391
10.8587
10.8764
10.896
10.9217
10.9531
10.9863
11.0168
11.0424
11.0638
11.0836
11.1054
11.131
11.1593
11.1858
11.2083
11.2256
11.238
11.2506
11.2681
11.2924
11.324
11.3566
11.3856
11.4086
11.4253
11.4401
11.4559
11.4763
11.4998
11.5236
11.5429
11.5562
11.5652
11.574
11.5877
11.6078
11.6323
11.6554
11.673
11.6855
11.6966
11.7103
11.7286
11.7498
11.7696
11.7842
11.7937
11.8012
11.8103
11.8225
11.8364
11.8487
11.8578
11.8657
11.8754
11.8879
11.9019
11.9145
11.9235
11.9292
11.9343
11.9415
11.9509
11.9599
11.9665
11.9704
11.9719
11.9732
11.9753
11.9776
11.9806
11.9841
11.9868
11.9897
11.9954
1
1
1
1
1
1
1
1
1
1
1
1
1
1
1
1
1
1
1
1
1
1
1
1
1
1
1
1
1
1
1
1
1
1
1
1
1
1
1
1
1
1
1
1
1
1
1
1
1
1
1
1
1
1
1
1
1
1
1
1
1
1
1
1
1
1
1
1
1
1
1
1
1
1
1
1
1
1
1
1
1
1
1
1
1
1
1
1
1
1
1
1
1
1
1
1
1
1
1.1557
7.07406
10.3757
10.4036
10.4266
10.4517
10.474
10.4977
10.526
10.5597
10.5965
10.6316
10.6624
10.69
10.7179
10.7485
10.7806
10.8103
10.8344
10.8532
10.8698
10.8883
10.9131
10.9443
10.9777
11.009
11.0357
11.0581
11.0787
11.1006
11.1259
11.1535
11.1796
11.2022
11.2202
11.2333
11.2461
11.2632
11.2862
11.3162
11.3485
11.3784
11.4029
11.4208
11.4353
11.4495
11.4678
11.4901
11.5144
11.5363
11.5519
11.5621
11.5699
11.5808
11.5973
11.6199
11.6444
11.6657
11.681
11.6925
11.704
11.7189
11.738
11.7586
11.7762
11.7882
11.796
11.8033
11.8128
11.825
11.8378
11.8492
11.8592
11.8698
11.8816
11.894
11.9051
11.9137
11.9201
11.9265
11.9345
11.9433
11.9511
11.9567
11.9607
11.9637
11.9669
11.9692
11.9694
11.9697
11.9716
11.9759
11.9821
11.991
1
1
1
1
1
1
1
1
1
1
1
1
1
1
1
1
1
1
1
1
1
1
1
1
1
1
1
1
1
1
1
1
1
1
1
1
1
1
1
1
1
1
1
1
1
1
1
1
1
1
1
1
1
1
1
1
1
1
1
1
1
1
1
1
1
1
1
1
1
1
1
1
1
1
1
1
1
1
1
1
1
1
1
1
1
1
1
1
1
1
1
1
1
1
1
1
1
1
1.03821
6.7863
10.35
10.392
10.4161
10.4427
10.4652
10.4896
10.5188
10.5535
10.5911
10.6267
10.6576
10.6852
10.7127
10.7429
10.7751
10.8052
10.8299
10.8488
10.8652
10.8835
10.9081
10.9391
10.9726
11.004
11.0308
11.0536
11.0744
11.0964
11.1214
11.1485
11.1735
11.1954
11.2139
11.2281
11.2421
11.2598
11.2822
11.3095
11.3389
11.3669
11.3919
11.4121
11.4291
11.4443
11.4612
11.4806
11.502
11.5241
11.5425
11.5564
11.5664
11.5768
11.5903
11.6093
11.632
11.6551
11.6739
11.6878
11.6993
11.712
11.728
11.747
11.7659
11.7806
11.7899
11.7964
11.8035
11.813
11.8252
11.8387
11.852
11.8645
11.876
11.8861
11.8947
11.9021
11.9095
11.9179
11.9271
11.9354
11.9416
11.946
11.9502
11.9551
11.9608
11.9631
11.9606
11.9578
11.958
11.9639
11.9741
11.9862
1
1
1
1
1
1
1
1
1
1
1
1
1
1
1
1
1
1
1
1
1
1
1
1
1
1
1
1
1
1
1
1
1
1
1
1
1
1
1
1
1
1
1
1
1
1
1
1
1
1
1
1
1
1
1
1
1
1
1
1
1
1
1
1
1
1
1
1
1
1
1
1
1
1
1
1
1
1
1
1
1
1
1
1
1
1
1
1
1
1
1
1
1
1
1
1
1
1
1.0011
6.42394
10.3184
10.381
10.4063
10.4355
10.4589
10.4835
10.513
10.548
10.5856
10.6213
10.6524
10.6801
10.7076
10.7375
10.7694
10.7996
10.8243
10.8433
10.8595
10.8779
10.9023
10.933
10.9661
10.9969
11.0232
11.0458
11.0669
11.0892
11.1145
11.1414
11.1658
11.1865
11.205
11.2207
11.237
11.2567
11.2796
11.3052
11.331
11.3554
11.3789
11.4009
11.4218
11.4401
11.4572
11.4742
11.4916
11.5112
11.5304
11.5483
11.5628
11.575
11.5869
11.6014
11.6193
11.6407
11.6619
11.6799
11.6939
11.7063
11.7197
11.7359
11.7538
11.7701
11.7816
11.7885
11.7942
11.8015
11.8126
11.8276
11.844
11.8588
11.8701
11.8779
11.8837
11.8897
11.8979
11.9084
11.9188
11.9265
11.9312
11.9345
11.9394
11.9465
11.954
11.9558
11.9509
11.9451
11.9441
11.9517
11.9655
11.9799
1
1
1
1
1
1
1
1
1
1
1
1
1
1
1
1
1
1
1
1
1
1
1
1
1
1
1
1
1
1
1
1
1
1
1
1
1
1
1
1
1
1
1
1
1
1
1
1
1
1
1
1
1
1
1
1
1
1
1
1
1
1
1
1
1
1
1
1
1
1
1
1
1
1
1
1
1
1
1
1
1
1
1
1
1
1
1
1
1
1
1
1
1
1
1
1
1
1
1.00001
6.00964
10.2789
10.3681
10.3932
10.4252
10.4504
10.4762
10.5067
10.5421
10.5796
10.6151
10.6462
10.6739
10.7013
10.7308
10.7625
10.7927
10.8177
10.8371
10.8537
10.8725
10.8972
10.9278
10.9609
10.9916
11.0175
11.0398
11.0608
11.0829
11.1079
11.1346
11.1585
11.1778
11.1955
11.2118
11.2301
11.2525
11.277
11.3018
11.3245
11.3444
11.3644
11.386
11.4103
11.4334
11.453
11.4691
11.4827
11.4979
11.5152
11.5357
11.5556
11.5721
11.5845
11.596
11.6087
11.6261
11.6469
11.6681
11.6862
11.7006
11.7132
11.7266
11.7421
11.758
11.7707
11.7787
11.7843
11.7907
11.8011
11.8166
11.835
11.8514
11.8625
11.8685
11.8721
11.8771
11.886
11.898
11.9089
11.9161
11.9199
11.923
11.9287
11.938
11.9459
11.9464
11.9399
11.9323
11.9312
11.9401
11.9561
11.9711
1
1
1
1
1
1
1
1
1
1
1
1
1
1
1
1
1
1
1
1
1
1
1
1
1
1
1
1
1
1
1
1
1
1
1
1
1
1
1
1
1
1
1
1
1
1
1
1
1
1
1
1
1
1
1
1
1
1
1
1
1
1
1
1
1
1
1
1
1
1
1
1
1
1
1
1
1
1
1
1
1
1
1
1
1
1
1
1
1
1
1
1
1
1
1
1
1
1
1
5.57402
10.231
10.356
10.3812
10.4157
10.4423
10.4695
10.5008
10.5367
10.574
10.6088
10.6394
10.6671
10.6943
10.7236
10.7551
10.7854
10.8108
10.8306
10.8476
10.8665
10.891
10.9212
10.9544
10.9856
11.0117
11.034
11.0547
11.0764
11.101
11.1273
11.1508
11.1692
11.1856
11.2015
11.221
11.246
11.2727
11.298
11.3192
11.3359
11.3523
11.3719
11.3969
11.4235
11.4466
11.4638
11.4758
11.4876
11.5019
11.5222
11.5451
11.5663
11.5812
11.5917
11.6008
11.6134
11.6314
11.6534
11.6751
11.693
11.7068
11.7188
11.7316
11.7453
11.7576
11.7665
11.773
11.7801
11.7908
11.8067
11.8255
11.8423
11.8529
11.8576
11.8603
11.865
11.8744
11.8868
11.8973
11.904
11.9079
11.9116
11.9187
11.9289
11.9355
11.9345
11.9277
11.92
11.9197
11.9294
11.9456
11.959
1
1
1
1
1
1
1
1
1
1
1
1
1
1
1
1
1
1
1
1
1
1
1
1
1
1
1
1
1
1
1
1
1
1
1
1
1
1
1
1
1
1
1
1
1
1
1
1
1
1
1
1
1
1
1
1
1
1
1
1
1
1
1
1
1
1
1
1
1
1
1
1
1
1
1
1
1
1
1
1
1
1
1
1
1
1
1
1
1
1
1
1
1
1
1
1
1
1
1
5.12334
10.1625
10.3452
10.3711
10.407
10.4349
10.4632
10.4949
10.531
10.5682
10.6024
10.6324
10.6598
10.6866
10.7157
10.7471
10.7779
10.804
10.8245
10.8418
10.8603
10.8838
10.9132
10.9463
10.9782
11.0053
11.0281
11.0489
11.0702
11.094
11.1198
11.1431
11.1613
11.1767
11.1915
11.2105
11.2362
11.2648
11.2918
11.3136
11.3295
11.3439
11.3608
11.3833
11.4103
11.4359
11.4559
11.4692
11.48
11.4918
11.5096
11.532
11.556
11.5747
11.5868
11.5945
11.6034
11.6173
11.6375
11.6609
11.6826
11.6993
11.7117
11.7223
11.733
11.7432
11.7521
11.7601
11.7694
11.7818
11.798
11.8158
11.8312
11.8406
11.8449
11.8481
11.8534
11.8631
11.8747
11.8841
11.8903
11.8951
11.9005
11.9092
11.9186
11.9226
11.9203
11.9143
11.9086
11.9101
11.9196
11.9338
11.9435
1
1
1
1
1
1
1
1
1
1
1
1
1
1
1
1
1
1
1
1
1
1
1
1
1
1
1
1
1
1
1
1
1
1
1
1
1
1
1
1
1
1
1
1
1
1
1
1
1
1
1
1
1
1
1
1
1
1
1
1
1
1
1
1
1
1
1
1
1
1
1
1
1
1
1
1
1
1
1
1
1
1
1
1
1
1
1
1
1
1
1
1
1
1
1
1
1
1
1
4.65991
10.0679
10.338
10.3659
10.4021
10.43
10.4584
10.4899
10.5258
10.563
10.5965
10.6257
10.6524
10.6789
10.7077
10.7392
10.7705
10.7976
10.819
10.8367
10.8546
10.8768
10.9047
10.9372
10.9696
10.9979
11.0215
11.0429
11.064
11.0869
11.1119
11.1353
11.1543
11.1699
11.1838
11.2007
11.2243
11.2522
11.2811
11.306
11.3241
11.3391
11.3541
11.3721
11.3957
11.4208
11.4437
11.4609
11.4738
11.4849
11.4997
11.5188
11.5422
11.5636
11.5792
11.5883
11.5955
11.6055
11.6221
11.6448
11.6692
11.6897
11.7042
11.7137
11.7212
11.7283
11.7362
11.7459
11.7582
11.7732
11.7899
11.8058
11.8185
11.8262
11.8307
11.8354
11.8423
11.852
11.8618
11.8695
11.8756
11.8818
11.8895
11.8994
11.9066
11.9073
11.9042
11.9002
11.8983
11.9019
11.9103
11.9205
11.9249
1
1
1
1
1
1
1
1
1
1
1
1
1
1
1
1
1
1
1
1
1
1
1
1
1
1
1
1
1
1
1
1
1
1
1
1
1
1
1
1
1
1
1
1
1
1
1
1
1
1
1
1
1
1
1
1
1
1
1
1
1
1
1
1
1
1
1
1
1
1
1
1
1
1
1
1
1
1
1
1
1
1
1
1
1
1
1
1
1
1
1
1
1
1
1
1
1
1
1
4.18426
9.94625
10.3328
10.3648
10.4014
10.4285
10.4555
10.486
10.5207
10.5575
10.591
10.6197
10.6457
10.6715
10.6996
10.7308
10.7624
10.7904
10.813
10.8315
10.8494
10.8703
10.8968
10.9282
10.9604
10.9894
11.0139
11.0359
11.0569
11.0788
11.1028
11.1268
11.1475
11.165
11.1793
11.1937
11.2126
11.2365
11.265
11.294
11.3176
11.336
11.3511
11.3651
11.3826
11.4036
11.4274
11.4492
11.4667
11.4796
11.4925
11.5075
11.5271
11.5487
11.5675
11.58
11.5878
11.5956
11.6085
11.6287
11.6538
11.6775
11.6949
11.7046
11.7095
11.7135
11.72
11.7309
11.7464
11.7644
11.7814
11.7949
11.8043
11.8103
11.8154
11.8222
11.831
11.8404
11.8481
11.854
11.8602
11.8685
11.8783
11.8879
11.8924
11.8905
11.887
11.8857
11.8885
11.8945
11.9009
11.9056
11.9044
1
1
1
1
1
1
1
1
1
1
1
1
1
1
1
1
1
1
1
1
1
1
1
1
1
1
1
1
1
1
1
1
1
1
1
1
1
1
1
1
1
1
1
1
1
1
1
1
1
1
1
1
1
1
1
1
1
1
1
1
1
1
1
1
1
1
1
1
1
1
1
1
1
1
1
1
1
1
1
1
1
1
1
1
1
1
1
1
1
1
1
1
1
1
1
1
1
1
1
3.7005
9.79307
10.3337
10.3674
10.4017
10.4288
10.4544
10.4824
10.5155
10.5516
10.5856
10.6146
10.6402
10.665
10.6918
10.7219
10.7532
10.7819
10.8058
10.8253
10.8437
10.8644
10.8897
10.9197
10.9513
10.9806
11.0057
11.0279
11.0486
11.0692
11.0918
11.1163
11.1397
11.1604
11.1767
11.1893
11.2031
11.2213
11.2461
11.2772
11.3071
11.3318
11.3493
11.3613
11.373
11.3879
11.4093
11.4336
11.4563
11.4733
11.4865
11.4986
11.5136
11.5325
11.5524
11.5682
11.5784
11.586
11.5966
11.614
11.6379
11.6632
11.6829
11.6937
11.6974
11.6991
11.7043
11.7161
11.7341
11.7543
11.7714
11.7826
11.7891
11.7938
11.7999
11.8086
11.8188
11.8275
11.8334
11.838
11.8447
11.8551
11.8665
11.8746
11.8761
11.8723
11.8693
11.8712
11.8785
11.8865
11.8906
11.8894
11.8835
1
1
1
1
1
1
1
1
1
1
1
1
1
1
1
1
1
1
1
1
1
1
1
1
1
1
1
1
1
1
1
1
1
1
1
1
1
1
1
1
1
1
1
1
1
1
1
1
1
1
1
1
1
1
1
1
1
1
1
1
1
1
1
1
1
1
1
1
1
1
1
1
1
1
1
1
1
1
1
1
1
1
1
1
1
1
1
1
1
1
1
1
1
1
1
1
1
1
1
3.22397
9.60035
10.3382
10.3716
10.402
10.4266
10.451
10.4782
10.5102
10.5457
10.5802
10.6099
10.6354
10.6595
10.6848
10.7129
10.7428
10.7717
10.7969
10.818
10.8372
10.8583
10.8829
10.9115
10.9424
10.9718
10.9975
11.0199
11.0403
11.0592
11.0797
11.1036
11.1291
11.1535
11.173
11.1861
11.1966
11.2092
11.2288
11.2581
11.2916
11.3229
11.3454
11.3584
11.3668
11.376
11.3928
11.416
11.4418
11.4635
11.4792
11.4909
11.5026
11.5177
11.5358
11.5531
11.566
11.5753
11.5855
11.6009
11.6228
11.6475
11.6683
11.6803
11.6843
11.6854
11.6899
11.702
11.7211
11.7421
11.7589
11.7686
11.7733
11.7776
11.7847
11.7948
11.8049
11.8126
11.8175
11.8218
11.8294
11.8415
11.8533
11.8593
11.8581
11.8532
11.8517
11.8572
11.8676
11.8765
11.8783
11.872
11.8634
1
1
1
1
1
1
1
1
1
1
1
1
1
1
1
1
1
1
1
1
1
1
1
1
1
1
1
1
1
1
1
1
1
1
1
1
1
1
1
1
1
1
1
1
1
1
1
1
1
1
1
1
1
1
1
1
1
1
1
1
1
1
1
1
1
1
1
1
1
1
1
1
1
1
1
1
1
1
1
1
1
1
1
1
1
1
1
1
1
1
1
1
1
1
1
1
1
1
1
2.77567
9.3492
10.3432
10.3733
10.4038
10.4267
10.4489
10.474
10.504
10.5382
10.5729
10.604
10.6303
10.6544
10.679
10.7057
10.734
10.7618
10.7867
10.8086
10.829
10.8505
10.8748
10.9027
10.933
10.9628
10.9894
11.0125
11.0328
11.0506
11.0686
11.0901
11.1151
11.142
11.1659
11.1816
11.1919
11.2018
11.2166
11.2411
11.2732
11.3075
11.3358
11.3532
11.362
11.3681
11.3798
11.399
11.4242
11.4491
11.4689
11.483
11.4937
11.5054
11.52
11.5362
11.5508
11.5627
11.5742
11.589
11.6087
11.6312
11.6514
11.6646
11.67
11.6721
11.677
11.6888
11.7071
11.7273
11.7435
11.7528
11.7575
11.7623
11.7703
11.7803
11.7889
11.7955
11.8004
11.8056
11.8147
11.8274
11.8381
11.8418
11.8389
11.834
11.8347
11.8433
11.8554
11.8639
11.8632
11.8536
11.8447
1
1
1
1
1
1
1
1
1
1
1
1
1
1
1
1
1
1
1
1
1
1
1
1
1
1
1
1
1
1
1
1
1
1
1
1
1
1
1
1
1
1
1
1
1
1
1
1
1
1
1
1
1
1
1
1
1
1
1
1
1
1
1
1
1
1
1
1
1
1
1
1
1
1
1
1
1
1
1
1
1
1
1
1
1
1
1
1
1
1
1
1
1
1
1
1
1
1
1
2.36408
9.03373
10.356
10.3766
10.4044
10.4244
10.4455
10.4689
10.4971
10.5298
10.5639
10.5961
10.6241
10.6494
10.6744
10.7003
10.727
10.753
10.7768
10.7986
10.8196
10.8415
10.8662
10.8934
10.9226
10.9521
10.9795
11.004
11.0254
11.0438
11.0607
11.0794
11.101
11.1261
11.1528
11.1728
11.1865
11.1972
11.2097
11.229
11.2559
11.2884
11.3199
11.3434
11.3566
11.3627
11.3703
11.3841
11.4054
11.4308
11.4546
11.4731
11.4857
11.4955
11.506
11.5192
11.5335
11.5477
11.5617
11.5773
11.5953
11.6149
11.6333
11.647
11.6548
11.6593
11.6651
11.6759
11.6919
11.71
11.7254
11.7355
11.7418
11.7482
11.7565
11.7648
11.7708
11.7762
11.7822
11.7894
11.8003
11.8127
11.8208
11.8221
11.8187
11.8153
11.8185
11.8292
11.8414
11.8483
11.8453
11.8345
11.8278
1
1
1
1
1
1
1
1
1
1
1
1
1
1
1
1
1
1
1
1
1
1
1
1
1
1
1
1
1
1
1
1
1
1
1
1
1
1
1
1
1
1
1
1
1
1
1
1
1
1
1
1
1
1
1
1
1
1
1
1
1
1
1
1
1
1
1
1
1
1
1
1
1
1
1
1
1
1
1
1
1
1
1
1
1
1
1
1
1
1
1
1
1
1
1
1
1
1
1
1.99013
8.64752
10.3697
10.3778
10.4048
10.4223
10.4418
10.4635
10.49
10.5203
10.5529
10.5849
10.6144
10.6418
10.6684
10.6949
10.7207
10.7452
10.7681
10.7891
10.8103
10.8327
10.8573
10.8838
10.9112
10.9391
10.9666
10.9929
11.0171
11.0381
11.0559
11.0722
11.0895
11.1089
11.134
11.1584
11.178
11.1932
11.2062
11.2219
11.2427
11.2697
11.3003
11.3283
11.3477
11.357
11.3628
11.3713
11.3873
11.4105
11.4369
11.4606
11.477
11.4868
11.4939
11.503
11.5155
11.531
11.5476
11.5646
11.5818
11.5987
11.6148
11.6287
11.6391
11.6464
11.6534
11.6625
11.6752
11.6903
11.7052
11.7173
11.7266
11.735
11.7424
11.7477
11.751
11.7554
11.7632
11.7733
11.7857
11.7965
11.8014
11.8007
11.798
11.7974
11.8033
11.8142
11.8247
11.8296
11.8251
11.8153
11.8119
1
1
1
1
1
1
1
1
1
1
1
1
1
1
1
1
1
1
1
1
1
1
1
1
1
1
1
1
1
1
1
1
1
1
1
1
1
1
1
1
1
1
1
1
1
1
1
1
1
1
1
1
1
1
1
1
1
1
1
1
1
1
1
1
1
1
1
1
1
1
1
1
1
1
1
1
1
1
1
1
1
1
1
1
1
1
1
1
1
1
1
1
1
1
1
1
1
1
1
1.66362
8.21026
10.391
10.3739
10.398
10.4149
10.4356
10.458
10.4841
10.513
10.5434
10.5735
10.6027
10.6313
10.6597
10.6876
10.7139
10.7377
10.7595
10.7802
10.8014
10.8242
10.849
10.8751
10.9008
10.9261
10.9519
10.9783
11.0051
11.0307
11.0512
11.0671
11.0807
11.0948
11.1142
11.1392
11.1648
11.1868
11.2032
11.2176
11.2334
11.254
11.2809
11.31
11.3346
11.3489
11.3553
11.3604
11.3711
11.3905
11.4172
11.4451
11.4661
11.4777
11.4828
11.4882
11.4979
11.5131
11.5316
11.5504
11.5675
11.5826
11.5968
11.6105
11.623
11.633
11.6406
11.6477
11.6568
11.6692
11.6841
11.6991
11.7118
11.7218
11.7274
11.7289
11.7298
11.7339
11.7438
11.7569
11.77
11.7783
11.7802
11.7786
11.7772
11.7802
11.7884
11.7978
11.8053
11.8078
11.8033
11.7962
11.7964
1
1
1
1
1
1
1
1
1
1
1
1
1
1
1
1
1
1
1
1
1
1
1
1
1
1
1
1
1
1
1
1
1
1
1
1
1
1
1
1
1
1
1
1
1
1
1
1
1
1
1
1
1
1
1
1
1
1
1
1
1
1
1
1
1
1
1
1
1
1
1
1
1
1
1
1
1
1
1
1
1
1
1
1
1
1
1
1
1
1
1
1
1
1
1
1
1
1
1
1.38649
7.69892
10.3835
10.366
10.3836
10.4006
10.4222
10.4468
10.4739
10.5033
10.5338
10.564
10.5928
10.6211
10.6501
10.6789
10.7055
10.7294
10.7503
10.77
10.791
10.8145
10.8403
10.8669
10.8924
10.9161
10.9392
10.9631
10.9889
11.0176
11.0429
11.0609
11.0736
11.0846
11.0988
11.12
11.1469
11.1747
11.1967
11.2127
11.2263
11.2418
11.2642
11.2914
11.3185
11.3373
11.346
11.3502
11.357
11.3723
11.3974
11.4276
11.4526
11.4669
11.4717
11.4744
11.4813
11.4949
11.514
11.5342
11.5521
11.5666
11.5795
11.593
11.6065
11.6182
11.6259
11.631
11.6371
11.6475
11.6631
11.6812
11.6968
11.7071
11.7104
11.7085
11.7077
11.7125
11.7246
11.7397
11.7521
11.7578
11.7575
11.756
11.757
11.7639
11.7729
11.7793
11.7833
11.7834
11.7804
11.777
11.7808
1
1
1
1
1
1
1
1
1
1
1
1
1
1
1
1
1
1
1
1
1
1
1
1
1
1
1
1
1
1
1
1
1
1
1
1
1
1
1
1
1
1
1
1
1
1
1
1
1
1
1
1
1
1
1
1
1
1
1
1
1
1
1
1
1
1
1
1
1
1
1
1
1
1
1
1
1
1
1
1
1
1
1
1
1
1
1
1
1
1
1
1
1
1
1
1
1
1
1
1.1582
7.17901
10.3592
10.3558
10.3707
10.3926
10.4156
10.441
10.4688
10.4988
10.5293
10.5582
10.585
10.6113
10.6394
10.6688
10.6969
10.7216
10.742
10.7603
10.779
10.8013
10.8281
10.8569
10.8845
10.9092
10.9314
10.9524
10.9739
10.9998
11.0281
11.0508
11.0666
11.0779
11.0893
11.1058
11.1289
11.1574
11.1837
11.204
11.2188
11.2323
11.2508
11.2747
11.3009
11.322
11.3339
11.3392
11.3443
11.3565
11.3789
11.4091
11.4363
11.4536
11.4596
11.4611
11.4655
11.477
11.4953
11.5164
11.5354
11.5504
11.563
11.576
11.5896
11.6015
11.6087
11.6123
11.6168
11.6263
11.6429
11.6634
11.6807
11.6902
11.6911
11.687
11.6856
11.6918
11.7056
11.721
11.7316
11.7348
11.7336
11.7334
11.7378
11.7476
11.7558
11.7587
11.7589
11.7572
11.7567
11.7577
11.7645
1
1
1
1
1
1
1
1
1
1
1
1
1
1
1
1
1
1
1
1
1
1
1
1
1
1
1
1
1
1
1
1
1
1
1
1
1
1
1
1
1
1
1
1
1
1
1
1
1
1
1
1
1
1
1
1
1
1
1
1
1
1
1
1
1
1
1
1
1
1
1
1
1
1
1
1
1
1
1
1
1
1
1
1
1
1
1
1
1
1
1
1
1
1
1
1
1
1
1
1.00769
6.59573
10.2856
10.3253
10.3487
10.3754
10.3993
10.4253
10.4541
10.4864
10.5199
10.5512
10.5787
10.6043
10.6314
10.6601
10.6885
10.7139