/*--------------------------------*- C++ -*----------------------------------*\
  =========                 |
  \\      /  F ield         | OpenFOAM: The Open Source CFD Toolbox
   \\    /   O peration     | Website:  https://openfoam.org
    \\  /    A nd           | Version:  7
     \\/     M anipulation  |
\*---------------------------------------------------------------------------*/
FoamFile
{
    version     2.0;
    format      ascii;
    class       volScalarField;
    location    "3.1";
    object      rho;
}
// * * * * * * * * * * * * * * * * * * * * * * * * * * * * * * * * * * * * * //

dimensions      [1 -3 0 0 0 0 0];

internalField   nonuniform List<scalar> 
258048
(
1.40001
1.40001
1.40001
1.40001
1.40001
1.40001
1.40001
1.40001
1.40001
1.40001
1.40001
1.40001
1.40001
1.40001
1.40001
1.40001
1.40001
1.40001
1.40001
1.40001
1.40001
1.40001
1.40001
1.40001
1.40001
1.40001
1.40001
1.40001
1.40001
1.40001
1.40001
1.40001
1.40001
1.40001
1.40001
1.40001
1.40001
1.40001
1.40001
1.40001
1.40001
1.40001
1.40001
1.40001
1.40001
1.40001
1.40001
1.40001
1.40001
1.40001
1.40001
1.40001
1.40001
1.40001
1.40001
1.40001
1.40001
1.40001
1.40001
1.40001
1.40001
1.40001
1.40001
1.40001
1.40001
1.40001
1.40001
1.40001
1.40001
1.40001
1.40001
1.40001
1.40001
1.40001
1.40001
1.40001
1.40001
1.40001
1.40001
1.40001
1.40001
1.40001
1.40001
1.40001
1.40001
1.40001
1.40001
1.40001
1.40001
1.40001
1.40001
1.40001
1.40001
1.40001
1.40001
1.40001
1.40001
1.40001
2.13092
4.93858
5.41794
5.42805
5.4355
5.44011
5.44737
5.45758
5.47251
5.49025
5.50724
5.5197
5.52739
5.53471
5.54516
5.55843
5.57216
5.58374
5.59217
5.59812
5.60287
5.60949
5.62087
5.63561
5.65015
5.66189
5.66996
5.67523
5.68024
5.688
5.69934
5.71227
5.72395
5.73261
5.73822
5.74226
5.74715
5.75501
5.76607
5.7782
5.78871
5.7962
5.80125
5.80569
5.81137
5.81923
5.82889
5.83881
5.8471
5.85259
5.85574
5.85824
5.86215
5.86853
5.8772
5.88703
5.89631
5.90371
5.90899
5.91292
5.91664
5.92114
5.92691
5.93415
5.94227
5.94982
5.95526
5.95777
5.95785
5.95695
5.95686
5.95942
5.96535
5.97294
5.97965
5.98393
5.98593
5.98722
5.98928
5.99203
5.99367
5.99325
5.9921
5.99186
5.99403
5.99912
6.00534
6.00913
6.00843
6.00346
5.9963
5.99012
5.98696
5.98478
1.40001
1.40001
1.40001
1.40001
1.40001
1.40001
1.40001
1.40001
1.40001
1.40001
1.40001
1.40001
1.40001
1.40001
1.40001
1.40001
1.40001
1.40001
1.40001
1.40001
1.40001
1.40001
1.40001
1.40001
1.40001
1.40001
1.40001
1.40001
1.40001
1.40001
1.40001
1.40001
1.40001
1.40001
1.40001
1.40001
1.40001
1.40001
1.40001
1.40001
1.40001
1.40001
1.40001
1.40001
1.40001
1.40001
1.40001
1.40001
1.40001
1.40001
1.40001
1.40001
1.40001
1.40001
1.40001
1.40001
1.40001
1.40001
1.40001
1.40001
1.40001
1.40001
1.40001
1.40001
1.40001
1.40001
1.40001
1.40001
1.40001
1.40001
1.40001
1.40001
1.40001
1.40001
1.40001
1.40001
1.40001
1.40001
1.40001
1.40001
1.40001
1.40001
1.40001
1.40001
1.40001
1.40001
1.40001
1.40001
1.40001
1.40001
1.40001
1.40001
1.40001
1.40001
1.40001
1.40001
1.40001
1.40001
2.12622
4.93409
5.41706
5.42676
5.4364
5.44163
5.44846
5.45824
5.4724
5.48925
5.50591
5.51907
5.52791
5.53598
5.54631
5.55917
5.5724
5.58341
5.59144
5.59743
5.60261
5.60982
5.62135
5.63591
5.65005
5.66128
5.6691
5.67448
5.6799
5.68801
5.69947
5.71226
5.72365
5.73212
5.73773
5.74193
5.74703
5.75498
5.76597
5.77796
5.78842
5.79604
5.80132
5.80599
5.81175
5.81942
5.82864
5.83805
5.84599
5.85151
5.85504
5.85808
5.8624
5.869
5.87764
5.88719
5.89602
5.90294
5.90803
5.91223
5.91649
5.92137
5.92717
5.93395
5.94139
5.94859
5.95436
5.95771
5.95871
5.95833
5.95801
5.95955
5.96411
5.9712
5.97858
5.98403
5.98694
5.98816
5.98917
5.99072
5.99214
5.99258
5.99241
5.99277
5.9948
5.99904
6.00442
6.00818
6.00806
6.00367
5.9968
5.99039
5.98681
5.98451
1.40001
1.40001
1.40001
1.40001
1.40001
1.40001
1.40001
1.40001
1.40001
1.40001
1.40001
1.40001
1.40001
1.40001
1.40001
1.40001
1.40001
1.40001
1.40001
1.40001
1.40001
1.40001
1.40001
1.40001
1.40001
1.40001
1.40001
1.40001
1.40001
1.40001
1.40001
1.40001
1.40001
1.40001
1.40001
1.40001
1.40001
1.40001
1.40001
1.40001
1.40001
1.40001
1.40001
1.40001
1.40001
1.40001
1.40001
1.40001
1.40001
1.40001
1.40001
1.40001
1.40001
1.40001
1.40001
1.40001
1.40001
1.40001
1.40001
1.40001
1.40001
1.40001
1.40001
1.40001
1.40001
1.40001
1.40001
1.40001
1.40001
1.40001
1.40001
1.40001
1.40001
1.40001
1.40001
1.40001
1.40001
1.40001
1.40001
1.40001
1.40001
1.40001
1.40001
1.40001
1.40001
1.40001
1.40001
1.40001
1.40001
1.40001
1.40001
1.40001
1.40001
1.40001
1.40001
1.40001
1.40001
1.40001
2.11061
4.92981
5.41755
5.42545
5.43618
5.44201
5.44847
5.45806
5.47156
5.48784
5.50418
5.51778
5.52782
5.53676
5.54718
5.55956
5.5722
5.58258
5.59032
5.59651
5.60233
5.61019
5.62196
5.63633
5.6499
5.66041
5.66782
5.67329
5.6792
5.68782
5.69952
5.71225
5.72336
5.73154
5.73705
5.74134
5.74665
5.75472
5.76566
5.77754
5.78793
5.79568
5.80124
5.80621
5.8121
5.81966
5.82852
5.8374
5.8449
5.8502
5.85389
5.8574
5.86235
5.86939
5.87817
5.88759
5.89602
5.90234
5.90688
5.91091
5.91559
5.92112
5.92734
5.93393
5.94059
5.94694
5.9525
5.95656
5.95877
5.95959
5.95956
5.96027
5.96314
5.96883
5.97633
5.98313
5.98758
5.98945
5.98961
5.98943
5.98981
5.99086
5.9921
5.99369
5.99599
5.99934
6.00322
6.00631
6.00672
6.00328
5.99712
5.99059
5.98628
5.98349
1.40001
1.40001
1.40001
1.40001
1.40001
1.40001
1.40001
1.40001
1.40001
1.40001
1.40001
1.40001
1.40001
1.40001
1.40001
1.40001
1.40001
1.40001
1.40001
1.40001
1.40001
1.40001
1.40001
1.40001
1.40001
1.40001
1.40001
1.40001
1.40001
1.40001
1.40001
1.40001
1.40001
1.40001
1.40001
1.40001
1.40001
1.40001
1.40001
1.40001
1.40001
1.40001
1.40001
1.40001
1.40001
1.40001
1.40001
1.40001
1.40001
1.40001
1.40001
1.40001
1.40001
1.40001
1.40001
1.40001
1.40001
1.40001
1.40001
1.40001
1.40001
1.40001
1.40001
1.40001
1.40001
1.40001
1.40001
1.40001
1.40001
1.40001
1.40001
1.40001
1.40001
1.40001
1.40001
1.40001
1.40001
1.40001
1.40001
1.40001
1.40001
1.40001
1.40001
1.40001
1.40001
1.40001
1.40001
1.40001
1.40001
1.40001
1.40001
1.40001
1.40001
1.40001
1.40001
1.40001
1.40001
1.40001
2.08628
4.92094
5.41948
5.42501
5.43593
5.44172
5.44805
5.45725
5.47006
5.48605
5.50278
5.5173
5.52827
5.53769
5.54775
5.55942
5.57132
5.58116
5.58892
5.5957
5.60239
5.61095
5.62284
5.63683
5.6496
5.65925
5.6662
5.67178
5.67822
5.6874
5.6994
5.71209
5.72295
5.73089
5.73628
5.7406
5.74603
5.75415
5.76506
5.77689
5.7873
5.79522
5.80103
5.80622
5.81216
5.81958
5.82817
5.83675
5.84404
5.84919
5.8528
5.8563
5.86158
5.86909
5.87828
5.88785
5.89621
5.90218
5.90616
5.90966
5.91419
5.92014
5.92683
5.93354
5.93986
5.94559
5.95072
5.95522
5.9588
5.96058
5.96064
5.96067
5.96229
5.96687
5.9743
5.98236
5.98811
5.99028
5.98955
5.98798
5.98748
5.98899
5.99181
5.99465
5.9971
5.99954
6.00209
6.00441
6.00516
6.00277
5.99742
5.9909
5.98597
5.98267
1.40001
1.40001
1.40001
1.40001
1.40001
1.40001
1.40001
1.40001
1.40001
1.40001
1.40001
1.40001
1.40001
1.40001
1.40001
1.40001
1.40001
1.40001
1.40001
1.40001
1.40001
1.40001
1.40001
1.40001
1.40001
1.40001
1.40001
1.40001
1.40001
1.40001
1.40001
1.40001
1.40001
1.40001
1.40001
1.40001
1.40001
1.40001
1.40001
1.40001
1.40001
1.40001
1.40001
1.40001
1.40001
1.40001
1.40001
1.40001
1.40001
1.40001
1.40001
1.40001
1.40001
1.40001
1.40001
1.40001
1.40001
1.40001
1.40001
1.40001
1.40001
1.40001
1.40001
1.40001
1.40001
1.40001
1.40001
1.40001
1.40001
1.40001
1.40001
1.40001
1.40001
1.40001
1.40001
1.40001
1.40001
1.40001
1.40001
1.40001
1.40001
1.40001
1.40001
1.40001
1.40001
1.40001
1.40001
1.40001
1.40001
1.40001
1.40001
1.40001
1.40001
1.40001
1.40001
1.40001
1.40001
1.40001
2.05673
4.90368
5.41867
5.42465
5.43584
5.44188
5.44787
5.45659
5.46926
5.48533
5.50222
5.51707
5.52857
5.53804
5.54755
5.55849
5.56979
5.57953
5.58768
5.59516
5.60265
5.61176
5.62369
5.63726
5.64929
5.65822
5.66476
5.67036
5.67714
5.68672
5.69895
5.71168
5.72243
5.73025
5.73556
5.73985
5.74528
5.75336
5.76423
5.77607
5.78656
5.79467
5.80063
5.80588
5.81178
5.81906
5.82755
5.83617
5.8436
5.84878
5.85221
5.85521
5.86002
5.86765
5.87747
5.88769
5.89644
5.90247
5.90606
5.90879
5.91255
5.91828
5.92538
5.93267
5.93928
5.94486
5.94957
5.95386
5.95787
5.96031
5.9608
5.96068
5.9618
5.96586
5.97289
5.98123
5.98764
5.99007
5.98886
5.98651
5.98547
5.98728
5.99136
5.99525
5.99773
5.99948
6.00103
6.00252
6.00328
6.0017
5.99714
5.99084
5.98553
5.98184
1.40001
1.40001
1.40001
1.40001
1.40001
1.40001
1.40001
1.40001
1.40001
1.40001
1.40001
1.40001
1.40001
1.40001
1.40001
1.40001
1.40001
1.40001
1.40001
1.40001
1.40001
1.40001
1.40001
1.40001
1.40001
1.40001
1.40001
1.40001
1.40001
1.40001
1.40001
1.40001
1.40001
1.40001
1.40001
1.40001
1.40001
1.40001
1.40001
1.40001
1.40001
1.40001
1.40001
1.40001
1.40001
1.40001
1.40001
1.40001
1.40001
1.40001
1.40001
1.40001
1.40001
1.40001
1.40001
1.40001
1.40001
1.40001
1.40001
1.40001
1.40001
1.40001
1.40001
1.40001
1.40001
1.40001
1.40001
1.40001
1.40001
1.40001
1.40001
1.40001
1.40001
1.40001
1.40001
1.40001
1.40001
1.40001
1.40001
1.40001
1.40001
1.40001
1.40001
1.40001
1.40001
1.40001
1.40001
1.40001
1.40001
1.40001
1.40001
1.40001
1.40001
1.40001
1.40001
1.40001
1.40001
1.40001
2.02118
4.88004
5.41765
5.42486
5.43669
5.44283
5.44841
5.45675
5.46923
5.48517
5.50188
5.51664
5.52812
5.53728
5.54627
5.55683
5.56819
5.57835
5.58707
5.59514
5.60312
5.61243
5.62416
5.63733
5.64884
5.65734
5.66366
5.66929
5.67621
5.6859
5.69815
5.71083
5.72154
5.72939
5.73476
5.73906
5.74446
5.75244
5.76319
5.77504
5.78563
5.79393
5.80002
5.80522
5.81093
5.81805
5.82663
5.83556
5.84337
5.84877
5.85209
5.85451
5.8584
5.86539
5.87548
5.88663
5.89627
5.90276
5.90629
5.90837
5.91105
5.9159
5.92301
5.93109
5.93859
5.94461
5.94917
5.9528
5.956
5.9585
5.95971
5.96019
5.9618
5.96591
5.97247
5.97994
5.98592
5.98847
5.98739
5.98516
5.98419
5.98616
5.99074
5.99517
5.99774
5.99913
6.00012
6.00096
6.00144
6.00018
5.99617
5.99029
5.98504
5.98127
1.40001
1.40001
1.40001
1.40001
1.40001
1.40001
1.40001
1.40001
1.40001
1.40001
1.40001
1.40001
1.40001
1.40001
1.40001
1.40001
1.40001
1.40001
1.40001
1.40001
1.40001
1.40001
1.40001
1.40001
1.40001
1.40001
1.40001
1.40001
1.40001
1.40001
1.40001
1.40001
1.40001
1.40001
1.40001
1.40001
1.40001
1.40001
1.40001
1.40001
1.40001
1.40001
1.40001
1.40001
1.40001
1.40001
1.40001
1.40001
1.40001
1.40001
1.40001
1.40001
1.40001
1.40001
1.40001
1.40001
1.40001
1.40001
1.40001
1.40001
1.40001
1.40001
1.40001
1.40001
1.40001
1.40001
1.40001
1.40001
1.40001
1.40001
1.40001
1.40001
1.40001
1.40001
1.40001
1.40001
1.40001
1.40001
1.40001
1.40001
1.40001
1.40001
1.40001
1.40001
1.40001
1.40001
1.40001
1.40001
1.40001
1.40001
1.40001
1.40001
1.40001
1.40001
1.40001
1.40001
1.40001
1.40001
1.97987
4.85087
5.41786
5.42549
5.43773
5.44374
5.44907
5.45737
5.46983
5.48556
5.50187
5.51607
5.52706
5.53579
5.5445
5.55516
5.56691
5.57759
5.58675
5.59508
5.60323
5.6125
5.62405
5.637
5.64832
5.65676
5.66313
5.66887
5.67582
5.68537
5.69734
5.70971
5.72025
5.72818
5.73376
5.73822
5.7437
5.75158
5.76213
5.77385
5.78446
5.79291
5.79912
5.80431
5.80991
5.8169
5.82556
5.83474
5.84302
5.84878
5.85219
5.85436
5.85756
5.86352
5.87305
5.88448
5.89513
5.9025
5.90635
5.90816
5.91002
5.9138
5.92033
5.92882
5.93737
5.94431
5.94908
5.95205
5.9541
5.95588
5.95752
5.95934
5.96221
5.9668
5.97286
5.97896
5.98355
5.98561
5.98511
5.98378
5.98347
5.98556
5.98988
5.99423
5.99696
5.99838
5.99919
5.99958
5.99959
5.99822
5.9945
5.98918
5.98445
5.98095
1.40001
1.40001
1.40001
1.40001
1.40001
1.40001
1.40001
1.40001
1.40001
1.40001
1.40001
1.40001
1.40001
1.40001
1.40001
1.40001
1.40001
1.40001
1.40001
1.40001
1.40001
1.40001
1.40001
1.40001
1.40001
1.40001
1.40001
1.40001
1.40001
1.40001
1.40001
1.40001
1.40001
1.40001
1.40001
1.40001
1.40001
1.40001
1.40001
1.40001
1.40001
1.40001
1.40001
1.40001
1.40001
1.40001
1.40001
1.40001
1.40001
1.40001
1.40001
1.40001
1.40001
1.40001
1.40001
1.40001
1.40001
1.40001
1.40001
1.40001
1.40001
1.40001
1.40001
1.40001
1.40001
1.40001
1.40001
1.40001
1.40001
1.40001
1.40001
1.40001
1.40001
1.40001
1.40001
1.40001
1.40001
1.40001
1.40001
1.40001
1.40001
1.40001
1.40001
1.40001
1.40001
1.40001
1.40001
1.40001
1.40001
1.40001
1.40001
1.40001
1.40001
1.40001
1.40001
1.40001
1.40001
1.40001
1.93398
4.81479
5.41889
5.42597
5.43811
5.44423
5.44985
5.45849
5.47104
5.48637
5.50189
5.51513
5.52536
5.53366
5.54238
5.55349
5.56589
5.57721
5.58671
5.59508
5.60312
5.61214
5.62352
5.63634
5.6477
5.65633
5.66293
5.66881
5.67572
5.68499
5.69647
5.70833
5.71856
5.72655
5.73246
5.73728
5.74299
5.75085
5.76114
5.77259
5.78307
5.79159
5.798
5.80339
5.80908
5.81601
5.82449
5.8335
5.84191
5.84805
5.85186
5.85426
5.85735
5.86267
5.87116
5.88181
5.89257
5.90086
5.90561
5.90781
5.90955
5.91266
5.91826
5.92632
5.93533
5.94319
5.9485
5.95122
5.95237
5.95322
5.95485
5.95789
5.96225
5.96767
5.97326
5.97786
5.98078
5.98218
5.98247
5.9824
5.98309
5.98539
5.98911
5.99291
5.99563
5.99728
5.99813
5.99824
5.99774
5.99599
5.99237
5.98765
5.98372
5.98072
1.40001
1.40001
1.40001
1.40001
1.40001
1.40001
1.40001
1.40001
1.40001
1.40001
1.40001
1.40001
1.40001
1.40001
1.40001
1.40001
1.40001
1.40001
1.40001
1.40001
1.40001
1.40001
1.40001
1.40001
1.40001
1.40001
1.40001
1.40001
1.40001
1.40001
1.40001
1.40001
1.40001
1.40001
1.40001
1.40001
1.40001
1.40001
1.40001
1.40001
1.40001
1.40001
1.40001
1.40001
1.40001
1.40001
1.40001
1.40001
1.40001
1.40001
1.40001
1.40001
1.40001
1.40001
1.40001
1.40001
1.40001
1.40001
1.40001
1.40001
1.40001
1.40001
1.40001
1.40001
1.40001
1.40001
1.40001
1.40001
1.40001
1.40001
1.40001
1.40001
1.40001
1.40001
1.40001
1.40001
1.40001
1.40001
1.40001
1.40001
1.40001
1.40001
1.40001
1.40001
1.40001
1.40001
1.40001
1.40001
1.40001
1.40001
1.40001
1.40001
1.40001
1.40001
1.40001
1.40001
1.40001
1.40001
1.88532
4.77119
5.41909
5.42599
5.43769
5.44408
5.4506
5.45987
5.47245
5.48714
5.50165
5.51374
5.52322
5.53135
5.5405
5.5523
5.56538
5.57719
5.58679
5.59492
5.60263
5.61127
5.62241
5.63512
5.64668
5.65576
5.66281
5.669
5.67597
5.68494
5.69582
5.70703
5.71679
5.7247
5.73088
5.73607
5.74205
5.7499
5.75991
5.77102
5.78129
5.78989
5.79668
5.80259
5.8087
5.81572
5.82395
5.83238
5.84034
5.84653
5.85096
5.85416
5.85774
5.86287
5.87036
5.87949
5.88909
5.89743
5.90334
5.90689
5.9094
5.9125
5.91732
5.92428
5.93271
5.94084
5.94682
5.94991
5.95087
5.95126
5.95265
5.95617
5.96165
5.96778
5.97307
5.97646
5.97802
5.97877
5.97963
5.98091
5.98267
5.98512
5.98818
5.9913
5.99389
5.99576
5.99669
5.99668
5.99577
5.99359
5.99002
5.98585
5.98275
5.98032
1.40001
1.40001
1.40001
1.40001
1.40001
1.40001
1.40001
1.40001
1.40001
1.40001
1.40001
1.40001
1.40001
1.40001
1.40001
1.40001
1.40001
1.40001
1.40001
1.40001
1.40001
1.40001
1.40001
1.40001
1.40001
1.40001
1.40001
1.40001
1.40001
1.40001
1.40001
1.40001
1.40001
1.40001
1.40001
1.40001
1.40001
1.40001
1.40001
1.40001
1.40001
1.40001
1.40001
1.40001
1.40001
1.40001
1.40001
1.40001
1.40001
1.40001
1.40001
1.40001
1.40001
1.40001
1.40001
1.40001
1.40001
1.40001
1.40001
1.40001
1.40001
1.40001
1.40001
1.40001
1.40001
1.40001
1.40001
1.40001
1.40001
1.40001
1.40001
1.40001
1.40001
1.40001
1.40001
1.40001
1.40001
1.40001
1.40001
1.40001
1.40001
1.40001
1.40001
1.40001
1.40001
1.40001
1.40001
1.40001
1.40001
1.40001
1.40001
1.40001
1.40001
1.40001
1.40001
1.40001
1.40001
1.40001
1.83436
4.72017
5.41751
5.42576
5.43699
5.44383
5.45142
5.46122
5.47352
5.48743
5.50087
5.51203
5.52107
5.52937
5.5392
5.55164
5.56516
5.57721
5.58677
5.59458
5.60184
5.61006
5.6208
5.63328
5.64505
5.65468
5.66236
5.66904
5.67618
5.68493
5.69529
5.70596
5.71538
5.72324
5.72967
5.73519
5.74142
5.74927
5.75897
5.76966
5.77956
5.78802
5.79505
5.80144
5.80807
5.81525
5.82319
5.83085
5.83794
5.84379
5.84887
5.85336
5.85804
5.86346
5.87027
5.8779
5.88574
5.89315
5.89968
5.905
5.90918
5.91295
5.91741
5.9231
5.93011
5.93754
5.94383
5.94777
5.9494
5.95002
5.95131
5.95462
5.96017
5.96653
5.97172
5.97458
5.97555
5.976
5.97713
5.97922
5.98178
5.98439
5.98704
5.98966
5.99202
5.99387
5.9948
5.9947
5.99357
5.9912
5.98774
5.98399
5.98149
5.97954
1.40001
1.40001
1.40001
1.40001
1.40001
1.40001
1.40001
1.40001
1.40001
1.40001
1.40001
1.40001
1.40001
1.40001
1.40001
1.40001
1.40001
1.40001
1.40001
1.40001
1.40001
1.40001
1.40001
1.40001
1.40001
1.40001
1.40001
1.40001
1.40001
1.40001
1.40001
1.40001
1.40001
1.40001
1.40001
1.40001
1.40001
1.40001
1.40001
1.40001
1.40001
1.40001
1.40001
1.40001
1.40001
1.40001
1.40001
1.40001
1.40001
1.40001
1.40001
1.40001
1.40001
1.40001
1.40001
1.40001
1.40001
1.40001
1.40001
1.40001
1.40001
1.40001
1.40001
1.40001
1.40001
1.40001
1.40001
1.40001
1.40001
1.40001
1.40001
1.40001
1.40001
1.40001
1.40001
1.40001
1.40001
1.40001
1.40001
1.40001
1.40001
1.40001
1.40001
1.40001
1.40001
1.40001
1.40001
1.40001
1.40001
1.40001
1.40001
1.40001
1.40001
1.40001
1.40001
1.40001
1.40001
1.40001
1.78114
4.66047
5.41535
5.42406
5.43622
5.44361
5.45201
5.462
5.47393
5.48713
5.49977
5.51039
5.5193
5.52805
5.53852
5.55139
5.56514
5.57731
5.58685
5.59444
5.60133
5.60913
5.61936
5.63145
5.64323
5.65324
5.66142
5.66854
5.6758
5.68434
5.69425
5.70455
5.71379
5.7216
5.72803
5.73357
5.73977
5.74753
5.7571
5.76772
5.77761
5.7862
5.79353
5.8003
5.80742
5.81482
5.82258
5.82967
5.83596
5.84121
5.84635
5.85169
5.85764
5.86385
5.87045
5.87702
5.88325
5.88919
5.89537
5.90185
5.90798
5.91314
5.91775
5.92253
5.92792
5.93396
5.93995
5.94475
5.94765
5.94913
5.95058
5.95343
5.95828
5.96417
5.96923
5.97223
5.97339
5.97396
5.97514
5.97738
5.98023
5.98302
5.98561
5.98805
5.99015
5.99171
5.99244
5.99226
5.99111
5.98887
5.98562
5.98213
5.97988
5.97828
1.40001
1.40001
1.40001
1.40001
1.40001
1.40001
1.40001
1.40001
1.40001
1.40001
1.40001
1.40001
1.40001
1.40001
1.40001
1.40001
1.40001
1.40001
1.40001
1.40001
1.40001
1.40001
1.40001
1.40001
1.40001
1.40001
1.40001
1.40001
1.40001
1.40001
1.40001
1.40001
1.40001
1.40001
1.40001
1.40001
1.40001
1.40001
1.40001
1.40001
1.40001
1.40001
1.40001
1.40001
1.40001
1.40001
1.40001
1.40001
1.40001
1.40001
1.40001
1.40001
1.40001
1.40001
1.40001
1.40001
1.40001
1.40001
1.40001
1.40001
1.40001
1.40001
1.40001
1.40001
1.40001
1.40001
1.40001
1.40001
1.40001
1.40001
1.40001
1.40001
1.40001
1.40001
1.40001
1.40001
1.40001
1.40001
1.40001
1.40001
1.40001
1.40001
1.40001
1.40001
1.40001
1.40001
1.40001
1.40001
1.40001
1.40001
1.40001
1.40001
1.40001
1.40001
1.40001
1.40001
1.40001
1.40001
1.72633
4.59135
5.41466
5.42025
5.43518
5.44308
5.45179
5.4617
5.47342
5.48629
5.49873
5.50937
5.51841
5.52744
5.53812
5.55093
5.56456
5.5768
5.58648
5.59403
5.60066
5.60801
5.61768
5.62935
5.64117
5.6516
5.6603
5.66783
5.67526
5.68367
5.69334
5.70348
5.71272
5.72053
5.72688
5.73221
5.73812
5.74564
5.75514
5.76593
5.77609
5.78492
5.7924
5.79909
5.80629
5.81377
5.82157
5.82858
5.83458
5.83939
5.84406
5.84918
5.85565
5.86273
5.86977
5.87605
5.88148
5.88635
5.89165
5.89811
5.90539
5.91217
5.91769
5.92219
5.92637
5.93089
5.93598
5.94112
5.94533
5.94809
5.95002
5.95238
5.95608
5.96099
5.96588
5.96947
5.97143
5.97244
5.97351
5.97536
5.97802
5.98099
5.98381
5.98631
5.98822
5.98936
5.98973
5.98946
5.98845
5.98654
5.98358
5.98027
5.97792
5.97662
1.40001
1.40001
1.40001
1.40001
1.40001
1.40001
1.40001
1.40001
1.40001
1.40001
1.40001
1.40001
1.40001
1.40001
1.40001
1.40001
1.40001
1.40001
1.40001
1.40001
1.40001
1.40001
1.40001
1.40001
1.40001
1.40001
1.40001
1.40001
1.40001
1.40001
1.40001
1.40001
1.40001
1.40001
1.40001
1.40001
1.40001
1.40001
1.40001
1.40001
1.40001
1.40001
1.40001
1.40001
1.40001
1.40001
1.40001
1.40001
1.40001
1.40001
1.40001
1.40001
1.40001
1.40001
1.40001
1.40001
1.40001
1.40001
1.40001
1.40001
1.40001
1.40001
1.40001
1.40001
1.40001
1.40001
1.40001
1.40001
1.40001
1.40001
1.40001
1.40001
1.40001
1.40001
1.40001
1.40001
1.40001
1.40001
1.40001
1.40001
1.40001
1.40001
1.40001
1.40001
1.40001
1.40001
1.40001
1.40001
1.40001
1.40001
1.40001
1.40001
1.40001
1.40001
1.40001
1.40001
1.40001
1.40001
1.66956
4.51309
5.41454
5.41751
5.43368
5.44256
5.45159
5.46136
5.47278
5.48547
5.49807
5.50901
5.51829
5.52741
5.53797
5.5505
5.56394
5.57621
5.58603
5.5936
5.60003
5.60695
5.61605
5.62732
5.63918
5.65003
5.65922
5.66708
5.67459
5.68284
5.69235
5.70249
5.71185
5.71974
5.72597
5.73092
5.73631
5.74343
5.75285
5.76402
5.77471
5.78392
5.79142
5.79762
5.80427
5.81152
5.81956
5.82712
5.83364
5.83863
5.84291
5.84722
5.85284
5.85991
5.86747
5.87442
5.88013
5.88473
5.88917
5.89465
5.90172
5.90946
5.91634
5.92146
5.92522
5.92862
5.93256
5.93733
5.94227
5.94627
5.94896
5.95107
5.95376
5.95762
5.96223
5.96645
5.96939
5.97097
5.97192
5.97319
5.97546
5.97855
5.98169
5.98433
5.98613
5.9869
5.98691
5.98658
5.98571
5.98403
5.98131
5.97813
5.97565
5.97482
1.40001
1.40001
1.40001
1.40001
1.40001
1.40001
1.40001
1.40001
1.40001
1.40001
1.40001
1.40001
1.40001
1.40001
1.40001
1.40001
1.40001
1.40001
1.40001
1.40001
1.40001
1.40001
1.40001
1.40001
1.40001
1.40001
1.40001
1.40001
1.40001
1.40001
1.40001
1.40001
1.40001
1.40001
1.40001
1.40001
1.40001
1.40001
1.40001
1.40001
1.40001
1.40001
1.40001
1.40001
1.40001
1.40001
1.40001
1.40001
1.40001
1.40001
1.40001
1.40001
1.40001
1.40001
1.40001
1.40001
1.40001
1.40001
1.40001
1.40001
1.40001
1.40001
1.40001
1.40001
1.40001
1.40001
1.40001
1.40001
1.40001
1.40001
1.40001
1.40001
1.40001
1.40001
1.40001
1.40001
1.40001
1.40001
1.40001
1.40001
1.40001
1.40001
1.40001
1.40001
1.40001
1.40001
1.40001
1.40001
1.40001
1.40001
1.40001
1.40001
1.40001
1.40001
1.40001
1.40001
1.40001
1.40001
1.61127
4.42487
5.41303
5.41833
5.43242
5.44202
5.45118
5.46077
5.47195
5.48462
5.49743
5.50872
5.51821
5.52728
5.53757
5.54979
5.5631
5.57548
5.58552
5.59312
5.59929
5.60572
5.61425
5.62515
5.63707
5.64835
5.65805
5.66623
5.67376
5.68177
5.691
5.70102
5.71046
5.7185
5.72472
5.72937
5.73428
5.74098
5.75025
5.76183
5.77326
5.78311
5.79082
5.79662
5.80233
5.80871
5.81648
5.82464
5.83219
5.83801
5.84227
5.84571
5.84981
5.85586
5.86357
5.87168
5.87855
5.88357
5.88751
5.89188
5.8979
5.9056
5.91349
5.91983
5.92408
5.92705
5.93004
5.93398
5.93885
5.94357
5.94704
5.94932
5.9515
5.95464
5.95888
5.96339
5.96701
5.96907
5.96998
5.97086
5.97279
5.97589
5.97921
5.9819
5.98364
5.98426
5.98416
5.98382
5.98292
5.98116
5.97847
5.97533
5.97309
5.97311
1.40001
1.40001
1.40001
1.40001
1.40001
1.40001
1.40001
1.40001
1.40001
1.40001
1.40001
1.40001
1.40001
1.40001
1.40001
1.40001
1.40001
1.40001
1.40001
1.40001
1.40001
1.40001
1.40001
1.40001
1.40001
1.40001
1.40001
1.40001
1.40001
1.40001
1.40001
1.40001
1.40001
1.40001
1.40001
1.40001
1.40001
1.40001
1.40001
1.40001
1.40001
1.40001
1.40001
1.40001
1.40001
1.40001
1.40001
1.40001
1.40001
1.40001
1.40001
1.40001
1.40001
1.40001
1.40001
1.40001
1.40001
1.40001
1.40001
1.40001
1.40001
1.40001
1.40001
1.40001
1.40001
1.40001
1.40001
1.40001
1.40001
1.40001
1.40001
1.40001
1.40001
1.40001
1.40001
1.40001
1.40001
1.40001
1.40001
1.40001
1.40001
1.40001
1.40001
1.40001
1.40001
1.40001
1.40001
1.40001
1.40001
1.40001
1.40001
1.40001
1.40001
1.40001
1.40001
1.40001
1.40001
1.40001
1.55366
4.32976
5.4122
5.42097
5.43117
5.44088
5.45001
5.45958
5.47056
5.48312
5.49609
5.50774
5.51752
5.52658
5.53663
5.54865
5.56192
5.57443
5.58462
5.59215
5.59804
5.60406
5.61217
5.62277
5.63475
5.64645
5.65672
5.66536
5.67308
5.681
5.68993
5.69962
5.7088
5.71674
5.723
5.72761
5.7323
5.73872
5.7476
5.75909
5.77094
5.78141
5.78957
5.79529
5.80024
5.80561
5.81279
5.82128
5.82991
5.83686
5.84144
5.84439
5.84722
5.85195
5.85915
5.86804
5.87639
5.88255
5.88671
5.89033
5.89499
5.90155
5.90934
5.91665
5.922
5.92535
5.92788
5.9309
5.93502
5.93973
5.94383
5.94676
5.94917
5.95215
5.95608
5.96043
5.96414
5.9664
5.96742
5.96832
5.9702
5.97321
5.97641
5.97896
5.98069
5.9815
5.98168
5.98137
5.98011
5.9778
5.97487
5.97204
5.97043
5.97146
1.40001
1.40001
1.40001
1.40001
1.40001
1.40001
1.40001
1.40001
1.40001
1.40001
1.40001
1.40001
1.40001
1.40001
1.40001
1.40001
1.40001
1.40001
1.40001
1.40001
1.40001
1.40001
1.40001
1.40001
1.40001
1.40001
1.40001
1.40001
1.40001
1.40001
1.40001
1.40001
1.40001
1.40001
1.40001
1.40001
1.40001
1.40001
1.40001
1.40001
1.40001
1.40001
1.40001
1.40001
1.40001
1.40001
1.40001
1.40001
1.40001
1.40001
1.40001
1.40001
1.40001
1.40001
1.40001
1.40001
1.40001
1.40001
1.40001
1.40001
1.40001
1.40001
1.40001
1.40001
1.40001
1.40001
1.40001
1.40001
1.40001
1.40001
1.40001
1.40001
1.40001
1.40001
1.40001
1.40001
1.40001
1.40001
1.40001
1.40001
1.40001
1.40001
1.40001
1.40001
1.40001
1.40001
1.40001
1.40001
1.40001
1.40001
1.40001
1.40001
1.40001
1.40001
1.40001
1.40001
1.40001
1.40001
1.49162
4.22985
5.41097
5.42166
5.43085
5.44087
5.44965
5.45867
5.46908
5.48127
5.4943
5.50628
5.51644
5.52569
5.53571
5.54754
5.56056
5.57288
5.58276
5.58993
5.5954
5.60103
5.60886
5.61941
5.63156
5.64361
5.6544
5.66357
5.67167
5.67971
5.68848
5.69782
5.70656
5.71429
5.72071
5.72558
5.73048
5.73695
5.74554
5.75658
5.76833
5.77903
5.78761
5.79361
5.79839
5.8032
5.80968
5.81783
5.82677
5.83469
5.84006
5.84329
5.84567
5.84928
5.85515
5.86337
5.87223
5.87975
5.88495
5.88871
5.89258
5.89794
5.905
5.91264
5.9191
5.92335
5.92597
5.92833
5.93149
5.93558
5.93989
5.94364
5.94686
5.95015
5.95386
5.95763
5.96081
5.96292
5.96421
5.96556
5.96771
5.97053
5.97328
5.9755
5.97728
5.9786
5.97943
5.97918
5.97724
5.97395
5.97048
5.96823
5.96775
5.96989
1.40001
1.40001
1.40001
1.40001
1.40001
1.40001
1.40001
1.40001
1.40001
1.40001
1.40001
1.40001
1.40001
1.40001
1.40001
1.40001
1.40001
1.40001
1.40001
1.40001
1.40001
1.40001
1.40001
1.40001
1.40001
1.40001
1.40001
1.40001
1.40001
1.40001
1.40001
1.40001
1.40001
1.40001
1.40001
1.40001
1.40001
1.40001
1.40001
1.40001
1.40001
1.40001
1.40001
1.40001
1.40001
1.40001
1.40001
1.40001
1.40001
1.40001
1.40001
1.40001
1.40001
1.40001
1.40001
1.40001
1.40001
1.40001
1.40001
1.40001
1.40001
1.40001
1.40001
1.40001
1.40001
1.40001
1.40001
1.40001
1.40001
1.40001
1.40001
1.40001
1.40001
1.40001
1.40001
1.40001
1.40001
1.40001
1.40001
1.40001
1.40001
1.40001
1.40001
1.40001
1.40001
1.40001
1.40001
1.40001
1.40001
1.40001
1.40001
1.40001
1.40001
1.40001
1.40001
1.40001
1.40001
1.40001
1.42285
4.11721
5.39831
5.41599
5.42602
5.43679
5.44574
5.45497
5.46571
5.47825
5.49166
5.50413
5.51473
5.52423
5.53425
5.54585
5.55862
5.57074
5.58043
5.58742
5.59276
5.59838
5.60624
5.61697
5.62935
5.64162
5.6526
5.66202
5.67032
5.67842
5.68704
5.69598
5.70414
5.71136
5.71783
5.72317
5.72868
5.73561
5.74419
5.75445
5.76516
5.77508
5.78362
5.79027
5.79585
5.80102
5.80712
5.8144
5.82243
5.83046
5.8368
5.84123
5.84426
5.84759
5.85238
5.85933
5.86764
5.87585
5.88231
5.88693
5.89079
5.89532
5.90131
5.90844
5.91537
5.92059
5.92375
5.9258
5.92806
5.93121
5.93532
5.93987
5.94426
5.94826
5.95184
5.95484
5.9571
5.95883
5.96047
5.96253
5.96512
5.96772
5.96987
5.97168
5.97357
5.97559
5.97728
5.97705
5.97416
5.96973
5.96569
5.96399
5.96489
5.96825
1.40001
1.40001
1.40001
1.40001
1.40001
1.40001
1.40001
1.40001
1.40001
1.40001
1.40001
1.40001
1.40001
1.40001
1.40001
1.40001
1.40001
1.40001
1.40001
1.40001
1.40001
1.40001
1.40001
1.40001
1.40001
1.40001
1.40001
1.40001
1.40001
1.40001
1.40001
1.40001
1.40001
1.40001
1.40001
1.40001
1.40001
1.40001
1.40001
1.40001
1.40001
1.40001
1.40001
1.40001
1.40001
1.40001
1.40001
1.40001
1.40001
1.40001
1.40001
1.40001
1.40001
1.40001
1.40001
1.40001
1.40001
1.40001
1.40001
1.40001
1.40001
1.40001
1.40001
1.40001
1.40001
1.40001
1.40001
1.40001
1.40001
1.40001
1.40001
1.40001
1.40001
1.40001
1.40001
1.40001
1.40001
1.40001
1.40001
1.40001
1.40001
1.40001
1.40001
1.40001
1.40001
1.40001
1.40001
1.40001
1.40001
1.40001
1.40001
1.40001
1.40001
1.40001
1.40001
1.40001
1.40001
1.40001
1.40082
3.97177
5.38432
5.40949
5.4198
5.43152
5.44095
5.45055
5.46174
5.47476
5.48863
5.50167
5.51287
5.52284
5.53298
5.5443
5.55657
5.56813
5.57738
5.58403
5.58922
5.59498
5.60311
5.61401
5.6265
5.6388
5.64974
5.65923
5.66768
5.67588
5.68447
5.69315
5.70083
5.70743
5.71384
5.71981
5.72636
5.73431
5.74337
5.75315
5.76261
5.77106
5.77881
5.78586
5.79273
5.79907
5.80545
5.81208
5.81881
5.82597
5.83254
5.83828
5.84275
5.84668
5.85086
5.85628
5.86295
5.87064
5.87797
5.884
5.88876
5.89318
5.89823
5.90436
5.91099
5.91681
5.92071
5.92289
5.92464
5.92703
5.93078
5.93587
5.94139
5.94622
5.94975
5.95193
5.95322
5.95445
5.95638
5.95917
5.96217
5.96454
5.96614
5.96759
5.96972
5.97255
5.9749
5.97454
5.97077
5.96526
5.96083
5.95964
5.96181
5.96606
1.40001
1.40001
1.40001
1.40001
1.40001
1.40001
1.40001
1.40001
1.40001
1.40001
1.40001
1.40001
1.40001
1.40001
1.40001
1.40001
1.40001
1.40001
1.40001
1.40001
1.40001
1.40001
1.40001
1.40001
1.40001
1.40001
1.40001
1.40001
1.40001
1.40001
1.40001
1.40001
1.40001
1.40001
1.40001
1.40001
1.40001
1.40001
1.40001
1.40001
1.40001
1.40001
1.40001
1.40001
1.40001
1.40001
1.40001
1.40001
1.40001
1.40001
1.40001
1.40001
1.40001
1.40001
1.40001
1.40001
1.40001
1.40001
1.40001
1.40001
1.40001
1.40001
1.40001
1.40001
1.40001
1.40001
1.40001
1.40001
1.40001
1.40001
1.40001
1.40001
1.40001
1.40001
1.40001
1.40001
1.40001
1.40001
1.40001
1.40001
1.40001
1.40001
1.40001
1.40001
1.40001
1.40001
1.40001
1.40001
1.40001
1.40001
1.40001
1.40001
1.40001
1.40001
1.40001
1.40001
1.40001
1.40001
1.40001
3.80352
5.37262
5.40272
5.41164
5.42371
5.43373
5.44417
5.45636
5.47038
5.48516
5.499
5.51096
5.52151
5.53173
5.54264
5.55421
5.56505
5.57361
5.57985
5.58501
5.59111
5.59976
5.6111
5.62402
5.63663
5.64764
5.65711
5.66549
5.67349
5.68181
5.69015
5.6974
5.70336
5.70942
5.71576
5.72335
5.73261
5.74252
5.75221
5.76054
5.76717
5.77333
5.77997
5.78798
5.79615
5.80365
5.81017
5.8157
5.82134
5.82716
5.83367
5.83992
5.84534
5.84972
5.85409
5.85901
5.86533
5.87257
5.87976
5.88593
5.89105
5.89579
5.90096
5.90676
5.91243
5.91675
5.91931
5.921
5.92307
5.92657
5.9319
5.93816
5.9436
5.94706
5.94858
5.94914
5.95
5.95217
5.95548
5.95866
5.96082
5.96212
5.96346
5.96592
5.96947
5.97203
5.97133
5.96697
5.96077
5.95624
5.95548
5.95848
5.96298
1.40001
1.40001
1.40001
1.40001
1.40001
1.40001
1.40001
1.40001
1.40001
1.40001
1.40001
1.40001
1.40001
1.40001
1.40001
1.40001
1.40001
1.40001
1.40001
1.40001
1.40001
1.40001
1.40001
1.40001
1.40001
1.40001
1.40001
1.40001
1.40001
1.40001
1.40001
1.40001
1.40001
1.40001
1.40001
1.40001