/*--------------------------------*- C++ -*----------------------------------*\
  =========                 |
  \\      /  F ield         | OpenFOAM: The Open Source CFD Toolbox
   \\    /   O peration     | Website:  https://openfoam.org
    \\  /    A nd           | Version:  7
     \\/     M anipulation  |
\*---------------------------------------------------------------------------*/
FoamFile
{
    version     2.0;
    format      ascii;
    class       volScalarField;
    location    "1.9";
    object      p;
}
// * * * * * * * * * * * * * * * * * * * * * * * * * * * * * * * * * * * * * //

dimensions      [1 -1 -2 0 0 0 0];

internalField   nonuniform List<scalar> 
4032
(
1
1
1
1
1
1
1
1
1
1
1
1
4.90467
10.506
10.804
10.9644
11.1501
11.3151
11.4663
11.6014
11.7198
11.8185
11.8975
11.9549
1
1
1
1
1
1
1
1
1
1
1
1
4.74387
10.4119
10.7786
10.9427
11.1281
11.2894
11.4347
11.5622
11.6721
11.7623
11.8328
11.886
1
1
1
1
1
1
1
1
1
1
1
1
4.40233
10.285
10.7371
10.9008
11.086
11.2441
11.3839
11.5029
11.6024
11.6829
11.7429
11.7929
1
1
1
1
1
1
1
1
1
1
1
1
3.91074
10.0711
10.676
10.8314
11.0124
11.1653
11.3006
11.4137
11.5035
11.5711
11.6106
11.642
1
1
1
1
1
1
1
1
1
1
1
1
3.30389
9.71785
10.5955
10.7415
10.9176
11.0601
11.1808
11.2741
11.338
11.3878
11.411
11.4503
1
1
1
1
1
1
1
1
1
1
1
1
2.63272
9.19926
10.55
10.6665
10.8149
10.9305
11.0297
11.1083
11.1632
11.2065
11.2007
11.1443
1
1
1
1
1
1
1
1
1
1
1
1
1.89784
8.4262
10.4572
10.5207
10.6612
10.77
10.8529
10.8987
10.902
10.8475
10.7495
10.6806
1
1
1
1
1
1
1
1
1
1
1
1
1.20706
7.43064
10.4902
10.446
10.5125
10.5566
10.5949
10.5907
10.5519
10.4622
10.3088
10.2737
1
1
1
1
1
1
1
1
1
1
1
1
1.00635
6.06434
9.97529
10.0742
10.1792
10.2435
10.2674
10.2303
10.1177
9.85393
9.09055
7.19753
1
1
1
1
1
1
1
1
1
1
1
1
0.999996
4.45409
9.52016
9.95497
10.0103
10.0365
9.99454
9.89744
9.67541
9.20647
8.37073
6.33582
1
1
1
1
1
1
1
1
1
1
1
1
0.999999
2.77888
8.69938
9.79442
9.83024
9.82497
9.72982
9.55368
9.24488
8.6631
7.80459
5.90768
1
1
1
1
1
1
1
1
1
1
1
1
1
1.3668
7.56844
9.86419
9.68879
9.58451
9.44388
9.21698
8.8556
8.28208
7.35647
5.85355
1
1
1
1
1
1
1
1
1
1
1
1
1
1.01469
5.75172
9.2199
9.3071
9.25881
9.13251
8.89743
8.51979
7.96712
7.06401
5.8782
1
1
1
1
1
1
1
1
1
1
1
1
1
0.999925
3.25157
8.45008
9.18116
9.13245
8.96818
8.6936
8.28623
7.72203
6.89473
5.95592
1
1
1
1
1
1
1
1
1
1
1
1
1
0.999982
1.36286
7.17503
9.16851
8.9949
8.78144
8.47005
8.05886
7.50401
6.78819
6.01333
1
1
1
1
1
1
1
1
1
1
1
1
1
0.999997
1.01216
4.91771
8.66
8.73993
8.55878
8.2624
7.85986
7.3505
6.73747
6.0731
1
1
1
1
1
1
1
1
1
1
1
1
1
1
0.999945
2.16682
7.79779
8.69299
8.42927
8.11996
7.72348
7.24313
6.69007
6.10596
1
1
1
1
1
1
1
1
1
1
1
1
1
1
0.999987
1.10197
5.80295
8.47165
8.22457
7.9483
7.58659
7.14414
6.64305
6.12483
1
1
1
1
1
1
1
1
1
1
1
1
1
1
0.999998
1.0007
2.77814
7.6686
8.1539
7.8637
7.50746
7.08427
6.62976
6.16019
1
1
1
1
1
1
1
1
1
1
1
1
1
1
1
0.999999
1.2136
5.81069
8.07604
7.75949
7.42628
7.03365
6.62155
6.18355
1
1
1
1
1
1
1
1
1
1
1
1
1
1
1
1
1.00353
2.69328
7.18126
7.69198
7.3692
7.01276
6.62687
6.21219
1
1
1
1
1
1
1
1
1
1
1
1
1
1
1
1
1.00001
1.19807
5.263
7.66034
7.33331
6.97789
6.60209
6.22115
1
1
1
1
1
1
1
1
1
1
1
1
1
1
1
1
1
1.0033
2.26138
6.52941
7.28494
6.93431
6.59621
6.25194
1
1
1
1
1
1
1
1
1
1
1
1
1
1
1
1
1
1.00001
1.11172
4.11662
7.09902
6.94937
6.63725
6.3091
1
1
1
1
1
1
1
1
1
1
1
1
1
1
1
1
1
1
1.00148
1.66736
5.57176
6.98982
6.67041
6.34595
1
1
1
1
1
1
1
1
1
1
1
1
1
1
1
1
1
1
1
1.03417
2.74929
6.1604
6.68622
6.3689
1
1
1
1
1
1
1
1
1
1
1
1
1
1
1
1
1
1
1
1.00033
1.21137
4.01517
6.39727
6.42368
1
1
1
1
1
1
1
1
1
1
1
1
1
1
1
1
1
1
1
1
1.00493
1.66746
4.89773
6.36596
1
1
1
1
1
1
1
1
1
1
1
1
1
1
1
1
1
1
1
1
1.00003
1.03564
2.30268
5.40961
1
1
1
1
1
1
1
1
1
1
1
1
1
1
1
1
1
1
1
1
1
1.0004
1.12522
3.00356
1
1
1
1
1
1
1
1
1
1
1
1
1
1
1
1
1
1
1
1
1
1
1.00245
1.29716
1
1
1
1
1
1
1
1
1
1
1
1
1
1
1
1
1
1
1
1
1
1
1.00001
1.00966
1
1
1
1
1
1
1
1
1
1
1
1
1
1
1
1
1
1
1
1
1
1
1
1.00007
1
1
1
1
1
1
1
1
1
1
1
1
1
1
1
1
1
1
1
1
1
1
1
1
1
1
1
1
1
1
1
1
1
1
1
1
1
1
1
1
1
1
1
1
1
1
1
1
1
1
1
1
1
1
1
1
1
1
1
1
1
1
1
1
1
1
1
1
1
1
1
1
1
1
1
1
1
1
1
1
1
1
1
1
1
1
1
1
1
1
1
1
1
1
1
1
1
1
1
1
1
1
1
1
1
1
1
1
1
1
1
1
1
1
1
1
1
1
1
1
1
1
1
1
1
1
1
1
1
1
1
1
1
1
1
1
1
1
1
1
1
1
1
1
1
1
1
1
1
1
1
1
1
1
1
1
1
1
1
1
1
1
1
1
1
1
1
1
1.62471
0.429351
0.150592
0.154779
0.239206
0.323519
0.387814
0.535456
0.667975
0.744359
0.802694
0.8864
1.01602
1.16848
1.22906
1.23573
1.23902
1.22761
1.22427
1.25361
1.2744
1.26771
1.25849
1.25417
1.25545
1.25624
1.27032
1.2851
1.28773
1.28834
1.28092
1.27748
1.27567
1.27545
1.28662
1.29758
1.29202
1.2784
1.25702
1.22939
1.21665
1.23292
1.44503
2.14836
3.49315
4.99748
6.12703
6.35505
6.15906
5.74715
5.38672
5.25547
5.15338
5.08866
5.02058
4.9135
4.79398
4.65625
4.50808
4.37638
4.27103
4.18987
4.12754
4.07276
4.00782
3.94026
3.85903
3.7511
3.63197
3.54537
3.49199
3.44919
3.42057
3.39519
3.35742
3.3111
3.24024
3.11149
2.96806
2.88649
2.84121
2.80513
2.77745
2.7666
2.76514
2.74614
2.71568
2.67238
2.58226
2.44863
2.36746
2.33369
2.30981
2.28939
2.29165
2.28153
2.80095
1.52485
0.86123
0.601499
0.609498
0.590661
0.549188
0.528726
0.539205
0.565964
0.610365
0.682268
0.790459
0.904129
1.01283
1.05976
1.08983
1.11781
1.14839
1.20386
1.24547
1.25402
1.25485
1.25139
1.24737
1.24594
1.26171
1.27945
1.28358
1.28567
1.28314
1.28158
1.27962
1.27595
1.27751
1.28196
1.27768
1.26673
1.25324
1.23741
1.26418
1.45978
2.058
2.58808
2.95956
3.67255
4.50643
5.0841
5.4302
5.47714
5.36513
5.28376
5.19145
5.0868
4.99162
4.89325
4.78402
4.67457
4.55551
4.41998
4.28496
4.18028
4.10885
4.05017
3.99759
3.93476
3.86217
3.7766
3.67726
3.56991
3.48656
3.43744
3.39757
3.35815
3.31597
3.27156
3.2168
3.13616
3.04146
2.9463
2.86751
2.81753
2.78607
2.76671
2.74801
2.71702
2.68161
2.639
2.57755
2.49081
2.4027
2.34662
2.31882
2.29914
2.29236
2.25922
3.59301
2.4681
1.77179
1.19716
0.915902
0.843963
0.775325
0.650085
0.619448
0.608206
0.628377
0.669661
0.728617
0.773579
0.84924
0.914438
0.96
1.01375
1.08755
1.15922
1.22987
1.26066
1.26545
1.27378
1.2703
1.26663
1.27381
1.27837
1.27617
1.27207
1.26995
1.27424
1.27798
1.28068
1.28279
1.27958
1.27132
1.25738
1.25485
1.31383
1.56534
2.15674
2.76688
2.88649
2.86011
2.91568
3.22504
3.81474
4.53626
5.21207
5.37037
5.4049
5.25844
5.10268
4.95219
4.82424
4.71454
4.6306
4.55884
4.47963
4.36783
4.22501
4.10744
4.03149
3.96147
3.89106
3.82627
3.76731
3.70815
3.63421
3.53424
3.43637
3.37043
3.31836
3.26576
3.20654
3.1467
3.10606
3.06238
3.01307
2.94726
2.86743
2.79976
2.75549
2.71848
2.68032
2.63672
2.58593
2.53508
2.4959
2.45577
2.40112
2.34219
2.30308
2.27835
2.2333
4.23546
3.13748
2.4615
1.94842
1.46048
1.18131
1.09221
0.98698
0.89075
0.824058
0.779004
0.7231
0.690419
0.694233
0.722188
0.768607
0.814214
0.873954
0.963
1.04261
1.10876
1.15896
1.19048
1.22327
1.26617
1.28117
1.29217
1.29648
1.29146
1.27888
1.26898
1.26384
1.26592
1.27052
1.26989
1.26597
1.26381
1.27507
1.35391
1.72137
2.26534
2.8778
3.01152
2.95327
2.88815
2.85588
2.81422
2.89346
3.24113
4.00985
4.66982
5.00671
5.05383
5.02877
4.95237
4.84214
4.74889
4.66207
4.57754
4.49526
4.40025
4.26062
4.09869
3.98933
3.92148
3.86229
3.8073
3.75869
3.71069
3.65643
3.57866
3.46203
3.34874
3.27314
3.20919
3.15209
3.1148
3.08647
3.06129
3.02503
2.98188
2.92221
2.83404
2.74834
2.69185
2.64295
2.59032
2.54216
2.51387
2.49288
2.47048
2.43942
2.3867
2.31696
2.26912
2.20916
4.6607
3.73054
2.98668
2.46212
2.06184
1.66603
1.37631
1.28026
1.17413
1.04325
0.944727
0.870107
0.781278
0.739915
0.74294
0.765552
0.771507
0.781927
0.810898
0.852666
0.908444
0.999481
1.08781
1.13841
1.19764
1.22464
1.24088
1.25813
1.26324
1.26357
1.27567
1.28269
1.2882
1.28791
1.28191
1.27002
1.28218
1.3757
1.83662
2.49177
2.86631
3.06597
3.03723
2.98196
2.91289
2.84845
2.80034
2.75524
2.74504
2.88631
3.33836
3.99719
4.48734
4.74095
4.74756
4.71852
4.71482
4.72216
4.64504
4.54341
4.42525
4.27953
4.09998
3.94656
3.87326
3.82548
3.78805
3.75845
3.71567
3.66552
3.60121
3.49341
3.33634
3.21573
3.15825
3.12294
3.09602
3.08012
3.06575
3.03448
2.99836
2.95402
2.87424
2.74925
2.64865
2.59192
2.5529
2.52856
2.51143
2.49838
2.47848
2.45112
2.40925
2.33411
2.25497
2.17557
5.00475
4.18808
3.49513
2.90583
2.48617
2.1401
1.77223
1.54366
1.44474
1.33197
1.18685
1.07835
0.983601
0.909498
0.885498
0.857942
0.826307
0.811679
0.786727
0.778965
0.786302
0.822921
0.903479
0.981495
1.06161
1.12737
1.16562
1.20325
1.22736
1.23439
1.24966
1.2722
1.28306
1.28154
1.27986
1.30138
1.44941
1.91432
2.67807
2.94688
3.05532
3.07855
3.02608
2.95955
2.88778
2.80915
2.76503
2.73213
2.70171
2.6854
2.69538
2.86892
3.27175
3.79871
4.22401
4.41459
4.53111
4.58243
4.62029
4.56347
4.45276
4.30958
4.14091
3.96955
3.85176
3.79254
3.74861
3.72266
3.69453
3.6515
3.5969
3.5095
3.37138
3.22998
3.15742
3.11822
3.08423
3.06026
3.04697
3.02
2.9871
2.94709
2.87527
2.75701
2.63101
2.56692
2.53878
2.51654
2.50119
2.49447
2.47849
2.4546
2.42378
2.35228
2.24171
2.14105
5.23461
4.51119
3.8765
3.3336
2.84896
2.48442
2.18515
1.88972
1.67967
1.56045
1.44388
1.32262
1.18534
1.08061
1.01309
0.958343
0.90763
0.868152
0.840092
0.808652
0.795074
0.804322
0.821245
0.851261
0.88383
0.936145
0.995956
1.05444
1.12511
1.17666
1.21015
1.25152
1.26283
1.26608
1.29857
1.57023
2.12659
2.77721
3.04896
3.08118
3.07191
3.05055
2.99116
2.91801
2.84833
2.77854
2.7347
2.70989
2.69569
2.65431
2.62315
2.58461
2.58149
2.71905
3.07561
3.5721
4.02477
4.23064
4.39304
4.43091
4.39346
4.31534
4.18324
4.02998
3.88921
3.78823
3.73057
3.68676
3.64188
3.60387
3.55849
3.49559
3.40537
3.29619
3.19733
3.13344
3.0938
3.05807
3.0212
2.97987
2.93472
2.88698
2.83435
2.75464
2.66142
2.60032
2.56531
2.53709
2.51405
2.49516
2.47856
2.45484
2.41661
2.33778
2.22358
2.13591
5.4071
4.76043
4.16692
3.66649
3.21439
2.80271
2.49044
2.22117
1.98807
1.79052
1.64486
1.51858
1.39542
1.2867
1.2002
1.11736
1.04675
0.996491
0.955486
0.912965
0.865739
0.850699
0.845853
0.828552
0.818691
0.823932
0.841543
0.878522
0.939793
1.02987
1.10116
1.17771
1.2061
1.2657
1.57864
2.39213
2.83039
3.0936
3.15373
3.1401
3.0859
3.00706
2.94573
2.89043
2.83253
2.77641
2.7205
2.67862
2.65505
2.61877
2.57298
2.531
2.5098
2.45965
2.44966
2.56997
2.92289
3.40431
3.85226
4.10998
4.19505
4.18929
4.13464
4.0515
3.94499
3.82962
3.73193
3.66905
3.6127
3.55817
3.50961
3.46037
3.4021
3.32916
3.24376
3.16038
3.09901
3.05493
3.01041
2.96201
2.90961
2.85195
2.78574
2.72385
2.67273
2.63182
2.59894
2.56519
2.52803
2.48799
2.4454
2.39937
2.35257
2.29225
2.21828
2.15069
5.51568
4.92738
4.40551
3.92736
3.47788
3.09115
2.77472
2.4813
2.23197
2.03784
1.86504
1.69725
1.56115
1.46334
1.36791
1.27531
1.1936
1.13495
1.0798
1.02028
0.956002
0.913445
0.883653
0.853546
0.830224
0.828967
0.830168
0.832343
0.840343
0.870797
0.928661
1.00688
1.10823
1.47368
2.26318
2.89193
3.10174
3.14779
3.13992
3.08269
3.0244
2.95814
2.92159
2.89528
2.84748
2.78933
2.72068
2.64756
2.60129
2.5621
2.52168
2.48772
2.46353
2.43483
2.408
2.32325
2.31364
2.43845
2.76428
3.22579
3.61194
3.93183
3.98028
3.9635
3.94686
3.86695
3.75638
3.65644
3.58894
3.53392
3.47632
3.42402
3.37589
3.31868
3.25097
3.17391
3.09533
3.03952
2.99721
2.95102
2.89704
2.83823
2.77872
2.71887
2.66271
2.62794
2.59898
2.56282
2.52494
2.48101
2.42678
2.36872
2.30965
2.25715
2.22786
2.18032
5.58948
5.07081
4.59554
4.13855
3.70785
3.35438
3.02389
2.72211
2.46248
2.26486
2.07082
1.89883
1.74767
1.63837
1.52874
1.42544
1.33506
1.27501
1.21231
1.14977
1.08641
1.03533
0.988759
0.946246
0.906024
0.884952
0.867574
0.848621
0.835558
0.833658
0.841261
0.885541
1.23958
1.94899
2.55785
2.78461
2.96788
2.99647
2.93062
2.88178
2.8543
2.85819
2.88248
2.87955
2.83814
2.77664
2.70703
2.62877
2.55124
2.50517
2.47495
2.45341
2.439
2.40755
2.36807
2.32185
2.25225
2.17305
2.18487
2.314
2.59508
3.02936
3.39221
3.66938
3.78085
3.77253
3.72698
3.64011
3.57556
3.51378
3.45315
3.4038
3.35348
3.29696
3.24009
3.17711
3.09048
3.00814
2.96524
2.9278
2.88455
2.84425
2.80543
2.75752
2.68884
2.59889
2.54151
2.52328
2.50224
2.46646
2.41916
2.36096
2.29579
2.25344
2.23331
2.19089
5.66319
5.19418
4.75005
4.30421
3.90982
3.56806
3.24474
2.93266
2.6869
2.46875
2.26621
2.08695
1.94018
1.81037
1.68605
1.57443
1.48214
1.4113
1.33629
1.26165
1.19345
1.14049
1.09278
1.04518
0.999128
0.956257
0.921263
0.884589
0.857497
0.844481
0.885792
1.18718
1.80932
2.27789
2.46286
2.51344
2.54865
2.56639
2.57107
2.60431
2.64176
2.6797
2.73653
2.77221
2.75627
2.7176
2.66717
2.5992
2.51328
2.4654
2.43874
2.4266
2.41703
2.37665
2.33742
2.30057
2.25163
2.17549
2.09361
2.06169
2.08169
2.18896
2.43964
2.80255
3.16159
3.4146
3.54612
3.53761
3.51756
3.46473
3.42553
3.3806
3.32752
3.28131
3.23145
3.17426
3.10088
3.004
2.91647
2.87304
2.85013
2.82934
2.80497
2.77404
2.72137
2.62561
2.52543
2.46196
2.42565
2.40703
2.38783
2.35817
2.32202
2.28601
2.25244
2.19291
5.72551
5.29251
4.8692
4.45014
4.09428
3.76139
3.43465
3.13229
2.89983
2.66952
2.46056
2.26238
2.12239
1.97715
1.8467
1.72196
1.62626
1.54398
1.45853
1.38342
1.31655
1.25777
1.2002
1.14792
1.09791
1.05356
1.00892
0.970316
0.944379
0.985121
1.28807
1.93216
2.35851
2.4806
2.43387
2.37839
2.32254
2.27587
2.24184
2.23389
2.27716
2.35407
2.44908
2.51805
2.54851
2.56861
2.55188
2.50679
2.45851
2.428
2.41319
2.40535
2.3681
2.33232
2.30868
2.27747
2.23048
2.16641
2.09067
2.0208
1.99856
1.98398
1.99475
2.07319
2.26811
2.54752
2.87556
3.09647
3.28161
3.32025
3.32714
3.31023
3.30127
3.27499
3.22801
3.17068
3.09634
3.00043
2.89693
2.83965
2.81391
2.78902
2.76541
2.74103
2.70917
2.65508
2.56576
2.46002
2.39309
2.35943
2.33908
2.32795
2.31508
2.29354
2.26921
2.20462
5.78751
5.38709
4.98259
4.59293
4.25762
3.9334
3.59823
3.32638
3.08858
2.85706
2.62575
2.44144
2.29218
2.13389
1.99599
1.86597
1.77503
1.67394
1.58112
1.49037
1.42896
1.36992
1.30381
1.24912
1.1948
1.14233
1.08952
1.05195
1.09666
1.45075
2.14962
2.5864
2.6423
2.56615
2.46417
2.383
2.31484
2.26184
2.22691
2.18195
2.12784
2.10778
2.11713
2.14937
2.17184
2.21478
2.24835
2.27227
2.29843
2.30241
2.28908
2.28303
2.28538
2.29302
2.28318
2.24687
2.19398
2.13899
2.08466
2.0296
1.97505
1.93285
1.91597
1.90233
1.90667
1.94711
2.06433
2.25987
2.52405
2.77033
2.97826
3.11765
3.17436
3.19729
3.18054
3.13738
3.07748
2.9837
2.89014
2.83072
2.79699
2.76424
2.73118
2.69453
2.66092
2.63083
2.58674
2.51335
2.4169
2.34264
2.31219
2.29604
2.28274
2.26949
2.25161
2.19991
5.83701
5.46453
5.08487
4.72585
4.40406
4.08304
3.75576
3.50136
3.25971
3.025
2.7844
2.61586
2.44591
2.28924
2.13316
2.0161
1.91347
1.80158
1.70231
1.60913
1.5473
1.47464
1.40614
1.34179
1.28223
1.23447
1.19705
1.26862
1.70876
2.45914
2.87432
2.88223
2.76841
2.65301
2.55936
2.48825
2.42136
2.35567
2.28664
2.2033
2.11496
2.0713
2.03881
2.01197
1.996
1.98958
1.97676
1.96982
1.97592
1.97881
2.00748
2.06017
2.10556
2.12906
2.14288
2.1556
2.14158
2.11002
2.06708
2.02049
1.96146
1.90836
1.87538
1.85804
1.84875
1.83221
1.81515
1.8149
1.87091
2.00803
2.19997
2.4657
2.69344
2.93405
3.02433
3.01521
2.98361
2.92722
2.8836
2.84953
2.80088
2.75588
2.71915
2.6792
2.63282
2.59119
2.55713
2.513
2.44965
2.37404
2.3077
2.27208
2.25331
2.23787
2.22358
2.17783
5.90233
5.54913
5.18988
4.85169
4.54032
4.21969
3.91053
3.65736
3.42139
3.16982
2.94557
2.77575
2.59801
2.43391
2.26782
2.16404
2.04525
1.93149
1.82141
1.73011
1.66138
1.57847
1.50715
1.4366
1.36648
1.33207
1.43861
2.00658
2.88012
3.22016
3.13709
3.00366
2.87354
2.77267
2.7
2.62532
2.54404
2.45668
2.36715
2.27136
2.18012
2.10641
2.04473
1.9974
1.96662
1.9411
1.91847
1.89796
1.85358
1.77883
1.73991
1.74332
1.7769
1.82248
1.88651
1.96456
1.98314
1.98413
1.9671
1.938
1.91318
1.87912
1.85719
1.83989
1.81243
1.78812
1.76573
1.74563
1.72855
1.69745
1.70679
1.7862
1.94257
2.18385
2.42426
2.6461
2.77396
2.77537
2.78522
2.77501
2.75923
2.74687
2.72661
2.69121
2.64658
2.58757
2.51888
2.46941
2.4313
2.38899
2.34009
2.28057
2.22783
2.2044
2.1904
2.14977
5.97078
5.62603
5.28254
4.95743
4.65012
4.34112
4.05276
3.79862
3.5589
3.30131
3.09841
2.92398
2.75361
2.5606
2.40871
2.30101
2.17384
2.05724
1.93235
1.85645
1.77127
1.68512
1.5978
1.5198
1.47927
1.62492
2.2798
3.24357
3.55942
3.47664
3.26528
3.10136
2.99784
2.90862
2.8263
2.74809
2.66801
2.58318
2.49219
2.38681
2.27097
2.17635
2.11147
2.05703
2.01005
1.96548
1.92111
1.87666
1.83294
1.78364
1.71491
1.65758
1.62864
1.62116
1.63053
1.66291
1.70774
1.75325
1.77505
1.76493
1.76756
1.78148
1.76844
1.75696
1.76664
1.76338
1.74564
1.72419
1.6868
1.64568
1.61153
1.60154
1.5961
1.6274
1.72598
1.89475
2.12819
2.32456
2.50118
2.56552
2.60095
2.62378
2.63111
2.64433
2.63463
2.59694
2.52273
2.45642
2.40976
2.3771
2.34475
2.30383
2.24143
2.17966
2.15612
2.11693
6.01921
5.68655
5.36024
5.05118
4.75068
4.45496
4.18386
3.93409
3.68906
3.44332
3.24675
3.0694
2.89195
2.69356
2.55229
2.43132
2.30465
2.17019
2.05159
1.97146
1.8786
1.78502
1.69395
1.65276
1.84252
2.6212
3.56486
3.87799
3.79668
3.60693
3.39827
3.22387
3.11407
3.02321
2.93668
2.85308
2.76839
2.68196
2.5929
2.49665
2.39023
2.28583
2.20014
2.12934
2.06538
2.00488
1.9497
1.9
1.85678
1.8117
1.74798
1.66632
1.60584
1.5841
1.56725
1.54792
1.53594
1.53067
1.54382
1.55724
1.54685
1.55319
1.57588
1.6028
1.64939
1.67265
1.67556
1.6667
1.64103
1.60711
1.5868
1.56063
1.53563
1.51477
1.50931
1.51787
1.56696
1.67652
1.82023
2.0018
2.20723
2.31182
2.38678
2.46984
2.51474
2.51274
2.49602
2.46583
2.41529
2.36711
2.34208
2.30786
2.25648
2.19046
2.13843
2.08523
6.04698
5.73499
5.43501
5.14247
4.84298
4.55674
4.30982
4.06736
3.81572
3.57781
3.39108
3.20753
3.01974
2.82421
2.6891
2.55615
2.42464
2.27988
2.17172
2.08162
1.97404
1.87742
1.84584
2.10464
3.04121
3.99334
4.2106
4.09594
3.89046
3.70009
3.54546
3.39001
3.24264
3.12793
3.03495
2.94888
2.86282
2.7757
2.68774
2.59442
2.48991
2.3792
2.28252
2.20771
2.14313
2.08071
2.02073
1.96409
1.91019
1.85589
1.79928
1.72647
1.64096
1.57879
1.54094
1.51476
1.49648
1.48595
1.47661
1.45848
1.42324
1.38938
1.38088
1.38414
1.40972
1.44997
1.49323
1.5399
1.54762
1.52664
1.50735
1.49092
1.48422
1.48312
1.47797
1.46616
1.4508
1.43109
1.42417
1.46121
1.54907
1.70794
1.88864
2.05712
2.18034
2.27679
2.36189
2.38534
2.37638
2.33677
2.27995
2.25498
2.2382
2.20173
2.14328
2.07508
6.13206
5.8215
5.53133
5.2457
4.9528
4.67892
4.4348
4.19253
3.93557
3.71587
3.52974
3.34187
3.13869
2.95328
2.82175
2.6786
2.54004
2.39023
2.29218
2.18126
2.07402
2.07335
2.44361
3.52161
4.5151
4.55324
4.36875
4.14799
3.96268
3.83535
3.71618
3.56998
3.39546
3.23824
3.12174
3.02463
2.93555
2.85238
2.7716
2.68528
2.58426
2.46766
2.35534
2.26613
2.1948
2.13205
2.07475
2.02128
1.96803
1.9123
1.85376
1.78702
1.71016
1.62881
1.55639
1.51832
1.4932
1.46981
1.44781
1.42913
1.40971
1.37754
1.32379
1.28651
1.2725
1.27325
1.28481
1.31214
1.35597
1.37133
1.37086
1.37975
1.38921
1.39785
1.40052
1.40624
1.40604
1.39049
1.36432
1.33172
1.31119
1.32409
1.37347
1.48292
1.64158
1.80358
1.96088
2.10637
2.2269
2.23957
2.21802
2.17444
2.1504
2.12428
2.11355
2.08683
6.21945
5.90794
5.61755
5.33243
5.04377
4.78327
4.541
4.30018
4.05038
3.83991
3.64413
3.45313
3.25209
3.08494
2.94223
2.79893
2.64005
2.50366
2.39779
2.27245
2.33305
2.88595
4.15078
4.9405
4.9516
4.75191
4.49575
4.29179
4.15243
4.02081
3.87745
3.7097
3.52331
3.3541
3.22149
3.11056
3.01121
2.91972
2.83176
2.74216
2.64389
2.53215
2.41994
2.32934
2.25907
2.19801
2.13948
2.0786
2.0134
1.94738
1.88584
1.82674
1.76534
1.70278
1.63804
1.57602
1.52336
1.47971
1.44333
1.41538
1.39525
1.36995
1.32984
1.28525
1.25078
1.2261
1.21013
1.19856
1.19458
1.19936
1.20841
1.22432
1.23351
1.24588
1.26205
1.27875
1.29945
1.30849
1.30429
1.29426
1.2733
1.25177
1.24492
1.25632
1.28409
1.33854
1.43807
1.5711
1.73489
1.88221
1.98596
2.05206
2.05025
2.00731
2.00619
2.01428
6.20765
5.99681
5.69481
5.40487
5.13054
4.88341
4.64128
4.39491
4.16097
3.96435
3.76061
3.5631
3.36196
3.21424
3.06227
2.91174
2.74744
2.61632
2.49546
2.6118
3.48452
4.85474
5.59061
5.4187
5.07745
4.83617
4.64041
4.47258
4.32211
4.1615
3.98461
3.79827
3.6165
3.45598
3.32175
3.2061
3.10115
3.00094
2.90094
2.79917
2.6945
2.58706
2.47987
2.38186
2.30482
2.24626
2.19515
2.14175
2.08106
2.01306
1.93858
1.85702
1.77433
1.71259
1.67369
1.6347
1.59068
1.54108
1.48554
1.42954
1.38304
1.35708
1.3396
1.31119
1.26798
1.22382
1.19701
1.17498
1.14602
1.13005
1.12789
1.12312
1.11216
1.11059
1.12002
1.12742
1.14201
1.15791
1.17256
1.19473
1.2076
1.20182
1.19244
1.19582
1.19612
1.18939
1.18688
1.20092
1.24658
1.33727
1.46439
1.60924
1.73811
1.83844
1.85032
1.88499
5.64086
6.04802
5.80933
5.49075
5.22669
4.98764
4.74778
4.49196
4.27909
4.08101
3.87901
3.66349
3.47931
3.33633
3.17393
3.01334
2.8534
2.73308
2.94997
4.03917
5.60701
6.22463
6.0046
5.56358
5.20759
4.94448
4.7602
4.60152
4.43305
4.25427
4.06939
3.8869
3.71409
3.5558
3.41728
3.29726
3.18758
3.07972
2.96822
2.8543
2.74532
2.6468
2.5538
2.45672
2.35717
2.26843
2.19993
2.14925
2.10501
2.05706
2.00056
1.93293
1.84723
1.74256
1.67243
1.64468
1.62158
1.58855
1.54397
1.48792
1.42237
1.36811
1.33645
1.31591
1.29609
1.26682
1.22588
1.17947
1.14056
1.11632
1.09582
1.07663
1.06899
1.06423
1.05375
1.0334
1.02196
1.02154
1.02728
1.04668
1.07935
1.09232
1.09793
1.10666
1.11338
1.11299
1.10634
1.09355
1.09158
1.0977
1.11811
1.16969
1.25877
1.37958
1.47822
1.62834
3.6647
5.67081
5.87086
5.61758
5.32415
5.07916
4.83587
4.60113
4.39334
4.18825
3.9846
3.76425
3.60409
3.4495
3.27265
3.11016
3.00319
3.3443
4.82587
6.21961
6.59509
6.39267
6.0311
5.69036
5.37065
5.10408
4.89632
4.70714
4.52598
4.34698
4.17111
3.99838
3.82408
3.65312
3.50037
3.37024
3.25433
3.14263
3.02806
2.91105
2.80046
2.70331
2.61556
2.52667
2.43053
2.33302
2.24436
2.1693
2.10851
2.05879
2.0151
1.96747
1.90398
1.82161
1.72872
1.65843
1.62339
1.59388
1.56186
1.52412
1.47509
1.42243
1.37195
1.3273
1.29528
1.2721
1.24749
1.21404
1.17276
1.12858
1.09099
1.06351
1.04367
1.03166
1.02189
1.0113
0.99861
0.972251
0.94767
0.945159
0.951938
0.968855
0.976361
0.98046
0.995396
1.00456
1.00711
1.0125
1.02022
1.02888
1.03433
1.0402
1.04815
1.06747
1.09927
1.21449
1.55822
4.13235
5.64402
5.7111
5.46212
5.18874
4.93414
4.69573
4.49639
4.29824
4.09483
3.8773
3.72347
3.54082
3.37991
3.31544
3.87148
5.60414
7.0188
7.28131
7.0109
6.54831
6.14914
5.85294
5.56568
5.27456
5.03457
4.83266
4.6433
4.45965
4.28128
4.1038
3.92222
3.74289
3.57953
3.43672
3.30925
3.19132
3.07853
2.9693
2.86424
2.76258
2.66285
2.56507
2.46886
2.37632
2.29194
2.21616
2.14783
2.084
2.02071
1.9603
1.90946
1.85931
1.7985
1.73168
1.66847
1.61441
1.56809
1.52989
1.49491
1.45321
1.40688
1.36699
1.33534
1.30274
1.26399
1.22446
1.186
1.14368
1.10301
1.07314
1.04766
1.02618
1.01153
0.999614
0.982889
0.96268
0.937767
0.913715
0.901806
0.892804
0.881236
0.873943
0.876185
0.885817
0.897804
0.907891
0.922678
0.943855
0.967572
0.978417
0.976334
0.969881
0.957165
0.968476
1.02832
1.85974
4.44567
5.54874
5.56464
5.32133
5.03116
4.81431
4.6037
4.40683
4.17202
4.00178
3.82695
3.63428
3.67254
4.53155
6.70293
7.73729
7.61293
7.37105
7.01725
6.65589
6.32165
6.01493
5.71427
5.43007
5.17893
4.95718
4.75242
4.55506
4.36178
4.17174
3.9876
3.81479
3.65583
3.50861
3.37053
3.2417
3.12426
3.01904
2.92109
2.82247
2.71765
2.60618
2.49459
2.39646
2.31817
2.25175
2.18857
2.12287
2.05145
1.9768
1.90689
1.85086
1.80832
1.76553
1.71315
1.65899
1.60879
1.55586
1.49549
1.43623
1.40039
1.38064
1.36226
1.33768
1.30342
1.26347
1.21132
1.14769
1.11115
1.09339
1.07507
1.05151
1.02759
1.00406
0.974812
0.949304
0.929518
0.905306
0.88876
0.876066
0.857826
0.841675
0.836181
0.834641
0.83283
0.831086
0.831506
0.839629
0.856036
0.875659
0.891753
0.894249
0.886862
0.879531
1.00032
1.06216
2.15849
4.603
5.46255
5.43811
5.17511
4.91099
4.70327
4.50373
4.29565
4.11456
3.89613
4.03736
5.3831
7.61925
8.80393
8.64263
7.99232
7.41698
7.04484
6.75677
6.47049
6.1651
5.85706
5.5709
5.30932
5.06755
4.84101
4.6256
4.41956
4.22535
4.04653
3.88275
3.72949
3.58216
3.43909
3.30147
3.17295
3.05797
2.95578
2.85822
2.75711
2.64925
2.53804
2.43508
2.34915
2.27669
2.21177
2.1479
2.07891
2.00506
1.93378
1.86861
1.80641
1.75379
1.71429
1.6774
1.63267
1.57439
1.51291
1.46567
1.42649
1.388
1.3591
1.33871
1.32169
1.29904
1.25845
1.19646
1.13541
1.09505
1.07569
1.06544
1.05374
1.03129
0.994713
0.954606
0.926823
0.906971
0.887455
0.870383
0.849411
0.833897
0.829865
0.824821
0.81279
0.790837
0.769241
0.761466
0.762964
0.770245
0.786773
0.805987
0.81119
0.809247
1
1.00098
1.11056
2.40763
4.70155
5.36775
5.30928
5.05543
4.81555
4.58782
4.39869
4.21361
4.49484
6.30826
8.88889
9.29285
8.98561
8.63637
8.16453
7.65998
7.22777
6.88905
6.58402
6.28318
5.99143
5.712
5.44064
5.17623
4.92112
4.68244
4.46844
4.27979
4.10892
3.94737
3.78966
3.63525
3.48779
3.34965
3.22136
3.10222
2.99059
2.88254
2.77454
2.66831
2.56724
2.47236
2.38533
2.30568
2.2324
2.16384
2.09586
2.02595
1.95828
1.89763
1.83945
1.78187
1.72939
1.6776
1.62418
1.56988
1.51985
1.48031
1.44504
1.41133
1.38285
1.35754
1.32409
1.27552
1.22452
1.18494
1.14975
1.1239
1.10161
1.0798
1.0576
1.03028
0.998537
0.971805
0.947653
0.920933
0.889807
0.863433
0.857814
0.851689
0.84
0.823862
0.803428
0.779471
0.759854
0.747459
0.740747
0.736511
0.73537
0.735723
0.73401
0.731963
1
1
1.0023
1.16574
2.61089
4.74388
5.23893
5.18059
4.95565
4.69646
4.49296
5.01961
7.47501
9.85473
10.5156
10.0385
9.17456
8.61556
8.2258
7.83997
7.43308
7.03768
6.67784
6.35758
6.07
5.80084
5.53864
5.27596
5.01138
4.75612
4.52947
4.3366
4.16565
4.00347
3.84117
3.67701
3.51925
3.37676
3.251
3.13604
3.02587
2.91771
2.80824
2.69743
2.59247
2.49818
2.41132
2.32872
2.25029
2.17843
2.11409
2.05302
1.98724
1.91723
1.86508
1.82637
1.77602
1.71641
1.65533
1.60034
1.54602
1.48287
1.44536
1.43276
1.41779
1.3892
1.34716
1.28491
1.21933
1.19722
1.19077
1.17349
1.14336
1.10954
1.08013
1.05568
1.03547
1.01463
0.986926
0.951601
0.914615
0.88632
0.862342
0.839913
0.820438
0.805777
0.79043
0.770884
0.756978
0.747683
0.73462
0.723685
0.716665
0.710258
0.704455
0.686897
1
1
1.00001
1.00428
1.22216
2.78414
4.66592
5.15239
5.0643
4.85107
5.5398
8.89456
11.0374
10.8386
10.6039
10.1165
9.40355
8.77898
8.32902
7.94266
7.54766
7.14558
6.76662
6.4277
6.1254
5.84923
5.5896
5.33688
5.08539
4.83793
4.60504
4.39588
4.20931
4.03735
3.87073
3.70425
3.54541
3.40325
3.27734
3.16055
3.04757
2.93834
2.83281
2.72528
2.61624
2.51748
2.42867
2.34208
2.2565
2.17789
2.11218
2.05832
2.00853
1.95416
1.89084
1.81773
1.7493
1.68824
1.63342
1.59004
1.55488
1.51848
1.4835
1.44351
1.39738
1.35338
1.31038
1.26826
1.23727
1.21665
1.19008
1.15663
1.11755
1.08143
1.05497
1.036
1.0199
1.00132
0.975582
0.940184
0.902019
0.873979
0.854001
0.835119
0.817519
0.802216
0.787311
0.773197
0.759833
0.741227
0.721834
0.711089
0.703731
0.696536
0.688021
0.663204
1
1
1
1.00003
1.00714
1.27318
2.81885
4.77489
4.89561
6.02974
9.85048
12.3681
12.4183
11.4293
10.6383
10.1146
9.56978
8.98304
8.46255
8.02295
7.61414
7.20868
6.82034
6.4696
6.1565
5.87108
5.60574
5.35649
5.11956
4.8898
4.66352
4.44402
4.23887
4.04951
3.87849
3.72183
3.57157
3.42982
3.30495
3.1852
3.06618
2.9498
2.83887
2.7381
2.63765
2.53695
2.44587
2.35978
2.27911
2.20732
2.14305
2.08083
2.01818
1.95507
1.8881
1.81699
1.74943
1.69037
1.64636
1.61107
1.57196
1.52883
1.48594
1.44031
1.39346
1.34821
1.3053
1.27455
1.25495
1.23224
1.20196
1.16262
1.1175
1.08019
1.05502
1.03694
1.02111
1.00388
0.98066
0.946304
0.905254
0.874914
0.855441
0.837101
0.819703
0.810054
0.80208
0.789946
0.770229
0.743654
0.721422
0.710096
0.701467
0.693118
0.683354
0.656947
1
1
1
1
1.00006
1.00908
1.31378
2.89366
4.5964
11.0873
13.3373
12.7153
12.4281
11.6842
10.6694
10.0711
9.57613
9.08692
8.59227
8.12119
7.68181
7.26297
6.8686
6.5134
6.19884
5.91394
5.64883
5.39885
5.15984
4.92654
4.69684
4.47217
4.25879
4.06659
3.89541
3.74808
3.63564
3.53158
3.39958
3.2566
3.11107
2.97068
2.85005
2.74684
2.66896
2.60272
2.52426
2.44437
2.36742
2.29254
2.21739
2.14183
2.06841
1.99855
1.93121
1.86542
1.80319
1.75114
1.70857
1.66606
1.61931
1.56943
1.51784
1.46676
1.41879
1.37759
1.34788
1.32691
1.30543
1.27931
1.2437
1.1922
1.13638
1.10014
1.08036
1.06584
1.05259
1.03775
1.01498
0.974951
0.924097
0.891337
0.875206
0.863605
0.857927
0.852714
0.842399
0.824726
0.797658
0.762752
0.737134
0.724498
0.714375
0.703618
0.691705
0.663084
1
1
1
1
1
1.00008
1.01209
1.36698
6.4512
16.117
15.8227
13.6802
12.8971
12.0478
10.8288
10.049
9.51576
9.05921
8.62265
8.17711
7.73731
7.31535
6.91481
6.54452
6.2179
5.93312
5.67608
5.4338
5.1961
4.9534
4.69984
4.44657
4.22618
4.05463
3.91677
3.79338
3.65714
3.49425
3.3334
3.18434
3.0539
2.94462
2.84648
2.75315
2.6583
2.55945
2.47045
2.38889
2.31139
2.23572
2.16082
2.08642
2.01296
1.94182
1.87376
1.80936
1.75204
1.70511
1.66391
1.62189
1.57717
1.52897
1.47679
1.42263
1.37306
1.3372
1.31347
1.29318
1.27175
1.24644
1.21094
1.15818
1.10188
1.0686
1.05053
1.03687
1.02464
1.01126
0.99109
0.952664
0.899843
0.861165
0.846966
0.842539
0.839531
0.834768
0.824846
0.807154
0.778195
0.739869
0.714839
0.704081
0.694749
0.683254
0.670198
0.641539
)
;

boundaryField
{
    inlet
    {
        type            fixedValue;
        value           uniform 1;
    }
    outlet
    {
        type            zeroGradient;
    }
    bottom
    {
        type            symmetryPlane;
    }
    top
    {
        type            symmetryPlane;
    }
    obstacle
    {
        type            zeroGradient;
    }
    defaultFaces
    {
        type            empty;
    }
}


// ************************************************************************* //
