/*--------------------------------*- C++ -*----------------------------------*\
  =========                 |
  \\      /  F ield         | OpenFOAM: The Open Source CFD Toolbox
   \\    /   O peration     | Website:  https://openfoam.org
    \\  /    A nd           | Version:  7
     \\/     M anipulation  |
\*---------------------------------------------------------------------------*/
FoamFile
{
    version     2.0;
    format      ascii;
    class       volScalarField;
    location    "2.6";
    object      p;
}
// * * * * * * * * * * * * * * * * * * * * * * * * * * * * * * * * * * * * * //

dimensions      [1 -1 -2 0 0 0 0];

internalField   nonuniform List<scalar> 
258048
(
1
1
1
1
1
1
1
1
1
1
1
1
1
1
1
1
1
1
1
1
1
1
1
1
1
1
1
1
1
1
1
1
1
1
1
1
1
1
1
1
1
1
1
1
1
1
1
1
1
1
1
1
1
1
1
1
1
1
1
1
1
1
1
1
1
1
1
1
1
1
1
1
1
1
1
1
1
1
1
1
1
1
1
1
1
1
1
1
1
1
1
1
1
1
1
1
1
1
1
5.6464
10.305
10.4313
10.4585
10.4927
10.5147
10.5325
10.551
10.577
10.6151
10.6624
10.7057
10.7387
10.7646
10.7889
10.8121
10.8327
10.8497
10.8661
10.8883
10.9261
10.9762
11.0275
11.0728
11.1017
11.1072
11.0956
11.0819
11.0798
11.1145
11.1838
11.2537
11.3103
11.334
11.319
11.291
11.2767
11.3069
11.377
11.4514
11.5051
11.5101
11.4761
11.4378
11.4315
11.4734
11.5468
11.6162
11.6551
11.6414
11.599
11.5665
11.5726
11.6281
11.7059
11.7753
11.8119
11.8011
11.7678
11.7428
11.7443
11.7753
11.8227
11.8624
11.8779
11.8723
11.8637
11.8651
11.8859
11.9219
11.9525
11.964
11.9596
11.9539
11.959
11.9777
11.9988
12.0083
12.0025
11.9902
11.9833
11.9914
12.0153
12.0392
12.0503
12.0503
12.0471
12.0503
12.0602
12.071
12.0776
12.077
12.0667
1
1
1
1
1
1
1
1
1
1
1
1
1
1
1
1
1
1
1
1
1
1
1
1
1
1
1
1
1
1
1
1
1
1
1
1
1
1
1
1
1
1
1
1
1
1
1
1
1
1
1
1
1
1
1
1
1
1
1
1
1
1
1
1
1
1
1
1
1
1
1
1
1
1
1
1
1
1
1
1
1
1
1
1
1
1
1
1
1
1
1
1
1
1
1
1
1
1
1
5.62454
10.2946
10.4248
10.4514
10.4907
10.5206
10.5455
10.5667
10.5886
10.6146
10.6471
10.6854
10.7228
10.7587
10.794
10.8248
10.8465
10.8585
10.8672
10.8818
10.9166
10.9705
11.0258
11.0728
11.1018
11.107
11.0971
11.0878
11.0913
11.1241
11.1854
11.2493
11.3004
11.3237
11.3152
11.2964
11.2883
11.3173
11.38
11.4476
11.4962
11.503
11.4753
11.4438
11.4402
11.4791
11.5463
11.6105
11.6467
11.6366
11.6012
11.5746
11.5827
11.6356
11.7085
11.7728
11.8056
11.7954
11.7652
11.7431
11.7461
11.7773
11.8233
11.8609
11.8749
11.8699
11.8625
11.8651
11.8869
11.9228
11.9526
11.9634
11.9586
11.9524
11.9567
11.9749
11.9969
12.0079
12.0034
11.9922
11.9853
11.9923
12.0146
12.0376
12.0489
12.0496
12.0472
12.0506
12.0602
12.0706
12.077
12.0765
12.0664
1
1
1
1
1
1
1
1
1
1
1
1
1
1
1
1
1
1
1
1
1
1
1
1
1
1
1
1
1
1
1
1
1
1
1
1
1
1
1
1
1
1
1
1
1
1
1
1
1
1
1
1
1
1
1
1
1
1
1
1
1
1
1
1
1
1
1
1
1
1
1
1
1
1
1
1
1
1
1
1
1
1
1
1
1
1
1
1
1
1
1
1
1
1
1
1
1
1
1
5.58234
10.2948
10.4119
10.4388
10.4837
10.5224
10.5582
10.5866
10.6078
10.625
10.6412
10.6643
10.6996
10.7433
10.7898
10.8323
10.8597
10.8694
10.8704
10.8771
10.9044
10.9583
11.0175
11.0669
11.0963
11.1013
11.094
11.0903
11.1025
11.139
11.1925
11.2472
11.2871
11.3032
11.2994
11.2923
11.2984
11.3336
11.3882
11.4447
11.4828
11.4862
11.4655
11.4452
11.4502
11.4891
11.5487
11.6035
11.6316
11.6216
11.595
11.579
11.594
11.6465
11.7136
11.7704
11.7965
11.7856
11.7595
11.7419
11.7478
11.7801
11.8244
11.8587
11.8702
11.8657
11.8601
11.8645
11.8878
11.9237
11.9524
11.9623
11.9574
11.9511
11.9545
11.9712
11.993
12.0053
12.0025
11.9935
11.9877
11.9938
12.0136
12.0343
12.0448
12.0463
12.0454
12.0496
12.0592
12.0689
12.0748
12.0741
12.0641
1
1
1
1
1
1
1
1
1
1
1
1
1
1
1
1
1
1
1
1
1
1
1
1
1
1
1
1
1
1
1
1
1
1
1
1
1
1
1
1
1
1
1
1
1
1
1
1
1
1
1
1
1
1
1
1
1
1
1
1
1
1
1
1
1
1
1
1
1
1
1
1
1
1
1
1
1
1
1
1
1
1
1
1
1
1
1
1
1
1
1
1
1
1
1
1
1
1
1
5.51492
10.2956
10.4009
10.4261
10.4748
10.5234
10.569
10.6049
10.6272
10.6367
10.6401
10.6493
10.6775
10.7291
10.7864
10.837
10.8682
10.8783
10.8763
10.8788
10.8999
10.9472
11.0052
11.0548
11.0845
11.0938
11.0949
11.1026
11.1221
11.1555
11.198
11.2396
11.2682
11.2814
11.2872
11.2953
11.3151
11.3516
11.3957
11.4381
11.4652
11.4683
11.458
11.4513
11.4636
11.5001
11.5496
11.5934
11.6141
11.6071
11.5927
11.5887
11.6096
11.6592
11.7181
11.7653
11.7842
11.7736
11.7532
11.7415
11.7512
11.784
11.8249
11.8544
11.8633
11.8603
11.8576
11.8649
11.89
11.9246
11.9509
11.9592
11.9546
11.9491
11.9525
11.9679
11.9888
12.0014
12.0009
11.9947
11.9906
11.9962
12.0136
12.0312
12.0403
12.0425
12.0431
12.0487
12.0586
12.0678
12.073
12.0719
12.0619
1
1
1
1
1
1
1
1
1
1
1
1
1
1
1
1
1
1
1
1
1
1
1
1
1
1
1
1
1
1
1
1
1
1
1
1
1
1
1
1
1
1
1
1
1
1
1
1
1
1
1
1
1
1
1
1
1
1
1
1
1
1
1
1
1
1
1
1
1
1
1
1
1
1
1
1
1
1
1
1
1
1
1
1
1
1
1
1
1
1
1
1
1
1
1
1
1
1
1
5.41674
10.2988
10.4028
10.4193
10.4616
10.5115
10.5646
10.6112
10.6419
10.6531
10.6513
10.6497
10.668
10.717
10.7752
10.8268
10.8626
10.8805
10.8868
10.8914
10.9064
10.9411
10.99
11.0349
11.065
11.0823
11.0992
11.1207
11.1444
11.1715
11.201
11.2275
11.2462
11.2603
11.2776
11.3016
11.3328
11.3682
11.4014
11.4283
11.4448
11.4496
11.45
11.4572
11.478
11.5113
11.5494
11.581
11.5952
11.5942
11.5909
11.598
11.6257
11.6715
11.7211
11.758
11.7699
11.7606
11.7467
11.7416
11.7555
11.7883
11.8245
11.848
11.8546
11.8538
11.855
11.8665
11.8931
11.9251
11.9475
11.9538
11.9502
11.9466
11.9512
11.9658
11.9848
11.9965
11.9978
11.9945
11.9929
11.9992
12.0144
12.0281
12.0347
12.0368
12.039
12.0467
12.0574
12.0664
12.0707
12.0685
12.0582
1
1
1
1
1
1
1
1
1
1
1
1
1
1
1
1
1
1
1
1
1
1
1
1
1
1
1
1
1
1
1
1
1
1
1
1
1
1
1
1
1
1
1
1
1
1
1
1
1
1
1
1
1
1
1
1
1
1
1
1
1
1
1
1
1
1
1
1
1
1
1
1
1
1
1
1
1
1
1
1
1
1
1
1
1
1
1
1
1
1
1
1
1
1
1
1
1
1
1
5.30053
10.2967
10.4137
10.4193
10.4476
10.491
10.5459
10.6004
10.644
10.6682
10.6718
10.6673
10.6747
10.7083
10.7561
10.8033
10.8439
10.8755
10.8971
10.9107
10.9222
10.9419
10.9742
11.0103
11.0403
11.0713
11.1081
11.1411
11.165
11.1824
11.1976
11.2106
11.2232
11.2433
11.2747
11.3126
11.3497
11.3805
11.4019
11.4148
11.4241
11.4321
11.4445
11.4648
11.4914
11.5199
11.5466
11.5667
11.5777
11.5832
11.5909
11.6086
11.6403
11.6812
11.7214
11.7484
11.7551
11.7485
11.7407
11.7424
11.7609
11.7925
11.8227
11.8395
11.8445
11.8471
11.8528
11.8695
11.8969
11.9248
11.942
11.9459
11.9441
11.9441
11.9508
11.9651
11.9812
11.9909
11.9932
11.9925
11.994
12.0025
12.0157
12.0252
12.0286
12.0299
12.0335
12.0434
12.0557
12.065
12.0683
12.0644
12.0536
1
1
1
1
1
1
1
1
1
1
1
1
1
1
1
1
1
1
1
1
1
1
1
1
1
1
1
1
1
1
1
1
1
1
1
1
1
1
1
1
1
1
1
1
1
1
1
1
1
1
1
1
1
1
1
1
1
1
1
1
1
1
1
1
1
1
1
1
1
1
1
1
1
1
1
1
1
1
1
1
1
1
1
1
1
1
1
1
1
1
1
1
1
1
1
1
1
1
1
5.16876
10.2891
10.4311
10.4255
10.4379
10.4679
10.5195
10.5787
10.6339
10.6736
10.6923
10.6925
10.6904
10.7038
10.7334
10.7737
10.8236
10.8718
10.9098
10.932
10.941
10.9465
10.9598
10.9851
11.0166
11.0653
11.1186
11.1588
11.1795
11.1859
11.1872
11.1899
11.2013
11.2334
11.2792
11.3266
11.3644
11.387
11.3962
11.3984
11.4041
11.4173
11.4421
11.4733
11.5024
11.5246
11.5408
11.5525
11.5629
11.5749
11.5929
11.6191
11.6521
11.6869
11.7177
11.7362
11.7403
11.7375
11.7358
11.7442
11.7668
11.7954
11.8186
11.8298
11.8342
11.8398
11.8512
11.8729
11.9004
11.9233
11.9347
11.9365
11.937
11.9412
11.951
11.9653
11.978
11.9848
11.9874
11.9891
11.9942
12.0058
12.017
12.0218
12.0223
12.0221
12.0269
12.0391
12.0532
12.0633
12.0656
12.0597
12.0482
1
1
1
1
1
1
1
1
1
1
1
1
1
1
1
1
1
1
1
1
1
1
1
1
1
1
1
1
1
1
1
1
1
1
1
1
1
1
1
1
1
1
1
1
1
1
1
1
1
1
1
1
1
1
1
1
1
1
1
1
1
1
1
1
1
1
1
1
1
1
1
1
1
1
1
1
1
1
1
1
1
1
1
1
1
1
1
1
1
1
1
1
1
1
1
1
1
1
1
5.01693
10.2645
10.4476
10.4372
10.4382
10.4518
10.4953
10.5553
10.6189
10.6744
10.7076
10.7145
10.7072
10.7035
10.7151
10.7486
10.8106
10.8732
10.923
10.9504
10.9539
10.947
10.946
10.9637
11.0021
11.066
11.1275
11.1684
11.1837
11.18
11.1708
11.1682
11.1855
11.2325
11.2896
11.3407
11.374
11.3863
11.3844
11.3804
11.3864
11.4074
11.4437
11.4817
11.5098
11.5248
11.5321
11.5389
11.5505
11.5699
11.5973
11.6291
11.6604
11.6881
11.7097
11.7218
11.7259
11.7275
11.7328
11.7481
11.7722
11.7963
11.8123
11.8193
11.8243
11.8331
11.8502
11.8759
11.9024
11.9201
11.9261
11.9272
11.9298
11.9379
11.951
11.965
11.9741
11.9781
11.981
11.9852
11.9943
12.0082
12.0175
12.0179
12.0152
12.0139
12.0199
12.034
12.0499
12.0607
12.0622
12.0545
12.0427
1
1
1
1
1
1
1
1
1
1
1
1
1
1
1
1
1
1
1
1
1
1
1
1
1
1
1
1
1
1
1
1
1
1
1
1
1
1
1
1
1
1
1
1
1
1
1
1
1
1
1
1
1
1
1
1
1
1
1
1
1
1
1
1
1
1
1
1
1
1
1
1
1
1
1
1
1
1
1
1
1
1
1
1
1
1
1
1
1
1
1
1
1
1
1
1
1
1
1
4.84825
10.214
10.4517
10.449
10.45
10.4544
10.4857
10.5395
10.602
10.663
10.7081
10.7255
10.7179
10.7059
10.7076
10.739
10.8047
10.8728
10.9268
10.9556
10.9545
10.9411
10.9349
10.9523
10.9993
11.0687
11.1303
11.1687
11.1783
11.1669
11.1526
11.1505
11.1793
11.239
11.3013
11.3505
11.3766
11.3787
11.3697
11.3627
11.3724
11.4032
11.4486
11.4895
11.5135
11.5205
11.5212
11.526
11.5408
11.5681
11.6034
11.6376
11.6647
11.6848
11.698
11.7062
11.7122
11.7198
11.733
11.7532
11.7756
11.794
11.8038
11.8085
11.8151
11.8281
11.8504
11.8777
11.9014
11.9145
11.9173
11.9187
11.9238
11.9349
11.95
11.9626
11.9685
11.9708
11.9746
11.9819
11.9948
12.0091
12.0161
12.0131
12.0075
12.0057
12.013
12.0286
12.0455
12.0567
12.0574
12.0488
12.0376
1
1
1
1
1
1
1
1
1
1
1
1
1
1
1
1
1
1
1
1
1
1
1
1
1
1
1
1
1
1
1
1
1
1
1
1
1
1
1
1
1
1
1
1
1
1
1
1
1
1
1
1
1
1
1
1
1
1
1
1
1
1
1
1
1
1
1
1
1
1
1
1
1
1
1
1
1
1
1
1
1
1
1
1
1
1
1
1
1
1
1
1
1
1
1
1
1
1
1
4.66369
10.1484
10.4404
10.4544
10.4669
10.4727
10.4935
10.5353
10.5891
10.6452
10.6923
10.7181
10.7201
10.712
10.7121
10.7421
10.8029
10.8679
10.9191
10.9466
10.9455
10.9347
10.9322
10.9539
11.005
11.0713
11.1271
11.1607
11.1644
11.1505
11.1376
11.1414
11.1822
11.2479
11.3088
11.3529
11.3721
11.3666
11.3533
11.3474
11.3637
11.4039
11.4545
11.4944
11.5131
11.513
11.5097
11.5143
11.5337
11.569
11.6099
11.6437
11.6655
11.6772
11.6836
11.69
11.6997
11.7154
11.7361
11.7582
11.7763
11.7876
11.7927
11.7975
11.8073
11.8255
11.8513
11.8776
11.8967
11.9056
11.9082
11.9115
11.9197
11.933
11.9476
11.9574
11.9607
11.9628
11.9686
11.9799
11.9959
12.0089
12.0124
12.007
11.9995
11.9979
12.0068
12.023
12.0399
12.0507
12.0511
12.0428
12.0331
1
1
1
1
1
1
1
1
1
1
1
1
1
1
1
1
1
1
1
1
1
1
1
1
1
1
1
1
1
1
1
1
1
1
1
1
1
1
1
1
1
1
1
1
1
1
1
1
1
1
1
1
1
1
1
1
1
1
1
1
1
1
1
1
1
1
1
1
1
1
1
1
1
1
1
1
1
1
1
1
1
1
1
1
1
1
1
1
1
1
1
1
1
1
1
1
1
1
1
4.45966
10.0788
10.4165
10.4478
10.4772
10.4945
10.5117
10.539
10.5782
10.6249
10.6687
10.7004
10.7149
10.7184
10.7253
10.7528
10.8045
10.8609
10.9057
10.93
10.9329
10.93
10.9354
10.9623
11.0135
11.0729
11.1212
11.1485
11.1483
11.1363
11.1291
11.1408
11.1895
11.2531
11.31
11.3489
11.3614
11.3521
11.3381
11.337
11.3613
11.4083
11.4596
11.4958
11.5084
11.5039
11.4984
11.5042
11.5292
11.5712
11.6151
11.647
11.6628
11.6666
11.6677
11.6737
11.6891
11.7142
11.7414
11.7624
11.7739
11.7774
11.7796
11.7864
11.8019
11.826
11.8532
11.8758
11.8887
11.8941
11.8981
11.9055
11.9179
11.9323
11.9439
11.9492
11.9503
11.9537
11.9633
11.9793
11.9971
12.0076
12.0067
11.9992
11.9912
11.9906
12.0011
12.0174
12.0331
12.0428
12.0431
12.0364
12.029
1
1
1
1
1
1
1
1
1
1
1
1
1
1
1
1
1
1
1
1
1
1
1
1
1
1
1
1
1
1
1
1
1
1
1
1
1
1
1
1
1
1
1
1
1
1
1
1
1
1
1
1
1
1
1
1
1
1
1
1
1
1
1
1
1
1
1
1
1
1
1
1
1
1
1
1
1
1
1
1
1
1
1
1
1
1
1
1
1
1
1
1
1
1
1
1
1
1
1
4.2408
10.0025
10.3987
10.4353
10.4775
10.5074
10.5273
10.5453
10.5706
10.606
10.6462
10.6821
10.7078
10.724
10.7387
10.7639
10.8047
10.8508
10.8891
10.9124
10.9218
10.9275
10.9407
10.9721
11.0197
11.0714
11.1127
11.1349
11.1349
11.1274
11.1264
11.1454
11.1948
11.2532
11.3052
11.3385
11.3463
11.3369
11.3263
11.3321
11.3634
11.4133
11.4622
11.494
11.501
11.4942
11.4882
11.4965
11.527
11.5734
11.618
11.647
11.6564
11.6541
11.6517
11.6584
11.6809
11.7153
11.7475
11.7649
11.7676
11.7644
11.7646
11.775
11.7983
11.8288
11.8559
11.8722
11.8781
11.8807
11.887
11.9001
11.9173
11.932
11.9392
11.9393
11.9386
11.9439
11.9585
11.9794
11.9976
12.0047
11.9998
11.9903
11.9829
11.984
11.9959
12.0116
12.0253
12.0333
12.0337
12.0296
12.025
1
1
1
1
1
1
1
1
1
1
1
1
1
1
1
1
1
1
1
1
1
1
1
1
1
1
1
1
1
1
1
1
1
1
1
1
1
1
1
1
1
1
1
1
1
1
1
1
1
1
1
1
1
1
1
1
1
1
1
1
1
1
1
1
1
1
1
1
1
1
1
1
1
1
1
1
1
1
1
1
1
1
1
1
1
1
1
1
1
1
1
1
1
1
1
1
1
1
1
4.01139
9.90691
10.3943
10.4246
10.4723
10.5096
10.5345
10.5506
10.5679
10.5947
10.6308
10.6685
10.7013
10.7268
10.7473
10.7706
10.8033
10.841
10.8748
10.8992
10.9146
10.9275
10.9459
10.9774
11.0208
11.0665
11.1031
11.123
11.1266
11.1237
11.1278
11.151
11.1967
11.249
11.2941
11.3222
11.3294
11.3236
11.32
11.3327
11.3686
11.4164
11.4609
11.4877
11.4914
11.4846
11.4803
11.4917
11.5261
11.5741
11.6179
11.6429
11.6467
11.641
11.6367
11.6453
11.6758
11.7184
11.7519
11.7645
11.7589
11.7498
11.7488
11.7636
11.7957
11.8326
11.8582
11.8672
11.8663
11.8664
11.875
11.8942
11.9166
11.9311
11.9337
11.9292
11.9264
11.9337
11.9536
11.9787
11.9964
12.0002
11.9922
11.9812
11.9749
11.9781
11.9909
12.0055
12.0167
12.0225
12.0232
12.0222
12.0203
1
1
1
1
1
1
1
1
1
1
1
1
1
1
1
1
1
1
1
1
1
1
1
1
1
1
1
1
1
1
1
1
1
1
1
1
1
1
1
1
1
1
1
1
1
1
1
1
1
1
1
1
1
1
1
1
1
1
1
1
1
1
1
1
1
1
1
1
1
1
1
1
1
1
1
1
1
1
1
1
1
1
1
1
1
1
1
1
1
1
1
1
1
1
1
1
1
1
1
3.76913
9.79846
10.3942
10.4163
10.4643
10.5029
10.5319
10.5518
10.5686
10.591
10.6234
10.6605
10.6958
10.7254
10.7492
10.7718
10.7999
10.8327
10.8645
10.891
10.9112
10.9287
10.9488
10.9778
11.0171
11.0585
11.0927
11.1136
11.1219
11.1246
11.133
11.1557
11.1945
11.2381
11.2765
11.3025
11.313
11.3139
11.3185
11.338
11.3739
11.4166
11.455
11.4773
11.4807
11.476
11.4753
11.4901
11.5263
11.5729
11.6136
11.6342
11.6348
11.6278
11.6234
11.6358
11.6741
11.7211
11.7531
11.7601
11.7486
11.7346
11.7332
11.7532
11.7938
11.8356
11.8592
11.861
11.8547
11.8523
11.8628
11.8873
11.9142
11.9289
11.928
11.9198
11.915
11.9239
11.9479
11.9757
11.9925
11.9939
11.9841
11.9724
11.9674
11.9725
11.9856
11.9987
12.0072
12.0107
12.0121
12.0142
12.0148
1
1
1
1
1
1
1
1
1
1
1
1
1
1
1
1
1
1
1
1
1
1
1
1
1
1
1
1
1
1
1
1
1
1
1
1
1
1
1
1
1
1
1
1
1
1
1
1
1
1
1
1
1
1
1
1
1
1
1
1
1
1
1
1
1
1
1
1
1
1
1
1
1
1
1
1
1
1
1
1
1
1
1
1
1
1
1
1
1
1
1
1
1
1
1
1
1
1
1
3.5077
9.68434
10.3904
10.4104
10.46
10.4946
10.5239
10.5475
10.5687
10.5916
10.6217
10.6571
10.692
10.7224
10.7477
10.7703
10.7961
10.8262
10.8572
10.8852
10.9086
10.929
10.9492
10.9753
11.0098
11.0471
11.0801
11.1041
11.1189
11.1285
11.1397
11.1591
11.1887
11.2227
11.2553
11.2818
11.2988
11.309
11.3226
11.3458
11.3775
11.4132
11.4442
11.463
11.4688
11.4685
11.4729
11.4915
11.5268
11.5691
11.6042
11.6211
11.621
11.615
11.613
11.6318
11.6754
11.7217
11.7498
11.7516
11.736
11.7196
11.7196
11.7454
11.7926
11.8362
11.8571
11.8535
11.8432
11.8394
11.8513
11.8796
11.9095
11.9246
11.9218
11.9114
11.9053
11.9152
11.9409
11.9694
11.9854
11.9857
11.9757
11.9644
11.9607
11.967
11.9799
11.9912
11.9967
11.9984
12.0006
12.0056
12.0082
1
1
1
1
1
1
1
1
1
1
1
1
1
1
1
1
1
1
1
1
1
1
1
1
1
1
1
1
1
1
1
1
1
1
1
1
1
1
1
1
1
1
1
1
1
1
1
1
1
1
1
1
1
1
1
1
1
1
1
1
1
1
1
1
1
1
1
1
1
1
1
1
1
1
1
1
1
1
1
1
1
1
1
1
1
1
1
1
1
1
1
1
1
1
1
1
1
1
1
3.22776
9.56697
10.3786
10.4055
10.4555
10.4877
10.5163
10.5415
10.5661
10.5912
10.6198
10.6537
10.6887
10.7196
10.7455
10.7681
10.7921
10.8199
10.8496
10.8783
10.9047
10.9281
10.9498
10.9737
11.003
11.0353
11.0663
11.0941
11.1163
11.1325
11.1456
11.1604
11.1806
11.2057
11.2342
11.2633
11.2883
11.3085
11.3295
11.3522
11.3781
11.4055
11.4296
11.4465
11.4561
11.4626
11.4734
11.4952
11.5274
11.5629
11.5912
11.6046
11.6056
11.6026
11.6063
11.6331
11.6783
11.7198
11.7416
11.7388
11.7209
11.7056
11.709
11.7413
11.7915
11.8335
11.8505
11.8439
11.8315
11.8276
11.8411
11.8716
11.9029
11.9182
11.9148
11.9037
11.8977
11.9078
11.9331
11.96
11.9751
11.9756
11.9667
11.9574
11.9553
11.9618
11.9736
11.9823
11.9851
11.9858
11.989
11.9963
12.0005
1
1
1
1
1
1
1
1
1
1
1
1
1
1
1
1
1
1
1
1
1
1
1
1
1
1
1
1
1
1
1
1
1
1
1
1
1
1
1
1
1
1
1
1
1
1
1
1
1
1
1
1
1
1
1
1
1
1
1
1
1
1
1
1
1
1
1
1
1
1
1
1
1
1
1
1
1
1
1
1
1
1
1
1
1
1
1
1
1
1
1
1
1
1
1
1
1
1
1
2.93938
9.43208
10.365
10.405
10.4504
10.4812
10.5102
10.5358
10.5619
10.5884
10.6166
10.6503
10.6861
10.7174
10.7435
10.766
10.7888
10.8143
10.8417
10.8701
10.8988
10.9255
10.9493
10.9724
10.9977
11.0248
11.0534
11.084
11.1122
11.1336
11.1478
11.1591
11.1719
11.1909
11.2175
11.2496
11.2818
11.3099
11.3341
11.3547
11.3748
11.3949
11.4138
11.4298
11.4434
11.4567
11.4739
11.4976
11.5263
11.5548
11.5763
11.5869
11.5894
11.5909
11.6035
11.6381
11.6822
11.716
11.7289
11.721
11.7029
11.6922
11.7026
11.7408
11.7905
11.828
11.8396
11.8307
11.8183
11.8165
11.8323
11.8643
11.8954
11.9102
11.9064
11.896
11.8913
11.9015
11.9245
11.9483
11.962
11.9635
11.957
11.9509
11.9509
11.9571
11.9665
11.9721
11.9725
11.9727
11.9771
11.9864
11.9919
1
1
1
1
1
1
1
1
1
1
1
1
1
1
1
1
1
1
1
1
1
1
1
1
1
1
1
1
1
1
1
1
1
1
1
1
1
1
1
1
1
1
1
1
1
1
1
1
1
1
1
1
1
1
1
1
1
1
1
1
1
1
1
1
1
1
1
1
1
1
1
1
1
1
1
1
1
1
1
1
1
1
1
1
1
1
1
1
1
1
1
1
1
1
1
1
1
1
1
2.65475
9.26298
10.3664
10.4029
10.4445
10.4739
10.5032
10.5294
10.5557
10.5835
10.6123
10.6466
10.6827
10.714
10.74
10.7629
10.7855
10.8099
10.8353
10.8621
10.8911
10.92
10.9464
10.97
10.9933
11.0172
11.0438
11.0751
11.1053
11.1289
11.144
11.1534
11.1625
11.1794
11.207
11.2412
11.2769
11.3082
11.3329
11.3514
11.3672
11.3832
11.3998
11.4165
11.4334
11.4515
11.4727
11.4971
11.5226
11.5451
11.5605
11.568
11.5717
11.5791
11.6025
11.6439
11.6849
11.7097
11.7129
11.6996
11.683
11.6804
11.7007
11.7445
11.7912
11.8206
11.8244
11.8134
11.8029
11.8052
11.8253
11.8589
11.8882
11.9006
11.8964
11.8874
11.885
11.8956
11.9156
11.9349
11.9468
11.9496
11.9462
11.9446
11.9473
11.9526
11.9586
11.9605
11.9589
11.959
11.965
11.976
11.9828
1
1
1
1
1
1
1
1
1
1
1
1
1
1
1
1
1
1
1
1
1
1
1
1
1
1
1
1
1
1
1
1
1
1
1
1
1
1
1
1
1
1
1
1
1
1
1
1
1
1
1
1
1
1
1
1
1
1
1
1
1
1
1
1
1
1
1
1
1
1
1
1
1
1
1
1
1
1
1
1
1
1
1
1
1
1
1
1
1
1
1
1
1
1
1
1
1
1
1
2.38186
9.04418
10.3735
10.3993
10.4385
10.467
10.4958
10.5226
10.5491
10.5782
10.6087
10.6429
10.6768
10.7062
10.7316
10.7559
10.7804
10.806
10.831
10.8561
10.8831
10.9109
10.9383
10.9643
10.9887
11.0123
11.0385
11.069
11.0976
11.1197
11.1346
11.1446
11.155
11.1749
11.2052
11.2397
11.2733
11.3014
11.3229
11.3387
11.3534
11.3699
11.3882
11.4075
11.4264
11.4459
11.4674
11.4912
11.5146
11.5335
11.5451
11.5507
11.5556
11.5697
11.6033
11.6487
11.6853
11.701
11.6949
11.6766
11.6632
11.6697
11.7014
11.75
11.7914
11.8108
11.8062
11.7927
11.7851
11.7934
11.82
11.8555
11.8815
11.8899
11.8848
11.8775
11.878
11.8895
11.9066
11.9207
11.93
11.9342
11.9345
11.9382
11.9438
11.9477
11.9498
11.9478
11.9443
11.9448
11.9526
11.9653
11.9733
1
1
1
1
1
1
1
1
1
1
1
1
1
1
1
1
1
1
1
1
1
1
1
1
1
1
1
1
1
1
1
1
1
1
1
1
1
1
1
1
1
1
1
1
1
1
1
1
1
1
1
1
1
1
1
1
1
1
1
1
1
1
1
1
1
1
1
1
1
1
1
1
1
1
1
1
1
1
1
1
1
1
1
1
1
1
1
1
1
1
1
1
1
1
1
1
1
1
1
2.1242
8.78069
10.3823
10.4032
10.4362
10.4617
10.4883
10.5153
10.5433
10.574
10.6063
10.6397
10.6698
10.6952
10.7189
10.7448
10.7735
10.8027
10.8294
10.8534
10.8763
10.9001
10.9255
10.9535
10.9823
11.0098
11.0371
11.0644
11.0873
11.1043
11.1184
11.1324
11.1498
11.1763
11.2093
11.2416
11.2702
11.2924
11.3082
11.3212
11.3371
11.3576
11.3805
11.4032
11.4234
11.4419
11.461
11.4819
11.5028
11.5195
11.5296
11.5349
11.542
11.5631
11.6036
11.6498
11.6812
11.6883
11.6751
11.6541
11.6459
11.6614
11.7037
11.7547
11.7904
11.7986
11.7863
11.7701
11.7662
11.7819
11.8162
11.8531
11.8748
11.8778
11.8714
11.8656
11.8697
11.8827
11.8972
11.9064
11.9126
11.9177
11.9218
11.9313
11.9397
11.9419
11.94
11.9341
11.929
11.9304
11.94
11.9543
11.963
1
1
1
1
1
1
1
1
1
1
1
1
1
1
1
1
1
1
1
1
1
1
1
1
1
1
1
1
1
1
1
1
1
1
1
1
1
1
1
1
1
1
1
1
1
1
1
1
1
1
1
1
1
1
1
1
1
1
1
1
1
1
1
1
1
1
1
1
1
1
1
1
1
1
1
1
1
1
1
1
1
1
1
1
1
1
1
1
1
1
1
1
1
1
1
1
1
1
1
1.87568
8.47605
10.3831
10.4008
10.4279
10.4529
10.4795
10.5081
10.5392
10.5726
10.606
10.6371
10.6618
10.6824
10.705
10.7331
10.7659
10.799
10.828
10.8511
10.8702
10.8904
10.9147
10.9443
10.9768
11.0079
11.0362
11.0595
11.0758
11.0879
11.1021
11.1216
11.1474
11.1807
11.215
11.2433
11.2649
11.2792
11.2887
11.3006
11.3199
11.3465
11.375
11.4008
11.421
11.4371
11.4523
11.4694
11.4876
11.5031
11.5134
11.5206
11.5322
11.5596
11.6029
11.6462
11.6719
11.6722
11.6544
11.6341
11.632
11.6559
11.7054
11.7557
11.7855
11.7838
11.765
11.7472
11.7475
11.7716
11.8132
11.8499
11.8666
11.8647
11.8569
11.8527
11.8606
11.8753
11.8871
11.892
11.895
11.9007
11.9087
11.9235
11.9344
11.9346
11.9289
11.9196
11.9136
11.9161
11.9273
11.9425
11.9514
1
1
1
1
1
1
1
1
1
1
1
1
1
1
1
1
1
1
1
1
1
1
1
1
1
1
1
1
1
1
1
1
1
1
1
1
1
1
1
1
1
1
1
1
1
1
1
1
1
1
1
1
1
1
1
1
1
1
1
1
1
1
1
1
1
1
1
1
1
1
1
1
1
1
1
1
1
1
1
1
1
1
1
1
1
1
1
1
1
1
1
1
1
1
1
1
1
1
1
1.64985
8.13672
10.3869
10.399
10.4208
10.4448
10.4718
10.5024
10.5357
10.5704
10.6041
10.6327
10.6533
10.6715
10.6948
10.7242
10.7585
10.7931
10.8228
10.8451
10.8622
10.882
10.9072
10.9374
10.9713
11.0039
11.0314
11.0504
11.0621
11.0723
11.089
11.1146
11.1475
11.1843
11.2174
11.2411
11.2558
11.2638
11.2696
11.2825
11.3056
11.3369
11.3694
11.3975
11.4179
11.432
11.4439
11.457
11.4717
11.4854
11.4966
11.5076
11.5256
11.558
11.6005
11.6378
11.6569
11.6525
11.6339
11.6178
11.6228
11.654
11.7055
11.752
11.7742
11.7659
11.7432
11.7259
11.7313
11.7636
11.8098
11.8444
11.8557
11.85
11.8413
11.8394
11.8511
11.8667
11.8756
11.8769
11.8773
11.8836
11.8958
11.9147
11.9271
11.9254
11.9163
11.9046
11.8985
11.9025
11.9146
11.93
11.9379
1
1
1
1
1
1
1
1
1
1
1
1
1
1
1
1
1
1
1
1
1
1
1
1
1
1
1
1
1
1
1
1
1
1
1
1
1
1
1
1
1
1
1
1
1
1
1
1
1
1
1
1
1
1
1
1
1
1
1
1
1
1
1
1
1
1
1
1
1
1
1
1
1
1
1
1
1
1
1
1
1
1
1
1
1
1
1
1
1
1
1
1
1
1
1
1
1
1
1
1.44071
7.75297
10.3937
10.3957
10.4151
10.4377
10.4641
10.4951
10.5292
10.5645
10.598
10.6254
10.6451
10.6642
10.6895
10.7194
10.7518
10.7843
10.8131
10.8352
10.854
10.8771
10.9045
10.9341
10.9656
10.9958
11.0204
11.0364
11.0475
11.0609
11.082
11.112
11.1475
11.1836
11.2131
11.2321
11.2423
11.2481
11.2543
11.2703
11.2959
11.3282
11.3612
11.39
11.411
11.4251
11.4355
11.4458
11.4567
11.4677
11.4795
11.4952
11.5205
11.5569
11.5965
11.6261
11.6376
11.6296
11.6135
11.6053
11.618
11.6546
11.7045
11.7437
11.757
11.7444
11.7214
11.7074
11.7192
11.7577
11.8048
11.8354
11.8416
11.8335
11.825
11.8267
11.8418
11.8571
11.8627
11.8608
11.8593
11.8668
11.8833
11.9051
11.9175
11.9138
11.9021
11.8893
11.8842
11.8896
11.902
11.9164
11.9222
1
1
1
1
1
1
1
1
1
1
1
1
1
1
1
1
1
1
1
1
1
1
1
1
1
1
1
1
1
1
1
1
1
1
1
1
1
1
1
1
1
1
1
1
1
1
1
1
1
1
1
1
1
1
1
1
1
1
1
1
1
1
1
1
1
1
1
1
1
1
1
1
1
1
1
1
1
1
1
1
1
1
1
1
1
1
1
1
1
1
1
1
1
1
1
1
1
1
1
1.24359
7.33795
10.4055
10.3896
10.41
10.4325
10.458
10.4884
10.5218
10.5564
10.5889
10.6158
10.6368
10.6589
10.6863
10.716
10.7455
10.774
10.8
10.8226
10.8459
10.8745
10.9038
10.931
10.9578
10.9831
11.004
11.0194
11.035
11.0553
11.0811
11.1118
11.1452
11.1767
11.2009
11.2159
11.2253
11.2335
11.2443
11.2644
11.2906
11.3205
11.3507
11.3781
11.3998
11.4157
11.4273
11.4365
11.4441
11.4518
11.4633
11.483
11.5146
11.5537
11.5897
11.6116
11.6158
11.6055
11.5938
11.5951
11.6159
11.6558
11.7011
11.7309
11.7353
11.7202
11.6999
11.6921
11.711
11.7532
11.7971
11.822
11.8239
11.8153
11.8088
11.8149
11.8327
11.8465
11.8482
11.8434
11.8412
11.8506
11.8711
11.8942
11.9054
11.8996
11.8862
11.8737
11.8707
11.8778
11.8895
11.9015
11.9041
1
1
1
1
1
1
1
1
1
1
1
1
1
1
1
1
1
1
1
1
1
1
1
1
1
1
1
1
1
1
1
1
1
1
1
1
1
1
1
1
1
1
1
1
1
1
1
1
1
1
1
1
1
1
1
1
1
1
1
1
1
1
1
1
1
1
1
1
1
1
1
1
1
1
1
1
1
1
1
1
1
1
1
1
1
1
1
1
1
1
1
1
1
1
1
1
1
1
1
1.07006
6.91082
10.3859
10.3776
10.3967
10.4234
10.4519
10.4811
10.5111
10.5423
10.5732
10.6014
10.6268
10.6543
10.6841
10.7126
10.7381
10.7619
10.7857
10.8097
10.8383
10.8712
10.9016
10.9261
10.9474
10.9668
10.9845
11.0026
11.0262
11.0536
11.0819
11.1111
11.1397
11.1646
11.183
11.1957
11.207
11.2209
11.2384
11.2622
11.2873
11.313
11.3383
11.3627
11.3848
11.4037
11.4184
11.428
11.4332
11.4381
11.4487
11.4712
11.5068
11.5465
11.5791
11.5956
11.5938
11.5832
11.5761
11.5852
11.6138
11.6551
11.6935
11.7137
11.711
11.6949
11.6794
11.68
11.7062
11.7488
11.7865
11.8046
11.8033
11.7959
11.7934
11.8044
11.8234
11.8345
11.8321
11.8246
11.8228
11.8347
11.8589
11.8822
11.8908
11.883
11.8687
11.8579
11.858
11.8665
11.877
11.8855
11.8839
1
1
1
1
1
1
1
1
1
1
1
1
1
1
1
1
1
1
1
1
1
1
1
1
1
1
1
1
1
1
1
1
1
1
1
1
1
1
1
1
1
1
1
1
1
1
1
1
1
1
1
1
1
1
1
1
1
1
1
1
1
1
1
1
1
1
1
1
1
1
1
1
1
1
1
1
1
1
1
1
1
1
1
1
1
1
1
1
1
1
1
1
1
1
1
1
1
1
1
1.00226
6.42619
10.314
10.3513
10.3821
10.4142
10.4425
10.4698
10.4984
10.5294
10.5608
10.591
10.6198
10.6498
10.6793
10.7053
10.728
10.7503
10.7746
10.8015
10.8337
10.8678
10.8957
10.915
10.9304
10.9466
10.9655
10.9903
11.0209
11.0519
11.0804
11.1068
11.1299
11.1486
11.1631
11.1761
11.1907
11.2104
11.2333
11.2591
11.2827
11.3045
11.3254
11.347
11.3691
11.3903
11.4079
11.4185
11.4225
11.4259
11.4364
11.4606
11.4973
11.5357
11.5649
11.5776
11.5727
11.5633
11.5608
11.5759
11.6099
11.6502
11.681
11.6929
11.686
11.6713
11.6612
11.6706
11.7028
11.7428
11.7724
11.7839
11.781
11.7759
11.7786
11.7945
11.8133
11.8206
11.8142
11.8047
11.8043
11.8192
11.8465
11.8689
11.874
11.8643
11.8498
11.8418
11.8455
11.8554
11.8642
11.8683
11.8616
1
1
1
1
1
1
1
1
1
1
1
1
1
1
1
1
1
1
1
1
1
1
1
1
1
1
1
1
1
1
1
1
1
1
1
1
1
1
1
1
1
1
1
1
1
1
1
1
1
1
1
1
1
1
1
1
1
1
1
1
1
1
1
1
1
1
1
1
1
1
1
1
1
1
1
1
1
1
1
1
1
1
1
1
1
1
1
1
1
1
1
1
1
1
1
1
1
1
1
1.00001
5.85521
10.2507
10.335
10.3705
10.4036
10.4317
10.4586
10.4877
10.5197
10.5524
10.5842
10.6152
10.6448
10.6716
10.6954
10.7181
10.7419
10.7689
10.7993
10.8326
10.8625
10.8831
10.8965
10.9101
10.9288
10.9535
10.9847
11.0186
11.0488
11.0741
11.0959
11.1144
11.1302
11.1452
11.1614
11.1793
11.2013
11.2259
11.2515
11.2739
11.2934
11.3123
11.333
11.3553
11.3772
11.3953
11.4061
11.4102
11.4141
11.4261
11.4514
11.4871
11.5224
11.5477
11.5578
11.553
11.5459
11.5481
11.5682
11.6036
11.6401
11.6639
11.6701
11.6618
11.65
11.6461
11.6635
11.6983
11.7333
11.7548
11.761
11.758
11.7559
11.7643
11.7845
11.8017
11.8044
11.7948
11.784
11.7858
11.8039
11.8334
11.8541
11.8554
11.8436
11.8297
11.8253
11.8329
11.8441
11.8509
11.85
11.8379
1
1
1
1
1
1
1
1
1
1
1
1
1
1
1
1
1
1
1
1
1
1
1
1
1
1
1
1
1
1
1
1
1
1
1
1
1
1
1
1
1
1
1
1
1
1
1
1
1
1
1
1
1
1
1
1
1
1
1
1
1
1
1
1
1
1
1
1
1
1
1
1
1
1
1
1
1
1
1
1
1
1
1
1
1
1
1
1
1
1
1
1
1
1
1
1
1
1
1
1
5.24999
10.1694
10.3165
10.3575
10.3931
10.4212
10.4484
10.4791
10.5119
10.5447
10.5762
10.6068
10.6347
10.6596
10.6845
10.7108
10.7387
10.7681
10.799
10.8277
10.849
10.8631
10.8757
10.8934
10.9184
10.9492
10.9842
11.0172
11.0423
11.0609
11.0777
11.0945
11.1123
11.1321
11.1531
11.1732
11.194
11.216
11.2384
11.2593
11.2791
11.2994
11.3215
11.3444
11.3652
11.3812
11.3907
11.3952
11.4017
11.4169
11.4432
11.4762
11.5071
11.5282
11.5364
11.5338
11.5303
11.5371
11.5599
11.5932
11.6245
11.6428
11.6466
11.6398
11.6314
11.6344
11.6578
11.6911
11.7192
11.7338
11.7368
11.7349
11.7367
11.7509
11.7732
11.7877
11.7861
11.7737
11.7631
11.7676
11.7891
11.8195
11.8376
11.8348
11.8211
11.8086
11.8085
11.8202
11.8324
11.8367
11.8303
11.813
1
1
1
1
1
1
1
1
1
1
1
1
1
1
1
1
1
1
1
1
1
1
1
1
1
1
1
1
1
1
1
1
1
1
1
1
1
1
1
1
1
1
1
1
1
1
1
1
1
1
1
1
1
1
1
1
1
1
1
1
1
1
1
1
1
1
1
1
1
1
1
1
1
1
1
1
1
1
1
1
1
1
1
1
1
1
1
1
1
1
1
1
1
1
1
1
1
1
1
1
4.63272
10.0527
10.3056
10.3461
10.3855
10.4159
10.4444
10.4748
10.5071
10.5386
10.5679
10.5965
10.6227
10.6478
10.6758
10.706
10.7361
10.7651
10.7925
10.8146
10.8297
10.8424
10.8591
10.8833
10.9141
10.9495
10.9842
11.0114
11.0288
11.0413
11.0563
11.0755
11.0987
11.1245
11.1493
11.1697
11.1869
11.2037
11.2209
11.2406
11.2627
11.287
11.3121
11.3356
11.3539
11.3661
11.3729
11.3783
11.3887
11.4079
11.435
11.4648
11.4906
11.5075
11.5145
11.5147
11.5162
11.5275
11.5506
11.5795
11.6048
11.6196
11.6234
11.6196
11.6162
11.6259
11.6516
11.6799
11.7002
11.7097
11.7119
11.7121
11.719
11.7382
11.7598
11.7701
11.7651
11.7515
11.7424
11.75
11.7748
11.8045
11.8188
11.8124
11.7972
11.7866
11.7915
11.807
11.8199
11.8215
11.8092
11.7874
1
1
1
1
1
1
1
1
1
1
1
1
1
1
1
1
1
1
1
1
1
1
1
1
1
1
1
1
1
1
1
1
1
1
1
1
1
1
1
1
1
1
1
1
1
1
1
1
1
1
1
1
1
1
1
1
1
1
1
1
1
1
1
1
1
1
1
1
1
1
1
1
1
1
1
1
1
1
1
1
1
1
1
1
1
1
1
1
1
1
1
1
1
1
1
1
1
1
1
1
4.02785
9.88369
10.2951
10.3343
10.3789
10.4098
10.4391
10.469
10.5004
10.5306
10.5584
10.5855
10.6123
10.6394
10.6692
10.7003
10.7299
10.7566
10.7803
10.7986
10.8118
10.8276
10.8498
10.8779
10.9111
10.9462
10.9768
10.9978
11.0106
11.0218
11.0382
11.0613
11.0895
11.1193
11.1456
11.1643
11.1772
11.1887
11.2018
11.2217
11.247
11.2753
11.3029
11.3261
11.3415
11.3496
11.3541
11.3612
11.3758
11.3983
11.4253
11.4517
11.4727
11.486
11.4925
11.4959
11.5026
11.5174
11.539
11.5629
11.5829
11.5956
11.6006
11.6007
11.6038
11.6192
11.6435
11.6649
11.6773
11.6831
11.6865
11.6906
11.7033
11.7252
11.7438
11.7491
11.7414
11.7283
11.7221
11.7335
11.7608
11.7878
11.7976
11.7883
11.772
11.7643
11.7742
11.7931
11.8063
11.8047
11.7865
11.7615
1
1
1
1
1
1
1
1
1
1
1
1
1
1
1
1
1
1
1
1
1
1
1
1
1
1
1
1
1
1
1
1
1
1
1
1
1
1
1
1
1
1
1
1
1
1
1
1
1
1
1
1
1
1
1
1
1
1
1
1
1
1
1
1
1
1
1
1
1
1
1
1
1
1
1
1
1
1
1
1
1
1
1
1
1
1
1
1
1
1
1
1
1
1
1
1
1
1
1
1
3.44812
9.64293
10.2875
10.3252
10.3725
10.4033
10.4345
10.4657
10.4968
10.5255
10.5517
10.5767
10.6038
10.6321
10.6622
10.6922
10.7198
10.744
10.7656
10.7842
10.8004
10.8199
10.8448
10.873
10.9039
10.9355
10.962
10.9805
10.9945
11.0089
11.0277
11.0526
11.0819
11.1114
11.1357
11.152
11.1631
11.1732
11.1856
11.2064
11.2332
11.2629
11.2909
11.313
11.3262
11.3324
11.3369
11.3464
11.3637
11.3872
11.4127
11.4361
11.4537
11.4645
11.4711
11.4777
11.4888
11.5056
11.5255
11.5448
11.5605
11.5716
11.5783
11.5833
11.5932
11.612
11.6324
11.6462
11.6517
11.655
11.6608
11.6707
11.6889
11.7107
11.7248
11.725
11.7155
11.7044
11.7026
11.7181
11.7464
11.7689
11.7738
11.7625
11.7462
11.7421
11.7564
11.7778
11.791
11.7861
11.7623
11.7361
1
1
1
1
1
1
1
1
1
1
1
1
1
1
1
1
1
1
1
1
1
1
1
1
1
1
1
1
1
1
1
1
1
1
1
1
1
1
1
1
1
1
1
1
1
1
1
1
1
1
1
1
1
1
1
1
1
1
1
1
1
1
1
1
1
1
1
1
1
1
1
1
1
1
1
1
1
1
1
1
1
1
1
1
1
1
1
1
1
1
1
1
1
1
1
1
1
1
1
1
2.89252
9.32968
10.2926
10.3314
10.3731
10.4008
10.4315
10.4611
10.4912
10.5192
10.5441
10.5693
10.5972
10.6255
10.6544
10.6828
10.7083
10.7305
10.7516
10.7728
10.7933
10.8159
10.841
10.8664
10.8925
10.9198
10.9444
10.9647
10.9839
11.0032