/*--------------------------------*- C++ -*----------------------------------*\
  =========                 |
  \\      /  F ield         | OpenFOAM: The Open Source CFD Toolbox
   \\    /   O peration     | Website:  https://openfoam.org
    \\  /    A nd           | Version:  7
     \\/     M anipulation  |
\*---------------------------------------------------------------------------*/
FoamFile
{
    version     2.0;
    format      ascii;
    class       volScalarField;
    location    "2.6";
    object      rho;
}
// * * * * * * * * * * * * * * * * * * * * * * * * * * * * * * * * * * * * * //

dimensions      [1 -3 0 0 0 0 0];

internalField   nonuniform List<scalar> 
258048
(
1.40001
1.40001
1.40001
1.40001
1.40001
1.40001
1.40001
1.40001
1.40001
1.40001
1.40001
1.40001
1.40001
1.40001
1.40001
1.40001
1.40001
1.40001
1.40001
1.40001
1.40001
1.40001
1.40001
1.40001
1.40001
1.40001
1.40001
1.40001
1.40001
1.40001
1.40001
1.40001
1.40001
1.40001
1.40001
1.40001
1.40001
1.40001
1.40001
1.40001
1.40001
1.40001
1.40001
1.40001
1.40001
1.40001
1.40001
1.40001
1.40001
1.40001
1.40001
1.40001
1.40001
1.40001
1.40001
1.40001
1.40001
1.40001
1.40001
1.40001
1.40001
1.40001
1.40001
1.40001
1.40001
1.40001
1.40001
1.40001
1.40001
1.40001
1.40001
1.40001
1.40001
1.40001
1.40001
1.40001
1.40001
1.40001
1.40001
1.40001
1.40001
1.40001
1.40001
1.40001
1.40001
1.40001
1.40001
1.40001
1.40001
1.40001
1.40001
1.40001
1.40001
1.40001
1.40001
1.40001
1.40001
1.40001
1.40001
3.64962
5.36893
5.428
5.44114
5.4558
5.46453
5.47063
5.47593
5.48304
5.49384
5.50778
5.52054
5.53055
5.53948
5.54936
5.5599
5.57006
5.57908
5.58763
5.59749
5.61163
5.629
5.64596
5.66027
5.66865
5.66926
5.66429
5.65922
5.65909
5.67268
5.69839
5.72372
5.74379
5.75173
5.74565
5.73486
5.72944
5.74035
5.7659
5.79291
5.81222
5.81385
5.80124
5.78712
5.78471
5.79989
5.82657
5.85188
5.86616
5.86152
5.84657
5.83508
5.83751
5.85783
5.88612
5.9114
5.92485
5.92133
5.90988
5.90132
5.90229
5.91395
5.93131
5.94578
5.95142
5.94932
5.94595
5.94584
5.95228
5.96396
5.97353
5.97628
5.97331
5.96976
5.97023
5.97594
5.98306
5.98623
5.98418
5.98002
5.97784
5.98086
5.98917
5.99691
5.99961
5.9976
5.99297
5.98828
5.98395
5.97937
5.9745
5.96984
5.9647
1.40001
1.40001
1.40001
1.40001
1.40001
1.40001
1.40001
1.40001
1.40001
1.40001
1.40001
1.40001
1.40001
1.40001
1.40001
1.40001
1.40001
1.40001
1.40001
1.40001
1.40001
1.40001
1.40001
1.40001
1.40001
1.40001
1.40001
1.40001
1.40001
1.40001
1.40001
1.40001
1.40001
1.40001
1.40001
1.40001
1.40001
1.40001
1.40001
1.40001
1.40001
1.40001
1.40001
1.40001
1.40001
1.40001
1.40001
1.40001
1.40001
1.40001
1.40001
1.40001
1.40001
1.40001
1.40001
1.40001
1.40001
1.40001
1.40001
1.40001
1.40001
1.40001
1.40001
1.40001
1.40001
1.40001
1.40001
1.40001
1.40001
1.40001
1.40001
1.40001
1.40001
1.40001
1.40001
1.40001
1.40001
1.40001
1.40001
1.40001
1.40001
1.40001
1.40001
1.40001
1.40001
1.40001
1.40001
1.40001
1.40001
1.40001
1.40001
1.40001
1.40001
1.40001
1.40001
1.40001
1.40001
1.40001
1.40001
3.63947
5.36352
5.42557
5.43875
5.45537
5.46701
5.47569
5.48191
5.48742
5.49372
5.50208
5.51299
5.52464
5.53727
5.55117
5.56456
5.57511
5.58218
5.58794
5.5951
5.60839
5.62709
5.64545
5.6603
5.6686
5.66896
5.66459
5.6612
5.6632
5.67623
5.69907
5.72222
5.74027
5.74805
5.74429
5.7368
5.73356
5.74408
5.76699
5.79156
5.80906
5.81131
5.80098
5.78929
5.78787
5.8019
5.8264
5.84986
5.86318
5.85979
5.84734
5.83802
5.84117
5.86053
5.88707
5.91051
5.92261
5.91929
5.90896
5.90143
5.90294
5.91467
5.93155
5.94525
5.95038
5.94847
5.94555
5.94586
5.95263
5.9643
5.97359
5.97607
5.97295
5.96922
5.96941
5.97493
5.98237
5.98609
5.9845
5.98073
5.97856
5.98121
5.98894
5.99638
5.99912
5.99736
5.993
5.98839
5.98398
5.97927
5.97432
5.96968
5.96459
1.40001
1.40001
1.40001
1.40001
1.40001
1.40001
1.40001
1.40001
1.40001
1.40001
1.40001
1.40001
1.40001
1.40001
1.40001
1.40001
1.40001
1.40001
1.40001
1.40001
1.40001
1.40001
1.40001
1.40001
1.40001
1.40001
1.40001
1.40001
1.40001
1.40001
1.40001
1.40001
1.40001
1.40001
1.40001
1.40001
1.40001
1.40001
1.40001
1.40001
1.40001
1.40001
1.40001
1.40001
1.40001
1.40001
1.40001
1.40001
1.40001
1.40001
1.40001
1.40001
1.40001
1.40001
1.40001
1.40001
1.40001
1.40001
1.40001
1.40001
1.40001
1.40001
1.40001
1.40001
1.40001
1.40001
1.40001
1.40001
1.40001
1.40001
1.40001
1.40001
1.40001
1.40001
1.40001
1.40001
1.40001
1.40001
1.40001
1.40001
1.40001
1.40001
1.40001
1.40001
1.40001
1.40001
1.40001
1.40001
1.40001
1.40001
1.40001
1.40001
1.40001
1.40001
1.40001
1.40001
1.40001
1.40001
1.40001
3.62014
5.36027
5.42077
5.43461
5.45348
5.46838
5.48095
5.48966
5.49477
5.49766
5.49989
5.50503
5.51594
5.53152
5.54957
5.56716
5.57976
5.58595
5.58899
5.59335
5.6043
5.62312
5.64273
5.65823
5.66636
5.66639
5.66291
5.66169
5.66709
5.68166
5.70185
5.72177
5.73575
5.74077
5.73865
5.73523
5.73703
5.74985
5.77
5.79061
5.80433
5.80534
5.79751
5.78982
5.79143
5.80547
5.82726
5.84738
5.85777
5.85443
5.84519
5.83965
5.84528
5.86451
5.88896
5.90968
5.91938
5.91583
5.90695
5.90102
5.90359
5.91572
5.93198
5.94452
5.94875
5.94704
5.94474
5.94566
5.95299
5.96464
5.97356
5.97571
5.97252
5.96874
5.96859
5.97356
5.98094
5.98512
5.98417
5.9812
5.97942
5.98176
5.98864
5.99523
5.99769
5.99621
5.99237
5.98807
5.98363
5.97868
5.97354
5.96885
5.96379
1.40001
1.40001
1.40001
1.40001
1.40001
1.40001
1.40001
1.40001
1.40001
1.40001
1.40001
1.40001
1.40001
1.40001
1.40001
1.40001
1.40001
1.40001
1.40001
1.40001
1.40001
1.40001
1.40001
1.40001
1.40001
1.40001
1.40001
1.40001
1.40001
1.40001
1.40001
1.40001
1.40001
1.40001
1.40001
1.40001
1.40001
1.40001
1.40001
1.40001
1.40001
1.40001
1.40001
1.40001
1.40001
1.40001
1.40001
1.40001
1.40001
1.40001
1.40001
1.40001
1.40001
1.40001
1.40001
1.40001
1.40001
1.40001
1.40001
1.40001
1.40001
1.40001
1.40001
1.40001
1.40001
1.40001
1.40001
1.40001
1.40001
1.40001
1.40001
1.40001
1.40001
1.40001
1.40001
1.40001
1.40001
1.40001
1.40001
1.40001
1.40001
1.40001
1.40001
1.40001
1.40001
1.40001
1.40001
1.40001
1.40001
1.40001
1.40001
1.40001
1.40001
1.40001
1.40001
1.40001
1.40001
1.40001
1.40001
3.59058
5.35789
5.41579
5.4304
5.45106
5.46937
5.48549
5.49687
5.50215
5.50209
5.4996
5.49953
5.5076
5.52614
5.54819
5.56872
5.5827
5.58897
5.59101
5.59397
5.60288
5.61957
5.63864
5.65391
5.66192
5.66316
5.66262
5.66567
5.67405
5.68762
5.70403
5.71942
5.72941
5.73326
5.7342
5.73615
5.74284
5.7563
5.77274
5.78836
5.79818
5.79908
5.79494
5.79206
5.79621
5.80942
5.8276
5.84379
5.85158
5.84934
5.84446
5.8432
5.851
5.86916
5.89064
5.90793
5.91503
5.9116
5.90472
5.90093
5.90487
5.91718
5.93222
5.94308
5.94637
5.94522
5.94395
5.94589
5.95385
5.96502
5.97306
5.97463
5.97151
5.96797
5.96778
5.9723
5.97937
5.98372
5.9836
5.98165
5.98052
5.98271
5.98869
5.99419
5.99613
5.99485
5.99156
5.98776
5.98346
5.97832
5.97292
5.96806
5.96302
1.40001
1.40001
1.40001
1.40001
1.40001
1.40001
1.40001
1.40001
1.40001
1.40001
1.40001
1.40001
1.40001
1.40001
1.40001
1.40001
1.40001
1.40001
1.40001
1.40001
1.40001
1.40001
1.40001
1.40001
1.40001
1.40001
1.40001
1.40001
1.40001
1.40001
1.40001
1.40001
1.40001
1.40001
1.40001
1.40001
1.40001
1.40001
1.40001
1.40001
1.40001
1.40001
1.40001
1.40001
1.40001
1.40001
1.40001
1.40001
1.40001
1.40001
1.40001
1.40001
1.40001
1.40001
1.40001
1.40001
1.40001
1.40001
1.40001
1.40001
1.40001
1.40001
1.40001
1.40001
1.40001
1.40001
1.40001
1.40001
1.40001
1.40001
1.40001
1.40001
1.40001
1.40001
1.40001
1.40001
1.40001
1.40001
1.40001
1.40001
1.40001
1.40001
1.40001
1.40001
1.40001
1.40001
1.40001
1.40001
1.40001
1.40001
1.40001
1.40001
1.40001
1.40001
1.40001
1.40001
1.40001
1.40001
1.40001
3.54915
5.35829
5.41555
5.42785
5.44659
5.46541
5.48413
5.49936
5.50769
5.50823
5.50391
5.49995
5.50424
5.52166
5.54396
5.56477
5.58037
5.5896
5.59456
5.59841
5.6051
5.61743
5.63321
5.64667
5.65466
5.65873
5.6639
5.67219
5.68205
5.6933
5.70512
5.71526
5.72179
5.72593
5.73083
5.73838
5.74924
5.76229
5.77485
5.78505
5.79119
5.79262
5.79221
5.79419
5.80134
5.81347
5.82759
5.83946
5.84501
5.84487
5.84396
5.84671
5.85693
5.8737
5.89187
5.90546
5.91003
5.90701
5.9024
5.90099
5.90649
5.91879
5.93216
5.94091
5.94339
5.94306
5.94315
5.94658
5.95506
5.96525
5.9719
5.97271
5.96991
5.96704
5.96721
5.97144
5.97778
5.98187
5.98247
5.98162
5.98141
5.98388
5.98905
5.99316
5.99419
5.99286
5.99009
5.98701
5.98307
5.97783
5.97209
5.96686
5.96173
1.40001
1.40001
1.40001
1.40001
1.40001
1.40001
1.40001
1.40001
1.40001
1.40001
1.40001
1.40001
1.40001
1.40001
1.40001
1.40001
1.40001
1.40001
1.40001
1.40001
1.40001
1.40001
1.40001
1.40001
1.40001
1.40001
1.40001
1.40001
1.40001
1.40001
1.40001
1.40001
1.40001
1.40001
1.40001
1.40001
1.40001
1.40001
1.40001
1.40001
1.40001
1.40001
1.40001
1.40001
1.40001
1.40001
1.40001
1.40001
1.40001
1.40001
1.40001
1.40001
1.40001
1.40001
1.40001
1.40001
1.40001
1.40001
1.40001
1.40001
1.40001
1.40001
1.40001
1.40001
1.40001
1.40001
1.40001
1.40001
1.40001
1.40001
1.40001
1.40001
1.40001
1.40001
1.40001
1.40001
1.40001
1.40001
1.40001
1.40001
1.40001
1.40001
1.40001
1.40001
1.40001
1.40001
1.40001
1.40001
1.40001
1.40001
1.40001
1.40001
1.40001
1.40001
1.40001
1.40001
1.40001
1.40001
1.40001
3.49999
5.35796
5.41977
5.42707
5.44057
5.4577
5.47709
5.49522
5.50848
5.51396
5.51182
5.50689
5.50727
5.51871
5.53709
5.55612
5.57322
5.5874
5.59786
5.6048
5.6102
5.61719
5.62725
5.63764
5.64576
5.65494
5.66743
5.67986
5.68958
5.69708
5.7037
5.70906
5.71363
5.71997
5.72997
5.74257
5.75551
5.76682
5.7751
5.78037
5.78399
5.78666
5.79043
5.79702
5.80627
5.81669
5.82672
5.83451
5.83893
5.8412
5.84416
5.85069
5.86234
5.87738
5.89219
5.90221
5.90486
5.90277
5.90032
5.9013
5.90854
5.9204
5.93167
5.938
5.93994
5.94081
5.94253
5.94778
5.9565
5.96518
5.96996
5.96993
5.96773
5.96606
5.96698
5.97105
5.97633
5.97976
5.98081
5.98096
5.98193
5.98517
5.98961
5.9922
5.9921
5.99039
5.98808
5.9858
5.98245
5.97733
5.9712
5.9654
5.96008
1.40001
1.40001
1.40001
1.40001
1.40001
1.40001
1.40001
1.40001
1.40001
1.40001
1.40001
1.40001
1.40001
1.40001
1.40001
1.40001
1.40001
1.40001
1.40001
1.40001
1.40001
1.40001
1.40001
1.40001
1.40001
1.40001
1.40001
1.40001
1.40001
1.40001
1.40001
1.40001
1.40001
1.40001
1.40001
1.40001
1.40001
1.40001
1.40001
1.40001
1.40001
1.40001
1.40001
1.40001
1.40001
1.40001
1.40001
1.40001
1.40001
1.40001
1.40001
1.40001
1.40001
1.40001
1.40001
1.40001
1.40001
1.40001
1.40001
1.40001
1.40001
1.40001
1.40001
1.40001
1.40001
1.40001
1.40001
1.40001
1.40001
1.40001
1.40001
1.40001
1.40001
1.40001
1.40001
1.40001
1.40001
1.40001
1.40001
1.40001
1.40001
1.40001
1.40001
1.40001
1.40001
1.40001
1.40001
1.40001
1.40001
1.40001
1.40001
1.40001
1.40001
1.40001
1.40001
1.40001
1.40001
1.40001
1.40001
3.44379
5.35688
5.42733
5.42793
5.43481
5.44765
5.46645
5.4866
5.50454
5.51621
5.51982
5.51711
5.51411
5.51791
5.52921
5.5455
5.56584
5.58579
5.6019
5.61171
5.61582
5.61785
5.62149
5.62832
5.63727
5.65321
5.67192
5.6868
5.69503
5.69825
5.6996
5.70122
5.70557
5.71647
5.73186
5.74801
5.76116
5.76941
5.77321
5.77455
5.77698
5.78156
5.78978
5.80031
5.81047
5.81859
5.82483
5.8296
5.83384
5.83849
5.84508
5.85464
5.86674
5.87961
5.8911
5.89806
5.89976
5.89894
5.89861
5.90203
5.91073
5.92154
5.93036
5.93468
5.93643
5.93841
5.94207
5.94907
5.9578
5.96464
5.96735
5.96662
5.96518
5.96498
5.96695
5.97101
5.97504
5.97748
5.97871
5.97982
5.98215
5.98642
5.99015
5.99112
5.98989
5.98761
5.98568
5.98422
5.98158
5.9767
5.97018
5.96369
5.95817
1.40001
1.40001
1.40001
1.40001
1.40001
1.40001
1.40001
1.40001
1.40001
1.40001
1.40001
1.40001
1.40001
1.40001
1.40001
1.40001
1.40001
1.40001
1.40001
1.40001
1.40001
1.40001
1.40001
1.40001
1.40001
1.40001
1.40001
1.40001
1.40001
1.40001
1.40001
1.40001
1.40001
1.40001
1.40001
1.40001
1.40001
1.40001
1.40001
1.40001
1.40001
1.40001
1.40001
1.40001
1.40001
1.40001
1.40001
1.40001
1.40001
1.40001
1.40001
1.40001
1.40001
1.40001
1.40001
1.40001
1.40001
1.40001
1.40001
1.40001
1.40001
1.40001
1.40001
1.40001
1.40001
1.40001
1.40001
1.40001
1.40001
1.40001
1.40001
1.40001
1.40001
1.40001
1.40001
1.40001
1.40001
1.40001
1.40001
1.40001
1.40001
1.40001
1.40001
1.40001
1.40001
1.40001
1.40001
1.40001
1.40001
1.40001
1.40001
1.40001
1.40001
1.40001
1.40001
1.40001
1.40001
1.40001
1.40001
3.37906
5.35127
5.43311
5.43077
5.43306
5.43954
5.4559
5.47698
5.49862
5.51662
5.52607
5.52611
5.52145
5.51908
5.52325
5.53661
5.56121
5.58616
5.60625
5.61756
5.61948
5.61705
5.61576
5.62029
5.63216
5.65395
5.67579
5.69073
5.69673
5.69605
5.69353
5.69308
5.69959
5.71613
5.73589
5.75355
5.76515
5.76956
5.76917
5.76816
5.77065
5.77813
5.79058
5.80368
5.81351
5.81896
5.82195
5.82488
5.82959
5.83686
5.84685
5.85843
5.86995
5.88028
5.88846
5.89313
5.8948
5.89551
5.89762
5.90348
5.91273
5.92197
5.92819
5.93106
5.93307
5.93613
5.94179
5.95017
5.95849
5.9635
5.96431
5.96331
5.9626
5.96374
5.96691
5.97082
5.97359
5.97504
5.97639
5.9785
5.98226
5.98732
5.99042
5.98981
5.98737
5.98469
5.98313
5.98235
5.98037
5.97574
5.96888
5.96179
5.9562
1.40001
1.40001
1.40001
1.40001
1.40001
1.40001
1.40001
1.40001
1.40001
1.40001
1.40001
1.40001
1.40001
1.40001
1.40001
1.40001
1.40001
1.40001
1.40001
1.40001
1.40001
1.40001
1.40001
1.40001
1.40001
1.40001
1.40001
1.40001
1.40001
1.40001
1.40001
1.40001
1.40001
1.40001
1.40001
1.40001
1.40001
1.40001
1.40001
1.40001
1.40001
1.40001
1.40001
1.40001
1.40001
1.40001
1.40001
1.40001
1.40001
1.40001
1.40001
1.40001
1.40001
1.40001
1.40001
1.40001
1.40001
1.40001
1.40001
1.40001
1.40001
1.40001
1.40001
1.40001
1.40001
1.40001
1.40001
1.40001
1.40001
1.40001
1.40001
1.40001
1.40001
1.40001
1.40001
1.40001
1.40001
1.40001
1.40001
1.40001
1.40001
1.40001
1.40001
1.40001
1.40001
1.40001
1.40001
1.40001
1.40001
1.40001
1.40001
1.40001
1.40001
1.40001
1.40001
1.40001
1.40001
1.40001
1.40001
3.30626
5.33676
5.43355
5.43362
5.43569
5.43867
5.4508
5.47005
5.49184
5.51248
5.52666
5.53075
5.52641
5.5207
5.52124
5.53356
5.55926
5.58603
5.60735
5.61896
5.61914
5.61423
5.61117
5.61601
5.63135
5.65544
5.67737
5.69131
5.69509
5.69146
5.68687
5.68649
5.69716
5.71843
5.74037
5.75754
5.76661
5.76733
5.76416
5.76192
5.76565
5.77666
5.79257
5.80685
5.81525
5.81781
5.81829
5.82044
5.82626
5.83638
5.84926
5.86172
5.87176
5.87937
5.88449
5.88773
5.89006
5.8929
5.89776
5.90536
5.91402
5.92125
5.92524
5.92733
5.92996
5.93443
5.94187
5.95078
5.95807
5.96145
5.9612
5.96025
5.96044
5.96269
5.96652
5.96992
5.97157
5.9724
5.9741
5.97737
5.98251
5.98771
5.98999
5.98813
5.98464
5.98178
5.98064
5.98034
5.97876
5.97424
5.96712
5.95971
5.95435
1.40001
1.40001
1.40001
1.40001
1.40001
1.40001
1.40001
1.40001
1.40001
1.40001
1.40001
1.40001
1.40001
1.40001
1.40001
1.40001
1.40001
1.40001
1.40001
1.40001
1.40001
1.40001
1.40001
1.40001
1.40001
1.40001
1.40001
1.40001
1.40001
1.40001
1.40001
1.40001
1.40001
1.40001
1.40001
1.40001
1.40001
1.40001
1.40001
1.40001
1.40001
1.40001
1.40001
1.40001
1.40001
1.40001
1.40001
1.40001
1.40001
1.40001
1.40001
1.40001
1.40001
1.40001
1.40001
1.40001
1.40001
1.40001
1.40001
1.40001
1.40001
1.40001
1.40001
1.40001
1.40001
1.40001
1.40001
1.40001
1.40001
1.40001
1.40001
1.40001
1.40001
1.40001
1.40001
1.40001
1.40001
1.40001
1.40001
1.40001
1.40001
1.40001
1.40001
1.40001
1.40001
1.40001
1.40001
1.40001
1.40001
1.40001
1.40001
1.40001
1.40001
1.40001
1.40001
1.40001
1.40001
1.40001
1.40001
3.22564
5.31651
5.42823
5.43465
5.44036
5.44386
5.45242
5.46754
5.48659
5.50596
5.52129
5.52861
5.52778
5.52368
5.52351
5.53521
5.55893
5.5843
5.6044
5.61533
5.61531
5.61137
5.60985
5.61641
5.63369
5.65701
5.67696
5.68914
5.6906
5.68581
5.68146
5.68312
5.69811
5.72168
5.74331
5.75886
5.76556
5.76342
5.75856
5.75654
5.76255
5.77696
5.79491
5.80899
5.81555
5.81556
5.81452
5.81649
5.82389
5.83686
5.85179
5.86421
5.87235
5.87695
5.87957
5.88212
5.88575
5.89145
5.89899
5.90727
5.91434
5.91901
5.92137
5.92353
5.92726
5.93355
5.94218
5.9507
5.95636
5.95828
5.95793
5.95767
5.95893
5.96202
5.96568
5.96806
5.96879
5.96952
5.97199
5.97667
5.98293
5.98769
5.98873
5.98597
5.98179
5.97899
5.97834
5.9783
5.97675
5.97208
5.9648
5.9575
5.95272
1.40001
1.40001
1.40001
1.40001
1.40001
1.40001
1.40001
1.40001
1.40001
1.40001
1.40001
1.40001
1.40001
1.40001
1.40001
1.40001
1.40001
1.40001
1.40001
1.40001
1.40001
1.40001
1.40001
1.40001
1.40001
1.40001
1.40001
1.40001
1.40001
1.40001
1.40001
1.40001
1.40001
1.40001
1.40001
1.40001
1.40001
1.40001
1.40001
1.40001
1.40001
1.40001
1.40001
1.40001
1.40001
1.40001
1.40001
1.40001
1.40001
1.40001
1.40001
1.40001
1.40001
1.40001
1.40001
1.40001
1.40001
1.40001
1.40001
1.40001
1.40001
1.40001
1.40001
1.40001
1.40001
1.40001
1.40001
1.40001
1.40001
1.40001
1.40001
1.40001
1.40001
1.40001
1.40001
1.40001
1.40001
1.40001
1.40001
1.40001
1.40001
1.40001
1.40001
1.40001
1.40001
1.40001
1.40001
1.40001
1.40001
1.40001
1.40001
1.40001
1.40001
1.40001
1.40001
1.40001
1.40001
1.40001
1.40001
3.13592
5.29499
5.41839
5.43176
5.44369
5.45107
5.45813
5.4684
5.48237
5.49863
5.51319
5.52291
5.52656
5.52683
5.52903
5.5397
5.55994
5.58194
5.59949
5.60907
5.61034
5.60917
5.61053
5.6193
5.63713
5.65831
5.67569
5.6855
5.68542
5.68108
5.67856
5.68294
5.70069
5.72366
5.74405
5.7579
5.76222
5.75862
5.75343
5.75302
5.76175
5.77866
5.79701
5.80986
5.81436
5.8127
5.81081
5.81316
5.8225
5.8379
5.85394
5.86565
5.87167
5.8734
5.87412
5.87652
5.88216
5.89118
5.90108
5.90897
5.91358
5.91539
5.91673
5.91968
5.92537
5.93373
5.94284
5.94998
5.95344
5.95418
5.95429
5.95548
5.9583
5.96182
5.96436
5.96516
5.96511
5.96626
5.97011
5.97648
5.98337
5.9873
5.98678
5.98321
5.97884
5.97638
5.97623
5.97626
5.97433
5.96923
5.9619
5.95515
5.9512
1.40001
1.40001
1.40001
1.40001
1.40001
1.40001
1.40001
1.40001
1.40001
1.40001
1.40001
1.40001
1.40001
1.40001
1.40001
1.40001
1.40001
1.40001
1.40001
1.40001
1.40001
1.40001
1.40001
1.40001
1.40001
1.40001
1.40001
1.40001
1.40001
1.40001
1.40001
1.40001
1.40001
1.40001
1.40001
1.40001
1.40001
1.40001
1.40001
1.40001
1.40001
1.40001
1.40001
1.40001
1.40001
1.40001
1.40001
1.40001
1.40001
1.40001
1.40001
1.40001
1.40001
1.40001
1.40001
1.40001
1.40001
1.40001
1.40001
1.40001
1.40001
1.40001
1.40001
1.40001
1.40001
1.40001
1.40001
1.40001
1.40001
1.40001
1.40001
1.40001
1.40001
1.40001
1.40001
1.40001
1.40001
1.40001
1.40001
1.40001
1.40001
1.40001
1.40001
1.40001
1.40001
1.40001
1.40001
1.40001
1.40001
1.40001
1.40001
1.40001
1.40001
1.40001
1.40001
1.40001
1.40001
1.40001
1.40001
3.03799
5.27009
5.41152
5.42699
5.44378
5.45586
5.46403
5.47105
5.48009
5.49216
5.50545
5.51686
5.52469
5.52964
5.53471
5.54446
5.56054
5.57867
5.59371
5.60281
5.6063
5.60802
5.61209
5.62275
5.63966
5.65838
5.67339
5.68141
5.68133
5.67848
5.67793
5.68469
5.70267
5.72388
5.74271
5.75467
5.75731
5.75365
5.74959
5.75146
5.76268
5.78067
5.79825
5.80963
5.81212
5.80965
5.80758
5.81071
5.82195
5.83894
5.85527
5.86601
5.86969
5.86916
5.86858
5.87124
5.87942
5.89184
5.90355
5.91008
5.91145
5.91078
5.91138
5.91559
5.92406
5.93471
5.94377
5.94864
5.94964
5.94936
5.95028
5.95353
5.95813
5.96168
5.9627
5.96172
5.96092
5.96275
5.96843
5.97654
5.98357
5.98633
5.98437
5.98009
5.97594
5.97401
5.97429
5.97418
5.97157
5.96581
5.95851
5.95266
5.94968
1.40001
1.40001
1.40001
1.40001
1.40001
1.40001
1.40001
1.40001
1.40001
1.40001
1.40001
1.40001
1.40001
1.40001
1.40001
1.40001
1.40001
1.40001
1.40001
1.40001
1.40001
1.40001
1.40001
1.40001
1.40001
1.40001
1.40001
1.40001
1.40001
1.40001
1.40001
1.40001
1.40001
1.40001
1.40001
1.40001
1.40001
1.40001
1.40001
1.40001
1.40001
1.40001
1.40001
1.40001
1.40001
1.40001
1.40001
1.40001
1.40001
1.40001
1.40001
1.40001
1.40001
1.40001
1.40001
1.40001
1.40001
1.40001
1.40001
1.40001
1.40001
1.40001
1.40001
1.40001
1.40001
1.40001
1.40001
1.40001
1.40001
1.40001
1.40001
1.40001
1.40001
1.40001
1.40001
1.40001
1.40001
1.40001
1.40001
1.40001
1.40001
1.40001
1.40001
1.40001
1.40001
1.40001
1.40001
1.40001
1.40001
1.40001
1.40001
1.40001
1.40001
1.40001
1.40001
1.40001
1.40001
1.40001
1.40001
2.93291
5.23605
5.40978
5.42314
5.44203
5.45703
5.46737
5.47396
5.48018
5.48893
5.50048
5.51245
5.52287
5.53124
5.53853
5.54752
5.56055
5.57561
5.589
5.59844
5.60401
5.60815
5.61401
5.62474
5.64027
5.65709
5.67069
5.678
5.67916
5.67786
5.67887
5.68695
5.70348
5.72259
5.73912
5.7493
5.7518
5.74946
5.74777
5.75197
5.7648
5.78207
5.79813
5.80781
5.80913
5.80667
5.80516
5.80938
5.82195
5.83948
5.85556
5.86489
5.8665
5.86474
5.86347
5.86679
5.87784
5.89321
5.9054
5.91013
5.90848
5.90567
5.90574
5.91147
5.92305
5.93596
5.94449
5.94681
5.94549
5.94427
5.94596
5.95141
5.95784
5.96134
5.96079
5.95815
5.95654
5.95912
5.96668
5.9763
5.98315
5.98474
5.98168
5.97688
5.97313
5.97186
5.97244
5.97198
5.96846
5.96191
5.95473
5.94999
5.94797
1.40001
1.40001
1.40001
1.40001
1.40001
1.40001
1.40001
1.40001
1.40001
1.40001
1.40001
1.40001
1.40001
1.40001
1.40001
1.40001
1.40001
1.40001
1.40001
1.40001
1.40001
1.40001
1.40001
1.40001
1.40001
1.40001
1.40001
1.40001
1.40001
1.40001
1.40001
1.40001
1.40001
1.40001
1.40001
1.40001
1.40001
1.40001
1.40001
1.40001
1.40001
1.40001
1.40001
1.40001
1.40001
1.40001
1.40001
1.40001
1.40001
1.40001
1.40001
1.40001
1.40001
1.40001
1.40001
1.40001
1.40001
1.40001
1.40001
1.40001
1.40001
1.40001
1.40001
1.40001
1.40001
1.40001
1.40001
1.40001
1.40001
1.40001
1.40001
1.40001
1.40001
1.40001
1.40001
1.40001
1.40001
1.40001
1.40001
1.40001
1.40001
1.40001
1.40001
1.40001
1.40001
1.40001
1.40001
1.40001
1.40001
1.40001
1.40001
1.40001
1.40001
1.40001
1.40001
1.40001
1.40001
1.40001
1.40001
2.82017
5.1965
5.40951
5.42025
5.43956
5.45508
5.46725
5.47558
5.48166
5.48867
5.49856
5.51014
5.52138
5.53126
5.53981
5.54853
5.55987
5.57312
5.58582
5.59599
5.60322
5.60893
5.6153
5.62502
5.63918
5.65461
5.66761
5.67549
5.67843
5.67894
5.68136
5.68902
5.70291
5.71892
5.73315
5.74279
5.74655
5.74655
5.74771
5.75432
5.76707
5.78245
5.79642
5.80451
5.80575
5.80408
5.80386
5.80923
5.8224
5.83946
5.85441
5.86211
5.86256
5.86033
5.85899
5.86366
5.87748
5.89445
5.90606
5.90879
5.90498
5.9003
5.90016
5.90767
5.92222
5.93682
5.94468
5.94455
5.94134
5.93928
5.94161
5.94895
5.95694
5.96056
5.95885
5.95483
5.95252
5.95567
5.96466
5.97524
5.98174
5.98248
5.97884
5.9738
5.97049
5.96982
5.97055
5.96959
5.96503
5.95767
5.9507
5.94712
5.94597
1.40001
1.40001
1.40001
1.40001
1.40001
1.40001
1.40001
1.40001
1.40001
1.40001
1.40001
1.40001
1.40001
1.40001
1.40001
1.40001
1.40001
1.40001
1.40001
1.40001
1.40001
1.40001
1.40001
1.40001
1.40001
1.40001
1.40001
1.40001
1.40001
1.40001
1.40001
1.40001
1.40001
1.40001
1.40001
1.40001
1.40001
1.40001
1.40001
1.40001
1.40001
1.40001
1.40001
1.40001
1.40001
1.40001
1.40001
1.40001
1.40001
1.40001
1.40001
1.40001
1.40001
1.40001
1.40001
1.40001
1.40001
1.40001
1.40001
1.40001
1.40001
1.40001
1.40001
1.40001
1.40001
1.40001
1.40001
1.40001
1.40001
1.40001
1.40001
1.40001
1.40001
1.40001
1.40001
1.40001
1.40001
1.40001
1.40001
1.40001
1.40001
1.40001
1.40001
1.40001
1.40001
1.40001
1.40001
1.40001
1.40001
1.40001
1.40001
1.40001
1.40001
1.40001
1.40001
1.40001
1.40001
1.40001
1.40001
2.6977
5.15626
5.4081
5.41844
5.43871
5.45294
5.46534
5.47507
5.48271
5.48973
5.49872
5.50961
5.52078
5.53094
5.53997
5.54867
5.55905
5.57129
5.58367
5.59445
5.60285
5.60954
5.61586
5.62449
5.63681
5.65086
5.66358
5.67283
5.67825
5.68126
5.68454
5.69073
5.70113
5.71365
5.72588
5.73585
5.74208
5.74548
5.74984
5.75766
5.76876
5.78161
5.7929
5.79981
5.80199
5.80191
5.80347
5.81021
5.82306
5.83849
5.85141
5.85774
5.85794
5.85606
5.85555
5.86249
5.8782
5.89491
5.90514
5.90595
5.90065
5.89502
5.89528
5.90481
5.92166
5.93684
5.94378
5.94178
5.93713
5.93467
5.9375
5.94619
5.95525
5.95909
5.95677
5.95191
5.94917
5.95262
5.96223
5.973
5.97917
5.97952
5.97585
5.97101
5.96817
5.96786
5.96854
5.9669
5.96124
5.95322
5.94658
5.94403
5.94361
1.40001
1.40001
1.40001
1.40001
1.40001
1.40001
1.40001
1.40001
1.40001
1.40001
1.40001
1.40001
1.40001
1.40001
1.40001
1.40001
1.40001
1.40001
1.40001
1.40001
1.40001
1.40001
1.40001
1.40001
1.40001
1.40001
1.40001
1.40001
1.40001
1.40001
1.40001
1.40001
1.40001
1.40001
1.40001
1.40001
1.40001
1.40001
1.40001
1.40001
1.40001
1.40001
1.40001
1.40001
1.40001
1.40001
1.40001
1.40001
1.40001
1.40001
1.40001
1.40001
1.40001
1.40001
1.40001
1.40001
1.40001
1.40001
1.40001
1.40001
1.40001
1.40001
1.40001
1.40001
1.40001
1.40001
1.40001
1.40001
1.40001
1.40001
1.40001
1.40001
1.40001
1.40001
1.40001
1.40001
1.40001
1.40001
1.40001
1.40001
1.40001
1.40001
1.40001
1.40001
1.40001
1.40001
1.40001
1.40001
1.40001
1.40001
1.40001
1.40001
1.40001
1.40001
1.40001
1.40001
1.40001
1.40001
1.40001
2.56541
5.11697
5.40439
5.41767
5.43822
5.4516
5.46364
5.47375
5.48238
5.49011
5.49868
5.50925
5.52064
5.53103
5.54023
5.54872
5.55822
5.56949
5.58139
5.59259
5.6022
5.61005
5.61688
5.62455
5.6348
5.64693
5.65907
5.6699
5.67814
5.68361
5.68746
5.69187
5.69862
5.7078
5.71862
5.72969
5.73894
5.74599
5.75299
5.7605
5.76938
5.77921
5.78807
5.79434
5.79795
5.80033
5.80421
5.81209
5.82376
5.83669
5.84712
5.8522
5.85278
5.85195
5.85351
5.86324
5.87958
5.89455
5.90247
5.90158
5.89539
5.89007
5.8915
5.90325
5.92112
5.93576
5.94128
5.93813
5.93278
5.93041
5.93385
5.94338
5.95294
5.95692
5.95438
5.94927
5.94655
5.9501
5.95949
5.96967
5.97547
5.97588
5.97263
5.96852
5.96626
5.96602
5.96632
5.96376
5.95708
5.94866
5.94238
5.94069
5.94086
1.40001
1.40001
1.40001
1.40001
1.40001
1.40001
1.40001
1.40001
1.40001
1.40001
1.40001
1.40001
1.40001
1.40001
1.40001
1.40001
1.40001
1.40001
1.40001
1.40001
1.40001
1.40001
1.40001
1.40001
1.40001
1.40001
1.40001
1.40001
1.40001
1.40001
1.40001
1.40001
1.40001
1.40001
1.40001
1.40001
1.40001
1.40001
1.40001
1.40001
1.40001
1.40001
1.40001
1.40001
1.40001
1.40001
1.40001
1.40001
1.40001
1.40001
1.40001
1.40001
1.40001
1.40001
1.40001
1.40001
1.40001
1.40001
1.40001
1.40001
1.40001
1.40001
1.40001
1.40001
1.40001
1.40001
1.40001
1.40001
1.40001
1.40001
1.40001
1.40001
1.40001
1.40001
1.40001
1.40001
1.40001
1.40001
1.40001
1.40001
1.40001
1.40001
1.40001
1.40001
1.40001
1.40001
1.40001
1.40001
1.40001
1.40001
1.40001
1.40001
1.40001
1.40001
1.40001
1.40001
1.40001
1.40001
1.40001
2.42617
5.07242
5.40044
5.41916
5.43812
5.45087
5.46263
5.47237
5.48119
5.48937
5.49803
5.50899
5.52101
5.53172
5.54086
5.54909
5.55781
5.56797
5.579
5.59018
5.60087
5.61008
5.61775
5.62503
5.63358
5.64363
5.65484
5.66682
5.67739
5.68475
5.68906
5.69216
5.6961
5.70288
5.71302
5.72523
5.73718
5.74706
5.75517
5.76189
5.76867
5.77581
5.78278
5.78882
5.79395
5.79881
5.80498
5.81349
5.82385
5.83423
5.84218
5.84622
5.8474
5.84823
5.85295
5.86546
5.88133
5.8935
5.89819
5.89543
5.88906
5.88538
5.88926
5.903
5.92062
5.93362
5.93718
5.9332
5.92792
5.92632
5.93066
5.94081
5.95036
5.95413
5.95153
5.94666
5.94439
5.94795
5.95649
5.96546
5.97079
5.97154
5.96912
5.96621
5.9647
5.96438
5.96384
5.9601
5.95257
5.94396
5.93812
5.93713
5.93779
1.40001
1.40001
1.40001
1.40001
1.40001
1.40001
1.40001
1.40001
1.40001
1.40001
1.40001
1.40001
1.40001
1.40001
1.40001
1.40001
1.40001
1.40001
1.40001
1.40001
1.40001
1.40001
1.40001
1.40001
1.40001
1.40001
1.40001
1.40001
1.40001
1.40001
1.40001
1.40001
1.40001
1.40001
1.40001
1.40001
1.40001
1.40001
1.40001
1.40001
1.40001
1.40001
1.40001
1.40001
1.40001
1.40001
1.40001
1.40001
1.40001
1.40001
1.40001
1.40001
1.40001
1.40001
1.40001
1.40001
1.40001
1.40001
1.40001
1.40001
1.40001
1.40001
1.40001
1.40001
1.40001
1.40001
1.40001
1.40001
1.40001
1.40001
1.40001
1.40001
1.40001
1.40001
1.40001
1.40001
1.40001
1.40001
1.40001
1.40001
1.40001
1.40001
1.40001
1.40001
1.40001
1.40001
1.40001
1.40001
1.40001
1.40001
1.40001
1.40001
1.40001
1.40001
1.40001
1.40001
1.40001
1.40001
1.40001
2.28612
5.01638
5.40189
5.42006
5.43804
5.45015
5.4615
5.47071
5.47911
5.48769
5.49694
5.50866
5.52124
5.53215
5.5412
5.54931
5.55762
5.56703
5.57716
5.5878
5.59882
5.60906
5.61779
5.62532
5.63302
5.64161
5.65187
5.66409
5.67551
5.68379
5.68851
5.69102
5.69352
5.69947
5.70988
5.72285
5.73602
5.74704
5.75532
5.76126
5.76645
5.77206
5.77824
5.78463
5.791
5.79762
5.80519
5.81388
5.82307
5.83126
5.83698
5.83994
5.84156
5.84451
5.85305
5.86796
5.88267
5.89157
5.89271
5.88795
5.88208
5.8812
5.88857
5.90422
5.92069
5.93081
5.9316
5.92683
5.92225
5.92218
5.9281
5.93888
5.94783
5.95082
5.94806
5.94374
5.9423
5.94594
5.95337
5.96067
5.96533
5.96657
5.96528
5.96394
5.96335
5.96282
5.96109
5.956
5.94771
5.93907
5.93377
5.9334
5.9345
1.40001
1.40001
1.40001
1.40001
1.40001
1.40001
1.40001
1.40001
1.40001
1.40001
1.40001
1.40001
1.40001
1.40001
1.40001
1.40001
1.40001
1.40001
1.40001
1.40001
1.40001
1.40001
1.40001
1.40001
1.40001
1.40001
1.40001
1.40001
1.40001
1.40001
1.40001
1.40001
1.40001
1.40001
1.40001
1.40001
1.40001
1.40001
1.40001
1.40001
1.40001
1.40001
1.40001
1.40001
1.40001
1.40001
1.40001
1.40001
1.40001
1.40001
1.40001
1.40001
1.40001
1.40001
1.40001
1.40001
1.40001
1.40001
1.40001
1.40001
1.40001
1.40001
1.40001
1.40001
1.40001
1.40001
1.40001
1.40001
1.40001
1.40001
1.40001
1.40001
1.40001
1.40001
1.40001
1.40001
1.40001
1.40001
1.40001
1.40001
1.40001
1.40001
1.40001
1.40001
1.40001
1.40001
1.40001
1.40001
1.40001
1.40001
1.40001
1.40001
1.40001
1.40001
1.40001
1.40001
1.40001
1.40001
1.40001
2.1484
4.94155
5.40552
5.41942
5.43687
5.44887
5.45993
5.46896
5.4771
5.48613
5.49621
5.50822
5.52042
5.5309
5.53978
5.54824
5.55698
5.56647
5.5762
5.58612
5.5965
5.60661
5.61596
5.62443
5.63251
5.64081
5.65067
5.6624
5.67323
5.68111
5.68591
5.68866
5.69172
5.69867
5.71
5.72301
5.73542
5.74537
5.75243
5.75731
5.76199
5.7678
5.77471
5.78209
5.78927
5.79637
5.80403
5.81243
5.82074
5.82758
5.83193
5.83421
5.83628
5.84159
5.8538
5.87011
5.88319
5.88879
5.88656
5.87992
5.87511
5.87747
5.88883
5.90613
5.92066
5.92721
5.92495
5.91926
5.91578
5.91779
5.92613
5.93763
5.9455
5.94709
5.94402
5.9403
5.93991
5.94387
5.95024
5.95562
5.95929
5.96107
5.9611
5.9616
5.96204
5.96111
5.958
5.9515
5.94253
5.93402
5.92936
5.92958
5.93106
1.40001
1.40001
1.40001
1.40001
1.40001
1.40001
1.40001
1.40001
1.40001
1.40001
1.40001
1.40001
1.40001
1.40001
1.40001
1.40001
1.40001
1.40001
1.40001
1.40001
1.40001
1.40001
1.40001
1.40001
1.40001
1.40001
1.40001
1.40001
1.40001
1.40001
1.40001
1.40001
1.40001
1.40001
1.40001
1.40001
1.40001
1.40001