/*--------------------------------*- C++ -*----------------------------------*\
  =========                 |
  \\      /  F ield         | OpenFOAM: The Open Source CFD Toolbox
   \\    /   O peration     | Website:  https://openfoam.org
    \\  /    A nd           | Version:  7
     \\/     M anipulation  |
\*---------------------------------------------------------------------------*/
FoamFile
{
    version     2.0;
    format      ascii;
    class       volScalarField;
    location    "1.5";
    object      p;
}
// * * * * * * * * * * * * * * * * * * * * * * * * * * * * * * * * * * * * * //

dimensions      [1 -1 -2 0 0 0 0];

internalField   nonuniform List<scalar> 
258048
(
1
1
1
1
1
1
1
1
1
1
1
1
1
1
1
1
1
1
1
1
1
1
1
1
1
1
1
1
1
1
1
1
1
1
1
1
1
1
1
1
1
1
1
1
1
1
1
1
1
1
1
1
1
1
1
1
1
1
1
1
1
1
1
1
1
1
1
1
1
1
1
1
1
1
1
1
1
1
1
1
1
1
1
1
1
1
1
1
1
1
1
1
1
1
1
1
1
1
1
1
1
1
1
5.41913
10.4564
10.5701
10.6025
10.6369
10.669
10.7018
10.7356
10.7703
10.805
10.8384
10.8703
10.8997
10.9259
10.9466
10.9612
10.9722
10.9821
10.9959
11.0189
11.0525
11.0947
11.1375
11.1751
11.2082
11.2377
11.2648
11.286
11.3023
11.3164
11.3332
11.354
11.3813
11.4135
11.448
11.4784
11.5023
11.5204
11.5374
11.5541
11.5743
11.5991
11.6247
11.6488
11.6661
11.6814
11.6947
11.7127
11.7292
11.7434
11.7541
11.763
11.7697
11.7744
11.7799
11.7905
11.8098
11.8406
11.8721
11.8973
11.9097
11.9077
11.8975
11.8922
11.9014
11.9313
11.9745
12.0149
12.0365
12.0404
12.0371
12.0382
12.0514
12.0755
12.1018
12.1205
12.1272
12.1245
12.1182
12.1135
12.111
12.1079
12.1022
12.097
12.1001
12.1177
12.1482
12.1795
12.2081
1
1
1
1
1
1
1
1
1
1
1
1
1
1
1
1
1
1
1
1
1
1
1
1
1
1
1
1
1
1
1
1
1
1
1
1
1
1
1
1
1
1
1
1
1
1
1
1
1
1
1
1
1
1
1
1
1
1
1
1
1
1
1
1
1
1
1
1
1
1
1
1
1
1
1
1
1
1
1
1
1
1
1
1
1
1
1
1
1
1
1
1
1
1
1
1
1
1
1
1
1
1
1
5.399
10.4317
10.5771
10.6065
10.6386
10.6693
10.7014
10.7354
10.7704
10.8051
10.8386
10.8705
10.9
10.9259
10.9461
10.9602
10.9705
10.98
10.9939
11.0163
11.0494
11.091
11.1334
11.1721
11.2067
11.238
11.2665
11.2889
11.3055
11.3189
11.3345
11.3539
11.38
11.4117
11.4452
11.475
11.4988
11.5174
11.5351
11.5531
11.5744
11.5991
11.6236
11.6464
11.6634
11.6793
11.6942
11.7143
11.732
11.7466
11.7571
11.7649
11.7707
11.775
11.781
11.7923
11.8121
11.8417
11.8708
11.8937
11.9047
11.9035
11.8958
11.8931
11.904
11.9333
11.9743
12.0119
12.0326
12.0375
12.0357
12.0379
12.0513
12.0753
12.1012
12.1196
12.1261
12.1237
12.1178
12.1135
12.1114
12.1088
12.1037
12.0991
12.1022
12.1184
12.1467
12.1752
12.2025
1
1
1
1
1
1
1
1
1
1
1
1
1
1
1
1
1
1
1
1
1
1
1
1
1
1
1
1
1
1
1
1
1
1
1
1
1
1
1
1
1
1
1
1
1
1
1
1
1
1
1
1
1
1
1
1
1
1
1
1
1
1
1
1
1
1
1
1
1
1
1
1
1
1
1
1
1
1
1
1
1
1
1
1
1
1
1
1
1
1
1
1
1
1
1
1
1
1
1
1
1
1
1
5.35986
10.4165
10.5786
10.6063
10.6369
10.667
10.6995
10.7342
10.7699
10.805
10.8388
10.8707
10.9
10.9256
10.9452
10.9588
10.9685
10.9777
10.9917
11.0135
11.0457
11.086
11.1278
11.1674
11.2036
11.2375
11.2678
11.2919
11.3094
11.3227
11.3373
11.3555
11.3801
11.4105
11.4419
11.4701
11.4934
11.5123
11.5311
11.5509
11.5737
11.5984
11.6216
11.6424
11.6586
11.675
11.6917
11.7138
11.7335
11.7495
11.7606
11.7676
11.7726
11.7765
11.7829
11.7947
11.8145
11.8422
11.8688
11.8889
11.8982
11.8981
11.894
11.895
11.908
11.936
11.9727
12.0057
12.0255
12.0322
12.0337
12.0387
12.0531
12.0758
12.0998
12.1165
12.1229
12.1216
12.1173
12.114
12.1119
12.1091
12.1043
12.1011
12.1054
12.121
12.1461
12.1701
12.1943
1
1
1
1
1
1
1
1
1
1
1
1
1
1
1
1
1
1
1
1
1
1
1
1
1
1
1
1
1
1
1
1
1
1
1
1
1
1
1
1
1
1
1
1
1
1
1
1
1
1
1
1
1
1
1
1
1
1
1
1
1
1
1
1
1
1
1
1
1
1
1
1
1
1
1
1
1
1
1
1
1
1
1
1
1
1
1
1
1
1
1
1
1
1
1
1
1
1
1
1
1
1
1
5.29882
10.4034
10.577
10.603
10.6329
10.663
10.6964
10.7321
10.7686
10.8043
10.8385
10.8706
10.8997
10.9248
10.9438
10.957
10.9662
10.9755
10.9899
11.011
11.0422
11.0815
11.1225
11.1624
11.1998
11.236
11.2684
11.2945
11.3132
11.3268
11.3407
11.3576
11.3801
11.4084
11.4373
11.4638
11.4867
11.5064
11.5268
11.5488
11.573
11.5973
11.6188
11.6372
11.6524
11.6697
11.6898
11.7141
11.7357
11.7528
11.7637
11.7693
11.774
11.7785
11.7861
11.799
11.8185
11.8429
11.8651
11.8811
11.8887
11.8906
11.8921
11.8982
11.9138
11.9395
11.9698
11.9967
12.0147
12.0238
12.03
12.0396
12.0561
12.0777
12.099
12.1133
12.1184
12.1178
12.1154
12.1137
12.1125
12.11
12.1058
12.1039
12.109
12.1234
12.1443
12.1625
12.1826
1
1
1
1
1
1
1
1
1
1
1
1
1
1
1
1
1
1
1
1
1
1
1
1
1
1
1
1
1
1
1
1
1
1
1
1
1
1
1
1
1
1
1
1
1
1
1
1
1
1
1
1
1
1
1
1
1
1
1
1
1
1
1
1
1
1
1
1
1
1
1
1
1
1
1
1
1
1
1
1
1
1
1
1
1
1
1
1
1
1
1
1
1
1
1
1
1
1
1
1
1
1
1
5.22313
10.3866
10.5721
10.5977
10.6286
10.6585
10.6923
10.7286
10.7662
10.8029
10.8379
10.8703
10.8992
10.9234
10.9413
10.9538
10.9628
10.9728
10.9885
11.0096
11.0402
11.0786
11.1189
11.1586
11.1961
11.2331
11.2666
11.2944
11.3149
11.3297
11.3438
11.3603
11.3811
11.4069
11.4333
11.4578
11.4801
11.5005
11.5227
11.5468
11.572
11.5956
11.6154
11.6315
11.6459
11.6641
11.6877
11.714
11.7371
11.7543
11.7645
11.7691
11.7739
11.7806
11.7904
11.8048
11.8233
11.8433
11.8598
11.871
11.8774
11.8826
11.8904
11.9029
11.9208
11.943
11.9656
11.9854
12.0007
12.0127
12.0249
12.0408
12.0607
12.0816
12.0997
12.1103
12.1126
12.1121
12.1115
12.1121
12.1127
12.1112
12.1078
12.1071
12.1127
12.1251
12.1414
12.154
12.1694
1
1
1
1
1
1
1
1
1
1
1
1
1
1
1
1
1
1
1
1
1
1
1
1
1
1
1
1
1
1
1
1
1
1
1
1
1
1
1
1
1
1
1
1
1
1
1
1
1
1
1
1
1
1
1
1
1
1
1
1
1
1
1
1
1
1
1
1
1
1
1
1
1
1
1
1
1
1
1
1
1
1
1
1
1
1
1
1
1
1
1
1
1
1
1
1
1
1
1
1
1
1
1
5.13166
10.3599
10.5672
10.591
10.6245
10.6549
10.6893
10.7259
10.7637
10.8009
10.8367
10.8696
10.8983
10.9218
10.9385
10.9504
10.9593
10.9703
10.9879
11.0098
11.0405
11.0786
11.1183
11.1573
11.1941
11.2305
11.2634
11.2917
11.3133
11.3299
11.3452
11.3626
11.3828
11.4065
11.431
11.4536
11.4749
11.4956
11.5194
11.5451
11.5708
11.5935
11.6117
11.6262
11.6398
11.6589
11.686
11.7143
11.7372
11.753
11.7617
11.7659
11.7715
11.7814
11.7953
11.8121
11.8288
11.8431
11.8532
11.8594
11.8654
11.875
11.8899
11.9087
11.9282
11.9458
11.9605
11.9731
11.9854
11.9999
12.0187
12.0416
12.0661
12.0871
12.1019
12.1075
12.1058
12.1041
12.1051
12.1084
12.1118
12.1121
12.1102
12.1104
12.1156
12.1256
12.1374
12.1452
12.156
1
1
1
1
1
1
1
1
1
1
1
1
1
1
1
1
1
1
1
1
1
1
1
1
1
1
1
1
1
1
1
1
1
1
1
1
1
1
1
1
1
1
1
1
1
1
1
1
1
1
1
1
1
1
1
1
1
1
1
1
1
1
1
1
1
1
1
1
1
1
1
1
1
1
1
1
1
1
1
1
1
1
1
1
1
1
1
1
1
1
1
1
1
1
1
1
1
1
1
1
1
1
1
5.01757
10.3246
10.564
10.5859
10.6218
10.6528
10.6868
10.7226
10.7599
10.7975
10.8344
10.8682
10.8975
10.9206
10.9363
10.9472
10.9556
10.9672
10.9861
11.0094
11.0413
11.0801
11.1198
11.158
11.1937
11.2286
11.26
11.2877
11.3093
11.3269
11.344
11.3631
11.3841
11.4073
11.4307
11.4515
11.4713
11.4915
11.516
11.5428
11.5687
11.5909
11.6082
11.6218
11.6351
11.6549
11.6843
11.7132
11.735
11.7488
11.755
11.7585
11.7665
11.7811
11.7994
11.8187
11.8334
11.8417
11.8452
11.8475
11.8542
11.8687
11.8906
11.9146
11.9346
11.9475
11.955
11.961
11.9701
11.9866
12.0116
12.0419
12.0714
12.0931
12.1046
12.1046
12.0986
12.095
12.0969
12.1029
12.1093
12.1124
12.1123
12.113
12.1172
12.1246
12.1324
12.1368
12.1435
1
1
1
1
1
1
1
1
1
1
1
1
1
1
1
1
1
1
1
1
1
1
1
1
1
1
1
1
1
1
1
1
1
1
1
1
1
1
1
1
1
1
1
1
1
1
1
1
1
1
1
1
1
1
1
1
1
1
1
1
1
1
1
1
1
1
1
1
1
1
1
1
1
1
1
1
1
1
1
1
1
1
1
1
1
1
1
1
1
1
1
1
1
1
1
1
1
1
1
1
1
1
1
4.87456
10.2888
10.5607
10.5814
10.6189
10.651
10.6848
10.7196
10.756
10.7933
10.8308
10.8657
10.8961
10.9193
10.9344
10.9441
10.9518
10.9632
10.9824
11.0071
11.0406
11.0808
11.1211
11.1593
11.1944
11.2277
11.2575
11.2836
11.3038
11.3215
11.3398
11.361
11.3839
11.4082
11.4316
11.4512
11.4693
11.4882
11.5126
11.5395
11.5657
11.5881
11.6055
11.6189
11.6323
11.6522
11.6819
11.7101
11.7306
11.7425
11.7459
11.7486
11.7593
11.7785
11.8018
11.8233
11.8355
11.8387
11.8367
11.8367
11.845
11.8643
11.8918
11.9193
11.9388
11.948
11.9498
11.9502
11.9565
11.9742
12.0044
12.0414
12.0753
12.0981
12.1063
12.1013
12.0915
12.0859
12.0882
12.0964
12.1056
12.1112
12.1131
12.1143
12.1171
12.1217
12.1263
12.1291
12.1329
1
1
1
1
1
1
1
1
1
1
1
1
1
1
1
1
1
1
1
1
1
1
1
1
1
1
1
1
1
1
1
1
1
1
1
1
1
1
1
1
1
1
1
1
1
1
1
1
1
1
1
1
1
1
1
1
1
1
1
1
1
1
1
1
1
1
1
1
1
1
1
1
1
1
1
1
1
1
1
1
1
1
1
1
1
1
1
1
1
1
1
1
1
1
1
1
1
1
1
1
1
1
1
4.70513
10.2537
10.5548
10.5768
10.6156
10.6495
10.6837
10.7176
10.7524
10.7887
10.8261
10.8619
10.8933
10.9173
10.9327
10.9415
10.9491
10.9588
10.9764
11.0022
11.0371
11.0788
11.1203
11.1594
11.1946
11.2269
11.2551
11.2793
11.2977
11.3148
11.3337
11.3568
11.3823
11.4084
11.4327
11.4517
11.4679
11.485
11.5083
11.5346
11.5611
11.5849
11.6034
11.6171
11.6305
11.6499
11.6787
11.7058
11.7248
11.735
11.7369
11.7386
11.7511
11.7736
11.8004
11.8234
11.8336
11.8338
11.8291
11.8283
11.8385
11.8615
11.8924
11.9215
11.9404
11.9473
11.945
11.9418
11.9459
11.9641
11.9978
12.0395
12.0766
12.1002
12.106
12.0969
12.0844
12.0776
12.0802
12.0898
12.1009
12.1084
12.1117
12.1131
12.1144
12.1168
12.1198
12.1225
12.1248
1
1
1
1
1
1
1
1
1
1
1
1
1
1
1
1
1
1
1
1
1
1
1
1
1
1
1
1
1
1
1
1
1
1
1
1
1
1
1
1
1
1
1
1
1
1
1
1
1
1
1
1
1
1
1
1
1
1
1
1
1
1
1
1
1
1
1
1
1
1
1
1
1
1
1
1
1
1
1
1
1
1
1
1
1
1
1
1
1
1
1
1
1
1
1
1
1
1
1
1
1
1
1
4.51485
10.214
10.5479
10.5719
10.6119
10.6475
10.6822
10.7157
10.7493
10.7841
10.8204
10.8561
10.8883
10.9136
10.93
10.9394
10.9473
10.9548
10.9695
10.9949
11.0303
11.0726
11.1155
11.1565
11.1931
11.2255
11.253
11.2756
11.2919
11.308
11.3269
11.3515
11.3789
11.407
11.4326
11.4514
11.466
11.4809
11.5023
11.528
11.5553
11.5812
11.6018
11.6164
11.6298
11.6479
11.6742
11.6994
11.7169
11.7267
11.7293
11.7309
11.7436
11.7667
11.7944
11.8177
11.8274
11.8275
11.8232
11.8234
11.835
11.8593
11.8911
11.9206
11.9393
11.9453
11.9414
11.9363
11.9391
11.9572
11.9923
12.0363
12.0747
12.0984
12.1024
12.0908
12.0771
12.0702
12.0733
12.0838
12.0959
12.1043
12.108
12.1088
12.1089
12.1101
12.1129
12.1169
12.119
1
1
1
1
1
1
1
1
1
1
1
1
1
1
1
1
1
1
1
1
1
1
1
1
1
1
1
1
1
1
1
1
1
1
1
1
1
1
1
1
1
1
1
1
1
1
1
1
1
1
1
1
1
1
1
1
1
1
1
1
1
1
1
1
1
1
1
1
1
1
1
1
1
1
1
1
1
1
1
1
1
1
1
1
1
1
1
1
1
1
1
1
1
1
1
1
1
1
1
1
1
1
1
4.31085
10.1601
10.5432
10.567
10.6074
10.6439
10.6793
10.7129
10.7455
10.7791
10.8141
10.8494
10.8821
10.9091
10.9268
10.9385
10.9457
10.9521
10.9645
10.9878
11.0214
11.0627
11.1067
11.1498
11.1888
11.2225
11.2504
11.2719
11.2867
11.3015
11.32
11.3453
11.3738
11.4034
11.4299
11.449
11.4625
11.4757
11.4949
11.5201
11.5486
11.5768
11.6
11.6162
11.6296
11.6459
11.6685
11.6908
11.7072
11.7177
11.7231
11.7263
11.7381
11.7591
11.7848
11.8067
11.8172
11.8202
11.8194
11.8218
11.8337
11.8569
11.8872
11.9163
11.9354
11.9419
11.9387
11.9335
11.9358
11.9534
11.9882
12.0321
12.0701
12.0925
12.0947
12.0822
12.069
12.0635
12.0679
12.0791
12.0912
12.099
12.1019
12.1016
12.1007
12.1019
12.1059
12.1123
12.1158
1
1
1
1
1
1
1
1
1
1
1
1
1
1
1
1
1
1
1
1
1
1
1
1
1
1
1
1
1
1
1
1
1
1
1
1
1
1
1
1
1
1
1
1
1
1
1
1
1
1
1
1
1
1
1
1
1
1
1
1
1
1
1
1
1
1
1
1
1
1
1
1
1
1
1
1
1
1
1
1
1
1
1
1
1
1
1
1
1
1
1
1
1
1
1
1
1
1
1
1
1
1
1
4.10058
10.0811
10.5409
10.562
10.6023
10.6394
10.6755
10.7092
10.7414
10.7736
10.8074
10.8425
10.876
10.9039
10.9235
10.937
10.9444
10.9509
10.9624
10.983
11.014
11.0533
11.0973
11.1418
11.1827
11.2178
11.2466
11.2679
11.2818
11.2957
11.3136
11.3387
11.3677
11.3976
11.4246
11.444
11.4571
11.4692
11.4865
11.5112
11.5408
11.5712
11.5973
11.6154
11.6293
11.6435
11.6615
11.6807
11.6965
11.709
11.7185
11.7243
11.7346
11.7519
11.7723
11.7911
11.804
11.8122
11.8171
11.8223
11.8337
11.8537
11.8808
11.9087
11.9286
11.9372
11.9361
11.9322
11.9349
11.952
11.9856
12.0275
12.0633
12.0832
12.0834
12.0711
12.0599
12.0573
12.0638
12.0758
12.0869
12.0928
12.0936
12.0916
12.0899
12.0922
12.0989
12.1082
12.1142
1
1
1
1
1
1
1
1
1
1
1
1
1
1
1
1
1
1
1
1
1
1
1
1
1
1
1
1
1
1
1
1
1
1
1
1
1
1
1
1
1
1
1
1
1
1
1
1
1
1
1
1
1
1
1
1
1
1
1
1
1
1
1
1
1
1
1
1
1
1
1
1
1
1
1
1
1
1
1
1
1
1
1
1
1
1
1
1
1
1
1
1
1
1
1
1
1
1
1
1
1
1
1
3.87956
9.98484
10.5411
10.5594
10.5988
10.6349
10.6707
10.7046
10.7363
10.7676
10.8011
10.8364
10.8705
10.8984
10.9199
10.9331
10.9425
10.9506
10.9625
10.9806
11.0099
11.047
11.0902
11.1347
11.1761
11.2118
11.2414
11.2629
11.2766
11.29
11.3072
11.3317
11.3602
11.3901
11.4173
11.4371
11.4503
11.4622
11.4783
11.5022
11.5323
11.5645
11.5929
11.6133
11.628
11.6403
11.6538
11.6699
11.6859
11.7011
11.715
11.7237
11.7319
11.7443
11.7589
11.7746
11.7899
11.8043
11.8155
11.8237
11.8338
11.8495
11.8727
11.8987
11.9197
11.9308
11.9327
11.9312
11.9353
11.9524
11.9844
12.0231
12.055
12.0713
12.0693
12.0579
12.0499
12.0512
12.0607
12.0736
12.0831
12.0858
12.0834
12.0792
12.0774
12.0817
12.0917
12.1041
12.1134
1
1
1
1
1
1
1
1
1
1
1
1
1
1
1
1
1
1
1
1
1
1
1
1
1
1
1
1
1
1
1
1
1
1
1
1
1
1
1
1
1
1
1
1
1
1
1
1
1
1
1
1
1
1
1
1
1
1
1
1
1
1
1
1
1
1
1
1
1
1
1
1
1
1
1
1
1
1
1
1
1
1
1
1
1
1
1
1
1
1
1
1
1
1
1
1
1
1
1
1
1
1
1
3.63491
9.88266
10.5372
10.554
10.5933
10.6295
10.6654
10.699
10.7305
10.7618
10.7953
10.8311
10.8653
10.8943
10.914
10.9281
10.938
10.949
10.9614
10.9793
11.0081
11.0439
11.086
11.1297
11.1704
11.2058
11.2355
11.2572
11.2712
11.2843
11.3011
11.3247
11.3522
11.3814
11.4084
11.4288
11.4427
11.4552
11.4709
11.4937
11.5233
11.556
11.5862
11.6088
11.6246
11.6357
11.646
11.6603
11.6769
11.6947
11.7118
11.7227
11.729
11.7365
11.7462
11.7601
11.7779
11.7967
11.8132
11.824
11.8326
11.8444
11.8636
11.887
11.9085
11.9219
11.9271
11.929
11.9358
11.9542
11.9848
12.0193
12.0461
12.0577
12.0532
12.0434
12.0394
12.0451
12.0578
12.0716
12.079
12.0778
12.0716
12.0654
12.064
12.0709
12.0845
12.0997
12.1127
1
1
1
1
1
1
1
1
1
1
1
1
1
1
1
1
1
1
1
1
1
1
1
1
1
1
1
1
1
1
1
1
1
1
1
1
1
1
1
1
1
1
1
1
1
1
1
1
1
1
1
1
1
1
1
1
1
1
1
1
1
1
1
1
1
1
1
1
1
1
1
1
1
1
1
1
1
1
1
1
1
1
1
1
1
1
1
1
1
1
1
1
1
1
1
1
1
1
1
1
1
1
1
3.3736
9.77464
10.5322
10.5496
10.5867
10.6235
10.6596
10.6935
10.7251
10.7563
10.7899
10.8255
10.8607
10.8901
10.9084
10.922
10.9319
10.9453
10.9569
10.9765
11.0063
11.0424
11.084
11.1267
11.166
11.2004
11.2294
11.2509
11.2653
11.2785
11.2951
11.3175
11.3437
11.372
11.3987
11.4198
11.4351
11.4489
11.4649
11.4866
11.5145
11.5463
11.5772
11.6017
11.6187
11.6298
11.6394
11.6532
11.6705
11.6895
11.7081
11.7198
11.7244
11.7283
11.7353
11.7491
11.769
11.7906
11.8096
11.8216
11.8291
11.8381
11.8541
11.8748
11.8955
11.9104
11.9187
11.9246
11.9354
11.9566
11.9861
12.0157
12.0369
12.0431
12.0361
12.0284
12.0288
12.0389
12.0546
12.0689
12.0739
12.0685
12.0586
12.0509
12.0508
12.0608
12.0775
12.0945
12.1102
1
1
1
1
1
1
1
1
1
1
1
1
1
1
1
1
1
1
1
1
1
1
1
1
1
1
1
1
1
1
1
1
1
1
1
1
1
1
1
1
1
1
1
1
1
1
1
1
1
1
1
1
1
1
1
1
1
1
1
1
1
1
1
1
1
1
1
1
1
1
1
1
1
1
1
1
1
1
1
1
1
1
1
1
1
1
1
1
1
1
1
1
1
1
1
1
1
1
1
1
1
1
1
3.1083
9.64726
10.5214
10.5426
10.5796
10.6162
10.6532
10.6876
10.7201
10.7516
10.7847
10.8194
10.8559
10.8848
10.9043
10.916
10.9258
10.9372
10.949
10.9704
11.0022
11.0399
11.0821
11.1244
11.1624
11.1954
11.2234
11.2446
11.2595
11.273
11.2896
11.3108
11.3356
11.3627
11.3888
11.4108
11.4282
11.4437
11.4604
11.4808
11.5061
11.5356
11.566
11.5918
11.6103
11.6233
11.6349
11.6493
11.6667
11.6852
11.7029
11.714
11.7179
11.72
11.7268
11.742
11.7638
11.7861
11.8049
11.8161
11.8223
11.8299
11.844
11.8625
11.8814
11.8965
11.907
11.9175
11.9338
11.9584
11.9871
12.0121
12.0272
12.028
12.0196
12.0142
12.0188
12.0327
12.0504
12.0645
12.067
12.0579
12.045
12.0368
12.0386
12.0517
12.0707
12.0884
12.1052
1
1
1
1
1
1
1
1
1
1
1
1
1
1
1
1
1
1
1
1
1
1
1
1
1
1
1
1
1
1
1
1
1
1
1
1
1
1
1
1
1
1
1
1
1
1
1
1
1
1
1
1
1
1
1
1
1
1
1
1
1
1
1
1
1
1
1
1
1
1
1
1
1
1
1
1
1
1
1
1
1
1
1
1
1
1
1
1
1
1
1
1
1
1
1
1
1
1
1
1
1
1
1
2.84581
9.49086
10.5067
10.531
10.5692
10.6071
10.6459
10.6821
10.7156
10.7471
10.7785
10.8133
10.8498
10.8802
10.9013
10.913
10.9221
10.9277
10.9396
10.9611
10.9944
11.0343
11.0783
11.1213
11.1585
11.1903
11.2172
11.2381
11.2539
11.2683
11.2852
11.3054
11.3286
11.3541
11.379
11.4018
11.4217
11.4392
11.4569
11.4759
11.498
11.5244
11.553
11.5796
11.6003
11.6166
11.6321
11.6479
11.6643
11.6806
11.696
11.7054
11.7091
11.7118
11.7203
11.7379
11.761
11.7826
11.7989
11.8076
11.8127
11.8199
11.8331
11.85
11.8668
11.881
11.8931
11.9081
11.9303
11.9588
11.9871
12.0079
12.017
12.013
12.0039
12.0011
12.0092
12.0259
12.0448
12.0579
12.0578
12.046
12.0316
12.0239
12.028
12.0436
12.0639
12.081
12.0974
1
1
1
1
1
1
1
1
1
1
1
1
1
1
1
1
1
1
1
1
1
1
1
1
1
1
1
1
1
1
1
1
1
1
1
1
1
1
1
1
1
1
1
1
1
1
1
1
1
1
1
1
1
1
1
1
1
1
1
1
1
1
1
1
1
1
1
1
1
1
1
1
1
1
1
1
1
1
1
1
1
1
1
1
1
1
1
1
1
1
1
1
1
1
1
1
1
1
1
1
1
1
1
2.58998
9.30443
10.4886
10.5203
10.5607
10.5993
10.6413
10.6789
10.7115
10.7405
10.7709
10.8066
10.8417
10.8753
10.8983
10.9116
10.9181
10.9213
10.9314
10.952
10.9853
11.0263
11.0721
11.1162
11.1532
11.1839
11.21
11.2315
11.2489
11.2649
11.2827
11.3021
11.3235
11.3466
11.3696
11.3924
11.4147
11.4351
11.4537
11.4716
11.4904
11.5129
11.539
11.5658
11.5892
11.6098
11.6301
11.6471
11.6617
11.6749
11.6868
11.6942
11.6987
11.7043
11.7152
11.7349
11.7587
11.7788
11.7919
11.7973
11.801
11.8084
11.8214
11.837
11.8519
11.8647
11.878
11.8972
11.925
11.9571
11.9849
12.0026
12.0066
11.9985
11.9893
11.989
11.9999
12.0184
12.0373
12.0486
12.0463
12.033
12.019
12.0131
12.0193
12.0362
12.0562
12.072
12.0864
1
1
1
1
1
1
1
1
1
1
1
1
1
1
1
1
1
1
1
1
1
1
1
1
1
1
1
1
1
1
1
1
1
1
1
1
1
1
1
1
1
1
1
1
1
1
1
1
1
1
1
1
1
1
1
1
1
1
1
1
1
1
1
1
1
1
1
1
1
1
1
1
1
1
1
1
1
1
1
1
1
1
1
1
1
1
1
1
1
1
1
1
1
1
1
1
1
1
1
1
1
1
1
2.33443
9.08248
10.4706
10.5136
10.5594
10.6
10.64
10.6739
10.7034
10.7315
10.764
10.7967
10.8334
10.8673
10.8927
10.9082
10.9121
10.9158
10.924
10.9436
10.9764
11.0178
11.0646
11.1094
11.1459
11.1756
11.2012
11.2239
11.2435
11.2617
11.281
11.3001
11.3198
11.3401
11.3605
11.3826
11.4069
11.4306
11.4507
11.4676
11.483
11.5016
11.5245
11.5512
11.5773
11.6028
11.6277
11.6453
11.6574
11.6673
11.6757
11.6818
11.6876
11.6964
11.7101
11.7315
11.7553
11.7735
11.7838
11.7865
11.7891
11.7965
11.8091
11.8236
11.8367
11.8483
11.8627
11.8857
11.9183
11.9533
11.9807
11.9958
11.9961
11.9852
11.976
11.9776
11.9903
12.0093
12.0274
12.0368
12.0329
12.0199
12.008
12.0047
12.0124
12.029
12.0473
12.0613
12.0727
1
1
1
1
1
1
1
1
1
1
1
1
1
1
1
1
1
1
1
1
1
1
1
1
1
1
1
1
1
1
1
1
1
1
1
1
1
1
1
1
1
1
1
1
1
1
1
1
1
1
1
1
1
1
1
1
1
1
1
1
1
1
1
1
1
1
1
1
1
1
1
1
1
1
1
1
1
1
1
1
1
1
1
1
1
1
1
1
1
1
1
1
1
1
1
1
1
1
1
1
1
1
1
2.07633
8.81078
10.4688
10.5073
10.5579
10.5987
10.6368
10.6688
10.6966
10.7246
10.7555
10.7889
10.8242
10.8572
10.8849
10.9008
10.9052
10.9096
10.9177
10.9365
10.9685
11.01
11.057
11.1014
11.1369
11.1655
11.1907
11.2149
11.237
11.2578
11.2791
11.2985
11.3169
11.3345
11.3518
11.3724
11.3979
11.4245
11.4466
11.4633
11.4761
11.4908
11.51
11.536
11.5648
11.5949
11.6228
11.6406
11.6504
11.6576
11.6634
11.6692
11.6766
11.6875
11.7032
11.7253
11.7482
11.7652
11.7739
11.7756
11.7781
11.7856
11.7973
11.8103
11.8218
11.8323
11.8475
11.8736
11.9098
11.947
11.9743
11.9877
11.9855
11.9729
11.9637
11.9663
11.9796
11.9982
12.015
12.0228
12.0187
12.0078
11.9991
11.9983
12.0064
12.0212
12.0367
12.0484
12.0566
1
1
1
1
1
1
1
1
1
1
1
1
1
1
1
1
1
1
1
1
1
1
1
1
1
1
1
1
1
1
1
1
1
1
1
1
1
1
1
1
1
1
1
1
1
1
1
1
1
1
1
1
1
1
1
1
1
1
1
1
1
1
1
1
1
1
1
1
1
1
1
1
1
1
1
1
1
1
1
1
1
1
1
1
1
1
1
1
1
1
1
1
1
1
1
1
1
1
1
1
1
1
1
1.82968
8.49583
10.4694
10.5013
10.5549
10.594
10.6312
10.6626
10.6904
10.7198
10.7503
10.7828
10.8167
10.8487
10.8755
10.8908
10.8963
10.9016
10.9111
10.9302
10.9618
11.0034
11.0505
11.0942
11.1283
11.1555
11.1798
11.2045
11.2282
11.2516
11.2753
11.2957
11.3138
11.3293
11.3438
11.3622
11.3877
11.4163
11.4405
11.4583
11.4699
11.4816
11.4974
11.5219
11.5521
11.5848
11.6146
11.6319
11.6403
11.6462
11.6512
11.6573
11.6661
11.6781
11.6941
11.7151
11.7364
11.753
11.7624
11.7652
11.7689
11.7765
11.7869
11.798
11.8076
11.8167
11.8322
11.8604
11.8991
11.938
11.9656
11.9786
11.9752
11.9615
11.9519
11.9544
11.9673
11.9846
12
12.0072
12.0047
11.9972
11.9919
11.9927
12.0001
12.0121
12.0243
12.0336
12.0388
1
1
1
1
1
1
1
1
1
1
1
1
1
1
1
1
1
1
1
1
1
1
1
1
1
1
1
1
1
1
1
1
1
1
1
1
1
1
1
1
1
1
1
1
1
1
1
1
1
1
1
1
1
1
1
1
1
1
1
1
1
1
1
1
1
1
1
1
1
1
1
1
1
1
1
1
1
1
1
1
1
1
1
1
1
1
1
1
1
1
1
1
1
1
1
1
1
1
1
1
1
1
1
1.60248
8.13051
10.472
10.5005
10.5517
10.5876
10.6227
10.655
10.685
10.7146
10.745
10.7782
10.8123
10.8434
10.8681
10.8823
10.8881
10.8941
10.9051
10.9242
10.9548
10.9965
11.0437
11.087
11.1201
11.1462
11.1694
11.1933
11.2171
11.2422
11.2679
11.29
11.3089
11.3234
11.3361
11.3522
11.3767
11.4058
11.4318
11.4515
11.4633
11.4736
11.4869
11.5092
11.5388
11.572
11.6023
11.6192
11.6273
11.6335
11.6395
11.6468
11.6565
11.6685
11.6827
11.7008
11.7199
11.7369
11.7486
11.7545
11.7608
11.769
11.7783
11.7874
11.7947
11.8023
11.8174
11.8463
11.8862
11.9263
11.9551
11.9688
11.9651
11.9507
11.9402
11.9413
11.9527
11.9686
11.9832
11.9912
11.9916
11.988
11.9856
11.987
11.9926
12.0014
12.0103
12.0172
12.0205
1
1
1
1
1
1
1
1
1
1
1
1
1
1
1
1
1
1
1
1
1
1
1
1
1
1
1
1
1
1
1
1
1
1
1
1
1
1
1
1
1
1
1
1
1
1
1
1
1
1
1
1
1
1
1
1
1
1
1
1
1
1
1
1
1
1
1
1
1
1
1
1
1
1
1
1
1
1
1
1
1
1
1
1
1
1
1
1
1
1
1
1
1
1
1
1
1
1
1
1
1
1
1
1.39734
7.71436
10.4697
10.4982
10.5438
10.5794
10.6132
10.6457
10.6778
10.7098
10.7412
10.7742
10.8071
10.8374
10.8607
10.8744
10.8807
10.8878
10.8995
10.9179
10.9475
10.9892
11.037
11.0805
11.1132
11.1384
11.1605
11.1825
11.2052
11.2302
11.2564
11.28
11.3006
11.3157
11.328
11.3429
11.3656
11.3939
11.4208
11.4424
11.4556
11.4662
11.4783
11.4984
11.5257
11.5576
11.5867
11.6036
11.6127
11.6203
11.6282
11.6371
11.6469
11.6576
11.669
11.6831
11.7002
11.7177
11.7328
11.7434
11.7532
11.7627
11.7715
11.7788
11.7836
11.7898
11.8036
11.8316
11.871
11.9117
11.9422
11.9573
11.9543
11.9398
11.9281
11.9269
11.9362
11.9508
11.9655
11.9756
11.9796
11.9796
11.9791
11.9801
11.9832
11.9888
11.9946
11.9995
12.0021
1
1
1
1
1
1
1
1
1
1
1
1
1
1
1
1
1
1
1
1
1
1
1
1
1
1
1
1
1
1
1
1
1
1
1
1
1
1
1
1
1
1
1
1
1
1
1
1
1
1
1
1
1
1
1
1
1
1
1
1
1
1
1
1
1
1
1
1
1
1
1
1
1
1
1
1
1
1
1
1
1
1
1
1
1
1
1
1
1
1
1
1
1
1
1
1
1
1
1
1
1
1
1
1.20122
7.26352
10.4743
10.501
10.5394
10.5731
10.6058
10.6376
10.6686
10.699
10.7302
10.7634
10.7976
10.8298
10.8544
10.8693
10.8777
10.8855
10.8961
10.9118
10.9387
10.9792
11.0282
11.0731
11.1068
11.132
11.1528
11.1727
11.1932
11.2167
11.2418
11.2663
11.2883
11.3053
11.3191
11.3342
11.3551
11.3821
11.4088
11.4317
11.4466
11.4585
11.4703
11.4887
11.5128
11.5424
11.5698
11.5872
11.598
11.6071
11.6166
11.6272
11.6367
11.6454
11.6541
11.6646
11.6801
11.6973
11.7157
11.7309
11.7447
11.7561
11.7652
11.7712
11.7741
11.779
11.7913
11.8172
11.8545
11.8947
11.9266
11.9433
11.9417
11.9282
11.9156
11.9121
11.9191
11.9326
11.9482
11.9608
11.968
11.9706
11.9709
11.9707
11.9713
11.974
11.9777
11.9811
11.9844
1
1
1
1
1
1
1
1
1
1
1
1
1
1
1
1
1
1
1
1
1
1
1
1
1
1
1
1
1
1
1
1
1
1
1
1
1
1
1
1
1
1
1
1
1
1
1
1
1
1
1
1
1
1
1
1
1
1
1
1
1
1
1
1
1
1
1
1
1
1
1
1
1
1
1
1
1
1
1
1
1
1
1
1
1
1
1
1
1
1
1
1
1
1
1
1
1
1
1
1
1
1
1
1.0125
6.7505
10.4888
10.5089
10.5305
10.5607
10.5931
10.6264
10.6584
10.6894
10.721
10.7538
10.7881
10.8219
10.8487
10.8659
10.8769
10.885
10.8936
10.9057
10.9287
10.967
11.0169
11.0641
11.1003
11.1265
11.1466
11.1641
11.1818
11.2027
11.226
11.2511
11.2735
11.2925
11.3087
11.325
11.3446
11.3704
11.3965
11.4197
11.4362
11.4495
11.4619
11.4791
11.5004
11.5274
11.5534
11.572
11.5842
11.5943
11.6044
11.6157
11.6252
11.6321
11.6385
11.6468
11.661
11.6778
11.698
11.7169
11.7342
11.7479
11.7576
11.7632
11.7655
11.7698
11.7811
11.8043
11.8383
11.8762
11.9081
11.9259
11.926
11.9146
11.9022
11.8972
11.9024
11.9153
11.9319
11.9464
11.9557
11.9596
11.9598
11.9582
11.9567
11.9575
11.9601
11.9628
11.9676
1
1
1
1
1
1
1
1
1
1
1
1
1
1
1
1
1
1
1
1
1
1
1
1
1
1
1
1
1
1
1
1
1
1
1
1
1
1
1
1
1
1
1
1
1
1
1
1
1
1
1
1
1
1
1
1
1
1
1
1
1
1
1
1
1
1
1
1
1
1
1
1
1
1
1
1
1
1
1
1
1
1
1
1
1
1
1
1
1
1
1
1
1
1
1
1
1
1
1
1
1
1
1
1.00011
6.13866
10.4094
10.4936
10.5196
10.5524
10.5855
10.6188
10.6501
10.6804
10.7111
10.743
10.7773
10.8124
10.8419
10.8623
10.8759
10.8844
10.8913
10.8999
10.9184
10.9538
11.0037
11.0533
11.0924
11.1203
11.1403
11.156
11.171
11.1888
11.2106
11.2354
11.2582
11.2785
11.2969
11.3146
11.3336
11.3585
11.3837
11.4069
11.4245
11.4388
11.4522
11.4687
11.4883
11.5135
11.5388
11.5586
11.5719
11.5819
11.5914
11.6022
11.6118
11.618
11.6234
11.6307
11.644
11.6602
11.681
11.7018
11.7213
11.7366
11.7469
11.753
11.7562
11.7614
11.7728
11.7937
11.8235
11.8572
11.8871
11.9048
11.9066
11.8983
11.8879
11.883
11.8875
11.9001
11.917
11.9322
11.9418
11.9457
11.9449
11.942
11.9396
11.9398
11.9425
11.9453
11.9515
1
1
1
1
1
1
1
1
1
1
1
1
1
1
1
1
1
1
1
1
1
1
1
1
1
1
1
1
1
1
1
1
1
1
1
1
1
1
1
1
1
1
1
1
1
1
1
1
1
1
1
1
1
1
1
1
1
1
1
1
1
1
1
1
1
1
1
1
1
1
1
1
1
1
1
1
1
1
1
1
1
1
1
1
1
1
1
1
1
1
1
1
1
1
1
1
1
1
1
1
1
1
1
1
5.49015
10.3286
10.4785
10.5082
10.5442
10.5789
10.6116
10.6424
10.6723
10.7018
10.7323
10.7662
10.8019
10.8332
10.8562
10.8717
10.8813
10.8881
10.8944
10.9086
10.9406
10.9895
11.0406
11.082
11.1117
11.1325
11.1473
11.1607
11.176
11.1971
11.2215
11.2447
11.2656
11.2849
11.3032
11.3216
11.3454
11.3699
11.3929
11.4116
11.4271
11.4417
11.4577
11.4768
11.5008
11.526
11.5467
11.5604
11.5695
11.5777
11.5873
11.5968
11.6034
11.6093
11.6167
11.6293
11.6446
11.6651
11.6862
11.7061
11.7217
11.7322
11.7396
11.7451
11.7529
11.766
11.7853
11.8107
11.8387
11.8643
11.8803
11.8837
11.8792
11.8723
11.8694
11.8747
11.8873
11.9032
11.9172
11.9258
11.9282
11.926
11.9223
11.92
11.9211
11.925
11.9285
11.9357
1
1
1
1
1
1
1
1
1
1
1
1
1
1
1
1
1
1
1
1
1
1
1
1
1
1
1
1
1
1
1
1
1
1
1
1
1
1
1
1
1
1
1
1
1
1
1
1
1
1
1
1
1
1
1
1
1
1
1
1
1
1
1
1
1
1
1
1
1
1
1
1
1
1
1
1
1
1
1
1
1
1
1
1
1
1
1
1
1
1
1
1
1
1
1
1
1
1
1
1
1
1
1
1
4.82972
10.2216
10.4634
10.4994
10.5392
10.5747
10.6059
10.6338
10.6617
10.6904
10.7214
10.7558
10.7919
10.8243
10.8491
10.8652
10.8758
10.8829
10.8884
10.8996
10.9286
10.9761
11.0277
11.0701
11.1011
11.1225
11.1375
11.1501
11.1642
11.1848
11.209
11.2327
11.2544
11.2741
11.292
11.309
11.3308
11.3544
11.3776
11.3979
11.4148
11.4307
11.4468
11.4657
11.4887
11.5139
11.5349
11.5487
11.5566
11.5634
11.5721
11.5815
11.5892
11.5966
11.6042
11.6162
11.6305
11.6501
11.67
11.6884
11.7027
11.7129
11.7219
11.7313
11.7437
11.7596
11.7786
11.7997
11.821
11.8406
11.8537
11.8581
11.8577
11.8555
11.8563
11.8635
11.8761
11.89
11.9013
11.9072
11.9073
11.9036
11.8998
11.8988
11.9018
11.9077
11.9124
11.9201
1
1
1
1
1
1
1
1
1
1
1
1
1
1
1
1
1
1
1
1
1
1
1
1
1
1
1
1
1
1
1
1
1
1
1
1
1
1
1
1
1
1
1
1
1
1
1
1
1
1
1
1
1
1
1
1
1
1
1
1
1
1
1
1
1
1
1
1
1
1
1
1
1
1
1
1
1
1
1
1
1
1
1
1
1
1
1
1
1
1
1
1
1
1
1
1
1
1
1
1
1
1
1
1
4.17752
10.0666
10.4564
10.4933
10.5341
10.5678
10.5968
10.6239
10.6525
10.6815
10.7125
10.7471
10.783
10.8151
10.8404
10.8568
10.8682
10.8755
10.8816
10.891
10.9173
10.9628
11.0139
11.0566
11.0885
11.1102
11.1256
11.1381
11.153
11.1738
11.198
11.2224
11.245
11.2645
11.2816
11.2967
11.3153
11.3371
11.3604
11.3826
11.4016
11.4192
11.4362
11.4549
11.4774
11.5017
11.5219
11.5355
11.5432
11.5494
11.5575
11.5671
11.5763
11.5847
11.5924
11.604
11.6175
11.6358
11.6532
11.6684
11.6799
11.6895
11.7005
11.7149
11.7329
11.7527
11.7717
11.789
11.804
11.8174
11.827
11.8317
11.8349
11.8375
11.8429
11.8529
11.8651
11.8761
11.8836
11.8858
11.8833
11.8786
11.8754
11.8765
11.882
11.8902
11.8967
11.9043
1
1
1
1
1
1
1
1
1
1
1
1
1
1
1
1
1
1
1
1
1
1
1
1
1
1
1
1
1
1
1
1
1
1
1
1
1
1
1
1
1
1
1
1
1
1
1
1
1
1
1
1
1
1
1
1
1
1
1
1
1
1
1
1
1
1
1
1
1
1
1
1
1
1
1
1
1
1
1
1
1
1
1
1
1
1
1
1
1
1
1
1
1
1
1
1
1
1
1
1
1
1
1
1
3.55712
9.8387
10.459
10.4919
10.5302
10.5615
10.5883
10.6148
10.6419
10.6719
10.7043
10.7392
10.7745
10.8064
10.8312
10.8469
10.859
10.8658
10.8723
10.8814
10.9048
10.9484
10.9989
11.0422
11.0745
11.0967
11.1127
11.1252
11.1411
11.162
11.1864
11.2121
11.2359
11.2556
11.272
11.2852
11.3003
11.3199
11.3427
11.3666
11.3879
11.4074
11.4256
11.4444
11.4661
11.4884
11.5068
11.5201
11.5287
11.5356
11.544
11.5542
11.5645
11.573
11.5802
11.5919
11.6049
11.6215
11.6354
11.646
11.654
11.6631
11.6768
11.6965
11.7205
11.7439
11.7629
11.7769
11.7869
11.7954
11.8018
11.8063
11.8118
11.8186
11.8283
11.8407
11.8526
11.8604
11.8636
11.8618
11.8571
11.8523
11.8505
11.8538
11.8619
11.8722
11.8806
11.8877
1
1
1
1
1
1
1
1
1
1
1
1
1
1
1
1
1
1
1
1
1
1
1
1
1
1
1
1
1
1
1
1
1
1
1
1
1
1
1
1
1
1
1
1
1
1
1
1
1
1
1
1
1
1
1
1
1
1
1
1
1
1
1
1
1
1
1
1
1
1
1
1
1
1
1
1
1
1
1
1
1
1
1
1
1
1
1
1
1
1
1
1
1
1
1
1
1
1
1
1
1
1
1
1
2.98354
9.53897
10.4641
10.4888
10.5252
10.5524
10.5788
10.6061
10.6343
10.6641
10.6965
10.7311
10.7654
10.7965
10.8202
10.8367
10.8486
10.8552
10.8613
10.8705
10.8921
10.9343
10.9848
11.029
11.0616
11.0834
11.0981
11.1104
11.1272
11.1487
11.1739
11.2011
11.2264
11.2468
11.2631
11.2743
11.2862
11.3029
11.3243
11.3487
11.3723
11.3942
11.4143
11.4333
11.4536
11.473
11.4888
11.5021
11.5128
11.522
11.5319
11.543
11.5531
11.5604
11.5669
11.5793
11.5922
11.6068
11.6164
11.6215
11.6257
11.635
11.652
11.6774
11.7064
11.7322
11.7504
11.7617
11.7688
11.7747
11.7794
11.7834
11.7899
11.7992
11.8118
11.8258
11.837
11.842
11.8412
11.836
11.83
11.8259
11.826
11.8314
11.8413
11.853
11.8631
11.8695
1
1
1
1
1
1
1
1
1
1
1
1
1
1
1
1
1
1
1
1
1
1
1
1
1
1
1
1
1
1
1
1
1
1
1
1
1
1
1
1
1
1
1
1
1
1
1
1
1
1
1
1
1
1
1
1
1
1
1
1
1
1
1
1
1
1
1
1
1
1
1
1
1
1
1
1
1
1
1
1
1
1
1
1
1
1
1
1
1
1
1
1
1
1
1
1
1
1
1
1
1
1
1
1
2.45789
9.15521
10.4666
10.4882
10.5235
10.5484
10.5735
10.5983
10.6249
10.6551
10.688
10.7222
10.7558
10.786
10.8093
10.8269
10.8386
10.846
10.8524
10.8615
10.8813
10.9204
10.9696
11.0143
11.0476
11.0701
11.0846
11.0976
11.1145
11.1346
11.1589
11.1868
11.2139
11.236
11.253
11.2637
11.2738
11.2875
11.3066
11.3301
11.3551
11.3797
11.4022
11.4219
11.44
11.4552
11.4679
11.4813
11.4955
11.5085
11.5212
11.5329
11.5413
11.5463
11.5522
11.5654
11.5787
11.5907
11.5957
11.5955
11.5966
11.6063
11.6274
11.6583
11.6909
11.717
11.7335
11.743
11.7493
11.7552
11.7597
11.7633
11.7696
11.7793
11.7926
11.8071
11.8175
11.8201
11.8163
11.8088
11.8026
11.8002
11.8025
11.8096
11.8205
11.8326
11.8436
11.8491
1
1
1
1
1
1
1
1
1
1
1
1
1
1
1
1
1
1
1
1
1
1
1
1
1
1
1
1
1
1
1
1
1
1
1
1
1
1
1
1
1
1
1
1
1
1
1
1
1
1
1
1
1
1
1
1
1
1
1
1
1
1
1
1
1
1
1
1
1
1
1
1
1
1
1
1
1
1
1
1
1
1
1
1
1
1
1
1
1
1
1
1
1
1
1
1
1
1
1
1
1
1
1
1
1.99001
8.68959
10.481
10.4855
10.5179
10.5405
10.5656
10.59
10.6165