/*--------------------------------*- C++ -*----------------------------------*\
  =========                 |
  \\      /  F ield         | OpenFOAM: The Open Source CFD Toolbox
   \\    /   O peration     | Website:  https://openfoam.org
    \\  /    A nd           | Version:  7
     \\/     M anipulation  |
\*---------------------------------------------------------------------------*/
FoamFile
{
    version     2.0;
    format      ascii;
    class       volScalarField;
    location    "1.5";
    object      rho;
}
// * * * * * * * * * * * * * * * * * * * * * * * * * * * * * * * * * * * * * //

dimensions      [1 -3 0 0 0 0 0];

internalField   nonuniform List<scalar> 
258048
(
1.40001
1.40001
1.40001
1.40001
1.40001
1.40001
1.40001
1.40001
1.40001
1.40001
1.40001
1.40001
1.40001
1.40001
1.40001
1.40001
1.40001
1.40001
1.40001
1.40001
1.40001
1.40001
1.40001
1.40001
1.40001
1.40001
1.40001
1.40001
1.40001
1.40001
1.40001
1.40001
1.40001
1.40001
1.40001
1.40001
1.40001
1.40001
1.40001
1.40001
1.40001
1.40001
1.40001
1.40001
1.40001
1.40001
1.40001
1.40001
1.40001
1.40001
1.40001
1.40001
1.40001
1.40001
1.40001
1.40001
1.40001
1.40001
1.40001
1.40001
1.40001
1.40001
1.40001
1.40001
1.40001
1.40001
1.40001
1.40001
1.40001
1.40001
1.40001
1.40001
1.40001
1.40001
1.40001
1.40001
1.40001
1.40001
1.40001
1.40001
1.40001
1.40001
1.40001
1.40001
1.40001
1.40001
1.40001
1.40001
1.40001
1.40001
1.40001
1.40001
1.40001
1.40001
1.40001
1.40001
1.40001
1.40001
1.40001
1.40001
1.40001
1.40001
1.40001
3.54306
5.40562
5.46588
5.48076
5.49183
5.49881
5.50425
5.50924
5.51431
5.51974
5.52581
5.53304
5.54162
5.55188
5.56265
5.57206
5.5818
5.59335
5.60794
5.6246
5.64161
5.65996
5.67423
5.68191
5.6853
5.68812
5.69353
5.70135
5.71005
5.71807
5.72572
5.73166
5.73633
5.74093
5.74731
5.75654
5.76802
5.77966
5.79352
5.80712
5.81935
5.83035
5.83715
5.83814
5.83422
5.83016
5.82929
5.8347
5.84365
5.85358
5.86289
5.87008
5.87392
5.87472
5.87328
5.87183
5.87367
5.88133
5.89192
5.90213
5.90783
5.90758
5.90366
5.90034
5.90135
5.90894
5.92162
5.93358
5.93894
5.93821
5.93496
5.93276
5.93447
5.93983
5.9457
5.94838
5.94643
5.9409
5.93401
5.92746
5.92047
5.91004
5.89139
5.85993
5.81521
5.76498
5.72423
5.70387
5.7037
1.40001
1.40001
1.40001
1.40001
1.40001
1.40001
1.40001
1.40001
1.40001
1.40001
1.40001
1.40001
1.40001
1.40001
1.40001
1.40001
1.40001
1.40001
1.40001
1.40001
1.40001
1.40001
1.40001
1.40001
1.40001
1.40001
1.40001
1.40001
1.40001
1.40001
1.40001
1.40001
1.40001
1.40001
1.40001
1.40001
1.40001
1.40001
1.40001
1.40001
1.40001
1.40001
1.40001
1.40001
1.40001
1.40001
1.40001
1.40001
1.40001
1.40001
1.40001
1.40001
1.40001
1.40001
1.40001
1.40001
1.40001
1.40001
1.40001
1.40001
1.40001
1.40001
1.40001
1.40001
1.40001
1.40001
1.40001
1.40001
1.40001
1.40001
1.40001
1.40001
1.40001
1.40001
1.40001
1.40001
1.40001
1.40001
1.40001
1.40001
1.40001
1.40001
1.40001
1.40001
1.40001
1.40001
1.40001
1.40001
1.40001
1.40001
1.40001
1.40001
1.40001
1.40001
1.40001
1.40001
1.40001
1.40001
1.40001
1.40001
1.40001
1.40001
1.40001
3.53344
5.39515
5.46866
5.48176
5.49228
5.49904
5.50443
5.50954
5.51466
5.51999
5.52598
5.53312
5.54167
5.55188
5.56248
5.57173
5.58126
5.59267
5.60733
5.62379
5.6406
5.65866
5.67279
5.68082
5.68469
5.68815
5.69405
5.7023
5.71113
5.71891
5.7261
5.73163
5.73592
5.74037
5.74638
5.75538
5.76687
5.77867
5.7928
5.80683
5.81943
5.83039
5.83676
5.83727
5.83321
5.8294
5.82912
5.83523
5.84469
5.85474
5.86398
5.87082
5.87434
5.87499
5.8737
5.87246
5.87444
5.88169
5.89148
5.90083
5.90605
5.90607
5.90309
5.90072
5.90219
5.90964
5.92152
5.93248
5.93758
5.9372
5.93447
5.93265
5.93444
5.93976
5.94546
5.94802
5.94606
5.94064
5.93385
5.92743
5.9206
5.91038
5.89195
5.86072
5.81596
5.76529
5.72374
5.70243
5.70183
1.40001
1.40001
1.40001
1.40001
1.40001
1.40001
1.40001
1.40001
1.40001
1.40001
1.40001
1.40001
1.40001
1.40001
1.40001
1.40001
1.40001
1.40001
1.40001
1.40001
1.40001
1.40001
1.40001
1.40001
1.40001
1.40001
1.40001
1.40001
1.40001
1.40001
1.40001
1.40001
1.40001
1.40001
1.40001
1.40001
1.40001
1.40001
1.40001
1.40001
1.40001
1.40001
1.40001
1.40001
1.40001
1.40001
1.40001
1.40001
1.40001
1.40001
1.40001
1.40001
1.40001
1.40001
1.40001
1.40001
1.40001
1.40001
1.40001
1.40001
1.40001
1.40001
1.40001
1.40001
1.40001
1.40001
1.40001
1.40001
1.40001
1.40001
1.40001
1.40001
1.40001
1.40001
1.40001
1.40001
1.40001
1.40001
1.40001
1.40001
1.40001
1.40001
1.40001
1.40001
1.40001
1.40001
1.40001
1.40001
1.40001
1.40001
1.40001
1.40001
1.40001
1.40001
1.40001
1.40001
1.40001
1.40001
1.40001
1.40001
1.40001
1.40001
1.40001
3.51566
5.38695
5.46872
5.48127
5.49162
5.49866
5.50453
5.51
5.51529
5.52052
5.52626
5.53316
5.54159
5.55173
5.56216
5.57133
5.58077
5.5922
5.60696
5.62313
5.63952
5.65707
5.67088
5.67916
5.68352
5.68774
5.69426
5.7031
5.71232
5.72002
5.72689
5.73216
5.73611
5.74015
5.74541
5.75388
5.76522
5.77714
5.79158
5.80619
5.81928
5.83023
5.83605
5.83579
5.83134
5.82771
5.82811
5.83507
5.84533
5.85586
5.86535
5.87197
5.87522
5.87565
5.87442
5.87325
5.87523
5.88188
5.89079
5.89911
5.90374
5.90423
5.90255
5.90147
5.90353
5.91058
5.92094
5.93023
5.93502
5.93533
5.93372
5.93295
5.93505
5.93992
5.94487
5.94687
5.94489
5.93989
5.93367
5.92757
5.9208
5.91052
5.89225
5.86153
5.81721
5.76626
5.72358
5.70067
5.69905
1.40001
1.40001
1.40001
1.40001
1.40001
1.40001
1.40001
1.40001
1.40001
1.40001
1.40001
1.40001
1.40001
1.40001
1.40001
1.40001
1.40001
1.40001
1.40001
1.40001
1.40001
1.40001
1.40001
1.40001
1.40001
1.40001
1.40001
1.40001
1.40001
1.40001
1.40001
1.40001
1.40001
1.40001
1.40001
1.40001
1.40001
1.40001
1.40001
1.40001
1.40001
1.40001
1.40001
1.40001
1.40001
1.40001
1.40001
1.40001
1.40001
1.40001
1.40001
1.40001
1.40001
1.40001
1.40001
1.40001
1.40001
1.40001
1.40001
1.40001
1.40001
1.40001
1.40001
1.40001
1.40001
1.40001
1.40001
1.40001
1.40001
1.40001
1.40001
1.40001
1.40001
1.40001
1.40001
1.40001
1.40001
1.40001
1.40001
1.40001
1.40001
1.40001
1.40001
1.40001
1.40001
1.40001
1.40001
1.40001
1.40001
1.40001
1.40001
1.40001
1.40001
1.40001
1.40001
1.40001
1.40001
1.40001
1.40001
1.40001
1.40001
1.40001
1.40001
3.48908
5.37987
5.46737
5.47953
5.49005
5.49763
5.50429
5.51032
5.51582
5.52095
5.52645
5.5331
5.54138
5.55145
5.56174
5.57096
5.58044
5.59205
5.60702
5.62292
5.63886
5.65587
5.66923
5.67746
5.68207
5.68692
5.694
5.70348
5.71319
5.72104
5.72776
5.73287
5.73634
5.73974
5.74413
5.75204
5.7633
5.77548
5.79036
5.80564
5.81919
5.82989
5.83504
5.83385
5.82896
5.82561
5.8272
5.83526
5.84628
5.85715
5.86662
5.87279
5.87591
5.87658
5.87568
5.8748
5.87659
5.88216
5.88953
5.89633
5.90035
5.90173
5.90197
5.90257
5.9055
5.91178
5.91985
5.92695
5.93116
5.93239
5.9324
5.93326
5.93614
5.94055
5.94449
5.9456
5.94326
5.93853
5.93296
5.92744
5.92099
5.91088
5.89286
5.86265
5.81861
5.76715
5.72294
5.69805
5.69504
1.40001
1.40001
1.40001
1.40001
1.40001
1.40001
1.40001
1.40001
1.40001
1.40001
1.40001
1.40001
1.40001
1.40001
1.40001
1.40001
1.40001
1.40001
1.40001
1.40001
1.40001
1.40001
1.40001
1.40001
1.40001
1.40001
1.40001
1.40001
1.40001
1.40001
1.40001
1.40001
1.40001
1.40001
1.40001
1.40001
1.40001
1.40001
1.40001
1.40001
1.40001
1.40001
1.40001
1.40001
1.40001
1.40001
1.40001
1.40001
1.40001
1.40001
1.40001
1.40001
1.40001
1.40001
1.40001
1.40001
1.40001
1.40001
1.40001
1.40001
1.40001
1.40001
1.40001
1.40001
1.40001
1.40001
1.40001
1.40001
1.40001
1.40001
1.40001
1.40001
1.40001
1.40001
1.40001
1.40001
1.40001
1.40001
1.40001
1.40001
1.40001
1.40001
1.40001
1.40001
1.40001
1.40001
1.40001
1.40001
1.40001
1.40001
1.40001
1.40001
1.40001
1.40001
1.40001
1.40001
1.40001
1.40001
1.40001
1.40001
1.40001
1.40001
1.40001
3.45591
5.3714
5.46453
5.47663
5.48795
5.49591
5.50317
5.50969
5.51556
5.52087
5.52641
5.53297
5.54122
5.55123
5.56122
5.57041
5.58
5.592
5.6075
5.62338
5.639
5.65559
5.66854
5.67642
5.68073
5.68557
5.69274
5.70269
5.71312
5.72142
5.72834
5.73372
5.73698
5.73968
5.74327
5.75049
5.76154
5.77392
5.78925
5.80517
5.81902
5.82936
5.83379
5.83174
5.82647
5.82342
5.82626
5.83535
5.84692
5.85778
5.86706
5.87289
5.87613
5.87759
5.87734
5.87692
5.87831
5.88234
5.88775
5.89277
5.89628
5.89896
5.9015
5.90422
5.90799
5.91295
5.91822
5.92286
5.92623
5.92849
5.9306
5.9336
5.9377
5.94187
5.94456
5.9444
5.94117
5.93644
5.93153
5.92683
5.92104
5.9113
5.89364
5.86387
5.81995
5.76771
5.72189
5.69501
5.69042
1.40001
1.40001
1.40001
1.40001
1.40001
1.40001
1.40001
1.40001
1.40001
1.40001
1.40001
1.40001
1.40001
1.40001
1.40001
1.40001
1.40001
1.40001
1.40001
1.40001
1.40001
1.40001
1.40001
1.40001
1.40001
1.40001
1.40001
1.40001
1.40001
1.40001
1.40001
1.40001
1.40001
1.40001
1.40001
1.40001
1.40001
1.40001
1.40001
1.40001
1.40001
1.40001
1.40001
1.40001
1.40001
1.40001
1.40001
1.40001
1.40001
1.40001
1.40001
1.40001
1.40001
1.40001
1.40001
1.40001
1.40001
1.40001
1.40001
1.40001
1.40001
1.40001
1.40001
1.40001
1.40001
1.40001
1.40001
1.40001
1.40001
1.40001
1.40001
1.40001
1.40001
1.40001
1.40001
1.40001
1.40001
1.40001
1.40001
1.40001
1.40001
1.40001
1.40001
1.40001
1.40001
1.40001
1.40001
1.40001
1.40001
1.40001
1.40001
1.40001
1.40001
1.40001
1.40001
1.40001
1.40001
1.40001
1.40001
1.40001
1.40001
1.40001
1.40001
3.41543
5.35941
5.46161
5.47305
5.48562
5.49413
5.50188
5.50865
5.51467
5.52015
5.52595
5.53275
5.54126
5.55133
5.56101
5.57015
5.57985
5.59234
5.60857
5.6247
5.64024
5.65657
5.66915
5.67651
5.68011
5.68419
5.69072
5.7007
5.71168
5.72068
5.72821
5.73427
5.73781
5.74008
5.74314
5.74975
5.7604
5.77281
5.78854
5.80488
5.81878
5.82868
5.83245
5.82977
5.82418
5.82146
5.82557
5.83551
5.84705
5.85742
5.86623
5.87191
5.87549
5.87824
5.87928
5.87955
5.88032
5.88239
5.88551
5.8887
5.89209
5.89634
5.90133
5.9063
5.91061
5.91388
5.9163
5.91845
5.92082
5.92399
5.92834
5.9338
5.93952
5.94369
5.9452
5.94332
5.93863
5.93351
5.92918
5.92549
5.92067
5.91158
5.89444
5.865
5.82093
5.76778
5.72036
5.69179
5.6856
1.40001
1.40001
1.40001
1.40001
1.40001
1.40001
1.40001
1.40001
1.40001
1.40001
1.40001
1.40001
1.40001
1.40001
1.40001
1.40001
1.40001
1.40001
1.40001
1.40001
1.40001
1.40001
1.40001
1.40001
1.40001
1.40001
1.40001
1.40001
1.40001
1.40001
1.40001
1.40001
1.40001
1.40001
1.40001
1.40001
1.40001
1.40001
1.40001
1.40001
1.40001
1.40001
1.40001
1.40001
1.40001
1.40001
1.40001
1.40001
1.40001
1.40001
1.40001
1.40001
1.40001
1.40001
1.40001
1.40001
1.40001
1.40001
1.40001
1.40001
1.40001
1.40001
1.40001
1.40001
1.40001
1.40001
1.40001
1.40001
1.40001
1.40001
1.40001
1.40001
1.40001
1.40001
1.40001
1.40001
1.40001
1.40001
1.40001
1.40001
1.40001
1.40001
1.40001
1.40001
1.40001
1.40001
1.40001
1.40001
1.40001
1.40001
1.40001
1.40001
1.40001
1.40001
1.40001
1.40001
1.40001
1.40001
1.40001
1.40001
1.40001
1.40001
1.40001
3.36513
5.34503
5.45953
5.47025
5.48392
5.49274
5.50044
5.50695
5.51281
5.51851
5.52496
5.53251
5.54171
5.55202
5.56139
5.57032
5.57998
5.59277
5.60946
5.62602
5.64199
5.65837
5.67068
5.6774
5.68002
5.68294
5.6884
5.69795
5.70898
5.71857
5.72694
5.73404
5.73838
5.74089
5.74383
5.74992
5.75996
5.77209
5.78793
5.80437
5.81818
5.82779
5.83113
5.8281
5.82235
5.8199
5.82488
5.83523
5.84634
5.85608
5.86402
5.86938
5.8739
5.87845
5.88094
5.88198
5.88204
5.88217
5.88291
5.88449
5.88812
5.89416
5.90157
5.90846
5.9129
5.91441
5.91432
5.91416
5.91543
5.91928
5.92577
5.93383
5.94132
5.94563
5.946
5.94225
5.93593
5.93012
5.92619
5.92349
5.91973
5.91161
5.89502
5.86574
5.82129
5.76721
5.71836
5.68859
5.68101
1.40001
1.40001
1.40001
1.40001
1.40001
1.40001
1.40001
1.40001
1.40001
1.40001
1.40001
1.40001
1.40001
1.40001
1.40001
1.40001
1.40001
1.40001
1.40001
1.40001
1.40001
1.40001
1.40001
1.40001
1.40001
1.40001
1.40001
1.40001
1.40001
1.40001
1.40001
1.40001
1.40001
1.40001
1.40001
1.40001
1.40001
1.40001
1.40001
1.40001
1.40001
1.40001
1.40001
1.40001
1.40001
1.40001
1.40001
1.40001
1.40001
1.40001
1.40001
1.40001
1.40001
1.40001
1.40001
1.40001
1.40001
1.40001
1.40001
1.40001
1.40001
1.40001
1.40001
1.40001
1.40001
1.40001
1.40001
1.40001
1.40001
1.40001
1.40001
1.40001
1.40001
1.40001
1.40001
1.40001
1.40001
1.40001
1.40001
1.40001
1.40001
1.40001
1.40001
1.40001
1.40001
1.40001
1.40001
1.40001
1.40001
1.40001
1.40001
1.40001
1.40001
1.40001
1.40001
1.40001
1.40001
1.40001
1.40001
1.40001
1.40001
1.40001
1.40001
3.30261
5.33138
5.45773
5.46812
5.48238
5.49149
5.49903
5.50508
5.51056
5.51639
5.52358
5.53222
5.54242
5.55313
5.56233
5.57091
5.58041
5.59312
5.60979
5.6267
5.64325
5.65994
5.67221
5.6785
5.68025
5.68194
5.68621
5.69489
5.70544
5.71528
5.72436
5.73271
5.73832
5.74176
5.74512
5.75091
5.7602
5.77182
5.78742
5.80359
5.81725
5.82689
5.83014
5.82691
5.82113
5.81879
5.824
5.83422
5.84485
5.85401
5.86099
5.86598
5.87158
5.87783
5.88193
5.88368
5.88286
5.88128
5.8802
5.8808
5.88491
5.89263
5.90202
5.91018
5.91435
5.91452
5.91246
5.91042
5.91068
5.91484
5.92314
5.93356
5.94265
5.94722
5.9465
5.94101
5.93324
5.92674
5.92305
5.92111
5.91832
5.9111
5.89513
5.86588
5.82086
5.76579
5.71588
5.68557
5.67698
1.40001
1.40001
1.40001
1.40001
1.40001
1.40001
1.40001
1.40001
1.40001
1.40001
1.40001
1.40001
1.40001
1.40001
1.40001
1.40001
1.40001
1.40001
1.40001
1.40001
1.40001
1.40001
1.40001
1.40001
1.40001
1.40001
1.40001
1.40001
1.40001
1.40001
1.40001
1.40001
1.40001
1.40001
1.40001
1.40001
1.40001
1.40001
1.40001
1.40001
1.40001
1.40001
1.40001
1.40001
1.40001
1.40001
1.40001
1.40001
1.40001
1.40001
1.40001
1.40001
1.40001
1.40001
1.40001
1.40001
1.40001
1.40001
1.40001
1.40001
1.40001
1.40001
1.40001
1.40001
1.40001
1.40001
1.40001
1.40001
1.40001
1.40001
1.40001
1.40001
1.40001
1.40001
1.40001
1.40001
1.40001
1.40001
1.40001
1.40001
1.40001
1.40001
1.40001
1.40001
1.40001
1.40001
1.40001
1.40001
1.40001
1.40001
1.40001
1.40001
1.40001
1.40001
1.40001
1.40001
1.40001
1.40001
1.40001
1.40001
1.40001
1.40001
1.40001
3.22858
5.319
5.45566
5.4664
5.48089
5.49039
5.49774
5.50325
5.50828
5.51415
5.52203
5.53183
5.54305
5.55431
5.56366
5.57196
5.58143
5.59349
5.60935
5.62645
5.64348
5.66046
5.67278
5.67887
5.68014
5.68079
5.68397
5.69167
5.70148
5.71129
5.72092
5.73048
5.73765
5.74236
5.74658
5.75231
5.7608
5.77166
5.78667
5.80231
5.8158
5.82586
5.82934
5.82607
5.82026
5.81775
5.82281
5.83273
5.84284
5.85153
5.85799
5.86264
5.86893
5.87637
5.88162
5.88383
5.88233
5.87967
5.87763
5.87802
5.88273
5.89166
5.90225
5.91097
5.91491
5.91424
5.91078
5.90747
5.90698
5.91119
5.92069
5.93283
5.94305
5.94791
5.94633
5.93938
5.93057
5.92364
5.92009
5.91866
5.91654
5.90991
5.89445
5.86516
5.81946
5.76354
5.71305
5.68275
5.67365
1.40001
1.40001
1.40001
1.40001
1.40001
1.40001
1.40001
1.40001
1.40001
1.40001
1.40001
1.40001
1.40001
1.40001
1.40001
1.40001
1.40001
1.40001
1.40001
1.40001
1.40001
1.40001
1.40001
1.40001
1.40001
1.40001
1.40001
1.40001
1.40001
1.40001
1.40001
1.40001
1.40001
1.40001
1.40001
1.40001
1.40001
1.40001
1.40001
1.40001
1.40001
1.40001
1.40001
1.40001
1.40001
1.40001
1.40001
1.40001
1.40001
1.40001
1.40001
1.40001
1.40001
1.40001
1.40001
1.40001
1.40001
1.40001
1.40001
1.40001
1.40001
1.40001
1.40001
1.40001
1.40001
1.40001
1.40001
1.40001
1.40001
1.40001
1.40001
1.40001
1.40001
1.40001
1.40001
1.40001
1.40001
1.40001
1.40001
1.40001
1.40001
1.40001
1.40001
1.40001
1.40001
1.40001
1.40001
1.40001
1.40001
1.40001
1.40001
1.40001
1.40001
1.40001
1.40001
1.40001
1.40001
1.40001
1.40001
1.40001
1.40001
1.40001
1.40001
3.14506
5.30622
5.45374
5.46479
5.47921
5.48902
5.49625
5.50155
5.50635
5.51225
5.5206
5.53119
5.54317
5.55508
5.56491
5.57342
5.58297
5.59418
5.60876
5.62532
5.64239
5.65929
5.67169
5.67792
5.67914
5.67928
5.68179
5.68867
5.69765
5.70726
5.7172
5.72772
5.73623
5.74234
5.74757
5.75348
5.76124
5.77124
5.78532
5.80044
5.81405
5.82466
5.82863
5.82558
5.81976
5.81681
5.82114
5.83044
5.84009
5.84873
5.85552
5.86022
5.86657
5.87425
5.87979
5.88196
5.88023
5.87751
5.87568
5.87644
5.88161
5.89097
5.90189
5.91074
5.91456
5.91353
5.90952
5.90557
5.9046
5.90871
5.91868
5.93166
5.94237
5.94722
5.94502
5.93716
5.92785
5.92088
5.91755
5.91642
5.91461
5.90824
5.8928
5.86323
5.81697
5.76057
5.70999
5.68011
5.67095
1.40001
1.40001
1.40001
1.40001
1.40001
1.40001
1.40001
1.40001
1.40001
1.40001
1.40001
1.40001
1.40001
1.40001
1.40001
1.40001
1.40001
1.40001
1.40001
1.40001
1.40001
1.40001
1.40001
1.40001
1.40001
1.40001
1.40001
1.40001
1.40001
1.40001
1.40001
1.40001
1.40001
1.40001
1.40001
1.40001
1.40001
1.40001
1.40001
1.40001
1.40001
1.40001
1.40001
1.40001
1.40001
1.40001
1.40001
1.40001
1.40001
1.40001
1.40001
1.40001
1.40001
1.40001
1.40001
1.40001
1.40001
1.40001
1.40001
1.40001
1.40001
1.40001
1.40001
1.40001
1.40001
1.40001
1.40001
1.40001
1.40001
1.40001
1.40001
1.40001
1.40001
1.40001
1.40001
1.40001
1.40001
1.40001
1.40001
1.40001
1.40001
1.40001
1.40001
1.40001
1.40001
1.40001
1.40001
1.40001
1.40001
1.40001
1.40001
1.40001
1.40001
1.40001
1.40001
1.40001
1.40001
1.40001
1.40001
1.40001
1.40001
1.40001
1.40001
3.05454
5.28912
5.45185
5.4626
5.47693
5.4869
5.49435
5.49984
5.50468
5.51085
5.51952
5.5306
5.5431
5.55569
5.56615
5.57551
5.58479
5.59556
5.60896
5.62421
5.64034
5.65651
5.66878
5.67527
5.67687
5.6771
5.67948
5.68586
5.69412
5.70342
5.71348
5.7246
5.73416
5.74151
5.74768
5.75391
5.76123
5.77045
5.78347
5.79811
5.81203
5.82322
5.82784
5.82523
5.81944
5.81588
5.81906
5.8274
5.83671
5.84572
5.85358
5.8589
5.86488
5.87184
5.87671
5.87828
5.87665
5.87501
5.87452
5.87598
5.88128
5.89022
5.90065
5.90934
5.91323
5.91238
5.90859
5.90461
5.90347
5.90738
5.91723
5.9302
5.94072
5.94516
5.94233
5.93405
5.92489
5.91842
5.91552
5.91459
5.91273
5.90612
5.89029
5.86014
5.81341
5.75695
5.70683
5.67776
5.66907
1.40001
1.40001
1.40001
1.40001
1.40001
1.40001
1.40001
1.40001
1.40001
1.40001
1.40001
1.40001
1.40001
1.40001
1.40001
1.40001
1.40001
1.40001
1.40001
1.40001
1.40001
1.40001
1.40001
1.40001
1.40001
1.40001
1.40001
1.40001
1.40001
1.40001
1.40001
1.40001
1.40001
1.40001
1.40001
1.40001
1.40001
1.40001
1.40001
1.40001
1.40001
1.40001
1.40001
1.40001
1.40001
1.40001
1.40001
1.40001
1.40001
1.40001
1.40001
1.40001
1.40001
1.40001
1.40001
1.40001
1.40001
1.40001
1.40001
1.40001
1.40001
1.40001
1.40001
1.40001
1.40001
1.40001
1.40001
1.40001
1.40001
1.40001
1.40001
1.40001
1.40001
1.40001
1.40001
1.40001
1.40001
1.40001
1.40001
1.40001
1.40001
1.40001
1.40001
1.40001
1.40001
1.40001
1.40001
1.40001
1.40001
1.40001
1.40001
1.40001
1.40001
1.40001
1.40001
1.40001
1.40001
1.40001
1.40001
1.40001
1.40001
1.40001
1.40001
2.95943
5.26279
5.44884
5.45912
5.47381
5.4842
5.49232
5.4984
5.50383
5.51026
5.51907
5.53033
5.54318
5.55625
5.56754
5.57765
5.58697
5.59765
5.61019
5.62377
5.63846
5.65341
5.66513
5.67163
5.67363
5.67424
5.67693
5.68318
5.69101
5.69998
5.70998
5.72134
5.73166
5.73994
5.7469
5.75349
5.76058
5.76925
5.78124
5.79536
5.80959
5.82133
5.82665
5.82469
5.81909
5.81489
5.81663
5.8238
5.83301
5.84284
5.85221
5.85848
5.86386
5.86952
5.87259
5.87298
5.87207
5.87225
5.87376
5.87634
5.88139
5.88919
5.89851
5.9068
5.91098
5.91078
5.90774
5.90421
5.9032
5.90698
5.91639
5.92865
5.93832
5.9419
5.93839
5.93005
5.92161
5.91616
5.91397
5.91326
5.91104
5.90369
5.88701
5.85606
5.80892
5.75276
5.70353
5.67554
5.66775
1.40001
1.40001
1.40001
1.40001
1.40001
1.40001
1.40001
1.40001
1.40001
1.40001
1.40001
1.40001
1.40001
1.40001
1.40001
1.40001
1.40001
1.40001
1.40001
1.40001
1.40001
1.40001
1.40001
1.40001
1.40001
1.40001
1.40001
1.40001
1.40001
1.40001
1.40001
1.40001
1.40001
1.40001
1.40001
1.40001
1.40001
1.40001
1.40001
1.40001
1.40001
1.40001
1.40001
1.40001
1.40001
1.40001
1.40001
1.40001
1.40001
1.40001
1.40001
1.40001
1.40001
1.40001
1.40001
1.40001
1.40001
1.40001
1.40001
1.40001
1.40001
1.40001
1.40001
1.40001
1.40001
1.40001
1.40001
1.40001
1.40001
1.40001
1.40001
1.40001
1.40001
1.40001
1.40001
1.40001
1.40001
1.40001
1.40001
1.40001
1.40001
1.40001
1.40001
1.40001
1.40001
1.40001
1.40001
1.40001
1.40001
1.40001
1.40001
1.40001
1.40001
1.40001
1.40001
1.40001
1.40001
1.40001
1.40001
1.40001
1.40001
1.40001
1.40001
2.85836
5.23095
5.44378
5.45434
5.47002
5.4813
5.49039
5.49766
5.50388
5.51061
5.51942
5.53063
5.54363
5.5568
5.56899
5.57905
5.58907
5.59994
5.61187
5.62369
5.63717
5.6508
5.66176
5.66792
5.67001
5.67094
5.67408
5.68044
5.68808
5.69676
5.7066
5.71794
5.7287
5.73768
5.74534
5.75238
5.75948
5.7679
5.77906
5.79254
5.80683
5.81891
5.82481
5.82355
5.81833
5.81366
5.81399
5.82002
5.82943
5.84032
5.85121
5.85849
5.86313
5.86697
5.86805
5.86738
5.86721
5.86949
5.87335
5.87707
5.88156
5.88781
5.89578
5.90342
5.908
5.90864
5.90657
5.90394
5.9034
5.90723
5.91613
5.9272
5.9354
5.93771
5.93347
5.92537
5.91806
5.91402
5.91274
5.91229
5.90952
5.90102
5.8831
5.85126
5.80386
5.74825
5.70012
5.67319
5.66652
1.40001
1.40001
1.40001
1.40001
1.40001
1.40001
1.40001
1.40001
1.40001
1.40001
1.40001
1.40001
1.40001
1.40001
1.40001
1.40001
1.40001
1.40001
1.40001
1.40001
1.40001
1.40001
1.40001
1.40001
1.40001
1.40001
1.40001
1.40001
1.40001
1.40001
1.40001
1.40001
1.40001
1.40001
1.40001
1.40001
1.40001
1.40001
1.40001
1.40001
1.40001
1.40001
1.40001
1.40001
1.40001
1.40001
1.40001
1.40001
1.40001
1.40001
1.40001
1.40001
1.40001
1.40001
1.40001
1.40001
1.40001
1.40001
1.40001
1.40001
1.40001
1.40001
1.40001
1.40001
1.40001
1.40001
1.40001
1.40001
1.40001
1.40001
1.40001
1.40001
1.40001
1.40001
1.40001
1.40001
1.40001
1.40001
1.40001
1.40001
1.40001
1.40001
1.40001
1.40001
1.40001
1.40001
1.40001
1.40001
1.40001
1.40001
1.40001
1.40001
1.40001
1.40001
1.40001
1.40001
1.40001
1.40001
1.40001
1.40001
1.40001
1.40001
1.40001
2.74671
5.19996
5.43625
5.44695
5.46412
5.47773
5.48902
5.49782
5.50492
5.5119
5.5205
5.53154
5.54443
5.55802
5.56964
5.58009
5.59
5.60124
5.61246
5.62339
5.63628
5.64896
5.65909
5.66468
5.66658
5.6677
5.67113
5.6776
5.68524
5.69376
5.70352
5.71469
5.7256
5.73504
5.74322
5.75074
5.75812
5.76655
5.77712
5.78981
5.80373
5.81577
5.82208
5.82152
5.81685
5.81197
5.81135
5.8167
5.82649
5.83835
5.85034
5.85845
5.86237
5.86428
5.86376
5.86247
5.86312
5.86699
5.87267
5.87734
5.88128
5.88606
5.89271
5.89947
5.90419
5.90563
5.90468
5.90324
5.90365
5.90799
5.91646
5.92599
5.93226
5.93293
5.92789
5.92027
5.91438
5.91191
5.91165
5.91142
5.90795
5.89806
5.87872
5.84602
5.7986
5.74372
5.69667
5.67062
5.66514
1.40001
1.40001
1.40001
1.40001
1.40001
1.40001
1.40001
1.40001
1.40001
1.40001
1.40001
1.40001
1.40001
1.40001
1.40001
1.40001
1.40001
1.40001
1.40001
1.40001
1.40001
1.40001
1.40001
1.40001
1.40001
1.40001
1.40001
1.40001
1.40001
1.40001
1.40001
1.40001
1.40001
1.40001
1.40001
1.40001
1.40001
1.40001
1.40001
1.40001
1.40001
1.40001
1.40001
1.40001
1.40001
1.40001
1.40001
1.40001
1.40001
1.40001
1.40001
1.40001
1.40001
1.40001
1.40001
1.40001
1.40001
1.40001
1.40001
1.40001
1.40001
1.40001
1.40001
1.40001
1.40001
1.40001
1.40001
1.40001
1.40001
1.40001
1.40001
1.40001
1.40001
1.40001
1.40001
1.40001
1.40001
1.40001
1.40001
1.40001
1.40001
1.40001
1.40001
1.40001
1.40001
1.40001
1.40001
1.40001
1.40001
1.40001
1.40001
1.40001
1.40001
1.40001
1.40001
1.40001
1.40001
1.40001
1.40001
1.40001
1.40001
1.40001
1.40001
2.62607
5.16848
5.43039
5.44115
5.45832
5.47411
5.48783
5.49868
5.50689
5.51399
5.52218
5.53267
5.54564
5.55942
5.57046
5.5805
5.58984
5.60112
5.61116
5.62202
5.63504
5.64734
5.6568
5.66191
5.6636
5.6648
5.66827
5.6747
5.6824
5.69088
5.70062
5.71153
5.72243
5.73222
5.74085
5.74889
5.75676
5.76531
5.77557
5.78749
5.80058
5.81206
5.81845
5.81852
5.81445
5.80981
5.8091
5.81439
5.82453
5.83691
5.84938
5.85779
5.861
5.86149
5.86015
5.8588
5.8602
5.86504
5.87158
5.87672
5.88022
5.88397
5.88954
5.89529
5.89972
5.9017
5.90184
5.90173
5.90359
5.90899
5.9171
5.92487
5.92908
5.92786
5.92192
5.91505
5.91077
5.90975
5.91037
5.91032
5.90606
5.89472
5.87402
5.84068
5.79351
5.73947
5.69331
5.6678
5.6632
1.40001
1.40001
1.40001
1.40001
1.40001
1.40001
1.40001
1.40001
1.40001
1.40001
1.40001
1.40001
1.40001
1.40001
1.40001
1.40001
1.40001
1.40001
1.40001
1.40001
1.40001
1.40001
1.40001
1.40001
1.40001
1.40001
1.40001
1.40001
1.40001
1.40001
1.40001
1.40001
1.40001
1.40001
1.40001
1.40001
1.40001
1.40001
1.40001
1.40001
1.40001
1.40001
1.40001
1.40001
1.40001
1.40001
1.40001
1.40001
1.40001
1.40001
1.40001
1.40001
1.40001
1.40001
1.40001
1.40001
1.40001
1.40001
1.40001
1.40001
1.40001
1.40001
1.40001
1.40001
1.40001
1.40001
1.40001
1.40001
1.40001
1.40001
1.40001
1.40001
1.40001
1.40001
1.40001
1.40001
1.40001
1.40001
1.40001
1.40001
1.40001
1.40001
1.40001
1.40001
1.40001
1.40001
1.40001
1.40001
1.40001
1.40001
1.40001
1.40001
1.40001
1.40001
1.40001
1.40001
1.40001
1.40001
1.40001
1.40001
1.40001
1.40001
1.40001
2.5004
5.12839
5.42445
5.43653
5.45394
5.47074
5.48655
5.49936
5.50899
5.51644
5.52422
5.53399
5.54711
5.56035
5.57146
5.58028
5.58896
5.5988
5.60814
5.61894
5.63244
5.64483
5.65422
5.65931
5.66101
5.66224
5.66567
5.67201
5.67981
5.68832
5.69809
5.70874
5.71959
5.72961
5.73851
5.74706
5.75557
5.76437
5.77445
5.78561
5.79746
5.80785
5.81389
5.81449
5.81116
5.8074
5.80759
5.81338
5.82356
5.83578
5.84802
5.85615
5.85897
5.85874
5.8573
5.8565
5.85857
5.86366
5.87011
5.875
5.87809
5.88133
5.88618
5.89101
5.89477
5.89687
5.89785
5.89932
5.90312
5.90979
5.91766
5.92369
5.92577
5.92274
5.91614
5.91011
5.90736
5.90757
5.9088
5.90871
5.90363
5.89096
5.86918
5.83553
5.78884
5.73562
5.69007
5.66474
5.66058
1.40001
1.40001
1.40001
1.40001
1.40001
1.40001
1.40001
1.40001
1.40001
1.40001
1.40001
1.40001
1.40001
1.40001
1.40001
1.40001
1.40001
1.40001
1.40001
1.40001
1.40001
1.40001
1.40001
1.40001
1.40001
1.40001
1.40001
1.40001
1.40001
1.40001
1.40001
1.40001
1.40001
1.40001
1.40001
1.40001
1.40001
1.40001
1.40001
1.40001
1.40001
1.40001
1.40001
1.40001
1.40001
1.40001
1.40001
1.40001
1.40001
1.40001
1.40001
1.40001
1.40001
1.40001
1.40001
1.40001
1.40001
1.40001
1.40001
1.40001
1.40001
1.40001
1.40001
1.40001
1.40001
1.40001
1.40001
1.40001
1.40001
1.40001
1.40001
1.40001
1.40001
1.40001
1.40001
1.40001
1.40001
1.40001
1.40001
1.40001
1.40001
1.40001
1.40001
1.40001
1.40001
1.40001
1.40001
1.40001
1.40001
1.40001
1.40001
1.40001
1.40001
1.40001
1.40001
1.40001
1.40001
1.40001
1.40001
1.40001
1.40001
1.40001
1.40001
2.37289
5.07521
5.41853
5.43233
5.45048
5.46812
5.48539
5.49985
5.51074
5.51863
5.52585
5.53548
5.54808
5.56094
5.57203
5.58001
5.58791
5.59506
5.60391
5.61445
5.6281
5.64092
5.65086
5.65652
5.65853
5.65983
5.66318
5.66949
5.67755
5.68625
5.6962
5.70665
5.71737
5.72743
5.73638
5.74526
5.75441
5.76364
5.77352
5.78388
5.79426
5.80322
5.80857
5.80957
5.80729
5.80493
5.8067
5.81333
5.82312
5.83461
5.84604
5.85352
5.85619
5.85608
5.85515
5.85521
5.85781
5.8626
5.86817
5.87219
5.87494
5.87809
5.88253
5.88664
5.88963
5.8915
5.89308
5.89614
5.90202
5.9101
5.91783
5.92226
5.92229
5.91767
5.91073
5.90565
5.90411
5.9052
5.9068
5.90638
5.90046
5.88679
5.86443
5.83088
5.78476
5.73212
5.68681
5.66124
5.65695
1.40001
1.40001
1.40001
1.40001
1.40001
1.40001
1.40001
1.40001
1.40001
1.40001
1.40001
1.40001
1.40001
1.40001
1.40001
1.40001
1.40001
1.40001
1.40001
1.40001
1.40001
1.40001
1.40001
1.40001
1.40001
1.40001
1.40001
1.40001
1.40001
1.40001
1.40001
1.40001
1.40001
1.40001
1.40001
1.40001
1.40001
1.40001
1.40001
1.40001
1.40001
1.40001
1.40001
1.40001
1.40001
1.40001
1.40001
1.40001
1.40001
1.40001
1.40001
1.40001
1.40001
1.40001
1.40001
1.40001
1.40001
1.40001
1.40001
1.40001
1.40001
1.40001
1.40001
1.40001
1.40001
1.40001
1.40001
1.40001
1.40001
1.40001
1.40001
1.40001
1.40001
1.40001
1.40001
1.40001
1.40001
1.40001
1.40001
1.40001
1.40001
1.40001
1.40001
1.40001
1.40001
1.40001
1.40001
1.40001
1.40001
1.40001
1.40001
1.40001
1.40001
1.40001
1.40001
1.40001
1.40001
1.40001
1.40001
1.40001
1.40001
1.40001
1.40001
2.24591
5.00982
5.41403
5.4313
5.45009
5.46753
5.48578
5.50109
5.51216
5.51958
5.52662
5.5364
5.54778
5.56063
5.57137
5.57944
5.58592
5.59185
5.59973
5.60976
5.62312
5.63611
5.64673
5.65323
5.65571
5.6572
5.6606
5.66716
5.67577
5.68493
5.6953
5.70571
5.71611
5.72589
5.73459
5.74338
5.753
5.76287
5.7726
5.78213
5.79094
5.79826
5.80268
5.80398
5.80301
5.8025
5.80618
5.81358
5.82265
5.83303
5.84325
5.84992
5.85275
5.85361
5.85339
5.8543
5.85729
5.86152
5.86589
5.86875
5.87112
5.87434
5.87855
5.8821
5.88438
5.88587
5.8879
5.89247
5.90033
5.90972
5.91724
5.92052
5.91881
5.91272
5.90575
5.90159
5.90096
5.90257
5.90423
5.90325
5.89647
5.88228
5.86002
5.827
5.7814
5.72891
5.68329
5.65707
5.65203
1.40001
1.40001
1.40001
1.40001
1.40001
1.40001
1.40001
1.40001
1.40001
1.40001
1.40001
1.40001
1.40001
1.40001
1.40001
1.40001
1.40001
1.40001
1.40001
1.40001
1.40001
1.40001
1.40001
1.40001
1.40001
1.40001
1.40001
1.40001
1.40001
1.40001
1.40001
1.40001
1.40001
1.40001
1.40001
1.40001
1.40001
1.40001
1.40001
1.40001
1.40001
1.40001
1.40001
1.40001
1.40001
1.40001
1.40001
1.40001
1.40001
1.40001
1.40001
1.40001
1.40001
1.40001
1.40001
1.40001
1.40001
1.40001
1.40001
1.40001
1.40001
1.40001
1.40001
1.40001
1.40001
1.40001
1.40001
1.40001
1.40001
1.40001
1.40001
1.40001
1.40001
1.40001
1.40001
1.40001
1.40001
1.40001
1.40001
1.40001
1.40001
1.40001
1.40001
1.40001
1.40001
1.40001
1.40001
1.40001
1.40001
1.40001
1.40001
1.40001
1.40001
1.40001
1.40001
1.40001
1.40001
1.40001
1.40001
1.40001
1.40001
1.40001
1.40001
2.11693
4.93365
5.4123
5.4333
5.45329
5.4709
5.48816
5.502
5.51197
5.51914
5.52686
5.5352
5.5464
5.5583
5.56897
5.57766
5.58279
5.58877
5.59586
5.60527
5.61822
5.63122
5.64235
5.64945
5.65228
5.65402
5.65767
5.66482
5.67422
5.68412
5.69513
5.70571
5.71573
5.72498
5.73309
5.74151
5.7513
5.76175
5.77156
5.78022
5.78741
5.79315
5.79652
5.79808
5.79844
5.80006
5.80573
5.81363
5.82169
5.83086
5.83976
5.84583
5.84904
5.85099
5.85159
5.85322
5.85633
5.85998
5.86329
5.86514
5.86718
5.87043
5.87438
5.87741
5.8791
5.88022
5.88265
5.88855
5.89812
5.90856
5.91589
5.91827
5.91527
5.90818
5.90123
5.89778
5.89772
5.89947
5.90092
5.89929
5.89188
5.87774
5.85623
5.82402
5.77875
5.72589
5.67938
5.65233
5.64622
1.40001
1.40001
1.40001
1.40001
1.40001
1.40001
1.40001
1.40001
1.40001
1.40001
1.40001
1.40001
1.40001
1.40001
1.40001
1.40001
1.40001
1.40001
1.40001
1.40001
1.40001
1.40001
1.40001
1.40001
1.40001
1.40001
1.40001
1.40001
1.40001
1.40001
1.40001
1.40001
1.40001
1.40001
1.40001
1.40001
1.40001