/*--------------------------------*- C++ -*----------------------------------*\
  =========                 |
  \\      /  F ield         | OpenFOAM: The Open Source CFD Toolbox
   \\    /   O peration     | Website:  https://openfoam.org
    \\  /    A nd           | Version:  7
     \\/     M anipulation  |
\*---------------------------------------------------------------------------*/
FoamFile
{
    version     2.0;
    format      ascii;
    class       volScalarField;
    location    "1.5";
    object      T;
}
// * * * * * * * * * * * * * * * * * * * * * * * * * * * * * * * * * * * * * //

dimensions      [0 0 0 1 0 0 0];

internalField   nonuniform List<scalar> 
258048
(
1
1
1
1
1
1
1
1
1
1
1
1
1
1
1
1
1
1
1
1
1
1
1
1
1
1
1
1
1
1
1
1
1
1
1
1
1
1
1
1
1
1
1
1
1
1
1
1
1
1
1
1
1
1
1
1
1
1
1
1
1
1
1
1
1
1
1
1
1
1
1
1
1
1
1
1
1
1
1
1
1
1
1
1
1
1
1
1
1
1
1
1
1
1
1
1
1
1
1
1
1
1
1
2.14131
2.7081
2.70737
2.70831
2.71161
2.71635
2.722
2.72812
2.73443
2.74053
2.74598
2.75046
2.75365
2.75516
2.75502
2.75405
2.75199
2.74881
2.74509
2.74268
2.74275
2.74431
2.74795
2.75352
2.76003
2.76591
2.76994
2.77136
2.77113
2.77069
2.7711
2.77331
2.77772
2.78334
2.78866
2.79158
2.79182
2.79059
2.78802
2.7855
2.78453
2.78521
2.78812
2.79341
2.79945
2.80506
2.80868
2.81039
2.81005
2.80867
2.80678
2.80546
2.80522
2.80595
2.80797
2.81117
2.81489
2.81857
2.82098
2.82208
2.8223
2.82195
2.8214
2.82172
2.82343
2.82688
2.83105
2.83487
2.83739
2.83866
2.83946
2.84076
2.84306
2.84616
2.84956
2.85267
2.85518
2.85721
2.85904
2.8611
2.86387
2.8682
2.87592
2.89011
2.9131
2.94274
2.97114
2.98945
2.99654
1
1
1
1
1
1
1
1
1
1
1
1
1
1
1
1
1
1
1
1
1
1
1
1
1
1
1
1
1
1
1
1
1
1
1
1
1
1
1
1
1
1
1
1
1
1
1
1
1
1
1
1
1
1
1
1
1
1
1
1
1
1
1
1
1
1
1
1
1
1
1
1
1
1
1
1
1
1
1
1
1
1
1
1
1
1
1
1
1
1
1
1
1
1
1
1
1
1
1
1
1
1
1
2.13917
2.70696
2.7078
2.70883
2.71183
2.7163
2.72181
2.72793
2.73428
2.74044
2.74596
2.75049
2.75369
2.75517
2.755
2.75396
2.75184
2.7486
2.74488
2.74244
2.74249
2.74401
2.74765
2.7533
2.75994
2.76598
2.7701
2.7716
2.77138
2.7709
2.77123
2.77331
2.77759
2.78318
2.78843
2.79131
2.79153
2.79032
2.78782
2.78541
2.78451
2.7852
2.78805
2.79326
2.79929
2.80494
2.80866
2.81052
2.81022
2.80887
2.80696
2.80555
2.80525
2.80597
2.80803
2.81131
2.81507
2.81865
2.82089
2.82184
2.82195
2.82166
2.82125
2.82176
2.82363
2.82702
2.83103
2.83468
2.83714
2.83848
2.83936
2.84073
2.84305
2.84615
2.84953
2.85262
2.85511
2.85715
2.85901
2.8611
2.8639
2.86825
2.876
2.89023
2.9132
2.94276
2.97103
2.98915
2.99615
1
1
1
1
1
1
1
1
1
1
1
1
1
1
1
1
1
1
1
1
1
1
1
1
1
1
1
1
1
1
1
1
1
1
1
1
1
1
1
1
1
1
1
1
1
1
1
1
1
1
1
1
1
1
1
1
1
1
1
1
1
1
1
1
1
1
1
1
1
1
1
1
1
1
1
1
1
1
1
1
1
1
1
1
1
1
1
1
1
1
1
1
1
1
1
1
1
1
1
1
1
1
1
2.1344
2.70712
2.70816
2.70902
2.71171
2.71592
2.72129
2.72739
2.73383
2.74015
2.74586
2.75051
2.75373
2.75516
2.75493
2.7538
2.75157
2.74826
2.74452
2.74205
2.74208
2.74356
2.74719
2.75295
2.75976
2.76605
2.77034
2.77194
2.77176
2.77129
2.77154
2.77343
2.77752
2.78299
2.78809
2.79085
2.79102
2.78983
2.78743
2.78518
2.78441
2.78512
2.78791
2.79302
2.79904
2.80472
2.80854
2.81048
2.81027
2.80904
2.80714
2.80565
2.80529
2.80601
2.80812
2.81149
2.81528
2.81868
2.82073
2.82153
2.82152
2.82126
2.8211
2.82186
2.82395
2.82722
2.83094
2.83431
2.83668
2.83812
2.83923
2.84078
2.84317
2.8462
2.84947
2.85245
2.8549
2.85701
2.85898
2.86114
2.86393
2.86824
2.87599
2.89029
2.91335
2.94289
2.97098
2.9888
2.99559
1
1
1
1
1
1
1
1
1
1
1
1
1
1
1
1
1
1
1
1
1
1
1
1
1
1
1
1
1
1
1
1
1
1
1
1
1
1
1
1
1
1
1
1
1
1
1
1
1
1
1
1
1
1
1
1
1
1
1
1
1
1
1
1
1
1
1
1
1
1
1
1
1
1
1
1
1
1
1
1
1
1
1
1
1
1
1
1
1
1
1
1
1
1
1
1
1
1
1
1
1
1
1
2.12617
2.70729
2.7084
2.70905
2.71147
2.71539
2.72061
2.72669
2.73324
2.73976
2.74569
2.75051
2.75375
2.75508
2.75477
2.75353
2.75117
2.74778
2.74403
2.74153
2.74154
2.74301
2.74667
2.75253
2.75952
2.76607
2.7706
2.7724
2.77227
2.7718
2.77196
2.77361
2.77741
2.78267
2.78759
2.7902
2.79032
2.7892
2.78697
2.78493
2.78427
2.785
2.78771
2.79268
2.79869
2.80446
2.80851
2.81046
2.81035
2.80921
2.80728
2.80567
2.80529
2.80606
2.8083
2.81178
2.81557
2.81872
2.82045
2.82101
2.82089
2.82069
2.82092
2.82208
2.82438
2.82747
2.83079
2.83375
2.83597
2.83755
2.83899
2.84086
2.84337
2.84634
2.84948
2.8523
2.85462
2.85677
2.85887
2.86114
2.86397
2.86828
2.87604
2.89041
2.91353
2.94302
2.97085
2.98831
2.99484
1
1
1
1
1
1
1
1
1
1
1
1
1
1
1
1
1
1
1
1
1
1
1
1
1
1
1
1
1
1
1
1
1
1
1
1
1
1
1
1
1
1
1
1
1
1
1
1
1
1
1
1
1
1
1
1
1
1
1
1
1
1
1
1
1
1
1
1
1
1
1
1
1
1
1
1
1
1
1
1
1
1
1
1
1
1
1
1
1
1
1
1
1
1
1
1
1
1
1
1
1
1
1
2.11592
2.70718
2.70855
2.7091
2.71142
2.71509
2.72011
2.72613
2.73276
2.73944
2.74556
2.75051
2.7537
2.75484
2.75441
2.75302
2.75054
2.74713
2.74345
2.74096
2.74097
2.74244
2.74613
2.7521
2.75925
2.76603
2.77078
2.77277
2.77272
2.77232
2.77243
2.77386
2.77735
2.78233
2.78703
2.7895
2.78957
2.78853
2.78651
2.78468
2.78412
2.78484
2.78749
2.79233
2.79831
2.80416
2.80845
2.8104
2.81037
2.80927
2.80726
2.80557
2.80518
2.80606
2.80852
2.81215
2.81589
2.81872
2.82006
2.82031
2.82015
2.82012
2.82076
2.8224
2.82486
2.82772
2.83056
2.83303
2.83504
2.83679
2.83866
2.84097
2.8437
2.84663
2.8496
2.85218
2.85427
2.85642
2.85864
2.86105
2.864
2.86835
2.87616
2.89058
2.91374
2.94314
2.9707
2.98781
2.99403
1
1
1
1
1
1
1
1
1
1
1
1
1
1
1
1
1
1
1
1
1
1
1
1
1
1
1
1
1
1
1
1
1
1
1
1
1
1
1
1
1
1
1
1
1
1
1
1
1
1
1
1
1
1
1
1
1
1
1
1
1
1
1
1
1
1
1
1
1
1
1
1
1
1
1
1
1
1
1
1
1
1
1
1
1
1
1
1
1
1
1
1
1
1
1
1
1
1
1
1
1
1
1
2.1035
2.70624
2.70875
2.70918
2.71151
2.71507
2.72
2.72595
2.73258
2.7393
2.74549
2.75044
2.75348
2.75439
2.75382
2.75229
2.74973
2.74634
2.74278
2.74038
2.74044
2.74196
2.74568
2.75174
2.75907
2.76606
2.77097
2.77306
2.77304
2.77273
2.77284
2.77414
2.77737
2.78205
2.78654
2.78883
2.78886
2.78788
2.78605
2.78443
2.78395
2.78468
2.78725
2.792
2.79796
2.80386
2.8084
2.81038
2.81033
2.80913
2.80698
2.80528
2.8049
2.80595
2.80877
2.81262
2.81623
2.81864
2.81955
2.81951
2.81932
2.81956
2.82071
2.82279
2.82535
2.82795
2.83026
2.83222
2.834
2.83592
2.83826
2.84107
2.8441
2.84706
2.84981
2.85203
2.85389
2.85596
2.85826
2.86084
2.86396
2.86844
2.87633
2.89081
2.91395
2.94323
2.97052
2.98734
2.99327
1
1
1
1
1
1
1
1
1
1
1
1
1
1
1
1
1
1
1
1
1
1
1
1
1
1
1
1
1
1
1
1
1
1
1
1
1
1
1
1
1
1
1
1
1
1
1
1
1
1
1
1
1
1
1
1
1
1
1
1
1
1
1
1
1
1
1
1
1
1
1
1
1
1
1
1
1
1
1
1
1
1
1
1
1
1
1
1
1
1
1
1
1
1
1
1
1
1
1
1
1
1
1
2.08747
2.70429
2.70897
2.70925
2.71167
2.71522
2.72007
2.72594
2.73254
2.73925
2.7454
2.7502
2.75304
2.75374
2.75306
2.75139
2.74873
2.74535
2.7419
2.73963
2.7398
2.74147
2.7453
2.75147
2.759
2.76619
2.77126
2.77343
2.77337
2.77303
2.77314
2.77437
2.7774
2.78185
2.78613
2.78824
2.7882
2.78722
2.78554
2.7841
2.78373
2.78447
2.78702
2.79174
2.7977
2.80363
2.8083
2.81027
2.81015
2.80876
2.80644
2.80473
2.80446
2.80577
2.80894
2.81304
2.8165
2.81843
2.81889
2.81869
2.81855
2.81911
2.82075
2.82317
2.82578
2.8281
2.82993
2.83141
2.83296
2.83503
2.83783
2.84113
2.84449
2.84754
2.85006
2.85187
2.85349
2.85543
2.85777
2.8605
2.86382
2.8685
2.87654
2.89107
2.91417
2.94328
2.97032
2.98695
2.9926
1
1
1
1
1
1
1
1
1
1
1
1
1
1
1
1
1
1
1
1
1
1
1
1
1
1
1
1
1
1
1
1
1
1
1
1
1
1
1
1
1
1
1
1
1
1
1
1
1
1
1
1
1
1
1
1
1
1
1
1
1
1
1
1
1
1
1
1
1
1
1
1
1
1
1
1
1
1
1
1
1
1
1
1
1
1
1
1
1
1
1
1
1
1
1
1
1
1
1
1
1
1
1
2.06637
2.70182
2.709
2.70917
2.7117
2.71537
2.72026
2.72613
2.73265
2.73924
2.74518
2.74973
2.75233
2.75287
2.75212
2.75032
2.74758
2.74419
2.74083
2.73872
2.73901
2.74087
2.74488
2.75128
2.75906
2.76647
2.77171
2.7739
2.77374
2.77331
2.77337
2.7745
2.77739
2.78164
2.78571
2.78769
2.78759
2.78656
2.78495
2.78368
2.78345
2.78423
2.78685
2.79162
2.79761
2.80353
2.80816
2.81001
2.8098
2.80825
2.80573
2.80397
2.80387
2.80546
2.80903
2.81331
2.81661
2.81814
2.81819
2.81789
2.8179
2.81879
2.82083
2.82346
2.82607
2.82818
2.82958
2.83066
2.83203
2.83423
2.83739
2.84113
2.84478
2.84794
2.85023
2.85168
2.8531
2.85491
2.85725
2.86011
2.86362
2.86847
2.87667
2.8913
2.91435
2.9433
2.97013
2.98665
2.9921
1
1
1
1
1
1
1
1
1
1
1
1
1
1
1
1
1
1
1
1
1
1
1
1
1
1
1
1
1
1
1
1
1
1
1
1
1
1
1
1
1
1
1
1
1
1
1
1
1
1
1
1
1
1
1
1
1
1
1
1
1
1
1
1
1
1
1
1
1
1
1
1
1
1
1
1
1
1
1
1
1
1
1
1
1
1
1
1
1
1
1
1
1
1
1
1
1
1
1
1
1
1
1
2.04028
2.69886
2.70852
2.70883
2.71159
2.71554
2.72061
2.72651
2.73288
2.73917
2.74474
2.74894
2.75132
2.75179
2.75103
2.74916
2.74639
2.74291
2.73954
2.73763
2.73804
2.74013
2.74441
2.7511
2.75918
2.76682
2.77222
2.77442
2.77415
2.77358
2.77355
2.77458
2.77733
2.7814
2.78527
2.78713
2.78697
2.78586
2.78426
2.78312
2.78304
2.78395
2.78675
2.79159
2.79761
2.80347
2.80797
2.80969
2.80938
2.80766
2.80501
2.80318
2.80317
2.80498
2.80885
2.81327
2.81642
2.81775
2.8176
2.81722
2.8174
2.81858
2.82085
2.82358
2.82618
2.82814
2.82926
2.83007
2.83129
2.83357
2.83699
2.84103
2.84488
2.84812
2.85024
2.85143
2.85272
2.85445
2.85677
2.85972
2.86338
2.86836
2.87667
2.89138
2.9144
2.94326
2.96999
2.98651
2.99186
1
1
1
1
1
1
1
1
1
1
1
1
1
1
1
1
1
1
1
1
1
1
1
1
1
1
1
1
1
1
1
1
1
1
1
1
1
1
1
1
1
1
1
1
1
1
1
1
1
1
1
1
1
1
1
1
1
1
1
1
1
1
1
1
1
1
1
1
1
1
1
1
1
1
1
1
1
1
1
1
1
1
1
1
1
1
1
1
1
1
1
1
1
1
1
1
1
1
1
1
1
1
1
2.00975
2.69488
2.70771
2.70837
2.71147
2.71571
2.72097
2.72688
2.73304
2.73895
2.74402
2.7478
2.74999
2.75048
2.74975
2.74791
2.74517
2.74155
2.73811
2.73636
2.73686
2.73916
2.74377
2.75085
2.75929
2.7672
2.77277
2.77497
2.77461
2.77388
2.77369
2.7746
2.77718
2.78107
2.78477
2.7865
2.78628
2.78507
2.78346
2.78242
2.78249
2.78363
2.78669
2.79166
2.79768
2.80345
2.80769
2.80925
2.80882
2.80701
2.80437
2.80252
2.80252
2.80435
2.8083
2.8128
2.81594
2.81727
2.81713
2.81681
2.8171
2.81839
2.82073
2.82349
2.8261
2.82801
2.82901
2.82968
2.83081
2.83312
2.83665
2.84083
2.84477
2.84801
2.85002
2.85107
2.8523
2.85403
2.85638
2.8594
2.86314
2.86821
2.8766
2.89131
2.91432
2.94316
2.96989
2.98652
2.99187
1
1
1
1
1
1
1
1
1
1
1
1
1
1
1
1
1
1
1
1
1
1
1
1
1
1
1
1
1
1
1
1
1
1
1
1
1
1
1
1
1
1
1
1
1
1
1
1
1
1
1
1
1
1
1
1
1
1
1
1
1
1
1
1
1
1
1
1
1
1
1
1
1
1
1
1
1
1
1
1
1
1
1
1
1
1
1
1
1
1
1
1
1
1
1
1
1
1
1
1
1
1
1
1.97582
2.68932
2.70743
2.7082
2.71144
2.71585
2.72117
2.72701
2.7329
2.73837
2.74294
2.74638
2.74846
2.74902
2.74832
2.74664
2.74387
2.74021
2.73675
2.73513
2.73565
2.73804
2.74299
2.75049
2.75934
2.76754
2.77325
2.77544
2.77503
2.77416
2.7738
2.77459
2.77694
2.78059
2.78407
2.78569
2.78544
2.78418
2.78258
2.78163
2.78182
2.78326
2.78665
2.79176
2.79779
2.80341
2.80731
2.80867
2.80812
2.80631
2.80381
2.80204
2.802
2.80368
2.80749
2.81195
2.81523
2.81673
2.81678
2.81666
2.81695
2.81818
2.8204
2.82314
2.82579
2.82776
2.8288
2.82947
2.83057
2.83286
2.83637
2.84054
2.84447
2.84763
2.8495
2.85053
2.85182
2.85363
2.85607
2.85917
2.86293
2.86798
2.87639
2.89111
2.91412
2.943
2.96984
2.98661
2.99205
1
1
1
1
1
1
1
1
1
1
1
1
1
1
1
1
1
1
1
1
1
1
1
1
1
1
1
1
1
1
1
1
1
1
1
1
1
1
1
1
1
1
1
1
1
1
1
1
1
1
1
1
1
1
1
1
1
1
1
1
1
1
1
1
1
1
1
1
1
1
1
1
1
1
1
1
1
1
1
1
1
1
1
1
1
1
1
1
1
1
1
1
1
1
1
1
1
1
1
1
1
1
1
1.93984
2.68177
2.70834
2.70865
2.71169
2.71601
2.7212
2.72678
2.73228
2.73726
2.74147
2.74477
2.74687
2.74745
2.7468
2.74523
2.74248
2.7389
2.73563
2.73416
2.73473
2.73722
2.74243
2.75027
2.7594
2.76777
2.77357
2.77576
2.77535
2.77441
2.77393
2.77457
2.77665
2.77995
2.78316
2.78468
2.78443
2.78319
2.78162
2.78079
2.78111
2.78283
2.78655
2.79185
2.79788
2.80332
2.80681
2.80796
2.80733
2.8056
2.80337
2.80177
2.80165
2.80307
2.80648
2.81077
2.81428
2.81616
2.81659
2.81659
2.81688
2.81791
2.81989
2.82255
2.82528
2.8274
2.82861
2.82936
2.83048
2.83273
2.83617
2.84021
2.84402
2.847
2.84873
2.84983
2.85125
2.85324
2.85586
2.85904
2.86274
2.86769
2.87602
2.89072
2.91378
2.94279
2.96982
2.98677
2.99236
1
1
1
1
1
1
1
1
1
1
1
1
1
1
1
1
1
1
1
1
1
1
1
1
1
1
1
1
1
1
1
1
1
1
1
1
1
1
1
1
1
1
1
1
1
1
1
1
1
1
1
1
1
1
1
1
1
1
1
1
1
1
1
1
1
1
1
1
1
1
1
1
1
1
1
1
1
1
1
1
1
1
1
1
1
1
1
1
1
1
1
1
1
1
1
1
1
1
1
1
1
1
1
1.90018
2.67233
2.7109
2.71035
2.71267
2.71631
2.72093
2.72597
2.73097
2.73559
2.7397
2.74308
2.74526
2.74578
2.74519
2.74356
2.74097
2.73769
2.73484
2.73359
2.73432
2.73693
2.7423
2.75032
2.75954
2.7679
2.77367
2.77586
2.77552
2.77457
2.774
2.7745
2.77627
2.77921
2.78212
2.78355
2.78331
2.78214
2.78068
2.77998
2.7804
2.78236
2.78637
2.79187
2.79792
2.80314
2.80622
2.8072
2.80651
2.80493
2.80302
2.80161
2.80134
2.80249
2.80544
2.80951
2.81325
2.81558
2.81642
2.81659
2.81683
2.81759
2.81927
2.82179
2.82459
2.8269
2.82835
2.82926
2.83047
2.83271
2.83602
2.83986
2.84346
2.84619
2.84776
2.84897
2.85058
2.85284
2.8557
2.85897
2.86256
2.86733
2.87549
2.89014
2.9133
2.94254
2.96983
2.987
2.99281
1
1
1
1
1
1
1
1
1
1
1
1
1
1
1
1
1
1
1
1
1
1
1
1
1
1
1
1
1
1
1
1
1
1
1
1
1
1
1
1
1
1
1
1
1
1
1
1
1
1
1
1
1
1
1
1
1
1
1
1
1
1
1
1
1
1
1
1
1
1
1
1
1
1
1
1
1
1
1
1
1
1
1
1
1
1
1
1
1
1
1
1
1
1
1
1
1
1
1
1
1
1
1
1.85272
2.66074
2.71366
2.71264
2.7142
2.71669
2.72027
2.72448
2.72896
2.73345
2.7377
2.74131
2.74357
2.74415
2.74338
2.74178
2.7394
2.73666
2.73428
2.73341
2.73432
2.73707
2.74257
2.75066
2.7598
2.768
2.77364
2.77584
2.77556
2.77464
2.77401
2.77436
2.77581
2.77837
2.78098
2.78231
2.78213
2.78111
2.77982
2.77924
2.7797
2.78182
2.78607
2.79177
2.79783
2.80285
2.80563
2.80648
2.80577
2.80432
2.80268
2.8014
2.80103
2.80191
2.80447
2.8084
2.81233
2.81498
2.81619
2.81651
2.81667
2.81719
2.81858
2.82092
2.82374
2.82623
2.82793
2.82908
2.83048
2.83277
2.83596
2.83953
2.84286
2.84527
2.84664
2.84799
2.84986
2.85242
2.85556
2.85892
2.86235
2.86687
2.87482
2.88941
2.91272
2.94224
2.96986
2.98727
2.99336
1
1
1
1
1
1
1
1
1
1
1
1
1
1
1
1
1
1
1
1
1
1
1
1
1
1
1
1
1
1
1
1
1
1
1
1
1
1
1
1
1
1
1
1
1
1
1
1
1
1
1
1
1
1
1
1
1
1
1
1
1
1
1
1
1
1
1
1
1
1
1
1
1
1
1
1
1
1
1
1
1
1
1
1
1
1
1
1
1
1
1
1
1
1
1
1
1
1
1
1
1
1
1
1.79853
2.64769
2.71529
2.7144
2.7154
2.71696
2.71939
2.72264
2.72661
2.73103
2.7355
2.73933
2.74179
2.74241
2.74158
2.74006
2.73796
2.73579
2.73377
2.73339
2.73448
2.73748
2.74319
2.75127
2.76017
2.76807
2.77354
2.77571
2.77549
2.77461
2.77394
2.77413
2.77525
2.77743
2.77976
2.78101
2.78095
2.78016
2.77911
2.77862
2.77908
2.78126
2.78566
2.7915
2.79755
2.80247
2.80512
2.80588
2.80517
2.80378
2.80224
2.80102
2.80059
2.80129
2.8036
2.80753
2.81163
2.81446
2.81584
2.81624
2.81634
2.81669
2.81785
2.82002
2.82281
2.8254
2.82729
2.82874
2.83043
2.83284
2.83595
2.83922
2.84221
2.84426
2.84547
2.84696
2.8491
2.85199
2.85539
2.85881
2.86205
2.8663
2.87403
2.88859
2.91208
2.94195
2.9699
2.98748
2.99377
1
1
1
1
1
1
1
1
1
1
1
1
1
1
1
1
1
1
1
1
1
1
1
1
1
1
1
1
1
1
1
1
1
1
1
1
1
1
1
1
1
1
1
1
1
1
1
1
1
1
1
1
1
1
1
1
1
1
1
1
1
1
1
1
1
1
1
1
1
1
1
1
1
1
1
1
1
1
1
1
1
1
1
1
1
1
1
1
1
1
1
1
1
1
1
1
1
1
1
1
1
1
1
1.74037
2.63361
2.71548
2.71491
2.71575
2.71678
2.71837
2.7208
2.72431
2.72863
2.73318
2.73713
2.73985
2.74061
2.74004
2.73866
2.73686
2.73489
2.73329
2.73336
2.73471
2.73806
2.74397
2.75197
2.76054
2.76809
2.77335
2.77546
2.77532
2.77451
2.77381
2.77385
2.77464
2.77643
2.77848
2.77971
2.77983
2.77934
2.77856
2.77813
2.77856
2.78071
2.78513
2.79106
2.79711
2.80206
2.80476
2.80545
2.80472
2.80327
2.80166
2.80042
2.79999
2.80061
2.80291
2.80694
2.81116
2.81405
2.81543
2.81575
2.81577
2.81602
2.81706
2.81913
2.82184
2.8244
2.82644
2.8282
2.83026
2.83289
2.83592
2.83894
2.8415
2.84315
2.84433
2.84595
2.84836
2.85156
2.85517
2.85856
2.86161
2.8656
2.87316
2.88775
2.91148
2.9417
2.96993
2.98757
2.99392
1
1
1
1
1
1
1
1
1
1
1
1
1
1
1
1
1
1
1
1
1
1
1
1
1
1
1
1
1
1
1
1
1
1
1
1
1
1
1
1
1
1
1
1
1
1
1
1
1
1
1
1
1
1
1
1
1
1
1
1
1
1
1
1
1
1
1
1
1
1
1
1
1
1
1
1
1
1
1
1
1
1
1
1
1
1
1
1
1
1
1
1
1
1
1
1
1
1
1
1
1
1
1
1.67903
2.61807
2.71466
2.71403
2.7148
2.71573
2.71709
2.71916
2.72231
2.72641
2.73079
2.73483
2.73784
2.73917
2.73902
2.73803
2.73644
2.73434
2.73301
2.73324
2.73489
2.73857
2.74466
2.75255
2.76078
2.768
2.77302
2.7751
2.77505
2.77435
2.77366
2.77354
2.77401
2.77538
2.77712
2.77839
2.77881
2.77863
2.77814
2.77778
2.77814
2.78021
2.78456
2.79049
2.79656
2.80163
2.80451
2.80512
2.80435
2.80274
2.80095
2.79963
2.79923
2.79993
2.8024
2.80658
2.81085
2.81371
2.81494
2.81507
2.81497
2.81517
2.81621
2.81825
2.82083
2.8233
2.82542
2.82751
2.82995
2.83283
2.83583
2.83862
2.84077
2.84203
2.84322
2.84499
2.84766
2.8511
2.85482
2.85812
2.86097
2.86479
2.87228
2.88696
2.91097
2.94152
2.96995
2.98759
2.99391
1
1
1
1
1
1
1
1
1
1
1
1
1
1
1
1
1
1
1
1
1
1
1
1
1
1
1
1
1
1
1
1
1
1
1
1
1
1
1
1
1
1
1
1
1
1
1
1
1
1
1
1
1
1
1
1
1
1
1
1
1
1
1
1
1
1
1
1
1
1
1
1
1
1
1
1
1
1
1
1
1
1
1
1
1
1
1
1
1
1
1
1
1
1
1
1
1
1
1
1
1
1
1
1.61449
2.60014
2.71222
2.71179
2.71282
2.71405
2.71572
2.71774
2.72056
2.72425
2.72849
2.73269
2.73594
2.73809
2.73859
2.73797
2.73643
2.73432
2.73299
2.73326
2.73505
2.73893
2.74512
2.75289
2.76084
2.76772
2.77252
2.7746
2.77468
2.77415
2.77347
2.77318
2.77338
2.77429
2.7757
2.777
2.77779
2.778
2.77782
2.77757
2.77788
2.77981
2.78399
2.78985
2.79594
2.80116
2.80429
2.8048
2.80394
2.80212
2.80009
2.79867
2.79838
2.79931
2.80202
2.8063
2.81057
2.81332
2.81436
2.81427
2.81403
2.81423
2.81532
2.81735
2.81978
2.82212
2.82431
2.8267
2.82952
2.83263
2.83561
2.83821
2.83999
2.84099
2.84217
2.84409
2.84698
2.85058
2.85428
2.85744
2.86016
2.86391
2.87143
2.88628
2.91056
2.94134
2.9699
2.98756
2.9938
1
1
1
1
1
1
1
1
1
1
1
1
1
1
1
1
1
1
1
1
1
1
1
1
1
1
1
1
1
1
1
1
1
1
1
1
1
1
1
1
1
1
1
1
1
1
1
1
1
1
1
1
1
1
1
1
1
1
1
1
1
1
1
1
1
1
1
1
1
1
1
1
1
1
1
1
1
1
1
1
1
1
1
1
1
1
1
1
1
1
1
1
1
1
1
1
1
1
1
1
1
1
1
1.54385
2.5773
2.70844
2.70904
2.71089
2.71255
2.71421
2.71601
2.7186
2.7222
2.72662
2.73079
2.73453
2.73722
2.73836
2.73799
2.73645
2.73443
2.73304
2.73333
2.73521
2.73919
2.7454
2.75304
2.76071
2.76722
2.77176
2.77387
2.77413
2.77376
2.77315
2.77271
2.77267
2.77314
2.7742
2.77552
2.7767
2.77744
2.7776
2.77752
2.7778
2.77954
2.78346
2.78917
2.79529
2.80067
2.80393
2.80435
2.80337
2.80134
2.79908
2.79765
2.79749
2.79868
2.80166
2.806
2.8102
2.81281
2.81366
2.81342
2.81308
2.81329
2.8144
2.81639
2.81871
2.82093
2.82319
2.82583
2.82897
2.83228
2.83526
2.83769
2.83919
2.84002
2.84119
2.84323
2.84626
2.84993
2.85352
2.85654
2.85921
2.863
2.87067
2.88574
2.91023
2.94115
2.96975
2.98741
2.99349
1
1
1
1
1
1
1
1
1
1
1
1
1
1
1
1
1
1
1
1
1
1
1
1
1
1
1
1
1
1
1
1
1
1
1
1
1
1
1
1
1
1
1
1
1
1
1
1
1
1
1
1
1
1
1
1
1
1
1
1
1
1
1
1
1
1
1
1
1
1
1
1
1
1
1
1
1
1
1
1
1
1
1
1
1
1
1
1
1
1
1
1
1
1
1
1
1
1
1
1
1
1
1
1.46438
2.54807
2.70555
2.70607
2.70839
2.71025
2.71204
2.71409
2.71693
2.72083
2.72534
2.7298
2.73377
2.73678
2.73827
2.73794
2.73645
2.7345
2.73313
2.73344
2.73537
2.73944
2.74564
2.75309
2.76039
2.76646
2.7707
2.77281
2.77324
2.77305
2.77256
2.77202
2.77179
2.77194
2.77266
2.77396
2.77553
2.77682
2.77743
2.77758
2.77788
2.7794
2.78297
2.78844
2.79455
2.80002
2.80328
2.80364
2.80256
2.80037
2.798
2.79661
2.7966
2.798
2.80119
2.80554
2.8096
2.81208
2.81284
2.81255
2.8122
2.81241
2.8135
2.81543
2.81763
2.81976
2.82207
2.82493
2.82832
2.83176
2.83475
2.83707
2.83838
2.83911
2.84026
2.84237
2.84546
2.8491
2.85257
2.85548
2.85818
2.86213
2.87003
2.88532
2.90994
2.94089
2.96946
2.98708
2.99296
1
1
1
1
1
1
1
1
1
1
1
1
1
1
1
1
1
1
1
1
1
1
1
1
1
1
1
1
1
1
1
1
1
1
1
1
1
1
1
1
1
1
1
1
1
1
1
1
1
1
1
1
1
1
1
1
1
1
1
1
1
1
1
1
1
1
1
1
1
1
1
1
1
1
1
1
1
1
1
1
1
1
1
1
1
1
1
1
1
1
1
1
1
1
1
1
1
1
1
1
1
1
1
1.38004
2.51436
2.70286
2.70279
2.70517
2.7072
2.70955
2.71234
2.71593
2.72036
2.72506
2.72961
2.73372
2.73681
2.73825
2.73781
2.73627
2.73435
2.73311
2.73351
2.73555
2.73974
2.74594
2.75316
2.76
2.76555
2.76937
2.77136
2.77188
2.77186
2.77155
2.771
2.77069
2.77065
2.77111
2.77238
2.77429
2.77614
2.77725
2.77773
2.77808
2.77943
2.78264
2.7878
2.79373
2.79912
2.80232
2.80261
2.80146
2.79922
2.79691
2.79564
2.79575
2.79733
2.80059
2.80483
2.80869
2.81111
2.81191
2.81168
2.81142
2.81165
2.8127
2.81453
2.8166
2.81861
2.82094
2.82396
2.82751
2.83106
2.83408
2.83637
2.8376
2.83825
2.83937
2.84147
2.84452
2.84806
2.85143
2.85431
2.85715
2.86134
2.86949
2.88494
2.90961
2.94054
2.96903
2.9866
2.99232
1
1
1
1
1
1
1
1
1
1
1
1
1
1
1
1
1
1
1
1
1
1
1
1
1
1
1
1
1
1
1
1
1
1
1
1
1
1
1
1
1
1
1
1
1
1
1
1
1
1
1
1
1
1
1
1
1
1
1
1
1
1
1
1
1
1
1
1
1
1
1
1
1
1
1
1
1
1
1
1
1
1
1
1
1
1
1
1
1
1
1
1
1
1
1
1
1
1
1
1
1
1
1
1.29317
2.47435
2.70009
2.69958
2.7019
2.70431
2.70746
2.7113
2.71574
2.72053
2.72539
2.73014
2.73432
2.7373
2.73842
2.73779
2.73608
2.73415
2.73307
2.73353
2.73566
2.73998
2.74618
2.75314
2.75948
2.76446
2.76779
2.76951
2.77001
2.7701
2.76995
2.76954
2.76927
2.76916
2.76954
2.77085
2.77306
2.77541
2.77704
2.7779
2.77836
2.77959
2.78249
2.78722
2.79279
2.79793
2.80101
2.80126
2.8001
2.79794
2.79584
2.79476
2.79501
2.7967
2.79988
2.80387
2.8075
2.8099
2.81082
2.81078
2.8107
2.81099
2.81202
2.81372
2.81563
2.81754
2.81985
2.82292
2.82655
2.83017
2.83327
2.83561
2.83681
2.83741
2.83848
2.84049
2.84342
2.84683
2.85015
2.85311
2.85617
2.86063
2.86899
2.88453
2.90918
2.94005
2.96849
2.98601
2.99163
1
1
1
1
1
1
1
1
1
1
1
1
1
1
1
1
1
1
1
1
1
1
1
1
1
1
1
1
1
1
1
1
1
1
1
1
1
1
1
1
1
1
1
1
1
1
1
1
1
1
1
1
1
1
1
1
1
1
1
1
1
1
1
1
1
1
1
1
1
1
1
1
1
1
1
1
1
1
1
1
1
1
1
1
1
1
1
1
1
1
1
1
1
1
1
1
1
1
1
1
1
1
1
1.20373
2.42496
2.69698
2.69676
2.69923
2.70248
2.70645
2.7111
2.71624
2.72159
2.72673
2.73147
2.73541
2.73795
2.73857
2.73774
2.73589
2.73397
2.733
2.73349
2.73571
2.74013
2.74632
2.753
2.75879
2.76314
2.76596
2.76737
2.76777
2.76786
2.76778
2.76755
2.76744
2.76744
2.76794
2.76944
2.77194
2.7747
2.77679
2.77801
2.77864
2.77983
2.78244
2.7867
2.79177
2.79653
2.79942
2.79966
2.79854
2.79657
2.79478
2.79394
2.79431
2.79603
2.79904
2.80272
2.80611
2.80847
2.80958
2.80983
2.81
2.81043
2.81147
2.81306
2.81477
2.81659
2.81881
2.82184
2.82542
2.82907
2.83229
2.83473
2.83596
2.83655
2.83756
2.83943
2.84218
2.84547
2.84882
2.85195
2.85524
2.85994
2.86846
2.88402
2.90861
2.93941
2.96781
2.98532
2.99094
1
1
1
1
1
1
1
1
1
1
1
1
1
1
1
1
1
1
1
1
1
1
1
1
1
1
1
1
1
1
1
1
1
1
1
1
1
1
1
1
1
1
1
1
1
1
1
1
1
1
1
1
1
1
1
1
1
1
1
1
1
1
1
1
1
1
1
1
1
1
1
1
1
1
1
1
1
1
1
1
1
1
1
1
1
1
1
1
1
1
1
1
1
1
1
1
1
1
1
1
1
1
1
1.10807
2.36901
2.69601
2.69597
2.69827
2.70195
2.70663
2.71195
2.71766
2.72322
2.72832
2.73278
2.73631
2.7384
2.73866
2.73776
2.73594
2.73406
2.73306
2.73347
2.7356
2.74001
2.74615
2.75252
2.75777
2.76156
2.76393
2.76504
2.76529
2.76532
2.76524
2.76518
2.76521
2.76547
2.76634
2.76819
2.771
2.77413
2.77658
2.77807
2.77884
2.78002
2.78238
2.78617
2.79069
2.79501
2.79766
2.79793
2.79689
2.79517
2.79369
2.79312
2.79359
2.79531
2.79816
2.80156
2.80472
2.80694
2.80821
2.80878
2.80923
2.80984
2.81094
2.81246
2.81401
2.81575
2.81788
2.82076
2.82419
2.82781
2.83113
2.83367
2.83497
2.83562
2.8366
2.83833
2.84089
2.84407
2.84753
2.85085
2.85432
2.8592
2.86779
2.88333
2.90783
2.93859
2.96702
2.98456
2.99027
1
1
1
1
1
1
1
1
1
1
1
1
1
1
1
1
1
1
1
1
1
1
1
1
1
1
1
1
1
1
1
1
1
1
1
1
1
1
1
1
1
1
1
1
1
1
1
1
1
1
1
1
1
1
1
1
1
1
1
1
1
1
1
1
1
1
1
1
1
1
1
1
1
1
1
1
1
1
1
1
1
1
1
1
1
1
1
1
1
1
1
1
1
1
1
1
1
1
1
1
1
1
1
1.0059
2.30732
2.69876
2.69713
2.69798
2.70152
2.70696
2.71322
2.71946
2.72514
2.73
2.73389
2.73684
2.73855
2.73865
2.73778
2.73611
2.73428
2.7332
2.73345
2.73534
2.73954
2.74548
2.75147
2.75629
2.75971
2.76176
2.76262
2.76272
2.76268
2.76257
2.76264
2.76282
2.7634
2.76473
2.76706
2.77022
2.7737
2.77641
2.77807
2.77894
2.78007
2.78219
2.78557
2.78955
2.79343
2.79584
2.79616
2.79524
2.79375
2.79254
2.79221
2.7928
2.79452
2.79728
2.80048
2.80342
2.80546
2.80679
2.8076
2.80832
2.80913
2.81031
2.81181
2.81333
2.81503
2.81708
2.81977
2.82296
2.82643
2.82977
2.83237
2.83376
2.83456
2.83558
2.83721
2.83962
2.84275
2.84631
2.84977
2.85335
2.8583
2.86691
2.88239
2.90683
2.9376
2.96615
2.98377
2.98963
1
1
1
1
1
1
1
1
1
1
1
1
1
1
1
1
1
1
1
1
1
1
1
1
1
1
1
1
1
1
1
1
1
1
1
1
1
1
1
1
1
1
1
1
1
1
1
1
1
1
1
1
1
1
1
1
1
1
1
1
1
1
1
1
1
1
1
1
1
1
1
1
1
1
1
1
1
1
1
1
1
1
1
1
1
1
1
1
1
1
1
1
1
1
1
1
1
1
1
1
1
1
1
1.00004
2.23743
2.69794
2.69678
2.6978
2.70182
2.70782
2.71447
2.72074
2.72625
2.73075
2.73421
2.73677
2.7383
2.73845
2.7377
2.73623
2.73447
2.73332
2.73339
2.73489
2.73866
2.74418
2.74975
2.75426
2.75746
2.75941
2.7602
2.76022
2.76008
2.76002
2.76018
2.76054
2.7614
2.76318
2.76601
2.76955
2.77334
2.77625
2.77802
2.77893
2.77997
2.78184
2.78481
2.78834
2.79181
2.79401
2.79441
2.79363
2.79232
2.79131
2.79116
2.7919
2.79373
2.79648
2.79954
2.80227
2.8041
2.80538
2.80633
2.80724
2.80821
2.80947
2.81102
2.81261
2.81437
2.81642
2.8189
2.8218
2.82502
2.82824
2.8308
2.83231
2.83332
2.83446
2.8361
2.83847
2.8416
2.84518
2.84867
2.85227
2.8572
2.86575
2.88117
2.90561
2.93649
2.96523
2.98298
2.989
1
1
1
1
1
1
1
1
1
1
1
1
1
1
1
1
1
1
1
1
1
1
1
1
1
1
1
1
1
1
1
1
1
1
1
1
1
1
1
1
1
1
1
1
1
1
1
1
1
1
1
1
1
1
1
1
1
1
1
1
1
1
1
1
1
1
1
1
1
1
1
1
1
1
1
1
1
1
1
1
1
1
1
1
1
1
1
1
1
1
1
1
1
1
1
1
1
1
1
1
1
1
1
1
2.15456
2.69716
2.69624
2.69763
2.70224
2.70844
2.71498
2.72115
2.72651
2.73073
2.73383
2.73608
2.73748
2.73777
2.73721
2.73598
2.73441
2.73329
2.73315
2.73419
2.73732
2.74223
2.74737
2.75165
2.75485
2.75697
2.75789
2.75795
2.75781
2.75786
2.75813
2.75864
2.75972
2.76183
2.76505
2.76892
2.77296
2.77601
2.77786
2.77882
2.77975
2.78136
2.78393
2.78706
2.79014
2.79216
2.79266
2.79203
2.79085
2.78998
2.78999
2.79093
2.79296
2.7958
2.79876
2.80127
2.80285
2.80402
2.805
2.806
2.80702
2.80834
2.81002
2.81179
2.81372
2.81586
2.81817
2.82076
2.82362
2.82657
2.82901
2.83061
2.83189
2.83325
2.83501
2.83747
2.84062
2.84411
2.84751
2.85102
2.85587
2.86431
2.87967
2.90419
2.93527
2.96428
2.98222
2.98836
1
1
1
1
1
1
1
1
1
1
1
1
1
1
1
1
1
1
1
1
1
1
1
1
1
1
1
1
1
1
1
1
1
1
1
1
1
1
1
1
1
1
1
1
1
1
1
1
1
1
1
1
1
1
1
1
1
1
1
1
1
1
1
1
1
1
1
1
1
1
1
1
1
1
1
1
1
1
1
1
1
1
1
1
1
1
1
1
1
1
1
1
1
1
1
1
1
1
1
1
1
1
1
1
2.05844
2.68982
2.69522
2.69798
2.70286
2.70881
2.71495
2.72067
2.72564
2.72953
2.73235
2.73441
2.73583
2.7364
2.73613
2.73524
2.73399
2.73294
2.73254
2.73316
2.73555
2.73976
2.7445
2.74867
2.75205
2.75451
2.7558
2.75608
2.75606
2.75624
2.75662
2.75726
2.75849
2.7608
2.76427
2.76833
2.77246
2.77561
2.77752
2.77856
2.77942
2.78081
2.78298
2.7857
2.78838
2.79024
2.7908
2.79035
2.78933
2.78857
2.78873
2.79
2.79231
2.79524
2.79808
2.80036
2.80168
2.80271
2.80363
2.80457
2.80557
2.80689
2.8087
2.8108
2.81305
2.8153
2.81753
2.81984
2.82226
2.82482
2.82705
2.82872
2.8303
2.83194
2.83393
2.83657
2.83976
2.84306
2.84624
2.84962
2.8543
2.86262
2.87795
2.90261
2.93396
2.96331
2.9815
2.98772
1
1
1
1
1
1
1
1
1
1
1
1
1
1
1
1
1
1
1
1
1
1
1
1
1
1
1
1
1
1
1
1
1
1
1
1
1
1
1
1
1
1
1
1
1
1
1
1
1
1
1
1
1
1
1
1
1
1
1
1
1
1
1
1
1
1
1
1
1
1
1
1
1
1
1
1
1
1
1
1
1
1
1
1
1
1
1
1
1
1
1
1
1
1
1
1
1
1
1
1
1
1
1
1
1.9505
2.67422
2.6953
2.69863
2.70318
2.70839
2.71381
2.71893
2.72352
2.72711
2.72975
2.73176
2.73328
2.7342
2.73441
2.7339
2.73303
2.73209
2.73153
2.73174
2.73342
2.73693
2.74128
2.74544
2.74914
2.75209
2.75397
2.75471
2.75499
2.7553
2.75572
2.75641
2.75772
2.76011
2.76369
2.76777
2.77182
2.77502
2.77697
2.77809
2.77893
2.78013
2.78194
2.78426
2.78657
2.78821
2.78879
2.78852
2.78773
2.78715
2.78754
2.78917
2.79178
2.79476
2.79743
2.79947
2.80056
2.80143
2.8022
2.80298
2.80384
2.80516
2.80716
2.80964
2.81224
2.81469
2.8169
2.81893
2.82093
2.82308
2.82508
2.82678
2.82861
2.83053
2.83284
2.83572
2.83888
2.84194
2.84487
2.84801
2.85251
2.86072
2.87607
2.9009
2.93257
2.96229
2.98076
2.98704
1
1
1
1
1
1
1
1
1
1
1
1
1
1
1
1
1
1
1
1
1
1
1
1
1
1
1
1
1
1
1
1
1
1
1
1
1
1
1
1
1
1
1
1
1
1
1
1
1
1
1
1
1
1
1
1
1
1
1
1
1
1
1
1
1
1
1
1
1
1
1
1
1
1
1
1
1
1
1
1
1
1
1
1
1
1
1
1
1
1
1
1
1
1
1
1
1
1
1
1
1
1
1
1
1.8343
2.65139
2.69739
2.69961
2.70309
2.70714
2.71153
2.71599
2.72004
2.72342
2.72603
2.72812
2.72989
2.73132
2.73215
2.73207
2.73163
2.73079
2.73007
2.72987
2.73101
2.73397
2.73801
2.74226
2.7464
2.75
2.75258
2.75385
2.75445
2.75481
2.75523
2.75594
2.75726
2.75964
2.76323
2.76725
2.77117
2.77435
2.77629
2.77744
2.77827
2.77931
2.78081
2.78272
2.78467
2.78604
2.78658
2.78649
2.78602
2.78576
2.78647
2.78851
2.79134
2.79427
2.79671
2.79855
2.79944
2.80015
2.80069
2.8012
2.80188
2.80323
2.80547
2.80832
2.81129
2.81396
2.81614
2.81793
2.81959
2.82139
2.82317
2.82491
2.82687
2.82906
2.83166
2.83476
2.83788
2.84068
2.84333
2.84623
2.85057
2.85871
2.87412
2.89913
2.93111
2.96118
2.97997
2.98627
1
1
1
1
1
1
1
1
1
1
1
1
1
1
1
1
1
1
1
1
1
1
1
1
1
1
1
1
1
1
1
1
1
1
1
1
1
1
1
1
1
1
1
1
1
1
1
1
1
1
1
1
1
1
1
1
1
1
1
1
1
1
1
1
1
1
1
1
1
1
1
1
1
1
1
1
1
1
1
1
1
1
1
1
1
1
1
1
1
1
1
1
1
1
1
1
1
1
1
1
1
1
1
1
1.711
2.62206
2.69988
2.70002
2.70223
2.70495
2.70829
2.71197
2.71552
2.71863
2.72131
2.72372
2.72596
2.72799
2.72948
2.73013
2.72994
2.72926
2.72836
2.72782
2.72862
2.73119
2.73508
2.73959
2.74426
2.74851
2.75165
2.75335
2.75415
2.75455
2.75498
2.7557
2.75699
2.7593
2.7628
2.7667
2.77052
2.77356
2.77542
2.7765
2.77732
2.77825
2.77951
2.78107
2.78264
2.7837
2.78419
2.78429
2.78419
2.78437
2.7856
2.78801
2.79093
2.7937
2.79589
2.79757
2.7983
2.79883
2.79909
2.79926
2.79974
2.80117
2.8037
2.80693
2.81022
2.81302
2.81512
2.81671
2.81817
2.81978
2.82145
2.82319
2.8252
2.82754
2.83037
2.83359
2.83665
2.83922
2.84162
2.84431
2.84853
2.85667
2.87215
2.89732
2.92957
2.95995
2.97904
2.98536
1
1
1
1
1
1
1
1
1
1
1
1
1
1
1
1
1
1
1
1
1
1
1
1
1
1
1
1
1
1
1
1
1
1
1
1
1
1
1
1
1
1
1
1
1
1
1
1
1
1
1
1
1
1
1
1
1
1
1
1
1
1
1
1
1
1
1
1
1
1
1
1
1
1
1
1
1
1
1
1
1
1
1
1
1
1
1
1
1
1
1
1
1
1
1
1
1
1
1
1
1
1
1
1
1.57671
2.58178
2.69984
2.69967
2.70129
2.70301
2.70517
2.70768
2.71048
2.71345
2.71645
2.71945
2.72238
2.72504
2.72714
2.72841
2.72842
2.7279
2.72691
2.72615
2.72665
2.72883
2.73264
2.73747
2.74273
2.7477
2.75137
2.7534
2.7542
2.75443
2.75471
2.75537
2.75663
2.75884
2.76221
2.76606
2.7698
2.77269
2.7744
2.77532
2.77606
2.77694
2.77805
2.77933
2.78052
2.78124
2.78161
2.78191
2.7823
2.78311
2.78491
2.78761
2.79047
2.793
2.79494
2.79648
2.79709
2.79742
2.79738
2.79719
2.79752
2.79905
2.80193
2.80554
2.80905
2.81184
2.81379
2.81523
2.81662
2.81823
2.81992
2.82163
2.82364
2.82601
2.82888
2.83213
2.83512
2.83753
2.83973
2.84227
2.84646
2.85466
2.87023
2.89553
2.92798
2.95861
2.97793
2.98426
1
1
1
1
1
1
1
1
1
1
1
1
1
1
1
1
1
1
1
1
1
1
1
1
1
1
1
1
1
1
1
1
1
1
1
1
1
1
1
1
1
1
1
1
1
1
1
1
1
1
1
1
1
1
1
1
1
1
1
1
1
1
1
1
1
1
1
1
1
1
1
1
1
1
1
1
1
1
1
1
1
1
1
1
1
1
1
1
1
1
1
1
1
1
1
1
1
1
1
1
1
1
1
1
1.4327
2.52882
2.69828
2.69807
2.69993
2.70112
2.70261
2.70435
2.70661
2.70953
2.71292