/*--------------------------------*- C++ -*----------------------------------*\
  =========                 |
  \\      /  F ield         | OpenFOAM: The Open Source CFD Toolbox
   \\    /   O peration     | Website:  https://openfoam.org
    \\  /    A nd           | Version:  7
     \\/     M anipulation  |
\*---------------------------------------------------------------------------*/
FoamFile
{
    version     2.0;
    format      ascii;
    class       volVectorField;
    location    "0.2";
    object      U;
}
// * * * * * * * * * * * * * * * * * * * * * * * * * * * * * * * * * * * * * //

dimensions      [0 1 -1 0 0 0 0];

internalField   nonuniform List<vector> 
16128
(
(3 9.12046e-18 0)
(3 5.79139e-17 0)
(3 -1.09079e-16 0)
(3 -2.58075e-16 0)
(3 7.91288e-17 0)
(3 4.60169e-16 0)
(3 5.31948e-16 0)
(3 1.02282e-16 0)
(3 -3.87921e-16 0)
(3 -4.55617e-16 0)
(3 3.66569e-16 0)
(3 8.69606e-16 0)
(3 5.63718e-16 0)
(3 1.07609e-16 0)
(3 -4.8439e-17 0)
(3 6.43141e-16 0)
(3 1.22839e-15 0)
(3 1.10838e-15 0)
(3 1.05661e-15 0)
(3 8.91199e-16 0)
(3 2.62411e-16 0)
(3 -8.29067e-17 0)
(3 -6.72065e-17 0)
(3 7.64382e-17 0)
(3 -2.5103e-18 0)
(3 2.18194e-16 0)
(3 9.37819e-16 0)
(3 1.49151e-15 0)
(3 1.88884e-15 0)
(3 1.79021e-15 0)
(3 1.12758e-15 0)
(3 5.23984e-16 0)
(3 4.60629e-16 0)
(3 -2.92458e-16 0)
(3 -7.84879e-16 0)
(1.52088 0.0145482 0)
(0.483634 0.0201333 0)
(0.305846 0.0271009 0)
(0.283427 0.0297939 0)
(0.26027 0.0306202 0)
(0.240154 0.0260577 0)
(0.196752 0.0218227 0)
(0.139462 0.0190341 0)
(0.115126 0.0183728 0)
(0.093304 0.0179151 0)
(0.0751567 0.0182936 0)
(0.0469946 0.0178869 0)
(0.0127272 0.0175052 0)
(3 1.16769e-16 0)
(3 -2.83339e-16 0)
(3 -8.66951e-16 0)
(3 -5.84937e-16 0)
(3 6.87449e-16 0)
(3 5.20707e-16 0)
(3 7.03019e-16 0)
(3 7.18256e-16 0)
(3 -2.85888e-16 0)
(3 -1.3437e-15 0)
(3 -5.12263e-16 0)
(3 9.91641e-16 0)
(3 1.87779e-15 0)
(3 1.60036e-15 0)
(3 5.56969e-16 0)
(3 1.2406e-15 0)
(3 1.51668e-15 0)
(3 7.99254e-16 0)
(3 8.01738e-16 0)
(3 9.98417e-16 0)
(3 6.79123e-16 0)
(3 6.58312e-16 0)
(3 3.69189e-16 0)
(3 2.43799e-16 0)
(3 7.05106e-16 0)
(3 1.35403e-15 0)
(3 1.77257e-15 0)
(3 2.49863e-15 0)
(3 2.24075e-15 0)
(3 2.07367e-15 0)
(3 8.59142e-16 0)
(3 3.32998e-16 0)
(3 2.86501e-16 0)
(3 -1.34061e-16 0)
(3 -3.38709e-16 0)
(1.56292 0.0717936 0)
(0.476438 0.0843496 0)
(0.289946 0.0902047 0)
(0.269211 0.0840242 0)
(0.246962 0.0853097 0)
(0.227436 0.0734194 0)
(0.183297 0.0615596 0)
(0.129092 0.0533568 0)
(0.110038 0.0514007 0)
(0.0898789 0.0510082 0)
(0.0722928 0.0529 0)
(0.0441539 0.0522628 0)
(0.0117746 0.0507267 0)
(3 1.42325e-16 0)
(3 5.58708e-18 0)
(3 -2.64312e-16 0)
(3 2.69562e-16 0)
(3 3.16547e-16 0)
(3 -7.02151e-17 0)
(3 -4.79521e-16 0)
(3 -5.48643e-16 0)
(3 -7.51873e-16 0)
(3 -1.01389e-15 0)
(3 -7.42129e-16 0)
(3 -2.71251e-16 0)
(3 5.00074e-16 0)
(3 6.18155e-16 0)
(3 1.60102e-16 0)
(3 3.99389e-16 0)
(3 6.4594e-16 0)
(3 1.61043e-16 0)
(3 -5.07648e-16 0)
(3 -5.09585e-16 0)
(3 -2.16448e-16 0)
(3 -1.2727e-16 0)
(3 -3.70448e-16 0)
(3 -3.696e-16 0)
(3 5.36406e-16 0)
(3 1.86563e-15 0)
(3 1.8603e-15 0)
(3 1.63186e-15 0)
(3 4.90063e-16 0)
(3 -4.48896e-16 0)
(3 -1.19489e-15 0)
(3 -9.10359e-16 0)
(3 -3.16601e-16 0)
(3 -2.42348e-16 0)
(3 -5.75893e-18 0)
(1.68491 0.12235 0)
(0.488351 0.146647 0)
(0.300117 0.151341 0)
(0.282466 0.144403 0)
(0.256741 0.141851 0)
(0.232683 0.121367 0)
(0.182292 0.100535 0)
(0.128464 0.0876778 0)
(0.113266 0.0854409 0)
(0.0933458 0.0858524 0)
(0.0743276 0.0891434 0)
(0.0438065 0.0880397 0)
(0.0116867 0.0859439 0)
(3 -1.15655e-16 0)
(3 3.71488e-16 0)
(3 6.6312e-16 0)
(3 2.82413e-16 0)
(3 -5.40032e-16 0)
(3 -5.98054e-16 0)
(3 -6.37353e-16 0)
(3 -8.16092e-16 0)
(3 -1.74276e-16 0)
(3 4.82884e-16 0)
(3 1.88866e-16 0)
(3 -1.60234e-15 0)
(3 -2.00426e-15 0)
(3 -1.76133e-15 0)
(3 1.46167e-16 0)
(3 -3.88602e-16 0)
(3 -4.0776e-16 0)
(3 8.25593e-17 0)
(3 -7.57903e-16 0)
(3 -1.03547e-15 0)
(3 -5.66638e-16 0)
(3 -4.68418e-16 0)
(3 -6.29274e-16 0)
(3 -8.39139e-16 0)
(3 4.31464e-18 0)
(3 1.02152e-15 0)
(3 1.29183e-15 0)
(3 1.5491e-15 0)
(3 1.14605e-15 0)
(3 -4.74542e-16 0)
(3 -1.10061e-15 0)
(3 -7.45132e-16 0)
(3 -2.94644e-16 0)
(3 -9.68382e-17 0)
(3 7.22651e-16 0)
(1.87104 0.161555 0)
(0.506029 0.205272 0)
(0.317379 0.209598 0)
(0.304186 0.204588 0)
(0.275351 0.196899 0)
(0.242406 0.169757 0)
(0.183964 0.140449 0)
(0.130417 0.123141 0)
(0.117666 0.121149 0)
(0.0972813 0.122455 0)
(0.0754284 0.126355 0)
(0.0419959 0.12527 0)
(0.0112581 0.123352 0)
(3 -7.21239e-17 0)
(3 -7.34294e-17 0)
(3 6.20657e-16 0)
(3 2.33728e-16 0)
(3 -3.39999e-16 0)
(3 -8.73678e-16 0)
(3 -7.6147e-16 0)
(3 -6.32726e-16 0)
(3 -2.48629e-16 0)
(3 -8.59935e-16 0)
(3 -1.68097e-15 0)
(3 -2.37955e-15 0)
(3 -1.90389e-15 0)
(3 -1.08141e-15 0)
(3 3.28477e-16 0)
(3 -1.76571e-16 0)
(3 -7.84061e-16 0)
(3 -6.75119e-16 0)
(3 -5.11721e-16 0)
(3 -4.3215e-16 0)
(3 -4.03549e-16 0)
(3 -1.01586e-15 0)
(3 -8.42149e-16 0)
(3 -1.23603e-15 0)
(3 -2.12342e-15 0)
(3 -2.00527e-15 0)
(3 5.59932e-16 0)
(3 1.29277e-15 0)
(3 1.21098e-15 0)
(3 1.14424e-15 0)
(3 8.86494e-16 0)
(3 7.53055e-16 0)
(3 3.87768e-16 0)
(3 -3.13351e-16 0)
(3 1.41778e-15 0)
(2.1309 0.179127 0)
(0.54034 0.255315 0)
(0.339533 0.268043 0)
(0.324407 0.27 0)
(0.293861 0.253967 0)
(0.25007 0.220075 0)
(0.1853 0.182665 0)
(0.134663 0.162495 0)
(0.123992 0.158904 0)
(0.102598 0.160313 0)
(0.0769794 0.164655 0)
(0.0402245 0.163736 0)
(0.0111622 0.162389 0)
(3 4.64225e-18 0)
(3 -9.25429e-17 0)
(3 5.56657e-18 0)
(3 1.14004e-16 0)
(3 -1.09e-16 0)
(3 -2.50651e-16 0)
(3 -5.88554e-16 0)
(3 -1.24106e-15 0)
(3 -1.44687e-15 0)
(3 -2.76253e-15 0)
(3 -2.34588e-15 0)
(3 -1.15298e-15 0)
(3 -1.20824e-16 0)
(3 1.06049e-15 0)
(3 1.161e-15 0)
(3 1.62218e-15 0)
(3 1.03013e-15 0)
(3 -7.86847e-16 0)
(3 -1.04535e-15 0)
(3 -1.4426e-15 0)
(3 -2.00143e-15 0)
(3 -2.01987e-15 0)
(3 -1.24684e-15 0)
(3 -5.96325e-16 0)
(3 -1.29701e-15 0)
(3 -1.42473e-15 0)
(3 -1.51073e-15 0)
(3 -9.18931e-16 0)
(3 4.41492e-17 0)
(3 5.88858e-16 0)
(3 4.48614e-16 0)
(3 8.38766e-17 0)
(3 2.97202e-16 0)
(3 6.78651e-16 0)
(3 1.28691e-15 0)
(2.4488 0.164343 0)
(0.606231 0.296677 0)
(0.370058 0.330623 0)
(0.344599 0.33767 0)
(0.313612 0.310377 0)
(0.25711 0.270493 0)
(0.190202 0.22658 0)
(0.144461 0.205095 0)
(0.133191 0.19936 0)
(0.108873 0.199862 0)
(0.0788813 0.203516 0)
(0.0390811 0.203037 0)
(0.0117523 0.202837 0)
(3 -5.51346e-17 0)
(3 -8.23057e-17 0)
(3 -4.20341e-16 0)
(3 -4.40999e-16 0)
(3 -4.2868e-16 0)
(3 -3.45152e-16 0)
(3 1.71044e-16 0)
(3 -2.45047e-16 0)
(3 -9.69951e-16 0)
(3 -1.11169e-15 0)
(3 3.73215e-17 0)
(3 1.16809e-15 0)
(3 1.72873e-15 0)
(3 2.57295e-15 0)
(3 2.60322e-15 0)
(3 2.87285e-15 0)
(3 1.41686e-15 0)
(3 -1.01621e-15 0)
(3 -2.69219e-15 0)
(3 -2.66492e-15 0)
(3 -2.13973e-15 0)
(3 -5.87488e-16 0)
(3 4.16816e-16 0)
(3 2.79995e-16 0)
(3 -1.28526e-15 0)
(3 -1.73399e-15 0)
(3 -2.33517e-15 0)
(3 -1.60493e-15 0)
(3 1.17358e-16 0)
(3 -4.57327e-16 0)
(3 -4.11362e-16 0)
(3 -3.73452e-16 0)
(3 3.97623e-16 0)
(3 1.51599e-15 0)
(3 1.3113e-15 0)
(2.74727 0.108309 0)
(0.722748 0.337478 0)
(0.411286 0.399216 0)
(0.362339 0.40518 0)
(0.333298 0.363401 0)
(0.264089 0.321139 0)
(0.200349 0.274244 0)
(0.160004 0.252266 0)
(0.146441 0.242948 0)
(0.115758 0.241149 0)
(0.0817686 0.242108 0)
(0.0392457 0.242991 0)
(0.0133994 0.244779 0)
(3 7.19457e-17 0)
(3 -1.49903e-17 0)
(3 -2.28683e-16 0)
(3 2.18495e-16 0)
(3 7.59337e-16 0)
(3 8.23581e-16 0)
(3 4.38941e-16 0)
(3 8.53255e-16 0)
(3 9.21162e-16 0)
(3 8.15689e-16 0)
(3 3.41917e-16 0)
(3 7.12597e-16 0)
(3 9.97616e-16 0)
(3 8.63379e-16 0)
(3 4.5847e-16 0)
(3 2.96332e-16 0)
(3 8.44209e-16 0)
(3 1.05431e-15 0)
(3 1.29696e-15 0)
(3 1.65869e-15 0)
(3 1.84279e-15 0)
(3 1.88319e-15 0)
(3 1.26135e-15 0)
(3 4.69239e-16 0)
(3 -2.07326e-16 0)
(3 -6.99365e-16 0)
(3 -2.03388e-15 0)
(3 -2.59806e-15 0)
(3 -2.38676e-15 0)
(3 -2.33103e-15 0)
(3 -1.23989e-15 0)
(3 -8.20299e-16 0)
(3 2.44911e-16 0)
(3 5.08185e-16 0)
(3 6.08572e-16 0)
(2.95421 0.0216407 0)
(0.919095 0.395935 0)
(0.459712 0.470377 0)
(0.373675 0.468896 0)
(0.351201 0.413225 0)
(0.2743 0.373618 0)
(0.216476 0.329022 0)
(0.180588 0.304911 0)
(0.161926 0.291138 0)
(0.121114 0.284824 0)
(0.084567 0.281028 0)
(0.0412361 0.284514 0)
(0.016153 0.289143 0)
(3 4.50408e-17 0)
(3 3.50554e-17 0)
(3 -2.15762e-16 0)
(3 5.71535e-16 0)
(3 1.24736e-15 0)
(3 1.59077e-15 0)
(3 7.25732e-16 0)
(3 4.05771e-16 0)
(3 9.36253e-16 0)
(3 1.69661e-15 0)
(3 7.91242e-16 0)
(3 2.85187e-16 0)
(3 6.00076e-16 0)
(3 -3.4334e-16 0)
(3 -1.72502e-15 0)
(3 -9.25439e-16 0)
(3 4.27581e-16 0)
(3 2.25445e-15 0)
(3 3.1867e-15 0)
(3 2.83108e-15 0)
(3 2.04176e-15 0)
(3 2.13588e-15 0)
(3 1.83909e-15 0)
(3 1.00715e-15 0)
(3 1.14954e-15 0)
(3 9.82854e-17 0)
(3 -1.88962e-15 0)
(3 -3.36386e-15 0)
(3 -4.31205e-15 0)
(3 -3.12629e-15 0)
(3 -5.6694e-16 0)
(3 1.81222e-16 0)
(3 -4.39938e-16 0)
(3 -4.4118e-16 0)
(3 -6.86354e-16 0)
(2.99993 0.000240289 0)
(1.21702 0.460194 0)
(0.506124 0.540927 0)
(0.383378 0.525813 0)
(0.366743 0.463645 0)
(0.291496 0.429936 0)
(0.238833 0.392532 0)
(0.208562 0.363297 0)
(0.181207 0.344043 0)
(0.129158 0.330842 0)
(0.089462 0.322125 0)
(0.0484631 0.329428 0)
(0.0204836 0.337396 0)
(3 -7.95351e-17 0)
(3 -3.00079e-16 0)
(3 -3.33656e-16 0)
(3 -3.37849e-16 0)
(3 -2.82315e-16 0)
(3 -5.67418e-16 0)
(3 -6.28314e-16 0)
(3 -5.08066e-16 0)
(3 -8.76607e-17 0)
(3 5.94575e-17 0)
(3 -8.40725e-16 0)
(3 -1.42034e-15 0)
(3 -1.43011e-15 0)
(3 -1.37657e-15 0)
(3 -1.47197e-15 0)
(3 -5.99404e-16 0)
(3 -3.54383e-16 0)
(3 1.61847e-16 0)
(3 6.91491e-16 0)
(3 1.00123e-15 0)
(3 1.48606e-15 0)
(3 1.75864e-15 0)
(3 2.35419e-15 0)
(3 1.67763e-15 0)
(3 7.75407e-16 0)
(3 -1.59781e-15 0)
(3 -2.29912e-15 0)
(3 -3.0692e-15 0)
(3 -3.31139e-15 0)
(3 -2.58156e-15 0)
(3 -1.34388e-15 0)
(3 -7.91728e-16 0)
(3 -3.05191e-16 0)
(3 1.45256e-16 0)
(3 -1.70338e-16 0)
(3 1.85556e-08 0)
(1.68238 0.480137 0)
(0.560265 0.586772 0)
(0.405252 0.56774 0)
(0.380033 0.520264 0)
(0.319648 0.490222 0)
(0.268173 0.463746 0)
(0.241175 0.429091 0)
(0.199257 0.404272 0)
(0.136459 0.381864 0)
(0.0955958 0.370168 0)
(0.0586475 0.380807 0)
(0.0244166 0.391522 0)
(3 2.08891e-17 0)
(3 5.06609e-17 0)
(3 -3.48823e-17 0)
(3 -8.73164e-16 0)
(3 -1.86942e-15 0)
(3 -2.11981e-15 0)
(3 -1.81902e-15 0)
(3 -1.32629e-15 0)
(3 -1.08247e-15 0)
(3 -9.77319e-16 0)
(3 -1.97058e-15 0)
(3 -2.58547e-15 0)
(3 -2.84677e-15 0)
(3 -2.42824e-15 0)
(3 -1.69405e-15 0)
(3 -1.02526e-15 0)
(3 -7.22309e-16 0)
(3 -5.47402e-16 0)
(3 -8.77899e-16 0)
(3 -1.54436e-16 0)
(3 1.60533e-15 0)
(3 1.67993e-15 0)
(3 1.22824e-15 0)
(3 1.8608e-17 0)
(3 -7.83988e-16 0)
(3 -1.4402e-15 0)
(3 -2.49928e-15 0)
(3 -3.3702e-15 0)
(3 -3.23847e-15 0)
(3 -2.62312e-15 0)
(3 -2.22523e-15 0)
(3 -1.59008e-15 0)
(3 -5.8873e-16 0)
(3 -2.84784e-16 0)
(3 5.03832e-17 0)
(3 1.09451e-13 0)
(2.31546 0.38327 0)
(0.645412 0.595839 0)
(0.439465 0.611006 0)
(0.39897 0.587485 0)
(0.359327 0.556417 0)
(0.305119 0.540985 0)
(0.277216 0.502249 0)
(0.218764 0.470758 0)
(0.152818 0.438534 0)
(0.10978 0.427782 0)
(0.0747655 0.439713 0)
(0.0299799 0.452274 0)
(3 2.36356e-17 0)
(3 1.44741e-16 0)
(3 5.68718e-17 0)
(3 -2.35304e-16 0)
(3 -6.96569e-16 0)
(3 -1.12759e-15 0)
(3 -1.3145e-15 0)
(3 -1.52069e-15 0)
(3 -1.46192e-15 0)
(3 -1.4131e-15 0)
(3 -1.29293e-15 0)
(3 -1.78783e-15 0)
(3 -2.17159e-15 0)
(3 -2.25508e-15 0)
(3 -1.2623e-15 0)
(3 4.60874e-17 0)
(3 2.70405e-16 0)
(3 3.04794e-17 0)
(3 -2.63871e-17 0)
(3 -9.04606e-18 0)
(3 -1.78441e-16 0)
(3 -1.05607e-16 0)
(3 6.04219e-17 0)
(3 2.88574e-16 0)
(3 6.54482e-17 0)
(3 3.56966e-16 0)
(3 -9.68963e-17 0)
(3 -1.85279e-15 0)
(3 -2.60162e-15 0)
(3 -2.4054e-15 0)
(3 -2.13208e-15 0)
(3 -1.51245e-15 0)
(3 -6.56466e-16 0)
(3 4.72176e-16 0)
(3 9.28829e-16 0)
(3 -6.09974e-16 0)
(2.87008 0.123373 0)
(0.849911 0.61578 0)
(0.4964 0.67378 0)
(0.423345 0.666858 0)
(0.403776 0.629841 0)
(0.345837 0.620311 0)
(0.313261 0.578583 0)
(0.240684 0.543008 0)
(0.172842 0.509047 0)
(0.126818 0.500412 0)
(0.0904653 0.510689 0)
(0.0331893 0.523317 0)
(3 -8.28984e-17 0)
(3 -2.94815e-16 0)
(3 -2.25771e-16 0)
(3 7.41007e-16 0)
(3 6.96651e-16 0)
(3 2.93808e-16 0)
(3 -4.98413e-17 0)
(3 -6.18829e-16 0)
(3 -8.44307e-16 0)
(3 -1.09362e-15 0)
(3 -1.0917e-15 0)
(3 -1.07052e-15 0)
(3 -1.32089e-15 0)
(3 -6.29008e-16 0)
(3 -2.75628e-16 0)
(3 4.07697e-17 0)
(3 2.38971e-16 0)
(3 3.5036e-16 0)
(3 6.86907e-16 0)
(3 3.06233e-16 0)
(3 -9.52348e-16 0)
(3 -1.19416e-15 0)
(3 -1.30418e-15 0)
(3 2.72216e-16 0)
(3 1.10639e-15 0)
(3 1.01269e-15 0)
(3 1.02628e-15 0)
(3 1.47238e-16 0)
(3 -1.1833e-15 0)
(3 -1.32486e-15 0)
(3 5.08879e-17 0)
(3 3.88914e-16 0)
(3 1.22811e-15 0)
(3 1.58805e-15 0)
(3 1.70687e-15 0)
(3 -4.25397e-16 0)
(3.00131 0.00385676 0)
(1.30546 0.643803 0)
(0.563814 0.755792 0)
(0.45614 0.74192 0)
(0.445718 0.69768 0)
(0.385091 0.691417 0)
(0.349248 0.653232 0)
(0.273108 0.622278 0)
(0.210362 0.59108 0)
(0.164762 0.58329 0)
(0.119179 0.593257 0)
(0.0425011 0.610044 0)
(3 -5.39325e-17 0)
(3 1.53344e-17 0)
(3 -9.99509e-17 0)
(3 -2.00382e-17 0)
(3 1.73929e-16 0)
(3 6.83055e-16 0)
(3 8.9212e-16 0)
(3 6.85498e-16 0)
(3 9.95261e-16 0)
(3 1.25538e-15 0)
(3 5.59873e-16 0)
(3 2.47267e-16 0)
(3 3.70591e-16 0)
(3 2.70405e-16 0)
(3 1.11458e-17 0)
(3 -1.32081e-15 0)
(3 -1.57167e-15 0)
(3 -5.98993e-16 0)
(3 -4.83256e-16 0)
(3 -2.12668e-16 0)
(3 -9.50839e-16 0)
(3 -2.18639e-15 0)
(3 -2.18319e-15 0)
(3 -2.05866e-15 0)
(3 -1.85589e-15 0)
(3 -6.69314e-16 0)
(3 -8.70697e-16 0)
(3 -1.12004e-15 0)
(3 -1.44017e-15 0)
(3 -1.18851e-15 0)
(3 1.70566e-16 0)
(3 1.27028e-15 0)
(3 1.47223e-15 0)
(3 3.10071e-16 0)
(3 -4.69622e-16 0)
(3 -5.3787e-16 0)
(3 3.21989e-06 0)
(2.05327 0.559104 0)
(0.658246 0.795226 0)
(0.508719 0.786743 0)
(0.478952 0.760515 0)
(0.424924 0.752232 0)
(0.388168 0.726251 0)
(0.322435 0.704223 0)
(0.259699 0.686261 0)
(0.205726 0.686683 0)
(0.142471 0.702408 0)
(0.0423496 0.724351 0)
(3 -3.31808e-17 0)
(3 3.96824e-16 0)
(3 2.15445e-16 0)
(3 -2.04285e-16 0)
(3 -5.41549e-17 0)
(3 3.43801e-16 0)
(3 9.54766e-17 0)
(3 2.31276e-16 0)
(3 4.22719e-16 0)
(3 1.01215e-15 0)
(3 1.47441e-15 0)
(3 1.0276e-15 0)
(3 7.88389e-16 0)
(3 -1.15895e-16 0)
(3 -9.64693e-16 0)
(3 -1.63015e-15 0)
(3 -2.87371e-15 0)
(3 -3.31863e-15 0)
(3 -2.8736e-15 0)
(3 -1.8508e-15 0)
(3 -2.16715e-15 0)
(3 -2.35042e-15 0)
(3 -2.79874e-15 0)
(3 -2.86348e-15 0)
(3 -2.73938e-15 0)
(3 -1.16516e-15 0)
(3 -1.05602e-15 0)
(3 -1.20414e-15 0)
(3 -1.29111e-15 0)
(3 -1.46073e-15 0)
(3 -1.36545e-15 0)
(3 -1.64506e-16 0)
(3 -9.72703e-16 0)
(3 -1.38199e-15 0)
(3 -1.06409e-15 0)
(3 -6.81764e-16 0)
(3 6.64019e-11 0)
(2.85098 0.203461 0)
(0.889806 0.802693 0)
(0.580774 0.835162 0)
(0.512596 0.833221 0)
(0.47715 0.807549 0)
(0.434531 0.800427 0)
(0.389038 0.789554 0)
(0.333246 0.79228 0)
(0.280876 0.806453 0)
(0.21286 0.823479 0)
(0.0790083 0.865175 0)
(3 -2.29735e-16 0)
(3 -1.29246e-16 0)
(3 -3.37322e-17 0)
(3 -1.33311e-16 0)
(3 -3.89613e-16 0)
(3 -7.57199e-16 0)
(3 -9.97106e-16 0)
(3 -7.54053e-16 0)
(3 -1.62639e-15 0)
(3 -1.33414e-15 0)
(3 7.96725e-17 0)
(3 5.36236e-16 0)
(3 2.7853e-16 0)
(3 3.3176e-17 0)
(3 -8.2015e-17 0)
(3 -5.24014e-16 0)
(3 -1.99088e-15 0)
(3 -3.33519e-15 0)
(3 -3.08954e-15 0)
(3 -3.04689e-15 0)
(3 -2.23025e-15 0)
(3 -2.13183e-15 0)
(3 -3.08465e-15 0)
(3 -3.18623e-15 0)
(3 -6.1039e-16 0)
(3 5.85015e-16 0)
(3 7.044e-16 0)
(3 3.87032e-16 0)
(3 -6.45791e-16 0)
(3 -9.21229e-16 0)
(3 -1.15914e-15 0)
(3 -2.18358e-15 0)
(3 -1.905e-15 0)
(3 -1.35981e-15 0)
(3 -8.18942e-16 0)
(3 -9.47227e-16 0)
(3 -2.76633e-16 0)
(3.00567 0.00707969 0)
(1.48263 0.761121 0)
(0.67742 0.894784 0)
(0.558572 0.891536 0)
(0.537855 0.858758 0)
(0.491073 0.8767 0)
(0.469473 0.875608 0)
(0.426761 0.894395 0)
(0.374344 0.92658 0)
(0.257614 1.00384 0)
(0.129663 1.13711 0)
(3 4.08651e-17 0)
(3 -3.75978e-16 0)
(3 -3.84975e-16 0)
(3 -8.66649e-17 0)
(3 -2.30291e-16 0)
(3 -3.27766e-16 0)
(3 -2.49252e-16 0)
(3 -8.87424e-16 0)
(3 -1.1361e-15 0)
(3 -8.8295e-16 0)
(3 -8.2225e-16 0)
(3 -7.38824e-16 0)
(3 -1.88747e-16 0)
(3 4.08303e-16 0)
(3 5.28064e-16 0)
(3 -7.27738e-17 0)
(3 -1.48481e-15 0)
(3 -1.61541e-15 0)
(3 -1.97392e-15 0)
(3 -2.18159e-15 0)
(3 -1.68697e-15 0)
(3 -2.02668e-15 0)
(3 -2.90658e-15 0)
(3 -9.35009e-16 0)
(3 -1.24308e-16 0)
(3 2.19804e-16 0)
(3 5.73296e-16 0)
(3 -1.10896e-16 0)
(3 -4.81372e-16 0)
(3 -5.02806e-16 0)
(3 -1.64039e-15 0)
(3 -1.69126e-15 0)
(3 -2.814e-16 0)
(3 4.9194e-16 0)
(3 -1.78313e-16 0)
(3 -9.34599e-16 0)
(3 -1.76023e-15 0)
(3.00002 1.0831e-05 0)
(2.44684 0.478973 0)
(0.815554 0.913574 0)
(0.631373 0.9362 0)
(0.606913 0.920754 0)
(0.562821 0.950115 0)
(0.552165 0.959324 0)
(0.52912 0.986582 0)
(0.498228 1.06704 0)
(0.47191 1.1999 0)
(0.590446 1.47707 0)
(3 7.1712e-17 0)
(3 -1.86677e-16 0)
(3 -1.37739e-16 0)
(3 1.60616e-16 0)
(3 4.51404e-16 0)
(3 2.73358e-16 0)
(3 1.26577e-16 0)
(3 -4.85328e-16 0)
(3 -6.20294e-16 0)
(3 -9.88872e-16 0)
(3 -1.74034e-15 0)
(3 -1.65974e-15 0)
(3 -1.32381e-15 0)
(3 -7.86473e-16 0)
(3 -2.53601e-16 0)
(3 -4.20613e-16 0)
(3 -6.73433e-16 0)
(3 -1.51615e-16 0)
(3 -1.32514e-15 0)
(3 -1.49779e-15 0)
(3 -1.34674e-15 0)
(3 -1.12848e-15 0)
(3 -1.22999e-15 0)
(3 -8.56146e-16 0)
(3 -8.27723e-16 0)
(3 -1.08083e-15 0)
(3 -9.3383e-16 0)
(3 -3.78845e-16 0)
(3 -1.71324e-18 0)
(3 3.17777e-16 0)
(3 4.55563e-16 0)
(3 9.74574e-16 0)
(3 7.99988e-16 0)
(3 -9.48904e-17 0)
(3 -1.30929e-15 0)
(3 -8.42169e-16 0)
(3 -4.38387e-16 0)
(3 5.13681e-10 0)
(3.02635 0.0559662 0)
(1.25074 0.901701 0)
(0.74611 0.997044 0)
(0.666248 1.00533 0)
(0.651931 1.00045 0)
(0.636681 1.02689 0)
(0.645854 1.05834 0)
(0.658749 1.14604 0)
(0.722651 1.27259 0)
(1.05027 1.47777 0)
(3 5.02529e-18 0)
(3 3.85298e-16 0)
(3 4.93828e-16 0)
(3 3.28154e-16 0)
(3 1.46509e-16 0)
(3 -1.08039e-16 0)
(3 -5.95024e-16 0)
(3 -1.72362e-16 0)
(3 -1.22803e-16 0)
(3 -1.08276e-15 0)
(3 -1.60521e-15 0)
(3 -8.37174e-16 0)
(3 -6.71253e-16 0)
(3 -8.99168e-16 0)
(3 -1.02561e-15 0)
(3 -2.40154e-16 0)
(3 4.76962e-16 0)
(3 2.77996e-16 0)
(3 -4.38021e-17 0)
(3 -5.46027e-16 0)
(3 -1.18737e-15 0)
(3 -1.09851e-15 0)
(3 -6.84402e-16 0)
(3 -7.17456e-16 0)
(3 -9.41994e-17 0)
(3 1.51725e-16 0)
(3 -1.96067e-16 0)
(3 4.73398e-16 0)
(3 7.45367e-16 0)
(3 8.18917e-16 0)
(3 1.02915e-15 0)
(3 1.3817e-15 0)
(3 3.04924e-16 0)
(3 -1.74996e-16 0)
(3 1.47571e-16 0)
(3 7.21886e-16 0)
(3 1.13109e-15 0)
(3 9.61218e-15 0)
(3.0008 0.000461713 0)
(2.23447 0.637581 0)
(0.900307 1.02315 0)
(0.733851 1.04481 0)
(0.740526 1.04103 0)
(0.728236 1.07754 0)
(0.76029 1.11151 0)
(0.805896 1.17699 0)
(0.932799 1.28219 0)
(1.27033 1.3956 0)
(3 1.2564e-16 0)
(3 1.68603e-17 0)
(3 -3.83386e-17 0)
(3 -5.97031e-16 0)
(3 -8.42309e-16 0)
(3 -2.97539e-16 0)
(3 3.53042e-16 0)
(3 9.81954e-16 0)
(3 3.70936e-16 0)
(3 -3.65776e-16 0)
(3 -6.41472e-16 0)
(3 -5.23387e-16 0)
(3 -1.37047e-16 0)
(3 -2.8702e-16 0)
(3 -3.61819e-16 0)
(3 8.59585e-16 0)
(3 1.25812e-15 0)
(3 6.08458e-16 0)
(3 -4.36804e-17 0)
(3 -2.55243e-16 0)
(3 -8.4976e-16 0)
(3 -1.54626e-15 0)
(3 -1.76476e-15 0)
(3 -7.3155e-16 0)
(3 -8.17051e-17 0)
(3 -1.27007e-16 0)
(3 -2.63131e-16 0)
(3 1.94888e-16 0)
(3 1.10547e-15 0)
(3 1.00561e-15 0)
(3 6.7634e-16 0)
(3 -6.31755e-16 0)
(3 -1.89286e-16 0)
(3 1.22624e-15 0)
(3 2.00081e-15 0)
(3 2.32342e-15 0)
(3 2.72262e-15 0)
(3 2.23061e-15 0)
(3 2.51363e-07 0)
(3.0272 0.0971941 0)
(1.32626 1.0101 0)
(0.858255 1.09651 0)
(0.832591 1.09207 0)
(0.825065 1.11772 0)
(0.859879 1.1452 0)
(0.929517 1.1942 0)
(1.07946 1.2712 0)
(1.39149 1.34147 0)
(3 1.07699e-16 0)
(3 -1.8199e-16 0)
(3 -9.30836e-16 0)
(3 -1.3542e-15 0)
(3 -1.25117e-15 0)
(3 3.19868e-16 0)
(3 1.1848e-15 0)
(3 1.35167e-15 0)
(3 2.26388e-16 0)
(3 -5.68913e-17 0)
(3 4.30735e-17 0)
(3 -8.43688e-16 0)
(3 -7.59115e-16 0)
(3 -5.0359e-16 0)
(3 -2.85266e-17 0)
(3 4.9134e-16 0)
(3 8.37199e-16 0)
(3 8.91541e-16 0)
(3 7.63699e-16 0)
(3 8.99436e-17 0)
(3 -3.9123e-16 0)
(3 -9.51771e-16 0)
(3 -7.46469e-16 0)
(3 -8.46906e-16 0)
(3 -9.43247e-16 0)
(3 -9.72813e-16 0)
(3 -8.17573e-16 0)
(3 -3.04558e-16 0)
(3 6.61163e-16 0)
(3 9.20524e-16 0)
(3 4.04677e-16 0)
(3 -4.12672e-16 0)
(3 6.97211e-16 0)
(3 1.76807e-15 0)
(3 2.3223e-15 0)
(3 2.63147e-15 0)
(3 2.252e-15 0)
(3 1.65412e-15 0)
(3 5.58017e-12 0)
(3.00188 0.00128601 0)
(2.4261 0.623832 0)
(1.08091 1.10814 0)
(0.897886 1.15233 0)
(0.934619 1.14771 0)
(0.959181 1.17102 0)
(1.04312 1.20594 0)
(1.19264 1.25413 0)
(1.45067 1.28603 0)
(3 1.91406e-18 0)
(3 7.59174e-16 0)
(3 7.70739e-16 0)
(3 1.64466e-16 0)
(3 -1.66542e-16 0)
(3 3.20373e-16 0)
(3 1.09599e-15 0)
(3 1.38841e-15 0)
(3 2.25951e-16 0)
(3 -6.02001e-16 0)
(3 -3.47498e-16 0)
(3 -4.09747e-18 0)
(3 -1.12773e-15 0)
(3 -1.40684e-15 0)
(3 -1.29669e-15 0)
(3 -5.71804e-16 0)
(3 -7.62998e-17 0)
(3 3.83811e-16 0)
(3 1.06324e-15 0)
(3 5.8227e-16 0)
(3 1.14966e-16 0)
(3 1.42588e-16 0)
(3 3.54111e-16 0)
(3 -2.91868e-16 0)
(3 -8.3609e-16 0)
(3 1.54379e-16 0)
(3 7.20277e-16 0)
(3 6.84533e-16 0)
(3 1.9062e-16 0)
(3 -1.13782e-15 0)
(3 -1.44223e-15 0)
(3 6.24498e-17 0)
(3 3.21057e-16 0)
(3 8.08302e-16 0)
(3 7.55375e-16 0)
(3 6.81009e-16 0)
(3 7.42292e-16 0)
(3 6.88631e-16 0)
(3 1.07356e-16 0)
(3 1.24049e-06 0)
(3.02671 0.0634753 0)
(1.67221 1.01204 0)
(1.05614 1.18668 0)
(1.02568 1.19077 0)
(1.06909 1.20422 0)
(1.14113 1.22353 0)
(1.27523 1.23977 0)
(1.48624 1.24187 0)
(3 1.53704e-17 0)
(3 1.85799e-17 0)
(3 4.16482e-16 0)
(3 3.71301e-16 0)
(3 2.58432e-16 0)
(3 3.41801e-16 0)
(3 4.41382e-16 0)
(3 5.90787e-16 0)
(3 2.95737e-16 0)
(3 -4.73672e-16 0)
(3 -3.02249e-16 0)
(3 -2.7085e-16 0)
(3 -6.82094e-16 0)
(3 -1.78527e-15 0)
(3 -1.56913e-15 0)
(3 -1.04479e-15 0)
(3 -9.33725e-16 0)
(3 -4.84e-16 0)
(3 -2.57226e-16 0)
(3 1.10196e-16 0)
(3 3.17968e-16 0)
(3 2.53972e-16 0)
(3 -9.69217e-16 0)
(3 -1.63925e-15 0)
(3 -1.68096e-15 0)
(3 -2.70081e-16 0)
(3 1.42457e-15 0)
(3 1.78562e-15 0)
(3 4.92863e-16 0)
(3 -1.10409e-15 0)
(3 -1.65859e-15 0)
(3 -1.04568e-15 0)
(3 -4.20815e-16 0)
(3 -2.67631e-16 0)
(3 -3.63361e-16 0)
(3 -3.9428e-16 0)
(3 -6.18421e-16 0)
(3 -2.55366e-16 0)
(3 -1.54954e-15 0)
(3 3.76459e-11 0)
(3.00071 0.000675405 0)
(2.86106 0.361796 0)
(1.37655 1.15578 0)
(1.11524 1.24567 0)
(1.16805 1.22995 0)
(1.24562 1.22939 0)
(1.35009 1.23989 0)
(1.50874 1.23023 0)
(3 4.6376e-17 0)
(3 -8.99216e-16 0)
(3 -7.73754e-16 0)
(3 1.26048e-16 0)
(3 5.01117e-16 0)
(3 7.57021e-16 0)
(3 -1.30357e-16 0)
(3 -8.05322e-16 0)
(3 1.0838e-16 0)
(3 3.77708e-16 0)
(3 1.28335e-16 0)
(3 -4.33041e-16 0)
(3 -4.94727e-16 0)
(3 -1.07504e-15 0)
(3 -1.53049e-15 0)
(3 -1.64818e-15 0)
(3 -3.06265e-16 0)
(3 -3.3756e-16 0)
(3 -1.26327e-16 0)
(3 9.78698e-17 0)
(3 -6.8123e-19 0)
(3 -1.43968e-16 0)
(3 -3.32915e-18 0)
(3 -1.06913e-15 0)
(3 -1.24885e-15 0)
(3 -1.28685e-15 0)
(3 -1.26983e-15 0)
(3 -7.61078e-16 0)
(3 -5.57881e-16 0)
(3 -5.4891e-16 0)
(3 -7.77146e-16 0)
(3 -8.28719e-16 0)
(3 -5.06348e-16 0)
(3 -7.84879e-16 0)
(3 -9.6989e-16 0)
(3 -1.46387e-15 0)
(3 -1.9232e-15 0)
(3 -1.90275e-15 0)
(3 -3.60113e-15 0)
(3 -3.05542e-15 0)
(3 3.57566e-07 0)
(3.01017 0.015698 0)
(2.39188 0.748158 0)
(1.32338 1.21748 0)
(1.2332 1.28132 0)
(1.32351 1.25766 0)
(1.43352 1.23309 0)
(1.54995 1.21976 0)
(3 -1.02023e-16 0)
(3 1.28227e-16 0)
(3 1.31256e-16 0)
(3 2.8047e-16 0)
(3 4.28212e-16 0)
(3 2.87291e-17 0)
(3 -4.10581e-17 0)
(3 -1.55019e-16 0)
(3 -8.27952e-16 0)
(3 -2.30965e-16 0)
(3 -3.30696e-16 0)
(3 -3.85807e-16 0)
(3 3.00302e-16 0)
(3 7.44574e-18 0)
(3 -8.78015e-16 0)
(3 -1.19904e-15 0)
(3 -7.27418e-16 0)
(3 3.81555e-17 0)
(3 7.05274e-16 0)
(3 1.27662e-15 0)
(3 1.35692e-15 0)
(3 1.76421e-15 0)
(3 1.53636e-15 0)
(3 1.23542e-15 0)
(3 5.84291e-16 0)
(3 -6.43549e-17 0)
(3 -1.29115e-15 0)
(3 -1.92008e-15 0)
(3 -1.52898e-15 0)
(3 -5.72863e-16 0)
(3 7.39808e-16 0)
(3 -4.13876e-16 0)
(3 -8.8902e-16 0)
(3 -1.26218e-15 0)
(3 -1.83057e-15 0)
(3 -2.38771e-15 0)
(3 -3.18046e-15 0)
(3 -3.20045e-15 0)
(3 -3.18125e-15 0)
(3 -4.14477e-15 0)
(3 9.51042e-12 0)
(3.00004 7.14304e-05 0)
(3.0068 0.0877388 0)
(2.03921 0.972571 0)
(1.38217 1.26046 0)
(1.37083 1.28578 0)
(1.47518 1.26874 0)
(1.59974 1.22575 0)
(3 -1.50838e-16 0)
(3 1.24353e-16 0)
(3 -4.13478e-16 0)
(3 -1.11385e-15 0)
(3 -1.2287e-15 0)
(3 -1.01728e-15 0)
(3 -8.61135e-16 0)
(3 -8.28593e-16 0)
(3 -6.7207e-16 0)
(3 -7.43817e-16 0)
(3 -1.06782e-15 0)
(3 -5.19548e-16 0)
(3 2.63999e-16 0)
(3 3.58458e-16 0)
(3 -7.90998e-17 0)
(3 -3.33295e-16 0)
(3 -3.27142e-16 0)
(3 7.73121e-16 0)
(3 1.79883e-15 0)
(3 2.94067e-15 0)
(3 3.67877e-15 0)
(3 3.69469e-15 0)
(3 3.1787e-15 0)
(3 2.76784e-15 0)
(3 1.35623e-15 0)
(3 2.64185e-16 0)
(3 -8.62795e-16 0)
(3 -7.99301e-16 0)
(3 -1.21763e-15 0)
(3 -6.26012e-16 0)
(3 -3.4908e-16 0)
(3 -1.03492e-15 0)
(3 -2.26949e-15 0)
(3 -2.36386e-15 0)
(3 -2.45654e-15 0)
(3 -2.34737e-15 0)
(3 -1.51783e-15 0)
(3 -2.46309e-16 0)
(3 4.87372e-16 0)
(3 -6.95584e-17 0)
(3 -7.54105e-16 0)
(3 1.47555e-08 0)
(3.00054 0.00126091 0)
(2.93082 0.224346 0)
(1.89612 1.08147 0)
(1.48319 1.28082 0)
(1.50863 1.28641 0)
(1.62306 1.25763 0)
(3 -2.08781e-17 0)
(3 -1.93977e-16 0)
(3 -3.88914e-16 0)
(3 -5.6857e-16 0)
(3 -9.84307e-16 0)
(3 -6.63653e-16 0)
(3 -4.95102e-16 0)
(3 -5.63067e-16 0)
(3 -3.08814e-16 0)
(3 -1.36874e-16 0)
(3 -2.37868e-16 0)
(3 4.66551e-17 0)
(3 -3.89147e-17 0)
(3 1.03474e-15 0)
(3 1.35399e-15 0)
(3 4.6109e-16 0)
(3 5.79776e-16 0)
(3 1.19008e-15 0)
(3 1.5952e-15 0)
(3 2.24231e-15 0)
(3 2.77583e-15 0)
(3 2.39943e-15 0)
(3 2.33426e-15 0)
(3 2.29367e-15 0)
(3 1.77766e-15 0)
(3 1.27576e-15 0)
(3 8.43841e-16 0)
(3 8.0951e-16 0)
(3 -2.98753e-16 0)
(3 -1.12416e-15 0)
(3 -2.1377e-15 0)
(3 -2.67089e-15 0)
(3 -2.74678e-15 0)
(3 -2.67874e-15 0)
(3 -1.56807e-15 0)
(3 -2.78781e-16 0)
(3 7.39545e-16 0)
(3 7.17376e-16 0)
(3 7.68091e-16 0)
(3 6.31917e-16 0)
(3 1.62372e-16 0)
(3 4.27744e-13 0)
(3 1.04295e-06 0)
(3.00141 0.00677956 0)
(2.82125 0.355764 0)
(1.87914 1.11998 0)
(1.61106 1.28212 0)
(1.65106 1.28681 0)
(3 1.46685e-16 0)
(3 1.87172e-16 0)
(3 7.39965e-16 0)
(3 1.05635e-15 0)
(3 8.54526e-16 0)
(3 5.91223e-16 0)
(3 6.62691e-16 0)
(3 9.33647e-16 0)
(3 5.74429e-16 0)
(3 7.68559e-16 0)
(3 6.19031e-16 0)
(3 4.12648e-16 0)
(3 5.90247e-16 0)
(3 8.46255e-16 0)
(3 1.50993e-15 0)
(3 1.42677e-15 0)
(3 1.00683e-15 0)
(3 8.98468e-17 0)
(3 -6.23706e-16 0)
(3 2.29199e-17 0)
(3 2.98068e-16 0)
(3 5.21104e-16 0)
(3 8.19243e-16 0)
(3 8.75335e-16 0)
(3 8.32928e-16 0)
(3 7.37368e-16 0)
(3 8.24226e-16 0)
(3 6.53383e-16 0)
(3 4.8081e-17 0)
(3 -1.29572e-15 0)
(3 -2.53914e-15 0)
(3 -2.57742e-15 0)
(3 -1.48205e-15 0)
(3 -9.75398e-16 0)
(3 3.96126e-16 0)
(3 1.12148e-15 0)
(3 8.7091e-16 0)
(3 -1.00623e-16 0)
(3 -3.70855e-16 0)
(3 -8.52335e-16 0)
(3 -7.52167e-16 0)
(3 4.78917e-16 0)
(3 5.20236e-11 0)
(3 1.44526e-05 0)
(3.00004 0.0169271 0)
(2.74351 0.435362 0)
(1.94744 1.11098 0)
(1.75258 1.28016 0)
(3 9.21541e-17 0)
(3 2.51939e-16 0)
(3 1.72436e-16 0)
(3 4.41066e-16 0)
(3 1.33421e-15 0)
(3 1.62771e-15 0)
(3 9.28415e-16 0)
(3 1.91887e-16 0)
(3 -6.74964e-17 0)
(3 -4.51226e-16 0)
(3 -5.9125e-16 0)
(3 -1.07098e-15 0)
(3 -6.86268e-16 0)
(3 -1.08267e-15 0)
(3 2.43804e-16 0)
(3 1.38806e-15 0)
(3 7.08123e-16 0)
(3 -8.23166e-16 0)
(3 -1.5217e-15 0)
(3 -1.41833e-15 0)
(3 -1.00164e-15 0)
(3 3.09809e-16 0)
(3 9.02973e-16 0)
(3 8.22523e-16 0)
(3 1.04911e-15 0)
(3 8.77961e-16 0)
(3 1.25933e-16 0)
(3 -1.26934e-16 0)
(3 -3.69358e-17 0)
(3 -5.08528e-16 0)
(3 -1.48426e-15 0)
(3 -1.20931e-15 0)
(3 -3.291e-16 0)
(3 8.09329e-16 0)
(3 3.14829e-16 0)
(3 -6.59914e-16 0)
(3 -1.4148e-15 0)
(3 -9.87914e-16 0)
(3 -1.11737e-15 0)
(3 -9.2459e-16 0)
(3 -1.41418e-15 0)
(3 -5.52174e-16 0)
(3 3.73587e-15 0)
(3 1.95963e-09 0)
(3.00001 6.68767e-05 0)
(2.99733 0.0255941 0)
(2.6952 0.457742 0)
(2.13999 1.04696 0)
(3 -1.64128e-17 0)
(3 4.09605e-17 0)
(3 -2.07569e-17 0)
(3 1.09688e-16 0)
(3 4.99955e-16 0)
(3 7.28766e-16 0)
(3 8.69014e-16 0)
(3 4.96461e-16 0)
(3 -5.35252e-16 0)
(3 -8.12683e-16 0)
(3 -1.00127e-15 0)
(3 -1.12014e-15 0)
(3 -1.29137e-15 0)
(3 -1.41876e-15 0)
(3 -1.04132e-15 0)
(3 -6.01034e-16 0)
(3 -7.52626e-16 0)
(3 -8.60877e-16 0)
(3 -8.2378e-16 0)
(3 -9.95803e-16 0)
(3 -8.98562e-16 0)
(3 3.9564e-16 0)
(3 4.51034e-16 0)
(3 8.71857e-16 0)
(3 1.85224e-15 0)
(3 1.86313e-15 0)
(3 1.57401e-15 0)
(3 1.80626e-16 0)
(3 -1.04395e-16 0)
(3 -3.68447e-16 0)
(3 -9.87666e-16 0)
(3 -1.28838e-15 0)
(3 -1.2427e-15 0)
(3 -1.24164e-15 0)
(3 -1.35473e-15 0)
(3 -2.0825e-15 0)
(3 -2.35181e-15 0)
(3 -2.3286e-15 0)
(3 -2.43849e-15 0)
(3 -1.60976e-15 0)
(3 -5.33648e-16 0)
(3 5.10509e-16 0)
(3 9.70263e-16 0)
(3 6.09934e-14 0)
(3 1.78616e-08 0)
(3.00001 0.000136248 0)
(2.99102 0.0295958 0)
(2.8114 0.376643 0)
(3 6.00032e-18 0)
(3 1.81159e-16 0)
(3 6.61304e-16 0)
(3 6.58403e-16 0)
(3 -2.2243e-16 0)
(3 -8.06309e-16 0)
(3 -5.11946e-16 0)
(3 -6.01053e-16 0)
(3 -2.96134e-16 0)
(3 3.8632e-17 0)
(3 4.79537e-16 0)
(3 9.98892e-16 0)
(3 7.05019e-16 0)
(3 1.3904e-16 0)
(3 -1.49389e-16 0)
(3 -9.17842e-16 0)
(3 -8.24203e-16 0)
(3 -1.56856e-17 0)
(3 2e-16 0)
(3 6.12368e-17 0)
(3 -7.27819e-17 0)
(3 -3.9484e-16 0)
(3 -2.20424e-16 0)
(3 -4.31832e-18 0)
(3 -2.0032e-16 0)
(3 2.77382e-16 0)
(3 1.01744e-15 0)
(3 8.70662e-16 0)
(3 6.93219e-16 0)
(3 1.13888e-15 0)
(3 3.39857e-16 0)
(3 -8.47515e-16 0)
(3 -2.09298e-15 0)
(3 -3.30415e-15 0)
(3 -3.60658e-15 0)
(3 -3.73392e-15 0)
(3 -2.02373e-15 0)
(3 -2.21006e-15 0)
(3 -2.33166e-15 0)
(3 -1.84477e-15 0)
(3 -5.76069e-16 0)
(3 -3.65794e-16 0)
(3 3.4357e-16 0)
(3 -6.52686e-16 0)
(3 6.02483e-13 0)
(3 5.20336e-08 0)
(2.99998 0.000169363 0)
(2.99669 0.0199852 0)
(3 -2.49307e-17 0)
(3 4.33405e-16 0)
(3 4.05834e-16 0)
(3 4.06788e-16 0)
(3 -4.33486e-17 0)
(3 -1.22286e-15 0)
(3 -1.68703e-15 0)
(3 -1.5002e-15 0)
(3 -7.0377e-16 0)
(3 -6.24433e-16 0)
(3 1.53534e-16 0)
(3 7.75243e-16 0)
(3 9.74475e-16 0)
(3 1.4641e-15 0)
(3 1.19158e-15 0)
(3 1.94228e-16 0)
(3 -9.02062e-17 0)
(3 -2.58302e-17 0)
(3 9.19261e-17 0)
(3 7.9793e-16 0)
(3 1.34848e-15 0)
(3 9.72915e-16 0)
(3 5.49737e-16 0)
(3 1.42699e-16 0)
(3 1.94559e-16 0)
(3 4.7407e-16 0)
(3 1.17636e-15 0)
(3 1.52866e-15 0)
(3 1.2801e-15 0)
(3 8.54043e-16 0)
(3 2.88598e-16 0)
(3 -9.7269e-16 0)
(3 -1.69436e-15 0)
(3 -2.26626e-15 0)
(3 -3.25315e-15 0)
(3 -3.28168e-15 0)
(3 -1.8637e-15 0)
(3 -1.19987e-15 0)
(3 -4.9118e-16 0)
(3 -4.92522e-16 0)
(3 -1.5498e-17 0)
(3 -1.44358e-16 0)
(3 3.09418e-16 0)
(3 4.31249e-16 0)
(3 9.98492e-18 0)
(3 1.88578e-12 0)
(3 7.39822e-08 0)
(2.99999 9.00289e-05 0)