/*--------------------------------*- C++ -*----------------------------------*\
  =========                 |
  \\      /  F ield         | OpenFOAM: The Open Source CFD Toolbox
   \\    /   O peration     | Website:  https://openfoam.org
    \\  /    A nd           | Version:  7
     \\/     M anipulation  |
\*---------------------------------------------------------------------------*/
FoamFile
{
    version     2.0;
    format      ascii;
    class       volScalarField;
    location    "1.2";
    object      p;
}
// * * * * * * * * * * * * * * * * * * * * * * * * * * * * * * * * * * * * * //

dimensions      [1 -1 -2 0 0 0 0];

internalField   nonuniform List<scalar> 
64512
(
1
1
1
1
1
1
1
1
1
1
1
1
1
1
1
1
1
1
1
1
1
1
1
1
1
1
1
1
1
1
1
1
1
1
1
1
1
1
1
1
1
1
1
1
1
1
1
1
1
1
1
1
1.59984
8.24263
10.6434
10.7086
10.7666
10.8125
10.851
10.8895
10.9401
11.0119
11.0958
11.1787
11.2515
11.3099
11.3586
11.4041
11.447
11.4912
11.5361
11.5842
11.6317
11.6796
11.7229
11.7624
11.8016
11.8433
11.885
11.9231
11.9545
11.9788
11.997
12.0124
12.0245
12.0325
12.0403
12.046
12.0515
12.0607
12.0765
12.0993
12.1282
12.1575
12.1808
12.1924
1
1
1
1
1
1
1
1
1
1
1
1
1
1
1
1
1
1
1
1
1
1
1
1
1
1
1
1
1
1
1
1
1
1
1
1
1
1
1
1
1
1
1
1
1
1
1
1
1
1
1
1
1.58285
8.19874
10.6299
10.7039
10.7669
10.8102
10.8473
10.889
10.9443
11.0171
11.0996
11.1799
11.25
11.307
11.3552
11.4005
11.4437
11.4882
11.5332
11.5804
11.628
11.6769
11.7221
11.7631
11.8018
11.8413
11.8808
11.9185
11.9514
11.978
11.9968
12.0103
12.0184
12.0236
12.0314
12.0405
12.051
12.0643
12.0806
12.1002
12.1246
12.1511
12.1737
12.1877
1
1
1
1
1
1
1
1
1
1
1
1
1
1
1
1
1
1
1
1
1
1
1
1
1
1
1
1
1
1
1
1
1
1
1
1
1
1
1
1
1
1
1
1
1
1
1
1
1
1
1
1
1.54447
8.11033
10.6202
10.6951
10.7637
10.8057
10.8444
10.891
10.9504
11.0231
11.1024
11.1789
11.2462
11.302
11.35
11.3946
11.4376
11.4825
11.5274
11.5735
11.621
11.6718
11.7198
11.7629
11.8009
11.8377
11.8747
11.9122
11.9478
11.9777
11.9977
12.0087
12.0106
12.0101
12.0163
12.0294
12.0477
12.0679
12.0865
12.1033
12.1225
12.1436
12.1621
12.1765
1
1
1
1
1
1
1
1
1
1
1
1
1
1
1
1
1
1
1
1
1
1
1
1
1
1
1
1
1
1
1
1
1
1
1
1
1
1
1
1
1
1
1
1
1
1
1
1
1
1
1
1
1.48616
7.96604
10.6174
10.6878
10.7551
10.7973
10.8433
10.899
10.9618
11.0311
11.1041
11.175
11.239
11.2946
11.343
11.3872
11.4299
11.4753
11.5201
11.5648
11.6118
11.6642
11.715
11.7601
11.7977
11.8318
11.8664
11.9039
11.9425
11.9761
11.9978
12.0068
12.0025
11.9947
11.9979
12.0139
12.0398
12.0684
12.0903
12.1056
12.1196
12.1346
12.1477
12.1612
1
1
1
1
1
1
1
1
1
1
1
1
1
1
1
1
1
1
1
1
1
1
1
1
1
1
1
1
1
1
1
1
1
1
1
1
1
1
1
1
1
1
1
1
1
1
1
1
1
1
1
1
1.40139
7.75864
10.6397
10.6823
10.7449
10.7926
10.8501
10.9127
10.975
11.0381
11.1029
11.1672
11.2287
11.2849
11.3346
11.3787
11.4214
11.4674
11.5122
11.5553
11.6014
11.6546
11.7076
11.7542
11.7914
11.8235
11.8561
11.8937
11.9351
11.9724
11.9964
12.0044
11.9953
11.9812
11.9797
11.9956
12.027
12.0625
12.0885
12.1048
12.1159
12.1253
12.1325
12.1434
1
1
1
1
1
1
1
1
1
1
1
1
1
1
1
1
1
1
1
1
1
1
1
1
1
1
1
1
1
1
1
1
1
1
1
1
1
1
1
1
1
1
1
1
1
1
1
1
1
1
1
1
1.2779
7.45109
10.6735
10.6806
10.7399
10.8001
10.8659
10.9294
10.9866
11.041
11.0972
11.1565
11.2168
11.2738
11.3253
11.3696
11.4126
11.4589
11.5039
11.5449
11.5894
11.6428
11.6975
11.7453
11.7824
11.8131
11.8444
11.8816
11.9249
11.9651
11.9915
12
11.9889
11.9709
11.9648
11.9778
12.01
12.0484
12.0785
12.0981
12.1099
12.1162
12.1183
12.125
1
1
1
1
1
1
1
1
1
1
1
1
1
1
1
1
1
1
1
1
1
1
1
1
1
1
1
1
1
1
1
1
1
1
1
1
1
1
1
1
1
1
1
1
1
1
1
1
1
1
1
1
1.12615
7.07311
10.7046
10.698
10.7466
10.8137
10.8813
10.9407
10.9912
11.0379
11.0885
11.1453
11.2046
11.2617
11.3142
11.3586
11.4023
11.4492
11.4947
11.5337
11.5764
11.6297
11.6855
11.7344
11.7719
11.8017
11.8316
11.8677
11.911
11.9528
11.981
11.9913
11.9814
11.9627
11.9537
11.9626
11.9906
12.0275
12.0599
12.0844
12.1
12.1065
12.1056
12.1075
1
1
1
1
1
1
1
1
1
1
1
1
1
1
1
1
1
1
1
1
1
1
1
1
1
1
1
1
1
1
1
1
1
1
1
1
1
1
1
1
1
1
1
1
1
1
1
1
1
1
1
1
1.00493
6.71978
10.6937
10.7084
10.7581
10.827
10.8898
10.9422
10.9871
11.0297
11.078
11.1342
11.1925
11.249
11.3013
11.3458
11.3903
11.4384
11.4846
11.5216
11.5622
11.6145
11.6709
11.721
11.7596
11.7893
11.8182
11.8525
11.8942
11.9358
11.9646
11.9773
11.9709
11.9545
11.9454
11.9505
11.9714
12.0029
12.0344
12.0631
12.0843
12.094
12.0933
12.0916
1
1
1
1
1
1
1
1
1
1
1
1
1
1
1
1
1
1
1
1
1
1
1
1
1
1
1
1
1
1
1
1
1
1
1
1
1
1
1
1
1
1
1
1
1
1
1
1
1
1
1
1
1.00002
6.31587
10.6572
10.7145
10.7673
10.8313
10.887
10.934
10.9759
11.0177
11.066
11.123
11.1804
11.2361
11.2868
11.3309
11.3763
11.4254
11.4729
11.5081
11.5465
11.5974
11.6535
11.7046
11.7452
11.7759
11.8043
11.8362
11.8752
11.9152
11.943
11.9573
11.9554
11.9433
11.9367
11.9396
11.9538
11.9774
12.0051
12.0353
12.0617
12.0767
12.0799
12.0774
1
1
1
1
1
1
1
1
1
1
1
1
1
1
1
1
1
1
1
1
1
1
1
1
1
1
1
1
1
1
1
1
1
1
1
1
1
1
1
1
1
1
1
1
1
1
1
1
1
1
1
1
1
5.88064
10.606
10.7095
10.7646
10.823
10.874
10.9194
10.9602
11.0025
11.0523
11.1098
11.1669
11.2225
11.2702
11.3141
11.3602
11.4096
11.4592
11.4934
11.5295
11.5785
11.6331
11.6843
11.7269
11.7594
11.788
11.8182
11.8543
11.8924
11.9184
11.9333
11.9348
11.9275
11.9246
11.9275
11.937
11.9535
11.9761
12.004
12.0324
12.0532
12.0629
12.0633
1
1
1
1
1
1
1
1
1
1
1
1
1
1
1
1
1
1
1
1
1
1
1
1
1
1
1
1
1
1
1
1
1
1
1
1
1
1
1
1
1
1
1
1
1
1
1
1
1
1
1
1
1
5.40992
10.5322
10.6914
10.7497
10.8063
10.8568
10.9027
10.9432
10.9856
11.0363
11.0929
11.1511
11.2066
11.2522
11.2955
11.343
11.3914
11.4415
11.4765
11.5107
11.5577
11.6096
11.66
11.7039
11.738
11.7676
11.7975
11.8317
11.8682
11.8934
11.9078
11.9108
11.9069
11.9066
11.9104
11.9184
11.9314
11.9492
11.9722
11.9992
12.0237
12.0409
12.0468
1
1
1
1
1
1
1
1
1
1
1
1
1
1
1
1
1
1
1
1
1
1
1
1
1
1
1
1
1
1
1
1
1
1
1
1
1
1
1
1
1
1
1
1
1
1
1
1
1
1
1
1
1
4.90926
10.4306
10.6653
10.7276
10.7861
10.8387
10.886
10.9264
10.9692
11.0191
11.0732
11.1323
11.1867
11.2327
11.2766
11.3254
11.3727
11.4194
11.4571
11.4902
11.5354
11.5837
11.6323
11.6765
11.7115
11.742
11.7723
11.8054
11.8414
11.8679
11.8824
11.8856
11.8821
11.8813
11.886
11.8955
11.9088
11.9239
11.9415
11.9649
11.9909
12.0138
12.0263
1
1
1
1
1
1
1
1
1
1
1
1
1
1
1
1
1
1
1
1
1
1
1
1
1
1
1
1
1
1
1
1
1
1
1
1
1
1
1
1
1
1
1
1
1
1
1
1
1
1
1
1
1
4.38982
10.2941
10.6386
10.7033
10.7648
10.8197
10.8682
10.9092
10.9529
11.0004
11.0522
11.1088
11.1621
11.2102
11.2569
11.3054
11.3534
11.3958
11.4349
11.4683
11.5118
11.5563
11.603
11.6464
11.682
11.7123
11.7421
11.7746
11.811
11.8404
11.8569
11.8604
11.8546
11.8501
11.854
11.866
11.8826
11.898
11.912
11.9313
11.9563
11.9813
11.9991
1
1
1
1
1
1
1
1
1
1
1
1
1
1
1
1
1
1
1
1
1
1
1
1
1
1
1
1
1
1
1
1
1
1
1
1
1
1
1
1
1
1
1
1
1
1
1
1
1
1
1
1
1
3.86837
10.1093
10.6113
10.6762
10.7403
10.7965
10.846
10.8897
10.9356
10.9802
11.0316
11.0822
11.1362
11.185
11.2341
11.2838
11.334
11.3735
11.4126
11.4467
11.4875
11.5279
11.5721
11.614
11.65
11.6799
11.7084
11.7397
11.7766
11.8093
11.8289
11.8338
11.8251
11.8155
11.8165
11.83
11.8507
11.8691
11.8825
11.8986
11.9208
11.9443
11.9643
1
1
1
1
1
1
1
1
1
1
1
1
1
1
1
1
1
1
1
1
1
1
1
1
1
1
1
1
1
1
1
1
1
1
1
1
1
1
1
1
1
1
1
1
1
1
1
1
1
1
1
1
1
3.36449
9.85473
10.5903
10.6528
10.7205
10.7752
10.8236
10.8691
10.9151
10.9592
11.0099
11.0588
11.11
11.1584
11.2074
11.2581
11.3106
11.351
11.3886
11.4245
11.4637
11.5006
11.5416
11.5812
11.6171
11.6469
11.6742
11.7033
11.7393
11.7736
11.7962
11.8034
11.7934
11.7785
11.7753
11.7881
11.812
11.8347
11.8504
11.8653
11.8843
11.9039
11.9235
1
1
1
1
1
1
1
1
1
1
1
1
1
1
1
1
1
1
1
1
1
1
1
1
1
1
1
1
1
1
1
1
1
1
1
1
1
1
1
1
1
1
1
1
1
1
1
1
1
1
1
1
1
2.86102
9.51913
10.5722
10.631
10.7032
10.7578
10.8038
10.8462
10.8898
10.9363
10.9889
11.0387
11.0875
11.135
11.1815
11.2308
11.283
11.3267
11.3637
11.4013
11.439
11.4729
11.5103
11.5468
11.5818
11.6123
11.6397
11.6677
11.702
11.7349
11.7583
11.7671
11.7573
11.7392
11.7322
11.7427
11.7677
11.7943
11.8134
11.8288
11.8451
11.8601
11.877
1
1
1
1
1
1
1
1
1
1
1
1
1
1
1
1
1
1
1
1
1
1
1
1
1
1
1
1
1
1
1
1
1
1
1
1
1
1
1
1
1
1
1
1
1
1
1
1
1
1
1
1
1
2.34376
9.09292
10.5809
10.6061
10.6867
10.7416
10.7837
10.8209
10.8613
10.9113
10.9658
11.0196
11.0702
11.1166
11.1596
11.2033
11.2502
11.2949
11.3337
11.373
11.4114
11.4446
11.4791
11.5119
11.5445
11.5753
11.6033
11.6321
11.6655
11.6952
11.7163
11.7248
11.7157
11.6969
11.6876
11.6955
11.7194
11.7479
11.7699
11.7866
11.8014
11.8127
11.8263
1
1
1
1
1
1
1
1
1
1
1
1
1
1
1
1
1
1
1
1
1
1
1
1
1
1
1
1
1
1
1
1
1
1
1
1
1
1
1
1
1
1
1
1
1
1
1
1
1
1
1
1
1
1.85672
8.58232
10.6008
10.5784
10.6658
10.7243
10.7665
10.8003
10.8355
10.8805
10.9358
10.9951
11.0493
11.0962
11.1367
11.1761
11.2172
11.2609
11.3026
11.3433
11.3815
11.4134
11.4449
11.4741
11.5036
11.534
11.5631
11.5946
11.6282
11.6548
11.6721
11.6782
11.669
11.6511
11.6413
11.6467
11.6681
11.6957
11.7188
11.7367
11.7512
11.7606
11.7711
1
1
1
1
1
1
1
1
1
1
1
1
1
1
1
1
1
1
1
1
1
1
1
1
1
1
1
1
1
1
1
1
1
1
1
1
1
1
1
1
1
1
1
1
1
1
1
1
1
1
1
1
1
1.453
7.91757
10.6058
10.5644
10.6318
10.6846
10.7299
10.7727
10.8095
10.8514
10.9043
10.9651
11.0225
11.0729
11.1133
11.1484
11.1834
11.2235
11.265
11.3062
11.3451
11.3765
11.4069
11.4343
11.4605
11.489
11.518
11.5522
11.5872
11.6119
11.6258
11.6287
11.6178
11.6009
11.5913
11.5948
11.6128
11.6379
11.6603
11.6791
11.6942
11.7036
11.7123
1
1
1
1
1
1
1
1
1
1
1
1
1
1
1
1
1
1
1
1
1
1
1
1
1
1
1
1
1
1
1
1
1
1
1
1
1
1
1
1
1
1
1
1
1
1
1
1
1
1
1
1
1
1.12934
7.16317
10.5399
10.5378
10.5996
10.6605
10.711
10.7498
10.783
10.8215
10.8718
10.9308
10.9881
11.0385
11.0792
11.113
11.1454
11.1837
11.2243
11.2659
11.3048
11.336
11.365
11.3911
11.4146
11.44
11.468
11.5034
11.54
11.5643
11.5765
11.5763
11.563
11.5466
11.5372
11.5389
11.5533
11.5748
11.5952
11.6136
11.6291
11.6392
11.647
1
1
1
1
1
1
1
1
1
1
1
1
1
1
1
1
1
1
1
1
1
1
1
1
1
1
1
1
1
1
1
1
1
1
1
1
1
1
1
1
1
1
1
1
1
1
1
1
1
1
1
1
1
1.00387
6.25074
10.4236
10.5091
10.5675
10.6313
10.682
10.7211
10.7537
10.7891
10.8374
10.8959
10.9545
11.0049
11.045
11.0776
11.1078
11.1443
11.1821
11.2229
11.2611
11.2915
11.3192
11.3445
11.366
11.3879
11.4143
11.4487
11.4853
11.5099
11.5219
11.52
11.5045
11.4878
11.4774
11.4765
11.4868
11.5043
11.5225
11.5405
11.5565
11.5676
11.5752
1
1
1
1
1
1
1
1
1
1
1
1
1
1
1
1
1
1
1
1
1
1
1
1
1
1
1
1
1
1
1
1
1
1
1
1
1
1
1
1
1
1
1
1
1
1
1
1
1
1
1
1
1
1.00001
5.21421
10.2539
10.4913
10.5389
10.6069
10.6632
10.7021
10.7296
10.76
10.8033
10.8587
10.9164
10.9672
11.0081
11.0408
11.071
11.106
11.14
11.1785
11.215
11.2448
11.2715
11.2954
11.3148
11.3324
11.3562
11.3887
11.4238
11.4482
11.4607
11.4581
11.4418
11.4243
11.4116
11.4071
11.413
11.4265
11.4425
11.4597
11.4752
11.4861
11.4932
1
1
1
1
1
1
1
1
1
1
1
1
1
1
1
1
1
1
1
1
1
1
1
1
1
1
1
1
1
1
1
1
1
1
1
1
1
1
1
1
1
1
1
1
1
1
1
1
1
1
1
1
1
1
4.21745
9.97651
10.4671
10.5151
10.5786
10.63
10.6718
10.7016
10.7295
10.7679
10.8191
10.8755
10.928
10.9709
11.0046
11.0353
11.0688
11.0989
11.1342
11.1684
11.1972
11.2232
11.2456
11.2616
11.2751
11.2946
11.3238
11.3558
11.3791
11.3915
11.3894
11.3741
11.3552
11.3386
11.3285
11.3283
11.3376
11.3523
11.3695
11.3849
11.3954
11.4019
1
1
1
1
1
1
1
1
1
1
1
1
1
1
1
1
1
1
1
1
1
1
1
1
1
1
1
1
1
1
1
1
1
1
1
1
1
1
1
1
1
1
1
1
1
1
1
1
1
1
1
1
1
1
3.25872
9.53866
10.4442
10.5071
10.5727
10.618
10.6541
10.684
10.7097
10.7417
10.785
10.836
10.8862
10.9304
10.966
10.9971
11.0283
11.0551
11.0873
11.1196
11.1479
11.1737
11.1954
11.2082
11.2172
11.2309
11.2549
11.282
11.303
11.3149
11.3141
11.3011
11.2808
11.2591
11.2417
11.2343
11.2389
11.2522
11.2686
11.2825
11.2907
11.2953
1
1
1
1
1
1
1
1
1
1
1
1
1
1
1
1
1
1
1
1
1
1
1
1
1
1
1
1
1
1
1
1
1
1
1
1
1
1
1
1
1
1
1
1
1
1
1
1
1
1
1
1
1
1
2.33628
8.93208
10.491
10.4707
10.5238
10.5763
10.6236
10.6583
10.6837
10.7111
10.7475
10.7929
10.8394
10.882
10.9177
10.9491
10.979
11.0057
11.0374
11.0696
11.0992
11.1242
11.1432
11.1538
11.1572
11.1641
11.1814
11.2025
11.22
11.2311
11.2326
11.2221
11.2002
11.1721
11.1449
11.1275
11.1254
11.1365
11.1523
11.1655
11.172
11.1755
1
1
1
1
1
1
1
1
1
1
1
1
1
1
1
1
1
1
1
1
1
1
1
1
1
1
1
1
1
1
1
1
1
1
1
1
1
1
1
1
1
1
1
1
1
1
1
1
1
1
1
1
1
1
1.54234
8.14117
10.5812
10.4812
10.5154
10.5631
10.6105
10.6465
10.6702
10.6896
10.719
10.7605
10.8043
10.8441
10.8761
10.9037
10.9291
10.954
10.9843
11.0152
11.0444
11.0692
11.0855
11.0953
11.0955
11.0963
11.1062
11.1198
11.1314
11.14
11.1441
11.136
11.1126
11.0777
11.04
11.0115
11.0014
11.0084
11.0204
11.0287
11.03
11.0292
1
1
1
1
1
1
1
1
1
1
1
1
1
1
1
1
1
1
1
1
1
1
1
1
1
1
1
1
1
1
1
1
1
1
1
1
1
1
1
1
1
1
1
1
1
1
1
1
1
1
1
1
1
1
1.06842
7.19541
10.453
10.3927
10.464
10.5251
10.581
10.616
10.6356
10.6522
10.6781
10.7153
10.7554
10.7923
10.8223
10.8477
10.8705
10.8943
10.9224
10.9513
10.9802
11.0068
11.0233
11.034
11.0334
11.0286
11.0301
11.0346
11.0375
11.0421
11.047
11.0408
11.0165
10.9753
10.9259
10.883
10.8594
10.8564
10.8614
10.865
10.863
10.8614
1
1
1
1
1
1
1
1
1
1
1
1
1
1
1
1
1
1
1
1
1
1
1
1
1
1
1
1
1
1
1
1
1
1
1
1
1
1
1
1
1
1
1
1
1
1
1
1
1
1
1
1
1
1
1.00076
5.91678
10.1824
10.3392
10.4207
10.4827
10.5396
10.5776
10.6019
10.622
10.6452
10.6762
10.7104
10.7429
10.7703
10.7931
10.8137
10.8347
10.8588
10.8845
10.9112
10.9382
10.9561
10.9687
10.9687
10.9594
10.9531
10.9479
10.9398
10.9382
10.9401
10.9345
10.9094
10.8627
10.8021
10.7435
10.7042
10.6893
10.6825
10.6716
10.6549
10.6406
1
1
1
1
1
1
1
1
1
1
1
1
1
1
1
1
1
1
1
1
1
1
1
1
1
1
1
1
1
1
1
1
1
1
1
1
1
1
1
1
1
1
1
1
1
1
1
1
1
1
1
1
1
1
1
4.66999
9.92492
10.3117
10.3865
10.455
10.5063
10.5429
10.5716
10.5946
10.6161
10.6418
10.6705
10.6985
10.7225
10.7419
10.7597
10.7765
10.7959
10.8175
10.8405
10.8651
10.8831
10.8966
10.8983
10.8874
10.8753
10.8597
10.8401
10.8289
10.8236
10.8153
10.7885
10.7377
10.667
10.59
10.5276
10.4875
10.455
10.4235
10.3919
10.3783
1
1
1
1
1
1
1
1
1
1
1
1
1
1
1
1
1
1
1
1
1
1
1
1
1
1
1
1
1
1
1
1
1
1
1
1
1
1
1
1
1
1
1
1
1
1
1
1
1
1
1
1
1
1
1
3.40695
9.42182
10.2701
10.349
10.4131
10.4623
10.5059
10.5375
10.5599
10.5803
10.6039
10.6298
10.6551
10.6764
10.6921
10.706
10.7182
10.7331
10.7511
10.7702
10.7907
10.8059
10.8178
10.8199
10.8092
10.7936
10.7693
10.7392
10.7155
10.699
10.6836
10.6527
10.597
10.5154
10.4189
10.3311
10.2604
10.2015
10.1392
10.0633
9.99064
1
1
1
1
1
1
1
1
1
1
1
1
1
1
1
1
1
1
1
1
1
1
1
1
1
1
1
1
1
1
1
1
1
1
1
1
1
1
1
1
1
1
1
1
1
1
1
1
1
1
1
1
1
1
1
2.18787
8.67694
10.402
10.3572
10.3812
10.4247
10.4706
10.5023
10.5222
10.5396
10.5603
10.5851
10.6093
10.6294
10.6428
10.6527
10.6597
10.6698
10.6844
10.7008
10.7174
10.7278
10.735
10.7339
10.7223
10.7045
10.6749
10.6369
10.6001
10.5696
10.5418
10.5023
10.4387
10.3447
10.2294
10.1105
9.99442
9.87463
9.72653
9.57295
9.45575
1
1
1
1
1
1
1
1
1
1
1
1
1
1
1
1
1
1
1
1
1
1
1
1
1
1
1
1
1
1
1
1
1
1
1
1
1
1
1
1
1
1
1
1
1
1
1
1
1
1
1
1
1
1
1
1.26814
7.6713
10.4661
10.3645
10.361
10.3926
10.4323
10.4577
10.4725
10.4855
10.5033
10.5293
10.556
10.5784
10.5929
10.5996
10.6008
10.6044
10.6157
10.6307
10.6451
10.6512
10.6525
10.6447
10.6285
10.6076
10.5745
10.5302
10.4816
10.4363
10.3919
10.3392
10.2637
10.1548
10.0185
9.86034
9.68986
9.50242
9.27205
9.00505
8.83727
1
1
1
1
1
1
1
1
1
1
1
1
1
1
1
1
1
1
1
1
1
1
1
1
1
1
1
1
1
1
1
1
1
1
1
1
1
1
1
1
1
1
1
1
1
1
1
1
1
1
1
1
1
1
1
1.0082
6.34671
10.1467
10.205
10.2717
10.3244
10.3704
10.4
10.4172
10.4277
10.44
10.4635
10.4925
10.5198
10.5382
10.5456
10.5419
10.5385
10.5462
10.5594
10.5715
10.5741
10.5692
10.5532
10.5293
10.5025
10.4655
10.4162
10.3588
10.2996
10.2374
10.167
10.0744
9.94747
9.78695
9.58964
9.36072
9.07571
8.64563
7.77685
5.80146
1
1
1
1
1
1
1
1
1
1
1
1
1
1
1
1
1
1
1
1
1
1
1
1
1
1
1
1
1
1
1
1
1
1
1
1
1
1
1
1
1
1
1
1
1
1
1
1
1
1
1
1
1
1
1
1.00001
4.82237
9.81143
10.1853
10.2412
10.3009
10.3372
10.3606
10.3759
10.3818
10.3893
10.4071
10.4327
10.4592
10.4791
10.4871
10.4812
10.4717
10.4735
10.4832
10.4909
10.4898
10.4797
10.4572
10.4269
10.3942
10.3524
10.2973
10.2317
10.1591
10.08
9.9899
9.87702
9.72869
9.54071
9.30301
9.00184
8.58948
7.95877
6.91272
4.75695
1
1
1
1
1
1
1
1
1
1
1
1
1
1
1
1
1
1
1
1
1
1
1
1
1
1
1
1
1
1
1
1
1
1
1
1
1
1
1
1
1
1
1
1
1
1
1
1
1
1
1
1
1
1
1
1
3.31935
9.26074
10.1478
10.1929
10.2393
10.2861
10.3239
10.3431
10.3467
10.3485
10.3565
10.3751
10.3979
10.4175
10.4252
10.4196
10.4071
10.4036
10.4084
10.4097
10.4034
10.387
10.3589
10.3239
10.286
10.2391
10.1774
10.1023
10.0168
9.92124
9.81115
9.6768
9.50473
9.28837
9.0079
8.64954
8.14005
7.4668
6.19041
4.41058
1
1
1
1
1
1
1
1
1
1
1
1
1
1
1
1
1
1
1
1
1
1
1
1
1
1
1
1
1
1
1
1
1
1
1
1
1
1
1
1
1
1
1
1
1
1
1
1
1
1
1
1
1
1
1
1
1.95556
8.53793
10.2092
10.1429
10.1687
10.2303
10.2768
10.3004
10.3072
10.309
10.311
10.322
10.3376
10.3524
10.3573
10.3523
10.3412
10.335
10.334
10.3291
10.3164
10.2932
10.2607
10.2219
10.1793
10.1273
10.0588
9.97367
9.87517
9.76371
9.63386
9.47837
9.28259
9.04077
8.72704
8.32484
7.77463
6.9943
5.78425
4.36042
1
1
1
1
1
1
1
1
1
1
1
1
1
1
1
1
1
1
1
1
1
1
1
1
1
1
1
1
1
1
1
1
1
1
1
1
1
1
1
1
1
1
1
1
1
1
1
1
1
1
1
1
1
1
1
1
1.09079
7.22341
10.2308
10.1468
10.1493
10.1849
10.2262
10.2492
10.262
10.2673
10.2664
10.2686
10.2746
10.2828
10.2845
10.2805
10.2726
10.2666
10.2623
10.2516
10.2304
10.1988
10.16
10.1172
10.0707
10.0147
9.94086
9.84709
9.73677
9.61041
9.46147
9.28537
9.06842
8.80406
8.46882
8.03281
7.46358
6.6573
5.61796
4.43512
1
1
1
1
1
1
1
1
1
1
1
1
1
1
1
1
1
1
1
1
1
1
1
1
1
1
1
1
1
1
1
1
1
1
1
1
1
1
1
1
1
1
1
1
1
1
1
1
1
1
1
1
1
1
1
1
1.00086
5.45045
9.77727
10.0422
10.1238
10.1586
10.1804
10.2004
10.2166
10.2246
10.2234
10.2183
10.2163
10.2162
10.2125
10.206
10.198
10.1926
10.1873
10.1719
10.1442
10.105
10.0594
10.0116
9.96014
9.89998
9.82226
9.72275
9.6031
9.46394
9.29815
9.1026
8.86753
8.5844
8.23511
7.78758
7.2153
6.45536
5.55446
4.56086
1
1
1
1
1
1
1
1
1
1
1
1
1
1
1
1
1
1
1
1
1
1
1
1
1
1
1
1
1
1
1
1
1
1
1
1
1
1
1
1
1
1
1
1
1
1
1
1
1
1
1
1
1
1
1
1
0.999998
3.69751
9.35484
10.0699
10.0938
10.1059
10.1285
10.1539
10.1728
10.1828
10.1819
10.1707
10.1622
10.1544
10.1445
10.1334
10.1222
10.1155
10.1087
10.0907
10.0594
10.015
9.96273
9.90767
9.84859
9.78183
9.70004
9.59803
9.47314
9.32462
9.14568
8.93393
8.68411
8.38692
8.02808
7.58243
7.02843
6.33478
5.54501
4.69942
1
1
1
1
1
1
1
1
1
1
1
1
1
1
1
1
1
1
1
1
1
1
1
1
1
1
1
1
1
1
1
1
1
1
1
1
1
1
1
1
1
1
1
1
1
1
1
1
1
1
1
1
1
1
1
1
1
2.09189
8.62802
10.101
10.0174
10.0247
10.0641
10.0966
10.1203
10.135
10.1368
10.1246
10.1123
10.0993
10.0849
10.069
10.0522
10.0401
10.0272
10.0051
9.97145
9.92494
9.86902
9.80786
9.7402
9.66427
9.57601
9.47194
9.34476
9.19077
9.00352
8.78109
8.52104
8.21438
7.85128
7.4139
6.88691
6.26651
5.56809
4.84342
1
1
1
1
1
1
1
1
1
1
1
1
1
1
1
1
1
1
1
1
1
1
1
1
1
1
1
1
1
1
1
1
1
1
1
1
1
1
1
1
1
1
1
1
1
1
1
1
1
1
1
1
1
1
1
1
1
1.10869
7.23747
10.0968
9.9859
9.97909
10.0086
10.0402
10.0666
10.0848
10.0875
10.0741
10.0582
10.0419
10.0257
10.0079
9.98822
9.97071
9.94925
9.92011
9.88232
9.83396
9.77603
9.71043
9.63536
9.55039
9.45411
9.34585
9.21705
9.06017
8.86838
8.64074
8.37599
8.06563
7.70784
7.27399
6.78209
6.23023
5.60786
4.97735
1
1
1
1
1
1
1
1
1
1
1
1
1
1
1
1
1
1
1
1
1
1
1
1
1
1
1
1
1
1
1
1
1
1
1
1
1
1
1
1
1
1
1
1
1
1
1
1
1
1
1
1
1
1
1
1
1
1.00113
5.30676
9.60333
9.85839
9.93209
9.97245
9.99466
10.0204
10.0399
10.0429
10.0272
10.0048
9.9826
9.96386
9.94616
9.92708
9.90607
9.87619
9.83846
9.79385
9.74171
9.68173
9.61324
9.5332
9.44136
9.33765
9.22298
9.09089
8.93199
8.73826
8.5094
8.24457
7.93665
7.58835
7.16081
6.71336
6.2098
5.64956
5.08897
1
1
1
1
1
1
1
1
1
1
1
1
1
1
1
1
1
1
1
1
1
1
1
1
1
1
1
1
1
1
1
1
1
1
1
1
1
1
1
1
1
1
1
1
1
1
1
1
1
1
1
1
1
1
1
1
1
0.999997
3.2927
9.08011
9.90601
9.90828
9.92432
9.94596
9.97225
9.99269
9.99675
9.97744
9.94666
9.91612
9.89416
9.87734
9.8609
9.84019
9.80644
9.76244
9.71066
9.65224
9.58716
9.51423
9.43026
9.33477
9.22688
9.10652
8.9692
8.80701
8.61232
8.3845
8.12275
7.82272
7.48323
7.08
6.66896
6.1909
5.68464
5.17803
1
1
1
1
1
1
1
1
1
1
1
1
1
1
1
1
1
1
1
1
1
1
1
1
1
1
1
1
1
1
1
1
1
1
1
1
1
1
1
1
1
1
1
1
1
1
1
1
1
1
1
1
1
1
1
1
1
0.999999
1.62734
8.12092
10.0194
9.89875
9.8721
9.88843
9.91495
9.93773
9.94441
9.92498
9.88911
9.85181
9.82494
9.80505
9.7875
9.76665
9.73241
9.68622
9.6306
9.56703
9.49606
9.41744
9.32908
9.23078
9.12054
8.99637
8.85375
8.68723
8.49199
8.26619
8.00914
7.7192
7.39053
7.02054
6.62651
6.17043
5.72215
5.25722
1
1
1
1
1
1
1
1
1
1
1
1
1
1
1
1
1
1
1
1
1
1
1
1
1
1
1
1
1
1
1
1
1
1
1
1
1
1
1
1
1
1
1
1
1
1
1
1
1
1
1
1
1
1
1
1
1
1
1.03646
6.44605
9.68148
9.78235
9.82438
9.83861
9.85987
9.88091
9.88626
9.86788
9.83018
9.79057
9.7602
9.73529
9.71277
9.68869
9.65402
9.60783
9.55142
9.48513
9.40906
9.32415
9.23095
9.13026
9.01881
8.89244
8.74529
8.57416
8.37823
8.15441
7.90311
7.62323
7.30925
6.96675
6.58636
6.16936
5.76725
5.32565
1
1
1
1
1
1
1
1
1
1
1
1
1
1
1
1
1
1
1
1
1
1
1
1
1
1
1
1
1
1
1
1
1
1
1
1
1
1
1
1
1
1
1
1
1
1
1
1
1
1
1
1
1
1
1
1
1
1
1.00008
4.22747
9.26834
9.75203
9.78224
9.79251
9.81327
9.83048
9.83216
9.81289
9.77651
9.73783
9.70444
9.67376
9.64362
9.61212
9.57347
9.52603
9.46975
9.40368
9.32586
9.23658
9.13887
9.03549
8.92272
8.79443
8.64331
8.46761
8.27065
8.04836
7.80438
7.53347
7.23736
6.91765
6.55873
6.18253
5.80009
5.37759
1
1
1
1
1
1
1
1
1
1
1
1
1
1
1
1
1
1
1
1
1
1
1
1
1
1
1
1
1
1
1
1
1
1
1
1
1
1
1
1
1
1
1
1
1
1
1
1
1
1
1
1
1
1
1
1
1
1
0.999999
2.20538
8.58856
9.7864
9.7192
9.72738
9.74915
9.76686
9.7709
9.75504
9.72326
9.68646
9.65061
9.61506
9.57897
9.5404
9.4966
9.44621
9.38885
9.32344
9.24546
9.15338
9.05148
8.94514
8.83076
8.70069
8.54711
8.36848
8.17123
7.95146
7.71766
7.4545
7.17723
6.87825
6.54077
6.1931
5.82233
5.4297
1
1
1
1
1
1
1
1
1
1
1
1
1
1
1
1
1
1
1
1
1
1
1
1
1
1
1
1
1
1
1
1
1
1
1
1
1
1
1
1
1
1
1
1
1
1
1
1
1
1
1
1
1
1
1
1
1
1
1
1.11846
7.0286
9.72762
9.67499
9.67587
9.68657
9.69995
9.70987
9.70377
9.67769
9.64105
9.59973
9.5569
9.51361
9.46882
9.4215
9.36929
9.31123
9.24609
9.16783
9.0735
8.96748
8.85761
8.74101
8.60977
8.45662
8.27869
8.08327
7.86713
7.64266
7.38567
7.12638
6.84156
6.52123
6.19318
5.83927
5.48722
1
1
1
1
1
1
1
1
1
1
1
1
1
1
1
1
1
1
1
1
1
1
1
1
1
1
1
1
1
1
1
1
1
1
1
1
1
1
1
1
1
1
1
1
1
1
1
1
1
1
1
1
1
1
1
1
1
1
1
1.00114
4.76366
9.27842
9.59629
9.63114
9.64318
9.65256
9.66065
9.6595
9.63643
9.59752
9.54964
9.49906
9.44891
9.39948
9.34936
9.29574
9.23658
9.17051
9.09123
8.99507
8.88567
8.77248
8.65311
8.52071
8.36989
8.19612
8.00576
7.79417
7.57475
7.32699
7.08193
6.80159
6.49918
6.19304
5.86833
5.54821
1
1
1
1
1
1
1
1
1
1
1
1
1
1
1
1
1
1
1
1
1
1
1
1
1
1
1
1
1
1
1
1
1
1
1
1
1
1
1
1
1
1
1
1
1
1
1
1
1
1
1
1
1
1
1
1
1
1
1
0.999996
2.49567
8.6937
9.64339
9.59481
9.5851
9.58593
9.59324
9.59836
9.58285
9.54713
9.49639
9.43897
9.38091
9.32748
9.27527
9.22163
9.16169
9.09432
9.01336
8.91571
8.80486
8.68959
8.56768
8.43381
8.28527
8.11705
7.93421
7.72689
7.50988
7.27613
7.03552
6.75735
6.48202
6.19853
5.90039
5.59818
1
1
1
1
1
1
1
1
1
1
1
1
1
1
1
1
1
1
1
1
1
1
1
1
1
1
1
1
1
1
1
1
1
1
1
1
1
1
1
1
1
1
1
1
1
1
1
1
1
1
1
1
1
1
1
1
1
1
1
0.999999
1.16911
7.13615
9.61786
9.55705
9.5332
9.52318
9.52475
9.52851
9.51999
9.49042
9.43975
9.37826
9.31502
9.25752
9.20287
9.1478
9.08607
9.01613
8.93265
8.83448
8.72523
8.61059
8.48748
8.35145
8.2031
8.03902
7.86378
7.66108
7.44869
7.22647
6.98606
6.72607
6.47563
6.20926
5.9326
5.6437
1
1
1
1
1
1
1
1
1
1
1
1
1
1
1
1
1
1
1
1
1
1
1
1
1
1
1
1
1
1
1
1
1
1
1
1
1
1
1
1
1
1
1
1
1
1
1
1
1
1
1
1
1
1
1
1
1
1
1
1
1.00232
4.78021
9.16333
9.45848
9.46847
9.47336
9.47796
9.47408
9.46365
9.43548
9.38523
9.32203
9.25617
9.19321
9.1352
9.07699
9.01206
8.93751
8.85019
8.75243
8.64702
8.53463
8.41172
8.27448
8.12541
7.96348
7.79373
7.59665
7.39123
7.17569
6.94327
6.70969
6.47337
6.22103
5.96249
5.68654
1
1
1
1
1
1
1
1
1
1
1
1
1
1
1
1
1
1
1
1
1
1
1
1
1
1
1
1
1
1
1
1
1
1
1
1
1
1
1
1
1
1
1
1
1
1
1
1
1
1
1
1
1
1
1
1
1
1
1
1
0.999992
2.36629
8.57088
9.53575
9.45785
9.43183
9.42066
9.40905
9.39828
9.37432
9.33029
9.27134
9.20666
9.13995
9.07696
9.01349
8.94299
8.86302
8.77224
8.67635
8.57436
8.46339
8.34171
8.2044
8.05628
7.89439
7.72601
7.53668
7.34071
7.13273
6.9145
6.70022
6.47293
6.23653
5.99026
5.72492
1
1
1
1
1
1
1
1
1
1
1
1
1
1
1
1
1
1
1
1
1
1
1
1
1
1
1
1
1
1
1
1
1
1
1
1
1
1
1
1
1
1
1
1
1
1
1
1
1
1
1
1
1
1
1
1
1
1
1
1
0.999999
1.138
6.90076
9.38741
9.37462
9.37279
9.35442
9.33904
9.33029
9.31204
9.27646
9.22624
9.16536
9.09597
9.02577
8.955
8.88018
8.79545
8.70362
8.61004
8.50838
8.39686
8.27572
8.14069
7.99227
7.83233
7.66595
7.48467
7.29814
7.09868
6.89491
6.69303
6.47371
6.25046
6.0093
5.75274
1
1
1
1
1
1
1
1
1
1
1
1
1
1
1
1
1
1
1
1
1
1
1
1
1
1
1
1
1
1
1
1
1
1
1
1
1
1
1
1
1
1
1
1
1
1
1
1
1
1
1
1
1
1
1
1
1
1
1
1
1
1.00142
4.26753
8.9158
9.33048
9.32623
9.30597
9.29041
9.27798
9.25867
9.22827
9.18566
9.12728
9.05606
8.97872
8.89849
8.81933
8.73356
8.6445
8.55313
8.45039
8.33726
8.21519
8.08214
7.93527
7.77728
7.6142
7.44027
7.26266
7.07298
6.88243
6.68738
6.47536
6.25947
6.02127
5.778
1
1
1
1
1
1
1
1
1
1
1
1
1
1
1
1
1
1
1
1
1
1
1
1
1
1
1
1
1
1
1
1
1
1
1
1
1
1
1
1
1
1
1
1
1
1
1
1
1
1
1
1
1
1
1
1
1
1
1
1
1
0.999996
1.85042
8.12481
9.47378
9.32286
9.25716
9.23332
9.21487
9.19555
9.17122
9.13667
9.08335
9.01356
8.93209
8.84502
8.75996
8.67566
8.59071
8.50092
8.39815
8.28389
8.15978
8.02734
7.8837
7.7307
7.57037
7.40285
7.23301
7.05383
6.87435
6.68189
6.47506
6.26197
6.02909
5.80165
1
1
1
1
1
1
1
1
1
1
1
1
1
1
1
1
1
1
1
1
1
1
1
1
1
1
1
1
1
1
1
1
1
1
1
1
1
1
1
1
1
1
1
1
1
1
1
1
1
1
1
1
1
1
1
1
1
1
1
1
1
0.999999
1.05675
6.20559
9.1332
9.17552
9.19767
9.18602
9.16233
9.13944
9.11645
9.08519
9.0364
8.96901
8.88718
8.7968
8.70599
8.62106
8.53763
8.44965
8.34789
8.23419
8.1093
7.97674
7.83649
7.68998
7.53403
7.37305
7.20799
7.03687
6.86339
6.6726
6.47194
6.26258
6.04
5.82485
1
1
1
1
1
1
1
1
1
1
1
1
1
1
1
1
1
1
1
1
1
1
1
1
1
1
1
1
1
1
1
1
1
1
1
1
1
1
1
1
1
1
1
1
1
1
1
1
1
1
1
1
1
1
1
1
1
1
1
1
1
1
1.00018
3.37671
8.58595
9.19129
9.18369
9.15529
9.11779
9.08499
9.05632
9.02431
8.97939
8.91691
8.83957
8.75171
8.65988
8.57204
8.48584
8.39761
8.29777
8.1861
8.06308
7.93161
7.79468
7.65335
7.50435
7.35088
7.18852
7.02127
6.8485
6.66005
6.46482
6.25986
6.04969
5.84488
1
1
1
1
1
1
1
1
1
1
1
1
1
1
1
1
1
1
1
1
1
1
1
1
1
1
1
1
1
1
1
1
1
1
1
1
1
1
1
1
1
1
1
1
1
1
1
1
1
1
1
1
1
1
1
1
1
1
1
1
1
1
0.999999
1.3572
7.3111
9.25163
9.15531
9.10168
9.06155
9.02754
8.99572
8.96063
8.91665
8.85948
8.78859
8.70698
8.61792
8.52789
8.43692
8.34414
8.24437
8.13502
8.01661
7.88938
7.75595
7.6174
7.47588
7.32911
7.16978
7.00461
6.83151
6.64625
6.45564
6.25828
6.06105
5.86637
1
1
1
1
1
1
1
1
1
1
1
1
1
1
1
1
1
1
1
1
1
1
1
1
1
1
1
1
1
1
1
1
1
1
1
1
1
1
1
1
1
1
1
1
1
1
1
1
1
1
1
1
1
1
1
1
1
1
1
1
1
1
1
1.0105
4.79174
8.78131
9.04053
9.03539
9.00747
8.98099
8.94933
8.91482
8.8716
8.81676
8.748
8.66966
8.58313
8.49152
8.39584
8.29659
8.19359
8.08504
7.97156
7.85107
7.7217
7.58495
7.44804
7.30515
7.14965
6.98708
6.81556
6.63451
6.44834
6.26071
6.07575
5.8929
1
1
1
1
1
1
1
1
1
1
1
1
1
1
1
1
1
1
1
1
1
1
1
1
1
1
1
1
1
1
1
1
1
1
1
1
1
1
1
1
1
1
1
1
1
1
1
1
1
1
1
1
1
1
1
1
1
1
1
1
1
1
1
0.999988
2.01338
8.04871
9.20404
9.06217
8.99087
8.94088
8.89836
8.85987
8.81718
8.76703
8.70476
8.6302
8.54619
8.4544
8.3564
8.25251
8.14472
8.03452
7.92368
7.81029
7.68699
7.55374
7.41832
7.27615
7.12421
6.96631
6.8
6.62534
6.4466
6.27012
6.09525
5.9216
1
1
1
1
1
1
1
1
1
1
1
1
1
1
1
1
1
1
1
1
1
1
1
1
1
1
1
1
1
1
1
1
1
1
1
1
1
1
1
1
1
1
1
1
1
1
1
1
1
1
1
1
1
1
1
1
1
1
1
1
1
1
1
0.999997
1.07478
6.0825
8.89844
8.93092
8.92884
8.89749
8.85513
8.81303
8.76732
8.71944
8.66297
8.5936
8.51347
8.42308
8.32361
8.21627
8.10387
7.99047
7.87973
7.77114
7.65488
7.52743
7.39303
7.25011
7.09956
6.94457
6.783
6.61535
6.44713
6.28152
6.1149
5.94599
1
1
1
1
1
1
1
1
1
1
1
1
1
1
1
1
1
1
1
1
1
1
1
1
1
1
1
1
1
1
1
1
1
1
1
1
1
1
1
1
1
1
1
1
1
1
1
1
1
1
1
1
1
1
1
1
1
1
1
1
1
1
1
1
1.00036
3.06915
8.34754
8.96508
8.92597
8.87635
8.82558
8.77541
8.72163
8.67011
8.6147
8.55036
8.47427
8.38635
8.28752
8.18003
8.06707
7.95211
7.8392
7.7307
7.61897
7.49813
7.36761
7.22633
7.07664
6.92187
6.76318
6.60333
6.44656
6.29072
6.13179
5.96717
1
1
1
1
1
1
1
1
1
1
1
1
1
1
1
1
1
1
1
1
1
1
1
1
1
1
1
1
1
1
1
1
1
1
1
1
1
1
1
1
1
1
1
1
1
1
1
1
1
1
1
1
1
1
1
1
1
1
1
1
1
1
1
1
1
1.26856
6.83516
8.97535
8.89581
8.84258
8.79401
8.73521
8.67591
8.6215
8.56575
8.50512
8.4334
8.35028
8.25509
8.14994
8.03809
7.92215
7.80618
7.69344
7.58162
7.4656
7.34181
7.20694
7.06079
6.90767
6.75118
6.59649
6.44591
6.29472
6.14058
5.98163
1
1
1
1
1
1
1
1
1
1
1
1
1
1
1
1
1
1
1
1
1
1
1
1
1
1
1
1
1
1
1
1
1
1
1
1
1
1
1
1
1
1
1
1
1
1
1
1
1
1
1
1
1
1
1
1
1
1
1
1
1
1
1
1
1
1.00545
3.95109
8.41264
8.78925
8.78857
8.76078
8.71082
8.65112
8.58939
8.5273
8.46489
8.3948
8.31582
8.22512
8.12371
8.01342
7.89774
7.77968
7.66252
7.54641
7.42972
7.31018
7.18219
7.04311
6.89617
6.74451
6.59429
6.44643
6.29672
6.14518
5.99222
1
1
1
1
1
1
1
1
1
1
1
1
1
1
1
1
1
1
1
1
1
1
1
1
1
1
1
1
1
1
1
1
1
1
1
1
1
1
1
1
1
1
1
1
1
1
1
1
1
1
1
1
1
1
1
1
1
1
1
1
1
1
1
1
1
1
1.50898
7.26465
8.93062
8.79439
8.72736
8.6702
8.61037
8.54551
8.48058
8.41553
8.34803
8.27548
8.19359
8.09995
7.99505
7.88079
7.76119
7.64003
7.51818
7.39725
7.27734
7.15399
7.02347
6.88581
6.74319
6.59868
6.45248
6.30208
6.15038
6.00133
1
1
1
1
1
1
1
1
1
1
1
1
1
1
1
1
1
1
1
1
1
1
1
1
1
1
1
1
1
1
1
1
1
1
1
1
1
1
1
1
1
1
1
1
1
1
1
1
1
1
1
1
1
1
1
1
1
1
1
1
1
1
1
1
1
1
1.01987
4.64598
8.44365
8.64873
8.66188
8.62386
8.5746
8.51005
8.4417
8.37267
8.30485
8.23617
8.16161
8.07582
7.9768
7.86537
7.74518
7.62117
7.49635
7.37207
7.24943
7.12627
6.99933
6.86912
6.73614
6.59937
6.45792
6.30951
6.15847
6.01193
1
1
1
1
1
1
1
1
1
1
1
1
1
1
1
1
1
1
1
1
1
1
1
1
1
1
1
1
1
1
1
1
1
1
1
1
1
1
1
1
1
1
1
1
1
1
1
1
1
1
1
1
1
1
1
1
1
1
1
1
1
1
1
1
1
1
1.00003
1.76585
7.49084
8.81051
8.68773
8.61387
8.55196
8.48004
8.40645
8.33286
8.26093
8.19005
8.11854
8.0403
7.95071
7.84663
7.72953
7.6052
7.47909
7.35391
7.23002
7.10474
6.97762
6.85168
6.72611
6.59728
6.46288
6.31959
6.171
6.02573
1
1
1
1
1
1
1
1
1
1
1
1
1
1
1
1
1
1
1
1
1
1
1
1
1
1
1
1
1
1
1
1
1
1
1
1
1
1
1
1
1
1
1
1
1
1
1
1
1
1
1
1
1
1
1
1
1
1
1
1
1
1
1
1
1
1
1
1.0435
5.06539
8.42437
8.54306
8.54207
8.50173
8.44008
8.37322
8.30423
8.23229
8.1566
8.08089
8.00382
7.91949
7.82137
7.70959
7.58846
7.46412
7.34009
7.21655
7.09102
6.96339
6.83794
6.71457
6.58968
6.46117
6.32507
6.18228
6.04011
1
1
1
1
1
1
1
1
1
1
1
1
1
1
1
1
1
1
1
1
1
1
1
1
1
1
1
1
1
1
1
1
1
1
1
1
1
1
1
1
1
1
1
1
1
1
1
1
1
1
1
1
1
1
1
1
1
1
1
1
1
1
1
1
1
1
1
1.00015