/*--------------------------------*- C++ -*----------------------------------*\
  =========                 |
  \\      /  F ield         | OpenFOAM: The Open Source CFD Toolbox
   \\    /   O peration     | Website:  https://openfoam.org
    \\  /    A nd           | Version:  7
     \\/     M anipulation  |
\*---------------------------------------------------------------------------*/
FoamFile
{
    version     2.0;
    format      ascii;
    class       volScalarField;
    location    "1.2";
    object      rho;
}
// * * * * * * * * * * * * * * * * * * * * * * * * * * * * * * * * * * * * * //

dimensions      [1 -3 0 0 0 0 0];

internalField   nonuniform List<scalar> 
64512
(
1.40001
1.40001
1.40001
1.40001
1.40001
1.40001
1.40001
1.40001
1.40001
1.40001
1.40001
1.40001
1.40001
1.40001
1.40001
1.40001
1.40001
1.40001
1.40001
1.40001
1.40001
1.40001
1.40001
1.40001
1.40001
1.40001
1.40001
1.40001
1.40001
1.40001
1.40001
1.40001
1.40001
1.40001
1.40001
1.40001
1.40001
1.40001
1.40001
1.40001
1.40001
1.40001
1.40001
1.40001
1.40001
1.40001
1.40001
1.40001
1.40001
1.40001
1.40001
1.40001
1.72442
4.60897
5.48023
5.52203
5.54871
5.56031
5.5594
5.55352
5.55108
5.55937
5.5784
5.60394
5.63267
5.66158
5.68909
5.7176
5.74346
5.76444
5.77736
5.78117
5.7808
5.78485
5.79742
5.8162
5.83607
5.8551
5.86944
5.87731
5.88067
5.8828
5.88463
5.88602
5.88586
5.88362
5.8803
5.87625
5.87201
5.86613
5.85208
5.81622
5.74805
5.66161
5.59602
5.57294
1.40001
1.40001
1.40001
1.40001
1.40001
1.40001
1.40001
1.40001
1.40001
1.40001
1.40001
1.40001
1.40001
1.40001
1.40001
1.40001
1.40001
1.40001
1.40001
1.40001
1.40001
1.40001
1.40001
1.40001
1.40001
1.40001
1.40001
1.40001
1.40001
1.40001
1.40001
1.40001
1.40001
1.40001
1.40001
1.40001
1.40001
1.40001
1.40001
1.40001
1.40001
1.40001
1.40001
1.40001
1.40001
1.40001
1.40001
1.40001
1.40001
1.40001
1.40001
1.40001
1.71488
4.59064
5.47584
5.52131
5.5492
5.55877
5.55703
5.55225
5.55176
5.56089
5.57972
5.60446
5.63233
5.66076
5.68816
5.71655
5.74244
5.76349
5.77631
5.77971
5.77938
5.78386
5.79718
5.81656
5.83625
5.85445
5.86796
5.87562
5.87954
5.88243
5.8845
5.88526
5.88371
5.88039
5.87714
5.87429
5.87177
5.86726
5.85331
5.81615
5.74631
5.65893
5.59331
5.57112
1.40001
1.40001
1.40001
1.40001
1.40001
1.40001
1.40001
1.40001
1.40001
1.40001
1.40001
1.40001
1.40001
1.40001
1.40001
1.40001
1.40001
1.40001
1.40001
1.40001
1.40001
1.40001
1.40001
1.40001
1.40001
1.40001
1.40001
1.40001
1.40001
1.40001
1.40001
1.40001
1.40001
1.40001
1.40001
1.40001
1.40001
1.40001
1.40001
1.40001
1.40001
1.40001
1.40001
1.40001
1.40001
1.40001
1.40001
1.40001
1.40001
1.40001
1.40001
1.40001
1.69464
4.55862
5.47611
5.5207
5.54874
5.55516
5.55299
5.54997
5.55172
5.56205
5.58053
5.60444
5.63157
5.65965
5.68702
5.7151
5.74075
5.76181
5.77434
5.77711
5.77672
5.78199
5.79651
5.81673
5.83621
5.8533
5.86578
5.87329
5.87812
5.88219
5.88466
5.88461
5.88095
5.87547
5.87169
5.8703
5.87043
5.86812
5.8547
5.81617
5.74411
5.65497
5.58837
5.56653
1.40001
1.40001
1.40001
1.40001
1.40001
1.40001
1.40001
1.40001
1.40001
1.40001
1.40001
1.40001
1.40001
1.40001
1.40001
1.40001
1.40001
1.40001
1.40001
1.40001
1.40001
1.40001
1.40001
1.40001
1.40001
1.40001
1.40001
1.40001
1.40001
1.40001
1.40001
1.40001
1.40001
1.40001
1.40001
1.40001
1.40001
1.40001
1.40001
1.40001
1.40001
1.40001
1.40001
1.40001
1.40001
1.40001
1.40001
1.40001
1.40001
1.40001
1.40001
1.40001
1.66342
4.51023
5.48304
5.52177
5.54557
5.54865
5.54784
5.54829
5.5526
5.56333
5.58091
5.60367
5.63011
5.65818
5.68581
5.71358
5.73888
5.75988
5.772
5.77393
5.77332
5.7793
5.79504
5.81614
5.83551
5.85148
5.86291
5.87028
5.8761
5.88146
5.8845
5.88379
5.87801
5.86982
5.86503
5.86479
5.86738
5.86781
5.85515
5.81527
5.7408
5.64958
5.58162
5.55978
1.40001
1.40001
1.40001
1.40001
1.40001
1.40001
1.40001
1.40001
1.40001
1.40001
1.40001
1.40001
1.40001
1.40001
1.40001
1.40001
1.40001
1.40001
1.40001
1.40001
1.40001
1.40001
1.40001
1.40001
1.40001
1.40001
1.40001
1.40001
1.40001
1.40001
1.40001
1.40001
1.40001
1.40001
1.40001
1.40001
1.40001
1.40001
1.40001
1.40001
1.40001
1.40001
1.40001
1.40001
1.40001
1.40001
1.40001
1.40001
1.40001
1.40001
1.40001
1.40001
1.61813
4.44494
5.50239
5.52236
5.53969
5.54223
5.54453
5.54792
5.55358
5.5639
5.58019
5.60181
5.62797
5.65643
5.68464
5.71219
5.73712
5.75808
5.76969
5.77053
5.76948
5.77596
5.79274
5.81454
5.83385
5.84894
5.85948
5.86668
5.87339
5.87999
5.88379
5.88279
5.87536
5.86481
5.8585
5.85828
5.86265
5.86529
5.85355
5.81299
5.73654
5.64324
5.57373
5.55133
1.40001
1.40001
1.40001
1.40001
1.40001
1.40001
1.40001
1.40001
1.40001
1.40001
1.40001
1.40001
1.40001
1.40001
1.40001
1.40001
1.40001
1.40001
1.40001
1.40001
1.40001
1.40001
1.40001
1.40001
1.40001
1.40001
1.40001
1.40001
1.40001
1.40001
1.40001
1.40001
1.40001
1.40001
1.40001
1.40001
1.40001
1.40001
1.40001
1.40001
1.40001
1.40001
1.40001
1.40001
1.40001
1.40001
1.40001
1.40001
1.40001
1.40001
1.40001
1.40001
1.55371
4.34625
5.52364
5.52263
5.53407
5.53934
5.54422
5.54869
5.55406
5.56312
5.57801
5.5992
5.62565
5.65468
5.68364
5.71108
5.73568
5.75636
5.76732
5.76682
5.765
5.77187
5.78954
5.81194
5.83134
5.84586
5.85568
5.86257
5.86977
5.8773
5.88187
5.88106
5.87302
5.86108
5.8531
5.85198
5.85654
5.85985
5.84902
5.80866
5.73129
5.63647
5.56547
5.54191
1.40001
1.40001
1.40001
1.40001
1.40001
1.40001
1.40001
1.40001
1.40001
1.40001
1.40001
1.40001
1.40001
1.40001
1.40001
1.40001
1.40001
1.40001
1.40001
1.40001
1.40001
1.40001
1.40001
1.40001
1.40001
1.40001
1.40001
1.40001
1.40001
1.40001
1.40001
1.40001
1.40001
1.40001
1.40001
1.40001
1.40001
1.40001
1.40001
1.40001
1.40001
1.40001
1.40001
1.40001
1.40001
1.40001
1.40001
1.40001
1.40001
1.40001
1.40001
1.40001
1.4717
4.21396
5.53871
5.52686
5.53122
5.53827
5.54417
5.54814
5.55245
5.56046
5.57499
5.59671
5.62363
5.65299
5.68259
5.70987
5.73417
5.75449
5.76462
5.76267
5.75998
5.76718
5.78572
5.80875
5.82839
5.84252
5.85167
5.85791
5.86492
5.87285
5.87805
5.87792
5.87038
5.85823
5.8491
5.84659
5.8498
5.85229
5.84157
5.80208
5.72487
5.6294
5.55733
5.53229
1.40001
1.40001
1.40001
1.40001
1.40001
1.40001
1.40001
1.40001
1.40001
1.40001
1.40001
1.40001
1.40001
1.40001
1.40001
1.40001
1.40001
1.40001
1.40001
1.40001
1.40001
1.40001
1.40001
1.40001
1.40001
1.40001
1.40001
1.40001
1.40001
1.40001
1.40001
1.40001
1.40001
1.40001
1.40001
1.40001
1.40001
1.40001
1.40001
1.40001
1.40001
1.40001
1.40001
1.40001
1.40001
1.40001
1.40001
1.40001
1.40001
1.40001
1.40001
1.40001
1.40355
4.08278
5.53492
5.52529
5.5294
5.53786
5.54259
5.54478
5.54834
5.55635
5.57174
5.59468
5.62209
5.65154
5.6815
5.7086
5.73256
5.75247
5.76148
5.75787
5.75423
5.76165
5.78105
5.80483
5.82499
5.83903
5.84756
5.85287
5.85908
5.86678
5.87228
5.87298
5.86671
5.85553
5.84621
5.8423
5.84317
5.84359
5.83207
5.79315
5.71697
5.62169
5.54931
5.52301
1.40001
1.40001
1.40001
1.40001
1.40001
1.40001
1.40001
1.40001
1.40001
1.40001
1.40001
1.40001
1.40001
1.40001
1.40001
1.40001
1.40001
1.40001
1.40001
1.40001
1.40001
1.40001
1.40001
1.40001
1.40001
1.40001
1.40001
1.40001
1.40001
1.40001
1.40001
1.40001
1.40001
1.40001
1.40001
1.40001
1.40001
1.40001
1.40001
1.40001
1.40001
1.40001
1.40001
1.40001
1.40001
1.40001
1.40001
1.40001
1.40001
1.40001
1.40001
1.40001
1.40003
3.9177
5.51615
5.52316
5.52891
5.53566
5.53779
5.53871
5.54221
5.55137
5.56846
5.59303
5.62102
5.65062
5.68049
5.70728
5.73069
5.74979
5.75747
5.75219
5.74763
5.75529
5.77548
5.79999
5.82095
5.8353
5.84335
5.84754
5.85252
5.8595
5.86475
5.86607
5.86135
5.85197
5.84345
5.83857
5.83712
5.83475
5.8215
5.78235
5.70716
5.61295
5.54118
5.51444
1.40001
1.40001
1.40001
1.40001
1.40001
1.40001
1.40001
1.40001
1.40001
1.40001
1.40001
1.40001
1.40001
1.40001
1.40001
1.40001
1.40001
1.40001
1.40001
1.40001
1.40001
1.40001
1.40001
1.40001
1.40001
1.40001
1.40001
1.40001
1.40001
1.40001
1.40001
1.40001
1.40001
1.40001
1.40001
1.40001
1.40001
1.40001
1.40001
1.40001
1.40001
1.40001
1.40001
1.40001
1.40001
1.40001
1.40001
1.40001
1.40001
1.40001
1.40001
1.40001
1.40001
3.73474
5.48839
5.51866
5.52536
5.52966
5.53009
5.53088
5.53502
5.54598
5.5653
5.59133
5.62001
5.65026
5.67945
5.70576
5.72862
5.74595
5.75219
5.74553
5.74027
5.74827
5.76901
5.79393
5.81566
5.83058
5.8384
5.84162
5.84536
5.85153
5.85623
5.85784
5.85437
5.84688
5.8397
5.83456
5.83139
5.82656
5.81122
5.7707
5.69541
5.60243
5.53229
5.5062
1.40001
1.40001
1.40001
1.40001
1.40001
1.40001
1.40001
1.40001
1.40001
1.40001
1.40001
1.40001
1.40001
1.40001
1.40001
1.40001
1.40001
1.40001
1.40001
1.40001
1.40001
1.40001
1.40001
1.40001
1.40001
1.40001
1.40001
1.40001
1.40001
1.40001
1.40001
1.40001
1.40001
1.40001
1.40001
1.40001
1.40001
1.40001
1.40001
1.40001
1.40001
1.40001
1.40001
1.40001
1.40001
1.40001
1.40001
1.40001
1.40001
1.40001
1.40001
1.40001
1.40001
3.53352
5.45199
5.50986
5.51775
5.52114
5.52145
5.52296
5.52837
5.54114
5.56232
5.58911
5.61886
5.64995
5.6785
5.70386
5.72626
5.74083
5.7448
5.73752
5.73206
5.74066
5.76168
5.78658
5.80882
5.82426
5.83205
5.83475
5.83756
5.84307
5.84762
5.84925
5.84635
5.84014
5.83393
5.829
5.82517
5.81907
5.80189
5.75925
5.68278
5.59026
5.52209
5.49759
1.40001
1.40001
1.40001
1.40001
1.40001
1.40001
1.40001
1.40001
1.40001
1.40001
1.40001
1.40001
1.40001
1.40001
1.40001
1.40001
1.40001
1.40001
1.40001
1.40001
1.40001
1.40001
1.40001
1.40001
1.40001
1.40001
1.40001
1.40001
1.40001
1.40001
1.40001
1.40001
1.40001
1.40001
1.40001
1.40001
1.40001
1.40001
1.40001
1.40001
1.40001
1.40001
1.40001
1.40001
1.40001
1.40001
1.40001
1.40001
1.40001
1.40001
1.40001
1.40001
1.40001
3.31546
5.40639
5.49955
5.50857
5.51253
5.51381
5.51658
5.52337
5.53788
5.56015
5.58686
5.61764
5.64907
5.67737
5.70181
5.72331
5.73469
5.73501
5.72809
5.72319
5.73277
5.75377
5.7782
5.8005
5.81622
5.82396
5.82629
5.82849
5.83379
5.83888
5.84082
5.83806
5.83192
5.82567
5.82102
5.81751
5.81147
5.79333
5.74865
5.67038
5.57751
5.51052
5.48801
1.40001
1.40001
1.40001
1.40001
1.40001
1.40001
1.40001
1.40001
1.40001
1.40001
1.40001
1.40001
1.40001
1.40001
1.40001
1.40001
1.40001
1.40001
1.40001
1.40001
1.40001
1.40001
1.40001
1.40001
1.40001
1.40001
1.40001
1.40001
1.40001
1.40001
1.40001
1.40001
1.40001
1.40001
1.40001
1.40001
1.40001
1.40001
1.40001
1.40001
1.40001
1.40001
1.40001
1.40001
1.40001
1.40001
1.40001
1.40001
1.40001
1.40001
1.40001
1.40001
1.40001
3.08413
5.3485
5.49074
5.50034
5.50565
5.50823
5.51211
5.52015
5.53636
5.55883
5.58526
5.61583
5.64704
5.67513
5.69902
5.7183
5.72675
5.72373
5.7172
5.71401
5.72487
5.74564
5.76941
5.79138
5.80715
5.81444
5.81606
5.81777
5.82327
5.82955
5.83239
5.82983
5.82283
5.81538
5.81046
5.80768
5.80274
5.78481
5.73891
5.65879
5.56469
5.49763
5.47655
1.40001
1.40001
1.40001
1.40001
1.40001
1.40001
1.40001
1.40001
1.40001
1.40001
1.40001
1.40001
1.40001
1.40001
1.40001
1.40001
1.40001
1.40001
1.40001
1.40001
1.40001
1.40001
1.40001
1.40001
1.40001
1.40001
1.40001
1.40001
1.40001
1.40001
1.40001
1.40001
1.40001
1.40001
1.40001
1.40001
1.40001
1.40001
1.40001
1.40001
1.40001
1.40001
1.40001
1.40001
1.40001
1.40001
1.40001
1.40001
1.40001
1.40001
1.40001
1.40001
1.40001
2.84499
5.27195
5.48232
5.49279
5.50063
5.50449
5.50896
5.51818
5.53611
5.55824
5.58498
5.61372
5.64445
5.67128
5.69441
5.7107
5.71692
5.71192
5.70606
5.70529
5.71729
5.73742
5.76035
5.7816
5.79724
5.80385
5.80451
5.80559
5.81136
5.81902
5.82315
5.82116
5.8132
5.80389
5.79797
5.79562
5.7921
5.77543
5.72953
5.64807
5.55219
5.48374
5.46296
1.40001
1.40001
1.40001
1.40001
1.40001
1.40001
1.40001
1.40001
1.40001
1.40001
1.40001
1.40001
1.40001
1.40001
1.40001
1.40001
1.40001
1.40001
1.40001
1.40001
1.40001
1.40001
1.40001
1.40001
1.40001
1.40001
1.40001
1.40001
1.40001
1.40001
1.40001
1.40001
1.40001
1.40001
1.40001
1.40001
1.40001
1.40001
1.40001
1.40001
1.40001
1.40001
1.40001
1.40001
1.40001
1.40001
1.40001
1.40001
1.40001
1.40001
1.40001
1.40001
1.40001
2.6062
5.16995
5.47568
5.48895
5.50117
5.50539
5.50872
5.51772
5.53585
5.55816
5.58506
5.61303
5.64122
5.66593
5.68665
5.69945
5.7041
5.69922
5.6944
5.69683
5.71067
5.72995
5.75182
5.77196
5.78709
5.79295
5.7927
5.79288
5.79847
5.807
5.81234
5.81127
5.80288
5.79159
5.78415
5.78158
5.7792
5.76434
5.71959
5.63766
5.53994
5.4693
5.44794
1.40001
1.40001
1.40001
1.40001
1.40001
1.40001
1.40001
1.40001
1.40001
1.40001
1.40001
1.40001
1.40001
1.40001
1.40001
1.40001
1.40001
1.40001
1.40001
1.40001
1.40001
1.40001
1.40001
1.40001
1.40001
1.40001
1.40001
1.40001
1.40001
1.40001
1.40001
1.40001
1.40001
1.40001
1.40001
1.40001
1.40001
1.40001
1.40001
1.40001
1.40001
1.40001
1.40001
1.40001
1.40001
1.40001
1.40001
1.40001
1.40001
1.40001
1.40001
1.40001
1.40001
2.36273
5.04701
5.46964
5.48927
5.50765
5.5121
5.51232
5.51782
5.53427
5.5576
5.58524
5.61259
5.63809
5.66039
5.67648
5.68543
5.68838
5.6855
5.68285
5.68883
5.70444
5.72286
5.74342
5.76206
5.77613
5.78137
5.78064
5.7804
5.78564
5.79401
5.79985
5.79947
5.79109
5.77855
5.76968
5.76638
5.76452
5.75135
5.70833
5.6267
5.52739
5.45429
5.43165
1.40001
1.40001
1.40001
1.40001
1.40001
1.40001
1.40001
1.40001
1.40001
1.40001
1.40001
1.40001
1.40001
1.40001
1.40001
1.40001
1.40001
1.40001
1.40001
1.40001
1.40001
1.40001
1.40001
1.40001
1.40001
1.40001
1.40001
1.40001
1.40001
1.40001
1.40001
1.40001
1.40001
1.40001
1.40001
1.40001
1.40001
1.40001
1.40001
1.40001
1.40001
1.40001
1.40001
1.40001
1.40001
1.40001
1.40001
1.40001
1.40001
1.40001
1.40001
1.40001
1.40001
2.11227
4.91033
5.47642
5.49101
5.51723
5.5208
5.51674
5.51742
5.53095
5.55557
5.5835
5.61088
5.63532
5.65434
5.6654
5.66972
5.67018
5.66934
5.67035
5.68032
5.69789
5.7162
5.73549
5.75222
5.76449
5.76877
5.76783
5.76796
5.77316
5.78079
5.78609
5.78564
5.77742
5.76451
5.75475
5.75055
5.74851
5.73638
5.69505
5.61423
5.51389
5.43865
5.41448
1.40001
1.40001
1.40001
1.40001
1.40001
1.40001
1.40001
1.40001
1.40001
1.40001
1.40001
1.40001
1.40001
1.40001
1.40001
1.40001
1.40001
1.40001
1.40001
1.40001
1.40001
1.40001
1.40001
1.40001
1.40001
1.40001
1.40001
1.40001
1.40001
1.40001
1.40001
1.40001
1.40001
1.40001
1.40001
1.40001
1.40001
1.40001
1.40001
1.40001
1.40001
1.40001
1.40001
1.40001
1.40001
1.40001
1.40001
1.40001
1.40001
1.40001
1.40001
1.40001
1.40001
1.87065
4.75594
5.49238
5.48905
5.51877
5.52362
5.51828
5.51644
5.52705
5.54967
5.57734
5.60551
5.62919
5.64543
5.65258
5.65351
5.65242
5.65316
5.65892
5.67274
5.69127
5.70911
5.72695
5.74166
5.75161
5.75456
5.75355
5.75478
5.76054
5.76745
5.77164
5.77042
5.76207
5.74932
5.73924
5.73421
5.73149
5.71958
5.67942
5.59957
5.49873
5.42194
5.39631
1.40001
1.40001
1.40001
1.40001
1.40001
1.40001
1.40001
1.40001
1.40001
1.40001
1.40001
1.40001
1.40001
1.40001
1.40001
1.40001
1.40001
1.40001
1.40001
1.40001
1.40001
1.40001
1.40001
1.40001
1.40001
1.40001
1.40001
1.40001
1.40001
1.40001
1.40001
1.40001
1.40001
1.40001
1.40001
1.40001
1.40001
1.40001
1.40001
1.40001
1.40001
1.40001
1.40001
1.40001
1.40001
1.40001
1.40001
1.40001
1.40001
1.40001
1.40001
1.40001
1.40001
1.66017
4.53395
5.49882
5.48562
5.5064
5.50877
5.50504
5.50789
5.52054
5.54188
5.56822
5.5961
5.61926
5.63426
5.6391
5.63783
5.63544
5.63738
5.6469
5.66367
5.68304
5.70061
5.71747
5.73068
5.73788
5.73882
5.73749
5.73991
5.7467
5.75337
5.7566
5.75426
5.7452
5.73263
5.72249
5.71678
5.71313
5.70093
5.66153
5.5827
5.48182
5.40414
5.37743
1.40001
1.40001
1.40001
1.40001
1.40001
1.40001
1.40001
1.40001
1.40001
1.40001
1.40001
1.40001
1.40001
1.40001
1.40001
1.40001
1.40001
1.40001
1.40001
1.40001
1.40001
1.40001
1.40001
1.40001
1.40001
1.40001
1.40001
1.40001
1.40001
1.40001
1.40001
1.40001
1.40001
1.40001
1.40001
1.40001
1.40001
1.40001
1.40001
1.40001
1.40001
1.40001
1.40001
1.40001
1.40001
1.40001
1.40001
1.40001
1.40001
1.40001
1.40001
1.40001
1.40001
1.4777
4.25074
5.4712
5.46676
5.48128
5.488
5.49045
5.49672
5.51093
5.53126
5.55648
5.58345
5.60558
5.61887
5.62249
5.62067
5.61861
5.62297
5.63566
5.65447
5.67415
5.69132
5.70692
5.71858
5.72306
5.72163
5.71953
5.72277
5.73075
5.73776
5.74056
5.73723
5.72716
5.71455
5.70431
5.69798
5.69336
5.68056
5.64157
5.56358
5.4627
5.38437
5.35683
1.40001
1.40001
1.40001
1.40001
1.40001
1.40001
1.40001
1.40001
1.40001
1.40001
1.40001
1.40001
1.40001
1.40001
1.40001
1.40001
1.40001
1.40001
1.40001
1.40001
1.40001
1.40001
1.40001
1.40001
1.40001
1.40001
1.40001
1.40001
1.40001
1.40001
1.40001
1.40001
1.40001
1.40001
1.40001
1.40001
1.40001
1.40001
1.40001
1.40001
1.40001
1.40001
1.40001
1.40001
1.40001
1.40001
1.40001
1.40001
1.40001
1.40001
1.40001
1.40001
1.40001
1.40296
3.88505
5.42136
5.43739
5.44781
5.45979
5.46957
5.4818
5.49856
5.51827
5.54281
5.56974
5.59214
5.60473
5.60744
5.60575
5.60491
5.61145
5.62564
5.64506
5.66456
5.68093
5.69509
5.7051
5.70692
5.70318
5.70018
5.70354
5.71226
5.71987
5.72282
5.71889
5.70791
5.69493
5.68415
5.67691
5.67114
5.6577
5.61922
5.54223
5.44151
5.36264
5.33452
1.40001
1.40001
1.40001
1.40001
1.40001
1.40001
1.40001
1.40001
1.40001
1.40001
1.40001
1.40001
1.40001
1.40001
1.40001
1.40001
1.40001
1.40001
1.40001
1.40001
1.40001
1.40001
1.40001
1.40001
1.40001
1.40001
1.40001
1.40001
1.40001
1.40001
1.40001
1.40001
1.40001
1.40001
1.40001
1.40001
1.40001
1.40001
1.40001
1.40001
1.40001
1.40001
1.40001
1.40001
1.40001
1.40001
1.40001
1.40001
1.40001
1.40001
1.40001
1.40001
1.40001
1.40002
3.45231
5.35388
5.41992
5.4241
5.43953
5.45565
5.47127
5.48739
5.50633
5.52943
5.55548
5.57806
5.59138
5.59519
5.59461
5.59544
5.60324
5.617
5.63559
5.65423
5.66979
5.68257
5.69022
5.68932
5.68319
5.67918
5.68243
5.69144
5.69957
5.70286
5.69872
5.68729
5.6737
5.6619
5.65339
5.64633
5.63229
5.59448
5.51855
5.41782
5.33807
5.30921
1.40001
1.40001
1.40001
1.40001
1.40001
1.40001
1.40001
1.40001
1.40001
1.40001
1.40001
1.40001
1.40001
1.40001
1.40001
1.40001
1.40001
1.40001
1.40001
1.40001
1.40001
1.40001
1.40001
1.40001
1.40001
1.40001
1.40001
1.40001
1.40001
1.40001
1.40001
1.40001
1.40001
1.40001
1.40001
1.40001
1.40001
1.40001
1.40001
1.40001
1.40001
1.40001
1.40001
1.40001
1.40001
1.40001
1.40001
1.40001
1.40001
1.40001
1.40001
1.40001
1.40001
1.40001
3.01559
5.25294
5.41606
5.41707
5.43014
5.44454
5.46109
5.478
5.49578
5.517
5.54159
5.56477
5.58075
5.58744
5.58856
5.59041
5.59788
5.60964
5.62635
5.64357
5.65801
5.6692
5.67417
5.67046
5.66201
5.65668
5.65961
5.66851
5.67675
5.68021
5.67625
5.66496
5.65059
5.63714
5.62658
5.61766
5.603
5.56632
5.49202
5.39157
5.3108
5.2812
1.40001
1.40001
1.40001
1.40001
1.40001
1.40001
1.40001
1.40001
1.40001
1.40001
1.40001
1.40001
1.40001
1.40001
1.40001
1.40001
1.40001
1.40001
1.40001
1.40001
1.40001
1.40001
1.40001
1.40001
1.40001
1.40001
1.40001
1.40001
1.40001
1.40001
1.40001
1.40001
1.40001
1.40001
1.40001
1.40001
1.40001
1.40001
1.40001
1.40001
1.40001
1.40001
1.40001
1.40001
1.40001
1.40001
1.40001
1.40001
1.40001
1.40001
1.40001
1.40001
1.40001
1.40001
2.57313
5.10653
5.42696
5.43219
5.44561
5.45532
5.46581
5.47868
5.49262
5.50994
5.53135
5.55378
5.57153
5.58151
5.58487
5.58706
5.59278
5.60179
5.61608
5.63164
5.64484
5.6541
5.65665
5.65063
5.64019
5.63343
5.63559
5.64373
5.65153
5.65496
5.65154
5.64084
5.62563
5.61011
5.59686
5.58564
5.57029
5.53487
5.46215
5.36164
5.27926
5.24842
1.40001
1.40001
1.40001
1.40001
1.40001
1.40001
1.40001
1.40001
1.40001
1.40001
1.40001
1.40001
1.40001
1.40001
1.40001
1.40001
1.40001
1.40001
1.40001
1.40001
1.40001
1.40001
1.40001
1.40001
1.40001
1.40001
1.40001
1.40001
1.40001
1.40001
1.40001
1.40001
1.40001
1.40001
1.40001
1.40001
1.40001
1.40001
1.40001
1.40001
1.40001
1.40001
1.40001
1.40001
1.40001
1.40001
1.40001
1.40001
1.40001
1.40001
1.40001
1.40001
1.40001
1.40001
2.13328
4.92615
5.46906
5.44957
5.4593
5.46744
5.47468
5.4813
5.48984
5.50322
5.52137
5.54239
5.56083
5.57294
5.578
5.58038
5.58445
5.59153
5.60405
5.61834
5.63058
5.63757
5.63739
5.62969
5.61733
5.60918
5.61036
5.6172
5.62393
5.62714
5.62463
5.61461
5.59844
5.58036
5.56356
5.54905
5.53235
5.49813
5.42741
5.32732
5.24349
5.21158
1.40001
1.40001
1.40001
1.40001
1.40001
1.40001
1.40001
1.40001
1.40001
1.40001
1.40001
1.40001
1.40001
1.40001
1.40001
1.40001
1.40001
1.40001
1.40001
1.40001
1.40001
1.40001
1.40001
1.40001
1.40001
1.40001
1.40001
1.40001
1.40001
1.40001
1.40001
1.40001
1.40001
1.40001
1.40001
1.40001
1.40001
1.40001
1.40001
1.40001
1.40001
1.40001
1.40001
1.40001
1.40001
1.40001
1.40001
1.40001
1.40001
1.40001
1.40001
1.40001
1.40001
1.40001
1.72845
4.67702
5.51833
5.47348
5.47956
5.48539
5.4887
5.48979
5.49302
5.50114
5.51546
5.5347
5.55304
5.56585
5.57106
5.57229
5.574
5.57903
5.58964
5.6021
5.61257
5.61773
5.61535
5.60675
5.59388
5.585
5.58492
5.58985
5.59449
5.59683
5.59518
5.58579
5.56872
5.54796
5.52728
5.5091
5.49072
5.45723
5.38765
5.28673
5.20025
5.16615
1.40001
1.40001
1.40001
1.40001
1.40001
1.40001
1.40001
1.40001
1.40001
1.40001
1.40001
1.40001
1.40001
1.40001
1.40001
1.40001
1.40001
1.40001
1.40001
1.40001
1.40001
1.40001
1.40001
1.40001
1.40001
1.40001
1.40001
1.40001
1.40001
1.40001
1.40001
1.40001
1.40001
1.40001
1.40001
1.40001
1.40001
1.40001
1.40001
1.40001
1.40001
1.40001
1.40001
1.40001
1.40001
1.40001
1.40001
1.40001
1.40001
1.40001
1.40001
1.40001
1.40001
1.40001
1.44524
4.28591
5.45701
5.43628
5.46124
5.47588
5.48407
5.48495
5.48554
5.49112
5.50331
5.52047
5.53758
5.55003
5.55537
5.5563
5.55715
5.56125
5.5702
5.58082
5.58976
5.59424
5.59117
5.58295
5.57078
5.56142
5.5597
5.56195
5.56336
5.5642
5.56267
5.55364
5.53588
5.5126
5.48771
5.46459
5.44263
5.40814
5.33896
5.23755
5.14892
5.11364
1.40001
1.40001
1.40001
1.40001
1.40001
1.40001
1.40001
1.40001
1.40001
1.40001
1.40001
1.40001
1.40001
1.40001
1.40001
1.40001
1.40001
1.40001
1.40001
1.40001
1.40001
1.40001
1.40001
1.40001
1.40001
1.40001
1.40001
1.40001
1.40001
1.40001
1.40001
1.40001
1.40001
1.40001
1.40001
1.40001
1.40001
1.40001
1.40001
1.40001
1.40001
1.40001
1.40001
1.40001
1.40001
1.40001
1.40001
1.40001
1.40001
1.40001
1.40001
1.40001
1.40001
1.40001
1.40061
3.73454
5.31784
5.39801
5.43189
5.45031
5.46275
5.46833
5.47233
5.47974
5.49108
5.50574
5.52037
5.53105
5.53574
5.53647
5.53728
5.54082
5.54816
5.55691
5.56419
5.56805
5.56526
5.55825
5.54772
5.53833
5.53466
5.53356
5.53122
5.52949
5.52662
5.51743
5.49907
5.47366
5.44468
5.41597
5.38944
5.35367
5.28365
5.17858
5.08387
5.04331
1.40001
1.40001
1.40001
1.40001
1.40001
1.40001
1.40001
1.40001
1.40001
1.40001
1.40001
1.40001
1.40001
1.40001
1.40001
1.40001
1.40001
1.40001
1.40001
1.40001
1.40001
1.40001
1.40001
1.40001
1.40001
1.40001
1.40001
1.40001
1.40001
1.40001
1.40001
1.40001
1.40001
1.40001
1.40001
1.40001
1.40001
1.40001
1.40001
1.40001
1.40001
1.40001
1.40001
1.40001
1.40001
1.40001
1.40001
1.40001
1.40001
1.40001
1.40001
1.40001
1.40001
1.40001
1.40001
3.20061
5.20281
5.37493
5.40411
5.42686
5.44103
5.44979
5.4584
5.46841
5.4794
5.49186
5.50377
5.51219
5.51555
5.51563
5.51633
5.51917
5.52496
5.53198
5.53754
5.54038
5.53792
5.53221
5.52378
5.51526
5.50997
5.50498
5.49849
5.49304
5.48714
5.47659
5.4574
5.43037
5.39774
5.3622
5.32779
5.28648
5.2117
5.10141
5.00035
4.95873
1.40001
1.40001
1.40001
1.40001
1.40001
1.40001
1.40001
1.40001
1.40001
1.40001
1.40001
1.40001
1.40001
1.40001
1.40001
1.40001
1.40001
1.40001
1.40001
1.40001
1.40001
1.40001
1.40001
1.40001
1.40001
1.40001
1.40001
1.40001
1.40001
1.40001
1.40001
1.40001
1.40001
1.40001
1.40001
1.40001
1.40001
1.40001
1.40001
1.40001
1.40001
1.40001
1.40001
1.40001
1.40001
1.40001
1.40001
1.40001
1.40001
1.40001
1.40001
1.40001
1.40001
1.40001
1.40001
2.64549
5.0513
5.36808
5.39118
5.40997
5.42283
5.43475
5.4457
5.45639
5.46693
5.47804
5.48793
5.49433
5.49639
5.49557
5.49552
5.49715
5.50143
5.5071
5.5113
5.51295
5.51027
5.50518
5.49835
5.4909
5.48441
5.47604
5.46558
5.45524
5.4446
5.43119
5.41037
5.38143
5.34457
5.30217
5.25904
5.20925
5.13007
5.01165
4.8945
4.83175
1.40001
1.40001
1.40001
1.40001
1.40001
1.40001
1.40001
1.40001
1.40001
1.40001
1.40001
1.40001
1.40001
1.40001
1.40001
1.40001
1.40001
1.40001
1.40001
1.40001
1.40001
1.40001
1.40001
1.40001
1.40001
1.40001
1.40001
1.40001
1.40001
1.40001
1.40001
1.40001
1.40001
1.40001
1.40001
1.40001
1.40001
1.40001
1.40001
1.40001
1.40001
1.40001
1.40001
1.40001
1.40001
1.40001
1.40001
1.40001
1.40001
1.40001
1.40001
1.40001
1.40001
1.40001
1.40001
2.07522
4.866
5.44366
5.41463
5.41474
5.42172
5.43122
5.43989
5.44826
5.45664
5.46544
5.4735
5.47845
5.47964
5.47808
5.47669
5.47639
5.47861
5.4829
5.4863
5.4872
5.48391
5.47844
5.47159
5.46428
5.45684
5.44616
5.43241
5.41679
5.40017
5.38198
5.35802
5.32611
5.2842
5.23579
5.18177
5.1166
5.02156
4.87726
4.73217
4.6519
1.40001
1.40001
1.40001
1.40001
1.40001
1.40001
1.40001
1.40001
1.40001
1.40001
1.40001
1.40001
1.40001
1.40001
1.40001
1.40001
1.40001
1.40001
1.40001
1.40001
1.40001
1.40001
1.40001
1.40001
1.40001
1.40001
1.40001
1.40001
1.40001
1.40001
1.40001
1.40001
1.40001
1.40001
1.40001
1.40001
1.40001
1.40001
1.40001
1.40001
1.40001
1.40001
1.40001
1.40001
1.40001
1.40001
1.40001
1.40001
1.40001
1.40001
1.40001
1.40001
1.40001
1.40001
1.40001
1.58018
4.52503
5.4851
5.43731
5.428
5.4303
5.43467
5.43732
5.4408
5.44556
5.45158
5.45881
5.46399
5.46584
5.4644
5.46123
5.45799
5.45714
5.45952
5.46244
5.46334
5.45981
5.45349
5.44503
5.43613
5.42707
5.41446
5.39772
5.37711
5.35429
5.3297
5.3008
5.26418
5.21651
5.1609
5.0938
5.01028
4.8962
4.72837
4.53596
4.4216
1.40001
1.40001
1.40001
1.40001
1.40001
1.40001
1.40001
1.40001
1.40001
1.40001
1.40001
1.40001
1.40001
1.40001
1.40001
1.40001
1.40001
1.40001
1.40001
1.40001
1.40001
1.40001
1.40001
1.40001
1.40001
1.40001
1.40001
1.40001
1.40001
1.40001
1.40001
1.40001
1.40001
1.40001
1.40001
1.40001
1.40001
1.40001
1.40001
1.40001
1.40001
1.40001
1.40001
1.40001
1.40001
1.40001
1.40001
1.40001
1.40001
1.40001
1.40001
1.40001
1.40001
1.40001
1.40001
1.40667
3.94366
5.34403
5.37699
5.40332
5.41668
5.42433
5.42795
5.43099
5.43361
5.43675
5.44271
5.44896
5.4529
5.45281
5.44909
5.44259
5.43776
5.43786
5.43978
5.44048
5.43688
5.4295
5.41868
5.40671
5.39488
5.37998
5.36031
5.33573
5.30724
5.27542
5.23981
5.1963
5.14186
5.07742
4.99798
4.8961
4.75145
4.52234
4.10177
3.19632
1.40001
1.40001
1.40001
1.40001
1.40001
1.40001
1.40001
1.40001
1.40001
1.40001
1.40001
1.40001
1.40001
1.40001
1.40001
1.40001
1.40001
1.40001
1.40001
1.40001
1.40001
1.40001
1.40001
1.40001
1.40001
1.40001
1.40001
1.40001
1.40001
1.40001
1.40001
1.40001
1.40001
1.40001
1.40001
1.40001
1.40001
1.40001
1.40001
1.40001
1.40001
1.40001
1.40001
1.40001
1.40001
1.40001
1.40001
1.40001
1.40001
1.40001
1.40001
1.40001
1.40001
1.40001
1.40001
1.40002
3.27247
5.18649
5.36212
5.38501
5.40433
5.41224
5.41632
5.41975
5.42133
5.42358
5.42876
5.43534
5.44034
5.44134
5.4374
5.42857
5.41974
5.4165
5.41658
5.41608
5.41204
5.40384
5.39117
5.3764
5.36176
5.3441
5.32101
5.29225
5.25825
5.21969
5.17638
5.12509
5.06253
4.98763
4.89387
4.76823
4.58232
4.28737
3.79962
2.80852
1.40001
1.40001
1.40001
1.40001
1.40001
1.40001
1.40001
1.40001
1.40001
1.40001
1.40001
1.40001
1.40001
1.40001
1.40001
1.40001
1.40001
1.40001
1.40001
1.40001
1.40001
1.40001
1.40001
1.40001
1.40001
1.40001
1.40001
1.40001
1.40001
1.40001
1.40001
1.40001
1.40001
1.40001
1.40001
1.40001
1.40001
1.40001
1.40001
1.40001
1.40001
1.40001
1.40001
1.40001
1.40001
1.40001
1.40001
1.40001
1.40001
1.40001
1.40001
1.40001
1.40001
1.40001
1.40001
1.40001
2.61168
5.00853
5.35357
5.3671
5.38009
5.39262
5.40226
5.40702
5.40849
5.40998
5.41357
5.41982
5.42554
5.42772
5.42392
5.41414
5.40265
5.39628
5.39419
5.39166
5.38638
5.37668
5.36224
5.34557
5.32838
5.30779
5.28096
5.24752
5.20794
5.16286
5.11181
5.05242
4.9808
4.89482
4.78484
4.63985
4.42248
4.11889
3.546
2.72341
1.40001
1.40001
1.40001
1.40001
1.40001
1.40001
1.40001
1.40001
1.40001
1.40001
1.40001
1.40001
1.40001
1.40001
1.40001
1.40001
1.40001
1.40001
1.40001
1.40001
1.40001
1.40001
1.40001
1.40001
1.40001
1.40001
1.40001
1.40001
1.40001
1.40001
1.40001
1.40001
1.40001
1.40001
1.40001
1.40001
1.40001
1.40001
1.40001
1.40001
1.40001
1.40001
1.40001
1.40001
1.40001
1.40001
1.40001
1.40001
1.40001
1.40001
1.40001
1.40001
1.40001
1.40001
1.40001
1.40001
1.96542
4.83738
5.3962
5.36281
5.36509
5.37805
5.38689
5.39083
5.39275
5.39502
5.39772
5.40271
5.40772
5.4098
5.4057
5.39579
5.38373
5.37543
5.37103
5.36662
5.35954
5.34776
5.33204
5.31402
5.29459
5.27127
5.24082
5.20254
5.15738
5.10596
5.04736
4.98
4.89924
4.80305
4.67988
4.51911
4.28984
3.95071
3.41108
2.75035
1.40001
1.40001
1.40001
1.40001
1.40001
1.40001
1.40001
1.40001
1.40001
1.40001
1.40001
1.40001
1.40001
1.40001
1.40001
1.40001
1.40001
1.40001
1.40001
1.40001
1.40001
1.40001
1.40001
1.40001
1.40001
1.40001
1.40001
1.40001
1.40001
1.40001
1.40001
1.40001
1.40001
1.40001
1.40001
1.40001
1.40001
1.40001
1.40001
1.40001
1.40001
1.40001
1.40001
1.40001
1.40001
1.40001
1.40001
1.40001
1.40001
1.40001
1.40001
1.40001
1.40001
1.40001
1.40001
1.40001
1.47174
4.3377
5.4069
5.37358
5.36966
5.37206
5.37474
5.37471
5.37656
5.37996
5.38165
5.38417
5.38641
5.38736
5.38286
5.37325
5.3617
5.35291
5.34744
5.34135
5.33125
5.31682
5.29929
5.27993
5.25871
5.23328
5.20004
5.15774
5.10758
5.0503
4.98446
4.90932
4.82026
4.71478
4.58254
4.40867
4.17426
3.82983
3.36725
2.8185
1.40001
1.40001
1.40001
1.40001
1.40001
1.40001
1.40001
1.40001
1.40001
1.40001
1.40001
1.40001
1.40001
1.40001
1.40001
1.40001
1.40001
1.40001
1.40001
1.40001
1.40001
1.40001
1.40001
1.40001
1.40001
1.40001
1.40001
1.40001
1.40001
1.40001
1.40001
1.40001
1.40001
1.40001
1.40001
1.40001
1.40001
1.40001
1.40001
1.40001
1.40001
1.40001
1.40001
1.40001
1.40001
1.40001
1.40001
1.40001
1.40001
1.40001
1.40001
1.40001
1.40001
1.40001
1.40001
1.40001
1.40077
3.56199
5.21552
5.3388
5.36643
5.36912
5.3656
5.36322
5.36388
5.3667
5.3675
5.36726
5.36666
5.36487
5.35854
5.3479
5.33582
5.32695
5.32132
5.31365
5.30124
5.2845
5.2649
5.24379
5.22062
5.19328
5.15812
5.11321
5.05924
4.99704
4.92484
4.84229
4.74602
4.63259
4.4939
4.31487
4.08024
3.75842
3.36167
2.8993
1.40001
1.40001
1.40001
1.40001
1.40001
1.40001
1.40001
1.40001
1.40001
1.40001
1.40001
1.40001
1.40001
1.40001
1.40001
1.40001
1.40001
1.40001
1.40001
1.40001
1.40001
1.40001
1.40001
1.40001
1.40001
1.40001
1.40001
1.40001
1.40001
1.40001
1.40001
1.40001
1.40001
1.40001
1.40001
1.40001
1.40001
1.40001
1.40001