/*--------------------------------*- C++ -*----------------------------------*\
  =========                 |
  \\      /  F ield         | OpenFOAM: The Open Source CFD Toolbox
   \\    /   O peration     | Website:  https://openfoam.org
    \\  /    A nd           | Version:  7
     \\/     M anipulation  |
\*---------------------------------------------------------------------------*/
FoamFile
{
    version     2.0;
    format      ascii;
    class       volScalarField;
    location    "1.2";
    object      T;
}
// * * * * * * * * * * * * * * * * * * * * * * * * * * * * * * * * * * * * * //

dimensions      [0 0 0 1 0 0 0];

internalField   nonuniform List<scalar> 
64512
(
1
1
1
1
1
1
1
1
1
1
1
1
1
1
1
1
1
1
1
1
1
1
1
1
1
1
1
1
1
1
1
1
1
1
1
1
1
1
1
1
1
1
1
1
1
1
1
1
1
1
1
1
1.29886
2.50375
2.71901
2.71496
2.71654
2.72243
2.73258
2.74516
2.75914
2.77311
2.78469
2.79271
2.79656
2.79673
2.79518
2.79239
2.79028
2.79087
2.79551
2.8053
2.81699
2.8266
2.83093
2.83131
2.83108
2.83183
2.83486
2.84015
2.84598
2.85075
2.85418
2.85718
2.86014
2.86314
2.8666
2.86994
2.87332
2.87839
2.88908
2.91238
2.95396
3.00631
3.04738
3.0629
1
1
1
1
1
1
1
1
1
1
1
1
1
1
1
1
1
1
1
1
1
1
1
1
1
1
1
1
1
1
1
1
1
1
1
1
1
1
1
1
1
1
1
1
1
1
1
1
1
1
1
1
1.29222
2.50036
2.71773
2.71413
2.71637
2.7226
2.73281
2.74568
2.75986
2.77366
2.78499
2.79276
2.79635
2.79641
2.79482
2.79202
2.78997
2.7906
2.7953
2.80509
2.81678
2.82644
2.83085
2.8313
2.83104
2.83168
2.83458
2.83986
2.84581
2.85073
2.8542
2.85705
2.85973
2.86257
2.86603
2.86959
2.87333
2.8787
2.88946
2.91263
2.95399
3.00614
3.04707
3.06272
1
1
1
1
1
1
1
1
1
1
1
1
1
1
1
1
1
1
1
1
1
1
1
1
1
1
1
1
1
1
1
1
1
1
1
1
1
1
1
1
1
1
1
1
1
1
1
1
1
1
1
1
1.27595
2.49078
2.71513
2.71221
2.71579
2.72325
2.73406
2.74731
2.76141
2.77459
2.78529
2.79253
2.79579
2.79574
2.79408
2.79128
2.78931
2.79003
2.79485
2.80469
2.81638
2.82612
2.83062
2.83116
2.83084
2.83137
2.83417
2.83949
2.84563
2.85078
2.85435
2.85699
2.85922
2.86176
2.86509
2.86889
2.8732
2.87914
2.89017
2.91338
2.95461
3.00641
3.04687
3.06243
1
1
1
1
1
1
1
1
1
1
1
1
1
1
1
1
1
1
1
1
1
1
1
1
1
1
1
1
1
1
1
1
1
1
1
1
1
1
1
1
1
1
1
1
1
1
1
1
1
1
1
1
1.25081
2.47271
2.71097
2.7098
2.71517
2.72432
2.73633
2.75014
2.76385
2.77597
2.78554
2.79193
2.79475
2.79462
2.79297
2.79021
2.78835
2.78919
2.7942
2.80413
2.81582
2.82559
2.83018
2.83078
2.8304
2.83084
2.83357
2.83896
2.84535
2.85076
2.85445
2.85693
2.85872
2.86085
2.86394
2.86789
2.8728
2.8794
2.89088
2.91437
2.95561
3.00703
3.04694
3.06231
1
1
1
1
1
1
1
1
1
1
1
1
1
1
1
1
1
1
1
1
1
1
1
1
1
1
1
1
1
1
1
1
1
1
1
1
1
1
1
1
1
1
1
1
1
1
1
1
1
1
1
1
1.21248
2.44371
2.70713
2.70812
2.71547
2.72628
2.73966
2.75378
2.7667
2.77743
2.78558
2.79091
2.79325
2.79308
2.79148
2.78882
2.78713
2.78815
2.79342
2.80347
2.81516
2.8249
2.82952
2.83014
2.8297
2.83007
2.83278
2.83826
2.8449
2.85059
2.85446
2.85685
2.85829
2.86006
2.8628
2.86669
2.87206
2.87923
2.89123
2.91532
2.95688
3.0081
3.04742
3.06247
1
1
1
1
1
1
1
1
1
1
1
1
1
1
1
1
1
1
1
1
1
1
1
1
1
1
1
1
1
1
1
1
1
1
1
1
1
1
1
1
1
1
1
1
1
1
1
1
1
1
1
1
1.15148
2.40013
2.70528
2.70757
2.71696
2.72959
2.74383
2.75761
2.76939
2.77856
2.78526
2.78954
2.79142
2.79121
2.78966
2.78713
2.78567
2.78693
2.79255
2.80275
2.81443
2.82405
2.82864
2.82926
2.82876
2.82909
2.83181
2.83738
2.84422
2.85016
2.85423
2.85664
2.85789
2.85943
2.86186
2.86552
2.87098
2.87854
2.89108
2.91588
2.95814
3.00946
3.04837
3.06302
1
1
1
1
1
1
1
1
1
1
1
1
1
1
1
1
1
1
1
1
1
1
1
1
1
1
1
1
1
1
1
1
1
1
1
1
1
1
1
1
1
1
1
1
1
1
1
1
1
1
1
1
1.07129
2.3499
2.70576
2.70991
2.72008
2.73357
2.74773
2.76075
2.77134
2.77912
2.78456
2.78796
2.78938
2.78905
2.78745
2.78503
2.78388
2.78548
2.79162
2.80205
2.81373
2.82315
2.82761
2.82818
2.82765
2.82796
2.8307
2.83631
2.84326
2.84938
2.85358
2.8561
2.8574
2.85887
2.86116
2.86453
2.86966
2.87727
2.89031
2.91588
2.95903
3.01083
3.04964
3.06394
1
1
1
1
1
1
1
1
1
1
1
1
1
1
1
1
1
1
1
1
1
1
1
1
1
1
1
1
1
1
1
1
1
1
1
1
1
1
1
1
1
1
1
1
1
1
1
1
1
1
1
1
1.00239
2.30425
2.70486
2.7133
2.72389
2.73712
2.75066
2.7628
2.77236
2.77911
2.78356
2.78621
2.78714
2.78662
2.78482
2.78249
2.78174
2.78382
2.79069
2.80143
2.81308
2.82218
2.82636
2.82686
2.82636
2.82669
2.82948
2.8351
2.84208
2.84827
2.85247
2.85515
2.85668
2.85821
2.86058
2.86372
2.86831
2.87565
2.88889
2.91523
2.95926
3.01184
3.05096
3.06506
1
1
1
1
1
1
1
1
1
1
1
1
1
1
1
1
1
1
1
1
1
1
1
1
1
1
1
1
1
1
1
1
1
1
1
1
1
1
1
1
1
1
1
1
1
1
1
1
1
1
1
1
1.00001
2.257
2.70482
2.7159
2.72644
2.73932
2.75233
2.76376
2.77258
2.77857
2.78219
2.78421
2.78466
2.78387
2.78172
2.7795
2.77923
2.78195
2.7898
2.80093
2.81248
2.82113
2.82486
2.82527
2.82486
2.82528
2.82818
2.8338
2.84071
2.84688
2.85097
2.85375
2.85559
2.85728
2.85986
2.86295
2.86707
2.87389
2.8871
2.91394
2.95881
3.01223
3.05204
3.06621
1
1
1
1
1
1
1
1
1
1
1
1
1
1
1
1
1
1
1
1
1
1
1
1
1
1
1
1
1
1
1
1
1
1
1
1
1
1
1
1
1
1
1
1
1
1
1
1
1
1
1
1
1
2.20441
2.70543
2.71685
2.72752
2.74018
2.75289
2.76397
2.77223
2.77742
2.78032
2.78177
2.7818
2.78069
2.77815
2.77611
2.7763
2.77995
2.78901
2.80059
2.81195
2.81997
2.82307
2.82332
2.82302
2.82359
2.82668
2.83236
2.83919
2.84532
2.84923
2.85202
2.85408
2.85598
2.8588
2.862
2.86584
2.87219
2.88522
2.91224
2.95772
3.01199
3.05264
3.0672
1
1
1
1
1
1
1
1
1
1
1
1
1
1
1
1
1
1
1
1
1
1
1
1
1
1
1
1
1
1
1
1
1
1
1
1
1
1
1
1
1
1
1
1
1
1
1
1
1
1
1
1
1
2.14345
2.70454
2.71658
2.7275
2.74018
2.75283
2.76371
2.77125
2.77559
2.77777
2.77865
2.77843
2.77689
2.77418
2.77246
2.77322
2.77799
2.78828
2.80036
2.81138
2.81863
2.82096
2.82102
2.82081
2.82151
2.82485
2.83073
2.83755
2.84363
2.84745
2.8501
2.85223
2.85433
2.8573
2.86063
2.86444
2.87056
2.88337
2.91029
2.95611
3.01118
3.0527
3.06782
1
1
1
1
1
1
1
1
1
1
1
1
1
1
1
1
1
1
1
1
1
1
1
1
1
1
1
1
1
1
1
1
1
1
1
1
1
1
1
1
1
1
1
1
1
1
1
1
1
1
1
1
1
2.07301
2.70105
2.71504
2.72641
2.73933
2.75204
2.76265
2.7695
2.77306
2.77453
2.77483
2.77435
2.77239
2.76991
2.76882
2.77035
2.7764
2.78766
2.80024
2.81072
2.81707
2.81854
2.81841
2.81822
2.81904
2.82262
2.82878
2.83567
2.84173
2.84559
2.84813
2.85024
2.8524
2.85528
2.85869
2.86269
2.86887
2.8815
2.90818
2.95411
3.00983
3.05222
3.06793
1
1
1
1
1
1
1
1
1
1
1
1
1
1
1
1
1
1
1
1
1
1
1
1
1
1
1
1
1
1
1
1
1
1
1
1
1
1
1
1
1
1
1
1
1
1
1
1
1
1
1
1
1
1.9927
2.69454
2.71258
2.72432
2.73733
2.75
2.76037
2.76676
2.7697
2.77047
2.77035
2.76939
2.7673
2.76546
2.76533
2.7679
2.77554
2.78736
2.80014
2.80988
2.81519
2.81586
2.8156
2.81541
2.81634
2.8201
2.82649
2.83347
2.83955
2.84355
2.84612
2.84822
2.85024
2.85282
2.85617
2.86044
2.86688
2.87948
2.90593
2.95184
3.00805
3.05111
3.0674
1
1
1
1
1
1
1
1
1
1
1
1
1
1
1
1
1
1
1
1
1
1
1
1
1
1
1
1
1
1
1
1
1
1
1
1
1
1
1
1
1
1
1
1
1
1
1
1
1
1
1
1
1
1.9036
2.6846
2.70977
2.72116
2.73359
2.74597
2.75633
2.7628
2.76547
2.76568
2.76533
2.76379
2.76214
2.7611
2.76197
2.76627
2.77556
2.78766
2.80011
2.80887
2.81297
2.81296
2.8125
2.81231
2.81341
2.81742
2.82397
2.83099
2.83709
2.84121
2.84392
2.84606
2.84787
2.85011
2.85327
2.85768
2.86443
2.87715
2.90348
2.94935
3.00588
3.0494
3.06612
1
1
1
1
1
1
1
1
1
1
1
1
1
1
1
1
1
1
1
1
1
1
1
1
1
1
1
1
1
1
1
1
1
1
1
1
1
1
1
1
1
1
1
1
1
1
1
1
1
1
1
1
1
1.80734
2.66863
2.70769
2.7171
2.72828
2.74011
2.75075
2.75782
2.7604
2.76042
2.75986
2.7583
2.75723
2.75714
2.75917
2.76542
2.77605
2.78837
2.79997
2.80759
2.8104
2.80996
2.80925
2.80904
2.81039
2.81474
2.82147
2.82841
2.83439
2.8385
2.84132
2.84358
2.84527
2.84722
2.85011
2.85448
2.86143
2.87434
2.90066
2.94651
3.00329
3.04711
3.06408
1
1
1
1
1
1
1
1
1
1
1
1
1
1
1
1
1
1
1
1
1
1
1
1
1
1
1
1
1
1
1
1
1
1
1
1
1
1
1
1
1
1
1
1
1
1
1
1
1
1
1
1
1
1.69526
2.64054
2.70605
2.71137
2.72068
2.73236
2.74391
2.75195
2.75479
2.75494
2.7545
2.75349
2.75317
2.75406
2.75773
2.76552
2.77694
2.78911
2.79953
2.80583
2.80741
2.80666
2.80573
2.80553
2.80717
2.81201
2.81899
2.82589
2.83165
2.83551
2.83829
2.84061
2.84234
2.84413
2.84679
2.85099
2.85797
2.871
2.89733
2.94318
3.00018
3.04424
3.06128
1
1
1
1
1
1
1
1
1
1
1
1
1
1
1
1
1
1
1
1
1
1
1
1
1
1
1
1
1
1
1
1
1
1
1
1
1
1
1
1
1
1
1
1
1
1
1
1
1
1
1
1
1
1.55344
2.59252
2.70492
2.70415
2.71176
2.72392
2.73663
2.74574
2.74924
2.74966
2.74956
2.74956
2.75021
2.75246
2.75771
2.76639
2.77774
2.78919
2.79827
2.80305
2.80386
2.80301
2.80199
2.80183
2.80378
2.80916
2.81643
2.82337
2.82891
2.83238
2.83489
2.83716
2.83898
2.84078
2.84334
2.84733
2.85417
2.86715
2.89337
2.93919
2.99644
3.04081
3.05788
1
1
1
1
1
1
1
1
1
1
1
1
1
1
1
1
1
1
1
1
1
1
1
1
1
1
1
1
1
1
1
1
1
1
1
1
1
1
1
1
1
1
1
1
1
1
1
1
1
1
1
1
1
1.38958
2.52638
2.70214
2.69807
2.70571
2.71817
2.7315
2.74099
2.74464
2.74479
2.74507
2.74609
2.74801
2.75174
2.75829
2.76759
2.77829
2.78877
2.79624
2.79948
2.79976
2.79884
2.79782
2.79777
2.80011
2.80607
2.81363
2.82069
2.82605
2.82911
2.83125
2.83335
2.83521
2.83713
2.83972
2.84354
2.8501
2.86281
2.88873
2.93442
2.99192
3.03671
3.05386
1
1
1
1
1
1
1
1
1
1
1
1
1
1
1
1
1
1
1
1
1
1
1
1
1
1
1
1
1
1
1
1
1
1
1
1
1
1
1
1
1
1
1
1
1
1
1
1
1
1
1
1
1
1.22529
2.44481
2.70025
2.69619
2.70315
2.71539
2.72875
2.73822
2.74129
2.74131
2.74165
2.7432
2.7462
2.75141
2.75908
2.76841
2.77827
2.78727
2.79288
2.79479
2.79483
2.79395
2.79314
2.7934
2.7963
2.80277
2.81052
2.81766
2.82286
2.8256
2.8274
2.82924
2.83105
2.83313
2.83581
2.8395
2.84571
2.85797
2.88341
2.92882
2.98659
3.03195
3.04928
1
1
1
1
1
1
1
1
1
1
1
1
1
1
1
1
1
1
1
1
1
1
1
1
1
1
1
1
1
1
1
1
1
1
1
1
1
1
1
1
1
1
1
1
1
1
1
1
1
1
1
1
1
1.06996
2.35923
2.69702
2.69868
2.7073
2.71951
2.73118
2.73796
2.73933
2.73901
2.73925
2.74082
2.74429
2.75037
2.75874
2.76805
2.77713
2.78451
2.78832
2.78936
2.78927
2.78854
2.78804
2.78873
2.79231
2.79922
2.80709
2.81417
2.81918
2.82168
2.82326
2.82486
2.82657
2.8288
2.83158
2.83514
2.84098
2.85266
2.87744
2.92241
2.98036
3.02634
3.04393
1
1
1
1
1
1
1
1
1
1
1
1
1
1
1
1
1
1
1
1
1
1
1
1
1
1
1
1
1
1
1
1
1
1
1
1
1
1
1
1
1
1
1
1
1
1
1
1
1
1
1
1
1
1.00175
2.2525
2.69177
2.70585
2.7157
2.72609
2.73419
2.73809
2.73804
2.73724
2.73732
2.73879
2.74248
2.74892
2.75758
2.76657
2.77452
2.78041
2.7828
2.78333
2.7832
2.78268
2.78257
2.78388
2.78827
2.79548
2.80342
2.81023
2.81491
2.81719
2.81867
2.82013
2.82175
2.8241
2.82689
2.83027
2.83569
2.84675
2.87078
2.91521
2.97327
3.0199
3.03782
1
1
1
1
1
1
1
1
1
1
1
1
1
1
1
1
1
1
1
1
1
1
1
1
1
1
1
1
1
1
1
1
1
1
1
1
1
1
1
1
1
1
1
1
1
1
1
1
1
1
1
1
1
1
2.1145
2.68133
2.70997
2.72018
2.72996
2.73635
2.73848
2.73746
2.73578
2.73531
2.73645
2.73984
2.74603
2.75439
2.76286
2.77001
2.77492
2.77658
2.77698
2.77687
2.77661
2.77693
2.77909
2.7843
2.79165
2.79949
2.80589
2.81007
2.81207
2.8135
2.81492
2.81656
2.81898
2.82173
2.82486
2.82984
2.84025
2.86346
2.90721
2.96527
3.01245
3.03067
1
1
1
1
1
1
1
1
1
1
1
1
1
1
1
1
1
1
1
1
1
1
1
1
1
1
1
1
1
1
1
1
1
1
1
1
1
1
1
1
1
1
1
1
1
1
1
1
1
1
1
1
1
1
1.95798
2.65892
2.70565
2.71755
2.72738
2.7334
2.73582
2.735
2.73327
2.73247
2.7333
2.73609
2.74143
2.7489
2.75679
2.76357
2.76826
2.76995
2.77052
2.77055
2.77062
2.77155
2.77467
2.78043
2.78791
2.79536
2.80115
2.80466
2.80633
2.80767
2.80911
2.81093
2.8134
2.81598
2.81875
2.82318
2.83288
2.85526
2.89826
2.95627
3.00399
3.02256
1
1
1
1
1
1
1
1
1
1
1
1
1
1
1
1
1
1
1
1
1
1
1
1
1
1
1
1
1
1
1
1
1
1
1
1
1
1
1
1
1
1
1
1
1
1
1
1
1
1
1
1
1
1
1.77303
2.61512
2.6943
2.70793
2.71813
2.72491
2.72892
2.73017
2.72977
2.72932
2.72973
2.73155
2.73548
2.74165
2.74893
2.75564
2.76063
2.76289
2.76391
2.76429
2.76485
2.7667
2.77083
2.77694
2.78432
2.79108
2.79595
2.79866
2.8
2.80124
2.80274
2.80483
2.80737
2.80972
2.81201
2.81579
2.82474
2.84617
2.88826
2.94602
2.99416
3.01299
1
1
1
1
1
1
1
1
1
1
1
1
1
1
1
1
1
1
1
1
1
1
1
1
1
1
1
1
1
1
1
1
1
1
1
1
1
1
1
1
1
1
1
1
1
1
1
1
1
1
1
1
1
1
1.53323
2.53848
2.68555
2.68993
2.69878
2.7082
2.7167
2.72229
2.72454
2.72487
2.72515
2.72628
2.72896
2.73372
2.74019
2.74692
2.75241
2.7556
2.75737
2.75837
2.75975
2.76253
2.76734
2.77377
2.78072
2.78646
2.79021
2.79206
2.79307
2.79424
2.79587
2.79823
2.80084
2.80286
2.80449
2.80742
2.81538
2.83572
2.87676
2.93426
2.98291
3.00211
1
1
1
1
1
1
1
1
1
1
1
1
1
1
1
1
1
1
1
1
1
1
1
1
1
1
1
1
1
1
1
1
1
1
1
1
1
1
1
1
1
1
1
1
1
1
1
1
1
1
1
1
1
1
1.24926
2.43696
2.68447
2.68087
2.68665
2.69595
2.70643
2.71507
2.71951
2.72044
2.72085
2.72187
2.72394
2.72765
2.73317
2.73949
2.74502
2.74882
2.75119
2.75277
2.75492
2.75858
2.7638
2.77049
2.77692
2.78155
2.78405
2.785
2.78559
2.7866
2.78843
2.79109
2.79376
2.79541
2.79632
2.7983
2.80511
2.8241
2.86371
2.92056
2.96949
2.98887
1
1
1
1
1
1
1
1
1
1
1
1
1
1
1
1
1
1
1
1
1
1
1
1
1
1
1
1
1
1
1
1
1
1
1
1
1
1
1
1
1
1
1
1
1
1
1
1
1
1
1
1
1
1
1.03498
2.3504
2.68174
2.67643
2.68246
2.69092
2.70117
2.70967
2.71438
2.71586
2.71644
2.71741
2.71918
2.72237
2.72733
2.73325
2.7386
2.74256
2.74522
2.74726
2.75008
2.75454
2.76018
2.76695
2.77282
2.77628
2.77752
2.77754
2.77756
2.7783
2.78029
2.78326
2.78604
2.78733
2.78739
2.78818
2.79335
2.81039
2.84813
2.90423
2.95368
2.97361
1
1
1
1
1
1
1
1
1
1
1
1
1
1
1
1
1
1
1
1
1
1
1
1
1
1
1
1
1
1
1
1
1
1
1
1
1
1
1
1
1
1
1
1
1
1
1
1
1
1
1
1
1
1
1.00033
2.21809
2.68068
2.68154
2.6858
2.69266
2.7011
2.7081
2.71232
2.71378
2.7141
2.71474
2.71624
2.7192
2.72384
2.72925
2.73406
2.7376
2.74008
2.74224
2.74537
2.75024
2.75613
2.76277
2.76803
2.77036
2.7706
2.76983
2.76897
2.76942
2.77134
2.77453
2.77741
2.77836
2.77758
2.77716
2.78061
2.7953
2.83052
2.88502
2.93417
2.9538
1
1
1
1
1
1
1
1
1
1
1
1
1
1
1
1
1
1
1
1
1
1
1
1
1
1
1
1
1
1
1
1
1
1
1
1
1
1
1
1
1
1
1
1
1
1
1
1
1
1
1
1
1
1
1
2.04274
2.67066
2.68589
2.69077
2.69714
2.70333
2.70839
2.71148
2.7124
2.71244
2.71286
2.71426
2.71723
2.72167
2.72655
2.73072
2.7336
2.73565
2.73765
2.7407
2.74551
2.75129
2.75754
2.76218
2.76368
2.76326
2.7618
2.76007
2.75995
2.76156
2.76475
2.76762
2.7683
2.7667
2.76492
2.76637
2.77738
2.8085
2.86058
2.90955
2.93012
1
1
1
1
1
1
1
1
1
1
1
1
1
1
1
1
1
1
1
1
1
1
1
1
1
1
1
1
1
1
1
1
1
1
1
1
1
1
1
1
1
1
1
1
1
1
1
1
1
1
1
1
1
1
1
1.80297
2.61132
2.67845
2.68747
2.69473
2.70104
2.70635
2.70901
2.70947
2.70946
2.70999
2.71172
2.715
2.71944
2.72383
2.72739
2.7297
2.73135
2.73311
2.7359
2.74027
2.74547
2.75104
2.755
2.75601
2.75528
2.75328
2.75085
2.74996
2.7511
2.75392
2.75652
2.75686
2.7545
2.75103
2.75023
2.75752
2.78402
2.83239
2.87847
2.8948
1
1
1
1
1
1
1
1
1
1
1
1
1
1
1
1
1
1
1
1
1
1
1
1
1
1
1
1
1
1
1
1
1
1
1
1
1
1
1
1
1
1
1
1
1
1
1
1
1
1
1
1
1
1
1
1.47601
2.49646
2.67519
2.67796
2.6841
2.69189
2.699
2.70288
2.70382
2.70413
2.70509
2.70744
2.71119
2.71572
2.71991
2.72316
2.72509
2.72656
2.72816
2.73066
2.73445
2.73872
2.74331
2.74647
2.74715
2.74635
2.74413
2.74128
2.73967
2.7402
2.74223
2.74415
2.74387
2.74075
2.73526
2.73164
2.73467
2.75304
2.79198
2.83214
2.84574
1
1
1
1
1
1
1
1
1
1
1
1
1
1
1
1
1
1
1
1
1
1
1
1
1
1
1
1
1
1
1
1
1
1
1
1
1
1
1
1
1
1
1
1
1
1
1
1
1
1
1
1
1
1
1
1.12355
2.37343
2.67134
2.66867
2.67234
2.67934
2.68742
2.69267
2.69475
2.69574
2.69732
2.70042
2.70471
2.70954
2.71394
2.71725
2.71917
2.72052
2.72223
2.7246
2.72786
2.73119
2.73468
2.73693
2.73724
2.73642
2.73422
2.73121
2.72903
2.72881
2.72976
2.7307
2.72962
2.72533
2.71773
2.71006
2.7076
2.71709
2.74533
2.77937
2.79813
1
1
1
1
1
1
1
1
1
1
1
1
1
1
1
1
1
1
1
1
1
1
1
1
1
1
1
1
1
1
1
1
1
1
1
1
1
1
1
1
1
1
1
1
1
1
1
1
1
1
1
1
1
1
1
1.00342
2.25309
2.65819
2.65708
2.66141
2.66846
2.67657
2.68242
2.68537
2.68676
2.68838
2.69149
2.69585
2.70089
2.70569
2.70943
2.71171
2.71324
2.71517
2.7176
2.72038
2.72285
2.72528
2.72659
2.72643
2.72548
2.72338
2.7205
2.71799
2.71694
2.71682
2.71648
2.71428
2.70845
2.69857
2.68619
2.67663
2.67414
2.67648
2.65437
2.54107
1
1
1
1
1
1
1
1
1
1
1
1
1
1
1
1
1
1
1
1
1
1
1
1
1
1
1
1
1
1
1
1
1
1
1
1
1
1
1
1
1
1
1
1
1
1
1
1
1
1
1
1
1
1
1
1
2.06307
2.64843
2.65929
2.66254
2.66846
2.67397
2.678
2.68026
2.68099
2.68183
2.68385
2.6872
2.69154
2.69618
2.70019
2.70307
2.705
2.7071
2.70955
2.7118
2.71354
2.71503
2.71557
2.71514
2.71402
2.71205
2.70933
2.70667
2.70485
2.70361
2.70187
2.69807
2.6904
2.67803
2.66134
2.64304
2.62429
2.59887
2.54706
2.37126
1
1
1
1
1
1
1
1
1
1
1
1
1
1
1
1
1
1
1
1
1
1
1
1
1
1
1
1
1
1
1
1
1
1
1
1
1
1
1
1
1
1
1
1
1
1
1
1
1
1
1
1
1
1
1
1
1.77935
2.5886
2.65373
2.65881
2.66448
2.67043
2.67546
2.67807
2.67829
2.678
2.6783
2.68001
2.68308
2.68704
2.69093
2.69432
2.69681
2.69911
2.70139
2.70299
2.70401
2.70462
2.70456
2.70383
2.70259
2.7007
2.69807
2.69524
2.69272
2.69033
2.68704
2.6814
2.67159
2.65664
2.63564
2.60987
2.57686
2.53795
2.44405
2.26732
1
1
1
1
1
1
1
1
1
1
1
1
1
1
1
1
1
1
1
1
1
1
1
1
1
1
1
1
1
1
1
1
1
1
1
1
1
1
1
1
1
1
1
1
1
1
1
1
1
1
1
1
1
1
1
1
1.39298
2.471
2.64871
2.64788
2.6535
2.66313
2.67086
2.67502
2.67583
2.67517
2.67435
2.67474
2.6763
2.6791
2.68241
2.68605
2.68917
2.6917
2.69364
2.69459
2.69483
2.69469
2.69409
2.693
2.69162
2.68973
2.68707
2.68392
2.68068
2.67711
2.67218
2.66461
2.65259
2.63523
2.61073
2.579
2.53728
2.47856
2.37402
2.21958
1
1
1
1
1
1
1
1
1
1
1
1
1
1
1
1
1
1
1
1
1
1
1
1
1
1
1
1
1
1
1
1
1
1
1
1
1
1
1
1
1
1
1
1
1
1
1
1
1
1
1
1
1
1
1
1
1.03762
2.33137
2.64905
2.64359
2.64618
2.65428
2.66369
2.6697
2.67213
2.67181
2.67074
2.67007
2.67052
2.67218
2.67486
2.6786
2.6823
2.68513
2.68675
2.68702
2.68653
2.68551
2.68413
2.68264
2.68107
2.67912
2.67638
2.67287
2.66888
2.66412
2.65748
2.64794
2.63385
2.61427
2.5873
2.55087
2.50321
2.4336
2.33578
2.20301
1
1
1
1
1
1
1
1
1
1
1
1
1
1
1
1
1
1
1
1
1
1
1
1
1
1
1
1
1
1
1
1
1
1
1
1
1
1
1
1
1
1
1
1
1
1
1
1
1
1
1
1
1
1
1
1
1.00031
2.14225
2.62452
2.6334
2.64112
2.64886
2.65628
2.66268
2.66659
2.66727
2.66657
2.66536
2.66513
2.66601
2.66817
2.67179
2.67575
2.67877
2.6802
2.68004
2.67898
2.6771
2.67493
2.67292
2.67099
2.66884
2.66594
2.6621
2.65739
2.65148
2.64322
2.63175
2.61579
2.59427
2.56552
2.52676
2.4757
2.40461
2.31321
2.20234
1
1
1
1
1
1
1
1
1
1
1
1
1
1
1
1
1
1
1
1
1
1
1
1
1
1
1
1
1
1
1
1
1
1
1
1
1
1
1
1
1
1
1
1
1
1
1
1
1
1
1
1
1
1
1
1
0.999999
1.85188
2.58153
2.63032
2.63606
2.64127
2.64821
2.65511
2.65991
2.66164
2.6613
2.65989
2.65927
2.65984
2.66172
2.66523
2.66928
2.67239
2.6737
2.67342
2.67201
2.66948
2.66658
2.66389
2.66132
2.65866
2.65544
2.65135
2.64607
2.63916
2.62952
2.61634
2.59876
2.57567
2.5456
2.50607
2.45465
2.38658
2.30324
2.20653
1
1
1
1
1
1
1
1
1
1
1
1
1
1
1
1
1
1
1
1
1
1
1
1
1
1
1
1
1
1
1
1
1
1
1
1
1
1
1
1
1
1
1
1
1
1
1
1
1
1
1
1
1
1
1
1
1
1.43428
2.47357
2.62468
2.62303
2.62877
2.63804
2.64651
2.65237
2.65491
2.65479
2.65359
2.65286
2.65337
2.65521
2.6587
2.66277
2.66582
2.66685
2.66645
2.66484
2.66201
2.65867
2.6554
2.65212
2.6487
2.64488
2.64043
2.63468
2.62699
2.61629
2.60185
2.58303
2.55875
2.52789
2.48845
2.43836
2.37587
2.30079
2.21612
1
1
1
1
1
1
1
1
1
1
1
1
1
1
1
1
1
1
1
1
1
1
1
1
1
1
1
1
1
1
1
1
1
1
1
1
1
1
1
1
1
1
1
1
1
1
1
1
1
1
1
1
1
1
1
1
1
1.04488
2.3299
2.62636
2.61762
2.62057
2.62881
2.63801
2.64477
2.64781
2.64769
2.64653
2.64564
2.64612
2.64799
2.65158
2.65586
2.65896
2.65966
2.65905
2.65719
2.65417
2.65061
2.64695
2.64307
2.6389
2.63432
2.62929
2.62305
2.61471
2.60324
2.58799
2.56842
2.54348
2.51275
2.47315
2.42577
2.36945
2.30182
2.22775
1
1
1
1
1
1
1
1
1
1
1
1
1
1
1
1
1
1
1
1
1
1
1
1
1
1
1
1
1
1
1
1
1
1
1
1
1
1
1
1
1
1
1
1
1
1
1
1
1
1
1
1
1
1
1
1
1
1.00042
2.1181
2.60034
2.60599
2.61368
2.62271
2.63075
2.63757
2.64105
2.64117
2.63988
2.63847
2.63859
2.64014
2.64373
2.64829
2.65154
2.65198
2.65111
2.64887
2.6456
2.64189
2.63802
2.63377
2.62905
2.62379
2.61801
2.61114
2.60221
2.59014
2.57442
2.55454
2.52952
2.49938
2.46001
2.41661
2.36497
2.30383
2.23823
1
1
1
1
1
1
1
1
1
1
1
1
1
1
1
1
1
1
1
1
1
1
1
1
1
1
1
1
1
1
1
1
1
1
1
1
1
1
1
1
1
1
1
1
1
1
1
1
1
1
1
1
1
1
1
1
1
0.999999
1.75668
2.53864
2.60538
2.60869
2.61497
2.62252
2.62962
2.63392
2.63483
2.63336
2.63131
2.63061
2.6317
2.63505
2.63978
2.64327
2.64376
2.64277
2.64016
2.63648
2.63242
2.62823
2.62371
2.61873
2.61309
2.60669
2.59909
2.58947
2.5769
2.5609
2.541
2.51646
2.4869
2.44959
2.40968
2.36053
2.30534
2.2465
1
1
1
1
1
1
1
1
1
1
1
1
1
1
1
1
1
1
1
1
1
1
1
1
1
1
1
1
1
1
1
1
1
1
1
1
1
1
1
1
1
1
1
1
1
1
1
1
1
1
1
1
1
1
1
1
1
1
1.26241
2.40287
2.60668
2.60197
2.60541
2.61232
2.62015
2.62587
2.62797
2.62679
2.62451
2.623
2.62351
2.62612
2.63045
2.63399
2.63472
2.63382
2.63111
2.62707
2.62253
2.61788
2.61305
2.60788
2.60204
2.59523
2.58696
2.57663
2.56361
2.54744
2.52768
2.50385
2.47512
2.44091
2.40263
2.3556
2.30709
2.25368
1
1
1
1
1
1
1
1
1
1
1
1
1
1
1
1
1
1
1
1
1
1
1
1
1
1
1
1
1
1
1
1
1
1
1
1
1
1
1
1
1
1
1
1
1
1
1
1
1
1
1
1
1
1
1
1
1
1
1.01499
2.24655
2.58773
2.59049
2.59654
2.60335
2.61114
2.61746
2.62035
2.61972
2.61758
2.61565
2.61572
2.61746
2.62094
2.62419
2.62515
2.62444
2.62187
2.61762
2.61256
2.60732
2.60205
2.59667
2.59073
2.58368
2.57487
2.56386
2.55043
2.53408
2.51456
2.49146
2.46399
2.43239
2.39544
2.35278
2.30954
2.25926
1
1
1
1
1
1
1
1
1
1
1
1
1
1
1
1
1
1
1
1
1
1
1
1
1
1
1
1
1
1
1
1
1
1
1
1
1
1
1
1
1
1
1
1
1
1
1
1
1
1
1
1
1
1
1
1
1
1
1.00004
1.93514
2.55096
2.58293
2.59023
2.59594
2.60323
2.60949
2.61271
2.6125
2.61076
2.60875
2.60838
2.60937
2.6118
2.61443
2.61535
2.61476
2.61242
2.60823
2.60288
2.59708
2.59128
2.58559
2.57949
2.57222
2.56294
2.55131
2.53747
2.52091
2.50176
2.47928
2.45339
2.42399
2.38922
2.35107
2.31022
2.2627
1
1
1
1
1
1
1
1
1
1
1
1
1
1
1
1
1
1
1
1
1
1
1
1
1
1
1
1
1
1
1
1
1
1
1
1
1
1
1
1
1
1
1
1
1
1
1
1
1
1
1
1
1
1
1
1
1
1
1
1.45819
2.44893
2.5797
2.57949
2.58536
2.59338
2.60025
2.60426
2.60494
2.60359
2.60166
2.6008
2.60131
2.60293
2.60493
2.60577
2.60522
2.60308
2.5991
2.59365
2.58737
2.58098
2.57486
2.56851
2.561
2.5514
2.53932
2.52516
2.50848
2.48994
2.46794
2.44372
2.41635
2.38387
2.34889
2.30974
2.26605
1
1
1
1
1
1
1
1
1
1
1
1
1
1
1
1
1
1
1
1
1
1
1
1
1
1
1
1
1
1
1
1
1
1
1
1
1
1
1
1
1
1
1
1
1
1
1
1
1
1
1
1
1
1
1
1
1
1
1
1.04835
2.29462
2.57702
2.57327
2.57671
2.58326
2.5903
2.5955
2.59762
2.59666
2.59483
2.59332
2.5931
2.59388
2.59525
2.5961
2.59572
2.59395
2.59034
2.58491
2.57825
2.57124
2.56459
2.55788
2.55016
2.5405
2.52832
2.51408
2.49741
2.47939
2.45769
2.43503
2.40902
2.37832
2.34551
2.30846
2.26986
1
1
1
1
1
1
1
1
1
1
1
1
1
1
1
1
1
1
1
1
1
1
1
1
1
1
1
1
1
1
1
1
1
1
1
1
1
1
1
1
1
1
1
1
1
1
1
1
1
1
1
1
1
1
1
1
1
1
1
1.00044
2.0177
2.54658
2.56215
2.56925
2.57509
2.58154
2.58716
2.5904
2.58993
2.58823
2.58606
2.58476
2.58485
2.58554
2.5863
2.58612
2.5848
2.58164
2.57637
2.56948
2.56195
2.55477
2.54764
2.53971
2.53018
2.51829
2.50434
2.48784
2.46997
2.44883
2.4273
2.40158
2.37263
2.34223
2.3086
2.27398
1
1
1
1
1
1
1
1
1
1
1
1
1
1
1
1
1
1
1
1
1
1
1
1
1
1
1
1
1
1
1
1
1
1
1
1
1
1
1
1
1
1
1
1
1
1
1
1
1
1
1
1
1
1
1
1
1
1
1
0.999999
1.53958
2.4606
2.56143
2.56065
2.56444
2.57042
2.57676
2.58143
2.58241
2.58118
2.57876
2.57645
2.57532
2.57548
2.57601
2.57614
2.57527
2.57261
2.56759
2.56064
2.55282
2.54524
2.53772
2.52958
2.52024
2.50886
2.49556
2.47933
2.46145
2.44132
2.41991
2.39414
2.36781
2.33983
2.30919
2.2769
1
1
1
1
1
1
1
1
1
1
1
1
1
1
1
1
1
1
1
1
1
1
1
1
1
1
1
1
1
1
1
1
1
1
1
1
1
1
1
1
1
1
1
1
1
1
1
1
1
1
1
1
1
1
1
1
1
1
1
1
1.06864
2.29833
2.55962
2.55404
2.5552
2.55945
2.56576
2.57143
2.57419
2.57352
2.57122
2.5683
2.56605
2.56542
2.56564
2.5659
2.56527
2.56297
2.55821
2.55142
2.54367
2.53595
2.52815
2.51977
2.5105
2.49961
2.48711
2.47135
2.45382
2.43456
2.41287
2.38858
2.36466
2.33836
2.31012
2.27954
1
1
1
1
1
1
1
1
1
1
1
1
1
1
1
1
1
1
1
1
1
1
1
1
1
1
1
1
1
1
1
1
1
1
1
1
1
1
1
1
1
1
1
1
1
1
1
1
1
1
1
1
1
1
1
1
1
1
1
1
1.0009
2.01215
2.52581
2.54061
2.54502
2.5502
2.55672
2.56241
2.56597
2.56577
2.56378
2.56056
2.55755
2.55582
2.55565
2.55571
2.55509
2.55283
2.54823
2.54178
2.53438
2.52667
2.5187
2.51013
2.50088
2.49038
2.47864
2.46361
2.44682
2.42814
2.40703
2.38511
2.3624
2.33742
2.31115
2.28213
1
1
1
1
1
1
1
1
1
1
1
1
1
1
1
1
1
1
1
1
1
1
1
1
1
1
1
1
1
1
1
1
1
1
1
1
1
1
1
1
1
1
1
1
1
1
1
1
1
1
1
1
1
1
1
1
1
1
1
1
0.999998
1.49672
2.43369
2.5417
2.53855
2.54151
2.54669
2.55211
2.55638
2.55744
2.55603
2.5531
2.54992
2.54744
2.54645
2.54603
2.54503
2.54262
2.53819
2.53226
2.52525
2.51752
2.50942
2.50069
2.49155
2.48127
2.47001
2.45604
2.4404
2.42259
2.40284
2.38273
2.36075
2.33731
2.31226
2.28445
1
1
1
1
1
1
1
1
1
1
1
1
1
1
1
1
1
1
1
1
1
1
1
1
1
1
1
1
1
1
1
1
1
1
1
1
1
1
1
1
1
1
1
1
1
1
1
1
1
1
1
1
1
1
1
1
1
1
1
1
1
1.05584
2.27068
2.53209
2.52975
2.53195
2.53555
2.54075
2.54594
2.54855
2.54795
2.5459
2.543
2.54
2.53795
2.53668
2.53528
2.53267
2.52854
2.52321
2.51642
2.50855
2.50025
2.49147
2.4822
2.47221
2.46145
2.44866
2.43433
2.41767
2.39952
2.38069
2.35944
2.33727
2.31266
2.28578
1
1
1
1
1
1
1
1
1
1
1
1
1
1
1
1
1
1
1
1
1
1
1
1
1
1
1
1
1
1
1
1
1
1
1
1
1
1
1
1
1
1
1
1
1
1
1
1
1
1
1
1
1
1
1
1
1
1
1
1
1
1.00055
1.92071
2.49085
2.51888
2.52312
2.52643
2.53118
2.53636
2.53968
2.54015
2.53891
2.53629
2.53299
2.52991
2.52744
2.52552
2.5229
2.51931
2.5146
2.50803
2.50007
2.49145
2.48251
2.47311
2.46324
2.45296
2.44124
2.42826
2.41303
2.39654
2.37861
2.35817
2.33673
2.31236
2.28683
1
1
1
1
1
1
1
1
1
1
1
1
1
1
1
1
1
1
1
1
1
1
1
1
1
1
1
1
1
1
1
1
1
1
1
1
1
1
1
1
1
1
1
1
1
1
1
1
1
1
1
1
1
1
1
1
1
1
1
1
1
0.999999
1.33004
2.37299
2.52462
2.51564
2.51641
2.52045
2.5256
2.52968
2.53152
2.53102
2.52902
2.52579
2.522
2.51844
2.51569
2.51315
2.51017
2.50605
2.49993
2.49207
2.48316
2.4739
2.46437
2.45468
2.44463
2.43374
2.42197
2.40827
2.39337
2.37611
2.35638
2.33524
2.31132
2.28746
1
1
1
1
1
1
1
1
1
1
1
1
1
1
1
1
1
1
1
1
1
1
1
1
1
1
1
1
1
1
1
1
1
1
1
1
1
1
1
1
1
1
1
1
1
1
1
1
1
1
1
1
1
1
1
1
1
1
1
1
1
1
1.02288
2.19471
2.50388
2.50084
2.50467
2.50931
2.51473
2.51962
2.52261
2.52286
2.52146
2.51841
2.51424
2.50985
2.50615
2.50342
2.50076
2.49723
2.49173
2.48431
2.47537
2.46579
2.45609
2.44655
2.43667
2.42644
2.41544
2.403
2.38922
2.37257
2.35373
2.33306
2.31028
2.28773
1
1
1
1
1
1
1
1
1
1
1
1
1
1
1
1
1
1
1
1
1
1
1
1
1
1
1
1
1
1
1
1
1
1
1
1
1
1
1
1
1
1
1
1
1
1
1
1
1
1
1
1
1
1
1
1
1
1
1
1
1
1
1.00008
1.74199
2.43941
2.49804
2.49879
2.50053
2.50424
2.50899
2.5127
2.51387
2.51296
2.5103
2.50622
2.50151
2.49719
2.49396
2.49118
2.48802
2.48323
2.47649
2.46795
2.45832
2.44848
2.4389
2.42927
2.41958
2.40894
2.39721
2.38398
2.36797
2.35
2.33001
2.3087
2.28733
1
1
1
1
1
1
1
1
1
1
1
1
1
1
1
1
1
1
1
1
1
1
1
1
1
1
1
1
1
1
1
1
1
1
1
1
1
1
1
1
1
1
1
1
1
1
1
1
1
1
1
1
1
1
1
1
1
1
1
1
1
1
1
1.14228
2.28507
2.49765
2.49107
2.49109
2.49355
2.49801
2.50227
2.5042
2.5037
2.50159
2.49786
2.49323
2.48863
2.48486
2.48166
2.47841
2.47412
2.46812
2.46035
2.45116
2.44134
2.43152
2.42212
2.41276
2.40234
2.39095
2.37796
2.36259
2.34549
2.32665
2.30692
2.28674
1
1
1
1
1
1
1
1
1
1
1
1
1
1
1
1
1
1
1
1
1
1
1
1
1
1
1
1
1
1
1
1
1
1
1
1
1
1
1
1
1
1
1
1
1
1
1
1
1
1
1
1
1
1
1
1
1
1
1
1
1
1
1
1.00411
1.99014
2.45783
2.4752
2.47982
2.48364
2.48854
2.4929
2.49541
2.49537
2.49381
2.49028
2.48564
2.48081
2.47653
2.47276
2.4691
2.4649
2.45947
2.45259
2.44424
2.43471
2.42469
2.41524
2.40583
2.39555
2.3844
2.37173
2.35714
2.34091
2.3234
2.30517
2.28644
1
1
1
1
1
1
1
1
1
1
1
1
1
1
1
1
1
1
1
1
1
1
1
1
1
1
1
1
1
1
1
1
1
1
1
1
1
1
1
1
1
1
1
1
1
1
1
1
1
1
1
1
1
1
1
1
1
1
1
1
1
1
1
0.999999
1.37625
2.34179
2.48223
2.47467
2.47606
2.47941
2.48325
2.48586
2.48622
2.48527
2.48237
2.47791
2.47299
2.46835
2.46413
2.46
2.45557
2.45039
2.4442
2.43684
2.42798
2.41811
2.4084
2.3986
2.38829
2.37746
2.36539
2.35174
2.33663
2.3206
2.30371
2.28619
1
1
1
1
1
1
1
1
1
1
1
1
1
1
1
1
1
1
1
1
1
1
1
1
1
1
1
1
1
1
1
1
1
1
1
1
1
1
1
1
1
1
1
1
1
1
1
1
1
1
1
1
1
1
1
1
1
1
1
1
1
1
1
0.999999
1.02984
2.15844
2.46188
2.46116
2.46463
2.46912
2.47356
2.47645
2.47692
2.47639
2.47422
2.47033
2.4657
2.46094
2.45628
2.45159
2.4467
2.44147
2.43574
2.42926
2.42134
2.412
2.40211
2.39182
2.38126
2.37045
2.35884
2.34608
2.33234
2.31781
2.30216
2.28543
1
1
1
1
1
1
1
1
1
1
1
1
1
1
1
1
1
1
1
1
1
1
1
1
1
1
1
1
1
1
1
1
1
1
1
1
1
1
1
1
1
1
1
1
1
1
1
1
1
1
1
1
1
1
1
1
1
1
1
1
1
1
1
1
1.00014
1.65988
2.38829
2.46037
2.45959
2.46108
2.46417
2.46675
2.46717
2.46684
2.46525
2.46217
2.45801
2.45331
2.44837
2.44331
2.43815
2.43281
2.4272
2.4212
2.41409
2.40553
2.39587
2.3854
2.37448
2.36338
2.35194
2.34006
2.32778
2.31466
2.30024
2.28428
1
1
1
1
1
1
1
1
1
1
1
1
1
1
1
1
1
1
1
1
1
1
1
1
1
1
1
1
1
1
1
1
1
1
1
1
1
1
1
1
1
1
1
1
1
1
1
1
1
1
1
1
1
1
1
1
1
1
1
1
1
1
1
1
1
1.10712
2.22793
2.45879
2.45291
2.453
2.45475
2.45616
2.45675
2.45681
2.45593
2.4538
2.45034
2.44599
2.44101
2.43569
2.43022
2.42459
2.41887
2.41293
2.40631
2.39853
2.38955
2.37945
2.36848
2.35724
2.34584
2.33444
2.32301
2.31078
2.29732
2.28234
1
1
1
1
1
1
1
1
1
1
1
1
1
1
1
1
1
1
1
1
1
1
1
1
1
1
1
1
1
1
1
1
1
1
1
1
1
1
1
1
1
1
1
1
1
1
1
1
1
1
1
1
1
1
1
1
1
1
1
1
1
1
1
1
1
1.00212
1.83588
2.40078
2.43656
2.4424
2.44571
2.44719
2.44773
2.4477
2.44709
2.44562
2.44285
2.43893
2.43399
2.42845
2.4226
2.41674
2.41079
2.40476
2.39826
2.39089
2.38252
2.37296
2.36241
2.35137
2.34016
2.32916
2.31817
2.30644
2.29366
2.27976
1
1
1
1
1
1
1
1
1
1
1
1
1
1
1
1
1
1
1
1
1
1
1
1
1
1
1
1
1
1
1
1
1
1
1
1
1
1
1
1
1
1
1
1
1
1
1
1
1
1
1
1
1
1
1
1
1
1
1
1
1
1
1
1
1
1
1.19829
2.25673
2.44348
2.43507
2.4359
2.43708
2.43779
2.43778
2.43748
2.4365
2.43451
2.43129
2.42677
2.42127
2.41536
2.4093
2.40324
2.39704
2.39039
2.38313
2.37512
2.36612
2.35621
2.34571
2.33509
2.32454
2.31378
2.30221
2.28979
2.27675
1
1
1
1
1
1
1
1
1
1
1
1
1
1
1
1
1
1
1
1
1
1
1
1
1
1
1
1
1
1
1
1
1
1
1
1
1
1
1
1
1
1
1
1
1
1
1
1
1
1
1
1
1
1
1
1
1
1
1
1
1
1
1
1
1
1
1.00778
1.95074
2.40278
2.41542
2.42272
2.42563
2.42827
2.42881
2.42858
2.42771
2.42605
2.42325
2.41911
2.41381
2.40785
2.40168
2.39551
2.3893
2.38279
2.37566
2.36789
2.35923
2.34965
2.3397
2.32969
2.31961
2.30923
2.29799
2.28596
2.27362
1
1
1
1
1
1
1
1
1
1
1
1
1
1
1
1
1
1
1
1
1
1
1
1
1
1
1
1
1
1
1
1
1
1
1
1
1
1
1
1
1
1
1
1
1
1
1
1
1
1
1
1
1
1
1
1
1
1
1
1
1
1
1
1
1
1
1.00001
1.28803
2.26752
2.42271
2.41625
2.41735
2.41987
2.42035
2.42002
2.41894
2.41699
2.41395
2.40991
2.40499
2.39957
2.3937
2.38762
2.38149
2.37527
2.36865
2.36126
2.35279
2.34339
2.33374
2.32417
2.31452
2.3046
2.29386
2.2823
2.27047
1
1
1
1
1
1
1
1
1
1
1
1
1
1
1
1
1
1
1
1
1
1
1
1
1
1
1
1
1
1
1
1
1
1
1
1
1
1
1
1
1
1
1
1
1
1
1
1
1
1
1
1
1
1
1
1
1
1
1
1
1
1
1
1
1
1
1
1.01707
2.00672
2.39165
2.39846
2.40423
2.40869
2.41085
2.4111
2.41043
2.40848
2.40513
2.40084
2.39602
2.39085
2.38524
2.37937
2.37348
2.36764
2.36161
2.3549
2.347
2.33787
2.32828
2.31864
2.30901
2.29932
2.28911
2.27818
2.26696
1
1
1
1
1
1
1
1
1
1
1
1
1
1
1
1
1
1
1
1
1
1
1
1
1
1
1
1
1
1
1
1
1
1
1
1
1
1
1
1
1
1
1
1
1
1
1
1
1
1
1
1
1
1
1
1
1
1
1
1
1
1
1
1
1
1
1
1.00006
1.34935
2.26377
2.40427
2.39873
2.40018
2.40215