/*--------------------------------*- C++ -*----------------------------------*\
  =========                 |
  \\      /  F ield         | OpenFOAM: The Open Source CFD Toolbox
   \\    /   O peration     | Website:  https://openfoam.org
    \\  /    A nd           | Version:  7
     \\/     M anipulation  |
\*---------------------------------------------------------------------------*/
FoamFile
{
    version     2.0;
    format      ascii;
    class       volVectorField;
    location    "1.2";
    object      U;
}
// * * * * * * * * * * * * * * * * * * * * * * * * * * * * * * * * * * * * * //

dimensions      [0 1 -1 0 0 0 0];

internalField   nonuniform List<vector> 
64512
(
(3 -9.29491e-17 0)
(3 -5.7834e-17 0)
(3 -1.46041e-16 0)
(3 -5.76991e-16 0)
(3 -6.53094e-16 0)
(3 -5.8063e-16 0)
(3 -7.99844e-16 0)
(3 -5.99766e-16 0)
(3 -5.98386e-16 0)
(3 -4.6766e-16 0)
(3 -1.96177e-16 0)
(3 1.07707e-16 0)
(3 1.71285e-17 0)
(3 -4.48878e-16 0)
(3 -8.28737e-16 0)
(3 -1.14156e-15 0)
(3 -1.4741e-15 0)
(3 -7.41538e-16 0)
(3 -3.78868e-16 0)
(3 2.70219e-16 0)
(3 9.51608e-16 0)
(3 -5.87767e-17 0)
(3 -6.13243e-16 0)
(3 -3.10731e-16 0)
(3 -2.35666e-16 0)
(3 -1.35085e-16 0)
(3 -3.69207e-16 0)
(3 -8.95655e-16 0)
(3 -3.91825e-16 0)
(3 8.17831e-16 0)
(3 8.07548e-16 0)
(3 1.07709e-15 0)
(3 1.36644e-15 0)
(3 1.31879e-15 0)
(3 1.18451e-15 0)
(3 7.92474e-16 0)
(3 5.41016e-16 0)
(3 -2.46198e-16 0)
(3 -4.60267e-16 0)
(3 -1.16893e-15 0)
(3 -7.60896e-16 0)
(3 -6.39819e-16 0)
(3 -6.50846e-16 0)
(3 -8.40204e-16 0)
(3 -8.02471e-16 0)
(3 -5.1468e-16 0)
(3 3.82839e-16 0)
(3 5.47616e-16 0)
(3 2.32928e-16 0)
(3 1.32258e-16 0)
(3 -4.8684e-17 0)
(3 -8.24523e-16 0)
(2.77193 0.00169296 0)
(0.932779 0.00510319 0)
(0.708888 0.00904675 0)
(0.69325 0.00603249 0)
(0.679343 0.00578324 0)
(0.664581 0.00594419 0)
(0.648807 0.00652746 0)
(0.63398 0.00707798 0)
(0.621158 0.00694858 0)
(0.610098 0.0059904 0)
(0.600003 0.00527511 0)
(0.58881 0.00541468 0)
(0.575514 0.00618139 0)
(0.559234 0.00740989 0)
(0.541225 0.00873835 0)
(0.521438 0.00964192 0)
(0.500511 0.00993053 0)
(0.480773 0.00908273 0)
(0.463053 0.00758341 0)
(0.447313 0.00625371 0)
(0.433026 0.0061478 0)
(0.418054 0.0069693 0)
(0.401442 0.00795661 0)
(0.383336 0.00836025 0)
(0.365565 0.00830882 0)
(0.348125 0.00826169 0)
(0.330704 0.00835874 0)
(0.313212 0.00850483 0)
(0.295742 0.00864258 0)
(0.278581 0.00874319 0)
(0.262002 0.00882294 0)
(0.246411 0.00879676 0)
(0.231169 0.00870065 0)
(0.216292 0.00859223 0)
(0.200204 0.00861998 0)
(0.182451 0.00876389 0)
(0.163143 0.00904923 0)
(0.142732 0.00947605 0)
(0.121797 0.00989185 0)
(0.100967 0.0103109 0)
(0.0801745 0.0106578 0)
(0.0589178 0.0109205 0)
(0.0364621 0.0110115 0)
(0.0126049 0.0111284 0)
(3 -1.29948e-16 0)
(3 -2.59837e-16 0)
(3 -7.43646e-16 0)
(3 -1.90588e-15 0)
(3 -1.68606e-15 0)
(3 -1.48661e-15 0)
(3 -8.177e-16 0)
(3 -3.08938e-16 0)
(3 -1.0017e-15 0)
(3 -1.17012e-15 0)
(3 -9.91036e-16 0)
(3 -1.58832e-16 0)
(3 -2.38575e-16 0)
(3 -7.33356e-16 0)
(3 -2.63288e-16 0)
(3 -5.9234e-16 0)
(3 -5.71708e-16 0)
(3 -7.47352e-16 0)
(3 -4.11481e-16 0)
(3 -1.32175e-16 0)
(3 5.70272e-16 0)
(3 3.7253e-16 0)
(3 -2.68007e-16 0)
(3 -4.19586e-16 0)
(3 -5.4061e-16 0)
(3 -5.27805e-17 0)
(3 -2.35963e-16 0)
(3 -4.55585e-16 0)
(3 9.19256e-16 0)
(3 1.83465e-15 0)
(3 1.80442e-15 0)
(3 1.70492e-15 0)
(3 1.24964e-15 0)
(3 8.29759e-16 0)
(3 6.09781e-16 0)
(3 -1.09314e-16 0)
(3 -5.33024e-16 0)
(3 -1.81335e-15 0)
(3 -2.63483e-15 0)
(3 -2.68443e-15 0)
(3 -4.12922e-16 0)
(3 2.52561e-16 0)
(3 1.70305e-16 0)
(3 1.32888e-16 0)
(3 -6.6813e-16 0)
(3 -7.46336e-16 0)
(3 8.84562e-16 0)
(3 1.70984e-15 0)
(3 7.83872e-16 0)
(3 9.28245e-16 0)
(3 9.4551e-16 0)
(3 -3.01389e-16 0)
(2.77763 0.00896737 0)
(0.932314 0.0240142 0)
(0.702315 0.0270765 0)
(0.68956 0.0166591 0)
(0.676322 0.0155943 0)
(0.6622 0.0169201 0)
(0.647221 0.0190687 0)
(0.633339 0.020718 0)
(0.621165 0.0205198 0)
(0.610045 0.0184267 0)
(0.598777 0.0165874 0)
(0.586064 0.0165181 0)
(0.571571 0.0183997 0)
(0.554615 0.0218624 0)
(0.53635 0.0256959 0)
(0.516608 0.0282402 0)
(0.496172 0.0288026 0)
(0.477306 0.0263698 0)
(0.460419 0.0223779 0)
(0.444787 0.0190073 0)
(0.430042 0.0186446 0)
(0.414689 0.0208863 0)
(0.397852 0.0235429 0)
(0.379699 0.0244703 0)
(0.362103 0.0242682 0)
(0.34496 0.0243453 0)
(0.32778 0.0249298 0)
(0.310443 0.0255282 0)
(0.293081 0.0259348 0)
(0.275938 0.0261256 0)
(0.259312 0.026291 0)
(0.243539 0.0264222 0)
(0.228298 0.0264164 0)
(0.213463 0.0261897 0)
(0.197718 0.026232 0)
(0.180469 0.026443 0)
(0.161629 0.026968 0)
(0.141531 0.0279632 0)
(0.120852 0.0292094 0)
(0.100135 0.0307669 0)
(0.0792438 0.0321586 0)
(0.057879 0.0331268 0)
(0.0355361 0.0334387 0)
(0.0124238 0.0336084 0)
(3 -1.83874e-16 0)
(3 -5.80097e-16 0)
(3 -6.67623e-16 0)
(3 -2.94139e-16 0)
(3 -6.60468e-17 0)
(3 -2.15225e-16 0)
(3 3.34158e-17 0)
(3 2.46188e-16 0)
(3 -3.58812e-16 0)
(3 -3.96575e-16 0)
(3 -2.95527e-16 0)
(3 -4.92957e-16 0)
(3 3.64692e-18 0)
(3 -4.2548e-16 0)
(3 -5.58416e-16 0)
(3 -1.5765e-15 0)
(3 -1.99945e-15 0)
(3 -2.03071e-15 0)
(3 -1.98199e-15 0)
(3 -1.50582e-15 0)
(3 -1.10225e-15 0)
(3 -5.86712e-17 0)
(3 8.57052e-16 0)
(3 -7.40455e-16 0)
(3 -1.07577e-15 0)
(3 -6.85939e-16 0)
(3 1.20996e-16 0)
(3 1.61689e-15 0)
(3 1.71666e-15 0)
(3 8.05779e-16 0)
(3 1.07443e-15 0)
(3 1.32119e-15 0)
(3 9.24015e-16 0)
(3 3.1785e-16 0)
(3 -1.2102e-17 0)
(3 -6.69313e-16 0)
(3 -8.51608e-16 0)
(3 -2.28684e-15 0)
(3 -3.03713e-15 0)
(3 -2.3994e-15 0)
(3 -1.53117e-15 0)
(3 -5.40847e-16 0)
(3 -4.62098e-16 0)
(3 -1.43741e-16 0)
(3 -2.76975e-16 0)
(3 -7.00078e-16 0)
(3 1.79576e-16 0)
(3 1.71908e-15 0)
(3 2.7229e-15 0)
(3 3.33319e-15 0)
(3 3.06557e-15 0)
(3 2.23321e-15 0)
(2.79454 0.0168261 0)
(0.938585 0.0460012 0)
(0.701634 0.0430951 0)
(0.691725 0.0281957 0)
(0.6776 0.0252049 0)
(0.663238 0.0272428 0)
(0.648616 0.030971 0)
(0.635508 0.0340533 0)
(0.623902 0.0342961 0)
(0.612973 0.0316887 0)
(0.60068 0.0292868 0)
(0.586236 0.0292772 0)
(0.570028 0.0321426 0)
(0.551933 0.0374977 0)
(0.533012 0.0433745 0)
(0.512975 0.0470275 0)
(0.492783 0.0472116 0)
(0.474763 0.0430319 0)
(0.45887 0.0369673 0)
(0.443486 0.0321791 0)
(0.428355 0.0319219 0)
(0.412494 0.0355329 0)
(0.395175 0.039635 0)
(0.376709 0.0408858 0)
(0.359062 0.0402951 0)
(0.342022 0.0403098 0)
(0.324862 0.0412431 0)
(0.307443 0.042228 0)
(0.289991 0.042902 0)
(0.272773 0.0432109 0)
(0.256124 0.0434398 0)
(0.240062 0.0436584 0)
(0.224874 0.0438569 0)
(0.209897 0.04373 0)
(0.194229 0.0439264 0)
(0.177341 0.0442755 0)
(0.158983 0.0449098 0)
(0.139312 0.0463079 0)
(0.119139 0.0480659 0)
(0.0987108 0.0503864 0)
(0.077724 0.0526787 0)
(0.0561976 0.0545907 0)
(0.0340097 0.055561 0)
(0.011991 0.0563499 0)
(3 -9.76373e-17 0)
(3 2.03106e-16 0)
(3 7.86153e-16 0)
(3 1.40715e-15 0)
(3 1.42881e-15 0)
(3 5.90015e-16 0)
(3 -1.51891e-16 0)
(3 -4.09329e-17 0)
(3 2.59872e-16 0)
(3 2.82896e-16 0)
(3 2.27932e-16 0)
(3 -4.06851e-16 0)
(3 -7.03068e-16 0)
(3 -1.2006e-15 0)
(3 -2.22547e-15 0)
(3 -3.18793e-15 0)
(3 -3.3631e-15 0)
(3 -1.86355e-15 0)
(3 -1.19452e-15 0)
(3 -1.45253e-15 0)
(3 -1.9237e-15 0)
(3 -2.2397e-15 0)
(3 -2.07948e-15 0)
(3 -1.3022e-15 0)
(3 -7.46599e-16 0)
(3 -1.33902e-16 0)
(3 5.02579e-16 0)
(3 4.78585e-16 0)
(3 2.90853e-16 0)
(3 9.21984e-17 0)
(3 1.06775e-16 0)
(3 6.58994e-16 0)
(3 5.97611e-16 0)
(3 5.30267e-16 0)
(3 6.17409e-17 0)
(3 -2.66809e-16 0)
(3 5.20241e-17 0)
(3 8.34853e-17 0)
(3 -5.30811e-16 0)
(3 -9.53404e-16 0)
(3 -1.54307e-15 0)
(3 -1.44111e-15 0)
(3 -6.15884e-16 0)
(3 -3.33931e-16 0)
(3 2.23651e-17 0)
(3 5.06418e-16 0)
(3 3.72442e-16 0)
(3 7.33566e-16 0)
(3 1.0033e-15 0)
(3 1.34108e-15 0)
(3 2.0624e-15 0)
(3 9.86893e-16 0)
(2.81927 0.02504 0)
(0.948293 0.0694046 0)
(0.704039 0.0557254 0)
(0.697013 0.0378122 0)
(0.682162 0.0339732 0)
(0.667093 0.0372507 0)
(0.652639 0.042743 0)
(0.640173 0.0470319 0)
(0.628995 0.0476759 0)
(0.617829 0.0451406 0)
(0.604479 0.0427113 0)
(0.588641 0.0430906 0)
(0.571131 0.0470089 0)
(0.552222 0.0540845 0)
(0.532845 0.0616197 0)
(0.512608 0.0658237 0)
(0.492714 0.064975 0)
(0.475475 0.0589467 0)
(0.460276 0.0512138 0)
(0.444817 0.0456087 0)
(0.429178 0.0457738 0)
(0.412775 0.0508255 0)
(0.394862 0.0563022 0)
(0.375962 0.0577665 0)
(0.358168 0.0567164 0)
(0.341105 0.0565361 0)
(0.323825 0.057726 0)
(0.306137 0.0590396 0)
(0.288332 0.0599508 0)
(0.270809 0.0603509 0)
(0.253975 0.0606291 0)
(0.23752 0.0608659 0)
(0.222228 0.0612966 0)
(0.206988 0.0615325 0)
(0.191062 0.0619561 0)
(0.174347 0.0624812 0)
(0.156346 0.0631048 0)
(0.136912 0.0644717 0)
(0.117312 0.0664849 0)
(0.0971331 0.0693745 0)
(0.0760222 0.0724159 0)
(0.0543509 0.0753363 0)
(0.032379 0.0772861 0)
(0.0114912 0.0790333 0)
(3 2.79357e-16 0)
(3 5.27246e-16 0)
(3 1.49587e-16 0)
(3 -1.08436e-16 0)
(3 9.63116e-17 0)
(3 5.43191e-18 0)
(3 1.17213e-16 0)
(3 -9.86413e-17 0)
(3 2.19421e-16 0)
(3 -1.26969e-16 0)
(3 -4.75549e-16 0)
(3 -5.89529e-16 0)
(3 -1.69314e-15 0)
(3 -2.79054e-15 0)
(3 -3.06936e-15 0)
(3 -2.39465e-15 0)
(3 -2.11145e-15 0)
(3 -1.78411e-15 0)
(3 -1.21488e-15 0)
(3 -1.36476e-15 0)
(3 -1.75569e-15 0)
(3 -1.29259e-15 0)
(3 -1.62539e-15 0)
(3 -1.56124e-15 0)
(3 -1.54538e-15 0)
(3 -1.86676e-15 0)
(3 -8.2655e-16 0)
(3 -7.74311e-16 0)
(3 -1.35863e-15 0)
(3 -2.03877e-15 0)
(3 -1.94327e-15 0)
(3 -1.52913e-15 0)
(3 -1.0933e-15 0)
(3 -8.90138e-16 0)
(3 -9.75836e-16 0)
(3 -1.04963e-15 0)
(3 -6.00179e-16 0)
(3 1.51854e-16 0)
(3 9.72633e-16 0)
(3 3.12054e-17 0)
(3 -1.60947e-15 0)
(3 -1.98332e-15 0)
(3 -1.60695e-15 0)
(3 -1.45026e-15 0)
(3 -1.06599e-15 0)
(3 -9.32681e-16 0)
(3 -9.66292e-16 0)
(3 -2.21364e-16 0)
(3 4.77454e-16 0)
(3 4.18982e-16 0)
(3 6.76442e-16 0)
(3 -1.41009e-15 0)
(2.85503 0.0352716 0)
(0.964927 0.0914523 0)
(0.710872 0.0658883 0)
(0.703384 0.0448142 0)
(0.686849 0.0434765 0)
(0.670397 0.0490063 0)
(0.655757 0.0560479 0)
(0.643583 0.0608412 0)
(0.632405 0.0616079 0)
(0.620625 0.0592174 0)
(0.606261 0.0570023 0)
(0.589341 0.0578046 0)
(0.57102 0.0626974 0)
(0.551824 0.071229 0)
(0.532492 0.0799429 0)
(0.512523 0.0840444 0)
(0.4934 0.0817235 0)
(0.47708 0.0740484 0)
(0.462372 0.065223 0)
(0.446841 0.0593114 0)
(0.430827 0.0600634 0)
(0.41412 0.0664994 0)
(0.395813 0.0732302 0)
(0.376654 0.0749393 0)
(0.358885 0.073429 0)
(0.341922 0.0730264 0)
(0.324625 0.0744211 0)
(0.306676 0.076017 0)
(0.288389 0.0771289 0)
(0.270414 0.0776008 0)
(0.25334 0.0779086 0)
(0.236583 0.0782022 0)
(0.221184 0.0789036 0)
(0.205648 0.0796359 0)
(0.189158 0.0803453 0)
(0.172261 0.0811345 0)
(0.15411 0.0817322 0)
(0.134873 0.0828331 0)
(0.115615 0.0848087 0)
(0.0957145 0.087854 0)
(0.0745964 0.0914518 0)
(0.0528851 0.0954217 0)
(0.0311143 0.0984921 0)
(0.0110446 0.101465 0)
(3 9.15887e-17 0)
(3 -4.27964e-16 0)
(3 -5.6931e-16 0)
(3 -7.33285e-16 0)
(3 -5.30304e-16 0)
(3 4.08442e-16 0)
(3 7.1327e-16 0)
(3 5.66564e-16 0)
(3 4.39527e-16 0)
(3 1.4956e-16 0)
(3 -1.87617e-16 0)
(3 -1.89245e-16 0)
(3 -3.10183e-16 0)
(3 -6.512e-16 0)
(3 -7.82973e-16 0)
(3 -5.44327e-16 0)
(3 -9.14401e-16 0)
(3 -1.34358e-15 0)
(3 -1.49949e-15 0)
(3 -1.34765e-15 0)
(3 -1.0047e-15 0)
(3 -7.53751e-16 0)
(3 -2.94004e-16 0)
(3 -2.53687e-16 0)
(3 -9.88943e-16 0)
(3 -1.88925e-15 0)
(3 -1.50224e-15 0)
(3 -9.70289e-16 0)
(3 -1.46807e-15 0)
(3 -2.67002e-15 0)
(3 -3.08266e-15 0)
(3 -2.91571e-15 0)
(3 -1.8237e-15 0)
(3 -1.92404e-15 0)
(3 -1.57605e-15 0)
(3 -4.8697e-16 0)
(3 4.8232e-16 0)
(3 1.00702e-15 0)
(3 1.19046e-15 0)
(3 -2.20497e-16 0)
(3 -1.05294e-15 0)
(3 -1.90921e-15 0)
(3 -2.50119e-15 0)
(3 -2.86326e-15 0)
(3 -2.86581e-15 0)
(3 -2.01357e-15 0)
(3 -8.33757e-16 0)
(3 8.45752e-16 0)
(3 1.25533e-15 0)
(3 8.0619e-16 0)
(3 -2.2882e-16 0)
(3 -2.18694e-15 0)
(2.90725 0.0422242 0)
(0.993036 0.105248 0)
(0.720147 0.0726487 0)
(0.709071 0.0531157 0)
(0.691127 0.0561257 0)
(0.673274 0.0638295 0)
(0.6583 0.0708627 0)
(0.645928 0.0750193 0)
(0.634396 0.0754548 0)
(0.622133 0.0731633 0)
(0.607292 0.0712808 0)
(0.589934 0.0728092 0)
(0.571216 0.0788631 0)
(0.551804 0.0887662 0)
(0.532402 0.098176 0)
(0.512692 0.101494 0)
(0.494485 0.097462 0)
(0.478961 0.0884543 0)
(0.464494 0.0790336 0)
(0.449125 0.0731575 0)
(0.432966 0.0745532 0)
(0.416266 0.082241 0)
(0.39779 0.0901332 0)
(0.378452 0.0921916 0)
(0.3607 0.0903772 0)
(0.343822 0.0898068 0)
(0.32654 0.0913787 0)
(0.308358 0.093217 0)
(0.289546 0.0945168 0)
(0.271046 0.0950761 0)
(0.253789 0.0954442 0)
(0.236927 0.0957913 0)
(0.221576 0.0966817 0)
(0.205923 0.0978707 0)
(0.188872 0.0989083 0)
(0.171339 0.0999956 0)
(0.152757 0.100714 0)
(0.133538 0.101665 0)
(0.114391 0.103274 0)
(0.0947733 0.106331 0)
(0.0738325 0.110211 0)
(0.0522601 0.115085 0)
(0.0306236 0.11921 0)
(0.0107771 0.123408 0)
(3 -1.05759e-16 0)
(3 -6.29795e-16 0)
(3 2.85107e-17 0)
(3 2.34371e-16 0)
(3 3.94809e-16 0)
(3 4.56113e-16 0)
(3 8.75899e-17 0)
(3 2.3376e-16 0)
(3 4.15811e-16 0)
(3 3.59968e-16 0)
(3 -7.42448e-17 0)
(3 -1.70019e-16 0)
(3 -3.71587e-17 0)
(3 6.58967e-16 0)
(3 1.47744e-15 0)
(3 1.42221e-15 0)
(3 1.20329e-15 0)
(3 6.14684e-16 0)
(3 7.64484e-17 0)
(3 -3.96665e-16 0)
(3 -1.04265e-15 0)
(3 -2.01505e-15 0)
(3 -1.79323e-15 0)
(3 -1.24684e-15 0)
(3 -1.26454e-15 0)
(3 -1.14815e-15 0)
(3 -2.03893e-15 0)
(3 -1.94117e-15 0)
(3 -1.56779e-15 0)
(3 -1.24764e-15 0)
(3 -1.66516e-15 0)
(3 -1.83464e-15 0)
(3 -1.61021e-15 0)
(3 -1.25893e-15 0)
(3 -5.1555e-16 0)
(3 5.92793e-16 0)
(3 1.0745e-15 0)
(3 1.60003e-15 0)
(3 1.30516e-15 0)
(3 8.75148e-16 0)
(3 3.36459e-16 0)
(3 -3.22336e-16 0)
(3 -9.14343e-16 0)
(3 -1.29946e-15 0)
(3 -1.0721e-15 0)
(3 -2.67761e-16 0)
(3 6.43187e-16 0)
(3 1.08909e-15 0)
(3 5.07822e-16 0)
(3 3.17626e-17 0)
(3 -8.53791e-16 0)
(3 -2.05022e-15 0)
(2.95943 0.0175696 0)
(1.03322 0.105747 0)
(0.730702 0.0778828 0)
(0.712649 0.0664075 0)
(0.693397 0.0732778 0)
(0.675057 0.0808572 0)
(0.660292 0.0862225 0)
(0.647698 0.0892125 0)
(0.635902 0.0889259 0)
(0.623414 0.086543 0)
(0.608347 0.0852965 0)
(0.590759 0.0879861 0)
(0.571569 0.0954824 0)
(0.551771 0.106751 0)
(0.532102 0.116258 0)
(0.512786 0.118093 0)
(0.495846 0.11222 0)
(0.481163 0.102151 0)
(0.466878 0.0924997 0)
(0.45174 0.0869363 0)
(0.435549 0.0890674 0)
(0.418896 0.0979227 0)
(0.400249 0.106962 0)
(0.380614 0.109526 0)
(0.362724 0.107597 0)
(0.34586 0.10692 0)
(0.328648 0.108608 0)
(0.310397 0.110611 0)
(0.291254 0.112091 0)
(0.27234 0.112795 0)
(0.254963 0.113284 0)
(0.23828 0.11372 0)
(0.22306 0.114624 0)
(0.207457 0.116106 0)
(0.189994 0.117474 0)
(0.171568 0.118836 0)
(0.152414 0.119887 0)
(0.13287 0.120917 0)
(0.113666 0.122299 0)
(0.0942965 0.125157 0)
(0.0737589 0.12917 0)
(0.0525251 0.134612 0)
(0.0309677 0.139497 0)
(0.0107347 0.144663 0)
(3 -1.57404e-16 0)
(3 -1.46138e-16 0)
(3 -4.03353e-17 0)
(3 1.0065e-16 0)
(3 -1.98731e-16 0)
(3 -2.90687e-16 0)
(3 1.08824e-16 0)
(3 4.76764e-16 0)
(3 5.47679e-16 0)
(3 2.94771e-16 0)
(3 -8.7541e-16 0)
(3 -1.47074e-15 0)
(3 -1.36217e-15 0)
(3 -9.13009e-16 0)
(3 2.5655e-16 0)
(3 9.11444e-16 0)
(3 1.3688e-15 0)
(3 8.57736e-16 0)
(3 -7.17562e-17 0)
(3 -6.66031e-16 0)
(3 -1.85814e-15 0)
(3 -2.18618e-15 0)
(3 -2.40946e-15 0)
(3 -2.12527e-15 0)
(3 -1.20371e-15 0)
(3 9.54619e-17 0)
(3 -1.6886e-16 0)
(3 -8.41176e-16 0)
(3 -8.24969e-16 0)
(3 -3.36526e-16 0)
(3 2.13481e-17 0)
(3 -6.88577e-16 0)
(3 -7.41826e-16 0)
(3 -2.4014e-16 0)
(3 8.48589e-16 0)
(3 2.03601e-15 0)
(3 1.58816e-15 0)
(3 5.88375e-16 0)
(3 -4.29526e-17 0)
(3 -8.85483e-17 0)
(3 -2.13806e-16 0)
(3 -1.61079e-16 0)
(3 -1.23655e-16 0)
(3 -1.79184e-16 0)
(3 -1.73308e-16 0)
(3 -3.83419e-16 0)
(3 7.79464e-17 0)
(3 4.23069e-16 0)
(3 1.74071e-16 0)
(3 -1.09063e-15 0)
(3 -2.17288e-15 0)
(3 -2.09348e-15 0)
(2.99926 0.00255456 0)
(1.09068 0.105953 0)
(0.735051 0.0860936 0)
(0.712146 0.0839751 0)
(0.694184 0.0917678 0)
(0.676951 0.0977974 0)
(0.662307 0.101295 0)
(0.649409 0.102907 0)
(0.637425 0.101798 0)
(0.624812 0.0995391 0)
(0.609618 0.0993288 0)
(0.591809 0.103517 0)
(0.571967 0.112669 0)
(0.551673 0.125148 0)
(0.531672 0.133938 0)
(0.513014 0.133676 0)
(0.497669 0.125979 0)
(0.483753 0.115169 0)
(0.469476 0.105652 0)
(0.454485 0.100675 0)
(0.438262 0.10371 0)
(0.421638 0.11372 0)
(0.40285 0.123899 0)
(0.382929 0.127027 0)
(0.364904 0.125026 0)
(0.348097 0.124186 0)
(0.331083 0.125855 0)
(0.312956 0.12795 0)
(0.293683 0.12966 0)
(0.274372 0.130637 0)
(0.256678 0.13141 0)
(0.240164 0.132076 0)
(0.224917 0.132897 0)
(0.209404 0.134424 0)
(0.191764 0.136038 0)
(0.172486 0.137608 0)
(0.152795 0.139112 0)
(0.13261 0.140534 0)
(0.113213 0.141929 0)
(0.0939717 0.144655 0)
(0.0740164 0.148614 0)
(0.0533042 0.154258 0)
(0.0318508 0.159435 0)
(0.0108784 0.165154 0)
(3 7.2914e-17 0)
(3 2.90861e-17 0)
(3 -1.25533e-16 0)
(3 -3.19849e-16 0)
(3 -6.40164e-16 0)
(3 -2.69909e-16 0)
(3 5.40836e-16 0)
(3 3.9761e-16 0)
(3 9.85183e-17 0)
(3 -6.5841e-16 0)
(3 -5.99856e-16 0)
(3 -3.38942e-16 0)
(3 -7.24637e-16 0)
(3 -7.8152e-16 0)
(3 -8.60697e-16 0)
(3 -6.43593e-16 0)
(3 -8.48084e-16 0)
(3 -1.70149e-15 0)
(3 -1.76002e-15 0)
(3 -1.18085e-15 0)
(3 -1.50383e-15 0)
(3 -1.37568e-16 0)
(3 -2.40181e-16 0)
(3 -5.32637e-16 0)
(3 9.79915e-17 0)
(3 1.85241e-16 0)
(3 7.79276e-17 0)
(3 -5.16625e-16 0)
(3 -1.19672e-15 0)
(3 -1.18074e-15 0)
(3 -6.62653e-16 0)
(3 -7.09081e-18 0)
(3 2.60351e-16 0)
(3 4.67674e-16 0)
(3 6.32157e-16 0)
(3 5.48088e-16 0)
(3 5.81548e-16 0)
(3 -5.78933e-17 0)
(3 -1.24938e-15 0)
(3 -9.48461e-16 0)
(3 -8.27607e-16 0)
(3 -8.88763e-16 0)
(3 -5.97581e-16 0)
(3 -9.57576e-16 0)
(3 -1.10721e-15 0)
(3 -6.42265e-16 0)
(3 -7.0541e-17 0)
(3 -6.7853e-16 0)
(3 -1.13983e-15 0)
(3 -1.39485e-15 0)
(3 -1.46609e-15 0)
(3 -1.53622e-15 0)
(3.00001 1.02824e-05 0)
(1.15696 0.119076 0)
(0.738103 0.0963956 0)
(0.713186 0.102349 0)
(0.695586 0.109366 0)
(0.67878 0.113708 0)
(0.664028 0.11549 0)
(0.650929 0.115906 0)
(0.638917 0.114196 0)
(0.626154 0.11261 0)
(0.610816 0.113763 0)
(0.592722 0.119696 0)
(0.572086 0.130588 0)
(0.551315 0.143769 0)
(0.531206 0.15081 0)
(0.513658 0.148096 0)
(0.500201 0.138806 0)
(0.487107 0.127581 0)
(0.472779 0.118535 0)
(0.457832 0.114388 0)
(0.441525 0.118547 0)
(0.424802 0.129774 0)
(0.405812 0.141072 0)
(0.385581 0.144704 0)
(0.367392 0.142554 0)
(0.350569 0.141452 0)
(0.333726 0.143006 0)
(0.315763 0.14516 0)
(0.296537 0.147177 0)
(0.276887 0.148594 0)
(0.258725 0.149818 0)
(0.242208 0.150893 0)
(0.226802 0.151669 0)
(0.211469 0.152942 0)
(0.194024 0.154636 0)
(0.174446 0.156362 0)
(0.154126 0.158323 0)
(0.133327 0.160383 0)
(0.113458 0.162086 0)
(0.0941055 0.1649 0)
(0.074552 0.168615 0)
(0.0543351 0.174214 0)
(0.0329679 0.179185 0)
(0.0111782 0.185019 0)
(3 1.25025e-16 0)
(3 6.06638e-16 0)
(3 5.73672e-16 0)
(3 2.99834e-16 0)
(3 4.82526e-16 0)
(3 6.56528e-16 0)
(3 5.58742e-16 0)
(3 3.58932e-16 0)
(3 -2.72958e-16 0)
(3 -2.63135e-16 0)
(3 2.65338e-16 0)
(3 8.66533e-16 0)
(3 8.76278e-16 0)
(3 3.52668e-16 0)
(3 -1.07427e-16 0)
(3 -1.23436e-15 0)
(3 -1.55211e-15 0)
(3 -1.60194e-15 0)
(3 -7.86194e-16 0)
(3 1.88817e-16 0)
(3 2.46368e-16 0)
(3 -9.56001e-17 0)
(3 -5.85815e-17 0)
(3 -6.98043e-17 0)
(3 -4.65857e-16 0)
(3 -6.45356e-16 0)
(3 -9.66295e-16 0)
(3 -1.57372e-15 0)
(3 -2.31348e-15 0)
(3 -2.42831e-15 0)
(3 -1.92145e-15 0)
(3 -4.65095e-16 0)
(3 -1.00897e-16 0)
(3 -4.26263e-17 0)
(3 -2.14499e-16 0)
(3 -7.98581e-16 0)
(3 -4.55069e-16 0)
(3 -9.5166e-16 0)
(3 -1.14906e-15 0)
(3 -8.30791e-16 0)
(3 -5.32294e-16 0)
(3 -4.67702e-16 0)
(3 1.40378e-16 0)
(3 3.4774e-16 0)
(3 7.28011e-16 0)
(3 4.6107e-16 0)
(3 1.6522e-16 0)
(3 -1.2209e-16 0)
(3 -9.32359e-16 0)
(3 -7.91339e-16 0)
(3 -5.41679e-16 0)
(3 -9.62455e-16 0)
(3 4.695e-09 0)
(1.23991 0.132486 0)
(0.743124 0.107379 0)
(0.715435 0.120721 0)
(0.696538 0.125958 0)
(0.679666 0.12823 0)
(0.664922 0.128655 0)
(0.651954 0.128166 0)
(0.640096 0.12653 0)
(0.62713 0.125984 0)
(0.611564 0.128983 0)
(0.592844 0.136862 0)
(0.571592 0.14941 0)
(0.55066 0.162196 0)
(0.531237 0.166289 0)
(0.51573 0.161099 0)
(0.504095 0.150647 0)
(0.491772 0.13943 0)
(0.477187 0.131285 0)
(0.461928 0.128283 0)
(0.44532 0.133832 0)
(0.42825 0.146378 0)
(0.408929 0.158693 0)
(0.388377 0.16263 0)
(0.370055 0.16017 0)
(0.353184 0.15872 0)
(0.336508 0.160124 0)
(0.318783 0.162286 0)
(0.29986 0.164611 0)
(0.280075 0.166594 0)
(0.261421 0.168297 0)
(0.244643 0.169904 0)
(0.228849 0.170867 0)
(0.213637 0.171754 0)
(0.196588 0.173441 0)
(0.177127 0.175299 0)
(0.156306 0.177611 0)
(0.135006 0.180361 0)
(0.114338 0.182604 0)
(0.094538 0.185747 0)
(0.0749927 0.189332 0)
(0.0550333 0.194504 0)
(0.0337863 0.198995 0)
(0.011486 0.204585 0)
(3 -4.04751e-17 0)
(3 -1.02375e-17 0)
(3 8.16796e-17 0)
(3 3.1374e-16 0)
(3 1.07358e-15 0)
(3 8.89081e-16 0)
(3 4.81007e-16 0)
(3 2.17752e-16 0)
(3 -1.7288e-16 0)
(3 4.57764e-16 0)
(3 4.03881e-16 0)
(3 -3.09769e-16 0)
(3 -6.91983e-16 0)
(3 -3.64302e-16 0)
(3 9.40517e-17 0)
(3 4.33334e-16 0)
(3 2.04624e-16 0)
(3 7.93167e-16 0)
(3 9.99047e-16 0)
(3 8.00363e-16 0)
(3 3.78186e-16 0)
(3 -4.62392e-16 0)
(3 -4.90851e-16 0)
(3 -7.26359e-16 0)
(3 -7.31724e-16 0)
(3 -6.50096e-17 0)
(3 -4.70514e-17 0)
(3 -3.54765e-16 0)
(3 -8.51623e-16 0)
(3 -1.03126e-15 0)
(3 -1.09883e-15 0)
(3 -9.28325e-16 0)
(3 -3.93966e-16 0)
(3 -2.48814e-16 0)
(3 -2.222e-17 0)
(3 -1.03854e-16 0)
(3 -4.27618e-16 0)
(3 -1.28716e-15 0)
(3 -1.30145e-15 0)
(3 -1.67462e-15 0)
(3 -1.30101e-15 0)
(3 -6.49464e-16 0)
(3 1.53234e-16 0)
(3 1.17733e-15 0)
(3 9.13267e-16 0)
(3 -2.58474e-16 0)
(3 -5.85489e-16 0)
(3 -3.59135e-16 0)
(3 -5.08111e-16 0)
(3 -1.05372e-15 0)
(3 -1.47704e-15 0)
(3 -1.29156e-15 0)
(3 1.56632e-13 0)
(1.34202 0.146068 0)
(0.750698 0.119886 0)
(0.717433 0.139214 0)
(0.697061 0.141727 0)
(0.68005 0.141554 0)
(0.665607 0.140812 0)
(0.653097 0.139826 0)
(0.641378 0.138752 0)
(0.628016 0.139839 0)
(0.611927 0.145249 0)
(0.592279 0.155329 0)
(0.570948 0.168946 0)
(0.550633 0.179461 0)
(0.533228 0.179735 0)
(0.52048 0.172374 0)
(0.509767 0.161569 0)
(0.497574 0.151161 0)
(0.482523 0.144225 0)
(0.466598 0.14271 0)
(0.449593 0.149824 0)
(0.432075 0.163677 0)
(0.412437 0.176756 0)
(0.39166 0.180692 0)
(0.373277 0.177774 0)
(0.356309 0.175961 0)
(0.339716 0.177242 0)
(0.322243 0.179444 0)
(0.303703 0.182092 0)
(0.283965 0.18462 0)
(0.264837 0.186792 0)
(0.247406 0.188925 0)
(0.231073 0.190337 0)
(0.215671 0.191076 0)
(0.198984 0.192776 0)
(0.179886 0.19474 0)
(0.158947 0.197217 0)
(0.137226 0.200527 0)
(0.115779 0.203363 0)
(0.0952903 0.20692 0)
(0.0753214 0.210476 0)
(0.0552342 0.215308 0)
(0.0340546 0.218989 0)
(0.0117169 0.224232 0)
(3 -4.44468e-17 0)
(3 -9.61276e-17 0)
(3 -1.2839e-16 0)
(3 1.16928e-16 0)
(3 -5.48429e-18 0)
(3 -1.41405e-16 0)
(3 -3.09345e-16 0)
(3 -1.08438e-15 0)
(3 -6.16049e-16 0)
(3 1.05603e-16 0)
(3 8.08971e-17 0)
(3 -9.02187e-16 0)
(3 -7.93967e-16 0)
(3 -7.40789e-16 0)
(3 -6.2673e-16 0)
(3 -9.05469e-17 0)
(3 3.62303e-16 0)
(3 9.65605e-16 0)
(3 5.99164e-16 0)
(3 -3.40152e-16 0)
(3 -8.83263e-16 0)
(3 -9.37924e-16 0)
(3 -1.40105e-15 0)
(3 -1.57591e-15 0)
(3 -1.06746e-15 0)
(3 -1.01824e-15 0)
(3 -5.02141e-16 0)
(3 9.34486e-17 0)
(3 -1.08415e-16 0)
(3 6.7647e-17 0)
(3 3.80722e-16 0)
(3 2.89504e-16 0)
(3 6.30103e-16 0)
(3 2.57374e-16 0)
(3 -8.65503e-17 0)
(3 1.36808e-16 0)
(3 1.50827e-16 0)
(3 -2.87793e-17 0)
(3 4.12763e-16 0)
(3 5.44985e-16 0)
(3 1.12947e-16 0)
(3 2.20679e-16 0)
(3 2.22318e-16 0)
(3 4.55129e-16 0)
(3 9.41976e-17 0)
(3 -1.27356e-16 0)
(3 -6.77377e-16 0)
(3 -1.12148e-15 0)
(3 -1.11643e-15 0)
(3 -1.89775e-15 0)
(3 -1.9808e-15 0)
(3 -5.07264e-16 0)
(3 -2.04749e-15 0)
(1.46631 0.159106 0)
(0.761236 0.134385 0)
(0.718862 0.157902 0)
(0.697879 0.157296 0)
(0.681179 0.154289 0)
(0.667246 0.152237 0)
(0.655086 0.150978 0)
(0.643015 0.151115 0)
(0.628798 0.154581 0)
(0.611565 0.162878 0)
(0.590855 0.175024 0)
(0.570247 0.18822 0)
(0.551955 0.194315 0)
(0.538252 0.190645 0)
(0.527633 0.182221 0)
(0.516678 0.172239 0)
(0.503856 0.163395 0)
(0.488516 0.157635 0)
(0.47169 0.157886 0)
(0.4543 0.166625 0)
(0.436296 0.181675 0)
(0.416322 0.195155 0)
(0.395451 0.198736 0)
(0.377052 0.19526 0)
(0.359899 0.193147 0)
(0.343262 0.194427 0)
(0.325994 0.19687 0)
(0.30786 0.199871 0)
(0.288342 0.202796 0)
(0.268907 0.20539 0)
(0.250725 0.207893 0)
(0.233753 0.209891 0)
(0.217938 0.210923 0)
(0.20152 0.21268 0)
(0.183003 0.214755 0)
(0.162317 0.217268 0)
(0.140344 0.220919 0)
(0.118205 0.224269 0)
(0.0968387 0.228231 0)
(0.0760388 0.231852 0)
(0.0553582 0.236513 0)
(0.0339664 0.239498 0)
(0.0118828 0.244373 0)
(3 -8.74517e-17 0)
(3 -8.63179e-17 0)
(3 4.56184e-17 0)
(3 -1.61793e-16 0)
(3 -1.03056e-15 0)
(3 -9.48478e-16 0)
(3 -9.45874e-16 0)
(3 -1.25163e-15 0)
(3 -6.60332e-16 0)
(3 -6.01487e-16 0)
(3 -1.4334e-16 0)
(3 8.6215e-16 0)
(3 1.83777e-15 0)
(3 1.29231e-15 0)
(3 8.74984e-16 0)
(3 -1.19931e-17 0)
(3 1.41669e-16 0)
(3 -9.68659e-17 0)
(3 -8.23073e-16 0)
(3 -1.97634e-15 0)
(3 -1.70053e-15 0)
(3 -1.17275e-15 0)
(3 -1.32668e-15 0)
(3 -1.75047e-15 0)
(3 -1.81864e-15 0)
(3 -1.77511e-15 0)
(3 -8.91268e-16 0)
(3 3.57554e-16 0)
(3 9.37206e-16 0)
(3 6.0673e-16 0)
(3 8.88953e-16 0)
(3 9.92768e-16 0)
(3 4.53925e-16 0)
(3 -1.58079e-17 0)
(3 4.50568e-17 0)
(3 1.05688e-17 0)
(3 2.51479e-16 0)
(3 -1.85635e-16 0)
(3 1.80644e-16 0)
(3 7.0576e-16 0)
(3 9.39313e-16 0)
(3 8.87736e-16 0)
(3 6.43866e-16 0)
(3 -2.68442e-16 0)
(3 -3.3326e-16 0)
(3 -4.02645e-16 0)
(3 -1.12688e-15 0)
(3 -1.1006e-15 0)
(3 -9.85151e-16 0)
(3 -8.56618e-16 0)
(3 -5.77419e-16 0)
(3 3.65003e-16 0)
(3 7.63e-17 0)
(1.61434 0.1701 0)
(0.775047 0.151505 0)
(0.718937 0.176466 0)
(0.698754 0.17225 0)
(0.682898 0.166428 0)
(0.669397 0.163257 0)
(0.657027 0.162315 0)
(0.64402 0.164447 0)
(0.628524 0.170808 0)
(0.609747 0.181806 0)
(0.589066 0.195001 0)
(0.57068 0.205341 0)
(0.556405 0.205735 0)
(0.546426 0.199278 0)
(0.536439 0.191353 0)
(0.524644 0.182958 0)
(0.510708 0.175916 0)
(0.495143 0.17156 0)
(0.477292 0.173673 0)
(0.459515 0.184092 0)
(0.440929 0.20024 0)
(0.420547 0.213753 0)
(0.39964 0.21666 0)
(0.381218 0.212537 0)
(0.363749 0.210211 0)
(0.346915 0.211705 0)
(0.329753 0.21466 0)
(0.311987 0.218098 0)
(0.292783 0.221339 0)
(0.273286 0.224212 0)
(0.254547 0.226881 0)
(0.236878 0.229478 0)
(0.22057 0.231123 0)
(0.204225 0.233022 0)
(0.186252 0.235346 0)
(0.165993 0.237907 0)
(0.143904 0.241669 0)
(0.121159 0.245356 0)
(0.0988426 0.249667 0)
(0.0769775 0.253458 0)
(0.0554118 0.258164 0)
(0.0335912 0.260724 0)
(0.0119111 0.265351 0)
(3 -6.98866e-17 0)
(3 1.70921e-16 0)
(3 2.3116e-16 0)
(3 -9.06251e-17 0)
(3 -4.71521e-16 0)
(3 -3.44329e-17 0)
(3 -6.48514e-17 0)
(3 8.4494e-17 0)
(3 2.28372e-17 0)
(3 -8.50897e-17 0)
(3 3.94763e-16 0)
(3 1.72725e-15 0)
(3 2.09209e-15 0)
(3 2.33986e-15 0)
(3 1.8136e-15 0)
(3 9.77359e-16 0)
(3 -1.99912e-16 0)
(3 -1.96403e-15 0)
(3 -2.00774e-15 0)
(3 -1.89997e-15 0)
(3 -1.24336e-15 0)
(3 -9.13738e-16 0)
(3 -4.50736e-16 0)
(3 -3.29126e-16 0)
(3 -4.1086e-16 0)
(3 3.18779e-16 0)
(3 4.37855e-16 0)
(3 5.05092e-16 0)
(3 1.29686e-15 0)
(3 8.47853e-16 0)
(3 5.25147e-16 0)
(3 2.40909e-17 0)
(3 -4.72509e-16 0)
(3 7.05474e-18 0)
(3 7.09221e-16 0)
(3 1.14938e-15 0)
(3 1.111e-15 0)
(3 1.17439e-15 0)
(3 1.00017e-15 0)
(3 5.78176e-16 0)
(3 3.37873e-16 0)
(3 -3.581e-16 0)
(3 -5.71989e-16 0)
(3 -3.19241e-16 0)
(3 -2.60591e-16 0)
(3 -9.49884e-16 0)
(3 -5.14786e-16 0)
(3 -4.9695e-16 0)
(3 5.05101e-16 0)
(3 1.15034e-15 0)
(3 1.29965e-15 0)
(3 -3.38004e-16 0)
(3 2.83074e-15 0)
(1.78279 0.178074 0)
(0.791679 0.1736 0)
(0.715622 0.193217 0)
(0.698579 0.18529 0)
(0.684575 0.177591 0)
(0.671786 0.174188 0)
(0.65886 0.174376 0)
(0.644914 0.179434 0)
(0.627992 0.18887 0)
(0.608451 0.2014 0)
(0.589824 0.213375 0)
(0.574818 0.218354 0)
(0.564864 0.214037 0)
(0.556264 0.207236 0)
(0.545585 0.201016 0)
(0.532624 0.194484 0)
(0.517259 0.18934 0)
(0.500739 0.186538 0)
(0.481716 0.19049 0)
(0.46311 0.202493 0)
(0.44381 0.219454 0)
(0.42331 0.232537 0)
(0.402669 0.23445 0)
(0.384676 0.229567 0)
(0.367318 0.227041 0)
(0.350624 0.228859 0)
(0.333701 0.232512 0)
(0.316335 0.236625 0)
(0.29747 0.240259 0)
(0.278057 0.24331 0)
(0.259019 0.246052 0)
(0.240669 0.249127 0)
(0.223896 0.25149 0)
(0.207369 0.253735 0)
(0.189638 0.25649 0)
(0.169674 0.259211 0)
(0.147478 0.262946 0)
(0.124211 0.266777 0)
(0.101036 0.27133 0)
(0.0781119 0.275351 0)
(0.0555765 0.280285 0)
(0.0332086 0.282696 0)
(0.0118623 0.287322 0)
(3 4.21502e-17 0)
(3 1.24856e-16 0)
(3 5.79919e-17 0)
(3 4.18122e-17 0)
(3 4.34272e-17 0)
(3 -2.91271e-16 0)
(3 -3.1711e-16 0)
(3 5.93423e-16 0)
(3 6.97184e-16 0)
(3 5.6527e-16 0)
(3 5.99588e-16 0)
(3 3.73016e-16 0)
(3 6.73889e-17 0)
(3 -1.51245e-16 0)
(3 1.02245e-16 0)
(3 -2.43458e-17 0)
(3 -2.75207e-16 0)
(3 -3.9308e-16 0)
(3 -1.423e-15 0)
(3 -7.87349e-16 0)
(3 -9.56317e-16 0)
(3 -8.50956e-16 0)
(3 -2.12209e-16 0)
(3 8.87226e-16 0)
(3 1.32873e-15 0)
(3 7.64888e-16 0)
(3 1.6182e-16 0)
(3 4.38588e-16 0)
(3 8.81586e-16 0)
(3 1.3784e-15 0)
(3 1.15929e-15 0)
(3 3.25483e-16 0)
(3 -1.17045e-16 0)
(3 9.71522e-17 0)
(3 1.47633e-17 0)
(3 2.61263e-16 0)
(3 2.52264e-16 0)
(3 6.82476e-16 0)
(3 5.83663e-16 0)
(3 3.40789e-17 0)
(3 -3.25841e-17 0)
(3 -2.48204e-16 0)
(3 -9.61525e-16 0)
(3 -4.48367e-16 0)
(3 2.00574e-16 0)
(3 -3.63549e-16 0)
(3 -4.8221e-16 0)
(3 -7.11219e-16 0)
(3 7.29942e-17 0)
(3 1.63386e-15 0)
(3 1.5561e-15 0)
(3 2.5006e-15 0)
(3 -1.00871e-15 0)
(1.96715 0.18871 0)
(0.810004 0.202215 0)
(0.714607 0.207755 0)
(0.704198 0.196526 0)
(0.690587 0.188765 0)
(0.676706 0.186295 0)
(0.661533 0.188693 0)
(0.64552 0.196838 0)
(0.627205 0.208184 0)
(0.609472 0.220104 0)
(0.594952 0.227703 0)
(0.583934 0.226644 0)
(0.575498 0.221303 0)
(0.566213 0.216065 0)
(0.554427 0.211843 0)
(0.540204 0.207307 0)
(0.523697 0.203527 0)
(0.505995 0.202506 0)
(0.486409 0.208056 0)
(0.466974 0.221356 0)
(0.447308 0.238744 0)
(0.426778 0.250937 0)
(0.406461 0.251606 0)
(0.388972 0.24596 0)
(0.371798 0.24327 0)
(0.355272 0.245477 0)
(0.338471 0.249994 0)
(0.321313 0.255121 0)
(0.302515 0.259401 0)
(0.283058 0.262754 0)
(0.263801 0.265648 0)
(0.244843 0.269023 0)
(0.227622 0.272057 0)
(0.210813 0.274903 0)
(0.193101 0.278148 0)
(0.173321 0.281091 0)
(0.151108 0.284757 0)
(0.127496 0.288618 0)
(0.10371 0.29333 0)
(0.0799133 0.297646 0)
(0.056443 0.302969 0)
(0.0333422 0.305467 0)
(0.011906 0.310271 0)
(3 -2.04988e-16 0)
(3 -3.21151e-16 0)
(3 -4.65997e-16 0)
(3 -2.1506e-16 0)
(3 1.63189e-16 0)
(3 -6.41997e-16 0)
(3 -1.33169e-15 0)
(3 -4.08472e-16 0)
(3 1.87798e-16 0)