/*--------------------------------*- C++ -*----------------------------------*\
  =========                 |
  \\      /  F ield         | OpenFOAM: The Open Source CFD Toolbox
   \\    /   O peration     | Website:  https://openfoam.org
    \\  /    A nd           | Version:  7
     \\/     M anipulation  |
\*---------------------------------------------------------------------------*/
FoamFile
{
    version     2.0;
    format      ascii;
    class       volVectorField;
    location    "3.8";
    object      U;
}
// * * * * * * * * * * * * * * * * * * * * * * * * * * * * * * * * * * * * * //

dimensions      [0 1 -1 0 0 0 0];

internalField   nonuniform List<vector> 
4032
(
(3 2.48086e-17 0)
(3 4.93099e-17 0)
(3 8.61168e-17 0)
(3 -3.71382e-17 0)
(3 -2.04593e-16 0)
(3 -2.6652e-16 0)
(3 -2.92266e-16 0)
(3 -1.645e-16 0)
(3 -2.29237e-16 0)
(3 -1.22957e-16 0)
(3 6.42552e-17 0)
(2.92281 0.002928 0)
(0.999805 0.016982 0)
(0.70586 0.0194654 0)
(0.653247 0.0237533 0)
(0.593195 0.0253411 0)
(0.533256 0.026798 0)
(0.470993 0.0283498 0)
(0.406568 0.0298991 0)
(0.339931 0.0314564 0)
(0.271152 0.0330647 0)
(0.199219 0.0354151 0)
(0.123223 0.0371884 0)
(0.0451797 0.0412467 0)
(3 1.74712e-16 0)
(3 5.51789e-16 0)
(3 2.2829e-16 0)
(3 1.2144e-16 0)
(3 5.06811e-17 0)
(3 -9.55555e-17 0)
(3 -2.80596e-16 0)
(3 -6.0361e-16 0)
(3 -1.00544e-15 0)
(3 -5.61735e-16 0)
(3 3.94778e-16 0)
(2.93364 0.0208961 0)
(1.00902 0.0772961 0)
(0.695487 0.0682704 0)
(0.641515 0.0719423 0)
(0.583176 0.0770576 0)
(0.524096 0.0821833 0)
(0.462301 0.0876504 0)
(0.397897 0.0929827 0)
(0.330986 0.0981295 0)
(0.261999 0.102932 0)
(0.190671 0.109748 0)
(0.116148 0.114706 0)
(0.0417989 0.124736 0)
(3 1.07854e-16 0)
(3 3.3759e-16 0)
(3 3.17203e-16 0)
(3 1.30854e-16 0)
(3 2.47383e-16 0)
(3 -1.70088e-16 0)
(3 -6.61153e-16 0)
(3 -7.33435e-16 0)
(3 -3.68267e-16 0)
(3 2.01081e-16 0)
(3 1.07476e-15 0)
(2.97537 0.0226288 0)
(1.05078 0.138289 0)
(0.715067 0.115281 0)
(0.660303 0.121527 0)
(0.600008 0.12992 0)
(0.539424 0.13844 0)
(0.476981 0.147687 0)
(0.41211 0.156841 0)
(0.344232 0.165693 0)
(0.273146 0.173471 0)
(0.198985 0.184202 0)
(0.120514 0.191362 0)
(0.0432454 0.20492 0)
(3 1.8632e-17 0)
(3 -2.92841e-16 0)
(3 1.30042e-16 0)
(3 2.11448e-16 0)
(3 1.02626e-16 0)
(3 -1.22997e-16 0)
(3 -3.89383e-16 0)
(3 2.6683e-18 0)
(3 5.0641e-16 0)
(3 3.96809e-16 0)
(3 1.43142e-16 0)
(3.00429 0.00326585 0)
(1.13166 0.181383 0)
(0.739755 0.154896 0)
(0.686979 0.168032 0)
(0.629201 0.180016 0)
(0.569902 0.19143 0)
(0.508566 0.204499 0)
(0.443609 0.218608 0)
(0.373529 0.233849 0)
(0.297445 0.247795 0)
(0.217096 0.26493 0)
(0.131317 0.276034 0)
(0.0459723 0.292255 0)
(3 9.77852e-17 0)
(3 1.02417e-17 0)
(3 -6.26163e-17 0)
(3 -8.69808e-18 0)
(3 -1.19298e-17 0)
(3 2.97174e-16 0)
(3 3.28973e-16 0)
(3 7.10764e-16 0)
(3 6.79063e-16 0)
(3 3.24243e-16 0)
(3 -1.04135e-15 0)
(3.0002 1.15425e-05 0)
(1.2534 0.227235 0)
(0.748236 0.199656 0)
(0.68942 0.21666 0)
(0.635378 0.232515 0)
(0.579313 0.247089 0)
(0.521789 0.264713 0)
(0.46065 0.284816 0)
(0.394806 0.30751 0)
(0.321869 0.327789 0)
(0.242804 0.351394 0)
(0.151605 0.369216 0)
(0.056046 0.391795 0)
(3 3.04221e-17 0)
(3 7.59395e-17 0)
(3 -1.82491e-16 0)
(3 -8.22899e-17 0)
(3 -3.08077e-16 0)
(3 -4.92575e-16 0)
(3 1.33006e-16 0)
(3 3.41846e-16 0)
(3 2.59217e-16 0)
(3 1.67349e-16 0)
(3 -5.07838e-16 0)
(3 -3.06133e-08 0)
(1.44744 0.277251 0)
(0.766997 0.25144 0)
(0.691235 0.262332 0)
(0.641122 0.279133 0)
(0.590765 0.29574 0)
(0.541315 0.31712 0)
(0.488187 0.342808 0)
(0.428696 0.374561 0)
(0.355948 0.407276 0)
(0.271185 0.446467 0)
(0.16959 0.481814 0)
(0.0570667 0.513519 0)
(3 -1.46208e-16 0)
(3 -3.36852e-16 0)
(3 -1.15921e-16 0)
(3 3.18564e-16 0)
(3 8.19962e-17 0)
(3 -3.43656e-16 0)
(3 -2.61598e-16 0)
(3 -8.17625e-16 0)
(3 -9.37482e-16 0)
(3 -7.90251e-16 0)
(3 -6.4057e-16 0)
(3 -2.10525e-08 0)
(1.73534 0.328979 0)
(0.80012 0.318702 0)
(0.694359 0.313053 0)
(0.641892 0.325734 0)
(0.59262 0.341715 0)
(0.548288 0.365837 0)
(0.502956 0.398174 0)
(0.455456 0.441436 0)
(0.396547 0.490732 0)
(0.327651 0.544622 0)
(0.236249 0.597409 0)
(0.102495 0.658552 0)
(3 6.79187e-18 0)
(3 1.62063e-16 0)
(3 3.57295e-16 0)
(3 1.05203e-16 0)
(3 2.44117e-16 0)
(3 2.05628e-16 0)
(3 -1.15788e-16 0)
(3 -6.7651e-16 0)
(3 -1.53706e-15 0)
(3 -1.73773e-15 0)
(3 -9.42265e-16 0)
(3 -4.04753e-09 0)
(2.15944 0.361979 0)
(0.865198 0.40473 0)
(0.722935 0.3738 0)
(0.670791 0.381424 0)
(0.620474 0.392131 0)
(0.576245 0.413575 0)
(0.53586 0.447927 0)
(0.496818 0.496883 0)
(0.454193 0.558133 0)
(0.393574 0.641284 0)
(0.275822 0.758913 0)
(0.152191 0.924096 0)
(3 -4.07948e-17 0)
(3 1.15502e-16 0)
(3 1.78367e-16 0)
(3 -2.37676e-16 0)
(3 4.67347e-17 0)
(3 6.13339e-16 0)
(3 3.39527e-16 0)
(3 2.79154e-16 0)
(3 -2.46221e-16 0)
(3 -1.30059e-15 0)
(3 -1.03814e-15 0)
(3 -3.77337e-10 0)
(2.75152 0.262403 0)
(1.01483 0.479406 0)
(0.81274 0.412526 0)
(0.758194 0.420751 0)
(0.696263 0.437602 0)
(0.641194 0.459157 0)
(0.59603 0.493211 0)
(0.55866 0.544867 0)
(0.525836 0.622402 0)
(0.494021 0.748507 0)
(0.463856 0.922528 0)
(0.578098 1.20229 0)
(3 -1.52641e-16 0)
(3 -1.93899e-16 0)
(3 1.80193e-16 0)
(3 2.8898e-16 0)
(3 4.94728e-16 0)
(3 7.1182e-16 0)
(3 6.46923e-16 0)
(3 5.75607e-16 0)
(3 2.93384e-16 0)
(3 -5.26067e-16 0)
(3 -4.99675e-16 0)
(3 -1.24418e-11 0)
(3.06721 0.028503 0)
(1.24709 0.46885 0)
(0.882407 0.454355 0)
(0.839232 0.485016 0)
(0.783546 0.497581 0)
(0.726958 0.514436 0)
(0.677181 0.544022 0)
(0.637211 0.59356 0)
(0.618671 0.677432 0)
(0.619497 0.81332 0)
(0.684491 0.963908 0)
(0.969779 1.13937 0)
(3 9.4586e-17 0)
(3 2.08247e-16 0)
(3 4.52498e-17 0)
(3 5.40241e-16 0)
(3 4.59538e-16 0)
(3 2.25855e-16 0)
(3 1.23816e-16 0)
(3 9.69147e-17 0)
(3 -5.21338e-17 0)
(3 -5.79041e-16 0)
(3 -3.11417e-16 0)
(3 -1.89471e-13 0)
(3.00513 2.77785e-05 0)
(1.48615 0.464519 0)
(0.878244 0.516211 0)
(0.833978 0.538356 0)
(0.801989 0.558576 0)
(0.773448 0.579376 0)
(0.743851 0.606815 0)
(0.717383 0.646339 0)
(0.718314 0.717405 0)
(0.74597 0.831729 0)
(0.869157 0.9575 0)
(1.1762 1.06531 0)
(3 5.29952e-17 0)
(3 3.5995e-16 0)
(3 -8.08724e-17 0)
(3 -3.48596e-16 0)
(3 -3.6256e-16 0)
(3 -1.36834e-16 0)
(3 -1.18784e-16 0)
(3 3.51363e-17 0)
(3 1.72712e-17 0)
(3 1.72285e-16 0)
(3 8.55276e-16 0)
(3 -2.24805e-16 0)
(3.00003 -1.17281e-06 0)
(2.04174 0.491462 0)
(0.936136 0.58336 0)
(0.855264 0.561591 0)
(0.842041 0.585815 0)
(0.828495 0.612866 0)
(0.816016 0.645845 0)
(0.804828 0.682205 0)
(0.816334 0.743304 0)
(0.864798 0.832483 0)
(1.00844 0.935363 0)
(1.27301 1.00463 0)
(3 -3.39343e-17 0)
(3 -7.99619e-17 0)
(3 -2.14708e-17 0)
(3 -4.12388e-16 0)
(3 -7.39556e-16 0)
(3 -3.06013e-16 0)
(3 -2.26402e-16 0)
(3 -1.64322e-16 0)
(3 1.81878e-16 0)
(3 1.93656e-15 0)
(3 2.72223e-15 0)
(3 2.66063e-15 0)
(3 -1.31346e-06 0)
(2.85274 0.267861 0)
(1.12611 0.628831 0)
(0.93113 0.571235 0)
(0.909498 0.6011 0)
(0.893257 0.634955 0)
(0.887009 0.674074 0)
(0.889309 0.713088 0)
(0.907637 0.763824 0)
(0.968489 0.829493 0)
(1.10518 0.901345 0)
(1.31678 0.943509 0)
(3 8.97532e-17 0)
(3 -1.63045e-16 0)
(3 3.59436e-17 0)
(3 3.18779e-16 0)
(3 4.15902e-16 0)
(3 -8.6597e-17 0)
(3 9.15495e-17 0)
(3 -5.27038e-17 0)
(3 6.28558e-16 0)
(3 1.27051e-15 0)
(3 1.39446e-15 0)
(3 1.4564e-15 0)
(3 -2.67647e-07 0)
(3.06363 0.0157859 0)
(1.44621 0.61381 0)
(0.991212 0.651935 0)
(0.945561 0.653699 0)
(0.929434 0.674812 0)
(0.935315 0.70589 0)
(0.954197 0.742815 0)
(0.987931 0.78353 0)
(1.0573 0.831736 0)
(1.17973 0.880214 0)
(1.34753 0.905598 0)
(3 8.82204e-17 0)
(3 1.0573e-16 0)
(3 -1.22617e-16 0)
(3 1.41747e-16 0)
(3 7.36837e-16 0)
(3 1.10643e-15 0)
(3 1.06272e-15 0)
(3 1.00981e-15 0)
(3 1.03773e-15 0)
(3 3.98476e-16 0)
(3 2.93521e-16 0)
(3 3.05554e-16 0)
(3 -2.58567e-08 0)
(3.00233 2.39401e-05 0)
(2.04444 0.591952 0)
(1.05394 0.719009 0)
(1.00172 0.691166 0)
(0.989788 0.692631 0)
(0.995353 0.715151 0)
(1.01676 0.748123 0)
(1.05862 0.786941 0)
(1.12953 0.825362 0)
(1.23426 0.856745 0)
(1.36738 0.870321 0)
(3 -1.28713e-16 0)
(3 -2.81082e-16 0)
(3 -1.47362e-16 0)
(3 2.39579e-16 0)
(3 5.85674e-16 0)
(3 9.17827e-16 0)
(3 8.18962e-16 0)
(3 1.1159e-15 0)
(3 1.73011e-15 0)
(3 1.36657e-15 0)
(3 6.83847e-16 0)
(3 1.93452e-16 0)
(3 -7.56227e-10 0)
(3.00001 -1.82718e-07 0)
(2.98189 0.19273 0)
(1.29488 0.688155 0)
(1.07685 0.710045 0)
(1.07946 0.71475 0)
(1.07765 0.738822 0)
(1.08811 0.768149 0)
(1.12342 0.797408 0)
(1.18853 0.828547 0)
(1.27761 0.850313 0)
(1.38839 0.857472 0)
(3 -7.05706e-17 0)
(3 -2.78677e-16 0)
(3 -3.18283e-16 0)
(3 -3.17155e-16 0)
(3 -3.60951e-17 0)
(3 9.2823e-17 0)
(3 1.40742e-16 0)
(3 2.68162e-16 0)
(3 2.63536e-16 0)
(3 4.03419e-16 0)
(3 1.3952e-16 0)
(3 1.46778e-16 0)
(3 -1.47871e-12 0)
(3 -2.85116e-07 0)
(3.03589 0.00425153 0)
(1.59472 0.655327 0)
(1.09584 0.755096 0)
(1.10393 0.761273 0)
(1.11144 0.779214 0)
(1.13556 0.79416 0)
(1.17421 0.809482 0)
(1.23422 0.824946 0)
(1.3109 0.837493 0)
(1.4075 0.840216 0)
(3 2.75469e-17 0)
(3 -1.76447e-16 0)
(3 -4.05635e-16 0)
(3 -7.08082e-16 0)
(3 -9.25784e-16 0)
(3 -5.72712e-16 0)
(3 -3.08951e-17 0)
(3 -6.24564e-17 0)
(3 -1.67773e-16 0)
(3 4.39615e-17 0)
(3 1.42822e-16 0)
(3 -5.87447e-16 0)
(3 -2.47508e-15 0)
(3 -5.02212e-08 0)
(3.0006 2.02711e-05 0)
(2.44619 0.488529 0)
(1.2143 0.786606 0)
(1.13037 0.788641 0)
(1.14461 0.7912 0)
(1.1718 0.802287 0)
(1.21269 0.816137 0)
(1.26914 0.829384 0)
(1.33965 0.838676 0)
(1.42458 0.838928 0)
(3 1.07005e-16 0)
(3 5.40456e-16 0)
(3 3.27208e-16 0)
(3 -1.26255e-16 0)
(3 -7.37837e-16 0)
(3 -5.5574e-16 0)
(3 1.51747e-16 0)
(3 1.61768e-16 0)
(3 2.98975e-16 0)
(3 6.16537e-17 0)
(3 -6.54887e-16 0)
(3 -1.29448e-15 0)
(3 -8.01047e-16 0)
(3 -1.11624e-09 0)
(3.00003 -9.26054e-06 0)
(3.06234 0.0613262 0)
(1.58608 0.774625 0)
(1.18323 0.786985 0)
(1.19763 0.794447 0)
(1.2169 0.806249 0)
(1.25329 0.816571 0)
(1.30234 0.826537 0)
(1.36551 0.832074 0)
(1.44057 0.83118 0)
(3 -4.66124e-17 0)
(3 3.18406e-16 0)
(3 5.86344e-16 0)
(3 5.01493e-16 0)
(3 3.19571e-16 0)
(3 -8.72929e-16 0)
(3 -1.11499e-15 0)
(3 -9.29043e-16 0)
(3 -9.65987e-16 0)
(3 -9.84605e-16 0)
(3 -7.47243e-16 0)
(3 -5.71815e-16 0)
(3 4.52855e-18 0)
(3 -2.59919e-12 0)
(3 -2.28236e-06 0)
(3.00679 0.00119947 0)
(2.36163 0.608198 0)
(1.27965 0.854205 0)
(1.22616 0.839117 0)
(1.25343 0.834833 0)
(1.2837 0.837521 0)
(1.32797 0.840382 0)
(1.38454 0.840147 0)
(1.4504 0.837202 0)
(3 -3.40556e-17 0)
(3 -2.18687e-16 0)
(3 3.48207e-16 0)
(3 5.58218e-16 0)
(3 7.04442e-16 0)
(3 2.7139e-16 0)
(3 -1.11007e-15 0)
(3 -1.51839e-15 0)
(3 -1.95309e-15 0)
(3 -1.9106e-15 0)
(3 -6.82995e-16 0)
(3 1.38273e-16 0)
(3 2.28642e-16 0)
(3 2.06694e-13 0)
(3 -1.942e-07 0)
(3.00002 6.74943e-06 0)
(3.04923 0.0979265 0)
(1.66541 0.828454 0)
(1.27469 0.840423 0)
(1.30373 0.837804 0)
(1.32462 0.838978 0)
(1.36275 0.837556 0)
(1.41134 0.835232 0)
(1.468 0.832335 0)
(3 8.30456e-17 0)
(3 6.31287e-17 0)
(3 1.20354e-16 0)
(3 1.67323e-17 0)
(3 2.51916e-16 0)
(3 5.8478e-16 0)
(3 1.78076e-16 0)
(3 -3.48951e-16 0)
(3 -1.11397e-15 0)
(3 -1.59232e-15 0)
(3 -1.55538e-15 0)
(3 -7.89321e-16 0)
(3 -2.96735e-16 0)
(3 4.62333e-14 0)
(3 -2.30585e-09 0)
(3 -1.19468e-07 0)
(3.00823 0.00308018 0)
(2.4935 0.59735 0)
(1.38317 0.89806 0)
(1.33313 0.87781 0)
(1.36127 0.86655 0)
(1.39238 0.861352 0)
(1.43241 0.856334 0)
(1.48038 0.849811 0)
(3 5.58582e-17 0)
(3 1.81979e-16 0)
(3 -5.26369e-16 0)
(3 -5.32066e-16 0)
(3 -4.77199e-16 0)
(3 -2.78077e-16 0)
(3 6.93073e-16 0)
(3 7.33422e-16 0)
(3 2.06274e-17 0)
(3 1.59564e-16 0)
(3 -1.52009e-16 0)
(3 -1.01588e-16 0)
(3 -2.73331e-16 0)
(3 5.90886e-15 0)
(3 -4.98224e-12 0)
(3 -2.98164e-08 0)
(3.00003 3.122e-05 0)
(3.04744 0.0756652 0)
(1.81391 0.820568 0)
(1.37411 0.889982 0)
(1.40996 0.880803 0)
(1.43615 0.872754 0)
(1.46844 0.863258 0)
(1.50737 0.852162 0)
(3 -7.50727e-18 0)
(3 -1.07076e-16 0)
(3 -4.06745e-16 0)
(3 -3.85262e-16 0)
(3 -2.46671e-16 0)
(3 -3.35348e-16 0)
(3 -2.22393e-16 0)
(3 -8.94979e-17 0)
(3 1.47288e-16 0)
(3 5.06015e-16 0)
(3 8.02345e-16 0)
(3 8.79637e-16 0)
(3 8.92762e-16 0)
(3 7.49868e-16 0)
(3 -2.51409e-15 0)
(3 -2.80858e-09 0)
(3 1.51863e-08 0)
(3.00417 0.00300791 0)
(2.68258 0.46406 0)
(1.55334 0.931609 0)
(1.42741 0.907902 0)
(1.46291 0.901003 0)
(1.49301 0.890721 0)
(1.52871 0.875092 0)
(3 -2.93822e-17 0)
(3 -1.99091e-16 0)
(3 -3.01302e-17 0)
(3 -5.71788e-17 0)
(3 -5.31929e-18 0)
(3 -3.488e-17 0)
(3 -2.08617e-17 0)
(3 2.824e-16 0)
(3 2.86748e-16 0)
(3 7.17575e-16 0)
(3 1.12473e-15 0)
(3 4.03358e-16 0)
(3 -7.76971e-19 0)
(3 -1.61793e-16 0)
(3 -3.66004e-16 0)
(3 -1.12525e-10 0)
(3 -1.11058e-10 0)
(3.00001 2.28843e-05 0)
(3.02868 0.0381317 0)
(2.09243 0.778666 0)
(1.49052 0.920632 0)
(1.4979 0.912317 0)
(1.52744 0.898599 0)
(1.55932 0.883836 0)
(3 -4.35502e-18 0)
(3 7.99259e-18 0)
(3 1.64207e-16 0)
(3 1.37561e-16 0)
(3 -1.12356e-16 0)
(3 -3.98244e-16 0)
(3 2.88771e-16 0)
(3 8.39017e-16 0)
(3 8.69429e-16 0)
(3 7.04554e-16 0)
(3 1.18491e-15 0)
(3 5.52629e-16 0)
(3 5.49894e-18 0)
(3 -1.18618e-16 0)
(3 2.50867e-16 0)
(3 -9.94234e-13 0)
(3 -3.52459e-11 0)
(3 1.31575e-08 0)
(3.00093 0.00155864 0)
(2.89116 0.258048 0)
(1.78211 0.887129 0)
(1.52058 0.932398 0)
(1.55459 0.920752 0)
(1.58823 0.904867 0)
(3 -1.06508e-17 0)
(3 1.65873e-16 0)
(3 3.75201e-16 0)
(3 2.76334e-16 0)
(3 1.54108e-16 0)
(3 6.73266e-18 0)
(3 6.79712e-17 0)
(3 5.86871e-16 0)
(3 9.2114e-16 0)
(3 5.57666e-16 0)
(3 3.41755e-16 0)
(3 4.61725e-16 0)
(3 2.80049e-16 0)
(3 1.22954e-17 0)
(3 2.31968e-16 0)
(3 -2.70359e-15 0)
(3 -4.70024e-12 0)
(3 -2.70232e-12 0)
(3 6.20124e-06 0)
(3.00771 0.0160972 0)
(2.49368 0.586151 0)
(1.64418 0.954721 0)
(1.56315 0.939556 0)
(1.60016 0.92658 0)
(3 5.53558e-17 0)
(3 -3.3793e-17 0)
(3 -2.22991e-16 0)
(3 -4.88479e-16 0)
(3 2.5253e-16 0)
(3 4.03202e-16 0)
(3 3.26975e-16 0)
(3 3.8679e-16 0)
(3 5.5496e-16 0)
(3 4.80584e-16 0)
(3 -2.4379e-16 0)
(3 -2.36119e-17 0)
(3 3.34056e-17 0)
(3 -8.54135e-17 0)
(3 -5.29712e-16 0)
(3 -8.78443e-18 0)
(3 -1.53395e-13 0)
(3 -8.68713e-13 0)
(3 2.96186e-09 0)
(3.00002 0.000378471 0)
(2.99596 0.0837218 0)
(2.11998 0.789309 0)
(1.62361 0.946176 0)
(1.61885 0.942615 0)
(3 -2.7142e-17 0)
(3 6.27843e-17 0)
(3 -9.95568e-17 0)
(3 -9.90358e-17 0)
(3 -4.73393e-17 0)
(3 -2.94294e-16 0)
(3 -3.10007e-16 0)
(3 -7.94717e-16 0)
(3 -5.6439e-16 0)
(3 5.34821e-17 0)
(3 3.84929e-16 0)
(3 8.31658e-16 0)
(3 5.0561e-16 0)
(3 1.64081e-16 0)
(3 1.07517e-16 0)
(3 8.6761e-16 0)
(3 -1.4295e-16 0)
(3 -1.75092e-13 0)
(3 5.71118e-13 0)
(3 6.89137e-07 0)
(3.0008 0.0042614 0)
(2.84449 0.283158 0)
(1.90967 0.879935 0)
(1.65503 0.95588 0)
(3 -2.30631e-16 0)
(3 -2.30092e-16 0)
(3 -5.07968e-16 0)
(3 -3.86178e-16 0)
(3 -5.63316e-16 0)
(3 -4.16083e-16 0)
(3 -5.52826e-16 0)
(3 -4.20521e-16 0)
(3 -2.84448e-16 0)
(3 3.58143e-16 0)
(3 9.03315e-16 0)
(3 8.81736e-16 0)
(3 7.17467e-16 0)
(3 7.83737e-16 0)
(3 1.45442e-15 0)
(3 1.71546e-15 0)
(3 8.77001e-16 0)
(3 -1.39488e-14 0)
(3 -1.348e-14 0)
(3 3.83434e-10 0)
(3 2.99262e-05 0)
(3.00097 0.0208702 0)
(2.56881 0.514508 0)
(1.82372 0.934895 0)
(3 8.06126e-18 0)
(3 -9.29649e-17 0)
(3 7.10087e-18 0)
(3 -4.0565e-17 0)
(3 -3.97455e-16 0)
(3 -2.55029e-16 0)
(3 2.82035e-17 0)
(3 6.7267e-17 0)
(3 -1.25026e-16 0)
(3 -3.72502e-17 0)
(3 2.45105e-16 0)
(3 -1.45269e-16 0)
(3 3.73765e-16 0)
(3 1.27592e-15 0)
(3 2.01182e-15 0)
(3 1.6957e-15 0)
(3 1.14396e-15 0)
(3 -3.81092e-16 0)
(3 -5.26637e-15 0)
(3 6.09029e-14 0)
(3 2.72908e-08 0)
(2.99994 0.000494616 0)
(2.98115 0.0660741 0)
(2.33979 0.685542 0)
(3 8.41008e-17 0)
(3 4.22311e-16 0)
(3 5.4433e-16 0)
(3 4.98425e-16 0)
(3 1.3389e-16 0)
(3 9.27164e-17 0)
(3 -1.49232e-16 0)
(3 -2.4806e-16 0)
(3 -3.39443e-16 0)
(3 -2.21212e-16 0)
(3 -2.72653e-18 0)
(3 4.66787e-16 0)
(3 -5.73255e-17 0)
(3 5.02149e-17 0)
(3 3.74633e-16 0)
(3 7.91808e-16 0)
(3 3.53487e-16 0)
(3 4.65455e-16 0)
(3 -1.46741e-16 0)
(3 -5.85307e-16 0)
(3 1.24679e-11 0)
(3 1.04624e-06 0)
(2.99971 0.00295367 0)
(2.91273 0.168346 0)
(3 4.75584e-17 0)
(3 7.62605e-17 0)
(3 1.90312e-17 0)
(3 -1.10485e-16 0)
(3 1.70627e-16 0)
(3 4.58202e-16 0)
(3 -1.93399e-16 0)
(3 -8.34967e-16 0)
(3 -8.37936e-16 0)
(3 -8.76749e-16 0)
(3 -8.49731e-16 0)
(3 2.11973e-16 0)
(3 4.74603e-16 0)
(3 -7.71825e-18 0)
(3 -4.368e-16 0)
(3 -5.98248e-16 0)
(3 -5.93129e-17 0)
(3 7.50715e-16 0)
(3 1.14883e-15 0)
(3 2.09395e-16 0)
(3 1.32714e-15 0)
(3 9.73889e-10 0)
(3 1.29165e-05 0)
(2.99705 0.0124826 0)
(3 1.48803e-18 0)
(3 -5.522e-16 0)
(3 -4.5243e-16 0)
(3 -3.51433e-16 0)
(3 1.43541e-16 0)
(3 2.6067e-16 0)
(3 1.79672e-17 0)
(3 -6.29598e-16 0)
(3 -1.50651e-15 0)
(3 -1.95141e-15 0)
(3 -1.82714e-15 0)
(3 -9.53315e-16 0)
(3 4.99539e-16 0)
(3 5.41217e-16 0)
(3 -3.70392e-16 0)
(3 -6.51828e-16 0)
(3 1.63805e-16 0)
(3 7.99624e-16 0)
(3 1.18607e-15 0)
(3 5.41177e-16 0)
(3 1.82258e-16 0)
(3 1.5782e-13 0)
(3 1.48077e-08 0)
(2.99995 0.000155188 0)
(3 -1.41218e-17 0)
(3 -1.44239e-16 0)
(3 -2.93752e-16 0)
(3 -1.05051e-16 0)
(3 -2.79444e-16 0)
(3 -3.76605e-16 0)
(3 -8.91607e-18 0)
(3 4.57626e-16 0)
(3 3.09862e-16 0)
(3 1.73415e-16 0)
(3 -3.5375e-16 0)
(3 -1.13642e-15 0)
(3 -2.28067e-16 0)
(3 5.03069e-16 0)
(3 6.49239e-16 0)
(3 5.63057e-16 0)
(3 9.87345e-16 0)
(3 1.48184e-15 0)
(3 1.00693e-15 0)
(3 2.95299e-16 0)
(3 -6.4913e-17 0)
(3 -4.8008e-16 0)
(3 6.78807e-12 0)
(3 1.35168e-07 0)
(3 -5.30353e-17 0)
(3 -5.74571e-17 0)
(3 -1.03522e-16 0)
(3 2.71728e-16 0)
(3 -8.4564e-17 0)
(3 -6.43705e-16 0)
(3 -6.55362e-16 0)
(3 1.09328e-16 0)
(3 1.19652e-15 0)
(3 1.12128e-15 0)
(3 2.21589e-16 0)
(3 -9.43296e-16 0)
(3 -8.27675e-16 0)
(3 2.01757e-16 0)
(3 7.40636e-16 0)
(3 6.76742e-16 0)
(3 4.89808e-16 0)
(3 4.22323e-16 0)
(3 -9.40801e-17 0)
(3 -4.00461e-16 0)
(3 -2.22775e-16 0)
(3 6.7931e-16 0)
(3 2.00892e-15 0)
(3 9.42036e-11 0)
(3 -6.26731e-17 0)
(3 -4.72998e-16 0)
(3 -6.27202e-16 0)
(3 -4.40024e-16 0)
(3 -5.28315e-16 0)
(3 -7.3406e-16 0)
(3 -9.44905e-16 0)
(3 -4.84444e-16 0)
(3 6.94746e-17 0)
(3 -1.27966e-16 0)
(3 -4.41177e-17 0)
(3 -8.02364e-17 0)
(3 -7.05991e-16 0)
(3 -9.73242e-16 0)
(3 -5.96362e-16 0)
(3 -1.97768e-16 0)
(3 4.38478e-17 0)
(3 -1.08095e-16 0)
(3 -2.4067e-16 0)
(3 -5.24211e-17 0)
(3 3.6763e-17 0)
(3 3.15176e-16 0)
(3 1.65997e-16 0)
(3 6.32531e-15 0)
(3 -4.29386e-17 0)
(3 3.84074e-16 0)
(3 1.44248e-17 0)
(3 -6.75055e-16 0)
(3 -7.26222e-16 0)
(3 -4.78961e-16 0)
(3 -5.11624e-16 0)
(3 -2.62285e-16 0)
(3 -8.73506e-17 0)
(3 6.31691e-17 0)
(3 6.45775e-16 0)
(3 6.1594e-16 0)
(3 -9.79824e-18 0)
(3 -1.15646e-15 0)
(3 -1.16448e-15 0)
(3 -8.29582e-16 0)
(3 -5.86382e-16 0)
(3 -5.15717e-16 0)
(3 -3.96328e-16 0)
(3 2.94206e-16 0)
(3 2.42435e-16 0)
(3 -5.49573e-16 0)
(3 -1.03219e-15 0)
(3 -9.89895e-16 0)
(3 9.75015e-17 0)
(3 1.13453e-15 0)
(3 8.89432e-16 0)
(3 3.77742e-16 0)
(3 2.69708e-16 0)
(3 -3.77825e-16 0)
(3 -9.61718e-16 0)
(3 -1.23006e-15 0)
(3 -4.86037e-16 0)
(3 -1.01659e-17 0)
(3 5.43325e-16 0)
(3 8.85407e-16 0)
(3 8.13983e-17 0)
(3 -5.57212e-16 0)
(3 -1.33202e-15 0)
(3 -1.16592e-15 0)
(3 -8.89867e-16 0)
(3 -1.17938e-15 0)
(3 -1.97658e-15 0)
(3 -1.84894e-15 0)
(3 -1.25194e-15 0)
(3 -9.57862e-16 0)
(3 -8.83762e-16 0)
(3 -1.16631e-15 0)
(3 -5.84341e-17 0)
(3 3.62873e-16 0)
(3 6.66202e-16 0)
(3 3.21855e-16 0)
(3 1.30563e-16 0)
(3 -4.81742e-16 0)
(3 -7.82864e-16 0)
(3 -8.41728e-16 0)
(3 -1.44887e-16 0)
(3 1.43952e-16 0)
(3 1.93699e-16 0)
(3 3.00862e-16 0)
(3 3.18845e-16 0)
(3 -3.44839e-17 0)
(3 -2.82334e-16 0)
(3 -9.5851e-17 0)
(3 2.91927e-17 0)
(3 -9.45227e-16 0)
(3 -1.70648e-15 0)
(3 -1.7382e-15 0)
(3 -1.45936e-15 0)
(3 -5.8347e-16 0)
(3 -2.48603e-16 0)
(3 -3.25537e-16 0)
(1.4858 1.27135 0)
(1.88507 1.3011 0)
(2.3629 1.1325 0)
(2.60218 0.858549 0)
(2.54774 0.337425 0)
(2.55914 0.00459759 0)
(2.47481 -0.232207 0)
(2.39734 -0.410804 0)
(2.43012 -0.392392 0)
(2.49272 -0.243735 0)
(2.49141 -0.23353 0)
(2.46833 -0.220515 0)
(2.42379 -0.178252 0)
(2.37455 -0.135052 0)
(2.33268 -0.113265 0)
(2.35748 -0.0857662 0)
(2.39581 -0.0522811 0)
(2.40945 -0.0376057 0)
(2.39857 -0.0263826 0)
(2.38626 -0.0223023 0)
(2.37483 -0.0210697 0)
(2.36822 -0.0147928 0)
(2.3744 -0.00542134 0)
(2.39198 -0.00283683 0)
(2.39961 -0.00824972 0)
(2.39595 -0.0108811 0)
(2.38775 -0.0111275 0)
(2.38637 -0.011019 0)
(1.25117 0.0266157 0)
(0.773628 0.0310666 0)
(0.70961 0.0229536 0)
(0.701708 0.00412266 0)
(0.713563 -0.0140311 0)
(0.738735 -0.0258998 0)
(0.772979 -0.034579 0)
(0.815231 -0.0388315 0)
(0.858478 -0.0381885 0)
(0.899418 -0.0337834 0)
(0.939512 -0.0293586 0)
(0.981115 -0.0265268 0)
(1.02449 -0.0249305 0)
(1.06602 -0.0238678 0)
(1.1014 -0.0225048 0)
(1.13111 -0.020004 0)
(1.15861 -0.0174631 0)
(1.18841 -0.0165502 0)
(1.22406 -0.0173518 0)
(1.26405 -0.0193204 0)
(1.30187 -0.0209739 0)
(1.33281 -0.0194314 0)
(1.35781 -0.0157729 0)
(1.38135 -0.0119434 0)
(1.40642 -0.00896209 0)
(1.43712 -0.00785438 0)
(1.47179 -0.00968201 0)
(1.49944 -0.0123923 0)
(1.52192 -0.0126127 0)
(1.54289 -0.00966268 0)
(1.56267 -0.00428663 0)
(1.58344 -0.000997882 0)
(1.60783 0.000494551 0)
(1.63795 -0.000425712 0)
(1.66383 -0.00421888 0)
(1.68424 -0.00673666 0)
(1.70434 -0.00682173 0)
(1.71898 -0.00395118 0)
(1.73017 0.00196375 0)
(1.74622 0.00625639 0)
(1.76471 0.0075128 0)
(1.78665 0.00742748 0)
(1.81272 0.00608702 0)
(1.83449 0.00368317 0)
(1.85286 0.00304584 0)
(1.87069 0.00344851 0)
(1.88522 0.00403731 0)
(1.89953 0.0043624 0)
(1.91658 0.00429409 0)
(1.93459 0.00415806 0)
(1.95358 0.00296802 0)
(1.97154 0.00163668 0)
(1.9893 0.00163597 0)
(2.00337 0.00264371 0)
(2.00873 0.0049696 0)
(2.01217 0.00749009 0)
(2.02419 0.0083314 0)
(2.04073 0.00845391 0)
(2.05882 0.00814033 0)
(2.08041 0.00608067 0)
(2.09886 0.00403044 0)
(2.11702 0.00353104 0)
(2.1296 0.00404554 0)
(2.13311 0.00623671 0)
(2.13878 0.0086304 0)
(2.15309 0.00961009 0)
(2.16714 0.00997517 0)
(2.19126 0.00950318 0)
(1.76071 1.11514 0)
(2.25998 0.864479 0)
(2.55953 0.387826 0)
(2.65556 0.052411 0)
(2.71239 -0.190884 0)
(2.74259 -0.430513 0)
(2.70359 -0.631839 0)
(2.68923 -0.658282 0)
(2.66396 -0.602373 0)
(2.60459 -0.449957 0)
(2.59027 -0.317205 0)
(2.58002 -0.274958 0)
(2.54219 -0.244407 0)
(2.48765 -0.169028 0)
(2.43893 -0.102553 0)
(2.42955 -0.0652512 0)
(2.43153 -0.00588593 0)
(2.43947 -0.00279854 0)
(2.44017 0.00471271 0)
(2.4343 -0.00499146 0)
(2.42758 -0.0308329 0)
(2.41526 -0.0217431 0)
(2.41147 0.00410718 0)
(2.41401 0.0214444 0)
(2.4163 0.0146148 0)
(2.4198 -0.0126538 0)
(2.41691 -0.0235246 0)
(2.41663 -0.0244035 0)
(1.37323 0.137022 0)
(0.803633 0.0935046 0)
(0.76548 0.0311002 0)
(0.788618 -0.0174142 0)
(0.819557 -0.040522 0)
(0.851181 -0.049513 0)
(0.883853 -0.0564583 0)
(0.922244 -0.0632938 0)
(0.964548 -0.0652272 0)
(1.00487 -0.0542494 0)
(1.03638 -0.0341188 0)
(1.06436 -0.0176792 0)
(1.09263 -0.0130344 0)
(1.12542 -0.0186985 0)
(1.1627 -0.026256 0)
(1.19886 -0.0271565 0)
(1.22769 -0.0190143 0)
(1.25247 -0.00782325 0)
(1.27735 -0.00220203 0)
(1.30463 -0.0056006 0)
(1.33808 -0.0158337 0)
(1.37479 -0.0244662 0)
(1.40465 -0.022929 0)
(1.42714 -0.0145109 0)
(1.44891 -0.00234288 0)
(1.47071 0.00451401 0)
(1.4923 0.00099615 0)
(1.51905 -0.0119327 0)
(1.54666 -0.0226726 0)
(1.57108 -0.0241329 0)
(1.59287 -0.0182231 0)
(1.61396 -0.00515385 0)
(1.63378 0.00762911 0)
(1.6524 0.0113794 0)
(1.67087 0.00696326 0)
(1.69233 -0.00452101 0)
(1.71247 -0.0153067 0)
(1.73067 -0.0198835 0)
(1.74954 -0.0158942 0)
(1.76746 -0.00223452 0)
(1.78445 0.0126162 0)
(1.80212 0.0225937 0)
(1.81978 0.0245405 0)
(1.83879 0.0202836 0)
(1.85995 0.0129075 0)
(1.87896 0.00893179 0)
(1.89713 0.00925474 0)
(1.91303 0.0139205 0)
(1.92575 0.0190691 0)
(1.93921 0.0195315 0)
(1.95594 0.0169797 0)
(1.97448 0.0118407 0)
(1.99142 0.00427184 0)
(2.00668 -0.00162586 0)
(2.01938 -0.000784753 0)
(2.02815 0.00910158 0)
(2.03423 0.0217267 0)
(2.0436 0.0274799 0)
(2.05937 0.0273516 0)
(2.07744 0.0233013 0)
(2.09702 0.0160594 0)
(2.11495 0.0075247 0)
(2.13098 0.00125306 0)
(2.14267 0.00277171 0)
(2.15139 0.0136068 0)
(2.15831 0.0251064 0)
(2.16663 0.0305786 0)
(2.18838 0.0281862 0)
(1.67844 1.03061 0)
(2.08802 0.826538 0)
(2.28557 0.683232 0)
(2.45278 0.449725 0)
(2.63221 0.114225 0)
(2.6969 -0.0877061 0)
(2.73606 -0.167469 0)
(2.725 -0.200196 0)
(2.72527 -0.339217 0)
(2.72607 -0.372363 0)
(2.73816 -0.429146 0)
(2.74606 -0.485626 0)
(2.74176 -0.474232 0)
(2.70577 -0.388584 0)
(2.67797 -0.306319 0)
(2.64841 -0.255516 0)
(2.57201 -0.163489 0)
(2.53622 -0.0994679 0)
(2.51923 -0.0777359 0)
(2.515 -0.0762609 0)
(2.51465 -0.057585 0)
(2.50211 -0.0152152 0)
(2.49038 0.0147611 0)
(2.47746 0.0234977 0)
(2.4721 0.0150731 0)
(2.47046 -0.00181325 0)
(2.47512 -0.0153307 0)
(2.47496 -0.0308761 0)
(1.78647 0.165902 0)
(0.974977 0.07935 0)
(0.936261 -0.0240785 0)
(1.02126 -0.0630015 0)
(1.06404 -0.0589397 0)
(1.09177 -0.0566081 0)
(1.1131 -0.0634735 0)
(1.13653 -0.0761856 0)
(1.16651 -0.0914864 0)
(1.20354 -0.0995431 0)
(1.23438 -0.093306 0)
(1.25188 -0.0797522 0)
(1.2653 -0.0612052 0)
(1.28208 -0.0503177 0)
(1.30383 -0.0504213 0)
(1.33348 -0.0573641 0)
(1.36546 -0.0633111 0)
(1.38909 -0.061423 0)
(1.40712 -0.0537463 0)
(1.42525 -0.0419896 0)
(1.44565 -0.0350677 0)
(1.4678 -0.0364513 0)
(1.49496 -0.0424653 0)
(1.52108 -0.0428724 0)
(1.54274 -0.0364039 0)
(1.5609 -0.0239566 0)
(1.57437 -0.00973841 0)
(1.58933 -0.00277916 0)
(1.60608 -0.00500938 0)
(1.62806 -0.0142687 0)
(1.65401 -0.0201537 0)
(1.67536 -0.0190322 0)
(1.69459 -0.0139064 0)
(1.70991 -0.00214845 0)
(1.71835 0.00989297 0)
(1.72768 0.0129718 0)
(1.74355 0.008979 0)
(1.7641 0.00135161 0)
(1.79045 -0.00356198 0)
(1.81175 -0.00125409 0)
(1.83026 0.00489393 0)
(1.84625 0.0148132 0)
(1.85585 0.0242437 0)
(1.86713 0.0268301 0)
(1.88406 0.0240011 0)
(1.90291 0.0170341 0)
(1.92183 0.0124132 0)
(1.93878 0.0122394 0)
(1.95501 0.0169867 0)
(1.9667 0.0269222 0)
(1.97338 0.0340195 0)
(1.98292 0.0314435 0)
(1.9977 0.0250949 0)
(2.01486 0.0183601 0)
(2.03265 0.0127369 0)
(2.04821 0.0127063 0)
(2.06186 0.0203242 0)
(2.06966 0.0339419 0)
(2.07425 0.0422905 0)
(2.08523 0.0401006 0)
(2.10025 0.0335301 0)
(2.11573 0.0261013 0)
(2.13286 0.0206626 0)
(2.15024 0.0176725 0)
(2.16636 0.0197455 0)
(2.1797 0.0293828 0)
(2.18515 0.0443272 0)
(2.19534 0.0459891 0)
(1.60796 0.981689 0)
(1.90127 0.873996 0)
(2.14322 0.698789 0)
(2.32274 0.520935 0)
(2.42677 0.377676 0)
(2.56439 0.154983 0)
(2.64329 -0.0303306 0)
(2.69125 -0.117882 0)
(2.71906 -0.226075 0)
(2.73237 -0.3525 0)
(2.751 -0.4182 0)
(2.76475 -0.473645 0)
(2.78552 -0.508008 0)
(2.79489 -0.505202 0)
(2.77548 -0.473229 0)
(2.73883 -0.418213 0)
(2.67131 -0.342307 0)
(2.62582 -0.266329 0)
(2.61707 -0.233266 0)
(2.61522 -0.208019 0)
(2.61042 -0.153368 0)
(2.58181 -0.0870919 0)
(2.55995 -0.0426098 0)
(2.54938 -0.0167908 0)
(2.53053 -0.0199548 0)
(2.51708 -0.0141064 0)
(2.51899 0.000324218 0)
(2.48792 -0.0482452 0)
(2.32157 -0.182582 0)
(1.28948 0.0254516 0)
(1.18789 0.0197768 0)
(1.27481 -0.0429356 0)
(1.33011 -0.0947422 0)
(1.34739 -0.101445 0)
(1.35583 -0.0912065 0)
(1.36372 -0.0783933 0)
(1.37769 -0.073868 0)
(1.40407 -0.0750058 0)
(1.4333 -0.0765674 0)
(1.44871 -0.0723899 0)
(1.45842 -0.0587563 0)
(1.46203 -0.0374564 0)
(1.47247 -0.0250504 0)
(1.48977 -0.02276 0)
(1.51428 -0.0284974 0)
(1.54106 -0.0392422 0)
(1.55891 -0.0428503 0)
(1.57395 -0.0404377 0)
(1.5845 -0.0306221 0)
(1.59331 -0.0192412 0)
(1.60934 -0.0166349 0)
(1.62882 -0.0201503 0)
(1.6505 -0.0263023 0)
(1.66842 -0.0291813 0)
(1.68467 -0.0262115 0)
(1.69561 -0.0138341 0)
(1.70405 0.0016372 0)
(1.71831 0.0090718 0)
(1.73539 0.00774177 0)
(1.75447 -0.00156702 0)
(1.77041 -0.0113444 0)
(1.7838 -0.0186761 0)
(1.79476 -0.0193396 0)
(1.80386 -0.00965827 0)
(1.81534 0.00517025 0)
(1.83218 0.0153755 0)
(1.85163 0.0191947 0)
(1.87135 0.0173518 0)
(1.88858 0.0147872 0)
(1.90427 0.0126175 0)
(1.91547 0.0148988 0)
(1.92341 0.0232115 0)
(1.93219 0.0311826 0)
(1.9459 0.0338553 0)
(1.96218 0.0325808 0)
(1.97822 0.0279402 0)
(1.99288 0.023691 0)
(2.00534 0.0218939 0)
(2.01298 0.0246953 0)
(2.01674 0.0314087 0)
(2.02782 0.036159 0)
(2.04323 0.0375415 0)
(2.05892 0.0364414 0)
(2.07617 0.0325926 0)
(2.09198 0.0306116 0)
(2.10511 0.0317615 0)
(2.10926 0.0379847 0)
(2.10917 0.0429173 0)
(2.11792 0.0422708 0)
(2.13331 0.0412717 0)
(2.14898 0.0414412 0)
(2.16705 0.040726 0)
(2.18448 0.0403103 0)
(2.20154 0.0408186 0)
(2.21332 0.047887 0)
(2.21989 0.055033 0)
(1.56247 0.924456 0)
(1.794 0.853739 0)
(2.00437 0.734192 0)
(2.17343 0.595493 0)
(2.29228 0.482441 0)
(2.41178 0.335536 0)
(2.53348 0.154938 0)
(2.59093 0.0136638 0)
(2.63405 -0.0487436 0)
(2.64211 -0.068449 0)
(2.65276 -0.151377 0)
(2.68451 -0.249384 0)
(2.70048 -0.322969 0)
(2.7311 -0.392066 0)
(2.75576 -0.426018 0)
(2.75916 -0.417289 0)
(2.73066 -0.405454 0)
(2.70612 -0.39021 0)
(2.68637 -0.371222 0)
(2.67327 -0.330345 0)
(2.66094 -0.261482 0)
(2.64 -0.184395 0)
(2.62614 -0.137142 0)
(2.60726 -0.0948386 0)
(2.58807 -0.0942543 0)
(2.57346 -0.0622927 0)
(2.52781 -0.0676997 0)
(2.40581 -0.187085 0)
(2.20743 -0.556106 0)
(1.67953 -0.271282 0)
(1.37407 -0.0911905 0)
(1.40713 -0.0392781 0)
(1.47801 -0.0682889 0)
(1.50303 -0.0965392 0)
(1.51675 -0.101635 0)
(1.5132 -0.0909222 0)
(1.51632 -0.0833821 0)
(1.53078 -0.0787648 0)
(1.55467 -0.0792294 0)
(1.5745 -0.0786048 0)
(1.5861 -0.0737945 0)
(1.59342 -0.0615801 0)
(1.59551 -0.0461498 0)
(1.60609 -0.0403556 0)
(1.62277 -0.0410967 0)
(1.6444 -0.0458908 0)
(1.66685 -0.0508364 0)
(1.68112 -0.0508792 0)
(1.69346 -0.0466514 0)
(1.70007 -0.0357067 0)
(1.7047 -0.0248133 0)
(1.71885 -0.0215714 0)
(1.73562 -0.0213899 0)
(1.75405 -0.0206706 0)
(1.7716 -0.017217 0)
(1.78625 -0.0114126 0)
(1.79826 -0.000944854 0)
(1.80554 0.00977011 0)
(1.81436 0.0119474 0)
(1.82755 0.00674913 0)
(1.84041 -0.000751373 0)
(1.85261 -0.00681018 0)
(1.86617 -0.00793701 0)
(1.88041 -0.00265254 0)
(1.89325 0.0107696 0)
(1.90392 0.0251819 0)
(1.91581 0.0320965 0)
(1.93041 0.0316991 0)
(1.94513 0.0284077 0)
(1.9586 0.0241821 0)
(1.97061 0.0216983 0)
(1.98125 0.0234483 0)
(1.99038 0.0297793 0)
(1.99935 0.0371949 0)
(2.01047 0.0414404 0)
(2.02332 0.0423899 0)
(2.03647 0.0413877 0)
(2.04845 0.039492 0)
(2.05757 0.0388159 0)
(2.0641 0.0426959 0)
(2.07173 0.0490872 0)
(2.08303 0.0520612 0)
(2.09788 0.0519559 0)
(2.11369 0.0502169 0)
(2.12888 0.046478 0)
(2.14136 0.0413601 0)
(2.14766 0.0381955 0)
(2.14851 0.0416387 0)
(2.15322 0.0490542 0)
(2.16566 0.053958 0)
(2.18043 0.0564083 0)
(2.19579 0.0578535 0)
(2.2114 0.0577955 0)