/*--------------------------------*- C++ -*----------------------------------*\
  =========                 |
  \\      /  F ield         | OpenFOAM: The Open Source CFD Toolbox
   \\    /   O peration     | Website:  https://openfoam.org
    \\  /    A nd           | Version:  7
     \\/     M anipulation  |
\*---------------------------------------------------------------------------*/
FoamFile
{
    version     2.0;
    format      ascii;
    class       volScalarField;
    location    "1";
    object      p;
}
// * * * * * * * * * * * * * * * * * * * * * * * * * * * * * * * * * * * * * //

dimensions      [1 -1 -2 0 0 0 0];

internalField   nonuniform List<scalar> 
16128
(
1
1
1
1
1
1
1
1
1
1
1
1
1
1
1
1
1
1
1
1
1
1
1
1
1
1
1.23081
7.35516
10.6625
10.8578
11.0571
11.2299
11.3777
11.4943
11.5783
11.6378
11.6713
11.6835
11.7093
11.7688
11.8604
11.9471
12.0192
12.0754
12.1175
12.1729
12.2142
12.2422
1
1
1
1
1
1
1
1
1
1
1
1
1
1
1
1
1
1
1
1
1
1
1
1
1
1
1.20556
7.24434
10.6596
10.8629
11.0681
11.233
11.3715
11.4851
11.5698
11.6307
11.6654
11.68
11.7055
11.7621
11.8505
11.9357
12.0085
12.0648
12.1061
12.1585
12.1966
12.223
1
1
1
1
1
1
1
1
1
1
1
1
1
1
1
1
1
1
1
1
1
1
1
1
1
1
1.12704
6.99664
10.6817
10.8812
11.0787
11.2273
11.3548
11.4683
11.5553
11.6185
11.6545
11.671
11.6948
11.7481
11.8357
11.9226
11.9978
12.0529
12.0906
12.1365
12.1678
12.1898
1
1
1
1
1
1
1
1
1
1
1
1
1
1
1
1
1
1
1
1
1
1
1
1
1
1
1.01359
6.71329
10.7014
10.8863
11.0647
11.2025
11.3261
11.4418
11.5313
11.5975
11.6353
11.6537
11.6745
11.7232
11.8096
11.8997
11.9795
12.0354
12.0688
12.1065
12.1292
12.1453
1
1
1
1
1
1
1
1
1
1
1
1
1
1
1
1
1
1
1
1
1
1
1
1
1
1
1.00008
6.33774
10.6714
10.8721
11.0351
11.1674
11.2896
11.4066
11.4975
11.5675
11.6075
11.6267
11.6429
11.6844
11.7691
11.8641
11.951
12.0098
12.0387
12.0689
12.0839
12.0947
1
1
1
1
1
1
1
1
1
1
1
1
1
1
1
1
1
1
1
1
1
1
1
1
1
1
1
5.85833
10.608
10.8388
10.9912
11.1271
11.2473
11.3615
11.4506
11.525
11.5698
11.5906
11.6029
11.6358
11.7159
11.814
11.9074
11.97
11.9956
12.0204
12.032
12.0393
1
1
1
1
1
1
1
1
1
1
1
1
1
1
1
1
1
1
1
1
1
1
1
1
1
1
1
5.28842
10.4971
10.7922
10.9413
11.0847
11.2029
11.3108
11.3956
11.4733
11.5254
11.5487
11.5583
11.5827
11.6516
11.7471
11.8421
11.9074
11.9324
11.9585
11.9735
11.9823
1
1
1
1
1
1
1
1
1
1
1
1
1
1
1
1
1
1
1
1
1
1
1
1
1
1
1
4.64824
10.3244
10.7448
10.8983
11.0413
11.1551
11.255
11.3372
11.4159
11.4751
11.4997
11.5077
11.5257
11.5821
11.6698
11.7605
11.8231
11.8471
11.8784
11.9019
11.916
1
1
1
1
1
1
1
1
1
1
1
1
1
1
1
1
1
1
1
1
1
1
1
1
1
1
1
3.96705
10.0655
10.6967
10.8433
10.9858
11.1054
11.197
11.2821
11.358
11.4177
11.4396
11.4479
11.4628
11.508
11.5837
11.6624
11.7147
11.736
11.7751
11.8114
11.8361
1
1
1
1
1
1
1
1
1
1
1
1
1
1
1
1
1
1
1
1
1
1
1
1
1
1
1
3.28793
9.6814
10.6537
10.7888
10.9319
11.0568
11.1489
11.2311
11.2998
11.3485
11.3652
11.3724
11.3868
11.4252
11.4899
11.5565
11.5963
11.611
11.65
11.6916
11.7232
1
1
1
1
1
1
1
1
1
1
1
1
1
1
1
1
1
1
1
1
1
1
1
1
1
1
1
2.60016
9.13403
10.6123
10.7279
10.8657
10.9879
11.0815
11.1653
11.2333
11.2682
11.2797
11.2843
11.2962
11.3248
11.3772
11.434
11.4603
11.4668
11.5005
11.5399
11.5755
1
1
1
1
1
1
1
1
1
1
1
1
1
1
1
1
1
1
1
1
1
1
1
1
1
1
1
1.88843
8.41498
10.6176
10.6622
10.7926
10.9029
11.0089
11.0992
11.1636
11.1867
11.1823
11.1759
11.1787
11.1971
11.2417
11.2975
11.3212
11.3217
11.3351
11.347
11.3594
1
1
1
1
1
1
1
1
1
1
1
1
1
1
1
1
1
1
1
1
1
1
1
1
1
1
1
1.26507
7.53664
10.665
10.6516
10.7738
10.8581
10.9344
11.0004
11.0487
11.0735
11.0727
11.0629
11.051
11.0505
11.0828
11.1326
11.1475
11.1299
11.1152
11.0962
11.1011
1
1
1
1
1
1
1
1
1
1
1
1
1
1
1
1
1
1
1
1
1
1
1
1
1
1
1
1.01114
6.4083
10.381
10.4555
10.6164
10.7355
10.8317
10.9043
10.9468
10.9706
10.9689
10.9511
10.9167
10.8873
10.8964
10.9293
10.9392
10.9133
10.8725
10.7986
10.7086
1
1
1
1
1
1
1
1
1
1
1
1
1
1
1
1
1
1
1
1
1
1
1
1
1
1
1
1.00004
5.0586
10.1268
10.409
10.5452
10.6454
10.7259
10.7958
10.8368
10.8637
10.8661
10.843
10.7882
10.7266
10.6996
10.6992
10.6822
10.6076
10.4725
10.3162
10.1844
1
1
1
1
1
1
1
1
1
1
1
1
1
1
1
1
1
1
1
1
1
1
1
1
1
1
1
1
3.64329
9.60391
10.3341
10.4619
10.5544
10.6182
10.6768
10.7136
10.7414
10.7455
10.7169
10.6461
10.554
10.4824
10.4297
10.3563
10.2289
10.0368
9.81064
9.70098
1
1
1
1
1
1
1
1
1
1
1
1
1
1
1
1
1
1
1
1
1
1
1
1
1
1
1
1
2.28082
8.825
10.3733
10.3987
10.4633
10.5057
10.5429
10.5652
10.5809
10.5782
10.5457
10.4688
10.3591
10.2502
10.1427
10.0117
9.8034
9.42921
8.53392
6.57543
1
1
1
1
1
1
1
1
1
1
1
1
1
1
1
1
1
1
1
1
1
1
1
1
1
1
1
1
1.24141
7.59839
10.414
10.3634
10.393
10.4217
10.4448
10.4496
10.4422
10.4176
10.3698
10.2811
10.1506
10.0029
9.84042
9.63476
9.31022
8.7144
7.76118
5.57574
1
1
1
1
1
1
1
1
1
1
1
1
1
1
1
1
1
1
1
1
1
1
1
1
1
1
1
1
1.00626
5.94017
9.9312
10.1287
10.2303
10.2737
10.3031
10.3139
10.3028
10.2693
10.2095
10.1119
9.96321
9.77419
9.54784
9.26098
8.8466
8.21444
7.08568
5.23596
1
1
1
1
1
1
1
1
1
1
1
1
1
1
1
1
1
1
1
1
1
1
1
1
1
1
1
1
0.999999
4.10071
9.47664
10.0729
10.1427
10.1866
10.2078
10.2045
10.1736
10.1163
10.0347
9.92656
9.76956
9.55587
9.28166
8.93275
8.45127
7.79662
6.65193
5.17853
1
1
1
1
1
1
1
1
1
1
1
1
1
1
1
1
1
1
1
1
1
1
1
1
1
1
1
1
0.999999
2.35754
8.73952
10.0183
10.0435
10.0825
10.0896
10.0728
10.0275
9.95378
9.85673
9.7388
9.57684
9.34895
9.04145
8.64806
8.1393
7.46637
6.42968
5.25992
1
1
1
1
1
1
1
1
1
1
1
1
1
1
1
1
1
1
1
1
1
1
1
1
1
1
1
1
1
1.16151
7.24137
10.0195
9.94882
9.97711
9.96398
9.92293
9.86052
9.7753
9.67244
9.55136
9.38875
9.15823
8.83126
8.41667
7.89212
7.23043
6.34257
5.38212
1
1
1
1
1
1
1
1
1
1
1
1
1
1
1
1
1
1
1
1
1
1
1
1
1
1
1
1
1
1.00247
5.16664
9.52415
9.81782
9.87536
9.85955
9.80111
9.72544
9.6263
9.51082
9.37535
9.20307
8.97065
8.64221
8.22376
7.68576
7.05862
6.30134
5.48093
1
1
1
1
1
1
1
1
1
1
1
1
1
1
1
1
1
1
1
1
1
1
1
1
1
1
1
1
1
0.999991
2.88151
8.87984
9.72656
9.74426
9.72201
9.65487
9.57638
9.47124
9.34985
9.20361
9.02558
8.78505
8.4812
8.06035
7.53476
6.95728
6.29752
5.59516
1
1
1
1
1
1
1
1
1
1
1
1
1
1
1
1
1
1
1
1
1
1
1
1
1
1
1
1
1
0.999999
1.25613
7.39946
9.72095
9.62944
9.59737
9.52736
9.44452
9.33298
9.20709
9.051
8.85843
8.61203
8.30904
7.90832
7.41913
6.89291
6.29812
5.68656
1
1
1
1
1
1
1
1
1
1
1
1
1
1
1
1
1
1
1
1
1
1
1
1
1
1
1
1
1
1
1.00585
5.08048
9.2095
9.46911
9.49976
9.43759
9.34607
9.23632
9.09923
8.93123
8.71364
8.46262
8.14544
7.77375
7.3367
6.85625
6.31558
5.78215
1
1
1
1
1
1
1
1
1
1
1
1
1
1
1
1
1
1
1
1
1
1
1
1
1
1
1
1
1
1
0.999981
2.49982
8.55539
9.47399
9.41284
9.31582
9.20989
9.10205
8.95722
8.78999
8.5651
8.31407
7.99877
7.64821
7.25832
6.8143
6.32922
5.84344
1
1
1
1
1
1
1
1
1
1
1
1
1
1
1
1
1
1
1
1
1
1
1
1
1
1
1
1
1
1
0.999997
1.1587
6.78037
9.32855
9.25745
9.18666
9.0887
8.97711
8.82569
8.65642
8.43863
8.18542
7.88452
7.54868
7.18709
6.77886
6.34848
5.89722
1
1
1
1
1
1
1
1
1
1
1
1
1
1
1
1
1
1
1
1
1
1
1
1
1
1
1
1
1
1
1
1.00188
3.94025
8.65525
9.10058
9.1138
9.02781
8.90329
8.72945
8.54712
8.33473
8.08403
7.79718
7.47404
7.1249
6.74508
6.35342
5.93543
1
1
1
1
1
1
1
1
1
1
1
1
1
1
1
1
1
1
1
1
1
1
1
1
1
1
1
1
1
1
1
0.999997
1.5132
7.54671
9.13929
9.01656
8.91848
8.79292
8.61578
8.44323
8.23814
7.9996
7.72551
7.41743
7.07881
6.71943
6.35081
5.96848
1
1
1
1
1
1
1
1
1
1
1
1
1
1
1
1
1
1
1
1
1
1
1
1
1
1
1
1
1
1
1
0.999999
1.0216
5.02598
8.63263
8.81257
8.78036
8.68857
8.52741
8.3585
8.16529
7.93531
7.66869
7.36891
7.03935
6.69366
6.34153
5.98872
1
1
1
1
1
1
1
1
1
1
1
1
1
1
1
1
1
1
1
1
1
1
1
1
1
1
1
1
1
1
1
1
1.00001
2.02197
7.79639
8.90088
8.73132
8.60764
8.4499
8.26986
8.0695
7.84615
7.59557
7.31524
7.00381
6.67307
6.33786
6.00641
1
1
1
1
1
1
1
1
1
1
1
1
1
1
1
1
1
1
1
1
1
1
1
1
1
1
1
1
1
1
1
1
1
1.073
5.56626
8.50179
8.53198
8.45914
8.34967
8.19209
7.99581
7.77491
7.53327
7.26781
6.97641
6.66622
6.3505
6.0332
1
1
1
1
1
1
1
1
1
1
1
1
1
1
1
1
1
1
1
1
1
1
1
1
1
1
1
1
1
1
1
1
1
1.00038
2.34147
7.72984
8.57566
8.40472
8.27843
8.12497
7.93099
7.71114
7.47153
7.21541
6.9424
6.65473
6.35927
6.05693
1
1
1
1
1
1
1
1
1
1
1
1
1
1
1
1
1
1
1
1
1
1
1
1
1
1
1
1
1
1
1
1
1
1
1.11777
5.61976
8.3265
8.26677
8.16064
8.02254
7.85458
7.65473
7.42658
7.1779
6.91524
6.64388
6.36648
6.08292
1
1
1
1
1
1
1
1
1
1
1
1
1
1
1
1
1
1
1
1
1
1
1
1
1
1
1
1
1
1
1
1
1
1
1.00105
2.3237
7.47226
8.30421
8.13634
7.97358
7.80683
7.61334
7.3911
7.14882
6.89528
6.63476
6.3707
6.10282
1
1
1
1
1
1
1
1
1
1
1
1
1
1
1
1
1
1
1
1
1
1
1
1
1
1
1
1
1
1
1
1
1
1
1
1.1156
5.29215
8.07691
8.04633
7.89503
7.73331
7.54774
7.34201
7.11922
6.88189
6.63373
6.38143
6.12618
1
1
1
1
1
1
1
1
1
1
1
1
1
1
1
1
1
1
1
1
1
1
1
1
1
1
1
1
1
1
1
1
1
1
1
1.00111
2.13622
7.03554
8.06601
7.88222
7.70415
7.51596
7.32027
7.10928
6.88412
6.64673
6.40173
6.15231
1
1
1
1
1
1
1
1
1
1
1
1
1
1
1
1
1
1
1
1
1
1
1
1
1
1
1
1
1
1
1
1
1
1
1
1
1.08589
4.52795
7.72633
7.81619
7.63862
7.45462
7.26721
7.07163
6.86609
6.65053
6.42297
6.1844
1
1
1
1
1
1
1
1
1
1
1
1
1
1
1
1
1
1
1
1
1
1
1
1
1
1
1
1
1
1
1
1
1
1
1
1
1.00081
1.76419
6.38105
7.88505
7.65185
7.46686
7.26742
7.06493
6.85758
6.64792
6.43344
6.21059
1
1
1
1
1
1
1
1
1
1
1
1
1
1
1
1
1
1
1
1
1
1
1
1
1
1
1
1
1
1
1
1
1
1
1
1
1
1.03946
3.34437
7.1928
7.6084
7.41853
7.22707
7.02728
6.82945
6.63137
6.43182
6.22694
1
1
1
1
1
1
1
1
1
1
1
1
1
1
1
1
1
1
1
1
1
1
1
1
1
1
1
1
1
1
1
1
1
1
1
1
1
1.0003
1.34174
5.30645
7.57911
7.44226
7.25242
7.04625
6.84404
6.64353
6.44441
6.24379
1
1
1
1
1
1
1
1
1
1
1
1
1
1
1
1
1
1
1
1
1
1
1
1
1
1
1
1
1
1
1
1
1
1
1
1
1
1
1.00897
2.27838
6.53366
7.50281
7.26166
7.07387
6.87081
6.67394
6.4767
6.27662
1
1
1
1
1
1
1
1
1
1
1
1
1
1
1
1
1
1
1
1
1
1
1
1
1
1
1
1
1
1
1
1
1
1
1
1
1
1
1.00004
1.10434
3.77393
6.97925
7.26135
7.05951
6.87027
6.67187
6.47423
6.27632
1
1
1
1
1
1
1
1
1
1
1
1
1
1
1
1
1
1
1
1
1
1
1
1
1
1
1
1
1
1
1
1
1
1
1
1
1
1
1
1.0014
1.47946
5.20655
7.21233
7.1029
6.91327
6.71616
6.51704
6.31424
1
1
1
1
1
1
1
1
1
1
1
1
1
1
1
1
1
1
1
1
1
1
1
1
1
1
1
1
1
1
1
1
1
1
1
1
1
1
1
1
1.01692
2.28234
6.14422
7.14641
6.95355
6.75763
6.56707
6.36935
1
1
1
1
1
1
1
1
1
1
1
1
1
1
1
1
1
1
1
1
1
1
1
1
1
1
1
1
1
1
1
1
1
1
1
1
1
1
1
1
1.00011
1.10599
3.35682
6.62696
6.98196
6.78535
6.58803
6.39873
1
1
1
1
1
1
1
1
1
1
1
1
1
1
1
1
1
1
1
1
1
1
1
1
1
1
1
1
1
1
1
1
1
1
1
1
1
1
1
1
1
1.00155
1.35051
4.50161
6.6861
6.82033
6.61659
6.43079
1
1
1
1
1
1
1
1
1
1
1
1
1
1
1
1
1
1
1
1
1
1
1
1
1
1
1
1
1
1
1
1
1
1
1
1
1
1
1
1
1
1
1.01024
1.83128
5.28553
6.73918
6.67414
6.48512
1
1
1
1
1
1
1
1
1
1
1
1
1
1
1
1
1
1
1
1
1
1
1
1
1
1
1
1
1
1
1
1
1
1
1
1
1
1
1
1
1
1
1.00006
1.0466
2.47115
5.7974
6.65503
6.54762
1
1
1
1
1
1
1
1
1
1
1
1
1
1
1
1
1
1
1
1
1
1
1
1
1
1
1
1
1
1
1
1
1
1
1
1
1
1
1
1
1
1
1
1.00048
1.14025
3.17803
6.08154
6.54258
1
1
1
1
1
1
1
1
1
1
1
1
1
1
1
1
1
1
1
1
1
1
1
1
1
1
1
1
1
1
1
1
1
1
1
1
1
1
1
1
1
1
1
1
1.00254
1.31344
3.83184
6.2141
1
1
1
1
1
1
1
1
1
1
1
1
1
1
1
1
1
1
1
1
1
1
1
1
1
1
1
1
1
1
1
1
1
1
1
1
1
1
1
1
1
1
1
1
1.00001
1.009
1.56081
4.40237
1
1
1
1
1
1
1
1
1
1
1
1
1
1
1
1
1
1
1
1
1
1
1
1
1
1
1
1
1
1
1
1
1
1
1
1
1
1
1
1
1
1
1
1
1
1.00005
1.02432
1.87309
1
1
1
1
1
1
1
1
1
1
1
1
1
1
1
1
1
1
1
1
1
1
1
1
1
1
1
1
1
1
1
1
1
1
1
1
1
1
1
1
1
1
1
1
1
1
1.00021
1.05402
1
1
1
1
1
1
1
1
1
1
1
1
1
1
1
1
1
1
1
1
1
1
1
1
1
1
1
1
1
1
1
1
1
1
1
1
1
1
1
1
1
1
1
1
1
1
1
1.00064
1
1
1
1
1
1
1
1
1
1
1
1
1
1
1
1
1
1
1
1
1
1
1
1
1
1
1
1
1
1
1
1
1
1
1
1
1
1
1
1
1
1
1
1
1
1
1
1
1
1
1
1
1
1
1
1
1
1
1
1
1
1
1
1
1
1
1
1
1
1
1
1
1
1
1
1
1
1
1
1
1
1
1
1
1
1
1
1
1
1
1
1
1
1
1
1
1
1
1
1
1
1
1
1
1
1
1
1
1
1
1
1
1
1
1
1
1
1
1
1
1
1
1
1
1
1
1
1
1
1
1
1
1
1
1
1
1
1
1
1
1
1
1
1
1
1
1
1
1
1
1
1
1
1
1
1
1
1
1
1
1
1
1
1
1
1
1
1
1
1
1
1
1
1
1
1
1
1
1
1
1
1
1
1
1
1
1
1
1
1
1
1
1
1
1
1
1
1
1
1
1
1
1
1
1
1
1
1
1
1
1
1
1
1
1
1
1
1
1
1
1
1
1
1
1
1
1
1
1
1
1
1
1
1
1
1
1
1
1
1
1
1
1
1
1
1
1
1
1
1
1
1
1
1
1
1
1
1
1
1
1
1
1
1
1
1
1
1
1
1
1
1
1
1
1
1
1
1
1
1
1
1
1
1
1
1
1
1
1
1
1
1
1
1
1
1
1
1
1
1
1
1
1
1
1
1
1
1
1
1
1
1
1
1
1
1
1
1
1
1
1
1
1
1
1
1
1
1
1
1
1
1
1
1
1
1
1
1
1
1
1
1
1
1
1
1
1
1
1
1
1
1
1
1
1
1
1
1
1
1
1
1
1
1
1
1
1
1
1
1
1
1
1
1
1
1
1
1
1
1
1
1
1
1
1
1
1
1
1
1
1
1
1
1
1
1
1
1
1
1
1
1
1
1
1
1
1
1
1
1
1
1
1
1
1
1
1
1
1
1
1
1
1
1
1
1
1
1
1
1
1
1
1
1
1
1
1
1
1
1
1
1
1
1
1
1
1
1
1
1
1
1
1
1
1
1
1
1
1
1
1
1
1
1
1
1
1
1
1
1
1
1
1
1
1
1
1
1
1
1
1
1
1
1
1
1
1
1
1
1
1
1
1
1
1
1
1
1
1
1
1
1
1
1
1
1
1
1
1
1
1
1
1
1
1
1
1
1
1
1
1
1
1
1
1
1
1
1
1
1
1
1
1
1
1
1
1
1
1
1
1
1
1
1
1
1
1
1
1
1
1
1
1
1
1
1
1
1
1
1
1
1
1
1
1
1
1
1
1
1
1
1
1
1
1
1
1
1
1
1
1
1
1
1
1
1
1
1
1
1
1
1
1
1
1
1
1
1
1
1
1
1
1
1
1
1
1
1
1
1
1
1
1
1
1
1
1
1
1
1
1
1
1
1
1
1
1
1
1
1
1
1
1
1
1
1
1
1
1
1
1
1
1
1
1
1
1
1
1
1
1
1
1
1
1
1
1
1
1
1
1
1
1
1
1
1
1
1
1
1
1
1
1
1
1
1
1
1
1
1
1
1
1
1
1
1
1
1
1
1
1
1
1
1
1
1
1
1
1
1
1
1
1
1
1
1
1
1
1
1
1
1
1
1
1
1
1
1
1
1
1
1
1
1
1
1
1
1
1
1
1
1
1
1
1
1
1
1
1
1
1
1
1
1
1
1
1
1
1
1
1
1
1
1
1
1
1
1
1
1
1
1
1
1
1
1
1
1
1
1
1
1
1
1
1
1
1
1
1
1
1
1
1
1
1
1
1
1
1
1
1
1
1
1
1
1
1
1
1
1
1
1
1
1
1
1
1
1
1
1
1
1
1
1
1
1
1
1
1
1
1
1
1
1
1
1
1
1
1
1
1
1
1
1
1
1
1
1
1
1
1
1
1
1
1
1
1
1
1
1
1
1
1
1
1
1
1
1
1
1
1
1
1
1
1
1
1
1
1
1
1
1
1
1
1
1
1
1
1
1
1
1
1
1
1
1
1
1
1
1
1
1
1
1
1
1
1
1
1
1
1
1
1
1
1
1
1
1
1
1
1
1
1
1
1
1
1
1
1
1
1
1
1
1
1
1
1
1
1
1
1
1
1
1
1
1
1
1
1
1
1
1
1
1
1
1
1
1
1
1
1
1
1
1
1
1
1
1
1
1
1
1
1
1
1
1
1
1
1
1
1
1
1
1
1
1
1
1
1
1
1
1
1
1
1
1
1
1
1
1
1
1
1
1
1
1
1
1
1
1
1
1
1
1
1
1
1
1
1
1
1
1
1
1
1
1
1
1
1
1
1
1
1
1
1
1
1
1
1
1
1
1
1
1
1
1
1
1
1
1
1
1
1
1
1
1
1
1
1
1
1
1
1
1
1
1
1
1
1
1
1
1
1
1
1
1
1
1
1
1
1
1
1
1
1
1
1
1
1
1
1
1
1
1
1
1
1
1
1
1
1
1
1
1
1
1
1
1
1
1
1
1
1
1
1
1
1
1
1
1
1
1
1
1
1
1
1
1
1
1
1
1
1
1
1
1
1
1
1
1
1
1
1
1
1
1
1
1
1
1
1
1
1
1
1
1
1
1
1
1
1
1
1.25726
0.264277
0.0265693
0.0187613
0.0348418
0.0905103
0.141456
0.16892
0.226336
0.310465
0.374556
0.411878
0.456407
0.526556
0.598733
0.672652
0.736565
0.814254
0.914573
0.955584
0.943028
0.940922
0.936348
0.940667
0.957659
0.975134
0.989373
0.999263
0.998066
1.00582
1.02712
1.05947
1.0851
1.10655
1.12009
1.1173
1.11632
1.10921
1.10177
1.10212
1.10266
1.11347
1.12805
1.13141
1.13274
1.12819
1.11672
1.10886
1.10677
1.10581
1.1082
1.11856
1.1358
1.14053
1.13704
1.12963
1.11725
1.10596
1.10053
1.09699
1.09473
1.09406
1.09293
1.0896
1.08379
1.07336
1.06009
1.05441
1.05213
1.04999
1.04922
1.05048
1.05219
1.05044
1.04555
1.03896
1.02948
1.01894
1.00934
1.00346
1.00055
0.998457
0.996931
0.995448
0.991527
0.986317
0.980346
0.974422
0.969227
0.965989
0.966525
0.967416
0.967596
0.966971
0.96552
0.96201
0.953282
0.941917
0.935623
0.93223
0.929698
0.927902
0.926954
0.926564
0.925432
0.922599
0.916538
0.90478
0.892038
0.886658
0.88514
0.884621
0.885065
0.887176
0.889507
0.891473
0.894384
0.897745
0.898436
0.897545
0.896025
0.892269
0.883291
0.863107
0.840745
0.833099
0.8318
0.830811
0.829724
0.828741
0.829484
0.833702
0.840775
0.847369
0.849365
0.848695
0.845848
0.835224
0.820938
0.816044
0.817038
0.820493
0.824711
0.83041
0.839844
0.849323
0.852843
0.854743
0.856142
0.855151
0.849939
0.84906
0.85025
0.85189
0.854869
0.861536
0.871411
0.878561
0.882043
0.88381
0.884495
0.883211
0.879177
0.878516
0.879611
0.881273
0.884261
0.888727
0.892574
0.895623
0.898514
0.900579
0.900646
0.898109
0.896812
0.897926
0.900456
0.904438
0.90921
0.914464
0.918013
0.919531
0.919093
0.917321
0.918431
0.919834
0.921485
0.924857
0.928609
0.929816
0.930288
0.928864
2.17685
1.01628
0.507363
0.281925
0.216711
0.225169
0.242996
0.238952
0.231044
0.234982
0.255577
0.282209
0.301675
0.332835
0.398839
0.486723
0.564946
0.612594
0.681985
0.777487
0.844038
0.87538
0.8886
0.901559
0.924944
0.946551
0.967433
0.988434
0.9908
0.995002
1.01317
1.0415
1.06723
1.08576
1.09687
1.09593
1.09618
1.09393
1.09592
1.09938
1.1031
1.11466
1.12525
1.12897
1.1323
1.13243
1.12608
1.11608
1.11007
1.10765
1.10675
1.11185
1.12383
1.13075
1.12968
1.12481
1.11738
1.10594
1.09449
1.08657
1.08136
1.0795
1.08001
1.08063
1.07786
1.074
1.06837
1.06189
1.0588
1.05533
1.05211
1.05056
1.04851
1.04502
1.04073
1.03587
1.03003
1.02299
1.0157
1.0101
1.00567
1.00097
0.994603
0.987859
0.983767
0.980055
0.975169
0.971006
0.968393
0.96687
0.965506
0.964453
0.962919
0.961254
0.959344
0.955398
0.945866
0.934662
0.929228
0.926555
0.925078
0.924343
0.924219
0.924846
0.925322
0.924422
0.921855
0.917017
0.909144
0.900606
0.895609
0.893188
0.891398
0.890098
0.889825
0.890241
0.890992
0.891214
0.889029
0.886362
0.883531
0.879792
0.873495
0.865486
0.855725
0.843093
0.836453
0.835037
0.833879
0.832511
0.831816
0.833606
0.838387
0.842984
0.844164
0.843702
0.841068
0.834916
0.827414
0.821943
0.820022
0.822092
0.826331
0.83171
0.83967
0.848121
0.852127
0.854242
0.855784
0.856075
0.852982
0.850272
0.850829
0.852148
0.854367
0.859405
0.867619
0.872915
0.875666
0.878372
0.881153
0.882816
0.88361
0.884242
0.885008
0.885714
0.88686
0.88886
0.891117
0.892972
0.893752
0.895259
0.897408
0.899396
0.90165
0.90347
0.904041
0.904682
0.907931
0.912356
0.916681
0.919455
0.920666
0.920625
0.920021
0.920902
0.922086
0.923418
0.925614
0.928922
0.930506
0.931035
2.91329
1.74812
1.1907
0.84364
0.626449
0.455097
0.41672
0.381364
0.329611
0.288734
0.291323
0.320458
0.336031
0.344861
0.371823
0.411741
0.453675
0.488471
0.521937
0.598461
0.710897
0.776715
0.822529
0.864069
0.908994
0.938205
0.957046
0.98338
0.992465
1.00317
1.02996
1.06681
1.0946
1.10106
1.09689
1.08866
1.07838
1.07363
1.07629
1.08344
1.09727
1.11546
1.12565
1.13101
1.13485
1.13677
1.13454
1.1266
1.11673
1.1136
1.1135
1.11678
1.12346
1.12696
1.12663
1.12411
1.12069
1.11455
1.10611
1.09825
1.09054
1.08385
1.07813
1.07277
1.06848
1.06578
1.06416
1.06405
1.06433
1.06311
1.06043
1.05771
1.05406
1.04775
1.03702
1.02635
1.02082
1.01677
1.01481
1.01308
1.01118
1.00909
1.00519
0.997704
0.987003
0.979401
0.973833
0.969537
0.966615
0.965084
0.964631
0.964756
0.96456
0.963169
0.960503
0.954439
0.941007
0.928178
0.92222
0.919789
0.918487
0.917469
0.916831
0.916243
0.915966
0.916186
0.915718
0.914288
0.911647
0.908057
0.905671
0.904466
0.903585
0.902675
0.901363
0.899023
0.89533
0.890222
0.884307
0.877956
0.87089
0.863726
0.860175
0.861081
0.859552
0.85251
0.840187
0.834025
0.833112
0.832946
0.834405
0.838113
0.840945
0.840132
0.838271
0.835565
0.831725
0.829267
0.828051
0.826472
0.823452
0.822056
0.825706
0.831979
0.840365
0.848842
0.852245
0.853878
0.855049
0.854559
0.854962
0.856838
0.858228
0.859841
0.862316
0.86449
0.865518
0.866304
0.867301
0.868528
0.870078
0.873012
0.878413
0.884106
0.888693
0.891949
0.894515
0.896444
0.895886
0.89152
0.886713
0.885743
0.887897
0.892305
0.89952
0.905519
0.909343
0.912687
0.914001
0.911729
0.909488
0.911937
0.916866
0.92153
0.924337
0.926318
0.926867
0.925319
0.921988
0.921812
0.923198
0.928093
3.51803
2.50359
1.82902
1.3738
1.08013
0.841643
0.68888
0.632727
0.573153
0.474383
0.435142
0.448209
0.444872
0.419933
0.401248
0.403928
0.410886
0.416764
0.422982
0.445369
0.514185
0.600126
0.686419
0.756862
0.803503
0.841418
0.865601
0.902676
0.929634
0.957133
0.999496
1.03858
1.07667
1.09822
1.09971
1.09029
1.0761
1.07455
1.07701
1.08633
1.10043
1.11044
1.11483
1.11548
1.11676
1.11881
1.11922
1.11757
1.11602
1.11707
1.12005
1.12431
1.1259
1.12463
1.1229
1.1197
1.11342
1.10493
1.09702
1.09056
1.086
1.08439
1.08293
1.07989
1.07635
1.07217
1.0666
1.06157
1.05884
1.05568
1.05269
1.05084
1.05004
1.04861
1.04333
1.03312
1.02307
1.01809
1.01465
1.01124
1.00787
1.00388
0.999845
0.994412
0.987188
0.981282
0.976455
0.972727
0.969909
0.96789
0.966182
0.964763
0.963914
0.962061
0.958043
0.950121
0.938553
0.93083
0.926673
0.924792
0.923459
0.922639
0.922455
0.922482
0.921952
0.920395
0.918203
0.91586
0.913538
0.911349
0.909244
0.906976
0.904093
0.900492
0.89668
0.892572
0.887833
0.883279
0.879029
0.8744
0.869234
0.865256
0.86483
0.865738
0.865683
0.862643
0.85358
0.840049
0.833397
0.832402
0.832555
0.834923
0.836501
0.835988
0.834323
0.831579
0.828899
0.828614
0.830101
0.831763
0.831832
0.829251
0.82801
0.83161
0.837207
0.844206
0.849814
0.852469
0.853779
0.852678
0.852935
0.854863
0.856751
0.859615
0.864488
0.867969
0.870049
0.871726
0.872561
0.872211
0.872547
0.874094
0.877122
0.881876
0.886417
0.889331
0.892218
0.895155
0.89694
0.894905
0.891023
0.889802
0.891125
0.893912
0.898667
0.903244
0.9073
0.911844
0.915618
0.914431
0.910302
0.911573
0.914897
0.918813
0.922853
0.925978
0.928059
0.928579
0.926855
0.924205
0.923637
0.926675
4.02505
3.08175
2.37405
1.92656
1.5979
1.27614
0.981896
0.871895
0.818307
0.737462
0.636882
0.604741
0.581703
0.53536
0.483891
0.480533
0.483563
0.473974
0.465131
0.47167
0.487304
0.501648
0.520928
0.561328
0.606434
0.663446
0.719799
0.782847
0.848672
0.893309
0.936667
0.972963
1.0106
1.04378
1.05224
1.05224
1.06624
1.08945
1.10947
1.1186
1.12266
1.12373
1.11715
1.10544
1.09936
1.09893
1.10018
1.10551
1.11722
1.13002
1.139
1.14139
1.13702
1.1253
1.1142
1.10331
1.09194
1.08532
1.0833
1.08235
1.08378
1.08688
1.08799
1.0862
1.07984
1.07184
1.06465
1.05722
1.05199
1.04924
1.04816
1.04871
1.0495
1.04845
1.04719
1.04226
1.03315
1.02506
1.01839
1.01156
1.00395
0.996399
0.99029
0.985596
0.983373
0.982638
0.981771
0.980336
0.978587
0.97613
0.972672
0.96914
0.965937
0.959144
0.948349
0.935307
0.928019
0.924909
0.922582
0.921371
0.920997
0.921144
0.922269
0.924396
0.926235
0.926778
0.926675
0.925715
0.923117
0.919379
0.915363
0.911106
0.905682
0.897899
0.888269
0.879755
0.873429
0.869733
0.868056
0.866492
0.865393
0.865417
0.865714
0.865915
0.865921
0.865201
0.861903
0.854306
0.844422
0.837839
0.834968
0.832698
0.830017
0.827162
0.825087
0.824869
0.82622
0.828645
0.830583
0.832505
0.83452
0.835172
0.83425
0.836167
0.840221
0.844472
0.847348
0.848981
0.849583
0.850712
0.85225
0.8534
0.85531
0.858232
0.861339
0.863276
0.864899
0.866914
0.869412
0.872371
0.876059
0.879847
0.882749
0.884837
0.88649
0.887969
0.888487
0.887663
0.886984
0.887966
0.890832
0.893772
0.897311
0.901056
0.903964
0.906269
0.907922
0.908636
0.908508
0.907586
0.909802
0.914592
0.919392
0.922396
0.923509
0.923224
0.921523
0.922278
0.924105
0.926251
0.928704
0.930655
4.3961
3.5898
2.89003
2.353
2.00979
1.70602
1.42516
1.15973
1.03197
0.957277
0.865692
0.803359
0.769918
0.716122
0.634355
0.61216
0.600243
0.580333
0.557221
0.543755
0.534615
0.529864
0.530443
0.521978
0.522242
0.531311
0.554714
0.596726
0.668752
0.738365
0.788006
0.835286
0.880444
0.940834
0.982606
1.00935
1.03988
1.06621
1.08886
1.09892
1.10358
1.1049
1.10001
1.09138
1.09001
1.09405
1.09955
1.11239
1.13074
1.13701
1.13578
1.12869
1.11517
1.09936
1.08748
1.08088
1.07859
1.08066
1.08807
1.09158
1.09076
1.089
1.08562
1.07908
1.0697
1.06392
1.06003
1.05647
1.05623
1.05854
1.06064
1.05967
1.0565
1.05057
1.04354
1.0357
1.02522
1.01604
1.01008
1.00569
1.0019
0.998826
0.995932
0.9934
0.990767
0.988109
0.984686
0.9802
0.975314
0.970469
0.966741
0.964384
0.962459
0.957146
0.946551
0.935042
0.93152
0.929517
0.927681
0.926464
0.926026
0.926184
0.927205
0.928739
0.929596
0.92923
0.927876
0.924134
0.918349
0.913379
0.909975
0.907242
0.903647
0.89803
0.889156
0.879367
0.873235
0.870338
0.868828
0.867942
0.867241
0.866357
0.865353
0.864731
0.864869
0.865353
0.86525
0.862146
0.852583
0.839234
0.830777
0.826264
0.823297
0.822438
0.823387
0.824971
0.827629
0.830608
0.83171
0.832993
0.834451
0.835415
0.836564
0.838613
0.841522
0.843413
0.842767
0.84327
0.846298
0.850129
0.854227
0.857947
0.860561
0.862268
0.863514
0.864405
0.865105
0.866484
0.868527
0.871333
0.875495
0.880398
0.883479
0.885407
0.887315
0.889001
0.888929
0.886635
0.885461
0.887974
0.891532
0.895401
0.899763
0.903017
0.905146
0.907049
0.908045
0.907481
0.906064
0.906222
0.91005
0.9155
0.9211
0.924665
0.926136
0.924931
0.920636
0.920109
0.921876
0.924586
0.928867
0.932003
4.66531
3.95692
3.30049
2.8014
2.39208
2.02447
1.7453
1.51718
1.32323
1.19687
1.09421
0.999435
0.931108
0.869105
0.803703
0.753127
0.721114
0.693497
0.671534
0.646299
0.621425
0.615469
0.60288
0.570576
0.544995
0.54403
0.553671
0.560703
0.572415
0.587615
0.605892
0.63411
0.679457
0.740482
0.831733
0.905591
0.968533
1.02388
1.05639
1.07606
1.08072
1.08209
1.07972
1.07543
1.07967
1.0899
1.09831
1.11013
1.12354
1.12323
1.11828
1.10837
1.09001
1.0793
1.07625
1.07533
1.08151
1.09192
1.0947
1.09273
1.08703
1.07991
1.07349
1.06881
1.06775
1.06869
1.06983
1.06967
1.06971
1.06858
1.064
1.05546
1.04603
1.03635
1.02509
1.01693
1.01318
1.01073
1.00907
1.01051
1.01222
1.01019
1.00533
0.997335
0.987338
0.980431
0.976608
0.973296
0.96966
0.967318
0.967378
0.967604
0.966302
0.962615
0.955039
0.946633
0.941878
0.938652
0.935911
0.933584
0.931788
0.930503
0.929317
0.927512
0.924944
0.921351
0.916299
0.910265
0.905611
0.902828
0.90149
0.900694
0.899518
0.896991
0.891652
0.882491
0.874569
0.87133
0.870794
0.870554
0.870242
0.870256
0.870835
0.872476
0.874812
0.875725
0.874397
0.868647
0.855121
0.83671
0.824217
0.818469
0.816893
0.817638
0.818634
0.819691
0.821697
0.826271
0.832668
0.838641
0.843046
0.845817
0.847
0.845917
0.842099
0.837118
0.834749
0.836598
0.840481
0.846137
0.85454
0.859897
0.861576
0.863036
0.864364
0.865579
0.867056
0.86867
0.870772
0.874196
0.878602
0.881312
0.882678
0.883813
0.884252
0.883691
0.882697
0.883086
0.886129
0.890433
0.895506
0.900315
0.903077
0.904362
0.904283
0.902637
0.901097
0.901225
0.90362
0.907629
0.913238
0.918488
0.921884
0.923965
0.923697
0.920666
0.919656
0.921393
0.924186
0.927805
0.929965
0.931256
4.89887
4.23818
3.63787
3.15814
2.73645
2.35751
2.06185
1.81212
1.59581
1.43656
1.33811
1.23203
1.12156
1.02432
0.951567
0.890426
0.852533
0.821762
0.803445
0.781686
0.740498
0.708276
0.689776
0.657594
0.612404
0.593426
0.5916
0.585941
0.582058
0.588017
0.584392
0.574865
0.576303
0.58807
0.629266
0.70082
0.779273
0.874514
0.940218
0.995841
1.01837
1.03052
1.04737
1.05726
1.06783
1.08611
1.10166
1.11079
1.11487
1.11032
1.09951
1.08699
1.07887
1.07776
1.0795
1.08726
1.09393
1.09268
1.08862
1.08429
1.07903
1.07229
1.06846
1.0688
1.07237
1.07665
1.07581
1.07241
1.0668
1.06138
1.0554
1.0465
1.03417
1.02398
1.01626
1.01121
1.00973
1.01141
1.01599
1.01689
1.0131
1.0077
1.0003
0.989303
0.979639
0.975426
0.974284
0.974095
0.974295
0.975671
0.976598
0.975614
0.972014
0.963721
0.953636
0.946178
0.940903
0.936371
0.932856
0.930162
0.927834
0.925638
0.92287
0.919303
0.914966
0.910292
0.905683
0.902357
0.900796
0.900766
0.901182
0.901252
0.900955
0.899908
0.896834
0.890086
0.88179
0.878069
0.878039
0.878935
0.880522
0.881627
0.881342
0.880543
0.878688
0.873949
0.866665
0.85726
0.844226
0.828983
0.818046
0.813042
0.812276
0.81326
0.814463
0.816114
0.820091
0.830391
0.84411
0.852845
0.855673
0.855339
0.84851
0.837776
0.830526
0.826585
0.82681
0.829799
0.834779
0.844556
0.85841
0.8648
0.866558
0.867994
0.868878
0.867893
0.868612
0.870341
0.872196
0.874628
0.877551
0.879012
0.879936
0.880289
0.87967
0.87911
0.88039
0.883716
0.889364
0.897177
0.903592
0.905825
0.905776
0.903021
0.898709
0.895685
0.894753
0.896329
0.901189
0.910175
0.919209
0.923936
0.926268
0.925718
0.92147
0.918061
0.918761
0.921167
0.925329
0.929477
0.93067
0.931543
5.06607
4.45871
3.93224
3.46283
3.03219
2.66041
2.36327
2.10158
1.86779
1.68061
1.55942
1.43378
1.30853
1.20332
1.12627
1.05566
0.992649
0.940366
0.909467
0.884684
0.854419
0.815548
0.780809
0.744219
0.696185
0.67544
0.671762
0.66136
0.643233
0.630271
0.615675
0.592407
0.584818
0.586923
0.592719
0.6067
0.629657
0.673122
0.731736
0.789905
0.854835
0.907443
0.95874
0.996241
1.02849
1.06347
1.09125
1.10169
1.10345
1.09457
1.07534
1.07018
1.07428
1.08153
1.09203
1.10078
1.09904
1.09342
1.08501
1.07504
1.07075
1.07
1.06942
1.0723
1.07711
1.07631
1.07234
1.06663
1.05963
1.05131
1.04176
1.03352
1.02885
1.02537
1.02355
1.02137
1.01969
1.02005
1.01844
1.01378
1.00673
0.998317
0.990747
0.983261
0.978561
0.978098
0.979544
0.982061
0.983085
0.982203
0.979748
0.974416
0.966233
0.95613
0.944471
0.938208
0.935072
0.931977
0.929554
0.92784
0.925821
0.923161
0.920311
0.916112
0.910177
0.905977
0.904088
0.903434
0.903469
0.904008
0.904395
0.904662
0.904643
0.903952
0.902314
0.899356
0.894992
0.890291
0.887436
0.886171
0.884537
0.881933
0.878335
0.873833
0.868653
0.862662
0.855151
0.844972
0.833252
0.823015
0.815107
0.811378
0.81167
0.813406
0.815932
0.822149
0.834315
0.848539
0.856078
0.856944
0.854208
0.847641
0.837487
0.824932
0.817628
0.817639
0.820571
0.825377
0.834945
0.853088
0.86939
0.873655
0.875161
0.875649
0.870811
0.865326
0.864962
0.865741
0.866697
0.86844
0.872116
0.876064
0.877683
0.878783
0.880239
0.882935
0.887436
0.893421
0.89913
0.90234
0.903471
0.902192
0.898141
0.894227
0.892358
0.892511
0.894286
0.89945
0.909593
0.920995
0.925995
0.926705
0.925465
0.921227
0.916885
0.916584
0.918377
0.922173
0.926259
0.928649
0.929856
0.93085
5.21036
4.65927
4.17789
3.72119
3.29363
2.95056
2.63758
2.37276
2.12899
1.93366
1.77225
1.64025
1.51464
1.37534
1.2892
1.21477
1.15061
1.1003
1.05224
0.995069
0.941341
0.904198
0.873623
0.841173
0.793339
0.768003
0.759855
0.744645
0.720977
0.697159
0.672647
0.638451
0.614451
0.60734
0.605955
0.610725
0.621219
0.626507
0.630015
0.63746
0.660394
0.703541
0.762808
0.837182
0.908271
0.987617
1.03887
1.07006
1.07784
1.07396
1.06292
1.06173
1.0697
1.08452
1.09641
1.09612
1.09182
1.08536
1.07634
1.0653
1.06329
1.06425
1.0687
1.07777
1.07965
1.07732
1.07088
1.0598
1.0451
1.03249
1.02748
1.02546
1.02571
1.0305
1.03773
1.03781
1.03287
1.02448
1.01494
1.00622
0.996188
0.988668
0.984696
0.982126
0.98105
0.982203
0.984781
0.985532
0.983703
0.979922
0.974798
0.968323
0.957813
0.94376
0.936488
0.934237
0.933526
0.932632
0.931915
0.931032
0.928995
0.92628
0.92297
0.917467
0.910625
0.908515
0.907992
0.908081
0.908505
0.908692
0.908475
0.908356
0.908331
0.907791
0.906844
0.905581
0.902936
0.8974
0.890162
0.883914
0.879451
0.875223
0.87073
0.865573
0.859207
0.850786
0.841225
0.833801
0.828318
0.824097
0.820183
0.817861
0.818502
0.821166
0.828442
0.840103
0.848901
0.851016
0.850408
0.848659
0.845366
0.83719
0.822555
0.812368
0.811306
0.814097
0.819476
0.829596
0.849701
0.870839
0.87745
0.878988
0.87842
0.871717
0.861789
0.85705
0.857472
0.85843
0.860024
0.863753
0.871055
0.87841
0.882701
0.886276
0.8901
0.893425
0.895373
0.896205
0.896129
0.894586
0.892216
0.891433
0.89163
0.892237
0.893852
0.898284
0.905557
0.913173
0.91802
0.919571
0.918836
0.916492
0.914492
0.913915
0.914689
0.918184
0.924426
0.928567
0.929815
0.92979
0.9294
0.929832
5.31809
4.83461
4.38252
3.93759
3.54901
3.21107
2.90064
2.61138
2.37767
2.17566
1.98842
1.8394