/*--------------------------------*- C++ -*----------------------------------*\
  =========                 |
  \\      /  F ield         | OpenFOAM: The Open Source CFD Toolbox
   \\    /   O peration     | Website:  https://openfoam.org
    \\  /    A nd           | Version:  7
     \\/     M anipulation  |
\*---------------------------------------------------------------------------*/
FoamFile
{
    version     2.0;
    format      ascii;
    class       volScalarField;
    location    "1";
    object      T;
}
// * * * * * * * * * * * * * * * * * * * * * * * * * * * * * * * * * * * * * //

dimensions      [0 0 0 1 0 0 0];

internalField   nonuniform List<scalar> 
16128
(
1
1
1
1
1
1
1
1
1
1
1
1
1
1
1
1
1
1
1
1
1
1
1
1
1
1
1.12725
2.37411
2.71014
2.76615
2.79896
2.81442
2.82066
2.8228
2.82399
2.82775
2.83503
2.84294
2.85121
2.85936
2.86738
2.87427
2.88393
2.90197
2.93917
3.00509
3.07262
3.10379
1
1
1
1
1
1
1
1
1
1
1
1
1
1
1
1
1
1
1
1
1
1
1
1
1
1
1.11493
2.36304
2.71104
2.76736
2.80005
2.81445
2.82001
2.82206
2.82339
2.8273
2.83468
2.84282
2.85104
2.85892
2.86672
2.87353
2.88333
2.90159
2.93906
3.00494
3.07207
3.10292
1
1
1
1
1
1
1
1
1
1
1
1
1
1
1
1
1
1
1
1
1
1
1
1
1
1
1.07255
2.33194
2.71452
2.77008
2.80121
2.81373
2.8184
2.82063
2.82232
2.82648
2.83397
2.84237
2.85043
2.85798
2.86575
2.87275
2.88289
2.90155
2.93953
3.00548
3.07185
3.10199
1
1
1
1
1
1
1
1
1
1
1
1
1
1
1
1
1
1
1
1
1
1
1
1
1
1
1.00783
2.29525
2.7189
2.77274
2.80075
2.81149
2.81573
2.8183
2.82035
2.82477
2.83243
2.84117
2.84907
2.85624
2.864
2.87129
2.88194
2.90118
2.9398
3.00594
3.07163
3.10103
1
1
1
1
1
1
1
1
1
1
1
1
1
1
1
1
1
1
1
1
1
1
1
1
1
1
1.00003
2.25303
2.72152
2.77479
2.79895
2.80811
2.81212
2.81492
2.81714
2.82181
2.82978
2.83894
2.84675
2.85348
2.86126
2.8689
2.88016
2.90004
2.9392
3.00572
3.07116
3.10006
1
1
1
1
1
1
1
1
1
1
1
1
1
1
1
1
1
1
1
1
1
1
1
1
1
1
1
2.19728
2.72336
2.77529
2.795
2.8037
2.80745
2.81002
2.81204
2.81703
2.82572
2.83567
2.8437
2.85001
2.85763
2.86541
2.87713
2.89753
2.93704
3.0042
3.06998
3.09877
1
1
1
1
1
1
1
1
1
1
1
1
1
1
1
1
1
1
1
1
1
1
1
1
1
1
1
2.12378
2.72119
2.77433
2.79005
2.79828
2.80149
2.80343
2.80502
2.81046
2.82051
2.83171
2.84033
2.84631
2.85312
2.86061
2.87235
2.89292
2.93254
3.00059
3.06761
3.09696
1
1
1
1
1
1
1
1
1
1
1
1
1
1
1
1
1
1
1
1
1
1
1
1
1
1
1
2.0304
2.71249
2.77261
2.78472
2.79123
2.79353
2.79476
2.79628
2.80259
2.81466
2.82735
2.83672
2.84234
2.84803
2.85489
2.86614
2.88623
2.92551
2.99441
3.06326
3.09372
1
1
1
1
1
1
1
1
1
1
1
1
1
1
1
1
1
1
1
1
1
1
1
1
1
1
1
1.91716
2.69507
2.76897
2.77596
2.78078
2.78328
2.78422
2.78674
2.79466
2.8089
2.82279
2.8327
2.8378
2.84235
2.84831
2.85844
2.87723
2.91572
2.98529
3.05634
3.0885
1
1
1
1
1
1
1
1
1
1
1
1
1
1
1
1
1
1
1
1
1
1
1
1
1
1
1
1.78654
2.66381
2.76097
2.76342
2.76777
2.77147
2.77358
2.77788
2.7879
2.80349
2.81825
2.82775
2.83202
2.8357
2.84083
2.84977
2.86691
2.90402
2.97333
3.04602
3.07976
1
1
1
1
1
1
1
1
1
1
1
1
1
1
1
1
1
1
1
1
1
1
1
1
1
1
1
1.62234
2.6029
2.74415
2.74709
2.75312
2.75813
2.76232
2.76982
2.78298
2.79914
2.81373
2.82174
2.82463
2.82725
2.83153
2.83949
2.85473
2.88995
2.95825
3.03203
3.06732
1
1
1
1
1
1
1
1
1
1
1
1
1
1
1
1
1
1
1
1
1
1
1
1
1
1
1
1.39295
2.50015
2.7237
2.73034
2.73994
2.74541
2.75259
2.7642
2.78018
2.79635
2.80852
2.81357
2.81454
2.81603
2.81993
2.82776
2.84186
2.875
2.9408
3.01369
3.04856
1
1
1
1
1
1
1
1
1
1
1
1
1
1
1
1
1
1
1
1
1
1
1
1
1
1
1
1.12827
2.38135
2.71428
2.72095
2.73252
2.73829
2.7458
2.75853
2.77513
2.79153
2.80141
2.8037
2.80278
2.80249
2.80589
2.81345
2.82598
2.85582
2.9178
2.98922
3.02497
1
1
1
1
1
1
1
1
1
1
1
1
1
1
1
1
1
1
1
1
1
1
1
1
1
1
1
1.00462
2.26536
2.69626
2.70652
2.71975
2.7293
2.74023
2.75479
2.77087
2.78566
2.79266
2.79228
2.78916
2.78668
2.78911
2.79576
2.80723
2.83435
2.89191
2.959
2.98789
1
1
1
1
1
1
1
1
1
1
1
1
1
1
1
1
1
1
1
1
1
1
1
1
1
1
1
1.00001
2.0978
2.68624
2.70919
2.71874
2.72582
2.73518
2.74896
2.76365
2.77619
2.78126
2.77966
2.77446
2.76992
2.77085
2.77554
2.78474
2.80537
2.85148
2.91169
2.93917
1
1
1
1
1
1
1
1
1
1
1
1
1
1
1
1
1
1
1
1
1
1
1
1
1
1
1
1
1.84832
2.62931
2.70041
2.71235
2.72014
2.72787
2.73911
2.75137
2.76166
2.76563
2.76375
2.75776
2.75149
2.75005
2.75209
2.75681
2.76965
2.80524
2.8641
2.91034
1
1
1
1
1
1
1
1
1
1
1
1
1
1
1
1
1
1
1
1
1
1
1
1
1
1
1
1
1.50192
2.51088
2.686
2.6993
2.70887
2.71511
2.72295
2.73189
2.74004
2.74367
2.74242
2.73735
2.73084
2.72748
2.72686
2.72718
2.72988
2.73844
2.72945
2.65958
1
1
1
1
1
1
1
1
1
1
1
1
1
1
1
1
1
1
1
1
1
1
1
1
1
1
1
1
1.10855
2.36151
2.67682
2.68563
2.69323
2.69905
2.70514
2.71123
2.71732
2.72052
2.71971
2.71555
2.70902
2.70382
2.69991
2.69428
2.68345
2.6609
2.62652
2.48365
1
1
1
1
1
1
1
1
1
1
1
1
1
1
1
1
1
1
1
1
1
1
1
1
1
1
1
1
1.00255
2.19785
2.64333
2.66381
2.67353
2.67939
2.68512
2.69058
2.69587
2.69941
2.69914
2.69593
2.68939
2.68187
2.67348
2.66101
2.63918
2.60344
2.52985
2.36821
1
1
1
1
1
1
1
1
1
1
1
1
1
1
1
1
1
1
1
1
1
1
1
1
1
1
1
1
1
1.92506
2.60049
2.65668
2.66354
2.66823
2.67228
2.67533
2.67835
2.68053
2.6798
2.67679
2.67044
2.6613
2.64899
2.6308
2.6006
2.55523
2.46191
2.31673
1
1
1
1
1
1
1
1
1
1
1
1
1
1
1
1
1
1
1
1
1
1
1
1
1
1
1
1
1
1.5146
2.49154
2.64116
2.65123
2.65704
2.65957
2.6606
2.66193
2.66308
2.66217
2.65924
2.65298
2.64245
2.62658
2.60351
2.56887
2.5167
2.42333
2.30286
1
1
1
1
1
1
1
1
1
1
1
1
1
1
1
1
1
1
1
1
1
1
1
1
1
1
1
1
1
1.06614
2.31829
2.633
2.63747
2.64436
2.64537
2.6445
2.6442
2.64452
2.6443
2.64226
2.6366
2.62556
2.60677
2.58018
2.54221
2.48793
2.40432
2.30349
1
1
1
1
1
1
1
1
1
1
1
1
1
1
1
1
1
1
1
1
1
1
1
1
1
1
1
1
1
1.00093
2.07923
2.58673
2.62332
2.63128
2.63106
2.6287
2.62719
2.62664
2.6266
2.62497
2.61981
2.60877
2.58866
2.55978
2.51852
2.46535
2.39248
2.30497
1
1
1
1
1
1
1
1
1
1
1
1
1
1
1
1
1
1
1
1
1
1
1
1
1
1
1
1
1
0.999998
1.64485
2.49524
2.60511
2.61234
2.61229
2.60971
2.60773
2.60648
2.60661
2.60552
2.60151
2.59074
2.57213
2.5414
2.49912
2.44887
2.38536
2.31027
1
1
1
1
1
1
1
1
1
1
1
1
1
1
1
1
1
1
1
1
1
1
1
1
1
1
1
1
1
1
1.10392
2.3169
2.59254
2.59178
2.59387
2.59158
2.58871
2.58614
2.5858
2.58471
2.58102
2.57101
2.55286
2.52299
2.4823
2.43541
2.37791
2.31321
1
1
1
1
1
1
1
1
1
1
1
1
1
1
1
1
1
1
1
1
1
1
1
1
1
1
1
1
1
1
1.00229
2.05025
2.53624
2.57164
2.57981
2.57648
2.57203
2.56841
2.5661
2.56418
2.55942
2.55001
2.5316
2.50424
2.46742
2.42368
2.37122
2.31553
1
1
1
1
1
1
1
1
1
1
1
1
1
1
1
1
1
1
1
1
1
1
1
1
1
1
1
1
1
1
0.999996
1.53038
2.4275
2.55963
2.56079
2.55802
2.553
2.54832
2.54375
2.54126
2.53581
2.52681
2.50931
2.4843
2.45174
2.41098
2.36351
2.31324
1
1
1
1
1
1
1
1
1
1
1
1
1
1
1
1
1
1
1
1
1
1
1
1
1
1
1
1
1
1
0.999999
1.06403
2.24559
2.53792
2.53735
2.53804
2.53483
2.52958
2.52326
2.51935
2.51346
2.50411
2.48816
2.46513
2.43573
2.39848
2.35641
2.3099
1
1
1
1
1
1
1
1
1
1
1
1
1
1
1
1
1
1
1
1
1
1
1
1
1
1
1
1
1
1
1
1.00073
1.85026
2.45559
2.5155
2.52324
2.51951
2.51391
2.50599
2.5001
2.49349
2.48373
2.46902
2.44777
2.42031
2.38629
2.34837
2.30554
1
1
1
1
1
1
1
1
1
1
1
1
1
1
1
1
1
1
1
1
1
1
1
1
1
1
1
1
1
1
1
0.999999
1.20196
2.29479
2.50355
2.50082
2.49954
2.49541
2.4875
2.48169
2.4747
2.46528
2.45159
2.43219
2.40649
2.37517
2.33996
2.30121
1
1
1
1
1
1
1
1
1
1
1
1
1
1
1
1
1
1
1
1
1
1
1
1
1
1
1
1
1
1
1
1
1.00853
2.01614
2.44286
2.47368
2.47788
2.47649
2.47031
2.4644
2.45774
2.44859
2.43558
2.41745
2.39335
2.3641
2.33113
2.29596
1
1
1
1
1
1
1
1
1
1
1
1
1
1
1
1
1
1
1
1
1
1
1
1
1
1
1
1
1
1
1
1
1.00001
1.37697
2.30196
2.46468
2.45842
2.4581
2.45365
2.44658
2.43847
2.42932
2.41765
2.40165
2.37995
2.35312
2.32274
2.29046
1
1
1
1
1
1
1
1
1
1
1
1
1
1
1
1
1
1
1
1
1
1
1
1
1
1
1
1
1
1
1
1
1
1.02921
2.07415
2.41602
2.43287
2.43428
2.43357
2.42897
2.42081
2.41105
2.39968
2.38535
2.36653
2.34286
2.31551
2.28551
1
1
1
1
1
1
1
1
1
1
1
1
1
1
1
1
1
1
1
1
1
1
1
1
1
1
1
1
1
1
1
1
1
1.00015
1.46526
2.28608
2.42221
2.41452
2.4144
2.41108
2.40323
2.39298
2.38124
2.36773
2.35123
2.33076
2.30661
2.27918
1
1
1
1
1
1
1
1
1
1
1
1
1
1
1
1
1
1
1
1
1
1
1
1
1
1
1
1
1
1
1
1
1
1
1.04702
2.06819
2.38699
2.39067
2.39138
2.38952
2.3841
2.37519
2.36406
2.35099
2.33558
2.31739
2.2961
2.2717
1
1
1
1
1
1
1
1
1
1
1
1
1
1
1
1
1
1
1
1
1
1
1
1
1
1
1
1
1
1
1
1
1
1
1.0004
1.45336
2.24581
2.38122
2.37509
2.37187
2.36703
2.35873
2.34754
2.33455
2.3199
2.30313
2.28397
2.26224
1
1
1
1
1
1
1
1
1
1
1
1
1
1
1
1
1
1
1
1
1
1
1
1
1
1
1
1
1
1
1
1
1
1
1
1.04573
2.01166
2.34557
2.35713
2.35335
2.34822
2.34
2.32959
2.31784
2.30446
2.28901
2.27156
2.25202
1
1
1
1
1
1
1
1
1
1
1
1
1
1
1
1
1
1
1
1
1
1
1
1
1
1
1
1
1
1
1
1
1
1
1
1.00041
1.39626
2.19148
2.34497
2.33759
2.33212
2.32413
2.31446
2.30323
2.29052
2.27598
2.25958
2.24136
1
1
1
1
1
1
1
1
1
1
1
1
1
1
1
1
1
1
1
1
1
1
1
1
1
1
1
1
1
1
1
1
1
1
1
1
1.03385
1.89085
2.28797
2.32319
2.31393
2.30494
2.29588
2.28593
2.27468
2.26195
2.24741
2.23085
1
1
1
1
1
1
1
1
1
1
1
1
1
1
1
1
1
1
1
1
1
1
1
1
1
1
1
1
1
1
1
1
1
1
1
1
1.00028
1.28163
2.11076
2.31078
2.29869
2.29182
2.28236
2.27148
2.25957
2.24719
2.23405
2.21944
1
1
1
1
1
1
1
1
1
1
1
1
1
1
1
1
1
1
1
1
1
1
1
1
1
1
1
1
1
1
1
1
1
1
1
1
1
1.01539
1.66689
2.2013
2.28301
2.27225
2.26347
2.2531
2.24205
2.23078
2.21928
2.20679
1
1
1
1
1
1
1
1
1
1
1
1
1
1
1
1
1
1
1
1
1
1
1
1
1
1
1
1
1
1
1
1
1
1
1
1
1
1.0001
1.1318
1.97346
2.26342
2.25793
2.24979
2.23984
2.22883
2.21727
2.20584
2.19405
1
1
1
1
1
1
1
1
1
1
1
1
1
1
1
1
1
1
1
1
1
1
1
1
1
1
1
1
1
1
1
1
1
1
1
1
1
1
1.00333
1.42283
2.11483
2.24599
2.23145
2.2248
2.21547
2.20537
2.19473
2.18327
1
1
1
1
1
1
1
1
1
1
1
1
1
1
1
1
1
1
1
1
1
1
1
1
1
1
1
1
1
1
1
1
1
1
1
1
1
1
1.00001
1.04074
1.73753
2.1638
2.22119
2.20841
2.19998
2.19063
2.18058
2.16944
1
1
1
1
1
1
1
1
1
1
1
1
1
1
1
1
1
1
1
1
1
1
1
1
1
1
1
1
1
1
1
1
1
1
1
1
1
1
1
1.00047
1.18069
1.94194
2.20055
2.19669
2.18941
2.18117
2.17083
2.15861
1
1
1
1
1
1
1
1
1
1
1
1
1
1
1
1
1
1
1
1
1
1
1
1
1
1
1
1
1
1
1
1
1
1
1
1
1
1
1
1
1.0063
1.4181
2.05037
2.18559
2.17609
2.16857
2.15946
2.14778
1
1
1
1
1
1
1
1
1
1
1
1
1
1
1
1
1
1
1
1
1
1
1
1
1
1
1
1
1
1
1
1
1
1
1
1
1
1
1
1
1.00003
1.0411
1.64747
2.10169
2.16687
2.15419
2.1435
2.13293
1
1
1
1
1
1
1
1
1
1
1
1
1
1
1
1
1
1
1
1
1
1
1
1
1
1
1
1
1
1
1
1
1
1
1
1
1
1
1
1
1
1.00052
1.13355
1.83061
2.11149
2.14538
2.13013
2.11882
1
1
1
1
1
1
1
1
1
1
1
1
1
1
1
1
1
1
1
1
1
1
1
1
1
1
1
1
1
1
1
1
1
1
1
1
1
1
1
1
1
1
1.0037
1.29102
1.92679
2.11797
2.11926
2.10995
1
1
1
1
1
1
1
1
1
1
1
1
1
1
1
1
1
1
1
1
1
1
1
1
1
1
1
1
1
1
1
1
1
1
1
1
1
1
1
1
1
1
1.00002
1.01765
1.4556
1.98049
2.10376
2.09983
1
1
1
1
1
1
1
1
1
1
1
1
1
1
1
1
1
1
1
1
1
1
1
1
1
1
1
1
1
1
1
1
1
1
1
1
1
1
1
1
1
1
1
1.00015
1.054
1.59544
2.01256
2.08753
1
1
1
1
1
1
1
1
1
1
1
1
1
1
1
1
1
1
1
1
1
1
1
1
1
1
1
1
1
1
1
1
1
1
1
1
1
1
1
1
1
1
1
1
1.00085
1.11801
1.70621
2.02565
1
1
1
1
1
1
1
1
1
1
1
1
1
1
1
1
1
1
1
1
1
1
1
1
1
1
1
1
1
1
1
1
1
1
1
1
1
1
1
1
1
1
1
1
1
1.00319
1.20251
1.78606
1
1
1
1
1
1
1
1
1
1
1
1
1
1
1
1
1
1
1
1
1
1
1
1
1
1
1
1
1
1
1
1
1
1
1
1
1
1
1
1
1
1
1
1
1
1.00002
1.00893
1.29595
1
1
1
1
1
1
1
1
1
1
1
1
1
1
1
1
1
1
1
1
1
1
1
1
1
1
1
1
1
1
1
1
1
1
1
1
1
1
1
1
1
1
1
1
1
1
1.00006
1.02024
1
1
1
1
1
1
1
1
1
1
1
1
1
1
1
1
1
1
1
1
1
1
1
1
1
1
1
1
1
1
1
1
1
1
1
1
1
1
1
1
1
1
1
1
1
1
1
1.0002
1
1
1
1
1
1
1
1
1
1
1
1
1
1
1
1
1
1
1
1
1
1
1
1
1
1
1
1
1
1
1
1
1
1
1
1
1
1
1
1
1
1
1
1
1
1
1
1
1
1
1
1
1
1
1
1
1
1
1
1
1
1
1
1
1
1
1
1
1
1
1
1
1
1
1
1
1
1
1
1
1
1
1
1
1
1
1
1
1
1
1
1
1
1
1
1
1
1
1
1
1
1
1
1
1
1
1
1
1
1
1
1
1
1
1
1
1
1
1
1
1
1
1
1
1
1
1
1
1
1
1
1
1
1
1
1
1
1
1
1
1
1
1
1
1
1
1
1
1
1
1
1
1
1
1
1
1
1
1
1
1
1
1
1
1
1
1
1
1
1
1
1
1
1
1
1
1
1
1
1
1
1
1
1
1
1
1
1
1
1
1
1
1
1
1
1
1
1
1
1
1
1
1
1
1
1
1
1
1
1
1
1
1
1
1
1
1
1
1
1
1
1
1
1
1
1
1
1
1
1
1
1
1
1
1
1
1
1
1
1
1
1
1
1
1
1
1
1
1
1
1
1
1
1
1
1
1
1
1
1
1
1
1
1
1
1
1
1
1
1
1
1
1
1
1
1
1
1
1
1
1
1
1
1
1
1
1
1
1
1
1
1
1
1
1
1
1
1
1
1
1
1
1
1
1
1
1
1
1
1
1
1
1
1
1
1
1
1
1
1
1
1
1
1
1
1
1
1
1
1
1
1
1
1
1
1
1
1
1
1
1
1
1
1
1
1
1
1
1
1
1
1
1
1
1
1
1
1
1
1
1
1
1
1
1
1
1
1
1
1
1
1
1
1
1
1
1
1
1
1
1
1
1
1
1
1
1
1
1
1
1
1
1
1
1
1
1
1
1
1
1
1
1
1
1
1
1
1
1
1
1
1
1
1
1
1
1
1
1
1
1
1
1
1
1
1
1
1
1
1
1
1
1
1
1
1
1
1
1
1
1
1
1
1
1
1
1
1
1
1
1
1
1
1
1
1
1
1
1
1
1
1
1
1
1
1
1
1
1
1
1
1
1
1
1
1
1
1
1
1
1
1
1
1
1
1
1
1
1
1
1
1
1
1
1
1
1
1
1
1
1
1
1
1
1
1
1
1
1
1
1
1
1
1
1
1
1
1
1
1
1
1
1
1
1
1
1
1
1
1
1
1
1
1
1
1
1
1
1
1
1
1
1
1
1
1
1
1
1
1
1
1
1
1
1
1
1
1
1
1
1
1
1
1
1
1
1
1
1
1
1
1
1
1
1
1
1
1
1
1
1
1
1
1
1
1
1
1
1
1
1
1
1
1
1
1
1
1
1
1
1
1
1
1
1
1
1
1
1
1
1
1
1
1
1
1
1
1
1
1
1
1
1
1
1
1
1
1
1
1
1
1
1
1
1
1
1
1
1
1
1
1
1
1
1
1
1
1
1
1
1
1
1
1
1
1
1
1
1
1
1
1
1
1
1
1
1
1
1
1
1
1
1
1
1
1
1
1
1
1
1
1
1
1
1
1
1
1
1
1
1
1
1
1
1
1
1
1
1
1
1
1
1
1
1
1
1
1
1
1
1
1
1
1
1
1
1
1
1
1
1
1
1
1
1
1
1
1
1
1
1
1
1
1
1
1
1
1
1
1
1
1
1
1
1
1
1
1
1
1
1
1
1
1
1
1
1
1
1
1
1
1
1
1
1
1
1
1
1
1
1
1
1
1
1
1
1
1
1
1
1
1
1
1
1
1
1
1
1
1
1
1
1
1
1
1
1
1
1
1
1
1
1
1
1
1
1
1
1
1
1
1
1
1
1
1
1
1
1
1
1
1
1
1
1
1
1
1
1
1
1
1
1
1
1
1
1
1
1
1
1
1
1
1
1
1
1
1
1
1
1
1
1
1
1
1
1
1
1
1
1
1
1
1
1
1
1
1
1
1
1
1
1
1
1
1
1
1
1
1
1
1
1
1
1
1
1
1
1
1
1
1
1
1
1
1
1
1
1
1
1
1
1
1
1
1
1
1
1
1
1
1
1
1
1
1
1
1
1
1
1
1
1
1
1
1
1
1
1
1
1
1
1
1
1
1
1
1
1
1
1
1
1
1
1
1
1
1
1
1
1
1
1
1
1
1
1
1
1
1
1
1
1
1
1
1
1
1
1
1
1
1
1
1
1
1
1
1
1
1
1
1
1
1
1
1
1
1
1
1
1
1
1
1
1
1
1
1
1
1
1
1
1
1
1
1
1
1
1
1
1
1
1
1
1
1
1
1
1
1
1
1
1
1
1
1
1
1
1
1
1
1
1
1
1
1
1
1
1
1
1
1
1
1
1
1
1
1
1
1
1
1
1
1
1
1
1
1
1
1
1
1
1
1
1
1
1
1
1
1
1
1
1
1
1
1
1
1
1
1
1
1
1
1
1
1
1
1
1
1
1
1
1
1
1
1
1
1
1
1
1
1
1
1
1
1
1
1
1
1
1
1
1
1
1
1
1
1
1
1
1
1
1
1
1
1
1
1
1
1
1
1
1
1
1
1
1
1
1
1
1
1
1
1
1
1
1
1
1
1
1
1
1.74825
1.09227
0.540736
0.61155
0.895935
1.21111
1.30529
1.34754
1.44948
1.52114
1.52589
1.51688
1.53679
1.61076
1.68084
1.72476
1.7487
1.78133
1.83182
1.84884
1.83898
1.8237
1.81008
1.81126
1.82476
1.83581
1.8366
1.8299
1.81784
1.81768
1.83008
1.85665
1.86662
1.86626
1.86193
1.85269
1.85196
1.85299
1.8571
1.86198
1.86207
1.86298
1.86464
1.86579
1.86822
1.86845
1.86659
1.86285
1.85976
1.85699
1.85606
1.8586
1.86637
1.86865
1.8666
1.86246
1.85664
1.85212
1.85069
1.85059
1.85158
1.85448
1.85699
1.85748
1.85694
1.85368
1.84827
1.84682
1.84673
1.84664
1.84697
1.84812
1.84859
1.84649
1.84119
1.83527
1.83041
1.82708
1.82482
1.82476
1.82572
1.82591
1.82516
1.82294
1.81828
1.81362
1.81148
1.81136
1.8119
1.81434
1.81988
1.82402
1.82503
1.82492
1.82394
1.82077
1.81418
1.80702
1.80331
1.80226
1.80237
1.8032
1.80522
1.80796
1.80944
1.8095
1.80796
1.80253
1.79645
1.79487
1.795
1.79595
1.79805
1.80175
1.80562
1.80907
1.81277
1.81648
1.81875
1.82091
1.8235
1.82502
1.82447
1.81731
1.80694
1.80401
1.80373
1.80323
1.80197
1.79994
1.79851
1.79818
1.79883
1.80036
1.80038
1.7989
1.7966
1.79132
1.78451
1.78304
1.7853
1.79139
1.79832
1.80544
1.8136
1.82028
1.82251
1.82337
1.82371
1.82257
1.81804
1.81622
1.81586
1.81612
1.81804
1.82314
1.82979
1.83371
1.83489
1.83495
1.83412
1.83132
1.82675
1.82525
1.82501
1.82536
1.82752
1.83173
1.83579
1.83915
1.84215
1.84437
1.84516
1.84515
1.84613
1.84952
1.85464
1.86077
1.86715
1.87297
1.87647
1.87774
1.87747
1.87572
1.87485
1.87304
1.87097
1.87017
1.86999
1.86895
1.86813
1.86597
1.98811
1.64509
1.44448
1.22175
1.11567
1.13614
1.17687
1.18457
1.19
1.19498
1.21291
1.24313
1.266
1.30208
1.37096
1.44311
1.49765
1.52575
1.56652
1.62709
1.68086
1.70237
1.70703
1.71419
1.73137
1.74577
1.75262
1.75352
1.75098
1.75216
1.76467
1.78737
1.7991
1.79968
1.79813
1.79476
1.79555
1.7986
1.80633
1.81292
1.81666
1.82081
1.82383
1.82613
1.83065
1.83406
1.83432
1.8325
1.82972
1.82735
1.82589
1.82708
1.83203
1.83507
1.83428
1.83152
1.82812
1.82369
1.82
1.81874
1.81902
1.82131
1.82468
1.82699
1.8272
1.8273
1.82678
1.82565
1.82564
1.82512
1.82468
1.82486
1.82456
1.82277
1.81927
1.81541
1.81232
1.80978
1.808
1.80786
1.80805
1.80769
1.8054
1.80067
1.79596
1.79211
1.79027
1.79047
1.79204
1.79591
1.80148
1.80608
1.80739
1.80738
1.80677
1.80411
1.79752
1.7905
1.78732
1.78674
1.78709
1.78838
1.79098
1.79468
1.79802
1.79947
1.79949
1.79839
1.79511
1.79116
1.78963
1.78963
1.79033
1.79206
1.79456
1.79721
1.79964
1.8013
1.80194
1.80311
1.80493
1.80719
1.80851
1.80854
1.80708
1.80178
1.79825
1.79747
1.79644
1.79439
1.79206
1.79073
1.79072
1.79099
1.79025
1.78891
1.7873
1.78509
1.78234
1.78095
1.78146
1.78578
1.793
1.80021
1.80752
1.81359
1.8161
1.8171
1.8175
1.81723
1.81405
1.81078
1.81044
1.81059
1.81197
1.81583
1.82129
1.8243
1.82549
1.82627
1.82656
1.82609
1.82476
1.82361
1.82325
1.82336
1.82456
1.82721
1.83024
1.83283
1.83451
1.83665
1.83924
1.84185
1.84505
1.84875
1.85238
1.85657
1.86236
1.86811
1.87266
1.87519
1.87556
1.87486
1.87293
1.87116
1.86895
1.86666
1.86565
1.86583
1.86567
1.86444
2.05795
1.83563
1.69565
1.55201
1.44668
1.31984
1.28679
1.2516
1.2029
1.15239
1.15
1.17425
1.1822
1.18859
1.21443
1.24661
1.27702
1.30268
1.32607
1.37987
1.46595
1.51232
1.54135
1.56736
1.59451
1.61237
1.62182
1.63383
1.64045
1.64899
1.66538
1.68525
1.69217
1.69192
1.68948
1.68888
1.68918
1.69051
1.69492
1.70158
1.71072
1.72218
1.73073
1.73684
1.74261
1.74703
1.74987
1.75105
1.75117
1.75203
1.75279
1.75432
1.75665
1.7576
1.75721
1.75574
1.75433
1.7527
1.75127
1.75101
1.75123
1.75223
1.75258
1.75199
1.75163
1.75245
1.75467
1.75799
1.76092
1.76181
1.7622
1.76311
1.76397
1.76366
1.76071
1.75619
1.75331
1.75112
1.75078
1.75103
1.75206
1.75343
1.75341
1.7506
1.74377
1.73801
1.73503
1.73467
1.73577
1.73985
1.74722
1.75569
1.76161
1.76364
1.76372
1.7618
1.7546
1.7471
1.74393
1.74352
1.74375
1.7448
1.7474
1.75128
1.75529
1.75831
1.75991
1.76043
1.76
1.75888
1.75886
1.7596
1.76117
1.76327
1.76526
1.76635
1.76647
1.76563
1.76436
1.76355
1.76334
1.76387
1.76728
1.77397
1.77706
1.7763
1.77163
1.76855
1.76788
1.76737
1.76741
1.76788
1.76787
1.76581
1.76302
1.76098
1.75984
1.75996
1.76091
1.76194
1.76254
1.76433
1.77067
1.77906
1.78704
1.79306
1.79506
1.79575
1.79603
1.79517
1.79469
1.79458
1.79444
1.79482
1.79647
1.79856
1.79983
1.80078
1.80158
1.802
1.80213
1.80261
1.80421
1.80627
1.80844
1.81063
1.81321
1.81597
1.81692
1.81654
1.81558
1.81595
1.81874
1.82279
1.82858
1.83474
1.84063
1.84688
1.85188
1.85476
1.85648
1.85986
1.8632
1.86462
1.86473
1.86432
1.8624
1.85866
1.85417
1.85264
1.85195
1.85227
2.1049
1.95191
1.82326
1.70781
1.61036
1.50159
1.42064
1.389
1.35333
1.28483
1.23908
1.24378
1.23704
1.21353
1.19447
1.19675
1.20273
1.20604
1.20942
1.22637
1.27679
1.33369
1.38631
1.42664
1.44947
1.46737
1.47901
1.4978
1.51585
1.53466
1.55681
1.57205
1.58313
1.58967
1.59341
1.59413
1.59442
1.59503
1.59585
1.5996
1.60743
1.61714
1.62541
1.63123
1.63548
1.63922
1.64249
1.64642
1.65192
1.65746
1.66146
1.66314
1.66314
1.66211
1.6609
1.65925
1.65662
1.6539
1.65263
1.65271
1.65436
1.65803
1.66054
1.66096
1.66119
1.66163
1.66239
1.66399
1.66632
1.66751
1.66851
1.67049
1.67404
1.67792
1.67908
1.6776
1.67366
1.6705
1.66782
1.66557
1.66517
1.66545
1.66598
1.66548
1.66253
1.65867
1.6559
1.65547
1.65639
1.66
1.66715
1.67721
1.68681
1.69161
1.69238
1.69084
1.68584
1.68195
1.68036
1.68038
1.6808
1.68225
1.68545
1.69008
1.69439
1.69683
1.69771
1.69798
1.69806
1.69824
1.69867
1.69938
1.7001
1.70062
1.70118
1.70165
1.70168
1.7017
1.70194
1.70241
1.70331
1.70562
1.71094
1.71755
1.72288
1.72535
1.72448
1.71956
1.71672
1.71664
1.71685
1.71815
1.71866
1.71799
1.71697
1.7164
1.71628
1.71713
1.71995
1.72341
1.72621
1.72827
1.73122
1.73754
1.74442
1.74992
1.75318
1.75444
1.75491
1.75389
1.7537
1.75402
1.75431
1.75554
1.75858
1.76131
1.76343
1.76545
1.76672
1.76675
1.76683
1.76706
1.76798
1.77033
1.77329
1.77587
1.77892
1.78259
1.78585
1.7869
1.78694
1.78732
1.7893
1.79216
1.79659
1.80214
1.8084
1.81589
1.82331
1.82763
1.82995
1.83358
1.83723
1.83948
1.84113
1.84164
1.84128
1.83956
1.83617
1.83217
1.82999
1.82949
2.15007
2.01566
1.89484
1.80702
1.73198
1.63778
1.52235
1.47021
1.44661
1.41225
1.36035
1.33402
1.31189
1.27605
1.23888
1.23681
1.23812
1.22937
1.21857
1.22186
1.23228
1.24228
1.25322
1.2762
1.30119
1.33249
1.36195
1.39232
1.42457
1.4468
1.46613
1.47996
1.49318
1.50429
1.51208
1.51741
1.52874
1.53975
1.5454
1.5487
1.55244
1.55614
1.55819
1.55831
1.5585
1.56033
1.56325
1.56874
1.57782
1.58739
1.59338
1.59456
1.59251
1.58695
1.58163
1.57673
1.57201
1.57017
1.57033
1.57142
1.57469
1.5795
1.58258
1.58353
1.58282
1.5816
1.58145
1.58172
1.58307
1.58513
1.58726
1.59011
1.59372
1.59735
1.60091
1.60163
1.59931
1.5949
1.59018
1.58554
1.58175
1.57998
1.57975
1.58
1.58052
1.58065
1.58066
1.58094
1.58218
1.58501
1.59032
1.59914
1.60904
1.61249
1.61186
1.60819
1.60551
1.60482
1.60471
1.60518
1.60659
1.6091
1.61308
1.61824
1.62292
1.62605
1.62818
1.62947
1.62981
1.62968
1.62945
1.62931
1.62877
1.62716
1.62474
1.62326
1.62294
1.62372
1.62587
1.62817
1.63101
1.6352
1.64043
1.6462
1.65195
1.65687
1.65935
1.65914
1.65671
1.65464
1.65443
1.65437
1.65421
1.65419
1.65456
1.65606
1.65867
1.66199
1.66522
1.66875
1.67281
1.67662
1.68004
1.68483
1.69068
1.69478
1.6969
1.69791
1.69823
1.69879
1.69938
1.6996
1.70025
1.70165
1.70337
1.70465
1.70605
1.70804
1.7105
1.71316
1.71596
1.71852
1.72053
1.72226
1.72412
1.72634
1.72841
1.73045
1.73278
1.73587
1.73981
1.74293
1.74603
1.74939
1.75291
1.75689
1.76135
1.76671
1.77258
1.77817
1.78491
1.79293
1.79911
1.80207
1.80282
1.80256
1.80086
1.79996
1.79874
1.79742
1.79682
1.79593
2.18344
2.07232
1.96149
1.86386
1.79542
1.72253
1.64513
1.55778
1.51065
1.48169
1.44211
1.41162
1.39304
1.36368
1.31817
1.30266
1.29326
1.27855
1.26228
1.25238
1.24599
1.24124
1.23901
1.23138
1.23157
1.23681
1.2502
1.27332
1.31316
1.34873
1.37096
1.39061
1.40789
1.43111
1.44935
1.46412
1.48058
1.49315
1.5022
1.50734
1.51161
1.51437
1.51538
1.51534
1.51616
1.51981
1.52423
1.53174
1.54118
1.54548
1.5458
1.54413
1.53823
1.53034
1.52469
1.52188
1.52117
1.52229
1.52578
1.52803
1.52883
1.5301
1.53076
1.53026
1.52844
1.52808
1.52859
1.53011
1.53325
1.53723
1.54033
1.54137
1.54194
1.54205
1.54195
1.54118
1.53784
1.53324
1.52934
1.52592
1.52312
1.5223
1.5227
1.52413
1.5253
1.52558
1.52517
1.52437
1.52431
1.52518
1.52869
1.53587
1.54456
1.54851
1.54817
1.54533
1.54473
1.54475
1.54507
1.54599
1.54777
1.5505
1.55403
1.55771
1.5606
1.56259
1.56382
1.56389
1.56301
1.5626
1.56293
1.56373
1.56393
1.56347
1.56164
1.55972
1.55965
1.56134
1.56419
1.56691
1.56954
1.57242
1.57586
1.58011
1.58506
1.59005
1.59435
1.59642
1.59537
1.59113
1.5892
1.5892
1.58998
1.59243
1.59595
1.59942
1.60341
1.60724
1.60982
1.61274
1.6162
1.61979
1.62379
1.62831
1.63309
1.63592
1.6364
1.63741
1.63979
1.64201
1.64404
1.64577
1.64687
1.64748
1.64782
1.64808
1.64847
1.64968
1.65174
1.65449
1.658
1.66177
1.6645
1.66667
1.66912
1.67187
1.67388
1.67548
1.67759
1.68179
1.68618
1.68977
1.69312
1.69599
1.69868
1.70186
1.70533
1.70942
1.7143
1.72048
1.72893
1.73842
1.74637
1.75115
1.75313
1.75302
1.75086
1.75004
1.74978
1.74935
1.74979
1.74954
2.20718
2.11205
2.01218
1.92858
1.85222
1.77392
1.70759
1.64715
1.58809
1.54661
1.51069
1.47409
1.4445
1.41519
1.38475
1.36094
1.34442
1.32884
1.31597
1.30093
1.28546
1.28027
1.27128
1.25047
1.23155
1.22982
1.23465
1.2381
1.24434
1.25215
1.26013
1.27378
1.29722
1.32776
1.37154
1.40472
1.43202
1.45616
1.47
1.47862
1.4831
1.48572
1.48747
1.48861
1.4921
1.49758
1.50213
1.5087
1.5155
1.51583
1.51469
1.51114
1.50258
1.49653
1.49467
1.49431
1.4969
1.50138
1.50283
1.50236
1.50078
1.49919
1.49863
1.4988
1.50042
1.50282
1.50525
1.50771
1.51052
1.51206
1.51175
1.50917
1.50573
1.50268
1.49951
1.4975
1.49655
1.49538
1.49385
1.49346
1.49307
1.49163
1.4906
1.48967
1.488
1.48708
1.48709
1.48738
1.48788
1.48934
1.49318
1.49885
1.50464
1.50836
1.50878
1.50756
1.50627
1.50567
1.50573
1.50619
1.50736
1.50927
1.51113
1.51203
1.51233
1.51234
1.51177
1.51061
1.51025
1.51078
1.51248
1.51449
1.51598
1.51662
1.51648
1.51519
1.51458
1.51606
1.51957
1.5226
1.52489
1.5273
1.53041
1.53461
1.53962
1.5439
1.54672
1.54726
1.54453
1.53808
1.53501
1.535
1.53711
1.54147
1.54573
1.54931
1.55315
1.55817
1.56344
1.56847
1.57297
1.57701
1.58031
1.58245
1.5829
1.58229
1.58198
1.58411
1.58751
1.59096
1.59521
1.5975
1.598
1.59842
1.5987
1.59892
1.5994
1.60021
1.60163
1.60419
1.60771
1.61047
1.6124
1.61429
1.616
1.61765
1.61952
1.62223
1.62679
1.6318
1.63634
1.63995
1.64226
1.64381
1.64464
1.64531
1.6467
1.64991
1.65553
1.66311
1.6722
1.68094
1.68782
1.69289
1.69501
1.69488
1.69484
1.69604
1.69693
1.69743
1.69736
1.69638
2.22828
2.14174
2.05424
1.97788
1.90368
1.82946
1.76636
1.70697
1.64924
1.60333
1.57448
1.54078
1.50204
1.46392
1.43378
1.40835
1.39239
1.37868
1.37006
1.35913
1.33788
1.32033
1.30913
1.28976
1.26311
1.24988
1.24709
1.24197
1.23797
1.24038
1.23665
1.22805
1.22835
1.23463
1.25851
1.29848
1.33839
1.38395
1.4138
1.43787
1.44818
1.45422
1.4626
1.46904
1.47566
1.48451
1.49103
1.49517
1.49712
1.49552
1.49203
1.48737
1.48255
1.48079
1.48067
1.48285
1.48577
1.48572
1.48494
1.48399
1.48261
1.48121
1.48141
1.48377
1.48796
1.49141
1.4925
1.49353
1.4938
1.49343
1.49175
1.48805
1.4827
1.47857
1.47586
1.4743
1.47391
1.47456
1.47584
1.47559
1.47295
1.47039
1.46832
1.46578
1.46428
1.46456
1.46632
1.46855
1.47057
1.47325
1.47636
1.47938
1.48159
1.48196
1.48125
1.47989
1.47843
1.47721
1.47693
1.47714
1.47786
1.479
1.47933
1.47905
1.47828
1.4774
1.47667
1.47656
1.47725
1.47931
1.48199
1.48445
1.48652
1.48813
1.48897
1.48887
1.48841
1.48957
1.49296
1.49624
1.49908
1.50141
1.50329
1.50529
1.507
1.50747
1.50724
1.50607
1.50274
1.49817
1.49622
1.49663
1.49974
1.50451
1.50892
1.513
1.51818
1.52581
1.53457
1.54097
1.54425
1.5453
1.5442
1.54108
1.53921
1.53867
1.53985
1.54348
1.54754
1.55318
1.55994
1.56251
1.56295
1.56315
1.5631
1.56195
1.56199
1.56238
1.56301
1.56437
1.56668
1.56857
1.57006
1.57126
1.57237
1.57386
1.57652
1.58069
1.58601
1.59195
1.59653
1.59849
1.59876
1.5979
1.59633
1.59574
1.59619
1.59889
1.60449
1.61278
1.62187
1.62909
1.6346
1.63817
1.63883
1.63878
1.63996
1.64176
1.64341
1.64444
1.64432
1.64334
2.24131
2.16381
2.09051
2.01914
1.94714
1.87882
1.82005
1.7628
1.70716
1.6595
1.62791
1.59189
1.55208
1.51626
1.48989
1.4653
1.44165
1.41996
1.40653
1.3955
1.38194
1.3641
1.34688
1.32715
1.30103
1.28801
1.28459
1.27738
1.26581
1.25688
1.24685
1.23149
1.2252
1.22629
1.22964
1.23802
1.25132
1.27692
1.31064
1.34144
1.37293
1.39713
1.42029
1.43766
1.45292
1.46868
1.47863
1.48124
1.4816
1.47821
1.47146
1.46968
1.47058
1.47161
1.4743
1.4775
1.47704
1.47563
1.47346
1.47079
1.47019
1.47096
1.47256
1.47614
1.48055
1.48146
1.48143
1.48121
1.4804
1.47835
1.47472
1.47093
1.46844
1.46664
1.46571
1.46463
1.46389
1.46399
1.46313
1.46071
1.45723
1.45401
1.45205
1.45086
1.45103
1.45314
1.45657
1.45993
1.46192
1.46322
1.46401
1.46396
1.46306
1.46164
1.45934
1.4585
1.45829
1.45796
1.45801
1.45847
1.45905
1.45936
1.45939
1.45877
1.45711
1.45629
1.45633
1.45703
1.45851
1.46072
1.4633
1.46608
1.46866
1.47074
1.47247
1.47398
1.47517
1.47624
1.47774
1.47931
1.48015
1.48036
1.48025
1.47976
1.47916
1.47858
1.47777
1.476
1.47354
1.47203
1.47157
1.47247
1.47616
1.48106
1.486
1.49259
1.5014
1.51055
1.51618
1.51782
1.51794
1.51665
1.51301
1.50819
1.50603
1.50713
1.511
1.51565
1.52187
1.53126
1.53887
1.54032
1.54056
1.54041
1.53702
1.53312
1.53244
1.5323
1.5323
1.53296
1.53514
1.53774
1.53919
1.54043
1.5421
1.5447
1.54852
1.55332
1.55792
1.56083
1.56201
1.56178
1.56022
1.55826
1.55731
1.55748
1.55867
1.56202
1.56844
1.57614
1.58139
1.58434
1.58689
1.58792
1.58816
1.58916
1.59104
1.59294
1.59417
1.59437
1.59424
1.59322
2.25077
2.18282
2.11857
2.05219
1.98397
1.9251
1.86676
1.81363
1.76069
1.7158
1.67608
1.64117
1.60638
1.56477
1.53837
1.51398
1.49217
1.47485
1.4574
1.43472
1.4118
1.39556
1.38171
1.36609
1.34246
1.3285
1.32321
1.31429
1.30079
1.28688
1.27227
1.25223
1.23761
1.23292
1.2322
1.23507
1.24157
1.24541
1.24857
1.254
1.26859
1.29398
1.32578
1.36282
1.39634
1.43175
1.4516
1.46136
1.46323
1.46183
1.45833
1.45822
1.46118
1.46506
1.46857
1.46846
1.46702
1.46529
1.46315
1.46049
1.46062
1.46247
1.46624
1.47171
1.47404
1.4744
1.47376
1.47075
1.46549
1.46103
1.45915
1.45805
1.45774
1.45872
1.46105
1.4608
1.4584
1.4551
1.45134
1.44774
1.44398
1.44175
1.44115
1.44138
1.443
1.44625
1.45008
1.4522
1.45276
1.45262
1.45179
1.45044
1.44793
1.44431
1.44341
1.44407
1.44552
1.44634
1.44695
1.44745
1.44747
1.44743
1.44711
1.44563
1.4436
1.44356
1.44399
1.44497
1.44655
1.44853
1.45092
1.45381
1.45682
1.45932
1.4615
1.46368
1.46525
1.46543
1.46462
1.46326
1.4624
1.46161
1.46073
1.45971
1.4585
1.45677
1.45478
1.45427
1.45491
1.45665
1.4584
1.46047
1.46374
1.46841
1.47566
1.48422
1.49085
1.49373
1.49484
1.49542
1.49534
1.49309
1.48724
1.48377
1.48423
1.48778
1.49318
1.50004
1.51074
1.52105
1.52378
1.52409
1.52342
1.51902
1.5128
1.50941
1.50913
1.50898
1.50926
1.511
1.51469
1.51821
1.52028
1.52216
1.52436
1.5266
1.52853
1.53
1.53093
1.53092
1.53026
1.53
1.53006
1.53
1.53012
1.53159
1.53473
1.53822
1.54084
1.54221
1.54243
1.54256
1.54324
1.54465
1.54639
1.54903
1.55178
1.55275
1.55251
1.55132
1.54977
1.54807
2.25483
2.19733
2.13941
2.07744
2.01899
1.96441
1.91057
1.8562
1.80949
1.76634
1.7236
1.68796
1.65319
1.6154
1.5872
1.56554
1.53314
1.51353
1.49896
1.4801
1.45348
1.42606
1.4119
1.39948
1.37905
1.36209
1.3546
1.34526
1.33245
1.31877
1.30446
1.2871
1.27515
1.27078
1.26423
1.25528
1.25025
1.24873
1.24658
1.24069
1.23927
1.24067
1.24757
1.26991
1.30507
1.34561
1.38173
1.40401
1.42285
1.43014
1.43659
1.44304
1.44889
1.45605
1.45602
1.45569
1.45423
1.45152
1.44897
1.44745
1.44896
1.45342
1.46061
1.46628
1.46781
1.46859
1.46762
1.46103
1.45333
1.4506
1.44948
1.44939
1.45258
1.45662
1.45639
1.45341
1.44988
1.44617
1.44202
1.43825
1.43688
1.43633
1.43626
1.43679
1.43772
1.43971
1.44176
1.44233
1.44229
1.44181
1.4402
1.43743
1.4349
1.43386
1.434
1.43574
1.43834
1.44057
1.44112
1.44103
1.44048
1.43919
1.43688
1.43444
1.43296
1.43296
1.4334
1.43443
1.43601
1.4381
1.44072
1.44389
1.44729
1.45012
1.45228
1.454
1.45472
1.45429
1.45195
1.44868
1.44625
1.44471
1.44342
1.44231
1.44114
1.44057
1.44049
1.44096
1.44417
1.44896
1.45258
1.45542
1.45883
1.46352
1.46902
1.47258
1.47446
1.47594
1.4768
1.47667
1.47428
1.46973
1.46821
1.46867
1.47177
1.47737
1.4849
1.49627
1.50622
1.50863
1.50884
1.50843
1.50525
1.4982
1.49259
1.49203
1.49198
1.49226
1.49393
1.49803
1.5038
1.50741
1.5087
1.50933
1.50967
1.50896
1.50728
1.50605
1.5051
1.5048
1.50535
1.50635
1.50752
1.50946
1.51224
1.51424
1.51458
1.5136
1.51075
1.50853
1.50771
1.50768
1.50863
1.51127
1.51542
1.51904
1.51981
1.51897
1.51612
1.51237
1.50952
1.50773
2.2585
2.20821