/*--------------------------------*- C++ -*----------------------------------*\
  =========                 |
  \\      /  F ield         | OpenFOAM: The Open Source CFD Toolbox
   \\    /   O peration     | Website:  https://openfoam.org
    \\  /    A nd           | Version:  7
     \\/     M anipulation  |
\*---------------------------------------------------------------------------*/
FoamFile
{
    version     2.0;
    format      ascii;
    class       volVectorField;
    location    "1";
    object      U;
}
// * * * * * * * * * * * * * * * * * * * * * * * * * * * * * * * * * * * * * //

dimensions      [0 1 -1 0 0 0 0];

internalField   nonuniform List<vector> 
16128
(
(3 3.22745e-18 0)
(3 3.2194e-17 0)
(3 2.83328e-16 0)
(3 1.3783e-16 0)
(3 1.30327e-16 0)
(3 -4.04544e-16 0)
(3 -7.14982e-16 0)
(3 -7.31761e-16 0)
(3 -7.70399e-16 0)
(3 -8.65222e-16 0)
(3 -7.10102e-16 0)
(3 -5.91279e-16 0)
(3 -1.81577e-16 0)
(3 -3.6845e-17 0)
(3 -4.07364e-16 0)
(3 -4.06126e-16 0)
(3 -2.07792e-16 0)
(3 -2.56527e-16 0)
(3 -2.12058e-16 0)
(3 -4.67142e-17 0)
(3 -2.52937e-17 0)
(3 -3.4055e-16 0)
(3 -3.1633e-16 0)
(3 9.26567e-17 0)
(3 6.41736e-16 0)
(3 8.03213e-17 0)
(2.92452 0.00154907 0)
(0.98978 0.0111307 0)
(0.679931 0.0104136 0)
(0.657312 0.00774713 0)
(0.633685 0.0096508 0)
(0.609616 0.0121358 0)
(0.579728 0.0148124 0)
(0.543449 0.0176597 0)
(0.504702 0.0189965 0)
(0.46923 0.0177689 0)
(0.437022 0.0165102 0)
(0.408556 0.0163323 0)
(0.378198 0.0164536 0)
(0.344176 0.0165083 0)
(0.306354 0.0168481 0)
(0.268741 0.0172203 0)
(0.232731 0.0180006 0)
(0.19471 0.0186908 0)
(0.157502 0.0196885 0)
(0.115411 0.0209007 0)
(0.070872 0.0220223 0)
(0.025226 0.0234457 0)
(3 9.39488e-17 0)
(3 3.3177e-16 0)
(3 5.10803e-16 0)
(3 3.69544e-16 0)
(3 2.54641e-16 0)
(3 -6.33517e-16 0)
(3 -7.32222e-16 0)
(3 -5.75722e-16 0)
(3 -7.25245e-16 0)
(3 -1.39038e-15 0)
(3 -2.00454e-15 0)
(3 -1.311e-15 0)
(3 -1.02791e-16 0)
(3 7.8777e-17 0)
(3 -2.61966e-16 0)
(3 -1.67403e-16 0)
(3 -8.68989e-17 0)
(3 -3.13518e-16 0)
(3 -9.0641e-16 0)
(3 -5.5374e-16 0)
(3 5.68155e-16 0)
(3 6.92778e-16 0)
(3 7.68893e-16 0)
(3 8.76968e-16 0)
(3 4.12582e-16 0)
(3 -3.99555e-16 0)
(2.92952 0.0135805 0)
(0.994831 0.0489269 0)
(0.677488 0.0367023 0)
(0.654796 0.0247615 0)
(0.629296 0.0290591 0)
(0.602967 0.0358791 0)
(0.571158 0.043988 0)
(0.534018 0.0522462 0)
(0.494993 0.0557356 0)
(0.459723 0.0519184 0)
(0.427849 0.0479669 0)
(0.39964 0.0472898 0)
(0.369783 0.0478839 0)
(0.33632 0.0485117 0)
(0.29889 0.0499664 0)
(0.261453 0.0513294 0)
(0.2258 0.053649 0)
(0.18849 0.0557533 0)
(0.152487 0.0588042 0)
(0.111981 0.0629138 0)
(0.0688537 0.0666702 0)
(0.0246946 0.0713728 0)
(3 -9.40848e-17 0)
(3 -7.27787e-17 0)
(3 -1.81667e-16 0)
(3 -6.71933e-18 0)
(3 5.39203e-17 0)
(3 9.94149e-17 0)
(3 -7.0129e-16 0)
(3 -6.71368e-16 0)
(3 -7.09745e-16 0)
(3 -8.73313e-16 0)
(3 -8.78623e-16 0)
(3 -6.11183e-16 0)
(3 5.55462e-17 0)
(3 7.48196e-17 0)
(3 3.03296e-16 0)
(3 9.69587e-16 0)
(3 9.27977e-16 0)
(3 3.52031e-16 0)
(3 -4.99251e-16 0)
(3 -3.68598e-16 0)
(3 -1.34506e-16 0)
(3 2.98847e-16 0)
(3 6.67585e-16 0)
(3 7.73558e-16 0)
(3 1.865e-16 0)
(3 -4.32368e-16 0)
(2.9563 0.0195994 0)
(1.02236 0.0793399 0)
(0.694029 0.0592451 0)
(0.666051 0.0460841 0)
(0.633721 0.0526203 0)
(0.602262 0.0623778 0)
(0.568225 0.074972 0)
(0.530458 0.0879187 0)
(0.490766 0.0929598 0)
(0.455177 0.0866812 0)
(0.422946 0.0801246 0)
(0.394313 0.0790231 0)
(0.364532 0.0801671 0)
(0.331266 0.0812308 0)
(0.293446 0.0832682 0)
(0.255003 0.0849779 0)
(0.218402 0.0881861 0)
(0.180765 0.0912721 0)
(0.145329 0.0959503 0)
(0.106287 0.102776 0)
(0.0650279 0.10931 0)
(0.0234254 0.117491 0)
(3 -1.78927e-16 0)
(3 -2.95914e-16 0)
(3 -5.01642e-16 0)
(3 -5.91963e-16 0)
(3 -4.98384e-16 0)
(3 7.43091e-17 0)
(3 -8.52363e-16 0)
(3 -1.50046e-15 0)
(3 -1.26957e-15 0)
(3 -4.34291e-16 0)
(3 1.32058e-16 0)
(3 -2.59909e-17 0)
(3 3.24347e-17 0)
(3 4.66672e-16 0)
(3 4.03667e-16 0)
(3 2.16032e-16 0)
(3 -1.42376e-17 0)
(3 -4.98291e-16 0)
(3 -7.00867e-16 0)
(3 -7.25324e-16 0)
(3 -1.34737e-15 0)
(3 -1.38775e-15 0)
(3 -1.25862e-15 0)
(3 -4.02783e-16 0)
(3 6.01673e-16 0)
(3 -1.53043e-17 0)
(2.99527 0.0039466 0)
(1.07338 0.0970242 0)
(0.705158 0.0858792 0)
(0.672424 0.0732205 0)
(0.637814 0.0794519 0)
(0.604659 0.0898833 0)
(0.570595 0.106282 0)
(0.533094 0.123539 0)
(0.493018 0.129882 0)
(0.457278 0.121583 0)
(0.424673 0.112779 0)
(0.395498 0.111434 0)
(0.36573 0.113286 0)
(0.332689 0.114988 0)
(0.294368 0.117722 0)
(0.254541 0.119902 0)
(0.216268 0.123836 0)
(0.177067 0.12747 0)
(0.140967 0.132936 0)
(0.102305 0.141805 0)
(0.062003 0.150343 0)
(0.0223 0.161551 0)
(3 1.94756e-16 0)
(3 6.57919e-16 0)
(3 4.15e-16 0)
(3 3.57019e-16 0)
(3 3.181e-17 0)
(3 7.73008e-18 0)
(3 4.88842e-16 0)
(3 2.53917e-17 0)
(3 2.44134e-16 0)
(3 8.16301e-16 0)
(3 8.16103e-16 0)
(3 8.55763e-16 0)
(3 8.98939e-16 0)
(3 1.06737e-15 0)
(3 5.80396e-16 0)
(3 -1.08962e-16 0)
(3 -7.14573e-16 0)
(3 -1.02321e-15 0)
(3 -1.00721e-15 0)
(3 -1.00509e-15 0)
(3 -6.66125e-16 0)
(3 -7.78065e-16 0)
(3 5.49506e-16 0)
(3 6.61641e-16 0)
(3 9.44112e-16 0)
(3 7.728e-16 0)
(3.00002 3.55004e-05 0)
(1.13474 0.127216 0)
(0.712072 0.114317 0)
(0.677484 0.0997882 0)
(0.642231 0.106509 0)
(0.607177 0.117984 0)
(0.572594 0.138352 0)
(0.534597 0.159484 0)
(0.493892 0.166462 0)
(0.458603 0.156186 0)
(0.426691 0.145306 0)
(0.398419 0.143663 0)
(0.369975 0.146466 0)
(0.338338 0.149241 0)
(0.300166 0.152904 0)
(0.259332 0.155844 0)
(0.219544 0.160676 0)
(0.178333 0.164928 0)
(0.141045 0.170824 0)
(0.101752 0.180905 0)
(0.0612101 0.190776 0)
(0.0218498 0.20412 0)
(3 -6.27798e-17 0)
(3 -4.54551e-17 0)
(3 3.22821e-16 0)
(3 9.58036e-16 0)
(3 1.01408e-15 0)
(3 7.92851e-16 0)
(3 8.24618e-16 0)
(3 7.16903e-16 0)
(3 1.19824e-15 0)
(3 1.17598e-15 0)
(3 1.41779e-15 0)
(3 7.32772e-16 0)
(3 2.73955e-16 0)
(3 -1.41119e-16 0)
(3 5.07864e-16 0)
(3 -1.67839e-16 0)
(3 -1.42562e-15 0)
(3 -1.61042e-15 0)
(3 -1.10047e-15 0)
(3 -9.88691e-16 0)
(3 -1.71843e-16 0)
(3 5.91671e-16 0)
(3 9.63178e-16 0)
(3 8.07448e-16 0)
(3 5.30007e-16 0)
(3 6.2939e-16 0)
(3 1.71507e-08 0)
(1.22782 0.156633 0)
(0.723013 0.140675 0)
(0.682124 0.125558 0)
(0.647442 0.134383 0)
(0.610207 0.147666 0)
(0.574075 0.171984 0)
(0.534807 0.196037 0)
(0.494038 0.202198 0)
(0.460954 0.189444 0)
(0.431479 0.176446 0)
(0.405179 0.17442 0)
(0.378199 0.178794 0)
(0.347489 0.183693 0)
(0.30863 0.189239 0)
(0.266251 0.193576 0)
(0.224894 0.199581 0)
(0.181724 0.204445 0)
(0.143451 0.210499 0)
(0.103366 0.221318 0)
(0.0620092 0.231487 0)
(0.0218789 0.245937 0)
(3 -2.45103e-16 0)
(3 -5.89355e-16 0)
(3 -3.63527e-16 0)
(3 -2.76703e-16 0)
(3 -1.32181e-17 0)
(3 -3.42245e-16 0)
(3 -6.17949e-16 0)
(3 2.88028e-17 0)
(3 9.24218e-16 0)
(3 8.74543e-16 0)
(3 1.05435e-15 0)
(3 8.0034e-16 0)
(3 5.12165e-16 0)
(3 5.6851e-17 0)
(3 -4.82387e-16 0)
(3 -1.267e-15 0)
(3 -1.36806e-15 0)
(3 -1.41851e-15 0)
(3 -1.22733e-15 0)
(3 -8.9542e-16 0)
(3 -4.76332e-16 0)
(3 -1.91912e-16 0)
(3 -2.03812e-16 0)
(3 1.27423e-16 0)
(3 -2.6918e-17 0)
(3 -3.97379e-16 0)
(3 8.58696e-13 0)
(1.35579 0.184918 0)
(0.737891 0.167349 0)
(0.687606 0.152274 0)
(0.65228 0.163713 0)
(0.612248 0.179666 0)
(0.574314 0.207498 0)
(0.533911 0.23228 0)
(0.494841 0.235335 0)
(0.466544 0.21976 0)
(0.440415 0.205264 0)
(0.41587 0.203715 0)
(0.389641 0.210979 0)
(0.358131 0.21931 0)
(0.318045 0.227524 0)
(0.274061 0.233464 0)
(0.231704 0.24073 0)
(0.187303 0.246235 0)
(0.148463 0.252317 0)
(0.107413 0.263489 0)
(0.0646354 0.273229 0)
(0.0226105 0.2879 0)
(3 -1.24629e-17 0)
(3 -1.39124e-16 0)
(3 -4.85325e-16 0)
(3 -9.54276e-16 0)
(3 -9.27106e-16 0)
(3 -1.13469e-15 0)
(3 -9.99638e-16 0)
(3 5.13633e-17 0)
(3 -1.38395e-16 0)
(3 7.15423e-17 0)
(3 -1.46152e-18 0)
(3 -1.2985e-16 0)
(3 -2.2927e-16 0)
(3 -5.59046e-16 0)
(3 -1.28997e-15 0)
(3 -1.62715e-15 0)
(3 -1.35173e-15 0)
(3 -1.01534e-15 0)
(3 -1.01504e-15 0)
(3 -7.62386e-16 0)
(3 -6.07191e-16 0)
(3 -9.19109e-16 0)
(3 -8.09301e-16 0)
(3 -3.54376e-16 0)
(3 -1.85542e-16 0)
(3 -4.42908e-16 0)
(3 8.9946e-16 0)
(1.52518 0.210287 0)
(0.756824 0.196341 0)
(0.692066 0.18166 0)
(0.654266 0.196358 0)
(0.609738 0.214217 0)
(0.571278 0.243528 0)
(0.533849 0.265722 0)
(0.50148 0.263751 0)
(0.479672 0.245753 0)
(0.455283 0.231633 0)
(0.431249 0.232422 0)
(0.404762 0.243859 0)
(0.37139 0.256248 0)
(0.329994 0.267266 0)
(0.284121 0.274753 0)
(0.240334 0.283619 0)
(0.194514 0.290403 0)
(0.154596 0.296879 0)
(0.112071 0.308282 0)
(0.0676283 0.317075 0)
(0.0234807 0.331165 0)
(3 -8.48453e-17 0)
(3 3.53177e-16 0)
(3 1.20282e-16 0)
(3 -4.81858e-17 0)
(3 -4.74436e-16 0)
(3 -4.51532e-16 0)
(3 -7.71035e-16 0)
(3 -8.7534e-16 0)
(3 -5.99154e-16 0)
(3 -8.31446e-16 0)
(3 -1.06463e-15 0)
(3 -7.61194e-16 0)
(3 -9.75696e-16 0)
(3 -8.08823e-16 0)
(3 -1.02241e-15 0)
(3 -1.27181e-15 0)
(3 -1.41753e-15 0)
(3 -7.59574e-16 0)
(3 3.5704e-17 0)
(3 2.88178e-16 0)
(3 1.80368e-16 0)
(3 1.34198e-16 0)
(3 6.79085e-16 0)
(3 1.4048e-15 0)
(3 2.09997e-15 0)
(3 1.87515e-15 0)
(3 8.59176e-16 0)
(1.73689 0.229779 0)
(0.778575 0.23105 0)
(0.689683 0.214408 0)
(0.648676 0.229977 0)
(0.606613 0.249394 0)
(0.576361 0.277534 0)
(0.546003 0.292589 0)
(0.520473 0.285124 0)
(0.500604 0.267375 0)
(0.474727 0.257195 0)
(0.449511 0.262346 0)
(0.421429 0.278906 0)
(0.385678 0.295294 0)
(0.342979 0.308521 0)
(0.295544 0.317272 0)
(0.250447 0.327786 0)
(0.204204 0.336448 0)
(0.163073 0.344029 0)
(0.11864 0.356028 0)
(0.0718573 0.363995 0)
(0.0251064 0.377263 0)
(3 -1.52038e-16 0)
(3 1.95218e-16 0)
(3 3.05544e-18 0)
(3 9.17391e-17 0)
(3 2.56635e-16 0)
(3 1.88922e-16 0)
(3 -7.9547e-17 0)
(3 -4.6998e-16 0)
(3 -1.27724e-16 0)
(3 -5.26738e-16 0)
(3 -1.1414e-15 0)
(3 -7.41451e-16 0)
(3 -1.10191e-15 0)
(3 -1.49724e-15 0)
(3 -2.34987e-15 0)
(3 -1.93962e-15 0)
(3 -1.62597e-15 0)
(3 -1.15829e-15 0)
(3 2.29653e-16 0)
(3 5.52107e-16 0)
(3 8.91988e-16 0)
(3 1.4162e-15 0)
(3 1.34247e-15 0)
(3 1.51146e-15 0)
(3 2.10347e-15 0)
(3 1.89302e-15 0)
(3 8.81332e-16 0)
(1.98446 0.251192 0)
(0.801684 0.277309 0)
(0.68852 0.251388 0)
(0.654264 0.263702 0)
(0.621527 0.280768 0)
(0.598775 0.303564 0)
(0.572283 0.312041 0)
(0.548544 0.303443 0)
(0.524966 0.288968 0)
(0.496188 0.2844 0)
(0.467182 0.29567 0)
(0.436116 0.317716 0)
(0.398437 0.3372 0)
(0.355198 0.351199 0)
(0.307504 0.360514 0)
(0.261721 0.372388 0)
(0.215553 0.383621 0)
(0.172755 0.39371 0)
(0.125767 0.40744 0)
(0.0760917 0.41558 0)
(0.0265798 0.428257 0)
(3 3.7509e-17 0)
(3 -6.50364e-16 0)
(3 -3.61384e-16 0)
(3 -1.96543e-17 0)
(3 2.72126e-16 0)
(3 8.97973e-16 0)
(3 1.05937e-15 0)
(3 9.08065e-16 0)
(3 4.46417e-16 0)
(3 -3.67257e-16 0)
(3 -1.00775e-15 0)
(3 -1.96567e-15 0)
(3 -1.79638e-15 0)
(3 -1.53986e-15 0)
(3 -9.00909e-16 0)
(3 -2.1934e-16 0)
(3 -8.63325e-16 0)
(3 -8.11922e-16 0)
(3 -2.65068e-16 0)
(3 -3.70281e-16 0)
(3 2.7705e-16 0)
(3 3.9466e-16 0)
(3 -7.84463e-16 0)
(3 -2.21034e-15 0)
(3 -2.1837e-15 0)
(3 -1.0537e-15 0)
(3 6.13116e-16 0)
(2.28615 0.270739 0)
(0.848755 0.330274 0)
(0.716436 0.282184 0)
(0.686684 0.286252 0)
(0.656778 0.300272 0)
(0.634342 0.322788 0)
(0.606035 0.332493 0)
(0.578943 0.32465 0)
(0.548004 0.314758 0)
(0.514517 0.315696 0)
(0.480892 0.333579 0)
(0.446718 0.360717 0)
(0.40775 0.381716 0)
(0.365929 0.394665 0)
(0.321355 0.403315 0)
(0.277819 0.416019 0)
(0.233875 0.430056 0)
(0.189826 0.444141 0)
(0.139294 0.462007 0)
(0.0842883 0.473037 0)
(0.0296862 0.486456 0)
(3 -5.11029e-17 0)
(3 -4.75742e-16 0)
(3 -6.40332e-16 0)
(3 -5.0924e-16 0)
(3 -6.38365e-16 0)
(3 -3.16376e-16 0)
(3 -2.61484e-16 0)
(3 -1.34405e-16 0)
(3 -6.02855e-16 0)
(3 -1.09179e-15 0)
(3 -1.39527e-15 0)
(3 -1.66999e-15 0)
(3 -1.43041e-15 0)
(3 -1.00695e-15 0)
(3 4.58639e-16 0)
(3 4.11158e-16 0)
(3 6.91061e-16 0)
(3 5.40346e-16 0)
(3 6.72437e-17 0)
(3 1.29504e-16 0)
(3 -9.30456e-16 0)
(3 -1.56429e-15 0)
(3 -1.00174e-15 0)
(3 3.34633e-16 0)
(3 1.85819e-15 0)
(3 2.55521e-15 0)
(3 2.41889e-15 0)
(2.68077 0.246591 0)
(0.945436 0.358041 0)
(0.767839 0.290448 0)
(0.738197 0.30121 0)
(0.69795 0.324623 0)
(0.66446 0.353684 0)
(0.629992 0.363556 0)
(0.598627 0.356282 0)
(0.56286 0.348621 0)
(0.523225 0.353297 0)
(0.483645 0.375389 0)
(0.448692 0.405569 0)
(0.413643 0.426066 0)
(0.379258 0.436316 0)
(0.341132 0.44356 0)
(0.300583 0.457745 0)
(0.256792 0.477332 0)
(0.208943 0.498889 0)
(0.153275 0.523543 0)
(0.0924955 0.539829 0)
(0.031229 0.55433 0)
(3 -3.54354e-16 0)
(3 -3.16121e-16 0)
(3 -6.74658e-16 0)
(3 -1.48655e-15 0)
(3 -1.66341e-15 0)
(3 -1.77734e-15 0)
(3 -1.97199e-15 0)
(3 -2.30067e-15 0)
(3 -1.62034e-15 0)
(3 -7.63806e-16 0)
(3 -7.80585e-16 0)
(3 -6.83211e-16 0)
(3 -8.7049e-16 0)
(3 -8.21446e-16 0)
(3 -2.25051e-16 0)
(3 5.88191e-17 0)
(3 -7.55554e-17 0)
(3 1.51867e-17 0)
(3 -2.55387e-16 0)
(3 -3.07666e-16 0)
(3 -7.71974e-16 0)
(3 -5.53197e-16 0)
(3 1.73878e-16 0)
(3 1.03813e-15 0)
(3 2.48396e-15 0)
(3 2.90518e-15 0)
(3 1.93207e-15 0)
(3.00049 0.0731349 0)
(1.07836 0.368401 0)
(0.790241 0.313323 0)
(0.762806 0.339142 0)
(0.717606 0.368891 0)
(0.674393 0.396076 0)
(0.632405 0.40002 0)
(0.594968 0.390204 0)
(0.558272 0.383407 0)
(0.519934 0.39194 0)
(0.485293 0.416906 0)
(0.457053 0.447154 0)
(0.42959 0.465193 0)
(0.402259 0.473006 0)
(0.368746 0.482249 0)
(0.329992 0.50045 0)
(0.28791 0.526976 0)
(0.240135 0.556084 0)
(0.182672 0.588348 0)
(0.113876 0.614865 0)
(0.0401199 0.63511 0)
(3 6.99958e-17 0)
(3 2.47553e-16 0)
(3 2.24065e-16 0)
(3 -7.44993e-17 0)
(3 -1.16922e-16 0)
(3 -6.24932e-16 0)
(3 -7.30216e-16 0)
(3 -8.06332e-16 0)
(3 -2.30208e-16 0)
(3 1.29719e-16 0)
(3 -1.66926e-16 0)
(3 -4.57216e-16 0)
(3 -1.06961e-15 0)
(3 -8.83834e-16 0)
(3 -5.95862e-16 0)
(3 -5.12457e-16 0)
(3 -3.01361e-16 0)
(3 4.62708e-17 0)
(3 -6.36664e-17 0)
(3 -2.80382e-16 0)
(3 -9.40843e-17 0)
(3 -1.11804e-16 0)
(3 3.7011e-16 0)
(3 8.03072e-16 0)
(3 1.03566e-15 0)
(3 9.68615e-16 0)
(3 2.84465e-16 0)
(3.01319 0.00398796 0)
(1.21353 0.362317 0)
(0.781906 0.340055 0)
(0.739911 0.376312 0)
(0.693475 0.409903 0)
(0.65573 0.432161 0)
(0.624142 0.431855 0)
(0.595037 0.422162 0)
(0.564155 0.416661 0)
(0.530942 0.427273 0)
(0.502646 0.452732 0)
(0.479687 0.481391 0)
(0.45815 0.498239 0)
(0.43434 0.507414 0)
(0.404712 0.521444 0)
(0.367906 0.544177 0)
(0.3276 0.577764 0)
(0.277471 0.619111 0)
(0.2122 0.666611 0)
(0.134192 0.712188 0)
(0.0414225 0.739373 0)
(3 2.96671e-16 0)
(3 4.22283e-16 0)
(3 7.56424e-16 0)
(3 9.76074e-16 0)
(3 8.84746e-16 0)
(3 9.6799e-16 0)
(3 2.34131e-16 0)
(3 4.56878e-16 0)
(3 -2.64437e-16 0)
(3 -8.42733e-16 0)
(3 -8.46765e-16 0)
(3 -4.45173e-16 0)
(3 -6.39793e-17 0)
(3 2.99825e-16 0)
(3 5.47175e-16 0)
(3 5.69664e-16 0)
(3 1.3599e-15 0)
(3 1.79186e-15 0)
(3 9.7962e-16 0)
(3 1.39401e-16 0)
(3 1.23309e-16 0)
(3 3.49023e-16 0)
(3 4.14176e-17 0)
(3 2.07699e-16 0)
(3 -1.12364e-16 0)
(3 -2.85615e-16 0)
(3 1.93902e-16 0)
(3.00018 7.80847e-06 0)
(1.46694 0.396099 0)
(0.779827 0.378083 0)
(0.713179 0.410339 0)
(0.686184 0.446515 0)
(0.660142 0.463789 0)
(0.637629 0.460492 0)
(0.614255 0.451431 0)
(0.588225 0.446558 0)
(0.56024 0.457012 0)
(0.536545 0.481307 0)
(0.517282 0.509332 0)
(0.49911 0.528589 0)
(0.477537 0.541038 0)
(0.451051 0.560306 0)
(0.415861 0.589458 0)
(0.37552 0.634095 0)
(0.328919 0.691881 0)
(0.269276 0.752833 0)
(0.194291 0.816026 0)
(0.0734434 0.86714 0)
(3 -4.04918e-18 0)
(3 -3.62319e-17 0)
(3 5.55829e-16 0)
(3 5.569e-16 0)
(3 4.29079e-16 0)
(3 5.31651e-16 0)
(3 5.2639e-16 0)
(3 5.00026e-16 0)
(3 2.98975e-16 0)
(3 -2.2443e-16 0)
(3 -4.52499e-16 0)
(3 -4.0942e-16 0)
(3 -1.06358e-17 0)
(3 3.95033e-16 0)
(3 7.22039e-16 0)
(3 1.30323e-15 0)
(3 1.7659e-15 0)
(3 1.82922e-15 0)
(3 1.65775e-15 0)
(3 1.57309e-15 0)
(3 1.73406e-15 0)
(3 1.92269e-15 0)
(3 7.28035e-16 0)
(3 -1.30509e-15 0)
(3 -1.37073e-15 0)
(3 -1.24614e-15 0)
(3 -2.30808e-16 0)
(3 -8.66526e-09 0)
(1.90661 0.433083 0)
(0.834274 0.446525 0)
(0.732285 0.445877 0)
(0.714378 0.471942 0)
(0.692784 0.483091 0)
(0.673865 0.481188 0)
(0.653925 0.475388 0)
(0.631391 0.472116 0)
(0.607514 0.482663 0)
(0.586641 0.506129 0)
(0.569426 0.534288 0)
(0.553076 0.555558 0)
(0.532557 0.570785 0)
(0.507469 0.59603 0)
(0.473697 0.634205 0)
(0.435473 0.688906 0)
(0.395795 0.758591 0)
(0.337971 0.846556 0)
(0.237068 0.970474 0)
(0.122962 1.10547 0)
(3 -5.29106e-17 0)
(3 1.24445e-16 0)
(3 2.50637e-16 0)
(3 2.13249e-16 0)
(3 2.31716e-16 0)
(3 -8.07168e-17 0)
(3 2.01675e-16 0)
(3 3.96663e-16 0)
(3 6.32761e-16 0)
(3 1.37147e-15 0)
(3 1.12457e-15 0)
(3 4.07408e-16 0)
(3 -2.47841e-16 0)
(3 1.35739e-16 0)
(3 6.68342e-16 0)
(3 7.00821e-16 0)
(3 -1.15583e-16 0)
(3 2.72072e-16 0)
(3 1.75543e-15 0)
(3 2.30085e-15 0)
(3 2.34494e-15 0)
(3 1.85203e-15 0)
(3 1.30569e-15 0)
(3 -8.97416e-16 0)
(3 -1.65254e-15 0)
(3 -1.29322e-15 0)
(3 -5.12926e-16 0)
(3 -1.83564e-09 0)
(2.54549 0.344955 0)
(0.965735 0.5031 0)
(0.806586 0.449683 0)
(0.780974 0.476897 0)
(0.752269 0.491946 0)
(0.727954 0.495851 0)
(0.705441 0.494181 0)
(0.682732 0.493852 0)
(0.660376 0.505479 0)
(0.640932 0.529134 0)
(0.623925 0.558714 0)
(0.607249 0.584249 0)
(0.585555 0.605162 0)
(0.559553 0.637442 0)
(0.527112 0.683988 0)
(0.492934 0.747963 0)
(0.457565 0.836259 0)
(0.430992 0.968596 0)
(0.420037 1.1369 0)
(0.525764 1.41501 0)
(3 3.74239e-17 0)
(3 -1.84985e-16 0)
(3 4.14077e-17 0)
(3 3.02826e-16 0)
(3 3.07106e-16 0)
(3 3.71443e-16 0)
(3 4.70225e-16 0)
(3 5.34236e-16 0)
(3 6.54583e-16 0)
(3 7.37429e-16 0)
(3 1.18478e-15 0)
(3 1.59429e-15 0)
(3 9.77697e-16 0)
(3 -2.61419e-18 0)
(3 -2.84974e-16 0)
(3 -2.06753e-16 0)
(3 -6.03848e-16 0)
(3 -4.48632e-16 0)
(3 6.1995e-16 0)
(3 4.77292e-16 0)
(3 4.88696e-16 0)
(3 2.29256e-16 0)
(3 -4.45672e-16 0)
(3 -3.61399e-16 0)
(3 -4.16588e-17 0)
(3 -3.43121e-16 0)
(3 -3.50473e-16 0)
(3 -3.62528e-10 0)
(3.0393 0.0718146 0)
(1.16897 0.487493 0)
(0.858708 0.485882 0)
(0.825698 0.516021 0)
(0.797088 0.520984 0)
(0.771042 0.520728 0)
(0.744332 0.519994 0)
(0.71809 0.521203 0)
(0.693317 0.533737 0)
(0.67319 0.558413 0)
(0.656479 0.589993 0)
(0.641051 0.620106 0)
(0.621701 0.646244 0)
(0.600664 0.682116 0)
(0.577233 0.732628 0)
(0.554186 0.803102 0)
(0.543005 0.904076 0)
(0.554391 1.03896 0)
(0.639665 1.19576 0)
(0.944151 1.40463 0)
(3 1.85949e-16 0)
(3 8.89462e-17 0)
(3 -1.10448e-16 0)
(3 -1.83189e-16 0)
(3 2.14007e-16 0)
(3 5.15311e-16 0)
(3 7.30455e-16 0)
(3 5.7255e-16 0)
(3 2.23726e-16 0)
(3 -5.86889e-16 0)
(3 3.05755e-16 0)
(3 1.34052e-15 0)
(3 5.08774e-16 0)
(3 -1.26693e-16 0)
(3 -9.25364e-16 0)
(3 -1.03827e-15 0)
(3 2.14876e-16 0)
(3 4.76016e-16 0)
(3 4.70081e-16 0)
(3 4.70537e-16 0)
(3 5.30265e-16 0)
(3 -2.52903e-16 0)
(3 -1.01612e-15 0)
(3 -3.52354e-16 0)
(3 1.75308e-16 0)
(3 4.43327e-16 0)
(3 -1.61522e-16 0)
(3 -7.57206e-11 0)
(3.012 0.00183534 0)
(1.36044 0.47575 0)
(0.842177 0.52993 0)
(0.816209 0.54611 0)
(0.794703 0.549724 0)
(0.775312 0.551676 0)
(0.753609 0.552082 0)
(0.73168 0.551721 0)
(0.711114 0.560835 0)
(0.694496 0.583071 0)
(0.680393 0.61501 0)
(0.668801 0.649505 0)
(0.654688 0.68168 0)
(0.640456 0.721065 0)
(0.628442 0.774614 0)
(0.62153 0.846677 0)
(0.63359 0.945428 0)
(0.683879 1.06539 0)
(0.833145 1.20307 0)
(1.16933 1.33178 0)
(3 -1.67936e-17 0)
(3 2.76361e-16 0)
(3 -5.2971e-17 0)
(3 -2.96057e-16 0)
(3 -3.89217e-17 0)
(3 2.52896e-16 0)
(3 2.48817e-16 0)
(3 3.18881e-16 0)
(3 1.54127e-16 0)
(3 9.76668e-17 0)
(3 -3.8827e-16 0)
(3 -1.0693e-15 0)
(3 -4.01809e-17 0)
(3 1.70818e-16 0)
(3 6.34657e-16 0)
(3 4.57343e-16 0)
(3 2.64427e-16 0)
(3 8.11048e-16 0)
(3 9.54559e-16 0)
(3 1.13279e-15 0)
(3 7.7455e-16 0)
(3 7.48743e-16 0)
(3 7.92252e-16 0)
(3 6.98828e-16 0)
(3 6.25572e-16 0)
(3 7.09379e-16 0)
(3 3.23424e-16 0)
(3 -5.91623e-12 0)
(3.00008 -8.35247e-07 0)
(1.81189 0.507322 0)
(0.870391 0.561183 0)
(0.820285 0.56065 0)
(0.807858 0.570697 0)
(0.791599 0.577162 0)
(0.77137 0.581054 0)
(0.751038 0.580427 0)
(0.731519 0.587591 0)
(0.715636 0.608216 0)
(0.703604 0.640115 0)
(0.695874 0.677471 0)
(0.688316 0.713975 0)
(0.682454 0.754245 0)
(0.68198 0.806071 0)
(0.691726 0.873834 0)
(0.722252 0.963233 0)
(0.803686 1.07045 0)
(0.976003 1.17759 0)
(1.26743 1.25397 0)
(3 -5.04473e-17 0)
(3 -3.65107e-16 0)
(3 3.72708e-17 0)
(3 1.80919e-16 0)
(3 -4.72629e-17 0)
(3 -2.51778e-16 0)
(3 -1.52065e-16 0)
(3 3.08246e-16 0)
(3 3.40107e-16 0)
(3 -1.61929e-17 0)
(3 -1.20963e-15 0)
(3 -1.86794e-15 0)
(3 -1.19703e-15 0)
(3 -7.25562e-16 0)
(3 3.39682e-17 0)
(3 2.01128e-16 0)
(3 -1.60009e-16 0)
(3 -5.88922e-17 0)
(3 -4.53404e-16 0)
(3 -7.97596e-16 0)
(3 -2.49951e-16 0)
(3 4.3842e-16 0)
(3 7.4582e-16 0)
(3 6.62895e-16 0)
(3 5.48707e-16 0)
(3 2.97086e-16 0)
(3 3.71486e-16 0)
(3 -5.666e-14 0)
(3 -2.5672e-07 0)
(2.54647 0.388439 0)
(1.00756 0.602698 0)
(0.868468 0.565733 0)
(0.846845 0.581228 0)
(0.826014 0.593963 0)
(0.804568 0.603411 0)
(0.784035 0.603932 0)
(0.763615 0.609731 0)
(0.745924 0.62926 0)
(0.73328 0.661985 0)
(0.727381 0.702286 0)
(0.725316 0.742138 0)
(0.727802 0.782012 0)
(0.737238 0.829126 0)
(0.7602 0.888395 0)
(0.806626 0.964126 0)
(0.903617 1.05474 0)
(1.07029 1.13261 0)
(1.31007 1.17958 0)
(3 4.51902e-17 0)
(3 -2.14057e-16 0)
(3 -7.29095e-16 0)
(3 -4.41609e-16 0)
(3 -4.39275e-16 0)
(3 -1.01771e-16 0)
(3 2.57068e-16 0)
(3 1.02438e-16 0)
(3 -4.74936e-17 0)
(3 -2.10729e-16 0)
(3 -9.94281e-16 0)
(3 -9.91926e-16 0)
(3 -4.36809e-16 0)
(3 -3.32738e-17 0)
(3 -6.08747e-16 0)
(3 -1.56891e-16 0)
(3 1.34549e-17 0)
(3 -1.92951e-16 0)
(3 -1.61659e-15 0)
(3 -2.79045e-15 0)
(3 -2.54238e-15 0)
(3 -1.95248e-15 0)
(3 -1.30015e-15 0)
(3 -8.06313e-17 0)
(3 -3.90866e-16 0)
(3 -6.63057e-16 0)
(3 -1.17498e-16 0)
(3 2.99948e-16 0)
(3 -7.1946e-08 0)
(3.07848 0.0576608 0)
(1.27118 0.587906 0)
(0.930418 0.601149 0)
(0.890334 0.614165 0)
(0.855057 0.622684 0)
(0.828861 0.632972 0)
(0.808337 0.634696 0)
(0.789528 0.639482 0)
(0.773704 0.656566 0)
(0.764447 0.686764 0)
(0.762784 0.725759 0)
(0.766397 0.765816 0)
(0.776593 0.804568 0)
(0.793502 0.846357 0)
(0.826858 0.896591 0)
(0.885352 0.956954 0)
(0.985974 1.02992 0)
(1.13714 1.08627 0)
(1.3321 1.11682 0)
(3 -1.65464e-17 0)
(3 -3.09961e-16 0)
(3 -1.02812e-15 0)
(3 -7.14407e-16 0)
(3 -6.40995e-16 0)
(3 -3.44611e-16 0)
(3 -5.07126e-16 0)
(3 -7.23576e-16 0)
(3 -6.5032e-16 0)
(3 -5.33936e-16 0)
(3 5.66273e-17 0)
(3 7.68375e-16 0)
(3 1.44613e-15 0)
(3 1.25541e-15 0)
(3 6.88135e-16 0)
(3 -7.86018e-17 0)
(3 -5.48801e-16 0)
(3 -9.20132e-16 0)
(3 -8.22726e-16 0)
(3 -1.3554e-15 0)
(3 -2.48231e-15 0)
(3 -2.58517e-15 0)
(3 -2.10294e-15 0)
(3 -1.50209e-15 0)
(3 -1.34479e-15 0)
(3 -1.03134e-15 0)
(3 -9.50662e-16 0)
(3 1.96024e-17 0)
(3 -6.63596e-09 0)
(3.00854 0.000426128 0)
(1.57445 0.573853 0)
(0.920405 0.648584 0)
(0.889107 0.649659 0)
(0.870136 0.654603 0)
(0.853373 0.659471 0)
(0.838997 0.659133 0)
(0.822864 0.663006 0)
(0.809272 0.678244 0)
(0.803213 0.7066 0)
(0.805041 0.744325 0)
(0.813209 0.783993 0)
(0.827678 0.821953 0)
(0.850509 0.858159 0)
(0.891852 0.898553 0)
(0.955229 0.942749 0)
(1.05205 0.998154 0)
(1.18492 1.03919 0)
(1.34565 1.05757 0)
(3 -4.89355e-17 0)
(3 2.80434e-16 0)
(3 5.60954e-16 0)
(3 3.03377e-16 0)
(3 -1.05344e-16 0)
(3 -6.43296e-16 0)
(3 -1.36168e-15 0)
(3 -1.07441e-15 0)
(3 -8.46719e-16 0)
(3 -5.56588e-16 0)
(3 8.94623e-16 0)
(3 2.50377e-15 0)
(3 2.28912e-15 0)
(3 1.93085e-15 0)
(3 1.52841e-15 0)
(3 4.76597e-16 0)
(3 4.91355e-17 0)
(3 1.40917e-16 0)
(3 1.37451e-16 0)
(3 -1.90988e-16 0)
(3 -8.43944e-16 0)
(3 -1.03339e-15 0)
(3 -1.04694e-15 0)
(3 -8.6555e-16 0)
(3 -2.70568e-16 0)
(3 4.10578e-18 0)
(3 -2.60475e-17 0)
(3 6.12554e-17 0)
(3 -1.46241e-10 0)
(3.00004 -1.57692e-06 0)
(2.32627 0.491565 0)
(1.01453 0.677178 0)
(0.921782 0.659026 0)
(0.905916 0.667118 0)
(0.890848 0.673828 0)
(0.877949 0.678832 0)
(0.862935 0.685408 0)
(0.850839 0.700032 0)
(0.847106 0.726288 0)
(0.851059 0.76171 0)
(0.862821 0.800908 0)
(0.878824 0.836438 0)
(0.907523 0.869467 0)
(0.953902 0.902299 0)
(1.01869 0.934717 0)
(1.11195 0.975328 0)
(1.22857 1.00395 0)
(1.3674 1.01503 0)
(3 4.99109e-17 0)
(3 -1.58619e-17 0)
(3 5.01888e-16 0)
(3 3.99659e-16 0)
(3 4.27863e-16 0)
(3 1.62675e-16 0)
(3 5.68299e-17 0)
(3 7.21132e-18 0)
(3 -1.43612e-16 0)
(3 -1.73837e-16 0)
(3 2.16854e-16 0)
(3 3.58566e-16 0)
(3 2.57495e-16 0)
(3 5.74689e-17 0)
(3 1.67425e-16 0)
(3 3.87695e-16 0)
(3 1.01321e-15 0)
(3 7.06631e-16 0)
(3 -8.39702e-16 0)
(3 -1.12407e-15 0)
(3 -1.40752e-15 0)
(3 -1.298e-15 0)
(3 -8.81831e-16 0)
(3 -5.24356e-16 0)
(3 2.82837e-16 0)
(3 4.45217e-16 0)
(3 3.91197e-16 0)
(3 5.02313e-17 0)
(3 -2.1852e-13 0)
(3 -8.22535e-07 0)
(3.07409 0.0971542 0)
(1.28944 0.6661 0)
(0.990546 0.685094 0)
(0.960945 0.689213 0)
(0.93228 0.696684 0)
(0.911873 0.7032 0)
(0.89693 0.7106 0)
(0.889113 0.722412 0)
(0.889536 0.744886 0)
(0.897251 0.776688 0)
(0.910483 0.813356 0)
(0.93011 0.844525 0)
(0.962223 0.872194 0)
(1.00905 0.899012 0)
(1.07222 0.923065 0)
(1.15939 0.950636 0)
(1.26167 0.969162 0)
(1.3854 0.975468 0)
(3 -2.28771e-17 0)
(3 -1.15661e-16 0)
(3 -2.41481e-16 0)
(3 -2.48203e-16 0)
(3 1.00482e-16 0)
(3 2.41473e-16 0)
(3 2.25061e-16 0)
(3 -2.68685e-16 0)
(3 -5.50107e-16 0)
(3 -6.66685e-16 0)
(3 -1.39304e-15 0)
(3 -1.61812e-15 0)
(3 -1.25884e-15 0)
(3 -1.12359e-15 0)
(3 -2.42002e-16 0)
(3 2.44513e-16 0)
(3 2.06738e-16 0)
(3 -3.08172e-16 0)
(3 -9.63391e-16 0)
(3 -1.04915e-15 0)
(3 -9.19451e-16 0)
(3 -1.08094e-15 0)
(3 6.4127e-18 0)
(3 6.33314e-16 0)
(3 1.66547e-16 0)
(3 -1.64902e-17 0)
(3 -2.42382e-16 0)
(3 -3.35562e-16 0)
(3 -6.1225e-16 0)
(3 -1.14356e-07 0)
(3.01522 0.00102566 0)
(1.64596 0.643853 0)
(0.998084 0.735255 0)
(0.968801 0.722976 0)
(0.953001 0.731346 0)
(0.940267 0.732009 0)
(0.932363 0.72976 0)
(0.928242 0.737422 0)
(0.931242 0.757419 0)
(0.942202 0.788421 0)
(0.955557 0.823179 0)
(0.979291 0.853078 0)
(1.01413 0.878152 0)
(1.0596 0.9008 0)
(1.1203 0.920611 0)
(1.20005 0.938949 0)
(1.29173 0.949168 0)
(1.40231 0.953753 0)
(3 8.87372e-17 0)
(3 5.21966e-16 0)
(3 4.31315e-16 0)
(3 -1.66991e-16 0)
(3 -1.24326e-16 0)
(3 -4.06776e-16 0)
(3 -4.99252e-16 0)
(3 -6.70563e-16 0)
(3 -7.80062e-16 0)
(3 -7.62041e-16 0)
(3 -1.0267e-15 0)
(3 -1.51968e-15 0)
(3 -1.61441e-15 0)
(3 -9.97996e-16 0)
(3 -4.09704e-16 0)
(3 -6.35685e-16 0)
(3 -1.05137e-15 0)
(3 -1.65387e-15 0)
(3 -1.06995e-15 0)
(3 -1.81241e-16 0)
(3 6.57864e-16 0)
(3 7.54554e-16 0)
(3 9.72905e-16 0)
(3 1.62199e-15 0)
(3 1.35644e-15 0)
(3 4.60254e-16 0)
(3 -1.01342e-15 0)
(3 -9.46738e-16 0)
(3 -6.62558e-17 0)
(3 -5.50202e-09 0)
(3.0001 -3.99497e-07 0)
(2.52736 0.443771 0)
(1.12156 0.739558 0)
(1.00637 0.72543 0)
(0.992348 0.736301 0)
(0.981131 0.74798 0)
(0.974708 0.746793 0)
(0.970405 0.751645 0)
(0.972488 0.767931 0)
(0.984065 0.796557 0)
(0.998103 0.827292 0)
(1.02294 0.854982 0)
(1.05876 0.877234 0)
(1.10214 0.895917 0)
(1.15876 0.912062 0)
(1.22856 0.923201 0)
(1.31197 0.928679 0)
(1.40836 0.931578 0)
(3 3.06752e-17 0)
(3 2.97915e-17 0)
(3 1.06305e-16 0)
(3 2.38697e-16 0)
(3 2.01626e-16 0)
(3 1.78998e-17 0)
(3 1.63784e-16 0)
(3 -4.27628e-17 0)
(3 -6.07841e-16 0)
(3 -1.00854e-15 0)
(3 -5.06288e-16 0)
(3 -1.35717e-16 0)
(3 1.15451e-16 0)
(3 -1.27259e-17 0)
(3 -3.09509e-16 0)
(3 -2.93182e-16 0)
(3 -1.80267e-18 0)
(3 5.2861e-17 0)
(3 -3.14772e-18 0)
(3 -5.69971e-17 0)
(3 6.42272e-16 0)
(3 1.52052e-15 0)
(3 1.54482e-15 0)
(3 1.46669e-15 0)
(3 1.22062e-15 0)
(3 5.21144e-16 0)
(3 -2.26448e-16 0)
(3 -4.01985e-16 0)
(3 3.06983e-16 0)
(3 -1.29457e-11 0)
(3 -1.90274e-06 0)
(3.07403 0.0524125 0)
(1.3988 0.702257 0)
(1.05102 0.761673 0)
(1.02274 0.764447 0)
(1.00726 0.773373 0)
(1.00413 0.772037 0)
(1.00506 0.772478 0)
(1.00882 0.784216 0)
(1.02071 0.808467 0)
(1.03711 0.837038 0)
(1.06153 0.861199 0)
(1.09642 0.882865 0)
(1.13897 0.900038 0)
(1.19189 0.912549 0)
(1.25401 0.918677 0)
(1.32954 0.921729 0)
(1.41322 0.922066 0)
(3 -2.71914e-17 0)
(3 -1.97818e-16 0)
(3 1.40666e-16 0)
(3 3.83942e-16 0)
(3 -2.30619e-16 0)
(3 -1.05724e-16 0)
(3 -2.0254e-16 0)
(3 -8.76734e-16 0)
(3 -1.07286e-15 0)
(3 -8.00374e-16 0)
(3 -9.3164e-17 0)
(3 4.87588e-16 0)
(3 8.91893e-16 0)
(3 5.22644e-16 0)
(3 3.21091e-16 0)
(3 5.19517e-16 0)
(3 9.2082e-16 0)
(3 1.70155e-15 0)
(3 1.98659e-15 0)
(3 1.25868e-15 0)
(3 8.62811e-16 0)
(3 1.10574e-15 0)
(3 1.35357e-15 0)
(3 1.16711e-15 0)
(3 1.01631e-15 0)
(3 1.30788e-15 0)
(3 1.47079e-15 0)
(3 9.46303e-16 0)
(3 7.91651e-16 0)
(3 -9.29034e-15 0)
(3 -2.85914e-07 0)
(3.00594 0.00047045 0)
(1.99122 0.663911 0)
(1.08007 0.80811 0)
(1.04729 0.785355 0)
(1.03908 0.78577 0)
(1.03811 0.783301 0)
(1.0415 0.782601 0)
(1.04606 0.791226 0)
(1.0572 0.812843 0)
(1.07397 0.839798 0)
(1.09723 0.861608 0)
(1.12976 0.881081 0)
(1.17062 0.895885 0)
(1.21881 0.904897 0)
(1.27454 0.908333 0)
(1.3414 0.909972 0)
(1.416 0.90855 0)
(3 -6.2396e-19 0)
(3 8.67584e-17 0)
(3 2.01774e-16 0)
(3 4.81726e-16 0)
(3 3.99423e-16 0)
(3 2.36575e-16 0)
(3 -2.91903e-16 0)
(3 -3.36569e-16 0)
(3 -1.53999e-17 0)
(3 -2.57093e-16 0)
(3 -7.73041e-16 0)
(3 -1.06635e-15 0)
(3 -8.39612e-16 0)
(3 -4.36057e-16 0)
(3 1.16967e-16 0)
(3 3.37529e-16 0)
(3 -9.89371e-17 0)
(3 -2.30293e-16 0)
(3 7.20845e-16 0)
(3 1.28699e-15 0)
(3 1.47916e-15 0)
(3 1.05693e-15 0)
(3 6.50241e-16 0)
(3 2.78707e-16 0)
(3 2.38737e-16 0)
(3 7.48491e-16 0)
(3 1.12824e-15 0)
(3 1.31651e-15 0)
(3 6.93756e-16 0)
(3 3.15674e-15 0)
(3 -1.49979e-08 0)
(3.00002 1.02108e-06 0)
(2.99852 0.203928 0)
(1.32861 0.778627 0)
(1.1001 0.794233 0)
(1.09202 0.79612 0)
(1.08098 0.80091 0)
(1.07993 0.797523 0)
(1.0809 0.802646 0)
(1.08984 0.824054 0)
(1.10674 0.847196 0)
(1.13079 0.866885 0)
(1.16179 0.88496 0)
(1.20015 0.89879 0)
(1.24432 0.906159 0)
(1.29523 0.907788 0)
(1.35435 0.90688 0)
(1.42166 0.902638 0)
(3 -1.02607e-16 0)
(3 9.01326e-17 0)
(3 -4.29758e-16 0)
(3 -1.07123e-16 0)
(3 4.23581e-16 0)
(3 4.25065e-16 0)
(3 -7.50873e-17 0)
(3 1.36811e-16 0)
(3 3.43683e-16 0)
(3 -1.20277e-16 0)
(3 -5.8535e-16 0)
(3 -1.8127e-15 0)
(3 -1.93142e-15 0)
(3 -9.55265e-16 0)
(3 -1.72726e-16 0)
(3 -3.15857e-16 0)
(3 -9.10914e-16 0)
(3 -1.52852e-15 0)
(3 -6.41536e-16 0)
(3 1.66683e-16 0)
(3 3.65876e-16 0)
(3 7.63705e-17 0)
(3 1.10058e-17 0)
(3 6.97533e-17 0)
(3 3.18932e-16 0)
(3 -4.30809e-16 0)
(3 -1.11087e-15 0)
(3 -4.94759e-16 0)
(3 -2.72668e-16 0)
(3 1.33395e-15 0)
(3 -3.39275e-11 0)
(3 -3.27498e-07 0)
(3.03075 0.0044606 0)
(1.73246 0.745768 0)
(1.11883 0.843948 0)
(1.10832 0.829461 0)
(1.10871 0.825833 0)
(1.10575 0.824497 0)
(1.10794 0.824914 0)
(1.11751 0.838102 0)