/*--------------------------------*- C++ -*----------------------------------*\
  =========                 |
  \\      /  F ield         | OpenFOAM: The Open Source CFD Toolbox
   \\    /   O peration     | Website:  https://openfoam.org
    \\  /    A nd           | Version:  7
     \\/     M anipulation  |
\*---------------------------------------------------------------------------*/
FoamFile
{
    version     2.0;
    format      ascii;
    class       volScalarField;
    location    "1.1";
    object      p;
}
// * * * * * * * * * * * * * * * * * * * * * * * * * * * * * * * * * * * * * //

dimensions      [1 -1 -2 0 0 0 0];

internalField   nonuniform List<scalar> 
258048
(
1
1
1
1
1
1
1
1
1
1
1
1
1
1
1
1
1
1
1
1
1
1
1
1
1
1
1
1
1
1
1
1
1
1
1
1
1
1
1
1
1
1
1
1
1
1
1
1
1
1
1
1
1
1
1
1
1
1
1
1
1
1
1
1
1
1
1
1
1
1
1
1
1
1
1
1
1
1
1
1
1
1
1
1
1
1
1
1
1
1
1
1
1
1
1
1
1
1
1
1
1
1
1
1
1
1
1
4.72529
10.3698
10.7626
10.7954
10.8512
10.8703
10.8791
10.8715
10.8657
10.8652
10.8826
10.9247
10.9849
11.0513
11.1115
11.1534
11.1807
11.2004
11.2157
11.2333
11.2506
11.261
11.2626
11.256
11.2516
11.2618
11.2917
11.3407
11.4006
11.4434
11.462
11.4653
11.475
11.5058
11.5592
11.6288
11.6944
11.7371
11.7533
11.7465
11.7236
11.6985
11.6864
11.6891
11.7055
11.7424
11.793
11.8438
11.8885
11.9249
11.9511
11.9658
11.9711
11.9707
11.972
11.9822
12.0065
12.0415
12.0745
12.0946
12.096
12.0794
12.0563
12.038
12.0333
12.0424
12.0592
12.0752
12.0826
12.0779
12.0647
12.0504
12.0464
12.0612
12.0955
12.1439
12.1921
12.2242
12.24
12.2498
12.256
12.2569
12.2523
12.2436
12.2451
1
1
1
1
1
1
1
1
1
1
1
1
1
1
1
1
1
1
1
1
1
1
1
1
1
1
1
1
1
1
1
1
1
1
1
1
1
1
1
1
1
1
1
1
1
1
1
1
1
1
1
1
1
1
1
1
1
1
1
1
1
1
1
1
1
1
1
1
1
1
1
1
1
1
1
1
1
1
1
1
1
1
1
1
1
1
1
1
1
1
1
1
1
1
1
1
1
1
1
1
1
1
1
1
1
1
1
4.69103
10.3741
10.7579
10.802
10.8537
10.8718
10.8785
10.8711
10.8656
10.8658
10.8833
10.9258
10.9855
11.0504
11.1095
11.1507
11.1781
11.1986
11.215
11.2337
11.2514
11.2617
11.2623
11.2549
11.2507
11.261
11.2915
11.3407
11.4004
11.4429
11.4613
11.4647
11.475
11.5061
11.5599
11.6293
11.6944
11.7362
11.7517
11.7448
11.7221
11.6973
11.6853
11.688
11.7043
11.7413
11.7921
11.8432
11.8883
11.925
11.9516
11.9667
11.9722
11.9718
11.9725
11.9815
12.0043
12.0384
12.0717
12.0931
12.0961
12.0807
12.0583
12.0394
12.0335
12.0413
12.057
12.0727
12.0806
12.077
12.0651
12.052
12.0487
12.0631
12.0956
12.1413
12.1872
12.2193
12.2381
12.2513
12.2592
12.2598
12.2531
12.2416
12.2396
1
1
1
1
1
1
1
1
1
1
1
1
1
1
1
1
1
1
1
1
1
1
1
1
1
1
1
1
1
1
1
1
1
1
1
1
1
1
1
1
1
1
1
1
1
1
1
1
1
1
1
1
1
1
1
1
1
1
1
1
1
1
1
1
1
1
1
1
1
1
1
1
1
1
1
1
1
1
1
1
1
1
1
1
1
1
1
1
1
1
1
1
1
1
1
1
1
1
1
1
1
1
1
1
1
1
1
4.62963
10.3807
10.756
10.8049
10.8525
10.8704
10.8754
10.8691
10.8644
10.8654
10.8832
10.9262
10.9854
11.0488
11.1066
11.147
11.1748
11.1965
11.2141
11.2341
11.2522
11.2618
11.2609
11.2524
11.2489
11.2596
11.2908
11.3404
11.3998
11.4419
11.4599
11.463
11.4743
11.5064
11.5609
11.6305
11.6951
11.7359
11.7503
11.743
11.7203
11.6956
11.6838
11.6865
11.7027
11.7396
11.7905
11.8418
11.8873
11.9244
11.9513
11.967
11.9733
11.9734
11.974
11.9818
12.0028
12.0349
12.0672
12.0891
12.094
12.0808
12.0595
12.0406
12.0333
12.0395
12.0537
12.0687
12.0771
12.0749
12.0646
12.0532
12.0509
12.0648
12.0951
12.1381
12.1818
12.2145
12.2369
12.253
12.262
12.2614
12.2525
12.239
12.2333
1
1
1
1
1
1
1
1
1
1
1
1
1
1
1
1
1
1
1
1
1
1
1
1
1
1
1
1
1
1
1
1
1
1
1
1
1
1
1
1
1
1
1
1
1
1
1
1
1
1
1
1
1
1
1
1
1
1
1
1
1
1
1
1
1
1
1
1
1
1
1
1
1
1
1
1
1
1
1
1
1
1
1
1
1
1
1
1
1
1
1
1
1
1
1
1
1
1
1
1
1
1
1
1
1
1
1
4.55756
10.3667
10.7569
10.8077
10.8505
10.8689
10.8725
10.8674
10.864
10.8652
10.8832
10.9255
10.984
11.0458
11.102
11.1416
11.1704
11.1942
11.2134
11.2347
11.2526
11.2608
11.258
11.2487
11.2465
11.2582
11.29
11.3398
11.3988
11.44
11.4573
11.4601
11.4728
11.5065
11.5619
11.6318
11.6961
11.7358
11.7492
11.7414
11.7187
11.6941
11.6823
11.6848
11.7008
11.7375
11.7884
11.8398
11.8854
11.9228
11.9503
11.9667
11.9737
11.9744
11.975
11.9821
12.0019
12.0323
12.0633
12.0849
12.0911
12.0803
12.0605
12.0417
12.0331
12.0375
12.05
12.0641
12.0729
12.0722
12.0639
12.0544
12.053
12.066
12.0937
12.1339
12.1759
12.2092
12.2354
12.254
12.2633
12.2613
12.2503
12.236
12.2275
1
1
1
1
1
1
1
1
1
1
1
1
1
1
1
1
1
1
1
1
1
1
1
1
1
1
1
1
1
1
1
1
1
1
1
1
1
1
1
1
1
1
1
1
1
1
1
1
1
1
1
1
1
1
1
1
1
1
1
1
1
1
1
1
1
1
1
1
1
1
1
1
1
1
1
1
1
1
1
1
1
1
1
1
1
1
1
1
1
1
1
1
1
1
1
1
1
1
1
1
1
1
1
1
1
1
1
4.47486
10.3438
10.7575
10.8066
10.8468
10.8654
10.8694
10.8661
10.8641
10.8649
10.883
10.9245
10.9819
11.0417
11.0961
11.1352
11.1659
11.1918
11.2128
11.235
11.252
11.2585
11.2544
11.2448
11.2442
11.2572
11.2893
11.3391
11.3973
11.437
11.4534
11.4561
11.4707
11.5061
11.5624
11.6328
11.6969
11.7359
11.7485
11.7404
11.7178
11.6931
11.6811
11.6833
11.6988
11.7351
11.7858
11.8371
11.8827
11.92
11.9476
11.9646
11.9724
11.974
11.9752
11.9824
12.002
12.0312
12.0606
12.081
12.0874
12.0782
12.0596
12.0415
12.0324
12.0356
12.0466
12.0595
12.0684
12.0688
12.0621
12.0545
12.0539
12.0659
12.0912
12.1297
12.1711
12.2055
12.234
12.2532
12.2613
12.2577
12.2465
12.2332
12.2244
1
1
1
1
1
1
1
1
1
1
1
1
1
1
1
1
1
1
1
1
1
1
1
1
1
1
1
1
1
1
1
1
1
1
1
1
1
1
1
1
1
1
1
1
1
1
1
1
1
1
1
1
1
1
1
1
1
1
1
1
1
1
1
1
1
1
1
1
1
1
1
1
1
1
1
1
1
1
1
1
1
1
1
1
1
1
1
1
1
1
1
1
1
1
1
1
1
1
1
1
1
1
1
1
1
1
1
4.37587
10.3153
10.7554
10.8011
10.8404
10.8604
10.8677
10.8665
10.8658
10.8652
10.8825
10.9229
10.978
11.036
11.0893
11.1285
11.162
11.1897
11.212
11.2341
11.25
11.2551
11.2505
11.2415
11.2424
11.2565
11.2885
11.3377
11.3946
11.4325
11.4481
11.4513
11.4682
11.5054
11.5625
11.6331
11.6971
11.7355
11.7477
11.7397
11.7173
11.6926
11.6801
11.6818
11.6967
11.7325
11.7829
11.834
11.8793
11.9163
11.9436
11.9604
11.9686
11.9714
11.9737
11.9823
12.0026
12.0313
12.0593
12.0781
12.0837
12.0745
12.0568
12.0399
12.0311
12.0338
12.0437
12.0554
12.064
12.065
12.0594
12.0529
12.0527
12.0638
12.0875
12.126
12.1684
12.204
12.2327
12.2501
12.2555
12.251
12.2411
12.2309
12.2242
1
1
1
1
1
1
1
1
1
1
1
1
1
1
1
1
1
1
1
1
1
1
1
1
1
1
1
1
1
1
1
1
1
1
1
1
1
1
1
1
1
1
1
1
1
1
1
1
1
1
1
1
1
1
1
1
1
1
1
1
1
1
1
1
1
1
1
1
1
1
1
1
1
1
1
1
1
1
1
1
1
1
1
1
1
1
1
1
1
1
1
1
1
1
1
1
1
1
1
1
1
1
1
1
1
1
1
4.25856
10.2799
10.7502
10.7917
10.8332
10.8559
10.8685
10.8679
10.868
10.8655
10.88
10.9197
10.9723
11.0299
11.084
11.1234
11.1598
11.1883
11.2105
11.2317
11.2464
11.251
11.2471
11.2392
11.2409
11.256
11.2873
11.3356
11.3909
11.4267
11.442
11.4467
11.4662
11.505
11.5624
11.6327
11.6962
11.734
11.7461
11.7386
11.7169
11.6921
11.6791
11.6802
11.6943
11.7294
11.7797
11.8306
11.8756
11.9121
11.9388
11.955
11.963
11.9664
11.9701
11.9809
12.0028
12.0319
12.0589
12.0762
12.0803
12.0701
12.0528
12.037
12.0292
12.032
12.0413
12.0519
12.0597
12.0608
12.0556
12.0491
12.0486
12.0592
12.0831
12.1231
12.1678
12.2041
12.231
12.2446
12.2467
12.2418
12.2347
12.2289
12.2265
1
1
1
1
1
1
1
1
1
1
1
1
1
1
1
1
1
1
1
1
1
1
1
1
1
1
1
1
1
1
1
1
1
1
1
1
1
1
1
1
1
1
1
1
1
1
1
1
1
1
1
1
1
1
1
1
1
1
1
1
1
1
1
1
1
1
1
1
1
1
1
1
1
1
1
1
1
1
1
1
1
1
1
1
1
1
1
1
1
1
1
1
1
1
1
1
1
1
1
1
1
1
1
1
1
1
1
4.12213
10.2368
10.7405
10.7802
10.8272
10.8539
10.8714
10.8688
10.8683
10.8641
10.8745
10.9141
10.9655
11.0245
11.0813
11.1215
11.1597
11.1873
11.2076
11.2268
11.2409
11.246
11.2443
11.2382
11.2401
11.2558
11.286
11.3329
11.3864
11.4202
11.4356
11.4429
11.4654
11.5056
11.563
11.6322
11.6944
11.7311
11.7429
11.7364
11.7158
11.6912
11.6776
11.6782
11.6915
11.726
11.7762
11.8271
11.8718
11.9078
11.9338
11.9491
11.9564
11.9598
11.9644
11.9772
12.0012
12.0315
12.0582
12.0745
12.077
12.0657
12.0483
12.0334
12.0266
12.0298
12.0389
12.0487
12.0554
12.0559
12.0506
12.0436
12.0424
12.053
12.0783
12.121
12.1684
12.2046
12.2283
12.2375
12.2366
12.232
12.2282
12.2266
12.2292
1
1
1
1
1
1
1
1
1
1
1
1
1
1
1
1
1
1
1
1
1
1
1
1
1
1
1
1
1
1
1
1
1
1
1
1
1
1
1
1
1
1
1
1
1
1
1
1
1
1
1
1
1
1
1
1
1
1
1
1
1
1
1
1
1
1
1
1
1
1
1
1
1
1
1
1
1
1
1
1
1
1
1
1
1
1
1
1
1
1
1
1
1
1
1
1
1
1
1
1
1
1
1
1
1
1
1
3.96684
10.1846
10.7259
10.7699
10.8234
10.8536
10.8732
10.868
10.8654
10.8601
10.8673
10.9068
10.9584
11.0196
11.0798
11.1221
11.1607
11.1857
11.2036
11.2206
11.2341
11.2403
11.2416
11.2384
11.2396
11.2556
11.2843
11.3293
11.3806
11.4127
11.4294
11.4401
11.4662
11.5077
11.5647
11.6323
11.6924
11.7273
11.7387
11.7329
11.7137
11.6894
11.6754
11.6754
11.6881
11.7221
11.7725
11.8237
11.8681
11.9034
11.9285
11.943
11.9498
11.9527
11.9576
11.9715
11.9971
12.0287
12.056
12.0721
12.0737
12.0617
12.0443
12.0299
12.0237
12.0272
12.036
12.045
12.0507
12.0504
12.0443
12.0366
12.0348
12.0458
12.0732
12.119
12.1685
12.2038
12.2241
12.2298
12.2274
12.2236
12.2223
12.2232
12.2301
1
1
1
1
1
1
1
1
1
1
1
1
1
1
1
1
1
1
1
1
1
1
1
1
1
1
1
1
1
1
1
1
1
1
1
1
1
1
1
1
1
1
1
1
1
1
1
1
1
1
1
1
1
1
1
1
1
1
1
1
1
1
1
1
1
1
1
1
1
1
1
1
1
1
1
1
1
1
1
1
1
1
1
1
1
1
1
1
1
1
1
1
1
1
1
1
1
1
1
1
1
1
1
1
1
1
1
3.79412
10.1212
10.7102
10.7616
10.8212
10.8537
10.8713
10.8661
10.8592
10.8534
10.8607
10.8989
10.9512
11.0144
11.0778
11.123
11.1609
11.1829
11.1989
11.2142
11.2271
11.234
11.2385
11.2386
11.2386
11.2548
11.2819
11.3243
11.3733
11.4044
11.4236
11.4389
11.4685
11.5109
11.5672
11.6327
11.6903
11.7233
11.7339
11.7288
11.7105
11.6865
11.672
11.6716
11.684
11.7179
11.7687
11.8202
11.8641
11.8983
11.9224
11.9363
11.9428
11.9458
11.9508
11.9651
11.9913
12.0235
12.0514
12.0681
12.07
12.058
12.0408
12.0267
12.0207
12.0239
12.0321
12.0405
12.0453
12.044
12.0371
12.0288
12.0268
12.0387
12.0684
12.1167
12.1669
12.2006
12.2183
12.2226
12.2204
12.2178
12.2176
12.2182
12.2273
1
1
1
1
1
1
1
1
1
1
1
1
1
1
1
1
1
1
1
1
1
1
1
1
1
1
1
1
1
1
1
1
1
1
1
1
1
1
1
1
1
1
1
1
1
1
1
1
1
1
1
1
1
1
1
1
1
1
1
1
1
1
1
1
1
1
1
1
1
1
1
1
1
1
1
1
1
1
1
1
1
1
1
1
1
1
1
1
1
1
1
1
1
1
1
1
1
1
1
1
1
1
1
1
1
1
1
3.60436
10.0442
10.6999
10.7547
10.8184
10.8522
10.8649
10.8625
10.8518
10.8441
10.855
10.8917
10.9454
11.0093
11.0741
11.1214
11.158
11.1781
11.1936
11.2088
11.2212
11.2284
11.2345
11.2376
11.2367
11.2532
11.2784
11.3174
11.3639
11.3953
11.4182
11.4389
11.4715
11.5146
11.5698
11.6328
11.6877
11.719
11.7292
11.7246
11.7071
11.6829
11.6678
11.6668
11.6791
11.7132
11.7648
11.8167
11.8598
11.8925
11.9151
11.9284
11.9352
11.9389
11.9447
11.9593
11.9853
12.017
12.0448
12.0621
12.0649
12.0539
12.0376
12.0237
12.0175
12.0199
12.0271
12.0347
12.0388
12.0368
12.0293
12.0207
12.0192
12.0324
12.0639
12.1133
12.1628
12.1945
12.2112
12.2164
12.2161
12.2147
12.2138
12.2117
12.2204
1
1
1
1
1
1
1
1
1
1
1
1
1
1
1
1
1
1
1
1
1
1
1
1
1
1
1
1
1
1
1
1
1
1
1
1
1
1
1
1
1
1
1
1
1
1
1
1
1
1
1
1
1
1
1
1
1
1
1
1
1
1
1
1
1
1
1
1
1
1
1
1
1
1
1
1
1
1
1
1
1
1
1
1
1
1
1
1
1
1
1
1
1
1
1
1
1
1
1
1
1
1
1
1
1
1
1
3.39886
9.95172
10.6956
10.7477
10.8138
10.8471
10.8566
10.8562
10.8458
10.8363
10.85
10.8876
10.9418
11.0055
11.0698
11.1161
11.1504
11.1701
11.1878
11.2051
11.217
11.2237
11.2298
11.2355
11.2339
11.2503
11.2735
11.3084
11.3522
11.3852
11.4127
11.4392
11.4744
11.5177
11.5711
11.6313
11.6838
11.7139
11.7244
11.7206
11.7036
11.679
11.6629
11.6613
11.6735
11.708
11.7604
11.8129
11.8552
11.886
11.9066
11.919
11.9261
11.9312
11.9388
11.9543
11.9801
12.0109
12.0376
12.0546
12.0582
12.0489
12.0338
12.0203
12.0137
12.015
12.021
12.0278
12.0314
12.029
12.0212
12.0127
12.0122
12.0271
12.0596
12.1087
12.1562
12.186
12.203
12.2108
12.2134
12.2128
12.2103
12.2041
12.2104
1
1
1
1
1
1
1
1
1
1
1
1
1
1
1
1
1
1
1
1
1
1
1
1
1
1
1
1
1
1
1
1
1
1
1
1
1
1
1
1
1
1
1
1
1
1
1
1
1
1
1
1
1
1
1
1
1
1
1
1
1
1
1
1
1
1
1
1
1
1
1
1
1
1
1
1
1
1
1
1
1
1
1
1
1
1
1
1
1
1
1
1
1
1
1
1
1
1
1
1
1
1
1
1
1
1
1
3.17867
9.84186
10.6945
10.741
10.8091
10.8375
10.8482
10.8468
10.8382
10.8338
10.8458
10.8864
10.9404
11.0028
11.0647
11.1078
11.1391
11.1597
11.1815
11.2024
11.2138
11.2206
11.2249
11.2316
11.2308
11.2459
11.2676
11.2984
11.339
11.3749
11.4075
11.4397
11.4767
11.5194
11.5701
11.6271
11.6774
11.7072
11.7189
11.7163
11.7
11.675
11.6576
11.6551
11.6671
11.7019
11.755
11.8082
11.8499
11.879
11.8974
11.9083
11.9156
11.9225
11.9326
11.9497
11.9758
12.0059
12.0313
12.047
12.0507
12.0424
12.0285
12.0157
12.0088
12.0089
12.0138
12.0198
12.0232
12.0208
12.0131
12.0051
12.0057
12.0223
12.0553
12.1029
12.1477
12.1759
12.1943
12.2049
12.2102
12.21
12.206
12.1962
12.1994
1
1
1
1
1
1
1
1
1
1
1
1
1
1
1
1
1
1
1
1
1
1
1
1
1
1
1
1
1
1
1
1
1
1
1
1
1
1
1
1
1
1
1
1
1
1
1
1
1
1
1
1
1
1
1
1
1
1
1
1
1
1
1
1
1
1
1
1
1
1
1
1
1
1
1
1
1
1
1
1
1
1
1
1
1
1
1
1
1
1
1
1
1
1
1
1
1
1
1
1
1
1
1
1
1
1
1
2.93676
9.701
10.6961
10.738
10.8039
10.8278
10.8402
10.8374
10.8309
10.8345
10.8436
10.8855
10.9387
10.9992
11.0573
11.0981
11.1266
11.1487
11.1746
11.1988
11.2105
11.2177
11.2214
11.2261
11.2275
11.2399
11.2604
11.2879
11.3263
11.3661
11.4036
11.4404
11.4785
11.5196
11.5669
11.6202
11.6685
11.6985
11.712
11.7111
11.6958
11.6706
11.6522
11.6487
11.6601
11.6944
11.7479
11.8018
11.8435
11.8716
11.8884
11.8978
11.9045
11.9125
11.9251
11.9444
11.9715
12.0017
12.0262
12.0405
12.0434
12.0353
12.0218
12.0095
12.0023
12.0014
12.0055
12.0111
12.0146
12.0124
12.0052
11.9978
11.9993
12.017
12.0505
12.0964
12.1386
12.1661
12.1854
12.1976
12.2042
12.2042
12.1998
12.1888
12.1898
1
1
1
1
1
1
1
1
1
1
1
1
1
1
1
1
1
1
1
1
1
1
1
1
1
1
1
1
1
1
1
1
1
1
1
1
1
1
1
1
1
1
1
1
1
1
1
1
1
1
1
1
1
1
1
1
1
1
1
1
1
1
1
1
1
1
1
1
1
1
1
1
1
1
1
1
1
1
1
1
1
1
1
1
1
1
1
1
1
1
1
1
1
1
1
1
1
1
1
1
1
1
1
1
1
1
1
2.68733
9.52993
10.6973
10.7359
10.7926
10.8214
10.8347
10.8321
10.8276
10.8318
10.8449
10.8829
10.9343
10.9937
11.0478
11.0875
11.115
11.1392
11.1679
11.1936
11.2055
11.2134
11.218
11.2201
11.2238
11.2335
11.2516
11.2771
11.3158
11.3604
11.4021
11.4421
11.48
11.5191
11.5622
11.6118
11.6582
11.6884
11.7037
11.7045
11.6904
11.6656
11.6466
11.6425
11.653
11.6858
11.7386
11.7931
11.8354
11.8638
11.8801
11.8886
11.8945
11.9023
11.9159
11.9368
11.9654
11.9966
12.0213
12.035
12.0371
12.0284
12.0144
12.0018
11.9939
11.9922
11.9959
12.0017
12.0056
12.004
11.9973
11.9906
11.9927
12.0107
12.0449
12.0893
12.1299
12.1578
12.177
12.1887
12.1943
12.1943
12.1913
12.1825
12.1835
1
1
1
1
1
1
1
1
1
1
1
1
1
1
1
1
1
1
1
1
1
1
1
1
1
1
1
1
1
1
1
1
1
1
1
1
1
1
1
1
1
1
1
1
1
1
1
1
1
1
1
1
1
1
1
1
1
1
1
1
1
1
1
1
1
1
1
1
1
1
1
1
1
1
1
1
1
1
1
1
1
1
1
1
1
1
1
1
1
1
1
1
1
1
1
1
1
1
1
1
1
1
1
1
1
1
1
2.4403
9.31778
10.6945
10.7333
10.7812
10.8141
10.8297
10.833
10.8303
10.8258
10.846
10.8788
10.927
10.9854
11.037
11.0768
11.1057
11.1326
11.1615
11.1861
11.1982
11.2077
11.2138
11.2133
11.2194
11.2264
11.2406
11.2664
11.3087
11.3581
11.4035
11.445
11.4818
11.5183
11.5566
11.6029
11.6479
11.6784
11.6945
11.6964
11.6834
11.6597
11.6411
11.6369
11.6464
11.6767
11.7276
11.7817
11.8249
11.8547
11.8723
11.8813
11.8867
11.8931
11.9057
11.9264
11.956
11.9889
12.0152
12.0297
12.032
12.0227
12.0075
11.9936
11.9842
11.9814
11.985
11.9915
11.9965
11.9957
11.9896
11.9832
11.9852
12.0029
12.0379
12.082
12.1224
12.1515
12.1694
12.178
12.1808
12.1802
12.1804
12.1769
12.1804
1
1
1
1
1
1
1
1
1
1
1
1
1
1
1
1
1
1
1
1
1
1
1
1
1
1
1
1
1
1
1
1
1
1
1
1
1
1
1
1
1
1
1
1
1
1
1
1
1
1
1
1
1
1
1
1
1
1
1
1
1
1
1
1
1
1
1
1
1
1
1
1
1
1
1
1
1
1
1
1
1
1
1
1
1
1
1
1
1
1
1
1
1
1
1
1
1
1
1
1
1
1
1
1
1
1
1
2.20472
9.06976
10.6774
10.7256
10.7769
10.8071
10.8262
10.8378
10.833
10.8224
10.8437
10.8732
10.9176
10.9747
11.0259
11.0673
11.0984
11.1283
11.1555
11.1765
11.1887
11.2006
11.2094
11.2058
11.2136
11.2178
11.2278
11.2567
11.3047
11.3587
11.407
11.4485
11.4834
11.5165
11.5501
11.5941
11.6388
11.6698
11.6859
11.6875
11.6751
11.6528
11.6355
11.6321
11.6409
11.6682
11.7161
11.7685
11.8117
11.8435
11.8639
11.8749
11.8808
11.8861
11.8961
11.9144
11.943
11.977
12.006
12.0231
12.0273
12.0183
12.0018
11.9856
11.9737
11.9694
11.9729
11.9805
11.9869
11.9873
11.9816
11.9751
11.9765
11.9938
12.0294
12.0742
12.116
12.1466
12.1624
12.1659
12.1645
12.1635
12.1676
12.1713
12.1792
1
1
1
1
1
1
1
1
1
1
1
1
1
1
1
1
1
1
1
1
1
1
1
1
1
1
1
1
1
1
1
1
1
1
1
1
1
1
1
1
1
1
1
1
1
1
1
1
1
1
1
1
1
1
1
1
1
1
1
1
1
1
1
1
1
1
1
1
1
1
1
1
1
1
1
1
1
1
1
1
1
1
1
1
1
1
1
1
1
1
1
1
1
1
1
1
1
1
1
1
1
1
1
1
1
1
1
1.98677
8.78675
10.6497
10.709
10.7727
10.8051
10.8257
10.8376
10.8329
10.8228
10.8394
10.866
10.907
10.9633
11.0157
11.0591
11.0919
11.123
11.1485
11.1654
11.1786
11.193
11.2036
11.1992
11.2054
11.2066
11.215
11.2483
11.3022
11.3604
11.411
11.4515
11.4835
11.5128
11.5425
11.5857
11.6312
11.6629
11.6782
11.6786
11.6661
11.6451
11.6297
11.6275
11.6362
11.6609
11.7053
11.7549
11.7972
11.83
11.8534
11.8678
11.8757
11.8807
11.8882
11.9027
11.9281
11.9613
11.9927
12.0138
12.0217
12.0147
11.9973
11.9784
11.9635
11.957
11.9601
11.9687
11.9766
11.9783
11.973
11.966
11.9666
11.9837
12.0199
12.0658
12.1101
12.142
12.1552
12.1532
12.1469
12.1455
12.1538
12.1646
12.1777
1
1
1
1
1
1
1
1
1
1
1
1
1
1
1
1
1
1
1
1
1
1
1
1
1
1
1
1
1
1
1
1
1
1
1
1
1
1
1
1
1
1
1
1
1
1
1
1
1
1
1
1
1
1
1
1
1
1
1
1
1
1
1
1
1
1
1
1
1
1
1
1
1
1
1
1
1
1
1
1
1
1
1
1
1
1
1
1
1
1
1
1
1
1
1
1
1
1
1
1
1
1
1
1
1
1
1
1.78003
8.45882
10.6156
10.6941
10.7679
10.8082
10.8253
10.8314
10.8297
10.8227
10.8344
10.859
10.8977
10.9526
11.007
11.0516
11.0862
11.1152
11.1382
11.153
11.1695
11.1868
11.1957
11.1941
11.1943
11.1933
11.2043
11.2415
11.3008
11.3617
11.4135
11.4522
11.4806
11.5059
11.5333
11.5771
11.6241
11.6566
11.6712
11.67
11.6572
11.6371
11.6232
11.6223
11.6314
11.6543
11.6957
11.7426
11.783
11.8154
11.8403
11.8579
11.869
11.8752
11.8813
11.8925
11.9137
11.9441
11.9762
12.0012
12.0139
12.0101
11.9929
11.9719
11.9539
11.945
11.9473
11.9564
11.9652
11.968
11.9631
11.9556
11.9556
11.9731
12.0098
12.0569
12.1035
12.1362
12.147
12.1403
12.13
12.1281
12.1395
12.1559
12.1735
1
1
1
1
1
1
1
1
1
1
1
1
1
1
1
1
1
1
1
1
1
1
1
1
1
1
1
1
1
1
1
1
1
1
1
1
1
1
1
1
1
1
1
1
1
1
1
1
1
1
1
1
1
1
1
1
1
1
1
1
1
1
1
1
1
1
1
1
1
1
1
1
1
1
1
1
1
1
1
1
1
1
1
1
1
1
1
1
1
1
1
1
1
1
1
1
1
1
1
1
1
1
1
1
1
1
1
1.57556
8.08805
10.5997
10.6875
10.761
10.8059
10.823
10.8291
10.8255
10.8197
10.828
10.8513
10.8886
10.9442
11.0007
11.0451
11.0806
11.1059
11.1237
11.1378
11.1607
11.181
11.1866
11.1894
11.1831
11.1799
11.1964
11.2383
11.2997
11.3617
11.4132
11.4495
11.474
11.496
11.5226
11.5677
11.6159
11.6493
11.6638
11.6618
11.649
11.6292
11.6158
11.6153
11.6248
11.6468
11.6864
11.7317
11.7709
11.8016
11.8259
11.8447
11.8586
11.8674
11.874
11.8834
11.9015
11.9285
11.9593
11.9864
12.003
12.0031
11.9872
11.9653
11.945
11.9338
11.9349
11.9437
11.9528
11.9561
11.9514
11.9439
11.944
11.9623
11.9997
12.0476
12.0956
12.1281
12.1371
12.1277
12.1153
12.1131
12.1258
12.1448
12.1654
1
1
1
1
1
1
1
1
1
1
1
1
1
1
1
1
1
1
1
1
1
1
1
1
1
1
1
1
1
1
1
1
1
1
1
1
1
1
1
1
1
1
1
1
1
1
1
1
1
1
1
1
1
1
1
1
1
1
1
1
1
1
1
1
1
1
1
1
1
1
1
1
1
1
1
1
1
1
1
1
1
1
1
1
1
1
1
1
1
1
1
1
1
1
1
1
1
1
1
1
1
1
1
1
1
1
1
1.34292
7.60785
10.6141
10.7152
10.7701
10.8062
10.8261
10.8304
10.8212
10.8133
10.8214
10.8436
10.8802
10.9382
10.9947
11.0389
11.0724
11.0953
11.1092
11.1235
11.1509
11.1743
11.1772
11.1812
11.172
11.1709
11.1927
11.2385
11.2984
11.3601
11.4097
11.4433
11.4645
11.4844
11.5115
11.5572
11.6057
11.6395
11.655
11.6538
11.6419
11.622
11.6076
11.6058
11.6147
11.6364
11.6761
11.7219
11.7612
11.7907
11.8125
11.8296
11.8439
11.8551
11.8639
11.8741
11.891
11.9159
11.9448
11.9715
11.9899
11.993
11.9788
11.9573
11.9359
11.9232
11.9231
11.9309
11.9394
11.9424
11.9377
11.931
11.9324
11.9521
11.9901
12.038
12.0855
12.1171
12.1252
12.1155
12.1032
12.101
12.1132
12.1315
12.1525
1
1
1
1
1
1
1
1
1
1
1
1
1
1
1
1
1
1
1
1
1
1
1
1
1
1
1
1
1
1
1
1
1
1
1
1
1
1
1
1
1
1
1
1
1
1
1
1
1
1
1
1
1
1
1
1
1
1
1
1
1
1
1
1
1
1
1
1
1
1
1
1
1
1
1
1
1
1
1
1
1
1
1
1
1
1
1
1
1
1
1
1
1
1
1
1
1
1
1
1
1
1
1
1
1
1
1
1.09496
7.02942
10.6517
10.7643
10.7879
10.8114
10.8205
10.823
10.8157
10.8067
10.8169
10.8365
10.8722
10.9313
10.9878
11.032
11.0616
11.0815
11.0944
11.1143
11.1416
11.1644
11.1693
11.1687
11.1625
11.1687
11.1937
11.241
11.2967
11.3558
11.403
11.4341
11.4538
11.4732
11.5013
11.5465
11.5936
11.6271
11.6444
11.6459
11.6364
11.6164
11.5994
11.594
11.6005
11.6217
11.6627
11.7112
11.7528
11.7826
11.8021
11.8153
11.8267
11.838
11.8492
11.8621
11.8805
11.9054
11.9334
11.9589
11.9768
11.9804
11.9677
11.9471
11.9258
11.9126
11.9116
11.918
11.925
11.9268
11.922
11.917
11.9209
11.9427
11.9812
12.0279
12.0733
12.1033
12.1113
12.1032
12.0929
12.0911
12.1015
12.1164
12.1352
1
1
1
1
1
1
1
1
1
1
1
1
1
1
1
1
1
1
1
1
1
1
1
1
1
1
1
1
1
1
1
1
1
1
1
1
1
1
1
1
1
1
1
1
1
1
1
1
1
1
1
1
1
1
1
1
1
1
1
1
1
1
1
1
1
1
1
1
1
1
1
1
1
1
1
1
1
1
1
1
1
1
1
1
1
1
1
1
1
1
1
1
1
1
1
1
1
1
1
1
1
1
1
1
1
1
1
1.00203
6.38765
10.6424
10.7608
10.7878
10.8122
10.8172
10.8163
10.8109
10.8001
10.8111
10.8298
10.8668
10.9241
10.9794
11.0206
11.0491
11.0667
11.0806
11.1059
11.1329
11.1519
11.1606
11.1569
11.1575
11.1712
11.1991
11.2441
11.2938
11.3479
11.3928
11.4228
11.4431
11.4636
11.4927
11.5362
11.5806
11.6133
11.6327
11.6381
11.632
11.6122
11.5922
11.5816
11.5837
11.6027
11.645
11.6977
11.7439
11.7765
11.795
11.8044
11.8108
11.8185
11.8296
11.8455
11.8675
11.895
11.9241
11.949
11.9652
11.9675
11.9545
11.9343
11.9138
11.9013
11.8999
11.9046
11.9094
11.9095
11.9048
11.9022
11.9097
11.934
11.9729
12.0174
12.0594
12.0872
12.0956
12.0903
12.0829
12.0817
12.0898
12.1006
12.1158
1
1
1
1
1
1
1
1
1
1
1
1
1
1
1
1
1
1
1
1
1
1
1
1
1
1
1
1
1
1
1
1
1
1
1
1
1
1
1
1
1
1
1
1
1
1
1
1
1
1
1
1
1
1
1
1
1
1
1
1
1
1
1
1
1
1
1
1
1
1
1
1
1
1
1
1
1
1
1
1
1
1
1
1
1
1
1
1
1
1
1
1
1
1
1
1
1
1
1
1
1
1
1
1
1
1
1
1
5.70204
10.5826
10.7566
10.7886
10.8141
10.8163
10.8112
10.8055
10.7945
10.8032
10.8228
10.8619
10.9165
10.9686
11.0068
11.0351
11.0526
11.0691
11.096
11.1227
11.1392
11.1492
11.1505
11.16
11.1766
11.2068
11.2459
11.2877
11.3354
11.3783
11.4094
11.4325
11.4551
11.4849
11.5264
11.5678
11.5999
11.6214
11.6307
11.628
11.6087
11.5862
11.5705
11.5669
11.5818
11.6234
11.6797
11.7321
11.7698
11.7898
11.797
11.7984
11.8007
11.8081
11.8242
11.8497
11.8817
11.9142
11.9403
11.9556
11.9557
11.941
11.92
11.9001
11.8887
11.8872
11.8903
11.8927
11.891
11.8868
11.8871
11.8988
11.9259
11.9645
12.0062
12.0444
12.0699
12.0786
12.076
12.0715
12.0711
12.0774
12.0848
12.0961
1
1
1
1
1
1
1
1
1
1
1
1
1
1
1
1
1
1
1
1
1
1
1
1
1
1
1
1
1
1
1
1
1
1
1
1
1
1
1
1
1
1
1
1
1
1
1
1
1
1
1
1
1
1
1
1
1
1
1
1
1
1
1
1
1
1
1
1
1
1
1
1
1
1
1
1
1
1
1
1
1
1
1
1
1
1
1
1
1
1
1
1
1
1
1
1
1
1
1
1
1
1
1
1
1
1
1
1
5.04012
10.4607
10.7499
10.7862
10.8128
10.8132
10.8056
10.7982
10.7885
10.7936
10.8145
10.854
10.9062
10.9547
10.9912
11.0187
11.0377
11.059
11.0846
11.112
11.1287
11.1393
11.1503
11.1666
11.184
11.2139
11.2442
11.2779
11.3192
11.3607
11.3934
11.4202
11.4451
11.4753
11.5156
11.5553
11.5878
11.6112
11.6237
11.6234
11.6045
11.5804
11.561
11.5524
11.5621
11.6007
11.6578
11.7156
11.7593
11.7835
11.7916
11.7899
11.787
11.7888
11.8015
11.8272
11.863
11.9008
11.9305
11.9465
11.9454
11.9285
11.9056
11.8856
11.8748
11.873
11.8745
11.8747
11.8716
11.8687
11.8721
11.8881
11.9176
11.9554
11.9941
12.0288
12.0521
12.0607
12.0599
12.0575
12.058
12.0635
12.0696
12.078
1
1
1
1
1
1
1
1
1
1
1
1
1
1
1
1
1
1
1
1
1
1
1
1
1
1
1
1
1
1
1
1
1
1
1
1
1
1
1
1
1
1
1
1
1
1
1
1
1
1
1
1
1
1
1
1
1
1
1
1
1
1
1
1
1
1
1
1
1
1
1
1
1
1
1
1
1
1
1
1
1
1
1
1
1
1
1
1
1
1
1
1
1
1
1
1
1
1
1
1
1
1
1
1
1
1
1
1
4.4177
10.2841
10.7306
10.7732
10.8037
10.8061
10.7978
10.7886
10.7791
10.7821
10.8021
10.8418
10.8926
10.9381
10.9749
11.0013
11.0229
11.0481
11.0739
11.1025
11.1222
11.1376
11.1562
11.1732
11.1907
11.2156
11.2376
11.2658
11.3031
11.3431
11.3762
11.4058
11.4316
11.4621
11.5023
11.5425
11.5771
11.6021
11.6162
11.617
11.5981
11.5735
11.5528
11.5411
11.5458
11.5807
11.635
11.6944
11.7426
11.7726
11.7849
11.7836
11.7775
11.7743
11.7814
11.8032
11.8393
11.8816
11.9165
11.9357
11.9354
11.9171
11.8923
11.8713
11.8599
11.8573
11.857
11.8555
11.8522
11.851
11.8578
11.8779
11.9088
11.9448
11.9807
12.0126
12.0342
12.0423
12.0419
12.0404
12.0417
12.0477
12.0551
12.0624
1
1
1
1
1
1
1
1
1
1
1
1
1
1
1
1
1
1
1
1
1
1
1
1
1
1
1
1
1
1
1
1
1
1
1
1
1
1
1
1
1
1
1
1
1
1
1
1
1
1
1
1
1
1
1
1
1
1
1
1
1
1
1
1
1
1
1
1
1
1
1
1
1
1
1
1
1
1
1
1
1
1
1
1
1
1
1
1
1
1
1
1
1
1
1
1
1
1
1
1
1
1
1
1
1
1
1
1
3.84675
10.0501
10.7012
10.7534
10.7865
10.7908
10.785
10.7774
10.7707
10.7718
10.789
10.8275
10.8756
10.9212
10.9587
10.9852
11.0096
11.0374
11.0656
11.0961
11.1221
11.1438
11.1651
11.177
11.192
11.2096
11.2265
11.2522
11.2899
11.3298
11.3616
11.3907
11.415
11.4449
11.4848
11.5279
11.5669
11.5937
11.6084
11.6084
11.589
11.5643
11.5436
11.5315
11.534
11.5645
11.6144
11.6711
11.72
11.7548
11.7732
11.7764
11.7711
11.7648
11.7662
11.7819
11.8141
11.857
11.8966
11.9205
11.9235
11.9061
11.8804
11.8578
11.8446
11.8402
11.8378
11.8353
11.8331
11.8344
11.8445
11.8679
11.8989
11.9323
11.9655
11.9954
12.0159
12.0232
12.0221
12.0202
12.0223
12.0301
12.0408
12.049
1
1
1
1
1
1
1
1
1
1
1
1
1
1
1
1
1
1
1
1
1
1
1
1
1
1
1
1
1
1
1
1
1
1
1
1
1
1
1
1
1
1
1
1
1
1
1
1
1
1
1
1
1
1
1
1
1
1
1
1
1
1
1
1
1
1
1
1
1
1
1
1
1
1
1
1
1
1
1
1
1
1
1
1
1
1
1
1
1
1
1
1
1
1
1
1
1
1
1
1
1
1
1
1
1
1
1
1
3.33124
9.77204
10.6672
10.7242
10.7639
10.773
10.7726
10.7686
10.7645
10.7637
10.7787
10.8095
10.8571
10.9054
10.9449
10.9734
10.9995
11.0287
11.0604
11.0944
11.1267
11.1527
11.1726
11.1773
11.185
11.1959
11.2116
11.2391
11.281
11.3213
11.3528
11.3779
11.3981
11.4252
11.4646
11.5111
11.5554
11.5849
11.5997
11.598
11.5773
11.5523
11.5325
11.5223
11.5251
11.5521
11.5977
11.649
11.6944
11.73
11.7541
11.7649
11.7644
11.7583
11.7563
11.7654
11.791
11.8302
11.8711
11.8994
11.9075
11.8939
11.8691
11.845
11.8293
11.8219
11.8171
11.8142
11.8144
11.8191
11.8328
11.8581
11.8878
11.918
11.9484
11.9768
11.9965
12.0031
12.001
11.9983
12.001
12.0111
12.0259
12.0362
1
1
1
1
1
1
1
1
1
1
1
1
1
1
1
1
1
1
1
1
1
1
1
1
1
1
1
1
1
1
1
1
1
1
1
1
1
1
1
1
1
1
1
1
1
1
1
1
1
1
1
1
1
1
1
1
1
1
1
1
1
1
1
1
1
1
1
1
1
1
1
1
1
1
1
1
1
1
1
1
1
1
1
1
1
1
1
1
1
1
1
1
1
1
1
1
1
1
1
1
1
1
1
1
1
1
1
1
2.84008
9.45332
10.6411
10.6911
10.7386
10.7545
10.7581
10.758
10.7564
10.7577
10.7676
10.793
10.8405
10.8915
10.935
10.9671
10.9953
11.0258
11.06
11.0982
11.1311
11.1597
11.1739
11.1729
11.1701
11.1746
11.1922
11.2256
11.2733
11.316
11.3483
11.3688
11.3838
11.4064
11.4443
11.4928
11.5416
11.5744
11.59
11.5866
11.5641
11.5382
11.5194
11.5119
11.5163
11.5416
11.5845
11.6297
11.669
11.7015
11.7282
11.7461
11.7539
11.7525
11.7498
11.7538
11.7722
11.805
11.8431
11.8736
11.8865
11.8788
11.8568
11.8324
11.8139
11.8026
11.7951
11.7925
11.7958
11.8052
11.8229
11.8486
11.8757
11.9018
11.929
11.9555
11.9746
11.9813
11.979
11.976
11.9794
11.9914
12.0095
12.0221
1
1
1
1
1
1
1
1
1
1
1
1
1
1
1
1
1
1
1
1
1
1
1
1
1
1
1
1
1
1
1
1
1
1
1
1
1
1
1
1
1
1
1
1
1
1
1
1
1
1
1
1
1
1
1
1
1
1
1
1
1
1
1
1
1
1
1
1
1
1
1
1
1
1
1
1
1
1
1
1
1
1
1
1
1
1
1
1
1
1
1
1
1
1
1
1
1
1
1
1
1
1
1
1
1
1
1
1
2.36669
9.08935
10.6326
10.6713
10.7218
10.74
10.7459
10.7498
10.751
10.7535
10.7623
10.7812
10.8275
10.8813
10.9283
10.9649
10.9962
11.0277
11.0629
11.1007
11.1317
11.1596
11.1684
11.165
11.1522
11.1503
11.1686
11.2087
11.2618
11.3087
11.3438
11.362
11.3727
11.3917
11.4264
11.4743
11.5251
11.5611
11.5781
11.5741
11.5506
11.5235
11.5045
11.4992
11.506
11.5315
11.5732
11.6134
11.6462
11.6734
11.6986
11.7207
11.7365
11.7433
11.7438
11.7459
11.7574
11.7833
11.8162
11.8452
11.8616
11.86
11.8421
11.8187
11.7977
11.7822
11.772
11.77
11.7772
11.7923
11.8144
11.8397
11.8631
11.8843
11.9073
11.931
11.9492
11.9572
11.9566
11.9549
11.9591
11.9718
11.991
12.0049
1
1
1
1
1
1
1
1
1
1
1
1
1
1
1
1
1
1
1
1
1
1
1
1
1
1
1
1
1
1
1
1
1
1
1
1
1
1
1
1
1
1
1
1
1
1
1
1
1
1
1
1
1
1
1
1
1
1
1
1
1
1
1
1
1
1
1
1
1
1
1
1
1
1
1
1
1
1
1
1
1
1
1
1
1
1
1
1
1
1
1
1
1
1
1
1
1
1
1
1
1
1
1
1
1
1
1
1
1.92941
8.65147
10.6377
10.6601
10.7094
10.7298
10.7372
10.7426
10.7467
10.7487
10.7575
10.7751
10.8178
10.8712
10.921
10.9626
10.9977
11.0302
11.0639
11.0978
11.127
11.1516
11.1599
11.1562
11.137
11.1282
11.1442
11.1856
11.2414
11.2941
11.3336
11.3536
11.3632
11.3812
11.4121
11.4572
11.5072
11.5452
11.5637
11.5605
11.5375
11.5097
11.4896
11.4848
11.4935
11.5195
11.5607
11.5984
11.6263
11.6479
11.6691
11.6914
11.713
11.7276
11.7345
11.7382
11.746
11.7648
11.792
11.8179
11.8354
11.8383
11.8247
11.8031
11.7799
11.76
11.7475
11.7468
11.7585
11.7802
11.8066
11.8311
11.8501
11.8661
11.8836
11.9028
11.9199
11.9303
11.9338
11.9357
11.9411
11.953
11.97
11.9832
1
1
1
1
1
1
1
1
1
1
1
1
1
1
1
1
1
1
1
1
1
1
1
1
1
1
1
1
1
1
1
1
1
1
1
1
1
1
1
1
1
1
1
1
1
1
1
1
1
1
1
1
1
1
1
1
1
1
1
1
1
1
1
1
1
1
1
1
1
1
1
1
1
1
1
1
1
1
1
1
1
1
1
1
1
1
1
1
1
1
1
1
1
1
1
1
1
1
1
1
1
1
1
1
1
1
1
1
1.56286
8.11976
10.6474
10.6494
10.6978
10.7217
10.7343
10.7411
10.7415
10.7416
10.7483
10.7656
10.8067
10.862
10.9152
10.9602
10.9967
11.028
11.0587
11.0889
11.1168
11.1388
11.1489
11.1484
11.1298
11.1162
11.1268
11.1628
11.2149
11.2703
11.314
11.3385
11.3525
11.3729
11.4005
11.442
11.4895
11.5277
11.5473
11.5454
11.5246
11.4969
11.4751
11.4691
11.4785
11.5042
11.5452
11.5829
11.6087
11.6263
11.6431
11.663
11.6853
11.7056
11.7195
11.7271
11.7345
11.7483
11.7708
11.7932
11.8101
11.8155
11.8057
11.7851
11.76
11.7358
11.7215
11.723
11.7399
11.768
11.7985
11.822
11.8368
11.8475
11.8581
11.8713
11.8866
11.9004
11.9105
11.9182
11.9255
11.9349
11.9466
11.9566
1
1
1
1
1
1
1
1
1
1
1
1
1
1
1
1
1
1
1
1
1
1
1
1
1
1
1
1
1
1
1
1
1
1
1
1
1
1
1
1
1
1
1
1
1
1
1
1
1
1
1
1
1
1
1
1
1
1
1
1
1
1
1
1
1
1
1
1
1
1
1
1
1
1
1
1
1
1
1
1
1
1
1
1
1
1
1
1
1
1
1
1
1
1
1
1
1
1
1
1
1
1
1
1
1
1
1
1
1.2718
7.52091
10.6038
10.6424
10.6898
10.7154
10.7272
10.7326
10.7331
10.7338
10.7402
10.7568
10.7973
10.8527
10.9065
10.9518
10.9869
11.0166
11.0453
11.0743
11.1022
11.1245
11.1367
11.1388
11.126
11.1134
11.1201
11.147
11.1919
11.243
11.2875
11.3165
11.3385
11.3637
11.3902
11.4288
11.4731
11.5097
11.5298
11.5292
11.5116
11.485
11.4612
11.4529
11.4613
11.4854
11.5259
11.5657
11.5921
11.6081
11.6213
11.6376
11.6577
11.6792
11.6971
11.7097
11.7193
11.7315
11.7501
11.7706
11.787
11.794
11.7865
11.7656
11.7383
11.7099
11.6942
11.6989
11.7213
11.7551
11.7886
11.8114
11.8228
11.8281
11.8309
11.8374
11.8504
11.8682
11.8864
11.9015
11.9111
11.9171
11.9214
11.9257
1
1
1
1
1
1
1
1
1
1
1
1
1
1
1
1
1
1
1
1
1
1
1
1
1
1
1
1
1
1
1
1
1
1
1
1
1
1
1
1
1
1
1
1
1
1
1
1
1
1
1
1
1
1
1
1
1
1
1
1
1
1
1
1
1
1
1
1
1
1
1
1
1
1
1
1
1
1
1
1
1
1
1
1
1
1
1
1
1
1
1
1
1
1
1
1