/*--------------------------------*- C++ -*----------------------------------*\
  =========                 |
  \\      /  F ield         | OpenFOAM: The Open Source CFD Toolbox
   \\    /   O peration     | Website:  https://openfoam.org
    \\  /    A nd           | Version:  7
     \\/     M anipulation  |
\*---------------------------------------------------------------------------*/
FoamFile
{
    version     2.0;
    format      ascii;
    class       volScalarField;
    location    "1.1";
    object      rho;
}
// * * * * * * * * * * * * * * * * * * * * * * * * * * * * * * * * * * * * * //

dimensions      [1 -3 0 0 0 0 0];

internalField   nonuniform List<scalar> 
258048
(
1.40001
1.40001
1.40001
1.40001
1.40001
1.40001
1.40001
1.40001
1.40001
1.40001
1.40001
1.40001
1.40001
1.40001
1.40001
1.40001
1.40001
1.40001
1.40001
1.40001
1.40001
1.40001
1.40001
1.40001
1.40001
1.40001
1.40001
1.40001
1.40001
1.40001
1.40001
1.40001
1.40001
1.40001
1.40001
1.40001
1.40001
1.40001
1.40001
1.40001
1.40001
1.40001
1.40001
1.40001
1.40001
1.40001
1.40001
1.40001
1.40001
1.40001
1.40001
1.40001
1.40001
1.40001
1.40001
1.40001
1.40001
1.40001
1.40001
1.40001
1.40001
1.40001
1.40001
1.40001
1.40001
1.40001
1.40001
1.40001
1.40001
1.40001
1.40001
1.40001
1.40001
1.40001
1.40001
1.40001
1.40001
1.40001
1.40001
1.40001
1.40001
1.40001
1.40001
1.40001
1.40001
1.40001
1.40001
1.40001
1.40001
1.40001
1.40001
1.40001
1.40001
1.40001
1.40001
1.40001
1.40001
1.40001
1.40001
1.40001
1.40001
1.40001
1.40001
1.40001
1.40001
1.40001
1.40001
3.2489
5.39099
5.47133
5.46657
5.48088
5.49259
5.50314
5.51204
5.52762
5.54802
5.56898
5.58911
5.60947
5.62144
5.62254
5.61616
5.60972
5.61058
5.61831
5.63104
5.64787
5.66424
5.67492
5.67649
5.6738
5.67155
5.67082
5.67586
5.68938
5.70429
5.71561
5.7232
5.73244
5.7464
5.76482
5.7846
5.80145
5.81203
5.81653
5.81497
5.80838
5.79979
5.79402
5.79295
5.79587
5.80587
5.82137
5.83772
5.8524
5.86416
5.87197
5.87527
5.87507
5.873
5.87132
5.87263
5.8787
5.88859
5.89769
5.90182
5.8994
5.89105
5.88022
5.87127
5.86721
5.86756
5.87019
5.87273
5.87279
5.8688
5.86119
5.85285
5.84805
5.84924
5.85634
5.86635
5.87118
5.86007
5.8214
5.74425
5.62541
5.4837
5.35881
5.28373
5.2619
1.40001
1.40001
1.40001
1.40001
1.40001
1.40001
1.40001
1.40001
1.40001
1.40001
1.40001
1.40001
1.40001
1.40001
1.40001
1.40001
1.40001
1.40001
1.40001
1.40001
1.40001
1.40001
1.40001
1.40001
1.40001
1.40001
1.40001
1.40001
1.40001
1.40001
1.40001
1.40001
1.40001
1.40001
1.40001
1.40001
1.40001
1.40001
1.40001
1.40001
1.40001
1.40001
1.40001
1.40001
1.40001
1.40001
1.40001
1.40001
1.40001
1.40001
1.40001
1.40001
1.40001
1.40001
1.40001
1.40001
1.40001
1.40001
1.40001
1.40001
1.40001
1.40001
1.40001
1.40001
1.40001
1.40001
1.40001
1.40001
1.40001
1.40001
1.40001
1.40001
1.40001
1.40001
1.40001
1.40001
1.40001
1.40001
1.40001
1.40001
1.40001
1.40001
1.40001
1.40001
1.40001
1.40001
1.40001
1.40001
1.40001
1.40001
1.40001
1.40001
1.40001
1.40001
1.40001
1.40001
1.40001
1.40001
1.40001
1.40001
1.40001
1.40001
1.40001
1.40001
1.40001
1.40001
1.40001
3.23433
5.39362
5.46927
5.46859
5.48205
5.49335
5.50306
5.5121
5.52777
5.54839
5.56932
5.58955
5.6096
5.62092
5.62161
5.61496
5.60865
5.6099
5.61811
5.63128
5.64827
5.66458
5.67486
5.67614
5.6735
5.67121
5.67068
5.67581
5.6893
5.70415
5.71543
5.72306
5.73249
5.74657
5.76506
5.78478
5.80143
5.8117
5.81596
5.81435
5.80785
5.79934
5.79362
5.79254
5.79543
5.80547
5.82104
5.83752
5.85235
5.86421
5.87212
5.87556
5.87546
5.87337
5.87151
5.87239
5.87792
5.8875
5.89672
5.90129
5.8994
5.89152
5.88093
5.87178
5.86722
5.86713
5.86941
5.87186
5.87211
5.86849
5.86133
5.85341
5.84884
5.8499
5.85635
5.86537
5.86943
5.85833
5.82053
5.74439
5.62602
5.48418
5.35876
5.28289
5.25996
1.40001
1.40001
1.40001
1.40001
1.40001
1.40001
1.40001
1.40001
1.40001
1.40001
1.40001
1.40001
1.40001
1.40001
1.40001
1.40001
1.40001
1.40001
1.40001
1.40001
1.40001
1.40001
1.40001
1.40001
1.40001
1.40001
1.40001
1.40001
1.40001
1.40001
1.40001
1.40001
1.40001
1.40001
1.40001
1.40001
1.40001
1.40001
1.40001
1.40001
1.40001
1.40001
1.40001
1.40001
1.40001
1.40001
1.40001
1.40001
1.40001
1.40001
1.40001
1.40001
1.40001
1.40001
1.40001
1.40001
1.40001
1.40001
1.40001
1.40001
1.40001
1.40001
1.40001
1.40001
1.40001
1.40001
1.40001
1.40001
1.40001
1.40001
1.40001
1.40001
1.40001
1.40001
1.40001
1.40001
1.40001
1.40001
1.40001
1.40001
1.40001
1.40001
1.40001
1.40001
1.40001
1.40001
1.40001
1.40001
1.40001
1.40001
1.40001
1.40001
1.40001
1.40001
1.40001
1.40001
1.40001
1.40001
1.40001
1.40001
1.40001
1.40001
1.40001
1.40001
1.40001
1.40001
1.40001
3.20803
5.39714
5.4677
5.46942
5.48227
5.4934
5.50254
5.51199
5.52795
5.54871
5.56954
5.58972
5.60928
5.61985
5.62001
5.61304
5.60704
5.609
5.61792
5.63171
5.64886
5.66492
5.67456
5.67536
5.67289
5.67059
5.67019
5.67552
5.6891
5.70392
5.7151
5.72262
5.73236
5.74677
5.76541
5.7851
5.80158
5.8115
5.81544
5.81368
5.80717
5.7987
5.79302
5.79193
5.79479
5.80484
5.82048
5.83703
5.85198
5.86397
5.87202
5.87565
5.8758
5.87389
5.87204
5.87256
5.87739
5.88624
5.89516
5.8999
5.89862
5.8915
5.88139
5.87215
5.86707
5.86644
5.86825
5.87046
5.87085
5.8677
5.86118
5.85385
5.84958
5.85047
5.85614
5.86407
5.86733
5.8563
5.81938
5.74387
5.62553
5.48337
5.35755
5.28132
5.25728
1.40001
1.40001
1.40001
1.40001
1.40001
1.40001
1.40001
1.40001
1.40001
1.40001
1.40001
1.40001
1.40001
1.40001
1.40001
1.40001
1.40001
1.40001
1.40001
1.40001
1.40001
1.40001
1.40001
1.40001
1.40001
1.40001
1.40001
1.40001
1.40001
1.40001
1.40001
1.40001
1.40001
1.40001
1.40001
1.40001
1.40001
1.40001
1.40001
1.40001
1.40001
1.40001
1.40001
1.40001
1.40001
1.40001
1.40001
1.40001
1.40001
1.40001
1.40001
1.40001
1.40001
1.40001
1.40001
1.40001
1.40001
1.40001
1.40001
1.40001
1.40001
1.40001
1.40001
1.40001
1.40001
1.40001
1.40001
1.40001
1.40001
1.40001
1.40001
1.40001
1.40001
1.40001
1.40001
1.40001
1.40001
1.40001
1.40001
1.40001
1.40001
1.40001
1.40001
1.40001
1.40001
1.40001
1.40001
1.40001
1.40001
1.40001
1.40001
1.40001
1.40001
1.40001
1.40001
1.40001
1.40001
1.40001
1.40001
1.40001
1.40001
1.40001
1.40001
1.40001
1.40001
1.40001
1.40001
3.17552
5.39143
5.467
5.47036
5.48251
5.49394
5.50267
5.51266
5.52909
5.54968
5.56999
5.58955
5.60833
5.61792
5.61734
5.61005
5.60482
5.60796
5.61789
5.63238
5.64958
5.66512
5.67392
5.67426
5.67215
5.66995
5.66958
5.67509
5.68877
5.70347
5.71446
5.72192
5.73212
5.74703
5.7658
5.78548
5.80177
5.81133
5.81495
5.81305
5.80654
5.79808
5.79237
5.7912
5.79399
5.80403
5.8197
5.8363
5.8513
5.86339
5.87162
5.87551
5.87592
5.8742
5.87238
5.87267
5.87705
5.88527
5.89376
5.89841
5.89753
5.89128
5.88173
5.87246
5.86686
5.86563
5.86692
5.86884
5.86938
5.86672
5.86089
5.85424
5.85026
5.85081
5.85556
5.86235
5.86482
5.85374
5.81751
5.74212
5.62344
5.48089
5.35493
5.27888
5.25417
1.40001
1.40001
1.40001
1.40001
1.40001
1.40001
1.40001
1.40001
1.40001
1.40001
1.40001
1.40001
1.40001
1.40001
1.40001
1.40001
1.40001
1.40001
1.40001
1.40001
1.40001
1.40001
1.40001
1.40001
1.40001
1.40001
1.40001
1.40001
1.40001
1.40001
1.40001
1.40001
1.40001
1.40001
1.40001
1.40001
1.40001
1.40001
1.40001
1.40001
1.40001
1.40001
1.40001
1.40001
1.40001
1.40001
1.40001
1.40001
1.40001
1.40001
1.40001
1.40001
1.40001
1.40001
1.40001
1.40001
1.40001
1.40001
1.40001
1.40001
1.40001
1.40001
1.40001
1.40001
1.40001
1.40001
1.40001
1.40001
1.40001
1.40001
1.40001
1.40001
1.40001
1.40001
1.40001
1.40001
1.40001
1.40001
1.40001
1.40001
1.40001
1.40001
1.40001
1.40001
1.40001
1.40001
1.40001
1.40001
1.40001
1.40001
1.40001
1.40001
1.40001
1.40001
1.40001
1.40001
1.40001
1.40001
1.40001
1.40001
1.40001
1.40001
1.40001
1.40001
1.40001
1.40001
1.40001
3.13715
5.38088
5.46631
5.47017
5.48223
5.49405
5.50322
5.51416
5.53126
5.55126
5.57071
5.58932
5.60687
5.61502
5.61349
5.60607
5.60224
5.60694
5.618
5.6331
5.65021
5.66515
5.67318
5.67318
5.6715
5.66939
5.66889
5.6745
5.68822
5.70265
5.71345
5.72096
5.73175
5.74725
5.76609
5.78575
5.80192
5.8112
5.81458
5.81258
5.8061
5.7976
5.79177
5.79046
5.79313
5.8031
5.81877
5.83534
5.85031
5.86236
5.87064
5.87474
5.87542
5.874
5.87241
5.87277
5.87707
5.88486
5.89277
5.89702
5.89618
5.89044
5.8814
5.87238
5.86651
5.86481
5.86562
5.86719
5.86776
5.86546
5.86022
5.85424
5.85054
5.85071
5.85453
5.86054
5.86253
5.85139
5.81507
5.73877
5.61901
5.47608
5.3507
5.27567
5.25114
1.40001
1.40001
1.40001
1.40001
1.40001
1.40001
1.40001
1.40001
1.40001
1.40001
1.40001
1.40001
1.40001
1.40001
1.40001
1.40001
1.40001
1.40001
1.40001
1.40001
1.40001
1.40001
1.40001
1.40001
1.40001
1.40001
1.40001
1.40001
1.40001
1.40001
1.40001
1.40001
1.40001
1.40001
1.40001
1.40001
1.40001
1.40001
1.40001
1.40001
1.40001
1.40001
1.40001
1.40001
1.40001
1.40001
1.40001
1.40001
1.40001
1.40001
1.40001
1.40001
1.40001
1.40001
1.40001
1.40001
1.40001
1.40001
1.40001
1.40001
1.40001
1.40001
1.40001
1.40001
1.40001
1.40001
1.40001
1.40001
1.40001
1.40001
1.40001
1.40001
1.40001
1.40001
1.40001
1.40001
1.40001
1.40001
1.40001
1.40001
1.40001
1.40001
1.40001
1.40001
1.40001
1.40001
1.40001
1.40001
1.40001
1.40001
1.40001
1.40001
1.40001
1.40001
1.40001
1.40001
1.40001
1.40001
1.40001
1.40001
1.40001
1.40001
1.40001
1.40001
1.40001
1.40001
1.40001
3.09109
5.36727
5.46476
5.46875
5.48119
5.4939
5.50477
5.51694
5.53487
5.55379
5.5716
5.58898
5.60446
5.61082
5.60848
5.60139
5.59963
5.60614
5.61818
5.63366
5.65063
5.66507
5.67259
5.67241
5.67102
5.66881
5.66796
5.67357
5.68725
5.70137
5.71205
5.71989
5.73141
5.74746
5.76626
5.78581
5.80184
5.8109
5.81415
5.8122
5.80581
5.79727
5.79126
5.78974
5.79223
5.80208
5.81773
5.83424
5.84909
5.861
5.86916
5.87323
5.87405
5.87302
5.87187
5.87272
5.8773
5.88492
5.89228
5.89599
5.89483
5.88903
5.88034
5.87178
5.86597
5.86402
5.86449
5.8657
5.86616
5.86404
5.85921
5.85361
5.85002
5.84987
5.85306
5.85883
5.86088
5.84952
5.81207
5.73378
5.6123
5.46913
5.345
5.27171
5.24815
1.40001
1.40001
1.40001
1.40001
1.40001
1.40001
1.40001
1.40001
1.40001
1.40001
1.40001
1.40001
1.40001
1.40001
1.40001
1.40001
1.40001
1.40001
1.40001
1.40001
1.40001
1.40001
1.40001
1.40001
1.40001
1.40001
1.40001
1.40001
1.40001
1.40001
1.40001
1.40001
1.40001
1.40001
1.40001
1.40001
1.40001
1.40001
1.40001
1.40001
1.40001
1.40001
1.40001
1.40001
1.40001
1.40001
1.40001
1.40001
1.40001
1.40001
1.40001
1.40001
1.40001
1.40001
1.40001
1.40001
1.40001
1.40001
1.40001
1.40001
1.40001
1.40001
1.40001
1.40001
1.40001
1.40001
1.40001
1.40001
1.40001
1.40001
1.40001
1.40001
1.40001
1.40001
1.40001
1.40001
1.40001
1.40001
1.40001
1.40001
1.40001
1.40001
1.40001
1.40001
1.40001
1.40001
1.40001
1.40001
1.40001
1.40001
1.40001
1.40001
1.40001
1.40001
1.40001
1.40001
1.40001
1.40001
1.40001
1.40001
1.40001
1.40001
1.40001
1.40001
1.40001
1.40001
1.40001
3.03647
5.3508
5.46226
5.46633
5.4802
5.49431
5.50765
5.52072
5.5395
5.55694
5.57198
5.58794
5.60093
5.60574
5.60323
5.59682
5.59751
5.60592
5.61837
5.63395
5.6509
5.66509
5.67236
5.67208
5.67064
5.6681
5.66666
5.67221
5.68584
5.69968
5.71046
5.71901
5.7314
5.74788
5.76646
5.78565
5.80138
5.81017
5.8134
5.81168
5.80551
5.79698
5.79077
5.78897
5.79126
5.80094
5.81658
5.83306
5.84779
5.85951
5.86743
5.87127
5.87203
5.87123
5.87056
5.87217
5.8774
5.88513
5.89213
5.8953
5.89361
5.88743
5.87885
5.87073
5.86522
5.86325
5.86351
5.86439
5.8646
5.86248
5.85777
5.85221
5.84849
5.84815
5.85129
5.85741
5.8599
5.84795
5.80852
5.72742
5.60383
5.46057
5.33814
5.267
5.24504
1.40001
1.40001
1.40001
1.40001
1.40001
1.40001
1.40001
1.40001
1.40001
1.40001
1.40001
1.40001
1.40001
1.40001
1.40001
1.40001
1.40001
1.40001
1.40001
1.40001
1.40001
1.40001
1.40001
1.40001
1.40001
1.40001
1.40001
1.40001
1.40001
1.40001
1.40001
1.40001
1.40001
1.40001
1.40001
1.40001
1.40001
1.40001
1.40001
1.40001
1.40001
1.40001
1.40001
1.40001
1.40001
1.40001
1.40001
1.40001
1.40001
1.40001
1.40001
1.40001
1.40001
1.40001
1.40001
1.40001
1.40001
1.40001
1.40001
1.40001
1.40001
1.40001
1.40001
1.40001
1.40001
1.40001
1.40001
1.40001
1.40001
1.40001
1.40001
1.40001
1.40001
1.40001
1.40001
1.40001
1.40001
1.40001
1.40001
1.40001
1.40001
1.40001
1.40001
1.40001
1.40001
1.40001
1.40001
1.40001
1.40001
1.40001
1.40001
1.40001
1.40001
1.40001
1.40001
1.40001
1.40001
1.40001
1.40001
1.40001
1.40001
1.40001
1.40001
1.40001
1.40001
1.40001
1.40001
2.9728
5.33149
5.45856
5.46367
5.48009
5.49609
5.51174
5.52501
5.54421
5.55981
5.57114
5.58577
5.59645
5.60014
5.5982
5.59313
5.59624
5.60608
5.61822
5.63373
5.65089
5.6651
5.67246
5.67223
5.67039
5.66725
5.66505
5.67052
5.68413
5.69781
5.70895
5.71857
5.73196
5.74875
5.76689
5.78544
5.80057
5.80891
5.8121
5.81076
5.805
5.79656
5.79014
5.78807
5.79015
5.79968
5.81536
5.83187
5.8465
5.85801
5.86564
5.86916
5.86971
5.86892
5.86854
5.87084
5.87687
5.88504
5.89192
5.8947
5.8925
5.88586
5.87724
5.86943
5.86426
5.86237
5.86253
5.86314
5.86301
5.86072
5.85591
5.85017
5.84624
5.84583
5.84936
5.85624
5.85922
5.84634
5.80441
5.7202
5.5945
5.45127
5.33061
5.26152
5.24142
1.40001
1.40001
1.40001
1.40001
1.40001
1.40001
1.40001
1.40001
1.40001
1.40001
1.40001
1.40001
1.40001
1.40001
1.40001
1.40001
1.40001
1.40001
1.40001
1.40001
1.40001
1.40001
1.40001
1.40001
1.40001
1.40001
1.40001
1.40001
1.40001
1.40001
1.40001
1.40001
1.40001
1.40001
1.40001
1.40001
1.40001
1.40001
1.40001
1.40001
1.40001
1.40001
1.40001
1.40001
1.40001
1.40001
1.40001
1.40001
1.40001
1.40001
1.40001
1.40001
1.40001
1.40001
1.40001
1.40001
1.40001
1.40001
1.40001
1.40001
1.40001
1.40001
1.40001
1.40001
1.40001
1.40001
1.40001
1.40001
1.40001
1.40001
1.40001
1.40001
1.40001
1.40001
1.40001
1.40001
1.40001
1.40001
1.40001
1.40001
1.40001
1.40001
1.40001
1.40001
1.40001
1.40001
1.40001
1.40001
1.40001
1.40001
1.40001
1.40001
1.40001
1.40001
1.40001
1.40001
1.40001
1.40001
1.40001
1.40001
1.40001
1.40001
1.40001
1.40001
1.40001
1.40001
1.40001
2.89999
5.30906
5.45358
5.46191
5.48138
5.49902
5.51603
5.52943
5.54831
5.56176
5.56932
5.58257
5.59125
5.59397
5.5931
5.59028
5.59569
5.60625
5.61796
5.63352
5.65091
5.66517
5.67279
5.67282
5.67011
5.66606
5.66303
5.66841
5.68202
5.69575
5.70766
5.71869
5.73322
5.7502
5.76775
5.78543
5.79966
5.80736
5.81043
5.80945
5.80411
5.79581
5.78925
5.78696
5.78888
5.7983
5.8141
5.83073
5.84526
5.85649
5.86378
5.86699
5.86733
5.86646
5.86616
5.86884
5.87548
5.88416
5.89119
5.89388
5.89139
5.88447
5.87581
5.86817
5.86321
5.86135
5.86138
5.86178
5.86131
5.85869
5.85363
5.84761
5.84348
5.84319
5.84739
5.85513
5.85833
5.84426
5.79977
5.71273
5.58528
5.44213
5.32288
5.25526
5.23675
1.40001
1.40001
1.40001
1.40001
1.40001
1.40001
1.40001
1.40001
1.40001
1.40001
1.40001
1.40001
1.40001
1.40001
1.40001
1.40001
1.40001
1.40001
1.40001
1.40001
1.40001
1.40001
1.40001
1.40001
1.40001
1.40001
1.40001
1.40001
1.40001
1.40001
1.40001
1.40001
1.40001
1.40001
1.40001
1.40001
1.40001
1.40001
1.40001
1.40001
1.40001
1.40001
1.40001
1.40001
1.40001
1.40001
1.40001
1.40001
1.40001
1.40001
1.40001
1.40001
1.40001
1.40001
1.40001
1.40001
1.40001
1.40001
1.40001
1.40001
1.40001
1.40001
1.40001
1.40001
1.40001
1.40001
1.40001
1.40001
1.40001
1.40001
1.40001
1.40001
1.40001
1.40001
1.40001
1.40001
1.40001
1.40001
1.40001
1.40001
1.40001
1.40001
1.40001
1.40001
1.40001
1.40001
1.40001
1.40001
1.40001
1.40001
1.40001
1.40001
1.40001
1.40001
1.40001
1.40001
1.40001
1.40001
1.40001
1.40001
1.40001
1.40001
1.40001
1.40001
1.40001
1.40001
1.40001
2.81844
5.28287
5.44855
5.46139
5.48389
5.5027
5.51967
5.53428
5.55143
5.56235
5.56748
5.57869
5.58521
5.58697
5.58752
5.58777
5.59531
5.60603
5.61784
5.6337
5.65127
5.66533
5.67305
5.67352
5.66943
5.66435
5.66054
5.6658
5.67943
5.69352
5.70672
5.71951
5.73514
5.75211
5.76892
5.78554
5.79871
5.8057
5.80863
5.80795
5.80294
5.79472
5.78803
5.78558
5.78742
5.79683
5.81284
5.82962
5.84399
5.85482
5.86168
5.86463
5.86488
5.86403
5.86382
5.86663
5.8735
5.88243
5.88968
5.89256
5.89012
5.88324
5.87466
5.86705
5.86212
5.86014
5.85994
5.86013
5.85936
5.85639
5.85103
5.84477
5.84059
5.84059
5.84552
5.85391
5.85691
5.84144
5.7947
5.70555
5.57691
5.43378
5.31532
5.24824
5.23066
1.40001
1.40001
1.40001
1.40001
1.40001
1.40001
1.40001
1.40001
1.40001
1.40001
1.40001
1.40001
1.40001
1.40001
1.40001
1.40001
1.40001
1.40001
1.40001
1.40001
1.40001
1.40001
1.40001
1.40001
1.40001
1.40001
1.40001
1.40001
1.40001
1.40001
1.40001
1.40001
1.40001
1.40001
1.40001
1.40001
1.40001
1.40001
1.40001
1.40001
1.40001
1.40001
1.40001
1.40001
1.40001
1.40001
1.40001
1.40001
1.40001
1.40001
1.40001
1.40001
1.40001
1.40001
1.40001
1.40001
1.40001
1.40001
1.40001
1.40001
1.40001
1.40001
1.40001
1.40001
1.40001
1.40001
1.40001
1.40001
1.40001
1.40001
1.40001
1.40001
1.40001
1.40001
1.40001
1.40001
1.40001
1.40001
1.40001
1.40001
1.40001
1.40001
1.40001
1.40001
1.40001
1.40001
1.40001
1.40001
1.40001
1.40001
1.40001
1.40001
1.40001
1.40001
1.40001
1.40001
1.40001
1.40001
1.40001
1.40001
1.40001
1.40001
1.40001
1.40001
1.40001
1.40001
1.40001
2.72814
5.25213
5.4458
5.46197
5.48685
5.50654
5.52257
5.53915
5.5538
5.56119
5.56579
5.57423
5.57863
5.57946
5.58133
5.58483
5.59434
5.6052
5.61795
5.63468
5.65237
5.66584
5.67314
5.67393
5.66816
5.66199
5.65752
5.66256
5.67621
5.69114
5.70608
5.72088
5.73743
5.75411
5.77001
5.78545
5.79755
5.80397
5.8069
5.8065
5.80176
5.79348
5.78655
5.78393
5.78576
5.79527
5.81157
5.82855
5.84267
5.85291
5.85919
5.86188
5.86219
5.86161
5.86169
5.86463
5.87145
5.88025
5.88749
5.89055
5.88841
5.88193
5.87361
5.86602
5.86095
5.85869
5.85816
5.85807
5.85706
5.85383
5.84822
5.84185
5.83782
5.83829
5.84382
5.8524
5.85482
5.83797
5.78949
5.69901
5.56968
5.42641
5.30806
5.24063
5.22315
1.40001
1.40001
1.40001
1.40001
1.40001
1.40001
1.40001
1.40001
1.40001
1.40001
1.40001
1.40001
1.40001
1.40001
1.40001
1.40001
1.40001
1.40001
1.40001
1.40001
1.40001
1.40001
1.40001
1.40001
1.40001
1.40001
1.40001
1.40001
1.40001
1.40001
1.40001
1.40001
1.40001
1.40001
1.40001
1.40001
1.40001
1.40001
1.40001
1.40001
1.40001
1.40001
1.40001
1.40001
1.40001
1.40001
1.40001
1.40001
1.40001
1.40001
1.40001
1.40001
1.40001
1.40001
1.40001
1.40001
1.40001
1.40001
1.40001
1.40001
1.40001
1.40001
1.40001
1.40001
1.40001
1.40001
1.40001
1.40001
1.40001
1.40001
1.40001
1.40001
1.40001
1.40001
1.40001
1.40001
1.40001
1.40001
1.40001
1.40001
1.40001
1.40001
1.40001
1.40001
1.40001
1.40001
1.40001
1.40001
1.40001
1.40001
1.40001
1.40001
1.40001
1.40001
1.40001
1.40001
1.40001
1.40001
1.40001
1.40001
1.40001
1.40001
1.40001
1.40001
1.40001
1.40001
1.40001
2.6295
5.21654
5.44561
5.46327
5.48997
5.50989
5.52574
5.54348
5.55618
5.55949
5.56368
5.56981
5.57189
5.57214
5.57523
5.58112
5.59213
5.60371
5.61832
5.63668
5.65437
5.66689
5.67303
5.67394
5.66632
5.65893
5.654
5.65869
5.67234
5.68862
5.70561
5.72247
5.73968
5.75578
5.7705
5.78469
5.79584
5.80198
5.80521
5.80519
5.80066
5.79221
5.78489
5.78205
5.7839
5.79357
5.81021
5.82744
5.84128
5.85079
5.85629
5.85862
5.85905
5.85893
5.85965
5.86297
5.86974
5.87822
5.88513
5.88807
5.88618
5.88026
5.87238
5.86488
5.85962
5.85694
5.856
5.85563
5.85445
5.85108
5.84534
5.83903
5.83531
5.83634
5.84226
5.85048
5.85192
5.83388
5.78435
5.69319
5.56346
5.4198
5.30104
5.23271
5.21467
1.40001
1.40001
1.40001
1.40001
1.40001
1.40001
1.40001
1.40001
1.40001
1.40001
1.40001
1.40001
1.40001
1.40001
1.40001
1.40001
1.40001
1.40001
1.40001
1.40001
1.40001
1.40001
1.40001
1.40001
1.40001
1.40001
1.40001
1.40001
1.40001
1.40001
1.40001
1.40001
1.40001
1.40001
1.40001
1.40001
1.40001
1.40001
1.40001
1.40001
1.40001
1.40001
1.40001
1.40001
1.40001
1.40001
1.40001
1.40001
1.40001
1.40001
1.40001
1.40001
1.40001
1.40001
1.40001
1.40001
1.40001
1.40001
1.40001
1.40001
1.40001
1.40001
1.40001
1.40001
1.40001
1.40001
1.40001
1.40001
1.40001
1.40001
1.40001
1.40001
1.40001
1.40001
1.40001
1.40001
1.40001
1.40001
1.40001
1.40001
1.40001
1.40001
1.40001
1.40001
1.40001
1.40001
1.40001
1.40001
1.40001
1.40001
1.40001
1.40001
1.40001
1.40001
1.40001
1.40001
1.40001
1.40001
1.40001
1.40001
1.40001
1.40001
1.40001
1.40001
1.40001
1.40001
1.40001
2.52314
5.17624
5.44723
5.46534
5.49382
5.51244
5.52973
5.54672
5.55708
5.5589
5.56096
5.56524
5.56502
5.56535
5.56952
5.57681
5.58898
5.60177
5.61894
5.63943
5.65705
5.66864
5.67301
5.67317
5.66414
5.6551
5.65009
5.65452
5.66817
5.68622
5.70539
5.7241
5.74161
5.75674
5.77007
5.78285
5.7932
5.79943
5.80335
5.8039
5.79961
5.79096
5.78316
5.78002
5.78185
5.79161
5.80855
5.82609
5.83972
5.84854
5.85316
5.85493
5.8554
5.85588
5.85752
5.86147
5.86838
5.87661
5.88306
5.8856
5.88367
5.8781
5.87066
5.86335
5.85793
5.85482
5.85348
5.85286
5.85161
5.8482
5.84249
5.83634
5.833
5.83459
5.84069
5.84824
5.84844
5.82942
5.77945
5.6879
5.55774
5.41347
5.29412
5.22489
5.20602
1.40001
1.40001
1.40001
1.40001
1.40001
1.40001
1.40001
1.40001
1.40001
1.40001
1.40001
1.40001
1.40001
1.40001
1.40001
1.40001
1.40001
1.40001
1.40001
1.40001
1.40001
1.40001
1.40001
1.40001
1.40001
1.40001
1.40001
1.40001
1.40001
1.40001
1.40001
1.40001
1.40001
1.40001
1.40001
1.40001
1.40001
1.40001
1.40001
1.40001
1.40001
1.40001
1.40001
1.40001
1.40001
1.40001
1.40001
1.40001
1.40001
1.40001
1.40001
1.40001
1.40001
1.40001
1.40001
1.40001
1.40001
1.40001
1.40001
1.40001
1.40001
1.40001
1.40001
1.40001
1.40001
1.40001
1.40001
1.40001
1.40001
1.40001
1.40001
1.40001
1.40001
1.40001
1.40001
1.40001
1.40001
1.40001
1.40001
1.40001
1.40001
1.40001
1.40001
1.40001
1.40001
1.40001
1.40001
1.40001
1.40001
1.40001
1.40001
1.40001
1.40001
1.40001
1.40001
1.40001
1.40001
1.40001
1.40001
1.40001
1.40001
1.40001
1.40001
1.40001
1.40001
1.40001
1.40001
2.40576
5.12706
5.45053
5.46923
5.49823
5.51589
5.53448
5.54934
5.55667
5.55886
5.55785
5.5595
5.55758
5.55869
5.564
5.57265
5.58586
5.60011
5.6199
5.64238
5.65983
5.67044
5.67348
5.67167
5.66139
5.65054
5.6458
5.65025
5.66431
5.68456
5.7057
5.72581
5.74318
5.75705
5.76867
5.77991
5.78959
5.79621
5.80112
5.80243
5.79846
5.78972
5.78147
5.77798
5.77966
5.78928
5.80636
5.82422
5.83783
5.84622
5.85014
5.8513
5.85158
5.85243
5.85494
5.85971
5.86702
5.87528
5.88141
5.8835
5.8813
5.8757
5.86843
5.86129
5.85573
5.85224
5.8506
5.84985
5.84863
5.8453
5.83972
5.83381
5.8308
5.83274
5.83899
5.84587
5.84501
5.82527
5.77484
5.6828
5.55195
5.40693
5.28718
5.21756
5.19806
1.40001
1.40001
1.40001
1.40001
1.40001
1.40001
1.40001
1.40001
1.40001
1.40001
1.40001
1.40001
1.40001
1.40001
1.40001
1.40001
1.40001
1.40001
1.40001
1.40001
1.40001
1.40001
1.40001
1.40001
1.40001
1.40001
1.40001
1.40001
1.40001
1.40001
1.40001
1.40001
1.40001
1.40001
1.40001
1.40001
1.40001
1.40001
1.40001
1.40001
1.40001
1.40001
1.40001
1.40001
1.40001
1.40001
1.40001
1.40001
1.40001
1.40001
1.40001
1.40001
1.40001
1.40001
1.40001
1.40001
1.40001
1.40001
1.40001
1.40001
1.40001
1.40001
1.40001
1.40001
1.40001
1.40001
1.40001
1.40001
1.40001
1.40001
1.40001
1.40001
1.40001
1.40001
1.40001
1.40001
1.40001
1.40001
1.40001
1.40001
1.40001
1.40001
1.40001
1.40001
1.40001
1.40001
1.40001
1.40001
1.40001
1.40001
1.40001
1.40001
1.40001
1.40001
1.40001
1.40001
1.40001
1.40001
1.40001
1.40001
1.40001
1.40001
1.40001
1.40001
1.40001
1.40001
1.40001
2.28428
5.06857
5.454
5.47379
5.50114
5.52157
5.54036
5.55217
5.55611
5.55686
5.55481
5.55235
5.54951
5.55216
5.55872
5.56909
5.5833
5.59954
5.62152
5.6452
5.66214
5.67161
5.67386
5.66942
5.65802
5.64572
5.6411
5.646
5.66139
5.68407
5.7069
5.72778
5.74455
5.75697
5.76652
5.77626
5.78542
5.79256
5.79848
5.80056
5.79698
5.78834
5.77983
5.77606
5.77745
5.78658
5.80348
5.82155
5.83535
5.84375
5.84742
5.84819
5.84814
5.84889
5.85177
5.85715
5.86507
5.87372
5.8799
5.88178
5.87932
5.87342
5.86595
5.85875
5.85295
5.84913
5.84732
5.84661
5.84558
5.84244
5.83704
5.83137
5.82853
5.83056
5.83696
5.84345
5.84199
5.8219
5.77077
5.67789
5.54578
5.39991
5.28018
5.21106
5.19151
1.40001
1.40001
1.40001
1.40001
1.40001
1.40001
1.40001
1.40001
1.40001
1.40001
1.40001
1.40001
1.40001
1.40001
1.40001
1.40001
1.40001
1.40001
1.40001
1.40001
1.40001
1.40001
1.40001
1.40001
1.40001
1.40001
1.40001
1.40001
1.40001
1.40001
1.40001
1.40001
1.40001
1.40001
1.40001
1.40001
1.40001
1.40001
1.40001
1.40001
1.40001
1.40001
1.40001
1.40001
1.40001
1.40001
1.40001
1.40001
1.40001
1.40001
1.40001
1.40001
1.40001
1.40001
1.40001
1.40001
1.40001
1.40001
1.40001
1.40001
1.40001
1.40001
1.40001
1.40001
1.40001
1.40001
1.40001
1.40001
1.40001
1.40001
1.40001
1.40001
1.40001
1.40001
1.40001
1.40001
1.40001
1.40001
1.40001
1.40001
1.40001
1.40001
1.40001
1.40001
1.40001
1.40001
1.40001
1.40001
1.40001
1.40001
1.40001
1.40001
1.40001
1.40001
1.40001
1.40001
1.40001
1.40001
1.40001
1.40001
1.40001
1.40001
1.40001
1.40001
1.40001
1.40001
1.40001
2.16204
4.99432
5.45625
5.47844
5.50495
5.52793
5.54564
5.55528
5.55632
5.55231
5.55063
5.54478
5.54166
5.54598
5.55401
5.56637
5.58207
5.60054
5.6239
5.64758
5.66355
5.67197
5.67359
5.66617
5.65383
5.6406
5.63581
5.64194
5.65983
5.68486
5.70911
5.73014
5.74584
5.75651
5.76385
5.77227
5.78123
5.78902
5.79568
5.79827
5.79508
5.78673
5.77828
5.77445
5.77548
5.7838
5.80008
5.81801
5.83204
5.84087
5.8449
5.84572
5.84546
5.84577
5.84828
5.85362
5.86195
5.87123
5.87797
5.88013
5.87774
5.8716
5.86365
5.85602
5.84972
5.84552
5.84363
5.84315
5.84247
5.83964
5.83443
5.8289
5.82603
5.82793
5.83452
5.84098
5.83951
5.81945
5.76743
5.67294
5.53921
5.39248
5.27316
5.2054
5.18651
1.40001
1.40001
1.40001
1.40001
1.40001
1.40001
1.40001
1.40001
1.40001
1.40001
1.40001
1.40001
1.40001
1.40001
1.40001
1.40001
1.40001
1.40001
1.40001
1.40001
1.40001
1.40001
1.40001
1.40001
1.40001
1.40001
1.40001
1.40001
1.40001
1.40001
1.40001
1.40001
1.40001
1.40001
1.40001
1.40001
1.40001
1.40001
1.40001
1.40001
1.40001
1.40001
1.40001
1.40001
1.40001
1.40001
1.40001
1.40001
1.40001
1.40001
1.40001
1.40001
1.40001
1.40001
1.40001
1.40001
1.40001
1.40001
1.40001
1.40001
1.40001
1.40001
1.40001
1.40001
1.40001
1.40001
1.40001
1.40001
1.40001
1.40001
1.40001
1.40001
1.40001
1.40001
1.40001
1.40001
1.40001
1.40001
1.40001
1.40001
1.40001
1.40001
1.40001
1.40001
1.40001
1.40001
1.40001
1.40001
1.40001
1.40001
1.40001
1.40001
1.40001
1.40001
1.40001
1.40001
1.40001
1.40001
1.40001
1.40001
1.40001
1.40001
1.40001
1.40001
1.40001
1.40001
1.40001
2.04331
4.9046
5.4542
5.48344
5.51288
5.5337
5.54862
5.55753
5.55554
5.54743
5.54443
5.53735
5.53461
5.54021
5.5501
5.5649
5.5823
5.60315
5.62705
5.64939
5.6639
5.67151
5.67243
5.66171
5.64854
5.63482
5.63009
5.63842
5.65952
5.68679
5.71208
5.73268
5.74683
5.75549
5.76065
5.76819
5.7775
5.78615
5.79323
5.79585
5.79287
5.78487
5.7768
5.77318
5.7739
5.78126
5.79652
5.81383
5.82783
5.83726
5.84216
5.84361
5.84352
5.84339
5.84504
5.84955
5.85759
5.8673
5.875
5.87808
5.87632
5.8703
5.86183
5.85341
5.84628
5.84154
5.83957
5.83941
5.83922
5.83682
5.83177
5.82621
5.82313
5.82484
5.83165
5.83842
5.83748
5.81775
5.76466
5.66794
5.53234
5.38499
5.26636
5.20045
5.18279
1.40001
1.40001
1.40001
1.40001
1.40001
1.40001
1.40001
1.40001
1.40001
1.40001
1.40001
1.40001
1.40001
1.40001
1.40001
1.40001
1.40001
1.40001
1.40001
1.40001
1.40001
1.40001
1.40001
1.40001
1.40001
1.40001
1.40001
1.40001
1.40001
1.40001
1.40001
1.40001
1.40001
1.40001
1.40001
1.40001
1.40001
1.40001
1.40001
1.40001
1.40001
1.40001
1.40001
1.40001
1.40001
1.40001
1.40001
1.40001
1.40001
1.40001
1.40001
1.40001
1.40001
1.40001
1.40001
1.40001
1.40001
1.40001
1.40001
1.40001
1.40001
1.40001
1.40001
1.40001
1.40001
1.40001
1.40001
1.40001
1.40001
1.40001
1.40001
1.40001
1.40001
1.40001
1.40001
1.40001
1.40001
1.40001
1.40001
1.40001
1.40001
1.40001
1.40001
1.40001
1.40001
1.40001
1.40001
1.40001
1.40001
1.40001
1.40001
1.40001
1.40001
1.40001
1.40001
1.40001
1.40001
1.40001
1.40001
1.40001
1.40001
1.40001
1.40001
1.40001
1.40001
1.40001
1.40001
1.93096
4.80141
5.45192
5.48794
5.52008
5.53773
5.54935
5.55563
5.55225
5.54267
5.5374
5.53058
5.52855
5.53516
5.5473
5.56471
5.58371
5.60629
5.63045
5.65048
5.66351
5.67044
5.66974
5.65644
5.64171
5.62806
5.62459
5.63572
5.66013
5.68924
5.71521
5.73491
5.74712
5.75359
5.75689
5.76416
5.77434
5.78402
5.79133
5.79355
5.79051
5.78277
5.77525
5.77203
5.77261
5.77914
5.79326
5.80956
5.82312
5.83284
5.83875
5.84131
5.84183
5.8416
5.8424
5.84563
5.85253
5.86199
5.87062
5.8751
5.87461
5.86928
5.86047
5.85108
5.84289
5.83745
5.83531
5.83543
5.83574
5.83381
5.82891
5.82317
5.81981
5.82146
5.8285
5.83573
5.83568
5.81637
5.7622
5.66325
5.52558
5.37771
5.25999
5.19588
5.17965
1.40001
1.40001
1.40001
1.40001
1.40001
1.40001
1.40001
1.40001
1.40001
1.40001
1.40001
1.40001
1.40001
1.40001
1.40001
1.40001
1.40001
1.40001
1.40001
1.40001
1.40001
1.40001
1.40001
1.40001
1.40001
1.40001
1.40001
1.40001
1.40001
1.40001
1.40001
1.40001
1.40001
1.40001
1.40001
1.40001
1.40001
1.40001
1.40001
1.40001
1.40001
1.40001
1.40001
1.40001
1.40001
1.40001
1.40001
1.40001
1.40001
1.40001
1.40001
1.40001
1.40001
1.40001
1.40001
1.40001
1.40001
1.40001
1.40001
1.40001
1.40001
1.40001
1.40001
1.40001
1.40001
1.40001
1.40001
1.40001
1.40001
1.40001
1.40001
1.40001
1.40001
1.40001
1.40001
1.40001
1.40001
1.40001
1.40001
1.40001
1.40001
1.40001
1.40001
1.40001
1.40001
1.40001
1.40001
1.40001
1.40001
1.40001
1.40001
1.40001
1.40001
1.40001
1.40001
1.40001
1.40001
1.40001
1.40001
1.40001
1.40001
1.40001
1.40001
1.40001
1.40001
1.40001
1.40001
1.82255
4.6878
5.4555
5.49312
5.52271
5.53875
5.54664
5.54864
5.54554
5.53704
5.53084
5.52521
5.52404
5.53146
5.54605
5.56581
5.58642
5.60937
5.63294
5.65069
5.66261
5.66905
5.66529
5.65053
5.63334
5.62072
5.62011
5.63417
5.66154
5.69172
5.71778
5.73616
5.74619
5.75042
5.75249
5.76008
5.77147
5.78229
5.78982
5.79153
5.78828
5.7806
5.77353
5.7707
5.77128
5.77724
5.79038
5.80573
5.81856
5.82801
5.83442
5.83807
5.83961
5.8398
5.84016
5.84221
5.84766
5.85617
5.8651
5.87108
5.87221
5.86793
5.85925
5.84903
5.83974
5.83349
5.83105
5.8313
5.83192
5.83037
5.82561
5.81969
5.81611
5.81792
5.82522
5.83296
5.83379
5.81481
5.75976
5.65901
5.51961
5.37109
5.25401
5.19134
5.17633
1.40001
1.40001
1.40001
1.40001
1.40001
1.40001
1.40001
1.40001
1.40001
1.40001
1.40001
1.40001
1.40001
1.40001
1.40001
1.40001
1.40001
1.40001
1.40001
1.40001
1.40001
1.40001
1.40001
1.40001
1.40001
1.40001
1.40001
1.40001
1.40001
1.40001
1.40001
1.40001
1.40001
1.40001
1.40001
1.40001
1.40001
1.40001
1.40001