/*--------------------------------*- C++ -*----------------------------------*\
  =========                 |
  \\      /  F ield         | OpenFOAM: The Open Source CFD Toolbox
   \\    /   O peration     | Website:  https://openfoam.org
    \\  /    A nd           | Version:  7
     \\/     M anipulation  |
\*---------------------------------------------------------------------------*/
FoamFile
{
    version     2.0;
    format      ascii;
    class       volScalarField;
    location    "1.1";
    object      T;
}
// * * * * * * * * * * * * * * * * * * * * * * * * * * * * * * * * * * * * * //

dimensions      [0 0 0 1 0 0 0];

internalField   nonuniform List<scalar> 
258048
(
1
1
1
1
1
1
1
1
1
1
1
1
1
1
1
1
1
1
1
1
1
1
1
1
1
1
1
1
1
1
1
1
1
1
1
1
1
1
1
1
1
1
1
1
1
1
1
1
1
1
1
1
1
1
1
1
1
1
1
1
1
1
1
1
1
1
1
1
1
1
1
1
1
1
1
1
1
1
1
1
1
1
1
1
1
1
1
1
1
1
1
1
1
1
1
1
1
1
1
1
1
1
1
1
1
1
1
2.03621
2.69296
2.75393
2.76474
2.77177
2.77072
2.76765
2.76126
2.75202
2.74177
2.73581
2.7365
2.74159
2.7523
2.76675
2.78034
2.79034
2.79482
2.79481
2.79285
2.78881
2.78333
2.77849
2.77609
2.77631
2.77994
2.78768
2.79729
2.8054
2.80856
2.80755
2.80463
2.80248
2.80317
2.8072
2.81442
2.82208
2.82723
2.82894
2.82809
2.82575
2.82389
2.82378
2.82494
2.82749
2.83152
2.83614
2.84038
2.84395
2.84694
2.8494
2.85131
2.85266
2.85359
2.85469
2.8565
2.85934
2.86285
2.86626
2.86903
2.87054
2.87066
2.87045
2.87046
2.87132
2.87334
2.87605
2.87863
2.88035
2.88119
2.88177
2.88247
2.88388
2.88682
2.89152
2.89814
2.90725
2.92042
2.94363
2.98556
3.05017
3.12923
3.20095
3.24411
3.258
1
1
1
1
1
1
1
1
1
1
1
1
1
1
1
1
1
1
1
1
1
1
1
1
1
1
1
1
1
1
1
1
1
1
1
1
1
1
1
1
1
1
1
1
1
1
1
1
1
1
1
1
1
1
1
1
1
1
1
1
1
1
1
1
1
1
1
1
1
1
1
1
1
1
1
1
1
1
1
1
1
1
1
1
1
1
1
1
1
1
1
1
1
1
1
1
1
1
1
1
1
1
1
1
1
1
1
2.03055
2.69276
2.75377
2.76539
2.77182
2.77074
2.76753
2.76114
2.7519
2.74174
2.73582
2.73657
2.74169
2.75232
2.76671
2.78025
2.79023
2.79473
2.79473
2.79282
2.78881
2.78333
2.77844
2.77599
2.77625
2.77991
2.78771
2.79733
2.80538
2.8085
2.80747
2.80456
2.80247
2.80318
2.80725
2.81448
2.8221
2.82719
2.82884
2.82797
2.82566
2.82381
2.82372
2.82488
2.82742
2.83145
2.83608
2.84034
2.84394
2.84695
2.84943
2.85137
2.85274
2.85367
2.85472
2.85643
2.85919
2.86265
2.86606
2.86893
2.87056
2.87076
2.87057
2.87056
2.87136
2.87327
2.8759
2.87845
2.88022
2.88113
2.88179
2.88257
2.88403
2.88695
2.89154
2.898
2.90696
2.92014
2.94362
2.98584
3.05064
3.12969
3.20119
3.2441
3.25772
1
1
1
1
1
1
1
1
1
1
1
1
1
1
1
1
1
1
1
1
1
1
1
1
1
1
1
1
1
1
1
1
1
1
1
1
1
1
1
1
1
1
1
1
1
1
1
1
1
1
1
1
1
1
1
1
1
1
1
1
1
1
1
1
1
1
1
1
1
1
1
1
1
1
1
1
1
1
1
1
1
1
1
1
1
1
1
1
1
1
1
1
1
1
1
1
1
1
1
1
1
1
1
1
1
1
1
2.0204
2.69271
2.75408
2.76572
2.77141
2.77034
2.76701
2.76067
2.75151
2.74147
2.7357
2.73659
2.74182
2.75244
2.76678
2.78028
2.7902
2.79465
2.79459
2.79272
2.78872
2.78319
2.77824
2.77575
2.77609
2.77987
2.78776
2.79738
2.80533
2.80836
2.80729
2.80435
2.80235
2.80314
2.80731
2.81459
2.8222
2.82721
2.82877
2.82785
2.82555
2.82373
2.82365
2.82482
2.82734
2.83135
2.83599
2.84025
2.84388
2.84692
2.84943
2.85141
2.85283
2.85379
2.85483
2.85644
2.8591
2.86243
2.86577
2.86867
2.87046
2.87077
2.87064
2.87066
2.8714
2.87318
2.87568
2.87818
2.87998
2.88101
2.88177
2.88265
2.88419
2.88709
2.89153
2.89788
2.90671
2.92
2.9439
2.98654
3.05159
3.13057
3.20174
3.24438
3.2577
1
1
1
1
1
1
1
1
1
1
1
1
1
1
1
1
1
1
1
1
1
1
1
1
1
1
1
1
1
1
1
1
1
1
1
1
1
1
1
1
1
1
1
1
1
1
1
1
1
1
1
1
1
1
1
1
1
1
1
1
1
1
1
1
1
1
1
1
1
1
1
1
1
1
1
1
1
1
1
1
1
1
1
1
1
1
1
1
1
1
1
1
1
1
1
1
1
1
1
1
1
1
1
1
1
1
1
2.00931
2.69193
2.75465
2.76596
2.77078
2.7697
2.76621
2.75991
2.75084
2.74095
2.73547
2.7365
2.74194
2.75266
2.76695
2.78041
2.79022
2.79458
2.79444
2.79254
2.78847
2.78284
2.77785
2.77538
2.77586
2.77984
2.78786
2.79746
2.80525
2.80813
2.80697
2.80398
2.80212
2.80303
2.80736
2.81473
2.82233
2.82726
2.82873
2.82778
2.82548
2.82367
2.8236
2.82477
2.82726
2.83124
2.83585
2.84012
2.84376
2.84683
2.84938
2.85141
2.85288
2.85388
2.8549
2.85645
2.85905
2.86228
2.86552
2.86839
2.87029
2.87077
2.8707
2.87075
2.87145
2.8731
2.87545
2.87787
2.87972
2.88086
2.88172
2.88273
2.88436
2.8872
2.89149
2.89773
2.90653
2.92001
2.94448
2.98769
3.05305
3.13194
3.20276
3.24508
3.25809
1
1
1
1
1
1
1
1
1
1
1
1
1
1
1
1
1
1
1
1
1
1
1
1
1
1
1
1
1
1
1
1
1
1
1
1
1
1
1
1
1
1
1
1
1
1
1
1
1
1
1
1
1
1
1
1
1
1
1
1
1
1
1
1
1
1
1
1
1
1
1
1
1
1
1
1
1
1
1
1
1
1
1
1
1
1
1
1
1
1
1
1
1
1
1
1
1
1
1
1
1
1
1
1
1
1
1
1.99698
2.69127
2.75515
2.76579
2.76996
2.76875
2.76514
2.75882
2.74978
2.74008
2.73506
2.73635
2.74211
2.75305
2.76737
2.78079
2.79038
2.7945
2.79424
2.79225
2.78802
2.78227
2.7773
2.77494
2.77562
2.77987
2.78804
2.79756
2.80514
2.80779
2.80651
2.80347
2.80176
2.80284
2.80735
2.81484
2.82247
2.82735
2.82874
2.82776
2.82547
2.82366
2.82358
2.82476
2.8272
2.83112
2.83569
2.83994
2.84358
2.84666
2.84922
2.85128
2.8528
2.85388
2.85493
2.85648
2.85905
2.86222
2.86536
2.86813
2.87007
2.87067
2.87066
2.87076
2.87146
2.87305
2.87527
2.87758
2.87944
2.88067
2.88162
2.88275
2.88445
2.88723
2.89139
2.89763
2.90652
2.92029
2.94541
2.98924
3.05495
3.13379
3.20428
3.24633
3.25913
1
1
1
1
1
1
1
1
1
1
1
1
1
1
1
1
1
1
1
1
1
1
1
1
1
1
1
1
1
1
1
1
1
1
1
1
1
1
1
1
1
1
1
1
1
1
1
1
1
1
1
1
1
1
1
1
1
1
1
1
1
1
1
1
1
1
1
1
1
1
1
1
1
1
1
1
1
1
1
1
1
1
1
1
1
1
1
1
1
1
1
1
1
1
1
1
1
1
1
1
1
1
1
1
1
1
1
1.9819
2.69065
2.7554
2.76509
2.76885
2.76754
2.76394
2.75753
2.74841
2.73891
2.73449
2.73612
2.74233
2.75368
2.76814
2.78145
2.79069
2.79436
2.79394
2.79176
2.7873
2.78146
2.77664
2.7745
2.7754
2.77999
2.78829
2.79768
2.80497
2.80732
2.8059
2.80283
2.80131
2.80256
2.80728
2.81488
2.82255
2.8274
2.82876
2.82777
2.82551
2.82368
2.82359
2.82476
2.82713
2.83097
2.83549
2.83973
2.84336
2.84642
2.84897
2.85102
2.85257
2.85373
2.85485
2.85649
2.85909
2.86222
2.86528
2.86795
2.86984
2.87047
2.87051
2.87067
2.87142
2.873
2.87514
2.87734
2.87917
2.88045
2.88148
2.88267
2.88439
2.88713
2.89124
2.89759
2.9067
2.92086
2.94661
2.99107
3.05718
3.13604
3.20629
3.24817
3.26096
1
1
1
1
1
1
1
1
1
1
1
1
1
1
1
1
1
1
1
1
1
1
1
1
1
1
1
1
1
1
1
1
1
1
1
1
1
1
1
1
1
1
1
1
1
1
1
1
1
1
1
1
1
1
1
1
1
1
1
1
1
1
1
1
1
1
1
1
1
1
1
1
1
1
1
1
1
1
1
1
1
1
1
1
1
1
1
1
1
1
1
1
1
1
1
1
1
1
1
1
1
1
1
1
1
1
1
1.96347
2.68968
2.75534
2.7639
2.76751
2.76618
2.7627
2.75601
2.74668
2.73744
2.7337
2.73583
2.74264
2.75466
2.76942
2.78244
2.7912
2.79413
2.79349
2.79101
2.78629
2.78044
2.77593
2.7741
2.77524
2.7802
2.78864
2.79782
2.80474
2.80673
2.80518
2.80213
2.80083
2.80226
2.80718
2.81487
2.82256
2.8274
2.82874
2.82777
2.82555
2.82372
2.82359
2.82475
2.82704
2.83079
2.83527
2.83949
2.84311
2.84615
2.84867
2.85067
2.8522
2.8534
2.85462
2.85641
2.85909
2.86225
2.86526
2.86784
2.86962
2.87022
2.87028
2.87049
2.87132
2.87295
2.87506
2.87716
2.87891
2.88021
2.88127
2.88248
2.88417
2.88689
2.89106
2.8976
2.90705
2.92167
2.94799
2.99305
3.0596
3.1386
3.20874
3.25053
3.26348
1
1
1
1
1
1
1
1
1
1
1
1
1
1
1
1
1
1
1
1
1
1
1
1
1
1
1
1
1
1
1
1
1
1
1
1
1
1
1
1
1
1
1
1
1
1
1
1
1
1
1
1
1
1
1
1
1
1
1
1
1
1
1
1
1
1
1
1
1
1
1
1
1
1
1
1
1
1
1
1
1
1
1
1
1
1
1
1
1
1
1
1
1
1
1
1
1
1
1
1
1
1
1
1
1
1
1
1.94127
2.6881
2.75471
2.76232
2.76604
2.76478
2.76138
2.7541
2.74443
2.73567
2.73273
2.73549
2.74312
2.75606
2.77122
2.7838
2.79181
2.79379
2.79282
2.7899
2.78492
2.7792
2.77517
2.77379
2.77516
2.78057
2.78912
2.798
2.80447
2.80604
2.80436
2.80141
2.80037
2.80199
2.8071
2.81485
2.82252
2.82731
2.82861
2.82768
2.82554
2.82371
2.82355
2.82469
2.8269
2.83057
2.83503
2.83923
2.84283
2.84585
2.84834
2.85029
2.85177
2.85295
2.85423
2.85618
2.85896
2.86219
2.86521
2.86772
2.86939
2.86994
2.87
2.87027
2.87117
2.87287
2.87497
2.87699
2.87866
2.87992
2.88099
2.88216
2.88381
2.88654
2.89085
2.89767
2.90751
2.92259
2.94942
2.99509
3.06218
3.14144
3.21155
3.25329
3.26648
1
1
1
1
1
1
1
1
1
1
1
1
1
1
1
1
1
1
1
1
1
1
1
1
1
1
1
1
1
1
1
1
1
1
1
1
1
1
1
1
1
1
1
1
1
1
1
1
1
1
1
1
1
1
1
1
1
1
1
1
1
1
1
1
1
1
1
1
1
1
1
1
1
1
1
1
1
1
1
1
1
1
1
1
1
1
1
1
1
1
1
1
1
1
1
1
1
1
1
1
1
1
1
1
1
1
1
1.91504
2.68568
2.75349
2.76056
2.76442
2.76324
2.7597
2.75168
2.74166
2.73371
2.73179
2.73523
2.7439
2.75788
2.77337
2.78537
2.79234
2.79332
2.79195
2.78847
2.78324
2.77775
2.77436
2.77354
2.77517
2.7811
2.7897
2.79815
2.8041
2.80523
2.80347
2.80069
2.79995
2.80178
2.80709
2.81487
2.82247
2.82716
2.8284
2.82749
2.82544
2.82363
2.82343
2.82455
2.8267
2.83031
2.83476
2.83896
2.84254
2.84552
2.84798
2.84989
2.85133
2.85246
2.85377
2.85579
2.85866
2.86196
2.86503
2.86754
2.86915
2.86966
2.86973
2.87004
2.871
2.87273
2.87482
2.87679
2.87838
2.87958
2.88062
2.88175
2.88335
2.88612
2.89062
2.89775
2.90799
2.92345
2.95078
2.99713
3.06491
3.14456
3.21466
3.25627
3.26963
1
1
1
1
1
1
1
1
1
1
1
1
1
1
1
1
1
1
1
1
1
1
1
1
1
1
1
1
1
1
1
1
1
1
1
1
1
1
1
1
1
1
1
1
1
1
1
1
1
1
1
1
1
1
1
1
1
1
1
1
1
1
1
1
1
1
1
1
1
1
1
1
1
1
1
1
1
1
1
1
1
1
1
1
1
1
1
1
1
1
1
1
1
1
1
1
1
1
1
1
1
1
1
1
1
1
1
1.88465
2.68221
2.752
2.75869
2.76259
2.76141
2.75739
2.7488
2.73856
2.73173
2.73105
2.73515
2.74507
2.76004
2.77564
2.78685
2.79257
2.79272
2.79085
2.78678
2.78133
2.77614
2.77345
2.77325
2.77524
2.78176
2.79033
2.79821
2.80357
2.80428
2.80251
2.79999
2.79957
2.80164
2.80714
2.81493
2.82243
2.82699
2.82813
2.82723
2.82526
2.82346
2.82322
2.82431
2.82641
2.83
2.83447
2.83867
2.8422
2.84513
2.84754
2.84944
2.85087
2.85199
2.8533
2.85535
2.85824
2.86156
2.86467
2.86724
2.86887
2.86937
2.86948
2.86983
2.87082
2.87255
2.8746
2.87652
2.87804
2.87919
2.88019
2.88127
2.88286
2.8857
2.89038
2.89779
2.90831
2.92408
2.95196
2.99914
3.06777
3.14791
3.21799
3.2593
3.27269
1
1
1
1
1
1
1
1
1
1
1
1
1
1
1
1
1
1
1
1
1
1
1
1
1
1
1
1
1
1
1
1
1
1
1
1
1
1
1
1
1
1
1
1
1
1
1
1
1
1
1
1
1
1
1
1
1
1
1
1
1
1
1
1
1
1
1
1
1
1
1
1
1
1
1
1
1
1
1
1
1
1
1
1
1
1
1
1
1
1
1
1
1
1
1
1
1
1
1
1
1
1
1
1
1
1
1
1.84966
2.67737
2.75073
2.75662
2.76037
2.7591
2.75433
2.74546
2.73553
2.72997
2.73045
2.73553
2.74684
2.76248
2.77781
2.78791
2.79233
2.79193
2.78946
2.78496
2.77932
2.77448
2.77243
2.7728
2.7754
2.78251
2.79093
2.7981
2.80284
2.8032
2.80149
2.7993
2.7992
2.80156
2.80725
2.815
2.82238
2.8268
2.82784
2.82692
2.82501
2.8232
2.82293
2.82397
2.82604
2.82964
2.83414
2.83834
2.84182
2.84467
2.84702
2.84889
2.85035
2.85152
2.85287
2.85493
2.8578
2.86108
2.86416
2.86679
2.8685
2.86905
2.86923
2.86962
2.87062
2.8723
2.87429
2.87615
2.87762
2.87873
2.8797
2.88077
2.88239
2.88534
2.89014
2.89773
2.90838
2.92437
2.95289
3.00105
3.07067
3.15137
3.22141
3.26229
3.27554
1
1
1
1
1
1
1
1
1
1
1
1
1
1
1
1
1
1
1
1
1
1
1
1
1
1
1
1
1
1
1
1
1
1
1
1
1
1
1
1
1
1
1
1
1
1
1
1
1
1
1
1
1
1
1
1
1
1
1
1
1
1
1
1
1
1
1
1
1
1
1
1
1
1
1
1
1
1
1
1
1
1
1
1
1
1
1
1
1
1
1
1
1
1
1
1
1
1
1
1
1
1
1
1
1
1
1
1.80963
2.67082
2.74972
2.75418
2.75765
2.75614
2.75065
2.74172
2.73286
2.72882
2.73021
2.73667
2.74927
2.76513
2.77976
2.78843
2.79154
2.79069
2.78785
2.78307
2.77729
2.77281
2.77131
2.77228
2.7756
2.7833
2.79148
2.79779
2.80186
2.80196
2.80038
2.7986
2.7988
2.80151
2.80731
2.815
2.82226
2.82654
2.8275
2.82658
2.8247
2.82288
2.82255
2.82354
2.82559
2.82922
2.83375
2.83796
2.84138
2.84414
2.8464
2.84823
2.84971
2.851
2.85246
2.85455
2.8574
2.86061
2.86361
2.86621
2.86801
2.86866
2.86891
2.86937
2.87037
2.87198
2.87389
2.87569
2.87713
2.87821
2.87918
2.88026
2.88196
2.88503
2.8899
2.89757
2.90824
2.92437
2.95354
3.00274
3.07342
3.15472
3.22475
3.26519
3.27817
1
1
1
1
1
1
1
1
1
1
1
1
1
1
1
1
1
1
1
1
1
1
1
1
1
1
1
1
1
1
1
1
1
1
1
1
1
1
1
1
1
1
1
1
1
1
1
1
1
1
1
1
1
1
1
1
1
1
1
1
1
1
1
1
1
1
1
1
1
1
1
1
1
1
1
1
1
1
1
1
1
1
1
1
1
1
1
1
1
1
1
1
1
1
1
1
1
1
1
1
1
1
1
1
1
1
1
1.76373
2.6619
2.74861
2.75142
2.75452
2.75243
2.74652
2.73776
2.7305
2.72847
2.7305
2.73861
2.75229
2.76783
2.78131
2.78851
2.79028
2.78905
2.78596
2.78102
2.7752
2.77119
2.77013
2.77168
2.77592
2.78409
2.79195
2.79738
2.80068
2.80061
2.79921
2.79792
2.79843
2.80144
2.80729
2.81488
2.82201
2.82616
2.82707
2.82617
2.82434
2.82251
2.82211
2.82304
2.82505
2.82869
2.83325
2.83749
2.84088
2.84355
2.84571
2.84747
2.84897
2.85039
2.85202
2.85418
2.85704
2.86021
2.86311
2.86562
2.86743
2.86818
2.8685
2.86902
2.87002
2.87157
2.8734
2.87515
2.87657
2.87766
2.87864
2.87975
2.88154
2.88473
2.88963
2.89731
2.90794
2.92419
2.95393
3.00407
3.07577
3.15769
3.22781
3.26796
3.28066
1
1
1
1
1
1
1
1
1
1
1
1
1
1
1
1
1
1
1
1
1
1
1
1
1
1
1
1
1
1
1
1
1
1
1
1
1
1
1
1
1
1
1
1
1
1
1
1
1
1
1
1
1
1
1
1
1
1
1
1
1
1
1
1
1
1
1
1
1
1
1
1
1
1
1
1
1
1
1
1
1
1
1
1
1
1
1
1
1
1
1
1
1
1
1
1
1
1
1
1
1
1
1
1
1
1
1
1.70902
2.64898
2.74737
2.74868
2.75098
2.74824
2.74213
2.73408
2.72885
2.72867
2.73146
2.74122
2.75555
2.77025
2.78223
2.78815
2.78871
2.78712
2.78377
2.77869
2.773
2.7696
2.76903
2.77106
2.77645
2.78486
2.79227
2.79689
2.79943
2.79927
2.79809
2.79728
2.79808
2.80134
2.80719
2.81465
2.82161
2.82563
2.8265
2.82565
2.82389
2.82206
2.82162
2.82249
2.82444
2.82804
2.8326
2.83687
2.84027
2.84292
2.84502
2.84671
2.84819
2.84969
2.85148
2.85376
2.85667
2.85984
2.86269
2.86509
2.86685
2.86764
2.86799
2.86853
2.86954
2.87103
2.87282
2.87454
2.87596
2.87708
2.8781
2.87924
2.8811
2.88439
2.88933
2.89691
2.90745
2.92392
2.95413
3.00497
3.07747
3.16001
3.23042
3.27056
3.28311
1
1
1
1
1
1
1
1
1
1
1
1
1
1
1
1
1
1
1
1
1
1
1
1
1
1
1
1
1
1
1
1
1
1
1
1
1
1
1
1
1
1
1
1
1
1
1
1
1
1
1
1
1
1
1
1
1
1
1
1
1
1
1
1
1
1
1
1
1
1
1
1
1
1
1
1
1
1
1
1
1
1
1
1
1
1
1
1
1
1
1
1
1
1
1
1
1
1
1
1
1
1
1
1
1
1
1
1.64703
2.63229
2.74593
2.74587
2.74666
2.74379
2.73785
2.73137
2.72829
2.72898
2.73329
2.74409
2.75845
2.77212
2.78246
2.78727
2.78707
2.78505
2.78129
2.77601
2.77064
2.76798
2.768
2.77068
2.7772
2.78564
2.79241
2.79632
2.79828
2.7981
2.79714
2.79673
2.7978
2.80127
2.80708
2.81438
2.82114
2.82497
2.82578
2.82496
2.82329
2.82152
2.82107
2.82191
2.82378
2.82726
2.83176
2.83607
2.83952
2.84225
2.84437
2.84604
2.84747
2.84896
2.85081
2.85319
2.85618
2.85941
2.86228
2.86463
2.86633
2.86712
2.86744
2.86794
2.8689
2.87036
2.87213
2.87387
2.87532
2.87648
2.87755
2.87872
2.88062
2.88395
2.88898
2.89643
2.90688
2.92363
2.95417
3.00537
3.0784
3.16154
3.23245
3.27295
3.28554
1
1
1
1
1
1
1
1
1
1
1
1
1
1
1
1
1
1
1
1
1
1
1
1
1
1
1
1
1
1
1
1
1
1
1
1
1
1
1
1
1
1
1
1
1
1
1
1
1
1
1
1
1
1
1
1
1
1
1
1
1
1
1
1
1
1
1
1
1
1
1
1
1
1
1
1
1
1
1
1
1
1
1
1
1
1
1
1
1
1
1
1
1
1
1
1
1
1
1
1
1
1
1
1
1
1
1
1.58019
2.61196
2.74406
2.74287
2.74186
2.73877
2.73397
2.73007
2.72886
2.72971
2.73563
2.7468
2.76052
2.77311
2.78211
2.78593
2.78535
2.78289
2.77853
2.77298
2.76815
2.76637
2.76711
2.77061
2.77815
2.78641
2.79231
2.79569
2.79731
2.79716
2.79639
2.79627
2.79761
2.80129
2.80703
2.81416
2.8207
2.82427
2.82493
2.82411
2.82253
2.82086
2.82049
2.82135
2.82314
2.82642
2.83078
2.83507
2.8386
2.84147
2.84374
2.84547
2.84689
2.84829
2.85007
2.85242
2.85544
2.85877
2.86176
2.86416
2.86588
2.86665
2.86691
2.86731
2.86815
2.86955
2.87134
2.87314
2.87466
2.87588
2.87697
2.87817
2.88006
2.88339
2.88852
2.89589
2.90632
2.92332
2.95405
3.00536
3.07862
3.16224
3.23385
3.275
3.28787
1
1
1
1
1
1
1
1
1
1
1
1
1
1
1
1
1
1
1
1
1
1
1
1
1
1
1
1
1
1
1
1
1
1
1
1
1
1
1
1
1
1
1
1
1
1
1
1
1
1
1
1
1
1
1
1
1
1
1
1
1
1
1
1
1
1
1
1
1
1
1
1
1
1
1
1
1
1
1
1
1
1
1
1
1
1
1
1
1
1
1
1
1
1
1
1
1
1
1
1
1
1
1
1
1
1
1
1.5106
2.58894
2.74071
2.73841
2.73682
2.73416
2.73162
2.73016
2.72994
2.73126
2.73812
2.74905
2.76165
2.77329
2.78128
2.78429
2.78341
2.78052
2.77548
2.76971
2.76562
2.76485
2.76659
2.77092
2.77931
2.78713
2.79197
2.79502
2.79645
2.79635
2.7958
2.79589
2.7975
2.80135
2.80701
2.81403
2.82033
2.82361
2.82403
2.82315
2.82161
2.82011
2.81986
2.8208
2.82258
2.82559
2.82973
2.83392
2.8375
2.84055
2.84304
2.84496
2.84644
2.84776
2.84937
2.85153
2.85447
2.85786
2.86101
2.8636
2.86545
2.86625
2.86645
2.86669
2.86734
2.86863
2.87044
2.87233
2.87395
2.87525
2.87637
2.87756
2.87941
2.88271
2.88791
2.89529
2.90579
2.923
2.95376
3.00503
3.07832
3.16229
3.23462
3.27661
3.28991
1
1
1
1
1
1
1
1
1
1
1
1
1
1
1
1
1
1
1
1
1
1
1
1
1
1
1
1
1
1
1
1
1
1
1
1
1
1
1
1
1
1
1
1
1
1
1
1
1
1
1
1
1
1
1
1
1
1
1
1
1
1
1
1
1
1
1
1
1
1
1
1
1
1
1
1
1
1
1
1
1
1
1
1
1
1
1
1
1
1
1
1
1
1
1
1
1
1
1
1
1
1
1
1
1
1
1
1.44047
2.56206
2.73474
2.73193
2.73217
2.73166
2.73114
2.73105
2.73153
2.73368
2.7405
2.7506
2.76199
2.77295
2.78009
2.78231
2.78108
2.77765
2.77207
2.76642
2.76333
2.76349
2.76645
2.77187
2.78065
2.7877
2.79149
2.79425
2.79555
2.79555
2.79525
2.79555
2.79738
2.80137
2.80699
2.81394
2.82003
2.82297
2.82311
2.82212
2.82059
2.81927
2.8192
2.82024
2.82207
2.82486
2.82873
2.83274
2.8363
2.83946
2.8422
2.84439
2.84603
2.84734
2.84875
2.85066
2.85337
2.85668
2.85997
2.86282
2.86495
2.86588
2.86602
2.86611
2.86654
2.86767
2.86947
2.87146
2.8732
2.87457
2.87571
2.87687
2.87867
2.88196
2.88718
2.8946
2.90526
2.92258
2.95328
3.00437
3.07763
3.16191
3.23486
3.27769
3.29149
1
1
1
1
1
1
1
1
1
1
1
1
1
1
1
1
1
1
1
1
1
1
1
1
1
1
1
1
1
1
1
1
1
1
1
1
1
1
1
1
1
1
1
1
1
1
1
1
1
1
1
1
1
1
1
1
1
1
1
1
1
1
1
1
1
1
1
1
1
1
1
1
1
1
1
1
1
1
1
1
1
1
1
1
1
1
1
1
1
1
1
1
1
1
1
1
1
1
1
1
1
1
1
1
1
1
1
1.36734
2.52622
2.7242
2.72555
2.72966
2.73195
2.73238
2.73292
2.73404
2.73645
2.74247
2.75151
2.76189
2.7721
2.77852
2.77988
2.77831
2.77417
2.76828
2.76324
2.7615
2.76264
2.76669
2.77352
2.78201
2.78803
2.79105
2.79335
2.7945
2.79466
2.79461
2.79511
2.79713
2.80125
2.80689
2.81385
2.8197
2.8223
2.82214
2.82103
2.81952
2.81839
2.81848
2.81964
2.82156
2.8242
2.82781
2.83163
2.83511
2.83828
2.84116
2.8436
2.8455
2.8469
2.8482
2.84987
2.85231
2.85542
2.85872
2.86179
2.86426
2.86545
2.86557
2.86556
2.8658
2.86674
2.86849
2.87054
2.87236
2.8738
2.87496
2.87609
2.87785
2.88116
2.88637
2.89385
2.90463
2.92199
2.95253
3.00344
3.07668
3.16125
3.23475
3.27822
3.29248
1
1
1
1
1
1
1
1
1
1
1
1
1
1
1
1
1
1
1
1
1
1
1
1
1
1
1
1
1
1
1
1
1
1
1
1
1
1
1
1
1
1
1
1
1
1
1
1
1
1
1
1
1
1
1
1
1
1
1
1
1
1
1
1
1
1
1
1
1
1
1
1
1
1
1
1
1
1
1
1
1
1
1
1
1
1
1
1
1
1
1
1
1
1
1
1
1
1
1
1
1
1
1
1
1
1
1
1.28638
2.4772
2.71111
2.72243
2.73009
2.73419
2.73561
2.73635
2.73707
2.73898
2.74393
2.75187
2.7613
2.77087
2.77655
2.77696
2.77503
2.77018
2.76422
2.76019
2.76003
2.76245
2.7676
2.7757
2.78338
2.78811
2.79065
2.79239
2.7933
2.7936
2.79377
2.79446
2.79669
2.80097
2.80673
2.81368
2.81922
2.82146
2.8211
2.81987
2.81845
2.81748
2.81767
2.81894
2.82093
2.8235
2.82694
2.83063
2.83406
2.83717
2.84002
2.84256
2.84468
2.84629
2.84761
2.84915
2.85138
2.85426
2.85744
2.86059
2.86336
2.86486
2.86501
2.86496
2.86509
2.86588
2.86754
2.86958
2.87144
2.87291
2.87409
2.87522
2.87699
2.88033
2.88554
2.89304
2.90387
2.92113
2.9515
3.00227
3.07559
3.16051
3.23445
3.27828
3.29282
1
1
1
1
1
1
1
1
1
1
1
1
1
1
1
1
1
1
1
1
1
1
1
1
1
1
1
1
1
1
1
1
1
1
1
1
1
1
1
1
1
1
1
1
1
1
1
1
1
1
1
1
1
1
1
1
1
1
1
1
1
1
1
1
1
1
1
1
1
1
1
1
1
1
1
1
1
1
1
1
1
1
1
1
1
1
1
1
1
1
1
1
1
1
1
1
1
1
1
1
1
1
1
1
1
1
1
1.18009
2.40985
2.70336
2.72505
2.73394
2.73866
2.74026
2.7403
2.74005
2.74105
2.74503
2.75196
2.76036
2.76919
2.77383
2.77364
2.77105
2.76583
2.76045
2.75773
2.75883
2.76302
2.76925
2.77796
2.78462
2.78815
2.7902
2.79138
2.79188
2.7923
2.79265
2.79357
2.7961
2.80063
2.80658
2.81341
2.8185
2.82037
2.81988
2.81864
2.81741
2.81658
2.81682
2.81811
2.82008
2.82262
2.82602
2.82972
2.83317
2.83622
2.83894
2.84138
2.84354
2.84534
2.84683
2.84841
2.85055
2.85328
2.85631
2.85938
2.86229
2.86404
2.86428
2.86425
2.86434
2.86506
2.86665
2.86862
2.87043
2.87189
2.87307
2.87426
2.87611
2.87952
2.88472
2.89217
2.90291
2.91999
2.95017
3.00089
3.0744
3.15969
3.234
3.27801
3.29261
1
1
1
1
1
1
1
1
1
1
1
1
1
1
1
1
1
1
1
1
1
1
1
1
1
1
1
1
1
1
1
1
1
1
1
1
1
1
1
1
1
1
1
1
1
1
1
1
1
1
1
1
1
1
1
1
1
1
1
1
1
1
1
1
1
1
1
1
1
1
1
1
1
1
1
1
1
1
1
1
1
1
1
1
1
1
1
1
1
1
1
1
1
1
1
1
1
1
1
1
1
1
1
1
1
1
1
1.05308
2.33562
2.70478
2.73243
2.73973
2.74372
2.74369
2.74315
2.74261
2.74294
2.74605
2.7518
2.75906
2.76672
2.77026
2.76971
2.7665
2.76139
2.75712
2.75616
2.75832
2.76409
2.77154
2.77995
2.78562
2.78828
2.78966
2.79022
2.79021
2.79064
2.7912
2.79251
2.7955
2.80038
2.80651
2.81305
2.81756
2.81901
2.81847
2.81738
2.81646
2.81575
2.81603
2.81719
2.81898
2.82144
2.82492
2.82878
2.83237
2.83546
2.83805
2.84025
2.84221
2.84402
2.84571
2.84749
2.8497
2.85243
2.85539
2.85836
2.8612
2.86303
2.86337
2.86337
2.8635
2.86424
2.86579
2.86765
2.86933
2.87073
2.87193
2.87321
2.87524
2.87876
2.88393
2.89124
2.90176
2.91858
2.94857
2.99929
3.07305
3.15873
3.23335
3.27741
3.29196
1
1
1
1
1
1
1
1
1
1
1
1
1
1
1
1
1
1
1
1
1
1
1
1
1
1
1
1
1
1
1
1
1
1
1
1
1
1
1
1
1
1
1
1
1
1
1
1
1
1
1
1
1
1
1
1
1
1
1
1
1
1
1
1
1
1
1
1
1
1
1
1
1
1
1
1
1
1
1
1
1
1
1
1
1
1
1
1
1
1
1
1
1
1
1
1
1
1
1
1
1
1
1
1
1
1
1
1.00095
2.25978
2.70743
2.73711
2.74388
2.74712
2.74643
2.74533
2.74465
2.74431
2.74661
2.75121
2.75738
2.76344
2.76594
2.76502
2.76183
2.7575
2.75462
2.75513
2.75866
2.76546
2.77402
2.78162
2.78635
2.78838
2.78893
2.78882
2.78821
2.78857
2.78942
2.79133
2.79502
2.80034
2.80653
2.81261
2.81643
2.81747
2.81693
2.81613
2.8156
2.81504
2.81535
2.81632
2.81773
2.81995
2.82352
2.82766
2.83154
2.83482
2.83737
2.83932
2.84094
2.84252
2.84423
2.84623
2.84869
2.85158
2.85461
2.85752
2.8602
2.86196
2.86234
2.86232
2.8625
2.86334
2.86491
2.86664
2.86814
2.86945
2.87067
2.87211
2.87438
2.87805
2.88319
2.89026
2.90044
2.91696
2.94673
2.99745
3.07143
3.1575
3.23241
3.2765
3.2909
1
1
1
1
1
1
1
1
1
1
1
1
1
1
1
1
1
1
1
1
1
1
1
1
1
1
1
1
1
1
1
1
1
1
1
1
1
1
1
1
1
1
1
1
1
1
1
1
1
1
1
1
1
1
1
1
1
1
1
1
1
1
1
1
1
1
1
1
1
1
1
1
1
1
1
1
1
1
1
1
1
1
1
1
1
1
1
1
1
1
1
1
1
1
1
1
1
1
1
1
1
1
1
1
1
1
1
1
2.17621
2.70722
2.73973
2.74625
2.74924
2.74844
2.74699
2.74588
2.74501
2.74659
2.75003
2.75493
2.75941
2.76113
2.76017
2.75759
2.75449
2.75311
2.75468
2.75963
2.76718
2.77606
2.78303
2.78688
2.78807
2.78808
2.78707
2.78579
2.78606
2.78729
2.79003
2.79465
2.80047
2.8066
2.81208
2.81516
2.81584
2.81535
2.81492
2.81484
2.81444
2.8148
2.8156
2.81656
2.81832
2.82182
2.82622
2.83051
2.83412
2.83679
2.83863
2.83989
2.84109
2.84258
2.84464
2.84734
2.85052
2.85379
2.85677
2.85935
2.86096
2.86128
2.86118
2.86138
2.86232
2.86395
2.86557
2.86687
2.86808
2.86934
2.87098
2.87354
2.87737
2.88245
2.88922
2.899
2.91521
2.94471
2.99534
3.06947
3.15588
3.23113
3.27534
3.28957
1
1
1
1
1
1
1
1
1
1
1
1
1
1
1
1
1
1
1
1
1
1
1
1
1
1
1
1
1
1
1
1
1
1
1
1
1
1
1
1
1
1
1
1
1
1
1
1
1
1
1
1
1
1
1
1
1
1
1
1
1
1
1
1
1
1
1
1
1
1
1
1
1
1
1
1
1
1
1
1
1
1
1
1
1
1
1
1
1
1
1
1
1
1
1
1
1
1
1
1
1
1
1
1
1
1
1
1
2.08555
2.69918
2.73951
2.74702
2.75032
2.74955
2.74791
2.74633
2.7451
2.7458
2.748
2.75145
2.75485
2.75637
2.75579
2.75415
2.75241
2.75241
2.75483
2.76102
2.76909
2.77763
2.78406
2.7871
2.78738
2.78683
2.78474
2.78304
2.78333
2.78501
2.78868
2.79431
2.80059
2.80652
2.81136
2.81376
2.8142
2.81381
2.81375
2.81408
2.81386
2.81433
2.81505
2.81562
2.81679
2.82002
2.82449
2.82914
2.83315
2.83613
2.83804
2.83908
2.83994
2.84104
2.84292
2.84567
2.8491
2.85272
2.85594
2.85855
2.86005
2.86024
2.86004
2.8602
2.86119
2.86286
2.86437
2.86551
2.86664
2.86799
2.86985
2.87272
2.87668
2.88166
2.88811
2.8975
2.91338
2.94255
2.99296
3.06712
3.15381
3.22947
3.27399
3.28814
1
1
1
1
1
1
1
1
1
1
1
1
1
1
1
1
1
1
1
1
1
1
1
1
1
1
1
1
1
1
1
1
1
1
1
1
1
1
1
1
1
1
1
1
1
1
1
1
1
1
1
1
1
1
1
1
1
1
1
1
1
1
1
1
1
1
1
1
1
1
1
1
1
1
1
1
1
1
1
1
1
1
1
1
1
1
1
1
1
1
1
1
1
1
1
1
1
1
1
1
1
1
1
1
1
1
1
1
1.98895
2.68289
2.73672
2.74614
2.75022
2.74964
2.74795
2.74585
2.74402
2.74366
2.74474
2.74726
2.75031
2.75218
2.75252
2.75189
2.75136
2.75224
2.75568
2.76265
2.77096
2.77907
2.78471
2.7867
2.78633
2.78474
2.7818
2.78017
2.78068
2.78294
2.78748
2.79401
2.80054
2.80614
2.81031
2.81221
2.81258
2.81232
2.81254
2.81324
2.81326
2.81386
2.8146
2.81491
2.81557
2.81842
2.82266
2.82743
2.83173
2.83512
2.83734
2.83841
2.83908
2.83984
2.84133
2.84388
2.84736
2.85126
2.85483
2.85764
2.85916
2.85924
2.85896
2.85904
2.85997
2.86162
2.86303
2.86407
2.8652
2.86668
2.86876
2.8719
2.87593
2.88076
2.88691
2.89597
2.91152
2.94027
2.99032
3.06435
3.15127
3.22743
3.27245
3.28668
1
1
1
1
1
1
1
1
1
1
1
1
1
1
1
1
1
1
1
1
1
1
1
1
1
1
1
1
1
1
1
1
1
1
1
1
1
1
1
1
1
1
1
1
1
1
1
1
1
1
1
1
1
1
1
1
1
1
1
1
1
1
1
1
1
1
1
1
1
1
1
1
1
1
1
1
1
1
1
1
1
1
1
1
1
1
1
1
1
1
1
1
1
1
1
1
1
1
1
1
1
1
1
1
1
1
1
1
1.89005
2.6622
2.73196
2.74358
2.74839
2.74796
2.7463
2.74387
2.7415
2.74027
2.74085
2.74316
2.74644
2.74921
2.75071
2.75085
2.75115
2.75284
2.75714
2.76434
2.77271
2.78033
2.78492
2.78545
2.78446
2.78172
2.77847
2.77732
2.77837
2.78145
2.78685
2.79389
2.80032
2.8054
2.80878
2.81041
2.81095
2.81088
2.81133
2.81229
2.81261
2.81333
2.81403
2.81429
2.81474
2.81711
2.82095
2.82555
2.82991
2.8336
2.83627
2.8377
2.8384
2.83896
2.84007
2.84224
2.8455
2.84945
2.85328
2.85643
2.85816
2.85826
2.85794
2.85792
2.85874
2.86025
2.86152
2.86253
2.86378
2.86545
2.86776
2.87107
2.87508
2.87972
2.88561
2.89439
2.90961
2.9379
2.98746
3.06121
3.14831
3.22503
3.27072
3.28517
1
1
1
1
1
1
1
1
1
1
1
1
1
1
1
1
1
1
1
1
1
1
1
1
1
1
1
1
1
1
1
1
1
1
1
1
1
1
1
1
1
1
1
1
1
1
1
1
1
1
1
1
1
1
1
1
1
1
1
1
1
1
1
1
1
1
1
1
1
1
1
1
1
1
1
1
1
1
1
1
1
1
1
1
1
1
1
1
1
1
1
1
1
1
1
1
1
1
1
1
1
1
1
1
1
1
1
1
1.79028
2.63911
2.72647
2.73908
2.74455
2.74435
2.7429
2.74046
2.73795
2.73647
2.73721
2.73966
2.74388
2.74786
2.75015
2.75094
2.7518
2.75419
2.75887
2.76594
2.77416
2.78096
2.78426
2.78359
2.78148
2.77791
2.77499
2.77476
2.77666
2.7808
2.78703
2.7941
2.80003
2.80427
2.80687
2.80835
2.8092
2.80945
2.81014
2.81129
2.8119
2.81267
2.81331
2.81365
2.81405
2.81606
2.81951
2.82373
2.82789
2.8316
2.83465
2.83666
2.83767
2.83829
2.83918
2.84088
2.84376
2.84748
2.85137
2.8548
2.8569
2.85719
2.85691
2.85683
2.85752
2.85879
2.85988
2.86091
2.86238
2.86432
2.86686
2.87025
2.87415
2.87854
2.88419
2.89272
2.90761
2.93542
2.98442
3.05781
3.14504
3.22234
3.26874
3.28352
1
1
1
1
1
1
1
1
1
1
1
1
1
1
1
1
1
1
1
1
1
1
1
1
1
1
1
1
1
1
1
1
1
1
1
1
1
1
1
1
1
1
1
1
1
1
1
1
1
1
1
1
1
1
1
1
1
1
1
1
1
1
1
1
1
1
1
1
1
1
1
1
1
1
1
1
1
1
1
1
1
1
1
1
1
1
1
1
1
1
1
1
1
1
1
1
1
1
1
1
1
1
1
1
1
1
1
1
1.67991
2.60972
2.72064
2.73301
2.73937
2.73952
2.73811
2.73577
2.73381
2.73323
2.73441
2.73768
2.74294
2.74769
2.75061
2.75205
2.75347
2.75607
2.7606
2.76733
2.7749
2.78074
2.78226
2.78087
2.77758
2.77369
2.77159
2.7724
2.77559
2.78092
2.78786
2.79464
2.79974
2.80292
2.80475
2.80609
2.80727
2.80795
2.80896
2.81031
2.81118
2.81193
2.81246
2.81285
2.8133
2.81511
2.81831
2.82209
2.82586
2.82937
2.83253
2.83505
2.83673
2.83764
2.83851
2.83986
2.84226
2.8456
2.84931
2.8528
2.85525
2.85598
2.85578
2.85574
2.85629
2.85727
2.85814
2.85922
2.86099
2.86327
2.86606
2.86946
2.87314
2.87723
2.8826
2.89087
2.90544
2.93278
2.98125
3.05427
3.1416
3.21944
3.26648
3.28159
1
1
1
1
1
1
1
1
1
1
1
1
1
1
1
1
1
1
1
1
1
1
1
1
1
1
1
1
1
1
1
1
1
1
1
1
1
1
1
1
1
1
1
1
1
1
1
1
1
1
1
1
1
1
1
1
1
1
1
1
1
1
1
1
1
1
1
1
1
1
1
1
1
1
1
1
1
1
1
1
1
1
1
1
1
1
1
1
1
1
1
1
1
1
1
1
1
1
1
1
1
1
1
1
1
1
1
1
1.5533
2.57066
2.71429
2.72617
2.73354
2.73418
2.73288
2.73131
2.73074
2.73134
2.73346
2.73731
2.74327
2.74859
2.75208
2.75401
2.75558
2.75792
2.76196
2.76798
2.77449
2.77909
2.77929
2.77748
2.77332
2.76964
2.7685
2.77022
2.77473
2.78126
2.78892
2.79531
2.79943
2.80156
2.80261
2.80372
2.80512
2.80628
2.80773
2.80938
2.81051
2.81118
2.81148
2.81182
2.81237
2.81414
2.8172
2.82065
2.82401
2.82717
2.83019
2.83294
2.83523
2.83682
2.83789
2.8391
2.84099
2.84393
2.84731
2.85063
2.85335
2.85454
2.85447
2.85454
2.855
2.85568
2.85632
2.85747
2.85958
2.86226
2.86534
2.86871
2.8721
2.87582
2.88085
2.88879
2.90302
2.92996
2.97797
3.0507
3.13812
3.2164
3.26391
3.27928
1
1
1
1
1
1
1
1
1
1
1
1
1
1
1
1
1
1
1
1
1
1
1
1
1
1
1
1
1
1
1
1
1
1
1
1
1
1
1
1
1
1
1
1
1
1
1
1
1
1
1
1
1
1
1
1
1
1
1
1
1
1
1
1
1
1
1
1
1
1
1
1
1
1
1
1
1
1
1
1
1
1
1
1
1
1
1
1
1
1
1
1
1
1
1
1
1
1
1
1
1
1
1
1
1
1
1
1
1.41363
2.52026
2.70745
2.71841
2.72691
2.72922
2.72884
2.72861
2.72926
2.7308
2.73399
2.73853
2.74469
2.75019
2.75382
2.75581
2.75722
2.75914
2.76253
2.76753
2.77269
2.77597
2.77582
2.77389
2.76953
2.76615
2.76582
2.76817
2.77373
2.78137
2.7895
2.79565
2.79888
2.80017
2.80052
2.80137
2.80283
2.80444
2.80643
2.8085
2.8099
2.81047
2.81047
2.81062
2.8112
2.81295
2.81599
2.81929
2.82236
2.82515
2.82787
2.8306
2.83328
2.83547
2.83706
2.83838
2.84
2.84244
2.84547
2.84853
2.85133
2.85287
2.85301
2.8532
2.85357
2.85395
2.85439
2.85568
2.85816
2.86127
2.86466
2.86797
2.87104
2.87435
2.87894
2.88646
2.9003
2.92691
2.97462
3.04718
3.13471
3.21329
3.26103
3.27649
1
1
1
1
1
1
1
1
1
1
1
1
1
1
1
1
1
1
1
1
1
1
1
1
1
1
1
1
1
1
1
1
1
1
1
1
1
1
1
1
1
1
1
1
1
1
1
1
1
1
1
1
1
1
1
1
1
1
1
1
1
1
1
1
1
1
1
1
1
1
1
1
1
1
1
1
1
1
1
1
1
1
1
1
1
1
1
1
1
1
1
1
1
1
1
1
1
1
1
1
1
1
1
1
1
1
1
1
1.27296
2.4588
2.70202
2.71245
2.72188
2.72597
2.72734
2.72821
2.72928
2.73156
2.73562
2.74052
2.74633
2.7515
2.75494
2.75682
2.75795
2.75937
2.76195
2.76568
2.76964
2.7721
2.77207
2.77064
2.76692
2.76397
2.7641
2.76684
2.77285
2.78104
2.78928
2.79523
2.79783
2.79851
2.79847
2.79915
2.80058
2.80254
2.80509
2.80763
2.8093
2.80975
2.80943
2.80926
2.80976
2.81147
2.81456
2.81791
2.82085
2.82338
2.82579
2.82834
2.83104
2.83365
2.83579
2.83743
2.83903
2.84108
2.84381
2.84663
2.84932
2.85107
2.85149
2.8517
2.85196
2.85207
2.85236
2.85385
2.85673
2.86026
2.86394
2.8672
2.86995
2.87286
2.87692
2.88388
2.89729
2.92364
2.97119
3.04373
3.13139
3.21016
3.25785
3.2732
1
1
1
1
1
1
1
1
1
1
1
1
1
1
1
1
1
1
1
1
1
1
1
1
1
1
1
1
1
1
1
1
1
1
1
1
1
1
1
1
1
1
1
1
1
1
1
1
1
1
1
1
1
1
1
1
1
1
1
1
1
1
1
1
1
1
1
1
1
1
1
1
1
1
1
1
1
1
1
1
1
1
1
1
1
1
1
1
1
1
1
1
1
1
1
1
1
1
1
1
1
1
1
1
1
1
1
1
1.14185
2.39109
2.69661
2.71158
2.72082
2.7253
2.72741
2.72899
2.73085
2.73398
2.73815
2.74222
2.74723
2.75184
2.755
2.75664
2.75737
2.75823
2.75985
2.76251
2.76579
2.76818
2.76862
2.76782
2.76542
2.76333
2.76375
2.76663
2.77263
2.78063
2.7885
2.79383
2.79607
2.79649
2.79637
2.79702
2.79846
2.80073
2.8038
2.80679
2.80868
2.80897
2.80832
2.80774
2.80807
2.80969
2.81287
2.81643
2.81941
2.82184
2.82402
2.8263
2.82882
2.8315
2.83397
2.83601
2.83778
2.83972
2.84218
2.84485
2.84745
2.84933
2.84997
2.8501
2.8502
2.85004
2.85025
2.85199
2.85528
2.85921
2.86311
2.8663
2.8688
2.87131
2.87478
2.88111
2.89406
2.92019
2.96768
3.04029
3.1281
3.20696
3.25444
3.26949
1
1
1
1
1
1
1
1
1
1
1
1
1
1
1
1
1
1
1
1
1
1
1
1
1
1
1
1
1
1
1
1
1
1
1
1
1
1
1
1
1
1
1
1
1
1
1
1
1
1
1
1
1
1
1
1
1
1
1
1
1
1
1
1
1
1
1
1
1
1
1
1
1
1
1
1
1
1
1
1