/*--------------------------------*- C++ -*----------------------------------*\
  =========                 |
  \\      /  F ield         | OpenFOAM: The Open Source CFD Toolbox
   \\    /   O peration     | Website:  https://openfoam.org
    \\  /    A nd           | Version:  7
     \\/     M anipulation  |
\*---------------------------------------------------------------------------*/
FoamFile
{
    version     2.0;
    format      ascii;
    class       volScalarField;
    location    "0.9";
    object      rho;
}
// * * * * * * * * * * * * * * * * * * * * * * * * * * * * * * * * * * * * * //

dimensions      [1 -3 0 0 0 0 0];

internalField   nonuniform List<scalar> 
4032
(
1.40001
1.40001
1.40001
1.40001
1.40001
1.40001
1.40001
1.40001
1.40001
1.40001
1.40001
1.40001
1.40001
2.53052
5.22097
5.55248
5.58709
5.62602
5.66766
5.70912
5.72232
5.66294
5.559
5.49533
1.40001
1.40001
1.40001
1.40001
1.40001
1.40001
1.40001
1.40001
1.40001
1.40001
1.40001
1.40001
1.40001
2.47273
5.16583
5.53842
5.5768
5.61607
5.65624
5.6965
5.70879
5.64674
5.53852
5.47143
1.40001
1.40001
1.40001
1.40001
1.40001
1.40001
1.40001
1.40001
1.40001
1.40001
1.40001
1.40001
1.40001
2.34715
5.08202
5.51952
5.55811
5.59832
5.63934
5.68023
5.69167
5.62558
5.51013
5.43767
1.40001
1.40001
1.40001
1.40001
1.40001
1.40001
1.40001
1.40001
1.40001
1.40001
1.40001
1.40001
1.40001
2.16934
4.95886
5.5087
5.53452
5.57429
5.61441
5.65552
5.66512
5.59308
5.46863
5.38704
1.40001
1.40001
1.40001
1.40001
1.40001
1.40001
1.40001
1.40001
1.40001
1.40001
1.40001
1.40001
1.40001
1.92423
4.78154
5.50776
5.50293
5.54167
5.58049
5.61693
5.61776
5.53768
5.40562
5.32561
1.40001
1.40001
1.40001
1.40001
1.40001
1.40001
1.40001
1.40001
1.40001
1.40001
1.40001
1.40001
1.40001
1.65054
4.53758
5.52811
5.48546
5.50814
5.53498
5.56215
5.55453
5.47205
5.3365
5.23288
1.40001
1.40001
1.40001
1.40001
1.40001
1.40001
1.40001
1.40001
1.40001
1.40001
1.40001
1.40001
1.40001
1.4227
4.07659
5.44497
5.41286
5.43174
5.46262
5.48844
5.46659
5.35641
5.18926
5.08475
1.40001
1.40001
1.40001
1.40001
1.40001
1.40001
1.40001
1.40001
1.40001
1.40001
1.40001
1.40001
1.40001
1.40024
3.41479
5.28471
5.36057
5.37681
5.4035
5.41579
5.38023
5.26386
5.05248
4.90946
1.40001
1.40001
1.40001
1.40001
1.40001
1.40001
1.40001
1.40001
1.40001
1.40001
1.40001
1.40001
1.40001
1.40001
2.68392
5.05256
5.34267
5.32355
5.33923
5.33799
5.27372
5.1094
4.68513
3.7371
1.40001
1.40001
1.40001
1.40001
1.40001
1.40001
1.40001
1.40001
1.40001
1.40001
1.40001
1.40001
1.40001
1.40001
1.95271
4.78412
5.38606
5.31361
5.26349
5.22044
5.11352
4.89881
4.4686
3.53311
1.40001
1.40001
1.40001
1.40001
1.40001
1.40001
1.40001
1.40001
1.40001
1.40001
1.40001
1.40001
1.40001
1.40001
1.46753
4.15761
5.26918
5.20798
5.16687
5.0911
4.94084
4.69201
4.28962
3.45243
1.40001
1.40001
1.40001
1.40001
1.40001
1.40001
1.40001
1.40001
1.40001
1.40001
1.40001
1.40001
1.40001
1.40001
1.40068
3.13623
5.09007
5.1685
5.11916
5.01139
4.82185
4.57401
4.1347
3.48397
1.40001
1.40001
1.40001
1.40001
1.40001
1.40001
1.40001
1.40001
1.40001
1.40001
1.40001
1.40001
1.40001
1.40001
1.4
2.06375
4.80745
5.21892
5.083
4.92442
4.70807
4.44709
4.03212
3.51786
1.40001
1.40001
1.40001
1.40001
1.40001
1.40001
1.40001
1.40001
1.40001
1.40001
1.40001
1.40001
1.40001
1.40001
1.4
1.47686
4.02814
5.12186
4.9655
4.8164
4.61198
4.34409
3.98748
3.57423
1.40001
1.40001
1.40001
1.40001
1.40001
1.40001
1.40001
1.40001
1.40001
1.40001
1.40001
1.40001
1.40001
1.40001
1.40001
1.40057
2.7503
4.94246
4.93204
4.79978
4.57752
4.30609
3.97753
3.61631
1.40001
1.40001
1.40001
1.40001
1.40001
1.40001
1.40001
1.40001
1.40001
1.40001
1.40001
1.40001
1.40001
1.40001
1.40001
1.4
1.65622
4.33725
4.94891
4.76525
4.54929
4.29054
3.98841
3.66769
1.40001
1.40001
1.40001
1.40001
1.40001
1.40001
1.40001
1.40001
1.40001
1.40001
1.40001
1.40001
1.40001
1.40001
1.40001
1.4
1.40794
3.02597
4.77407
4.72293
4.53735
4.30431
4.02724
3.73528
1.40001
1.40001
1.40001
1.40001
1.40001
1.40001
1.40001
1.40001
1.40001
1.40001
1.40001
1.40001
1.40001
1.40001
1.40001
1.40001
1.40001
1.76095
4.24571
4.78549
4.56248
4.33793
4.0766
3.80277
1.40001
1.40001
1.40001
1.40001
1.40001
1.40001
1.40001
1.40001
1.40001
1.40001
1.40001
1.40001
1.40001
1.40001
1.40001
1.40001
1.40001
1.4157
2.7983
4.61172
4.58322
4.3672
4.13609
3.88141
1.40001
1.40001
1.40001
1.40001
1.40001
1.40001
1.40001
1.40001
1.40001
1.40001
1.40001
1.40001
1.40001
1.40001
1.40001
1.40001
1.40001
1.40008
1.6544
3.84401
4.64948
4.43778
4.20432
3.95841
1.40001
1.40001
1.40001
1.40001
1.40001
1.40001
1.40001
1.40001
1.40001
1.40001
1.40001
1.40001
1.40001
1.40001
1.40001
1.40001
1.40001
1.40001
1.40731
2.29898
4.30999
4.51859
4.27077
4.0518
1.40001
1.40001
1.40001
1.40001
1.40001
1.40001
1.40001
1.40001
1.40001
1.40001
1.40001
1.40001
1.40001
1.40001
1.40001
1.40001
1.40001
1.40001
1.40004
1.49772
3.06779
4.40092
4.32736
4.1045
1.40001
1.40001
1.40001
1.40001
1.40001
1.40001
1.40001
1.40001
1.40001
1.40001
1.40001
1.40001
1.40001
1.40001
1.40001
1.40001
1.40001
1.40001
1.40001
1.40158
1.77377
3.64082
4.361
4.22061
1.40001
1.40001
1.40001
1.40001
1.40001
1.40001
1.40001
1.40001
1.40001
1.40001
1.40001
1.40001
1.40001
1.40001
1.40001
1.40001
1.40001
1.40001
1.40001
1.40001
1.41677
2.18026
3.91741
4.27801
1.40001
1.40001
1.40001
1.40001
1.40001
1.40001
1.40001
1.40001
1.40001
1.40001
1.40001
1.40001
1.40001
1.40001
1.40001
1.40001
1.40001
1.40001
1.40001
1.40001
1.40014
1.47309
2.56661
4.03408
1.40001
1.40001
1.40001
1.40001
1.40001
1.40001
1.40001
1.40001
1.40001
1.40001
1.40001
1.40001
1.40001
1.40001
1.40001
1.40001
1.40001
1.40001
1.40001
1.40001
1.40001
1.40118
1.57179
2.86789
1.40001
1.40001
1.40001
1.40001
1.40001
1.40001
1.40001
1.40001
1.40001
1.40001
1.40001
1.40001
1.40001
1.40001
1.40001
1.40001
1.40001
1.40001
1.40001
1.40001
1.40001
1.40001
1.40454
1.68842
1.40001
1.40001
1.40001
1.40001
1.40001
1.40001
1.40001
1.40001
1.40001
1.40001
1.40001
1.40001
1.40001
1.40001
1.40001
1.40001
1.40001
1.40001
1.40001
1.40001
1.40001
1.40001
1.40003
1.41112
1.40001
1.40001
1.40001
1.40001
1.40001
1.40001
1.40001
1.40001
1.40001
1.40001
1.40001
1.40001
1.40001
1.40001
1.40001
1.40001
1.40001
1.40001
1.40001
1.40001
1.40001
1.40001
1.40001
1.40008
1.40001
1.40001
1.40001
1.40001
1.40001
1.40001
1.40001
1.40001
1.40001
1.40001
1.40001
1.40001
1.40001
1.40001
1.40001
1.40001
1.40001
1.40001
1.40001
1.40001
1.40001
1.40001
1.40001
1.40001
1.40001
1.40001
1.40001
1.40001
1.40001
1.40001
1.40001
1.40001
1.40001
1.40001
1.40001
1.40001
1.40001
1.40001
1.40001
1.40001
1.40001
1.40001
1.40001
1.40001
1.40001
1.40001
1.40001
1.40001
1.40001
1.40001
1.40001
1.40001
1.40001
1.40001
1.40001
1.40001
1.40001
1.40001
1.40001
1.40001
1.40001
1.40001
1.40001
1.40001
1.40001
1.40001
1.40001
1.40001
1.40001
1.40001
1.40001
1.40001
1.40001
1.40001
1.40001
1.40001
1.40001
1.40001
1.40001
1.40001
1.40001
1.40001
1.40001
1.40001
1.40001
1.40001
1.40001
1.40001
1.40001
1.40001
1.40001
1.40001
1.40001
1.40001
1.40001
1.40001
1.40001
1.40001
1.40001
1.40001
1.40001
1.40001
1.40001
1.40001
1.40001
1.40001
1.40001
1.40001
1.40001
1.40001
1.40001
1.40001
1.40001
1.40001
1.40001
1.40001
1.40001
1.40001
1.40001
1.40001
1.40001
1.40001
1.40001
1.40001
1.40001
1.40001
1.40001
1.40001
1.40001
1.40001
1.40001
1.40001
1.40001
1.40001
1.40001
1.40001
1.40001
1.40001
1.40001
1.40001
1.40001
1.40001
1.40001
1.40001
1.40001
1.40001
1.40001
1.40001
1.40001
1.40001
1.40001
1.40001
1.40001
1.40001
1.40001
1.40001
1.40001
1.40001
1.40001
1.40001
1.40001
1.40001
1.40001
1.40001
1.40001
1.40001
1.40001
1.40001
1.40001
1.40001
1.40001
1.40001
1.40001
1.40001
1.40001
1.40001
1.40001
1.40001
1.40001
1.40001
1.40001
1.40001
1.40001
1.40001
1.40001
1.40001
1.40001
1.40001
1.40001
1.40001
1.40001
1.40001
1.40001
1.40001
1.40001
1.40001
1.40001
1.40001
1.40001
1.40001
1.40001
1.40001
1.40001
1.40001
1.40001
1.40001
1.40001
1.40001
1.40001
1.40001
1.40001
1.40001
1.40001
1.40001
1.40001
1.40001
1.40001
1.40001
1.40001
1.40001
1.40001
1.40001
1.40001
1.40001
1.40001
1.40001
1.40001
1.40001
1.40001
1.40001
1.40001
1.40001
1.40001
1.40001
1.40001
1.40001
1.40001
1.40001
1.40001
1.40001
1.40001
1.40001
1.40001
1.40001
1.40001
1.40001
1.40001
1.40001
1.40001
1.40001
1.40001
1.40001
1.40001
1.40001
1.40001
1.40001
1.40001
1.40001
1.40001
1.40001
1.40001
1.40001
1.40001
1.40001
1.19569
0.425725
0.264349
0.203392
0.191512
0.212069
0.292249
0.409853
0.528073
0.606629
0.671453
0.730406
0.745248
0.760631
0.790582
0.812848
0.813101
0.815632
0.825238
0.83305
0.838577
0.83686
0.831607
0.823833
0.812177
0.804726
0.800906
0.795652
0.788902
0.778276
0.767758
0.764577
0.765152
0.764562
0.759921
0.749077
0.733597
0.719203
0.711216
0.708185
0.70634
0.704962
0.704274
0.70315
0.700616
0.697179
0.691971
0.685425
0.678808
0.670756
0.665674
0.663566
0.663254
0.663444
0.662666
0.660634
0.655841
0.645789
0.631871
0.62001
0.616103
0.61755
0.622953
0.633279
0.646937
0.657219
0.661039
0.662193
0.658871
0.64639
0.643734
0.648686
0.65519
0.663604
0.675042
0.682508
0.683983
0.684078
0.681176
0.681289
0.684218
0.691456
0.707166
0.731627
0.75967
0.779884
0.782504
0.780715
0.774621
0.767679
0.769065
0.776346
0.790151
0.811805
0.841301
0.915059
1.88635
1.09241
0.769603
0.642146
0.529132
0.474328
0.487775
0.50182
0.506238
0.528747
0.564578
0.613613
0.667314
0.716462
0.758163
0.789787
0.801166
0.808322
0.823704
0.84639
0.855172
0.852487
0.849809
0.846599
0.841486
0.835938
0.831686
0.826503
0.819193
0.81039
0.799844
0.790405
0.784363
0.780089
0.772972
0.761765
0.748445
0.736017
0.727317
0.723189
0.720393
0.717438
0.713921
0.710478
0.708419
0.705665
0.700719
0.693865
0.68681
0.679932
0.673566
0.668495
0.665442
0.664196
0.663361
0.661478
0.657067
0.650789
0.644768
0.640009
0.635098
0.63225
0.633664
0.639222
0.648839
0.656174
0.65953
0.661621
0.661707
0.659231
0.654503
0.655118
0.65998
0.666133
0.673587
0.68117
0.686357
0.688084
0.689293
0.691306
0.695187
0.702305
0.715226
0.734843
0.757958
0.776078
0.783579
0.784167
0.784042
0.781212
0.780483
0.785632
0.79669
0.814172
0.839998
0.909023
2.37078
1.71652
1.27471
1.03009
0.856801
0.729714
0.689414
0.661205
0.598532
0.591276
0.610665
0.642036
0.681719
0.726068
0.760445
0.790772
0.816335
0.837499
0.86511
0.906616
0.921691
0.918837
0.922159
0.928132
0.925624
0.916411
0.900269
0.889425
0.882362
0.872459
0.858581
0.843761
0.83103
0.822245
0.812747
0.80047
0.788262
0.776499
0.770162
0.76731
0.765029
0.762355
0.759297
0.75453
0.747341
0.739188
0.731292
0.722917
0.71466
0.708432
0.703435
0.698243
0.692117
0.684982
0.677293
0.670219
0.663437
0.658709
0.658031
0.658596
0.659598
0.661255
0.663357
0.664401
0.664799
0.664816
0.663681
0.663329
0.667113
0.671267
0.673987
0.676594
0.6789
0.680074
0.681167
0.683259
0.68652
0.692789
0.699502
0.704557
0.709978
0.717677
0.729928
0.747109
0.763638
0.776187
0.788189
0.794765
0.795958
0.795522
0.795479
0.800542
0.812435
0.830008
0.853949
0.922003
2.75341
2.16646
1.752
1.46665
1.23256
1.03204
0.94274
0.885629
0.803483
0.743567
0.731852
0.70668
0.688337
0.694456
0.711195
0.736557
0.768392
0.804897
0.842415
0.889447
0.916639
0.919976
0.927864
0.947792
0.968347
0.968155
0.959701
0.959403
0.958028
0.950542
0.934334
0.914131
0.893016
0.877284
0.86357
0.84911
0.83663
0.825637
0.820773
0.818852
0.816145
0.812582
0.809168
0.804456
0.795982
0.786036
0.778152
0.770248
0.761509
0.754091
0.748613
0.743206
0.736452
0.726865
0.715431
0.705488
0.697303
0.692298
0.690723
0.690412
0.69215
0.69401
0.695105
0.693584
0.690476
0.690719
0.690889
0.690166
0.690486
0.693141
0.696965
0.700368
0.702246
0.703922
0.706109
0.708361
0.711161
0.716809
0.722986
0.726817
0.730851
0.736496
0.745707
0.759784
0.775207
0.789283
0.804869
0.819472
0.824286
0.825798
0.828157
0.833302
0.843899
0.860272
0.882308
0.944556
2.9897
2.51038
2.10839
1.81125
1.55951
1.3391
1.22174
1.11934
0.998408
0.893436
0.85795
0.818412
0.760249
0.727491
0.732664
0.748724
0.752091
0.761563
0.784034
0.818903
0.852687
0.874181
0.893659
0.922242
0.957837
0.969792
0.967949
0.969158
0.978455
0.983098
0.981508
0.974409
0.957134
0.935285
0.91443
0.895937
0.881632
0.867495
0.859173
0.857584
0.85797
0.857753
0.855237
0.850696
0.8421
0.832216
0.825799
0.81956
0.811156
0.801841
0.794438
0.787912
0.778568
0.764218
0.749559
0.740028
0.735596
0.733638
0.733142
0.735283
0.736408
0.735079
0.73019
0.719975
0.714115
0.715009
0.718131
0.722941
0.727527
0.730864
0.732788
0.73342
0.731401
0.729094
0.730887
0.734553
0.740624
0.750193
0.759202
0.763567
0.76618
0.768866
0.772089
0.777415
0.786973
0.801872
0.821989
0.844774
0.861366
0.868704
0.87468
0.883286
0.89555
0.914451
0.939478
1.00033
3.15133
2.74033
2.38229
2.10344
1.83369
1.59369
1.45026
1.3357
1.21318
1.0986
1.03624
0.979408
0.902209
0.844372
0.841909
0.830217
0.800607
0.78231
0.786822
0.78633
0.781597
0.786262
0.802432
0.83565
0.879565
0.920947
0.945624
0.957403
0.97239
0.984223
0.984696
0.982664
0.975572
0.967357
0.956878
0.943972
0.930504
0.91415
0.896789
0.887643
0.884068
0.880744
0.877224
0.87462
0.870446
0.865257
0.862568
0.860148
0.854516
0.844809
0.83443
0.825049
0.810603
0.790264
0.778301
0.772964
0.769504
0.768104
0.769945
0.772891
0.772009
0.768538
0.759441
0.746401
0.742294
0.743154
0.745885
0.752373
0.76086
0.764809
0.766095
0.766545
0.764313
0.761292
0.762278
0.766109
0.773209
0.782768
0.792159
0.799931
0.803346
0.80448
0.804239
0.805155
0.81044
0.822382
0.84187
0.867052
0.89053
0.907197
0.92036
0.934501
0.949604
0.972336
1.00241
1.06794
3.26236
2.90856
2.57646
2.31781
2.07016
1.83799
1.67396
1.53706
1.3875
1.27188
1.19898
1.13616
1.05749
0.984829
0.95107
0.917246
0.876815
0.830374
0.812549
0.802727
0.785715
0.782951
0.784861
0.791561
0.806682
0.830163
0.862557
0.889823
0.913455
0.934446
0.952542
0.971485
0.976314
0.971556
0.962897
0.95599
0.952145
0.943524
0.928717
0.915923
0.906134
0.899578
0.895387
0.894296
0.892708
0.88807
0.88399
0.882288
0.878355
0.870146
0.857329
0.842737
0.82481
0.808129
0.802668
0.799475
0.79746
0.797679
0.799878
0.799055
0.796902
0.792148
0.780187
0.768751
0.766683
0.767258
0.76974
0.777706
0.788242
0.791624
0.792803
0.793645
0.792911
0.792407
0.79395
0.798563
0.805631
0.814291
0.823047
0.830466
0.834994
0.836338
0.836748
0.837718
0.842166
0.853098
0.871549
0.894984
0.918474
0.939344
0.958008
0.977087
0.998802
1.03285
1.07715
1.14956
3.35728
3.04218
2.746
2.499
2.2579
2.0358
1.86594
1.72114
1.57835
1.45464
1.35296
1.26505
1.18939
1.13026
1.08371
1.03476
0.989034
0.944505
0.909443
0.878592
0.848677
0.82066
0.814046
0.809316
0.796971
0.783493
0.787475
0.795624
0.811638
0.840456
0.875186
0.911426
0.953863
0.955113
0.952104
0.955592
0.955449
0.94928
0.935726
0.92901
0.926429
0.922271
0.920468
0.919838
0.917993
0.914229
0.905196
0.894884
0.887167
0.879336
0.867158
0.849695
0.833873
0.826814
0.823338
0.821096
0.82024
0.82038
0.819507
0.817416
0.814885
0.808863
0.797096
0.788953
0.787263
0.787263
0.789249
0.797717
0.809455
0.814149
0.815623
0.817573
0.8192
0.820044
0.821424
0.82533
0.832542
0.842167
0.851035
0.857361
0.862476
0.866524
0.869003
0.871443
0.876774
0.888104
0.905749
0.926182
0.946735
0.96751
0.988892
1.01353
1.04677
1.09731
1.15355
1.21619
3.44648
3.15654
2.88116
2.64534
2.42106
2.21792
2.04931
1.88218
1.72038
1.6116
1.51372
1.41543
1.31597
1.25541
1.19707
1.13589
1.07864
1.03969
1.00739
0.966623
0.923542
0.877271
0.859155
0.843152
0.817713
0.791536
0.79034
0.797499
0.791267
0.788764
0.796659
0.818369
0.85666
0.898456
0.915324
0.933231
0.948496
0.947766
0.936578
0.930461
0.930911
0.933198
0.939295
0.945149
0.945612
0.942233
0.932488
0.914671
0.898209
0.885638
0.872869
0.859046
0.849666
0.845769
0.84287
0.841047
0.839888
0.837369
0.834259
0.831284
0.827381
0.821363
0.814611
0.810409
0.808718
0.808821
0.811396
0.81782
0.825011
0.829913
0.833193
0.837096
0.84222
0.844374
0.846106
0.850465
0.858525
0.867272
0.87446
0.880687
0.886751
0.893069
0.899501
0.905926
0.913959
0.926426
0.942891
0.959688
0.976728
0.996466
1.02114
1.0556
1.10572
1.16761
1.20598
1.24288
3.52584
3.25138
3.00183
2.77636
2.5536
2.35832
2.1967
2.03624
1.87484
1.74637
1.641
1.53368
1.43771
1.37978
1.32509
1.26165
1.16941
1.11196
1.09013
1.05832
1.01792
0.966272
0.942651
0.922879
0.891341
0.842397
0.82498
0.822431
0.809117
0.791886
0.780551
0.781099
0.786445
0.803523
0.829327
0.85839
0.894974
0.929624
0.93281
0.927724
0.930239
0.93413
0.9392
0.951366
0.958798
0.959552
0.954902
0.939731
0.916533
0.895975
0.883147
0.876401
0.870527
0.864835
0.859067
0.85605
0.853824
0.850939
0.847572
0.843572
0.838905
0.835617
0.834015
0.832654
0.831289
0.830859
0.831819
0.833654
0.836251
0.840711
0.846567
0.853227
0.860916
0.866538
0.871234
0.877262
0.883585
0.888689
0.894049
0.900977
0.909361
0.918675
0.92886
0.939515
0.950998
0.964609
0.978795
0.992269
1.00815
1.03026
1.0631
1.1127
1.17271
1.21364
1.22826
1.25409
3.6175
3.35501
3.11491
2.89885
2.68539
2.49742
2.33377
2.16553
2.00132
1.87815
1.77492
1.66971
1.55032
1.46602
1.41778
1.3665
1.28824
1.2084
1.1695
1.13291
1.08869
1.03755
1.01591
0.994682
0.959881
0.912226
0.870048
0.85617
0.839065
0.8129
0.789433
0.788998
0.787414
0.780302
0.780252
0.787303
0.809021
0.848495
0.878307
0.891323
0.907005
0.925676
0.932422
0.942024
0.955131
0.960611
0.959783
0.952672
0.933643
0.911659
0.904215
0.898523
0.891239
0.884487
0.876569
0.868511
0.865593
0.86341
0.861679
0.859066
0.855969
0.854136
0.853153
0.851621
0.849519
0.845492
0.843759
0.844233
0.846118
0.850429
0.858518
0.869831
0.879974
0.88787
0.894774
0.899924
0.902645
0.905164
0.909955
0.919004
0.931667
0.945362
0.95907
0.972336
0.984584
0.995569
1.00548
1.01747
1.03681
1.06925
1.11872
1.17703
1.21396
1.22816
1.23849
1.26611
3.70451
3.45418
3.22497
3.0148
2.80814
2.61887
2.45373
2.2954
2.13935
2.00142
1.88612
1.78168
1.67629
1.58439
1.51035
1.44799
1.3757
1.29753
1.25384
1.22108
1.1746
1.11375
1.08939
1.06803
1.03379
0.984805
0.934634
0.919853
0.903917
0.876022
0.841397
0.829439
0.819361
0.798096
0.78076
0.78007
0.783463
0.790787
0.8021
0.816677
0.839686
0.876113
0.912563
0.924889
0.936393
0.951073
0.957277
0.952407
0.941186
0.933394
0.930776
0.925199
0.914772
0.903466
0.892394
0.881488
0.877535
0.875869
0.87545
0.876645
0.875679
0.87262
0.869974
0.866588
0.860113
0.853423
0.851963
0.852344
0.854426
0.859725
0.870059
0.88673
0.900818
0.909274
0.914018
0.916721
0.918713
0.921445
0.927642
0.940575
0.958871
0.977483
0.992585
1.00384
1.0123
1.01896
1.02625
1.03992
1.07011
1.12247
1.17941
1.21384
1.22805
1.23766
1.24744
1.28167
3.81785
3.57519
3.34333
3.13538
2.94139
2.75645
2.57998
2.4135
2.26659
2.13113
2.0074
1.8923
1.78656
1.68561
1.60103
1.54203
1.47996
1.39235
1.32638
1.29513
1.25408
1.19492
1.16627
1.14548
1.11359
1.05768
0.990167
0.971839
0.957014
0.929821
0.893249
0.873266
0.860015
0.837599
0.806354
0.788666
0.789063
0.791532
0.788013
0.786729
0.791899
0.8105
0.837509
0.866429
0.885945
0.907468
0.940355
0.946805
0.939944
0.942507
0.947676
0.946608
0.939557
0.924618
0.906727
0.89584
0.891774
0.889559
0.889437
0.892213
0.89155
0.887342
0.882438
0.875655
0.866657
0.863359
0.863806
0.865703
0.871735
0.883175
0.897569
0.916384
0.935402
0.941916
0.944241
0.948092
0.953288
0.960243
0.973003
0.991939
1.01148
1.03145
1.04083
1.04287
1.0443
1.04733
1.05368
1.07221
1.12
1.18129
1.21376
1.22773
1.23854
1.24871
1.26153
1.31031
3.88468
3.66488
3.44679
3.2322
3.03598
2.86529
2.70283
2.54235
2.3908
2.24918
2.11769
2.00567
1.91085
1.80646
1.69179
1.62229
1.57274
1.50297
1.43358
1.38949
1.33751
1.25909
1.22229
1.2114
1.18865
1.13938
1.06821
1.0369
1.01953
0.992017
0.948332
0.927643
0.919634
0.901635
0.866023
0.828769
0.82152
0.818619
0.808067
0.795773
0.795757
0.791955
0.787582
0.792712
0.806309
0.828807
0.866759
0.913065
0.929008
0.939747
0.951122
0.951835
0.948202
0.937975
0.923563
0.916303
0.913369
0.910516
0.908529
0.910487
0.910273
0.906305
0.89885
0.895309
0.899608
0.910882
0.927968
0.950671
0.980854
1.0174
1.04794
1.06963
1.09177
1.10467
1.10631
1.11115
1.12416
1.14162
1.15967
1.17925
1.18549
1.18149
1.17137
1.15749
1.14258
1.13754
1.1388
1.15731
1.20483
1.23125
1.23654
1.24341
1.25253
1.26304
1.28308
1.3425
3.98855
3.75607
3.53845
3.33925
3.15371
2.97251
2.80097
2.6508
2.50993
2.37097
2.22439
2.10228
2.00745
1.91281
1.80639
1.72421
1.663
1.58491
1.51568
1.47979
1.43711
1.3631
1.29188
1.26847
1.24303
1.1985
1.13978
1.10892
1.08951
1.06072
1.01272
0.983657
0.972628
0.952833
0.915512
0.87103
0.858056
0.855335
0.844823
0.825393
0.812564
0.806336
0.792566
0.779867
0.779822
0.784927
0.80243
0.841683
0.886472
0.91317
0.937537
0.949685
0.950503
0.942749
0.937293
0.935577
0.939202
0.949145
0.957651
0.973869
0.993775
1.0113
1.03139
1.05784
1.09424
1.13921
1.18643
1.23205
1.27909
1.3274
1.36633
1.3849
1.39793
1.41466
1.42718
1.4384
1.4545
1.47657
1.49718
1.50447
1.50037
1.48528
1.46419
1.44473
1.42761
1.41717
1.41675
1.41943
1.40786
1.37736
1.33924
1.31466
1.31107
1.31557
1.33364
1.37281
4.11816
3.87706
3.66056
3.45967
3.26713
3.08585
2.91961
2.76319
2.61754
2.48142
2.34293
2.21921
2.115
2.01338
1.89811
1.82026
1.76523
1.69359
1.60831
1.55661
1.51262
1.44739
1.37555
1.3418
1.31163
1.26594
1.19892
1.16328
1.14857
1.12548
1.07977
1.04697
1.03392
1.01433
0.977256
0.92792
0.913321
0.910717
0.899357
0.875697
0.852832
0.840673
0.823591
0.796698
0.789774
0.79083
0.794535
0.805938
0.829587
0.852162
0.878882
0.913487
0.944404
0.950164
0.960776
0.983715
1.02784
1.09451
1.17257
1.24696
1.30772
1.35399
1.38892
1.41824
1.44683
1.47168
1.48994
1.50431
1.52039
1.53797
1.5592
1.57798
1.58543
1.59796
1.61999
1.6405
1.65832
1.6777
1.6952
1.70158
1.69761
1.69318
1.69152
1.69313
1.70466
1.72263
1.73173
1.72921
1.71532
1.67733
1.61683
1.56657
1.53965
1.52624
1.51312
1.46697
4.17805
4.00984
3.77565
3.58021
3.40269
3.21972
3.03807
2.87398
2.72788
2.5913
2.45578
2.32665
2.22093
2.13081
2.02193
1.92157
1.85601
1.78385
1.70152
1.64967
1.60516
1.53806
1.44728
1.40589
1.38009
1.33739
1.27819
1.23294
1.21348
1.18673
1.13867
1.10017
1.08965
1.07507
1.04269
0.990452
0.970408
0.964536
0.949626
0.921626
0.892113
0.87432
0.854954
0.824697
0.805577
0.804176
0.805837
0.811837
0.817313
0.822912
0.835556
0.863861
0.913914
1.00026
1.09863
1.21042
1.33436
1.44596
1.52749
1.5747
1.603
1.62503
1.63746
1.64388
1.64361
1.63447
1.62025
1.61102
1.60499
1.60025
1.60192
1.61853
1.63221
1.64395
1.66438
1.69034
1.70771
1.71951
1.73454
1.7533
1.75803
1.76058
1.77101
1.79436
1.8272
1.84993
1.85807
1.86098
1.85903
1.84232
1.81456
1.80338
1.80094
1.79547
1.7827
1.70911
4.03903
4.0982
3.93442
3.70937
3.50696
3.34395
3.1865
3.01493
2.83384
2.68826
2.5772
2.45492
2.32852
2.22697
2.12797
2.03379
1.96444
1.89256
1.79224
1.72141
1.68291
1.62663
1.54436
1.48971
1.45361
1.40761
1.34265
1.30191
1.28405
1.25809
1.20904
1.15695
1.14514
1.13304
1.1049
1.05651
1.03462
1.02536
1.00574
0.974024
0.941513
0.92389
0.907264
0.880802
0.851264
0.846215
0.849442
0.857897
0.874937
0.910127
0.971208
1.06395
1.18991
1.30988
1.41975
1.52476
1.60757
1.65203
1.66485
1.6615
1.66237
1.67217
1.68585
1.69411
1.68615
1.66325
1.64299
1.63272
1.6244
1.61625
1.61358
1.62246
1.63864
1.64955
1.66609
1.68522
1.69803
1.70945
1.72554
1.74635
1.76188
1.77687
1.80067
1.82939
1.85054
1.86349
1.86738
1.86651
1.86253
1.86114
1.8628
1.87201
1.89145
1.89991
1.8975
1.85591
3.06327
4.00504
4.0275
3.87743
3.65499
3.45628
3.30114
3.14932
2.98096
2.8191
2.68679
2.56236
2.44247
2.34705
2.25564
2.13703
2.04542
1.98686
1.90996
1.8305
1.77239
1.70733
1.61952
1.56446
1.53355
1.49333
1.42959
1.37104
1.34884
1.32207
1.27646
1.22278
1.20762
1.19585
1.16894
1.11681
1.09054
1.0797
1.06014
1.02792
0.991845
0.974723
0.960862
0.942055
0.917915
0.922998
0.949755
1.0093
1.10873
1.22031
1.32369
1.42868
1.52085
1.57487
1.61164
1.64341
1.65318
1.6433
1.63786
1.63584
1.63936
1.65507
1.67731
1.68495
1.6714
1.65196
1.63997
1.63441
1.62924
1.6227
1.61578
1.62632
1.65124
1.66519
1.66785
1.67981
1.69646
1.70892
1.7165
1.73237
1.7619
1.78998
1.82148
1.84972
1.86266
1.86814
1.86833
1.86596
1.86312
1.86458
1.86882
1.88693
1.91368
1.91741
1.91373
1.89186
1.79749
3.16382
3.96058
3.95895
3.82373
3.60696
3.43173
3.27501
3.10472
2.95157
2.82525
2.70275
2.554
2.43193
2.36851
2.2779
2.16662
2.07281
1.99306
1.9159
1.86314
1.80991
1.72724
1.64444
1.60518
1.56537
1.5051
1.45303
1.42876
1.39943
1.34982
1.2847
1.26772
1.25868
1.23381
1.18643
1.15174
1.13502
1.11257
1.07948
1.04589
1.03615
1.04119
1.06688
1.1174
1.21244
1.33739
1.45955
1.57073
1.62693
1.66594
1.71566
1.7215
1.7102
1.69354
1.67628
1.64861
1.61473
1.59648
1.58836
1.58491
1.59524
1.62901
1.63817
1.62188
1.60758
1.60156
1.59689
1.59606
1.59354
1.59019
1.59481
1.61046
1.62745
1.63595
1.63936
1.64697
1.65689
1.66653
1.68024
1.7021
1.72776
1.75805
1.78924
1.80048
1.80634
1.81023
1.8119
1.81434
1.82317
1.85392
1.8871
1.89866
1.90187
1.90286
1.89779
1.42025
1.87047
3.20442
3.90455
3.8898
3.77462
3.58025
3.4046
3.24433
3.08653
2.93988
2.82147
2.6933
2.56429
2.46894
2.37762
2.27353
2.18454
2.11156
2.01634
1.93468
1.88652
1.82358
1.74705
1.6991
1.65681
1.58549
1.51848
1.49638
1.47258
1.42963
1.36561
1.33782
1.32246
1.29425
1.24419
1.21101
1.19575
1.18065
1.15338
1.1582
1.19904
1.3109
1.47566
1.61412
1.7293
1.81228
1.86779
1.86859
1.85998
1.85709
1.84925
1.81703
1.77374
1.73047
1.6878
1.63528
1.58833
1.56129
1.55308
1.55269
1.55914
1.57885
1.58131
1.56808
1.55981
1.55529
1.54861
1.5447
1.54758
1.55505
1.56258
1.57417
1.58923
1.60036
1.59995
1.59909
1.60163
1.60873
1.62156
1.644
1.67142
1.69669
1.71217
1.71841
1.72615
1.73543
1.74128
1.7475
1.76058
1.78754
1.8152
1.82552
1.83064
1.83839
1.8407
1.40019
1.4283
1.90954
3.1859
3.82102
3.85107
3.75757
3.56465
3.37365
3.21765
3.08245
2.94742
2.8092
2.69419
2.59817
2.49654
2.38203
2.27117
2.21143
2.13154
2.04053
1.98085
1.91806
1.82457
1.7725
1.7418
1.68579
1.61597
1.57927
1.5462
1.49802
1.42805
1.40256
1.38797
1.36378
1.31968
1.28309
1.28991
1.33072
1.42687
1.56078
1.7292
1.90415
2.00591
2.07553
2.09831
2.07102
2.04914
2.01609
1.98307
1.94976
1.91165
1.86532
1.80739
1.75169
1.70062
1.64961
1.60751
1.5745
1.55987
1.55506
1.55913
1.56681
1.55847
1.54179
1.52657
1.51772
1.50962
1.50001
1.49724
1.50403
1.51881
1.53463
1.54403
1.5416
1.53802
1.53623
1.53596
1.5409
1.55669
1.58434
1.61762
1.63069
1.6314
1.63484
1.64522
1.66168
1.6755
1.6865
1.70599
1.73917
1.7589
1.76012
1.76018
1.75955
1.75897
1.40001
1.40031
1.43272
1.91609
3.07673
3.77466
3.80576
3.72712
3.54817
3.35677
3.20924
3.07154
2.93928
2.82579
2.71544
2.60956
2.48781
2.38644
2.32421
2.23644
2.1294
2.07441
2.03003
1.9471
1.85874
1.81279
1.75893
1.70158
1.66809
1.63586
1.58482
1.50392
1.4603
1.45078
1.44286
1.46193
1.52763
1.67484
1.86616
2.06453
2.22498
2.29578
2.30372
2.30426
2.29121
2.24868
2.17327
2.11949
2.08046
2.03253
1.9788
1.93145
1.88858
1.8399
1.7886
1.73809
1.67419
1.63734
1.6243
1.61229
1.60263
1.59017
1.57066
1.54994
1.53144
1.51317
1.497
1.48903
1.48148
1.47471
1.47349
1.48257
1.49175
1.48749
1.47244
1.46653
1.4663
1.46636
1.47175
1.49226
1.52126
1.53888
1.54113
1.5404
1.54054
1.54778
1.56644
1.5938
1.61853
1.64969
1.68962
1.70323
1.70409
1.70358
1.69857
1.69368
1.40001
1.40001
1.40039
1.43346
1.86556
2.95136
3.71446
3.7478
3.70146
3.53757
3.35756
3.19204
3.05288
2.94702
2.83758
2.73163
2.59928
2.49647
2.44019
2.35749
2.25256
2.16136
2.11169
2.04817
1.96851
1.91131
1.85213
1.77379
1.73782
1.71322
1.67037
1.60374
1.58617
1.62422
1.74113
1.963
2.20526
2.40048
2.55021
2.6464
2.62449
2.55542
2.49234
2.43506
2.38041
2.31158
2.22692
2.16983
2.1297
2.08343
2.03098
1.98007
1.9329
1.8911
1.84912
1.79494
1.72975
1.68448
1.66144
1.64194
1.62493
1.60704
1.58777
1.56999
1.55006
1.51968
1.4881
1.47736
1.47367
1.47057
1.46845
1.46829
1.4655
1.45414
1.43325
1.42544
1.4233
1.42269
1.42517
1.43601
1.44877
1.44938
1.44466
1.44303
1.44458
1.45026
1.46522
1.49621
1.53706
1.57482
1.60454
1.62993
1.64377
1.64485
1.64408
1.6442
1.40001
1.40001
1.40001
1.40039
1.42852
1.78761
2.83686
3.61601
3.69328
3.66605
3.53305
3.35129
3.18357
3.06477
2.95739
2.84319
2.7104
2.63205
2.55842
2.46586
2.36198
2.27409
2.21887
2.14041
2.05396
2.00251
1.953
1.87201
1.82909
1.80891
1.81146
1.87386
2.05388
2.29169
2.60236
2.77415
2.84417
2.90026
2.88692
2.82405
2.7315
2.64511
2.55194
2.4569
2.37565
2.30337
2.248
2.20797
2.16641
2.11887
2.06711
2.015
1.96652
1.92269
1.88196
1.83919
1.79569
1.75371
1.71491
1.68118
1.65942
1.64079
1.62104
1.59949
1.57315
1.53726
1.51177
1.50225
1.49345
1.48325
1.47338
1.46508
1.45827
1.44522
1.42478
1.41637
1.41288
1.41174
1.41381
1.41864
1.41589
1.40756
1.399
1.39549
1.39579
1.39707
1.40091
1.41268
1.44017
1.47068
1.49385
1.51406
1.53944
1.56164
1.57084
1.57867
1.40001
1.40001
1.40001
1.40001
1.40031
1.42127
1.72461
2.6903
3.46568
3.65078
3.63686
3.53248
3.35067
3.19794
3.083
2.94063
2.8286
2.76265
2.67242
2.58104
2.47632
2.37862
2.32408
2.24899
2.15553
2.09008
2.05149
2.00518
2.02548
2.15284
2.42296
2.76768
3.03682
3.18516
3.27974
3.23798
3.15066
3.0973
3.02307
2.92341
2.8221
2.71462
2.60527
2.50372
2.41336
2.34135
2.29538
2.26141
2.22339
2.1674
2.09304
2.03103
1.99418
1.96525
1.93042
1.88915
1.84696
1.7993
1.75263
1.72062
1.70044
1.68571
1.66886
1.64355
1.60481
1.56526
1.55044
1.5404
1.52552
1.50885
1.49321
1.47634
1.45908
1.44014
1.4314
1.4307
1.43203
1.43283
1.42957
1.41938
1.40495
1.38854
1.38126
1.37811
1.37486
1.37358
1.37475
1.37685
1.3833
1.39543
1.40888
1.41964
1.43287
1.45544
1.47727
1.5047
1.40001
1.40001
1.40001
1.40001
1.40001
1.40022
1.41574
1.65196
2.46625
3.28526
3.61624
3.60506
3.51205
3.36086
3.22483
3.05009
2.95479
2.87942
2.7824
2.69524
2.57455
2.49651
2.43143
2.34367
2.27205
2.23654
2.2998
2.50397
2.84544
3.22495
3.47282
3.63676
3.61356
3.54762
3.44943
3.33126
3.2134
3.11408
3.02582
2.93568
2.83898
2.73459
2.63468
2.55853
2.49811
2.44499
2.39474
2.34173
2.28755
2.22711
2.16032
2.1032
2.05289
2.00885
1.96832
1.92484
1.88574
1.85149
1.81773
1.78631
1.76083
1.73813
1.71138
1.67633
1.63356
1.60011
1.58094
1.56611
1.55187
1.5389
1.5248
1.50536
1.48186
1.46088
1.44444
1.43119
1.42318
1.41814
1.41056
1.40119
1.38706
1.37419
1.37098
1.369
1.36466
1.3615
1.36145
1.36329
1.36435
1.3656
1.3691
1.37385
1.37988
1.39242
1.41299
1.45363
1.40001
1.40001
1.40001
1.40001
1.40001
1.40001
1.40014
1.40968
1.56857
2.21055
3.11452
3.56726