/*--------------------------------*- C++ -*----------------------------------*\
  =========                 |
  \\      /  F ield         | OpenFOAM: The Open Source CFD Toolbox
   \\    /   O peration     | Website:  https://openfoam.org
    \\  /    A nd           | Version:  7
     \\/     M anipulation  |
\*---------------------------------------------------------------------------*/
FoamFile
{
    version     2.0;
    format      ascii;
    class       volScalarField;
    location    "3.6";
    object      p;
}
// * * * * * * * * * * * * * * * * * * * * * * * * * * * * * * * * * * * * * //

dimensions      [1 -1 -2 0 0 0 0];

internalField   nonuniform List<scalar> 
258048
(
1
1
1
1
1
1
1
1
1
1
1
1
1
1
1
1
1
1
1
1
1
1
1
1
1
1
1
1
1
1
1
1
1
1
1
1
1
1
1
1
1
1
1
1
1
1
1
1
1
1
1
1
1
1
1
1
1
1
1
1
1
1
1
1
1
1
1
1
1
1
1
1
1
1
1
1
1
1
1
1
1
1
1
1
1
1
1
1
1
1
1
1
1
1
1
1
1
1
3.7617
9.89113
10.4212
10.4238
10.4285
10.4377
10.466
10.5086
10.5545
10.5987
10.6388
10.6738
10.7039
10.7316
10.7547
10.7695
10.7831
10.8122
10.8602
10.9167
10.9644
10.9855
10.9773
10.9605
10.9553
10.9961
11.0655
11.1312
11.1798
11.1897
11.1713
11.1525
11.1604
11.2076
11.2715
11.3284
11.3616
11.3603
11.3463
11.3396
11.3551
11.3963
11.4487
11.4933
11.5169
11.517
11.5113
11.512
11.5286
11.5643
11.6083
11.645
11.6632
11.6619
11.6573
11.6624
11.6855
11.7258
11.7676
11.7916
11.7912
11.7812
11.7769
11.7898
11.8203
11.8535
11.8725
11.8735
11.8691
11.8691
11.8818
11.9084
11.9363
11.9521
11.9541
11.953
11.9558
11.9651
11.9815
11.9995
12.0089
12.0074
12.0027
12.0018
12.0091
12.0225
12.0367
12.0443
12.0439
12.0401
12.0367
12.0371
12.0406
12.0443
1
1
1
1
1
1
1
1
1
1
1
1
1
1
1
1
1
1
1
1
1
1
1
1
1
1
1
1
1
1
1
1
1
1
1
1
1
1
1
1
1
1
1
1
1
1
1
1
1
1
1
1
1
1
1
1
1
1
1
1
1
1
1
1
1
1
1
1
1
1
1
1
1
1
1
1
1
1
1
1
1
1
1
1
1
1
1
1
1
1
1
1
1
1
1
1
1
1
3.74365
9.88188
10.4179
10.4196
10.4255
10.4366
10.4675
10.5138
10.5611
10.604
10.641
10.6732
10.7018
10.7286
10.7526
10.7715
10.7903
10.8214
10.8664
10.9147
10.955
10.9762
10.9745
10.9664
10.968
11.0043
11.0686
11.1299
11.1735
11.1835
11.1704
11.1577
11.1678
11.2121
11.2727
11.3264
11.358
11.3588
11.3478
11.3434
11.3593
11.3987
11.4484
11.4911
11.5143
11.5168
11.5129
11.515
11.5321
11.5668
11.6089
11.644
11.6615
11.6606
11.6566
11.6624
11.6863
11.7268
11.7679
11.7912
11.79
11.7798
11.7758
11.7895
11.8208
11.8544
11.8729
11.873
11.8677
11.8673
11.8805
11.9085
11.9375
11.9535
11.9544
11.9519
11.9538
11.9631
11.9809
12.0002
12.0099
12.0074
12.0017
12.0004
12.008
12.0222
12.0364
12.0436
12.0429
12.0389
12.0359
12.0367
12.0402
12.0435
1
1
1
1
1
1
1
1
1
1
1
1
1
1
1
1
1
1
1
1
1
1
1
1
1
1
1
1
1
1
1
1
1
1
1
1
1
1
1
1
1
1
1
1
1
1
1
1
1
1
1
1
1
1
1
1
1
1
1
1
1
1
1
1
1
1
1
1
1
1
1
1
1
1
1
1
1
1
1
1
1
1
1
1
1
1
1
1
1
1
1
1
1
1
1
1
1
1
3.70586
9.86307
10.4101
10.4146
10.4236
10.4389
10.4739
10.5213
10.5678
10.6075
10.6407
10.6693
10.6952
10.7202
10.7442
10.7672
10.7949
10.8329
10.8765
10.9164
10.9438
10.9554
10.9566
10.9604
10.9799
11.0214
11.0771
11.1283
11.1609
11.1667
11.1596
11.1566
11.1748
11.22
11.2754
11.3219
11.348
11.3496
11.3434
11.3445
11.3639
11.4026
11.448
11.4857
11.5064
11.5109
11.5098
11.515
11.5345
11.5688
11.6084
11.641
11.6572
11.6567
11.6538
11.6608
11.6859
11.7268
11.7674
11.7899
11.788
11.7778
11.7739
11.7883
11.8205
11.8545
11.8729
11.8722
11.8658
11.8643
11.8774
11.9069
11.9377
11.9544
11.9546
11.9505
11.9505
11.9593
11.9787
12.0001
12.0107
12.0074
12.0004
11.9982
12.0059
12.021
12.0357
12.0426
12.0416
12.0374
12.0345
12.0358
12.0396
12.0428
1
1
1
1
1
1
1
1
1
1
1
1
1
1
1
1
1
1
1
1
1
1
1
1
1
1
1
1
1
1
1
1
1
1
1
1
1
1
1
1
1
1
1
1
1
1
1
1
1
1
1
1
1
1
1
1
1
1
1
1
1
1
1
1
1
1
1
1
1
1
1
1
1
1
1
1
1
1
1
1
1
1
1
1
1
1
1
1
1
1
1
1
1
1
1
1
1
1
3.65245
9.83061
10.3982
10.4091
10.4261
10.4483
10.487
10.533
10.5745
10.6078
10.6344
10.6582
10.6833
10.7115
10.7421
10.7725
10.8064
10.8442
10.8804
10.9084
10.9234
10.9321
10.9446
10.9657
10.9979
11.039
11.084
11.1222
11.144
11.1493
11.1508
11.1605
11.1874
11.2309
11.2782
11.3158
11.3359
11.3401
11.3397
11.3472
11.371
11.4082
11.4481
11.4802
11.4984
11.5047
11.5078
11.5171
11.5385
11.5711
11.6074
11.6373
11.6525
11.6534
11.652
11.6605
11.6866
11.7267
11.7656
11.7868
11.7852
11.776
11.7733
11.7882
11.8204
11.8538
11.8714
11.8704
11.8637
11.8618
11.8749
11.9053
11.9371
11.9541
11.954
11.9487
11.9472
11.9557
11.9767
11.9998
12.0108
12.0068
11.9986
11.9958
12.0035
12.0194
12.0343
12.0409
12.0395
12.0351
12.0325
12.0343
12.0384
12.0412
1
1
1
1
1
1
1
1
1
1
1
1
1
1
1
1
1
1
1
1
1
1
1
1
1
1
1
1
1
1
1
1
1
1
1
1
1
1
1
1
1
1
1
1
1
1
1
1
1
1
1
1
1
1
1
1
1
1
1
1
1
1
1
1
1
1
1
1
1
1
1
1
1
1
1
1
1
1
1
1
1
1
1
1
1
1
1
1
1
1
1
1
1
1
1
1
1
1
3.58037
9.79197
10.3868
10.3987
10.4268
10.4597
10.5025
10.545
10.5795
10.6043
10.622
10.6419
10.6699
10.7048
10.7421
10.7801
10.8181
10.8523
10.8788
10.8926
10.8979
10.9111
10.9386
10.9762
11.0173
11.056
11.0886
11.1115
11.1231
11.1304
11.1439
11.168
11.203
11.2436
11.281
11.3074
11.3207
11.3268
11.3341
11.3504
11.3795
11.4148
11.4482
11.4736
11.489
11.4973
11.5054
11.5193
11.5421
11.5728
11.6055
11.6323
11.6466
11.6495
11.6509
11.6615
11.6882
11.726
11.7614
11.7807
11.7806
11.774
11.7737
11.7893
11.8202
11.8515
11.8677
11.8669
11.8613
11.8603
11.8737
11.9036
11.9349
11.9517
11.9517
11.9463
11.9443
11.9529
11.9747
11.9984
12.0094
12.005
11.9965
11.9935
12.0012
12.0174
12.0321
12.0381
12.0367
12.0323
12.0303
12.0325
12.0365
12.0391
1
1
1
1
1
1
1
1
1
1
1
1
1
1
1
1
1
1
1
1
1
1
1
1
1
1
1
1
1
1
1
1
1
1
1
1
1
1
1
1
1
1
1
1
1
1
1
1
1
1
1
1
1
1
1
1
1
1
1
1
1
1
1
1
1
1
1
1
1
1
1
1
1
1
1
1
1
1
1
1
1
1
1
1
1
1
1
1
1
1
1
1
1
1
1
1
1
1
3.48842
9.75317
10.3752
10.3848
10.4241
10.469
10.5165
10.5571
10.5848
10.5984
10.6059
10.6235
10.6583
10.7024
10.7479
10.7913
10.8284
10.8554
10.8704
10.8739
10.8751
10.9003
10.9443
10.9924
11.0358
11.0675
11.0871
11.0961
11.1001
11.1133
11.1413
11.1789
11.2188
11.2547
11.2816
11.297
11.3047
11.3135
11.329
11.3547
11.3881
11.4206
11.4471
11.466
11.4788
11.4898
11.5031
11.5216
11.5458
11.5741
11.6026
11.6258
11.6394
11.6449
11.6504
11.6645
11.6913
11.7254
11.7554
11.7719
11.7741
11.7714
11.775
11.7921
11.8206
11.8477
11.8614
11.8618
11.8587
11.8602
11.8744
11.9023
11.931
11.9466
11.9472
11.9433
11.9426
11.9517
11.9731
11.9958
12.006
12.0018
11.9941
11.9916
11.9992
12.015
12.0289
12.0343
12.033
12.0292
12.0278
12.0302
12.034
12.0363
1
1
1
1
1
1
1
1
1
1
1
1
1
1
1
1
1
1
1
1
1
1
1
1
1
1
1
1
1
1
1
1
1
1
1
1
1
1
1
1
1
1
1
1
1
1
1
1
1
1
1
1
1
1
1
1
1
1
1
1
1
1
1
1
1
1
1
1
1
1
1
1
1
1
1
1
1
1
1
1
1
1
1
1
1
1
1
1
1
1
1
1
1
1
1
1
1
1
3.38384
9.71603
10.3591
10.3708
10.4201
10.4729
10.5244
10.5638
10.5851
10.5905
10.5938
10.6129
10.6549
10.7055
10.7555
10.7995
10.8326
10.8515
10.8575
10.8573
10.8632
10.9032
10.9582
11.0089
11.0483
11.0704
11.0776
11.077
11.0789
11.1032
11.1445
11.1904
11.2313
11.2612
11.2782
11.2849
11.2892
11.3017
11.3256
11.3593
11.3954
11.4244
11.4444
11.4574
11.4684
11.4821
11.5007
11.5239
11.5496
11.5757
11.5993
11.6179
11.6303
11.6388
11.6495
11.6682
11.6952
11.7248
11.7484
11.7611
11.7649
11.7673
11.7766
11.7961
11.8215
11.8429
11.8534
11.8553
11.8555
11.8606
11.8764
11.9014
11.9257
11.939
11.9411
11.9399
11.9415
11.9517
11.9718
11.9919
12.0008
11.9974
11.9914
11.9901
11.9975
12.0122
12.0247
12.0294
12.0286
12.0258
12.025
12.0275
12.0308
12.033
1
1
1
1
1
1
1
1
1
1
1
1
1
1
1
1
1
1
1
1
1
1
1
1
1
1
1
1
1
1
1
1
1
1
1
1
1
1
1
1
1
1
1
1
1
1
1
1
1
1
1
1
1
1
1
1
1
1
1
1
1
1
1
1
1
1
1
1
1
1
1
1
1
1
1
1
1
1
1
1
1
1
1
1
1
1
1
1
1
1
1
1
1
1
1
1
1
1
3.26632
9.66926
10.3415
10.3608
10.4165
10.4723
10.525
10.5629
10.5812
10.5857
10.5918
10.6132
10.6574
10.71
10.7594
10.8012
10.8296
10.8416
10.8435
10.8462
10.8635
10.9139
10.9704
11.0183
11.0509
11.0636
11.0624
11.0589
11.0665
11.1028
11.1519
11.1993
11.2375
11.2611
11.2705
11.2719
11.2762
11.294
11.3254
11.3643
11.4004
11.4254
11.4395
11.4479
11.4578
11.4745
11.4985
11.5264
11.5538
11.5775
11.5958
11.6092
11.6197
11.631
11.6477
11.6717
11.6995
11.7246
11.7415
11.7496
11.754
11.7619
11.7778
11.8001
11.8225
11.838
11.8448
11.8475
11.8514
11.861
11.8785
11.9004
11.9193
11.93
11.9338
11.9357
11.9403
11.9521
11.9703
11.9871
11.9945
11.9921
11.9883
11.9887
11.9958
12.0088
12.0195
12.0237
12.0235
12.0219
12.0218
12.0241
12.0269
12.0292
1
1
1
1
1
1
1
1
1
1
1
1
1
1
1
1
1
1
1
1
1
1
1
1
1
1
1
1
1
1
1
1
1
1
1
1
1
1
1
1
1
1
1
1
1
1
1
1
1
1
1
1
1
1
1
1
1
1
1
1
1
1
1
1
1
1
1
1
1
1
1
1
1
1
1
1
1
1
1
1
1
1
1
1
1
1
1
1
1
1
1
1
1
1
1
1
1
1
3.12825
9.60578
10.3349
10.3585
10.4143
10.4679
10.5182
10.5547
10.5753
10.5856
10.5973
10.6197
10.661
10.7109
10.7572
10.7946
10.8183
10.8284
10.8335
10.8428
10.8708
10.9224
10.9748
11.0178
11.0436
11.0495
11.0469
11.0479
11.0654
11.1089
11.1583
11.2026
11.2361
11.2546
11.2596
11.26
11.2674
11.2912
11.3277
11.3683
11.4024
11.4233
11.4326
11.4379
11.4476
11.4675
11.4966
11.5289
11.5578
11.5789
11.592
11.6001
11.6083
11.6221
11.6449
11.6743
11.7031
11.7241
11.7345
11.7382
11.7429
11.7558
11.778
11.803
11.8228
11.8332
11.8368
11.8396
11.8466
11.8606
11.8796
11.8986
11.9127
11.9208
11.9258
11.9309
11.9389
11.952
11.9681
11.9815
11.9875
11.9866
11.9851
11.9869
11.9939
12.0049
12.0138
12.0174
12.0178
12.0174
12.0179
12.0201
12.0225
12.0251
1
1
1
1
1
1
1
1
1
1
1
1
1
1
1
1
1
1
1
1
1
1
1
1
1
1
1
1
1
1
1
1
1
1
1
1
1
1
1
1
1
1
1
1
1
1
1
1
1
1
1
1
1
1
1
1
1
1
1
1
1
1
1
1
1
1
1
1
1
1
1
1
1
1
1
1
1
1
1
1
1
1
1
1
1
1
1
1
1
1
1
1
1
1
1
1
1
1
2.97021
9.5184
10.3422
10.3624
10.414
10.4624
10.5079
10.5433
10.5687
10.5871
10.6048
10.628
10.6634
10.7071
10.7482
10.7817
10.805
10.8193
10.8307
10.8467
10.8786
10.9247
10.9715
11.0082
11.0286
11.0346
11.0369
11.0461
11.0723
11.1163
11.1613
11.2005
11.2292
11.2439
11.2478
11.2505
11.2632
11.2918
11.3308
11.3705
11.4016
11.4182
11.4241
11.4278
11.4382
11.4618
11.4957
11.5313
11.5604
11.5785
11.5868
11.5907
11.5973
11.6135
11.642
11.6758
11.7047
11.7217
11.727
11.7275
11.7329
11.7501
11.7771
11.8039
11.8214
11.8279
11.8291
11.8321
11.8418
11.8589
11.8786
11.8951
11.9057
11.9124
11.9184
11.926
11.9368
11.9506
11.9648
11.9753
11.9803
11.9811
11.9817
11.9847
11.9914
12.0004
12.0075
12.0108
12.0117
12.0121
12.0131
12.0153
12.0176
12.0206
1
1
1
1
1
1
1
1
1
1
1
1
1
1
1
1
1
1
1
1
1
1
1
1
1
1
1
1
1
1
1
1
1
1
1
1
1
1
1
1
1
1
1
1
1
1
1
1
1
1
1
1
1
1
1
1
1
1
1
1
1
1
1
1
1
1
1
1
1
1
1
1
1
1
1
1
1
1
1
1
1
1
1
1
1
1
1
1
1
1
1
1
1
1
1
1
1
1
2.79824
9.4071
10.3515
10.3659
10.4104
10.4535
10.4976
10.5363
10.5678
10.5918
10.6106
10.631
10.6604
10.6981
10.7364
10.7703
10.7971
10.8163
10.8324
10.8521
10.8824
10.9226
10.9628
10.9936
11.0124
11.0232
11.0331
11.0502
11.0806
11.1209
11.161
11.1952
11.2194
11.2323
11.2373
11.2436
11.2614
11.2935
11.3331
11.371
11.3983
11.4107
11.4141
11.4175
11.4302
11.4588
11.4965
11.5334
11.5606
11.5747
11.5788
11.5802
11.5869
11.6073
11.6406
11.6765
11.7034
11.7157
11.7173
11.7171
11.7248
11.7464
11.7763
11.8028
11.8173
11.8209
11.8212
11.8252
11.8375
11.8565
11.8757
11.8898
11.8982
11.9046
11.9119
11.9215
11.9338
11.9474
11.9595
11.9681
11.9729
11.9754
11.9779
11.982
11.9881
11.995
12.0008
12.0039
12.0051
12.0061
12.0074
12.0098
12.0124
12.0158
1
1
1
1
1
1
1
1
1
1
1
1
1
1
1
1
1
1
1
1
1
1
1
1
1
1
1
1
1
1
1
1
1
1
1
1
1
1
1
1
1
1
1
1
1
1
1
1
1
1
1
1
1
1
1
1
1
1
1
1
1
1
1
1
1
1
1
1
1
1
1
1
1
1
1
1
1
1
1
1
1
1
1
1
1
1
1
1
1
1
1
1
1
1
1
1
1
1
2.61782
9.2768
10.3603
10.3687
10.4066
10.4476
10.4929
10.5354
10.5702
10.5945
10.6112
10.6284
10.6538
10.6889
10.7279
10.7645
10.7938
10.8151
10.833
10.8534
10.8815
10.9171
10.952
10.9805
11.0014
11.0176
11.0332
11.0548
11.0849
11.1211
11.1572
11.188
11.2101
11.2228
11.2292
11.2382
11.2598
11.2944
11.3343
11.3699
11.3926
11.4007
11.4025
11.407
11.4247
11.4592
11.4997
11.5351
11.5576
11.566
11.5667
11.568
11.5787
11.6058
11.6426
11.6768
11.6983
11.7052
11.7047
11.7064
11.7193
11.7458
11.7767
11.8003
11.8105
11.8119
11.8126
11.8192
11.8344
11.8542
11.8715
11.8827
11.8897
11.8966
11.9059
11.9176
11.9305
11.9427
11.9525
11.9597
11.9651
11.9697
11.974
11.9786
11.9837
11.9889
11.9936
11.9967
11.9983
11.9996
12.0011
12.0038
12.0068
12.0108
1
1
1
1
1
1
1
1
1
1
1
1
1
1
1
1
1
1
1
1
1
1
1
1
1
1
1
1
1
1
1
1
1
1
1
1
1
1
1
1
1
1
1
1
1
1
1
1
1
1
1
1
1
1
1
1
1
1
1
1
1
1
1
1
1
1
1
1
1
1
1
1
1
1
1
1
1
1
1
1
1
1
1
1
1
1
1
1
1
1
1
1
1
1
1
1
1
1
2.43199
9.12263
10.3651
10.3706
10.4067
10.4477
10.4942
10.5371
10.5701
10.5907
10.6047
10.6216
10.648
10.6845
10.7254
10.7631
10.7919
10.8117
10.8285
10.8488
10.8767
10.9108
10.9445
10.9735
10.9967
11.0154
11.0329
11.0547
11.0832
11.1167
11.1513
11.1816
11.2032
11.2155
11.2222
11.2324
11.2572
11.2944
11.3348
11.3677
11.3849
11.3884
11.3891
11.3965
11.4218
11.4628
11.5049
11.5364
11.5511
11.5523
11.5505
11.5541
11.5734
11.6087
11.6477
11.6768
11.6896
11.6906
11.6892
11.6951
11.7161
11.7477
11.7777
11.7961
11.8013
11.8007
11.8029
11.8135
11.8321
11.8519
11.8662
11.8742
11.88
11.8881
11.9
11.9139
11.9269
11.9369
11.9442
11.9505
11.957
11.9638
11.9699
11.9748
11.9788
11.9823
11.9861
11.9892
11.991
11.9926
11.9942
11.997
12.0005
12.005
1
1
1
1
1
1
1
1
1
1
1
1
1
1
1
1
1
1
1
1
1
1
1
1
1
1
1
1
1
1
1
1
1
1
1
1
1
1
1
1
1
1
1
1
1
1
1
1
1
1
1
1
1
1
1
1
1
1
1
1
1
1
1
1
1
1
1
1
1
1
1
1
1
1
1
1
1
1
1
1
1
1
1
1
1
1
1
1
1
1
1
1
1
1
1
1
1
1
2.24147
8.9435
10.3677
10.3706
10.4081
10.449
10.495
10.5365
10.5659
10.5828
10.5954
10.6148
10.646
10.6858
10.7275
10.7637
10.7889
10.8041
10.8184
10.8398
10.8707
10.907
10.9422
10.9725
10.9959
11.0132
11.0286
11.0487
11.0768
11.1106
11.1466
11.1775
11.198
11.2085
11.2142
11.2254
11.2542
11.2947
11.3353
11.3643
11.3751
11.3742
11.3742
11.3861
11.4209
11.4686
11.511
11.536
11.5406
11.5354
11.5315
11.5402
11.5709
11.6148
11.6539
11.6751
11.6779
11.6739
11.6726
11.6847
11.7148
11.7508
11.7782
11.7896
11.7897
11.788
11.7926
11.8083
11.8304
11.8494
11.86
11.8647
11.8694
11.879
11.894
11.9102
11.9227
11.9302
11.935
11.9404
11.9483
11.9574
11.9652
11.9702
11.973
11.9751
11.9781
11.9812
11.9833
11.9851
11.9867
11.9897
11.9936
11.9986
1
1
1
1
1
1
1
1
1
1
1
1
1
1
1
1
1
1
1
1
1
1
1
1
1
1
1
1
1
1
1
1
1
1
1
1
1
1
1
1
1
1
1
1
1
1
1
1
1
1
1
1
1
1
1
1
1
1
1
1
1
1
1
1
1
1
1
1
1
1
1
1
1
1
1
1
1
1
1
1
1
1
1
1
1
1
1
1
1
1
1
1
1
1
1
1
1
1
2.05132
8.74041
10.3706
10.3728
10.412
10.4518
10.4952
10.5325
10.5574
10.5715
10.5855
10.6108
10.6481
10.6905
10.7306
10.7628
10.7823
10.7925
10.8057
10.8307
10.8665
10.9066
10.9437
10.9739
10.9951
11.0086
11.0208
11.0397
11.0696
11.1066
11.1446
11.1746
11.1919
11.1993
11.204
11.2179
11.2525
11.2962
11.3358
11.3595
11.3634
11.3588
11.3587
11.3774
11.4224
11.475
11.5148
11.5322
11.5276
11.5167
11.5124
11.5293
11.5721
11.6217
11.657
11.6692
11.6639
11.6561
11.6565
11.6766
11.7148
11.753
11.7757
11.78
11.7766
11.7746
11.7829
11.8041
11.8288
11.846
11.8525
11.8541
11.8581
11.8695
11.8878
11.9062
11.9181
11.9231
11.9254
11.9301
11.9393
11.9506
11.9599
11.9648
11.9665
11.9674
11.9698
11.9728
11.9751
11.9769
11.9786
11.9817
11.986
11.9913
1
1
1
1
1
1
1
1
1
1
1
1
1
1
1
1
1
1
1
1
1
1
1
1
1
1
1
1
1
1
1
1
1
1
1
1
1
1
1
1
1
1
1
1
1
1
1
1
1
1
1
1
1
1
1
1
1
1
1
1
1
1
1
1
1
1
1
1
1
1
1
1
1
1
1
1
1
1
1
1
1
1
1
1
1
1
1
1
1
1
1
1
1
1
1
1
1
1
1.86966
8.51206
10.3696
10.3739
10.4132
10.4516
10.4917
10.5248
10.5467
10.5605
10.5789
10.6106
10.6517
10.6941
10.7309
10.7573
10.7708
10.7784
10.7947
10.8256
10.8655
10.9072
10.9447
10.9734
10.9905
10.999
11.0096
11.0312
11.0651
11.1053
11.1438
11.171
11.183
11.1868
11.1923
11.2119
11.2526
11.2978
11.3344
11.3521
11.3502
11.3427
11.3446
11.3726
11.4256
11.4792
11.5144
11.5231
11.512
11.4973
11.4962
11.5248
11.5764
11.626
11.655
11.658
11.6481
11.6386
11.6434
11.6728
11.716
11.7524
11.7689
11.7677
11.7625
11.762
11.7752
11.8014
11.8269
11.8404
11.8429
11.8425
11.8464
11.8602
11.8817
11.9017
11.9124
11.9148
11.9151
11.9193
11.9298
11.9431
11.9534
11.9582
11.9589
11.959
11.9611
11.9642
11.9664
11.9682
11.9696
11.9729
11.9777
11.9835
1
1
1
1
1
1
1
1
1
1
1
1
1
1
1
1
1
1
1
1
1
1
1
1
1
1
1
1
1
1
1
1
1
1
1
1
1
1
1
1
1
1
1
1
1
1
1
1
1
1
1
1
1
1
1
1
1
1
1
1
1
1
1
1
1
1
1
1
1
1
1
1
1
1
1
1
1
1
1
1
1
1
1
1
1
1
1
1
1
1
1
1
1
1
1
1
1
1
1.69989
8.25395
10.3653
10.376
10.4138
10.4494
10.4851
10.514
10.5345
10.5522
10.5776
10.6137
10.6539
10.6917
10.7227
10.7437
10.7553
10.7666
10.7904
10.827
10.8677
10.9065
10.9402
10.9647
10.9772
10.9848
11.0004
11.0281
11.0653
11.1053
11.1406
11.1621
11.169
11.1719
11.1819
11.2095
11.2539
11.2977
11.3292
11.3406
11.3352
11.3272
11.3354
11.3734
11.4293
11.4793
11.5079
11.5085
11.4937
11.4792
11.4871
11.5273
11.5816
11.6257
11.6461
11.642
11.6297
11.6225
11.6358
11.6735
11.7173
11.7477
11.7565
11.7524
11.7474
11.7508
11.7707
11.8001
11.8233
11.8318
11.8311
11.8298
11.8349
11.8519
11.8763
11.8967
11.9055
11.9055
11.9043
11.9086
11.9204
11.9351
11.9458
11.9501
11.9502
11.9499
11.9523
11.9556
11.9575
11.9587
11.9597
11.9632
11.9687
11.9755
1
1
1
1
1
1
1
1
1
1
1
1
1
1
1
1
1
1
1
1
1
1
1
1
1
1
1
1
1
1
1
1
1
1
1
1
1
1
1
1
1
1
1
1
1
1
1
1
1
1
1
1
1
1
1
1
1
1
1
1
1
1
1
1
1
1
1
1
1
1
1
1
1
1
1
1
1
1
1
1
1
1
1
1
1
1
1
1
1
1
1
1
1
1
1
1
1
1
1.54076
7.96539
10.3622
10.3774
10.4138
10.4456
10.4764
10.5022
10.5247
10.5489
10.5801
10.617
10.6535
10.6853
10.7098
10.7271
10.7411
10.7608
10.7927
10.832
10.8703
10.904
10.931
10.9497
10.9598
10.9723
10.9967
11.0301
11.0678
11.1048
11.1336
11.1482
11.1523
11.1585
11.1765
11.211
11.2554
11.2948
11.3192
11.3243
11.3182
11.3144
11.3328
11.3784
11.4323
11.4753
11.495
11.4891
11.4736
11.465
11.4854
11.5341
11.5858
11.621
11.6307
11.6216
11.6096
11.609
11.6339
11.6776
11.7177
11.7388
11.74
11.7347
11.7321
11.7423
11.7695
11.7994
11.8172
11.82
11.8171
11.8161
11.8239
11.845
11.8715
11.8906
11.8967
11.8945
11.8926
11.8978
11.9113
11.9266
11.9368
11.9404
11.9402
11.9402
11.9434
11.9471
11.9482
11.9484
11.9486
11.9524
11.9593
11.9674
1
1
1
1
1
1
1
1
1
1
1
1
1
1
1
1
1
1
1
1
1
1
1
1
1
1
1
1
1
1
1
1
1
1
1
1
1
1
1
1
1
1
1
1
1
1
1
1
1
1
1
1
1
1
1
1
1
1
1
1
1
1
1
1
1
1
1
1
1
1
1
1
1
1
1
1
1
1
1
1
1
1
1
1
1
1
1
1
1
1
1
1
1
1
1
1
1
1
1.38727
7.64432
10.3684
10.3775
10.4096
10.438
10.4656
10.4917
10.5184
10.5486
10.5829
10.6178
10.6491
10.6743
10.6939
10.7111
10.7313
10.7601
10.7973
10.836
10.8699
10.8965
10.9165
10.9314
10.944
10.9652
10.9976
11.0334
11.0681
11.0989
11.12
11.1298
11.1366
11.151
11.1777
11.2149
11.2547
11.2857
11.3019
11.304
11.3001
11.306
11.3365
11.3853
11.4339
11.4671
11.4766
11.4669
11.4534
11.4554
11.4892
11.5411
11.5866
11.6113
11.6109
11.5991
11.5898
11.599
11.6358
11.6817
11.715
11.7259
11.7215
11.7155
11.7174
11.737
11.77
11.7974
11.8081
11.8058
11.8011
11.8017
11.8143
11.84
11.8671
11.883
11.8854
11.8818
11.8801
11.8872
11.9026
11.9176
11.9264
11.9291
11.9289
11.93
11.9348
11.939
11.9388
11.9372
11.9362
11.9406
11.9492
11.9591
1
1
1
1
1
1
1
1
1
1
1
1
1
1
1
1
1
1
1
1
1
1
1
1
1
1
1
1
1
1
1
1
1
1
1
1
1
1
1
1
1
1
1
1
1
1
1
1
1
1
1
1
1
1
1
1
1
1
1
1
1
1
1
1
1
1
1
1
1
1
1
1
1
1
1
1
1
1
1
1
1
1
1
1
1
1
1
1
1
1
1
1
1
1
1
1
1
1
1.2397
7.30491
10.3731
10.3732
10.3996
10.428
10.455
10.4837
10.5145
10.5479
10.5821
10.614
10.6403
10.6609
10.6788
10.6994
10.7267
10.7615
10.8002
10.8362
10.8645
10.8847
10.9001
10.9149
10.9336
10.9631
10.9998
11.0349
11.0646
11.0877
11.1025
11.1111
11.1251
11.1494
11.1821
11.2182
11.2511
11.2722
11.2809
11.2826
11.2848
11.3038
11.3435
11.3901
11.4309
11.4536
11.4545
11.4446
11.4365
11.4514
11.4952
11.5452
11.5822
11.5962
11.5894
11.5772
11.5732
11.5939
11.6387
11.6827
11.708
11.7098
11.702
11.6968
11.705
11.7342
11.7702
11.7929
11.7959
11.7894
11.7838
11.7876
11.8065
11.8363
11.8621
11.8733
11.8717
11.8672
11.867
11.8771
11.8944
11.9081
11.9145
11.9161
11.9163
11.9193
11.9264
11.931
11.9292
11.9251
11.9227
11.9276
11.9385
11.9503
1
1
1
1
1
1
1
1
1
1
1
1
1
1
1
1
1
1
1
1
1
1
1
1
1
1
1
1
1
1
1
1
1
1
1
1
1
1
1
1
1
1
1
1
1
1
1
1
1
1
1
1
1
1
1
1
1
1
1
1
1
1
1
1
1
1
1
1
1
1
1
1
1
1
1
1
1
1
1
1
1
1
1
1
1
1
1
1
1
1
1
1
1
1
1
1
1
1
1.08997
6.94413
10.3687
10.3687
10.3841
10.4131
10.4434
10.4777
10.513
10.5479
10.5803
10.6079
10.6298
10.6482
10.6678
10.6927
10.7245
10.7612
10.7984
10.8308
10.8545
10.8712
10.8862
10.9044
10.9296
10.9637
11.0005
11.0321
11.0557
11.0727
11.0845
11.0965
11.1195
11.1509
11.1853
11.2177
11.2421
11.2548
11.2593
11.2635
11.2761
11.307
11.3492
11.3904
11.4212
11.4346
11.4318
11.4245
11.4266
11.4538
11.4995
11.5431
11.5703
11.5757
11.5673
11.5579
11.5621
11.5931
11.6398
11.6784
11.6955
11.6918
11.6827
11.6805
11.6961
11.7324
11.7677
11.7845
11.7811
11.7712
11.7665
11.7749
11.8006
11.8332
11.8555
11.8607
11.8562
11.8513
11.8537
11.8677
11.8863
11.8978
11.9012
11.9015
11.9025
11.9083
11.918
11.9229
11.9191
11.9122
11.9083
11.9139
11.9272
11.9408
1
1
1
1
1
1
1
1
1
1
1
1
1
1
1
1
1
1
1
1
1
1
1
1
1
1
1
1
1
1
1
1
1
1
1
1
1
1
1
1
1
1
1
1
1
1
1
1
1
1
1
1
1
1
1
1
1
1
1
1
1
1
1
1
1
1
1
1
1
1
1
1
1
1
1
1
1
1
1
1
1
1
1
1
1
1
1
1
1
1
1
1
1
1
1
1
1
1
1.00378
6.55247
10.312
10.3537
10.3745
10.4074
10.4393
10.474
10.5081
10.5403
10.5693
10.5947
10.6169
10.6386
10.6629
10.6912
10.7235
10.7582
10.7913
10.8189
10.8402
10.8579
10.8764
10.8995
10.9287
10.9633
10.9972
11.0241
11.0427
11.0567
11.0695
11.0872
11.1174
11.1518
11.1842
11.2108
11.2274
11.2348
11.2395
11.2507
11.275
11.3125
11.3513
11.3843
11.4045
11.4109
11.409
11.4088
11.4243
11.46
11.5011
11.5347
11.5515
11.5517
11.5459
11.5436
11.5579
11.5948
11.6378
11.668
11.6772
11.6716
11.6643
11.6676
11.6912
11.7306
11.7617
11.7714
11.7635
11.752
11.7503
11.7646
11.7964
11.829
11.846
11.8455
11.839
11.8347
11.8408
11.8589
11.8777
11.8862
11.8867
11.8858
11.8878
11.8971
11.9093
11.9143
11.9085
11.8986
11.8933
11.8997
11.9151
11.9299
1
1
1
1
1
1
1
1
1
1
1
1
1
1
1
1
1
1
1
1
1
1
1
1
1
1
1
1
1
1
1
1
1
1
1
1
1
1
1
1
1
1
1
1
1
1
1
1
1
1
1
1
1
1
1
1
1
1
1
1
1
1
1
1
1
1
1
1
1
1
1
1
1
1
1
1
1
1
1
1
1
1
1
1
1
1
1
1
1
1
1
1
1
1
1
1
1
1
1.00003
6.06389
10.2449
10.3376
10.3655
10.4011
10.4343
10.4685
10.5008
10.5309
10.5586
10.5844
10.6095
10.6353
10.6626
10.6912
10.7207
10.7499
10.7778
10.8034
10.8266
10.8484
10.8713
10.8976
10.9277
10.9604
10.9898
11.0121
11.0282
11.0429
11.0597
11.083
11.116
11.1493
11.1772
11.1973
11.2081
11.2141
11.2242
11.2459
11.2788
11.3165
11.3495
11.3719
11.3823
11.3849
11.3871
11.3994
11.4285
11.4662
11.4996
11.5205
11.5271
11.5261
11.5256
11.5339
11.5597
11.5977
11.6324
11.6521
11.6542
11.6494
11.6473
11.6584
11.6892
11.7276
11.7521
11.7545
11.7437
11.7328
11.7358
11.757
11.7927
11.8223
11.833
11.8283
11.8206
11.8182
11.8287
11.8504
11.8679
11.8731
11.871
11.8692
11.8728
11.8856
11.8999
11.9044
11.897
11.8848
11.8785
11.8854
11.9022
11.9172
1
1
1
1
1
1
1
1
1
1
1
1
1
1
1
1
1
1
1
1
1
1
1
1
1
1
1
1
1
1
1
1
1
1
1
1
1
1
1
1
1
1
1
1
1
1
1
1
1
1
1
1
1
1
1
1
1
1
1
1
1
1
1
1
1
1
1
1
1
1
1
1
1
1
1
1
1
1
1
1
1
1
1
1
1
1
1
1
1
1
1
1
1
1
1
1
1
1
1
5.54836
10.1762
10.3259
10.358
10.3936
10.4267
10.4592
10.4903
10.5198
10.5485
10.5769
10.6058
10.6346
10.6622
10.6882
10.7133
10.7387
10.7651
10.7919
10.8181
10.8434
10.8686
10.8953
10.9238
10.9523
10.9772
10.9972
11.014
11.0322
11.0539
11.0809
11.1135
11.143
11.1649
11.1794
11.1873
11.1961
11.2147
11.2453
11.282
11.3172
11.3427
11.3549
11.3581
11.3596
11.3691
11.3953
11.433
11.4692
11.4935
11.5021
11.5014
11.5008
11.5075
11.5289
11.5637
11.5994
11.6235
11.6322
11.6295
11.6261
11.6312
11.6526
11.6884
11.7222
11.7387
11.7346
11.7222
11.7146
11.7236
11.7516
11.7882
11.8125
11.8165
11.809
11.8012
11.8023
11.818
11.8416
11.8568
11.8583
11.8542
11.852
11.8577
11.8738
11.8892
11.8928
11.8842
11.8709
11.8644
11.8713
11.8882
11.9022
1
1
1
1
1
1
1
1
1
1
1
1
1
1
1
1
1
1
1
1
1
1
1
1
1
1
1
1
1
1
1
1
1
1
1
1
1
1
1
1
1
1
1
1
1
1
1
1
1
1
1
1
1
1
1
1
1
1
1
1
1
1
1
1
1
1
1
1
1
1
1
1
1
1
1
1
1
1
1
1
1
1
1
1
1
1
1
1
1
1
1
1
1
1
1
1
1
1
1
5.01695
10.0873
10.3115
10.3477
10.3857
10.4197
10.4518
10.482
10.5111
10.5404
10.5703
10.6003
10.6291
10.6556
10.6799
10.7036
10.7287
10.7562
10.7851
10.8136
10.8403
10.8657
10.8911
10.9165
10.9408
10.9625
10.9823
11.0023
11.0248
11.0501
11.0782
11.1079
11.1318
11.1479
11.1595
11.1687
11.184
11.2101
11.2441
11.28
11.311
11.3295
11.3351
11.3355
11.3392
11.3572
11.3925
11.4332
11.4658
11.4818
11.4817
11.4774
11.4782
11.4927
11.5257
11.5653
11.5969
11.6116
11.6101
11.6045
11.6036
11.6167
11.6485
11.6872
11.7144
11.7219
11.7125
11.7002
11.6976
11.7137
11.7474
11.7817
11.7994
11.7973
11.7879
11.7818
11.7876
11.8085
11.832
11.8437
11.8419
11.8362
11.8348
11.8429
11.8614
11.8767
11.879
11.87
11.857
11.8512
11.8576
11.8732
11.8845
1
1
1
1
1
1
1
1
1
1
1
1
1
1
1
1
1
1
1
1
1
1
1
1
1
1
1
1
1
1
1
1
1
1
1
1
1
1
1
1
1
1
1
1
1
1
1
1
1
1
1
1
1
1
1
1
1
1
1
1
1
1
1
1
1
1
1
1
1
1
1
1
1
1
1
1
1
1
1
1
1
1
1
1
1
1
1
1
1
1
1
1
1
1
1
1
1
1
1
4.47545
9.97634
10.2981
10.3377
10.3785
10.4136
10.4457
10.4755
10.5044
10.5336
10.5636
10.5934
10.6216
10.6475
10.6714
10.695
10.7206
10.749
10.7788
10.8079
10.8351
10.8602
10.8837
10.9065
10.9277
10.9473
10.9688
10.9933
11.0199
11.0472
11.074
11.0973
11.1137
11.126
11.1397
11.1558
11.1793
11.2088
11.2405
11.2713
11.2959
11.3093
11.3138
11.3172
11.3274
11.352
11.3883
11.4264
11.4539
11.4645
11.4616
11.4571
11.461
11.4823
11.521
11.5617
11.5885
11.5959
11.5888
11.5808
11.5831
11.6046
11.644
11.6829
11.7038
11.7029
11.6899
11.6781
11.6816
11.7059
11.7432
11.7726
11.7826
11.7755
11.7655
11.7627
11.7744
11.7997
11.8212
11.8281
11.8236
11.8173
11.8177
11.8289
11.8483
11.8619
11.8627
11.8543
11.8433
11.8392
11.8445
11.8571
11.8641
1
1
1
1
1
1
1
1
1
1
1
1
1
1
1
1
1
1
1
1
1
1
1
1
1
1
1
1
1
1
1
1
1
1
1
1
1
1
1
1
1
1
1
1
1
1
1
1
1
1
1
1
1
1
1
1
1
1
1
1
1
1
1
1
1
1
1
1
1
1
1
1
1
1
1
1
1
1
1
1
1
1
1
1
1
1
1
1
1
1
1
1
1
1
1
1
1
1
1
3.92954
9.82965
10.2876
10.329
10.3727
10.4091
10.4416
10.4708
10.4985
10.5266
10.5557
10.585
10.6133
10.6394
10.6637
10.6879
10.7135
10.7413
10.7706
10.7998
10.8275
10.8524
10.8745
10.895
10.9136
10.9322
10.9573
10.9869
11.0163
11.0434
11.0655
11.0796
11.0894
11.1031
11.1242
11.1502
11.1799
11.2091
11.2347
11.2565
11.2729
11.284
11.2933
11.3052
11.3238
11.3509
11.3826
11.4126
11.4339
11.4425
11.4418
11.4414
11.4502
11.4758
11.5141
11.5518
11.5741
11.5768
11.5682
11.5599
11.5661
11.5948
11.6378
11.6743
11.6895
11.6827
11.6675
11.6575
11.6675
11.6991
11.7375
11.7606
11.7625
11.7522
11.7423
11.7444
11.7632
11.7909
11.8087
11.8101
11.8034
11.7979
11.801
11.8156
11.8342
11.8445
11.8439
11.8369
11.8298
11.828
11.8318
11.84
11.8412
1
1
1
1
1
1
1
1
1
1
1
1
1
1
1
1
1
1
1
1
1
1
1
1
1
1
1
1
1
1
1
1
1
1
1
1
1
1
1
1
1
1
1
1
1
1
1
1
1
1
1
1
1
1
1
1
1
1
1
1
1
1
1
1
1
1
1
1
1
1
1
1
1
1
1
1
1
1
1
1
1
1
1
1
1
1
1
1
1
1
1
1
1
1
1
1
1
1
1
3.39311
9.62882
10.2856
10.324
10.3682
10.4041
10.4366
10.4654
10.4923
10.5194
10.5474
10.5765
10.6052
10.6318
10.6566
10.6812
10.7061
10.7324
10.7607
10.79
10.8181
10.8433
10.8648
10.8836
10.9006
10.9195
10.948
10.981
11.011
11.0354
11.0513
11.0574
11.0648
11.0852
11.1158
11.1496
11.1829
11.2102
11.2271
11.2371
11.2453
11.2574
11.2757
11.2986
11.3238
11.3495
11.3732
11.3932
11.4086
11.4179
11.4233
11.4302
11.4449
11.4709
11.504
11.5354
11.5539
11.5557
11.5484
11.5429
11.5532
11.586
11.629
11.6611
11.6713
11.6613
11.6456
11.6388
11.6557
11.6925
11.7284
11.745
11.7403
11.7274
11.7193
11.7275
11.7534
11.7809
11.7936
11.7897
11.7813
11.7782
11.7851
11.8026
11.8188
11.8245
11.8226
11.8181
11.8159
11.8176
11.8193
11.8216
11.8163
1
1
1
1
1
1
1
1
1
1
1
1
1
1
1
1
1
1
1
1
1
1
1
1
1
1
1
1
1
1
1
1
1
1
1
1
1
1
1
1
1
1
1
1
1
1
1
1
1
1
1
1
1
1
1
1
1
1
1
1
1
1
1
1
1
1
1
1
1
1
1
1
1
1
1
1
1
1
1
1
1
1
1
1
1
1
1
1
1
1
1
1
1
1
1
1
1
1
1
2.88013
9.35956
10.2949
10.3251
10.3676
10.4013
10.4322
10.4596
10.4854
10.5111
10.5383
10.5677
10.5971
10.6252
10.6511
10.6753
10.6988
10.7233
10.7501
10.779
10.8075
10.8333
10.8549
10.8731
10.89
10.9102
10.9396
10.9722
11.0005
11.0218
11.0342
11.0383
11.0494
11.0759
11.1114
11.1491
11.1824
11.2034
11.2107
11.213
11.2185
11.2351
11.2619
11.2925
11.3211
11.3439
11.3596
11.371
11.3818
11.3937
11.407
11.4221
11.441
11.4647
11.4907
11.5144
11.5297
11.5333
11.5297
11.5292
11.5436
11.5771
11.6165
11.6436
11.6502
11.6392
11.6243
11.6226
11.6462
11.6852
11.7158
11.7254
11.7159
11.7019
11.6973
11.7128
11.7444
11.7691
11.7753
11.7671
11.7577
11.7583
11.7702
11.7895
11.802
11.8025
11.7992
11.798
11.8014
11.8069
11.8065
11.8021
11.7903
1
1
1
1
1
1
1
1
1
1
1
1
1
1
1
1
1
1
1
1
1
1
1
1
1
1
1
1
1
1
1
1
1
1
1
1
1
1
1
1
1
1
1
1
1
1
1
1
1
1
1
1
1
1
1
1
1
1
1
1
1
1
1
1
1
1
1
1
1
1
1
1
1
1
1
1
1
1
1
1
1
1
1
1
1
1
1
1
1
1
1
1
1
1
1
1
1
1
1
2.40591
9.01493
10.3144
10.3322
10.3673
10.3966
10.4268
10.4542
10.4796
10.505
10.5318
10.5596
10.5885
10.6173
10.6446
10.6698
10.6929
10.7155
10.7406
10.7681
10.7962
10.8225
10.8454
10.8646
10.8821
10.903
10.9303
10.9591
10.9847
11.0052
11.0198
11.029
11.0457
11.0736
11.1071
11.1413
11.1684
11.1829
11.1882
11.1923
11.2017
11.2226
11.2526
11.2849
11.3128
11.3315
11.3414
11.3481
11.3577
11.373
11.3927
11.4136
11.4344
11.4546
11.4739
11.4914
11.5045
11.5107
11.5123
11.5178
11.5357
11.5668
11.6006
11.6224
11.6267
11.6166
11.6042
11.6092
11.6383
11.6756
11.6995
11.7023
11.6898
11.676
11.6771
11.7008
11.7346
11.7547
11.7541
11.7422
11.7333
11.7385
11.7563
11.7755
11.7832
11.7788
11.7742
11.7766
11.786
11.7952
11.7926
11.7816
11.7638
1
1
1
1
1
1
1
1
1
1
1
1
1
1
1
1
1
1
1
1
1
1
1
1
1
1
1
1
1
1
1
1
1
1
1
1
1
1
1
1
1
1
1
1
1
1
1
1
1
1
1
1
1
1
1
1
1
1
1
1
1
1
1
1
1
1
1
1
1
1
1
1
1
1
1
1
1
1
1
1
1
1
1
1
1
1
1
1
1
1
1
1
1
1
1
1
1
1
1
1.97582
8.58683
10.3379
10.3385
10.372
10.3957
10.422
10.4478
10.4728
10.4977
10.5236
10.5506
10.5789
10.6068
10.6349
10.6622
10.6875
10.7098
10.7323
10.757
10.7835
10.8101
10.8356
10.8582
10.8776
10.8974
10.9198
10.9429
10.9659
10.9888
11.0099
11.0279
11.0493
11.0736
11.0975
11.1213
11.1408
11.1556
11.1685
11.1817
11.1974
11.2192
11.2459
11.2724
11.2943
11.3096
11.3194
11.3279
11.3397
11.3574
11.3795
11.4022
11.4226
11.4398
11.4547
11.4683
11.4801
11.4891
11.4964
11.5074
11.527
11.5543
11.5816
11.5984
11.6012
11.5935
11.5861
11.5987
11.6306
11.6627
11.6794
11.6764
11.6621
11.6509
11.6596
11.6905
11.723
11.7369
11.7302
11.7155
11.7088
11.719
11.7423
11.7604
11.7625
11.7539
11.748
11.7541
11.7693
11.7815
11.777
11.7601
11.7379
1
1
1
1
1
1
1
1
1
1
1
1
1
1
1
1
1
1
1
1
1
1
1
1
1
1
1
1
1
1
1
1
1
1
1
1
1
1
1
1
1
1
1
1
1
1
1
1
1
1
1
1
1
1
1
1
1
1
1
1
1
1
1
1
1
1
1
1
1
1
1
1
1
1
1
1
1
1
1
1
1
1
1
1
1
1
1
1
1
1
1
1
1
1
1
1
1
1
1
1.60653
8.09624
10.3733
10.3426
10.3659