/*--------------------------------*- C++ -*----------------------------------*\
  =========                 |
  \\      /  F ield         | OpenFOAM: The Open Source CFD Toolbox
   \\    /   O peration     | Website:  https://openfoam.org
    \\  /    A nd           | Version:  7
     \\/     M anipulation  |
\*---------------------------------------------------------------------------*/
FoamFile
{
    version     2.0;
    format      ascii;
    class       volScalarField;
    location    "3.6";
    object      rho;
}
// * * * * * * * * * * * * * * * * * * * * * * * * * * * * * * * * * * * * * //

dimensions      [1 -3 0 0 0 0 0];

internalField   nonuniform List<scalar> 
258048
(
1.40001
1.40001
1.40001
1.40001
1.40001
1.40001
1.40001
1.40001
1.40001
1.40001
1.40001
1.40001
1.40001
1.40001
1.40001
1.40001
1.40001
1.40001
1.40001
1.40001
1.40001
1.40001
1.40001
1.40001
1.40001
1.40001
1.40001
1.40001
1.40001
1.40001
1.40001
1.40001
1.40001
1.40001
1.40001
1.40001
1.40001
1.40001
1.40001
1.40001
1.40001
1.40001
1.40001
1.40001
1.40001
1.40001
1.40001
1.40001
1.40001
1.40001
1.40001
1.40001
1.40001
1.40001
1.40001
1.40001
1.40001
1.40001
1.40001
1.40001
1.40001
1.40001
1.40001
1.40001
1.40001
1.40001
1.40001
1.40001
1.40001
1.40001
1.40001
1.40001
1.40001
1.40001
1.40001
1.40001
1.40001
1.40001
1.40001
1.40001
1.40001
1.40001
1.40001
1.40001
1.40001
1.40001
1.40001
1.40001
1.40001
1.40001
1.40001
1.40001
1.40001
1.40001
1.40001
1.40001
1.40001
1.40001
2.81989
5.24184
5.4237
5.4244
5.42622
5.43017
5.44149
5.45795
5.47534
5.49175
5.50642
5.51905
5.52983
5.53969
5.54792
5.55317
5.55813
5.56902
5.58699
5.60812
5.6259
5.63383
5.63088
5.62463
5.62253
5.63715
5.66233
5.68631
5.70416
5.70795
5.70149
5.69484
5.69776
5.71488
5.73787
5.75837
5.77032
5.76983
5.76483
5.76248
5.7682
5.7831
5.80194
5.81785
5.82619
5.82613
5.82393
5.8241
5.82999
5.84284
5.85866
5.87183
5.87834
5.87782
5.87609
5.87785
5.88606
5.90044
5.91526
5.92372
5.92345
5.91971
5.91804
5.92258
5.9334
5.94529
5.95207
5.95249
5.95095
5.95105
5.95574
5.96537
5.9755
5.98132
5.98218
5.98196
5.98318
5.98674
5.99283
5.99948
6.00305
6.00265
6.00114
6.0009
6.00344
6.00789
6.01216
6.01374
6.01198
6.00824
6.00446
6.00258
6.00257
6.00344
1.40001
1.40001
1.40001
1.40001
1.40001
1.40001
1.40001
1.40001
1.40001
1.40001
1.40001
1.40001
1.40001
1.40001
1.40001
1.40001
1.40001
1.40001
1.40001
1.40001
1.40001
1.40001
1.40001
1.40001
1.40001
1.40001
1.40001
1.40001
1.40001
1.40001
1.40001
1.40001
1.40001
1.40001
1.40001
1.40001
1.40001
1.40001
1.40001
1.40001
1.40001
1.40001
1.40001
1.40001
1.40001
1.40001
1.40001
1.40001
1.40001
1.40001
1.40001
1.40001
1.40001
1.40001
1.40001
1.40001
1.40001
1.40001
1.40001
1.40001
1.40001
1.40001
1.40001
1.40001
1.40001
1.40001
1.40001
1.40001
1.40001
1.40001
1.40001
1.40001
1.40001
1.40001
1.40001
1.40001
1.40001
1.40001
1.40001
1.40001
1.40001
1.40001
1.40001
1.40001
1.40001
1.40001
1.40001
1.40001
1.40001
1.40001
1.40001
1.40001
1.40001
1.40001
1.40001
1.40001
1.40001
1.40001
2.81153
5.23901
5.42281
5.42309
5.42526
5.42977
5.44196
5.45977
5.47766
5.49361
5.50721
5.51887
5.52914
5.5387
5.54726
5.55402
5.56084
5.57239
5.5892
5.60729
5.62244
5.63041
5.62984
5.62683
5.62721
5.64019
5.6635
5.68585
5.70189
5.70573
5.7012
5.69678
5.7005
5.71653
5.73835
5.75766
5.76904
5.7693
5.76539
5.76389
5.76974
5.78401
5.80183
5.81707
5.82528
5.82605
5.82451
5.82519
5.83126
5.84374
5.85888
5.87147
5.87773
5.87735
5.87586
5.87786
5.88635
5.90079
5.91539
5.92356
5.92301
5.91922
5.91767
5.92246
5.9336
5.9456
5.95223
5.95229
5.95044
5.95039
5.95527
5.9654
5.97593
5.98179
5.98228
5.98159
5.98243
5.98604
5.9926
5.99973
6.00339
6.00263
6.00078
6.0004
6.00306
6.00777
6.01208
6.0135
6.01161
6.00783
6.00419
6.00242
6.00239
6.00314
1.40001
1.40001
1.40001
1.40001
1.40001
1.40001
1.40001
1.40001
1.40001
1.40001
1.40001
1.40001
1.40001
1.40001
1.40001
1.40001
1.40001
1.40001
1.40001
1.40001
1.40001
1.40001
1.40001
1.40001
1.40001
1.40001
1.40001
1.40001
1.40001
1.40001
1.40001
1.40001
1.40001
1.40001
1.40001
1.40001
1.40001
1.40001
1.40001
1.40001
1.40001
1.40001
1.40001
1.40001
1.40001
1.40001
1.40001
1.40001
1.40001
1.40001
1.40001
1.40001
1.40001
1.40001
1.40001
1.40001
1.40001
1.40001
1.40001
1.40001
1.40001
1.40001
1.40001
1.40001
1.40001
1.40001
1.40001
1.40001
1.40001
1.40001
1.40001
1.40001
1.40001
1.40001
1.40001
1.40001
1.40001
1.40001
1.40001
1.40001
1.40001
1.40001
1.40001
1.40001
1.40001
1.40001
1.40001
1.40001
1.40001
1.40001
1.40001
1.40001
1.40001
1.40001
1.40001
1.40001
1.40001
1.40001
2.79446
5.23368
5.4207
5.42163
5.42468
5.4306
5.44417
5.46232
5.47989
5.49474
5.50704
5.51753
5.52691
5.53587
5.54448
5.55272
5.56277
5.57674
5.59289
5.60779
5.61815
5.62268
5.62326
5.62468
5.63168
5.64657
5.66674
5.68536
5.69738
5.69968
5.69736
5.69648
5.7032
5.71953
5.73938
5.75608
5.76543
5.76603
5.76384
5.76434
5.77148
5.78546
5.80175
5.81518
5.82243
5.82396
5.82347
5.82525
5.83218
5.8445
5.85872
5.87041
5.87622
5.87601
5.87489
5.87732
5.88624
5.90083
5.91524
5.92313
5.92234
5.91851
5.91702
5.92205
5.93352
5.94567
5.95225
5.95202
5.94979
5.94933
5.95416
5.96486
5.976
5.98211
5.98237
5.9811
5.98128
5.9847
5.99186
5.99972
6.00367
6.00266
6.00034
5.99963
6.00232
6.00736
6.01184
6.0132
6.01118
6.00728
6.00371
6.0021
6.0022
6.00288
1.40001
1.40001
1.40001
1.40001
1.40001
1.40001
1.40001
1.40001
1.40001
1.40001
1.40001
1.40001
1.40001
1.40001
1.40001
1.40001
1.40001
1.40001
1.40001
1.40001
1.40001
1.40001
1.40001
1.40001
1.40001
1.40001
1.40001
1.40001
1.40001
1.40001
1.40001
1.40001
1.40001
1.40001
1.40001
1.40001
1.40001
1.40001
1.40001
1.40001
1.40001
1.40001
1.40001
1.40001
1.40001
1.40001
1.40001
1.40001
1.40001
1.40001
1.40001
1.40001
1.40001
1.40001
1.40001
1.40001
1.40001
1.40001
1.40001
1.40001
1.40001
1.40001
1.40001
1.40001
1.40001
1.40001
1.40001
1.40001
1.40001
1.40001
1.40001
1.40001
1.40001
1.40001
1.40001
1.40001
1.40001
1.40001
1.40001
1.40001
1.40001
1.40001
1.40001
1.40001
1.40001
1.40001
1.40001
1.40001
1.40001
1.40001
1.40001
1.40001
1.40001
1.40001
1.40001
1.40001
1.40001
1.40001
2.7696
5.22278
5.41688
5.41965
5.42551
5.43405
5.449
5.46655
5.48218
5.49465
5.50459
5.51346
5.52274
5.53304
5.54412
5.55511
5.56743
5.5812
5.59444
5.60476
5.61051
5.61396
5.61882
5.62668
5.63842
5.65328
5.6695
5.68332
5.69133
5.69349
5.6943
5.69813
5.70801
5.72365
5.74057
5.75394
5.76114
5.76265
5.76261
5.76546
5.77419
5.7876
5.80187
5.81328
5.81968
5.8218
5.82283
5.8261
5.8337
5.84542
5.85845
5.86918
5.87463
5.8749
5.87435
5.87728
5.88655
5.90085
5.91461
5.92206
5.92138
5.91792
5.91681
5.92204
5.93351
5.94541
5.95174
5.95138
5.94905
5.94846
5.9533
5.9643
5.97581
5.98203
5.98214
5.98045
5.98012
5.98343
5.99116
5.99961
6.0037
6.00245
5.99971
5.99877
6.00148
6.0068
6.01137
6.0126
6.01046
6.00649
6.00303
6.00157
6.00174
6.00234
1.40001
1.40001
1.40001
1.40001
1.40001
1.40001
1.40001
1.40001
1.40001
1.40001
1.40001
1.40001
1.40001
1.40001
1.40001
1.40001
1.40001
1.40001
1.40001
1.40001
1.40001
1.40001
1.40001
1.40001
1.40001
1.40001
1.40001
1.40001
1.40001
1.40001
1.40001
1.40001
1.40001
1.40001
1.40001
1.40001
1.40001
1.40001
1.40001
1.40001
1.40001
1.40001
1.40001
1.40001
1.40001
1.40001
1.40001
1.40001
1.40001
1.40001
1.40001
1.40001
1.40001
1.40001
1.40001
1.40001
1.40001
1.40001
1.40001
1.40001
1.40001
1.40001
1.40001
1.40001
1.40001
1.40001
1.40001
1.40001
1.40001
1.40001
1.40001
1.40001
1.40001
1.40001
1.40001
1.40001
1.40001
1.40001
1.40001
1.40001
1.40001
1.40001
1.40001
1.40001
1.40001
1.40001
1.40001
1.40001
1.40001
1.40001
1.40001
1.40001
1.40001
1.40001
1.40001
1.40001
1.40001
1.40001
2.73559
5.20819
5.41204
5.4156
5.42585
5.43856
5.45503
5.47117
5.48409
5.49327
5.49993
5.50742
5.5179
5.53086
5.54463
5.55853
5.5723
5.58459
5.59408
5.59904
5.60103
5.60611
5.61652
5.63055
5.64573
5.65982
5.67154
5.67979
5.68401
5.68682
5.69202
5.70107
5.7139
5.72849
5.74178
5.75108
5.75576
5.75798
5.76075
5.76682
5.77744
5.79012
5.80201
5.81103
5.81641
5.81931
5.82213
5.82704
5.83518
5.84614
5.85787
5.86751
5.87262
5.87364
5.87407
5.87775
5.8872
5.90066
5.91316
5.91993
5.91978
5.91727
5.91702
5.92245
5.93348
5.94463
5.95044
5.95018
5.94823
5.94798
5.9529
5.96371
5.97504
5.98118
5.98132
5.97959
5.97912
5.98245
5.99048
5.99911
6.0032
6.00182
5.99895
5.99797
6.00069
6.00611
6.01062
6.01167
6.00946
6.00553
6.00225
6.00093
6.00109
6.00158
1.40001
1.40001
1.40001
1.40001
1.40001
1.40001
1.40001
1.40001
1.40001
1.40001
1.40001
1.40001
1.40001
1.40001
1.40001
1.40001
1.40001
1.40001
1.40001
1.40001
1.40001
1.40001
1.40001
1.40001
1.40001
1.40001
1.40001
1.40001
1.40001
1.40001
1.40001
1.40001
1.40001
1.40001
1.40001
1.40001
1.40001
1.40001
1.40001
1.40001
1.40001
1.40001
1.40001
1.40001
1.40001
1.40001
1.40001
1.40001
1.40001
1.40001
1.40001
1.40001
1.40001
1.40001
1.40001
1.40001
1.40001
1.40001
1.40001
1.40001
1.40001
1.40001
1.40001
1.40001
1.40001
1.40001
1.40001
1.40001
1.40001
1.40001
1.40001
1.40001
1.40001
1.40001
1.40001
1.40001
1.40001
1.40001
1.40001
1.40001
1.40001
1.40001
1.40001
1.40001
1.40001
1.40001
1.40001
1.40001
1.40001
1.40001
1.40001
1.40001
1.40001
1.40001
1.40001
1.40001
1.40001
1.40001
2.6923
5.19325
5.40656
5.41012
5.42511
5.44247
5.46085
5.47627
5.48646
5.49131
5.49404
5.5006
5.51364
5.53016
5.54713
5.5631
5.5766
5.58626
5.59145
5.59246
5.59275
5.60211
5.61859
5.63656
5.65266
5.66432
5.67145
5.67462
5.67602
5.68093
5.69135
5.70528
5.71984
5.73279
5.74224
5.74757
5.75021
5.75341
5.7592
5.76862
5.78076
5.79243
5.8018
5.80842
5.81293
5.81678
5.82151
5.82806
5.83666
5.84678
5.85697
5.86533
5.87022
5.87217
5.87408
5.879
5.88844
5.90051
5.91111
5.91685
5.9175
5.9164
5.91756
5.92355
5.93367
5.94332
5.94823
5.94837
5.94734
5.94798
5.95317
5.96326
5.97367
5.97936
5.97974
5.97853
5.97851
5.98204
5.98993
5.99819
6.00201
6.0007
5.9981
5.99732
6.00002
6.00531
6.00952
6.01034
6.00817
6.00444
6.00137
6.00013
6.00018
6.00059
1.40001
1.40001
1.40001
1.40001
1.40001
1.40001
1.40001
1.40001
1.40001
1.40001
1.40001
1.40001
1.40001
1.40001
1.40001
1.40001
1.40001
1.40001
1.40001
1.40001
1.40001
1.40001
1.40001
1.40001
1.40001
1.40001
1.40001
1.40001
1.40001
1.40001
1.40001
1.40001
1.40001
1.40001
1.40001
1.40001
1.40001
1.40001
1.40001
1.40001
1.40001
1.40001
1.40001
1.40001
1.40001
1.40001
1.40001
1.40001
1.40001
1.40001
1.40001
1.40001
1.40001
1.40001
1.40001
1.40001
1.40001
1.40001
1.40001
1.40001
1.40001
1.40001
1.40001
1.40001
1.40001
1.40001
1.40001
1.40001
1.40001
1.40001
1.40001
1.40001
1.40001
1.40001
1.40001
1.40001
1.40001
1.40001
1.40001
1.40001
1.40001
1.40001
1.40001
1.40001
1.40001
1.40001
1.40001
1.40001
1.40001
1.40001
1.40001
1.40001
1.40001
1.40001
1.40001
1.40001
1.40001
1.40001
2.64241
5.17939
5.39996
5.40483
5.42384
5.44438
5.46446
5.47959
5.48735
5.489
5.48987
5.49669
5.51237
5.53139
5.55006
5.56641
5.57858
5.58537
5.58726
5.5868
5.58863
5.60332
5.62378
5.64271
5.65736
5.66564
5.66836
5.66812
5.66877
5.67764
5.6928
5.70968
5.72462
5.73533
5.74131
5.74348
5.74491
5.74946
5.75828
5.77059
5.78363
5.79401
5.80101
5.80552
5.80937
5.81423
5.82088
5.82913
5.83827
5.84753
5.85597
5.8627
5.86718
5.87022
5.87399
5.88052
5.89002
5.90041
5.90871
5.91312
5.91433
5.91505
5.91822
5.92508
5.93407
5.94167
5.9454
5.9461
5.94625
5.94818
5.95393
5.96298
5.97178
5.97667
5.97756
5.9773
5.97812
5.98208
5.98948
5.99686
6.0002
5.99912
5.99715
5.9968
5.99943
6.00434
6.00806
6.00863
6.0066
6.00322
6.0004
5.99917
5.99903
5.99939
1.40001
1.40001
1.40001
1.40001
1.40001
1.40001
1.40001
1.40001
1.40001
1.40001
1.40001
1.40001
1.40001
1.40001
1.40001
1.40001
1.40001
1.40001
1.40001
1.40001
1.40001
1.40001
1.40001
1.40001
1.40001
1.40001
1.40001
1.40001
1.40001
1.40001
1.40001
1.40001
1.40001
1.40001
1.40001
1.40001
1.40001
1.40001
1.40001
1.40001
1.40001
1.40001
1.40001
1.40001
1.40001
1.40001
1.40001
1.40001
1.40001
1.40001
1.40001
1.40001
1.40001
1.40001
1.40001
1.40001
1.40001
1.40001
1.40001
1.40001
1.40001
1.40001
1.40001
1.40001
1.40001
1.40001
1.40001
1.40001
1.40001
1.40001
1.40001
1.40001
1.40001
1.40001
1.40001
1.40001
1.40001
1.40001
1.40001
1.40001
1.40001
1.40001
1.40001
1.40001
1.40001
1.40001
1.40001
1.40001
1.40001
1.40001
1.40001
1.40001
1.40001
1.40001
1.40001
1.40001
1.40001
1.40001
2.58559
5.16296
5.39433
5.40157
5.42278
5.44458
5.46535
5.48018
5.48699
5.48807
5.48961
5.49703
5.5134
5.53307
5.55158
5.5672
5.57784
5.58224
5.58273
5.58335
5.58921
5.60763
5.62847
5.64626
5.65848
5.66334
5.66307
5.66193
5.66469
5.67786
5.69584
5.71316
5.72702
5.73551
5.73874
5.7391
5.74052
5.74704
5.75851
5.77268
5.7857
5.79457
5.79947
5.80234
5.8058
5.81174
5.82034
5.83028
5.84002
5.84843
5.85497
5.8598
5.86359
5.86766
5.87357
5.88199
5.89175
5.9005
5.90635
5.90911
5.91057
5.91325
5.91879
5.92664
5.93452
5.93999
5.94242
5.94339
5.94484
5.94838
5.95474
5.96265
5.96953
5.97346
5.97497
5.97587
5.97775
5.98222
5.98896
5.99518
5.99796
5.99727
5.99608
5.99629
5.99885
6.00317
6.00627
6.0066
6.00478
6.00183
5.99927
5.99798
5.99766
5.99805
1.40001
1.40001
1.40001
1.40001
1.40001
1.40001
1.40001
1.40001
1.40001
1.40001
1.40001
1.40001
1.40001
1.40001
1.40001
1.40001
1.40001
1.40001
1.40001
1.40001
1.40001
1.40001
1.40001
1.40001
1.40001
1.40001
1.40001
1.40001
1.40001
1.40001
1.40001
1.40001
1.40001
1.40001
1.40001
1.40001
1.40001
1.40001
1.40001
1.40001
1.40001
1.40001
1.40001
1.40001
1.40001
1.40001
1.40001
1.40001
1.40001
1.40001
1.40001
1.40001
1.40001
1.40001
1.40001
1.40001
1.40001
1.40001
1.40001
1.40001
1.40001
1.40001
1.40001
1.40001
1.40001
1.40001
1.40001
1.40001
1.40001
1.40001
1.40001
1.40001
1.40001
1.40001
1.40001
1.40001
1.40001
1.40001
1.40001
1.40001
1.40001
1.40001
1.40001
1.40001
1.40001
1.40001
1.40001
1.40001
1.40001
1.40001
1.40001
1.40001
1.40001
1.40001
1.40001
1.40001
1.40001
1.40001
2.51898
5.14212
5.39334
5.40158
5.42251
5.44353
5.46367
5.47829
5.48606
5.4892
5.49261
5.50019
5.51509
5.53349
5.55077
5.56487
5.57389
5.5778
5.57967
5.58281
5.59267
5.61124
5.63034
5.64625
5.65597
5.65837
5.65768
5.65828
5.66473
5.68057
5.69855
5.71458
5.72669
5.73337
5.73503
5.73504
5.73768
5.74633
5.75967
5.77442
5.78665
5.79405
5.79722
5.79897
5.80235
5.80949
5.81996
5.83147
5.84174
5.84919
5.85386
5.85678
5.85978
5.86474
5.87281
5.88317
5.89325
5.90049
5.90404
5.9052
5.90674
5.91122
5.91901
5.92782
5.93474
5.93837
5.93963
5.94064
5.94322
5.94828
5.95517
5.96206
5.9672
5.97021
5.97215
5.97417
5.97727
5.98218
5.98817
5.9932
5.99547
5.99532
5.99493
5.99567
5.99817
6.00181
6.00425
6.00437
6.00276
6.00021
5.9979
5.99659
5.99613
5.9966
1.40001
1.40001
1.40001
1.40001
1.40001
1.40001
1.40001
1.40001
1.40001
1.40001
1.40001
1.40001
1.40001
1.40001
1.40001
1.40001
1.40001
1.40001
1.40001
1.40001
1.40001
1.40001
1.40001
1.40001
1.40001
1.40001
1.40001
1.40001
1.40001
1.40001
1.40001
1.40001
1.40001
1.40001
1.40001
1.40001
1.40001
1.40001
1.40001
1.40001
1.40001
1.40001
1.40001
1.40001
1.40001
1.40001
1.40001
1.40001
1.40001
1.40001
1.40001
1.40001
1.40001
1.40001
1.40001
1.40001
1.40001
1.40001
1.40001
1.40001
1.40001
1.40001
1.40001
1.40001
1.40001
1.40001
1.40001
1.40001
1.40001
1.40001
1.40001
1.40001
1.40001
1.40001
1.40001
1.40001
1.40001
1.40001
1.40001
1.40001
1.40001
1.40001
1.40001
1.40001
1.40001
1.40001
1.40001
1.40001
1.40001
1.40001
1.40001
1.40001
1.40001
1.40001
1.40001
1.40001
1.40001
1.40001
2.44262
5.11341
5.39731
5.40398
5.4232
5.44221
5.46067
5.47516
5.48501
5.49141
5.49699
5.50449
5.51664
5.53233
5.54748
5.56008
5.56912
5.57482
5.57929
5.58512
5.59643
5.61278
5.62958
5.64296
5.6506
5.65312
5.65436
5.65808
5.66783
5.68384
5.70002
5.71413
5.72442
5.72964
5.73096
5.73186
5.73649
5.74689
5.76109
5.77549
5.78662
5.79245
5.79438
5.79554
5.79921
5.80772
5.81988
5.83262
5.84293
5.84934
5.85226
5.85364
5.85604
5.8619
5.87202
5.88396
5.89404
5.89986
5.90152
5.90153
5.9033
5.90932
5.91886
5.92829
5.93442
5.93661
5.93698
5.93803
5.94156
5.94775
5.95489
5.96087
5.96475
5.96724
5.96954
5.97244
5.97653
5.98171
5.98698
5.99097
5.9929
5.99336
5.99371
5.99492
5.9973
6.00019
6.00201
6.00198
6.00054
5.99831
5.99619
5.99491
5.99441
5.99502
1.40001
1.40001
1.40001
1.40001
1.40001
1.40001
1.40001
1.40001
1.40001
1.40001
1.40001
1.40001
1.40001
1.40001
1.40001
1.40001
1.40001
1.40001
1.40001
1.40001
1.40001
1.40001
1.40001
1.40001
1.40001
1.40001
1.40001
1.40001
1.40001
1.40001
1.40001
1.40001
1.40001
1.40001
1.40001
1.40001
1.40001
1.40001
1.40001
1.40001
1.40001
1.40001
1.40001
1.40001
1.40001
1.40001
1.40001
1.40001
1.40001
1.40001
1.40001
1.40001
1.40001
1.40001
1.40001
1.40001
1.40001
1.40001
1.40001
1.40001
1.40001
1.40001
1.40001
1.40001
1.40001
1.40001
1.40001
1.40001
1.40001
1.40001
1.40001
1.40001
1.40001
1.40001
1.40001
1.40001
1.40001
1.40001
1.40001
1.40001
1.40001
1.40001
1.40001
1.40001
1.40001
1.40001
1.40001
1.40001
1.40001
1.40001
1.40001
1.40001
1.40001
1.40001
1.40001
1.40001
1.40001
1.40001
2.35767
5.07498
5.40204
5.40605
5.4224
5.43939
5.45737
5.47334
5.48598
5.49488
5.50096
5.50718
5.51662
5.52946
5.54312
5.5558
5.56626
5.57404
5.58057
5.58815
5.59897
5.61302
5.62706
5.63795
5.64485
5.64914
5.65334
5.66012
5.67152
5.68612
5.70044
5.71259
5.72111
5.72563
5.72738
5.72967
5.73619
5.74788
5.76226
5.77595
5.78573
5.79
5.79101
5.79206
5.79657
5.80683
5.82039
5.83359
5.84326
5.84826
5.84966
5.85011
5.85253
5.85987
5.87173
5.88442
5.89382
5.89797
5.89828
5.89798
5.90057
5.90817
5.91871
5.92806
5.93312
5.93427
5.93427
5.9357
5.94014
5.94699
5.95395
5.95903
5.96212
5.96449
5.96726
5.97089
5.97549
5.98056
5.98512
5.98837
5.99026
5.99135
5.99239
5.99394
5.9961
5.99827
5.99958
5.99949
5.99819
5.99618
5.99418
5.99298
5.99255
5.99334
1.40001
1.40001
1.40001
1.40001
1.40001
1.40001
1.40001
1.40001
1.40001
1.40001
1.40001
1.40001
1.40001
1.40001
1.40001
1.40001
1.40001
1.40001
1.40001
1.40001
1.40001
1.40001
1.40001
1.40001
1.40001
1.40001
1.40001
1.40001
1.40001
1.40001
1.40001
1.40001
1.40001
1.40001
1.40001
1.40001
1.40001
1.40001
1.40001
1.40001
1.40001
1.40001
1.40001
1.40001
1.40001
1.40001
1.40001
1.40001
1.40001
1.40001
1.40001
1.40001
1.40001
1.40001
1.40001
1.40001
1.40001
1.40001
1.40001
1.40001
1.40001
1.40001
1.40001
1.40001
1.40001
1.40001
1.40001
1.40001
1.40001
1.40001
1.40001
1.40001
1.40001
1.40001
1.40001
1.40001
1.40001
1.40001
1.40001
1.40001
1.40001
1.40001
1.40001
1.40001
1.40001
1.40001
1.40001
1.40001
1.40001
1.40001
1.40001
1.40001
1.40001
1.40001
1.40001
1.40001
1.40001
1.40001
2.26765
5.02995
5.40653
5.40759
5.42114
5.43732
5.45589
5.47357
5.48792
5.49738
5.50305
5.50802
5.51553
5.52672
5.54011
5.55357
5.56511
5.57393
5.58154
5.5897
5.59993
5.61216
5.62387
5.63351
5.64098
5.64724
5.65364
5.66229
5.67374
5.68689
5.69971
5.71042
5.71801
5.72238
5.72465
5.728
5.73599
5.74863
5.76307
5.77591
5.78396
5.78668
5.78708
5.78851
5.79481
5.80719
5.82177
5.83445
5.84251
5.84541
5.84557
5.84595
5.84978
5.85949
5.87264
5.88477
5.89228
5.89446
5.894
5.89434
5.89881
5.90814
5.91904
5.92736
5.93086
5.93117
5.93134
5.93368
5.93917
5.94629
5.95252
5.95657
5.95913
5.9617
5.96515
5.96953
5.97435
5.97889
5.98262
5.98537
5.98748
5.98928
5.99097
5.99273
5.99454
5.99608
5.99699
5.99691
5.99574
5.99389
5.99197
5.99086
5.99058
5.99156
1.40001
1.40001
1.40001
1.40001
1.40001
1.40001
1.40001
1.40001
1.40001
1.40001
1.40001
1.40001
1.40001
1.40001
1.40001
1.40001
1.40001
1.40001
1.40001
1.40001
1.40001
1.40001
1.40001
1.40001
1.40001
1.40001
1.40001
1.40001
1.40001
1.40001
1.40001
1.40001
1.40001
1.40001
1.40001
1.40001
1.40001
1.40001
1.40001
1.40001
1.40001
1.40001
1.40001
1.40001
1.40001
1.40001
1.40001
1.40001
1.40001
1.40001
1.40001
1.40001
1.40001
1.40001
1.40001
1.40001
1.40001
1.40001
1.40001
1.40001
1.40001
1.40001
1.40001
1.40001
1.40001
1.40001
1.40001
1.40001
1.40001
1.40001
1.40001
1.40001
1.40001
1.40001
1.40001
1.40001
1.40001
1.40001
1.40001
1.40001
1.40001
1.40001
1.40001
1.40001
1.40001
1.40001
1.40001
1.40001
1.40001
1.40001
1.40001
1.40001
1.40001
1.40001
1.40001
1.40001
1.40001
1.40001
2.17377
4.97723
5.41016
5.40895
5.42118
5.43737
5.45653
5.47469
5.48872
5.49723
5.5022
5.50701
5.51449
5.5257
5.53934
5.55305
5.5645
5.57308
5.58064
5.58911
5.59941
5.61099
5.62192
5.63138
5.63944
5.64657
5.65381
5.66276
5.67386
5.68612
5.69824
5.70858
5.71582
5.71998
5.72236
5.72626
5.73548
5.74908
5.76365
5.77546
5.78149
5.78256
5.78256
5.78497
5.794
5.80878
5.82394
5.8352
5.8404
5.84073
5.84001
5.84123
5.84811
5.86076
5.87471
5.88501
5.88938
5.88945
5.88867
5.89052
5.89785
5.90899
5.91963
5.92604
5.9277
5.92735
5.92803
5.93177
5.93847
5.94558
5.95073
5.95363
5.95575
5.95872
5.96309
5.96824
5.97305
5.97683
5.97966
5.98207
5.98459
5.98718
5.98949
5.99134
5.99273
5.99371
5.9943
5.99421
5.99316
5.99142
5.98954
5.9885
5.98837
5.98951
1.40001
1.40001
1.40001
1.40001
1.40001
1.40001
1.40001
1.40001
1.40001
1.40001
1.40001
1.40001
1.40001
1.40001
1.40001
1.40001
1.40001
1.40001
1.40001
1.40001
1.40001
1.40001
1.40001
1.40001
1.40001
1.40001
1.40001
1.40001
1.40001
1.40001
1.40001
1.40001
1.40001
1.40001
1.40001
1.40001
1.40001
1.40001
1.40001
1.40001
1.40001
1.40001
1.40001
1.40001
1.40001
1.40001
1.40001
1.40001
1.40001
1.40001
1.40001
1.40001
1.40001
1.40001
1.40001
1.40001
1.40001
1.40001
1.40001
1.40001
1.40001
1.40001
1.40001
1.40001
1.40001
1.40001
1.40001
1.40001
1.40001
1.40001
1.40001
1.40001
1.40001
1.40001
1.40001
1.40001
1.40001
1.40001
1.40001
1.40001
1.40001
1.40001
1.40001
1.40001
1.40001
1.40001
1.40001
1.40001
1.40001
1.40001
1.40001
1.40001
1.40001
1.40001
1.40001
1.40001
1.40001
1.40001
2.07641
4.91551
5.413
5.40971
5.42179
5.43794
5.45705
5.47482
5.48776
5.49505
5.49965
5.50539
5.51447
5.52666
5.54036
5.55339
5.56362
5.5707
5.57758
5.58671
5.59817
5.61048
5.62176
5.63141
5.63933
5.64595
5.65261
5.66122
5.67236
5.68473
5.69722
5.70757
5.71429
5.71771
5.71971
5.72401
5.73483
5.74964
5.76431
5.77463
5.7783
5.77777
5.7775
5.78153
5.79398
5.81118
5.82644
5.83534
5.83692
5.83494
5.83344
5.83648
5.84747
5.86321
5.87715
5.88458
5.88537
5.88373
5.88298
5.88704
5.89762
5.91035
5.91998
5.92391
5.92374
5.92295
5.92451
5.93009
5.93801
5.94481
5.94863
5.95031
5.95204
5.95553
5.96099
5.96694
5.9716
5.97447
5.97637
5.97849
5.98148
5.98489
5.9878
5.98967
5.99064
5.99112
5.99145
5.99136
5.99041
5.98876
5.98693
5.98593
5.98593
5.9872
1.40001
1.40001
1.40001
1.40001
1.40001
1.40001
1.40001
1.40001
1.40001
1.40001
1.40001
1.40001
1.40001
1.40001
1.40001
1.40001
1.40001
1.40001
1.40001
1.40001
1.40001
1.40001
1.40001
1.40001
1.40001
1.40001
1.40001
1.40001
1.40001
1.40001
1.40001
1.40001
1.40001
1.40001
1.40001
1.40001
1.40001
1.40001
1.40001
1.40001
1.40001
1.40001
1.40001
1.40001
1.40001
1.40001
1.40001
1.40001
1.40001
1.40001
1.40001
1.40001
1.40001
1.40001
1.40001
1.40001
1.40001
1.40001
1.40001
1.40001
1.40001
1.40001
1.40001
1.40001
1.40001
1.40001
1.40001
1.40001
1.40001
1.40001
1.40001
1.40001
1.40001
1.40001
1.40001
1.40001
1.40001
1.40001
1.40001
1.40001
1.40001
1.40001
1.40001
1.40001
1.40001
1.40001
1.40001
1.40001
1.40001
1.40001
1.40001
1.40001
1.40001
1.40001
1.40001
1.40001
1.40001
1.40001
1.97788
4.84355
5.41419
5.41067
5.42337
5.43914
5.45731
5.47345
5.48463
5.49098
5.49623
5.50425
5.51571
5.52889
5.54186
5.55338
5.56153
5.56678
5.57345
5.58407
5.59737
5.61098
5.6228
5.63221
5.63922
5.64443
5.65
5.65843
5.67044
5.68403
5.69713
5.70702
5.71243
5.71461
5.71625
5.72161
5.73463
5.75067
5.76495
5.77335
5.77448
5.77254
5.77225
5.7787
5.79487
5.81383
5.8281
5.83431
5.83254
5.8285
5.82683
5.83287
5.84818
5.86597
5.87851
5.88271
5.88062
5.87757
5.87745
5.8844
5.89788
5.91135
5.91928
5.92067
5.91926
5.91837
5.92118
5.92873
5.93759
5.94372
5.94606
5.94664
5.94807
5.9522
5.95885
5.96555
5.96998
5.97193
5.97294
5.9748
5.97825
5.98244
5.98586
5.98771
5.98828
5.98834
5.98845
5.98836
5.98748
5.98589
5.98408
5.98311
5.98321
5.98461
1.40001
1.40001
1.40001
1.40001
1.40001
1.40001
1.40001
1.40001
1.40001
1.40001
1.40001
1.40001
1.40001
1.40001
1.40001
1.40001
1.40001
1.40001
1.40001
1.40001
1.40001
1.40001
1.40001
1.40001
1.40001
1.40001
1.40001
1.40001
1.40001
1.40001
1.40001
1.40001
1.40001
1.40001
1.40001
1.40001
1.40001
1.40001
1.40001
1.40001
1.40001
1.40001
1.40001
1.40001
1.40001
1.40001
1.40001
1.40001
1.40001
1.40001
1.40001
1.40001
1.40001
1.40001
1.40001
1.40001
1.40001
1.40001
1.40001
1.40001
1.40001
1.40001
1.40001
1.40001
1.40001
1.40001
1.40001
1.40001
1.40001
1.40001
1.40001
1.40001
1.40001
1.40001
1.40001
1.40001
1.40001
1.40001
1.40001
1.40001
1.40001
1.40001
1.40001
1.40001
1.40001
1.40001
1.40001
1.40001
1.40001
1.40001
1.40001
1.40001
1.40001
1.40001
1.40001
1.40001
1.40001
1.40001
1.88207
4.75975
5.41185
5.41053
5.42401
5.43931
5.45605
5.47038
5.48027
5.48652
5.49358
5.50418
5.51725
5.53058
5.5425
5.55188
5.55774
5.56199
5.56985
5.58259
5.59744
5.61169
5.62358
5.63234
5.63774
5.64105
5.64614
5.65576
5.66937
5.68421
5.69745
5.70614
5.70951
5.71029
5.7122
5.71982
5.73509
5.75174
5.76495
5.77116
5.77014
5.76704
5.76742
5.77726
5.79635
5.81563
5.82826
5.83131
5.82721
5.82178
5.82129
5.83148
5.84999
5.86775
5.87804
5.87896
5.87513
5.87146
5.87294
5.88323
5.89854
5.91137
5.91707
5.91646
5.91438
5.91403
5.91862
5.92795
5.93704
5.94186
5.94273
5.94259
5.944
5.94896
5.95676
5.96398
5.96799
5.96902
5.96927
5.97097
5.97485
5.97972
5.98352
5.9853
5.98555
5.98531
5.98532
5.98527
5.9844
5.98279
5.98096
5.98003
5.98027
5.98184
1.40001
1.40001
1.40001
1.40001
1.40001
1.40001
1.40001
1.40001
1.40001
1.40001
1.40001
1.40001
1.40001
1.40001
1.40001
1.40001
1.40001
1.40001
1.40001
1.40001
1.40001
1.40001
1.40001
1.40001
1.40001
1.40001
1.40001
1.40001
1.40001
1.40001
1.40001
1.40001
1.40001
1.40001
1.40001
1.40001
1.40001
1.40001
1.40001
1.40001
1.40001
1.40001
1.40001
1.40001
1.40001
1.40001
1.40001
1.40001
1.40001
1.40001
1.40001
1.40001
1.40001
1.40001
1.40001
1.40001
1.40001
1.40001
1.40001
1.40001
1.40001
1.40001
1.40001
1.40001
1.40001
1.40001
1.40001
1.40001
1.40001
1.40001
1.40001
1.40001
1.40001
1.40001
1.40001
1.40001
1.40001
1.40001
1.40001
1.40001
1.40001
1.40001
1.40001
1.40001
1.40001
1.40001
1.40001
1.40001
1.40001
1.40001
1.40001
1.40001
1.40001
1.40001
1.40001
1.40001
1.40001
1.40001
1.79095
4.66316
5.40818
5.41101
5.4248
5.43893
5.45368
5.46607
5.47524
5.48291
5.49263
5.50504
5.51807
5.53008
5.54018
5.54758
5.55256
5.55812
5.56859
5.58328
5.59845
5.6117
5.62221
5.62944
5.63308
5.63608
5.64304
5.65493
5.66985
5.68471
5.69678
5.70326
5.70466
5.70503
5.70867
5.7193
5.73602
5.75217
5.76357
5.76742
5.76512
5.7618
5.76439
5.77783
5.79801
5.81597
5.82626
5.82635
5.82088
5.81554
5.81826
5.83263
5.85216
5.86787
5.87511
5.87344
5.86875
5.86591
5.87042
5.88372
5.89924
5.90994
5.91288
5.9112
5.90918
5.91021
5.91722
5.92766
5.93592
5.93893
5.93861
5.93815
5.93997
5.94607
5.95489
5.96229
5.96557
5.9657
5.96542
5.96713
5.97151
5.97685
5.98079
5.9824
5.98242
5.98206
5.98214
5.98216
5.9812
5.97943
5.97748
5.97663
5.97712
5.979
1.40001
1.40001
1.40001
1.40001
1.40001
1.40001
1.40001
1.40001
1.40001
1.40001
1.40001
1.40001
1.40001
1.40001
1.40001
1.40001
1.40001
1.40001
1.40001
1.40001
1.40001
1.40001
1.40001
1.40001
1.40001
1.40001
1.40001
1.40001
1.40001
1.40001
1.40001
1.40001
1.40001
1.40001
1.40001
1.40001
1.40001
1.40001
1.40001
1.40001
1.40001
1.40001
1.40001
1.40001
1.40001
1.40001
1.40001
1.40001
1.40001
1.40001
1.40001
1.40001
1.40001
1.40001
1.40001
1.40001
1.40001
1.40001
1.40001
1.40001
1.40001
1.40001
1.40001
1.40001
1.40001
1.40001
1.40001
1.40001
1.40001
1.40001
1.40001
1.40001
1.40001
1.40001
1.40001
1.40001
1.40001
1.40001
1.40001
1.40001
1.40001
1.40001
1.40001
1.40001
1.40001
1.40001
1.40001
1.40001
1.40001
1.40001
1.40001
1.40001
1.40001
1.40001
1.40001
1.40001
1.40001
1.40001
1.70442
4.55647
5.40694
5.41238
5.42594
5.43834
5.45072
5.46159
5.4712
5.48114
5.49292
5.50588
5.51803
5.52827
5.53622
5.54233
5.54806
5.55656
5.56974
5.58529
5.59948
5.61083
5.61903
5.6242
5.62706
5.63185
5.64208
5.65596
5.67103
5.68484
5.69455
5.69851
5.6988
5.70035
5.70703
5.72021
5.73699
5.7516
5.7604
5.76196
5.75933
5.75751
5.7637
5.77999
5.79942
5.81488
5.82191
5.81967
5.8139
5.81069
5.81793
5.83539
5.85392
5.86651
5.86984
5.86634
5.86179
5.86132
5.86995
5.88544
5.89961
5.90699
5.90719
5.90505
5.9039
5.90734
5.91697
5.9276
5.93389
5.93484
5.93375
5.93333
5.93613
5.94372
5.95325
5.96017
5.96246
5.9618
5.96126
5.96328
5.96823
5.97379
5.97756
5.97891
5.97882
5.97857
5.97895
5.97911
5.9779
5.97576
5.9736
5.97289
5.97378
5.97613
1.40001
1.40001
1.40001
1.40001
1.40001
1.40001
1.40001
1.40001
1.40001
1.40001
1.40001
1.40001
1.40001
1.40001
1.40001
1.40001
1.40001
1.40001
1.40001
1.40001
1.40001
1.40001
1.40001
1.40001
1.40001
1.40001
1.40001
1.40001
1.40001
1.40001
1.40001
1.40001
1.40001
1.40001
1.40001
1.40001
1.40001
1.40001
1.40001
1.40001
1.40001
1.40001
1.40001
1.40001
1.40001
1.40001
1.40001
1.40001
1.40001
1.40001
1.40001
1.40001
1.40001
1.40001
1.40001
1.40001
1.40001
1.40001
1.40001
1.40001
1.40001
1.40001
1.40001
1.40001
1.40001
1.40001
1.40001
1.40001
1.40001
1.40001
1.40001
1.40001
1.40001
1.40001
1.40001
1.40001
1.40001
1.40001
1.40001
1.40001
1.40001
1.40001
1.40001
1.40001
1.40001
1.40001
1.40001
1.40001
1.40001
1.40001
1.40001
1.40001
1.40001
1.40001
1.40001
1.40001
1.40001
1.40001
1.62148
4.44255
5.41229
5.41471
5.42602
5.43659
5.44725
5.45776
5.46859
5.48056
5.49343
5.50585
5.51644
5.52468
5.53111
5.53727
5.54521
5.55685
5.57174
5.58678
5.59922
5.60802
5.61383
5.61786
5.62175
5.6298
5.64284
5.65746
5.67126
5.68276
5.68972
5.69204
5.69335
5.69797
5.7078
5.72204
5.73719
5.7488
5.75462
5.75504
5.75316
5.75476
5.76534
5.78288
5.80035
5.81226
5.81558
5.81192
5.80692
5.80753
5.81959
5.83826
5.85449
5.86327
5.86299
5.85848
5.85491
5.85797
5.87091
5.88717
5.89891
5.90255
5.90073
5.89835
5.8988
5.90564
5.91732
5.92705
5.93078
5.92987
5.92813
5.9283
5.93277
5.94201
5.95176
5.95752
5.9585
5.95728
5.95681
5.95949
5.96512
5.97058
5.97382
5.97485
5.97475
5.97488
5.97582
5.97617
5.97456
5.97179
5.96929
5.96877
5.97024
5.97322
1.40001
1.40001
1.40001
1.40001
1.40001
1.40001
1.40001
1.40001
1.40001
1.40001
1.40001
1.40001
1.40001
1.40001
1.40001
1.40001
1.40001
1.40001
1.40001
1.40001
1.40001
1.40001
1.40001
1.40001
1.40001
1.40001
1.40001
1.40001
1.40001
1.40001
1.40001
1.40001
1.40001
1.40001
1.40001
1.40001
1.40001