/*--------------------------------*- C++ -*----------------------------------*\
  =========                 |
  \\      /  F ield         | OpenFOAM: The Open Source CFD Toolbox
   \\    /   O peration     | Website:  https://openfoam.org
    \\  /    A nd           | Version:  7
     \\/     M anipulation  |
\*---------------------------------------------------------------------------*/
FoamFile
{
    version     2.0;
    format      ascii;
    class       volVectorField;
    location    "1.3";
    object      U;
}
// * * * * * * * * * * * * * * * * * * * * * * * * * * * * * * * * * * * * * //

dimensions      [0 1 -1 0 0 0 0];

internalField   nonuniform List<vector> 
16128
(
(3 -4.81647e-17 0)
(3 -5.47206e-16 0)
(3 -4.2063e-16 0)
(3 -2.41391e-16 0)
(3 5.24915e-17 0)
(3 -2.80403e-17 0)
(3 -5.95323e-16 0)
(3 -4.81974e-16 0)
(3 -5.33721e-17 0)
(3 8.73258e-18 0)
(3 -2.02615e-16 0)
(3 -4.8133e-16 0)
(3 -7.66945e-16 0)
(3 -3.19113e-16 0)
(3 7.83301e-17 0)
(3 1.41403e-16 0)
(3 2.22621e-16 0)
(3 1.26908e-16 0)
(3 -1.41579e-16 0)
(3 1.36527e-16 0)
(3 4.71073e-16 0)
(3 1.30472e-15 0)
(3 1.97816e-15 0)
(3 2.23721e-15 0)
(3 1.73858e-15 0)
(2.92566 0.00158208 0)
(0.995719 0.0111508 0)
(0.695531 0.00723599 0)
(0.677602 0.0101732 0)
(0.657167 0.0120084 0)
(0.632309 0.0140335 0)
(0.601757 0.014922 0)
(0.568992 0.0145304 0)
(0.537464 0.0135391 0)
(0.507502 0.0134345 0)
(0.476175 0.0147321 0)
(0.442464 0.0166515 0)
(0.405883 0.0176549 0)
(0.368765 0.0171786 0)
(0.332104 0.0163727 0)
(0.295838 0.0162081 0)
(0.259994 0.0165115 0)
(0.224036 0.0174462 0)
(0.187111 0.0183745 0)
(0.150271 0.0195006 0)
(0.110622 0.0204811 0)
(0.068415 0.021173 0)
(0.0240128 0.022176 0)
(3 -2.21081e-16 0)
(3 -2.34151e-16 0)
(3 -5.05802e-16 0)
(3 -4.18929e-16 0)
(3 -4.66669e-17 0)
(3 -6.74918e-16 0)
(3 -9.53225e-16 0)
(3 -1.29378e-15 0)
(3 -9.34175e-16 0)
(3 -5.96376e-16 0)
(3 -6.15623e-16 0)
(3 -1.1257e-15 0)
(3 -1.08701e-15 0)
(3 -5.77639e-16 0)
(3 -2.3919e-16 0)
(3 -5.29114e-16 0)
(3 -1.954e-16 0)
(3 -6.61214e-16 0)
(3 -4.49987e-16 0)
(3 7.38962e-16 0)
(3 1.43718e-15 0)
(3 2.50724e-15 0)
(3 2.71579e-15 0)
(3 2.66921e-15 0)
(3 2.48499e-15 0)
(2.93045 0.0144417 0)
(1.00121 0.0482074 0)
(0.694401 0.0288603 0)
(0.674909 0.0299105 0)
(0.652945 0.0359948 0)
(0.625389 0.0414345 0)
(0.59357 0.0437232 0)
(0.560917 0.0425349 0)
(0.529675 0.0400811 0)
(0.499252 0.0401352 0)
(0.46715 0.0441179 0)
(0.432841 0.0497442 0)
(0.396017 0.0524355 0)
(0.35943 0.050974 0)
(0.323689 0.0489763 0)
(0.288339 0.0489689 0)
(0.253293 0.0501005 0)
(0.218152 0.0528603 0)
(0.181928 0.0554018 0)
(0.146075 0.0586511 0)
(0.107533 0.0616721 0)
(0.066462 0.0639607 0)
(0.0235511 0.0671381 0)
(3 -4.68151e-17 0)
(3 3.5358e-16 0)
(3 2.63464e-16 0)
(3 2.04317e-16 0)
(3 3.56857e-17 0)
(3 -1.74532e-16 0)
(3 -4.48427e-16 0)
(3 -9.86931e-16 0)
(3 -1.15628e-15 0)
(3 -1.16397e-15 0)
(3 -9.0733e-16 0)
(3 -4.33866e-16 0)
(3 -1.3822e-16 0)
(3 -2.18535e-16 0)
(3 -3.86088e-16 0)
(3 -4.71483e-16 0)
(3 -6.52352e-16 0)
(3 -1.2081e-15 0)
(3 -1.02851e-15 0)
(3 -2.59858e-16 0)
(3 -2.67938e-16 0)
(3 9.65786e-16 0)
(3 1.28666e-15 0)
(3 2.03001e-15 0)
(3 2.24782e-15 0)
(2.95896 0.0167684 0)
(1.03016 0.076032 0)
(0.710978 0.0482545 0)
(0.684517 0.0538552 0)
(0.657128 0.0636466 0)
(0.626011 0.0715723 0)
(0.592788 0.0743751 0)
(0.559854 0.0719815 0)
(0.528243 0.0681745 0)
(0.496533 0.0685544 0)
(0.462936 0.0750421 0)
(0.427224 0.0838428 0)
(0.389185 0.0875834 0)
(0.352226 0.0847275 0)
(0.316521 0.0813936 0)
(0.281286 0.0814872 0)
(0.246277 0.0831731 0)
(0.211256 0.0873026 0)
(0.174919 0.0908918 0)
(0.139659 0.0959129 0)
(0.10231 0.101193 0)
(0.0628531 0.105463 0)
(0.0224341 0.111494 0)
(3 1.0409e-16 0)
(3 -4.11481e-17 0)
(3 1.59112e-16 0)
(3 2.08579e-16 0)
(3 6.58706e-16 0)
(3 1.00525e-15 0)
(3 5.70612e-16 0)
(3 6.43203e-17 0)
(3 -5.36206e-16 0)
(3 -5.68283e-16 0)
(3 2.94507e-16 0)
(3 1.18026e-15 0)
(3 1.1583e-15 0)
(3 9.28008e-16 0)
(3 3.73073e-16 0)
(3 1.86141e-16 0)
(3 -8.15759e-16 0)
(3 -1.124e-15 0)
(3 -1.32632e-15 0)
(3 -1.47538e-15 0)
(3 -1.58153e-15 0)
(3 -1.33872e-15 0)
(3 -4.79098e-16 0)
(3 1.7907e-15 0)
(3 2.2239e-15 0)
(2.99837 0.00307403 0)
(1.08214 0.0940005 0)
(0.719814 0.0723113 0)
(0.6885 0.0814386 0)
(0.660448 0.0928251 0)
(0.629492 0.101702 0)
(0.596687 0.10462 0)
(0.564384 0.101047 0)
(0.532917 0.0963767 0)
(0.500386 0.097638 0)
(0.465839 0.106879 0)
(0.429042 0.118768 0)
(0.38982 0.12341 0)
(0.352276 0.11922 0)
(0.316095 0.114746 0)
(0.28034 0.115125 0)
(0.244639 0.1174 0)
(0.208854 0.122754 0)
(0.171315 0.126984 0)
(0.135407 0.133005 0)
(0.0982683 0.140107 0)
(0.0596355 0.145985 0)
(0.0214 0.154732 0)
(3 1.4628e-16 0)
(3 -6.18157e-17 0)
(3 -2.35978e-16 0)
(3 -1.53428e-16 0)
(3 7.23412e-17 0)
(3 -1.66388e-16 0)
(3 -5.12151e-16 0)
(3 -6.69184e-16 0)
(3 -8.34529e-16 0)
(3 3.14682e-17 0)
(3 9.80202e-16 0)
(3 1.25053e-15 0)
(3 1.07018e-15 0)
(3 5.52692e-16 0)
(3 5.5013e-17 0)
(3 -3.38746e-16 0)
(3 -1.05912e-15 0)
(3 -1.14122e-15 0)
(3 -1.48263e-15 0)
(3 -2.12271e-15 0)
(3 -1.56872e-15 0)
(3 -1.37741e-15 0)
(3 -1.61109e-15 0)
(3 -8.04301e-16 0)
(3 -4.60021e-16 0)
(3.00002 1.63455e-05 0)
(1.14627 0.123403 0)
(0.725153 0.09777 0)
(0.69136 0.108101 0)
(0.663283 0.121086 0)
(0.63185 0.131528 0)
(0.599416 0.13438 0)
(0.56816 0.129714 0)
(0.537265 0.124685 0)
(0.504557 0.12722 0)
(0.469957 0.139247 0)
(0.432849 0.153851 0)
(0.39321 0.15904 0)
(0.355813 0.153544 0)
(0.319687 0.148174 0)
(0.283839 0.149118 0)
(0.247733 0.15225 0)
(0.211196 0.159049 0)
(0.172278 0.164109 0)
(0.134982 0.170849 0)
(0.0971418 0.179502 0)
(0.0581948 0.186522 0)
(0.0209631 0.197532 0)
(3 -1.97717e-17 0)
(3 -1.09864e-17 0)
(3 -1.5648e-16 0)
(3 -2.91661e-16 0)
(3 -5.47905e-16 0)
(3 -1.24359e-15 0)
(3 -1.23088e-15 0)
(3 -1.10632e-15 0)
(3 -5.42859e-16 0)
(3 1.27016e-16 0)
(3 9.86974e-17 0)
(3 -2.77195e-16 0)
(3 -6.88162e-16 0)
(3 -1.23573e-15 0)
(3 -1.46498e-15 0)
(3 -1.78652e-15 0)
(3 -1.78048e-15 0)
(3 -1.96743e-15 0)
(3 -2.01111e-15 0)
(3 -1.05303e-15 0)
(3 -7.74732e-16 0)
(3 -6.89995e-16 0)
(3 -6.59466e-16 0)
(3 -9.27938e-16 0)
(3 -1.47527e-15 0)
(3 1.09074e-08 0)
(1.2405 0.151399 0)
(0.733648 0.121693 0)
(0.694068 0.134329 0)
(0.665843 0.149775 0)
(0.634172 0.161025 0)
(0.602393 0.163205 0)
(0.572136 0.157595 0)
(0.541491 0.152807 0)
(0.50855 0.157022 0)
(0.474325 0.171839 0)
(0.437602 0.188681 0)
(0.398455 0.193991 0)
(0.361787 0.18727 0)
(0.325889 0.181328 0)
(0.289988 0.183188 0)
(0.253453 0.187657 0)
(0.216043 0.196284 0)
(0.175905 0.202677 0)
(0.136927 0.210188 0)
(0.0978981 0.220214 0)
(0.0580161 0.227926 0)
(0.020878 0.240542 0)
(3 -2.33012e-16 0)
(3 -1.22292e-16 0)
(3 1.79572e-16 0)
(3 -3.98666e-17 0)
(3 -4.64061e-16 0)
(3 -4.40282e-16 0)
(3 -4.46241e-16 0)
(3 -5.36305e-16 0)
(3 -3.65858e-16 0)
(3 -5.21468e-16 0)
(3 -8.50933e-16 0)
(3 -1.36948e-15 0)
(3 -1.56906e-15 0)
(3 -1.30852e-15 0)
(3 -7.77154e-16 0)
(3 -1.99195e-15 0)
(3 -2.10596e-15 0)
(3 -2.09863e-15 0)
(3 -1.69745e-15 0)
(3 -1.49521e-15 0)
(3 -1.21373e-15 0)
(3 -9.39477e-16 0)
(3 -3.33917e-16 0)
(3 -8.90416e-16 0)
(3 -1.65794e-15 0)
(3 4.571e-13 0)
(1.36917 0.178703 0)
(0.746262 0.14627 0)
(0.69911 0.161469 0)
(0.670285 0.178918 0)
(0.637751 0.190082 0)
(0.606258 0.191147 0)
(0.576388 0.185071 0)
(0.545296 0.181439 0)
(0.511586 0.18795 0)
(0.476918 0.205398 0)
(0.439951 0.223564 0)
(0.401655 0.228202 0)
(0.366882 0.22028 0)
(0.332706 0.214013 0)
(0.298218 0.217073 0)
(0.262279 0.223424 0)
(0.224545 0.234328 0)
(0.183661 0.242726 0)
(0.142797 0.251318 0)
(0.10184 0.262697 0)
(0.0600002 0.270853 0)
(0.0215194 0.28447 0)
(3 -2.26921e-17 0)
(3 2.4902e-17 0)
(3 2.12352e-16 0)
(3 1.68231e-16 0)
(3 -8.63323e-17 0)
(3 6.54989e-17 0)
(3 1.3871e-17 0)
(3 -1.54038e-16 0)
(3 -6.56365e-16 0)
(3 -1.1629e-15 0)
(3 -1.21632e-15 0)
(3 -1.02762e-15 0)
(3 -9.49398e-16 0)
(3 -5.36439e-16 0)
(3 -6.0865e-17 0)
(3 4.0906e-17 0)
(3 2.93006e-16 0)
(3 -3.15246e-16 0)
(3 -9.6256e-16 0)
(3 -1.32616e-15 0)
(3 -6.60871e-16 0)
(3 -3.46414e-16 0)
(3 -1.76647e-16 0)
(3 -7.35008e-16 0)
(3 -7.45582e-16 0)
(3 -7.05686e-16 0)
(1.53988 0.203214 0)
(0.764264 0.171994 0)
(0.705771 0.189605 0)
(0.676409 0.209329 0)
(0.64246 0.220264 0)
(0.609447 0.220341 0)
(0.576971 0.214282 0)
(0.543147 0.211782 0)
(0.508031 0.220217 0)
(0.474547 0.239667 0)
(0.440551 0.257766 0)
(0.406859 0.260543 0)
(0.376763 0.251038 0)
(0.345086 0.244704 0)
(0.311845 0.249563 0)
(0.2758 0.259052 0)
(0.236935 0.273309 0)
(0.194714 0.284719 0)
(0.151284 0.294811 0)
(0.107645 0.307589 0)
(0.0631905 0.316157 0)
(0.0223736 0.330315 0)
(3 1.49663e-16 0)
(3 1.91306e-16 0)
(3 8.10492e-17 0)
(3 -1.51864e-16 0)
(3 -2.21245e-16 0)
(3 -2.79449e-16 0)
(3 -4.6787e-16 0)
(3 -5.19776e-16 0)
(3 -7.4522e-16 0)
(3 -5.99295e-16 0)
(3 -1.43285e-16 0)
(3 -2.23809e-16 0)
(3 -1.65354e-16 0)
(3 3.18764e-16 0)
(3 1.23816e-15 0)
(3 2.19064e-15 0)
(3 1.6805e-15 0)
(3 4.34682e-16 0)
(3 -3.62271e-16 0)
(3 -2.99903e-16 0)
(3 -1.29122e-16 0)
(3 1.30249e-16 0)
(3 -3.72556e-16 0)
(3 -2.74378e-16 0)
(3 5.40428e-16 0)
(3 1.46289e-16 0)
(1.75602 0.22024 0)
(0.786271 0.200843 0)
(0.706383 0.221592 0)
(0.670994 0.240711 0)
(0.636319 0.250528 0)
(0.605929 0.250347 0)
(0.57654 0.245323 0)
(0.5451 0.244115 0)
(0.512286 0.253501 0)
(0.482062 0.273079 0)
(0.45149 0.288997 0)
(0.421659 0.289033 0)
(0.393413 0.279431 0)
(0.361501 0.274991 0)
(0.327134 0.283107 0)
(0.289779 0.296897 0)
(0.249581 0.314924 0)
(0.206187 0.32952 0)
(0.1608 0.34103 0)
(0.114862 0.355116 0)
(0.0676449 0.364171 0)
(0.0237824 0.378695 0)
(3 1.43488e-17 0)
(3 -3.30774e-16 0)
(3 -6.63171e-16 0)
(3 -7.4417e-16 0)
(3 -4.47372e-16 0)
(3 -3.19612e-16 0)
(3 -7.78482e-17 0)
(3 2.46605e-16 0)
(3 8.1391e-16 0)
(3 -2.39663e-16 0)
(3 -1.39e-15 0)
(3 -1.64513e-15 0)
(3 -1.52549e-15 0)
(3 -5.80461e-16 0)
(3 -2.08176e-16 0)
(3 -1.70111e-16 0)
(3 6.63459e-16 0)
(3 9.94181e-16 0)
(3 7.43516e-16 0)
(3 -3.62363e-16 0)
(3 -1.6087e-15 0)
(3 -1.97837e-15 0)
(3 -1.41723e-15 0)
(3 1.28799e-17 0)
(3 1.30496e-15 0)
(3 4.34701e-16 0)
(2.01085 0.236351 0)
(0.810128 0.242359 0)
(0.69995 0.257392 0)
(0.669283 0.273175 0)
(0.643485 0.279219 0)
(0.619538 0.277408 0)
(0.593436 0.273668 0)
(0.563755 0.274205 0)
(0.532257 0.284453 0)
(0.503254 0.303475 0)
(0.473667 0.317201 0)
(0.444176 0.31707 0)
(0.414204 0.309945 0)
(0.380212 0.308425 0)
(0.343917 0.319927 0)
(0.305638 0.337934 0)
(0.264788 0.359358 0)
(0.220625 0.376968 0)
(0.173344 0.390123 0)
(0.124726 0.405829 0)
(0.0739691 0.415803 0)
(0.0255627 0.430724 0)
(3 -9.56575e-17 0)
(3 -2.26435e-16 0)
(3 -4.87816e-16 0)
(3 -3.06888e-16 0)
(3 -6.20629e-16 0)
(3 -9.27877e-17 0)
(3 3.2456e-16 0)
(3 7.21265e-16 0)
(3 7.49947e-16 0)
(3 4.27109e-16 0)
(3 -6.87391e-16 0)
(3 -1.23056e-15 0)
(3 -1.02639e-15 0)
(3 -9.84668e-16 0)
(3 -1.37823e-15 0)
(3 -2.66231e-15 0)
(3 -1.14548e-15 0)
(3 2.70639e-16 0)
(3 1.97844e-16 0)
(3 7.62177e-18 0)
(3 -6.36499e-16 0)
(3 -5.95842e-16 0)
(3 -9.96098e-17 0)
(3 2.68784e-16 0)
(3 1.19007e-15 0)
(3 4.20022e-16 0)
(2.32494 0.245693 0)
(0.862053 0.292329 0)
(0.720696 0.292713 0)
(0.69526 0.297998 0)
(0.673642 0.298752 0)
(0.651856 0.297938 0)
(0.626565 0.298086 0)
(0.596894 0.302014 0)
(0.56491 0.314193 0)
(0.53482 0.333338 0)
(0.504189 0.346471 0)
(0.473377 0.347438 0)
(0.441423 0.342914 0)
(0.405889 0.343912 0)
(0.368178 0.358409 0)
(0.329738 0.380277 0)
(0.288583 0.404952 0)
(0.243607 0.425855 0)
(0.193888 0.441678 0)
(0.141315 0.460489 0)
(0.0846355 0.472916 0)
(0.028952 0.488729 0)
(3 -7.2902e-17 0)
(3 2.09717e-16 0)
(3 3.32162e-16 0)
(3 5.8893e-16 0)
(3 2.42781e-16 0)
(3 -9.66371e-17 0)
(3 -1.88891e-16 0)
(3 -1.7719e-16 0)
(3 -6.20823e-17 0)
(3 7.92444e-16 0)
(3 1.44554e-15 0)
(3 9.87625e-16 0)
(3 1.22752e-16 0)
(3 -7.78665e-16 0)
(3 -8.22227e-16 0)
(3 -1.34643e-15 0)
(3 -1.77697e-15 0)
(3 -1.60737e-15 0)
(3 -5.00099e-16 0)
(3 4.35353e-16 0)
(3 6.12677e-16 0)
(3 7.43405e-16 0)
(3 6.40037e-16 0)
(3 1.16919e-16 0)
(3 5.94081e-16 0)
(3 -2.69501e-16 0)
(2.70007 0.210547 0)
(0.962277 0.327988 0)
(0.769015 0.303711 0)
(0.744517 0.307495 0)
(0.718833 0.31131 0)
(0.693284 0.313488 0)
(0.666152 0.318298 0)
(0.635728 0.326551 0)
(0.603234 0.341481 0)
(0.571867 0.361209 0)
(0.54008 0.374342 0)
(0.507814 0.377067 0)
(0.473971 0.375794 0)
(0.436565 0.379817 0)
(0.397663 0.397826 0)
(0.357767 0.424698 0)
(0.31401 0.454361 0)
(0.265045 0.480751 0)
(0.210028 0.501167 0)
(0.152722 0.523786 0)
(0.0917841 0.539001 0)
(0.0299601 0.554186 0)
(3 -9.4079e-17 0)
(3 1.30376e-16 0)
(3 4.78389e-16 0)
(3 3.25863e-16 0)
(3 4.96229e-16 0)
(3 4.97152e-16 0)
(3 3.54037e-16 0)
(3 2.34856e-16 0)
(3 6.90879e-16 0)
(3 1.28885e-15 0)
(3 1.20802e-15 0)
(3 5.66154e-16 0)
(3 9.86646e-17 0)
(3 -4.32123e-16 0)
(3 -6.61055e-16 0)
(3 -3.67921e-16 0)
(3 -7.88287e-17 0)
(3 -2.14466e-16 0)
(3 -4.95377e-16 0)
(3 -4.65419e-16 0)
(3 3.54326e-16 0)
(3 5.41979e-16 0)
(3 2.31571e-16 0)
(3 2.78112e-16 0)
(3 8.79135e-16 0)
(3 -1.33838e-16 0)
(2.97534 0.0627077 0)
(1.08131 0.336587 0)
(0.79835 0.324504 0)
(0.776421 0.338402 0)
(0.7448 0.342978 0)
(0.715116 0.34368 0)
(0.687107 0.34825 0)
(0.658917 0.357201 0)
(0.629546 0.372879 0)
(0.599655 0.392499 0)
(0.567991 0.40596 0)
(0.534779 0.410874 0)
(0.499191 0.412971 0)
(0.458769 0.420552 0)
(0.418456 0.442114 0)
(0.37757 0.474325 0)
(0.333754 0.509177 0)
(0.286534 0.540756 0)
(0.233573 0.564705 0)
(0.176783 0.590585 0)
(0.110548 0.611848 0)
(0.0383544 0.630184 0)
(3 4.83461e-17 0)
(3 1.24564e-16 0)
(3 3.63733e-16 0)
(3 2.09667e-16 0)
(3 9.8018e-17 0)
(3 1.47244e-16 0)
(3 4.53464e-16 0)
(3 6.1634e-16 0)
(3 6.90666e-16 0)
(3 7.69039e-16 0)
(3 7.78829e-16 0)
(3 8.4529e-16 0)
(3 5.42718e-16 0)
(3 7.58616e-16 0)
(3 5.67666e-16 0)
(3 3.58454e-16 0)
(3 7.81049e-16 0)
(3 1.18133e-15 0)
(3 9.08033e-16 0)
(3 3.35056e-16 0)
(3 2.3101e-16 0)
(3 8.16986e-16 0)
(3 9.11618e-16 0)
(3 1.44681e-15 0)
(3 1.19804e-15 0)
(3 1.2329e-16 0)
(3.01054 0.00456835 0)
(1.19711 0.326866 0)
(0.798263 0.34595 0)
(0.768878 0.377206 0)
(0.733319 0.378098 0)
(0.704145 0.373782 0)
(0.677529 0.375899 0)
(0.652112 0.38592 0)
(0.626515 0.403814 0)
(0.600184 0.424681 0)
(0.571502 0.439338 0)
(0.540943 0.446788 0)
(0.507701 0.451655 0)
(0.470542 0.462062 0)
(0.433551 0.486002 0)
(0.397114 0.522479 0)
(0.35739 0.561813 0)
(0.313872 0.599403 0)
(0.260445 0.632265 0)
(0.197999 0.668978 0)
(0.125882 0.705449 0)
(0.0387668 0.728373 0)
(3 -1.56397e-16 0)
(3 -1.53014e-16 0)
(3 -1.01317e-16 0)
(3 1.44612e-16 0)
(3 3.74068e-16 0)
(3 8.61123e-18 0)
(3 -1.60707e-16 0)
(3 -1.29649e-16 0)
(3 -4.2324e-16 0)
(3 -6.01809e-16 0)
(3 -5.06998e-16 0)
(3 4.22137e-16 0)
(3 6.83799e-16 0)
(3 8.8337e-16 0)
(3 1.75102e-15 0)
(3 1.9366e-15 0)
(3 1.77998e-15 0)
(3 2.40001e-15 0)
(3 2.47243e-15 0)
(3 2.37239e-15 0)
(3 2.04008e-15 0)
(3 1.86453e-15 0)
(3 2.78266e-15 0)
(3 1.7285e-15 0)
(3 2.54324e-16 0)
(3 -1.90921e-16 0)
(3.00018 1.15246e-05 0)
(1.40914 0.352911 0)
(0.790956 0.367482 0)
(0.741176 0.399076 0)
(0.710686 0.398849 0)
(0.687143 0.394543 0)
(0.664637 0.397278 0)
(0.642848 0.409064 0)
(0.620676 0.428896 0)
(0.597728 0.451344 0)
(0.572409 0.468064 0)
(0.545374 0.478989 0)
(0.51475 0.487544 0)
(0.482617 0.500844 0)
(0.449764 0.527227 0)
(0.419287 0.567714 0)
(0.384706 0.613117 0)
(0.346506 0.659998 0)
(0.301274 0.706769 0)
(0.246931 0.753985 0)
(0.17978 0.8047 0)
(0.06972 0.849923 0)
(3 -1.99157e-16 0)
(3 -1.43767e-16 0)
(3 9.4272e-17 0)
(3 3.11433e-16 0)
(3 1.00708e-17 0)
(3 -2.29502e-16 0)
(3 -8.70279e-16 0)
(3 -4.79467e-16 0)
(3 -1.15747e-16 0)
(3 1.11142e-16 0)
(3 -3.25308e-18 0)
(3 2.27782e-16 0)
(3 6.32151e-16 0)
(3 1.35657e-15 0)
(3 2.25796e-15 0)
(3 3.26041e-15 0)
(3 3.40824e-15 0)
(3 2.43766e-15 0)
(3 1.816e-15 0)
(3 1.5632e-15 0)
(3 1.32539e-15 0)
(3 1.26061e-15 0)
(3 8.78001e-17 0)
(3 -3.98607e-16 0)
(3 -7.72861e-16 0)
(3 -4.60724e-16 0)
(3 -9.57485e-09 0)
(1.75452 0.406268 0)
(0.810979 0.43029 0)
(0.738421 0.430924 0)
(0.717615 0.423422 0)
(0.695742 0.420049 0)
(0.673305 0.42315 0)
(0.651448 0.435867 0)
(0.629577 0.456467 0)
(0.60744 0.479103 0)
(0.58386 0.496937 0)
(0.558715 0.510493 0)
(0.531231 0.522233 0)
(0.503013 0.537459 0)
(0.474842 0.56533 0)
(0.449948 0.608498 0)
(0.423315 0.659993 0)
(0.395022 0.713843 0)
(0.362016 0.770067 0)
(0.312708 0.842588 0)
(0.221546 0.952105 0)
(0.120264 1.08028 0)
(3 2.16214e-16 0)
(3 -2.41739e-16 0)
(3 -2.22371e-16 0)
(3 -1.93153e-16 0)
(3 -3.30511e-16 0)
(3 -3.36e-16 0)
(3 -1.33022e-16 0)
(3 7.06807e-16 0)
(3 8.48024e-16 0)
(3 7.23309e-16 0)
(3 8.51951e-16 0)
(3 6.60522e-16 0)
(3 5.16954e-16 0)
(3 6.6353e-16 0)
(3 4.59325e-16 0)
(3 1.41205e-15 0)
(3 1.45374e-15 0)
(3 5.56765e-16 0)
(3 4.46561e-16 0)
(3 4.60918e-16 0)
(3 1.75055e-16 0)
(3 -1.00804e-16 0)
(3 -3.36869e-16 0)
(3 -3.51398e-16 0)
(3 -3.49946e-16 0)
(3 3.17238e-16 0)
(3 -1.71115e-09 0)
(2.30256 0.407204 0)
(0.903902 0.498196 0)
(0.787284 0.441611 0)
(0.766558 0.433646 0)
(0.740491 0.435516 0)
(0.713013 0.443061 0)
(0.685661 0.459034 0)
(0.659808 0.48173 0)
(0.634917 0.504308 0)
(0.610727 0.522832 0)
(0.586211 0.539149 0)
(0.560892 0.55379 0)
(0.535224 0.570587 0)
(0.51155 0.599628 0)
(0.490616 0.644019 0)
(0.473058 0.699344 0)
(0.454614 0.760587 0)
(0.431492 0.836915 0)
(0.407926 0.955641 0)
(0.400958 1.1128 0)
(0.517624 1.37852 0)
(3 1.73666e-16 0)
(3 7.59382e-17 0)
(3 1.23858e-16 0)
(3 -8.31938e-17 0)
(3 7.00288e-16 0)
(3 1.10156e-15 0)
(3 1.03539e-15 0)
(3 6.17612e-16 0)
(3 2.01369e-16 0)
(3 4.54942e-17 0)
(3 4.2518e-16 0)
(3 2.80862e-16 0)
(3 7.49081e-17 0)
(3 -2.18982e-16 0)
(3 -6.3625e-16 0)
(3 -3.19443e-16 0)
(3 -2.5241e-16 0)
(3 2.33252e-16 0)
(3 1.75301e-16 0)
(3 7.06046e-17 0)
(3 1.4149e-16 0)
(3 -1.47947e-17 0)
(3 1.14621e-16 0)
(3 4.74245e-16 0)
(3 2.36878e-16 0)
(3 1.55615e-16 0)
(3 -1.9706e-10 0)
(2.94058 0.167591 0)
(1.10373 0.499556 0)
(0.856738 0.472632 0)
(0.832441 0.464231 0)
(0.801082 0.465435 0)
(0.768421 0.473169 0)
(0.734638 0.488668 0)
(0.703531 0.510571 0)
(0.673917 0.531853 0)
(0.646985 0.550386 0)
(0.623143 0.568606 0)
(0.60013 0.585681 0)
(0.577106 0.60339 0)
(0.557746 0.633007 0)
(0.540921 0.67675 0)
(0.532031 0.73388 0)
(0.52449 0.802315 0)
(0.524819 0.893199 0)
(0.53705 1.01905 0)
(0.622555 1.16877 0)
(0.934278 1.36787 0)
(3 -7.93676e-17 0)
(3 3.54084e-16 0)
(3 4.75978e-16 0)
(3 5.35642e-16 0)
(3 6.05562e-16 0)
(3 6.10889e-16 0)
(3 6.91733e-16 0)
(3 6.65252e-16 0)
(3 3.55939e-16 0)
(3 -5.40842e-18 0)
(3 -2.47361e-16 0)
(3 9.4729e-17 0)
(3 6.22504e-16 0)
(3 -2.74123e-16 0)
(3 -3.98146e-16 0)
(3 -8.22236e-16 0)
(3 -1.11337e-15 0)
(3 3.21043e-17 0)
(3 -7.25201e-16 0)
(3 -9.50901e-16 0)
(3 -7.50433e-16 0)
(3 -5.48454e-16 0)
(3 -4.33709e-16 0)
(3 -2.55277e-16 0)
(3 -1.57771e-16 0)
(3 6.3599e-16 0)
(3 -2.6312e-11 0)
(3.03762 0.00961707 0)
(1.2782 0.473792 0)
(0.865115 0.515327 0)
(0.836707 0.50775 0)
(0.811862 0.504677 0)
(0.786618 0.510297 0)
(0.760803 0.525846 0)
(0.734876 0.546256 0)
(0.709932 0.56396 0)
(0.68698 0.577724 0)
(0.667399 0.594094 0)
(0.648829 0.612406 0)
(0.629425 0.63207 0)
(0.613104 0.662748 0)
(0.600874 0.70598 0)
(0.598841 0.763231 0)
(0.603475 0.833652 0)
(0.624436 0.924806 0)
(0.674159 1.03941 0)
(0.823176 1.17473 0)
(1.155 1.29965 0)
(3 4.14301e-17 0)
(3 -2.85341e-17 0)
(3 -6.4021e-16 0)
(3 -6.87253e-16 0)
(3 -6.15602e-16 0)
(3 -4.63239e-16 0)
(3 -5.25067e-17 0)
(3 1.1766e-16 0)
(3 3.15071e-16 0)
(3 -2.13565e-16 0)
(3 -5.03586e-16 0)
(3 1.51551e-16 0)
(3 9.79609e-16 0)
(3 2.72551e-16 0)
(3 2.90612e-16 0)
(3 -1.35032e-16 0)
(3 -5.91889e-16 0)
(3 -1.84861e-15 0)
(3 -1.66999e-15 0)
(3 -1.5017e-15 0)
(3 -1.20954e-15 0)
(3 -1.00114e-15 0)
(3 -6.27393e-16 0)
(3 -4.64964e-16 0)
(3 -1.37723e-16 0)
(3 1.01654e-15 0)
(3 -5.19232e-12 0)
(3.00084 1.47003e-05 0)
(1.58863 0.493048 0)
(0.852583 0.537937 0)
(0.823943 0.522894 0)
(0.814932 0.528088 0)
(0.798523 0.534815 0)
(0.781496 0.551236 0)
(0.76309 0.571363 0)
(0.745463 0.587213 0)
(0.727751 0.599535 0)
(0.713033 0.61692 0)
(0.699568 0.638235 0)
(0.685165 0.661141 0)
(0.672958 0.692381 0)
(0.66618 0.734095 0)
(0.669964 0.788431 0)
(0.68702 0.855151 0)
(0.722381 0.939306 0)
(0.801636 1.04072 0)
(0.972318 1.14581 0)
(1.25809 1.21695 0)
(3 2.88551e-16 0)
(3 -9.40012e-17 0)
(3 -5.89699e-16 0)
(3 -3.4549e-16 0)
(3 -3.88146e-16 0)
(3 -7.85242e-17 0)
(3 -9.48813e-17 0)
(3 -2.84396e-16 0)
(3 -2.14233e-16 0)
(3 7.23402e-16 0)
(3 8.68291e-16 0)
(3 1.78198e-15 0)
(3 1.79722e-15 0)
(3 1.68728e-15 0)
(3 1.62943e-15 0)
(3 1.7216e-15 0)
(3 -7.94009e-17 0)
(3 -9.78669e-16 0)
(3 -1.09333e-15 0)
(3 -4.18901e-16 0)
(3 -7.62904e-17 0)
(3 -1.00199e-15 0)
(3 -1.10108e-15 0)
(3 -5.40802e-16 0)
(3 2.29788e-16 0)
(3 5.27646e-16 0)
(3 -4.05384e-13 0)
(3 -4.76682e-08 0)
(2.23509 0.490377 0)
(0.934035 0.585861 0)
(0.853742 0.533903 0)
(0.84402 0.539831 0)
(0.824623 0.553611 0)
(0.806866 0.573156 0)
(0.791776 0.593715 0)
(0.77917 0.608779 0)
(0.766578 0.619525 0)
(0.756615 0.635804 0)
(0.748381 0.657887 0)
(0.73986 0.684023 0)
(0.732983 0.716787 0)
(0.732304 0.757854 0)
(0.742023 0.80883 0)
(0.768934 0.870001 0)
(0.816203 0.94418 0)
(0.911924 1.03016 0)
(1.07534 1.10544 0)
(1.30972 1.15108 0)
(3 -1.688e-16 0)
(3 -8.78419e-17 0)
(3 1.29974e-16 0)
(3 1.16378e-16 0)
(3 1.65871e-16 0)
(3 2.58192e-16 0)
(3 5.14327e-17 0)
(3 -2.80669e-16 0)
(3 2.71484e-16 0)
(3 9.73009e-16 0)
(3 9.13414e-16 0)
(3 7.62294e-16 0)
(3 5.90336e-16 0)
(3 9.30161e-16 0)
(3 1.36691e-15 0)
(3 1.28799e-15 0)
(3 3.80363e-16 0)
(3 5.54052e-16 0)
(3 1.9274e-16 0)
(3 9.44061e-16 0)
(3 1.15887e-15 0)
(3 1.04289e-17 0)
(3 -9.59783e-16 0)
(3 -6.01426e-16 0)
(3 -1.53235e-16 0)
(3 -1.79401e-18 0)
(3 -4.39023e-15 0)
(3 -5.9629e-08 0)
(2.99976 0.166975 0)
(1.1707 0.585749 0)
(0.91316 0.548151 0)
(0.889615 0.564816 0)
(0.86453 0.576654 0)
(0.841859 0.592942 0)
(0.825987 0.611349 0)
(0.813994 0.625587 0)
(0.80304 0.636894 0)
(0.794607 0.654267 0)
(0.789049 0.678391 0)
(0.7861 0.707261 0)
(0.786331 0.740068 0)
(0.793552 0.778183 0)
(0.810647 0.823423 0)
(0.844428 0.877058 0)
(0.90089 0.940579 0)
(1.00053 1.00951 0)
(1.1482 1.06354 0)
(1.33987 1.09227 0)
(3 -1.51635e-16 0)
(3 -8.27314e-17 0)
(3 -5.85322e-17 0)
(3 -2.33928e-16 0)
(3 -3.41495e-16 0)
(3 -3.02009e-17 0)
(3 2.22347e-17 0)
(3 -1.97822e-16 0)
(3 1.73319e-16 0)
(3 6.23945e-17 0)
(3 -1.53951e-16 0)
(3 -8.67398e-16 0)
(3 -3.38976e-16 0)
(3 5.50635e-16 0)
(3 1.55733e-16 0)
(3 -3.52658e-16 0)
(3 1.00647e-16 0)
(3 4.09522e-16 0)
(3 1.8102e-15 0)
(3 1.90351e-15 0)
(3 1.47859e-15 0)
(3 9.77506e-16 0)
(3 8.59946e-16 0)
(3 -2.98886e-16 0)
(3 -1.21993e-15 0)
(3 -5.9627e-16 0)
(3 -5.75037e-16 0)
(3 -1.99276e-08 0)
(3.03484 0.00597771 0)
(1.39236 0.563769 0)
(0.912743 0.606726 0)
(0.885768 0.598725 0)
(0.872834 0.60851 0)
(0.861133 0.622525 0)
(0.850695 0.636151 0)
(0.840727 0.647699 0)
(0.831534 0.658264 0)
(0.825206 0.674346 0)
(0.822935 0.696698 0)
(0.825568 0.724386 0)
(0.832561 0.756408 0)
(0.847332 0.792993 0)
(0.871546 0.834671 0)
(0.91148 0.881951 0)
(0.974729 0.93509 0)
(1.07271 0.989748 0)
(1.20378 1.03076 0)
(1.36206 1.04994 0)
(3 1.34978e-16 0)
(3 -3.54368e-16 0)
(3 -5.72744e-16 0)
(3 -6.3582e-16 0)
(3 -8.66358e-16 0)
(3 -8.76638e-16 0)
(3 -2.33636e-16 0)
(3 3.07735e-16 0)
(3 -7.83642e-17 0)
(3 -1.72333e-16 0)
(3 -2.68536e-16 0)
(3 -2.68631e-16 0)
(3 -6.47463e-17 0)
(3 3.65353e-16 0)
(3 -4.11261e-16 0)
(3 -9.8002e-16 0)
(3 -3.82952e-16 0)
(3 2.47686e-16 0)
(3 8.49051e-16 0)
(3 9.85452e-16 0)
(3 2.02673e-16 0)
(3 3.43603e-16 0)
(3 7.75325e-16 0)
(3 2.93946e-16 0)
(3 -7.26074e-16 0)
(3 -7.54138e-16 0)
(3 -1.33233e-15 0)
(3 -2.85882e-09 0)
(3.0005 1.63407e-06 0)
(1.94796 0.575005 0)
(0.953035 0.649118 0)
(0.902435 0.608904 0)
(0.900928 0.617694 0)
(0.893093 0.63613 0)
(0.881805 0.653474 0)
(0.870229 0.666845 0)
(0.860687 0.677192 0)
(0.855389 0.691595 0)
(0.855525 0.711968 0)
(0.862301 0.737831 0)
(0.874176 0.767973 0)
(0.894022 0.801552 0)
(0.922308 0.839227 0)
(0.966307 0.880409 0)
(1.03195 0.923206 0)
(1.12467 0.966274 0)
(1.23979 0.997083 0)
(1.37687 1.01077 0)
(3 1.77403e-16 0)
(3 2.77596e-16 0)
(3 -5.84052e-18 0)
(3 -3.50383e-16 0)
(3 -5.39475e-16 0)
(3 -7.7812e-16 0)
(3 -6.66708e-16 0)
(3 -2.47066e-16 0)
(3 2.67109e-17 0)
(3 2.86459e-16 0)
(3 2.09357e-16 0)
(3 -1.70422e-16 0)
(3 -3.62067e-16 0)
(3 -2.16814e-16 0)
(3 -1.3645e-17 0)
(3 -1.20342e-16 0)
(3 3.14708e-16 0)
(3 1.97756e-16 0)
(3 2.94932e-16 0)
(3 1.50022e-16 0)
(3 -5.92464e-16 0)
(3 -7.03938e-17 0)
(3 1.76313e-16 0)
(3 -4.238e-16 0)
(3 -1.25441e-15 0)
(3 -1.59971e-15 0)
(3 -2.29646e-15 0)
(3 -5.42309e-11 0)
(3 -1.36751e-06 0)
(2.82645 0.291042 0)
(1.13756 0.651745 0)
(0.953965 0.61398 0)
(0.947135 0.638651 0)
(0.934445 0.660809 0)
(0.917668 0.67653 0)
(0.902744 0.688815 0)
(0.892476 0.697089 0)
(0.887958 0.707645 0)
(0.889743 0.724056 0)
(0.898841 0.746625 0)
(0.913619 0.774692 0)
(0.935875 0.807194 0)
(0.966138 0.842756 0)
(1.01207 0.878705 0)
(1.07753 0.913839 0)
(1.16352 0.947004 0)
(1.26957 0.971947 0)
(1.38887 0.983003 0)
(3 1.14508e-17 0)
(3 4.17051e-17 0)
(3 1.26137e-16 0)
(3 1.57032e-16 0)
(3 3.04242e-16 0)
(3 7.23346e-16 0)
(3 9.23499e-17 0)
(3 -2.98927e-16 0)
(3 -2.59831e-16 0)
(3 -4.31536e-16 0)
(3 1.84094e-17 0)
(3 2.31281e-16 0)
(3 7.40214e-17 0)
(3 -2.76537e-16 0)
(3 5.12779e-19 0)
(3 7.95259e-16 0)
(3 9.30239e-16 0)
(3 8.61065e-16 0)
(3 7.27184e-16 0)
(3 1.55374e-16 0)
(3 -2.3518e-16 0)
(3 -6.29048e-16 0)
(3 -1.07989e-16 0)
(3 8.92402e-17 0)
(3 1.35271e-17 0)
(3 -1.43257e-15 0)
(3 -1.98827e-15 0)
(3 -9.24633e-14 0)
(3 -6.41751e-07 0)
(3.06154 0.0190647 0)
(1.38651 0.620951 0)
(0.978327 0.672124 0)
(0.949431 0.673229 0)
(0.941379 0.6891 0)
(0.934755 0.702166 0)
(0.92814 0.711369 0)
(0.923447 0.715808 0)
(0.921693 0.722239 0)
(0.92504 0.735521 0)
(0.935213 0.755348 0)
(0.951869 0.780199 0)
(0.974192 0.809376 0)
(1.00445 0.840934 0)
(1.04911 0.871656 0)
(1.1098 0.900253 0)
(1.1878 0.925657 0)
(1.28177 0.944873 0)
(1.38706 0.953016 0)
(3 -2.1756e-16 0)
(3 4.04264e-17 0)
(3 2.2193e-16 0)
(3 2.92423e-16 0)
(3 4.47081e-16 0)
(3 4.75812e-16 0)
(3 7.38936e-16 0)
(3 2.80047e-16 0)
(3 -2.9576e-16 0)
(3 -6.57683e-16 0)
(3 -8.27644e-16 0)
(3 3.53561e-17 0)
(3 -1.01247e-16 0)
(3 -8.95294e-16 0)
(3 -9.50954e-16 0)
(3 -1.53416e-16 0)
(3 -2.8706e-16 0)
(3 -3.60205e-16 0)
(3 -8.24786e-16 0)
(3 -8.54283e-16 0)
(3 -6.00402e-16 0)
(3 -8.45562e-16 0)
(3 -5.93754e-16 0)
(3 -5.43683e-16 0)
(3 -5.55796e-16 0)
(3 -1.25042e-15 0)
(3 -1.96743e-15 0)
(3 -1.93058e-15 0)
(3 -7.31383e-08 0)
(3.00199 6.69769e-05 0)
(1.96753 0.613609 0)
(1.01926 0.722508 0)
(0.970085 0.689229 0)
(0.965378 0.69791 0)
(0.960589 0.71168 0)
(0.957454 0.722053 0)
(0.955799 0.729423 0)
(0.956363 0.736079 0)
(0.961233 0.746557 0)
(0.972062 0.763506 0)
(0.989216 0.78605 0)
(1.0109 0.813771 0)
(1.04218 0.843415 0)
(1.08511 0.869619 0)
(1.14021 0.892813 0)
(1.21097 0.912355 0)
(1.29395 0.926196 0)
(1.38912 0.931623 0)
(3 -1.12311e-16 0)
(3 2.11109e-16 0)
(3 1.00466e-16 0)
(3 2.00975e-16 0)
(3 8.50829e-17 0)
(3 9.38246e-18 0)
(3 1.81424e-17 0)
(3 -1.25296e-16 0)
(3 -7.57041e-16 0)
(3 -8.73245e-16 0)
(3 -1.28082e-15 0)
(3 -9.4245e-16 0)
(3 -4.09567e-16 0)
(3 -1.33821e-16 0)
(3 -3.48592e-16 0)
(3 -9.2128e-16 0)
(3 -1.15421e-15 0)
(3 -1.31434e-15 0)
(3 -1.22553e-15 0)
(3 -1.02257e-15 0)
(3 -1.07909e-15 0)
(3 -1.14219e-15 0)
(3 -8.42186e-16 0)
(3 -7.73137e-16 0)
(3 -1.02068e-15 0)
(3 -1.06063e-15 0)
(3 -1.83639e-15 0)
(3 -1.70857e-15 0)
(3 -2.01046e-09 0)
(3 -4.35253e-08 0)
(2.92622 0.237512 0)
(1.23605 0.704087 0)
(1.02549 0.699529 0)
(1.01225 0.713129 0)
(1.00155 0.725097 0)
(0.995044 0.733162 0)
(0.992643 0.740037 0)
(0.993393 0.746472 0)
(0.998075 0.755502 0)
(1.00866 0.771833 0)
(1.02484 0.793669 0)
(1.04648 0.818738 0)
(1.0777 0.842736 0)
(1.11761 0.86525 0)
(1.16717 0.883415 0)
(1.22998 0.897558 0)
(1.30273 0.906389 0)
(1.38857 0.908987 0)
(3 -4.0302e-17 0)
(3 -4.52587e-16 0)
(3 -7.15558e-16 0)
(3 -2.1701e-16 0)
(3 -1.99162e-16 0)
(3 -4.19153e-16 0)
(3 -1.02064e-15 0)
(3 -1.59427e-15 0)
(3 -1.82594e-15 0)
(3 -2.0313e-15 0)
(3 -2.13075e-15 0)
(3 -1.76316e-15 0)
(3 -9.11793e-16 0)
(3 -1.00031e-16 0)
(3 -9.09288e-17 0)
(3 -9.51488e-16 0)
(3 -1.19005e-15 0)
(3 -8.36024e-16 0)
(3 -4.66059e-16 0)
(3 1.17698e-17 0)
(3 -3.45583e-16 0)
(3 -4.82138e-16 0)
(3 -1.14707e-15 0)
(3 -8.22108e-16 0)
(3 -7.47764e-16 0)
(3 -8.1978e-16 0)
(3 -1.1316e-15 0)
(3 -9.91364e-16 0)
(3 -5.36368e-12 0)
(3 -1.89136e-07 0)
(3.04374 0.00892573 0)
(1.51356 0.669216 0)
(1.03778 0.748144 0)
(1.01894 0.745478 0)
(1.01777 0.752313 0)
(1.0212 0.75742 0)
(1.02508 0.761711 0)
(1.02795 0.766045 0)
(1.03314 0.771272 0)
(1.04327 0.783137 0)
(1.05912 0.803377 0)
(1.08064 0.823863 0)
(1.1114 0.845277 0)
(1.14937 0.864873 0)
(1.19595 0.880496 0)
(1.25272 0.891287 0)
(1.31791 0.896145 0)
(1.39475 0.896802 0)
(3 -9.07579e-17 0)
(3 -2.76983e-16 0)
(3 1.16117e-16 0)
(3 3.55759e-17 0)
(3 -7.62264e-17 0)
(3 -3.31011e-16 0)
(3 -6.1946e-16 0)
(3 -4.76505e-16 0)
(3 -1.12463e-15 0)
(3 -1.06055e-15 0)
(3 -1.06998e-15 0)
(3 -1.92528e-15 0)
(3 -1.98114e-15 0)
(3 -1.59912e-15 0)
(3 -1.23704e-15 0)
(3 -8.15097e-16 0)
(3 -5.40496e-16 0)
(3 -4.67256e-16 0)
(3 -3.65493e-16 0)
(3 -3.28754e-16 0)
(3 -5.45761e-16 0)
(3 -5.06386e-16 0)
(3 -1.11601e-15 0)
(3 -1.8348e-15 0)
(3 -1.70051e-15 0)
(3 -1.30623e-15 0)
(3 -3.00395e-16 0)
(3 1.94727e-16 0)
(3 -1.09178e-15 0)
(3 -5.35114e-08 0)
(3.00076 4.13642e-05 0)
(2.28527 0.559054 0)
(1.11736 0.776687 0)
(1.04228 0.753858 0)
(1.04578 0.754888 0)
(1.05345 0.759776 0)
(1.06095 0.767155 0)
(1.06581 0.775522 0)
(1.07113 0.781075 0)
(1.07888 0.79263 0)
(1.09216 0.812544 0)
(1.11302 0.830145 0)
(1.14278 0.847221 0)
(1.17951 0.862337 0)
(1.22359 0.873778 0)
(1.27469 0.880683 0)
(1.33385 0.883439 0)
(1.40145 0.883343 0)
(3 1.37071e-16 0)
(3 4.4066e-16 0)
(3 8.34459e-16 0)
(3 6.28997e-16 0)
(3 4.904e-16 0)
(3 3.40376e-16 0)
(3 3.10341e-16 0)
(3 7.05219e-16 0)
(3 6.54813e-16 0)
(3 2.35686e-16 0)
(3 4.34233e-16 0)
(3 -3.57372e-16 0)
(3 -9.60282e-16 0)
(3 -1.14462e-15 0)
(3 -6.87798e-16 0)
(3 1.38604e-16 0)
(3 1.05021e-16 0)
(3 -6.52762e-16 0)
(3 -6.47705e-16 0)
(3 -1.8382e-15 0)
(3 -1.59911e-15 0)
(3 -8.09665e-16 0)
(3 -7.91197e-16 0)
(3 -9.51149e-16 0)
(3 -1.18809e-15 0)
(3 -1.04132e-15 0)
(3 -4.20808e-16 0)
(3 8.4021e-16 0)
(3 1.2498e-15 0)
(3 -3.50423e-09 0)
(3 -1.2874e-06 0)
(3.05945 0.102692 0)
(1.41365 0.749814 0)
(1.09822 0.7678 0)