/*--------------------------------*- C++ -*----------------------------------*\
  =========                 |
  \\      /  F ield         | OpenFOAM: The Open Source CFD Toolbox
   \\    /   O peration     | Website:  https://openfoam.org
    \\  /    A nd           | Version:  7
     \\/     M anipulation  |
\*---------------------------------------------------------------------------*/
FoamFile
{
    version     2.0;
    format      ascii;
    class       volScalarField;
    location    "1.8";
    object      T;
}
// * * * * * * * * * * * * * * * * * * * * * * * * * * * * * * * * * * * * * //

dimensions      [0 0 0 1 0 0 0];

internalField   nonuniform List<scalar> 
16128
(
1
1
1
1
1
1
1
1
1
1
1
1
1
1
1
1
1
1
1
1
1
1
1
1
1
2.26902
2.70216
2.724
2.7362
2.74464
2.74966
2.75299
2.75654
2.76212
2.77113
2.78387
2.79854
2.8112
2.81821
2.81959
2.81874
2.81767
2.81838
2.82361
2.83556
2.85284
2.86792
2.8741
1
1
1
1
1
1
1
1
1
1
1
1
1
1
1
1
1
1
1
1
1
1
1
1
1
2.25868
2.70172
2.72418
2.73567
2.74411
2.74913
2.75251
2.7561
2.76168
2.77065
2.78336
2.79797
2.81055
2.81744
2.81871
2.81778
2.81664
2.81739
2.8227
2.8347
2.85205
2.86713
2.87333
1
1
1
1
1
1
1
1
1
1
1
1
1
1
1
1
1
1
1
1
1
1
1
1
1
2.23562
2.70205
2.72403
2.73472
2.74308
2.74813
2.75167
2.75537
2.76096
2.76987
2.78252
2.79706
2.80951
2.8162
2.8173
2.81626
2.81503
2.81588
2.82136
2.83347
2.85091
2.86593
2.87213
1
1
1
1
1
1
1
1
1
1
1
1
1
1
1
1
1
1
1
1
1
1
1
1
1
2.20075
2.70068
2.72375
2.73361
2.74195
2.74702
2.75068
2.75445
2.75994
2.76865
2.78109
2.79544
2.80773
2.81426
2.81526
2.81414
2.81284
2.81384
2.81953
2.83171
2.84921
2.86409
2.87023
1
1
1
1
1
1
1
1
1
1
1
1
1
1
1
1
1
1
1
1
1
1
1
1
1
2.15349
2.69632
2.72271
2.73208
2.74061
2.74581
2.74962
2.75338
2.75864
2.76692
2.77891
2.79292
2.80506
2.81161
2.81269
2.81153
2.81018
2.8113
2.81713
2.82931
2.84688
2.86162
2.86772
1
1
1
1
1
1
1
1
1
1
1
1
1
1
1
1
1
1
1
1
1
1
1
1
1
2.09212
2.6878
2.72035
2.72989
2.73891
2.74441
2.7484
2.7521
2.757
2.76467
2.77601
2.7895
2.80146
2.80815
2.80945
2.80832
2.80694
2.80819
2.81409
2.82616
2.84373
2.85833
2.86433
1
1
1
1
1
1
1
1
1
1
1
1
1
1
1
1
1
1
1
1
1
1
1
1
1
2.01408
2.67386
2.71599
2.72654
2.73632
2.74229
2.74641
2.7499
2.7543
2.76127
2.77192
2.78503
2.79704
2.80416
2.80586
2.80475
2.80321
2.80434
2.81005
2.82184
2.83942
2.85393
2.85993
1
1
1
1
1
1
1
1
1
1
1
1
1
1
1
1
1
1
1
1
1
1
1
1
1
1.91654
2.65352
2.70906
2.72166
2.7325
2.73925
2.74375
2.74723
2.75129
2.75756
2.76735
2.77969
2.7913
2.79852
2.80052
2.79952
2.79802
2.79914
2.80476
2.81637
2.83395
2.84842
2.85437
1
1
1
1
1
1
1
1
1
1
1
1
1
1
1
1
1
1
1
1
1
1
1
1
1
1.80109
2.62734
2.70047
2.71476
2.7266
2.73417
2.73912
2.74266
2.74653
2.75231
2.76148
2.77325
2.78463
2.79207
2.79449
2.79368
2.7922
2.793
2.79816
2.8094
2.82702
2.84173
2.84788
1
1
1
1
1
1
1
1
1
1
1
1
1
1
1
1
1
1
1
1
1
1
1
1
1
1.66882
2.59065
2.69065
2.7053
2.71829
2.72681
2.73274
2.73686
2.7409
2.74637
2.75486
2.76588
2.77685
2.78443
2.78726
2.78673
2.78536
2.78587
2.79039
2.801
2.81844
2.83347
2.83986
1
1
1
1
1
1
1
1
1
1
1
1
1
1
1
1
1
1
1
1
1
1
1
1
1
1.49665
2.52444
2.67983
2.69334
2.70684
2.71641
2.72392
2.7291
2.73366
2.73903
2.74691
2.7571
2.76755
2.77527
2.77858
2.77842
2.77729
2.77737
2.78073
2.79041
2.80758
2.82312
2.83007
1
1
1
1
1
1
1
1
1
1
1
1
1
1
1
1
1
1
1
1
1
1
1
1
1
1.26906
2.43259
2.67796
2.68012
2.69152
2.70217
2.71187
2.71914
2.72493
2.73052
2.73778
2.74697
2.75671
2.76448
2.76837
2.76877
2.76793
2.76779
2.77008
2.77855
2.79462
2.80976
2.81613
1
1
1
1
1
1
1
1
1
1
1
1
1
1
1
1
1
1
1
1
1
1
1
1
1
1.0407
2.33517
2.68055
2.67765
2.68398
2.69201
2.70067
2.70819
2.71472
2.72067
2.72751
2.73568
2.74449
2.75203
2.75638
2.75738
2.75676
2.75623
2.75677
2.76279
2.77717
2.79162
2.79882
1
1
1
1
1
1
1
1
1
1
1
1
1
1
1
1
1
1
1
1
1
1
1
1
1
1.00056
2.21802
2.67062
2.67225
2.67756
2.68409
2.69149
2.69888
2.70534
2.71089
2.71666
2.72338
2.73101
2.73802
2.74258
2.74407
2.74329
2.74178
2.74137
2.74555
2.75773
2.76838
2.76883
1
1
1
1
1
1
1
1
1
1
1
1
1
1
1
1
1
1
1
1
1
1
1
1
1
1
2.05255
2.65489
2.6736
2.6781
2.68297
2.68728
2.69206
2.69681
2.70132
2.70594
2.7112
2.71728
2.72285
2.72694
2.72837
2.72729
2.72458
2.72208
2.72202
2.7258
2.73037
2.72862
1
1
1
1
1
1
1
1
1
1
1
1
1
1
1
1
1
1
1
1
1
1
1
1
1
1
1.83105
2.59868
2.66664
2.67574
2.68075
2.68414
2.68753
2.69116
2.69454
2.6975
2.70074
2.7047
2.70794
2.71056
2.71103
2.70924
2.70458
2.69787
2.69234
2.69099
2.69467
2.7062
1
1
1
1
1
1
1
1
1
1
1
1
1
1
1
1
1
1
1
1
1
1
1
1
1
1
1.51789
2.47968
2.6496
2.66423
2.67177
2.67628
2.68016
2.68409
2.68751
2.69002
2.69208
2.6936
2.69444
2.69466
2.6933
2.68969
2.68257
2.67212
2.65857
2.63925
2.5893
2.4801
1
1
1
1
1
1
1
1
1
1
1
1
1
1
1
1
1
1
1
1
1
1
1
1
1
1
1.13425
2.34652
2.63908
2.64244
2.65118
2.66016
2.66707
2.673
2.6778
2.68087
2.68215
2.68232
2.68151
2.67951
2.67575
2.66954
2.65921
2.64322
2.61908
2.57758
2.51362
2.33609
1
1
1
1
1
1
1
1
1
1
1
1
1
1
1
1
1
1
1
1
1
1
1
1
1
1
1.00453
2.22156
2.61201
2.6204
2.62921
2.63967
2.64916
2.65761
2.66418
2.66858
2.67041
2.67014
2.66839
2.66466
2.6585
2.64917
2.63518
2.61377
2.58139
2.53036
2.44281
2.25353
1
1
1
1
1
1
1
1
1
1
1
1
1
1
1
1
1
1
1
1
1
1
1
1
1
1
0.999994
2.00391
2.59027
2.61325
2.62192
2.62875
2.63505
2.64166
2.64794
2.65301
2.65573
2.65579
2.65395
2.64931
2.64138
2.6293
2.61166
2.58611
2.54723
2.49272
2.38906
2.22848
1
1
1
1
1
1
1
1
1
1
1
1
1
1
1
1
1
1
1
1
1
1
1
1
1
1
0.999998
1.65521
2.50636
2.60114
2.61291
2.61913
2.62413
2.62851
2.63219
2.63557
2.63786
2.63839
2.63685
2.63226
2.62363
2.60984
2.58936
2.56067
2.51898
2.46123
2.36032
2.2338
1
1
1
1
1
1
1
1
1
1
1
1
1
1
1
1
1
1
1
1
1
1
1
1
1
1
1
1.20227
2.366
2.60543
2.6061
2.61008
2.61402
2.61654
2.61755
2.61825
2.61871
2.61883
2.61752
2.61347
2.60508
2.59072
2.56878
2.538
2.49533
2.43738
2.34579
2.24296
1
1
1
1
1
1
1
1
1
1
1
1
1
1
1
1
1
1
1
1
1
1
1
1
1
1
1
1.01014
2.21425
2.57402
2.58485
2.5935
2.60006
2.60321
2.60313
2.60203
2.60015
2.59858
2.59653
2.59269
2.58498
2.57117
2.54931
2.51812
2.47571
2.41914
2.33945
2.25315
1
1
1
1
1
1
1
1
1
1
1
1
1
1
1
1
1
1
1
1
1
1
1
1
1
1
1
1
1.91772
2.53365
2.56962
2.58072
2.58788
2.59143
2.59122
2.58915
2.58523
2.58104
2.57694
2.57205
2.56423
2.55104
2.53012
2.5
2.45881
2.40511
2.33652
2.26207
1
1
1
1
1
1
1
1
1
1
1
1
1
1
1
1
1
1
1
1
1
1
1
1
1
1
1
0.999998
1.45238
2.41942
2.55647
2.56378
2.57165
2.57632
2.57713
2.57535
2.57095
2.56503
2.55881
2.55217
2.54354
2.53054
2.511
2.48271
2.44327
2.39374
2.33505
2.2687
1
1
1
1
1
1
1
1
1
1
1
1
1
1
1
1
1
1
1
1
1
1
1
1
1
1
1
0.999999
1.05167
2.257
2.54837
2.54586
2.55138
2.55765
2.56111
2.56025
2.55674
2.55064
2.54316
2.53458
2.52458
2.51079
2.49199
2.465
2.42824
2.38394
2.33275
2.27414
1
1
1
1
1
1
1
1
1
1
1
1
1
1
1
1
1
1
1
1
1
1
1
1
1
1
1
1
1.00049
1.96949
2.49988
2.53006
2.53793
2.54112
2.54477
2.54456
2.5421
2.53654
2.52856
2.51872
2.50744
2.4927
2.47398
2.4481
2.4145
2.37514
2.32926
2.27734
1
1
1
1
1
1
1
1
1
1
1
1
1
1
1
1
1
1
1
1
1
1
1
1
1
1
1
1
0.999998
1.45873
2.38704
2.52195
2.52083
2.52355
2.52742
2.52748
2.52587
2.52152
2.5139
2.50402
2.492
2.47678
2.45729
2.43246
2.40156
2.36634
2.32467
2.2794
1
1
1
1
1
1
1
1
1
1
1
1
1
1
1
1
1
1
1
1
1
1
1
1
1
1
1
1
1
1.05152
2.21352
2.50435
2.50374
2.50742
2.51073
2.51096
2.50956
2.5058
2.49857
2.48917
2.47719
2.46252
2.44245
2.41877
2.39056
2.35856
2.32073
2.28025
1
1
1
1
1
1
1
1
1
1
1
1
1
1
1
1
1
1
1
1
1
1
1
1
1
1
1
1
1
1.00047
1.84028
2.44055
2.48628
2.4937
2.49741
2.4966
2.49405
2.48973
2.4826
2.47357
2.462
2.44775
2.4288
2.40635
2.38046
2.35058
2.31651
2.27984
1
1
1
1
1
1
1
1
1
1
1
1
1
1
1
1
1
1
1
1
1
1
1
1
1
1
1
1
1
0.999999
1.22608
2.29617
2.49003
2.48298
2.48201
2.47972
2.47575
2.47125
2.46452
2.45651
2.44614
2.43284
2.41594
2.39533
2.37167
2.34381
2.31294
2.27919
1
1
1
1
1
1
1
1
1
1
1
1
1
1
1
1
1
1
1
1
1
1
1
1
1
1
1
1
1
1
1.01145
2.09403
2.45649
2.4625
2.46362
2.46154
2.45714
2.4524
2.44626
2.43914
2.4299
2.41788
2.40258
2.38393
2.36242
2.33661
2.30831
2.27765
1
1
1
1
1
1
1
1
1
1
1
1
1
1
1
1
1
1
1
1
1
1
1
1
1
1
1
1
1
1
1
1.58022
2.36453
2.45058
2.44864
2.44474
2.44035
2.43589
2.43014
2.42364
2.41498
2.40394
2.38986
2.37274
2.35275
2.32896
2.30304
2.27537
1
1
1
1
1
1
1
1
1
1
1
1
1
1
1
1
1
1
1
1
1
1
1
1
1
1
1
1
1
1
0.999997
1.08412
2.18572
2.44154
2.43218
2.42724
2.42288
2.41902
2.41401
2.40792
2.39991
2.38983
2.37691
2.36101
2.34227
2.32012
2.29621
2.27113
1
1
1
1
1
1
1
1
1
1
1
1
1
1
1
1
1
1
1
1
1
1
1
1
1
1
1
1
1
1
0.999999
1.00134
1.77166
2.36319
2.41101
2.40976
2.40793
2.40432
2.39943
2.39329
2.38546
2.37583
2.36362
2.3486
2.33119
2.31079
2.28872
2.2655
1
1
1
1
1
1
1
1
1
1
1
1
1
1
1
1
1
1
1
1
1
1
1
1
1
1
1
1
1
1
1
0.999999
1.1705
2.19651
2.40804
2.39911
2.39511
2.39032
2.38468
2.37802
2.37023
2.36096
2.34951
2.33565
2.31944
2.30055
2.27999
2.25827
1
1
1
1
1
1
1
1
1
1
1
1
1
1
1
1
1
1
1
1
1
1
1
1
1
1
1
1
1
1
1
1
1.00598
1.85237
2.34715
2.37993
2.37758
2.37431
2.36987
2.36372
2.35591
2.34671
2.33583
2.32273
2.30738
2.28988
2.27082
2.25068
1
1
1
1
1
1
1
1
1
1
1
1
1
1
1
1
1
1
1
1
1
1
1
1
1
1
1
1
1
1
1
1
1.00001
1.22927
2.18277
2.37533
2.36687
2.36264
2.35765
2.3509
2.34256
2.33295
2.32202
2.3093
2.29478
2.27868
2.26127
2.24263
1
1
1
1
1
1
1
1
1
1
1
1
1
1
1
1
1
1
1
1
1
1
1
1
1
1
1
1
1
1
1
1
1
1.01101
1.86136
2.31766
2.35059
2.34724
2.34268
2.33632
2.32832
2.319
2.30834
2.29612
2.28251
2.26778
2.25195
2.23485
1
1
1
1
1
1
1
1
1
1
1
1
1
1
1
1
1
1
1
1
1
1
1
1
1
1
1
1
1
1
1
1
1
1.00004
1.24585
2.14862
2.34133
2.33524
2.33047
2.32376
2.31556
2.30629
2.29576
2.28385
2.2709
2.25732
2.24283
2.22709
1
1
1
1
1
1
1
1
1
1
1
1
1
1
1
1
1
1
1
1
1
1
1
1
1
1
1
1
1
1
1
1
1
1
1.01262
1.80023
2.27582
2.32145
2.31511
2.3084
2.30088
2.29255
2.28287
2.2718
2.25973
2.2472
2.23393
2.21934
1
1
1
1
1
1
1
1
1
1
1
1
1
1
1
1
1
1
1
1
1
1
1
1
1
1
1
1
1
1
1
1
1
1
1.00006
1.21089
2.09629
2.30741
2.30047
2.29484
2.28818
2.28044
2.27134
2.26109
2.24983
2.23797
2.22551
2.21187
1
1
1
1
1
1
1
1
1
1
1
1
1
1
1
1
1
1
1
1
1
1
1
1
1
1
1
1
1
1
1
1
1
1
1
1.00913
1.66726
2.21554
2.28443
2.27689
2.27139
2.26497
2.2575
2.24887
2.23898
2.22802
2.21624
2.20349
1
1
1
1
1
1
1
1
1
1
1
1
1
1
1
1
1
1
1
1
1
1
1
1
1
1
1
1
1
1
1
1
1
1
1
1.00004
1.13672
2.02231
2.27372
2.26359
2.25745
2.25081
2.24433
2.23698
2.22835
2.21834
2.20716
2.19514
1
1
1
1
1
1
1
1
1
1
1
1
1
1
1
1
1
1
1
1
1
1
1
1
1
1
1
1
1
1
1
1
1
1
1
1
1.00382
1.50374
2.14578
2.24798
2.24019
2.23472
2.22914
2.22271
2.21511
2.2062
2.19604
2.18498
1
1
1
1
1
1
1
1
1
1
1
1
1
1
1
1
1
1
1
1
1
1
1
1
1
1
1
1
1
1
1
1
1
1
1
1
1.00002
1.06722
1.88615
2.22406
2.23059
2.22547
2.21901
2.21203
2.20436
2.19589
2.18649
2.17616
1
1
1
1
1
1
1
1
1
1
1
1
1
1
1
1
1
1
1
1
1
1
1
1
1
1
1
1
1
1
1
1
1
1
1
1
1
1.00106
1.32054
2.05883
2.21889
2.20883
2.20469
2.19887
2.19193
2.18418
2.17562
2.16611
1
1
1
1
1
1
1
1
1
1
1
1
1
1
1
1
1
1
1
1
1
1
1
1
1
1
1
1
1
1
1
1
1
1
1
1
1
1
1.02318
1.66039
2.13457
2.20008
2.19269
2.1871
2.18096
2.17375
2.16554
2.15648
1
1
1
1
1
1
1
1
1
1
1
1
1
1
1
1
1
1
1
1
1
1
1
1
1
1
1
1
1
1
1
1
1
1
1
1
1
1
1.00022
1.14279
1.91609
2.18498
2.18154
2.17595
2.1698
2.16284
2.15497
2.14636
1
1
1
1
1
1
1
1
1
1
1
1
1
1
1
1
1
1
1
1
1
1
1
1
1
1
1
1
1
1
1
1
1
1
1
1
1
1
1
1.00441
1.40027
2.04415
2.16812
2.16002
2.15406
2.1483
2.14179
2.13419
1
1
1
1
1
1
1
1
1
1
1
1
1
1
1
1
1
1
1
1
1
1
1
1
1
1
1
1
1
1
1
1
1
1
1
1
1
1
1
1.00002
1.04066
1.68975
2.102
2.15289
2.14402
2.13708
2.13094
2.1242
1
1
1
1
1
1
1
1
1
1
1
1
1
1
1
1
1
1
1
1
1
1
1
1
1
1
1
1
1
1
1
1
1
1
1
1
1
1
1
1
1.00055
1.16849
1.88661
2.13316
2.13465
2.1283
2.12161
2.11436
1
1
1
1
1
1
1
1
1
1
1
1
1
1
1
1
1
1
1
1
1
1
1
1
1
1
1
1
1
1
1
1
1
1
1
1
1
1
1
1
1
1.0063
1.387
1.99007
2.12066
2.11559
2.10909
2.10288
1
1
1
1
1
1
1
1
1
1
1
1
1
1
1
1
1
1
1
1
1
1
1
1
1
1
1
1
1
1
1
1
1
1
1
1
1
1
1
1
1
1.00004
1.03865
1.61413
2.04557
2.10757
2.09843
2.09117
1
1
1
1
1
1
1
1
1
1
1
1
1
1
1
1
1
1
1
1
1
1
1
1
1
1
1
1
1
1
1
1
1
1
1
1
1
1
1
1
1
1
1.00054
1.1301
1.79892
2.06356
2.09459
2.08505
1
1
1
1
1
1
1
1
1
1
1
1
1
1
1
1
1
1
1
1
1
1
1
1
1
1
1
1
1
1
1
1
1
1
1
1
1
1
1
1
1
1
1
1.0041
1.29096
1.89289
2.07517
2.07535
1
1
1
1
1
1
1
1
1
1
1
1
1
1
1
1
1
1
1
1
1
1
1
1
1
1
1
1
1
1
1
1
1
1
1
1
1
1
1
1
1
1
1
1.00003
1.0205
1.46404
1.96019
2.06205
1
1
1
1
1
1
1
1
1
1
1
1
1
1
1
1
1
1
1
1
1
1
1
1
1
1
1
1
1
1
1
1
1
1
1
1
1
1
1
1
1
1
1
1
1.00023
1.06548
1.6274
1.99599
1
1
1
1
1
1
1
1
1
1
1
1
1
1
1
1
1
1
1
1
1
1
1
1
1
1
1
1
1
1
1
1
1
1
1
1
1
1
1
1
1
1
1
1
1
1.00132
1.15159
1.75624
1
1
1
1
1
1
1
1
1
1
1
1
1
1
1
1
1
1
1
1
1
1
1
1
1
1
1
1
1
1
1
1
1
1
1
1
1
1
1
1
1
1
1
1
1
1.00001
1.00572
1.27248
1
1
1
1
1
1
1
1
1
1
1
1
1
1
1
1
1
1
1
1
1
1
1
1
1
1
1
1
1
1
1
1
1
1
1
1
1
1
1
1
1
1
1
1
1
1
1.00004
1.0188
1
1
1
1
1
1
1
1
1
1
1
1
1
1
1
1
1
1
1
1
1
1
1
1
1
1
1
1
1
1
1
1
1
1
1
1
1
1
1
1
1
1
1
1
1
1
1
1.00022
1
1
1
1
1
1
1
1
1
1
1
1
1
1
1
1
1
1
1
1
1
1
1
1
1
1
1
1
1
1
1
1
1
1
1
1
1
1
1
1
1
1
1
1
1
1
1
1
1
1
1
1
1
1
1
1
1
1
1
1
1
1
1
1
1
1
1
1
1
1
1
1
1
1
1
1
1
1
1
1
1
1
1
1
1
1
1
1
1
1
1
1
1
1
1
1
1
1
1
1
1
1
1
1
1
1
1
1
1
1
1
1
1
1
1
1
1
1
1
1
1
1
1
1
1
1
1
1
1
1
1
1
1
1
1
1
1
1
1
1
1
1
1
1
1
1
1
1
1
1
1
1
1
1
1
1
1
1
1
1
1
1
1
1
1
1
1
1
1
1
1
1
1
1
1
1
1
1
1
1
1
1
1
1
1
1
1
1
1
1
1
1
1
1
1
1
1
1
1
1
1
1
1
1
1
1
1
1
1
1
1
1
1
1
1
1
1
1
1
1
1
1
1
1
1
1
1
1
1
1
1
1
1
1
1
1
1
1
1
1
1
1
1
1
1
1
1
1
1
1
1
1
1
1
1
1
1
1
1
1
1
1
1
1
1
1
1
1
1
1
1
1
1
1
1
1
1
1
1
1
1
1
1
1
1
1
1
1
1
1
1
1
1
1
1
1
1
1
1
1
1
1
1
1
1
1
1
1
1
1
1
1
1
1
1
1
1
1
1
1
1
1
1
1
1
1
1
1
1
1
1
1
1
1
1
1
1
1
1
1
1
1
1
1
1
1
1
1
1
1
1
1
1
1
1
1
1
1
1
1
1
1
1
1
1
1
1
1
1
1
1
1
1
1
1
1
1
1
1
1
1
1
1
1
1
1
1
1
1
1
1
1
1
1
1
1
1
1
1
1
1
1
1
1
1
1
1
1
1
1
1
1
1
1
1
1
1
1
1
1
1
1
1
1
1
1
1
1
1
1
1
1
1
1
1
1
1
1
1
1
1
1
1
1
1
1
1
1
1
1
1
1
1
1
1
1
1
1
1
1
1
1
1
1
1
1
1
1
1
1
1
1
1
1
1
1
1
1
1
1
1
1
1
1
1
1
1
1
1
1
1
1
1
1
1
1
1
1
1
1
1
1
1
1
1
1
1
1
1
1
1
1
1
1
1
1
1
1
1
1
1
1
1
1
1
1
1
1
1
1
1
1
1
1
1
1
1
1
1
1
1
1
1
1
1
1
1
1
1
1
1
1
1
1
1
1
1
1
1
1
1
1
1
1
1
1
1
1
1
1
1
1
1
1
1
1
1
1
1
1
1
1
1
1
1
1
1
1
1
1
1
1
1
1
1
1
1
1
1
1
1
1
1
1
1
1
1
1
1
1
1
1
1
1
1
1
1
1
1
1
1
1
1
1
1
1
1
1
1
1
1
1
1
1
1
1
1
1
1
1
1
1
1
1
1
1
1
1
1
1
1
1
1
1
1
1
1
1
1
1
1
1
1
1
1
1
1
1
1
1
1
1
1
1
1
1
1
1
1
1
1
1
1
1
1
1
1
1
1
1
1
1
1
1
1
1
1
1
1
1
1
1
1
1
1
1
1
1
1
1
1
1
1
1
1
1
1
1
1
1
1
1
1
1
1
1
1
1
1
1
1
1
1
1
1
1
1
1
1
1
1
1
1
1
1
1
1
1
1
1
1
1
1
1
1
1
1
1
1
1
1
1
1
1
1
1
1
1
1
1
1
1
1
1
1
1
1
1
1
1
1
1
1
1
1
1
1
1
1
1
1
1
1
1
1
1
1
1
1
1
1
1
1
1
1
1
1
1
1
1
1
1
1
1
1
1
1
1
1
1
1
1
1
1
1
1
1
1
1
1
1
1
1
1
1
1
1
1
1
1
1
1
1
1
1
1
1
1
1
1
1
1
1
1
1
1
1
1
1
1
1
1
1
1
1.60269
0.952726
0.49618
0.612116
0.930899
1.14525
1.19261
1.28786
1.3939
1.36324
1.30645
1.30255
1.33048
1.4245
1.56364
1.64994
1.67015
1.67796
1.67667
1.66861
1.65874
1.6582
1.67119
1.6784
1.67777
1.68129
1.68215
1.67387
1.6752
1.68374
1.68319
1.67907
1.68084
1.68378
1.68341
1.68234
1.68299
1.68403
1.68729
1.69371
1.69581
1.6977
1.69829
1.69858
1.69764
1.6937
1.69361
1.69794
1.70363
1.70756
1.71168
1.7154
1.71627
1.71561
1.715
1.71369
1.71161
1.70922
1.70688
1.70435
1.70082
1.69511
1.68788
1.683
1.68225
1.68189
1.68189
1.68215
1.68199
1.68143
1.68137
1.68234
1.68522
1.68973
1.69568
1.70019
1.70127
1.70138
1.69885
1.69295
1.69088
1.69122
1.69397
1.69897
1.70086
1.69996
1.69611
1.68623
1.68312
1.71057
1.86125
2.10238
2.35051
2.54233
2.67148
2.72186
2.69543
2.65239
2.59496
2.57177
2.55366
2.54021
2.53264
2.52275
2.51327
2.50303
2.4932
2.48584
2.48069
2.47673
2.47328
2.46976
2.46583
2.4605
2.45339
2.44768
2.44371
2.43834
2.43235
2.42485
2.41748
2.40977
2.40059
2.39048
2.37998
2.3683
2.35552
2.34242
2.33004
2.31955
2.31186
2.30593
2.3002
2.29493
2.28958
2.28277
2.27265
2.25931
2.24693
2.23767
2.23252
2.2303
2.22919
2.22909
2.23094
2.23455
2.23567
2.23592
2.23426
2.22643
2.21531
2.20806
2.20321
2.19856
2.19293
2.1853
2.17581
2.16778
2.1608
2.15298
2.14458
2.13715
2.12924
2.12154
2.11649
2.11345
2.11132
2.10813
2.09913
2.08491
2.07791
2.07454
2.07084
2.06698
2.06513
2.06548
2.06629
2.06783
2.06874
2.06643
2.055
2.04314
2.0388
2.03662
2.03445
2.03209
2.03045
2.02958
2.02722
2.0238
2.01992
2.00829
1.83624
1.51151
1.27621
1.05094
1.0326
1.08508
1.11058
1.11233
1.1131
1.09884
1.10477
1.11714
1.14406
1.21085
1.29686
1.34611
1.38507
1.41616
1.44771
1.47541
1.50507
1.53461
1.56922
1.59482
1.60914
1.62394
1.63001
1.63001
1.63352
1.63908
1.63709
1.63364
1.63637
1.64452
1.65073
1.65562
1.65832
1.65895
1.66044
1.66348
1.6653
1.66806
1.67019
1.67167
1.67176
1.67086
1.6706
1.67356
1.67942
1.68378
1.68617
1.68783
1.68952
1.69056
1.69113
1.69167
1.69121
1.68976
1.68797
1.68652
1.68494
1.68162
1.6749
1.6686
1.66453
1.66275
1.6627
1.66375
1.66583
1.66799
1.67001
1.67184
1.67349
1.67524
1.67789
1.68117
1.68494
1.68686
1.68781
1.68774
1.68549
1.68316
1.68291
1.68295
1.68355
1.68316
1.67991
1.68583
1.72775
1.85872
2.02455
2.10011
2.15667
2.2726
2.37814
2.48794
2.55066
2.56529
2.55325
2.54244
2.52796
2.51487
2.50623
2.4959
2.48725
2.47856
2.46894
2.46059
2.45573
2.45387
2.45298
2.45187
2.45004
2.44701
2.44222
2.43529
2.4285
2.42218
2.41485
2.40728
2.40004
2.3928
2.38508
2.37701
2.36786
2.35728
2.34546
2.33293
2.32068
2.30967
2.3004
2.29237
2.28521
2.27915
2.27361
2.26827
2.26219
2.25486
2.24695
2.23808
2.22942
2.22431
2.2223
2.22179
2.22207
2.2226
2.22357
2.22401
2.22317
2.21861
2.21062
2.20204
2.19487
2.18893
2.18325
2.17706
2.16975
2.16252
2.15557
2.1479
2.13968
2.13225
2.12399
2.11625
2.11099
2.10762
2.10496
2.10135
2.09424
2.08318
2.07455
2.07038
2.06669
2.06303
2.06063
2.05939
2.05959
2.06039
2.06063
2.05928
2.05367
2.04545
2.03793
2.03303
2.03001
2.0274
2.02538
2.02301
2.01891
2.01446
2.01028
2.00121
1.91613
1.71531
1.59353
1.45422
1.2656
1.20818
1.18722
1.13724
1.10705
1.11145
1.1141
1.09641
1.09589
1.11256
1.14356
1.15333
1.15017
1.17002
1.2121
1.26406
1.33059
1.37943
1.41452
1.45441
1.49126
1.51974
1.54245
1.55432
1.56561
1.57465
1.57289
1.57237
1.57364
1.57688
1.58301
1.59045
1.59659
1.59979
1.60103
1.60264
1.60487
1.60702
1.61064
1.61251
1.61339
1.61384
1.61475
1.6183
1.62451
1.62968
1.63171
1.63255
1.6336
1.63555
1.63777
1.6407
1.64148
1.64057
1.63803
1.63702
1.63735
1.63739
1.6366
1.63493
1.63318
1.63055
1.62678
1.62501
1.62549
1.6282
1.63337
1.63928
1.64347
1.64526
1.64532
1.64382
1.64271
1.64399
1.64868
1.65395
1.65598
1.65623
1.65583
1.6516
1.64409
1.64332
1.6566
1.72793
1.86959
2.02521
2.05487
2.04181
2.03224
2.04035
2.09852
2.21482
2.34667
2.43471
2.46564
2.48182
2.47526
2.46098
2.44753
2.43473
2.42758
2.42289
2.41754
2.41178
2.40777
2.40583
2.40417
2.40256
2.40135
2.3999
2.39771
2.39361
2.38802
2.38201
2.3752
2.36769
2.3596
2.35134
2.3439
2.33704
2.32992
2.322
2.31342
2.3043
2.29409
2.28284
2.27118
2.26036
2.25171
2.24483
2.23878
2.23287
2.22874
2.22689
2.22497
2.22196
2.21608
2.20821
2.2018
2.19831
2.19637
2.19538
2.19471
2.19346
2.19161
2.18989
2.18704
2.18236
2.17503
2.16557
2.15653
2.14915
2.14343
2.13817
2.13234
2.12594
2.11939
2.11363
2.10602
2.09875
2.09381
2.09035
2.08622
2.07993
2.07334
2.0674
2.06074
2.05524
2.05154
2.04787
2.04432
2.04214
2.04105
2.04002
2.03853
2.03645
2.03528
2.03395
2.03123
2.0249
2.01632
2.01063
2.00669
2.00243
1.99778
1.99277
1.98776
1.97938
2.01076
1.83296
1.70628
1.59921
1.47532
1.40076
1.33531
1.25626
1.21253
1.20741
1.20525
1.19044
1.16268
1.13115
1.11641
1.11426
1.1146
1.11837
1.12719
1.14181
1.17857
1.23902
1.2826
1.32622
1.36976
1.39805
1.43002
1.45359
1.47223
1.49272
1.50394
1.51233
1.51735
1.52081
1.52656
1.53277
1.53868
1.54036
1.54081
1.54133
1.54097
1.54186
1.54359
1.54449
1.5455
1.54651
1.54827
1.55177
1.55709
1.56389
1.56781
1.56822
1.56884
1.57071
1.57438
1.57833
1.58179
1.58233
1.58152
1.58002
1.57898
1.57793
1.57802
1.57899
1.57945
1.57929
1.57786
1.57632
1.5764
1.57829
1.58276
1.5881
1.59213
1.59497
1.59692
1.5975
1.5969
1.59683
1.59912
1.60224
1.60495
1.60498
1.60432
1.60212
1.60582
1.62334
1.71412
1.88616
1.9791
2.02793
2.0249
2.01367
1.998
1.97973
1.96293
1.98107
2.05876
2.1902
2.30192
2.36328
2.3914
2.3948
2.394
2.3891
2.38143
2.37112
2.36191
2.3548
2.3504
2.34766
2.34722
2.34714
2.34631
2.3443
2.34099
2.33632
2.3304
2.32387
2.31709
2.30995
2.30256
2.29578
2.28982
2.2839
2.27729
2.27009
2.26335
2.25607
2.24775
2.23834
2.22779
2.21662
2.20681
2.19926
2.19338
2.18972
2.18812
2.18774
2.18723
2.18621
2.18367
2.17807
2.16968
2.16208
2.1576
2.15479
2.15193
2.14908
2.14745
2.14629
2.14435
2.14072
2.13463
2.12641
2.11841
2.11212
2.10663
2.10135
2.09633
2.09101
2.08523
2.07898
2.07154
2.06478
2.0599
2.05624
2.0521
2.04693
2.04317
2.04047
2.03623
2.02933
2.02294
2.01857
2.01507
2.01249
2.01005
2.00655
2.00275
2.00201
2.00274
2.00361
2.00328
2.00067
1.99375
1.98324
1.97432
1.96831
1.96297
1.95709
1.95179
1.94648
2.06862
1.92132
1.81616
1.70572
1.59409
1.52048
1.45309
1.38507
1.34756
1.32018
1.2867
1.26382
1.23794
1.20877
1.19271
1.18372
1.16798
1.16192
1.16474
1.16395
1.16476
1.16801
1.17765
1.19657
1.23188
1.26575
1.30734
1.35868
1.39515
1.41978
1.44053
1.45475
1.46629
1.47
1.47752
1.48886
1.4947
1.496
1.49749
1.49987
1.50289
1.5054
1.50783
1.50849
1.50785
1.50713
1.50783
1.51013
1.51465
1.523
1.52816
1.52828
1.52865
1.5296
1.52982
1.53035
1.5326
1.53466
1.5361
1.53717
1.53716
1.5361
1.53531
1.53533
1.53561
1.53557
1.53479
1.53414
1.53419
1.535
1.53773
1.54189
1.54602
1.54879
1.55063
1.55233
1.55402
1.55484
1.55508
1.55568
1.55551
1.55365
1.55451
1.56283
1.59794
1.69854
1.8725
1.96622
2.00208
2.00461
1.99576
1.97839
1.96262
1.95117
1.94322
1.93633
1.93377
1.96296
2.06236
2.18343
2.28877
2.32243
2.34234
2.34809
2.34664
2.33868
2.32868
2.31962
2.31193
2.30585
2.30396
2.30337
2.30305
2.30223
2.29907
2.29303
2.28396
2.27367
2.26506
2.25775
2.25103
2.24518
2.24025
2.23572
2.23022
2.22376
2.21707
2.21017
2.20278
2.19458
2.185
2.17346
2.16185
2.1543
2.15075
2.14921
2.14913
2.15037
2.15076
2.15041
2.1488
2.14425
2.13592
2.12567
2.1168
2.11097
2.10735
2.10524
2.10371
2.10154
2.09768
2.09137
2.08352
2.07649
2.07134
2.06712
2.06287
2.05878
2.05504
2.05104
2.0461
2.03983
2.033
2.02571
2.01837
2.0123
2.00893
2.00822
2.00835
2.00819
2.0064
2.0008
1.99137
1.98279
1.97736
1.97318
1.96912
1.96548
1.96455
1.96462
1.96496
1.96507
1.96439
1.96195
1.95684
1.94676
1.93338
1.92353
1.91749
1.91305
1.91143
1.90937
2.11521
1.98911
1.89232
1.79229
1.69843
1.63151
1.55999
1.47542
1.43067
1.4056
1.37973
1.35632
1.32503
1.28764
1.26706
1.25776
1.2432
1.22493
1.21402
1.20221
1.18931
1.18593
1.18046
1.17856
1.18136
1.18757
1.20012
1.23213
1.27367
1.30829
1.34971
1.38314
1.41564
1.43229
1.44473
1.46093
1.46881
1.47013
1.47193
1.47455
1.47745
1.48101
1.48606
1.48697
1.48644
1.4852
1.48666
1.48989
1.49499
1.50387
1.50883
1.50888
1.50844
1.50561
1.50254
1.50213
1.50302
1.50626
1.51222
1.51794
1.51863
1.51772
1.51547
1.51193
1.50923
1.50814
1.50762
1.50762
1.50801
1.50945
1.51247
1.51681
1.52073
1.52333
1.52483
1.52557
1.52624
1.52629
1.52548
1.52358
1.52362
1.5255
1.53526
1.59785
1.73199
1.86538
1.96579
1.98592
1.98684
1.98083
1.96837
1.95562
1.9467
1.94225
1.93897
1.93219
1.9237
1.91381
1.92047
1.96418
2.07495
2.18531
2.27501
2.30005
2.31593
2.31241
2.31007
2.30763
2.29999
2.29173
2.28486
2.28001
2.27616
2.27334
2.26949
2.26295
2.25375
2.24404
2.23605
2.22901
2.22195
2.21493
2.20856
2.20253
2.19611
2.18967
2.1835
2.17749
2.17133
2.16465
2.15708
2.14823
2.13866
2.13098
2.12686
2.12557
2.12597
2.12681
2.1262
2.12441
2.12076
2.11531
2.10805
2.09912
2.08959
2.08099
2.07522
2.07189
2.06859
2.06391
2.05726
2.04961
2.04262
2.03738
2.03358
2.03036
2.02729
2.02403
2.02003
2.01517
2.00991
2.00422
1.99683
1.98891
1.98168
1.97714
1.97644
1.9769
1.9786
1.97926
1.97876
1.97572
1.96642
1.95214
1.94214
1.93606
1.93175
1.92985
1.92897
1.92868
1.92867
1.92789
1.92553
1.92213
1.91673
1.9067
1.89321
1.88119
1.87487
1.8729
1.87277
1.87185
2.14713
2.04603
1.95555
1.86294
1.77919
1.71412
1.64868
1.57465
1.52078
1.47841
1.44447
1.42341
1.40369
1.37389
1.33588
1.3123
1.29422
1.28077
1.27085
1.25842
1.24171
1.23198
1.22237
1.21014
1.20659
1.20282
1.20008
1.19906
1.20161
1.20882
1.22953
1.26465
1.30775
1.35971
1.39738
1.43044
1.44771
1.45043
1.45245
1.45312
1.45575
1.46277
1.47211
1.47649
1.4776
1.47743
1.47822
1.48113
1.48596
1.4934
1.49741
1.49743
1.49649
1.49259
1.49001
1.49048
1.49217
1.49715
1.50585
1.51018
1.50992
1.50832
1.50415
1.49877
1.4954
1.49433
1.49432
1.49485
1.49728
1.50113
1.50441
1.50602
1.50646
1.50701
1.50779
1.50793
1.5082
1.50923
1.50948
1.51017
1.51233
1.52713
1.60421
1.78738
1.90038
1.96131
1.98151
1.97885
1.97268
1.964
1.9561
1.95247
1.94741
1.94051
1.93452
1.9268
1.91816
1.90934
1.90395
1.90173
1.91454
1.97041
2.08178
2.18892
2.26399
2.29024
2.29299
2.29548
2.29327
2.28731
2.28006
2.27209
2.265
2.25853
2.25252
2.24488
2.2357
2.22808
2.22203
2.21609
2.20937
2.20196
2.19412
2.18572
2.1776
2.17072
2.16475
2.15919
2.15377
2.14835
2.14289
2.13765
2.13258
2.12695
2.12065
2.11475
2.11009
2.10692
2.10487
2.10309
2.10084
2.09687
2.09099
2.08431
2.07759
2.07005
2.06131
2.05236
2.04366
2.03508
2.02753
2.02186
2.01723
2.01344
2.01116
2.00919
2.0069
2.00377
1.99857
1.99075
1.98197
1.97322
1.96596
1.96036
1.95746
1.95714
1.95727
1.95838
1.96112
1.96184
1.96139
1.95813
1.94729
1.92966
1.91706
1.91153
1.90842
1.90586
1.90394
1.90282
1.90119
1.89834
1.89448
1.88888
1.88044
1.87065
1.86166
1.85372
1.84774
1.84447
1.84421
1.8431
2.17457
2.09216
2.00798
1.92307
1.85363
1.78549
1.71448
1.65053
1.60543
1.56328
1.52136
1.48676
1.4621
1.43392
1.40631
1.38512
1.35819
1.33259
1.31868
1.30761
1.29592
1.28227
1.26765
1.25155
1.24044
1.23338
1.22548
1.22072
1.21537
1.20745
1.20609
1.20971
1.2201
1.24564
1.2826
1.32116
1.36014
1.38824
1.41095
1.42354
1.43428
1.4463
1.45683
1.46549
1.47162
1.47232
1.47238
1.47445
1.47882
1.48528
1.48946
1.49001
1.48891
1.48599
1.48615
1.48721
1.48851
1.49278
1.50085
1.50452
1.50464
1.50356
1.49953
1.49309
1.48991
1.4897
1.48977
1.49132
1.4961
1.4996
1.50085
1.50112
1.5001
1.49834
1.4979
1.49821
1.49952
1.50161
1.50451
1.50971
1.53828
1.63271
1.81485
1.94197
1.96491
1.97665
1.97512
1.96854
1.96403
1.95838
1.95214
1.94636
1.93985
1.93068
1.92355
1.91781
1.91343
1.90887
1.90325
1.89728
1.89247
1.89307
1.91079
1.97649
2.08067
2.18623
2.24333
2.28242
2.28403
2.28332
2.27806
2.26996
2.26337
2.25532
2.24631
2.23657
2.22733
2.22045
2.21424
2.20833
2.20195
2.19485
2.18668
2.17827
2.17045
2.16375
2.15785
2.15194
2.14598
2.14084
2.13711
2.1339
2.13049
2.12597
2.11919
2.11081
2.10329
2.098
2.09404
2.09047
2.08682
2.08318
2.08013
2.07665
2.07215
2.06572
2.05557
2.04269
2.03069
2.0209
2.01374
2.00813
2.00454
2.00497
2.00354
1.99881
1.99487
1.99047
1.98395
1.97456
1.96409
1.95517
1.94915
1.94657
1.94613
1.94628
1.94878
1.95248
1.95271
1.95223
1.94985
1.94342
1.93258
1.91907
1.90733
1.90053
1.89619
1.89264
1.89036
1.88802
1.88378
1.87816
1.87056
1.8613
1.85278
1.84633
1.84167
1.83734
1.83291
1.82912
1.82804
1.82634
2.19522
2.12476
2.048
1.9766
1.91128
1.84666
1.77661
1.72379
1.67564
1.62786
1.5877
1.55748
1.52846
1.49365
1.45925
1.43404
1.41294
1.39263
1.37226
1.35157
1.33902
1.32794
1.31581
1.30007
1.28563
1.2744
1.26391
1.25658
1.24906
1.23833
1.22703
1.2238
1.22241
1.22093
1.22355
1.23005
1.24634
1.27237
1.30676
1.34955
1.38882
1.42172
1.43385
1.44269
1.45341
1.45763
1.45888
1.46255
1.46908
1.47584
1.48078
1.48415
1.48552
1.48559
1.48682
1.48729
1.48753
1.48994
1.49537
1.49714
1.4981
1.49888
1.49646
1.49091
1.48881
1.48852
1.48865
1.49142
1.49571
1.49751
1.49817
1.49841
1.49749
1.49397
1.49252
1.49347
1.49586
1.49931
1.50835
1.55935
1.70041
1.83903
1.9606
1.97212
1.97122
1.96848
1.96877
1.96301
1.95803
1.95369
1.94555
1.93766
1.93159
1.92444
1.91691
1.91257
1.90954
1.90482
1.90025
1.89456
1.88803
1.88425
1.8811
1.8833
1.90437
1.97376
2.07439
2.17822
2.23189
2.26528
2.26759
2.26697
2.26471
2.25708
2.24662
2.23679
2.22811
2.22025
2.21163
2.20252
2.19294
2.18466
2.17875
2.17338
2.1677
2.16191
2.15619
2.15002
2.14358
2.13793
2.13399
2.13129
2.12841
2.12413
2.11798
2.11048
2.10218
2.09467
2.08847
2.08365
2.07991
2.07729
2.07557
2.07359
2.06949
2.06211
2.05033
2.03668
2.02596
2.01787
2.01099
2.00518
2.00086
1.99697
1.99154
1.98643
1.98222
1.97807
1.97293
1.96631
1.95747
1.94857
1.94398
1.94305
1.94324
1.94507
1.94531
1.9444
1.94228
1.93953
1.93553
1.93011
1.92332
1.91675
1.90965
1.90045
1.89288
1.88783
1.88262
1.87622
1.86847
1.8602
1.85181
1.84433
1.83882
1.83545
1.83271
1.82987
1.82699
1.82465
1.8232
1.82017
2.21249
2.14824
2.08051
2.02026
1.95903
1.89445
1.83633
1.78464
1.73743
1.69127
1.65127
1.61623
1.58052
1.5483
1.52064
1.49105
1.45946
1.43659
1.41704
1.40059
1.38698
1.37382
1.36029
1.34532
1.33142
1.31852
1.30571
1.294
1.28147
1.26859
1.25669
1.25048
1.24414
1.23515
1.22795
1.22865
1.22953
1.23203
1.23938
1.25639
1.28349
1.31683
1.35515
1.38445
1.40721
1.42135
1.43155
1.44243
1.45334
1.46615
1.47649
1.48168
1.48271
1.48305
1.48363
1.48469
1.48738
1.49128
1.49404
1.49455
1.49447
1.49381
1.49063
1.48751
1.48691
1.48662
1.4878
1.49167
1.49332
1.49398
1.49491
1.49513
1.49366
1.49177
1.49154
1.49218
1.4949
1.50748
1.57355
1.7594
1.89689
1.95229
1.9778
1.97739
1.97392
1.96732
1.96137
1.95582
1.94815
1.94332
1.9387
1.93236
1.92566
1.9209
1.91493
1.90977
1.90513
1.8999
1.89655
1.8923
1.88623
1.88075
1.87482
1.87255
1.87056
1.87295
1.89522
1.9624
2.06456
2.1589
2.20774
2.236
2.24877
2.24831
2.24542
2.23918
2.23148
2.22444
2.21462
2.20265
2.19011
2.17988
2.17296
2.16797
2.16426
2.16059
2.15486
2.14884
2.14319
2.13782
2.1325
2.12727
2.12243
2.11875
2.11538
2.10992
2.10191
2.09309
2.0857
2.07993
2.07684
2.07455
2.07147
2.06702
2.06102
2.05297
2.04212
2.03154
2.02434
2.01777
2.01114
2.00436
1.99735
1.98965
1.98177
1.97507
1.96942
1.96518
1.96256
1.96027
1.95747
1.95444
1.95043
1.94438
1.94032
1.93912
1.93787
1.93581
1.93283
1.92917
1.92527
1.92177
1.91896
1.91598
1.91119
1.90381
1.89304
1.88084
1.87113
1.86294
1.85494
1.84733
1.84073
1.83649
1.8341
1.83237
1.83098
1.82956
1.82761
1.82515
1.82103
1.81297
2.22358
2.1647
2.10673
2.05213
1.99472
1.93536
1.88608
1.83734
1.78962
1.74428
1.70695
1.66979
1.63545
1.59779
1.56564
1.53669
1.51026
1.48916
1.4658
1.44076
1.42616
1.41226
1.39941
1.3868
1.37301
1.35886
1.34315
1.32957
1.31736
1.30533
1.29378
1.287
1.27917
1.26921
1.25902
1.25357
1.24784
1.24061
1.24061
1.2399
1.24043
1.24378
1.25532
1.27569
1.30142
1.33656
1.37188
1.40353
1.43073
1.45196
1.46774
1.47215
1.47289
1.47259
1.47508
1.48115
1.48867
1.49362
1.49605
1.49657
1.49415
1.48836
1.48354
1.48274
1.48278
1.48425
1.48899