/*--------------------------------*- C++ -*----------------------------------*\
  =========                 |
  \\      /  F ield         | OpenFOAM: The Open Source CFD Toolbox
   \\    /   O peration     | Website:  https://openfoam.org
    \\  /    A nd           | Version:  7
     \\/     M anipulation  |
\*---------------------------------------------------------------------------*/
FoamFile
{
    version     2.0;
    format      ascii;
    class       volVectorField;
    location    "1.8";
    object      U;
}
// * * * * * * * * * * * * * * * * * * * * * * * * * * * * * * * * * * * * * //

dimensions      [0 1 -1 0 0 0 0];

internalField   nonuniform List<vector> 
16128
(
(3 2.07212e-16 0)
(3 2.5474e-16 0)
(3 1.35469e-16 0)
(3 3.20688e-16 0)
(3 4.51648e-16 0)
(3 -1.10764e-16 0)
(3 -3.10387e-16 0)
(3 -5.31189e-16 0)
(3 -6.49339e-16 0)
(3 -6.18893e-16 0)
(3 -3.19007e-16 0)
(3 -2.73227e-16 0)
(3 -2.39305e-16 0)
(3 -6.37267e-16 0)
(3 -6.415e-16 0)
(3 7.20938e-18 0)
(3 1.82103e-16 0)
(3 7.46613e-16 0)
(3 8.26425e-16 0)
(3 3.6557e-16 0)
(3 -1.26187e-16 0)
(3 -2.46243e-17 0)
(3 1.86908e-16 0)
(3 3.32292e-16 0)
(3 2.88458e-16 0)
(1.12445 0.00871964 0)
(0.740411 0.00816955 0)
(0.711392 0.010894 0)
(0.681623 0.0122527 0)
(0.64981 0.0132009 0)
(0.618087 0.0137207 0)
(0.58687 0.0138506 0)
(0.556379 0.0136427 0)
(0.52654 0.0133161 0)
(0.496731 0.0135503 0)
(0.465776 0.0144939 0)
(0.433303 0.0155818 0)
(0.400115 0.0162716 0)
(0.366583 0.016548 0)
(0.332084 0.016781 0)
(0.297059 0.0171603 0)
(0.26079 0.017467 0)
(0.224181 0.0178245 0)
(0.185872 0.0182792 0)
(0.146977 0.0191471 0)
(0.107102 0.0203269 0)
(0.0653578 0.0211075 0)
(0.0226548 0.0221284 0)
(3 2.36619e-16 0)
(3 1.01571e-16 0)
(3 1.86808e-16 0)
(3 2.02183e-16 0)
(3 2.97024e-17 0)
(3 -9.53845e-17 0)
(3 -1.03855e-16 0)
(3 -6.16585e-16 0)
(3 -1.04971e-15 0)
(3 -9.8568e-16 0)
(3 -2.65642e-16 0)
(3 1.06695e-16 0)
(3 2.02698e-16 0)
(3 1.37092e-16 0)
(3 4.5345e-16 0)
(3 6.15099e-16 0)
(3 1.19887e-15 0)
(3 1.52021e-15 0)
(3 1.34288e-15 0)
(3 8.40926e-16 0)
(3 -6.27148e-16 0)
(3 -4.60595e-16 0)
(3 1.11106e-16 0)
(3 3.85501e-16 0)
(3 1.63669e-15 0)
(1.1366 0.0390067 0)
(0.736653 0.031956 0)
(0.704483 0.0322227 0)
(0.674858 0.0361662 0)
(0.642888 0.0388885 0)
(0.611071 0.0405662 0)
(0.579594 0.040962 0)
(0.548761 0.0402109 0)
(0.518522 0.0391505 0)
(0.488212 0.0398504 0)
(0.456826 0.042717 0)
(0.424109 0.045909 0)
(0.390967 0.0478946 0)
(0.357748 0.0488097 0)
(0.323689 0.0497666 0)
(0.289269 0.051156 0)
(0.253837 0.0522667 0)
(0.218367 0.0535237 0)
(0.181372 0.05506 0)
(0.143947 0.0578422 0)
(0.105351 0.0614808 0)
(0.0645584 0.0639965 0)
(0.0225619 0.0672963 0)
(3 -3.70331e-17 0)
(3 -1.31784e-16 0)
(3 1.33841e-16 0)
(3 1.09111e-16 0)
(3 -1.13286e-16 0)
(3 3.67109e-16 0)
(3 9.33732e-16 0)
(3 9.36983e-16 0)
(3 7.56098e-16 0)
(3 5.13091e-16 0)
(3 1.526e-16 0)
(3 1.55885e-17 0)
(3 3.59309e-16 0)
(3 1.14625e-15 0)
(3 1.65755e-15 0)
(3 1.5551e-15 0)
(3 1.24822e-15 0)
(3 1.02429e-15 0)
(3 3.91972e-16 0)
(3 -2.22782e-16 0)
(3 -1.19936e-15 0)
(3 -1.31544e-15 0)
(3 -1.00149e-15 0)
(3 -3.3115e-16 0)
(3 -2.24798e-16 0)
(1.17288 0.0674121 0)
(0.741449 0.055612 0)
(0.706428 0.0555925 0)
(0.676185 0.0616798 0)
(0.643409 0.0659626 0)
(0.610992 0.0687098 0)
(0.578752 0.0694441 0)
(0.547022 0.0683066 0)
(0.515717 0.0667253 0)
(0.484135 0.0679862 0)
(0.451505 0.0725743 0)
(0.417634 0.0773625 0)
(0.383553 0.0800206 0)
(0.349705 0.0810793 0)
(0.315251 0.0824427 0)
(0.280728 0.0845757 0)
(0.245454 0.086169 0)
(0.210519 0.0880421 0)
(0.174308 0.0903468 0)
(0.138285 0.0947945 0)
(0.10128 0.10084 0)
(0.0620672 0.105167 0)
(0.0219075 0.110911 0)
(3 -1.21525e-16 0)
(3 -2.67233e-16 0)
(3 -5.15545e-16 0)
(3 -5.24305e-16 0)
(3 -2.31165e-16 0)
(3 -1.0026e-17 0)
(3 3.35289e-16 0)
(3 1.07814e-15 0)
(3 1.42442e-15 0)
(3 1.14334e-15 0)
(3 2.17213e-16 0)
(3 -4.83055e-16 0)
(3 2.77182e-16 0)
(3 7.38444e-16 0)
(3 9.02377e-16 0)
(3 1.19305e-15 0)
(3 1.04247e-15 0)
(3 1.18252e-15 0)
(3 1.27137e-15 0)
(3 6.07804e-17 0)
(3 -4.17598e-16 0)
(3 -3.7462e-16 0)
(3 3.84399e-16 0)
(3 7.43358e-16 0)
(3 -1.0818e-15 0)
(1.22721 0.0943538 0)
(0.746421 0.0799886 0)
(0.708629 0.0790714 0)
(0.679286 0.0871967 0)
(0.646703 0.0928245 0)
(0.614616 0.0966939 0)
(0.582391 0.0979915 0)
(0.550419 0.0967856 0)
(0.518569 0.0950918 0)
(0.486134 0.0972984 0)
(0.452557 0.103806 0)
(0.417589 0.110164 0)
(0.382419 0.113376 0)
(0.347623 0.114519 0)
(0.312386 0.116277 0)
(0.277263 0.11909 0)
(0.241511 0.120986 0)
(0.206271 0.123201 0)
(0.169739 0.125766 0)
(0.134067 0.131154 0)
(0.0977956 0.13909 0)
(0.0596089 0.144929 0)
(0.0211893 0.152952 0)
(3 -4.30281e-16 0)
(3 -7.20091e-16 0)
(3 -7.59624e-16 0)
(3 -3.92294e-16 0)
(3 -3.37432e-16 0)
(3 -6.54337e-16 0)
(3 -5.27648e-16 0)
(3 -2.04785e-16 0)
(3 5.92037e-17 0)
(3 9.97588e-17 0)
(3 3.17516e-16 0)
(3 9.33125e-16 0)
(3 1.64479e-15 0)
(3 1.72164e-15 0)
(3 1.44044e-15 0)
(3 1.33656e-15 0)
(3 1.73839e-15 0)
(3 1.3957e-15 0)
(3 1.69167e-15 0)
(3 1.36063e-15 0)
(3 9.01082e-16 0)
(3 7.51672e-16 0)
(3 1.53347e-15 0)
(3 1.95603e-15 0)
(3 -1.55472e-15 0)
(1.30312 0.121524 0)
(0.752289 0.105651 0)
(0.709717 0.102843 0)
(0.681257 0.112651 0)
(0.648784 0.119516 0)
(0.616975 0.124575 0)
(0.584754 0.126655 0)
(0.552638 0.125651 0)
(0.520572 0.124037 0)
(0.488013 0.127223 0)
(0.45466 0.135535 0)
(0.420017 0.143262 0)
(0.38524 0.146905 0)
(0.350796 0.148232 0)
(0.315777 0.150635 0)
(0.28057 0.154429 0)
(0.24433 0.156871 0)
(0.208275 0.15955 0)
(0.170438 0.16223 0)
(0.133831 0.16791 0)
(0.0969475 0.177112 0)
(0.0585514 0.183904 0)
(0.0208983 0.193723 0)
(3 -1.324e-16 0)
(3 -1.16529e-16 0)
(3 -9.25666e-17 0)
(3 1.95593e-16 0)
(3 3.35796e-16 0)
(3 3.21866e-17 0)
(3 -1.25366e-16 0)
(3 3.92648e-17 0)
(3 3.07834e-16 0)
(3 -2.92694e-16 0)
(3 5.19139e-17 0)
(3 1.33426e-15 0)
(3 1.79526e-15 0)
(3 1.94673e-15 0)
(3 2.37148e-15 0)
(3 2.28737e-15 0)
(3 2.3436e-15 0)
(3 2.01267e-15 0)
(3 1.02692e-15 0)
(3 1.35763e-15 0)
(3 1.56684e-15 0)
(3 7.81666e-16 0)
(3 7.72866e-17 0)
(3 -2.013e-16 0)
(3 -2.73858e-15 0)
(1.40661 0.149436 0)
(0.760434 0.1335 0)
(0.710671 0.127211 0)
(0.682752 0.138018 0)
(0.650401 0.146066 0)
(0.618874 0.152332 0)
(0.586829 0.155367 0)
(0.554931 0.154787 0)
(0.523289 0.153292 0)
(0.491593 0.157218 0)
(0.459805 0.166895 0)
(0.426906 0.175519 0)
(0.393729 0.179346 0)
(0.360281 0.181048 0)
(0.325576 0.184611 0)
(0.28998 0.190082 0)
(0.252704 0.193769 0)
(0.21515 0.197416 0)
(0.17523 0.200415 0)
(0.136768 0.20598 0)
(0.0982835 0.215981 0)
(0.0587525 0.223196 0)
(0.0209259 0.234294 0)
(3 4.37773e-16 0)
(3 2.38607e-16 0)
(3 1.42535e-16 0)
(3 1.03324e-16 0)
(3 1.00331e-16 0)
(3 -1.07666e-16 0)
(3 3.34348e-16 0)
(3 7.52765e-16 0)
(3 7.98916e-16 0)
(3 6.95138e-16 0)
(3 1.37163e-15 0)
(3 1.01665e-15 0)
(3 3.52644e-16 0)
(3 1.06678e-16 0)
(3 9.57509e-16 0)
(3 1.62831e-15 0)
(3 1.31359e-15 0)
(3 1.46873e-15 0)
(3 9.68017e-16 0)
(3 5.03834e-16 0)
(3 5.64906e-16 0)
(3 1.7665e-16 0)
(3 -6.33357e-16 0)
(3 -6.69859e-16 0)
(3 -2.18292e-15 0)
(1.54548 0.177423 0)
(0.773533 0.163645 0)
(0.714137 0.152587 0)
(0.686265 0.163322 0)
(0.654452 0.172385 0)
(0.623712 0.179625 0)
(0.592582 0.18346 0)
(0.561667 0.1832 0)
(0.531137 0.181482 0)
(0.500832 0.185516 0)
(0.470944 0.195888 0)
(0.439735 0.205178 0)
(0.40751 0.2097 0)
(0.373931 0.213038 0)
(0.338108 0.219217 0)
(0.300573 0.227556 0)
(0.260947 0.233144 0)
(0.221378 0.237797 0)
(0.179464 0.240884 0)
(0.139622 0.245758 0)
(0.0998938 0.256124 0)
(0.0593072 0.263291 0)
(0.0211632 0.275308 0)
(3 1.03621e-16 0)
(3 3.90452e-16 0)
(3 7.48637e-16 0)
(3 6.90006e-16 0)
(3 -1.33349e-16 0)
(3 -1.78979e-16 0)
(3 5.79546e-16 0)
(3 3.4911e-16 0)
(3 3.28142e-16 0)
(3 1.17424e-15 0)
(3 1.29866e-15 0)
(3 6.63945e-16 0)
(3 -1.27253e-16 0)
(3 -1.08147e-16 0)
(3 4.81464e-16 0)
(3 1.15905e-15 0)
(3 1.14269e-15 0)
(3 9.8616e-16 0)
(3 8.07531e-16 0)
(3 2.73854e-16 0)
(3 1.63816e-16 0)
(3 2.36698e-16 0)
(3 6.59661e-17 0)
(3 -3.08656e-16 0)
(3 -7.35099e-16 0)
(1.72688 0.201009 0)
(0.794216 0.1945 0)
(0.720193 0.178941 0)
(0.691651 0.188417 0)
(0.661215 0.197968 0)
(0.631722 0.205867 0)
(0.601223 0.210623 0)
(0.570042 0.211253 0)
(0.538553 0.20988 0)
(0.507048 0.214313 0)
(0.476238 0.225699 0)
(0.444211 0.236232 0)
(0.411164 0.242034 0)
(0.37688 0.247346 0)
(0.34085 0.256194 0)
(0.303561 0.2672 0)
(0.264374 0.274427 0)
(0.225189 0.279732 0)
(0.183308 0.282776 0)
(0.143007 0.286882 0)
(0.102391 0.297533 0)
(0.0606676 0.304472 0)
(0.0215522 0.317166 0)
(3 -1.19923e-16 0)
(3 -3.3324e-16 0)
(3 -1.03096e-16 0)
(3 -1.82246e-16 0)
(3 -4.10067e-17 0)
(3 2.85227e-16 0)
(3 1.00358e-16 0)
(3 -3.88009e-16 0)
(3 -6.05791e-16 0)
(3 -5.46575e-17 0)
(3 -2.592e-16 0)
(3 -2.05705e-16 0)
(3 4.88799e-16 0)
(3 6.84058e-16 0)
(3 5.58146e-16 0)
(3 4.62236e-16 0)
(3 1.01412e-16 0)
(3 -5.23854e-16 0)
(3 -3.76638e-16 0)
(3 2.04605e-16 0)
(3 3.13477e-16 0)
(3 3.36352e-16 0)
(3 -8.08658e-17 0)
(3 -1.90247e-15 0)
(3 -2.64663e-15 0)
(1.94439 0.21752 0)
(0.817381 0.229087 0)
(0.718903 0.20962 0)
(0.686611 0.214243 0)
(0.656995 0.223252 0)
(0.629121 0.232207 0)
(0.599843 0.238581 0)
(0.569175 0.240685 0)
(0.537873 0.239812 0)
(0.50672 0.244252 0)
(0.476966 0.256082 0)
(0.446378 0.26741 0)
(0.414643 0.274047 0)
(0.381516 0.280906 0)
(0.346641 0.292104 0)
(0.310345 0.305726 0)
(0.27195 0.315024 0)
(0.2335 0.321497 0)
(0.191966 0.325162 0)
(0.151237 0.329289 0)
(0.109252 0.340776 0)
(0.0651413 0.347823 0)
(0.0232711 0.361342 0)
(3 -1.98077e-16 0)
(3 -1.26059e-16 0)
(3 -2.92523e-16 0)
(3 -4.83858e-16 0)
(3 2.44129e-16 0)
(3 3.87908e-16 0)
(3 -1.44333e-16 0)
(3 -3.12093e-16 0)
(3 -2.83676e-16 0)
(3 -8.60317e-16 0)
(3 -9.41691e-16 0)
(3 -3.82913e-16 0)
(3 -8.39658e-17 0)
(3 6.23667e-17 0)
(3 -5.76821e-16 0)
(3 -8.36653e-16 0)
(3 -5.89954e-16 0)
(3 -3.99122e-16 0)
(3 -1.50031e-16 0)
(3 -1.21991e-16 0)
(3 -3.9296e-17 0)
(3 1.83078e-16 0)
(3 -1.28045e-15 0)
(3 -1.47717e-15 0)
(3 -2.54924e-15 0)
(2.192 0.231156 0)
(0.844289 0.272312 0)
(0.722664 0.243279 0)
(0.69557 0.243478 0)
(0.668115 0.249967 0)
(0.641616 0.259448 0)
(0.612329 0.26741 0)
(0.580857 0.271169 0)
(0.548605 0.270784 0)
(0.516768 0.274817 0)
(0.486956 0.286626 0)
(0.45677 0.298677 0)
(0.425286 0.30627 0)
(0.392433 0.314613 0)
(0.35819 0.327981 0)
(0.322699 0.343985 0)
(0.285165 0.35534 0)
(0.247443 0.363174 0)
(0.206109 0.36837 0)
(0.164377 0.37381 0)
(0.120174 0.387286 0)
(0.0723541 0.395472 0)
(0.0258054 0.410301 0)
(3 3.01473e-16 0)
(3 6.45108e-16 0)
(3 4.53017e-16 0)
(3 7.53027e-16 0)
(3 9.19624e-16 0)
(3 4.6571e-16 0)
(3 -1.06711e-16 0)
(3 -4.09745e-16 0)
(3 -6.04324e-16 0)
(3 -8.13797e-16 0)
(3 -7.16076e-16 0)
(3 -8.10482e-16 0)
(3 -1.29236e-15 0)
(3 -1.3918e-15 0)
(3 -1.193e-15 0)
(3 -4.53219e-16 0)
(3 5.56381e-17 0)
(3 5.02323e-16 0)
(3 2.89105e-16 0)
(3 -2.24334e-16 0)
(3 -5.21083e-16 0)
(3 -6.27479e-16 0)
(3 -5.13471e-16 0)
(3 2.6926e-16 0)
(3 6.77263e-16 0)
(2.49512 0.243089 0)
(0.904881 0.317872 0)
(0.75512 0.265125 0)
(0.731719 0.265453 0)
(0.702938 0.272132 0)
(0.674888 0.284207 0)
(0.643151 0.295167 0)
(0.609225 0.301125 0)
(0.574735 0.301431 0)
(0.540907 0.304987 0)
(0.509576 0.316778 0)
(0.478482 0.329931 0)
(0.446035 0.338911 0)
(0.412482 0.348574 0)
(0.378252 0.363611 0)
(0.343121 0.381469 0)
(0.306155 0.394821 0)
(0.268587 0.404309 0)
(0.227573 0.41202 0)
(0.18383 0.420488 0)
(0.136232 0.438012 0)
(0.0826273 0.449408 0)
(0.0296282 0.466447 0)
(3 -1.41079e-16 0)
(3 -1.50097e-16 0)
(3 6.41245e-19 0)
(3 3.09857e-16 0)
(3 4.47889e-16 0)
(3 2.23216e-16 0)
(3 8.97073e-18 0)
(3 -4.81706e-16 0)
(3 -4.2986e-16 0)
(3 -6.08825e-16 0)
(3 -5.03734e-16 0)
(3 -9.03989e-16 0)
(3 -1.52162e-15 0)
(3 -1.33017e-15 0)
(3 -3.77647e-16 0)
(3 6.16884e-16 0)
(3 1.37828e-15 0)
(3 1.0513e-15 0)
(3 4.94146e-16 0)
(3 5.2873e-17 0)
(3 -5.2827e-16 0)
(3 -9.74718e-16 0)
(3 -1.71383e-16 0)
(3 3.55797e-16 0)
(3 4.07896e-16 0)
(2.86024 0.16499 0)
(1.01261 0.338219 0)
(0.800833 0.279112 0)
(0.78039 0.283942 0)
(0.747386 0.294822 0)
(0.716283 0.30997 0)
(0.682195 0.324094 0)
(0.646436 0.332574 0)
(0.610472 0.333935 0)
(0.575171 0.336894 0)
(0.54231 0.348296 0)
(0.510086 0.362535 0)
(0.476224 0.373209 0)
(0.441289 0.383944 0)
(0.406269 0.400166 0)
(0.370802 0.419551 0)
(0.333487 0.435179 0)
(0.294317 0.447082 0)
(0.251057 0.459847 0)
(0.202597 0.473891 0)
(0.150245 0.497009 0)
(0.0913004 0.512876 0)
(0.0313135 0.531137 0)
(3 -1.84156e-16 0)
(3 -2.08911e-16 0)
(3 -4.86451e-18 0)
(3 -7.94769e-16 0)
(3 -8.08041e-16 0)
(3 -9.64745e-16 0)
(3 -9.01517e-16 0)
(3 -1.11917e-15 0)
(3 -5.94706e-16 0)
(3 -2.4019e-17 0)
(3 1.0021e-16 0)
(3 4.72423e-16 0)
(3 -6.13341e-17 0)
(3 -8.91219e-16 0)
(3 -7.08683e-16 0)
(3 -1.27558e-16 0)
(3 2.89212e-16 0)
(3 2.70244e-16 0)
(3 -6.48993e-17 0)
(3 -5.23019e-16 0)
(3 -8.8601e-16 0)
(3 -4.80878e-16 0)
(3 -3.80281e-16 0)
(3 -3.65343e-16 0)
(3 -7.13093e-17 0)
(3.02742 0.0218586 0)
(1.13383 0.333079 0)
(0.813472 0.293782 0)
(0.799024 0.316557 0)
(0.767425 0.329051 0)
(0.737983 0.342765 0)
(0.708925 0.355389 0)
(0.67855 0.362703 0)
(0.646406 0.364297 0)
(0.612983 0.367485 0)
(0.580635 0.379309 0)
(0.548641 0.395443 0)
(0.514303 0.40873 0)
(0.478316 0.420709 0)
(0.442343 0.43793 0)
(0.406201 0.45869 0)
(0.368191 0.477465 0)
(0.326393 0.493275 0)
(0.282974 0.511515 0)
(0.232947 0.530804 0)
(0.178285 0.560091 0)
(0.111515 0.584805 0)
(0.0402201 0.607934 0)
(3 1.1787e-16 0)
(3 2.49728e-16 0)
(3 -2.52721e-17 0)
(3 -1.21675e-15 0)
(3 -2.11441e-15 0)
(3 -2.03462e-15 0)
(3 -1.83915e-15 0)
(3 -1.30012e-15 0)
(3 -5.25261e-16 0)
(3 9.40434e-17 0)
(3 7.62046e-16 0)
(3 9.63045e-16 0)
(3 9.34664e-16 0)
(3 3.00137e-16 0)
(3 5.26202e-18 0)
(3 -7.04514e-16 0)
(3 -1.03604e-15 0)
(3 -1.51155e-15 0)
(3 -1.19552e-15 0)
(3 -8.50393e-16 0)
(3 -1.10241e-15 0)
(3 -8.37646e-16 0)
(3 -7.15052e-16 0)
(3 -1.9531e-16 0)
(3 8.78448e-17 0)
(3.0028 0.000434142 0)
(1.27094 0.3342 0)
(0.801521 0.312258 0)
(0.780359 0.34148 0)
(0.752709 0.357599 0)
(0.727625 0.370415 0)
(0.706032 0.382545 0)
(0.685256 0.390536 0)
(0.663207 0.393371 0)
(0.638187 0.397214 0)
(0.611745 0.409264 0)
(0.584115 0.427281 0)
(0.552761 0.444065 0)
(0.518132 0.458521 0)
(0.482783 0.477372 0)
(0.446786 0.500155 0)
(0.408902 0.522638 0)
(0.367103 0.541929 0)
(0.322613 0.565958 0)
(0.267937 0.595472 0)
(0.20413 0.63731 0)
(0.129373 0.679303 0)
(0.0403056 0.707589 0)
(3 -4.62793e-17 0)
(3 -1.84273e-16 0)
(3 -4.84217e-16 0)
(3 -1.49664e-16 0)
(3 -3.57721e-16 0)
(3 -3.05253e-16 0)
(3 -4.39033e-16 0)
(3 -1.86085e-16 0)
(3 -3.44314e-16 0)
(3 -4.65441e-16 0)
(3 -4.21042e-16 0)
(3 -3.75585e-16 0)
(3 1.96121e-16 0)
(3 1.17171e-15 0)
(3 5.36715e-16 0)
(3 -6.75042e-16 0)
(3 -1.63706e-15 0)
(3 -2.03993e-15 0)
(3 -2.23501e-15 0)
(3 -1.77352e-15 0)
(3 -1.78367e-15 0)
(3 -1.81277e-15 0)
(3 -1.48654e-15 0)
(3 -8.95976e-16 0)
(3 -7.39946e-16 0)
(3.00001 -1.51022e-07 0)
(1.5168 0.363669 0)
(0.807817 0.346023 0)
(0.749478 0.355241 0)
(0.728682 0.370883 0)
(0.70914 0.383294 0)
(0.693925 0.395419 0)
(0.678595 0.405399 0)
(0.661815 0.412782 0)
(0.642702 0.42096 0)
(0.623076 0.435739 0)
(0.603433 0.456407 0)
(0.579793 0.476981 0)
(0.551813 0.495076 0)
(0.52153 0.51627 0)
(0.489332 0.541188 0)
(0.454733 0.567749 0)
(0.414259 0.593111 0)
(0.368884 0.626567 0)
(0.317479 0.669874 0)
(0.257883 0.722486 0)
(0.185957 0.780247 0)
(0.0719476 0.830367 0)
(3 -1.44114e-16 0)
(3 -1.45887e-16 0)
(3 2.7551e-16 0)
(3 8.18737e-16 0)
(3 1.10733e-15 0)
(3 9.26798e-16 0)
(3 8.67573e-16 0)
(3 3.12954e-16 0)
(3 -5.99173e-16 0)
(3 -1.38606e-15 0)
(3 -1.98982e-15 0)
(3 -1.5231e-15 0)
(3 -4.35096e-16 0)
(3 1.69867e-17 0)
(3 -3.33481e-16 0)
(3 -4.75522e-16 0)
(3 -6.48962e-16 0)
(3 -9.3954e-16 0)
(3 -1.51525e-15 0)
(3 -1.55279e-15 0)
(3 -1.6307e-15 0)
(3 -1.93455e-15 0)
(3 -1.59076e-15 0)
(3 -5.26111e-16 0)
(3 1.18451e-16 0)
(3 -3.81574e-08 0)
(1.89849 0.403176 0)
(0.842881 0.414476 0)
(0.749578 0.386896 0)
(0.728041 0.39162 0)
(0.710696 0.402178 0)
(0.695399 0.413241 0)
(0.679922 0.423115 0)
(0.66292 0.431137 0)
(0.644676 0.440302 0)
(0.626898 0.455758 0)
(0.611528 0.478311 0)
(0.594807 0.503128 0)
(0.575254 0.526199 0)
(0.552974 0.551267 0)
(0.527378 0.580185 0)
(0.499285 0.612791 0)
(0.464597 0.646061 0)
(0.426388 0.68689 0)
(0.382985 0.738552 0)
(0.325848 0.815368 0)
(0.226848 0.930133 0)
(0.121928 1.05953 0)
(3 -9.04548e-17 0)
(3 1.65416e-16 0)
(3 3.08526e-16 0)
(3 5.43838e-16 0)
(3 5.88796e-16 0)
(3 4.2768e-16 0)
(3 8.45325e-16 0)
(3 1.39841e-16 0)
(3 -1.1085e-15 0)
(3 -1.11916e-15 0)
(3 -1.19834e-15 0)
(3 -1.36818e-15 0)
(3 -1.46121e-15 0)
(3 -1.4669e-15 0)
(3 -9.62843e-16 0)
(3 -9.60422e-16 0)
(3 -9.63599e-16 0)
(3 -8.7408e-16 0)
(3 -7.83605e-16 0)
(3 -1.25146e-16 0)
(3 1.7511e-16 0)
(3 -8.54348e-17 0)
(3 3.43988e-16 0)
(3 7.36823e-16 0)
(3 5.31872e-16 0)
(3 -1.80507e-08 0)
(2.478 0.36973 0)
(0.946033 0.475462 0)
(0.811718 0.407868 0)
(0.775599 0.408243 0)
(0.744728 0.419164 0)
(0.719831 0.430565 0)
(0.698516 0.442373 0)
(0.677136 0.452575 0)
(0.655891 0.462158 0)
(0.636636 0.47666 0)
(0.620668 0.49846 0)
(0.607843 0.52479 0)
(0.594034 0.551508 0)
(0.578512 0.580626 0)
(0.561238 0.614041 0)
(0.542316 0.652638 0)
(0.517404 0.693379 0)
(0.489125 0.742648 0)
(0.453906 0.813507 0)
(0.421729 0.935926 0)
(0.406571 1.09565 0)
(0.509548 1.35449 0)
(3 1.8969e-16 0)
(3 -1.11827e-16 0)
(3 -3.04327e-16 0)
(3 -4.57325e-18 0)
(3 2.84974e-17 0)
(3 2.36447e-16 0)
(3 6.77176e-17 0)
(3 2.08202e-16 0)
(3 3.13965e-16 0)
(3 5.37158e-16 0)
(3 1.12616e-15 0)
(3 3.07632e-16 0)
(3 -4.84179e-16 0)
(3 -6.17853e-16 0)
(3 -1.14259e-15 0)
(3 -1.33228e-15 0)
(3 -1.42262e-15 0)
(3 -1.33969e-15 0)
(3 -7.1386e-16 0)
(3 1.66879e-16 0)
(3 4.53067e-16 0)
(3 1.18174e-15 0)
(3 1.42595e-15 0)
(3 2.76377e-16 0)
(3 -5.51902e-16 0)
(3 -2.36493e-09 0)
(3.03454 0.0936855 0)
(1.16204 0.464174 0)
(0.880659 0.443827 0)
(0.84512 0.444411 0)
(0.802258 0.450341 0)
(0.76385 0.456532 0)
(0.733602 0.465698 0)
(0.706709 0.475528 0)
(0.681164 0.484425 0)
(0.6583 0.497217 0)
(0.640229 0.517459 0)
(0.626957 0.543795 0)
(0.61517 0.572696 0)
(0.604159 0.60495 0)
(0.593124 0.642334 0)
(0.583004 0.686325 0)
(0.570148 0.735216 0)
(0.5555 0.794815 0)
(0.545678 0.88105 0)
(0.550346 1.00888 0)
(0.627112 1.1605 0)
(0.920024 1.35618 0)
(3 3.88867e-16 0)
(3 1.61621e-16 0)
(3 3.54741e-17 0)
(3 -2.50464e-16 0)
(3 -1.69858e-16 0)
(3 8.36114e-17 0)
(3 2.0665e-17 0)
(3 -1.3912e-18 0)
(3 5.25578e-16 0)
(3 7.70517e-16 0)
(3 1.01686e-15 0)
(3 1.1913e-15 0)
(3 1.00336e-15 0)
(3 4.36411e-16 0)
(3 -3.50673e-16 0)
(3 -1.06954e-15 0)
(3 -1.14237e-15 0)
(3 -7.05796e-16 0)
(3 -3.01325e-16 0)
(3 1.67393e-16 0)
(3 4.63405e-16 0)
(3 6.68181e-16 0)
(3 1.01356e-15 0)
(3 -4.59103e-16 0)
(3 -1.25546e-15 0)
(3 -8.34648e-11 0)
(3.02105 0.00245295 0)
(1.3294 0.439681 0)
(0.882027 0.485269 0)
(0.846864 0.492753 0)
(0.818665 0.490974 0)
(0.789955 0.490305 0)
(0.763191 0.49614 0)
(0.736612 0.505911 0)
(0.710111 0.514024 0)
(0.685575 0.523875 0)
(0.665703 0.540971 0)
(0.650958 0.565376 0)
(0.639944 0.594237 0)
(0.631971 0.627581 0)
(0.62613 0.66666 0)
(0.623655 0.713303 0)
(0.623694 0.767404 0)
(0.625839 0.832779 0)
(0.641543 0.921722 0)
(0.684066 1.03621 0)
(0.824218 1.17026 0)
(1.15318 1.29223 0)
(3 -5.42067e-17 0)
(3 -2.23276e-16 0)
(3 -4.18784e-16 0)
(3 -8.98117e-16 0)
(3 -9.63264e-16 0)
(3 -5.12256e-16 0)
(3 -4.19124e-16 0)
(3 3.1012e-17 0)
(3 3.01827e-16 0)
(3 -2.39221e-17 0)
(3 -3.55408e-16 0)
(3 -3.87872e-16 0)
(3 -3.89322e-16 0)
(3 -7.63556e-17 0)
(3 -2.17571e-16 0)
(3 -5.19381e-16 0)
(3 -7.4835e-16 0)
(3 -2.62798e-16 0)
(3 -1.70082e-16 0)
(3 -2.02232e-16 0)
(3 -1.44048e-16 0)
(3 -5.92546e-16 0)
(3 -1.45535e-15 0)
(3 -2.0978e-15 0)
(3 -5.9774e-16 0)
(3 -6.45419e-13 0)
(3.00028 -6.61775e-06 0)
(1.64942 0.456824 0)
(0.86691 0.506241 0)
(0.828838 0.504678 0)
(0.818612 0.509928 0)
(0.803517 0.514137 0)
(0.785862 0.521468 0)
(0.766084 0.532126 0)
(0.743858 0.540984 0)
(0.720952 0.549168 0)
(0.700586 0.563446 0)
(0.684446 0.585795 0)
(0.672716 0.61379 0)
(0.665758 0.647216 0)
(0.663055 0.686837 0)
(0.666264 0.734274 0)
(0.676358 0.790353 0)
(0.695811 0.856855 0)
(0.730777 0.942245 0)
(0.807278 1.04538 0)
(0.970471 1.15018 0)
(1.25484 1.22242 0)
(3 -2.02896e-16 0)
(3 -2.91005e-16 0)
(3 -4.22199e-16 0)
(3 -5.27988e-16 0)
(3 -4.25114e-16 0)
(3 -4.0452e-16 0)
(3 1.29711e-17 0)
(3 5.38124e-16 0)
(3 2.05863e-16 0)
(3 -2.32403e-16 0)
(3 -3.47753e-16 0)
(3 -5.48688e-16 0)
(3 -1.06394e-15 0)
(3 -1.25248e-15 0)
(3 -7.14689e-16 0)
(3 4.17518e-16 0)
(3 2.56298e-16 0)
(3 4.52395e-16 0)
(3 1.16399e-15 0)
(3 1.4395e-15 0)
(3 1.7393e-15 0)
(3 7.10509e-16 0)
(3 -1.11182e-15 0)
(3 -1.88223e-15 0)
(3 -9.94962e-16 0)
(3 -1.28177e-15 0)
(3.00001 -5.01541e-06 0)
(2.2647 0.454347 0)
(0.947118 0.560064 0)
(0.852875 0.510879 0)
(0.841431 0.515673 0)
(0.829458 0.526298 0)
(0.813853 0.539829 0)
(0.796477 0.55545 0)
(0.777145 0.568472 0)
(0.75659 0.578469 0)
(0.737383 0.591466 0)
(0.722046 0.611747 0)
(0.710534 0.637428 0)
(0.704588 0.668707 0)
(0.704227 0.706135 0)
(0.711814 0.750967 0)
(0.728448 0.804185 0)
(0.759939 0.866392 0)
(0.809556 0.943301 0)
(0.905278 1.03346 0)
(1.06873 1.11154 0)
(1.30663 1.15551 0)
(3 -8.50024e-17 0)
(3 3.56923e-16 0)
(3 7.06766e-16 0)
(3 2.59221e-16 0)
(3 7.13995e-16 0)
(3 6.90443e-16 0)
(3 6.43117e-16 0)
(3 2.78113e-16 0)
(3 -2.03418e-16 0)
(3 -1.6848e-16 0)
(3 -3.11209e-16 0)
(3 -3.43779e-16 0)
(3 -7.44681e-16 0)
(3 -7.38042e-16 0)
(3 4.67761e-16 0)
(3 1.13229e-15 0)
(3 1.63605e-15 0)
(3 1.81441e-15 0)
(3 2.08585e-15 0)
(3 2.38382e-15 0)
(3 1.68527e-15 0)
(3 7.23749e-16 0)
(3 3.50944e-18 0)
(3 -1.07846e-15 0)
(3 -1.15282e-15 0)
(3 -1.01282e-15 0)
(3 -1.0287e-06 0)
(2.98964 0.160165 0)
(1.16871 0.560269 0)
(0.916425 0.529475 0)
(0.887501 0.533571 0)
(0.866407 0.544948 0)
(0.848036 0.559183 0)
(0.830895 0.576016 0)
(0.812971 0.591223 0)
(0.794555 0.602881 0)
(0.777162 0.61515 0)
(0.763672 0.634267 0)
(0.753768 0.658585 0)
(0.749014 0.688102 0)
(0.75016 0.723374 0)
(0.760643 0.765492 0)
(0.781703 0.814697 0)
(0.819805 0.870557 0)
(0.879237 0.936294 0)
(0.982909 1.01213 0)
(1.13297 1.06923 0)
(1.33481 1.09988 0)
(3 1.22947e-17 0)
(3 -2.33095e-16 0)
(3 -2.53277e-16 0)
(3 5.63644e-17 0)
(3 7.10802e-16 0)
(3 1.22492e-15 0)
(3 3.56679e-16 0)
(3 2.32264e-16 0)
(3 3.57451e-17 0)
(3 -2.86291e-17 0)
(3 -4.06251e-16 0)
(3 -2.94783e-16 0)
(3 2.83788e-16 0)
(3 3.77339e-16 0)
(3 4.06384e-16 0)
(3 1.24401e-15 0)
(3 2.78366e-15 0)
(3 2.61128e-15 0)
(3 1.1696e-15 0)
(3 5.18661e-16 0)
(3 -8.62818e-16 0)
(3 -1.03345e-15 0)
(3 -3.8384e-16 0)
(3 5.83685e-17 0)
(3 -1.39734e-15 0)
(3 -5.00532e-16 0)
(3 -8.90339e-08 0)
(3.0371 0.0056993 0)
(1.37886 0.535042 0)
(0.926062 0.581528 0)
(0.892544 0.567727 0)
(0.871611 0.572126 0)
(0.856905 0.58461 0)
(0.846402 0.60226 0)
(0.834563 0.618329 0)
(0.821956 0.630526 0)
(0.809576 0.641751 0)
(0.800763 0.659201 0)
(0.795726 0.681991 0)
(0.795003 0.709114 0)
(0.799061 0.740472 0)
(0.812148 0.777531 0)
(0.83589 0.820448 0)
(0.876188 0.868045 0)
(0.93854 0.921601 0)
(1.03869 0.982115 0)
(1.17403 1.02459 0)
(1.34291 1.04757 0)
(3 6.04433e-17 0)
(3 -6.42238e-17 0)
(3 -1.70064e-16 0)
(3 5.3439e-17 0)
(3 -2.66664e-17 0)
(3 -4.81491e-16 0)
(3 -3.43641e-16 0)
(3 -4.32208e-16 0)
(3 -2.04636e-16 0)
(3 -1.14131e-16 0)
(3 4.20144e-16 0)
(3 8.24078e-16 0)
(3 1.53839e-15 0)
(3 1.47769e-15 0)
(3 7.41522e-16 0)
(3 1.159e-15 0)
(3 1.60457e-15 0)
(3 1.24178e-15 0)
(3 7.14422e-16 0)
(3 -5.13788e-16 0)
(3 -2.14252e-15 0)
(3 -2.60377e-15 0)
(3 -1.32711e-15 0)
(3 -3.94977e-16 0)
(3 -9.53842e-16 0)
(3 -7.01291e-16 0)
(3 -2.33917e-09 0)
(3.00071 -8.12794e-06 0)
(1.83049 0.539065 0)
(0.947264 0.614369 0)
(0.897745 0.59013 0)
(0.88431 0.591462 0)
(0.873812 0.602094 0)
(0.868102 0.619807 0)
(0.860464 0.63705 0)
(0.851945 0.649942 0)
(0.843341 0.660521 0)
(0.837946 0.676657 0)
(0.837188 0.698713 0)
(0.841201 0.725379 0)
(0.84906 0.755059 0)
(0.864826 0.789011 0)
(0.890641 0.827441 0)
(0.93257 0.86835 0)
(0.994988 0.910773 0)
(1.08692 0.956243 0)
(1.20735 0.989079 0)
(1.34843 1.00655 0)
(3 9.71779e-17 0)
(3 8.08944e-16 0)
(3 8.95752e-16 0)
(3 6.12857e-16 0)
(3 2.77323e-16 0)
(3 -3.18443e-16 0)
(3 6.02521e-17 0)
(3 5.16924e-17 0)
(3 2.01135e-16 0)
(3 8.70729e-16 0)
(3 7.12042e-16 0)
(3 4.96993e-16 0)
(3 1.24405e-15 0)
(3 1.91018e-15 0)
(3 2.04584e-15 0)
(3 8.27433e-16 0)
(3 -8.16926e-16 0)
(3 -1.05924e-15 0)
(3 -1.87873e-16 0)
(3 -7.95069e-16 0)
(3 -1.52394e-15 0)
(3 -1.17124e-15 0)
(3 -1.80874e-16 0)
(3 -7.2567e-17 0)
(3 -5.43653e-18 0)
(3 -5.28935e-16 0)
(3 -7.74146e-12 0)
(3.00002 -6.25416e-06 0)
(2.63892 0.36875 0)
(1.08112 0.645307 0)
(0.943099 0.599925 0)
(0.922298 0.599455 0)
(0.905544 0.612742 0)
(0.898888 0.63282 0)
(0.891935 0.652315 0)
(0.884499 0.666992 0)
(0.877393 0.677823 0)
(0.873744 0.692819 0)
(0.875791 0.713524 0)
(0.88406 0.739196 0)
(0.897129 0.767253 0)
(0.915841 0.797564 0)
(0.943675 0.830773 0)
(0.986838 0.865142 0)
(1.04613 0.897717 0)
(1.12714 0.930704 0)
(1.23273 0.95606 0)
(1.34967 0.967415 0)
(3 -5.53746e-17 0)
(3 1.13664e-16 0)
(3 6.71264e-16 0)
(3 1.24607e-15 0)
(3 1.32354e-15 0)
(3 8.08349e-16 0)
(3 -3.20065e-16 0)
(3 -4.05059e-16 0)
(3 -7.83358e-16 0)
(3 -4.95966e-16 0)
(3 -1.00571e-15 0)
(3 -5.96755e-16 0)
(3 5.6518e-16 0)
(3 1.76804e-15 0)
(3 2.57289e-15 0)
(3 7.86317e-16 0)
(3 -1.20373e-15 0)
(3 -1.19378e-15 0)
(3 -6.39336e-16 0)
(3 6.42447e-17 0)
(3 8.41762e-16 0)
(3 1.04753e-15 0)
(3 1.51852e-16 0)
(3 -1.36462e-17 0)
(3 7.08239e-16 0)
(3 8.04501e-16 0)
(3 -3.73143e-15 0)
(3 -1.6581e-06 0)
(3.07597 0.0392988 0)
(1.36561 0.617417 0)
(0.996708 0.636808 0)
(0.970818 0.63321 0)
(0.943505 0.634897 0)
(0.929111 0.651573 0)
(0.920258 0.67158 0)
(0.91289 0.686983 0)
(0.908074 0.696365 0)
(0.907116 0.708523 0)
(0.91197 0.725897 0)
(0.922956 0.74893 0)
(0.94087 0.775972 0)
(0.962339 0.805137 0)
(0.993122 0.835539 0)
(1.03787 0.865674 0)
(1.09379 0.891737 0)
(1.1668 0.91607 0)
(1.25805 0.933936 0)
(1.35887 0.939712 0)
(3 -3.87372e-16 0)
(3 -5.6886e-16 0)
(3 -3.56184e-16 0)
(3 1.07337e-16 0)
(3 3.25472e-18 0)
(3 -3.40875e-16 0)
(3 -1.04454e-15 0)
(3 -1.60975e-15 0)
(3 -1.47139e-15 0)
(3 -1.59457e-15 0)
(3 -1.14352e-15 0)
(3 7.12689e-17 0)
(3 2.64874e-16 0)
(3 3.51398e-16 0)
(3 -1.20044e-16 0)
(3 1.42582e-16 0)
(3 2.76386e-16 0)
(3 1.05781e-16 0)
(3 -4.12752e-16 0)
(3 4.22622e-16 0)
(3 1.37761e-15 0)
(3 1.0783e-15 0)
(3 6.05332e-16 0)
(3 7.00082e-16 0)
(3 1.44872e-15 0)
(3 2.41553e-15 0)
(3 1.35813e-15 0)
(3 -1.69009e-07 0)
(3.00579 0.000166121 0)
(1.75981 0.59781 0)
(0.998975 0.681318 0)
(0.973844 0.660894 0)
(0.964319 0.664373 0)
(0.955685 0.675147 0)
(0.948666 0.690232 0)
(0.943066 0.702415 0)
(0.940565 0.709249 0)
(0.941333 0.719098 0)
(0.947342 0.734671 0)
(0.95939 0.755469 0)
(0.978968 0.781141 0)
(1.00266 0.808904 0)
(1.03605 0.836209 0)
(1.08095 0.862484 0)
(1.1339 0.884237 0)
(1.20142 0.90308 0)
(1.28068 0.914545 0)
(1.37029 0.915258 0)
(3 -4.99008e-17 0)
(3 -1.52652e-16 0)
(3 -7.57847e-16 0)
(3 -1.46359e-15 0)
(3 -1.42284e-15 0)
(3 -1.20567e-15 0)
(3 -1.1756e-15 0)
(3 -1.51044e-15 0)
(3 -7.72403e-16 0)
(3 -5.12963e-17 0)
(3 3.89155e-17 0)
(3 -7.70245e-18 0)
(3 -4.94648e-16 0)
(3 -7.61576e-16 0)
(3 -1.32008e-15 0)
(3 -5.45251e-16 0)
(3 4.99806e-16 0)
(3 4.21901e-16 0)
(3 -1.92601e-16 0)
(3 -6.05035e-17 0)
(3 -1.01228e-16 0)
(3 2.1415e-16 0)
(3 1.23439e-15 0)
(3 2.30348e-15 0)
(3 2.35792e-15 0)
(3 2.39127e-15 0)
(3 7.747e-16 0)
(3 -5.54581e-09 0)
(3.00002 -7.32643e-07 0)
(2.6269 0.391262 0)
(1.13113 0.696467 0)
(1.0071 0.660965 0)
(0.997537 0.672826 0)
(0.988571 0.688978 0)
(0.980695 0.704921 0)
(0.975117 0.716756 0)
(0.973194 0.723467 0)
(0.974873 0.731865 0)
(0.981122 0.745196 0)
(0.9941 0.763066 0)
(1.01273 0.786309 0)
(1.03818 0.812384 0)
(1.07323 0.837075 0)
(1.11669 0.860124 0)
(1.16735 0.878626 0)
(1.2306 0.893961 0)
(1.30168 0.901698 0)
(1.38363 0.90184 0)
(3 5.25305e-17 0)
(3 -7.4725e-17 0)
(3 -2.07507e-16 0)
(3 -7.08978e-16 0)
(3 -7.4133e-16 0)
(3 -8.3241e-16 0)
(3 -3.40376e-16 0)
(3 -3.59864e-16 0)
(3 -3.05034e-16 0)
(3 1.04345e-16 0)
(3 7.12003e-16 0)
(3 3.50417e-16 0)
(3 -2.20432e-17 0)
(3 -1.93816e-16 0)
(3 -2.92624e-16 0)
(3 -2.04345e-16 0)
(3 -1.75295e-16 0)
(3 1.67632e-16 0)
(3 2.7944e-16 0)
(3 7.3533e-16 0)
(3 7.14695e-16 0)
(3 7.30083e-16 0)
(3 5.64017e-16 0)
(3 8.4043e-16 0)
(3 1.16288e-15 0)
(3 5.1837e-16 0)
(3 3.71115e-16 0)
(3 -1.26485e-11 0)
(3 -9.03313e-07 0)
(3.07411 0.0383519 0)
(1.4269 0.664206 0)
(1.05454 0.702943 0)
(1.02665 0.699073 0)
(1.00995 0.71249 0)
(1.00303 0.72294 0)
(1.00063 0.731621 0)
(1.00242 0.736393 0)
(1.00692 0.741987 0)
(1.01405 0.752024 0)
(1.02729 0.768376 0)
(1.04438 0.78973 0)
(1.07022 0.813964 0)
(1.10453 0.835893 0)
(1.14515 0.855615 0)
(1.19392 0.871719 0)
(1.25238 0.884235 0)
(1.31833 0.889554 0)
(1.3936 0.889517 0)
(3 -4.87073e-17 0)
(3 -7.75259e-17 0)
(3 2.6718e-17 0)
(3 -1.45306e-16 0)
(3 -2.45848e-16 0)
(3 -5.30432e-19 0)
(3 5.27154e-16 0)
(3 9.86453e-16 0)
(3 5.94208e-16 0)
(3 4.95066e-16 0)
(3 3.8765e-16 0)
(3 7.0734e-16 0)
(3 8.71061e-16 0)
(3 4.0487e-16 0)
(3 -2.59299e-16 0)
(3 -3.26838e-16 0)
(3 -6.91974e-16 0)
(3 -3.40485e-16 0)
(3 6.93176e-18 0)
(3 7.68529e-17 0)
(3 4.54423e-16 0)
(3 5.50073e-16 0)
(3 2.67639e-16 0)
(3 -9.14668e-16 0)
(3 -1.14699e-15 0)
(3 -8.20316e-16 0)
(3 2.35115e-16 0)
(3 -1.26003e-14 0)
(3 -1.63432e-07 0)
(3.00509 0.000229149 0)
(1.98016 0.632333 0)
(1.07983 0.751817 0)
(1.04255 0.723208 0)
(1.03676 0.726293 0)
(1.03021 0.733618 0)
(1.02802 0.73975 0)
(1.03107 0.745047 0)
(1.0366 0.752542 0)
(1.04503 0.762035 0)
(1.05837 0.777764 0)
(1.07552 0.796361 0)
(1.09979 0.817027 0)
(1.13226 0.836193 0)
(1.17031 0.852554 0)
(1.21626 0.86541 0)
(1.26908 0.874469 0)
(1.33132 0.879132 0)
(1.40049 0.88042 0)
(3 1.78352e-16 0)
(3 -1.61036e-17 0)
(3 -1.26376e-16 0)
(3 -2.27383e-16 0)
(3 -2.35854e-16 0)
(3 3.46993e-17 0)
(3 5.20667e-16 0)
(3 1.19306e-15 0)
(3 1.17024e-15 0)
(3 6.75758e-16 0)
(3 8.02946e-16 0)
(3 2.52563e-16 0)
(3 3.13781e-16 0)
(3 4.802e-16 0)
(3 3.28206e-16 0)
(3 1.19834e-16 0)
(3 1.07774e-16 0)
(3 1.11116e-16 0)
(3 -5.08405e-16 0)
(3 -6.72094e-16 0)
(3 -6.00501e-16 0)
(3 -8.44449e-17 0)
(3 3.58615e-16 0)
(3 4.80943e-18 0)
(3 -5.28646e-16 0)
(3 -9.4181e-16 0)
(3 -6.31571e-16 0)
(3 5.11834e-16 0)
(3 -1.13426e-08 0)
(3.00002 1.14956e-07 0)
(2.95963 0.218404 0)