/*--------------------------------*- C++ -*----------------------------------*\
  =========                 |
  \\      /  F ield         | OpenFOAM: The Open Source CFD Toolbox
   \\    /   O peration     | Website:  https://openfoam.org
    \\  /    A nd           | Version:  7
     \\/     M anipulation  |
\*---------------------------------------------------------------------------*/
FoamFile
{
    version     2.0;
    format      ascii;
    class       volScalarField;
    location    "0.4";
    object      T;
}
// * * * * * * * * * * * * * * * * * * * * * * * * * * * * * * * * * * * * * //

dimensions      [0 0 0 1 0 0 0];

internalField   nonuniform List<scalar> 
4032
(
1
1
1
1
1
1
1
1
1
1
1
1
1
1
1
1.75926
2.74513
2.80596
2.86822
3.03348
3.25228
3.42749
3.5025
3.52073
1
1
1
1
1
1
1
1
1
1
1
1
1
1
1
1.73197
2.72595
2.79883
2.8696
3.0355
3.253
3.42471
3.49706
3.51426
1
1
1
1
1
1
1
1
1
1
1
1
1
1
1
1.64771
2.68082
2.78623
2.86411
3.03326
3.25023
3.41981
3.49017
3.50623
1
1
1
1
1
1
1
1
1
1
1
1
1
1
1
1.49806
2.59634
2.7692
2.85284
3.02374
3.23888
3.40851
3.47874
3.49308
1
1
1
1
1
1
1
1
1
1
1
1
1
1
1
1.24908
2.45926
2.74979
2.83924
3.00516
3.21083
3.37998
3.45551
3.47363
1
1
1
1
1
1
1
1
1
1
1
1
1
1
1
1.01456
2.29769
2.73272
2.826
2.97461
3.16435
3.33513
3.42191
3.43607
1
1
1
1
1
1
1
1
1
1
1
1
1
1
1
1.0001
2.10708
2.70465
2.81417
2.93039
3.08877
3.256
3.35869
3.38805
1
1
1
1
1
1
1
1
1
1
1
1
1
1
1
1
1.83727
2.64967
2.78781
2.86759
2.99035
3.15281
3.29242
3.37978
1
1
1
1
1
1
1
1
1
1
1
1
1
1
1
1
1.44013
2.53152
2.74026
2.78894
2.87993
3.01492
3.11228
3.08281
1
1
1
1
1
1
1
1
1
1
1
1
1
1
1
1
1.04101
2.34537
2.68471
2.70655
2.76831
2.8583
2.93324
2.86921
1
1
1
1
1
1
1
1
1
1
1
1
1
1
1
1
1.00039
1.98073
2.59443
2.6631
2.68468
2.72755
2.77395
2.69718
1
1
1
1
1
1
1
1
1
1
1
1
1
1
1
1
1
1.33382
2.40182
2.62532
2.61018
2.62583
2.63556
2.58041
1
1
1
1
1
1
1
1
1
1
1
1
1
1
1
1
1
1.01804
2.07556
2.53737
2.55354
2.55666
2.54225
2.4945
1
1
1
1
1
1
1
1
1
1
1
1
1
1
1
1
1
1.00006
1.38492
2.33091
2.53034
2.49994
2.47226
2.42295
1
1
1
1
1
1
1
1
1
1
1
1
1
1
1
1
1
1
1.02383
1.91481
2.41829
2.44778
2.41748
2.36824
1
1
1
1
1
1
1
1
1
1
1
1
1
1
1
1
1
1
1.00012
1.23922
2.1318
2.40433
2.36305
2.3061
1
1
1
1
1
1
1
1
1
1
1
1
1
1
1
1
1
1
1
1.00815
1.53704
2.20849
2.3316
2.26686
1
1
1
1
1
1
1
1
1
1
1
1
1
1
1
1
1
1
1
1.00003
1.05771
1.76049
2.18942
2.23622
1
1
1
1
1
1
1
1
1
1
1
1
1
1
1
1
1
1
1
1
1.00064
1.16971
1.84299
2.12022
1
1
1
1
1
1
1
1
1
1
1
1
1
1
1
1
1
1
1
1
1
1.00448
1.27254
1.83202
1
1
1
1
1
1
1
1
1
1
1
1
1
1
1
1
1
1
1
1
1
1.00002
1.01245
1.31098
1
1
1
1
1
1
1
1
1
1
1
1
1
1
1
1
1
1
1
1
1
1
1.00007
1.01845
1
1
1
1
1
1
1
1
1
1
1
1
1
1
1
1
1
1
1
1
1
1
1
1.00012
1
1
1
1
1
1
1
1
1
1
1
1
1
1
1
1
1
1
1
1
1
1
1
1
1
1
1
1
1
1
1
1
1
1
1
1
1
1
1
1
1
1
1
1
1
1
1
1
1
1
1
1
1
1
1
1
1
1
1
1
1
1
1
1
1
1
1
1
1
1
1
1
1
1
1
1
1
1
1
1
1
1
1
1
1
1
1
1
1
1
1
1
1
1
1
1
1
1
1
1
1
1
1
1
1
1
1
1
1
1
1
1
1
1
1
1
1
1
1
1
1
1
1
1
1
1
1
1
1
1
1
1
1
1
1
1
1
1
1
1
1
1
1
1
1
1
1
1
1
1
1
1
1
1
1
1
1
1
1
1
1
1
1
1
1
1
1
1
1
1
1
1
1
1
1
1
1
1
1
1
1
1
1
1
1
1
1
1
1
1
1
1
1
1
1
1
1
1
1
1
1
1
1
1
1
1
1
1
1
1
1
1
1
1
1
1
1
1
1
1
1
1
1
1
1
1
1
1
1
1
1
1
1
1
1
1
1
1
1
1
1
1
1
1
1
1
1
1
1
1
1
1
1
1
1
1
1
1
1
1
1
1
1
1
1
1
1
1
1
1
1
1
1
1
1
1
1
1
1
1
1
1
1
1
1
1
1
1
1
1
1
1
1
1
1
1
1
1
1
1
1
1
1
1
1
1
1
1
1
1
1
1
1
1
1
1
1
1
1
1
1
1
1
1
1
1
1
1
1
1
1
1
1
1
1
1
1
1
1
1
1
1
1
1
1
1
1
1
1
1
1
1
1
1
1
1
1
1
1
1
1
1
1
1
1
1
1
1
1
1
1
1
1
1
1
1
1
1
1
1
1
1
1
1
1
1
1
1
1
1
1
1
1
1
1
1
1
1
1
1
1
1
1
1
1
1
1
1
2.14063
1.47574
1.44589
1.53259
1.50573
1.56632
1.68408
1.78557
1.91944
2.0866
2.16278
2.14885
2.11147
2.06114
2.0082
1.96475
1.93812
1.93774
1.94507
1.95078
1.96732
1.96923
1.94398
1.88493
1.82449
1.76915
1.73192
1.72463
1.73226
1.73591
1.73671
1.73867
1.73828
1.73798
1.72719
1.7008
1.65987
1.60331
1.52849
1.43837
1.33754
1.22478
1.11084
1.03309
1.00522
0.995715
0.990493
0.988281
0.987748
0.987616
0.988443
0.9939
1.0045
1.01239
1.01394
1.01405
1.01409
1.01405
1.01354
1.01182
1.00809
1.00293
1.00028
1
1
1
1
1
1
1
1
1
1
1
1
1
1
1
1
1
1
1
1
1
1
1
1
1
1
1
1
1
1
1
1
1
2.4124
2.00886
1.94272
1.88747
1.74389
1.61638
1.61998
1.62026
1.64186
1.72004
1.79313
1.85054
1.87285
1.90034
1.90728
1.89542
1.87451
1.87042
1.86757
1.87254
1.89088
1.89676
1.88615
1.85337
1.80977
1.76252
1.72186
1.70147
1.69595
1.69164
1.69242
1.69589
1.70247
1.70066
1.68972
1.66642
1.62868
1.57229
1.49603
1.40458
1.30447
1.20059
1.10044
1.03054
1.00186
0.992162
0.9879
0.986516
0.986201
0.986172
0.987625
0.993756
1.00384
1.01192
1.01401
1.01411
1.01413
1.01408
1.01365
1.01211
1.0081
1.00267
1.00021
1
1
1
1
1
1
1
1
1
1
1
1
1
1
1
1
1
1
1
1
1
1
1
1
1
1
1
1
1
1
1
1
1
2.45672
2.23772
2.08051
1.97082
1.851
1.73554
1.67577
1.61148
1.54003
1.54033
1.56719
1.59458
1.65254
1.71755
1.76174
1.7722
1.77343
1.77162
1.76958
1.76733
1.76695
1.76527
1.75843
1.74376
1.72273
1.69394
1.66387
1.64473
1.62898
1.61502
1.61323
1.61533
1.62238
1.62115
1.61364
1.59776
1.569
1.51793
1.44027
1.34527
1.24662
1.15332
1.07572
1.02642
1.00277
0.992839
0.988531
0.987195
0.986835
0.987
0.98979
0.996777
1.00589
1.01251
1.01422
1.0144
1.01448
1.01442
1.01386
1.0119
1.00746
1.00209
1.00012
1
1
1
1
1
1
1
1
1
1
1
1
1
1
1
1
1
1
1
1
1
1
1
1
1
1
1
1
1
1
1
1
1
2.44193
2.30027
2.17638
2.06481
1.94453
1.83075
1.76934
1.7091
1.62793
1.56271
1.56149
1.55014
1.54524
1.56545
1.59523
1.62353
1.64718
1.65253
1.65438
1.65467
1.6543
1.65411
1.65187
1.64331
1.63105
1.61621
1.59714
1.57513
1.54787
1.52637
1.5213
1.52178
1.51925
1.51039
1.49584
1.47776
1.45227
1.40907
1.34265
1.26002
1.17491
1.10137
1.05106
1.01908
0.999167
0.990362
0.98676
0.985857
0.985685
0.986627
0.991477
0.999572
1.00798
1.01357
1.0149
1.01501
1.01507
1.01498
1.01426
1.01178
1.00646
1.00131
1.00004
1
1
1
1
1
1
1
1
1
1
1
1
1
1
1
1
1
1
1
1
1
1
1
1
1
1
1
1
1
1
1
1
1
2.40632
2.29754
2.18906
2.09775
2.00709
1.90892
1.8356
1.76902
1.69038
1.60813
1.58167
1.56162
1.51957
1.513
1.52815
1.54544
1.56278
1.56408
1.56189
1.55876
1.55581
1.55639
1.55891
1.55848
1.55743
1.55435
1.54017
1.51382
1.48455
1.45868
1.44581
1.43466
1.41983
1.40331
1.3856
1.36313
1.33195
1.29023
1.23761
1.17707
1.11907
1.07353
1.03669
1.00735
0.992267
0.985822
0.984456
0.984487
0.985436
0.988509
0.994323
1.00176
1.00952
1.01482
1.01596
1.01604
1.01608
1.01584
1.01457
1.01104
1.00479
1.00059
1.00001
1
1
1
1
1
1
1
1
1
1
1
1
1
1
1
1
1
1
1
1
1
1
1
1
1
1
1
1
1
1
1
1
1
2.35245
2.26917
2.18321
2.11033
2.03038
1.93896
1.8737
1.82599
1.76638
1.67141
1.62704
1.60427
1.56325
1.52445
1.52495
1.52625
1.51331
1.49075
1.48625
1.4856
1.48312
1.48049
1.48078
1.48085
1.48122
1.47792
1.46628
1.44685
1.42549
1.40225
1.3837
1.36563
1.34761
1.33149
1.31344
1.28591
1.24862
1.2097
1.17178
1.13393
1.09704
1.05575
1.01593
0.993492
0.983618
0.9811
0.981184
0.982015
0.985013
0.991096
0.997703
1.00392
1.01075
1.01608
1.01731
1.01745
1.01751
1.01714
1.01512
1.00969
1.00276
1.00016
1
1
1
1
1
1
1
1
1
1
1
1
1
1
1
1
1
1
1
1
1
1
1
1
1
1
1
1
1
1
1
1
1
1
2.30624
2.23772
2.15812
2.09579
2.03748
1.96945
1.89684
1.84701
1.79307
1.72434
1.67486
1.64121
1.59666
1.53529
1.51307
1.50216
1.47812
1.45417
1.44971
1.44828
1.44174
1.43123
1.41947
1.41572
1.41253
1.40491
1.39142
1.37497
1.35811
1.34133
1.32415
1.30571
1.28578
1.26478
1.24285
1.21754
1.18824
1.15846
1.12924
1.09973
1.06507
1.02712
0.998983
0.983314
0.976932
0.976406
0.976887
0.979414
0.985485
0.994175
1.00155
1.00711
1.0132
1.01798
1.01894
1.01908
1.01913
1.01845
1.01477
1.00705
1.00103
1.00002
1
1
1
1
1
1
1
1
1
1
1
1
1
1
1
1
1
1
1
1
1
1
1
1
1
1
1
1
1
1
1
1
1
1
2.25377
2.19981
2.13645
2.08168
2.03125
1.96684
1.90425
1.86046
1.81211
1.7396
1.6947
1.66604
1.63201
1.5773
1.53762
1.51834
1.48637
1.45416
1.43584
1.42653
1.41155
1.39469
1.3779
1.36396
1.35071
1.33405
1.3134
1.29618
1.28304
1.2708
1.25672
1.24016
1.21812
1.1903
1.16277
1.13882
1.11565
1.09295
1.07035
1.04883
1.02769
1.00664
0.989662
0.976797
0.971996
0.971861
0.973007
0.977571
0.985827
0.994767
1.00237
1.00993
1.01778
1.02135
1.02175
1.02189
1.02172
1.01945
1.01242
1.0034
1.00017
1
1
1
1
1
1
1
1
1
1
1
1
1
1
1
1
1
1
1
1
1
1
1
1
1
1
1
1
1
1
1
1
1
1
1
2.20719
2.16134
2.10537
2.05064
2.01671
1.97279
1.90912
1.85403
1.81119
1.76151
1.71441
1.67936
1.64263
1.59305
1.56376
1.53954
1.50137
1.45972
1.42291
1.40166
1.38373
1.36028
1.33874
1.32324
1.31038
1.28999
1.26604
1.24624
1.22935
1.21172
1.19465
1.1748
1.14922
1.11781
1.08829
1.06655
1.04913
1.03215
1.01994
1.00869
0.995547
0.983507
0.972879
0.965612
0.963897
0.964417
0.969688
0.980368
0.990416
0.996492
1.003
1.01296
1.02251
1.02499
1.02533
1.02547
1.0245
1.01842
1.00734
1.00074
1.00001
1
1
1
1
1
1
1
1
1
1
1
1
1
1
1
1
1
1
1
1
1
1
1
1
1
1
1
1
1
1
1
1
1
1
1
2.18863
2.13554
2.08485
2.02818
1.98422
1.95053
1.90848
1.86341
1.81031
1.74996
1.71657
1.69102
1.6593
1.60486
1.56926
1.54534
1.50787
1.46438
1.42893
1.40447
1.38861
1.35975
1.33167
1.3113
1.29115
1.26697
1.24281
1.21925
1.19611
1.17241
1.14735
1.11862
1.0874
1.05738
1.02977
1.00616
0.988943
0.980718
0.974914
0.968539
0.964671
0.962059
0.95947
0.957708
0.957657
0.960312
0.968353
0.979745
0.990909
1.00043
1.01039
1.02282
1.02954
1.03045
1.03074
1.03036
1.02474
1.0122
1.00185
1.00003
1
1
1
1
1
1
1
1
1
1
1
1
1
1
1
1
1
1
1
1
1
1
1
1
1
1
1
1
1
1
1
1
1
1
1
1
2.15989
2.12035
2.06443
2.00625
1.96401
1.9272
1.88638
1.85337
1.81412
1.75802
1.70643
1.68336
1.65671
1.61297
1.57811
1.54785
1.50702
1.45929
1.42187
1.40108
1.38988
1.36353
1.32825
1.30125
1.27374
1.24553
1.2202
1.19482
1.16822
1.14127
1.11224
1.08126
1.05249
1.02709
1.00252
0.980075
0.965323
0.955627
0.953136
0.953027
0.954215
0.956978
0.959624
0.961958
0.964827
0.968609
0.973893
0.981177
0.989924
1.00248
1.02059
1.03441
1.03736
1.0379
1.03783
1.03201
1.01744
1.00325
1.00008
1
1
1
1
1
1
1
1
1
1
1
1
1
1
1
1
1
1
1
1
1
1
1
1
1
1
1
1
1
1
1
1
1
1
1
1
1
2.04865
2.09171
2.05775
1.99872
1.94668
1.9025
1.85925
1.83278
1.80598
1.76013
1.70662
1.67645
1.64955
1.6077
1.5735
1.54271
1.5036
1.45733
1.41992
1.4014
1.38994
1.36413
1.32593
1.29559
1.26652
1.24112
1.21837
1.19181
1.16055
1.12685
1.09357
1.06598
1.04283
1.01866
0.991375
0.966396
0.951221
0.946358
0.945495
0.945945
0.948011
0.951786
0.956282
0.961367
0.967941
0.976254
0.984133
0.99205
1.00293
1.02102
1.04029
1.04667
1.04752
1.04741
1.04026
1.02241
1.00438
1.00012
1
1
1
1
1
1
1
1
1
1
1
1
1
1
1
1
1
1
1
1
1
1
1
1
1
1
1
1
1
1
1
1
1
1
1
1
1
1
1.7788
1.96782
2.02396
1.99527
1.94328
1.89352
1.84202
1.8014
1.7818
1.75125
1.70179
1.66315
1.63934
1.60429
1.56533
1.52938
1.4931
1.45085
1.41712
1.4017
1.38927
1.36196
1.3213
1.28666
1.25655
1.23341
1.21324
1.18723
1.15206
1.11564
1.08324
1.05886
1.03697
1.014
0.990149
0.968451
0.950778
0.946137
0.946706
0.948679
0.951858
0.955838
0.96053
0.965926
0.972002
0.979079
0.989476
1.0041
1.02464
1.04784
1.05863
1.05993
1.0591
1.04879
1.026
1.00473
1.00012
1
1
1
1
1
1
1
1
1
1
1
1
1
1
1
1
1
1
1
1
1
1
1
1
1
1
1
1
1
1
1
1
1
1
1
1
1
1
1
1.29572
1.69341
1.90225
1.94893
1.93557
1.89663
1.84385
1.79518
1.7557
1.72633
1.69257
1.65094
1.61907
1.58807
1.55123
1.51378
1.48036
1.444
1.41391
1.39881
1.38209
1.35376
1.31402
1.27738
1.24874
1.2283
1.20936
1.18099
1.14465
1.10929
1.081
1.06068
1.04162
1.02179
1.00249
0.987003
0.975283
0.97226
0.972702
0.974269
0.976752
0.980278
0.984951
0.990592
0.997161
1.00572
1.01848
1.03777
1.06044
1.07253
1.07418
1.071
1.05588
1.02733
1.0042
1.00008
1
1
1
1
1
1
1
1
1
1
1
1
1
1
1
1
1
1
1
1
1
1
1
1
1
1
1
1
1
1
1
1
1
1
1
1
1
1
1
1
1.01859
1.23252
1.59214
1.80909
1.87609
1.86799
1.84129
1.80007
1.7552
1.71499
1.6827
1.6466
1.60364
1.56181
1.5281
1.49839
1.46996
1.43213
1.40821
1.39382
1.36786
1.33711
1.30276
1.26746
1.241
1.22218
1.2034
1.17526
1.13922
1.1061
1.08312
1.06737
1.05151
1.03396
1.01839
1.00669
0.999815
0.997304
0.996748
0.996906
0.998441
1.00255
1.00905
1.01736
1.02776
1.04168
1.06025
1.07908
1.08745
1.08731
1.07979
1.05982
1.02574
1.00306
1.00004
1
1
1
1
1
1
1
1
1
1
1
1
1
1
1
1
1
1
1
1
1
1
1
1
1
1
1
1
1
1
1
1
1
1
1
1
1
1
1
1
1
1.00014
1.01113
1.16193
1.48319
1.69316
1.76684
1.79316
1.78895
1.76726
1.72859
1.68762
1.64585
1.60152
1.55294
1.51242
1.48707
1.46429
1.4256
1.39768
1.38187
1.35702
1.32158
1.28892
1.25957
1.23672
1.21828
1.19899
1.17086
1.13704
1.11017
1.094
1.08169
1.068
1.05448
1.04362
1.03745
1.03514
1.03471
1.03479
1.03565
1.03861
1.0442
1.05206
1.06208
1.07465
1.0886
1.09824
1.09982
1.09608
1.08431
1.05878
1.02076
1.00175
1.00002
1
1
1
1
1
1
1
1
1
1
1
1
1
1
1
1
1
1
1
1
1
1
1
1
1
1
1
1
1
1
1
1
1
1
1
1
1
1
1
1
1
1
1
1.00006
1.00592
1.08972
1.33508
1.536
1.66289
1.71902
1.72751
1.71431
1.68913
1.65566
1.6166
1.56879
1.52244
1.49129
1.46658
1.42968
1.39421
1.37382
1.35302
1.31803
1.2802
1.25698
1.23803
1.21957
1.19957
1.17219
1.14366
1.12635
1.11453
1.10386
1.09327
1.08347
1.07682
1.07451
1.07437
1.07469
1.07618
1.07963
1.08528
1.09261
1.10073
1.10794
1.11194
1.11195
1.10767
1.09936
1.08335
1.05009
1.01301
1.0007
1
1
1
1
1
1
1
1
1
1
1
1
1
1
1
1
1
1
1
1
1
1
1
1
1
1
1
1
1
1
1
1
1
1
1
1
1
1
1
1
1
1
1
1
1
1
1.00003
1.00184
1.03155
1.16937
1.38253
1.54113
1.62455
1.64743
1.64088
1.62999
1.61542
1.58853
1.55231
1.51912
1.48975
1.45489
1.41346
1.3828
1.35994
1.328
1.28916
1.26717
1.253
1.2362
1.21457
1.18761
1.16863
1.15806
1.14853
1.13931
1.1317
1.12637
1.12394
1.12349
1.12386
1.12498
1.12689
1.12913
1.13074
1.13099
1.12878
1.12413
1.1181
1.1109
1.09834
1.07256
1.03352
1.00558
1.00017
1
1
1
1
1
1
1
1
1
1
1
1
1
1
1
1
1
1
1
1
1
1
1
1
1
1
1
1
1
1
1
1
1
1
1
1
1
1
1
1
1
1
1
1
1
1
1
1
1
1.00028
1.00711
1.06241
1.22028
1.38268
1.49574
1.538
1.56059
1.56655
1.55928
1.5407
1.51894
1.49741
1.47469
1.44674
1.41429
1.38686
1.36086
1.32889
1.30537
1.29109
1.27498
1.25241
1.22861
1.21558
1.20681
1.19836
1.19035
1.18428
1.1802
1.1768
1.17324
1.16921
1.16437
1.1584
1.15146
1.14423
1.13689
1.12964
1.12123
1.10821
1.0854
1.05018
1.01523
1.0014
1.00002
1
1
1
1
1
1
1
1
1
1
1
1
1
1
1
1
1
1
1
1
1
1
1
1
1
1
1
1
1
1
1
1
1
1
1
1
1
1
1
1
1
1
1
1
1
1
1
1
1
1
1
1.00003
1.00107
1.01387
1.07168
1.19298
1.32166
1.40432
1.45991
1.48936
1.49105
1.48205
1.46866
1.4546
1.43747
1.41499
1.39184
1.3745
1.35641
1.33632
1.31971
1.30465
1.28734
1.27029
1.25727
1.24675
1.23715
1.22786
1.2187
1.20933
1.19977
1.19009
1.18028
1.17043
1.16081
1.15145
1.14142
1.12957
1.11346
1.08974
1.05693
1.0226
1.00382
1.00018
1
1
1
1
1
1
1
1
1
1
1
1
1
1
1
1
1
1
1
1
1
1
1
1
1
1
1
1
1
1
1
1
1
1
1
1
1
1
1
1
1
1
1
1
1
1
1
1
1
1
1
1
1
1
1
1.00008
1.00129
1.01114
1.05235
1.13187
1.2327
1.31607
1.36726
1.39261
1.40265
1.40382
1.40012
1.38961
1.37342
1.36079
1.34807
1.33156
1.31577
1.30214
1.28824
1.27448
1.26232
1.25183
1.24185
1.23166
1.22108
1.21032
1.19925
1.18769
1.17555
1.16246
1.14775
1.13035
1.10916
1.08275
1.05163
1.0223
1.00508
1.00044
1.00001
1
1
1
1
1
1
1
1
1
1
1
1
1
1
1
1
1
1
1
1
1
1
1
1
1
1
1
1
1
1
1
1
1
1
1
1
1
1
1
1
1
1
1
1
1
1
1
1
1
1
1
1
1
1
1
1
1
1
1.00006
1.00082
1.00545
1.0233
1.06408
1.12278
1.18561
1.23818
1.27612
1.29899
1.31149
1.316
1.31641
1.31362
1.30519
1.29258
1.28138
1.27183
1.26191
1.25166
1.24126
1.23014
1.21779
1.20406
1.18888
1.17225
1.15406
1.13379
1.11112
1.08609
1.05966
1.03426
1.01436
1.00367
1.00045
1.00002
1
1
1
1
1
1
1
1
1
1
1
1
1
1
1
1
1
1
1
1
1
1
1
1
1
1
1
1
1
1
1
1
1
1
1
1
1
1
1
1
1
1
1
1
1
1
1
1
1
1
1
1
1
1
1
1
1
1
1
1
1
1
1.00002
1.00019
1.00121
1.00506
1.01566
1.03657
1.06676
1.1002
1.13387
1.16348
1.18557
1.19933
1.20493
1.20273
1.19967
1.19641
1.19171
1.18403
1.17309
1.15918
1.14264
1.12397
1.10392
1.08319
1.06248
1.0429
1.02595
1.01309
1.00506
1.00132
1.00019
1.00001
1
1
1
1
1
1
1
1
1
1
1
1
1
1
1
1
1
1
1
1
1
1
1
1
1
1
1
1
1
1
1
1
1
1
1
1
1
1
1
1
1
1
1
1
1
1
1
1
1
1
1
1
1
1
1
1
1
1
1
1
1
1
1
1
1
1
1
1.00002
1.00011
1.00051
1.00169
1.00436
1.00955
1.01769
1.02765
1.03745
1.04543
1.05083
1.05434
1.05569
1.05499
1.05203
1.04625
1.03839
1.02968
1.02131
1.0141
1.00845
1.00446
1.00199
1.0007
1.00018
1.00003
1
1
1
1
1
1
1
1
1
1
1
1
1
1
1
1
1
1
1
1
1
1
1
1
1
1
1
1
1
1
1
1
1
1
1
1
1
1
1
1
1
1
1
1
1
1
1
1
1
1
1
1
1
1
1
1
1
1
1
1
1
1
1
1
1
1
1
1
1
1
1
1
1
1
1.00001
1.00006
1.00016
1.00038
1.0007
1.00108
1.0015
1.00187
1.00204
1.00203
1.00189
1.00155
1.00111
1.0007
1.00038
1.00018
1.00008
1.00002
1.00001
1
1
1
1
1
1
1
1
1
1
1
1
1
1
1
1
1
1
1
1
1
1
1
1
1
1
1
1
1
1
1
1
1
1
1
1
1
1
1
1
1
1
1
1
1
1
1
1
1
1
1
1
1
1
1
1
1
1
1
1
1
1
1
1
1
1
1
1
1
1
1
1
1
1
1
1
1
1
1
1
1
1
1
1
1
1.00001
1.00001
1
1
1
1
1
1
1
1
1
1
1
1
1
1
1
1
1
1
1
1
1
1
1
1
1
1
1
1
1
1
1
1
1
1
1
1
1
1
1
1
1
1
1
1
1
1
1
1
1
1
1
1
1
1
1
1
1
1
1
1
1
1
1
1
1
1
1
1
1
1
1
1
1
1
1
1
1
1
1
1
1
1
1
1
1
1
1
1
1
1
1
1
1
1
1
1
1
1
1
1
1
1
1
1
1
1
1
1
1
1
1
1
1
1
1
1
1
1
1
1
1
1
1
1
1
1
1
1
1
1
1
1
1
1
1
1
1
1
1
1
1
1
1
1
1
1
1
1
1
1
1
1
1
1
1
1
1
1
1
1
1
1
1
1
1
1
1
1
1
1
1
1
1
1
1
1
1
1
1
1
1
1
1
1
1
1
1
1
1
1
1
1
1
1
1
1
1
1
1
1
1
1
1
1
1
1
1
1
1
1
1
1
1
1
1
1
1
1
1
1
1
1
1
1
1
1
1
1
1
1
1
1
1
1
1
1
1
1
1
1
1
1
1
1
1
1
1
1
1
1
1
1
1
1
1
1
1
1
1
1
1
1
1
1
1
1
1
1
1
1
1
1
1
1
1
1
1
1
1
1
1
1
1
1
1
1
1
1
1
1
1
1
1
1
1
1
1
1
1
1
1
1
1
1
1
1
1
1
1
1
1
1
1
1
1
1
1
1
1
1
1
1
1
1
1
1
1
1
1
1
1
1
1
1
1
1
1
1
1
1
1
1
1
1
1
1
1
1
1
1
1
1
1
1
1
1
1
1
1
1
1
1
1
1
1
1
1
1
1
1
1
1
1
1
1
1
1
1
1
1
1
1
1
1
1
1
1
1
1
1
1
1
1
1
1
1
1
1
1
1
1
1
1
1
1
1
1
1
1
1
1
1
1
1
1
1
1
1
1
1
1
1
1
1
1
1
1
1
1
1
1
1
1
1
1
1
1
1
1
1
1
1
1
1
1
1
1
1
1
1
1
1
1
1
1
1
1
1
1
1
1
1
1
1
1
1
1
1
1
1
1
1
1
1
1
1
1
1
1
1
1
1
1
1
1
1
1
1
1
1
1
1
1
1
1
1
1
1
1
1
1
1
1
1
1
1
1
1
1
1
1
1
1
1
1
1
1
1
1
1
1
1
1
1
1
1
1
1
1
1
1
1
1
1
1
1
1
1
1
1
1
1
1
1
1
1
1
1
1
1
1
1
1
1
1
1
1
1
1
1
1
1
1
1
1
1
1
1
1
1
1
1
1
1
1
1
1
1
1
1
1
1
1
1
1
1
1
1
1
1
1
1
1
1
1
1
1
1
1
1
1
1
1
1
1
1
1
1
1
1
1
1
1
1
1
1
1
1
1
1
1
1
1
1
1
1
1
1
1
1
1
1
1
1
1
1
1
1
1
1
1
1
1
1
)
;

boundaryField
{
    inlet
    {
        type            fixedValue;
        value           uniform 1;
    }
    outlet
    {
        type            inletOutlet;
        inletValue      uniform 1;
        value           nonuniform List<scalar> 
32
(
1
1
1
1
1
1
1
1
1
1
1
1
1
1
1
1
1
1
1
1
1
1
1
1
1
1
1
1
1
1
1
1
)
;
    }
    bottom
    {
        type            symmetryPlane;
    }
    top
    {
        type            symmetryPlane;
    }
    obstacle
    {
        type            zeroGradient;
    }
    defaultFaces
    {
        type            empty;
    }
}


// ************************************************************************* //
