/*--------------------------------*- C++ -*----------------------------------*\
  =========                 |
  \\      /  F ield         | OpenFOAM: The Open Source CFD Toolbox
   \\    /   O peration     | Website:  https://openfoam.org
    \\  /    A nd           | Version:  7
     \\/     M anipulation  |
\*---------------------------------------------------------------------------*/
FoamFile
{
    version     2.0;
    format      ascii;
    class       volScalarField;
    location    "0.7";
    object      p;
}
// * * * * * * * * * * * * * * * * * * * * * * * * * * * * * * * * * * * * * //

dimensions      [1 -1 -2 0 0 0 0];

internalField   nonuniform List<scalar> 
258048
(
1
1
1
1
1
1
1
1
1
1
1
1
1
1
1
1
1
1
1
1
1
1
1
1
1
1
1
1
1
1
1
1
1
1
1
1
1
1
1
1
1
1
1
1
1
1
1
1
1
1
1
1
1
1
1
1
1
1
1
1
1
1
1
1
1
1
1
1
1
1
1
1
1
1
1
1
1
1
1
1
1
1
1
1
1
1
1
1
1
1
1
1
1
1
1
1
1
1
1
1
1
1
1
1
1
1
1
1
1
1
1
1
1
1
1
1.63603
8.3987
10.8249
10.9294
11.0686
11.1681
11.2328
11.2551
11.2385
11.2238
11.2589
11.3641
11.4836
11.5671
11.6114
11.616
11.5699
11.5139
11.4728
11.4688
11.5309
11.6399
11.7267
11.7553
11.729
11.6709
11.628
11.6176
11.6298
11.6601
11.7379
11.8491
11.9733
12.0698
12.1272
12.153
12.1551
12.1262
12.074
12.0207
11.9818
11.9718
11.9913
12.0382
12.0898
12.1243
12.1457
12.1678
12.1937
12.2237
12.238
12.235
12.2221
12.2107
12.2134
12.238
12.2825
12.3415
12.401
12.4485
12.4743
12.4749
12.4486
12.3997
12.3387
12.2795
12.2349
12.2119
12.2129
12.2416
12.2946
12.3608
12.4263
12.4798
12.5178
12.5406
12.5583
1
1
1
1
1
1
1
1
1
1
1
1
1
1
1
1
1
1
1
1
1
1
1
1
1
1
1
1
1
1
1
1
1
1
1
1
1
1
1
1
1
1
1
1
1
1
1
1
1
1
1
1
1
1
1
1
1
1
1
1
1
1
1
1
1
1
1
1
1
1
1
1
1
1
1
1
1
1
1
1
1
1
1
1
1
1
1
1
1
1
1
1
1
1
1
1
1
1
1
1
1
1
1
1
1
1
1
1
1
1
1
1
1
1
1
1.62325
8.36733
10.8189
10.9286
11.0742
11.1734
11.2392
11.2555
11.2355
11.2209
11.2588
11.3649
11.4853
11.5683
11.6106
11.6145
11.568
11.5124
11.4721
11.4685
11.5305
11.6391
11.7254
11.7533
11.7271
11.6697
11.6289
11.6189
11.6315
11.6622
11.7391
11.8493
11.9724
12.0684
12.1258
12.152
12.1546
12.126
12.0737
12.0201
11.9809
11.9705
11.9898
12.0363
12.0877
12.1224
12.1445
12.1675
12.1941
12.2242
12.2381
12.235
12.2223
12.2109
12.2137
12.2383
12.2824
12.3408
12.3998
12.4468
12.4726
12.4735
12.4477
12.3993
12.3385
12.2794
12.2348
12.2119
12.2128
12.2413
12.2939
12.3598
12.4251
12.4786
12.5167
12.5398
12.5576
1
1
1
1
1
1
1
1
1
1
1
1
1
1
1
1
1
1
1
1
1
1
1
1
1
1
1
1
1
1
1
1
1
1
1
1
1
1
1
1
1
1
1
1
1
1
1
1
1
1
1
1
1
1
1
1
1
1
1
1
1
1
1
1
1
1
1
1
1
1
1
1
1
1
1
1
1
1
1
1
1
1
1
1
1
1
1
1
1
1
1
1
1
1
1
1
1
1
1
1
1
1
1
1
1
1
1
1
1
1
1
1
1
1
1
1.59601
8.31082
10.8163
10.9312
11.0805
11.1848
11.2473
11.2587
11.2305
11.2151
11.2566
11.365
11.4867
11.5693
11.61
11.6129
11.5653
11.5098
11.47
11.4669
11.529
11.6374
11.7232
11.7502
11.7237
11.6672
11.6294
11.6196
11.6334
11.6648
11.7404
11.8495
11.9712
12.0663
12.1235
12.1503
12.1536
12.1255
12.0732
12.0192
11.9793
11.9684
11.987
12.0329
12.084
12.1193
12.1426
12.1669
12.1946
12.2251
12.2386
12.2351
12.2224
12.2109
12.2136
12.2381
12.2818
12.3394
12.3977
12.4441
12.4699
12.4713
12.4462
12.3985
12.3382
12.2792
12.2345
12.2115
12.2122
12.2402
12.2923
12.3578
12.4229
12.4766
12.5152
12.5387
12.5569
1
1
1
1
1
1
1
1
1
1
1
1
1
1
1
1
1
1
1
1
1
1
1
1
1
1
1
1
1
1
1
1
1
1
1
1
1
1
1
1
1
1
1
1
1
1
1
1
1
1
1
1
1
1
1
1
1
1
1
1
1
1
1
1
1
1
1
1
1
1
1
1
1
1
1
1
1
1
1
1
1
1
1
1
1
1
1
1
1
1
1
1
1
1
1
1
1
1
1
1
1
1
1
1
1
1
1
1
1
1
1
1
1
1
1
1.55605
8.22442
10.8116
10.9392
11.0906
11.2017
11.2558
11.2607
11.2231
11.2085
11.2549
11.366
11.4886
11.5698
11.6084
11.6096
11.561
11.506
11.4671
11.4645
11.5264
11.6344
11.7197
11.7457
11.7194
11.6645
11.6306
11.6215
11.6364
11.6687
11.7424
11.8497
11.9695
12.0632
12.1201
12.1477
12.152
12.1246
12.0723
12.0178
11.9771
11.9653
11.9831
12.0279
12.0786
12.1144
12.1394
12.1658
12.1951
12.2264
12.2398
12.2356
12.2228
12.2109
12.2133
12.2375
12.2807
12.3373
12.3947
12.4405
12.4663
12.4681
12.4438
12.3968
12.3371
12.2786
12.234
12.2111
12.2117
12.2392
12.2905
12.3553
12.4199
12.4736
12.5127
12.5368
12.5553
1
1
1
1
1
1
1
1
1
1
1
1
1
1
1
1
1
1
1
1
1
1
1
1
1
1
1
1
1
1
1
1
1
1
1
1
1
1
1
1
1
1
1
1
1
1
1
1
1
1
1
1
1
1
1
1
1
1
1
1
1
1
1
1
1
1
1
1
1
1
1
1
1
1
1
1
1
1
1
1
1
1
1
1
1
1
1
1
1
1
1
1
1
1
1
1
1
1
1
1
1
1
1
1
1
1
1
1
1
1
1
1
1
1
1
1.50377
8.106
10.8071
10.9516
11.1063
11.2227
11.2652
11.2597
11.2151
11.2029
11.2539
11.3672
11.4897
11.5693
11.6058
11.6055
11.5561
11.5015
11.4636
11.4615
11.5228
11.6301
11.7148
11.7398
11.7138
11.6616
11.6325
11.6242
11.6401
11.6733
11.7447
11.8496
11.9673
12.0594
12.116
12.1444
12.15
12.1233
12.0711
12.016
11.9743
11.9615
11.9782
12.0217
12.0717
12.108
12.1349
12.1639
12.1956
12.2282
12.2418
12.2368
12.2234
12.2108
12.2124
12.236
12.2786
12.3344
12.3911
12.4362
12.462
12.4641
12.4405
12.3942
12.3352
12.2774
12.2334
12.2108
12.2116
12.2383
12.2887
12.3525
12.4164
12.4699
12.5094
12.534
12.5528
1
1
1
1
1
1
1
1
1
1
1
1
1
1
1
1
1
1
1
1
1
1
1
1
1
1
1
1
1
1
1
1
1
1
1
1
1
1
1
1
1
1
1
1
1
1
1
1
1
1
1
1
1
1
1
1
1
1
1
1
1
1
1
1
1
1
1
1
1
1
1
1
1
1
1
1
1
1
1
1
1
1
1
1
1
1
1
1
1
1
1
1
1
1
1
1
1
1
1
1
1
1
1
1
1
1
1
1
1
1
1
1
1
1
1
1.44032
7.95425
10.8074
10.9687
11.1309
11.2456
11.2721
11.2524
11.2065
11.1989
11.2534
11.3679
11.4901
11.568
11.6026
11.6006
11.5503
11.496
11.4591
11.4574
11.5179
11.6241
11.7085
11.7323
11.7072
11.6587
11.6352
11.6279
11.6445
11.6785
11.7469
11.8491
11.9643
12.0549
12.1113
12.1407
12.1476
12.1218
12.0695
12.0137
11.971
11.9571
11.9727
12.0146
12.0636
12.1002
12.1292
12.1613
12.1959
12.2304
12.2446
12.2388
12.2243
12.2103
12.2106
12.2333
12.2754
12.3306
12.387
12.4316
12.4571
12.4592
12.436
12.3904
12.3323
12.2755
12.2326
12.2107
12.2118
12.2378
12.2869
12.3495
12.4125
12.4655
12.5051
12.5301
12.549
1
1
1
1
1
1
1
1
1
1
1
1
1
1
1
1
1
1
1
1
1
1
1
1
1
1
1
1
1
1
1
1
1
1
1
1
1
1
1
1
1
1
1
1
1
1
1
1
1
1
1
1
1
1
1
1
1
1
1
1
1
1
1
1
1
1
1
1
1
1
1
1
1
1
1
1
1
1
1
1
1
1
1
1
1
1
1
1
1
1
1
1
1
1
1
1
1
1
1
1
1
1
1
1
1
1
1
1
1
1
1
1
1
1
1
1.3675
7.76851
10.8134
10.9952
11.1663
11.2671
11.2737
11.2387
11.1984
11.1968
11.2529
11.3676
11.4893
11.5659
11.5989
11.5949
11.5435
11.4891
11.4535
11.4527
11.5119
11.6168
11.7007
11.7233
11.6996
11.6557
11.6387
11.6328
11.6496
11.6838
11.7489
11.8477
11.9603
12.0494
12.1061
12.1368
12.1451
12.1199
12.0674
12.011
11.9672
11.9522
11.9666
12.0068
12.0547
12.0913
12.1224
12.158
12.1959
12.2326
12.2478
12.2414
12.2256
12.2095
12.2078
12.2293
12.271
12.3262
12.3825
12.4268
12.4519
12.4535
12.4303
12.3853
12.3283
12.2729
12.2315
12.2107
12.2122
12.2374
12.2851
12.3463
12.4082
12.4605
12.5001
12.5251
12.5441
1
1
1
1
1
1
1
1
1
1
1
1
1
1
1
1
1
1
1
1
1
1
1
1
1
1
1
1
1
1
1
1
1
1
1
1
1
1
1
1
1
1
1
1
1
1
1
1
1
1
1
1
1
1
1
1
1
1
1
1
1
1
1
1
1
1
1
1
1
1
1
1
1
1
1
1
1
1
1
1
1
1
1
1
1
1
1
1
1
1
1
1
1
1
1
1
1
1
1
1
1
1
1
1
1
1
1
1
1
1
1
1
1
1
1
1.28721
7.54832
10.8296
11.0376
11.2086
11.2819
11.2659
11.2209
11.191
11.1955
11.2515
11.3658
11.4873
11.5634
11.5955
11.5892
11.5361
11.4812
11.447
11.4472
11.5049
11.6079
11.691
11.7128
11.6912
11.6531
11.643
11.6391
11.6554
11.6892
11.7503
11.8452
11.9549
12.0429
12.1004
12.133
12.1427
12.1179
12.0651
12.0077
11.9629
11.9469
11.9601
11.9984
12.0451
12.0818
12.1152
12.1543
12.1957
12.2348
12.2511
12.2443
12.2268
12.2081
12.2038
12.2239
12.2653
12.3209
12.3777
12.4219
12.4463
12.4472
12.4235
12.3788
12.3231
12.2697
12.2302
12.2108
12.2127
12.2369
12.2831
12.3429
12.4037
12.455
12.4943
12.5193
12.5383
1
1
1
1
1
1
1
1
1
1
1
1
1
1
1
1
1
1
1
1
1
1
1
1
1
1
1
1
1
1
1
1
1
1
1
1
1
1
1
1
1
1
1
1
1
1
1
1
1
1
1
1
1
1
1
1
1
1
1
1
1
1
1
1
1
1
1
1
1
1
1
1
1
1
1
1
1
1
1
1
1
1
1
1
1
1
1
1
1
1
1
1
1
1
1
1
1
1
1
1
1
1
1
1
1
1
1
1
1
1
1
1
1
1
1
1.20212
7.29838
10.8685
11.0984
11.2421
11.2812
11.2479
11.2035
11.1851
11.1951
11.2496
11.3632
11.4849
11.5608
11.5919
11.5829
11.5278
11.4719
11.4393
11.4408
11.4972
11.5977
11.6795
11.7007
11.6826
11.6515
11.6484
11.6472
11.6618
11.6942
11.7508
11.8413
11.9479
12.0352
12.0944
12.1293
12.1405
12.1159
12.0623
12.004
11.9581
11.941
11.9529
11.9893
12.0351
12.072
12.1078
12.1506
12.1955
12.2367
12.2543
12.247
12.2277
12.2059
12.1987
12.2172
12.2584
12.3148
12.3724
12.4166
12.4404
12.4402
12.4158
12.3713
12.3169
12.2658
12.2287
12.2108
12.213
12.2361
12.2807
12.3388
12.3984
12.4489
12.488
12.5128
12.5319
1
1
1
1
1
1
1
1
1
1
1
1
1
1
1
1
1
1
1
1
1
1
1
1
1
1
1
1
1
1
1
1
1
1
1
1
1
1
1
1
1
1
1
1
1
1
1
1
1
1
1
1
1
1
1
1
1
1
1
1
1
1
1
1
1
1
1
1
1
1
1
1
1
1
1
1
1
1
1
1
1
1
1
1
1
1
1
1
1
1
1
1
1
1
1
1
1
1
1
1
1
1
1
1
1
1
1
1
1
1
1
1
1
1
1
1.1113
7.04016
10.9424
11.1617
11.2458
11.2624
11.2262
11.1899
11.1808
11.1957
11.2479
11.3598
11.4818
11.5577
11.5876
11.5758
11.5187
11.4617
11.4305
11.4336
11.4891
11.586
11.6657
11.6872
11.6744
11.6517
11.655
11.6579
11.6685
11.6984
11.7502
11.8358
11.9388
12.0263
12.088
12.1257
12.1384
12.1135
12.059
11.9996
11.9528
11.9344
11.9449
11.9793
12.0243
12.0619
12.1006
12.1472
12.1955
12.2385
12.257
12.2493
12.2278
12.2029
12.1926
12.2094
12.2505
12.3078
12.3664
12.4108
12.4338
12.4324
12.4072
12.363
12.3102
12.2617
12.2275
12.2114
12.2134
12.2353
12.2777
12.334
12.3922
12.4419
12.4808
12.5057
12.5251
1
1
1
1
1
1
1
1
1
1
1
1
1
1
1
1
1
1
1
1
1
1
1
1
1
1
1
1
1
1
1
1
1
1
1
1
1
1
1
1
1
1
1
1
1
1
1
1
1
1
1
1
1
1
1
1
1
1
1
1
1
1
1
1
1
1
1
1
1
1
1
1
1
1
1
1
1
1
1
1
1
1
1
1
1
1
1
1
1
1
1
1
1
1
1
1
1
1
1
1
1
1
1
1
1
1
1
1
1
1
1
1
1
1
1
1.0227
6.81973
11.0075
11.1808
11.2219
11.2349
11.2055
11.182
11.1788
11.198
11.2463
11.3554
11.478
11.5538
11.582
11.5671
11.5085
11.4509
11.4205
11.4251
11.48
11.5727
11.6496
11.6727
11.6674
11.6555
11.6636
11.6706
11.675
11.7014
11.7482
11.8283
11.9278
12.0164
12.0816
12.1222
12.1361
12.1106
12.055
11.9946
11.9469
11.9272
11.9361
11.9682
12.0127
12.0515
12.0938
12.1446
12.1962
12.2404
12.2594
12.2507
12.227
12.1991
12.1857
12.2008
12.2417
12.2999
12.3595
12.4041
12.4264
12.4237
12.3978
12.354
12.3031
12.2574
12.2263
12.2122
12.2141
12.2342
12.2743
12.3283
12.3851
12.434
12.473
12.4982
12.5179
1
1
1
1
1
1
1
1
1
1
1
1
1
1
1
1
1
1
1
1
1
1
1
1
1
1
1
1
1
1
1
1
1
1
1
1
1
1
1
1
1
1
1
1
1
1
1
1
1
1
1
1
1
1
1
1
1
1
1
1
1
1
1
1
1
1
1
1
1
1
1
1
1
1
1
1
1
1
1
1
1
1
1
1
1
1
1
1
1
1
1
1
1
1
1
1
1
1
1
1
1
1
1
1
1
1
1
1
1
1
1
1
1
1
1
1.0001
6.56375
11.035
11.1684
11.1849
11.2064
11.1898
11.1814
11.1806
11.2012
11.2439
11.3499
11.4732
11.5484
11.5742
11.556
11.4969
11.4399
11.4102
11.4153
11.4687
11.5575
11.6311
11.6582
11.6629
11.6638
11.6745
11.6831
11.682
11.7036
11.7441
11.8184
11.9149
12.006
12.0753
12.1187
12.1332
12.1066
12.0498
11.9888
11.9406
11.9195
11.9264
11.9558
11.9999
12.0406
12.0874
12.1429
12.1975
12.2426
12.2613
12.251
12.2252
12.1943
12.178
12.1916
12.2322
12.2912
12.3516
12.3962
12.4178
12.4141
12.3876
12.3445
12.2956
12.2531
12.2248
12.2123
12.2143
12.2327
12.2703
12.3218
12.3769
12.4251
12.4643
12.4901
12.5105
1
1
1
1
1
1
1
1
1
1
1
1
1
1
1
1
1
1
1
1
1
1
1
1
1
1
1
1
1
1
1
1
1
1
1
1
1
1
1
1
1
1
1
1
1
1
1
1
1
1
1
1
1
1
1
1
1
1
1
1
1
1
1
1
1
1
1
1
1
1
1
1
1
1
1
1
1
1
1
1
1
1
1
1
1
1
1
1
1
1
1
1
1
1
1
1
1
1
1
1
1
1
1
1
1
1
1
1
1
1
1
1
1
1
1
1
6.26844
11.0436
11.1371
11.1481
11.184
11.1825
11.1873
11.185
11.2032
11.2401
11.344
11.4678
11.541
11.5634
11.542
11.4836
11.4293
11.4006
11.4046
11.4541
11.5398
11.611
11.6453
11.6623
11.6756
11.6884
11.6942
11.6896
11.7048
11.7373
11.8062
11.9012
11.996
12.0694
12.1149
12.1293
12.1012
12.0433
11.9819
11.9337
11.9112
11.9157
11.9419
11.9856
12.029
12.0812
12.142
12.1996
12.2452
12.2631
12.2505
12.2222
12.1886
12.1697
12.1819
12.2224
12.2818
12.3425
12.387
12.4078
12.4032
12.3764
12.3345
12.2881
12.2487
12.2235
12.2126
12.2143
12.2309
12.2657
12.3145
12.3677
12.4152
12.4548
12.4815
12.5027
1
1
1
1
1
1
1
1
1
1
1
1
1
1
1
1
1
1
1
1
1
1
1
1
1
1
1
1
1
1
1
1
1
1
1
1
1
1
1
1
1
1
1
1
1
1
1
1
1
1
1
1
1
1
1
1
1
1
1
1
1
1
1
1
1
1
1
1
1
1
1
1
1
1
1
1
1
1
1
1
1
1
1
1
1
1
1
1
1
1
1
1
1
1
1
1
1
1
1
1
1
1
1
1
1
1
1
1
1
1
1
1
1
1
1
1
5.95009
11.0301
11.1011
11.1214
11.1694
11.184
11.1953
11.1896
11.2025
11.2366
11.3394
11.461
11.5298
11.5485
11.525
11.4692
11.4197
11.392
11.3934
11.4362
11.5191
11.5904
11.6361
11.6656
11.6902
11.7053
11.7036
11.6958
11.7039
11.7274
11.7925
11.8876
11.9868
12.064
12.1105
12.124
12.0943
12.0354
11.9742
11.9261
11.9022
11.9039
11.9263
11.9698
12.0167
12.0753
12.1416
12.2022
12.2482
12.2648
12.2492
12.2181
12.1818
12.1608
12.1719
12.2122
12.2717
12.3325
12.3765
12.3964
12.3909
12.3643
12.3239
12.2803
12.2444
12.2224
12.2132
12.2144
12.2288
12.2605
12.3063
12.3575
12.4042
12.4444
12.4722
12.4945
1
1
1
1
1
1
1
1
1
1
1
1
1
1
1
1
1
1
1
1
1
1
1
1
1
1
1
1
1
1
1
1
1
1
1
1
1
1
1
1
1
1
1
1
1
1
1
1
1
1
1
1
1
1
1
1
1
1
1
1
1
1
1
1
1
1
1
1
1
1
1
1
1
1
1
1
1
1
1
1
1
1
1
1
1
1
1
1
1
1
1
1
1
1
1
1
1
1
1
1
1
1
1
1
1
1
1
1
1
1
1
1
1
1
1
1
5.61092
10.9799
11.0757
11.1115
11.1601
11.1855
11.2003
11.1944
11.1992
11.2367
11.3357
11.4506
11.5132
11.5292
11.5063
11.4549
11.4111
11.3841
11.3815
11.4157
11.4957
11.5712
11.6318
11.6744
11.7074
11.7211
11.712
11.6989
11.6996
11.7152
11.7783
11.8751
11.9788
12.0589
12.1051
12.117
12.0857
12.0265
11.9657
11.918
11.8924
11.8908
11.9092
11.9527
12.004
12.0698
12.1418
12.2053
12.2513
12.2661
12.2472
12.2129
12.1739
12.1511
12.1613
12.2016
12.2611
12.3216
12.3648
12.3835
12.3772
12.3508
12.3125
12.2723
12.2404
12.2218
12.2141
12.2148
12.2268
12.255
12.2974
12.3462
12.3921
12.4329
12.4621
12.4856
1
1
1
1
1
1
1
1
1
1
1
1
1
1
1
1
1
1
1
1
1
1
1
1
1
1
1
1
1
1
1
1
1
1
1
1
1
1
1
1
1
1
1
1
1
1
1
1
1
1
1
1
1
1
1
1
1
1
1
1
1
1
1
1
1
1
1
1
1
1
1
1
1
1
1
1
1
1
1
1
1
1
1
1
1
1
1
1
1
1
1
1
1
1
1
1
1
1
1
1
1
1
1
1
1
1
1
1
1
1
1
1
1
1
1
1
5.25866
10.8958
11.0634
11.1107
11.1514
11.1852
11.2035
11.1997
11.1989
11.2385
11.3288
11.4322
11.4904
11.5071
11.4875
11.442
11.4029
11.3758
11.3686
11.3928
11.4713
11.5561
11.6328
11.6878
11.7253
11.7343
11.7181
11.6987
11.6915
11.7014
11.7646
11.8642
11.9718
12.0535
12.0983
12.1081
12.0758
12.0168
11.9568
11.9091
11.8814
11.8759
11.8902
11.9345
11.9914
12.065
12.1427
12.2086
12.2541
12.2667
12.2447
12.2068
12.1652
12.1406
12.1502
12.1905
12.25
12.3099
12.3519
12.3692
12.3619
12.336
12.3002
12.2642
12.2369
12.2219
12.2157
12.2156
12.2248
12.2489
12.2875
12.3337
12.3788
12.4203
12.4509
12.4757
1
1
1
1
1
1
1
1
1
1
1
1
1
1
1
1
1
1
1
1
1
1
1
1
1
1
1
1
1
1
1
1
1
1
1
1
1
1
1
1
1
1
1
1
1
1
1
1
1
1
1
1
1
1
1
1
1
1
1
1
1
1
1
1
1
1
1
1
1
1
1
1
1
1
1
1
1
1
1
1
1
1
1
1
1
1
1
1
1
1
1
1
1
1
1
1
1
1
1
1
1
1
1
1
1
1
1
1
1
1
1
1
1
1
1
1
4.89513
10.7934
11.0599
11.1088
11.1496
11.185
11.2026
11.2027
11.2052
11.2357
11.3133
11.406
11.4642
11.4848
11.4699
11.4306
11.3941
11.3659
11.3538
11.3685
11.4492
11.5475
11.6392
11.7033
11.7414
11.7454
11.7209
11.6949
11.6806
11.6877
11.7523
11.8547
11.9651
12.0472
12.0896
12.0972
12.0645
12.0067
11.9474
11.8996
11.8694
11.859
11.8694
11.9157
11.9795
12.0613
12.144
12.2116
12.2562
12.2664
12.2414
12.2
12.1557
12.1295
12.1384
12.1788
12.2381
12.2972
12.3378
12.3534
12.345
12.3197
12.287
12.2559
12.2339
12.2228
12.218
12.2169
12.2228
12.2424
12.2766
12.3201
12.3644
12.4065
12.4385
12.4647
1
1
1
1
1
1
1
1
1
1
1
1
1
1
1
1
1
1
1
1
1
1
1
1
1
1
1
1
1
1
1
1
1
1
1
1
1
1
1
1
1
1
1
1
1
1
1
1
1
1
1
1
1
1
1
1
1
1
1
1
1
1
1
1
1
1
1
1
1
1
1
1
1
1
1
1
1
1
1
1
1
1
1
1
1
1
1
1
1
1
1
1
1
1
1
1
1
1
1
1
1
1
1
1
1
1
1
1
1
1
1
1
1
1
1
1
4.5256
10.6766
11.049
11.0943
11.1538
11.1925
11.2094
11.2005
11.2101
11.2235
11.2877
11.3754
11.4375
11.4636
11.4534
11.4203
11.3842
11.3529
11.3356
11.3468
11.4325
11.5455
11.6501
11.7188
11.7545
11.7531
11.7202
11.6867
11.6681
11.6764
11.742
11.8462
11.9577
12.0391
12.0787
12.0843
12.0522
11.9964
11.9378
11.8892
11.856
11.8401
11.8472
11.8972
11.9692
12.0588
12.1454
12.214
12.2572
12.2651
12.2373
12.1926
12.1459
12.1181
12.1261
12.1663
12.225
12.2832
12.3224
12.3362
12.3266
12.302
12.2729
12.2475
12.2315
12.2244
12.2211
12.2187
12.2209
12.2353
12.2648
12.3052
12.3487
12.3915
12.4249
12.4526
1
1
1
1
1
1
1
1
1
1
1
1
1
1
1
1
1
1
1
1
1
1
1
1
1
1
1
1
1
1
1
1
1
1
1
1
1
1
1
1
1
1
1
1
1
1
1
1
1
1
1
1
1
1
1
1
1
1
1
1
1
1
1
1
1
1
1
1
1
1
1
1
1
1
1
1
1
1
1
1
1
1
1
1
1
1
1
1
1
1
1
1
1
1
1
1
1
1
1
1
1
1
1
1
1
1
1
1
1
1
1
1
1
1
1
1
4.16476
10.5403
11.0149
11.0678
11.1545
11.1956
11.2148
11.1956
11.201
11.2009
11.2575
11.3448
11.4124
11.4434
11.4378
11.4102
11.3737
11.3372
11.3131
11.3308
11.4229
11.5499
11.6634
11.7331
11.7636
11.7557
11.7156
11.6755
11.6566
11.6689
11.734
11.8377
11.9485
12.0285
12.0656
12.0696
12.0391
11.986
11.9281
11.8777
11.8409
11.8193
11.8248
11.8799
11.9608
12.0573
12.1464
12.2152
12.2569
12.2626
12.2324
12.1848
12.1361
12.1068
12.1135
12.1529
12.2106
12.2676
12.3054
12.3174
12.3067
12.2831
12.258
12.2389
12.2294
12.2267
12.2247
12.2208
12.219
12.2277
12.2519
12.289
12.3316
12.3752
12.4101
12.4393
1
1
1
1
1
1
1
1
1
1
1
1
1
1
1
1
1
1
1
1
1
1
1
1
1
1
1
1
1
1
1
1
1
1
1
1
1
1
1
1
1
1
1
1
1
1
1
1
1
1
1
1
1
1
1
1
1
1
1
1
1
1
1
1
1
1
1
1
1
1
1
1
1
1
1
1
1
1
1
1
1
1
1
1
1
1
1
1
1
1
1
1
1
1
1
1
1
1
1
1
1
1
1
1
1
1
1
1
1
1
1
1
1
1
1
1
3.83158
10.3803
10.9665
11.0446
11.1433
11.1969
11.2037
11.188
11.1801
11.1791
11.2282
11.3151
11.389
11.4242
11.4233
11.3992
11.3615
11.3201
11.2912
11.3205
11.4216
11.5592
11.6764
11.7443
11.7679
11.7523
11.7066
11.6637
11.6489
11.6652
11.7278
11.8283
11.9367
12.0149
12.0501
12.0532
12.0253
11.9756
11.9185
11.8656
11.8233
11.7967
11.8039
11.8644
11.9544
12.0563
12.1465
12.2148
12.255
12.2586
12.2264
12.1767
12.1268
12.0962
12.101
12.1388
12.1948
12.25
12.2864
12.2969
12.2855
12.2631
12.2424
12.2304
12.2278
12.2295
12.2286
12.2231
12.2169
12.2196
12.2381
12.2717
12.3134
12.3576
12.3941
12.4248
1
1
1
1
1
1
1
1
1
1
1
1
1
1
1
1
1
1
1
1
1
1
1
1
1
1
1
1
1
1
1
1
1
1
1
1
1
1
1
1
1
1
1
1
1
1
1
1
1
1
1
1
1
1
1
1
1
1
1
1
1
1
1
1
1
1
1
1
1
1
1
1
1
1
1
1
1
1
1
1
1
1
1
1
1
1
1
1
1
1
1
1
1
1
1
1
1
1
1
1
1
1
1
1
1
1
1
1
1
1
1
1
1
1
1
1
3.50795
10.1812
10.9373
11.0252
11.1303
11.1937
11.1806
11.177
11.1584
11.1605
11.2007
11.2855
11.3679
11.4069
11.4102
11.3866
11.3456
11.3011
11.277
11.3187
11.4273
11.5702
11.6871
11.7506
11.7666
11.7426
11.6945
11.6549
11.6457
11.6641
11.7223
11.8174
11.9223
11.9984
12.0323
12.0353
12.0109
11.9652
11.9086
11.8529
11.8041
11.7723
11.7846
11.8518
11.9501
12.0553
12.1453
12.2123
12.2507
12.2527
12.2194
12.1685
12.1182
12.0865
12.0889
12.1242
12.1774
12.2303
12.2651
12.2744
12.2627
12.2422
12.2265
12.222
12.2264
12.2323
12.2326
12.2251
12.2146
12.2111
12.2235
12.2534
12.294
12.3388
12.3769
12.4089
1
1
1
1
1
1
1
1
1
1
1
1
1
1
1
1
1
1
1
1
1
1
1
1
1
1
1
1
1
1
1
1
1
1
1
1
1
1
1
1
1
1
1
1
1
1
1
1
1
1
1
1
1
1
1
1
1
1
1
1
1
1
1
1
1
1
1
1
1
1
1
1
1
1
1
1
1
1
1
1
1
1
1
1
1
1
1
1
1
1
1
1
1
1
1
1
1
1
1
1
1
1
1
1
1
1
1
1
1
1
1
1
1
1
1
1
3.16012
9.93237
10.9303
11.016
11.1236
11.1748
11.1672
11.1604
11.1407
11.1406
11.1753
11.2575
11.3485
11.3913
11.3974
11.3708
11.3248
11.284
11.2764
11.3271
11.4372
11.5798
11.6936
11.7507
11.7579
11.728
11.6831
11.651
11.6459
11.6643
11.7164
11.8044
11.9052
11.979
12.0122
12.016
11.9961
11.9546
11.8983
11.8391
11.7836
11.748
11.7675
11.8424
11.9471
12.0538
12.1426
12.2074
12.2439
12.2446
12.211
12.1603
12.1105
12.0779
12.0773
12.1091
12.1587
12.2085
12.2415
12.2499
12.2384
12.2204
12.2104
12.2136
12.2251
12.2351
12.2361
12.2268
12.2118
12.2022
12.2085
12.2344
12.2736
12.3189
12.3584
12.3917
1
1
1
1
1
1
1
1
1
1
1
1
1
1
1
1
1
1
1
1
1
1
1
1
1
1
1
1
1
1
1
1
1
1
1
1
1
1
1
1
1
1
1
1
1
1
1
1
1
1
1
1
1
1
1
1
1
1
1
1
1
1
1
1
1
1
1
1
1
1
1
1
1
1
1
1
1
1
1
1
1
1
1
1
1
1
1
1
1
1
1
1
1
1
1
1
1
1
1
1
1
1
1
1
1
1
1
1
1
1
1
1
1
1
1
1
2.74544
9.60459
10.9537
11.0262
11.1298
11.1557
11.163
11.1469
11.131
11.1214
11.1507
11.2325
11.329
11.3749
11.3814
11.3517
11.3064
11.2785
11.2873
11.3426
11.4475
11.585
11.694
11.7423
11.7416
11.7124
11.6763
11.6519
11.6481
11.6641
11.709
11.7889
11.8853
11.9568
11.9902
11.9961
11.9812
11.9435
11.8869
11.8236
11.7616
11.7254
11.7539
11.836
11.945
12.0516
12.138
12.2
12.2341
12.234
12.2013
12.1521
12.1037
12.0703
12.0661
12.0935
12.1387
12.1847
12.2157
12.2235
12.2127
12.1979
12.1942
12.2054
12.2237
12.2374
12.2391
12.2278
12.2086
12.193
12.1932
12.2148
12.2525
12.2978
12.3384
12.3728
1
1
1
1
1
1
1
1
1
1
1
1
1
1
1
1
1
1
1
1
1
1
1
1
1
1
1
1
1
1
1
1
1
1
1
1
1
1
1
1
1
1
1
1
1
1
1
1
1
1
1
1
1
1
1
1
1
1
1
1
1
1
1
1
1
1
1
1
1
1
1
1
1
1
1
1
1
1
1
1
1
1
1
1
1
1
1
1
1
1
1
1
1
1
1
1
1
1
1
1
1
1
1
1
1
1
1
1
1
1
1
1
1
1
1
1
2.29476
9.16203
11.0041
11.0606
11.1335
11.1552
11.1579
11.1407
11.1219
11.1043
11.1275
11.2088
11.3067
11.3548
11.36
11.3335
11.3002
11.292
11.3054
11.36
11.4546
11.5836
11.6839
11.7233
11.7218
11.7009
11.6766
11.6555
11.6499
11.6623
11.6995
11.7706
11.8623
11.9321
11.9667
11.9762
11.9664
11.9313
11.8737
11.8059
11.7383
11.7064
11.7446
11.8321
11.943
12.0482
12.1315
12.1899
12.2215
12.2211
12.1903
12.1441
12.0976
12.0633
12.055
12.0771
12.1171
12.1591
12.1881
12.1954
12.1857
12.1749
12.1779
12.1972
12.222
12.2391
12.2412
12.2279
12.2047
12.1835
12.1777
12.195
12.2309
12.2758
12.3171
12.352
1
1
1
1
1
1
1
1
1
1
1
1
1
1
1
1
1
1
1
1
1
1
1
1
1
1
1
1
1
1
1
1
1
1
1
1
1
1
1
1
1
1
1
1
1
1
1
1
1
1
1
1
1
1
1
1
1
1
1
1
1
1
1
1
1
1
1
1
1
1
1
1
1
1
1
1
1
1
1
1
1
1
1
1
1
1
1
1
1
1
1
1
1
1
1
1
1
1
1
1
1
1
1
1
1
1
1
1
1
1
1
1
1
1
1
1
1.82982
8.55937
11.0461
11.1004
11.1349
11.1675
11.1557
11.1394
11.1108
11.0884
11.1041
11.1819
11.2809
11.3308
11.3388
11.3249
11.3139
11.3165
11.3269
11.3757
11.4575
11.5723
11.6603
11.6974
11.7042
11.6966
11.6822
11.6596
11.6496
11.658
11.6877
11.7492
11.8359
11.905
11.9425
11.9569
11.9517
11.9174
11.858
11.7854
11.7149
11.6928
11.7395
11.8299
11.9406
12.0431
12.1228
12.177
12.206
12.206
12.1786
12.1363
12.0922
12.0565
12.0434
12.0595
12.0939
12.1319
12.1589
12.166
12.1578
12.1516
12.1619
12.189
12.2197
12.2399
12.2424
12.2272
12.2001
12.1736
12.162
12.1749
12.2087
12.2528
12.2943
12.3293
1
1
1
1
1
1
1
1
1
1
1
1
1
1
1
1
1
1
1
1
1
1
1
1
1
1
1
1
1
1
1
1
1
1
1
1
1
1
1
1
1
1
1
1
1
1
1
1
1
1
1
1
1
1
1
1
1
1
1
1
1
1
1
1
1
1
1
1
1
1
1
1
1
1
1
1
1
1
1
1
1
1
1
1
1
1
1
1
1
1
1
1
1
1
1
1
1
1
1
1
1
1
1
1
1
1
1
1
1
1
1
1
1
1
1
1
1.39158
7.8099
11.0541
11.0864
11.147
11.1752
11.1541
11.1215
11.0887
11.0668
11.0799
11.149
11.253
11.3076
11.3283
11.3339
11.3426
11.3434
11.348
11.3868
11.4515
11.5477
11.6275
11.6719
11.6933
11.6987
11.6893
11.6635
11.6472
11.6508
11.6729
11.7245
11.8061
11.876
11.9181
11.9384
11.9368
11.9014
11.8391
11.7622
11.6946
11.6849
11.7378
11.8283
11.9369
12.0359
12.1116
12.1615
12.1879
12.1893
12.1666
12.1291
12.0871
12.0496
12.0309
12.0403
12.0689
12.1029
12.1281
12.1353
12.1295
12.1287
12.1464
12.1806
12.2167
12.2396
12.2424
12.2253
12.1947
12.1633
12.1463
12.1545
12.186
12.2289
12.2701
12.3048
1
1
1
1
1
1
1
1
1
1
1
1
1
1
1
1
1
1
1
1
1
1
1
1
1
1
1
1
1
1
1
1
1
1
1
1
1
1
1
1
1
1
1
1
1
1
1
1
1
1
1
1
1
1
1
1
1
1
1
1
1
1
1
1
1
1
1
1
1
1
1
1
1
1
1
1
1
1
1
1
1
1
1
1
1
1
1
1
1
1
1
1
1
1
1
1
1
1
1
1
1
1
1
1
1
1
1
1
1
1
1
1
1
1
1
1
1.03682
6.94117
11.0638
11.0695
11.1096
11.1428
11.1311
11.0953
11.0647
11.0407
11.0547
11.1178
11.2285
11.2946
11.3361
11.3618
11.3729
11.3672
11.3638
11.3877
11.4291
11.5131
11.5948
11.6533
11.6888
11.7035
11.6957
11.6664
11.643
11.6408
11.6547
11.6964
11.7735
11.8457
11.8941
11.9204
11.9211
11.8831
11.8174
11.7373
11.6813
11.6827
11.7379
11.826
11.9311
12.0261
12.0975
12.1432
12.1677
12.1717
12.1548
12.1223
12.0821
12.0422
12.0173
12.0194
12.042
12.0721
12.0956
12.1035
12.1011
12.1067
12.1317
12.1721
12.2126
12.2378
12.2409
12.2221
12.1882
12.1523
12.1303
12.1339
12.1626
12.204
12.2447
12.2782
1
1
1
1
1
1
1
1
1
1
1
1
1
1
1
1
1
1
1
1
1
1
1
1
1
1
1
1
1
1
1
1
1
1
1
1
1
1
1
1
1
1
1
1
1
1
1
1
1
1
1
1
1
1
1
1
1
1
1
1
1
1
1
1
1
1
1
1
1
1
1
1
1
1
1
1
1
1
1
1
1
1
1
1
1
1
1
1
1
1
1
1
1
1
1
1
1
1
1
1
1
1
1
1
1
1
1
1
1
1
1
1
1
1
1
1
1.00023
6.08949
10.9464
11.0158
11.0541
11.1053
11.092
11.0683
11.0388
11.0228
11.0333
11.0963
11.2148
11.3005
11.3612
11.3924
11.4011
11.383
11.3673
11.3715
11.3944
11.478
11.5693
11.6427
11.6874
11.7077
11.7004
11.6678
11.6371
11.627
11.6325
11.6648
11.739
11.815
11.8703
11.9019
11.9036
11.8626
11.7942
11.7145
11.6758
11.6852
11.7382
11.8219
11.9222
12.0128
12.08
12.1224
12.146
12.1539
12.1435
12.1158
12.0769
12.0343
12.0028
11.9969
12.013
12.0394
12.0612
12.0705
12.073
12.086
12.1181
12.1636
12.2073
12.2342
12.2375
12.2174
12.1805
12.1408
12.1142
12.1131
12.1384
12.1782
12.2179
12.2497
1
1
1
1
1
1
1
1
1
1
1
1
1
1
1
1
1
1
1
1
1
1
1
1
1
1
1
1
1
1
1
1
1
1
1
1
1
1
1
1
1
1
1
1
1
1
1
1
1
1
1
1
1
1
1
1
1
1
1
1
1
1
1
1
1
1
1
1
1
1
1
1
1
1
1
1
1
1
1
1
1
1
1
1
1
1
1
1
1
1
1
1
1
1
1
1
1
1
1
1
1
1
1
1
1
1
1
1
1
1
1
1
1
1
1
1
1
5.33443
10.8088
10.9819
11.0181
11.0688
11.0613
11.046
11.0219
11.0141
11.0215
11.0912
11.2196
11.3247
11.387
11.4167
11.4155
11.3833
11.3558
11.3423
11.3592
11.4489
11.5522
11.637
11.6871
11.7102
11.7026
11.667
11.629
11.6092
11.6065
11.6311
11.7038
11.7846
11.8464
11.8816
11.8825
11.8402
11.7716
11.7002
11.6765
11.6897
11.7375
11.8151
11.9097
11.9955
12.0589
12.0994
12.1239
12.1364
12.1325
12.1088
12.0709
12.0255
11.9873
11.9732
11.9823
12.0046
12.0249
12.0363
12.0453
12.0668
12.1057
12.155
12.2006
12.2285
12.2319
12.2108
12.1716
12.1285
12.0981
12.0924
12.1137
12.1512
12.1896
12.2191
1
1
1
1
1
1
1
1
1
1
1
1
1
1
1
1
1
1
1
1
1
1
1
1
1
1
1
1
1
1
1
1
1
1
1
1
1
1
1
1
1
1
1
1
1
1
1
1
1
1
1
1
1
1
1
1
1
1
1
1
1
1
1
1
1
1
1
1
1
1
1
1
1
1
1
1
1
1
1
1
1
1
1
1
1
1
1
1
1
1
1
1
1
1
1
1
1
1
1
1
1
1
1
1
1
1
1
1
1
1
1
1
1
1
1
1
1
4.65699
10.6349
10.9463
10.9917
11.0385
11.0465
11.034
11.0211
11.0126
11.0239
11.1015
11.2343
11.3491
11.3998
11.4264
11.4142
11.3692
11.3324
11.3113
11.3329
11.4268
11.5398
11.6325
11.6861
11.7106
11.7018
11.6628
11.6179
11.5884
11.5779
11.5968
11.6688
11.7545
11.8216
11.8581
11.857
11.816
11.7527
11.6975
11.6813
11.6946
11.7355
11.805
11.8928
11.9738
12.0344
12.0749
12.1019
12.1196
12.1213
12.1009
12.0634
12.0155
11.9711
11.9486
11.9504
11.9681
11.9868
12.0012
12.0182
12.0491
12.0943
12.1461
12.1924
12.2203
12.2237
12.2019
12.1612
12.1156
12.0819
12.072
12.0887
12.123
12.1594
12.1862
1
1
1
1
1
1
1
1
1
1
1
1
1
1
1
1
1
1
1
1
1
1
1
1
1
1
1
1
1
1
1
1
1
1
1
1
1
1
1
1
1
1
1
1
1
1
1
1
1
1
1
1
1
1
1
1
1
1
1
1
1
1
1
1
1
1
1
1
1
1
1
1
1
1
1
1
1
1
1
1
1
1
1
1
1
1
1
1
1
1
1
1
1
1
1
1
1
1
1
1
1
1
1
1
1
1
1
1
1
1
1
1
1
1
1
1
1
4.0423
10.4078
10.9114
10.9718
11.0169
11.039
11.0374
11.0326
11.0159
11.0381
11.1151
11.2426
11.3521
11.4
11.4181
11.4001
11.3468
11.3083
11.2885
11.3158
11.4098
11.5283
11.6267
11.6835
11.7085
11.6974
11.6544
11.6031
11.5655
11.549
11.5642
11.6346
11.7242
11.7944
11.8304
11.8276
11.7909
11.7414
11.704
11.6887
11.6992
11.7319
11.7913
11.8713
11.9477
12.007
12.0496
12.0809
12.1034
12.1093
12.0913
12.0541
12.0039
11.9541
11.9235
11.9175
11.9301
11.9472
11.9658
11.992
12.0326
12.0835
12.1366
12.1822
12.2094
12.2126
12.1906
12.1492
12.1022
12.0661
12.0522
12.0639
12.0934
12.1272
12.1509
1
1
1
1
1
1
1
1
1
1
1
1
1
1
1
1
1
1
1
1
1
1
1
1
1
1
1
1
1
1
1
1
1
1
1
1
1
1
1
1
1
1
1
1
1
1
1
1
1
1
1
1
1
1
1
1
1
1
1
1
1
1
1
1
1
1
1
1
1
1
1
1
1
1
1
1
1
1
1
1
1
1
1
1
1
1
1
1
1
1
1
1
1
1
1
1
1
1
1
1
1
1
1
1
1
1
1
1
1
1
1
1
1
1
1
1
1
3.48449
10.1251
10.8713
10.9452
11.0122
11.0395
11.0499
11.0384
11.0291
11.0524
11.1196
11.2337
11.3333
11.3845
11.3985
11.3789
11.3264
11.2909
11.2765
11.3058
11.3948
11.5155
11.6184
11.6779
11.7026
11.6884
11.6415
11.5845
11.5411
11.5216
11.535
11.6022
11.6925
11.7638
11.798
11.7959
11.7677
11.7391
11.7155
11.6977
11.7024
11.7263
11.7743
11.8458
11.9183
11.9778
12.0242
12.0605
12.0869
12.0958
12.0796
12.0425
11.9905
11.9359
11.8979
11.8839
11.8909
11.9068
11.9308
11.9671
12.0171
12.0726
12.1256
12.1696
12.1956
12.1983
12.1765
12.1356
12.0885
12.0507
12.0331
12.0393
12.0626
12.0925
12.1128
1
1
1
1
1
1
1
1
1
1
1
1
1
1
1
1
1
1
1
1
1
1
1
1
1
1
1
1
1
1
1
1
1
1
1
1
1
1
1
1
1
1
1
1
1
1
1
1
1
1
1
1
1
1
1
1
1
1
1
1
1
1
1
1
1
1
1
1
1
1
1
1
1
1
1
1
1
1
1
1
1
1
1
1
1
1
1
1
1
1
1
1
1
1
1
1
1
1
1
1
1
1
1
1
1
1
1
1
1
1
1
1
1
1
1
1
1
2.94712
9.76769
10.83
10.9186
10.9996
11.0394
11.0599
11.0391
11.0447
11.0549
11.1079
11.2054
11.3006
11.3578
11.3752
11.3559
11.3136
11.2838
11.2731
11.2999
11.3806
11.5002
11.6061
11.6675
11.6912
11.6744
11.6245
11.5636
11.5166
11.4966
11.5091
11.5712
11.6585
11.7284
11.7619
11.7655
11.752
11.7439
11.7281
11.7066
11.7033
11.7178
11.7538
11.817
11.8867
11.9483
11.9994
12.0402
12.0695
12.0804
12.0655
12.0286
11.9753
11.9166
11.8715
11.8498
11.8505
11.8661
11.8972
11.9439
12.0026
12.0611
12.1123
12.1538
12.1783
12.1807
12.1596
12.1202
12.0744
12.036
12.0148
12.0151
12.031
12.0555
12.0715
1
1
1
1
1
1
1
1
1
1
1
1
1
1
1
1
1
1
1
1
1
1
1
1
1
1
1
1
1
1
1
1
1
1
1
1
1
1
1
1
1
1
1
1
1
1
1
1
1
1
1
1
1
1
1
1
1
1
1
1
1
1
1
1
1
1
1
1
1
1
1
1
1
1
1
1
1
1
1
1
1
1
1
1
1
1
1
1
1
1
1
1
1
1
1
1
1
1
1
1
1
1
1
1
1
1
1
1
1
1
1
1
1
1
1
1
1
2.43215
9.31811
10.7895
10.8782
10.9781
11.0398
11.055
11.048
11.0447
11.0437
11.0842
11.1671
11.264
11.3293
11.3529
11.3384
11.3088
11.2829
11.2735
11.2957
11.3668
11.4822
11.5895
11.6516
11.6736
11.6554
11.6046
11.5427
11.4941
11.4745
11.4853
11.5404
11.622
11.6885
11.7245
11.7403
11.7461
11.7525
11.7389
11.7135
11.7006
11.7055
11.731
11.7866
11.8552
11.92
11.9753
12.0191
12.05
12.0623
12.0488
12.0125
11.9583
11.896
11.8441
11.8148
11.8092
11.8256
11.8657
11.9229
11.9889
12.0485
12.0965
12.1345
12.1571
12.1595
12.1399
12.1034
12.0601
12.0218
11.9972
11.9911
11.9986
12.0164
12.027
1
1
1
1
1
1
1
1
1
1
1
1
1
1
1
1
1
1
1
1
1
1
1
1
1
1
1
1
1
1
1
1
1
1
1
1
1
1
1
1
1
1
1
1
1
1
1
1
1
1
1
1
1
1
1
1
1
1
1
1
1
1
1
1
1
1
1
1
1
1
1
1
1
1
1
1
1
1
1
1
1
1
1
1
1
1
1
1
1
1
1
1
1
1
1
1
1
1
1
1
1
1
1
1
1
1
1
1
1
1
1
1
1
1
1
1
1
1.95955
8.77577
10.7731
10.8628
10.9737
11.0396
11.0543
11.0467
11.0314
11.0311
11.0578
11.1305
11.2331
11.3059
11.3338
11.3296
11.3089
11.2869
11.2753
11.2902
11.3521
11.4605
11.5676
11.6299
11.6501
11.6324
11.5834
11.5238
11.4749
11.4547
11.4616
11.5071
11.5823
11.6464
11.6904
11.7236
11.7474
11.7613
11.7468
11.716
11.6938
11.6893
11.706
11.7559
11.8254
11.8937
11.9514
11.9964
12.0276
12.0409
12.0292
11.9942
11.9399
11.8743
11.8156
11.7788
11.7672
11.7859
11.8364
11.9042
11.9758
12.0343
12.0779
12.1117
12.1319
12.1345
12.1177
12.0851
12.0454
12.0079
11.9802
11.967
11.9655
11.9753
11.9794
1
1
1
1
1
1
1
1
1
1
1
1
1
1
1
1
1
1
1
1
1
1
1
1
1
1
1
1
1
1
1
1
1
1
1
1
1
1
1
1
1
1
1
1
1
1
1
1
1
1
1
1
1
1
1
1
1
1
1
1
1
1
1
1
1
1
1