/*--------------------------------*- C++ -*----------------------------------*\
  =========                 |
  \\      /  F ield         | OpenFOAM: The Open Source CFD Toolbox
   \\    /   O peration     | Website:  https://openfoam.org
    \\  /    A nd           | Version:  7
     \\/     M anipulation  |
\*---------------------------------------------------------------------------*/
FoamFile
{
    version     2.0;
    format      ascii;
    class       volScalarField;
    location    "0.7";
    object      rho;
}
// * * * * * * * * * * * * * * * * * * * * * * * * * * * * * * * * * * * * * //

dimensions      [1 -3 0 0 0 0 0];

internalField   nonuniform List<scalar> 
258048
(
1.40001
1.40001
1.40001
1.40001
1.40001
1.40001
1.40001
1.40001
1.40001
1.40001
1.40001
1.40001
1.40001
1.40001
1.40001
1.40001
1.40001
1.40001
1.40001
1.40001
1.40001
1.40001
1.40001
1.40001
1.40001
1.40001
1.40001
1.40001
1.40001
1.40001
1.40001
1.40001
1.40001
1.40001
1.40001
1.40001
1.40001
1.40001
1.40001
1.40001
1.40001
1.40001
1.40001
1.40001
1.40001
1.40001
1.40001
1.40001
1.40001
1.40001
1.40001
1.40001
1.40001
1.40001
1.40001
1.40001
1.40001
1.40001
1.40001
1.40001
1.40001
1.40001
1.40001
1.40001
1.40001
1.40001
1.40001
1.40001
1.40001
1.40001
1.40001
1.40001
1.40001
1.40001
1.40001
1.40001
1.40001
1.40001
1.40001
1.40001
1.40001
1.40001
1.40001
1.40001
1.40001
1.40001
1.40001
1.40001
1.40001
1.40001
1.40001
1.40001
1.40001
1.40001
1.40001
1.40001
1.40001
1.40001
1.40001
1.40001
1.40001
1.40001
1.40001
1.40001
1.40001
1.40001
1.40001
1.40001
1.40001
1.40001
1.40001
1.40001
1.40001
1.40001
1.40001
1.73705
4.68749
5.50778
5.47589
5.50065
5.54215
5.5779
5.59893
5.60107
5.59465
5.60158
5.62771
5.66159
5.69197
5.71323
5.71733
5.70291
5.6814
5.66265
5.6584
5.67857
5.71677
5.74789
5.7579
5.74795
5.72611
5.70948
5.70452
5.70806
5.7179
5.74428
5.78225
5.82465
5.85744
5.87643
5.88382
5.8831
5.87217
5.85247
5.83253
5.81708
5.81108
5.81531
5.82826
5.84318
5.85169
5.85478
5.85763
5.86113
5.86431
5.86134
5.85284
5.83998
5.82663
5.81741
5.81493
5.81733
5.822
5.82471
5.82182
5.80986
5.78645
5.75004
5.70037
5.63816
5.56419
5.47893
5.38355
5.28266
5.18656
5.10595
5.0475
5.01158
4.99332
4.98617
4.9841
4.98648
1.40001
1.40001
1.40001
1.40001
1.40001
1.40001
1.40001
1.40001
1.40001
1.40001
1.40001
1.40001
1.40001
1.40001
1.40001
1.40001
1.40001
1.40001
1.40001
1.40001
1.40001
1.40001
1.40001
1.40001
1.40001
1.40001
1.40001
1.40001
1.40001
1.40001
1.40001
1.40001
1.40001
1.40001
1.40001
1.40001
1.40001
1.40001
1.40001
1.40001
1.40001
1.40001
1.40001
1.40001
1.40001
1.40001
1.40001
1.40001
1.40001
1.40001
1.40001
1.40001
1.40001
1.40001
1.40001
1.40001
1.40001
1.40001
1.40001
1.40001
1.40001
1.40001
1.40001
1.40001
1.40001
1.40001
1.40001
1.40001
1.40001
1.40001
1.40001
1.40001
1.40001
1.40001
1.40001
1.40001
1.40001
1.40001
1.40001
1.40001
1.40001
1.40001
1.40001
1.40001
1.40001
1.40001
1.40001
1.40001
1.40001
1.40001
1.40001
1.40001
1.40001
1.40001
1.40001
1.40001
1.40001
1.40001
1.40001
1.40001
1.40001
1.40001
1.40001
1.40001
1.40001
1.40001
1.40001
1.40001
1.40001
1.40001
1.40001
1.40001
1.40001
1.40001
1.40001
1.73021
4.67556
5.50459
5.47446
5.50221
5.54418
5.58019
5.59905
5.60001
5.59344
5.60122
5.6277
5.66209
5.69244
5.71302
5.71679
5.70218
5.68083
5.66237
5.65829
5.67842
5.7165
5.74742
5.75719
5.74726
5.72568
5.70978
5.70495
5.70865
5.71861
5.74468
5.7823
5.82435
5.85694
5.87593
5.88349
5.88292
5.87208
5.85235
5.83231
5.81673
5.81061
5.81477
5.82758
5.84243
5.85104
5.85437
5.85751
5.86122
5.86446
5.86135
5.85282
5.83999
5.82663
5.81742
5.81492
5.81719
5.82163
5.82414
5.82107
5.80907
5.78574
5.74945
5.69985
5.63758
5.56344
5.47798
5.38249
5.28157
5.18555
5.10508
5.0468
5.01101
4.99288
4.98583
4.98385
4.98629
1.40001
1.40001
1.40001
1.40001
1.40001
1.40001
1.40001
1.40001
1.40001
1.40001
1.40001
1.40001
1.40001
1.40001
1.40001
1.40001
1.40001
1.40001
1.40001
1.40001
1.40001
1.40001
1.40001
1.40001
1.40001
1.40001
1.40001
1.40001
1.40001
1.40001
1.40001
1.40001
1.40001
1.40001
1.40001
1.40001
1.40001
1.40001
1.40001
1.40001
1.40001
1.40001
1.40001
1.40001
1.40001
1.40001
1.40001
1.40001
1.40001
1.40001
1.40001
1.40001
1.40001
1.40001
1.40001
1.40001
1.40001
1.40001
1.40001
1.40001
1.40001
1.40001
1.40001
1.40001
1.40001
1.40001
1.40001
1.40001
1.40001
1.40001
1.40001
1.40001
1.40001
1.40001
1.40001
1.40001
1.40001
1.40001
1.40001
1.40001
1.40001
1.40001
1.40001
1.40001
1.40001
1.40001
1.40001
1.40001
1.40001
1.40001
1.40001
1.40001
1.40001
1.40001
1.40001
1.40001
1.40001
1.40001
1.40001
1.40001
1.40001
1.40001
1.40001
1.40001
1.40001
1.40001
1.40001
1.40001
1.40001
1.40001
1.40001
1.40001
1.40001
1.40001
1.40001
1.7164
4.65619
5.50168
5.47318
5.50369
5.54852
5.58315
5.6003
5.59817
5.59083
5.59964
5.62706
5.6624
5.69292
5.71289
5.71616
5.70111
5.6797
5.66148
5.65764
5.67785
5.71594
5.74669
5.75609
5.746
5.72467
5.70982
5.70514
5.70926
5.71948
5.74512
5.78233
5.8239
5.85617
5.8751
5.88284
5.88253
5.87186
5.85214
5.83196
5.81617
5.80982
5.81378
5.82635
5.84112
5.8499
5.85365
5.85726
5.86133
5.86467
5.86143
5.85272
5.83991
5.82649
5.81723
5.81465
5.81672
5.82083
5.82307
5.81977
5.80765
5.78433
5.74809
5.69841
5.63583
5.56116
5.47505
5.37907
5.27802
5.18228
5.10241
5.04481
5.00961
4.99193
4.98524
4.98353
4.98609
1.40001
1.40001
1.40001
1.40001
1.40001
1.40001
1.40001
1.40001
1.40001
1.40001
1.40001
1.40001
1.40001
1.40001
1.40001
1.40001
1.40001
1.40001
1.40001
1.40001
1.40001
1.40001
1.40001
1.40001
1.40001
1.40001
1.40001
1.40001
1.40001
1.40001
1.40001
1.40001
1.40001
1.40001
1.40001
1.40001
1.40001
1.40001
1.40001
1.40001
1.40001
1.40001
1.40001
1.40001
1.40001
1.40001
1.40001
1.40001
1.40001
1.40001
1.40001
1.40001
1.40001
1.40001
1.40001
1.40001
1.40001
1.40001
1.40001
1.40001
1.40001
1.40001
1.40001
1.40001
1.40001
1.40001
1.40001
1.40001
1.40001
1.40001
1.40001
1.40001
1.40001
1.40001
1.40001
1.40001
1.40001
1.40001
1.40001
1.40001
1.40001
1.40001
1.40001
1.40001
1.40001
1.40001
1.40001
1.40001
1.40001
1.40001
1.40001
1.40001
1.40001
1.40001
1.40001
1.40001
1.40001
1.40001
1.40001
1.40001
1.40001
1.40001
1.40001
1.40001
1.40001
1.40001
1.40001
1.40001
1.40001
1.40001
1.40001
1.40001
1.40001
1.40001
1.40001
1.69595
4.62714
5.49797
5.47347
5.50648
5.55494
5.58645
5.60127
5.59542
5.5878
5.5979
5.62658
5.66287
5.69332
5.71243
5.71497
5.69942
5.67803
5.6602
5.65665
5.67692
5.71495
5.74551
5.75448
5.74436
5.72355
5.71011
5.70569
5.71022
5.7208
5.74577
5.78234
5.82324
5.85505
5.87388
5.88188
5.88194
5.8715
5.85178
5.83143
5.81533
5.80869
5.81236
5.82458
5.83919
5.84816
5.85248
5.8568
5.86146
5.86504
5.86175
5.8528
5.83991
5.82637
5.81699
5.81424
5.81605
5.81975
5.82163
5.81801
5.80575
5.78233
5.74599
5.69602
5.63284
5.55724
5.47004
5.37319
5.2719
5.17662
5.0978
5.04144
5.00731
4.99041
4.98429
4.98292
4.98562
1.40001
1.40001
1.40001
1.40001
1.40001
1.40001
1.40001
1.40001
1.40001
1.40001
1.40001
1.40001
1.40001
1.40001
1.40001
1.40001
1.40001
1.40001
1.40001
1.40001
1.40001
1.40001
1.40001
1.40001
1.40001
1.40001
1.40001
1.40001
1.40001
1.40001
1.40001
1.40001
1.40001
1.40001
1.40001
1.40001
1.40001
1.40001
1.40001
1.40001
1.40001
1.40001
1.40001
1.40001
1.40001
1.40001
1.40001
1.40001
1.40001
1.40001
1.40001
1.40001
1.40001
1.40001
1.40001
1.40001
1.40001
1.40001
1.40001
1.40001
1.40001
1.40001
1.40001
1.40001
1.40001
1.40001
1.40001
1.40001
1.40001
1.40001
1.40001
1.40001
1.40001
1.40001
1.40001
1.40001
1.40001
1.40001
1.40001
1.40001
1.40001
1.40001
1.40001
1.40001
1.40001
1.40001
1.40001
1.40001
1.40001
1.40001
1.40001
1.40001
1.40001
1.40001
1.40001
1.40001
1.40001
1.40001
1.40001
1.40001
1.40001
1.40001
1.40001
1.40001
1.40001
1.40001
1.40001
1.40001
1.40001
1.40001
1.40001
1.40001
1.40001
1.40001
1.40001
1.66908
4.58703
5.49459
5.47538
5.51151
5.56314
5.59029
5.6015
5.59258
5.58528
5.59647
5.62618
5.66318
5.69347
5.71175
5.71354
5.69747
5.67607
5.65868
5.65544
5.67567
5.71356
5.74394
5.7524
5.7423
5.72233
5.71057
5.70647
5.71137
5.72233
5.74649
5.78226
5.82241
5.85367
5.87238
5.88067
5.88116
5.87099
5.85128
5.83073
5.81429
5.8073
5.81061
5.82237
5.83675
5.84588
5.85087
5.85612
5.86159
5.86561
5.86236
5.85315
5.84004
5.82623
5.81657
5.81355
5.81509
5.81842
5.81998
5.81607
5.80365
5.78016
5.74365
5.69323
5.62925
5.55247
5.46388
5.36587
5.26418
5.16934
5.09178
5.03701
5.00429
4.98842
4.98299
4.98201
4.98487
1.40001
1.40001
1.40001
1.40001
1.40001
1.40001
1.40001
1.40001
1.40001
1.40001
1.40001
1.40001
1.40001
1.40001
1.40001
1.40001
1.40001
1.40001
1.40001
1.40001
1.40001
1.40001
1.40001
1.40001
1.40001
1.40001
1.40001
1.40001
1.40001
1.40001
1.40001
1.40001
1.40001
1.40001
1.40001
1.40001
1.40001
1.40001
1.40001
1.40001
1.40001
1.40001
1.40001
1.40001
1.40001
1.40001
1.40001
1.40001
1.40001
1.40001
1.40001
1.40001
1.40001
1.40001
1.40001
1.40001
1.40001
1.40001
1.40001
1.40001
1.40001
1.40001
1.40001
1.40001
1.40001
1.40001
1.40001
1.40001
1.40001
1.40001
1.40001
1.40001
1.40001
1.40001
1.40001
1.40001
1.40001
1.40001
1.40001
1.40001
1.40001
1.40001
1.40001
1.40001
1.40001
1.40001
1.40001
1.40001
1.40001
1.40001
1.40001
1.40001
1.40001
1.40001
1.40001
1.40001
1.40001
1.40001
1.40001
1.40001
1.40001
1.40001
1.40001
1.40001
1.40001
1.40001
1.40001
1.40001
1.40001
1.40001
1.40001
1.40001
1.40001
1.40001
1.40001
1.63626
4.53467
5.49253
5.47892
5.52009
5.57229
5.59354
5.60008
5.5898
5.58365
5.59546
5.62576
5.66332
5.6935
5.711
5.71195
5.69526
5.67373
5.65682
5.65393
5.674
5.71167
5.7419
5.74983
5.73989
5.72113
5.71137
5.70766
5.71282
5.72407
5.74723
5.78202
5.82133
5.85203
5.87066
5.8793
5.88026
5.87037
5.85065
5.82989
5.8131
5.80573
5.80863
5.81986
5.83393
5.84315
5.84888
5.85522
5.86173
5.86636
5.8633
5.85387
5.84039
5.82608
5.81591
5.81254
5.81383
5.8169
5.81829
5.81414
5.8015
5.77788
5.74125
5.69049
5.62575
5.54788
5.45796
5.35875
5.25654
5.16197
5.08552
5.0323
5.00103
4.98619
4.9814
4.98076
4.98374
1.40001
1.40001
1.40001
1.40001
1.40001
1.40001
1.40001
1.40001
1.40001
1.40001
1.40001
1.40001
1.40001
1.40001
1.40001
1.40001
1.40001
1.40001
1.40001
1.40001
1.40001
1.40001
1.40001
1.40001
1.40001
1.40001
1.40001
1.40001
1.40001
1.40001
1.40001
1.40001
1.40001
1.40001
1.40001
1.40001
1.40001
1.40001
1.40001
1.40001
1.40001
1.40001
1.40001
1.40001
1.40001
1.40001
1.40001
1.40001
1.40001
1.40001
1.40001
1.40001
1.40001
1.40001
1.40001
1.40001
1.40001
1.40001
1.40001
1.40001
1.40001
1.40001
1.40001
1.40001
1.40001
1.40001
1.40001
1.40001
1.40001
1.40001
1.40001
1.40001
1.40001
1.40001
1.40001
1.40001
1.40001
1.40001
1.40001
1.40001
1.40001
1.40001
1.40001
1.40001
1.40001
1.40001
1.40001
1.40001
1.40001
1.40001
1.40001
1.40001
1.40001
1.40001
1.40001
1.40001
1.40001
1.40001
1.40001
1.40001
1.40001
1.40001
1.40001
1.40001
1.40001
1.40001
1.40001
1.40001
1.40001
1.40001
1.40001
1.40001
1.40001
1.40001
1.40001
1.59822
4.46887
5.49119
5.48555
5.53301
5.58093
5.59541
5.59709
5.58745
5.58301
5.59466
5.62504
5.66308
5.6933
5.7102
5.71024
5.69277
5.67101
5.65471
5.65231
5.67208
5.70939
5.73942
5.74682
5.73718
5.71996
5.7125
5.7093
5.71456
5.72593
5.74791
5.78153
5.81992
5.85011
5.8688
5.87789
5.87934
5.86967
5.8499
5.82889
5.81176
5.80402
5.80648
5.81715
5.83084
5.8401
5.84658
5.85414
5.86182
5.86721
5.86449
5.85491
5.84096
5.82593
5.8151
5.8113
5.81239
5.81536
5.8167
5.8124
5.79951
5.7756
5.73877
5.68785
5.62278
5.54419
5.45334
5.35318
5.2504
5.15583
5.08011
5.02805
4.99796
4.98393
4.9796
4.97919
4.98226
1.40001
1.40001
1.40001
1.40001
1.40001
1.40001
1.40001
1.40001
1.40001
1.40001
1.40001
1.40001
1.40001
1.40001
1.40001
1.40001
1.40001
1.40001
1.40001
1.40001
1.40001
1.40001
1.40001
1.40001
1.40001
1.40001
1.40001
1.40001
1.40001
1.40001
1.40001
1.40001
1.40001
1.40001
1.40001
1.40001
1.40001
1.40001
1.40001
1.40001
1.40001
1.40001
1.40001
1.40001
1.40001
1.40001
1.40001
1.40001
1.40001
1.40001
1.40001
1.40001
1.40001
1.40001
1.40001
1.40001
1.40001
1.40001
1.40001
1.40001
1.40001
1.40001
1.40001
1.40001
1.40001
1.40001
1.40001
1.40001
1.40001
1.40001
1.40001
1.40001
1.40001
1.40001
1.40001
1.40001
1.40001
1.40001
1.40001
1.40001
1.40001
1.40001
1.40001
1.40001
1.40001
1.40001
1.40001
1.40001
1.40001
1.40001
1.40001
1.40001
1.40001
1.40001
1.40001
1.40001
1.40001
1.40001
1.40001
1.40001
1.40001
1.40001
1.40001
1.40001
1.40001
1.40001
1.40001
1.40001
1.40001
1.40001
1.40001
1.40001
1.40001
1.40001
1.40001
1.55574
4.38856
5.49149
5.49775
5.54917
5.58662
5.59482
5.59325
5.58559
5.58285
5.59358
5.62381
5.66249
5.69302
5.70957
5.70864
5.6901
5.66798
5.65238
5.65055
5.66991
5.70666
5.73638
5.74332
5.73428
5.71902
5.71403
5.71153
5.71663
5.72788
5.74843
5.78069
5.81808
5.84785
5.86681
5.87653
5.8785
5.86898
5.84907
5.82776
5.81028
5.80217
5.8042
5.81426
5.82758
5.83687
5.84414
5.85295
5.86188
5.8681
5.86579
5.85615
5.84164
5.82573
5.81405
5.80977
5.81073
5.81379
5.81525
5.81088
5.79775
5.77346
5.73629
5.68522
5.62023
5.54161
5.4504
5.34969
5.24638
5.15156
5.07609
5.02467
4.9953
4.98171
4.97766
4.97739
4.98053
1.40001
1.40001
1.40001
1.40001
1.40001
1.40001
1.40001
1.40001
1.40001
1.40001
1.40001
1.40001
1.40001
1.40001
1.40001
1.40001
1.40001
1.40001
1.40001
1.40001
1.40001
1.40001
1.40001
1.40001
1.40001
1.40001
1.40001
1.40001
1.40001
1.40001
1.40001
1.40001
1.40001
1.40001
1.40001
1.40001
1.40001
1.40001
1.40001
1.40001
1.40001
1.40001
1.40001
1.40001
1.40001
1.40001
1.40001
1.40001
1.40001
1.40001
1.40001
1.40001
1.40001
1.40001
1.40001
1.40001
1.40001
1.40001
1.40001
1.40001
1.40001
1.40001
1.40001
1.40001
1.40001
1.40001
1.40001
1.40001
1.40001
1.40001
1.40001
1.40001
1.40001
1.40001
1.40001
1.40001
1.40001
1.40001
1.40001
1.40001
1.40001
1.40001
1.40001
1.40001
1.40001
1.40001
1.40001
1.40001
1.40001
1.40001
1.40001
1.40001
1.40001
1.40001
1.40001
1.40001
1.40001
1.40001
1.40001
1.40001
1.40001
1.40001
1.40001
1.40001
1.40001
1.40001
1.40001
1.40001
1.40001
1.40001
1.40001
1.40001
1.40001
1.40001
1.40001
1.5099
4.2945
5.49822
5.51621
5.56232
5.587
5.59135
5.58967
5.58455
5.58299
5.5922
5.6222
5.66175
5.69279
5.70898
5.70693
5.68718
5.66456
5.64973
5.64862
5.66764
5.70354
5.73274
5.73937
5.73136
5.71851
5.71598
5.71447
5.719
5.72978
5.74869
5.77941
5.81571
5.84522
5.86473
5.87527
5.87776
5.8683
5.84816
5.8265
5.80867
5.80016
5.80172
5.81118
5.82419
5.83357
5.84169
5.85181
5.86199
5.86895
5.8671
5.85741
5.84228
5.82537
5.81272
5.80794
5.80884
5.81214
5.81387
5.80953
5.79615
5.77144
5.73391
5.68271
5.6179
5.53978
5.44887
5.34803
5.24433
5.14906
5.07338
5.02209
4.99291
4.97949
4.97563
4.97543
4.97864
1.40001
1.40001
1.40001
1.40001
1.40001
1.40001
1.40001
1.40001
1.40001
1.40001
1.40001
1.40001
1.40001
1.40001
1.40001
1.40001
1.40001
1.40001
1.40001
1.40001
1.40001
1.40001
1.40001
1.40001
1.40001
1.40001
1.40001
1.40001
1.40001
1.40001
1.40001
1.40001
1.40001
1.40001
1.40001
1.40001
1.40001
1.40001
1.40001
1.40001
1.40001
1.40001
1.40001
1.40001
1.40001
1.40001
1.40001
1.40001
1.40001
1.40001
1.40001
1.40001
1.40001
1.40001
1.40001
1.40001
1.40001
1.40001
1.40001
1.40001
1.40001
1.40001
1.40001
1.40001
1.40001
1.40001
1.40001
1.40001
1.40001
1.40001
1.40001
1.40001
1.40001
1.40001
1.40001
1.40001
1.40001
1.40001
1.40001
1.40001
1.40001
1.40001
1.40001
1.40001
1.40001
1.40001
1.40001
1.40001
1.40001
1.40001
1.40001
1.40001
1.40001
1.40001
1.40001
1.40001
1.40001
1.40001
1.40001
1.40001
1.40001
1.40001
1.40001
1.40001
1.40001
1.40001
1.40001
1.40001
1.40001
1.40001
1.40001
1.40001
1.40001
1.40001
1.40001
1.45915
4.19537
5.51574
5.53554
5.5649
5.58193
5.58708
5.58744
5.58418
5.58323
5.59061
5.62021
5.6608
5.69245
5.70819
5.70497
5.68402
5.66082
5.6467
5.64645
5.66533
5.69997
5.72834
5.73492
5.72861
5.71873
5.71842
5.71836
5.72163
5.73148
5.74865
5.77763
5.81271
5.84223
5.8626
5.87411
5.87711
5.86758
5.84714
5.8251
5.80693
5.79798
5.79901
5.80785
5.82062
5.83023
5.83935
5.85084
5.86224
5.8698
5.86831
5.85852
5.8427
5.82476
5.81111
5.80582
5.8067
5.81032
5.81241
5.80818
5.79459
5.76947
5.73161
5.6804
5.61594
5.53844
5.44831
5.34778
5.24374
5.14788
5.07161
5.01989
4.99057
4.97722
4.97346
4.97332
4.97662
1.40001
1.40001
1.40001
1.40001
1.40001
1.40001
1.40001
1.40001
1.40001
1.40001
1.40001
1.40001
1.40001
1.40001
1.40001
1.40001
1.40001
1.40001
1.40001
1.40001
1.40001
1.40001
1.40001
1.40001
1.40001
1.40001
1.40001
1.40001
1.40001
1.40001
1.40001
1.40001
1.40001
1.40001
1.40001
1.40001
1.40001
1.40001
1.40001
1.40001
1.40001
1.40001
1.40001
1.40001
1.40001
1.40001
1.40001
1.40001
1.40001
1.40001
1.40001
1.40001
1.40001
1.40001
1.40001
1.40001
1.40001
1.40001
1.40001
1.40001
1.40001
1.40001
1.40001
1.40001
1.40001
1.40001
1.40001
1.40001
1.40001
1.40001
1.40001
1.40001
1.40001
1.40001
1.40001
1.40001
1.40001
1.40001
1.40001
1.40001
1.40001
1.40001
1.40001
1.40001
1.40001
1.40001
1.40001
1.40001
1.40001
1.40001
1.40001
1.40001
1.40001
1.40001
1.40001
1.40001
1.40001
1.40001
1.40001
1.40001
1.40001
1.40001
1.40001
1.40001
1.40001
1.40001
1.40001
1.40001
1.40001
1.40001
1.40001
1.40001
1.40001
1.40001
1.40001
1.41088
4.11226
5.52803
5.54001
5.55768
5.57498
5.58386
5.58708
5.58462
5.58345
5.58874
5.61782
5.65969
5.69194
5.70701
5.7025
5.68047
5.65679
5.64323
5.6438
5.66272
5.69592
5.72313
5.73012
5.72634
5.72028
5.72156
5.72308
5.72425
5.73281
5.74817
5.77521
5.80904
5.83895
5.8605
5.87305
5.87645
5.86671
5.8459
5.82351
5.80507
5.79564
5.79604
5.80419
5.81678
5.82679
5.83718
5.85017
5.86273
5.87073
5.86941
5.85938
5.84283
5.82388
5.80925
5.80347
5.80432
5.80828
5.81076
5.80668
5.79295
5.76749
5.72941
5.67835
5.61443
5.53772
5.44831
5.34819
5.24392
5.14732
5.07019
5.01779
4.98821
4.97484
4.97115
4.9711
4.97453
1.40001
1.40001
1.40001
1.40001
1.40001
1.40001
1.40001
1.40001
1.40001
1.40001
1.40001
1.40001
1.40001
1.40001
1.40001
1.40001
1.40001
1.40001
1.40001
1.40001
1.40001
1.40001
1.40001
1.40001
1.40001
1.40001
1.40001
1.40001
1.40001
1.40001
1.40001
1.40001
1.40001
1.40001
1.40001
1.40001
1.40001
1.40001
1.40001
1.40001
1.40001
1.40001
1.40001
1.40001
1.40001
1.40001
1.40001
1.40001
1.40001
1.40001
1.40001
1.40001
1.40001
1.40001
1.40001
1.40001
1.40001
1.40001
1.40001
1.40001
1.40001
1.40001
1.40001
1.40001
1.40001
1.40001
1.40001
1.40001
1.40001
1.40001
1.40001
1.40001
1.40001
1.40001
1.40001
1.40001
1.40001
1.40001
1.40001
1.40001
1.40001
1.40001
1.40001
1.40001
1.40001
1.40001
1.40001
1.40001
1.40001
1.40001
1.40001
1.40001
1.40001
1.40001
1.40001
1.40001
1.40001
1.40001
1.40001
1.40001
1.40001
1.40001
1.40001
1.40001
1.40001
1.40001
1.40001
1.40001
1.40001
1.40001
1.40001
1.40001
1.40001
1.40001
1.40001
1.40006
4.00483
5.52459
5.53434
5.54556
5.56929
5.58298
5.58915
5.58609
5.58339
5.58628
5.61509
5.65851
5.69114
5.70521
5.69924
5.67636
5.65268
5.63958
5.64063
5.65936
5.69124
5.71709
5.72531
5.72496
5.72336
5.72566
5.72787
5.72713
5.73395
5.747
5.77199
5.8048
5.83556
5.85851
5.87202
5.87564
5.86553
5.84432
5.82166
5.80308
5.79313
5.79279
5.80011
5.81255
5.82319
5.83513
5.84983
5.8635
5.87178
5.87043
5.85992
5.84265
5.82271
5.80717
5.80093
5.80175
5.80599
5.80882
5.80489
5.79107
5.76537
5.72724
5.67655
5.6134
5.53769
5.44902
5.34912
5.24455
5.14714
5.06899
5.01583
4.98583
4.9723
4.96868
4.96878
4.9724
1.40001
1.40001
1.40001
1.40001
1.40001
1.40001
1.40001
1.40001
1.40001
1.40001
1.40001
1.40001
1.40001
1.40001
1.40001
1.40001
1.40001
1.40001
1.40001
1.40001
1.40001
1.40001
1.40001
1.40001
1.40001
1.40001
1.40001
1.40001
1.40001
1.40001
1.40001
1.40001
1.40001
1.40001
1.40001
1.40001
1.40001
1.40001
1.40001
1.40001
1.40001
1.40001
1.40001
1.40001
1.40001
1.40001
1.40001
1.40001
1.40001
1.40001
1.40001
1.40001
1.40001
1.40001
1.40001
1.40001
1.40001
1.40001
1.40001
1.40001
1.40001
1.40001
1.40001
1.40001
1.40001
1.40001
1.40001
1.40001
1.40001
1.40001
1.40001
1.40001
1.40001
1.40001
1.40001
1.40001
1.40001
1.40001
1.40001
1.40001
1.40001
1.40001
1.40001
1.40001
1.40001
1.40001
1.40001
1.40001
1.40001
1.40001
1.40001
1.40001
1.40001
1.40001
1.40001
1.40001
1.40001
1.40001
1.40001
1.40001
1.40001
1.40001
1.40001
1.40001
1.40001
1.40001
1.40001
1.40001
1.40001
1.40001
1.40001
1.40001
1.40001
1.40001
1.40001
1.40001
3.87461
5.51317
5.52287
5.53504
5.56697
5.58538
5.5934
5.58794
5.58215
5.58312
5.61247
5.65748
5.68995
5.70251
5.69494
5.67159
5.64864
5.63611
5.63708
5.65482
5.68563
5.71042
5.72103
5.7249
5.72767
5.73093
5.73237
5.73025
5.73469
5.7449
5.76801
5.80028
5.83231
5.85673
5.87096
5.87453
5.86392
5.8423
5.81952
5.80092
5.79047
5.78926
5.79558
5.80787
5.81939
5.83321
5.84978
5.86455
5.87302
5.87144
5.86019
5.84209
5.82123
5.80489
5.79824
5.79903
5.80348
5.80656
5.80271
5.78881
5.76298
5.72497
5.6749
5.61283
5.53836
5.45075
5.35118
5.2461
5.14768
5.06833
5.01411
4.9834
4.96959
4.96602
4.96634
4.97021
1.40001
1.40001
1.40001
1.40001
1.40001
1.40001
1.40001
1.40001
1.40001
1.40001
1.40001
1.40001
1.40001
1.40001
1.40001
1.40001
1.40001
1.40001
1.40001
1.40001
1.40001
1.40001
1.40001
1.40001
1.40001
1.40001
1.40001
1.40001
1.40001
1.40001
1.40001
1.40001
1.40001
1.40001
1.40001
1.40001
1.40001
1.40001
1.40001
1.40001
1.40001
1.40001
1.40001
1.40001
1.40001
1.40001
1.40001
1.40001
1.40001
1.40001
1.40001
1.40001
1.40001
1.40001
1.40001
1.40001
1.40001
1.40001
1.40001
1.40001
1.40001
1.40001
1.40001
1.40001
1.40001
1.40001
1.40001
1.40001
1.40001
1.40001
1.40001
1.40001
1.40001
1.40001
1.40001
1.40001
1.40001
1.40001
1.40001
1.40001
1.40001
1.40001
1.40001
1.40001
1.40001
1.40001
1.40001
1.40001
1.40001
1.40001
1.40001
1.40001
1.40001
1.40001
1.40001
1.40001
1.40001
1.40001
1.40001
1.40001
1.40001
1.40001
1.40001
1.40001
1.40001
1.40001
1.40001
1.40001
1.40001
1.40001
1.40001
1.40001
1.40001
1.40001
1.40001
1.40001
3.73403
5.49405
5.5108
5.52977
5.56835
5.59099
5.59816
5.58898
5.57916
5.57998
5.61062
5.65637
5.68779
5.69855
5.68963
5.66639
5.64492
5.63299
5.63335
5.64908
5.67891
5.70355
5.71806
5.72627
5.733
5.73728
5.73633
5.73286
5.73472
5.74182
5.76355
5.79584
5.82939
5.85514
5.86973
5.87299
5.86179
5.83987
5.81711
5.79856
5.78758
5.78539
5.79056
5.80274
5.81541
5.83143
5.84997
5.86581
5.87444
5.87245
5.86021
5.84113
5.81942
5.80241
5.79543
5.7962
5.80076
5.80397
5.80011
5.78609
5.76018
5.72244
5.67322
5.61254
5.53967
5.45341
5.35435
5.24877
5.14911
5.06824
5.01258
4.9809
4.96668
4.96315
4.96373
4.9679
1.40001
1.40001
1.40001
1.40001
1.40001
1.40001
1.40001
1.40001
1.40001
1.40001
1.40001
1.40001
1.40001
1.40001
1.40001
1.40001
1.40001
1.40001
1.40001
1.40001
1.40001
1.40001
1.40001
1.40001
1.40001
1.40001
1.40001
1.40001
1.40001
1.40001
1.40001
1.40001
1.40001
1.40001
1.40001
1.40001
1.40001
1.40001
1.40001
1.40001
1.40001
1.40001
1.40001
1.40001
1.40001
1.40001
1.40001
1.40001
1.40001
1.40001
1.40001
1.40001
1.40001
1.40001
1.40001
1.40001
1.40001
1.40001
1.40001
1.40001
1.40001
1.40001
1.40001
1.40001
1.40001
1.40001
1.40001
1.40001
1.40001
1.40001
1.40001
1.40001
1.40001
1.40001
1.40001
1.40001
1.40001
1.40001
1.40001
1.40001
1.40001
1.40001
1.40001
1.40001
1.40001
1.40001
1.40001
1.40001
1.40001
1.40001
1.40001
1.40001
1.40001
1.40001
1.40001
1.40001
1.40001
1.40001
1.40001
1.40001
1.40001
1.40001
1.40001
1.40001
1.40001
1.40001
1.40001
1.40001
1.40001
1.40001
1.40001
1.40001
1.40001
1.40001
1.40001
1.40001
3.58393
5.46258
5.50366
5.53201
5.57216
5.59615
5.60166
5.58902
5.57463
5.57797
5.60965
5.65446
5.68402
5.69326
5.68364
5.66123
5.64158
5.63009
5.62943
5.64237
5.67119
5.69715
5.71676
5.72955
5.73938
5.74328
5.73981
5.73435
5.73351
5.73801
5.75896
5.79178
5.8269
5.85367
5.86818
5.87087
5.85914
5.8371
5.81448
5.796
5.78439
5.78106
5.78501
5.7972
5.81134
5.82983
5.85041
5.86725
5.87593
5.87339
5.86003
5.83982
5.81727
5.7997
5.79246
5.79324
5.79787
5.80108
5.79711
5.78288
5.75689
5.71952
5.67136
5.61235
5.54141
5.45676
5.3584
5.25242
5.15137
5.06864
5.01122
4.97831
4.96354
4.96001
4.96089
4.9654
1.40001
1.40001
1.40001
1.40001
1.40001
1.40001
1.40001
1.40001
1.40001
1.40001
1.40001
1.40001
1.40001
1.40001
1.40001
1.40001
1.40001
1.40001
1.40001
1.40001
1.40001
1.40001
1.40001
1.40001
1.40001
1.40001
1.40001
1.40001
1.40001
1.40001
1.40001
1.40001
1.40001
1.40001
1.40001
1.40001
1.40001
1.40001
1.40001
1.40001
1.40001
1.40001
1.40001
1.40001
1.40001
1.40001
1.40001
1.40001
1.40001
1.40001
1.40001
1.40001
1.40001
1.40001
1.40001
1.40001
1.40001
1.40001
1.40001
1.40001
1.40001
1.40001
1.40001
1.40001
1.40001
1.40001
1.40001
1.40001
1.40001
1.40001
1.40001
1.40001
1.40001
1.40001
1.40001
1.40001
1.40001
1.40001
1.40001
1.40001
1.40001
1.40001
1.40001
1.40001
1.40001
1.40001
1.40001
1.40001
1.40001
1.40001
1.40001
1.40001
1.40001
1.40001
1.40001
1.40001
1.40001
1.40001
1.40001
1.40001
1.40001
1.40001
1.40001
1.40001
1.40001
1.40001
1.40001
1.40001
1.40001
1.40001
1.40001
1.40001
1.40001
1.40001
1.40001
1.40001
3.42706
5.41989
5.5024
5.53902
5.57644
5.59999
5.60351
5.5883
5.57106
5.57698
5.60795
5.65017
5.67834
5.68713
5.67755
5.65652
5.63843
5.62714
5.62522
5.63485
5.66311
5.69217
5.71725
5.73452
5.7461
5.74841
5.74243
5.73467
5.73105
5.73366
5.75453
5.78826
5.82477
5.85215
5.86616
5.86811
5.85601
5.83413
5.81173
5.79321
5.78081
5.77616
5.77889
5.79134
5.80734
5.82853
5.85109
5.86877
5.87734
5.87416
5.85965
5.83823
5.81483
5.79677
5.78931
5.79012
5.79478
5.79793
5.79372
5.77916
5.75304
5.71611
5.66924
5.6122
5.5435
5.46066
5.36313
5.25677
5.15423
5.06939
5.00994
4.97557
4.96015
4.95659
4.95777
4.96265
1.40001
1.40001
1.40001
1.40001
1.40001
1.40001
1.40001
1.40001
1.40001
1.40001
1.40001
1.40001
1.40001
1.40001
1.40001
1.40001
1.40001
1.40001
1.40001
1.40001
1.40001
1.40001
1.40001
1.40001
1.40001
1.40001
1.40001
1.40001
1.40001
1.40001
1.40001
1.40001
1.40001
1.40001
1.40001
1.40001
1.40001
1.40001
1.40001
1.40001
1.40001
1.40001
1.40001
1.40001
1.40001
1.40001
1.40001
1.40001
1.40001
1.40001
1.40001
1.40001
1.40001
1.40001
1.40001
1.40001
1.40001
1.40001
1.40001
1.40001
1.40001
1.40001
1.40001
1.40001
1.40001
1.40001
1.40001
1.40001
1.40001
1.40001
1.40001
1.40001
1.40001
1.40001
1.40001
1.40001
1.40001
1.40001
1.40001
1.40001
1.40001
1.40001
1.40001
1.40001
1.40001
1.40001
1.40001
1.40001
1.40001
1.40001
1.40001
1.40001
1.40001
1.40001
1.40001
1.40001
1.40001
1.40001
1.40001
1.40001
1.40001
1.40001
1.40001
1.40001
1.40001
1.40001
1.40001
1.40001
1.40001
1.40001
1.40001
1.40001
1.40001
1.40001
1.40001
1.40001
3.26469
5.37256
5.50615
5.54661
5.58276
5.60318
5.60262
5.58567
5.56987
5.57503
5.60371
5.64354
5.67166
5.68097
5.67168
5.65227
5.63516
5.62376
5.62048
5.62682
5.6558
5.68946
5.71967
5.74018
5.75221
5.75287
5.74389
5.73374
5.72762
5.72932
5.75063
5.7853
5.82277
5.8503
5.86348
5.86464
5.85246
5.83103
5.80889
5.79018
5.77683
5.7706
5.77217
5.7853
5.80364
5.82768
5.85196
5.87023
5.87857
5.87468
5.85905
5.83641
5.81219
5.79366
5.78598
5.7868
5.79145
5.79446
5.78995
5.77495
5.74865
5.71221
5.66679
5.61203
5.54587
5.46503
5.36841
5.26168
5.15755
5.07036
5.00863
4.97265
4.95648
4.95286
4.95434
4.9596
1.40001
1.40001
1.40001
1.40001
1.40001
1.40001
1.40001
1.40001
1.40001
1.40001
1.40001
1.40001
1.40001
1.40001
1.40001
1.40001
1.40001
1.40001
1.40001
1.40001
1.40001
1.40001
1.40001
1.40001
1.40001
1.40001
1.40001
1.40001
1.40001
1.40001
1.40001
1.40001
1.40001
1.40001
1.40001
1.40001
1.40001
1.40001
1.40001
1.40001
1.40001
1.40001
1.40001
1.40001
1.40001
1.40001
1.40001
1.40001
1.40001
1.40001
1.40001
1.40001
1.40001
1.40001
1.40001
1.40001
1.40001
1.40001
1.40001
1.40001
1.40001
1.40001
1.40001
1.40001
1.40001
1.40001
1.40001
1.40001
1.40001
1.40001
1.40001
1.40001
1.40001
1.40001
1.40001
1.40001
1.40001
1.40001
1.40001
1.40001
1.40001
1.40001
1.40001
1.40001
1.40001
1.40001
1.40001
1.40001
1.40001
1.40001
1.40001
1.40001
1.40001
1.40001
1.40001
1.40001
1.40001
1.40001
1.40001
1.40001
1.40001
1.40001
1.40001
1.40001
1.40001
1.40001
1.40001
1.40001
1.40001
1.40001
1.40001
1.40001
1.40001
1.40001
1.40001
1.40001
3.09878
5.32228
5.50952
5.5502
5.59024
5.60816
5.60293
5.58007
5.56887
5.57073
5.59683
5.63591
5.66498
5.67497
5.66597
5.64828
5.63159
5.61955
5.61474
5.61967
5.65047
5.68914
5.72362
5.74576
5.7573
5.75628
5.74414
5.73127
5.72359
5.72577
5.74742
5.78269
5.82055
5.84784
5.86007
5.8605
5.84855
5.82787
5.80597
5.78687
5.77243
5.76438
5.76498
5.77936
5.80045
5.82726
5.85289
5.87147
5.87947
5.8749
5.8582
5.83441
5.80947
5.79049
5.7825
5.78323
5.78777
5.79059
5.78575
5.77027
5.74375
5.70781
5.66403
5.61183
5.54844
5.46976
5.37412
5.26701
5.16118
5.07146
5.00723
4.96947
4.9525
4.9488
4.95058
4.95622
1.40001
1.40001
1.40001
1.40001
1.40001
1.40001
1.40001
1.40001
1.40001
1.40001
1.40001
1.40001
1.40001
1.40001
1.40001
1.40001
1.40001
1.40001
1.40001
1.40001
1.40001
1.40001
1.40001
1.40001
1.40001
1.40001
1.40001
1.40001
1.40001
1.40001
1.40001
1.40001
1.40001
1.40001
1.40001
1.40001
1.40001
1.40001
1.40001
1.40001
1.40001
1.40001
1.40001
1.40001
1.40001
1.40001
1.40001
1.40001
1.40001
1.40001
1.40001
1.40001
1.40001
1.40001
1.40001
1.40001
1.40001
1.40001
1.40001
1.40001
1.40001
1.40001
1.40001
1.40001
1.40001
1.40001
1.40001
1.40001
1.40001
1.40001
1.40001
1.40001
1.40001
1.40001
1.40001
1.40001
1.40001
1.40001
1.40001
1.40001
1.40001
1.40001
1.40001
1.40001
1.40001
1.40001
1.40001
1.40001
1.40001
1.40001
1.40001
1.40001
1.40001
1.40001
1.40001
1.40001
1.40001
1.40001
1.40001
1.40001
1.40001
1.40001
1.40001
1.40001
1.40001
1.40001
1.40001
1.40001
1.40001
1.40001
1.40001
1.40001
1.40001
1.40001
1.40001
1.40001
2.93482
5.26672
5.50591
5.54972
5.59555
5.61
5.60074
5.57315
5.56395
5.56401
5.5895
5.62886
5.65883
5.66892
5.66022
5.64428
5.62783
5.6146
5.60777
5.61482
5.64768
5.69101
5.72843
5.75098
5.76093
5.75785
5.74314
5.72778
5.71991
5.72351
5.74503
5.78011
5.81772
5.84452
5.85586
5.85574
5.84434
5.82466
5.80302
5.78326
5.76743
5.75756
5.75777
5.77379
5.79794
5.82719
5.85373
5.87233
5.87996
5.87474
5.85708
5.83231
5.80682
5.78741
5.77896
5.77942
5.78369
5.78622
5.78104
5.7651
5.73837
5.70299
5.66099
5.61158
5.55116
5.47475
5.38013
5.27262
5.16501
5.07259
5.00567
4.96602
4.94819
4.94439
4.94648
4.95252
1.40001
1.40001
1.40001
1.40001
1.40001
1.40001
1.40001
1.40001
1.40001
1.40001
1.40001
1.40001
1.40001
1.40001
1.40001
1.40001
1.40001
1.40001
1.40001
1.40001
1.40001
1.40001
1.40001
1.40001
1.40001
1.40001
1.40001
1.40001
1.40001
1.40001
1.40001
1.40001
1.40001
1.40001