/*--------------------------------*- C++ -*----------------------------------*\
  =========                 |
  \\      /  F ield         | OpenFOAM: The Open Source CFD Toolbox
   \\    /   O peration     | Website:  https://openfoam.org
    \\  /    A nd           | Version:  7
     \\/     M anipulation  |
\*---------------------------------------------------------------------------*/
FoamFile
{
    version     2.0;
    format      ascii;
    class       volScalarField;
    location    "0.7";
    object      T;
}
// * * * * * * * * * * * * * * * * * * * * * * * * * * * * * * * * * * * * * //

dimensions      [0 0 0 1 0 0 0];

internalField   nonuniform List<scalar> 
258048
(
1
1
1
1
1
1
1
1
1
1
1
1
1
1
1
1
1
1
1
1
1
1
1
1
1
1
1
1
1
1
1
1
1
1
1
1
1
1
1
1
1
1
1
1
1
1
1
1
1
1
1
1
1
1
1
1
1
1
1
1
1
1
1
1
1
1
1
1
1
1
1
1
1
1
1
1
1
1
1
1
1
1
1
1
1
1
1
1
1
1
1
1
1
1
1
1
1
1
1
1
1
1
1
1
1
1
1
1
1
1
1
1
1
1
1
1.31858
2.50843
2.75154
2.79429
2.81714
2.82118
2.81934
2.81432
2.8091
2.80863
2.81395
2.82705
2.83968
2.84505
2.84532
2.84441
2.8403
2.83723
2.83648
2.83762
2.84285
2.85055
2.85626
2.85823
2.85678
2.85346
2.85126
2.85119
2.85241
2.85494
2.86078
2.86892
2.87788
2.88484
2.88919
2.89169
2.89255
2.89106
2.8883
2.88537
2.88368
2.88425
2.88685
2.8917
2.89666
2.9007
2.90429
2.90817
2.91263
2.9182
2.92309
2.92661
2.92997
2.93396
2.93925
2.94644
2.95592
2.96772
2.98066
2.99357
3.00594
3.01824
3.03095
3.04535
3.0638
3.08964
3.12632
3.17573
3.23665
3.30437
3.37105
3.42847
3.47133
3.49902
3.51472
3.52258
3.52587
1
1
1
1
1
1
1
1
1
1
1
1
1
1
1
1
1
1
1
1
1
1
1
1
1
1
1
1
1
1
1
1
1
1
1
1
1
1
1
1
1
1
1
1
1
1
1
1
1
1
1
1
1
1
1
1
1
1
1
1
1
1
1
1
1
1
1
1
1
1
1
1
1
1
1
1
1
1
1
1
1
1
1
1
1
1
1
1
1
1
1
1
1
1
1
1
1
1
1
1
1
1
1
1
1
1
1
1
1
1
1
1
1
1
1
1.31346
2.50543
2.75161
2.79481
2.81777
2.82147
2.81979
2.81435
2.80888
2.80853
2.81409
2.82725
2.83985
2.84512
2.84525
2.84432
2.84018
2.83717
2.83645
2.83761
2.84282
2.85049
2.85616
2.8581
2.85666
2.85341
2.85135
2.85129
2.85254
2.85509
2.86086
2.86894
2.87783
2.88475
2.8891
2.89163
2.89252
2.89105
2.88828
2.88533
2.88362
2.88417
2.88675
2.89157
2.89653
2.90059
2.90423
2.90816
2.91266
2.91825
2.92312
2.92665
2.93002
2.934
2.93931
2.9465
2.95597
2.96775
2.98065
2.99353
3.00593
3.01827
3.03106
3.04554
3.06408
3.09004
3.12683
3.17635
3.23729
3.30492
3.37144
3.42867
3.47139
3.499
3.51466
3.52252
3.52581
1
1
1
1
1
1
1
1
1
1
1
1
1
1
1
1
1
1
1
1
1
1
1
1
1
1
1
1
1
1
1
1
1
1
1
1
1
1
1
1
1
1
1
1
1
1
1
1
1
1
1
1
1
1
1
1
1
1
1
1
1
1
1
1
1
1
1
1
1
1
1
1
1
1
1
1
1
1
1
1
1
1
1
1
1
1
1
1
1
1
1
1
1
1
1
1
1
1
1
1
1
1
1
1
1
1
1
1
1
1
1
1
1
1
1
1.30181
2.49886
2.7524
2.79613
2.81862
2.82216
2.82032
2.81454
2.80855
2.8084
2.81434
2.82759
2.84004
2.84513
2.84516
2.84424
2.84005
2.83708
2.83638
2.83753
2.84273
2.85036
2.856
2.8579
2.85647
2.85329
2.85144
2.85138
2.85271
2.85529
2.86097
2.86897
2.87776
2.88462
2.88896
2.89153
2.89247
2.89103
2.88826
2.88529
2.88354
2.88404
2.88658
2.89136
2.8963
2.9004
2.90412
2.90814
2.91273
2.91835
2.9232
2.9267
2.93009
2.93407
2.93939
2.9466
2.95607
2.96782
2.98069
2.99357
3.00603
3.01848
3.03141
3.04611
3.06494
3.09125
3.12844
3.17827
3.2393
3.30672
3.37278
3.42946
3.47174
3.49909
3.51463
3.52246
3.52576
1
1
1
1
1
1
1
1
1
1
1
1
1
1
1
1
1
1
1
1
1
1
1
1
1
1
1
1
1
1
1
1
1
1
1
1
1
1
1
1
1
1
1
1
1
1
1
1
1
1
1
1
1
1
1
1
1
1
1
1
1
1
1
1
1
1
1
1
1
1
1
1
1
1
1
1
1
1
1
1
1
1
1
1
1
1
1
1
1
1
1
1
1
1
1
1
1
1
1
1
1
1
1
1
1
1
1
1
1
1
1
1
1
1
1
1.28451
2.48841
2.75306
2.79804
2.81975
2.82314
2.82079
2.81455
2.80807
2.80826
2.81479
2.8281
2.84026
2.84505
2.84498
2.84403
2.83985
2.83698
2.8363
2.83743
2.84256
2.85011
2.85572
2.8576
2.85622
2.85319
2.8516
2.85158
2.85297
2.85559
2.86114
2.86901
2.87767
2.88444
2.88876
2.89139
2.89239
2.891
2.88823
2.88522
2.88341
2.88386
2.88633
2.89105
2.89596
2.9001
2.90393
2.9081
2.9128
2.91848
2.92333
2.9268
2.93018
2.93414
2.93944
2.94667
2.95614
2.96787
2.98072
2.99359
3.00614
3.01874
3.03192
3.04697
3.0663
3.09327
3.13119
3.18165
3.24295
3.31007
3.37534
3.43107
3.47252
3.49934
3.51461
3.52235
3.52565
1
1
1
1
1
1
1
1
1
1
1
1
1
1
1
1
1
1
1
1
1
1
1
1
1
1
1
1
1
1
1
1
1
1
1
1
1
1
1
1
1
1
1
1
1
1
1
1
1
1
1
1
1
1
1
1
1
1
1
1
1
1
1
1
1
1
1
1
1
1
1
1
1
1
1
1
1
1
1
1
1
1
1
1
1
1
1
1
1
1
1
1
1
1
1
1
1
1
1
1
1
1
1
1
1
1
1
1
1
1
1
1
1
1
1
1.26134
2.47403
2.75361
2.80024
2.82117
2.82426
2.8212
2.81417
2.8075
2.80812
2.81525
2.82858
2.84039
2.84484
2.84468
2.84373
2.83961
2.83686
2.8362
2.83729
2.84231
2.84974
2.85533
2.85719
2.8559
2.85309
2.85182
2.85183
2.85329
2.85596
2.86133
2.86904
2.87754
2.88421
2.88852
2.89121
2.89229
2.89095
2.88819
2.88513
2.88325
2.88363
2.88603
2.89065
2.89552
2.89969
2.90365
2.90799
2.91285
2.91863
2.9235
2.9269
2.93025
2.93417
2.93943
2.94665
2.95613
2.96785
2.98069
2.99356
3.00618
3.01891
3.03234
3.04782
3.0678
3.09563
3.13456
3.18591
3.24766
3.31449
3.37881
3.43329
3.47361
3.49968
3.51459
3.5222
3.52547
1
1
1
1
1
1
1
1
1
1
1
1
1
1
1
1
1
1
1
1
1
1
1
1
1
1
1
1
1
1
1
1
1
1
1
1
1
1
1
1
1
1
1
1
1
1
1
1
1
1
1
1
1
1
1
1
1
1
1
1
1
1
1
1
1
1
1
1
1
1
1
1
1
1
1
1
1
1
1
1
1
1
1
1
1
1
1
1
1
1
1
1
1
1
1
1
1
1
1
1
1
1
1
1
1
1
1
1
1
1
1
1
1
1
1
1.23236
2.45575
2.75471
2.8028
2.82303
2.82538
2.82129
2.81306
2.80675
2.80794
2.81564
2.82898
2.84042
2.84452
2.84429
2.84331
2.83928
2.83665
2.836
2.83705
2.84192
2.84922
2.85479
2.85665
2.85548
2.85298
2.85209
2.85215
2.85365
2.85635
2.86151
2.86903
2.87736
2.88393
2.88824
2.891
2.89217
2.89088
2.88811
2.88501
2.88305
2.88336
2.88568
2.89019
2.89499
2.89917
2.90327
2.90781
2.91285
2.91877
2.92369
2.92702
2.9303
2.93413
2.93932
2.94651
2.95599
2.96772
2.98057
2.99344
3.00612
3.01891
3.03251
3.04836
3.06897
3.09773
3.13774
3.19011
3.25244
3.31907
3.38248
3.43567
3.47478
3.50001
3.51453
3.52198
3.52521
1
1
1
1
1
1
1
1
1
1
1
1
1
1
1
1
1
1
1
1
1
1
1
1
1
1
1
1
1
1
1
1
1
1
1
1
1
1
1
1
1
1
1
1
1
1
1
1
1
1
1
1
1
1
1
1
1
1
1
1
1
1
1
1
1
1
1
1
1
1
1
1
1
1
1
1
1
1
1
1
1
1
1
1
1
1
1
1
1
1
1
1
1
1
1
1
1
1
1
1
1
1
1
1
1
1
1
1
1
1
1
1
1
1
1
1.1979
2.43371
2.75692
2.80615
2.82538
2.82641
2.82075
2.81114
2.8059
2.80773
2.81592
2.82925
2.84033
2.8441
2.84378
2.84278
2.83886
2.83632
2.83569
2.83669
2.84141
2.84856
2.85412
2.85597
2.85496
2.85283
2.85238
2.85252
2.85403
2.85673
2.86166
2.86894
2.8771
2.88358
2.88792
2.89077
2.89203
2.89078
2.888
2.88484
2.8828
2.88304
2.88528
2.88966
2.89437
2.89856
2.9028
2.90756
2.91281
2.91889
2.92386
2.92712
2.93031
2.93401
2.93906
2.94618
2.95566
2.96743
2.98032
2.99319
3.00589
3.01874
3.03243
3.0485
3.06959
3.09913
3.14013
3.19344
3.25635
3.32292
3.3856
3.4377
3.47574
3.50021
3.51437
3.52169
3.52486
1
1
1
1
1
1
1
1
1
1
1
1
1
1
1
1
1
1
1
1
1
1
1
1
1
1
1
1
1
1
1
1
1
1
1
1
1
1
1
1
1
1
1
1
1
1
1
1
1
1
1
1
1
1
1
1
1
1
1
1
1
1
1
1
1
1
1
1
1
1
1
1
1
1
1
1
1
1
1
1
1
1
1
1
1
1
1
1
1
1
1
1
1
1
1
1
1
1
1
1
1
1
1
1
1
1
1
1
1
1
1
1
1
1
1
1.15835
2.408
2.7609
2.81072
2.82782
2.82725
2.8191
2.80861
2.80497
2.80748
2.81611
2.82943
2.84014
2.84362
2.84324
2.84217
2.83836
2.83587
2.83524
2.83621
2.84076
2.84775
2.85328
2.85513
2.85437
2.85266
2.85267
2.85297
2.85442
2.85708
2.86174
2.86876
2.87672
2.88314
2.88755
2.89052
2.89187
2.89065
2.88783
2.88462
2.8825
2.88266
2.88484
2.88907
2.89369
2.89788
2.90227
2.90726
2.91272
2.91897
2.92401
2.92719
2.93027
2.93377
2.93863
2.94564
2.95513
2.96697
2.9799
2.99277
3.00546
3.01832
3.0321
3.04832
3.0697
3.09975
3.14149
3.19556
3.25897
3.32554
3.38774
3.43904
3.47631
3.50022
3.51412
3.52133
3.52446
1
1
1
1
1
1
1
1
1
1
1
1
1
1
1
1
1
1
1
1
1
1
1
1
1
1
1
1
1
1
1
1
1
1
1
1
1
1
1
1
1
1
1
1
1
1
1
1
1
1
1
1
1
1
1
1
1
1
1
1
1
1
1
1
1
1
1
1
1
1
1
1
1
1
1
1
1
1
1
1
1
1
1
1
1
1
1
1
1
1
1
1
1
1
1
1
1
1
1
1
1
1
1
1
1
1
1
1
1
1
1
1
1
1
1
1.11463
2.37927
2.76743
2.81676
2.82957
2.82688
2.81634
2.80606
2.80402
2.8073
2.81633
2.82959
2.83992
2.8431
2.84266
2.84148
2.83777
2.8353
2.83467
2.8356
2.84
2.8468
2.85228
2.85416
2.85373
2.85252
2.85301
2.85349
2.85479
2.85735
2.86172
2.86844
2.87619
2.88259
2.88712
2.89025
2.89171
2.89049
2.88762
2.88434
2.88214
2.88223
2.88434
2.88841
2.89296
2.89717
2.90172
2.90694
2.91261
2.919
2.92411
2.92721
2.93015
2.93344
2.93808
2.94496
2.95443
2.96634
2.97934
2.99221
3.00486
3.01768
3.03148
3.04783
3.06944
3.09981
3.14198
3.19654
3.26032
3.32694
3.38886
3.43969
3.47649
3.50006
3.51377
3.5209
3.52401
1
1
1
1
1
1
1
1
1
1
1
1
1
1
1
1
1
1
1
1
1
1
1
1
1
1
1
1
1
1
1
1
1
1
1
1
1
1
1
1
1
1
1
1
1
1
1
1
1
1
1
1
1
1
1
1
1
1
1
1
1
1
1
1
1
1
1
1
1
1
1
1
1
1
1
1
1
1
1
1
1
1
1
1
1
1
1
1
1
1
1
1
1
1
1
1
1
1
1
1
1
1
1
1
1
1
1
1
1
1
1
1
1
1
1
1.06625
2.34932
2.77741
2.82293
2.8292
2.82473
2.81304
2.80378
2.80312
2.80735
2.81671
2.82974
2.83963
2.84252
2.842
2.8407
2.83711
2.83466
2.83399
2.83489
2.83916
2.84571
2.8511
2.85307
2.85309
2.85246
2.85343
2.85415
2.85513
2.85752
2.86159
2.86799
2.8755
2.88192
2.88665
2.88997
2.89152
2.89029
2.88735
2.884
2.88171
2.88173
2.88376
2.88766
2.89215
2.89641
2.90117
2.90662
2.9125
2.91901
2.92416
2.92719
2.92997
2.93303
2.93743
2.94415
2.95361
2.96559
2.97864
2.9915
3.00407
3.01682
3.03059
3.04701
3.06883
3.0995
3.14199
3.19685
3.26082
3.32747
3.38924
3.43985
3.47639
3.49969
3.5133
3.5204
3.52351
1
1
1
1
1
1
1
1
1
1
1
1
1
1
1
1
1
1
1
1
1
1
1
1
1
1
1
1
1
1
1
1
1
1
1
1
1
1
1
1
1
1
1
1
1
1
1
1
1
1
1
1
1
1
1
1
1
1
1
1
1
1
1
1
1
1
1
1
1
1
1
1
1
1
1
1
1
1
1
1
1
1
1
1
1
1
1
1
1
1
1
1
1
1
1
1
1
1
1
1
1
1
1
1
1
1
1
1
1
1
1
1
1
1
1
1.01482
2.32175
2.78772
2.82548
2.82684
2.82135
2.80949
2.80197
2.8024
2.80782
2.81726
2.82985
2.83923
2.8418
2.84121
2.8398
2.83639
2.83399
2.83326
2.83411
2.83822
2.84446
2.84975
2.85191
2.8525
2.85262
2.85396
2.85491
2.85541
2.85758
2.86134
2.86737
2.87465
2.88117
2.88614
2.88967
2.89129
2.89001
2.88699
2.88358
2.88123
2.88116
2.88311
2.88681
2.89127
2.89562
2.90062
2.90633
2.91241
2.919
2.92417
2.9271
2.92971
2.93254
2.9367
2.94327
2.9527
2.96473
2.97782
2.99066
3.00313
3.01575
3.02945
3.0459
3.06787
3.09883
3.14169
3.1968
3.26088
3.32754
3.38924
3.4397
3.47602
3.49914
3.51271
3.51984
3.52297
1
1
1
1
1
1
1
1
1
1
1
1
1
1
1
1
1
1
1
1
1
1
1
1
1
1
1
1
1
1
1
1
1
1
1
1
1
1
1
1
1
1
1
1
1
1
1
1
1
1
1
1
1
1
1
1
1
1
1
1
1
1
1
1
1
1
1
1
1
1
1
1
1
1
1
1
1
1
1
1
1
1
1
1
1
1
1
1
1
1
1
1
1
1
1
1
1
1
1
1
1
1
1
1
1
1
1
1
1
1
1
1
1
1
1
1.00006
2.29455
2.79642
2.82525
2.82368
2.81705
2.80599
2.80079
2.80212
2.80865
2.81789
2.82985
2.83865
2.84087
2.84021
2.83872
2.83558
2.83333
2.83254
2.83329
2.8371
2.84307
2.84825
2.85076
2.85209
2.85311
2.85457
2.85557
2.85569
2.85757
2.86093
2.86657
2.87365
2.88036
2.88562
2.88933
2.891
2.88964
2.88654
2.88308
2.88069
2.88053
2.88237
2.88584
2.89028
2.89478
2.90009
2.90609
2.91235
2.91899
2.92413
2.92692
2.92937
2.93198
2.9359
2.94234
2.95173
2.96379
2.97689
2.98968
3.00202
3.01451
3.0281
3.04453
3.06658
3.09776
3.1409
3.19629
3.26055
3.32726
3.38893
3.43923
3.4754
3.49842
3.51202
3.51922
3.52239
1
1
1
1
1
1
1
1
1
1
1
1
1
1
1
1
1
1
1
1
1
1
1
1
1
1
1
1
1
1
1
1
1
1
1
1
1
1
1
1
1
1
1
1
1
1
1
1
1
1
1
1
1
1
1
1
1
1
1
1
1
1
1
1
1
1
1
1
1
1
1
1
1
1
1
1
1
1
1
1
1
1
1
1
1
1
1
1
1
1
1
1
1
1
1
1
1
1
1
1
1
1
1
1
1
1
1
1
1
1
1
1
1
1
1
1
2.26496
2.80439
2.82318
2.81974
2.81259
2.80295
2.80015
2.80231
2.80976
2.81853
2.82972
2.83784
2.83964
2.83891
2.8374
2.83467
2.83273
2.83189
2.83241
2.83577
2.84151
2.84663
2.84973
2.85197
2.85385
2.85534
2.85605
2.85598
2.85749
2.86032
2.86559
2.87258
2.87955
2.88509
2.88895
2.89062
2.88916
2.88597
2.8825
2.88009
2.87985
2.88154
2.88473
2.88917
2.89388
2.89956
2.90589
2.91233
2.919
2.92406
2.92666
2.92895
2.93135
2.93506
2.94137
2.95073
2.96279
2.97588
2.98859
3.00079
3.01311
3.02658
3.04295
3.065
3.09626
3.13955
3.19513
3.25958
3.32642
3.38809
3.43838
3.47451
3.49754
3.51122
3.51853
3.52176
1
1
1
1
1
1
1
1
1
1
1
1
1
1
1
1
1
1
1
1
1
1
1
1
1
1
1
1
1
1
1
1
1
1
1
1
1
1
1
1
1
1
1
1
1
1
1
1
1
1
1
1
1
1
1
1
1
1
1
1
1
1
1
1
1
1
1
1
1
1
1
1
1
1
1
1
1
1
1
1
1
1
1
1
1
1
1
1
1
1
1
1
1
1
1
1
1
1
1
1
1
1
1
1
1
1
1
1
1
1
1
1
1
1
1
1
2.23087
2.81071
2.8202
2.81567
2.80824
2.80051
2.79975
2.80293
2.8111
2.81924
2.82948
2.83671
2.83798
2.83721
2.83588
2.83371
2.83222
2.83134
2.83149
2.83422
2.83977
2.84499
2.84897
2.85211
2.85477
2.85631
2.85638
2.8562
2.85726
2.85945
2.86448
2.8715
2.87879
2.88458
2.8885
2.89012
2.88855
2.88529
2.88183
2.87944
2.87912
2.88063
2.88348
2.88792
2.89291
2.89903
2.90571
2.91233
2.91902
2.92396
2.92633
2.92844
2.93063
2.93415
2.94036
2.94971
2.96176
2.97479
2.98739
2.99944
3.0116
3.02494
3.04123
3.06323
3.09445
3.13774
3.19338
3.25794
3.32493
3.38673
3.43714
3.47338
3.49649
3.51032
3.51776
3.52109
1
1
1
1
1
1
1
1
1
1
1
1
1
1
1
1
1
1
1
1
1
1
1
1
1
1
1
1
1
1
1
1
1
1
1
1
1
1
1
1
1
1
1
1
1
1
1
1
1
1
1
1
1
1
1
1
1
1
1
1
1
1
1
1
1
1
1
1
1
1
1
1
1
1
1
1
1
1
1
1
1
1
1
1
1
1
1
1
1
1
1
1
1
1
1
1
1
1
1
1
1
1
1
1
1
1
1
1
1
1
1
1
1
1
1
1
2.19182
2.81402
2.81741
2.81203
2.80397
2.7983
2.79926
2.8041
2.81254
2.82027
2.82907
2.83508
2.83577
2.83509
2.83424
2.83277
2.83176
2.83082
2.8305
2.83251
2.83785
2.84347
2.84858
2.85261
2.85578
2.85718
2.8567
2.85621
2.8568
2.85836
2.86332
2.87049
2.87809
2.88408
2.88798
2.8895
2.88781
2.88451
2.88109
2.87875
2.87833
2.8796
2.88208
2.88654
2.89188
2.8985
2.90555
2.91234
2.91902
2.9238
2.92596
2.92784
2.92983
2.93318
2.93932
2.94866
2.96068
2.97364
2.98611
2.99799
3.00998
3.0232
3.03941
3.06134
3.09247
3.13566
3.19122
3.25579
3.32292
3.38494
3.43556
3.472
3.49529
3.5093
3.51691
3.52034
1
1
1
1
1
1
1
1
1
1
1
1
1
1
1
1
1
1
1
1
1
1
1
1
1
1
1
1
1
1
1
1
1
1
1
1
1
1
1
1
1
1
1
1
1
1
1
1
1
1
1
1
1
1
1
1
1
1
1
1
1
1
1
1
1
1
1
1
1
1
1
1
1
1
1
1
1
1
1
1
1
1
1
1
1
1
1
1
1
1
1
1
1
1
1
1
1
1
1
1
1
1
1
1
1
1
1
1
1
1
1
1
1
1
1
1
2.14824
2.81448
2.81491
2.80828
2.79964
2.79631
2.79913
2.80579
2.81429
2.82124
2.8282
2.83268
2.83299
2.83271
2.83266
2.83192
2.83129
2.83025
2.82942
2.8306
2.83588
2.84225
2.84856
2.85342
2.85681
2.85785
2.85688
2.856
2.85605
2.85715
2.86217
2.86958
2.87746
2.88355
2.88735
2.88874
2.88697
2.88366
2.8803
2.878
2.87746
2.87844
2.88054
2.88505
2.89083
2.898
2.90541
2.91237
2.91897
2.92355
2.92553
2.92719
2.92894
2.93213
2.93822
2.94757
2.95957
2.97243
2.98474
2.99644
3.00827
3.02136
3.03751
3.05939
3.09042
3.13344
3.18882
3.25331
3.32052
3.38277
3.43368
3.47041
3.49393
3.50816
3.51595
3.5195
1
1
1
1
1
1
1
1
1
1
1
1
1
1
1
1
1
1
1
1
1
1
1
1
1
1
1
1
1
1
1
1
1
1
1
1
1
1
1
1
1
1
1
1
1
1
1
1
1
1
1
1
1
1
1
1
1
1
1
1
1
1
1
1
1
1
1
1
1
1
1
1
1
1
1
1
1
1
1
1
1
1
1
1
1
1
1
1
1
1
1
1
1
1
1
1
1
1
1
1
1
1
1
1
1
1
1
1
1
1
1
1
1
1
1
1
2.09919
2.8126
2.81211
2.80394
2.79603
2.79468
2.79934
2.80787
2.81645
2.82152
2.82646
2.8295
2.82984
2.8303
2.83124
2.83123
2.83076
2.82948
2.82812
2.82858
2.83407
2.84149
2.84893
2.85439
2.85769
2.85833
2.85684
2.85553
2.8551
2.85598
2.86112
2.86877
2.87685
2.88295
2.88659
2.88784
2.88603
2.88276
2.87946
2.8772
2.87652
2.87712
2.87885
2.88351
2.88981
2.89754
2.90529
2.91238
2.91886
2.92322
2.92505
2.92647
2.92799
2.93102
2.93707
2.94643
2.95839
2.97114
2.98328
2.9948
3.00645
3.01944
3.03556
3.05741
3.08835
3.13117
3.18629
3.25063
3.31786
3.38031
3.43154
3.46861
3.49244
3.5069
3.51489
3.51856
1
1
1
1
1
1
1
1
1
1
1
1
1
1
1
1
1
1
1
1
1
1
1
1
1
1
1
1
1
1
1
1
1
1
1
1
1
1
1
1
1
1
1
1
1
1
1
1
1
1
1
1
1
1
1
1
1
1
1
1
1
1
1
1
1
1
1
1
1
1
1
1
1
1
1
1
1
1
1
1
1
1
1
1
1
1
1
1
1
1
1
1
1
1
1
1
1
1
1
1
1
1
1
1
1
1
1
1
1
1
1
1
1
1
1
1
2.04463
2.80844
2.80762
2.79848
2.79332
2.79406
2.80089
2.81012
2.81819
2.82062
2.82353
2.82575
2.8266
2.82804
2.83002
2.83068
2.8301
2.82836
2.82646
2.82678
2.83259
2.84117
2.84963
2.85539
2.85836
2.85851
2.85654
2.85477
2.85406
2.855
2.86021
2.86801
2.87616
2.88222
2.88569
2.8868
2.88502
2.88185
2.87859
2.87632
2.87548
2.87563
2.87704
2.882
2.8889
2.89714
2.90516
2.91233
2.91866
2.92281
2.9245
2.92569
2.927
2.92987
2.93585
2.94521
2.95711
2.96974
2.98171
2.99305
3.00453
3.01743
3.03354
3.05542
3.0863
3.12889
3.1837
3.24781
3.31501
3.37762
3.42918
3.46664
3.4908
3.50553
3.51372
3.51753
1
1
1
1
1
1
1
1
1
1
1
1
1
1
1
1
1
1
1
1
1
1
1
1
1
1
1
1
1
1
1
1
1
1
1
1
1
1
1
1
1
1
1
1
1
1
1
1
1
1
1
1
1
1
1
1
1
1
1
1
1
1
1
1
1
1
1
1
1
1
1
1
1
1
1
1
1
1
1
1
1
1
1
1
1
1
1
1
1
1
1
1
1
1
1
1
1
1
1
1
1
1
1
1
1
1
1
1
1
1
1
1
1
1
1
1
1.98673
2.80183
2.8008
2.79204
2.79085
2.79392
2.80333
2.8124
2.81841
2.81834
2.81967
2.82168
2.82344
2.82608
2.82904
2.83017
2.82937
2.82694
2.82436
2.82522
2.83163
2.84131
2.85048
2.85628
2.85876
2.85838
2.85592
2.85376
2.85307
2.85429
2.85946
2.86723
2.87534
2.88132
2.88461
2.88563
2.88395
2.88094
2.87771
2.87535
2.87429
2.87398
2.87521
2.88058
2.88812
2.8968
2.90499
2.91218
2.91835
2.9223
2.92387
2.92487
2.92598
2.9287
2.93461
2.94392
2.95572
2.96821
2.98002
2.99117
3.00251
3.01533
3.03148
3.05343
3.08427
3.12663
3.18108
3.24492
3.31203
3.37478
3.42664
3.46449
3.48902
3.50404
3.51245
3.5164
1
1
1
1
1
1
1
1
1
1
1
1
1
1
1
1
1
1
1
1
1
1
1
1
1
1
1
1
1
1
1
1
1
1
1
1
1
1
1
1
1
1
1
1
1
1
1
1
1
1
1
1
1
1
1
1
1
1
1
1
1
1
1
1
1
1
1
1
1
1
1
1
1
1
1
1
1
1
1
1
1
1
1
1
1
1
1
1
1
1
1
1
1
1
1
1
1
1
1
1
1
1
1
1
1
1
1
1
1
1
1
1
1
1
1
1
1.92919
2.79097
2.79269
2.78641
2.78795
2.79511
2.80562
2.81434
2.81715
2.81557
2.81528
2.81747
2.82049
2.82448
2.82833
2.82961
2.82847
2.82528
2.82217
2.82396
2.83122
2.8418
2.85128
2.85687
2.85882
2.85785
2.855
2.85269
2.85234
2.85384
2.85883
2.86637
2.87432
2.88019
2.88337
2.88433
2.88284
2.88004
2.87684
2.87431
2.87289
2.8722
2.87348
2.87929
2.88746
2.89649
2.90475
2.9119
2.91791
2.92169
2.92317
2.924
2.92497
2.92756
2.93335
2.94256
2.95419
2.96651
2.97816
2.98916
3.00037
3.01316
3.02939
3.05145
3.08228
3.1244
3.17848
3.24199
3.30897
3.37181
3.42396
3.4622
3.48712
3.50244
3.51108
3.51517
1
1
1
1
1
1
1
1
1
1
1
1
1
1
1
1
1
1
1
1
1
1
1
1
1
1
1
1
1
1
1
1
1
1
1
1
1
1
1
1
1
1
1
1
1
1
1
1
1
1
1
1
1
1
1
1
1
1
1
1
1
1
1
1
1
1
1
1
1
1
1
1
1
1
1
1
1
1
1
1
1
1
1
1
1
1
1
1
1
1
1
1
1
1
1
1
1
1
1
1
1
1
1
1
1
1
1
1
1
1
1
1
1
1
1
1
1.86772
2.77132
2.78611
2.7814
2.7861
2.79787
2.80778
2.81537
2.81526
2.81255
2.81072
2.81326
2.81787
2.82334
2.82788
2.82885
2.82716
2.82328
2.82047
2.82326
2.83126
2.84242
2.85186
2.85708
2.85846
2.8569
2.85391
2.8518
2.85188
2.85357
2.85825
2.86539
2.87311
2.87885
2.88193
2.88291
2.88169
2.87914
2.87597
2.87323
2.87134
2.87029
2.87192
2.87818
2.88693
2.89618
2.9044
2.91146
2.91731
2.92094
2.92238
2.9231
2.92398
2.92648
2.93211
2.94114
2.95253
2.96463
2.97612
2.98697
2.9981
3.0109
3.02726
3.04949
3.08032
3.1222
3.17588
3.23903
3.30585
3.36875
3.42116
3.45979
3.48511
3.50072
3.50959
3.51383
1
1
1
1
1
1
1
1
1
1
1
1
1
1
1
1
1
1
1
1
1
1
1
1
1
1
1
1
1
1
1
1
1
1
1
1
1
1
1
1
1
1
1
1
1
1
1
1
1
1
1
1
1
1
1
1
1
1
1
1
1
1
1
1
1
1
1
1
1
1
1
1
1
1
1
1
1
1
1
1
1
1
1
1
1
1
1
1
1
1
1
1
1
1
1
1
1
1
1
1
1
1
1
1
1
1
1
1
1
1
1
1
1
1
1
1
1.79341
2.73985
2.77872
2.77772
2.78658
2.80091
2.81079
2.81506
2.81311
2.80892
2.80641
2.80939
2.81574
2.82264
2.82757
2.82773
2.82521
2.82116
2.81973
2.82315
2.83158
2.84296
2.85212
2.85679
2.85752
2.85561
2.85287
2.85126
2.8516
2.85337
2.85762
2.86426
2.87169
2.87728
2.88031
2.88137
2.8805
2.87823
2.87507
2.87207
2.86969
2.86836
2.8705
2.87729
2.8865
2.89583
2.90393
2.91085
2.91651
2.92004
2.92149
2.92216
2.92303
2.92545
2.9309
2.93967
2.95074
2.96257
2.97387
2.98461
2.9957
3.00857
3.0251
3.04753
3.07839
3.12002
3.17327
3.23603
3.30267
3.36562
3.41828
3.45729
3.483
3.49891
3.508
3.51236
1
1
1
1
1
1
1
1
1
1
1
1
1
1
1
1
1
1
1
1
1
1
1
1
1
1
1
1
1
1
1
1
1
1
1
1
1
1
1
1
1
1
1
1
1
1
1
1
1
1
1
1
1
1
1
1
1
1
1
1
1
1
1
1
1
1
1
1
1
1
1
1
1
1
1
1
1
1
1
1
1
1
1
1
1
1
1
1
1
1
1
1
1
1
1
1
1
1
1
1
1
1
1
1
1
1
1
1
1
1
1
1
1
1
1
1
1.69113
2.6918
2.76994
2.77705
2.79109
2.8045
2.81349
2.81393
2.81071
2.80489
2.80236
2.80615
2.81412
2.82211
2.82705
2.82643
2.82304
2.81971
2.8197
2.82345
2.832
2.84323
2.85193
2.85581
2.85601
2.85421
2.85214
2.85103
2.85145
2.85311
2.85687
2.86293
2.87007
2.87552
2.87854
2.87976
2.8793
2.87725
2.87409
2.87082
2.86795
2.86655
2.8693
2.8766
2.88611
2.89541
2.90334
2.91004
2.91552
2.91897
2.92048
2.9212
2.92211
2.92447
2.92969
2.93814
2.94882
2.96032
2.97144
2.98207
2.99316
3.00616
3.02292
3.04558
3.07647
3.11782
3.17063
3.23299
3.29943
3.36244
3.41534
3.45473
3.48084
3.49701
3.50628
3.51076
1
1
1
1
1
1
1
1
1
1
1
1
1
1
1
1
1
1
1
1
1
1
1
1
1
1
1
1
1
1
1
1
1
1
1
1
1
1
1
1
1
1
1
1
1
1
1
1
1
1
1
1
1
1
1
1
1
1
1
1
1
1
1
1
1
1
1
1
1
1
1
1
1
1
1
1
1
1
1
1
1
1
1
1
1
1
1
1
1
1
1
1
1
1
1
1
1
1
1
1
1
1
1
1
1
1
1
1
1
1
1
1
1
1
1
1
1.55818
2.6241
2.76424
2.77973
2.7966
2.80912
2.81434
2.81284
2.80763
2.80066
2.79873
2.80358
2.81293
2.82161
2.82611
2.82495
2.82164
2.81951
2.81986
2.82401
2.83228
2.84304
2.85099
2.8541
2.85417
2.85303
2.85188
2.85097
2.85127
2.8527
2.85594
2.86139
2.86822
2.87357
2.87666
2.87813
2.87808
2.87617
2.87298
2.86941
2.86611
2.86498
2.8684
2.87609
2.88572
2.8949
2.90259
2.90904
2.91431
2.91774
2.91938
2.92022
2.92121
2.92352
2.92847
2.93652
2.94678
2.95791
2.96883
2.97938
2.9905
3.00368
3.02071
3.04361
3.07452
3.1156
3.16795
3.2299
3.29614
3.35921
3.41236
3.45213
3.47862
3.49501
3.50442
3.50899
1
1
1
1
1
1
1
1
1
1
1
1
1
1
1
1
1
1
1
1
1
1
1
1
1
1
1
1
1
1
1
1
1
1
1
1
1
1
1
1
1
1
1
1
1
1
1
1
1
1
1
1
1
1
1
1
1
1
1
1
1
1
1
1
1
1
1
1
1
1
1
1
1
1
1
1
1
1
1
1
1
1
1
1
1
1
1
1
1
1
1
1
1
1
1
1
1
1
1
1
1
1
1
1
1
1
1
1
1
1
1
1
1
1
1
1
1.3928
2.53458
2.76207
2.78515
2.80226
2.8137
2.81419
2.81121
2.80358
2.79633
2.79552
2.80145
2.81212
2.82116
2.82504
2.82379
2.82139
2.81997
2.82032
2.82453
2.83228
2.84212
2.84911
2.85186
2.85241
2.85233
2.85192
2.85092
2.85092
2.8521
2.8548
2.85959
2.86612
2.87145
2.87472
2.87654
2.87685
2.87494
2.87168
2.86781
2.86424
2.86373
2.86781
2.87571
2.88529
2.89425
2.90168
2.90784
2.91291
2.91636
2.91822
2.91925
2.92034
2.92256
2.92719
2.9348
2.9446
2.95536
2.96607
2.97655
2.98774
3.00114
3.01848
3.04161
3.07252
3.11331
3.16521
3.22672
3.29276
3.35591
3.40934
3.44948
3.47636
3.49294
3.50244
3.50705
1
1
1
1
1
1
1
1
1
1
1
1
1
1
1
1
1
1
1
1
1
1
1
1
1
1
1
1
1
1
1
1
1
1
1
1
1
1
1
1
1
1
1
1
1
1
1
1
1
1
1
1
1
1
1
1
1
1
1
1
1
1
1
1
1
1
1
1
1
1
1
1
1
1
1
1
1
1
1
1
1
1
1
1
1
1
1
1
1
1
1
1
1
1
1
1
1
1
1
1
1
1
1
1
1
1
1
1
1
1
1
1
1
1
1
1
1.20311
2.43188
2.76343
2.79018
2.80793
2.81612
2.81369
2.80704
2.79807
2.79186
2.79264
2.79956
2.81176
2.82091
2.82444
2.82341
2.8219
2.82069
2.82094
2.82492
2.83166
2.8402
2.84651
2.8496
2.85108
2.85202
2.85204
2.85083
2.85038
2.8513
2.8534
2.85753
2.86375
2.86917
2.87275
2.87499
2.87558
2.87358
2.87016
2.86603
2.86253
2.86278
2.86751
2.8754
2.88477
2.89345
2.90059
2.90644
2.91131
2.91488
2.91702
2.91828
2.91947
2.92157
2.92582
2.93294
2.94226
2.95265
2.96315
2.97359
2.98489
2.99859
3.01625
3.03958
3.07045
3.11094
3.16237
3.22345
3.2893
3.35255
3.40627
3.44679
3.47404
3.49078
3.50032
3.50494
1
1
1
1
1
1
1
1
1
1
1
1
1
1
1
1
1
1
1
1
1
1
1
1
1
1
1
1
1
1
1
1
1
1
1
1
1
1
1
1
1
1
1
1
1
1
1
1
1
1
1
1
1
1
1
1
1
1
1
1
1
1
1
1
1
1
1
1
1
1
1
1
1
1
1
1
1
1
1
1
1
1
1
1
1
1
1
1
1
1
1
1
1
1
1
1
1
1
1
1
1
1
1
1
1
1
1
1
1
1
1
1
1
1
1
1
1.01942
2.32715
2.77188
2.7982
2.80937
2.81389
2.80984
2.80084
2.79238
2.78801
2.79022
2.79843
2.81195
2.82116
2.82472
2.82388
2.82255
2.82124
2.82149
2.82483
2.8299
2.83752
2.84381
2.84773
2.85013
2.85182
2.85211
2.85067
2.84971
2.85026
2.85171
2.85517
2.86114
2.86677
2.87078
2.87345
2.87423
2.87206
2.86843
2.8641
2.86128
2.86221
2.86733
2.87503
2.88409
2.89245
2.89929
2.90484
2.90956
2.91332
2.91583
2.91733
2.91859
2.92053
2.92436
2.93094
2.93975
2.94978
2.96007
2.9705
2.98201
2.99605
3.01404
3.03751
3.06828
3.10845
3.1594
3.22006
3.28572
3.34911
3.40316
3.44405
3.47165
3.48854
3.49809
3.50266
1
1
1
1
1
1
1
1
1
1
1
1
1
1
1
1
1
1
1
1
1
1
1
1
1
1
1
1
1
1
1
1
1
1
1
1
1
1
1
1
1
1
1
1
1
1
1
1
1
1
1
1
1
1
1
1
1
1
1
1
1
1
1
1
1
1
1
1
1
1
1
1
1
1
1
1
1
1
1
1
1
1
1
1
1
1
1
1
1
1
1
1
1
1
1
1
1
1
1
1
1
1
1
1
1
1
1
1
1
1
1
1
1
1
1
1
1.00008
2.23473
2.77556
2.80288
2.80743
2.8085
2.80256
2.79354
2.7868
2.78569
2.78905
2.79856
2.81298
2.82228
2.82543
2.82452
2.82322
2.82132
2.82149
2.82384
2.82729
2.83469
2.84147
2.84629
2.84938
2.85159
2.85207
2.85044
2.84893
2.84889
2.84976
2.85253
2.85836
2.8643
2.86879
2.87183
2.87273
2.87038
2.86659
2.86225
2.86058
2.86202
2.8671
2.87453
2.88321
2.89121
2.89775
2.90305
2.9077
2.91174
2.91464
2.91637
2.91768
2.91943
2.9228
2.92879
2.93708
2.94674
2.95683
2.9673
2.9791
2.99357
3.01187
3.0354
3.06601
3.1058
3.15627
3.21651
3.28201
3.34556
3.4
3.44126
3.46918
3.48621
3.49575
3.5002
1
1
1
1
1
1
1
1
1
1
1
1
1
1
1
1
1
1
1
1
1
1
1
1
1
1
1
1
1
1
1
1
1
1
1
1
1
1
1
1
1
1
1
1
1
1
1
1
1
1
1
1
1
1
1
1
1
1
1
1
1
1
1
1
1
1
1
1
1
1
1
1
1
1
1
1
1
1
1
1
1
1
1
1
1
1
1
1
1
1
1
1
1
1
1
1
1
1
1
1
1
1
1
1
1
1
1
1
1
1
1
1
1
1
1
1
1
2.144
2.77873
2.80336
2.80293
2.80144
2.79438
2.78676
2.78295
2.78444
2.78963
2.80057
2.81507
2.82374
2.82543
2.82459
2.82309
2.82051
2.82076
2.82216
2.82468
2.83217
2.83956
2.8451
2.84868
2.85127
2.85184
2.85006
2.84798
2.84722
2.84754
2.84968
2.85552
2.86183
2.86677
2.87004
2.87092
2.86857
2.86478
2.86096
2.86028
2.86199
2.86679
2.87383
2.88205
2.88967
2.89596
2.90111
2.90578
2.91015
2.91345
2.91537
2.91669
2.91825
2.92116
2.92653
2.93425
2.94352
2.95342
2.96397
2.97618
2.99115
3.00974
3.03324
3.0636
3.10296
3.15293
3.21276
3.27814
3.34191
3.39679
3.43843
3.46661
3.48377
3.49328
3.49758
1
1
1
1
1
1
1
1
1
1
1
1
1
1
1
1
1
1
1
1
1
1
1
1
1
1
1
1
1
1
1
1
1
1
1
1
1
1
1
1
1
1
1
1
1
1
1
1
1
1
1
1
1
1
1
1
1
1
1
1
1
1
1
1
1
1
1
1
1
1
1
1
1
1
1
1
1
1
1
1
1
1
1
1
1
1
1
1
1
1
1
1
1
1
1
1
1
1
1
1
1
1
1
1
1
1
1
1
1
1
1
1
1
1
1
1
1
2.04955
2.77581
2.8004
2.79784
2.79399
2.78721
2.78198
2.7817
2.78506
2.79235
2.80385
2.81682
2.82425
2.82411
2.82341
2.82166
2.81908
2.81952
2.82036
2.82281
2.83006
2.83782
2.84391
2.84797
2.85084
2.85136
2.84944
2.84684
2.8453
2.84505
2.84682
2.85268
2.85936
2.86466
2.86801
2.86875
2.8666
2.86318
2.86046
2.86021
2.86202
2.86639
2.87287
2.88057
2.88782
2.89392
2.89906
2.90386
2.90858
2.91224
2.91429
2.91561
2.91697
2.91944
2.92419
2.93131
2.94016
2.94984
2.96055
2.97327
2.9888
3.00764
3.03103
3.06105
3.09992
3.14935
3.20878
3.27408
3.33813
3.39351
3.43559
3.46398
3.48121
3.49067
3.49477
1
1
1
1
1
1
1
1
1
1
1
1
1
1
1
1
1
1
1
1
1
1
1
1
1
1
1
1
1
1
1
1
1
1
1
1
1
1
1
1
1
1
1
1
1
1
1
1
1
1
1
1
1
1
1
1
1
1
1
1
1
1
1
1
1
1
1
1
1
1
1
1
1
1
1
1
1
1
1
1
1
1
1
1
1
1
1
1
1
1
1
1
1
1
1
1
1
1
1
1
1
1
1
1
1
1
1
1
1
1
1
1
1
1
1
1
1
1.95012
2.76366
2.7954
2.79154
2.78634
2.78152
2.78028
2.78272
2.7882
2.7966
2.80637
2.81664
2.82229
2.8216
2.82078
2.81959
2.8178
2.81832
2.81897
2.8215
2.82821
2.83605
2.84262
2.84723
2.8503
2.85061
2.84851
2.84539
2.84319
2.84251
2.84408
2.8499
2.85686
2.86237
2.86567
2.8663
2.8645
2.86207
2.86053
2.86032
2.86204
2.86584
2.87161
2.87874
2.88565
2.89166
2.89693
2.90198
2.90701
2.91094
2.91308
2.91439
2.91558
2.91763
2.92178
2.92829
2.93666
2.94611
2.95705
2.97038
2.9865
3.00553
3.02873
3.05832
3.09663
3.14549
3.20453
3.2698
3.33422
3.39019
3.43274
3.46131
3.47852
3.48789
3.49177
1
1
1
1
1
1
1
1
1
1
1
1
1
1
1
1
1
1
1
1
1
1
1
1
1
1
1
1
1
1
1
1
1
1
1
1
1
1
1
1
1
1
1
1
1
1
1
1
1
1
1
1
1
1
1
1
1
1
1
1
1
1
1
1
1
1
1
1
1
1
1
1
1
1
1
1
1
1
1
1
1
1
1
1
1
1
1
1
1
1
1
1
1
1
1
1
1
1
1
1
1
1
1
1
1
1
1
1
1
1
1
1
1
1
1
1
1
1.84525
2.74015
2.7877
2.78274
2.77957
2.77845
2.78112
2.78624
2.79353
2.80005
2.80678
2.81392
2.8175
2.81762
2.81772
2.81786
2.81711
2.81758
2.81812
2.82042
2.82633
2.83414
2.84122
2.84641
2.84959
2.84955
2.84721
2.84361
2.84093
2.84007
2.84156
2.84721
2.85425
2.85981
2.863
2.86369
2.8625
2.86156
2.86087
2.86054
2.86201
2.86512
2.87008
2.8766
2.88323
2.88927
2.8948
2.90015
2.90542
2.90952
2.91172
2.91301
2.91404
2.91572
2.91931
2.9252
2.93305
2.94229
2.95355
2.96757
2.98423
3.00337
3.02628
3.05538
3.09308
3.14133
3.19999
3.26529
3.33018
3.38683
3.42989
3.45862
3.47571
3.48492
3.48853
1
1
1
1
1
1
1
1
1
1
1
1
1
1
1
1
1
1
1
1
1
1
1
1
1
1
1
1
1
1
1
1
1
1
1
1
1
1
1
1
1
1
1
1
1
1
1
1
1
1
1
1
1
1
1
1
1
1
1
1
1
1
1
1
1
1
1
1
1
1
1
1
1
1
1
1
1
1
1
1
1
1
1
1
1
1
1
1
1
1
1
1
1
1
1
1
1
1
1
1
1
1
1
1
1
1
1
1
1
1
1
1
1
1
1
1
1
1.72584
2.70184
2.77627
2.77248
2.77376
2.7778
2.7853
2.79171
2.79816
2.80088
2.80452
2.80859
2.81136
2.813
2.81509
2.81668
2.81713
2.81747
2.81763
2.81932
2.82431
2.83208
2.83971
2.8454
2.84858
2.8482
2.84555
2.84157
2.83862
2.8378
2.83928
2.84461
2.85145
2.85693
2.86002
2.86113
2.86104
2.86149
2.86123
2.86076
2.86179
2.86419
2.86827
2.87419
2.88064
2.88684
2.89269
2.89832
2.90374
2.90793
2.91018
2.91146
2.91236
2.91371
2.91677
2.92204
2.92932
2.9384
2.95012
2.96485
2.98198
3.00112
3.02364
3.05218
3.08922
3.13685
3.19513
3.26053
3.326
3.38341
3.42705
3.45592
3.4728
3.48175
3.48504
1
1
1
1
1
1
1
1
1
1
1
1
1
1
1
1
1
1
1
1
1
1
1
1
1
1
1
1
1
1
1
1
1
1
1
1
1
1
1
1
1
1
1
1
1
1
1
1
1
1
1
1
1
1
1
1
1
1
1
1
1
1
1
1
1
1
1
1
1
1
1
1
1
1
1
1
1
1
1
1
1
1
1
1
1
1
1
1
1
1
1
1
1
1
1
1
1
1
1
1
1
1
1
1
1
1
1
1
1
1
1
1
1
1
1
1
1
1.58783
2.64413
2.75926
2.76358
2.77201
2.78153
2.79078
2.7968
2.79929
2.79897
2.79966
2.80201
2.80547
2.80915
2.81343
2.81634
2.81765
2.81748
2.81708
2.81801
2.82213
2.82991
2.8381
2.84412
2.84718
2.84654
2.84361
2.83947
2.83643
2.83574
2.83716
2.84199
2.84843
2.85371
2.85697
2.85888
2.86023
2.86164
2.86148
2.86083
2.86126
2.863
2.86622
2.87162
2.87802
2.88447
2.89061
2.89642
2.90189
2.90614
2.90846
2.90976
2.91055
2.91158
2.91412
2.91879
2.92548
2.93449
2.94682
2.96225
2.97975
2.99875
3.02078
3.04868
3.08502
3.13201
3.18995
3.25552
3.32165
3.37992
3.42419
3.4532
3.46979
3.47837
3.48127
1
1
1
1
1
1
1
1
1
1
1
1
1
1
1
1
1
1
1
1
1
1
1
1
1
1
1
1
1
1
1
1
1
1
1
1
1
1
1
1
1
1
1
1
1
1
1
1
1
1
1
1
1
1
1
1
1
1
1
1
1
1
1
1
1
1
1
1
1
1
1
1
1
1
1
1
1
1
1
1
1
1
1
1
1
1
1
1
1
1
1
1
1
1
1
1
1
1
1
1
1
1
1
1
1
1
1
1
1
1
1
1
1
1
1
1
1
1.43456
2.56827
2.74478
2.76221
2.7769
2.78837
2.79533
2.79778
2.79729
2.79506
2.79334
2.79568
2.80106
2.8071
2.81293
2.81678
2.818
2.81741
2.81613
2.81616
2.81984
2.82766
2.83632
2.84252
2.84535
2.84457
2.84153
2.83748
2.83447
2.83388
2.83512
2.83915
2.84512
2.85031
2.85414
2.85724
2.85988
2.86179
2.86157
2.8606
2.8604
2.86155
2.86399
2.86901
2.87551
2.88222
2.88854
2.8944
2.89983
2.9041
2.90652
2.90791
2.90863
2.90936
2.91137
2.91543
2.92153
2.9306
2.94369
2.95978
2.97751
2.99623
3.01769
3.04488
3.08047
3.12681
3.18444
3.25025
3.31712
3.37633
3.4213
3.45046
3.46669
3.47481
3.47724
1
1
1
1
1
1
1
1
1
1
1
1
1
1
1
1
1
1
1
1
1
1
1
1
1
1
1
1
1
1
1
1
1
1
1
1
1
1
1
1
1
1
1
1
1
1
1
1
1
1
1
1
1
1
1
1
1
1
1
1
1
1
1
1
1
1
1
1
1
1
1
1
1
1
1
1
1
1
1
1
1
1
1
1
1
1
1
1
1
1
1
1
1
1
1
1