/*--------------------------------*- C++ -*----------------------------------*\
  =========                 |
  \\      /  F ield         | OpenFOAM: The Open Source CFD Toolbox
   \\    /   O peration     | Website:  https://openfoam.org
    \\  /    A nd           | Version:  7
     \\/     M anipulation  |
\*---------------------------------------------------------------------------*/
FoamFile
{
    version     2.0;
    format      ascii;
    class       volScalarField;
    location    "1.6";
    object      p;
}
// * * * * * * * * * * * * * * * * * * * * * * * * * * * * * * * * * * * * * //

dimensions      [1 -1 -2 0 0 0 0];

internalField   nonuniform List<scalar> 
16128
(
1
1
1
1
1
1
1
1
1
1
1
1
1
1
1
1
1
1
1
1
1
1
1
1
1
4.53505
10.3139
10.6575
10.7275
10.854
10.9759
11.0969
11.2034
11.295
11.3773
11.4578
11.5376
11.6104
11.6781
11.7454
11.8096
11.8678
11.9204
11.9631
12.0007
12.028
12.0527
12.0701
1
1
1
1
1
1
1
1
1
1
1
1
1
1
1
1
1
1
1
1
1
1
1
1
1
4.45216
10.2668
10.6536
10.7262
10.8522
10.9733
11.093
11.199
11.2906
11.3742
11.455
11.5334
11.6043
11.6706
11.7371
11.8008
11.8587
11.9106
11.9532
11.9891
12.0148
12.0371
12.0522
1
1
1
1
1
1
1
1
1
1
1
1
1
1
1
1
1
1
1
1
1
1
1
1
1
4.2757
10.2101
10.6429
10.7164
10.8425
10.9623
11.081
11.1875
11.2797
11.365
11.4463
11.5241
11.5937
11.6587
11.7243
11.7872
11.8448
11.8957
11.9376
11.971
11.9943
12.0135
12.0261
1
1
1
1
1
1
1
1
1
1
1
1
1
1
1
1
1
1
1
1
1
1
1
1
1
4.02218
10.1179
10.6277
10.7015
10.8273
10.945
11.0623
11.168
11.2599
11.346
11.4274
11.5049
11.5739
11.6381
11.7026
11.7648
11.8225
11.8732
11.9147
11.9447
11.9647
11.9796
11.989
1
1
1
1
1
1
1
1
1
1
1
1
1
1
1
1
1
1
1
1
1
1
1
1
1
3.69734
9.98042
10.6061
10.6786
10.8038
10.92
11.038
11.1448
11.2375
11.3236
11.4031
11.4782
11.5453
11.6077
11.6704
11.7315
11.7896
11.8408
11.8823
11.9096
11.9269
11.9382
11.945
1
1
1
1
1
1
1
1
1
1
1
1
1
1
1
1
1
1
1
1
1
1
1
1
1
3.3089
9.7761
10.5824
10.6551
10.7803
10.8933
11.0081
11.112
11.2016
11.2847
11.3602
11.4333
11.5003
11.5641
11.6279
11.6894
11.7477
11.7985
11.8389
11.8635
11.8788
11.8873
11.8922
1
1
1
1
1
1
1
1
1
1
1
1
1
1
1
1
1
1
1
1
1
1
1
1
1
2.88374
9.49628
10.5592
10.6259
10.7491
10.859
10.972
11.0755
11.1641
11.2447
11.3146
11.3838
11.4482
11.5134
11.578
11.6385
11.6936
11.7407
11.7788
11.8025
11.8183
11.827
11.8321
1
1
1
1
1
1
1
1
1
1
1
1
1
1
1
1
1
1
1
1
1
1
1
1
1
2.42954
9.11246
10.5379
10.5949
10.7182
10.8244
10.935
11.0371
11.1237
11.2014
11.2643
11.3274
11.3853
11.4493
11.5137
11.574
11.627
11.6709
11.7054
11.7269
11.7426
11.7517
11.7567
1
1
1
1
1
1
1
1
1
1
1
1
1
1
1
1
1
1
1
1
1
1
1
1
1
1.96167
8.59968
10.5249
10.5718
10.6927
10.7916
10.8971
10.9951
11.0779
11.1523
11.2104
11.2673
11.3187
11.379
11.44
11.4955
11.5421
11.5792
11.6079
11.6286
11.6471
11.6604
11.6694
1
1
1
1
1
1
1
1
1
1
1
1
1
1
1
1
1
1
1
1
1
1
1
1
1
1.52345
7.96307
10.5112
10.5344
10.6514
10.7433
10.843
10.9351
11.0142
11.088
11.1472
11.2018
11.2493
11.3023
11.3546
11.4024
11.443
11.4742
11.4979
11.5167
11.5346
11.5488
11.5587
1
1
1
1
1
1
1
1
1
1
1
1
1
1
1
1
1
1
1
1
1
1
1
1
1
1.14343
7.187
10.5013
10.5144
10.6105
10.6922
10.7838
10.8681
10.9414
11.0113
11.0697
11.1233
11.1673
11.212
11.2538
11.292
11.3228
11.3454
11.3619
11.377
11.3927
11.4066
11.4188
1
1
1
1
1
1
1
1
1
1
1
1
1
1
1
1
1
1
1
1
1
1
1
1
1
1.00478
6.25725
10.3299
10.4244
10.5291
10.6176
10.7056
10.7833
10.8502
10.9143
10.9699
11.021
11.0618
11.101
11.1355
11.1647
11.1844
11.1983
11.2073
11.2144
11.2174
11.217
11.2158
1
1
1
1
1
1
1
1
1
1
1
1
1
1
1
1
1
1
1
1
1
1
1
1
1
1.00002
5.18163
10.1104
10.3581
10.4553
10.543
10.6242
10.6966
10.7588
10.8172
10.8689
10.9153
10.9508
10.982
11.0078
11.025
11.0295
11.0274
11.0164
10.9993
10.9832
10.9667
10.9724
1
1
1
1
1
1
1
1
1
1
1
1
1
1
1
1
1
1
1
1
1
1
1
1
1
1
4.06297
9.7585
10.3148
10.3998
10.4794
10.5532
10.622
10.679
10.7295
10.7727
10.8088
10.8353
10.8562
10.8708
10.8708
10.8578
10.8344
10.8025
10.7634
10.7224
10.6609
10.588
1
1
1
1
1
1
1
1
1
1
1
1
1
1
1
1
1
1
1
1
1
1
1
1
1
1
2.92611
9.19099
10.277
10.3482
10.4208
10.4866
10.5468
10.5972
10.6408
10.677
10.704
10.7207
10.7286
10.725
10.7057
10.6718
10.6238
10.5554
10.4549
10.3153
10.1701
10.0621
1
1
1
1
1
1
1
1
1
1
1
1
1
1
1
1
1
1
1
1
1
1
1
1
1
1
1.85004
8.39863
10.3434
10.302
10.3543
10.418
10.4744
10.5184
10.553
10.5794
10.5914
10.5949
10.5866
10.5637
10.5235
10.4647
10.3811
10.261
10.0964
9.88648
9.66126
9.55792
1
1
1
1
1
1
1
1
1
1
1
1
1
1
1
1
1
1
1
1
1
1
1
1
1
1
1.08568
7.26254
10.3759
10.2924
10.3019
10.3406
10.3788
10.4134
10.442
10.4637
10.4671
10.462
10.4398
10.3976
10.3318
10.242
10.119
9.95039
9.70452
9.30576
8.43256
6.45233
1
1
1
1
1
1
1
1
1
1
1
1
1
1
1
1
1
1
1
1
1
1
1
1
1
1
1.00076
5.72989
9.89511
10.0448
10.1316
10.1967
10.2459
10.284
10.31
10.3258
10.3212
10.3085
10.2755
10.2175
10.1273
10.0059
9.84061
9.60589
9.25735
8.64557
7.689
5.48938
1
1
1
1
1
1
1
1
1
1
1
1
1
1
1
1
1
1
1
1
1
1
1
1
1
1
0.999995
4.22063
9.5364
10.0064
10.0733
10.1291
10.1611
10.1823
10.195
10.1981
10.1821
10.1547
10.1048
10.0274
9.91326
9.76084
9.55567
9.26412
8.83962
8.16636
7.07985
5.14246
1
1
1
1
1
1
1
1
1
1
1
1
1
1
1
1
1
1
1
1
1
1
1
1
1
1
0.999999
2.64464
8.75699
9.92678
9.98419
10.0439
10.0779
10.0894
10.0868
10.0715
10.0436
9.99831
9.92932
9.83118
9.69595
9.5167
9.27578
8.94338
8.46031
7.78873
6.6502
5.1263
1
1
1
1
1
1
1
1
1
1
1
1
1
1
1
1
1
1
1
1
1
1
1
1
1
1
1
1.34175
7.65432
10.0632
9.98203
9.96871
9.98376
9.98433
9.97007
9.94301
9.90438
9.84278
9.75352
9.63308
9.47654
9.2749
9.00691
8.64818
8.14993
7.48569
6.42586
5.20992
1
1
1
1
1
1
1
1
1
1
1
1
1
1
1
1
1
1
1
1
1
1
1
1
1
1
1
1.01238
6.00298
9.61916
9.78449
9.84681
9.86038
9.8576
9.83926
9.80652
9.75898
9.68406
9.57754
9.43952
9.26621
9.04749
8.76348
8.38896
7.89457
7.24155
6.31937
5.34217
1
1
1
1
1
1
1
1
1
1
1
1
1
1
1
1
1
1
1
1
1
1
1
1
1
1
1
0.999969
3.92798
9.13417
9.73577
9.78514
9.78525
9.76647
9.73173
9.68363
9.62025
9.53021
9.40904
9.25758
9.07156
8.83974
8.54712
8.171
7.68665
7.06451
6.27832
5.47122
1
1
1
1
1
1
1
1
1
1
1
1
1
1
1
1
1
1
1
1
1
1
1
1
1
1
1
0.999992
2.05352
8.37037
9.74956
9.71676
9.68959
9.65214
9.60574
9.54662
9.47242
9.37299
9.24376
9.08584
8.89378
8.65553
8.35879
7.98578
7.52429
6.94388
6.2696
5.58125
1
1
1
1
1
1
1
1
1
1
1
1
1
1
1
1
1
1
1
1
1
1
1
1
1
1
1
0.999999
1.09932
6.76332
9.63028
9.58291
9.57133
9.52542
9.4732
9.41244
9.33153
9.22565
9.09141
8.92877
8.73238
8.49281
8.19792
7.83097
7.39322
6.85927
6.27834
5.6753
1
1
1
1
1
1
1
1
1
1
1
1
1
1
1
1
1
1
1
1
1
1
1
1
1
1
1
1
1.00073
4.46537
9.09952
9.47836
9.47725
9.43585
9.38247
9.31362
9.21864
9.10149
8.95864
8.78958
8.5865
8.34825
8.05747
7.70402
7.28618
6.80066
6.29528
5.74689
1
1
1
1
1
1
1
1
1
1
1
1
1
1
1
1
1
1
1
1
1
1
1
1
1
1
1
1
0.999997
2.23638
8.38479
9.46713
9.37038
9.31787
9.26692
9.19695
9.10021
8.98136
8.83497
8.66031
8.45214
8.21627
7.9282
7.59374
7.19439
6.7564
6.30648
5.80327
1
1
1
1
1
1
1
1
1
1
1
1
1
1
1
1
1
1
1
1
1
1
1
1
1
1
1
1
0.999999
1.12422
6.64254
9.25876
9.23672
9.20654
9.15966
9.08924
8.99098
8.87073
8.7237
8.5442
8.33277
8.09672
7.81306
7.49838
7.12612
6.73038
6.31805
5.85415
1
1
1
1
1
1
1
1
1
1
1
1
1
1
1
1
1
1
1
1
1
1
1
1
1
1
1
1
1
1.00111
4.01207
8.71488
9.15498
9.14468
9.10688
9.02597
8.91599
8.78334
8.62644
8.43823
8.22324
7.98285
7.70805
7.4087
7.06476
6.70402
6.31848
5.89807
1
1
1
1
1
1
1
1
1
1
1
1
1
1
1
1
1
1
1
1
1
1
1
1
1
1
1
1
1
0.999996
1.66659
7.80692
9.28243
9.12973
9.02731
8.92921
8.81064
8.67305
8.51594
8.33187
8.12369
7.88741
7.62347
7.33595
7.01683
6.68372
6.32268
5.9375
1
1
1
1
1
1
1
1
1
1
1
1
1
1
1
1
1
1
1
1
1
1
1
1
1
1
1
1
1
0.999999
1.03696
5.75881
8.87738
8.93302
8.9076
8.82114
8.7021
8.56469
8.41014
8.23174
8.03006
7.80139
7.54877
7.27247
6.97148
6.65793
6.32462
5.96965
1
1
1
1
1
1
1
1
1
1
1
1
1
1
1
1
1
1
1
1
1
1
1
1
1
1
1
1
1
1
1.00002
2.90507
8.29148
8.88797
8.82825
8.72754
8.61256
8.47707
8.32503
8.14945
7.95259
7.73293
7.49292
7.22932
6.94126
6.64157
6.3329
5.99998
1
1
1
1
1
1
1
1
1
1
1
1
1
1
1
1
1
1
1
1
1
1
1
1
1
1
1
1
1
1
0.999995
1.24318
6.67453
8.86854
8.71801
8.61763
8.51135
8.38953
8.24198
8.07055
7.87801
7.66534
7.43705
7.18784
6.91302
6.6257
6.33413
6.02467
1
1
1
1
1
1
1
1
1
1
1
1
1
1
1
1
1
1
1
1
1
1
1
1
1
1
1
1
1
1
0.999998
1.00453
3.86913
8.25695
8.57193
8.5269
8.44742
8.33659
8.19332
8.02038
7.82438
7.6125
7.38963
7.15074
6.88903
6.61617
6.33904
6.05047
1
1
1
1
1
1
1
1
1
1
1
1
1
1
1
1
1
1
1
1
1
1
1
1
1
1
1
1
1
1
1
0.999996
1.50073
7.01951
8.69107
8.52159
8.40074
8.27239
8.12412
7.95528
7.76478
7.55874
7.34235
7.11249
6.86346
6.60376
6.34039
6.06997
1
1
1
1
1
1
1
1
1
1
1
1
1
1
1
1
1
1
1
1
1
1
1
1
1
1
1
1
1
1
1
0.999999
1.01971
4.43757
8.18768
8.35768
8.29604
8.1901
8.05756
7.89922
7.71717
7.51779
7.30592
7.08107
6.84171
6.59312
6.34289
6.08878
1
1
1
1
1
1
1
1
1
1
1
1
1
1
1
1
1
1
1
1
1
1
1
1
1
1
1
1
1
1
1
1
1.00003
1.70736
7.08389
8.46983
8.29274
8.15607
8.01467
7.85176
7.67034
7.47509
7.26888
7.05159
6.82326
6.58597
6.34529
6.10311
1
1
1
1
1
1
1
1
1
1
1
1
1
1
1
1
1
1
1
1
1
1
1
1
1
1
1
1
1
1
1
1
1
1.03782
4.62461
8.04808
8.15196
8.06725
7.94564
7.79142
7.61704
7.43121
7.23511
7.02766
6.80974
6.58282
6.3504
6.11695
1
1
1
1
1
1
1
1
1
1
1
1
1
1
1
1
1
1
1
1
1
1
1
1
1
1
1
1
1
1
1
1
1
1.00014
1.79846
6.91639
8.22834
8.05968
7.92219
7.76292
7.58753
7.40552
7.21476
7.01253
6.80118
6.58311
6.36063
6.13499
1
1
1
1
1
1
1
1
1
1
1
1
1
1
1
1
1
1
1
1
1
1
1
1
1
1
1
1
1
1
1
1
1
1
1.04682
4.4184
7.83226
7.96269
7.85649
7.7117
7.54497
7.37089
7.1867
6.99185
6.78914
6.58108
6.36907
6.15268
1
1
1
1
1
1
1
1
1
1
1
1
1
1
1
1
1
1
1
1
1
1
1
1
1
1
1
1
1
1
1
1
1
1
1.00026
1.72682
6.53974
7.99022
7.84245
7.69193
7.52522
7.35394
7.17267
6.98288
6.78655
6.58595
6.38159
6.17384
1
1
1
1
1
1
1
1
1
1
1
1
1
1
1
1
1
1
1
1
1
1
1
1
1
1
1
1
1
1
1
1
1
1
1
1.03845
3.81136
7.53471
7.78188
7.63705
7.48274
7.31892
7.14679
6.96642
6.77843
6.58531
6.38784
6.18669
1
1
1
1
1
1
1
1
1
1
1
1
1
1
1
1
1
1
1
1
1
1
1
1
1
1
1
1
1
1
1
1
1
1
1
1.00025
1.50542
6.00689
7.82411
7.62
7.47013
7.30625
7.13936
6.96539
6.78307
6.59476
6.40285
6.20725
1
1
1
1
1
1
1
1
1
1
1
1
1
1
1
1
1
1
1
1
1
1
1
1
1
1
1
1
1
1
1
1
1
1
1
1
1.01925
2.96507
7.07371
7.55415
7.42032
7.27448
7.116
6.94913
6.7732
6.59097
6.40624
6.2186
1
1
1
1
1
1
1
1
1
1
1
1
1
1
1
1
1
1
1
1
1
1
1
1
1
1
1
1
1
1
1
1
1
1
1
1
1.00012
1.25451
5.1303
7.54917
7.43576
7.29163
7.12802
6.96055
6.78626
6.60736
6.42707
6.24564
1
1
1
1
1
1
1
1
1
1
1
1
1
1
1
1
1
1
1
1
1
1
1
1
1
1
1
1
1
1
1
1
1
1
1
1
1
1.00556
2.19123
6.47399
7.41741
7.23218
7.09235
6.93517
6.77182
6.60426
6.43357
6.26001
1
1
1
1
1
1
1
1
1
1
1
1
1
1
1
1
1
1
1
1
1
1
1
1
1
1
1
1
1
1
1
1
1
1
1
1
1
1.00002
1.09706
3.84372
7.0606
7.24527
7.10166
6.94692
6.7845
6.61972
6.45285
6.2824
1
1
1
1
1
1
1
1
1
1
1
1
1
1
1
1
1
1
1
1
1
1
1
1
1
1
1
1
1
1
1
1
1
1
1
1
1
1
1.0013
1.53216
5.4516
7.28808
7.12568
6.9709
6.804
6.63591
6.46773
6.29866
1
1
1
1
1
1
1
1
1
1
1
1
1
1
1
1
1
1
1
1
1
1
1
1
1
1
1
1
1
1
1
1
1
1
1
1
1
1
1
1.02185
2.54604
6.43363
7.10346
6.94466
6.78971
6.63019
6.4673
6.30392
1
1
1
1
1
1
1
1
1
1
1
1
1
1
1
1
1
1
1
1
1
1
1
1
1
1
1
1
1
1
1
1
1
1
1
1
1
1
1
1.00017
1.16139
4.04469
6.79905
6.95155
6.8136
6.65897
6.50176
6.34212
1
1
1
1
1
1
1
1
1
1
1
1
1
1
1
1
1
1
1
1
1
1
1
1
1
1
1
1
1
1
1
1
1
1
1
1
1
1
1
1
1.00305
1.62851
5.28325
6.93169
6.83979
6.68433
6.53036
6.37175
1
1
1
1
1
1
1
1
1
1
1
1
1
1
1
1
1
1
1
1
1
1
1
1
1
1
1
1
1
1
1
1
1
1
1
1
1
1
1
1
1.00001
1.03021
2.48406
6.08594
6.81924
6.69485
6.53913
6.38465
1
1
1
1
1
1
1
1
1
1
1
1
1
1
1
1
1
1
1
1
1
1
1
1
1
1
1
1
1
1
1
1
1
1
1
1
1
1
1
1
1
1.00029
1.15117
3.62513
6.46034
6.72331
6.56839
6.40831
1
1
1
1
1
1
1
1
1
1
1
1
1
1
1
1
1
1
1
1
1
1
1
1
1
1
1
1
1
1
1
1
1
1
1
1
1
1
1
1
1
1
1.0029
1.47279
4.72414
6.56701
6.59833
6.44976
1
1
1
1
1
1
1
1
1
1
1
1
1
1
1
1
1
1
1
1
1
1
1
1
1
1
1
1
1
1
1
1
1
1
1
1
1
1
1
1
1
1
1.00001
1.01897
2.06723
5.45247
6.5571
6.48395
1
1
1
1
1
1
1
1
1
1
1
1
1
1
1
1
1
1
1
1
1
1
1
1
1
1
1
1
1
1
1
1
1
1
1
1
1
1
1
1
1
1
1
1.00017
1.08205
2.84203
5.92971
6.47659
1
1
1
1
1
1
1
1
1
1
1
1
1
1
1
1
1
1
1
1
1
1
1
1
1
1
1
1
1
1
1
1
1
1
1
1
1
1
1
1
1
1
1
1
1.00128
1.23757
3.69856
6.15236
1
1
1
1
1
1
1
1
1
1
1
1
1
1
1
1
1
1
1
1
1
1
1
1
1
1
1
1
1
1
1
1
1
1
1
1
1
1
1
1
1
1
1
1
1
1.00623
1.52746
4.48603
1
1
1
1
1
1
1
1
1
1
1
1
1
1
1
1
1
1
1
1
1
1
1
1
1
1
1
1
1
1
1
1
1
1
1
1
1
1
1
1
1
1
1
1
1
1.00004
1.02389
1.96745
1
1
1
1
1
1
1
1
1
1
1
1
1
1
1
1
1
1
1
1
1
1
1
1
1
1
1
1
1
1
1
1
1
1
1
1
1
1
1
1
1
1
1
1
1
1
1.00024
1.07057
1
1
1
1
1
1
1
1
1
1
1
1
1
1
1
1
1
1
1
1
1
1
1
1
1
1
1
1
1
1
1
1
1
1
1
1
1
1
1
1
1
1
1
1
1
1
1
1.00108
1
1
1
1
1
1
1
1
1
1
1
1
1
1
1
1
1
1
1
1
1
1
1
1
1
1
1
1
1
1
1
1
1
1
1
1
1
1
1
1
1
1
1
1
1
1
1
1
1
1
1
1
1
1
1
1
1
1
1
1
1
1
1
1
1
1
1
1
1
1
1
1
1
1
1
1
1
1
1
1
1
1
1
1
1
1
1
1
1
1
1
1
1
1
1
1
1
1
1
1
1
1
1
1
1
1
1
1
1
1
1
1
1
1
1
1
1
1
1
1
1
1
1
1
1
1
1
1
1
1
1
1
1
1
1
1
1
1
1
1
1
1
1
1
1
1
1
1
1
1
1
1
1
1
1
1
1
1
1
1
1
1
1
1
1
1
1
1
1
1
1
1
1
1
1
1
1
1
1
1
1
1
1
1
1
1
1
1
1
1
1
1
1
1
1
1
1
1
1
1
1
1
1
1
1
1
1
1
1
1
1
1
1
1
1
1
1
1
1
1
1
1
1
1
1
1
1
1
1
1
1
1
1
1
1
1
1
1
1
1
1
1
1
1
1
1
1
1
1
1
1
1
1
1
1
1
1
1
1
1
1
1
1
1
1
1
1
1
1
1
1
1
1
1
1
1
1
1
1
1
1
1
1
1
1
1
1
1
1
1
1
1
1
1
1
1
1
1
1
1
1
1
1
1
1
1
1
1
1
1
1
1
1
1
1
1
1
1
1
1
1
1
1
1
1
1
1
1
1
1
1
1
1
1
1
1
1
1
1
1
1
1
1
1
1
1
1
1
1
1
1
1
1
1
1
1
1
1
1
1
1
1
1
1
1
1
1
1
1
1
1
1
1
1
1
1
1
1
1
1
1
1
1
1
1
1
1
1
1
1
1
1
1
1
1
1
1
1
1
1
1
1
1
1
1
1
1
1
1
1
1
1
1
1
1
1
1
1
1
1
1
1
1
1
1
1
1
1
1
1
1
1
1
1
1
1
1
1
1
1
1
1
1
1
1
1
1
1
1
1
1
1
1
1
1
1
1
1
1
1
1
1
1
1
1
1
1
1
1
1
1
1
1
1
1
1
1
1
1
1
1
1
1
1
1
1
1
1
1
1
1
1
1
1
1
1
1
1
1
1
1
1
1
1
1
1
1
1
1
1
1
1
1
1
1
1
1
1
1
1
1
1
1
1
1
1
1
1
1
1
1
1
1
1
1
1
1
1
1
1
1
1
1
1
1
1
1
1
1
1
1
1
1
1
1
1
1
1
1
1
1
1
1
1
1
1
1
1
1
1
1
1
1
1
1
1
1
1
1
1
1
1
1
1
1
1
1
1
1
1
1
1
1
1
1
1
1
1
1
1
1
1
1
1
1
1
1
1
1
1
1
1
1
1
1
1
1
1
1
1
1
1
1
1
1
1
1
1
1
1
1
1
1
1
1
1
1
1
1
1
1
1
1
1
1
1
1
1
1
1
1
1
1
1
1
1
1
1
1
1
1
1
1
1
1
1
1
1
1
1
1
1
1
1
1
1
1
1
1
1
1
1
1
1
1
1
1
1
1
1
1
1
1
1
1
1
1
1
1
1
1
1
1
1
1
1
1
1
1
1
1
1
1
1
1
1
1
1
1
1
1
1
1
1
1
1
1
1
1
1
1
1
1
1
1
1
1
1
1
1
1
1
1
1
1
1
1
1
1
1
1
1
1
1
1
1
1
1
1
1
1
1
1
1
1
1
1
1
1
1
1
1
1
1
1
1
1
1
1
1
1
1
1
1
1
1
1
1
1
1
1
1
1
1
1
1
1
1
1
1
1
1
1
1
1
1
1
1
1
1
1
1
1
1
1
1
1
1
1
1
1
1
1
1
1
1
1
1
1
1
1
1
1
1
1
1
1
1
1
1
1
1
1
1
1
1
1
1
1
1
1
1
1
1
1
1
1
1
1
1
1
1
1
1
1
1
1
1
1
1
1
1
1
1
1
1
1
1
1
1
1
1
1
1
1
1
1
1
1
1
1
1
1
1
1
1
1
1
1
1
1
1
1
1
1
1
1
1
1
1
1
1
1.16925
0.25207
0.0826073
0.0268495
0.0248539
0.0380626
0.0748805
0.140941
0.217392
0.315853
0.403254
0.478773
0.568437
0.647563
0.647577
0.651041
0.692575
0.767715
0.832943
0.891833
0.942358
0.978402
0.985797
0.989707
1.00278
1.01214
1.0157
1.0262
1.0592
1.11382
1.14762
1.15716
1.16509
1.17214
1.17466
1.18698
1.19715
1.20018
1.20306
1.20472
1.20461
1.20176
1.198
1.20052
1.20721
1.21536
1.22347
1.2337
1.24299
1.2422
1.23891
1.23616
1.23669
1.23994
1.25451
1.27298
1.2787
1.27605
1.26767
1.25252
1.24076
1.23531
1.23152
1.23357
1.24374
1.24664
1.24255
1.23747
1.23537
1.23521
1.23825
1.24483
1.24501
1.242
1.23928
1.23617
1.23275
1.22943
1.22573
1.21891
1.2108
1.20593
1.20516
1.20603
1.20727
1.20673
1.20478
1.20152
1.19608
1.18869
1.18178
1.17638
1.17234
1.17225
1.17361
1.17167
1.16402
1.17051
1.23923
1.50567
2.07993
2.98181
3.8941
4.64358
5.37901
5.67667
5.73511
5.57385
5.36977
5.14093
4.99647
4.90542
4.84355
4.78948
4.73567
4.69691
4.66862
4.64261
4.60699
4.56266
4.51079
4.45879
4.40781
4.35356
4.29678
4.24134
4.18592
4.13119
4.08392
4.04571
4.01226
3.97939
3.944
3.90284
3.85848
3.82091
3.78717
3.75193
3.71238
3.66385
3.5959
3.51427
3.46565
3.44016
3.4162
3.39283
3.37188
3.35507
3.3434
3.33616
3.3246
3.30116
3.2685
3.21017
3.11363
3.03293
2.99645
2.97571
2.96026
2.96048
2.97214
2.96474
2.95146
2.93591
2.9075
2.85803
2.82211
2.80571
2.79209
2.77727
2.75846
2.72547
2.65892
2.58746
2.55387
2.53842
2.52667
2.51723
2.51506
2.52271
2.51479
2.4959
2.47237
2.42394
2.3519
2.31061
2.29475
2.28501
2.27797
2.2751
2.28649
2.29885
2.14528
1.01867
0.558413
0.361463
0.266957
0.212372
0.20398
0.228766
0.245415
0.247624
0.265861
0.292853
0.329861
0.396253
0.464234
0.510511
0.55941
0.620925
0.683014
0.743836
0.808314
0.885366
0.91172
0.928163
0.956897
0.978998
1.00046
1.03355
1.06844
1.1023
1.12431
1.13364
1.13996
1.15175
1.16667
1.18276
1.19031
1.19204
1.19308
1.19505
1.19867
1.20216
1.20355
1.20328
1.2011
1.2014
1.20544
1.21649
1.23306
1.24634
1.25039
1.24809
1.24209
1.24062
1.24328
1.25088
1.2599
1.26513
1.26216
1.25325
1.24112
1.23122
1.22624
1.22513
1.23245
1.24374
1.2462
1.24458
1.24222
1.24096
1.24168
1.24149
1.23936
1.23595
1.23236
1.22902
1.22641
1.2253
1.22546
1.22477
1.22137
1.21526
1.20845
1.20519
1.20473
1.20552
1.20513
1.2035
1.20141
1.19749
1.19025
1.18119
1.1733
1.16605
1.16096
1.16201
1.18748
1.30934
1.65471
2.08536
2.39418
2.63366
2.9815
3.47094
3.95429
4.33787
4.72396
4.97936
5.08037
5.09564
5.02747
4.96575
4.90682
4.85141
4.7871
4.73057
4.68354
4.63851
4.59044
4.53756
4.47575
4.41871
4.37337
4.33203
4.2883
4.24275
4.19376
4.14152
4.09232
4.05169
4.01625
3.98122
3.9434
3.89919
3.84887
3.80375
3.76886
3.73823
3.70631
3.66823
3.61778
3.55226
3.49435
3.46223
3.43627
3.41002
3.38331
3.35853
3.33738
3.31674
3.29369
3.26762
3.23791
3.19765
3.14526
3.09047
3.03613
2.9984
2.97866
2.97236
2.96712
2.95151
2.93838
2.92226
2.89747
2.85835
2.81759
2.79344
2.77639
2.7608
2.74336
2.71707
2.67489
2.6252
2.58037
2.54983
2.53289
2.52181
2.5143
2.50899
2.50001
2.48526
2.46398
2.43029
2.38394
2.3362
2.30354
2.28892
2.28109
2.27671
2.28352
2.28361
2.96727
1.77568
1.08218
0.840708
0.640355
0.47433
0.426716
0.408845
0.355494
0.314538
0.319073
0.322365
0.329908
0.363528
0.409909
0.452861
0.487594
0.517341
0.557127
0.609469
0.663429
0.74921
0.82306
0.864058
0.909553
0.965745
1.01068
1.06021
1.09094
1.101
1.11957
1.13698
1.1445
1.15981
1.17949
1.18756
1.18818
1.18582
1.18221
1.18393
1.18885
1.19762
1.20894
1.21469
1.21405
1.21053
1.20861
1.2109
1.22021
1.23488
1.25126
1.26383
1.26818
1.26927
1.26712
1.25988
1.25333
1.25119
1.25058
1.24744
1.24267
1.2368
1.23089
1.22773
1.22848
1.23465
1.23918
1.24142
1.24346
1.24509
1.24541
1.24499
1.24389
1.24125
1.23603
1.22854
1.21972
1.21339
1.21421
1.21773
1.2195
1.21872
1.21439
1.20782
1.20399
1.20224
1.20109
1.19984
1.19822
1.19579
1.19146
1.18559
1.17854
1.16632
1.17363
1.22821
1.45372
1.8676
2.29255
2.52244
2.64987
2.65344
2.63078
2.6779
2.86675
3.28423
3.81339
4.37376
4.75662
4.99407
5.00284
5.01973
4.99125
4.92583
4.84281
4.75785
4.67447
4.60375
4.54673
4.49629
4.43996
4.39611
4.36101
4.33212
4.30485
4.26744
4.22006
4.16662
4.1119
4.06012
4.01523
3.97436
3.93297
3.88679
3.83366
3.78513
3.74822
3.71584
3.68378
3.65074
3.61609
3.57464
3.52718
3.48761
3.45871
3.43399
3.40943
3.38214
3.34925
3.30825
3.26371
3.22255
3.18115
3.14801
3.12975
3.10883
3.08199
3.04423
3.01318
2.99083
2.96929
2.94962
2.92951
2.90624
2.88051
2.85189
2.82293
2.79638
2.76933
2.74053
2.71049
2.68056
2.65822
2.6366
2.61142
2.58147
2.55408
2.53464
2.51787
2.50095
2.48316
2.45985
2.43165
2.41058
2.39351
2.37435
2.34424
2.3081
2.28866
2.28012
2.27436
2.26049
3.57237
2.44268
1.73137
1.37568
1.0721
0.798877
0.710658
0.664481
0.575677
0.503256
0.479736
0.459922
0.447317
0.432435
0.425167
0.435433
0.446784
0.449705
0.458322
0.476825
0.506704
0.556154
0.647194
0.728318
0.785628
0.854033
0.911355
0.966259
1.01781
1.04416
1.07611
1.11878
1.14365
1.1629
1.18397
1.19138
1.19174
1.18243
1.1733
1.17257
1.17656
1.18705
1.20214
1.21076
1.21198
1.21039
1.20559
1.20126
1.20416
1.20956
1.2203
1.2414
1.25873
1.26449
1.26715
1.26603
1.25684
1.24838
1.2462
1.24376
1.24147
1.23906
1.23594
1.23384
1.23385
1.23612
1.23602
1.23659
1.23858
1.23975
1.24049
1.24134
1.24209
1.24219
1.24017
1.23533
1.22798
1.22038
1.21578
1.21439
1.21465
1.21396
1.21069
1.2064
1.20397
1.20249
1.20173
1.20127
1.19908
1.19337
1.18387
1.17502
1.1756
1.20005
1.32574
1.64986
2.09729
2.45655
2.67993
2.7333
2.70645
2.64124
2.59984
2.5904
2.58545
2.64491
2.82134
3.21618
3.75896
4.32707
4.62421
4.79771
4.80589
4.84788
4.84764
4.82564
4.77367
4.68897
4.59894
4.52296
4.45221
4.38941
4.33561
4.29589
4.26846
4.2409
4.20704
4.16745
4.11828
4.06353
4.01543
3.97315
3.93164
3.88725
3.83692
3.78657
3.74538
3.71043
3.67881
3.64876
3.61805
3.58452
3.54715
3.50775
3.46874
3.43246
3.39904
3.36675
3.33191
3.28948
3.24059
3.19529
3.16434
3.1452
3.13277
3.12068
3.10395
3.08151
3.04538
2.99835
2.96439
2.94058
2.91522
2.88468
2.85314
2.82686
2.80528
2.78412
2.75838
2.72702
2.69822
2.67883
2.66394
2.64908
2.63225
2.60983
2.57772
2.5428
2.51616
2.4924
2.4642
2.43402
2.41471
2.4041
2.39901
2.38979
2.37496
2.35088
2.31274
2.27854
2.26275
2.24324
4.02853
3.08547
2.33052
1.84841
1.52179
1.23207
1.0498
0.940356
0.842556
0.723158
0.639958
0.603504
0.58631
0.559636
0.523196
0.515949
0.518291
0.507277
0.497835
0.497978
0.48697
0.48621
0.499839
0.529948
0.576119
0.644984
0.728439
0.809158
0.900615
0.968996
1.00844
1.05742
1.09504
1.11279
1.13893
1.16325
1.16897
1.17266
1.18281
1.18575
1.18998
1.20254
1.22001
1.22367
1.21952
1.21332
1.20322
1.19001
1.18685
1.19214
1.20458
1.23163
1.26169
1.26977
1.27255
1.27313
1.26539
1.24665
1.2339
1.22933
1.22738
1.22778
1.22977
1.23251
1.23635
1.23959
1.24195
1.24482
1.24675
1.2458
1.24097
1.23497
1.2306
1.22994
1.23104
1.23169
1.23078
1.22813
1.22483
1.2209
1.21568
1.21007
1.20632
1.20539
1.20553
1.20695
1.21128
1.21434
1.21098
1.20204
1.18458
1.18718
1.23706
1.44168
1.87514
2.30772
2.61646
2.75105
2.7316
2.68447
2.66421
2.64832
2.64701
2.62993
2.60066
2.56292
2.53327
2.55719
2.69135
3.0352
3.53759
4.08041
4.38696
4.61238
4.6989
4.70819
4.71389
4.66563
4.63295
4.59104
4.52324
4.43255
4.34241
4.2695
4.22688
4.1939
4.16518
4.13779
4.10659
4.06707
4.02287
3.98199
3.94388
3.90252
3.85037
3.79005
3.73551
3.69105
3.65541
3.62815
3.60375
3.58151
3.55959
3.5326
3.49854
3.457
3.40882
3.35553
3.29909
3.24455
3.20359
3.18071
3.16541
3.1542
3.14902
3.14198
3.12767
3.10921
3.07819
3.01983
2.95809
2.91973
2.89177
2.86597
2.84215
2.81808
2.78757
2.74979
2.71851
2.69961
2.68777
2.68076
2.67775
2.67194
2.662
2.64641
2.61594
2.55898
2.4988
2.4615
2.43706
2.42203
2.41295
2.40944
2.41045
2.40361
2.39221
2.37727
2.35
2.30195
2.25576
2.21763
4.36267
3.54017
2.88065
2.35899
1.94628
1.63887
1.402
1.21649
1.10889
1.01922
0.899165
0.763344
0.727235
0.702877
0.664677
0.645116
0.633165
0.609527
0.577482
0.555018
0.535416
0.519825
0.521615
0.531477
0.534763
0.542581
0.561191
0.595175
0.652587
0.739004
0.812337
0.892557
0.983718
1.03425
1.0838
1.1284
1.1382
1.15193
1.17259
1.17497
1.17816
1.18981
1.20233
1.20533
1.2022
1.19771
1.19201
1.18741
1.18785
1.19121
1.20033
1.22216
1.2527
1.26167
1.26304
1.26207
1.25366
1.2393
1.22853
1.2251
1.22528
1.2302
1.23908
1.24443
1.24607
1.24574
1.24515
1.24449
1.24279
1.23866
1.23115
1.22494
1.22312
1.22499
1.23177
1.23977
1.24157
1.23931
1.23146
1.22198
1.21494
1.21046
1.20945
1.21005
1.21106
1.21298
1.21222
1.20722
1.19848
1.19214
1.20801
1.32017
1.63616
2.10022
2.51964
2.75046
2.75246
2.72498
2.70505
2.69863
2.70597
2.69324
2.6614
2.62142
2.57834
2.53846
2.50828
2.50249
2.49526
2.5067
2.60172
2.86682
3.31907
3.79743
4.17635
4.38136
4.5581
4.54957
4.56322
4.5573
4.52856
4.48264
4.40435
4.32533
4.25275
4.18965
4.14417
4.11692
4.07812
4.03262
3.99429
3.96426
3.93401
3.89657
3.85131
3.8017
3.75058
3.7017
3.65736
3.61863
3.5896
3.56701
3.54815
3.52642
3.49933
3.46506
3.41871
3.36054
3.29551
3.23679
3.20118
3.1821
3.16711
3.1549
3.14805
3.14316
3.13173
3.11498
3.08858
3.03515
2.95932
2.90325
2.87493
2.85623
2.83837
2.81671
2.78399
2.73718
2.70331
2.68918
2.67933
2.67429
2.67765
2.67815
2.6697
2.65672
2.6312
2.57108
2.48977
2.44472
2.42949
2.41994
2.41184
2.4079
2.40926
2.40671
2.39734
2.38509
2.36932
2.33667
2.27284
2.19301
4.63512
3.9095
3.31784
2.79458
2.33429
2.03349
1.77571
1.54417
1.35014
1.24337
1.12484
1.00201
0.924307
0.865024
0.802455
0.775809
0.750065
0.720204
0.67898
0.649715
0.627602
0.604072
0.599448
0.595013
0.586792
0.577943
0.571377
0.561284
0.563275
0.576688
0.604744
0.653046
0.741321
0.845811
0.927088
1.01032
1.05703
1.09033
1.13199
1.15557
1.16432
1.17909
1.18574
1.18572
1.18548
1.18407
1.18105
1.17744
1.18223
1.19357
1.20415
1.21887
1.23833
1.24467
1.24776
1.24818
1.24346
1.23792
1.23613
1.2354
1.23851
1.24583
1.24704
1.24404
1.23995
1.23749
1.23604
1.23458
1.23217
1.22828
1.22481
1.22424
1.22666
1.23442
1.24346
1.24433
1.2413
1.2335
1.22014
1.21022
1.20785
1.20745
1.20834
1.20895
1.20773
1.20555
1.20077
1.19139
1.19317
1.24352
1.45428
1.88724
2.35399
2.69353
2.74164
2.75833
2.75833
2.75303
2.75561
2.73896
2.71059
2.67273
2.63139
2.59534
2.56102
2.53824
2.52791
2.51364
2.48978
2.4623
2.43803
2.4352
2.49782
2.68074
3.04157
3.44664
3.88287
4.14264
4.33738
4.41421
4.45865
4.44129
4.40834
4.3658
4.30242
4.22698
4.15434
4.09674
4.04495
4.00056
3.96674
3.93922
3.90389
3.85751
3.82359
3.79674
3.76532
3.72867
3.68445
3.63686
3.60101
3.57188
3.54361
3.51911
3.48981
3.45388
3.41369
3.37057
3.32096
3.26528
3.21992
3.19729
3.1821
3.16946
3.15636
3.14325
3.12797
3.10783
3.0783
3.0317
2.96976
2.90802
2.86846
2.84637
2.82786
2.8068
2.77833
2.74203
2.71111
2.69218
2.68039
2.67522
2.68491
2.6868
2.6723
2.65311
2.62143
2.56958
2.51002
2.4617
2.43498
2.42271
2.41357
2.40576
2.40161
2.40105
2.39589
2.38549
2.37033
2.34015
2.27859
2.18465
4.84073
4.20847
3.66484
3.14227
2.70812
2.38292
2.10076
1.83699
1.65369
1.49488
1.32026
1.18755
1.1121
1.04815
0.984742
0.942052
0.900517
0.851556
0.804251
0.76582
0.736676
0.707054
0.692488
0.674829
0.654293
0.64094
0.623777
0.593733
0.580977
0.584084
0.591743
0.599087
0.612787
0.643282
0.683166
0.74559
0.840324
0.917045
0.992135
1.07726
1.14765
1.16831
1.16542
1.15693
1.15036
1.14838
1.14924
1.15382
1.16831
1.19308
1.21574
1.22616
1.22767
1.22567
1.2264
1.2276
1.22767
1.22933
1.23467
1.24414
1.25035
1.25071
1.24906
1.24393
1.23506
1.22946
1.22597
1.22301
1.22059
1.22043
1.22321
1.22889
1.23798
1.24322
1.24241
1.23965
1.23438
1.22227
1.20713
1.20228
1.2011
1.20189
1.20683
1.20749
1.2053
1.20288
1.19667
1.2119
1.31473
1.65561
2.17344
2.59549
2.71601
2.76381
2.80233
2.8104
2.80122
2.77932
2.74659
2.7079
2.67279
2.64191
2.61237
2.59101
2.5749
2.55489
2.52416
2.4918
2.46668
2.44217
2.42261
2.41042
2.39716
2.38087
2.40347
2.5025
2.73773
3.11913
3.53691
3.86895
4.11013
4.26312
4.33435
4.34452
4.31504
4.26212
4.19086
4.11157
4.04924
4.00821
3.97159
3.93408
3.88848
3.83442
3.80208
3.77908
3.75877
3.73314
3.69933
3.65588
3.60593
3.55727
3.51048
3.47343
3.4506
3.43213
3.41039
3.38443
3.35392
3.31749
3.27291
3.22424
3.18022
3.14165
3.11549
3.09613
3.07724
3.05842
3.03856
3.01654
2.98428
2.9427
2.89715
2.85733
2.8275
2.80198
2.7771
2.75494
2.73383
2.71088
2.69247
2.67989
2.66778
2.65053
2.63126
2.60872
2.58378
2.55774
2.52859
2.49492
2.45774
2.43356
2.42251
2.41451
2.41188
2.40569
2.39175
2.37345
2.3481
2.31402
2.26972
2.20283
5.02449
4.46412
3.94216
3.43379
3.04612
2.70091
2.39732
2.12148
1.90997
1.72908
1.55391
1.41107
1.31773
1.22082
1.14399
1.0952
1.04613
0.994577
0.93731
0.883169
0.836786
0.803052
0.788533
0.772143
0.744818
0.719316
0.70327
0.675766
0.646113
0.641807
0.638396
0.63191
0.632056
0.630526
0.623952
0.623735
0.642469
0.685719
0.756849
0.86066
0.972201
1.07659
1.12658
1.13918
1.12897
1.11538
1.11397
1.11787
1.13864
1.18133
1.21151
1.22452
1.23035
1.22899
1.21687
1.21535
1.21558
1.21637
1.22673
1.24307
1.24746
1.24806
1.24772
1.24367
1.2337
1.22021
1.21196
1.20965
1.20993
1.21483
1.22669
1.24119
1.2471
1.24638
1.24156
1.2335
1.22103
1.20484
1.19862
1.19752
1.19697
1.20079
1.20822
1.20794
1.20655
1.21023
1.25096
1.47092
1.91457
2.42961
2.6693
2.7951
2.84587
2.84097
2.82346
2.79781
2.77112
2.74556
2.71704
2.68518
2.65391
2.63445
2.62099
2.60291
2.57721
2.54636
2.5124
2.47901
2.45249
2.43599
2.42224
2.40554
2.38543
2.36178
2.33925
2.31995
2.31019
2.36144
2.50917
2.80967
3.18332
3.58547
3.87451
4.12814
4.22416
4.22718
4.17621
4.09843
4.05928
4.02368
3.99266
3.94955
3.8945
3.83792
3.79388
3.76612
3.74262
3.72147
3.69322
3.65689
3.60878
3.55583
3.50896
3.46362
3.42303
3.40331
3.39811
3.39366
3.37306
3.35163
3.32063
3.2685
3.19851
3.13915
3.09549
3.06591
3.04262
3.02159
3.00461
2.99203
2.97896
2.95991
2.93184
2.89105
2.84629
2.80912
2.78504
2.76743
2.74982
2.73103
2.70984
2.6839
2.64803
2.61643
2.59232
2.57161
2.55342
2.54118
2.53118
2.51895
2.49929
2.46655
2.42776
2.40582
2.39151
2.37636
2.35788
2.33482
2.30871
2.28218
2.26003
2.22873
5.17461
4.66924
4.15869
3.70722
3.33576
2.98577
2.6447
2.39484
2.16602
1.96174
1.77218
1.62944
1.51891
1.42278
1.33281
1.25975
1.18732
1.11619
1.06026
1.00818
0.95682
0.914987
0.892156
0.867335
0.840698
0.813998
0.787554
0.758686
0.725819
0.710779
0.699325
0.683798
0.674656
0.666632
0.652845
0.636594
0.636071
0.637611
0.644474
0.669496
0.723148
0.805861
0.890171
0.962161
1.03748
1.0711
1.08859
1.09523
1.10768
1.15031
1.19085
1.20741
1.21565
1.2194
1.21606
1.20442
1.20476
1.20964
1.2226
1.23751
1.2419
1.24143
1.24071
1.23531
1.21944
1.20352
1.19941
1.1992
1.20314
1.21632
1.23653
1.24506
1.2461
1.24529
1.23927
1.22471
1.20699
1.19851
1.19675
1.19576
1.19689
1.203
1.20803
1.20814
1.22045
1.31212
1.64211
2.20177
2.57579
2.80983
2.86713
2.85946
2.83928
2.815
2.79455
2.77262
2.74742
2.72465
2.70164
2.67655
2.65365
2.63306
2.61157
2.58805
2.56358
2.53422
2.5024
2.47444
2.45202
2.42958
2.40355
2.37734
2.35599
2.33862
2.32654
2.31059
2.29298
2.26581
2.23352
2.24348
2.32651
2.54427
2.87591
3.2912
3.6401
3.91921
4.05037
4.02774
4.01754
3.9768
3.94427
3.90663
3.88222
3.84434
3.80972
3.77316
3.73539
3.70548
3.6754
3.6442
3.6093
3.56812
3.51924
3.46507
3.41808
3.38683
3.36897
3.3617
3.3754
3.36412
3.33669
3.29867
3.2399
3.15818
3.09098
3.05261
3.0266
3.00515
2.98724
2.97427
2.96835
2.95778
2.93899
2.91283
2.87906
2.83869
2.80549
2.78106
2.76037
2.74002
2.71448
2.67318
2.62329
2.58872
2.5676
2.55223
2.54124
2.53502
2.533
2.527
2.51561
2.49476
2.45069
2.40109
2.36988
2.34881
2.32702
2.30439
2.28235
2.26777
2.26139
2.24632
5.30896
4.8428
4.3545
3.95134
3.58254
3.21737
2.89649
2.64471
2.40582
2.18142
1.99968
1.86097
1.72421
1.59542
1.50989
1.42595
1.34507
1.26104
1.18588
1.12328
1.06025
1.02518
0.997411
0.965964
0.929211
0.90084
0.868948
0.836237
0.810692
0.79588
0.780727
0.758938
0.735183
0.720237
0.702729
0.682882
0.673673
0.668804
0.663419
0.664654
0.667046
0.674977
0.692997
0.724256
0.786024
0.865493