/*--------------------------------*- C++ -*----------------------------------*\
  =========                 |
  \\      /  F ield         | OpenFOAM: The Open Source CFD Toolbox
   \\    /   O peration     | Website:  https://openfoam.org
    \\  /    A nd           | Version:  7
     \\/     M anipulation  |
\*---------------------------------------------------------------------------*/
FoamFile
{
    version     2.0;
    format      ascii;
    class       volScalarField;
    location    "1.6";
    object      T;
}
// * * * * * * * * * * * * * * * * * * * * * * * * * * * * * * * * * * * * * //

dimensions      [0 0 0 1 0 0 0];

internalField   nonuniform List<scalar> 
16128
(
1
1
1
1
1
1
1
1
1
1
1
1
1
1
1
1
1
1
1
1
1
1
1
1
1
2.00926
2.68422
2.72679
2.74284
2.75971
2.77111
2.7784
2.78235
2.78485
2.78718
2.78956
2.79151
2.79288
2.79538
2.80173
2.81245
2.82447
2.83503
2.84445
2.85613
2.87232
2.88925
2.89757
1
1
1
1
1
1
1
1
1
1
1
1
1
1
1
1
1
1
1
1
1
1
1
1
1
1.99717
2.68169
2.72673
2.74296
2.75961
2.77083
2.77797
2.78188
2.78441
2.78685
2.78927
2.79113
2.79239
2.79485
2.80122
2.81197
2.82396
2.83445
2.84383
2.85542
2.87154
2.88829
2.89643
1
1
1
1
1
1
1
1
1
1
1
1
1
1
1
1
1
1
1
1
1
1
1
1
1
1.96854
2.67837
2.72589
2.74221
2.75868
2.7696
2.77659
2.78054
2.78317
2.78583
2.78837
2.79025
2.79151
2.794
2.80044
2.81126
2.82324
2.83361
2.8429
2.85436
2.87045
2.88699
2.89492
1
1
1
1
1
1
1
1
1
1
1
1
1
1
1
1
1
1
1
1
1
1
1
1
1
1.92524
2.67144
2.72348
2.74016
2.75663
2.76725
2.77406
2.778
2.78077
2.78371
2.78649
2.78855
2.78994
2.79253
2.79905
2.80989
2.82188
2.83222
2.84146
2.85278
2.86885
2.88516
2.89283
1
1
1
1
1
1
1
1
1
1
1
1
1
1
1
1
1
1
1
1
1
1
1
1
1
1.8655
2.65925
2.71907
2.73639
2.75302
2.7634
2.77022
2.77436
2.77746
2.78079
2.78388
2.78615
2.78771
2.7904
2.79687
2.8076
2.81959
2.83
2.83927
2.85053
2.86667
2.88286
2.89037
1
1
1
1
1
1
1
1
1
1
1
1
1
1
1
1
1
1
1
1
1
1
1
1
1
1.78657
2.64006
2.71382
2.73182
2.7485
2.75841
2.76497
2.76914
2.77245
2.77614
2.77957
2.78227
2.78428
2.78736
2.79395
2.80456
2.81647
2.82691
2.8362
2.84738
2.86364
2.87985
2.88729
1
1
1
1
1
1
1
1
1
1
1
1
1
1
1
1
1
1
1
1
1
1
1
1
1
1.69092
2.61501
2.70883
2.72605
2.74221
2.75175
2.75837
2.76297
2.76683
2.77103
2.7748
2.77794
2.78033
2.78387
2.79055
2.80085
2.8124
2.82261
2.83183
2.84303
2.85956
2.87604
2.88361
1
1
1
1
1
1
1
1
1
1
1
1
1
1
1
1
1
1
1
1
1
1
1
1
1
1.5737
2.57923
2.70362
2.71848
2.73407
2.7437
2.75095
2.75634
2.76087
2.76561
2.76961
2.77307
2.77567
2.77952
2.78623
2.79625
2.80744
2.8174
2.8264
2.83749
2.85418
2.87096
2.87867
1
1
1
1
1
1
1
1
1
1
1
1
1
1
1
1
1
1
1
1
1
1
1
1
1
1.4257
2.522
2.69735
2.70952
2.72443
2.73441
2.74284
2.7494
2.75475
2.76001
2.76432
2.76803
2.77085
2.77487
2.78138
2.79081
2.80127
2.81058
2.8191
2.83013
2.84709
2.86446
2.87267
1
1
1
1
1
1
1
1
1
1
1
1
1
1
1
1
1
1
1
1
1
1
1
1
1
1.25358
2.44313
2.69185
2.70003
2.71367
2.72395
2.73365
2.7415
2.74782
2.75379
2.75872
2.76286
2.76599
2.76993
2.77586
2.78444
2.79409
2.80268
2.81071
2.82152
2.83845
2.85622
2.86476
1
1
1
1
1
1
1
1
1
1
1
1
1
1
1
1
1
1
1
1
1
1
1
1
1
1.07433
2.35371
2.69238
2.69703
2.70718
2.71621
2.72577
2.73403
2.74082
2.74712
2.75246
2.75703
2.76047
2.76421
2.7694
2.77688
2.78531
2.79294
2.80026
2.81067
2.82743
2.84554
2.85455
1
1
1
1
1
1
1
1
1
1
1
1
1
1
1
1
1
1
1
1
1
1
1
1
1
1.00208
2.25295
2.68793
2.69498
2.70341
2.7113
2.71939
2.72667
2.73302
2.73917
2.74472
2.74966
2.75344
2.75715
2.76181
2.7682
2.77516
2.78177
2.78831
2.79795
2.81375
2.83116
2.8395
1
1
1
1
1
1
1
1
1
1
1
1
1
1
1
1
1
1
1
1
1
1
1
1
1
1.00001
2.11367
2.67833
2.69637
2.70335
2.7094
2.71501
2.72027
2.72535
2.73092
2.73663
2.74198
2.74606
2.74961
2.75364
2.75864
2.76378
2.76877
2.77355
2.78114
2.79538
2.81179
2.82082
1
1
1
1
1
1
1
1
1
1
1
1
1
1
1
1
1
1
1
1
1
1
1
1
1
1
1.92852
2.64207
2.69324
2.70178
2.70723
2.71096
2.7143
2.71777
2.72239
2.72802
2.73364
2.73802
2.74145
2.74471
2.74783
2.75105
2.75394
2.75689
2.76256
2.77465
2.78712
2.78955
1
1
1
1
1
1
1
1
1
1
1
1
1
1
1
1
1
1
1
1
1
1
1
1
1
1
1.68166
2.5606
2.67666
2.6929
2.70082
2.70422
2.7062
2.70837
2.71221
2.71799
2.7242
2.7291
2.73246
2.73459
2.73596
2.737
2.73744
2.73734
2.73793
2.74176
2.74736
2.74692
1
1
1
1
1
1
1
1
1
1
1
1
1
1
1
1
1
1
1
1
1
1
1
1
1
1
1.35638
2.44041
2.66289
2.6758
2.68627
2.69244
2.695
2.69693
2.70037
2.70608
2.71216
2.7176
2.72109
2.72234
2.72203
2.72084
2.71817
2.71337
2.70799
2.70591
2.70934
2.72055
1
1
1
1
1
1
1
1
1
1
1
1
1
1
1
1
1
1
1
1
1
1
1
1
1
1
1.03596
2.32533
2.66429
2.6652
2.66978
2.67528
2.67885
2.68168
2.68545
2.69121
2.6971
2.7032
2.70716
2.70799
2.70637
2.7028
2.69688
2.68775
2.6744
2.65405
2.60464
2.49068
1
1
1
1
1
1
1
1
1
1
1
1
1
1
1
1
1
1
1
1
1
1
1
1
1
1
1.00029
2.17378
2.63792
2.64363
2.6496
2.65591
2.66133
2.66549
2.66934
2.67423
2.67915
2.68515
2.68952
2.69046
2.68813
2.68266
2.67351
2.65878
2.63554
2.59351
2.52899
2.34848
1
1
1
1
1
1
1
1
1
1
1
1
1
1
1
1
1
1
1
1
1
1
1
1
1
1
0.999999
1.95252
2.61062
2.63754
2.6457
2.65118
2.65377
2.65548
2.65722
2.6596
2.6622
2.6662
2.66951
2.66997
2.66719
2.66027
2.64839
2.62896
2.59818
2.54703
2.45906
2.26535
1
1
1
1
1
1
1
1
1
1
1
1
1
1
1
1
1
1
1
1
1
1
1
1
1
1
1
1.60079
2.50728
2.62121
2.63708
2.64554
2.6481
2.64839
2.64816
2.64756
2.64743
2.64802
2.64876
2.64792
2.64419
2.6361
2.62205
2.59941
2.56286
2.50866
2.40594
2.24076
1
1
1
1
1
1
1
1
1
1
1
1
1
1
1
1
1
1
1
1
1
1
1
1
1
1
1
1.14645
2.35238
2.62282
2.62761
2.63455
2.63912
2.64004
2.63918
2.63726
2.63496
2.6323
2.62951
2.62586
2.62009
2.61058
2.59486
2.57024
2.53187
2.47609
2.3756
2.24322
1
1
1
1
1
1
1
1
1
1
1
1
1
1
1
1
1
1
1
1
1
1
1
1
1
1
1
1.00502
2.19077
2.5893
2.60543
2.61738
2.62436
2.62779
2.62777
2.62627
2.62319
2.61837
2.61238
2.60557
2.59722
2.58576
2.56859
2.54256
2.50407
2.44791
2.35876
2.25216
1
1
1
1
1
1
1
1
1
1
1
1
1
1
1
1
1
1
1
1
1
1
1
1
1
1
1
0.999995
1.87792
2.53598
2.58825
2.60268
2.61018
2.61489
2.61568
2.61447
2.61125
2.60539
2.59733
2.58794
2.57703
2.56324
2.54446
2.51764
2.47938
2.42509
2.34842
2.26146
1
1
1
1
1
1
1
1
1
1
1
1
1
1
1
1
1
1
1
1
1
1
1
1
1
1
1
0.999998
1.40793
2.41849
2.57618
2.58467
2.59191
2.59727
2.59959
2.59905
2.59659
2.59108
2.58257
2.57201
2.55949
2.54391
2.52355
2.4959
2.45867
2.40738
2.34191
2.26872
1
1
1
1
1
1
1
1
1
1
1
1
1
1
1
1
1
1
1
1
1
1
1
1
1
1
1
1
1.04029
2.26107
2.56709
2.56623
2.57166
2.57651
2.58029
2.58124
2.57979
2.5753
2.5674
2.55675
2.54354
2.52709
2.50592
2.47773
2.44157
2.39371
2.3375
2.27409
1
1
1
1
1
1
1
1
1
1
1
1
1
1
1
1
1
1
1
1
1
1
1
1
1
1
1
1
1.00029
1.96233
2.52326
2.55184
2.55655
2.55974
2.56338
2.56453
2.56307
2.55897
2.55162
2.54129
2.52786
2.51142
2.49023
2.46266
2.42762
2.38368
2.33469
2.27735
1
1
1
1
1
1
1
1
1
1
1
1
1
1
1
1
1
1
1
1
1
1
1
1
1
1
1
1
0.999999
1.45793
2.41563
2.54278
2.53943
2.5417
2.54517
2.54634
2.54507
2.5415
2.53475
2.52476
2.51142
2.49544
2.47457
2.44872
2.41531
2.37582
2.33231
2.27994
1
1
1
1
1
1
1
1
1
1
1
1
1
1
1
1
1
1
1
1
1
1
1
1
1
1
1
1
1
1.04997
2.24008
2.52393
2.52296
2.52467
2.5274
2.52844
2.52721
2.52393
2.51773
2.50794
2.49471
2.47892
2.45861
2.43484
2.40437
2.36946
2.33031
2.28275
1
1
1
1
1
1
1
1
1
1
1
1
1
1
1
1
1
1
1
1
1
1
1
1
1
1
1
1
1
1.00044
1.86855
2.4676
2.50477
2.50981
2.51318
2.51299
2.51141
2.50779
2.50141
2.4914
2.47808
2.46186
2.44221
2.41995
2.39261
2.36197
2.32655
2.28458
1
1
1
1
1
1
1
1
1
1
1
1
1
1
1
1
1
1
1
1
1
1
1
1
1
1
1
1
1
0.999999
1.26083
2.32949
2.50648
2.49862
2.49684
2.49554
2.49337
2.48979
2.48398
2.4748
2.46223
2.44616
2.42704
2.40551
2.38056
2.35323
2.32144
2.28433
1
1
1
1
1
1
1
1
1
1
1
1
1
1
1
1
1
1
1
1
1
1
1
1
1
1
1
1
1
1
1.01476
2.12844
2.47564
2.47676
2.47821
2.47696
2.47493
2.4719
2.46691
2.45875
2.44703
2.43153
2.41293
2.39177
2.36805
2.3426
2.31428
2.28189
1
1
1
1
1
1
1
1
1
1
1
1
1
1
1
1
1
1
1
1
1
1
1
1
1
1
1
1
1
1
1.00002
1.62366
2.38874
2.46379
2.46193
2.45936
2.4578
2.45537
2.45124
2.44404
2.43326
2.41867
2.40087
2.38013
2.35685
2.33243
2.3067
2.27747
1
1
1
1
1
1
1
1
1
1
1
1
1
1
1
1
1
1
1
1
1
1
1
1
1
1
1
1
1
1
0.999999
1.09659
2.21126
2.45437
2.44287
2.4407
2.43957
2.43816
2.43485
2.42871
2.419
2.40553
2.38889
2.36914
2.34642
2.32244
2.29802
2.27137
1
1
1
1
1
1
1
1
1
1
1
1
1
1
1
1
1
1
1
1
1
1
1
1
1
1
1
1
1
1
1
1.00177
1.81789
2.3828
2.41975
2.42282
2.42365
2.42255
2.41942
2.41342
2.40427
2.39196
2.3767
2.35831
2.3367
2.31358
2.29001
2.26519
1
1
1
1
1
1
1
1
1
1
1
1
1
1
1
1
1
1
1
1
1
1
1
1
1
1
1
1
1
1
1
1
1.1936
2.22053
2.42046
2.41181
2.40986
2.4069
2.40252
2.39638
2.38789
2.37686
2.36325
2.34661
2.32665
2.30474
2.28214
2.25874
1
1
1
1
1
1
1
1
1
1
1
1
1
1
1
1
1
1
1
1
1
1
1
1
1
1
1
1
1
1
1
1
1.00769
1.90499
2.36688
2.39221
2.39143
2.38974
2.38631
2.38045
2.37229
2.36211
2.34972
2.33459
2.31644
2.29606
2.27475
2.25272
1
1
1
1
1
1
1
1
1
1
1
1
1
1
1
1
1
1
1
1
1
1
1
1
1
1
1
1
1
1
1
1
1.00001
1.26471
2.21048
2.38941
2.38057
2.37682
2.37231
2.36571
2.35727
2.34738
2.33589
2.32222
2.30601
2.28743
2.26738
2.2465
1
1
1
1
1
1
1
1
1
1
1
1
1
1
1
1
1
1
1
1
1
1
1
1
1
1
1
1
1
1
1
1
1
1.01475
1.92415
2.33981
2.36341
2.35973
2.35554
2.34947
2.34179
2.33287
2.32251
2.31021
2.29563
2.27872
2.25995
2.24013
1
1
1
1
1
1
1
1
1
1
1
1
1
1
1
1
1
1
1
1
1
1
1
1
1
1
1
1
1
1
1
1
1
1.00005
1.293
2.18093
2.35464
2.34646
2.34235
2.33621
2.32867
2.32026
2.31052
2.2989
2.28528
2.2697
2.25241
2.23373
1
1
1
1
1
1
1
1
1
1
1
1
1
1
1
1
1
1
1
1
1
1
1
1
1
1
1
1
1
1
1
1
1
1
1.01823
1.87985
2.29922
2.33243
2.32687
2.32078
2.31382
2.30626
2.29732
2.28658
2.27401
2.25974
2.2439
2.2266
1
1
1
1
1
1
1
1
1
1
1
1
1
1
1
1
1
1
1
1
1
1
1
1
1
1
1
1
1
1
1
1
1
1
1.00009
1.26767
2.12832
2.31853
2.31212
2.30706
2.30064
2.29351
2.28495
2.2748
2.26302
2.24974
2.23505
2.21908
1
1
1
1
1
1
1
1
1
1
1
1
1
1
1
1
1
1
1
1
1
1
1
1
1
1
1
1
1
1
1
1
1
1
1
1.01491
1.76204
2.24565
2.29835
2.29034
2.28436
2.27805
2.27057
2.26154
2.25082
2.23858
2.22496
2.21011
1
1
1
1
1
1
1
1
1
1
1
1
1
1
1
1
1
1
1
1
1
1
1
1
1
1
1
1
1
1
1
1
1
1
1
1.00008
1.19038
2.06044
2.28565
2.27429
2.26972
2.26374
2.25696
2.24884
2.23906
2.22774
2.21515
2.20134
1
1
1
1
1
1
1
1
1
1
1
1
1
1
1
1
1
1
1
1
1
1
1
1
1
1
1
1
1
1
1
1
1
1
1
1
1.00734
1.58355
2.17082
2.25757
2.25142
2.24662
2.24088
2.23382
2.22511
2.21493
2.20361
2.19113
1
1
1
1
1
1
1
1
1
1
1
1
1
1
1
1
1
1
1
1
1
1
1
1
1
1
1
1
1
1
1
1
1
1
1
1
1.00004
1.0978
1.9456
2.24391
2.24007
2.23464
2.22827
2.22134
2.21321
2.20386
2.19351
2.18216
1
1
1
1
1
1
1
1
1
1
1
1
1
1
1
1
1
1
1
1
1
1
1
1
1
1
1
1
1
1
1
1
1
1
1
1
1
1.00204
1.39532
2.09599
2.22609
2.21495
2.21117
2.20568
2.19901
2.19111
2.18203
2.17183
1
1
1
1
1
1
1
1
1
1
1
1
1
1
1
1
1
1
1
1
1
1
1
1
1
1
1
1
1
1
1
1
1
1
1
1
1
1.00001
1.03736
1.74641
2.16312
2.20918
2.20033
2.19368
2.18709
2.17988
2.17164
2.16217
1
1
1
1
1
1
1
1
1
1
1
1
1
1
1
1
1
1
1
1
1
1
1
1
1
1
1
1
1
1
1
1
1
1
1
1
1
1
1.00044
1.19677
1.96401
2.19644
2.18803
2.18181
2.17496
2.16783
2.16006
2.15132
1
1
1
1
1
1
1
1
1
1
1
1
1
1
1
1
1
1
1
1
1
1
1
1
1
1
1
1
1
1
1
1
1
1
1
1
1
1
1
1.00818
1.47534
2.07257
2.17469
2.16534
2.15913
2.15296
2.14617
2.13859
1
1
1
1
1
1
1
1
1
1
1
1
1
1
1
1
1
1
1
1
1
1
1
1
1
1
1
1
1
1
1
1
1
1
1
1
1
1
1
1.00005
1.06162
1.76579
2.11885
2.15957
2.15059
2.14291
2.13602
2.12883
1
1
1
1
1
1
1
1
1
1
1
1
1
1
1
1
1
1
1
1
1
1
1
1
1
1
1
1
1
1
1
1
1
1
1
1
1
1
1
1
1.00105
1.22672
1.92512
2.14244
2.13962
2.13251
2.12558
2.11815
1
1
1
1
1
1
1
1
1
1
1
1
1
1
1
1
1
1
1
1
1
1
1
1
1
1
1
1
1
1
1
1
1
1
1
1
1
1
1
1
1
1.01127
1.45425
2.01813
2.12624
2.11979
2.1125
2.10551
1
1
1
1
1
1
1
1
1
1
1
1
1
1
1
1
1
1
1
1
1
1
1
1
1
1
1
1
1
1
1
1
1
1
1
1
1
1
1
1
1
1.00009
1.05735
1.68109
2.06341
2.11344
2.10294
2.09413
1
1
1
1
1
1
1
1
1
1
1
1
1
1
1
1
1
1
1
1
1
1
1
1
1
1
1
1
1
1
1
1
1
1
1
1
1
1
1
1
1
1
1.00098
1.17293
1.84384
2.07834
2.09619
2.08728
1
1
1
1
1
1
1
1
1
1
1
1
1
1
1
1
1
1
1
1
1
1
1
1
1
1
1
1
1
1
1
1
1
1
1
1
1
1
1
1
1
1
1
1.00688
1.34924
1.92481
2.07868
2.07692
1
1
1
1
1
1
1
1
1
1
1
1
1
1
1
1
1
1
1
1
1
1
1
1
1
1
1
1
1
1
1
1
1
1
1
1
1
1
1
1
1
1
1
1.00005
1.03087
1.52303
1.98079
2.06537
1
1
1
1
1
1
1
1
1
1
1
1
1
1
1
1
1
1
1
1
1
1
1
1
1
1
1
1
1
1
1
1
1
1
1
1
1
1
1
1
1
1
1
1
1.00041
1.08894
1.67749
2.00718
1
1
1
1
1
1
1
1
1
1
1
1
1
1
1
1
1
1
1
1
1
1
1
1
1
1
1
1
1
1
1
1
1
1
1
1
1
1
1
1
1
1
1
1
1
1.00216
1.18873
1.79236
1
1
1
1
1
1
1
1
1
1
1
1
1
1
1
1
1
1
1
1
1
1
1
1
1
1
1
1
1
1
1
1
1
1
1
1
1
1
1
1
1
1
1
1
1
1.00001
1.00863
1.31753
1
1
1
1
1
1
1
1
1
1
1
1
1
1
1
1
1
1
1
1
1
1
1
1
1
1
1
1
1
1
1
1
1
1
1
1
1
1
1
1
1
1
1
1
1
1
1.00007
1.02619
1
1
1
1
1
1
1
1
1
1
1
1
1
1
1
1
1
1
1
1
1
1
1
1
1
1
1
1
1
1
1
1
1
1
1
1
1
1
1
1
1
1
1
1
1
1
1
1.00034
1
1
1
1
1
1
1
1
1
1
1
1
1
1
1
1
1
1
1
1
1
1
1
1
1
1
1
1
1
1
1
1
1
1
1
1
1
1
1
1
1
1
1
1
1
1
1
1
1
1
1
1
1
1
1
1
1
1
1
1
1
1
1
1
1
1
1
1
1
1
1
1
1
1
1
1
1
1
1
1
1
1
1
1
1
1
1
1
1
1
1
1
1
1
1
1
1
1
1
1
1
1
1
1
1
1
1
1
1
1
1
1
1
1
1
1
1
1
1
1
1
1
1
1
1
1
1
1
1
1
1
1
1
1
1
1
1
1
1
1
1
1
1
1
1
1
1
1
1
1
1
1
1
1
1
1
1
1
1
1
1
1
1
1
1
1
1
1
1
1
1
1
1
1
1
1
1
1
1
1
1
1
1
1
1
1
1
1
1
1
1
1
1
1
1
1
1
1
1
1
1
1
1
1
1
1
1
1
1
1
1
1
1
1
1
1
1
1
1
1
1
1
1
1
1
1
1
1
1
1
1
1
1
1
1
1
1
1
1
1
1
1
1
1
1
1
1
1
1
1
1
1
1
1
1
1
1
1
1
1
1
1
1
1
1
1
1
1
1
1
1
1
1
1
1
1
1
1
1
1
1
1
1
1
1
1
1
1
1
1
1
1
1
1
1
1
1
1
1
1
1
1
1
1
1
1
1
1
1
1
1
1
1
1
1
1
1
1
1
1
1
1
1
1
1
1
1
1
1
1
1
1
1
1
1
1
1
1
1
1
1
1
1
1
1
1
1
1
1
1
1
1
1
1
1
1
1
1
1
1
1
1
1
1
1
1
1
1
1
1
1
1
1
1
1
1
1
1
1
1
1
1
1
1
1
1
1
1
1
1
1
1
1
1
1
1
1
1
1
1
1
1
1
1
1
1
1
1
1
1
1
1
1
1
1
1
1
1
1
1
1
1
1
1
1
1
1
1
1
1
1
1
1
1
1
1
1
1
1
1
1
1
1
1
1
1
1
1
1
1
1
1
1
1
1
1
1
1
1
1
1
1
1
1
1
1
1
1
1
1
1
1
1
1
1
1
1
1
1
1
1
1
1
1
1
1
1
1
1
1
1
1
1
1
1
1
1
1
1
1
1
1
1
1
1
1
1
1
1
1
1
1
1
1
1
1
1
1
1
1
1
1
1
1
1
1
1
1
1
1
1
1
1
1
1
1
1
1
1
1
1
1
1
1
1
1
1
1
1
1
1
1
1
1
1
1
1
1
1
1
1
1
1
1
1
1
1
1
1
1
1
1
1
1
1
1
1
1
1
1
1
1
1
1
1
1
1
1
1
1
1
1
1
1
1
1
1
1
1
1
1
1
1
1
1
1
1
1
1
1
1
1
1
1
1
1
1
1
1
1
1
1
1
1
1
1
1
1
1
1
1
1
1
1
1
1
1
1
1
1
1
1
1
1
1
1
1
1
1
1
1
1
1
1
1
1
1
1
1
1
1
1
1
1
1
1
1
1
1
1
1
1
1
1
1
1
1
1
1
1
1
1
1
1
1
1
1
1
1
1
1
1
1
1
1
1
1
1
1
1
1
1
1
1
1
1
1
1
1
1
1
1
1
1
1
1
1
1
1
1
1
1
1
1
1
1
1
1
1
1
1
1
1
1
1
1
1
1
1
1
1
1
1
1
1
1
1
1
1
1
1
1
1
1
1
1
1
1
1
1
1
1
1
1
1
1
1
1
1
1
1
1
1
1
1
1
1
1
1
1
1
1
1
1
1
1
1
1
1
1
1
1
1
1
1
1
1
1
1
1
1
1
1
1
1
1
1
1
1
1
1
1
1
1
1
1
1
1
1
1
1
1
1
1
1
1
1
1
1
1
1
1
1
1
1
1
1
1
1
1
1
1
1
1
1
1
1
1
1
1
1
1
1
1
1
1
1
1
1
1
1
1
1
1
1
1
1
1
1
1
1
1
1
1
1
1
1
1
1
1
1
1
1
1
1
1
1
1
1
1
1
1
1
1
1
1
1
1
1
1
1
1
1
1
1
1
1
1
1
1
1
1
1.59048
1.00531
0.82301
0.807241
0.819692
0.89683
1.01884
1.13753
1.24126
1.3894
1.54086
1.59819
1.59738
1.57452
1.53882
1.54163
1.59601
1.67844
1.69531
1.68835
1.66664
1.6516
1.65348
1.65892
1.67211
1.67395
1.66939
1.66756
1.67518
1.693
1.70193
1.70661
1.71672
1.72582
1.72558
1.72603
1.72627
1.72709
1.73215
1.73896
1.74039
1.73834
1.734
1.73354
1.73502
1.73843
1.7405
1.74077
1.73913
1.7324
1.72605
1.72262
1.72194
1.72273
1.72849
1.73454
1.73492
1.73102
1.72308
1.71414
1.70767
1.70343
1.69978
1.699
1.70021
1.70013
1.69749
1.69611
1.69626
1.69732
1.69995
1.70268
1.70245
1.70084
1.70051
1.70087
1.70254
1.70645
1.71149
1.71321
1.7128
1.71238
1.71313
1.7152
1.71765
1.71871
1.71877
1.7181
1.7153
1.7097
1.7026
1.69532
1.68863
1.68395
1.68061
1.67652
1.6715
1.67421
1.70497
1.8157
2.00203
2.21768
2.38997
2.50605
2.61022
2.65327
2.65849
2.6365
2.60905
2.57736
2.55629
2.54372
2.53696
2.53201
2.52678
2.52203
2.51722
2.51198
2.50479
2.49568
2.48455
2.4721
2.45835
2.44292
2.42703
2.41299
2.40142
2.39221
2.38558
2.38075
2.37628
2.37104
2.36446
2.35642
2.34811
2.34185
2.33739
2.33402
2.33109
2.3272
2.31941
2.30764
2.30062
2.29693
2.29273
2.28804
2.28356
2.27974
2.27667
2.27413
2.27031
2.26371
2.25506
2.24133
2.22011
2.20209
2.19274
2.18649
2.1817
2.18108
2.18311
2.1826
2.18307
2.1843
2.18366
2.17802
2.17467
2.17487
2.1756
2.17598
2.17526
2.17036
2.1568
2.14283
2.13765
2.13563
2.13374
2.13147
2.13045
2.13126
2.12763
2.11997
2.11116
2.09668
2.07741
2.06656
2.06287
2.06164
2.06161
2.06333
2.07164
2.08001
1.85663
1.51673
1.28174
1.23479
1.22411
1.13148
1.04623
1.04779
1.07603
1.11271
1.17187
1.21774
1.23772
1.26378
1.29675
1.33479
1.38954
1.45076
1.48839
1.50834
1.52012
1.53724
1.55348
1.57106
1.59379
1.60363
1.60892
1.6189
1.63295
1.64653
1.65326
1.65789
1.66545
1.67711
1.68676
1.69085
1.69134
1.69257
1.69653
1.7025
1.70612
1.70624
1.70587
1.70599
1.70582
1.70619
1.70691
1.70791
1.70859
1.70863
1.70784
1.70585
1.70319
1.70268
1.70369
1.70595
1.70745
1.70737
1.70404
1.69777
1.69092
1.68491
1.68081
1.67904
1.67998
1.68268
1.68347
1.68327
1.68335
1.684
1.68571
1.68633
1.68602
1.6853
1.68513
1.68561
1.68773
1.6925
1.69893
1.70336
1.70441
1.70392
1.70274
1.70277
1.70405
1.7061
1.70698
1.70691
1.70599
1.70285
1.69654
1.68817
1.6801
1.67236
1.66462
1.66325
1.6728
1.72427
1.85021
1.97786
2.03531
2.08059
2.1467
2.23921
2.32143
2.38547
2.44668
2.49
2.51353
2.5244
2.51573
2.50873
2.50439
2.50198
2.49762
2.49211
2.48609
2.47936
2.47163
2.46259
2.45132
2.43931
2.42767
2.41555
2.40294
2.39138
2.38144
2.37311
2.3667
2.36205
2.35781
2.3528
2.34635
2.33828
2.32937
2.32224
2.31804
2.31584
2.31446
2.31257
2.30822
2.2999
2.29143
2.28664
2.28223
2.27718
2.27175
2.26659
2.26187
2.25682
2.25083
2.24402
2.23656
2.22728
2.21555
2.20299
2.19025
2.18082
2.1753
2.17299
2.17136
2.16997
2.17063
2.17153
2.17137
2.16808
2.16358
2.16246
2.16231
2.16224
2.16162
2.15847
2.15112
2.14207
2.1341
2.12888
2.12602
2.12376
2.12154
2.11909
2.11492
2.10882
2.10124
2.09103
2.07795
2.06516
2.05747
2.05546
2.05543
2.05685
2.06347
2.06775
1.96932
1.72577
1.51188
1.45392
1.36961
1.25235
1.19669
1.17586
1.12199
1.09319
1.1002
1.10067
1.10526
1.13271
1.16452
1.19047
1.21392
1.23718
1.2673
1.30305
1.33545
1.37757
1.41618
1.44398
1.4719
1.50075
1.52143
1.54338
1.56193
1.57064
1.57979
1.58584
1.59025
1.6003
1.61248
1.61847
1.61993
1.62154
1.62367
1.62661
1.62929
1.63191
1.6372
1.64331
1.64586
1.64579
1.64424
1.64279
1.64272
1.64515
1.65125
1.6573
1.65932
1.65972
1.65887
1.65601
1.6538
1.65308
1.65249
1.65026
1.64635
1.64143
1.63713
1.63493
1.63463
1.63612
1.63812
1.63967
1.64123
1.64286
1.64421
1.6458
1.64774
1.64929
1.64973
1.64975
1.64999
1.65203
1.65775
1.66407
1.66778
1.6691
1.66892
1.66768
1.66746
1.66804
1.66916
1.67005
1.6701
1.66934
1.66627
1.66049
1.6534
1.64241
1.64463
1.66611
1.75141
1.88361
1.97635
2.01714
2.02419
2.01257
1.98658
1.98971
2.02495
2.10909
2.20338
2.29673
2.36395
2.40929
2.4209
2.43204
2.43651
2.4347
2.4285
2.41974
2.41028
2.40202
2.39525
2.38869
2.38033
2.3721
2.36403
2.35611
2.34842
2.33987
2.33118
2.32348
2.31721
2.3119
2.30724
2.30237
2.29643
2.28916
2.28094
2.27431
2.27057
2.26848
2.26723
2.26623
2.2648
2.26134
2.25532
2.24944
2.24467
2.24014
2.23538
2.23003
2.22353
2.21527
2.206
2.1973
2.18865
2.18175
2.17777
2.17272
2.16631
2.15786
2.15062
2.14535
2.14129
2.13935
2.13848
2.13783
2.13716
2.13582
2.13395
2.1321
2.12965
2.12643
2.12257
2.11852
2.11611
2.11363
2.11036
2.10589
2.10115
2.09725
2.09307
2.08808
2.08241
2.07539
2.06742
2.0612
2.05568
2.04996
2.04282
2.03582
2.03386
2.03443
2.0364
2.03721
2.03497
1.84082
1.68636
1.60435
1.51396
1.39895
1.35082
1.31736
1.25137
1.1985
1.18643
1.17673
1.16943
1.15896
1.14315
1.14594
1.14958
1.15083
1.15836
1.17506
1.19563
1.22709
1.28047
1.32481
1.35124
1.3819
1.40952
1.43614
1.46367
1.48088
1.49694
1.51369
1.52412
1.53339
1.54341
1.55047
1.55319
1.55295
1.55255
1.55224
1.5527
1.55543
1.56261
1.56985
1.57299
1.57402
1.57258
1.56951
1.56955
1.57045
1.57514
1.58496
1.59142
1.59274
1.59343
1.59331
1.59168
1.59097
1.59118
1.59051
1.58792
1.5841
1.5806
1.57919
1.57921
1.58031
1.581
1.582
1.58352
1.58479
1.58629
1.58874
1.59237
1.59643
1.59926
1.6006
1.60128
1.60227
1.60473
1.60848
1.61196
1.61369
1.61377
1.61328
1.61322
1.61362
1.61479
1.61636
1.61703
1.61643
1.61366
1.60752
1.6056
1.61422
1.66293
1.77216
1.89539
1.96072
1.99863
1.99258
1.97524
1.95024
1.93281
1.92454
1.91776
1.92782
1.9644
2.04417
2.1438
2.23859
2.28813
2.31748
2.33061
2.3486
2.35351
2.35294
2.34819
2.33866
2.32779
2.31831
2.30867
2.29866
2.28898
2.28098
2.27493
2.26931
2.26358
2.25843
2.2533
2.24802
2.24351
2.23921
2.23429
2.22853
2.222
2.21589
2.2117
2.20899
2.20735
2.20617
2.20473
2.2022
2.19781
2.19178
2.18494
2.17809
2.17167
2.1656
2.15935
2.1519
2.1432
2.13492
2.12911
2.12544
2.1233
2.1215
2.11891
2.11503
2.1081
2.09885
2.09307
2.09029
2.08812
2.08567
2.08329
2.0818
2.08073
2.07921
2.07629
2.07174
2.06751
2.06527
2.0642
2.06353
2.06272
2.0606
2.05548
2.04834
2.0422
2.03635
2.02938
2.02205
2.01727
2.01443
2.01301
2.0108
2.00789
2.00399
1.99754
1.99246
1.99139
1.99068
2.08871
1.9423
1.80604
1.70631
1.62448
1.53514
1.47105
1.42551
1.37873
1.31719
1.27008
1.24965
1.24128
1.22669
1.20349
1.19331
1.19066
1.17893
1.17225
1.17219
1.16537
1.16522
1.17529
1.19264
1.21739
1.25441
1.29853
1.33851
1.3811
1.41255
1.42938
1.44825
1.46479
1.47442
1.48603
1.49726
1.50315
1.50791
1.51457
1.5149
1.51523
1.51935
1.52751
1.53006
1.52946
1.52829
1.52447
1.51861
1.51717
1.51906
1.52457
1.53633
1.54702
1.54857
1.54902
1.54916
1.54696
1.54241
1.5395
1.53792
1.53609
1.53431
1.53321
1.53331
1.5344
1.53603
1.53763
1.53955
1.54097
1.54111
1.54063
1.54057
1.54185
1.54537
1.54927
1.55212
1.55406
1.55576
1.55766
1.55944
1.56038
1.5605
1.56064
1.56132
1.56216
1.56343
1.56612
1.56863
1.56852
1.56698
1.56261
1.56497
1.58531
1.66145
1.79569
1.89557
1.96334
1.96709
1.95641
1.93878
1.92789
1.92023
1.91853
1.91321
1.90418
1.8942
1.88913
1.89534
1.92664
1.99943
2.09198
2.1787
2.22661
2.2627
2.27815
2.2838
2.28687
2.282
2.27957
2.27502
2.26577
2.25214
2.23826
2.22639
2.21881
2.21319
2.20892
2.20556
2.20268
2.19929
2.19516
2.19125
2.18752
2.18297
2.17639
2.16842
2.16131
2.15599
2.15238
2.15019
2.14817
2.14589
2.14278
2.13786
2.13104
2.12275
2.11357
2.10392
2.09429
2.08555
2.07936
2.07619
2.07418
2.07303
2.07319
2.07325
2.07214
2.07007
2.06528
2.0548
2.04385
2.03825
2.03513
2.03268
2.03064
2.02835
2.02432
2.01801
2.01254
2.00955
2.00811
2.00784
2.00864
2.0094
2.00969
2.00906
2.00482
1.99352
1.98045
1.97243
1.96729
1.96442
1.96306
1.96285
1.9637
1.96293
1.96147
1.95968
1.95583
1.94744
1.93891
1.93346
2.12861
2.00909
1.90113
1.80358
1.71324
1.63603
1.56938
1.50696
1.46642
1.43414
1.38827
1.32557
1.30576
1.29153
1.27016
1.25816
1.2496
1.23332
1.21301
1.19887
1.18731
1.17598
1.17589
1.18053
1.18232
1.18723
1.19888
1.21867
1.25165
1.29788
1.33268
1.36684
1.4053
1.42698
1.44638
1.46331
1.47006
1.47853
1.48919
1.49011
1.49073
1.49508
1.50105
1.50279
1.50218
1.50118
1.4989
1.49609
1.49581
1.49664
1.5002
1.50927
1.52079
1.52295
1.52292
1.52221
1.51838
1.51345
1.5104
1.50917
1.50896
1.50972
1.51177
1.51296
1.51323
1.51308
1.51332
1.51371
1.51365
1.51273
1.51099
1.51051
1.51179
1.51504
1.51995
1.52462
1.52693
1.5277
1.52695
1.52543
1.52492
1.52507
1.52628
1.52796
1.52933
1.53069
1.53074
1.52945
1.5269
1.52885
1.5365
1.58148
1.69036
1.81952
1.91407
1.95411
1.9481
1.93625
1.92509
1.92121
1.92203
1.91786
1.90956
1.90126
1.89279
1.88523
1.87965
1.87945
1.87894
1.88245
1.9054
1.9627
2.05014
2.12821
2.18215
2.21051
2.23571
2.23518
2.2385
2.23848
2.23584
2.2303
2.21916
2.20713
2.19634
2.18747
2.18132
2.17808
2.1737
2.16897
2.16537
2.16296
2.16033
2.15625
2.15048
2.14337
2.13568
2.12817
2.12133
2.11531
2.1106
2.10648
2.10242
2.09723
2.09081
2.08354
2.07488
2.06471
2.05372
2.04444
2.03967
2.03785
2.03664
2.03622
2.03664
2.03761
2.03748
2.0362
2.03257
2.02328
2.0094
1.99966
1.99568
1.99341
1.99106
1.98774
1.98192
1.97268
1.96575
1.96295
1.96109
1.96026
1.96134
1.96228
1.9621
1.96144
1.95814
1.94686
1.92992
1.92092
1.91864
1.91753
1.91687
1.91698
1.91837
1.91873
1.91795
1.91647
1.91456
1.90935
1.89693
1.88093
2.15992
2.06049
1.96992
1.87911
1.78678
1.72159
1.65926
1.59696
1.53857
1.50551
1.46412
1.41688
1.38511
1.35881
1.32886
1.31556
1.30209
1.28601
1.26395
1.24809
1.23515
1.22074
1.21601
1.21248
1.20752
1.20229
1.19753
1.19128
1.19267
1.20151
1.21813
1.24587
1.29383
1.34577
1.38091
1.41401
1.43287
1.44715
1.4647
1.47395
1.47698
1.48197
1.48521
1.48575
1.48617
1.48643
1.48609
1.48455
1.48578
1.48891
1.49199
1.49697
1.50398
1.50636
1.50714
1.50696
1.50446
1.50158
1.50048
1.50015
1.50115
1.50325
1.50331
1.50159
1.49956
1.49875
1.49868
1.49871
1.49844
1.49764
1.4973
1.49814
1.50065
1.50494
1.50927
1.5108
1.51114
1.51017
1.50652
1.50401
1.50415
1.50529
1.50745
1.5093
1.50982
1.50979
1.50842
1.50645
1.5076
1.52873
1.60779
1.74239
1.86031
1.93486
1.93455
1.93433
1.93149
1.92904
1.92874
1.92295
1.91487
1.90669
1.89899
1.89319
1.8874
1.88369
1.88245
1.87996
1.87504
1.86977
1.86518
1.86351
1.8777
1.91735
1.98878
2.0586
2.12741
2.16421
2.19087
2.20146
2.21034
2.20907
2.20529
2.20029
2.19252
2.18295
2.17352
2.16659
2.16054
2.15594
2.15323
2.15084
2.14658
2.14005
2.13538
2.13133
2.12591
2.11881
2.11006
2.10085
2.09372
2.08758
2.08129
2.0753
2.06849
2.06109
2.05385
2.04695
2.03929
2.03061
2.02379
2.02092
2.01954
2.01911
2.01867
2.01835
2.01777
2.01619
2.01237
2.00445
1.99296
1.98107
1.97321
1.96879
1.96511
1.96074
1.95477
1.94708
1.94023
1.9358
1.93301
1.93178
1.9337
1.93422
1.93195
1.92928
1.92423
1.91468
1.90311
1.89348
1.88875
1.8874
1.88647
1.88578
1.88584
1.88676
1.88666
1.88551
1.88324
1.87762
1.86531
1.84527
2.18126
2.09868
2.0199
1.93448
1.85527
1.79158
1.73046
1.66705
1.62055
1.57661
1.52197
1.47597
1.44876
1.4243
1.39926
1.38234
1.36461
1.34203
1.31957
1.30095
1.28611
1.2704
1.26221
1.25235
1.2409
1.23341
1.22375
1.20652
1.19884
1.20053
1.20528
1.21018
1.21916
1.23762
1.26091
1.29469
1.34202
1.3764
1.40794
1.44268
1.47023
1.4762
1.47498
1.47182
1.4698
1.46971
1.47091
1.47329
1.47841
1.48633
1.49308
1.49574
1.49594
1.49526
1.49577
1.49557
1.49445
1.49376
1.49451
1.49775
1.50015
1.50026
1.49939
1.4968
1.49298
1.49104
1.49028
1.48987
1.48972
1.49014
1.49211
1.49508
1.49909
1.50165
1.50201
1.50223
1.50202
1.49931
1.49477
1.49386
1.49405
1.49544
1.49915
1.5007
1.50101
1.50137
1.5
1.50632
1.54619
1.66316
1.80726
1.90753
1.92661
1.93386
1.93846
1.93868
1.9354
1.92896
1.92129
1.9127
1.9048
1.89857
1.89341
1.89056
1.88887
1.88587
1.88025
1.87371
1.86802
1.86234
1.85752
1.85383
1.84897
1.84267
1.84577
1.86528
1.91467
1.98986
2.06202
2.11467
2.15255
2.17698
2.18757
2.19355
2.19107
2.18517
2.17662
2.16725
2.16042
2.15652
2.15309
2.14885
2.14244
2.13394
2.1282
2.12411
2.1198
2.11351
2.10504
2.09502
2.08445
2.07447
2.065
2.05742
2.05254
2.04872
2.04488
2.04096
2.03697
2.03209
2.02572
2.01835
2.0118
2.00621
2.00319
2.00146
1.99992
1.99838
1.99632
1.99307
1.98696
1.97827
1.96831
1.95931
1.95225
1.94621
1.94051
1.93532
1.93026
1.92482
1.92045
1.91751
1.91473
1.91093
1.90717
1.90326
1.89917
1.89495
1.89019
1.88423
1.87718
1.87283
1.87134
1.87038
1.87043
1.8697
1.86724
1.86385
1.85899
1.85215
1.84328
1.8295
2.19909
2.12872
2.05654
1.97826
1.91372
1.8511
1.79067
1.73038
1.68153
1.6349
1.58513
1.54254
1.51398
1.4816
1.45399
1.43613
1.41739
1.39706
1.37372
1.35032
1.32887
1.3126
1.30578
1.2981
1.28492
1.27215
1.26377
1.24904
1.23293
1.231
1.2297
1.22668
1.22707
1.22657
1.22396
1.22458
1.23657
1.26189
1.29951
1.35097
1.40206
1.44379
1.46131
1.46494
1.46103
1.45664
1.45677
1.45904
1.46691
1.48124
1.49038
1.49413
1.49595
1.49533
1.49113
1.49001
1.48864
1.48708
1.48949
1.49551
1.4973
1.49748
1.49723
1.4953
1.49115
1.48626
1.48377
1.4835
1.48394
1.48656
1.49157
1.49725
1.49989
1.49988
1.49896
1.49746
1.49473
1.49037
1.48909
1.48928
1.48974
1.49225
1.49658
1.4973
1.49831
1.5006
1.51683
1.59847
1.737
1.86775
1.9128
1.93978
1.94655
1.94413
1.93802
1.931
1.92423
1.91774
1.91159
1.90564
1.89977
1.89624
1.89394
1.891
1.88707
1.88215
1.87597
1.86912
1.86266
1.85763
1.85286
1.84727
1.84085
1.83362
1.82584
1.81819
1.81169
1.82277
1.85654
1.92276
1.99675
2.06926
2.1179
2.16072
2.17841
2.18202
2.17592
2.16645
2.16369
2.16048
2.15713
2.15151
2.14318
2.13382
2.12567
2.11965
2.11384
2.10776
2.09974
2.09017
2.07898
2.06761
2.05797
2.04961
2.04305
2.04014
2.03956
2.03914
2.03638
2.03409
2.03063
2.02399
2.01353
2.00398
1.99731
1.99344
1.99049
1.98772
1.98542
1.98354
1.98079
1.97593
1.96897
1.95952
1.94923
1.94062
1.93475
1.93026
1.92585
1.92126
1.91628
1.91043
1.90262
1.89594
1.89101
1.8869
1.88364
1.88217
1.88139
1.88036
1.87757
1.87115
1.86319
1.85879
1.8558
1.85248
1.84844
1.84351
1.83816
1.83306
1.82894
1.82325
2.21258
2.15088
2.08279
2.01739
1.95956
1.90023
1.83633
1.78645
1.73715
1.68892
1.64031
1.60248
1.57151
1.54241
1.51416
1.49062
1.46548
1.43921
1.41819
1.39784
1.37697
1.35934
1.34984
1.33907
1.32699
1.31484
1.30264
1.28891
1.27289
1.26592
1.26059
1.25289
1.24839
1.24469
1.23801
1.23023
1.2303
1.2316
1.23615
1.25092
1.28085
1.32363
1.36351
1.39507
1.42511
1.43799
1.44494
1.44819
1.45337
1.46875
1.48144
1.48613
1.48869
1.48994
1.48873
1.48406
1.48332
1.48347
1.48672
1.49181
1.49382
1.49382
1.4936
1.49145
1.4854
1.47974
1.47852
1.47858
1.48067
1.4863
1.49402
1.49774
1.49847
1.49838
1.49713
1.49362
1.489
1.48728
1.48738
1.48762
1.48861
1.49157
1.49439
1.49559
1.50122
1.53645
1.65056
1.81366
1.89669
1.94403
1.9467
1.9436
1.93863
1.93361
1.92785
1.92144
1.91512
1.90996
1.90539
1.90115
1.89763
1.89426
1.89046
1.88634
1.88252
1.87787
1.87218
1.86625
1.8602
1.85311
1.8447
1.83627
1.82928
1.82351
1.81876
1.81262
1.80563
1.79652
1.78744
1.79041
1.81175
1.86611
1.94007
2.02228
2.0862
2.13575
2.15918
2.15787
2.1592
2.1545
2.15025
2.1449
2.14089
2.13373
2.12611
2.11782
2.10913
2.101
2.0923
2.08356
2.07466
2.06531
2.05547
2.0459
2.03872
2.03501
2.03322
2.0327
2.03591
2.03503
2.03231
2.02785
2.01972
2.00681
1.99545
1.98929
1.98536
1.9819
1.97873
1.9762
1.97473
1.9717
1.96615
1.95886
1.95055
1.94164
1.93424
1.92858
1.92372
1.91895
1.9132
1.90428
1.89382
1.88665
1.88223
1.879
1.87683
1.8759
1.8761
1.87582
1.87445
1.87095
1.86212
1.85126
1.84432
1.83955
1.83455
1.82943
1.82476
1.82213
1.82123
1.81888
2.22479
2.16904
2.1059
2.05025
1.99549
1.93644
1.88022
1.8335
1.78539
1.73639
1.69429
1.66115
1.62602
1.5901
1.56559
1.54068
1.51513
1.48736
1.46176
1.4391
1.41502
1.40161
1.39115
1.37891
1.36373
1.35188
1.33825
1.32384
1.31261
1.30645
1.29991
1.28983
1.27845
1.27145
1.26302
1.25323
1.24902
1.24691
1.2445
1.2453
1.24695
1.252
1.26233
1.27945
1.31129
1.34944
1.38557
1.42244
1.43872
1.45052
1.45881
1.46406
1.47202
1.47747
1.47693
1.47539
1.47838
1.48344
1.48882
1.49039
1.48951
1.48737
1.48488
1.4819
1.47708
1.47471
1.47468
1.4757
1.47987
1.48792
1.49383
1.49493
1.49508
1.49479
1.49262
1.48812
1.48617
1.48654
1.48729
1.48818
1.48976
1.49107
1.49264
1.50745
1.57268
1.71345
1.84969