/*--------------------------------*- C++ -*----------------------------------*\
  =========                 |
  \\      /  F ield         | OpenFOAM: The Open Source CFD Toolbox
   \\    /   O peration     | Website:  https://openfoam.org
    \\  /    A nd           | Version:  7
     \\/     M anipulation  |
\*---------------------------------------------------------------------------*/
FoamFile
{
    version     2.0;
    format      ascii;
    class       volVectorField;
    location    "1.6";
    object      U;
}
// * * * * * * * * * * * * * * * * * * * * * * * * * * * * * * * * * * * * * //

dimensions      [0 1 -1 0 0 0 0];

internalField   nonuniform List<vector> 
16128
(
(3 -1.02611e-16 0)
(3 -2.98621e-16 0)
(3 -1.83779e-16 0)
(3 -5.95737e-17 0)
(3 -5.2331e-16 0)
(3 -3.82156e-16 0)
(3 -2.17052e-17 0)
(3 2.686e-16 0)
(3 5.6501e-16 0)
(3 5.57878e-16 0)
(3 5.09165e-16 0)
(3 2.62383e-16 0)
(3 3.34371e-16 0)
(3 4.62976e-17 0)
(3 2.70316e-17 0)
(3 -1.95497e-17 0)
(3 -2.49726e-16 0)
(3 -8.45698e-16 0)
(3 -9.24359e-16 0)
(3 -9.14393e-16 0)
(3 -8.83754e-16 0)
(3 -1.46066e-15 0)
(3 -1.45984e-15 0)
(3 -1.15182e-15 0)
(3 -1.13039e-15 0)
(1.56221 0.00742807 0)
(0.763973 0.00649003 0)
(0.714383 0.0118907 0)
(0.688208 0.0139012 0)
(0.65362 0.0151581 0)
(0.617483 0.016133 0)
(0.580569 0.016035 0)
(0.546586 0.0147202 0)
(0.516233 0.0136136 0)
(0.486915 0.0139709 0)
(0.455761 0.0152182 0)
(0.422579 0.0161024 0)
(0.388794 0.0165087 0)
(0.355206 0.0164532 0)
(0.322284 0.015896 0)
(0.28991 0.0155804 0)
(0.257201 0.0159634 0)
(0.223182 0.0166783 0)
(0.186939 0.018107 0)
(0.148204 0.0192484 0)
(0.108092 0.0205635 0)
(0.0656983 0.0213935 0)
(0.0230469 0.0224151 0)
(3 -1.99495e-16 0)
(3 -1.92565e-16 0)
(3 -3.23538e-16 0)
(3 -5.46176e-16 0)
(3 -7.51718e-16 0)
(3 -9.92022e-16 0)
(3 -5.7838e-16 0)
(3 3.19658e-16 0)
(3 6.41452e-16 0)
(3 1.09767e-15 0)
(3 1.20218e-15 0)
(3 4.72756e-16 0)
(3 1.10872e-17 0)
(3 -6.18748e-16 0)
(3 -1.23515e-15 0)
(3 -1.02737e-15 0)
(3 -8.01614e-16 0)
(3 -1.27978e-15 0)
(3 -1.00645e-15 0)
(3 -6.25977e-16 0)
(3 -8.77794e-16 0)
(3 -1.64844e-15 0)
(3 -1.57408e-15 0)
(3 -1.75112e-15 0)
(3 -7.7932e-16 0)
(1.58045 0.0366844 0)
(0.759441 0.0298813 0)
(0.705071 0.0346918 0)
(0.677884 0.0394902 0)
(0.642885 0.0428362 0)
(0.606964 0.0453595 0)
(0.571025 0.0450716 0)
(0.538263 0.0419221 0)
(0.508345 0.0395212 0)
(0.478755 0.0408614 0)
(0.447272 0.0445234 0)
(0.413909 0.0469327 0)
(0.380398 0.048073 0)
(0.347382 0.0481807 0)
(0.315016 0.0469498 0)
(0.283009 0.0463426 0)
(0.2507 0.0476082 0)
(0.21731 0.0497967 0)
(0.182235 0.0539721 0)
(0.145022 0.0576819 0)
(0.106356 0.0619767 0)
(0.0650522 0.065018 0)
(0.0229664 0.0686915 0)
(3 2.73771e-16 0)
(3 4.45326e-16 0)
(3 2.10262e-16 0)
(3 4.66051e-17 0)
(3 1.77809e-16 0)
(3 -7.32628e-16 0)
(3 -9.09183e-16 0)
(3 -7.24682e-16 0)
(3 -3.64519e-16 0)
(3 4.88824e-16 0)
(3 5.28024e-16 0)
(3 2.45343e-17 0)
(3 -3.6349e-16 0)
(3 -1.02171e-15 0)
(3 -1.74406e-15 0)
(3 -1.70022e-15 0)
(3 -1.66945e-15 0)
(3 -1.13677e-15 0)
(3 -1.04555e-15 0)
(3 -1.08719e-15 0)
(3 -1.38335e-15 0)
(3 -1.22093e-15 0)
(3 -1.165e-15 0)
(3 -3.44099e-16 0)
(3 6.62661e-16 0)
(1.63536 0.0652275 0)
(0.765167 0.0544921 0)
(0.704551 0.0602361 0)
(0.675868 0.0680973 0)
(0.639748 0.0731118 0)
(0.603585 0.0762825 0)
(0.568246 0.0749069 0)
(0.536382 0.0699484 0)
(0.506473 0.0669765 0)
(0.476271 0.0699256 0)
(0.443967 0.0760445 0)
(0.409535 0.0794083 0)
(0.375215 0.0803019 0)
(0.34172 0.0798716 0)
(0.309053 0.0777932 0)
(0.276728 0.0769411 0)
(0.244214 0.0790403 0)
(0.21078 0.0823994 0)
(0.176216 0.0887086 0)
(0.140158 0.0945791 0)
(0.102954 0.101597 0)
(0.0631028 0.106779 0)
(0.0223834 0.1132 0)
(3 1.033e-16 0)
(3 4.13429e-17 0)
(3 -1.106e-16 0)
(3 -8.62886e-17 0)
(3 2.26934e-16 0)
(3 3.82836e-16 0)
(3 -8.2166e-17 0)
(3 -1.42084e-16 0)
(3 -1.9367e-16 0)
(3 -2.57494e-16 0)
(3 -1.34337e-16 0)
(3 -5.98575e-16 0)
(3 -1.11785e-15 0)
(3 -1.22059e-15 0)
(3 -1.34227e-15 0)
(3 -1.73237e-15 0)
(3 -1.80615e-15 0)
(3 -1.50545e-15 0)
(3 -1.67557e-15 0)
(3 -2.03577e-15 0)
(3 -2.19162e-15 0)
(3 -4.33772e-17 0)
(3 7.69504e-16 0)
(3 1.0038e-15 0)
(3 4.53905e-17 0)
(1.71847 0.091707 0)
(0.773604 0.0808957 0)
(0.706247 0.0860429 0)
(0.678608 0.0965191 0)
(0.643544 0.102855 0)
(0.608706 0.106031 0)
(0.574739 0.10322 0)
(0.543563 0.0970079 0)
(0.513032 0.0945539 0)
(0.481909 0.0999893 0)
(0.448653 0.108983 0)
(0.413009 0.113255 0)
(0.377631 0.113499 0)
(0.343162 0.112325 0)
(0.309535 0.109536 0)
(0.276218 0.108679 0)
(0.242876 0.111755 0)
(0.208642 0.116221 0)
(0.173494 0.12399 0)
(0.137457 0.13133 0)
(0.100667 0.140386 0)
(0.0614925 0.14729 0)
(0.0218141 0.156161 0)
(3 -4.27251e-16 0)
(3 -3.31948e-16 0)
(3 -2.41387e-16 0)
(3 -2.61787e-16 0)
(3 -1.89719e-16 0)
(3 2.6056e-16 0)
(3 5.07212e-16 0)
(3 -9.56828e-17 0)
(3 1.23396e-16 0)
(3 -2.42857e-16 0)
(3 -5.23813e-16 0)
(3 -1.12095e-15 0)
(3 -1.53176e-15 0)
(3 -2.01051e-15 0)
(3 -2.09395e-15 0)
(3 -2.13686e-15 0)
(3 -1.62276e-15 0)
(3 -1.61619e-15 0)
(3 -1.1086e-15 0)
(3 -6.42617e-16 0)
(3 2.48745e-16 0)
(3 4.77686e-16 0)
(3 6.26594e-16 0)
(3 1.45366e-16 0)
(3 2.42206e-17 0)
(1.83337 0.117006 0)
(0.786963 0.108815 0)
(0.709574 0.111282 0)
(0.68348 0.123618 0)
(0.649952 0.130795 0)
(0.616962 0.133592 0)
(0.584399 0.129809 0)
(0.553145 0.123734 0)
(0.521198 0.123202 0)
(0.488419 0.131865 0)
(0.453598 0.143718 0)
(0.416851 0.148298 0)
(0.381458 0.147128 0)
(0.347538 0.144879 0)
(0.314378 0.141525 0)
(0.281002 0.141033 0)
(0.247239 0.145523 0)
(0.212109 0.151534 0)
(0.175711 0.160606 0)
(0.138641 0.168951 0)
(0.101029 0.179323 0)
(0.0613345 0.187291 0)
(0.0216872 0.197984 0)
(3 -3.36241e-17 0)
(3 -2.24538e-17 0)
(3 6.54419e-17 0)
(3 1.13405e-16 0)
(3 -2.09377e-16 0)
(3 -3.14447e-16 0)
(3 -3.08681e-18 0)
(3 1.54586e-16 0)
(3 3.25244e-16 0)
(3 7.15985e-18 0)
(3 -1.24078e-15 0)
(3 -1.52652e-15 0)
(3 -1.87728e-15 0)
(3 -2.15604e-15 0)
(3 -2.27125e-15 0)
(3 -2.23613e-15 0)
(3 -1.55863e-15 0)
(3 -1.61202e-15 0)
(3 -1.38676e-15 0)
(3 -3.48983e-16 0)
(3 6.97394e-16 0)
(3 5.63941e-16 0)
(3 -4.79879e-16 0)
(3 -1.05064e-16 0)
(3 -2.62551e-16 0)
(1.98316 0.137102 0)
(0.806119 0.137704 0)
(0.713618 0.136478 0)
(0.687623 0.150432 0)
(0.653643 0.158372 0)
(0.620334 0.161122 0)
(0.587076 0.15737 0)
(0.554437 0.152175 0)
(0.521099 0.15375 0)
(0.488137 0.16544 0)
(0.454447 0.179295 0)
(0.420211 0.183025 0)
(0.388429 0.179613 0)
(0.357282 0.176164 0)
(0.325209 0.172895 0)
(0.29135 0.173775 0)
(0.256298 0.180618 0)
(0.219414 0.188983 0)
(0.180942 0.199422 0)
(0.142185 0.208411 0)
(0.103064 0.219452 0)
(0.0621892 0.227823 0)
(0.0218582 0.239658 0)
(3 1.06391e-16 0)
(3 -4.81216e-16 0)
(3 -4.72649e-16 0)
(3 -2.72898e-16 0)
(3 -2.09367e-16 0)
(3 -2.61608e-16 0)
(3 -2.00524e-17 0)
(3 4.37307e-16 0)
(3 1.31313e-16 0)
(3 -9.7505e-17 0)
(3 -2.00027e-16 0)
(3 -6.66604e-16 0)
(3 -1.33803e-15 0)
(3 -1.04862e-15 0)
(3 -9.97941e-16 0)
(3 -1.65446e-15 0)
(3 -1.75682e-15 0)
(3 -1.13117e-15 0)
(3 -8.70404e-16 0)
(3 2.70011e-17 0)
(3 5.14528e-16 0)
(3 1.11558e-15 0)
(3 7.47859e-16 0)
(3 9.26567e-16 0)
(3 -1.47172e-15 0)
(2.16172 0.153879 0)
(0.828507 0.171598 0)
(0.711762 0.162889 0)
(0.685846 0.178018 0)
(0.65282 0.185972 0)
(0.621642 0.188523 0)
(0.590212 0.184944 0)
(0.558344 0.180691 0)
(0.525292 0.184116 0)
(0.493361 0.198057 0)
(0.461525 0.212552 0)
(0.430485 0.214489 0)
(0.402255 0.209107 0)
(0.372854 0.206036 0)
(0.340791 0.204635 0)
(0.305598 0.208165 0)
(0.268568 0.217991 0)
(0.229539 0.229076 0)
(0.188862 0.240769 0)
(0.14823 0.250095 0)
(0.107247 0.261408 0)
(0.0645532 0.269755 0)
(0.0226015 0.282248 0)
(3 -6.29833e-17 0)
(3 -8.72585e-17 0)
(3 -2.84622e-16 0)
(3 -2.82308e-16 0)
(3 -2.48732e-16 0)
(3 -3.00796e-16 0)
(3 -7.09597e-17 0)
(3 3.02232e-16 0)
(3 2.00632e-16 0)
(3 6.29009e-16 0)
(3 1.02816e-15 0)
(3 1.01329e-15 0)
(3 8.65521e-16 0)
(3 2.13332e-16 0)
(3 3.15474e-16 0)
(3 2.14484e-16 0)
(3 -2.28545e-16 0)
(3 1.05933e-16 0)
(3 1.07645e-15 0)
(3 1.32283e-15 0)
(3 1.4898e-15 0)
(3 1.88739e-15 0)
(3 2.12193e-15 0)
(3 1.17471e-15 0)
(3 -6.06004e-17 0)
(2.37257 0.168479 0)
(0.863238 0.211835 0)
(0.718047 0.190764 0)
(0.694828 0.206252 0)
(0.663321 0.212974 0)
(0.634078 0.214584 0)
(0.603455 0.211683 0)
(0.571455 0.20899 0)
(0.53834 0.214162 0)
(0.507488 0.229357 0)
(0.477429 0.2428 0)
(0.449159 0.242169 0)
(0.422536 0.236124 0)
(0.393229 0.235253 0)
(0.360159 0.237201 0)
(0.323045 0.244375 0)
(0.283387 0.257765 0)
(0.241286 0.272035 0)
(0.197445 0.285128 0)
(0.154188 0.294634 0)
(0.111143 0.305896 0)
(0.0667688 0.313838 0)
(0.023238 0.32655 0)
(3 -8.93037e-17 0)
(3 5.77496e-16 0)
(3 7.46935e-16 0)
(3 4.86541e-16 0)
(3 -4.16331e-16 0)
(3 -5.11517e-16 0)
(3 -7.9228e-16 0)
(3 -6.92867e-16 0)
(3 -2.7889e-16 0)
(3 -1.53644e-16 0)
(3 3.16315e-16 0)
(3 4.19808e-16 0)
(3 8.41823e-16 0)
(3 6.21522e-16 0)
(3 3.54114e-16 0)
(3 4.63693e-16 0)
(3 -4.93022e-17 0)
(3 9.69433e-18 0)
(3 7.59931e-16 0)
(3 6.41622e-16 0)
(3 6.08032e-16 0)
(3 4.91871e-16 0)
(3 1.70455e-16 0)
(3 6.8071e-17 0)
(3 -5.27627e-16 0)
(2.61492 0.168833 0)
(0.922936 0.248432 0)
(0.739194 0.214358 0)
(0.71877 0.230867 0)
(0.687903 0.236457 0)
(0.658997 0.238274 0)
(0.627787 0.237343 0)
(0.595135 0.23664 0)
(0.561929 0.242939 0)
(0.531668 0.257949 0)
(0.502054 0.269301 0)
(0.473555 0.267679 0)
(0.444504 0.263792 0)
(0.412202 0.26725 0)
(0.375598 0.274075 0)
(0.334998 0.285302 0)
(0.292586 0.301659 0)
(0.249088 0.318312 0)
(0.205101 0.33227 0)
(0.161408 0.341576 0)
(0.117427 0.352784 0)
(0.0711315 0.360429 0)
(0.0250325 0.373516 0)
(3 5.79877e-17 0)
(3 2.95355e-17 0)
(3 1.44747e-16 0)
(3 -8.56326e-17 0)
(3 -1.4459e-16 0)
(3 -7.17639e-16 0)
(3 -8.90936e-16 0)
(3 -1.30362e-15 0)
(3 -1.50131e-15 0)
(3 -2.44935e-15 0)
(3 -2.21787e-15 0)
(3 -1.66986e-15 0)
(3 -1.08708e-15 0)
(3 -3.31041e-16 0)
(3 -5.64376e-16 0)
(3 -9.04042e-16 0)
(3 -4.96102e-16 0)
(3 -9.65939e-16 0)
(3 -1.0937e-15 0)
(3 -1.10059e-15 0)
(3 -1.22641e-15 0)
(3 -1.20582e-15 0)
(3 -1.58053e-15 0)
(3 -1.44357e-15 0)
(3 -1.91543e-15 0)
(2.85538 0.126438 0)
(1.0022 0.272731 0)
(0.76633 0.230139 0)
(0.748967 0.248197 0)
(0.717697 0.256416 0)
(0.688049 0.261007 0)
(0.656157 0.262551 0)
(0.623355 0.263384 0)
(0.590257 0.270464 0)
(0.559607 0.285349 0)
(0.528607 0.296721 0)
(0.496854 0.296871 0)
(0.463214 0.296191 0)
(0.427254 0.303719 0)
(0.38852 0.314672 0)
(0.347645 0.328598 0)
(0.306015 0.346308 0)
(0.263972 0.364369 0)
(0.220473 0.379641 0)
(0.175293 0.390071 0)
(0.128469 0.402851 0)
(0.0781418 0.411483 0)
(0.0273816 0.425464 0)
(3 8.26537e-17 0)
(3 5.34183e-17 0)
(3 -1.74579e-17 0)
(3 -1.41492e-16 0)
(3 2.36689e-16 0)
(3 -4.8109e-18 0)
(3 7.57886e-17 0)
(3 -2.96284e-16 0)
(3 -9.32142e-16 0)
(3 -1.38995e-15 0)
(3 -1.95647e-15 0)
(3 -1.60713e-15 0)
(3 -1.09188e-15 0)
(3 -7.4805e-16 0)
(3 -6.99191e-16 0)
(3 -6.20136e-16 0)
(3 7.03525e-17 0)
(3 3.90582e-17 0)
(3 -6.36979e-16 0)
(3 -9.02569e-16 0)
(3 -9.58597e-16 0)
(3 -1.32895e-15 0)
(3 -9.38869e-16 0)
(3 -8.56345e-16 0)
(3 -7.9363e-16 0)
(2.99401 0.0297883 0)
(1.08774 0.288594 0)
(0.776339 0.247212 0)
(0.762477 0.272507 0)
(0.731987 0.285205 0)
(0.70167 0.291376 0)
(0.670116 0.293525 0)
(0.6387 0.294645 0)
(0.607487 0.301858 0)
(0.578418 0.31624 0)
(0.548437 0.327724 0)
(0.516538 0.329169 0)
(0.482104 0.330519 0)
(0.446015 0.340553 0)
(0.408123 0.354248 0)
(0.368636 0.369763 0)
(0.328681 0.388633 0)
(0.28768 0.408919 0)
(0.243747 0.427544 0)
(0.195553 0.441568 0)
(0.144112 0.458086 0)
(0.0876393 0.469282 0)
(0.0306174 0.484447 0)
(3 1.31016e-16 0)
(3 4.07315e-16 0)
(3 4.55183e-16 0)
(3 4.23792e-16 0)
(3 4.4126e-16 0)
(3 6.195e-16 0)
(3 5.07505e-16 0)
(3 1.84827e-17 0)
(3 4.76434e-17 0)
(3 1.90155e-16 0)
(3 -6.27486e-16 0)
(3 -6.63252e-16 0)
(3 -6.31711e-16 0)
(3 -8.54548e-16 0)
(3 -3.93867e-16 0)
(3 1.2093e-16 0)
(3 -4.94557e-16 0)
(3 -1.23998e-16 0)
(3 1.14889e-16 0)
(3 3.35941e-16 0)
(3 3.63169e-17 0)
(3 -2.42739e-16 0)
(3 2.18452e-16 0)
(3 8.56965e-16 0)
(3 7.38464e-16 0)
(3.00387 0.00186487 0)
(1.20102 0.299289 0)
(0.771076 0.262383 0)
(0.750841 0.294632 0)
(0.722417 0.313339 0)
(0.693035 0.321436 0)
(0.663369 0.323667 0)
(0.634012 0.324605 0)
(0.605109 0.331956 0)
(0.578592 0.346401 0)
(0.551461 0.358936 0)
(0.522277 0.362361 0)
(0.49093 0.365408 0)
(0.458661 0.37702 0)
(0.424794 0.392823 0)
(0.38813 0.410285 0)
(0.350145 0.431731 0)
(0.309162 0.456091 0)
(0.26323 0.48057 0)
(0.210648 0.500463 0)
(0.154508 0.521682 0)
(0.0936111 0.536051 0)
(0.0313992 0.551104 0)
(3 -6.15766e-17 0)
(3 5.23669e-16 0)
(3 7.9014e-16 0)
(3 6.25703e-16 0)
(3 4.1522e-16 0)
(3 5.4184e-16 0)
(3 4.57689e-16 0)
(3 -2.15699e-16 0)
(3 -9.21447e-16 0)
(3 -7.73533e-16 0)
(3 -4.54205e-16 0)
(3 -7.04471e-16 0)
(3 -1.65565e-15 0)
(3 -1.75974e-15 0)
(3 -1.28051e-15 0)
(3 -1.21943e-15 0)
(3 -1.8387e-15 0)
(3 -1.47977e-15 0)
(3 -1.24597e-15 0)
(3 -4.45835e-16 0)
(3 -3.15207e-18 0)
(3 4.81913e-17 0)
(3 -8.50012e-17 0)
(3 4.32798e-16 0)
(3 -4.94273e-17 0)
(3.00005 4.07677e-06 0)
(1.39881 0.332806 0)
(0.775846 0.290607 0)
(0.729981 0.315532 0)
(0.703168 0.336435 0)
(0.674917 0.345875 0)
(0.64752 0.348203 0)
(0.620514 0.348967 0)
(0.59425 0.356278 0)
(0.570932 0.37102 0)
(0.547738 0.385213 0)
(0.522523 0.391333 0)
(0.495314 0.396339 0)
(0.46753 0.409763 0)
(0.438208 0.4283 0)
(0.40495 0.449249 0)
(0.369756 0.474783 0)
(0.330675 0.504468 0)
(0.286715 0.535714 0)
(0.235084 0.561915 0)
(0.177931 0.588757 0)
(0.110713 0.609937 0)
(0.0390737 0.62816 0)
(3 7.9106e-17 0)
(3 -1.61663e-16 0)
(3 2.68891e-17 0)
(3 5.09151e-16 0)
(3 5.81014e-16 0)
(3 7.77444e-16 0)
(3 4.35423e-16 0)
(3 2.25691e-16 0)
(3 -1.78961e-16 0)
(3 -5.48102e-16 0)
(3 -2.39882e-16 0)
(3 -5.59934e-16 0)
(3 -1.03587e-15 0)
(3 -1.19847e-15 0)
(3 -1.25316e-15 0)
(3 -1.74533e-15 0)
(3 -1.75075e-15 0)
(3 -1.65179e-15 0)
(3 -1.02388e-15 0)
(3 -8.00243e-16 0)
(3 2.45374e-16 0)
(3 2.23646e-16 0)
(3 -7.36737e-16 0)
(3 -8.80314e-16 0)
(3 -9.16568e-16 0)
(3 -1.09164e-09 0)
(1.70986 0.370199 0)
(0.80399 0.342456 0)
(0.722821 0.348309 0)
(0.698575 0.367162 0)
(0.672896 0.375991 0)
(0.647262 0.377454 0)
(0.621401 0.377152 0)
(0.596398 0.383073 0)
(0.574489 0.396698 0)
(0.553194 0.411123 0)
(0.529919 0.419024 0)
(0.504514 0.425279 0)
(0.479063 0.440246 0)
(0.451889 0.461621 0)
(0.422323 0.48669 0)
(0.390368 0.516845 0)
(0.354812 0.551986 0)
(0.313971 0.591016 0)
(0.26127 0.628318 0)
(0.197938 0.667358 0)
(0.124739 0.703828 0)
(0.0388429 0.726378 0)
(3 1.65664e-16 0)
(3 -6.97887e-16 0)
(3 -8.4878e-16 0)
(3 -2.03318e-16 0)
(3 8.74138e-16 0)
(3 2.6911e-16 0)
(3 3.22e-16 0)
(3 6.8422e-16 0)
(3 1.12707e-15 0)
(3 9.60081e-16 0)
(3 2.31914e-16 0)
(3 -2.82149e-16 0)
(3 -7.19026e-16 0)
(3 -8.74057e-16 0)
(3 -1.19651e-15 0)
(3 -6.84031e-16 0)
(3 -2.78946e-16 0)
(3 -4.36742e-17 0)
(3 -1.04172e-16 0)
(3 -1.24694e-16 0)
(3 2.58194e-16 0)
(3 3.4979e-16 0)
(3 6.18903e-16 0)
(3 1.2733e-16 0)
(3 3.82634e-16 0)
(3 -2.23794e-10 0)
(2.17429 0.377226 0)
(0.877227 0.410021 0)
(0.755003 0.383865 0)
(0.728448 0.397083 0)
(0.701356 0.403677 0)
(0.674402 0.404237 0)
(0.647155 0.402405 0)
(0.620421 0.406672 0)
(0.596615 0.419541 0)
(0.573965 0.434981 0)
(0.549596 0.446146 0)
(0.523252 0.45423 0)
(0.497499 0.470752 0)
(0.471717 0.494712 0)
(0.444392 0.523105 0)
(0.416054 0.557516 0)
(0.384266 0.598734 0)
(0.348156 0.647991 0)
(0.303203 0.700407 0)
(0.24694 0.751476 0)
(0.177801 0.802959 0)
(0.06861 0.847429 0)
(3 -5.43085e-17 0)
(3 2.03313e-16 0)
(3 -1.42266e-16 0)
(3 -2.95425e-16 0)
(3 -2.35408e-16 0)
(3 -3.78015e-16 0)
(3 -8.30027e-16 0)
(3 -8.03935e-16 0)
(3 -2.31577e-16 0)
(3 -1.01762e-17 0)
(3 -4.81334e-16 0)
(3 -1.49771e-15 0)
(3 -2.0864e-15 0)
(3 -1.79765e-15 0)
(3 -1.67659e-15 0)
(3 -4.94702e-16 0)
(3 -1.56536e-16 0)
(3 1.21097e-16 0)
(3 2.08938e-17 0)
(3 9.38751e-17 0)
(3 5.06262e-16 0)
(3 1.05079e-15 0)
(3 6.2034e-16 0)
(3 -2.46864e-17 0)
(3 6.55527e-16 0)
(3 -2.06233e-10 0)
(2.76189 0.244012 0)
(1.02008 0.450853 0)
(0.828188 0.403363 0)
(0.795613 0.411104 0)
(0.760949 0.420755 0)
(0.72817 0.424279 0)
(0.696372 0.42606 0)
(0.665183 0.431239 0)
(0.636779 0.444156 0)
(0.609882 0.460345 0)
(0.583403 0.473779 0)
(0.555142 0.48298 0)
(0.527907 0.500292 0)
(0.502231 0.526197 0)
(0.475773 0.557492 0)
(0.450402 0.596238 0)
(0.424003 0.643241 0)
(0.397463 0.699641 0)
(0.364146 0.762338 0)
(0.312386 0.839803 0)
(0.219576 0.949788 0)
(0.118941 1.07433 0)
(3 -1.13796e-16 0)
(3 -1.30924e-16 0)
(3 -1.7772e-16 0)
(3 -4.19201e-16 0)
(3 -8.3335e-16 0)
(3 -6.17698e-16 0)
(3 -5.94031e-16 0)
(3 -8.42511e-16 0)
(3 -1.4226e-15 0)
(3 -1.34689e-15 0)
(3 -1.49067e-15 0)
(3 -1.73391e-15 0)
(3 -1.77808e-15 0)
(3 -8.11616e-16 0)
(3 -1.13674e-16 0)
(3 -4.57613e-16 0)
(3 -1.51255e-16 0)
(3 3.48719e-17 0)
(3 8.39954e-16 0)
(3 8.60274e-16 0)
(3 6.07988e-16 0)
(3 -9.39909e-17 0)
(3 -7.99533e-16 0)
(3 -9.18037e-16 0)
(3 8.29365e-16 0)
(3 -7.45102e-11 0)
(3.05562 0.0270297 0)
(1.19437 0.422562 0)
(0.864664 0.430268 0)
(0.831779 0.456116 0)
(0.80221 0.45777 0)
(0.774525 0.45412 0)
(0.746094 0.454063 0)
(0.71565 0.458976 0)
(0.685488 0.471442 0)
(0.655331 0.488318 0)
(0.626282 0.504672 0)
(0.595354 0.516039 0)
(0.56606 0.533616 0)
(0.539891 0.560395 0)
(0.515096 0.59328 0)
(0.493599 0.634151 0)
(0.473739 0.683669 0)
(0.456697 0.745669 0)
(0.434004 0.827846 0)
(0.408818 0.95225 0)
(0.397856 1.10931 0)
(0.512746 1.3718 0)
(3 -1.07745e-16 0)
(3 -1.74199e-16 0)
(3 -1.60863e-16 0)
(3 1.35063e-16 0)
(3 -2.75433e-16 0)
(3 -7.01575e-16 0)
(3 -2.90167e-16 0)
(3 -6.69901e-17 0)
(3 -1.71954e-15 0)
(3 -2.05582e-15 0)
(3 -1.62122e-15 0)
(3 -4.29877e-16 0)
(3 3.71655e-18 0)
(3 2.36508e-16 0)
(3 5.67536e-16 0)
(3 1.08906e-15 0)
(3 1.24032e-15 0)
(3 1.21189e-15 0)
(3 6.47534e-16 0)
(3 -1.00151e-17 0)
(3 -8.15937e-16 0)
(3 -3.41133e-16 0)
(3 5.23097e-16 0)
(3 1.22086e-15 0)
(3 1.88068e-15 0)
(3 -8.58949e-12 0)
(3.00376 0.000118907 0)
(1.37752 0.414288 0)
(0.842341 0.465499 0)
(0.818574 0.486115 0)
(0.796956 0.485497 0)
(0.778179 0.480795 0)
(0.7603 0.482523 0)
(0.739787 0.490023 0)
(0.716682 0.504003 0)
(0.691211 0.521807 0)
(0.666275 0.5394 0)
(0.638945 0.550853 0)
(0.612121 0.566101 0)
(0.587751 0.591535 0)
(0.565635 0.624958 0)
(0.547534 0.667156 0)
(0.533816 0.719339 0)
(0.52577 0.787504 0)
(0.526569 0.883149 0)
(0.537281 1.01572 0)
(0.618953 1.16742 0)
(0.925263 1.36668 0)
(3 2.19857e-16 0)
(3 1.11593e-16 0)
(3 6.58423e-16 0)
(3 6.74897e-16 0)
(3 1.43223e-16 0)
(3 1.14489e-16 0)
(3 -5.36845e-17 0)
(3 -6.91655e-16 0)
(3 -1.28965e-15 0)
(3 -1.27218e-15 0)
(3 -1.0866e-15 0)
(3 -4.33545e-16 0)
(3 -1.20464e-16 0)
(3 5.90251e-17 0)
(3 2.19839e-16 0)
(3 7.20732e-16 0)
(3 1.21708e-15 0)
(3 1.2274e-15 0)
(3 4.35091e-16 0)
(3 -7.66601e-16 0)
(3 -5.79902e-16 0)
(3 2.37598e-16 0)
(3 1.66264e-15 0)
(3 1.88577e-15 0)
(3 1.45518e-15 0)
(3 -1.70672e-13 0)
(3.00001 -7.90879e-07 0)
(1.74041 0.446273 0)
(0.852748 0.490032 0)
(0.805509 0.49726 0)
(0.79692 0.501421 0)
(0.783888 0.49904 0)
(0.769778 0.500433 0)
(0.754753 0.50982 0)
(0.73794 0.526454 0)
(0.71904 0.547142 0)
(0.701103 0.568031 0)
(0.680051 0.583279 0)
(0.658262 0.599761 0)
(0.637736 0.625344 0)
(0.620431 0.659285 0)
(0.607169 0.70134 0)
(0.600775 0.753424 0)
(0.603194 0.821054 0)
(0.624688 0.914652 0)
(0.672004 1.0353 0)
(0.818633 1.17425 0)
(1.14337 1.30039 0)
(3 -1.45717e-17 0)
(3 -3.546e-17 0)
(3 2.33821e-16 0)
(3 -3.49541e-16 0)
(3 6.72089e-17 0)
(3 9.70287e-17 0)
(3 -1.30215e-16 0)
(3 -7.74019e-16 0)
(3 -2.09391e-17 0)
(3 2.13025e-16 0)
(3 3.01025e-16 0)
(3 2.92662e-16 0)
(3 -1.861e-16 0)
(3 2.03235e-16 0)
(3 5.03597e-16 0)
(3 5.03739e-16 0)
(3 5.95324e-16 0)
(3 1.26226e-16 0)
(3 2.07706e-16 0)
(3 5.1009e-17 0)
(3 -3.11569e-16 0)
(3 -9.16779e-16 0)
(3 -1.14981e-15 0)
(3 -7.56058e-16 0)
(3 7.96138e-17 0)
(3 1.05673e-15 0)
(3 -5.20943e-07 0)
(2.36514 0.424111 0)
(0.951485 0.558781 0)
(0.836346 0.50891 0)
(0.822204 0.508738 0)
(0.805572 0.514342 0)
(0.787611 0.518478 0)
(0.77066 0.52918 0)
(0.755341 0.5472 0)
(0.741652 0.569214 0)
(0.730853 0.591732 0)
(0.7178 0.609937 0)
(0.702988 0.627715 0)
(0.688919 0.652905 0)
(0.678144 0.68689 0)
(0.67139 0.728917 0)
(0.672091 0.780212 0)
(0.685599 0.844483 0)
(0.719791 0.930233 0)
(0.797349 1.0363 0)
(0.967073 1.14617 0)
(1.25124 1.22061 0)
(3 -1.62512e-16 0)
(3 -3.81851e-17 0)
(3 -8.81979e-17 0)
(3 -2.15441e-16 0)
(3 -3.67794e-16 0)
(3 -9.06828e-16 0)
(3 -8.67909e-16 0)
(3 3.27318e-17 0)
(3 6.12645e-16 0)
(3 5.12745e-16 0)
(3 8.73724e-16 0)
(3 1.18618e-15 0)
(3 1.21216e-15 0)
(3 6.78727e-16 0)
(3 4.32949e-16 0)
(3 1.05208e-16 0)
(3 1.09316e-16 0)
(3 -2.20657e-17 0)
(3 -1.00098e-16 0)
(3 -1.15486e-16 0)
(3 -1.63242e-16 0)
(3 8.42577e-17 0)
(3 -1.9764e-16 0)
(3 -1.61449e-16 0)
(3 -2.79603e-17 0)
(3 2.24849e-15 0)
(3 -8.83088e-08 0)
(3.03669 0.116648 0)
(1.18908 0.553136 0)
(0.903187 0.529953 0)
(0.872719 0.530595 0)
(0.845727 0.535743 0)
(0.819784 0.539309 0)
(0.796902 0.548306 0)
(0.779807 0.5649 0)
(0.767538 0.58617 0)
(0.759858 0.609368 0)
(0.752199 0.630883 0)
(0.742829 0.65202 0)
(0.734766 0.678979 0)
(0.730915 0.71384 0)
(0.73287 0.755913 0)
(0.742195 0.804776 0)
(0.765997 0.862774 0)
(0.810705 0.935982 0)
(0.904712 1.02389 0)
(1.0697 1.10288 0)
(1.30345 1.15072 0)
(3 -1.03722e-17 0)
(3 -2.91976e-16 0)
(3 -6.5467e-16 0)
(3 -4.42419e-16 0)
(3 -6.00117e-16 0)
(3 -5.76481e-16 0)
(3 9.5438e-17 0)
(3 1.10201e-15 0)
(3 1.20195e-15 0)
(3 8.81298e-16 0)
(3 7.96787e-16 0)
(3 9.31964e-16 0)
(3 1.1441e-15 0)
(3 8.68593e-16 0)
(3 2.72877e-16 0)
(3 9.92398e-17 0)
(3 2.45697e-16 0)
(3 3.44287e-16 0)
(3 2.64531e-16 0)
(3 3.77094e-16 0)
(3 9.97223e-16 0)
(3 1.44642e-15 0)
(3 4.99473e-16 0)
(3 -8.9193e-16 0)
(3 -7.01039e-16 0)
(3 5.64064e-16 0)
(3 -6.32862e-09 0)
(3.02421 0.00288222 0)
(1.39646 0.533033 0)
(0.899325 0.581314 0)
(0.87155 0.565803 0)
(0.853947 0.569891 0)
(0.836199 0.572409 0)
(0.817437 0.57678 0)
(0.802028 0.588337 0)
(0.792642 0.605711 0)
(0.787281 0.626897 0)
(0.783352 0.649091 0)
(0.778605 0.671599 0)
(0.776075 0.698526 0)
(0.778556 0.73237 0)
(0.788784 0.773509 0)
(0.807414 0.820504 0)
(0.839444 0.873391 0)
(0.893386 0.934309 0)
(0.991637 1.00365 0)
(1.1379 1.05813 0)
(1.33222 1.08612 0)
(3 -7.79972e-17 0)
(3 -1.29685e-16 0)
(3 -3.56131e-16 0)
(3 -6.33236e-16 0)
(3 -4.15447e-16 0)
(3 -4.59938e-17 0)
(3 3.2039e-16 0)
(3 5.53644e-16 0)
(3 1.02594e-15 0)
(3 1.24065e-15 0)
(3 4.97337e-16 0)
(3 -1.05557e-16 0)
(3 -8.48777e-17 0)
(3 3.25921e-16 0)
(3 5.75957e-16 0)
(3 2.99375e-16 0)
(3 6.05432e-16 0)
(3 7.67351e-16 0)
(3 3.11111e-16 0)
(3 -1.87867e-16 0)
(3 -3.15187e-16 0)
(3 -1.40062e-15 0)
(3 -2.17303e-15 0)
(3 -1.93226e-15 0)
(3 -4.0629e-16 0)
(3 -1.21059e-16 0)
(3 -1.11436e-10 0)
(3.00029 -5.27782e-06 0)
(1.9036 0.5464 0)
(0.931036 0.613257 0)
(0.884513 0.582739 0)
(0.87671 0.587095 0)
(0.864558 0.594922 0)
(0.848215 0.599822 0)
(0.832716 0.608211 0)
(0.822856 0.623054 0)
(0.817295 0.642748 0)
(0.814339 0.665057 0)
(0.812138 0.68853 0)
(0.813509 0.715529 0)
(0.820906 0.74807 0)
(0.837447 0.787019 0)
(0.86428 0.831288 0)
(0.904085 0.879959 0)
(0.965348 0.931356 0)
(1.06191 0.984421 0)
(1.1884 1.0221 0)
(1.35189 1.04055 0)
(3 2.67149e-16 0)
(3 1.99281e-16 0)
(3 1.70922e-16 0)
(3 -5.32739e-16 0)
(3 -6.68585e-16 0)
(3 -3.56855e-16 0)
(3 1.24896e-16 0)
(3 2.22402e-16 0)
(3 -1.17455e-16 0)
(3 -8.97923e-18 0)
(3 -1.33112e-16 0)
(3 -2.5662e-16 0)
(3 -6.58027e-17 0)
(3 4.9219e-16 0)
(3 4.28191e-16 0)
(3 3.53354e-16 0)
(3 -2.48565e-16 0)
(3 -3.55822e-16 0)
(3 -6.4203e-16 0)
(3 -5.55507e-16 0)
(3 -1.42055e-15 0)
(3 -1.99622e-15 0)
(3 -1.93818e-15 0)
(3 -3.74462e-16 0)
(3 3.9627e-17 0)
(3 1.50814e-16 0)
(3 -1.66021e-13 0)
(3.00001 -4.40453e-06 0)
(2.72337 0.333828 0)
(1.08998 0.63388 0)
(0.935143 0.585946 0)
(0.917851 0.594668 0)
(0.903988 0.611941 0)
(0.88667 0.622026 0)
(0.869581 0.629704 0)
(0.856865 0.642122 0)
(0.849485 0.659932 0)
(0.846157 0.681043 0)
(0.8454 0.703436 0)
(0.849471 0.728505 0)
(0.860061 0.757861 0)
(0.879994 0.792676 0)
(0.911564 0.832691 0)
(0.957236 0.876925 0)
(1.02326 0.92281 0)
(1.11457 0.963467 0)
(1.22801 0.991245 0)
(1.36567 1.0036 0)
(3 1.00039e-16 0)
(3 -8.32944e-18 0)
(3 2.78054e-18 0)
(3 2.08665e-16 0)
(3 5.94967e-17 0)
(3 5.49704e-17 0)
(3 -1.1804e-16 0)
(3 -4.55739e-16 0)
(3 -5.50172e-16 0)
(3 -1.03072e-15 0)
(3 -4.45617e-16 0)
(3 -1.90351e-16 0)
(3 4.6862e-16 0)
(3 -1.39019e-16 0)
(3 -6.13338e-16 0)
(3 -5.74697e-16 0)
(3 -1.03168e-15 0)
(3 -1.61089e-15 0)
(3 -9.3199e-16 0)
(3 4.21191e-18 0)
(3 3.0545e-16 0)
(3 2.85226e-16 0)
(3 9.82459e-16 0)
(3 1.29433e-15 0)
(3 1.24233e-15 0)
(3 1.3455e-15 0)
(3 -1.14268e-16 0)
(3 -9.49207e-07 0)
(3.07062 0.0300125 0)
(1.35288 0.598543 0)
(0.973236 0.633016 0)
(0.938365 0.631215 0)
(0.915661 0.642386 0)
(0.902916 0.652449 0)
(0.892646 0.657596 0)
(0.883757 0.66571 0)
(0.878533 0.67979 0)
(0.876993 0.698423 0)
(0.878266 0.719018 0)
(0.88465 0.741858 0)
(0.897629 0.768119 0)
(0.919595 0.79826 0)
(0.953399 0.832274 0)
(1.00174 0.87003 0)
(1.06899 0.90992 0)
(1.15462 0.942735 0)
(1.25967 0.966389 0)
(1.37806 0.977827 0)
(3 -3.40767e-16 0)
(3 -2.16553e-16 0)
(3 2.22148e-16 0)
(3 3.99834e-16 0)
(3 6.51442e-16 0)
(3 4.87225e-16 0)
(3 -3.94969e-16 0)
(3 -5.83549e-16 0)
(3 -4.23726e-16 0)
(3 -4.13285e-16 0)
(3 -2.46478e-16 0)
(3 -3.21777e-16 0)
(3 -8.64937e-16 0)
(3 -1.55786e-15 0)
(3 -1.28548e-15 0)
(3 -1.34974e-15 0)
(3 -1.42166e-15 0)
(3 -1.51116e-15 0)
(3 4.67368e-17 0)
(3 7.57664e-16 0)
(3 2.58572e-15 0)
(3 2.39342e-15 0)
(3 1.44195e-15 0)
(3 1.53596e-15 0)
(3 7.88369e-16 0)
(3 2.73937e-16 0)
(3 6.02965e-16 0)
(3 -8.38622e-08 0)
(3.00382 0.000121571 0)
(1.77155 0.588654 0)
(0.978253 0.67613 0)
(0.945626 0.654423 0)
(0.938343 0.660275 0)
(0.930904 0.668305 0)
(0.922869 0.674662 0)
(0.915223 0.681814 0)
(0.910758 0.694093 0)
(0.910517 0.71186 0)
(0.913434 0.731389 0)
(0.921145 0.751926 0)
(0.935173 0.774524 0)
(0.95766 0.799867 0)
(0.991519 0.828436 0)
(1.03955 0.860777 0)
(1.10383 0.892837 0)
(1.18252 0.919886 0)
(1.27827 0.940445 0)
(1.3811 0.94999 0)
(3 9.10299e-17 0)
(3 3.04432e-16 0)
(3 9.93118e-17 0)
(3 9.03729e-17 0)
(3 1.01266e-15 0)
(3 4.95707e-16 0)
(3 2.52738e-16 0)
(3 -2.75705e-16 0)
(3 -6.62578e-16 0)
(3 -1.75051e-16 0)
(3 -1.61139e-16 0)
(3 -1.07465e-16 0)
(3 -9.74642e-16 0)
(3 -1.43084e-15 0)
(3 -1.7126e-15 0)
(3 -1.5847e-15 0)
(3 -1.40374e-15 0)
(3 -6.2294e-16 0)
(3 -3.02564e-16 0)
(3 -5.09979e-17 0)
(3 3.9527e-16 0)
(3 1.10589e-15 0)
(3 1.21365e-15 0)
(3 2.9011e-16 0)
(3 -2.8683e-16 0)
(3 -7.70729e-16 0)
(3 1.30295e-16 0)
(3 -1.92275e-09 0)
(3.00001 -3.91994e-07 0)
(2.63815 0.381551 0)
(1.11636 0.690051 0)
(0.985151 0.651936 0)
(0.979521 0.668423 0)
(0.9698 0.683467 0)
(0.959185 0.692189 0)
(0.950401 0.698859 0)
(0.945049 0.70948 0)
(0.945027 0.726236 0)
(0.949463 0.745157 0)
(0.958126 0.763735 0)
(0.97283 0.78389 0)
(0.996253 0.804696 0)
(1.02943 0.827359 0)
(1.07524 0.853958 0)
(1.13428 0.878212 0)
(1.20658 0.901056 0)
(1.29277 0.919146 0)
(1.38468 0.926915 0)
(3 -1.02168e-18 0)
(3 -2.21004e-17 0)
(3 -1.82288e-16 0)
(3 1.56122e-16 0)
(3 2.28589e-16 0)
(3 3.50568e-16 0)
(3 6.61196e-16 0)
(3 -2.33666e-16 0)
(3 -5.75303e-16 0)
(3 1.16663e-16 0)
(3 9.73914e-18 0)
(3 3.51526e-16 0)
(3 6.28488e-16 0)
(3 2.88091e-16 0)
(3 -7.1929e-16 0)
(3 -6.2963e-16 0)
(3 6.07163e-16 0)
(3 5.52942e-16 0)
(3 -6.18469e-17 0)
(3 -6.71088e-16 0)
(3 -1.09902e-15 0)
(3 3.78322e-16 0)
(3 9.87629e-16 0)
(3 7.30051e-16 0)
(3 3.07166e-16 0)
(3 -1.9787e-16 0)
(3 -5.0466e-17 0)
(3 -3.00559e-12 0)
(3 -3.61155e-07 0)
(3.07409 0.0378909 0)
(1.40549 0.659648 0)
(1.03366 0.699687 0)
(0.997409 0.698394 0)
(0.983885 0.708258 0)
(0.977761 0.713847 0)
(0.974969 0.718891 0)
(0.974393 0.72612 0)
(0.977291 0.739665 0)
(0.98448 0.756998 0)
(0.995184 0.773979 0)
(1.0108 0.789453 0)
(1.03436 0.807192 0)
(1.06644 0.826721 0)
(1.109 0.848226 0)
(1.16204 0.866881 0)
(1.22789 0.885534 0)
(1.30417 0.899685 0)
(1.38644 0.904566 0)
(3 -9.94132e-17 0)
(3 1.93797e-16 0)
(3 3.13529e-16 0)
(3 -5.33353e-17 0)
(3 -1.1951e-15 0)
(3 -7.62163e-17 0)
(3 7.86753e-16 0)
(3 9.21814e-16 0)
(3 1.17789e-15 0)
(3 9.482e-16 0)
(3 7.86558e-16 0)
(3 7.96984e-16 0)
(3 1.44136e-15 0)
(3 1.01352e-15 0)
(3 7.48154e-16 0)
(3 4.60855e-16 0)
(3 9.01875e-16 0)
(3 1.48923e-15 0)
(3 -3.04756e-17 0)
(3 -3.89027e-16 0)
(3 -6.12983e-16 0)
(3 -7.47743e-16 0)
(3 -4.92154e-16 0)
(3 -3.9055e-16 0)
(3 -5.55511e-16 0)
(3 -1.09977e-15 0)
(3 -6.86925e-17 0)
(3 -1.59123e-15 0)
(3 -6.07184e-08 0)
(3.00484 0.000220015 0)
(1.94435 0.636097 0)
(1.05757 0.749152 0)
(1.01671 0.718274 0)
(1.00934 0.717891 0)
(1.00307 0.72318 0)
(1.00149 0.728554 0)
(1.00336 0.736535 0)
(1.00866 0.750304 0)
(1.01823 0.767455 0)
(1.03089 0.784138 0)
(1.04745 0.798479 0)
(1.07041 0.812925 0)
(1.10167 0.828385 0)
(1.14082 0.844402 0)
(1.18836 0.859044 0)
(1.2484 0.8743 0)
(1.31638 0.885203 0)
(1.39141 0.889694 0)
(3 8.57303e-17 0)
(3 1.14465e-16 0)
(3 2.44871e-16 0)
(3 -4.82194e-16 0)
(3 -7.84743e-16 0)
(3 -7.72817e-16 0)
(3 -8.239e-16 0)
(3 2.37096e-16 0)
(3 5.93968e-16 0)
(3 9.26907e-16 0)
(3 1.16341e-15 0)
(3 7.01323e-16 0)
(3 3.98587e-16 0)
(3 4.45529e-16 0)
(3 7.12442e-16 0)
(3 7.73373e-16 0)
(3 -5.92735e-17 0)
(3 -1.03193e-16 0)
(3 -4.23857e-16 0)
(3 -6.6686e-16 0)
(3 -9.75428e-16 0)
(3 -1.99769e-15 0)
(3 -2.27593e-15 0)
(3 -2.64224e-15 0)
(3 -2.3268e-15 0)
(3 -1.04399e-15 0)
(3 -9.48046e-17 0)
(3 4.54133e-16 0)
(3 -4.12111e-09 0)
(3.00001 2.32564e-08 0)
(2.92301 0.243639 0)
(1.26869 0.724493 0)
(1.06579 0.72078 0)
(1.05452 0.731973 0)
(1.04431 0.736284 0)
(1.0373 0.740661 0)
(1.03636 0.746723 0)
(1.04041 0.758953 0)
(1.05015 0.775669 0)
(1.0632 0.792427 0)
(1.08036 0.806241 0)
(1.10294 0.81899 0)
(1.1333 0.831569 0)
(1.16991 0.843914 0)
(1.21362 0.855627 0)
(1.26839 0.867041 0)
(1.3302 0.874088 0)
(1.39753 0.87651 0)
(3 -2.16111e-17 0)
(3 -5.44667e-17 0)
(3 -1.00831e-16 0)
(3 -7.81998e-17 0)
(3 1.61457e-16 0)
(3 -1.83475e-18 0)
(3 -5.42469e-16 0)
(3 -8.68709e-16 0)
(3 -8.63668e-16 0)
(3 3.55655e-16 0)
(3 4.34792e-16 0)
(3 -1.18126e-16 0)
(3 -7.78005e-16 0)
(3 2.52227e-17 0)
(3 4.1719e-16 0)
(3 1.17471e-16 0)
(3 -7.8792e-17 0)
(3 -3.29298e-16 0)
(3 -7.62635e-17 0)
(3 -6.53148e-16 0)
(3 -7.77326e-16 0)
(3 -4.84383e-16 0)
(3 -5.41254e-16 0)
(3 -5.47771e-16 0)
(3 -1.07542e-15 0)
(3 -8.20504e-16 0)
(3 -8.56214e-16 0)
(3 -1.37137e-16 0)
(3 -1.05189e-11 0)
(3 -4.88647e-07 0)