/*--------------------------------*- C++ -*----------------------------------*\
  =========                 |
  \\      /  F ield         | OpenFOAM: The Open Source CFD Toolbox
   \\    /   O peration     | Website:  https://openfoam.org
    \\  /    A nd           | Version:  7
     \\/     M anipulation  |
\*---------------------------------------------------------------------------*/
FoamFile
{
    version     2.0;
    format      ascii;
    class       volScalarField;
    location    "1.4";
    object      rho;
}
// * * * * * * * * * * * * * * * * * * * * * * * * * * * * * * * * * * * * * //

dimensions      [1 -3 0 0 0 0 0];

internalField   nonuniform List<scalar> 
4032
(
1.40001
1.40001
1.40001
1.40001
1.40001
1.40001
1.40001
1.40001
1.40001
1.40001
1.40001
1.40001
2.11875
4.94277
5.50884
5.57318
5.65947
5.72063
5.75479
5.77352
5.78282
5.77921
5.76534
5.76642
1.40001
1.40001
1.40001
1.40001
1.40001
1.40001
1.40001
1.40001
1.40001
1.40001
1.40001
1.40001
2.06527
4.88761
5.49732
5.5683
5.65096
5.70838
5.73999
5.7576
5.76676
5.76108
5.74528
5.7449
1.40001
1.40001
1.40001
1.40001
1.40001
1.40001
1.40001
1.40001
1.40001
1.40001
1.40001
1.40001
1.95862
4.79992
5.48565
5.55489
5.63364
5.68742
5.71749
5.73499
5.74475
5.73838
5.71999
5.71872
1.40001
1.40001
1.40001
1.40001
1.40001
1.40001
1.40001
1.40001
1.40001
1.40001
1.40001
1.40001
1.80896
4.65576
5.4758
5.537
5.60632
5.65387
5.68378
5.70302
5.71379
5.70421
5.67946
5.66903
1.40001
1.40001
1.40001
1.40001
1.40001
1.40001
1.40001
1.40001
1.40001
1.40001
1.40001
1.40001
1.6298
4.44976
5.46644
5.50778
5.56786
5.6091
5.637
5.65314
5.6571
5.64192
5.61293
5.6095
1.40001
1.40001
1.40001
1.40001
1.40001
1.40001
1.40001
1.40001
1.40001
1.40001
1.40001
1.40001
1.42693
4.1314
5.4518
5.48336
5.52644
5.55428
5.57005
5.5806
5.5829
5.56886
5.53357
5.50374
1.40001
1.40001
1.40001
1.40001
1.40001
1.40001
1.40001
1.40001
1.40001
1.40001
1.40001
1.40001
1.40038
3.64739
5.33219
5.41606
5.46053
5.48776
5.49478
5.49427
5.47754
5.43189
5.36929
5.33404
1.40001
1.40001
1.40001
1.40001
1.40001
1.40001
1.40001
1.40001
1.40001
1.40001
1.40001
1.40001
1.4
3.08721
5.17859
5.39245
5.4244
5.43708
5.42466
5.40068
5.36312
5.30098
5.20296
5.14173
1.40001
1.40001
1.40001
1.40001
1.40001
1.40001
1.40001
1.40001
1.40001
1.40001
1.40001
1.40001
1.4
2.46924
4.96953
5.37438
5.38482
5.39006
5.35989
5.31205
5.23833
5.10739
4.76461
3.89771
1.40001
1.40001
1.40001
1.40001
1.40001
1.40001
1.40001
1.40001
1.40001
1.40001
1.40001
1.40001
1.40001
1.83769
4.72124
5.40578
5.3686
5.33268
5.27724
5.2031
5.08832
4.88084
4.52518
3.61098
1.40001
1.40001
1.40001
1.40001
1.40001
1.40001
1.40001
1.40001
1.40001
1.40001
1.40001
1.40001
1.40001
1.44424
4.09936
5.28723
5.27535
5.24195
5.1773
5.08425
4.94265
4.69653
4.33441
3.50797
1.40001
1.40001
1.40001
1.40001
1.40001
1.40001
1.40001
1.40001
1.40001
1.40001
1.40001
1.40001
1.40001
1.40021
3.19965
5.12521
5.21942
5.18471
5.11553
5.00399
4.8306
4.57183
4.17624
3.49257
1.40001
1.40001
1.40001
1.40001
1.40001
1.40001
1.40001
1.40001
1.40001
1.40001
1.40001
1.40001
1.40001
1.4
2.25437
4.86081
5.17584
5.11057
5.03008
4.90996
4.71969
4.47038
4.0623
3.53471
1.40001
1.40001
1.40001
1.40001
1.40001
1.40001
1.40001
1.40001
1.40001
1.40001
1.40001
1.40001
1.40001
1.4
1.54105
4.21601
5.09001
5.02288
4.95035
4.82904
4.64575
4.38353
4.01589
3.59041
1.40001
1.40001
1.40001
1.40001
1.40001
1.40001
1.40001
1.40001
1.40001
1.40001
1.40001
1.40001
1.40001
1.40001
1.40242
3.09392
4.90001
4.97171
4.9211
4.79197
4.60476
4.3446
4.02034
3.65749
1.40001
1.40001
1.40001
1.40001
1.40001
1.40001
1.40001
1.40001
1.40001
1.40001
1.40001
1.40001
1.40001
1.40001
1.4
1.86897
4.63112
5.00969
4.88993
4.74295
4.54933
4.31117
4.02501
3.71194
1.40001
1.40001
1.40001
1.40001
1.40001
1.40001
1.40001
1.40001
1.40001
1.40001
1.40001
1.40001
1.40001
1.40001
1.4
1.43236
3.61647
4.87991
4.82117
4.69106
4.51498
4.29375
4.03388
3.75826
1.40001
1.40001
1.40001
1.40001
1.40001
1.40001
1.40001
1.40001
1.40001
1.40001
1.40001
1.40001
1.40001
1.40001
1.4
1.40005
2.18584
4.67128
4.85068
4.69153
4.511
4.29314
4.04766
3.79853
1.40001
1.40001
1.40001
1.40001
1.40001
1.40001
1.40001
1.40001
1.40001
1.40001
1.40001
1.40001
1.40001
1.40001
1.40001
1.4
1.48857
3.74094
4.78172
4.66867
4.49927
4.29502
4.06713
3.83802
1.40001
1.40001
1.40001
1.40001
1.40001
1.40001
1.40001
1.40001
1.40001
1.40001
1.40001
1.40001
1.40001
1.40001
1.40001
1.4
1.40079
2.20412
4.4995
4.71642
4.5322
4.33014
4.1129
3.89528
1.40001
1.40001
1.40001
1.40001
1.40001
1.40001
1.40001
1.40001
1.40001
1.40001
1.40001
1.40001
1.40001
1.40001
1.40001
1.4
1.40001
1.48921
3.51258
4.65312
4.53761
4.34707
4.14859
3.94426
1.40001
1.40001
1.40001
1.40001
1.40001
1.40001
1.40001
1.40001
1.40001
1.40001
1.40001
1.40001
1.40001
1.40001
1.40001
1.40001
1.40001
1.40097
2.05311
4.2099
4.57902
4.38244
4.20432
4.00926
1.40001
1.40001
1.40001
1.40001
1.40001
1.40001
1.40001
1.40001
1.40001
1.40001
1.40001
1.40001
1.40001
1.40001
1.40001
1.40001
1.40001
1.40001
1.45455
2.93942
4.45909
4.418
4.24635
4.06349
1.40001
1.40001
1.40001
1.40001
1.40001
1.40001
1.40001
1.40001
1.40001
1.40001
1.40001
1.40001
1.40001
1.40001
1.40001
1.40001
1.40001
1.40001
1.40064
1.73519
3.71749
4.50248
4.32987
4.14257
1.40001
1.40001
1.40001
1.40001
1.40001
1.40001
1.40001
1.40001
1.40001
1.40001
1.40001
1.40001
1.40001
1.40001
1.40001
1.40001
1.40001
1.40001
1.40001
1.41419
2.26945
4.13013
4.38333
4.21395
1.40001
1.40001
1.40001
1.40001
1.40001
1.40001
1.40001
1.40001
1.40001
1.40001
1.40001
1.40001
1.40001
1.40001
1.40001
1.40001
1.40001
1.40001
1.40001
1.40012
1.49546
2.90322
4.2141
4.27584
1.40001
1.40001
1.40001
1.40001
1.40001
1.40001
1.40001
1.40001
1.40001
1.40001
1.40001
1.40001
1.40001
1.40001
1.40001
1.40001
1.40001
1.40001
1.40001
1.40001
1.40179
1.70859
3.39138
4.24348
1.40001
1.40001
1.40001
1.40001
1.40001
1.40001
1.40001
1.40001
1.40001
1.40001
1.40001
1.40001
1.40001
1.40001
1.40001
1.40001
1.40001
1.40001
1.40001
1.40001
1.40001
1.41283
2.02172
3.70244
1.40001
1.40001
1.40001
1.40001
1.40001
1.40001
1.40001
1.40001
1.40001
1.40001
1.40001
1.40001
1.40001
1.40001
1.40001
1.40001
1.40001
1.40001
1.40001
1.40001
1.40001
1.40011
1.44938
2.34959
1.40001
1.40001
1.40001
1.40001
1.40001
1.40001
1.40001
1.40001
1.40001
1.40001
1.40001
1.40001
1.40001
1.40001
1.40001
1.40001
1.40001
1.40001
1.40001
1.40001
1.40001
1.40001
1.40075
1.51689
1.40001
1.40001
1.40001
1.40001
1.40001
1.40001
1.40001
1.40001
1.40001
1.40001
1.40001
1.40001
1.40001
1.40001
1.40001
1.40001
1.40001
1.40001
1.40001
1.40001
1.40001
1.40001
1.40001
1.40273
1.40001
1.40001
1.40001
1.40001
1.40001
1.40001
1.40001
1.40001
1.40001
1.40001
1.40001
1.40001
1.40001
1.40001
1.40001
1.40001
1.40001
1.40001
1.40001
1.40001
1.40001
1.40001
1.40001
1.40002
1.40001
1.40001
1.40001
1.40001
1.40001
1.40001
1.40001
1.40001
1.40001
1.40001
1.40001
1.40001
1.40001
1.40001
1.40001
1.40001
1.40001
1.40001
1.40001
1.40001
1.40001
1.40001
1.40001
1.40001
1.40001
1.40001
1.40001
1.40001
1.40001
1.40001
1.40001
1.40001
1.40001
1.40001
1.40001
1.40001
1.40001
1.40001
1.40001
1.40001
1.40001
1.40001
1.40001
1.40001
1.40001
1.40001
1.40001
1.40001
1.40001
1.40001
1.40001
1.40001
1.40001
1.40001
1.40001
1.40001
1.40001
1.40001
1.40001
1.40001
1.40001
1.40001
1.40001
1.40001
1.40001
1.40001
1.40001
1.40001
1.40001
1.40001
1.40001
1.40001
1.40001
1.40001
1.40001
1.40001
1.40001
1.40001
1.40001
1.40001
1.40001
1.40001
1.40001
1.40001
1.40001
1.40001
1.40001
1.40001
1.40001
1.40001
1.40001
1.40001
1.40001
1.40001
1.40001
1.40001
1.40001
1.40001
1.40001
1.40001
1.40001
1.40001
1.40001
1.40001
1.40001
1.40001
1.40001
1.40001
1.40001
1.40001
1.40001
1.40001
1.40001
1.40001
1.40001
1.40001
1.40001
1.40001
1.40001
1.40001
1.40001
1.40001
1.40001
1.40001
1.40001
1.40001
1.40001
1.40001
1.40001
1.40001
1.40001
1.40001
1.40001
1.40001
1.40001
1.40001
1.40001
1.40001
1.40001
1.40001
1.40001
1.40001
1.40001
1.40001
1.40001
1.40001
1.40001
1.40001
1.40001
1.40001
1.40001
1.40001
1.40001
1.40001
1.40001
1.40001
1.40001
1.40001
1.40001
1.40001
1.40001
1.40001
1.40001
1.40001
1.40001
1.40001
1.40001
1.40001
1.40001
1.40001
1.40001
1.40001
1.40001
1.40001
1.40001
1.40001
1.40001
1.40001
1.40001
1.40001
1.40001
1.40001
1.40001
1.40001
1.40001
1.40001
1.40001
1.40001
1.40001
1.40001
1.40001
1.40001
1.27568
0.494578
0.181694
0.172961
0.219148
0.293447
0.372733
0.476697
0.614618
0.71215
0.727785
0.74226
0.76654
0.809934
0.879522
0.94391
0.953792
0.950302
0.950119
0.948217
0.937707
0.939952
0.960821
0.973458
0.970091
0.959099
0.948331
0.944272
0.94523
0.948957
0.954565
0.961468
0.965784
0.965678
0.964293
0.961298
0.958635
0.956199
0.953415
0.950696
0.948897
0.946711
0.942893
0.939029
0.935201
0.930614
0.924399
0.917261
0.910619
0.904621
0.899294
0.89538
0.891944
0.890984
0.909587
0.982264
1.12275
1.33676
1.5901
1.81154
2.00905
2.16291
2.29144
2.39945
2.44037
2.4128
2.36919
2.33188
2.28919
2.24851
2.20381
2.16459
2.12305
2.07831
2.03507
1.99668
1.96357
1.92733
1.8997
1.88165
1.86375
1.84501
1.83064
1.8192
1.80427
1.77562
1.72088
1.67172
1.64311
1.62216
1.60391
1.58947
1.57819
1.56845
1.55674
1.51868
1.91089
1.21666
0.816349
0.609203
0.58958
0.557415
0.532874
0.538361
0.552739
0.591144
0.627663
0.662054
0.703368
0.752172
0.814339
0.886467
0.92226
0.926277
0.937712
0.952716
0.959406
0.969644
0.988159
0.996187
0.992561
0.982322
0.972999
0.968403
0.968782
0.971
0.975245
0.980098
0.981235
0.979405
0.976214
0.971409
0.968042
0.966252
0.964655
0.962394
0.958536
0.954751
0.951535
0.949455
0.947355
0.944121
0.939396
0.933071
0.924462
0.914696
0.904237
0.901684
0.915767
0.975778
1.09665
1.25149
1.40585
1.48949
1.53577
1.58537
1.68293
1.81752
1.92979
2.01525
2.09472
2.14453
2.17399
2.20147
2.22335
2.23324
2.22197
2.20424
2.17855
2.14652
2.11087
2.0706
2.03226
1.99527
1.96365
1.94128
1.91931
1.89742
1.87908
1.86206
1.84084
1.8089
1.76192
1.70988
1.67112
1.64199
1.61561
1.59506
1.58201
1.56971
1.55805
1.52528
2.4227
1.76613
1.39308
1.11251
0.927355
0.807488
0.704016
0.671048
0.634847
0.627978
0.658247
0.706662
0.738954
0.766867
0.797755
0.848281
0.901609
0.929542
0.9558
1.00009
1.03505
1.04722
1.05745
1.05998
1.05447
1.04205
1.02618
1.01414
1.01063
1.01064
1.01435
1.01842
1.01813
1.01595
1.01349
1.01038
1.00719
1.00508
1.00342
1.00138
0.99869
0.995186
0.991079
0.986481
0.981263
0.975084
0.968529
0.961737
0.955238
0.952809
0.965795
1.02189
1.13914
1.30402
1.47461
1.569
1.60011
1.61172
1.61186
1.61425
1.59391
1.60375
1.64283
1.70981
1.82332
1.95592
2.05509
2.12741
2.18552
2.22124
2.24477
2.25548
2.25816
2.25503
2.24261
2.21869
2.17681
2.12772
2.08512
2.04459
2.00806
1.97826
1.95243
1.92513
1.89329
1.85917
1.82386
1.78056
1.73395
1.69402
1.65989
1.64116
1.63062
1.62084
1.60639
1.57259
2.76042
2.20646
1.79167
1.5157
1.29514
1.12308
0.984396
0.914407
0.858111
0.787617
0.773387
0.766107
0.744778
0.738019
0.744873
0.767182
0.811228
0.863581
0.905461
0.957103
1.0153
1.03998
1.0581
1.08664
1.09377
1.09012
1.08454
1.0782
1.07116
1.06432
1.06416
1.06411
1.06031
1.05547
1.05152
1.04843
1.04662
1.04638
1.0455
1.04448
1.04158
1.03816
1.03496
1.03047
1.02387
1.01518
1.0071
1.00163
1.00858
1.05195
1.16263
1.34822
1.54222
1.64781
1.68684
1.70898
1.71277
1.70375
1.68109
1.64911
1.6173
1.60641
1.60376
1.60348
1.61125
1.64385
1.70412
1.77519
1.86328
1.9704
2.07889
2.16365
2.22142
2.24796
2.24883
2.24145
2.21762
2.19219
2.16251
2.12655
2.10464
2.08849
2.06839
2.04294
2.01392
1.98073
1.94717
1.90772
1.86081
1.81074
1.76126
1.72816
1.7143
1.70185
1.6866
1.65482
2.99744
2.54556
2.1405
1.84746
1.6176
1.40853
1.24819
1.14866
1.06006
0.974062
0.915888
0.874407
0.820922
0.769703
0.765371
0.772029
0.781008
0.797194
0.818066
0.853176
0.913926
0.971808
1.01409
1.06319
1.08538
1.08427
1.08619
1.09333
1.09733
1.09423
1.09749
1.10382
1.10296
1.09941
1.09222
1.08331
1.07472
1.07147
1.07052
1.06945
1.0685
1.06911
1.0695
1.0674
1.06318
1.0552
1.0529
1.07341
1.15606
1.34132
1.55601
1.69345
1.76005
1.79429
1.78689
1.77218
1.75216
1.7162
1.68654
1.67171
1.65546
1.63664
1.61751
1.6031
1.5892
1.58018
1.57253
1.55657
1.55554
1.57876
1.64759
1.75105
1.87169
1.98367
2.07943
2.13598
2.16759
2.17787
2.16325
2.13312
2.11901
2.10755
2.08872
2.07723
2.07289
2.0608
2.04617
2.02641
1.9906
1.93912
1.87515
1.81679
1.78199
1.75951
1.74354
1.71666
3.16301
2.7727
2.41804
2.12621
1.88356
1.67326
1.49529
1.36883
1.25907
1.15644
1.08902
1.03314
0.976376
0.910127
0.884434
0.860886
0.830575
0.820309
0.824686
0.81975
0.823017
0.845396
0.885823
0.941948
0.99639
1.03297
1.05546
1.07858
1.09523
1.09352
1.0961
1.10774
1.11478
1.11375
1.10968
1.1069
1.10208
1.09495
1.08962
1.08669
1.08404
1.08291
1.08128
1.08046
1.07991
1.09413
1.14916
1.30692
1.5408
1.7082
1.79908
1.84404
1.84286
1.83414
1.80291
1.76264
1.73953
1.72298
1.71166
1.69823
1.67128
1.63636
1.61346
1.59865
1.58702
1.57722
1.56572
1.55066
1.52258
1.48381
1.46619
1.4732
1.50374
1.56303
1.64644
1.74358
1.8416
1.945
1.99837
2.0309
2.05759
2.05084
2.03211
2.02959
2.03356
2.04276
2.05066
2.04431
2.02753
2.00213
1.96648
1.91696
1.86519
1.8353
1.82332
1.80153
3.29942
2.94536
2.62584
2.35873
2.11405
1.89101
1.72192
1.57338
1.44902
1.33709
1.25161
1.17839
1.10522
1.03703
0.992478
0.95413
0.911868
0.873785
0.863355
0.847575
0.829253
0.825941
0.83112
0.844969
0.871206
0.912893
0.95975
1.00388
1.04687
1.07008
1.08048
1.09728
1.11297
1.11316
1.10955
1.11027
1.11157
1.10977
1.10825
1.10705
1.10227
1.09611
1.08939
1.09347
1.12838
1.27063
1.48966
1.71628
1.85201
1.90233
1.88988
1.86791
1.83832
1.8128
1.78283
1.76004
1.75298
1.74414
1.72664
1.70227
1.66638
1.62674
1.60978
1.59995
1.59011
1.57794
1.56425
1.54796
1.52557
1.4917
1.45101
1.43085
1.42653
1.42539
1.43023
1.44722
1.48133
1.53474
1.60189
1.67023
1.72913
1.77581
1.82433
1.87136
1.89933
1.93048
1.96838
1.99221
1.99897
1.99335
1.97199
1.94225
1.91043
1.88243
1.87082
1.858
3.39775
3.07509
2.7933
2.54214
2.29386
2.07612
1.91562
1.76112
1.61734
1.49904
1.40933
1.31868
1.24395
1.17339
1.11959
1.06878
1.0216
0.975681
0.954077
0.93103
0.890302
0.854971
0.852503
0.843416
0.832606
0.836176
0.855422
0.896343
0.942687
0.989522
1.02259
1.0487
1.08419
1.09558
1.09764
1.10447
1.11012
1.11421
1.11506
1.11052
1.1077
1.10394
1.11734
1.20065
1.41647
1.67024
1.84318
1.94348
1.94973
1.9312
1.88087
1.84779
1.82029
1.79806
1.78843
1.77829
1.76345
1.74574
1.72414
1.69626
1.66122
1.62525
1.60379
1.59158
1.58073
1.57036
1.55934
1.54662
1.53032
1.50578
1.46402
1.42664
1.41259
1.40715
1.40503
1.406
1.40559
1.40519
1.40975
1.41756
1.42125
1.43644
1.46171
1.49953
1.56105
1.63176
1.71057
1.78728
1.85387
1.89551
1.91537
1.91029
1.90008
1.8901
1.86683
1.84803
3.47537
3.18777
2.92958
2.69244
2.45121
2.25305
2.08153
1.9217
1.76587
1.65619
1.55609
1.45685
1.36117
1.29643
1.23842
1.18269
1.1348
1.08012
1.0368
0.998489
0.956009
0.903415
0.881909
0.867494
0.84548
0.840677
0.846348
0.85551
0.870277
0.884876
0.909823
0.94391
0.98652
1.02938
1.05827
1.07518
1.09747
1.11273
1.11388
1.11037
1.11609
1.17152
1.32353
1.57187
1.81921
1.92973
1.97536
1.9652
1.94392
1.91534
1.88371
1.84055
1.81859
1.80089
1.78451
1.77218
1.75815
1.74143
1.72155
1.69621
1.66305
1.62493
1.60141
1.58438
1.56997
1.56182
1.55882
1.54959
1.53676
1.51826
1.48545
1.43772
1.4121
1.40358
1.39781
1.39571
1.39471
1.39153
1.38753
1.38376
1.38004
1.36986
1.34635
1.31449
1.31416
1.32964
1.36684
1.41939
1.49295
1.57597
1.66192
1.7319
1.76573
1.79133
1.79943
1.8026
3.53954
3.27893
3.04247
2.81713
2.58897
2.39924
2.23062
2.06692
1.90888
1.79486
1.68484
1.58392
1.4864
1.4175
1.34727
1.27829
1.23069
1.184
1.13162
1.08909
1.05123
0.992427
0.953118
0.936745
0.912818
0.878768
0.872532
0.874147
0.864694
0.851527
0.852696
0.861246
0.881023
0.914957
0.964809
1.00579
1.04546
1.09168
1.10106
1.12669
1.24672
1.51808
1.76251
1.94125
1.98208
1.96616
1.96481
1.96871
1.94393
1.90455
1.87057
1.83263
1.8052
1.79059
1.77871
1.76666
1.75299
1.73723
1.71511
1.69031
1.65935
1.62165
1.59999
1.58164
1.56757
1.5614
1.55601
1.54627
1.53628
1.525
1.50677
1.47482
1.43147
1.40798
1.39985
1.39307
1.38676
1.38511
1.38084
1.37377
1.36839
1.36338
1.35513
1.33528
1.29793
1.27602
1.26564
1.26586
1.27345
1.29473
1.33059
1.38279
1.43352
1.48475
1.52691
1.59197
3.5984
3.36032
3.14371
2.92666
2.71403
2.53465
2.36661
2.19182
2.043
1.92794
1.81392
1.69948
1.59351
1.52705
1.45482
1.38272
1.31939
1.27521
1.21246
1.16076
1.13119
1.08436
1.03389
1.00759
0.981188
0.938268
0.907556
0.899098
0.882691
0.860615
0.856729
0.85943
0.862767
0.867724
0.880596
0.910089
0.951039
1.01642
1.08259
1.2608
1.61511
1.88189
1.98751
2.03585
2.02787
2.01165
1.9896
1.9647
1.93887
1.90317
1.86555
1.82928
1.80955
1.80143
1.78925
1.76952
1.75012
1.72635
1.70359
1.68127
1.65849
1.63722
1.61884
1.59373
1.57044
1.55951
1.55131
1.54332
1.53478
1.52706
1.51793
1.50277
1.47417
1.42827
1.40006
1.39063
1.38355
1.37769
1.37472
1.37149
1.36585
1.36108
1.35638
1.34814
1.32699
1.28716
1.25884
1.24967
1.24496
1.24154
1.24068
1.24401
1.252
1.25892
1.26662
1.29664
3.66743
3.44381
3.23757
3.02717
2.82487
2.65267
2.48739
2.31244
2.1699
2.04523
1.92817
1.80822
1.71258
1.63521
1.55682
1.4717
1.40424
1.36466
1.30944
1.24186
1.2051
1.16349
1.10946
1.08253
1.06091
1.02568
0.981709
0.964618
0.947517
0.915216
0.886115
0.885079
0.881924
0.871485
0.86831
0.872777
0.888613
0.96061
1.21547
1.55412
1.82844
1.9201
1.96613
1.97823
1.9759
1.95429
1.93296
1.9121
1.90098
1.8946
1.87697
1.86078
1.84606
1.82822
1.80541
1.77392
1.74265
1.71539
1.6932
1.68067
1.66379
1.64999
1.63479
1.6089
1.57341
1.55364
1.54446
1.53907
1.53754
1.53532
1.52584
1.51393
1.49764
1.4669
1.41811
1.38987
1.37786
1.36972
1.364
1.36085
1.3641
1.36438
1.35794
1.35157
1.34305
1.31678
1.26899
1.24587
1.23893
1.23403
1.23109
1.2319
1.23125
1.22519
1.22187
1.20868
3.72798
3.51913
3.3189
3.11613
2.9263
2.76023
2.59427
2.42358
2.28721
2.16175
2.03942
1.91234
1.82313
1.73657
1.65479
1.56725
1.49606
1.44703
1.39226
1.32355
1.28147
1.24613
1.18992
1.15213
1.12821
1.09461
1.05036
1.02785
1.00784
0.977237
0.935059
0.917834
0.906106
0.89089
0.881096
0.900039
1.01033
1.30233
1.54021
1.73554
1.80379
1.81872
1.8252
1.82359
1.81607
1.82041
1.83146
1.84187
1.85501
1.86616
1.87536
1.87632
1.86348
1.8389
1.80673
1.76409
1.73122
1.71687
1.70824
1.6959
1.67968
1.66237
1.64412
1.61888
1.58424
1.55416
1.53423
1.52381
1.51672
1.51582
1.51933
1.51123
1.50047
1.48374
1.44731
1.39557
1.37258
1.36436
1.35855
1.35531
1.36417
1.37104
1.36428
1.35666
1.34762
1.32797
1.28816
1.24808
1.23536
1.2305
1.22846
1.22967
1.22553
1.21901
1.21433
1.19961
3.79997
3.59834
3.40363
3.20769
3.02537
2.86003
2.69688
2.53767
2.40044
2.27197
2.14039
2.01939
1.93205
1.84326
1.7527
1.65321
1.59253
1.53495
1.47549
1.40195
1.35489
1.32152
1.26917
1.22705
1.2034
1.17068
1.12157
1.09476
1.07214
1.0469
1.00728
0.975219
0.960989
0.955068
0.989535
1.12722
1.44226
1.68671
1.75303
1.7871
1.77762
1.73725
1.70815
1.69312
1.67765
1.67765
1.68727
1.70563
1.72766
1.75505
1.79298
1.82496
1.82273
1.79961
1.76169
1.74155
1.73138
1.72786
1.72338
1.70475
1.69058
1.67471
1.65617
1.62916
1.59538
1.56109
1.53101
1.51452
1.50521
1.49907
1.50132
1.50831
1.49913
1.48407
1.46048
1.41476
1.37229
1.36091
1.35441
1.3508
1.3546
1.35394
1.34643
1.33932
1.33174
1.32072
1.30107
1.26758
1.23978
1.23229
1.22787
1.22327
1.21776
1.21164
1.20434
1.18693
3.87104
3.67704
3.48245
3.29523
3.12497
2.95857
2.78969
2.63853
2.50638
2.37672
2.23998
2.12161
2.02739
1.9355
1.84263
1.75087
1.68536
1.61921
1.55382
1.47968
1.43711
1.39994
1.34619
1.29542
1.27003
1.23908
1.19383
1.1611
1.13634
1.10795
1.06916
1.03147
1.02666
1.0763
1.29742
1.60805
1.86291
1.87321
1.8486
1.81807
1.76861
1.711
1.68404
1.67243
1.66047
1.63137
1.61145
1.60173
1.59857
1.60615
1.62367
1.64843
1.67035
1.67103
1.66308
1.66602
1.6695
1.67053
1.67726
1.69376
1.69131
1.67985
1.6634
1.63782
1.60026
1.55992
1.53324
1.51705
1.50347
1.49321
1.48451
1.47944
1.47394
1.46628
1.45598
1.43295
1.39301
1.36299
1.34965
1.34436
1.34331
1.34286
1.33667
1.3303
1.32423
1.31635
1.30331
1.27833
1.2485
1.23283
1.22399
1.21881
1.21265
1.20568
1.19726
1.18121
3.95717
3.76652
3.57297
3.39243
3.22266
3.05394
2.88658
2.74431
2.60861
2.47443
2.33481
2.22597
2.12755
2.03032
1.92647
1.84172
1.77633
1.70534
1.6355
1.56233
1.51716
1.47303
1.41889
1.3686
1.34001
1.30659
1.25848
1.2199
1.1937
1.16659
1.13315
1.13309
1.23559
1.51871
1.86868
2.02968
2.0218
1.97953
1.91726
1.8488
1.7871
1.7469
1.73184
1.72153
1.70461
1.67166
1.62449
1.59533
1.58457
1.57671
1.56698
1.5611
1.55177
1.54458
1.54333
1.5393
1.54615
1.56282
1.58503
1.61028
1.62696
1.63424
1.62719
1.60972
1.58195
1.55217
1.53607
1.52828
1.51821
1.49883
1.47722
1.46498
1.45737
1.45117
1.44464
1.43451
1.41517
1.3829
1.34952
1.33804
1.33409
1.32902
1.32556
1.32209
1.31743
1.31209
1.3008
1.28166
1.25431
1.23038
1.21752
1.2069
1.1992
1.19471
1.18996
1.17901
4.02567
3.838
3.64903
3.47589
3.30984
3.13971
2.97548
2.83574
2.70049
2.56594
2.43206
2.32639
2.21895
2.11857
2.015
1.93977
1.86497
1.78945
1.70936
1.64591
1.60321
1.55314
1.49538
1.43858
1.40704
1.37431
1.32538
1.28295
1.25551
1.22876
1.26698
1.44507
1.79238
2.1023
2.22822
2.20204
2.1087
2.01617
1.95134
1.89806
1.85499
1.83527
1.82192
1.80384
1.77602
1.73454
1.68105
1.63589
1.60513
1.57558
1.55628
1.54559
1.53383
1.52299
1.50636
1.47572
1.45327
1.44805
1.45318
1.46986
1.48126
1.49361
1.51431
1.5238
1.51277
1.49686
1.49431
1.49852
1.49973
1.48471
1.47179
1.46168
1.45485
1.45141
1.44612
1.43921
1.42319
1.39444
1.3638
1.34005
1.32982
1.32301
1.31674
1.31085
1.30565
1.301
1.29756
1.28454
1.25665
1.22635
1.20565
1.19405
1.1883
1.18496
1.1845
1.18091
4.10597
3.91531
3.73926
3.56988
3.40109
3.22838
3.07481
2.93397
2.79845
2.65346
2.53217
2.42639
2.31996
2.21175
2.10871
2.03488
1.95184
1.87508
1.79073
1.73289
1.68273
1.62725
1.56613
1.51538
1.47988
1.44214
1.38494
1.34224
1.33066
1.39306
1.68952
2.0898
2.33724
2.38035
2.34344
2.26676
2.16965
2.08039
2.01385
1.97454
1.95054
1.92825
1.90233
1.86979
1.83
1.78595
1.73842
1.69149
1.65154
1.61733
1.58843
1.56269
1.53975
1.5218
1.50894
1.49211
1.46069
1.43202
1.41812
1.40917
1.40105
1.39902
1.4002
1.39877
1.39808
1.38839
1.38145
1.39102
1.4089
1.43219
1.4431
1.43478
1.41739
1.41245
1.41241
1.40778
1.40043
1.39156
1.37233
1.35116
1.33845
1.32737
1.31081
1.30399
1.29991
1.29166
1.28273
1.27298
1.25682
1.22309
1.19328
1.18394
1.18025
1.1797
1.1872
1.18372
4.19525
4.01353
3.83025
3.66315
3.49701
3.33224
3.17826
3.03064
2.88762
2.75057
2.63796
2.52577
2.41506
2.29555
2.20723
2.13082
2.04713
1.96024
1.86972
1.82047
1.76471
1.70703
1.63982
1.58841
1.54992
1.50567
1.45703
1.45583
1.57727
1.94889
2.36522
2.56091
2.54936
2.49455
2.40878
2.32476
2.24275
2.17479
2.12324
2.07277
2.03011
1.99295
1.95601
1.9203
1.88686
1.8544
1.81987
1.78003
1.73237
1.68396
1.64342
1.60902
1.57881
1.55208
1.53246
1.51491
1.48622
1.44529
1.41586
1.40023
1.38898
1.37763
1.36543
1.35294
1.33838
1.32256
1.3041
1.29416
1.2955
1.30445
1.31932
1.32587
1.33132
1.34108
1.35556
1.35989
1.35313
1.3402
1.33727
1.33363
1.31408
1.30178
1.30148
1.30674
1.30609
1.29513
1.27856
1.26045
1.24014
1.21261
1.19085
1.18273
1.17515
1.17077
1.17038
1.16451
4.2054
4.12939
3.94305
3.7634
3.59334
3.42898
3.28182
3.14041
2.99015
2.84565
2.73269
2.62311
2.51196
2.39008
2.3054
2.22107
2.13579
2.04522
1.96263
1.90745
1.84361
1.78032
1.71051
1.66297
1.62458
1.57358
1.61683
1.86727
2.29413
2.67016
2.77147
2.72428
2.61802
2.53167
2.4576
2.38103
2.32143
2.27656
2.23158
2.18327
2.13181
2.07562
2.01533
1.96171
1.92157
1.89173
1.86587
1.83805
1.80189
1.75703
1.71055
1.66706
1.6272
1.58883
1.55624
1.53475
1.5152
1.4916
1.46213
1.43063
1.40442
1.38114
1.36115
1.34444
1.32671
1.31103
1.29167
1.26057
1.2458
1.24208
1.24167
1.23816
1.23702
1.23982
1.25146
1.26625
1.26622
1.25206
1.23841
1.23917
1.24307
1.24736
1.25735
1.27709
1.2902
1.28846
1.27696
1.25462
1.22783
1.20827
1.19528
1.18649
1.17546
1.16875
1.16812
1.15857
3.87338
4.15213
4.05469
3.86681
3.68962
3.53461
3.3855
3.23806
3.08518
2.95214
2.83857
2.72984
2.60019
2.4812
2.40449
2.32091
2.23456
2.1276
2.05364
1.99374
1.92396
1.85897
1.78255
1.73409
1.71772
1.82595
2.21252
2.75333
2.96636
2.96611
2.89513
2.77611
2.66534
2.5891
2.53031
2.47277
2.42374
2.37972
2.33068
2.27381
2.20933
2.14134
2.07809
2.02462
1.98083
1.94433
1.91229
1.88198
1.85074
1.81625
1.77787
1.73684
1.6983
1.65966
1.61472
1.57631
1.55073
1.52554
1.49512
1.46486
1.44055
1.41759
1.39421
1.36886
1.34321
1.32131
1.29363
1.25782
1.22698
1.21462
1.20935
1.20794
1.21074
1.21033
1.2026
1.19434
1.18487
1.17122
1.14767
1.13522
1.13726
1.14298
1.15602
1.18307
1.21917
1.24022
1.24105
1.23105
1.20674
1.18869
1.17519
1.16907
1.16868
1.17462
1.17423
1.15682
2.64731
3.95182
4.09913
3.98641
3.80121
3.6328
3.4869
3.34453
3.19713
3.05167
2.92848
2.82101
2.70341
2.59036
2.49485
2.40534
2.31578
2.21688
2.1511
2.08105
2.00788
1.93118
1.86188
1.89258
2.10234
2.60001
3.08748
3.29201
3.2365
3.10134
2.96348
2.84951
2.75396
2.67801
2.61668
2.56213
2.51103
2.46151
2.40968
2.35252
2.2872
2.21465
2.14583
2.08926
2.04289
2.00321
1.96772
1.93334
1.89737
1.85929
1.82002
1.77738
1.73514
1.70283
1.67316
1.64093
1.60883
1.57321
1.5267
1.48098
1.45273
1.43584
1.42217
1.40627
1.38816
1.36955
1.34286
1.29297
1.23773
1.21321
1.20277
1.19684
1.19284
1.1891
1.18276
1.17719
1.1707
1.15651
1.12077
1.07744
1.06855
1.06913
1.07242
1.08218
1.10274
1.13104
1.14829
1.15089
1.1447
1.13489
1.13298
1.13301
1.13485
1.14535
1.15946
1.15438
1.61111
2.89173
3.96799
4.04461
3.92678
3.7483
3.59103
3.4443
3.29826
3.15904
3.03776
2.91957
2.79363
2.69066
2.59639
2.503
2.39851
2.29911
2.23936
2.16106
2.09581
2.02745
2.09378
2.51137
3.05326
3.453
3.49153
3.42666
3.29742
3.16413
3.0486
2.94648
2.84207
2.76097
2.69939
2.64364
2.5888
2.53327
2.47641
2.41712
2.35402
2.28808
2.22427
2.16713
2.11587
2.06702
2.01957
1.97633
1.93925
1.90626
1.87349
1.83419
1.78398
1.73938
1.70724
1.68145
1.65923
1.63258
1.5925
1.54572
1.49927
1.45993
1.43987
1.42763
1.4163
1.40361
1.38588
1.35265
1.2969
1.24181
1.21676
1.20455
1.19478
1.18475
1.17594
1.17005
1.16458
1.1553
1.12727
1.08129
1.0491
1.04268
1.03989
1.03872
1.04005
1.04478
1.0505
1.05392
1.05367
1.0524
1.05393
1.05822
1.06986
1.09369
1.12482
1.12585
1.40716
1.72014
3.06889
3.95476
3.99017
3.87388
3.70143
3.54225
3.40621
3.26854
3.1377
3.01038
2.89563
2.79692
2.69633
2.60126
2.47543
2.3894
2.3225
2.25003
2.23239
2.43649
2.98139
3.58081
3.79966
3.7789
3.67258
3.51085
3.36851
3.25502
3.15692
3.06023
2.95858
2.87092
2.79994
2.73359
2.66591
2.5975
2.53163
2.4707
2.41282
2.35546
2.29885
2.24344
2.18921
2.13558
2.08148
2.02852
1.98168
1.94432
1.91484
1.88412
1.8435
1.79806
1.75566
1.71594
1.68164
1.65334
1.62296
1.5851
1.54808
1.51609
1.48578
1.45726
1.43083
1.40739
1.3909
1.37656
1.34607
1.29019
1.24799
1.2294
1.21541
1.20137
1.18712
1.17351
1.15991
1.14615
1.13111
1.09502
1.05063
1.03654
1.0323
1.03055
1.02787
1.02261
1.01605
1.00711
0.992945
0.975205
0.970186
0.973223
0.985098
1.00688
1.04498
1.06973
1.40006
1.41492
1.82694
3.18524
3.92631
3.93697
3.82973
3.65717
3.50573
3.36592
3.24601
3.12448
3.00169
2.88962
2.79035
2.69927
2.57608
2.48265
2.4048
2.4875
2.92666
3.61205
4.0772
4.14206
4.03803
3.8783
3.72174
3.58643
3.47049
3.36994
3.27274
3.16701
3.06194
2.97054
2.89355
2.82384
2.75348
2.67927
2.60177
2.52592
2.46068
2.40621
2.35636
2.30744
2.25771
2.20545
2.15002
2.09375
2.0406
1.99229
1.95046
1.91603
1.88163
1.8442
1.80648
1.769
1.73153
1.69376
1.65058
1.60136
1.56442
1.54017
1.51685
1.49292
1.46931
1.4457
1.42054
1.39094
1.35721
1.31911
1.28116
1.25953
1.24519
1.23078
1.21463
1.19668
1.17694
1.15326
1.12421
1.09138
1.05514
1.04112
1.03679
1.03257
1.02603
1.01879
1.01211
1.0006
0.980102
0.950257
0.931194
0.929853
0.931577
0.937838
0.950232
0.982098
1.40001
1.40015
1.42534
1.92012
3.23863
3.89588
3.89305
3.78016
3.6246
3.47649
3.34554
3.22283
3.10986
2.99924
2.90163
2.77611
2.67229
2.62006
2.83327
3.47326
4.27999
4.52569
4.48984
4.35567
4.13894
3.92942
3.7737
3.6715
3.57805
3.48827
3.39183
3.28415
3.17575
3.07607
2.98518
2.89977
2.81829
2.74049
2.66732
2.59893
2.53423
2.47339
2.4168
2.363
2.30966
2.25578
2.20063
2.14554
2.09487
2.0491
2.00515
1.96381
1.92122
1.87563
1.83552
1.80157
1.76973
1.73528
1.69077
1.63518
1.59232
1.56607
1.5401
1.51324
1.49067
1.47207
1.45246
1.42726
1.38535
1.32742
1.29909
1.28678
1.27408
1.2595
1.24313
1.22492
1.20378
1.17576
1.13743
1.10371
1.08679
1.07457
1.06507
1.05509
1.04377
1.03127
1.01789
1.0015
0.978383
0.950425
0.922341
0.9137
0.910531
0.90883
0.908709
0.915224
1.40001
1.40001
1.40031
1.43725
1.97609
3.27352
3.86376
3.84227
3.73944
3.59098
3.44509
3.33639
3.21353
3.09593
2.99874
2.87346
2.9072
3.32182
4.24789
4.76046
4.91924
4.76234
4.58298
4.41501
4.23637
4.05415
3.91054
3.79947
3.70076
3.60242
3.49612
3.38426
3.27539
3.17405
3.07832
2.98511
2.89443
2.80867
2.72972
2.65952
2.59581
2.53449
2.47725
2.4246
2.37092
2.31128
2.24655
2.1816
2.12431
2.07623
2.03126
1.99078
1.95261
1.91719
1.88333
1.84429
1.79573
1.7469
1.70185
1.6552
1.60782
1.57553
1.5541
1.52975
1.50568
1.48478
1.46397
1.43978
1.40571
1.35588
1.31175
1.29342
1.28165
1.26825
1.25237
1.23458
1.21363
1.18713
1.15583
1.12259
1.08864
1.06712
1.05601
1.04672
1.03635
1.02445
1.01216
0.999432
0.984079
0.957825
0.922928
0.909705
0.905732
0.902541
0.901675
0.900054
1.40001
1.40001
1.40001
1.40054
1.44717
2.00918
3.30708
3.77884
3.8009
3.72552
3.56639
3.43593
3.29858
3.19879
3.09993
3.25115
4.0416
4.99823
5.4552
5.33769
5.15216
4.89483
4.66259
4.48784
4.34167
4.1914
4.05475
3.93679
3.82663
3.71494
3.5985
3.48123
3.36864
3.26217
3.1601
3.06097
2.9663
2.87919
2.79991
2.72687
2.65754
2.58952
2.52497
2.46432
2.40474
2.3445
2.28447
2.23604
2.19353
2.14086
2.08537
2.02939
1.97717
1.92955
1.88724
1.85447
1.82737
1.79181
1.74777
1.6958
1.62543
1.57653
1.56452
1.55742
1.54285
1.52392
1.50386
1.48035
1.44637
1.38864
1.33482
1.31675
1.30573
1.29252
1.27722
1.2611
1.24378
1.2229
1.1933
1.15136
1.10432
1.07512
1.06322
1.05388
1.04325
1.03183
1.02076
1.00806
0.989616
0.964193
0.931714
0.916942
0.912147
0.908044
0.905956
0.896299
1.40001
1.40001
1.40001
1.40001
1.4008
1.45243
2.05807
3.21228
3.76171
3.77785
3.69734
3.54945
3.40301
3.31539
3.69264
4.88307
5.84323
5.83509
5.67486
5.43099
5.2311