/*--------------------------------*- C++ -*----------------------------------*\
  =========                 |
  \\      /  F ield         | OpenFOAM: The Open Source CFD Toolbox
   \\    /   O peration     | Website:  https://openfoam.org
    \\  /    A nd           | Version:  7
     \\/     M anipulation  |
\*---------------------------------------------------------------------------*/
FoamFile
{
    version     2.0;
    format      ascii;
    class       volScalarField;
    location    "3.6";
    object      p;
}
// * * * * * * * * * * * * * * * * * * * * * * * * * * * * * * * * * * * * * //

dimensions      [1 -1 -2 0 0 0 0];

internalField   nonuniform List<scalar> 
4032
(
1
1
1
1
1
1
1
1
1
1
1
1.20956
7.25082
10.61
10.7548
10.9625
11.1498
11.3275
11.4911
11.6374
11.766
11.8682
11.9447
11.9977
1
1
1
1
1
1
1
1
1
1
1
1.17435
7.09265
10.5839
10.7431
10.9426
11.1261
11.3004
11.4612
11.6038
11.7267
11.8206
11.8869
11.9325
1
1
1
1
1
1
1
1
1
1
1
1.06256
6.75605
10.538
10.6898
10.8842
11.0656
11.2358
11.3925
11.5314
11.6526
11.7474
11.8146
11.8657
1
1
1
1
1
1
1
1
1
1
1
1.00265
6.24058
10.4423
10.6124
10.8005
10.9797
11.1443
11.2959
11.4303
11.5462
11.6316
11.6845
11.7207
1
1
1
1
1
1
1
1
1
1
1
1.00001
5.55145
10.2787
10.5169
10.693
10.8668
11.0203
11.1577
11.2725
11.3666
11.4381
11.4842
11.5411
1
1
1
1
1
1
1
1
1
1
1
1
4.713
10.0241
10.407
10.569
10.7289
10.8635
10.981
11.0795
11.1612
11.2235
11.242
11.2061
1
1
1
1
1
1
1
1
1
1
1
1
3.7737
9.62555
10.3018
10.4537
10.5943
10.6997
10.7779
10.8324
10.8524
10.8178
10.7566
10.7175
1
1
1
1
1
1
1
1
1
1
1
1
2.75202
9.0067
10.2236
10.3458
10.4545
10.5272
10.5599
10.5608
10.5143
10.4349
10.3094
10.2982
1
1
1
1
1
1
1
1
1
1
1
1
1.73464
8.11166
10.1883
10.2168
10.3054
10.3434
10.3253
10.2641
10.1179
9.85214
9.0744
7.1921
1
1
1
1
1
1
1
1
1
1
1
1
1.07079
6.83351
10.1238
10.0193
10.0638
10.0849
10.0377
9.91676
9.67688
9.20553
8.40805
6.35016
1
1
1
1
1
1
1
1
1
1
1
1
1.00038
5.11689
9.56104
9.78994
9.85016
9.82234
9.73527
9.55673
9.25502
8.69041
7.85457
5.91097
1
1
1
1
1
1
1
1
1
1
1
1
0.999995
3.24293
8.83909
9.63733
9.65748
9.61996
9.49339
9.25582
8.88744
8.3092
7.39958
5.80642
1
1
1
1
1
1
1
1
1
1
1
1
0.999999
1.65181
7.83348
9.64297
9.49813
9.38314
9.21858
8.94701
8.54043
7.98592
7.06823
5.82515
1
1
1
1
1
1
1
1
1
1
1
1
1
1.04642
6.04612
9.15958
9.1789
9.10788
8.94824
8.67454
8.27862
7.70086
6.86913
5.90297
1
1
1
1
1
1
1
1
1
1
1
1
1
0.999991
3.52089
8.47392
9.07925
8.97065
8.77665
8.46417
8.05927
7.47733
6.75802
5.96542
1
1
1
1
1
1
1
1
1
1
1
1
1
0.999988
1.45005
7.44454
9.13409
8.83046
8.56181
8.22495
7.83214
7.30664
6.69937
6.03249
1
1
1
1
1
1
1
1
1
1
1
1
1
0.999998
1.01867
5.35724
8.60175
8.4692
8.27958
7.99869
7.64778
7.1907
6.66018
6.08288
1
1
1
1
1
1
1
1
1
1
1
1
1
1
0.999914
2.5842
7.83307
8.37892
8.17509
7.89333
7.54569
7.11993
6.63494
6.12709
1
1
1
1
1
1
1
1
1
1
1
1
1
1
0.999977
1.18372
5.90665
8.25806
8.03944
7.77846
7.44644
7.05082
6.61288
6.15711
1
1
1
1
1
1
1
1
1
1
1
1
1
1
0.999996
1.0025
2.97834
7.46784
7.92846
7.6743
7.36279
6.99456
6.60282
6.18666
1
1
1
1
1
1
1
1
1
1
1
1
1
1
1
0.999999
1.27407
5.71126
7.88134
7.61837
7.33751
6.98512
6.61183
6.21371
1
1
1
1
1
1
1
1
1
1
1
1
1
1
1
1
1.00605
2.68973
7.02258
7.57164
7.27914
6.94308
6.5875
6.21508
1
1
1
1
1
1
1
1
1
1
1
1
1
1
1
1
1.00002
1.20642
5.13886
7.55952
7.24578
6.92365
6.585
6.23871
1
1
1
1
1
1
1
1
1
1
1
1
1
1
1
1
1
1.00375
2.22901
6.41704
7.20148
6.89307
6.58304
6.26127
1
1
1
1
1
1
1
1
1
1
1
1
1
1
1
1
1
1.00001
1.10875
4.03558
7.0327
6.91126
6.62338
6.31795
1
1
1
1
1
1
1
1
1
1
1
1
1
1
1
1
1
1
1.00148
1.64665
5.52961
6.91954
6.64171
6.33524
1
1
1
1
1
1
1
1
1
1
1
1
1
1
1
1
1
1
1.00001
1.03308
2.74468
6.16252
6.65332
6.37487
1
1
1
1
1
1
1
1
1
1
1
1
1
1
1
1
1
1
1
1.00033
1.21461
4.079
6.44129
6.43181
1
1
1
1
1
1
1
1
1
1
1
1
1
1
1
1
1
1
1
1
1.00515
1.70915
5.02359
6.37968
1
1
1
1
1
1
1
1
1
1
1
1
1
1
1
1
1
1
1
1
1.00003
1.04079
2.43496
5.55331
1
1
1
1
1
1
1
1
1
1
1
1
1
1
1
1
1
1
1
1
1
1.0005
1.15408
3.27919
1
1
1
1
1
1
1
1
1
1
1
1
1
1
1
1
1
1
1
1
1
1
1.0035
1.39156
1
1
1
1
1
1
1
1
1
1
1
1
1
1
1
1
1
1
1
1
1
1
1.00002
1.01526
1
1
1
1
1
1
1
1
1
1
1
1
1
1
1
1
1
1
1
1
1
1
1
1.00014
1
1
1
1
1
1
1
1
1
1
1
1
1
1
1
1
1
1
1
1
1
1
1
1
1
1
1
1
1
1
1
1
1
1
1
1
1
1
1
1
1
1
1
1
1
1
1
1
1
1
1
1
1
1
1
1
1
1
1
1
1
1
1
1
1
1
1
1
1
1
1
1
1
1
1
1
1
1
1
1
1
1
1
1
1
1
1
1
1
1
1
1
1
1
1
1
1
1
1
1
1
1
1
1
1
1
1
1
1
1
1
1
1
1
1
1
1
1
1
1
1
1
1
1
1
1
1
1
1
1
1
1
1
1
1
1
1
1
1
1
1
1
1
1
1.58156
0.390509
0.22491
0.169203
0.178656
0.236427
0.35864
0.515498
0.676008
0.774765
0.844284
0.929345
1.04366
1.19142
1.29865
1.30614
1.29137
1.26039
1.25502
1.24628
1.27351
1.30589
1.31453
1.31976
1.31751
1.31646
1.32091
1.32816
1.32618
3.57377
5.66343
5.88221
5.95351
5.99501
5.98777
5.94757
5.87802
5.8171
5.78041
5.75899
5.74475
5.70949
5.62537
5.50414
5.38434
5.29017
5.22731
5.18912
5.14966
5.06831
4.9528
4.84022
4.74692
4.68398
4.64512
4.5828
4.48741
4.38513
4.28532
4.20299
4.14277
4.11234
4.08164
4.01927
3.94166
3.84426
3.73694
3.65763
3.6007
3.55828
3.53783
3.51701
3.46739
3.40567
3.3193
3.22636
3.16068
3.11448
3.07743
3.05613
3.03233
2.99187
2.93533
2.84809
2.75897
2.70485
2.67102
2.6447
2.6274
2.60433
2.57046
2.51612
2.44116
2.38386
2.35556
2.31496
2.78789
1.38657
0.938915
0.710171
0.539102
0.489709
0.50558
0.52981
0.530868
0.569244
0.63302
0.708391
0.796313
0.90651
1.04059
1.12412
1.16169
1.17262
1.18999
1.21245
1.26144
1.29804
1.30539
1.30621
1.30783
1.30893
1.31358
1.31742
1.31741
3.26708
5.74648
6.01844
6.02832
6.01148
5.98418
5.96609
5.91869
5.83333
5.7362
5.65198
5.60328
5.59171
5.59036
5.54549
5.43531
5.3085
5.19308
5.10153
5.05102
5.02462
4.96676
4.86359
4.75633
4.6635
4.58125
4.52059
4.46856
4.40226
4.32024
4.23089
4.14913
4.07923
4.0201
3.97531
3.92122
3.85728
3.78779
3.70391
3.62162
3.55986
3.51166
3.46889
3.43295
3.38601
3.33108
3.27019
3.19762
3.12916
3.07879
3.03862
2.99921
2.96557
2.92357
2.86561
2.79956
2.73329
2.67976
2.64307
2.61262
2.58331
2.55308
2.51424
2.46354
2.40843
2.36742
2.31619
3.66239
2.37318
1.67766
1.33796
1.02114
0.75194
0.680147
0.656617
0.624012
0.601968
0.629021
0.687675
0.732497
0.770099
0.847681
0.944049
1.02068
1.08682
1.15125
1.21581
1.2778
1.31212
1.31374
1.31313
1.3208
1.32403
1.32223
1.31374
1.33044
2.76519
6.00881
6.38986
6.08059
5.95046
5.9202
5.92806
5.94988
5.94944
5.85882
5.72187
5.59394
5.51145
5.48735
5.5042
5.49198
5.40655
5.29033
5.15421
5.04067
4.9655
4.92589
4.88434
4.81395
4.72007
4.60623
4.49486
4.41735
4.36153
4.32412
4.27732
4.20755
4.11252
3.99474
3.89886
3.84132
3.80881
3.79001
3.7497
3.69192
3.61179
3.5059
3.41658
3.36073
3.32239
3.30368
3.27914
3.23876
3.18613
3.10984
3.02366
2.96176
2.91453
2.87755
2.85275
2.82154
2.78126
2.72192
2.65093
2.59479
2.55399
2.51696
2.48814
2.46423
2.43445
2.39864
2.32584
4.27669
3.16615
2.33164
1.89995
1.59423
1.27784
0.977132
0.898623
0.891827
0.840147
0.770265
0.733548
0.707936
0.69927
0.710449
0.754776
0.833241
0.930612
1.01731
1.10297
1.17147
1.21792
1.23948
1.26125
1.29818
1.33693
1.33591
1.34788
1.45484
2.27356
5.72762
6.81604
6.33836
5.99144
5.85647
5.83519
5.85691
5.90212
5.84867
5.74628
5.61155
5.48985
5.4273
5.39894
5.39627
5.35681
5.28367
5.19027
5.05787
4.93483
4.85945
4.8075
4.76787
4.70581
4.63037
4.53212
4.41076
4.32703
4.27476
4.2329
4.18117
4.11867
4.03979
3.93773
3.84605
3.79439
3.75712
3.72635
3.68345
3.62317
3.53986
3.44194
3.36027
3.31171
3.28002
3.25592
3.22803
3.19204
3.1363
3.04761
2.94587
2.87946
2.84799
2.82655
2.81085
2.78503
2.74804
2.68507
2.59623
2.52655
2.49187
2.46966
2.45329
2.43741
2.41419
2.34827
4.66926
3.75774
2.97352
2.37696
2.01836
1.7622
1.48454
1.19371
1.08646
1.05087
0.990254
0.886955
0.80857
0.757435
0.732577
0.738701
0.753241
0.786782
0.845606
0.927326
1.00093
1.07405
1.14457
1.18441
1.22314
1.27251
1.30695
1.45022
1.99995
2.55389
4.25598
6.13542
6.43853
6.16465
5.94961
5.78534
5.74863
5.79092
5.80146
5.75598
5.66931
5.53224
5.4195
5.35503
5.31362
5.29358
5.24987
5.18703
5.09776
4.96672
4.84703
4.77781
4.72444
4.67667
4.61868
4.5505
4.45396
4.33418
4.24214
4.18086
4.12655
4.07596
4.02866
3.97477
3.90166
3.81131
3.73763
3.6836
3.63043
3.57426
3.51637
3.45926
3.39984
3.33609
3.28149
3.23929
3.19878
3.1539
3.10214
3.04165
2.97172
2.898
2.84419
2.81516
2.79028
2.76251
2.72689
2.67522
2.60496
2.53711
2.49217
2.46518
2.44448
2.42458
2.40406
2.34378
4.9852
4.17538
3.491
2.91678
2.41037
2.09464
1.89072
1.64654
1.36122
1.24456
1.2081
1.12798
1.01036
0.937284
0.890843
0.83496
0.800209
0.80344
0.81335
0.819594
0.832405
0.872534
0.940727
1.01557
1.08578
1.17519
1.31436
1.84565
2.70931
2.98077
3.28995
4.4628
5.65768
6.11841
6.06599
5.85541
5.72756
5.68959
5.69958
5.70881
5.66265
5.55508
5.39718
5.28748
5.22634
5.19695
5.18524
5.14233
5.07871
4.98347
4.8485
4.74261
4.68319
4.63914
4.59044
4.5318
4.45488
4.33818
4.21438
4.14448
4.09828
4.06392
4.03373
3.99184
3.93138
3.83015
3.71705
3.64215
3.58984
3.54577
3.5073
3.47037
3.42866
3.36967
3.28824
3.21263
3.15608
3.10773
3.06462
3.02654
2.98764
2.93563
2.8659
2.80553
2.76657
2.73087
2.69028
2.64572
2.60339
2.5639
2.52012
2.47325
2.4366
2.40771
2.37957
2.31646
5.20858
4.48333
3.84697
3.3403
2.86306
2.43028
2.16922
1.97151
1.74065
1.52079
1.3863
1.3145
1.21932
1.09928
1.02229
0.973015
0.92628
0.873058
0.845937
0.827665
0.830558
0.831152
0.839245
0.863252
0.905677
1.02786
1.54406
2.3466
2.88086
3.01242
3.01267
3.2296
4.13689
5.34282
5.95185
5.88542
5.75485
5.66262
5.62727
5.63678
5.59822
5.5286
5.40853
5.27547
5.19234
5.14605
5.12965
5.09179
5.03205
4.96409
4.86591
4.74361
4.65786
4.60336
4.55238
4.49579
4.43028
4.34349
4.23382
4.14771
4.10142
4.07029
4.03071
3.97742
3.9135
3.82401
3.70875
3.6155
3.5656
3.52885
3.50035
3.47531
3.43896
3.38646
3.29146
3.17739
3.10913
3.06983
3.03968
3.01465
2.98928
2.95559
2.89446
2.80289
2.73217
2.68841
2.65267
2.62394
2.60094
2.57698
2.54555
2.496
2.43413
2.38201
2.34283
2.28618
5.37034
4.72443
4.1519
3.64676
3.19694
2.80383
2.48377
2.2067
2.01276
1.83642
1.62692
1.48469
1.41166
1.32251
1.18122
1.11307
1.08449
1.02851
0.959791
0.921608
0.900648
0.869421
0.85212
0.862884
0.950017
1.33209
2.03631
2.43502
2.58422
2.64137
2.68099
2.74712
3.00012
3.7927
5.03978
5.69346
5.763
5.66718
5.56598
5.51645
5.4946
5.46029
5.40177
5.32668
5.2283
5.13192
5.05963
5.00576
4.97467
4.92794
4.86728
4.78323
4.66783
4.56949
4.50921
4.45685
4.40498
4.35029
4.28368
4.18976
4.08614
4.01408
3.96179
3.91578
3.86376
3.804
3.72862
3.63854
3.57072
3.53364
3.50625
3.4718
3.42704
3.36635
3.2784
3.17426
3.09801
3.06173
3.04168
3.0231
2.99436
2.95776
2.89742
2.80724
2.71531
2.66067
2.63313
2.61343
2.59897
2.57899
2.55517
2.51417
2.44048
2.3534
2.30746
2.26594
5.4903
4.91098
4.40292
3.91986
3.45942
3.1077
2.79431
2.49349
2.2387
2.07031
1.88692
1.68318
1.56606
1.50085
1.39493
1.25845
1.20224
1.16963
1.10278
1.02861
0.971602
0.928297
0.897757
0.952685
1.28347
1.90037
2.32433
2.33682
2.31008
2.29231
2.31136
2.37297
2.46002
2.66146
3.31868
4.47861
5.37668
5.62006
5.55729
5.45472
5.38483
5.35172
5.36831
5.3545
5.28668
5.16693
5.02867
4.94945
4.89669
4.86835
4.84363
4.78707
4.69932
4.57287
4.48138
4.42794
4.38457
4.34266
4.2874
4.20596
4.08146
3.97075
3.90994
3.86335
3.82187
3.78007
3.73671
3.68382
3.60602
3.51643
3.44592
3.39828
3.35244
3.30142
3.24929
3.19927
3.14209
3.07389
3.01196
2.9657
2.9327
2.89867
2.85932
2.80915
2.74842
2.68549
2.63947
2.61326
2.59249
2.57203
2.54076
2.49504
2.42846
2.34684
2.30396
2.26621
5.59102
5.07583
4.60401
4.13447
3.71458
3.36659
3.03875
2.73261
2.49208
2.27954
2.0898
1.90192
1.75634
1.65617
1.56338
1.44679
1.33689
1.28924
1.24366
1.17042
1.09626
1.05544
1.10994
1.42916
2.00554
2.42054
2.40541
2.36195
2.31554
2.29621
2.29474
2.2742
2.26364
2.26711
2.34038
2.73244
3.69768
4.84549
5.41583
5.37486
5.32572
5.26882
5.31151
5.34075
5.2874
5.19206
5.02853
4.90021
4.84185
4.80274
4.79122
4.75359
4.69185
4.58471
4.46249
4.39719
4.34866
4.3038
4.2524
4.19025
4.09313
3.96386
3.87708
3.82915
3.79241
3.7718
3.74004
3.69048
3.61734
3.51483
3.41548
3.34396
3.2938
3.25597
3.22895
3.20162
3.1608
3.09439
3.00753
2.93898
2.89037
2.85335
2.82555
2.801
2.7699
2.72399
2.66292
2.60634
2.56309
2.52304
2.48315
2.44064
2.39512
2.35502
2.32851
2.28124
5.67097
5.21105
4.76568
4.31252
3.93193
3.59209
3.25903
2.94562
2.71652
2.49324
2.28487
2.09823
1.96288
1.82179
1.69885
1.61073
1.51393
1.41528
1.33971
1.27998
1.23751
1.30713
1.70829
2.30136
2.63681
2.5975
2.52401
2.46762
2.44194
2.42084
2.38544
2.32153
2.26254
2.24173
2.23251
2.24298
2.37062
2.97154
4.04278
4.95455
5.13373
5.19187
5.25056
5.28082
5.23383
5.16494
5.03317
4.86856
4.79173
4.746
4.73099
4.70392
4.65014
4.56967
4.44298
4.35224
4.30122
4.25551
4.20938
4.1589
4.09393
3.99099
3.87343
3.80628
3.76659
3.72635
3.68294
3.63946
3.59206
3.51417
3.40369
3.3154
3.2674
3.23479
3.20485
3.17324
3.14066
3.09487
3.01986
2.93771
2.87987
2.83894
2.8081
2.78332
2.76249
2.73002
2.67113
2.59881
2.53722
2.49094
2.44953
2.40926
2.38444
2.36781
2.35153
2.30722
5.74292
5.32032
4.90125
4.4811
4.11783
3.7848
3.44819
3.16081
2.92127
2.69426
2.46495
2.28358
2.14707
2.00535
1.85266
1.7502
1.66617
1.55423
1.46048
1.41375
1.5063
1.96931
2.69251
2.98838
2.93123
2.78649
2.68319
2.64794
2.62652
2.58381
2.52732
2.45389
2.36527
2.28061
2.23925
2.21694
2.21551
2.24324
2.46865
3.21863
4.24452
4.86647
5.05029
5.17112
5.16656
5.09379
5.00103
4.86171
4.76234
4.70784
4.68121
4.65029
4.59734
4.52875
4.41735
4.30133
4.24123
4.19794
4.16147
4.1216
4.07487
4.00934
3.90463
3.79353
3.72739
3.68078
3.63613
3.59029
3.54167
3.48653
3.41062
3.32445
3.26241
3.22113
3.18406
3.14561
3.10351
3.05953
3.01164
2.95166
2.88766
2.83656
2.79898
2.76358
2.72334
2.68247
2.64314
2.58742
2.52015
2.46843
2.43626
2.41544
2.39857
2.37641
2.3508
2.28272
5.80149
5.40579
5.00537
4.6184
4.27885
3.95242
3.62107
3.35274
3.10807
2.87713
2.6428
2.47278
2.31189
2.16674
2.0127
1.89167
1.78422
1.6867
1.63453
1.75829
2.23297
2.97546
3.30549
3.25304
3.1232
2.96781
2.85605
2.81692
2.78353
2.73381
2.6768
2.60893
2.5132
2.41221
2.3365
2.28584
2.24181
2.21494
2.2009
2.2529
2.61804
3.42826
4.27981
4.83929
4.95467
4.99854
4.94658
4.84585
4.7578
4.68405
4.64459
4.59945
4.54655
4.48509
4.39268
4.26807
4.18246
4.13931
4.10611
4.0784
4.04177
3.99687
3.92615
3.80963
3.69883
3.63522
3.58889
3.54401
3.49904
3.45415
3.40589
3.34365
3.27039
3.20709
3.15713
3.11238
3.07076
3.03304
2.99515
2.94876
2.89068
2.83315
2.78351
2.73805
2.69371
2.64863
2.59936
2.54921
2.5004
2.46481
2.44612
2.42901
2.40771
2.38012
2.3401
2.24946
5.84013
5.47238
5.09784
4.74791
4.42574
4.09649
3.78577
3.53231
3.28715
3.03661
2.81441
2.6493
2.47644
2.31734
2.16676
2.02138
1.91429
1.89776
2.09373
2.65557
3.267
3.56713
3.52003
3.42274
3.32952
3.21936
3.08037
2.98939
2.93453
2.88396
2.82792
2.76534
2.68945
2.58815
2.47236
2.38808
2.33109
2.27541
2.21995
2.19674
2.18594
2.26813
2.68963
3.51682
4.25579
4.68655
4.79926
4.81034
4.74975
4.68083
4.60524
4.53581
4.48571
4.43351
4.36511
4.2702
4.16051
4.08912
4.05069
4.01854
3.98762
3.95116
3.90408
3.82276
3.69914
3.5992
3.54809
3.50966
3.4727
3.43523
3.39324
3.33792
3.26235
3.18742
3.13461
3.09369
3.05546
3.01611
2.97509
2.93264
2.88275
2.82054
2.76231
2.71555
2.67199
2.62539
2.57475
2.52639
2.49891
2.48604
2.46666
2.43961
2.40618
2.36565
2.31604
2.22164
5.89176
5.54474
5.19302
4.86465
4.55168
4.22933
3.94098
3.68868
3.44298
3.18539
2.98724
2.80881
2.63141
2.44981
2.29563
2.16269
2.20468
2.51465
3.27083
3.77934
3.86675
3.7603
3.63636
3.5766
3.53336
3.4546
3.32995
3.16758
3.0719
3.00965
2.94879
2.88492
2.82173
2.74957
2.6475
2.51902
2.43147
2.37227
2.31418
2.25019
2.20398
2.18217
2.15891
2.26791
2.75245
3.54335
4.27818
4.52335
4.67233
4.68258
4.57961
4.47424
4.41209
4.36083
4.31704
4.26479
4.18607
4.08041
3.9984
3.95594
3.91998
3.88451
3.84622
3.79489
3.70822
3.59625
3.52397
3.488
3.45642
3.42093
3.3765
3.31421
3.22777
3.15056
3.10942
3.07903
3.04781
3.01154
2.96603
2.90182
2.81584
2.75404
2.72216
2.69237
2.65933
2.62401
2.58719
2.54811
2.50161
2.44813
2.41364
2.38649
2.35771
2.325
2.2847
2.20835
5.93135
5.59752
5.27313
4.96471
4.65658
4.34538
4.08029
3.83173
3.5805
3.33226
3.14393
2.9497
2.76063
2.58516
2.43501
2.52292
2.9867
3.80361
4.40377
4.36441
4.15731
3.92619
3.80994
3.76995
3.73561
3.65327
3.5359
3.36871
3.22108
3.14468
3.08224
3.01457
2.94639
2.87346
2.78525
2.67179
2.55876
2.47482
2.4099
2.34843
2.28433
2.21473
2.16443
2.11647
2.11373
2.27538
2.84985
3.57744
4.2203
4.44623
4.48135
4.44106
4.34541
4.28794
4.26067
4.22476
4.18262
4.10359
3.98388
3.89792
3.85228
3.81589
3.78134
3.74385
3.69212
3.61005
3.51695
3.46149
3.42867
3.39621
3.35698
3.29828
3.20389
3.10901
3.06925
3.04651
3.02326
2.99637
2.95648
2.88121
2.77815
2.70629
2.67509
2.65437
2.63705
2.62059
2.59878
2.56742
2.50853
2.42823
2.37301
2.34187
2.31254
2.2793
2.24659
2.20449
5.99753
5.67194
5.36167
5.05943
4.75659
4.46576
4.20892
3.96224
3.70562
3.48287
3.28434
3.07451
2.89324
2.76469
2.94072
3.58912
4.30403
4.7588
4.74225
4.56272
4.35669
4.14621
4.03403
3.97429
3.91177
3.8143
3.69817
3.55555
3.39719
3.28394
3.20455
3.12773
3.05004
2.96953
2.88325
2.7862
2.67762
2.57856
2.50094
2.43551
2.37526
2.31249
2.24323
2.17026
2.09814
2.04617
2.06674
2.29939
2.89245
3.58324
4.10121
4.25752
4.24192
4.25076
4.21586
4.17637
4.14381
4.0899
3.99631
3.87692
3.7983
3.75547
3.72218
3.69135
3.65709
3.60566
3.5235
3.43674
3.3839
3.3498
3.317
3.27432
3.20504
3.10511
3.02747
2.99862
2.98255
2.96518
2.93244
2.87269
2.77756
2.68472
2.64706
2.62901
2.6172
2.60661
2.58583
2.55927
2.51052
2.42014
2.33387
2.29314
2.26722
2.24038
2.22519
2.19918
6.02633
5.7204
5.4275
5.13035
4.83334
4.57623
4.32287
4.07592
3.81642
3.61293
3.39679
3.20721
3.16339
3.47453
4.3661
4.94234
5.12922
5.13393
4.96004
4.78032
4.61569
4.42023
4.26413
4.16661
4.07483
3.97129
3.85919
3.73575
3.58624
3.43598
3.32802
3.23614
3.15124
3.06929
2.98686
2.89862
2.79527
2.68243
2.58683
2.51166
2.44558
2.38612
2.32489
2.25466
2.17648
2.0963
2.01565
1.99203
2.0329
2.31608
2.88808
3.55641
3.93743
4.0322
4.09372
4.13341
4.10327
4.04226
3.97557
3.88055
3.77709
3.70529
3.67075
3.64179
3.61131
3.5727
3.51349
3.4291
3.34807
3.29559
3.25944
3.22636
3.18465
3.12008
3.03432
2.9628
2.91945
2.88917
2.86353
2.83546
2.78896
2.71933
2.64804
2.60851
2.58894
2.57816
2.56968
2.54727
2.50471
2.41722
2.31202
2.25822
2.23458
2.22082
2.22346
2.20403
6.06729
5.7796
5.49953
5.2118
4.9356
4.68419
4.43762
4.17402
3.93024
3.73567
3.5364
3.63252
4.17165
5.13665
5.79255
5.64037
5.43309
5.2899
5.17628
5.04471
4.88081
4.67017
4.46643
4.34401
4.24181
4.13498
4.01966
3.89403
3.74245
3.57037
3.44314
3.34569
3.25604
3.16975
3.08362
2.99267
2.89144
2.77875
2.67135
2.58537
2.51257
2.44579
2.3817
2.31807
2.25085
2.17149
2.08879
2.00644
1.96294
1.9517
2.01391
2.31733
2.87602
3.45897
3.80991
3.90583
3.96762
3.99156
3.93504
3.86524
3.78107
3.67541
3.61662
3.58491
3.5533
3.51568
3.47119
3.41294
3.33314
3.25516
3.20223
3.16835
3.13899
3.10047
3.04044
2.96338
2.88932
2.84068
2.81135
2.78778
2.76367
2.72712
2.6676
2.60594
2.56584
2.538
2.5092
2.48004
2.4452
2.39232
2.31324
2.25342
2.22692
2.21456
2.20648
2.18087
6.146
5.86094
5.58316
5.29687
5.04305
4.78178
4.53938
4.25058
4.06239
3.93341
4.18746
4.99437
5.83577
6.34849
6.27616
5.94525
5.63301
5.43929
5.35177
5.26435
5.10399
4.89592
4.6758
4.52662
4.4136
4.29964
4.17517
4.04017
3.88573
3.7103
3.56416
3.45735
3.36273
3.27054
3.17719
3.07879
2.97375
2.86361
2.75762
2.66647
2.58834
2.51758
2.44754
2.37621
2.30349
2.22864
2.15241
2.07328
2.00485
1.94197
1.91955
1.91194
1.99417
2.2885
2.84163
3.30269
3.64151
3.79665
3.85639
3.85271
3.78393
3.69294
3.59997
3.51733
3.47886
3.45316
3.42659
3.38255
3.31801
3.24286
3.17457
3.12145
3.07706
3.03609
2.99718
2.95209
2.88926
2.82259
2.77584
2.74695
2.72292
2.69568
2.65687
2.60466
2.54761
2.4996
2.46168
2.42835
2.39169
2.34966
2.30747
2.26542
2.23132
2.2049
2.18554
2.16988
6.21116
5.9302
5.64088
5.38382
5.1255
4.87094
4.6026
4.38379
4.41964
4.93311
6.05138
6.65965
6.7489
6.68935
6.46202
6.20063
5.91992
5.6879
5.56839
5.46112
5.30719
5.11584
4.89858
4.71534
4.57601
4.4455
4.31036
4.16812
4.01688
3.85415
3.7004
3.5757
3.46854
3.36642
3.26498
3.16085
3.05188
2.9389
2.82918
2.73333
2.6527
2.5824
2.51453
2.44303
2.36431
2.27961
2.19696
2.12516
2.0636
2.00497
1.94943
1.89736
1.8641
1.84518
1.93577
2.23445
2.75322
3.19442
3.54312
3.68741
3.71299
3.69899
3.60977
3.49552
3.43418
3.39445
3.34957
3.31889
3.28824
3.22933
3.1478
3.08062
3.03765
3.00656
2.97879
2.93722
2.87428
2.81042
2.75565
2.71431
2.67918
2.64691
2.61673
2.57972
2.52646
2.4699
2.4226
2.38474
2.35302
2.32511
2.29834
2.26046
2.22534
2.19765
2.18262
2.24584
6.21677
6.01409
5.70725
5.46737
5.17567
4.94929
4.75684
5.01446
5.85953
6.99093
7.67087
7.44636
7.08717
6.82757
6.64236
6.49106
6.26411
6.00031
5.81132
5.66337
5.5047
5.32105
5.10718
4.89596
4.72576
4.5772
4.43414
4.29228
4.1458
3.98627
3.82358
3.68337
3.56674
3.4597
3.35537
3.25
3.13904
3.02086
2.89977
2.79293
2.70741
2.63644
2.57114
2.50395
2.42845
2.33976
2.24235
2.15345
2.09002
2.04469
2.00165
1.94769
1.88806
1.83533
1.77749
1.77255
1.87181
2.21999
2.73235
3.16277
3.4477
3.54923
3.53303
3.47964
3.40597
3.35341
3.31137
3.26367
3.20355
3.14144
3.09046
3.05525
3.02311
2.98343
2.92728
2.8698
2.83048
2.78433
2.72979
2.6859
2.65083
2.61957
2.58354
2.53837
2.49601
2.45223
2.41079
2.37805
2.35286
2.32673
2.29257
2.25983
2.21505
2.22167
2.28007
2.63307
5.74055
6.06257
5.81576
5.50421
5.25924
5.22039
5.81713
7.07237
7.83502
8.21672
8.12016
7.74077
7.32844
7.03994
6.8716
6.74655
6.54881
6.29342
6.06009
5.8634
5.68548
5.50157
5.29578
5.08027
4.88747
4.72012
4.56557
4.41785
4.26883
4.10884
3.93838
3.78026
3.65052
3.5382
3.43259
3.32856
3.21964
3.102
2.97352
2.85325
2.75941
2.68176
2.61108
2.54327
2.47391
2.39404
2.3003
2.20394
2.12254
2.05728
2.00826
1.96761
1.92894
1.88
1.81774
1.76046
1.69488
1.70928
1.83773
2.21624
2.70881
3.20001
3.31867
3.34317
3.32438
3.26953
3.21554
3.16403
3.10335
3.07428
3.06639
3.04569
3.01
2.96089
2.89572
2.81683
2.74572
2.71663
2.70205
2.67865
2.65267
2.62479
2.58901
2.53714
2.46584
2.40241
2.36182
2.34138
2.31893
2.3032
2.27943
2.28582
2.35048
2.54016
2.82781
3.2925
3.98227
5.87092
5.88069
5.56871
5.77265
6.89033
8.43727
8.94635
8.70238
8.55725
8.31942
7.99036
7.63832
7.36866
7.17577
6.98646
6.77784
6.5346
6.28543
6.0589
5.85363
5.65817
5.45885
5.25138
5.04589
4.85809
4.68885
4.53054
4.3749
4.2138
4.04678
3.88348
3.73993
3.61745
3.50426
3.39335
3.27988
3.16195
3.03774
2.91466
2.81861
2.74177
2.66866
2.59346
2.51326
2.42619
2.33357
2.23934
2.15623
2.09096
2.04106
1.99762
1.95225
1.90116
1.84311
1.77453
1.70085
1.64809
1.62285
1.66483
1.83556
2.25243
2.68558
3.07511
3.24284
3.23046
3.17998
3.13934
3.08429
3.04209
3.00706
2.96288
2.91665
2.86819
2.81385
2.75333
2.70334
2.6627
2.62592
2.60037
2.57885
2.55326
2.52241
2.47606
2.41528
2.37395
2.33896
2.31631
2.30045
2.31403
2.39821
2.60453
2.94165
3.30338
3.53308
3.69102
1.74607
4.68046
5.40373
6.19291
8.06139
9.59219
9.96991
9.45851
9.0077
8.74835
8.5437
8.27304
7.93323
7.65308
7.44303
7.21673
6.98824
6.7463
6.48882
6.24682
6.02888
5.82394
5.62008
5.40998
5.19604
4.98921
4.80045
4.63067
4.4709
4.31081
4.1468
3.9831
3.83159
3.70241
3.58578
3.47028
3.34833
3.2196
3.10025
3.00607
2.92273
2.8402
2.76111
2.68284
2.60001
2.50707
2.4088
2.31934
2.24037
2.17117
2.10912
2.05459
2.00786
1.964
1.90982
1.83774
1.74867
1.66774
1.61846
1.59882
1.58706
1.6416
1.85065
2.25492
2.69824
2.97492
3.10323
3.09703
3.07522
3.05472
3.00965
2.95006
2.89177
2.83502
2.77538
2.71224
2.65801
2.6166
2.5862
2.5638
2.54626
2.51885
2.47289
2.41669
2.36892
2.34459
2.32985
2.32821
2.39272
2.61764
2.99872
3.39845
3.62356
3.74653
3.82859
3.84477
1.05011
2.2262
4.47116
9.22836
10.7307
10.6703
10.3354
9.75751
9.32373
9.04559
8.84273
8.56964
8.22469
7.94845
7.70705
7.46421
7.20154
6.93711
6.66741
6.40864
6.17794
5.96371
5.75057
5.53399
5.3146
5.10002
4.89988
4.71791
4.54961
4.38621
4.22389
4.0649
3.91306
3.77617
3.64818
3.52264
3.39666
3.27352
3.15163
3.02742
2.91242
2.80901
2.72134
2.6483
2.58066
2.50755
2.42121
2.33014
2.23888
2.15781
2.08773
2.02107
1.95802
1.91091
1.86987
1.8218
1.76196
1.6972
1.63988
1.60081
1.57151
1.54719
1.55133
1.61841
1.87892
2.29088
2.67251
2.81233
2.92397
2.93851
2.91808
2.89253
2.85795
2.80696
2.74726
2.69116
2.63361
2.5946
2.57494
2.55285
2.51945
2.47089
2.41302
2.37414
2.34686
2.35021
2.4089
2.6324
3.01799
3.46616
3.73434
3.89894
3.95074
3.96193
3.95593
3.89433
1.00073
1.11975
5.40666
12.2
11.7189
10.9265
10.458
10.0051
9.63535
9.35188
9.10007
8.78264
8.41888
8.11847
7.94525
7.73474
7.4694
7.19026
6.91097
6.64474
6.40576
6.1866
5.97071
5.75278
5.53081
5.30916
5.09754
4.90359
4.72615
4.55604
4.38751
4.21996
4.05412
3.89041
3.74525
3.61916
3.50363
3.38199
3.25039
3.11128
2.97168
2.84746
2.74256
2.65885
2.5923
2.53348
2.46906
2.38567
2.29281
2.20363
2.12245
2.05126
1.97631
1.90959
1.86612
1.83667
1.80627
1.76026
1.70747
1.65301
1.60276
1.54934
1.49007
1.45939
1.48534
1.60148
1.89953
2.30807
2.71392
2.76824
2.79467
2.80109
2.7703
2.72919
2.68029
2.62598
2.58625
2.56179
2.53966
2.50867
2.46626
2.43024
2.39562
2.38061
2.4269
2.63919
3.02667
3.50958
3.85649
4.05722
4.09141
4.08774
4.03963
3.99045
3.94952
3.85796
1
1.00983
6.54141
11.8573
11.1926
10.6302
10.3341
10.0281
9.7462
9.52141
9.26895
8.94714
8.60454
8.31676
8.10337
7.8801
7.58951
7.27394
6.97396
6.70309
6.45212
6.22166
5.99901
5.77776
5.55469
5.33126
5.11631
4.91525
4.72861
4.54991
4.3743
4.20134
4.03461
3.88222
3.74138
3.60836
3.4798
3.35275
3.22759
3.10894
2.99946
2.89711
2.80191
2.70571
2.60682
2.50954
2.41868
2.33978
2.26904
2.20243
2.13581
2.0752
2.02141
1.96159
1.88859
1.81828
1.76503
1.72447
1.68806
1.64627
1.60711
1.55983
1.50579
1.45544
1.41326
1.40721
1.45116
1.62185
1.98744
2.3352
2.63683
2.73628
2.73602
2.70021
2.65307
2.59501
2.54713
2.50819
2.47128
2.43785
2.42771
2.42709
2.48027
2.66075
3.04898
3.52284
3.90168
4.17581
4.24544
4.23504
4.176
4.08853
4.00148
3.94005
3.89541
3.82457
1
1.16015
7.18126
11.1582
10.993
10.6876
10.4871
10.2422
10.0075
9.77636
9.47966
9.11519
8.74412
8.43313
8.1904
7.96198
7.69105
7.37478
7.06491
6.80612
6.55971
6.3197
6.0861
5.85746
5.62919
5.4006
5.18318
4.98018
4.78999
4.6073
4.42911
4.25569
4.08791
3.93002
3.78193
3.64294
3.51065
3.38313
3.26588
3.15842
3.05641
2.95227
2.84252
2.72712
2.61245
2.50765
2.41668
2.34529
2.28736
2.23649
2.18394
2.12185
2.0465
1.96352
1.88019
1.81115
1.76206
1.7254
1.69624
1.66568
1.62943
1.57886
1.51582
1.45112
1.40032
1.37474
1.36978
1.38832
1.46946
1.68917
2.04222
2.32003
2.53827
2.62166
2.62625
2.6043
2.57098
2.52648
2.46263
2.45184
2.50564
2.68753
3.06799
3.52233
3.97714
4.18186
4.27661
4.32312
4.30361
4.25064
4.15011
4.03063
3.93886
3.88789
3.86635
3.83155
1
1.30039
7.51853
10.7536
10.7342
10.5951
10.4612
10.2719
10.0636
9.81372
9.51109
9.18128
8.86639
8.59379
8.3516
8.09347
7.79721
7.4821
7.17504
6.90023
6.65798
6.41524
6.17047
5.92898
5.6941
5.45703
5.23435
5.02961
4.83713
4.64921
4.46306
4.28154
4.10802
3.94702
3.79757
3.65943
3.53062
3.40778
3.29038
3.17649
3.0664
2.95674
2.84486
2.73044
2.61772
2.51806
2.43781
2.37299
2.31413
2.25684
2.1955
2.12555
2.04352
1.95492
1.87631
1.81726
1.77531
1.74287
1.71157
1.67353
1.62505
1.5709
1.51651
1.4627
1.42038
1.39291
1.36359
1.34467
1.32899
1.35131
1.45019
1.70962
2.07321
2.29532
2.43435
2.50453
2.54527
2.55969
2.63901
2.82022
3.16204
3.58877
4.01657
4.23341
4.35858
4.39272
4.37588
4.32389
4.25077
4.17069
4.078
3.97276
3.91247
3.89187
3.88166
3.85221
1
1.32932
7.63079
10.6543
10.5942
10.5236
10.4495
10.3039
10.1061
9.85173
9.55862
9.24839
8.94393
8.6538
8.35473
8.04508
7.739
7.44958
7.17792
6.92542
6.68215
6.44082
6.17821
5.91856
5.69152
5.47522
5.26488
5.06305
4.86644
4.67177
4.48175
4.30296
4.13776
3.98591
3.84074
3.69654
3.55032
3.40678
3.27618
3.1601
3.05615
2.95718
2.85871
2.75929
2.65606
2.54733
2.44762
2.36956
2.30428
2.24451
2.18465
2.11917
2.04188
1.95851
1.89355
1.84422
1.79744
1.7516
1.70715
1.66109
1.61045
1.5595
1.51826
1.49001
1.45998
1.42151
1.37716
1.33488
1.30122
1.28229
1.27336
1.31605
1.47194
1.78644
2.15278
2.39216
2.5697
2.88036
3.26623
3.62303
3.92689
4.16841
4.36276
4.43845
4.38843
4.34542
4.31578
4.26551
4.204
4.1355
4.04735
3.97015
3.94135
3.92274
3.91622
3.88375
1
1.34166
7.68192
10.6121
10.5194
10.4708
10.4115
10.2664
10.064
9.82166
9.5618
9.29184
9.01457
8.72606
8.42942
8.12979
7.8291
7.54396
7.27497
7.01058
6.7495
6.48336
6.22484
5.97475
5.74307
5.52169
5.30438
5.09138
4.88293
4.68056
4.48988
4.31661
4.15746
4.00676
3.85621
3.70177
3.54402
3.39189
3.2607
3.15136
3.05876
2.97329
2.88712
2.78823
2.66824
2.54316
2.43677
2.35676
2.29047
2.23085
2.17399
2.11598
2.05261
1.98305
1.91311
1.85025
1.79615
1.74595
1.69669
1.64484
1.59371
1.55808
1.52642
1.48947
1.45287
1.41787
1.37907
1.3315
1.28928
1.25534
1.24195
1.22644
1.24102
1.34849
1.64771
2.20253
2.92792
3.61103
4.15766
4.70302
4.93115
4.90146
4.78695
4.59061
4.38051
4.3099
4.2521
4.19339
4.13855
4.08134
4.00934
3.97011
3.95504
3.94033
3.93749
3.90208
)
;

boundaryField
{
    inlet
    {
        type            fixedValue;
        value           uniform 1;
    }
    outlet
    {
        type            zeroGradient;
    }
    bottom
    {
        type            symmetryPlane;
    }
    top
    {
        type            symmetryPlane;
    }
    obstacle
    {
        type            zeroGradient;
    }
    defaultFaces
    {
        type            empty;
    }
}


// ************************************************************************* //
