/*--------------------------------*- C++ -*----------------------------------*\
  =========                 |
  \\      /  F ield         | OpenFOAM: The Open Source CFD Toolbox
   \\    /   O peration     | Website:  https://openfoam.org
    \\  /    A nd           | Version:  7
     \\/     M anipulation  |
\*---------------------------------------------------------------------------*/
FoamFile
{
    version     2.0;
    format      ascii;
    class       volScalarField;
    location    "3.6";
    object      rho;
}
// * * * * * * * * * * * * * * * * * * * * * * * * * * * * * * * * * * * * * //

dimensions      [1 -3 0 0 0 0 0];

internalField   nonuniform List<scalar> 
4032
(
1.40001
1.40001
1.40001
1.40001
1.40001
1.40001
1.40001
1.40001
1.40001
1.40001
1.40001
1.51905
4.27224
5.45922
5.51327
5.5909
5.66133
5.7275
5.78658
5.83719
5.88019
5.91414
5.94014
5.95877
1.40001
1.40001
1.40001
1.40001
1.40001
1.40001
1.40001
1.40001
1.40001
1.40001
1.40001
1.49847
4.20688
5.44878
5.50918
5.58389
5.65281
5.71765
5.77572
5.8251
5.86619
5.89726
5.91966
5.93569
1.40001
1.40001
1.40001
1.40001
1.40001
1.40001
1.40001
1.40001
1.40001
1.40001
1.40001
1.43794
4.0869
5.43629
5.49091
5.56272
5.63059
5.69392
5.75069
5.79904
5.83977
5.87117
5.89378
5.91165
1.40001
1.40001
1.40001
1.40001
1.40001
1.40001
1.40001
1.40001
1.40001
1.40001
1.40001
1.40206
3.88328
5.40584
5.46377
5.53201
5.59861
5.6599
5.71519
5.76232
5.80155
5.82976
5.84732
5.85996
1.40001
1.40001
1.40001
1.40001
1.40001
1.40001
1.40001
1.40001
1.40001
1.40001
1.40001
1.40002
3.59546
5.34751
5.42882
5.49231
5.55668
5.61391
5.66427
5.70473
5.73653
5.76058
5.77671
5.79758
1.40001
1.40001
1.40001
1.40001
1.40001
1.40001
1.40001
1.40001
1.40001
1.40001
1.40001
1.40001
3.23676
5.2596
5.39176
5.44929
5.50753
5.55697
5.5996
5.63377
5.66106
5.68368
5.69379
5.685
1.40001
1.40001
1.40001
1.40001
1.40001
1.40001
1.40001
1.40001
1.40001
1.40001
1.40001
1.40001
2.82255
5.13515
5.37199
5.41883
5.4651
5.50057
5.52654
5.54358
5.54863
5.53644
5.5188
5.5112
1.40001
1.40001
1.40001
1.40001
1.40001
1.40001
1.40001
1.40001
1.40001
1.40001
1.40001
1.40001
2.3503
4.96158
5.39046
5.40505
5.42963
5.44669
5.45139
5.44691
5.42683
5.39441
5.33795
5.30947
1.40001
1.40001
1.40001
1.40001
1.40001
1.40001
1.40001
1.40001
1.40001
1.40001
1.40001
1.40001
1.85037
4.7097
5.42631
5.39323
5.40221
5.39758
5.37802
5.3466
5.28406
5.17829
4.86167
4.00468
1.40001
1.40001
1.40001
1.40001
1.40001
1.40001
1.40001
1.40001
1.40001
1.40001
1.40001
1.40001
1.457
4.19136
5.39304
5.34206
5.34375
5.32919
5.29241
5.23256
5.12775
4.93582
4.6062
3.71234
1.40001
1.40001
1.40001
1.40001
1.40001
1.40001
1.40001
1.40001
1.40001
1.40001
1.40001
1.40001
1.40032
3.43894
5.16123
5.26024
5.2762
5.25289
5.2031
5.11683
4.98264
4.74571
4.39653
3.56826
1.40001
1.40001
1.40001
1.40001
1.40001
1.40001
1.40001
1.40001
1.40001
1.40001
1.40001
1.40001
1.4
2.61483
4.93563
5.21404
5.21096
5.19078
5.13027
5.02245
4.86059
4.61294
4.22792
3.54676
1.40001
1.40001
1.40001
1.40001
1.40001
1.40001
1.40001
1.40001
1.40001
1.40001
1.40001
1.40001
1.4
1.82977
4.66167
5.24662
5.17398
5.11532
5.03901
4.91967
4.74383
4.50439
4.11092
3.56901
1.40001
1.40001
1.40001
1.40001
1.40001
1.40001
1.40001
1.40001
1.40001
1.40001
1.40001
1.40001
1.4
1.43806
3.89178
5.08194
5.06584
5.02614
4.9496
4.82831
4.65715
4.40866
4.04859
3.62
1.40001
1.40001
1.40001
1.40001
1.40001
1.40001
1.40001
1.40001
1.40001
1.40001
1.40001
1.40001
1.40001
1.39996
2.78257
4.8789
5.05145
4.99691
4.90391
4.76313
4.5858
4.33433
4.02036
3.66605
1.40001
1.40001
1.40001
1.40001
1.40001
1.40001
1.40001
1.40001
1.40001
1.40001
1.40001
1.40001
1.40001
1.39999
1.72579
4.59164
5.11376
4.97425
4.84424
4.68789
4.51103
4.27959
4.01183
3.71267
1.40001
1.40001
1.40001
1.40001
1.40001
1.40001
1.40001
1.40001
1.40001
1.40001
1.40001
1.40001
1.40001
1.4
1.41566
3.64651
4.92802
4.86034
4.76053
4.62202
4.45703
4.24937
4.01162
3.75052
1.40001
1.40001
1.40001
1.40001
1.40001
1.40001
1.40001
1.40001
1.40001
1.40001
1.40001
1.40001
1.40001
1.4
1.3999
2.36271
4.73448
4.85001
4.75277
4.6145
4.44643
4.24622
4.02144
3.78717
1.40001
1.40001
1.40001
1.40001
1.40001
1.40001
1.40001
1.40001
1.40001
1.40001
1.40001
1.40001
1.40001
1.40001
1.39998
1.54606
3.93802
4.83664
4.73046
4.60018
4.43756
4.24736
4.03852
3.82227
1.40001
1.40001
1.40001
1.40001
1.40001
1.40001
1.40001
1.40001
1.40001
1.40001
1.40001
1.40001
1.40001
1.40001
1.4
1.40213
2.59137
4.62966
4.71051
4.58929
4.43653
4.25615
4.06468
3.8623
1.40001
1.40001
1.40001
1.40001
1.40001
1.40001
1.40001
1.40001
1.40001
1.40001
1.40001
1.40001
1.40001
1.40001
1.4
1.4
1.61369
3.90793
4.74029
4.60773
4.46203
4.28555
4.10063
3.90429
1.40001
1.40001
1.40001
1.40001
1.40001
1.40001
1.40001
1.40001
1.40001
1.40001
1.40001
1.40001
1.40001
1.40001
1.40001
1.4
1.40524
2.46836
4.52371
4.62633
4.48022
4.30719
4.12553
3.93732
1.40001
1.40001
1.40001
1.40001
1.40001
1.40001
1.40001
1.40001
1.40001
1.40001
1.40001
1.40001
1.40001
1.40001
1.40001
1.4
1.40002
1.56514
3.68987
4.67322
4.51431
4.34343
4.16497
3.9846
1.40001
1.40001
1.40001
1.40001
1.40001
1.40001
1.40001
1.40001
1.40001
1.40001
1.40001
1.40001
1.40001
1.40001
1.40001
1.40001
1.40001
1.40331
2.22367
4.30175
4.53394
4.37702
4.20983
4.03677
1.40001
1.40001
1.40001
1.40001
1.40001
1.40001
1.40001
1.40001
1.40001
1.40001
1.40001
1.40001
1.40001
1.40001
1.40001
1.40001
1.40001
1.40002
1.49015
3.19079
4.51068
4.43585
4.27638
4.10832
1.40001
1.40001
1.40001
1.40001
1.40001
1.40001
1.40001
1.40001
1.40001
1.40001
1.40001
1.40001
1.40001
1.40001
1.40001
1.40001
1.40001
1.40001
1.40136
1.87358
3.91609
4.47838
4.33267
4.16422
1.40001
1.40001
1.40001
1.40001
1.40001
1.40001
1.40001
1.40001
1.40001
1.40001
1.40001
1.40001
1.40001
1.40001
1.40001
1.40001
1.40001
1.40001
1.40001
1.42872
2.53194
4.23028
4.36969
4.22465
1.40001
1.40001
1.40001
1.40001
1.40001
1.40001
1.40001
1.40001
1.40001
1.40001
1.40001
1.40001
1.40001
1.40001
1.40001
1.40001
1.40001
1.40001
1.40001
1.40032
1.57309
3.24857
4.32637
4.28873
1.40001
1.40001
1.40001
1.40001
1.40001
1.40001
1.40001
1.40001
1.40001
1.40001
1.40001
1.40001
1.40001
1.40001
1.40001
1.40001
1.40001
1.40001
1.40001
1.40001
1.4047
1.91915
3.73845
4.30345
1.40001
1.40001
1.40001
1.40001
1.40001
1.40001
1.40001
1.40001
1.40001
1.40001
1.40001
1.40001
1.40001
1.40001
1.40001
1.40001
1.40001
1.40001
1.40001
1.40001
1.40004
1.43558
2.37786
4.00987
1.40001
1.40001
1.40001
1.40001
1.40001
1.40001
1.40001
1.40001
1.40001
1.40001
1.40001
1.40001
1.40001
1.40001
1.40001
1.40001
1.40001
1.40001
1.40001
1.40001
1.40001
1.40049
1.52825
2.86731
1.40001
1.40001
1.40001
1.40001
1.40001
1.40001
1.40001
1.40001
1.40001
1.40001
1.40001
1.40001
1.40001
1.40001
1.40001
1.40001
1.40001
1.40001
1.40001
1.40001
1.40001
1.40001
1.40328
1.70677
1.40001
1.40001
1.40001
1.40001
1.40001
1.40001
1.40001
1.40001
1.40001
1.40001
1.40001
1.40001
1.40001
1.40001
1.40001
1.40001
1.40001
1.40001
1.40001
1.40001
1.40001
1.40001
1.40003
1.41378
1.40001
1.40001
1.40001
1.40001
1.40001
1.40001
1.40001
1.40001
1.40001
1.40001
1.40001
1.40001
1.40001
1.40001
1.40001
1.40001
1.40001
1.40001
1.40001
1.40001
1.40001
1.40001
1.40001
1.40014
1.40001
1.40001
1.40001
1.40001
1.40001
1.40001
1.40001
1.40001
1.40001
1.40001
1.40001
1.40001
1.40001
1.40001
1.40001
1.40001
1.40001
1.40001
1.40001
1.40001
1.40001
1.40001
1.40001
1.40001
1.40001
1.40001
1.40001
1.40001
1.40001
1.40001
1.40001
1.40001
1.40001
1.40001
1.40001
1.40001
1.40001
1.40001
1.40001
1.40001
1.40001
1.40001
1.40001
1.40001
1.40001
1.40001
1.40001
1.40001
1.40001
1.40001
1.40001
1.40001
1.40001
1.40001
1.40001
1.40001
1.40001
1.40001
1.40001
1.40001
1.40001
1.40001
1.40001
1.40001
1.40001
1.40001
1.40001
1.40001
1.40001
1.40001
1.40001
1.40001
1.40001
1.40001
1.40001
1.40001
1.40001
1.40001
1.40001
1.40001
1.40001
1.40001
1.40001
1.40001
1.40001
1.40001
1.40001
1.40001
1.40001
1.40001
1.40001
1.40001
1.40001
1.40001
1.40001
1.40001
1.40001
1.40001
1.40001
1.40001
1.40001
1.40001
1.40001
1.40001
1.40001
1.40001
1.40001
1.40001
1.40001
1.40001
1.40001
1.40001
1.40001
1.40001
1.40001
1.40001
1.40001
1.40001
1.40001
1.40001
1.40001
1.40001
1.40001
1.40001
1.40001
1.40001
1.40001
1.40001
1.40001
1.40001
1.40001
1.40001
1.40001
1.40001
1.40001
1.40001
1.40001
1.40001
1.40001
1.40001
1.40001
1.40001
1.40001
1.40001
1.30508
0.481246
0.30484
0.220195
0.220163
0.260059
0.352869
0.48412
0.62551
0.713643
0.766172
0.807069
0.855378
0.945967
1.03011
1.04516
1.04124
1.02363
1.02396
1.02539
1.04776
1.07202
1.07743
1.07845
1.07672
1.07761
1.08543
1.09406
1.0934
2.05652
2.79396
2.90343
2.94128
2.96752
2.97793
2.97789
2.96656
2.95697
2.9559
2.95986
2.96649
2.96555
2.9451
2.90855
2.87123
2.84324
2.82686
2.81932
2.81141
2.78669
2.74746
2.70844
2.67638
2.6558
2.64411
2.62278
2.58727
2.54837
2.50985
2.47822
2.45567
2.4454
2.43519
2.41203
2.38229
2.3437
2.29995
2.2677
2.24486
2.22767
2.21948
2.21095
2.18924
2.16174
2.12315
2.08143
2.0524
2.03287
2.01769
2.00969
2.0005
1.98295
1.95687
1.91514
1.87169
1.84513
1.82847
1.81563
1.80752
1.79717
1.78198
1.75681
1.72104
1.69404
1.6811
1.66191
2.00564
1.19724
0.89496
0.727233
0.581027
0.52606
0.539281
0.568366
0.576156
0.608689
0.656186
0.703719
0.756022
0.829592
0.925042
0.983892
1.00574
1.00868
1.01874
1.03514
1.06954
1.09547
1.09924
1.09681
1.0961
1.09761
1.10351
1.10839
1.1087
1.95864
2.86234
3.00114
3.01507
3.02109
3.02469
3.03164
3.0262
3.00464
2.97849
2.95824
2.95187
2.95828
2.96731
2.95891
2.92362
2.88049
2.84179
2.81268
2.7996
2.79523
2.7778
2.74096
2.70147
2.6674
2.63741
2.61596
2.59753
2.57293
2.54147
2.50631
2.47377
2.44622
2.42353
2.40665
2.38531
2.35997
2.33263
2.29851
2.26412
2.2382
2.21806
2.19953
2.18326
2.16185
2.137
2.10987
2.07746
2.04684
2.02484
2.00766
1.9903
1.97528
1.95606
1.92863
1.89678
1.86422
1.83763
1.81962
1.80487
1.79096
1.77706
1.75932
1.73582
1.70994
1.69046
1.66556
2.50788
1.8165
1.40702
1.18971
0.967188
0.769609
0.721554
0.709649
0.686749
0.671274
0.692723
0.737724
0.772906
0.800911
0.857602
0.924866
0.976046
1.0176
1.05708
1.09592
1.13422
1.15657
1.15515
1.15107
1.15337
1.15627
1.15583
1.15104
1.15956
1.84561
3.10514
3.28848
3.17435
3.13538
3.13594
3.1482
3.16385
3.16823
3.13865
3.09228
3.05113
3.02748
3.02507
3.03733
3.03691
3.00651
2.96277
2.91187
2.87009
2.84332
2.83008
2.81528
2.78789
2.75036
2.70452
2.65926
2.62806
2.60588
2.59158
2.57301
2.54406
2.50375
2.45274
2.41044
2.38515
2.37152
2.36466
2.34872
2.32467
2.29022
2.24353
2.2033
2.17766
2.15971
2.15062
2.13903
2.12025
2.09549
2.05955
2.01905
1.98986
1.96731
1.94966
1.93795
1.92314
1.90343
1.87397
1.83845
1.81042
1.78995
1.77157
1.7579
1.74728
1.73385
1.71707
1.68044
2.84015
2.27703
1.81984
1.56341
1.37189
1.16536
0.961203
0.910558
0.908148
0.871612
0.819781
0.794946
0.776076
0.767544
0.775431
0.809446
0.869438
0.941932
1.00405
1.06221
1.10735
1.13738
1.14964
1.16179
1.18461
1.20893
1.20844
1.21435
1.27848
1.73156
3.25785
3.64844
3.46192
3.32937
3.28258
3.27944
3.29034
3.30925
3.28821
3.24791
3.19564
3.15013
3.1289
3.12052
3.12182
3.10687
3.07589
3.03631
2.98083
2.9297
2.89851
2.8768
2.86002
2.83304
2.79956
2.75586
2.70233
2.66546
2.64238
2.62401
2.60116
2.57265
2.53548
2.48747
2.44447
2.41974
2.40176
2.38745
2.36855
2.3422
2.30467
2.25992
2.22239
2.19955
2.18377
2.17075
2.15545
2.13625
2.10756
2.06302
2.01266
1.9797
1.96389
1.95327
1.94549
1.93278
1.91435
1.88221
1.83659
1.80054
1.78233
1.7708
1.76268
1.7552
1.7444
1.71043
3.04042
2.59656
2.18961
1.85941
1.64989
1.4935
1.31784
1.1277
1.05654
1.03215
0.989006
0.91423
0.856192
0.818522
0.799498
0.804023
0.815236
0.841538
0.888111
0.949924
1.00339
1.05527
1.10478
1.1327
1.15958
1.19245
1.21438
1.30436
1.62639
1.92516
2.75392
3.54776
3.64924
3.53333
3.44729
3.3823
3.36762
3.38428
3.38787
3.36843
3.33244
3.27604
3.23031
3.20457
3.18768
3.17882
3.15855
3.12938
3.08903
3.03123
2.97888
2.94838
2.92441
2.90227
2.87478
2.84227
2.79704
2.74178
2.6992
2.67054
2.64491
2.62058
2.59734
2.57038
2.53367
2.48868
2.4519
2.42507
2.39955
2.37343
2.34705
2.32105
2.29333
2.26261
2.2352
2.2128
2.19026
2.16495
2.13609
2.10306
2.06554
2.02698
1.99917
1.98419
1.97156
1.95751
1.93927
1.91246
1.8753
1.8388
1.81413
1.79891
1.7873
1.77656
1.76604
1.73405
3.19954
2.81291
2.46988
2.16729
1.88841
1.70634
1.58333
1.43164
1.249
1.17263
1.14797
1.09227
1.00912
0.95818
0.925678
0.883359
0.856407
0.859066
0.867591
0.872767
0.882839
0.913212
0.964136
1.01913
1.07067
1.13373
1.22626
1.54828
2.01819
2.15748
2.31614
2.87411
3.39727
3.58735
3.56348
3.47403
3.42007
3.40323
3.407
3.41128
3.39314
3.34903
3.28178
3.23451
3.20713
3.19293
3.18639
3.16621
3.13736
3.09464
3.0343
2.9868
2.95952
2.93894
2.91591
2.88796
2.85119
2.79601
2.73753
2.70389
2.68158
2.66463
2.64958
2.62875
2.59847
2.54803
2.49176
2.45385
2.42745
2.40584
2.38763
2.37063
2.35139
2.32313
2.28261
2.24358
2.21285
2.18554
2.1603
2.13734
2.11415
2.08494
2.04779
2.01627
1.996
1.97758
1.95662
1.93312
1.91
1.88773
1.86284
1.8362
1.81523
1.79878
1.7832
1.74889
3.31797
2.97375
2.65993
2.40002
2.14684
1.90782
1.75693
1.63921
1.49841
1.36003
1.27298
1.225
1.16039
1.07816
1.02492
0.989505
0.954555
0.91485
0.895015
0.882267
0.884783
0.885172
0.89109
0.909348
0.940986
1.028
1.35971
1.82244
2.11025
2.17554
2.17954
2.29451
2.73739
3.28595
3.54893
3.51928
3.46117
3.42098
3.40562
3.4105
3.39539
3.3671
3.3158
3.25711
3.22004
3.19866
3.19025
3.1723
3.14503
3.11479
3.0709
3.01558
2.97654
2.95117
2.92739
2.90101
2.87023
2.82901
2.77662
2.73516
2.71266
2.69753
2.67847
2.65279
2.62171
2.57767
2.52035
2.47334
2.44754
2.42879
2.41453
2.40266
2.38583
2.3612
2.31461
2.25657
2.21991
2.19736
2.17915
2.16316
2.14703
2.12697
2.09345
2.04511
2.00801
1.98475
1.96591
1.95073
1.93808
1.92431
1.90604
1.87762
1.84257
1.81305
1.79077
1.7594
3.40797
3.1022
2.82221
2.56749
2.33358
2.122
1.94366
1.78511
1.67058
1.56296
1.43255
1.34239
1.29494
1.2354
1.1394
1.09278
1.07276
1.03256
0.982633
0.955563
0.940679
0.917152
0.903827
0.911981
0.975477
1.22914
1.64628
1.87243
1.95897
1.99235
2.0179
2.05907
2.19699
2.59337
3.16764
3.45402
3.48259
3.44055
3.39543
3.37419
3.36528
3.35113
3.32632
3.29355
3.24974
3.20651
3.17393
3.1492
3.13469
3.11355
3.08652
3.04873
2.99601
2.9508
2.92297
2.8986
2.87449
2.84897
2.81751
2.7728
2.72305
2.68823
2.66315
2.64105
2.61595
2.58695
2.54971
2.50478
2.47028
2.45113
2.43722
2.42032
2.39871
2.36937
2.32597
2.27308
2.23306
2.21276
2.20029
2.18846
2.17124
2.14995
2.11664
2.06823
2.01922
1.99012
1.97548
1.96501
1.95701
1.94559
1.93176
1.90846
1.86719
1.81824
1.79194
1.7688
3.47749
3.20387
2.95697
2.71619
2.48041
2.29395
2.12358
1.95566
1.80943
1.70926
1.59883
1.47327
1.39928
1.35689
1.28707
1.19587
1.15801
1.13553
1.08839
1.03572
0.995046
0.963596
0.940528
0.979134
1.20032
1.57325
1.81795
1.82752
1.81726
1.81382
1.82761
1.86611
1.91853
2.03166
2.36961
2.92008
3.319
3.43007
3.40218
3.35577
3.3245
3.31093
3.31904
3.31393
3.28457
3.23097
3.16876
3.13321
3.10954
3.09668
3.08565
3.06043
3.02065
2.96263
2.92048
2.89572
2.87563
2.85632
2.83074
2.79246
2.73288
2.67945
2.64963
2.62706
2.60722
2.58735
2.56667
2.54083
2.50214
2.45683
2.4211
2.39706
2.3741
2.34866
2.32257
2.29734
2.26806
2.23207
2.19835
2.1723
2.1531
2.13348
2.11139
2.08393
2.05091
2.01739
1.99287
1.97873
1.96738
1.956
1.93841
1.9127
1.87524
1.82889
1.80439
1.78354
3.53828
3.2943
3.06618
2.83429
2.62121
2.43944
2.26413
2.09649
1.96082
1.83806
1.72665
1.61368
1.52371
1.46044
1.40112
1.32529
1.25282
1.22103
1.18999
1.13918
1.08715
1.05813
1.09459
1.301
1.64541
1.87949
1.87276
1.85192
1.83268
1.82714
1.8269
1.81703
1.81736
1.82322
1.86777
2.07918
2.55843
3.09001
3.34787
3.32901
3.30587
3.28089
3.30091
3.31491
3.29275
3.25171
3.17846
3.12039
3.0939
3.07636
3.07165
3.05497
3.02754
2.97857
2.92181
2.89163
2.86926
2.8484
2.82434
2.79514
2.74866
2.68627
2.64386
2.62021
2.60247
2.59296
2.57817
2.55453
2.51883
2.46758
2.41707
2.37999
2.3539
2.3345
2.32095
2.30742
2.28685
2.25219
2.20574
2.16825
2.14103
2.12007
2.10427
2.09053
2.07381
2.04948
2.01676
1.98609
1.96277
1.94106
1.91894
1.89468
1.86822
1.84504
1.82987
1.80274
3.59255
3.37274
3.15687
2.93364
2.74138
2.56577
2.39017
2.22121
2.09388
1.96762
1.8475
1.73745
1.65526
1.5685
1.492
1.43601
1.37339
1.30878
1.25865
1.21835
1.18851
1.2324
1.47652
1.81936
2.00609
1.98574
1.94758
1.92039
1.91121
1.90407
1.88865
1.85601
1.82393
1.81514
1.81529
1.8267
1.90005
2.21187
2.73702
3.1587
3.2373
3.26166
3.2886
3.3026
3.28234
3.25328
3.1952
3.1207
3.08559
3.06463
3.05806
3.04627
3.02209
2.98533
2.92626
2.88356
2.85965
2.83814
2.8163
2.79219
2.76089
2.71065
2.65315
2.62002
2.60044
2.58096
2.56006
2.53911
2.51612
2.47736
2.42111
2.37525
2.34988
2.33255
2.3169
2.30059
2.28393
2.26029
2.2204
2.17606
2.14414
2.12113
2.10357
2.08957
2.07838
2.06143
2.0301
1.99112
1.95772
1.9323
1.909
1.8859
1.87122
1.86127
1.85165
1.82523
3.64752
3.44336
3.23786
3.02941
2.84587
2.67476
2.499
2.34541
2.21425
2.08784
1.9579
1.8525
1.77112
1.6858
1.59261
1.52887
1.47552
1.40363
1.34266
1.31089
1.36794
1.6394
2.03971
2.20291
2.1744
2.0986
2.04557
2.03096
2.02338
2.00409
1.977
1.93998
1.89339
1.84894
1.82803
1.81816
1.82257
1.84317
1.96994
2.35762
2.85775
3.14465
3.22955
3.28134
3.27835
3.24412
3.2031
3.14
3.09382
3.06824
3.05595
3.04204
3.01774
2.98568
2.93316
2.87798
2.84873
2.82752
2.80963
2.78994
2.76688
2.73453
2.68255
2.62745
2.59434
2.57096
2.5489
2.5264
2.50242
2.47455
2.43538
2.39059
2.35787
2.33585
2.31614
2.2959
2.27384
2.25052
2.22493
2.19221
2.15701
2.12869
2.10772
2.08811
2.066
2.0437
2.02266
1.99299
1.95648
1.92763
1.90917
1.89698
1.88713
1.87381
1.85846
1.81853
3.70096
3.50507
3.30725
3.11346
2.94062
2.77267
2.60003
2.45702
2.32438
2.19719
2.06599
1.96822
1.87428
1.78845
1.69603
1.62183
1.55471
1.49315
1.45823
1.53207
1.80211
2.19591
2.37494
2.35159
2.28716
2.20692
2.15141
2.13505
2.12103
2.09791
2.07066
2.03749
1.98868
1.93625
1.89678
1.8713
1.85004
1.83768
1.83569
1.8684
2.06924
2.48815
2.9075
3.17264
3.22105
3.23489
3.21011
3.16296
3.12157
3.08579
3.06684
3.04577
3.0208
2.99106
2.94605
2.88558
2.84363
2.82164
2.80423
2.78943
2.77022
2.74712
2.71144
2.65279
2.59697
2.56439
2.54056
2.51772
2.49482
2.47179
2.44681
2.41422
2.37533
2.34135
2.31443
2.29034
2.26786
2.24725
2.22627
2.20067
2.16875
2.13703
2.10951
2.08417
2.05949
2.03465
2.00791
1.98059
1.95382
1.93406
1.92342
1.91352
1.901
1.88473
1.86125
1.80778
3.74836
3.56237
3.37341
3.19593
3.03086
2.86087
2.69817
2.56275
2.43036
2.29352
2.16999
2.07596
1.97654
1.88365
1.79436
1.70607
1.64158
1.6273
1.73895
2.04813
2.36149
2.51726
2.4972
2.45234
2.40764
2.35332
2.2849
2.24199
2.21696
2.19367
2.16751
2.13798
2.10102
2.0493
1.98848
1.94473
1.91617
1.88798
1.85978
1.84883
1.84721
1.89622
2.12933
2.5645
2.93233
3.13505
3.18334
3.18383
3.15365
3.12015
3.083
3.0489
3.02434
2.99824
2.96332
2.9151
2.86038
2.8244
2.80381
2.78582
2.7682
2.74796
2.72282
2.6807
2.61728
2.56561
2.53842
2.5179
2.49831
2.47858
2.45647
2.42715
2.38671
2.34614
2.31723
2.2945
2.27305
2.25092
2.22789
2.20408
2.17633
2.14187
2.10928
2.08274
2.05799
2.03182
2.00364
1.97673
1.96162
1.95494
1.94448
1.92916
1.90977
1.886
1.85632
1.79933
3.80536
3.62654
3.44551
3.27635
3.11446
2.94628
2.79373
2.65855
2.52589
2.3856
2.27535
2.1746
2.07325
1.96844
1.87732
1.79694
1.82017
1.9877
2.3818
2.63634
2.6833
2.63222
2.57324
2.54679
2.52843
2.49234
2.43291
2.35318
2.30729
2.27815
2.24962
2.21961
2.18999
2.15516
2.10308
2.03504
1.98958
1.95986
1.93024
1.89623
1.87268
1.86247
1.85292
1.91767
2.18875
2.60847
2.97701
3.09228
3.15874
3.16261
3.11085
3.05708
3.02493
2.9986
2.97507
2.94675
2.9052
2.85101
2.80868
2.78521
2.76442
2.74354
2.72124
2.69273
2.64638
2.58711
2.54824
2.52825
2.51081
2.49135
2.46708
2.43327
2.38656
2.34393
2.32038
2.30285
2.28492
2.26415
2.23843
2.20247
2.15411
2.11856
2.09959
2.08194
2.06249
2.04194
2.02084
1.99881
1.97282
1.94303
1.92434
1.90932
1.89257
1.87255
1.84727
1.79976
3.86131
3.68528
3.51451
3.35198
3.1898
3.02597
2.88428
2.75047
2.61437
2.47844
2.37307
2.2637
2.15613
2.05517
1.96542
2.01228
2.25706
2.66529
2.95678
2.94184
2.84735
2.73683
2.68128
2.66458
2.65129
2.61453
2.55981
2.4784
2.40587
2.36997
2.34108
2.30929
2.27713
2.24207
2.19801
2.13908
2.07953
2.03587
2.00257
1.9707
1.93658
1.89819
1.87096
1.84347
1.84814
1.945
2.26884
2.65744
2.98151
3.09413
3.10593
3.08307
3.03108
2.99959
2.98413
2.96396
2.94027
2.89767
2.83492
2.78921
2.76314
2.74135
2.72024
2.69759
2.66783
2.62265
2.57187
2.54061
2.52134
2.50237
2.47974
2.44662
2.39447
2.34166
2.31795
2.30392
2.28996
2.2741
2.25101
2.20805
2.1491
2.10699
2.0877
2.07479
2.06404
2.0538
2.04069
2.0224
1.98878
1.9433
1.91204
1.89435
1.87704
1.85658
1.83554
1.80742
3.93402
3.75862
3.5919
3.42962
3.26712
3.11132
2.97304
2.83928
2.69901
2.57531
2.46408
2.34578
2.24267
2.16521
2.25605
2.5875
2.93103
3.14712
3.14239
3.06212
2.96835
2.86972
2.81761
2.79149
2.76445
2.72011
2.66607
2.59791
2.52054
2.46572
2.42812
2.3916
2.35435
2.31513
2.27213
2.22245
2.16568
2.11363
2.07314
2.03917
2.00778
1.97429
1.93594
1.89468
1.85079
1.82392
1.83928
1.98006
2.31778
2.69161
2.95897
3.03621
3.02268
3.02051
3.00021
2.97691
2.95831
2.92845
2.87749
2.81321
2.76978
2.74441
2.72378
2.70428
2.683
2.65289
2.60659
2.55749
2.52604
2.50477
2.48439
2.45871
2.41857
2.36219
2.31755
2.29918
2.2881
2.27683
2.25705
2.22163
2.16621
2.11184
2.08837
2.07651
2.06838
2.06088
2.04777
2.03175
2.00332
1.95126
1.90142
1.87751
1.86195
1.84531
1.83465
1.81591
3.99289
3.82375
3.66217
3.49921
3.33694
3.19541
3.05659
2.92115
2.77824
2.66411
2.54222
2.43714
2.401
2.55582
2.99154
3.26106
3.34898
3.35617
3.2772
3.19518
3.12069
3.03064
2.9588
2.915
2.87382
2.82657
2.77462
2.71642
2.64401
2.57004
2.51743
2.47281
2.43178
2.39221
2.35195
2.30766
2.25369
2.19328
2.142
2.10202
2.06701
2.03569
2.00295
1.96445
1.91872
1.87136
1.81991
1.81285
1.83985
2.01149
2.34058
2.70771
2.90906
2.95365
2.97895
2.99339
2.97608
2.94151
2.90432
2.85167
2.79462
2.75344
2.73127
2.71237
2.69295
2.6695
2.63486
2.5858
2.53764
2.50481
2.48125
2.45997
2.43445
2.39621
2.34577
2.30324
2.27657
2.25712
2.24016
2.22194
2.19297
2.15044
2.10776
2.08321
2.0699
2.06171
2.055
2.04037
2.01465
1.96341
1.90167
1.86926
1.8544
1.8449
1.84523
1.83142
4.05686
3.89588
3.7384
3.57741
3.42321
3.28241
3.14444
2.99804
2.86149
2.7512
2.63395
2.68008
2.93964
3.38906
3.68608
3.61853
3.5284
3.46625
3.41574
3.3558
3.28019
3.18273
3.08881
3.03377
2.98791
2.93923
2.88566
2.8261
2.75215
2.6665
2.60377
2.55628
2.51274
2.47088
2.42875
2.38317
2.33071
2.27055
2.21248
2.16614
2.12694
2.09095
2.05628
2.02127
1.98322
1.93693
1.88664
1.83565
1.809
1.80817
1.84753
2.03154
2.35767
2.68255
2.86814
2.9189
2.94625
2.95099
2.91874
2.87987
2.83335
2.77312
2.73678
2.71591
2.69571
2.67254
2.6455
2.60999
2.56112
2.51301
2.47918
2.45675
2.43748
2.41315
2.37597
2.32906
2.28447
2.25364
2.23395
2.21774
2.20129
2.17779
2.14085
2.10251
2.07673
2.05815
2.03886
2.01937
1.99679
1.96421
1.91629
1.8798
1.86296
1.85439
1.84838
1.83036
4.13275
3.9747
3.81884
3.65816
3.51424
3.3668
3.22942
3.06744
2.95736
2.87467
2.9946
3.37726
3.75456
3.9836
3.95342
3.80567
3.66132
3.57203
3.53467
3.49708
3.42413
3.32768
3.22574
3.15809
3.10664
3.05388
2.99532
2.93092
2.85579
2.76841
2.69547
2.64286
2.59673
2.5519
2.50605
2.45656
2.4022
2.34366
2.28636
2.2368
2.1941
2.15523
2.11633
2.07603
2.03427
1.99028
1.94429
1.89536
1.85236
1.81235
1.79866
1.79754
1.84973
2.02925
2.35609
2.6213
2.80681
2.88682
2.91064
2.90723
2.86771
2.81528
2.76091
2.71225
2.68804
2.67075
2.65265
2.62409
2.58331
2.53642
2.49385
2.46014
2.43141
2.4046
2.37898
2.3497
2.30986
2.26827
2.23852
2.21897
2.20216
2.18357
2.1581
2.12447
2.08819
2.05737
2.03223
2.00956
1.98483
1.95718
1.93007
1.90334
1.88169
1.86454
1.8531
1.83854
4.20658
4.04914
3.88626
3.73964
3.59282
3.44774
3.29639
3.16211
3.17228
3.40619
3.91232
4.17563
4.21386
4.18952
4.08866
3.97042
3.83892
3.731
3.6794
3.63293
3.56319
3.47473
3.37332
3.28774
3.22285
3.16158
3.09756
3.02954
2.95605
2.87525
2.79846
2.73698
2.68464
2.63455
2.58401
2.53084
2.47367
2.41287
2.35256
2.29934
2.2543
2.2149
2.17653
2.13551
2.08937
2.03827
1.9873
1.9423
1.90357
1.86585
1.83039
1.79703
1.77467
1.763
1.82067
2.00642
2.32191
2.57889
2.77418
2.84871
2.85547
2.84674
2.79434
2.72727
2.69006
2.665
2.6364
2.61536
2.59439
2.55709
2.50684
2.46447
2.43602
2.41457
2.3951
2.36707
2.32652
2.28622
2.25163
2.22512
2.20196
2.1798
2.15844
2.13286
2.09784
2.06136
2.03029
2.00469
1.98262
1.96275
1.94406
1.91931
1.89713
1.8799
1.86658
1.89757
4.24621
4.13264
3.96094
3.8216
3.65531
3.52589
3.39919
3.51486
3.90421
4.40156
4.68521
4.5851
4.42667
4.30784
4.22395
4.15448
4.04982
3.92873
3.84321
3.77656
3.70393
3.61872
3.51806
3.41781
3.3373
3.26687
3.19859
3.13037
3.05909
2.98025
2.89913
2.82942
2.77159
2.71801
2.66475
2.60951
2.54971
2.48446
2.41614
2.35519
2.30616
2.26536
2.22769
2.18873
2.14433
2.09041
2.02897
1.97131
1.92984
1.90025
1.8726
1.83761
1.7991
1.76377
1.72298
1.71877
1.78321
2.00454
2.31914
2.57147
2.73169
2.78272
2.77156
2.73817
2.69385
2.66189
2.6354
2.60533
2.56758
2.52794
2.49477
2.47137
2.45005
2.42419
2.38858
2.35146
2.32441
2.29394
2.25913
2.23105
2.20782
2.18621
2.16101
2.1296
2.09999
2.06986
2.04166
2.0194
2.00232
1.98476
1.96219
1.9405
1.90924
1.91127
1.94194
2.13786
4.10103
4.188
4.0534
3.87954
3.73765
3.69334
3.95846
4.51767
4.84391
5.00084
4.96089
4.79142
4.60133
4.46811
4.39049
4.33212
4.24107
4.12353
4.01583
3.92474
3.84184
3.7554
3.65785
3.55504
3.46274
3.38235
3.30767
3.23583
3.16278
3.08321
2.99687
2.91571
2.8489
2.79054
2.73474
2.67855
2.61822
2.55192
2.47825
2.40785
2.3527
2.307
2.26517
2.22494
2.18345
2.13444
2.07481
2.01182
1.95769
1.91366
1.88044
1.8528
1.82726
1.79462
1.75252
1.71452
1.66704
1.67484
1.75763
2.00002
2.30225
2.58837
2.65696
2.66821
2.65653
2.62332
2.58998
2.55719
2.51907
2.49996
2.49441
2.48158
2.45935
2.42847
2.38806
2.33958
2.29488
2.27406
2.26267
2.24598
2.22762
2.2078
2.18276
2.14773
2.1005
2.0581
2.03049
2.01642
2.00211
1.99126
1.97449
1.97497
2.00774
2.11494
2.28004
2.53396
3.26091
4.15671
4.12339
3.94261
4.03007
4.54158
5.22392
5.41565
5.30746
5.23896
5.12829
4.97811
4.81424
4.68835
4.59903
4.51068
4.41233
4.29761
4.18
4.07257
3.97475
3.88135
3.78591
3.68617
3.5868
3.49546
3.4125
3.33402
3.25578
3.17343
3.08634
2.99999
2.92322
2.85716
2.79541
2.73386
2.66951
2.60165
2.5302
2.45818
2.40037
2.35372
2.30938
2.26354
2.21389
2.15887
2.099
2.03665
1.98025
1.93475
1.89911
1.86785
1.83645
1.80306
1.76587
1.72046
1.66838
1.62996
1.60816
1.63479
1.74501
2.00951
2.27547
2.50179
2.59487
2.58756
2.55862
2.53534
2.5039
2.48114
2.46347
2.43893
2.41138
2.38218
2.34958
2.31277
2.28201
2.25665
2.23248
2.214
2.19788
2.17954
2.15813
2.12704
2.08701
2.05948
2.03638
2.02124
2.00895
2.01583
2.06282
2.18125
2.37346
2.57582
2.70202
2.78772
1.9549
3.63293
3.93743
4.29501
5.14988
5.82952
5.9661
5.74315
5.52622
5.39742
5.29844
5.17121
5.01317
4.88395
4.78536
4.67806
4.56805
4.45085
4.32674
4.21048
4.10558
4.00666
3.90804
3.80593
3.70114
3.59879
3.50428
3.41802
3.33515
3.25078
3.16348
3.07494
2.99132
2.91866
2.85185
2.78476
2.71339
2.63736
2.56584
2.50841
2.45744
2.40732
2.35891
2.31012
2.25749
2.19773
2.13417
2.07575
2.02337
1.97675
1.93422
1.89635
1.86434
1.83512
1.7992
1.75103
1.69087
1.63463
1.5983
1.58094
1.56754
1.60105
1.73588
1.98889
2.25271
2.41261
2.48707
2.48819
2.48172
2.47477
2.45234
2.41893
2.38622
2.3565
2.3254
2.28998
2.25778
2.23183
2.21198
2.19709
2.18529
2.16773
2.13855
2.10203
2.07134
2.05573
2.04576
2.04213
2.07794
2.21027
2.43165
2.65749
2.78165
2.84736
2.88818
2.89203
1.44427
2.26181
3.54628
5.74602
6.32082
6.28235
6.13364
5.88637
5.68788
5.55473
5.45871
5.33374
5.17682
5.05035
4.94001
4.82794
4.70431
4.57792
4.44863
4.32417
4.21249
4.1084
4.00463
3.89861
3.79
3.68212
3.57987
3.48528
3.39589
3.30703
3.21677
3.12633
3.0382
2.95694
2.87969
2.80342
2.727
2.65219
2.57759
2.50203
2.43273
2.36959
2.31442
2.26724
2.22275
2.17472
2.11938
2.06206
2.00437
1.9523
1.90637
1.86157
1.81797
1.78471
1.75609
1.72286
1.68266
1.63915
1.59834
1.56884
1.54598
1.52223
1.52017
1.55946
1.72345
1.97485
2.20312
2.2888
2.36571
2.38219
2.37495
2.36473
2.35072
2.32783
2.29778
2.26737
2.2343
2.21124
2.19983
2.18705
2.16792
2.13902
2.10362
2.07952
2.06202
2.06343
2.09832
2.23155
2.45665
2.7132
2.86001
2.94699
2.96978
2.96717
2.96207
2.92341
1.40071
1.50137
3.84009
6.6463
6.46956
6.18067
6.03051
5.87204
5.73642
5.62495
5.52036
5.38523
5.22721
5.09451
5.02053
4.92883
4.80981
4.68123
4.54996
4.42316
4.3084
4.20276
4.09838
3.9923
3.8829
3.77184
3.6638
3.56252
3.46732
3.37302
3.27656
3.1787
3.08074
2.98323
2.89547
2.81845
2.74809
2.67506
2.59698
2.51536
2.43317
2.35846
2.29408
2.24177
2.19958
2.16228
2.12182
2.06999
2.01202
1.95567
1.90408
1.85852
1.80922
1.76448
1.73543
1.71562
1.69485
1.66328
1.62591
1.58669
1.54936
1.50794
1.4615
1.43204
1.4465
1.51994
1.70944
1.9578
2.19895
2.24333
2.27114
2.28797
2.27798
2.2607
2.23806
2.21085
2.19101
2.17921
2.1682
2.15079
2.12637
2.10532
2.08462
2.07854
2.10706
2.23415
2.46106
2.73742
2.92444
3.03625
3.04188
3.03503
3.0045
2.97276
2.94756
2.89379
1.40001
1.40752
4.07238
6.09591
5.90508
5.75033
5.70005
5.63801
5.56832
5.5069
5.42527
5.30792
5.17672
5.06587
4.98234
4.89129
4.76696
4.62698
4.49053
4.36581
4.24972
4.14247
4.03779
3.93244
3.82459
3.71444
3.60577
3.50077
3.39964
3.29937
3.19813
3.0969
2.99857
2.9082
2.82473
2.74653
2.67202
2.59929
2.52814
2.46066
2.39789
2.33863
2.28328
2.22688
2.16843
2.11045
2.05528
2.00678
1.96322
1.92222
1.8814
1.84479
1.81239
1.7752
1.72836
1.68257
1.64643
1.61748
1.59072
1.55966
1.52945
1.49331
1.4528
1.41396
1.3802
1.37324
1.40226
1.51378
1.74327
1.95853
2.13701
2.2185
2.22839
2.2179
2.19961
2.17254
2.15024
2.13129
2.11138
2.09214
2.08941
2.09352
2.12706
2.23479
2.45925
2.72574
2.93307
3.08039
3.10452
3.09678
3.0616
3.01056
2.95864
2.92127
2.89423
2.85419
1.40001
1.48776
4.22749
5.65203
5.60786
5.52356
5.49531
5.4529
5.40798
5.35632
5.27197
5.15428
5.02994
4.92568
4.84217
4.75862
4.65181
4.52068
4.38902
4.27836
4.17243
4.06814
3.96481
3.86158
3.75614
3.64749
3.54036
3.43609
3.33435
3.23343
3.13294
3.03433
2.93905
2.85002
2.76755
2.69143
2.62015
2.5521
2.48983
2.4326
2.37772
2.32079
2.25975
2.19477
2.12972
2.0697
2.01689
1.97526
1.94192
1.91324
1.88347
1.8474
1.80238