/*--------------------------------*- C++ -*----------------------------------*\
  =========                 |
  \\      /  F ield         | OpenFOAM: The Open Source CFD Toolbox
   \\    /   O peration     | Website:  https://openfoam.org
    \\  /    A nd           | Version:  7
     \\/     M anipulation  |
\*---------------------------------------------------------------------------*/
FoamFile
{
    version     2.0;
    format      ascii;
    class       volScalarField;
    location    "3.6";
    object      p;
}
// * * * * * * * * * * * * * * * * * * * * * * * * * * * * * * * * * * * * * //

dimensions      [1 -1 -2 0 0 0 0];

internalField   nonuniform List<scalar> 
64512
(
1
1
1
1
1
1
1
1
1
1
1
1
1
1
1
1
1
1
1
1
1
1
1
1
1
1
1
1
1
1
1
1
1
1
1
1
1
1
1
1
1
1
1
1
1
1
1
1
1
6.65455
10.3844
10.4583
10.5136
10.5774
10.6367
10.6937
10.7482
10.8021
10.8567
10.9111
10.9633
11.0118
11.0567
11.0997
11.1433
11.1901
11.2404
11.2923
11.3428
11.3896
11.4325
11.4727
11.5104
11.5473
11.5857
11.6259
11.6661
11.7042
11.7383
11.7674
11.7918
11.8128
11.8319
11.851
11.8728
11.8985
11.9279
11.9593
11.989
12.013
12.0291
12.0381
12.0429
12.0457
12.0487
12.051
1
1
1
1
1
1
1
1
1
1
1
1
1
1
1
1
1
1
1
1
1
1
1
1
1
1
1
1
1
1
1
1
1
1
1
1
1
1
1
1
1
1
1
1
1
1
1
1
1
6.60875
10.374
10.4557
10.5125
10.5762
10.6358
10.693
10.7477
10.8017
10.8559
10.91
10.9619
11.0103
11.0552
11.0984
11.1422
11.1888
11.239
11.2905
11.3407
11.3876
11.4307
11.4712
11.5091
11.5458
11.5838
11.6233
11.6631
11.7013
11.7359
11.7653
11.7897
11.8103
11.8289
11.8482
11.8704
11.8965
11.926
11.9568
11.9857
12.009
12.025
12.0343
12.0395
12.0424
12.0454
12.0475
1
1
1
1
1
1
1
1
1
1
1
1
1
1
1
1
1
1
1
1
1
1
1
1
1
1
1
1
1
1
1
1
1
1
1
1
1
1
1
1
1
1
1
1
1
1
1
1
1
6.51527
10.3667
10.4503
10.5083
10.5719
10.632
10.6896
10.7449
10.7992
10.8534
10.9074
10.9591
11.0072
11.0521
11.0954
11.1395
11.1862
11.2362
11.2874
11.3371
11.384
11.4273
11.4683
11.5064
11.5431
11.5804
11.6191
11.6584
11.6967
11.7318
11.7618
11.7862
11.8063
11.8245
11.8437
11.8664
11.8933
11.923
11.9531
11.9806
12.0028
12.0184
12.0281
12.0339
12.0371
12.04
12.0419
1
1
1
1
1
1
1
1
1
1
1
1
1
1
1
1
1
1
1
1
1
1
1
1
1
1
1
1
1
1
1
1
1
1
1
1
1
1
1
1
1
1
1
1
1
1
1
1
1
6.37951
10.3558
10.4448
10.503
10.5662
10.6264
10.6844
10.7402
10.795
10.8494
10.9035
10.9551
11.0029
11.0474
11.0908
11.1351
11.1818
11.2318
11.2826
11.3319
11.3787
11.422
11.4635
11.5016
11.5382
11.5747
11.6126
11.6514
11.69
11.7257
11.7561
11.7803
11.7998
11.8177
11.8373
11.861
11.8887
11.9184
11.9473
11.973
11.9937
12.0089
12.019
12.0255
12.029
12.0317
12.0332
1
1
1
1
1
1
1
1
1
1
1
1
1
1
1
1
1
1
1
1
1
1
1
1
1
1
1
1
1
1
1
1
1
1
1
1
1
1
1
1
1
1
1
1
1
1
1
1
1
6.20156
10.3397
10.4384
10.4953
10.5582
10.6185
10.6767
10.733
10.7884
10.8432
10.8978
10.9498
10.9974
11.0415
11.0847
11.129
11.1757
11.2259
11.2767
11.3256
11.3722
11.4154
11.4568
11.4948
11.531
11.5668
11.6041
11.6428
11.6815
11.7175
11.7479
11.7717
11.7908
11.8087
11.8292
11.854
11.8825
11.9118
11.9393
11.963
11.9822
11.997
12.0078
12.0149
12.0187
12.0211
12.0223
1
1
1
1
1
1
1
1
1
1
1
1
1
1
1
1
1
1
1
1
1
1
1
1
1
1
1
1
1
1
1
1
1
1
1
1
1
1
1
1
1
1
1
1
1
1
1
1
1
5.98191
10.3179
10.4304
10.4852
10.5482
10.6085
10.667
10.7237
10.7796
10.835
10.8901
10.9429
10.9907
11.0346
11.0775
11.1216
11.1681
11.2183
11.2692
11.3179
11.3645
11.4072
11.4482
11.4855
11.5212
11.5567
11.5939
11.6325
11.6713
11.707
11.7368
11.7602
11.7794
11.7981
11.8198
11.8457
11.8744
11.903
11.9287
11.9505
11.9684
11.9829
11.9942
12.0019
12.006
12.0081
12.009
1
1
1
1
1
1
1
1
1
1
1
1
1
1
1
1
1
1
1
1
1
1
1
1
1
1
1
1
1
1
1
1
1
1
1
1
1
1
1
1
1
1
1
1
1
1
1
1
1
5.72202
10.2891
10.42
10.4729
10.5367
10.5972
10.6558
10.7127
10.7688
10.8246
10.8802
10.9338
10.9824
11.0265
11.0693
11.113
11.1589
11.2089
11.26
11.3086
11.3552
11.3973
11.4376
11.4738
11.5092
11.5446
11.582
11.6206
11.6588
11.6937
11.7227
11.746
11.7659
11.7861
11.8091
11.8358
11.8643
11.8916
11.9155
11.9356
11.9524
11.9668
11.9784
11.9864
11.9905
11.9924
11.9929
1
1
1
1
1
1
1
1
1
1
1
1
1
1
1
1
1
1
1
1
1
1
1
1
1
1
1
1
1
1
1
1
1
1
1
1
1
1
1
1
1
1
1
1
1
1
1
1
1
5.42253
10.2515
10.4064
10.4589
10.5244
10.5855
10.6442
10.701
10.7572
10.8129
10.8685
10.9228
10.9723
11.0168
11.0596
11.1031
11.1483
11.1979
11.2489
11.2974
11.344
11.3855
11.4249
11.4602
11.4952
11.5307
11.5683
11.6065
11.6436
11.6771
11.7054
11.729
11.7504
11.7723
11.7966
11.8234
11.8509
11.8765
11.8988
11.9177
11.934
11.9484
11.9604
11.9688
11.9731
11.9747
11.9752
1
1
1
1
1
1
1
1
1
1
1
1
1
1
1
1
1
1
1
1
1
1
1
1
1
1
1
1
1
1
1
1
1
1
1
1
1
1
1
1
1
1
1
1
1
1
1
1
1
5.08272
10.2014
10.3903
10.4444
10.5119
10.5736
10.6324
10.6891
10.7451
10.8006
10.8559
10.9104
10.9608
11.0057
11.0485
11.0918
11.1365
11.1853
11.2361
11.2843
11.3306
11.3716
11.4104
11.4452
11.4801
11.5156
11.5528
11.59
11.6256
11.6577
11.6856
11.7102
11.7334
11.757
11.782
11.8082
11.8341
11.8579
11.8788
11.897
11.9131
11.9277
11.9399
11.9485
11.9532
11.9548
11.9555
1
1
1
1
1
1
1
1
1
1
1
1
1
1
1
1
1
1
1
1
1
1
1
1
1
1
1
1
1
1
1
1
1
1
1
1
1
1
1
1
1
1
1
1
1
1
1
1
1
4.70259
10.1306
10.3734
10.4309
10.5005
10.5621
10.6205
10.6769
10.7325
10.7877
10.8423
10.8966
10.9475
10.9929
11.0357
11.079
11.1234
11.1713
11.2215
11.269
11.3147
11.3552
11.3938
11.4285
11.4635
11.4987
11.535
11.5708
11.605
11.6363
11.6646
11.6907
11.7157
11.7405
11.7654
11.7902
11.8141
11.8361
11.8558
11.8735
11.8897
11.9043
11.9166
11.9255
11.9304
11.9323
11.9333
1
1
1
1
1
1
1
1
1
1
1
1
1
1
1
1
1
1
1
1
1
1
1
1
1
1
1
1
1
1
1
1
1
1
1
1
1
1
1
1
1
1
1
1
1
1
1
1
1
4.2853
10.0287
10.3581
10.4196
10.4914
10.5526
10.61
10.6653
10.7204
10.7749
10.8286
10.882
10.933
10.9786
11.0213
11.0645
11.1086
11.1554
11.2047
11.251
11.296
11.3363
11.3748
11.4097
11.4445
11.479
11.514
11.5482
11.5814
11.6127
11.642
11.6698
11.6964
11.7217
11.746
11.7691
11.7909
11.8113
11.8302
11.8476
11.8637
11.8783
11.8906
11.8996
11.9049
11.907
11.9085
1
1
1
1
1
1
1
1
1
1
1
1
1
1
1
1
1
1
1
1
1
1
1
1
1
1
1
1
1
1
1
1
1
1
1
1
1
1
1
1
1
1
1
1
1
1
1
1
1
3.83567
9.88483
10.3465
10.41
10.483
10.5437
10.6004
10.6546
10.7086
10.7623
10.8153
10.8676
10.9184
10.9642
11.0069
11.0501
11.094
11.1392
11.1874
11.2325
11.2765
11.3164
11.3544
11.389
11.423
11.4562
11.4897
11.5227
11.5555
11.5873
11.618
11.6472
11.6746
11.6999
11.7231
11.7444
11.7644
11.7835
11.8017
11.8189
11.8348
11.8494
11.8615
11.8706
11.8762
11.8786
11.8805
1
1
1
1
1
1
1
1
1
1
1
1
1
1
1
1
1
1
1
1
1
1
1
1
1
1
1
1
1
1
1
1
1
1
1
1
1
1
1
1
1
1
1
1
1
1
1
1
1
3.36853
9.68617
10.3389
10.4015
10.4741
10.5339
10.5899
10.6429
10.6958
10.7485
10.8004
10.8511
10.9011
10.9469
10.9894
11.0322
11.0759
11.12
11.1674
11.2118
11.2553
11.2952
11.3325
11.3668
11.3996
11.4316
11.4637
11.4961
11.5289
11.5614
11.5928
11.6227
11.6502
11.6748
11.6966
11.7162
11.7348
11.7528
11.7704
11.7873
11.803
11.8173
11.8295
11.8386
11.8446
11.8473
11.8496
1
1
1
1
1
1
1
1
1
1
1
1
1
1
1
1
1
1
1
1
1
1
1
1
1
1
1
1
1
1
1
1
1
1
1
1
1
1
1
1
1
1
1
1
1
1
1
1
1
2.89546
9.42132
10.3404
10.3969
10.4665
10.5244
10.5784
10.6294
10.6808
10.7323
10.783
10.8327
10.8821
10.9281
10.9706
11.0129
11.0557
11.0986
11.1447
11.1885
11.2315
11.2713
11.3074
11.3412
11.3732
11.4045
11.4362
11.4686
11.5018
11.5347
11.5662
11.5956
11.6224
11.6458
11.6663
11.6847
11.702
11.7191
11.7361
11.7525
11.7679
11.782
11.794
11.8031
11.8094
11.8125
11.8151
1
1
1
1
1
1
1
1
1
1
1
1
1
1
1
1
1
1
1
1
1
1
1
1
1
1
1
1
1
1
1
1
1
1
1
1
1
1
1
1
1
1
1
1
1
1
1
1
1
2.43453
9.07627
10.354
10.3966
10.4597
10.5139
10.5666
10.6173
10.6677
10.7182
10.7678
10.816
10.864
10.9096
10.9511
10.9923
11.0339
11.0756
11.1203
11.1636
11.2061
11.2455
11.2806
11.3138
11.3449
11.376
11.4078
11.4404
11.4738
11.5064
11.5371
11.5654
11.5908
11.6131
11.6324
11.6498
11.6662
11.6823
11.6984
11.7142
11.7291
11.7429
11.7549
11.7642
11.7709
11.7742
11.7772
1
1
1
1
1
1
1
1
1
1
1
1
1
1
1
1
1
1
1
1
1
1
1
1
1
1
1
1
1
1
1
1
1
1
1
1
1
1
1
1
1
1
1
1
1
1
1
1
1
2.00132
8.64006
10.3707
10.3973
10.4537
10.5033
10.5554
10.6042
10.6531
10.7024
10.7514
10.7986
10.8451
10.89
10.9308
10.971
11.0116
11.0523
11.0953
11.1383
11.1795
11.2179
11.2517
11.2843
11.3147
11.3458
11.3779
11.4108
11.4439
11.4757
11.5049
11.5315
11.5555
11.5767
11.5954
11.6121
11.6276
11.6425
11.6573
11.6722
11.6865
11.7
11.7118
11.7212
11.7282
11.7317
11.7348
1
1
1
1
1
1
1
1
1
1
1
1
1
1
1
1
1
1
1
1
1
1
1
1
1
1
1
1
1
1
1
1
1
1
1
1
1
1
1
1
1
1
1
1
1
1
1
1
1
1.61761
8.12596
10.4048
10.39
10.4428
10.4873
10.5385
10.588
10.6357
10.6837
10.7319
10.7787
10.824
10.8683
10.9088
10.9485
10.9885
11.0284
11.0696
11.112
11.1515
11.1892
11.222
11.254
11.284
11.3151
11.3471
11.3795
11.4116
11.4419
11.4691
11.4938
11.5163
11.5367
11.5549
11.5711
11.5856
11.599
11.6122
11.6258
11.6394
11.6526
11.6644
11.674
11.6813
11.685
11.6884
1
1
1
1
1
1
1
1
1
1
1
1
1
1
1
1
1
1
1
1
1
1
1
1
1
1
1
1
1
1
1
1
1
1
1
1
1
1
1
1
1
1
1
1
1
1
1
1
1
1.28085
7.51263
10.4034
10.3744
10.4195
10.4613
10.5098
10.5591
10.6089
10.6592
10.7096
10.7568
10.8011
10.8445
10.885
10.9242
10.9637
11.0028
11.0423
11.0838
11.1222
11.1596
11.1918
11.2234
11.2531
11.2837
11.3149
11.3461
11.3764
11.4046
11.4296
11.4522
11.4733
11.493
11.5109
11.5266
11.5402
11.5521
11.5635
11.5754
11.588
11.6007
11.6123
11.6217
11.6291
11.6328
11.6361
1
1
1
1
1
1
1
1
1
1
1
1
1
1
1
1
1
1
1
1
1
1
1
1
1
1
1
1
1
1
1
1
1
1
1
1
1
1
1
1
1
1
1
1
1
1
1
1
1
1.03458
6.89337
10.3338
10.3325
10.3853
10.4364
10.4911
10.5413
10.5892
10.6372
10.6851
10.7312
10.7751
10.8177
10.8581
10.8969
10.9361
10.9748
11.013
11.0535
11.0912
11.1286
11.1608
11.1918
11.221
11.2508
11.2806
11.31
11.338
11.3638
11.3865
11.407
11.4267
11.4456
11.4631
11.4783
11.4908
11.5009
11.5101
11.52
11.5312
11.5433
11.5546
11.564
11.5714
11.5752
11.5785
1
1
1
1
1
1
1
1
1
1
1
1
1
1
1
1
1
1
1
1
1
1
1
1
1
1
1
1
1
1
1
1
1
1
1
1
1
1
1
1
1
1
1
1
1
1
1
1
1
1.00051
6.105
10.1765
10.2857
10.3468
10.4029
10.455
10.5053
10.5544
10.6032
10.6523
10.6985
10.7425
10.7857
10.8271
10.8664
10.9055
10.944
10.9813
11.0205
11.0582
11.0955
11.128
11.1583
11.187
11.2156
11.2436
11.2709
11.2964
11.3197
11.3401
11.3586
11.3766
11.3945
11.4113
11.4258
11.4371
11.4455
11.4524
11.4601
11.4695
11.4803
11.491
11.5
11.507
11.5104
11.5134
1
1
1
1
1
1
1
1
1
1
1
1
1
1
1
1
1
1
1
1
1
1
1
1
1
1
1
1
1
1
1
1
1
1
1
1
1
1
1
1
1
1
1
1
1
1
1
1
1
1
5.29084
10.0224
10.2231
10.3066
10.3773
10.4364
10.4887
10.536
10.5814
10.6273
10.6716
10.7145
10.7559
10.7958
10.834
10.8724
10.9105
10.9469
10.9849
11.0224
11.0594
11.0925
11.122
11.15
11.1773
11.2034
11.2284
11.2515
11.2724
11.2906
11.307
11.3232
11.3396
11.3552
11.3686
11.3785
11.3848
11.3893
11.3941
11.4012
11.4103
11.4201
11.4288
11.4355
11.4386
11.4413
1
1
1
1
1
1
1
1
1
1
1
1
1
1
1
1
1
1
1
1
1
1
1
1
1
1
1
1
1
1
1
1
1
1
1
1
1
1
1
1
1
1
1
1
1
1
1
1
1
1
4.41879
9.79509
10.1902
10.2772
10.3456
10.4066
10.4609
10.51
10.5565
10.6024
10.6462
10.6871
10.7262
10.7636
10.8001
10.8366
10.8734
10.9094
10.9461
10.9832
11.0195
11.0532
11.0821
11.1093
11.1351
11.1595
11.1824
11.2034
11.2221
11.2383
11.2525
11.2664
11.2807
11.2945
11.3063
11.3144
11.3189
11.3209
11.3228
11.327
11.3338
11.3419
11.3494
11.3549
11.3568
11.3588
1
1
1
1
1
1
1
1
1
1
1
1
1
1
1
1
1
1
1
1
1
1
1
1
1
1
1
1
1
1
1
1
1
1
1
1
1
1
1
1
1
1
1
1
1
1
1
1
1
1
3.55237
9.46759
10.1778
10.2563
10.3367
10.3964
10.4451
10.4887
10.5301
10.572
10.6155
10.6571
10.6961
10.7329
10.768
10.8015
10.8369
10.8698
10.9048
10.9411
10.9759
11.0095
11.038
11.0644
11.0888
11.1116
11.1328
11.152
11.1687
11.1827
11.1946
11.2059
11.2175
11.2288
11.2384
11.2444
11.2467
11.2457
11.2441
11.2443
11.2479
11.2539
11.26
11.2643
11.2655
11.2672
1
1
1
1
1
1
1
1
1
1
1
1
1
1
1
1
1
1
1
1
1
1
1
1
1
1
1
1
1
1
1
1
1
1
1
1
1
1
1
1
1
1
1
1
1
1
1
1
1
1
2.72702
8.97271
10.2026
10.2559
10.3218
10.3692
10.4186
10.4669
10.5098
10.5503
10.5896
10.6273
10.6638
10.6993
10.7334
10.7656
10.7979
10.8324
10.8617
10.8959
10.9287
10.9616
10.9898
11.0152
11.0383
11.0597
11.0793
11.0968
11.1117
11.1237
11.1332
11.1414
11.1498
11.1579
11.1647
11.1684
11.1677
11.1637
11.1582
11.1544
11.1541
11.1565
11.1595
11.161
11.16
11.1601
1
1
1
1
1
1
1
1
1
1
1
1
1
1
1
1
1
1
1
1
1
1
1
1
1
1
1
1
1
1
1
1
1
1
1
1
1
1
1
1
1
1
1
1
1
1
1
1
1
1
1.91427
8.355
10.3033
10.2486
10.3098
10.3584
10.4031
10.4426
10.4806
10.5203
10.5601
10.5985
10.6342
10.6674
10.6984
10.7282
10.757
10.7879
10.8194
10.849
10.8789
10.9091
10.9373
10.9617
10.9836
11.0036
11.0217
11.0376
11.0509
11.0607
11.0677
11.0726
11.0771
11.0814
11.0849
11.0853
11.0814
11.0734
11.0628
11.0534
11.0472
11.0445
11.0438
11.0427
11.0404
11.0402
1
1
1
1
1
1
1
1
1
1
1
1
1
1
1
1
1
1
1
1
1
1
1
1
1
1
1
1
1
1
1
1
1
1
1
1
1
1
1
1
1
1
1
1
1
1
1
1
1
1
1.24131
7.55715
10.3867
10.2703
10.2817
10.3168
10.3629
10.4085
10.4514
10.4918
10.5299
10.566
10.6009
10.6344
10.6652
10.6927
10.7192
10.7456
10.7732
10.8007
10.827
10.8545
10.8809
10.9041
10.9248
10.9434
10.9598
10.974
10.9858
10.9934
10.9977
10.9991
10.9995
10.9995
10.9986
10.9948
10.9868
10.974
10.9579
10.9426
10.93
10.9207
10.913
10.9056
10.8985
10.895
1
1
1
1
1
1
1
1
1
1
1
1
1
1
1
1
1
1
1
1
1
1
1
1
1
1
1
1
1
1
1
1
1
1
1
1
1
1
1
1
1
1
1
1
1
1
1
1
1
1
1.00813
6.65139
10.2046
10.1473
10.224
10.2798
10.33
10.3727
10.4169
10.4591
10.497
10.5322
10.5661
10.5984
10.6285
10.6553
10.6803
10.7045
10.7289
10.7529
10.7757
10.7975
10.8218
10.844
10.8626
10.8792
10.8938
10.9061
10.9163
10.9212
10.9226
10.9205
10.9164
10.9115
10.9053
10.8965
10.8832
10.8644
10.8415
10.8174
10.7944
10.7741
10.7569
10.743
10.7327
10.7292
1
1
1
1
1
1
1
1
1
1
1
1
1
1
1
1
1
1
1
1
1
1
1
1
1
1
1
1
1
1
1
1
1
1
1
1
1
1
1
1
1
1
1
1
1
1
1
1
1
1
1.00001
5.48761
9.94089
10.0985
10.1884
10.2434
10.2953
10.3417
10.3816
10.417
10.4559
10.4935
10.5281
10.56
10.5898
10.6165
10.6402
10.6621
10.6836
10.7049
10.7249
10.7434
10.7615
10.781
10.798
10.8119
10.8242
10.8342
10.8421
10.8439
10.8422
10.8363
10.8276
10.8172
10.8051
10.7901
10.7699
10.7436
10.7119
10.6777
10.6435
10.6115
10.5817
10.553
10.5286
10.5133
1
1
1
1
1
1
1
1
1
1
1
1
1
1
1
1
1
1
1
1
1
1
1
1
1
1
1
1
1
1
1
1
1
1
1
1
1
1
1
1
1
1
1
1
1
1
1
1
1
1
1
4.38654
9.67384
10.0335
10.1325
10.2172
10.2697
10.3073
10.3438
10.3823
10.4179
10.4516
10.4862
10.5183
10.5478
10.5744
10.5978
10.6182
10.6373
10.6557
10.6731
10.6889
10.7031
10.718
10.7319
10.7432
10.7523
10.759
10.7638
10.762
10.7568
10.7467
10.733
10.7164
10.6973
10.6747
10.6463
10.611
10.5687
10.5211
10.4694
10.4147
10.3598
10.31
10.2715
10.2573
1
1
1
1
1
1
1
1
1
1
1
1
1
1
1
1
1
1
1
1
1
1
1
1
1
1
1
1
1
1
1
1
1
1
1
1
1
1
1
1
1
1
1
1
1
1
1
1
1
1
1
3.30293
9.1726
10.0306
10.1316
10.1997
10.2471
10.286
10.3151
10.3443
10.3751
10.4087
10.4408
10.4717
10.5012
10.5283
10.552
10.5718
10.5892
10.6053
10.6199
10.6331
10.6439
10.655
10.665
10.6728
10.6784
10.6815
10.682
10.6759
10.6665
10.6517
10.6324
10.6093
10.5823
10.5507
10.5126
10.4661
10.41
10.3444
10.2705
10.1917
10.1112
10.0318
9.94867
9.879
1
1
1
1
1
1
1
1
1
1
1
1
1
1
1
1
1
1
1
1
1
1
1
1
1
1
1
1
1
1
1
1
1
1
1
1
1
1
1
1
1
1
1
1
1
1
1
1
1
1
1
2.21679
8.45221
10.1381
10.1354
10.1731
10.21
10.2481
10.283
10.312
10.3399
10.3676
10.3959
10.4251
10.453
10.4794
10.5029
10.5225
10.5389
10.5531
10.5651
10.5759
10.5836
10.5911
10.5974
10.6016
10.6029
10.602
10.5974
10.5867
10.5721
10.5519
10.5263
10.4958
10.46
10.4181
10.3683
10.3083
10.2356
10.1492
10.0482
9.93095
9.79101
9.62798
9.46864
9.35485
1
1
1
1
1
1
1
1
1
1
1
1
1
1
1
1
1
1
1
1
1
1
1
1
1
1
1
1
1
1
1
1
1
1
1
1
1
1
1
1
1
1
1
1
1
1
1
1
1
1
1
1.2999
7.61794
10.2762
10.1364
10.1295
10.1642
10.2069
10.244
10.2745
10.3028
10.3301
10.356
10.3803
10.4047
10.4288
10.4509
10.4699
10.4856
10.4982
10.508
10.5163
10.5218
10.526
10.5281
10.5287
10.5258
10.5207
10.5101
10.4949
10.4743
10.4478
10.4153
10.3767
10.3312
10.2779
10.2147
10.139
10.0466
9.93403
9.79566
9.62572
9.42015
9.17619
8.91549
8.74755
1
1
1
1
1
1
1
1
1
1
1
1
1
1
1
1
1
1
1
1
1
1
1
1
1
1
1
1
1
1
1
1
1
1
1
1
1
1
1
1
1
1
1
1
1
1
1
1
1
1
1
1.0109
6.50766
10.0319
10.009
10.0709
10.1176
10.1631
10.2044
10.2364
10.2644
10.2904
10.3153
10.3386
10.3599
10.3802
10.3996
10.4169
10.4311
10.4418
10.4493
10.4547
10.4581
10.459
10.458
10.4545
10.4475
10.4369
10.4212
10.4006
10.3739
10.3406
10.3003
10.2527
10.1967
10.131
10.0529
9.95927
9.84432
9.70202
9.52363
9.29879
9.00007
8.55878
7.72678
5.78257
1
1
1
1
1
1
1
1
1
1
1
1
1
1
1
1
1
1
1
1
1
1
1
1
1
1
1
1
1
1
1
1
1
1
1
1
1
1
1
1
1
1
1
1
1
1
1
1
1
1
1
0.999968
5.06791
9.66457
9.94331
10.0347
10.0857
10.1239
10.1621
10.1941
10.222
10.2473
10.2711
10.2933
10.3134
10.3318
10.3485
10.3635
10.3755
10.3842
10.3889
10.3912
10.3921
10.3902
10.3863
10.3789
10.3675
10.3515
10.3308
10.3043
10.2712
10.2309
10.1824
10.1253
10.0582
9.97919
9.88511
9.7721
9.63303
9.45892
9.23626
8.94088
8.52995
7.8869
6.92478
4.71766
1
1
1
1
1
1
1
1
1
1
1
1
1
1
1
1
1
1
1
1
1
1
1
1
1
1
1
1
1
1
1
1
1
1
1
1
1
1
1
1
1
1
1
1
1
1
1
1
1
1
1
0.999991
3.75435
9.29045
9.93143
10.0051
10.0611
10.1002
10.1221
10.1482
10.1752
10.2007
10.2242
10.2458
10.2652
10.2824
10.2973
10.3098
10.3198
10.3259
10.3281
10.3266
10.3243
10.3195
10.3124
10.3016
10.2862
10.2652
10.239
10.2065
10.1667
10.1191
10.0623
9.99544
9.91688
9.82424
9.71372
9.58063
9.41684
9.21157
8.94607
8.59617
8.09742
7.43257
6.16117
4.347
1
1
1
1
1
1
1
1
1
1
1
1
1
1
1
1
1
1
1
1
1
1
1
1
1
1
1
1
1
1
1
1
1
1
1
1
1
1
1
1
1
1
1
1
1
1
1
1
1
1
1
0.999999
2.44379
8.55684
9.99281
9.99663
10.0296
10.0601
10.0866
10.1117
10.135
10.1578
10.1791
10.1986
10.2162
10.2316
10.2448
10.2553
10.263
10.2669
10.2668
10.2615
10.2557
10.2474
10.2368
10.2227
10.2035
10.1782
10.1463
10.1077
10.061
10.0059
9.94092
9.86467
9.77472
9.66863
9.54188
9.3894
9.2017
8.96893
8.66709
8.27787
7.73211
6.98345
5.74323
4.24899
1
1
1
1
1
1
1
1
1
1
1
1
1
1
1
1
1
1
1
1
1
1
1
1
1
1
1
1
1
1
1
1
1
1
1
1
1
1
1
1
1
1
1
1
1
1
1
1
1
1
1
1
1.35327
7.67983
10.1476
10.0198
9.98932
10.0121
10.0457
10.0723
10.0947
10.115
10.1336
10.1507
10.166
10.1796
10.191
10.1999
10.2054
10.2076
10.205
10.1967
10.187
10.1745
10.1599
10.1419
10.1191
10.0898
10.0527
10.0081
9.95474
9.89198
9.81863
9.73341
9.63274
9.51405
9.37207
9.20204
8.99336
8.73706
8.40946
7.98726
7.42854
6.64719
5.54759
4.36542
1
1
1
1
1
1
1
1
1
1
1
1
1
1
1
1
1
1
1
1
1
1
1
1
1
1
1
1
1
1
1
1
1
1
1
1
1
1
1
1
1
1
1
1
1
1
1
1
1
1
1
1
1.01446
6.38637
9.84147
9.86186
9.91536
9.95755
9.99853
10.028
10.0514
10.071
10.088
10.1029
10.1159
10.1273
10.1366
10.1435
10.1472
10.1475
10.142
10.1313
10.118
10.1015
10.0825
10.0604
10.0338
10.0007
9.95894
9.90857
9.8486
9.77859
9.69698
9.60285
9.49244
9.36275
9.20707
9.0218
8.79618
8.52097
8.17706
7.73788
7.17361
6.42734
5.49033
4.51033
1
1
1
1
1
1
1
1
1
1
1
1
1
1
1
1
1
1
1
1
1
1
1
1
1
1
1
1
1
1
1
1
1
1
1
1
1
1
1
1
1
1
1
1
1
1
1
1
1
1
1
1
0.999949
4.74276
9.44462
9.80501
9.88614
9.92847
9.9558
9.9834
10.0066
10.0258
10.0417
10.0549
10.0659
10.075
10.0819
10.0867
10.0885
10.0865
10.0789
10.0658
10.049
10.0286
10.0053
9.97866
9.94772
9.91019
9.86422
9.80882
9.74282
9.66608
9.57682
9.47405
9.35422
9.21525
9.04842
8.85086
8.61267
8.32454
7.97184
7.53128
6.97445
6.29723
5.49027
4.64403
1
1
1
1
1
1
1
1
1
1
1
1
1
1
1
1
1
1
1
1
1
1
1
1
1
1
1
1
1
1
1
1
1
1
1
1
1
1
1
1
1
1
1
1
1
1
1
1
1
1
1
1
0.999986
3.19181
8.94192
9.81621
9.86308
9.89689
9.92295
9.94414
9.96327
9.98012
9.99423
10.0058
10.0149
10.0217
10.0263
10.0289
10.0286
10.0248
10.0153
9.99997
9.97981
9.95577
9.92821
9.89718
9.8619
9.81987
9.76955
9.70951
9.63821
9.55534
9.45918
9.34867
9.22046
9.07252
8.89763
8.69103
8.44418
8.14884
7.795
7.36011
6.83215
6.21515
5.50812
4.78383
1
1
1
1
1
1
1
1
1
1
1
1
1
1
1
1
1
1
1
1
1
1
1
1
1
1
1
1
1
1
1
1
1
1
1
1
1
1
1
1
1
1
1
1
1
1
1
1
1
1
1
1
0.999998
1.825
8.15017
9.89152
9.82696
9.85098
9.88492
9.907
9.92443
9.93872
9.95024
9.95939
9.96605
9.97001
9.97195
9.97183
9.96879
9.96262
9.95114
9.93388
9.91077
9.88317
9.85146
9.81591
9.77609
9.72977
9.67489
9.61044
9.53459
9.44651
9.34438
9.22719
9.09213
8.93619
8.75474
8.54241
8.29116
7.99348
7.64502
7.21946
6.72965
6.16935
5.54049
4.91946
1
1
1
1
1
1
1
1
1
1
1
1
1
1
1
1
1
1
1
1
1
1
1
1
1
1
1
1
1
1
1
1
1
1
1
1
1
1
1
1
1
1
1
1
1
1
1
1
1
1
1
1
1
1.07593
6.78476
9.88284
9.81561
9.8122
9.84095
9.86328
9.8806
9.8939
9.9041
9.9116
9.91561
9.91743
9.91684
9.91419
9.90859
9.89999
9.88663
9.86758
9.84217
9.81134
9.77556
9.73541
9.69076
9.6405
9.58154
9.51285
9.43286
9.34024
9.23301
9.11018
8.96955
8.80775
8.62139
8.40516
8.15297
7.85692
7.51718
7.10711
6.65628
6.1477
5.58261
5.04209
1
1
1
1
1
1
1
1
1
1
1
1
1
1
1
1
1
1
1
1
1
1
1
1
1
1
1
1
1
1
1
1
1
1
1
1
1
1
1
1
1
1
1
1
1
1
1
1
1
1
1
1
1
1.00037
5.02672
9.40289
9.67846
9.76373
9.7982
9.8158
9.83411
9.84777
9.85764
9.86336
9.86524
9.86501
9.86191
9.85663
9.84838
9.83701
9.8215
9.8005
9.77323
9.73966
9.70019
9.65557
9.60598
9.5513
9.48891
9.41674
9.33294
9.23654
9.12531
8.9981
8.85306
8.68722
8.49785
8.27994
8.02881
7.73749
7.40956
7.01844
6.60484
6.13669
5.62763
5.14311
1
1
1
1
1
1
1
1
1
1
1
1
1
1
1
1
1
1
1
1
1
1
1
1
1
1
1
1
1
1
1
1
1
1
1
1
1
1
1
1
1
1
1
1
1
1
1
1
1
1
1
1
1
0.999996
3.23878
8.91646
9.73396
9.74999
9.75724
9.77713
9.79328
9.80525
9.81352
9.81657
9.81622
9.81366
9.80804
9.79996
9.78906
9.7749
9.75697
9.73396
9.70484
9.66896
9.62633
9.57759
9.52325
9.46378
9.39764
9.32287
9.23595
9.13618
9.02167
8.89108
8.74268
8.57421
8.38342
8.16601
7.91789
7.63505
7.31654
6.94933
6.57036
6.1299
5.67317
5.22658
1
1
1
1
1
1
1
1
1
1
1
1
1
1
1
1
1
1
1
1
1
1
1
1
1
1
1
1
1
1
1
1
1
1
1
1
1
1
1
1
1
1
1
1
1
1
1
1
1
1
1
1
1
0.999999
1.72244
8.07782
9.79738
9.69727
9.69738
9.73008
9.74942
9.76073
9.76693
9.76816
9.76592
9.76111
9.75333
9.74261
9.72922
9.71249
9.69197
9.66681
9.63583
9.59802
9.55288
9.50082
9.44234
9.37835
9.30811
9.23013
9.14115
9.03919
8.92217
8.78936
8.63882
8.46893
8.27794
8.06249
7.81933
7.54687
7.23638
6.89769
6.54319
6.12749
5.71991
5.30012
1
1
1
1
1
1
1
1
1
1
1
1
1
1
1
1
1
1
1
1
1
1
1
1
1
1
1
1
1
1
1
1
1
1
1
1
1
1
1
1
1
1
1
1
1
1
1
1
1
1
1
1
1
1
1.05393
6.60121
9.68165
9.62434
9.64915
9.6814
9.70267
9.71515
9.72036
9.72064
9.71688
9.70993
9.7001
9.68689
9.67097
9.6515
9.62836
9.60081
9.56779
9.52817
9.48096
9.42625
9.36436
9.29626
9.22193
9.14031
9.04897
8.94568
8.82723
8.693
8.54125
8.37105
8.18094
7.96836
7.73165
7.46826
7.17003
6.85875
6.51675
6.13132
5.76622
5.37031
1
1
1
1
1
1
1
1
1
1
1
1
1
1
1
1
1
1
1
1
1
1
1
1
1
1
1
1
1
1
1
1
1
1
1
1
1
1
1
1
1
1
1
1
1
1
1
1
1
1
1
1
1
1
1.00013
4.62927
9.17201
9.52273
9.61225
9.65074
9.66442
9.67031
9.67281
9.67145
9.66617
9.65733
9.6457
9.63046
9.61228
9.59035
9.56468
9.53474
9.49962
9.45837
9.4096
9.35306
9.28871
9.21734
9.13924
9.05399
8.95987
8.85473
8.73573
8.60162
8.44987
8.28048
8.09248
7.88316
7.65329
7.3974
7.11827
6.82545
6.49057
6.14279
5.80754
5.43253
1
1
1
1
1
1
1
1
1
1
1
1
1
1
1
1
1
1
1
1
1
1
1
1
1
1
1
1
1
1
1
1
1
1
1
1
1
1
1
1
1
1
1
1
1
1
1
1
1
1
1
1
1
1
0.999998
2.65508
8.5867
9.63588
9.61478
9.61417
9.62358
9.62907
9.62932
9.62558
9.61811
9.60697
9.59313
9.57574
9.55523
9.53092
9.50273
9.47032
9.43288
9.38988
9.33976
9.28192
9.21575
9.14179
9.06039
8.97165
8.87468
8.76756
8.64799
8.51439
8.36422
8.1967
8.01177
7.80621
7.58355
7.3348
7.07367
6.79027
6.47352
6.16275
5.84019
5.4853
1
1
1
1
1
1
1
1
1
1
1
1
1
1
1
1
1
1
1
1
1
1
1
1
1
1
1
1
1
1
1
1
1
1
1
1
1
1
1
1
1
1
1
1
1
1
1
1
1
1
1
1
1
1
1
1.23478
7.40794
9.72705
9.59104
9.56188
9.57066
9.57924
9.57981
9.57593
9.5677
9.55528
9.53977
9.52061
9.4982
9.47188
9.44146
9.40677
9.36704
9.32216
9.27077
9.21208
9.14486
9.06921
8.98531
8.89362
8.79386
8.68475
8.56457
8.43136
8.28313
8.11875
7.93821
7.73626
7.52118
7.27885
7.03147
6.76177
6.46702
6.17751
5.85938
5.53785
1
1
1
1
1
1
1
1
1
1
1
1
1
1
1
1
1
1
1
1
1
1
1
1
1
1
1
1
1
1
1
1
1
1
1
1
1
1
1
1
1
1
1
1
1
1
1
1
1
1
1
1
1
1
1
1.0051
5.60049
9.26422
9.42768
9.5029
9.52955
9.53168
9.5307
9.52625
9.5174
9.50407
9.48709
9.46624
9.44209
9.41397
9.38154
9.3448
9.30292
9.25608
9.20321
9.14365
9.07581
8.99917
8.91351
8.81954
8.71733
8.60639
8.48555
8.35303
8.20684
8.04614
7.86999
7.67344
7.46472
7.23022
6.99707
6.73655
6.45748
6.18224
5.88294
5.59408
1
1
1
1
1
1
1
1
1
1
1
1
1
1
1
1
1
1
1
1
1
1
1
1
1
1
1
1
1
1
1
1
1
1
1
1
1
1
1
1
1
1
1
1
1
1
1
1
1
1
1
1
1
1
1
0.999945
3.40864
8.79429
9.48186
9.48974
9.49291
9.49247
9.48939
9.48227
9.47132
9.45602
9.43691
9.41384
9.38759
9.35754
9.32317
9.28447
9.24064
9.19184
9.13724
9.07649
9.00809
8.93111
8.84465
8.74939
8.64545
8.53301
8.41142
8.27951
8.13537
7.97804
7.80602
7.61608
7.41212
7.18988
6.96648
6.70768
6.45039
6.19111
5.911
5.64043
1
1
1
1
1
1
1
1
1
1
1
1
1
1
1
1
1
1
1
1
1
1
1
1
1
1
1
1
1
1
1
1
1
1
1
1
1
1
1
1
1
1
1
1
1
1
1
1
1
1
1
1
1
1
1
0.999986
1.60282
7.90436
9.60879
9.47758
9.4379
9.43814
9.43695
9.43119
9.42101
9.40554
9.38551
9.36106
9.33316
9.30145
9.26547
9.2251
9.17966
9.12915
9.07286
9.01075
8.94159
8.86443
8.77793
8.68239
8.57762
8.46426
8.34204
8.21056
8.06842
7.91395
7.74671
7.56232
7.36345
7.1559
6.9364
6.68648
6.4509
6.19954
5.93784
5.67555
1
1
1
1
1
1
1
1
1
1
1
1
1
1
1
1
1
1
1
1
1
1
1
1
1
1
1
1
1
1
1
1
1
1
1
1
1
1
1
1
1
1
1
1
1
1
1
1
1
1
1
1
1
1
1
0.999998
1.03456
6.19772
9.26401
9.34563
9.38339
9.38921
9.38538
9.3801
9.37065
9.35546
9.33498
9.30952
9.2801
9.24676
9.20927
9.16739
9.12055
9.06856
9.01072
8.94716
8.87697
8.79944
8.71317
8.61811
8.51351
8.40005
8.27758
8.14633
8.00586
7.85357
7.69169
7.51164
7.31937
7.12262
6.90601
6.67446
6.45059
6.20427
5.9579
5.70445
1
1
1
1
1
1
1
1
1
1
1
1
1
1
1
1
1
1
1
1
1
1
1
1
1
1
1
1
1
1
1
1
1
1
1
1
1
1
1
1
1
1
1
1
1
1
1
1
1
1
1
1
1
1
1
1
0.999958
3.87025
8.82211
9.31276
9.3403
9.34686
9.34595
9.34019
9.32835
9.31072
9.2881
9.26072
9.22919
9.1938
9.15448
9.11096
9.06272
9.00933
8.95019
8.88538
8.81419
8.73617
8.65015
8.55589
8.45232
8.33961
8.21773
8.08676
7.94766
7.79678
7.63989
7.46365
7.27956
7.09039
6.87935
6.66464
6.44615
6.21304
5.98023
5.73676
1
1
1
1
1
1
1
1
1
1
1
1
1
1
1
1
1
1
1
1
1
1
1
1
1
1
1
1
1
1
1
1
1
1
1
1
1
1
1
1
1
1
1
1
1
1
1
1
1
1
1
1
1
1
1
1
0.999984
1.82656
8.06836
9.44693
9.34536
9.31344
9.29939
9.29056
9.27797
9.26048
9.23794
9.21044
9.17797
9.14131
9.10058
9.05573
9.00634
8.95186
8.89179
8.82597
8.75388
8.67528
8.58936
8.49574
8.39346
8.28201
8.16175
8.03124
7.89329
7.74345
7.59029
7.41811
7.24456
7.05997
6.85475
6.65334
6.4415
6.22379
5.9995
5.76489
1
1
1
1
1
1
1
1
1
1
1
1
1
1
1
1
1
1
1
1
1
1
1
1
1
1
1
1
1
1
1
1
1
1
1
1
1
1
1
1
1
1
1
1
1
1
1
1
1
1
1
1
1
1
1
1
0.999997
1.06149
6.33795
9.16539
9.22142
9.24073
9.24591
9.23912
9.22595
9.20895
9.18712
9.16016
9.12751
9.0899
9.04798
9.00189
8.9514
8.89593
8.83506
8.76853
8.69577
8.61671
8.53081
8.43775
8.33664
8.22691
8.10906
7.9795
7.84264
7.69457
7.54338
7.37705
7.21239
7.0288
6.83455
6.64331
6.43901
6.23234
6.01495
5.79228
1
1
1
1
1
1
1
1
1
1
1
1
1
1
1
1
1
1
1
1
1
1
1
1
1
1
1
1
1
1
1
1
1
1
1
1
1
1
1
1
1
1
1
1
1
1
1
1
1
1
1
1
1
1
1
1
1
1.00012
3.87376
8.72135
9.18398
9.20229
9.21142
9.20402
9.18829
9.1683
9.14398
9.11488
9.08059
9.0411
8.99759
8.95004
8.89833
8.84191
8.7804
8.71335
8.64008
8.56059
8.47461
8.38195
8.28168
8.17375
8.05824
7.93002
7.79487
7.65006
7.4998
7.34054
7.17945
6.99876
6.81861
6.63369
6.43529
6.23675
6.02972
5.81831
1
1
1
1
1
1
1
1
1
1
1
1
1
1
1
1
1
1
1
1
1
1
1
1
1
1
1
1
1
1
1
1
1
1
1
1
1
1
1
1
1
1
1
1
1
1
1
1
1
1
1
1
1
1
1
1
1
0.999998
1.71444
7.9073
9.33915
9.21597
9.17874
9.15621
9.13849
9.11869
9.09491
9.06595
9.03164
8.99166
8.94748
8.89907
8.84646
8.78931
8.72728
8.66
8.58658
8.50701
8.42116
8.3288
8.22876
8.12338
8.0086
7.88288
7.75075
7.60978
7.46095
7.30759
7.14743
6.97437
6.80362
6.62232
6.4313
6.24234
6.04567
5.84188
1
1
1
1
1
1
1
1
1
1
1
1
1
1
1
1
1
1
1
1
1
1
1
1
1
1
1
1
1
1
1
1
1
1
1
1
1
1
1
1
1
1
1
1
1
1
1
1
1
1
1
1
1
1
1
1
1
1
1.04517
6.08775
9.01675
9.08564
9.11496
9.10678
9.0913
9.07098
9.04755
9.01861
8.98431
8.94431
8.89963
8.85043
8.79697
8.73901
8.67633
8.60877
8.53511
8.45557
8.36994
8.27771
8.17838
8.07354
7.95988
7.83775
7.70952
7.57194
7.42564
7.2765
7.11871
6.95328
6.78653
6.61024
6.42852
6.2489
6.05915
5.86039
1
1
1
1
1
1
1
1
1
1
1
1
1
1
1
1
1
1
1
1
1
1
1
1
1
1
1
1
1
1
1
1
1
1
1
1
1
1
1
1
1
1
1
1
1
1
1
1
1
1
1
1
1
1
1
1
1
1
1
3.43613
8.48548
9.10356
9.08928
9.06345
9.0521
9.03509
9.00887
8.97668
8.94049
8.89961
8.85406
8.80394
8.74949
8.69068
8.62726
8.5594
8.48567
8.40652
8.32128
8.22944
8.13116
8.02547
7.91413
7.79521
7.67077
7.53615
7.39372
7.24844
7.09441
6.93346
6.77023
6.60138
6.42786
6.25433
6.06924
5.87802
1
1
1
1
1
1
1
1
1
1
1
1
1
1
1
1
1
1
1
1
1
1
1
1
1
1
1
1
1
1
1
1
1
1
1
1
1
1
1
1
1
1
1
1
1
1
1
1
1
1
1
1
1
1
1
1
1
1
0.999993
1.39639
7.47538
9.25161
9.08876
9.04073
9.00927
8.99031
8.96027
8.92772
8.89295
8.85338
8.80856
8.75841
8.70362
8.64429
8.58025
8.51188
8.43799
8.35902
8.27403
8.18275
8.08513
7.98049
7.87024
7.75381
7.6325
7.50096
7.36367
7.22255
7.0719
6.91441
6.75699
6.59532
6.42654
6.2558
6.07713
5.89762
1
1
1
1
1
1
1
1
1
1
1
1
1
1
1
1
1
1
1
1
1
1
1
1
1
1
1
1
1
1
1
1
1
1
1
1
1
1
1
1
1
1
1
1
1
1
1
1
1
1
1
1
1
1
1
1
1
1
0.999999
1.01399
5.43015
8.78752
8.89664
8.94832
8.96933
8.9502
8.91453
8.88166
8.84783
8.80942
8.76515
8.71522
8.66019
8.60035
8.53573
8.4668
8.39268
8.31377
8.22913
8.13842
8.04159
7.93843
7.82924
7.71503
7.59554
7.46726
7.33521
7.19801
7.05074
6.89828
6.74704
6.58983
6.42442
6.25714
6.0878
5.91819
1
1
1
1
1
1
1
1
1
1
1
1
1
1
1
1
1
1
1
1
1
1
1
1
1
1
1
1
1
1
1
1
1
1
1
1
1
1
1
1
1
1
1
1
1
1
1
1
1
1
1
1
1
1
1
1
1
1
1
0.999923
2.75594
8.18109
8.96519
8.97207
8.95802
8.9099
8.87078
8.83981
8.80678
8.76802
8.72339
8.67342
8.61817
8.55798
8.49283
8.42324
8.34873
8.26963
8.18517
8.09494
7.99895
7.89725
7.78979
7.67779
7.5598
7.43498
7.30735
7.17343
7.03046
6.88485
6.73796
6.58294
6.42213
6.26032
6.10051
5.93677
1
1
1
1
1
1
1
1
1
1
1
1
1
1
1
1
1
1
1
1
1
1
1
1
1
1
1
1
1
1
1
1
1
1
1
1
1
1
1
1
1
1
1
1
1
1
1
1
1
1
1
1
1
1
1
1
1
1
1
0.99998
1.2271
6.70365
9.00318
8.94315
8.90542
8.85543
8.8239
8.79686
8.76344
8.72417
8.68031
8.63144
8.57712
8.51735
8.4521
8.38216
8.30731
8.22799
8.14359
8.0538
7.95875
7.85846
7.75299
7.64305
7.52675
7.40499
7.28037
7.14929
7.01155
6.87238
6.72818
6.57647
6.42189
6.26574
6.11251
5.95159
1
1
1
1
1
1
1
1
1
1
1
1
1
1
1
1
1
1
1
1
1
1
1
1
1
1
1
1
1
1
1
1
1
1
1
1
1
1
1
1
1
1
1
1
1
1
1
1
1
1
1
1
1
1
1
1
1
1
1
0.999997
1.00397
4.15974
8.50524
8.85041
8.83589
8.80167
8.79182
8.7674
8.72962
8.68688
8.64153
8.59254
8.53827
8.47829
8.41256
8.34201
8.2666
8.18707
8.10288
8.0138
7.91987
7.82107
7.71761
7.6098
7.49584
7.37693
7.25469
7.12657
6.99429
6.85949
6.71721
6.57115
6.42336
6.27158
6.12121
5.96309
1
1
1
1
1
1
1
1
1
1
1
1
1
1
1