/*--------------------------------*- C++ -*----------------------------------*\
  =========                 |
  \\      /  F ield         | OpenFOAM: The Open Source CFD Toolbox
   \\    /   O peration     | Website:  https://openfoam.org
    \\  /    A nd           | Version:  7
     \\/     M anipulation  |
\*---------------------------------------------------------------------------*/
FoamFile
{
    version     2.0;
    format      ascii;
    class       volScalarField;
    location    "3.6";
    object      rho;
}
// * * * * * * * * * * * * * * * * * * * * * * * * * * * * * * * * * * * * * //

dimensions      [1 -3 0 0 0 0 0];

internalField   nonuniform List<scalar> 
64512
(
1.40001
1.40001
1.40001
1.40001
1.40001
1.40001
1.40001
1.40001
1.40001
1.40001
1.40001
1.40001
1.40001
1.40001
1.40001
1.40001
1.40001
1.40001
1.40001
1.40001
1.40001
1.40001
1.40001
1.40001
1.40001
1.40001
1.40001
1.40001
1.40001
1.40001
1.40001
1.40001
1.40001
1.40001
1.40001
1.40001
1.40001
1.40001
1.40001
1.40001
1.40001
1.40001
1.40001
1.40001
1.40001
1.40001
1.40001
1.40001
1.40001
4.06528
5.41341
5.43877
5.45819
5.48083
5.50176
5.52183
5.54114
5.56054
5.58061
5.6012
5.62157
5.64098
5.65899
5.67568
5.69158
5.70738
5.72354
5.7401
5.75703
5.77413
5.79122
5.80786
5.82312
5.83678
5.84956
5.86218
5.87509
5.88832
5.90116
5.91258
5.92199
5.92944
5.93558
5.94156
5.94849
5.95692
5.96678
5.97742
5.98768
5.99608
6.00152
6.00382
6.00404
6.00337
6.00315
6.00346
1.40001
1.40001
1.40001
1.40001
1.40001
1.40001
1.40001
1.40001
1.40001
1.40001
1.40001
1.40001
1.40001
1.40001
1.40001
1.40001
1.40001
1.40001
1.40001
1.40001
1.40001
1.40001
1.40001
1.40001
1.40001
1.40001
1.40001
1.40001
1.40001
1.40001
1.40001
1.40001
1.40001
1.40001
1.40001
1.40001
1.40001
1.40001
1.40001
1.40001
1.40001
1.40001
1.40001
1.40001
1.40001
1.40001
1.40001
1.40001
1.40001
4.04615
5.40913
5.4376
5.45762
5.48022
5.50127
5.52147
5.54091
5.56035
5.58033
5.60083
5.62111
5.64043
5.65843
5.67518
5.69111
5.70684
5.72291
5.73937
5.75625
5.77341
5.7906
5.80738
5.82267
5.83626
5.84883
5.86121
5.87399
5.88727
5.90027
5.91183
5.92122
5.92851
5.93453
5.94052
5.94761
5.95622
5.9661
5.97655
5.9865
5.99466
6.00004
6.00247
6.00284
6.00221
6.00195
6.00221
1.40001
1.40001
1.40001
1.40001
1.40001
1.40001
1.40001
1.40001
1.40001
1.40001
1.40001
1.40001
1.40001
1.40001
1.40001
1.40001
1.40001
1.40001
1.40001
1.40001
1.40001
1.40001
1.40001
1.40001
1.40001
1.40001
1.40001
1.40001
1.40001
1.40001
1.40001
1.40001
1.40001
1.40001
1.40001
1.40001
1.40001
1.40001
1.40001
1.40001
1.40001
1.40001
1.40001
1.40001
1.40001
1.40001
1.40001
1.40001
1.40001
4.00874
5.40622
5.43512
5.45552
5.47809
5.49936
5.51984
5.53961
5.55931
5.57942
5.59998
5.62021
5.63939
5.65728
5.674
5.68993
5.7056
5.72161
5.73801
5.75484
5.77211
5.78944
5.80641
5.82174
5.83525
5.84755
5.85962
5.87221
5.88556
5.8988
5.91058
5.91997
5.92708
5.93291
5.93889
5.94618
5.95504
5.96499
5.9752
5.9847
5.99244
5.99769
6.00027
6.00084
6.00031
6.00002
6.00021
1.40001
1.40001
1.40001
1.40001
1.40001
1.40001
1.40001
1.40001
1.40001
1.40001
1.40001
1.40001
1.40001
1.40001
1.40001
1.40001
1.40001
1.40001
1.40001
1.40001
1.40001
1.40001
1.40001
1.40001
1.40001
1.40001
1.40001
1.40001
1.40001
1.40001
1.40001
1.40001
1.40001
1.40001
1.40001
1.40001
1.40001
1.40001
1.40001
1.40001
1.40001
1.40001
1.40001
1.40001
1.40001
1.40001
1.40001
1.40001
1.40001
3.95435
5.40243
5.43239
5.45263
5.47498
5.49636
5.51711
5.53732
5.5575
5.57796
5.59874
5.61901
5.63799
5.65559
5.67211
5.68791
5.70347
5.71948
5.7359
5.75275
5.77019
5.78765
5.80479
5.82009
5.83343
5.84537
5.8571
5.86956
5.88306
5.89658
5.90851
5.91783
5.92473
5.93044
5.93657
5.9442
5.95337
5.96332
5.97312
5.98197
5.9892
5.99428
5.99704
5.99784
5.99739
5.99705
5.99712
1.40001
1.40001
1.40001
1.40001
1.40001
1.40001
1.40001
1.40001
1.40001
1.40001
1.40001
1.40001
1.40001
1.40001
1.40001
1.40001
1.40001
1.40001
1.40001
1.40001
1.40001
1.40001
1.40001
1.40001
1.40001
1.40001
1.40001
1.40001
1.40001
1.40001
1.40001
1.40001
1.40001
1.40001
1.40001
1.40001
1.40001
1.40001
1.40001
1.40001
1.40001
1.40001
1.40001
1.40001
1.40001
1.40001
1.40001
1.40001
1.40001
3.88223
5.39712
5.42934
5.44874
5.47081
5.49215
5.51313
5.53385
5.55466
5.57571
5.59697
5.61749
5.63634
5.65354
5.66965
5.68513
5.7005
5.71656
5.73314
5.75014
5.76782
5.78537
5.80257
5.81771
5.83081
5.84237
5.85381
5.8662
5.87984
5.89355
5.90553
5.91472
5.92147
5.9272
5.93362
5.94167
5.95111
5.96096
5.97024
5.9784
5.9851
5.99006
5.99302
5.99407
5.99371
5.99328
5.99321
1.40001
1.40001
1.40001
1.40001
1.40001
1.40001
1.40001
1.40001
1.40001
1.40001
1.40001
1.40001
1.40001
1.40001
1.40001
1.40001
1.40001
1.40001
1.40001
1.40001
1.40001
1.40001
1.40001
1.40001
1.40001
1.40001
1.40001
1.40001
1.40001
1.40001
1.40001
1.40001
1.40001
1.40001
1.40001
1.40001
1.40001
1.40001
1.40001
1.40001
1.40001
1.40001
1.40001
1.40001
1.40001
1.40001
1.40001
1.40001
1.40001
3.79228
5.39024
5.42588
5.44394
5.46572
5.48695
5.50808
5.52928
5.55082
5.57263
5.59457
5.61559
5.63447
5.65128
5.66685
5.68182
5.69681
5.71285
5.72967
5.74693
5.76493
5.78255
5.79967
5.81449
5.82728
5.83851
5.84979
5.86219
5.8759
5.88962
5.9015
5.9106
5.91739
5.92338
5.93021
5.93864
5.9482
5.95777
5.96644
5.97391
5.98015
5.98502
5.98816
5.98941
5.98914
5.98862
5.98844
1.40001
1.40001
1.40001
1.40001
1.40001
1.40001
1.40001
1.40001
1.40001
1.40001
1.40001
1.40001
1.40001
1.40001
1.40001
1.40001
1.40001
1.40001
1.40001
1.40001
1.40001
1.40001
1.40001
1.40001
1.40001
1.40001
1.40001
1.40001
1.40001
1.40001
1.40001
1.40001
1.40001
1.40001
1.40001
1.40001
1.40001
1.40001
1.40001
1.40001
1.40001
1.40001
1.40001
1.40001
1.40001
1.40001
1.40001
1.40001
1.40001
3.68465
5.38166
5.42195
5.43851
5.46001
5.48107
5.50225
5.52381
5.546
5.56862
5.59135
5.6131
5.63231
5.64888
5.66389
5.67817
5.69253
5.70837
5.72539
5.74299
5.76139
5.77909
5.79606
5.81048
5.82292
5.8339
5.84509
5.85745
5.87108
5.8846
5.89632
5.90545
5.91255
5.91904
5.92636
5.93506
5.94453
5.95366
5.9617
5.96858
5.97446
5.97926
5.98251
5.98386
5.98361
5.98297
5.98269
1.40001
1.40001
1.40001
1.40001
1.40001
1.40001
1.40001
1.40001
1.40001
1.40001
1.40001
1.40001
1.40001
1.40001
1.40001
1.40001
1.40001
1.40001
1.40001
1.40001
1.40001
1.40001
1.40001
1.40001
1.40001
1.40001
1.40001
1.40001
1.40001
1.40001
1.40001
1.40001
1.40001
1.40001
1.40001
1.40001
1.40001
1.40001
1.40001
1.40001
1.40001
1.40001
1.40001
1.40001
1.40001
1.40001
1.40001
1.40001
1.40001
3.55879
5.37055
5.41779
5.43307
5.4543
5.47501
5.49606
5.51781
5.54054
5.56391
5.5874
5.60998
5.62976
5.64633
5.66083
5.67435
5.6879
5.70326
5.72034
5.73825
5.75705
5.77487
5.79171
5.80579
5.81794
5.82869
5.83972
5.85188
5.8652
5.87838
5.88997
5.89935
5.907
5.9141
5.92184
5.93058
5.93971
5.94827
5.95574
5.9622
5.96789
5.97271
5.97609
5.97753
5.97735
5.97665
5.97634
1.40001
1.40001
1.40001
1.40001
1.40001
1.40001
1.40001
1.40001
1.40001
1.40001
1.40001
1.40001
1.40001
1.40001
1.40001
1.40001
1.40001
1.40001
1.40001
1.40001
1.40001
1.40001
1.40001
1.40001
1.40001
1.40001
1.40001
1.40001
1.40001
1.40001
1.40001
1.40001
1.40001
1.40001
1.40001
1.40001
1.40001
1.40001
1.40001
1.40001
1.40001
1.40001
1.40001
1.40001
1.40001
1.40001
1.40001
1.40001
1.40001
3.41326
5.3547
5.41435
5.42889
5.44957
5.46941
5.48993
5.51158
5.53465
5.55867
5.58285
5.60629
5.6269
5.64373
5.65789
5.67064
5.68322
5.69778
5.71463
5.73264
5.75176
5.76978
5.78666
5.80061
5.8126
5.82307
5.83373
5.84541
5.85823
5.87108
5.88272
5.89258
5.90092
5.90861
5.91658
5.92509
5.93366
5.94161
5.9486
5.9548
5.96043
5.9653
5.96878
5.9703
5.97021
5.96952
5.96927
1.40001
1.40001
1.40001
1.40001
1.40001
1.40001
1.40001
1.40001
1.40001
1.40001
1.40001
1.40001
1.40001
1.40001
1.40001
1.40001
1.40001
1.40001
1.40001
1.40001
1.40001
1.40001
1.40001
1.40001
1.40001
1.40001
1.40001
1.40001
1.40001
1.40001
1.40001
1.40001
1.40001
1.40001
1.40001
1.40001
1.40001
1.40001
1.40001
1.40001
1.40001
1.40001
1.40001
1.40001
1.40001
1.40001
1.40001
1.40001
1.40001
3.24675
5.33003
5.4129
5.42752
5.4475
5.46567
5.48464
5.50555
5.52855
5.55289
5.57756
5.60175
5.62337
5.64085
5.655
5.6672
5.67881
5.69224
5.70843
5.72618
5.74539
5.76366
5.78076
5.79484
5.80678
5.81688
5.82695
5.83797
5.8503
5.86303
5.87502
5.88556
5.89461
5.90272
5.91062
5.91862
5.92648
5.9338
5.9404
5.94645
5.95205
5.95697
5.96048
5.96206
5.96207
5.96142
5.96128
1.40001
1.40001
1.40001
1.40001
1.40001
1.40001
1.40001
1.40001
1.40001
1.40001
1.40001
1.40001
1.40001
1.40001
1.40001
1.40001
1.40001
1.40001
1.40001
1.40001
1.40001
1.40001
1.40001
1.40001
1.40001
1.40001
1.40001
1.40001
1.40001
1.40001
1.40001
1.40001
1.40001
1.40001
1.40001
1.40001
1.40001
1.40001
1.40001
1.40001
1.40001
1.40001
1.40001
1.40001
1.40001
1.40001
1.40001
1.40001
1.40001
3.05963
5.29262
5.41447
5.42958
5.44902
5.46523
5.48196
5.50089
5.52293
5.54701
5.57183
5.59648
5.61911
5.63754
5.65212
5.66411
5.67483
5.68675
5.70179
5.7188
5.73786
5.75641
5.77389
5.78832
5.80025
5.80987
5.81912
5.82936
5.8413
5.85415
5.86672
5.87805
5.88773
5.89604
5.90366
5.91102
5.91816
5.92493
5.93124
5.93718
5.94277
5.94768
5.95119
5.95284
5.95294
5.95236
5.95238
1.40001
1.40001
1.40001
1.40001
1.40001
1.40001
1.40001
1.40001
1.40001
1.40001
1.40001
1.40001
1.40001
1.40001
1.40001
1.40001
1.40001
1.40001
1.40001
1.40001
1.40001
1.40001
1.40001
1.40001
1.40001
1.40001
1.40001
1.40001
1.40001
1.40001
1.40001
1.40001
1.40001
1.40001
1.40001
1.40001
1.40001
1.40001
1.40001
1.40001
1.40001
1.40001
1.40001
1.40001
1.40001
1.40001
1.40001
1.40001
1.40001
2.85375
5.24029
5.41846
5.43384
5.45294
5.46748
5.4821
5.49854
5.51846
5.54144
5.56598
5.59077
5.6143
5.63402
5.6496
5.66193
5.67202
5.68223
5.6956
5.71138
5.72993
5.74863
5.76635
5.78113
5.79297
5.80201
5.81034
5.81982
5.83151
5.84467
5.85788
5.8699
5.88001
5.8883
5.89545
5.90214
5.90865
5.91498
5.92108
5.92694
5.93247
5.93733
5.9408
5.94248
5.94268
5.94219
5.94233
1.40001
1.40001
1.40001
1.40001
1.40001
1.40001
1.40001
1.40001
1.40001
1.40001
1.40001
1.40001
1.40001
1.40001
1.40001
1.40001
1.40001
1.40001
1.40001
1.40001
1.40001
1.40001
1.40001
1.40001
1.40001
1.40001
1.40001
1.40001
1.40001
1.40001
1.40001
1.40001
1.40001
1.40001
1.40001
1.40001
1.40001
1.40001
1.40001
1.40001
1.40001
1.40001
1.40001
1.40001
1.40001
1.40001
1.40001
1.40001
1.40001
2.63494
5.17035
5.42101
5.43734
5.45715
5.47119
5.48423
5.49829
5.51549
5.53627
5.5597
5.58406
5.60807
5.629
5.6459
5.65906
5.66897
5.67769
5.68924
5.70354
5.72145
5.74031
5.75817
5.77334
5.78515
5.79373
5.80125
5.81006
5.82155
5.83497
5.84865
5.86109
5.87134
5.87938
5.88598
5.89202
5.89799
5.90397
5.90989
5.91566
5.9211
5.92587
5.92932
5.93104
5.93138
5.93097
5.93123
1.40001
1.40001
1.40001
1.40001
1.40001
1.40001
1.40001
1.40001
1.40001
1.40001
1.40001
1.40001
1.40001
1.40001
1.40001
1.40001
1.40001
1.40001
1.40001
1.40001
1.40001
1.40001
1.40001
1.40001
1.40001
1.40001
1.40001
1.40001
1.40001
1.40001
1.40001
1.40001
1.40001
1.40001
1.40001
1.40001
1.40001
1.40001
1.40001
1.40001
1.40001
1.40001
1.40001
1.40001
1.40001
1.40001
1.40001
1.40001
1.40001
2.40659
5.07884
5.42256
5.43941
5.46046
5.4753
5.48782
5.49986
5.51432
5.53229
5.55359
5.57693
5.60097
5.62299
5.64135
5.65576
5.66595
5.6735
5.68303
5.69545
5.71225
5.73098
5.74881
5.76438
5.77637
5.78489
5.79197
5.8003
5.81158
5.82507
5.83887
5.85135
5.86147
5.86913
5.87519
5.88069
5.88622
5.89188
5.89761
5.90324
5.90854
5.9132
5.9166
5.91835
5.91881
5.91847
5.91884
1.40001
1.40001
1.40001
1.40001
1.40001
1.40001
1.40001
1.40001
1.40001
1.40001
1.40001
1.40001
1.40001
1.40001
1.40001
1.40001
1.40001
1.40001
1.40001
1.40001
1.40001
1.40001
1.40001
1.40001
1.40001
1.40001
1.40001
1.40001
1.40001
1.40001
1.40001
1.40001
1.40001
1.40001
1.40001
1.40001
1.40001
1.40001
1.40001
1.40001
1.40001
1.40001
1.40001
1.40001
1.40001
1.40001
1.40001
1.40001
1.40001
2.17834
4.96106
5.42632
5.44099
5.46223
5.47811
5.49177
5.5038
5.51651
5.53177
5.55018
5.57141
5.59444
5.61674
5.636
5.65168
5.66266
5.66973
5.67742
5.68784
5.70304
5.72119
5.73887
5.75477
5.76708
5.77583
5.78272
5.7906
5.80146
5.81467
5.82823
5.84043
5.85025
5.85753
5.86315
5.86822
5.87335
5.87867
5.88409
5.8895
5.89464
5.8992
5.90259
5.90441
5.90502
5.90476
5.90525
1.40001
1.40001
1.40001
1.40001
1.40001
1.40001
1.40001
1.40001
1.40001
1.40001
1.40001
1.40001
1.40001
1.40001
1.40001
1.40001
1.40001
1.40001
1.40001
1.40001
1.40001
1.40001
1.40001
1.40001
1.40001
1.40001
1.40001
1.40001
1.40001
1.40001
1.40001
1.40001
1.40001
1.40001
1.40001
1.40001
1.40001
1.40001
1.40001
1.40001
1.40001
1.40001
1.40001
1.40001
1.40001
1.40001
1.40001
1.40001
1.40001
1.95622
4.81224
5.43149
5.44229
5.46299
5.47944
5.49505
5.50789
5.52002
5.53309
5.54858
5.56703
5.5882
5.61011
5.62988
5.6468
5.65906
5.66647
5.67284
5.68135
5.69431
5.71122
5.72844
5.74446
5.75717
5.76645
5.77339
5.78079
5.79094
5.80351
5.81649
5.82818
5.83765
5.84465
5.84997
5.85472
5.85949
5.86438
5.86938
5.87446
5.87938
5.88381
5.88715
5.889
5.8897
5.88949
5.89006
1.40001
1.40001
1.40001
1.40001
1.40001
1.40001
1.40001
1.40001
1.40001
1.40001
1.40001
1.40001
1.40001
1.40001
1.40001
1.40001
1.40001
1.40001
1.40001
1.40001
1.40001
1.40001
1.40001
1.40001
1.40001
1.40001
1.40001
1.40001
1.40001
1.40001
1.40001
1.40001
1.40001
1.40001
1.40001
1.40001
1.40001
1.40001
1.40001
1.40001
1.40001
1.40001
1.40001
1.40001
1.40001
1.40001
1.40001
1.40001
1.40001
1.75499
4.63901
5.44593
5.44057
5.46059
5.47685
5.49437
5.50975
5.5225
5.53436
5.54754
5.56333
5.5822
5.60306
5.62292
5.64077
5.65457
5.66307
5.66885
5.67587
5.68638
5.70163
5.7181
5.73403
5.74716
5.75704
5.7641
5.77087
5.77992
5.79141
5.80349
5.81451
5.82361
5.83043
5.83558
5.84006
5.84441
5.84876
5.85319
5.8578
5.86246
5.8668
5.87014
5.87206
5.87288
5.87274
5.87339
1.40001
1.40001
1.40001
1.40001
1.40001
1.40001
1.40001
1.40001
1.40001
1.40001
1.40001
1.40001
1.40001
1.40001
1.40001
1.40001
1.40001
1.40001
1.40001
1.40001
1.40001
1.40001
1.40001
1.40001
1.40001
1.40001
1.40001
1.40001
1.40001
1.40001
1.40001
1.40001
1.40001
1.40001
1.40001
1.40001
1.40001
1.40001
1.40001
1.40001
1.40001
1.40001
1.40001
1.40001
1.40001
1.40001
1.40001
1.40001
1.40001
1.56973
4.41595
5.44507
5.43373
5.45079
5.46687
5.48499
5.50197
5.51725
5.53134
5.54538
5.56006
5.57673
5.59589
5.61526
5.6334
5.64852
5.65856
5.66465
5.67088
5.67932
5.69275
5.70814
5.72375
5.7371
5.74749
5.75462
5.76064
5.76828
5.77831
5.78924
5.79946
5.80816
5.81487
5.81994
5.82421
5.82814
5.83189
5.83566
5.8397
5.844
5.84816
5.85142
5.85331
5.85414
5.85399
5.85462
1.40001
1.40001
1.40001
1.40001
1.40001
1.40001
1.40001
1.40001
1.40001
1.40001
1.40001
1.40001
1.40001
1.40001
1.40001
1.40001
1.40001
1.40001
1.40001
1.40001
1.40001
1.40001
1.40001
1.40001
1.40001
1.40001
1.40001
1.40001
1.40001
1.40001
1.40001
1.40001
1.40001
1.40001
1.40001
1.40001
1.40001
1.40001
1.40001
1.40001
1.40001
1.40001
1.40001
1.40001
1.40001
1.40001
1.40001
1.40001
1.40001
1.42276
4.16339
5.40798
5.41
5.43153
5.45234
5.47369
5.49207
5.50891
5.52509
5.54045
5.55513
5.57061
5.58802
5.60634
5.6242
5.64026
5.6521
5.65945
5.66577
5.67295
5.68458
5.6986
5.71352
5.72681
5.73746
5.74459
5.74986
5.75595
5.76429
5.77386
5.78315
5.79138
5.79797
5.80296
5.80698
5.81043
5.81348
5.81643
5.81975
5.82357
5.82748
5.83067
5.83257
5.83344
5.83331
5.83393
1.40001
1.40001
1.40001
1.40001
1.40001
1.40001
1.40001
1.40001
1.40001
1.40001
1.40001
1.40001
1.40001
1.40001
1.40001
1.40001
1.40001
1.40001
1.40001
1.40001
1.40001
1.40001
1.40001
1.40001
1.40001
1.40001
1.40001
1.40001
1.40001
1.40001
1.40001
1.40001
1.40001
1.40001
1.40001
1.40001
1.40001
1.40001
1.40001
1.40001
1.40001
1.40001
1.40001
1.40001
1.40001
1.40001
1.40001
1.40001
1.40001
1.40041
3.83123
5.32809
5.3814
5.40835
5.43171
5.45289
5.47287
5.4921
5.51071
5.52869
5.54497
5.56071
5.57751
5.59525
5.61287
5.62949
5.64303
5.65228
5.65959
5.66655
5.6767
5.68925
5.70307
5.71597
5.72663
5.73372
5.73838
5.743
5.74953
5.75756
5.76578
5.77337
5.77969
5.78454
5.78826
5.79119
5.79353
5.79565
5.79814
5.80131
5.8048
5.80776
5.80953
5.81026
5.81
5.81048
1.40001
1.40001
1.40001
1.40001
1.40001
1.40001
1.40001
1.40001
1.40001
1.40001
1.40001
1.40001
1.40001
1.40001
1.40001
1.40001
1.40001
1.40001
1.40001
1.40001
1.40001
1.40001
1.40001
1.40001
1.40001
1.40001
1.40001
1.40001
1.40001
1.40001
1.40001
1.40001
1.40001
1.40001
1.40001
1.40001
1.40001
1.40001
1.40001
1.40001
1.40001
1.40001
1.40001
1.40001
1.40001
1.40001
1.40001
1.40001
1.40001
1.40001
3.49043
5.26087
5.34914
5.38469
5.41372
5.43826
5.46026
5.47993
5.49827
5.51633
5.53335
5.5497
5.56598
5.5827
5.59956
5.61619
5.63106
5.64232
5.65133
5.65911
5.66837
5.67962
5.69208
5.70431
5.71472
5.72176
5.72595
5.72934
5.73409
5.74047
5.74745
5.75419
5.76005
5.76457
5.76786
5.77017
5.77169
5.77284
5.77431
5.77662
5.77952
5.7822
5.78388
5.78452
5.78415
5.78454
1.40001
1.40001
1.40001
1.40001
1.40001
1.40001
1.40001
1.40001
1.40001
1.40001
1.40001
1.40001
1.40001
1.40001
1.40001
1.40001
1.40001
1.40001
1.40001
1.40001
1.40001
1.40001
1.40001
1.40001
1.40001
1.40001
1.40001
1.40001
1.40001
1.40001
1.40001
1.40001
1.40001
1.40001
1.40001
1.40001
1.40001
1.40001
1.40001
1.40001
1.40001
1.40001
1.40001
1.40001
1.40001
1.40001
1.40001
1.40001
1.40001
1.40001
3.11783
5.1884
5.33596
5.37084
5.39812
5.42286
5.44525
5.46557
5.48461
5.50318
5.52072
5.53704
5.55279
5.56839
5.58429
5.6004
5.61581
5.62905
5.63997
5.64929
5.65848
5.66895
5.68009
5.69148
5.70145
5.70845
5.7124
5.71489
5.71804
5.72274
5.72831
5.73395
5.73901
5.74295
5.74564
5.7472
5.7479
5.74811
5.74851
5.74976
5.75181
5.75393
5.75521
5.75541
5.75467
5.7548
1.40001
1.40001
1.40001
1.40001
1.40001
1.40001
1.40001
1.40001
1.40001
1.40001
1.40001
1.40001
1.40001
1.40001
1.40001
1.40001
1.40001
1.40001
1.40001
1.40001
1.40001
1.40001
1.40001
1.40001
1.40001
1.40001
1.40001
1.40001
1.40001
1.40001
1.40001
1.40001
1.40001
1.40001
1.40001
1.40001
1.40001
1.40001
1.40001
1.40001
1.40001
1.40001
1.40001
1.40001
1.40001
1.40001
1.40001
1.40001
1.40001
1.40001
2.7294
5.09788
5.34702
5.36978
5.39727
5.41923
5.43794
5.45532
5.47214
5.48908
5.50647
5.52305
5.53858
5.55365
5.56871
5.58371
5.59927
5.61282
5.62534
5.63645
5.64615
5.65638
5.66657
5.67712
5.6866
5.69362
5.69757
5.6995
5.70131
5.70431
5.7083
5.71256
5.71651
5.71956
5.72142
5.72208
5.72183
5.7209
5.71994
5.71975
5.72065
5.72206
5.72289
5.7227
5.72168
5.72168
1.40001
1.40001
1.40001
1.40001
1.40001
1.40001
1.40001
1.40001
1.40001
1.40001
1.40001
1.40001
1.40001
1.40001
1.40001
1.40001
1.40001
1.40001
1.40001
1.40001
1.40001
1.40001
1.40001
1.40001
1.40001
1.40001
1.40001
1.40001
1.40001
1.40001
1.40001
1.40001
1.40001
1.40001
1.40001
1.40001
1.40001
1.40001
1.40001
1.40001
1.40001
1.40001
1.40001
1.40001
1.40001
1.40001
1.40001
1.40001
1.40001
1.40001
2.33645
4.95718
5.38895
5.38988
5.40474
5.41748
5.43316
5.45024
5.46634
5.48158
5.49627
5.51036
5.52412
5.53797
5.55213
5.56639
5.58098
5.59598
5.60792
5.6202
5.63072
5.6412
5.65101
5.66088
5.66993
5.67703
5.68117
5.68286
5.68365
5.68506
5.68736
5.69
5.6925
5.69431
5.69512
5.69478
5.69337
5.69119
5.68871
5.68698
5.6865
5.68671
5.68651
5.6853
5.68347
5.68291
1.40001
1.40001
1.40001
1.40001
1.40001
1.40001
1.40001
1.40001
1.40001
1.40001
1.40001
1.40001
1.40001
1.40001
1.40001
1.40001
1.40001
1.40001
1.40001
1.40001
1.40001
1.40001
1.40001
1.40001
1.40001
1.40001
1.40001
1.40001
1.40001
1.40001
1.40001
1.40001
1.40001
1.40001
1.40001
1.40001
1.40001
1.40001
1.40001
1.40001
1.40001
1.40001
1.40001
1.40001
1.40001
1.40001
1.40001
1.40001
1.40001
1.40001
1.9346
4.78471
5.45523
5.41728
5.42723
5.4338
5.44251
5.45253
5.46378
5.47634
5.48896
5.50116
5.51279
5.52433
5.53628
5.54894
5.56204
5.57598
5.58958
5.60148
5.61236
5.62284
5.63292
5.6424
5.65117
5.65838
5.66291
5.66464
5.66479
5.66478
5.66531
5.66614
5.66687
5.66715
5.66668
5.66501
5.66225
5.65844
5.65397
5.65019
5.64755
5.64589
5.64442
5.64233
5.64
5.63934
1.40001
1.40001
1.40001
1.40001
1.40001
1.40001
1.40001
1.40001
1.40001
1.40001
1.40001
1.40001
1.40001
1.40001
1.40001
1.40001
1.40001
1.40001
1.40001
1.40001
1.40001
1.40001
1.40001
1.40001
1.40001
1.40001
1.40001
1.40001
1.40001
1.40001
1.40001
1.40001
1.40001
1.40001
1.40001
1.40001
1.40001
1.40001
1.40001
1.40001
1.40001
1.40001
1.40001
1.40001
1.40001
1.40001
1.40001
1.40001
1.40001
1.40001
1.56067
4.49149
5.4931
5.44008
5.43622
5.43908
5.44654
5.45641
5.46705
5.47754
5.48698
5.49547
5.50399
5.51325
5.52327
5.53378
5.54516
5.55708
5.56942
5.58121
5.59173
5.60215
5.61213
5.62143
5.63007
5.63739
5.64238
5.64441
5.64435
5.64316
5.64198
5.64087
5.63968
5.63819
5.63593
5.6326
5.62814
5.62232
5.61571
5.60973
5.60482
5.6007
5.59664
5.59228
5.58825
5.58636
1.40001
1.40001
1.40001
1.40001
1.40001
1.40001
1.40001
1.40001
1.40001
1.40001
1.40001
1.40001
1.40001
1.40001
1.40001
1.40001
1.40001
1.40001
1.40001
1.40001
1.40001
1.40001
1.40001
1.40001
1.40001
1.40001
1.40001
1.40001
1.40001
1.40001
1.40001
1.40001
1.40001
1.40001
1.40001
1.40001
1.40001
1.40001
1.40001
1.40001
1.40001
1.40001
1.40001
1.40001
1.40001
1.40001
1.40001
1.40001
1.40001
1.40001
1.40639
4.07944
5.3975
5.38159
5.41165
5.4306
5.44518
5.4567
5.46862
5.47942
5.48761
5.49386
5.49949
5.50555
5.51267
5.52078
5.52992
5.53999
5.55058
5.561
5.57062
5.57946
5.58914
5.59842
5.60667
5.61396
5.61935
5.62189
5.62195
5.61986
5.61707
5.61402
5.61076
5.60715
5.60276
5.59747
5.59083
5.58245
5.57315
5.56386
5.55513
5.54705
5.53949
5.53265
5.52742
5.52559
1.40001
1.40001
1.40001
1.40001
1.40001
1.40001
1.40001
1.40001
1.40001
1.40001
1.40001
1.40001
1.40001
1.40001
1.40001
1.40001
1.40001
1.40001
1.40001
1.40001
1.40001
1.40001
1.40001
1.40001
1.40001
1.40001
1.40001
1.40001
1.40001
1.40001
1.40001
1.40001
1.40001
1.40001
1.40001
1.40001
1.40001
1.40001
1.40001
1.40001
1.40001
1.40001
1.40001
1.40001
1.40001
1.40001
1.40001
1.40001
1.40001
1.40001
1.40001
3.56755
5.25075
5.33748
5.38243
5.40851
5.4308
5.44882
5.46299
5.47392
5.48413
5.49169
5.49685
5.50104
5.50577
5.51129
5.51765
5.52489
5.53308
5.54166
5.54987
5.55746
5.56497
5.57342
5.58144
5.58834
5.59384
5.59683
5.59719
5.59447
5.59036
5.58541
5.57999
5.57403
5.56728
5.55947
5.54991
5.53852
5.52572
5.51249
5.49957
5.48722
5.47504
5.46274
5.45223
5.44594
1.40001
1.40001
1.40001
1.40001
1.40001
1.40001
1.40001
1.40001
1.40001
1.40001
1.40001
1.40001
1.40001
1.40001
1.40001
1.40001
1.40001
1.40001
1.40001
1.40001
1.40001
1.40001
1.40001
1.40001
1.40001
1.40001
1.40001
1.40001
1.40001
1.40001
1.40001
1.40001
1.40001
1.40001
1.40001
1.40001
1.40001
1.40001
1.40001
1.40001
1.40001
1.40001
1.40001
1.40001
1.40001
1.40001
1.40001
1.40001
1.40001
1.40001
1.4
3.09619
5.13321
5.2934
5.34561
5.38705
5.41289
5.43065
5.4473
5.46321
5.47593
5.48515
5.4922
5.49691
5.50066
5.50436
5.50831
5.51271
5.51792
5.52382
5.52992
5.53582
5.54147
5.54802
5.55504
5.56127
5.56637
5.56933
5.56988
5.56676
5.56162
5.55489
5.54727
5.53873
5.52915
5.51822
5.50531
5.49025
5.47319
5.45478
5.43523
5.41444
5.39297
5.37279
5.35693
5.35101
1.40001
1.40001
1.40001
1.40001
1.40001
1.40001
1.40001
1.40001
1.40001
1.40001
1.40001
1.40001
1.40001
1.40001
1.40001
1.40001
1.40001
1.40001
1.40001
1.40001
1.40001
1.40001
1.40001
1.40001
1.40001
1.40001
1.40001
1.40001
1.40001
1.40001
1.40001
1.40001
1.40001
1.40001
1.40001
1.40001
1.40001
1.40001
1.40001
1.40001
1.40001
1.40001
1.40001
1.40001
1.40001
1.40001
1.40001
1.40001
1.40001
1.40001
1.40001
2.6133
4.98266
5.29567
5.34326
5.37421
5.3967
5.41602
5.43099
5.44548
5.45929
5.472
5.48169
5.48873
5.49386
5.49769
5.5006
5.50289
5.50533
5.50829
5.51159
5.51514
5.51846
5.52294
5.52821
5.53308
5.53738
5.53986
5.53994
5.5365
5.53065
5.52234
5.51246
5.50113
5.4884
5.47391
5.45705
5.43744
5.41481
5.38938
5.36138
5.33146
5.30031
5.26904
5.23667
5.21027
1.40001
1.40001
1.40001
1.40001
1.40001
1.40001
1.40001
1.40001
1.40001
1.40001
1.40001
1.40001
1.40001
1.40001
1.40001
1.40001
1.40001
1.40001
1.40001
1.40001
1.40001
1.40001
1.40001
1.40001
1.40001
1.40001
1.40001
1.40001
1.40001
1.40001
1.40001
1.40001
1.40001
1.40001
1.40001
1.40001
1.40001
1.40001
1.40001
1.40001
1.40001
1.40001
1.40001
1.40001
1.40001
1.40001
1.40001
1.40001
1.40001
1.40001
1.40001
2.10087
4.80984
5.37016
5.35965
5.37054
5.3838
5.39928
5.41474
5.42846
5.44165
5.45415
5.46553
5.47542
5.483
5.48856
5.49212
5.49382
5.49448
5.49496
5.49538
5.49616
5.49673
5.49857
5.50158
5.50456
5.50714
5.50873
5.50802
5.50408
5.49729
5.48751
5.47537
5.46122
5.44503
5.4265
5.40497
5.37987
5.35055
5.31688
5.27836
5.2338
5.18012
5.11711
5.0557
5.0123
1.40001
1.40001
1.40001
1.40001
1.40001
1.40001
1.40001
1.40001
1.40001
1.40001
1.40001
1.40001
1.40001
1.40001
1.40001
1.40001
1.40001
1.40001
1.40001
1.40001
1.40001
1.40001
1.40001
1.40001
1.40001
1.40001
1.40001
1.40001
1.40001
1.40001
1.40001
1.40001
1.40001
1.40001
1.40001
1.40001
1.40001
1.40001
1.40001
1.40001
1.40001
1.40001
1.40001
1.40001
1.40001
1.40001
1.40001
1.40001
1.40001
1.40001
1.40001
1.60752
4.55262
5.46084
5.39198
5.37716
5.38104
5.39073
5.40162
5.41261
5.4245
5.43665
5.4481
5.45826
5.46731
5.47483
5.48011
5.48281
5.48332
5.48245
5.4807
5.47887
5.47674
5.47547
5.47547
5.47617
5.4764
5.47636
5.47426
5.46958
5.46166
5.45038
5.4361
5.4191
5.39927
5.37629
5.34945
5.31801
5.28078
5.23666
5.18349
5.11862
5.03992
4.94525
4.8388
4.76179
1.40001
1.40001
1.40001
1.40001
1.40001
1.40001
1.40001
1.40001
1.40001
1.40001
1.40001
1.40001
1.40001
1.40001
1.40001
1.40001
1.40001
1.40001
1.40001
1.40001
1.40001
1.40001
1.40001
1.40001
1.40001
1.40001
1.40001
1.40001
1.40001
1.40001
1.40001
1.40001
1.40001
1.40001
1.40001
1.40001
1.40001
1.40001
1.40001
1.40001
1.40001
1.40001
1.40001
1.40001
1.40001
1.40001
1.40001
1.40001
1.40001
1.40001
1.40001
1.40882
4.04441
5.35644
5.34837
5.36827
5.37865
5.38779
5.39624
5.4033
5.41134
5.42062
5.43074
5.44067
5.44969
5.45775
5.46437
5.46872
5.47026
5.46933
5.46666
5.4629
5.45848
5.45401
5.45077
5.44861
5.44612
5.44333
5.43931
5.43323
5.42398
5.4111
5.39463
5.37473
5.35117
5.32349
5.29084
5.25225
5.20588
5.14977
5.08062
4.99413
4.87907
4.7063
4.36087
3.4583
1.40001
1.40001
1.40001
1.40001
1.40001
1.40001
1.40001
1.40001
1.40001
1.40001
1.40001
1.40001
1.40001
1.40001
1.40001
1.40001
1.40001
1.40001
1.40001
1.40001
1.40001
1.40001
1.40001
1.40001
1.40001
1.40001
1.40001
1.40001
1.40001
1.40001
1.40001
1.40001
1.40001
1.40001
1.40001
1.40001
1.40001
1.40001
1.40001
1.40001
1.40001
1.40001
1.40001
1.40001
1.40001
1.40001
1.40001
1.40001
1.40001
1.40001
1.40001
1.39996
3.39973
5.17479
5.30672
5.34789
5.36917
5.38126
5.39058
5.39666
5.40192
5.4078
5.41492
5.42292
5.43101
5.43872
5.44557
5.45096
5.45385
5.45384
5.45135
5.44686
5.44107
5.43421
5.42771
5.42211
5.41668
5.41058
5.4039
5.39558
5.38452
5.36988
5.35121
5.32842
5.30112
5.26865
5.2299
5.18363
5.12748
5.05837
4.97122
4.85637
4.69602
4.43886
4.02972
3.01421
1.40001
1.40001
1.40001
1.40001
1.40001
1.40001
1.40001
1.40001
1.40001
1.40001
1.40001
1.40001
1.40001
1.40001
1.40001
1.40001
1.40001
1.40001
1.40001
1.40001
1.40001
1.40001
1.40001
1.40001
1.40001
1.40001
1.40001
1.40001
1.40001
1.40001
1.40001
1.40001
1.40001
1.40001
1.40001
1.40001
1.40001
1.40001
1.40001
1.40001
1.40001
1.40001
1.40001
1.40001
1.40001
1.40001
1.40001
1.40001
1.40001
1.40001
1.40001
1.4
2.82211
5.03217
5.2895
5.32941
5.35618
5.37271
5.37999
5.38685
5.39247
5.3972
5.40194
5.40738
5.41338
5.4196
5.42558
5.43073
5.43443
5.43541
5.43373
5.42938
5.42328
5.41512
5.40599
5.39705
5.38845
5.3789
5.3688
5.35747
5.34383
5.32697
5.30595
5.28028
5.24931
5.21213
5.16731
5.11321
5.04704
4.96501
4.86002
4.72223
4.52437
4.25405
3.71176
2.87639
1.40001
1.40001
1.40001
1.40001
1.40001
1.40001
1.40001
1.40001
1.40001
1.40001
1.40001
1.40001
1.40001
1.40001
1.40001
1.40001
1.40001
1.40001
1.40001
1.40001
1.40001
1.40001
1.40001
1.40001
1.40001
1.40001
1.40001
1.40001
1.40001
1.40001
1.40001
1.40001
1.40001
1.40001
1.40001
1.40001
1.40001
1.40001
1.40001
1.40001
1.40001
1.40001
1.40001
1.40001
1.40001
1.40001
1.40001
1.40001
1.40001
1.40001
1.40001
1.4
2.21884
4.83192
5.3297
5.33122
5.34409
5.35713
5.3678
5.37662
5.38318
5.38814
5.3918
5.39499
5.39826
5.4019
5.40583
5.40969
5.41293
5.41435
5.41338
5.40949
5.40381
5.39544
5.38494
5.37329
5.36144
5.34878
5.33478
5.31972
5.30275
5.28296
5.25931
5.23079
5.19627
5.15463
5.10403
5.04254
4.96675
4.87316
4.75255
4.59724
4.37732
4.06856
3.53564
2.85046
1.40001
1.40001
1.40001
1.40001
1.40001
1.40001
1.40001
1.40001
1.40001
1.40001
1.40001
1.40001
1.40001
1.40001
1.40001
1.40001
1.40001
1.40001
1.40001
1.40001
1.40001
1.40001
1.40001
1.40001
1.40001
1.40001
1.40001
1.40001
1.40001
1.40001
1.40001
1.40001
1.40001
1.40001
1.40001
1.40001
1.40001
1.40001
1.40001
1.40001
1.40001
1.40001
1.40001
1.40001
1.40001
1.40001
1.40001
1.40001
1.40001
1.40001
1.40001
1.4
1.64466
4.5794
5.41982
5.3599
5.3394
5.34428
5.35495
5.36408
5.37144
5.3771
5.38095
5.38339
5.38493
5.38621
5.38762
5.3893
5.39099
5.3921
5.39111
5.38747
5.38199
5.37394
5.36313
5.34983
5.33535
5.31993
5.30217
5.28305
5.26213
5.23871
5.21174
5.18019
5.14226
5.09655
5.04074
4.9728
4.88869
4.78515
4.65295
4.48235
4.25409
3.92797
3.45169
2.90821
1.40001
1.40001
1.40001
1.40001
1.40001
1.40001
1.40001
1.40001
1.40001
1.40001
1.40001
1.40001
1.40001
1.40001
1.40001
1.40001
1.40001
1.40001
1.40001
1.40001
1.40001
1.40001
1.40001
1.40001
1.40001
1.40001
1.40001
1.40001
1.40001
1.40001
1.40001
1.40001
1.40001
1.40001
1.40001
1.40001
1.40001
1.40001
1.40001
1.40001
1.40001
1.40001
1.40001
1.40001
1.40001
1.40001
1.40001
1.40001
1.40001
1.40001
1.40001
1.40001
1.4118
4.00196
5.29326
5.30272
5.32057
5.33138
5.34249
5.35092
5.3581
5.36402
5.36835
5.37101
5.37204
5.37199
5.37134
5.37059
5.37006
5.36972
5.3677
5.36374
5.35819
5.35018
5.33946
5.32581
5.30979
5.29193
5.27111
5.24807
5.22288
5.19531
5.16438
5.12924
5.0879
5.03863
4.97827
4.90498
4.81438
4.7029
4.56297
4.38347
4.15018
3.83544
3.4269
2.97857
1.40001
1.40001
1.40001
1.40001
1.40001
1.40001
1.40001
1.40001
1.40001
1.40001
1.40001
1.40001
1.40001
1.40001
1.40001
1.40001
1.40001
1.40001
1.40001
1.40001
1.40001
1.40001
1.40001
1.40001
1.40001
1.40001
1.40001
1.40001
1.40001
1.40001
1.40001
1.40001
1.40001
1.40001
1.40001
1.40001
1.40001
1.40001
1.40001
1.40001
1.40001
1.40001
1.40001