/*--------------------------------*- C++ -*----------------------------------*\
  =========                 |
  \\      /  F ield         | OpenFOAM: The Open Source CFD Toolbox
   \\    /   O peration     | Website:  https://openfoam.org
    \\  /    A nd           | Version:  7
     \\/     M anipulation  |
\*---------------------------------------------------------------------------*/
FoamFile
{
    version     2.0;
    format      ascii;
    class       volScalarField;
    location    "3.6";
    object      T;
}
// * * * * * * * * * * * * * * * * * * * * * * * * * * * * * * * * * * * * * //

dimensions      [0 0 0 1 0 0 0];

internalField   nonuniform List<scalar> 
64512
(
1
1
1
1
1
1
1
1
1
1
1
1
1
1
1
1
1
1
1
1
1
1
1
1
1
1
1
1
1
1
1
1
1
1
1
1
1
1
1
1
1
1
1
1
1
1
1
1
1
2.2917
2.68558
2.69208
2.69669
2.70186
2.70668
2.71128
2.7156
2.71971
2.72361
2.72719
2.73031
2.73297
2.73538
2.73792
2.741
2.74489
2.74947
2.75419
2.75836
2.76153
2.76376
2.76552
2.76735
2.76972
2.77287
2.77649
2.77997
2.78279
2.78483
2.78633
2.78768
2.78914
2.79074
2.79245
2.79431
2.79639
2.79868
2.80104
2.80319
2.80488
2.8061
2.80712
2.80812
2.80909
2.80991
2.81029
1
1
1
1
1
1
1
1
1
1
1
1
1
1
1
1
1
1
1
1
1
1
1
1
1
1
1
1
1
1
1
1
1
1
1
1
1
1
1
1
1
1
1
1
1
1
1
1
1
2.28669
2.68502
2.692
2.6967
2.70185
2.70668
2.71128
2.7156
2.71969
2.72355
2.7271
2.7302
2.73285
2.73527
2.73784
2.74096
2.74485
2.74941
2.7541
2.75823
2.76139
2.76362
2.76541
2.76725
2.76962
2.77274
2.77633
2.77978
2.7826
2.78467
2.78619
2.78754
2.78897
2.79055
2.79226
2.79416
2.79626
2.79856
2.80088
2.80297
2.80461
2.80582
2.80686
2.80789
2.80887
2.80969
2.81006
1
1
1
1
1
1
1
1
1
1
1
1
1
1
1
1
1
1
1
1
1
1
1
1
1
1
1
1
1
1
1
1
1
1
1
1
1
1
1
1
1
1
1
1
1
1
1
1
1
2.27538
2.68459
2.69185
2.69667
2.70181
2.70664
2.71123
2.71552
2.71957
2.72337
2.72687
2.72994
2.73259
2.73505
2.73769
2.74088
2.74481
2.74936
2.75398
2.75803
2.76114
2.76335
2.76517
2.76705
2.76945
2.77255
2.77609
2.7795
2.78231
2.78439
2.78595
2.78731
2.78871
2.79025
2.79197
2.7939
2.79606
2.79836
2.80064
2.80264
2.8042
2.80539
2.80644
2.80752
2.80853
2.80933
2.80968
1
1
1
1
1
1
1
1
1
1
1
1
1
1
1
1
1
1
1
1
1
1
1
1
1
1
1
1
1
1
1
1
1
1
1
1
1
1
1
1
1
1
1
1
1
1
1
1
1
2.25861
2.68365
2.69178
2.69672
2.70187
2.70669
2.71124
2.71546
2.7194
2.72307
2.72649
2.72953
2.73219
2.73471
2.73746
2.74076
2.74476
2.7493
2.75384
2.75776
2.76077
2.76294
2.76478
2.76669
2.76912
2.77222
2.77572
2.7791
2.7819
2.784
2.78557
2.78691
2.78828
2.78981
2.79156
2.79356
2.79576
2.79806
2.80026
2.80213
2.80359
2.80475
2.80584
2.80696
2.80799
2.80878
2.80911
1
1
1
1
1
1
1
1
1
1
1
1
1
1
1
1
1
1
1
1
1
1
1
1
1
1
1
1
1
1
1
1
1
1
1
1
1
1
1
1
1
1
1
1
1
1
1
1
1
2.2364
2.68211
2.69163
2.69667
2.7019
2.70676
2.71125
2.71535
2.71912
2.72263
2.72593
2.72893
2.73163
2.73425
2.73715
2.7406
2.74469
2.74925
2.75371
2.75747
2.76034
2.76241
2.76423
2.76616
2.76864
2.77176
2.77526
2.77862
2.7814
2.78349
2.78503
2.78634
2.78768
2.78922
2.79103
2.79311
2.79536
2.79764
2.79973
2.80147
2.80283
2.80396
2.80509
2.80627
2.80732
2.80809
2.80839
1
1
1
1
1
1
1
1
1
1
1
1
1
1
1
1
1
1
1
1
1
1
1
1
1
1
1
1
1
1
1
1
1
1
1
1
1
1
1
1
1
1
1
1
1
1
1
1
1
2.20836
2.67986
2.69129
2.69646
2.70186
2.70679
2.71126
2.71523
2.71879
2.72206
2.72518
2.72813
2.73087
2.73363
2.73673
2.74037
2.74458
2.74918
2.75355
2.75714
2.75985
2.76177
2.76353
2.76545
2.76798
2.77116
2.77472
2.77808
2.78083
2.78284
2.78431
2.78557
2.78692
2.78851
2.79041
2.79256
2.79484
2.79706
2.79903
2.80063
2.8019
2.80302
2.80419
2.80541
2.80648
2.80723
2.80752
1
1
1
1
1
1
1
1
1
1
1
1
1
1
1
1
1
1
1
1
1
1
1
1
1
1
1
1
1
1
1
1
1
1
1
1
1
1
1
1
1
1
1
1
1
1
1
1
1
2.17412
2.67665
2.69054
2.69598
2.70172
2.7068
2.7113
2.71513
2.71844
2.7214
2.72426
2.72709
2.72987
2.73277
2.73611
2.74001
2.74439
2.74904
2.75335
2.75676
2.75928
2.76102
2.76268
2.76456
2.76715
2.77044
2.77409
2.77746
2.78014
2.78204
2.7834
2.78462
2.786
2.78771
2.78972
2.79192
2.79417
2.7963
2.79815
2.79964
2.80084
2.80194
2.80314
2.80439
2.80547
2.80619
2.80646
1
1
1
1
1
1
1
1
1
1
1
1
1
1
1
1
1
1
1
1
1
1
1
1
1
1
1
1
1
1
1
1
1
1
1
1
1
1
1
1
1
1
1
1
1
1
1
1
1
2.13319
2.67239
2.68911
2.69508
2.70139
2.70679
2.71137
2.71512
2.71817
2.72077
2.72326
2.72586
2.72858
2.7316
2.73519
2.7394
2.74402
2.74879
2.75307
2.75632
2.75864
2.76018
2.76169
2.76351
2.76617
2.76959
2.77336
2.77673
2.7793
2.78104
2.78228
2.78348
2.78494
2.78678
2.78888
2.7911
2.79328
2.7953
2.79703
2.79844
2.7996
2.80071
2.80194
2.80322
2.80432
2.80503
2.8053
1
1
1
1
1
1
1
1
1
1
1
1
1
1
1
1
1
1
1
1
1
1
1
1
1
1
1
1
1
1
1
1
1
1
1
1
1
1
1
1
1
1
1
1
1
1
1
1
1
2.08476
2.66719
2.68666
2.6934
2.70053
2.70653
2.7114
2.71515
2.71799
2.72025
2.72232
2.72456
2.72711
2.73011
2.73388
2.73841
2.74336
2.74835
2.75269
2.75581
2.75793
2.75924
2.76059
2.76235
2.76507
2.76864
2.77251
2.77586
2.77829
2.77986
2.781
2.7822
2.78377
2.78574
2.78791
2.79009
2.79216
2.79405
2.79568
2.79704
2.7982
2.79932
2.80056
2.80187
2.803
2.80372
2.804
1
1
1
1
1
1
1
1
1
1
1
1
1
1
1
1
1
1
1
1
1
1
1
1
1
1
1
1
1
1
1
1
1
1
1
1
1
1
1
1
1
1
1
1
1
1
1
1
1
2.02777
2.66094
2.68301
2.69061
2.69862
2.70543
2.71098
2.71502
2.71782
2.71982
2.72148
2.7233
2.72551
2.72833
2.73211
2.73691
2.74226
2.74759
2.75211
2.75518
2.75711
2.75821
2.75939
2.76106
2.76382
2.7675
2.77146
2.7748
2.77712
2.77857
2.77965
2.78088
2.78255
2.7846
2.78679
2.78889
2.79082
2.79257
2.79412
2.79545
2.79661
2.79775
2.79899
2.80033
2.80149
2.80222
2.80253
1
1
1
1
1
1
1
1
1
1
1
1
1
1
1
1
1
1
1
1
1
1
1
1
1
1
1
1
1
1
1
1
1
1
1
1
1
1
1
1
1
1
1
1
1
1
1
1
1
1.96084
2.65278
2.67828
2.68667
2.69553
2.70321
2.70963
2.71438
2.71751
2.71946
2.72084
2.72222
2.72397
2.72639
2.72994
2.73482
2.74055
2.74631
2.75118
2.75434
2.75617
2.75708
2.75807
2.75962
2.76235
2.76609
2.77012
2.77347
2.77575
2.77714
2.77819
2.77946
2.7812
2.78331
2.78547
2.78747
2.78927
2.7909
2.79238
2.79369
2.79486
2.796
2.79724
2.79859
2.79979
2.80054
2.8009
1
1
1
1
1
1
1
1
1
1
1
1
1
1
1
1
1
1
1
1
1
1
1
1
1
1
1
1
1
1
1
1
1
1
1
1
1
1
1
1
1
1
1
1
1
1
1
1
1
1.88172
2.64084
2.67329
2.6821
2.69144
2.69982
2.70711
2.71281
2.71672
2.71902
2.72035
2.72139
2.72266
2.72451
2.72758
2.73231
2.73829
2.74452
2.74992
2.75337
2.7552
2.75596
2.75671
2.75806
2.76064
2.76435
2.76844
2.77188
2.7742
2.77558
2.77664
2.77792
2.77968
2.78179
2.78391
2.78581
2.78748
2.78902
2.79044
2.79174
2.7929
2.79405
2.79529
2.79664
2.79785
2.79865
2.79904
1
1
1
1
1
1
1
1
1
1
1
1
1
1
1
1
1
1
1
1
1
1
1
1
1
1
1
1
1
1
1
1
1
1
1
1
1
1
1
1
1
1
1
1
1
1
1
1
1
1.78978
2.62278
2.67007
2.67819
2.68707
2.69548
2.70337
2.70995
2.71492
2.71806
2.71967
2.72053
2.72137
2.72262
2.72501
2.72928
2.73529
2.74197
2.74807
2.75207
2.75411
2.7548
2.7553
2.75638
2.75871
2.76234
2.76652
2.77012
2.77254
2.77396
2.775
2.77624
2.77795
2.78001
2.78208
2.7839
2.78548
2.78693
2.78831
2.78959
2.79075
2.79188
2.79312
2.79447
2.79572
2.79656
2.79698
1
1
1
1
1
1
1
1
1
1
1
1
1
1
1
1
1
1
1
1
1
1
1
1
1
1
1
1
1
1
1
1
1
1
1
1
1
1
1
1
1
1
1
1
1
1
1
1
1
1.6844
2.59703
2.6697
2.67598
2.6835
2.69104
2.69868
2.70575
2.7117
2.71594
2.7183
2.71938
2.72006
2.72087
2.72255
2.72609
2.73177
2.7387
2.74549
2.75026
2.75271
2.75343
2.7537
2.75447
2.75648
2.76001
2.76431
2.76816
2.77078
2.77226
2.77325
2.77439
2.77599
2.77796
2.77997
2.78174
2.78326
2.78464
2.78597
2.78722
2.78836
2.78949
2.79072
2.79207
2.79335
2.79422
2.79467
1
1
1
1
1
1
1
1
1
1
1
1
1
1
1
1
1
1
1
1
1
1
1
1
1
1
1
1
1
1
1
1
1
1
1
1
1
1
1
1
1
1
1
1
1
1
1
1
1
1.56465
2.56131
2.67135
2.67512
2.6809
2.68698
2.69372
2.70074
2.7073
2.7126
2.71611
2.71789
2.71872
2.71928
2.7203
2.72294
2.72797
2.73485
2.74217
2.74782
2.75092
2.75184
2.75191
2.7524
2.75407
2.75742
2.76184
2.76598
2.76885
2.77041
2.77134
2.77233
2.77376
2.77563
2.7776
2.77935
2.78082
2.78213
2.7834
2.7846
2.78571
2.78684
2.78808
2.78943
2.79074
2.79165
2.79212
1
1
1
1
1
1
1
1
1
1
1
1
1
1
1
1
1
1
1
1
1
1
1
1
1
1
1
1
1
1
1
1
1
1
1
1
1
1
1
1
1
1
1
1
1
1
1
1
1
1.43229
2.51361
2.67311
2.67466
2.67898
2.68362
2.68927
2.6954
2.70186
2.70798
2.71276
2.71566
2.71701
2.7176
2.71821
2.72003
2.72419
2.73067
2.73823
2.74471
2.74859
2.74988
2.74987
2.75014
2.75146
2.75459
2.75907
2.76349
2.76665
2.76833
2.76919
2.77002
2.77128
2.77305
2.77499
2.77673
2.77817
2.77941
2.78059
2.78172
2.78281
2.78391
2.78515
2.78651
2.78784
2.78876
2.78925
1
1
1
1
1
1
1
1
1
1
1
1
1
1
1
1
1
1
1
1
1
1
1
1
1
1
1
1
1
1
1
1
1
1
1
1
1
1
1
1
1
1
1
1
1
1
1
1
1
1.29041
2.45233
2.67481
2.67362
2.67736
2.68079
2.68529
2.69037
2.69626
2.70261
2.70836
2.71244
2.71464
2.71559
2.71609
2.71735
2.72062
2.72641
2.7338
2.74087
2.74555
2.74745
2.74757
2.74776
2.74878
2.75162
2.75603
2.76065
2.76411
2.76594
2.76676
2.76745
2.76854
2.77019
2.77211
2.77387
2.77527
2.77643
2.77749
2.77854
2.77958
2.78068
2.78192
2.78328
2.78464
2.78559
2.78609
1
1
1
1
1
1
1
1
1
1
1
1
1
1
1
1
1
1
1
1
1
1
1
1
1
1
1
1
1
1
1
1
1
1
1
1
1
1
1
1
1
1
1
1
1
1
1
1
1
1.14236
2.38176
2.67487
2.67299
2.6762
2.67903
2.68254
2.6868
2.69201
2.69789
2.70378
2.70853
2.71156
2.71313
2.71385
2.71487
2.71738
2.72224
2.72908
2.73633
2.74172
2.74445
2.74496
2.7452
2.74604
2.74854
2.75274
2.75744
2.76114
2.76317
2.76401
2.76459
2.76554
2.76709
2.76897
2.77074
2.77212
2.77319
2.77414
2.77508
2.77605
2.77712
2.77835
2.77971
2.78106
2.78202
2.78252
1
1
1
1
1
1
1
1
1
1
1
1
1
1
1
1
1
1
1
1
1
1
1
1
1
1
1
1
1
1
1
1
1
1
1
1
1
1
1
1
1
1
1
1
1
1
1
1
1
1.01803
2.318
2.67519
2.67387
2.67686
2.67976
2.6833
2.68711
2.69108
2.69536
2.7
2.70447
2.70799
2.71024
2.71146
2.71251
2.71452
2.71842
2.72435
2.7313
2.73717
2.74077
2.74193
2.74237
2.74315
2.74532
2.74919
2.75381
2.7577
2.75998
2.76091
2.76145
2.76229
2.76372
2.76555
2.76731
2.76867
2.76965
2.77045
2.77126
2.77215
2.77317
2.77438
2.77573
2.7771
2.77807
2.77858
1
1
1
1
1
1
1
1
1
1
1
1
1
1
1
1
1
1
1
1
1
1
1
1
1
1
1
1
1
1
1
1
1
1
1
1
1
1
1
1
1
1
1
1
1
1
1
1
1
1.00023
2.23088
2.67397
2.67588
2.67837
2.68131
2.68427
2.68733
2.69046
2.69375
2.69743
2.70118
2.70461
2.7073
2.70908
2.71038
2.71211
2.71515
2.71995
2.72614
2.73208
2.73641
2.73836
2.73917
2.74001
2.74191
2.74536
2.74978
2.75378
2.75634
2.75746
2.75801
2.75876
2.76007
2.76183
2.76356
2.7649
2.76579
2.76646
2.76712
2.76789
2.76883
2.76999
2.77131
2.77265
2.7736
2.77408
1
1
1
1
1
1
1
1
1
1
1
1
1
1
1
1
1
1
1
1
1
1
1
1
1
1
1
1
1
1
1
1
1
1
1
1
1
1
1
1
1
1
1
1
1
1
1
1
1
1
2.12215
2.66714
2.67565
2.6797
2.6836
2.68671
2.6893
2.69173
2.69431
2.69714
2.70004
2.70291
2.70541
2.70732
2.70873
2.71027
2.71259
2.71621
2.72129
2.72684
2.73151
2.73425
2.73554
2.73653
2.73823
2.74126
2.74537
2.74939
2.75222
2.7536
2.75424
2.75495
2.75613
2.75777
2.75945
2.76074
2.76155
2.76207
2.76255
2.76316
2.76399
2.76508
2.76638
2.76769
2.76861
2.76909
1
1
1
1
1
1
1
1
1
1
1
1
1
1
1
1
1
1
1
1
1
1
1
1
1
1
1
1
1
1
1
1
1
1
1
1
1
1
1
1
1
1
1
1
1
1
1
1
1
1
1.98418
2.64305
2.67362
2.67892
2.68314
2.68665
2.68956
2.69215
2.69466
2.69724
2.69978
2.70217
2.70437
2.7062
2.70764
2.70898
2.7107
2.7133
2.71713
2.72186
2.7264
2.72969
2.73147
2.73269
2.73425
2.73687
2.7406
2.74456
2.74763
2.74932
2.75011
2.75081
2.75187
2.75336
2.75493
2.75617
2.75691
2.7573
2.75759
2.75801
2.75867
2.75963
2.76084
2.76207
2.7629
2.76333
1
1
1
1
1
1
1
1
1
1
1
1
1
1
1
1
1
1
1
1
1
1
1
1
1
1
1
1
1
1
1
1
1
1
1
1
1
1
1
1
1
1
1
1
1
1
1
1
1
1
1.82213
2.60004
2.66485
2.67402
2.68124
2.68581
2.6891
2.69172
2.69403
2.69642
2.69895
2.70141
2.70368
2.70563
2.70713
2.70826
2.7096
2.71126
2.71392
2.7176
2.72155
2.72496
2.7271
2.72853
2.72999
2.73224
2.73554
2.73933
2.74256
2.74457
2.74557
2.74628
2.74722
2.74854
2.74998
2.75114
2.75181
2.75202
2.75208
2.75224
2.75269
2.75347
2.75456
2.75571
2.75649
2.7569
1
1
1
1
1
1
1
1
1
1
1
1
1
1
1
1
1
1
1
1
1
1
1
1
1
1
1
1
1
1
1
1
1
1
1
1
1
1
1
1
1
1
1
1
1
1
1
1
1
1
1.63403
2.53407
2.65055
2.66395
2.67369
2.67964
2.68463
2.68863
2.6917
2.69456
2.69737
2.70006
2.70258
2.70479
2.7065
2.70767
2.70868
2.71006
2.7116
2.71418
2.71728
2.7204
2.72265
2.72419
2.72554
2.72743
2.73025
2.73376
2.73704
2.73933
2.74056
2.74131
2.74215
2.74328
2.74457
2.74564
2.74615
2.74622
2.74606
2.74596
2.74611
2.74662
2.74745
2.74839
2.74904
2.74934
1
1
1
1
1
1
1
1
1
1
1
1
1
1
1
1
1
1
1
1
1
1
1
1
1
1
1
1
1
1
1
1
1
1
1
1
1
1
1
1
1
1
1
1
1
1
1
1
1
1
1.38529
2.44467
2.64418
2.64858
2.65951
2.66881
2.67603
2.68127
2.68547
2.68948
2.69344
2.69725
2.70063
2.70339
2.7054
2.70673
2.70763
2.70861
2.70991
2.71155
2.71374
2.71622
2.71836
2.71984
2.72104
2.72254
2.72483
2.72792
2.73112
2.73358
2.73503
2.73586
2.73661
2.73754
2.73863
2.73953
2.73991
2.73977
2.73931
2.73881
2.73856
2.7387
2.73922
2.73998
2.74053
2.74081
1
1
1
1
1
1
1
1
1
1
1
1
1
1
1
1
1
1
1
1
1
1
1
1
1
1
1
1
1
1
1
1
1
1
1
1
1
1
1
1
1
1
1
1
1
1
1
1
1
1
1.11352
2.35557
2.64721
2.64305
2.64788
2.65553
2.66372
2.67062
2.6764
2.68159
2.68671
2.69175
2.69646
2.70043
2.70334
2.70517
2.70632
2.70715
2.70809
2.70928
2.71076
2.7126
2.71436
2.71565
2.71662
2.71771
2.71938
2.72192
2.72489
2.72734
2.72897
2.72987
2.73053
2.73127
2.73213
2.7328
2.73298
2.73261
2.73183
2.73091
2.73017
2.72985
2.7299
2.73017
2.73038
2.73041
1
1
1
1
1
1
1
1
1
1
1
1
1
1
1
1
1
1
1
1
1
1
1
1
1
1
1
1
1
1
1
1
1
1
1
1
1
1
1
1
1
1
1
1
1
1
1
1
1
1
1.00355
2.28266
2.64687
2.6398
2.64497
2.65013
2.65593
2.66127
2.66681
2.67233
2.67801
2.68394
2.68981
2.69507
2.69921
2.70207
2.70391
2.70513
2.70611
2.70708
2.70815
2.70933
2.71071
2.71178
2.71242
2.71304
2.71408
2.71593
2.71844
2.72066
2.72235
2.72331
2.72387
2.72441
2.72499
2.72537
2.72528
2.72464
2.72344
2.72193
2.72041
2.71924
2.71862
2.71846
2.71842
2.71844
1
1
1
1
1
1
1
1
1
1
1
1
1
1
1
1
1
1
1
1
1
1
1
1
1
1
1
1
1
1
1
1
1
1
1
1
1
1
1
1
1
1
1
1
1
1
1
1
1
1
1
2.15349
2.65053
2.64881
2.65007
2.65153
2.65402
2.65718
2.66049
2.66424
2.66921
2.67513
2.68144
2.6875
2.69277
2.69686
2.69977
2.70176
2.70322
2.70441
2.70546
2.70642
2.70731
2.70811
2.70849
2.70864
2.70903
2.71009
2.71191
2.71368
2.71524
2.71617
2.71662
2.71691
2.71715
2.71719
2.71679
2.71573
2.71399
2.7118
2.70947
2.7074
2.70581
2.70456
2.7035
2.70268
1
1
1
1
1
1
1
1
1
1
1
1
1
1
1
1
1
1
1
1
1
1
1
1
1
1
1
1
1
1
1
1
1
1
1
1
1
1
1
1
1
1
1
1
1
1
1
1
1
1
1
1.98346
2.63839
2.65367
2.65369
2.65529
2.65618
2.6572
2.65846
2.66057
2.6635
2.66762
2.67302
2.6789
2.68457
2.68955
2.69355
2.69659
2.6989
2.70068
2.70209
2.70321
2.70404
2.7046
2.7047
2.70451
2.70431
2.70457
2.70552
2.70658
2.70776
2.70851
2.70875
2.70875
2.70862
2.70823
2.70737
2.7058
2.70341
2.70032
2.69671
2.69291
2.68938
2.68652
2.68441
2.68366
1
1
1
1
1
1
1
1
1
1
1
1
1
1
1
1
1
1
1
1
1
1
1
1
1
1
1
1
1
1
1
1
1
1
1
1
1
1
1
1
1
1
1
1
1
1
1
1
1
1
1
1.76945
2.57728
2.65177
2.65462
2.65707
2.65828
2.65885
2.65903
2.65947
2.66065
2.66306
2.66653
2.671
2.67603
2.68107
2.68567
2.68959
2.69284
2.69548
2.69756
2.69919
2.70029
2.70092
2.70089
2.70049
2.69981
2.69937
2.69947
2.69959
2.70008
2.70039
2.70033
2.69999
2.69938
2.69845
2.697
2.69476
2.6915
2.68717
2.68192
2.67626
2.67073
2.6655
2.65974
2.6545
1
1
1
1
1
1
1
1
1
1
1
1
1
1
1
1
1
1
1
1
1
1
1
1
1
1
1
1
1
1
1
1
1
1
1
1
1
1
1
1
1
1
1
1
1
1
1
1
1
1
1
1.47725
2.46019
2.64301
2.64749
2.65194
2.65502
2.65727
2.65871
2.65947
2.66022
2.66122
2.66293
2.66558
2.66902
2.67304
2.67731
2.68148
2.68533
2.68873
2.69158
2.69393
2.69561
2.69664
2.69677
2.69635
2.69543
2.69443
2.6936
2.69281
2.69242
2.69205
2.69148
2.69063
2.68942
2.68782
2.68562
2.68254
2.6782
2.67241
2.66513
2.65646
2.64617
2.63415
2.62202
2.61294
1
1
1
1
1
1
1
1
1
1
1
1
1
1
1
1
1
1
1
1
1
1
1
1
1
1
1
1
1
1
1
1
1
1
1
1
1
1
1
1
1
1
1
1
1
1
1
1
1
1
1
1.13209
2.34264
2.63453
2.63188
2.63732
2.64445
2.65079
2.65507
2.65756
2.65905
2.66014
2.66121
2.66248
2.66432
2.66681
2.6699
2.67343
2.67719
2.68084
2.68419
2.68721
2.68967
2.69135
2.6919
2.6917
2.69086
2.68955
2.68789
2.68629
2.68492
2.68367
2.68235
2.68079
2.67883
2.6764
2.67329
2.66917
2.6635
2.65583
2.6457
2.63275
2.61676
2.59779
2.57951
2.57185
1
1
1
1
1
1
1
1
1
1
1
1
1
1
1
1
1
1
1
1
1
1
1
1
1
1
1
1
1
1
1
1
1
1
1
1
1
1
1
1
1
1
1
1
1
1
1
1
1
1
1
1.00457
2.25268
2.62202
2.61998
2.62642
2.6335
2.64085
2.64744
2.65226
2.65558
2.65774
2.65922
2.66035
2.66141
2.6627
2.66444
2.66675
2.66963
2.67283
2.67606
2.67929
2.68232
2.68475
2.68608
2.68626
2.68569
2.68433
2.68229
2.67997
2.67765
2.6754
2.67311
2.67062
2.66773
2.6643
2.66008
2.65468
2.64741
2.63757
2.62431
2.60673
2.58249
2.54602
2.48059
2.34092
1
1
1
1
1
1
1
1
1
1
1
1
1
1
1
1
1
1
1
1
1
1
1
1
1
1
1
1
1
1
1
1
1
1
1
1
1
1
1
1
1
1
1
1
1
1
1
1
1
1
1
0.999996
2.08696
2.61468
2.62322
2.62696
2.62984
2.63387
2.63924
2.64457
2.64922
2.65289
2.65555
2.65737
2.65859
2.65955
2.66051
2.66172
2.6634
2.66563
2.66805
2.67084
2.67391
2.67682
2.679
2.67987
2.67961
2.67849
2.67644
2.67368
2.67058
2.66733
2.66396
2.66036
2.65634
2.65171
2.64617
2.63927
2.6302
2.61795
2.60113
2.5775
2.543
2.48751
2.40581
2.1912
1
1
1
1
1
1
1
1
1
1
1
1
1
1
1
1
1
1
1
1
1
1
1
1
1
1
1
1
1
1
1
1
1
1
1
1
1
1
1
1
1
1
1
1
1
1
1
1
1
1
1
0.999998
1.86247
2.5847
2.62861
2.62829
2.62978
2.63189
2.634
2.63745
2.64171
2.64601
2.64976
2.6527
2.65479
2.65618
2.65711
2.65779
2.65857
2.65966
2.66104
2.6628
2.6652
2.66797
2.67063
2.67226
2.67251
2.67179
2.67
2.66715
2.66353
2.65944
2.65499
2.65017
2.64486
2.63884
2.63179
2.62319
2.61215
2.59742
2.57705
2.54852
2.50564
2.44606
2.32388
2.11578
1
1
1
1
1
1
1
1
1
1
1
1
1
1
1
1
1
1
1
1
1
1
1
1
1
1
1
1
1
1
1
1
1
1
1
1
1
1
1
1
1
1
1
1
1
1
1
1
1
1
1
1
1.54194
2.47927
2.62491
2.62516
2.62748
2.62907
2.63075
2.63295
2.63581
2.63931
2.64304
2.64655
2.6495
2.65172
2.65321
2.65403
2.65443
2.65474
2.65518
2.65574
2.65703
2.65899
2.66142
2.66351
2.6644
2.66406
2.66268
2.66006
2.65626
2.65159
2.64623
2.64025
2.63355
2.62601
2.61728
2.60686
2.59373
2.57668
2.55315
2.52088
2.47297
2.40303
2.27414
2.0869
1
1
1
1
1
1
1
1
1
1
1
1
1
1
1
1
1
1
1
1
1
1
1
1
1
1
1
1
1
1
1
1
1
1
1
1
1
1
1
1
1
1
1
1
1
1
1
1
1
1
1
1
1.15196
2.34786
2.62125
2.61718
2.61922
2.62279
2.62636
2.62883
2.63107
2.6336
2.63655
2.63979
2.64303
2.64592
2.6482
2.64968
2.65028
2.65029
2.65012
2.64975
2.64991
2.65065
2.65217
2.65404
2.65527
2.65526
2.65435
2.65214
2.64849
2.64356
2.63753
2.63056
2.62256
2.61348
2.60298
2.59067
2.57548
2.55623
2.53029
2.49472
2.4447
2.36919
2.2501
2.1015
1
1
1
1
1
1
1
1
1
1
1
1
1
1
1
1
1
1
1
1
1
1
1
1
1
1
1
1
1
1
1
1
1
1
1
1
1
1
1
1
1
1
1
1
1
1
1
1
1
1
1
1
1.00599
2.23414
2.60295
2.6037
2.60903
2.61483
2.62012
2.62371
2.6263
2.62854
2.63082
2.63341
2.6363
2.6393
2.64203
2.64422
2.64544
2.64567
2.64524
2.64441
2.64366
2.64329
2.64363
2.64458
2.64556
2.64573
2.64509
2.64327
2.63994
2.63509
2.62874
2.62106
2.61197
2.60148
2.58924
2.57505
2.5579
2.53661
2.50888
2.47135
2.41992
2.3461
2.24299
2.11997
1
1
1
1
1
1
1
1
1
1
1
1
1
1
1
1
1
1
1
1
1
1
1
1
1
1
1
1
1
1
1
1
1
1
1
1
1
1
1
1
1
1
1
1
1
1
1
1
1
1
1
1
0.999993
2.02986
2.58514
2.60424
2.60792
2.6111
2.61438
2.61796
2.621
2.62344
2.62555
2.62764
2.62998
2.63257
2.63522
2.63772
2.63956
2.64035
2.64008
2.63922
2.63802
2.6368
2.63599
2.6358
2.63592
2.63579
2.63511
2.63346
2.63046
2.62588
2.61957
2.61153
2.60166
2.59006
2.5763
2.56034
2.54139
2.51834
2.48928
2.45109
2.39959
2.33171
2.24228
2.13716
1
1
1
1
1
1
1
1
1
1
1
1
1
1
1
1
1
1
1
1
1
1
1
1
1
1
1
1
1
1
1
1
1
1
1
1
1
1
1
1
1
1
1
1
1
1
1
1
1
1
1
1
0.999997
1.73116
2.52561
2.60176
2.60466
2.60711
2.60977
2.6126
2.61545
2.61801
2.62018
2.62211
2.62405
2.62612
2.62833
2.63066
2.63275
2.63408
2.63423
2.63365
2.63243
2.63083
2.62921
2.6279
2.62694
2.62603
2.62484
2.62302
2.62014
2.61584
2.60978
2.60175
2.59153
2.57914
2.56428
2.54686
2.5263
2.50177
2.47186
2.43352
2.38415
2.32198
2.24397
2.15529
1
1
1
1
1
1
1
1
1
1
1
1
1
1
1
1
1
1
1
1
1
1
1
1
1
1
1
1
1
1
1
1
1
1
1
1
1
1
1
1
1
1
1
1
1
1
1
1
1
1
1
1
0.999999
1.3338
2.4004
2.59701
2.59635
2.59995
2.60424
2.60738
2.61014
2.61263
2.61483
2.61676
2.61853
2.62015
2.62185
2.6237
2.62554
2.62706
2.62767
2.62738
2.62642
2.62484
2.62285
2.62075
2.61876
2.61683
2.61477
2.61238
2.60927
2.60505
2.59923
2.59145
2.5813
2.56856
2.55305
2.53462
2.51286
2.48715
2.4568
2.41852
2.37225
2.31569
2.24682
2.17226
1
1
1
1
1
1
1
1
1
1
1
1
1
1
1
1
1
1
1
1
1
1
1
1
1
1
1
1
1
1
1
1
1
1
1
1
1
1
1
1
1
1
1
1
1
1
1
1
1
1
1
1
1
1.03068
2.26527
2.59777
2.59338
2.59457
2.59827
2.60156
2.60439
2.60687
2.60911
2.61114
2.6128
2.61427
2.61563
2.617
2.61838
2.61971
2.62051
2.62045
2.61981
2.61846
2.61646
2.61399
2.61126
2.60841
2.60537
2.60208
2.59835
2.59385
2.58806
2.58052
2.57069
2.55808
2.54243
2.5235
2.50106
2.47459
2.44401
2.40623
2.36311
2.31166
2.25029
2.1867
1
1
1
1
1
1
1
1
1
1
1
1
1
1
1
1
1
1
1
1
1
1
1
1
1
1
1
1
1
1
1
1
1
1
1
1
1
1
1
1
1
1
1
1
1
1
1
1
1
1
1
1
1
1.00016
2.06188
2.56863
2.58189
2.5888
2.59271
2.59555
2.59841
2.60094
2.60325
2.60525
2.6069
2.60835
2.60953
2.61058
2.61151
2.6124
2.61303
2.61305
2.6126
2.61149
2.60965
2.60714
2.60405
2.60055
2.59667
2.59245
2.58783
2.58268
2.5766
2.5691
2.55958
2.54739
2.53208
2.51325
2.49069
2.46399
2.43356
2.39658
2.35637
2.30868
2.25368
2.1977
1
1
1
1
1
1
1
1
1
1
1
1
1
1
1
1
1
1
1
1
1
1
1
1
1
1
1
1
1
1
1
1
1
1
1
1
1
1
1
1
1
1
1
1
1
1
1
1
1
1
1
1
1
0.999999
1.73212
2.50555
2.58201
2.58437
2.58639
2.58962
2.59251
2.59508
2.59741
2.59927
2.6009
2.60234
2.60346
2.60433
2.60496
2.60541
2.60566
2.60555
2.60507
2.60405
2.60237
2.59996
2.5968
2.59299
2.58856
2.5836
2.57807
2.57205
2.56531
2.55751
2.54807
2.53631
2.52162
2.50341
2.48133
2.45516
2.42497
2.38942
2.35184
2.30638
2.25712
2.20618
1
1
1
1
1
1
1
1
1
1
1
1
1
1
1
1
1
1
1
1
1
1
1
1
1
1
1
1
1
1
1
1
1
1
1
1
1
1
1
1
1
1
1
1
1
1
1
1
1
1
1
1
1
1
1.29215
2.37748
2.57624
2.57332
2.57643
2.58173
2.5856
2.58864
2.59103
2.59294
2.59458
2.59601
2.59715
2.59797
2.59846
2.59856
2.59846
2.59809
2.5974
2.59628
2.59462
2.5923
2.58923
2.58537
2.58071
2.57528
2.56908
2.56221
2.55464
2.54623
2.53654
2.52499
2.51091
2.49359
2.47251
2.44751
2.41786
2.38453
2.34869
2.30539
2.26122
2.21346
1
1
1
1
1
1
1
1
1
1
1
1
1
1
1
1
1
1
1
1
1
1
1
1
1
1
1
1
1
1
1
1
1
1
1
1
1
1
1
1
1
1
1
1
1
1
1
1
1
1
1
1
1
1
1.02189
2.24461
2.57062
2.5662
2.5693
2.57387
2.57805
2.58156
2.58418
2.5863
2.58805
2.58951
2.5907
2.59153
2.59195
2.59188
2.59154
2.59087
2.58988
2.58852
2.58671
2.58436
2.58134
2.57754
2.57287
2.56726
2.56068
2.55322
2.54486
2.53567
2.52543
2.51375
2.50005
2.48357
2.46377
2.44016
2.41192
2.38115
2.34618
2.3056
2.26566
2.22058
1
1
1
1
1
1
1
1
1
1
1
1
1
1
1
1
1
1
1
1
1
1
1
1
1
1
1
1
1
1
1
1
1
1
1
1
1
1
1
1
1
1
1
1
1
1
1
1
1
1
1
1
1
1
1.00007
1.99641
2.53715
2.55913
2.56524
2.56899
2.57194
2.57454
2.577
2.57918
2.58102
2.58255
2.58383
2.58473
2.58518
2.58507
2.58461
2.58374
2.58247
2.58084
2.57878
2.57627
2.5732
2.56944
2.56483
2.55925
2.55256
2.54477
2.53589
2.52605
2.51514
2.50306
2.48941
2.47349
2.45488
2.43263
2.40676
2.37815
2.34396
2.30698
2.2701
2.22731
1
1
1
1
1
1
1
1
1
1
1
1
1
1
1
1
1
1
1
1
1
1
1
1
1
1
1
1
1
1
1
1
1
1
1
1
1
1
1
1
1
1
1
1
1
1
1
1
1
1
1
1
1
1
1
1.58257
2.4514
2.56331
2.56293
2.56398
2.56607
2.56824
2.57025
2.57216
2.5739
2.57541
2.57672
2.57771
2.57823
2.57813
2.57765
2.57668
2.57523
2.57336
2.57105
2.5683
2.56504
2.56119
2.5566
2.55108
2.54447
2.53664
2.52754
2.51729
2.50586
2.49328
2.47942
2.46368
2.44595
2.4249
2.40142
2.37435
2.34237
2.30953
2.27405
2.23348
1
1
1
1
1
1
1
1
1
1
1
1
1
1
1
1
1
1
1
1
1
1
1
1
1
1
1
1
1
1
1
1
1
1
1
1
1
1
1
1
1
1
1
1
1
1
1
1
1
1
1
1
1
1
1
1.09342
2.30508
2.56295
2.55587
2.55692
2.55914
2.56154
2.56333
2.56502
2.56659
2.56799
2.56926
2.5703
2.57092
2.57088
2.57045
2.56949
2.56797
2.56596
2.56346
2.5605
2.55702
2.55299
2.54829
2.54279
2.53628
2.52857
2.51953
2.50915
2.49746
2.48452
2.47041
2.45451
2.43729
2.41703
2.39536
2.37028
2.34119
2.31115
2.27647
2.23988
1
1
1
1
1
1
1
1
1
1
1
1
1
1
1
1
1
1
1
1
1
1
1
1
1
1
1
1
1
1
1
1
1
1
1
1
1
1
1
1
1
1
1
1
1
1
1
1
1
1
1
1
1
1
1
1.00204
2.12772
2.53513
2.54054
2.54795
2.55269
2.55492
2.55668
2.55819
2.55951
2.56068
2.56177
2.56271
2.56336
2.56337
2.56301
2.56213
2.56063
2.55858
2.55597
2.55286
2.5492
2.54496
2.54008
2.53447
2.52798
2.52041
2.51159
2.50137
2.48972
2.4767
2.4624
2.44636
2.42925
2.40951
2.38936
2.36571
2.33888
2.31082
2.27886
2.24652
1
1
1
1
1
1
1
1
1
1
1
1
1
1
1
1
1
1
1
1
1
1
1
1
1
1
1
1
1
1
1
1
1
1
1
1
1
1
1
1
1
1
1
1
1
1
1
1
1
1
1
1
1
1
1
0.999986
1.75775
2.47637
2.54063
2.54364
2.54629
2.54855
2.55041
2.55183
2.55295
2.55384
2.5546
2.55526
2.55574
2.55573
2.55538
2.55455
2.55312
2.5511
2.54847
2.5453
2.54153
2.53715
2.53208
2.52631
2.51974
2.51223
2.50361
2.49369
2.48232
2.46949
2.4552
2.43924
2.42199
2.40294
2.38353
2.36014
2.33585
2.3102
2.28103
2.25138
1
1
1
1
1
1
1
1
1
1
1
1
1
1
1
1
1
1
1
1
1
1
1
1
1
1
1
1
1
1
1
1
1
1
1
1
1
1
1
1
1
1
1
1
1
1
1
1
1
1
1
1
1
1
1
0.999996
1.24128
2.3446
2.5413
2.53603
2.53725
2.54007
2.54265
2.5446
2.54601
2.54692
2.54753
2.54791
2.54812
2.54801
2.5476
2.54677
2.54538
2.54343
2.54085
2.53769
2.5339
2.52947
2.52429
2.5184
2.5117
2.50416
2.49564
2.48599
2.47501
2.46254
2.4486
2.43285
2.4156
2.39744
2.37796
2.35512
2.33316
2.30881
2.28218
2.25411
1
1
1
1
1
1
1
1
1
1
1
1
1
1
1
1
1
1
1
1
1
1
1
1
1
1
1
1
1
1
1
1
1
1
1
1
1
1
1
1
1
1
1
1
1
1
1
1
1
1
1
1
1
1
1
0.999999
1.01396
2.19388
2.52292
2.5233
2.52751
2.53127
2.53418
2.53672
2.53862
2.53985
2.54054
2.54079
2.54073
2.54045
2.53988
2.53894
2.53754
2.53562
2.53309
2.52999
2.52625
2.52185
2.51668
2.51074
2.50395
2.49634
2.48782
2.47831
2.46769
2.45561
2.44227
2.42687
2.41001
2.39248
2.37281
2.35138
2.3304
2.30658
2.28184
2.25532
1
1
1
1
1
1
1
1
1
1
1
1
1
1
1
1
1
1
1
1
1
1
1
1
1
1
1
1
1
1
1
1
1
1
1
1
1
1
1
1
1
1
1
1
1
1
1
1
1
1
1
1
1
1
1
1
1.00001
1.8487
2.48153
2.51568
2.52074
2.52391
2.52666
2.5292
2.53124
2.53268
2.53354
2.5338
2.53361
2.53312
2.53232
2.53119
2.52967
2.5277
2.5252
2.52215
2.5185
2.51418
2.5091
2.50322
2.49645
2.48882
2.48028
2.47081
2.4604
2.44863
2.43592
2.421
2.4049
2.38793
2.36851
2.34837
2.32758
2.30489
2.28161
2.25645
1
1
1
1
1
1
1
1
1
1
1
1
1
1
1
1
1
1
1
1
1
1
1
1
1
1
1
1
1
1
1
1
1
1
1
1
1
1
1
1
1
1
1
1
1
1
1
1
1
1
1
1
1
1
1
1
0.999997
1.31979
2.36377
2.52167
2.51676
2.51745
2.51891
2.52095
2.52294
2.52463
2.52586
2.52645
2.52632
2.52581
2.52488
2.52359
2.52192
2.51985
2.51731
2.51427
2.51068
2.50645
2.5015
2.49574
2.4891
2.48153
2.47306
2.46356
2.45325
2.44164
2.42941
2.41504
2.40007
2.38359
2.36465
2.34562
2.3252
2.30379
2.28124
2.25699
1
1
1
1
1
1
1
1
1
1
1
1
1
1
1
1
1
1
1
1
1
1
1
1
1
1
1
1
1
1
1
1
1
1
1
1
1
1
1
1
1
1
1
1
1
1
1
1
1
1
1
1
1
1
1
1
0.999999
1.02458
2.20609
2.50682
2.50599
2.50809
2.51079
2.51278
2.51456
2.51628
2.51773
2.5187
2.51877
2.51838
2.51749
2.51612
2.51433
2.51213
2.5095
2.50643
2.50283
2.49867
2.49383
2.48823
2.48177
2.47437
2.46609
2.45661
2.44633
2.43487
2.42287
2.40916
2.3952
2.37898
2.36118
2.34317
2.32338
2.3029
2.28084
2.25771
1
1
1
1
1
1
1
1
1
1
1
1
1
1
1
1
1
1
1
1
1
1
1
1
1
1
1
1
1
1
1
1
1
1
1
1
1
1
1
1
1
1
1
1
1
1
1
1
1
1
1
1
1
1
1
1
1
1.00007
1.8436
2.4638
2.49759
2.50193
2.50495
2.5064
2.5076
2.50883
2.50999
2.51092
2.51116
2.51084
2.51002
2.50868
2.50686
2.50458
2.50188
2.49874
2.49509
2.49091
2.48612
2.48066
2.47437
2.46721
2.45917
2.44981
2.43964
2.42841
2.41648
2.40346
2.38995
2.37415
2.35789
2.34067
2.32153
2.30184
2.28077
2.2587
1
1
1
1
1
1
1
1
1
1
1
1
1
1
1
1
1
1
1
1
1
1
1
1
1
1
1
1
1
1
1
1
1
1
1
1
1
1
1
1
1
1
1
1
1
1
1
1
1
1
1
1
1
1
1
1
1
1
1.27728
2.33764
2.50459
2.49786
2.49847
2.49912
2.50001
2.50095
2.5019
2.50272
2.50313
2.50291
2.50225
2.50105
2.49931
2.49708
2.49437
2.4912
2.48751
2.48329
2.47852
2.47311
2.46691
2.46007
2.45218
2.44309
2.4332
2.42229
2.41045
2.39796
2.38457
2.36958
2.35442
2.33774
2.3195
2.30091
2.28095
2.25971
1
1
1
1
1
1
1
1
1
1
1
1
1
1
1
1
1
1
1
1
1
1
1
1
1
1
1
1
1
1
1
1
1
1
1
1
1
1
1
1
1
1
1
1
1
1
1
1
1
1
1
1
1
1
1
1
1
1
1.01799
2.17237
2.4865
2.48671
2.48963
2.49138
2.49257
2.49341
2.49418
2.49478
2.49512
2.49494
2.49436
2.49328
2.49168
2.48955
2.48691
2.48378
2.48008
2.47584
2.47105
2.46564
2.45952
2.45277
2.44506
2.43637
2.42688
2.4163
2.40469
2.39256
2.37938
2.36516
2.35049
2.33441
2.31731
2.29989
2.28086
2.26026
1
1
1
1
1
1
1
1
1
1
1
1
1
1
1
1
1
1
1
1
1
1
1
1
1
1
1
1
1
1
1
1
1
1
1
1
1
1
1
1
1
1
1
1
1
1
1
1
1
1
1
1
1
1
1
1
1
1
1.00002
1.74948
2.4254
2.48554
2.48517
2.48503
2.48606
2.48703
2.48739
2.48748
2.48744
2.48716
2.48651
2.48543
2.48389
2.48188
2.47935
2.47634
2.47272
2.46855
2.46378
2.45837
2.45232
2.44551
2.43803
2.42968
2.4206
2.41036
2.39913
2.38738
2.37454
2.36076
2.34644
2.33118
2.31507
2.29849
2.28018
2.26058
1
1
1
1
1
1
1
1
1
1
1
1
1
1
1
1
1
1
1
1
1
1
1
1
1
1
1
1
1
1
1
1
1
1
1
1
1
1
1
1
1
1
1
1
1
1
1
1
1
1
1
1
1
1
1
1
1
1
0.999999
1.15515
2.28601
2.49093
2.48044
2.47916
2.47934
2.48014
2.47998
2.47985
2.47971
2.47935
2.47864
2.47753
2.47601
2.47407
2.47166
2.46877
2.4653
2.46126
2.45657
2.45122
2.44521
2.43846
2.43107
2.42296
2.4142
2.4043
2.3936
2.38228
2.36979
2.35635
2.3426
2.32812
2.31257
2.29641
2.27894
2.26082
1
1
1
1
1
1
1
1
1
1
1
1
1
1
1
1
1
1
1
1
1
1
1
1
1
1
1
1
1
1
1
1
1
1
1
1
1
1
1
1
1
1
1
1
1
1
1
1
1
1
1
1
1
1
1
1
1
1
1
1.00551
2.08192
2.45998
2.46238
2.46661
2.47237
2.47309
2.4727
2.47261
2.47242
2.47195
2.47109
2.46986
2.46825
2.46627
2.46389
2.4611
2.45777
2.45391
2.44939
2.44418
2.43827
2.43165
2.42433
2.4164
2.40781
2.39823
2.38806
2.37717
2.36506
2.35213
2.33902
2.32503
2.30986
2.29413
2.27777
2.26088
1
1
1
1
1
1
1
1
1
1
1
1
1
1
1
1
1
1
1
1
1
1
1
1
1
1
1
1
1
1
1
1
1
1
1
1
1
1
1
1
1
1
1
1
1
1
1
1
1
1
1
1
1
1
1
1
1
1
1
0.999984
1.58335
2.37161
2.46243
2.46642
2.46801
2.46651
2.46587
2.46593
2.46572
2.46504
2.46394
2.46249
2.4607
2.45858
2.45611
2.45331
2.45007
2.44635
2.44203
2.43702
2.43129
2.42486
2.4177
2.40995
2.40149
2.39221
2.38247
2.37193
2.36027
2.34806
2.33545
2.32171
2.30705
2.29193
2.27665
2.26059
1
1
1
1
1
1
1
1
1
1
1
1
1
1
1
1
1
1
1
1
1
1
1
1
1
1
1
1
1
1
1
1
1
1
1
1
1
1
1
1
1
1
1
1
1
1
1
1
1
1
1
1
1
1
1
1
1
1
1
0.999995
1.08902
2.21229
2.46226
2.45973
2.45973
2.45858
2.45881
2.45917
2.45888
2.4581
2.45693
2.45538
2.45346
2.45118
2.44855
2.44564
2.44237
2.43872
2.43455
2.42976
2.42429
2.41811
2.41121
2.40369
2.39537
2.38636
2.3769
2.36663
2.3555
2.34398
2.33168
2.31833
2.30435
2.28987
2.27534
2.25968
1
1
1
1
1
1
1
1
1
1
1
1
1
1
1
1
1
1
1
1
1
1
1
1
1
1
1
1
1
1
1
1
1
1
1
1
1
1
1
1
1
1
1
1
1
1
1
1
1
1
1
1
1
1
1
1
1
1
1
0.999999
1.00158
1.87513
2.41394
2.44548
2.44838
2.44931
2.45181
2.45281
2.45241
2.45156
2.45035
2.44874
2.44668
2.44418
2.4413
2.43814
2.4347
2.431
2.4269
2.4223
2.41709
2.41122
2.40465
2.39742
2.38939
2.38066
2.37142
2.36143
2.35083
2.33977
2.32771
2.31497
2.30174
2.28777
2.2736
2.25827
1
1
1
1
1
1
1
1
1
1
1
1
1
1
1
1
1
1
1
1
1
1
1
1
1
1