/*--------------------------------*- C++ -*----------------------------------*\
  =========                 |
  \\      /  F ield         | OpenFOAM: The Open Source CFD Toolbox
   \\    /   O peration     | Website:  https://openfoam.org
    \\  /    A nd           | Version:  7
     \\/     M anipulation  |
\*---------------------------------------------------------------------------*/
FoamFile
{
    version     2.0;
    format      ascii;
    class       volVectorField;
    location    "3.6";
    object      U;
}
// * * * * * * * * * * * * * * * * * * * * * * * * * * * * * * * * * * * * * //

dimensions      [0 1 -1 0 0 0 0];

internalField   nonuniform List<vector> 
64512
(
(3 -7.97158e-17 0)
(3 -4.07522e-17 0)
(3 3.37456e-16 0)
(3 4.4721e-16 0)
(3 -2.44199e-17 0)
(3 -7.73742e-16 0)
(3 -1.33079e-15 0)
(3 -1.88365e-15 0)
(3 -2.43043e-15 0)
(3 -2.32334e-15 0)
(3 -1.47793e-15 0)
(3 4.16061e-16 0)
(3 1.31208e-15 0)
(3 3.09455e-16 0)
(3 8.70999e-17 0)
(3 1.62646e-16 0)
(3 4.05099e-16 0)
(3 3.48707e-16 0)
(3 1.23531e-16 0)
(3 4.12195e-16 0)
(3 7.82085e-16 0)
(3 -6.98687e-16 0)
(3 -1.03627e-15 0)
(3 2.68831e-16 0)
(3 6.27037e-16 0)
(3 8.28284e-16 0)
(3 1.40807e-15 0)
(3 1.39396e-15 0)
(3 1.30135e-15 0)
(3 9.08541e-16 0)
(3 5.24599e-16 0)
(3 6.72533e-16 0)
(3 -7.92129e-17 0)
(3 -1.91341e-16 0)
(3 -5.24831e-17 0)
(3 -2.20705e-17 0)
(3 -1.99018e-17 0)
(3 7.33263e-17 0)
(3 -4.23074e-16 0)
(3 -8.37745e-16 0)
(3 -7.56758e-16 0)
(3 2.77221e-16 0)
(3 4.22561e-16 0)
(3 3.85479e-16 0)
(3 2.35671e-16 0)
(3 -1.50571e-16 0)
(3 3.68285e-16 0)
(3 -4.56091e-16 0)
(3 6.37986e-08 0)
(1.10724 0.0048308 0)
(0.764298 0.00548569 0)
(0.745726 0.00524593 0)
(0.732124 0.00529643 0)
(0.717953 0.00547871 0)
(0.703827 0.00585558 0)
(0.689097 0.00632552 0)
(0.673691 0.00673767 0)
(0.657745 0.00686983 0)
(0.641869 0.00661981 0)
(0.626721 0.0062103 0)
(0.612455 0.00597536 0)
(0.598693 0.00604672 0)
(0.584814 0.00639085 0)
(0.570217 0.00687863 0)
(0.554611 0.00726368 0)
(0.538319 0.00727604 0)
(0.522116 0.00694253 0)
(0.506501 0.00665688 0)
(0.491272 0.00674922 0)
(0.475848 0.00719083 0)
(0.459983 0.00755318 0)
(0.444199 0.00751401 0)
(0.428924 0.00740204 0)
(0.413735 0.00753444 0)
(0.398088 0.00771614 0)
(0.381893 0.00778985 0)
(0.365203 0.00783651 0)
(0.348123 0.0079202 0)
(0.330953 0.00802587 0)
(0.314031 0.00813985 0)
(0.297446 0.00824392 0)
(0.280961 0.00832849 0)
(0.264173 0.00841221 0)
(0.246769 0.00851757 0)
(0.228703 0.00864765 0)
(0.21026 0.00880172 0)
(0.191823 0.00898184 0)
(0.173559 0.00918348 0)
(0.155312 0.0093972 0)
(0.136712 0.00962708 0)
(0.117421 0.00987901 0)
(0.0972881 0.010157 0)
(0.0763078 0.010419 0)
(0.0548643 0.0106583 0)
(0.0330668 0.0107404 0)
(0.0111368 0.0108093 0)
(3 -8.88458e-17 0)
(3 -1.1634e-16 0)
(3 3.66704e-17 0)
(3 -1.21523e-16 0)
(3 -7.25523e-17 0)
(3 -4.6937e-16 0)
(3 -2.21017e-15 0)
(3 -3.57335e-15 0)
(3 -3.68285e-15 0)
(3 -2.39813e-15 0)
(3 -8.49991e-16 0)
(3 1.44533e-15 0)
(3 1.38914e-15 0)
(3 7.29697e-16 0)
(3 2.01243e-16 0)
(3 1.87699e-16 0)
(3 1.88298e-16 0)
(3 1.43989e-16 0)
(3 3.84586e-16 0)
(3 4.95403e-16 0)
(3 7.73145e-16 0)
(3 -9.633e-16 0)
(3 -1.56132e-15 0)
(3 -2.11156e-16 0)
(3 1.30831e-15 0)
(3 1.15713e-15 0)
(3 1.22687e-15 0)
(3 7.14001e-16 0)
(3 1.02042e-15 0)
(3 1.49509e-15 0)
(3 1.78061e-15 0)
(3 8.3041e-16 0)
(3 -7.82363e-16 0)
(3 -8.95893e-16 0)
(3 -2.35233e-16 0)
(3 -4.27697e-16 0)
(3 -4.81967e-16 0)
(3 3.08685e-16 0)
(3 1.51386e-16 0)
(3 -3.69381e-16 0)
(3 -3.00594e-16 0)
(3 3.78327e-16 0)
(3 7.46221e-16 0)
(3 9.04006e-16 0)
(3 9.37937e-16 0)
(3 6.18273e-16 0)
(3 -2.83106e-16 0)
(3 2.08615e-17 0)
(3 -3.67449e-09 0)
(1.11259 0.0205595 0)
(0.762424 0.0197181 0)
(0.743035 0.0159336 0)
(0.729156 0.0154907 0)
(0.71496 0.0159241 0)
(0.700878 0.0170041 0)
(0.686317 0.0184105 0)
(0.67115 0.0196909 0)
(0.655392 0.0202427 0)
(0.639523 0.0196994 0)
(0.624207 0.0185236 0)
(0.609714 0.0177211 0)
(0.595786 0.01783 0)
(0.581869 0.0187989 0)
(0.567353 0.0202394 0)
(0.551869 0.0214218 0)
(0.535641 0.0215503 0)
(0.519414 0.0206405 0)
(0.503678 0.0198008 0)
(0.488311 0.0200385 0)
(0.472862 0.0213162 0)
(0.457038 0.0223779 0)
(0.441307 0.0222706 0)
(0.42603 0.021968 0)
(0.410778 0.0223875 0)
(0.395045 0.0229591 0)
(0.378773 0.0232004 0)
(0.362054 0.0233539 0)
(0.345 0.0236101 0)
(0.327884 0.0239282 0)
(0.310998 0.0242773 0)
(0.294406 0.024607 0)
(0.2779 0.0248809 0)
(0.26114 0.0251399 0)
(0.243853 0.0254439 0)
(0.225994 0.0258176 0)
(0.207811 0.0262838 0)
(0.189637 0.0268652 0)
(0.171617 0.0275412 0)
(0.153615 0.0282554 0)
(0.135303 0.0289887 0)
(0.116358 0.0297495 0)
(0.0965991 0.0305772 0)
(0.0759656 0.0313829 0)
(0.0547655 0.0321611 0)
(0.0330886 0.0324945 0)
(0.0111789 0.0328151 0)
(3 -9.0186e-17 0)
(3 -2.02046e-16 0)
(3 -1.55477e-16 0)
(3 1.00736e-17 0)
(3 3.43808e-16 0)
(3 3.85735e-16 0)
(3 -2.84217e-16 0)
(3 -9.35595e-16 0)
(3 -7.95905e-16 0)
(3 -2.95661e-16 0)
(3 -1.90989e-16 0)
(3 -7.52258e-16 0)
(3 -6.12864e-16 0)
(3 -6.64805e-16 0)
(3 -5.50191e-16 0)
(3 -2.53339e-16 0)
(3 4.34066e-17 0)
(3 3.71281e-16 0)
(3 7.18722e-16 0)
(3 -4.70588e-16 0)
(3 -7.43096e-16 0)
(3 -1.15938e-15 0)
(3 -1.50307e-15 0)
(3 -1.38774e-15 0)
(3 -6.27269e-16 0)
(3 -6.10752e-16 0)
(3 -4.80148e-16 0)
(3 -3.10634e-16 0)
(3 4.91285e-16 0)
(3 1.47005e-15 0)
(3 1.77414e-15 0)
(3 1.6436e-15 0)
(3 1.07575e-15 0)
(3 5.74105e-16 0)
(3 7.25302e-16 0)
(3 6.83287e-16 0)
(3 9.30166e-16 0)
(3 1.30025e-15 0)
(3 9.36698e-16 0)
(3 7.6725e-16 0)
(3 8.04965e-16 0)
(3 7.49973e-16 0)
(3 9.97955e-16 0)
(3 8.46945e-16 0)
(3 8.51043e-16 0)
(3 6.14335e-16 0)
(3 -5.05065e-16 0)
(3 -9.67517e-16 0)
(3 -1.99897e-08 0)
(1.12877 0.0351632 0)
(0.764623 0.0331318 0)
(0.74462 0.0272503 0)
(0.729916 0.0265558 0)
(0.715197 0.0271428 0)
(0.700795 0.0287557 0)
(0.686174 0.0308878 0)
(0.671131 0.0328764 0)
(0.655518 0.0338113 0)
(0.639641 0.0331083 0)
(0.624087 0.0313312 0)
(0.609198 0.0300045 0)
(0.594892 0.0300925 0)
(0.580756 0.0315713 0)
(0.566218 0.033838 0)
(0.550814 0.0357297 0)
(0.534644 0.0359917 0)
(0.518396 0.034604 0)
(0.502494 0.033285 0)
(0.486891 0.0336627 0)
(0.47134 0.0357128 0)
(0.45548 0.0374277 0)
(0.439726 0.0372671 0)
(0.424375 0.0367861 0)
(0.408977 0.0374565 0)
(0.393054 0.0383669 0)
(0.376571 0.0387445 0)
(0.359674 0.0390046 0)
(0.342497 0.0394539 0)
(0.325282 0.0399934 0)
(0.308262 0.0405441 0)
(0.291466 0.0410259 0)
(0.274717 0.0414077 0)
(0.257751 0.0417867 0)
(0.240361 0.0422632 0)
(0.222515 0.0428544 0)
(0.204426 0.0435763 0)
(0.186375 0.0444611 0)
(0.168485 0.045493 0)
(0.150654 0.0466076 0)
(0.132614 0.0477929 0)
(0.114077 0.049062 0)
(0.0948347 0.0504792 0)
(0.0747575 0.0518869 0)
(0.0540332 0.0532734 0)
(0.0327172 0.0539379 0)
(0.0110846 0.0546165 0)
(3 9.84775e-17 0)
(3 1.49052e-16 0)
(3 3.1357e-16 0)
(3 9.39265e-16 0)
(3 5.37547e-16 0)
(3 2.3919e-16 0)
(3 6.03519e-16 0)
(3 8.35726e-16 0)
(3 6.20286e-16 0)
(3 1.7733e-16 0)
(3 -1.78166e-16 0)
(3 -4.51101e-16 0)
(3 -2.03517e-16 0)
(3 -4.91526e-16 0)
(3 -6.03685e-16 0)
(3 -7.3863e-17 0)
(3 3.81551e-16 0)
(3 4.81893e-16 0)
(3 -2.49908e-16 0)
(3 -7.58539e-16 0)
(3 -7.28599e-16 0)
(3 -1.29555e-15 0)
(3 -1.70657e-15 0)
(3 -2.03321e-15 0)
(3 -1.62462e-15 0)
(3 -1.28426e-15 0)
(3 -1.46115e-15 0)
(3 -7.3578e-16 0)
(3 -2.17652e-16 0)
(3 -1.36889e-16 0)
(3 -4.33988e-16 0)
(3 2.20955e-18 0)
(3 1.24505e-15 0)
(3 1.05791e-15 0)
(3 6.34507e-16 0)
(3 1.05843e-15 0)
(3 1.29452e-15 0)
(3 9.45245e-16 0)
(3 4.97106e-16 0)
(3 5.56981e-16 0)
(3 1.37608e-15 0)
(3 1.86422e-15 0)
(3 1.43216e-15 0)
(3 1.12542e-15 0)
(3 5.73316e-16 0)
(3 -3.36713e-16 0)
(3 -1.25662e-16 0)
(3 6.31482e-17 0)
(3 -4.12633e-11 0)
(1.15191 0.0488881 0)
(0.766288 0.0459981 0)
(0.74561 0.0389289 0)
(0.730579 0.0379674 0)
(0.715708 0.0385246 0)
(0.701358 0.0404857 0)
(0.687014 0.0431865 0)
(0.672364 0.0457752 0)
(0.657098 0.0471257 0)
(0.641355 0.0464721 0)
(0.625694 0.0442906 0)
(0.610546 0.0424686 0)
(0.595995 0.0424684 0)
(0.58177 0.044355 0)
(0.567337 0.0473395 0)
(0.552118 0.0498786 0)
(0.536067 0.0503317 0)
(0.519827 0.0485959 0)
(0.503776 0.0468832 0)
(0.487946 0.047406 0)
(0.472323 0.0501735 0)
(0.456445 0.0525235 0)
(0.440647 0.0523688 0)
(0.425174 0.0517706 0)
(0.409581 0.0527067 0)
(0.393429 0.0539709 0)
(0.376694 0.05452 0)
(0.359579 0.0549327 0)
(0.342225 0.0556202 0)
(0.324829 0.0564164 0)
(0.307555 0.0571863 0)
(0.29041 0.0578208 0)
(0.273261 0.0583039 0)
(0.255938 0.0587976 0)
(0.238285 0.0594371 0)
(0.220266 0.0602123 0)
(0.20204 0.0611174 0)
(0.183829 0.062191 0)
(0.165758 0.0634325 0)
(0.147798 0.0647931 0)
(0.129787 0.0662958 0)
(0.111497 0.0679739 0)
(0.0927011 0.0699327 0)
(0.0731777 0.0719401 0)
(0.0529918 0.0739734 0)
(0.0321339 0.0750368 0)
(0.0109125 0.0761664 0)
(3 6.87855e-17 0)
(3 -2.77888e-17 0)
(3 2.41627e-16 0)
(3 2.86451e-16 0)
(3 1.72936e-16 0)
(3 -1.45612e-16 0)
(3 -1.73032e-16 0)
(3 -1.27595e-16 0)
(3 9.29888e-17 0)
(3 -4.66442e-16 0)
(3 -3.6832e-16 0)
(3 1.52504e-16 0)
(3 2.85481e-16 0)
(3 2.73092e-16 0)
(3 -1.71715e-16 0)
(3 8.66373e-17 0)
(3 -1.07805e-15 0)
(3 -1.61065e-15 0)
(3 -1.94191e-15 0)
(3 -1.87754e-15 0)
(3 -1.7447e-15 0)
(3 -2.09444e-15 0)
(3 -2.70691e-15 0)
(3 -3.16405e-15 0)
(3 -1.78242e-15 0)
(3 -9.75367e-16 0)
(3 -2.64371e-16 0)
(3 -9.03909e-16 0)
(3 -8.96781e-16 0)
(3 -1.17637e-15 0)
(3 -7.28956e-16 0)
(3 1.59993e-16 0)
(3 8.79144e-16 0)
(3 1.20622e-15 0)
(3 8.48001e-16 0)
(3 6.74057e-16 0)
(3 5.85474e-16 0)
(3 1.54367e-16 0)
(3 2.8661e-16 0)
(3 5.94818e-16 0)
(3 1.0935e-15 0)
(3 7.48005e-16 0)
(3 1.56005e-16 0)
(3 -1.44992e-16 0)
(3 -2.94262e-16 0)
(3 -8.10652e-16 0)
(3 2.3832e-16 0)
(3 6.08629e-16 0)
(3 -1.84351e-11 0)
(1.1831 0.062667 0)
(0.768032 0.058499 0)
(0.746091 0.0509136 0)
(0.730842 0.0496997 0)
(0.715735 0.0501199 0)
(0.701321 0.0522492 0)
(0.687134 0.0553817 0)
(0.672768 0.0585374 0)
(0.657756 0.0604046 0)
(0.642081 0.0600151 0)
(0.626285 0.057605 0)
(0.610901 0.0552392 0)
(0.596153 0.0549665 0)
(0.58193 0.0570851 0)
(0.567728 0.0606754 0)
(0.55283 0.0638476 0)
(0.53701 0.0646041 0)
(0.520875 0.0626741 0)
(0.504791 0.0606084 0)
(0.488865 0.0612049 0)
(0.473334 0.0645892 0)
(0.457597 0.0675477 0)
(0.441885 0.0674663 0)
(0.426422 0.0667955 0)
(0.410787 0.067982 0)
(0.394586 0.0696004 0)
(0.377789 0.0703564 0)
(0.360634 0.07097 0)
(0.343253 0.0719371 0)
(0.32579 0.0730157 0)
(0.308351 0.0740172 0)
(0.290934 0.0748209 0)
(0.273469 0.0754424 0)
(0.255862 0.0761077 0)
(0.237988 0.0769677 0)
(0.219783 0.0779584 0)
(0.201335 0.079033 0)
(0.182809 0.0802336 0)
(0.164348 0.0815842 0)
(0.146019 0.083065 0)
(0.127788 0.0847479 0)
(0.109505 0.0866937 0)
(0.0909464 0.089075 0)
(0.0718112 0.0915984 0)
(0.0520515 0.0942461 0)
(0.0315902 0.0957302 0)
(0.0107447 0.0973647 0)
(3 -7.42315e-17 0)
(3 -2.20485e-16 0)
(3 -4.68531e-16 0)
(3 -5.11163e-16 0)
(3 -3.58886e-16 0)
(3 -7.29937e-16 0)
(3 -1.09753e-15 0)
(3 -9.93717e-16 0)
(3 -5.60058e-16 0)
(3 -3.48041e-16 0)
(3 -2.89571e-16 0)
(3 -5.57381e-17 0)
(3 -7.60451e-17 0)
(3 -5.76522e-17 0)
(3 -5.37501e-16 0)
(3 -1.54953e-15 0)
(3 -2.47626e-15 0)
(3 -2.69268e-15 0)
(3 -2.95137e-15 0)
(3 -2.63439e-15 0)
(3 -2.53659e-15 0)
(3 -1.91179e-15 0)
(3 -2.26259e-15 0)
(3 -1.70505e-15 0)
(3 -7.94962e-16 0)
(3 5.45945e-16 0)
(3 1.36005e-15 0)
(3 1.37671e-15 0)
(3 8.29285e-16 0)
(3 2.751e-16 0)
(3 2.13743e-16 0)
(3 1.37848e-16 0)
(3 2.01187e-17 0)
(3 4.61835e-16 0)
(3 4.76658e-16 0)
(3 3.68903e-16 0)
(3 -7.55185e-17 0)
(3 -2.27011e-16 0)
(3 6.41915e-16 0)
(3 8.8119e-16 0)
(3 9.71378e-17 0)
(3 1.97523e-17 0)
(3 3.6683e-16 0)
(3 7.49243e-16 0)
(3 1.05739e-16 0)
(3 2.15827e-17 0)
(3 1.61347e-16 0)
(3 -6.82496e-16 0)
(3 -1.31066e-14 0)
(1.224 0.0764654 0)
(0.770551 0.0707324 0)
(0.746776 0.0632333 0)
(0.731367 0.0618118 0)
(0.7159 0.0619729 0)
(0.701273 0.064105 0)
(0.687075 0.0675161 0)
(0.672875 0.0711886 0)
(0.658048 0.0736541 0)
(0.642424 0.0737076 0)
(0.626521 0.0712446 0)
(0.610967 0.0682981 0)
(0.596066 0.0675336 0)
(0.581871 0.0696636 0)
(0.56794 0.0737279 0)
(0.553394 0.0775457 0)
(0.537799 0.0787642 0)
(0.521746 0.0768252 0)
(0.505644 0.0744504 0)
(0.489649 0.0750193 0)
(0.474249 0.07888 0)
(0.458699 0.0824017 0)
(0.443094 0.0824684 0)
(0.427677 0.0817838 0)
(0.412076 0.0832229 0)
(0.395946 0.0852155 0)
(0.379211 0.0862238 0)
(0.362116 0.0870765 0)
(0.344768 0.0883445 0)
(0.327266 0.089719 0)
(0.309691 0.0909708 0)
(0.292069 0.0919813 0)
(0.274383 0.0927992 0)
(0.256584 0.0937031 0)
(0.23855 0.0948416 0)
(0.220167 0.0960809 0)
(0.201452 0.0973238 0)
(0.182536 0.0986175 0)
(0.163595 0.100018 0)
(0.144797 0.101538 0)
(0.126222 0.103299 0)
(0.107799 0.105385 0)
(0.0893316 0.108058 0)
(0.0704641 0.110984 0)
(0.0510672 0.114184 0)
(0.0309818 0.116084 0)
(0.0105541 0.118245 0)
(3 -2.22855e-16 0)
(3 -1.2572e-16 0)
(3 -2.34702e-16 0)
(3 -7.32219e-16 0)
(3 -1.27328e-15 0)
(3 -1.44658e-15 0)
(3 -1.05139e-15 0)
(3 -4.24588e-16 0)
(3 2.10315e-17 0)
(3 3.76281e-16 0)
(3 9.76296e-17 0)
(3 -1.8906e-16 0)
(3 -5.74077e-16 0)
(3 -7.81334e-16 0)
(3 -8.04405e-16 0)
(3 -1.99146e-15 0)
(3 -1.72186e-15 0)
(3 -1.46168e-15 0)
(3 -1.47988e-15 0)
(3 -1.74014e-15 0)
(3 -1.33178e-15 0)
(3 -1.6269e-16 0)
(3 5.20377e-16 0)
(3 7.23156e-16 0)
(3 5.10505e-16 0)
(3 1.10704e-15 0)
(3 2.17752e-15 0)
(3 2.91916e-15 0)
(3 2.39361e-15 0)
(3 1.39764e-15 0)
(3 1.64798e-15 0)
(3 7.5065e-16 0)
(3 1.06057e-16 0)
(3 2.73586e-16 0)
(3 1.49249e-16 0)
(3 1.50942e-16 0)
(3 6.38884e-16 0)
(3 1.10737e-15 0)
(3 1.343e-15 0)
(3 8.45848e-16 0)
(3 2.65203e-16 0)
(3 8.60778e-16 0)
(3 1.14792e-15 0)
(3 1.49662e-15 0)
(3 1.1973e-15 0)
(3 1.3802e-15 0)
(3 3.66806e-16 0)
(3 -1.62039e-15 0)
(3 -1.44203e-17 0)
(1.27595 0.0901695 0)
(0.774146 0.0826596 0)
(0.747858 0.0759936 0)
(0.732276 0.0742795 0)
(0.716359 0.0741421 0)
(0.701392 0.0761363 0)
(0.686997 0.079673 0)
(0.672799 0.0837716 0)
(0.65809 0.0868671 0)
(0.642543 0.0874862 0)
(0.626614 0.0851527 0)
(0.610998 0.081659 0)
(0.596 0.0802088 0)
(0.581821 0.0821152 0)
(0.568136 0.0865045 0)
(0.553932 0.0909841 0)
(0.53853 0.0928346 0)
(0.522506 0.0910854 0)
(0.506378 0.0884533 0)
(0.490309 0.0888741 0)
(0.475018 0.0930339 0)
(0.459653 0.0970396 0)
(0.444139 0.0973063 0)
(0.428773 0.0966562 0)
(0.413264 0.0983584 0)
(0.397307 0.100759 0)
(0.380741 0.102067 0)
(0.363796 0.103178 0)
(0.346546 0.104741 0)
(0.329063 0.106414 0)
(0.311439 0.107953 0)
(0.293735 0.109247 0)
(0.275966 0.110361 0)
(0.258089 0.111597 0)
(0.239953 0.113086 0)
(0.221387 0.114618 0)
(0.202351 0.116048 0)
(0.182971 0.117433 0)
(0.163478 0.118865 0)
(0.144126 0.120377 0)
(0.125089 0.122128 0)
(0.106363 0.124214 0)
(0.0877999 0.127009 0)
(0.0690304 0.130168 0)
(0.0499201 0.133799 0)
(0.0302135 0.136059 0)
(0.0102946 0.138715 0)
(3 1.60459e-17 0)
(3 2.66645e-17 0)
(3 1.91406e-16 0)
(3 4.32279e-16 0)
(3 7.51439e-16 0)
(3 9.54787e-16 0)
(3 9.20964e-16 0)
(3 7.53645e-16 0)
(3 1.10938e-16 0)
(3 3.42929e-16 0)
(3 5.05892e-16 0)
(3 4.12062e-18 0)
(3 -3.14184e-16 0)
(3 -3.19926e-16 0)
(3 -3.35487e-16 0)
(3 -3.88314e-16 0)
(3 1.95447e-16 0)
(3 1.26409e-17 0)
(3 1.3861e-16 0)
(3 2.28157e-16 0)
(3 4.08345e-16 0)
(3 3.51002e-16 0)
(3 9.75768e-16 0)
(3 1.28165e-15 0)
(3 9.62838e-16 0)
(3 8.39946e-16 0)
(3 5.4721e-16 0)
(3 2.39914e-16 0)
(3 2.45774e-16 0)
(3 1.38981e-15 0)
(3 2.30849e-15 0)
(3 2.55582e-15 0)
(3 1.4392e-15 0)
(3 4.71041e-16 0)
(3 5.87607e-16 0)
(3 8.86046e-16 0)
(3 1.29648e-15 0)
(3 1.85974e-15 0)
(3 2.01853e-15 0)
(3 1.65868e-15 0)
(3 1.01115e-15 0)
(3 7.33704e-16 0)
(3 5.81916e-16 0)
(3 3.61027e-16 0)
(3 4.81948e-16 0)
(3 1.01999e-15 0)
(3 7.03128e-16 0)
(3 7.91557e-16 0)
(3 -3.60881e-15 0)
(1.34074 0.10384 0)
(0.779144 0.094213 0)
(0.749201 0.0894326 0)
(0.7333 0.0870505 0)
(0.71695 0.0865415 0)
(0.701685 0.0883072 0)
(0.687072 0.0918951 0)
(0.672778 0.0963264 0)
(0.658093 0.100014 0)
(0.642574 0.101241 0)
(0.626598 0.0991956 0)
(0.610934 0.0952703 0)
(0.595869 0.0930056 0)
(0.581691 0.0944635 0)
(0.568253 0.0990138 0)
(0.554455 0.104151 0)
(0.539316 0.106783 0)
(0.523343 0.105431 0)
(0.507213 0.102633 0)
(0.491058 0.102816 0)
(0.47579 0.107101 0)
(0.460531 0.111502 0)
(0.445022 0.112008 0)
(0.429644 0.111425 0)
(0.4142 0.113388 0)
(0.398426 0.116215 0)
(0.382043 0.117846 0)
(0.365255 0.119201 0)
(0.348118 0.121025 0)
(0.330712 0.122986 0)
(0.313164 0.124853 0)
(0.295567 0.126517 0)
(0.277934 0.128023 0)
(0.260197 0.129667 0)
(0.242159 0.131557 0)
(0.223586 0.133421 0)
(0.2044 0.135074 0)
(0.184733 0.136592 0)
(0.164856 0.138101 0)
(0.145074 0.139636 0)
(0.125608 0.141372 0)
(0.106493 0.14339 0)
(0.0876313 0.146177 0)
(0.0686854 0.149396 0)
(0.0495395 0.153295 0)
(0.0298967 0.155807 0)
(0.0101895 0.158864 0)
(3 1.17987e-16 0)
(3 3.34848e-16 0)
(3 4.72346e-16 0)
(3 1.01581e-15 0)
(3 1.72522e-15 0)
(3 2.29946e-15 0)
(3 1.8725e-15 0)
(3 1.06595e-15 0)
(3 1.58982e-16 0)
(3 -3.73558e-16 0)
(3 -3.66483e-16 0)
(3 -8.25071e-16 0)
(3 -7.84576e-16 0)
(3 -3.43617e-16 0)
(3 2.87785e-16 0)
(3 8.31492e-16 0)
(3 5.07955e-16 0)
(3 -4.19015e-17 0)
(3 -1.09946e-16 0)
(3 6.61867e-17 0)
(3 5.21684e-16 0)
(3 2.78578e-16 0)
(3 3.05033e-16 0)
(3 5.82821e-16 0)
(3 1.02544e-15 0)
(3 3.94951e-16 0)
(3 -9.53966e-16 0)
(3 -1.79373e-15 0)
(3 -7.23127e-16 0)
(3 5.96105e-16 0)
(3 3.15091e-16 0)
(3 2.71435e-16 0)
(3 2.43051e-16 0)
(3 2.80874e-17 0)
(3 6.60945e-16 0)
(3 1.02038e-15 0)
(3 1.06411e-15 0)
(3 1.29232e-15 0)
(3 1.33204e-15 0)
(3 1.62149e-15 0)
(3 1.84663e-15 0)
(3 1.16751e-15 0)
(3 -5.47976e-17 0)
(3 -1.22094e-15 0)
(3 -8.22084e-16 0)
(3 -9.61348e-16 0)
(3 -4.99453e-16 0)
(3 1.28381e-16 0)
(3 -2.45023e-15 0)
(1.42111 0.117558 0)
(0.785961 0.105562 0)
(0.750481 0.103921 0)
(0.733869 0.100114 0)
(0.717083 0.0989824 0)
(0.701774 0.100433 0)
(0.687212 0.104008 0)
(0.673027 0.108772 0)
(0.65848 0.113062 0)
(0.643042 0.114944 0)
(0.627007 0.113337 0)
(0.611208 0.109162 0)
(0.595973 0.106026 0)
(0.581624 0.106806 0)
(0.568267 0.1113 0)
(0.554847 0.117024 0)
(0.540051 0.120529 0)
(0.524214 0.119771 0)
(0.508167 0.11694 0)
(0.491986 0.11686 0)
(0.476715 0.121148 0)
(0.461538 0.125892 0)
(0.445995 0.126693 0)
(0.430554 0.126206 0)
(0.41511 0.128402 0)
(0.399432 0.131637 0)
(0.383123 0.133587 0)
(0.366367 0.135151 0)
(0.349237 0.137188 0)
(0.331853 0.139424 0)
(0.314392 0.141652 0)
(0.296957 0.143753 0)
(0.279534 0.145711 0)
(0.262022 0.147794 0)
(0.244182 0.15009 0)
(0.225734 0.15229 0)
(0.206576 0.154186 0)
(0.186848 0.155882 0)
(0.166839 0.157535 0)
(0.14686 0.159164 0)
(0.127136 0.160938 0)
(0.107708 0.162903 0)
(0.0885167 0.165656 0)
(0.0692739 0.168868 0)
(0.0498857 0.172963 0)
(0.0300482 0.175668 0)
(0.0102598 0.179068 0)
(3 1.64437e-17 0)
(3 2.92074e-17 0)
(3 -7.9991e-17 0)
(3 -5.36947e-16 0)
(3 -7.8263e-16 0)
(3 -4.3815e-16 0)
(3 2.12823e-17 0)
(3 3.98676e-16 0)
(3 4.13608e-16 0)
(3 -1.71029e-17 0)
(3 2.05239e-17 0)
(3 -2.05329e-16 0)
(3 -6.45609e-16 0)
(3 -6.11306e-17 0)
(3 1.09654e-15 0)
(3 1.67106e-15 0)
(3 1.7076e-15 0)
(3 8.54014e-16 0)
(3 7.30344e-16 0)
(3 9.8685e-16 0)
(3 1.40494e-15 0)
(3 1.42178e-15 0)
(3 1.58493e-15 0)
(3 1.6682e-15 0)
(3 1.50907e-15 0)
(3 9.76397e-16 0)
(3 4.05962e-16 0)
(3 4.91679e-16 0)
(3 3.48122e-16 0)
(3 2.43003e-16 0)
(3 -2.89874e-16 0)
(3 -1.35376e-16 0)
(3 8.87232e-16 0)
(3 1.61204e-15 0)
(3 1.8222e-15 0)
(3 1.74441e-15 0)
(3 2.00527e-15 0)
(3 1.8797e-15 0)
(3 1.70639e-15 0)
(3 1.37912e-15 0)
(3 1.08559e-15 0)
(3 4.30516e-16 0)
(3 -5.87879e-16 0)
(3 -9.55444e-16 0)
(3 -9.72672e-16 0)
(3 -1.04774e-15 0)
(3 -8.56324e-16 0)
(3 -3.33042e-16 0)
(3 -7.13373e-16 0)
(1.52049 0.131216 0)
(0.79468 0.117441 0)
(0.751571 0.119763 0)
(0.734073 0.11393 0)
(0.716488 0.111611 0)
(0.700878 0.112266 0)
(0.686501 0.115724 0)
(0.672676 0.120809 0)
(0.65854 0.125765 0)
(0.643421 0.128413 0)
(0.627516 0.127437 0)
(0.611672 0.123299 0)
(0.59632 0.11937 0)
(0.581751 0.119292 0)
(0.568346 0.123486 0)
(0.555264 0.129633 0)
(0.540903 0.133998 0)
(0.525326 0.133979 0)
(0.509488 0.131236 0)
(0.493417 0.13089 0)
(0.478238 0.135108 0)
(0.463272 0.140182 0)
(0.447814 0.141365 0)
(0.432405 0.141008 0)
(0.417011 0.143397 0)
(0.401428 0.147014 0)
(0.385142 0.149297 0)
(0.368337 0.151084 0)
(0.351126 0.153342 0)
(0.333684 0.155871 0)
(0.316223 0.158494 0)
(0.298833 0.161058 0)
(0.28147 0.163471 0)
(0.264014 0.16596 0)
(0.246217 0.168617 0)
(0.227791 0.171127 0)
(0.208632 0.173277 0)
(0.188883 0.175199 0)
(0.168825 0.177071 0)
(0.148746 0.178881 0)
(0.128847 0.180772 0)
(0.109166 0.182739 0)
(0.089671 0.18548 0)
(0.0701251 0.188676 0)
(0.0504548 0.192946 0)
(0.0303578 0.195832 0)
(0.0103973 0.199558 0)
(3 -1.34516e-16 0)
(3 9.87946e-17 0)
(3 -2.91385e-16 0)
(3 -9.48588e-16 0)
(3 -1.60364e-15 0)
(3 -2.26683e-15 0)
(3 -1.86112e-15 0)
(3 -9.69198e-16 0)
(3 2.40889e-16 0)
(3 1.61764e-16 0)
(3 1.13403e-16 0)
(3 8.10564e-16 0)
(3 7.7839e-16 0)
(3 1.43323e-15 0)
(3 1.7554e-15 0)
(3 1.90691e-15 0)
(3 8.82947e-16 0)
(3 2.14079e-16 0)
(3 1.08979e-15 0)
(3 2.76216e-15 0)
(3 2.54625e-15 0)
(3 2.90946e-15 0)
(3 2.88759e-15 0)
(3 3.09222e-15 0)
(3 2.71307e-15 0)
(3 1.83877e-15 0)
(3 1.8927e-15 0)
(3 2.21136e-15 0)
(3 9.47137e-16 0)
(3 2.53641e-16 0)
(3 3.21765e-16 0)
(3 3.79302e-16 0)
(3 6.85728e-16 0)
(3 1.53479e-15 0)
(3 1.92506e-15 0)
(3 1.71868e-15 0)
(3 1.64501e-15 0)
(3 1.30543e-15 0)
(3 8.76368e-16 0)
(3 7.51746e-16 0)
(3 -2.18333e-16 0)
(3 -4.85138e-16 0)
(3 -5.4242e-16 0)
(3 -1.97622e-16 0)
(3 -6.4914e-16 0)
(3 -5.61951e-16 0)
(3 -7.26252e-16 0)
(3 -5.12824e-16 0)
(3 -5.26413e-15 0)
(1.64272 0.144814 0)
(0.805762 0.130858 0)
(0.752999 0.136357 0)
(0.735037 0.12849 0)
(0.71675 0.124931 0)
(0.700692 0.124557 0)
(0.685965 0.127187 0)
(0.672328 0.132412 0)
(0.658568 0.138023 0)
(0.643782 0.141542 0)
(0.628006 0.141361 0)
(0.612052 0.137565 0)
(0.596502 0.133045 0)
(0.581585 0.132014 0)
(0.567876 0.135676 0)
(0.554866 0.142022 0)
(0.540826 0.14715 0)
(0.525505 0.147938 0)
(0.509916 0.145374 0)
(0.494065 0.144747 0)
(0.479118 0.148844 0)
(0.464584 0.154261 0)
(0.449442 0.155931 0)
(0.434287 0.155722 0)
(0.419148 0.158233 0)
(0.40385 0.162186 0)
(0.387773 0.164845 0)
(0.371102 0.166925 0)
(0.353992 0.169474 0)
(0.336651 0.172363 0)
(0.319285 0.175429 0)
(0.301945 0.178484 0)
(0.284553 0.181352 0)
(0.26699 0.184218 0)
(0.249043 0.187197 0)
(0.230457 0.189995 0)
(0.211151 0.192403 0)
(0.191268 0.194578 0)
(0.171076 0.196721 0)
(0.150828 0.198774 0)
(0.130705 0.200849 0)
(0.110736 0.202873 0)
(0.0909208 0.205646 0)
(0.071055 0.208832 0)
(0.0510934 0.213283 0)
(0.0307299 0.21636 0)
(0.010563 0.220422 0)
(3 -7.15397e-17 0)
(3 -1.0289e-16 0)
(3 -3.39982e-16 0)
(3 -1.94245e-16 0)
(3 -4.20683e-16 0)
(3 -4.22609e-16 0)
(3 -3.13615e-16 0)
(3 1.28569e-16 0)
(3 7.20426e-16 0)
(3 1.16185e-15 0)
(3 1.43736e-15 0)
(3 1.82545e-15 0)
(3 2.14887e-15 0)
(3 2.38385e-15 0)
(3 2.53566e-15 0)
(3 2.2681e-15 0)
(3 2.64273e-15 0)
(3 3.47422e-15 0)
(3 3.11976e-15 0)
(3 2.70251e-15 0)
(3 1.32534e-15 0)
(3 9.827e-16 0)
(3 1.11222e-15 0)
(3 5.61476e-16 0)
(3 5.1495e-16 0)
(3 1.00662e-15 0)
(3 1.67274e-15 0)
(3 2.00144e-15 0)
(3 2.09644e-15 0)
(3 1.92357e-15 0)
(3 1.50132e-15 0)
(3 1.25085e-15 0)
(3 1.20476e-15 0)
(3 1.43228e-15 0)
(3 1.34542e-15 0)
(3 1.24082e-15 0)
(3 1.4838e-15 0)
(3 1.30308e-15 0)
(3 1.26039e-15 0)
(3 9.48872e-16 0)
(3 -3.56238e-17 0)
(3 -4.01067e-16 0)
(3 -5.4128e-16 0)
(3 2.71315e-16 0)
(3 6.56682e-16 0)
(3 2.57177e-16 0)
(3 -3.75371e-16 0)
(3 -3.68024e-16 0)
(3 -1.6711e-15 0)
(1.79171 0.156505 0)
(0.820696 0.145874 0)
(0.755262 0.152782 0)
(0.737627 0.143319 0)
(0.719149 0.13836 0)
(0.702822 0.136963 0)
(0.687573 0.139197 0)
(0.673463 0.143962 0)
(0.659877 0.150037 0)
(0.6454 0.154454 0)
(0.629768 0.155221 0)
(0.613686 0.152076 0)
(0.597877 0.147259 0)
(0.582533 0.145297 0)
(0.568328 0.148287 0)
(0.555101 0.154625 0)
(0.541127 0.160333 0)
(0.52586 0.161869 0)
(0.510271 0.159497 0)
(0.494396 0.158523 0)
(0.479378 0.162399 0)
(0.465027 0.16814 0)
(0.450015 0.170382 0)
(0.434951 0.170309 0)
(0.419937 0.172838 0)
(0.404882 0.177069 0)
(0.389096 0.18016 0)
(0.37274 0.18264 0)
(0.355991 0.185585 0)
(0.339038 0.188917 0)
(0.322026 0.192481 0)
(0.304932 0.196054 0)
(0.287627 0.199392 0)
(0.270006 0.202641 0)
(0.251916 0.205951 0)
(0.233161 0.209056 0)
(0.213687 0.211751 0)
(0.193632 0.214207 0)
(0.173244 0.216644 0)
(0.152755 0.218963 0)
(0.132342 0.221249 0)
(0.112041 0.22335 0)
(0.0918955 0.226178 0)
(0.0717053 0.229338 0)
(0.0515451 0.233968 0)
(0.0309771 0.237241 0)
(0.0106806 0.241642 0)
(3 -1.59505e-16 0)
(3 -7.8184e-16 0)
(3 -8.14914e-16 0)
(3 -6.03204e-16 0)
(3 7.03702e-16 0)
(3 1.42538e-15 0)
(3 1.32687e-15 0)
(3 1.13249e-15 0)
(3 1.05974e-15 0)
(3 1.27779e-15 0)
(3 1.82522e-15 0)
(3 2.42192e-15 0)
(3 3.07914e-15 0)
(3 2.90887e-15 0)
(3 2.00411e-15 0)
(3 1.94742e-15 0)
(3 2.31011e-15 0)
(3 1.92421e-15 0)
(3 1.61832e-15 0)
(3 1.08698e-15 0)
(3 3.69274e-16 0)
(3 1.28743e-16 0)
(3 2.14785e-16 0)
(3 -4.82555e-17 0)
(3 2.64624e-16 0)
(3 8.20487e-16 0)
(3 1.02486e-15 0)
(3 1.14458e-15 0)
(3 1.22609e-15 0)
(3 1.45834e-15 0)
(3 2.27845e-15 0)
(3 2.33886e-15 0)
(3 1.97103e-15 0)
(3 1.58671e-15 0)
(3 1.66445e-15 0)
(3 2.10966e-15 0)
(3 1.77208e-15 0)
(3 1.61491e-15 0)
(3 1.57069e-15 0)
(3 1.15335e-15 0)
(3 5.38012e-16 0)
(3 6.73277e-16 0)
(3 8.19813e-16 0)
(3 8.1066e-16 0)
(3 7.74895e-16 0)
(3 3.46362e-16 0)
(3 1.37487e-16 0)
(3 7.71993e-17 0)
(3 -2.86112e-15 0)
(1.96608 0.165398 0)
(0.839581 0.162651 0)
(0.75821 0.168304 0)
(0.741258 0.157881 0)
(0.722554 0.152039 0)
(0.705894 0.149602 0)
(0.690504 0.151151 0)
(0.67611 0.155621 0)
(0.662613 0.161663 0)
(0.64875 0.166815 0)
(0.63362 0.168599 0)
(0.617727 0.166373 0)
(0.601914 0.161594 0)
(0.586379 0.158776 0)
(0.571814 0.160996 0)
(0.558406 0.16716 0)
(0.544482 0.173334 0)
(0.52921 0.175678 0)
(0.513443 0.173682 0)
(0.497317 0.172449 0)
(0.481881 0.176084 0)
(0.467316 0.182098 0)
(0.452098 0.184942 0)
(0.436784 0.184952 0)
(0.421557 0.187341 0)
(0.406463 0.191716 0)
(0.390799 0.195224 0)
(0.374669 0.198149 0)
(0.358245 0.201535 0)
(0.341674 0.205331 0)
(0.32503 0.209397 0)
(0.308207 0.2135 0)
(0.291021 0.217341 0)
(0.273381 0.221032 0)
(0.255198 0.22475 0)
(0.236333 0.228251 0)
(0.216739 0.231315 0)
(0.196529 0.23411 0)
(0.175918 0.236879 0)
(0.155122 0.239493 0)
(0.134332 0.242012 0)
(0.113611 0.2442 0)
(0.0930581 0.247099 0)
(0.0724776 0.250207 0)
(0.0520658 0.254993 0)
(0.0312545 0.258446 0)
(0.0108056 0.263176 0)
(3 4.62012e-17 0)
(3 2.03985e-16 0)
(3 2.64929e-16 0)
(3 2.24609e-16 0)
(3 4.96136e-16 0)
(3 8.59692e-16 0)
(3 9.88551e-16 0)
(3 7.28102e-16 0)
(3 4.63001e-16 0)
(3 1.00198e-16 0)
(3 1.43812e-16 0)
(3 9.82118e-16 0)
(3 6.4996e-16 0)
(3 2.07021e-16 0)
(3 -4.91308e-17 0)
(3 2.78312e-16 0)
(3 9.28209e-16 0)
(3 8.36559e-16 0)
(3 4.58213e-16 0)
(3 -6.71241e-16 0)
(3 8.56796e-17 0)
(3 6.37634e-16 0)
(3 6.70033e-16 0)
(3 9.80235e-16 0)
(3 8.08581e-16 0)
(3 4.06063e-16 0)
(3 -2.30006e-16 0)
(3 1.94028e-17 0)
(3 4.66206e-16 0)
(3 8.79722e-16 0)
(3 9.91277e-16 0)
(3 1.90449e-15 0)
(3 2.12729e-15 0)
(3 1.89037e-15 0)
(3 1.62158e-15 0)
(3 1.06741e-15 0)
(3 3.98398e-16 0)
(3 1.60975e-16 0)
(3 -4.40292e-16 0)
(3 -5.85177e-16 0)
(3 4.17213e-16 0)
(3 1.10375e-15 0)
(3 1.82429e-15 0)
(3 1.51897e-15 0)
(3 1.01194e-15 0)
(3 9.37918e-16 0)
(3 1.07476e-15 0)
(3 1.51402e-15 0)
(3 -1.18492e-15 0)
(2.16263 0.167937 0)
(0.862352 0.180405 0)
(0.760138 0.183971 0)
(0.743027 0.172985 0)
(0.723392 0.167015 0)
(0.705839 0.163385 0)
(0.68997 0.163827 0)
(0.675784 0.167546 0)
(0.662759 0.173186 0)
(0.6499 0.178641 0)
(0.635769 0.181575 0)
(0.620321 0.180536 0)
(0.604502 0.17624 0)
(0.588726 0.172786 0)
(0.573694 0.174172 0)
(0.559989 0.180011 0)
(0.546118 0.186526 0)
(0.531011 0.189609 0)
(0.515432 0.18807 0)
(0.499565 0.186612 0)
(0.484255 0.189936 0)
(0.469967 0.19614 0)
(0.45494 0.19962 0)
(0.439603 0.199749 0)
(0.424247 0.201942 0)
(0.409058 0.206396 0)
(0.393397 0.210328 0)
(0.377316 0.213738 0)
(0.36099 0.21757 0)
(0.344548 0.221787 0)
(0.328041 0.226291 0)
(0.311326 0.230875 0)
(0.294183 0.235215 0)
(0.276532 0.239388 0)
(0.258339 0.243594 0)
(0.239485 0.247597 0)
(0.219889 0.251137 0)
(0.199612 0.254357 0)
(0.17882 0.257519 0)
(0.157708 0.26047 0)
(0.136502 0.263253 0)
(0.115308 0.265542 0)
(0.0942958 0.268508 0)
(0.0732831 0.27153 0)
(0.0525773 0.27642 0)
(0.0315108 0.280009 0)
(0.0109153 0.285036 0)
(3 -5.58468e-17 0)
(3 1.50367e-16 0)
(3 3.00773e-16 0)
(3 4.97794e-17 0)
(3 -4.4157e-16 0)
(3 -7.05141e-16 0)
(3 -8.37115e-16 0)
(3 -5.88893e-17 0)
(3 -9.82314e-17 0)
(3 -3.64199e-16 0)
(3 -7.45066e-16 0)
(3 -1.28062e-15 0)
(3 -1.14376e-15 0)
(3 -8.04092e-16 0)
(3 -5.13371e-16 0)
(3 -1.89448e-16 0)
(3 8.16953e-16 0)
(3 1.0666e-15 0)
(3 1.17007e-15 0)
(3 9.26604e-16 0)
(3 2.58691e-16 0)
(3 3.89399e-16 0)
(3 2.61539e-16 0)
(3 -5.29605e-16 0)
(3 -9.60757e-16 0)
(3 -9.64591e-16 0)
(3 -8.15775e-16 0)
(3 -5.82115e-16 0)
(3 1.14244e-15 0)
(3 1.22142e-15 0)
(3 1.26864e-15 0)
(3 1.42155e-15 0)
(3 1.24084e-15 0)
(3 8.8496e-16 0)
(3 7.7013e-16 0)
(3 8.0847e-16 0)
(3 2.93276e-17 0)
(3 -2.99323e-16 0)
(3 -8.34446e-16 0)
(3 -8.28913e-16 0)
(3 -1.91854e-16 0)
(3 7.48476e-16 0)
(3 1.66018e-15 0)
(3 1.61742e-15 0)
(3 1.2967e-15 0)
(3 1.46543e-15 0)
(3 1.57434e-15 0)
(3 1.47424e-15 0)
(3 1.69304e-15 0)
(2.37957 0.164403 0)
(0.894979 0.19914 0)
(0.764765 0.199034 0)
(0.748035 0.188683 0)
(0.728685 0.18314 0)
(0.711277 0.17829 0)
(0.695037 0.177157 0)
(0.680472 0.179587 0)
(0.6672 0.184589 0)
(0.654197 0.190432 0)
(0.639967 0.194463 0)
(0.623994 0.1949 0)
(0.607293 0.19144 0)
(0.590781 0.187468 0)
(0.575099 0.187765 0)
(0.561157 0.192945 0)
(0.547649 0.199526 0)
(0.533031 0.203171 0)
(0.517888 0.202128 0)
(0.50245 0.200447 0)
(0.487373 0.203423 0)
(0.473429 0.209819 0)
(0.458608 0.214083 0)
(0.44322 0.214555 0)
(0.427726 0.216669 0)
(0.412418 0.221245 0)
(0.39674 0.225648 0)
(0.38069 0.229591 0)
(0.364407 0.233858 0)
(0.34799 0.238413 0)
(0.331495 0.243229 0)
(0.31479 0.248184 0)
(0.297641 0.252962 0)
(0.279984 0.257616 0)
(0.261831 0.262364 0)
(0.243072 0.266963 0)
(0.223573 0.271093 0)
(0.203319 0.274843 0)
(0.182417 0.278488 0)
(0.161028 0.281855 0)
(0.139406 0.284972 0)
(0.1177 0.28741 0)
(0.0961546 0.290468 0)
(0.0746052 0.293385 0)
(0.0534654 0.298328 0)
(0.0319965 0.302001 0)
(0.011097 0.307285 0)
(3 -8.79778e-17 0)
(3 -6.93417e-17 0)
(3 -3.8555e-16 0)
(3 -9.09309e-16 0)
(3 -9.53333e-16 0)
(3 -7.00524e-16 0)