/*--------------------------------*- C++ -*----------------------------------*\
  =========                 |
  \\      /  F ield         | OpenFOAM: The Open Source CFD Toolbox
   \\    /   O peration     | Website:  https://openfoam.org
    \\  /    A nd           | Version:  7
     \\/     M anipulation  |
\*---------------------------------------------------------------------------*/
FoamFile
{
    version     2.0;
    format      ascii;
    class       volVectorField;
    location    "2.2";
    object      U;
}
// * * * * * * * * * * * * * * * * * * * * * * * * * * * * * * * * * * * * * //

dimensions      [0 1 -1 0 0 0 0];

internalField   nonuniform List<vector> 
4032
(
(3 8.24787e-17 0)
(3 1.46167e-17 0)
(3 8.8527e-17 0)
(3 -2.35699e-16 0)
(3 -1.9071e-16 0)
(3 -1.72576e-16 0)
(3 -1.62577e-16 0)
(3 -5.86066e-17 0)
(3 5.87837e-17 0)
(3 -1.94638e-16 0)
(3 -2.85715e-16 0)
(3 -4.16754e-16 0)
(1.27003 0.0157568 0)
(0.72967 0.0158695 0)
(0.671042 0.0220608 0)
(0.616199 0.0243212 0)
(0.557852 0.0260093 0)
(0.497923 0.0276594 0)
(0.435594 0.0293871 0)
(0.370095 0.0316274 0)
(0.299993 0.0345996 0)
(0.22288 0.0385937 0)
(0.138324 0.0413594 0)
(0.0507963 0.0456213 0)
(3 -7.89323e-17 0)
(3 1.2176e-16 0)
(3 1.78849e-16 0)
(3 -6.32016e-16 0)
(3 -4.58788e-16 0)
(3 -4.24642e-16 0)
(3 -1.55778e-16 0)
(3 -9.73029e-17 0)
(3 7.78266e-17 0)
(3 -1.19955e-16 0)
(3 -2.90015e-17 0)
(3 -7.37196e-16 0)
(1.29759 0.0727708 0)
(0.723623 0.0638881 0)
(0.65785 0.0689553 0)
(0.60141 0.0734212 0)
(0.542065 0.0775292 0)
(0.481797 0.0824297 0)
(0.419661 0.0878709 0)
(0.355234 0.0951967 0)
(0.287335 0.104876 0)
(0.213712 0.117934 0)
(0.132515 0.12738 0)
(0.0490695 0.140442 0)
(3 5.85701e-17 0)
(3 -5.69967e-17 0)
(3 -1.02368e-16 0)
(3 -3.6762e-16 0)
(3 -3.2508e-16 0)
(3 -3.74487e-16 0)
(3 -3.252e-16 0)
(3 -5.09785e-16 0)
(3 -4.16808e-16 0)
(3 3.97862e-16 0)
(3 6.39725e-16 0)
(3 -9.78403e-16 0)
(1.38291 0.128239 0)
(0.735559 0.112768 0)
(0.662108 0.119268 0)
(0.603073 0.125915 0)
(0.541206 0.132379 0)
(0.478722 0.140076 0)
(0.414379 0.148228 0)
(0.348131 0.158995 0)
(0.279246 0.173078 0)
(0.206693 0.193439 0)
(0.126753 0.208689 0)
(0.0472222 0.229568 0)
(3 1.42185e-17 0)
(3 -1.06997e-18 0)
(3 -2.9163e-17 0)
(3 -2.29349e-16 0)
(3 -2.49689e-16 0)
(3 -1.21676e-17 0)
(3 -1.91125e-16 0)
(3 -2.78271e-16 0)
(3 -3.07386e-16 0)
(3 1.70844e-16 0)
(3 -1.02437e-16 0)
(3 -5.71898e-16 0)
(1.52017 0.18024 0)
(0.753066 0.164816 0)
(0.670184 0.171236 0)
(0.611308 0.179361 0)
(0.549569 0.188309 0)
(0.487185 0.199617 0)
(0.42204 0.211659 0)
(0.354137 0.226955 0)
(0.283002 0.24524 0)
(0.209675 0.272053 0)
(0.127848 0.292612 0)
(0.0464601 0.318043 0)
(3 -4.48312e-16 0)
(3 -1.70743e-16 0)
(3 -1.18681e-16 0)
(3 1.27919e-16 0)
(3 -2.46271e-16 0)
(3 -1.33258e-16 0)
(3 -4.84106e-16 0)
(3 -6.71307e-16 0)
(3 -9.03707e-16 0)
(3 -8.59824e-16 0)
(3 -5.70318e-16 0)
(3 -1.18334e-16 0)
(1.72236 0.226903 0)
(0.779375 0.221075 0)
(0.678716 0.222828 0)
(0.621238 0.231332 0)
(0.562974 0.242107 0)
(0.505509 0.256855 0)
(0.445013 0.273234 0)
(0.380965 0.293933 0)
(0.311423 0.316726 0)
(0.238531 0.350854 0)
(0.15031 0.381628 0)
(0.0570949 0.415666 0)
(3 8.05404e-17 0)
(3 2.85095e-16 0)
(3 5.79418e-17 0)
(3 1.97327e-16 0)
(3 -1.84198e-16 0)
(3 -6.24698e-16 0)
(3 -1.1947e-15 0)
(3 -1.74172e-15 0)
(3 -2.15042e-15 0)
(3 -1.50865e-15 0)
(3 -8.45285e-16 0)
(3 -2.47107e-15 0)
(1.99468 0.272613 0)
(0.812826 0.289479 0)
(0.681536 0.282834 0)
(0.623913 0.285074 0)
(0.567715 0.295495 0)
(0.514509 0.312797 0)
(0.459268 0.333941 0)
(0.400096 0.362246 0)
(0.330571 0.394271 0)
(0.252943 0.44166 0)
(0.160981 0.49127 0)
(0.0549123 0.534921 0)
(3 1.62934e-16 0)
(3 3.86016e-16 0)
(3 2.59741e-16 0)
(3 5.19527e-17 0)
(3 -4.50506e-17 0)
(3 -3.24228e-16 0)
(3 -8.07633e-16 0)
(3 -1.18141e-15 0)
(3 -9.99216e-16 0)
(3 -9.74325e-16 0)
(3 -1.0283e-15 0)
(3 -1.99369e-15 0)
(2.38027 0.301662 0)
(0.888184 0.371023 0)
(0.721701 0.33909 0)
(0.666122 0.342706 0)
(0.606265 0.351546 0)
(0.550531 0.36849 0)
(0.495039 0.392655 0)
(0.439803 0.429094 0)
(0.375093 0.473132 0)
(0.309215 0.531841 0)
(0.22429 0.599336 0)
(0.098415 0.673187 0)
(3 -4.44875e-16 0)
(3 -8.32017e-16 0)
(3 -3.83239e-16 0)
(3 -2.57475e-16 0)
(3 -1.84341e-16 0)
(3 2.74493e-16 0)
(3 8.80739e-17 0)
(3 8.43215e-17 0)
(3 1.85448e-16 0)
(3 2.25985e-16 0)
(3 5.13758e-18 0)
(3 -6.52051e-17 0)
(2.88963 0.17334 0)
(1.04796 0.426986 0)
(0.807831 0.368023 0)
(0.754714 0.385316 0)
(0.686158 0.402631 0)
(0.621417 0.424126 0)
(0.561021 0.451779 0)
(0.505569 0.493131 0)
(0.447723 0.544008 0)
(0.383324 0.625564 0)
(0.271576 0.756595 0)
(0.149688 0.93234 0)
(3 3.64259e-18 0)
(3 -7.33461e-17 0)
(3 -6.97606e-17 0)
(3 2.33458e-16 0)
(3 2.86809e-16 0)
(3 7.19395e-17 0)
(3 -2.31586e-16 0)
(3 2.1233e-16 0)
(3 2.94843e-16 0)
(3 -2.495e-16 0)
(3 -3.43147e-16 0)
(3 2.78929e-16 0)
(3.0445 0.0135142 0)
(1.23776 0.414547 0)
(0.848709 0.415639 0)
(0.813417 0.454747 0)
(0.75704 0.468092 0)
(0.700255 0.486873 0)
(0.643573 0.513169 0)
(0.590899 0.555187 0)
(0.539145 0.617423 0)
(0.495205 0.734138 0)
(0.4645 0.914756 0)
(0.58142 1.20534 0)
(3 3.66886e-18 0)
(3 -1.1617e-16 0)
(3 -2.28237e-16 0)
(3 -4.59967e-17 0)
(3 7.66518e-16 0)
(3 7.35851e-16 0)
(3 8.46162e-16 0)
(3 9.38018e-16 0)
(3 7.99073e-16 0)
(3 2.06567e-17 0)
(3 -3.10449e-16 0)
(3 2.70039e-16 0)
(3.00187 5.84873e-06 0)
(1.48008 0.427152 0)
(0.845738 0.462889 0)
(0.804898 0.495846 0)
(0.77001 0.51954 0)
(0.737859 0.546903 0)
(0.704179 0.577644 0)
(0.668903 0.621272 0)
(0.642575 0.690348 0)
(0.632317 0.809887 0)
(0.690661 0.954859 0)
(0.971423 1.12663 0)
(3 2.38216e-17 0)
(3 -1.95085e-16 0)
(3 -3.94329e-16 0)
(3 -3.94322e-16 0)
(3 -3.64686e-16 0)
(3 4.59211e-16 0)
(3 9.31665e-16 0)
(3 7.29478e-16 0)
(3 5.93114e-16 0)
(3 8.58631e-16 0)
(3 1.08359e-15 0)
(3 1.24994e-15 0)
(3.00001 -2.82618e-07 0)
(1.98815 0.469139 0)
(0.896906 0.527242 0)
(0.812851 0.524581 0)
(0.793096 0.551984 0)
(0.777351 0.582507 0)
(0.762435 0.618677 0)
(0.747159 0.665013 0)
(0.749146 0.735619 0)
(0.770886 0.840586 0)
(0.885142 0.957968 0)
(1.18499 1.06573 0)
(3 3.68173e-16 0)
(3 3.64668e-16 0)
(3 1.34062e-16 0)
(3 -2.70897e-16 0)
(3 -1.0401e-15 0)
(3 -7.14728e-16 0)
(3 -4.16037e-16 0)
(3 -6.63228e-16 0)
(3 -4.49743e-16 0)
(3 2.38373e-16 0)
(3 9.84704e-16 0)
(3 7.26129e-16 0)
(3 -2.59607e-07 0)
(2.74966 0.305812 0)
(1.07215 0.597381 0)
(0.878352 0.546351 0)
(0.846213 0.571645 0)
(0.828254 0.605844 0)
(0.820088 0.647127 0)
(0.820216 0.696914 0)
(0.840515 0.764122 0)
(0.891207 0.849858 0)
(1.02755 0.940215 0)
(1.27845 1.00147 0)
(3 -2.12145e-16 0)
(3 6.60075e-17 0)
(3 -2.72626e-17 0)
(3 -2.94079e-16 0)
(3 -1.30453e-16 0)
(3 -3.17308e-18 0)
(3 -1.30032e-16 0)
(3 -4.93105e-16 0)
(3 -7.91826e-16 0)
(3 -7.3417e-16 0)
(3 -2.59005e-16 0)
(3 -4.18426e-16 0)
(3 -5.00788e-08 0)
(3.07272 0.0267556 0)
(1.39449 0.60027 0)
(0.966762 0.616056 0)
(0.908313 0.621525 0)
(0.878926 0.64102 0)
(0.873003 0.67588 0)
(0.885285 0.719504 0)
(0.916642 0.777155 0)
(0.98701 0.849532 0)
(1.12821 0.918844 0)
(1.3367 0.958315 0)
(3 -7.22222e-17 0)
(3 1.98968e-16 0)
(3 1.14657e-16 0)
(3 8.68084e-17 0)
(3 3.4042e-16 0)
(3 1.36529e-16 0)
(3 6.76478e-17 0)
(3 1.62109e-16 0)
(3 3.64488e-16 0)
(3 1.71072e-16 0)
(3 -2.19483e-16 0)
(3 -3.46162e-16 0)
(3 -4.50414e-09 0)
(3.00418 6.21821e-05 0)
(1.86874 0.578675 0)
(1.01549 0.688887 0)
(0.961451 0.673684 0)
(0.94027 0.679937 0)
(0.937027 0.700594 0)
(0.951488 0.73529 0)
(0.988364 0.780603 0)
(1.06226 0.834737 0)
(1.18906 0.884677 0)
(1.35653 0.909849 0)
(3 1.17971e-16 0)
(3 3.20962e-16 0)
(3 5.50972e-16 0)
(3 8.53379e-16 0)
(3 7.89952e-16 0)
(3 1.10747e-16 0)
(3 5.63747e-18 0)
(3 4.35813e-16 0)
(3 4.05069e-16 0)
(3 2.86956e-16 0)
(3 -2.95892e-16 0)
(3 -4.27582e-16 0)
(3 -1.18425e-10 0)
(3.00001 -4.89652e-07 0)
(2.76999 0.306826 0)
(1.18911 0.693284 0)
(1.03532 0.691452 0)
(1.02742 0.700866 0)
(1.02087 0.724779 0)
(1.02598 0.752432 0)
(1.05948 0.792075 0)
(1.12987 0.832558 0)
(1.23833 0.866148 0)
(1.37627 0.882276 0)
(3 2.92354e-17 0)
(3 -9.07116e-17 0)
(3 4.37208e-17 0)
(3 5.00605e-16 0)
(3 8.69858e-16 0)
(3 8.55236e-16 0)
(3 5.79149e-16 0)
(3 1.35624e-16 0)
(3 -6.96289e-17 0)
(3 -2.73721e-18 0)
(3 -5.09598e-17 0)
(3 2.52534e-17 0)
(3 -2.2183e-13 0)
(3 -6.9802e-07 0)
(3.0599 0.0192215 0)
(1.48698 0.659933 0)
(1.06486 0.738444 0)
(1.07671 0.749385 0)
(1.07292 0.770474 0)
(1.08784 0.781997 0)
(1.12056 0.79944 0)
(1.18527 0.823233 0)
(1.27624 0.844563 0)
(1.39173 0.854414 0)
(3 -5.89759e-17 0)
(3 4.8785e-17 0)
(3 5.56231e-17 0)
(3 -1.1617e-16 0)
(3 -1.91877e-16 0)
(3 -1.48362e-16 0)
(3 -4.19771e-16 0)
(3 -1.09179e-15 0)
(3 -1.11486e-15 0)
(3 -1.00449e-15 0)
(3 -7.52712e-16 0)
(3 -7.0608e-16 0)
(3 -1.07413e-15 0)
(3 -1.37695e-07 0)
(3.00228 0.000112892 0)
(2.16738 0.58389 0)
(1.15226 0.791045 0)
(1.10746 0.785556 0)
(1.11501 0.788054 0)
(1.13646 0.797915 0)
(1.1728 0.812477 0)
(1.23172 0.829146 0)
(1.31191 0.842721 0)
(1.40886 0.847039 0)
(3 -9.11124e-17 0)
(3 -2.23235e-16 0)
(3 -2.2329e-16 0)
(3 -4.76608e-16 0)
(3 -1.04909e-15 0)
(3 -1.64013e-15 0)
(3 -1.52533e-15 0)
(3 -1.12269e-15 0)
(3 -9.47901e-16 0)
(3 -1.63524e-15 0)
(3 -1.84734e-15 0)
(3 -1.68354e-15 0)
(3 -7.33687e-16 0)
(3 -1.06398e-08 0)
(3 1.36544e-08 0)
(3.0286 0.131321 0)
(1.47203 0.781007 0)
(1.16785 0.781115 0)
(1.17684 0.78643 0)
(1.19329 0.801034 0)
(1.2262 0.814442 0)
(1.27694 0.826095 0)
(1.34603 0.834206 0)
(1.4281 0.836512 0)
(3 3.06637e-17 0)
(3 9.72002e-17 0)
(3 -9.08636e-17 0)
(3 -1.76453e-16 0)
(3 -8.46925e-16 0)
(3 -1.02293e-15 0)
(3 -7.94068e-16 0)
(3 -3.43196e-16 0)
(3 -4.50269e-16 0)
(3 -6.44625e-16 0)
(3 -7.54632e-16 0)
(3 -5.05544e-16 0)
(3 6.10612e-16 0)
(3 -4.01838e-11 0)
(3 -2.09004e-07 0)
(3.01699 0.002418 0)
(2.03109 0.693437 0)
(1.21466 0.839362 0)
(1.19943 0.83269 0)
(1.2319 0.832419 0)
(1.26537 0.83873 0)
(1.31244 0.844607 0)
(1.37315 0.84712 0)
(1.44231 0.846097 0)
(3 3.74001e-17 0)
(3 -1.71938e-17 0)
(3 2.78162e-16 0)
(3 1.20188e-16 0)
(3 5.66734e-17 0)
(3 -3.90991e-16 0)
(3 -8.49109e-16 0)
(3 -8.64283e-16 0)
(3 -1.12803e-15 0)
(3 -7.5306e-16 0)
(3 -5.59766e-16 0)
(3 -1.96973e-16 0)
(3 3.67929e-16 0)
(3 -6.62135e-14 0)
(3 -3.6569e-08 0)
(3.00012 2.85884e-05 0)
(2.96594 0.215434 0)
(1.50467 0.842496 0)
(1.24368 0.823784 0)
(1.28243 0.830591 0)
(1.31128 0.839799 0)
(1.35467 0.84423 0)
(1.40711 0.845426 0)
(1.46546 0.842582 0)
(3 3.72976e-17 0)
(3 -3.04616e-16 0)
(3 -3.47422e-16 0)
(3 -3.2663e-16 0)
(3 -8.95086e-17 0)
(3 7.7078e-17 0)
(3 -6.0753e-17 0)
(3 -2.42767e-16 0)
(3 -2.40485e-16 0)
(3 -6.52682e-17 0)
(3 -2.31531e-16 0)
(3 -1.08652e-16 0)
(3 1.79054e-16 0)
(3 8.43911e-17 0)
(3 -1.06471e-09 0)
(3 -3.91402e-07 0)
(3.0233 0.00659187 0)
(2.0746 0.721053 0)
(1.30387 0.877056 0)
(1.30049 0.872294 0)
(1.33637 0.87106 0)
(1.37608 0.871206 0)
(1.42359 0.868314 0)
(1.47779 0.859915 0)
(3 -1.00103e-16 0)
(3 1.04505e-16 0)
(3 3.93875e-17 0)
(3 -7.86053e-17 0)
(3 -2.3256e-16 0)
(3 1.9235e-16 0)
(3 1.29722e-15 0)
(3 1.81045e-15 0)
(3 1.76333e-15 0)
(3 1.46338e-15 0)
(3 1.09136e-15 0)
(3 1.0241e-15 0)
(3 1.07715e-15 0)
(3 4.38808e-16 0)
(3 -3.39776e-12 0)
(3 -9.93355e-08 0)
(3.00023 0.000133192 0)
(2.9536 0.214612 0)
(1.6265 0.879654 0)
(1.33622 0.871682 0)
(1.3776 0.869265 0)
(1.40837 0.868414 0)
(1.44983 0.863215 0)
(1.50004 0.853714 0)
(3 -3.89909e-17 0)
(3 3.27425e-16 0)
(3 7.2229e-16 0)
(3 4.28869e-16 0)
(3 3.93405e-16 0)
(3 5.54207e-16 0)
(3 7.18962e-16 0)
(3 1.50582e-15 0)
(3 1.60797e-15 0)
(3 1.46075e-15 0)
(3 2.0673e-15 0)
(3 1.9825e-15 0)
(3 1.09379e-15 0)
(3 3.06908e-16 0)
(3 -5.08327e-16 0)
(3 -9.6744e-09 0)
(3 1.24099e-07 0)
(3.01532 0.00925661 0)
(2.35638 0.674875 0)
(1.42642 0.917398 0)
(1.40479 0.907305 0)
(1.43738 0.893021 0)
(1.47162 0.882848 0)
(1.51447 0.873178 0)
(3 5.09628e-17 0)
(3 -1.55478e-16 0)
(3 -2.51167e-16 0)
(3 8.586e-18 0)
(3 2.68291e-16 0)
(3 1.78027e-16 0)
(3 1.81614e-16 0)
(3 -7.29712e-17 0)
(3 1.40061e-16 0)
(3 7.50633e-16 0)
(3 1.10341e-15 0)
(3 7.75231e-16 0)
(3 -1.06952e-16 0)
(3 -5.072e-16 0)
(3 6.56085e-16 0)
(3 -3.91437e-10 0)
(3 -3.77605e-10 0)
(3.00011 0.000191944 0)
(3.01439 0.122096 0)
(1.84094 0.84433 0)
(1.44093 0.917417 0)
(1.48217 0.903694 0)
(1.50996 0.892652 0)
(1.54523 0.881317 0)
(3 1.16163e-16 0)
(3 -2.86609e-16 0)
(3 -3.23927e-16 0)
(3 -8.99965e-17 0)
(3 8.93013e-17 0)
(3 9.54967e-17 0)
(3 -1.85613e-16 0)
(3 -3.8986e-16 0)
(3 -9.3782e-17 0)
(3 8.64555e-16 0)
(3 3.77295e-16 0)
(3 -1.16454e-15 0)
(3 -6.53668e-16 0)
(3 -2.03991e-17 0)
(3 1.63934e-16 0)
(3 -3.36823e-12 0)
(3 -1.16278e-10 0)
(3 2.55502e-07 0)
(3.00482 0.0058723 0)
(2.66532 0.470242 0)
(1.63109 0.945508 0)
(1.49133 0.929311 0)
(1.53463 0.920329 0)
(1.56778 0.908963 0)
(3 -4.41234e-18 0)
(3 1.88696e-16 0)
(3 2.24352e-16 0)
(3 -1.52579e-16 0)
(3 -2.46269e-16 0)
(3 -3.86747e-17 0)
(3 -1.91181e-16 0)
(3 -1.69202e-16 0)
(3 -1.59326e-16 0)
(3 -3.14466e-17 0)
(3 -1.61168e-16 0)
(3 -3.38886e-16 0)
(3 -4.34463e-17 0)
(3 6.3479e-16 0)
(3 1.17329e-15 0)
(3 -5.12125e-15 0)
(3 -1.44775e-11 0)
(3 4.66316e-11 0)
(3.00001 6.16324e-05 0)
(3.01561 0.0436876 0)
(2.19831 0.758718 0)
(1.56304 0.947253 0)
(1.55943 0.941938 0)
(1.59403 0.924236 0)
(3 1.30418e-16 0)
(3 1.29369e-17 0)
(3 -2.15636e-16 0)
(3 -2.46322e-17 0)
(3 -1.56233e-16 0)
(3 -1.57618e-16 0)
(3 -2.66227e-18 0)
(3 -1.15638e-16 0)
(3 -3.25448e-16 0)
(3 -8.34191e-16 0)
(3 -8.16041e-16 0)
(3 5.46498e-16 0)
(3 1.20195e-15 0)
(3 1.45323e-15 0)
(3 2.0701e-15 0)
(3 7.44524e-16 0)
(3 -8.66081e-13 0)
(3 -8.66693e-13 0)
(3 5.22319e-08 0)
(3.00051 0.00176293 0)
(2.91858 0.217754 0)
(1.90733 0.869618 0)
(1.59954 0.953007 0)
(1.62161 0.942107 0)
(3 2.15279e-18 0)
(3 5.08927e-17 0)
(3 -2.19713e-16 0)
(3 3.08576e-17 0)
(3 -6.54909e-17 0)
(3 -1.81658e-16 0)
(3 -1.74352e-16 0)
(3 -3.03478e-16 0)
(3 -3.45588e-16 0)
(3 -2.5234e-16 0)
(3 3.00625e-16 0)
(3 6.38769e-16 0)
(3 1.51536e-15 0)
(3 2.06496e-15 0)
(3 1.61885e-15 0)
(3 1.03365e-15 0)
(3 -1.01544e-14 0)
(3 -2.86719e-13 0)
(3 1.61155e-11 0)
(3 6.85484e-06 0)
(3.00312 0.0138105 0)
(2.62396 0.479572 0)
(1.78949 0.936178 0)
(1.63687 0.96336 0)
(3 -2.09593e-16 0)
(3 -9.49875e-17 0)
(3 -1.22538e-16 0)
(3 8.5354e-17 0)
(3 -9.23525e-17 0)
(3 -1.98187e-16 0)
(3 -2.41754e-16 0)
(3 7.86457e-18 0)
(3 1.2286e-16 0)
(3 4.01715e-16 0)
(3 8.085e-16 0)
(3 7.20298e-16 0)
(3 6.46058e-16 0)
(3 7.81024e-16 0)
(3 2.01318e-16 0)
(3 7.14848e-16 0)
(3 8.40671e-16 0)
(3 -3.90287e-14 0)
(3 -3.66927e-14 0)
(3 4.16785e-09 0)
(2.99998 0.000233719 0)
(2.9924 0.0532237 0)
(2.34639 0.683567 0)
(1.73324 0.974637 0)
(3 2.02331e-17 0)
(3 -1.10944e-16 0)
(3 -1.37591e-16 0)
(3 -1.15477e-16 0)
(3 -2.19281e-16 0)
(3 -1.71379e-16 0)
(3 -3.83105e-16 0)
(3 9.14109e-17 0)
(3 7.62206e-17 0)
(3 -1.73562e-16 0)
(3 -3.24021e-16 0)
(3 -8.10997e-16 0)
(3 -9.6072e-16 0)
(3 -7.48952e-16 0)
(3 -1.25504e-16 0)
(3 -9.73606e-17 0)
(3 -6.39911e-16 0)
(3 -1.82556e-15 0)
(3 -1.32178e-14 0)
(3 1.10165e-12 0)
(3 3.50673e-07 0)
(2.99992 0.00214383 0)
(2.9317 0.155676 0)
(2.15066 0.805732 0)
(3 4.05883e-18 0)
(3 6.77079e-17 0)
(3 -7.00213e-18 0)
(3 -2.25426e-16 0)
(3 -1.20602e-16 0)
(3 -3.64686e-16 0)
(3 -4.90752e-16 0)
(3 -4.42501e-16 0)
(3 -2.76973e-16 0)
(3 -2.9465e-16 0)
(3 -9.91282e-17 0)
(3 -1.45077e-16 0)
(3 -3.95162e-17 0)
(3 1.54482e-16 0)
(3 2.69692e-16 0)
(3 2.49238e-17 0)
(3 -1.22494e-15 0)
(3 -8.77543e-16 0)
(3 -3.06149e-15 0)
(3 -3.68847e-15 0)
(3 2.11354e-10 0)
(3 8.70332e-06 0)
(2.99907 0.00935566 0)
(2.80126 0.315384 0)
(3 6.46712e-17 0)
(3 1.08152e-17 0)
(3 3.31681e-17 0)
(3 1.68207e-16 0)
(3 3.58136e-16 0)
(3 3.17018e-16 0)
(3 5.29727e-17 0)
(3 -6.58112e-16 0)
(3 -5.91321e-16 0)
(3 -6.27338e-17 0)
(3 2.76324e-16 0)
(3 2.30289e-16 0)
(3 3.47383e-16 0)
(3 1.2291e-17 0)
(3 -1.87136e-16 0)
(3 -5.18897e-16 0)
(3 -1.34299e-15 0)
(3 -1.23567e-15 0)
(3 -9.55941e-16 0)
(3 -2.24074e-15 0)
(3 2.101e-14 0)
(3 8.24534e-09 0)
(2.99998 9.85705e-05 0)
(2.99436 0.0264916 0)
(3 5.15356e-17 0)
(3 -4.20686e-17 0)
(3 -1.81267e-16 0)
(3 -1.76977e-16 0)
(3 -1.00221e-16 0)
(3 4.28623e-17 0)
(3 4.06199e-16 0)
(3 -3.44031e-16 0)
(3 -1.88424e-16 0)
(3 1.06193e-16 0)
(3 1.81391e-16 0)
(3 -2.11115e-16 0)
(3 -4.47905e-16 0)
(3 -5.01523e-16 0)
(3 -2.15529e-16 0)
(3 -2.85436e-16 0)
(3 -5.97224e-16 0)
(3 -7.8973e-16 0)
(3 -1.17648e-15 0)
(3 -1.40248e-15 0)
(3 -1.39915e-15 0)
(3 2.20615e-12 0)
(3 1.40172e-07 0)
(2.99986 0.000618184 0)
(3 -1.06609e-16 0)
(3 -1.37368e-17 0)
(3 -1.76206e-17 0)
(3 -1.8797e-16 0)
(3 -4.2239e-16 0)
(3 -3.34663e-16 0)
(3 9.54485e-17 0)
(3 5.74743e-16 0)
(3 2.87933e-16 0)
(3 2.41621e-16 0)
(3 -8.13531e-17 0)
(3 -2.81679e-16 0)
(3 -7.77369e-16 0)
(3 -7.44176e-16 0)
(3 -6.71851e-16 0)
(3 3.59331e-16 0)
(3 6.40788e-16 0)
(3 -3.25282e-17 0)
(3 -1.04704e-15 0)
(3 -1.01198e-15 0)
(3 -1.8365e-15 0)
(3 -1.62175e-15 0)
(3 7.87217e-11 0)
(3 1.43096e-06 0)
(3 -3.09575e-17 0)
(3 -7.63491e-17 0)
(3 7.71184e-17 0)
(3 1.43605e-16 0)
(3 -6.05904e-18 0)
(3 4.61056e-17 0)
(3 4.02812e-17 0)
(3 4.93383e-16 0)
(3 -6.57531e-16 0)
(3 -1.14522e-15 0)
(3 -2.2047e-15 0)
(3 -2.1913e-15 0)
(3 -2.0969e-15 0)
(3 -2.0662e-15 0)
(3 -2.39963e-15 0)
(3 -1.98503e-15 0)
(3 -7.87999e-16 0)
(3 -4.87603e-16 0)
(3 -8.42092e-16 0)
(3 -1.16559e-15 0)
(3 -1.61295e-15 0)
(3 -2.04013e-15 0)
(3 4.61901e-15 0)
(3 1.40274e-09 0)
(3 -9.13251e-17 0)
(3 -1.18287e-16 0)
(3 3.02908e-16 0)
(3 3.02001e-16 0)
(3 6.54463e-16 0)
(3 4.87758e-16 0)
(3 -3.17872e-16 0)
(3 -7.16152e-16 0)
(3 -1.16869e-15 0)
(3 -1.51255e-15 0)
(3 -1.9744e-15 0)
(3 -2.0319e-15 0)
(3 -1.74186e-15 0)
(3 -1.86803e-15 0)
(3 -1.93717e-15 0)
(3 -1.91301e-15 0)
(3 -1.74693e-15 0)
(3 -3.48705e-16 0)
(3 -1.77827e-16 0)
(3 -4.78711e-16 0)
(3 -4.22979e-16 0)
(3 -6.55318e-16 0)
(3 -1.15043e-15 0)
(3 1.69948e-13 0)
(3 4.00192e-17 0)
(3 -1.68143e-16 0)
(3 1.09276e-16 0)
(3 5.84106e-17 0)
(3 -2.1639e-16 0)
(3 -6.58016e-17 0)
(3 -7.39639e-17 0)
(3 -9.39017e-16 0)
(3 -8.44179e-16 0)
(3 -1.00389e-15 0)
(3 -9.24627e-16 0)
(3 -1.17665e-15 0)
(3 -1.48939e-15 0)
(3 -1.52084e-15 0)
(3 -1.3402e-15 0)
(3 -1.40994e-15 0)
(3 -1.48987e-15 0)
(3 -1.258e-15 0)
(3 -8.81884e-16 0)
(3 -3.32322e-16 0)
(3 5.70334e-16 0)
(3 1.28587e-15 0)
(3 9.1475e-16 0)
(3 1.8044e-15 0)
(3 1.19124e-16 0)
(3 5.39389e-16 0)
(3 7.97417e-17 0)
(3 -4.13419e-16 0)
(3 -7.30196e-16 0)
(3 -4.40519e-16 0)
(3 5.0916e-16 0)
(3 9.64011e-16 0)
(3 2.04022e-16 0)
(3 -4.61396e-16 0)
(3 -8.92909e-16 0)
(3 -1.37291e-15 0)
(3 -1.56105e-15 0)
(3 -1.53645e-15 0)
(3 -2.01107e-15 0)
(3 -1.97067e-15 0)
(3 -1.23799e-15 0)
(3 -7.1757e-16 0)
(3 -2.77319e-16 0)
(3 9.65054e-16 0)
(3 1.11337e-15 0)
(3 1.71875e-15 0)
(3 2.56967e-15 0)
(3 2.148e-15 0)
(3 2.2297e-16 0)
(3 4.77457e-16 0)
(3 1.40954e-16 0)
(3 -7.38918e-17 0)
(3 -3.58927e-17 0)
(3 -6.79331e-17 0)
(3 5.11554e-16 0)
(3 1.66946e-15 0)
(3 1.58363e-15 0)
(3 8.27147e-16 0)
(3 -1.85168e-18 0)
(3 -9.29205e-16 0)
(3 -1.59001e-15 0)
(3 -1.24557e-15 0)
(3 -9.71317e-16 0)
(3 -8.10036e-16 0)
(3 3.06535e-16 0)
(3 8.20836e-16 0)
(3 2.17882e-15 0)
(3 2.75051e-15 0)
(3 1.60501e-15 0)
(3 1.32244e-15 0)
(3 1.31349e-15 0)
(3 5.73015e-16 0)
(3 5.71276e-17 0)
(3 6.22035e-17 0)
(3 -9.64519e-17 0)
(3 -6.77858e-17 0)
(3 2.02654e-16 0)
(3 3.50333e-16 0)
(3 7.37263e-16 0)
(3 9.66365e-16 0)
(3 1.16999e-15 0)
(3 1.22596e-15 0)
(3 2.37592e-16 0)
(3 -5.76057e-16 0)
(3 -1.04407e-15 0)
(3 -9.41625e-16 0)
(3 -2.5044e-16 0)
(3 -3.04946e-17 0)
(3 5.04802e-16 0)
(3 7.01905e-16 0)
(3 7.00866e-16 0)
(3 5.61676e-16 0)
(3 6.04444e-16 0)
(3 6.73819e-16 0)
(3 7.10015e-16 0)
(3 2.90503e-16 0)
(1.53214 1.28668 0)
(1.85798 1.42011 0)
(2.23359 1.12499 0)
(2.63572 0.653376 0)
(2.66354 0.236505 0)
(2.68336 0.0855762 0)
(2.49361 -0.163796 0)
(2.3755 -0.296265 0)
(2.39271 -0.398663 0)
(2.52074 -0.366939 0)
(2.51088 -0.243947 0)
(2.48194 -0.211789 0)
(2.43335 -0.137099 0)
(2.40342 -0.0981083 0)
(2.3728 -0.0920101 0)
(2.3921 -0.0664867 0)
(2.41966 -0.0468411 0)
(2.43483 -0.0525748 0)
(2.43487 -0.0549146 0)
(2.42707 -0.0330765 0)
(2.40624 -0.00433034 0)
(2.39869 -0.00224758 0)
(2.40293 -0.00654167 0)
(2.42345 -0.0122288 0)
(2.42887 -0.0140594 0)
(2.42659 -0.0136086 0)
(2.42021 -0.00841053 0)
(2.41784 -0.00292036 0)
(2.41799 -0.00112224 0)
(2.42275 -0.0018914 0)
(2.42876 -0.00553116 0)
(2.42819 -0.00736075 0)
(2.42532 -0.00720226 0)
(2.42065 -0.0044494 0)
(2.42092 -0.00214883 0)
(2.42531 -0.000841644 0)
(2.43658 0.00359667 0)
(2.43907 -0.00205186 0)
(2.38367 -0.0424172 0)
(2.12531 -0.171392 0)
(1.69979 -0.2868 0)
(1.28916 -0.195974 0)
(1.28628 -0.128408 0)
(1.40412 -0.0642011 0)
(1.4862 -0.0191227 0)
(1.50622 -0.0163409 0)
(1.53074 -0.0143521 0)
(1.56788 -0.00763577 0)
(1.60884 -0.000741861 0)
(1.64538 0.000284762 0)
(1.67313 0.000136273 0)
(1.69583 -0.00030068 0)
(1.71798 -0.00110284 0)
(1.74358 -0.00150602 0)
(1.77307 -0.00129118 0)
(1.80159 -0.000371822 0)
(1.82794 0.000825143 0)
(1.8485 0.0031768 0)
(1.85855 0.00619463 0)
(1.86983 0.00789783 0)
(1.89188 0.00791525 0)
(1.91559 0.0074752 0)
(1.94358 0.00614327 0)
(1.97494 0.00441394 0)
(1.9991 0.0034376 0)
(2.02105 0.00347075 0)
(2.03795 0.00466582 0)
(2.04117 0.00755914 0)
(2.04077 0.0105174 0)
(2.05766 0.0110521 0)
(2.07814 0.0110116 0)
(2.10092 0.0105881 0)
(2.1303 0.00928133 0)
(2.15929 0.00706307 0)
(2.18059 0.0060148 0)
(2.20151 0.00589072 0)
(2.21395 0.00642343 0)
(2.20746 0.0087499 0)
(2.20921 0.010362 0)
(2.22757 0.010366 0)
(2.24688 0.010084 0)
(2.26994 0.0090748 0)
(2.29647 0.00718439 0)
(2.3172 0.00621298 0)
(2.33791 0.00627369 0)
(2.3549 0.00670767 0)
(2.35507 0.00793612 0)
(2.3406 0.0105125 0)
(2.34591 0.01144 0)
(2.36194 0.0115612 0)
(2.37901 0.0115411 0)
(2.39938 0.0111768 0)
(2.42394 0.00994594 0)
(2.44437 0.00836224 0)
(2.46209 0.0075051 0)
(2.4887 0.00777769 0)
(1.78353 1.05514 0)
(2.24595 0.891147 0)
(2.4915 0.450276 0)
(2.67566 -0.0500548 0)
(2.73741 -0.296216 0)
(2.74942 -0.437007 0)
(2.69848 -0.581434 0)
(2.68363 -0.599307 0)
(2.66001 -0.561039 0)
(2.63322 -0.476232 0)
(2.59691 -0.362669 0)
(2.54338 -0.262935 0)
(2.48055 -0.187564 0)
(2.44898 -0.132834 0)
(2.44351 -0.101846 0)
(2.45545 -0.0350137 0)
(2.47091 -0.00132206 0)
(2.47999 -0.0215748 0)
(2.47568 -0.034789 0)
(2.46157 -0.0286315 0)
(2.43719 -0.00463721 0)
(2.42669 0.00220589 0)
(2.42849 0.00800856 0)
(2.44441 0.000370732 0)
(2.4533 -0.0193114 0)
(2.45309 -0.0307608 0)
(2.45252 -0.0309809 0)
(2.453 -0.0187464 0)
(2.45456 -0.000209159 0)
(2.45252 0.00858836 0)
(2.44865 0.00752265 0)
(2.44803 -0.00100657 0)
(2.44868 -0.00921915 0)
(2.44842 -0.0099204 0)
(2.45089 -0.00453059 0)
(2.45609 0.0124753 0)
(2.45276 0.00545288 0)
(2.417 -0.0591096 0)
(2.27257 -0.265156 0)
(1.96707 -0.577943 0)
(1.91829 -0.637727 0)
(1.66677 -0.340867 0)
(1.4398 -0.0838354 0)
(1.4511 0.0131614 0)
(1.49652 0.013162 0)
(1.51546 -0.00709623 0)
(1.54566 -0.00399081 0)
(1.58193 0.00936736 0)
(1.61977 0.0169914 0)
(1.6544 0.0161016 0)
(1.68128 0.0131474 0)
(1.70318 0.00848747 0)
(1.72624 0.00438738 0)
(1.75286 0.00179897 0)
(1.78279 -0.000762927 0)
(1.81202 -0.00261481 0)
(1.83862 -0.00320239 0)
(1.86232 -0.00185987 0)
(1.87763 0.00568039 0)
(1.88537 0.0176786 0)
(1.90235 0.0224911 0)
(1.92512 0.0227176 0)
(1.94974 0.0204327 0)
(1.97866 0.012566 0)
(2.00398 0.00432555 0)
(2.02541 0.000174884 0)
(2.04544 -0.00324688 0)
(2.0577 0.000362769 0)
(2.05927 0.0160162 0)
(2.0666 0.0284948 0)
(2.08597 0.0311599 0)
(2.10607 0.0329989 0)
(2.13132 0.0330022 0)
(2.15724 0.0275027 0)
(2.17895 0.0208254 0)
(2.1993 0.0128648 0)
(2.21601 0.00421305 0)
(2.22169 0.00547662 0)
(2.22255 0.0183129 0)
(2.23529 0.0262576 0)
(2.25367 0.0285402 0)
(2.27353 0.0301935 0)
(2.29672 0.0276627 0)
(2.31918 0.0216176 0)
(2.33913 0.0157442 0)
(2.35626 0.00880662 0)
(2.36421 0.00416574 0)
(2.35818 0.0135175 0)
(2.35559 0.027046 0)
(2.36742 0.0326136 0)
(2.38383 0.0343482 0)
(2.40154 0.0355042 0)
(2.42186 0.03391 0)
(2.44333 0.0298762 0)
(2.46173 0.0225154 0)
(2.49045 0.0172038 0)
(1.67442 1.03467 0)
(2.05276 0.901827 0)
(2.3316 0.661031 0)
(2.5293 0.305277 0)
(2.60048 0.0922069 0)
(2.66044 0.0155915 0)
(2.74357 -0.0820684 0)
(2.74677 -0.197729 0)
(2.71895 -0.355195 0)
(2.72184 -0.398525 0)
(2.72823 -0.431257 0)
(2.71977 -0.441679 0)
(2.68307 -0.391409 0)
(2.65198 -0.326205 0)
(2.64266 -0.275753 0)
(2.63586 -0.208451 0)
(2.6219 -0.117019 0)
(2.59291 -0.107192 0)
(2.55962 -0.114103 0)
(2.52265 -0.0669825 0)
(2.51385 -0.0186596 0)
(2.51411 -0.00119559 0)
(2.51096 0.00157929 0)
(2.5067 0.00890662 0)
(2.50083 0.00594956 0)
(2.49769 -0.00833227 0)
(2.50625 -0.0291139 0)
(2.51642 -0.0322919 0)
(2.51837 -0.0279189 0)
(2.51477 -0.0197022 0)
(2.50092 -0.0151514 0)
(2.49465 -0.015981 0)
(2.49487 -0.017421 0)
(2.49954 -0.0153492 0)
(2.50593 -0.00159423 0)
(2.49805 -0.0159964 0)
(2.44442 -0.0952216 0)
(2.28811 -0.303856 0)
(2.07104 -0.531019 0)
(1.96237 -0.634608 0)
(2.00518 -0.703264 0)
(1.96245 -0.633757 0)
(1.79717 -0.387958 0)
(1.65322 -0.135611 0)
(1.56955 -0.0251106 0)
(1.58045 -0.0136678 0)
(1.61509 -0.00216822 0)
(1.63581 -0.00948834 0)
(1.66238 -0.0130344 0)
(1.69307 -0.00780275 0)
(1.71507 -0.0059625 0)
(1.73536 -0.000952702 0)
(1.75814 0.00397189 0)
(1.78428 0.00770068 0)
(1.81121 0.0087551 0)
(1.83701 0.00774348 0)
(1.86218 0.00590936 0)
(1.88585 0.00439803 0)
(1.90572 0.00590992 0)
(1.9177 0.0154445 0)
(1.9267 0.0280917 0)
(1.94532 0.0330335 0)
(1.9676 0.0340285 0)
(1.98956 0.0338078 0)
(2.01206 0.0286913 0)
(2.03367 0.0215664 0)
(2.0539 0.0160915 0)
(2.07234 0.013916 0)
(2.08541 0.0199134 0)
(2.08967 0.036056 0)
(2.10141 0.0459086 0)
(2.12187 0.04736 0)
(2.14402 0.0466165 0)
(2.16506 0.0436856 0)
(2.18444 0.0387893 0)
(2.20106 0.031067 0)
(2.21522 0.0229435 0)
(2.2303 0.0191024 0)
(2.24385 0.0242304 0)
(2.25355 0.0361047 0)
(2.26715 0.0431236 0)
(2.2861 0.0440592 0)
(2.30526 0.0432839 0)
(2.32299 0.0405391 0)
(2.33847 0.0344559 0)
(2.3511 0.0261374 0)
(2.36186 0.0200219 0)
(2.37172 0.0209833 0)
(2.37882 0.0327875 0)
(2.38431 0.0479098 0)
(2.39597 0.0546959 0)
(2.41268 0.0557603 0)
(2.43013 0.0553344 0)
(2.44738 0.052785 0)
(2.46238 0.0418783 0)
(2.4815 0.0340913 0)
(1.60401 0.982553 0)
(1.92544 0.846873 0)
(2.14984 0.706757 0)
(2.27712 0.577679 0)
(2.45413 0.340297 0)
(2.57123 0.0979408 0)
(2.648 -0.0163748 0)
(2.70673 -0.0801637 0)
(2.70666 -0.21279 0)
(2.72527 -0.346402 0)
(2.71994 -0.419455 0)
(2.75515 -0.461709 0)
(2.7952 -0.471488 0)
(2.79165 -0.460939 0)
(2.75787 -0.419226 0)
(2.73145 -0.366415 0)
(2.70012 -0.295928 0)
(2.67193 -0.253378 0)
(2.65093 -0.240273 0)
(2.62678 -0.179051 0)
(2.61954 -0.118134 0)
(2.62193 -0.0893539 0)
(2.5881 -0.062373 0)
(2.56395 -0.0310147 0)
(2.55151 -0.00749642 0)
(2.53911 -0.00625064 0)
(2.5481 -0.00463003 0)
(2.56761 0.00375224 0)
(2.57186 0.00782695 0)
(2.56994 0.0087998 0)
(2.55193 -0.00265671 0)
(2.53832 -0.0116892 0)
(2.54344 -0.010354 0)
(2.55097 -0.00113786 0)
(2.54943 -0.0132063 0)
(2.50754 -0.0880988 0)
(2.29526 -0.343219 0)
(2.05889 -0.598179 0)
(2.01149 -0.622065 0)
(2.02098 -0.656206 0)
(2.03902 -0.669566 0)
(2.04588 -0.670716 0)
(2.02262 -0.617564 0)
(1.91569 -0.436453 0)
(1.7521 -0.192734 0)
(1.71324 -0.0678687 0)
(1.68538 -0.017284 0)
(1.6939 0.0122469 0)
(1.71986 0.0211631 0)
(1.74564 0.0199536 0)
(1.76005 0.0155428 0)
(1.78058 0.00841548 0)
(1.80308 0.00774513 0)
(1.82701 0.0109363 0)
(1.84998 0.0141195 0)
(1.87163 0.0152407 0)
(1.89388 0.0146806 0)
(1.91692 0.014803 0)
(1.9387 0.0161937 0)
(1.95538 0.0211293 0)
(1.96427 0.0317366 0)
(1.9727 0.0404205 0)
(1.99058 0.0406871 0)
(2.01161 0.0385104 0)
(2.03292 0.0352044 0)
(2.05343 0.0325688 0)
(2.0737 0.0326792 0)
(2.09392 0.0346075 0)
(2.11246 0.0381721 0)
(2.12336 0.0477633 0)
(2.12528 0.059774 0)
(2.13795 0.0596863 0)
(2.15763 0.0544682 0)
(2.17639 0.0472015 0)
(2.19373 0.0396417 0)
(2.2098 0.0337277 0)
(2.22836 0.0333784 0)
(2.24772 0.0361891 0)
(2.26622 0.0401009 0)
(2.28078 0.0479889 0)
(2.2885 0.0582367 0)
(2.29785 0.0609737 0)
(2.31284 0.0578997 0)
(2.32844 0.0531982 0)
(2.34154 0.0471937 0)
(2.35338 0.0420282 0)
(2.3689 0.040727 0)
(2.38591 0.0415742 0)
(2.4018 0.0452687 0)
(2.41252 0.055972 0)
(2.41724 0.068303 0)
(2.4255 0.0727821 0)
(2.43896 0.072893 0)
(2.45334 0.0704227 0)
(2.46399 0.0627607 0)
(2.47876 0.0539722 0)
(1.57515 0.939687 0)
(1.80663 0.862921 0)
(2.02264 0.726002 0)
(2.17956 0.594092 0)
(2.27335 0.508522 0)
(2.39869 0.346781 0)
(2.52182 0.150398 0)
(2.58923 0.0214446 0)
(2.63066 -0.0133571 0)
(2.60963 -0.0633855 0)
(2.66038 -0.168832 0)
(2.70003 -0.269482 0)
(2.73401 -0.330828 0)
(2.7708 -0.370518 0)
(2.78543 -0.392178 0)
(2.75864 -0.387612 0)
(2.72342 -0.376455 0)
(2.71163 -0.373555 0)
(2.69933 -0.35611 0)
(2.69065 -0.303894 0)
(2.69467 -0.243262 0)
(2.69346 -0.203849 0)
(2.66789 -0.160878 0)
(2.62106 -0.111527 0)
(2.59714 -0.0637537 0)
(2.58489 -0.0405119 0)
(2.58532 -0.0331748 0)
(2.59813 -0.0284807 0)
(2.59981 -0.0221087 0)
(2.59132 -0.00667557 0)
(2.5754 0.00177749 0)
(2.56786 0.00529187 0)
(2.56995 0.00837634 0)
(2.57321 0.00295211 0)
(2.52999 -0.083429 0)
(2.36022 -0.31011 0)
(2.06347 -0.594263 0)
(1.9771 -0.701897 0)
(1.98269 -0.671195 0)
(2.03576 -0.644035 0)
(2.05891 -0.637967 0)
(2.07665 -0.648296 0)
(2.08209 -0.655722 0)
(2.06472 -0.615076 0)
(1.99986 -0.496417 0)
(1.90369 -0.298281 0)
(1.7961 -0.119997 0)
(1.77689 -0.0296109 0)
(1.78185 -0.000580427 0)
(1.78298 0.0226044 0)
(1.79425 0.0350237 0)
(1.81843 0.0235985 0)
(1.84219 0.0205776 0)
(1.86345 0.023236 0)
(1.8836 0.0232436 0)
(1.90392 0.0234001 0)
(1.92367 0.0223593 0)
(1.94474 0.02188 0)
(1.96647 0.0224526 0)
(1.9858 0.0264935 0)
(1.99966 0.0358394 0)
(2.00564 0.0494374 0)
(2.01376 0.0573292 0)
(2.03258 0.0562613 0)
(2.05275 0.053056 0)
(2.07345 0.0497324 0)
(2.09455 0.0492579 0)
(2.11593 0.0508094 0)
(2.13745 0.0539318 0)
(2.15446 0.0591489 0)
(2.15805 0.0685775 0)
(2.15522 0.074256 0)
(2.16678 0.0688534 0)
(2.18438 0.0610563 0)
(2.20298 0.0537793 0)
(2.22235 0.0501421 0)
(2.24494 0.0507305 0)
(2.2664 0.05425 0)
(2.2868 0.0571834 0)
(2.3051 0.0622855 0)
(2.31392 0.0722574 0)
(2.311 0.0800978 0)
(2.31459 0.0762031 0)
(2.32758 0.0674947 0)
(2.3438 0.060112 0)
(2.36242 0.0584739 0)
(2.38145 0.0604704 0)
(2.40064 0.0645532 0)
(2.4189 0.0677914 0)
(2.43455 0.0730302 0)
(2.44148 0.0827123 0)
(2.43971 0.091503 0)
(2.44503 0.0909837 0)
(2.45681 0.0851516 0)
(2.4655 0.0767334 0)
(2.48117 0.069602 0)
(1.54893 0.896823 0)
(1.73768 0.846425 0)