/*--------------------------------*- C++ -*----------------------------------*\
  =========                 |
  \\      /  F ield         | OpenFOAM: The Open Source CFD Toolbox
   \\    /   O peration     | Website:  https://openfoam.org
    \\  /    A nd           | Version:  7
     \\/     M anipulation  |
\*---------------------------------------------------------------------------*/
FoamFile
{
    version     2.0;
    format      ascii;
    class       volScalarField;
    location    "0.3";
    object      p;
}
// * * * * * * * * * * * * * * * * * * * * * * * * * * * * * * * * * * * * * //

dimensions      [1 -1 -2 0 0 0 0];

internalField   nonuniform List<scalar> 
258048
(
1
1
1
1
1
1
1
1
1
1
1
1
1
1
1
1
1
1
1
1
1
1
1
1
1
1
1
1
1
1
1
1
1
1
1
1
1
1
1
1
1
1
1
1
1
1
1
1
1
1
1
1
1
1
1
1
1
1
1
1
1
1
1
1
1
1
1
1
1
1
1
1
1
1
1
1
1
1
1
1
1
1
1
1
1
1
1
1
1
1
1
1
1
1
1
1
1
1
1
1
1
1
1
1
1
1
1
1
1
1
1
1
1
1
1
1
1
1
1
1
1
1
1
1
1
1
1
1
1
1
1
1
1
4.74702
11.8894
12.2059
11.9849
11.8801
11.9083
12.011
12.1784
12.3693
12.4736
12.5255
12.4631
12.2935
12.1308
12.0946
12.1766
12.2993
12.4487
12.5523
12.6169
12.5843
12.4429
12.2941
12.2704
12.3594
12.4734
12.5759
12.6555
12.6678
12.5894
12.4614
12.3935
12.4295
12.5214
12.6183
12.6864
12.6857
12.59
12.483
12.4625
12.5105
12.5869
12.6503
12.6702
12.6281
12.5579
12.5229
12.54
12.5913
12.6359
12.6436
12.6206
12.5853
12.5681
12.5814
12.6076
12.6229
12.6181
12.5931
1
1
1
1
1
1
1
1
1
1
1
1
1
1
1
1
1
1
1
1
1
1
1
1
1
1
1
1
1
1
1
1
1
1
1
1
1
1
1
1
1
1
1
1
1
1
1
1
1
1
1
1
1
1
1
1
1
1
1
1
1
1
1
1
1
1
1
1
1
1
1
1
1
1
1
1
1
1
1
1
1
1
1
1
1
1
1
1
1
1
1
1
1
1
1
1
1
1
1
1
1
1
1
1
1
1
1
1
1
1
1
1
1
1
1
1
1
1
1
1
1
1
1
1
1
1
1
1
1
1
1
1
1
4.72091
11.8675
12.1963
11.9795
11.8793
11.9121
12.0159
12.1849
12.3731
12.4749
12.5239
12.4584
12.2876
12.1281
12.0955
12.1791
12.3027
12.451
12.5538
12.6166
12.5817
12.4389
12.292
12.2711
12.361
12.4752
12.5775
12.6563
12.6671
12.5872
12.4595
12.3932
12.4305
12.5234
12.6203
12.6867
12.6843
12.5867
12.4804
12.4622
12.512
12.5881
12.651
12.6693
12.6263
12.5559
12.5218
12.5398
12.5916
12.6362
12.6431
12.6195
12.584
12.5673
12.5813
12.6076
12.6225
12.6171
12.5914
1
1
1
1
1
1
1
1
1
1
1
1
1
1
1
1
1
1
1
1
1
1
1
1
1
1
1
1
1
1
1
1
1
1
1
1
1
1
1
1
1
1
1
1
1
1
1
1
1
1
1
1
1
1
1
1
1
1
1
1
1
1
1
1
1
1
1
1
1
1
1
1
1
1
1
1
1
1
1
1
1
1
1
1
1
1
1
1
1
1
1
1
1
1
1
1
1
1
1
1
1
1
1
1
1
1
1
1
1
1
1
1
1
1
1
1
1
1
1
1
1
1
1
1
1
1
1
1
1
1
1
1
1
4.6617
11.8387
12.1835
11.9691
11.8761
11.915
12.0215
12.1934
12.3767
12.4761
12.5206
12.45
12.2772
12.1228
12.0961
12.1823
12.3074
12.454
12.5557
12.6156
12.5768
12.4315
12.2875
12.2715
12.3629
12.477
12.5792
12.6562
12.6645
12.5821
12.4547
12.3912
12.4307
12.5247
12.6221
12.6871
12.6823
12.5806
12.475
12.4602
12.514
12.59
12.6519
12.6679
12.6232
12.5526
12.5197
12.5391
12.592
12.6368
12.6426
12.6178
12.5818
12.5659
12.581
12.6077
12.6223
12.6157
12.5889
1
1
1
1
1
1
1
1
1
1
1
1
1
1
1
1
1
1
1
1
1
1
1
1
1
1
1
1
1
1
1
1
1
1
1
1
1
1
1
1
1
1
1
1
1
1
1
1
1
1
1
1
1
1
1
1
1
1
1
1
1
1
1
1
1
1
1
1
1
1
1
1
1
1
1
1
1
1
1
1
1
1
1
1
1
1
1
1
1
1
1
1
1
1
1
1
1
1
1
1
1
1
1
1
1
1
1
1
1
1
1
1
1
1
1
1
1
1
1
1
1
1
1
1
1
1
1
1
1
1
1
1
1
4.57677
11.7963
12.1638
11.9537
11.8726
11.9205
12.0305
12.2066
12.3824
12.4783
12.5151
12.4375
12.2621
12.1153
12.0972
12.1867
12.3139
12.4578
12.5581
12.6132
12.5689
12.4204
12.2812
12.2721
12.3659
12.4798
12.5818
12.6559
12.6609
12.575
12.4482
12.3896
12.4327
12.5275
12.6241
12.6874
12.6788
12.5719
12.4682
12.4582
12.5163
12.5921
12.6529
12.6656
12.6186
12.5476
12.5167
12.5385
12.5927
12.6376
12.6417
12.6151
12.5785
12.5638
12.5805
12.608
12.622
12.6139
12.5856
1
1
1
1
1
1
1
1
1
1
1
1
1
1
1
1
1
1
1
1
1
1
1
1
1
1
1
1
1
1
1
1
1
1
1
1
1
1
1
1
1
1
1
1
1
1
1
1
1
1
1
1
1
1
1
1
1
1
1
1
1
1
1
1
1
1
1
1
1
1
1
1
1
1
1
1
1
1
1
1
1
1
1
1
1
1
1
1
1
1
1
1
1
1
1
1
1
1
1
1
1
1
1
1
1
1
1
1
1
1
1
1
1
1
1
1
1
1
1
1
1
1
1
1
1
1
1
1
1
1
1
1
1
4.46567
11.7363
12.137
11.9339
11.8691
11.9277
12.0428
12.2244
12.3894
12.4816
12.5076
12.4201
12.2417
12.1054
12.0993
12.1926
12.3229
12.4631
12.5619
12.6102
12.5582
12.4056
12.2729
12.2734
12.3703
12.4838
12.5853
12.6555
12.6561
12.5655
12.439
12.3872
12.4355
12.5314
12.6264
12.6875
12.6737
12.5615
12.4611
12.4573
12.5191
12.5948
12.6549
12.6631
12.6124
12.541
12.5131
12.5381
12.594
12.6386
12.64
12.611
12.5737
12.5606
12.5797
12.6081
12.6214
12.6113
12.5812
1
1
1
1
1
1
1
1
1
1
1
1
1
1
1
1
1
1
1
1
1
1
1
1
1
1
1
1
1
1
1
1
1
1
1
1
1
1
1
1
1
1
1
1
1
1
1
1
1
1
1
1
1
1
1
1
1
1
1
1
1
1
1
1
1
1
1
1
1
1
1
1
1
1
1
1
1
1
1
1
1
1
1
1
1
1
1
1
1
1
1
1
1
1
1
1
1
1
1
1
1
1
1
1
1
1
1
1
1
1
1
1
1
1
1
1
1
1
1
1
1
1
1
1
1
1
1
1
1
1
1
1
1
4.32711
11.6555
12.1013
11.911
11.8685
11.9376
12.0602
12.2472
12.3977
12.4847
12.4972
12.3975
12.217
12.0946
12.1034
12.2002
12.3346
12.4696
12.5661
12.6062
12.5444
12.3871
12.2632
12.2756
12.3756
12.4888
12.5892
12.6547
12.6497
12.5533
12.4272
12.3839
12.4389
12.536
12.6293
12.6873
12.6667
12.5492
12.4539
12.4569
12.5223
12.5976
12.6565
12.6592
12.6041
12.5328
12.5088
12.538
12.5957
12.6397
12.6376
12.6055
12.5676
12.5567
12.5786
12.6083
12.6208
12.6083
12.5761
1
1
1
1
1
1
1
1
1
1
1
1
1
1
1
1
1
1
1
1
1
1
1
1
1
1
1
1
1
1
1
1
1
1
1
1
1
1
1
1
1
1
1
1
1
1
1
1
1
1
1
1
1
1
1
1
1
1
1
1
1
1
1
1
1
1
1
1
1
1
1
1
1
1
1
1
1
1
1
1
1
1
1
1
1
1
1
1
1
1
1
1
1
1
1
1
1
1
1
1
1
1
1
1
1
1
1
1
1
1
1
1
1
1
1
1
1
1
1
1
1
1
1
1
1
1
1
1
1
1
1
1
1
4.16046
11.5505
12.0579
11.8872
11.8725
11.9498
12.0836
12.2734
12.4064
12.4864
12.483
12.369
12.189
12.0835
12.1094
12.2101
12.3488
12.4772
12.5705
12.6006
12.5266
12.365
12.2529
12.2795
12.3821
12.4947
12.5936
12.6535
12.6415
12.5379
12.4126
12.381
12.4438
12.5417
12.6323
12.6858
12.6575
12.5352
12.4466
12.4572
12.5263
12.6007
12.6578
12.6542
12.5939
12.5234
12.5044
12.5387
12.5979
12.6406
12.6344
12.5987
12.5602
12.552
12.5772
12.6083
12.6199
12.6047
12.5701
1
1
1
1
1
1
1
1
1
1
1
1
1
1
1
1
1
1
1
1
1
1
1
1
1
1
1
1
1
1
1
1
1
1
1
1
1
1
1
1
1
1
1
1
1
1
1
1
1
1
1
1
1
1
1
1
1
1
1
1
1
1
1
1
1
1
1
1
1
1
1
1
1
1
1
1
1
1
1
1
1
1
1
1
1
1
1
1
1
1
1
1
1
1
1
1
1
1
1
1
1
1
1
1
1
1
1
1
1
1
1
1
1
1
1
1
1
1
1
1
1
1
1
1
1
1
1
1
1
1
1
1
1
3.96604
11.4174
12.0079
11.8648
11.8823
11.9651
12.1137
12.3007
12.4155
12.4857
12.4635
12.3341
12.1588
12.0735
12.1173
12.223
12.3649
12.4855
12.5745
12.5926
12.5045
12.3402
12.2432
12.2851
12.39
12.5017
12.5983
12.6517
12.6308
12.5189
12.3961
12.3793
12.4504
12.5481
12.6349
12.6826
12.6462
12.5201
12.4393
12.4585
12.5311
12.6041
12.6583
12.6477
12.582
12.5131
12.5
12.5399
12.6002
12.6408
12.6299
12.5905
12.5517
12.5468
12.5756
12.6082
12.6188
12.6002
12.5632
1
1
1
1
1
1
1
1
1
1
1
1
1
1
1
1
1
1
1
1
1
1
1
1
1
1
1
1
1
1
1
1
1
1
1
1
1
1
1
1
1
1
1
1
1
1
1
1
1
1
1
1
1
1
1
1
1
1
1
1
1
1
1
1
1
1
1
1
1
1
1
1
1
1
1
1
1
1
1
1
1
1
1
1
1
1
1
1
1
1
1
1
1
1
1
1
1
1
1
1
1
1
1
1
1
1
1
1
1
1
1
1
1
1
1
1
1
1
1
1
1
1
1
1
1
1
1
1
1
1
1
1
1
3.74428
11.2509
11.9549
11.846
11.896
11.9865
12.1505
12.3263
12.425
12.4808
12.4371
12.2927
12.1278
12.0661
12.1277
12.2388
12.3826
12.4945
12.5773
12.5811
12.4773
12.3136
12.2347
12.2923
12.3998
12.5097
12.6029
12.6487
12.6169
12.496
12.3792
12.3798
12.4586
12.5548
12.6369
12.678
12.633
12.5042
12.4322
12.4607
12.5363
12.6077
12.6574
12.6391
12.5686
12.5023
12.4961
12.5416
12.6024
12.6401
12.6242
12.581
12.5423
12.5414
12.5739
12.608
12.6171
12.5949
12.5556
1
1
1
1
1
1
1
1
1
1
1
1
1
1
1
1
1
1
1
1
1
1
1
1
1
1
1
1
1
1
1
1
1
1
1
1
1
1
1
1
1
1
1
1
1
1
1
1
1
1
1
1
1
1
1
1
1
1
1
1
1
1
1
1
1
1
1
1
1
1
1
1
1
1
1
1
1
1
1
1
1
1
1
1
1
1
1
1
1
1
1
1
1
1
1
1
1
1
1
1
1
1
1
1
1
1
1
1
1
1
1
1
1
1
1
1
1
1
1
1
1
1
1
1
1
1
1
1
1
1
1
1
1
3.49511
11.0451
11.9026
11.8345
11.9129
12.0154
12.1935
12.347
12.4355
12.4691
12.4025
12.2452
12.098
12.063
12.1404
12.2582
12.401
12.5045
12.5777
12.565
12.4449
12.286
12.2285
12.3011
12.4116
12.5188
12.6069
12.6441
12.5993
12.4697
12.3632
12.3827
12.4677
12.5617
12.6384
12.6723
12.6176
12.487
12.4254
12.4637
12.5417
12.6113
12.6547
12.6286
12.5538
12.4917
12.4928
12.5435
12.6041
12.6379
12.617
12.5702
12.5324
12.5359
12.5722
12.6075
12.6149
12.5884
12.547
1
1
1
1
1
1
1
1
1
1
1
1
1
1
1
1
1
1
1
1
1
1
1
1
1
1
1
1
1
1
1
1
1
1
1
1
1
1
1
1
1
1
1
1
1
1
1
1
1
1
1
1
1
1
1
1
1
1
1
1
1
1
1
1
1
1
1
1
1
1
1
1
1
1
1
1
1
1
1
1
1
1
1
1
1
1
1
1
1
1
1
1
1
1
1
1
1
1
1
1
1
1
1
1
1
1
1
1
1
1
1
1
1
1
1
1
1
1
1
1
1
1
1
1
1
1
1
1
1
1
1
1
1
3.2185
10.7939
11.8561
11.8323
11.9328
12.0549
12.2394
12.3638
12.4421
12.4499
12.3587
12.1936
12.0713
12.0656
12.1555
12.2819
12.419
12.5155
12.5745
12.5432
12.4071
12.2584
12.2259
12.3118
12.425
12.5286
12.61
12.6373
12.5774
12.4407
12.3494
12.3878
12.4774
12.5688
12.6396
12.6653
12.5995
12.4685
12.4194
12.4672
12.5472
12.6149
12.6498
12.6161
12.5379
12.4813
12.4903
12.5455
12.6052
12.634
12.6082
12.5582
12.5224
12.5307
12.5704
12.6066
12.6119
12.5809
12.5379
1
1
1
1
1
1
1
1
1
1
1
1
1
1
1
1
1
1
1
1
1
1
1
1
1
1
1
1
1
1
1
1
1
1
1
1
1
1
1
1
1
1
1
1
1
1
1
1
1
1
1
1
1
1
1
1
1
1
1
1
1
1
1
1
1
1
1
1
1
1
1
1
1
1
1
1
1
1
1
1
1
1
1
1
1
1
1
1
1
1
1
1
1
1
1
1
1
1
1
1
1
1
1
1
1
1
1
1
1
1
1
1
1
1
1
1
1
1
1
1
1
1
1
1
1
1
1
1
1
1
1
1
1
2.91876
10.492
11.8225
11.8398
11.9571
12.1085
12.2796
12.3788
12.4408
12.4203
12.3056
12.142
12.0493
12.0752
12.1742
12.3092
12.4355
12.5266
12.5674
12.5139
12.3643
12.2323
12.2287
12.3242
12.4394
12.539
12.6117
12.6276
12.5509
12.4096
12.3386
12.3948
12.4874
12.5758
12.6402
12.6561
12.5783
12.449
12.4144
12.4712
12.5526
12.6182
12.6427
12.6014
12.5213
12.4714
12.4885
12.5474
12.6054
12.6281
12.5977
12.5454
12.5124
12.5258
12.5686
12.6051
12.6078
12.5722
12.5284
1
1
1
1
1
1
1
1
1
1
1
1
1
1
1
1
1
1
1
1
1
1
1
1
1
1
1
1
1
1
1
1
1
1
1
1
1
1
1
1
1
1
1
1
1
1
1
1
1
1
1
1
1
1
1
1
1
1
1
1
1
1
1
1
1
1
1
1
1
1
1
1
1
1
1
1
1
1
1
1
1
1
1
1
1
1
1
1
1
1
1
1
1
1
1
1
1
1
1
1
1
1
1
1
1
1
1
1
1
1
1
1
1
1
1
1
1
1
1
1
1
1
1
1
1
1
1
1
1
1
1
1
1
2.60192
10.1304
11.8076
11.8543
11.996
12.1708
12.3073
12.3928
12.4279
12.3789
12.2446
12.0943
12.0339
12.0899
12.1984
12.3387
12.452
12.535
12.5546
12.4765
12.3181
12.2093
12.2368
12.3386
12.4541
12.5495
12.6119
12.6139
12.5196
12.3776
12.3318
12.4033
12.4973
12.5825
12.6396
12.644
12.554
12.4294
12.4104
12.4758
12.5581
12.6204
12.6336
12.5847
12.5042
12.4622
12.4875
12.5489
12.6044
12.6201
12.5855
12.5319
12.5029
12.5213
12.5664
12.6027
12.6024
12.5623
12.519
1
1
1
1
1
1
1
1
1
1
1
1
1
1
1
1
1
1
1
1
1
1
1
1
1
1
1
1
1
1
1
1
1
1
1
1
1
1
1
1
1
1
1
1
1
1
1
1
1
1
1
1
1
1
1
1
1
1
1
1
1
1
1
1
1
1
1
1
1
1
1
1
1
1
1
1
1
1
1
1
1
1
1
1
1
1
1
1
1
1
1
1
1
1
1
1
1
1
1
1
1
1
1
1
1
1
1
1
1
1
1
1
1
1
1
1
1
1
1
1
1
1
1
1
1
1
1
1
1
1
1
1
1
2.27635
9.70812
11.8062
11.8861
12.0573
12.2276
12.3265
12.3982
12.403
12.3255
12.1791
12.0533
12.0285
12.1086
12.2287
12.3683
12.4688
12.5379
12.5345
12.4305
12.2715
12.1918
12.2486
12.3564
12.4689
12.5589
12.6098
12.595
12.4832
12.3465
12.33
12.4133
12.5069
12.5882
12.6372
12.6286
12.5269
12.4106
12.408
12.4816
12.5623
12.6208
12.6227
12.5657
12.4869
12.4539
12.4871
12.5499
12.602
12.6102
12.5717
12.5183
12.4941
12.5169
12.5637
12.599
12.5954
12.5515
12.5102
1
1
1
1
1
1
1
1
1
1
1
1
1
1
1
1
1
1
1
1
1
1
1
1
1
1
1
1
1
1
1
1
1
1
1
1
1
1
1
1
1
1
1
1
1
1
1
1
1
1
1
1
1
1
1
1
1
1
1
1
1
1
1
1
1
1
1
1
1
1
1
1
1
1
1
1
1
1
1
1
1
1
1
1
1
1
1
1
1
1
1
1
1
1
1
1
1
1
1
1
1
1
1
1
1
1
1
1
1
1
1
1
1
1
1
1
1
1
1
1
1
1
1
1
1
1
1
1
1
1
1
1
1
1.95548
9.23108
11.8213
11.9484
12.1327
12.2649
12.3421
12.3885
12.3644
12.2621
12.1142
12.0214
12.0359
12.1318
12.2644
12.3951
12.4848
12.5342
12.5047
12.376
12.2273
12.1827
12.2634
12.3771
12.4838
12.5662
12.6045
12.5697
12.442
12.3189
12.3333
12.4245
12.5161
12.5923
12.6323
12.6097
12.4975
12.3933
12.4076
12.4879
12.5664
12.6187
12.61
12.5447
12.4695
12.4468
12.4874
12.5501
12.598
12.5986
12.5564
12.5047
12.486
12.5125
12.56
12.5938
12.5867
12.5397
12.5022
1
1
1
1
1
1
1
1
1
1
1
1
1
1
1
1
1
1
1
1
1
1
1
1
1
1
1
1
1
1
1
1
1
1
1
1
1
1
1
1
1
1
1
1
1
1
1
1
1
1
1
1
1
1
1
1
1
1
1
1
1
1
1
1
1
1
1
1
1
1
1
1
1
1
1
1
1
1
1
1
1
1
1
1
1
1
1
1
1
1
1
1
1
1
1
1
1
1
1
1
1
1
1
1
1
1
1
1
1
1
1
1
1
1
1
1
1
1
1
1
1
1
1
1
1
1
1
1
1
1
1
1
1
1.65329
8.71251
11.866
12.0359
12.1961
12.2896
12.3452
12.3636
12.3123
12.191
12.0562
11.9997
12.054
12.1632
12.3034
12.4179
12.4974
12.523
12.4624
12.3151
12.188
12.1852
12.2812
12.3987
12.4985
12.5709
12.5947
12.5365
12.3965
12.2979
12.3409
12.4365
12.525
12.5947
12.6242
12.5869
12.4668
12.378
12.4088
12.4943
12.5704
12.6139
12.5951
12.5217
12.4517
12.4408
12.4885
12.5494
12.5919
12.5853
12.5399
12.4914
12.4787
12.508
12.5553
12.5869
12.5762
12.5274
12.4951
1
1
1
1
1
1
1
1
1
1
1
1
1
1
1
1
1
1
1
1
1
1
1
1
1
1
1
1
1
1
1
1
1
1
1
1
1
1
1
1
1
1
1
1
1
1
1
1
1
1
1
1
1
1
1
1
1
1
1
1
1
1
1
1
1
1
1
1
1
1
1
1
1
1
1
1
1
1
1
1
1
1
1
1
1
1
1
1
1
1
1
1
1
1
1
1
1
1
1
1
1
1
1
1
1
1
1
1
1
1
1
1
1
1
1
1
1
1
1
1
1
1
1
1
1
1
1
1
1
1
1
1
1
1.38525
8.16837
11.9428
12.131
12.2309
12.3043
12.33
12.327
12.2486
12.1153
12.0083
11.9951
12.0792
12.204
12.341
12.4381
12.502
12.5013
12.4078
12.2518
12.1571
12.1975
12.3032
12.4202
12.5126
12.5727
12.5787
12.4945
12.349
12.2859
12.3518
12.4492
12.5335
12.5951
12.6122
12.5598
12.4359
12.3655
12.4116
12.5008
12.5738
12.6069
12.5772
12.4968
12.4343
12.4365
12.49
12.5482
12.5837
12.5701
12.5225
12.4786
12.4722
12.5033
12.5492
12.5779
12.5639
12.5147
12.4889
1
1
1
1
1
1
1
1
1
1
1
1
1
1
1
1
1
1
1
1
1
1
1
1
1
1
1
1
1
1
1
1
1
1
1
1
1
1
1
1
1
1
1
1
1
1
1
1
1
1
1
1
1
1
1
1
1
1
1
1
1
1
1
1
1
1
1
1
1
1
1
1
1
1
1
1
1
1
1
1
1
1
1
1
1
1
1
1
1
1
1
1
1
1
1
1
1
1
1
1
1
1
1
1
1
1
1
1
1
1
1
1
1
1
1
1
1
1
1
1
1
1
1
1
1
1
1
1
1
1
1
1
1
1.1658
7.61691
12.0431
12.1849
12.2421
12.3006
12.3057
12.2775
12.1727
12.0429
11.9745
12.0104
12.1137
12.2503
12.3723
12.4551
12.4968
12.4661
12.342
12.1931
12.1392
12.2148
12.3299
12.4408
12.5245
12.5709
12.5547
12.4437
12.3033
12.2835
12.3651
12.4621
12.5414
12.5932
12.5956
12.5279
12.4061
12.3561
12.4162
12.5072
12.5762
12.5977
12.5555
12.4703
12.4176
12.4337
12.4918
12.5463
12.5733
12.5529
12.5041
12.4664
12.4663
12.4984
12.5419
12.567
12.5498
12.5019
12.4832
1
1
1
1
1
1
1
1
1
1
1
1
1
1
1
1
1
1
1
1
1
1
1
1
1
1
1
1
1
1
1
1
1
1
1
1
1
1
1
1
1
1
1
1
1
1
1
1
1
1
1
1
1
1
1
1
1
1
1
1
1
1
1
1
1
1
1
1
1
1
1
1
1
1
1
1
1
1
1
1
1
1
1
1
1
1
1
1
1
1
1
1
1
1
1
1
1
1
1
1
1
1
1
1
1
1
1
1
1
1
1
1
1
1
1
1
1
1
1
1
1
1
1
1
1
1
1
1
1
1
1
1
1
1.01743
7.06751
12.0915
12.1967
12.2337
12.2871
12.2722
12.2103
12.0876
11.9836
11.9628
12.0399
12.1603
12.2956
12.3961
12.4646
12.4805
12.4144
12.2687
12.1434
12.1395
12.2363
12.3577
12.46
12.533
12.5639
12.5209
12.3855
12.2652
12.2893
12.38
12.4749
12.5481
12.5885
12.5738
12.4912
12.3778
12.3502
12.4223
12.5131
12.5766
12.5864
12.5293
12.4435
12.4027
12.4326
12.4936
12.5436
12.5607
12.5336
12.485
12.4547
12.4611
12.4934
12.5333
12.5539
12.534
12.4891
12.4777
1
1
1
1
1
1
1
1
1
1
1
1
1
1
1
1
1
1
1
1
1
1
1
1
1
1
1
1
1
1
1
1
1
1
1
1
1
1
1
1
1
1
1
1
1
1
1
1
1
1
1
1
1
1
1
1
1
1
1
1
1
1
1
1
1
1
1
1
1
1
1
1
1
1
1
1
1
1
1
1
1
1
1
1
1
1
1
1
1
1
1
1
1
1
1
1
1
1
1
1
1
1
1
1
1
1
1
1
1
1
1
1
1
1
1
1
1
1
1
1
1
1
1
1
1
1
1
1
1
1
1
1
1
1.00001
6.44418
12.0635
12.1946
12.2159
12.2629
12.2212
12.1243
12.0057
11.9445
11.9797
12.0819
12.214
12.3326
12.4139
12.462
12.4488
12.3473
12.1956
12.1082
12.1545
12.2635
12.3844
12.4776
12.5374
12.5493
12.4752
12.3232
12.2405
12.3001
12.3959
12.4871
12.5529
12.5803
12.5468
12.4508
12.3516
12.3482
12.4297
12.5189
12.5746
12.5716
12.4989
12.4167
12.3904
12.4329
12.4952
12.5394
12.5459
12.512
12.4651
12.4437
12.4565
12.4883
12.5236
12.5388
12.5168
12.4762
12.472
1
1
1
1
1
1
1
1
1
1
1
1
1
1
1
1
1
1
1
1
1
1
1
1
1
1
1
1
1
1
1
1
1
1
1
1
1
1
1
1
1
1
1
1
1
1
1
1
1
1
1
1
1
1
1
1
1
1
1
1
1
1
1
1
1
1
1
1
1
1
1
1
1
1
1
1
1
1
1
1
1
1
1
1
1
1
1
1
1
1
1
1
1
1
1
1
1
1
1
1
1
1
1
1
1
1
1
1
1
1
1
1
1
1
1
1
1
1
1
1
1
1
1
1
1
1
1
1
1
1
1
1
1
1
5.79906
11.9885
12.1857
12.1932
12.2228
12.1432
12.0286
11.9436
11.9372
12.0175
12.1379
12.2648
12.3588
12.4233
12.4455
12.3975
12.2684
12.1318
12.0949
12.1767
12.2957
12.4084
12.4916
12.5368
12.524
12.4171
12.2629
12.2315
12.314
12.4118
12.4981
12.555
12.5672
12.5138
12.408
12.3289
12.3499
12.438
12.5243
12.5702
12.5518
12.4651
12.391
12.3812
12.4346
12.4964
12.5336
12.5288
12.488
12.4449
12.4335
12.4525
12.4831
12.5127
12.5216
12.498
12.4631
12.4657
1
1
1
1
1
1
1
1
1
1
1
1
1
1
1
1
1
1
1
1
1
1
1
1
1
1
1
1
1
1
1
1
1
1
1
1
1
1
1
1
1
1
1
1
1
1
1
1
1
1
1
1
1
1
1
1
1
1
1
1
1
1
1
1
1
1
1
1
1
1
1
1
1
1
1
1
1
1
1
1
1
1
1
1
1
1
1
1
1
1
1
1
1
1
1
1
1
1
1
1
1
1
1
1
1
1
1
1
1
1
1
1
1
1
1
1
1
1
1
1
1
1
1
1
1
1
1
1
1
1
1
1
1
1
5.15628
11.8347
12.1831
12.1614
12.1512
12.0432
11.9465
11.9106
11.9645
12.0719
12.1984
12.3036
12.3758
12.4192
12.412
12.3268
12.1853
12.0843
12.1052
12.2056
12.3288
12.4293
12.5002
12.529
12.4856
12.3487
12.2138
12.236
12.33
12.427
12.5072
12.5534
12.5479
12.4738
12.365
12.3114
12.355
12.4465
12.529
12.5631
12.5257
12.4303
12.3667
12.3747
12.4375
12.4966
12.5253
12.5091
12.4616
12.4247
12.4241
12.449
12.4777
12.5007
12.5022
12.4781
12.4498
12.4589
1
1
1
1
1
1
1
1
1
1
1
1
1
1
1
1
1
1
1
1
1
1
1
1
1
1
1
1
1
1
1
1
1
1
1
1
1
1
1
1
1
1
1
1
1
1
1
1
1
1
1
1
1
1
1
1
1
1
1
1
1
1
1
1
1
1
1
1
1
1
1
1
1
1
1
1
1
1
1
1
1
1
1
1
1
1
1
1
1
1
1
1
1
1
1
1
1
1
1
1
1
1
1
1
1
1
1
1
1
1
1
1
1
1
1
1
1
1
1
1
1
1
1
1
1
1
1
1
1
1
1
1
1
1
4.51029
11.5696
12.1851
12.1006
12.0497
11.9465
11.8936
11.9216
12.0165
12.1377
12.2491
12.3286
12.382
12.3995
12.3575
12.2421
12.1108
12.0602
12.1293
12.2428
12.3591
12.4468
12.5023
12.51
12.4308
12.2756
12.185
12.2484
12.3474
12.4409
12.5136
12.547
12.5209
12.427
12.3242
12.3006
12.363
12.4558
12.5315
12.5513
12.4939
12.3955
12.3455
12.3714
12.4402
12.4959
12.5142
12.4864
12.4337
12.405
12.4158
12.4458
12.472
12.4872
12.4807
12.4568
12.4361
12.4515
1
1
1
1
1
1
1
1
1
1
1
1
1
1
1
1
1
1
1
1
1
1
1
1
1
1
1
1
1
1
1
1
1
1
1
1
1
1
1
1
1
1
1
1
1
1
1
1
1
1
1
1
1
1
1
1
1
1
1
1
1
1
1
1
1
1
1
1
1
1
1
1
1
1
1
1
1
1
1
1
1
1
1
1
1
1
1
1
1
1
1
1
1
1
1
1
1
1
1
1
1
1
1
1
1
1
1
1
1
1
1
1
1
1
1
1
1
1
1
1
1
1
1
1
1
1
1
1
1
1
1
1
1
1
3.85138
11.193
12.1562
12.0096
11.9392
11.8788
11.8886
11.9696
12.085
12.198
12.2828
12.3406
12.3726
12.3616
12.2816
12.1517
12.0545
12.067
12.1622
12.2828
12.3845
12.4583
12.4971
12.4756
12.3596
12.2072
12.1792
12.2652
12.3656
12.453
12.5161
12.5343
12.4844
12.3754
12.2887
12.2967
12.3728
12.4646
12.5312
12.5344
12.4577
12.3615
12.328
12.3708
12.4425
12.4935
12.4998
12.4604
12.4049
12.3866
12.4084
12.4426
12.4655
12.4721
12.4568
12.4343
12.4223
12.444
1
1
1
1
1
1
1
1
1
1
1
1
1
1
1
1
1
1
1
1
1
1
1
1
1
1
1
1
1
1
1
1
1
1
1
1
1
1
1
1
1
1
1
1
1
1
1
1
1
1
1
1
1
1
1
1
1
1
1
1
1
1
1
1
1
1
1
1
1
1
1
1
1
1
1
1
1
1
1
1
1
1
1
1
1
1
1
1
1
1
1
1
1
1
1
1
1
1
1
1
1
1
1
1
1
1
1
1
1
1
1
1
1
1
1
1
1
1
1
1
1
1
1
1
1
1
1
1
1
1
1
1
1
1
3.18861
10.6847
12.0811
11.9022
11.8585
11.8586
11.9311
12.0416
12.1531
12.2391
12.2987
12.3381
12.3473
12.3013
12.1908
12.0707
12.026
12.0935
12.2053
12.3199
12.405
12.4621
12.4806
12.4224
12.2772
12.156
12.1907
12.2862
12.3833
12.4629
12.5138
12.5131
12.4376
12.3221
12.262
12.2993
12.3836
12.4713
12.5268
12.5121
12.4178
12.3295
12.3152
12.3717
12.4435
12.489
12.4825
12.4311
12.3764
12.3701
12.4015
12.439
12.4578
12.455
12.4306
12.4108
12.4085
12.4362
1
1
1
1
1
1
1
1
1
1
1
1
1
1
1
1
1
1
1
1
1
1
1
1
1
1
1
1
1
1
1
1
1
1
1
1
1
1
1
1
1
1
1
1
1
1
1
1
1
1
1
1
1
1
1
1
1
1
1
1
1
1
1
1
1
1
1
1
1
1
1
1
1
1
1
1
1
1
1
1
1
1
1
1
1
1
1
1
1
1
1
1
1
1
1
1
1
1
1
1
1
1
1
1
1
1
1
1
1
1
1
1
1
1
1
1
1
1
1
1
1
1
1
1
1
1
1
1
1
1
1
1
1
1
2.5478
10.0289
11.9417
11.8239
11.8305
11.8966
12.0085
12.1165
12.1999
12.2578
12.2985
12.3206
12.3023
12.2181
12.0956
12.0124
12.0348
12.132
12.2514
12.3495
12.419
12.458
12.4471
12.348
12.1952
12.1329
12.2094
12.31
12.3997
12.4696
12.5056
12.4808
12.3805
12.272
12.2471
12.3073
12.395
12.475
12.5171
12.4831
12.375
12.3007
12.307
12.3733
12.4432
12.4812
12.4619
12.399
12.3487
12.3551
12.3956
12.4347
12.4483
12.4354
12.4025
12.3864
12.3947
12.4284
1
1
1
1
1
1
1
1
1
1
1
1
1
1
1
1
1
1
1
1
1
1
1
1
1
1
1
1
1
1
1
1
1
1
1
1
1
1
1
1
1
1
1
1
1
1
1
1
1
1
1
1
1
1
1
1
1
1
1
1
1
1
1
1
1
1
1
1
1
1
1
1
1
1
1
1
1
1
1
1
1
1
1
1
1
1
1
1
1
1
1
1
1
1
1
1
1
1
1
1
1
1
1
1
1
1
1
1
1
1
1
1
1
1
1
1
1
1
1
1
1
1
1
1
1
1
1
1
1
1
1
1
1
1
1.93862
9.19812
11.8038
11.8034
11.8762
11.9858
12.0898
12.1663
12.219
12.2571
12.2845
12.2866
12.2306
12.1206
12.0166
11.9915
12.0667
12.1808
12.2915
12.3715
12.4236
12.4421
12.3925
12.2576
12.1275
12.1377
12.2325
12.3335
12.4141
12.472
12.4897
12.4357
12.3155
12.2307
12.2438
12.3192
12.4059
12.4753
12.5008
12.447
12.3317
12.2754
12.3015
12.3754
12.4417
12.4695
12.4372
12.3654
12.3227
12.3416
12.3902
12.4292
12.4364
12.4132
12.3732
12.3615
12.3807
12.4204
1
1
1
1
1
1
1
1
1
1
1
1
1
1
1
1
1
1
1
1
1
1
1
1
1
1
1
1
1
1
1
1
1
1
1
1
1
1
1
1
1
1
1
1
1
1
1
1
1
1
1
1
1
1
1
1
1
1
1
1
1
1
1
1
1
1
1
1
1
1
1
1
1
1
1
1
1
1
1
1
1
1
1
1
1
1
1
1
1
1
1
1
1
1
1
1
1
1
1
1
1
1
1
1
1
1
1
1
1
1
1
1
1
1
1
1
1
1
1
1
1
1
1
1
1
1
1
1
1
1
1
1
1
1
1.42312
8.21914
11.7559
11.8719
11.9829
12.0724
12.1383
12.1836
12.2164
12.2442
12.2578
12.2258
12.1351
12.0273
11.9684
12.0121
12.1141
12.2295
12.3205
12.3843
12.4186
12.4074
12.3144
12.1656
12.09
12.1567
12.2593
12.3544
12.4253
12.4692
12.4632
12.3762
12.2489
12.2032
12.25
12.3331
12.415
12.471
12.4769
12.4042
12.2891
12.2549
12.2984
12.3771
12.4388
12.4537
12.4081
12.3307
12.2992
12.3298
12.3848
12.4219
12.4217
12.3883
12.3432
12.3368
12.3666
12.4115
1
1
1
1
1
1
1
1
1
1
1
1
1
1
1
1
1
1
1
1
1
1
1
1
1
1
1
1
1
1
1
1
1
1
1
1
1
1
1
1
1
1
1
1
1
1
1
1
1
1
1
1
1
1
1
1
1
1
1
1
1
1
1
1
1
1
1
1
1
1
1
1
1
1
1
1
1
1
1
1
1
1
1
1
1
1
1
1
1
1
1
1
1
1
1
1
1
1
1
1
1
1
1
1
1
1
1
1
1
1
1
1
1
1
1
1
1
1
1
1
1
1
1
1
1
1
1
1
1
1
1
1
1
1
1.07643
7.29801
11.8024
11.9767
12.0594
12.1157
12.1498
12.1792
12.2043
12.2232
12.2057
12.133
12.0332
11.9607
11.9717
12.0573
12.169
12.2675
12.3389
12.3853
12.3995
12.3486
12.2181
12.0891
12.0894
12.1821
12.2859
12.3713
12.4319
12.4587
12.4229
12.3037
12.1905
12.1926
12.2624
12.3468
12.4201
12.4608
12.4452
12.3558
12.2491
12.2396
12.2972
12.3774
12.4337
12.434
12.3741
12.2959
12.2784
12.3194
12.3787
12.4122
12.404
12.3611
12.3134
12.3131
12.3524
12.401
1
1
1
1
1
1
1
1
1
1
1
1
1
1
1
1
1
1
1
1
1
1
1
1
1
1
1
1
1
1
1
1
1
1
1
1
1
1
1
1
1
1
1
1
1
1
1
1
1
1
1
1
1
1
1
1
1
1
1
1
1
1
1
1
1
1
1
1
1
1
1
1
1
1
1
1
1
1
1
1
1
1
1
1
1
1
1
1
1
1
1
1
1
1
1
1
1
1
1
1
1
1
1
1
1
1
1
1
1
1
1
1
1
1
1
1
1
1
1
1
1
1
1
1
1
1
1
1
1
1
1
1
1
1
1.00042
6.39072
11.7807
12.0327
12.0799
12.1228
12.1412
12.168
12.189
12.1769
12.1149
12.0266
11.9538
11.9422
12.0123
12.1167
12.2166
12.2916
12.3454
12.3747
12.3585
12.2634
12.1208
12.0466
12.1095
12.2123
12.3097
12.3839
12.4319
12.4367
12.3651
12.224
12.1506
12.1971
12.2775
12.3583
12.4202
12.4432
12.4052
12.3042
12.2139
12.2292
12.2981
12.3762
12.4243
12.4096
12.3362
12.2623
12.2603
12.3103
12.371
12.3996
12.3831
12.3319
12.2845
12.2907
12.3373
12.3881
1
1
1
1
1
1
1
1
1
1
1
1
1
1
1
1
1
1
1
1
1
1
1
1
1
1
1
1
1
1
1
1
1
1
1
1
1
1
1
1
1
1
1
1
1
1
1
1
1
1
1
1
1
1
1
1
1
1
1
1
1
1
1
1
1
1
1
1
1
1
1
1
1
1
1
1
1
1
1
1
1
1
1
1
1
1
1
1
1
1
1
1
1
1
1
1
1
1
1
1
1
1
1
1
1
1
1
1
1
1
1
1
1
1
1
1
1
1
1
1
1
1
1
1
1
1
1
1
1
1
1
1
1
1
1
5.44423
11.6578
12.0631
12.0707
12.1113
12.1311
12.1561
12.1417
12.0849
12.0076
11.9401
11.9174
11.9751
12.0735
12.1721
12.2479
12.3034
12.3402
12.3472
12.2884
12.1605
12.043
12.0479
12.1388
12.2425
12.3284
12.3912
12.4234
12.3986
12.2891
12.1495
12.135
12.2098
12.2923
12.3664
12.4148
12.417
12.3568
12.2519
12.1847
12.2234
12.3005
12.3735
12.4092
12.3789
12.2958
12.2314
12.245
12.3018
12.3609
12.3836
12.3589
12.3014
12.2574
12.2698
12.3212
12.3722
1
1
1
1
1
1
1
1
1
1
1
1
1
1
1
1
1
1
1
1
1
1
1
1
1
1
1
1
1
1
1
1
1
1
1
1
1
1
1
1
1
1
1
1
1
1
1
1
1
1
1
1
1
1
1
1
1
1
1
1
1
1
1
1
1
1
1
1
1
1
1
1
1
1
1
1
1
1
1
1
1
1
1
1
1
1
1
1
1
1
1
1
1
1
1
1
1
1
1
1
1
1
1
1
1
1
1
1
1
1
1
1
1
1
1
1
1
1
1
1
1
1
1
1
1
1
1
1
1
1
1
1
1
1
1
4.49163
11.4121
12.0877
12.0539
12.1042
12.1135
12.0961
12.0454
11.9798
11.9198
11.8938
11.9428
12.0367
12.134
12.2095
12.264
12.3027
12.3218
12.2924
12.191
12.0617
12.0057
12.0727
12.1748
12.269
12.3412
12.3911
12.4022
12.3396
12.2001
12.0972
12.1385
12.2254
12.3051
12.3703
12.403
12.3822
12.3011
12.2013
12.1634
12.2216
12.3034
12.3689
12.3882
12.3402
12.2535
12.205
12.2329
12.2932
12.3475
12.3636
12.3313
12.2702
12.2326
12.2506
12.3037
12.3526
1
1
1
1
1
1
1
1
1
1
1
1
1
1
1
1
1
1
1
1
1
1
1
1
1
1
1
1
1
1
1
1
1
1
1
1
1
1
1
1
1
1
1
1
1
1
1
1
1
1
1
1
1
1
1
1
1
1
1
1
1
1
1
1
1
1
1
1
1
1
1
1
1
1
1
1
1
1
1
1
1
1
1
1
1
1
1
1
1
1
1
1
1
1
1
1
1
1
1
1
1
1
1
1
1
1
1
1
1
1
1
1
1
1
1
1
1
1
1
1
1
1
1
1
1
1
1
1
1
1
1
1
1
1
1
3.54482
10.9268
12.1049
12.0238
12.0513
12.0327
11.9952
11.9451
11.8958
11.8717
11.9149
12.0045
12.1002
12.175
12.2283
12.2664
12.2903
12.2804
12.2048
12.0827
11.9902
12.0155
12.1082
12.2093
12.2898
12.3483
12.3814
12.3624
12.2578
12.1127
12.0762
12.1517
12.2408
12.315
12.3691
12.3833
12.3377
12.2407
12.155
12.1511
12.2235
12.3051
12.3613
12.3611
12.2932
12.2114
12.1838
12.2239
12.2843
12.3303
12.3393
12.3002
12.2388
12.2104
12.233
12.2847
12.3287
1
1
1
1
1
1
1
1
1
1
1
1
1
1
1
1
1
1
1
1
1
1
1
1
1
1
1
1
1
1
1
1
1
1
1
1
1
1
1
1
1
1
1
1
1
1
1
1
1
1
1
1
1
1
1
1
1
1
1
1
1
1
1
1
1
1
1
1
1
1
1
1
1
1
1
1
1
1
1
1
1
1
1
1
1
1
1
1
1
1
1
1
1
1
1
1
1
1
1
1
1
1
1
1
1
1
1
1
1
1
1
1
1
1
1
1
1
1
1
1
1
1
1
1
1
1
1
1
1
1
1
1
1
1
1
2.62812
10.1639
12.056
11.9507
11.9568
11.9348
11.9022
11.8677
11.8522
11.8931
11.9782
12.0703
12.1431
12.1951
12.2321
12.2573
12.2587
12.2035
12.0961
11.991
11.9703
12.0471
12.149
12.2376
12.3033
12.3474
12.3576
12.2978
12.16
12.0493
12.079
12.1691
12.2546
12.3211
12.3612
12.3537
12.2819
12.1784
12.1183
12.1468
12.2284
12.306
12.3483
12.3248
12.2408
12.1714
12.167
12.2175
12.2749
12.3091
12.31
12.2653
12.2079
12.1908
12.2166
12.2642
12.3003
1
1
1
1
1
1
1
1
1
1
1
1
1
1
1
1
1
1
1
1
1
1
1
1
1
1
1
1
1
1
1
1
1
1
1
1
1
1
1
1
1
1
1
1
1
1
1
1
1
1
1
1
1
1
1
1
1
1
1
1
1
1
1
1
1
1
1
1
1
1
1
1
1
1
1
1
1
1
1
1
1
1
1
1
1
1
1
1
1
1
1
1
1
1
1
1
1
1
1
1
1
1
1
1
1
1
1
1
1
1
1
1
1
1
1
1
1
1
1
1
1
1
1
1
1
1
1
1
1
1
1
1
1
1
1
1.82527
9.08325
11.9413
11.8646
11.8718
11.8532
11.8353
11.8359
11.8789
11.9598
12.0458
12.1139
12.1635
12.199
12.2242
12.2311
12.1904
12.0982
11.9934
11.9397
11.9933
12.0898
12.1844
12.2574
12.3091
12.3356
12.3127
12.2065
12.064
12.0241
12.0941
12.1874
12.2652
12.3216
12.3447
12.3111
12.2157
12.119
12.0939
12.1499
12.2356
12.3042
12.3274
12.2779
12.1874
12.1348
12.1541
12.2125
12.2639
12.2841
12.2749
12.2268
12.1783
12.1736
12.2011
12.2422
12.2674
1
1
1
1
1
1
1
1
1
1
1
1
1
1
1
1
1
1
1
1
1
1
1
1
1
1
1
1
1
1
1
1
1
1
1
1
1
1
1
1
1
1
1
1
1
1
1
1
1
1
1
1
1
1
1
1
1
1
1
1
1
1
1
1
1
1
1
1
1
1
1
1
1
1
1
1
1
1
1
1
1
1
1
1
1
1
1
1
1
1
1
1
1
1
1
1
1
1
1
1
1
1
1
1
1
1
1
1
1
1
1
1
1
1
1
1
1
1
1
1
1
1
1
1
1
1
1
1
1
1
1
1
1
1
1
1.22491
7.78656
11.8417
11.8115
11.8132
11.8107
11.8251
11.8723
11.9501
12.0284
12.0893
12.1336
12.1663
12.1905
12.1993
12.1675
12.0885
11.9908
11.9219
11.9477
12.0347
12.1321
12.2102
12.2677
12.3051
12.3074
12.2387
12.0991
11.9967
12.0278
12.115
12.204
12.2715
12.3145
12.3168
12.2531
12.1432
12.0685
12.0812
12.1568
12.243
12.2982
12.2977
12.2231
12.1345
12.1038
12.1454
12.2073
12.2499
12.2552
12.2339
12.1854
12.1507
12.1585
12.186
12.2184
12.23
1
1
1
1
1
1
1
1
1
1
1
1
1
1
1
1
1
1
1
1
1
1
1
1
1
1
1
1
1
1
1
1
1
1
1
1
1
1
1
1
1
1
1
1
1
1
1
1
1
1
1
1
1
1
1
1
1
1
1
1
1
1
1
1
1
1
1
1
1
1
1
1
1
1
1
1
1
1
1
1
1
1
1
1
1
1
1
1
1
1
1
1
1
1
1
1
1
1
1
1
1
1
1
1
1
1
1
1
1
1
1
1
1
1
1
1
1
1
1
1
1
1
1
1
1
1
1
1
1
1
1
1
1
1
1
1.00393
6.55965
11.6856
11.7979
11.8054
11.826
11.8738
11.9471
12.0176
12.0701
12.1067
12.1343
12.155
12.1627
12.136
12.0684
11.9814
11.9094
11.9101
11.9858
12.0823
12.1639
12.2251
12.2683
12.2873
12.2525
12.1359
11.9998
11.9742
12.0461
12.1373
12.217
12.2723
12.2985
12.2732
12.1793
12.0721
12.0329
12.0787
12.1648
12.2468
12.2857
12.2585
12.1635
12.0836
12.0788
12.1397
12.2015
12.2318
12.2215
12.1871
12.142
12.1254
12.145
12.1709
12.1926
12.1887
1
1
1
1
1
1
1
1
1
1
1
1
1
1
1
1
1
1
1
1
1
1
1
1
1
1
1
1
1
1
1
1
1
1
1
1
1
1
1
1
1
1
1
1
1
1
1
1
1
1
1
1
1
1
1
1
1
1
1
1
1
1
1
1
1
1
1
1
1
1
1
1
1
1
1
1
1
1
1
1
1
1
1
1
1
1
1
1
1
1
1
1
1
1
1
1
1
1
1
1
1
1
1
1
1
1
1
1
1
1
1
1
1
1
1
1
1
1
1
1
1
1
1
1
1
1
1
1
1
1
1
1
1
1
1
1
5.38195
11.4812
11.8226
11.8387
11.8902
11.9512
12.0105
12.053
12.0828
12.1028
12.1168
12.1201
12.0961
12.0397
11.9651
11.8962
11.8798
11.9432
12.0362
12.1204
12.1839
12.2295
12.2569
12.2474
12.1617
12.0219
11.9388
11.9829
12.0704
12.1572
12.2247
12.2658
12.2704
12.2102
12.0944
12.0121
12.0151
12.0835
12.1714
12.2437
12.264
12.2095
12.1023
12.0377
12.0603
12.1348
12.1939
12.2094
12.1824
12.1351
12.0983
12.1024
12.1322
12.1552
12.1644
12.1434
1
1
1
1
1
1
1
1
1
1
1
1
1
1
1
1
1
1
1
1
1
1
1
1
1
1
1
1
1
1
1
1
1
1
1
1
1
1
1
1
1
1
1
1
1
1
1
1
1
1
1
1
1
1
1
1
1
1
1
1
1
1
1
1
1
1
1
1
1
1
1
1
1
1
1
1
1
1
1
1
1
1
1
1
1
1
1
1
1
1
1
1
1
1
1
1
1
1
1
1
1
1
1
1
1
1
1
1
1
1
1
1
1
1
1
1
1
1
1
1
1
1
1
1
1
1
1
1
1
1
1
1
1
1
1
1
4.25514
11.1787
11.9043
11.9113
11.9659
12.0053
12.0357
12.0575
12.0695
12.0749
12.0713
12.0485
12.0031
11.9421
11.8806
11.8556
11.9065
11.9944
12.0799
12.1449
12.1918
12.223
12.2275
12.1708
12.0447
11.9278
11.9292
12.0061
12.095
12.1719
12.2257
12.25
12.2249
12.127
12.0103
11.9711
12.0127
12.0914
12.1741
12.2313
12.2307
12.1509
12.0419
12.0002
12.0474
12.1279
12.1832
12.1824
12.1368
12.0792
12.0558
12.0813
12.1194
12.1381
12.1331
12.0952
1
1
1
1
1
1
1
1
1
1
1
1
1
1
1
1
1
1
1
1
1
1
1
1
1
1
1
1
1
1
1
1
1
1
1
1
1
1
1
1
1
1
1
1
1
1
1
1
1
1
1
1
1
1
1
1
1
1
1
1
1
1
1
1
1
1
1
1
1
1
1
1
1
1
1
1
1
1
1
1
1
1
1
1
1
1
1
1
1
1
1
1
1
1
1
1
1
1
1
1
1
1
1
1
1
1
1
1
1
1
1
1
1
1
1
1
1
1
1
1
1
1
1
1
1
1
1
1
1
1
1
1
1
1
1
1
3.15161
10.6152
11.9976
11.9594
11.9941
12.0135
12.0236
12.0284
12.0268
12.0167
11.9947
11.959
11.9118
11.8623
11.8367
11.8766
11.9575
12.0421
12.1086
12.1564
12.1888
12.2006
12.1646
12.0579
11.9307
11.8863
11.9473
12.0338
12.116
12.1798
12.218
12.2205
12.1562
12.0303
11.9432
11.9535
12.0191
12.0981
12.1699
12.2084
12.1852
12.0849
11.9853
11.9715
12.0374
12.1189
12.1675
12.1494
12.0853
12.0215
12.0159
12.0614
12.1059
12.1187
12.0977
12.0445
1
1
1
1
1
1
1
1
1
1
1
1
1
1
1
1
1
1
1
1
1
1
1
1
1
1
1
1
1
1
1
1
1
1
1
1
1
1
1
1
1
1
1
1
1
1
1
1
1
1
1
1
1
1
1
1
1
1
1
1
1
1
1
1
1
1
1
1
1
1
1
1
1
1
1
1
1
1
1
1
1
1
1
1
1
1
1
1
1
1
1
1
1
1
1
1
1
1
1
1
1
1
1
1
1
1
1
1
1
1
1
1
1
1
1
1
1
1
1
1