/*--------------------------------*- C++ -*----------------------------------*\
  =========                 |
  \\      /  F ield         | OpenFOAM: The Open Source CFD Toolbox
   \\    /   O peration     | Website:  https://openfoam.org
    \\  /    A nd           | Version:  7
     \\/     M anipulation  |
\*---------------------------------------------------------------------------*/
FoamFile
{
    version     2.0;
    format      ascii;
    class       volScalarField;
    location    "0.3";
    object      T;
}
// * * * * * * * * * * * * * * * * * * * * * * * * * * * * * * * * * * * * * //

dimensions      [0 0 0 1 0 0 0];

internalField   nonuniform List<scalar> 
258048
(
1
1
1
1
1
1
1
1
1
1
1
1
1
1
1
1
1
1
1
1
1
1
1
1
1
1
1
1
1
1
1
1
1
1
1
1
1
1
1
1
1
1
1
1
1
1
1
1
1
1
1
1
1
1
1
1
1
1
1
1
1
1
1
1
1
1
1
1
1
1
1
1
1
1
1
1
1
1
1
1
1
1
1
1
1
1
1
1
1
1
1
1
1
1
1
1
1
1
1
1
1
1
1
1
1
1
1
1
1
1
1
1
1
1
1
1
1
1
1
1
1
1
1
1
1
1
1
1
1
1
1
1
1
2.15654
2.9881
2.98831
2.97807
2.97913
2.98633
2.9974
3.01317
3.03199
3.04474
3.05319
3.05421
3.0493
3.04344
3.04672
3.06059
3.07727
3.09576
3.11153
3.12452
3.13108
3.1314
3.13035
3.1386
3.15705
3.17644
3.1949
3.2124
3.22725
3.24059
3.25665
3.28554
3.33099
3.38467
3.43495
3.4724
3.49157
3.49462
3.4921
3.49352
3.4994
3.50581
3.51039
3.51087
3.50541
3.49697
3.49186
3.49115
3.49386
3.4983
3.50196
3.50677
3.51509
3.52756
3.54185
3.5535
3.5597
3.56177
3.56083
1
1
1
1
1
1
1
1
1
1
1
1
1
1
1
1
1
1
1
1
1
1
1
1
1
1
1
1
1
1
1
1
1
1
1
1
1
1
1
1
1
1
1
1
1
1
1
1
1
1
1
1
1
1
1
1
1
1
1
1
1
1
1
1
1
1
1
1
1
1
1
1
1
1
1
1
1
1
1
1
1
1
1
1
1
1
1
1
1
1
1
1
1
1
1
1
1
1
1
1
1
1
1
1
1
1
1
1
1
1
1
1
1
1
1
1
1
1
1
1
1
1
1
1
1
1
1
1
1
1
1
1
1
2.15285
2.98647
2.98767
2.97777
2.9791
2.98665
2.99772
3.01362
3.03225
3.04482
3.05307
3.0539
3.04888
3.04322
3.04678
3.0608
3.07751
3.09594
3.11163
3.1245
3.13091
3.13114
3.13019
3.13869
3.15721
3.17659
3.19503
3.21249
3.22729
3.2406
3.25677
3.28593
3.33156
3.38531
3.43546
3.4726
3.49152
3.49436
3.49186
3.49347
3.49951
3.50588
3.51044
3.51079
3.50525
3.49681
3.49178
3.49112
3.49389
3.49833
3.50193
3.5067
3.51501
3.52752
3.54185
3.55351
3.55967
3.56168
3.5607
1
1
1
1
1
1
1
1
1
1
1
1
1
1
1
1
1
1
1
1
1
1
1
1
1
1
1
1
1
1
1
1
1
1
1
1
1
1
1
1
1
1
1
1
1
1
1
1
1
1
1
1
1
1
1
1
1
1
1
1
1
1
1
1
1
1
1
1
1
1
1
1
1
1
1
1
1
1
1
1
1
1
1
1
1
1
1
1
1
1
1
1
1
1
1
1
1
1
1
1
1
1
1
1
1
1
1
1
1
1
1
1
1
1
1
1
1
1
1
1
1
1
1
1
1
1
1
1
1
1
1
1
1
2.14333
2.98357
2.98668
2.97711
2.9789
2.9869
2.99803
3.01416
3.03249
3.04484
3.05277
3.05332
3.04809
3.04277
3.04676
3.06102
3.0778
3.0961
3.11171
3.12437
3.13055
3.13059
3.12981
3.13871
3.15735
3.17669
3.19514
3.21251
3.22724
3.24048
3.2568
3.28637
3.33235
3.38619
3.43618
3.4729
3.4914
3.49382
3.49133
3.49322
3.49962
3.50597
3.51049
3.51067
3.50498
3.49655
3.49161
3.49106
3.49393
3.4984
3.50191
3.5066
3.51487
3.52744
3.54186
3.55354
3.55964
3.56157
3.5605
1
1
1
1
1
1
1
1
1
1
1
1
1
1
1
1
1
1
1
1
1
1
1
1
1
1
1
1
1
1
1
1
1
1
1
1
1
1
1
1
1
1
1
1
1
1
1
1
1
1
1
1
1
1
1
1
1
1
1
1
1
1
1
1
1
1
1
1
1
1
1
1
1
1
1
1
1
1
1
1
1
1
1
1
1
1
1
1
1
1
1
1
1
1
1
1
1
1
1
1
1
1
1
1
1
1
1
1
1
1
1
1
1
1
1
1
1
1
1
1
1
1
1
1
1
1
1
1
1
1
1
1
1
2.12943
2.97889
2.98501
2.97603
2.97862
2.98729
2.99849
3.01497
3.03283
3.04485
3.05223
3.05241
3.04688
3.04205
3.04669
3.06125
3.07811
3.09623
3.11173
3.12401
3.12987
3.12966
3.12916
3.13864
3.15746
3.17674
3.19521
3.21242
3.227
3.24006
3.25648
3.2865
3.33287
3.3868
3.43662
3.47299
3.49101
3.49295
3.49057
3.49291
3.4997
3.50604
3.51054
3.51048
3.50458
3.49616
3.49138
3.49101
3.49401
3.49849
3.50185
3.50642
3.51464
3.5273
3.54184
3.55357
3.55961
3.56141
3.56023
1
1
1
1
1
1
1
1
1
1
1
1
1
1
1
1
1
1
1
1
1
1
1
1
1
1
1
1
1
1
1
1
1
1
1
1
1
1
1
1
1
1
1
1
1
1
1
1
1
1
1
1
1
1
1
1
1
1
1
1
1
1
1
1
1
1
1
1
1
1
1
1
1
1
1
1
1
1
1
1
1
1
1
1
1
1
1
1
1
1
1
1
1
1
1
1
1
1
1
1
1
1
1
1
1
1
1
1
1
1
1
1
1
1
1
1
1
1
1
1
1
1
1
1
1
1
1
1
1
1
1
1
1
2.11106
2.9724
2.98269
2.97467
2.97834
2.98775
2.99909
3.01605
3.03322
3.04488
3.05146
3.05113
3.04519
3.04107
3.04663
3.0615
3.0785
3.09637
3.11171
3.12347
3.12889
3.12833
3.12821
3.13853
3.15756
3.17678
3.19522
3.21216
3.22647
3.23916
3.25554
3.28608
3.33288
3.38689
3.43655
3.47267
3.49024
3.49179
3.4897
3.49262
3.49977
3.50612
3.51063
3.51025
3.50406
3.49566
3.4911
3.49096
3.49415
3.4986
3.50172
3.50612
3.51427
3.52706
3.54178
3.55358
3.55954
3.56119
3.55987
1
1
1
1
1
1
1
1
1
1
1
1
1
1
1
1
1
1
1
1
1
1
1
1
1
1
1
1
1
1
1
1
1
1
1
1
1
1
1
1
1
1
1
1
1
1
1
1
1
1
1
1
1
1
1
1
1
1
1
1
1
1
1
1
1
1
1
1
1
1
1
1
1
1
1
1
1
1
1
1
1
1
1
1
1
1
1
1
1
1
1
1
1
1
1
1
1
1
1
1
1
1
1
1
1
1
1
1
1
1
1
1
1
1
1
1
1
1
1
1
1
1
1
1
1
1
1
1
1
1
1
1
1
2.08745
2.96378
2.97966
2.97322
2.97835
2.98835
2.99999
3.01746
3.03369
3.04485
3.05045
3.04946
3.04313
3.03995
3.04668
3.06181
3.07901
3.09652
3.11163
3.12275
3.12759
3.12662
3.12705
3.1384
3.15765
3.17682
3.19518
3.21174
3.22565
3.23776
3.25394
3.28499
3.33221
3.38625
3.43579
3.47174
3.48901
3.49031
3.4887
3.49231
3.4998
3.50618
3.51067
3.5099
3.50337
3.49504
3.49079
3.49094
3.49435
3.49871
3.50153
3.50569
3.51377
3.52672
3.54167
3.55357
3.55946
3.56093
3.55945
1
1
1
1
1
1
1
1
1
1
1
1
1
1
1
1
1
1
1
1
1
1
1
1
1
1
1
1
1
1
1
1
1
1
1
1
1
1
1
1
1
1
1
1
1
1
1
1
1
1
1
1
1
1
1
1
1
1
1
1
1
1
1
1
1
1
1
1
1
1
1
1
1
1
1
1
1
1
1
1
1
1
1
1
1
1
1
1
1
1
1
1
1
1
1
1
1
1
1
1
1
1
1
1
1
1
1
1
1
1
1
1
1
1
1
1
1
1
1
1
1
1
1
1
1
1
1
1
1
1
1
1
1
2.05774
2.95237
2.97589
2.97185
2.97883
2.98904
3.00126
3.01911
3.03415
3.0447
3.04917
3.04735
3.04074
3.03874
3.04691
3.06221
3.07963
3.09668
3.11151
3.12186
3.12598
3.12458
3.12577
3.13837
3.15777
3.17688
3.19513
3.21124
3.22459
3.23591
3.25172
3.28325
3.33074
3.38466
3.43414
3.4701
3.48725
3.4885
3.4876
3.49203
3.49984
3.50623
3.51065
3.50944
3.50252
3.49434
3.49048
3.49098
3.49458
3.49881
3.50126
3.50513
3.51313
3.52629
3.54151
3.55354
3.55936
3.56061
3.55895
1
1
1
1
1
1
1
1
1
1
1
1
1
1
1
1
1
1
1
1
1
1
1
1
1
1
1
1
1
1
1
1
1
1
1
1
1
1
1
1
1
1
1
1
1
1
1
1
1
1
1
1
1
1
1
1
1
1
1
1
1
1
1
1
1
1
1
1
1
1
1
1
1
1
1
1
1
1
1
1
1
1
1
1
1
1
1
1
1
1
1
1
1
1
1
1
1
1
1
1
1
1
1
1
1
1
1
1
1
1
1
1
1
1
1
1
1
1
1
1
1
1
1
1
1
1
1
1
1
1
1
1
1
2.02116
2.93749
2.97132
2.97076
2.97991
2.98983
3.00295
3.02084
3.0346
3.04435
3.04752
3.04476
3.03813
3.03753
3.04734
3.06277
3.08035
3.09685
3.11132
3.12077
3.12402
3.12227
3.1245
3.13847
3.15794
3.177
3.19509
3.21067
3.22333
3.23369
3.24911
3.28115
3.3287
3.38231
3.43173
3.46779
3.48497
3.48638
3.4864
3.49178
3.49987
3.50627
3.51055
3.50883
3.50153
3.49358
3.4902
3.49107
3.49483
3.49886
3.50089
3.50445
3.51238
3.52578
3.54131
3.55349
3.55923
3.56023
3.55838
1
1
1
1
1
1
1
1
1
1
1
1
1
1
1
1
1
1
1
1
1
1
1
1
1
1
1
1
1
1
1
1
1
1
1
1
1
1
1
1
1
1
1
1
1
1
1
1
1
1
1
1
1
1
1
1
1
1
1
1
1
1
1
1
1
1
1
1
1
1
1
1
1
1
1
1
1
1
1
1
1
1
1
1
1
1
1
1
1
1
1
1
1
1
1
1
1
1
1
1
1
1
1
1
1
1
1
1
1
1
1
1
1
1
1
1
1
1
1
1
1
1
1
1
1
1
1
1
1
1
1
1
1
1.97676
2.91853
2.96629
2.97002
2.98135
2.99085
3.00508
3.02245
3.03501
3.04368
3.04545
3.04168
3.03542
3.03645
3.04795
3.0635
3.08114
3.09703
3.11098
3.11941
3.12168
3.11973
3.12328
3.1387
3.1582
3.17716
3.19502
3.20999
3.22183
3.23117
3.24638
3.27904
3.32641
3.37948
3.42873
3.46489
3.48221
3.48397
3.48505
3.49149
3.49987
3.50627
3.51031
3.50806
3.50041
3.49279
3.48996
3.49119
3.49507
3.49883
3.50041
3.50364
3.51153
3.52524
3.54109
3.5534
3.55906
3.55978
3.55774
1
1
1
1
1
1
1
1
1
1
1
1
1
1
1
1
1
1
1
1
1
1
1
1
1
1
1
1
1
1
1
1
1
1
1
1
1
1
1
1
1
1
1
1
1
1
1
1
1
1
1
1
1
1
1
1
1
1
1
1
1
1
1
1
1
1
1
1
1
1
1
1
1
1
1
1
1
1
1
1
1
1
1
1
1
1
1
1
1
1
1
1
1
1
1
1
1
1
1
1
1
1
1
1
1
1
1
1
1
1
1
1
1
1
1
1
1
1
1
1
1
1
1
1
1
1
1
1
1
1
1
1
1
1.92316
2.89479
2.9613
2.96977
2.98279
2.99228
3.00761
3.0237
3.03541
3.04245
3.0429
3.03803
3.03276
3.03572
3.04866
3.06443
3.08195
3.09721
3.11041
3.11772
3.11893
3.11703
3.12222
3.13904
3.15854
3.17733
3.19485
3.20918
3.22006
3.22841
3.24375
3.27709
3.32404
3.37635
3.42527
3.4615
3.47896
3.48123
3.48355
3.49115
3.4998
3.50623
3.5099
3.50713
3.49918
3.492
3.48978
3.49135
3.49527
3.49868
3.49981
3.50273
3.51063
3.52468
3.54085
3.55328
3.55885
3.55925
3.55702
1
1
1
1
1
1
1
1
1
1
1
1
1
1
1
1
1
1
1
1
1
1
1
1
1
1
1
1
1
1
1
1
1
1
1
1
1
1
1
1
1
1
1
1
1
1
1
1
1
1
1
1
1
1
1
1
1
1
1
1
1
1
1
1
1
1
1
1
1
1
1
1
1
1
1
1
1
1
1
1
1
1
1
1
1
1
1
1
1
1
1
1
1
1
1
1
1
1
1
1
1
1
1
1
1
1
1
1
1
1
1
1
1
1
1
1
1
1
1
1
1
1
1
1
1
1
1
1
1
1
1
1
1
1.85851
2.86544
2.95685
2.97018
2.98416
2.99435
3.01033
3.02464
3.03545
3.04062
3.03976
3.03391
3.03031
3.03546
3.04945
3.0656
3.08268
3.09739
3.10948
3.1156
3.11574
3.11423
3.12143
3.13945
3.15894
3.17749
3.19453
3.20816
3.21797
3.22544
3.24133
3.27536
3.32164
3.37301
3.42144
3.45762
3.47517
3.47814
3.48195
3.49073
3.49966
3.50614
3.50928
3.50603
3.49787
3.49122
3.48964
3.49153
3.49541
3.49838
3.49909
3.50171
3.5097
3.52413
3.54059
3.5531
3.55858
3.55864
3.55624
1
1
1
1
1
1
1
1
1
1
1
1
1
1
1
1
1
1
1
1
1
1
1
1
1
1
1
1
1
1
1
1
1
1
1
1
1
1
1
1
1
1
1
1
1
1
1
1
1
1
1
1
1
1
1
1
1
1
1
1
1
1
1
1
1
1
1
1
1
1
1
1
1
1
1
1
1
1
1
1
1
1
1
1
1
1
1
1
1
1
1
1
1
1
1
1
1
1
1
1
1
1
1
1
1
1
1
1
1
1
1
1
1
1
1
1
1
1
1
1
1
1
1
1
1
1
1
1
1
1
1
1
1
1.78124
2.82966
2.95363
2.97126
2.98554
2.99726
3.01266
3.02534
3.0349
3.03813
3.03584
3.02964
3.02811
3.03584
3.05036
3.06694
3.08329
3.09749
3.10815
3.11296
3.11208
3.11148
3.12105
3.13988
3.15932
3.1776
3.19401
3.20688
3.21549
3.22228
3.23917
3.27383
3.31922
3.36949
3.41724
3.45322
3.47081
3.47471
3.48024
3.4902
3.49944
3.50596
3.50846
3.50476
3.49651
3.49046
3.48956
3.49173
3.49547
3.49791
3.49824
3.50061
3.50877
3.5236
3.54032
3.55286
3.55822
3.55795
3.55544
1
1
1
1
1
1
1
1
1
1
1
1
1
1
1
1
1
1
1
1
1
1
1
1
1
1
1
1
1
1
1
1
1
1
1
1
1
1
1
1
1
1
1
1
1
1
1
1
1
1
1
1
1
1
1
1
1
1
1
1
1
1
1
1
1
1
1
1
1
1
1
1
1
1
1
1
1
1
1
1
1
1
1
1
1
1
1
1
1
1
1
1
1
1
1
1
1
1
1
1
1
1
1
1
1
1
1
1
1
1
1
1
1
1
1
1
1
1
1
1
1
1
1
1
1
1
1
1
1
1
1
1
1
1.69026
2.78659
2.95221
2.97275
2.98764
3.00066
3.01414
3.02591
3.03346
3.03492
3.03126
3.02553
3.02627
3.03675
3.05155
3.06839
3.08382
3.09734
3.1064
3.10975
3.10797
3.10886
3.12114
3.14034
3.15967
3.17763
3.19326
3.20526
3.21256
3.21897
3.23734
3.27245
3.31676
3.3658
3.41265
3.44822
3.46585
3.47098
3.47842
3.48957
3.49914
3.50563
3.50742
3.50331
3.49512
3.48975
3.4895
3.49192
3.49543
3.49726
3.49727
3.49946
3.50786
3.52309
3.54001
3.55254
3.55775
3.55716
3.55464
1
1
1
1
1
1
1
1
1
1
1
1
1
1
1
1
1
1
1
1
1
1
1
1
1
1
1
1
1
1
1
1
1
1
1
1
1
1
1
1
1
1
1
1
1
1
1
1
1
1
1
1
1
1
1
1
1
1
1
1
1
1
1
1
1
1
1
1
1
1
1
1
1
1
1
1
1
1
1
1
1
1
1
1
1
1
1
1
1
1
1
1
1
1
1
1
1
1
1
1
1
1
1
1
1
1
1
1
1
1
1
1
1
1
1
1
1
1
1
1
1
1
1
1
1
1
1
1
1
1
1
1
1
1.58549
2.73635
2.95263
2.97533
2.99087
3.0036
3.015
3.02583
3.03113
3.031
3.0261
3.02189
3.02522
3.03784
3.05309
3.0698
3.08429
3.0967
3.10414
3.10587
3.10364
3.1066
3.12154
3.14087
3.15994
3.1775
3.19224
3.2032
3.20914
3.21562
3.23591
3.27119
3.31425
3.36189
3.40763
3.4426
3.46028
3.46699
3.47651
3.48887
3.49865
3.50508
3.5062
3.50167
3.49373
3.48911
3.48946
3.49209
3.49526
3.49645
3.49618
3.49827
3.507
3.52258
3.53963
3.55212
3.55716
3.55629
3.55389
1
1
1
1
1
1
1
1
1
1
1
1
1
1
1
1
1
1
1
1
1
1
1
1
1
1
1
1
1
1
1
1
1
1
1
1
1
1
1
1
1
1
1
1
1
1
1
1
1
1
1
1
1
1
1
1
1
1
1
1
1
1
1
1
1
1
1
1
1
1
1
1
1
1
1
1
1
1
1
1
1
1
1
1
1
1
1
1
1
1
1
1
1
1
1
1
1
1
1
1
1
1
1
1
1
1
1
1
1
1
1
1
1
1
1
1
1
1
1
1
1
1
1
1
1
1
1
1
1
1
1
1
1
1.46878
2.68
2.95553
2.97977
2.99466
3.00521
3.01557
3.02463
3.02796
3.02625
3.02075
3.01886
3.02529
3.03909
3.05493
3.07099
3.08461
3.09545
3.10123
3.10135
3.09931
3.10499
3.12211
3.14149
3.16013
3.17711
3.19091
3.20059
3.20523
3.21245
3.23491
3.27
3.31169
3.35779
3.40217
3.43633
3.4541
3.46274
3.47451
3.48802
3.49801
3.50427
3.50481
3.49982
3.49231
3.48857
3.48948
3.49221
3.49496
3.49549
3.49495
3.49706
3.50619
3.52206
3.53917
3.55157
3.55643
3.55534
3.55321
1
1
1
1
1
1
1
1
1
1
1
1
1
1
1
1
1
1
1
1
1
1
1
1
1
1
1
1
1
1
1
1
1
1
1
1
1
1
1
1
1
1
1
1
1
1
1
1
1
1
1
1
1
1
1
1
1
1
1
1
1
1
1
1
1
1
1
1
1
1
1
1
1
1
1
1
1
1
1
1
1
1
1
1
1
1
1
1
1
1
1
1
1
1
1
1
1
1
1
1
1
1
1
1
1
1
1
1
1
1
1
1
1
1
1
1
1
1
1
1
1
1
1
1
1
1
1
1
1
1
1
1
1
1.3439
2.61962
2.96173
2.98576
2.9976
3.00603
3.01525
3.02231
3.02397
3.02078
3.01572
3.01647
3.02643
3.04073
3.05696
3.07188
3.08462
3.09355
3.09747
3.09616
3.09527
3.10432
3.12275
3.14209
3.16022
3.17644
3.1892
3.19732
3.20088
3.20971
3.23427
3.26887
3.30912
3.35352
3.39626
3.42939
3.44734
3.45825
3.47237
3.48696
3.49722
3.50317
3.50323
3.49773
3.49086
3.48815
3.48954
3.49225
3.49452
3.49443
3.4936
3.49586
3.50544
3.52151
3.5386
3.55088
3.55556
3.55434
3.55261
1
1
1
1
1
1
1
1
1
1
1
1
1
1
1
1
1
1
1
1
1
1
1
1
1
1
1
1
1
1
1
1
1
1
1
1
1
1
1
1
1
1
1
1
1
1
1
1
1
1
1
1
1
1
1
1
1
1
1
1
1
1
1
1
1
1
1
1
1
1
1
1
1
1
1
1
1
1
1
1
1
1
1
1
1
1
1
1
1
1
1
1
1
1
1
1
1
1
1
1
1
1
1
1
1
1
1
1
1
1
1
1
1
1
1
1
1
1
1
1
1
1
1
1
1
1
1
1
1
1
1
1
1
1.21805
2.55771
2.97143
2.99188
2.99876
3.00619
3.01342
3.01929
3.01915
3.01467
3.0114
3.01541
3.028
3.04296
3.05887
3.0725
3.08398
3.09099
3.09287
3.0905
3.09173
3.10454
3.12348
3.1426
3.16016
3.17541
3.18702
3.19331
3.19624
3.20765
3.2339
3.26777
3.30659
3.34911
3.3899
3.42174
3.44008
3.45356
3.47006
3.48568
3.49621
3.50179
3.50138
3.49544
3.48938
3.48784
3.48965
3.49226
3.49391
3.49323
3.49216
3.49469
3.50473
3.52091
3.5379
3.55002
3.55454
3.55331
3.55208
1
1
1
1
1
1
1
1
1
1
1
1
1
1
1
1
1
1
1
1
1
1
1
1
1
1
1
1
1
1
1
1
1
1
1
1
1
1
1
1
1
1
1
1
1
1
1
1
1
1
1
1
1
1
1
1
1
1
1
1
1
1
1
1
1
1
1
1
1
1
1
1
1
1
1
1
1
1
1
1
1
1
1
1
1
1
1
1
1
1
1
1
1
1
1
1
1
1
1
1
1
1
1
1
1
1
1
1
1
1
1
1
1
1
1
1
1
1
1
1
1
1
1
1
1
1
1
1
1
1
1
1
1
1.10185
2.49589
2.98376
2.99471
2.99831
3.00505
3.01102
3.01536
3.01334
3.00847
3.00807
3.01616
3.02996
3.0455
3.06033
3.07283
3.08249
3.0876
3.08747
3.0849
3.0892
3.10522
3.12433
3.14298
3.15986
3.17403
3.18423
3.18853
3.19158
3.20638
3.2337
3.2667
3.30411
3.3446
3.3831
3.41337
3.43241
3.44868
3.46754
3.48415
3.49492
3.5001
3.49919
3.49301
3.48792
3.4876
3.48982
3.49221
3.49313
3.49187
3.49065
3.49354
3.50408
3.52029
3.53709
3.549
3.55336
3.55226
3.55161
1
1
1
1
1
1
1
1
1
1
1
1
1
1
1
1
1
1
1
1
1
1
1
1
1
1
1
1
1
1
1
1
1
1
1
1
1
1
1
1
1
1
1
1
1
1
1
1
1
1
1
1
1
1
1
1
1
1
1
1
1
1
1
1
1
1
1
1
1
1
1
1
1
1
1
1
1
1
1
1
1
1
1
1
1
1
1
1
1
1
1
1
1
1
1
1
1
1
1
1
1
1
1
1
1
1
1
1
1
1
1
1
1
1
1
1
1
1
1
1
1
1
1
1
1
1
1
1
1
1
1
1
1
1.0119
2.4336
2.99266
2.99432
2.99619
3.00326
3.00816
3.01013
3.00658
3.00307
3.00627
3.01812
3.03261
3.04794
3.06124
3.07258
3.08015
3.08311
3.0813
3.0799
3.08817
3.10601
3.12517
3.14318
3.15922
3.17221
3.18068
3.18306
3.18735
3.20581
3.23357
3.26565
3.30167
3.34
3.37589
3.40436
3.4244
3.4436
3.46471
3.4823
3.49327
3.49811
3.49658
3.4905
3.48655
3.48744
3.49
3.49211
3.4922
3.49033
3.48907
3.49245
3.50347
3.51962
3.53615
3.54779
3.55204
3.5512
3.55115
1
1
1
1
1
1
1
1
1
1
1
1
1
1
1
1
1
1
1
1
1
1
1
1
1
1
1
1
1
1
1
1
1
1
1
1
1
1
1
1
1
1
1
1
1
1
1
1
1
1
1
1
1
1
1
1
1
1
1
1
1
1
1
1
1
1
1
1
1
1
1
1
1
1
1
1
1
1
1
1
1
1
1
1
1
1
1
1
1
1
1
1
1
1
1
1
1
1
1
1
1
1
1
1
1
1
1
1
1
1
1
1
1
1
1
1
1
1
1
1
1
1
1
1
1
1
1
1
1
1
1
1
1
1.00001
2.36946
2.99581
2.99218
2.99331
3.00093
3.00424
3.00363
2.99948
2.99913
3.00699
3.02062
3.03564
3.04978
3.06167
3.07134
3.07691
3.07761
3.07474
3.07589
3.0885
3.10694
3.12585
3.14317
3.15815
3.1698
3.17617
3.17714
3.18412
3.20569
3.23342
3.26461
3.29922
3.33528
3.36834
3.39489
3.41612
3.4383
3.46148
3.48007
3.49121
3.49571
3.4935
3.48793
3.48537
3.48738
3.49015
3.49187
3.4911
3.48863
3.48742
3.4914
3.5029
3.51893
3.5351
3.5464
3.55058
3.55015
3.55069
1
1
1
1
1
1
1
1
1
1
1
1
1
1
1
1
1
1
1
1
1
1
1
1
1
1
1
1
1
1
1
1
1
1
1
1
1
1
1
1
1
1
1
1
1
1
1
1
1
1
1
1
1
1
1
1
1
1
1
1
1
1
1
1
1
1
1
1
1
1
1
1
1
1
1
1
1
1
1
1
1
1
1
1
1
1
1
1
1
1
1
1
1
1
1
1
1
1
1
1
1
1
1
1
1
1
1
1
1
1
1
1
1
1
1
1
1
1
1
1
1
1
1
1
1
1
1
1
1
1
1
1
1
1
2.29675
2.99401
2.98835
2.98982
2.99763
2.99859
2.99616
2.99357
2.99745
3.00941
3.02385
3.03841
3.05084
3.06144
3.06895
3.07245
3.07122
3.06862
3.0736
3.08944
3.10802
3.12629
3.14282
3.15662
3.16662
3.17059
3.17119
3.18222
3.2058
3.23318
3.26354
3.29671
3.33036
3.36046
3.38514
3.40773
3.43274
3.45778
3.47739
3.48872
3.4928
3.49
3.48535
3.4844
3.48742
3.49028
3.49148
3.48978
3.48676
3.48574
3.49044
3.50236
3.5182
3.53395
3.54481
3.54895
3.54908
3.55021
1
1
1
1
1
1
1
1
1
1
1
1
1
1
1
1
1
1
1
1
1
1
1
1
1
1
1
1
1
1
1
1
1
1
1
1
1
1
1
1
1
1
1
1
1
1
1
1
1
1
1
1
1
1
1
1
1
1
1
1
1
1
1
1
1
1
1
1
1
1
1
1
1
1
1
1
1
1
1
1
1
1
1
1
1
1
1
1
1
1
1
1
1
1
1
1
1
1
1
1
1
1
1
1
1
1
1
1
1
1
1
1
1
1
1
1
1
1
1
1
1
1
1
1
1
1
1
1
1
1
1
1
1
1
2.21186
2.98154
2.98515
2.98578
2.99228
2.99152
2.98888
2.98977
2.9988
3.01257
3.02726
3.04028
3.05117
3.06008
3.06557
3.06668
3.06412
3.06368
3.07335
3.09059
3.10906
3.12644
3.14197
3.15449
3.16249
3.16411
3.16587
3.18146
3.20593
3.23281
3.2624
3.29407
3.32515
3.35224
3.37536
3.39944
3.42695
3.45357
3.47414
3.48572
3.48925
3.48626
3.48279
3.48359
3.48752
3.49036
3.4909
3.48823
3.48471
3.48404
3.48956
3.50186
3.51743
3.53269
3.54305
3.5472
3.54797
3.54968
1
1
1
1
1
1
1
1
1
1
1
1
1
1
1
1
1
1
1
1
1
1
1
1
1
1
1
1
1
1
1
1
1
1
1
1
1
1
1
1
1
1
1
1
1
1
1
1
1
1
1
1
1
1
1
1
1
1
1
1
1
1
1
1
1
1
1
1
1
1
1
1
1
1
1
1
1
1
1
1
1
1
1
1
1
1
1
1
1
1
1
1
1
1
1
1
1
1
1
1
1
1
1
1
1
1
1
1
1
1
1
1
1
1
1
1
1
1
1
1
1
1
1
1
1
1
1
1
1
1
1
1
1
1
2.11092
2.95438
2.98263
2.98009
2.98516
2.98405
2.98361
2.98942
3.0018
3.01635
3.02991
3.04114
3.05063
3.05744
3.0609
3.05997
3.05723
3.06052
3.07444
3.09201
3.10985
3.12624
3.14053
3.15154
3.15711
3.15715
3.16205
3.18141
3.20597
3.23229
3.26111
3.29118
3.31955
3.34369
3.36581
3.39154
3.42096
3.44877
3.47019
3.48209
3.48502
3.48228
3.48037
3.48302
3.48754
3.49035
3.49013
3.48646
3.48251
3.48237
3.4888
3.50137
3.51661
3.53129
3.54112
3.54534
3.54681
3.5491
1
1
1
1
1
1
1
1
1
1
1
1
1
1
1
1
1
1
1
1
1
1
1
1
1
1
1
1
1
1
1
1
1
1
1
1
1
1
1
1
1
1
1
1
1
1
1
1
1
1
1
1
1
1
1
1
1
1
1
1
1
1
1
1
1
1
1
1
1
1
1
1
1
1
1
1
1
1
1
1
1
1
1
1
1
1
1
1
1
1
1
1
1
1
1
1
1
1
1
1
1
1
1
1
1
1
1
1
1
1
1
1
1
1
1
1
1
1
1
1
1
1
1
1
1
1
1
1
1
1
1
1
1
1
1.98911
2.91184
2.97742
2.97306
2.97737
2.97811
2.98178
2.9918
3.00572
3.01967
3.03128
3.04099
3.04874
3.05373
3.05474
3.05243
3.05168
3.05994
3.07596
3.09351
3.11026
3.12552
3.13844
3.1475
3.15038
3.15033
3.16017
3.18169
3.20584
3.23157
3.25957
3.2879
3.31344
3.33496
3.35682
3.3842
3.41477
3.44331
3.46543
3.47767
3.48018
3.47809
3.47811
3.48266
3.48749
3.49014
3.48906
3.48448
3.48022
3.48076
3.48814
3.50086
3.5157
3.52976
3.53899
3.54338
3.54563
3.54847
1
1
1
1
1
1
1
1
1
1
1
1
1
1
1
1
1
1
1
1
1
1
1
1
1
1
1
1
1
1
1
1
1
1
1
1
1
1
1
1
1
1
1
1
1
1
1
1
1
1
1
1
1
1
1
1
1
1
1
1
1
1
1
1
1
1
1
1
1
1
1
1
1
1
1
1
1
1
1
1
1
1
1
1
1
1
1
1
1
1
1
1
1
1
1
1
1
1
1
1
1
1
1
1
1
1
1
1
1
1
1
1
1
1
1
1
1
1
1
1
1
1
1
1
1
1
1
1
1
1
1
1
1
1
1.84167
2.85062
2.96878
2.9663
2.97159
2.97526
2.98324
2.99565
3.00961
3.02155
3.03135
3.03958
3.04562
3.04858
3.04755
3.04509
3.04821
3.06122
3.07782
3.09476
3.11025
3.12412
3.1355
3.14212
3.14266
3.1446
3.15979
3.18199
3.20553
3.23065
3.25768
3.28406
3.30672
3.3263
3.34876
3.37748
3.40841
3.43713
3.4597
3.47228
3.47472
3.47389
3.47615
3.48232
3.48729
3.4897
3.48768
3.48226
3.47794
3.47931
3.48754
3.50032
3.51468
3.52804
3.53665
3.54132
3.54444
3.54781
1
1
1
1
1
1
1
1
1
1
1
1
1
1
1
1
1
1
1
1
1
1
1
1
1
1
1
1
1
1
1
1
1
1
1
1
1
1
1
1
1
1
1
1
1
1
1
1
1
1
1
1
1
1
1
1
1
1
1
1
1
1
1
1
1
1
1
1
1
1
1
1
1
1
1
1
1
1
1
1
1
1
1
1
1
1
1
1
1
1
1
1
1
1
1
1
1
1
1
1
1
1
1
1
1
1
1
1
1
1
1
1
1
1
1
1
1
1
1
1
1
1
1
1
1
1
1
1
1
1
1
1
1
1
1.66584
2.769
2.95689
2.96299
2.96942
2.97624
2.98682
2.99989
3.01196
3.0218
3.03005
3.03686
3.04134
3.04182
3.03956
3.03942
3.04789
3.06314
3.07976
3.09546
3.10968
3.12201
3.13137
3.13512
3.13475
3.14111
3.16011
3.18215
3.20499
3.22947
3.25533
3.27948
3.29933
3.31805
3.3419
3.37135
3.4019
3.43028
3.45298
3.46577
3.46854
3.4698
3.47454
3.48183
3.48694
3.48895
3.486
3.4798
3.47574
3.47805
3.48697
3.49968
3.51349
3.52612
3.53412
3.5392
3.54326
3.54712
1
1
1
1
1
1
1
1
1
1
1
1
1
1
1
1
1
1
1
1
1
1
1
1
1
1
1
1
1
1
1
1
1
1
1
1
1
1
1
1
1
1
1
1
1
1
1
1
1
1
1
1
1
1
1
1
1
1
1
1
1
1
1
1
1
1
1
1
1
1
1
1
1
1
1
1
1
1
1
1
1
1
1
1
1
1
1
1
1
1
1
1
1
1
1
1
1
1
1
1
1
1
1
1
1
1
1
1
1
1
1
1
1
1
1
1
1
1
1
1
1
1
1
1
1
1
1
1
1
1
1
1
1
1
1.45515
2.66845
2.94866
2.9634
2.97146
2.97997
2.99104
3.00246
3.01231
3.02046
3.02748
3.03306
3.03522
3.03397
3.03228
3.03655
3.04958
3.06539
3.08125
3.09558
3.10831
3.11903
3.12576
3.12675
3.12766
3.13999
3.16056
3.18212
3.20419
3.22797
3.25236
3.27395
3.29141
3.31067
3.33629
3.36572
3.39528
3.42281
3.44525
3.4582
3.46183
3.46568
3.47298
3.48117
3.48641
3.48786
3.48397
3.47715
3.47368
3.47696
3.48643
3.49892
3.5121
3.52397
3.53145
3.53704
3.5421
3.54639
1
1
1
1
1
1
1
1
1
1
1
1
1
1
1
1
1
1
1
1
1
1
1
1
1
1
1
1
1
1
1
1
1
1
1
1
1
1
1
1
1
1
1
1
1
1
1
1
1
1
1
1
1
1
1
1
1
1
1
1
1
1
1
1
1
1
1
1
1
1
1
1
1
1
1
1
1
1
1
1
1
1
1
1
1
1
1
1
1
1
1
1
1
1
1
1
1
1
1
1
1
1
1
1
1
1
1
1
1
1
1
1
1
1
1
1
1
1
1
1
1
1
1
1
1
1
1
1
1
1
1
1
1
1
1.23087
2.55868
2.95199
2.96826
2.97602
2.98382
2.99327
3.00271
3.01088
3.01792
3.02399
3.02753
3.02747
3.02581
3.02732
3.03728
3.05198
3.06753
3.08196
3.09497
3.10611
3.11474
3.11842
3.11802
3.12289
3.14013
3.16085
3.18176
3.2031
3.226
3.24857
3.26733
3.28338
3.30461
3.33177
3.36047
3.38854
3.41476
3.43648
3.44954
3.45467
3.4616
3.47135
3.48032
3.48567
3.48638
3.48157
3.47439
3.4718
3.47602
3.48588
3.49798
3.51047
3.52159
3.52871
3.53488
3.54092
3.54558
1
1
1
1
1
1
1
1
1
1
1
1
1
1
1
1
1
1
1
1
1
1
1
1
1
1
1
1
1
1
1
1
1
1
1
1
1
1
1
1
1
1
1
1
1
1
1
1
1
1
1
1
1
1
1
1
1
1
1
1
1
1
1
1
1
1
1
1
1
1
1
1
1
1
1
1
1
1
1
1
1
1
1
1
1
1
1
1
1
1
1
1
1
1
1
1
1
1
1
1
1
1
1
1
1
1
1
1
1
1
1
1
1
1
1
1
1
1
1
1
1
1
1
1
1
1
1
1
1
1
1
1
1
1
1.04774
2.45888
2.96476
2.97382
2.97885
2.98509
2.99293
3.00124
3.00847
3.0147
3.01879
3.01979
3.01895
3.01941
3.02646
3.03973
3.05459
3.06891
3.08187
3.09335
3.10289
3.10879
3.10959
3.11015
3.12119
3.14064
3.16088
3.18101
3.20162
3.22335
3.24368
3.25965
3.27594
3.30013
3.32803
3.35545
3.38164
3.40613
3.42671
3.43985
3.44717
3.4576
3.46959
3.47922
3.48462
3.48451
3.47876
3.47158
3.47013
3.47522
3.48526
3.49682
3.50858
3.51899
3.52596
3.53278
3.5397
3.54465
1
1
1
1
1
1
1
1
1
1
1
1
1
1
1
1
1
1
1
1
1
1
1
1
1
1
1
1
1
1
1
1
1
1
1
1
1
1
1
1
1
1
1
1
1
1
1
1
1
1
1
1
1
1
1
1
1
1
1
1
1
1
1
1
1
1
1
1
1
1
1
1
1
1
1
1
1
1
1
1
1
1
1
1
1
1
1
1
1
1
1
1
1
1
1
1
1
1
1
1
1
1
1
1
1
1
1
1
1
1
1
1
1
1
1
1
1
1
1
1
1
1
1
1
1
1
1
1
1
1
1
1
1
1
1.00023
2.36435
2.97199
2.97525
2.97827
2.9839
2.99104
2.99918
3.00564
3.00957
3.01098
3.01094
3.01154
3.01676
3.02855
3.04266
3.05662
3.0693
3.08083
3.09077
3.09819
3.10094
3.10041
3.1049
3.12127
3.14103
3.16054
3.17979
3.19965
3.21978
3.2374
3.25127
3.26992
3.29701
3.3247
3.35051
3.37456
3.39694
3.41595
3.42932
3.4395
3.45362
3.46768
3.47782
3.4831
3.48218
3.4756
3.46881
3.46865
3.47453
3.48451
3.49541
3.50642
3.5162
3.52328
3.53078
3.5384
3.54352
1
1
1
1
1
1
1
1
1
1
1
1
1
1
1
1
1
1
1
1
1
1
1
1
1
1
1
1
1
1
1
1
1
1
1
1
1
1
1
1
1
1
1
1
1
1
1
1
1
1
1
1
1
1
1
1
1
1
1
1
1
1
1
1
1
1
1
1
1
1
1
1
1
1
1
1
1
1
1
1
1
1
1
1
1
1
1
1
1
1
1
1
1
1
1
1
1
1
1
1
1
1
1
1
1
1
1
1
1
1
1
1
1
1
1
1
1
1
1
1
1
1
1
1
1
1
1
1
1
1
1
1
1
1
1
2.25167
2.96657
2.97415
2.97497
2.98119
2.98932
2.99695
3.00025
3.00132
3.00182
3.00303
3.0075
3.01815
3.03159
3.04518
3.05753
3.06874
3.07874
3.08703
3.09151
3.09166
3.09236
3.10327
3.12193
3.14116
3.15974
3.1781
3.19696
3.21494
3.22958
3.24306
3.2659
3.2947
3.32149
3.34556
3.36735
3.3872
3.40431
3.41817
3.4318
3.44956
3.46555
3.47608
3.481
3.47928
3.47216
3.46621
3.46738
3.4739
3.48354
3.4937
3.504
3.51327
3.52073
3.5289
3.53698
3.54214
1
1
1
1
1
1
1
1
1
1
1
1
1
1
1
1
1
1
1
1
1
1
1
1
1
1
1
1
1
1
1
1
1
1
1
1
1
1
1
1
1
1
1
1
1
1
1
1
1
1
1
1
1
1
1
1
1
1
1
1
1
1
1
1
1
1
1
1
1
1
1
1
1
1
1
1
1
1
1
1
1
1
1
1
1
1
1
1
1
1
1
1
1
1
1
1
1
1
1
1
1
1
1
1
1
1
1
1
1
1
1
1
1
1
1
1
1
1
1
1
1
1
1
1
1
1
1
1
1
1
1
1
1
1
1
2.1076
2.93947
2.97122
2.97068
2.97964
2.98733
2.99095
2.99144
2.99197
2.99371
2.99817
3.00813
3.02105
3.03433
3.04645
3.05731
3.06708
3.07566
3.08145
3.08286
3.08234
3.08753
3.10364
3.12256
3.14091
3.1584
3.17586
3.19323
3.20846
3.22055
3.23636
3.26349
3.29262
3.31824
3.34055
3.35998
3.377
3.39197
3.40663
3.42418
3.44536
3.4631
3.47392
3.47825
3.4757
3.46847
3.46394
3.46636
3.47324
3.48229
3.49167
3.50128
3.51024
3.51837
3.52716
3.53542
3.54045
1
1
1
1
1
1
1
1
1
1
1
1
1
1
1
1
1
1
1
1
1
1
1
1
1
1
1
1
1
1
1
1
1
1
1
1
1
1
1
1
1
1
1
1
1
1
1
1
1
1
1
1
1
1
1
1
1
1
1
1
1
1
1
1
1
1
1
1
1
1
1
1
1
1
1
1
1
1
1
1
1
1
1
1
1
1
1
1
1
1
1
1
1
1
1
1
1
1
1
1
1
1
1
1
1
1
1
1
1
1
1
1
1
1
1
1
1
1
1
1
1
1
1
1
1
1
1
1
1
1
1
1
1
1
1
1.92239
2.87705
2.96636
2.96651
2.97648
2.98095
2.98164
2.98202
2.98398
2.98869
2.99831
3.01079
3.02374
3.03571
3.04638
3.05592
3.06446
3.07104
3.07361
3.07322
3.07487
3.08667
3.1046
3.12289
3.14013
3.15651
3.17287
3.18809
3.20014
3.21136
3.2321
3.26184
3.29046
3.31485
3.33537
3.35231
3.36631
3.37923
3.39501
3.41672
3.44095
3.46017
3.47126
3.47483
3.47134
3.46467
3.46204
3.46555
3.47251
3.4807
3.4893
3.49827
3.50715
3.51622
3.52553
3.53372
3.53841
1
1
1
1
1
1
1
1
1
1
1
1
1
1
1
1
1
1
1
1
1
1
1
1
1
1
1
1
1
1
1
1
1
1
1
1
1
1
1
1
1
1
1
1
1
1
1
1
1
1
1
1
1
1
1
1
1
1
1
1
1
1
1
1
1
1
1
1
1
1
1
1
1
1
1
1
1
1
1
1
1
1
1
1
1
1
1
1
1
1
1
1
1
1
1
1
1
1
1
1
1
1
1
1
1
1
1
1
1
1
1
1
1
1
1
1
1
1
1
1
1
1
1
1
1
1
1
1
1
1
1
1
1
1
1
1.68509
2.77676
2.95814
2.96236
2.97079
2.97212
2.9723
2.97422
2.97927
2.98881
3.00088
3.01333
3.02497
3.03553
3.045
3.05352
3.06052
3.06399
3.06419
3.06437
3.07157
3.08755
3.10545
3.12271
3.13873
3.15404
3.16875
3.18107
3.19037
3.20379
3.22985
3.26041
3.2881
3.31123
3.32987
3.34416
3.35507
3.36638
3.38391
3.4094
3.43617
3.45663
3.46792
3.4706
3.46636
3.46092
3.46046
3.46497
3.47167
3.47875
3.48656
3.49494
3.50408
3.51427
3.52399
3.53186
3.53599
1
1
1
1
1
1
1
1
1
1
1
1
1
1
1
1
1
1
1
1
1
1
1
1
1
1
1
1
1
1
1
1
1
1
1
1
1
1
1
1
1
1
1
1
1
1
1
1
1
1
1
1
1
1
1
1
1
1
1
1
1
1
1
1
1
1
1
1
1
1
1
1
1
1
1
1
1
1
1
1
1
1
1
1
1
1
1
1
1
1
1
1
1
1
1
1
1
1
1
1
1
1
1
1
1
1
1
1
1
1
1
1
1
1
1
1
1
1
1
1
1
1
1
1
1
1
1
1
1
1
1
1
1
1
1
1.40293
2.64424
2.95176
2.95921
2.96359
2.96333
2.96493
2.97032
2.97991
2.99162
3.00338
3.01433
3.02454
3.03388
3.04247
3.04979
3.054
3.05491
3.05481
3.05867
3.0719
3.08882
3.10582
3.12181
3.13666
3.15074
3.16309
3.17194
3.18045
3.1992
3.22853
3.25887
3.28547
3.30727
3.32389
3.3353
3.34331
3.35386
3.37373
3.40217
3.43083
3.45234
3.46374
3.46538
3.46106
3.45733
3.45914
3.46449
3.47063
3.47645
3.48339
3.49129
3.50107
3.51251
3.52251
3.52986
3.5332
1
1
1
1
1
1
1
1
1
1
1
1
1
1
1
1
1
1
1
1
1
1
1
1
1
1
1
1
1
1
1
1
1
1
1
1
1
1
1
1
1
1
1
1
1
1
1
1
1
1
1
1
1
1
1
1
1
1
1
1
1
1
1
1
1
1
1
1
1
1
1
1
1
1
1
1
1
1
1
1
1
1
1
1
1
1
1
1
1
1
1
1
1
1
1
1
1
1
1
1
1
1
1
1
1
1
1
1
1
1
1
1
1
1
1
1
1
1
1
1
1
1
1
1
1
1
1
1
1
1
1
1
1
1
1
1.1277
2.50364
2.95403
2.95651
2.95652
2.95747
2.96254
2.97187
2.98328
2.99424
3.00422
3.01363
3.02253
3.03105
3.03851
3.04331
3.04503
3.04536
3.0476
3.05782
3.07337
3.08978
3.10549
3.12012
3.13388
3.14615
3.15525
3.16135
3.17247
3.19706
3.2275
3.25709
3.28252
3.30281
3.31713
3.32554
3.33127
3.34227
3.36458
3.39488
3.42482
3.44716
3.45851
3.45924
3.45552
3.45411
3.45813
3.46394
3.46929
3.47382
3.47975
3.48734
3.49822
3.5109
3.52102
3.52771
3.53004
1
1
1
1
1
1
1
1
1
1
1
1
1
1
1
1
1
1
1
1
1
1
1
1
1
1
1
1
1
1
1
1
1
1
1
1
1
1
1
1
1
1
1
1
1
1
1
1
1
1
1
1
1
1
1
1
1
1
1
1
1
1
1
1
1
1
1
1
1
1
1
1
1
1
1
1
1
1
1
1
1
1
1
1
1
1
1
1
1
1
1
1
1
1
1
1
1
1
1
1
1
1
1
1
1
1
1
1
1
1
1
1
1
1
1
1
1
1
1
1
1
1
1
1
1
1
1
1
1
1
1
1
1
1
1
1.00193
2.37606
2.95506
2.95259
2.95265
2.95661
2.96509
2.97611
2.9862
2.99495
3.00319
3.01127
3.01938
3.02671
3.0318
3.03426
3.03536
3.03726
3.04505
3.05914
3.07481
3.08999
3.10427
3.11768
3.13002
3.13962
3.14513
3.151
3.16806
3.19595
3.22634
3.25497
3.27917
3.29767
3.30937
3.31478
3.31953
3.33224
3.35638
3.38732
3.41794
3.44089
3.45206
3.4524
3.44991
3.45125
3.45735
3.4632
3.46756
3.47084
3.47562
3.48318
3.49554
3.5094
3.51946
3.52538
3.52656
1
1
1
1
1
1
1
1
1
1
1
1
1
1
1
1
1
1
1
1
1
1
1
1
1
1
1
1
1
1
1
1
1
1
1
1
1
1
1
1
1
1
1
1
1
1
1
1
1
1
1
1
1
1
1
1
1
1
1
1
1
1
1
1
1
1
1
1
1
1
1
1
1
1
1
1
1
1
1
1
1
1
1
1
1
1
1
1
1
1
1
1
1
1
1
1
1
1
1
1
1
1
1
1
1
1
1
1
1
1
1
1
1
1
1
1
1
1
1
1
1
1
1
1
1
1
1
1
1
1
1
1
1
1
1
1
2.23753
2.9455
2.94833
2.95202
2.96027
2.97037
2.97946
2.98673
2.99351
3.00035
3.00766
3.01457
3.01969
3.02272
3.02463
3.02678
3.03309
3.0459
3.06085
3.07554
3.08932
3.10219
3.11438
3.12453
3.13044
3.13387
3.1434
3.16625
3.19503
3.22482
3.25243
3.27526
3.29161
3.30032
3.30332
3.30885
3.32405
3.3489
3.37939
3.40998
3.43322
3.44427
3.44497
3.4446
3.44901
3.45646
3.46218
3.46539
3.46746
3.47102
3.47894
3.49307
3.50793
3.51776
3.52283
3.52281
1
1
1
1
1
1
1
1
1
1
1
1
1
1
1
1
1
1
1
1
1
1
1
1
1
1
1
1
1
1
1
1
1
1
1
1
1
1
1
1
1
1
1
1
1
1
1
1
1
1
1
1
1
1
1
1
1
1
1
1
1
1
1
1
1
1
1
1
1
1
1
1
1
1
1
1
1
1
1
1
1
1
1
1
1
1
1
1
1
1
1
1
1
1
1
1
1
1
1
1
1
1
1
1
1
1
1
1
1
1
1
1
1
1
1
1
1
1
1
1
1
1
1
1
1
1
1
1
1
1
1
1
1
1
1
1
2.06092
2.9105
2.94813
2.95502
2.9656
2.97386
2.97968
2.98471
2.9899
2.99606
3.00235
3.00732
3.01074
3.01331
3.01595
3.02155
3.03325
3.04756
3.06192
3.07529
3.08762
3.09934
3.10966
3.11639
3.11915
3.1237
3.14
3.16534
3.19384
3.22281
3.24932
3.27058
3.28432
3.28982
3.29199
3.30006
3.31749
3.34183
3.37101
3.40088
3.42399
3.4351
3.43717
3.43979
3.44712
3.45528
3.46079
3.46274
3.46358
3.46604
3.47479
3.49076
3.50644
3.51591
3.52001
3.51879
1
1
1
1
1
1
1
1
1
1
1
1
1
1
1
1
1
1
1
1
1
1
1
1
1
1
1
1
1
1
1
1
1
1
1
1
1
1
1
1
1
1
1
1
1
1
1
1
1
1
1
1
1
1
1
1
1
1
1
1
1
1
1
1
1
1
1
1
1
1
1
1
1
1
1
1
1
1
1
1
1
1
1
1
1
1
1
1
1
1
1
1
1
1
1
1
1
1
1
1
1
1
1
1
1
1
1
1
1
1
1
1
1
1
1
1
1
1
1
1
1
1
1
1
1
1
1
1
1
1
1
1
1
1
1
1
1.82453
2.833
2.94825
2.95785
2.96794
2.97323
2.97633
2.97974
2.98468
2.99028
2.99507
2.99871
3.00173
3.00492
3.0103
3.02098
3.03463
3.0487
3.06188
3.0739
3.08507
3.09524
3.10257
3.10557
3.10764
3.11757
3.1388
3.16441
3.19218
3.2202
3.24546
3.26476
3.27536
3.27829
3.28198
3.29365
3.31199
3.33484
3.36213
3.39064
3.4133
3.42476
3.42923
3.43541
3.44514
3.45373
3.45892
3.45958
3.45913
3.46083
3.47087
3.48859
3.50486
3.51389
3.51684
3.51449
1
1
1
1
1
1
1
1
1
1
1
1
1
1
1
1
1
1
1
1
1
1
1
1
1
1
1
1
1
1
1
1
1
1
1
1
1
1
1
1
1
1
1
1
1
1
1
1
1
1
1
1
1
1
1
1
1
1
1
1
1
1
1
1
1
1
1
1
1
1
1
1
1
1
1
1
1
1
1
1
1
1
1
1
1
1
1
1
1
1
1
1
1
1
1
1
1
1
1
1
1
1
1
1
1
1
1
1
1
1
1
1
1
1
1
1
1
1
1
1
1
1
1
1
1
1
1
1
1
1
1
1
1
1
1