/*--------------------------------*- C++ -*----------------------------------*\
  =========                 |
  \\      /  F ield         | OpenFOAM: The Open Source CFD Toolbox
   \\    /   O peration     | Website:  https://openfoam.org
    \\  /    A nd           | Version:  7
     \\/     M anipulation  |
\*---------------------------------------------------------------------------*/
FoamFile
{
    version     2.0;
    format      ascii;
    class       volVectorField;
    location    "0.2";
    object      U;
}
// * * * * * * * * * * * * * * * * * * * * * * * * * * * * * * * * * * * * * //

dimensions      [0 1 -1 0 0 0 0];

internalField   nonuniform List<vector> 
64512
(
(3 -3.41307e-17 0)
(3 2.75788e-18 0)
(3 2.52167e-17 0)
(3 1.1585e-16 0)
(3 4.25233e-17 0)
(3 3.5461e-17 0)
(3 3.02182e-16 0)
(3 5.41149e-16 0)
(3 4.27092e-16 0)
(3 2.84195e-16 0)
(3 3.06454e-16 0)
(3 -4.53558e-17 0)
(3 -1.59366e-16 0)
(3 3.04434e-16 0)
(3 9.32997e-16 0)
(3 1.02679e-15 0)
(3 4.24097e-16 0)
(3 5.50934e-16 0)
(3 7.0513e-16 0)
(3 3.63295e-17 0)
(3 3.76427e-16 0)
(3 -2.27178e-16 0)
(3 -5.10894e-16 0)
(3 -5.08349e-16 0)
(3 -6.09844e-16 0)
(3 -2.80658e-16 0)
(3 -6.98944e-16 0)
(3 -9.81964e-16 0)
(3 -1.13253e-15 0)
(3 -4.52233e-16 0)
(3 3.13446e-17 0)
(3 7.11189e-16 0)
(3 1.32905e-15 0)
(3 1.28522e-15 0)
(3 4.73805e-16 0)
(3 2.47402e-16 0)
(3 -9.07355e-19 0)
(3 -8.42848e-16 0)
(3 6.09687e-17 0)
(3 6.34826e-17 0)
(3 -1.32334e-16 0)
(3 -1.47644e-17 0)
(3 -9.9314e-17 0)
(3 8.0751e-16 0)
(3 3.50277e-16 0)
(3 3.08982e-16 0)
(3 5.74494e-16 0)
(3 7.61576e-16 0)
(3 7.35621e-16 0)
(3 4.15361e-16 0)
(3 5.95796e-16 0)
(3 1.33084e-15 0)
(3 1.25498e-15 0)
(3 1.1074e-15 0)
(3 3.37708e-16 0)
(3 -1.33134e-15 0)
(3 -5.01932e-16 0)
(3 3.87957e-16 0)
(3 3.92507e-16 0)
(3 3.27268e-16 0)
(3 7.70686e-16 0)
(3 1.13904e-15 0)
(3 1.38967e-15 0)
(3 1.60552e-15 0)
(3 1.17061e-15 0)
(3 5.393e-16 0)
(3 1.58039e-16 0)
(3 6.70002e-16 0)
(3 1.67453e-15 0)
(3 1.98374e-15 0)
(3 -3.28871e-16 0)
(1.91929 0.00621219 0)
(0.480405 0.00861682 0)
(0.345466 0.012632 0)
(0.358218 0.0136467 0)
(0.351529 0.014657 0)
(0.32493 0.0153272 0)
(0.275424 0.0163789 0)
(0.229928 0.0171855 0)
(0.214603 0.0160115 0)
(0.212523 0.0139233 0)
(0.197166 0.0124399 0)
(0.166843 0.00968727 0)
(0.141969 0.00822313 0)
(0.13111 0.00802013 0)
(0.128728 0.00811422 0)
(0.12613 0.00802799 0)
(0.114844 0.00802142 0)
(0.0963672 0.00805745 0)
(0.0787878 0.00827836 0)
(0.0664959 0.0085547 0)
(0.0572303 0.0088617 0)
(0.0475826 0.00875552 0)
(0.0383454 0.00875041 0)
(0.0256323 0.00853896 0)
(0.00913131 0.0087402 0)
(3 -1.0618e-16 0)
(3 5.05432e-17 0)
(3 -1.89324e-17 0)
(3 3.11335e-17 0)
(3 3.99812e-16 0)
(3 5.4125e-16 0)
(3 2.52853e-16 0)
(3 1.22198e-15 0)
(3 1.46383e-15 0)
(3 1.21345e-15 0)
(3 1.11861e-15 0)
(3 3.93437e-16 0)
(3 6.1796e-16 0)
(3 1.23827e-15 0)
(3 1.63775e-15 0)
(3 2.09735e-15 0)
(3 1.74059e-15 0)
(3 1.38303e-15 0)
(3 5.18175e-16 0)
(3 4.71725e-16 0)
(3 3.8901e-16 0)
(3 -2.91241e-16 0)
(3 -8.77042e-16 0)
(3 -5.38285e-16 0)
(3 4.8596e-17 0)
(3 6.84406e-16 0)
(3 -2.19192e-16 0)
(3 -1.23582e-15 0)
(3 -8.30145e-16 0)
(3 -4.57586e-16 0)
(3 -1.56167e-16 0)
(3 3.05873e-16 0)
(3 5.76309e-16 0)
(3 8.45222e-16 0)
(3 -2.12581e-16 0)
(3 -7.51816e-16 0)
(3 -7.73683e-16 0)
(3 -6.97628e-16 0)
(3 -6.82342e-18 0)
(3 1.72183e-15 0)
(3 1.0479e-15 0)
(3 2.46324e-16 0)
(3 8.63712e-17 0)
(3 2.99343e-16 0)
(3 -3.44494e-17 0)
(3 -2.7627e-16 0)
(3 -4.70844e-17 0)
(3 2.98734e-16 0)
(3 1.08436e-15 0)
(3 1.25901e-15 0)
(3 2.16959e-15 0)
(3 2.9199e-15 0)
(3 2.93309e-15 0)
(3 3.01654e-15 0)
(3 1.83017e-15 0)
(3 9.31666e-16 0)
(3 1.4002e-15 0)
(3 1.34132e-15 0)
(3 9.96877e-17 0)
(3 -3.24891e-16 0)
(3 -5.24085e-16 0)
(3 2.97404e-16 0)
(3 2.14227e-15 0)
(3 3.30596e-15 0)
(3 2.34059e-15 0)
(3 1.19228e-15 0)
(3 8.70813e-16 0)
(3 5.30252e-16 0)
(3 2.33431e-15 0)
(3 2.02742e-15 0)
(3 1.56809e-15 0)
(1.94373 0.0316414 0)
(0.479072 0.0383469 0)
(0.339525 0.0395717 0)
(0.351386 0.0408564 0)
(0.343201 0.0425092 0)
(0.314164 0.0438174 0)
(0.263536 0.0462983 0)
(0.21973 0.0481893 0)
(0.206634 0.0445263 0)
(0.206396 0.0393272 0)
(0.191215 0.0350679 0)
(0.161378 0.027817 0)
(0.137829 0.0233535 0)
(0.12825 0.0230542 0)
(0.126237 0.0238796 0)
(0.12364 0.0240243 0)
(0.112219 0.0240371 0)
(0.0940007 0.0240675 0)
(0.076875 0.0247373 0)
(0.0648748 0.0255611 0)
(0.0556324 0.0265833 0)
(0.0461237 0.0262775 0)
(0.0371518 0.0262221 0)
(0.0248889 0.0255633 0)
(0.00889176 0.0261208 0)
(3 -1.55456e-16 0)
(3 -4.47686e-16 0)
(3 -4.67065e-16 0)
(3 -3.46715e-16 0)
(3 -1.16368e-16 0)
(3 2.17096e-18 0)
(3 5.82353e-16 0)
(3 5.89356e-16 0)
(3 1.41291e-15 0)
(3 1.79396e-15 0)
(3 1.0496e-15 0)
(3 1.61816e-15 0)
(3 1.73031e-15 0)
(3 1.45254e-15 0)
(3 1.26463e-15 0)
(3 1.48423e-15 0)
(3 1.93624e-15 0)
(3 -2.76995e-16 0)
(3 -1.72574e-15 0)
(3 -1.14868e-15 0)
(3 -1.29066e-15 0)
(3 -1.44435e-15 0)
(3 -1.22856e-15 0)
(3 -1.14283e-15 0)
(3 -8.61027e-16 0)
(3 -7.50746e-16 0)
(3 -7.80335e-16 0)
(3 -2.03604e-15 0)
(3 -2.6582e-15 0)
(3 -2.72439e-15 0)
(3 -5.95252e-16 0)
(3 2.44856e-16 0)
(3 -9.80368e-17 0)
(3 -1.04431e-16 0)
(3 -5.35874e-16 0)
(3 -1.95723e-15 0)
(3 -2.51941e-15 0)
(3 -2.66247e-15 0)
(3 -2.39516e-15 0)
(3 -2.02097e-15 0)
(3 -1.4982e-15 0)
(3 -1.11242e-15 0)
(3 -8.25721e-16 0)
(3 -5.34326e-16 0)
(3 1.06494e-15 0)
(3 1.19977e-15 0)
(3 1.07321e-15 0)
(3 9.14832e-16 0)
(3 7.66547e-16 0)
(3 6.13096e-16 0)
(3 6.0695e-16 0)
(3 -1.40354e-16 0)
(3 3.90453e-16 0)
(3 6.19353e-16 0)
(3 3.9916e-16 0)
(3 9.29132e-16 0)
(3 1.25925e-15 0)
(3 -3.25298e-16 0)
(3 -2.74412e-15 0)
(3 -3.16108e-15 0)
(3 -1.98419e-15 0)
(3 -4.4344e-16 0)
(3 1.38675e-15 0)
(3 3.42263e-15 0)
(3 2.66043e-15 0)
(3 1.06186e-15 0)
(3 1.7338e-15 0)
(3 1.82077e-15 0)
(3 1.41602e-15 0)
(3 1.01351e-15 0)
(3 -1.24685e-15 0)
(2.00511 0.0532753 0)
(0.488122 0.0661067 0)
(0.345511 0.0670038 0)
(0.356512 0.0704752 0)
(0.346288 0.0732326 0)
(0.313528 0.0751821 0)
(0.260935 0.0781469 0)
(0.218887 0.0802089 0)
(0.207591 0.0743545 0)
(0.207529 0.0661604 0)
(0.190719 0.0580825 0)
(0.160201 0.0461093 0)
(0.137702 0.0389358 0)
(0.128838 0.038205 0)
(0.12676 0.039464 0)
(0.123922 0.0398772 0)
(0.112305 0.0400957 0)
(0.0943819 0.0401765 0)
(0.0777459 0.0412483 0)
(0.0658617 0.0423627 0)
(0.056257 0.0439048 0)
(0.0463766 0.0433877 0)
(0.0371942 0.0433643 0)
(0.0249144 0.0423238 0)
(0.00890636 0.0432363 0)
(3 1.4697e-16 0)
(3 -2.92576e-16 0)
(3 -3.29225e-16 0)
(3 -2.17142e-17 0)
(3 -2.53004e-16 0)
(3 -4.84716e-16 0)
(3 1.15113e-16 0)
(3 -3.68539e-16 0)
(3 -4.2364e-16 0)
(3 -5.73533e-17 0)
(3 3.80824e-16 0)
(3 1.32805e-15 0)
(3 2.17385e-15 0)
(3 2.37521e-15 0)
(3 1.59507e-15 0)
(3 1.45611e-15 0)
(3 8.65923e-16 0)
(3 -1.83844e-15 0)
(3 -2.44724e-15 0)
(3 -2.79303e-15 0)
(3 -2.62147e-15 0)
(3 -1.92531e-15 0)
(3 -1.14535e-15 0)
(3 -7.88763e-16 0)
(3 -5.28652e-16 0)
(3 -4.47667e-16 0)
(3 -4.66e-16 0)
(3 -1.18228e-15 0)
(3 -2.72066e-15 0)
(3 -2.77683e-15 0)
(3 -1.71665e-15 0)
(3 3.76275e-16 0)
(3 2.20415e-16 0)
(3 -1.19511e-15 0)
(3 -1.63777e-15 0)
(3 -3.02821e-15 0)
(3 -3.33488e-15 0)
(3 -3.64355e-15 0)
(3 -4.07284e-15 0)
(3 -4.53467e-15 0)
(3 -4.05728e-15 0)
(3 -2.65886e-15 0)
(3 -2.17238e-15 0)
(3 -8.55651e-16 0)
(3 8.67992e-16 0)
(3 1.24528e-15 0)
(3 1.23748e-15 0)
(3 1.21105e-15 0)
(3 5.21921e-17 0)
(3 -2.10275e-15 0)
(3 -2.28101e-15 0)
(3 -2.10844e-15 0)
(3 -1.20959e-15 0)
(3 -1.14623e-15 0)
(3 -2.89895e-16 0)
(3 -2.65032e-16 0)
(3 1.96563e-16 0)
(3 3.41447e-16 0)
(3 5.47784e-16 0)
(3 1.61778e-15 0)
(3 2.84898e-15 0)
(3 2.48763e-15 0)
(3 2.4458e-15 0)
(3 2.26418e-15 0)
(3 2.3517e-15 0)
(3 1.02911e-15 0)
(3 1.02064e-15 0)
(3 5.1738e-17 0)
(3 -3.04919e-16 0)
(3 -8.8842e-16 0)
(3 -1.51194e-15 0)
(2.09439 0.0691784 0)
(0.500892 0.090645 0)
(0.353414 0.0941371 0)
(0.364299 0.0999411 0)
(0.353326 0.103739 0)
(0.317543 0.105988 0)
(0.264576 0.108844 0)
(0.226223 0.110198 0)
(0.216973 0.103355 0)
(0.215495 0.0930487 0)
(0.195684 0.0813209 0)
(0.162755 0.0649437 0)
(0.140364 0.0548743 0)
(0.131479 0.0532668 0)
(0.128293 0.0547788 0)
(0.124535 0.055521 0)
(0.112382 0.0560292 0)
(0.0947183 0.0562164 0)
(0.0786799 0.0578135 0)
(0.0668913 0.0591502 0)
(0.0568095 0.0611383 0)
(0.0464872 0.0604421 0)
(0.0371426 0.0605247 0)
(0.0249216 0.0592546 0)
(0.00890279 0.0605233 0)
(3 1.51335e-16 0)
(3 -4.16467e-17 0)
(3 -2.39946e-16 0)
(3 7.4411e-16 0)
(3 6.01934e-16 0)
(3 4.13671e-16 0)
(3 -2.65717e-16 0)
(3 -4.69366e-16 0)
(3 -1.21844e-15 0)
(3 -1.05514e-15 0)
(3 -6.72794e-16 0)
(3 -1.26532e-16 0)
(3 2.49878e-16 0)
(3 8.61356e-16 0)
(3 1.0891e-15 0)
(3 1.0627e-15 0)
(3 -2.81563e-16 0)
(3 -8.75575e-16 0)
(3 -6.72387e-16 0)
(3 -7.84514e-16 0)
(3 -3.02722e-16 0)
(3 3.09229e-16 0)
(3 -1.0164e-15 0)
(3 -1.5549e-15 0)
(3 8.62783e-17 0)
(3 1.01898e-15 0)
(3 5.88191e-16 0)
(3 4.07017e-16 0)
(3 -1.10232e-16 0)
(3 -1.17282e-16 0)
(3 5.15409e-16 0)
(3 1.74659e-15 0)
(3 -2.80547e-16 0)
(3 -1.363e-15 0)
(3 -1.61066e-15 0)
(3 -2.62079e-15 0)
(3 -3.59287e-15 0)
(3 -3.85028e-15 0)
(3 -4.17567e-15 0)
(3 -4.64579e-15 0)
(3 -4.58399e-15 0)
(3 -3.77787e-15 0)
(3 -2.63133e-15 0)
(3 -1.7027e-15 0)
(3 -1.21572e-15 0)
(3 -3.59089e-16 0)
(3 5.15706e-17 0)
(3 4.51861e-16 0)
(3 1.27956e-16 0)
(3 -1.07535e-15 0)
(3 -1.9858e-15 0)
(3 -2.02997e-15 0)
(3 -2.86773e-15 0)
(3 -3.52498e-15 0)
(3 -3.37597e-15 0)
(3 -2.61171e-15 0)
(3 -2.6201e-15 0)
(3 -1.70321e-15 0)
(3 -7.87194e-17 0)
(3 2.36643e-15 0)
(3 1.6215e-15 0)
(3 1.41999e-15 0)
(3 2.02714e-15 0)
(3 1.73597e-15 0)
(3 1.46803e-15 0)
(3 8.25124e-16 0)
(3 -2.57005e-16 0)
(3 4.74987e-17 0)
(3 -8.96332e-17 0)
(3 -1.88224e-16 0)
(3 -1.12771e-15 0)
(2.21129 0.0797171 0)
(0.519458 0.113391 0)
(0.361784 0.121035 0)
(0.371261 0.13029 0)
(0.358959 0.133978 0)
(0.318819 0.135876 0)
(0.266272 0.138515 0)
(0.233143 0.140319 0)
(0.225562 0.133685 0)
(0.221944 0.121962 0)
(0.198614 0.106568 0)
(0.163204 0.0856963 0)
(0.141353 0.0725901 0)
(0.133162 0.0691843 0)
(0.128875 0.0702463 0)
(0.124358 0.0711263 0)
(0.111999 0.0719881 0)
(0.0949805 0.072341 0)
(0.0797709 0.0745094 0)
(0.0680188 0.0759372 0)
(0.0573793 0.0782427 0)
(0.0465835 0.0773797 0)
(0.0371017 0.0776196 0)
(0.0250043 0.0762761 0)
(0.00891156 0.0779075 0)
(3 -7.71388e-18 0)
(3 -2.74087e-17 0)
(3 -1.71922e-16 0)
(3 2.26951e-16 0)
(3 3.99917e-16 0)
(3 2.53587e-16 0)
(3 -1.6261e-16 0)
(3 2.95779e-16 0)
(3 6.8039e-16 0)
(3 3.72928e-16 0)
(3 2.54653e-16 0)
(3 3.8026e-16 0)
(3 1.42161e-16 0)
(3 -7.68901e-16 0)
(3 -9.22257e-16 0)
(3 -1.80501e-15 0)
(3 -1.15068e-15 0)
(3 2.8143e-16 0)
(3 7.21699e-16 0)
(3 1.44161e-15 0)
(3 1.47216e-15 0)
(3 1.35146e-15 0)
(3 7.16443e-16 0)
(3 -5.55638e-17 0)
(3 -9.33165e-17 0)
(3 4.83974e-17 0)
(3 -1.33083e-16 0)
(3 -4.37506e-17 0)
(3 4.42862e-16 0)
(3 -9.40661e-17 0)
(3 2.92071e-16 0)
(3 7.62966e-16 0)
(3 6.04291e-16 0)
(3 1.0486e-15 0)
(3 1.0764e-15 0)
(3 -6.70984e-17 0)
(3 -1.82668e-15 0)
(3 -2.28423e-15 0)
(3 -2.74757e-15 0)
(3 -2.64156e-15 0)
(3 -2.50682e-15 0)
(3 -2.64896e-15 0)
(3 -2.93356e-15 0)
(3 -2.92316e-15 0)
(3 -1.67956e-15 0)
(3 -3.65975e-16 0)
(3 -6.29191e-16 0)
(3 -5.47972e-16 0)
(3 -1.26197e-15 0)
(3 -6.05278e-16 0)
(3 -3.76595e-16 0)
(3 -1.78729e-15 0)
(3 -3.00991e-15 0)
(3 -4.3091e-15 0)
(3 -3.74006e-15 0)
(3 -3.47801e-15 0)
(3 -2.6073e-15 0)
(3 -1.30684e-15 0)
(3 5.46184e-16 0)
(3 1.08881e-15 0)
(3 2.00645e-16 0)
(3 1.26174e-15 0)
(3 1.52138e-15 0)
(3 1.92127e-15 0)
(3 1.64892e-15 0)
(3 2.3546e-15 0)
(3 1.43422e-15 0)
(3 1.50113e-15 0)
(3 1.01454e-15 0)
(3 4.82446e-17 0)
(3 -4.44821e-15 0)
(2.35455 0.0840839 0)
(0.548739 0.135628 0)
(0.372583 0.147688 0)
(0.377878 0.16165 0)
(0.362181 0.163291 0)
(0.316636 0.164111 0)
(0.266588 0.166999 0)
(0.240285 0.170508 0)
(0.234144 0.164783 0)
(0.228618 0.151938 0)
(0.202109 0.132897 0)
(0.165312 0.107512 0)
(0.144043 0.0912273 0)
(0.136433 0.0855271 0)
(0.130516 0.085661 0)
(0.124789 0.0865948 0)
(0.112062 0.087912 0)
(0.0957417 0.0885567 0)
(0.0813261 0.0912986 0)
(0.069374 0.0927332 0)
(0.0580424 0.0952959 0)
(0.0467264 0.0943437 0)
(0.0370807 0.0947789 0)
(0.0251188 0.093481 0)
(0.00889001 0.0954745 0)
(3 -1.8515e-16 0)
(3 -3.26075e-17 0)
(3 2.76836e-16 0)
(3 -1.21459e-16 0)
(3 1.57535e-17 0)
(3 -4.14914e-17 0)
(3 1.47827e-16 0)
(3 9.32049e-16 0)
(3 1.42666e-15 0)
(3 1.68775e-15 0)
(3 1.342e-15 0)
(3 7.28753e-16 0)
(3 6.10383e-16 0)
(3 -9.41589e-17 0)
(3 -1.09347e-15 0)
(3 -2.49772e-15 0)
(3 -2.00548e-15 0)
(3 -1.11355e-15 0)
(3 -2.27983e-17 0)
(3 1.24817e-15 0)
(3 2.2136e-15 0)
(3 2.26926e-15 0)
(3 2.40011e-15 0)
(3 1.65426e-15 0)
(3 7.44481e-16 0)
(3 5.97178e-16 0)
(3 -1.67464e-15 0)
(3 -1.52592e-15 0)
(3 -8.9058e-16 0)
(3 -6.26199e-16 0)
(3 -6.91215e-16 0)
(3 -5.35984e-16 0)
(3 7.06864e-16 0)
(3 -2.07246e-16 0)
(3 -1.1307e-15 0)
(3 -1.82114e-16 0)
(3 -4.09213e-17 0)
(3 -4.53919e-16 0)
(3 -1.60638e-15 0)
(3 -2.08409e-15 0)
(3 -1.97912e-15 0)
(3 -2.34734e-15 0)
(3 -3.1635e-15 0)
(3 -2.95633e-15 0)
(3 -2.28745e-15 0)
(3 -1.82535e-15 0)
(3 -1.69043e-15 0)
(3 -1.67113e-15 0)
(3 -1.14368e-15 0)
(3 -5.63661e-16 0)
(3 1.41938e-16 0)
(3 4.24034e-16 0)
(3 -2.94101e-17 0)
(3 -7.86316e-16 0)
(3 6.24617e-17 0)
(3 -1.11767e-15 0)
(3 -4.23977e-16 0)
(3 2.7607e-16 0)
(3 1.11336e-15 0)
(3 1.43403e-15 0)
(3 1.52768e-15 0)
(3 1.31638e-15 0)
(3 1.41001e-15 0)
(3 2.35121e-15 0)
(3 4.8726e-15 0)
(3 5.23011e-15 0)
(3 4.71442e-15 0)
(3 3.2819e-15 0)
(3 1.15816e-15 0)
(3 -2.47915e-17 0)
(3 -3.55827e-15 0)
(2.51639 0.0798041 0)
(0.594228 0.158029 0)
(0.387719 0.176294 0)
(0.383997 0.192553 0)
(0.362377 0.191291 0)
(0.312161 0.190658 0)
(0.267847 0.195102 0)
(0.248846 0.200716 0)
(0.243341 0.196195 0)
(0.235637 0.182311 0)
(0.205694 0.159813 0)
(0.168166 0.130468 0)
(0.14789 0.111133 0)
(0.140207 0.102995 0)
(0.132636 0.101541 0)
(0.125389 0.102212 0)
(0.112324 0.103917 0)
(0.0969055 0.10497 0)
(0.0833257 0.108205 0)
(0.071049 0.109594 0)
(0.0589793 0.1124 0)
(0.0470857 0.111509 0)
(0.0371772 0.112156 0)
(0.0252639 0.110933 0)
(0.00882255 0.113241 0)
(3 -1.78836e-16 0)
(3 1.04065e-16 0)
(3 8.08477e-16 0)
(3 5.99305e-16 0)
(3 7.14368e-16 0)
(3 8.51308e-16 0)
(3 4.7443e-16 0)
(3 2.4515e-16 0)
(3 5.23732e-16 0)
(3 2.81964e-16 0)
(3 -2.50989e-17 0)
(3 -9.71249e-16 0)
(3 -1.13749e-15 0)
(3 -5.00537e-16 0)
(3 2.50517e-16 0)
(3 3.42771e-16 0)
(3 -3.40302e-16 0)
(3 -4.98608e-16 0)
(3 -7.06717e-16 0)
(3 -6.70442e-16 0)
(3 5.19814e-16 0)
(3 1.17622e-15 0)
(3 1.29161e-15 0)
(3 1.01245e-15 0)
(3 -9.20944e-17 0)
(3 -8.23412e-16 0)
(3 -1.76578e-15 0)
(3 -2.00062e-15 0)
(3 -1.43669e-15 0)
(3 -6.13312e-16 0)
(3 -1.26773e-16 0)
(3 2.57752e-16 0)
(3 3.59704e-16 0)
(3 -3.04366e-16 0)
(3 -1.08138e-15 0)
(3 -4.05943e-16 0)
(3 5.13683e-16 0)
(3 6.84524e-16 0)
(3 5.15454e-16 0)
(3 3.47498e-16 0)
(3 -5.11964e-16 0)
(3 -2.19727e-15 0)
(3 -2.43978e-15 0)
(3 -2.04182e-15 0)
(3 -3.33032e-15 0)
(3 -3.46509e-15 0)
(3 -3.06508e-15 0)
(3 -2.3252e-15 0)
(3 -6.76215e-16 0)
(3 -7.52097e-16 0)
(3 -1.11017e-15 0)
(3 6.09773e-17 0)
(3 1.48748e-15 0)
(3 2.41957e-15 0)
(3 1.92608e-15 0)
(3 1.77524e-15 0)
(3 1.89695e-16 0)
(3 -1.07368e-15 0)
(3 -1.03164e-15 0)
(3 -8.83025e-16 0)
(3 -4.14391e-16 0)
(3 -2.48964e-16 0)
(3 2.00984e-16 0)
(3 9.62536e-16 0)
(3 2.94392e-15 0)
(3 5.08885e-15 0)
(3 4.32027e-15 0)
(3 2.32444e-15 0)
(3 1.65921e-15 0)
(3 1.47124e-15 0)
(3 -8.39762e-16 0)
(2.681 0.0654971 0)
(0.661647 0.181352 0)
(0.406713 0.20694 0)
(0.389133 0.221886 0)
(0.35991 0.217626 0)
(0.307589 0.216123 0)
(0.272427 0.223547 0)
(0.259542 0.231028 0)
(0.253653 0.227539 0)
(0.243405 0.212464 0)
(0.209434 0.186941 0)
(0.172197 0.154419 0)
(0.153449 0.132397 0)
(0.144728 0.121763 0)
(0.135426 0.118158 0)
(0.126099 0.11807 0)
(0.112654 0.119922 0)
(0.098254 0.121535 0)
(0.0855058 0.125199 0)
(0.0728445 0.126588 0)
(0.060061 0.129672 0)
(0.0475713 0.129038 0)
(0.0373154 0.129891 0)
(0.0253387 0.128681 0)
(0.00867635 0.131217 0)
(3 2.28321e-16 0)
(3 5.27078e-16 0)
(3 2.99916e-16 0)
(3 7.78956e-16 0)
(3 1.05748e-15 0)
(3 7.48242e-16 0)
(3 2.06995e-17 0)
(3 -5.69271e-16 0)
(3 -7.7865e-16 0)
(3 -2.73963e-16 0)
(3 -1.25964e-16 0)
(3 -7.1178e-16 0)
(3 -1.93583e-15 0)
(3 -1.07509e-15 0)
(3 2.28128e-17 0)
(3 1.13596e-15 0)
(3 5.05303e-16 0)
(3 5.16517e-16 0)
(3 4.18371e-16 0)
(3 -4.59558e-16 0)
(3 -5.23375e-16 0)
(3 -7.08947e-17 0)
(3 2.55621e-16 0)
(3 -4.31802e-17 0)
(3 -8.40043e-16 0)
(3 -1.26055e-15 0)
(3 -7.71323e-16 0)
(3 -9.65196e-16 0)
(3 -1.28589e-15 0)
(3 -1.02635e-15 0)
(3 -6.05406e-16 0)
(3 -5.18726e-16 0)
(3 -8.6534e-17 0)
(3 -9.13786e-17 0)
(3 -7.50083e-16 0)
(3 -9.73215e-16 0)
(3 3.94219e-16 0)
(3 1.02715e-15 0)
(3 5.8865e-16 0)
(3 2.38479e-16 0)
(3 3.18454e-16 0)
(3 2.1813e-16 0)
(3 -2.98573e-16 0)
(3 -1.98747e-15 0)
(3 -3.40458e-15 0)
(3 -3.80771e-15 0)
(3 -2.87666e-15 0)
(3 -9.81048e-16 0)
(3 -1.00101e-15 0)
(3 -1.40063e-15 0)
(3 -2.30479e-15 0)
(3 -1.45273e-15 0)
(3 3.88788e-16 0)
(3 1.82745e-15 0)
(3 1.67707e-15 0)
(3 1.79983e-15 0)
(3 1.79087e-16 0)
(3 -5.49703e-16 0)
(3 -1.81938e-15 0)
(3 -2.08839e-15 0)
(3 -1.12943e-15 0)
(3 -3.05208e-16 0)
(3 6.55476e-17 0)
(3 3.54756e-16 0)
(3 1.32825e-16 0)
(3 2.13518e-15 0)
(3 3.78963e-15 0)
(3 2.71682e-15 0)
(3 2.65525e-15 0)
(3 2.19609e-15 0)
(3 3.62059e-16 0)
(2.82764 0.0426999 0)
(0.755263 0.206262 0)
(0.428189 0.237868 0)
(0.391445 0.249889 0)
(0.355281 0.242219 0)
(0.305128 0.241441 0)
(0.281477 0.252855 0)
(0.272071 0.261494 0)
(0.265125 0.258408 0)
(0.251272 0.242111 0)
(0.213114 0.213974 0)
(0.177631 0.179327 0)
(0.1604 0.155427 0)
(0.150247 0.142186 0)
(0.138888 0.13583 0)
(0.127072 0.134264 0)
(0.113103 0.135872 0)
(0.0998529 0.138189 0)
(0.0879357 0.142294 0)
(0.0748601 0.143823 0)
(0.0613683 0.147207 0)
(0.048232 0.147024 0)
(0.03753 0.148042 0)
(0.0253483 0.146716 0)
(0.00847625 0.149398 0)
(3 7.57145e-17 0)
(3 -2.43514e-16 0)
(3 -2.41195e-16 0)
(3 -2.52371e-16 0)
(3 9.66754e-17 0)
(3 -6.87867e-18 0)
(3 -5.68217e-18 0)
(3 -2.31715e-16 0)
(3 -3.15562e-16 0)
(3 -1.42026e-16 0)
(3 2.30496e-16 0)
(3 3.8979e-16 0)
(3 6.94798e-17 0)
(3 -4.54528e-16 0)
(3 -4.99454e-16 0)
(3 -5.46875e-16 0)
(3 -4.84867e-16 0)
(3 -7.2033e-16 0)
(3 1.43016e-16 0)
(3 -4.696e-16 0)
(3 -4.67076e-16 0)
(3 7.42005e-17 0)
(3 5.61915e-16 0)
(3 6.50648e-16 0)
(3 7.41161e-16 0)
(3 8.15943e-16 0)
(3 6.96501e-16 0)
(3 -7.30046e-17 0)
(3 -1.51706e-15 0)
(3 -1.66583e-15 0)
(3 -1.88855e-15 0)
(3 -1.16366e-15 0)
(3 9.84318e-18 0)
(3 -7.87777e-16 0)
(3 -1.73255e-15 0)
(3 -2.53934e-15 0)
(3 -1.63231e-15 0)
(3 -8.85009e-16 0)
(3 -1.5546e-15 0)
(3 -2.27928e-15 0)
(3 -1.24657e-15 0)
(3 -1.82497e-16 0)
(3 -3.23734e-16 0)
(3 -1.13203e-15 0)
(3 -6.99363e-16 0)
(3 -7.74999e-16 0)
(3 -7.18599e-16 0)
(3 -6.13385e-16 0)
(3 -4.75323e-16 0)
(3 -5.30845e-16 0)
(3 -5.949e-16 0)
(3 -2.86888e-16 0)
(3 -3.55412e-17 0)
(3 7.16145e-18 0)
(3 1.36292e-15 0)
(3 1.24952e-15 0)
(3 7.71875e-16 0)
(3 1.23984e-15 0)
(3 1.21143e-15 0)
(3 1.63077e-15 0)
(3 1.4677e-15 0)
(3 1.07772e-15 0)
(3 9.73685e-16 0)
(3 1.14615e-15 0)
(3 1.73426e-15 0)
(3 1.45856e-15 0)
(3 1.86843e-15 0)
(3 1.74541e-15 0)
(3 1.27026e-15 0)
(3 1.39619e-15 0)
(3 1.66062e-15 0)
(2.94395 0.0134552 0)
(0.875204 0.234341 0)
(0.44948 0.267928 0)
(0.389372 0.275743 0)
(0.349476 0.265005 0)
(0.307414 0.268388 0)
(0.294359 0.283026 0)
(0.285472 0.292152 0)
(0.276947 0.288641 0)
(0.258011 0.271141 0)
(0.216452 0.240599 0)
(0.184402 0.205319 0)
(0.169096 0.180385 0)
(0.156952 0.164514 0)
(0.143034 0.154765 0)
(0.128198 0.150937 0)
(0.113562 0.151826 0)
(0.101625 0.154961 0)
(0.0904914 0.159628 0)
(0.0769156 0.161485 0)
(0.0626463 0.165098 0)
(0.0488812 0.165473 0)
(0.0377042 0.166587 0)
(0.0252468 0.165021 0)
(0.00823357 0.167787 0)
(3 -7.83765e-17 0)
(3 -8.15041e-17 0)
(3 -5.69891e-17 0)
(3 -2.90745e-16 0)
(3 -1.12795e-15 0)
(3 -6.87966e-16 0)
(3 1.30776e-16 0)
(3 8.37216e-16 0)
(3 3.78744e-16 0)
(3 -8.8051e-16 0)
(3 -8.92377e-16 0)
(3 9.1098e-17 0)
(3 1.78614e-15 0)
(3 8.43309e-16 0)
(3 -1.30108e-16 0)
(3 5.94484e-16 0)
(3 5.9412e-16 0)
(3 -3.84951e-16 0)
(3 -1.61913e-16 0)
(3 -2.06532e-16 0)
(3 -8.85628e-16 0)
(3 -1.06135e-15 0)
(3 -7.97504e-16 0)
(3 1.25369e-16 0)
(3 7.43365e-16 0)
(3 1.02177e-15 0)
(3 1.14853e-15 0)
(3 5.08539e-16 0)
(3 -9.63547e-16 0)
(3 -2.4178e-15 0)
(3 -2.3547e-15 0)
(3 8.9993e-18 0)
(3 1.18441e-15 0)
(3 9.66161e-16 0)
(3 4.09962e-16 0)
(3 -1.20602e-15 0)
(3 -2.72317e-15 0)
(3 -2.7477e-15 0)
(3 -1.87455e-15 0)
(3 -3.55984e-15 0)
(3 -3.50511e-15 0)
(3 -2.66886e-15 0)
(3 -1.96038e-15 0)
(3 -3.51165e-16 0)
(3 -3.94545e-16 0)
(3 -4.34394e-16 0)
(3 -6.5693e-16 0)
(3 -1.27457e-15 0)
(3 -1.51692e-15 0)
(3 -7.51281e-16 0)
(3 8.48079e-16 0)
(3 9.00925e-16 0)
(3 5.37847e-16 0)
(3 -1.28876e-16 0)
(3 -1.79523e-16 0)
(3 4.27188e-16 0)
(3 1.19092e-15 0)
(3 1.74388e-15 0)
(3 2.62639e-15 0)
(3 3.27982e-15 0)
(3 2.18919e-15 0)
(3 1.45855e-15 0)
(3 1.21294e-15 0)
(3 1.55828e-15 0)
(3 2.41976e-15 0)
(3 -2.63684e-16 0)
(3 -1.86074e-15 0)
(3 -1.77567e-15 0)
(3 -2.04082e-15 0)
(3 -7.0427e-16 0)
(3 -3.14437e-16 0)
(2.99973 0.000397731 0)
(1.02152 0.263479 0)
(0.46937 0.296948 0)
(0.382972 0.297536 0)
(0.345108 0.287123 0)
(0.316383 0.297024 0)
(0.309219 0.313911 0)
(0.29906 0.323003 0)
(0.288061 0.318188 0)
(0.262574 0.298879 0)
(0.219891 0.266629 0)
(0.192976 0.232557 0)
(0.179811 0.207351 0)
(0.165018 0.188865 0)
(0.147747 0.175192 0)
(0.129664 0.168288 0)
(0.114779 0.167966 0)
(0.104409 0.171871 0)
(0.0939303 0.177251 0)
(0.0796247 0.179637 0)
(0.0643864 0.18333 0)
(0.0499595 0.184303 0)
(0.0381948 0.185504 0)
(0.0252899 0.183674 0)
(0.00804802 0.186473 0)
(3 3.0121e-17 0)
(3 -1.87558e-16 0)
(3 -7.53095e-17 0)
(3 -2.37076e-16 0)
(3 -3.88999e-16 0)
(3 -1.48119e-16 0)
(3 7.44167e-16 0)
(3 1.07224e-15 0)
(3 3.13158e-16 0)
(3 -5.90138e-16 0)
(3 -6.58497e-16 0)
(3 2.08218e-16 0)
(3 9.56873e-16 0)
(3 6.99108e-16 0)
(3 3.37962e-16 0)
(3 5.39845e-16 0)
(3 1.9852e-16 0)
(3 -9.11563e-17 0)
(3 -9.29615e-16 0)
(3 -1.22739e-15 0)
(3 -1.9663e-15 0)
(3 -3.01848e-15 0)
(3 -2.96418e-15 0)
(3 -3.84606e-15 0)
(3 -4.30359e-15 0)
(3 -4.21036e-15 0)
(3 -2.82419e-15 0)
(3 -6.0394e-16 0)
(3 1.5698e-16 0)
(3 -3.49113e-16 0)
(3 -3.81515e-17 0)
(3 6.03009e-17 0)
(3 5.87687e-16 0)
(3 2.04688e-15 0)
(3 2.30432e-15 0)
(3 1.71993e-15 0)
(3 3.63817e-16 0)
(3 5.53978e-16 0)
(3 1.02513e-15 0)
(3 8.63482e-16 0)
(3 4.06123e-16 0)
(3 -3.01249e-16 0)
(3 -2.86793e-16 0)
(3 -1.21278e-15 0)
(3 -7.44786e-16 0)
(3 -8.10858e-16 0)
(3 -1.37011e-15 0)
(3 -1.63033e-15 0)
(3 -1.70295e-15 0)
(3 -1.02529e-15 0)
(3 -2.77965e-16 0)
(3 -5.22368e-16 0)
(3 -6.42007e-16 0)
(3 -4.95798e-16 0)
(3 1.1135e-15 0)
(3 2.39916e-15 0)
(3 3.10684e-15 0)
(3 3.21112e-15 0)
(3 4.26314e-15 0)
(3 4.10796e-15 0)
(3 3.13783e-15 0)
(3 3.0254e-15 0)
(3 2.71883e-15 0)
(3 1.3196e-15 0)
(3 -7.25602e-16 0)
(3 -2.23915e-15 0)
(3 -2.08481e-15 0)
(3 -1.63138e-15 0)
(3 -6.16526e-16 0)
(3 4.39439e-17 0)
(3 8.89135e-16 0)
(3 4.86098e-08 0)
(1.21032 0.289755 0)
(0.489932 0.321826 0)
(0.373177 0.314671 0)
(0.346175 0.311582 0)
(0.33079 0.327212 0)
(0.324743 0.345791 0)
(0.312921 0.353735 0)
(0.297475 0.346979 0)
(0.264679 0.32496 0)
(0.224612 0.292264 0)
(0.20426 0.261267 0)
(0.192251 0.236444 0)
(0.174385 0.215147 0)
(0.152736 0.197078 0)
(0.131702 0.186531 0)
(0.117185 0.184695 0)
(0.108142 0.189229 0)
(0.0978588 0.195344 0)
(0.0824215 0.198401 0)
(0.0660589 0.201964 0)
(0.0510484 0.203526 0)
(0.0387012 0.204868 0)
(0.0252743 0.202831 0)
(0.00785123 0.20559 0)
(3 -1.7296e-16 0)
(3 -2.55523e-16 0)
(3 -2.56967e-16 0)
(3 -1.47758e-16 0)
(3 2.69829e-16 0)
(3 4.52353e-16 0)
(3 1.9523e-16 0)
(3 -3.63175e-16 0)
(3 -3.16519e-16 0)
(3 -2.85348e-16 0)
(3 3.74687e-16 0)
(3 3.03984e-16 0)
(3 -7.98087e-17 0)
(3 -1.96795e-16 0)
(3 -2.68414e-16 0)
(3 -7.63679e-16 0)
(3 -8.83662e-16 0)
(3 -1.05278e-15 0)
(3 -2.07142e-15 0)
(3 -2.30204e-15 0)
(3 -2.14681e-15 0)
(3 -1.14954e-15 0)
(3 3.07506e-17 0)
(3 -2.09322e-16 0)
(3 -1.23129e-15 0)
(3 -1.85305e-15 0)
(3 -1.89108e-15 0)
(3 -1.52365e-15 0)
(3 4.96858e-17 0)
(3 1.11696e-15 0)
(3 1.79277e-15 0)
(3 6.9972e-16 0)
(3 1.26002e-15 0)
(3 1.89246e-15 0)
(3 2.84211e-15 0)
(3 2.48598e-15 0)
(3 1.94071e-15 0)
(3 8.88528e-16 0)
(3 8.67042e-16 0)
(3 2.4384e-15 0)
(3 2.06838e-15 0)
(3 3.15356e-15 0)
(3 1.99327e-15 0)
(3 1.92919e-15 0)
(3 1.33849e-15 0)
(3 8.53973e-16 0)
(3 7.87291e-16 0)
(3 1.95293e-15 0)
(3 2.45139e-15 0)
(3 1.83682e-15 0)
(3 8.93539e-16 0)
(3 1.20184e-15 0)
(3 1.01201e-15 0)
(3 1.76492e-15 0)
(3 2.70957e-15 0)
(3 2.56862e-15 0)
(3 2.42906e-15 0)
(3 1.85908e-15 0)
(3 2.26946e-15 0)
(3 1.76594e-15 0)
(3 1.50407e-15 0)
(3 1.96584e-15 0)
(3 1.89513e-15 0)
(3 1.02684e-15 0)
(3 -5.69243e-16 0)
(3 -5.66687e-16 0)
(3 -2.99271e-16 0)
(3 1.06279e-16 0)
(3 1.5453e-16 0)
(3 7.46891e-16 0)
(3 1.4559e-15 0)
(3 1.18786e-13 0)
(1.45995 0.307921 0)
(0.509089 0.34239 0)
(0.365418 0.330348 0)
(0.355186 0.338411 0)
(0.347717 0.358836 0)
(0.340406 0.378419 0)
(0.326763 0.384051 0)
(0.303491 0.373848 0)
(0.265036 0.348961 0)
(0.232029 0.318344 0)
(0.21832 0.291783 0)
(0.205674 0.26757 0)
(0.184674 0.243213 0)
(0.15767 0.220472 0)
(0.134589 0.206228 0)
(0.120809 0.20279 0)
(0.112385 0.207367 0)
(0.101702 0.214037 0)
(0.0849084 0.217743 0)
(0.0676674 0.220955 0)
(0.0523327 0.223108 0)
(0.0394077 0.224724 0)
(0.0252661 0.222591 0)
(0.00769198 0.225233 0)
(3 -5.09662e-16 0)
(3 -2.39201e-16 0)
(3 -9.69036e-17 0)
(3 5.14224e-16 0)
(3 5.6185e-16 0)
(3 -3.03453e-16 0)
(3 -1.02056e-15 0)
(3 -1.10804e-15 0)
(3 -4.00339e-16 0)
(3 -2.66595e-16 0)
(3 -9.7594e-16 0)
(3 -1.11913e-15 0)
(3 -1.59047e-15 0)
(3 -9.73114e-16 0)
(3 -5.47668e-16 0)
(3 -1.27792e-15 0)
(3 -2.55284e-15 0)
(3 -1.99659e-15 0)
(3 -1.95019e-15 0)
(3 -1.68534e-15 0)
(3 -1.20931e-15 0)
(3 -9.99771e-16 0)
(3 8.76915e-16 0)
(3 1.13568e-15 0)
(3 1.09853e-15 0)
(3 8.97124e-16 0)
(3 1.22004e-15 0)
(3 1.48535e-15 0)
(3 1.00481e-15 0)
(3 1.06666e-15 0)
(3 9.19186e-16 0)
(3 1.16498e-15 0)
(3 1.67923e-15 0)
(3 1.5628e-15 0)
(3 1.2057e-15 0)
(3 7.64386e-16 0)
(3 -3.36168e-16 0)
(3 -1.68931e-16 0)
(3 -1.82619e-16 0)
(3 5.62215e-16 0)
(3 1.52556e-15 0)
(3 9.92142e-16 0)
(3 1.51176e-15 0)
(3 1.86101e-15 0)
(3 1.83089e-15 0)
(3 2.18742e-15 0)
(3 4.09714e-15 0)
(3 3.53042e-15 0)
(3 2.48633e-15 0)
(3 1.61133e-15 0)
(3 1.59397e-15 0)
(3 2.64219e-15 0)
(3 2.82042e-15 0)
(3 2.32418e-15 0)
(3 5.83367e-16 0)
(3 -6.83682e-16 0)
(3 -1.58815e-16 0)
(3 -2.0505e-16 0)
(3 -1.08994e-15 0)
(3 -1.14059e-15 0)
(3 -1.24733e-15 0)
(3 -1.43747e-15 0)
(3 -1.33025e-15 0)
(3 8.65179e-17 0)
(3 9.26071e-16 0)
(3 9.80525e-16 0)
(3 4.43295e-16 0)
(3 8.58764e-16 0)
(3 4.58859e-16 0)
(3 8.57084e-16 0)
(3 1.83069e-15 0)
(3 8.2086e-16 0)
(1.79349 0.299892 0)
(0.527971 0.358862 0)
(0.365046 0.349852 0)
(0.370222 0.365648 0)
(0.365699 0.393189 0)
(0.355802 0.411358 0)
(0.338039 0.412538 0)
(0.304494 0.39793 0)
(0.266124 0.371608 0)
(0.243402 0.346279 0)
(0.234256 0.324149 0)
(0.220076 0.300224 0)
(0.19454 0.272753 0)
(0.162887 0.245441 0)
(0.139 0.228068 0)
(0.125968 0.222686 0)
(0.117334 0.226498 0)
(0.105557 0.233212 0)
(0.0874292 0.237466 0)
(0.069808 0.240302 0)
(0.0543001 0.243121 0)
(0.0405679 0.245212 0)
(0.0253418 0.243168 0)
(0.00761838 0.245644 0)
(3 4.68023e-17 0)
(3 -1.3404e-16 0)
(3 -7.69477e-17 0)
(3 -2.91348e-17 0)
(3 -1.08986e-16 0)
(3 -2.61422e-16 0)
(3 -6.44804e-16 0)
(3 -1.4618e-16 0)
(3 1.99678e-16 0)
(3 2.60026e-16 0)
(3 -8.41149e-16 0)
(3 -1.21687e-16 0)
(3 1.55465e-15 0)
(3 2.07992e-15 0)
(3 2.25541e-15 0)
(3 -3.09915e-16 0)
(3 -1.52036e-15 0)
(3 -1.35467e-15 0)
(3 -6.78482e-16 0)
(3 -4.17366e-16 0)
(3 6.34643e-17 0)
(3 -5.97281e-16 0)
(3 -8.4134e-16 0)
(3 -3.56906e-16 0)
(3 1.18938e-15 0)
(3 1.73875e-15 0)
(3 1.8256e-15 0)
(3 2.18096e-15 0)
(3 2.20389e-15 0)
(3 6.2368e-16 0)
(3 -1.93873e-15 0)
(3 -1.81367e-15 0)
(3 -1.77982e-15 0)
(3 -1.25212e-15 0)
(3 -2.95808e-16 0)
(3 4.157e-16 0)
(3 -4.43546e-16 0)
(3 1.78107e-16 0)
(3 5.03108e-16 0)
(3 -4.56831e-16 0)
(3 -2.36303e-16 0)
(3 -1.11985e-15 0)
(3 -8.89516e-16 0)
(3 -4.78686e-16 0)
(3 7.23337e-17 0)
(3 1.19709e-15 0)
(3 1.47034e-15 0)
(3 1.00554e-15 0)
(3 -2.16305e-16 0)
(3 -7.39929e-16 0)
(3 2.041e-16 0)
(3 -6.03676e-16 0)
(3 -1.45391e-15 0)
(3 -2.23074e-15 0)
(3 -2.58878e-15 0)
(3 -1.98257e-15 0)
(3 -1.0167e-15 0)
(3 -2.21793e-16 0)
(3 -1.17981e-15 0)
(3 -1.93744e-15 0)
(3 -1.82725e-15 0)
(3 -1.92959e-15 0)
(3 -2.23716e-15 0)
(3 -2.17844e-15 0)
(3 -1.36766e-15 0)
(3 -1.02414e-15 0)
(3 -1.28722e-15 0)
(3 5.52008e-16 0)
(3 4.06999e-16 0)
(3 3.30446e-16 0)
(3 1.17988e-15 0)
(3 1.23689e-15 0)
(2.19394 0.25333 0)
(0.568469 0.368357 0)
(0.375203 0.372082 0)
(0.389217 0.400558 0)
(0.384057 0.430677 0)
(0.369438 0.442456 0)
(0.341787 0.437342 0)
(0.302506 0.417247 0)
(0.272461 0.394953 0)
(0.258949 0.37683 0)
(0.250972 0.357918 0)
(0.234283 0.333871 0)
(0.20343 0.303216 0)
(0.168894 0.272332 0)
(0.145507 0.252319 0)
(0.1328 0.244925 0)
(0.122969 0.246851 0)
(0.109138 0.252906 0)
(0.0899102 0.257634 0)
(0.0725323 0.260301 0)
(0.0567499 0.263798 0)
(0.0419266 0.266521 0)
(0.0253354 0.26476 0)
(0.00761225 0.267047 0)
(3 3.4744e-16 0)
(3 3.28249e-16 0)
(3 -1.16453e-18 0)
(3 -2.50941e-16 0)
(3 1.20947e-16 0)
(3 8.56856e-16 0)
(3 1.14406e-15 0)
(3 8.85874e-16 0)
(3 4.6516e-16 0)
(3 1.20176e-15 0)
(3 1.16608e-15 0)
(3 2.70689e-15 0)
(3 4.30569e-15 0)
(3 4.13326e-15 0)
(3 2.14714e-15 0)
(3 7.32751e-16 0)
(3 7.36358e-16 0)
(3 -6.18933e-16 0)
(3 -2.08483e-16 0)
(3 1.19947e-17 0)
(3 6.12655e-16 0)
(3 5.86824e-18 0)
(3 -3.99372e-16 0)
(3 -4.59456e-16 0)
(3 -4.16928e-16 0)
(3 1.07997e-16 0)
(3 -8.3461e-16 0)
(3 -1.98967e-15 0)
(3 -2.92901e-15 0)
(3 -2.76358e-15 0)
(3 -2.2568e-15 0)
(3 -2.67442e-15 0)
(3 -3.34058e-15 0)
(3 -3.32941e-15 0)
(3 -1.88579e-15 0)
(3 -4.86976e-17 0)
(3 1.08689e-15 0)
(3 1.65658e-15 0)
(3 9.09459e-17 0)
(3 -1.06696e-15 0)
(3 -1.13513e-15 0)
(3 -1.12534e-15 0)
(3 -1.17797e-15 0)
(3 -1.27873e-15 0)
(3 -1.67062e-15 0)
(3 -6.20951e-16 0)
(3 9.16978e-16 0)
(3 1.28258e-15 0)
(3 1.66757e-15 0)
(3 1.19523e-15 0)
(3 4.10199e-17 0)
(3 -1.6463e-15 0)
(3 -1.99105e-15 0)
(3 -2.00926e-15 0)
(3 -1.46759e-15 0)
(3 -3.65946e-16 0)
(3 -2.18845e-16 0)
(3 -3.29231e-16 0)
(3 -8.07774e-16 0)
(3 -1.09697e-15 0)
(3 -6.17848e-16 0)
(3 -8.50325e-16 0)
(3 -2.24179e-15 0)
(3 -3.75061e-15 0)
(3 -3.21614e-15 0)
(3 -1.7521e-15 0)
(3 -9.8412e-16 0)
(3 2.49537e-15 0)
(3 3.18417e-15 0)
(3 1.72909e-15 0)