/*--------------------------------*- C++ -*----------------------------------*\
  =========                 |
  \\      /  F ield         | OpenFOAM: The Open Source CFD Toolbox
   \\    /   O peration     | Website:  https://openfoam.org
    \\  /    A nd           | Version:  7
     \\/     M anipulation  |
\*---------------------------------------------------------------------------*/
FoamFile
{
    version     2.0;
    format      ascii;
    class       volScalarField;
    location    "3";
    object      p;
}
// * * * * * * * * * * * * * * * * * * * * * * * * * * * * * * * * * * * * * //

dimensions      [1 -1 -2 0 0 0 0];

internalField   nonuniform List<scalar> 
258048
(
1
1
1
1
1
1
1
1
1
1
1
1
1
1
1
1
1
1
1
1
1
1
1
1
1
1
1
1
1
1
1
1
1
1
1
1
1
1
1
1
1
1
1
1
1
1
1
1
1
1
1
1
1
1
1
1
1
1
1
1
1
1
1
1
1
1
1
1
1
1
1
1
1
1
1
1
1
1
1
1
1
1
1
1
1
1
1
1
1
1
1
1
1
1
1
1
1
1
1.98636
8.66742
10.399
10.3865
10.444
10.4811
10.5159
10.5446
10.5697
10.5943
10.622
10.6541
10.6898
10.7255
10.7569
10.781
10.7995
10.8186
10.8441
10.8784
10.9181
10.9556
10.9836
11.0006
11.0113
11.0242
11.0482
11.0853
11.1298
11.1702
11.1969
11.2096
11.2147
11.2226
11.2421
11.2767
11.3212
11.3633
11.3921
11.4055
11.4079
11.4064
11.4106
11.4281
11.4616
11.5051
11.5454
11.573
11.5853
11.5852
11.5841
11.5944
11.624
11.6683
11.7093
11.7292
11.7265
11.7097
11.6951
11.6974
11.7229
11.7669
11.8137
11.8462
11.8594
11.8624
11.8674
11.8803
11.8945
11.902
11.9038
11.9074
11.9216
11.9474
11.9775
11.9984
12.0028
11.9931
11.9824
11.9792
11.9854
11.9971
12.0055
12.0088
12.0116
12.0207
12.0386
12.0582
12.0687
12.0672
12.0606
12.056
12.0591
12.0639
1
1
1
1
1
1
1
1
1
1
1
1
1
1
1
1
1
1
1
1
1
1
1
1
1
1
1
1
1
1
1
1
1
1
1
1
1
1
1
1
1
1
1
1
1
1
1
1
1
1
1
1
1
1
1
1
1
1
1
1
1
1
1
1
1
1
1
1
1
1
1
1
1
1
1
1
1
1
1
1
1
1
1
1
1
1
1
1
1
1
1
1
1
1
1
1
1
1
1.97353
8.65375
10.3818
10.3964
10.4461
10.4811
10.5159
10.5457
10.5714
10.5959
10.6225
10.6535
10.6888
10.725
10.7573
10.7824
10.8013
10.8196
10.8437
10.8764
10.9157
10.9543
10.9846
11.0047
11.0176
11.0298
11.0495
11.0807
11.1211
11.1615
11.192
11.2097
11.2194
11.229
11.2474
11.2784
11.3185
11.3577
11.3861
11.4009
11.4057
11.407
11.4136
11.4321
11.4649
11.5057
11.5425
11.5673
11.5792
11.582
11.5849
11.5981
11.6281
11.6697
11.707
11.7256
11.7242
11.7098
11.6975
11.7002
11.7241
11.7663
11.8119
11.8447
11.8588
11.8623
11.8667
11.878
11.8924
11.9017
11.9045
11.9086
11.9219
11.9453
11.9741
11.9961
12.0029
11.9955
11.9846
11.9793
11.9835
11.9942
12.0039
12.0097
12.0141
12.0229
12.0385
12.0562
12.0668
12.0668
12.0616
12.0572
12.0589
12.0626
1
1
1
1
1
1
1
1
1
1
1
1
1
1
1
1
1
1
1
1
1
1
1
1
1
1
1
1
1
1
1
1
1
1
1
1
1
1
1
1
1
1
1
1
1
1
1
1
1
1
1
1
1
1
1
1
1
1
1
1
1
1
1
1
1
1
1
1
1
1
1
1
1
1
1
1
1
1
1
1
1
1
1
1
1
1
1
1
1
1
1
1
1
1
1
1
1
1
1.94728
8.63142
10.3766
10.3993
10.4442
10.4793
10.5142
10.5451
10.5726
10.5972
10.6227
10.6525
10.6872
10.7237
10.757
10.7834
10.8033
10.8214
10.8439
10.8745
10.9123
10.9513
10.984
11.0076
11.0238
11.0368
11.0532
11.0784
11.1126
11.1501
11.1832
11.2069
11.2226
11.2363
11.2549
11.2828
11.3176
11.3519
11.3783
11.394
11.4015
11.4065
11.4162
11.4369
11.4701
11.5081
11.54
11.5603
11.5708
11.5761
11.584
11.6018
11.6327
11.6711
11.7033
11.7193
11.7191
11.7088
11.7006
11.7043
11.726
11.7643
11.8072
11.8403
11.8572
11.863
11.8672
11.876
11.8888
11.8993
11.9043
11.9103
11.9235
11.9443
11.9695
11.9907
12.0002
11.9966
11.9873
11.9806
11.9811
11.9886
11.9986
12.0075
12.0152
12.0249
12.038
12.0525
12.0621
12.0638
12.061
12.0574
12.0574
12.0589
1
1
1
1
1
1
1
1
1
1
1
1
1
1
1
1
1
1
1
1
1
1
1
1
1
1
1
1
1
1
1
1
1
1
1
1
1
1
1
1
1
1
1
1
1
1
1
1
1
1
1
1
1
1
1
1
1
1
1
1
1
1
1
1
1
1
1
1
1
1
1
1
1
1
1
1
1
1
1
1
1
1
1
1
1
1
1
1
1
1
1
1
1
1
1
1
1
1
1.91301
8.59117
10.3732
10.3992
10.4413
10.4762
10.5117
10.5444
10.5732
10.598
10.6225
10.6509
10.6851
10.7219
10.7562
10.784
10.8054
10.8236
10.8449
10.8735
10.9095
10.9478
10.9822
11.009
11.028
11.0421
11.0562
11.0768
11.1061
11.1396
11.1725
11.2018
11.224
11.242
11.2618
11.2872
11.317
11.3458
11.369
11.385
11.3959
11.4059
11.4199
11.4425
11.4744
11.5082
11.5346
11.5512
11.5624
11.5729
11.5874
11.6085
11.6366
11.6685
11.695
11.7098
11.7132
11.7104
11.7077
11.7122
11.7291
11.7602
11.7985
11.8323
11.854
11.8645
11.8696
11.8756
11.8847
11.8944
11.9022
11.9112
11.9252
11.944
11.9653
11.9843
11.9959
11.9968
11.9895
11.9821
11.9793
11.9836
11.9938
12.0056
12.0165
12.0269
12.0378
12.0495
12.058
12.061
12.0607
12.058
12.0562
12.0555
1
1
1
1
1
1
1
1
1
1
1
1
1
1
1
1
1
1
1
1
1
1
1
1
1
1
1
1
1
1
1
1
1
1
1
1
1
1
1
1
1
1
1
1
1
1
1
1
1
1
1
1
1
1
1
1
1
1
1
1
1
1
1
1
1
1
1
1
1
1
1
1
1
1
1
1
1
1
1
1
1
1
1
1
1
1
1
1
1
1
1
1
1
1
1
1
1
1
1.86915
8.53216
10.3734
10.3981
10.4396
10.4746
10.5105
10.5434
10.5724
10.597
10.6207
10.6483
10.6822
10.7189
10.7539
10.7833
10.8064
10.8261
10.8475
10.8752
10.9094
10.9455
10.9784
11.0057
11.027
11.0435
11.0588
11.0785
11.1052
11.135
11.1633
11.1928
11.22
11.2432
11.2659
11.2912
11.3179
11.342
11.361
11.3757
11.3896
11.4048
11.4231
11.447
11.4769
11.5061
11.5278
11.5423
11.5564
11.5733
11.5939
11.6155
11.6379
11.662
11.6825
11.6972
11.707
11.7137
11.7185
11.7234
11.7337
11.755
11.7863
11.8207
11.8487
11.8661
11.8738
11.8771
11.8808
11.8873
11.8971
11.9102
11.9267
11.945
11.9629
11.9782
11.9898
11.9942
11.9901
11.9833
11.9783
11.9795
11.989
12.0026
12.0162
12.0276
12.037
12.0462
12.0534
12.0573
12.0589
12.057
12.0539
12.0511
1
1
1
1
1
1
1
1
1
1
1
1
1
1
1
1
1
1
1
1
1
1
1
1
1
1
1
1
1
1
1
1
1
1
1
1
1
1
1
1
1
1
1
1
1
1
1
1
1
1
1
1
1
1
1
1
1
1
1
1
1
1
1
1
1
1
1
1
1
1
1
1
1
1
1
1
1
1
1
1
1
1
1
1
1
1
1
1
1
1
1
1
1
1
1
1
1
1
1.81518
8.45419
10.3747
10.3981
10.439
10.4735
10.5089
10.5413
10.5701
10.5948
10.6186
10.6465
10.6804
10.7164
10.7508
10.7805
10.8049
10.8262
10.8492
10.8776
10.9109
10.9449
10.9746
10.9992
11.0209
11.0404
11.0594
11.0817
11.1083
11.1356
11.1593
11.1836
11.2112
11.2386
11.2659
11.2935
11.3194
11.3405
11.3558
11.3684
11.3839
11.4029
11.4244
11.4487
11.4761
11.5012
11.5199
11.5348
11.5536
11.5771
11.6013
11.6203
11.636
11.6526
11.6679
11.6833
11.7005
11.7184
11.7306
11.7348
11.738
11.7494
11.7728
11.8067
11.8415
11.867
11.8787
11.8796
11.8778
11.8799
11.8898
11.9072
11.9277
11.947
11.9624
11.9737
11.9825
11.9882
11.9883
11.9833
11.9778
11.9769
11.9848
11.9986
12.0138
12.0265
12.0357
12.0433
12.0493
12.0535
12.056
12.0546
12.0509
12.0468
1
1
1
1
1
1
1
1
1
1
1
1
1
1
1
1
1
1
1
1
1
1
1
1
1
1
1
1
1
1
1
1
1
1
1
1
1
1
1
1
1
1
1
1
1
1
1
1
1
1
1
1
1
1
1
1
1
1
1
1
1
1
1
1
1
1
1
1
1
1
1
1
1
1
1
1
1
1
1
1
1
1
1
1
1
1
1
1
1
1
1
1
1
1
1
1
1
1
1.7513
8.35749
10.3749
10.3975
10.4373
10.472
10.507
10.539
10.5676
10.5928
10.6173
10.6456
10.6788
10.7133
10.7459
10.775
10.8004
10.8239
10.8492
10.8793
10.9131
10.9458
10.9727
10.9931
11.0123
11.0337
11.0569
11.0837
11.1132
11.1397
11.1595
11.1768
11.2003
11.2285
11.2602
11.2921
11.3202
11.3405
11.3539
11.3649
11.3801
11.3997
11.4223
11.4468
11.4726
11.4953
11.5135
11.5303
11.5532
11.5804
11.6052
11.6213
11.6318
11.6433
11.655
11.6716
11.6959
11.7231
11.7405
11.7434
11.7414
11.7441
11.7611
11.7932
11.8331
11.8659
11.8815
11.8809
11.875
11.8731
11.8822
11.9028
11.9276
11.9483
11.9617
11.9689
11.9741
11.9809
11.9846
11.982
11.9776
11.9754
11.9812
11.9941
12.0097
12.0238
12.0338
12.0407
12.0455
12.0492
12.0516
12.0506
12.047
12.0427
1
1
1
1
1
1
1
1
1
1
1
1
1
1
1
1
1
1
1
1
1
1
1
1
1
1
1
1
1
1
1
1
1
1
1
1
1
1
1
1
1
1
1
1
1
1
1
1
1
1
1
1
1
1
1
1
1
1
1
1
1
1
1
1
1
1
1
1
1
1
1
1
1
1
1
1
1
1
1
1
1
1
1
1
1
1
1
1
1
1
1
1
1
1
1
1
1
1
1.67861
8.24017
10.3753
10.3978
10.436
10.4704
10.5046
10.5359
10.5644
10.5904
10.616
10.6449
10.6778
10.7112
10.7421
10.7694
10.7942
10.8189
10.8464
10.8786
10.9136
10.9463
10.9717
10.9892
11.0047
11.026
11.0526
11.084
11.1168
11.1446
11.1626
11.1748
11.1923
11.2179
11.2507
11.2865
11.3186
11.3416
11.355
11.3647
11.3781
11.3956
11.4171
11.4412
11.4666
11.4899
11.5106
11.5292
11.5525
11.5791
11.6026
11.6168
11.6252
11.6354
11.6472
11.666
11.6943
11.7253
11.7448
11.7469
11.7415
11.7392
11.7529
11.7836
11.8252
11.8617
11.8798
11.8791
11.8714
11.8677
11.8771
11.9
11.9271
11.948
11.9591
11.9634
11.9665
11.9735
11.9796
11.9799
11.9768
11.9738
11.9777
11.9892
12.0047
12.02
12.0314
12.038
12.0415
12.0443
12.046
12.0452
12.0425
12.0387
1
1
1
1
1
1
1
1
1
1
1
1
1
1
1
1
1
1
1
1
1
1
1
1
1
1
1
1
1
1
1
1
1
1
1
1
1
1
1
1
1
1
1
1
1
1
1
1
1
1
1
1
1
1
1
1
1
1
1
1
1
1
1
1
1
1
1
1
1
1
1
1
1
1
1
1
1
1
1
1
1
1
1
1
1
1
1
1
1
1
1
1
1
1
1
1
1
1
1.59868
8.10176
10.3773
10.399
10.4339
10.4674
10.5008
10.5319
10.5607
10.5876
10.6144
10.644
10.6767
10.7096
10.7398
10.766
10.7892
10.8133
10.8418
10.8756
10.9123
10.9462
10.9722
10.9889
11.001
11.0185
11.0448
11.0786
11.1152
11.1463
11.1658
11.1757
11.1877
11.2082
11.2395
11.2773
11.3141
11.342
11.3585
11.3678
11.378
11.3909
11.4088
11.432
11.4593
11.4866
11.5114
11.5312
11.5511
11.5728
11.5924
11.6059
11.6173
11.6313
11.647
11.6685
11.6956
11.7232
11.7405
11.7425
11.7379
11.7365
11.7502
11.7801
11.8192
11.8536
11.8716
11.8721
11.8659
11.8644
11.8756
11.8992
11.9252
11.9441
11.9532
11.9562
11.9592
11.967
11.9749
11.977
11.9745
11.971
11.9735
11.9843
11.9999
12.016
12.0283
12.0346
12.0368
12.0386
12.0396
12.0392
12.0374
12.0344
1
1
1
1
1
1
1
1
1
1
1
1
1
1
1
1
1
1
1
1
1
1
1
1
1
1
1
1
1
1
1
1
1
1
1
1
1
1
1
1
1
1
1
1
1
1
1
1
1
1
1
1
1
1
1
1
1
1
1
1
1
1
1
1
1
1
1
1
1
1
1
1
1
1
1
1
1
1
1
1
1
1
1
1
1
1
1
1
1
1
1
1
1
1
1
1
1
1
1.51576
7.9432
10.3783
10.4006
10.4313
10.464
10.4971
10.5284
10.5572
10.5842
10.6112
10.6409
10.674
10.7076
10.7384
10.7644
10.7863
10.808
10.8348
10.8689
10.9077
10.9446
10.973
10.9903
11.0003
11.0136
11.0369
11.0708
11.1107
11.1462
11.1687
11.1785
11.1865
11.2014
11.2289
11.2667
11.3076
11.3413
11.3621
11.3722
11.3785
11.3854
11.3983
11.4207
11.4514
11.4846
11.5139
11.5344
11.5495
11.5635
11.5768
11.5903
11.608
11.63
11.6526
11.6765
11.6994
11.7188
11.7304
11.7318
11.7306
11.7353
11.752
11.7813
11.8157
11.8438
11.8584
11.8606
11.8591
11.8634
11.8783
11.901
11.9223
11.9365
11.9435
11.9471
11.9524
11.9624
11.9713
11.9733
11.9701
11.9661
11.9686
11.9796
11.9959
12.0125
12.0243
12.0295
12.0309
12.0319
12.0328
12.033
12.032
12.0296
1
1
1
1
1
1
1
1
1
1
1
1
1
1
1
1
1
1
1
1
1
1
1
1
1
1
1
1
1
1
1
1
1
1
1
1
1
1
1
1
1
1
1
1
1
1
1
1
1
1
1
1
1
1
1
1
1
1
1
1
1
1
1
1
1
1
1
1
1
1
1
1
1
1
1
1
1
1
1
1
1
1
1
1
1
1
1
1
1
1
1
1
1
1
1
1
1
1
1.4339
7.76521
10.3743
10.4004
10.4281
10.4611
10.4944
10.5261
10.5548
10.5814
10.6076
10.6371
10.6707
10.7054
10.7374
10.7642
10.7857
10.8055
10.8295
10.8619
10.9014
10.9412
10.973
10.9925
11.0019
11.0115
11.0299
11.061
11.1021
11.1422
11.1696
11.1821
11.1883
11.1984
11.2212
11.2568
11.2993
11.3379
11.3635
11.3748
11.3777
11.3796
11.3881
11.4096
11.4435
11.4823
11.5155
11.5363
11.547
11.5536
11.5608
11.5745
11.598
11.6283
11.6591
11.6856
11.7034
11.7131
11.7169
11.7173
11.721
11.7327
11.7551
11.7844
11.8128
11.8326
11.8422
11.8465
11.8522
11.8646
11.8838
11.9036
11.9181
11.9261
11.9309
11.9366
11.9462
11.9595
11.9684
11.9685
11.9635
11.9593
11.9631
11.9756
11.9931
12.0091
12.019
12.0223
12.0231
12.0243
12.0259
12.0269
12.0262
12.0241
1
1
1
1
1
1
1
1
1
1
1
1
1
1
1
1
1
1
1
1
1
1
1
1
1
1
1
1
1
1
1
1
1
1
1
1
1
1
1
1
1
1
1
1
1
1
1
1
1
1
1
1
1
1
1
1
1
1
1
1
1
1
1
1
1
1
1
1
1
1
1
1
1
1
1
1
1
1
1
1
1
1
1
1
1
1
1
1
1
1
1
1
1
1
1
1
1
1
1.35074
7.56405
10.3703
10.3987
10.4247
10.4582
10.4922
10.524
10.5525
10.5783
10.6036
10.6323
10.6659
10.7019
10.736
10.7646
10.7866
10.8049
10.826
10.8553
10.8936
10.9351
10.9702
10.9927
11.0036
11.0111
11.0252
11.0521
11.0919
11.1345
11.167
11.1839
11.191
11.1984
11.2171
11.2498
11.2914
11.3316
11.3603
11.3734
11.375
11.3747
11.3813
11.4014
11.436
11.4774
11.5128
11.5341
11.5424
11.5446
11.5484
11.5627
11.5905
11.6278
11.6638
11.6908
11.7046
11.7072
11.7049
11.7037
11.711
11.7296
11.7569
11.7859
11.8088
11.8215
11.827
11.8331
11.8462
11.8665
11.8884
11.9045
11.9119
11.9141
11.9171
11.9257
11.9406
11.9568
11.9648
11.9621
11.9552
11.9514
11.9575
11.9727
11.9912
12.0055
12.012
12.013
12.0136
12.016
12.0191
12.021
12.0201
12.0179
1
1
1
1
1
1
1
1
1
1
1
1
1
1
1
1
1
1
1
1
1
1
1
1
1
1
1
1
1
1
1
1
1
1
1
1
1
1
1
1
1
1
1
1
1
1
1
1
1
1
1
1
1
1
1
1
1
1
1
1
1
1
1
1
1
1
1
1
1
1
1
1
1
1
1
1
1
1
1
1
1
1
1
1
1
1
1
1
1
1
1
1
1
1
1
1
1
1
1.26229
7.33569
10.3713
10.3945
10.421
10.4544
10.4887
10.5209
10.5495
10.5748
10.5997
10.6277
10.6605
10.6964
10.732
10.7629
10.7868
10.8055
10.8251
10.8521
10.8884
10.9292
10.966
10.9914
11.0048
11.0123
11.0239
11.0473
11.084
11.1255
11.16
11.181
11.1908
11.198
11.2141
11.2438
11.2832
11.3227
11.3529
11.3679
11.3705
11.371
11.3778
11.3971
11.43
11.4703
11.5054
11.5268
11.535
11.5371
11.5413
11.5577
11.587
11.6255
11.6623
11.6887
11.7004
11.7003
11.696
11.6949
11.7038
11.7252
11.7542
11.7822
11.8015
11.8107
11.8152
11.8236
11.8417
11.8668
11.8893
11.9015
11.9036
11.9026
11.9048
11.916
11.9351
11.9524
11.9586
11.9536
11.9461
11.9438
11.9526
11.9708
11.9895
12.0005
12.003
12.002
12.0029
12.0071
12.0122
12.0151
12.0137
12.0112
1
1
1
1
1
1
1
1
1
1
1
1
1
1
1
1
1
1
1
1
1
1
1
1
1
1
1
1
1
1
1
1
1
1
1
1
1
1
1
1
1
1
1
1
1
1
1
1
1
1
1
1
1
1
1
1
1
1
1
1
1
1
1
1
1
1
1
1
1
1
1
1
1
1
1
1
1
1
1
1
1
1
1
1
1
1
1
1
1
1
1
1
1
1
1
1
1
1
1.16848
7.09451
10.3726
10.389
10.4163
10.4511
10.4869
10.5207
10.5501
10.5752
10.5993
10.626
10.6567
10.6906
10.7246
10.7554
10.7811
10.8024
10.823
10.8486
10.8816
10.9192
10.9551
10.9825
10.9996
11.01
11.0214
11.0423
11.0762
11.1167
11.1524
11.1767
11.1896
11.1975
11.2118
11.2386
11.2752
11.3129
11.3434
11.3604
11.3661
11.3698
11.3784
11.3971
11.4267
11.4619
11.4924
11.5122
11.5229
11.5296
11.5393
11.5589
11.5872
11.6209
11.6535
11.678
11.69
11.6921
11.6907
11.6923
11.7016
11.7202
11.7458
11.7714
11.7898
11.8002
11.8075
11.8193
11.8389
11.8636
11.8841
11.8935
11.894
11.8927
11.8956
11.9084
11.9285
11.9444
11.9488
11.9436
11.9371
11.9373
11.9493
11.9693
11.9865
11.9935
11.9926
11.9901
11.9915
11.9977
12.005
12.0086
12.0068
12.0046
1
1
1
1
1
1
1
1
1
1
1
1
1
1
1
1
1
1
1
1
1
1
1
1
1
1
1
1
1
1
1
1
1
1
1
1
1
1
1
1
1
1
1
1
1
1
1
1
1
1
1
1
1
1
1
1
1
1
1
1
1
1
1
1
1
1
1
1
1
1
1
1
1
1
1
1
1
1
1
1
1
1
1
1
1
1
1
1
1
1
1
1
1
1
1
1
1
1
1.06096
6.84724
10.3643
10.3806
10.4087
10.443
10.478
10.5116
10.5416
10.5684
10.5942
10.6218
10.6523
10.6852
10.7182
10.749
10.7762
10.8005
10.8232
10.8484
10.8792
10.9142
10.9487
10.9765
10.9962
11.0092
11.0213
11.0404
11.0713
11.11
11.1455
11.1713
11.1866
11.1962
11.2096
11.2333
11.2663
11.3011
11.3306
11.3492
11.3587
11.3667
11.3779
11.3965
11.423
11.4532
11.4788
11.4962
11.5092
11.523
11.5397
11.5635
11.5905
11.6185
11.6431
11.6617
11.6739
11.6818
11.6876
11.6942
11.7035
11.7165
11.7344
11.7547
11.7737
11.7893
11.8034
11.8193
11.8382
11.8581
11.8735
11.8812
11.8837
11.8851
11.8904
11.9032
11.92
11.9321
11.9353
11.9324
11.9292
11.9332
11.9479
11.9675
11.9808
11.9841
11.9812
11.9779
11.9799
11.9878
11.9968
12.0011
11.9994
11.9979
1
1
1
1
1
1
1
1
1
1
1
1
1
1
1
1
1
1
1
1
1
1
1
1
1
1
1
1
1
1
1
1
1
1
1
1
1
1
1
1
1
1
1
1
1
1
1
1
1
1
1
1
1
1
1
1
1
1
1
1
1
1
1
1
1
1
1
1
1
1
1
1
1
1
1
1
1
1
1
1
1
1
1
1
1
1
1
1
1
1
1
1
1
1
1
1
1
1
1.00246
6.54463
10.3357
10.3735
10.4025
10.4386
10.4744
10.508
10.5382
10.5657
10.592
10.6193
10.6489
10.6802
10.7116
10.7414
10.7688
10.7942
10.8189
10.845
10.8746
10.9074
10.9403
10.968
10.989
11.0041
11.0174
11.0359
11.0646
11.1015
11.1372
11.1646
11.1821
11.1933
11.206
11.2273
11.2577
11.2908
11.32
11.3398
11.3516
11.3621
11.3754
11.3942
11.419
11.4458
11.4681
11.4836
11.4968
11.5151
11.5382
11.5661
11.5927
11.6152
11.6317
11.6435
11.6548
11.6693
11.6851
11.6982
11.707
11.7137
11.7224
11.736
11.7553
11.7786
11.8019
11.8215
11.8372
11.849
11.8578
11.8655
11.8728
11.8802
11.8886
11.8988
11.9085
11.9152
11.9187
11.9202
11.923
11.9321
11.9477
11.9636
11.972
11.9725
11.9691
11.9662
11.9687
11.9773
11.9871
11.9921
11.9914
11.9914
1
1
1
1
1
1
1
1
1
1
1
1
1
1
1
1
1
1
1
1
1
1
1
1
1
1
1
1
1
1
1
1
1
1
1
1
1
1
1
1
1
1
1
1
1
1
1
1
1
1
1
1
1
1
1
1
1
1
1
1
1
1
1
1
1
1
1
1
1
1
1
1
1
1
1
1
1
1
1
1
1
1
1
1
1
1
1
1
1
1
1
1
1
1
1
1
1
1
1.00002
6.16872
10.2967
10.369
10.3955
10.4325
10.4683
10.5023
10.5333
10.562
10.5892
10.6164
10.6451
10.6751
10.7053
10.7343
10.7618
10.7882
10.8142
10.8411
10.8701
10.9018
10.9341
10.962
10.9839
11.0001
11.0138
11.0314
11.0578
11.0931
11.1291
11.158
11.1771
11.1892
11.201
11.2203
11.2492
11.2821
11.312
11.3324
11.3445
11.3543
11.3671
11.3865
11.4116
11.4383
11.4606
11.4766
11.4891
11.5072
11.5327
11.5633
11.5907
11.6101
11.6216
11.6285
11.6379
11.6559
11.6798
11.6996
11.7089
11.7098
11.7104
11.7185
11.7375
11.7677
11.7995
11.8227
11.834
11.8376
11.841
11.8491
11.8629
11.8778
11.8882
11.893
11.894
11.8953
11.9001
11.9079
11.9194
11.9336
11.9473
11.9566
11.96
11.9593
11.9568
11.9552
11.9581
11.9662
11.9758
11.9817
11.9829
11.9851
1
1
1
1
1
1
1
1
1
1
1
1
1
1
1
1
1
1
1
1
1
1
1
1
1
1
1
1
1
1
1
1
1
1
1
1
1
1
1
1
1
1
1
1
1
1
1
1
1
1
1
1
1
1
1
1
1
1
1
1
1
1
1
1
1
1
1
1
1
1
1
1
1
1
1
1
1
1
1
1
1
1
1
1
1
1
1
1
1
1
1
1
1
1
1
1
1
1
1
5.76602
10.2544
10.3639
10.3884
10.4267
10.4626
10.4969
10.5283
10.5575
10.5852
10.6126
10.641
10.6705
10.7001
10.7285
10.7555
10.7816
10.8081
10.8358
10.8649
10.8961
10.9281
10.9557
10.9779
10.9948
11.0091
11.0263
11.0509
11.0847
11.1209
11.1507
11.171
11.1836
11.1946
11.2123
11.2406
11.2742
11.3057
11.3276
11.3392
11.3461
11.3554
11.3741
11.4012
11.4311
11.4566
11.4749
11.4873
11.5019
11.5242
11.5536
11.5814
11.6015
11.6127
11.6185
11.6269
11.6447
11.6711
11.6946
11.7056
11.7039
11.7003
11.7045
11.7229
11.757
11.7943
11.8195
11.8271
11.8252
11.8251
11.8346
11.8546
11.8753
11.8855
11.8836
11.8771
11.8744
11.8813
11.8973
11.918
11.9355
11.9448
11.9468
11.9459
11.9447
11.9444
11.945
11.948
11.9546
11.963
11.9699
11.9738
11.9786
1
1
1
1
1
1
1
1
1
1
1
1
1
1
1
1
1
1
1
1
1
1
1
1
1
1
1
1
1
1
1
1
1
1
1
1
1
1
1
1
1
1
1
1
1
1
1
1
1
1
1
1
1
1
1
1
1
1
1
1
1
1
1
1
1
1
1
1
1
1
1
1
1
1
1
1
1
1
1
1
1
1
1
1
1
1
1
1
1
1
1
1
1
1
1
1
1
1
1
5.34447
10.1966
10.3599
10.3827
10.422
10.458
10.4924
10.5237
10.5527
10.5808
10.6081
10.6363
10.6659
10.6954
10.7235
10.7499
10.7754
10.8015
10.8296
10.859
10.8898
10.9211
10.9484
10.9707
10.9885
11.0034
11.0206
11.044
11.0764
11.1123
11.1427
11.164
11.1773
11.1878
11.204
11.2312
11.2652
11.2989
11.3229
11.3347
11.339
11.3438
11.3596
11.3878
11.4225
11.4541
11.4764
11.4892
11.4993
11.5149
11.5385
11.565
11.5881
11.6035
11.6124
11.6214
11.6371
11.6607
11.6838
11.6962
11.6954
11.6918
11.6951
11.7129
11.7471
11.7852
11.8101
11.8158
11.8124
11.8117
11.8235
11.8481
11.8706
11.8781
11.8707
11.8588
11.8541
11.8644
11.889
11.9174
11.9356
11.9394
11.9351
11.9306
11.9296
11.9321
11.9352
11.938
11.9424
11.949
11.9568
11.9639
11.9714
1
1
1
1
1
1
1
1
1
1
1
1
1
1
1
1
1
1
1
1
1
1
1
1
1
1
1
1
1
1
1
1
1
1
1
1
1
1
1
1
1
1
1
1
1
1
1
1
1
1
1
1
1
1
1
1
1
1
1
1
1
1
1
1
1
1
1
1
1
1
1
1
1
1
1
1
1
1
1
1
1
1
1
1
1
1
1
1
1
1
1
1
1
1
1
1
1
1
1
4.91033
10.1242
10.355
10.3777
10.4175
10.4536
10.4883
10.5196
10.548
10.5756
10.6033
10.6313
10.6606
10.6907
10.719
10.7452
10.7703
10.7955
10.8232
10.8527
10.8829
10.9129
10.9396
10.9621
10.981
10.9973
11.0154
11.0381
11.0688
11.1037
11.1343
11.1568
11.1712
11.182
11.1964
11.2209
11.2536
11.2891
11.3162
11.33
11.334
11.3362
11.3476
11.3735
11.4109
11.449
11.4773
11.4919
11.4986
11.5064
11.5215
11.5443
11.5706
11.5934
11.6087
11.6202
11.6329
11.6497
11.6679
11.6804
11.6837
11.6838
11.6894
11.7073
11.7383
11.7718
11.7943
11.8009
11.7994
11.8016
11.8164
11.8422
11.8621
11.8652
11.8543
11.8402
11.8362
11.851
11.8828
11.9156
11.9323
11.9309
11.9222
11.9152
11.9148
11.9196
11.9247
11.9276
11.9299
11.9346
11.943
11.9531
11.9629
1
1
1
1
1
1
1
1
1
1
1
1
1
1
1
1
1
1
1
1
1
1
1
1
1
1
1
1
1
1
1
1
1
1
1
1
1
1
1
1
1
1
1
1
1
1
1
1
1
1
1
1
1
1
1
1
1
1
1
1
1
1
1
1
1
1
1
1
1
1
1
1
1
1
1
1
1
1
1
1
1
1
1
1
1
1
1
1
1
1
1
1
1
1
1
1
1
1
1
4.4658
10.0343
10.3504
10.3743
10.4124
10.4485
10.4832
10.5143
10.5427
10.5696
10.5969
10.6257
10.6552
10.6849
10.7134
10.7399
10.7651
10.7901
10.8172
10.8467
10.8759
10.9039
10.9296
10.952
10.9721
10.9903
11.0098
11.0327
11.0616
11.0949
11.1253
11.1492
11.1655
11.1772
11.1899
11.2104
11.2395
11.2747
11.3054
11.3237
11.3304
11.3327
11.3406
11.3624
11.3979
11.4389
11.4729
11.4913
11.4969
11.4987
11.506
11.524
11.5514
11.5811
11.6044
11.6195
11.6297
11.6394
11.6504
11.6612
11.6696
11.6765
11.6865
11.7043
11.7296
11.7553
11.774
11.7828
11.7868
11.7948
11.8125
11.8352
11.8493
11.8479
11.8353
11.8224
11.8218
11.8414
11.8774
11.9106
11.9244
11.9198
11.9084
11.9005
11.9009
11.9068
11.9133
11.9161
11.9167
11.9201
11.929
11.9414
11.9524
1
1
1
1
1
1
1
1
1
1
1
1
1
1
1
1
1
1
1
1
1
1
1
1
1
1
1
1
1
1
1
1
1
1
1
1
1
1
1
1
1
1
1
1
1
1
1
1
1
1
1
1
1
1
1
1
1
1
1
1
1
1
1
1
1
1
1
1
1
1
1
1
1
1
1
1
1
1
1
1
1
1
1
1
1
1
1
1
1
1
1
1
1
1
1
1
1
1
1
4.01813
9.91668
10.3464
10.3722
10.4079
10.4431
10.4775
10.5087
10.5368
10.5632
10.5899
10.6188
10.6488
10.6785
10.7068
10.7336
10.7592
10.7846
10.8118
10.841
10.8691
10.8951
10.9191
10.9413
10.9621
10.9823
11.0039
11.0275
11.0549
11.0862
11.116
11.141
11.1598
11.1729
11.1847
11.2016
11.2258
11.2581
11.291
11.3148
11.3268
11.3316
11.3383
11.356
11.387
11.426
11.4618
11.4841
11.4914
11.4909
11.4937
11.5078
11.5342
11.5671
11.5964
11.6155
11.6246
11.6291
11.634
11.6425
11.6548
11.669
11.6842
11.7013
11.7198
11.7371
11.7516
11.7632
11.7749
11.7901
11.8092
11.8257
11.8323
11.8273
11.8154
11.8062
11.8108
11.8348
11.8713
11.9012
11.912
11.9064
11.8947
11.8872
11.8878
11.8936
11.9003
11.9029
11.9026
11.9057
11.9153
11.9289
11.9399
1
1
1
1
1
1
1
1
1
1
1
1
1
1
1
1
1
1
1
1
1
1
1
1
1
1
1
1
1
1
1
1
1
1
1
1
1
1
1
1
1
1
1
1
1
1
1
1
1
1
1
1
1
1
1
1
1
1
1
1
1
1
1
1
1
1
1
1
1
1
1
1
1
1
1
1
1
1
1
1
1
1
1
1
1
1
1
1
1
1
1
1
1
1
1
1
1
1
1
3.57426
9.76079
10.3452
10.3698
10.4044
10.4377
10.471
10.5018
10.53
10.5562
10.5826
10.6114
10.6415
10.6708
10.699
10.726
10.7521
10.7783
10.806
10.8352
10.8627
10.8867
10.9087
10.93
10.9513
10.9734
10.9972
11.0221
11.0489
11.0782
11.1063
11.1312
11.1521
11.1675
11.1798
11.1949
11.2153
11.243
11.2748
11.3022
11.3204
11.3305
11.3387
11.3538
11.3792
11.4126
11.4458
11.4694
11.4803
11.4822
11.4849
11.4972
11.5212
11.5531
11.5842
11.6058
11.6155
11.6182
11.6202
11.6273
11.6418
11.6609
11.6797
11.6954
11.7078
11.7181
11.7292
11.7441
11.7637
11.7851
11.8037
11.8134
11.8126
11.8051
11.7959
11.7924
11.8029
11.8296
11.8629
11.8875
11.8958
11.8912
11.8814
11.8754
11.8756
11.88
11.8855
11.8875
11.8876
11.8917
11.9019
11.9156
11.9255
1
1
1
1
1
1
1
1
1
1
1
1
1
1
1
1
1
1
1
1
1
1
1
1
1
1
1
1
1
1
1
1
1
1
1
1
1
1
1
1
1
1
1
1
1
1
1
1
1
1
1
1
1
1
1
1
1
1
1
1
1
1
1
1
1
1
1
1
1
1
1
1
1
1
1
1
1
1
1
1
1
1
1
1
1
1
1
1
1
1
1
1
1
1
1
1
1
1
1
3.14362
9.55981
10.345
10.3669
10.4005
10.4325
10.4645
10.4944
10.5223
10.5492
10.5765
10.6055
10.6359
10.6643
10.6902
10.716
10.742
10.7692
10.7982
10.8285
10.8566
10.8799
10.9
10.9198
10.9403
10.9633
10.9893
11.0161
11.0434
11.0712
11.0968
11.1195
11.141
11.159
11.1738
11.1898
11.2093
11.233
11.2601
11.2868
11.3091
11.3254
11.3384
11.3532
11.3743
11.4007
11.4277
11.4495
11.4639
11.4717
11.4783
11.4912
11.5124
11.5399
11.5681
11.59
11.6018
11.6064
11.6094
11.6168
11.6321
11.6526
11.6718
11.685
11.6929
11.6991
11.709
11.7273
11.7529
11.7781
11.794
11.7977
11.7923
11.7836
11.7779
11.7809
11.797
11.8235
11.851
11.87
11.8769
11.8749
11.8687
11.8647
11.864
11.8657
11.8688
11.8699
11.8715
11.8777
11.8887
11.9014
11.9097
1
1
1
1
1
1
1
1
1
1
1
1
1
1
1
1
1
1
1
1
1
1
1
1
1
1
1
1
1
1
1
1
1
1
1
1
1
1
1
1
1
1
1
1
1
1
1
1
1
1
1
1
1
1
1
1
1
1
1
1
1
1
1
1
1
1
1
1
1
1
1
1
1
1
1
1
1
1
1
1
1
1
1
1
1
1
1
1
1
1
1
1
1
1
1
1
1
1
1
2.7378
9.30751
10.3445
10.364
10.3968
10.4271
10.4585
10.4883
10.5163
10.5433
10.5702
10.5989
10.6296
10.6583
10.6829
10.7069
10.7321
10.7594
10.7895
10.8213
10.8506
10.8739
10.8925
10.91
10.9287
10.9514
10.9795
11.0093
11.0384
11.0659
11.0892
11.1079
11.1273
11.1465
11.1649
11.1846
11.2057
11.2276
11.25
11.2719
11.2935
11.3141
11.3331
11.3509
11.3702
11.3909
11.411
11.4287
11.4444
11.4586
11.4717
11.4874
11.5065
11.5279
11.55
11.5696
11.5841
11.5936
11.601
11.6107
11.6254
11.6433
11.6593
11.6694
11.6753
11.6808
11.692
11.7134
11.7416
11.7668
11.7798
11.7795
11.7722
11.7645
11.7627
11.7716
11.7911
11.8147
11.8353
11.8493
11.8566
11.858
11.8563
11.8547
11.8526
11.8505
11.8503
11.8508
11.8545
11.8633
11.8751
11.8865
11.8929
1
1
1
1
1
1
1
1
1
1
1
1
1
1
1
1
1
1
1
1
1
1
1
1
1
1
1
1
1
1
1
1
1
1
1
1
1
1
1
1
1
1
1
1
1
1
1
1
1
1
1
1
1
1
1
1
1
1
1
1
1
1
1
1
1
1
1
1
1
1
1
1
1
1
1
1
1
1
1
1
1
1
1
1
1
1
1
1
1
1
1
1
1
1
1
1
1
1
1
2.35596
9.00002
10.3429
10.3647
10.3943
10.4226
10.4536
10.4832
10.511
10.5372
10.5637
10.5913
10.622
10.6518
10.677
10.7001
10.7243
10.7506
10.7801
10.8124
10.8433
10.8681
10.8863
10.9021
10.9183
10.9388
10.9679
11.0007
11.0326
11.061
11.0831
11.0985
11.1136
11.1316
11.1524
11.177
11.202
11.2245
11.2441
11.2606
11.2777
11.2976
11.3206
11.3433
11.364
11.3824
11.3977
11.4111
11.4256
11.4435
11.4628
11.4825
11.5006
11.5166
11.5318
11.5477
11.5641
11.5798
11.5938
11.6069
11.6199
11.6326
11.6427
11.6498
11.656
11.664
11.6786
11.7018
11.7288
11.7508
11.7611
11.7599
11.7534
11.7483
11.7507
11.7635
11.783
11.8017
11.8163
11.8271
11.8355
11.8411
11.8442
11.8446
11.8406
11.8343
11.8306
11.8308
11.8367
11.8482
11.8608
11.8706
11.8753
1
1
1
1
1
1
1
1
1
1
1
1
1
1
1
1
1
1
1
1
1
1
1
1
1
1
1
1
1
1
1
1
1
1
1
1
1
1
1
1
1
1
1
1
1
1
1
1
1
1
1
1
1
1
1
1
1
1
1
1
1
1
1
1
1
1
1
1
1
1
1
1
1
1
1
1
1
1
1
1
1
1
1
1
1
1
1
1
1
1
1
1
1
1
1
1
1
1
1
1.99741
8.63196
10.3505
10.3646
10.3919
10.4179
10.4487
10.4779
10.5051
10.5297
10.5544
10.5818
10.613
10.6439
10.671
10.6952
10.7185
10.743
10.7702
10.802
10.8348
10.8621
10.8817
10.8969
10.9106
10.9275
10.9544
10.9891
11.024
11.0546
11.0775
11.0921
11.1036
11.1182
11.1381
11.1651
11.1945
11.22
11.2394
11.2526
11.2648
11.2805
11.3029
11.329
11.3538
11.3736
11.3875
11.398
11.4099
11.428
11.4508
11.474
11.4926
11.5052
11.515
11.5268
11.5438
11.5649
11.5858
11.6024
11.6133
11.6197
11.6236
11.6284
11.6366
11.6494
11.6678
11.6905
11.7131
11.7304
11.739
11.7397
11.7366
11.7355
11.7414
11.755
11.771
11.7843
11.7947
11.8043
11.8145
11.8242
11.8316
11.8334
11.8271
11.817
11.8103
11.8103
11.8184
11.8321
11.8453
11.8537
11.8572
1
1
1
1
1
1
1
1
1
1
1
1
1
1
1
1
1
1
1
1
1
1
1
1
1
1
1
1
1
1
1
1
1
1
1
1
1
1
1
1
1
1
1
1
1
1
1
1
1
1
1
1
1
1
1
1
1
1
1
1
1
1
1
1
1
1
1
1
1
1
1
1
1
1
1
1
1
1
1
1
1
1
1
1
1
1
1
1
1
1
1
1
1
1
1
1
1
1
1
1.67744
8.20848
10.3671
10.36
10.3872
10.4117
10.4428
10.4724
10.5
10.5241
10.5462
10.5712
10.6013
10.6334
10.6635
10.6894
10.7127
10.7357
10.76
10.7903
10.8245
10.8551
10.8776
10.8936
10.9063
10.9194
10.9414
10.9744
11.011
11.045
11.0708
11.0872
11.0979
11.1092
11.1252
11.1504
11.1812
11.2105
11.2329
11.2462
11.2556
11.2666
11.2848
11.3104
11.3385
11.3624
11.3784
11.3882
11.3977
11.4134
11.4361
11.4611
11.4812
11.4932
11.5001
11.5087
11.5251
11.5494
11.5753
11.5947
11.6035
11.6045
11.6038
11.6074
11.6187
11.6367
11.6574
11.6772
11.6939
11.7068
11.7154
11.7198
11.7221
11.7257
11.7333
11.7442
11.7546
11.7631
11.7716
11.7816
11.7943
11.8077
11.818
11.8202
11.8118
11.7987
11.7896
11.7898
11.7997
11.8148
11.8283
11.8356
11.8385
1
1
1
1
1
1
1
1
1
1
1
1
1
1
1
1
1
1
1
1
1
1
1
1
1
1
1
1
1
1
1
1
1
1
1
1
1
1
1
1
1
1
1
1
1
1
1
1
1
1
1
1
1
1
1
1
1
1
1
1
1
1
1
1
1
1
1
1
1
1
1
1
1
1
1
1
1
1
1
1
1
1
1
1
1
1
1
1
1
1
1
1
1
1
1
1
1
1
1
1.40479
7.71295
10.3728
10.3538
10.376
10.401
10.4317
10.4623
10.4909
10.5154
10.5372
10.5611
10.5896
10.6218
10.6539
10.6821
10.7064
10.7283
10.7497
10.777
10.811
10.8445
10.8712
10.8905
10.9042
10.916
10.9327
10.96
10.994
11.0294
11.0599
11.0812
11.0942
11.1044
11.1162
11.1361
11.164
11.1947
11.2218
11.2388
11.2487
11.2567
11.2699
11.292
11.3204
11.3481
11.3682
11.3798
11.3877
11.3999
11.4198
11.4445
11.4664
11.4801
11.487
11.4939
11.5088
11.5336
11.5613
11.5818
11.5895
11.5877
11.5849
11.5889
11.6035
11.6246
11.6449
11.6603
11.6716
11.6815
11.6916
11.7014
11.7101
11.7175
11.7241
11.7298
11.7343
11.7396
11.7476
11.7593
11.7751
11.7912
11.8027
11.8044
11.7945
11.7795
11.769
11.7695
11.7806
11.7964
11.8097
11.8161
11.8192
1
1
1
1
1
1
1
1
1
1
1
1
1
1
1
1
1
1
1
1
1
1
1
1
1
1
1
1
1
1
1
1
1
1
1
1
1
1
1
1
1
1
1
1
1
1
1
1
1
1
1
1
1
1
1
1
1
1
1
1
1
1
1
1
1
1
1
1
1
1
1
1
1
1
1
1
1
1
1
1
1
1
1
1
1
1
1
1
1
1
1
1
1
1
1
1
1
1
1
1.17385
7.19901
10.3555
10.3473
10.3628
10.3913
10.4226
10.4544
10.4842
10.51
10.5321
10.5544
10.5803
10.6105
10.6421
10.6715
10.6978
10.7207
10.741
10.7648
10.796
10.8298
10.8596
10.8833
10.901
10.9146
10.929
10.9502
10.9778
11.0098
11.0424
11.0699
11.0888
11.101
11.1107
11.1247
11.1465
11.1746
11.2048
11.2277
11.2413
11.2494
11.2591
11.2765
11.3023
11.3314
11.3555
11.3701
11.378
11.387
11.403
11.4258
11.4491
11.4658
11.4748
11.4817
11.4948
11.5172
11.5435
11.5638
11.5717
11.5702
11.5681
11.5738
11.5903
11.6113
11.6285
11.6395
11.647
11.656
11.6692
11.6853
11.6999
11.7088
11.7118
11.7116
11.7113
11.7148
11.7236
11.738
11.7566
11.7741
11.7849
11.7856
11.7753
11.7597
11.7489
11.7496
11.7611
11.7767
11.7892
11.7952
11.799
1
1
1
1
1
1
1
1
1
1
1
1
1
1
1
1
1
1
1
1
1
1
1
1
1
1
1
1
1
1
1
1
1
1
1
1
1
1
1
1
1
1
1
1
1
1
1
1
1
1
1
1
1
1
1
1
1
1
1
1
1
1
1
1
1
1
1
1
1
1
1
1
1
1
1
1
1
1
1
1
1
1
1
1
1
1
1
1
1
1
1
1
1
1
1
1
1
1
1
1.00897
6.64551
10.2979
10.3219
10.3437
10.3756
10.4067
10.4403
10.4716
10.4986
10.5235
10.5482
10.5749
10.6043
10.6349
10.6635
10.6895
10.7121
10.732
10.7543
10.782
10.8133
10.8431
10.8698
10.8927
10.9109
10.9268
10.9447
10.9662
10.9919
11.0217
11.0517
11.0773
11.0951
11.1062
11.1165
11.1321
11.1543
11.1837
11.2114
11.2311
11.2425
11.2511
11.2643
11.286
11.3136
11.3396
11.3574
11.367
11.3743
11.3869
11.4071
11.4307
11.4504
11.4626
11.4706
11.4816
11.4998
11.5224
11.5417
11.5514
11.5529
11.5537
11.5614
11.5774
11.595
11.6078
11.6153
11.6214
11.6318
11.6495
11.6714
11.6896
11.6976
11.6958
11.6901
11.6864
11.6897
11.7004
11.7179
11.7382
11.7551
11.7641
11.7639
11.7543
11.7398
11.7296
11.7301
11.7407
11.7552
11.7669
11.7729
11.7782
1
1
1
1
1
1
1
1
1
1
1
1
1
1
1
1
1
1
1
1
1
1
1
1
1
1
1
1
1
1
1
1
1
1
1
1
1
1
1
1
1
1
1
1
1
1
1
1
1
1
1
1
1
1
1
1
1
1
1
1
1
1
1
1
1
1
1
1
1
1
1
1
1
1
1
1
1
1
1
1
1
1
1
1
1
1
1
1
1
1
1
1
1
1
1
1
1
1
1
1.00006
5.99568
10.1861
10.2857
10.3272
10.367
10.3999
10.4331
10.4625
10.4879
10.5117
10.5356
10.5622
10.5916
10.6221
10.6508
10.6788
10.7044
10.7268