/*--------------------------------*- C++ -*----------------------------------*\
  =========                 |
  \\      /  F ield         | OpenFOAM: The Open Source CFD Toolbox
   \\    /   O peration     | Website:  https://openfoam.org
    \\  /    A nd           | Version:  7
     \\/     M anipulation  |
\*---------------------------------------------------------------------------*/
FoamFile
{
    version     2.0;
    format      ascii;
    class       volScalarField;
    location    "3";
    object      rho;
}
// * * * * * * * * * * * * * * * * * * * * * * * * * * * * * * * * * * * * * //

dimensions      [1 -3 0 0 0 0 0];

internalField   nonuniform List<scalar> 
258048
(
1.40001
1.40001
1.40001
1.40001
1.40001
1.40001
1.40001
1.40001
1.40001
1.40001
1.40001
1.40001
1.40001
1.40001
1.40001
1.40001
1.40001
1.40001
1.40001
1.40001
1.40001
1.40001
1.40001
1.40001
1.40001
1.40001
1.40001
1.40001
1.40001
1.40001
1.40001
1.40001
1.40001
1.40001
1.40001
1.40001
1.40001
1.40001
1.40001
1.40001
1.40001
1.40001
1.40001
1.40001
1.40001
1.40001
1.40001
1.40001
1.40001
1.40001
1.40001
1.40001
1.40001
1.40001
1.40001
1.40001
1.40001
1.40001
1.40001
1.40001
1.40001
1.40001
1.40001
1.40001
1.40001
1.40001
1.40001
1.40001
1.40001
1.40001
1.40001
1.40001
1.40001
1.40001
1.40001
1.40001
1.40001
1.40001
1.40001
1.40001
1.40001
1.40001
1.40001
1.40001
1.40001
1.40001
1.40001
1.40001
1.40001
1.40001
1.40001
1.40001
1.40001
1.40001
1.40001
1.40001
1.40001
1.40001
1.94012
4.8056
5.42077
5.41602
5.43583
5.44579
5.45535
5.46495
5.47549
5.48708
5.50003
5.5142
5.52859
5.54148
5.55115
5.55722
5.56165
5.56784
5.57815
5.59281
5.60974
5.62531
5.63625
5.64168
5.6438
5.64668
5.6543
5.66774
5.68464
5.70025
5.7106
5.71528
5.71675
5.71903
5.7257
5.73816
5.75446
5.76992
5.7804
5.78531
5.78652
5.78646
5.78892
5.79656
5.80978
5.82604
5.84051
5.84971
5.85292
5.85181
5.85048
5.85361
5.86405
5.88005
5.89483
5.90208
5.90126
5.89549
5.89043
5.8912
5.90001
5.91521
5.9313
5.9423
5.94657
5.94744
5.94908
5.95337
5.95795
5.96011
5.96021
5.96082
5.965
5.97354
5.98365
5.99026
5.99125
5.98754
5.98362
5.98261
5.98518
5.99004
5.99355
5.99507
5.99633
5.99944
6.00465
6.00911
6.0095
6.00478
5.99728
5.99118
5.98958
5.9904
1.40001
1.40001
1.40001
1.40001
1.40001
1.40001
1.40001
1.40001
1.40001
1.40001
1.40001
1.40001
1.40001
1.40001
1.40001
1.40001
1.40001
1.40001
1.40001
1.40001
1.40001
1.40001
1.40001
1.40001
1.40001
1.40001
1.40001
1.40001
1.40001
1.40001
1.40001
1.40001
1.40001
1.40001
1.40001
1.40001
1.40001
1.40001
1.40001
1.40001
1.40001
1.40001
1.40001
1.40001
1.40001
1.40001
1.40001
1.40001
1.40001
1.40001
1.40001
1.40001
1.40001
1.40001
1.40001
1.40001
1.40001
1.40001
1.40001
1.40001
1.40001
1.40001
1.40001
1.40001
1.40001
1.40001
1.40001
1.40001
1.40001
1.40001
1.40001
1.40001
1.40001
1.40001
1.40001
1.40001
1.40001
1.40001
1.40001
1.40001
1.40001
1.40001
1.40001
1.40001
1.40001
1.40001
1.40001
1.40001
1.40001
1.40001
1.40001
1.40001
1.40001
1.40001
1.40001
1.40001
1.40001
1.40001
1.93331
4.8007
5.41596
5.41911
5.43501
5.44484
5.45517
5.46551
5.47635
5.48783
5.50032
5.51404
5.52826
5.54125
5.55121
5.55764
5.56227
5.56827
5.57804
5.5921
5.60887
5.6248
5.63653
5.64307
5.64606
5.64876
5.65484
5.66612
5.6815
5.69711
5.70881
5.71531
5.71842
5.72139
5.72764
5.73881
5.75351
5.76791
5.77826
5.78362
5.78564
5.7867
5.79001
5.79799
5.81093
5.8262
5.83937
5.84758
5.85066
5.85053
5.8507
5.85493
5.86557
5.88055
5.89402
5.90078
5.90044
5.89554
5.8913
5.89221
5.90048
5.91499
5.93066
5.94173
5.94635
5.94741
5.94884
5.95258
5.95722
5.96001
5.96049
5.96125
5.96511
5.97278
5.98241
5.98944
5.99129
5.98842
5.9844
5.98264
5.98452
5.98899
5.993
5.9954
5.99722
6.00021
6.00462
6.00844
6.00885
6.00463
5.99766
5.99158
5.9895
5.98994
1.40001
1.40001
1.40001
1.40001
1.40001
1.40001
1.40001
1.40001
1.40001
1.40001
1.40001
1.40001
1.40001
1.40001
1.40001
1.40001
1.40001
1.40001
1.40001
1.40001
1.40001
1.40001
1.40001
1.40001
1.40001
1.40001
1.40001
1.40001
1.40001
1.40001
1.40001
1.40001
1.40001
1.40001
1.40001
1.40001
1.40001
1.40001
1.40001
1.40001
1.40001
1.40001
1.40001
1.40001
1.40001
1.40001
1.40001
1.40001
1.40001
1.40001
1.40001
1.40001
1.40001
1.40001
1.40001
1.40001
1.40001
1.40001
1.40001
1.40001
1.40001
1.40001
1.40001
1.40001
1.40001
1.40001
1.40001
1.40001
1.40001
1.40001
1.40001
1.40001
1.40001
1.40001
1.40001
1.40001
1.40001
1.40001
1.40001
1.40001
1.40001
1.40001
1.40001
1.40001
1.40001
1.40001
1.40001
1.40001
1.40001
1.40001
1.40001
1.40001
1.40001
1.40001
1.40001
1.40001
1.40001
1.40001
1.91982
4.7933
5.41542
5.41912
5.43253
5.4431
5.45443
5.46576
5.47735
5.48878
5.50073
5.51382
5.52768
5.54065
5.55088
5.55786
5.56302
5.56905
5.57831
5.59153
5.60764
5.62363
5.63611
5.64391
5.64822
5.65137
5.65638
5.66547
5.67849
5.69301
5.70564
5.71427
5.71956
5.72405
5.73048
5.74052
5.7533
5.76589
5.77546
5.78106
5.78403
5.78653
5.79101
5.79968
5.81264
5.82687
5.83822
5.84469
5.8473
5.84816
5.85027
5.85631
5.86734
5.88108
5.89266
5.89842
5.89853
5.89517
5.89241
5.89375
5.90118
5.91428
5.92896
5.94013
5.94572
5.94763
5.94904
5.95192
5.95599
5.95919
5.96041
5.96183
5.96571
5.97244
5.98075
5.98751
5.99036
5.98879
5.98528
5.98309
5.98374
5.98697
5.99112
5.99468
5.99763
6.0009
6.00448
6.00719
6.00722
6.00358
5.99748
5.99167
5.98895
5.98864
1.40001
1.40001
1.40001
1.40001
1.40001
1.40001
1.40001
1.40001
1.40001
1.40001
1.40001
1.40001
1.40001
1.40001
1.40001
1.40001
1.40001
1.40001
1.40001
1.40001
1.40001
1.40001
1.40001
1.40001
1.40001
1.40001
1.40001
1.40001
1.40001
1.40001
1.40001
1.40001
1.40001
1.40001
1.40001
1.40001
1.40001
1.40001
1.40001
1.40001
1.40001
1.40001
1.40001
1.40001
1.40001
1.40001
1.40001
1.40001
1.40001
1.40001
1.40001
1.40001
1.40001
1.40001
1.40001
1.40001
1.40001
1.40001
1.40001
1.40001
1.40001
1.40001
1.40001
1.40001
1.40001
1.40001
1.40001
1.40001
1.40001
1.40001
1.40001
1.40001
1.40001
1.40001
1.40001
1.40001
1.40001
1.40001
1.40001
1.40001
1.40001
1.40001
1.40001
1.40001
1.40001
1.40001
1.40001
1.40001
1.40001
1.40001
1.40001
1.40001
1.40001
1.40001
1.40001
1.40001
1.40001
1.40001
1.9017
4.77894
5.41431
5.41843
5.43078
5.44169
5.45387
5.46627
5.47842
5.48978
5.50111
5.51348
5.52689
5.53977
5.55036
5.55805
5.56397
5.5702
5.57898
5.59139
5.60665
5.6222
5.6352
5.64422
5.64966
5.65341
5.65777
5.66523
5.67641
5.68929
5.70175
5.71237
5.72007
5.72622
5.73317
5.74237
5.75329
5.76381
5.77215
5.77782
5.782
5.78632
5.79234
5.80153
5.81393
5.82657
5.83582
5.84088
5.84381
5.84672
5.85141
5.8588
5.86884
5.88025
5.88963
5.89494
5.89635
5.89562
5.89498
5.89664
5.90236
5.91281
5.92575
5.93719
5.94455
5.94817
5.94992
5.95187
5.95466
5.9575
5.95966
5.96211
5.96631
5.97233
5.97926
5.98527
5.98879
5.98877
5.98604
5.98363
5.9831
5.98518
5.98938
5.99404
5.99814
6.00167
6.00445
6.00619
6.00583
6.00264
5.99743
5.99191
5.98855
5.98743
1.40001
1.40001
1.40001
1.40001
1.40001
1.40001
1.40001
1.40001
1.40001
1.40001
1.40001
1.40001
1.40001
1.40001
1.40001
1.40001
1.40001
1.40001
1.40001
1.40001
1.40001
1.40001
1.40001
1.40001
1.40001
1.40001
1.40001
1.40001
1.40001
1.40001
1.40001
1.40001
1.40001
1.40001
1.40001
1.40001
1.40001
1.40001
1.40001
1.40001
1.40001
1.40001
1.40001
1.40001
1.40001
1.40001
1.40001
1.40001
1.40001
1.40001
1.40001
1.40001
1.40001
1.40001
1.40001
1.40001
1.40001
1.40001
1.40001
1.40001
1.40001
1.40001
1.40001
1.40001
1.40001
1.40001
1.40001
1.40001
1.40001
1.40001
1.40001
1.40001
1.40001
1.40001
1.40001
1.40001
1.40001
1.40001
1.40001
1.40001
1.40001
1.40001
1.40001
1.40001
1.40001
1.40001
1.40001
1.40001
1.40001
1.40001
1.40001
1.40001
1.40001
1.40001
1.40001
1.40001
1.40001
1.40001
1.87842
4.75766
5.41402
5.41783
5.43014
5.44145
5.45413
5.46683
5.479
5.49008
5.5008
5.51253
5.52561
5.53839
5.54933
5.55783
5.56471
5.57164
5.58043
5.59229
5.60666
5.62115
5.63353
5.64278
5.6492
5.65406
5.65907
5.66626
5.67644
5.68783
5.69842
5.70905
5.7186
5.72676
5.73491
5.74414
5.7539
5.76264
5.76934
5.77449
5.77976
5.78601
5.79355
5.80302
5.81452
5.82535
5.83279
5.83709
5.84116
5.84655
5.85368
5.86142
5.86947
5.87803
5.88521
5.89035
5.89396
5.89674
5.89879
5.90061
5.904
5.91094
5.92136
5.93297
5.94264
5.94876
5.95147
5.95244
5.95334
5.95504
5.95783
5.96176
5.96689
5.97271
5.9784
5.98313
5.98659
5.98778
5.98624
5.98402
5.98278
5.98379
5.98765
5.99298
5.99809
6.00194
6.00422
6.00514
6.00431
6.00135
5.9968
5.99156
5.98771
5.98585
1.40001
1.40001
1.40001
1.40001
1.40001
1.40001
1.40001
1.40001
1.40001
1.40001
1.40001
1.40001
1.40001
1.40001
1.40001
1.40001
1.40001
1.40001
1.40001
1.40001
1.40001
1.40001
1.40001
1.40001
1.40001
1.40001
1.40001
1.40001
1.40001
1.40001
1.40001
1.40001
1.40001
1.40001
1.40001
1.40001
1.40001
1.40001
1.40001
1.40001
1.40001
1.40001
1.40001
1.40001
1.40001
1.40001
1.40001
1.40001
1.40001
1.40001
1.40001
1.40001
1.40001
1.40001
1.40001
1.40001
1.40001
1.40001
1.40001
1.40001
1.40001
1.40001
1.40001
1.40001
1.40001
1.40001
1.40001
1.40001
1.40001
1.40001
1.40001
1.40001
1.40001
1.40001
1.40001
1.40001
1.40001
1.40001
1.40001
1.40001
1.40001
1.40001
1.40001
1.40001
1.40001
1.40001
1.40001
1.40001
1.40001
1.40001
1.40001
1.40001
1.40001
1.40001
1.40001
1.40001
1.40001
1.40001
1.84982
4.72965
5.4136
5.41781
5.43037
5.44184
5.45452
5.46703
5.47893
5.4897
5.50005
5.51156
5.52445
5.53702
5.548
5.55704
5.56474
5.57248
5.58179
5.59357
5.60721
5.62059
5.63168
5.64003
5.64692
5.65317
5.65975
5.66795
5.67796
5.68829
5.69699
5.70565
5.7154
5.72519
5.73516
5.74529
5.7548
5.76234
5.76756
5.77185
5.7777
5.78534
5.794
5.80354
5.814
5.82314
5.82937
5.83381
5.83969
5.84762
5.85631
5.86323
5.86892
5.87479
5.88004
5.88532
5.89154
5.89829
5.903
5.90451
5.90545
5.90895
5.91651
5.92796
5.94006
5.94909
5.95319
5.95331
5.95235
5.95251
5.95525
5.9607
5.96728
5.97345
5.97821
5.98149
5.98395
5.98565
5.98559
5.984
5.98267
5.98291
5.98613
5.99159
5.99734
6.00163
6.0038
6.00421
6.00295
6.00001
5.99577
5.99074
5.98668
5.98438
1.40001
1.40001
1.40001
1.40001
1.40001
1.40001
1.40001
1.40001
1.40001
1.40001
1.40001
1.40001
1.40001
1.40001
1.40001
1.40001
1.40001
1.40001
1.40001
1.40001
1.40001
1.40001
1.40001
1.40001
1.40001
1.40001
1.40001
1.40001
1.40001
1.40001
1.40001
1.40001
1.40001
1.40001
1.40001
1.40001
1.40001
1.40001
1.40001
1.40001
1.40001
1.40001
1.40001
1.40001
1.40001
1.40001
1.40001
1.40001
1.40001
1.40001
1.40001
1.40001
1.40001
1.40001
1.40001
1.40001
1.40001
1.40001
1.40001
1.40001
1.40001
1.40001
1.40001
1.40001
1.40001
1.40001
1.40001
1.40001
1.40001
1.40001
1.40001
1.40001
1.40001
1.40001
1.40001
1.40001
1.40001
1.40001
1.40001
1.40001
1.40001
1.40001
1.40001
1.40001
1.40001
1.40001
1.40001
1.40001
1.40001
1.40001
1.40001
1.40001
1.40001
1.40001
1.40001
1.40001
1.40001
1.40001
1.81594
4.69503
5.41223
5.41765
5.43061
5.44243
5.45502
5.46716
5.47862
5.48909
5.49929
5.51066
5.52322
5.53539
5.54618
5.55555
5.56406
5.57265
5.5826
5.59463
5.60798
5.62059
5.63047
5.63749
5.64384
5.65115
5.65942
5.66932
5.68024
5.68999
5.69712
5.70312
5.71143
5.72168
5.73331
5.7451
5.75536
5.76256
5.76694
5.77058
5.77633
5.7842
5.79323
5.80278
5.81251
5.82064
5.82656
5.83166
5.83909
5.84863
5.85769
5.86365
5.86755
5.87161
5.87549
5.88112
5.88978
5.89981
5.90633
5.90737
5.90653
5.90704
5.91232
5.92316
5.93709
5.94868
5.95417
5.95382
5.95134
5.9501
5.95256
5.95918
5.96733
5.97398
5.97797
5.97981
5.98102
5.98306
5.98426
5.98354
5.98258
5.98236
5.98485
5.99006
5.99597
6.00077
6.00317
6.00334
6.00169
5.99851
5.99421
5.98932
5.98535
5.98297
1.40001
1.40001
1.40001
1.40001
1.40001
1.40001
1.40001
1.40001
1.40001
1.40001
1.40001
1.40001
1.40001
1.40001
1.40001
1.40001
1.40001
1.40001
1.40001
1.40001
1.40001
1.40001
1.40001
1.40001
1.40001
1.40001
1.40001
1.40001
1.40001
1.40001
1.40001
1.40001
1.40001
1.40001
1.40001
1.40001
1.40001
1.40001
1.40001
1.40001
1.40001
1.40001
1.40001
1.40001
1.40001
1.40001
1.40001
1.40001
1.40001
1.40001
1.40001
1.40001
1.40001
1.40001
1.40001
1.40001
1.40001
1.40001
1.40001
1.40001
1.40001
1.40001
1.40001
1.40001
1.40001
1.40001
1.40001
1.40001
1.40001
1.40001
1.40001
1.40001
1.40001
1.40001
1.40001
1.40001
1.40001
1.40001
1.40001
1.40001
1.40001
1.40001
1.40001
1.40001
1.40001
1.40001
1.40001
1.40001
1.40001
1.40001
1.40001
1.40001
1.40001
1.40001
1.40001
1.40001
1.40001
1.40001
1.77727
4.65321
5.41045
5.41774
5.43111
5.44323
5.45547
5.467
5.47789
5.48814
5.49833
5.50964
5.52208
5.5342
5.54499
5.55434
5.56296
5.57197
5.58238
5.59473
5.60813
5.62046
5.62981
5.63596
5.64124
5.6488
5.65846
5.66997
5.68198
5.69199
5.69823
5.70236
5.70855
5.71803
5.73024
5.74346
5.7551
5.7631
5.76743
5.7705
5.77551
5.78261
5.79126
5.80064
5.81019
5.81842
5.82505
5.83071
5.8384
5.84794
5.85673
5.86211
5.86528
5.86892
5.87274
5.87908
5.88914
5.90049
5.90771
5.90853
5.90645
5.90519
5.90946
5.91978
5.93429
5.94716
5.95356
5.95314
5.95001
5.94813
5.95071
5.95817
5.96721
5.97391
5.9771
5.97787
5.97833
5.98044
5.98252
5.98282
5.98232
5.98179
5.9836
5.98839
5.99429
5.99952
6.00234
6.00243
6.00036
5.99678
5.99221
5.98742
5.98378
5.98159
1.40001
1.40001
1.40001
1.40001
1.40001
1.40001
1.40001
1.40001
1.40001
1.40001
1.40001
1.40001
1.40001
1.40001
1.40001
1.40001
1.40001
1.40001
1.40001
1.40001
1.40001
1.40001
1.40001
1.40001
1.40001
1.40001
1.40001
1.40001
1.40001
1.40001
1.40001
1.40001
1.40001
1.40001
1.40001
1.40001
1.40001
1.40001
1.40001
1.40001
1.40001
1.40001
1.40001
1.40001
1.40001
1.40001
1.40001
1.40001
1.40001
1.40001
1.40001
1.40001
1.40001
1.40001
1.40001
1.40001
1.40001
1.40001
1.40001
1.40001
1.40001
1.40001
1.40001
1.40001
1.40001
1.40001
1.40001
1.40001
1.40001
1.40001
1.40001
1.40001
1.40001
1.40001
1.40001
1.40001
1.40001
1.40001
1.40001
1.40001
1.40001
1.40001
1.40001
1.40001
1.40001
1.40001
1.40001
1.40001
1.40001
1.40001
1.40001
1.40001
1.40001
1.40001
1.40001
1.40001
1.40001
1.40001
1.73459
4.6038
5.40861
5.4178
5.43121
5.44355
5.45552
5.46663
5.47701
5.48701
5.49726
5.50864
5.52109
5.53344
5.5446
5.55407
5.56241
5.5711
5.58151
5.59404
5.6077
5.62029
5.62984
5.6359
5.64026
5.64665
5.65622
5.66849
5.68169
5.69273
5.69939
5.70268
5.70701
5.71479
5.7266
5.74061
5.75387
5.76347
5.76871
5.77155
5.77534
5.78078
5.7882
5.79729
5.8074
5.81687
5.82475
5.83075
5.83732
5.8453
5.85298
5.8583
5.86262
5.86758
5.87274
5.87992
5.88948
5.89958
5.90606
5.90688
5.90512
5.90425
5.90851
5.91852
5.93215
5.94425
5.95059
5.95057
5.94804
5.94693
5.95015
5.95791
5.96656
5.97258
5.97503
5.97536
5.9758
5.97817
5.9809
5.98184
5.98151
5.9808
5.98217
5.98668
5.9926
5.99815
6.00128
6.00125
5.99874
5.99472
5.98991
5.98529
5.98203
5.98013
1.40001
1.40001
1.40001
1.40001
1.40001
1.40001
1.40001
1.40001
1.40001
1.40001
1.40001
1.40001
1.40001
1.40001
1.40001
1.40001
1.40001
1.40001
1.40001
1.40001
1.40001
1.40001
1.40001
1.40001
1.40001
1.40001
1.40001
1.40001
1.40001
1.40001
1.40001
1.40001
1.40001
1.40001
1.40001
1.40001
1.40001
1.40001
1.40001
1.40001
1.40001
1.40001
1.40001
1.40001
1.40001
1.40001
1.40001
1.40001
1.40001
1.40001
1.40001
1.40001
1.40001
1.40001
1.40001
1.40001
1.40001
1.40001
1.40001
1.40001
1.40001
1.40001
1.40001
1.40001
1.40001
1.40001
1.40001
1.40001
1.40001
1.40001
1.40001
1.40001
1.40001
1.40001
1.40001
1.40001
1.40001
1.40001
1.40001
1.40001
1.40001
1.40001
1.40001
1.40001
1.40001
1.40001
1.40001
1.40001
1.40001
1.40001
1.40001
1.40001
1.40001
1.40001
1.40001
1.40001
1.40001
1.40001
1.68989
4.54594
5.40618
5.41761
5.43084
5.44368
5.45578
5.46667
5.47648
5.48592
5.49585
5.50713
5.5198
5.53272
5.54454
5.55437
5.56237
5.57009
5.57965
5.59194
5.60611
5.61969
5.63019
5.63666
5.64048
5.64548
5.65399
5.66613
5.68027
5.69265
5.70037
5.70373
5.70679
5.71268
5.72326
5.73726
5.75185
5.76332
5.76989
5.77295
5.77539
5.77868
5.78432
5.79318
5.8044
5.81571
5.82497
5.83115
5.83613
5.8416
5.84724
5.85282
5.85957
5.86732
5.87481
5.8827
5.8906
5.89778
5.90231
5.90296
5.90253
5.90387
5.90913
5.91893
5.93081
5.94069
5.94583
5.94645
5.94557
5.94654
5.95115
5.95856
5.96554
5.96989
5.97162
5.97216
5.97341
5.97659
5.97967
5.98056
5.97997
5.97908
5.98044
5.98504
5.99119
5.99687
5.99988
5.99951
5.99663
5.99235
5.9875
5.98313
5.98017
5.9785
1.40001
1.40001
1.40001
1.40001
1.40001
1.40001
1.40001
1.40001
1.40001
1.40001
1.40001
1.40001
1.40001
1.40001
1.40001
1.40001
1.40001
1.40001
1.40001
1.40001
1.40001
1.40001
1.40001
1.40001
1.40001
1.40001
1.40001
1.40001
1.40001
1.40001
1.40001
1.40001
1.40001
1.40001
1.40001
1.40001
1.40001
1.40001
1.40001
1.40001
1.40001
1.40001
1.40001
1.40001
1.40001
1.40001
1.40001
1.40001
1.40001
1.40001
1.40001
1.40001
1.40001
1.40001
1.40001
1.40001
1.40001
1.40001
1.40001
1.40001
1.40001
1.40001
1.40001
1.40001
1.40001
1.40001
1.40001
1.40001
1.40001
1.40001
1.40001
1.40001
1.40001
1.40001
1.40001
1.40001
1.40001
1.40001
1.40001
1.40001
1.40001
1.40001
1.40001
1.40001
1.40001
1.40001
1.40001
1.40001
1.40001
1.40001
1.40001
1.40001
1.40001
1.40001
1.40001
1.40001
1.40001
1.40001
1.64504
4.4793
5.40299
5.41701
5.42988
5.44374
5.4564
5.46734
5.47672
5.4855
5.49471
5.50567
5.51857
5.53204
5.54446
5.5547
5.56266
5.5697
5.57816
5.58969
5.604
5.61863
5.63045
5.63787
5.64163
5.64531
5.65198
5.66291
5.67721
5.69111
5.70056
5.7051
5.70772
5.71205
5.72096
5.73409
5.74906
5.76208
5.77016
5.77366
5.77499
5.77643
5.78057
5.78919
5.80142
5.81455
5.82507
5.83126
5.83471
5.83766
5.84128
5.84726
5.85624
5.86692
5.87718
5.88578
5.89176
5.89549
5.89732
5.89776
5.89914
5.903
5.91025
5.92001
5.92971
5.93661
5.94
5.94143
5.94312
5.94694
5.95313
5.95954
5.96404
5.96614
5.96713
5.96842
5.97122
5.97559
5.97866
5.97887
5.97767
5.97669
5.97854
5.98368
5.99022
5.99566
5.99802
5.99704
5.99389
5.98964
5.98506
5.98103
5.97817
5.97659
1.40001
1.40001
1.40001
1.40001
1.40001
1.40001
1.40001
1.40001
1.40001
1.40001
1.40001
1.40001
1.40001
1.40001
1.40001
1.40001
1.40001
1.40001
1.40001
1.40001
1.40001
1.40001
1.40001
1.40001
1.40001
1.40001
1.40001
1.40001
1.40001
1.40001
1.40001
1.40001
1.40001
1.40001
1.40001
1.40001
1.40001
1.40001
1.40001
1.40001
1.40001
1.40001
1.40001
1.40001
1.40001
1.40001
1.40001
1.40001
1.40001
1.40001
1.40001
1.40001
1.40001
1.40001
1.40001
1.40001
1.40001
1.40001
1.40001
1.40001
1.40001
1.40001
1.40001
1.40001
1.40001
1.40001
1.40001
1.40001
1.40001
1.40001
1.40001
1.40001
1.40001
1.40001
1.40001
1.40001
1.40001
1.40001
1.40001
1.40001
1.40001
1.40001
1.40001
1.40001
1.40001
1.40001
1.40001
1.40001
1.40001
1.40001
1.40001
1.40001
1.40001
1.40001
1.40001
1.40001
1.40001
1.40001
1.59909
4.40488
5.40182
5.41687
5.42925
5.44361
5.45688
5.46804
5.47724
5.4855
5.49402
5.50438
5.5171
5.53093
5.54403
5.55486
5.563
5.56962
5.57706
5.58753
5.60146
5.61672
5.62983
5.63847
5.64277
5.64555
5.65044
5.65965
5.67332
5.68807
5.6995
5.70582
5.70902
5.71253
5.72002
5.73194
5.74633
5.7596
5.76867
5.77277
5.77376
5.77451
5.77802
5.78625
5.79865
5.81259
5.8238
5.83003
5.83263
5.83414
5.83665
5.84305
5.85368
5.86682
5.87887
5.88753
5.89201
5.89317
5.89278
5.89286
5.89563
5.90191
5.91091
5.9205
5.92816
5.93254
5.93452
5.93667
5.94101
5.94764
5.9548
5.95989
5.96181
5.96187
5.96221
5.96454
5.96924
5.97464
5.9774
5.97661
5.97471
5.97391
5.97663
5.98271
5.98958
5.99431
5.99556
5.9938
5.99053
5.98666
5.98265
5.97899
5.97607
5.97442
1.40001
1.40001
1.40001
1.40001
1.40001
1.40001
1.40001
1.40001
1.40001
1.40001
1.40001
1.40001
1.40001
1.40001
1.40001
1.40001
1.40001
1.40001
1.40001
1.40001
1.40001
1.40001
1.40001
1.40001
1.40001
1.40001
1.40001
1.40001
1.40001
1.40001
1.40001
1.40001
1.40001
1.40001
1.40001
1.40001
1.40001
1.40001
1.40001
1.40001
1.40001
1.40001
1.40001
1.40001
1.40001
1.40001
1.40001
1.40001
1.40001
1.40001
1.40001
1.40001
1.40001
1.40001
1.40001
1.40001
1.40001
1.40001
1.40001
1.40001
1.40001
1.40001
1.40001
1.40001
1.40001
1.40001
1.40001
1.40001
1.40001
1.40001
1.40001
1.40001
1.40001
1.40001
1.40001
1.40001
1.40001
1.40001
1.40001
1.40001
1.40001
1.40001
1.40001
1.40001
1.40001
1.40001
1.40001
1.40001
1.40001
1.40001
1.40001
1.40001
1.40001
1.40001
1.40001
1.40001
1.40001
1.40001
1.55113
4.3246
5.40552
5.41676
5.42849
5.44249
5.45606
5.46779
5.47742
5.4856
5.49376
5.50352
5.51554
5.52905
5.54248
5.55407
5.56289
5.56963
5.57671
5.58655
5.59991
5.61508
5.62889
5.63855
5.64353
5.64605
5.64978
5.65752
5.67005
5.68446
5.69678
5.70486
5.70932
5.7129
5.71945
5.7301
5.74336
5.75607
5.76544
5.77026
5.7718
5.77299
5.77674
5.78474
5.79652
5.8099
5.82079
5.82701
5.82967
5.83113
5.83393
5.8412
5.85243
5.86603
5.87833
5.88669
5.8903
5.89043
5.8894
5.88954
5.89297
5.90029
5.90993
5.91916
5.92551
5.92865
5.93031
5.93326
5.93941
5.94778
5.95513
5.95881
5.95887
5.95783
5.95786
5.96109
5.96727
5.97308
5.97521
5.97363
5.97144
5.97121
5.97497
5.9821
5.98899
5.99255
5.99242
5.98996
5.98672
5.9835
5.98022
5.97692
5.97383
5.97211
1.40001
1.40001
1.40001
1.40001
1.40001
1.40001
1.40001
1.40001
1.40001
1.40001
1.40001
1.40001
1.40001
1.40001
1.40001
1.40001
1.40001
1.40001
1.40001
1.40001
1.40001
1.40001
1.40001
1.40001
1.40001
1.40001
1.40001
1.40001
1.40001
1.40001
1.40001
1.40001
1.40001
1.40001
1.40001
1.40001
1.40001
1.40001
1.40001
1.40001
1.40001
1.40001
1.40001
1.40001
1.40001
1.40001
1.40001
1.40001
1.40001
1.40001
1.40001
1.40001
1.40001
1.40001
1.40001
1.40001
1.40001
1.40001
1.40001
1.40001
1.40001
1.40001
1.40001
1.40001
1.40001
1.40001
1.40001
1.40001
1.40001
1.40001
1.40001
1.40001
1.40001
1.40001
1.40001
1.40001
1.40001
1.40001
1.40001
1.40001
1.40001
1.40001
1.40001
1.40001
1.40001
1.40001
1.40001
1.40001
1.40001
1.40001
1.40001
1.40001
1.40001
1.40001
1.40001
1.40001
1.40001
1.40001
1.4989
4.23784
5.40886
5.41525
5.4264
5.44073
5.45522
5.46821
5.47867
5.48696
5.49466
5.50354
5.51426
5.52656
5.53917
5.55067
5.56021
5.56805
5.57573
5.58538
5.59786
5.61207
5.62557
5.63577
5.64181
5.64505
5.64841
5.65501
5.66643
5.68067
5.6938
5.70344
5.70932
5.71327
5.71912
5.72848
5.74035
5.75204
5.76133
5.76695
5.76983
5.7724
5.77696
5.78484
5.79542
5.80687
5.816
5.82156
5.82502
5.82822
5.83306
5.84159
5.85247
5.8644
5.87517
5.88275
5.8864
5.88726
5.88727
5.88845
5.8921
5.89844
5.90691
5.91526
5.92133
5.92485
5.92754
5.93173
5.93843
5.94667
5.95329
5.95591
5.95546
5.95429
5.9546
5.95841
5.96495
5.97028
5.97174
5.9701
5.9682
5.9689
5.97391
5.9816
5.98788
5.99012
5.98883
5.98577
5.98269
5.98018
5.97766
5.97466
5.97143
5.96976
1.40001
1.40001
1.40001
1.40001
1.40001
1.40001
1.40001
1.40001
1.40001
1.40001
1.40001
1.40001
1.40001
1.40001
1.40001
1.40001
1.40001
1.40001
1.40001
1.40001
1.40001
1.40001
1.40001
1.40001
1.40001
1.40001
1.40001
1.40001
1.40001
1.40001
1.40001
1.40001
1.40001
1.40001
1.40001
1.40001
1.40001
1.40001
1.40001
1.40001
1.40001
1.40001
1.40001
1.40001
1.40001
1.40001
1.40001
1.40001
1.40001
1.40001
1.40001
1.40001
1.40001
1.40001
1.40001
1.40001
1.40001
1.40001
1.40001
1.40001
1.40001
1.40001
1.40001
1.40001
1.40001
1.40001
1.40001
1.40001
1.40001
1.40001
1.40001
1.40001
1.40001
1.40001
1.40001
1.40001
1.40001
1.40001
1.40001
1.40001
1.40001
1.40001
1.40001
1.40001
1.40001
1.40001
1.40001
1.40001
1.40001
1.40001
1.40001
1.40001
1.40001
1.40001
1.40001
1.40001
1.40001
1.40001
1.43577
4.14095
5.4039
5.41095
5.42263
5.43691
5.45138
5.46475
5.47587
5.48489
5.49311
5.50195
5.51212
5.52363
5.53561
5.54702
5.55728
5.56657
5.57546
5.58537
5.59739
5.61091
5.62391
5.63402
5.64058
5.64434
5.64752
5.65322
5.66359
5.67748
5.69104
5.70171
5.70876
5.71337
5.71878
5.72676
5.73691
5.74719
5.75599
5.76221
5.76667
5.7711
5.77677
5.78469
5.79427
5.80385
5.81107
5.81565
5.81984
5.82559
5.83311
5.84311
5.85361
5.86353
5.87146
5.87688
5.88045
5.8833
5.88598
5.88904
5.89262
5.89707
5.9028
5.90928
5.91554
5.92095
5.92605
5.93174
5.93822
5.94475
5.94952
5.95155
5.95175
5.95156
5.95275
5.95659
5.96195
5.96589
5.96691
5.96609
5.96538
5.96746
5.97347
5.98099
5.98589
5.98682
5.9849
5.98153
5.97861
5.97666
5.97474
5.972
5.96879
5.9674
1.40001
1.40001
1.40001
1.40001
1.40001
1.40001
1.40001
1.40001
1.40001
1.40001
1.40001
1.40001
1.40001
1.40001
1.40001
1.40001
1.40001
1.40001
1.40001
1.40001
1.40001
1.40001
1.40001
1.40001
1.40001
1.40001
1.40001
1.40001
1.40001
1.40001
1.40001
1.40001
1.40001
1.40001
1.40001
1.40001
1.40001
1.40001
1.40001
1.40001
1.40001
1.40001
1.40001
1.40001
1.40001
1.40001
1.40001
1.40001
1.40001
1.40001
1.40001
1.40001
1.40001
1.40001
1.40001
1.40001
1.40001
1.40001
1.40001
1.40001
1.40001
1.40001
1.40001
1.40001
1.40001
1.40001
1.40001
1.40001
1.40001
1.40001
1.40001
1.40001
1.40001
1.40001
1.40001
1.40001
1.40001
1.40001
1.40001
1.40001
1.40001
1.40001
1.40001
1.40001
1.40001
1.40001
1.40001
1.40001
1.40001
1.40001
1.40001
1.40001
1.40001
1.40001
1.40001
1.40001
1.40001
1.40001
1.40177
4.02088
5.38925
5.40653
5.41914
5.43434
5.44927
5.4628
5.47419
5.48348
5.49172
5.50015
5.50962
5.5202
5.53132
5.54234
5.55293
5.56317
5.57338
5.58413
5.59617
5.60912
5.62155
5.6313
5.63785
5.64172
5.64485
5.65013
5.65988
5.67355
5.6877
5.6995
5.70767
5.71294
5.71794
5.72471
5.73346
5.74276
5.75129
5.75801
5.76355
5.76921
5.77583
5.78396
5.79299
5.80137
5.80725
5.81097
5.81511
5.82248
5.83241
5.84396
5.85435
5.86234
5.86739
5.87033
5.87345
5.87857
5.88489
5.89027
5.89371
5.89595
5.89852
5.9026
5.90892
5.91708
5.92548
5.9325
5.93783
5.94149
5.94394
5.94594
5.94787
5.94987
5.95218
5.95506
5.95789
5.95984
5.96094
5.96167
5.96317
5.96718
5.97344
5.97963
5.98278
5.98278
5.98068
5.97741
5.97466
5.97293
5.9713
5.96881
5.96594
5.96509
1.40001
1.40001
1.40001
1.40001
1.40001
1.40001
1.40001
1.40001
1.40001
1.40001
1.40001
1.40001
1.40001
1.40001
1.40001
1.40001
1.40001
1.40001
1.40001
1.40001
1.40001
1.40001
1.40001
1.40001
1.40001
1.40001
1.40001
1.40001
1.40001
1.40001
1.40001
1.40001
1.40001
1.40001
1.40001
1.40001
1.40001
1.40001
1.40001
1.40001
1.40001
1.40001
1.40001
1.40001
1.40001
1.40001
1.40001
1.40001
1.40001
1.40001
1.40001
1.40001
1.40001
1.40001
1.40001
1.40001
1.40001
1.40001
1.40001
1.40001
1.40001
1.40001
1.40001
1.40001
1.40001
1.40001
1.40001
1.40001
1.40001
1.40001
1.40001
1.40001
1.40001
1.40001
1.40001
1.40001
1.40001
1.40001
1.40001
1.40001
1.40001
1.40001
1.40001
1.40001
1.40001
1.40001
1.40001
1.40001
1.40001
1.40001
1.40001
1.40001
1.40001
1.40001
1.40001
1.40001
1.40001
1.40001
1.40002
3.86646
5.37003
5.40345
5.4158
5.43175
5.44677
5.46042
5.47202
5.48161
5.48981
5.49768
5.50636
5.51607
5.52658
5.53746
5.54853
5.55976
5.57111
5.58277
5.59507
5.60786
5.62005
5.62947
5.63568
5.63921
5.64204
5.64688
5.656
5.66958
5.68439
5.69719
5.70633
5.71205
5.71656
5.72225
5.73001
5.73884
5.74744
5.75457
5.76045
5.76603
5.77273
5.78123
5.79052
5.79885
5.80459
5.80828
5.81207
5.81937
5.83027
5.84288
5.85355
5.86053
5.8638
5.86492
5.86727
5.8736
5.88285
5.8906
5.8942
5.89445
5.89424
5.89634
5.90253
5.91317
5.9246
5.93288
5.93663
5.93742
5.93792
5.94008
5.94436
5.94904
5.95205
5.95303
5.95279
5.95279
5.95423
5.95727
5.96194
5.96774
5.97333
5.97718
5.97861
5.97814
5.97635
5.97357
5.97093
5.969
5.96728
5.9651
5.96291
5.96283
1.40001
1.40001
1.40001
1.40001
1.40001
1.40001
1.40001
1.40001
1.40001
1.40001
1.40001
1.40001
1.40001
1.40001
1.40001
1.40001
1.40001
1.40001
1.40001
1.40001
1.40001
1.40001
1.40001
1.40001
1.40001
1.40001
1.40001
1.40001
1.40001
1.40001
1.40001
1.40001
1.40001
1.40001
1.40001
1.40001
1.40001
1.40001
1.40001
1.40001
1.40001
1.40001
1.40001
1.40001
1.40001
1.40001
1.40001
1.40001
1.40001
1.40001
1.40001
1.40001
1.40001
1.40001
1.40001
1.40001
1.40001
1.40001
1.40001
1.40001
1.40001
1.40001
1.40001
1.40001
1.40001
1.40001
1.40001
1.40001
1.40001
1.40001
1.40001
1.40001
1.40001
1.40001
1.40001
1.40001
1.40001
1.40001
1.40001
1.40001
1.40001
1.40001
1.40001
1.40001
1.40001
1.40001
1.40001
1.40001
1.40001
1.40001
1.40001
1.40001
1.40001
1.40001
1.40001
1.40001
1.40001
1.40001
1.40001
3.69911
5.35068
5.40113
5.4137
5.4307
5.44573
5.45918
5.4704
5.47969
5.48759
5.49504
5.50299
5.51207
5.52227
5.53316
5.54455
5.55632
5.56843
5.58097
5.59376
5.60664
5.61863
5.62755
5.63315
5.63627
5.6388
5.64338
5.65212
5.66564
5.681
5.69457
5.70446
5.71051
5.71465
5.71946
5.72654
5.73525
5.74431
5.75209
5.75806
5.76272
5.76838
5.77681
5.78695
5.7964
5.80322
5.8076
5.81118
5.81717
5.82695
5.83921
5.85014
5.8574
5.8606
5.86133
5.86324
5.86945
5.87952
5.88861
5.89288
5.8922
5.89051
5.89142
5.89735
5.90933
5.92266
5.93158
5.93403
5.933
5.9323
5.93486
5.94138
5.9481
5.95113
5.9498
5.9468
5.94534
5.94756
5.95348
5.96151
5.96848
5.97244
5.9737
5.97366
5.973
5.97198
5.96998
5.96739
5.96489
5.96272
5.9609
5.95966
5.96047
1.40001
1.40001
1.40001
1.40001
1.40001
1.40001
1.40001
1.40001
1.40001
1.40001
1.40001
1.40001
1.40001
1.40001
1.40001
1.40001
1.40001
1.40001
1.40001
1.40001
1.40001
1.40001
1.40001
1.40001
1.40001
1.40001
1.40001
1.40001
1.40001
1.40001
1.40001
1.40001
1.40001
1.40001
1.40001
1.40001
1.40001
1.40001
1.40001
1.40001
1.40001
1.40001
1.40001
1.40001
1.40001
1.40001
1.40001
1.40001
1.40001
1.40001
1.40001
1.40001
1.40001
1.40001
1.40001
1.40001
1.40001
1.40001
1.40001
1.40001
1.40001
1.40001
1.40001
1.40001
1.40001
1.40001
1.40001
1.40001
1.40001
1.40001
1.40001
1.40001
1.40001
1.40001
1.40001
1.40001
1.40001
1.40001
1.40001
1.40001
1.40001
1.40001
1.40001
1.40001
1.40001
1.40001
1.40001
1.40001
1.40001
1.40001
1.40001
1.40001
1.40001
1.40001
1.40001
1.40001
1.40001
1.40001
1.40001
3.5206
5.32721
5.4003
5.41307
5.431
5.44631
5.45956
5.4701
5.47854
5.48587
5.49268
5.50005
5.50874
5.51873
5.52965
5.54121
5.55324
5.56575
5.57896
5.59232
5.60529
5.61694
5.6253
5.63028
5.63309
5.63542
5.63991
5.64844
5.66179
5.67745
5.6916
5.7021
5.70853
5.71252
5.71655
5.72281
5.73134
5.74112
5.74978
5.75589
5.75979
5.76404
5.77152
5.78225
5.79347
5.80239
5.80808
5.81168
5.81592
5.82319
5.8335
5.84413
5.8526
5.85733
5.85916
5.86128
5.8666
5.87558
5.88453
5.88938
5.88906
5.88743
5.88806
5.89377
5.90575
5.91934
5.9281
5.9299
5.92833
5.92748
5.93089
5.93905
5.94646
5.94856
5.94525
5.94029
5.93815
5.94161
5.95062
5.96139
5.96852
5.97047
5.9696
5.96825
5.96765
5.96762
5.96647
5.96389
5.96062
5.95775
5.95626
5.95615
5.9579
1.40001
1.40001
1.40001
1.40001
1.40001
1.40001
1.40001
1.40001
1.40001
1.40001
1.40001
1.40001
1.40001
1.40001
1.40001
1.40001
1.40001
1.40001
1.40001
1.40001
1.40001
1.40001
1.40001
1.40001
1.40001
1.40001
1.40001
1.40001
1.40001
1.40001
1.40001
1.40001
1.40001
1.40001
1.40001
1.40001
1.40001
1.40001
1.40001
1.40001
1.40001
1.40001
1.40001