/*--------------------------------*- C++ -*----------------------------------*\
  =========                 |
  \\      /  F ield         | OpenFOAM: The Open Source CFD Toolbox
   \\    /   O peration     | Website:  https://openfoam.org
    \\  /    A nd           | Version:  7
     \\/     M anipulation  |
\*---------------------------------------------------------------------------*/
FoamFile
{
    version     2.0;
    format      ascii;
    class       volScalarField;
    location    "3";
    object      T;
}
// * * * * * * * * * * * * * * * * * * * * * * * * * * * * * * * * * * * * * //

dimensions      [0 0 0 1 0 0 0];

internalField   nonuniform List<scalar> 
258048
(
1
1
1
1
1
1
1
1
1
1
1
1
1
1
1
1
1
1
1
1
1
1
1
1
1
1
1
1
1
1
1
1
1
1
1
1
1
1
1
1
1
1
1
1
1
1
1
1
1
1
1
1
1
1
1
1
1
1
1
1
1
1
1
1
1
1
1
1
1
1
1
1
1
1
1
1
1
1
1
1
1
1
1
1
1
1
1
1
1
1
1
1
1
1
1
1
1
1
1.43337
2.52506
2.68573
2.68485
2.68986
2.69448
2.69869
2.7013
2.70251
2.70309
2.70377
2.70499
2.70697
2.7097
2.71291
2.71602
2.71851
2.72028
2.72166
2.72311
2.7248
2.72658
2.72826
2.72985
2.73146
2.73327
2.73554
2.73821
2.74103
2.74345
2.74502
2.74588
2.74644
2.74726
2.74885
2.75132
2.75434
2.75717
2.75916
2.76005
2.76005
2.75972
2.75957
2.76016
2.76195
2.7647
2.7675
2.76976
2.77118
2.77169
2.77204
2.77304
2.77515
2.77817
2.78092
2.78222
2.78196
2.7807
2.77963
2.77981
2.7817
2.78498
2.78847
2.79097
2.79206
2.79236
2.79278
2.7938
2.79498
2.79573
2.7961
2.79666
2.79803
2.80009
2.8024
2.80418
2.80476
2.80422
2.80355
2.80329
2.80353
2.80399
2.80431
2.80437
2.80442
2.80511
2.80684
2.80932
2.81158
2.81346
2.81543
2.81722
2.81869
2.81944
1
1
1
1
1
1
1
1
1
1
1
1
1
1
1
1
1
1
1
1
1
1
1
1
1
1
1
1
1
1
1
1
1
1
1
1
1
1
1
1
1
1
1
1
1
1
1
1
1
1
1
1
1
1
1
1
1
1
1
1
1
1
1
1
1
1
1
1
1
1
1
1
1
1
1
1
1
1
1
1
1
1
1
1
1
1
1
1
1
1
1
1
1
1
1
1
1
1
1.42913
2.52365
2.68365
2.68588
2.69082
2.69496
2.69878
2.7013
2.70253
2.70312
2.70376
2.70491
2.70689
2.70969
2.71298
2.71615
2.71864
2.72034
2.7216
2.72295
2.72463
2.72651
2.72837
2.73018
2.73193
2.73366
2.7356
2.73786
2.74041
2.74283
2.74467
2.74589
2.74677
2.74771
2.7492
2.75141
2.75413
2.75677
2.75873
2.75976
2.75994
2.75976
2.75976
2.76043
2.7622
2.76477
2.76734
2.76941
2.77079
2.77153
2.77212
2.77329
2.77541
2.77825
2.78077
2.78199
2.78182
2.78071
2.77979
2.77999
2.78178
2.78493
2.78835
2.79087
2.79203
2.79236
2.79273
2.79364
2.79483
2.79571
2.79615
2.79674
2.79805
2.79995
2.80218
2.80403
2.80475
2.80438
2.80371
2.8033
2.80339
2.8038
2.8042
2.80442
2.80459
2.80526
2.80683
2.80918
2.81145
2.81342
2.81548
2.8173
2.81868
2.81934
1
1
1
1
1
1
1
1
1
1
1
1
1
1
1
1
1
1
1
1
1
1
1
1
1
1
1
1
1
1
1
1
1
1
1
1
1
1
1
1
1
1
1
1
1
1
1
1
1
1
1
1
1
1
1
1
1
1
1
1
1
1
1
1
1
1
1
1
1
1
1
1
1
1
1
1
1
1
1
1
1
1
1
1
1
1
1
1
1
1
1
1
1
1
1
1
1
1
1.42003
2.52103
2.68257
2.68662
2.69154
2.69535
2.6987
2.70103
2.70234
2.70298
2.70362
2.70475
2.70676
2.70966
2.71306
2.71629
2.71877
2.72039
2.72154
2.72276
2.72437
2.72634
2.72843
2.73049
2.73243
2.73413
2.73576
2.73761
2.73976
2.742
2.74405
2.74571
2.747
2.7482
2.74967
2.75165
2.75401
2.75632
2.75817
2.7593
2.7597
2.75972
2.75992
2.76081
2.76263
2.76502
2.76729
2.76908
2.77036
2.77123
2.77211
2.77351
2.77568
2.77832
2.78053
2.7816
2.7815
2.78066
2.77999
2.78025
2.78189
2.78479
2.78804
2.7906
2.79194
2.79241
2.79275
2.79347
2.79455
2.79552
2.79613
2.79687
2.79816
2.79989
2.80188
2.80366
2.80457
2.80446
2.80393
2.80338
2.80321
2.80344
2.80384
2.80425
2.80466
2.8054
2.80678
2.8089
2.81112
2.81321
2.81543
2.81731
2.81859
2.81909
1
1
1
1
1
1
1
1
1
1
1
1
1
1
1
1
1
1
1
1
1
1
1
1
1
1
1
1
1
1
1
1
1
1
1
1
1
1
1
1
1
1
1
1
1
1
1
1
1
1
1
1
1
1
1
1
1
1
1
1
1
1
1
1
1
1
1
1
1
1
1
1
1
1
1
1
1
1
1
1
1
1
1
1
1
1
1
1
1
1
1
1
1
1
1
1
1
1
1.40833
2.51681
2.68224
2.68693
2.69168
2.69524
2.69836
2.7006
2.70197
2.70271
2.70337
2.70452
2.70662
2.70962
2.7131
2.71637
2.71884
2.72039
2.72145
2.72258
2.72415
2.72615
2.7284
2.7307
2.73279
2.73445
2.73583
2.73734
2.73916
2.74119
2.74329
2.74536
2.74711
2.74856
2.75006
2.75185
2.75387
2.75584
2.75749
2.75866
2.75931
2.75966
2.76018
2.76126
2.76307
2.76519
2.76714
2.76871
2.77001
2.77114
2.77239
2.77393
2.77589
2.77811
2.77997
2.78099
2.78114
2.7808
2.78048
2.78076
2.78208
2.78451
2.78748
2.79009
2.79175
2.79252
2.79289
2.7934
2.79423
2.79516
2.796
2.79694
2.79827
2.79986
2.8016
2.80322
2.80429
2.80451
2.80408
2.80348
2.80307
2.80311
2.80351
2.80411
2.80472
2.80552
2.80675
2.80865
2.81081
2.81301
2.81539
2.81735
2.81851
2.81887
1
1
1
1
1
1
1
1
1
1
1
1
1
1
1
1
1
1
1
1
1
1
1
1
1
1
1
1
1
1
1
1
1
1
1
1
1
1
1
1
1
1
1
1
1
1
1
1
1
1
1
1
1
1
1
1
1
1
1
1
1
1
1
1
1
1
1
1
1
1
1
1
1
1
1
1
1
1
1
1
1
1
1
1
1
1
1
1
1
1
1
1
1
1
1
1
1
1
1.3931
2.51071
2.68245
2.68694
2.69156
2.69496
2.69791
2.70007
2.70148
2.70231
2.70306
2.70433
2.70651
2.70955
2.71302
2.71629
2.71875
2.7203
2.72138
2.72255
2.72413
2.72609
2.72828
2.73059
2.73275
2.73448
2.73584
2.73725
2.73893
2.74077
2.74263
2.74476
2.74683
2.7486
2.75023
2.75197
2.75379
2.75548
2.7569
2.75801
2.75886
2.75956
2.76039
2.76163
2.76337
2.76526
2.76694
2.76838
2.76983
2.77132
2.77287
2.77437
2.77592
2.77761
2.7791
2.78017
2.78078
2.78107
2.78124
2.78154
2.78239
2.78416
2.78668
2.78933
2.7914
2.79262
2.79317
2.79348
2.79391
2.79465
2.79564
2.79688
2.79836
2.79992
2.80144
2.80281
2.8039
2.80436
2.80412
2.80358
2.80298
2.8028
2.80321
2.80389
2.80467
2.80553
2.80668
2.80839
2.81046
2.81275
2.81525
2.81727
2.81835
2.81857
1
1
1
1
1
1
1
1
1
1
1
1
1
1
1
1
1
1
1
1
1
1
1
1
1
1
1
1
1
1
1
1
1
1
1
1
1
1
1
1
1
1
1
1
1
1
1
1
1
1
1
1
1
1
1
1
1
1
1
1
1
1
1
1
1
1
1
1
1
1
1
1
1
1
1
1
1
1
1
1
1
1
1
1
1
1
1
1
1
1
1
1
1
1
1
1
1
1
1.37379
2.50249
2.68299
2.68694
2.69127
2.69449
2.6973
2.69943
2.70093
2.70193
2.70289
2.70434
2.70662
2.70959
2.71289
2.71597
2.71834
2.71992
2.72116
2.72252
2.72423
2.7262
2.72824
2.73029
2.73233
2.73414
2.73567
2.73723
2.73896
2.74071
2.74233
2.74414
2.74622
2.74823
2.75012
2.75198
2.75375
2.75526
2.75648
2.75748
2.75845
2.7594
2.76047
2.7618
2.76344
2.76514
2.76666
2.76814
2.76987
2.77173
2.77341
2.77466
2.77571
2.77689
2.77806
2.77923
2.78039
2.78145
2.78213
2.7824
2.78274
2.78379
2.78577
2.78838
2.7909
2.79267
2.79349
2.79364
2.79368
2.79411
2.79514
2.79667
2.79839
2.80003
2.80141
2.80251
2.80342
2.80397
2.804
2.8036
2.80294
2.80261
2.80295
2.80361
2.80448
2.80543
2.80657
2.80816
2.81014
2.81248
2.81505
2.8171
2.81814
2.81827
1
1
1
1
1
1
1
1
1
1
1
1
1
1
1
1
1
1
1
1
1
1
1
1
1
1
1
1
1
1
1
1
1
1
1
1
1
1
1
1
1
1
1
1
1
1
1
1
1
1
1
1
1
1
1
1
1
1
1
1
1
1
1
1
1
1
1
1
1
1
1
1
1
1
1
1
1
1
1
1
1
1
1
1
1
1
1
1
1
1
1
1
1
1
1
1
1
1
1.35017
2.49211
2.68373
2.68687
2.69072
2.6938
2.69657
2.69877
2.70045
2.70172
2.70294
2.70455
2.70683
2.7096
2.71256
2.71531
2.71755
2.71926
2.72077
2.72245
2.72441
2.72644
2.72833
2.73
2.73169
2.73348
2.73521
2.73706
2.73906
2.74089
2.74234
2.74369
2.74545
2.74745
2.7496
2.75174
2.75365
2.75517
2.75631
2.75724
2.7582
2.75919
2.76034
2.76171
2.7633
2.76489
2.76646
2.76808
2.77003
2.77204
2.77368
2.77469
2.77537
2.77619
2.77713
2.77844
2.78013
2.78185
2.78292
2.7831
2.78303
2.78342
2.78496
2.78745
2.79032
2.7926
2.79369
2.79373
2.7935
2.79364
2.79462
2.79637
2.79836
2.8001
2.80135
2.80218
2.80284
2.80347
2.80377
2.80351
2.80292
2.80251
2.80271
2.80328
2.80416
2.8052
2.80642
2.80795
2.80984
2.8122
2.81477
2.81683
2.81787
2.81798
1
1
1
1
1
1
1
1
1
1
1
1
1
1
1
1
1
1
1
1
1
1
1
1
1
1
1
1
1
1
1
1
1
1
1
1
1
1
1
1
1
1
1
1
1
1
1
1
1
1
1
1
1
1
1
1
1
1
1
1
1
1
1
1
1
1
1
1
1
1
1
1
1
1
1
1
1
1
1
1
1
1
1
1
1
1
1
1
1
1
1
1
1
1
1
1
1
1
1.32229
2.47921
2.68472
2.68691
2.69014
2.69301
2.69574
2.69806
2.69998
2.70157
2.70308
2.70489
2.70712
2.70964
2.71217
2.7145
2.71652
2.71834
2.72017
2.72222
2.72445
2.72662
2.72842
2.72979
2.73106
2.73269
2.73461
2.73681
2.73912
2.74114
2.74254
2.74356
2.74487
2.7466
2.74876
2.75115
2.75339
2.75515
2.75636
2.75724
2.7581
2.75894
2.76002
2.76136
2.76295
2.76467
2.76648
2.76826
2.77019
2.77205
2.77352
2.77435
2.77485
2.77558
2.77657
2.77807
2.78006
2.78206
2.78328
2.78338
2.78308
2.78313
2.78437
2.78678
2.78977
2.79233
2.79359
2.79362
2.79327
2.79329
2.79428
2.79617
2.7983
2.80004
2.80116
2.8018
2.8023
2.80296
2.80342
2.80335
2.80286
2.80241
2.80246
2.80293
2.80379
2.80491
2.80624
2.80774
2.80954
2.81187
2.81441
2.81647
2.81754
2.81768
1
1
1
1
1
1
1
1
1
1
1
1
1
1
1
1
1
1
1
1
1
1
1
1
1
1
1
1
1
1
1
1
1
1
1
1
1
1
1
1
1
1
1
1
1
1
1
1
1
1
1
1
1
1
1
1
1
1
1
1
1
1
1
1
1
1
1
1
1
1
1
1
1
1
1
1
1
1
1
1
1
1
1
1
1
1
1
1
1
1
1
1
1
1
1
1
1
1
1.2903
2.46373
2.68614
2.6872
2.68955
2.69208
2.69472
2.69722
2.69947
2.70141
2.7032
2.70514
2.70733
2.70961
2.71179
2.71376
2.71555
2.71737
2.71943
2.72181
2.72434
2.72668
2.72851
2.72973
2.73063
2.73189
2.73375
2.73619
2.73886
2.7412
2.74278
2.74363
2.74448
2.74578
2.74776
2.75028
2.75289
2.75508
2.75658
2.75749
2.75814
2.75867
2.75948
2.76076
2.76251
2.76461
2.7668
2.76873
2.77039
2.77178
2.77285
2.77356
2.77423
2.77523
2.77654
2.77826
2.7802
2.78197
2.78303
2.78312
2.78285
2.78294
2.78418
2.78653
2.78938
2.7918
2.79306
2.79317
2.79292
2.79307
2.79419
2.79611
2.79816
2.79975
2.80074
2.8013
2.80179
2.80251
2.80308
2.80313
2.80271
2.80221
2.80216
2.80258
2.80344
2.80462
2.80602
2.80749
2.8092
2.81148
2.81398
2.81606
2.81718
2.81736
1
1
1
1
1
1
1
1
1
1
1
1
1
1
1
1
1
1
1
1
1
1
1
1
1
1
1
1
1
1
1
1
1
1
1
1
1
1
1
1
1
1
1
1
1
1
1
1
1
1
1
1
1
1
1
1
1
1
1
1
1
1
1
1
1
1
1
1
1
1
1
1
1
1
1
1
1
1
1
1
1
1
1
1
1
1
1
1
1
1
1
1
1
1
1
1
1
1
1.25574
2.44626
2.68761
2.68769
2.68906
2.69114
2.69365
2.69631
2.69884
2.70109
2.70309
2.7051
2.70728
2.70946
2.71146
2.71323
2.71483
2.71651
2.71859
2.72115
2.72396
2.72657
2.72854
2.72971
2.73034
2.73122
2.73289
2.7354
2.73842
2.74119
2.74303
2.74382
2.7443
2.74512
2.74678
2.7493
2.75228
2.75499
2.7569
2.75788
2.75824
2.75835
2.75877
2.75998
2.76205
2.76467
2.76732
2.76931
2.77057
2.77134
2.77184
2.77243
2.77346
2.77504
2.77689
2.77886
2.78057
2.78179
2.78241
2.78243
2.78235
2.78282
2.7843
2.78663
2.78916
2.79115
2.79218
2.79241
2.79245
2.79303
2.79437
2.79621
2.79795
2.79925
2.80008
2.80067
2.80132
2.80217
2.80281
2.80286
2.80239
2.80187
2.80181
2.80224
2.80316
2.80438
2.80574
2.80712
2.80879
2.81104
2.81352
2.81562
2.81679
2.81702
1
1
1
1
1
1
1
1
1
1
1
1
1
1
1
1
1
1
1
1
1
1
1
1
1
1
1
1
1
1
1
1
1
1
1
1
1
1
1
1
1
1
1
1
1
1
1
1
1
1
1
1
1
1
1
1
1
1
1
1
1
1
1
1
1
1
1
1
1
1
1
1
1
1
1
1
1
1
1
1
1
1
1
1
1
1
1
1
1
1
1
1
1
1
1
1
1
1
1.22031
2.42702
2.68815
2.68795
2.6887
2.69036
2.69266
2.69539
2.69811
2.70057
2.70273
2.70484
2.70705
2.70923
2.71125
2.71301
2.71454
2.71607
2.71799
2.72049
2.72342
2.72625
2.72842
2.72967
2.73019
2.73078
2.73213
2.73455
2.73779
2.74097
2.74314
2.74404
2.74429
2.7447
2.74599
2.7484
2.75158
2.75477
2.7571
2.75819
2.75825
2.75801
2.7581
2.7592
2.76156
2.76466
2.76764
2.76971
2.77064
2.77082
2.77082
2.77127
2.77265
2.77484
2.77732
2.77955
2.78097
2.78152
2.78155
2.78144
2.78166
2.78263
2.78451
2.78686
2.78901
2.79044
2.7911
2.79144
2.79199
2.79311
2.79472
2.79637
2.79768
2.79855
2.79923
2.79995
2.80088
2.80196
2.8026
2.80252
2.80193
2.8014
2.80142
2.80195
2.80296
2.80417
2.80537
2.8066
2.80827
2.81054
2.81305
2.81518
2.81637
2.81662
1
1
1
1
1
1
1
1
1
1
1
1
1
1
1
1
1
1
1
1
1
1
1
1
1
1
1
1
1
1
1
1
1
1
1
1
1
1
1
1
1
1
1
1
1
1
1
1
1
1
1
1
1
1
1
1
1
1
1
1
1
1
1
1
1
1
1
1
1
1
1
1
1
1
1
1
1
1
1
1
1
1
1
1
1
1
1
1
1
1
1
1
1
1
1
1
1
1
1.18258
2.40408
2.68769
2.68757
2.68815
2.68967
2.69186
2.69451
2.69725
2.69977
2.70204
2.70425
2.70655
2.70889
2.71111
2.71302
2.71458
2.71598
2.71763
2.71989
2.72271
2.72565
2.72803
2.72944
2.73007
2.73058
2.7317
2.73391
2.73714
2.74053
2.74303
2.74414
2.74433
2.74446
2.74545
2.74772
2.75098
2.7544
2.75705
2.75826
2.75818
2.75776
2.75766
2.75862
2.76105
2.76441
2.76761
2.76976
2.77051
2.77034
2.77005
2.77045
2.77206
2.77476
2.77765
2.77998
2.78113
2.78121
2.78084
2.78053
2.78096
2.78242
2.78464
2.78698
2.78877
2.78971
2.79008
2.79053
2.79158
2.79322
2.79502
2.79643
2.79725
2.79774
2.7983
2.79921
2.8005
2.80177
2.80234
2.80208
2.80136
2.80085
2.80101
2.80172
2.80282
2.80394
2.80489
2.80593
2.80762
2.80998
2.81259
2.81476
2.81593
2.81618
1
1
1
1
1
1
1
1
1
1
1
1
1
1
1
1
1
1
1
1
1
1
1
1
1
1
1
1
1
1
1
1
1
1
1
1
1
1
1
1
1
1
1
1
1
1
1
1
1
1
1
1
1
1
1
1
1
1
1
1
1
1
1
1
1
1
1
1
1
1
1
1
1
1
1
1
1
1
1
1
1
1
1
1
1
1
1
1
1
1
1
1
1
1
1
1
1
1
1.13931
2.37478
2.68611
2.68654
2.68758
2.68924
2.69136
2.69384
2.6964
2.69886
2.70118
2.70352
2.70594
2.70843
2.71086
2.713
2.7147
2.7161
2.71759
2.71956
2.72215
2.72497
2.72743
2.72909
2.72999
2.73063
2.73171
2.73376
2.73678
2.74007
2.74262
2.74389
2.74414
2.74419
2.74499
2.74713
2.7504
2.75395
2.7568
2.75813
2.75803
2.75758
2.75744
2.75829
2.76063
2.76398
2.76725
2.76943
2.77016
2.76995
2.76964
2.77011
2.77181
2.77458
2.77755
2.77987
2.78094
2.78085
2.78034
2.78
2.78049
2.78212
2.78447
2.78674
2.7883
2.789
2.78929
2.78988
2.79127
2.79324
2.79508
2.79623
2.79669
2.79695
2.79745
2.79855
2.80013
2.80146
2.80191
2.8015
2.80076
2.80033
2.80063
2.80157
2.80271
2.8036
2.80426
2.80517
2.80689
2.80939
2.81213
2.81435
2.81548
2.81572
1
1
1
1
1
1
1
1
1
1
1
1
1
1
1
1
1
1
1
1
1
1
1
1
1
1
1
1
1
1
1
1
1
1
1
1
1
1
1
1
1
1
1
1
1
1
1
1
1
1
1
1
1
1
1
1
1
1
1
1
1
1
1
1
1
1
1
1
1
1
1
1
1
1
1
1
1
1
1
1
1
1
1
1
1
1
1
1
1
1
1
1
1
1
1
1
1
1
1.09138
2.34373
2.68481
2.68587
2.68738
2.68926
2.69133
2.69358
2.69594
2.69828
2.70063
2.70307
2.70561
2.70817
2.7106
2.71276
2.71457
2.71611
2.71755
2.71925
2.72145
2.72395
2.72632
2.72821
2.72954
2.73054
2.73175
2.73374
2.73659
2.73971
2.74218
2.7435
2.74384
2.74389
2.74459
2.74664
2.74988
2.75347
2.75644
2.75789
2.7579
2.75757
2.75747
2.75825
2.76035
2.76339
2.76641
2.76853
2.76946
2.76955
2.76956
2.77023
2.77184
2.77426
2.77694
2.77918
2.78032
2.78041
2.78008
2.77989
2.78038
2.78181
2.7839
2.78601
2.78752
2.7883
2.78878
2.78958
2.79107
2.79301
2.79473
2.79569
2.79604
2.79628
2.79682
2.79804
2.79969
2.80092
2.80125
2.80082
2.80017
2.7999
2.80036
2.80144
2.80251
2.80312
2.8035
2.80434
2.80611
2.80876
2.81164
2.8139
2.81501
2.81527
1
1
1
1
1
1
1
1
1
1
1
1
1
1
1
1
1
1
1
1
1
1
1
1
1
1
1
1
1
1
1
1
1
1
1
1
1
1
1
1
1
1
1
1
1
1
1
1
1
1
1
1
1
1
1
1
1
1
1
1
1
1
1
1
1
1
1
1
1
1
1
1
1
1
1
1
1
1
1
1
1
1
1
1
1
1
1
1
1
1
1
1
1
1
1
1
1
1
1.03453
2.31497
2.68512
2.68584
2.6873
2.68908
2.69093
2.69294
2.69516
2.69756
2.70011
2.70279
2.70555
2.70824
2.71073
2.71292
2.71478
2.71634
2.71772
2.71922
2.72107
2.72326
2.72554
2.72757
2.72927
2.7307
2.73215
2.73412
2.73677
2.7396
2.74182
2.74302
2.74338
2.74351
2.7442
2.74618
2.74937
2.75293
2.7559
2.75744
2.75761
2.75743
2.75744
2.75817
2.76002
2.76274
2.76547
2.76748
2.76862
2.7692
2.76965
2.77061
2.7721
2.77408
2.77622
2.77808
2.77931
2.77983
2.77994
2.78008
2.78058
2.78159
2.78311
2.78487
2.78643
2.78757
2.7885
2.78958
2.791
2.79262
2.79399
2.79486
2.79536
2.79577
2.79646
2.79767
2.7991
2.80009
2.80035
2.80007
2.79965
2.79961
2.80023
2.8013
2.80213
2.80246
2.80268
2.80349
2.80532
2.80809
2.81109
2.81339
2.8145
2.81482
1
1
1
1
1
1
1
1
1
1
1
1
1
1
1
1
1
1
1
1
1
1
1
1
1
1
1
1
1
1
1
1
1
1
1
1
1
1
1
1
1
1
1
1
1
1
1
1
1
1
1
1
1
1
1
1
1
1
1
1
1
1
1
1
1
1
1
1
1
1
1
1
1
1
1
1
1
1
1
1
1
1
1
1
1
1
1
1
1
1
1
1
1
1
1
1
1
1
1.0012
2.27873
2.68497
2.6862
2.68742
2.68922
2.69105
2.69298
2.69512
2.69755
2.70023
2.70305
2.7059
2.70866
2.71117
2.7133
2.71503
2.71642
2.71765
2.71896
2.72052
2.72243
2.7246
2.72676
2.72882
2.7307
2.73248
2.7345
2.7369
2.7394
2.74137
2.74245
2.7428
2.74301
2.74373
2.74569
2.74892
2.75255
2.75558
2.75715
2.75739
2.75723
2.75728
2.75797
2.75966
2.76214
2.76472
2.76668
2.76788
2.76878
2.76961
2.77082
2.77228
2.77385
2.77542
2.77684
2.77806
2.77908
2.77986
2.78045
2.78092
2.78143
2.78228
2.7836
2.78519
2.78685
2.78841
2.78974
2.79094
2.792
2.79293
2.7938
2.79462
2.79542
2.79631
2.79734
2.7983
2.79896
2.79926
2.79927
2.79921
2.79949
2.80021
2.80103
2.8015
2.80164
2.80183
2.80267
2.80455
2.80737
2.81044
2.81279
2.81397
2.81438
1
1
1
1
1
1
1
1
1
1
1
1
1
1
1
1
1
1
1
1
1
1
1
1
1
1
1
1
1
1
1
1
1
1
1
1
1
1
1
1
1
1
1
1
1
1
1
1
1
1
1
1
1
1
1
1
1
1
1
1
1
1
1
1
1
1
1
1
1
1
1
1
1
1
1
1
1
1
1
1
1
1
1
1
1
1
1
1
1
1
1
1
1
1
1
1
1
1
1.00001
2.23363
2.68442
2.68656
2.68727
2.68893
2.69072
2.69269
2.69493
2.69753
2.70044
2.7035
2.70654
2.7094
2.7119
2.7139
2.71541
2.71657
2.71759
2.71865
2.71994
2.72163
2.72379
2.72616
2.72861
2.73091
2.73295
2.73497
2.73709
2.73925
2.74098
2.74191
2.74222
2.74244
2.74315
2.74515
2.7485
2.7523
2.75545
2.75702
2.75714
2.75684
2.75674
2.75739
2.75905
2.76153
2.76417
2.76626
2.76749
2.76836
2.7693
2.77067
2.77216
2.77352
2.77471
2.77581
2.77696
2.77824
2.77958
2.78062
2.78113
2.78122
2.78148
2.78239
2.78398
2.78612
2.78826
2.78985
2.79075
2.79124
2.79179
2.7927
2.79394
2.79523
2.79627
2.79693
2.79728
2.7976
2.79804
2.79846
2.79895
2.79957
2.80017
2.80054
2.80067
2.80071
2.80096
2.80191
2.80382
2.80662
2.80969
2.8121
2.81341
2.81397
1
1
1
1
1
1
1
1
1
1
1
1
1
1
1
1
1
1
1
1
1
1
1
1
1
1
1
1
1
1
1
1
1
1
1
1
1
1
1
1
1
1
1
1
1
1
1
1
1
1
1
1
1
1
1
1
1
1
1
1
1
1
1
1
1
1
1
1
1
1
1
1
1
1
1
1
1
1
1
1
1
1
1
1
1
1
1
1
1
1
1
1
1
1
1
1
1
1
1
2.18227
2.68305
2.68637
2.68648
2.68795
2.68975
2.69192
2.69443
2.69735
2.70052
2.70384
2.70715
2.71019
2.7127
2.71454
2.71576
2.71659
2.71735
2.7182
2.71926
2.7208
2.72297
2.72553
2.72833
2.73103
2.73334
2.73538
2.73726
2.73909
2.74059
2.74138
2.74162
2.74181
2.7425
2.74454
2.74807
2.7521
2.75543
2.75702
2.757
2.75644
2.75599
2.75651
2.75823
2.76094
2.76387
2.7662
2.76747
2.76814
2.76885
2.77008
2.77156
2.77292
2.77408
2.77512
2.77623
2.77753
2.77906
2.78036
2.78097
2.78089
2.78083
2.7814
2.78298
2.7854
2.78794
2.7897
2.79034
2.79039
2.79069
2.79171
2.79338
2.79508
2.79607
2.79624
2.79613
2.79617
2.79675
2.79773
2.79884
2.79966
2.79999
2.79986
2.79968
2.79971
2.80011
2.8012
2.80312
2.80583
2.80883
2.8113
2.8128
2.81355
1
1
1
1
1
1
1
1
1
1
1
1
1
1
1
1
1
1
1
1
1
1
1
1
1
1
1
1
1
1
1
1
1
1
1
1
1
1
1
1
1
1
1
1
1
1
1
1
1
1
1
1
1
1
1
1
1
1
1
1
1
1
1
1
1
1
1
1
1
1
1
1
1
1
1
1
1
1
1
1
1
1
1
1
1
1
1
1
1
1
1
1
1
1
1
1
1
1
1
2.12529
2.67969
2.68575
2.68531
2.68658
2.68828
2.69059
2.69341
2.69667
2.70023
2.70385
2.70741
2.71065
2.71324
2.715
2.71599
2.71654
2.717
2.71762
2.7185
2.71989
2.72204
2.7248
2.72793
2.731
2.73357
2.73567
2.73734
2.73888
2.74018
2.74085
2.74103
2.7412
2.74187
2.74391
2.74754
2.75177
2.75531
2.757
2.75694
2.75612
2.75526
2.75552
2.75722
2.76027
2.76365
2.76632
2.76769
2.7681
2.76839
2.76916
2.77047
2.772
2.77345
2.77469
2.77586
2.77708
2.77845
2.77972
2.78039
2.78035
2.78026
2.78076
2.78229
2.78475
2.78737
2.78913
2.78962
2.78955
2.7898
2.79096
2.79293
2.79474
2.79552
2.79534
2.79488
2.79477
2.79559
2.79714
2.79875
2.79967
2.79964
2.79904
2.79862
2.79867
2.79929
2.80053
2.80242
2.80499
2.80788
2.81043
2.81215
2.81307
1
1
1
1
1
1
1
1
1
1
1
1
1
1
1
1
1
1
1
1
1
1
1
1
1
1
1
1
1
1
1
1
1
1
1
1
1
1
1
1
1
1
1
1
1
1
1
1
1
1
1
1
1
1
1
1
1
1
1
1
1
1
1
1
1
1
1
1
1
1
1
1
1
1
1
1
1
1
1
1
1
1
1
1
1
1
1
1
1
1
1
1
1
1
1
1
1
1
1
2.06229
2.67383
2.6851
2.68426
2.68528
2.68665
2.68883
2.69177
2.69532
2.69929
2.70338
2.70722
2.71066
2.71343
2.71522
2.7161
2.71639
2.71657
2.71696
2.71767
2.71892
2.721
2.7239
2.72733
2.73078
2.73363
2.73582
2.73737
2.73866
2.73975
2.74032
2.7405
2.74069
2.74136
2.74333
2.74691
2.75119
2.75492
2.7568
2.75684
2.75597
2.75484
2.75475
2.75616
2.75937
2.76323
2.76639
2.76795
2.76817
2.76801
2.76816
2.76909
2.77079
2.77273
2.77442
2.77577
2.77685
2.77781
2.7787
2.77934
2.77954
2.77969
2.78037
2.78191
2.78417
2.7865
2.78809
2.78865
2.78872
2.78913
2.79047
2.79253
2.79414
2.79462
2.79424
2.79359
2.79352
2.79464
2.79667
2.79858
2.79944
2.79909
2.79816
2.79757
2.79766
2.79846
2.79983
2.80169
2.80412
2.80689
2.8095
2.81143
2.81248
1
1
1
1
1
1
1
1
1
1
1
1
1
1
1
1
1
1
1
1
1
1
1
1
1
1
1
1
1
1
1
1
1
1
1
1
1
1
1
1
1
1
1
1
1
1
1
1
1
1
1
1
1
1
1
1
1
1
1
1
1
1
1
1
1
1
1
1
1
1
1
1
1
1
1
1
1
1
1
1
1
1
1
1
1
1
1
1
1
1
1
1
1
1
1
1
1
1
1
1.99195
2.66432
2.68469
2.68365
2.68429
2.68522
2.68693
2.6896
2.69326
2.69755
2.70209
2.70644
2.71023
2.71316
2.71505
2.7159
2.71602
2.71605
2.71629
2.71686
2.71794
2.71989
2.72283
2.72648
2.73025
2.73342
2.73577
2.73729
2.73837
2.73926
2.73976
2.74
2.74028
2.74099
2.74284
2.74618
2.7503
2.7541
2.75625
2.75658
2.7559
2.75475
2.75434
2.75537
2.75834
2.76241
2.76603
2.76792
2.76811
2.76768
2.7673
2.76778
2.76945
2.77185
2.77409
2.7757
2.77666
2.77718
2.77758
2.77804
2.77855
2.77918
2.78018
2.78172
2.78361
2.78542
2.78674
2.78743
2.78788
2.78869
2.7902
2.79205
2.79326
2.79343
2.79297
2.79234
2.79248
2.79394
2.79626
2.79822
2.7989
2.79833
2.79724
2.79659
2.79673
2.7976
2.79904
2.80088
2.80321
2.80589
2.80856
2.81065
2.81177
1
1
1
1
1
1
1
1
1
1
1
1
1
1
1
1
1
1
1
1
1
1
1
1
1
1
1
1
1
1
1
1
1
1
1
1
1
1
1
1
1
1
1
1
1
1
1
1
1
1
1
1
1
1
1
1
1
1
1
1
1
1
1
1
1
1
1
1
1
1
1
1
1
1
1
1
1
1
1
1
1
1
1
1
1
1
1
1
1
1
1
1
1
1
1
1
1
1
1
1.91419
2.65
2.68424
2.68329
2.68369
2.68423
2.68536
2.68751
2.69085
2.69522
2.70005
2.70484
2.70903
2.71226
2.71434
2.71527
2.7154
2.71543
2.71562
2.71609
2.71703
2.7188
2.72166
2.72538
2.72937
2.73284
2.73543
2.737
2.73796
2.73871
2.73917
2.73949
2.73991
2.74072
2.74245
2.74547
2.74927
2.75295
2.75536
2.7561
2.75577
2.75483
2.75427
2.75497
2.75746
2.76132
2.76511
2.76737
2.76778
2.76728
2.76663
2.7668
2.76826
2.77083
2.77347
2.77538
2.7763
2.77653
2.77653
2.77678
2.77752
2.77865
2.78001
2.78151
2.78298
2.78423
2.78524
2.7861
2.78706
2.78836
2.78997
2.79141
2.79211
2.79204
2.79159
2.79121
2.79171
2.79344
2.7958
2.79757
2.79806
2.79742
2.79632
2.79571
2.79587
2.79672
2.79815
2.79996
2.80223
2.8049
2.80763
2.8098
2.81091
1
1
1
1
1
1
1
1
1
1
1
1
1
1
1
1
1
1
1
1
1
1
1
1
1
1
1
1
1
1
1
1
1
1
1
1
1
1
1
1
1
1
1
1
1
1
1
1
1
1
1
1
1
1
1
1
1
1
1
1
1
1
1
1
1
1
1
1
1
1
1
1
1
1
1
1
1
1
1
1
1
1
1
1
1
1
1
1
1
1
1
1
1
1
1
1
1
1
1
1.82949
2.63109
2.68359
2.68287
2.68333
2.68364
2.6843
2.68585
2.68868
2.69274
2.69756
2.70256
2.70705
2.71054
2.71291
2.71415
2.7145
2.71464
2.71489
2.71537
2.71622
2.71779
2.72042
2.72404
2.72806
2.73175
2.73459
2.73635
2.73738
2.73807
2.73851
2.73887
2.73944
2.7404
2.74209
2.74482
2.74826
2.75166
2.75418
2.7553
2.75538
2.75489
2.75442
2.75488
2.75681
2.76015
2.76376
2.76624
2.76705
2.76673
2.76614
2.76618
2.76738
2.76979
2.77252
2.77461
2.77562
2.7758
2.77566
2.77578
2.77662
2.77808
2.77969
2.7811
2.78217
2.78297
2.78375
2.7848
2.78628
2.788
2.78961
2.79056
2.79075
2.79057
2.79024
2.79025
2.79116
2.79303
2.79518
2.79662
2.79695
2.79638
2.79542
2.79492
2.79506
2.7958
2.79713
2.7989
2.80119
2.80393
2.80672
2.8089
2.80994
1
1
1
1
1
1
1
1
1
1
1
1
1
1
1
1
1
1
1
1
1
1
1
1
1
1
1
1
1
1
1
1
1
1
1
1
1
1
1
1
1
1
1
1
1
1
1
1
1
1
1
1
1
1
1
1
1
1
1
1
1
1
1
1
1
1
1
1
1
1
1
1
1
1
1
1
1
1
1
1
1
1
1
1
1
1
1
1
1
1
1
1
1
1
1
1
1
1
1
1.7393
2.60909
2.68268
2.68224
2.68287
2.68321
2.68373
2.68485
2.68716
2.69074
2.6952
2.70003
2.70459
2.70823
2.71077
2.71237
2.71315
2.71356
2.71402
2.71465
2.71553
2.71694
2.71926
2.72257
2.7264
2.73013
2.73321
2.73527
2.73653
2.73732
2.73776
2.73809
2.73877
2.7399
2.74165
2.7442
2.74733
2.75043
2.75284
2.75418
2.75465
2.75462
2.75453
2.75493
2.75642
2.75909
2.7622
2.76466
2.76586
2.76597
2.76574
2.76584
2.76682
2.76882
2.77127
2.77337
2.77458
2.77496
2.77494
2.77511
2.77597
2.77749
2.77911
2.78035
2.78115
2.7817
2.78239
2.78366
2.78554
2.78751
2.78894
2.78947
2.78936
2.78911
2.78899
2.78945
2.79073
2.79256
2.79434
2.79543
2.79566
2.79525
2.79456
2.7942
2.79428
2.79483
2.796
2.7977
2.80006
2.80296
2.80582
2.80794
2.80888
1
1
1
1
1
1
1
1
1
1
1
1
1
1
1
1
1
1
1
1
1
1
1
1
1
1
1
1
1
1
1
1
1
1
1
1
1
1
1
1
1
1
1
1
1
1
1
1
1
1
1
1
1
1
1
1
1
1
1
1
1
1
1
1
1
1
1
1
1
1
1
1
1
1
1
1
1
1
1
1
1
1
1
1
1
1
1
1
1
1
1
1
1
1
1
1
1
1
1
1.64448
2.58386
2.68145
2.68119
2.68204
2.6826
2.68337
2.68457
2.68653
2.68949
2.69324
2.69744
2.70172
2.70542
2.70817
2.71015
2.71147
2.71231
2.71307
2.71393
2.71491
2.7162
2.71816
2.721
2.72444
2.72804
2.73133
2.73378
2.7354
2.73644
2.73698
2.73727
2.73792
2.73914
2.74099
2.74352
2.74644
2.74927
2.75152
2.75287
2.75354
2.75393
2.75429
2.7549
2.75613
2.75818
2.76065
2.76285
2.76431
2.76501
2.76528
2.76564
2.76647
2.76793
2.76986
2.77178
2.77321
2.774
2.77436
2.77473
2.77555
2.77685
2.77821
2.77923
2.77991
2.78045
2.78124
2.78272
2.78477
2.78676
2.78795
2.78819
2.788
2.78777
2.78792
2.78881
2.79028
2.7919
2.79324
2.79403
2.79426
2.79407
2.79372
2.79352
2.79349
2.79381
2.79475
2.79638
2.79886
2.80196
2.80489
2.80692
2.80776
1
1
1
1
1
1
1
1
1
1
1
1
1
1
1
1
1
1
1
1
1
1
1
1
1
1
1
1
1
1
1
1
1
1
1
1
1
1
1
1
1
1
1
1
1
1
1
1
1
1
1
1
1
1
1
1
1
1
1
1
1
1
1
1
1
1
1
1
1
1
1
1
1
1
1
1
1
1
1
1
1
1
1
1
1
1
1
1
1
1
1
1
1
1
1
1
1
1
1
1.54278
2.55319
2.67963
2.6797
2.6807
2.68175
2.68307
2.68456
2.68638
2.68871
2.6917
2.6951
2.69879
2.70232
2.70529
2.7077
2.70957
2.71091
2.71198
2.71307
2.71422
2.71548
2.71711
2.71944
2.72238
2.72569
2.72907
2.7319
2.73396
2.73535
2.73613
2.73648
2.73703
2.73819
2.74005
2.74262
2.74549
2.74813
2.75022
2.75152
2.75227
2.75284
2.75359
2.75453
2.75575
2.75738
2.75929
2.76114
2.76266
2.7638
2.76462
2.76533
2.76609
2.76708
2.76843
2.77005
2.77165
2.77294
2.77382
2.77449
2.7752
2.7761
2.77702
2.77782
2.77853
2.77927
2.78033
2.78195
2.78392
2.78566
2.78665
2.78684
2.7867
2.78663
2.78708
2.78822
2.78967
2.79097
2.79192
2.7925
2.79282
2.7929
2.79289
2.79282
2.79266
2.79272
2.79343
2.79501
2.79761
2.8009
2.80389
2.80584
2.80659
1
1
1
1
1
1
1
1
1
1
1
1
1
1
1
1
1
1
1
1
1
1
1
1
1
1
1
1
1
1
1
1
1
1
1
1
1
1
1
1
1
1
1
1
1
1
1
1
1
1
1
1
1
1
1
1
1
1
1
1
1
1
1
1
1
1
1
1
1
1
1
1
1
1
1
1
1
1
1
1
1
1
1
1
1
1
1
1
1
1
1
1
1
1
1
1
1
1
1
1.4324
2.51447
2.67771
2.67788
2.67929
2.68079
2.68268
2.68451
2.68631
2.68819
2.69037
2.69305
2.69614
2.69935
2.70238
2.70517
2.70754
2.70934
2.71071
2.71203
2.71339
2.71471
2.71615
2.71803
2.72046
2.72329
2.72653
2.72962
2.73212
2.73393
2.73508
2.73571
2.73628
2.73729
2.73895
2.74139
2.74422
2.74682
2.74886
2.75017
2.75097
2.7516
2.75248
2.75369
2.75508
2.75657
2.75812
2.75965
2.76109
2.76246
2.76368
2.76472
2.76553
2.76623
2.7671
2.76838
2.77005
2.77179
2.77322
2.77418
2.77476
2.77519
2.77563
2.77625
2.77712
2.77822
2.77958
2.7812
2.78287
2.78425
2.78511
2.78544
2.7855
2.78572
2.78643
2.78758
2.78879
2.78975
2.79043
2.79093
2.79138
2.79176
2.79203
2.79204
2.79171
2.79153
2.79207
2.79359
2.79633
2.79977
2.80281
2.80469
2.80538
1
1
1
1
1
1
1
1
1
1
1
1
1
1
1
1
1
1
1
1
1
1
1
1
1
1
1
1
1
1
1
1
1
1
1
1
1
1
1
1
1
1
1
1
1
1
1
1
1
1
1
1
1
1
1
1
1
1
1
1
1
1
1
1
1
1
1
1
1
1
1
1
1
1
1
1
1
1
1
1
1
1
1
1
1
1
1
1
1
1
1
1
1
1
1
1
1
1
1
1.31718
2.46716
2.67683
2.67628
2.67818
2.67993
2.68223
2.6844
2.68636
2.68803
2.68957
2.69142
2.69389
2.69679
2.69983
2.70278
2.70545
2.70762
2.70925
2.71079
2.71237
2.71384
2.71523
2.71684
2.71882
2.72114
2.72398
2.72705
2.72982
2.73211
2.73375
2.73483
2.73563
2.73658
2.73791
2.73996
2.74252
2.74512
2.74729
2.74875
2.74971
2.75041
2.75127
2.75252
2.75405
2.75561
2.75703
2.75835
2.75964
2.76105
2.76248
2.76377
2.76472
2.76533
2.76591
2.7669
2.76853
2.77056
2.77241
2.77363
2.77409
2.77412
2.77417
2.77469
2.7758
2.77728
2.77884
2.78031
2.78158
2.78263
2.78346
2.78403
2.78446
2.785
2.78582
2.78678
2.78762
2.78827
2.78883
2.78937
2.78999
2.79064
2.7911
2.79112
2.79065
2.79028
2.79068
2.79218
2.79503
2.79856
2.80162
2.80345
2.80413
1
1
1
1
1
1
1
1
1
1
1
1
1
1
1
1
1
1
1
1
1
1
1
1
1
1
1
1
1
1
1
1
1
1
1
1
1
1
1
1
1
1
1
1
1
1
1
1
1
1
1
1
1
1
1
1
1
1
1
1
1
1
1
1
1
1
1
1
1
1
1
1
1
1
1
1
1
1
1
1
1
1
1
1
1
1
1
1
1
1
1
1
1
1
1
1
1
1
1
1.20246
2.41035
2.6767
2.67562
2.67736
2.67936
2.68178
2.68414
2.68622
2.68781
2.68912
2.6906
2.69253
2.69497
2.69783
2.70078
2.70358
2.70594
2.70771
2.70937
2.71111
2.71277
2.71427
2.71582
2.71755
2.7195
2.72181
2.72451
2.72721
2.72975
2.73197
2.73367
2.7349
2.73596
2.73704
2.73854
2.74059
2.74297
2.74533
2.74714
2.74841
2.7493
2.75016
2.75129
2.75279
2.75442
2.75588
2.75711
2.75827
2.75959
2.76106
2.7625
2.76364
2.76435
2.76486
2.76565
2.76716
2.76926
2.77133
2.77268
2.77308
2.77291
2.77278
2.77329
2.77463
2.77636
2.77795
2.77916
2.78006
2.7809
2.78179
2.78272
2.78359
2.78439
2.78512
2.78573
2.78619
2.78663
2.78717
2.78783
2.78866
2.78951
2.79006
2.79003
2.78944
2.78896
2.78927
2.79079
2.79371
2.79726
2.80031
2.80212
2.80283
1
1
1
1
1
1
1
1
1
1
1
1
1
1
1
1
1
1
1
1
1
1
1
1
1
1
1
1
1
1
1
1
1
1
1
1
1
1
1
1
1
1
1
1
1
1
1
1
1
1
1
1
1
1
1
1
1
1
1
1
1
1
1
1
1
1
1
1
1
1
1
1
1
1
1
1
1
1
1
1
1
1
1
1
1
1
1
1
1
1
1
1
1
1
1
1
1
1
1
1.09267
2.35274
2.67742
2.67691
2.67805
2.68011
2.68234
2.68455
2.68653
2.68812
2.68937
2.69064
2.69218
2.69422
2.69671
2.69945
2.70219
2.70461
2.70645
2.70808
2.70982
2.71156
2.71317
2.71481
2.71656
2.71837
2.72028
2.72246
2.72474
2.72713
2.72961
2.73196
2.73387
2.73526
2.73627
2.73731
2.73871
2.74061
2.74299
2.74521
2.74695
2.74818
2.74914
2.75016
2.75148
2.75306
2.75456
2.7558
2.75688
2.75807
2.7595
2.76102
2.76236
2.76328
2.76388
2.7646
2.76593
2.7679
2.76994
2.77134
2.77178
2.77162
2.7715
2.77211
2.7736
2.77534
2.77677
2.77771
2.77838
2.77914
2.78021
2.78155
2.78284
2.78375
2.78421
2.78442
2.78458
2.7849
2.7855
2.78634
2.78739
2.78833
2.78885
2.78875
2.78811
2.78759
2.78787
2.78943
2.79237
2.79588
2.79886
2.80068
2.80147
1
1
1
1
1
1
1
1
1
1
1
1
1
1
1
1
1
1
1
1
1
1
1
1
1
1
1
1
1
1
1
1
1
1
1
1
1
1
1
1
1
1
1
1
1
1
1
1
1
1
1
1
1
1
1
1
1
1
1
1
1
1
1
1
1
1
1
1
1
1
1
1
1
1
1
1
1
1
1
1
1
1
1
1
1
1
1
1
1
1
1
1
1
1
1
1
1
1
1
1.0042
2.29037
2.67861
2.67886
2.67981
2.68161
2.68328
2.68514
2.6869
2.68841
2.68978
2.69111
2.69267
2.69461
2.69691
2.69931
2.70172
2.70391
2.7057
2.70728
2.70885
2.71044
2.71202
2.71373
2.71562
2.71753
2.71931
2.72108
2.72285
2.72477
2.72708
2.7297
2.73224
2.73423
2.73545
2.73624
2.7371
2.73838
2.74047
2.74293
2.74522
2.74694
2.74813
2.74912
2.75022
2.7516
2.75305
2.75431
2.75539
2.7565
2.75788
2.75945
2.76095
2.76211
2.76291
2.76364
2.76477
2.76644
2.76828
2.76968
2.77028
2.7703
2.77038
2.77112
2.77257
2.77411
2.77526
2.776
2.77661
2.77745
2.77882
2.78054
2.7821
2.78291
2.78301
2.78291
2.78284
2.78314
2.78387
2.78492
2.78611
2.78703
2.78742
2.78726
2.78667
2.78621
2.78652
2.7881
2.79098
2.79438
2.7973
2.79915
2.80005
1
1
1
1
1
1
1
1
1
1
1
1
1
1
1
1
1
1
1
1
1
1
1
1
1
1
1
1
1
1
1
1
1
1
1
1
1
1
1
1
1
1
1
1
1
1
1
1
1
1
1
1
1
1
1
1
1
1
1
1
1
1
1
1
1
1
1
1
1
1
1
1
1
1
1
1
1
1
1
1
1
1
1
1
1
1
1
1
1
1
1
1
1
1
1
1
1
1
1
1.00002
2.21322
2.67558
2.68015
2.682
2.68383
2.68515
2.6866
2.68796
2.68921
2.69043
2.69169
2.69322
2.69508
2.69717
2.69936
2.7017