/*--------------------------------*- C++ -*----------------------------------*\
  =========                 |
  \\      /  F ield         | OpenFOAM: The Open Source CFD Toolbox
   \\    /   O peration     | Website:  https://openfoam.org
    \\  /    A nd           | Version:  7
     \\/     M anipulation  |
\*---------------------------------------------------------------------------*/
FoamFile
{
    version     2.0;
    format      ascii;
    class       volScalarField;
    location    "3.8";
    object      p;
}
// * * * * * * * * * * * * * * * * * * * * * * * * * * * * * * * * * * * * * //

dimensions      [1 -1 -2 0 0 0 0];

internalField   nonuniform List<scalar> 
258048
(
1
1
1
1
1
1
1
1
1
1
1
1
1
1
1
1
1
1
1
1
1
1
1
1
1
1
1
1
1
1
1
1
1
1
1
1
1
1
1
1
1
1
1
1
1
1
1
1
1
1
1
1
1
1
1
1
1
1
1
1
1
1
1
1
1
1
1
1
1
1
1
1
1
1
1
1
1
1
1
1
1
1
1
1
1
1
1
1
1
1
1
1
1
1
1
1
1
1
4.2955
10.0325
10.4488
10.4525
10.4531
10.4518
10.4668
10.4998
10.5444
10.5951
10.6486
10.6986
10.7343
10.7497
10.7487
10.7387
10.7509
10.8036
10.8665
10.9304
10.9804
10.9985
10.9837
10.9597
10.9483
10.9896
11.0607
11.1267
11.1788
11.2007
11.1899
11.1712
11.1643
11.1898
11.2443
11.3
11.3438
11.3652
11.367
11.3644
11.37
11.3891
11.4184
11.4507
11.4818
11.5102
11.5344
11.5523
11.5638
11.5732
11.5866
11.6093
11.6407
11.6722
11.6929
11.6989
11.6971
11.6995
11.7135
11.7378
11.7623
11.7787
11.7865
11.7939
11.8111
11.8406
11.8702
11.8858
11.8841
11.8774
11.8761
11.8872
11.9103
11.9371
11.9562
11.9624
11.9593
11.9564
11.9597
11.9712
11.9893
12.0086
12.0229
12.0294
12.0281
12.0206
12.0112
12.0059
12.0081
12.0178
12.0313
12.0425
12.0491
12.0493
1
1
1
1
1
1
1
1
1
1
1
1
1
1
1
1
1
1
1
1
1
1
1
1
1
1
1
1
1
1
1
1
1
1
1
1
1
1
1
1
1
1
1
1
1
1
1
1
1
1
1
1
1
1
1
1
1
1
1
1
1
1
1
1
1
1
1
1
1
1
1
1
1
1
1
1
1
1
1
1
1
1
1
1
1
1
1
1
1
1
1
1
1
1
1
1
1
1
4.28304
10.0411
10.4251
10.4339
10.4441
10.452
10.4734
10.5118
10.5578
10.6054
10.652
10.6946
10.7278
10.7458
10.7505
10.7493
10.7613
10.8074
10.8666
10.9252
10.9711
10.9913
10.9843
10.9687
10.9593
10.99
11.0583
11.1229
11.1742
11.1984
11.1924
11.1777
11.1701
11.1905
11.2405
11.2956
11.3404
11.3649
11.3701
11.3696
11.3752
11.3928
11.4202
11.4514
11.4819
11.51
11.5336
11.5514
11.5635
11.5738
11.5884
11.6119
11.6429
11.6732
11.6927
11.6983
11.697
11.6999
11.7145
11.739
11.7636
11.78
11.7879
11.7949
11.8111
11.8394
11.8691
11.8858
11.8855
11.8798
11.8788
11.8891
11.9103
11.9354
11.9546
11.9621
11.9604
11.958
11.9609
11.9713
11.9885
12.0078
12.0229
12.03
12.0286
12.0204
12.01
12.0042
12.0071
12.0181
12.0324
12.043
12.048
12.0469
1
1
1
1
1
1
1
1
1
1
1
1
1
1
1
1
1
1
1
1
1
1
1
1
1
1
1
1
1
1
1
1
1
1
1
1
1
1
1
1
1
1
1
1
1
1
1
1
1
1
1
1
1
1
1
1
1
1
1
1
1
1
1
1
1
1
1
1
1
1
1
1
1
1
1
1
1
1
1
1
1
1
1
1
1
1
1
1
1
1
1
1
1
1
1
1
1
1
4.24426
10.047
10.4064
10.4142
10.4301
10.4485
10.4769
10.5216
10.572
10.6186
10.6596
10.6934
10.7168
10.7307
10.7403
10.7529
10.7768
10.8177
10.8682
10.9172
10.9553
10.9747
10.9766
10.9733
10.9762
11.002
11.0562
11.1141
11.1604
11.1865
11.1889
11.1824
11.1787
11.1955
11.2367
11.2864
11.3293
11.3565
11.3671
11.3715
11.3794
11.3962
11.4211
11.4503
11.4799
11.5072
11.5295
11.546
11.558
11.5696
11.5865
11.6122
11.6439
11.6728
11.6902
11.6946
11.6936
11.6974
11.7128
11.7375
11.7619
11.7784
11.7868
11.7943
11.8099
11.8359
11.8641
11.8813
11.8828
11.8792
11.8799
11.8903
11.9095
11.9316
11.949
11.9574
11.958
11.9573
11.9605
11.9701
11.9858
12.0046
12.0205
12.0289
12.028
12.0193
12.0079
12.0013
12.0051
12.0178
12.0332
12.0432
12.0464
12.0433
1
1
1
1
1
1
1
1
1
1
1
1
1
1
1
1
1
1
1
1
1
1
1
1
1
1
1
1
1
1
1
1
1
1
1
1
1
1
1
1
1
1
1
1
1
1
1
1
1
1
1
1
1
1
1
1
1
1
1
1
1
1
1
1
1
1
1
1
1
1
1
1
1
1
1
1
1
1
1
1
1
1
1
1
1
1
1
1
1
1
1
1
1
1
1
1
1
1
4.18328
10.0432
10.3987
10.4047
10.4244
10.4478
10.4833
10.5298
10.5792
10.6225
10.657
10.6832
10.7035
10.722
10.7407
10.7629
10.7907
10.8258
10.8664
10.9041
10.9346
10.9567
10.9724
10.9841
10.996
11.0171
11.0556
11.1028
11.1442
11.1728
11.1863
11.1884
11.1889
11.202
11.2347
11.2783
11.3193
11.3495
11.3662
11.3752
11.3845
11.3994
11.4218
11.4497
11.4788
11.5053
11.5263
11.5412
11.5525
11.5653
11.5849
11.613
11.645
11.6723
11.6877
11.6915
11.691
11.696
11.712
11.7361
11.7598
11.7764
11.7857
11.7944
11.8101
11.8343
11.8603
11.8769
11.8802
11.879
11.8819
11.8928
11.9105
11.93
11.945
11.953
11.9554
11.9567
11.9609
11.9699
11.9844
12.0023
12.0185
12.0277
12.027
12.0178
12.0055
11.9985
12.0032
12.0174
12.0337
12.0431
12.0442
12.039
1
1
1
1
1
1
1
1
1
1
1
1
1
1
1
1
1
1
1
1
1
1
1
1
1
1
1
1
1
1
1
1
1
1
1
1
1
1
1
1
1
1
1
1
1
1
1
1
1
1
1
1
1
1
1
1
1
1
1
1
1
1
1
1
1
1
1
1
1
1
1
1
1
1
1
1
1
1
1
1
1
1
1
1
1
1
1
1
1
1
1
1
1
1
1
1
1
1
4.10599
9.98838
10.3968
10.4059
10.4313
10.456
10.4911
10.5324
10.5749
10.6123
10.6414
10.6668
10.6932
10.7202
10.7472
10.7755
10.8036
10.8313
10.8606
10.8875
10.9132
10.9413
10.9701
10.9957
11.0156
11.0328
11.0572
11.0907
11.1266
11.1584
11.1812
11.1928
11.1985
11.2096
11.2345
11.2713
11.3104
11.3432
11.3648
11.3769
11.3868
11.4003
11.4216
11.4496
11.4789
11.5044
11.523
11.5355
11.5458
11.5601
11.5827
11.6131
11.645
11.6704
11.684
11.6876
11.6889
11.6958
11.7121
11.7344
11.756
11.7721
11.783
11.7939
11.8107
11.8338
11.8567
11.8713
11.8753
11.8763
11.8818
11.8942
11.9117
11.9289
11.941
11.9474
11.9507
11.9541
11.9597
11.9691
11.9829
12.0001
12.0159
12.0254
12.0247
12.0151
12.0024
11.9955
12.0012
12.0165
12.0332
12.0419
12.0412
12.0342
1
1
1
1
1
1
1
1
1
1
1
1
1
1
1
1
1
1
1
1
1
1
1
1
1
1
1
1
1
1
1
1
1
1
1
1
1
1
1
1
1
1
1
1
1
1
1
1
1
1
1
1
1
1
1
1
1
1
1
1
1
1
1
1
1
1
1
1
1
1
1
1
1
1
1
1
1
1
1
1
1
1
1
1
1
1
1
1
1
1
1
1
1
1
1
1
1
1
4.01261
9.91691
10.3942
10.4112
10.447
10.475
10.5052
10.535
10.5643
10.592
10.6181
10.6498
10.6878
10.7263
10.762
10.7918
10.8144
10.8324
10.8509
10.8707
10.8955
10.9328
10.9729
11.0076
11.0309
11.0433
11.0566
11.0783
11.1096
11.1456
11.1766
11.1964
11.2062
11.2159
11.2348
11.2664
11.3046
11.3391
11.3628
11.3759
11.3856
11.3985
11.4206
11.45
11.4798
11.5039
11.5196
11.5294
11.539
11.5552
11.5809
11.613
11.6442
11.6672
11.6792
11.6836
11.6875
11.6968
11.713
11.7328
11.7513
11.7663
11.7787
11.7926
11.8116
11.834
11.8538
11.8656
11.8695
11.8723
11.8803
11.8949
11.913
11.9286
11.938
11.9424
11.9453
11.9498
11.9571
11.9676
11.9817
11.9983
12.0135
12.0224
12.0212
12.0115
11.999
11.9928
11.9993
12.0151
12.0315
12.0394
12.0376
12.0297
1
1
1
1
1
1
1
1
1
1
1
1
1
1
1
1
1
1
1
1
1
1
1
1
1
1
1
1
1
1
1
1
1
1
1
1
1
1
1
1
1
1
1
1
1
1
1
1
1
1
1
1
1
1
1
1
1
1
1
1
1
1
1
1
1
1
1
1
1
1
1
1
1
1
1
1
1
1
1
1
1
1
1
1
1
1
1
1
1
1
1
1
1
1
1
1
1
1
3.89885
9.84936
10.3857
10.4114
10.4574
10.4927
10.5215
10.541
10.5562
10.5731
10.5978
10.6385
10.6885
10.7374
10.7778
10.8049
10.82
10.8287
10.839
10.8567
10.8855
10.9315
10.9791
11.0171
11.0394
11.0472
11.0527
11.0668
11.0956
11.1359
11.1732
11.1986
11.2113
11.2201
11.2353
11.2641
11.3016
11.336
11.3595
11.3722
11.3818
11.395
11.4192
11.4507
11.4807
11.5028
11.5154
11.5228
11.5324
11.551
11.5794
11.6122
11.6417
11.6621
11.6731
11.6791
11.6862
11.6981
11.714
11.7308
11.7461
11.7596
11.7733
11.7905
11.8119
11.834
11.8512
11.86
11.8631
11.8672
11.8776
11.8948
11.9138
11.9283
11.9355
11.9378
11.9396
11.9443
11.9529
11.9651
11.9802
11.9967
12.0109
12.0186
12.0168
12.0072
11.9954
11.9901
11.9972
12.0129
12.0285
12.0355
12.0334
12.0256
1
1
1
1
1
1
1
1
1
1
1
1
1
1
1
1
1
1
1
1
1
1
1
1
1
1
1
1
1
1
1
1
1
1
1
1
1
1
1
1
1
1
1
1
1
1
1
1
1
1
1
1
1
1
1
1
1
1
1
1
1
1
1
1
1
1
1
1
1
1
1
1
1
1
1
1
1
1
1
1
1
1
1
1
1
1
1
1
1
1
1
1
1
1
1
1
1
1
3.76476
9.79454
10.3673
10.4053
10.4613
10.5037
10.5336
10.5477
10.5529
10.5608
10.5856
10.6323
10.6897
10.743
10.7841
10.8085
10.8186
10.8216
10.8278
10.8476
10.8828
10.9336
10.9826
11.02
11.0401
11.0451
11.0461
11.0566
11.0854
11.1293
11.1709
11.2
11.2145
11.2228
11.2362
11.2632
11.2991
11.332
11.3542
11.3664
11.3764
11.3916
11.4186
11.4514
11.4806
11.5001
11.5099
11.5159
11.5266
11.548
11.5785
11.6109
11.6378
11.6557
11.6663
11.6745
11.6851
11.6991
11.7141
11.7278
11.7403
11.7528
11.7678
11.7877
11.8111
11.8327
11.8476
11.8542
11.8569
11.8623
11.8748
11.8938
11.9133
11.9269
11.9326
11.9334
11.9342
11.9386
11.9479
11.9614
11.9777
11.9945
12.0079
12.0144
12.0118
12.0022
11.9914
11.9874
11.9948
12.0099
12.0243
12.0307
12.0286
12.0215
1
1
1
1
1
1
1
1
1
1
1
1
1
1
1
1
1
1
1
1
1
1
1
1
1
1
1
1
1
1
1
1
1
1
1
1
1
1
1
1
1
1
1
1
1
1
1
1
1
1
1
1
1
1
1
1
1
1
1
1
1
1
1
1
1
1
1
1
1
1
1
1
1
1
1
1
1
1
1
1
1
1
1
1
1
1
1
1
1
1
1
1
1
1
1
1
1
1
3.60616
9.75089
10.345
10.3955
10.4571
10.5056
10.5387
10.5532
10.5561
10.5602
10.5817
10.6282
10.6852
10.7375
10.7782
10.8029
10.8128
10.8158
10.8216
10.8431
10.8823
10.9335
10.9811
11.0172
11.0363
11.0402
11.0399
11.0494
11.0789
11.1247
11.1687
11.2004
11.2168
11.2254
11.2378
11.2623
11.2949
11.3251
11.3462
11.3593
11.3719
11.3904
11.4192
11.4513
11.4783
11.4949
11.5028
11.5094
11.523
11.5468
11.5774
11.6076
11.6316
11.6479
11.6593
11.6705
11.6841
11.6989
11.7122
11.7231
11.7339
11.7466
11.7635
11.7853
11.8091
11.8292
11.8419
11.8475
11.8511
11.8584
11.8726
11.8921
11.9109
11.9233
11.9282
11.9286
11.9293
11.9335
11.9428
11.9566
11.9737
11.991
12.0041
12.0099
12.0068
11.9972
11.9872
11.9841
11.9916
12.0062
12.0195
12.0253
12.0235
12.0174
1
1
1
1
1
1
1
1
1
1
1
1
1
1
1
1
1
1
1
1
1
1
1
1
1
1
1
1
1
1
1
1
1
1
1
1
1
1
1
1
1
1
1
1
1
1
1
1
1
1
1
1
1
1
1
1
1
1
1
1
1
1
1
1
1
1
1
1
1
1
1
1
1
1
1
1
1
1
1
1
1
1
1
1
1
1
1
1
1
1
1
1
1
1
1
1
1
1
3.43095
9.71669
10.3296
10.3833
10.4426
10.494
10.5324
10.5528
10.5605
10.5672
10.5856
10.6259
10.6773
10.726
10.7656
10.7927
10.807
10.8139
10.8212
10.8414
10.8802
10.9285
10.9747
11.0105
11.0311
11.037
11.0375
11.0468
11.0753
11.1205
11.1654
11.1998
11.2193
11.2291
11.2401
11.2602
11.2873
11.3142
11.3359
11.3532
11.3704
11.3917
11.4199
11.4488
11.4719
11.4866
11.4955
11.5059
11.5228
11.547
11.5749
11.6012
11.6224
11.6388
11.6531
11.6683
11.6839
11.6977
11.7079
11.7163
11.7265
11.741
11.7608
11.7842
11.8066
11.8236
11.8337
11.8395
11.8455
11.8558
11.8717
11.8905
11.9071
11.9175
11.9219
11.9232
11.9251
11.9297
11.9382
11.9511
11.968
11.9858
11.9995
12.0053
12.0019
11.992
11.9824
11.9798
11.9874
12.0015
12.0142
12.0196
12.0178
12.0125
1
1
1
1
1
1
1
1
1
1
1
1
1
1
1
1
1
1
1
1
1
1
1
1
1
1
1
1
1
1
1
1
1
1
1
1
1
1
1
1
1
1
1
1
1
1
1
1
1
1
1
1
1
1
1
1
1
1
1
1
1
1
1
1
1
1
1
1
1
1
1
1
1
1
1
1
1
1
1
1
1
1
1
1
1
1
1
1
1
1
1
1
1
1
1
1
1
1
3.24292
9.66729
10.3272
10.3703
10.427
10.4802
10.5243
10.553
10.5665
10.5746
10.5892
10.6211
10.6663
10.7121
10.7525
10.7841
10.8046
10.8156
10.8235
10.8399
10.8741
10.9185
10.9638
11.0017
11.0265
11.037
11.0395
11.0482
11.0733
11.1153
11.1603
11.1977
11.2214
11.2331
11.2419
11.2556
11.2759
11.3006
11.326
11.3499
11.372
11.3945
11.419
11.442
11.461
11.4762
11.49
11.5063
11.5259
11.5479
11.5701
11.5908
11.61
11.6287
11.6485
11.6682
11.6847
11.6954
11.7013
11.7073
11.718
11.7358
11.7595
11.784
11.8038
11.8163
11.8236
11.8301
11.8397
11.8542
11.8717
11.8889
11.902
11.9097
11.9138
11.9171
11.9213
11.9267
11.9339
11.9448
11.9605
11.9788
11.994
12.0008
11.9972
11.9867
11.9768
11.9744
11.9821
11.9964
12.0089
12.0139
12.0117
12.0068
1
1
1
1
1
1
1
1
1
1
1
1
1
1
1
1
1
1
1
1
1
1
1
1
1
1
1
1
1
1
1
1
1
1
1
1
1
1
1
1
1
1
1
1
1
1
1
1
1
1
1
1
1
1
1
1
1
1
1
1
1
1
1
1
1
1
1
1
1
1
1
1
1
1
1
1
1
1
1
1
1
1
1
1
1
1
1
1
1
1
1
1
1
1
1
1
1
1
3.04705
9.57553
10.3412
10.3602
10.4154
10.4695
10.5165
10.5505
10.5688
10.5781
10.5898
10.6151
10.6557
10.7006
10.7438
10.7802
10.805
10.8177
10.8246
10.8363
10.8646
10.9052
10.9507
10.9924
11.0227
11.0384
11.0438
11.0515
11.0719
11.1097
11.1548
11.1954
11.2229
11.2354
11.2407
11.2472
11.2614
11.2869
11.3193
11.3504
11.3762
11.3967
11.4145
11.43
11.4462
11.4654
11.4877
11.5109
11.5318
11.5487
11.5628
11.5769
11.5947
11.6183
11.6455
11.67
11.686
11.6917
11.6923
11.6961
11.7081
11.7305
11.7587
11.784
11.8004
11.8082
11.8126
11.8199
11.8336
11.8524
11.8714
11.8862
11.8958
11.9009
11.9049
11.9104
11.9175
11.9236
11.9292
11.9378
11.9519
11.9707
11.9879
11.9961
11.9924
11.9812
11.9704
11.9679
11.9761
11.991
12.0036
12.0081
12.0051
12.0003
1
1
1
1
1
1
1
1
1
1
1
1
1
1
1
1
1
1
1
1
1
1
1
1
1
1
1
1
1
1
1
1
1
1
1
1
1
1
1
1
1
1
1
1
1
1
1
1
1
1
1
1
1
1
1
1
1
1
1
1
1
1
1
1
1
1
1
1
1
1
1
1
1
1
1
1
1
1
1
1
1
1
1
1
1
1
1
1
1
1
1
1
1
1
1
1
1
1
2.84435
9.44629
10.3578
10.3632
10.4129
10.4636
10.5097
10.5439
10.5631
10.5734
10.5858
10.6096
10.6493
10.6954
10.7413
10.7803
10.8058
10.8168
10.8214
10.8299
10.8542
10.8929
10.9391
10.9841
11.0189
11.0389
11.0464
11.053
11.0694
11.1051
11.1511
11.1935
11.2222
11.233
11.2338
11.234
11.246
11.2774
11.3179
11.3547
11.3808
11.396
11.405
11.4134
11.4294
11.4561
11.4885
11.5184
11.5381
11.5477
11.5527
11.5605
11.5782
11.6085
11.6437
11.6723
11.6863
11.6859
11.6822
11.6844
11.6985
11.726
11.758
11.7833
11.7962
11.7997
11.8019
11.8101
11.8274
11.8499
11.8693
11.8817
11.8884
11.8918
11.8962
11.9041
11.9135
11.9195
11.9232
11.93
11.9429
11.9623
11.9815
11.9909
11.987
11.9749
11.9632
11.9606
11.9695
11.9853
11.9981
12.0019
11.9978
11.9929
1
1
1
1
1
1
1
1
1
1
1
1
1
1
1
1
1
1
1
1
1
1
1
1
1
1
1
1
1
1
1
1
1
1
1
1
1
1
1
1
1
1
1
1
1
1
1
1
1
1
1
1
1
1
1
1
1
1
1
1
1
1
1
1
1
1
1
1
1
1
1
1
1
1
1
1
1
1
1
1
1
1
1
1
1
1
1
1
1
1
1
1
1
1
1
1
1
1
2.63523
9.29487
10.3639
10.3697
10.412
10.4583
10.5031
10.536
10.5542
10.5651
10.5803
10.6068
10.648
10.6958
10.7427
10.7814
10.8048
10.8122
10.8145
10.823
10.8474
10.8858
10.9319
10.9772
11.0132
11.0347
11.0439
11.0512
11.0675
11.1042
11.1507
11.1922
11.2182
11.2248
11.2205
11.2173
11.2338
11.2747
11.3218
11.361
11.383
11.39
11.3905
11.3943
11.4132
11.45
11.4925
11.5263
11.542
11.5428
11.5403
11.5441
11.5635
11.6009
11.6429
11.6728
11.6831
11.6778
11.6709
11.6728
11.6901
11.7222
11.7565
11.7805
11.7899
11.7905
11.7918
11.8014
11.8216
11.8459
11.8646
11.8749
11.88
11.8831
11.8886
11.8987
11.9089
11.9136
11.9156
11.9212
11.9341
11.9545
11.9751
11.9848
11.9803
11.9675
11.9553
11.953
11.9628
11.9793
11.9921
11.9949
11.9898
11.9851
1
1
1
1
1
1
1
1
1
1
1
1
1
1
1
1
1
1
1
1
1
1
1
1
1
1
1
1
1
1
1
1
1
1
1
1
1
1
1
1
1
1
1
1
1
1
1
1
1
1
1
1
1
1
1
1
1
1
1
1
1
1
1
1
1
1
1
1
1
1
1
1
1
1
1
1
1
1
1
1
1
1
1
1
1
1
1
1
1
1
1
1
1
1
1
1
1
1
2.42126
9.12043
10.367
10.3785
10.4149
10.4563
10.4968
10.526
10.5429
10.5569
10.5774
10.608
10.65
10.6978
10.7435
10.7791
10.7978
10.8029
10.8073
10.8201
10.8475
10.8857
10.9294
10.9711
11.0035
11.0233
11.0342
11.0454
11.0673
11.1077
11.1536
11.1907
11.2105
11.2103
11.2022
11.2013
11.2289
11.2785
11.3288
11.3648
11.3797
11.3775
11.3719
11.3753
11.4026
11.4496
11.4979
11.53
11.5395
11.5334
11.5259
11.5291
11.5534
11.5969
11.6416
11.6695
11.6748
11.6667
11.6589
11.6628
11.6848
11.7202
11.7541
11.7747
11.7809
11.7804
11.7827
11.7947
11.8168
11.8406
11.8569
11.8655
11.8707
11.8751
11.8825
11.8939
11.903
11.9053
11.9059
11.9115
11.9256
11.9476
11.9685
11.9774
11.9721
11.9589
11.947
11.9457
11.9562
11.9727
11.9848
11.9868
11.9812
11.9771
1
1
1
1
1
1
1
1
1
1
1
1
1
1
1
1
1
1
1
1
1
1
1
1
1
1
1
1
1
1
1
1
1
1
1
1
1
1
1
1
1
1
1
1
1
1
1
1
1
1
1
1
1
1
1
1
1
1
1
1
1
1
1
1
1
1
1
1
1
1
1
1
1
1
1
1
1
1
1
1
1
1
1
1
1
1
1
1
1
1
1
1
1
1
1
1
1
1
2.20466
8.91844
10.3717
10.384
10.4164
10.4527
10.4893
10.5159
10.5332
10.5525
10.5792
10.6133
10.6538
10.698
10.7394
10.7695
10.7847
10.7925
10.8039
10.8237
10.8539
10.8906
10.9295
10.9647
10.9906
11.007
11.0202
11.0381
11.0685
11.1128
11.1564
11.1865
11.1975
11.1925
11.1831
11.1916
11.2323
11.2866
11.3343
11.3633
11.3684
11.3602
11.3523
11.3621
11.4011
11.4544
11.5016
11.5279
11.5299
11.5197
11.511
11.518
11.5494
11.5963
11.6389
11.6616
11.6614
11.6523
11.6466
11.6558
11.6835
11.72
11.7502
11.7655
11.7687
11.7685
11.7737
11.7896
11.8128
11.834
11.8469
11.8541
11.8601
11.8675
11.8778
11.8895
11.8961
11.8952
11.8946
11.9011
11.9176
11.9417
11.9618
11.9685
11.9621
11.9491
11.9385
11.9388
11.9499
11.9654
11.9759
11.9774
11.972
11.9693
1
1
1
1
1
1
1
1
1
1
1
1
1
1
1
1
1
1
1
1
1
1
1
1
1
1
1
1
1
1
1
1
1
1
1
1
1
1
1
1
1
1
1
1
1
1
1
1
1
1
1
1
1
1
1
1
1
1
1
1
1
1
1
1
1
1
1
1
1
1
1
1
1
1
1
1
1
1
1
1
1
1
1
1
1
1
1
1
1
1
1
1
1
1
1
1
1
1
1.99176
8.68416
10.3801
10.389
10.4182
10.4494
10.4817
10.5052
10.5246
10.5508
10.5836
10.6194
10.6567
10.6946
10.7286
10.7524
10.7674
10.783
10.8039
10.8308
10.8629
10.8967
10.9293
10.9562
10.9749
10.9888
11.0059
11.0322
11.0707
11.1162
11.1554
11.1771
11.1797
11.1735
11.168
11.1906
11.241
11.2941
11.3346
11.3538
11.3495
11.3382
11.3341
11.3563
11.406
11.4607
11.5017
11.5196
11.5145
11.5027
11.4973
11.5121
11.551
11.598
11.634
11.6486
11.6436
11.6352
11.635
11.6526
11.6861
11.7211
11.7446
11.7533
11.7536
11.7549
11.765
11.7859
11.8097
11.8268
11.8352
11.8409
11.8484
11.8599
11.8744
11.8852
11.8875
11.8837
11.882
11.89
11.91
11.936
11.9542
11.9578
11.9504
11.9383
11.93
11.9323
11.9437
11.957
11.9654
11.9665
11.9624
11.9619
1
1
1
1
1
1
1
1
1
1
1
1
1
1
1
1
1
1
1
1
1
1
1
1
1
1
1
1
1
1
1
1
1
1
1
1
1
1
1
1
1
1
1
1
1
1
1
1
1
1
1
1
1
1
1
1
1
1
1
1
1
1
1
1
1
1
1
1
1
1
1
1
1
1
1
1
1
1
1
1
1
1
1
1
1
1
1
1
1
1
1
1
1
1
1
1
1
1
1.79545
8.41619
10.3797
10.3887
10.4152
10.4428
10.4725
10.4959
10.5203
10.5523
10.5879
10.6223
10.6547
10.6851
10.7117
10.7318
10.7506
10.7761
10.8065
10.8387
10.8707
10.9005
10.9259
10.9446
10.9583
10.9725
10.9948
11.0284
11.0712
11.1152
11.1478
11.1615
11.1602
11.1561
11.1609
11.1984
11.2515
11.2987
11.3292
11.3359
11.3258
11.3151
11.3218
11.3597
11.4157
11.4664
11.4979
11.5047
11.4951
11.4843
11.4858
11.5107
11.5547
11.5986
11.6257
11.631
11.6236
11.6171
11.6247
11.6525
11.6904
11.7213
11.7364
11.7388
11.7369
11.7402
11.7563
11.7827
11.8066
11.8188
11.8223
11.8266
11.8359
11.8521
11.8707
11.8807
11.878
11.871
11.8687
11.879
11.9025
11.9298
11.9457
11.9458
11.9373
11.927
11.9219
11.9264
11.9371
11.9473
11.9531
11.9545
11.9525
11.955
1
1
1
1
1
1
1
1
1
1
1
1
1
1
1
1
1
1
1
1
1
1
1
1
1
1
1
1
1
1
1
1
1
1
1
1
1
1
1
1
1
1
1
1
1
1
1
1
1
1
1
1
1
1
1
1
1
1
1
1
1
1
1
1
1
1
1
1
1
1
1
1
1
1
1
1
1
1
1
1
1
1
1
1
1
1
1
1
1
1
1
1
1
1
1
1
1
1
1.61538
8.1179
10.3811
10.3852
10.4114
10.4371
10.4648
10.4893
10.5175
10.5523
10.5878
10.6199
10.6483
10.6739
10.6968
10.7168
10.74
10.7716
10.807
10.8416
10.8725
10.8987
10.9184
10.9323
10.9446
10.9617
10.9886
11.0257
11.0685
11.1081
11.1333
11.1414
11.1411
11.1431
11.1624
11.2098
11.2594
11.2978
11.3166
11.3126
11.2995
11.2945
11.3157
11.3672
11.4241
11.4682
11.4895
11.4868
11.4749
11.467
11.4766
11.5111
11.5571
11.5957
11.614
11.6119
11.6035
11.6008
11.6182
11.655
11.6936
11.7184
11.7255
11.723
11.7199
11.726
11.7484
11.7792
11.8021
11.8093
11.809
11.8118
11.8233
11.8445
11.8659
11.8746
11.8676
11.8576
11.8551
11.868
11.8948
11.9222
11.9354
11.9326
11.9232
11.9152
11.914
11.9207
11.9297
11.9362
11.9394
11.9414
11.9422
11.9483
1
1
1
1
1
1
1
1
1
1
1
1
1
1
1
1
1
1
1
1
1
1
1
1
1
1
1
1
1
1
1
1
1
1
1
1
1
1
1
1
1
1
1
1
1
1
1
1
1
1
1
1
1
1
1
1
1
1
1
1
1
1
1
1
1
1
1
1
1
1
1
1
1
1
1
1
1
1
1
1
1
1
1
1
1
1
1
1
1
1
1
1
1
1
1
1
1
1
1.4456
7.78266
10.3778
10.3843
10.4089
10.4328
10.4591
10.4856
10.5161
10.5504
10.5827
10.6114
10.6377
10.6627
10.6865
10.7097
10.7363
10.7688
10.8029
10.8364
10.8668
10.8917
10.9095
10.9226
10.9365
10.9564
10.9853
11.022
11.0614
11.095
11.1146
11.1213
11.1251
11.1374
11.1698
11.2184
11.2624
11.2907
11.2978
11.2879
11.2753
11.2806
11.3173
11.3745
11.4279
11.4637
11.4752
11.4678
11.4566
11.4536
11.4716
11.5115
11.5555
11.5865
11.597
11.5919
11.5842
11.5886
11.6165
11.6577
11.693
11.7105
11.7113
11.7064
11.7036
11.7138
11.7418
11.7745
11.7948
11.7976
11.7949
11.7971
11.8114
11.8372
11.8598
11.8662
11.8562
11.844
11.8419
11.8573
11.8866
11.9131
11.9233
11.9183
11.9089
11.9034
11.9061
11.9147
11.9215
11.9239
11.9245
11.9274
11.9316
11.9415
1
1
1
1
1
1
1
1
1
1
1
1
1
1
1
1
1
1
1
1
1
1
1
1
1
1
1
1
1
1
1
1
1
1
1
1
1
1
1
1
1
1
1
1
1
1
1
1
1
1
1
1
1
1
1
1
1
1
1
1
1
1
1
1
1
1
1
1
1
1
1
1
1
1
1
1
1
1
1
1
1
1
1
1
1
1
1
1
1
1
1
1
1
1
1
1
1
1
1.29017
7.43191
10.3697
10.3795
10.4012
10.426
10.4534
10.4824
10.5136
10.5452
10.5732
10.5985
10.6244
10.6521
10.6809
10.7091
10.7375
10.767
10.7957
10.8252
10.8544
10.8801
10.9004
10.9169
10.9335
10.954
10.9814
11.015
11.05
11.0786
11.0959
11.1052
11.1162
11.1384
11.1765
11.2213
11.2578
11.2761
11.2754
11.2645
11.2575
11.2756
11.3228
11.3786
11.4258
11.4526
11.4564
11.4483
11.4402
11.4445
11.4705
11.5111
11.5494
11.5716
11.5759
11.5712
11.5681
11.5833
11.6193
11.6593
11.6874
11.697
11.6942
11.689
11.6893
11.7052
11.7371
11.768
11.7841
11.7835
11.7797
11.7833
11.801
11.8302
11.8521
11.8555
11.8434
11.83
11.8291
11.8469
11.8776
11.9022
11.9094
11.903
11.8944
11.8916
11.898
11.9079
11.9121
11.9107
11.9089
11.9128
11.9207
11.934
1
1
1
1
1
1
1
1
1
1
1
1
1
1
1
1
1
1
1
1
1
1
1
1
1
1
1
1
1
1
1
1
1
1
1
1
1
1
1
1
1
1
1
1
1
1
1
1
1
1
1
1
1
1
1
1
1
1
1
1
1
1
1
1
1
1
1
1
1
1
1
1
1
1
1
1
1
1
1
1
1
1
1
1
1
1
1
1
1
1
1
1
1
1
1
1
1
1
1.12928
7.04313
10.3658
10.3806
10.394
10.4199
10.4487
10.4808
10.5129
10.5409
10.5635
10.5853
10.6115
10.6428
10.6766
10.7089
10.7376
10.7633
10.7869
10.8121
10.8398
10.8677
10.8931
10.9145
10.9329
10.9517
10.9752
11.0042
11.0349
11.0613
11.0802
11.0954
11.1142
11.1422
11.1791
11.218
11.2458
11.2565
11.2532
11.2449
11.248
11.2779
11.3284
11.3791
11.4176
11.4355
11.4345
11.4279
11.426
11.4397
11.4722
11.51
11.5389
11.5516
11.552
11.5493
11.556
11.5847
11.6247
11.6584
11.6759
11.6777
11.6735
11.6708
11.6771
11.7004
11.7335
11.7598
11.7697
11.7669
11.7637
11.7704
11.7924
11.8229
11.8426
11.8424
11.829
11.8158
11.8168
11.8368
11.8677
11.8897
11.8941
11.887
11.8797
11.8799
11.8895
11.8999
11.9015
11.8967
11.893
11.898
11.9093
11.9252
1
1
1
1
1
1
1
1
1
1
1
1
1
1
1
1
1
1
1
1
1
1
1
1
1
1
1
1
1
1
1
1
1
1
1
1
1
1
1
1
1
1
1
1
1
1
1
1
1
1
1
1
1
1
1
1
1
1
1
1
1
1
1
1
1
1
1
1
1
1
1
1
1
1
1
1
1
1
1
1
1
1
1
1
1
1
1
1
1
1
1
1
1
1
1
1
1
1
1.0065
6.6612
10.3105
10.3556
10.3765
10.4083
10.4391
10.4722
10.5033
10.5302
10.5534
10.5772
10.6049
10.6371
10.6721
10.7063
10.7357
10.7584
10.7777
10.7998
10.8271
10.8576
10.8873
10.9123
10.9311
10.947
10.9658
10.9902
11.0183
11.0452
11.0686
11.0906
11.1148
11.1443
11.1777
11.2091
11.229
11.2346
11.2326
11.2305
11.2444
11.2829
11.3319
11.3765
11.4054
11.4148
11.411
11.4067
11.4128
11.4378
11.4748
11.5079
11.5259
11.5291
11.5267
11.5281
11.5491
11.5899
11.6298
11.6543
11.6602
11.6558
11.6507
11.6528
11.6683
11.6985
11.7301
11.7491
11.7514
11.7473
11.7466
11.7585
11.7856
11.8153
11.8308
11.8271
11.8129
11.8013
11.8052
11.8271
11.8568
11.8756
11.8773
11.8703
11.8648
11.868
11.8802
11.8903
11.8895
11.882
11.8771
11.8831
11.8972
11.9148
1
1
1
1
1
1
1
1
1
1
1
1
1
1
1
1
1
1
1
1
1
1
1
1
1
1
1
1
1
1
1
1
1
1
1
1
1
1
1
1
1
1
1
1
1
1
1
1
1
1
1
1
1
1
1
1
1
1
1
1
1
1
1
1
1
1
1
1
1
1
1
1
1
1
1
1
1
1
1
1
1
1
1
1
1
1
1
1
1
1
1
1
1
1
1
1
1
1
1.00005
6.16256
10.2385
10.3384
10.3679
10.4026
10.4327
10.4644
10.4946
10.5227
10.5479
10.573
10.601
10.6321
10.6652
10.6973
10.7249
10.7466
10.7665
10.7903
10.8199
10.8527
10.8838
10.9089
10.9261
10.9391
10.9543
10.9759
11.003
11.032
11.06
11.0869
11.1139
11.1425
11.1713
11.1958
11.2103
11.2142
11.2149
11.2203
11.2436
11.2856
11.3319
11.3703
11.3912
11.3935
11.388
11.386
11.4007
11.4358
11.4754
11.5027
11.5109
11.5068
11.502
11.5101
11.5462
11.5944
11.631
11.6455
11.6412
11.6314
11.627
11.6357
11.6623
11.6977
11.725
11.7354
11.7314
11.726
11.7292
11.7485
11.7801
11.807
11.8167
11.8095
11.7955
11.7867
11.7941
11.8178
11.8451
11.8598
11.8592
11.8529
11.8497
11.8559
11.8699
11.8792
11.8762
11.8669
11.8614
11.8683
11.8844
11.9027
1
1
1
1
1
1
1
1
1
1
1
1
1
1
1
1
1
1
1
1
1
1
1
1
1
1
1
1
1
1
1
1
1
1
1
1
1
1
1
1
1
1
1
1
1
1
1
1
1
1
1
1
1
1
1
1
1
1
1
1
1
1
1
1
1
1
1
1
1
1
1
1
1
1
1
1
1
1
1
1
1
1
1
1
1
1
1
1
1
1
1
1
1
1
1
1
1
1
1
5.62007
10.1674
10.3286
10.3588
10.3936
10.4236
10.4551
10.4859
10.5162
10.5448
10.5715
10.5981
10.6262
10.6559
10.6856
10.7133
10.7374
10.7602
10.7863
10.8167
10.8489
10.8786
10.9016
10.9167
10.9281
10.9425
10.9637
10.991
11.0215
11.052
11.0812
11.1091
11.1358
11.1604
11.1803
11.1923
11.1971
11.2017
11.2132
11.2416
11.2833
11.3263
11.3593
11.3747
11.3733
11.367
11.3682
11.3908
11.432
11.4715
11.4934
11.494
11.4859
11.4811
11.4987
11.5456
11.5957
11.6267
11.6316
11.6202
11.6066
11.6046
11.6217
11.6581
11.696
11.7172
11.7181
11.7099
11.7042
11.7126
11.7399
11.7743
11.7967
11.7998
11.79
11.777
11.772
11.7837
11.8089
11.8324
11.8424
11.8399
11.8347
11.8343
11.8436
11.8586
11.8663
11.8617
11.8512
11.8458
11.8533
11.8706
11.8887
1
1
1
1
1
1
1
1
1
1
1
1
1
1
1
1
1
1
1
1
1
1
1
1
1
1
1
1
1
1
1
1
1
1
1
1
1
1
1
1
1
1
1
1
1
1
1
1
1
1
1
1
1
1
1
1
1
1
1
1
1
1
1
1
1
1
1
1
1
1
1
1
1
1
1
1
1
1
1
1
1
1
1
1
1
1
1
1
1
1
1
1
1
1
1
1
1
1
1
5.06126
10.0712
10.3146
10.3535
10.3882
10.4183
10.45
10.4807
10.5111
10.5403
10.5662
10.5907
10.6161
10.6439
10.6739
10.7044
10.7329
10.7591
10.7856
10.8131
10.8404
10.8653
10.8862
10.9025
10.9172
10.9346
10.9569
10.9835
11.0129
11.0432
11.0726
11.1
11.1246
11.1463
11.1638
11.1756
11.1832
11.1925
11.2091
11.2388
11.2772
11.315
11.3431
11.3552
11.3537
11.3494
11.3561
11.3845
11.4259
11.4614
11.478
11.4751
11.4663
11.4666
11.4944
11.5449
11.591
11.6149
11.6127
11.5968
11.5826
11.5852
11.6118
11.6547
11.6906
11.7048
11.6985
11.6874
11.6833
11.6985
11.7325
11.7667
11.7838
11.7812
11.7691
11.7579
11.7577
11.7743
11.7997
11.8182
11.8232
11.8196
11.8157
11.8184
11.8311
11.8462
11.8519
11.8459
11.8349
11.83
11.8382
11.856
11.8729
1
1
1
1
1
1
1
1
1
1
1
1
1
1
1
1
1
1
1
1
1
1
1
1
1
1
1
1
1
1
1
1
1
1
1
1
1
1
1
1
1
1
1
1
1
1
1
1
1
1
1
1
1
1
1
1
1
1
1
1
1
1
1
1
1
1
1
1
1
1
1
1
1
1
1
1
1
1
1
1
1
1
1
1
1
1
1
1
1
1
1
1
1
1
1
1
1
1
1
4.50919
9.93221
10.3068
10.3466
10.3819
10.4135
10.4459
10.4764
10.5058
10.5344
10.5596
10.5819
10.6055
10.6335
10.6652
10.6984
10.7299
10.7574
10.7814
10.8031
10.8243
10.8462
10.8691
10.8909
10.9116
10.9322
10.9537
10.9771
11.0034
11.032
11.0606
11.0875
11.111
11.1309
11.1469
11.1593
11.1706
11.1852
11.2063
11.2357
11.2688
11.2991
11.3212
11.3313
11.3325
11.3348
11.3505
11.3822
11.4187
11.4463
11.4567
11.4537
11.4492
11.4592
11.4954
11.5437
11.5811
11.5959
11.5886
11.5717
11.5609
11.5709
11.606
11.6506
11.6806
11.687
11.6767
11.6644
11.6645
11.6874
11.7256
11.7563
11.7672
11.7605
11.7474
11.7387
11.7442
11.7655
11.7892
11.802
11.8026
11.7983
11.7964
11.8026
11.8182
11.8324
11.8357
11.8287
11.8179
11.8141
11.8229
11.8404
11.8554
1
1
1
1
1
1
1
1
1
1
1
1
1
1
1
1
1
1
1
1
1
1
1
1
1
1
1
1
1
1
1
1
1
1
1
1
1
1
1
1
1
1
1
1
1
1
1
1
1
1
1
1
1
1
1
1
1
1
1
1
1
1
1
1
1
1
1
1
1
1
1
1
1
1
1
1
1
1
1
1
1
1
1
1
1
1
1
1
1
1
1
1
1
1
1
1
1
1
1
3.96497
9.7498
10.3052
10.34
10.3759
10.4081
10.4411
10.4715
10.4997
10.5273
10.5518
10.5734
10.5965
10.6253
10.6584
10.6926
10.725
10.7516
10.7716
10.7878
10.8061
10.829
10.8558
10.883
10.908
10.9295
10.9485
10.9682
10.9915
11.0189
11.0475
11.075
11.0986
11.1171
11.1309
11.1425
11.157
11.1776
11.2034
11.2322
11.2595
11.281
11.2952
11.3032
11.3098
11.3236
11.3497
11.3817
11.4098
11.4269
11.4313
11.43
11.4345
11.4576
11.4981
11.5398
11.566
11.571
11.5604
11.546
11.5428
11.5625
11.6031
11.6436
11.6657
11.6649
11.6527
11.6419
11.6488
11.6792
11.7177
11.7427
11.747
11.7375
11.7252
11.7205
11.7321
11.7565
11.7766
11.7835
11.7808
11.7762
11.7768
11.7873
11.8048
11.8171
11.8178
11.8099
11.8001
11.7979
11.8074
11.8238
11.8361
1
1
1
1
1
1
1
1
1
1
1
1
1
1
1
1
1
1
1
1
1
1
1
1
1
1
1
1
1
1
1
1
1
1
1
1
1
1
1
1
1
1
1
1
1
1
1
1
1
1
1
1
1
1
1
1
1
1
1
1
1
1
1
1
1
1
1
1
1
1
1
1
1
1
1
1
1
1
1
1
1
1
1
1
1
1
1
1
1
1
1
1
1
1
1
1
1
1
1
3.4195
9.52763
10.3103
10.338
10.3738
10.4041
10.435
10.4642
10.4917
10.5193
10.544
10.5654
10.5883
10.617
10.65
10.6837
10.7162
10.7422
10.7597
10.7742
10.7935
10.8182
10.8466
10.8759
10.9019
10.9225
10.9391
10.9568
10.9788
11.0063
11.0359
11.0645
11.0882
11.1048
11.1156
11.1252
11.1426
11.1689
11.1991
11.2277
11.2497
11.2624
11.2685
11.2741
11.2874
11.3146
11.3494
11.3799
11.399
11.4055
11.4046
11.4063
11.4225
11.4577
11.4991
11.5316
11.5461
11.5423
11.5301
11.5209
11.5286
11.5594
11.6007
11.6329
11.6452
11.6391
11.627
11.6211
11.6369
11.6727
11.7076
11.7254
11.724
11.7127
11.7028
11.7037
11.7214
11.7463
11.7615
11.7626
11.7575
11.7538
11.7578
11.7726
11.7904
11.7998
11.798
11.7896
11.7815
11.7816
11.7916
11.8061
11.8151
1
1
1
1
1
1
1
1
1
1
1
1
1
1
1
1
1
1
1
1
1
1
1
1
1
1
1
1
1
1
1
1
1
1
1
1
1
1
1
1
1
1
1
1
1
1
1
1
1
1
1
1
1
1
1
1
1
1
1
1
1
1
1
1
1
1
1
1
1
1
1
1
1
1
1
1
1
1
1
1
1
1
1
1
1
1
1
1
1
1
1
1
1
1
1
1
1
1
1
2.87544
9.26638
10.3183
10.3397
10.3732
10.4022
10.431
10.4568
10.483
10.511
10.5366
10.5588
10.5824
10.6108
10.6419
10.6731
10.7041
10.7305
10.7491
10.7656
10.7867
10.8119
10.8393
10.8676
10.8927
10.912
10.9277
10.9454
10.9671
10.9945
11.0246
11.0537
11.077
11.092
11.1006
11.1097
11.1298
11.1597
11.1921
11.2203
11.238
11.2436
11.2434
11.248
11.269
11.306
11.3451
11.3733
11.3851
11.3837
11.3798
11.3859
11.4133
11.4558
11.4956
11.5183
11.5216
11.5118
11.5001
11.499
11.5195
11.5584
11.5963
11.6177
11.6199
11.6107
11.6003
11.6029
11.629
11.6667
11.6947
11.7042
11.6981
11.6869
11.6811
11.6884
11.7113
11.7339
11.7432
11.7396
11.7329
11.7316
11.7397
11.7583
11.7746
11.7801
11.7762
11.7678
11.7623
11.7652
11.7754
11.7872
11.7924
1
1
1
1
1
1
1
1
1
1
1
1
1
1
1
1
1
1
1
1
1
1
1
1
1
1
1
1
1
1
1
1
1
1
1
1
1
1
1
1
1
1
1
1
1
1
1
1
1
1
1
1
1
1
1
1
1
1
1
1
1
1
1
1
1
1
1
1
1
1
1
1
1
1
1
1
1
1
1
1
1
1
1
1
1
1
1
1
1
1
1
1
1
1
1
1
1
1
1
2.36635
8.92967
10.3348
10.3426
10.371
10.3956
10.4202
10.4446
10.471
10.5002
10.5278
10.5527
10.5777
10.6055
10.634
10.6613
10.6897
10.717
10.7389
10.7597
10.7829
10.8077
10.8325
10.8579
10.8815
10.9005
10.9174
10.9361
10.9572
10.9826
11.0116
11.0399
11.0628
11.0781
11.0881
11.0997
11.1214
11.1508
11.1813
11.2062
11.2192
11.2208
11.2198
11.2291
11.2575
11.2975
11.3355
11.3598
11.3666
11.3623
11.3588
11.3709
11.4058
11.4499
11.4847
11.4994
11.4947
11.4818
11.4723
11.4814
11.5147
11.5566
11.5868
11.5973
11.5916
11.5807
11.5746
11.5886
11.6236
11.659
11.6783
11.6794
11.67
11.6606
11.6605
11.6749
11.7006
11.7189
11.7218
11.7148
11.7077
11.7097
11.7229
11.7436
11.757
11.7581
11.7521
11.7449
11.7426
11.7485
11.7586
11.7668
11.7681
1
1
1
1
1
1
1
1
1
1
1
1
1
1
1
1
1
1
1
1
1
1
1
1
1
1
1
1
1
1
1
1
1
1
1
1
1
1
1
1
1
1
1
1
1
1
1
1
1
1
1
1
1
1
1
1
1
1
1
1
1
1
1
1
1
1
1
1
1
1
1
1
1
1
1
1
1
1
1
1
1
1
1
1
1
1
1
1
1
1
1
1
1
1
1
1
1
1
1
1.90987
8.5097
10.3707
10.3545
10.3771
10.398
10.418
10.4375
10.4614
10.4902
10.5196
10.547