/*--------------------------------*- C++ -*----------------------------------*\
  =========                 |
  \\      /  F ield         | OpenFOAM: The Open Source CFD Toolbox
   \\    /   O peration     | Website:  https://openfoam.org
    \\  /    A nd           | Version:  7
     \\/     M anipulation  |
\*---------------------------------------------------------------------------*/
FoamFile
{
    version     2.0;
    format      ascii;
    class       volScalarField;
    location    "3.8";
    object      rho;
}
// * * * * * * * * * * * * * * * * * * * * * * * * * * * * * * * * * * * * * //

dimensions      [1 -3 0 0 0 0 0];

internalField   nonuniform List<scalar> 
258048
(
1.40001
1.40001
1.40001
1.40001
1.40001
1.40001
1.40001
1.40001
1.40001
1.40001
1.40001
1.40001
1.40001
1.40001
1.40001
1.40001
1.40001
1.40001
1.40001
1.40001
1.40001
1.40001
1.40001
1.40001
1.40001
1.40001
1.40001
1.40001
1.40001
1.40001
1.40001
1.40001
1.40001
1.40001
1.40001
1.40001
1.40001
1.40001
1.40001
1.40001
1.40001
1.40001
1.40001
1.40001
1.40001
1.40001
1.40001
1.40001
1.40001
1.40001
1.40001
1.40001
1.40001
1.40001
1.40001
1.40001
1.40001
1.40001
1.40001
1.40001
1.40001
1.40001
1.40001
1.40001
1.40001
1.40001
1.40001
1.40001
1.40001
1.40001
1.40001
1.40001
1.40001
1.40001
1.40001
1.40001
1.40001
1.40001
1.40001
1.40001
1.40001
1.40001
1.40001
1.40001
1.40001
1.40001
1.40001
1.40001
1.40001
1.40001
1.40001
1.40001
1.40001
1.40001
1.40001
1.40001
1.40001
1.40001
3.06369
5.28772
5.44113
5.44154
5.43927
5.43567
5.43848
5.44919
5.46546
5.48486
5.50607
5.52637
5.54137
5.54849
5.54896
5.54581
5.55012
5.56861
5.59032
5.61234
5.62958
5.63554
5.62992
5.62153
5.61827
5.6346
5.66179
5.68658
5.70579
5.71349
5.70889
5.70101
5.69757
5.70604
5.72586
5.74685
5.76363
5.77204
5.77296
5.77217
5.77399
5.78036
5.79047
5.80192
5.81314
5.82361
5.83259
5.83923
5.84352
5.84691
5.85173
5.85986
5.87116
5.88253
5.89006
5.89231
5.89173
5.89261
5.89769
5.90638
5.91517
5.92098
5.92372
5.92629
5.93236
5.94277
5.95321
5.95865
5.95789
5.95532
5.95472
5.95853
5.96661
5.97603
5.98264
5.9847
5.98348
5.98235
5.9835
5.98765
5.99427
6.00132
6.00671
6.00927
6.00903
6.00657
6.0031
6.0009
6.00108
6.00332
6.00662
6.00916
6.01054
6.0102
1.40001
1.40001
1.40001
1.40001
1.40001
1.40001
1.40001
1.40001
1.40001
1.40001
1.40001
1.40001
1.40001
1.40001
1.40001
1.40001
1.40001
1.40001
1.40001
1.40001
1.40001
1.40001
1.40001
1.40001
1.40001
1.40001
1.40001
1.40001
1.40001
1.40001
1.40001
1.40001
1.40001
1.40001
1.40001
1.40001
1.40001
1.40001
1.40001
1.40001
1.40001
1.40001
1.40001
1.40001
1.40001
1.40001
1.40001
1.40001
1.40001
1.40001
1.40001
1.40001
1.40001
1.40001
1.40001
1.40001
1.40001
1.40001
1.40001
1.40001
1.40001
1.40001
1.40001
1.40001
1.40001
1.40001
1.40001
1.40001
1.40001
1.40001
1.40001
1.40001
1.40001
1.40001
1.40001
1.40001
1.40001
1.40001
1.40001
1.40001
1.40001
1.40001
1.40001
1.40001
1.40001
1.40001
1.40001
1.40001
1.40001
1.40001
1.40001
1.40001
1.40001
1.40001
1.40001
1.40001
1.40001
1.40001
3.05719
5.29099
5.43375
5.43473
5.43567
5.43526
5.44044
5.45334
5.47011
5.48843
5.50708
5.52471
5.53884
5.5471
5.54988
5.54993
5.5542
5.57014
5.59037
5.61037
5.62598
5.63271
5.63002
5.62478
5.62228
5.63478
5.66097
5.68527
5.70412
5.71265
5.70984
5.70336
5.69966
5.70629
5.7245
5.74522
5.76238
5.77195
5.77418
5.77409
5.77589
5.78171
5.79112
5.80214
5.81319
5.82351
5.83231
5.83891
5.8434
5.84716
5.85238
5.86078
5.87196
5.8829
5.89001
5.89212
5.89169
5.89278
5.89804
5.90682
5.91563
5.92147
5.92423
5.92668
5.93236
5.94235
5.95283
5.95867
5.9584
5.95619
5.95569
5.95922
5.96662
5.97544
5.98206
5.98459
5.98387
5.98293
5.98393
5.9877
5.99398
6.00106
6.00671
6.00949
6.00924
6.00652
6.00269
6.0003
6.00074
6.00342
6.00698
6.00932
6.01017
6.00935
1.40001
1.40001
1.40001
1.40001
1.40001
1.40001
1.40001
1.40001
1.40001
1.40001
1.40001
1.40001
1.40001
1.40001
1.40001
1.40001
1.40001
1.40001
1.40001
1.40001
1.40001
1.40001
1.40001
1.40001
1.40001
1.40001
1.40001
1.40001
1.40001
1.40001
1.40001
1.40001
1.40001
1.40001
1.40001
1.40001
1.40001
1.40001
1.40001
1.40001
1.40001
1.40001
1.40001
1.40001
1.40001
1.40001
1.40001
1.40001
1.40001
1.40001
1.40001
1.40001
1.40001
1.40001
1.40001
1.40001
1.40001
1.40001
1.40001
1.40001
1.40001
1.40001
1.40001
1.40001
1.40001
1.40001
1.40001
1.40001
1.40001
1.40001
1.40001
1.40001
1.40001
1.40001
1.40001
1.40001
1.40001
1.40001
1.40001
1.40001
1.40001
1.40001
1.40001
1.40001
1.40001
1.40001
1.40001
1.40001
1.40001
1.40001
1.40001
1.40001
1.40001
1.40001
1.40001
1.40001
1.40001
1.40001
3.03964
5.29364
5.42952
5.42803
5.43009
5.43326
5.44113
5.45642
5.47485
5.49278
5.50947
5.52387
5.53458
5.54154
5.54643
5.55184
5.56036
5.57416
5.59098
5.60721
5.61977
5.6262
5.62699
5.62633
5.62844
5.63939
5.66042
5.68222
5.69923
5.70832
5.70848
5.70506
5.70274
5.70802
5.72312
5.74192
5.75838
5.76898
5.77325
5.77489
5.77748
5.78294
5.79144
5.80176
5.81248
5.82252
5.83086
5.83702
5.84146
5.84568
5.85171
5.86092
5.87232
5.88277
5.88912
5.8908
5.89049
5.89193
5.89747
5.9063
5.91504
5.92091
5.92385
5.92646
5.93194
5.9411
5.95103
5.95705
5.95743
5.95599
5.95613
5.95964
5.96634
5.9741
5.98012
5.98291
5.98303
5.98267
5.9838
5.98725
5.993
5.9999
6.00586
6.00909
6.00901
6.00613
6.00193
5.9993
6.00003
6.0033
6.00722
6.00943
6.00963
6.00807
1.40001
1.40001
1.40001
1.40001
1.40001
1.40001
1.40001
1.40001
1.40001
1.40001
1.40001
1.40001
1.40001
1.40001
1.40001
1.40001
1.40001
1.40001
1.40001
1.40001
1.40001
1.40001
1.40001
1.40001
1.40001
1.40001
1.40001
1.40001
1.40001
1.40001
1.40001
1.40001
1.40001
1.40001
1.40001
1.40001
1.40001
1.40001
1.40001
1.40001
1.40001
1.40001
1.40001
1.40001
1.40001
1.40001
1.40001
1.40001
1.40001
1.40001
1.40001
1.40001
1.40001
1.40001
1.40001
1.40001
1.40001
1.40001
1.40001
1.40001
1.40001
1.40001
1.40001
1.40001
1.40001
1.40001
1.40001
1.40001
1.40001
1.40001
1.40001
1.40001
1.40001
1.40001
1.40001
1.40001
1.40001
1.40001
1.40001
1.40001
1.40001
1.40001
1.40001
1.40001
1.40001
1.40001
1.40001
1.40001
1.40001
1.40001
1.40001
1.40001
1.40001
1.40001
1.40001
1.40001
1.40001
1.40001
3.01203
5.29222
5.42861
5.4254
5.428
5.43282
5.44337
5.45919
5.47713
5.49379
5.50801
5.51968
5.52938
5.53832
5.54687
5.55589
5.56579
5.57737
5.59035
5.60218
5.61184
5.6192
5.62512
5.63022
5.63586
5.64513
5.66042
5.67835
5.69357
5.70347
5.70741
5.7071
5.70621
5.71028
5.72239
5.73905
5.75487
5.7666
5.7731
5.77637
5.7794
5.78417
5.79174
5.80157
5.81214
5.82194
5.82979
5.83541
5.83961
5.84422
5.85121
5.86125
5.87274
5.88264
5.88829
5.88974
5.88965
5.89152
5.89726
5.90589
5.91437
5.92026
5.92354
5.92656
5.93206
5.94058
5.94973
5.95552
5.95653
5.95597
5.95687
5.96057
5.96676
5.97355
5.97873
5.98136
5.9821
5.98248
5.98392
5.9872
5.99251
5.99911
6.00513
6.00867
6.00869
6.0056
6.00108
5.99831
5.99937
6.00315
6.00735
6.0094
6.00887
6.00649
1.40001
1.40001
1.40001
1.40001
1.40001
1.40001
1.40001
1.40001
1.40001
1.40001
1.40001
1.40001
1.40001
1.40001
1.40001
1.40001
1.40001
1.40001
1.40001
1.40001
1.40001
1.40001
1.40001
1.40001
1.40001
1.40001
1.40001
1.40001
1.40001
1.40001
1.40001
1.40001
1.40001
1.40001
1.40001
1.40001
1.40001
1.40001
1.40001
1.40001
1.40001
1.40001
1.40001
1.40001
1.40001
1.40001
1.40001
1.40001
1.40001
1.40001
1.40001
1.40001
1.40001
1.40001
1.40001
1.40001
1.40001
1.40001
1.40001
1.40001
1.40001
1.40001
1.40001
1.40001
1.40001
1.40001
1.40001
1.40001
1.40001
1.40001
1.40001
1.40001
1.40001
1.40001
1.40001
1.40001
1.40001
1.40001
1.40001
1.40001
1.40001
1.40001
1.40001
1.40001
1.40001
1.40001
1.40001
1.40001
1.40001
1.40001
1.40001
1.40001
1.40001
1.40001
1.40001
1.40001
1.40001
1.40001
2.97627
5.27063
5.4286
5.42657
5.43117
5.43649
5.44674
5.46038
5.47556
5.48989
5.50194
5.51326
5.5253
5.5375
5.54925
5.56057
5.57068
5.57953
5.58827
5.59606
5.60394
5.61353
5.62426
5.63458
5.64316
5.65093
5.66119
5.67416
5.68733
5.69832
5.70552
5.70851
5.70951
5.71302
5.72238
5.73658
5.75175
5.76448
5.77271
5.7771
5.78032
5.78455
5.79172
5.80158
5.81224
5.82171
5.82874
5.83349
5.83732
5.84243
5.8505
5.86135
5.87282
5.88203
5.88702
5.88844
5.88898
5.89153
5.89739
5.90539
5.91309
5.91881
5.92264
5.92646
5.93236
5.94044
5.94847
5.95356
5.95484
5.95505
5.95687
5.96115
5.96723
5.97319
5.97733
5.97941
5.98043
5.98154
5.98351
5.98689
5.99198
5.9983
6.00423
6.00787
6.00787
6.00467
6.00002
5.99728
5.99866
6.00283
6.00716
6.009
6.00784
6.00479
1.40001
1.40001
1.40001
1.40001
1.40001
1.40001
1.40001
1.40001
1.40001
1.40001
1.40001
1.40001
1.40001
1.40001
1.40001
1.40001
1.40001
1.40001
1.40001
1.40001
1.40001
1.40001
1.40001
1.40001
1.40001
1.40001
1.40001
1.40001
1.40001
1.40001
1.40001
1.40001
1.40001
1.40001
1.40001
1.40001
1.40001
1.40001
1.40001
1.40001
1.40001
1.40001
1.40001
1.40001
1.40001
1.40001
1.40001
1.40001
1.40001
1.40001
1.40001
1.40001
1.40001
1.40001
1.40001
1.40001
1.40001
1.40001
1.40001
1.40001
1.40001
1.40001
1.40001
1.40001
1.40001
1.40001
1.40001
1.40001
1.40001
1.40001
1.40001
1.40001
1.40001
1.40001
1.40001
1.40001
1.40001
1.40001
1.40001
1.40001
1.40001
1.40001
1.40001
1.40001
1.40001
1.40001
1.40001
1.40001
1.40001
1.40001
1.40001
1.40001
1.40001
1.40001
1.40001
1.40001
1.40001
1.40001
2.93285
5.24308
5.42752
5.42902
5.43813
5.44488
5.45312
5.46216
5.47216
5.48267
5.49344
5.50694
5.52307
5.5394
5.55431
5.56621
5.57445
5.57996
5.58488
5.59013
5.59773
5.61076
5.62564
5.63917
5.64886
5.65475
5.66098
5.66975
5.68121
5.69368
5.70383
5.70976
5.71238
5.71546
5.72259
5.73492
5.7498
5.76311
5.7721
5.77684
5.77998
5.784
5.79143
5.80184
5.81271
5.82169
5.82769
5.83146
5.83504
5.84081
5.84995
5.8614
5.87261
5.88096
5.88539
5.88709
5.88859
5.89199
5.89785
5.90492
5.91153
5.91685
5.9212
5.92609
5.93276
5.94061
5.94752
5.95158
5.95285
5.95368
5.95638
5.96145
5.96776
5.97312
5.97628
5.97763
5.97851
5.98001
5.98256
5.98636
5.99154
5.9977
6.00338
6.00682
6.00665
6.00342
5.99884
5.99631
5.99799
6.00233
6.00655
6.00813
6.00656
6.00318
1.40001
1.40001
1.40001
1.40001
1.40001
1.40001
1.40001
1.40001
1.40001
1.40001
1.40001
1.40001
1.40001
1.40001
1.40001
1.40001
1.40001
1.40001
1.40001
1.40001
1.40001
1.40001
1.40001
1.40001
1.40001
1.40001
1.40001
1.40001
1.40001
1.40001
1.40001
1.40001
1.40001
1.40001
1.40001
1.40001
1.40001
1.40001
1.40001
1.40001
1.40001
1.40001
1.40001
1.40001
1.40001
1.40001
1.40001
1.40001
1.40001
1.40001
1.40001
1.40001
1.40001
1.40001
1.40001
1.40001
1.40001
1.40001
1.40001
1.40001
1.40001
1.40001
1.40001
1.40001
1.40001
1.40001
1.40001
1.40001
1.40001
1.40001
1.40001
1.40001
1.40001
1.40001
1.40001
1.40001
1.40001
1.40001
1.40001
1.40001
1.40001
1.40001
1.40001
1.40001
1.40001
1.40001
1.40001
1.40001
1.40001
1.40001
1.40001
1.40001
1.40001
1.40001
1.40001
1.40001
1.40001
1.40001
2.88058
5.21852
5.42223
5.42882
5.44316
5.4531
5.46081
5.46594
5.47049
5.47659
5.48651
5.50307
5.52329
5.54303
5.55937
5.57033
5.57607
5.5785
5.58073
5.58539
5.59456
5.61083
5.62845
5.64304
5.65217
5.6561
5.65931
5.66545
5.67611
5.69016
5.70268
5.71078
5.7145
5.71726
5.72299
5.73424
5.74883
5.76212
5.77105
5.77566
5.77874
5.7829
5.7911
5.80225
5.81318
5.82148
5.82636
5.82927
5.83283
5.83943
5.84954
5.86126
5.87186
5.87926
5.88331
5.8856
5.88829
5.89264
5.89835
5.90436
5.90979
5.91457
5.91938
5.9254
5.93295
5.94072
5.94668
5.94967
5.95061
5.95192
5.95549
5.96147
5.96808
5.97304
5.97541
5.97601
5.97648
5.97804
5.98107
5.98546
5.99099
5.99712
6.00247
6.00549
6.00509
6.00189
5.99756
5.99539
5.99728
6.00157
6.00548
6.00677
6.00505
6.00167
1.40001
1.40001
1.40001
1.40001
1.40001
1.40001
1.40001
1.40001
1.40001
1.40001
1.40001
1.40001
1.40001
1.40001
1.40001
1.40001
1.40001
1.40001
1.40001
1.40001
1.40001
1.40001
1.40001
1.40001
1.40001
1.40001
1.40001
1.40001
1.40001
1.40001
1.40001
1.40001
1.40001
1.40001
1.40001
1.40001
1.40001
1.40001
1.40001
1.40001
1.40001
1.40001
1.40001
1.40001
1.40001
1.40001
1.40001
1.40001
1.40001
1.40001
1.40001
1.40001
1.40001
1.40001
1.40001
1.40001
1.40001
1.40001
1.40001
1.40001
1.40001
1.40001
1.40001
1.40001
1.40001
1.40001
1.40001
1.40001
1.40001
1.40001
1.40001
1.40001
1.40001
1.40001
1.40001
1.40001
1.40001
1.40001
1.40001
1.40001
1.40001
1.40001
1.40001
1.40001
1.40001
1.40001
1.40001
1.40001
1.40001
1.40001
1.40001
1.40001
1.40001
1.40001
1.40001
1.40001
1.40001
1.40001
2.81881
5.19967
5.41198
5.42516
5.44454
5.45798
5.46674
5.47014
5.47114
5.47373
5.48324
5.50136
5.52381
5.54478
5.56113
5.57099
5.57495
5.57564
5.5769
5.58271
5.59432
5.61228
5.63028
5.6445
5.65264
5.65531
5.65669
5.66149
5.67228
5.68781
5.70205
5.71164
5.71607
5.71863
5.72361
5.73411
5.74805
5.76076
5.76926
5.77371
5.77699
5.78189
5.79109
5.8027
5.81336
5.82074
5.82458
5.82699
5.83095
5.83857
5.84936
5.86092
5.87059
5.87709
5.88099
5.88409
5.88802
5.89312
5.89853
5.90345
5.90786
5.91226
5.91753
5.92452
5.93274
5.94035
5.94547
5.94768
5.94847
5.95023
5.95453
5.96118
5.96795
5.9726
5.97441
5.97448
5.97456
5.976
5.97928
5.98415
5.99011
5.99634
6.00141
6.004
6.00334
6.00018
5.9962
5.99443
5.99641
6.00052
6.00403
6.00504
6.00333
6.00022
1.40001
1.40001
1.40001
1.40001
1.40001
1.40001
1.40001
1.40001
1.40001
1.40001
1.40001
1.40001
1.40001
1.40001
1.40001
1.40001
1.40001
1.40001
1.40001
1.40001
1.40001
1.40001
1.40001
1.40001
1.40001
1.40001
1.40001
1.40001
1.40001
1.40001
1.40001
1.40001
1.40001
1.40001
1.40001
1.40001
1.40001
1.40001
1.40001
1.40001
1.40001
1.40001
1.40001
1.40001
1.40001
1.40001
1.40001
1.40001
1.40001
1.40001
1.40001
1.40001
1.40001
1.40001
1.40001
1.40001
1.40001
1.40001
1.40001
1.40001
1.40001
1.40001
1.40001
1.40001
1.40001
1.40001
1.40001
1.40001
1.40001
1.40001
1.40001
1.40001
1.40001
1.40001
1.40001
1.40001
1.40001
1.40001
1.40001
1.40001
1.40001
1.40001
1.40001
1.40001
1.40001
1.40001
1.40001
1.40001
1.40001
1.40001
1.40001
1.40001
1.40001
1.40001
1.40001
1.40001
1.40001
1.40001
2.74561
5.18616
5.4004
5.41943
5.4418
5.45848
5.46934
5.47373
5.47425
5.47557
5.48352
5.50092
5.52252
5.54263
5.55849
5.56824
5.57217
5.57325
5.57496
5.58191
5.59529
5.61333
5.63058
5.64403
5.65158
5.6536
5.65426
5.65859
5.66979
5.68624
5.70157
5.71229
5.71748
5.72011
5.72456
5.73397
5.74665
5.75833
5.76643
5.77128
5.77557
5.78165
5.79154
5.80291
5.81276
5.81906
5.82225
5.82491
5.82988
5.83834
5.84917
5.85992
5.8685
5.8744
5.87863
5.88281
5.88783
5.89323
5.89805
5.90194
5.90573
5.91018
5.91612
5.9238
5.93216
5.93921
5.94353
5.94538
5.9465
5.94892
5.95384
5.96065
5.96718
5.97139
5.97288
5.9728
5.97283
5.97421
5.97746
5.98245
5.98868
5.9951
6.00009
6.00242
6.00157
5.99841
5.99475
5.99331
5.9953
5.99921
6.00238
6.00311
6.00147
5.99875
1.40001
1.40001
1.40001
1.40001
1.40001
1.40001
1.40001
1.40001
1.40001
1.40001
1.40001
1.40001
1.40001
1.40001
1.40001
1.40001
1.40001
1.40001
1.40001
1.40001
1.40001
1.40001
1.40001
1.40001
1.40001
1.40001
1.40001
1.40001
1.40001
1.40001
1.40001
1.40001
1.40001
1.40001
1.40001
1.40001
1.40001
1.40001
1.40001
1.40001
1.40001
1.40001
1.40001
1.40001
1.40001
1.40001
1.40001
1.40001
1.40001
1.40001
1.40001
1.40001
1.40001
1.40001
1.40001
1.40001
1.40001
1.40001
1.40001
1.40001
1.40001
1.40001
1.40001
1.40001
1.40001
1.40001
1.40001
1.40001
1.40001
1.40001
1.40001
1.40001
1.40001
1.40001
1.40001
1.40001
1.40001
1.40001
1.40001
1.40001
1.40001
1.40001
1.40001
1.40001
1.40001
1.40001
1.40001
1.40001
1.40001
1.40001
1.40001
1.40001
1.40001
1.40001
1.40001
1.40001
1.40001
1.40001
2.664
5.17801
5.39278
5.41281
5.43481
5.4535
5.46726
5.47478
5.47777
5.48032
5.48713
5.50176
5.5205
5.53845
5.5533
5.56372
5.56949
5.57233
5.57515
5.58231
5.59599
5.61309
5.62953
5.6424
5.65006
5.65257
5.65329
5.65742
5.66836
5.68486
5.70084
5.71271
5.71909
5.7221
5.72588
5.73345
5.74398
5.75447
5.76285
5.76925
5.77522
5.78243
5.79212
5.80233
5.81076
5.81631
5.81983
5.82382
5.83001
5.83863
5.84848
5.85778
5.86536
5.87128
5.87655
5.88217
5.88792
5.89297
5.89668
5.89967
5.90328
5.90834
5.91531
5.92354
5.93141
5.93731
5.94075
5.94263
5.9446
5.94812
5.95365
5.96021
5.96591
5.96938
5.97069
5.97093
5.97137
5.97287
5.97583
5.98047
5.98663
5.99324
5.99846
6.00082
5.99986
5.9966
5.99308
5.99181
5.99378
5.99758
6.00052
6.00103
5.99939
5.99699
1.40001
1.40001
1.40001
1.40001
1.40001
1.40001
1.40001
1.40001
1.40001
1.40001
1.40001
1.40001
1.40001
1.40001
1.40001
1.40001
1.40001
1.40001
1.40001
1.40001
1.40001
1.40001
1.40001
1.40001
1.40001
1.40001
1.40001
1.40001
1.40001
1.40001
1.40001
1.40001
1.40001
1.40001
1.40001
1.40001
1.40001
1.40001
1.40001
1.40001
1.40001
1.40001
1.40001
1.40001
1.40001
1.40001
1.40001
1.40001
1.40001
1.40001
1.40001
1.40001
1.40001
1.40001
1.40001
1.40001
1.40001
1.40001
1.40001
1.40001
1.40001
1.40001
1.40001
1.40001
1.40001
1.40001
1.40001
1.40001
1.40001
1.40001
1.40001
1.40001
1.40001
1.40001
1.40001
1.40001
1.40001
1.40001
1.40001
1.40001
1.40001
1.40001
1.40001
1.40001
1.40001
1.40001
1.40001
1.40001
1.40001
1.40001
1.40001
1.40001
1.40001
1.40001
1.40001
1.40001
1.40001
1.40001
2.57527
5.16596
5.39232
5.40682
5.42766
5.44762
5.46435
5.47558
5.48143
5.4851
5.49076
5.50203
5.51772
5.53379
5.54832
5.56011
5.56816
5.57282
5.5763
5.58272
5.59522
5.61101
5.62694
5.64021
5.64895
5.65277
5.65403
5.65777
5.66753
5.68318
5.69951
5.71272
5.7207
5.72434
5.72708
5.73211
5.73998
5.74964
5.75942
5.76831
5.77613
5.78389
5.79225
5.80028
5.80713
5.81282
5.81813
5.8242
5.83136
5.83917
5.84697
5.85425
5.86103
5.8678
5.87502
5.88229
5.8884
5.89236
5.89449
5.89663
5.90038
5.90663
5.91499
5.92364
5.93056
5.93487
5.93729
5.93941
5.94268
5.94767
5.95378
5.95973
5.9642
5.9667
5.96789
5.96879
5.97007
5.97181
5.97429
5.97821
5.98398
5.99076
5.99652
5.9992
5.9982
5.99474
5.99113
5.98992
5.99193
5.99578
5.99865
5.99899
5.9972
5.99495
1.40001
1.40001
1.40001
1.40001
1.40001
1.40001
1.40001
1.40001
1.40001
1.40001
1.40001
1.40001
1.40001
1.40001
1.40001
1.40001
1.40001
1.40001
1.40001
1.40001
1.40001
1.40001
1.40001
1.40001
1.40001
1.40001
1.40001
1.40001
1.40001
1.40001
1.40001
1.40001
1.40001
1.40001
1.40001
1.40001
1.40001
1.40001
1.40001
1.40001
1.40001
1.40001
1.40001
1.40001
1.40001
1.40001
1.40001
1.40001
1.40001
1.40001
1.40001
1.40001
1.40001
1.40001
1.40001
1.40001
1.40001
1.40001
1.40001
1.40001
1.40001
1.40001
1.40001
1.40001
1.40001
1.40001
1.40001
1.40001
1.40001
1.40001
1.40001
1.40001
1.40001
1.40001
1.40001
1.40001
1.40001
1.40001
1.40001
1.40001
1.40001
1.40001
1.40001
1.40001
1.40001
1.40001
1.40001
1.40001
1.40001
1.40001
1.40001
1.40001
1.40001
1.40001
1.40001
1.40001
1.40001
1.40001
2.48076
5.13753
5.39949
5.40341
5.42298
5.44337
5.46147
5.47507
5.48323
5.48786
5.4929
5.50179
5.51534
5.53039
5.54532
5.55851
5.56805
5.57356
5.577
5.58223
5.59298
5.60756
5.62351
5.63793
5.64833
5.65371
5.65569
5.65886
5.66703
5.68141
5.69803
5.71261
5.72205
5.72595
5.72737
5.7295
5.73496
5.74492
5.75727
5.7688
5.77806
5.78514
5.79115
5.79639
5.80217
5.80928
5.81759
5.82615
5.83374
5.8397
5.84456
5.84944
5.85574
5.86424
5.87415
5.88314
5.88906
5.89122
5.89144
5.8928
5.89702
5.90492
5.91487
5.92378
5.92951
5.9321
5.93348
5.93588
5.94061
5.94719
5.95381
5.95893
5.96208
5.96364
5.96478
5.96648
5.96877
5.97077
5.97265
5.97572
5.98091
5.98787
5.99437
5.99755
5.99651
5.99278
5.98888
5.98763
5.98981
5.99389
5.9968
5.99693
5.9948
5.99257
1.40001
1.40001
1.40001
1.40001
1.40001
1.40001
1.40001
1.40001
1.40001
1.40001
1.40001
1.40001
1.40001
1.40001
1.40001
1.40001
1.40001
1.40001
1.40001
1.40001
1.40001
1.40001
1.40001
1.40001
1.40001
1.40001
1.40001
1.40001
1.40001
1.40001
1.40001
1.40001
1.40001
1.40001
1.40001
1.40001
1.40001
1.40001
1.40001
1.40001
1.40001
1.40001
1.40001
1.40001
1.40001
1.40001
1.40001
1.40001
1.40001
1.40001
1.40001
1.40001
1.40001
1.40001
1.40001
1.40001
1.40001
1.40001
1.40001
1.40001
1.40001
1.40001
1.40001
1.40001
1.40001
1.40001
1.40001
1.40001
1.40001
1.40001
1.40001
1.40001
1.40001
1.40001
1.40001
1.40001
1.40001
1.40001
1.40001
1.40001
1.40001
1.40001
1.40001
1.40001
1.40001
1.40001
1.40001
1.40001
1.40001
1.40001
1.40001
1.40001
1.40001
1.40001
1.40001
1.40001
1.40001
1.40001
2.38108
5.09291
5.40817
5.40579
5.42242
5.44135
5.45914
5.47311
5.48193
5.4873
5.49294
5.50143
5.5144
5.52943
5.54484
5.5586
5.56834
5.57331
5.57609
5.58048
5.59029
5.60436
5.62057
5.636
5.64773
5.6543
5.65684
5.65953
5.6663
5.68015
5.69722
5.71259
5.72258
5.72589
5.72564
5.72532
5.72973
5.74179
5.75705
5.77074
5.78015
5.78541
5.78827
5.79094
5.79656
5.80633
5.81823
5.82917
5.83627
5.83958
5.84118
5.84379
5.85003
5.86094
5.87375
5.88421
5.88935
5.88927
5.88801
5.88876
5.89372
5.90344
5.91479
5.92369
5.92812
5.92921
5.9298
5.9325
5.93853
5.94641
5.95322
5.95744
5.95957
5.96051
5.96177
5.96427
5.96736
5.96934
5.97057
5.97296
5.97771
5.98488
5.99211
5.99572
5.99458
5.99054
5.98631
5.98504
5.98747
5.99188
5.9949
5.99474
5.99216
5.98989
1.40001
1.40001
1.40001
1.40001
1.40001
1.40001
1.40001
1.40001
1.40001
1.40001
1.40001
1.40001
1.40001
1.40001
1.40001
1.40001
1.40001
1.40001
1.40001
1.40001
1.40001
1.40001
1.40001
1.40001
1.40001
1.40001
1.40001
1.40001
1.40001
1.40001
1.40001
1.40001
1.40001
1.40001
1.40001
1.40001
1.40001
1.40001
1.40001
1.40001
1.40001
1.40001
1.40001
1.40001
1.40001
1.40001
1.40001
1.40001
1.40001
1.40001
1.40001
1.40001
1.40001
1.40001
1.40001
1.40001
1.40001
1.40001
1.40001
1.40001
1.40001
1.40001
1.40001
1.40001
1.40001
1.40001
1.40001
1.40001
1.40001
1.40001
1.40001
1.40001
1.40001
1.40001
1.40001
1.40001
1.40001
1.40001
1.40001
1.40001
1.40001
1.40001
1.40001
1.40001
1.40001
1.40001
1.40001
1.40001
1.40001
1.40001
1.40001
1.40001
1.40001
1.40001
1.40001
1.40001
1.40001
1.40001
2.2764
5.03895
5.41365
5.40975
5.42272
5.43973
5.45708
5.4708
5.47952
5.48536
5.49221
5.50171
5.51517
5.53054
5.54592
5.55922
5.56807
5.57171
5.57377
5.57841
5.58867
5.60296
5.61919
5.63459
5.64643
5.65322
5.65615
5.65906
5.66587
5.68023
5.69766
5.71277
5.72184
5.72366
5.72152
5.71986
5.72585
5.7412
5.7589
5.77343
5.7814
5.78377
5.78362
5.78459
5.79122
5.80457
5.82008
5.83235
5.83792
5.83807
5.83699
5.83816
5.84499
5.85847
5.87368
5.88457
5.88841
5.88655
5.88411
5.88476
5.89085
5.90223
5.91441
5.92285
5.92602
5.92605
5.92632
5.92953
5.9366
5.94515
5.95167
5.95513
5.95672
5.95754
5.95918
5.9624
5.96576
5.9673
5.9679
5.96989
5.97459
5.98213
5.98983
5.99357
5.99222
5.9879
5.9835
5.98235
5.98506
5.98972
5.99278
5.99232
5.98928
5.98704
1.40001
1.40001
1.40001
1.40001
1.40001
1.40001
1.40001
1.40001
1.40001
1.40001
1.40001
1.40001
1.40001
1.40001
1.40001
1.40001
1.40001
1.40001
1.40001
1.40001
1.40001
1.40001
1.40001
1.40001
1.40001
1.40001
1.40001
1.40001
1.40001
1.40001
1.40001
1.40001
1.40001
1.40001
1.40001
1.40001
1.40001
1.40001
1.40001
1.40001
1.40001
1.40001
1.40001
1.40001
1.40001
1.40001
1.40001
1.40001
1.40001
1.40001
1.40001
1.40001
1.40001
1.40001
1.40001
1.40001
1.40001
1.40001
1.40001
1.40001
1.40001
1.40001
1.40001
1.40001
1.40001
1.40001
1.40001
1.40001
1.40001
1.40001
1.40001
1.40001
1.40001
1.40001
1.40001
1.40001
1.40001
1.40001
1.40001
1.40001
1.40001
1.40001
1.40001
1.40001
1.40001
1.40001
1.40001
1.40001
1.40001
1.40001
1.40001
1.40001
1.40001
1.40001
1.40001
1.40001
1.40001
1.40001
2.16798
4.97785
5.41912
5.41488
5.42448
5.43924
5.45507
5.46757
5.47594
5.48311
5.49198
5.50314
5.51705
5.53232
5.54697
5.55884
5.5657
5.56834
5.57131
5.57776
5.58925
5.6038
5.61937
5.63341
5.64374
5.64966
5.65301
5.6573
5.66615
5.68193
5.69932
5.71291
5.71974
5.71908
5.71541
5.7146
5.72452
5.74312
5.76197
5.77529
5.78073
5.77979
5.77739
5.77826
5.78786
5.80487
5.82246
5.83402
5.83737
5.83503
5.83211
5.83308
5.84168
5.85735
5.87352
5.88365
5.88563
5.88278
5.87995
5.88132
5.88913
5.90169
5.91371
5.92094
5.92296
5.92258
5.92319
5.92729
5.93502
5.94337
5.94905
5.95192
5.95351
5.9548
5.95713
5.9608
5.96376
5.9644
5.9645
5.96646
5.97159
5.97969
5.98748
5.99093
5.98929
5.9848
5.98052
5.97972
5.98269
5.98736
5.99025
5.98951
5.98621
5.98416
1.40001
1.40001
1.40001
1.40001
1.40001
1.40001
1.40001
1.40001
1.40001
1.40001
1.40001
1.40001
1.40001
1.40001
1.40001
1.40001
1.40001
1.40001
1.40001
1.40001
1.40001
1.40001
1.40001
1.40001
1.40001
1.40001
1.40001
1.40001
1.40001
1.40001
1.40001
1.40001
1.40001
1.40001
1.40001
1.40001
1.40001
1.40001
1.40001
1.40001
1.40001
1.40001
1.40001
1.40001
1.40001
1.40001
1.40001
1.40001
1.40001
1.40001
1.40001
1.40001
1.40001
1.40001
1.40001
1.40001
1.40001
1.40001
1.40001
1.40001
1.40001
1.40001
1.40001
1.40001
1.40001
1.40001
1.40001
1.40001
1.40001
1.40001
1.40001
1.40001
1.40001
1.40001
1.40001
1.40001
1.40001
1.40001
1.40001
1.40001
1.40001
1.40001
1.40001
1.40001
1.40001
1.40001
1.40001
1.40001
1.40001
1.40001
1.40001
1.40001
1.40001
1.40001
1.40001
1.40001
1.40001
1.40001
2.057
4.90754
5.42424
5.41888
5.42592
5.43807
5.45236
5.46395
5.47251
5.48182
5.49314
5.50579
5.51933
5.53332
5.54631
5.55594
5.56119
5.5647
5.57026
5.57933
5.59196
5.60616
5.62018
5.63192
5.63975
5.64428
5.64833
5.65509
5.66717
5.68442
5.70095
5.71205
5.71567
5.71322
5.70899
5.71152
5.7263
5.74668
5.76455
5.77537
5.77728
5.77409
5.7708
5.77397
5.78779
5.80712
5.82421
5.83368
5.83432
5.83045
5.82707
5.82938
5.84056
5.85745
5.87285
5.88107
5.88105
5.8778
5.87571
5.87898
5.88881
5.90183
5.91251
5.91781
5.91873
5.91847
5.92012
5.92561
5.93374
5.94116
5.9456
5.94795
5.94987
5.95222
5.95558
5.95934
5.9614
5.9609
5.96054
5.9628
5.96881
5.97762
5.9851
5.98777
5.98577
5.98131
5.97747
5.97725
5.98041
5.98473
5.98712
5.98617
5.98292
5.98135
1.40001
1.40001
1.40001
1.40001
1.40001
1.40001
1.40001
1.40001
1.40001
1.40001
1.40001
1.40001
1.40001
1.40001
1.40001
1.40001
1.40001
1.40001
1.40001
1.40001
1.40001
1.40001
1.40001
1.40001
1.40001
1.40001
1.40001
1.40001
1.40001
1.40001
1.40001
1.40001
1.40001
1.40001
1.40001
1.40001
1.40001
1.40001
1.40001
1.40001
1.40001
1.40001
1.40001
1.40001
1.40001
1.40001
1.40001
1.40001
1.40001
1.40001
1.40001
1.40001
1.40001
1.40001
1.40001
1.40001
1.40001
1.40001
1.40001
1.40001
1.40001
1.40001
1.40001
1.40001
1.40001
1.40001
1.40001
1.40001
1.40001
1.40001
1.40001
1.40001
1.40001
1.40001
1.40001
1.40001
1.40001
1.40001
1.40001
1.40001
1.40001
1.40001
1.40001
1.40001
1.40001
1.40001
1.40001
1.40001
1.40001
1.40001
1.40001
1.40001
1.40001
1.40001
1.40001
1.40001
1.40001
1.40001
1.94632
4.82365
5.42731
5.42173
5.42752
5.43722
5.44953
5.45986
5.46919
5.48114
5.49488
5.50841
5.52108
5.53296
5.54322
5.55038
5.55536
5.56157
5.57053
5.5821
5.59542
5.60869
5.62057
5.62939
5.63464
5.63818
5.64353
5.65337
5.6685
5.68626
5.70126
5.7093
5.70991
5.70694
5.704
5.71151
5.73007
5.75002
5.76529
5.77263
5.77107
5.76668
5.76476
5.77226
5.79007
5.80991
5.82475
5.83122
5.82924
5.82467
5.82246
5.82752
5.84138
5.85835
5.8714
5.87667
5.8749
5.87187
5.87178
5.87802
5.88994
5.90241
5.9107
5.9136
5.91349
5.91375
5.91717
5.92446
5.9328
5.93874
5.94154
5.94338
5.94581
5.94965
5.95445
5.95794
5.95849
5.95687
5.9561
5.95892
5.96613
5.97565
5.98241
5.98394
5.98159
5.97745
5.97442
5.97492
5.97815
5.98172
5.98337
5.98233
5.9795
5.97872
1.40001
1.40001
1.40001
1.40001
1.40001
1.40001
1.40001
1.40001
1.40001
1.40001
1.40001
1.40001
1.40001
1.40001
1.40001
1.40001
1.40001
1.40001
1.40001
1.40001
1.40001
1.40001
1.40001
1.40001
1.40001
1.40001
1.40001
1.40001
1.40001
1.40001
1.40001
1.40001
1.40001
1.40001
1.40001
1.40001
1.40001
1.40001
1.40001
1.40001
1.40001
1.40001
1.40001
1.40001
1.40001
1.40001
1.40001
1.40001
1.40001
1.40001
1.40001
1.40001
1.40001
1.40001
1.40001
1.40001
1.40001
1.40001
1.40001
1.40001
1.40001
1.40001
1.40001
1.40001
1.40001
1.40001
1.40001
1.40001
1.40001
1.40001
1.40001
1.40001
1.40001
1.40001
1.40001
1.40001
1.40001
1.40001
1.40001
1.40001
1.40001
1.40001
1.40001
1.40001
1.40001
1.40001
1.40001
1.40001
1.40001
1.40001
1.40001
1.40001
1.40001
1.40001
1.40001
1.40001
1.40001
1.40001
1.84194
4.72366
5.42415
5.42148
5.42739
5.43563
5.44645
5.45636
5.4674
5.48143
5.49627
5.50957
5.52085
5.53034
5.53802
5.54375
5.54988
5.55953
5.57184
5.58515
5.59829
5.61015
5.61959
5.62563
5.62916
5.63279
5.63997
5.65241
5.66917
5.6865
5.69923
5.70434
5.70355
5.70115
5.70176
5.71482
5.73447
5.75228
5.76402
5.7668
5.76314
5.7589
5.76076
5.77392
5.79409
5.81247
5.82396
5.82638
5.82271
5.81845
5.81868
5.82731
5.84309
5.8589
5.86869
5.87064
5.86799
5.86562
5.86831
5.87821
5.89171
5.90268
5.90793
5.90855
5.90767
5.90864
5.91421
5.92345
5.93184
5.93601
5.93709
5.93839
5.94144
5.94697
5.95325
5.95649
5.95524
5.95243
5.95144
5.95504
5.96352
5.97351
5.97936
5.97965
5.97692
5.97339
5.97151
5.97277
5.97579
5.97825
5.97902
5.97808
5.97595
5.97624
1.40001
1.40001
1.40001
1.40001
1.40001
1.40001
1.40001
1.40001
1.40001
1.40001
1.40001
1.40001
1.40001
1.40001
1.40001
1.40001
1.40001
1.40001
1.40001
1.40001
1.40001
1.40001
1.40001
1.40001
1.40001
1.40001
1.40001
1.40001
1.40001
1.40001
1.40001
1.40001
1.40001
1.40001
1.40001
1.40001
1.40001
1.40001
1.40001
1.40001
1.40001
1.40001
1.40001
1.40001
1.40001
1.40001
1.40001
1.40001
1.40001
1.40001
1.40001
1.40001
1.40001
1.40001
1.40001
1.40001
1.40001
1.40001
1.40001
1.40001
1.40001
1.40001
1.40001
1.40001
1.40001
1.40001
1.40001
1.40001
1.40001
1.40001
1.40001
1.40001
1.40001
1.40001
1.40001
1.40001
1.40001
1.40001
1.40001
1.40001
1.40001
1.40001
1.40001
1.40001
1.40001
1.40001
1.40001
1.40001
1.40001
1.40001
1.40001
1.40001
1.40001
1.40001
1.40001
1.40001
1.40001
1.40001
1.74467
4.61209
5.42171
5.42042
5.42748
5.43521
5.44481
5.45448
5.46641
5.48116
5.49591
5.50854
5.51876
5.52695
5.53365
5.53939
5.54694
5.5585
5.57238
5.58638
5.59905
5.60957
5.61704
5.62152
5.62477
5.62952
5.63835
5.65197
5.66871
5.68455
5.69463
5.69777
5.69724
5.69689
5.70259
5.71943
5.73788
5.75254
5.76003
5.75894
5.75424
5.75195
5.75895
5.77709
5.79759
5.81357
5.82139
5.8204
5.81588
5.81264
5.81571
5.82779
5.84428
5.8582
5.86483
5.86408
5.86104
5.86004
5.86623
5.87936
5.89307
5.90181
5.90416
5.90309
5.90175
5.90369
5.91151
5.92235
5.93037
5.93276
5.93247
5.93325
5.93707
5.94437
5.95169
5.95446
5.95166
5.94776
5.9467
5.9512
5.96083
5.97081
5.97572
5.97495
5.97188
5.96918
5.96869
5.9707
5.97315
5.97429
5.97414
5.9734
5.97229
5.97386
1.40001
1.40001
1.40001
1.40001
1.40001
1.40001
1.40001
1.40001
1.40001
1.40001
1.40001
1.40001
1.40001
1.40001
1.40001
1.40001
1.40001
1.40001
1.40001
1.40001
1.40001
1.40001
1.40001
1.40001
1.40001
1.40001
1.40001
1.40001
1.40001
1.40001
1.40001
1.40001
1.40001
1.40001
1.40001
1.40001
1.40001