/*--------------------------------*- C++ -*----------------------------------*\
  =========                 |
  \\      /  F ield         | OpenFOAM: The Open Source CFD Toolbox
   \\    /   O peration     | Website:  https://openfoam.org
    \\  /    A nd           | Version:  7
     \\/     M anipulation  |
\*---------------------------------------------------------------------------*/
FoamFile
{
    version     2.0;
    format      ascii;
    class       volScalarField;
    location    "3.8";
    object      T;
}
// * * * * * * * * * * * * * * * * * * * * * * * * * * * * * * * * * * * * * //

dimensions      [0 0 0 1 0 0 0];

internalField   nonuniform List<scalar> 
258048
(
1
1
1
1
1
1
1
1
1
1
1
1
1
1
1
1
1
1
1
1
1
1
1
1
1
1
1
1
1
1
1
1
1
1
1
1
1
1
1
1
1
1
1
1
1
1
1
1
1
1
1
1
1
1
1
1
1
1
1
1
1
1
1
1
1
1
1
1
1
1
1
1
1
1
1
1
1
1
1
1
1
1
1
1
1
1
1
1
1
1
1
1
1
1
1
1
1
1
1.9629
2.65625
2.68847
2.68922
2.6905
2.69195
2.69442
2.6976
2.70101
2.7044
2.70758
2.7103
2.71198
2.71238
2.71189
2.71091
2.71189
2.71615
2.72134
2.72659
2.7307
2.73229
2.73134
2.72944
2.7282
2.73054
2.735
2.73932
2.7429
2.74456
2.74412
2.74332
2.74329
2.74548
2.74928
2.75283
2.75545
2.75662
2.75661
2.75638
2.75687
2.75844
2.76071
2.76306
2.7652
2.76708
2.76863
2.76976
2.77049
2.77112
2.77206
2.77364
2.77578
2.77791
2.77927
2.77964
2.7795
2.77963
2.78058
2.78223
2.78391
2.78504
2.7856
2.78614
2.78736
2.78942
2.79149
2.7926
2.79256
2.79219
2.79216
2.793
2.79462
2.7965
2.79788
2.79838
2.79821
2.79806
2.7983
2.79905
2.8002
2.80139
2.80223
2.80254
2.80234
2.80175
2.80118
2.80096
2.80139
2.80261
2.80422
2.80565
2.80654
2.80673
1
1
1
1
1
1
1
1
1
1
1
1
1
1
1
1
1
1
1
1
1
1
1
1
1
1
1
1
1
1
1
1
1
1
1
1
1
1
1
1
1
1
1
1
1
1
1
1
1
1
1
1
1
1
1
1
1
1
1
1
1
1
1
1
1
1
1
1
1
1
1
1
1
1
1
1
1
1
1
1
1
1
1
1
1
1
1
1
1
1
1
1
1
1
1
1
1
1
1.96137
2.6569
2.68602
2.68781
2.68996
2.6922
2.69516
2.69864
2.70212
2.70527
2.70795
2.7101
2.71157
2.71209
2.71191
2.71157
2.71252
2.71635
2.72135
2.72627
2.73012
2.73187
2.73143
2.73011
2.72897
2.73055
2.7348
2.73903
2.74257
2.7444
2.74429
2.74378
2.74371
2.74553
2.74903
2.75253
2.75523
2.75659
2.75679
2.75672
2.75721
2.7587
2.76084
2.76311
2.76522
2.76706
2.76857
2.76969
2.77047
2.77116
2.77218
2.77381
2.77593
2.77798
2.77926
2.7796
2.77949
2.77966
2.78065
2.78231
2.784
2.78513
2.7857
2.78621
2.78737
2.78934
2.79142
2.7926
2.79266
2.79235
2.79234
2.79312
2.79462
2.79639
2.79777
2.79835
2.79828
2.79817
2.79838
2.79906
2.80014
2.80134
2.80223
2.80258
2.80238
2.80174
2.8011
2.80085
2.80132
2.80263
2.8043
2.80568
2.80646
2.80657
1
1
1
1
1
1
1
1
1
1
1
1
1
1
1
1
1
1
1
1
1
1
1
1
1
1
1
1
1
1
1
1
1
1
1
1
1
1
1
1
1
1
1
1
1
1
1
1
1
1
1
1
1
1
1
1
1
1
1
1
1
1
1
1
1
1
1
1
1
1
1
1
1
1
1
1
1
1
1
1
1
1
1
1
1
1
1
1
1
1
1
1
1
1
1
1
1
1
1.95483
2.65712
2.68329
2.68604
2.68913
2.69229
2.6957
2.69963
2.70344
2.70649
2.70871
2.7102
2.71088
2.71098
2.71102
2.71155
2.71343
2.71698
2.72145
2.72581
2.72919
2.7309
2.73101
2.73051
2.7302
2.73129
2.73456
2.73834
2.74154
2.74356
2.74409
2.74412
2.74435
2.74592
2.74876
2.75188
2.75444
2.75597
2.75651
2.75678
2.75748
2.75892
2.7609
2.76304
2.76508
2.76686
2.76827
2.76929
2.77006
2.77085
2.77203
2.77382
2.77599
2.77794
2.77908
2.77933
2.77924
2.77948
2.78052
2.7822
2.78387
2.78501
2.78561
2.78615
2.78727
2.7891
2.79107
2.79229
2.79247
2.79229
2.7924
2.79319
2.79456
2.79613
2.79739
2.79803
2.79813
2.79812
2.79835
2.79898
2.79996
2.80112
2.80207
2.8025
2.80233
2.80166
2.80095
2.80065
2.80118
2.80261
2.80437
2.80569
2.80634
2.80634
1
1
1
1
1
1
1
1
1
1
1
1
1
1
1
1
1
1
1
1
1
1
1
1
1
1
1
1
1
1
1
1
1
1
1
1
1
1
1
1
1
1
1
1
1
1
1
1
1
1
1
1
1
1
1
1
1
1
1
1
1
1
1
1
1
1
1
1
1
1
1
1
1
1
1
1
1
1
1
1
1
1
1
1
1
1
1
1
1
1
1
1
1
1
1
1
1
1
1.94441
2.65684
2.68175
2.6849
2.68868
2.69233
2.69625
2.70035
2.70414
2.70698
2.70874
2.70968
2.71005
2.71036
2.71092
2.71211
2.71426
2.71744
2.72131
2.72498
2.7279
2.72983
2.73086
2.73129
2.73151
2.73227
2.73441
2.73742
2.74028
2.74254
2.74395
2.74461
2.74517
2.74644
2.74861
2.75127
2.75368
2.75541
2.75637
2.75697
2.75779
2.75912
2.76093
2.76298
2.76498
2.7667
2.76799
2.76891
2.76964
2.77052
2.7719
2.77386
2.77605
2.77789
2.77889
2.77909
2.77902
2.77934
2.78043
2.78208
2.7837
2.78484
2.78551
2.78614
2.78726
2.78897
2.79081
2.79199
2.79228
2.79226
2.79252
2.79334
2.79462
2.796
2.7971
2.79772
2.79795
2.79808
2.79838
2.79897
2.79987
2.80097
2.80192
2.80242
2.80226
2.80155
2.80078
2.80045
2.80105
2.80259
2.80443
2.80566
2.80617
2.80606
1
1
1
1
1
1
1
1
1
1
1
1
1
1
1
1
1
1
1
1
1
1
1
1
1
1
1
1
1
1
1
1
1
1
1
1
1
1
1
1
1
1
1
1
1
1
1
1
1
1
1
1
1
1
1
1
1
1
1
1
1
1
1
1
1
1
1
1
1
1
1
1
1
1
1
1
1
1
1
1
1
1
1
1
1
1
1
1
1
1
1
1
1
1
1
1
1
1
1.93141
2.65315
2.68126
2.68462
2.6889
2.69264
2.69659
2.70044
2.70383
2.70631
2.70778
2.70867
2.70946
2.7103
2.71138
2.71299
2.71513
2.71777
2.72085
2.7238
2.7264
2.72874
2.7307
2.73207
2.73284
2.73335
2.73444
2.73645
2.73895
2.74147
2.7436
2.74502
2.74593
2.74697
2.74858
2.75074
2.753
2.75491
2.75621
2.75705
2.75792
2.75915
2.7609
2.76295
2.76494
2.76657
2.7677
2.76845
2.76911
2.7701
2.77171
2.77383
2.77602
2.77772
2.7786
2.77879
2.77883
2.77928
2.78039
2.78192
2.7834
2.78452
2.78529
2.78608
2.78727
2.7889
2.79053
2.79159
2.79192
2.79206
2.7925
2.79342
2.79467
2.79591
2.79682
2.79734
2.79763
2.79791
2.7983
2.79891
2.79977
2.80082
2.80175
2.80226
2.8021
2.80136
2.80056
2.80024
2.80091
2.80254
2.80441
2.80557
2.80596
2.80576
1
1
1
1
1
1
1
1
1
1
1
1
1
1
1
1
1
1
1
1
1
1
1
1
1
1
1
1
1
1
1
1
1
1
1
1
1
1
1
1
1
1
1
1
1
1
1
1
1
1
1
1
1
1
1
1
1
1
1
1
1
1
1
1
1
1
1
1
1
1
1
1
1
1
1
1
1
1
1
1
1
1
1
1
1
1
1
1
1
1
1
1
1
1
1
1
1
1
1.91543
2.64801
2.68114
2.68479
2.68951
2.69335
2.69704
2.70022
2.70279
2.70468
2.70603
2.70746
2.70917
2.71092
2.71265
2.71433
2.71601
2.71783
2.72008
2.72249
2.725
2.72796
2.73073
2.73279
2.73387
2.73411
2.73439
2.73551
2.73771
2.74056
2.74329
2.74529
2.74646
2.74735
2.74853
2.75034
2.75254
2.75456
2.75602
2.75694
2.75779
2.75898
2.76078
2.76293
2.76495
2.76646
2.76739
2.76795
2.76857
2.76971
2.77154
2.77378
2.77592
2.77746
2.77822
2.77846
2.77868
2.77929
2.78039
2.78174
2.78302
2.78407
2.78495
2.78595
2.78729
2.78888
2.7903
2.79117
2.7915
2.79176
2.79238
2.79344
2.79474
2.79587
2.79661
2.79699
2.79727
2.79762
2.79813
2.79881
2.79969
2.8007
2.80158
2.80205
2.80186
2.80111
2.80032
2.80004
2.80077
2.80244
2.8043
2.8054
2.80571
2.80546
1
1
1
1
1
1
1
1
1
1
1
1
1
1
1
1
1
1
1
1
1
1
1
1
1
1
1
1
1
1
1
1
1
1
1
1
1
1
1
1
1
1
1
1
1
1
1
1
1
1
1
1
1
1
1
1
1
1
1
1
1
1
1
1
1
1
1
1
1
1
1
1
1
1
1
1
1
1
1
1
1
1
1
1
1
1
1
1
1
1
1
1
1
1
1
1
1
1
1.8949
2.64235
2.68157
2.68494
2.6897
2.69385
2.69743
2.6999
2.70152
2.70284
2.70426
2.70649
2.70926
2.71196
2.71414
2.71563
2.71663
2.71762
2.71912
2.72128
2.72403
2.72762
2.73091
2.73327
2.7344
2.73442
2.73423
2.73474
2.73672
2.73987
2.74301
2.74535
2.74668
2.7475
2.74846
2.7501
2.75226
2.75428
2.75572
2.7566
2.75744
2.75866
2.76061
2.7629
2.76492
2.7663
2.767
2.7674
2.76803
2.76935
2.77137
2.77367
2.77569
2.77706
2.77775
2.7781
2.77853
2.77931
2.78039
2.78154
2.7826
2.78356
2.78453
2.78575
2.78727
2.78884
2.79008
2.79076
2.79104
2.79139
2.79217
2.7934
2.79476
2.79583
2.79642
2.79668
2.79688
2.79725
2.79785
2.79864
2.79959
2.80059
2.8014
2.80179
2.80155
2.8008
2.80006
2.79986
2.80063
2.80229
2.80409
2.80513
2.80543
2.80519
1
1
1
1
1
1
1
1
1
1
1
1
1
1
1
1
1
1
1
1
1
1
1
1
1
1
1
1
1
1
1
1
1
1
1
1
1
1
1
1
1
1
1
1
1
1
1
1
1
1
1
1
1
1
1
1
1
1
1
1
1
1
1
1
1
1
1
1
1
1
1
1
1
1
1
1
1
1
1
1
1
1
1
1
1
1
1
1
1
1
1
1
1
1
1
1
1
1
1.86982
2.63717
2.68188
2.68517
2.69001
2.69426
2.69761
2.69953
2.70038
2.70112
2.70278
2.70573
2.7093
2.71251
2.71487
2.71621
2.71682
2.71724
2.71818
2.72032
2.72346
2.72743
2.73089
2.73328
2.73434
2.73429
2.73387
2.73415
2.73604
2.73939
2.74275
2.74528
2.7467
2.7475
2.74839
2.74996
2.75203
2.75394
2.75529
2.75612
2.75698
2.75832
2.76047
2.76286
2.76483
2.76602
2.76653
2.76682
2.76752
2.76905
2.77122
2.7735
2.77536
2.77656
2.77722
2.77772
2.77838
2.7793
2.78032
2.78126
2.78214
2.78303
2.78411
2.78552
2.78717
2.78871
2.78979
2.79033
2.79059
2.79103
2.79195
2.7933
2.7947
2.79571
2.79621
2.79637
2.79651
2.79687
2.79751
2.7984
2.79942
2.80044
2.80119
2.80149
2.8012
2.80045
2.79978
2.79967
2.80047
2.80208
2.80379
2.80481
2.80513
2.80492
1
1
1
1
1
1
1
1
1
1
1
1
1
1
1
1
1
1
1
1
1
1
1
1
1
1
1
1
1
1
1
1
1
1
1
1
1
1
1
1
1
1
1
1
1
1
1
1
1
1
1
1
1
1
1
1
1
1
1
1
1
1
1
1
1
1
1
1
1
1
1
1
1
1
1
1
1
1
1
1
1
1
1
1
1
1
1
1
1
1
1
1
1
1
1
1
1
1
1.83881
2.63225
2.68184
2.68547
2.69028
2.6945
2.69762
2.69918
2.69966
2.70005
2.70162
2.70491
2.70879
2.71217
2.71469
2.71614
2.71672
2.71694
2.71756
2.71956
2.72288
2.72688
2.73038
2.73281
2.73391
2.7339
2.7335
2.73377
2.73565
2.73901
2.74243
2.74507
2.7466
2.74744
2.74832
2.74979
2.75169
2.75343
2.75468
2.75555
2.75657
2.75813
2.7604
2.76274
2.76455
2.76555
2.76594
2.76627
2.76717
2.76887
2.77105
2.77319
2.77486
2.77596
2.77668
2.77737
2.77824
2.77922
2.78011
2.78086
2.78162
2.78254
2.78375
2.78529
2.78697
2.78842
2.78936
2.78983
2.79015
2.79072
2.79175
2.79314
2.7945
2.79544
2.79589
2.79603
2.79617
2.79652
2.79717
2.79808
2.79915
2.8002
2.80093
2.80118
2.80085
2.8001
2.79948
2.79943
2.80025
2.80182
2.80346
2.80447
2.8048
2.80465
1
1
1
1
1
1
1
1
1
1
1
1
1
1
1
1
1
1
1
1
1
1
1
1
1
1
1
1
1
1
1
1
1
1
1
1
1
1
1
1
1
1
1
1
1
1
1
1
1
1
1
1
1
1
1
1
1
1
1
1
1
1
1
1
1
1
1
1
1
1
1
1
1
1
1
1
1
1
1
1
1
1
1
1
1
1
1
1
1
1
1
1
1
1
1
1
1
1
1.80306
2.62715
2.68165
2.68561
2.69001
2.69399
2.69705
2.69855
2.69906
2.69949
2.70085
2.70391
2.70778
2.71131
2.71405
2.71578
2.71657
2.7169
2.71737
2.71895
2.72201
2.72577
2.7293
2.73195
2.73335
2.73359
2.73337
2.73367
2.73545
2.73863
2.74198
2.74471
2.74642
2.74738
2.74826
2.74953
2.75111
2.75264
2.75391
2.75504
2.75636
2.75808
2.76028
2.76239
2.76397
2.76487
2.76533
2.76593
2.76707
2.76878
2.77078
2.77267
2.77417
2.77527
2.77619
2.77715
2.77815
2.77904
2.77972
2.7803
2.78104
2.78208
2.78348
2.78514
2.78673
2.78797
2.78875
2.78923
2.78971
2.79049
2.79164
2.79299
2.7942
2.79502
2.79544
2.79565
2.79587
2.79625
2.79686
2.79771
2.79877
2.79985
2.80061
2.80087
2.80052
2.79974
2.79913
2.79913
2.79997
2.80149
2.80308
2.8041
2.80444
2.80432
1
1
1
1
1
1
1
1
1
1
1
1
1
1
1
1
1
1
1
1
1
1
1
1
1
1
1
1
1
1
1
1
1
1
1
1
1
1
1
1
1
1
1
1
1
1
1
1
1
1
1
1
1
1
1
1
1
1
1
1
1
1
1
1
1
1
1
1
1
1
1
1
1
1
1
1
1
1
1
1
1
1
1
1
1
1
1
1
1
1
1
1
1
1
1
1
1
1
1.76297
2.61989
2.68125
2.68522
2.68952
2.69334
2.69641
2.6982
2.69878
2.69903
2.69998
2.70257
2.70634
2.71008
2.71318
2.71539
2.71661
2.7171
2.7174
2.71837
2.72085
2.72427
2.72784
2.73083
2.73274
2.73349
2.73352
2.73385
2.73535
2.73816
2.74136
2.7442
2.74617
2.7473
2.74812
2.74906
2.75024
2.75162
2.75313
2.7547
2.75632
2.75808
2.76
2.76173
2.76306
2.76401
2.76483
2.76585
2.76717
2.76873
2.77035
2.77187
2.77323
2.77451
2.7758
2.77707
2.77811
2.7788
2.77918
2.7796
2.78037
2.78164
2.78332
2.78506
2.78648
2.78741
2.788
2.78853
2.78926
2.79032
2.79158
2.79282
2.79381
2.79446
2.79486
2.7952
2.7956
2.79604
2.79656
2.79728
2.79827
2.79938
2.80023
2.80056
2.8002
2.79937
2.79873
2.79874
2.7996
2.80113
2.80271
2.80372
2.80406
2.80396
1
1
1
1
1
1
1
1
1
1
1
1
1
1
1
1
1
1
1
1
1
1
1
1
1
1
1
1
1
1
1
1
1
1
1
1
1
1
1
1
1
1
1
1
1
1
1
1
1
1
1
1
1
1
1
1
1
1
1
1
1
1
1
1
1
1
1
1
1
1
1
1
1
1
1
1
1
1
1
1
1
1
1
1
1
1
1
1
1
1
1
1
1
1
1
1
1
1
1.71959
2.60939
2.68131
2.68428
2.68885
2.69269
2.69583
2.69781
2.69848
2.69856
2.69908
2.70114
2.70482
2.70883
2.71243
2.71518
2.71675
2.71728
2.71733
2.71772
2.71956
2.72264
2.72624
2.72961
2.7321
2.73338
2.73377
2.73414
2.73525
2.73764
2.74073
2.7437
2.74589
2.74708
2.7477
2.74826
2.74911
2.75057
2.75254
2.75459
2.7564
2.75801
2.75945
2.76068
2.76185
2.7631
2.76452
2.76603
2.76745
2.76868
2.76975
2.77081
2.77209
2.77371
2.77551
2.77709
2.77811
2.77846
2.77848
2.77875
2.77962
2.78121
2.7832
2.78498
2.78618
2.78679
2.78718
2.78777
2.78879
2.79014
2.79149
2.79258
2.79334
2.79381
2.79421
2.79472
2.79532
2.79581
2.79623
2.79681
2.79769
2.79882
2.79982
2.80024
2.79988
2.79899
2.79829
2.79829
2.79919
2.80076
2.80234
2.80333
2.80363
2.80355
1
1
1
1
1
1
1
1
1
1
1
1
1
1
1
1
1
1
1
1
1
1
1
1
1
1
1
1
1
1
1
1
1
1
1
1
1
1
1
1
1
1
1
1
1
1
1
1
1
1
1
1
1
1
1
1
1
1
1
1
1
1
1
1
1
1
1
1
1
1
1
1
1
1
1
1
1
1
1
1
1
1
1
1
1
1
1
1
1
1
1
1
1
1
1
1
1
1
1.6724
2.59672
2.68131
2.68388
2.68849
2.69218
2.69523
2.69709
2.69766
2.69764
2.69803
2.69993
2.70365
2.708
2.71205
2.71515
2.71681
2.71716
2.71696
2.71696
2.71828
2.72112
2.72478
2.72849
2.73147
2.73322
2.73387
2.7342
2.73497
2.73712
2.7402
2.74324
2.74547
2.74651
2.74682
2.74704
2.74785
2.74974
2.75229
2.7547
2.75653
2.75771
2.75852
2.75929
2.76047
2.76225
2.76441
2.7664
2.76777
2.76849
2.76894
2.76958
2.77086
2.77292
2.77527
2.77715
2.77804
2.77798
2.77771
2.77787
2.77888
2.78083
2.78308
2.78487
2.78582
2.78615
2.78639
2.78704
2.78831
2.7899
2.79128
2.79221
2.79278
2.79314
2.79358
2.79427
2.79503
2.7955
2.7958
2.79627
2.79708
2.79825
2.79938
2.79988
2.79951
2.79857
2.7978
2.79779
2.79874
2.80038
2.80196
2.8029
2.80316
2.80308
1
1
1
1
1
1
1
1
1
1
1
1
1
1
1
1
1
1
1
1
1
1
1
1
1
1
1
1
1
1
1
1
1
1
1
1
1
1
1
1
1
1
1
1
1
1
1
1
1
1
1
1
1
1
1
1
1
1
1
1
1
1
1
1
1
1
1
1
1
1
1
1
1
1
1
1
1
1
1
1
1
1
1
1
1
1
1
1
1
1
1
1
1
1
1
1
1
1
1.62069
2.58246
2.68016
2.68361
2.68811
2.69162
2.69454
2.69621
2.69657
2.69648
2.69701
2.6991
2.70295
2.70754
2.71188
2.71512
2.71669
2.71679
2.71635
2.71622
2.71736
2.72002
2.72365
2.72747
2.73067
2.7327
2.73357
2.73397
2.73471
2.73686
2.7399
2.74282
2.74483
2.74558
2.74556
2.74556
2.74674
2.74936
2.75236
2.75493
2.75647
2.75703
2.75723
2.75769
2.7591
2.76162
2.76449
2.7668
2.76791
2.76803
2.76795
2.7683
2.76972
2.77228
2.7751
2.77708
2.77773
2.77734
2.77685
2.777
2.77823
2.78049
2.7829
2.7846
2.78532
2.78546
2.78564
2.78639
2.78785
2.78957
2.7909
2.79168
2.79216
2.7925
2.79302
2.79387
2.79469
2.79508
2.79527
2.79566
2.79647
2.79772
2.79894
2.79947
2.79905
2.79808
2.79727
2.79728
2.79829
2.79997
2.80153
2.80241
2.80263
2.80258
1
1
1
1
1
1
1
1
1
1
1
1
1
1
1
1
1
1
1
1
1
1
1
1
1
1
1
1
1
1
1
1
1
1
1
1
1
1
1
1
1
1
1
1
1
1
1
1
1
1
1
1
1
1
1
1
1
1
1
1
1
1
1
1
1
1
1
1
1
1
1
1
1
1
1
1
1
1
1
1
1
1
1
1
1
1
1
1
1
1
1
1
1
1
1
1
1
1
1.56356
2.56509
2.67826
2.68333
2.68798
2.69133
2.69393
2.69525
2.69544
2.6955
2.69636
2.69869
2.70254
2.70718
2.71156
2.71474
2.71611
2.71608
2.71574
2.71583
2.7171
2.71959
2.72294
2.72652
2.72958
2.73161
2.73269
2.7334
2.73453
2.73689
2.73982
2.7424
2.74396
2.74422
2.74402
2.74417
2.74616
2.74938
2.75259
2.75497
2.75598
2.75591
2.75569
2.7561
2.75812
2.76138
2.76467
2.76689
2.76758
2.76723
2.76681
2.76712
2.76886
2.77186
2.77488
2.77673
2.77706
2.77649
2.77595
2.77625
2.7778
2.78027
2.78265
2.78413
2.78465
2.7847
2.78495
2.78587
2.78745
2.78914
2.79032
2.791
2.79146
2.79189
2.79254
2.7935
2.79426
2.79449
2.79459
2.79498
2.79588
2.79724
2.7985
2.79897
2.79849
2.7975
2.79672
2.79679
2.79787
2.79954
2.80102
2.80184
2.80206
2.80206
1
1
1
1
1
1
1
1
1
1
1
1
1
1
1
1
1
1
1
1
1
1
1
1
1
1
1
1
1
1
1
1
1
1
1
1
1
1
1
1
1
1
1
1
1
1
1
1
1
1
1
1
1
1
1
1
1
1
1
1
1
1
1
1
1
1
1
1
1
1
1
1
1
1
1
1
1
1
1
1
1
1
1
1
1
1
1
1
1
1
1
1
1
1
1
1
1
1
1.50051
2.54422
2.67696
2.68277
2.68766
2.69098
2.69335
2.69445
2.69466
2.69502
2.69626
2.69872
2.70238
2.70674
2.71085
2.71375
2.715
2.71524
2.71539
2.71596
2.71739
2.71967
2.72258
2.72566
2.72829
2.73016
2.73148
2.73266
2.73434
2.73695
2.73971
2.74179
2.74273
2.74267
2.74242
2.74328
2.74615
2.74964
2.75271
2.75457
2.75489
2.75444
2.75408
2.75496
2.75782
2.76148
2.76472
2.76654
2.7667
2.76611
2.76563
2.76621
2.76845
2.77166
2.77455
2.77607
2.77604
2.77541
2.77503
2.77569
2.77763
2.78017
2.7823
2.78343
2.78374
2.78381
2.78427
2.78544
2.7871
2.78862
2.78958
2.79016
2.79069
2.79132
2.79217
2.79315
2.79374
2.79377
2.7938
2.79425
2.79532
2.79683
2.79804
2.79837
2.79781
2.79685
2.79615
2.79633
2.79746
2.79906
2.80041
2.80118
2.80144
2.80155
1
1
1
1
1
1
1
1
1
1
1
1
1
1
1
1
1
1
1
1
1
1
1
1
1
1
1
1
1
1
1
1
1
1
1
1
1
1
1
1
1
1
1
1
1
1
1
1
1
1
1
1
1
1
1
1
1
1
1
1
1
1
1
1
1
1
1
1
1
1
1
1
1
1
1
1
1
1
1
1
1
1
1
1
1
1
1
1
1
1
1
1
1
1
1
1
1
1
1.43268
2.52047
2.67761
2.68265
2.68733
2.69057
2.6928
2.69373
2.6941
2.69491
2.69651
2.69899
2.70227
2.70605
2.70962
2.71213
2.71349
2.7144
2.71527
2.71639
2.71797
2.71997
2.72234
2.72476
2.72686
2.72861
2.73025
2.73202
2.73425
2.73691
2.73932
2.74078
2.74114
2.74105
2.7411
2.74303
2.74646
2.74987
2.75243
2.75357
2.75327
2.75262
2.75256
2.75436
2.75791
2.76166
2.76448
2.76571
2.76543
2.76475
2.76452
2.76568
2.76843
2.77164
2.77407
2.77505
2.77471
2.77413
2.77413
2.77538
2.77771
2.78016
2.78183
2.78251
2.78263
2.78282
2.78361
2.78512
2.78682
2.78807
2.78873
2.78922
2.78984
2.79075
2.79189
2.7928
2.79309
2.79295
2.79291
2.79348
2.79478
2.79643
2.79753
2.79765
2.79702
2.79613
2.79559
2.79591
2.79705
2.7985
2.79969
2.80044
2.80081
2.80106
1
1
1
1
1
1
1
1
1
1
1
1
1
1
1
1
1
1
1
1
1
1
1
1
1
1
1
1
1
1
1
1
1
1
1
1
1
1
1
1
1
1
1
1
1
1
1
1
1
1
1
1
1
1
1
1
1
1
1
1
1
1
1
1
1
1
1
1
1
1
1
1
1
1
1
1
1
1
1
1
1
1
1
1
1
1
1
1
1
1
1
1
1
1
1
1
1
1
1.36467
2.4944
2.67907
2.68271
2.68663
2.68965
2.69194
2.69305
2.69388
2.69514
2.69693
2.69917
2.70188
2.70494
2.70792
2.71019
2.71193
2.71365
2.71529
2.71688
2.7185
2.72019
2.72197
2.72371
2.72539
2.72717
2.72923
2.73154
2.73405
2.73653
2.73843
2.73934
2.73941
2.73955
2.74043
2.74337
2.74692
2.7499
2.75171
2.75201
2.7513
2.75074
2.75146
2.75439
2.75833
2.76182
2.76395
2.76444
2.76388
2.76328
2.76355
2.76543
2.76851
2.77152
2.77336
2.77371
2.7732
2.77276
2.77331
2.77526
2.77789
2.78007
2.78119
2.78145
2.78141
2.78174
2.78294
2.78483
2.78654
2.78746
2.78779
2.78818
2.78893
2.79016
2.79159
2.79243
2.79237
2.79205
2.79196
2.7927
2.79425
2.79599
2.79695
2.79685
2.79613
2.79537
2.79505
2.79552
2.79661
2.79786
2.79886
2.79963
2.80014
2.80059
1
1
1
1
1
1
1
1
1
1
1
1
1
1
1
1
1
1
1
1
1
1
1
1
1
1
1
1
1
1
1
1
1
1
1
1
1
1
1
1
1
1
1
1
1
1
1
1
1
1
1
1
1
1
1
1
1
1
1
1
1
1
1
1
1
1
1
1
1
1
1
1
1
1
1
1
1
1
1
1
1
1
1
1
1
1
1
1
1
1
1
1
1
1
1
1
1
1
1.29626
2.4642
2.68063
2.68233
2.68559
2.6884
2.69077
2.6923
2.69366
2.69528
2.6971
2.69907
2.70127
2.70374
2.70627
2.70852
2.7107
2.71302
2.71515
2.71701
2.71861
2.72004
2.72133
2.72261
2.72411
2.72607
2.72848
2.73108
2.73359
2.73573
2.73708
2.73757
2.73775
2.73841
2.74041
2.74393
2.74723
2.74957
2.75055
2.7501
2.74918
2.74904
2.75086
2.7547
2.75871
2.76173
2.76315
2.76297
2.76225
2.76188
2.76275
2.76529
2.76852
2.77116
2.77241
2.77226
2.77168
2.77152
2.77274
2.77532
2.77803
2.7798
2.78036
2.78027
2.78017
2.7807
2.78233
2.78452
2.78617
2.78675
2.78681
2.7871
2.78803
2.78959
2.7912
2.79193
2.79161
2.79109
2.791
2.79191
2.79369
2.79545
2.79625
2.79595
2.79519
2.79459
2.79453
2.79515
2.79613
2.79711
2.79793
2.79874
2.79946
2.80013
1
1
1
1
1
1
1
1
1
1
1
1
1
1
1
1
1
1
1
1
1
1
1
1
1
1
1
1
1
1
1
1
1
1
1
1
1
1
1
1
1
1
1
1
1
1
1
1
1
1
1
1
1
1
1
1
1
1
1
1
1
1
1
1
1
1
1
1
1
1
1
1
1
1
1
1
1
1
1
1
1
1
1
1
1
1
1
1
1
1
1
1
1
1
1
1
1
1
1.22432
2.42603
2.68058
2.6819
2.68461
2.6871
2.68948
2.69145
2.69334
2.69525
2.69698
2.69866
2.70051
2.70267
2.70503
2.70742
2.70989
2.71242
2.71464
2.71654
2.71816
2.7195
2.72061
2.72174
2.72325
2.72534
2.72788
2.73051
2.73286
2.73461
2.73553
2.73588
2.73637
2.73785
2.74074
2.74433
2.74723
2.74885
2.74903
2.74811
2.74726
2.74786
2.75081
2.75504
2.7588
2.76121
2.76195
2.76144
2.76076
2.76074
2.76224
2.76516
2.76825
2.77037
2.77109
2.77074
2.77022
2.77055
2.77252
2.7754
2.77789
2.77916
2.7793
2.77907
2.77899
2.7798
2.78181
2.78413
2.78559
2.78588
2.78579
2.78604
2.78716
2.78905
2.79072
2.79128
2.79078
2.79011
2.79005
2.79115
2.79311
2.79482
2.79542
2.79498
2.79423
2.7938
2.79401
2.79476
2.79557
2.79628
2.79693
2.7978
2.79874
2.79965
1
1
1
1
1
1
1
1
1
1
1
1
1
1
1
1
1
1
1
1
1
1
1
1
1
1
1
1
1
1
1
1
1
1
1
1
1
1
1
1
1
1
1
1
1
1
1
1
1
1
1
1
1
1
1
1
1
1
1
1
1
1
1
1
1
1
1
1
1
1
1
1
1
1
1
1
1
1
1
1
1
1
1
1
1
1
1
1
1
1
1
1
1
1
1
1
1
1
1.15177
2.38308
2.67981
2.68147
2.6837
2.68604
2.68844
2.69074
2.69296
2.69498
2.69659
2.69803
2.69971
2.70185
2.70435
2.70696
2.7095
2.71186
2.71383
2.7156
2.71722
2.71865
2.71991
2.72121
2.72282
2.72486
2.72724
2.72969
2.73181
2.73329
2.73407
2.73459
2.73562
2.73781
2.74104
2.74437
2.7467
2.74767
2.74732
2.74629
2.74585
2.74737
2.75105
2.75517
2.75848
2.76027
2.76047
2.75989
2.75943
2.75991
2.76197
2.76494
2.76764
2.76919
2.7695
2.76919
2.76899
2.77006
2.77259
2.77539
2.77738
2.77812
2.77803
2.77778
2.77792
2.77914
2.7814
2.78361
2.78478
2.78484
2.78469
2.78504
2.7864
2.78852
2.79013
2.79049
2.78986
2.7891
2.78913
2.7904
2.79246
2.79406
2.79447
2.79394
2.79326
2.79301
2.79348
2.79432
2.79494
2.79539
2.79587
2.79682
2.798
2.79911
1
1
1
1
1
1
1
1
1
1
1
1
1
1
1
1
1
1
1
1
1
1
1
1
1
1
1
1
1
1
1
1
1
1
1
1
1
1
1
1
1
1
1
1
1
1
1
1
1
1
1
1
1
1
1
1
1
1
1
1
1
1
1
1
1
1
1
1
1
1
1
1
1
1
1
1
1
1
1
1
1
1
1
1
1
1
1
1
1
1
1
1
1
1
1
1
1
1
1.07071
2.33703
2.68078
2.68207
2.68334
2.68557
2.68796
2.69052
2.69297
2.69493
2.6963
2.69751
2.69912
2.70135
2.70403
2.70676
2.70923
2.71131
2.71301
2.71457
2.71616
2.71779
2.71941
2.72101
2.72264
2.72445
2.7265
2.72864
2.73053
2.73194
2.73289
2.73385
2.73544
2.73796
2.74109
2.74398
2.74572
2.74617
2.74564
2.74481
2.74505
2.74742
2.75131
2.75506
2.75775
2.75894
2.75881
2.75831
2.75825
2.7594
2.76189
2.76466
2.76674
2.76766
2.76771
2.76754
2.76802
2.77003
2.7728
2.77518
2.77646
2.77668
2.7765
2.77643
2.777
2.77871
2.78108
2.78296
2.78373
2.78364
2.78353
2.78411
2.78575
2.78797
2.78942
2.78954
2.78883
2.78808
2.78824
2.78966
2.79175
2.79319
2.79342
2.79285
2.79227
2.79223
2.79292
2.7938
2.79422
2.79445
2.79481
2.79583
2.79721
2.79848
1
1
1
1
1
1
1
1
1
1
1
1
1
1
1
1
1
1
1
1
1
1
1
1
1
1
1
1
1
1
1
1
1
1
1
1
1
1
1
1
1
1
1
1
1
1
1
1
1
1
1
1
1
1
1
1
1
1
1
1
1
1
1
1
1
1
1
1
1
1
1
1
1
1
1
1
1
1
1
1
1
1
1
1
1
1
1
1
1
1
1
1
1
1
1
1
1
1
1.00311
2.29209
2.6796
2.68156
2.68298
2.68536
2.68772
2.69028
2.69269
2.69464
2.69611
2.69748
2.69915
2.70134
2.70397
2.70669
2.70912
2.71096
2.71238
2.71379
2.71541
2.71722
2.71912
2.72091
2.72249
2.72399
2.72565
2.72747
2.72923
2.73076
2.73208
2.73354
2.73548
2.73803
2.74085
2.74322
2.74445
2.74455
2.74411
2.74373
2.7447
2.74768
2.75146
2.75476
2.75679
2.75739
2.75706
2.75671
2.75718
2.7591
2.76188
2.76433
2.76568
2.76595
2.76582
2.76594
2.7674
2.77022
2.77302
2.77476
2.77526
2.77507
2.77483
2.77508
2.7763
2.77848
2.78076
2.78215
2.78241
2.78223
2.78229
2.78325
2.78522
2.78739
2.78857
2.78845
2.78769
2.78704
2.7874
2.78896
2.79097
2.79221
2.79228
2.79172
2.79127
2.79144
2.79232
2.79316
2.79341
2.79347
2.79374
2.79482
2.79637
2.79774
1
1
1
1
1
1
1
1
1
1
1
1
1
1
1
1
1
1
1
1
1
1
1
1
1
1
1
1
1
1
1
1
1
1
1
1
1
1
1
1
1
1
1
1
1
1
1
1
1
1
1
1
1
1
1
1
1
1
1
1
1
1
1
1
1
1
1
1
1
1
1
1
1
1
1
1
1
1
1
1
1
1
1
1
1
1
1
1
1
1
1
1
1
1
1
1
1
1
1.00002
2.23359
2.67734
2.68245
2.68411
2.68638
2.68844
2.6907
2.69287
2.69479
2.69636
2.69784
2.69954
2.7016
2.704
2.70646
2.70865
2.71039
2.71185
2.71339
2.7152
2.71719
2.71915
2.72089
2.72228
2.72347
2.72481
2.72642
2.72817
2.7299
2.73158
2.73337
2.73546
2.73787
2.7403
2.7422
2.74309
2.74307
2.74281
2.74295
2.7446
2.74784
2.75139
2.75423
2.75571
2.75583
2.75537
2.75517
2.75622
2.75882
2.76175
2.76379
2.76447
2.76426
2.76398
2.76457
2.76706
2.77041
2.77298
2.77403
2.77384
2.77329
2.7731
2.77382
2.77578
2.77833
2.78031
2.78113
2.78096
2.78071
2.78103
2.7825
2.78478
2.78676
2.78754
2.78721
2.78645
2.78599
2.78659
2.78828
2.79013
2.79112
2.79104
2.79054
2.79025
2.79063
2.79165
2.79242
2.79252
2.79246
2.79269
2.79382
2.79547
2.79687
1
1
1
1
1
1
1
1
1
1
1
1
1
1
1
1
1
1
1
1
1
1
1
1
1
1
1
1
1
1
1
1
1
1
1
1
1
1
1
1
1
1
1
1
1
1
1
1
1
1
1
1
1
1
1
1
1
1
1
1
1
1
1
1
1
1
1
1
1
1
1
1
1
1
1
1
1
1
1
1
1
1
1
1
1
1
1
1
1
1
1
1
1
1
1
1
1
1
1
2.16254
2.67211
2.68327
2.68488
2.68704
2.68898
2.69108
2.69312
2.69507
2.69683
2.69843
2.70006
2.7019
2.704
2.70622
2.70835
2.71019
2.71181
2.7135
2.71535
2.71732
2.7192
2.72075
2.72192
2.72295
2.72417
2.72572
2.72749
2.72935
2.73123
2.73318
2.73526
2.73743
2.73949
2.74106
2.74181
2.74188
2.74189
2.74246
2.7445
2.74769
2.75096
2.75341
2.75451
2.75437
2.75383
2.75384
2.75542
2.75841
2.76131
2.76297
2.76312
2.76267
2.7624
2.76365
2.76691
2.77038
2.77254
2.77295
2.77229
2.77147
2.77145
2.77278
2.7754
2.77812
2.77967
2.77984
2.77943
2.77915
2.77985
2.78185
2.78433
2.78599
2.78634
2.78584
2.78514
2.78493
2.78584
2.78762
2.78923
2.78991
2.78971
2.78931
2.78921
2.7898
2.79091
2.79157
2.79155
2.7914
2.79163
2.79281
2.7945
2.79588
1
1
1
1
1
1
1
1
1
1
1
1
1
1
1
1
1
1
1
1
1
1
1
1
1
1
1
1
1
1
1
1
1
1
1
1
1
1
1
1
1
1
1
1
1
1
1
1
1
1
1
1
1
1
1
1
1
1
1
1
1
1
1
1
1
1
1
1
1
1
1
1
1
1
1
1
1
1
1
1
1
1
1
1
1
1
1
1
1
1
1
1
1
1
1
1
1
1
1
2.08206
2.66143
2.68179
2.68454
2.687
2.68912
2.69131
2.69334
2.69523
2.69699
2.69855
2.70009
2.70179
2.70375
2.70598
2.7083
2.71042
2.71225
2.71395
2.71561
2.71723
2.71875
2.72012
2.72135
2.72256
2.72395
2.72554
2.72726
2.72906
2.73093
2.73287
2.73484
2.73677
2.73854
2.7399
2.74067
2.74098
2.74134
2.7423
2.74441
2.74731
2.75019
2.75228
2.75313
2.75297
2.75255
2.75292
2.75488
2.75786
2.76046
2.76175
2.76167
2.76117
2.76124
2.76322
2.76674
2.76992
2.7716
2.77153
2.77056
2.7697
2.77001
2.772
2.77506
2.77764
2.77872
2.77841
2.7778
2.77764
2.77882
2.78128
2.78375
2.78504
2.785
2.78438
2.78377
2.7839
2.78515
2.78694
2.78823
2.78858
2.78832
2.78801
2.78814
2.78897
2.79008
2.79061
2.79051
2.7903
2.79057
2.79179
2.79348
2.79478
1
1
1
1
1
1
1
1
1
1
1
1
1
1
1
1
1
1
1
1
1
1
1
1
1
1
1
1
1
1
1
1
1
1
1
1
1
1
1
1
1
1
1
1
1
1
1
1
1
1
1
1
1
1
1
1
1
1
1
1
1
1
1
1
1
1
1
1
1
1
1
1
1
1
1
1
1
1
1
1
1
1
1
1
1
1
1
1
1
1
1
1
1
1
1
1
1
1
1
1.99612
2.64558
2.67792
2.6824
2.68579
2.6885
2.69095
2.69301
2.69485
2.69657
2.69812
2.69959
2.70127
2.70337
2.70582
2.70839
2.71075
2.71268
2.7142
2.71545
2.71661
2.7179
2.7194
2.72099
2.72257
2.72413
2.72566
2.72718
2.72879
2.73054
2.73239
2.73427
2.73605
2.73761
2.73883
2.73964
2.74024
2.74101
2.7423
2.74435
2.74682
2.74914
2.7508
2.7515
2.7515
2.75151
2.75247
2.75466
2.75728
2.75931
2.76016
2.76005
2.75985
2.76061
2.76316
2.76651
2.76911
2.77017
2.76975
2.7687
2.76808
2.76891
2.77149
2.77467
2.77685
2.7774
2.77685
2.77614
2.77627
2.778
2.78073
2.78297
2.78384
2.78354
2.78284
2.78241
2.78293
2.78449
2.78618
2.78709
2.78715
2.78686
2.78669
2.78707
2.78812
2.78916
2.78953
2.78937
2.78914
2.78949
2.79075
2.79238
2.79355
1
1
1
1
1
1
1
1
1
1
1
1
1
1
1
1
1
1
1
1
1
1
1
1
1
1
1
1
1
1
1
1
1
1
1
1
1
1
1
1
1
1
1
1
1
1
1
1
1
1
1
1
1
1
1
1
1
1
1
1
1
1
1
1
1
1
1
1
1
1
1
1
1
1
1
1
1
1
1
1
1
1
1
1
1
1
1
1
1
1
1
1
1
1
1
1
1
1
1
1.90353
2.62611
2.67223
2.67879
2.6836
2.68704
2.68978
2.69184
2.69353
2.69515
2.6967
2.69827
2.70019
2.70269
2.7055
2.70827
2.71075
2.71265
2.71391
2.71478
2.71577
2.71715
2.71894
2.72087
2.72272
2.72433
2.72567
2.72694
2.72836
2.73006
2.73191
2.7338
2.73551
2.73689
2.7379
2.73865
2.73949
2.7407
2.74233
2.74432
2.74634
2.74797
2.74906
2.74961
2.74996
2.75075
2.75242
2.75459
2.7566
2.7579
2.75831
2.75831
2.75873
2.7604
2.76323
2.76611
2.76795
2.76834
2.76768
2.76679
2.76668
2.76821
2.77115
2.77408
2.77571
2.77577
2.77512
2.77452
2.77512
2.77735
2.78012
2.78196
2.7824
2.78193
2.78126
2.78111
2.78206
2.78383
2.78527
2.7858
2.78564
2.78534
2.78535
2.78603
2.78722
2.78812
2.78832
2.78813
2.78794
2.7884
2.78969
2.79122
2.79222
1
1
1
1
1
1
1
1
1
1
1
1
1
1
1
1
1
1
1
1
1
1
1
1
1
1
1
1
1
1
1
1
1
1
1
1
1
1
1
1
1
1
1
1
1
1
1
1
1
1
1
1
1
1
1
1
1
1
1
1
1
1
1
1
1
1
1
1
1
1
1
1
1
1
1
1
1
1
1
1
1
1
1
1
1
1
1
1
1
1
1
1
1
1
1
1
1
1
1
1.79868
2.60303
2.66731
2.67514
2.68111
2.68497
2.68772
2.68965
2.69116
2.69271
2.69434
2.6961
2.69834
2.70121
2.70434
2.70732
2.70992
2.71183
2.71299
2.7139
2.71514
2.71677
2.7187
2.72076
2.72263
2.72412
2.72527
2.72641
2.72781
2.72959
2.73156
2.73352
2.73519
2.73637
2.7371
2.73768
2.73871
2.74034
2.74229
2.74425
2.74584
2.74682
2.7473
2.74767
2.74847
2.75017
2.75243
2.75448
2.75584
2.75638
2.75639
2.75661
2.75783
2.76031
2.76319
2.76545
2.76647
2.76625
2.76549
2.76494
2.76558
2.76786
2.77086
2.77321
2.77419
2.77391
2.77326
2.773
2.77423
2.77683
2.77936
2.78071
2.78076
2.78019
2.77967
2.7799
2.78127
2.78308
2.78419
2.78434
2.78404
2.78379
2.78404
2.78503
2.78626
2.78696
2.78699
2.78677
2.78669
2.78731
2.7886
2.78998
2.79076
1
1
1
1
1
1
1
1
1
1
1
1
1
1
1
1
1
1
1
1
1
1
1
1
1
1
1
1
1
1
1
1
1
1
1
1
1
1
1
1
1
1
1
1
1
1
1
1
1
1
1
1
1
1
1
1
1
1
1
1
1
1
1
1
1
1
1
1
1
1
1
1
1
1
1
1
1
1
1
1
1
1
1
1
1
1
1
1
1
1
1
1
1
1
1
1
1
1
1
1.67734
2.57514
2.66521
2.67229
2.67819
2.68222
2.68492
2.68655
2.68788
2.68942
2.69119
2.69324
2.69584
2.69897
2.70221
2.7052
2.70786
2.70998
2.71147
2.71283
2.71451
2.71641
2.71838
2.72034
2.72206
2.72335
2.72441
2.72563
2.72716
2.72908
2.73119
2.73323
2.73485
2.73587
2.73638
2.73686
2.73807
2.73996
2.74209
2.74401
2.74527
2.74571
2.7457
2.74598
2.74729
2.74967
2.75221
2.75409
2.75491
2.75485
2.75465
2.75515
2.75712
2.76009
2.76285
2.76444
2.76469
2.76406
2.76331
2.76331
2.76485
2.76767
2.77042
2.77203
2.77232
2.77187
2.77132
2.77165
2.77361
2.77633
2.7784
2.77919
2.77894
2.77835
2.77812
2.77881
2.78052
2.78217
2.78291
2.78274
2.78234
2.78226
2.7828
2.78405
2.78519
2.78564
2.78554
2.78529
2.78539
2.78621
2.78748
2.78866
2.78919
1
1
1
1
1
1
1
1
1
1
1
1
1
1
1
1
1
1
1
1
1
1
1
1
1
1
1
1
1
1
1
1
1
1
1
1
1
1
1
1
1
1
1
1
1
1
1
1
1
1
1
1
1
1
1
1
1
1
1
1
1
1
1
1
1
1
1
1
1
1
1
1
1
1
1
1
1
1
1
1
1
1
1
1
1
1
1
1
1
1
1
1
1
1
1
1
1
1
1
1.54316
2.53841
2.66575
2.66991
2.67462
2.67827
2.68083
2.68247
2.68386
2.68553
2.68753
2.68994
2.69283
2.6961
2.69929
2.70207
2.7047
2.70713
2.7092
2.71126
2.71348
2.71567
2.71761
2.71936
2.72085
2.72203
2.72317
2.7246
2.72631
2.72835
2.73058
2.73267
2.73427
2.73526
2.7358
2.7364
2.7377
2.73959
2.74162
2.74333
2.74425
2.74438
2.74431
2.74487
2.74665
2.74922
2.75169
2.75329
2.75373
2.75343
2.75321
2.75409
2.75654
2.7596
2.76202
2.76305
2.76276
2.76191
2.7613
2.762
2.7644
2.76741
2.76964
2.7705
2.77026
2.7697
2.76945
2.77059
2.77315
2.77573
2.77719
2.77742
2.77697
2.77648
2.77664
2.77784
2.77974
2.78109
2.7814
2.78103
2.78059
2.78075
2.78165
2.78305
2.78399
2.78415
2.78394
2.78374
2.78406
2.7851
2.78631
2.78724
2.78751
1
1
1
1
1
1
1
1
1
1
1
1
1
1
1
1
1
1
1
1
1
1
1
1
1
1
1
1
1
1
1
1
1
1
1
1
1
1
1
1
1
1
1
1
1
1
1
1
1
1
1
1
1
1
1
1
1
1
1
1
1
1
1
1
1
1
1
1
1
1
1
1
1
1
1
1
1
1
1
1
1
1
1
1
1
1
1
1
1
1
1
1
1
1
1
1
1
1
1
1.39853
2.49064
2.66838
2.66884
2.67201
2.67511
2.67743
2.67894
2.68036
2.68217
2.68441
2.68698