/*--------------------------------*- C++ -*----------------------------------*\
  =========                 |
  \\      /  F ield         | OpenFOAM: The Open Source CFD Toolbox
   \\    /   O peration     | Website:  https://openfoam.org
    \\  /    A nd           | Version:  7
     \\/     M anipulation  |
\*---------------------------------------------------------------------------*/
FoamFile
{
    version     2.0;
    format      ascii;
    class       volScalarField;
    location    "2.4";
    object      p;
}
// * * * * * * * * * * * * * * * * * * * * * * * * * * * * * * * * * * * * * //

dimensions      [1 -1 -2 0 0 0 0];

internalField   nonuniform List<scalar> 
4032
(
1
1
1
1
1
1
1
1
1
1
1
1
5.90587
10.5726
10.7547
10.944
11.1373
11.3186
11.489
11.646
11.7876
11.9035
11.9939
12.0594
1
1
1
1
1
1
1
1
1
1
1
1
5.73534
10.5062
10.7292
10.9162
11.1092
11.2864
11.451
11.6003
11.7339
11.8424
11.9259
11.9882
1
1
1
1
1
1
1
1
1
1
1
1
5.38366
10.4217
10.6816
10.8651
11.0581
11.2314
11.3906
11.5325
11.6571
11.757
11.8303
11.8905
1
1
1
1
1
1
1
1
1
1
1
1
4.8752
10.2769
10.6169
10.7945
10.9865
11.1547
11.3079
11.4418
11.5547
11.6385
11.6891
11.7252
1
1
1
1
1
1
1
1
1
1
1
1
4.22769
10.0301
10.5285
10.6953
10.8799
11.0351
11.171
11.2829
11.3711
11.4389
11.4795
11.5332
1
1
1
1
1
1
1
1
1
1
1
1
3.48508
9.64363
10.4333
10.5873
10.7611
10.8958
11.0068
11.0969
11.1659
11.2191
11.2296
11.1881
1
1
1
1
1
1
1
1
1
1
1
1
2.65533
9.05686
10.3655
10.4981
10.6445
10.7492
10.8255
10.8733
10.8756
10.8313
10.7516
10.701
1
1
1
1
1
1
1
1
1
1
1
1
1.80036
8.21833
10.3133
10.3579
10.498
10.5815
10.6205
10.6128
10.5526
10.4513
10.3029
10.2707
1
1
1
1
1
1
1
1
1
1
1
1
1.08972
7.09068
10.3255
10.275
10.3134
10.3473
10.3379
10.2887
10.143
9.86461
9.09054
7.2046
1
1
1
1
1
1
1
1
1
1
1
1
1.00085
5.57357
9.74304
9.8964
10.0083
10.0489
10.0065
9.91373
9.67841
9.20932
8.40189
6.34552
1
1
1
1
1
1
1
1
1
1
1
1
0.999989
3.86637
9.19482
9.77225
9.81726
9.81911
9.72456
9.56334
9.25426
8.68489
7.83617
5.91936
1
1
1
1
1
1
1
1
1
1
1
1
0.999997
2.20011
8.2828
9.67786
9.65996
9.59929
9.45662
9.23279
8.85972
8.29184
7.35989
5.80803
1
1
1
1
1
1
1
1
1
1
1
1
1
1.14686
6.69727
9.53409
9.471
9.35568
9.17324
8.91949
8.524
7.97642
7.05148
5.85895
1
1
1
1
1
1
1
1
1
1
1
1
1
1.00166
4.63646
9.00443
9.18575
9.07248
8.8942
8.62991
8.25296
7.70901
6.87632
5.92837
1
1
1
1
1
1
1
1
1
1
1
1
1
0.999982
2.30368
8.14861
9.08662
8.89343
8.7007
8.4188
8.05963
7.50229
6.78975
6.01347
1
1
1
1
1
1
1
1
1
1
1
1
1
0.999996
1.13699
6.28729
8.8229
8.65254
8.50402
8.22709
7.86991
7.34835
6.73675
6.06955
1
1
1
1
1
1
1
1
1
1
1
1
1
0.999999
1.00127
3.5592
8.11503
8.5031
8.36117
8.10519
7.72872
7.25088
6.70664
6.11866
1
1
1
1
1
1
1
1
1
1
1
1
1
1
0.999994
1.42658
6.79743
8.53731
8.28441
8.00924
7.62239
7.16514
6.66517
6.13976
1
1
1
1
1
1
1
1
1
1
1
1
1
1
0.999999
1.01504
4.28128
7.9697
8.10902
7.85518
7.50478
7.08189
6.62475
6.15463
1
1
1
1
1
1
1
1
1
1
1
1
1
1
1
1
1.67293
6.739
8.14304
7.7754
7.42567
7.02886
6.61531
6.18848
1
1
1
1
1
1
1
1
1
1
1
1
1
1
1
1
1.03567
4.32193
7.71973
7.61754
7.321
6.97478
6.60163
6.20634
1
1
1
1
1
1
1
1
1
1
1
1
1
1
1
1
1.00014
1.70849
6.32766
7.63332
7.29513
6.96653
6.61044
6.23571
1
1
1
1
1
1
1
1
1
1
1
1
1
1
1
1
1
1.03835
3.68283
7.19087
7.22551
6.91737
6.58937
6.25186
1
1
1
1
1
1
1
1
1
1
1
1
1
1
1
1
1
1.00026
1.48695
5.54643
7.27194
6.91804
6.6054
6.28834
1
1
1
1
1
1
1
1
1
1
1
1
1
1
1
1
1
1
1.01918
2.67676
6.36308
6.89475
6.60818
6.30599
1
1
1
1
1
1
1
1
1
1
1
1
1
1
1
1
1
1
1.00014
1.19918
4.24997
6.78276
6.66713
6.374
1
1
1
1
1
1
1
1
1
1
1
1
1
1
1
1
1
1
1
1.00423
1.77846
5.39528
6.64522
6.40644
1
1
1
1
1
1
1
1
1
1
1
1
1
1
1
1
1
1
1
1.00002
1.04727
2.71447
5.91637
6.43944
1
1
1
1
1
1
1
1
1
1
1
1
1
1
1
1
1
1
1
1
1.00058
1.21058
3.78567
6.10532
1
1
1
1
1
1
1
1
1
1
1
1
1
1
1
1
1
1
1
1
1
1.00533
1.58369
4.57519
1
1
1
1
1
1
1
1
1
1
1
1
1
1
1
1
1
1
1
1
1
1.00003
1.02946
2.10536
1
1
1
1
1
1
1
1
1
1
1
1
1
1
1
1
1
1
1
1
1
1
1.00034
1.09552
1
1
1
1
1
1
1
1
1
1
1
1
1
1
1
1
1
1
1
1
1
1
1
1.00177
1
1
1
1
1
1
1
1
1
1
1
1
1
1
1
1
1
1
1
1
1
1
1
1.00001
1
1
1
1
1
1
1
1
1
1
1
1
1
1
1
1
1
1
1
1
1
1
1
1
1
1
1
1
1
1
1
1
1
1
1
1
1
1
1
1
1
1
1
1
1
1
1
1
1
1
1
1
1
1
1
1
1
1
1
1
1
1
1
1
1
1
1
1
1
1
1
1
1
1
1
1
1
1
1
1
1
1
1
1
1
1
1
1
1
1
1
1
1
1
1
1
1
1
1
1
1
1
1
1
1
1
1
1
1
1
1
1
1
1
1
1
1
1
1
1
1
1
1
1
1
1
1
1
1
1
1
1
1
1
1
1
1
1
1
1
1
1
1
1
1.59198
0.424176
0.186505
0.154008
0.188231
0.272245
0.396705
0.517648
0.634586
0.743294
0.843723
0.970071
1.132
1.23427
1.24555
1.24222
1.21595
1.20083
1.22365
1.27416
1.31206
1.30476
1.27991
1.25886
1.26203
1.28787
1.33115
1.34577
1.33975
1.30974
1.28032
1.27886
1.29298
1.32829
1.3448
1.33796
1.39424
1.91624
4.59431
6.72927
6.71048
6.56031
6.49874
6.18901
5.85121
5.68065
5.62352
5.57664
5.45579
5.30975
5.15799
5.04066
4.95383
4.91177
4.85239
4.75336
4.6544
4.55237
4.44448
4.33016
4.22392
4.14339
4.07849
4.02128
3.96789
3.90736
3.84101
3.75329
3.6318
3.51006
3.43389
3.38765
3.34971
3.32729
3.30981
3.26966
3.22039
3.14372
3.01734
2.91367
2.86846
2.83518
2.80627
2.79327
2.78829
2.7628
2.73209
2.69184
2.60696
2.47347
2.39779
2.36789
2.34339
2.32583
2.32847
2.29241
2.77624
1.44058
0.924578
0.646503
0.536428
0.539066
0.557307
0.530991
0.524439
0.561755
0.629795
0.717225
0.830922
0.965749
1.05329
1.09612
1.12872
1.14272
1.17563
1.22183
1.26324
1.28756
1.28449
1.27656
1.26536
1.27301
1.29132
1.31129
1.32152
1.31924
1.31114
1.29915
1.29597
1.30164
1.31101
1.38316
1.77706
2.49896
3.64861
5.65295
6.27684
6.28735
6.28079
6.03627
5.82289
5.68859
5.60893
5.5656
5.46982
5.336
5.18687
5.05929
4.95394
4.87439
4.80159
4.71902
4.63714
4.55214
4.46166
4.35941
4.24569
4.13833
4.05734
3.99533
3.94219
3.8911
3.83116
3.75662
3.66668
3.56477
3.463
3.39393
3.35145
3.31603
3.2828
3.24482
3.19948
3.13831
3.05027
2.94794
2.87672
2.83922
2.81
2.78963
2.77138
2.7452
2.71478
2.67664
2.61278
2.51201
2.42032
2.37739
2.35183
2.32965
2.31675
2.27915
3.63946
2.40932
1.75522
1.30138
0.92226
0.780919
0.733091
0.695015
0.629623
0.590935
0.613893
0.66538
0.713849
0.779257
0.883789
0.95415
1.02943
1.10233
1.14672
1.18819
1.22467
1.25913
1.29815
1.32023
1.32716
1.32126
1.29603
1.27665
1.2758
1.28963
1.31548
1.32677
1.32207
1.31022
1.36403
1.74914
2.53162
3.11278
3.20612
3.90636
5.36032
6.1255
6.29012
6.10356
5.97117
5.816
5.65671
5.53864
5.41738
5.31538
5.22224
5.11971
5.00399
4.88025
4.77103
4.68057
4.59796
4.51965
4.44281
4.36251
4.27148
4.16595
4.06108
3.97399
3.90164
3.83505
3.77132
3.71507
3.66226
3.60742
3.53395
3.43559
3.35325
3.3028
3.25787
3.20944
3.15473
3.10067
3.05227
2.99671
2.92028
2.84969
2.81195
2.78213
2.75259
2.71938
2.68165
2.63731
2.58836
2.53211
2.46889
2.40751
2.36325
2.33258
2.31013
2.26714
4.24529
3.10872
2.40661
1.95608
1.54555
1.16453
0.999789
0.979148
0.92532
0.835885
0.757104
0.69421
0.685478
0.694133
0.729729
0.795988
0.882461
0.973821
1.03581
1.06848
1.11038
1.15987
1.21574
1.28667
1.32394
1.32667
1.30959
1.2767
1.27442
1.2878
1.31508
1.32856
1.3358
1.39722
1.75794
2.59547
3.09505
3.25068
3.1611
3.17445
3.71857
4.86313
5.60472
5.99277
6.01391
5.85264
5.67171
5.50787
5.35882
5.27519
5.20923
5.12164
5.0123
4.87932
4.74315
4.64379
4.56969
4.4981
4.42528
4.35208
4.27569
4.18638
4.07684
3.96844
3.88427
3.81438
3.75468
3.70477
3.6598
3.61493
3.56263
3.48184
3.36859
3.2825
3.22646
3.17185
3.11815
3.07882
3.04739
3.01402
2.9673
2.89204
2.81232
2.7662
2.7308
2.69299
2.64906
2.59923
2.55674
2.52517
2.49266
2.44963
2.39384
2.34021
2.30662
2.25358
4.70885
3.73289
2.96354
2.44915
2.0679
1.7065
1.39011
1.20802
1.14191
1.07506
0.992708
0.88189
0.758147
0.716673
0.723858
0.749133
0.793657
0.849832
0.891741
0.914134
0.955237
1.02913
1.10944
1.19738
1.25578
1.27219
1.27298
1.25632
1.26115
1.28152
1.31009
1.33859
1.4367
1.81498
2.629
3.21154
3.24329
3.22132
3.1947
3.14623
3.15392
3.48869
4.32791
5.32158
5.64918
5.80895
5.71717
5.55914
5.39107
5.27312
5.18163
5.08064
4.98195
4.87596
4.75015
4.6266
4.5392
4.47052
4.40561
4.34133
4.27375
4.19387
4.08198
3.94499
3.85137
3.79642
3.7492
3.70703
3.66851
3.62659
3.57935
3.51144
3.39432
3.25871
3.18003
3.13378
3.09916
3.07255
3.04811
3.01911
2.98554
2.93492
2.85022
2.7568
2.69907
2.65724
2.61191
2.56691
2.53757
2.51557
2.49244
2.46409
2.42124
2.35798
2.30545
2.23929
5.00553
4.18111
3.45593
2.8998
2.46834
2.13642
1.85656
1.57259
1.33828
1.27439
1.22866
1.14498
1.02239
0.891444
0.82373
0.813418
0.825191
0.837018
0.83209
0.828206
0.835597
0.873395
0.936499
1.00975
1.08783
1.16436
1.21906
1.2252
1.23569
1.25322
1.28535
1.39158
1.91762
2.65212
3.248
3.31384
3.28093
3.23874
3.18359
3.1492
3.10065
3.07372
3.21935
3.85286
4.68921
5.40593
5.53804
5.48911
5.4078
5.26434
5.15239
5.04229
4.95299
4.87219
4.77
4.6297
4.50499
4.43149
4.3695
4.31521
4.25372
4.18571
4.0932
3.95551
3.83749
3.7792
3.73366
3.69391
3.65726
3.61752
3.57353
3.51476
3.41704
3.27326
3.16365
3.11624
3.08334
3.05682
3.03825
3.01333
2.98297
2.94721
2.88613
2.77929
2.67317
2.61249
2.57535
2.55126
2.53194
2.51343
2.49051
2.46452
2.42968
2.37079
2.30139
2.21973
5.24462
4.52043
3.86317
3.3285
2.84948
2.45609
2.20652
1.96469
1.7035
1.49081
1.36972
1.30446
1.23511
1.14568
1.0333
0.924839
0.873079
0.8586
0.848998
0.849341
0.859729
0.858253
0.845377
0.849883
0.884563
0.954433
1.0475
1.13578
1.19415
1.2179
1.3168
1.84598
2.69175
3.19772
3.38119
3.35611
3.30105
3.19939
3.1274
3.11167
3.0824
3.0411
2.98773
3.03551
3.37041
4.16457
4.94039
5.29175
5.35016
5.24029
5.13509
5.04806
4.94911
4.86292
4.77304
4.64438
4.49127
4.39454
4.33215
4.28091
4.22684
4.16292
4.08714
3.97709
3.84343
3.75969
3.71197
3.66978
3.62917
3.58819
3.54361
3.48913
3.41361
3.3062
3.18634
3.11166
3.07441
3.04546
3.02463
2.99914
2.96825
2.93387
2.88503
2.79378
2.66342
2.58248
2.55435
2.53454
2.51995
2.50794
2.48808
2.46357
2.43474
2.38059
2.29227
2.19634
5.40822
4.76871
4.15777
3.66167
3.21853
2.79824
2.47389
2.22925
2.01125
1.81452
1.63426
1.44602
1.36505
1.32601
1.25369
1.14494
1.02073
0.96428
0.944384
0.927203
0.916608
0.897411
0.866239
0.84301
0.838938
0.849976
0.880516
0.947688
1.03894
1.1737
1.65951
2.5981
3.03474
3.23755
3.33103
3.28405
3.18639
3.11924
3.09063
3.07521
3.04844
3.01382
2.97385
2.93604
2.91038
3.05181
3.61793
4.36592
4.99533
5.08093
5.07794
5.04358
4.94367
4.84388
4.74582
4.63138
4.49714
4.37993
4.30758
4.25012
4.19279
4.13123
4.06728
3.99043
3.88151
3.75797
3.68262
3.63758
3.59609
3.55298
3.50673
3.45633
3.40017
3.33377
3.24679
3.1431
3.06591
3.02306
2.98807
2.96108
2.94152
2.90967
2.86338
2.79179
2.68865
2.58973
2.54321
2.52063
2.50237
2.49447
2.49195
2.47192
2.44126
2.38332
2.2868
2.18452
5.5294
4.95512
4.40777
3.92555
3.48712
3.09811
2.78478
2.49727
2.22288
2.04414
1.8935
1.71196
1.53921
1.44801
1.38662
1.31596
1.23324
1.1429
1.04888
0.993508
0.970163
0.945672
0.919999
0.901595
0.877012
0.855104
0.854747
0.863843
0.925409
1.31373
2.20195
2.73684
2.86514
2.96837
3.04902
3.04648
3.04222
3.05362
3.0564
3.03697
3.00133
2.96406
2.93822
2.91099
2.87259
2.80324
2.83049
3.1228
3.81626
4.49711
4.82455
4.94853
4.92825
4.82972
4.70575
4.59343
4.48746
4.39592
4.30357
4.22682
4.16305
4.10049
4.04075
3.98073
3.90452
3.7924
3.67313
3.60385
3.55939
3.51729
3.47439
3.43028
3.38645
3.34199
3.28558
3.19622
3.07986
2.99991
2.95841
2.92323
2.88463
2.8456
2.80725
2.76785
2.71606
2.64236
2.55897
2.51414
2.49328
2.47487
2.45767
2.43479
2.40497
2.36078
2.29261
2.19643
5.61038
5.0882
4.59408
4.14589
3.72635
3.34635
3.03112
2.74971
2.48033
2.25668
2.07946
1.92132
1.76841
1.63536
1.50998
1.42361
1.37669
1.31681
1.23325
1.12868
1.06553
1.03105
1.0042
0.984236
0.954115
0.911959
0.882506
0.921333
1.25173
1.94591
2.51292
2.56535
2.52598
2.5369
2.60725
2.72047
2.82268
2.90804
2.90955
2.89881
2.87443
2.86571
2.87715
2.87236
2.82633
2.76905
2.74551
2.71118
2.8212
3.27109
3.89575
4.46944
4.72661
4.69778
4.66648
4.58048
4.49333
4.40442
4.30489
4.21453
4.13834
4.07289
4.01318
3.95665
3.8971
3.82008
3.70918
3.59145
3.51868
3.47428
3.43775
3.40648
3.37178
3.33206
3.28745
3.22269
3.11872
3.00446
2.93115
2.88194
2.83866
2.79999
2.76695
2.74052
2.71524
2.67974
2.61673
2.53253
2.47887
2.45133
2.42608
2.39711
2.36482
2.32685
2.28804
2.21764
5.66984
5.20222
4.76147
4.33044
3.92622
3.58024
3.26337
2.96377
2.70194
2.47992
2.27561
2.09092
1.95256
1.83249
1.70385
1.56824
1.47285
1.42174
1.36945
1.29991
1.22954
1.16005
1.07552
1.02687
1.00782
0.980493
1.01358
1.32478
2.04359
2.5265
2.55579
2.50313
2.43657
2.39944
2.39065
2.4078
2.43445
2.49354
2.54937
2.57847
2.62141
2.66434
2.69752
2.71991
2.73532
2.73331
2.72154
2.67588
2.58935
2.60823
2.80333
3.29707
3.95515
4.33283
4.48988
4.51356
4.4813
4.38423
4.2813
4.19611
4.11448
4.04769
3.9899
3.93597
3.88256
3.82224
3.73749
3.61247
3.49617
3.43825
3.40074
3.37024
3.34643
3.31115
3.26972
3.21845
3.14024
3.02961
2.92553
2.85647
2.80608
2.76646
2.73845
2.71713
2.69967
2.67759
2.64381
2.58231
2.49657
2.42678
2.38129
2.34882
2.32073
2.29311
2.27151
2.23043
5.73813
5.30821
4.89849
4.48486
4.10888
3.77542
3.45862
3.15598
2.90971
2.67977
2.47214
2.27558
2.12248
1.98892
1.8708
1.75707
1.64877
1.53993
1.44519
1.39697
1.35715
1.30251
1.22325
1.12889
1.08025
1.11332
1.43308
2.18924
2.72595
2.7449
2.64934
2.54197
2.46003
2.40523
2.37072
2.35458
2.36122
2.33288
2.28723
2.24947
2.25137
2.283
2.33861
2.40077
2.48314
2.5834
2.60545
2.59082
2.53004
2.48414
2.46219
2.52383
2.81956
3.35215
3.91822
4.27205
4.31563
4.27428
4.22984
4.1553
4.08256
4.02195
3.96609
3.91361
3.86297
3.80743
3.73736
3.63511
3.50583
3.41071
3.36517
3.33134
3.30527
3.27682
3.23794
3.19158
3.12849
3.0382
2.93737
2.85945
2.80435
2.75779
2.71972
2.69358
2.67601
2.66101
2.63542
2.5935
2.52396
2.42561
2.35219
2.31162
2.28639
2.2679
2.25821
2.22777
5.79749
5.39596
5.00193
4.62238
4.27666
3.94501
3.62513
3.34599
3.0988
2.86463
2.6425
2.46138
2.30812
2.15568
2.00207
1.89192
1.80115
1.69724
1.59743
1.50251
1.4325
1.38509
1.33217
1.25666
1.27719
1.61403
2.39641
2.98391
2.99868
2.88567
2.76914
2.67799
2.59447
2.5158
2.44781
2.3916
2.34881
2.31197
2.27547
2.23076
2.14639
2.08074
2.06246
2.0773
2.12323
2.20086
2.29483
2.35995
2.37414
2.36572
2.33147
2.30121
2.32956
2.49983
2.88311
3.40772
3.86931
4.05407
4.05583
4.04974
4.0318
3.99609
3.94197
3.8939
3.84305
3.78179
3.71647
3.63657
3.53083
3.41819
3.33567
3.29109
3.25957
3.23062
3.19454
3.1514
3.09728
3.02491
2.93895
2.86427
2.81118
2.76999
2.73174
2.68873
2.64184
2.60982
2.59197
2.57005
2.52204
2.44445
2.35609
2.29659
2.26977
2.25316
2.24936
2.2222
5.85727
5.48156
5.10009
4.74871
4.4195
4.09325
3.77937
3.51911
3.26859
3.0369
2.81043
2.63509
2.46475
2.31322
2.16116
2.03648
1.91946
1.8133
1.72814
1.64315
1.55558
1.46909
1.40086
1.43398
1.81999
2.69041
3.28403
3.28978
3.16194
3.02999
2.93347
2.83572
2.72498
2.6225
2.54221
2.47731
2.41796
2.36197
2.30711
2.24332
2.16159
2.06876
2.02465
1.99783
1.97756
1.97476
1.98389
2.00668
2.0442
2.05904
2.07351
2.08498
2.09699
2.12482
2.23282
2.47303
2.857
3.32536
3.67263
3.80883
3.86159
3.87334
3.88416
3.87596
3.82846
3.77724
3.70176
3.61386
3.51983
3.42898
3.34425
3.26765
3.22004
3.18487
3.14626
3.10367
3.05715
3.00366
2.93856
2.86503
2.80607
2.77007
2.73652
2.69138
2.63183
2.57969
2.53623
2.49628
2.46288
2.42677
2.38139
2.33565
2.29257
2.25394
2.23578
2.20108
5.90071
5.54131
5.19078
4.86341
4.53974
4.21691
3.93429
3.6764
3.42837
3.18348
2.98089
2.79845
2.61941
2.45113
2.3021
2.18078
2.05462
1.94398
1.83252
1.74861
1.66627
1.57594
1.60749
2.03711
2.98631
3.5814
3.57285
3.43654
3.30459
3.20375
3.10262
2.98764
2.8676
2.75725
2.6701
2.59825
2.53041
2.46127
2.39041
2.31497
2.23104
2.13974
2.05087
1.98748
1.95441
1.93797
1.92117
1.90456
1.8802
1.84631
1.81305
1.80829
1.82714
1.85277
1.89145
1.96279
2.10595
2.34454
2.72203
3.14567
3.48323
3.58998
3.65519
3.71875
3.79474
3.77379
3.70624
3.60708
3.49011
3.40095
3.33697
3.2725
3.20578
3.15218
3.10411
3.05687
3.01313
2.97225
2.9275
2.86797
2.80006
2.75347
2.71993
2.68296
2.63317
2.56623
2.4992
2.45143
2.42016
2.39936
2.38246
2.36253
2.3311
2.28057
2.23298
2.17275
5.95512
5.60776
5.28133
4.97098
4.65306
4.34434
4.08239
3.82451
3.57048
3.32964
3.14066
2.94406
2.7669
2.58517
2.44881
2.30885
2.18189
2.06724
1.96051
1.85696
1.76044
1.81106
2.32618
3.36766
3.92784
3.88632
3.74105
3.58855
3.47922
3.3723
3.25659
3.13626
3.01091
2.88698
2.78119
2.6949
2.61841
2.54602
2.47619
2.40658
2.32811
2.23135
2.12513
2.04024
1.98811
1.94796
1.91032
1.87246
1.83609
1.80966
1.77999
1.71087
1.66726
1.65574
1.66286
1.67957
1.70644
1.7674
1.89038
2.12102
2.48394
2.92845
3.21992
3.3837
3.57218
3.67922
3.67583
3.6116
3.48809
3.38002
3.30766
3.25139
3.18899
3.12782
3.07461
3.02743
2.98597
2.94718
2.90754
2.85778
2.78805
2.72392
2.6858
2.65489
2.61884
2.56759
2.49406
2.43057
2.40275
2.38648
2.37366
2.35502
2.32856
2.28782
2.23574
2.14658
5.99203
5.67242
5.36381
5.05872
4.74891
4.47178
4.21244
3.95461
3.68894
3.47708
3.27896
3.08388
2.88655
2.72054
2.58448
2.43701
2.30927
2.18
2.07138
1.96203
2.02736
2.64841
3.80391
4.34607
4.23075
4.01659
3.8565
3.74313
3.63214
3.51368
3.39305
3.27067
3.14382
3.01515
2.89776
2.80021
2.71706
2.6408
2.56701
2.49393
2.4179
2.33118
2.231
2.13404
2.06095
2.00389
1.95256
1.9039
1.85834
1.81616
1.775
1.72142
1.65707
1.61002
1.57761
1.56212
1.55413
1.55317
1.55318
1.58139
1.6662
1.86183
2.24567
2.66202
3.01252
3.34389
3.50329
3.50669
3.47224
3.39818
3.30873
3.2074
3.13064
3.08655
3.04559
3.00896
2.97648
2.93903
2.89185
2.83544
2.77005
2.70374
2.6534
2.61518
2.58252
2.54764
2.50239
2.45575
2.41279
2.37156
2.3406
2.32042
2.30475
2.28164
2.23807
2.129
6.06465
5.75357
5.45392
5.15316
4.85152
4.58463
4.32927
4.07139
3.8207
3.6156
3.40692
3.21061
3.00915
2.86419
2.71337
2.56827
2.42142
2.29523
2.182
2.28033
3.01199
4.26106
4.82188
4.6849
4.39995
4.16055
4.00751
3.89151
3.77324
3.65359
3.5333
3.40857
3.27302
3.13159
3.00262
2.89635
2.8069
2.72668
2.65098
2.57543
2.49597
2.40925
2.31309
2.21538
2.13445
2.07189
2.01807
1.96795
1.91764
1.86526
1.8131
1.76025
1.69688
1.62125
1.56218
1.53686
1.52237
1.50151
1.47973
1.46841
1.45176
1.43788
1.4833
1.66171
1.99988
2.47704
2.86599
3.19431
3.32341
3.32955
3.28993
3.19192
3.0861
3.03734
3.01853
3.01243
2.98566
2.94881
2.89288
2.82038
2.73922
2.67524
2.63027
2.59286
2.55962
2.53045
2.50505
2.46765
2.41059
2.35866
2.323
2.29352
2.2604
2.21844
2.17584
2.09316
6.09807
5.80152
5.50767
5.21348
4.93577
4.68395
4.43363
4.16465
3.94023
3.73923
3.53637
3.3238
3.14119
2.995
2.8344
2.68756
2.53366
2.40842
2.55632
3.4596
4.75354
5.22438
5.0826
4.79017
4.52298
4.32312
4.17649
4.04495
3.92136
3.79772
3.67022
3.53352
3.38354
3.23171
3.09904
2.99105
2.89866
2.81362
2.73215
2.65152
2.56987
2.48454
2.39274
2.2971
2.20551
2.12546
2.05918
2.00423
1.95661
1.91068
1.86033
1.80295
1.73581
1.65917
1.59279
1.54979
1.51636
1.4852
1.46077
1.43809
1.40668
1.38232
1.35711
1.33359
1.35949
1.50519
1.80915
2.27024
2.66679
2.98079
3.13533
3.12959
3.09015
3.04896
2.99093
2.94163
2.91135
2.8829
2.85422
2.8054
2.72838
2.65738
2.61456
2.58429
2.55437
2.51928
2.47202
2.41791
2.37983
2.34857
2.30816
2.26627
2.22526
2.18198
2.13696
2.0606
6.15731
5.84817
5.5723
5.29757
5.03187
4.78225
4.53593
4.27849
4.06683
3.86287
3.65518
3.43208
3.27696
3.11921
2.96041
2.79583
2.65954
2.87495
4.02525
5.27557
5.72624
5.56531
5.24836
4.9616
4.7173
4.49777
4.33024
4.18995
4.05828
3.92666
3.78826
3.63847
3.4786
3.3248
3.19522
3.08843
2.99399
2.90415
2.81396
2.72069
2.62633
2.53586
2.45055
2.36778
2.28564
2.20714
2.1356
2.06949
2.00738
1.94911
1.89499
1.84284
1.78498
1.71556
1.64658
1.59311
1.55245
1.51914
1.48597
1.44686
1.4025
1.36182
1.3228
1.29628
1.28035
1.2689
1.28767
1.38984
1.66184
2.04418
2.46758
2.73655
2.95841
2.98681
2.97683
2.94885
2.90582
2.84616
2.78424
2.72901
2.69037
2.657
2.62341
2.5889
2.54774
2.49815
2.44996
2.40279
2.34807
2.29467
2.2699
2.23984
2.2015
2.15687
2.11481
2.05436
6.21974
5.94877
5.65478
5.38222
5.12526
4.88444
4.63665
4.38665
4.17482
3.97625
3.762
3.5576
3.39449
3.21922
3.06248
2.93472
3.20952
4.57634
6.00275
6.07834
5.90872
5.64636
5.39953
5.16869
4.91746
4.67824
4.48723
4.32798
4.18203
4.03652
3.88554
3.7284
3.56947
3.41908
3.2881
3.17712
3.07867
2.98556
2.89234
2.79517
2.69456
2.59469
2.49915
2.41012
2.32798
2.2532
2.18666
2.12547
2.06554
2.00416
1.94062
1.87629
1.81414
1.75443
1.69558
1.64259
1.59909
1.56274
1.52771
1.48767
1.44186
1.3887
1.33041
1.28544
1.25625
1.23229
1.22533
1.22243
1.23181
1.29336
1.50449
1.85444
2.27274
2.55807
2.77958
2.86037
2.85479
2.83459
2.78107
2.7182
2.67672
2.62731
2.56737
2.5212
2.49737
2.47754
2.44854
2.40695
2.34276
2.27938
2.21834
2.1729
2.14783
2.13007
2.1094
2.06673
6.09689
6.03457
5.75564
5.46869
5.21669
4.97677
4.72345
4.48997
4.28671
4.08492
3.85932
3.67484
3.4928
3.33362
3.21855
3.62995
5.14656
6.618
6.78453
6.47264
6.07219
5.7871
5.57074
5.34736
5.09013
4.83515
4.62831
4.45575
4.29629
4.14103
3.9854
3.82845
3.67128
3.51712
3.37456
3.25066
3.14253
3.04355
2.94871
2.85468
2.76029
2.66519
2.56867
2.472
2.37863
2.29344
2.22029
2.15717
2.10014
2.04501
1.9864
1.92124
1.85294
1.78729
1.72636
1.67066
1.6201
1.57503
1.53865
1.50929
1.47877
1.43535
1.38215
1.32792
1.274
1.23317
1.21028
1.18936
1.17961
1.17558
1.17576
1.21818
1.36372
1.67358
2.05568
2.39086
2.55335
2.67897
2.69678
2.69368
2.68448
2.63648
2.56206
2.50986
2.46788
2.42152
2.38065
2.35938
2.33981
2.28718
2.20522
2.15529
2.13296
2.10736
2.08897
2.06731
5.05675
5.98224
5.85077
5.56232
5.30444
5.06579
4.82093
4.59403
4.39225
4.18085
3.97025
3.77212
3.59074
3.53143
4.09683
5.97935
7.25842
7.1117
6.8355
6.56568
6.28399
6.01779
5.76612
5.50864
5.24725
4.99395
4.76925
4.57724
4.40481
4.24186
4.08352
3.92714
3.77013
3.61241
3.46089
3.32417
3.20357
3.09532
2.99606
2.90275
2.81163
2.71893
2.62193
2.52222
2.42592
2.33998
2.26656
2.20074
2.13698
2.0742
2.0128
1.95128
1.88882
1.82853
1.77412
1.72561
1.67704
1.62331
1.56787
1.51488
1.46754
1.43671
1.41193
1.37335
1.32204
1.27493
1.23147
1.19515
1.17094
1.14856
1.14023
1.13498
1.12116
1.14203
1.23718
1.48842
1.82363
2.19322
2.3548
2.47806
2.5621
2.57119
2.56273
2.53065
2.46605
2.41031
2.36688
2.32089
2.2715
2.23927
2.20601
2.15979
2.12646
2.1034
2.08491
2.0437
2.67546
5.32323
5.86553
5.68146
5.40712
5.15999
4.91074
4.69946
4.49266
4.29355
4.05979
3.85544
3.86539
4.69332
6.72631
8.08998
8.07263
7.47061
6.9546
6.66638
6.44282
6.19556
5.92755
5.65995
5.39532
5.13874
4.9061
4.70262
4.5196
4.34792
4.18169
4.01707
3.85243
3.68952
3.53427
3.39305
3.26743
3.15464
3.05136
2.95484
2.8608
2.7645
2.66319
2.55886
2.45957
2.37375
2.30276
2.24096
2.18025
2.11559
2.04383
1.96457
1.88951
1.83311
1.7926
1.75477
1.71067
1.66038
1.60826
1.55512
1.50187
1.45072
1.40482
1.37115
1.34293
1.30727
1.26653
1.22817
1.19078
1.1565
1.12456
1.10518
1.09191
1.08525
1.07348
1.08039
1.1405
1.33141
1.65651
2.01353
2.21051
2.3173
2.39189
2.43065
2.44746
2.43866
2.39695
2.3235
2.25779
2.19579
2.14961
2.14081
2.12842
2.11247
2.09129
2.02985
1.21694
3.2205
5.42752
5.7368
5.53487
5.2556
5.01066
4.79791
4.59914
4.38574
4.14048
4.24661
5.41661
7.62439
8.72465
8.47881
8.13722
7.70177
7.25151
6.90917
6.61581
6.3343
6.0605
5.79624
5.5354
5.2802
5.04138
4.82347
4.62462
4.43946
4.26241
4.08963
3.92039
3.75637
3.60095
3.45851
3.33102
3.21544
3.10722
3.00397
2.90336
2.80192
2.69788
2.59318
2.49414
2.40686
2.33218
2.26759
2.20826
2.14834
2.08268
2.00955
1.93305
1.85909
1.79514
1.74574
1.7109
1.68031
1.64376
1.59762
1.54263
1.4836
1.4278
1.37798
1.33746
1.31201
1.29188
1.26423
1.22334
1.1799
1.13575
1.10848
1.09647
1.08702
1.07031
1.04884
1.02645
1.01944
1.07039
1.20913
1.47048
1.80684
2.0242
2.15693
2.29786
2.34123
2.34537
2.33254
2.28344
2.20152
2.14295
2.09423
2.05567
2.04247
2.0412
2.01483
1.00612
1.39463
3.67972
5.42553
5.6003
5.38758
5.12225
4.88289
4.693
4.47381
4.71923
6.39969
8.61499
9.52241
9.28484
8.61718
8.19757
7.85456
7.47806
7.11244
6.7753
6.46884
6.18511
5.91575
5.65573
5.40484
5.16357
4.93464
4.72196
4.52471
4.33876
4.16019
3.98695
3.82084
3.66436
3.51971
3.38853
3.26897
3.15588
3.04598
2.93888
2.8343
2.73084
2.62766
2.52771
2.43634
2.35884
2.2912
2.22579
2.15934
2.09402
2.02939
1.96051
1.88905
1.8267
1.77786
1.73332
1.68764
1.64104
1.59717
1.55735
1.51017
1.45181
1.40053
1.35957
1.32348
1.29703
1.27903
1.2598
1.22735
1.18151
1.14434
1.11489
1.08639
1.05704
1.03174
1.00606
0.992382
0.97602
0.957519
0.985419
1.08657
1.30693
1.59023
1.92649
2.07505
2.18254
2.22407
2.2172
2.20577
2.16636
2.09578
2.04698
2.01494
1.99083
1.95968
1.00004
1.01645
1.6124
4.0228
5.35495
5.46669
5.25779
5.00364
4.82209
5.31652
7.47618
9.8492
10.0749
9.83331
9.44012
8.88011
8.42189
8.03388
7.65122
7.2781
6.93111
6.61245
6.31572
6.03478
5.76571
5.50615
5.25518
5.01641
4.7951
4.59235
4.40429
4.22594
4.05288
3.88421
3.72323
3.57306
3.43411
3.30546
3.18499
3.06938
2.95672
2.85038
2.75718
2.67111
2.58135
2.48682
2.39529
2.313
2.23964
2.17091
2.10249
2.03221
1.96284
1.90122
1.847
1.79667
1.75058
1.71069
1.67152
1.62328
1.56493
1.50528
1.45714
1.41801
1.37541
1.34151
1.31905
1.29537
1.26202
1.21963
1.18076
1.1479
1.11673
1.08725
1.06068
1.03919
1.01748
0.997653
0.972382
0.948241
0.923171
0.909755
0.927753
0.998655
1.19139
1.47594
1.80529
1.97629
2.02449
2.07736
2.0808
2.07504
2.05792
2.0124
1.97263
1.93852
1
1.00016
1.03533
1.8507
4.18404
5.3381
5.2823
5.20333
6.20644
8.66086
10.7517
11.1456
10.5339
9.89565
9.54963
9.1172
8.62737
8.17352
7.76572
7.39232
7.04623
6.72298
6.41821
6.12587
5.84257
5.5724
5.3201
5.08289
4.86197
4.6576
4.46697
4.28534
4.10913
3.9353
3.7667
3.60937
3.46747
3.33969
3.22124
3.10889
3.00094
2.89094
2.77526
2.66662
2.57807
2.50494
2.43041
2.34853
2.26442
2.18425
2.1105
2.04473
1.98553
1.92621
1.86416
1.80156
1.74582
1.6999
1.66309
1.62763
1.5842
1.53351
1.46896
1.41218
1.39491
1.38107
1.35572
1.31939
1.27081
1.22369
1.19522
1.17036
1.14495
1.12219
1.10197
1.08241
1.05892
1.02776
0.988302
0.950242
0.919701
0.897866
0.882353
0.875134
0.888345
0.954125
1.10717
1.36659
1.62556
1.8373
1.89376
1.93078
1.94687
1.962
1.97244
1.94656
1
1
1.00048
1.06301
2.05021
4.37588
5.0164
7.01413
10.232
11.4112
11.7046
11.4447
10.8331
10.1872
9.7715
9.35233
8.8316
8.36732
7.96198
7.57831
7.20934
6.85647
6.52932
6.23814
5.97841
5.72994
5.48042
5.24082
5.01646
4.80854
4.61466
4.42927
4.24669
4.06341
3.88381
3.71752
3.57081
3.44069
3.3186
3.19568
3.06913
2.93932
2.80869
2.69468
2.60089
2.515
2.43535
2.36127
2.2887
2.21258
2.13125
2.05639
1.99899
1.93874
1.87185
1.81369
1.76514
1.72051
1.67438
1.627
1.57785
1.52389
1.46999
1.43229
1.4017
1.36826
1.33518
1.29911
1.26159
1.2268
1.19253
1.15805
1.1289
1.10471
1.08372
1.06352
1.04081
1.01431
0.986562
0.958641
0.928476
0.899029
0.875469
0.861133
0.854096
0.85043
0.855007
0.904772
1.02435
1.22075
1.46649
1.68947
1.75856
1.80744
1.88344
1.90749
1
1
1
1.00106
1.09696
2.16408
5.51773
11.5746
12.92
12.3178
11.8728
11.5426
11.0098
10.3875
9.87742
9.4173
8.95834
8.49727
8.0522
7.64122
7.2666
6.921
6.59648
6.28666
5.98673
5.70005
5.43535
5.19174
4.96803
4.76145
4.56702
4.37889
4.19174
4.00478
3.82304
3.65763
3.5158
3.39387
3.28262
3.17191
3.05268
2.93919
2.85247
2.76635
2.66926
2.57812
2.49996
2.42893
2.35709
2.27864
2.18673
2.07953
1.99234
1.95209
1.91656
1.87224
1.82506
1.77558
1.71942
1.65835
1.60552
1.55485
1.50425
1.45342
1.40609
1.36867
1.33486
1.30137
1.26911
1.23551
1.1986
1.16311
1.13235
1.10632
1.08408
1.06282
1.04045
1.01833
0.998072
0.975202
0.942293
0.90534
0.876846
0.859845
0.849415
0.841701
0.838085
0.83455
0.831297
0.852518
0.925962
1.08625
1.31468
1.51699
1.68654
1.79266
1
1
1
1
1.00156
1.17638
7.74657
13.5288
13.136
12.3299
11.8134
11.42
10.9576
10.3933
9.8652
9.42482
9.00502
8.56912
8.13985
7.72628
7.33597
6.97767
6.64487
6.32787
6.0217
5.72887
5.45487
5.20427
4.9784
4.77276
4.5792
4.38958
4.1983
4.00638
3.82092
3.65367
3.51122
3.38917
3.27883
3.17327
3.0702
2.96722
2.84903
2.72491
2.61462
2.52237
2.44559
2.37693
2.31088
2.24394
2.16982
2.08552
2.01193
1.94471
1.88465
1.83596
1.78962
1.74199
1.69144
1.63647
1.58026
1.52554
1.46665
1.44228
1.42626
1.4037
1.37667
1.34609
1.31255
1.2758
1.23721
1.19782
1.15979
1.1277
1.10358
1.08441
1.06813
1.05332
1.03637
1.01245
0.976783
0.933763
0.901012
0.882702
0.870312
0.859463
0.848816
0.838175
0.826643
0.804463
0.777221
0.789119
0.853118
1.00803
1.20618
1.51328
1
1
1
1
1.00001
1.56227
8.79675
12.9813
12.8484
12.6546
12.2837
11.7995
11.2588
10.6413
10.0597
9.56344
9.11482
8.66796
8.21963
7.78191
7.37525
7.00619
6.6677
6.34807
6.03949
5.74217
5.46333
5.21147
4.98807
4.78666
4.59717
4.40897
4.21235
4.00554
3.8084
3.64617
3.51457
3.39739
3.28611
3.1804
3.07884
2.97124
2.85022
2.72491
2.61037
2.51436
2.4343
2.36301
2.29494
2.22834
2.16385
2.0998
2.02551
1.94612
1.88107
1.82988
1.78282
1.73391
1.68461
1.63695
1.58342
1.52043
1.4653
1.42387
1.39187
1.36668
1.34132
1.31215
1.27906
1.24311
1.20552
1.16748
1.12951
1.09683
1.07341
1.05617
1.04294
1.03015
1.01412
0.991125
0.956299
0.912172
0.878885
0.860898
0.848822
0.837794
0.827198
0.815441
0.801629
0.779934
0.741226
0.715134
0.715592
0.733838
0.791113
1.09469
)
;

boundaryField
{
    inlet
    {
        type            fixedValue;
        value           uniform 1;
    }
    outlet
    {
        type            zeroGradient;
    }
    bottom
    {
        type            symmetryPlane;
    }
    top
    {
        type            symmetryPlane;
    }
    obstacle
    {
        type            zeroGradient;
    }
    defaultFaces
    {
        type            empty;
    }
}


// ************************************************************************* //
