/*--------------------------------*- C++ -*----------------------------------*\
  =========                 |
  \\      /  F ield         | OpenFOAM: The Open Source CFD Toolbox
   \\    /   O peration     | Website:  https://openfoam.org
    \\  /    A nd           | Version:  7
     \\/     M anipulation  |
\*---------------------------------------------------------------------------*/
FoamFile
{
    version     2.0;
    format      ascii;
    class       volScalarField;
    location    "2.4";
    object      T;
}
// * * * * * * * * * * * * * * * * * * * * * * * * * * * * * * * * * * * * * //

dimensions      [0 0 0 1 0 0 0];

internalField   nonuniform List<scalar> 
4032
(
1
1
1
1
1
1
1
1
1
1
1
1
2.2125
2.72653
2.73064
2.73985
2.7523
2.76693
2.7835
2.80037
2.81593
2.82892
2.83888
2.84487
1
1
1
1
1
1
1
1
1
1
1
1
2.19237
2.72239
2.72897
2.7382
2.75061
2.76495
2.78107
2.79736
2.8123
2.82474
2.83423
2.84002
1
1
1
1
1
1
1
1
1
1
1
1
2.14486
2.71607
2.72585
2.73529
2.74774
2.76171
2.77734
2.79298
2.80716
2.81895
2.82777
2.83347
1
1
1
1
1
1
1
1
1
1
1
1
2.0693
2.70228
2.72107
2.73093
2.74345
2.75698
2.77206
2.78702
2.80027
2.81087
2.81812
2.82215
1
1
1
1
1
1
1
1
1
1
1
1
1.962
2.67657
2.71251
2.72267
2.73523
2.74821
2.76232
2.77591
2.78749
2.79679
2.80307
2.80808
1
1
1
1
1
1
1
1
1
1
1
1
1.81913
2.63387
2.69749
2.70919
2.72282
2.73572
2.74921
2.7622
2.77287
2.7809
2.78355
2.77991
1
1
1
1
1
1
1
1
1
1
1
1
1.62348
2.56245
2.67579
2.69205
2.7071
2.71985
2.73286
2.7446
2.75074
2.75175
2.74799
2.74296
1
1
1
1
1
1
1
1
1
1
1
1
1.34641
2.44632
2.65584
2.6707
2.68772
2.70015
2.71199
2.7208
2.72366
2.72298
2.7219
2.73362
1
1
1
1
1
1
1
1
1
1
1
1
1.03692
2.31742
2.65869
2.65794
2.66414
2.67328
2.68163
2.68849
2.68638
2.67473
2.63035
2.53298
1
1
1
1
1
1
1
1
1
1
1
1
1.00032
2.15167
2.62143
2.62722
2.63512
2.64274
2.6459
2.6487
2.64155
2.61662
2.56628
2.41017
1
1
1
1
1
1
1
1
1
1
1
1
0.999997
1.87446
2.56282
2.6162
2.61797
2.61989
2.61581
2.61046
2.59674
2.56348
2.50502
2.33082
1
1
1
1
1
1
1
1
1
1
1
1
0.999999
1.45526
2.42439
2.59551
2.59917
2.59743
2.58932
2.57619
2.55388
2.51762
2.44702
2.29546
1
1
1
1
1
1
1
1
1
1
1
1
1
1.05837
2.23906
2.56618
2.5748
2.57224
2.56224
2.54533
2.51768
2.47858
2.40342
2.29008
1
1
1
1
1
1
1
1
1
1
1
1
1
1.00068
1.97339
2.49389
2.54627
2.54138
2.53223
2.51517
2.4878
2.44556
2.37437
2.28476
1
1
1
1
1
1
1
1
1
1
1
1
1
0.999995
1.46493
2.35307
2.51551
2.50801
2.5022
2.48753
2.46321
2.41898
2.35649
2.28269
1
1
1
1
1
1
1
1
1
1
1
1
1
0.999999
1.054
2.1606
2.47064
2.46622
2.46715
2.45675
2.43552
2.39579
2.34265
2.27919
1
1
1
1
1
1
1
1
1
1
1
1
1
1
1.00052
1.7532
2.3638
2.44086
2.43658
2.42674
2.40612
2.37281
2.32845
2.27441
1
1
1
1
1
1
1
1
1
1
1
1
1
1
0.999999
1.16471
2.18315
2.42005
2.40916
2.39882
2.37792
2.34782
2.30976
2.26443
1
1
1
1
1
1
1
1
1
1
1
1
1
1
1
1.00589
1.86907
2.33585
2.38148
2.36783
2.34848
2.32154
2.28869
2.25079
1
1
1
1
1
1
1
1
1
1
1
1
1
1
1
1
1.25022
2.15214
2.36053
2.33842
2.32038
2.29719
2.26966
2.23746
1
1
1
1
1
1
1
1
1
1
1
1
1
1
1
1
1.0139
1.8556
2.30088
2.30058
2.2882
2.27071
2.24848
2.22102
1
1
1
1
1
1
1
1
1
1
1
1
1
1
1
1
1.00005
1.25832
2.1068
2.28514
2.26416
2.24773
2.22801
2.20405
1
1
1
1
1
1
1
1
1
1
1
1
1
1
1
1
1
1.01479
1.73334
2.21139
2.24013
2.22304
2.20494
2.18487
1
1
1
1
1
1
1
1
1
1
1
1
1
1
1
1
1
1.00009
1.1815
1.99615
2.22354
2.20062
2.18447
2.1669
1
1
1
1
1
1
1
1
1
1
1
1
1
1
1
1
1
1
1.00717
1.50963
2.078
2.18175
2.16294
2.14603
1
1
1
1
1
1
1
1
1
1
1
1
1
1
1
1
1
1
1.00004
1.07583
1.79477
2.14703
2.14485
2.12962
1
1
1
1
1
1
1
1
1
1
1
1
1
1
1
1
1
1
1
1.00149
1.26915
1.94586
2.12278
2.10887
1
1
1
1
1
1
1
1
1
1
1
1
1
1
1
1
1
1
1
1.00001
1.01756
1.50335
1.99889
2.09358
1
1
1
1
1
1
1
1
1
1
1
1
1
1
1
1
1
1
1
1
1.00018
1.07879
1.70092
2.02172
1
1
1
1
1
1
1
1
1
1
1
1
1
1
1
1
1
1
1
1
1
1.00182
1.20682
1.80284
1
1
1
1
1
1
1
1
1
1
1
1
1
1
1
1
1
1
1
1
1
1.00001
1.01067
1.34841
1
1
1
1
1
1
1
1
1
1
1
1
1
1
1
1
1
1
1
1
1
1
1.0001
1.03514
1
1
1
1
1
1
1
1
1
1
1
1
1
1
1
1
1
1
1
1
1
1
1
1.00057
1
1
1
1
1
1
1
1
1
1
1
1
1
1
1
1
1
1
1
1
1
1
1
1
1
1
1
1
1
1
1
1
1
1
1
1
1
1
1
1
1
1
1
1
1
1
1
1
1
1
1
1
1
1
1
1
1
1
1
1
1
1
1
1
1
1
1
1
1
1
1
1
1
1
1
1
1
1
1
1
1
1
1
1
1
1
1
1
1
1
1
1
1
1
1
1
1
1
1
1
1
1
1
1
1
1
1
1
1
1
1
1
1
1
1
1
1
1
1
1
1
1
1
1
1
1
1
1
1
1
1
1
1
1
1
1
1
1
1
1
1
1
1
1
1
1
1
1
1
1
1
1
1
1
1
1
1
1
1
1
1
1
1
1
1
1
1
1
1.71079
1.18312
0.998192
1.03896
1.16305
1.33819
1.45411
1.47969
1.48568
1.51179
1.56793
1.66408
1.75526
1.77457
1.75853
1.72157
1.69524
1.69652
1.72586
1.75252
1.75227
1.73083
1.70283
1.69377
1.69772
1.71351
1.73097
1.73265
1.72381
1.70129
1.6861
1.68541
1.69198
1.70843
1.71395
1.70781
1.72671
1.8972
2.47345
2.77571
2.75474
2.71905
2.6942
2.64453
2.59996
2.57457
2.5608
2.54788
2.52578
2.50134
2.47581
2.45387
2.43544
2.42422
2.4122
2.39736
2.3834
2.36785
2.35002
2.33063
2.31293
2.30016
2.29073
2.28282
2.27518
2.26565
2.25467
2.24014
2.2204
2.20121
2.1898
2.18325
2.17771
2.17458
2.17206
2.16501
2.15653
2.14336
2.1204
2.1003
2.09052
2.0822
2.07395
2.06908
2.06665
2.06123
2.05634
2.04995
2.03362
2.0043
1.98552
1.97716
1.9698
1.96374
1.96309
1.95265
1.95808
1.65224
1.46779
1.33335
1.32821
1.33957
1.34425
1.30507
1.29491
1.316
1.36142
1.42697
1.50023
1.5659
1.59663
1.59681
1.60076
1.61366
1.64719
1.67758
1.68106
1.67542
1.6633
1.65989
1.66096
1.67079
1.6823
1.68567
1.68352
1.67618
1.66933
1.66623
1.6674
1.67286
1.67574
1.70049
1.83066
2.00456
2.22876
2.55095
2.63213
2.62974
2.62284
2.58649
2.55983
2.54323
2.53059
2.52086
2.50427
2.48363
2.46056
2.43881
2.41908
2.40341
2.39048
2.37857
2.36773
2.35565
2.34127
2.32416
2.30546
2.28869
2.27687
2.26829
2.26085
2.25329
2.24403
2.2324
2.21838
2.20261
2.18696
2.17655
2.17019
2.16459
2.15906
2.15266
2.14537
2.13565
2.12038
2.10098
2.08621
2.07706
2.06899
2.06275
2.05764
2.05239
2.04776
2.04198
2.03008
2.00822
1.9866
1.97533
1.96772
1.96077
1.9564
1.94562
2.05392
1.85102
1.70738
1.58258
1.4485
1.38046
1.35184
1.3291
1.29348
1.26051
1.27174
1.30087
1.3258
1.35955
1.41327
1.44452
1.47366
1.50632
1.53448
1.55873
1.57331
1.58352
1.59606
1.60574
1.61197
1.61342
1.60969
1.60262
1.60098
1.60317
1.61042
1.61636
1.6163
1.61797
1.63924
1.76615
1.96288
2.05668
2.05356
2.17796
2.40046
2.49735
2.53167
2.51436
2.50435
2.48971
2.47242
2.45756
2.4423
2.42988
2.41762
2.4024
2.38417
2.36471
2.3486
2.33702
2.32746
2.31809
2.3074
2.29464
2.27984
2.2636
2.24832
2.23615
2.22623
2.21702
2.2081
2.20049
2.19359
2.18634
2.176
2.16069
2.14712
2.13876
2.13128
2.1235
2.1151
2.10723
2.10006
2.09075
2.07614
2.0609
2.05157
2.04394
2.03695
2.0307
2.02488
2.01815
2.00987
1.99845
1.98431
1.96935
1.95759
1.94883
1.94229
1.93079
2.11092
1.9458
1.82247
1.7292
1.62518
1.50315
1.43645
1.42662
1.4011
1.35845
1.31771
1.28106
1.27575
1.28044
1.29793
1.33096
1.37042
1.40906
1.43312
1.44533
1.46206
1.48488
1.51006
1.53581
1.54958
1.55161
1.54779
1.53928
1.53931
1.54463
1.55332
1.55673
1.56313
1.58848
1.70618
1.91702
2.00692
2.01642
1.9956
1.99614
2.09373
2.26566
2.36914
2.42398
2.44202
2.42736
2.40855
2.39076
2.37582
2.36826
2.3612
2.34994
2.33501
2.31675
2.29871
2.28697
2.27927
2.27168
2.26282
2.25242
2.24059
2.22686
2.21065
2.19511
2.18351
2.17411
2.16641
2.16054
2.15583
2.15123
2.14493
2.13296
2.114
2.09903
2.08957
2.08062
2.07233
2.06726
2.06402
2.06027
2.05303
2.03872
2.02184
2.0116
2.00429
1.99752
1.99055
1.98301
1.97688
1.9722
1.96584
1.9557
1.94181
1.92804
1.91909
1.90552
2.15862
2.02765
1.90698
1.81377
1.73409
1.64634
1.55475
1.49227
1.46797
1.44329
1.4114
1.36338
1.30305
1.27895
1.28246
1.29575
1.31754
1.34137
1.35761
1.3651
1.38039
1.41061
1.44213
1.47329
1.49241
1.49958
1.50077
1.49638
1.49856
1.50722
1.51583
1.52637
1.56119
1.68023
1.87986
1.99658
1.99537
1.99037
1.98544
1.97593
1.97691
2.0376
2.17316
2.30954
2.35527
2.38149
2.37259
2.35745
2.34094
2.32934
2.31865
2.30568
2.29317
2.27982
2.2639
2.24856
2.23841
2.23067
2.223
2.2146
2.20483
2.19271
2.17569
2.15481
2.14088
2.13334
2.12751
2.12309
2.11961
2.11558
2.11032
2.10082
2.08142
2.05701
2.04253
2.03431
2.02888
2.02588
2.02397
2.02155
2.01798
2.01023
1.99425
1.97527
1.96392
1.95664
1.94956
1.94328
1.94025
1.93812
1.93479
1.92895
1.91861
1.90287
1.88946
1.8729
2.1844
2.08125
1.97691
1.88553
1.80464
1.7353
1.67003
1.59448
1.52179
1.50115
1.48627
1.45645
1.40938
1.35329
1.32272
1.3175
1.32286
1.32734
1.32451
1.32215
1.3253
1.34106
1.36664
1.39483
1.42313
1.45009
1.46878
1.4707
1.47394
1.47977
1.49095
1.52797
1.69113
1.86896
1.98774
2.002
1.99629
1.98917
1.97923
1.97274
1.96406
1.95883
1.98599
2.09682
2.21945
2.31283
2.32927
2.32666
2.32097
2.30606
2.29219
2.27791
2.26656
2.25663
2.24377
2.22542
2.20888
2.19957
2.19184
2.18496
2.17658
2.16667
2.15259
2.13107
2.11237
2.10364
2.09739
2.09268
2.08889
2.0847
2.07955
2.07125
2.05509
2.02916
2.00811
1.99883
1.99271
1.98867
1.98704
1.98501
1.98236
1.97823
1.96828
1.94796
1.9271
1.91639
1.91096
1.90849
1.90699
1.90556
1.90261
1.89793
1.89011
1.87578
1.85857
1.83822
2.20209
2.11693
2.02956
1.94963
1.86833
1.79313
1.74161
1.68694
1.62127
1.56068
1.52283
1.50178
1.47893
1.44811
1.40624
1.3607
1.33738
1.33092
1.32671
1.32712
1.33112
1.3295
1.3232
1.32472
1.33919
1.36781
1.40406
1.43626
1.45574
1.46313
1.49832
1.67292
1.88201
1.98153
2.01362
2.00926
1.99982
1.98204
1.96785
1.96412
1.95805
1.94915
1.93515
1.94265
2.00232
2.131
2.24042
2.28462
2.29708
2.28465
2.27349
2.26287
2.25025
2.23917
2.22748
2.21018
2.18904
2.17578
2.16761
2.16108
2.15412
2.14546
2.13448
2.11764
2.09638
2.08281
2.07561
2.06962
2.0642
2.05891
2.05286
2.04459
2.03181
2.01246
1.98981
1.97491
1.96746
1.96226
1.95939
1.9565
1.9532
1.94914
1.94182
1.92568
1.90072
1.88562
1.88167
1.87926
1.878
1.87714
1.87447
1.87022
1.86419
1.85166
1.83055
1.80644
2.21098
2.1387
2.06195
1.99321
1.92487
1.85245
1.79089
1.74006
1.69105
1.64342
1.59586
1.54059
1.51523
1.50317
1.47966
1.44212
1.39532
1.37184
1.36331
1.35586
1.35086
1.34243
1.32879
1.31794
1.31591
1.32061
1.33359
1.36207
1.39841
1.44804
1.61836
1.87221
1.95619
1.99139
2.00489
1.99588
1.97695
1.96324
1.95561
1.95076
1.94373
1.93462
1.92326
1.91097
1.89879
1.92476
2.02799
2.14378
2.22967
2.24256
2.24799
2.24505
2.23308
2.22031
2.20734
2.19136
2.17266
2.15646
2.14669
2.13919
2.13196
2.1243
2.1162
2.10568
2.08932
2.0694
2.05688
2.04967
2.04322
2.03662
2.02945
2.02123
2.01145
1.99933
1.98314
1.96342
1.94849
1.94058
1.93474
1.9309
1.92878
1.92472
1.91802
1.90621
1.8875
1.86835
1.8599
1.85674
1.85443
1.85402
1.8545
1.85105
1.8444
1.83095
1.80848
1.78289
2.21501
2.15219
2.08672
2.02363
1.96038
1.89879
1.84504
1.79071
1.73337
1.69376
1.65832
1.61235
1.56425
1.53723
1.51846
1.49637
1.46955
1.43803
1.40224
1.37964
1.37015
1.36029
1.34952
1.34179
1.33097
1.32049
1.32017
1.32409
1.35221
1.51046
1.78234
1.90553
1.92274
1.93835
1.94785
1.9449
1.94099
1.93982
1.93667
1.93025
1.92028
1.9094
1.90089
1.89197
1.87986
1.85992
1.86408
1.91933
2.03773
2.13984
2.18752
2.20921
2.20787
2.19714
2.18203
2.16612
2.15114
2.1388
2.12654
2.11638
2.10821
2.10083
2.09451
2.08815
2.0785
2.06182
2.04215
2.03013
2.02253
2.0154
2.00806
2.00035
1.99252
1.98433
1.97379
1.95746
1.93608
1.92123
1.91397
1.90826
1.90224
1.89662
1.89131
1.88551
1.87693
1.86342
1.84728
1.83912
1.8361
1.83345
1.83059
1.82584
1.81895
1.80834
1.79254
1.76956
2.21315
2.15797
2.1013
2.04554
1.98853
1.93233
1.88196
1.83287
1.78181
1.73644
1.69789
1.66095
1.62303
1.58804
1.55242
1.52649
1.51238
1.49363
1.46623
1.42937
1.40535
1.39176
1.38102
1.37299
1.36063
1.34317
1.33028
1.34883
1.49132
1.71985
1.856
1.85431
1.84025
1.83992
1.85026
1.86972
1.8866
1.89864
1.89514
1.88915
1.88003
1.8742
1.87204
1.86821
1.8562
1.84189
1.83267
1.81985
1.84046
1.92563
2.02899
2.11429
2.15052
2.15279
2.15114
2.14123
2.12933
2.11701
2.10383
2.09206
2.0822
2.07446
2.06862
2.06389
2.0584
2.04898
2.03239
2.01271
1.99993
1.99199
1.98516
1.97912
1.97261
1.96547
1.95756
1.94616
1.9281
1.90774
1.89451
1.88606
1.87915
1.87344
1.86888
1.86537
1.86173
1.85572
1.84405
1.8275
1.81697
1.81172
1.80675
1.80053
1.79331
1.78477
1.776
1.76039
2.20691
2.15982
2.11182
2.06059
2.00838
1.96056
1.91316
1.86442
1.81858
1.77723
1.73596
1.69577
1.6645
1.63609
1.60332
1.56584
1.53791
1.52276
1.50698
1.48523
1.46204
1.43756
1.40593
1.38702
1.37961
1.36907
1.38373
1.51048
1.739
1.85763
1.85117
1.83317
1.81297
1.80005
1.79207
1.79322
1.79576
1.80469
1.81258
1.81292
1.81699
1.82221
1.82407
1.82289
1.82368
1.82091
1.81416
1.80023
1.77808
1.78052
1.81789
1.90895
2.01532
2.07303
2.0956
2.10597
2.10199
2.08932
2.07618
2.06511
2.05442
2.04625
2.04033
2.03593
2.03205
2.0267
2.01618
1.99728
1.97783
1.96748
1.96044
1.95433
1.9493
1.94275
1.93579
1.92762
1.91505
1.89669
1.87879
1.86691
1.85863
1.8524
1.84849
1.84577
1.84343
1.83974
1.83318
1.82133
1.80404
1.78935
1.77987
1.7732
1.76729
1.76152
1.75709
1.74891
2.19911
2.15832
2.11595
2.06922
2.02338
1.97973
1.93497
1.88858
1.8486
1.80851
1.76982
1.73048
1.69834
1.66858
1.64061
1.61248
1.58439
1.55423
1.52618
1.51158
1.49957
1.48238
1.45629
1.42299
1.40458
1.41864
1.54036
1.76401
1.89044
1.88542
1.85957
1.83014
1.8076
1.79227
1.78253
1.77344
1.76875
1.75742
1.74413
1.72958
1.72646
1.72975
1.7372
1.74726
1.76229
1.77659
1.77698
1.77117
1.75501
1.74197
1.73227
1.74402
1.80296
1.89829
1.98751
2.04194
2.05035
2.04704
2.04317
2.03432
2.02519
2.01747
2.01094
2.00587
2.00198
1.99777
1.99089
1.97746
1.9577
1.94197
1.93396
1.92767
1.92232
1.91666
1.90996
1.90296
1.8938
1.88012
1.86427
1.85191
1.84305
1.83532
1.82897
1.82478
1.8221
1.81972
1.81485
1.80629
1.79216
1.77219
1.7567
1.74833
1.74333
1.73975
1.73794
1.73234
2.1886
2.15321
2.11443
2.07384
2.03412
1.99282
1.94971
1.90969
1.87201
1.83378
1.79481
1.76138
1.7317
1.70007
1.66579
1.64029
1.61875
1.59251
1.56585
1.53877
1.51812
1.5039
1.48765
1.46354
1.47206
1.59152
1.80697
1.93247
1.92756
1.90018
1.8701
1.84461
1.82222
1.80201
1.7839
1.76763
1.75502
1.74249
1.72983
1.716
1.69204
1.67106
1.66186
1.66386
1.67165
1.68528
1.70265
1.71177
1.71019
1.70524
1.69405
1.68345
1.68793
1.72072
1.79414
1.88685
1.96
1.98896
1.99093
1.99326
1.99243
1.98876
1.98239
1.97696
1.97196
1.96632
1.96021
1.95114
1.93688
1.92023
1.90736
1.89988
1.8941
1.8885
1.88194
1.87505
1.86735
1.85729
1.84496
1.83401
1.82617
1.81991
1.81358
1.80576
1.79709
1.79148
1.78836
1.78385
1.77399
1.75872
1.74093
1.72875
1.7234
1.7203
1.71997
1.71507
2.17639
2.14567
2.11062
2.07495
2.03902
2.00038
1.96025
1.92521
1.88906
1.85351
1.81614
1.78596
1.75464
1.7253
1.69405
1.6673
1.64082
1.61537
1.59422
1.57237
1.54873
1.52401
1.50415
1.51638
1.63937
1.8568
1.97461
1.96959
1.94224
1.91225
1.88625
1.86049
1.83388
1.80975
1.78959
1.77196
1.75501
1.73844
1.72207
1.70413
1.68332
1.66078
1.64577
1.6344
1.6251
1.62105
1.61993
1.62226
1.62712
1.62687
1.62562
1.62446
1.62435
1.62772
1.64833
1.69701
1.7724
1.85474
1.90978
1.93317
1.94227
1.94491
1.94922
1.94966
1.9454
1.93987
1.9312
1.92082
1.909
1.89733
1.88603
1.87473
1.86695
1.86063
1.85356
1.84623
1.83925
1.83214
1.82363
1.8135
1.80509
1.79994
1.79465
1.78679
1.77575
1.7658
1.75765
1.7501
1.74363
1.73639
1.72774
1.71916
1.71087
1.70363
1.70069
1.69493
2.16123
2.13387
2.10405
2.07332
2.03961
2.00329
1.96955
1.9366
1.90269
1.86669
1.83554
1.80587
1.77485
1.74404
1.71536
1.69123
1.66434
1.63966
1.61338
1.59312
1.57242
1.54907
1.56033
1.68867
1.90422
2.01082
2.00429
1.97665
1.95037
1.92651
1.90088
1.87335
1.84647
1.82196
1.80124
1.78272
1.76439
1.74568
1.72664
1.70666
1.68499
1.66159
1.6389
1.62161
1.61057
1.60287
1.59492
1.58669
1.57689
1.56523
1.55209
1.54733
1.54917
1.55243
1.55936
1.57356
1.6038
1.65502
1.73137
1.80871
1.86392
1.87946
1.8901
1.9035
1.91889
1.91659
1.90792
1.89495
1.8796
1.86847
1.86144
1.85383
1.84431
1.83548
1.82693
1.8186
1.81158
1.80594
1.80038
1.79259
1.78284
1.77607
1.77107
1.76509
1.75657
1.74432
1.73142
1.72233
1.71642
1.71233
1.7091
1.70558
1.70033
1.69126
1.68194
1.67108
2.14599
2.12116
2.0955
2.06875
2.03813
2.00546
1.97604
1.94481
1.9117
1.87816
1.85094
1.82045
1.79167
1.76
1.73553
1.7088
1.68334
1.65942
1.6361
1.61237
1.59013
1.60625
1.74547
1.95906
2.04822
2.03854
2.01099
1.98309
1.96109
1.93739
1.91101
1.88435
1.85793
1.83197
1.80848
1.78773
1.76823
1.74924
1.73077
1.71257
1.69281
1.66914
1.64278
1.62055
1.60578
1.5936
1.58125
1.56862
1.55632
1.54676
1.53638
1.51516
1.49779
1.49064
1.49085
1.49251
1.49708
1.51076
1.54021
1.59522
1.67412
1.75695
1.80451
1.83267
1.8651
1.88331
1.88306
1.87448
1.85784
1.84357
1.83544
1.8297
1.82201
1.81274
1.80362
1.79525
1.78819
1.78223
1.77677
1.76992
1.75961
1.74997
1.74453
1.74021
1.73501
1.72681
1.71341
1.70121
1.696
1.69277
1.69039
1.68711
1.68237
1.6747
1.66423
1.64733
2.12757
2.10665
2.08439
2.06009
2.03248
2.00524
1.97778
1.94831
1.91554
1.88847
1.86136
1.83286
1.80189
1.77467
1.75161
1.72488
1.70092
1.67516
1.65279
1.63007
1.64911
1.80338
2.02044
2.09257
2.0722
2.03702
2.00946
1.98859
1.96691
1.94262
1.91719
1.89177
1.8663
1.84047
1.81564
1.79332
1.77297
1.75355
1.73457
1.71604
1.69744
1.67701
1.65346
1.6297
1.61029
1.59373
1.57838
1.56372
1.54969
1.53637
1.52344
1.50842
1.48938
1.47152
1.45818
1.45084
1.44617
1.44386
1.44191
1.44896
1.47188
1.52467
1.61441
1.6971
1.75927
1.81702
1.84082
1.84164
1.83787
1.82902
1.81758
1.80455
1.79507
1.78893
1.78198
1.77535
1.76967
1.76349
1.75596
1.74708
1.73688
1.72676
1.71935
1.71417
1.71
1.70517
1.698
1.68978
1.68142
1.6733
1.66746
1.66392
1.66126
1.65711
1.64828
1.62689
2.11202
2.09263
2.07245
2.0501
2.0251
2.00144
1.9763
1.94859
1.92003
1.89545
1.8682
1.84107
1.81113
1.78928
1.76488
1.74018
1.7136
1.68988
1.66904
1.69476
1.85885
2.07349
2.14071
2.11798
2.07476
2.03774
2.0126
1.99208
1.97014
1.94682
1.92285
1.89835
1.87246
1.84543
1.81948
1.79623
1.77517
1.75543
1.73646
1.71774
1.69881
1.67895
1.65718
1.63428
1.6139
1.59683
1.58137
1.56647
1.55118
1.53519
1.51966
1.50444
1.48658
1.46527
1.44728
1.43685
1.42895
1.41972
1.41159
1.40736
1.402
1.39684
1.41063
1.46342
1.54951
1.65298
1.72454
1.78101
1.80308
1.80506
1.79977
1.7868
1.773
1.76633
1.76342
1.76232
1.75763
1.7512
1.74157
1.72892
1.71491
1.70441
1.69781
1.69277
1.68851
1.68507
1.68205
1.676
1.665
1.65453
1.64751
1.64207
1.63625
1.62866
1.62013
1.60314
2.09102
2.07369
2.05519
2.03471
2.01375
1.99356
1.97151
1.94475
1.92063
1.8978
1.87334
1.84551
1.8206
1.80011
1.7754
1.75162
1.72498
1.70443
1.74003
1.92102
2.12512
2.173
2.1509
2.10939
2.07072
2.04027
2.0167
1.99467
1.97288
1.95018
1.92649
1.90156
1.87455
1.84651
1.82052
1.7977
1.77677
1.75667
1.73728
1.71829
1.69935
1.67983
1.65886
1.63683
1.61517
1.59527
1.57769
1.5621
1.5479
1.53407
1.51897
1.50197
1.48302
1.46216
1.44342
1.43015
1.41925
1.40878
1.39966
1.39077
1.37983
1.37202
1.36367
1.35433
1.36228
1.40819
1.49355
1.60132
1.68037
1.73766
1.76606
1.76647
1.76217
1.75669
1.7478
1.73953
1.73408
1.72894
1.72372
1.71454
1.70011
1.68728
1.68043
1.67612
1.67213
1.66771
1.66104
1.65178
1.64446
1.63813
1.62991
1.62157
1.61359
1.60552
1.59706
1.58087
2.07371
2.05397
2.03763
2.02016
2.00184
1.98344
1.96368
1.94023
1.91985
1.89843
1.87481
1.84733
1.82851
1.8076
1.78491
1.75911
1.73939
1.78657
1.99586
2.16776
2.2125
2.19045
2.14831
2.10895
2.07452
2.04286
2.01744
1.99532
1.97359
1.95109
1.92716
1.90129
1.87341
1.8455
1.82044
1.79836
1.77774
1.75742
1.73677
1.71567
1.69462
1.6745
1.65544
1.63659
1.61718
1.59791
1.57961
1.56218
1.54556
1.52961
1.51426
1.4994
1.48321
1.46411
1.44518
1.42976
1.41749
1.40703
1.39681
1.38548
1.37299
1.35998
1.34554
1.33523
1.32908
1.32318
1.32874
1.36236
1.44571
1.54383
1.63614
1.689
1.73217
1.73817
1.73652
1.73126
1.72312
1.71267
1.70164
1.69135
1.68358
1.67714
1.67107
1.665
1.65816
1.65046
1.643
1.63517
1.62509
1.61467
1.60975
1.60342
1.59529
1.58659
1.5788
1.56617
2.06461
2.04508
2.02484
2.00673
1.98941
1.97265
1.95375
1.93272
1.91432
1.89557
1.87302
1.8499
1.83063
1.80797
1.78679
1.77247
1.82801
2.05394
2.23552
2.22829
2.20566
2.17422
2.1423
2.1111
2.07727
2.04485
2.0179
1.99408
1.97111
1.94754
1.92275
1.89663
1.8697
1.84328
1.81885
1.7966
1.77562
1.75498
1.73401
1.7124
1.69043
1.66884
1.64811
1.62835
1.60949
1.59175
1.57536
1.55982
1.54433
1.52829
1.51168
1.49481
1.47839
1.46282
1.44743
1.43315
1.42082
1.40984
1.39886
1.38656
1.37337
1.35848
1.34139
1.32693
1.31559
1.30526
1.3011
1.29863
1.30169
1.32344
1.39416
1.49339
1.59263
1.65197
1.6938
1.70798
1.70664
1.70264
1.69261
1.68111
1.67298
1.66321
1.65144
1.64292
1.63951
1.63702
1.63249
1.62512
1.61268
1.59977
1.58717
1.57778
1.57301
1.56994
1.56605
1.55683
2.02835
2.03136
2.01456
1.99535
1.97835
1.96157
1.94221
1.92368
1.90723
1.8897
1.86763
1.84866
1.82821
1.80944
1.80019
1.87711
2.09979
2.27465
2.27832
2.24475
2.19992
2.16558
2.13777
2.10903
2.07605
2.04271
2.01425
1.98898
1.96467
1.9405
1.91584
1.89042
1.86432
1.83794
1.81246
1.78898
1.76724
1.74643
1.72594
1.70547
1.68504
1.66466
1.64415
1.62359
1.60351
1.5848
1.56813
1.55301
1.53884
1.52496
1.51025
1.49374
1.47652
1.46025
1.44513
1.43129
1.41855
1.40647
1.39568
1.38614
1.37606
1.36257
1.34688
1.33124
1.31468
1.30098
1.29194
1.28296
1.27827
1.27641
1.27766
1.29398
1.34658
1.44314
1.54046
1.61213
1.64144
1.66696
1.66958
1.66881
1.66636
1.65632
1.64166
1.63234
1.6256
1.61751
1.61057
1.6071
1.60319
1.5919
1.57425
1.56425
1.56023
1.55558
1.55214
1.54683
1.86149
2.00708
2.00161
1.98324
1.96668
1.95067
1.93267
1.91516
1.89927
1.88129
1.86191
1.84315
1.82241
1.82569
1.92256
2.17306
2.30037
2.28296
2.25438
2.22538
2.19422
2.16397
2.13398
2.10266
2.07023
2.03757
2.00701
1.97952
1.95402
1.92944
1.90504
1.88033
1.85493
1.8289
1.80324
1.77918
1.75691
1.73593
1.71584
1.69642
1.67735
1.65821
1.63849
1.61828
1.59857
1.58068
1.56504
1.55061
1.53622
1.52162
1.50692
1.492
1.47671
1.46138
1.44714
1.43521
1.42411
1.41156
1.39767
1.38316
1.36842
1.35754
1.34897
1.33674
1.32121
1.30715
1.29328
1.28092
1.27202
1.26363
1.26035
1.25852
1.25455
1.26354
1.30057
1.38561
1.47771
1.56229
1.5959
1.61903
1.63494
1.63615
1.6345
1.62891
1.61708
1.60628
1.59902
1.59157
1.58234
1.57536
1.56767
1.55738
1.55006
1.54539
1.54171
1.53314
1.47463
1.88994
1.98491
1.97347
1.95525
1.93937
1.92188
1.90682
1.89093
1.8749
1.85364
1.83545
1.8436
1.97331
2.21707
2.34499
2.33979
2.28351
2.23516
2.20549
2.18073
2.15314
2.12256
2.09108
2.05895
2.02647
1.99555
1.96741
1.94146
1.91668
1.89218
1.86737
1.84213
1.81675
1.7921
1.76899
1.74756
1.72739
1.70806
1.68936
1.67093
1.65231
1.63307
1.61319
1.59383
1.57664
1.56218
1.54953
1.53674
1.52263
1.50661
1.48862
1.47087
1.45651
1.44565
1.43583
1.42489
1.41259
1.40013
1.387
1.37243
1.35745
1.34336
1.33196
1.32241
1.31095
1.29819
1.28605
1.27408
1.26293
1.252
1.24522
1.24061
1.23862
1.23542
1.23912
1.26348
1.33126
1.43003
1.51697
1.55743
1.57711
1.59304
1.60236
1.60601
1.60464
1.59769
1.58423
1.57195
1.55986
1.54943
1.54665
1.54339
1.53974
1.53531
1.52278
1.07936
1.57521
1.89871
1.96271
1.94835
1.92816
1.91147
1.89706
1.88296
1.86572
1.84764
1.86838
2.02849
2.26209
2.35578
2.33446
2.30686
2.26956
2.22897
2.19518
2.16411
2.13379
2.10393
2.07431
2.0439
2.01287
1.98273
1.95459
1.92854
1.90385
1.87964
1.85532
1.8309
1.80664
1.78309
1.761
1.74061
1.7214
1.7028
1.68457
1.66645
1.64806
1.62931
1.61043
1.59209
1.57539
1.56077
1.54799
1.53609
1.52368
1.50951
1.49318
1.47551
1.45786
1.44218
1.42914
1.41946
1.41149
1.40256
1.39121
1.37703
1.36146
1.34607
1.33129
1.31843
1.30947
1.30226
1.29279
1.27932
1.2652
1.25096
1.24243
1.23923
1.23686
1.23141
1.22378
1.21566
1.21448
1.23543
1.28817
1.37263
1.46115
1.5098
1.53804
1.5672
1.57962
1.58125
1.57898
1.56995
1.55294
1.53996
1.52983
1.522
1.51951
1.51942
1.51422
1.00206
1.14052
1.64687
1.89382
1.94049
1.92398
1.9034
1.88591
1.87279
1.86046
1.90016
2.10118
2.30486
2.37581
2.35635
2.30585
2.27263
2.24427
2.21112
2.17646
2.14299
2.11228
2.08386
2.05634
2.02858
2.0005
1.97256
1.9456
1.92032
1.89644
1.87324
1.85001
1.8263
1.80255
1.77936
1.75729
1.73688
1.71797
1.6998
1.68193
1.66422
1.64636
1.62796
1.60939
1.5915
1.575
1.56081
1.54807
1.53535
1.52201
1.50832
1.49406
1.47811
1.46093
1.44523
1.43196
1.41982
1.40822
1.39671
1.38601
1.37624
1.36423
1.34841
1.33406
1.32222
1.31078
1.30155
1.29497
1.2881
1.27719
1.26246
1.25082
1.24193
1.23355
1.22426
1.21558
1.20667
1.20199
1.19579
1.18867
1.20053
1.24114
1.31782
1.40075
1.48378
1.51758
1.54064
1.5507
1.54949
1.54648
1.53782
1.52278
1.51323
1.50814
1.50371
1.49674
1.00001
1.00572
1.20834
1.69219
1.88014
1.91775
1.90063
1.87983
1.87437
1.94017
2.16071
2.35077
2.36662
2.35123
2.32669
2.28725
2.25356
2.22329
2.19145
2.15858
2.12696
2.09774
2.07067
2.04483
2.01924
1.99338
1.96738
1.94171
1.91713
1.89401
1.87184
1.84985
1.82723
1.80382
1.78025
1.75729
1.73562
1.71572
1.69722
1.67928
1.66158
1.64451
1.62888
1.61383
1.59789
1.58079
1.56419
1.54918
1.53547
1.52208
1.508
1.49261
1.47638
1.46111
1.447
1.4334
1.42084
1.41013
1.39997
1.38798
1.37415
1.35957
1.34691
1.33603
1.32373
1.3134
1.30598
1.29805
1.28724
1.27351
1.26044
1.24957
1.23966
1.2305
1.22227
1.21544
1.20826
1.20142
1.19242
1.18318
1.17338
1.16775
1.17548
1.20532
1.278
1.36844
1.45434
1.49293
1.50131
1.51161
1.5138
1.51267
1.50973
1.50124
1.49353
1.48741
1
1.00005
1.01253
1.27439
1.70405
1.88189
1.88346
1.88732
2.00256
2.21614
2.36448
2.3988
2.36202
2.32391
2.30484
2.27768
2.24423
2.21093
2.17914
2.14882
2.1199
2.09239
2.06617
2.04066
2.01535
1.9904
1.96614
1.94234
1.91929
1.89719
1.87569
1.85418
1.83199
1.80776
1.78224
1.75735
1.73468
1.71465
1.69671
1.68019
1.66445
1.6481
1.63019
1.61226
1.59686
1.58392
1.57055
1.55562
1.53992
1.5244
1.5093
1.49474
1.48042
1.46534
1.4493
1.4329
1.41785
1.40511
1.39483
1.38569
1.37571
1.36404
1.34827
1.33281
1.32754
1.32337
1.31561
1.30397
1.28829
1.27295
1.26331
1.25517
1.24726
1.24038
1.2344
1.22862
1.22117
1.21041
1.19648
1.18255
1.17108
1.1625
1.15613
1.15301
1.15872
1.18708
1.24752
1.33375
1.4053
1.45427
1.46597
1.47373
1.47915
1.48498
1.48885
1.48437
1
1
1.00014
1.02273
1.31871
1.73853
1.82452
2.04123
2.30462
2.38756
2.42444
2.41534
2.38385
2.34803
2.32427
2.29764
2.26198
2.22819
2.19695
2.16632
2.13641
2.1076
2.08062
2.05634
2.03443
2.01281
1.98991
1.96691
1.94439
1.92234
1.90032
1.87756
1.85327
1.82662
1.7987
1.77197
1.74825
1.72763
1.70918
1.69154
1.67362
1.65482
1.63528
1.61748
1.60222
1.58782
1.57384
1.5603
1.54664
1.5317
1.51473
1.49779
1.48335
1.46746
1.44949
1.43327
1.41939
1.40685
1.39469
1.38324
1.37182
1.35914
1.34611
1.33674
1.32876
1.31935
1.30926
1.29748
1.28453
1.27258
1.26149
1.25051
1.24111
1.23339
1.22699
1.22101
1.21409
1.2052
1.19492
1.18441
1.1733
1.16216
1.15264
1.14653
1.14341
1.14179
1.14388
1.1656
1.21417
1.28329
1.35786
1.41461
1.43107
1.44359
1.46263
1.47075
1
1
1
1.00033
1.03458
1.3482
1.88893
2.42312
2.5438
2.51704
2.49929
2.48066
2.4482
2.40766
2.37135
2.33674
2.3007
2.26349
2.22671
2.19212
2.16075
2.13243
2.10606
2.08047
2.05476
2.02905
2.00422
1.98015
1.95652
1.93284
1.90839
1.88234
1.85409
1.82451
1.79476
1.76686
1.74263
1.72221
1.70462
1.68823
1.67122
1.65524
1.64327
1.63075
1.61559
1.60073
1.58742
1.57482
1.5615
1.54612
1.52699
1.50339
1.48222
1.47019
1.45891
1.44542
1.43159
1.41807
1.40402
1.38951
1.37733
1.36569
1.35371
1.34129
1.32905
1.31859
1.30826
1.29721
1.28597
1.27438
1.26232
1.25087
1.24092
1.23264
1.22579
1.21938
1.21251
1.20528
1.19802
1.18952
1.17725
1.16314
1.15176
1.14476
1.14047
1.13733
1.13563
1.13388
1.13198
1.14148
1.17423
1.23701
1.31194
1.36865
1.41082
1.4386
1
1
1
1
1.00051
1.07214
2.29472
2.74956
2.71803
2.65539
2.60881
2.56812
2.52257
2.47069
2.42186
2.3794
2.33874
2.29796
2.259
2.22222
2.18832
2.1579
2.12988
2.10279
2.07573
2.0488
2.02244
1.99681
1.97182
1.94689
1.92108
1.8933
1.86297
1.83115
1.79936
1.7698
1.74427
1.72293
1.70491
1.68911
1.67473
1.66068
1.64374
1.62484
1.60712
1.59164
1.5783
1.56591
1.5534
1.53993
1.52413
1.50509
1.4869
1.46911
1.45207
1.43725
1.4233
1.40986
1.39667
1.3832
1.36992
1.35721
1.34314
1.33767
1.33398
1.32796
1.3197
1.30958
1.29827
1.28604
1.27349
1.26093
1.24902
1.23914
1.23185
1.2261
1.22108
1.21634
1.21067
1.2022
1.18907
1.17281
1.1601
1.15288
1.14801
1.14377
1.13953
1.13505
1.12978
1.12005
1.10704
1.11211
1.14055
1.20403
1.27132
1.36818
1
1
1
1
1
1.29082
2.54062
2.81652
2.79496
2.7614
2.70925
2.64817
2.58567
2.5212
2.4616
2.40981
2.3636
2.31982
2.27786
2.23809
2.20204
2.1699
2.14054
2.11248
2.08471
2.05702
2.02977
2.00352
1.97832
1.95345
1.92775
1.89986
1.86869
1.83438
1.80017
1.77052
1.74593
1.7249
1.70658
1.69078
1.67667
1.66194
1.64467
1.62575
1.60733
1.59103
1.57693
1.56389
1.55081
1.53726
1.52327
1.50838
1.49025
1.46975
1.45137
1.43581
1.42151
1.40751
1.39448
1.38276
1.37004
1.35524
1.34232
1.3325
1.32451
1.31747
1.30949
1.2997
1.28842
1.27632
1.2639
1.25157
1.23944
1.22907
1.22174
1.21641
1.21236
1.20833
1.20295
1.19471
1.18173
1.16487
1.1517
1.14438
1.13947
1.13505
1.13074
1.12576
1.11953
1.10967
1.09212
1.07907
1.07822
1.08654
1.11343
1.2472
)
;

boundaryField
{
    inlet
    {
        type            fixedValue;
        value           uniform 1;
    }
    outlet
    {
        type            inletOutlet;
        inletValue      uniform 1;
        value           nonuniform List<scalar> 
32
(
1.95316
1.94636
1.93126
1.90546
1.87254
1.83758
1.80574
1.78219
1.76846
1.75969
1.74938
1.73333
1.71641
1.69578
1.67071
1.64594
1.62452
1.60152
1.57964
1.56586
1.55708
1.54759
1.53274
1.52199
1.51446
1.49717
1.48789
1.48426
1.47125
1.43868
1.36707
1.24403
)
;
    }
    bottom
    {
        type            symmetryPlane;
    }
    top
    {
        type            symmetryPlane;
    }
    obstacle
    {
        type            zeroGradient;
    }
    defaultFaces
    {
        type            empty;
    }
}


// ************************************************************************* //
