/*--------------------------------*- C++ -*----------------------------------*\
  =========                 |
  \\      /  F ield         | OpenFOAM: The Open Source CFD Toolbox
   \\    /   O peration     | Website:  https://openfoam.org
    \\  /    A nd           | Version:  7
     \\/     M anipulation  |
\*---------------------------------------------------------------------------*/
FoamFile
{
    version     2.0;
    format      ascii;
    class       volScalarField;
    location    "3.5";
    object      p;
}
// * * * * * * * * * * * * * * * * * * * * * * * * * * * * * * * * * * * * * //

dimensions      [1 -1 -2 0 0 0 0];

internalField   nonuniform List<scalar> 
258048
(
1
1
1
1
1
1
1
1
1
1
1
1
1
1
1
1
1
1
1
1
1
1
1
1
1
1
1
1
1
1
1
1
1
1
1
1
1
1
1
1
1
1
1
1
1
1
1
1
1
1
1
1
1
1
1
1
1
1
1
1
1
1
1
1
1
1
1
1
1
1
1
1
1
1
1
1
1
1
1
1
1
1
1
1
1
1
1
1
1
1
1
1
1
1
1
1
1
1
3.56849
9.84706
10.3572
10.3657
10.4092
10.4644
10.5181
10.5623
10.5945
10.6166
10.6337
10.6504
10.6689
10.6917
10.7274
10.7767
10.8241
10.8643
10.8894
10.8973
10.8953
10.8963
10.9235
10.9803
11.0381
11.0834
11.1029
11.0991
11.0901
11.0975
11.1406
11.1984
11.25
11.2793
11.279
11.2657
11.2564
11.2711
11.3142
11.3714
11.4257
11.4586
11.4665
11.463
11.4652
11.4849
11.5201
11.5573
11.5833
11.5933
11.594
11.5986
11.6185
11.6512
11.6826
11.6995
11.7036
11.7064
11.7148
11.7385
11.7752
11.8072
11.8213
11.816
11.8077
11.8107
11.8302
11.8629
11.8943
11.9099
11.9067
11.8991
11.9017
11.9228
11.9565
11.9837
11.9928
11.9871
11.9786
11.9768
11.9873
12.0067
12.0192
12.0185
12.0115
12.0077
12.0137
12.0298
12.0478
12.0586
12.0573
12.0459
12.0322
12.0285
1
1
1
1
1
1
1
1
1
1
1
1
1
1
1
1
1
1
1
1
1
1
1
1
1
1
1
1
1
1
1
1
1
1
1
1
1
1
1
1
1
1
1
1
1
1
1
1
1
1
1
1
1
1
1
1
1
1
1
1
1
1
1
1
1
1
1
1
1
1
1
1
1
1
1
1
1
1
1
1
1
1
1
1
1
1
1
1
1
1
1
1
1
1
1
1
1
1
3.54973
9.80719
10.3712
10.3826
10.4239
10.4701
10.5147
10.5515
10.5804
10.6049
10.6297
10.6558
10.6806
10.7031
10.7293
10.769
10.8134
10.8538
10.8841
10.8992
10.9033
10.9074
10.9288
10.9772
11.032
11.0766
11.0985
11.0991
11.0948
11.104
11.1425
11.1957
11.2447
11.2735
11.2771
11.269
11.264
11.2796
11.3199
11.3719
11.4209
11.4512
11.4602
11.4597
11.4655
11.4876
11.5225
11.5578
11.5818
11.5909
11.5919
11.5975
11.6185
11.6517
11.6831
11.6998
11.7035
11.7062
11.7146
11.7385
11.7753
11.8072
11.8207
11.815
11.8065
11.8097
11.8296
11.8629
11.895
11.9109
11.9073
11.8994
11.9013
11.9212
11.954
11.9814
11.9915
11.9869
11.9798
11.9784
11.9877
12.005
12.0166
12.0163
12.0108
12.0083
12.0147
12.0298
12.0464
12.0563
12.0553
12.0449
12.0324
12.0289
1
1
1
1
1
1
1
1
1
1
1
1
1
1
1
1
1
1
1
1
1
1
1
1
1
1
1
1
1
1
1
1
1
1
1
1
1
1
1
1
1
1
1
1
1
1
1
1
1
1
1
1
1
1
1
1
1
1
1
1
1
1
1
1
1
1
1
1
1
1
1
1
1
1
1
1
1
1
1
1
1
1
1
1
1
1
1
1
1
1
1
1
1
1
1
1
1
1
3.51492
9.76537
10.3737
10.3969
10.4395
10.4776
10.5132
10.5412
10.5646
10.5905
10.623
10.6593
10.6928
10.718
10.7374
10.7652
10.8013
10.8379
10.8702
10.8933
10.908
10.9203
10.9403
10.9785
11.0244
11.0633
11.0857
11.0926
11.0976
11.1134
11.1487
11.1946
11.2367
11.2625
11.2699
11.2679
11.2708
11.2915
11.33
11.3753
11.4163
11.4415
11.4502
11.4532
11.4642
11.4906
11.5265
11.5596
11.5802
11.5875
11.5885
11.5953
11.618
11.652
11.6832
11.699
11.7021
11.7044
11.7131
11.7376
11.7749
11.8066
11.8192
11.8127
11.8035
11.8067
11.8272
11.862
11.8955
11.9119
11.9079
11.8997
11.9008
11.9191
11.9506
11.978
11.9889
11.9858
11.9803
11.98
11.9886
12.0035
12.0132
12.0127
12.0089
12.0084
12.0158
12.0303
12.0449
12.0531
12.0519
12.043
12.0327
12.0304
1
1
1
1
1
1
1
1
1
1
1
1
1
1
1
1
1
1
1
1
1
1
1
1
1
1
1
1
1
1
1
1
1
1
1
1
1
1
1
1
1
1
1
1
1
1
1
1
1
1
1
1
1
1
1
1
1
1
1
1
1
1
1
1
1
1
1
1
1
1
1
1
1
1
1
1
1
1
1
1
1
1
1
1
1
1
1
1
1
1
1
1
1
1
1
1
1
1
3.46519
9.71744
10.3797
10.4051
10.4485
10.481
10.5079
10.5285
10.5471
10.5769
10.6203
10.6676
10.708
10.7333
10.7452
10.759
10.7853
10.8195
10.8566
10.8914
10.9184
10.9364
10.9521
10.9784
11.0137
11.0471
11.0708
11.0873
11.1047
11.1267
11.1572
11.1931
11.2263
11.2487
11.2602
11.2677
11.2808
11.3064
11.3419
11.379
11.4104
11.4296
11.438
11.4454
11.4632
11.4944
11.5308
11.5606
11.577
11.5828
11.5845
11.5935
11.6183
11.6528
11.6829
11.6972
11.6995
11.7021
11.7119
11.7378
11.7758
11.8065
11.8169
11.8089
11.7989
11.8024
11.8244
11.8619
11.8974
11.9139
11.9085
11.8992
11.8991
11.9158
11.9464
11.9741
11.9859
11.9843
11.9806
11.981
11.9889
12.0016
12.0096
12.0088
12.0065
12.0082
12.0164
12.0302
12.0426
12.0488
12.0472
12.0401
12.0326
12.0318
1
1
1
1
1
1
1
1
1
1
1
1
1
1
1
1
1
1
1
1
1
1
1
1
1
1
1
1
1
1
1
1
1
1
1
1
1
1
1
1
1
1
1
1
1
1
1
1
1
1
1
1
1
1
1
1
1
1
1
1
1
1
1
1
1
1
1
1
1
1
1
1
1
1
1
1
1
1
1
1
1
1
1
1
1
1
1
1
1
1
1
1
1
1
1
1
1
1
3.40147
9.65953
10.394
10.4127
10.4511
10.477
10.4989
10.5172
10.5362
10.5699
10.621
10.6743
10.7184
10.7449
10.7523
10.7543
10.7702
10.8016
10.845
10.8919
10.9296
10.9517
10.9631
10.9778
11.0013
11.029
11.0557
11.0847
11.1142
11.1408
11.1665
11.1921
11.2152
11.2335
11.2486
11.2657
11.2896
11.3202
11.3533
11.3827
11.4051
11.4183
11.4258
11.4372
11.4621
11.4976
11.5336
11.5598
11.5724
11.5772
11.5803
11.5926
11.6196
11.6537
11.6815
11.6934
11.6951
11.6986
11.7105
11.7389
11.7776
11.8065
11.8137
11.8036
11.7924
11.7965
11.8211
11.8625
11.9001
11.9161
11.9088
11.8976
11.8958
11.9115
11.942
11.9704
11.983
11.9823
11.9795
11.9803
11.988
11.9995
12.0064
12.0055
12.0039
12.007
12.0161
12.0292
12.0395
12.044
12.042
12.0367
12.0321
12.0331
1
1
1
1
1
1
1
1
1
1
1
1
1
1
1
1
1
1
1
1
1
1
1
1
1
1
1
1
1
1
1
1
1
1
1
1
1
1
1
1
1
1
1
1
1
1
1
1
1
1
1
1
1
1
1
1
1
1
1
1
1
1
1
1
1
1
1
1
1
1
1
1
1
1
1
1
1
1
1
1
1
1
1
1
1
1
1
1
1
1
1
1
1
1
1
1
1
1
3.31776
9.59462
10.4116
10.423
10.4544
10.4716
10.4887
10.5061
10.5298
10.5682
10.6246
10.6817
10.7278
10.7533
10.7553
10.7487
10.7562
10.7866
10.8385
10.8963
10.9411
10.964
10.9691
10.9731
10.9864
11.0103
11.0447
11.0874
11.1258
11.1537
11.1732
11.1891
11.2037
11.2193
11.2385
11.2647
11.2972
11.3311
11.3612
11.3838
11.3991
11.4078
11.4153
11.4322
11.4627
11.4995
11.5329
11.5548
11.5648
11.5702
11.577
11.5938
11.6228
11.6547
11.6782
11.6871
11.6888
11.6941
11.7093
11.7409
11.7798
11.806
11.8092
11.797
11.785
11.79
11.818
11.8638
11.9031
11.9179
11.9085
11.8947
11.8912
11.9064
11.9377
11.9673
11.9804
11.9797
11.9768
11.9777
11.9857
11.9972
12.004
12.0031
12.0016
12.005
12.0145
12.0267
12.0355
12.0387
12.0364
12.0329
12.0309
12.034
1
1
1
1
1
1
1
1
1
1
1
1
1
1
1
1
1
1
1
1
1
1
1
1
1
1
1
1
1
1
1
1
1
1
1
1
1
1
1
1
1
1
1
1
1
1
1
1
1
1
1
1
1
1
1
1
1
1
1
1
1
1
1
1
1
1
1
1
1
1
1
1
1
1
1
1
1
1
1
1
1
1
1
1
1
1
1
1
1
1
1
1
1
1
1
1
1
1
3.20252
9.52936
10.422
10.432
10.4586
10.4684
10.4798
10.4953
10.5244
10.5696
10.6296
10.6875
10.7325
10.7545
10.7505
10.7386
10.7438
10.7788
10.8395
10.9035
10.9497
10.9696
10.9669
10.9622
10.9703
10.9957
11.0414
11.095
11.1373
11.1626
11.1752
11.1825
11.1912
11.2058
11.2318
11.2664
11.3043
11.3384
11.3641
11.3802
11.3906
11.3982
11.4095
11.4327
11.4662
11.5006
11.5284
11.5451
11.5543
11.5622
11.575
11.5978
11.628
11.6557
11.6728
11.6785
11.6814
11.6892
11.7091
11.7439
11.7812
11.8039
11.8033
11.7895
11.7777
11.7841
11.8158
11.865
11.9048
11.918
11.907
11.891
11.886
11.9009
11.9333
11.964
11.9776
11.9765
11.973
11.9737
11.9821
11.9947
12.0022
12.0014
11.9997
12.0026
12.0116
12.023
12.0307
12.033
12.0305
12.0288
12.0291
12.0343
1
1
1
1
1
1
1
1
1
1
1
1
1
1
1
1
1
1
1
1
1
1
1
1
1
1
1
1
1
1
1
1
1
1
1
1
1
1
1
1
1
1
1
1
1
1
1
1
1
1
1
1
1
1
1
1
1
1
1
1
1
1
1
1
1
1
1
1
1
1
1
1
1
1
1
1
1
1
1
1
1
1
1
1
1
1
1
1
1
1
1
1
1
1
1
1
1
1
3.06588
9.46683
10.4246
10.4369
10.4601
10.4652
10.473
10.4882
10.5203
10.5717
10.6326
10.6893
10.7309
10.748
10.74
10.7285
10.737
10.7797
10.8461
10.9108
10.9539
10.9677
10.9579
10.947
10.9557
10.9892
11.0466
11.1057
11.1472
11.1663
11.1702
11.1708
11.1764
11.1946
11.2308
11.2723
11.3112
11.3411
11.36
11.3699
11.3791
11.3905
11.4096
11.4393
11.4726
11.5008
11.5196
11.5304
11.5399
11.5533
11.5751
11.6045
11.6342
11.6559
11.6653
11.6682
11.6732
11.6852
11.7105
11.7471
11.7808
11.7983
11.7947
11.7812
11.7716
11.7809
11.8154
11.8653
11.9037
11.9154
11.9039
11.8874
11.8817
11.896
11.9286
11.9599
11.9738
11.9726
11.9686
11.9691
11.978
11.9919
12.0004
11.9996
11.9975
11.9998
12.0077
12.0182
12.0251
12.0267
12.0243
12.0241
12.0268
12.0341
1
1
1
1
1
1
1
1
1
1
1
1
1
1
1
1
1
1
1
1
1
1
1
1
1
1
1
1
1
1
1
1
1
1
1
1
1
1
1
1
1
1
1
1
1
1
1
1
1
1
1
1
1
1
1
1
1
1
1
1
1
1
1
1
1
1
1
1
1
1
1
1
1
1
1
1
1
1
1
1
1
1
1
1
1
1
1
1
1
1
1
1
1
1
1
1
1
1
2.92157
9.39333
10.4152
10.4352
10.4562
10.4606
10.4685
10.4853
10.5203
10.5731
10.6328
10.6871
10.7237
10.7357
10.728
10.7221
10.7372
10.786
10.8532
10.9151
10.9538
10.9598
10.9446
10.9326
10.9469
10.9907
11.0564
11.1162
11.1533
11.1649
11.1603
11.1556
11.1607
11.1872
11.235
11.2819
11.3182
11.3404
11.3497
11.3542
11.3643
11.3839
11.4143
11.4507
11.4814
11.4998
11.5072
11.5122
11.5228
11.5447
11.5781
11.6133
11.64
11.6534
11.6555
11.6569
11.6647
11.6831
11.7141
11.75
11.7777
11.7887
11.7832
11.7725
11.7682
11.7813
11.8172
11.8644
11.8994
11.9092
11.8986
11.884
11.8793
11.8926
11.9236
11.954
11.968
11.9672
11.9637
11.9646
11.9739
11.9885
11.9976
11.997
11.9948
11.9965
12.0033
12.0127
12.0188
12.0199
12.0178
12.0191
12.024
12.0334
1
1
1
1
1
1
1
1
1
1
1
1
1
1
1
1
1
1
1
1
1
1
1
1
1
1
1
1
1
1
1
1
1
1
1
1
1
1
1
1
1
1
1
1
1
1
1
1
1
1
1
1
1
1
1
1
1
1
1
1
1
1
1
1
1
1
1
1
1
1
1
1
1
1
1
1
1
1
1
1
1
1
1
1
1
1
1
1
1
1
1
1
1
1
1
1
1
1
2.77481
9.3064
10.4049
10.428
10.449
10.4571
10.4688
10.489
10.5246
10.5748
10.6307
10.6799
10.7116
10.7219
10.7175
10.7191
10.7422
10.7942
10.8587
10.9154
10.9487
10.9476
10.9314
10.9241
10.9455
10.9986
11.0661
11.1228
11.1547
11.1579
11.1468
11.139
11.1462
11.1842
11.2425
11.2927
11.3249
11.3367
11.3354
11.3351
11.3477
11.3786
11.4226
11.4645
11.4898
11.4954
11.4919
11.4923
11.5056
11.5385
11.5831
11.6222
11.6436
11.6472
11.644
11.645
11.6571
11.6837
11.7194
11.7524
11.7717
11.7753
11.7692
11.7633
11.7668
11.7855
11.8216
11.863
11.8916
11.8988
11.8908
11.8806
11.8788
11.8912
11.9186
11.946
11.9594
11.9602
11.9587
11.961
11.9705
11.9847
11.9936
11.993
11.9911
11.9926
11.9988
12.0069
12.0119
12.0126
12.0111
12.0138
12.0208
12.0318
1
1
1
1
1
1
1
1
1
1
1
1
1
1
1
1
1
1
1
1
1
1
1
1
1
1
1
1
1
1
1
1
1
1
1
1
1
1
1
1
1
1
1
1
1
1
1
1
1
1
1
1
1
1
1
1
1
1
1
1
1
1
1
1
1
1
1
1
1
1
1
1
1
1
1
1
1
1
1
1
1
1
1
1
1
1
1
1
1
1
1
1
1
1
1
1
1
1
2.6125
9.205
10.3934
10.4167
10.4392
10.4529
10.4709
10.4958
10.5313
10.5773
10.6276
10.6714
10.6998
10.7099
10.7105
10.7205
10.7506
10.8015
10.8603
10.9102
10.937
10.9335
10.9211
10.9218
10.9509
11.0083
11.0728
11.1239
11.1506
11.1468
11.1316
11.1236
11.1365
11.1866
11.2513
11.3019
11.3291
11.3296
11.3192
11.3148
11.3325
11.3771
11.4329
11.4762
11.4941
11.4876
11.4754
11.4731
11.4913
11.5361
11.5893
11.6283
11.6437
11.6386
11.6311
11.633
11.6514
11.6865
11.7252
11.7529
11.7635
11.7594
11.7538
11.7542
11.766
11.7927
11.828
11.8611
11.8809
11.8849
11.8807
11.8766
11.8789
11.8916
11.914
11.9362
11.9483
11.9514
11.9535
11.9582
11.9681
11.9809
11.9883
11.9876
11.9863
11.9883
11.9941
12.001
12.0049
12.0048
12.004
12.0082
12.0171
12.029
1
1
1
1
1
1
1
1
1
1
1
1
1
1
1
1
1
1
1
1
1
1
1
1
1
1
1
1
1
1
1
1
1
1
1
1
1
1
1
1
1
1
1
1
1
1
1
1
1
1
1
1
1
1
1
1
1
1
1
1
1
1
1
1
1
1
1
1
1
1
1
1
1
1
1
1
1
1
1
1
1
1
1
1
1
1
1
1
1
1
1
1
1
1
1
1
1
1
2.44073
9.08242
10.3824
10.407
10.4316
10.4512
10.4748
10.5033
10.5381
10.5788
10.6223
10.661
10.6879
10.6996
10.7067
10.7252
10.7595
10.8069
10.8588
10.9012
10.9221
10.9198
10.914
10.9242
10.9607
11.0168
11.0754
11.1198
11.1399
11.132
11.1164
11.1128
11.1346
11.1937
11.259
11.306
11.327
11.319
11.3012
11.2961
11.3233
11.3802
11.4418
11.4826
11.4922
11.4776
11.4594
11.4569
11.4827
11.537
11.5939
11.6304
11.6387
11.6285
11.6182
11.6222
11.6475
11.6895
11.7294
11.7514
11.7526
11.7442
11.7384
11.7443
11.766
11.8003
11.8344
11.8585
11.8689
11.8695
11.8688
11.8713
11.8793
11.8934
11.9107
11.926
11.9356
11.9413
11.9476
11.9558
11.9663
11.9769
11.9819
11.9806
11.9801
11.983
11.9887
11.9946
11.9973
11.9967
11.9968
12.0024
12.0127
12.0247
1
1
1
1
1
1
1
1
1
1
1
1
1
1
1
1
1
1
1
1
1
1
1
1
1
1
1
1
1
1
1
1
1
1
1
1
1
1
1
1
1
1
1
1
1
1
1
1
1
1
1
1
1
1
1
1
1
1
1
1
1
1
1
1
1
1
1
1
1
1
1
1
1
1
1
1
1
1
1
1
1
1
1
1
1
1
1
1
1
1
1
1
1
1
1
1
1
1
2.2657
8.93577
10.3757
10.3993
10.4262
10.4501
10.4776
10.5081
10.542
10.5786
10.6162
10.651
10.6774
10.6919
10.7055
10.7308
10.7666
10.8097
10.8544
10.8896
10.906
10.9055
10.9091
10.9302
10.9709
11.0229
11.0742
11.1107
11.124
11.1147
11.1026
11.1076
11.141
11.2029
11.2637
11.3042
11.3169
11.3036
11.2825
11.2844
11.3235
11.3866
11.446
11.4818
11.4835
11.4642
11.4444
11.4462
11.4803
11.5388
11.5942
11.627
11.6293
11.6171
11.6068
11.6138
11.6448
11.6905
11.7294
11.7467
11.7418
11.7306
11.7252
11.736
11.7667
11.8062
11.8385
11.8548
11.8567
11.8546
11.8561
11.8644
11.8787
11.8946
11.9076
11.9163
11.9222
11.9295
11.9401
11.9527
11.9644
11.9726
11.9748
11.9728
11.9728
11.9764
11.9823
11.9876
11.9895
11.9889
11.99
11.9966
12.0074
12.0187
1
1
1
1
1
1
1
1
1
1
1
1
1
1
1
1
1
1
1
1
1
1
1
1
1
1
1
1
1
1
1
1
1
1
1
1
1
1
1
1
1
1
1
1
1
1
1
1
1
1
1
1
1
1
1
1
1
1
1
1
1
1
1
1
1
1
1
1
1
1
1
1
1
1
1
1
1
1
1
1
1
1
1
1
1
1
1
1
1
1
1
1
1
1
1
1
1
1
2.09172
8.76418
10.3714
10.3929
10.4226
10.4485
10.4778
10.5096
10.5428
10.5766
10.6102
10.642
10.668
10.6854
10.7049
10.7341
10.7702
10.8098
10.8479
10.8768
10.8905
10.8933
10.9072
10.9374
10.9792
11.0263
11.0697
11.0973
11.1038
11.0962
11.093
11.1098
11.1539
11.2125
11.2646
11.2953
11.2983
11.2837
11.2675
11.283
11.3324
11.3941
11.4454
11.4728
11.4682
11.4484
11.4332
11.4427
11.483
11.5401
11.5905
11.6178
11.6171
11.6059
11.5988
11.6093
11.6428
11.6881
11.724
11.7376
11.7306
11.7195
11.7158
11.7306
11.7664
11.8079
11.8377
11.8484
11.8452
11.8413
11.8444
11.8572
11.8768
11.8942
11.9038
11.907
11.9097
11.9173
11.9316
11.9484
11.9616
11.9678
11.9677
11.9649
11.9648
11.9685
11.9744
11.9797
11.9817
11.9816
11.984
11.9908
12.0012
12.0112
1
1
1
1
1
1
1
1
1
1
1
1
1
1
1
1
1
1
1
1
1
1
1
1
1
1
1
1
1
1
1
1
1
1
1
1
1
1
1
1
1
1
1
1
1
1
1
1
1
1
1
1
1
1
1
1
1
1
1
1
1
1
1
1
1
1
1
1
1
1
1
1
1
1
1
1
1
1
1
1
1
1
1
1
1
1
1
1
1
1
1
1
1
1
1
1
1
1
1.92013
8.56703
10.3695
10.3898
10.4207
10.4464
10.4758
10.5079
10.541
10.5734
10.6043
10.6336
10.659
10.679
10.7025
10.7342
10.7703
10.807
10.8398
10.8641
10.8766
10.8849
10.9082
10.9436
10.9844
11.0262
11.061
11.0805
11.0819
11.0783
11.0876
11.1185
11.1675
11.2198
11.2607
11.2788
11.2736
11.2613
11.2575
11.288
11.3441
11.4004
11.4415
11.4577
11.4481
11.4315
11.4255
11.4438
11.4882
11.5404
11.5827
11.6035
11.602
11.5947
11.5932
11.608
11.642
11.6831
11.7139
11.7249
11.719
11.7107
11.7111
11.729
11.765
11.8046
11.8312
11.8387
11.8341
11.8301
11.8347
11.8506
11.8729
11.8909
11.8982
11.8981
11.8983
11.9056
11.9222
11.9421
11.9569
11.9624
11.9608
11.957
11.9562
11.9595
11.9651
11.9709
11.9739
11.9749
11.9783
11.9847
11.9938
12.0022
1
1
1
1
1
1
1
1
1
1
1
1
1
1
1
1
1
1
1
1
1
1
1
1
1
1
1
1
1
1
1
1
1
1
1
1
1
1
1
1
1
1
1
1
1
1
1
1
1
1
1
1
1
1
1
1
1
1
1
1
1
1
1
1
1
1
1
1
1
1
1
1
1
1
1
1
1
1
1
1
1
1
1
1
1
1
1
1
1
1
1
1
1
1
1
1
1
1
1.7505
8.33811
10.3721
10.3879
10.4178
10.4426
10.4725
10.5053
10.5385
10.5692
10.5979
10.6252
10.6503
10.6721
10.6978
10.731
10.7669
10.8009
10.8295
10.851
10.8649
10.8806
10.9108
10.948
10.9862
11.0222
11.049
11.0614
11.0603
11.066
11.0894
11.1301
11.178
11.2226
11.2506
11.2559
11.2481
11.2406
11.253
11.2991
11.3557
11.4042
11.4332
11.4377
11.4264
11.4149
11.42
11.449
11.4949
11.54
11.572
11.5855
11.585
11.5828
11.5884
11.6094
11.6427
11.6767
11.7002
11.7087
11.7063
11.7034
11.7095
11.7308
11.7642
11.7977
11.8193
11.8255
11.8223
11.8204
11.8272
11.8449
11.8674
11.8843
11.8904
11.8891
11.8882
11.895
11.9122
11.9336
11.95
11.9561
11.9541
11.9494
11.9474
11.9497
11.9549
11.9615
11.9661
11.9686
11.9724
11.9778
11.9852
11.9919
1
1
1
1
1
1
1
1
1
1
1
1
1
1
1
1
1
1
1
1
1
1
1
1
1
1
1
1
1
1
1
1
1
1
1
1
1
1
1
1
1
1
1
1
1
1
1
1
1
1
1
1
1
1
1
1
1
1
1
1
1
1
1
1
1
1
1
1
1
1
1
1
1
1
1
1
1
1
1
1
1
1
1
1
1
1
1
1
1
1
1
1
1
1
1
1
1
1
1.59202
8.07945
10.3744
10.3836
10.4118
10.4369
10.4683
10.5028
10.536
10.5658
10.5927
10.6181
10.6422
10.6658
10.6938
10.727
10.7604
10.7905
10.8161
10.8378
10.8567
10.8805
10.9144
10.9504
10.9843
11.0129
11.0326
11.0411
11.044
11.0628
11.0972
11.1396
11.1827
11.2176
11.2338
11.2309
11.2239
11.2266
11.2562
11.3106
11.3633
11.4028
11.4206
11.4162
11.405
11.4003
11.4164
11.4551
11.5005
11.5382
11.56
11.5665
11.5661
11.5691
11.5834
11.6111
11.6437
11.6708
11.6862
11.6911
11.6919
11.6964
11.7101
11.7342
11.7632
11.7885
11.8042
11.8096
11.8097
11.812
11.8219
11.8401
11.8606
11.8752
11.8805
11.8797
11.8793
11.8857
11.902
11.9234
11.941
11.9487
11.9473
11.9419
11.9384
11.9393
11.9439
11.9516
11.9581
11.9619
11.9657
11.9699
11.9755
11.9808
1
1
1
1
1
1
1
1
1
1
1
1
1
1
1
1
1
1
1
1
1
1
1
1
1
1
1
1
1
1
1
1
1
1
1
1
1
1
1
1
1
1
1
1
1
1
1
1
1
1
1
1
1
1
1
1
1
1
1
1
1
1
1
1
1
1
1
1
1
1
1
1
1
1
1
1
1
1
1
1
1
1
1
1
1
1
1
1
1
1
1
1
1
1
1
1
1
1
1.44397
7.78695
10.3745
10.3814
10.4069
10.4321
10.4644
10.4995
10.5322
10.5606
10.5859
10.6104
10.6354
10.6617
10.6915
10.7234
10.7529
10.7789
10.803
10.8272
10.8528
10.8828
10.9172
10.9497
10.9769
10.998
11.014
11.0243
11.0378
11.0682
11.1063
11.1443
11.1799
11.2038
11.2106
11.2065
11.206
11.2225
11.2648
11.3178
11.3651
11.3955
11.404
11.3962
11.3863
11.3889
11.4154
11.4592
11.5027
11.534
11.5477
11.5483
11.547
11.5538
11.5766
11.6109
11.6438
11.6656
11.6739
11.6745
11.6765
11.6874
11.709
11.736
11.7609
11.7782
11.7874
11.792
11.7962
11.8042
11.8177
11.8354
11.8525
11.8641
11.869
11.8698
11.871
11.8772
11.8918
11.912
11.9304
11.9399
11.9396
11.934
11.929
11.9284
11.9328
11.9418
11.95
11.9544
11.9578
11.9607
11.9649
11.9698
1
1
1
1
1
1
1
1
1
1
1
1
1
1
1
1
1
1
1
1
1
1
1
1
1
1
1
1
1
1
1
1
1
1
1
1
1
1
1
1
1
1
1
1
1
1
1
1
1
1
1
1
1
1
1
1
1
1
1
1
1
1
1
1
1
1
1
1
1
1
1
1
1
1
1
1
1
1
1
1
1
1
1
1
1
1
1
1
1
1
1
1
1
1
1
1
1
1
1.30769
7.47018
10.371
10.3724
10.3994
10.4271
10.4599
10.4938
10.5246
10.5516
10.5768
10.6027
10.6308
10.6605
10.6911
10.7201
10.745
10.7679
10.7921
10.82
10.8511
10.8842
10.9166
10.9433
10.9634
10.9803
10.9977
11.0158
11.0415
11.078
11.1129
11.143
11.1681
11.1822
11.185
11.1864
11.199
11.2286
11.2729
11.3194
11.3584
11.3805
11.3841
11.3777
11.3723
11.383
11.4159
11.4598
11.5004
11.5263
11.5343
11.5316
11.5296
11.5392
11.5683
11.6079
11.6421
11.6604
11.6635
11.6607
11.6621
11.6766
11.7043
11.7344
11.7567
11.7679
11.7718
11.7748
11.7824
11.7961
11.8129
11.8297
11.8435
11.8521
11.8566
11.8593
11.8625
11.8687
11.8814
11.9001
11.9184
11.9295
11.9307
11.9249
11.9188
11.9173
11.922
11.9323
11.9415
11.9457
11.9481
11.9499
11.9537
11.9592
1
1
1
1
1
1
1
1
1
1
1
1
1
1
1
1
1
1
1
1
1
1
1
1
1
1
1
1
1
1
1
1
1
1
1
1
1
1
1
1
1
1
1
1
1
1
1
1
1
1
1
1
1
1
1
1
1
1
1
1
1
1
1
1
1
1
1
1
1
1
1
1
1
1
1
1
1
1
1
1
1
1
1
1
1
1
1
1
1
1
1
1
1
1
1
1
1
1
1.16773
7.12394
10.3693
10.3705
10.3933
10.4249
10.4575
10.4889
10.5162
10.541
10.5666
10.5952
10.6269
10.6594
10.69
10.7158
10.7371
10.7588
10.785
10.8161
10.8499
10.8829
10.9111
10.9312
10.9465
10.9633
10.9863
11.0147
11.0496
11.086
11.1152
11.1355
11.1492
11.1572
11.1616
11.1753
11.2021
11.2388
11.2784
11.3159
11.3437
11.3589
11.3628
11.3616
11.3653
11.3839
11.4173
11.4566
11.492
11.5134
11.5185
11.5154
11.5145
11.5272
11.5599
11.6019
11.637
11.6542
11.6541
11.6493
11.6499
11.6652
11.6956
11.7279
11.7494
11.7573
11.7576
11.7594
11.7693
11.7872
11.8063
11.8218
11.833
11.8397
11.8442
11.8485
11.8535
11.8596
11.8707
11.888
11.906
11.9181
11.9204
11.9144
11.9078
11.9062
11.9119
11.9233
11.9324
11.9354
11.9362
11.9375
11.942
11.949
1
1
1
1
1
1
1
1
1
1
1
1
1
1
1
1
1
1
1
1
1
1
1
1
1
1
1
1
1
1
1
1
1
1
1
1
1
1
1
1
1
1
1
1
1
1
1
1
1
1
1
1
1
1
1
1
1
1
1
1
1
1
1
1
1
1
1
1
1
1
1
1
1
1
1
1
1
1
1
1
1
1
1
1
1
1
1
1
1
1
1
1
1
1
1
1
1
1
1.03161
6.77841
10.3358
10.3574
10.3817
10.4157
10.4476
10.4781
10.5051
10.5307
10.558
10.5889
10.6229
10.6565
10.6859
10.7084
10.728
10.7512
10.7807
10.8139
10.8477
10.878
10.9006
10.9155
10.9296
10.9501
10.9802
11.0164
11.055
11.0888
11.1111
11.1214
11.1272
11.1335
11.1448
11.1729
11.2097
11.247
11.2801
11.3063
11.323
11.3335
11.3409
11.3495
11.3647
11.3892
11.4197
11.4513
11.4782
11.4949
11.4998
11.499
11.5025
11.5196
11.554
11.595
11.6287
11.6452
11.6443
11.6391
11.6394
11.6544
11.6846
11.7171
11.7385
11.7455
11.7449
11.7467
11.758
11.7779
11.7974
11.8113
11.8208
11.8269
11.8319
11.8375
11.8435
11.8495
11.8595
11.8755
11.893
11.9055
11.9083
11.9023
11.8959
11.8951
11.9024
11.9145
11.9225
11.9236
11.9226
11.9239
11.93
11.9389
1
1
1
1
1
1
1
1
1
1
1
1
1
1
1
1
1
1
1
1
1
1
1
1
1
1
1
1
1
1
1
1
1
1
1
1
1
1
1
1
1
1
1
1
1
1
1
1
1
1
1
1
1
1
1
1
1
1
1
1
1
1
1
1
1
1
1
1
1
1
1
1
1
1
1
1
1
1
1
1
1
1
1
1
1
1
1
1
1
1
1
1
1
1
1
1
1
1
1.00069
6.33106
10.2819
10.3414
10.3686
10.4048
10.4381
10.4693
10.4975
10.5248
10.5537
10.5855
10.6191
10.6512
10.6779
10.6989
10.7205
10.7475
10.779
10.8121
10.8437
10.8699
10.8876
10.9001
10.9168
10.9426
10.9771
11.0161
11.0536
11.0833
11.0986
11.1027
11.1062
11.1155
11.137
11.1744
11.2147
11.2499
11.2764
11.2926
11.301
11.3088
11.3211
11.3407
11.366
11.3941
11.4208
11.4438
11.4614
11.4726
11.4783
11.4829
11.4936
11.5165
11.5507
11.5877
11.6172
11.6321
11.6322
11.6284
11.63
11.645
11.6733
11.7035
11.7242
11.7318
11.7325
11.7359
11.7486
11.7682
11.7862
11.7982
11.8068
11.8136
11.8198
11.8264
11.8327
11.8385
11.8476
11.8626
11.8796
11.8918
11.8946
11.889
11.8834
11.884
11.8933
11.9054
11.9115
11.9104
11.9076
11.9094
11.9176
11.9284
1
1
1
1
1
1
1
1
1
1
1
1
1
1
1
1
1
1
1
1
1
1
1
1
1
1
1
1
1
1
1
1
1
1
1
1
1
1
1
1
1
1
1
1
1
1
1
1
1
1
1
1
1
1
1
1
1
1
1
1
1
1
1
1
1
1
1
1
1
1
1
1
1
1
1
1
1
1
1
1
1
1
1
1
1
1
1
1
1
1
1
1
1
1
1
1
1
1
1
5.83061
10.2306
10.3256
10.3542
10.3909
10.4265
10.4608
10.4923
10.5219
10.5514
10.582
10.6133
10.643
10.6692
10.6924
10.7162
10.7436
10.7735
10.8034
10.8312
10.8546
10.8718
10.8878
10.9108
10.9411
10.9756
11.0119
11.0453
11.0688
11.0791
11.0831
11.0907
11.1074
11.1359
11.1747
11.2126
11.2444
11.2657
11.2765
11.2815
11.2887
11.305
11.3321
11.3646
11.3953
11.4192
11.4351
11.4445
11.4503
11.4561
11.467
11.4866
11.5154
11.5492
11.5808
11.604
11.6153
11.6168
11.616
11.621
11.6374
11.6631
11.6892
11.7073
11.7157
11.7194
11.7261
11.7403
11.7584
11.7732
11.783
11.7915
11.7996
11.8075
11.8151
11.8213
11.8267
11.8352
11.8491
11.8653
11.8768
11.8795
11.8748
11.8703
11.8728
11.884
11.8958
11.8994
11.8959
11.8917
11.8943
11.9047
11.9172
1
1
1
1
1
1
1
1
1
1
1
1
1
1
1
1
1
1
1
1
1
1
1
1
1
1
1
1
1
1
1
1
1
1
1
1
1
1
1
1
1
1
1
1
1
1
1
1
1
1
1
1
1
1
1
1
1
1
1
1
1
1
1
1
1
1
1
1
1
1
1
1
1
1
1
1
1
1
1
1
1
1
1
1
1
1
1
1
1
1
1
1
1
1
1
1
1
1
1
5.30429
10.1668
10.3117
10.3435
10.3813
10.4186
10.4543
10.4874
10.5179
10.5468
10.5757
10.6051
10.6339
10.6611
10.6865
10.712
10.7384
10.7654
10.7918
10.8167
10.8399
10.8601
10.8815
10.91
10.943
10.9754
11.0057
11.0306
11.0458
11.0545
11.0657
11.084
11.1084
11.1379
11.1717
11.2029
11.2294
11.2482
11.2594
11.267
11.2772
11.2952
11.3227
11.3563
11.3882
11.4118
11.4248
11.4295
11.431
11.4362
11.4516
11.4789
11.5133
11.5471
11.5739
11.59
11.5964
11.598
11.6013
11.6119
11.6311
11.6542
11.675
11.6894
11.6979
11.7052
11.7165
11.7325
11.7483
11.7589
11.7663
11.7749
11.7847
11.7947
11.8035
11.8095
11.8144
11.822
11.8346
11.8498
11.8607
11.8634
11.8598
11.857
11.8616
11.8741
11.8848
11.8859
11.8803
11.8753
11.8788
11.8911
11.9047
1
1
1
1
1
1
1
1
1
1
1
1
1
1
1
1
1
1
1
1
1
1
1
1
1
1
1
1
1
1
1
1
1
1
1
1
1
1
1
1
1
1
1
1
1
1
1
1
1
1
1
1
1
1
1
1
1
1
1
1
1
1
1
1
1
1
1
1
1
1
1
1
1
1
1
1
1
1
1
1
1
1
1
1
1
1
1
1
1
1
1
1
1
1
1
1
1
1
1
4.76584
10.0721
10.3038
10.3364
10.3744
10.412
10.449
10.4831
10.5131
10.5408
10.5686
10.5971
10.6256
10.6535
10.6802
10.7052
10.7302
10.755
10.7792
10.8026
10.8268
10.8509
10.8777
10.9114
10.9458
10.9741
10.9956
11.0105
11.0189
11.0311
11.0544
11.0839
11.1134
11.1404
11.1654
11.1863
11.2058
11.2249
11.2425
11.2586
11.2737
11.291
11.3139
11.3428
11.373
11.3978
11.4124
11.4171
11.4173
11.4215
11.4381
11.469
11.5071
11.5421
11.5656
11.5756
11.577
11.5778
11.5852
11.6023
11.6247
11.6457
11.6611
11.6712
11.6792
11.6901
11.7062
11.7241
11.7374
11.7438
11.7487
11.7571
11.7687
11.7813
11.7915
11.7973
11.8016
11.8081
11.8192
11.8328
11.8433
11.8464
11.8442
11.8436
11.8504
11.8633
11.8722
11.8709
11.8637
11.8584
11.8631
11.8769
11.891
1
1
1
1
1
1
1
1
1
1
1
1
1
1
1
1
1
1
1
1
1
1
1
1
1
1
1
1
1
1
1
1
1
1
1
1
1
1
1
1
1
1
1
1
1
1
1
1
1
1
1
1
1
1
1
1
1
1
1
1
1
1
1
1
1
1
1
1
1
1
1
1
1
1
1
1
1
1
1
1
1
1
1
1
1
1
1
1
1
1
1
1
1
1
1
1
1
1
1
4.22653
9.93565
10.2998
10.3335
10.3716
10.4077
10.4433
10.477
10.5067
10.5338
10.5613
10.5896
10.6182
10.646
10.673
10.6987
10.7229
10.7461
10.7689
10.7915
10.8155
10.8424
10.8742
10.9109
10.9441
10.9673
10.981
10.9893
10.9954
11.0149
11.0498
11.0868
11.1191
11.1428
11.1566
11.1645
11.1771
11.1996
11.2278
11.2547
11.2745
11.2893
11.3048
11.3256
11.3519
11.3785
11.3981
11.4069
11.4084
11.4118
11.427
11.4574
11.4966
11.5323
11.5542
11.5605
11.5584
11.5584
11.5693
11.592
11.6171
11.636
11.6468
11.6529
11.6603
11.6746
11.6953
11.7146
11.7252
11.7277
11.7304
11.7385
11.752
11.7673
11.7792
11.7849
11.7882
11.7933
11.8027
11.8147
11.8247
11.8287
11.8282
11.83
11.8391
11.8513
11.8578
11.8546
11.8461
11.841
11.8469
11.8619
11.8762
1
1
1
1
1
1
1
1
1
1
1
1
1
1
1
1
1
1
1
1
1
1
1
1
1
1
1
1
1
1
1
1
1
1
1
1
1
1
1
1
1
1
1
1
1
1
1
1
1
1
1
1
1
1
1
1
1
1
1
1
1
1
1
1
1
1
1
1
1
1
1
1
1
1
1
1
1
1
1
1
1
1
1
1
1
1
1
1
1
1
1
1
1
1
1
1
1
1
1
3.69055
9.75593
10.3019
10.3345
10.3702
10.4039
10.4376
10.4702
10.4995
10.5265
10.5538
10.5822
10.6104
10.6373
10.6637
10.6902
10.7154
10.7391
10.7618
10.7841
10.8072
10.8346
10.8676
10.9035
10.9341
10.9542
10.9651
10.9725
10.9818
11.008
11.0483
11.0881
11.1193
11.1359
11.1378
11.1381
11.1506
11.1791
11.2158
11.2502
11.2736
11.2862
11.2948
11.3077
11.3295
11.3575
11.3826
11.3971
11.4016
11.4048
11.4174
11.4449
11.4824
11.5178
11.539
11.544
11.5406
11.5411
11.5552
11.5814
11.6073
11.6237
11.6308
11.6346
11.6421
11.6596
11.6839
11.7034
11.711
11.7107
11.7115
11.7194
11.7347
11.7529
11.7664
11.772
11.774
11.7775
11.7852
11.7954
11.8052
11.8105
11.8121
11.8163
11.8269
11.8379
11.8416
11.8367
11.8273
11.823
11.8302
11.8462
11.8605
1
1
1
1
1
1
1
1
1
1
1
1
1
1
1
1
1
1
1
1
1
1
1
1
1
1
1
1
1
1
1
1
1
1
1
1
1
1
1
1
1
1
1
1
1
1
1
1
1
1
1
1
1
1
1
1
1
1
1
1
1
1
1
1
1
1
1
1
1
1
1
1
1
1
1
1
1
1
1
1
1
1
1
1
1
1
1
1
1
1
1
1
1
1
1
1
1
1
1
3.16596
9.52585
10.3085
10.3365
10.3693
10.4009
10.4321
10.463
10.4926
10.5203
10.548
10.5763
10.6038
10.6294
10.6541
10.6807
10.7076
10.733
10.757
10.78
10.8024
10.827
10.8575
10.8901
10.9183
10.9386
10.9522
10.9637
10.9785
11.0073
11.0458
11.0807
11.1058
11.1163
11.1145
11.1177
11.136
11.1686
11.2074
11.2435
11.2677
11.2776
11.2813
11.2901
11.3103
11.3392
11.367
11.3854
11.3931
11.3972
11.4082
11.4323
11.4664
11.4996
11.5202
11.5256
11.5235
11.5264
11.5434
11.5706
11.595
11.6081
11.6127
11.6159
11.625
11.6454
11.6719
11.6903
11.6946
11.6924
11.692
11.7
11.7174
11.7382
11.753
11.7581
11.7585
11.7605
11.7668
11.7756
11.7851
11.792
11.7959
11.8023
11.8135
11.8229
11.8239
11.8173
11.8076
11.8043
11.813
11.8298
11.8438
1
1
1
1
1
1
1
1
1
1
1
1
1
1
1
1
1
1
1
1
1
1
1
1
1
1
1
1
1
1
1
1
1
1
1
1
1
1
1
1
1
1
1
1
1
1
1
1
1
1
1
1
1
1
1
1
1
1
1
1
1
1
1
1
1
1
1
1
1
1
1
1
1
1
1
1
1
1
1
1
1
1
1
1
1
1
1
1
1
1
1
1
1
1
1
1
1
1
1
2.67273
9.2328
10.3231
10.343
10.3717
10.3987
10.4263
10.4553
10.4852
10.514
10.543
10.5723
10.5995
10.6231
10.6446
10.6692
10.6969
10.7249
10.7524
10.7778
10.7998
10.8209
10.8459
10.8736
10.8999
10.9232
10.9433
10.9612
10.9807
11.0073
11.0363
11.0609
11.0796
11.0911
11.0965
11.1093
11.1334
11.166
11.2017
11.2328
11.2514
11.258
11.2628
11.275
11.2975
11.3259
11.3525
11.3711
11.3803
11.3858
11.3974
11.4198
11.45
11.4793
11.4985
11.5055
11.5069
11.5141
11.5334
11.5592
11.5795
11.589
11.5926
11.5969
11.6091
11.6326
11.6591
11.675
11.6761
11.6724
11.6718
11.6808
11.7005
11.7232
11.7383
11.7425
11.7415
11.7423
11.7477
11.7554
11.7648
11.7731
11.7793
11.7877
11.7986
11.8059
11.8046
11.7964
11.7869
11.7853
11.7953
11.8126
11.8262
1
1
1
1
1
1
1
1
1
1
1
1
1
1
1
1
1
1
1
1
1
1
1
1
1
1
1
1
1
1
1
1
1
1
1
1
1
1
1
1
1
1
1
1
1
1
1
1
1
1
1
1
1
1
1
1
1
1
1
1
1
1
1
1
1
1
1
1
1
1
1
1
1
1
1
1
1
1
1
1
1
1
1
1
1
1
1
1
1
1
1
1
1
1
1
1
1
1
1
2.22523
8.8652
10.3352
10.3449
10.3727
10.3966
10.4215
10.447
10.4748
10.5042
10.5357
10.5676
10.5965
10.6188
10.6365
10.6569
10.684
10.7141
10.7456
10.7749
10.7983
10.8166
10.8358
10.8577
10.8815
10.9087
10.9362
10.9602
10.982
11.0027
11.0199
11.0349
11.0512
11.0693
11.0869
11.1102
11.1373
11.166
11.1929
11.2133
11.225
11.2335
11.2465
11.2663
11.2911
11.3171
11.3394
11.3545
11.3626
11.3701
11.3847
11.4076
11.4341
11.4584
11.4752
11.4839
11.4903
11.503
11.524
11.5464
11.5612
11.5673
11.5709
11.5776
11.5943
11.6205
11.6451
11.6573
11.6554
11.6507
11.6511
11.6622
11.6842
11.7075
11.7218
11.7248
11.7229
11.7232
11.7282
11.7354
11.7446
11.754
11.7621
11.7722
11.7822
11.7869
11.7835
11.7742
11.7655
11.7659
11.7772
11.7945
11.8072
1
1
1
1
1
1
1
1
1
1
1
1
1
1
1
1
1
1
1
1
1
1
1
1
1
1
1
1
1
1
1
1
1
1
1
1
1
1
1
1
1
1
1
1
1
1
1
1
1
1
1
1
1
1
1
1
1
1
1
1
1
1
1
1
1
1
1
1
1
1
1
1
1
1
1
1
1
1
1
1
1
1
1
1
1
1
1
1
1
1
1
1
1
1
1
1
1
1
1
1.8299
8.43348
10.3623
10.3498
10.3723
10.3922
10.415
10.4383
10.464
10.4935
10.5259
10.56
10.591
10.6139
10.6295
10.6458
10.6709
10.7019
10.7358
10.7685
10.7942
10.8114
10.826
10.8431
10.8647
10.8948
10.9277
10.9562
10.9782
10.993
11.0018
11.0117
11.0291
11.0542
11.0824
11.1129
11.1397
11.1608
11.1767
11.1877
11.1974
11.2127
11.2357
11.2619
11.2875
11.3093
11.3248
11.3337
11.3402
11.3518
11.3716
11.3954
11.4182
11.4373
11.4516
11.4619
11.4739
11.4918
11.5136
11.5317
11.5407
11.5437
11.5481
11.5585
11.5803
11.6083
11.6296
11.637
11.6328
11.6278
11.6302
11.6444
11.6682
11.6907
11.7029
11.7047
11.7025
11.7032
11.7085
11.7155
11.7244
11.7344
11.744
11.7552
11.764
11.7659
11.7606
11.7508
11.7437
11.7462
11.7584
11.7754
11.7868
1
1
1
1
1
1
1
1
1
1
1
1
1
1
1
1
1
1
1
1
1
1
1
1
1
1
1
1
1
1
1
1
1
1
1
1
1
1
1
1
1
1
1
1
1
1
1
1
1
1
1
1
1
1
1
1
1
1
1
1
1
1
1
1
1
1
1
1
1
1
1
1
1
1
1
1
1
1
1
1
1
1
1
1
1
1
1
1
1
1
1
1
1
1
1
1
1
1
1
1.49806
7.92371
10.3673
10.3455
10.3611
10.3799
10.4022
10.4245
10.4493
10.4796
10.514
10.5505
10.5835
10.6075
10.6229