/*--------------------------------*- C++ -*----------------------------------*\
  =========                 |
  \\      /  F ield         | OpenFOAM: The Open Source CFD Toolbox
   \\    /   O peration     | Website:  https://openfoam.org
    \\  /    A nd           | Version:  7
     \\/     M anipulation  |
\*---------------------------------------------------------------------------*/
FoamFile
{
    version     2.0;
    format      ascii;
    class       volScalarField;
    location    "3.5";
    object      rho;
}
// * * * * * * * * * * * * * * * * * * * * * * * * * * * * * * * * * * * * * //

dimensions      [1 -3 0 0 0 0 0];

internalField   nonuniform List<scalar> 
258048
(
1.40001
1.40001
1.40001
1.40001
1.40001
1.40001
1.40001
1.40001
1.40001
1.40001
1.40001
1.40001
1.40001
1.40001
1.40001
1.40001
1.40001
1.40001
1.40001
1.40001
1.40001
1.40001
1.40001
1.40001
1.40001
1.40001
1.40001
1.40001
1.40001
1.40001
1.40001
1.40001
1.40001
1.40001
1.40001
1.40001
1.40001
1.40001
1.40001
1.40001
1.40001
1.40001
1.40001
1.40001
1.40001
1.40001
1.40001
1.40001
1.40001
1.40001
1.40001
1.40001
1.40001
1.40001
1.40001
1.40001
1.40001
1.40001
1.40001
1.40001
1.40001
1.40001
1.40001
1.40001
1.40001
1.40001
1.40001
1.40001
1.40001
1.40001
1.40001
1.40001
1.40001
1.40001
1.40001
1.40001
1.40001
1.40001
1.40001
1.40001
1.40001
1.40001
1.40001
1.40001
1.40001
1.40001
1.40001
1.40001
1.40001
1.40001
1.40001
1.40001
1.40001
1.40001
1.40001
1.40001
1.40001
1.40001
2.72842
5.22365
5.40068
5.40339
5.41946
5.44006
5.46013
5.47682
5.4892
5.4979
5.50477
5.51129
5.51818
5.52623
5.53867
5.55609
5.57314
5.58789
5.59748
5.60099
5.60072
5.60141
5.61134
5.63174
5.65251
5.66881
5.67583
5.67444
5.6712
5.67394
5.68962
5.7105
5.72909
5.73955
5.73938
5.73452
5.73118
5.73662
5.75233
5.77306
5.79265
5.80441
5.80712
5.80575
5.80645
5.81352
5.82618
5.83952
5.84883
5.85232
5.85241
5.8539
5.86096
5.87265
5.8839
5.88998
5.89141
5.89244
5.89552
5.90413
5.91737
5.92895
5.93405
5.93225
5.92934
5.93049
5.93757
5.9494
5.96084
5.96663
5.96566
5.96315
5.96426
5.97202
5.98421
5.99404
5.99737
5.99537
5.99244
5.99186
5.9957
6.00267
6.00714
6.00671
6.00383
6.00181
6.00273
6.00661
6.01084
6.0123
6.00942
6.00316
5.99691
5.99519
1.40001
1.40001
1.40001
1.40001
1.40001
1.40001
1.40001
1.40001
1.40001
1.40001
1.40001
1.40001
1.40001
1.40001
1.40001
1.40001
1.40001
1.40001
1.40001
1.40001
1.40001
1.40001
1.40001
1.40001
1.40001
1.40001
1.40001
1.40001
1.40001
1.40001
1.40001
1.40001
1.40001
1.40001
1.40001
1.40001
1.40001
1.40001
1.40001
1.40001
1.40001
1.40001
1.40001
1.40001
1.40001
1.40001
1.40001
1.40001
1.40001
1.40001
1.40001
1.40001
1.40001
1.40001
1.40001
1.40001
1.40001
1.40001
1.40001
1.40001
1.40001
1.40001
1.40001
1.40001
1.40001
1.40001
1.40001
1.40001
1.40001
1.40001
1.40001
1.40001
1.40001
1.40001
1.40001
1.40001
1.40001
1.40001
1.40001
1.40001
1.40001
1.40001
1.40001
1.40001
1.40001
1.40001
1.40001
1.40001
1.40001
1.40001
1.40001
1.40001
1.40001
1.40001
1.40001
1.40001
1.40001
1.40001
2.71943
5.2093
5.40736
5.41041
5.42517
5.44218
5.45881
5.47275
5.48392
5.49358
5.50336
5.51343
5.52268
5.5306
5.53949
5.55332
5.56916
5.58399
5.59551
5.60167
5.60373
5.6056
5.61337
5.63067
5.65031
5.66631
5.67416
5.6744
5.67291
5.67638
5.69041
5.70958
5.72718
5.73746
5.73867
5.73569
5.73394
5.73973
5.75445
5.77328
5.79094
5.80177
5.80487
5.80457
5.80657
5.81451
5.82708
5.83975
5.84828
5.85146
5.85168
5.85353
5.86098
5.87287
5.88411
5.89009
5.89141
5.89238
5.89547
5.90412
5.91741
5.92894
5.93386
5.9319
5.92891
5.93013
5.93736
5.94942
5.96111
5.96699
5.96589
5.96327
5.96411
5.97144
5.98331
5.99323
5.99691
5.99534
5.99285
5.99242
5.99584
6.00208
6.0062
6.00592
6.00361
6.00207
6.00307
6.00663
6.01034
6.01147
6.00868
6.0028
5.99699
5.99534
1.40001
1.40001
1.40001
1.40001
1.40001
1.40001
1.40001
1.40001
1.40001
1.40001
1.40001
1.40001
1.40001
1.40001
1.40001
1.40001
1.40001
1.40001
1.40001
1.40001
1.40001
1.40001
1.40001
1.40001
1.40001
1.40001
1.40001
1.40001
1.40001
1.40001
1.40001
1.40001
1.40001
1.40001
1.40001
1.40001
1.40001
1.40001
1.40001
1.40001
1.40001
1.40001
1.40001
1.40001
1.40001
1.40001
1.40001
1.40001
1.40001
1.40001
1.40001
1.40001
1.40001
1.40001
1.40001
1.40001
1.40001
1.40001
1.40001
1.40001
1.40001
1.40001
1.40001
1.40001
1.40001
1.40001
1.40001
1.40001
1.40001
1.40001
1.40001
1.40001
1.40001
1.40001
1.40001
1.40001
1.40001
1.40001
1.40001
1.40001
1.40001
1.40001
1.40001
1.40001
1.40001
1.40001
1.40001
1.40001
1.40001
1.40001
1.40001
1.40001
1.40001
1.40001
1.40001
1.40001
1.40001
1.40001
2.70289
5.1947
5.41052
5.41723
5.43186
5.44532
5.45825
5.46881
5.47793
5.48823
5.50106
5.51506
5.52762
5.53655
5.54287
5.55213
5.56472
5.57808
5.59034
5.59955
5.60566
5.61055
5.61781
5.63132
5.64755
5.66135
5.66938
5.67199
5.67402
5.68001
5.6929
5.70937
5.72436
5.73348
5.73599
5.73523
5.73644
5.74416
5.75826
5.77466
5.7894
5.79831
5.80129
5.80224
5.80613
5.81565
5.82855
5.84044
5.84778
5.85029
5.85049
5.85277
5.86082
5.87301
5.88416
5.88984
5.89092
5.89178
5.89496
5.90383
5.91729
5.92874
5.93332
5.93106
5.92785
5.92907
5.93652
5.94909
5.96129
5.96735
5.9661
5.96339
5.96396
5.97072
5.9821
5.99199
5.99598
5.99492
5.99304
5.993
5.99619
6.00155
6.00499
6.00462
6.00293
6.00212
6.00347
6.00686
6.00986
6.01035
6.00747
6.00212
5.99712
5.99587
1.40001
1.40001
1.40001
1.40001
1.40001
1.40001
1.40001
1.40001
1.40001
1.40001
1.40001
1.40001
1.40001
1.40001
1.40001
1.40001
1.40001
1.40001
1.40001
1.40001
1.40001
1.40001
1.40001
1.40001
1.40001
1.40001
1.40001
1.40001
1.40001
1.40001
1.40001
1.40001
1.40001
1.40001
1.40001
1.40001
1.40001
1.40001
1.40001
1.40001
1.40001
1.40001
1.40001
1.40001
1.40001
1.40001
1.40001
1.40001
1.40001
1.40001
1.40001
1.40001
1.40001
1.40001
1.40001
1.40001
1.40001
1.40001
1.40001
1.40001
1.40001
1.40001
1.40001
1.40001
1.40001
1.40001
1.40001
1.40001
1.40001
1.40001
1.40001
1.40001
1.40001
1.40001
1.40001
1.40001
1.40001
1.40001
1.40001
1.40001
1.40001
1.40001
1.40001
1.40001
1.40001
1.40001
1.40001
1.40001
1.40001
1.40001
1.40001
1.40001
1.40001
1.40001
1.40001
1.40001
1.40001
1.40001
2.67913
5.17741
5.41359
5.42139
5.43632
5.44733
5.45667
5.4642
5.47151
5.48327
5.50022
5.51845
5.53364
5.54269
5.54622
5.5502
5.55898
5.57136
5.5854
5.59901
5.60975
5.61681
5.62254
5.63163
5.64378
5.65538
5.66383
5.67005
5.67682
5.68522
5.69639
5.70919
5.72077
5.72849
5.73241
5.73514
5.74016
5.74976
5.76284
5.77627
5.78747
5.79416
5.79695
5.79946
5.80584
5.81709
5.83022
5.84087
5.84672
5.84867
5.84912
5.8522
5.86099
5.87335
5.88411
5.88922
5.89006
5.89099
5.89455
5.90395
5.91765
5.92874
5.93254
5.92975
5.92622
5.92754
5.93556
5.94911
5.96198
5.96806
5.96632
5.96322
5.96335
5.96955
5.98061
5.99061
5.99492
5.9944
5.99314
5.99335
5.9963
6.00089
6.00371
6.00323
6.00208
6.00208
6.00373
6.00686
6.00909
6.00885
6.00579
6.00109
5.99708
5.99638
1.40001
1.40001
1.40001
1.40001
1.40001
1.40001
1.40001
1.40001
1.40001
1.40001
1.40001
1.40001
1.40001
1.40001
1.40001
1.40001
1.40001
1.40001
1.40001
1.40001
1.40001
1.40001
1.40001
1.40001
1.40001
1.40001
1.40001
1.40001
1.40001
1.40001
1.40001
1.40001
1.40001
1.40001
1.40001
1.40001
1.40001
1.40001
1.40001
1.40001
1.40001
1.40001
1.40001
1.40001
1.40001
1.40001
1.40001
1.40001
1.40001
1.40001
1.40001
1.40001
1.40001
1.40001
1.40001
1.40001
1.40001
1.40001
1.40001
1.40001
1.40001
1.40001
1.40001
1.40001
1.40001
1.40001
1.40001
1.40001
1.40001
1.40001
1.40001
1.40001
1.40001
1.40001
1.40001
1.40001
1.40001
1.40001
1.40001
1.40001
1.40001
1.40001
1.40001
1.40001
1.40001
1.40001
1.40001
1.40001
1.40001
1.40001
1.40001
1.40001
1.40001
1.40001
1.40001
1.40001
1.40001
1.40001
2.6481
5.15501
5.41804
5.42446
5.43801
5.44666
5.45397
5.46043
5.46771
5.48082
5.50056
5.52102
5.53771
5.54728
5.54924
5.549
5.55382
5.56503
5.58138
5.59942
5.61416
5.6228
5.62692
5.63177
5.63945
5.64881
5.65832
5.66918
5.68059
5.69082
5.7003
5.70927
5.71704
5.72306
5.72818
5.73445
5.74354
5.75509
5.76732
5.77795
5.78585
5.79028
5.79266
5.79661
5.80553
5.81835
5.83136
5.84075
5.84519
5.84678
5.84775
5.85198
5.86159
5.87377
5.8837
5.88794
5.88855
5.88983
5.89415
5.9044
5.91837
5.9288
5.93144
5.92791
5.92395
5.92547
5.93441
5.94937
5.96297
5.96886
5.96641
5.96264
5.9622
5.968
5.97906
5.98932
5.99387
5.99368
5.99275
5.9931
5.996
6.00015
6.00259
6.00208
6.00118
6.00166
6.00366
6.00652
6.00803
6.00715
6.00391
5.99992
5.99693
5.99687
1.40001
1.40001
1.40001
1.40001
1.40001
1.40001
1.40001
1.40001
1.40001
1.40001
1.40001
1.40001
1.40001
1.40001
1.40001
1.40001
1.40001
1.40001
1.40001
1.40001
1.40001
1.40001
1.40001
1.40001
1.40001
1.40001
1.40001
1.40001
1.40001
1.40001
1.40001
1.40001
1.40001
1.40001
1.40001
1.40001
1.40001
1.40001
1.40001
1.40001
1.40001
1.40001
1.40001
1.40001
1.40001
1.40001
1.40001
1.40001
1.40001
1.40001
1.40001
1.40001
1.40001
1.40001
1.40001
1.40001
1.40001
1.40001
1.40001
1.40001
1.40001
1.40001
1.40001
1.40001
1.40001
1.40001
1.40001
1.40001
1.40001
1.40001
1.40001
1.40001
1.40001
1.40001
1.40001
1.40001
1.40001
1.40001
1.40001
1.40001
1.40001
1.40001
1.40001
1.40001
1.40001
1.40001
1.40001
1.40001
1.40001
1.40001
1.40001
1.40001
1.40001
1.40001
1.40001
1.40001
1.40001
1.40001
2.60714
5.12954
5.42286
5.42778
5.43946
5.4452
5.45084
5.45687
5.4657
5.48038
5.50194
5.52374
5.54107
5.55034
5.55061
5.54744
5.54938
5.56002
5.57939
5.60139
5.61868
5.62749
5.62932
5.63039
5.63435
5.64217
5.65442
5.67033
5.68511
5.69589
5.70314
5.70861
5.71325
5.71813
5.72466
5.73423
5.74652
5.75936
5.77055
5.77872
5.78402
5.78678
5.78906
5.79489
5.80586
5.81917
5.83123
5.83914
5.84266
5.84445
5.84669
5.85256
5.86289
5.87425
5.88264
5.88579
5.8864
5.8883
5.89381
5.90523
5.91923
5.92871
5.92991
5.92561
5.92133
5.92318
5.93332
5.94985
5.96407
5.9695
5.96633
5.96163
5.96055
5.96619
5.97755
5.98821
5.99297
5.99277
5.99179
5.9922
5.99517
5.99934
6.00173
6.00123
6.00038
6.00093
6.00308
6.00568
6.00665
6.00528
6.00191
5.99861
5.99656
5.9972
1.40001
1.40001
1.40001
1.40001
1.40001
1.40001
1.40001
1.40001
1.40001
1.40001
1.40001
1.40001
1.40001
1.40001
1.40001
1.40001
1.40001
1.40001
1.40001
1.40001
1.40001
1.40001
1.40001
1.40001
1.40001
1.40001
1.40001
1.40001
1.40001
1.40001
1.40001
1.40001
1.40001
1.40001
1.40001
1.40001
1.40001
1.40001
1.40001
1.40001
1.40001
1.40001
1.40001
1.40001
1.40001
1.40001
1.40001
1.40001
1.40001
1.40001
1.40001
1.40001
1.40001
1.40001
1.40001
1.40001
1.40001
1.40001
1.40001
1.40001
1.40001
1.40001
1.40001
1.40001
1.40001
1.40001
1.40001
1.40001
1.40001
1.40001
1.40001
1.40001
1.40001
1.40001
1.40001
1.40001
1.40001
1.40001
1.40001
1.40001
1.40001
1.40001
1.40001
1.40001
1.40001
1.40001
1.40001
1.40001
1.40001
1.40001
1.40001
1.40001
1.40001
1.40001
1.40001
1.40001
1.40001
1.40001
2.5522
5.10626
5.42592
5.43052
5.44079
5.44436
5.4483
5.45364
5.46419
5.48111
5.50383
5.52581
5.54272
5.55082
5.54903
5.54403
5.54534
5.5577
5.58019
5.60443
5.62206
5.6297
5.62872
5.62659
5.62879
5.63716
5.65347
5.67339
5.68956
5.69942
5.70417
5.70661
5.70908
5.71349
5.72242
5.73507
5.74939
5.76232
5.77193
5.77778
5.78132
5.78358
5.78714
5.79522
5.80729
5.81974
5.82983
5.83585
5.83908
5.84175
5.84617
5.85419
5.86491
5.87476
5.88083
5.88284
5.88388
5.88667
5.89384
5.9064
5.91987
5.92804
5.92786
5.92298
5.91877
5.92115
5.9326
5.95033
5.96469
5.96958
5.96583
5.96035
5.9587
5.96424
5.97598
5.98706
5.99198
5.99165
5.99045
5.99078
5.9939
5.99844
6.0011
6.00061
5.99968
6.00011
6.00208
6.00437
6.00494
6.00323
5.99981
5.99717
5.99596
5.99735
1.40001
1.40001
1.40001
1.40001
1.40001
1.40001
1.40001
1.40001
1.40001
1.40001
1.40001
1.40001
1.40001
1.40001
1.40001
1.40001
1.40001
1.40001
1.40001
1.40001
1.40001
1.40001
1.40001
1.40001
1.40001
1.40001
1.40001
1.40001
1.40001
1.40001
1.40001
1.40001
1.40001
1.40001
1.40001
1.40001
1.40001
1.40001
1.40001
1.40001
1.40001
1.40001
1.40001
1.40001
1.40001
1.40001
1.40001
1.40001
1.40001
1.40001
1.40001
1.40001
1.40001
1.40001
1.40001
1.40001
1.40001
1.40001
1.40001
1.40001
1.40001
1.40001
1.40001
1.40001
1.40001
1.40001
1.40001
1.40001
1.40001
1.40001
1.40001
1.40001
1.40001
1.40001
1.40001
1.40001
1.40001
1.40001
1.40001
1.40001
1.40001
1.40001
1.40001
1.40001
1.40001
1.40001
1.40001
1.40001
1.40001
1.40001
1.40001
1.40001
1.40001
1.40001
1.40001
1.40001
1.40001
1.40001
2.48725
5.08628
5.4269
5.43226
5.44139
5.44382
5.44693
5.4521
5.46333
5.48218
5.50498
5.52642
5.5421
5.54845
5.54535
5.54065
5.54327
5.55856
5.5832
5.60752
5.6238
5.62915
5.6256
5.62122
5.62376
5.6351
5.65574
5.67769
5.69348
5.70096
5.7026
5.70262
5.70405
5.70975
5.72233
5.73754
5.75221
5.76359
5.77075
5.77438
5.7775
5.7811
5.78744
5.79784
5.80982
5.82004
5.82688
5.83078
5.83413
5.83878
5.84645
5.85684
5.86734
5.87499
5.87832
5.87929
5.88107
5.88538
5.89451
5.90768
5.91984
5.92615
5.92491
5.9201
5.91667
5.92003
5.9325
5.95047
5.96435
5.96869
5.96476
5.95907
5.9572
5.9625
5.97433
5.98559
5.99064
5.99025
5.98887
5.98912
5.9924
5.99742
6.00044
5.99996
5.9989
5.99911
6.0007
6.00266
6.00292
6.00097
5.99763
5.99558
5.99516
5.99732
1.40001
1.40001
1.40001
1.40001
1.40001
1.40001
1.40001
1.40001
1.40001
1.40001
1.40001
1.40001
1.40001
1.40001
1.40001
1.40001
1.40001
1.40001
1.40001
1.40001
1.40001
1.40001
1.40001
1.40001
1.40001
1.40001
1.40001
1.40001
1.40001
1.40001
1.40001
1.40001
1.40001
1.40001
1.40001
1.40001
1.40001
1.40001
1.40001
1.40001
1.40001
1.40001
1.40001
1.40001
1.40001
1.40001
1.40001
1.40001
1.40001
1.40001
1.40001
1.40001
1.40001
1.40001
1.40001
1.40001
1.40001
1.40001
1.40001
1.40001
1.40001
1.40001
1.40001
1.40001
1.40001
1.40001
1.40001
1.40001
1.40001
1.40001
1.40001
1.40001
1.40001
1.40001
1.40001
1.40001
1.40001
1.40001
1.40001
1.40001
1.40001
1.40001
1.40001
1.40001
1.40001
1.40001
1.40001
1.40001
1.40001
1.40001
1.40001
1.40001
1.40001
1.40001
1.40001
1.40001
1.40001
1.40001
2.41729
5.0624
5.42389
5.43208
5.44055
5.44314
5.4466
5.45243
5.46434
5.48322
5.50523
5.52557
5.53943
5.54404
5.54119
5.53883
5.54399
5.56168
5.58651
5.6095
5.62408
5.6265
5.62098
5.61622
5.62087
5.6361
5.65984
5.68194
5.69597
5.70061
5.69914
5.69731
5.69864
5.70747
5.7243
5.74141
5.75508
5.76361
5.76732
5.76903
5.77254
5.77911
5.78952
5.8023
5.81327
5.81995
5.82266
5.82449
5.82825
5.83596
5.84779
5.86023
5.86965
5.87433
5.87502
5.87543
5.87816
5.88477
5.89594
5.90887
5.91886
5.92284
5.92088
5.91707
5.91555
5.92024
5.93319
5.95021
5.96287
5.9665
5.96291
5.95788
5.95637
5.96129
5.97254
5.98349
5.98856
5.98833
5.98714
5.98753
5.99094
5.9962
5.99946
5.99903
5.99794
5.99793
5.99914
6.0007
6.00065
5.99851
5.99536
5.99384
5.9942
5.99711
1.40001
1.40001
1.40001
1.40001
1.40001
1.40001
1.40001
1.40001
1.40001
1.40001
1.40001
1.40001
1.40001
1.40001
1.40001
1.40001
1.40001
1.40001
1.40001
1.40001
1.40001
1.40001
1.40001
1.40001
1.40001
1.40001
1.40001
1.40001
1.40001
1.40001
1.40001
1.40001
1.40001
1.40001
1.40001
1.40001
1.40001
1.40001
1.40001
1.40001
1.40001
1.40001
1.40001
1.40001
1.40001
1.40001
1.40001
1.40001
1.40001
1.40001
1.40001
1.40001
1.40001
1.40001
1.40001
1.40001
1.40001
1.40001
1.40001
1.40001
1.40001
1.40001
1.40001
1.40001
1.40001
1.40001
1.40001
1.40001
1.40001
1.40001
1.40001
1.40001
1.40001
1.40001
1.40001
1.40001
1.40001
1.40001
1.40001
1.40001
1.40001
1.40001
1.40001
1.40001
1.40001
1.40001
1.40001
1.40001
1.40001
1.40001
1.40001
1.40001
1.40001
1.40001
1.40001
1.40001
1.40001
1.40001
2.34414
5.03229
5.42052
5.42995
5.43854
5.44299
5.44839
5.45564
5.46748
5.4848
5.50483
5.52291
5.53491
5.53906
5.53768
5.53836
5.54681
5.56569
5.58929
5.6102
5.62265
5.62234
5.6164
5.61345
5.62074
5.63955
5.66396
5.68475
5.69674
5.69821
5.69446
5.69152
5.69378
5.70688
5.72759
5.74582
5.75789
5.76256
5.76239
5.7624
5.76688
5.7776
5.79297
5.8077
5.81666
5.81865
5.81742
5.81759
5.82231
5.83401
5.84985
5.86372
5.87119
5.87235
5.87111
5.87138
5.87566
5.88516
5.89803
5.9099
5.91688
5.91816
5.916
5.91389
5.91515
5.92188
5.93486
5.94978
5.96012
5.96283
5.96012
5.95667
5.95618
5.96084
5.97077
5.98065
5.98552
5.98583
5.98536
5.98624
5.98973
5.99485
5.99801
5.9976
5.9966
5.99656
5.9975
5.99862
5.99819
5.99586
5.99298
5.99201
5.99312
5.99659
1.40001
1.40001
1.40001
1.40001
1.40001
1.40001
1.40001
1.40001
1.40001
1.40001
1.40001
1.40001
1.40001
1.40001
1.40001
1.40001
1.40001
1.40001
1.40001
1.40001
1.40001
1.40001
1.40001
1.40001
1.40001
1.40001
1.40001
1.40001
1.40001
1.40001
1.40001
1.40001
1.40001
1.40001
1.40001
1.40001
1.40001
1.40001
1.40001
1.40001
1.40001
1.40001
1.40001
1.40001
1.40001
1.40001
1.40001
1.40001
1.40001
1.40001
1.40001
1.40001
1.40001
1.40001
1.40001
1.40001
1.40001
1.40001
1.40001
1.40001
1.40001
1.40001
1.40001
1.40001
1.40001
1.40001
1.40001
1.40001
1.40001
1.40001
1.40001
1.40001
1.40001
1.40001
1.40001
1.40001
1.40001
1.40001
1.40001
1.40001
1.40001
1.40001
1.40001
1.40001
1.40001
1.40001
1.40001
1.40001
1.40001
1.40001
1.40001
1.40001
1.40001
1.40001
1.40001
1.40001
1.40001
1.40001
2.26337
4.99751
5.41605
5.42572
5.43516
5.44241
5.45096
5.4603
5.47194
5.48707
5.50431
5.51981
5.53033
5.53463
5.53542
5.53962
5.55097
5.56946
5.59079
5.60899
5.61878
5.6175
5.61291
5.61298
5.62321
5.64373
5.66691
5.68555
5.69554
5.69439
5.68915
5.68627
5.69067
5.70832
5.73137
5.74967
5.75971
5.76017
5.75681
5.75535
5.76174
5.77743
5.7971
5.81236
5.81859
5.81617
5.81176
5.8109
5.81742
5.8334
5.85236
5.86618
5.87153
5.86957
5.8667
5.8673
5.87383
5.88642
5.90031
5.91028
5.91408
5.91265
5.91064
5.91075
5.91499
5.92458
5.93726
5.94918
5.95637
5.95791
5.95654
5.95526
5.95627
5.961
5.96914
5.97716
5.98154
5.98272
5.98351
5.98525
5.98887
5.99348
5.99614
5.99567
5.99488
5.99502
5.99582
5.9965
5.99564
5.99307
5.99051
5.9901
5.99185
5.99565
1.40001
1.40001
1.40001
1.40001
1.40001
1.40001
1.40001
1.40001
1.40001
1.40001
1.40001
1.40001
1.40001
1.40001
1.40001
1.40001
1.40001
1.40001
1.40001
1.40001
1.40001
1.40001
1.40001
1.40001
1.40001
1.40001
1.40001
1.40001
1.40001
1.40001
1.40001
1.40001
1.40001
1.40001
1.40001
1.40001
1.40001
1.40001
1.40001
1.40001
1.40001
1.40001
1.40001
1.40001
1.40001
1.40001
1.40001
1.40001
1.40001
1.40001
1.40001
1.40001
1.40001
1.40001
1.40001
1.40001
1.40001
1.40001
1.40001
1.40001
1.40001
1.40001
1.40001
1.40001
1.40001
1.40001
1.40001
1.40001
1.40001
1.40001
1.40001
1.40001
1.40001
1.40001
1.40001
1.40001
1.40001
1.40001
1.40001
1.40001
1.40001
1.40001
1.40001
1.40001
1.40001
1.40001
1.40001
1.40001
1.40001
1.40001
1.40001
1.40001
1.40001
1.40001
1.40001
1.40001
1.40001
1.40001
2.17745
4.95569
5.411
5.42158
5.43228
5.44228
5.45364
5.46485
5.47634
5.48917
5.50313
5.51612
5.52575
5.53065
5.53414
5.54199
5.55519
5.5726
5.59131
5.60637
5.61371
5.61274
5.61061
5.61428
5.6274
5.64747
5.6684
5.68449
5.69193
5.68925
5.68384
5.68265
5.69039
5.71145
5.73472
5.75154
5.75925
5.7566
5.75049
5.74881
5.75866
5.77891
5.80069
5.81504
5.81831
5.81289
5.80624
5.80534
5.81458
5.83397
5.85423
5.86718
5.87002
5.86616
5.86228
5.86362
5.87266
5.88773
5.90202
5.90992
5.91037
5.90734
5.90525
5.90735
5.91512
5.92741
5.93964
5.94834
5.95214
5.95243
5.95232
5.95341
5.95645
5.96166
5.96796
5.97354
5.97701
5.97912
5.98142
5.98438
5.98822
5.99204
5.99385
5.9932
5.99266
5.99307
5.99388
5.9942
5.99293
5.99018
5.98796
5.98806
5.9903
5.99414
1.40001
1.40001
1.40001
1.40001
1.40001
1.40001
1.40001
1.40001
1.40001
1.40001
1.40001
1.40001
1.40001
1.40001
1.40001
1.40001
1.40001
1.40001
1.40001
1.40001
1.40001
1.40001
1.40001
1.40001
1.40001
1.40001
1.40001
1.40001
1.40001
1.40001
1.40001
1.40001
1.40001
1.40001
1.40001
1.40001
1.40001
1.40001
1.40001
1.40001
1.40001
1.40001
1.40001
1.40001
1.40001
1.40001
1.40001
1.40001
1.40001
1.40001
1.40001
1.40001
1.40001
1.40001
1.40001
1.40001
1.40001
1.40001
1.40001
1.40001
1.40001
1.40001
1.40001
1.40001
1.40001
1.40001
1.40001
1.40001
1.40001
1.40001
1.40001
1.40001
1.40001
1.40001
1.40001
1.40001
1.40001
1.40001
1.40001
1.40001
1.40001
1.40001
1.40001
1.40001
1.40001
1.40001
1.40001
1.40001
1.40001
1.40001
1.40001
1.40001
1.40001
1.40001
1.40001
1.40001
1.40001
1.40001
2.0886
4.90539
5.40758
5.41811
5.43008
5.44201
5.45506
5.46757
5.47918
5.49038
5.50169
5.51261
5.52169
5.52755
5.53371
5.5444
5.55854
5.5746
5.59069
5.60285
5.60823
5.60775
5.609
5.61687
5.63176
5.65042
5.66866
5.68162
5.68638
5.68312
5.679
5.68105
5.69322
5.71531
5.73689
5.75131
5.75592
5.75124
5.74388
5.74476
5.75899
5.78153
5.80255
5.81508
5.81551
5.80832
5.80111
5.80172
5.81394
5.83484
5.85458
5.86622
5.86691
5.86229
5.85843
5.86081
5.87187
5.88827
5.9022
5.90843
5.90665
5.90264
5.90067
5.90451
5.91551
5.92965
5.94123
5.94712
5.94786
5.94716
5.94784
5.95099
5.95628
5.96211
5.96687
5.97006
5.97226
5.97489
5.97875
5.9833
5.98753
5.99049
5.99131
5.99044
5.99011
5.99071
5.99155
5.99168
5.99017
5.98744
5.9856
5.986
5.98845
5.99205
1.40001
1.40001
1.40001
1.40001
1.40001
1.40001
1.40001
1.40001
1.40001
1.40001
1.40001
1.40001
1.40001
1.40001
1.40001
1.40001
1.40001
1.40001
1.40001
1.40001
1.40001
1.40001
1.40001
1.40001
1.40001
1.40001
1.40001
1.40001
1.40001
1.40001
1.40001
1.40001
1.40001
1.40001
1.40001
1.40001
1.40001
1.40001
1.40001
1.40001
1.40001
1.40001
1.40001
1.40001
1.40001
1.40001
1.40001
1.40001
1.40001
1.40001
1.40001
1.40001
1.40001
1.40001
1.40001
1.40001
1.40001
1.40001
1.40001
1.40001
1.40001
1.40001
1.40001
1.40001
1.40001
1.40001
1.40001
1.40001
1.40001
1.40001
1.40001
1.40001
1.40001
1.40001
1.40001
1.40001
1.40001
1.40001
1.40001
1.40001
1.40001
1.40001
1.40001
1.40001
1.40001
1.40001
1.40001
1.40001
1.40001
1.40001
1.40001
1.40001
1.40001
1.40001
1.40001
1.40001
1.40001
1.40001
1.99868
4.84604
5.40612
5.41556
5.42859
5.44125
5.45503
5.46837
5.48025
5.4906
5.50014
5.50949
5.5181
5.52497
5.53344
5.54584
5.56036
5.57539
5.58909
5.59884
5.60297
5.6035
5.60848
5.61987
5.63538
5.6524
5.66773
5.67722
5.6793
5.67653
5.67569
5.68216
5.69836
5.71933
5.73771
5.74851
5.74946
5.74422
5.73863
5.74451
5.76256
5.78462
5.8027
5.81226
5.8103
5.80289
5.79733
5.80071
5.81517
5.8356
5.85354
5.86321
5.86278
5.85853
5.85582
5.85946
5.87136
5.88755
5.90048
5.90534
5.90282
5.89878
5.89745
5.90272
5.91552
5.93039
5.94104
5.94493
5.94383
5.9425
5.94372
5.94847
5.9556
5.96196
5.96551
5.96677
5.96778
5.97057
5.97572
5.98177
5.98652
5.98876
5.98872
5.98758
5.98723
5.98788
5.98874
5.98888
5.98743
5.98494
5.98348
5.98393
5.98625
5.98941
1.40001
1.40001
1.40001
1.40001
1.40001
1.40001
1.40001
1.40001
1.40001
1.40001
1.40001
1.40001
1.40001
1.40001
1.40001
1.40001
1.40001
1.40001
1.40001
1.40001
1.40001
1.40001
1.40001
1.40001
1.40001
1.40001
1.40001
1.40001
1.40001
1.40001
1.40001
1.40001
1.40001
1.40001
1.40001
1.40001
1.40001
1.40001
1.40001
1.40001
1.40001
1.40001
1.40001
1.40001
1.40001
1.40001
1.40001
1.40001
1.40001
1.40001
1.40001
1.40001
1.40001
1.40001
1.40001
1.40001
1.40001
1.40001
1.40001
1.40001
1.40001
1.40001
1.40001
1.40001
1.40001
1.40001
1.40001
1.40001
1.40001
1.40001
1.40001
1.40001
1.40001
1.40001
1.40001
1.40001
1.40001
1.40001
1.40001
1.40001
1.40001
1.40001
1.40001
1.40001
1.40001
1.40001
1.40001
1.40001
1.40001
1.40001
1.40001
1.40001
1.40001
1.40001
1.40001
1.40001
1.40001
1.40001
1.90853
4.77727
5.4067
5.41488
5.42794
5.4402
5.45389
5.46751
5.47979
5.48994
5.49847
5.50666
5.51481
5.52248
5.53251
5.54596
5.5607
5.57488
5.5867
5.59473
5.59826
5.60062
5.60904
5.62245
5.63774
5.65301
5.6653
5.67166
5.67169
5.67021
5.67388
5.68568
5.70373
5.72249
5.73684
5.74297
5.74087
5.73633
5.73523
5.74669
5.76717
5.78733
5.80176
5.8072
5.80339
5.79708
5.79487
5.80141
5.81738
5.83604
5.85105
5.85832
5.85763
5.85479
5.85407
5.85922
5.87132
5.88603
5.89705
5.90096
5.89883
5.8958
5.8959
5.90228
5.91515
5.92934
5.93889
5.94156
5.93997
5.93857
5.94033
5.94614
5.95426
5.96082
5.96354
5.96357
5.96371
5.96639
5.97236
5.97953
5.98483
5.98682
5.98624
5.98472
5.98413
5.98466
5.98546
5.98578
5.98472
5.98268
5.9815
5.98176
5.98365
5.98623
1.40001
1.40001
1.40001
1.40001
1.40001
1.40001
1.40001
1.40001
1.40001
1.40001
1.40001
1.40001
1.40001
1.40001
1.40001
1.40001
1.40001
1.40001
1.40001
1.40001
1.40001
1.40001
1.40001
1.40001
1.40001
1.40001
1.40001
1.40001
1.40001
1.40001
1.40001
1.40001
1.40001
1.40001
1.40001
1.40001
1.40001
1.40001
1.40001
1.40001
1.40001
1.40001
1.40001
1.40001
1.40001
1.40001
1.40001
1.40001
1.40001
1.40001
1.40001
1.40001
1.40001
1.40001
1.40001
1.40001
1.40001
1.40001
1.40001
1.40001
1.40001
1.40001
1.40001
1.40001
1.40001
1.40001
1.40001
1.40001
1.40001
1.40001
1.40001
1.40001
1.40001
1.40001
1.40001
1.40001
1.40001
1.40001
1.40001
1.40001
1.40001
1.40001
1.40001
1.40001
1.40001
1.40001
1.40001
1.40001
1.40001
1.40001
1.40001
1.40001
1.40001
1.40001
1.40001
1.40001
1.40001
1.40001
1.81824
4.69565
5.40913
5.41509
5.42726
5.43868
5.45214
5.46601
5.47851
5.4884
5.4964
5.50403
5.51195
5.52015
5.53092
5.54495
5.55968
5.57292
5.58328
5.59033
5.5943
5.59929
5.61022
5.62428
5.63874
5.6521
5.66156
5.66533
5.66421
5.66595
5.67475
5.69018
5.70792
5.72397
5.73373
5.73521
5.73199
5.72912
5.73384
5.75106
5.77175
5.78906
5.79918
5.8004
5.79587
5.79146
5.79323
5.80366
5.82017
5.83624
5.84749
5.85211
5.85176
5.85076
5.8526
5.85997
5.87185
5.88397
5.89231
5.89531
5.89443
5.89337
5.89552
5.90308
5.91505
5.92704
5.93477
5.93698
5.93586
5.93522
5.93772
5.94415
5.95234
5.95851
5.96078
5.96037
5.96014
5.96262
5.96879
5.9765
5.98237
5.98456
5.98384
5.98198
5.98095
5.98118
5.98186
5.98245
5.98199
5.98053
5.97945
5.97933
5.98065
5.98259
1.40001
1.40001
1.40001
1.40001
1.40001
1.40001
1.40001
1.40001
1.40001
1.40001
1.40001
1.40001
1.40001
1.40001
1.40001
1.40001
1.40001
1.40001
1.40001
1.40001
1.40001
1.40001
1.40001
1.40001
1.40001
1.40001
1.40001
1.40001
1.40001
1.40001
1.40001
1.40001
1.40001
1.40001
1.40001
1.40001
1.40001
1.40001
1.40001
1.40001
1.40001
1.40001
1.40001
1.40001
1.40001
1.40001
1.40001
1.40001
1.40001
1.40001
1.40001
1.40001
1.40001
1.40001
1.40001
1.40001
1.40001
1.40001
1.40001
1.40001
1.40001
1.40001
1.40001
1.40001
1.40001
1.40001
1.40001
1.40001
1.40001
1.40001
1.40001
1.40001
1.40001
1.40001
1.40001
1.40001
1.40001
1.40001
1.40001
1.40001
1.40001
1.40001
1.40001
1.40001
1.40001
1.40001
1.40001
1.40001
1.40001
1.40001
1.40001
1.40001
1.40001
1.40001
1.40001
1.40001
1.40001
1.40001
1.7323
4.60017
5.4111
5.41489
5.42621
5.437
5.45033
5.46439
5.4769
5.48673
5.49467
5.50204
5.50979
5.51858
5.52996
5.54376
5.55744
5.56925
5.5786
5.5858
5.59166
5.59955
5.61185
5.62543
5.63836
5.6491
5.65605
5.65848
5.65875
5.66508
5.67787
5.69386
5.70989
5.72259
5.72812
5.72668
5.7236
5.72434
5.7353
5.7555
5.77479
5.78893
5.79505
5.79306
5.78851
5.78654
5.79223
5.80623
5.82253
5.8359
5.84346
5.84551
5.84517
5.84607
5.85105
5.86088
5.87247
5.88206
5.8875
5.88916
5.88944
5.89102
5.89587
5.90453
5.91486
5.92392
5.92951
5.93142
5.93146
5.93231
5.93591
5.94253
5.94997
5.95529
5.95729
5.95705
5.95697
5.95931
5.96517
5.97283
5.97916
5.98191
5.98137
5.97926
5.97771
5.97744
5.97795
5.97894
5.9792
5.97824
5.97712
5.97657
5.97727
5.9787
1.40001
1.40001
1.40001
1.40001
1.40001
1.40001
1.40001
1.40001
1.40001
1.40001
1.40001
1.40001
1.40001
1.40001
1.40001
1.40001
1.40001
1.40001
1.40001
1.40001
1.40001
1.40001
1.40001
1.40001
1.40001
1.40001
1.40001
1.40001
1.40001
1.40001
1.40001
1.40001
1.40001
1.40001
1.40001
1.40001
1.40001
1.40001
1.40001
1.40001
1.40001
1.40001
1.40001
1.40001
1.40001
1.40001
1.40001
1.40001
1.40001
1.40001
1.40001
1.40001
1.40001
1.40001
1.40001
1.40001
1.40001
1.40001
1.40001
1.40001
1.40001
1.40001
1.40001
1.40001
1.40001
1.40001
1.40001
1.40001
1.40001
1.40001
1.40001
1.40001
1.40001
1.40001
1.40001
1.40001
1.40001
1.40001
1.40001
1.40001
1.40001
1.40001
1.40001
1.40001
1.40001
1.40001
1.40001
1.40001
1.40001
1.40001
1.40001
1.40001
1.40001
1.40001
1.40001
1.40001
1.40001
1.40001
1.65131
4.49201
5.41285
5.41616
5.42625
5.4362
5.44895
5.46254
5.47459
5.48423
5.49226
5.5
5.50847
5.51823
5.53
5.54292
5.55485
5.56504
5.57386
5.58213
5.59056
5.60084
5.61326
5.62551
5.63593
5.64394
5.64964
5.65278
5.65689
5.66744
5.68147
5.69576
5.70911
5.71791
5.72013
5.71827
5.71753
5.72313
5.73871
5.75836
5.77563
5.7866
5.7894
5.78618
5.78211
5.78275
5.79219
5.80799
5.82356
5.83462
5.83925
5.83925
5.83856
5.84081
5.84888
5.86108
5.87278
5.88044
5.88329
5.88342
5.88407
5.88794
5.89566
5.90535
5.91422
5.92038
5.92367
5.92526
5.92676
5.92963
5.9345
5.94091
5.94714
5.95135
5.9532
5.95354
5.95401
5.95629
5.96155
5.96879
5.97535
5.97874
5.97862
5.9764
5.97431
5.97354
5.97398
5.97547
5.97636
5.97563
5.97436
5.97337
5.97357
5.97481
1.40001
1.40001
1.40001
1.40001
1.40001
1.40001
1.40001
1.40001
1.40001
1.40001
1.40001
1.40001
1.40001
1.40001
1.40001
1.40001
1.40001
1.40001
1.40001
1.40001
1.40001
1.40001
1.40001
1.40001
1.40001
1.40001
1.40001
1.40001
1.40001
1.40001
1.40001
1.40001
1.40001
1.40001
1.40001
1.40001
1.40001
1.40001
1.40001
1.40001
1.40001
1.40001
1.40001
1.40001
1.40001
1.40001
1.40001
1.40001
1.40001
1.40001
1.40001
1.40001
1.40001
1.40001
1.40001
1.40001
1.40001
1.40001
1.40001
1.40001
1.40001
1.40001
1.40001
1.40001
1.40001
1.40001
1.40001
1.40001
1.40001
1.40001
1.40001
1.40001
1.40001
1.40001
1.40001
1.40001
1.40001
1.40001
1.40001
1.40001
1.40001
1.40001
1.40001
1.40001
1.40001
1.40001
1.40001
1.40001
1.40001
1.40001
1.40001
1.40001
1.40001
1.40001
1.40001
1.40001
1.40001
1.40001
1.57707
4.37742
5.41374
5.41468
5.42502
5.43529
5.44731
5.45973
5.47081
5.48025
5.48889
5.49788
5.50794
5.51903
5.53082
5.54224
5.55212
5.56095
5.56983
5.5796
5.59026
5.60181
5.61352
5.62357
5.63124
5.63765
5.64392
5.65003
5.65868
5.6715
5.68418
5.69549
5.70504
5.71036
5.71125
5.71136
5.71532
5.72576
5.742
5.7591
5.77346
5.78142
5.78252
5.77983
5.77744
5.78093
5.79265
5.80847
5.82298
5.83206
5.83469
5.8335
5.83255
5.83583
5.84618
5.86029
5.87241
5.8788
5.87978
5.87869
5.87913
5.88426
5.89418
5.90496
5.91292
5.91689
5.91822
5.91925
5.92195
5.92685
5.93291
5.93896
5.94396
5.94712
5.94882
5.94985
5.95103
5.95327
5.95785
5.96454
5.97109
5.97502
5.97541
5.97315
5.97066
5.96956
5.97011
5.9721
5.97336
5.97257
5.97095
5.96962
5.96964
5.97106
1.40001
1.40001
1.40001
1.40001
1.40001
1.40001
1.40001
1.40001
1.40001
1.40001
1.40001
1.40001
1.40001
1.40001
1.40001
1.40001
1.40001
1.40001
1.40001
1.40001
1.40001
1.40001
1.40001
1.40001
1.40001
1.40001
1.40001
1.40001
1.40001
1.40001
1.40001
1.40001
1.40001
1.40001
1.40001
1.40001
1.40001
1.40001
1.40001