/*--------------------------------*- C++ -*----------------------------------*\
  =========                 |
  \\      /  F ield         | OpenFOAM: The Open Source CFD Toolbox
   \\    /   O peration     | Website:  https://openfoam.org
    \\  /    A nd           | Version:  7
     \\/     M anipulation  |
\*---------------------------------------------------------------------------*/
FoamFile
{
    version     2.0;
    format      ascii;
    class       volScalarField;
    location    "0.2";
    object      p;
}
// * * * * * * * * * * * * * * * * * * * * * * * * * * * * * * * * * * * * * //

dimensions      [1 -1 -2 0 0 0 0];

internalField   nonuniform List<scalar> 
258048
(
1
1
1
1
1
1
1
1
1
1
1
1
1
1
1
1
1
1
1
1
1
1
1
1
1
1
1
1
1
1
1
1
1
1
1
1
1
1
1
1
1
1
1
1
1
1
1
1
1
1
1
1
1
1
1
1
1
1
1
1
1
1
1
1
1
1
1
1
1
1
1
1
1
1
1
1
1
1
1
1
1
1
1
1
1
1
1
1
1
1
1
1
1
1
1
1
1
1
1
1
1
1
1
1
1
1
1
1
1
1
1
1
1
1
1
1
1
1
1
1
1
1
1
1
1
1
1
1
1
1
1
1
1
1
1
1
1
1
1
1
1
1
1
2.52252
10.4667
13.4783
13.7006
13.6822
13.4577
13.2949
13.3605
13.4824
13.5863
13.5933
13.4833
13.3858
13.4071
13.4818
13.5376
13.5241
13.4414
13.3863
13.4148
13.4526
13.4461
13.3973
13.3662
13.3683
13.3809
13.3811
13.3603
13.3334
13.3184
13.3168
13.3225
13.3231
13.3117
13.2945
13.2784
13.2678
13.266
13.2738
13.2778
13.2738
13.2642
13.2539
13.2487
13.2491
13.2493
13.2465
13.2407
13.2416
1
1
1
1
1
1
1
1
1
1
1
1
1
1
1
1
1
1
1
1
1
1
1
1
1
1
1
1
1
1
1
1
1
1
1
1
1
1
1
1
1
1
1
1
1
1
1
1
1
1
1
1
1
1
1
1
1
1
1
1
1
1
1
1
1
1
1
1
1
1
1
1
1
1
1
1
1
1
1
1
1
1
1
1
1
1
1
1
1
1
1
1
1
1
1
1
1
1
1
1
1
1
1
1
1
1
1
1
1
1
1
1
1
1
1
1
1
1
1
1
1
1
1
1
1
1
1
1
1
1
1
1
1
1
1
1
1
1
1
1
1
1
1
2.48983
10.4249
13.4798
13.7086
13.6807
13.4516
13.2947
13.3638
13.4853
13.5884
13.5929
13.4813
13.3864
13.4096
13.4848
13.5392
13.5232
13.4388
13.3851
13.4171
13.454
13.4447
13.3949
13.3656
13.3688
13.3815
13.3812
13.3601
13.3335
13.3189
13.3173
13.3225
13.3225
13.3109
13.2941
13.2784
13.268
13.2662
13.274
13.2778
13.2736
13.2638
13.2533
13.2481
13.2485
13.2488
13.2461
13.2403
13.2412
1
1
1
1
1
1
1
1
1
1
1
1
1
1
1
1
1
1
1
1
1
1
1
1
1
1
1
1
1
1
1
1
1
1
1
1
1
1
1
1
1
1
1
1
1
1
1
1
1
1
1
1
1
1
1
1
1
1
1
1
1
1
1
1
1
1
1
1
1
1
1
1
1
1
1
1
1
1
1
1
1
1
1
1
1
1
1
1
1
1
1
1
1
1
1
1
1
1
1
1
1
1
1
1
1
1
1
1
1
1
1
1
1
1
1
1
1
1
1
1
1
1
1
1
1
1
1
1
1
1
1
1
1
1
1
1
1
1
1
1
1
1
1
2.42184
10.3488
13.4909
13.7129
13.674
13.439
13.2912
13.3657
13.4869
13.5894
13.5895
13.4749
13.3842
13.4113
13.4871
13.5393
13.5196
13.4332
13.3828
13.4193
13.4558
13.4416
13.3901
13.3638
13.3688
13.3817
13.3803
13.3585
13.3324
13.3185
13.317
13.3215
13.3208
13.309
13.2926
13.2775
13.2675
13.2659
13.2737
13.2774
13.2729
13.2629
13.2522
13.247
13.2476
13.2482
13.2457
13.24
13.2412
1
1
1
1
1
1
1
1
1
1
1
1
1
1
1
1
1
1
1
1
1
1
1
1
1
1
1
1
1
1
1
1
1
1
1
1
1
1
1
1
1
1
1
1
1
1
1
1
1
1
1
1
1
1
1
1
1
1
1
1
1
1
1
1
1
1
1
1
1
1
1
1
1
1
1
1
1
1
1
1
1
1
1
1
1
1
1
1
1
1
1
1
1
1
1
1
1
1
1
1
1
1
1
1
1
1
1
1
1
1
1
1
1
1
1
1
1
1
1
1
1
1
1
1
1
1
1
1
1
1
1
1
1
1
1
1
1
1
1
1
1
1
1
2.32289
10.2364
13.5129
13.7227
13.6643
13.4202
13.2877
13.3707
13.4917
13.5916
13.585
13.4651
13.3799
13.4133
13.4897
13.5384
13.5138
13.4256
13.3812
13.4217
13.4575
13.4376
13.3851
13.3628
13.3702
13.3831
13.38
13.357
13.3317
13.3188
13.3173
13.3208
13.3192
13.3073
13.2914
13.2769
13.2672
13.2656
13.2734
13.277
13.2723
13.2618
13.2508
13.2453
13.2461
13.247
13.245
13.2393
13.2409
1
1
1
1
1
1
1
1
1
1
1
1
1
1
1
1
1
1
1
1
1
1
1
1
1
1
1
1
1
1
1
1
1
1
1
1
1
1
1
1
1
1
1
1
1
1
1
1
1
1
1
1
1
1
1
1
1
1
1
1
1
1
1
1
1
1
1
1
1
1
1
1
1
1
1
1
1
1
1
1
1
1
1
1
1
1
1
1
1
1
1
1
1
1
1
1
1
1
1
1
1
1
1
1
1
1
1
1
1
1
1
1
1
1
1
1
1
1
1
1
1
1
1
1
1
1
1
1
1
1
1
1
1
1
1
1
1
1
1
1
1
1
1
2.19791
10.0865
13.5437
13.7356
13.648
13.3935
13.2842
13.3774
13.4987
13.5949
13.5786
13.45
13.3731
13.4166
13.4941
13.5379
13.5069
13.4176
13.3811
13.4247
13.4589
13.4326
13.3794
13.3616
13.3713
13.3835
13.3779
13.3536
13.3298
13.3183
13.3168
13.3193
13.3169
13.3051
13.2899
13.276
13.2663
13.2646
13.2724
13.2762
13.2714
13.2606
13.249
13.2433
13.2441
13.2453
13.2438
13.2385
13.2406
1
1
1
1
1
1
1
1
1
1
1
1
1
1
1
1
1
1
1
1
1
1
1
1
1
1
1
1
1
1
1
1
1
1
1
1
1
1
1
1
1
1
1
1
1
1
1
1
1
1
1
1
1
1
1
1
1
1
1
1
1
1
1
1
1
1
1
1
1
1
1
1
1
1
1
1
1
1
1
1
1
1
1
1
1
1
1
1
1
1
1
1
1
1
1
1
1
1
1
1
1
1
1
1
1
1
1
1
1
1
1
1
1
1
1
1
1
1
1
1
1
1
1
1
1
1
1
1
1
1
1
1
1
1
1
1
1
1
1
1
1
1
1
2.04933
9.89819
13.5836
13.7486
13.622
13.3618
13.284
13.3869
13.5086
13.5988
13.5693
13.4311
13.367
13.4221
13.5001
13.5373
13.4981
13.4079
13.3805
13.4267
13.4583
13.4263
13.374
13.3614
13.3732
13.3838
13.375
13.3499
13.328
13.3178
13.3162
13.3173
13.3143
13.3029
13.2886
13.275
13.265
13.2628
13.2707
13.275
13.2704
13.2592
13.2471
13.2409
13.2416
13.2431
13.2421
13.2373
13.2401
1
1
1
1
1
1
1
1
1
1
1
1
1
1
1
1
1
1
1
1
1
1
1
1
1
1
1
1
1
1
1
1
1
1
1
1
1
1
1
1
1
1
1
1
1
1
1
1
1
1
1
1
1
1
1
1
1
1
1
1
1
1
1
1
1
1
1
1
1
1
1
1
1
1
1
1
1
1
1
1
1
1
1
1
1
1
1
1
1
1
1
1
1
1
1
1
1
1
1
1
1
1
1
1
1
1
1
1
1
1
1
1
1
1
1
1
1
1
1
1
1
1
1
1
1
1
1
1
1
1
1
1
1
1
1
1
1
1
1
1
1
1
1
1.88157
9.67135
13.6305
13.757
13.5849
13.3282
13.288
13.3993
13.5203
13.6018
13.5555
13.4091
13.363
13.4298
13.5068
13.5356
13.4864
13.397
13.3797
13.4284
13.4565
13.4199
13.3697
13.3617
13.375
13.3828
13.3705
13.3455
13.326
13.3168
13.3147
13.3144
13.3111
13.3005
13.2872
13.2737
13.263
13.2601
13.2681
13.2732
13.2691
13.2577
13.2451
13.2383
13.2388
13.2403
13.2398
13.2356
13.2392
1
1
1
1
1
1
1
1
1
1
1
1
1
1
1
1
1
1
1
1
1
1
1
1
1
1
1
1
1
1
1
1
1
1
1
1
1
1
1
1
1
1
1
1
1
1
1
1
1
1
1
1
1
1
1
1
1
1
1
1
1
1
1
1
1
1
1
1
1
1
1
1
1
1
1
1
1
1
1
1
1
1
1
1
1
1
1
1
1
1
1
1
1
1
1
1
1
1
1
1
1
1
1
1
1
1
1
1
1
1
1
1
1
1
1
1
1
1
1
1
1
1
1
1
1
1
1
1
1
1
1
1
1
1
1
1
1
1
1
1
1
1
1
1.70244
9.40508
13.6811
13.7577
13.5374
13.2966
13.2958
13.4152
13.5337
13.6027
13.5358
13.3861
13.3627
13.4392
13.5135
13.5318
13.4716
13.3855
13.3792
13.43
13.4538
13.4133
13.3659
13.3618
13.3758
13.3804
13.3648
13.3412
13.3242
13.3155
13.3126
13.3108
13.3075
13.2982
13.2858
13.2721
13.2603
13.2565
13.2647
13.271
13.2674
13.256
13.2429
13.2356
13.2356
13.237
13.237
13.2333
13.2377
1
1
1
1
1
1
1
1
1
1
1
1
1
1
1
1
1
1
1
1
1
1
1
1
1
1
1
1
1
1
1
1
1
1
1
1
1
1
1
1
1
1
1
1
1
1
1
1
1
1
1
1
1
1
1
1
1
1
1
1
1
1
1
1
1
1
1
1
1
1
1
1
1
1
1
1
1
1
1
1
1
1
1
1
1
1
1
1
1
1
1
1
1
1
1
1
1
1
1
1
1
1
1
1
1
1
1
1
1
1
1
1
1
1
1
1
1
1
1
1
1
1
1
1
1
1
1
1
1
1
1
1
1
1
1
1
1
1
1
1
1
1
1
1.52215
9.09908
13.7301
13.7471
13.4799
13.2703
13.3074
13.434
13.5486
13.6006
13.5097
13.3641
13.3663
13.4499
13.5192
13.525
13.4537
13.3743
13.3798
13.4322
13.451
13.4067
13.3619
13.361
13.3751
13.3766
13.3588
13.3372
13.3224
13.3137
13.3094
13.3062
13.3035
13.2958
13.2841
13.27
13.2568
13.2521
13.2607
13.2681
13.2654
13.254
13.2406
13.2327
13.2322
13.2333
13.2336
13.2304
13.2356
1
1
1
1
1
1
1
1
1
1
1
1
1
1
1
1
1
1
1
1
1
1
1
1
1
1
1
1
1
1
1
1
1
1
1
1
1
1
1
1
1
1
1
1
1
1
1
1
1
1
1
1
1
1
1
1
1
1
1
1
1
1
1
1
1
1
1
1
1
1
1
1
1
1
1
1
1
1
1
1
1
1
1
1
1
1
1
1
1
1
1
1
1
1
1
1
1
1
1
1
1
1
1
1
1
1
1
1
1
1
1
1
1
1
1
1
1
1
1
1
1
1
1
1
1
1
1
1
1
1
1
1
1
1
1
1
1
1
1
1
1
1
1
1.35144
8.75231
13.7694
13.7197
13.4147
13.2522
13.3227
13.456
13.564
13.5933
13.4771
13.3456
13.3737
13.4614
13.5233
13.5148
13.4332
13.3649
13.3822
13.435
13.4477
13.3995
13.3574
13.3594
13.3728
13.372
13.3529
13.3334
13.3205
13.3113
13.3053
13.3009
13.2992
13.2931
13.2819
13.2671
13.2527
13.2471
13.256
13.2647
13.2628
13.2516
13.238
13.2296
13.2284
13.2291
13.2296
13.227
13.233
1
1
1
1
1
1
1
1
1
1
1
1
1
1
1
1
1
1
1
1
1
1
1
1
1
1
1
1
1
1
1
1
1
1
1
1
1
1
1
1
1
1
1
1
1
1
1
1
1
1
1
1
1
1
1
1
1
1
1
1
1
1
1
1
1
1
1
1
1
1
1
1
1
1
1
1
1
1
1
1
1
1
1
1
1
1
1
1
1
1
1
1
1
1
1
1
1
1
1
1
1
1
1
1
1
1
1
1
1
1
1
1
1
1
1
1
1
1
1
1
1
1
1
1
1
1
1
1
1
1
1
1
1
1
1
1
1
1
1
1
1
1
1
1.20064
8.36147
13.7884
13.6718
13.3453
13.2474
13.3418
13.4798
13.5782
13.5791
13.4383
13.3332
13.3845
13.4732
13.5252
13.5004
13.4112
13.358
13.3864
13.4378
13.443
13.391
13.3523
13.3572
13.37
13.3668
13.3468
13.3294
13.318
13.3082
13.3005
13.2952
13.2945
13.29
13.2792
13.2637
13.2481
13.2417
13.2509
13.2607
13.2596
13.2487
13.2351
13.2261
13.2242
13.2242
13.2249
13.2231
13.23
1
1
1
1
1
1
1
1
1
1
1
1
1
1
1
1
1
1
1
1
1
1
1
1
1
1
1
1
1
1
1
1
1
1
1
1
1
1
1
1
1
1
1
1
1
1
1
1
1
1
1
1
1
1
1
1
1
1
1
1
1
1
1
1
1
1
1
1
1
1
1
1
1
1
1
1
1
1
1
1
1
1
1
1
1
1
1
1
1
1
1
1
1
1
1
1
1
1
1
1
1
1
1
1
1
1
1
1
1
1
1
1
1
1
1
1
1
1
1
1
1
1
1
1
1
1
1
1
1
1
1
1
1
1
1
1
1
1
1
1
1
1
1
1.08029
7.9221
13.772
13.5983
13.2812
13.2549
13.3678
13.5049
13.5894
13.5546
13.395
13.3292
13.3982
13.4846
13.5242
13.4818
13.3891
13.3542
13.3918
13.4396
13.436
13.381
13.347
13.3551
13.367
13.3612
13.3405
13.3251
13.315
13.3046
13.2952
13.289
13.2894
13.2862
13.2758
13.2599
13.2433
13.2361
13.2451
13.256
13.2557
13.2454
13.2318
13.2222
13.2192
13.2185
13.2196
13.2188
13.2269
1
1
1
1
1
1
1
1
1
1
1
1
1
1
1
1
1
1
1
1
1
1
1
1
1
1
1
1
1
1
1
1
1
1
1
1
1
1
1
1
1
1
1
1
1
1
1
1
1
1
1
1
1
1
1
1
1
1
1
1
1
1
1
1
1
1
1
1
1
1
1
1
1
1
1
1
1
1
1
1
1
1
1
1
1
1
1
1
1
1
1
1
1
1
1
1
1
1
1
1
1
1
1
1
1
1
1
1
1
1
1
1
1
1
1
1
1
1
1
1
1
1
1
1
1
1
1
1
1
1
1
1
1
1
1
1
1
1
1
1
1
1
1
1.00725
7.42247
13.7054
13.5023
13.2327
13.2707
13.4024
13.5321
13.5949
13.5159
13.3519
13.3345
13.4144
13.4951
13.519
13.4587
13.3683
13.3536
13.398
13.4398
13.4264
13.3699
13.3422
13.3535
13.3638
13.3544
13.3334
13.3204
13.3115
13.3006
13.2895
13.2823
13.2835
13.2818
13.272
13.2559
13.2385
13.2301
13.2387
13.2504
13.2512
13.2416
13.2282
13.2178
13.2135
13.2118
13.2136
13.2143
13.2239
1
1
1
1
1
1
1
1
1
1
1
1
1
1
1
1
1
1
1
1
1
1
1
1
1
1
1
1
1
1
1
1
1
1
1
1
1
1
1
1
1
1
1
1
1
1
1
1
1
1
1
1
1
1
1
1
1
1
1
1
1
1
1
1
1
1
1
1
1
1
1
1
1
1
1
1
1
1
1
1
1
1
1
1
1
1
1
1
1
1
1
1
1
1
1
1
1
1
1
1
1
1
1
1
1
1
1
1
1
1
1
1
1
1
1
1
1
1
1
1
1
1
1
1
1
1
1
1
1
1
1
1
1
1
1
1
1
1
1
1
1
1
1
1
6.84738
13.5857
13.3955
13.2057
13.2942
13.4441
13.5596
13.5905
13.4617
13.3176
13.3477
13.4324
13.5037
13.5083
13.4309
13.3503
13.3563
13.4045
13.4378
13.4141
13.3583
13.3383
13.3525
13.3599
13.3462
13.3254
13.3156
13.3082
13.2962
13.283
13.2748
13.2768
13.2769
13.268
13.2519
13.2334
13.2237
13.2314
13.244
13.2461
13.2375
13.2242
13.2129
13.2068
13.204
13.2067
13.2095
13.2211
1
1
1
1
1
1
1
1
1
1
1
1
1
1
1
1
1
1
1
1
1
1
1
1
1
1
1
1
1
1
1
1
1
1
1
1
1
1
1
1
1
1
1
1
1
1
1
1
1
1
1
1
1
1
1
1
1
1
1
1
1
1
1
1
1
1
1
1
1
1
1
1
1
1
1
1
1
1
1
1
1
1
1
1
1
1
1
1
1
1
1
1
1
1
1
1
1
1
1
1
1
1
1
1
1
1
1
1
1
1
1
1
1
1
1
1
1
1
1
1
1
1
1
1
1
1
1
1
1
1
1
1
1
1
1
1
1
1
1
1
1
1
1
1
6.22663
13.4026
13.295
13.2054
13.3257
13.4879
13.5837
13.5688
13.3959
13.2997
13.366
13.4512
13.5092
13.4902
13.3995
13.3375
13.3623
13.411
13.4333
13.3993
13.3468
13.3353
13.3515
13.3549
13.3367
13.317
13.3112
13.305
13.2913
13.2754
13.2662
13.2695
13.2718
13.2639
13.2477
13.228
13.2167
13.2232
13.2368
13.2404
13.2332
13.22
13.2074
13.1991
13.1949
13.1988
13.2045
13.2183
1
1
1
1
1
1
1
1
1
1
1
1
1
1
1
1
1
1
1
1
1
1
1
1
1
1
1
1
1
1
1
1
1
1
1
1
1
1
1
1
1
1
1
1
1
1
1
1
1
1
1
1
1
1
1
1
1
1
1
1
1
1
1
1
1
1
1
1
1
1
1
1
1
1
1
1
1
1
1
1
1
1
1
1
1
1
1
1
1
1
1
1
1
1
1
1
1
1
1
1
1
1
1
1
1
1
1
1
1
1
1
1
1
1
1
1
1
1
1
1
1
1
1
1
1
1
1
1
1
1
1
1
1
1
1
1
1
1
1
1
1
1
1
1
5.56033
13.1293
13.232
13.2185
13.3712
13.5311
13.5991
13.5215
13.3286
13.3007
13.3885
13.4696
13.5101
13.463
13.3669
13.3318
13.3714
13.4168
13.4254
13.3819
13.3354
13.3331
13.3502
13.3485
13.3261
13.3091
13.3071
13.3016
13.2854
13.2665
13.2568
13.2619
13.2666
13.2596
13.2431
13.2221
13.2091
13.2143
13.2289
13.2343
13.2285
13.2155
13.2014
13.1904
13.1846
13.1901
13.1992
13.2153
1
1
1
1
1
1
1
1
1
1
1
1
1
1
1
1
1
1
1
1
1
1
1
1
1
1
1
1
1
1
1
1
1
1
1
1
1
1
1
1
1
1
1
1
1
1
1
1
1
1
1
1
1
1
1
1
1
1
1
1
1
1
1
1
1
1
1
1
1
1
1
1
1
1
1
1
1
1
1
1
1
1
1
1
1
1
1
1
1
1
1
1
1
1
1
1
1
1
1
1
1
1
1
1
1
1
1
1
1
1
1
1
1
1
1
1
1
1
1
1
1
1
1
1
1
1
1
1
1
1
1
1
1
1
1
1
1
1
1
1
1
1
1
1
4.88613
12.7276
13.2031
13.2394
13.435
13.5726
13.5958
13.4447
13.2785
13.3164
13.4139
13.4861
13.5033
13.4259
13.3379
13.3341
13.383
13.4208
13.4132
13.3619
13.3247
13.3317
13.3486
13.3408
13.3149
13.3016
13.3033
13.2975
13.2784
13.2567
13.2473
13.2542
13.2611
13.2548
13.2376
13.2156
13.201
13.2049
13.2204
13.2277
13.2234
13.2105
13.1947
13.1808
13.1735
13.1806
13.1934
13.2119
1
1
1
1
1
1
1
1
1
1
1
1
1
1
1
1
1
1
1
1
1
1
1
1
1
1
1
1
1
1
1
1
1
1
1
1
1
1
1
1
1
1
1
1
1
1
1
1
1
1
1
1
1
1
1
1
1
1
1
1
1
1
1
1
1
1
1
1
1
1
1
1
1
1
1
1
1
1
1
1
1
1
1
1
1
1
1
1
1
1
1
1
1
1
1
1
1
1
1
1
1
1
1
1
1
1
1
1
1
1
1
1
1
1
1
1
1
1
1
1
1
1
1
1
1
1
1
1
1
1
1
1
1
1
1
1
1
1
1
1
1
1
1
1
4.19537
12.2078
13.1933
13.297
13.5046
13.6071
13.5566
13.3499
13.2593
13.3411
13.4403
13.4984
13.4851
13.3806
13.3171
13.3434
13.3958
13.4217
13.3957
13.3402
13.3154
13.3314
13.3466
13.3319
13.3033
13.2941
13.299
13.2923
13.2703
13.2468
13.2381
13.2465
13.2551
13.249
13.2313
13.2087
13.1928
13.195
13.2111
13.2203
13.2178
13.2051
13.1875
13.1706
13.1619
13.1706
13.1872
13.2077
1
1
1
1
1
1
1
1
1
1
1
1
1
1
1
1
1
1
1
1
1
1
1
1
1
1
1
1
1
1
1
1
1
1
1
1
1
1
1
1
1
1
1
1
1
1
1
1
1
1
1
1
1
1
1
1
1
1
1
1
1
1
1
1
1
1
1
1
1
1
1
1
1
1
1
1
1
1
1
1
1
1
1
1
1
1
1
1
1
1
1
1
1
1
1
1
1
1
1
1
1
1
1
1
1
1
1
1
1
1
1
1
1
1
1
1
1
1
1
1
1
1
1
1
1
1
1
1
1
1
1
1
1
1
1
1
1
1
1
1
1
1
1
1
3.49718
11.5873
13.2134
13.3969
13.5664
13.6209
13.4706
13.2647
13.2689
13.3731
13.466
13.504
13.4516
13.3328
13.3087
13.3581
13.4077
13.4171
13.3725
13.3183
13.3088
13.3326
13.3442
13.3217
13.2913
13.2867
13.2942
13.2863
13.2616
13.2372
13.2294
13.2383
13.248
13.2419
13.2241
13.2016
13.1847
13.1849
13.201
13.2119
13.2112
13.1989
13.1795
13.16
13.1503
13.1604
13.1805
13.2023
1
1
1
1
1
1
1
1
1
1
1
1
1
1
1
1
1
1
1
1
1
1
1
1
1
1
1
1
1
1
1
1
1
1
1
1
1
1
1
1
1
1
1
1
1
1
1
1
1
1
1
1
1
1
1
1
1
1
1
1
1
1
1
1
1
1
1
1
1
1
1
1
1
1
1
1
1
1
1
1
1
1
1
1
1
1
1
1
1
1
1
1
1
1
1
1
1
1
1
1
1
1
1
1
1
1
1
1
1
1
1
1
1
1
1
1
1
1
1
1
1
1
1
1
1
1
1
1
1
1
1
1
1
1
1
1
1
1
1
1
1
1
1
1
2.81493
10.8798
13.2784
13.5193
13.6117
13.5797
13.352
13.2201
13.2947
13.411
13.4886
13.4984
13.4001
13.2931
13.313
13.376
13.4168
13.4047
13.3441
13.2986
13.306
13.3352
13.3407
13.3094
13.2787
13.2793
13.2891
13.2794
13.2524
13.2279
13.2209
13.2295
13.2396
13.2339
13.2165
13.1948
13.1769
13.1746
13.1899
13.2022
13.2034
13.1916
13.1708
13.1495
13.1396
13.1504
13.1729
13.1952
1
1
1
1
1
1
1
1
1
1
1
1
1
1
1
1
1
1
1
1
1
1
1
1
1
1
1
1
1
1
1
1
1
1
1
1
1
1
1
1
1
1
1
1
1
1
1
1
1
1
1
1
1
1
1
1
1
1
1
1
1
1
1
1
1
1
1
1
1
1
1
1
1
1
1
1
1
1
1
1
1
1
1
1
1
1
1
1
1
1
1
1
1
1
1
1
1
1
1
1
1
1
1
1
1
1
1
1
1
1
1
1
1
1
1
1
1
1
1
1
1
1
1
1
1
1
1
1
1
1
1
1
1
1
1
1
1
1
1
1
1
1
1
1
2.17973
10.0965
13.4002
13.6296
13.6226
13.4663
13.2442
13.2244
13.3309
13.4491
13.5045
13.4737
13.3344
13.2713
13.3267
13.3941
13.4206
13.3831
13.3125
13.2836
13.3076
13.3387
13.335
13.2945
13.2654
13.2721
13.2842
13.2723
13.2432
13.2191
13.2127
13.22
13.2299
13.2249
13.2087
13.1884
13.1695
13.1642
13.1776
13.1908
13.1937
13.183
13.1615
13.1396
13.1302
13.141
13.1644
13.1858
1
1
1
1
1
1
1
1
1
1
1
1
1
1
1
1
1
1
1
1
1
1
1
1
1
1
1
1
1
1
1
1
1
1
1
1
1
1
1
1
1
1
1
1
1
1
1
1
1
1
1
1
1
1
1
1
1
1
1
1
1
1
1
1
1
1
1
1
1
1
1
1
1
1
1
1
1
1
1
1
1
1
1
1
1
1
1
1
1
1
1
1
1
1
1
1
1
1
1
1
1
1
1
1
1
1
1
1
1
1
1
1
1
1
1
1
1
1
1
1
1
1
1
1
1
1
1
1
1
1
1
1
1
1
1
1
1
1
1
1
1
1
1
1
1.64104
9.28053
13.5496
13.6866
13.5465
13.3257
13.1863
13.2552
13.3794
13.483
13.5099
13.4208
13.2706
13.2724
13.3462
13.4094
13.4158
13.3522
13.2817
13.275
13.313
13.3416
13.3257
13.2768
13.2519
13.2655
13.2793
13.2643
13.2335
13.2107
13.2045
13.2101
13.2189
13.2152
13.201
13.1826
13.1626
13.1538
13.1644
13.1775
13.1821
13.173
13.1519
13.131
13.1227
13.1322
13.1545
13.1737
1
1
1
1
1
1
1
1
1
1
1
1
1
1
1
1
1
1
1
1
1
1
1
1
1
1
1
1
1
1
1
1
1
1
1
1
1
1
1
1
1
1
1
1
1
1
1
1
1
1
1
1
1
1
1
1
1
1
1
1
1
1
1
1
1
1
1
1
1
1
1
1
1
1
1
1
1
1
1
1
1
1
1
1
1
1
1
1
1
1
1
1
1
1
1
1
1
1
1
1
1
1
1
1
1
1
1
1
1
1
1
1
1
1
1
1
1
1
1
1
1
1
1
1
1
1
1
1
1
1
1
1
1
1
1
1
1
1
1
1
1
1
1
1
1.24603
8.44552
13.6424
13.6654
13.4087
13.2136
13.1912
13.2996
13.433
13.5089
13.4922
13.338
13.2317
13.2901
13.3683
13.4192
13.3996
13.3139
13.2565
13.2737
13.3208
13.3421
13.3116
13.257
13.2391
13.2596
13.2739
13.2554
13.2234
13.2023
13.1968
13.2001
13.2068
13.2047
13.1933
13.1772
13.1562
13.1435
13.1501
13.1622
13.1683
13.1616
13.1424
13.1239
13.117
13.1241
13.143
13.1584
1
1
1
1
1
1
1
1
1
1
1
1
1
1
1
1
1
1
1
1
1
1
1
1
1
1
1
1
1
1
1
1
1
1
1
1
1
1
1
1
1
1
1
1
1
1
1
1
1
1
1
1
1
1
1
1
1
1
1
1
1
1
1
1
1
1
1
1
1
1
1
1
1
1
1
1
1
1
1
1
1
1
1
1
1
1
1
1
1
1
1
1
1
1
1
1
1
1
1
1
1
1
1
1
1
1
1
1
1
1
1
1
1
1
1
1
1
1
1
1
1
1
1
1
1
1
1
1
1
1
1
1
1
1
1
1
1
1
1
1
1
1
1
1
1.01957
7.54066
13.6042
13.5462
13.2648
13.1613
13.2295
13.3617
13.4819
13.522
13.4313
13.2491
13.2303
13.3158
13.39
13.42
13.3681
13.2729
13.241
13.279
13.3283
13.3379
13.2922
13.2366
13.2281
13.2544
13.2673
13.2452
13.213
13.1946
13.1895
13.1898
13.1933
13.1933
13.1854
13.1718
13.1501
13.1336
13.1351
13.1452
13.1526
13.149
13.1335
13.1187
13.1126
13.1165
13.1301
13.1402
1
1
1
1
1
1
1
1
1
1
1
1
1
1
1
1
1
1
1
1
1
1
1
1
1
1
1
1
1
1
1
1
1
1
1
1
1
1
1
1
1
1
1
1
1
1
1
1
1
1
1
1
1
1
1
1
1
1
1
1
1
1
1
1
1
1
1
1
1
1
1
1
1
1
1
1
1
1
1
1
1
1
1
1
1
1
1
1
1
1
1
1
1
1
1
1
1
1
1
1
1
1
1
1
1
1
1
1
1
1
1
1
1
1
1
1
1
1
1
1
1
1
1
1
1
1
1
1
1
1
1
1
1
1
1
1
1
1
1
1
1
1
1
1
1.00001
6.47981
13.3865
13.3726
13.1662
13.1785
13.2887
13.4334
13.5176
13.5006
13.3231
13.1965
13.2538
13.3448
13.408
13.4083
13.321
13.2364
13.237
13.2885
13.3331
13.3267
13.2681
13.2176
13.22
13.2496
13.2588
13.2328
13.2029
13.188
13.1824
13.1787
13.1786
13.1809
13.177
13.1661
13.1441
13.1237
13.1197
13.1272
13.1354
13.1355
13.1251
13.1148
13.109
13.1088
13.1161
13.1194
1
1
1
1
1
1
1
1
1
1
1
1
1
1
1
1
1
1
1
1
1
1
1
1
1
1
1
1
1
1
1
1
1
1
1
1
1
1
1
1
1
1
1
1
1
1
1
1
1
1
1
1
1
1
1
1
1
1
1
1
1
1
1
1
1
1
1
1
1
1
1
1
1
1
1
1
1
1
1
1
1
1
1
1
1
1
1
1
1
1
1
1
1
1
1
1
1
1
1
1
1
1
1
1
1
1
1
1
1
1
1
1
1
1
1
1
1
1
1
1
1
1
1
1
1
1
1
1
1
1
1
1
1
1
1
1
1
1
1
1
1
1
1
1
1
5.35356
12.9824
13.224
13.1254
13.229
13.3785
13.4965
13.5326
13.4076
13.2127
13.1987
13.2904
13.3731
13.416
13.3769
13.2662
13.2128
13.2428
13.2987
13.3322
13.307
13.2408
13.2018
13.2151
13.2445
13.2473
13.2181
13.1926
13.1824
13.1753
13.1662
13.1629
13.1675
13.1677
13.1596
13.1375
13.1137
13.1046
13.1089
13.1175
13.1215
13.1169
13.1114
13.1058
13.1012
13.1011
13.0969
1
1
1
1
1
1
1
1
1
1
1
1
1
1
1
1
1
1
1
1
1
1
1
1
1
1
1
1
1
1
1
1
1
1
1
1
1
1
1
1
1
1
1
1
1
1
1
1
1
1
1
1
1
1
1
1
1
1
1
1
1
1
1
1
1
1
1
1
1
1
1
1
1
1
1
1
1
1
1
1
1
1
1
1
1
1
1
1
1
1
1
1
1
1
1
1
1
1
1
1
1
1
1
1
1
1
1
1
1
1
1
1
1
1
1
1
1
1
1
1
1
1
1
1
1
1
1
1
1
1
1
1
1
1
1
1
1
1
1
1
1
1
1
1
1
4.23469
12.3232
13.138
13.1421
13.3156
13.4771
13.5379
13.4734
13.2659
13.1625
13.2318
13.3315
13.3979
13.4073
13.3213
13.2171
13.2065
13.2544
13.3074
13.3229
13.2782
13.2133
13.1912
13.2129
13.2381
13.2324
13.2017
13.1826
13.1773
13.1682
13.1527
13.1467
13.1531
13.157
13.1517
13.1299
13.1038
13.0903
13.0909
13.0993
13.1071
13.1082
13.1071
13.1019
13.0932
13.085
13.074
1
1
1
1
1
1
1
1
1
1
1
1
1
1
1
1
1
1
1
1
1
1
1
1
1
1
1
1
1
1
1
1
1
1
1
1
1
1
1
1
1
1
1
1
1
1
1
1
1
1
1
1
1
1
1
1
1
1
1
1
1
1
1
1
1
1
1
1
1
1
1
1
1
1
1
1
1
1
1
1
1
1
1
1
1
1
1
1
1
1
1
1
1
1
1
1
1
1
1
1
1
1
1
1
1
1
1
1
1
1
1
1
1
1
1
1
1
1
1
1
1
1
1
1
1
1
1
1
1
1
1
1
1
1
1
1
1
1
1
1
1
1
1
1
1
3.16383
11.3574
13.1273
13.2522
13.4384
13.5457
13.5105
13.3277
13.1571
13.1794
13.2838
13.3701
13.4113
13.3701
13.2499
13.1848
13.2162
13.2707
13.3112
13.3023
13.2421
13.1894
13.1864
13.2124
13.2289
13.2135
13.1841
13.1734
13.1721
13.1602
13.1384
13.1302
13.1374
13.1447
13.1419
13.1212
13.0942
13.077
13.0737
13.0812
13.0922
13.0984
13.101
13.0963
13.084
13.0686
13.0525
1
1
1
1
1
1
1
1
1
1
1
1
1
1
1
1
1
1
1
1
1
1
1
1
1
1
1
1
1
1
1
1
1
1
1
1
1
1
1
1
1
1
1
1
1
1
1
1
1
1
1
1
1
1
1
1
1
1
1
1
1
1
1
1
1
1
1
1
1
1
1
1
1
1
1
1
1
1
1
1
1
1
1
1
1
1
1
1
1
1
1
1
1
1
1
1
1
1
1
1
1
1
1
1
1
1
1
1
1
1
1
1
1
1
1
1
1
1
1
1
1
1
1
1
1
1
1
1
1
1
1
1
1
1
1
1
1
1
1
1
1
1
1
1
1
2.22436
10.2087
13.2432
13.4492
13.5072
13.5402
13.3754
13.1822
13.1375
13.2298
13.3412
13.4027
13.4018
13.2946
13.1852
13.1797
13.2352
13.2883
13.3059
13.2682
13.203
13.1729
13.1876
13.2123
13.2154
13.1903
13.166
13.1653
13.1664
13.1503
13.1239
13.1133
13.1206
13.1308
13.13
13.1112
13.0848
13.0649
13.0576
13.0635
13.0762
13.0865
13.0922
13.0879
13.073
13.0518
13.0335
1
1
1
1
1
1
1
1
1
1
1
1
1
1
1
1
1
1
1
1
1
1
1
1
1
1
1
1
1
1
1
1
1
1
1
1
1
1
1
1
1
1
1
1
1
1
1
1
1
1
1
1
1
1
1
1
1
1
1
1
1
1
1
1
1
1
1
1
1
1
1
1
1
1
1
1
1
1
1
1
1
1
1
1
1
1
1
1
1
1
1
1
1
1
1
1
1
1
1
1
1
1
1
1
1
1
1
1
1
1
1
1
1
1
1
1
1
1
1
1
1
1
1
1
1
1
1
1
1
1
1
1
1
1
1
1
1
1
1
1
1
1
1
1
1
1.50862
9.03489
13.4453
13.5577
13.498
13.4138
13.2145
13.1109
13.1789
13.3014
13.3922
13.4195
13.3446
13.2024
13.1478
13.198
13.2618
13.3003
13.286
13.221
13.1674
13.1665
13.1934
13.2103
13.1962
13.1633
13.1483
13.1578
13.1596
13.1384
13.1093
13.0957
13.1032
13.1151
13.1157
13.0999
13.0758
13.0539
13.0431
13.0463
13.0591
13.0721
13.0799
13.076
13.0598
13.0352
13.0178
1
1
1
1
1
1
1
1
1
1
1
1
1
1
1
1
1
1
1
1
1
1
1
1
1
1
1
1
1
1
1
1
1
1
1
1
1
1
1
1
1
1
1
1
1
1
1
1
1
1
1
1
1
1
1
1
1
1
1
1
1
1
1
1
1
1
1
1
1
1
1
1
1
1
1
1
1
1
1
1
1
1
1
1
1
1
1
1
1
1
1
1
1
1
1
1
1
1
1
1
1
1
1
1
1
1
1
1
1
1
1
1
1
1
1
1
1
1
1
1
1
1
1
1
1
1
1
1
1
1
1
1
1
1
1
1
1
1
1
1
1
1
1
1
1
1.07632
7.87231
13.5212
13.5814
13.3841
13.2462
13.1064
13.1357
13.2544
13.3755
13.4281
13.3921
13.2376
13.1293
13.1518
13.2269
13.2901
13.2996
13.2438
13.1675
13.1434
13.1708
13.2015
13.2037
13.1703
13.1341
13.1315
13.1506
13.1519
13.1245
13.094
13.0788
13.0859
13.0976
13.0988
13.0872
13.0665
13.0437
13.0299
13.0297
13.0406
13.0547
13.0637
13.0602
13.0441
13.0192
13.0052
1
1
1
1
1
1
1
1
1
1
1
1
1
1
1
1
1
1
1
1
1
1
1
1
1
1
1
1
1
1
1
1
1
1
1
1
1
1
1
1
1
1
1
1
1
1
1
1
1
1
1
1
1
1
1
1
1
1
1
1
1
1
1
1
1
1
1
1
1
1
1
1
1
1
1
1
1
1
1
1
1
1
1
1
1
1
1
1
1
1
1
1
1
1
1
1
1
1
1
1
1
1
1
1
1
1
1
1
1
1
1
1
1
1
1
1
1
1
1
1
1
1
1
1
1
1
1
1
1
1
1
1
1
1
1
1
1
1
1
1
1
1
1
1
1
1.0002
6.53226
13.3196
13.4805
13.2255
13.1174
13.107
13.2115
13.3488
13.4291
13.4291
13.2881
13.1328
13.1069
13.1844
13.2623
13.3071
13.2767
13.1826
13.1204
13.1346
13.1826
13.2082
13.1895
13.1379
13.105
13.1168
13.1432
13.142
13.1087
13.078
13.0637
13.0684
13.0778
13.0796
13.0729
13.0563
13.0339
13.018
13.0135
13.0208
13.0342
13.0436
13.0404
13.0262
13.0044
12.995
1
1
1
1
1
1
1
1
1
1
1
1
1
1
1
1
1
1
1
1
1
1
1
1
1
1
1
1
1
1
1
1
1
1
1
1
1
1
1
1
1
1
1
1
1
1
1
1
1
1
1
1
1
1
1
1
1
1
1
1
1
1
1
1
1
1
1
1
1
1
1
1
1
1
1
1
1
1
1
1
1
1
1
1
1
1
1
1
1
1
1
1
1
1
1
1
1
1
1
1
1
1
1
1
1
1
1
1
1
1
1
1
1
1
1
1
1
1
1
1
1
1
1
1
1
1
1
1
1
1
1
1
1
1
1
1
1
1
1
1
1
1
1
1
1
1
5.1085
12.8145
13.2771
13.0935
13.0919
13.1856
13.3216
13.4228
13.4491
13.3393
13.1585
13.0751
13.1371
13.2245
13.2974
13.3049
13.2231
13.118
13.092
13.1392
13.1958
13.2083
13.1647
13.1013
13.0793
13.1051
13.1348
13.1286
13.0909
13.0618
13.0507
13.0509
13.0559
13.0587
13.0567
13.0444
13.0238
13.0063
12.9975
13
13.0105
13.0194
13.0172
13.0068
12.9902
12.9854
1
1
1
1
1
1
1
1
1
1
1
1
1
1
1
1
1
1
1
1
1
1
1
1
1
1
1
1
1
1
1
1
1
1
1
1
1
1
1
1
1
1
1
1
1
1
1
1
1
1
1
1
1
1
1
1
1
1
1
1
1
1
1
1
1
1
1
1
1
1
1
1
1
1
1
1
1
1
1
1
1
1
1
1
1
1
1
1
1
1
1
1
1
1
1
1
1
1
1
1
1
1
1
1
1
1
1
1
1
1
1
1
1
1
1
1
1
1
1
1
1
1
1
1
1
1
1
1
1
1
1
1
1
1
1
1
1
1
1
1
1
1
1
1
1
1
3.69849
11.9332
13.0837
13.0501
13.1669
13.3177
13.4118
13.4551
13.3719
13.1913
13.0645
13.0962
13.1863
13.2681
13.3141
13.2699
13.1461
13.0678
13.0868
13.1529
13.2058
13.196
13.1281
13.065
13.06
13.0965
13.1243
13.1103
13.0713
13.0463
13.0381
13.0326
13.0334
13.0362
13.038
13.0306
13.0125
12.9938
12.9811
12.9785
12.9846
12.9919
12.9918
12.9865
12.9758
12.9755
1
1
1
1
1
1
1
1
1
1
1
1
1
1
1
1
1
1
1
1
1
1
1
1
1
1
1
1
1
1
1
1
1
1
1
1
1
1
1
1
1
1
1
1
1
1
1
1
1
1
1
1
1
1
1
1
1
1
1
1
1
1
1
1
1
1
1
1
1
1
1
1
1
1
1
1
1
1
1
1
1
1
1
1
1
1
1
1
1
1
1
1
1
1
1
1
1
1
1
1
1
1
1
1
1
1
1
1
1
1
1
1
1
1
1
1
1
1
1
1
1
1
1
1
1
1
1
1
1
1
1
1
1
1
1
1
1
1
1
1
1
1
1
1
1
1
2.45238
10.587
13.0234
13.1536
13.3126
13.4279
13.4487
13.3811
13.2156
13.0707
13.0657
13.1528
13.2382
13.3046
13.3
13.1925
13.0726
13.0456
13.0991
13.1721
13.2061
13.1668
13.084
13.0355
13.0489
13.0897
13.1095
13.0867
13.0503
13.0317
13.0245
13.0141
13.0103
13.0119
13.0172
13.0146
12.9993
12.9795
12.9638
12.9567
12.9578
12.9624
12.9646
12.9651
12.96
12.9637
1
1
1
1
1
1
1
1
1
1
1
1
1
1
1
1
1
1
1
1
1
1
1
1
1
1
1
1
1
1
1
1
1
1
1
1
1
1
1
1
1
1
1
1
1
1
1
1
1
1
1
1
1
1
1
1
1
1
1
1
1
1
1
1
1
1
1
1
1
1
1
1
1
1
1
1
1
1
1
1
1
1
1
1
1
1
1
1
1
1
1
1
1
1
1
1
1
1
1
1
1
1
1
1
1
1
1
1
1
1
1
1
1
1
1
1
1
1
1
1
1
1
1
1
1
1
1
1
1
1
1
1
1
1
1
1
1
1
1
1
1
1
1
1
1
1
1.52507
9.06223
13.1589
13.3582
13.4059
13.462
13.3643
13.2207
13.0808
13.0449
13.1278
13.219
13.288
13.3109
13.2275
13.0951
13.0284
13.0571
13.1224
13.186
13.1887
13.1195
13.041
13.0186
13.0455
13.0818
13.0874
13.0577
13.029
13.0187
13.0108
12.9951
12.9853
12.9868
12.9952
12.9961
12.9831
12.9629
12.9451
12.9344
12.931
12.9328
12.9363
12.9415
12.9421
12.9493
1
1
1
1
1
1
1
1
1
1
1
1
1
1
1
1
1
1
1
1
1
1
1
1
1
1
1
1
1
1
1
1
1
1
1
1
1
1
1
1
1
1
1
1
1
1
1
1
1
1
1
1
1
1
1
1
1
1
1
1
1
1
1
1
1
1
1
1
1
1
1
1
1
1
1
1
1
1
1
1
1
1
1
1
1
1
1
1
1
1
1
1
1
1
1
1
1
1
1
1
1
1
1
1
1
1
1
1
1
1
1
1
1
1
1
1
1
1
1
1
1
1
1
1
1
1
1
1
1
1
1
1
1
1
1
1
1
1
1
1
1
1
1
1
1
1
1.0272
7.58761
13.3121
13.4921
13.3878
13.3508
13.2031
13.0816
13.0331
13.1097
13.2117
13.2805
13.3126
13.2474
13.1134
13.0205
13.0283
13.0894
13.1521
13.1821
13.1418
13.0607
13.0109
13.0166
13.0472
13.0683
13.0557
13.0245
13.0089
13.0072
12.9963
12.9751
12.9588
12.9613
12.9713
12.9744
12.9633
12.9438
12.9251
12.9116
12.9048
12.9046
12.9081
12.9158
12.9214
12.9305
1
1
1
1
1
1
1
1
1
1
1
1
1
1
1
1
1
1
1
1
1
1
1
1
1
1
1
1
1
1
1
1
1
1
1
1
1
1
1
1
1
1
1
1
1
1
1
1
1
1
1
1
1
1
1
1
1
1
1
1
1
1
1
1
1
1
1
1
1
1
1
1
1
1
1
1
1
1
1
1
1
1
1
1
1
1
1
1
1
1
1
1
1
1
1
1
1
1
1
1
1
1
1
1
1
1
1
1
1
1
1
1
1
1
1
1
1
1
1
1
1
1
1
1
1
1
1
1
1
1
1
1
1
1
1
1
1
1
1
1
1
1
1
1
1
1
1.00003
5.92386
13.0732
13.4807
13.259
13.1795
13.0698
13.0284
13.1
13.2129
13.2858
13.3191
13.2579
13.1224
13.0147
12.9989
13.0651
13.132
13.1682
13.1455
13.0665
13.0078
13.0019
13.0262
13.0483
13.0442
13.014
12.9898
12.991
12.9969
12.9804
12.9524
12.9327
12.9361
12.9452
12.9489
12.94
12.9222
12.9038
12.8888
12.8794
12.8777
12.8804
12.8886
12.8968
12.9061
1
1
1
1
1
1
1
1
1
1
1
1
1
1
1
1
1
1
1
1
1
1
1
1
1
1
1
1
1
1
1
1
1
1
1
1
1
1
1
1
1
1
1
1
1
1
1
1
1
1
1
1
1
1
1
1
1
1
1
1
1
1
1
1
1
1
1
1
1
1
1
1
1
1
1
1
1
1
1
1
1
1
1
1
1
1
1
1
1
1
1
1
1
1
1
1
1
1
1
1
1
1
1
1
1
1
1
1
1
1
1
1
1
1
1
1
1
1
1
1
1
1
1
1
1
1
1
1
1
1
1
1
1
1
1
1
1
1
1
1
1
1
1
1
1
1
1
4.23913
12.323
13.3204
13.1062
13.0504
13.0367
13.1048
13.2221
13.2995
13.3306
13.2654
13.1273
13.007
12.9702
13.0374
13.1155
13.1666
13.1526
13.0686
12.9884
12.9769
13.0115
13.0399
13.0403
13.0057
12.9662
12.9579
12.9761
12.9855
12.962
12.927
12.9072
12.9111
12.9171
12.9198
12.9125
12.8976
12.8811
12.8661
12.8552
12.8515
12.853
12.86
12.8682
12.8768
1
1
1
1
1
1
1
1
1
1
1
1
1
1
1
1
1
1
1
1
1
1
1
1
1
1
1
1
1
1
1
1
1
1
1
1
1
1
1
1
1
1
1
1
1
1
1
1
1
1
1
1
1
1
1
1
1
1
1
1
1
1
1
1
1
1
1
1
1
1
1
1
1
1
1
1
1
1
1
1
1
1
1
1
1
1
1
1
1
1
1
1
1
1
1
1
1
1
1
1
1
1
1
1
1
1
1
1
1
1
1
1
1
1
1
1
1
1
1
1
1
1
1
1
1
1
1
1
1
1
1
1
1
1
1
1
1
1
1
1
1
1
1
1
1
1
1
2.70865
10.9618
13.0852
13.0126
13.0467
13.1412
13.2453
13.3181
13.3354
13.2653
13.1319
13.0051
12.9463
13.0039
13.097
13.1674
13.171
13.0847
12.9756
12.9355
12.9743
13.0297
13.0473
13.0153
12.9548
12.9201
12.9329
12.9638
12.9703
12.9391
12.9008
12.883
12.8856
12.8873
12.8872
12.8812
12.8702
12.857
12.8433
12.8317
12.8256
12.8252
12.8294
12.8358
12.8432
1
1
1
1
1
1
1
1
1
1
1
1
1
1
1
1
1
1
1
1
1
1
1
1
1
1
1
1
1
1
1
1
1
1
1
1
1
1
1
1
1
1
1
1
1
1
1
1
1
1
1
1
1
1
1
1
1
1
1
1
1
1
1
1
1
1
1
1
1
1
1
1
1
1
1
1
1
1
1
1
1
1
1
1
1
1
1
1
1
1
1
1
1
1
1
1
1
1
1
1
1
1
1
1
1
1
1
1
1
1
1
1
1
1
1
1
1
1
1
1
1
1
1
1
1
1
1
1
1
1
1
1
1
1
1
1
1
1
1
1
1
1
1
1
1
1
1
1.57307
9.14645
12.992
13.0938
13.1856
13.2918
13.3372
13.3278
13.2493
13.1298
13.0093
12.9366
12.9788
13.0737
13.1582
13.1901
13.1158
12.9815
12.903
12.9223
12.9916
13.0471
13.0385
12.9703
12.9004
12.8842
12.9166
12.951
12.9483
12.9101
12.8741
12.8597
12.8596
12.8553
12.8517
12.847
12.8405
12.831
12.8194
12.808
12.7995
12.7962
12.797
12.8012
12.8064
1
1
1
1
1
1
1
1
1
1
1
1
1
1
1
1
1
1
1
1
1
1
1
1
1
1
1
1
1
1
1
1
1
1
1
1
1
1
1
1
1
1
1
1
1
1
1
1
1
1
1
1
1
1
1
1
1
1
1
1
1
1
1
1
1
1
1
1
1
1
1
1
1
1
1
1
1
1
1
1
1
1
1
1
1
1
1
1
1
1
1
1
1
1
1
1
1
1
1
1
1
1
1
1
1
1
1
1
1
1
1
1
1
1
1
1
1
1
1
1
1
1
1
1
1
1
1
1
1
1
1
1
1
1
1
1
1
1
1
1
1
1
1
1
1
1
1
1.01525
7.37079
13.0588
13.3056
13.3075
13.3477
13.2992
13.2144
13.1141
13.0104
12.9412
12.9745
13.0589
13.1422
13.1937
13.1428
13.0067
12.8938
12.8765
12.941
13.0182
13.0491
13.0024
12.9117
12.8555
12.8638
12.9065
12.9332
12.9168
12.8761
12.8483
12.8377
12.8322
12.8212
12.8145
12.8113
12.8089
12.8029
12.7933
12.7825
12.7722
12.7655
12.7627
12.7642
12.7668
1
1
1
1
1
1
1
1
1
1
1
1
1
1
1
1
1
1
1
1
1
1
1
1
1
1
1
1
1
1
1
1
1
1
1
1
1
1
1
1
1
1
1
1
1
1
1
1
1
1
1
1
1
1
1
1
1
1
1
1
1
1
1
1
1
1
1
1
1
1
1
1
1
1
1
1
1
1
1
1
1
1
1
1
1
1
1
1
1
1
1
1
1
1
1
1
1
1
1
1
1
1
1
1
1
1
1
1
1
1
1
1
1
1
1
1
1
1
1
1
1
1
1
1
1
1
1
1
1
1
1
1
1
1
1
1
1
1
1
1
1
1
1
1
1
1
1
1.00003
5.46346
12.8099
13.3994
13.2585
13.2454
13.1669
13.0828
12.9986
12.9532
12.991
13.0676
13.1368
13.1833
13.146
13.0255
12.9029
12.8568
12.9022
12.9746
13.0316
13.0194
12.9382
12.8567
12.8324
12.8585
12.896
12.9042
12.875
12.8403
12.824
12.8161
12.8034
12.7851
12.7762
12.7748
12.7754
12.7719
12.7638
12.7538
12.7425
12.7331
12.7271
12.7259
12.7259
1
1
1
1
1
1
1
1
1
1
1
1
1
1
1
1
1
1
1
1
1
1
1
1
1
1
1
1
1
1
1
1
1
1
1
1
1
1
1
1
1
1
1
1
1
1
1
1
1
1
1
1
1
1
1
1
1
1
1
1
1
1
1
1
1
1
1
1
1
1
1
1
1
1
1
1
1
1
1
1
1
1
1
1
1
1
1
1
1
1
1
1
1
1
1
1
1
1
1
1
1
1
1
1
1
1
1
1
1
1
1
1
1
1
1
1
1
1
1
1
1
1
1
1
1
1
1
1
1
1
1
1
1
1
1
1
1
1
1
1
1
1
1
1
1
1
1
1
3.59179
11.844
13.263
13.1365
13.115
13.044
12.9814
12.97
13.0194
13.0946
13.1521
13.1758
13.1285
13.0205
12.909
12.8522
12.8879
12.9494
13.0027
13.0107
12.947
12.8667
12.8249
12.8324
12.8606
12.8764
12.86
12.8268
12.8068
12.8025
12.7934
12.7722
12.748
12.7384
12.7381
12.7396
12.7373
12.7304
12.7213
12.7097
12.6985
12.6902
12.6866
12.6841
1
1
1
1
1
1
1
1
1
1
1
1
1
1
1
1
1
1
1
1
1
1
1
1
1
1
1
1
1
1
1
1
1
1
1
1
1
1
1
1
1
1
1
1
1
1
1
1
1
1
1
1
1
1
1
1
1
1
1
1
1
1
1
1
1
1
1
1
1
1
1