/*--------------------------------*- C++ -*----------------------------------*\
  =========                 |
  \\      /  F ield         | OpenFOAM: The Open Source CFD Toolbox
   \\    /   O peration     | Website:  https://openfoam.org
    \\  /    A nd           | Version:  7
     \\/     M anipulation  |
\*---------------------------------------------------------------------------*/
FoamFile
{
    version     2.0;
    format      ascii;
    class       volScalarField;
    location    "0.2";
    object      T;
}
// * * * * * * * * * * * * * * * * * * * * * * * * * * * * * * * * * * * * * //

dimensions      [0 0 0 1 0 0 0];

internalField   nonuniform List<scalar> 
258048
(
1
1
1
1
1
1
1
1
1
1
1
1
1
1
1
1
1
1
1
1
1
1
1
1
1
1
1
1
1
1
1
1
1
1
1
1
1
1
1
1
1
1
1
1
1
1
1
1
1
1
1
1
1
1
1
1
1
1
1
1
1
1
1
1
1
1
1
1
1
1
1
1
1
1
1
1
1
1
1
1
1
1
1
1
1
1
1
1
1
1
1
1
1
1
1
1
1
1
1
1
1
1
1
1
1
1
1
1
1
1
1
1
1
1
1
1
1
1
1
1
1
1
1
1
1
1
1
1
1
1
1
1
1
1
1
1
1
1
1
1
1
1
1
1.71513
2.91832
3.2178
3.25094
3.25758
3.2534
3.25235
3.26823
3.28923
3.3072
3.3188
3.32476
3.33415
3.35725
3.39162
3.43182
3.47144
3.50383
3.52955
3.55089
3.56376
3.56792
3.56699
3.56599
3.56712
3.56901
3.56959
3.56838
3.56631
3.56466
3.5633
3.56147
3.55784
3.55198
3.54529
3.53979
3.537
3.53697
3.54035
3.54878
3.56309
3.58096
3.5972
3.60793
3.61286
3.61407
3.61366
3.61259
3.61222
1
1
1
1
1
1
1
1
1
1
1
1
1
1
1
1
1
1
1
1
1
1
1
1
1
1
1
1
1
1
1
1
1
1
1
1
1
1
1
1
1
1
1
1
1
1
1
1
1
1
1
1
1
1
1
1
1
1
1
1
1
1
1
1
1
1
1
1
1
1
1
1
1
1
1
1
1
1
1
1
1
1
1
1
1
1
1
1
1
1
1
1
1
1
1
1
1
1
1
1
1
1
1
1
1
1
1
1
1
1
1
1
1
1
1
1
1
1
1
1
1
1
1
1
1
1
1
1
1
1
1
1
1
1
1
1
1
1
1
1
1
1
1
1.70441
2.91393
3.21809
3.25149
3.25743
3.25295
3.25227
3.2685
3.28943
3.30733
3.31877
3.32467
3.33424
3.35756
3.392
3.4321
3.47155
3.50373
3.52944
3.55099
3.56379
3.56776
3.56677
3.5659
3.56714
3.56905
3.56959
3.56837
3.56632
3.5647
3.56334
3.56146
3.5578
3.55192
3.54524
3.53978
3.53702
3.53699
3.54037
3.54879
3.5631
3.58095
3.59717
3.60789
3.61282
3.61403
3.61362
3.61255
3.6122
1
1
1
1
1
1
1
1
1
1
1
1
1
1
1
1
1
1
1
1
1
1
1
1
1
1
1
1
1
1
1
1
1
1
1
1
1
1
1
1
1
1
1
1
1
1
1
1
1
1
1
1
1
1
1
1
1
1
1
1
1
1
1
1
1
1
1
1
1
1
1
1
1
1
1
1
1
1
1
1
1
1
1
1
1
1
1
1
1
1
1
1
1
1
1
1
1
1
1
1
1
1
1
1
1
1
1
1
1
1
1
1
1
1
1
1
1
1
1
1
1
1
1
1
1
1
1
1
1
1
1
1
1
1
1
1
1
1
1
1
1
1
1
1.68088
2.90425
3.21884
3.25158
3.25681
3.25193
3.25185
3.26861
3.28944
3.30728
3.31846
3.32419
3.33408
3.35775
3.39224
3.43216
3.47125
3.50307
3.52887
3.55074
3.56358
3.56728
3.56623
3.56564
3.56709
3.56905
3.56952
3.56825
3.56624
3.56468
3.56332
3.56138
3.55766
3.55177
3.54512
3.53971
3.53698
3.53697
3.54036
3.54877
3.56307
3.58089
3.5971
3.60781
3.61275
3.61397
3.61359
3.61253
3.6122
1
1
1
1
1
1
1
1
1
1
1
1
1
1
1
1
1
1
1
1
1
1
1
1
1
1
1
1
1
1
1
1
1
1
1
1
1
1
1
1
1
1
1
1
1
1
1
1
1
1
1
1
1
1
1
1
1
1
1
1
1
1
1
1
1
1
1
1
1
1
1
1
1
1
1
1
1
1
1
1
1
1
1
1
1
1
1
1
1
1
1
1
1
1
1
1
1
1
1
1
1
1
1
1
1
1
1
1
1
1
1
1
1
1
1
1
1
1
1
1
1
1
1
1
1
1
1
1
1
1
1
1
1
1
1
1
1
1
1
1
1
1
1
1.64585
2.88987
3.22021
3.25181
3.25583
3.25032
3.25126
3.26888
3.28958
3.30721
3.31795
3.32333
3.33361
3.35777
3.39217
3.43161
3.46997
3.50131
3.52746
3.5498
3.56287
3.56643
3.56547
3.56531
3.5671
3.5691
3.56947
3.56814
3.56619
3.56471
3.56335
3.56133
3.55756
3.55165
3.54504
3.53968
3.53697
3.53694
3.54033
3.54875
3.56302
3.58081
3.59699
3.60768
3.61262
3.61387
3.61352
3.61248
3.61218
1
1
1
1
1
1
1
1
1
1
1
1
1
1
1
1
1
1
1
1
1
1
1
1
1
1
1
1
1
1
1
1
1
1
1
1
1
1
1
1
1
1
1
1
1
1
1
1
1
1
1
1
1
1
1
1
1
1
1
1
1
1
1
1
1
1
1
1
1
1
1
1
1
1
1
1
1
1
1
1
1
1
1
1
1
1
1
1
1
1
1
1
1
1
1
1
1
1
1
1
1
1
1
1
1
1
1
1
1
1
1
1
1
1
1
1
1
1
1
1
1
1
1
1
1
1
1
1
1
1
1
1
1
1
1
1
1
1
1
1
1
1
1
1.59981
2.87138
3.22242
3.25215
3.25439
3.24807
3.25058
3.26924
3.2898
3.30715
3.31727
3.32207
3.33287
3.35774
3.39188
3.43037
3.46757
3.49827
3.52489
3.54787
3.56148
3.56515
3.56442
3.56482
3.56702
3.56903
3.56927
3.56787
3.56605
3.56471
3.56334
3.56123
3.5574
3.55151
3.54495
3.53963
3.53691
3.53686
3.54025
3.54867
3.56293
3.58069
3.59682
3.60749
3.61244
3.61372
3.61341
3.61241
3.61216
1
1
1
1
1
1
1
1
1
1
1
1
1
1
1
1
1
1
1
1
1
1
1
1
1
1
1
1
1
1
1
1
1
1
1
1
1
1
1
1
1
1
1
1
1
1
1
1
1
1
1
1
1
1
1
1
1
1
1
1
1
1
1
1
1
1
1
1
1
1
1
1
1
1
1
1
1
1
1
1
1
1
1
1
1
1
1
1
1
1
1
1
1
1
1
1
1
1
1
1
1
1
1
1
1
1
1
1
1
1
1
1
1
1
1
1
1
1
1
1
1
1
1
1
1
1
1
1
1
1
1
1
1
1
1
1
1
1
1
1
1
1
1
1.54203
2.8485
3.22553
3.25251
3.25241
3.24543
3.25012
3.26978
3.29017
3.3071
3.31643
3.32059
3.33225
3.35791
3.39153
3.42863
3.46411
3.49382
3.52093
3.5447
3.55911
3.56328
3.56315
3.56431
3.56691
3.56891
3.56899
3.56756
3.56592
3.56471
3.56333
3.56111
3.55724
3.55138
3.54488
3.53958
3.53682
3.53672
3.54011
3.54854
3.56279
3.58051
3.59661
3.60727
3.61222
3.61352
3.61327
3.61232
3.61212
1
1
1
1
1
1
1
1
1
1
1
1
1
1
1
1
1
1
1
1
1
1
1
1
1
1
1
1
1
1
1
1
1
1
1
1
1
1
1
1
1
1
1
1
1
1
1
1
1
1
1
1
1
1
1
1
1
1
1
1
1
1
1
1
1
1
1
1
1
1
1
1
1
1
1
1
1
1
1
1
1
1
1
1
1
1
1
1
1
1
1
1
1
1
1
1
1
1
1
1
1
1
1
1
1
1
1
1
1
1
1
1
1
1
1
1
1
1
1
1
1
1
1
1
1
1
1
1
1
1
1
1
1
1
1
1
1
1
1
1
1
1
1
1.47242
2.82115
3.22936
3.25248
3.24971
3.24267
3.25001
3.2705
3.29061
3.30694
3.3153
3.31897
3.33196
3.35841
3.39129
3.42662
3.45985
3.48829
3.51577
3.54032
3.55566
3.56076
3.56168
3.56376
3.56671
3.56863
3.56856
3.56716
3.56577
3.56467
3.56327
3.56094
3.55705
3.55125
3.54483
3.53953
3.53668
3.53651
3.5399
3.54836
3.5626
3.5803
3.59637
3.60701
3.61196
3.61328
3.61309
3.61219
3.61205
1
1
1
1
1
1
1
1
1
1
1
1
1
1
1
1
1
1
1
1
1
1
1
1
1
1
1
1
1
1
1
1
1
1
1
1
1
1
1
1
1
1
1
1
1
1
1
1
1
1
1
1
1
1
1
1
1
1
1
1
1
1
1
1
1
1
1
1
1
1
1
1
1
1
1
1
1
1
1
1
1
1
1
1
1
1
1
1
1
1
1
1
1
1
1
1
1
1
1
1
1
1
1
1
1
1
1
1
1
1
1
1
1
1
1
1
1
1
1
1
1
1
1
1
1
1
1
1
1
1
1
1
1
1
1
1
1
1
1
1
1
1
1
1.39251
2.7896
3.23366
3.25171
3.24624
3.24001
3.25023
3.27141
3.29105
3.30654
3.31375
3.31731
3.3321
3.35925
3.39121
3.42447
3.45507
3.48211
3.50974
3.53492
3.55119
3.5575
3.55982
3.563
3.56635
3.56819
3.568
3.56675
3.56562
3.56462
3.56316
3.56071
3.55685
3.55115
3.54479
3.53945
3.53649
3.53623
3.53962
3.54812
3.56237
3.58004
3.5961
3.60672
3.61167
3.613
3.61286
3.61201
3.61194
1
1
1
1
1
1
1
1
1
1
1
1
1
1
1
1
1
1
1
1
1
1
1
1
1
1
1
1
1
1
1
1
1
1
1
1
1
1
1
1
1
1
1
1
1
1
1
1
1
1
1
1
1
1
1
1
1
1
1
1
1
1
1
1
1
1
1
1
1
1
1
1
1
1
1
1
1
1
1
1
1
1
1
1
1
1
1
1
1
1
1
1
1
1
1
1
1
1
1
1
1
1
1
1
1
1
1
1
1
1
1
1
1
1
1
1
1
1
1
1
1
1
1
1
1
1
1
1
1
1
1
1
1
1
1
1
1
1
1
1
1
1
1
1.30554
2.75427
3.23813
3.25015
3.24183
3.23758
3.25082
3.2724
3.29147
3.3058
3.31169
3.31567
3.33268
3.36033
3.39123
3.42221
3.44997
3.47558
3.50318
3.52873
3.54585
3.5535
3.55743
3.56186
3.56574
3.56758
3.56735
3.56633
3.56546
3.56453
3.56298
3.56044
3.55664
3.55105
3.54473
3.53933
3.53623
3.53588
3.53929
3.54783
3.56209
3.57975
3.5958
3.60642
3.61136
3.61268
3.61259
3.61179
3.61177
1
1
1
1
1
1
1
1
1
1
1
1
1
1
1
1
1
1
1
1
1
1
1
1
1
1
1
1
1
1
1
1
1
1
1
1
1
1
1
1
1
1
1
1
1
1
1
1
1
1
1
1
1
1
1
1
1
1
1
1
1
1
1
1
1
1
1
1
1
1
1
1
1
1
1
1
1
1
1
1
1
1
1
1
1
1
1
1
1
1
1
1
1
1
1
1
1
1
1
1
1
1
1
1
1
1
1
1
1
1
1
1
1
1
1
1
1
1
1
1
1
1
1
1
1
1
1
1
1
1
1
1
1
1
1
1
1
1
1
1
1
1
1
1.21616
2.71536
3.24225
3.24766
3.23652
3.23553
3.25181
3.27342
3.29179
3.30462
3.30906
3.31416
3.33358
3.36151
3.39125
3.4198
3.44468
3.46899
3.49633
3.52194
3.5397
3.5487
3.55438
3.56025
3.56482
3.56683
3.56665
3.56588
3.56524
3.56438
3.56274
3.56013
3.55643
3.55095
3.54465
3.53917
3.53591
3.53548
3.5389
3.5475
3.56176
3.57941
3.59546
3.60609
3.61101
3.61233
3.61226
3.61152
3.61157
1
1
1
1
1
1
1
1
1
1
1
1
1
1
1
1
1
1
1
1
1
1
1
1
1
1
1
1
1
1
1
1
1
1
1
1
1
1
1
1
1
1
1
1
1
1
1
1
1
1
1
1
1
1
1
1
1
1
1
1
1
1
1
1
1
1
1
1
1
1
1
1
1
1
1
1
1
1
1
1
1
1
1
1
1
1
1
1
1
1
1
1
1
1
1
1
1
1
1
1
1
1
1
1
1
1
1
1
1
1
1
1
1
1
1
1
1
1
1
1
1
1
1
1
1
1
1
1
1
1
1
1
1
1
1
1
1
1
1
1
1
1
1
1.13021
2.67255
3.24517
3.24409
3.23061
3.23427
3.25301
3.27439
3.29192
3.3029
3.30589
3.31299
3.33472
3.36269
3.39117
3.4172
3.43934
3.46254
3.48932
3.51459
3.53272
3.54303
3.55063
3.55814
3.56359
3.56592
3.56589
3.56539
3.56494
3.56414
3.56244
3.55978
3.5562
3.55083
3.54454
3.53895
3.53556
3.53505
3.53848
3.5471
3.56137
3.57902
3.59509
3.60572
3.61063
3.61192
3.61189
3.61121
3.61134
1
1
1
1
1
1
1
1
1
1
1
1
1
1
1
1
1
1
1
1
1
1
1
1
1
1
1
1
1
1
1
1
1
1
1
1
1
1
1
1
1
1
1
1
1
1
1
1
1
1
1
1
1
1
1
1
1
1
1
1
1
1
1
1
1
1
1
1
1
1
1
1
1
1
1
1
1
1
1
1
1
1
1
1
1
1
1
1
1
1
1
1
1
1
1
1
1
1
1
1
1
1
1
1
1
1
1
1
1
1
1
1
1
1
1
1
1
1
1
1
1
1
1
1
1
1
1
1
1
1
1
1
1
1
1
1
1
1
1
1
1
1
1
1.05528
2.62566
3.24574
3.23839
3.22517
3.23402
3.25448
3.27527
3.29175
3.30042
3.3023
3.31242
3.33604
3.36378
3.39091
3.41436
3.43406
3.45634
3.48223
3.5067
3.52487
3.53646
3.54617
3.55551
3.56199
3.56481
3.56506
3.56482
3.56455
3.56384
3.56209
3.55942
3.55595
3.55068
3.54438
3.53871
3.53519
3.53459
3.538
3.54664
3.5609
3.57857
3.59467
3.6053
3.61018
3.61144
3.61147
3.61088
3.61111
1
1
1
1
1
1
1
1
1
1
1
1
1
1
1
1
1
1
1
1
1
1
1
1
1
1
1
1
1
1
1
1
1
1
1
1
1
1
1
1
1
1
1
1
1
1
1
1
1
1
1
1
1
1
1
1
1
1
1
1
1
1
1
1
1
1
1
1
1
1
1
1
1
1
1
1
1
1
1
1
1
1
1
1
1
1
1
1
1
1
1
1
1
1
1
1
1
1
1
1
1
1
1
1
1
1
1
1
1
1
1
1
1
1
1
1
1
1
1
1
1
1
1
1
1
1
1
1
1
1
1
1
1
1
1
1
1
1
1
1
1
1
1
1.00532
2.57453
3.24261
3.23036
3.22089
3.23469
3.25632
3.27613
3.29106
3.29695
3.29863
3.31258
3.33746
3.36473
3.39037
3.41123
3.42895
3.45047
3.47512
3.49832
3.51618
3.529
3.54098
3.55231
3.55999
3.56339
3.56407
3.56418
3.56411
3.56347
3.56169
3.55901
3.55566
3.55049
3.5442
3.53847
3.53482
3.53412
3.53747
3.5461
3.56037
3.57806
3.5942
3.60484
3.60965
3.61088
3.61099
3.61053
3.61089
1
1
1
1
1
1
1
1
1
1
1
1
1
1
1
1
1
1
1
1
1
1
1
1
1
1
1
1
1
1
1
1
1
1
1
1
1
1
1
1
1
1
1
1
1
1
1
1
1
1
1
1
1
1
1
1
1
1
1
1
1
1
1
1
1
1
1
1
1
1
1
1
1
1
1
1
1
1
1
1
1
1
1
1
1
1
1
1
1
1
1
1
1
1
1
1
1
1
1
1
1
1
1
1
1
1
1
1
1
1
1
1
1
1
1
1
1
1
1
1
1
1
1
1
1
1
1
1
1
1
1
1
1
1
1
1
1
1
1
1
1
1
1
1
2.51805
3.23464
3.22064
3.21813
3.23633
3.25839
3.27686
3.28966
3.29244
3.29544
3.31348
3.3389
3.3655
3.38942
3.40778
3.42414
3.44499
3.46805
3.48955
3.50675
3.52071
3.53502
3.54844
3.55745
3.56159
3.56287
3.56348
3.56364
3.56304
3.56121
3.55852
3.55531
3.55027
3.54402
3.53823
3.53444
3.53362
3.53687
3.54548
3.55976
3.57751
3.59369
3.60432
3.60905
3.61022
3.61044
3.61016
3.61068
1
1
1
1
1
1
1
1
1
1
1
1
1
1
1
1
1
1
1
1
1
1
1
1
1
1
1
1
1
1
1
1
1
1
1
1
1
1
1
1
1
1
1
1
1
1
1
1
1
1
1
1
1
1
1
1
1
1
1
1
1
1
1
1
1
1
1
1
1
1
1
1
1
1
1
1
1
1
1
1
1
1
1
1
1
1
1
1
1
1
1
1
1
1
1
1
1
1
1
1
1
1
1
1
1
1
1
1
1
1
1
1
1
1
1
1
1
1
1
1
1
1
1
1
1
1
1
1
1
1
1
1
1
1
1
1
1
1
1
1
1
1
1
1
2.44949
3.22012
3.21079
3.21723
3.23854
3.26032
3.27721
3.28708
3.28713
3.29343
3.31488
3.34029
3.36601
3.38792
3.40401
3.41978
3.43993
3.46107
3.48051
3.49673
3.51171
3.52827
3.54377
3.55423
3.55932
3.56146
3.56274
3.56314
3.56253
3.56061
3.55795
3.5549
3.55005
3.54385
3.538
3.53405
3.53308
3.53621
3.54477
3.55908
3.5769
3.59313
3.60373
3.60835
3.60946
3.6098
3.60978
3.61048
1
1
1
1
1
1
1
1
1
1
1
1
1
1
1
1
1
1
1
1
1
1
1
1
1
1
1
1
1
1
1
1
1
1
1
1
1
1
1
1
1
1
1
1
1
1
1
1
1
1
1
1
1
1
1
1
1
1
1
1
1
1
1
1
1
1
1
1
1
1
1
1
1
1
1
1
1
1
1
1
1
1
1
1
1
1
1
1
1
1
1
1
1
1
1
1
1
1
1
1
1
1
1
1
1
1
1
1
1
1
1
1
1
1
1
1
1
1
1
1
1
1
1
1
1
1
1
1
1
1
1
1
1
1
1
1
1
1
1
1
1
1
1
1
2.36258
3.19539
3.20348
3.21825
3.24112
3.26189
3.27686
3.28279
3.28158
3.29293
3.31656
3.34154
3.36615
3.38568
3.40009
3.41601
3.43529
3.45423
3.47129
3.48628
3.50214
3.52076
3.53821
3.55019
3.55651
3.55983
3.56191
3.56257
3.56192
3.55989
3.5573
3.55448
3.54984
3.54368
3.53775
3.53364
3.53251
3.53548
3.54399
3.55834
3.57625
3.59253
3.60308
3.60756
3.60861
3.6091
3.60937
3.61027
1
1
1
1
1
1
1
1
1
1
1
1
1
1
1
1
1
1
1
1
1
1
1
1
1
1
1
1
1
1
1
1
1
1
1
1
1
1
1
1
1
1
1
1
1
1
1
1
1
1
1
1
1
1
1
1
1
1
1
1
1
1
1
1
1
1
1
1
1
1
1
1
1
1
1
1
1
1
1
1
1
1
1
1
1
1
1
1
1
1
1
1
1
1
1
1
1
1
1
1
1
1
1
1
1
1
1
1
1
1
1
1
1
1
1
1
1
1
1
1
1
1
1
1
1
1
1
1
1
1
1
1
1
1
1
1
1
1
1
1
1
1
1
1
2.25934
3.15699
3.19883
3.21948
3.24436
3.2631
3.27507
3.27652
3.27697
3.29381
3.31833
3.34258
3.36571
3.38257
3.39626
3.41289
3.43103
3.44752
3.46199
3.47559
3.49219
3.51258
3.53174
3.54526
3.55307
3.55788
3.56093
3.56188
3.56116
3.55906
3.55662
3.55405
3.54962
3.54348
3.53746
3.5332
3.53192
3.53472
3.54314
3.55753
3.57554
3.59188
3.60237
3.60671
3.60768
3.60834
3.60893
3.61003
1
1
1
1
1
1
1
1
1
1
1
1
1
1
1
1
1
1
1
1
1
1
1
1
1
1
1
1
1
1
1
1
1
1
1
1
1
1
1
1
1
1
1
1
1
1
1
1
1
1
1
1
1
1
1
1
1
1
1
1
1
1
1
1
1
1
1
1
1
1
1
1
1
1
1
1
1
1
1
1
1
1
1
1
1
1
1
1
1
1
1
1
1
1
1
1
1
1
1
1
1
1
1
1
1
1
1
1
1
1
1
1
1
1
1
1
1
1
1
1
1
1
1
1
1
1
1
1
1
1
1
1
1
1
1
1
1
1
1
1
1
1
1
1
2.13385
3.10429
3.19583
3.22273
3.24727
3.2637
3.27095
3.26896
3.27445
3.29558
3.31995
3.34326
3.36433
3.37863
3.39287
3.41033
3.427
3.44091
3.45267
3.4649
3.48215
3.50388
3.52438
3.53936
3.54886
3.55548
3.55969
3.56099
3.56024
3.55817
3.55595
3.55361
3.54938
3.54324
3.53712
3.53275
3.53133
3.53393
3.54221
3.55663
3.57475
3.59116
3.6016
3.60579
3.60672
3.60754
3.60845
3.60972
1
1
1
1
1
1
1
1
1
1
1
1
1
1
1
1
1
1
1
1
1
1
1
1
1
1
1
1
1
1
1
1
1
1
1
1
1
1
1
1
1
1
1
1
1
1
1
1
1
1
1
1
1
1
1
1
1
1
1
1
1
1
1
1
1
1
1
1
1
1
1
1
1
1
1
1
1
1
1
1
1
1
1
1
1
1
1
1
1
1
1
1
1
1
1
1
1
1
1
1
1
1
1
1
1
1
1
1
1
1
1
1
1
1
1
1
1
1
1
1
1
1
1
1
1
1
1
1
1
1
1
1
1
1
1
1
1
1
1
1
1
1
1
1
1.98096
3.03714
3.1952
3.22857
3.24904
3.26274
3.26402
3.26168
3.27428
3.29773
3.32131
3.34346
3.36167
3.37415
3.39018
3.40813
3.42304
3.43431
3.44339
3.4545
3.47231
3.49484
3.51619
3.53244
3.54381
3.5525
3.55811
3.55988
3.55917
3.55724
3.55529
3.55313
3.54907
3.54293
3.53675
3.53231
3.53076
3.53312
3.54121
3.55562
3.57384
3.59035
3.60075
3.60484
3.60576
3.60672
3.60794
3.60933
1
1
1
1
1
1
1
1
1
1
1
1
1
1
1
1
1
1
1
1
1
1
1
1
1
1
1
1
1
1
1
1
1
1
1
1
1
1
1
1
1
1
1
1
1
1
1
1
1
1
1
1
1
1
1
1
1
1
1
1
1
1
1
1
1
1
1
1
1
1
1
1
1
1
1
1
1
1
1
1
1
1
1
1
1
1
1
1
1
1
1
1
1
1
1
1
1
1
1
1
1
1
1
1
1
1
1
1
1
1
1
1
1
1
1
1
1
1
1
1
1
1
1
1
1
1
1
1
1
1
1
1
1
1
1
1
1
1
1
1
1
1
1
1
1.79653
2.95622
3.19852
3.2356
3.24963
3.25799
3.25477
3.25698
3.27592
3.29996
3.3223
3.34281
3.35743
3.36979
3.3882
3.40602
3.41893
3.42759
3.43423
3.4447
3.46294
3.48564
3.50725
3.52444
3.5378
3.54883
3.55611
3.55851
3.55792
3.55625
3.55461
3.55258
3.54867
3.54256
3.53637
3.53192
3.53023
3.53232
3.54013
3.55447
3.57278
3.5894
3.59983
3.6039
3.60487
3.60593
3.60737
3.60881
1
1
1
1
1
1
1
1
1
1
1
1
1
1
1
1
1
1
1
1
1
1
1
1
1
1
1
1
1
1
1
1
1
1
1
1
1
1
1
1
1
1
1
1
1
1
1
1
1
1
1
1
1
1
1
1
1
1
1
1
1
1
1
1
1
1
1
1
1
1
1
1
1
1
1
1
1
1
1
1
1
1
1
1
1
1
1
1
1
1
1
1
1
1
1
1
1
1
1
1
1
1
1
1
1
1
1
1
1
1
1
1
1
1
1
1
1
1
1
1
1
1
1
1
1
1
1
1
1
1
1
1
1
1
1
1
1
1
1
1
1
1
1
1
1.5819
2.86505
3.2078
3.24111
3.2477
3.24907
3.24561
3.25589
3.2783
3.30195
3.32281
3.34073
3.35182
3.36633
3.38669
3.40373
3.41455
3.42057
3.42532
3.43576
3.45423
3.47642
3.49763
3.51539
3.53078
3.54439
3.55361
3.55685
3.55649
3.55518
3.55386
3.55195
3.54817
3.54215
3.53602
3.53159
3.52976
3.53153
3.53895
3.55315
3.57154
3.58831
3.59883
3.60299
3.60408
3.60518
3.60672
3.60811
1
1
1
1
1
1
1
1
1
1
1
1
1
1
1
1
1
1
1
1
1
1
1
1
1
1
1
1
1
1
1
1
1
1
1
1
1
1
1
1
1
1
1
1
1
1
1
1
1
1
1
1
1
1
1
1
1
1
1
1
1
1
1
1
1
1
1
1
1
1
1
1
1
1
1
1
1
1
1
1
1
1
1
1
1
1
1
1
1
1
1
1
1
1
1
1
1
1
1
1
1
1
1
1
1
1
1
1
1
1
1
1
1
1
1
1
1
1
1
1
1
1
1
1
1
1
1
1
1
1
1
1
1
1
1
1
1
1
1
1
1
1
1
1
1.35582
2.77265
3.22052
3.24257
3.24027
3.23784
3.23968
3.25735
3.28095
3.30348
3.32263
3.33648
3.3459
3.36432
3.38528
3.40099
3.4097
3.41315
3.41688
3.42786
3.4462
3.46721
3.4874
3.50539
3.52279
3.53909
3.55045
3.55476
3.55486
3.554
3.55302
3.55121
3.54755
3.54171
3.53571
3.53132
3.52937
3.53076
3.53769
3.55166
3.57009
3.58706
3.59778
3.60218
3.60344
3.60448
3.60597
3.6072
1
1
1
1
1
1
1
1
1
1
1
1
1
1
1
1
1
1
1
1
1
1
1
1
1
1
1
1
1
1
1
1
1
1
1
1
1
1
1
1
1
1
1
1
1
1
1
1
1
1
1
1
1
1
1
1
1
1
1
1
1
1
1
1
1
1
1
1
1
1
1
1
1
1
1
1
1
1
1
1
1
1
1
1
1
1
1
1
1
1
1
1
1
1
1
1
1
1
1
1
1
1
1
1
1
1
1
1
1
1
1
1
1
1
1
1
1
1
1
1
1
1
1
1
1
1
1
1
1
1
1
1
1
1
1
1
1
1
1
1
1
1
1
1
1.15376
2.68343
3.22986
3.23823
3.22921
3.22811
3.23845
3.25993
3.28349
3.30426
3.32093
3.32987
3.34141
3.36339
3.3837
3.39762
3.40413
3.40546
3.40922
3.42106
3.43875
3.45802
3.47667
3.49464
3.51398
3.53291
3.54642
3.55215
3.55301
3.55265
3.55209
3.55038
3.54682
3.54123
3.53543
3.53112
3.52903
3.53
3.53634
3.54998
3.56842
3.58566
3.59672
3.60148
3.60293
3.60384
3.60511
3.60605
1
1
1
1
1
1
1
1
1
1
1
1
1
1
1
1
1
1
1
1
1
1
1
1
1
1
1
1
1
1
1
1
1
1
1
1
1
1
1
1
1
1
1
1
1
1
1
1
1
1
1
1
1
1
1
1
1
1
1
1
1
1
1
1
1
1
1
1
1
1
1
1
1
1
1
1
1
1
1
1
1
1
1
1
1
1
1
1
1
1
1
1
1
1
1
1
1
1
1
1
1
1
1
1
1
1
1
1
1
1
1
1
1
1
1
1
1
1
1
1
1
1
1
1
1
1
1
1
1
1
1
1
1
1
1
1
1
1
1
1
1
1
1
1
1.01368
2.58766
3.22995
3.22762
3.21702
3.22243
3.24006
3.26297
3.28551
3.3041
3.31615
3.32249
3.33957
3.36291
3.38176
3.39351
3.39745
3.39768
3.40266
3.41525
3.4317
3.44884
3.46556
3.4834
3.50453
3.52581
3.54141
3.54881
3.55087
3.55122
3.55101
3.5494
3.5459
3.54069
3.53517
3.53096
3.52873
3.52925
3.53495
3.54819
3.56658
3.58413
3.59567
3.6009
3.60253
3.60324
3.60413
3.60468
1
1
1
1
1
1
1
1
1
1
1
1
1
1
1
1
1
1
1
1
1
1
1
1
1
1
1
1
1
1
1
1
1
1
1
1
1
1
1
1
1
1
1
1
1
1
1
1
1
1
1
1
1
1
1
1
1
1
1
1
1
1
1
1
1
1
1
1
1
1
1
1
1
1
1
1
1
1
1
1
1
1
1
1
1
1
1
1
1
1
1
1
1
1
1
1
1
1
1
1
1
1
1
1
1
1
1
1
1
1
1
1
1
1
1
1
1
1
1
1
1
1
1
1
1
1
1
1
1
1
1
1
1
1
1
1
1
1
1
1
1
1
1
1
1
2.47786
3.21402
3.21173
3.2086
3.22243
3.24299
3.26603
3.28643
3.30165
3.30782
3.31737
3.33961
3.3623
3.37925
3.38847
3.38968
3.39021
3.39731
3.41017
3.42489
3.43958
3.45425
3.47202
3.49463
3.5178
3.53531
3.5446
3.54836
3.54965
3.54976
3.54823
3.5448
3.54008
3.53491
3.53082
3.52841
3.52846
3.53355
3.54631
3.5646
3.5825
3.59463
3.6004
3.60219
3.60264
3.60307
3.60311
1
1
1
1
1
1
1
1
1
1
1
1
1
1
1
1
1
1
1
1
1
1
1
1
1
1
1
1
1
1
1
1
1
1
1
1
1
1
1
1
1
1
1
1
1
1
1
1
1
1
1
1
1
1
1
1
1
1
1
1
1
1
1
1
1
1
1
1
1
1
1
1
1
1
1
1
1
1
1
1
1
1
1
1
1
1
1
1
1
1
1
1
1
1
1
1
1
1
1
1
1
1
1
1
1
1
1
1
1
1
1
1
1
1
1
1
1
1
1
1
1
1
1
1
1
1
1
1
1
1
1
1
1
1
1
1
1
1
1
1
1
1
1
1
1
2.33081
3.1756
3.19616
3.20542
3.22524
3.24707
3.26831
3.28578
3.29428
3.29901
3.31629
3.34053
3.36126
3.3758
3.38195
3.3814
3.3838
3.393
3.40538
3.41811
3.43017
3.44296
3.46081
3.48446
3.50889
3.52803
3.53941
3.54531
3.54784
3.54832
3.5468
3.5435
3.53935
3.53458
3.53066
3.52804
3.52765
3.53221
3.54441
3.56254
3.5808
3.59359
3.59994
3.60185
3.60204
3.60194
3.60139
1
1
1
1
1
1
1
1
1
1
1
1
1
1
1
1
1
1
1
1
1
1
1
1
1
1
1
1
1
1
1
1
1
1
1
1
1
1
1
1
1
1
1
1
1
1
1
1
1
1
1
1
1
1
1
1
1
1
1
1
1
1
1
1
1
1
1
1
1
1
1
1
1
1
1
1
1
1
1
1
1
1
1
1
1
1
1
1
1
1
1
1
1
1
1
1
1
1
1
1
1
1
1
1
1
1
1
1
1
1
1
1
1
1
1
1
1
1
1
1
1
1
1
1
1
1
1
1
1
1
1
1
1
1
1
1
1
1
1
1
1
1
1
1
1
2.13865
3.10685
3.18587
3.20611
3.22942
3.25109
3.26876
3.28016
3.28336
3.29404
3.31757
3.34139
3.35966
3.37109
3.37368
3.37336
3.37893
3.38934
3.4006
3.41112
3.42054
3.43198
3.45008
3.47415
3.49909
3.51949
3.53317
3.54162
3.54569
3.54663
3.54511
3.54207
3.53851
3.53413
3.53038
3.52761
3.52686
3.53093
3.54253
3.56044
3.57903
3.59249
3.5994
3.60146
3.60141
3.60073
3.59963
1
1
1
1
1
1
1
1
1
1
1
1
1
1
1
1
1
1
1
1
1
1
1
1
1
1
1
1
1
1
1
1
1
1
1
1
1
1
1
1
1
1
1
1
1
1
1
1
1
1
1
1
1
1
1
1
1
1
1
1
1
1
1
1
1
1
1
1
1
1
1
1
1
1
1
1
1
1
1
1
1
1
1
1
1
1
1
1
1
1
1
1
1
1
1
1
1
1
1
1
1
1
1
1
1
1
1
1
1
1
1
1
1
1
1
1
1
1
1
1
1
1
1
1
1
1
1
1
1
1
1
1
1
1
1
1
1
1
1
1
1
1
1
1
1
1.89093
3.00064
3.18263
3.21257
3.23435
3.25293
3.26456
3.2688
3.27417
3.29425
3.32008
3.3416
3.35707
3.36429
3.36423
3.36654
3.37553
3.38593
3.39565
3.40369
3.41075
3.42168
3.44004
3.4638
3.48846
3.50969
3.52581
3.53721
3.5431
3.5446
3.54315
3.54051
3.53748
3.53351
3.52993
3.52711
3.52611
3.52971
3.54071
3.55834
3.57719
3.59128
3.59871
3.60093
3.60069
3.59947
3.59797
1
1
1
1
1
1
1
1
1
1
1
1
1
1
1
1
1
1
1
1
1
1
1
1
1
1
1
1
1
1
1
1
1
1
1
1
1
1
1
1
1
1
1
1
1
1
1
1
1
1
1
1
1
1
1
1
1
1
1
1
1
1
1
1
1
1
1
1
1
1
1
1
1
1
1
1
1
1
1
1
1
1
1
1
1
1
1
1
1
1
1
1
1
1
1
1
1
1
1
1
1
1
1
1
1
1
1
1
1
1
1
1
1
1
1
1
1
1
1
1
1
1
1
1
1
1
1
1
1
1
1
1
1
1
1
1
1
1
1
1
1
1
1
1
1
1.59216
2.87068
3.19096
3.22386
3.23503
3.24969
3.25371
3.25692
3.27121
3.29693
3.3223
3.34103
3.3527
3.35476
3.35507
3.36197
3.37285
3.38254
3.39026
3.39559
3.40111
3.41241
3.43079
3.45345
3.47706
3.49867
3.5173
3.53196
3.53998
3.54214
3.54098
3.53881
3.53622
3.53271
3.52931
3.52653
3.52541
3.52858
3.53896
3.55624
3.57525
3.58988
3.59779
3.60018
3.5998
3.59817
3.5965
1
1
1
1
1
1
1
1
1
1
1
1
1
1
1
1
1
1
1
1
1
1
1
1
1
1
1
1
1
1
1
1
1
1
1
1
1
1
1
1
1
1
1
1
1
1
1
1
1
1
1
1
1
1
1
1
1
1
1
1
1
1
1
1
1
1
1
1
1
1
1
1
1
1
1
1
1
1
1
1
1
1
1
1
1
1
1
1
1
1
1
1
1
1
1
1
1
1
1
1
1
1
1
1
1
1
1
1
1
1
1
1
1
1
1
1
1
1
1
1
1
1
1
1
1
1
1
1
1
1
1
1
1
1
1
1
1
1
1
1
1
1
1
1
1
1.28737
2.74287
3.20882
3.22829
3.23042
3.23864
3.24107
3.24977
3.2729
3.30067
3.32348
3.33901
3.3448
3.34403
3.34793
3.35928
3.37031
3.37876
3.38405
3.38684
3.39213
3.40445
3.42228
3.44312
3.465
3.48662
3.50773
3.52571
3.53616
3.53922
3.53856
3.53687
3.53475
3.53169
3.52847
3.52585
3.52474
3.52753
3.53732
3.55416
3.57318
3.58824
3.5966
3.59916
3.59873
3.59688
3.59528
1
1
1
1
1
1
1
1
1
1
1
1
1
1
1
1
1
1
1
1
1
1
1
1
1
1
1
1
1
1
1
1
1
1
1
1
1
1
1
1
1
1
1
1
1
1
1
1
1
1
1
1
1
1
1
1
1
1
1
1
1
1
1
1
1
1
1
1
1
1
1
1
1
1
1
1
1
1
1
1
1
1
1
1
1
1
1
1
1
1
1
1
1
1
1
1
1
1
1
1
1
1
1
1
1
1
1
1
1
1
1
1
1
1
1
1
1
1
1
1
1
1
1
1
1
1
1
1
1
1
1
1
1
1
1
1
1
1
1
1
1
1
1
1
1
1.05051
2.62002
3.21773
3.22597
3.21963
3.22572
3.23148
3.24969
3.27698
3.30383
3.32326
3.33366
3.33354
3.33442
3.34419
3.35715
3.36764
3.37401
3.37639
3.37775
3.38445
3.39787
3.41439
3.43279
3.45239
3.47383
3.49727
3.51839
3.53143
3.53572
3.53582
3.5347
3.53307
3.53043
3.5274
3.52507
3.5241
3.52655
3.53578
3.5521
3.57097
3.58633
3.59507
3.59782
3.59745
3.59562
3.5943
1
1
1
1
1
1
1
1
1
1
1
1
1
1
1
1
1
1
1
1
1
1
1
1
1
1
1
1
1
1
1
1
1
1
1
1
1
1
1
1
1
1
1
1
1
1
1
1
1
1
1
1
1
1
1
1
1
1
1
1
1
1
1
1
1
1
1
1
1
1
1
1
1
1
1
1
1
1
1
1
1
1
1
1
1
1
1
1
1
1
1
1
1
1
1
1
1
1
1
1
1
1
1
1
1
1
1
1
1
1
1
1
1
1
1
1
1
1
1
1
1
1
1
1
1
1
1
1
1
1
1
1
1
1
1
1
1
1
1
1
1
1
1
1
1
1.00012
2.47922
3.20335
3.21366
3.20729
3.21533
3.22943
3.25324
3.28162
3.30516
3.32046
3.32294
3.32201
3.32862
3.34257
3.35496
3.36401
3.36771
3.36744
3.36915
3.37839
3.39232
3.40686
3.42235
3.43942
3.46069
3.48615
3.50995
3.52549
3.5316
3.53276
3.53224
3.53114
3.52886
3.52607
3.52416
3.5234
3.52559
3.53431
3.55005
3.56862
3.58414
3.5932
3.59616
3.59601
3.59445
3.59351
1
1
1
1
1
1
1
1
1
1
1
1
1
1
1
1
1
1
1
1
1
1
1
1
1
1
1
1
1
1
1
1
1
1
1
1
1
1
1
1
1
1
1
1
1
1
1
1
1
1
1
1
1
1
1
1
1
1
1
1
1
1
1
1
1
1
1
1
1
1
1
1
1
1
1
1
1
1
1
1
1
1
1
1
1
1
1
1
1
1
1
1
1
1
1
1
1
1
1
1
1
1
1
1
1
1
1
1
1
1
1
1
1
1
1
1
1
1
1
1
1
1
1
1
1
1
1
1
1
1
1
1
1
1
1
1
1
1
1
1
1
1
1
1
1
1
2.28822
3.15336
3.1933
3.1981
3.21267
3.23264
3.25865
3.28457
3.30401
3.31095
3.31026
3.31372
3.32707
3.3409
3.35247
3.35885
3.3594
3.35801
3.36209
3.3737
3.38716
3.39941
3.41166
3.42637
3.44766
3.47461
3.50041
3.51826
3.52656
3.52923
3.52969
3.52897
3.52694
3.52452
3.52308
3.52259
3.52462
3.53287
3.54798
3.56616
3.58165
3.59095
3.59427
3.59447
3.59329
3.59277
1
1
1
1
1
1
1
1
1
1
1
1
1
1
1
1
1
1
1
1
1
1
1
1
1
1
1
1
1
1
1
1
1
1
1
1
1
1
1
1
1
1
1
1
1
1
1
1
1
1
1
1
1
1
1
1
1
1
1
1
1
1
1
1
1
1
1
1
1
1
1
1
1
1
1
1
1
1
1
1
1
1
1
1
1
1
1
1
1
1
1
1
1
1
1
1
1
1
1
1
1
1
1
1
1
1
1
1
1
1
1
1
1
1
1
1
1
1
1
1
1
1
1
1
1
1
1
1
1
1
1
1
1
1
1
1
1
1
1
1
1
1
1
1
1
1
2.01942
3.05667
3.17406
3.19551
3.21628
3.23891
3.26255
3.2846
3.29575
3.29746
3.29969
3.31159
3.3263
3.33906
3.34857
3.35141
3.3494
3.34945
3.35716
3.36979
3.38197
3.39157
3.40062
3.4137
3.43518
3.46284
3.48976
3.50954
3.52043
3.52525
3.52697
3.52644
3.52466
3.52275
3.52178
3.52159
3.52357
3.53137
3.54585
3.56361
3.57898
3.58841
3.59216
3.59283
3.59212
3.59202
1
1
1
1
1
1
1
1
1
1
1
1
1
1
1
1
1
1
1
1
1
1
1
1
1
1
1
1
1
1
1
1
1
1
1
1
1
1
1
1
1
1
1
1
1
1
1
1
1
1
1
1
1
1
1
1
1
1
1
1
1
1
1
1
1
1
1
1
1
1
1
1
1
1
1
1
1
1
1
1
1
1
1
1
1
1
1
1
1
1
1
1
1
1
1
1
1
1
1
1
1
1
1
1
1
1
1
1
1
1
1
1
1
1
1
1
1
1
1
1
1
1
1
1
1
1
1
1
1
1
1
1
1
1
1
1
1
1
1
1
1
1
1
1
1
1
1.66837
2.90578
3.16794
3.20178
3.22254
3.24368
3.26287
3.27719
3.28211
3.28529
3.29611
3.31171
3.32517
3.33648
3.34229
3.34141
3.33906
3.3431
3.35385
3.36617
3.37628
3.38295
3.38947
3.40203
3.42359
3.45095
3.47799
3.49926
3.51314
3.52076
3.5238
3.52356
3.52213
3.5207
3.52021
3.52036
3.52239
3.52973
3.54362
3.56099
3.5762
3.58569
3.58984
3.59108
3.59085
3.59113
1
1
1
1
1
1
1
1
1
1
1
1
1
1
1
1
1
1
1
1
1
1
1
1
1
1
1
1
1
1
1
1
1
1
1
1
1
1
1
1
1
1
1
1
1
1
1
1
1
1
1
1
1
1
1
1
1
1
1
1
1
1
1
1
1
1
1
1
1
1
1
1
1
1
1
1
1
1
1
1
1
1
1
1
1
1
1
1
1
1
1
1
1
1
1
1
1
1
1
1
1
1
1
1
1
1
1
1
1
1
1
1
1
1
1
1
1
1
1
1
1
1
1
1
1
1
1
1
1
1
1
1
1
1
1
1
1
1
1
1
1
1
1
1
1
1
1.29225
2.74135
3.18103
3.21232
3.22429
3.24355
3.25553
3.26378
3.26921
3.27986
3.29688
3.31175
3.32366
3.33162
3.3321
3.32944
3.33079
3.33958
3.35108
3.36222
3.36952
3.37333
3.37893
3.39196
3.41298
3.43893
3.46507
3.48749
3.50468
3.51563
3.52011
3.52038
3.51932
3.51833
3.51838
3.51889
3.52096
3.5279
3.54128
3.55829
3.57338
3.58295
3.58737
3.58911
3.58947
3.59003
1
1
1
1
1
1
1
1
1
1
1
1
1
1
1
1
1
1
1
1
1
1
1
1
1
1
1
1
1
1
1
1
1
1
1
1
1
1
1
1
1
1
1
1
1
1
1
1
1
1
1
1
1
1
1
1
1
1
1
1
1
1
1
1
1
1
1
1
1
1
1
1
1
1
1
1
1
1
1
1
1
1
1
1
1
1
1
1
1
1
1
1
1
1
1
1
1
1
1
1
1
1
1
1
1
1
1
1
1
1
1
1
1
1
1
1
1
1
1
1
1
1
1
1
1
1
1
1
1
1
1
1
1
1
1
1
1
1
1
1
1
1
1
1
1
1
1.01678
2.58606
3.19721
3.21682
3.21896
3.23402
3.24312
3.25105
3.26237
3.2811
3.29855
3.31128
3.32012
3.3218
3.31919
3.3187
3.32611
3.3375
3.34837
3.35698
3.36087
3.36323
3.3699
3.38364
3.40321
3.42666
3.45107
3.47442
3.49512
3.50963
3.51592
3.5169
3.51611
3.5157
3.5162
3.51706
3.5192
3.52587
3.53883
3.55553
3.57057
3.5803
3.58489
3.58699
3.58784
3.58855
1
1
1
1
1
1
1
1
1
1
1
1
1
1
1
1
1
1
1
1
1
1
1
1
1
1
1
1
1
1
1
1
1
1
1
1
1
1
1
1
1
1
1
1
1
1
1
1
1
1
1
1
1
1
1
1
1
1
1
1
1
1
1
1
1
1
1
1
1
1
1
1
1
1
1
1
1
1
1
1
1
1
1
1
1
1
1
1
1
1
1
1
1
1
1
1
1
1
1
1
1
1
1
1
1
1
1
1
1
1
1
1
1
1
1
1
1
1
1
1
1
1
1
1
1
1
1
1
1
1
1
1
1
1
1
1
1
1
1
1
1
1
1
1
1
1
1.00001
2.39996
3.17638
3.2096
3.20757
3.22192
3.23171
3.24392
3.26393
3.28463
3.29926
3.30883
3.31095
3.30823
3.30653
3.31211
3.3243
3.33562
3.34457
3.34939
3.35043
3.3537
3.363
3.37672
3.39394
3.41399
3.43616
3.46049
3.48453
3.50254
3.51102
3.51294
3.51256
3.51285
3.51369
3.51478
3.51708
3.52363
3.53627
3.55273
3.56778
3.57773
3.58246
3.58472
3.58587
3.5866
1
1
1
1
1
1
1
1
1
1
1
1
1
1
1
1
1
1
1
1
1
1
1
1
1
1
1
1
1
1
1
1
1
1
1
1
1
1
1
1
1
1
1
1
1
1
1
1
1
1
1
1
1
1
1
1
1
1
1
1
1
1
1
1
1
1
1
1
1
1
1
1
1
1
1
1
1
1
1
1
1
1
1
1
1
1
1
1
1
1
1
1
1
1
1
1
1
1
1
1
1
1
1
1
1
1
1
1
1
1
1
1
1
1
1
1
1
1
1
1
1
1
1
1
1
1
1
1
1
1
1
1
1
1
1
1
1
1
1
1
1
1
1
1
1
1
1
2.12723
3.09463
3.18947
3.19777
3.21265
3.22618
3.24605
3.26917
3.28667
3.29752
3.2998
3.29703
3.29436
3.29798
3.31041
3.32287
3.33294
3.33838
3.33909
3.33961
3.34624
3.35792
3.37052
3.38468
3.40078
3.42084
3.44627
3.47312
3.49412
3.50497
3.50828
3.50884
3.50984
3.51084
3.51204
3.51454
3.5211
3.5336
3.54992
3.56503
3.57517
3.5801
3.58237
3.58354
3.58426
1
1
1
1
1
1
1
1
1
1
1
1
1
1
1
1
1
1
1
1
1
1
1
1
1
1
1
1
1
1
1
1
1
1
1
1
1
1
1
1
1
1
1
1
1
1
1
1
1
1
1
1
1
1
1
1
1
1
1
1
1
1
1
1
1
1
1
1
1
1
1
1
1
1
1
1
1
1
1
1
1
1
1
1
1
1
1
1
1
1
1
1
1
1
1
1
1
1
1
1
1
1
1
1
1
1
1
1
1
1
1
1
1
1
1
1
1
1
1
1
1
1
1
1
1
1
1
1
1
1
1
1
1
1
1
1
1
1
1
1
1
1
1
1
1
1
1
1.74523
2.94077
3.1682
3.19248
3.20963
3.22961
3.25254
3.27246
3.28479
3.28767
3.28559
3.28277
3.28455
3.29592
3.30959
3.32121
3.32778
3.32858
3.32739
3.33056
3.3413
3.35368
3.36435
3.37483
3.38717
3.40592
3.43234
3.46101
3.48416
3.49744
3.50286
3.50497
3.50658
3.50762
3.50885
3.51156
3.51831
3.5308
3.54709
3.56229
3.57259
3.5777
3.57986
3.58091
3.58158
1
1
1
1
1
1
1
1
1
1
1
1
1
1
1
1
1
1
1
1
1
1
1
1
1
1
1
1
1
1
1
1
1
1
1
1
1
1
1
1
1
1
1
1
1
1
1
1
1
1
1
1
1
1
1
1
1
1
1
1
1
1
1
1
1
1
1
1
1
1
1
1
1
1
1
1
1
1
1
1
1
1
1
1
1
1
1
1
1
1
1
1
1
1
1
1
1
1
1
1
1
1
1
1
1
1
1
1
1
1
1
1
1
1
1
1
1
1
1
1
1
1
1
1
1
1
1
1
1
1
1
1
1
1
1
1
1
1
1
1
1
1
1
1
1
1
1
1.31104
2.74367
3.16354
3.19643
3.21427
3.23628
3.25596
3.26957
3.2736
3.27312
3.27149
3.27239
3.28223
3.29571
3.30853
3.31723
3.31848
3.31629
3.31676
3.32495
3.33784
3.34941
3.35738
3.36399
3.37384
3.39228
3.41907
3.4482
3.47256
3.48825
3.49658
3.50073
3.50299
3.50397
3.50522
3.50821
3.51529
3.52785
3.54414
3.5595
3.56996
3.57518
3.57719
3.57809
3.57863
1
1
1
1
1
1
1
1
1
1
1
1
1
1
1
1
1
1
1
1
1
1
1
1
1
1
1
1
1
1
1
1
1
1
1
1
1
1
1
1
1
1
1
1
1
1
1
1
1
1
1
1
1
1
1
1
1
1
1
1
1
1
1
1
1
1
1
1
1
1
1
1
1
1
1
1
1
1
1
1
1
1
1
1
1
1
1
1
1
1
1
1
1
1
1
1
1
1
1
1
1
1
1
1
1
1
1
1
1
1
1
1
1
1
1
1
1
1
1
1
1
1
1
1
1
1
1
1
1
1
1
1
1
1
1
1
1
1
1
1
1
1
1
1
1
1
1
1.00763
2.55908
3.17456
3.20477
3.21693
3.23753
3.25078
3.25683
3.25899
3.25949
3.26129
3.27037
3.28255
3.29521
3.30545
3.30805
3.30587
3.3044
3.30976
3.32192
3.33469
3.34402
3.34878
3.35268
3.36194
3.38046
3.40649
3.43462
3.45925
3.47742
3.48933
3.49593
3.49892
3.49992
3.50128
3.50465
3.51208
3.5247
3.541
3.55655
3.56722
3.57247
3.57438
3.57512
3.57546
1
1
1
1
1
1
1
1
1
1
1
1
1
1
1
1
1
1
1
1
1
1
1
1
1
1
1
1
1
1
1
1
1
1
1
1
1
1
1
1
1
1
1
1
1
1
1
1
1
1
1
1
1
1
1
1
1
1
1
1
1
1
1
1
1
1
1
1
1
1
1
1
1
1
1
1
1
1
1
1
1
1
1
1
1
1
1
1
1
1
1
1
1
1
1
1
1
1
1
1
1
1
1
1
1
1
1
1
1
1
1
1
1
1
1
1
1
1
1
1
1
1
1
1
1
1
1
1
1
1
1
1
1
1
1
1
1
1
1
1
1
1
1
1
1
1
1
1.00001
2.33341
3.15074
3.20255
3.20978
3.22868
3.23805
3.2428
3.24586
3.25037
3.2601
3.27135
3.28268
3.29253
3.2961
3.29462
3.29277
3.29633
3.30698
3.31942
3.33051
3.33634
3.33846
3.34206
3.35239
3.37046
3.39427
3.4201
3.4444
3.46521
3.48095
3.49023
3.4942
3.49545
3.49714
3.50097
3.50866
3.52129
3.53757
3.55332
3.56426
3.56962
3.57144
3.57204
3.57219
1
1
1
1
1
1
1
1
1
1
1
1
1
1
1
1
1
1
1
1
1
1
1
1
1
1
1
1
1
1
1
1
1
1
1
1
1
1
1
1
1
1
1
1
1
1
1
1
1
1
1
1
1
1
1
1
1
1
1
1
1
1
1
1
1
1
1
1
1
1
1
1
1
1
1
1
1
1
1
1
1
1
1
1
1
1
1
1
1
1
1
1
1
1
1
1
1
1
1
1
1
1
1
1
1
1
1
1
1
1
1
1
1
1
1
1
1
1
1
1
1
1
1
1
1
1
1
1
1
1
1
1
1
1
1
1
1
1
1
1
1
1
1
1
1
1
1
1
1.98434
3.03946
3.18248
3.19998
3.21784
3.2253
3.23105
3.2393
3.25039
3.26167
3.27185
3.27985
3.28271
3.28179
3.28057
3.28354
3.29375
3.30523
3.3162
3.32367
3.32588
3.32771
3.33362
3.34515
3.36164
3.38199
3.40459
3.4285
3.45209
3.47147
3.48339
3.48863
3.49057
3.49288
3.49716
3.50499
3.51755
3.5338
3.54975
3.56103
3.56657
3.56837
3.56886
3.56886
1
1
1
1
1
1
1
1
1
1
1
1
1
1
1
1
1
1
1
1
1
1
1
1
1
1
1
1
1
1
1
1
1
1
1
1
1
1
1
1
1
1
1
1
1
1
1
1
1
1
1
1
1
1
1
1