/*--------------------------------*- C++ -*----------------------------------*\
  =========                 |
  \\      /  F ield         | OpenFOAM: The Open Source CFD Toolbox
   \\    /   O peration     | Website:  https://openfoam.org
    \\  /    A nd           | Version:  7
     \\/     M anipulation  |
\*---------------------------------------------------------------------------*/
FoamFile
{
    version     2.0;
    format      ascii;
    class       volScalarField;
    location    "0.9";
    object      p;
}
// * * * * * * * * * * * * * * * * * * * * * * * * * * * * * * * * * * * * * //

dimensions      [1 -1 -2 0 0 0 0];

internalField   nonuniform List<scalar> 
4032
(
1
1
1
1
1
1
1
1
1
1
1
1
1
3.27576
10.2098
11.0691
11.243
11.4374
11.6167
11.7731
11.8905
11.9413
11.988
12.0077
1
1
1
1
1
1
1
1
1
1
1
1
1
3.15648
10.0573
11.0304
11.2169
11.4122
11.5859
11.7382
11.8533
11.8972
11.9305
11.9379
1
1
1
1
1
1
1
1
1
1
1
1
1
2.88441
9.79826
10.9594
11.1595
11.3637
11.5406
11.6937
11.8067
11.8408
11.8535
11.8433
1
1
1
1
1
1
1
1
1
1
1
1
1
2.50082
9.385
10.8733
11.0691
11.2889
11.4693
11.624
11.7307
11.7473
11.7352
11.6975
1
1
1
1
1
1
1
1
1
1
1
1
1
1.99217
8.75683
10.7859
10.9425
11.1828
11.3682
11.5113
11.5893
11.5751
11.5403
11.5088
1
1
1
1
1
1
1
1
1
1
1
1
1
1.4293
7.90286
10.7552
10.8641
11.0781
11.2337
11.3459
11.3916
11.3604
11.3082
11.2011
1
1
1
1
1
1
1
1
1
1
1
1
1
1.02846
6.68854
10.4975
10.6695
10.8668
11.0194
11.1147
11.1054
10.9763
10.8294
10.7339
1
1
1
1
1
1
1
1
1
1
1
1
1
1.00024
5.15069
10.087
10.5219
10.6952
10.8238
10.871
10.8047
10.6345
10.3997
10.3196
1
1
1
1
1
1
1
1
1
1
1
1
1
1
3.49497
9.38178
10.3803
10.4731
10.5792
10.5884
10.4352
10.0969
9.22142
7.21596
1
1
1
1
1
1
1
1
1
1
1
1
1
1
1.93822
8.40343
10.35
10.2855
10.2466
10.1698
9.92025
9.42337
8.46637
6.38418
1
1
1
1
1
1
1
1
1
1
1
1
1
1
1.08515
6.78613
9.92396
9.86287
9.85652
9.71125
9.37296
8.78827
7.86336
5.94184
1
1
1
1
1
1
1
1
1
1
1
1
1
1
1.00074
4.39412
9.28932
9.69957
9.63739
9.41525
8.98457
8.40829
7.37555
5.88242
1
1
1
1
1
1
1
1
1
1
1
1
1
1
0.999999
2.08997
8.21007
9.71841
9.43117
9.10884
8.62981
8.03041
7.06192
5.88793
1
1
1
1
1
1
1
1
1
1
1
1
1
1
1
1.09621
6.30941
9.35359
9.01727
8.74904
8.32742
7.72826
6.90904
5.97465
1
1
1
1
1
1
1
1
1
1
1
1
1
1
1
1.00066
3.42628
8.60635
8.90925
8.6304
8.15907
7.56796
6.83112
6.02485
1
1
1
1
1
1
1
1
1
1
1
1
1
1
1
0.999999
1.34804
6.86975
8.8303
8.43987
7.99318
7.4419
6.78198
6.08014
1
1
1
1
1
1
1
1
1
1
1
1
1
1
1
1
1.00936
3.93096
8.10382
8.24409
7.8568
7.36427
6.77369
6.1499
1
1
1
1
1
1
1
1
1
1
1
1
1
1
1
1
1.00001
1.50456
6.54933
8.24316
7.77382
7.31444
6.77015
6.19994
1
1
1
1
1
1
1
1
1
1
1
1
1
1
1
1
1
1.01853
3.38432
7.46369
7.71155
7.25203
6.77851
6.26136
1
1
1
1
1
1
1
1
1
1
1
1
1
1
1
1
1
1.00008
1.33957
5.5313
7.70299
7.26826
6.8004
6.31043
1
1
1
1
1
1
1
1
1
1
1
1
1
1
1
1
1
1
1.00842
2.38365
6.57187
7.32198
6.80725
6.38381
1
1
1
1
1
1
1
1
1
1
1
1
1
1
1
1
1
1
1.00003
1.11993
3.83929
6.80907
6.81776
6.38722
1
1
1
1
1
1
1
1
1
1
1
1
1
1
1
1
1
1
1
1.00171
1.51021
4.94516
6.75685
6.50126
1
1
1
1
1
1
1
1
1
1
1
1
1
1
1
1
1
1
1
1
1.01919
2.14506
5.51415
6.49771
1
1
1
1
1
1
1
1
1
1
1
1
1
1
1
1
1
1
1
1
1.00013
1.08728
2.79455
5.70939
1
1
1
1
1
1
1
1
1
1
1
1
1
1
1
1
1
1
1
1
1
1.00124
1.2139
3.30681
1
1
1
1
1
1
1
1
1
1
1
1
1
1
1
1
1
1
1
1
1
1
1.00493
1.37219
1
1
1
1
1
1
1
1
1
1
1
1
1
1
1
1
1
1
1
1
1
1
1.00002
1.01235
1
1
1
1
1
1
1
1
1
1
1
1
1
1
1
1
1
1
1
1
1
1
1
1.00008
1
1
1
1
1
1
1
1
1
1
1
1
1
1
1
1
1
1
1
1
1
1
1
1
1
1
1
1
1
1
1
1
1
1
1
1
1
1
1
1
1
1
1
1
1
1
1
1
1
1
1
1
1
1
1
1
1
1
1
1
1
1
1
1
1
1
1
1
1
1
1
1
1
1
1
1
1
1
1
1
1
1
1
1
1
1
1
1
1
1
1
1
1
1
1
1
1
1
1
1
1
1
1
1
1
1
1
1
1
1
1
1
1
1
1
1
1
1
1
1
1
1
1
1
1
1
1
1
1
1
1
1
1
1
1
1
1
1
1
1
1
1
1
1
1
1
1
1
1
1
1
1
1
1
1
1
1
1
1
1
1
1
1
1
1
1
1
1
1
1
1
1
1
1
1
1
1
1
1
1
1
1
1
1
1
1
1
1
1
1
1
1
1
1
1
1
1
1
1
1
1
1
1
1
1
1
1
1
1
1
1
1
1
1
1
1
1
1
1
1
1
1
1
1
1
1
1
1
1
1
1
1
1
1
1
1
1
1
1
1
1
1
1
1
1
1
1
1
1
1
1
1
1
1
1
1
1
1
1
1
1
1
1
1
1.58259
0.377085
0.211684
0.176497
0.180179
0.213363
0.3222
0.478028
0.641497
0.767359
0.897594
0.997987
1.01069
1.02502
1.06917
1.11027
1.11479
1.11713
1.12344
1.11662
1.11247
1.10882
1.1045
1.09749
1.08045
1.06435
1.05056
1.03886
1.02994
1.01767
1.00986
1.01524
1.02307
1.02329
1.01641
0.99924
0.975078
0.954085
0.943723
0.941652
0.940345
0.938738
0.937918
0.936127
0.93135
0.924578
0.916282
0.907685
0.899141
0.887882
0.880856
0.877512
0.874885
0.871304
0.868596
0.866501
0.861918
0.849223
0.829773
0.812008
0.806219
0.809077
0.816648
0.830987
0.852573
0.872363
0.882492
0.887051
0.882351
0.860047
0.852094
0.856106
0.860261
0.869866
0.886674
0.900733
0.904723
0.905164
0.899473
0.896782
0.895591
0.893706
0.893896
0.90093
0.924116
0.94833
0.950341
0.945393
0.934004
0.920013
0.918046
0.921806
0.927831
0.93373
0.94412
0.96466
2.84468
1.37563
0.84379
0.699787
0.568527
0.49739
0.50116
0.511892
0.519691
0.559646
0.621
0.698074
0.779414
0.854566
0.920356
0.975674
1.00367
1.02157
1.04123
1.06603
1.07562
1.07257
1.07425
1.0781
1.07308
1.06444
1.05708
1.0502
1.04154
1.0338
1.0268
1.02202
1.01953
1.0156
1.00593
0.989749
0.971352
0.955259
0.945292
0.943508
0.942183
0.938487
0.93344
0.927656
0.923669
0.918706
0.911604
0.902704
0.894083
0.885447
0.876939
0.869284
0.862568
0.857896
0.856675
0.85509
0.851578
0.847029
0.843137
0.838731
0.831955
0.826236
0.826562
0.833311
0.847199
0.860334
0.868808
0.87671
0.879585
0.875887
0.865805
0.86175
0.863645
0.868753
0.878521
0.890781
0.901758
0.905795
0.907376
0.90884
0.909715
0.908437
0.905468
0.905761
0.917991
0.935833
0.944341
0.944025
0.942438
0.935561
0.929902
0.93039
0.93244
0.932257
0.937164
0.951148
3.63512
2.40097
1.62796
1.24199
0.979704
0.788544
0.722916
0.677909
0.591652
0.581877
0.608826
0.650549
0.701234
0.761689
0.810249
0.855378
0.897761
0.935636
0.980262
1.04145
1.06781
1.06968
1.08241
1.0995
1.10125
1.09034
1.0713
1.06
1.05528
1.04635
1.03284
1.01959
1.00928
1.00319
0.993181
0.978451
0.964444
0.951931
0.948843
0.952743
0.955965
0.955081
0.951582
0.944883
0.933017
0.919726
0.908699
0.898182
0.888505
0.882495
0.877881
0.871633
0.86324
0.852599
0.842142
0.833542
0.827153
0.826952
0.834076
0.841237
0.845524
0.848212
0.850795
0.850349
0.848453
0.848242
0.84749
0.850584
0.863166
0.873496
0.877229
0.879725
0.879331
0.875287
0.872814
0.874985
0.879978
0.891358
0.90289
0.909557
0.914981
0.918657
0.920667
0.921861
0.92081
0.922301
0.932117
0.937966
0.937352
0.933836
0.929314
0.929962
0.934258
0.935721
0.938543
0.953006
4.30828
3.15273
2.39772
1.90574
1.51651
1.19532
1.05761
0.966242
0.840869
0.753866
0.73513
0.697003
0.66896
0.6754
0.695244
0.725424
0.76424
0.812828
0.86512
0.930599
0.97082
0.979937
0.995455
1.02793
1.0631
1.07219
1.06863
1.07678
1.08275
1.07384
1.05404
1.03189
1.0099
0.995538
0.982074
0.966408
0.953575
0.943721
0.943972
0.950376
0.954379
0.95353
0.950698
0.945212
0.933397
0.918503
0.90829
0.899031
0.889308
0.882231
0.878454
0.874988
0.869268
0.859014
0.84605
0.835666
0.829886
0.830639
0.836556
0.842677
0.849813
0.854592
0.856593
0.853044
0.846299
0.846542
0.84796
0.850403
0.857186
0.867241
0.875814
0.880933
0.88257
0.881903
0.881411
0.881581
0.883972
0.89176
0.901214
0.906143
0.91066
0.915176
0.920271
0.925552
0.92667
0.925201
0.930717
0.940694
0.940285
0.936336
0.933604
0.932677
0.934016
0.933707
0.934237
0.945672
4.74128
3.76208
2.99264
2.45435
2.01546
1.6438
1.45603
1.29134
1.10165
0.941405
0.885593
0.825271
0.745003
0.69723
0.701925
0.718601
0.719954
0.729925
0.756901
0.801103
0.84433
0.872787
0.898924
0.938027
0.988628
1.01209
1.01794
1.02739
1.04527
1.05528
1.05831
1.05567
1.03785
1.01379
0.990044
0.969218
0.954445
0.940466
0.934735
0.938824
0.945783
0.949962
0.948928
0.944152
0.933167
0.91896
0.910603
0.903317
0.893991
0.884497
0.879092
0.876372
0.86914
0.854057
0.838343
0.830827
0.833328
0.840113
0.847408
0.856859
0.862234
0.862
0.855989
0.840067
0.829891
0.83155
0.838113
0.849924
0.863886
0.875432
0.881533
0.8832
0.880011
0.874423
0.87435
0.876316
0.882575
0.894744
0.907504
0.912968
0.915487
0.917229
0.917975
0.917815
0.917651
0.919425
0.926884
0.940462
0.948888
0.946667
0.943094
0.941532
0.939835
0.938473
0.940136
0.951323
5.04973
4.18848
3.47649
2.94914
2.45413
2.02942
1.78785
1.59792
1.40039
1.21984
1.1221
1.03328
0.919546
0.835919
0.828384
0.808801
0.766317
0.740765
0.745491
0.743645
0.733891
0.738533
0.757928
0.800487
0.85885
0.916041
0.953446
0.973649
0.996942
1.0149
1.02105
1.02517
1.02286
1.01888
1.01024
0.997352
0.984236
0.966681
0.94714
0.938119
0.936143
0.933675
0.930597
0.928427
0.923408
0.916149
0.912948
0.910755
0.90518
0.895718
0.887339
0.881982
0.868063
0.845727
0.833921
0.833388
0.837793
0.844463
0.854453
0.863106
0.863803
0.860385
0.848834
0.829523
0.823614
0.826173
0.833331
0.847381
0.865589
0.876413
0.88082
0.882226
0.879055
0.873427
0.873284
0.876355
0.883289
0.894125
0.905576
0.914901
0.917959
0.917585
0.914939
0.91248
0.91253
0.915759
0.9236
0.9365
0.947256
0.949865
0.947769
0.944696
0.93747
0.932322
0.933751
0.947689
5.25194
4.50202
3.82475
3.31942
2.849
2.4236
2.13565
1.90038
1.64865
1.46001
1.34365
1.24468
1.12479
1.01607
0.964533
0.913806
0.855278
0.791195
0.766093
0.751979
0.728602
0.723834
0.726301
0.734749
0.753269
0.783578
0.826992
0.864884
0.897485
0.926137
0.952424
0.98155
0.997086
0.99706
0.990838
0.987294
0.988376
0.981204
0.964773
0.949743
0.937404
0.928764
0.923501
0.922401
0.920252
0.913417
0.908441
0.90745
0.904733
0.898131
0.887353
0.875356
0.857446
0.84003
0.837184
0.839251
0.843516
0.850913
0.8598
0.861436
0.860127
0.854919
0.838731
0.822647
0.820492
0.823827
0.831538
0.847114
0.865996
0.873583
0.876399
0.877788
0.876478
0.87448
0.875731
0.880471
0.887276
0.895954
0.905353
0.912885
0.915994
0.914829
0.912778
0.91122
0.912642
0.918582
0.928492
0.93921
0.946271
0.948121
0.945286
0.939316
0.930992
0.930688
0.941391
0.958587
5.40569
4.73875
4.13001
3.63785
3.16938
2.75149
2.44258
2.18489
1.93757
1.73016
1.56374
1.42177
1.30196
1.21075
1.14043
1.06734
0.999903
0.935213
0.885548
0.842778
0.802293
0.764778
0.755743
0.749457
0.733355
0.715463
0.720478
0.731228
0.7521
0.790423
0.837091
0.886668
0.946945
0.95575
0.956386
0.96707
0.97335
0.967151
0.951947
0.945236
0.942986
0.937634
0.93449
0.933068
0.930166
0.92466
0.91246
0.901328
0.894279
0.888736
0.87924
0.863308
0.848689
0.844439
0.844332
0.845375
0.848499
0.853617
0.85674
0.856907
0.855256
0.848484
0.832672
0.821908
0.820578
0.823345
0.830561
0.846214
0.864838
0.872306
0.87428
0.87646
0.87771
0.876773
0.876686
0.880479
0.887658
0.897602
0.906752
0.912074
0.914723
0.915809
0.915062
0.914114
0.916019
0.923077
0.933582
0.94162
0.94403
0.942358
0.937474
0.931676
0.930513
0.942488
0.960217
0.964934
5.53608
4.92546
4.3586
3.88614
3.44695
3.05945
2.74603
2.44161
2.15424
1.96784
1.80362
1.64248
1.48209
1.38638
1.29618
1.20329
1.11788
1.06063
1.01423
0.956691
0.89691
0.833402
0.807889
0.785815
0.752395
0.718802
0.717014
0.72585
0.717937
0.715449
0.726557
0.755996
0.807994
0.867014
0.893862
0.921366
0.946115
0.946598
0.933209
0.926349
0.928095
0.932275
0.940871
0.948634
0.949126
0.944169
0.931003
0.909566
0.893074
0.881439
0.870287
0.858613
0.852507
0.852804
0.852357
0.852076
0.852587
0.851643
0.850543
0.849859
0.847099
0.840905
0.833091
0.828551
0.827309
0.82979
0.837178
0.848995
0.859877
0.866268
0.869801
0.873788
0.878645
0.878457
0.877464
0.881404
0.889656
0.898555
0.90528
0.90985
0.913112
0.915993
0.918567
0.920603
0.923765
0.93063
0.938913
0.942295
0.939981
0.935479
0.931633
0.93359
0.947373
0.967298
0.96241
0.943949
5.62727
5.06156
4.55321
4.10111
3.66168
3.28664
2.98405
2.68904
2.39948
2.17629
1.99704
1.81731
1.65955
1.5669
1.48127
1.38351
1.24346
1.15726
1.12499
1.07857
1.02068
0.947671
0.913685
0.885296
0.841847
0.777603
0.754612
0.750944
0.733318
0.712649
0.701599
0.70299
0.710508
0.734118
0.770344
0.810502
0.860302
0.90699
0.911417
0.904478
0.907865
0.913387
0.921225
0.938958
0.950989
0.953229
0.9475
0.92906
0.903051
0.88171
0.869147
0.864568
0.862582
0.860373
0.855176
0.852276
0.850053
0.847209
0.844411
0.842001
0.839461
0.83815
0.838145
0.838112
0.837899
0.838755
0.841995
0.846166
0.85037
0.855646
0.861512
0.86796
0.875174
0.87883
0.880897
0.885602
0.891056
0.894944
0.898868
0.904196
0.910361
0.916199
0.921494
0.926195
0.930997
0.936874
0.940419
0.938512
0.934272
0.931934
0.936109
0.952634
0.973761
0.969319
0.941298
0.923602
5.72821
5.20034
4.71949
4.29139
3.87261
3.51146
3.20385
2.89334
2.59753
2.38269
2.20592
2.02863
1.83047
1.69363
1.61686
1.53615
1.41508
1.29328
1.23434
1.17932
1.11406
1.03995
1.00817
0.977238
0.928111
0.863268
0.807214
0.789083
0.766898
0.733807
0.706483
0.707557
0.706913
0.699979
0.699924
0.708905
0.736706
0.787367
0.825393
0.841517
0.860854
0.884392
0.894302
0.908846
0.928583
0.94098
0.942718
0.935041
0.913394
0.888776
0.88199
0.876989
0.87059
0.865645
0.85814
0.848792
0.845355
0.843064
0.841701
0.840613
0.840451
0.8419
0.843274
0.843203
0.841862
0.837378
0.835186
0.836042
0.838658
0.843052
0.851047
0.862344
0.87196
0.877817
0.881568
0.883476
0.88295
0.882851
0.886101
0.89414
0.905503
0.916232
0.924014
0.929089
0.93203
0.932214
0.92862
0.924097
0.924043
0.933701
0.955734
0.979239
0.973077
0.942312
0.919101
0.916743
5.80766
5.31713
4.87146
4.46183
4.06021
3.69761
3.38738
3.09637
2.81596
2.57415
2.37619
2.20017
2.02516
1.87478
1.75519
1.65553
1.54135
1.41965
1.35198
1.30137
1.23126
1.14154
1.10511
1.07307
1.02312
0.953976
0.885552
0.866194
0.845434
0.809107
0.765404
0.752731
0.741717
0.716812
0.695527
0.692557
0.695691
0.703012
0.715613
0.733045
0.761509
0.807419
0.855421
0.873644
0.890418
0.912727
0.927425
0.923004
0.911431
0.903813
0.901858
0.89537
0.882284
0.869379
0.857508
0.845238
0.841464
0.840136
0.840416
0.844253
0.8462
0.845454
0.844516
0.841557
0.834228
0.825154
0.822126
0.82205
0.823918
0.828727
0.838663
0.855719
0.869232
0.874598
0.873804
0.871119
0.868732
0.868549
0.873362
0.885518
0.902771
0.918678
0.926454
0.926382
0.922394
0.915885
0.908757
0.906933
0.920243
0.952433
0.982005
0.977538
0.947115
0.919766
0.907023
0.919862
5.93479
5.47185
5.03158
4.63476
4.26365
3.91211
3.58021
3.27423
3.01202
2.77601
2.56485
2.37138
2.19552
2.02845
1.8898
1.79426
1.69474
1.55622
1.4523
1.40234
1.33875
1.25003
1.20721
1.17578
1.12818
1.04713
0.952786
0.928432
0.909108
0.873708
0.827087
0.803542
0.78788
0.759927
0.721419
0.697896
0.695598
0.696583
0.689802
0.686023
0.69213
0.715246
0.750415
0.788769
0.814979
0.844108
0.88987
0.903028
0.895802
0.90089
0.908197
0.906524
0.896676
0.876831
0.855514
0.844463
0.841099
0.839704
0.840658
0.846611
0.847224
0.843286
0.838528
0.830857
0.819573
0.815261
0.815885
0.818072
0.824687
0.836665
0.850952
0.869753
0.888059
0.889905
0.884367
0.882583
0.883582
0.887212
0.898289
0.915737
0.933099
0.94804
0.946267
0.932692
0.918545
0.907269
0.899412
0.903556
0.935467
0.976458
0.979314
0.952921
0.925968
0.909828
0.907855
0.938748
5.9665
5.55662
5.15372
4.75473
4.3852
4.06129
3.75896
3.46759
3.19862
2.95343
2.73066
2.54409
2.38737
2.21386
2.02306
1.90777
1.82659
1.71455
1.60427
1.53397
1.45242
1.33311
1.27802
1.26117
1.22658
1.1536
1.05174
1.00894
0.985997
0.949761
0.892804
0.867548
0.857794
0.834144
0.788043
0.740225
0.727822
0.721963
0.706069
0.689227
0.689576
0.685777
0.681278
0.688102
0.705702
0.734509
0.783692
0.845431
0.867215
0.8814
0.894405
0.89467
0.889031
0.875176
0.858429
0.852007
0.851431
0.849924
0.849136
0.853622
0.854492
0.850781
0.842261
0.837419
0.843325
0.858932
0.882761
0.913622
0.953418
1.00032
1.03596
1.05736
1.07781
1.08538
1.07609
1.07297
1.08101
1.09312
1.10666
1.12244
1.12211
1.10324
1.07256
1.03736
1.00214
0.97906
0.963705
0.965261
0.992911
0.994794
0.966888
0.939494
0.920705
0.911866
0.920194
0.962765
6.06342
5.63811
5.24474
4.88155
4.53776
4.20122
3.88588
3.61573
3.37077
3.13316
2.88289
2.67786
2.5218
2.36677
2.19113
2.05417
1.9522
1.82394
1.71262
1.65563
1.58865
1.47549
1.3689
1.33336
1.29459
1.2279
1.14213
1.09915
1.07312
1.03476
0.971371
0.933832
0.919143
0.891977
0.842193
0.784116
0.764123
0.758312
0.74309
0.717783
0.702783
0.696275
0.680557
0.666767
0.666998
0.67344
0.694658
0.743192
0.799334
0.831035
0.859379
0.87151
0.872188
0.861711
0.856396
0.857233
0.867754
0.884043
0.897431
0.922298
0.953283
0.980413
1.00931
1.04557
1.09518
1.15696
1.22132
1.28259
1.3448
1.40657
1.44911
1.46483
1.46776
1.47214
1.47036
1.4687
1.47316
1.48435
1.49723
1.4965
1.47794
1.44235
1.3976
1.35393
1.31332
1.27915
1.25525
1.23371
1.19026
1.12344
1.0496
0.994341
0.967153
0.95535
0.961651
0.988726
6.20288
5.7671
5.38332
5.02094
4.66881
4.33986
4.04219
3.76661
3.51395
3.28277
3.04986
2.84347
2.67035
2.50151
2.30981
2.18204
2.09171
1.97439
1.83756
1.75594
1.68648
1.58588
1.47808
1.42783
1.38248
1.31418
1.21566
1.16498
1.14505
1.11391
1.05262
1.00891
0.99048
0.962383
0.911129
0.845156
0.823212
0.8181
0.802405
0.772204
0.744695
0.730954
0.711217
0.680403
0.671868
0.672806
0.676547
0.688855
0.715454
0.740364
0.770247
0.810074
0.847052
0.854887
0.869511
0.902748
0.96775
1.06555
1.18145
1.29484
1.38657
1.45052
1.49393
1.52794
1.56079
1.58773
1.60449
1.6191
1.63515
1.6506
1.66841
1.68109
1.67333
1.66878
1.67616
1.68134
1.68503
1.6921
1.69662
1.68792
1.66541
1.64377
1.62294
1.60239
1.59367
1.59239
1.57865
1.54725
1.50184
1.42878
1.33184
1.24985
1.1985
1.16761
1.14161
1.08726
6.22505
5.91656
5.49007
5.14311
4.8301
4.50798
4.1891
3.9055
3.65569
3.42524
3.19715
2.98107
2.80652
2.65935
2.48017
2.31377
2.20506
2.0876
1.95787
1.87789
1.80852
1.7054
1.56796
1.50586
1.46696
1.40313
1.31618
1.25153
1.22459
1.18747
1.12174
1.06906
1.05266
1.03028
0.983879
0.912554
0.884433
0.876022
0.856644
0.82178
0.78644
0.765546
0.741952
0.705622
0.682014
0.679124
0.680802
0.687279
0.692396
0.696692
0.709901
0.743152
0.80593
0.918178
1.05097
1.20889
1.38846
1.55321
1.67492
1.74462
1.78287
1.80325
1.80748
1.80324
1.79237
1.76876
1.73869
1.71622
1.69804
1.67932
1.66781
1.67552
1.67598
1.67023
1.67602
1.68887
1.6905
1.68509
1.68635
1.69325
1.68273
1.66664
1.66099
1.67136
1.69111
1.69621
1.68048
1.65791
1.62994
1.58403
1.52955
1.49783
1.47851
1.45779
1.43136
1.35234
5.68952
5.99238
5.68938
5.27596
4.92064
4.64601
4.38141
4.09022
3.78027
3.53662
3.35297
3.15003
2.94139
2.77447
2.61266
2.45806
2.3441
2.22848
2.06922
1.95924
1.90157
1.81717
1.69325
1.61088
1.55646
1.48745
1.39171
1.33403
1.30934
1.2729
1.20513
1.13314
1.11308
1.09283
1.05105
0.983564
0.954173
0.942406
0.917772
0.878639
0.839535
0.818358
0.797294
0.763875
0.727699
0.719434
0.722793
0.732602
0.753058
0.796299
0.874516
0.998508
1.17184
1.33762
1.48882
1.63472
1.7551
1.82373
1.83959
1.83052
1.8235
1.82482
1.83038
1.8311
1.80616
1.75922
1.71825
1.69205
1.66899
1.64507
1.62664
1.62394
1.62823
1.62244
1.62178
1.62392
1.61851
1.61235
1.6163
1.62981
1.63628
1.63958
1.65219
1.66964
1.67582
1.66838
1.64932
1.62476
1.59858
1.57807
1.56556
1.56507
1.5766
1.57694
1.56339
1.514
3.63439
5.56559
5.77456
5.49928
5.09629
4.75252
4.49924
4.24995
3.97007
3.70004
3.48171
3.27697
3.07951
2.92482
2.77747
2.58296
2.43331
2.34031
2.22021
2.09812
2.01106
1.91268
1.77882
1.69657
1.65075
1.5909
1.49824
1.41545
1.38399
1.34521
1.28103
1.2062
1.18097
1.16086
1.12043
1.04725
1.0128
0.999602
0.975426
0.93582
0.892138
0.871228
0.853219
0.828593
0.79805
0.80451
0.839177
0.918022
1.05294
1.20504
1.34683
1.48923
1.61333
1.67575
1.71786
1.75772
1.76578
1.74672
1.73122
1.71802
1.71412
1.72615
1.74649
1.75118
1.72009
1.67626
1.64304
1.62242
1.60598
1.58823
1.56755
1.56995
1.58721
1.5884
1.56983
1.56197
1.56268
1.56004
1.55233
1.5623
1.58976
1.61356
1.63842
1.65729
1.65519
1.64122
1.62098
1.59771
1.5763
1.56576
1.56341
1.57787
1.60065
1.59934
1.58622
1.55464
1.52418
3.78188
5.41038
5.56969
5.32333
4.93479
4.63721
4.38176
4.10468
3.85528
3.65157
3.45374
3.20843
3.01102
2.91086
2.76468
2.586
2.43733
2.31388
2.19715
2.11923
2.03941
1.91376
1.78822
1.72882
1.66998
1.58423
1.51201
1.47743
1.43448
1.36333
1.27105
1.24285
1.22688
1.1897
1.12338
1.07784
1.05714
1.02905
0.988214
0.947733
0.936387
0.943109
0.978121
1.04898
1.1848
1.36391
1.53466
1.68951
1.75145
1.79416
1.84649
1.84681
1.81924
1.78273
1.7471
1.6962
1.63774
1.60169
1.57877
1.56235
1.5719
1.608
1.61498
1.58206
1.54725
1.52262
1.50225
1.49272
1.48434
1.47382
1.47078
1.4762
1.48054
1.47399
1.45912
1.45231
1.45115
1.45007
1.45755
1.47564
1.49623
1.51975
1.54359
1.5449
1.53773
1.52829
1.51656
1.50614
1.51114
1.54104
1.57467
1.58424
1.58285
1.57644
1.5622
1.02275
1.62656
3.82069
5.24499
5.36062
5.156
4.80941
4.5135
4.25499
4.0044
3.77263
3.58725
3.38314
3.17434
3.02053
2.87403
2.7088
2.57236
2.46326
2.31867
2.19416
2.12134
2.02682
1.911
1.83878
1.77727
1.67513
1.57967
1.54818
1.51357
1.45132
1.35966
1.31767
1.29362
1.2523
1.18246
1.13921
1.12054
1.10197
1.06973
1.07955
1.1431
1.30836
1.54994
1.75279
1.92437
2.03822
2.09381
2.07443
2.03681
2.01379
1.98871
1.92894
1.85619
1.78373
1.71042
1.62332
1.54554
1.49761
1.47604
1.46454
1.46715
1.48573
1.48242
1.45432
1.43177
1.41321
1.39184
1.37681
1.37673
1.38156
1.38361
1.38634
1.38986
1.38875
1.37412
1.35883
1.35257
1.35358
1.36066
1.37789
1.39939
1.41721
1.42437
1.42324
1.42471
1.42704
1.42427
1.42304
1.43236
1.45816
1.48849
1.4981
1.50041
1.50321
1.49631
1.00019
1.03203
1.67872
3.75461
5.0193
5.20648
5.04401
4.70923
4.38669
4.14093
3.93513
3.72808
3.51221
3.32797
3.17329
3.0105
2.83232
2.66345
2.57663
2.45669
2.3185
2.22856
2.13413
1.99322
1.91672
1.8731
1.79252
1.69189
1.63949
1.59108
1.52032
1.42041
1.38356
1.36185
1.32704
1.26521
1.2166
1.22779
1.28929
1.43606
1.64631
1.91484
2.18696
2.32567
2.41317
2.42944
2.36429
2.30347
2.22821
2.16146
2.09553
2.02219
1.94032
1.84735
1.76041
1.6791
1.5962
1.52713
1.47415
1.44735
1.43285
1.43089
1.43275
1.41314
1.3837
1.3561
1.33456
1.31435
1.29342
1.28273
1.2873
1.29865
1.30843
1.30914
1.29517
1.27977
1.26644
1.2573
1.2583
1.26944
1.29202
1.32005
1.32677
1.31721
1.31739
1.32572
1.33838
1.34603
1.34985
1.36504
1.39728
1.41827
1.419
1.41692
1.41276
1.4036
1
1.00032
1.03719
1.68238
3.52781
4.86091
5.06272
4.92559
4.61683
4.29458
4.06642
3.85856
3.65577
3.47833
3.30243
3.136
2.94808
2.79554
2.70466
2.57197
2.40912
2.32809
2.26403
2.14291
2.01454
1.94735
1.8671
1.78303
1.73497
1.68822
1.6147
1.50092
1.43996
1.4262
1.41469
1.44293
1.54357
1.77469
2.08332
2.39388
2.65101
2.75094
2.74351
2.71774
2.67541
2.58454
2.44136
2.33668
2.26015
2.17315
2.07836
1.9946
1.92142
1.84405
1.76481
1.68679
1.59143
1.53186
1.50551
1.48186
1.46249
1.441
1.4116
1.38003
1.34994
1.3182
1.28819
1.2696
1.25325
1.23845
1.23119
1.23661
1.24066
1.22685
1.20071
1.18589
1.17773
1.17024
1.17188
1.1885
1.21231
1.22566
1.22122
1.21115
1.20861
1.215
1.23151
1.2549
1.27445
1.30118
1.33997
1.3526
1.35266
1.3503
1.34254
1.33081
1
1
1.0004
1.03793
1.60507
3.28536
4.71251
4.90031
4.81432
4.53084
4.24047
3.98123
3.76736
3.60697
3.43864
3.27751
3.07333
2.91516
2.83075
2.7036
2.54474
2.41235
2.34511
2.25686
2.1436
2.05974
1.97076
1.85419
1.80166
1.76655
1.70694
1.61352
1.59322
1.65252
1.8386
2.19621
2.59043
2.89835
3.14072
3.25501
3.2006
3.07121
2.96143
2.85893
2.75029
2.61053
2.45264
2.35032
2.27867
2.19776
2.10753
2.02195
1.94464
1.87637
1.80851
1.72546
1.6307
1.564
1.52753
1.49625
1.46889
1.44146
1.41267
1.38468
1.35278
1.30786
1.26228
1.24242
1.23245
1.22358
1.2151
1.20844
1.19815
1.17732
1.14688
1.13199
1.12428
1.1181
1.11566
1.12192
1.12936
1.12441
1.11291
1.10498
1.10236
1.10622
1.11892
1.14753
1.18617
1.22145
1.24893
1.27259
1.28409
1.28406
1.28133
1.27638
1
1
1
1.0004
1.03201
1.49247
3.08654
4.49579
4.71324
4.67957
4.46975
4.18065
3.91369
3.73259
3.5731
3.40281
3.197
3.07394
2.9561
2.8113
2.65586
2.53475
2.46312
2.35423
2.23054
2.15476
2.08099
1.96107
1.89951
1.8717
1.88339
1.99157
2.29564
2.70088
3.2201
3.491
3.58435
3.63528
3.58136
3.44021
3.26421
3.11683
2.96647
2.80954
2.66353
2.527
2.42276
2.35013
2.27863
2.19922
2.11491
2.03225
1.95561
1.88469
1.81782
1.74998
1.68511
1.62567
1.57249
1.52702
1.49636
1.46803
1.43611
1.40072
1.36013
1.31032
1.27423
1.25822
1.24437
1.229
1.21237
1.19555
1.18031
1.15926
1.13182
1.11782
1.10962
1.10356
1.10088
1.1006
1.09115
1.07584
1.06148
1.05326
1.04919
1.04566
1.04649
1.05619
1.08165
1.11006
1.13073
1.14882
1.17327
1.19397
1.20123
1.20549
1
1
1
1
1.00032
1.02358
1.40633
2.83575
4.15967
4.55807
4.58625
4.42051
4.12625
3.89131
3.72119
3.50389
3.32816
3.22169
3.07442
2.93355
2.77979
2.64458
2.57553
2.47227
2.33797
2.24264
2.18671
2.12111
2.1595
2.37851
2.83986
3.43612
3.90749
4.17295
4.28992
4.19295
4.00344
3.8726
3.71505
3.52848
3.35136
3.16713
2.98077
2.80835
2.65361
2.52694
2.44167
2.37823
2.31235
2.22378
2.11272
2.0192
1.95845
1.90818
1.84974
1.78284
1.71933
1.6545
1.59466
1.5547
1.52848
1.50543
1.47497
1.4324
1.3768
1.32484
1.30425
1.2899
1.26971
1.24677
1.22359
1.19778
1.17173
1.14554
1.13241
1.12857
1.12703
1.12401
1.1153
1.09775
1.07542
1.05193
1.03911
1.03158
1.02437
1.01912
1.01628
1.01483
1.0197
1.02936
1.04009
1.04877
1.06033
1.08139
1.10199
1.12541
1
1
1
1
1
1.00022
1.01733
1.30905
2.46498
3.8042
4.45473
4.49068
4.34259
4.10409
3.89693
3.62257
3.4698
3.34622
3.19156
3.06192
2.88419
2.77952
2.6923
2.56822
2.46554
2.42377
2.53228
2.8939
3.50983
4.18048
4.60402
4.86321
4.80266
4.65503
4.45459
4.21749
3.98055
3.78296
3.61516
3.45618
3.29416
3.1219
2.95509
2.82426
2.71841
2.6243
2.53538
2.44511
2.35741
2.26427
2.16398
2.07829
2.00166
1.93238
1.86799
1.80033
1.73999
1.69126
1.6474
1.60806
1.57547
1.54394
1.50372
1.45107
1.39169
1.34809
1.32364
1.30426
1.28455
1.26544
1.24461
1.21749
1.18627
1.15885
1.13753
1.12008
1.10737
1.09753
1.085
1.07024
1.05024
1.03136
1.02345
1.018
1.0103
1.0038
1.0006
1.00001
0.998627
0.996803
0.996952
1.00022
1.00494
1.01585
1.03473
1.07105
1
1
1
1
1
1
1.00014
1.01056
1.20027
2.07275
3.50491
4.34305
4.34829
4.23699
4.10457
3.84444
3.62888
3.4548
3.30806
3.17062
2.97748
2.90949
2.85426
2.81734
2.98163
3.49155
4.2945
5.12049
5.4544
5.63787
5.56595
5.44428
5.23677
4.92295
4.55068
4.22383
3.93924
3.71112
3.54444
3.40266
3.25647
3.11321
2.99752
2.8937
2.78603
2.68066
2.58564
2.49571
2.40345
2.31197
2.22884
2.14664
2.0561
1.97202
1.89777
1.84381
1.81729
1.77751
1.72216
1.67341
1.63176
1.58543
1.53989
1.50371
1.46424
1.41938
1.38459
1.35905
1.33521
1.30934
1.28161
1.25815
1.23472
1.20429
1.16978
1.13938
1.11446
1.09427
1.07887
1.0624
1.04022
1.02007
1.0115
1.00601
1.00016
0.995486
0.993126
0.991733
0.989558
0.984403
0.976057
0.974507
0.976608
0.983075
0.994927
1.02661
1
1
1
1
1
1
1
1.00007
1.00515
1.11414
1.77157
3.28341
4.01794
4.15309
4.17488
4.05955
3.81631
3.59296
3.45132
3.26435
3.14158
3.20419
3.52652
4.34455
5.30908
6.14224
6.44513
6.33913
6.0565
5.80863
5.57849
5.34355
5.07768
4.77258
4.49531
4.26312
4.04302
3.82604
3.62175
3.43847
3.2938
3.17861
3.07704
2.96012
2.82414
2.70213
2.61852
2.5457
2.45625
2.34752
2.2274
2.12237
2.05313
1.99413
1.93522
1.88011
1.81728
1.74768
1.68291
1.63137
1.59422
1.5702
1.54639
1.50565
1.44195
1.3826
1.34176
1.31354
1.29182
1.27277
1.25646
1.23973
1.21744
1.18167
1.1364
1.10855
1.09565
1.08514
1.07165
1.05454
1.03714
1.02158
1.01238
1.00676
1.00059
0.995712
0.992851
0.99019
0.986178
0.977797
0.967507
0.964395
0.965617
0.970322
0.977855
1.00228
1
1
1
1
1
1
1
1
1.00002
1.00232
1.06442
1.58134
2.84578
3.64382
4.04647
4.0796
3.99611
3.88238
3.74246
3.80231
4.20502
5.11656
6.22337
7.3191
7.72799
7.67928
7.44133
7.02385
6.54803
5.85574
5.38058
5.11927
4.88878
4.66797
4.47699
4.28508
4.08691
3.88359
3.68822
3.5103
3.35801
3.22767
3.10726
2.98315
2.84977
2.72551
2.62874
2.54533
2.45697
2.35561
2.24977
2.16016
2.08412
2.01708
1.95551
1.89343
1.82614
1.75907
1.69871
1.65374
1.62386
1.59739
1.56207
1.50977
1.44251
1.38134
1.34019
1.3107
1.29209
1.28167
1.27088
1.25376
1.22777
1.1862
1.13702
1.11082
1.09992
1.09038
1.07913
1.06612
1.04932
1.02969
1.02098
1.01468
1.00749
1.00255
0.999458
0.996
0.990999
0.980673
0.969181
0.965477
0.965654
0.968647
0.974604
0.996567
1
1
1
1
1
1
1
1
1
1.00001
1.00109
1.03557
1.38689
2.2491
3.22401
3.80509
4.26903
4.74884
5.36064
6.33385
7.26114
7.60407
7.954
8.10487
8.01125
7.6688
7.18889
6.67516
6.18419
5.847
5.55292
5.27781
5.02951
4.82577
4.63897
4.42328
4.20236
3.99718
3.81382
3.65311
3.51452
3.38895
3.26581
3.13445
2.99295
2.85613
2.73857
2.6381
2.54421
2.45263
2.36322
2.26884
2.1736
2.09358
2.0281
1.96806
1.90807
1.8464
1.7874
1.73875
1.69898
1.66033
1.61617
1.55955
1.48421
1.41336
1.37918
1.36375
1.3519
1.33918
1.3235
1.30351
1.27411
1.22364
1.1702
1.15109
1.14299
1.13505
1.12539
1.11166
1.08916
1.06673
1.05794
1.05107
1.04429
1.0395
1.03571
1.03159
1.02519
1.01132
0.997031
0.992813
0.991784
0.992735
0.996808
1.01795
1
1
1
1
1
1
1
1
1
1
1
1.00042
1.01705
1.18039
1.80663
3.42846
5.69704
7.82619
9.81907
11.2476
11.6189
10.9666
10.1166
9.06781
8.05382
7.28207
6.75547
6.31877
5.92364
5.6672
5.40067
5.13599
4.88686
4.6904
4.50089
4.27257
4.03709
3.83406
3.66425
3.51365
3.38088
3.26563
3.15853
3.04013
2.90436
2.7705
2.65373
2.55015
2.45498
2.36997
2.28828
2.1984
2.10266
2.01712
1.94941
1.89237
1.83708
1.78083
1.72569
1.6767
1.63532
1.59701
1.55485
1.49869
1.41742
1.34804
1.32392
1.31085
1.29817
1.28511
1.27079
1.2528
1.22419
1.1716
1.12252
1.10815
1.10049
1.09243
1.08273
1.06898
1.047
1.0255
1.0175
1.01167
1.00568
1.00091
0.997545
0.993778
0.987815
0.973935
0.959303
0.955201
0.9544
0.955383
0.959779
0.982945
)
;

boundaryField
{
    inlet
    {
        type            fixedValue;
        value           uniform 1;
    }
    outlet
    {
        type            zeroGradient;
    }
    bottom
    {
        type            symmetryPlane;
    }
    top
    {
        type            symmetryPlane;
    }
    obstacle
    {
        type            zeroGradient;
    }
    defaultFaces
    {
        type            empty;
    }
}


// ************************************************************************* //
