/*--------------------------------*- C++ -*----------------------------------*\
  =========                 |
  \\      /  F ield         | OpenFOAM: The Open Source CFD Toolbox
   \\    /   O peration     | Website:  https://openfoam.org
    \\  /    A nd           | Version:  7
     \\/     M anipulation  |
\*---------------------------------------------------------------------------*/
FoamFile
{
    version     2.0;
    format      ascii;
    class       volScalarField;
    location    "0.9";
    object      T;
}
// * * * * * * * * * * * * * * * * * * * * * * * * * * * * * * * * * * * * * //

dimensions      [0 0 0 1 0 0 0];

internalField   nonuniform List<scalar> 
4032
(
1
1
1
1
1
1
1
1
1
1
1
1
1
1.81231
2.73775
2.79098
2.81725
2.84614
2.86952
2.88703
2.9091
2.95215
3.01911
3.05912
1
1
1
1
1
1
1
1
1
1
1
1
1
1.78713
2.72565
2.78827
2.8159
2.8449
2.8677
2.88484
2.90687
2.9497
3.01575
3.05463
1
1
1
1
1
1
1
1
1
1
1
1
1
1.72046
2.69925
2.7798
2.81092
2.84179
2.86502
2.88215
2.90414
2.94674
3.01171
3.04922
1
1
1
1
1
1
1
1
1
1
1
1
1
1.61393
2.64961
2.76338
2.80001
2.83525
2.85999
2.87749
2.89898
2.94047
3.00428
3.03999
1
1
1
1
1
1
1
1
1
1
1
1
1
1.44944
2.56395
2.74164
2.7839
2.82513
2.852
2.86917
2.88819
2.92635
2.98882
3.02545
1
1
1
1
1
1
1
1
1
1
1
1
1
1.21234
2.43832
2.72378
2.77276
2.81573
2.84142
2.85579
2.87123
2.90651
2.96665
2.99675
1
1
1
1
1
1
1
1
1
1
1
1
1
1.01205
2.29702
2.69911
2.7596
2.80087
2.82413
2.83518
2.84411
2.86887
2.92164
2.95542
1
1
1
1
1
1
1
1
1
1
1
1
1
1.00007
2.11169
2.67221
2.74798
2.7848
2.80437
2.81021
2.81152
2.82842
2.88167
2.94278
1
1
1
1
1
1
1
1
1
1
1
1
1
1
1.82307
2.59958
2.72009
2.75426
2.77397
2.77704
2.77022
2.7666
2.75553
2.70327
1
1
1
1
1
1
1
1
1
1
1
1
1
1
1.38962
2.45915
2.69028
2.70998
2.72545
2.72731
2.71601
2.69306
2.6525
2.52975
1
1
1
1
1
1
1
1
1
1
1
1
1
1
1.03522
2.28512
2.63677
2.65133
2.67071
2.6705
2.65586
2.62225
2.56637
2.4095
1
1
1
1
1
1
1
1
1
1
1
1
1
1
1.00026
1.96153
2.55499
2.62735
2.63566
2.63029
2.60863
2.5736
2.49735
2.3638
1
1
1
1
1
1
1
1
1
1
1
1
1
1
1
1.4178
2.3909
2.60702
2.59762
2.58963
2.56619
2.52809
2.45199
2.34322
1
1
1
1
1
1
1
1
1
1
1
1
1
1
1
1.03916
2.19287
2.5567
2.54238
2.54312
2.52786
2.49065
2.42577
2.34024
1
1
1
1
1
1
1
1
1
1
1
1
1
1
1
1.00026
1.74411
2.43784
2.52898
2.51733
2.4954
2.46051
2.40441
2.33244
1
1
1
1
1
1
1
1
1
1
1
1
1
1
1
1
1.1395
2.21746
2.49802
2.47959
2.45983
2.42829
2.3806
2.32087
1
1
1
1
1
1
1
1
1
1
1
1
1
1
1
1
1.00367
1.81871
2.37646
2.44378
2.42422
2.39528
2.35476
2.30502
1
1
1
1
1
1
1
1
1
1
1
1
1
1
1
1
1
1.19616
2.15962
2.41155
2.38541
2.36063
2.32503
2.28253
1
1
1
1
1
1
1
1
1
1
1
1
1
1
1
1
1
1.00723
1.69319
2.26579
2.35559
2.3248
2.29443
2.25844
1
1
1
1
1
1
1
1
1
1
1
1
1
1
1
1
1
1.00003
1.13358
2.01453
2.31945
2.29295
2.26448
2.23186
1
1
1
1
1
1
1
1
1
1
1
1
1
1
1
1
1
1
1.00318
1.45157
2.13473
2.26859
2.23149
2.20578
1
1
1
1
1
1
1
1
1
1
1
1
1
1
1
1
1
1
1.00001
1.04686
1.75208
2.16608
2.20571
2.17862
1
1
1
1
1
1
1
1
1
1
1
1
1
1
1
1
1
1
1
1.00058
1.19198
1.90156
2.16914
2.15651
1
1
1
1
1
1
1
1
1
1
1
1
1
1
1
1
1
1
1
1
1.00713
1.3774
1.97065
2.12641
1
1
1
1
1
1
1
1
1
1
1
1
1
1
1
1
1
1
1
1
1.00004
1.03333
1.52434
1.98141
1
1
1
1
1
1
1
1
1
1
1
1
1
1
1
1
1
1
1
1
1
1.0004
1.08123
1.61427
1
1
1
1
1
1
1
1
1
1
1
1
1
1
1
1
1
1
1
1
1
1
1.00168
1.1378
1
1
1
1
1
1
1
1
1
1
1
1
1
1
1
1
1
1
1
1
1
1
1.00001
1.00437
1
1
1
1
1
1
1
1
1
1
1
1
1
1
1
1
1
1
1
1
1
1
1
1.00002
1
1
1
1
1
1
1
1
1
1
1
1
1
1
1
1
1
1
1
1
1
1
1
1
1
1
1
1
1
1
1
1
1
1
1
1
1
1
1
1
1
1
1
1
1
1
1
1
1
1
1
1
1
1
1
1
1
1
1
1
1
1
1
1
1
1
1
1
1
1
1
1
1
1
1
1
1
1
1
1
1
1
1
1
1
1
1
1
1
1
1
1
1
1
1
1
1
1
1
1
1
1
1
1
1
1
1
1
1
1
1
1
1
1
1
1
1
1
1
1
1
1
1
1
1
1
1
1
1
1
1
1
1
1
1
1
1
1
1
1
1
1
1
1
1
1
1
1
1
1
1
1
1
1
1
1
1
1
1
1
1
1
1
1
1
1
1
1
1
1
1
1
1
1
1
1
1
1
1
1
1
1
1
1
1
1
1
1
1
1
1
1
1
1
1
1
1
1
1
1
1
1
1
1
1
1
1
1
1
1
1
1
1
1
1
1
1
1
1
1
1
1
1
1
1
1
1
1
1
1
1
1
1
1
1
1
1
1
1
1
1
1
1
1
1
1
1
1
1
1
1
1
1
1
1
1
1
1
1
1
1
1
1
1
1.85302
1.24005
1.12109
1.21488
1.31716
1.40854
1.54349
1.63288
1.70071
1.77094
1.87152
1.91289
1.89866
1.88663
1.89333
1.91226
1.91946
1.91752
1.90591
1.87657
1.85728
1.85498
1.85942
1.86505
1.86244
1.85168
1.8364
1.82795
1.82776
1.83064
1.84148
1.85898
1.87193
1.87376
1.87253
1.86755
1.86085
1.85723
1.85769
1.86155
1.86382
1.86427
1.86446
1.86387
1.86107
1.85664
1.85384
1.85398
1.85443
1.85319
1.85256
1.85139
1.84672
1.83863
1.83507
1.83628
1.83991
1.84103
1.83849
1.83354
1.83202
1.8342
1.83531
1.83708
1.84501
1.8583
1.86902
1.8754
1.87487
1.86276
1.85315
1.84766
1.8382
1.83516
1.83892
1.84764
1.85182
1.85247
1.84866
1.84283
1.8325
1.8095
1.76968
1.72398
1.70306
1.70239
1.70029
1.69531
1.68806
1.67781
1.67121
1.66232
1.64395
1.61027
1.5711
1.47589
2.11126
1.76297
1.53496
1.52567
1.50424
1.46807
1.43842
1.4281
1.43721
1.48182
1.53992
1.59271
1.63519
1.66987
1.69951
1.72952
1.75387
1.76934
1.76972
1.7633
1.76091
1.76144
1.76976
1.78283
1.78532
1.7827
1.77942
1.77893
1.78001
1.78596
1.79726
1.81025
1.81975
1.82266
1.82193
1.819
1.81696
1.81703
1.81958
1.82651
1.83103
1.83136
1.83048
1.82796
1.82539
1.82267
1.82134
1.82138
1.82251
1.82317
1.82271
1.82051
1.81473
1.80829
1.80799
1.80978
1.81445
1.82217
1.83073
1.83471
1.83396
1.82955
1.82619
1.82509
1.82801
1.8356
1.84425
1.85514
1.86098
1.86012
1.85199
1.84158
1.83203
1.82585
1.82595
1.83082
1.83937
1.84297
1.84295
1.84054
1.83203
1.81092
1.77239
1.72563
1.6956
1.68819
1.68723
1.68541
1.68284
1.67661
1.66803
1.65797
1.63856
1.60306
1.56195
1.46488
2.14663
1.95825
1.78797
1.688
1.60083
1.51288
1.46804
1.43537
1.38391
1.37775
1.39579
1.41857
1.44008
1.46869
1.4917
1.51438
1.53965
1.56406
1.58636
1.60822
1.62195
1.62983
1.6433
1.65849
1.66564
1.66572
1.66597
1.66849
1.67437
1.67904
1.68415
1.69175
1.7003
1.70809
1.71081
1.71129
1.71292
1.7163
1.72481
1.73834
1.74942
1.75393
1.75454
1.7532
1.74783
1.74194
1.73964
1.73942
1.74056
1.74399
1.74719
1.74766
1.74615
1.74259
1.74076
1.74117
1.74548
1.75758
1.77455
1.78825
1.79464
1.79583
1.79559
1.79183
1.78676
1.78628
1.78774
1.79522
1.81144
1.82178
1.82218
1.82032
1.81333
1.80187
1.7939
1.79285
1.79452
1.80128
1.80707
1.80736
1.80425
1.79207
1.76584
1.72747
1.68815
1.66355
1.65565
1.65226
1.6487
1.64342
1.63555
1.62634
1.60993
1.57831
1.53869
1.44708
2.1906
2.03735
1.91599
1.81914
1.72254
1.62149
1.5706
1.52744
1.46515
1.4194
1.40628
1.38083
1.36059
1.36159
1.36861
1.37884
1.39244
1.4138
1.43774
1.46478
1.48276
1.49125
1.50199
1.51838
1.537
1.55045
1.5589
1.57129
1.58227
1.58161
1.57938
1.58035
1.58325
1.58872
1.59212
1.59341
1.5957
1.60024
1.61015
1.62487
1.63713
1.64285
1.64488
1.64496
1.6417
1.63594
1.63414
1.63408
1.63496
1.6379
1.64282
1.64825
1.65249
1.65453
1.65561
1.65834
1.6662
1.67977
1.69559
1.70877
1.71891
1.72394
1.72526
1.72188
1.71595
1.71584
1.71829
1.72505
1.738
1.75165
1.75926
1.76095
1.7595
1.75398
1.74758
1.74236
1.7402
1.7417
1.74513
1.74543
1.74444
1.73966
1.72774
1.70545
1.67354
1.64109
1.61891
1.6071
1.59702
1.5874
1.57826
1.56696
1.54951
1.51951
1.4824
1.40166
2.22023
2.09806
1.98717
1.89709
1.80933
1.71857
1.66848
1.61513
1.54477
1.47517
1.44511
1.41174
1.37193
1.34177
1.34127
1.34368
1.34018
1.34184
1.35155
1.36958
1.38628
1.39777
1.40825
1.42397
1.44501
1.46106
1.47232
1.48412
1.4956
1.5028
1.50955
1.51676
1.51807
1.51752
1.51577
1.51452
1.51563
1.51777
1.52313
1.53263
1.5433
1.55051
1.55338
1.55381
1.55141
1.54593
1.54378
1.54308
1.54297
1.54432
1.54919
1.55719
1.56287
1.56459
1.56583
1.57178
1.58601
1.60319
1.61821
1.63149
1.63922
1.64173
1.6412
1.63353
1.62698
1.6282
1.63391
1.64591
1.6624
1.67693
1.68419
1.68592
1.68447
1.67907
1.67481
1.6702
1.66834
1.66977
1.67348
1.67393
1.67283
1.67016
1.66454
1.65284
1.63248
1.60524
1.57866
1.55858
1.54226
1.52565
1.50951
1.49233
1.46923
1.43678
1.40099
1.33142
2.24339
2.13985
2.04304
1.96288
1.8737
1.78278
1.72589
1.67485
1.61605
1.55451
1.51601
1.47701
1.42691
1.38599
1.37751
1.36389
1.34004
1.32566
1.32647
1.32401
1.31455
1.31502
1.32236
1.34109
1.36703
1.39255
1.41159
1.42376
1.43535
1.44365
1.4517
1.46056
1.46786
1.47457
1.47808
1.47917
1.48085
1.48046
1.47861
1.47962
1.48247
1.48414
1.48519
1.48613
1.48519
1.48235
1.48177
1.48237
1.48301
1.48437
1.48878
1.49661
1.49925
1.49826
1.50005
1.50945
1.52425
1.53918
1.55367
1.56342
1.56647
1.56732
1.5648
1.55592
1.55338
1.5564
1.56414
1.5768
1.59271
1.6043
1.60966
1.61128
1.61018
1.60622
1.60388
1.60147
1.59932
1.59917
1.60045
1.60122
1.59974
1.59684
1.59271
1.58662
1.57636
1.55897
1.53592
1.51214
1.48918
1.46585
1.4417
1.41528
1.38212
1.34239
1.30411
1.24236
2.25381
2.167
2.0783
2.005
1.92672
1.84607
1.78613
1.73093
1.6635
1.60709
1.56893
1.53372
1.4891
1.44442
1.41982
1.39476
1.36562
1.33395
1.31996
1.3115
1.29824
1.2943
1.29555
1.29952
1.30731
1.32144
1.34228
1.36077
1.37553
1.38756
1.39983
1.41451
1.42979
1.43676
1.44063
1.44585
1.45328
1.45591
1.45436
1.4517
1.44832
1.44543
1.44396
1.444
1.4432
1.43996
1.43873
1.43993
1.44205
1.44503
1.44903
1.45419
1.4554
1.45527
1.46021
1.46966
1.48086
1.49343
1.50489
1.5093
1.51108
1.51094
1.50506
1.49816
1.49826
1.50323
1.5124
1.52495
1.5381
1.54495
1.54763
1.54844
1.54756
1.54501
1.54421
1.5436
1.54189
1.54041
1.54001
1.53895
1.53581
1.5314
1.52721
1.52284
1.51716
1.50747
1.49147
1.46919
1.44238
1.41309
1.38141
1.34589
1.30496
1.26152
1.22355
1.16743
2.2542
2.18077
2.10562
2.03802
1.96517
1.89218
1.83266
1.77722
1.71864
1.66518
1.61812
1.57344
1.53251
1.4997
1.47327
1.44408
1.41539
1.38623
1.36322
1.34294
1.32349
1.30467
1.29974
1.29646
1.28825
1.27844
1.2809
1.28669
1.29731
1.31666
1.33907
1.36198
1.38985
1.40094
1.4063
1.41682
1.42623
1.42636
1.42427
1.42446
1.42503
1.42333
1.42133
1.42014
1.41857
1.41598
1.41124
1.41009
1.41123
1.41497
1.41951
1.42244
1.42488
1.42985
1.4357
1.4414
1.44824
1.45672
1.46361
1.46764
1.46936
1.46858
1.46249
1.45848
1.45925
1.46417
1.47329
1.48512
1.49579
1.50001
1.50069
1.50084
1.5
1.49686
1.49419
1.49355
1.49269
1.49216
1.49166
1.48935
1.48481
1.47963
1.47421
1.46856
1.46267
1.45514
1.44303
1.42334
1.396
1.36361
1.32721
1.28695
1.24452
1.20247
1.16537
1.11078
2.24883
2.18456
2.11792
2.05668
1.99324
1.9312
1.87597
1.81612
1.75307
1.70947
1.66812
1.62458
1.57673
1.54605
1.51591
1.48307
1.45093
1.42819
1.40952
1.38562
1.35963
1.33
1.31647
1.3048
1.28817
1.27136
1.27012
1.27422
1.27026
1.26988
1.27681
1.2933
1.32047
1.35101
1.36718
1.38221
1.39649
1.39828
1.39497
1.39382
1.39577
1.39862
1.40235
1.40517
1.40521
1.40288
1.39778
1.39219
1.392
1.39337
1.39586
1.3993
1.40469
1.41165
1.41576
1.41836
1.42117
1.42387
1.42733
1.43129
1.43337
1.43331
1.43176
1.43135
1.43219
1.4363
1.44449
1.45337
1.45917
1.46133
1.46152
1.46137
1.46055
1.45652
1.45189
1.45094
1.45077
1.4505
1.44935
1.44637
1.44162
1.43594
1.42968
1.42269
1.41503
1.40636
1.3941
1.37463
1.34733
1.31432
1.27729
1.23819
1.19952
1.15983
1.11724
1.06329
2.23442
2.17944
2.12354
2.06802
2.00751
1.9511
1.9018
1.84884
1.79177
1.74466
1.70376
1.65891
1.61603
1.58987
1.56501
1.53524
1.48866
1.45704
1.44477
1.4268
1.4038
1.37305
1.35699
1.34299
1.32227
1.29232
1.28059
1.27831
1.26885
1.25992
1.2584
1.26001
1.26482
1.27908
1.30043
1.3219
1.34577
1.36592
1.3679
1.36493
1.36633
1.36892
1.37321
1.38175
1.3886
1.39078
1.38915
1.38411
1.37941
1.37771
1.37781
1.3811
1.38723
1.39278
1.39366
1.39383
1.39382
1.39387
1.39478
1.3974
1.40093
1.40425
1.40694
1.40918
1.41114
1.41331
1.41713
1.42102
1.42364
1.42488
1.42472
1.42418
1.42319
1.41986
1.41553
1.41331
1.41184
1.40986
1.40755
1.40501
1.40154
1.39623
1.3889
1.38016
1.37056
1.35975
1.34511
1.32416
1.29741
1.26639
1.23278
1.19861
1.1625
1.11816
1.07292
1.03106
2.21687
2.17004
2.12119
2.07254
2.01895
1.96846
1.92196
1.87054
1.81707
1.7761
1.73996
1.70094
1.65299
1.61737
1.59659
1.57381
1.53785
1.49834
1.47763
1.45736
1.43263
1.40324
1.38935
1.37545
1.35367
1.32487
1.2989
1.29031
1.27959
1.26379
1.2529
1.2555
1.25688
1.25589
1.25587
1.26059
1.27486
1.29915
1.31566
1.32177
1.32877
1.33757
1.34277
1.3507
1.36109
1.3714
1.37511
1.3741
1.36964
1.36486
1.36559
1.36645
1.36757
1.37018
1.37057
1.36822
1.36727
1.36701
1.36755
1.36993
1.37462
1.37995
1.38379
1.38617
1.38739
1.38657
1.38578
1.38642
1.38766
1.38786
1.38782
1.38795
1.38726
1.38415
1.37934
1.37442
1.36946
1.36549
1.3633
1.36213
1.36069
1.35687
1.34883
1.33774
1.32528
1.31091
1.29298
1.27153
1.24773
1.22252
1.19604
1.16474
1.12221
1.07416
1.03896
1.01369
2.19483
2.15507
2.11477
2.07197
2.02423
1.97668
1.93271
1.88853
1.84278
1.80063
1.76377
1.72885
1.69137
1.6566
1.62696
1.60066
1.56858
1.53177
1.50959
1.49206
1.46754
1.43494
1.42021
1.40661
1.38556
1.35618
1.32648
1.31834
1.30943
1.29307
1.27356
1.27053
1.26734
1.25742
1.24717
1.24294
1.24316
1.24461
1.24905
1.25664
1.26966
1.29023
1.31234
1.32244
1.33127
1.34356
1.35635
1.35678
1.35575
1.35564
1.35651
1.35487
1.35029
1.34718
1.34527
1.34243
1.34246
1.34289
1.34398
1.34828
1.35288
1.35642
1.35904
1.35957
1.35787
1.35363
1.35097
1.35024
1.35002
1.34953
1.34949
1.35104
1.35092
1.34661
1.33841
1.33036
1.32384
1.31964
1.31808
1.31805
1.3181
1.31578
1.30673
1.29198
1.27566
1.25839
1.23972
1.22096
1.20394
1.18793
1.16567
1.12746
1.07973
1.04041
1.01796
1.00479
2.17628
2.14272
2.10695
2.0695
2.02936
1.98697
1.94277
1.89929
1.86043
1.82364
1.78878
1.75445
1.72048
1.68476
1.65251
1.629
1.60317
1.56478
1.53292
1.5159
1.49452
1.46457
1.44914
1.43704
1.41834
1.38604
1.34715
1.33747
1.32992
1.31552
1.29631
1.28822
1.28258
1.27018
1.25254
1.23887
1.23417
1.23207
1.22552
1.2208
1.22362
1.23547
1.25442
1.27452
1.28786
1.30226
1.32484
1.33527
1.33426
1.33819
1.34168
1.34072
1.33611
1.32765
1.32093
1.31971
1.32045
1.32154
1.32323
1.32845
1.3304
1.3305
1.33034
1.32838
1.32394
1.32201
1.32234
1.32298
1.32445
1.32628
1.32729
1.32876
1.32915
1.3227
1.31123
1.30327
1.29763
1.29353
1.2925
1.29245
1.29152
1.28679
1.27281
1.25209
1.23142
1.21279
1.19504
1.17979
1.16934
1.15725
1.12959
1.08664
1.04668
1.02006
1.0075
1.003
2.15028
2.12266
2.09332
2.05948
2.02218
1.98438
1.94706
1.90951
1.87305
1.83837
1.80524
1.77584
1.74914
1.71574
1.67414
1.64637
1.62597
1.59709
1.56669
1.54558
1.52029
1.48231
1.46384
1.45752
1.44467
1.41748
1.37842
1.36225
1.35396
1.34037
1.31803
1.30931
1.30586
1.29521
1.27394
1.25043
1.24033
1.2347
1.22329
1.21256
1.2132
1.21231
1.21104
1.21525
1.22532
1.24072
1.26583
1.2963
1.30688
1.31308
1.31652
1.31592
1.31264
1.30627
1.30127
1.30177
1.30507
1.30684
1.30848
1.31257
1.31421
1.31423
1.31186
1.30948
1.31242
1.32016
1.3318
1.34544
1.36084
1.3765
1.38399
1.38395
1.38211
1.37556
1.36176
1.3519
1.34627
1.34053
1.33601
1.33256
1.32515
1.30729
1.28191
1.25471
1.22793
1.20496
1.18475
1.16768
1.15376
1.13114
1.09471
1.05781
1.02911
1.01075
1.00405
1.004
2.1283
2.1015
2.07511
2.04663
2.01442
1.9787
1.94227
1.90963
1.88017
1.85006
1.81446
1.78331
1.75871
1.73226
1.69819
1.66793
1.64347
1.61115
1.58192
1.56637
1.54764
1.51543
1.48347
1.47163
1.45807
1.43434
1.40289
1.38767
1.37895
1.36574
1.34284
1.32909
1.32302
1.31059
1.28788
1.26031
1.24674
1.2412
1.23142
1.21748
1.21086
1.20891
1.20215
1.19697
1.19745
1.20116
1.21197
1.23618
1.26239
1.27408
1.28329
1.28476
1.28465
1.27966
1.27917
1.28277
1.2935
1.30398
1.31197
1.32587
1.34296
1.35724
1.37003
1.38376
1.40121
1.42182
1.44117
1.45744
1.47193
1.48351
1.48483
1.48081
1.46995
1.45689
1.44236
1.4295
1.41796
1.40739
1.40005
1.39259
1.37908
1.35954
1.33634
1.31202
1.28792
1.26366
1.24042
1.21683
1.18361
1.14191
1.09723
1.05889
1.03276
1.01666
1.0095
1.00832
2.10873
2.08249
2.05889
2.0318
2.00064
1.96893
1.9383
1.9084
1.87946
1.85213
1.82243
1.79383
1.76761
1.73943
1.70366
1.67826
1.65894
1.63213
1.59956
1.57928
1.56092
1.53396
1.50435
1.48976
1.47563
1.45335
1.41955
1.40205
1.39571
1.38561
1.36481
1.34912
1.34119
1.32831
1.30527
1.27513
1.26188
1.25763
1.24908
1.23455
1.22249
1.21729
1.20898
1.19564
1.191
1.19107
1.1921
1.19662
1.2074
1.21633
1.22696
1.24152
1.25569
1.25962
1.26702
1.28477
1.31816
1.36296
1.4106
1.45377
1.48442
1.49982
1.50585
1.5083
1.51027
1.5104
1.50763
1.50683
1.50568
1.50253
1.49806
1.49148
1.47762
1.46205
1.44855
1.43486
1.42256
1.41202
1.40118
1.38877
1.37345
1.35915
1.34324
1.32498
1.30886
1.29416
1.27625
1.25269
1.22577
1.19255
1.15323
1.11696
1.0898
1.07104
1.05626
1.03763
2.08593
2.06572
2.03571
2.01116
1.9873
1.96017
1.93042
1.9025
1.87618
1.85056
1.82265
1.79379
1.76914
1.74727
1.71729
1.68575
1.6633
1.63839
1.61093
1.59369
1.57738
1.55233
1.51674
1.49955
1.48813
1.46883
1.44162
1.42111
1.41282
1.40088
1.37919
1.36041
1.35247
1.34167
1.32103
1.2899
1.27597
1.27153
1.26292
1.24833
1.23417
1.22583
1.21496
1.19786
1.18527
1.1823
1.18278
1.18521
1.18603
1.18527
1.18947
1.20438
1.23459
1.28513
1.33927
1.39824
1.45677
1.50385
1.53514
1.55108
1.5571
1.55355
1.54537
1.53572
1.52672
1.51503
1.50234
1.49142
1.48117
1.46918
1.45759
1.4493
1.43755
1.42238
1.4098
1.39879
1.38589
1.37198
1.36111
1.35206
1.34004
1.32531
1.31303
1.30404
1.29574
1.28367
1.2662
1.24723
1.22748
1.20373
1.18011
1.16281
1.14936
1.13671
1.12409
1.10776
1.9721
2.04709
2.02448
1.99127
1.96436
1.94514
1.925
1.89932
1.86757
1.84181
1.82142
1.79642
1.76849
1.7442
1.71889
1.69206
1.67058
1.6485
1.61637
1.59343
1.58191
1.564
1.53498
1.51388
1.49906
1.47941
1.45116
1.43454
1.42758
1.41648
1.39547
1.37119
1.36081
1.35033
1.33177
1.30335
1.29114
1.28674
1.27755
1.2629
1.24837
1.24009
1.23031
1.21415
1.19679
1.19025
1.19127
1.19554
1.20498
1.22491
1.26062
1.31389
1.37875
1.42965
1.46812
1.50097
1.52849
1.54551
1.54695
1.54242
1.5357
1.52781
1.52002
1.51321
1.49965
1.48078
1.46413
1.45088
1.43843
1.42497
1.41134
1.40128
1.39111
1.377
1.36277
1.34908
1.33444
1.32048
1.31138
1.30658
1.3002
1.29183
1.28456
1.27775
1.26782
1.25343
1.23652
1.21867
1.2016
1.18707
1.17661
1.17046
1.16696
1.16202
1.1535
1.14209
1.66102
1.94551
2.0073
1.9856
1.95208
1.92506
1.90811
1.88928
1.86454
1.83749
1.81421
1.79045
1.76515
1.74464
1.72389
1.69214
1.6655
1.64906
1.62742
1.60469
1.58853
1.5684
1.53772
1.51823
1.507
1.49148
1.46724
1.44535
1.43649
1.42451
1.40502
1.38102
1.36911
1.35904
1.3419
1.3128
1.30019
1.29615
1.28814
1.27456
1.25927
1.25135
1.24316
1.23139
1.21719
1.22028
1.23701
1.27339
1.32955
1.38248
1.42448
1.45934
1.48514
1.48969
1.49228
1.49738
1.49537
1.48812
1.4798
1.47034
1.46385
1.46013
1.45774
1.45504
1.44079
1.4206
1.40263
1.38974
1.38002
1.37027
1.35822
1.35147
1.34572
1.33544
1.31773
1.3018
1.2896
1.27803
1.26611
1.26257
1.26323
1.26202
1.25931
1.25436
1.24407
1.22995
1.21466
1.19874
1.18448
1.17564
1.17121
1.17069
1.171
1.16777
1.16041
1.15046
1.18713
1.6735
1.91249
1.96961
1.94906
1.91539
1.89179
1.87312
1.85092
1.82866
1.80948
1.78901
1.75874
1.73337
1.72059
1.69918
1.671
1.64621
1.62537
1.60552
1.59244
1.57753
1.55119
1.52241
1.50784
1.49357
1.47361
1.45683
1.44769
1.43507
1.41402
1.38513
1.37254
1.36463
1.34995
1.3256
1.31017
1.30394
1.29492
1.28164
1.26861
1.26521
1.26813
1.28353
1.31428
1.36809
1.42777
1.47204
1.50587
1.50716
1.50775
1.50676
1.50191
1.48927
1.47373
1.45916
1.44042
1.41996
1.40457
1.39155
1.38008
1.37952
1.38194
1.38019
1.36564
1.34746
1.33099
1.31703
1.30936
1.30407
1.29756
1.29113
1.28329
1.27363
1.2614
1.24609
1.23453
1.22616
1.21816
1.21445
1.21374
1.21239
1.21024
1.20779
1.20127
1.19182
1.18196
1.17181
1.16219
1.1604
1.16373
1.16821
1.16816
1.16517
1.15985
1.15244
1.00817
1.21745
1.66925
1.88063
1.92938
1.91236
1.88065
1.856
1.83613
1.81633
1.79657
1.77998
1.75859
1.73307
1.71278
1.69231
1.66804
1.64855
1.63319
1.60992
1.58777
1.57427
1.55604
1.53139
1.5151
1.50179
1.47916
1.45642
1.44847
1.43897
1.42125
1.39391
1.37892
1.36947
1.35463
1.33055
1.317
1.31195
1.30671
1.29846
1.30494
1.33469
1.39729
1.47048
1.52028
1.55793
1.57455
1.56942
1.55423
1.53311
1.51814
1.50559
1.48623
1.46508
1.4431
1.41877
1.38977
1.36229
1.34291
1.33055
1.32052
1.3174
1.31744
1.31245
1.29844
1.28508
1.27212
1.25828
1.24784
1.24545
1.24381
1.23966
1.23295
1.22438
1.21489
1.20239
1.18966
1.1823
1.17796
1.17475
1.17339
1.17215
1.16939
1.16468
1.15952
1.15552
1.15123
1.14513
1.14006
1.13901
1.14203
1.14802
1.14891
1.14746
1.14476
1.13807
1.00006
1.01159
1.23078
1.64992
1.83905
1.89275
1.87931
1.84953
1.8204
1.80172
1.78728
1.77081
1.75036
1.72934
1.7099
1.68822
1.66466
1.64182
1.6312
1.61357
1.59072
1.57508
1.55772
1.52941
1.51392
1.50554
1.48864
1.46578
1.45339
1.44064
1.42085
1.39252
1.38104
1.37366
1.36229
1.34223
1.32746
1.33258
1.35641
1.40901
1.47673
1.5503
1.60794
1.62318
1.62775
1.62093
1.59825
1.57377
1.5473
1.52594
1.50467
1.48096
1.45629
1.43096
1.40697
1.38229
1.35468
1.33
1.31078
1.29902
1.28998
1.28486
1.28022
1.26946
1.25645
1.24366
1.23105
1.21892
1.20718
1.19943
1.19827
1.19707
1.19365
1.18703
1.17622
1.16493
1.15414
1.14601
1.14324
1.14167
1.14169
1.14246
1.13909
1.13038
1.12815
1.12812
1.12762
1.12471
1.12054
1.12021
1.12479
1.12888
1.12867
1.12699
1.12408
1.11716
1
1.0001
1.01351
1.22924
1.60526
1.80289
1.8624
1.85018
1.82167
1.79114
1.77394
1.75873
1.74127
1.7233
1.70264
1.68244
1.65902
1.64001
1.62917
1.61005
1.58391
1.57122
1.56139
1.54079
1.51736
1.50392
1.48611
1.46702
1.45613
1.44481
1.4264
1.39721
1.38051
1.37628
1.37267
1.38181
1.41461
1.48347
1.56293
1.62334
1.66807
1.67757
1.66727
1.65122
1.63477
1.60911
1.5727
1.54346
1.52093
1.49686
1.47045
1.44578
1.42435
1.40316
1.38138
1.35868
1.3308
1.30982
1.29762
1.28675
1.27758
1.26867
1.25822
1.24653
1.23408
1.21962
1.20473
1.19369
1.18433
1.17572
1.16979
1.16775
1.16436
1.1547
1.14165
1.1321
1.12449
1.11728
1.11476
1.11502
1.11568
1.11505
1.10939
1.10077
1.09836
1.09899
1.10067
1.10231
1.10238
1.10424
1.11029
1.1118
1.11129
1.10967
1.10656
1.10005
1
1
1.00012
1.01371
1.20452
1.55844
1.77618
1.83053
1.82092
1.79309
1.76815
1.74614
1.72765
1.71352
1.69655
1.67977
1.65534
1.63481
1.62408
1.60554
1.5816
1.56258
1.55476
1.54265
1.52453
1.50872
1.48968
1.46346
1.45144
1.44359
1.43066
1.40855
1.40623
1.4244
1.47838
1.56633
1.64453
1.69037
1.72418
1.72197
1.70733
1.68259
1.6635
1.6437
1.61754
1.58106
1.54191
1.51646
1.49793
1.47683
1.45278
1.42962
1.4085
1.3891
1.36926
1.34581
1.31984
1.29987
1.28717
1.27579
1.26556
1.25575
1.24562
1.23476
1.22182
1.20486
1.18756
1.17737
1.17084
1.16486
1.15846
1.15224
1.1446
1.13349
1.12028
1.11179
1.10588
1.10028
1.09596
1.09379
1.09134
1.0861
1.07851
1.07203
1.06834
1.06789
1.06911
1.07375
1.08041
1.08586
1.08973
1.09307
1.09367
1.09292
1.09111
1.08682
1
1
1
1.00012
1.01141
1.16886
1.52323
1.74063
1.78664
1.78705
1.77118
1.74647
1.72108
1.70507
1.69148
1.67556
1.65135
1.63505
1.61762
1.59613
1.57419
1.56047
1.55412
1.53986
1.52036
1.50645
1.49175
1.46661
1.4539
1.4486
1.4556
1.48794
1.56479
1.64998
1.73233
1.76177
1.76435
1.75481
1.73677
1.70546
1.67304
1.64968
1.62742
1.60095
1.56966
1.53593
1.50884
1.49015
1.47252
1.4531
1.43238
1.41199
1.39224
1.37233
1.35229
1.3321
1.3138
1.29778
1.28374
1.27162
1.26244
1.2526
1.24029
1.22602
1.21044
1.19332
1.18003
1.17259
1.16651
1.16002
1.152
1.14245
1.13315
1.12299
1.11214
1.1049
1.09951
1.09439
1.09012
1.08614
1.07891
1.07007
1.06224
1.05667
1.05236
1.04785
1.04581
1.04672
1.05149
1.05672
1.05969
1.06228
1.067
1.07039
1.07059
1.06906
1
1
1
1
1.0001
1.00826
1.14163
1.47569
1.68035
1.74793
1.76547
1.75195
1.72406
1.70355
1.68981
1.66817
1.64726
1.63263
1.6106
1.59121
1.57158
1.55655
1.55148
1.53899
1.51849
1.5022
1.49228
1.48095
1.49264
1.54675
1.6409
1.73813
1.8014
1.83418
1.83122
1.8129
1.77894
1.75045
1.72047
1.68977
1.66256
1.63338
1.60179
1.57034
1.53937
1.51098
1.48923
1.47232
1.45602
1.43642
1.41317
1.39185
1.37492
1.35935
1.34149
1.32122
1.30326
1.28734
1.27381
1.265
1.25842
1.25028
1.23735
1.22015
1.20109
1.18497
1.1777
1.17233
1.16525
1.15683
1.14721
1.13584
1.12429
1.11362
1.10758
1.10436
1.10182
1.09826
1.09224
1.08277
1.07163
1.06061
1.05321
1.04797
1.0431
1.03872
1.03495
1.0319
1.03202
1.03274
1.03353
1.03427
1.03601
1.0402
1.04435
1.0471
1
1
1
1
1
1.00007
1.00603
1.1094
1.39929
1.62115
1.72462
1.74393
1.73108
1.7096
1.69178
1.66278
1.64402
1.62696
1.60588
1.59047
1.56839
1.55871
1.55022
1.53414
1.51923
1.5172
1.54153
1.61802
1.72689
1.81482
1.85602
1.87214
1.8607
1.83703
1.80796
1.77246
1.73424
1.70071
1.67268
1.64823
1.62447
1.59829
1.57026
1.54541
1.52347
1.50268
1.48222
1.4618
1.44277
1.42336
1.40237
1.38342
1.36506
1.34672
1.32865
1.30945
1.2918
1.27885
1.26881
1.2603
1.25263
1.24359
1.23013
1.21188
1.19272
1.1795
1.17215
1.16592
1.15885
1.15122
1.14275
1.13229
1.12074
1.11056
1.10254
1.09567
1.08934
1.08349
1.07687
1.06934
1.06005
1.05074
1.04512
1.04106
1.03647
1.03219
1.02894
1.02694
1.02473
1.02191
1.01945
1.01926
1.0196
1.02139
1.02522
1.03154
1
1
1
1
1
1
1.00004
1.00362
1.07129
1.31273
1.57549
1.70447
1.71882
1.70969
1.69752
1.66879
1.64267
1.62069
1.60377
1.58908
1.56603
1.56165
1.55658
1.55882
1.59313
1.68715
1.80187
1.90059
1.91956
1.92488
1.91304
1.89548
1.87218
1.83757
1.79053
1.74267
1.69857
1.6627
1.63603
1.61403
1.59263
1.57113
1.55123
1.53128
1.50995
1.48881
1.46914
1.4502
1.43128
1.41309
1.39636
1.37909
1.35916
1.33888
1.31988
1.30583
1.29805
1.28758
1.27408
1.2621
1.25139
1.23947
1.22738
1.21672
1.20481
1.19175
1.18154
1.1734
1.1649
1.1553
1.14542
1.13708
1.12888
1.11867
1.10683
1.09524
1.08496
1.07647
1.06965
1.06276
1.05415
1.04505
1.03933
1.0354
1.03159
1.02821
1.02563
1.02363
1.02145
1.01791
1.01238
1.01051
1.01063
1.01151
1.01355
1.01878
1
1
1
1
1
1
1
1.00002
1.00172
1.04017
1.24096
1.54268
1.65716
1.6803
1.68717
1.67411
1.64648
1.62097
1.60708
1.58811
1.57772
1.59146
1.6478
1.76904
1.88335
1.96948
1.98217
1.96425
1.92076
1.89089
1.86808
1.84576
1.81876
1.7845
1.74803
1.7136
1.681
1.65017
1.62149
1.59576
1.57496
1.55711
1.53989
1.51961
1.49593
1.47377
1.45715
1.44211
1.42424
1.40365
1.38193
1.36129
1.34514
1.3304
1.31549
1.30198
1.28805
1.27255
1.25716
1.24418
1.2341
1.22679
1.21988
1.20915
1.1921
1.175
1.16256
1.15374
1.14674
1.14019
1.134
1.12754
1.11936
1.10718
1.09212
1.08171
1.07599
1.07129
1.06558
1.05855
1.05098
1.04343
1.03787
1.03401
1.0303
1.02711
1.02468
1.02252
1.01997
1.01574
1.00967
1.00686
1.00686
1.00741
1.00845
1.01188
1
1
1
1
1
1
1
1
1.00001
1.00074
1.02251
1.19156
1.46962
1.58865
1.64103
1.66105
1.65476
1.64455
1.63502
1.64827
1.70872
1.81914
1.92414
2.01692
2.05326
2.04937
2.02595
1.98298
1.93463
1.86966
1.82456
1.79777
1.77203
1.74464
1.71834
1.69149
1.66456
1.63744
1.61124
1.58692
1.56514
1.54549
1.52664
1.50688
1.48537
1.46449
1.44701
1.43105
1.41373
1.39418
1.37433
1.35689
1.3409
1.32592
1.31136
1.29649
1.28088
1.26537
1.25112
1.24026
1.23277
1.22589
1.21698
1.20374
1.18571
1.16798
1.15528
1.14611
1.14009
1.13628
1.13221
1.12611
1.11719
1.1036
1.08776
1.07857
1.07411
1.06998
1.06495
1.05885
1.05111
1.0424
1.03735
1.03372
1.03014
1.02739
1.02535
1.02324
1.02045
1.01567
1.00969
1.0066
1.00631
1.00666
1.00748
1.01048
1
1
1
1
1
1
1
1
1
1
1.00034
1.01244
1.1335
1.34904
1.50937
1.60138
1.67404
1.74112
1.81276
1.89779
1.96041
1.98172
2.01147
2.03053
2.02675
2.00271
1.96409
1.91953
1.87754
1.84818
1.82302
1.79665
1.77022
1.74598
1.72198
1.69522
1.66853
1.64314
1.61924
1.59732
1.57777
1.55961
1.54154
1.52211
1.50087
1.47944
1.45972
1.44164
1.42405
1.40667
1.38961
1.37178
1.35358
1.33721
1.32257
1.30843
1.29407
1.27942
1.2657
1.25462
1.24576
1.23722
1.22707
1.21315
1.1936
1.17381
1.16281
1.15716
1.15271
1.14824
1.1432
1.13688
1.12757
1.11218
1.09549
1.0883
1.08472
1.08106
1.07644
1.07013
1.06103
1.05179
1.04692
1.04331
1.04
1.03747
1.03541
1.03323
1.03003
1.02415
1.0177
1.01473
1.01379
1.01379
1.01421
1.01689
1
1
1
1
1
1
1
1
1
1
1
1.00013
1.00594
1.06422
1.2419
1.53249
1.79592
1.98486
2.13202
2.20715
2.23688
2.206
2.16457
2.10314
2.03104
1.96336
1.91145
1.8719
1.84054
1.82054
1.79767
1.77132
1.74385
1.72052
1.69781
1.67134
1.64423
1.61968
1.59749
1.5766
1.55745
1.54045
1.52457
1.50703
1.48653
1.46511
1.44491
1.42588
1.40787
1.39158
1.37595
1.35876
1.33999
1.32214
1.30673
1.29288
1.27925
1.26559
1.25258
1.24133
1.23201
1.22324
1.21304
1.19865
1.17708
1.15682
1.14808
1.14312
1.13867
1.13436
1.12972
1.12371
1.11421
1.09773
1.08174
1.07591
1.07253
1.06885
1.06421
1.05789
1.04886
1.03977
1.03513
1.03179
1.0286
1.02598
1.024
1.02189
1.01876
1.0127
1.00605
1.00318
1.00235
1.00235
1.00284
1.00629
)
;

boundaryField
{
    inlet
    {
        type            fixedValue;
        value           uniform 1;
    }
    outlet
    {
        type            inletOutlet;
        inletValue      uniform 1;
        value           nonuniform List<scalar> 
32
(
1.46611
1.45485
1.43754
1.39329
1.32465
1.23686
1.16252
1.10548
1.05828
1.02769
1.01211
1.00461
1.00396
1.00524
1.00842
1.03151
1.10149
1.13994
1.14966
1.15215
1.13912
1.11754
1.09984
1.08667
1.06895
1.04753
1.03265
1.02009
1.01323
1.01189
1.0185
1.00806
)
;
    }
    bottom
    {
        type            symmetryPlane;
    }
    top
    {
        type            symmetryPlane;
    }
    obstacle
    {
        type            zeroGradient;
    }
    defaultFaces
    {
        type            empty;
    }
}


// ************************************************************************* //
