/*--------------------------------*- C++ -*----------------------------------*\
  =========                 |
  \\      /  F ield         | OpenFOAM: The Open Source CFD Toolbox
   \\    /   O peration     | Website:  https://openfoam.org
    \\  /    A nd           | Version:  7
     \\/     M anipulation  |
\*---------------------------------------------------------------------------*/
FoamFile
{
    version     2.0;
    format      ascii;
    class       volVectorField;
    location    "0.9";
    object      U;
}
// * * * * * * * * * * * * * * * * * * * * * * * * * * * * * * * * * * * * * //

dimensions      [0 1 -1 0 0 0 0];

internalField   nonuniform List<vector> 
4032
(
(3 -7.06031e-17 0)
(3 -1.16905e-16 0)
(3 -3.26207e-16 0)
(3 -6.6119e-16 0)
(3 -6.05096e-16 0)
(3 -6.6759e-17 0)
(3 6.74197e-16 0)
(3 5.40003e-16 0)
(3 7.08773e-17 0)
(3 -7.15423e-16 0)
(3 -8.41231e-16 0)
(3 -2.40948e-16 0)
(3 -3.41713e-16 0)
(1.99122 0.0126312 0)
(0.755095 0.0162936 0)
(0.616365 0.0337314 0)
(0.546018 0.0308149 0)
(0.480107 0.0287266 0)
(0.417268 0.0293131 0)
(0.355101 0.0314163 0)
(0.289496 0.0341765 0)
(0.222235 0.0383456 0)
(0.14334 0.0417888 0)
(0.0514001 0.0468525 0)
(3 -3.72983e-16 0)
(3 -1.09695e-15 0)
(3 -1.25219e-15 0)
(3 -1.42036e-15 0)
(3 -1.34718e-15 0)
(3 -2.4135e-16 0)
(3 3.54225e-16 0)
(3 3.00213e-16 0)
(3 3.89235e-16 0)
(3 4.72346e-17 0)
(3 -1.51779e-16 0)
(3 -1.3709e-16 0)
(3 -2.4497e-16 0)
(2.02606 0.0630878 0)
(0.745606 0.0775209 0)
(0.59381 0.101422 0)
(0.525332 0.0881488 0)
(0.461881 0.0818141 0)
(0.401452 0.0860845 0)
(0.340661 0.0943678 0)
(0.275762 0.102633 0)
(0.211188 0.115765 0)
(0.135537 0.127415 0)
(0.0484035 0.142897 0)
(3 -1.20241e-16 0)
(3 -3.22659e-16 0)
(3 -1.22163e-15 0)
(3 -9.93375e-16 0)
(3 -4.73536e-16 0)
(3 -3.31554e-16 0)
(3 -7.77362e-16 0)
(3 -7.773e-16 0)
(3 -4.91659e-16 0)
(3 1.19957e-15 0)
(3 1.58091e-15 0)
(3 2.73388e-16 0)
(3 -6.02157e-16 0)
(2.1409 0.116556 0)
(0.763629 0.149068 0)
(0.59355 0.170582 0)
(0.52949 0.148104 0)
(0.467228 0.137581 0)
(0.40663 0.14492 0)
(0.343419 0.159201 0)
(0.273991 0.171853 0)
(0.207271 0.191494 0)
(0.131069 0.209173 0)
(0.0461677 0.23274 0)
(3 4.55047e-16 0)
(3 7.38153e-16 0)
(3 3.59532e-16 0)
(3 4.322e-18 0)
(3 2.45308e-16 0)
(3 2.6824e-16 0)
(3 -3.06528e-16 0)
(3 -3.65381e-16 0)
(3 -1.147e-16 0)
(3 7.43875e-17 0)
(3 4.36837e-16 0)
(3 -5.94499e-16 0)
(3 -1.22063e-15 0)
(2.32383 0.164222 0)
(0.80262 0.230733 0)
(0.608657 0.234876 0)
(0.558951 0.202798 0)
(0.498803 0.190758 0)
(0.436623 0.204098 0)
(0.366677 0.228937 0)
(0.286613 0.248451 0)
(0.21233 0.27326 0)
(0.131892 0.294536 0)
(0.0441744 0.321514 0)
(3 -3.15168e-17 0)
(3 1.22532e-16 0)
(3 3.7742e-16 0)
(3 3.35739e-16 0)
(3 -1.43554e-16 0)
(3 -2.01495e-16 0)
(3 3.52788e-17 0)
(3 2.94369e-16 0)
(3 -1.56682e-16 0)
(3 -1.20407e-15 0)
(3 -1.77054e-15 0)
(3 -1.88581e-15 0)
(3 -1.66909e-15 0)
(2.57802 0.201123 0)
(0.874972 0.314701 0)
(0.651284 0.285076 0)
(0.61133 0.243698 0)
(0.546936 0.241261 0)
(0.479191 0.267529 0)
(0.402053 0.307017 0)
(0.311693 0.334272 0)
(0.231849 0.361842 0)
(0.14444 0.385566 0)
(0.0499914 0.415951 0)
(3 2.25518e-17 0)
(3 1.68721e-16 0)
(3 3.22523e-16 0)
(3 8.68159e-16 0)
(3 7.53106e-16 0)
(3 6.14503e-16 0)
(3 4.90328e-16 0)
(3 1.28743e-18 0)
(3 -8.43715e-16 0)
(3 -1.04573e-15 0)
(3 -1.13064e-15 0)
(3 -5.86315e-16 0)
(3 -5.99083e-16 0)
(2.90759 0.115417 0)
(1.00573 0.359852 0)
(0.706181 0.326329 0)
(0.655734 0.295331 0)
(0.583419 0.309031 0)
(0.502235 0.347597 0)
(0.4163 0.396444 0)
(0.323067 0.429375 0)
(0.241167 0.461088 0)
(0.1538 0.49374 0)
(0.0486516 0.528852 0)
(3 -1.19371e-17 0)
(3 -7.58273e-17 0)
(3 2.03695e-16 0)
(3 4.24901e-16 0)
(3 4.57545e-16 0)
(3 5.35021e-17 0)
(3 1.41999e-17 0)
(3 -4.18326e-16 0)
(3 -9.22335e-16 0)
(3 -1.42249e-15 0)
(3 -1.22348e-15 0)
(3 -2.27241e-16 0)
(3 -2.24068e-18 0)
(3.02126 0.0114408 0)
(1.17001 0.379847 0)
(0.72484 0.389659 0)
(0.652996 0.363657 0)
(0.577572 0.384664 0)
(0.507254 0.430507 0)
(0.439302 0.48233 0)
(0.3672 0.520286 0)
(0.301647 0.555613 0)
(0.22074 0.599955 0)
(0.0987324 0.668726 0)
(3 -1.23414e-16 0)
(3 -6.21345e-16 0)
(3 -5.47976e-16 0)
(3 -9.67445e-16 0)
(3 -1.38309e-15 0)
(3 -1.27038e-15 0)
(3 -1.63753e-15 0)
(3 -1.73696e-15 0)
(3 -1.93055e-15 0)
(3 -1.42544e-15 0)
(3 -1.87023e-15 0)
(3 -7.16749e-16 0)
(3 1.89993e-16 0)
(3.00064 6.40919e-05 0)
(1.45888 0.441788 0)
(0.742725 0.466692 0)
(0.658995 0.43219 0)
(0.60349 0.457601 0)
(0.552006 0.502218 0)
(0.500566 0.550548 0)
(0.448307 0.590299 0)
(0.388522 0.647852 0)
(0.275944 0.760708 0)
(0.151755 0.943393 0)
(3 2.13048e-17 0)
(3 -1.09322e-16 0)
(3 -4.67495e-16 0)
(3 -3.87717e-16 0)
(3 -7.87085e-17 0)
(3 2.65174e-17 0)
(3 -6.94042e-16 0)
(3 -1.4446e-15 0)
(3 -1.25388e-15 0)
(3 -4.57024e-16 0)
(3 -2.19131e-16 0)
(3 3.2942e-16 0)
(3 6.64783e-16 0)
(3 2.12853e-09 0)
(1.98884 0.487164 0)
(0.824176 0.547041 0)
(0.730336 0.486406 0)
(0.691273 0.501007 0)
(0.649463 0.546158 0)
(0.604138 0.599034 0)
(0.56133 0.650618 0)
(0.522064 0.749406 0)
(0.490822 0.920179 0)
(0.603485 1.21995 0)
(3 1.98452e-18 0)
(3 -8.69799e-17 0)
(3 -6.06095e-17 0)
(3 2.75102e-16 0)
(3 9.57241e-16 0)
(3 9.2041e-16 0)
(3 2.06417e-16 0)
(3 -3.68168e-16 0)
(3 4.15319e-17 0)
(3 2.08095e-16 0)
(3 5.69529e-16 0)
(3 8.13831e-16 0)
(3 9.08213e-16 0)
(3 -2.32729e-12 0)
(2.75671 0.309227 0)
(1.01608 0.58524 0)
(0.834976 0.50852 0)
(0.803173 0.542781 0)
(0.766078 0.596574 0)
(0.724417 0.652524 0)
(0.689558 0.715476 0)
(0.674551 0.830181 0)
(0.733804 0.980078 0)
(1.00867 1.1652 0)
(3 9.44094e-18 0)
(3 -1.68608e-16 0)
(3 1.7795e-16 0)
(3 4.13092e-16 0)
(3 4.51641e-16 0)
(3 2.07412e-16 0)
(3 -1.43226e-16 0)
(3 5.45247e-17 0)
(3 -3.88843e-16 0)
(3 -3.94716e-17 0)
(3 2.89583e-16 0)
(3 7.52626e-17 0)
(3 -8.95856e-16 0)
(3 -4.71671e-12 0)
(3.06609 0.0300867 0)
(1.28826 0.568811 0)
(0.877214 0.586834 0)
(0.817889 0.607378 0)
(0.797486 0.660925 0)
(0.780238 0.71916 0)
(0.779923 0.786677 0)
(0.804629 0.877555 0)
(0.916839 0.98428 0)
(1.21012 1.09565 0)
(3 -9.25154e-17 0)
(3 -4.68728e-17 0)
(3 1.67532e-16 0)
(3 3.08613e-16 0)
(3 -1.5329e-16 0)
(3 -2.45753e-16 0)
(3 -1.79063e-16 0)
(3 1.98827e-16 0)
(3 -4.20852e-16 0)
(3 -2.77444e-16 0)
(3 5.39545e-18 0)
(3 -5.47783e-16 0)
(3 -1.60723e-15 0)
(3 -1.81468e-12 0)
(3.00295 0.000175904 0)
(1.77011 0.590821 0)
(0.918975 0.675652 0)
(0.852638 0.650346 0)
(0.848461 0.687763 0)
(0.844307 0.747294 0)
(0.856209 0.816136 0)
(0.910631 0.894903 0)
(1.05072 0.983867 0)
(1.31021 1.04966 0)
(3 1.39054e-16 0)
(3 3.62492e-16 0)
(3 4.08621e-16 0)
(3 1.63168e-16 0)
(3 -1.06079e-16 0)
(3 -1.04597e-16 0)
(3 2.53293e-16 0)
(3 1.27336e-16 0)
(3 4.20665e-16 0)
(3 3.035e-16 0)
(3 8.54562e-16 0)
(3 2.42743e-16 0)
(3 -7.11884e-16 0)
(3 -1.77243e-13 0)
(3.00001 -2.8874e-08 0)
(2.71268 0.366076 0)
(1.09548 0.714734 0)
(0.939538 0.652647 0)
(0.935118 0.706796 0)
(0.926184 0.775457 0)
(0.935778 0.834205 0)
(0.996495 0.889411 0)
(1.12722 0.951114 0)
(1.33344 0.985945 0)
(3 -8.27009e-18 0)
(3 1.76427e-17 0)
(3 -1.44479e-16 0)
(3 -2.28939e-16 0)
(3 1.41263e-17 0)
(3 5.95196e-16 0)
(3 5.65237e-16 0)
(3 5.93868e-16 0)
(3 3.91181e-16 0)
(3 -1.73494e-16 0)
(3 -3.34933e-16 0)
(3 -5.36009e-16 0)
(3 -5.30797e-16 0)
(3 -2.52536e-15 0)
(3 -6.38751e-08 0)
(3.06972 0.029992 0)
(1.44631 0.68113 0)
(1.00361 0.735168 0)
(0.979164 0.771587 0)
(0.976328 0.830845 0)
(1.00425 0.866409 0)
(1.0739 0.908768 0)
(1.19234 0.943802 0)
(1.3608 0.957699 0)
(3 -1.98395e-16 0)
(3 -2.5806e-16 0)
(3 -4.65404e-16 0)
(3 -3.46221e-16 0)
(3 -1.17362e-16 0)
(3 3.24694e-16 0)
(3 5.99285e-16 0)
(3 -2.77933e-16 0)
(3 -8.0987e-16 0)
(3 -1.84815e-15 0)
(3 -3.10424e-15 0)
(3 -2.93969e-15 0)
(3 -1.8694e-15 0)
(3 -9.02317e-16 0)
(3 -9.48663e-09 0)
(3.00282 0.000266487 0)
(2.15011 0.58535 0)
(1.11716 0.803768 0)
(1.03201 0.830849 0)
(1.04143 0.842879 0)
(1.07806 0.867128 0)
(1.14697 0.894495 0)
(1.2517 0.915984 0)
(1.38862 0.922895 0)
(3 1.13311e-17 0)
(3 6.43297e-17 0)
(3 2.50845e-16 0)
(3 2.13523e-16 0)
(3 1.84897e-16 0)
(3 -1.52397e-16 0)
(3 -2.32853e-16 0)
(3 -4.23257e-16 0)
(3 -4.91433e-16 0)
(3 -6.91485e-16 0)
(3 -1.50157e-15 0)
(3 -1.15965e-15 0)
(3 -6.72645e-16 0)
(3 3.524e-16 0)
(3 -9.49008e-10 0)
(3 3.14197e-07 0)
(3.0313 0.128671 0)
(1.42468 0.802336 0)
(1.10977 0.837215 0)
(1.13294 0.852135 0)
(1.15607 0.884356 0)
(1.21586 0.911006 0)
(1.30628 0.928155 0)
(1.41901 0.926227 0)
(3 1.45555e-16 0)
(3 2.42636e-16 0)
(3 9.10534e-17 0)
(3 -1.25214e-16 0)
(3 -4.0592e-16 0)
(3 -5.4912e-16 0)
(3 -1.01047e-15 0)
(3 -5.98624e-16 0)
(3 -1.56731e-16 0)
(3 3.15361e-16 0)
(3 -9.96315e-17 0)
(3 -8.69639e-16 0)
(3 -7.77597e-16 0)
(3 5.83149e-16 0)
(3 -5.96329e-12 0)
(3 -9.07312e-08 0)
(3.01433 0.00260313 0)
(2.05859 0.712522 0)
(1.18979 0.906229 0)
(1.17934 0.907635 0)
(1.22186 0.913094 0)
(1.28128 0.914383 0)
(1.36317 0.912705 0)
(1.46016 0.90504 0)
(3 1.60955e-18 0)
(3 -3.37146e-16 0)
(3 -2.4931e-16 0)
(3 8.03523e-17 0)
(3 -3.60878e-16 0)
(3 -4.5013e-16 0)
(3 -3.92871e-16 0)
(3 4.0211e-17 0)
(3 4.83039e-16 0)
(3 3.29636e-16 0)
(3 1.60079e-18 0)
(3 -5.17867e-16 0)
(3 -6.64864e-16 0)
(3 1.22315e-16 0)
(3 -5.25081e-14 0)
(3 -2.01634e-08 0)
(3.00007 2.26805e-05 0)
(2.98699 0.191909 0)
(1.53732 0.880418 0)
(1.23943 0.913185 0)
(1.29474 0.91606 0)
(1.33754 0.926944 0)
(1.40496 0.930074 0)
(1.48596 0.924206 0)
(3 -7.91598e-17 0)
(3 -2.19494e-16 0)
(3 -4.16182e-17 0)
(3 1.23553e-16 0)
(3 -3.42567e-16 0)
(3 -3.12125e-16 0)
(3 -9.62081e-17 0)
(3 2.82352e-16 0)
(3 2.8758e-16 0)
(3 8.72021e-17 0)
(3 1.08131e-16 0)
(3 9.6808e-16 0)
(3 7.91344e-16 0)
(3 1.32087e-15 0)
(3 1.69191e-15 0)
(3 -3.67482e-09 0)
(3 1.42729e-09 0)
(3.015 0.00698438 0)
(2.29455 0.696078 0)
(1.34229 0.965116 0)
(1.32533 0.959677 0)
(1.38426 0.948293 0)
(1.44562 0.932695 0)
(1.5188 0.918524 0)
(3 1.30583e-16 0)
(3 2.53646e-16 0)
(3 -9.84067e-17 0)
(3 -3.17625e-16 0)
(3 -7.74502e-16 0)
(3 -1.05116e-15 0)
(3 -7.28121e-16 0)
(3 -6.88943e-16 0)
(3 -9.98065e-17 0)
(3 3.36281e-16 0)
(3 3.63211e-16 0)
(3 6.89446e-16 0)
(3 1.12913e-15 0)
(3 1.16529e-15 0)
(3 1.618e-15 0)
(3 -1.19685e-10 0)
(3 -1.19159e-09 0)
(3.00009 9.00312e-05 0)
(3.02 0.125222 0)
(1.7701 0.881228 0)
(1.37749 0.975115 0)
(1.42986 0.962446 0)
(1.47578 0.955826 0)
(1.53548 0.942678 0)
(3 9.98261e-17 0)
(3 -1.57249e-17 0)
(3 -3.68697e-17 0)
(3 -1.07106e-16 0)
(3 -1.26957e-16 0)
(3 -8.24489e-17 0)
(3 2.37119e-17 0)
(3 -1.18103e-16 0)
(3 4.95613e-16 0)
(3 1.51802e-15 0)
(3 1.72178e-15 0)
(3 1.05237e-15 0)
(3 1.15545e-15 0)
(3 1.11418e-15 0)
(3 1.01166e-15 0)
(3 -1.58055e-12 0)
(3 -2.28205e-10 0)
(3 6.15571e-08 0)
(3.00517 0.00500959 0)
(2.64129 0.488524 0)
(1.59243 0.985627 0)
(1.4462 0.981938 0)
(1.51489 0.969095 0)
(1.56214 0.953325 0)
(3 -4.50632e-17 0)
(3 -2.34642e-16 0)
(3 4.52101e-17 0)
(3 -2.70609e-16 0)
(3 -1.62472e-16 0)
(3 8.31043e-17 0)
(3 5.42831e-16 0)
(3 1.20717e-15 0)
(3 3.65729e-16 0)
(3 3.87332e-16 0)
(3 9.49484e-16 0)
(3 9.28862e-16 0)
(3 8.45951e-16 0)
(3 1.00396e-15 0)
(3 3.48675e-16 0)
(3 -2.40229e-15 0)
(3 -8.54012e-12 0)
(3 1.48902e-12 0)
(3.00001 3.16185e-05 0)
(3.01194 0.0457126 0)
(2.2214 0.784237 0)
(1.5311 1.013 0)
(1.52974 1.01042 0)
(1.58452 0.990574 0)
(3 -2.22282e-17 0)
(3 3.75753e-17 0)
(3 -9.96463e-17 0)
(3 -4.01079e-16 0)
(3 -4.77816e-16 0)
(3 1.31019e-16 0)
(3 8.81161e-16 0)
(3 9.07777e-16 0)
(3 -4.08504e-16 0)
(3 -1.28609e-15 0)
(3 -8.03622e-16 0)
(3 6.89343e-16 0)
(3 4.15545e-16 0)
(3 -8.65624e-17 0)
(3 -8.0043e-16 0)
(3 -4.68684e-16 0)
(3 -2.52837e-14 0)
(3 -8.18863e-15 0)
(3 1.45816e-08 0)
(3.00039 0.00140932 0)
(2.94079 0.200646 0)
(1.95374 0.900297 0)
(1.596 1.01911 0)
(1.61903 1.00998 0)
(3 1.22635e-16 0)
(3 2.42692e-16 0)
(3 8.94327e-17 0)
(3 1.13174e-16 0)
(3 2.82394e-16 0)
(3 7.03515e-17 0)
(3 1.05021e-16 0)
(3 -2.46756e-16 0)
(3 -7.20905e-16 0)
(3 -9.15722e-16 0)
(3 -6.92143e-16 0)
(3 3.00218e-16 0)
(3 6.30255e-17 0)
(3 -7.16644e-16 0)
(3 -1.12442e-15 0)
(3 -1.11797e-15 0)
(3 -7.88584e-16 0)
(3 -1.43375e-15 0)
(3 1.48397e-12 0)
(3 3.55424e-06 0)
(3.00219 0.0113335 0)
(2.71425 0.428116 0)
(1.85633 0.966529 0)
(1.66282 1.02837 0)
(3 4.79848e-17 0)
(3 1.39721e-16 0)
(3 2.62644e-16 0)
(3 5.65767e-16 0)
(3 5.53651e-17 0)
(3 -3.73831e-16 0)
(3 -8.75231e-16 0)
(3 -6.40422e-16 0)
(3 5.41422e-16 0)
(3 9.00437e-16 0)
(3 9.72875e-16 0)
(3 1.59265e-16 0)
(3 5.48768e-16 0)
(3 4.88806e-16 0)
(3 -2.84099e-16 0)
(3 -7.25216e-16 0)
(3 -1.15603e-15 0)
(3 -1.12279e-15 0)
(3 -1.55366e-16 0)
(3 1.45197e-09 0)
(2.99999 0.000105117 0)
(2.99607 0.0404659 0)
(2.49829 0.608691 0)
(1.8418 0.995193 0)
(3 -2.95705e-17 0)
(3 3.22052e-17 0)
(3 1.5546e-16 0)
(3 2.91642e-16 0)
(3 -1.60533e-16 0)
(3 -1.83625e-16 0)
(3 -1.63341e-16 0)
(3 1.17891e-16 0)
(3 1.42179e-15 0)
(3 2.67464e-15 0)
(3 2.66405e-15 0)
(3 1.64488e-15 0)
(3 1.87964e-15 0)
(3 1.86799e-15 0)
(3 1.25745e-15 0)
(3 -2.96767e-16 0)
(3 -9.97442e-16 0)
(3 -1.0013e-15 0)
(3 -8.80896e-16 0)
(3 1.28019e-13 0)
(3 1.01169e-07 0)
(2.99993 0.000976479 0)
(2.97101 0.0913657 0)
(2.3494 0.721896 0)
(3 1.13816e-16 0)
(3 2.91103e-16 0)
(3 4.52689e-16 0)
(3 5.22431e-16 0)
(3 8.30871e-16 0)
(3 9.23993e-16 0)
(3 1.5821e-16 0)
(3 1.86917e-16 0)
(3 6.47355e-16 0)
(3 1.13352e-15 0)
(3 1.59572e-15 0)
(3 2.20533e-15 0)
(3 2.31665e-15 0)
(3 1.98896e-15 0)
(3 1.74145e-15 0)
(3 1.79464e-15 0)
(3 1.58183e-15 0)
(3 4.638e-16 0)
(3 -7.55128e-16 0)
(3 -1.37846e-15 0)
(3 2.16942e-11 0)
(3 2.09582e-06 0)
(2.99964 0.00364852 0)
(2.92493 0.156918 0)
(3 -6.03477e-17 0)
(3 -1.46626e-16 0)
(3 -1.71146e-16 0)
(3 -3.85522e-16 0)
(3 -4.31808e-17 0)
(3 8.66979e-17 0)
(3 -3.52408e-17 0)
(3 -4.10528e-16 0)
(3 -8.87341e-16 0)
(3 -9.91383e-16 0)
(3 -4.77152e-16 0)
(3 3.03829e-16 0)
(3 1.99258e-15 0)
(3 2.36241e-15 0)
(3 1.52474e-15 0)
(3 1.52012e-15 0)
(3 1.34478e-15 0)
(3 7.08287e-16 0)
(3 3.13341e-16 0)
(3 -6.54047e-16 0)
(3 1.80013e-16 0)
(3 1.02499e-09 0)
(3 1.41343e-05 0)
(2.99861 0.00834548 0)
(3 -1.12551e-16 0)
(3 -8.70774e-16 0)
(3 -1.46936e-15 0)
(3 -1.69552e-15 0)
(3 -1.18293e-15 0)
(3 -6.32457e-16 0)
(3 -5.67319e-16 0)
(3 -1.66523e-15 0)
(3 -2.06806e-15 0)
(3 -1.08933e-15 0)
(3 -4.63572e-16 0)
(3 2.76893e-16 0)
(3 1.03529e-15 0)
(3 1.4627e-15 0)
(3 9.4567e-16 0)
(3 2.809e-16 0)
(3 4.39484e-16 0)
(3 7.01138e-16 0)
(3 5.70708e-16 0)
(3 4.57247e-16 0)
(3 -3.91884e-16 0)
(3 7.38771e-14 0)
(3 1.11938e-08 0)
(2.99999 5.15652e-05 0)
(3 7.16133e-17 0)
(3 -1.03776e-16 0)
(3 -4.74442e-17 0)
(3 -2.04121e-18 0)
(3 -3.914e-16 0)
(3 -7.94515e-16 0)
(3 -1.24801e-15 0)
(3 -1.9728e-15 0)
(3 -2.13378e-15 0)
(3 -6.24246e-16 0)
(3 -5.60078e-16 0)
(3 2.05252e-16 0)
(3 1.08653e-16 0)
(3 -6.80658e-16 0)
(3 -5.95849e-16 0)
(3 -6.51553e-16 0)
(3 -1.12597e-15 0)
(3 -9.22301e-16 0)
(3 -8.40206e-16 0)
(3 -1.67188e-16 0)
(3 1.06302e-16 0)
(3 -1.81983e-15 0)
(3 1.13957e-12 0)
(3 5.7749e-08 0)
(3 1.13609e-16 0)
(3 5.55004e-16 0)
(3 5.31774e-16 0)
(3 2.45808e-16 0)
(3 -5.52046e-16 0)
(3 -1.05913e-15 0)
(3 -9.72373e-16 0)
(3 -2.719e-16 0)
(3 -2.86422e-16 0)
(3 -8.88786e-16 0)
(3 -8.46935e-16 0)
(3 -1.33731e-15 0)
(3 -2.04316e-15 0)
(3 -2.07023e-15 0)
(3 -1.52872e-15 0)
(3 -1.64002e-15 0)
(3 -1.9831e-15 0)
(3 -1.67396e-15 0)
(3 -7.05273e-16 0)
(3 -3.06108e-16 0)
(3 2.16167e-16 0)
(3 1.51482e-16 0)
(3 -2.32538e-15 0)
(3 8.75481e-12 0)
(3 5.0342e-18 0)
(3 -3.9889e-17 0)
(3 -4.12635e-16 0)
(3 -3.41883e-16 0)
(3 -3.37697e-16 0)
(3 -5.78523e-16 0)
(3 -3.7632e-16 0)
(3 9.44542e-17 0)
(3 2.93416e-16 0)
(3 -2.47869e-16 0)
(3 -5.15048e-16 0)
(3 -1.41622e-15 0)
(3 -2.04127e-15 0)
(3 -1.70075e-15 0)
(3 -2.98469e-16 0)
(3 -3.51289e-16 0)
(3 -1.4781e-16 0)
(3 -2.3725e-16 0)
(3 7.31198e-17 0)
(3 -2.10007e-16 0)
(3 -3.27525e-16 0)
(3 1.65839e-16 0)
(3 -2.98769e-15 0)
(3 -2.88622e-15 0)
(3 3.26684e-17 0)
(3 5.85126e-17 0)
(3 1.02371e-16 0)
(3 4.13864e-16 0)
(3 1.15977e-16 0)
(3 2.65759e-16 0)
(3 -3.59362e-16 0)
(3 -1.81173e-16 0)
(3 2.00976e-16 0)
(3 3.01479e-16 0)
(3 6.69602e-16 0)
(3 3.50943e-16 0)
(3 -4.63164e-17 0)
(3 -4.59561e-16 0)
(3 -8.53853e-16 0)
(3 -1.80218e-16 0)
(3 7.5026e-16 0)
(3 9.35919e-16 0)
(3 2.29038e-16 0)
(3 -1.15509e-15 0)
(3 -1.10137e-15 0)
(3 -9.58501e-16 0)
(3 -1.91459e-15 0)
(3 -2.52392e-15 0)
(3 3.0093e-17 0)
(3 6.48238e-16 0)
(3 1.13018e-15 0)
(3 1.06478e-15 0)
(3 3.29434e-16 0)
(3 3.29549e-16 0)
(3 2.55907e-16 0)
(3 2.18015e-16 0)
(3 6.40479e-16 0)
(3 1.69566e-15 0)
(3 1.44215e-15 0)
(3 1.4745e-15 0)
(3 1.15361e-15 0)
(3 -1.25686e-16 0)
(3 -1.1599e-15 0)
(3 -6.29149e-16 0)
(3 -1.62464e-16 0)
(3 3.60772e-16 0)
(3 4.9857e-17 0)
(3 -9.29295e-16 0)
(3 -8.13031e-16 0)
(3 -5.66771e-16 0)
(3 -5.88451e-16 0)
(3 -1.38588e-15 0)
(3 1.40259e-17 0)
(3 2.10899e-16 0)
(3 1.62398e-16 0)
(3 -1.45451e-17 0)
(3 4.83015e-16 0)
(3 3.0506e-16 0)
(3 1.17538e-15 0)
(3 1.19078e-15 0)
(3 1.03528e-15 0)
(3 9.00406e-16 0)
(3 1.50703e-15 0)
(3 9.20064e-17 0)
(3 -1.5832e-15 0)
(3 -2.05119e-15 0)
(3 -2.00245e-15 0)
(3 -1.21978e-15 0)
(3 -7.98237e-16 0)
(3 -1.26476e-15 0)
(3 -1.36152e-15 0)
(3 -1.6675e-15 0)
(3 -1.05017e-15 0)
(3 -2.52795e-16 0)
(3 9.77155e-16 0)
(3 9.91098e-16 0)
(3 -7.38456e-17 0)
(3 -2.80196e-16 0)
(3 -9.87932e-16 0)
(3 -9.71032e-16 0)
(3 3.1565e-16 0)
(3 1.15597e-15 0)
(3 1.66593e-15 0)
(3 2.1997e-15 0)
(3 1.72599e-15 0)
(3 5.70636e-16 0)
(3 -6.18298e-17 0)
(3 -5.82394e-16 0)
(3 -1.07633e-15 0)
(3 -9.9793e-16 0)
(3 -9.33311e-16 0)
(3 -5.32293e-16 0)
(3 -5.80226e-16 0)
(3 -1.61939e-15 0)
(3 -2.30532e-15 0)
(3 -2.71891e-15 0)
(3 -1.85812e-15 0)
(3 -1.31171e-15 0)
(3 2.9936e-17 0)
(3 8.8917e-16 0)
(3 -1.95527e-16 0)
(3 -5.45995e-16 0)
(3 1.52506e-17 0)
(3 4.22731e-16 0)
(3 9.81526e-16 0)
(3 1.40148e-15 0)
(3 1.06384e-15 0)
(3 1.40155e-15 0)
(3 3.78595e-16 0)
(3 -3.87897e-16 0)
(3 -9.22025e-16 0)
(3 -6.58779e-16 0)
(3 1.8148e-16 0)
(3 1.21479e-15 0)
(3 1.2263e-15 0)
(3 1.08799e-15 0)
(3 2.59695e-16 0)
(3 -2.67103e-16 0)
(3 -2.16237e-15 0)
(3 -2.24977e-15 0)
(3 -2.85233e-15 0)
(3 -2.98013e-15 0)
(3 -2.09917e-15 0)
(3 -5.47021e-16 0)
(3 -9.86056e-17 0)
(3 1.54968e-16 0)
(3 8.45775e-16 0)
(3 9.89085e-16 0)
(3 9.70143e-16 0)
(3 1.04392e-15 0)
(3 9.28244e-16 0)
(3 4.85107e-16 0)
(3 -1.07282e-15 0)
(3 -1.26249e-15 0)
(3 -6.09259e-16 0)
(3 -6.6504e-16 0)
(3 -5.97555e-16 0)
(3 2.14743e-17 0)
(3 6.27841e-16 0)
(3 3.04729e-16 0)
(3 5.57444e-16 0)
(3 4.06089e-16 0)
(3 -5.54288e-16 0)
(3 -1.17849e-15 0)
(3 -1.97514e-15 0)
(3 -2.24653e-15 0)
(3 -1.45173e-15 0)
(3 -4.42168e-16 0)
(3 4.75947e-17 0)
(3 2.65139e-16 0)
(3 7.31998e-16 0)
(3 1.02126e-15 0)
(3 7.90752e-16 0)
(3 7.72921e-16 0)
(3 3.84558e-16 0)
(3 -2.78652e-16 0)
(3 -3.67545e-16 0)
(3 -6.10788e-16 0)
(3 -1.40622e-15 0)
(3 -1.34181e-15 0)
(3 -1.21062e-15 0)
(3 -1.67204e-15 0)
(3 -1.7712e-15 0)
(3 -5.54787e-16 0)
(3 -3.89058e-16 0)
(3 -3.32952e-16 0)
(3 3.32088e-16 0)
(3 -3.53598e-18 0)
(3 -1.05326e-15 0)
(3 -1.91915e-15 0)
(3 -2.38032e-15 0)
(3 -1.55164e-15 0)
(3 1.06254e-16 0)
(3 1.89289e-16 0)
(3 5.062e-16 0)
(3 6.05857e-16 0)
(3 3.09719e-16 0)
(3 1.80459e-16 0)
(3 -1.51963e-16 0)
(3 9.56684e-17 0)
(3 5.87571e-16 0)
(3 4.52451e-16 0)
(3 -9.99781e-16 0)
(3 -1.1908e-15 0)
(3 -9.00315e-16 0)
(3 -1.27287e-15 0)
(3 -1.6075e-15 0)
(3 -5.526e-16 0)
(3 -4.0159e-16 0)
(3 -1.49816e-16 0)
(3 1.30752e-16 0)
(3 -1.15102e-16 0)
(3 -8.74424e-16 0)
(3 -1.21999e-15 0)
(3 -1.25097e-15 0)
(3 -6.34166e-16 0)
(1.57409 1.30612 0)
(1.93668 1.5025 0)
(2.48671 1.14391 0)
(2.77371 0.909297 0)
(2.78362 0.386685 0)
(2.82138 0.0725622 0)
(2.6996 -0.253315 0)
(2.60295 -0.441103 0)
(2.57313 -0.345266 0)
(2.57775 -0.25741 0)
(2.57162 -0.273496 0)
(2.62245 -0.244958 0)
(2.63609 -0.160236 0)
(2.64306 -0.114208 0)
(2.62977 -0.11259 0)
(2.63409 -0.0963171 0)
(2.6353 -0.0689847 0)
(2.63906 -0.0499139 0)
(2.64015 -0.0442071 0)
(2.65954 -0.0333593 0)
(2.69158 -0.0173097 0)
(2.70293 -0.0125486 0)
(2.71547 -0.0114114 0)
(2.72585 -0.0111655 0)
(2.73562 -0.00937221 0)
(2.74757 -0.00355253 0)
(2.75163 0.00136525 0)
(2.752 0.00625216 0)
(2.75787 0.0036511 0)
(2.7682 0.000850214 0)
(2.79235 0.000868521 0)
(2.80765 0.00164095 0)
(2.81748 -0.00216535 0)
(2.82264 -0.00725433 0)
(2.83074 -0.0107951 0)
(2.83754 -0.0122561 0)
(2.83781 -0.00927801 0)
(2.83806 -0.00298168 0)
(2.84559 0.00357393 0)
(2.85604 0.00626297 0)
(2.8641 0.0070561 0)
(2.87102 0.00708059 0)
(2.87902 0.00566592 0)
(2.88716 0.00301082 0)
(2.89697 0.00192494 0)
(2.90814 0.00184749 0)
(2.91769 0.00391069 0)
(2.92478 0.00327932 0)
(2.9317 0.000512895 0)
(2.94029 0.000226279 0)
(2.95664 0.00152938 0)
(2.96788 0.00228975 0)
(2.97548 0.00256658 0)
(2.98016 0.00138918 0)
(2.98265 0.00013564 0)
(2.9864 -0.00274075 0)
(2.98952 -0.00639638 0)
(2.98622 -0.0073404 0)
(2.97495 -0.00328362 0)
(2.9601 0.00587323 0)
(2.94966 0.0138731 0)
(2.94459 0.0162017 0)
(2.93707 0.0174213 0)
(2.93606 0.0152383 0)
(2.94401 0.0104259 0)
(2.94799 0.00503956 0)
(2.94254 0.000740036 0)
(2.93691 -0.000545088 0)
(2.92032 0.00042961 0)
(2.88514 0.00670056 0)
(2.86233 0.0127891 0)
(2.84537 0.0139955 0)
(2.82418 0.0139462 0)
(2.81183 0.0115796 0)
(2.81119 0.00678485 0)
(2.80986 0.00221985 0)
(2.80579 0.00165599 0)
(2.8 0.00249794 0)
(2.78733 0.003768 0)
(2.78133 0.00434742 0)
(2.77459 0.00562571 0)
(2.76653 0.00909072 0)
(2.75645 0.0115494 0)
(2.74997 0.00877151 0)
(2.76206 0.00133936 0)
(2.78107 -0.00543698 0)
(2.78504 -0.00668473 0)
(2.78491 -0.0067581 0)
(2.77935 -0.00391073 0)
(2.76559 0.00528254 0)
(2.75756 0.0102286 0)
(2.74266 0.0137942 0)
(2.7277 0.0119581 0)
(2.72271 0.00518508 0)
(2.73329 -0.00897793 0)
(2.73925 -0.0144512 0)
(1.84383 1.13936 0)
(2.38708 0.967203 0)
(2.7166 0.430666 0)
(2.82569 0.00433154 0)
(2.93039 -0.149533 0)
(2.92258 -0.414699 0)
(2.89931 -0.629783 0)
(2.8994 -0.726286 0)
(2.8566 -0.636835 0)
(2.78797 -0.46177 0)
(2.74855 -0.335 0)
(2.72674 -0.264037 0)
(2.69545 -0.180999 0)
(2.67512 -0.124904 0)
(2.6628 -0.124952 0)
(2.66616 -0.114557 0)
(2.65782 -0.0678104 0)
(2.65677 -0.0235976 0)
(2.65606 -0.0126183 0)
(2.66787 -0.00759957 0)
(2.68948 0.0162636 0)
(2.6936 0.0212535 0)
(2.69623 0.0167968 0)
(2.70972 0.00198684 0)
(2.72537 -0.0161096 0)
(2.74185 -0.0176318 0)
(2.75021 -0.0110615 0)
(2.75039 -0.00105594 0)
(2.75808 -0.00458202 0)
(2.77216 -0.0140179 0)
(2.79533 -0.0113144 0)
(2.81577 -0.00239425 0)
(2.83078 -0.00166752 0)
(2.84226 -0.00800511 0)
(2.85185 -0.0159454 0)
(2.85783 -0.0197951 0)
(2.85744 -0.0177436 0)
(2.85399 -0.0093991 0)
(2.85811 0.00296572 0)
(2.8699 0.0119959 0)
(2.87956 0.0172392 0)
(2.88728 0.0209698 0)
(2.89352 0.0238939 0)
(2.89847 0.023641 0)
(2.90513 0.0192079 0)
(2.91173 0.0127559 0)
(2.92175 0.00960139 0)
(2.934 0.00915803 0)
(2.9454 0.00577122 0)
(2.95566 0.00312563 0)
(2.96762 0.0082805 0)
(2.9778 0.0158924 0)
(2.98438 0.0184564 0)
(2.98847 0.016645 0)
(2.99256 0.00892663 0)
(2.99604 -0.00353385 0)
(2.99738 -0.0177943 0)
(2.99471 -0.0317149 0)
(2.98843 -0.034826 0)
(2.98033 -0.0248804 0)
(2.97109 -0.00596519 0)
(2.96162 0.015542 0)
(2.95762 0.0292174 0)
(2.95165 0.0394603 0)
(2.94979 0.0391254 0)
(2.94854 0.0273791 0)
(2.94334 0.0142787 0)
(2.93658 -0.000243714 0)
(2.92395 -0.0125932 0)
(2.90142 -0.00901558 0)
(2.87621 0.0117656 0)
(2.8617 0.0276228 0)
(2.84373 0.0360048 0)
(2.82511 0.0379537 0)
(2.81635 0.0297169 0)
(2.81641 0.013158 0)
(2.81382 -0.000386087 0)
(2.80779 -0.00525112 0)
(2.80163 -0.00549899 0)
(2.79521 -0.00551778 0)
(2.78785 -0.00451159 0)
(2.78002 0.00237267 0)
(2.77139 0.014143 0)
(2.7638 0.0211121 0)
(2.76692 0.0151472 0)
(2.78125 -0.00283031 0)
(2.78858 -0.0172035 0)
(2.78808 -0.0211037 0)
(2.78447 -0.021362 0)
(2.77363 -0.0120982 0)
(2.76498 0.0012613 0)
(2.75681 0.0118903 0)
(2.74566 0.0171954 0)
(2.74121 0.0185195 0)
(2.7455 -0.00377527 0)
(2.73738 -0.0252255 0)
(1.75294 1.05318 0)
(2.18428 0.878645 0)
(2.34445 0.788532 0)
(2.61047 0.440407 0)
(2.79298 0.153536 0)
(2.84734 0.0223469 0)
(2.87407 -0.219806 0)
(2.8736 -0.289294 0)
(2.91858 -0.280814 0)
(2.90353 -0.364555 0)
(2.89702 -0.443184 0)
(2.88735 -0.477419 0)
(2.84431 -0.405495 0)
(2.81181 -0.324802 0)
(2.79407 -0.297834 0)
(2.77946 -0.26219 0)
(2.74655 -0.193759 0)
(2.72507 -0.110154 0)
(2.71594 -0.0860892 0)
(2.71914 -0.0687779 0)
(2.72227 -0.0229724 0)
(2.72557 0.016795 0)
(2.72626 0.0220676 0)
(2.72898 0.00983225 0)
(2.73576 -0.00345182 0)
(2.74981 -0.00213149 0)
(2.75604 0.00834038 0)
(2.75684 -0.00096112 0)
(2.76832 -0.0192992 0)
(2.78139 -0.0383729 0)
(2.80238 -0.0408779 0)
(2.82909 -0.0255725 0)
(2.84608 -0.0110676 0)
(2.85577 -0.0081271 0)
(2.86237 -0.0092703 0)
(2.8674 -0.00674042 0)
(2.86975 0.00331524 0)
(2.86773 0.00632041 0)
(2.87453 0.0016168 0)
(2.88613 -0.00144372 0)
(2.89788 -0.00745082 0)
(2.90813 -0.00932782 0)
(2.91746 -0.00806853 0)
(2.92347 -0.0022882 0)
(2.92358 0.00425061 0)
(2.92274 0.00612923 0)
(2.92981 0.00821171 0)
(2.94351 0.0120252 0)
(2.95765 0.0137147 0)
(2.96944 0.0113728 0)
(2.98059 0.010552 0)
(2.99256 0.0141944 0)
(3.00236 0.021915 0)
(3.00553 0.0291715 0)
(3.00373 0.0293923 0)
(3.00124 0.0220095 0)
(2.99708 0.0132247 0)
(2.99755 0.00216992 0)
(3.00063 -0.00436069 0)
(3.00327 -0.00797226 0)
(3.00091 -0.00679528 0)
(2.9962 0.00565164 0)
(2.99006 0.0265651 0)
(2.98193 0.0412724 0)
(2.97439 0.0449084 0)
(2.96521 0.0430885 0)
(2.951 0.036407 0)
(2.93947 0.0253633 0)
(2.93014 0.01419 0)
(2.91702 0.00413082 0)
(2.90495 0.00442527 0)
(2.89543 0.018429 0)
(2.88127 0.0376673 0)
(2.86491 0.0461295 0)
(2.85161 0.0471278 0)
(2.84182 0.043719 0)
(2.83425 0.0328782 0)
(2.83385 0.0188814 0)
(2.83362 0.00752318 0)
(2.82837 0.00165938 0)
(2.82134 0.000322525 0)
(2.81459 0.00279009 0)
(2.80966 0.00842473 0)
(2.8061 0.0150008 0)
(2.80109 0.014494 0)
(2.7967 0.00442494 0)
(2.79917 -0.00798527 0)
(2.79929 -0.00993841 0)
(2.79555 -0.00810293 0)
(2.79029 0.000585233 0)
(2.78699 0.0170241 0)
(2.78486 0.0254172 0)
(2.77855 0.0189785 0)
(2.7792 0.0131052 0)
(2.7811 -0.0186451 0)
(2.76438 -0.0496064 0)
(1.66456 1.01621 0)
(1.93361 0.959072 0)
(2.21117 0.756883 0)
(2.45079 0.453564 0)
(2.56853 0.362213 0)
(2.60562 0.296249 0)
(2.73442 0.0615369 0)
(2.79884 -0.17646 0)
(2.84435 -0.216128 0)
(2.87911 -0.311275 0)
(2.89149 -0.447126 0)
(2.89936 -0.491463 0)
(2.92313 -0.459059 0)
(2.90904 -0.427279 0)
(2.88173 -0.41787 0)
(2.85319 -0.389097 0)
(2.82545 -0.329105 0)
(2.8083 -0.260545 0)
(2.79482 -0.23828 0)
(2.79248 -0.21567 0)
(2.77486 -0.1507 0)
(2.77552 -0.0823362 0)
(2.77824 -0.0662614 0)
(2.7695 -0.0676726 0)
(2.76537 -0.0438393 0)
(2.76501 -0.0192428 0)
(2.76403 0.0254184 0)
(2.76942 0.0374201 0)
(2.77595 0.0297144 0)
(2.78792 0.0164336 0)
(2.80721 -0.00162037 0)
(2.8285 -0.00442756 0)
(2.84467 -0.00300753 0)
(2.8587 -0.0213813 0)
(2.86525 -0.0371101 0)
(2.87103 -0.0394573 0)
(2.87459 -0.0311831 0)
(2.87668 -0.0130508 0)
(2.88689 -0.00197303 0)
(2.89786 0.00289734 0)
(2.90925 0.00325079 0)
(2.92148 0.00244718 0)
(2.93151 0.00317423 0)
(2.93637 0.00820313 0)
(2.93331 0.0146544 0)
(2.92944 0.0120115 0)
(2.93371 0.0058482 0)
(2.94542 0.00558463 0)
(2.9609 0.00810307 0)
(2.97466 0.00730499 0)
(2.98499 0.00449195 0)
(2.99514 0.00487367 0)
(3.00515 0.00924553 0)
(3.01085 0.0124223 0)
(3.01113 0.00960576 0)
(3.01095 0.00483069 0)
(3.01191 0.00277295 0)
(3.01739 0.00583146 0)
(3.02317 0.0105733 0)
(3.02663 0.0173558 0)
(3.02916 0.0275395 0)
(3.02447 0.0350913 0)
(3.01915 0.0358556 0)
(3.00715 0.0330229 0)
(2.99325 0.0236004 0)
(2.98357 0.0162068 0)
(2.97428 0.012882 0)
(2.9645 0.0168301 0)
(2.95769 0.0254925 0)
(2.94988 0.029027 0)
(2.94127 0.0316349 0)
(2.93248 0.0343364 0)
(2.92425 0.0351871 0)
(2.91527 0.0334775 0)
(2.90346 0.0292855 0)
(2.89307 0.0252054 0)
(2.88598 0.0236263 0)
(2.88647 0.0219648 0)
(2.88797 0.0184454 0)
(2.88286 0.0166559 0)
(2.87542 0.0174994 0)
(2.86832 0.0212947 0)
(2.8641 0.0249975 0)
(2.86071 0.0219023 0)
(2.85165 0.0114218 0)
(2.83914 0.0001623 0)
(2.83326 -0.00825027 0)
(2.83404 -0.00942889 0)
(2.82856 -0.00387202 0)
(2.82289 0.00420368 0)
(2.82084 0.0151682 0)
(2.82239 0.0286446 0)
(2.82302 0.023183 0)
(2.83102 0.0238228 0)
(2.84128 0.00285433 0)
(2.8304 -0.034225 0)
(1.59307 0.964975 0)
(1.82108 0.913381 0)
(2.06051 0.77741 0)
(2.2553 0.580222 0)
(2.35277 0.520905 0)
(2.46701 0.401994 0)
(2.60519 0.175267 0)
(2.66721 0.0652939 0)
(2.70233 0.0643567 0)
(2.74711 -0.0309452 0)
(2.78853 -0.20463 0)
(2.80823 -0.264785 0)
(2.84438 -0.258664 0)
(2.85536 -0.308893 0)
(2.85038 -0.340033 0)
(2.86572 -0.381786 0)
(2.87681 -0.374398 0)
(2.87514 -0.353374 0)
(2.8522 -0.349043 0)
(2.82906 -0.330442 0)
(2.80984 -0.271352 0)
(2.80781 -0.192852 0)
(2.81275 -0.160941 0)
(2.80579 -0.160611 0)
(2.79358 -0.13712 0)
(2.7777 -0.0968461 0)
(2.77538 -0.0399889 0)
(2.78533 -0.012059 0)
(2.78674 -0.00731898 0)
(2.79583 -0.00421881 0)
(2.80241 7.62038e-05 0)
(2.81224 0.0110237 0)
(2.8254 0.0182973 0)
(2.84324 0.00514921 0)
(2.8563 -0.0147703 0)
(2.86332 -0.0239512 0)
(2.86934 -0.0158121 0)
(2.87318 -0.0119684 0)
(2.88904 -0.011815 0)
(2.89875 -0.0114334 0)
(2.90994 -0.00977399 0)
(2.92024 -0.00263954 0)
(2.92685 0.00431502 0)
(2.92952 0.0129831 0)
(2.92573 0.0203208 0)
(2.92294 0.0178857 0)
(2.92762 0.00873476 0)
(2.93581 0.00221638 0)
(2.95087 0.00271505 0)
(2.96881 0.00882393 0)
(2.98118 0.0134058 0)
(2.99019 0.0162751 0)
(2.99781 0.0187601 0)
(3.00169 0.0195982 0)
(3.00407 0.0158883 0)
(3.01067 0.0101559 0)
(3.0219 0.00783437 0)
(3.03057 0.00848897 0)
(3.03735 0.0130129 0)
(3.04701 0.0256969 0)
(3.05015 0.0387158 0)
(3.04913 0.0456394 0)
(3.04272 0.048379 0)
(3.02302 0.0420658 0)
(3.00648 0.0324332 0)
(3.00157 0.0282937 0)
(2.99619 0.0208176 0)
(2.99274 0.0192527 0)
(2.98975 0.02663 0)
(2.98583 0.0357719 0)
(2.98034 0.040548 0)
(2.97645 0.042134 0)
(2.96872 0.0436191 0)
(2.95871 0.0428524 0)
(2.95206 0.0405976 0)
(2.94182 0.0329541 0)
(2.93585 0.0241036 0)
(2.93889 0.0171027 0)
(2.94477 0.0139217 0)
(2.94074 0.0164321 0)
(2.93337 0.0216578 0)
(2.92763 0.0289237 0)
(2.92337 0.0334136 0)
(2.91705 0.0314948 0)
(2.90636 0.0218724 0)
(2.89245 0.00879319 0)
(2.88103 -0.00316253 0)
(2.87675 -0.00863805 0)
(2.87316 -0.00471733 0)
(2.86569 0.0074209 0)
(2.86212 0.0159517 0)
(2.8639 0.0250128 0)
(2.86791 0.0114712 0)
(2.88193 0.00271565 0)
(2.89891 -0.0341991 0)
(2.9028 -0.0703751 0)
(1.55734 0.937403 0)
(1.75468 0.883717 0)
(1.95028 0.779669 0)
(2.10257 0.670018 0)
(2.22135 0.607218 0)
(2.35949 0.493779 0)
(2.49469 0.299179 0)
(2.56777 0.179859 0)
(2.61195 0.16973 0)