/*--------------------------------*- C++ -*----------------------------------*\
  =========                 |
  \\      /  F ield         | OpenFOAM: The Open Source CFD Toolbox
   \\    /   O peration     | Website:  https://openfoam.org
    \\  /    A nd           | Version:  7
     \\/     M anipulation  |
\*---------------------------------------------------------------------------*/
FoamFile
{
    version     2.0;
    format      ascii;
    class       volScalarField;
    location    "3.1";
    object      p;
}
// * * * * * * * * * * * * * * * * * * * * * * * * * * * * * * * * * * * * * //

dimensions      [1 -1 -2 0 0 0 0];

internalField   nonuniform List<scalar> 
4032
(
1
1
1
1
1
1
1
1
1
1
1
1.11629
6.923
10.592
10.7447
10.9461
11.1331
11.3108
11.4764
11.6288
11.7673
11.8817
11.971
12.0352
1
1
1
1
1
1
1
1
1
1
1
1.07577
6.77082
10.5544
10.7189
10.9188
11.1056
11.281
11.4428
11.5891
11.7196
11.8249
11.9046
11.9631
1
1
1
1
1
1
1
1
1
1
1
1.00545
6.42323
10.5042
10.6761
10.8696
11.0536
11.224
11.3805
11.5207
11.6451
11.7453
11.819
11.8777
1
1
1
1
1
1
1
1
1
1
1
1.00006
5.90186
10.3965
10.6032
10.789
10.9705
11.1349
11.2853
11.4185
11.534
11.6211
11.6764
11.7156
1
1
1
1
1
1
1
1
1
1
1
1
5.21914
10.2214
10.5147
10.6891
10.8637
11.0146
11.1481
11.2593
11.3514
11.4217
11.4667
11.5231
1
1
1
1
1
1
1
1
1
1
1
1
4.39644
9.93839
10.4065
10.5674
10.7281
10.8596
10.9728
11.0669
11.1443
11.2023
11.217
11.1785
1
1
1
1
1
1
1
1
1
1
1
1
3.48371
9.49945
10.3196
10.4637
10.6037
10.7055
10.7784
10.8281
10.8435
10.8008
10.7312
10.6838
1
1
1
1
1
1
1
1
1
1
1
1
2.49054
8.80853
10.2441
10.354
10.4662
10.5367
10.5662
10.5652
10.5091
10.4168
10.2803
10.2564
1
1
1
1
1
1
1
1
1
1
1
1
1.52342
7.87944
10.2231
10.2101
10.2979
10.3338
10.3159
10.2588
10.108
9.83605
9.06398
7.19831
1
1
1
1
1
1
1
1
1
1
1
1
1.03654
6.57064
10.0093
9.92623
10.0174
10.0553
10.0174
9.90633
9.66577
9.19465
8.3977
6.32899
1
1
1
1
1
1
1
1
1
1
1
1
1.00006
4.79531
9.45651
9.78733
9.86015
9.82978
9.73961
9.5611
9.25435
8.68603
7.84622
5.91437
1
1
1
1
1
1
1
1
1
1
1
1
0.999999
2.92209
8.66895
9.63818
9.63556
9.60248
9.48638
9.24894
8.87651
8.30127
7.38698
5.79595
1
1
1
1
1
1
1
1
1
1
1
1
1
1.40379
7.57379
9.73551
9.49726
9.37198
9.21521
8.94534
8.54376
7.98736
7.06453
5.84497
1
1
1
1
1
1
1
1
1
1
1
1
1
1.01796
5.75209
9.06188
9.12578
9.09554
8.94142
8.67087
8.28084
7.70191
6.87495
5.91415
1
1
1
1
1
1
1
1
1
1
1
1
1
0.999879
3.21473
8.28123
9.02732
8.95662
8.76959
8.46872
8.08147
7.50835
6.79686
6.00357
1
1
1
1
1
1
1
1
1
1
1
1
1
0.999969
1.35771
7.03068
9.0452
8.82242
8.58152
8.25862
7.87869
7.34641
6.73328
6.06082
1
1
1
1
1
1
1
1
1
1
1
1
1
0.999995
1.01164
4.76936
8.48483
8.56172
8.36901
8.08397
7.70977
7.23494
6.69646
6.10822
1
1
1
1
1
1
1
1
1
1
1
1
1
1
0.99994
2.03839
7.57204
8.54988
8.26051
7.9606
7.58239
7.14114
6.65132
6.1258
1
1
1
1
1
1
1
1
1
1
1
1
1
1
0.999985
1.08553
5.55316
8.29346
8.04887
7.79311
7.44992
7.05099
6.60727
6.14416
1
1
1
1
1
1
1
1
1
1
1
1
1
1
0.999998
1.00045
2.51275
7.41457
8.00343
7.73465
7.39784
7.02311
6.61641
6.19307
1
1
1
1
1
1
1
1
1
1
1
1
1
1
1
0.999999
1.16317
5.46107
7.92058
7.65534
7.33505
6.97869
6.60236
6.20659
1
1
1
1
1
1
1
1
1
1
1
1
1
1
1
1
1.00211
2.359
6.92203
7.60526
7.29142
6.96123
6.60688
6.2333
1
1
1
1
1
1
1
1
1
1
1
1
1
1
1
1
1
1.13435
4.86548
7.52551
7.26274
6.93986
6.59213
6.23835
1
1
1
1
1
1
1
1
1
1
1
1
1
1
1
1
1
1.00167
2.02474
6.29131
7.22549
6.89512
6.58272
6.25868
1
1
1
1
1
1
1
1
1
1
1
1
1
1
1
1
1
1
1.07663
3.73938
6.92658
6.90507
6.61588
6.31391
1
1
1
1
1
1
1
1
1
1
1
1
1
1
1
1
1
1
1.00088
1.5213
5.29593
6.93408
6.64764
6.34608
1
1
1
1
1
1
1
1
1
1
1
1
1
1
1
1
1
1
1
1.02231
2.50326
6.03272
6.6564
6.36771
1
1
1
1
1
1
1
1
1
1
1
1
1
1
1
1
1
1
1
1.00019
1.16124
3.79293
6.3312
6.41906
1
1
1
1
1
1
1
1
1
1
1
1
1
1
1
1
1
1
1
1
1.00332
1.57326
4.77335
6.34746
1
1
1
1
1
1
1
1
1
1
1
1
1
1
1
1
1
1
1
1
1.00002
1.02793
2.2134
5.36226
1
1
1
1
1
1
1
1
1
1
1
1
1
1
1
1
1
1
1
1
1
1.0003
1.11202
2.96794
1
1
1
1
1
1
1
1
1
1
1
1
1
1
1
1
1
1
1
1
1
1
1.00215
1.29134
1
1
1
1
1
1
1
1
1
1
1
1
1
1
1
1
1
1
1
1
1
1
1.00001
1.00962
1
1
1
1
1
1
1
1
1
1
1
1
1
1
1
1
1
1
1
1
1
1
1
1.00008
1
1
1
1
1
1
1
1
1
1
1
1
1
1
1
1
1
1
1
1
1
1
1
1
1
1
1
1
1
1
1
1
1
1
1
1
1
1
1
1
1
1
1
1
1
1
1
1
1
1
1
1
1
1
1
1
1
1
1
1
1
1
1
1
1
1
1
1
1
1
1
1
1
1
1
1
1
1
1
1
1
1
1
1
1
1
1
1
1
1
1
1
1
1
1
1
1
1
1
1
1
1
1
1
1
1
1
1
1
1
1
1
1
1
1
1
1
1
1
1
1
1
1
1
1
1
1
1
1
1
1
1
1
1
1
1
1
1
1
1
1
1
1
1
1.60614
0.389677
0.136099
0.14884
0.220249
0.276793
0.36228
0.504796
0.667287
0.779918
0.852642
0.946308
1.065
1.18982
1.29579
1.30804
1.29222
1.26173
1.25993
1.24397
1.23607
1.278
1.31335
1.3272
1.33313
1.32539
1.32219
1.3176
1.31123
1.31391
1.31474
1.32566
3.83897
6.18197
6.30917
6.31345
6.28797
6.20534
6.1219
6.03179
5.9522
5.87924
5.80243
5.71453
5.60416
5.4854
5.37405
5.27812
5.20469
5.15237
5.09745
4.99698
4.87041
4.73776
4.62295
4.53339
4.47845
4.44787
4.39388
4.3095
4.21228
4.09922
3.99411
3.91595
3.85364
3.81558
3.8005
3.76989
3.71628
3.65128
3.55784
3.43928
3.34607
3.28566
3.23973
3.20697
3.1811
3.14241
3.09544
3.02584
2.92935
2.8571
2.818
2.78696
2.76874
2.76553
2.73912
2.70132
2.65158
2.56901
2.46486
2.39574
2.36294
2.34125
2.32924
2.31245
2.74351
1.49368
0.822422
0.620513
0.596184
0.536804
0.516618
0.508943
0.523533
0.576152
0.640217
0.716979
0.803712
0.906396
1.03474
1.1226
1.15007
1.16993
1.19225
1.20739
1.22349
1.26647
1.3058
1.32136
1.32372
1.31517
1.31119
1.30848
1.30941
1.31201
1.31336
1.35185
3.5273
6.30482
6.38026
6.25031
6.25589
6.19773
6.10088
5.96425
5.83941
5.75841
5.71899
5.70052
5.64862
5.5319
5.39055
5.25517
5.14147
5.06392
5.02779
4.98949
4.91189
4.80873
4.6909
4.57105
4.47322
4.39871
4.34074
4.28849
4.21777
4.139
4.04538
3.9465
3.86971
3.81256
3.76382
3.71495
3.66787
3.61587
3.54855
3.47727
3.39529
3.30864
3.24111
3.19541
3.1555
3.12122
3.08227
3.02887
2.9588
2.88359
2.82666
2.79133
2.76198
2.73445
2.70699
2.67186
2.62893
2.57166
2.50292
2.43216
2.37724
2.34653
2.33123
2.30115
3.60881
2.45654
1.73542
1.22771
0.99961
0.838993
0.700578
0.65053
0.591047
0.592365
0.639002
0.704032
0.735486
0.76429
0.836737
0.943882
1.01706
1.07913
1.14019
1.21141
1.25269
1.28429
1.3107
1.33069
1.33601
1.32633
1.31237
1.30001
1.29488
1.30245
1.3548
1.57257
3.12505
6.15308
6.54402
6.26101
6.18279
6.18327
6.14356
6.03056
5.88779
5.75449
5.66405
5.62343
5.61547
5.56844
5.47093
5.35185
5.20145
5.06501
4.97266
4.91389
4.87172
4.82144
4.74691
4.65671
4.53865
4.39774
4.29156
4.22527
4.17313
4.13008
4.08016
4.01785
3.93729
3.83285
3.73028
3.65813
3.59605
3.54071
3.50478
3.47739
3.43411
3.37565
3.28926
3.19459
3.13348
3.08734
3.04048
3.00108
2.96496
2.92456
2.86702
2.7967
2.74375
2.70678
2.66972
2.63007
2.58599
2.54643
2.51699
2.48348
2.43259
2.36808
2.3269
2.28789
4.21782
3.14979
2.42031
1.90179
1.5269
1.25071
1.05357
0.963814
0.87135
0.782219
0.768979
0.746315
0.704242
0.692386
0.711255
0.759001
0.840693
0.927139
0.998655
1.08951
1.16094
1.192
1.22468
1.26892
1.3191
1.33278
1.33201
1.31727
1.30545
1.32587
1.56216
2.2597
2.95309
4.61256
5.98836
6.19641
6.26326
6.19202
6.09735
5.973
5.87744
5.74979
5.6315
5.56789
5.52294
5.48491
5.41987
5.33425
5.22765
5.0812
4.94757
4.87058
4.81254
4.76928
4.71748
4.64458
4.55662
4.43294
4.2887
4.19131
4.13644
4.09102
4.05312
4.01084
3.95146
3.86564
3.74297
3.62859
3.55731
3.50998
3.47836
3.45734
3.42982
3.39093
3.33383
3.2338
3.12109
3.05488
3.01568
2.9855
2.96163
2.93432
2.89614
2.83359
2.74759
2.67888
2.62971
2.58617
2.55135
2.52844
2.51348
2.49577
2.46919
2.41959
2.34864
2.27427
4.69028
3.77575
2.98387
2.44584
2.05316
1.68751
1.42801
1.2879
1.16146
1.02184
0.932444
0.876065
0.816452
0.75008
0.730683
0.739888
0.757461
0.788396
0.833873
0.911043
1.00085
1.06332
1.11399
1.18174
1.24496
1.27159
1.28554
1.28783
1.31367
1.50966
2.22241
3.09575
3.21071
3.46456
4.42481
5.43014
5.95183
6.18104
6.15907
6.02844
5.89852
5.77349
5.62596
5.52079
5.45794
5.41119
5.37869
5.31209
5.22949
5.12059
4.9775
4.86147
4.78859
4.72744
4.67193
4.60668
4.53395
4.4443
4.32032
4.19395
4.11522
4.06562
4.0197
3.97269
3.91796
3.84465
3.73935
3.62209
3.54757
3.50391
3.47154
3.44533
3.41148
3.37517
3.32875
3.24993
3.13197
3.04459
3.00798
2.98067
2.95844
2.93202
2.89845
2.84735
2.75531
2.65629
2.59987
2.567
2.54375
2.53028
2.51779
2.49903
2.47771
2.44734
2.3859
2.27062
4.99125
4.20146
3.49127
2.91361
2.47914
2.10552
1.80663
1.61321
1.45081
1.30031
1.16483
1.06491
1.01301
0.955238
0.887582
0.831395
0.804429
0.805357
0.800521
0.807955
0.829685
0.867215
0.915455
0.986138
1.07327
1.15473
1.21708
1.26008
1.4717
2.18081
2.94335
3.34374
3.36508
3.34442
3.436
4.03386
5.06431
5.77873
6.02279
6.03388
5.91591
5.787
5.64206
5.485
5.39332
5.33474
5.31061
5.26849
5.19516
5.11426
5.00502
4.86676
4.74584
4.66513
4.6022
4.54549
4.48692
4.42169
4.33553
4.21916
4.09954
4.02169
3.97191
3.92595
3.87739
3.8202
3.75215
3.67299
3.58536
3.51132
3.4603
3.41749
3.37882
3.34445
3.30455
3.24603
3.16577
3.07363
3.00567
2.97089
2.94235
2.91391
2.8818
2.83499
2.75197
2.64793
2.58717
2.55861
2.53682
2.52423
2.51248
2.49493
2.47695
2.45395
2.40533
2.27393
5.23838
4.50804
3.85906
3.33426
2.87595
2.46713
2.16809
1.92835
1.7182
1.56135
1.44171
1.28773
1.15248
1.09993
1.04614
0.97808
0.908587
0.860437
0.827507
0.819002
0.829172
0.832388
0.831675
0.839832
0.875962
0.948853
1.0552
1.26268
1.94337
2.82776
3.14979
3.29976
3.312
3.29449
3.25476
3.3303
3.77637
4.71614
5.56474
5.80394
5.85986
5.77044
5.66514
5.52687
5.38765
5.30373
5.23937
5.19914
5.15107
5.07878
4.99469
4.89131
4.76589
4.63857
4.54832
4.48836
4.43919
4.38268
4.319
4.2388
4.12884
4.00942
3.92684
3.87447
3.83082
3.79096
3.74832
3.69922
3.63524
3.55282
3.46749
3.40348
3.36064
3.32202
3.27468
3.22362
3.17424
3.11667
3.03637
2.96127
2.92478
2.89656
2.85845
2.80849
2.74266
2.67242
2.60969
2.56476
2.53877
2.52347
2.51535
2.49992
2.47939
2.45069
2.40046
2.27527
5.39963
4.73511
4.15696
3.66294
3.19586
2.78843
2.49951
2.23464
1.9832
1.79241
1.67096
1.52853
1.37505
1.25797
1.20029
1.14449
1.08097
1.00758
0.937977
0.90685
0.898018
0.881769
0.856248
0.835382
0.833659
0.847121
0.94403
1.49747
2.33233
2.76692
2.93475
2.99957
3.06641
3.12985
3.19954
3.22358
3.24881
3.51302
4.38072
5.19675
5.60948
5.69584
5.63277
5.54424
5.43762
5.32855
5.21812
5.13357
5.05929
5.00449
4.94973
4.88296
4.80459
4.6923
4.55279
4.44277
4.37518
4.32329
4.27758
4.22511
4.15569
4.05454
3.93603
3.8505
3.80106
3.76398
3.73245
3.69533
3.65007
3.59168
3.51329
3.41784
3.32478
3.25829
3.22636
3.20218
3.17095
3.12676
3.06801
2.98959
2.90777
2.84592
2.7995
2.75585
2.7204
2.68913
2.65448
2.60772
2.55274
2.5119
2.48325
2.45511
2.42717
2.39786
2.3664
2.27985
5.52202
4.92884
4.39658
3.93109
3.46886
3.08536
2.78401
2.51352
2.23013
2.04135
1.87769
1.7167
1.57533
1.47168
1.36738
1.27467
1.22225
1.17562
1.09814
0.991472
0.951267
0.937731
0.910756
0.874998
0.869214
0.945054
1.38346
2.09904
2.38337
2.46054
2.47511
2.53842
2.6637
2.81387
2.9481
3.02433
3.04764
3.08376
3.28496
3.95685
4.84896
5.35049
5.47682
5.493
5.43836
5.37528
5.26651
5.10722
4.99089
4.91984
4.86818
4.84145
4.79699
4.72535
4.61489
4.45597
4.3327
4.27042
4.2232
4.18655
4.14124
4.08386
4.00104
3.88684
3.78739
3.72966
3.6888
3.66026
3.63038
3.58878
3.53324
3.44395
3.32398
3.23755
3.18566
3.14559
3.11194
3.08476
3.05413
3.00342
2.9149
2.81969
2.76378
2.7344
2.71301
2.69401
2.67025
2.63617
2.57819
2.50555
2.45454
2.42125
2.39058
2.35622
2.32495
2.27055
5.60355
5.07923
4.58711
4.14464
3.72345
3.34778
3.02747
2.74537
2.4782
2.27424
2.09664
1.90973
1.74408
1.65249
1.56605
1.43754
1.33744
1.30624
1.25865
1.16356
1.06318
1.03081
1.00889
0.982463
1.03569
1.42233
2.15904
2.47442
2.42678
2.38414
2.3535
2.34308
2.35109
2.39134
2.46371
2.56686
2.66701
2.75496
2.81144
2.97053
3.47614
4.39344
4.9896
5.25244
5.3912
5.38576
5.30463
5.1609
4.96688
4.8484
4.7919
4.76202
4.75166
4.7077
4.63793
4.5158
4.33775
4.23047
4.17603
4.13104
4.10372
4.07239
4.0234
3.94248
3.81585
3.71017
3.65053
3.60849
3.57793
3.54999
3.509
3.44715
3.35717
3.24649
3.15702
3.10568
3.07438
3.04618
3.01591
2.97895
2.92032
2.8324
2.7588
2.72598
2.70338
2.68326
2.66079
2.63324
2.58792
2.51225
2.43688
2.38847
2.35658
2.32632
2.30123
2.25693
5.67516
5.2053
4.76491
4.33743
3.92009
3.57545
3.26972
2.9633
2.69524
2.48585
2.29688
2.12106
1.94371
1.81153
1.71799
1.62361
1.50823
1.40736
1.35847
1.2999
1.21504
1.14284
1.10221
1.14548
1.49769
2.25771
2.66533
2.63214
2.53562
2.46458
2.41067
2.35601
2.32264
2.30721
2.29465
2.2972
2.32869
2.36355
2.39972
2.4443
2.54122
2.93651
3.73546
4.55411
5.0446
5.25371
5.27849
5.18594
5.01787
4.83235
4.73743
4.68985
4.67952
4.66399
4.61009
4.52523
4.39074
4.23606
4.14216
4.0904
4.06298
4.038
3.99449
3.93618
3.85236
3.73888
3.63488
3.56641
3.51962
3.48235
3.44741
3.40902
3.35788
3.27765
3.17567
3.09347
3.04461
3.00967
2.97767
2.94472
2.90664
2.85669
2.79346
2.72922
2.68609
2.66004
2.63802
2.61361
2.57725
2.51929
2.43953
2.3691
2.3278
2.30136
2.28343
2.24613
5.75018
5.31137
4.90107
4.49031
4.1017
3.77133
3.46039
3.14815
2.90781
2.69714
2.48689
2.28266
2.1369
1.995
1.85735
1.7632
1.67311
1.55368
1.4565
1.40209
1.34259
1.27772
1.33105
1.73883
2.46094
2.88923
2.85723
2.77504
2.69679
2.6474
2.5882
2.50725
2.40851
2.32245
2.28303
2.25811
2.24815
2.25061
2.24143
2.21955
2.18487
2.19823
2.38082
2.97682
3.87684
4.59973
5.03235
5.07065
5.03971
4.90937
4.75886
4.63526
4.55935
4.5111
4.49001
4.461
4.39302
4.29801
4.17942
4.07023
3.99455
3.94519
3.91583
3.88507
3.83389
3.75749
3.66217
3.55752
3.47543
3.42661
3.39187
3.35776
3.31728
3.26898
3.2053
3.12045
3.03901
2.9838
2.94438
2.9109
2.88027
2.85099
2.81613
2.76253
2.69581
2.64055
2.60092
2.57004
2.54287
2.50916
2.4524
2.3787
2.31763
2.28126
2.26498
2.23319
5.79063
5.38744
5.00394
4.61694
4.25756
3.94358
3.63944
3.33716
3.09426
2.87646
2.66065
2.45911
2.31366
2.16928
2.00663
1.88767
1.81159
1.71613
1.59064
1.49958
1.45099
1.52776
2.02149
2.87525
3.23464
3.12933
3.01439
2.92725
2.87507
2.81355
2.74202
2.66601
2.56794
2.45446
2.36985
2.30777
2.2602
2.22836
2.20222
2.18882
2.17182
2.12797
2.05185
2.06999
2.33278
3.02578
3.90387
4.56295
4.84809
4.89822
4.83413
4.68105
4.52338
4.41932
4.36639
4.33832
4.33827
4.29101
4.21843
4.10772
3.97637
3.88575
3.82972
3.78694
3.75242
3.71742
3.6666
3.59434
3.49929
3.40633
3.34721
3.31263
3.28375
3.25066
3.20254
3.13561
3.05468
2.97509
2.92268
2.8915
2.86744
2.84433
2.81558
2.77244
2.71201
2.64156
2.58224
2.54012
2.5067
2.47462
2.43786
2.38833
2.33288
2.27965
2.25341
2.22096
5.84364
5.4691
5.10366
4.73701
4.40964
4.10337
3.79347
3.51018
3.2749
3.05037
2.8224
2.62397
2.47108
2.3269
2.1801
2.03258
1.9271
1.83086
1.73244
1.63967
1.72224
2.2555
3.20566
3.61928
3.5503
3.34487
3.16322
3.08327
3.0298
2.96491
2.89397
2.82641
2.74761
2.63544
2.50852
2.41823
2.35416
2.29313
2.23412
2.19185
2.16097
2.12986
2.07974
2.0009
1.94595
1.9948
2.31704
3.08299
3.90754
4.55052
4.70201
4.70141
4.56597
4.39053
4.30491
4.25936
4.23851
4.23913
4.19367
4.12395
4.00829
3.86019
3.77182
3.72737
3.68985
3.65657
3.6285
3.59001
3.53048
3.43162
3.33848
3.27754
3.22807
3.17988
3.13903
3.10379
3.05928
2.99683
2.9322
2.87902
2.83362
2.79407
2.76415
2.73687
2.7023
2.65088
2.58637
2.52502
2.47937
2.44656
2.41641
2.38418
2.34661
2.29759
2.25522
2.20707
5.88425
5.53551
5.18506
4.84732
4.53976
4.23814
3.93136
3.67415
3.43513
3.20103
2.96647
2.79554
2.63047
2.46431
2.30559
2.1858
2.06294
1.95002
1.85654
1.96011
2.55467
3.47003
3.92417
3.86538
3.72296
3.56058
3.37059
3.2423
3.1701
3.10614
3.03672
2.96435
2.88865
2.79491
2.65932
2.52567
2.4479
2.38826
2.3315
2.27773
2.22392
2.17465
2.12337
2.04533
1.93672
1.90768
1.89216
1.9719
2.37359
3.18105
3.93928
4.40882
4.45781
4.42803
4.3128
4.21791
4.18787
4.16168
4.12566
4.08218
4.01719
3.88733
3.75247
3.68711
3.64502
3.61379
3.59404
3.56191
3.52158
3.45139
3.34162
3.24318
3.18551
3.14488
3.1087
3.07096
3.03304
2.99163
2.93496
2.86433
2.80377
2.76353
2.73235
2.70139
2.66917
2.63391
2.58652
2.52434
2.46394
2.42108
2.39136
2.36691
2.34014
2.30808
2.26814
2.19743
5.93268
5.60508
5.27216
4.95853
4.65741
4.35529
4.06641
3.8214
3.58266
3.3418
3.11875
2.94588
2.77514
2.6068
2.44616
2.30358
2.18569
2.11186
2.27781
3.01023
3.82435
4.14589
4.12938
4.01259
3.90507
3.78982
3.62181
3.42178
3.30868
3.23601
3.16659
3.09326
3.019
2.93558
2.81919
2.66842
2.55153
2.47818
2.41922
2.36521
2.31115
2.25494
2.19262
2.1137
2.01217
1.9223
1.87341
1.86062
1.86058
1.97379
2.4191
3.187
3.83
4.17576
4.2487
4.21488
4.17441
4.12587
4.07185
4.01625
3.96486
3.88446
3.77462
3.69554
3.64211
3.59868
3.55831
3.51847
3.47961
3.43072
3.33868
3.22143
3.15544
3.11903
3.08551
3.0526
3.01889
2.97791
2.91858
2.83655
2.77149
2.7347
2.70382
2.67381
2.64446
2.61358
2.57444
2.5165
2.44728
2.4092
2.39251
2.37337
2.3476
2.31661
2.27607
2.19116
5.99894
5.67439
5.35881
5.0582
4.75998
4.45724
4.19457
3.95192
3.71539
3.46885
3.27269
3.09163
2.91555
2.73481
2.56385
2.42957
2.36498
2.61414
3.55824
4.50485
4.58025
4.42275
4.26657
4.17505
4.09895
3.98265
3.83189
3.62942
3.45831
3.36342
3.28352
3.20515
3.12574
3.04032
2.93937
2.80879
2.66925
2.57162
2.50357
2.44157
2.38097
2.32291
2.26485
2.1996
2.11488
2.01111
1.92706
1.87437
1.83347
1.8176
1.82601
1.96159
2.43766
3.10262
3.75431
3.98192
4.07523
4.12669
4.06532
3.99273
3.91428
3.82614
3.74826
3.69384
3.6447
3.59351
3.53964
3.48775
3.43632
3.37805
3.29834
3.19365
3.12444
3.09171
3.06384
3.03758
3.00863
2.97079
2.91012
2.81584
2.73661
2.69704
2.66839
2.64305
2.61925
2.59338
2.56001
2.51047
2.44801
2.39417
2.35659
2.32832
2.30026
2.26839
2.23666
2.17375
6.0368
5.72296
5.42545
5.13535
4.84425
4.56425
4.31781
4.07385
3.83314
3.60421
3.4183
3.22618
3.04749
2.84672
2.6862
2.65444
3.00384
4.02181
5.03611
5.10029
4.88628
4.59042
4.42309
4.33286
4.25189
4.12799
3.99028
3.82868
3.64486
3.49698
3.39496
3.30599
3.21808
3.12884
3.03637
2.93166
2.80702
2.68373
2.59092
2.51932
2.45481
2.39271
2.32952
2.2643
2.19022
2.10398
2.01562
1.9393
1.88233
1.83174
1.78799
1.76594
1.78462
1.93241
2.39451
3.01396
3.55311
3.89264
3.9698
3.95753
3.88427
3.79872
3.7197
3.6496
3.60279
3.56434
3.51887
3.46812
3.40849
3.33801
3.25349
3.15166
3.08416
3.05498
3.03085
3.00841
2.98513
2.95661
2.90603
2.81122
2.71535
2.6673
2.63774
2.61144
2.5876
2.56497
2.53836
2.50084
2.44766
2.38318
2.332
2.29824
2.26953
2.23852
2.20589
2.14193
6.06092
5.7737
5.49236
5.21078
4.92901
4.67983
4.43493
4.19227
3.94186
3.74375
3.54052
3.35623
3.14674
2.95913
2.98645
3.49438
4.56545
5.40526
5.59052
5.42291
5.15594
4.84613
4.61045
4.48786
4.38643
4.26754
4.13931
4.00173
3.84042
3.66185
3.51117
3.39902
3.30178
3.20862
3.11793
3.02559
2.92249
2.80569
2.69237
2.5976
2.51724
2.44486
2.37635
2.31139
2.24442
2.17061
2.09055
2.01745
1.95997
1.90518
1.85519
1.798
1.7491
1.70512
1.71402
1.86697
2.2863
2.94289
3.43886
3.72184
3.80533
3.80636
3.74091
3.63236
3.53338
3.49463
3.46399
3.42619
3.37592
3.31289
3.23686
3.14301
3.05756
3.01768
2.99345
2.97139
2.95066
2.92641
2.88264
2.80411
2.70641
2.6426
2.61114
2.58571
2.55863
2.53323
2.50848
2.48031
2.4417
2.38479
2.32171
2.27287
2.23781
2.20374
2.16882
2.11192
6.14205
5.85601
5.58111
5.3028
5.03484
4.78792
4.54563
4.29584
4.06661
3.8608
3.65211
3.45826
3.25855
3.36789
4.18623
5.4162
5.89934
5.89145
5.73729
5.56972
5.37401
5.1306
4.85561
4.6513
4.51677
4.4002
4.27522
4.14219
3.99605
3.82895
3.65774
3.51249
3.39436
3.28907
3.19079
3.09679
3.00168
2.89927
2.79224
2.69345
2.60579
2.52408
2.44375
2.36615
2.29008
2.21321
2.13333
2.05852
1.99868
1.95102
1.91134
1.8664
1.81114
1.75382
1.69384
1.634
1.64521
1.824
2.26922
2.8369
3.36026
3.60977
3.64165
3.5968
3.51322
3.42185
3.36768
3.33179
3.30368
3.26268
3.20875
3.15038
3.08096
3.00851
2.9595
2.92504
2.89263
2.86075
2.82724
2.7814
2.71584
2.64052
2.582
2.55351
2.53545
2.52084
2.50373
2.47794
2.43959
2.3808
2.31182
2.25338
2.21443
2.1784
2.13975
2.0862
6.21369
5.9335
5.65319
5.37753
5.1272
4.88065
4.63542
4.38476
4.17949
3.94955
3.76589
3.58756
3.81703
4.82702
6.31314
6.74273
6.4561
6.09732
5.82221
5.68336
5.55851
5.36205
5.12213
4.87141
4.67277
4.52624
4.3923
4.25505
4.11126
3.95839
3.79782
3.64361
3.50788
3.38727
3.27503
3.16815
3.06439
2.96109
2.85696
2.75708
2.66771
2.58825
2.51246
2.43613
2.35671
2.27384
2.18916
2.10721
2.03176
1.96827
1.92094
1.88404
1.85115
1.80838
1.74711
1.68368
1.61876
1.58389
1.61321
1.78636
2.24575
2.80448
3.28771
3.41344
3.39931
3.35245
3.2959
3.27278
3.24631
3.21488
3.18944
3.1512
3.08737
3.00485
2.93997
2.89461
2.85571
2.81542
2.77255
2.73392
2.69681
2.64376
2.58469
2.54192
2.50822
2.47713
2.4484
2.41852
2.38469
2.3527
2.31026
2.25319
2.20017
2.15281
2.1178
2.08052
6.19744
6.0111
5.71705
5.45561
5.20707
4.97164
4.70663
4.49719
4.26612
4.07611
3.99806
4.43602
5.67402
6.78657
7.23278
7.03883
6.68586
6.31907
6.02902
5.86514
5.73633
5.5574
5.34601
5.1124
4.87283
4.66965
4.50621
4.3549
4.20606
4.05984
3.91493
3.77043
3.62903
3.49448
3.36801
3.2494
3.13694
3.02906
2.923
2.81847
2.72004
2.6335
2.55659
2.48289
2.40847
2.33174
2.25177
2.17238
2.09659
2.02797
1.96654
1.90803
1.8554
1.80773
1.7708
1.72998
1.67054
1.61177
1.56882
1.54287
1.58391
1.77285
2.2192
2.67343
3.09068
3.23464
3.22876
3.24402
3.21805
3.17342
3.1305
3.07151
3.01782
2.98135
2.93239
2.87322
2.81783
2.77228
2.73333
2.70042
2.66491
2.62429
2.5849
2.53917
2.4883
2.44644
2.41419
2.38488
2.35568
2.31799
2.26026
2.19755
2.15141
2.11656
2.10347
2.08106
5.63437
6.06035
5.81673
5.53271
5.30251
5.05728
4.78988
4.59578
4.39367
4.53993
5.30726
6.8057
7.5415
7.70034
7.49845
7.1839
6.92338
6.63325
6.31862
6.07862
5.88892
5.70798
5.51117
5.30278
5.07991
4.85164
4.64381
4.46467
4.30334
4.15283
4.00993
3.86996
3.72973
3.58986
3.45411
3.32689
3.20853
3.09717
2.98993
2.88447
2.78063
2.68306
2.59573
2.51403
2.43366
2.35659
2.28357
2.21373
2.14531
2.08061
2.01832
1.95594
1.89555
1.83512
1.77731
1.72457
1.69075
1.65477
1.59759
1.54705
1.51841
1.50103
1.54892
1.73137
2.13
2.58811
2.93461
3.11027
3.16115
3.16077
3.13222
3.06049
2.98496
2.91942
2.85815
2.80623
2.77063
2.74713
2.72952
2.70991
2.68099
2.63506
2.55887
2.48601
2.45386
2.43113
2.40683
2.38022
2.34795
2.3012
2.23205
2.16234
2.11986
2.10397
2.09574
2.07237
3.6975
5.69742
5.89567
5.65464
5.403
5.1071
4.90833
4.79457
5.20977
6.4001
7.8422
8.39773
8.11127
7.87753
7.62835
7.39914
7.18078
6.91541
6.58333
6.29437
6.06681
5.86017
5.65772
5.45358
5.23933
5.01191
4.78817
4.58965
4.41701
4.26037
4.11187
3.96604
3.81944
3.6716
3.52597
3.38928
3.26523
3.1518
3.04583
2.94438
2.84175
2.73804
2.64201
2.55532
2.46984
2.38459
2.30712
2.24032
2.17724
2.11584
2.05487
1.99385
1.93227
1.86861
1.80841
1.75238
1.70101
1.64911
1.60555
1.57253
1.52929
1.48836
1.46402
1.43609
1.47697
1.69634
2.0795
2.5383
2.81405
3.0131
3.02811
3.01856
2.98491
2.916
2.82964
2.78181
2.75726
2.735
2.70875
2.67356
2.62624
2.5691
2.51162
2.46256
2.42287
2.38948
2.36164
2.33268
2.29448
2.23846
2.17749
2.14853
2.13185
2.11912
2.10327
2.08096
1.58159
4.21915
5.69675
5.75184
5.50884
5.20409
5.34631
6.25785
7.74623
8.6875
9.1022
8.8549
8.39197
8.00254
7.79494
7.62022
7.392
7.11165
6.78393
6.48251
6.24743
6.03177
5.81727
5.60176
5.37966
5.14687
4.91401
4.70271
4.52019
4.35759
4.20476
4.05503
3.90355
3.74917
3.59567
3.45021
3.31784
3.19861
3.0905
2.98971
2.89002
2.78992
2.69038
2.59571
2.50904
2.42574
2.34602
2.27635
2.2105
2.14553
2.07893
2.01232
1.94933
1.89066
1.83442
1.77707
1.72432
1.6772
1.63712
1.59456
1.54889
1.50216
1.44956
1.41419
1.38983
1.38434
1.44154
1.68223
2.07964
2.52884
2.72242
2.82055
2.85629
2.8277
2.81112
2.79977
2.78215
2.75403
2.71361
2.66178
2.59797
2.52177
2.45113
2.41147
2.38527
2.36053
2.3363
2.30672
2.26573
2.20653
2.14797
2.11737
2.1065
2.09989
2.09908
2.12122
1.03087
1.92685
4.62346
5.57716
5.54508
6.09703
7.6375
9.30065
9.61523
9.45892
9.31449
9.01239
8.64216
8.24659
8.01124
7.83626
7.59617
7.30631
6.98733
6.67721
6.42017
6.19043
5.96355
5.73558
5.50363
5.26401
5.02452
4.80436
4.61281
4.44283
4.28413
4.12955
3.97462
3.81755
3.66009
3.50982
3.37475
3.25631
3.15088
3.05353
2.96663
2.87982
2.77722
2.66338
2.55931
2.48173
2.42
2.35583
2.28914
2.22073
2.15035
2.08178
2.01766
1.95626
1.89511
1.83404
1.77923
1.73016
1.6836
1.63558
1.58845
1.54074
1.47772
1.42127
1.38712
1.35663
1.3359
1.34304
1.42542
1.65767
2.02813
2.43741
2.63131
2.6312
2.67715
2.71405
2.70454
2.68025
2.64197
2.58389
2.52102
2.45721
2.40518
2.37448
2.34847
2.32506
2.29952
2.2678
2.22621
2.17393
2.13105
2.10568
2.10168
2.1121
2.16922
2.49768
1.00036
1.07416
2.36221
4.33509
6.57082
9.44106
10.3971
10.5969
10.1965
9.77841
9.43903
9.2296
8.91414
8.52047
8.22084
8.01897
7.77795
7.48188
7.1665
6.85357
6.5747
6.32866
6.09172
5.85403
5.61263
5.36586
5.12105
4.8949
4.6966
4.52065
4.35669
4.19642
4.03537
3.8735
3.71474
3.56489
3.42758
3.30263
3.18754
3.08103
2.98077
2.88055
2.78057
2.68026
2.58449
2.4965
2.41447
2.3397
2.26778
2.19812
2.1289
2.06233
1.99785
1.93519
1.87389
1.81281
1.7548
1.70206
1.66014
1.62262
1.58489
1.54499
1.49725
1.45014
1.40157
1.35675
1.31701
1.29185
1.28336
1.29632
1.3913
1.6279
1.988
2.29062
2.52612
2.63115
2.66057
2.6567
2.62963
2.56895
2.49628
2.41052
2.34983
2.32812
2.30622
2.281
2.25691
2.23572
2.20734
2.16789
2.14114
2.15067
2.21963
2.42806
2.78273
3.33558
1
1.0015
1.14494
2.89997
9.70158
12.1521
11.4356
10.8565
10.3237
9.87968
9.52253
9.33915
9.16461
8.86548
8.55907
8.31533
8.04688
7.73394
7.41278
7.09764
6.80706
6.54665
6.2977
6.04953
5.79985
5.54846
5.30138
5.07137
4.86573
4.68005
4.50561
4.33544
4.16658
4.00006
3.83903
3.68634
3.54336
3.41007
3.28502
3.16724
3.04919
2.93562
2.83355
2.73816
2.6404
2.54169
2.45106
2.36782
2.28991
2.21762
2.14743
2.07966
2.01242
1.94739
1.88476
1.82333
1.76212
1.7038
1.66391
1.63923
1.61342
1.57942
1.54084
1.49351
1.43051
1.37006
1.31894
1.28649
1.26061
1.24792
1.24079
1.26256
1.3622
1.61319
1.97708
2.24544
2.47513
2.58326
2.58206
2.56384
2.50861
2.41039
2.34029
2.29999
2.26342
2.23551
2.22194
2.21467
2.20604
2.22944
2.32651
2.55308
2.9313
3.36723
3.71052
3.89889
1
1.00001
1.00404
3.4348
11.2378
12.1846
11.2652
10.6419
10.2569
9.99554
9.74979
9.53771
9.3498
9.05992
8.73379
8.44384
8.14852
7.8103
7.46678
7.14897
6.84326
6.55909
6.2936
6.03539
5.77889
5.52543
5.28093
5.05333
4.84526
4.65192
4.46726
4.28813
4.11449
3.94821
3.79049
3.64185
3.50275
3.37212
3.24744
3.12554
3.00925
2.89769
2.79051
2.69082
2.60204
2.52184
2.44607
2.36869
2.28861
2.20994
2.1357
2.06859
2.00626
1.94752
1.89054
1.83355
1.77521
1.72009
1.67136
1.62768
1.5894
1.5545
1.51698
1.47534
1.42823
1.37684
1.33105
1.29987
1.27202
1.25194
1.23148
1.22021
1.20428
1.22416
1.33351
1.62057
1.98877
2.2624
2.37526
2.4505
2.44061
2.40041
2.3322
2.27498
2.2539
2.23695
2.23685
2.28299
2.43054
2.72495
3.11665
3.4973
3.83034
3.97267
3.97144
3.94255
1
1
1.00007
4.55411
10.9621
11.3793
11.015
10.7729
10.5171
10.2877
10.0515
9.81028
9.54882
9.21917
8.89098
8.60717
8.32799
7.99313
7.62228
7.28485
6.97372
6.67697
6.39855
6.13268
5.8687
5.60664
5.35687
5.12621
4.91347
4.71371
4.5227
4.33803
4.15889
3.98657
3.82334
3.67178
3.53272
3.40315
3.27866
3.15512
3.03225
2.91145
2.79774
2.69689
2.61055
2.53391
2.45998
2.38218
2.29934
2.21545
2.13705
2.06903
2.00897
1.95349
1.89968
1.84525
1.78663
1.72851
1.67676
1.63173
1.59299
1.55615
1.51735
1.47427
1.43412
1.40224
1.36781
1.3349
1.30561
1.27892
1.25299
1.2266
1.19428
1.16388
1.14527
1.18496
1.3288
1.64242
1.96878
2.25462
2.31578
2.27877
2.25537
2.26088
2.29347
2.39945
2.59842
2.91774
3.31831
3.72372
3.98309
4.13109
4.17779
4.15376
4.09597
3.95531
1
1
1
5.07257
10.7558
11.1232
10.9919
10.789
10.546
10.2942
10.0473
9.79396
9.51635
9.20577
8.90642
8.62318
8.33617
7.98659
7.61358
7.28952
7.00846
6.72352
6.44296
6.15924
5.87148
5.5977
5.35317
5.13486
4.93435
4.74414
4.5577
4.36948
4.17782
3.99076
3.82089
3.67235
3.54021
3.41699
3.29671
3.17481
3.0497
2.92331
2.80453
2.70194
2.61577
2.53995
2.4677
2.39251
2.31172
2.22612
2.14126
2.06672
2.00571
1.95371
1.9049
1.85539
1.80104
1.74201
1.68186
1.6287
1.58659
1.54818
1.51231
1.47849
1.4414
1.39496
1.34649
1.30837
1.27951
1.25338
1.22798
1.20233
1.17543
1.14328
1.11348
1.08298
1.08807
1.15749
1.35821
1.66987
1.97233
2.18526
2.36337
2.58139
2.83162
3.12255
3.44489
3.73745
3.92263
4.0773
4.17319
4.21377
4.16132
4.08793
4.02188
3.93122
1
1
1
5.07294
10.7415
10.8948
10.8484
10.7165
10.5496
10.3702
10.1704
9.93491
9.68176
9.4214
9.1414
8.83464
8.49065
8.11895
7.75032
7.40952
7.09648
6.78121
6.47438
6.16663
5.86576
5.59651
5.36236
5.15251
4.95808
4.77083
4.58236
4.38604
4.18267
3.98667
3.81509
3.66994
3.54271
3.42452
3.30853
3.18823
3.06007
2.92732
2.80315
2.69824
2.61183
2.53773
2.46946
2.40007
2.32366
2.23481
2.13985
2.05833
1.9971
1.94795
1.90385
1.8609
1.81182
1.75143
1.68462
1.62516
1.58075
1.54251
1.5092
1.47738
1.44213
1.39963
1.35019
1.30812
1.27733
1.25017
1.22468
1.19827
1.17361
1.14364
1.10397
1.06755
1.05499
1.05129
1.07451
1.18385
1.4755
2.00173
2.6347
3.21626
3.75202
4.20449
4.62203
4.80258
4.73266
4.59087
4.39512
4.19766
4.07881
3.98803
3.94719
3.87167
)
;

boundaryField
{
    inlet
    {
        type            fixedValue;
        value           uniform 1;
    }
    outlet
    {
        type            zeroGradient;
    }
    bottom
    {
        type            symmetryPlane;
    }
    top
    {
        type            symmetryPlane;
    }
    obstacle
    {
        type            zeroGradient;
    }
    defaultFaces
    {
        type            empty;
    }
}


// ************************************************************************* //
