/*--------------------------------*- C++ -*----------------------------------*\
  =========                 |
  \\      /  F ield         | OpenFOAM: The Open Source CFD Toolbox
   \\    /   O peration     | Website:  https://openfoam.org
    \\  /    A nd           | Version:  7
     \\/     M anipulation  |
\*---------------------------------------------------------------------------*/
FoamFile
{
    version     2.0;
    format      ascii;
    class       volScalarField;
    location    "2.7";
    object      T;
}
// * * * * * * * * * * * * * * * * * * * * * * * * * * * * * * * * * * * * * //

dimensions      [0 0 0 1 0 0 0];

internalField   nonuniform List<scalar> 
4032
(
1
1
1
1
1
1
1
1
1
1
1
1
2.28077
2.70945
2.73151
2.75052
2.76636
2.77874
2.78744
2.79395
2.80188
2.81362
2.8268
2.83501
1
1
1
1
1
1
1
1
1
1
1
1
2.26149
2.70701
2.73021
2.74863
2.76439
2.77646
2.78475
2.79079
2.79824
2.80952
2.82226
2.83021
1
1
1
1
1
1
1
1
1
1
1
1
2.21713
2.70391
2.72778
2.74545
2.76094
2.77255
2.78035
2.78585
2.79281
2.8038
2.81629
2.82442
1
1
1
1
1
1
1
1
1
1
1
1
2.14639
2.69521
2.72377
2.741
2.7563
2.76743
2.77475
2.77961
2.78564
2.79563
2.8069
2.81351
1
1
1
1
1
1
1
1
1
1
1
1
2.04587
2.67671
2.71604
2.73334
2.74853
2.75904
2.76539
2.76888
2.77313
2.78165
2.79202
2.79973
1
1
1
1
1
1
1
1
1
1
1
1
1.90872
2.64301
2.70051
2.71992
2.73649
2.74725
2.75304
2.75596
2.75949
2.76655
2.77227
2.77111
1
1
1
1
1
1
1
1
1
1
1
1
1.72595
2.58544
2.67741
2.70268
2.72184
2.73333
2.73824
2.73943
2.73911
2.73775
2.73615
2.7336
1
1
1
1
1
1
1
1
1
1
1
1
1.46358
2.48107
2.65
2.67958
2.70167
2.71471
2.71987
2.71935
2.71411
2.71012
2.71006
2.72368
1
1
1
1
1
1
1
1
1
1
1
1
1.11939
2.35209
2.64642
2.65684
2.67286
2.68616
2.6925
2.6911
2.68163
2.66392
2.61735
2.52186
1
1
1
1
1
1
1
1
1
1
1
1
1.00382
2.21577
2.61381
2.62127
2.63487
2.64907
2.65618
2.65414
2.64132
2.60939
2.55488
2.39753
1
1
1
1
1
1
1
1
1
1
1
1
0.999993
1.97016
2.57865
2.60689
2.61745
2.623
2.62411
2.61842
2.60156
2.56197
2.49798
2.31823
1
1
1
1
1
1
1
1
1
1
1
1
0.999998
1.56827
2.46159
2.58644
2.59612
2.599
2.59517
2.58379
2.56149
2.52101
2.44495
2.28832
1
1
1
1
1
1
1
1
1
1
1
1
1
1.09097
2.29036
2.57793
2.57061
2.5705
2.56524
2.55136
2.52568
2.48511
2.40581
2.2882
1
1
1
1
1
1
1
1
1
1
1
1
1
1.00203
2.07565
2.51349
2.53413
2.53504
2.53123
2.51825
2.49447
2.45254
2.38015
2.2878
1
1
1
1
1
1
1
1
1
1
1
1
1
0.999986
1.59615
2.38759
2.50955
2.50793
2.5026
2.48899
2.46697
2.42489
2.36315
2.28885
1
1
1
1
1
1
1
1
1
1
1
1
1
0.999996
1.09449
2.19309
2.48101
2.47798
2.47272
2.45843
2.43727
2.39955
2.34777
2.28621
1
1
1
1
1
1
1
1
1
1
1
1
1
0.999999
1.00186
1.85053
2.39121
2.44998
2.44072
2.42925
2.4085
2.37592
2.33242
2.2809
1
1
1
1
1
1
1
1
1
1
1
1
1
1
0.999995
1.22232
2.21242
2.42731
2.41013
2.40069
2.38049
2.35085
2.31316
2.26977
1
1
1
1
1
1
1
1
1
1
1
1
1
1
0.999999
1.01105
1.96166
2.36432
2.37256
2.36584
2.34914
2.32325
2.29113
2.25418
1
1
1
1
1
1
1
1
1
1
1
1
1
1
1
1.00001
1.33211
2.19706
2.35796
2.33869
2.32021
2.29753
2.27088
2.2391
1
1
1
1
1
1
1
1
1
1
1
1
1
1
1
1
1.0259
1.95748
2.31735
2.30862
2.29049
2.27067
2.24748
2.21981
1
1
1
1
1
1
1
1
1
1
1
1
1
1
1
1
1.00014
1.34872
2.1452
2.29338
2.26882
2.2486
2.22583
2.20053
1
1
1
1
1
1
1
1
1
1
1
1
1
1
1
1
1
1.02832
1.85066
2.25192
2.2447
2.22473
2.2038
2.18159
1
1
1
1
1
1
1
1
1
1
1
1
1
1
1
1
1
1.00022
1.26757
2.05557
2.22865
2.20348
2.18609
2.16626
1
1
1
1
1
1
1
1
1
1
1
1
1
1
1
1
1
1
1.01591
1.63126
2.12074
2.19101
2.17079
2.15078
1
1
1
1
1
1
1
1
1
1
1
1
1
1
1
1
1
1
1.00013
1.12924
1.87368
2.16619
2.15389
2.13628
1
1
1
1
1
1
1
1
1
1
1
1
1
1
1
1
1
1
1
1.00383
1.35891
1.98854
2.13249
2.1152
1
1
1
1
1
1
1
1
1
1
1
1
1
1
1
1
1
1
1
1.00002
1.03349
1.60651
2.02597
2.10272
1
1
1
1
1
1
1
1
1
1
1
1
1
1
1
1
1
1
1
1
1.00046
1.12971
1.7709
2.05202
1
1
1
1
1
1
1
1
1
1
1
1
1
1
1
1
1
1
1
1
1
1.00425
1.28277
1.85712
1
1
1
1
1
1
1
1
1
1
1
1
1
1
1
1
1
1
1
1
1
1.00003
1.02086
1.43337
1
1
1
1
1
1
1
1
1
1
1
1
1
1
1
1
1
1
1
1
1
1
1.00026
1.06008
1
1
1
1
1
1
1
1
1
1
1
1
1
1
1
1
1
1
1
1
1
1
1
1.00128
1
1
1
1
1
1
1
1
1
1
1
1
1
1
1
1
1
1
1
1
1
1
1
1.00001
1
1
1
1
1
1
1
1
1
1
1
1
1
1
1
1
1
1
1
1
1
1
1
1
1
1
1
1
1
1
1
1
1
1
1
1
1
1
1
1
1
1
1
1
1
1
1
1
1
1
1
1
1
1
1
1
1
1
1
1
1
1
1
1
1
1
1
1
1
1
1
1
1
1
1
1
1
1
1
1
1
1
1
1
1
1
1
1
1
1
1
1
1
1
1
1
1
1
1
1
1
1
1
1
1
1
1
1
1
1
1
1
1
1
1
1
1
1
1
1
1
1
1
1
1
1
1
1
1
1
1
1
1
1
1
1
1
1
1
1
1
1
1
1
1.70598
1.16309
0.999001
1.12991
1.17209
1.22627
1.3229
1.40143
1.50027
1.6156
1.69943
1.70528
1.69397
1.69648
1.74282
1.75487
1.73459
1.72307
1.73075
1.74059
1.7466
1.74151
1.72743
1.70356
1.69753
1.70479
1.71801
1.72158
1.71878
1.71107
1.70178
1.70112
1.70133
1.70114
1.72716
2.43534
2.87615
2.82535
2.77255
2.72472
2.68773
2.66761
2.64902
2.62722
2.60159
2.57376
2.54782
2.52649
2.50947
2.49458
2.48007
2.46479
2.44957
2.43224
2.41143
2.39227
2.37438
2.35674
2.34023
2.32739
2.31615
2.3064
2.29932
2.28909
2.27654
2.26344
2.24696
2.22817
2.21318
2.2025
2.19315
2.18624
2.1812
2.17132
2.15828
2.14041
2.11553
2.09485
2.08337
2.07581
2.06997
2.06553
2.06038
2.05387
2.04646
2.03751
2.02393
2.00415
1.98768
1.97832
1.97149
1.96497
1.95864
1.95251
1.94684
1.93502
1.94991
1.60392
1.43769
1.417
1.35921
1.28741
1.25795
1.26451
1.29048
1.3366
1.38502
1.43162
1.47693
1.51972
1.56466
1.60482
1.61925
1.62696
1.64358
1.66262
1.68607
1.69072
1.68426
1.66364
1.65386
1.65841
1.67521
1.69158
1.6936
1.68887
1.67608
1.66606
1.66581
1.68772
1.81031
2.25692
2.72202
2.73085
2.69278
2.64806
2.62114
2.61222
2.60339
2.58948
2.56551
2.54062
2.52032
2.50468
2.49051
2.47636
2.46047
2.44307
2.42605
2.41094
2.39573
2.37956
2.36499
2.34992
2.33267
2.3161
2.30363
2.29275
2.28324
2.27514
2.26573
2.25465
2.24208
2.22755
2.21135
2.19715
2.18719
2.17863
2.16995
2.16007
2.14822
2.1335
2.11504
2.09572
2.08077
2.07181
2.06604
2.06116
2.056
2.0497
2.04192
2.03135
2.01692
2.00032
1.98568
1.97618
1.96947
1.96327
1.95714
1.95051
1.94391
1.93092
2.04332
1.84072
1.67813
1.56173
1.46606
1.39358
1.34923
1.31255
1.26469
1.25104
1.25964
1.2884
1.32648
1.36485
1.39365
1.42431
1.46319
1.49349
1.52152
1.54927
1.57937
1.60701
1.61219
1.60708
1.59473
1.59346
1.60197
1.61587
1.62564
1.62645
1.62227
1.61378
1.63025
1.74754
1.95155
2.05706
2.33801
2.53072
2.5633
2.55731
2.54732
2.53066
2.51904
2.50666
2.49222
2.47623
2.46105
2.4482
2.43772
2.42646
2.41322
2.39675
2.3796
2.36394
2.35049
2.33807
2.32708
2.31689
2.30476
2.28999
2.27502
2.26139
2.24965
2.23931
2.22937
2.22154
2.21437
2.20651
2.19744
2.18497
2.16926
2.15589
2.14594
2.13574
2.12366
2.11046
2.09856
2.08708
2.07434
2.06113
2.05216
2.04695
2.04203
2.03618
2.0284
2.01739
2.00259
1.98579
1.97161
1.96271
1.95731
1.95268
1.94793
1.94215
1.93548
1.92143
2.10042
1.93656
1.82193
1.71313
1.59442
1.51412
1.46843
1.42486
1.37425
1.33353
1.30447
1.28076
1.28193
1.28947
1.30084
1.31606
1.34639
1.38305
1.41574
1.4437
1.46798
1.49254
1.5192
1.53704
1.53999
1.54195
1.54832
1.55564
1.5656
1.56566
1.56265
1.57819
1.69908
1.90257
2.0335
2.0185
2.05575
2.22553
2.36543
2.4396
2.47606
2.4548
2.43833
2.42051
2.41159
2.40701
2.39797
2.38573
2.37377
2.3618
2.34996
2.33737
2.32238
2.30836
2.29569
2.2841
2.27431
2.26557
2.25616
2.24491
2.23227
2.21925
2.20727
2.19675
2.18754
2.17979
2.17341
2.16789
2.16205
2.15432
2.14081
2.12329
2.1101
2.09942
2.08904
2.07983
2.0715
2.06333
2.05485
2.04411
2.03106
2.02205
2.01677
2.01123
2.00374
1.99322
1.98017
1.96712
1.95487
1.94322
1.9354
1.93089
1.92677
1.92226
1.91706
1.90427
2.15318
2.01445
1.90399
1.81217
1.71162
1.63248
1.57137
1.50991
1.46191
1.42052
1.38203
1.33093
1.30275
1.30045
1.30326
1.31197
1.31263
1.31554
1.32045
1.33974
1.37036
1.40549
1.44448
1.47487
1.49244
1.49624
1.49965
1.50686
1.51405
1.51995
1.53736
1.64341
1.88276
1.99605
2.02655
2.0153
2.00434
2.02515
2.13208
2.28822
2.3878
2.40538
2.39894
2.38561
2.37412
2.36523
2.35402
2.339
2.32647
2.31652
2.30728
2.29679
2.2831
2.26722
2.25261
2.24032
2.23022
2.22154
2.21302
2.20347
2.19223
2.17897
2.16476
2.1539
2.14632
2.13977
2.13406
2.12826
2.12241
2.11546
2.10364
2.08498
2.06863
2.0602
2.05389
2.04781
2.04233
2.03548
2.02841
2.02046
2.00813
1.99341
1.9839
1.97701
1.96921
1.96008
1.95136
1.94373
1.93552
1.92452
1.91191
1.90344
1.89802
1.89318
1.88812
1.87736
2.18295
2.07199
1.97528
1.88338
1.79231
1.72448
1.66174
1.59233
1.53468
1.50218
1.47198
1.42832
1.37414
1.35329
1.34521
1.33666
1.32776
1.31598
1.30829
1.30336
1.30924
1.32562
1.35403
1.39328
1.43899
1.4611
1.46833
1.47773
1.4803
1.50174
1.61817
1.83942
1.98838
2.01837
2.0166
2.00699
1.99355
1.98496
1.99604
2.07557
2.22767
2.33668
2.35799
2.36613
2.36296
2.34751
2.32664
2.30793
2.29651
2.28862
2.28186
2.27282
2.25996
2.24238
2.22373
2.20872
2.19761
2.18921
2.18177
2.17377
2.16426
2.15273
2.13892
2.12523
2.11585
2.10855
2.10155
2.09435
2.08696
2.0786
2.06797
2.0538
2.03779
2.02827
2.02318
2.01808
2.01377
2.00843
2.00186
1.99492
1.98424
1.96677
1.95066
1.94149
1.93461
1.929
1.92416
1.91906
1.91325
1.90516
1.89235
1.87833
1.86906
1.86194
1.85596
1.84696
2.20477
2.11303
2.02992
1.94558
1.85678
1.79422
1.73902
1.67305
1.603
1.56127
1.53295
1.50406
1.47094
1.42849
1.38441
1.35735
1.34324
1.33387
1.3293
1.32477
1.31719
1.30798
1.30831
1.31636
1.3439
1.38338
1.4167
1.43961
1.46223
1.60933
1.81594
1.96463
2.01993
2.02395
2.01394
1.99913
1.98732
1.97721
1.96908
1.968
2.01177
2.14622
2.27506
2.32831
2.34578
2.33415
2.3077
2.28878
2.27786
2.27023
2.26462
2.25633
2.2438
2.22641
2.20558
2.187
2.17437
2.16625
2.15935
2.15202
2.14374
2.13415
2.12253
2.10871
2.09567
2.08559
2.0766
2.06736
2.05749
2.0476
2.03866
2.0301
2.01956
2.00686
1.99884
1.99378
1.98883
1.9836
1.97725
1.97049
1.96118
1.94433
1.92261
1.91148
1.90712
1.90341
1.90035
1.89708
1.89214
1.88581
1.87487
1.85649
1.841
1.83235
1.82845
1.82216
2.21658
2.13933
2.06544
1.99199
1.91573
1.84868
1.79109
1.73599
1.68405
1.63064
1.57247
1.54573
1.53009
1.50393
1.46862
1.42122
1.38362
1.3737
1.36852
1.35974
1.3459
1.32782
1.30871
1.30618
1.30859
1.31531
1.33403
1.36055
1.49895
1.77061
1.9079
1.96533
1.99451
1.99152
1.97998
1.97595
1.97414
1.9669
1.95653
1.94646
1.93321
1.95651
2.06472
2.20442
2.2848
2.30089
2.28516
2.27156
2.26077
2.25287
2.24682
2.2377
2.22616
2.21067
2.19113
2.17087
2.15587
2.14655
2.1392
2.13265
2.12564
2.11786
2.10851
2.09637
2.08163
2.06768
2.05603
2.04506
2.03413
2.02447
2.01715
2.01094
2.00362
1.99259
1.97984
1.97124
1.96547
1.96067
1.95592
1.94927
1.94031
1.92686
1.90791
1.89231
1.88616
1.88255
1.88036
1.88003
1.87686
1.87134
1.86157
1.84052
1.81786
1.80941
1.80666
1.80157
2.22141
2.15623
2.09182
2.02494
1.95851
1.90005
1.83969
1.77625
1.73482
1.69477
1.64624
1.59414
1.55727
1.54072
1.52326
1.49641
1.46099
1.41731
1.3922
1.38221
1.37199
1.3604
1.34869
1.3299
1.31097
1.30994
1.31883
1.41383
1.66938
1.81989
1.87419
1.8901
1.89365
1.90407
1.91925
1.93438
1.94122
1.93755
1.92965
1.9225
1.91333
1.89679
1.90747
1.98222
2.10877
2.21511
2.23256
2.24139
2.2413
2.23332
2.22449
2.21321
2.20211
2.18865
2.1727
2.15457
2.13766
2.12649
2.11859
2.11245
2.10708
2.10063
2.09282
2.08205
2.06634
2.04889
2.03545
2.02481
2.01537
2.00734
2.00026
1.99353
1.98636
1.97664
1.96331
1.95151
1.94387
1.93744
1.93066
1.9238
1.9166
1.90909
1.89965
1.88614
1.87328
1.8676
1.86426
1.86157
1.85859
1.85379
1.84469
1.8277
1.80699
1.79598
1.79258
1.78683
2.21853
2.16378
2.10792
2.04746
1.98847
1.9362
1.88243
1.82345
1.77307
1.73243
1.69581
1.65704
1.61941
1.57492
1.54383
1.53289
1.51462
1.48514
1.4505
1.41663
1.39827
1.39273
1.38664
1.36774
1.34117
1.34164
1.41802
1.63082
1.8083
1.82438
1.81867
1.81311
1.80954
1.81552
1.8346
1.85285
1.86635
1.87592
1.88059
1.88087
1.88003
1.87445
1.8672
1.86663
1.90182
2.0097
2.11627
2.1763
2.19401
2.20159
2.19591
2.18352
2.17324
2.16192
2.14932
2.13358
2.1156
2.1024
2.09451
2.08861
2.08474
2.07987
2.07331
2.06387
2.04731
2.02572
2.01157
2.00352
1.99694
1.99053
1.98368
1.97614
1.96754
1.95697
1.9439
1.93149
1.92268
1.91566
1.90877
1.90214
1.89663
1.89195
1.88672
1.87897
1.86716
1.85437
1.84581
1.84005
1.83451
1.82825
1.82122
1.81308
1.80457
1.79359
1.78432
1.77486
2.21116
2.16484
2.11651
2.06436
2.0132
1.96285
1.91129
1.86208
1.81872
1.77477
1.72508
1.69306
1.66748
1.63055
1.59081
1.55961
1.53777
1.521
1.5013
1.47822
1.44666
1.41625
1.40369
1.39376
1.38799
1.45277
1.66222
1.82839
1.84548
1.82893
1.80939
1.80021
1.79558
1.78559
1.77723
1.77196
1.77011
1.77682
1.78675
1.80003
1.81408
1.82555
1.82477
1.82002
1.82235
1.84047
1.9103
2.02023
2.10124
2.13377
2.15108
2.15043
2.14394
2.13601
2.12484
2.11145
2.09342
2.07602
2.06764
2.06226
2.05889
2.05497
2.04881
2.04079
2.026
2.00262
1.98663
1.98043
1.97548
1.97035
1.96461
1.95754
1.94829
1.93602
1.92142
1.90886
1.90068
1.89439
1.88818
1.88244
1.87822
1.87433
1.87001
1.86454
1.85552
1.84152
1.82718
1.81742
1.81082
1.80512
1.79963
1.79711
1.79506
1.79017
1.78101
1.76478
2.20193
2.16201
2.11832
2.07235
2.02815
1.98295
1.93455
1.88977
1.84992
1.81045
1.76656
1.72826
1.69639
1.66553
1.63482
1.60621
1.57607
1.54033
1.52353
1.51422
1.49619
1.46425
1.43392
1.43206
1.48935
1.69113
1.86833
1.8871
1.86669
1.84419
1.824
1.80778
1.79185
1.77648
1.76511
1.75622
1.74988
1.73846
1.72292
1.71724
1.72227
1.72998
1.74223
1.75466
1.76347
1.7677
1.77641
1.81753
1.91324
2.00221
2.07395
2.09074
2.10345
2.10883
2.10102
2.09079
2.07441
2.05377
2.04186
2.03605
2.03158
2.02707
2.02088
2.01326
2.00149
1.98326
1.96476
1.95545
1.95106
1.94696
1.9423
1.93625
1.92804
1.91621
1.9002
1.8849
1.87639
1.87149
1.86735
1.86366
1.85973
1.85503
1.84991
1.84443
1.83728
1.82566
1.81012
1.79658
1.78797
1.78276
1.78104
1.78039
1.77939
1.7774
1.77268
1.75706
2.18808
2.15309
2.1146
2.07625
2.03688
1.99475
1.95234
1.91501
1.87594
1.83483
1.79671
1.76424
1.73064
1.69524
1.66161
1.63834
1.61383
1.58461
1.55043
1.53068
1.5181
1.50033
1.48782
1.54677
1.74298
1.91398
1.93315
1.91251
1.88886
1.86878
1.84833
1.82614
1.80369
1.78301
1.76558
1.75092
1.73818
1.72707
1.71365
1.69525
1.67916
1.66733
1.66563
1.67164
1.67957
1.68781
1.69335
1.69886
1.7196
1.7824
1.89321
1.98068
2.03347
2.06232
2.07234
2.06966
2.05585
2.03904
2.02481
2.01171
2.00361
1.99796
1.99204
1.98431
1.97511
1.96384
1.9489
1.93354
1.92589
1.92206
1.91821
1.9131
1.90596
1.8964
1.88282
1.86527
1.85216
1.84732
1.8448
1.84249
1.83961
1.83541
1.82946
1.82187
1.81314
1.8034
1.7909
1.77772
1.76867
1.76462
1.76304
1.76203
1.76124
1.76012
1.75763
1.74565
2.17295
2.14222
2.10877
2.07552
2.04065
2.00198
1.96584
1.93113
1.89516
1.85548
1.82194
1.78892
1.75666
1.72305
1.69329
1.66332
1.63583
1.61552
1.59185
1.5613
1.53604
1.53016
1.58814
1.79094
1.96225
1.9779
1.95728
1.93207
1.9115
1.89009
1.86542
1.83987
1.81659
1.79733
1.7812
1.76603
1.74996
1.73164
1.711
1.68748
1.66542
1.65206
1.64325
1.63502
1.63004
1.62721
1.62141
1.61734
1.61097
1.61468
1.65152
1.75431
1.86583
1.97152
2.0108
2.03124
2.0308
2.02458
2.01132
1.99398
1.97935
1.97254
1.96611
1.95811
1.95043
1.94278
1.93273
1.91803
1.90384
1.89765
1.89391
1.88952
1.8836
1.87607
1.86607
1.85113
1.83352
1.82404
1.82072
1.8184
1.81613
1.81325
1.80883
1.80165
1.79107
1.77728
1.76402
1.75654
1.753
1.75017
1.74704
1.74363
1.74105
1.74015
1.73955
1.73036
2.1568
2.12932
2.10123
2.07182
2.03924
2.00566
1.97458
1.94159
1.9064
1.87166
1.84168
1.80943
1.77695
1.74413
1.71851
1.69187
1.66163
1.63365
1.61305
1.59038
1.578
1.63998
1.83983
2.00871
2.01659
1.9958
1.97091
1.95039
1.93011
1.9076
1.88195
1.85415
1.82965
1.81051
1.79417
1.77856
1.76233
1.74341
1.71995
1.69144
1.66364
1.64485
1.63187
1.6207
1.61242
1.60416
1.59596
1.5877
1.57532
1.55574
1.54094
1.55183
1.60521
1.72585
1.85055
1.94451
1.98832
1.9956
1.99169
1.9794
1.96154
1.95006
1.9417
1.9345
1.92877
1.92266
1.9154
1.9047
1.89032
1.87666
1.86954
1.86506
1.86082
1.85523
1.84778
1.83731
1.82174
1.80662
1.7992
1.79502
1.79164
1.78861
1.78523
1.78042
1.77193
1.75706
1.74187
1.73661
1.73421
1.73152
1.72893
1.72652
1.72307
1.71759
1.71077
1.69946
2.14323
2.1178
2.09246
2.06597
2.03589
2.00617
1.97682
1.94656
1.91264
1.88361
1.85383
1.82418
1.79173
1.76387
1.73684
1.7108
1.6857
1.65591
1.62969
1.62514
1.69448
1.89973
2.06202
2.05808
2.03142
2.00349
1.98394
1.96503
1.9445
1.92184
1.89557
1.86591
1.83893
1.81859
1.80151
1.78538
1.76929
1.75228
1.73233
1.7061
1.67465
1.64824
1.6307
1.61741
1.60517
1.59273
1.58072
1.56881
1.55792
1.54553
1.52788
1.50891
1.49758
1.50984
1.57441
1.69239
1.82041
1.90266
1.9516
1.95112
1.94425
1.93494
1.92449
1.91791
1.91155
1.90269
1.89454
1.8869
1.87574
1.86132
1.85117
1.8449
1.83866
1.83267
1.82798
1.82146
1.80882
1.793
1.78164
1.7753
1.77083
1.76713
1.7634
1.75871
1.7519
1.74153
1.72803
1.71924
1.71617
1.71439
1.71314
1.7105
1.70541
1.69672
1.68543
1.6715
2.12962
2.10718
2.0829
2.05685
2.03023
2.00409
1.97592
1.94565
1.91651
1.89009
1.86163
1.83272
1.80265
1.77963
1.75316
1.72746
1.69841
1.67169
1.66848
1.74808
1.95377
2.10708
2.10401
2.07324
2.0391
2.0134
1.9939
1.97357
1.95195
1.9292
1.90429
1.87587
1.84713
1.82438
1.80649
1.79014
1.77384
1.75677
1.73806
1.71541
1.68642
1.65747
1.63635
1.61967
1.60414
1.58912
1.57523
1.56164
1.54789
1.5339
1.51844
1.50011
1.4847
1.47373
1.46317
1.47257
1.53363
1.64527
1.77867
1.85141
1.89514
1.90428
1.90737
1.90711
1.89924
1.88849
1.87865
1.86795
1.85535
1.84428
1.83551
1.82799
1.82083
1.81329
1.80404
1.79478
1.78766
1.7794
1.77038
1.76105
1.75243
1.74507
1.73885
1.73409
1.72998
1.72439
1.71664
1.70904
1.70187
1.69514
1.68886
1.6841
1.68086
1.67553
1.66653
1.65128
2.11708
2.09628
2.07311
2.04779
2.02344
1.99853
1.97277
1.94445
1.91951
1.89282
1.8672
1.838
1.81432
1.78997
1.76625
1.73857
1.70851
1.71071
1.80336
2.00748
2.14733
2.14664
2.11754
2.08005
2.04539
2.02069
1.99892
1.97717
1.95513
1.93262
1.90879
1.8822
1.8533
1.82794
1.80834
1.79117
1.77422
1.7567
1.73813
1.71778
1.69403
1.66621
1.6411
1.62234
1.60613
1.59025
1.57451
1.55907
1.54303
1.52792
1.51214
1.49582
1.47876
1.46382
1.45078
1.44183
1.43161
1.43879
1.48996
1.60256
1.7222
1.80193
1.84325
1.87143
1.87584
1.8727
1.86391
1.84988
1.83593
1.82556
1.81833
1.81256
1.80634
1.7973
1.78584
1.77524
1.7671
1.76254
1.75789
1.7492
1.73793
1.72859
1.72179
1.71628
1.71103
1.70756
1.7052
1.70093
1.6906
1.67743
1.66866
1.66333
1.65845
1.65279
1.64704
1.63659
2.09781
2.07988
2.05885
2.03754
2.01547
1.99174
1.96611
1.94284
1.91951
1.89484
1.86892
1.84361
1.82198
1.79807
1.77167
1.74464
1.74873
1.86123
2.06671
2.17418
2.17213
2.14501
2.11385
2.08187
2.0508
2.02494
2.0014
1.97833
1.9558
1.93335
1.91008
1.88457
1.85641
1.82936
1.8076
1.78894
1.77117
1.75361
1.7359
1.71733
1.69643
1.67208
1.64663
1.62455
1.60611
1.58949
1.57352
1.55733
1.54074
1.52422
1.50706
1.49029
1.47402
1.45985
1.44572
1.4332
1.42191
1.41375
1.40159
1.407
1.45078
1.56606
1.67705
1.77587
1.81534
1.82728
1.83098
1.82687
1.81725
1.80726
1.79982
1.79536
1.79037
1.7817
1.77035
1.7612
1.75506
1.74846
1.74014
1.73299
1.72527
1.71626
1.70838
1.70208
1.69798
1.6952
1.69087
1.68133
1.66773
1.65791
1.65214
1.64747
1.64215
1.63644
1.63202
1.62265
2.08416
2.06502
2.04634
2.02772
2.00802
1.98537
1.96204
1.94133
1.91821
1.8949
1.8696
1.84861
1.82661
1.80179
1.77599
1.79037
1.92805
2.12895
2.21164
2.20707
2.17663
2.14555
2.11769
2.08759
2.05626
2.028
2.00284
1.9788
1.95527
1.93211
1.90869
1.8841
1.85744
1.82987
1.80507
1.78379
1.7643
1.74565
1.72746
1.70931
1.69049
1.66993
1.64708
1.62416
1.60389
1.58635
1.57034
1.55479
1.53964
1.52437
1.50802
1.49046
1.47197
1.45477
1.44083
1.42993
1.41928
1.40708
1.39483
1.38547
1.37497
1.38171
1.42747
1.53028
1.64439
1.73154
1.78311
1.79049
1.78869
1.78475
1.77611
1.77018
1.76593
1.7601
1.75397
1.74875
1.7429
1.7351
1.72572
1.71516
1.70527
1.69918
1.69472
1.69171
1.68927
1.68521
1.67779
1.66538
1.65154
1.64262
1.63751
1.63281
1.62729
1.62247
1.61958
1.612
2.0713
2.05345
2.03428
2.01715
1.99865
1.97709
1.95682
1.93676
1.91544
1.89213
1.87004
1.84941
1.82657
1.80479
1.82525
1.99041
2.20124
2.24875
2.22659
2.19776
2.17277
2.14888
2.1224
2.09161
2.05974
2.02996
2.00209
1.97541
1.95003
1.92597
1.90256
1.87886
1.85387
1.82752
1.80164
1.77822
1.75701
1.73707
1.71791
1.69931
1.68103
1.66241
1.64239
1.62123
1.60076
1.58236
1.56582
1.55001
1.53458
1.5199
1.50631
1.49244
1.47754
1.46178
1.4449
1.42881
1.41431
1.40322
1.39345
1.38249
1.37171
1.36435
1.35493
1.35925
1.40357
1.49616
1.61209
1.68545
1.73849
1.75655
1.7546
1.75366
1.75013
1.74303
1.73696
1.73048
1.72415
1.71942
1.71159
1.69884
1.68912
1.68405
1.68025
1.67629
1.67104
1.66449
1.65594
1.64591
1.63733
1.6325
1.62797
1.62228
1.61614
1.6107
1.60523
1.59258
2.04189
2.03709
2.01981
2.00392
1.98709
1.96732
1.95011
1.93107
1.91096
1.8886
1.86812
1.84907
1.83128
1.86465
2.04236
2.23834
2.29422
2.26761
2.22536
2.1889
2.16462
2.14334
2.11767
2.08824
2.05876
2.02965
2.0005
1.97183
1.94406
1.91762
1.89259
1.86811
1.84345
1.8186
1.79418
1.77099
1.74932
1.72889
1.7092
1.68998
1.67111
1.65269
1.63451
1.61607
1.59734
1.57887
1.5613
1.54494
1.52931
1.51408
1.49996
1.48765
1.47674
1.46528
1.45229
1.4379
1.42212
1.40638
1.39153
1.37981
1.37131
1.362
1.35174
1.34319
1.33455
1.33845
1.37891
1.46497
1.57507
1.65048
1.70019
1.72117
1.73004
1.73149
1.72895
1.72046
1.71073
1.70137
1.68856
1.67716
1.67383
1.67255
1.66948
1.66381
1.65626
1.6476
1.63831
1.63003
1.62591
1.621
1.61495
1.61172
1.60719
1.60053
1.59262
1.57828
1.90385
2.01687
2.00604
1.98895
1.97259
1.95662
1.94099
1.92384
1.90458
1.88292
1.86618
1.85613
1.90983
2.10969
2.27689
2.30621
2.28232
2.25068
2.22004
2.18844
2.1576
2.13009
2.10335
2.07637
2.04962
2.02249
1.99441
1.96534
1.93584
1.90721
1.88044
1.85525
1.83082
1.80696
1.78389
1.76171
1.74037
1.71997
1.7004
1.68143
1.6631
1.64563
1.62906
1.61286
1.59623
1.57887
1.56113
1.54403
1.52799
1.51282
1.49848
1.48537
1.47368
1.46292
1.45223
1.44061
1.42801
1.41421
1.40028
1.38812
1.37553
1.36237
1.34918
1.3382
1.32771
1.3206
1.31377
1.31898
1.35395
1.44206
1.54125
1.61992
1.66146
1.6952
1.70364
1.70287
1.69999
1.6896
1.67304
1.66437
1.66024
1.65576
1.64994
1.64292
1.63566
1.62864
1.62374
1.62252
1.62026
1.6129
1.60337
1.59499
1.58833
1.5814
1.57523
1.56604
1.56332
1.92171
1.99352
1.97902
1.95836
1.94449
1.92968
1.9158
1.8946
1.87582
1.87877
1.96215
2.18217
2.32784
2.32471
2.29538
2.25641
2.23063
2.20992
2.18342
2.15059
2.1173
2.08748
2.05978
2.03335
2.00796
1.98242
1.95522
1.9259
1.89591
1.86775
1.84269
1.81993
1.7981
1.77657
1.75536
1.73458
1.71432
1.69476
1.67579
1.65749
1.6404
1.62465
1.6099
1.59502
1.57874
1.56111
1.54347
1.52712
1.51245
1.49888
1.4858
1.4734
1.46225
1.45206
1.44155
1.43023
1.41922
1.40787
1.39487
1.3822
1.37186
1.36047
1.34634
1.33043
1.31695
1.30519
1.3002
1.29394
1.29933
1.32973
1.41462
1.51301
1.60677
1.64481
1.65894
1.66821
1.66658
1.66151
1.65679
1.65228
1.64496
1.63662
1.62869
1.62141
1.61628
1.61294
1.6083
1.6011
1.59631
1.58975
1.58103
1.57459
1.56875
1.56367
1.55367
1.12556
1.65892
1.92174
1.97025
1.9526
1.93252
1.91896
1.90253
1.88786
1.90003
2.01663
2.22505
2.35442
2.3465
2.30754
2.27049
2.23752
2.21294
2.19204
2.16692
2.13609
2.10195
2.06942
2.04059
2.01424
1.98934
1.96576
1.94202
1.91592
1.88754
1.85956
1.83439
1.81258
1.79276
1.77308
1.7526
1.73204
1.71211
1.69312
1.67516
1.65735
1.63953
1.62286
1.60759
1.59323
1.57893
1.5631
1.54583
1.52887
1.51349
1.50049
1.48951
1.47866
1.4667
1.45439
1.44334
1.43331
1.42285
1.41218
1.40415
1.39785
1.38863
1.37584
1.35873
1.34053
1.3252
1.31047
1.29886
1.28727
1.28305
1.27949
1.28393
1.31718
1.39238
1.48941
1.57253
1.6257
1.63257
1.6308
1.63141
1.62807
1.6236
1.62251
1.62093
1.61727
1.6126
1.60539
1.59703
1.58773
1.57676
1.57241
1.56965
1.56499
1.55957
1.55397
1.54272
1.00453
1.20801
1.71665
1.91327
1.94644
1.92876
1.90928
1.89591
1.93292
2.09264
2.26471
2.34653
2.34891
2.31961
2.28334
2.25157
2.22437
2.19804
2.17224
2.14619
2.11806
2.0876
2.05632
2.02647
1.99973
1.97577
1.95337
1.93182
1.90912
1.88376
1.8571
1.8318
1.80941
1.78975
1.77146
1.75321
1.7337
1.7134
1.69365
1.67465
1.65813
1.64475
1.63119
1.61535
1.59786
1.58034
1.56373
1.54729
1.53205
1.51881
1.50568
1.49301
1.48216
1.47244
1.46216
1.45183
1.44184
1.43177
1.42228
1.4123
1.39977
1.38617
1.37344
1.35977
1.34276
1.33019
1.32238
1.31245
1.30107
1.29215
1.28119
1.27142
1.26395
1.26708
1.29811
1.36824
1.4654
1.53917
1.60188
1.61679
1.61309
1.60793
1.60127
1.59667
1.5961
1.59691
1.5951
1.58901
1.57824
1.56466
1.55702
1.55082
1.54582
1.54262
1.54067
1.5358
1.00003
1.01216
1.29009
1.73968
1.91301
1.91191
1.9089
1.98667
2.1682
2.3199
2.34217
2.33465
2.32042
2.29538
2.26452
2.23576
2.21073
2.18537
2.15883
2.13255
2.10533
2.07752
2.05009
2.02233
1.9959
1.97446
1.95443
1.93139
1.90735
1.88477
1.86143
1.83926
1.81957
1.79944
1.77842
1.75811
1.73875
1.72111
1.70259
1.68369
1.66676
1.64985
1.63338
1.61867
1.60425
1.58859
1.5718
1.55748
1.54713
1.53615
1.52309
1.5077
1.49254
1.47959
1.46968
1.46312
1.45648
1.44735
1.43704
1.42456
1.40806
1.39044
1.37445
1.36266
1.35193
1.33817
1.32212
1.30817
1.29668
1.28672
1.27715
1.26866
1.25908
1.25036
1.246
1.25065
1.28248
1.35181
1.45981
1.52616
1.5732
1.59756
1.59272
1.59094
1.58981
1.5871
1.58138
1.57325
1.56292
1.55327
1.54301
1.53504
1.5315
1.53061
1.52954
1.52467
1
1.00014
1.02515
1.35437
1.7709
1.86249
2.04928
2.25333
2.34635
2.37587
2.35519
2.33266
2.31905
2.29985
2.27149
2.24342
2.22045
2.19815
2.17393
2.14675
2.11994
2.09356
2.06655
2.03928
2.01066
1.98287
1.95872
1.94085
1.92572
1.90778
1.88622
1.85958
1.83374
1.8151
1.79898
1.78018
1.75757
1.73361
1.71749
1.70439
1.68678
1.66578
1.64669
1.63077
1.61466
1.59771
1.58122
1.56544
1.54981
1.53553
1.52425
1.51409
1.50233
1.49035
1.47897
1.46722
1.45572
1.44471
1.43288
1.4216
1.41052
1.39606
1.38139
1.36827
1.35456
1.3397
1.3233
1.30809
1.29676
1.28677
1.27746
1.2689
1.2597
1.2498
1.24276
1.24278
1.24295
1.24813
1.28036
1.35025
1.43043
1.50085
1.54123
1.5719
1.57936
1.57896
1.57681
1.56857
1.5531
1.53611
1.52433
1.52155
1.52178
1.52192
1.52072
1.51758
1
1
1.00039
1.04311
1.3897
1.95987
2.38679
2.44855
2.44676
2.42368
2.39515
2.37042
2.35352
2.33277
2.30383
2.27421
2.25052
2.2271
2.2008
2.17259
2.14211
2.11004
2.07975
2.05515
2.03496
2.01297
1.99019
1.96895
1.94639
1.92383
1.904
1.88605
1.86428
1.83958
1.81425
1.79379
1.7776
1.7598
1.73665
1.71104
1.68869
1.66975
1.6516
1.63505
1.62262
1.61054
1.59493
1.57725
1.55811
1.54118
1.5285
1.52113
1.51413
1.50439
1.49258
1.47871
1.46413
1.45121
1.43774
1.42315
1.41254
1.40482
1.39435
1.37935
1.3622
1.34472
1.32727
1.30989
1.29587
1.28713
1.28253
1.27818
1.27089
1.26158
1.25301
1.24613
1.23853
1.23589
1.23228
1.23648
1.25852
1.32092
1.408
1.48273
1.51556
1.5488
1.55686
1.55537
1.54884
1.53325
1.51624
1.50995
1.51007
1.5115
1.51373
1.52863
1
1
1
1.00075
1.1395
2.34526
2.68112
2.615
2.56099
2.5176
2.48756
2.46573
2.44633
2.42175
2.38854
2.35208
2.31866
2.2865
2.25423
2.22146
2.18742
2.15328
2.12173
2.09345
2.06715
2.04344
2.02201
2.00041
1.97805
1.95557
1.9321
1.90731
1.88357
1.86012
1.83786
1.81646
1.79322
1.76941
1.7452
1.71962
1.69681
1.67855
1.66234
1.6456
1.62661
1.60712
1.58979
1.57411
1.55995
1.54602
1.53305
1.52066
1.50901
1.49845
1.48827
1.47814
1.46679
1.45327
1.44011
1.42747
1.41647
1.40484
1.39115
1.37497
1.35747
1.34054
1.32521
1.31202
1.30054
1.29123
1.28305
1.27459
1.26599
1.25763
1.25098
1.24598
1.24055
1.23562
1.2286
1.2241
1.21574
1.21855
1.23934
1.30595
1.38763
1.47267
1.50266
1.51634
1.52039
1.51508
1.51356
1.51242
1.51557
1.52921
1.55643
1.64036
1
1
1
1.00001
1.57106
2.6638
2.77712
2.73491
2.7018
2.66685
2.63233
2.60089
2.56687
2.52659
2.48019
2.43116
2.38322
2.34014
2.30009
2.26139
2.22536
2.19156
2.16008
2.13027
2.102
2.0758
2.05103
2.02674
2.00267
1.9784
1.95353
1.92853
1.90402
1.87971
1.85524
1.83027
1.80506
1.77991
1.75467
1.73016
1.70745
1.68613
1.66596
1.64711
1.62882
1.61125
1.59446
1.57838
1.56338
1.54942
1.53592
1.52297
1.51129
1.50033
1.4899
1.48034
1.47015
1.4563
1.44191
1.43358
1.42408
1.41074
1.39461
1.37675
1.35776
1.34019
1.32464
1.3133
1.30656
1.29951
1.29024
1.27851
1.2667
1.25982
1.25531
1.25134
1.24771
1.24227
1.23469
1.22601
1.2147
1.20464
1.19413
1.19914
1.22759
1.28987
1.374
1.44204
1.48343
1.49523
1.5216
1.56513
1.60685
1.65365
1.6974
1.75741
1
1
1
1
1.83717
2.78272
2.82767
2.80253
2.78094
2.75458
2.71833
2.68192
2.63932
2.5896
2.53549
2.47973
2.42578
2.37512
2.32841
2.2859
2.24709
2.21143
2.17811
2.14688
2.11751
2.08962
2.06284
2.03698
2.01173
1.98682
1.96225
1.93789
1.91328
1.88802
1.86203
1.83573
1.80952
1.78382
1.7592
1.73566
1.71262
1.69004
1.66836
1.64813
1.63001
1.61412
1.59938
1.5843
1.56805
1.55131
1.53604
1.52345
1.51259
1.50232
1.49172
1.47989
1.46747
1.45666
1.44636
1.43266
1.41683
1.40198
1.38792
1.37302
1.35691
1.34027
1.32627
1.31549
1.30476
1.29373
1.28318
1.27175
1.26019
1.25206
1.2472
1.24329
1.23995
1.23477
1.22705
1.21739
1.20604
1.19268
1.18351
1.18149
1.17956
1.18574
1.22302
1.29401
1.39735
1.5182
1.6129
1.68777
1.76104
1.8177
1.86427
1.89858
)
;

boundaryField
{
    inlet
    {
        type            fixedValue;
        value           uniform 1;
    }
    outlet
    {
        type            inletOutlet;
        inletValue      uniform 1;
        value           nonuniform List<scalar> 
32
(
1.93512
1.93079
1.92089
1.90361
1.87715
1.84736
1.82305
1.8027
1.78823
1.77556
1.76413
1.75554
1.7443
1.72909
1.69904
1.67089
1.65051
1.63639
1.62259
1.61176
1.59177
1.57732
1.56621
1.55341
1.54231
1.53632
1.52472
1.51745
1.52791
1.63879
1.75644
1.89836
)
;
    }
    bottom
    {
        type            symmetryPlane;
    }
    top
    {
        type            symmetryPlane;
    }
    obstacle
    {
        type            zeroGradient;
    }
    defaultFaces
    {
        type            empty;
    }
}


// ************************************************************************* //
