/*--------------------------------*- C++ -*----------------------------------*\
  =========                 |
  \\      /  F ield         | OpenFOAM: The Open Source CFD Toolbox
   \\    /   O peration     | Website:  https://openfoam.org
    \\  /    A nd           | Version:  7
     \\/     M anipulation  |
\*---------------------------------------------------------------------------*/
FoamFile
{
    version     2.0;
    format      ascii;
    class       volScalarField;
    location    "0.6";
    object      p;
}
// * * * * * * * * * * * * * * * * * * * * * * * * * * * * * * * * * * * * * //

dimensions      [1 -1 -2 0 0 0 0];

internalField   nonuniform List<scalar> 
64512
(
1
1
1
1
1
1
1
1
1
1
1
1
1
1
1
1
1
1
1
1
1
1
1
1
1
1
1
1
1
1
1
1
1
1
1
1
1
1
1
1
1
1
1
1
1
1
1
1
1
1
1
1
1
1
1
1
1
1
1
4.3988
10.8781
11.2674
11.3662
11.4457
11.4739
11.4467
11.4189
11.4151
11.4773
11.6081
11.7254
11.8073
11.8662
11.8977
11.9118
11.9436
12.0008
12.0922
12.2076
12.3165
12.4021
12.4492
12.4421
12.3912
12.3157
12.2386
12.1835
12.1677
12.1913
12.2441
12.3144
12.3973
12.4858
12.5721
12.6417
12.6856
1
1
1
1
1
1
1
1
1
1
1
1
1
1
1
1
1
1
1
1
1
1
1
1
1
1
1
1
1
1
1
1
1
1
1
1
1
1
1
1
1
1
1
1
1
1
1
1
1
1
1
1
1
1
1
1
1
1
1
4.36071
10.837
11.2716
11.3632
11.4447
11.4727
11.4455
11.4146
11.4082
11.4704
11.603
11.7233
11.8089
11.8703
11.9021
11.9145
11.9438
11.9983
12.0881
12.2027
12.3113
12.3967
12.444
12.4374
12.388
12.3137
12.2377
12.1829
12.1665
12.1893
12.2414
12.3119
12.3951
12.4837
12.5694
12.6383
12.6817
1
1
1
1
1
1
1
1
1
1
1
1
1
1
1
1
1
1
1
1
1
1
1
1
1
1
1
1
1
1
1
1
1
1
1
1
1
1
1
1
1
1
1
1
1
1
1
1
1
1
1
1
1
1
1
1
1
1
1
4.27288
10.7957
11.2595
11.3543
11.4396
11.4691
11.4435
11.4073
11.397
11.4589
11.5946
11.7201
11.8112
11.8764
11.908
11.9174
11.943
11.9935
12.0808
12.1945
12.3033
12.3889
12.4365
12.4309
12.3829
12.31
12.2348
12.1798
12.1622
12.1838
12.2353
12.3063
12.3906
12.4797
12.5647
12.6326
12.6747
1
1
1
1
1
1
1
1
1
1
1
1
1
1
1
1
1
1
1
1
1
1
1
1
1
1
1
1
1
1
1
1
1
1
1
1
1
1
1
1
1
1
1
1
1
1
1
1
1
1
1
1
1
1
1
1
1
1
1
4.14349
10.747
11.2413
11.3396
11.434
11.4633
11.4376
11.3951
11.3797
11.4424
11.5828
11.7173
11.8162
11.8854
11.916
11.9198
11.94
11.9856
12.0702
12.1831
12.2922
12.3779
12.426
12.4217
12.3757
12.3045
12.2301
12.1746
12.1556
12.1763
12.2277
12.2999
12.3856
12.4749
12.5581
12.6237
12.6634
1
1
1
1
1
1
1
1
1
1
1
1
1
1
1
1
1
1
1
1
1
1
1
1
1
1
1
1
1
1
1
1
1
1
1
1
1
1
1
1
1
1
1
1
1
1
1
1
1
1
1
1
1
1
1
1
1
1
1
3.97755
10.6718
11.2136
11.3207
11.4263
11.4538
11.4285
11.3799
11.359
11.4236
11.5704
11.7162
11.8235
11.8961
11.9247
11.9213
11.9348
11.9753
12.0573
12.1697
12.2791
12.3649
12.4136
12.4108
12.3669
12.2969
12.2227
12.1663
12.1458
12.1659
12.2182
12.2927
12.3806
12.4699
12.5506
12.6126
12.6487
1
1
1
1
1
1
1
1
1
1
1
1
1
1
1
1
1
1
1
1
1
1
1
1
1
1
1
1
1
1
1
1
1
1
1
1
1
1
1
1
1
1
1
1
1
1
1
1
1
1
1
1
1
1
1
1
1
1
1
3.777
10.5643
11.1795
11.2971
11.4156
11.4421
11.4142
11.3603
11.3361
11.4042
11.5594
11.7176
11.8335
11.9079
11.9331
11.9211
11.9269
11.9621
12.0424
12.1545
12.2643
12.35
12.3992
12.398
12.3562
12.2875
12.2126
12.1542
12.1317
12.1521
12.2071
12.2851
12.3754
12.4648
12.5421
12.5995
12.6311
1
1
1
1
1
1
1
1
1
1
1
1
1
1
1
1
1
1
1
1
1
1
1
1
1
1
1
1
1
1
1
1
1
1
1
1
1
1
1
1
1
1
1
1
1
1
1
1
1
1
1
1
1
1
1
1
1
1
1
3.54645
10.4144
11.1419
11.2705
11.4017
11.4265
11.3925
11.3362
11.3149
11.3877
11.552
11.7216
11.8443
11.9186
11.9391
11.9178
11.9155
11.9464
12.0259
12.1381
12.2482
12.3334
12.3828
12.3833
12.3437
12.2761
12.2001
12.1387
12.1133
12.1344
12.1935
12.2766
12.37
12.4587
12.532
12.5839
12.6103
1
1
1
1
1
1
1
1
1
1
1
1
1
1
1
1
1
1
1
1
1
1
1
1
1
1
1
1
1
1
1
1
1
1
1
1
1
1
1
1
1
1
1
1
1
1
1
1
1
1
1
1
1
1
1
1
1
1
1
3.28748
10.2089
11.1077
11.2451
11.3845
11.4056
11.3649
11.3093
11.2982
11.3754
11.5475
11.7265
11.8542
11.9267
11.9413
11.9106
11.901
11.9285
12.0081
12.1204
12.2301
12.3142
12.3637
12.3663
12.3293
12.2631
12.1856
12.1204
12.0919
12.1133
12.1766
12.2658
12.3626
12.4504
12.5198
12.5656
12.587
1
1
1
1
1
1
1
1
1
1
1
1
1
1
1
1
1
1
1
1
1
1
1
1
1
1
1
1
1
1
1
1
1
1
1
1
1
1
1
1
1
1
1
1
1
1
1
1
1
1
1
1
1
1
1
1
1
1
1
2.99865
9.94038
11.0838
11.2197
11.3635
11.3797
11.3362
11.2861
11.286
11.3669
11.5446
11.7311
11.8627
11.9315
11.9375
11.8985
11.8823
11.908
11.9887
12.101
12.2093
12.2916
12.3411
12.3466
12.313
12.2485
12.1695
12.1
12.0678
12.0898
12.1584
12.253
12.3527
12.4395
12.5049
12.545
12.5618
1
1
1
1
1
1
1
1
1
1
1
1
1
1
1
1
1
1
1
1
1
1
1
1
1
1
1
1
1
1
1
1
1
1
1
1
1
1
1
1
1
1
1
1
1
1
1
1
1
1
1
1
1
1
1
1
1
1
1
2.65673
9.59723
11.0831
11.1935
11.3381
11.3516
11.3135
11.2703
11.277
11.3616
11.5429
11.7353
11.868
11.9311
11.9269
11.8814
11.8606
11.8861
11.9678
12.079
12.1848
12.2643
12.314
12.3237
12.2945
12.2324
12.1518
12.0778
12.0417
12.0647
12.1388
12.2387
12.3404
12.4255
12.4867
12.5214
12.5347
1
1
1
1
1
1
1
1
1
1
1
1
1
1
1
1
1
1
1
1
1
1
1
1
1
1
1
1
1
1
1
1
1
1
1
1
1
1
1
1
1
1
1
1
1
1
1
1
1
1
1
1
1
1
1
1
1
1
1
2.26028
9.1641
11.1176
11.171
11.3111
11.3271
11.3
11.2609
11.2706
11.3597
11.5434
11.7383
11.8683
11.9232
11.9099
11.8604
11.8373
11.8632
11.9446
12.0534
12.1554
12.2315
12.2816
12.297
12.2735
12.2145
12.1326
12.054
12.0141
12.0382
12.1172
12.2222
12.3253
12.4078
12.4645
12.4941
12.505
1
1
1
1
1
1
1
1
1
1
1
1
1
1
1
1
1
1
1
1
1
1
1
1
1
1
1
1
1
1
1
1
1
1
1
1
1
1
1
1
1
1
1
1
1
1
1
1
1
1
1
1
1
1
1
1
1
1
1
1.83636
8.59941
11.1612
11.1471
11.2778
11.2998
11.2874
11.2572
11.2708
11.3618
11.5444
11.7376
11.861
11.9066
11.8878
11.8376
11.8136
11.8394
11.9186
12.0239
12.1211
12.1932
12.2439
12.2658
12.2493
12.1944
12.1114
12.0289
11.9859
12.0107
12.0946
12.2038
12.3072
12.3862
12.4379
12.4622
12.4716
1
1
1
1
1
1
1
1
1
1
1
1
1
1
1
1
1
1
1
1
1
1
1
1
1
1
1
1
1
1
1
1
1
1
1
1
1
1
1
1
1
1
1
1
1
1
1
1
1
1
1
1
1
1
1
1
1
1
1
1.4341
7.89949
11.1529
11.1081
11.2287
11.276
11.2761
11.2639
11.284
11.3668
11.5418
11.7281
11.8435
11.8828
11.8634
11.8151
11.7904
11.8146
11.8893
11.9897
12.0817
12.1496
12.2011
12.2299
12.2211
12.1711
12.0879
12.0027
11.9577
11.9836
12.0713
12.1834
12.2859
12.3603
12.4065
12.4254
12.4337
1
1
1
1
1
1
1
1
1
1
1
1
1
1
1
1
1
1
1
1
1
1
1
1
1
1
1
1
1
1
1
1
1
1
1
1
1
1
1
1
1
1
1
1
1
1
1
1
1
1
1
1
1
1
1
1
1
1
1
1.08695
7.03793
11.1262
11.1101
11.1991
11.2594
11.2715
11.2786
11.3041
11.3699
11.5287
11.7063
11.8169
11.855
11.84
11.7952
11.7682
11.7887
11.8567
11.9505
12.0376
12.102
12.1544
12.1894
12.1882
12.1435
12.0615
11.9755
11.9305
11.9574
12.0471
12.1601
12.2603
12.3296
12.3698
12.3832
12.3904
1
1
1
1
1
1
1
1
1
1
1
1
1
1
1
1
1
1
1
1
1
1
1
1
1
1
1
1
1
1
1
1
1
1
1
1
1
1
1
1
1
1
1
1
1
1
1
1
1
1
1
1
1
1
1
1
1
1
1
1.0011
6.22069
11.0084
11.0887
11.1871
11.2593
11.2832
11.2971
11.3138
11.3674
11.5019
11.6723
11.7837
11.8258
11.8184
11.7781
11.7472
11.7613
11.8201
11.9058
11.9886
12.0514
12.105
12.1448
12.1498
12.1104
12.0311
11.9475
11.9044
11.9315
12.0207
12.1327
12.2294
12.293
12.3279
12.3362
12.3423
1
1
1
1
1
1
1
1
1
1
1
1
1
1
1
1
1
1
1
1
1
1
1
1
1
1
1
1
1
1
1
1
1
1
1
1
1
1
1
1
1
1
1
1
1
1
1
1
1
1
1
1
1
1
1
1
1
1
1
1
5.42588
10.862
11.0714
11.1826
11.2555
11.2981
11.3148
11.3091
11.3537
11.4672
11.6292
11.7456
11.7954
11.7978
11.7626
11.7266
11.732
11.7799
11.8558
11.9352
11.9984
12.054
12.0969
12.1061
12.0715
11.9973
11.9194
11.88
11.9059
11.9915
12.0993
12.1915
12.2495
12.2797
12.2841
12.2896
1
1
1
1
1
1
1
1
1
1
1
1
1
1
1
1
1
1
1
1
1
1
1
1
1
1
1
1
1
1
1
1
1
1
1
1
1
1
1
1
1
1
1
1
1
1
1
1
1
1
1
1
1
1
1
1
1
1
1
1
4.66237
10.662
11.0342
11.1632
11.2513
11.2971
11.3133
11.2947
11.3263
11.4258
11.5802
11.7041
11.7636
11.7765
11.7465
11.7052
11.7004
11.7363
11.8014
11.878
11.9432
12.0009
12.0454
12.0569
12.0272
11.9606
11.8917
11.8564
11.8788
11.9578
12.0589
12.1456
12.1985
12.2257
12.2282
12.2336
1
1
1
1
1
1
1
1
1
1
1
1
1
1
1
1
1
1
1
1
1
1
1
1
1
1
1
1
1
1
1
1
1
1
1
1
1
1
1
1
1
1
1
1
1
1
1
1
1
1
1
1
1
1
1
1
1
1
1
1
3.92597
10.3762
10.9805
11.1226
11.2342
11.2848
11.2871
11.271
11.2895
11.3804
11.5294
11.6597
11.7297
11.7531
11.7284
11.6823
11.6651
11.6889
11.7436
11.8181
11.8856
11.9449
11.9894
12.0023
11.9785
11.9224
11.8644
11.8334
11.85
11.9184
12.011
12.0912
12.14
12.1653
12.1675
12.1733
1
1
1
1
1
1
1
1
1
1
1
1
1
1
1
1
1
1
1
1
1
1
1
1
1
1
1
1
1
1
1
1
1
1
1
1
1
1
1
1
1
1
1
1
1
1
1
1
1
1
1
1
1
1
1
1
1
1
1
1
3.21999
9.99001
10.9122
11.0734
11.197
11.2602
11.2565
11.2467
11.2531
11.3303
11.4745
11.6112
11.6921
11.7259
11.707
11.6566
11.6256
11.6374
11.6844
11.7568
11.8261
11.8852
11.9276
11.9414
11.9257
11.8833
11.8371
11.8087
11.8173
11.8721
11.9542
12.0283
12.0742
12.0992
12.1024
12.1088
1
1
1
1
1
1
1
1
1
1
1
1
1
1
1
1
1
1
1
1
1
1
1
1
1
1
1
1
1
1
1
1
1
1
1
1
1
1
1
1
1
1
1
1
1
1
1
1
1
1
1
1
1
1
1
1
1
1
1
1
2.53485
9.45483
10.8636
11.016
11.1616
11.2287
11.2292
11.2184
11.2181
11.2805
11.4131
11.5587
11.6502
11.6935
11.6804
11.6268
11.5833
11.583
11.6236
11.6938
11.7641
11.821
11.8589
11.8737
11.8689
11.8437
11.81
11.7818
11.7791
11.8183
11.8883
11.9569
12.0013
12.0267
12.0308
12.0375
1
1
1
1
1
1
1
1
1
1
1
1
1
1
1
1
1
1
1
1
1
1
1
1
1
1
1
1
1
1
1
1
1
1
1
1
1
1
1
1
1
1
1
1
1
1
1
1
1
1
1
1
1
1
1
1
1
1
1
1
1.92304
8.80302
10.8486
10.9764
11.1367
11.191
11.1989
11.1934
11.1884
11.2349
11.3528
11.5026
11.6037
11.655
11.6478
11.5928
11.5375
11.5261
11.5612
11.6283
11.699
11.7523
11.7843
11.8007
11.8087
11.8022
11.7804
11.7502
11.734
11.7552
11.8122
11.8763
11.9212
11.9481
11.9531
11.9596
1
1
1
1
1
1
1
1
1
1
1
1
1
1
1
1
1
1
1
1
1
1
1
1
1
1
1
1
1
1
1
1
1
1
1
1
1
1
1
1
1
1
1
1
1
1
1
1
1
1
1
1
1
1
1
1
1
1
1
1
1.38192
7.86975
10.809
10.9314
11.0933
11.1532
11.1725
11.1722
11.1628
11.1944
11.2988
11.4463
11.5548
11.6103
11.6089
11.5562
11.4899
11.4685
11.4973
11.559
11.6284
11.6782
11.7052
11.725
11.7462
11.7569
11.7455
11.7126
11.6825
11.6847
11.7278
11.787
11.8327
11.8607
11.8655
11.8705
1
1
1
1
1
1
1
1
1
1
1
1
1
1
1
1
1
1
1
1
1
1
1
1
1
1
1
1
1
1
1
1
1
1
1
1
1
1
1
1
1
1
1
1
1
1
1
1
1
1
1
1
1
1
1
1
1
1
1
1
1.0211
6.68357
10.7178
10.939
11.0544
11.126
11.1507
11.1549
11.138
11.1598
11.2465
11.3885
11.5023
11.5613
11.5677
11.5198
11.444
11.4115
11.4317
11.4848
11.5501
11.5981
11.6231
11.6499
11.6833
11.7067
11.702
11.6655
11.6218
11.6048
11.6323
11.6857
11.7329
11.763
11.7676
11.7717
1
1
1
1
1
1
1
1
1
1
1
1
1
1
1
1
1
1
1
1
1
1
1
1
1
1
1
1
1
1
1
1
1
1
1
1
1
1
1
1
1
1
1
1
1
1
1
1
1
1
1
1
1
1
1
1
1
1
1
1
1.00017
5.2452
10.4794
10.9235
11.0029
11.113
11.1479
11.1444
11.1179
11.1241
11.1869
11.3232
11.4453
11.5123
11.527
11.4814
11.4007
11.3563
11.3644
11.4047
11.4623
11.5113
11.5397
11.5768
11.6197
11.6499
11.6481
11.6074
11.5517
11.5169
11.528
11.5738
11.6208
11.6516
11.6547
11.6572
1
1
1
1
1
1
1
1
1
1
1
1
1
1
1
1
1
1
1
1
1
1
1
1
1
1
1
1
1
1
1
1
1
1
1
1
1
1
1
1
1
1
1
1
1
1
1
1
1
1
1
1
1
1
1
1
1
1
1
1
1
3.84119
10.0734
10.9348
10.9755
11.1158
11.1597
11.1437
11.0913
11.0745
11.1164
11.2477
11.3824
11.4614
11.4824
11.4399
11.3589
11.302
11.2929
11.3182
11.3681
11.4213
11.4583
11.5055
11.553
11.5844
11.5817
11.5362
11.4694
11.4176
11.4111
11.4464
11.4919
11.5235
11.5258
11.5284
1
1
1
1
1
1
1
1
1
1
1
1
1
1
1
1
1
1
1
1
1
1
1
1
1
1
1
1
1
1
1
1
1
1
1
1
1
1
1
1
1
1
1
1
1
1
1
1
1
1
1
1
1
1
1
1
1
1
1
1
1
2.61432
9.47938
10.9605
10.9726
11.0848
11.1294
11.1094
11.0558
11.0242
11.0498
11.1708
11.31
11.3993
11.43
11.3952
11.3147
11.2445
11.2167
11.2276
11.2716
11.3309
11.3794
11.4324
11.4786
11.5071
11.5012
11.4513
11.3759
11.3101
11.2864
11.3082
11.3472
11.3739
11.3717
11.3717
1
1
1
1
1
1
1
1
1
1
1
1
1
1
1
1
1
1
1
1
1
1
1
1
1
1
1
1
1
1
1
1
1
1
1
1
1
1
1
1
1
1
1
1
1
1
1
1
1
1
1
1
1
1
1
1
1
1
1
1
1
1.68085
8.50844
10.9572
10.9153
11.0152
11.0736
11.0789
11.0265
10.9868
10.9898
11.0869
11.2223
11.3234
11.3683
11.3428
11.2629
11.1832
11.1376
11.1377
11.178
11.243
11.3003
11.354
11.394
11.4159
11.4056
11.3522
11.27
11.1905
11.1462
11.1477
11.1744
11.1955
11.1904
11.1923
1
1
1
1
1
1
1
1
1
1
1
1
1
1
1
1
1
1
1
1
1
1
1
1
1
1
1
1
1
1
1
1
1
1
1
1
1
1
1
1
1
1
1
1
1
1
1
1
1
1
1
1
1
1
1
1
1
1
1
1
1
1.0838
7.23282
10.7687
10.835
10.9626
11.012
11.0285
10.9872
10.9456
10.9283
11.0012
11.133
11.2401
11.2922
11.2772
11.2043
11.1217
11.0607
11.0533
11.0902
11.1572
11.2172
11.2668
11.297
11.3096
11.2939
11.2379
11.1503
11.0587
10.9943
10.9733
10.9817
10.9867
10.9684
10.9595
1
1
1
1
1
1
1
1
1
1
1
1
1
1
1
1
1
1
1
1
1
1
1
1
1
1
1
1
1
1
1
1
1
1
1
1
1
1
1
1
1
1
1
1
1
1
1
1
1
1
1
1
1
1
1
1
1
1
1
1
1
1.00086
5.63223
10.4625
10.762
10.8872
10.954
10.9679
10.937
10.8864
10.8823
10.9389
11.0445
11.142
11.1998
11.2009
11.1448
11.0646
10.9908
10.9772
11.0089
11.069
11.1256
11.1678
11.1864
11.1881
11.1668
11.1092
11.0171
10.9118
10.8206
10.7637
10.7383
10.7217
10.6908
10.6864
1
1
1
1
1
1
1
1
1
1
1
1
1
1
1
1
1
1
1
1
1
1
1
1
1
1
1
1
1
1
1
1
1
1
1
1
1
1
1
1
1
1
1
1
1
1
1
1
1
1
1
1
1
1
1
1
1
1
1
1
1
1
4.01723
10.0223
10.6867
10.8001
10.8916
10.9069
10.8896
10.8458
10.8289
10.8538
10.9397
11.0419
11.1039
11.1218
11.086
11.0111
10.9321
10.9083
10.9298
10.9743
11.022
11.0545
11.0622
11.053
11.0261
10.9667
10.8683
10.7455
10.6239
10.5304
10.4698
10.4211
10.3497
10.2845
1
1
1
1
1
1
1
1
1
1
1
1
1
1
1
1
1
1
1
1
1
1
1
1
1
1
1
1
1
1
1
1
1
1
1
1
1
1
1
1
1
1
1
1
1
1
1
1
1
1
1
1
1
1
1
1
1
1
1
1
1
1
2.53541
9.3591
10.6649
10.7415
10.859
10.8958
10.8609
10.7924
10.7587
10.7702
10.839
10.9435
11.0156
11.0464
11.0304
10.9613
10.8833
10.8453
10.847
10.8726
10.9054
10.9282
10.9262
10.9064
10.8728
10.81
10.7041
10.5616
10.4041
10.2574
10.125
9.98698
9.84267
9.73464
1
1
1
1
1
1
1
1
1
1
1
1
1
1
1
1
1
1
1
1
1
1
1
1
1
1
1
1
1
1
1
1
1
1
1
1
1
1
1
1
1
1
1
1
1
1
1
1
1
1
1
1
1
1
1
1
1
1
1
1
1
1
1.4999
8.20648
10.7052
10.6468
10.7399
10.7989
10.7913
10.7315
10.6946
10.6948
10.7512
10.854
10.9378
10.9762
10.9743
10.9182
10.838
10.78
10.7558
10.7612
10.7785
10.7915
10.7819
10.7514
10.7078
10.6377
10.5211
10.3544
10.1535
9.94379
9.74106
9.50944
9.2505
9.10297
1
1
1
1
1
1
1
1
1
1
1
1
1
1
1
1
1
1
1
1
1
1
1
1
1
1
1
1
1
1
1
1
1
1
1
1
1
1
1
1
1
1
1
1
1
1
1
1
1
1
1
1
1
1
1
1
1
1
1
1
1
1
1.02562
6.59636
10.3926
10.5506
10.6961
10.7736
10.7668
10.7001
10.6445
10.6289
10.6645
10.7557
10.8526
10.9095
10.9249
10.877
10.7872
10.7052
10.6535
10.6394
10.6441
10.6504
10.6354
10.5929
10.533
10.4486
10.3184
10.1289
9.88868
9.61326
9.2908
8.85488
7.96508
6.00268
1
1
1
1
1
1
1
1
1
1
1
1
1
1
1
1
1
1
1
1
1
1
1
1
1
1
1
1
1
1
1
1
1
1
1
1
1
1
1
1
1
1
1
1
1
1
1
1
1
1
1
1
1
1
1
1
1
1
1
1
1
1
1.00016
4.81592
10.023
10.4734
10.6036
10.7052
10.7256
10.6765
10.6065
10.5724
10.5852
10.6617
10.768
10.8384
10.8612
10.8217
10.7308
10.6308
10.5523
10.5127
10.5049
10.506
10.4865
10.4316
10.3509
10.2448
10.096
9.8836
9.59978
9.25032
8.77222
8.13158
7.08265
4.91272
1
1
1
1
1
1
1
1
1
1
1
1
1
1
1
1
1
1
1
1
1
1
1
1
1
1
1
1
1
1
1
1
1
1
1
1
1
1
1
1
1
1
1
1
1
1
1
1
1
1
1
1
1
1
1
1
1
1
1
1
1
1
1
3.06354
9.49394
10.4217
10.4934
10.6173
10.673
10.6587
10.5874
10.537
10.5281
10.5763
10.674
10.75
10.7861
10.7608
10.6712
10.5567
10.4526
10.3858
10.3624
10.3564
10.3332
10.2675
10.165
10.0329
9.85962
9.62531
9.30371
8.89587
8.33688
7.59591
6.33302
4.55106
1
1
1
1
1
1
1
1
1
1
1
1
1
1
1
1
1
1
1
1
1
1
1
1
1
1
1
1
1
1
1
1
1
1
1
1
1
1
1
1
1
1
1
1
1
1
1
1
1
1
1
1
1
1
1
1
1
1
1
1
1
1
1
1.63439
8.36594
10.5144
10.4801
10.5593
10.626
10.6047
10.5361
10.4861
10.4772
10.5098
10.5909
10.6623
10.7029
10.6852
10.5967
10.4737
10.3511
10.2648
10.2233
10.2073
10.1764
10.1007
9.97853
9.82064
9.61886
9.36232
9.02186
8.56604
7.98725
7.12028
5.94087
4.47094
1
1
1
1
1
1
1
1
1
1
1
1
1
1
1
1
1
1
1
1
1
1
1
1
1
1
1
1
1
1
1
1
1
1
1
1
1
1
1
1
1
1
1
1
1
1
1
1
1
1
1
1
1
1
1
1
1
1
1
1
1
1
1
1.03642
6.66504
10.1896
10.3609
10.5037
10.5842
10.5768
10.5171
10.4492
10.4201
10.437
10.4972
10.5664
10.6101
10.5986
10.5096
10.3823
10.2518
10.1551
10.0964
10.0617
10.0169
9.93222
9.79418
9.61274
9.38476
9.10731
8.75636
8.2898
7.67097
6.8169
5.7614
4.53413
1
1
1
1
1
1
1
1
1
1
1
1
1
1
1
1
1
1
1
1
1
1
1
1
1
1
1
1
1
1
1
1
1
1
1
1
1
1
1
1
1
1
1
1
1
1
1
1
1
1
1
1
1
1
1
1
1
1
1
1
1
1
1
1.00021
4.5325
9.78856
10.3073
10.41
10.5042
10.5314
10.4915
10.4091
10.3519
10.3508
10.3911
10.4553
10.5053
10.5046
10.4228
10.2977
10.1648
10.0557
9.97669
9.91963
9.85568
9.76041
9.61011
9.41203
9.16554
8.8719
8.50998
8.04387
7.42351
6.63619
5.70653
4.65781
1
1
1
1
1
1
1
1
1
1
1
1
1
1
1
1
1
1
1
1
1
1
1
1
1
1
1
1
1
1
1
1
1
1
1
1
1
1
1
1
1
1
1
1
1
1
1
1
1
1
1
1
1
1
1
1
1
1
1
1
1
1
1
1
2.48849
9.14375
10.3319
10.3373
10.4196
10.4765
10.4663
10.3764
10.2876
10.2565
10.2781
10.335
10.3925
10.4056
10.3412
10.2245
10.09
9.9659
9.86161
9.77836
9.69164
9.58253
9.42467
9.21908
8.96364
8.65955
8.29184
7.83137
7.23162
6.52169
5.6969
4.79764
1
1
1
1
1
1
1
1
1
1
1
1
1
1
1
1
1
1
1
1
1
1
1
1
1
1
1
1
1
1
1
1
1
1
1
1
1
1
1
1
1
1
1
1
1
1
1
1
1
1
1
1
1
1
1
1
1
1
1
1
1
1
1
1
1.2105
7.63362
10.2709
10.2334
10.3393
10.4168
10.4308
10.3506
10.2509
10.1833
10.1838
10.222
10.2742
10.2941
10.2533
10.1537
10.0224
9.88648
9.75731
9.64257
9.52819
9.40245
9.24233
9.03623
8.77929
8.4703
8.10253
7.65059
7.08647
6.45441
5.72071
4.94556
1
1
1
1
1
1
1
1
1
1
1
1
1
1
1
1
1
1
1
1
1
1
1
1
1
1
1
1
1
1
1
1
1
1
1
1
1
1
1
1
1
1
1
1
1
1
1
1
1
1
1
1
1
1
1
1
1
1
1
1
1
1
1
1
1.00361
5.33379
9.82937
10.1624
10.26
10.3521
10.3901
10.3199
10.2206
10.1214
10.0992
10.1137
10.1505
10.1725
10.1536
10.0738
9.95346
9.81221
9.66389
9.51496
9.37097
9.22831
9.06683
8.86367
8.61012
8.30426
7.94174
7.50069
6.98343
6.4099
5.7495
5.07536
1
1
1
1
1
1
1
1
1
1
1
1
1
1
1
1
1
1
1
1
1
1
1
1
1
1
1
1
1
1
1
1
1
1
1
1
1
1
1
1
1
1
1
1
1
1
1
1
1
1
1
1
1
1
1
1
1
1
1
1
1
1
1
1
1
2.97121
9.25325
10.1917
10.1841
10.2539
10.3128
10.2783
10.1918
10.0776
10.027
10.0133
10.0313
10.0507
10.0432
9.98091
9.87687
9.73647
9.57263
9.39599
9.2253
9.06545
8.90034
8.70308
8.45775
8.16361
7.8081
7.3793
6.90127
6.36917
5.78189
5.19133
1
1
1
1
1
1
1
1
1
1
1
1
1
1
1
1
1
1
1
1
1
1
1
1
1
1
1
1
1
1
1
1
1
1
1
1
1
1
1
1
1
1
1
1
1
1
1
1
1
1
1
1
1
1
1
1
1
1
1
1
1
1
1
1
1
1.34032
7.85425
10.209
10.1204
10.1924
10.2477
10.2289
10.1516
10.0409
9.96141
9.92996
9.92925
9.93989
9.93307
9.88447
9.79274
9.65538
9.47727
9.2859
9.09488
8.91684
8.74371
8.5518
8.31844
8.04541
7.69189
7.27856
6.83157
6.33198
5.81094
5.27512
1
1
1
1
1
1
1
1
1
1
1
1
1
1
1
1
1
1
1
1
1
1
1
1
1
1
1
1
1
1
1
1
1
1
1
1
1
1
1
1
1
1
1
1
1
1
1
1
1
1
1
1
1
1
1
1
1
1
1
1
1
1
1
1
1
1.00898
5.50013
9.71935
10.0245
10.1178
10.1833
10.181
10.1133
10.0117
9.90032
9.85211
9.8291
9.8298
9.82271
9.78761
9.70612
9.57225
9.38713
9.18738
8.98206
8.78646
8.59996
8.40688
8.18556
7.93682
7.58896
7.19968
6.7766
6.30557
5.83661
5.34239
1
1
1
1
1
1
1
1
1
1
1
1
1
1
1
1
1
1
1
1
1
1
1
1
1
1
1
1
1
1
1
1
1
1
1
1
1
1
1
1
1
1
1
1
1
1
1
1
1
1
1
1
1
1
1
1
1
1
1
1
1
1
1
1
1
1.00001
2.91115
9.15476
10.0492
10.0159
10.0496
10.0781
10.0512
9.97395
9.85579
9.78234
9.73405
9.71646
9.7037
9.67994
9.61244
9.48946
9.31224
9.10751
8.89566
8.6828
8.47597
8.2703
8.05463
7.81962
7.49699
7.13985
6.73584
6.29843
5.86328
5.40167
1
1
1
1
1
1
1
1
1
1
1
1
1
1
1
1
1
1
1
1
1
1
1
1
1
1
1
1
1
1
1
1
1
1
1
1
1
1
1
1
1
1
1
1
1
1
1
1
1
1
1
1
1
1
1
1
1
1
1
1
1
1
1
1
1
1
1.24691
7.64498
10.0232
9.91795
9.93787
9.98883
9.99964
9.94083
9.82933
9.72275
9.64896
9.60348
9.57252
9.5531
9.50063
9.3943
9.23377
9.03775
8.83028
8.60785
8.37737
8.14778
7.924
7.69041
7.40508
7.08045
6.70468
6.31187
5.90132
5.47405
1
1
1
1
1
1
1
1
1
1
1
1
1
1
1
1
1
1
1
1
1
1
1
1
1
1
1
1
1
1
1
1
1
1
1
1
1
1
1
1
1
1
1
1
1
1
1
1
1
1
1
1
1
1
1
1
1
1
1
1
1
1
1
1
1
1
1.00476
5.06344
9.49107
9.79339
9.852
9.92346
9.95502
9.90489
9.80045
9.67501
9.5691
9.49155
9.44393
9.4142
9.37004
9.27908
9.13629
8.96092
8.77026
8.55507
8.30876
8.05562
7.81297
7.57033
7.31232
7.01267
6.6751
6.32397
5.94131
5.55071
1
1
1
1
1
1
1
1
1
1
1
1
1
1
1
1
1
1
1
1
1
1
1
1
1
1
1
1
1
1
1
1
1
1
1
1
1
1
1
1
1
1
1
1
1
1
1
1
1
1
1
1
1
1
1
1
1
1
1
1
1
1
1
1
1
1
0.999998
2.41777
8.79917
9.81805
9.7495
9.78648
9.83816
9.83763
9.76005
9.6367
9.50666
9.39737
9.34093
9.29933
9.24582
9.15832
9.02282
8.86289
8.69441
8.49846
8.2574
7.99631
7.73141
7.47458
7.22128
6.94082
6.64239
6.3255
5.97919
5.62361
1
1
1
1
1
1
1
1
1
1
1
1
1
1
1
1
1
1
1
1
1
1
1
1
1
1
1
1
1
1
1
1
1
1
1
1
1
1
1
1
1
1
1
1
1
1
1
1
1
1
1
1
1
1
1
1
1
1
1
1
1
1
1
1
1
1
1
1.13206
6.94706
9.67379
9.62349
9.64995
9.7168
9.75278
9.69582
9.5808
9.4538
9.33172
9.25047
9.20114
9.13861
9.04597
8.91301
8.75762
8.60344
8.42288
8.20076
7.95352
7.68394
7.41935
7.15614
6.8896
6.61507
6.31954
6.0076
5.68202
1
1
1
1
1
1
1
1
1
1
1
1
1
1
1
1
1
1
1
1
1
1
1
1
1
1
1
1
1
1
1
1
1
1
1
1
1
1
1
1
1
1
1
1
1
1
1
1
1
1
1
1
1
1
1
1
1
1
1
1
1
1
1
1
1
1
1
1.00143
4.04787
9.20883
9.60612
9.59151
9.62841
9.65779
9.61129
9.50112
9.37821
9.26023
9.16441
9.10645
9.04007
8.95381
8.82994
8.67639
8.51351
8.33974
8.13329
7.90505
7.65045
7.39409
7.12867
6.86258
6.58961
6.30482
6.0146
5.71555
1
1
1
1
1
1
1
1
1
1
1
1
1
1
1
1
1
1
1
1
1
1
1
1
1
1
1
1
1
1
1
1
1
1
1
1
1
1
1
1
1
1
1
1
1
1
1
1
1
1
1
1
1
1
1
1
1
1
1
1
1
1
1
1
1
1
1
1
1.62312
8.0185
9.65936
9.56137
9.56298
9.58047
9.55695
9.45746
9.32926
9.20077
9.08916
9.00481
8.9358
8.85509
8.75043
8.61026
8.43753
8.26691
8.06608
7.84938
7.61568
7.37884
7.12461
6.85893
6.58064
6.29727
6.0152
5.73143
1
1
1
1
1
1
1
1
1
1
1
1
1
1
1
1
1
1
1
1
1
1
1
1
1
1
1
1
1
1
1
1
1
1
1
1
1
1
1
1
1
1
1
1
1
1
1
1
1
1
1
1
1
1
1
1
1
1
1
1
1
1
1
1
1
1
1
1
1.02696
5.50807
9.23805
9.39812
9.42758
9.48387
9.5087
9.43165
9.30837
9.16998
9.03463
8.91958
8.81946
8.74477
8.65831
8.54536
8.3859
8.21386
8.01753
7.80451
7.58447
7.35968
7.11791
6.85771
6.58463
6.30661
6.02796
5.75094
1
1
1
1
1
1
1
1
1
1
1
1
1
1
1
1
1
1
1
1
1
1
1
1
1
1
1
1
1
1
1
1
1
1
1
1
1
1
1
1
1
1
1
1
1
1
1
1
1
1
1
1
1
1
1
1
1
1
1
1
1
1
1
1
1
1
1
1
1.00006
2.50661
8.60726
9.4651
9.35754
9.3632
9.40034
9.39791
9.31088
9.1785
9.01896
8.86793
8.74276
8.63492
8.55143
8.4575
8.32796
8.16489
7.98298
7.77547
7.56095
7.33969
7.10447
6.85716
6.60078
6.33417
6.06055
5.78595
1
1
1
1
1
1
1
1
1
1
1
1
1
1
1
1
1
1
1
1
1
1
1
1
1
1
1
1
1
1
1
1
1
1
1
1
1
1
1
1
1
1
1
1
1
1
1
1
1
1
1
1
1
1
1
1
1
1
1
1
1
1
1
1
1
1
1
1
1
1.13945
6.56987
9.24304
9.25414
9.23638
9.27481
9.32017
9.27793
9.16898
9.01597
8.84726
8.69538
8.56056
8.44557
8.35069
8.24656
8.11394
7.9554
7.75957
7.54601
7.31987
7.08333
6.84765
6.61214
6.36456
6.10296
5.83439
1
1
1
1
1
1
1
1
1
1
1
1
1
1
1
1
1
1
1
1
1
1
1
1
1
1
1
1
1
1
1
1
1
1
1
1
1
1
1
1
1
1
1
1
1
1
1
1
1
1
1
1
1
1
1
1
1
1
1
1
1
1
1
1
1
1
1
1
1
1.00151
3.34527
8.80339
9.29798
9.18148
9.17085
9.19119
9.1909
9.12461
9.00894
8.85116
8.68443
8.5216
8.37616
8.25038
8.14737
8.0389
7.90641
7.73392
7.52774
7.29904
7.06151
6.83471
6.61599
6.38913
6.14488
5.88852
1
1
1
1
1
1
1
1
1
1
1
1
1
1
1
1
1
1
1
1
1
1
1
1
1
1
1
1
1
1
1
1
1
1
1
1
1
1
1
1
1
1
1
1
1
1
1
1
1
1
1
1
1
1
1
1
1
1
1
1
1
1
1
1
1
1
1
1
1
1
1.29932
7.14329
9.23448
9.12676
9.0713
9.06101
9.08195
9.06353
8.98026
8.84547
8.68206
8.50794
8.33483
8.17838
8.05425
7.94776
7.83869
7.6943
7.50427
7.27961
7.04332
6.82174
6.61296
6.40232
6.17695
5.93731
1
1
1
1
1
1
1
1
1
1
1
1
1
1
1
1
1
1
1
1
1
1
1
1
1
1
1
1
1
1
1
1
1
1
1
1
1
1
1
1
1
1
1
1
1
1
1
1
1
1
1
1
1
1
1
1
1
1
1
1
1
1
1
1
1
1
1
1
1
1
1.0064
3.92591
8.79209
9.15731
9.03931
8.98861
8.97534
8.96983
8.91844
8.81799
8.67727
8.50579
8.32095
8.14407
7.99402
7.86936
7.75742
7.62887
7.45801
7.24961
7.0276
6.81483
6.61253
6.41054
6.19844
5.97192
1
1
1
1
1
1
1
1
1
1
1
1
1
1
1
1
1
1
1
1
1
1
1
1
1
1
1
1
1
1
1
1
1
1
1
1
1
1
1
1
1
1
1
1
1
1
1
1
1
1
1
1
1
1
1
1
1
1
1
1
1
1
1
1
1
1
1
1
1
1
1.00001
1.44598
7.3711
9.14931
9.01362
8.91573
8.86718
8.86708
8.84463
8.77377
8.6552
8.50014
8.3193
8.13321
7.96338
7.81469
7.68226
7.55388
7.3995
7.21355
7.01456
6.81545
6.61852
6.41922
6.21181
5.99276
1
1
1
1
1
1
1
1
1
1
1
1
1
1
1
1
1
1
1
1
1
1
1
1
1
1
1
1
1
1
1
1
1
1
1
1
1
1
1
1
1
1
1
1
1
1
1
1
1
1
1
1
1
1
1
1
1
1
1
1
1
1
1
1
1
1
1
1
1
1
1
1.0136
4.17189
8.67972
9.03411
8.90834
8.82555
8.77727
8.75572
8.7076
8.61893
8.48907
8.32333
8.13702
7.95622
7.78904
7.63374
7.4873
7.33549
7.16967
6.99683
6.81706
6.62886
6.43218
6.22465
6.00834
1
1
1
1
1
1
1
1
1
1
1
1
1
1
1
1
1
1
1
1
1
1
1
1
1
1
1
1
1
1
1
1
1
1
1
1
1
1
1
1
1
1
1
1
1
1
1
1
1
1
1
1
1
1
1
1
1
1
1
1
1
1
1
1
1
1
1
1
1
1
1
1.00003
1.5175
7.34439
9.01471
8.89689
8.7795
8.69188
8.64937
8.62807
8.56598
8.45714
8.31334
8.14203
7.95963
7.77851
7.60339
7.43821
7.28099
7.12908
6.97736
6.81313
6.63247
6.43759
6.23228
6.02284
1
1
1
1
1
1
1
1
1
1
1
1
1
1
1
1
1
1
1
1
1
1
1
1
1
1
1
1
1
1
1
1
1
1
1
1
1
1
1
1
1
1
1
1
1
1
1
1
1
1
1
1
1
1
1
1
1
1
1
1
1
1
1
1
1
1
1
1
1
1
1
1
1.01752
4.08567
8.53868
8.91054
8.77269
8.66609
8.59438
8.54087
8.48889
8.40445
8.28957
8.14324
7.96804
7.77962
7.59127
7.41366
7.25019
7.09987
6.95409
6.79788
6.62414
6.43366
6.23482
6.03655
1
1
1
1
1
1
1
1
1
1
1
1
1
1
1
1
1
1
1
1
1
1
1
1
1
1
1
1
1
1
1
1
1
1
1
1
1
1
1
1
1
1
1
1
1
1
1
1
1
1
1
1
1
1
1
1
1
1
1
1
1
1
1
1
1
1
1
1
1
1
1
1
1.00005
1.48728
7.08388
8.8505
8.74905
8.63367
8.53
8.44727
8.3943
8.3335
8.24384
8.12131
7.96812
7.78808
7.59576
7.40821
7.23671
7.08139
6.93265
6.77732
6.60654
6.4203
6.22914
6.04338
1
1
1
1
1
1
1
1
1
1
1
1
1
1
1
1
1
1
1
1
1
1
1
1
1
1
1
1
1
1
1
1
1
1
1
1
1
1
1
1
1
1
1
1
1
1
1
1
1
1
1
1
1
1
1
1
1
1
1
1
1
1
1
1
1
1
1
1
1
1
1
1
1
1.01509
3.67859
8.36951
8.77411
8.64222
8.52631
8.42078
8.33196
8.25684
8.17795
8.08183
7.95533
7.79375
7.60801
7.41958
7.2427
7.07943
6.92159
6.75958
6.58676
6.40373
6.22091
6.04619
1
1
1
1
1
1
1
1
1
1
1
1
1
1
1
1
1
1
1
1
1
1
1
1
1
1
1
1
1
1
1
1
1
1
1
1
1
1
1
1
1
1
1
1
1
1
1
1
1
1
1
1
1
1
1
1
1
1
1
1
1
1
1
1
1
1
1
1
1
1
1
1
1
1.00004
1.36939
6.5998
8.65587
8.59177
8.48919
8.37312
8.2592
8.17685
8.10439
8.02218
7.91534
7.77984
7.61848
7.44187
7.26181
7.08649
6.91677
6.74779
6.57414
6.39554
6.21924
6.04987
1
1
1
1
1
1
1
1
1
1
1
1
1
1
1
1
1
1
1
1
1
1
1
1
1
1
1
1
1
1
1
1
1
1
1
1
1
1
1
1
1
1
1
1
1
1
1
1
1
1
1
1
1
1
1
1
1
1
1
1
1
1
1
1
1
1
1
1
1
1
1
1
1
1
1.00877
3.03144
8.07384
8.66924
8.52986
8.39282
8.2585
8.1413
8.04054
7.94868
7.856
7.74616
7.6114
7.45301
7.27942
7.10146
6.92529
6.7498
6.57268
6.39539
6.22255
6.0557
1
1
1
1
1
1
1
1
1
1
1
1
1
1
1
1
1
1
1
1
1
1
1
1
1
1
1
1
1
1
1
1
1
1
1
1
1
1
1
1
1
1
1
1
1
1
1
1
1
1
1
1
1
1
1
1
1
1
1
1
1
1
1
1
1
1
1
1
1
1
1
1
1
1
1.00002
1.21898
5.86553
8.4002
8.43163
8.35153
8.22476
8.09139
7.98239
7.8898
7.79954
7.70049
7.58381
7.44616
7.28924
7.1178
6.939
6.75953
6.5816
6.40752
6.23801
6.07158
1
1
1
1
1
1
1
1
1
1
1
1
1
1
1
1
1
1
1
1
1
1
1
1
1
1
1
1
1
1
1
1
1
1
1
1
1
1
1
1
1
1
1
1
1
1
1
1
1
1
1
1
1
1
1
1
1
1
1
1
1
1
1
1
1
1
1
1
1
1
1
1
1
1
1
1.00333
2.36323
7.55586
8.52101
8.38671
8.24259
8.09051
7.95852
7.84283
7.73721
7.63835
7.53474
7.41353
7.27455
7.11982
6.95247
6.77911
6.60358
6.43019
6.26006
6.09144
1
1
1
1
1
1
1
1
1
1
1
1
1
1
1
1
1
1
1
1
1
1
1
1
1
1
1
1
1
1
1
1
1
1
1
1
1
1
1
1
1
1
1
1
1
1
1
1
1
1
1
1
1
1
1
1
1
1
1
1
1
1
1
1
1
1
1
1
1
1
1
1
1
1
1
1.00001
1.10612
4.76187
8.0811
8.27576
8.1868
8.07683
7.94872
7.82763
7.71323
7.60086
7.48903
7.3715
7.24478
7.10778
6.95757
6.79545
6.62631
6.45727
6.28998
6.12131
1
1
1
1
1
1
1
1
1
1
1
1
1
1
1
1
1
1
1
1
1
1
1
1
1
1
1
1
1
1
1
1
1
1
1
1
1
1
1
1
1
1
1
1
1
1
1
1
1
1
1
1
1
1
1
1
1
1
1
1
1
1
1
1
1
1
1
1
1
1
1
1
1
1
1
1
1.00108
1.77388
6.75838
8.31524
8.21485
8.10516
7.97633
7.82971
7.68141
7.55037
7.4323
7.32201
7.21027
7.08854
6.95358
6.80616
6.64941
6.487
6.32115
6.15123
1
1
1
1
1
1
1
1
1
1
1
1
1
1
1
1
1
1
1
1
1
1
1
1
1
1
1
1
1
1
1
1
1
1
1
1
1
1
1
1
1
1
1
1
1
1
1
1
1
1
1
1
1
1
1
1
1
1
1
1
1
1
1
1
1
1
1
1
1
1
1
1
1
1
1
1
1
1.03521
3.37006
7.74921
8.22284
8.11851
8.01021
7.86778
7.70415
7.55352
7.41869
7.29236
7.16958
7.04918
6.92807
6.79736
6.65652
6.50723
6.3501
6.18515
1
1
1
1
1
1
1
1
1
1
1
1
1
1
1
1
1
1
1
1
1
1
1
1
1
1
1
1
1
1
1
1
1
1
1
1
1
1
1
1
1
1
1
1
1
1
1
1
1
1
1
1
1
1
1
1
1
1
1
1
1
1
1
1
1
1
1
1
1
1
1
1
1
1
1
1
1
1.00021
1.30677
5.60986
8.01415
8.04887
7.96165
7.85497
7.71276
7.55758
7.41222
7.27884
7.14908
7.02324
6.90356
6.77997
6.65079
6.5151
6.37102
6.21609
1
1
1
1
1
1
1
1
1
1
1
1
1
1
1
1
1
1
1
1
1
1
1
1
1
1
1
1
1
1
1
1
1
1
1
1
1
1
1
1
1
1
1
1
1
1
1
1
1
1
1
1
1
1
1
1
1
1
1
1
1
1
1
1
1
1
1
1
1
1
1
1
1
1
1
1
1
1
1.00665
2.28779
6.99932
8.11574
7.9773
7.86543
7.74346
7.59737
7.4384
7.28274
7.13261
6.99322
6.86983
6.75363
6.63674
6.51299
6.38019
6.23852
1
1
1
1
1
1
1
1
1
1
1
1
1
1
1
1
1
1
1
1
1
1
1
1
1
1
1
1
1
1
1
1
1
1
1
1
1
1
1
1
1
1
1
1
1
1
1
1
1
1
1
1
1
1
1
1
1
1
1
1
1
1
1
1
1
1
1
1
1
1
1
1
1
1
1
1
1
1
1.00002
1.09434
3.92125
7.58917
7.94611
7.82236
7.73468
7.62874
7.48499
7.3229
7.16166
7.00669
6.86687
6.74452
6.62839
6.50694
6.37835
6.2468
1
1
1
1
1
1
1
1
1
1
1
1
1
1
1
1
1
1
1
1
1
1
1
1
1
1
1
1
1
1
1
1
1
1
1
1
1
1
1
1
1
1
1
1
1
1
1
1
1
1
1
1
1
1
1
1
1
1
1
1
1
1
1
1
1
1
1
1
1
1
1
1
1
1
1
1
1
1
1
1.00102
1.4762
5.6967
7.80156
7.7828
7.69005
7.59447
7.47065
7.32576
7.172
7.01747
6.87655
6.75177
6.63159
6.50783
6.38161
6.25623
1
1
1
1
1
1
1
1
1
1
1
1
1
1
1
1
1
1
1
1
1
1
1
1
1
1
1
1
1
1
1
1
1
1
1
1
1
1
1
1
1
1
1
1
1
1
1
1
1
1
1
1
1
1
1
1
1
1
1
1
1
1
1
1
1
1
1
1
1
1
1
1
1
1
1
1
1
1
1
1
1.01484
2.42507
6.82736
7.83754
7.70683
7.59878
7.48049
7.35334
7.20721
7.05722
6.91155
6.77164
6.63641
6.50562
6.37878
6.25579
1
1
1
1
1
1
1
1
1
1
1
1
1
1
1
1
1
1
1
1
1
1
1
1
1
1
1
1
1
1
1
1
1
1
1
1
1
1
1
1
1
1
1
1
1
1
1
1
1
1
1
1
1
1
1
1
1
1
1
1
1
1
1
1
1
1
1
1
1
1
1
1
1
1
1
1
1
1
1
1
1.00007
1.11509
3.83445
7.35535
7.66464
7.54923
7.47644
7.38024
7.26161
7.13226
6.99079
6.83496
6.67829
6.52972
6.39237
6.26367
1
1
1
1
1
1
1
1
1
1
1
1
1
1
1
1
1
1
1
1
1
1
1
1
1
1
1
1
1
1
1
1
1
1
1
1
1
1
1
1
1
1
1
1
1
1
1
1
1
1
1
1
1
1
1
1
1
1
1
1
1
1
1
1
1
1
1
1
1
1
1
1
1
1
1
1
1
1
1
1
1
1.00147
1.45733
5.30629
7.48001
7.51304
7.42126
7.3368
7.24637
7.14603
7.02643
6.88558
6.73173
6.57836
6.43488
6.29721
1
1
1
1
1
1
1
1
1
1
1
1
1
1
1
1
1
1
1
1
1
1
1
1
1
1
1
1
1
1
1
1
1
1
1
1
1
1
1
1
1
1
1
1
1
1
1
1
1
1
1
1
1
1
1
1
1
1
1
1
1
1
1
1
1
1
1
1
1
1
1
1
1
1
1
1
1
1
1
1
1
1
1.01417
2.18975
6.3236
7.55929
7.44746
7.33553
7.23426
7.13194
7.01929
6.89396
6.7558
6.61254
6.47058
6.32768
1
1
1
1
1
1
1
1
1
1
1
1
1
1
1
1
1
1
1
1
1
1
1
1
1
1
1
1
1
1
1
1
1
1
1
1
1
1
1
1
1
1
1
1
1
1
1
1
1
1
1
1
1
1
1
1
1
1
1
1
1
1
1
1
1
1
1
1
1
1
1
1
1
1
1
1
1
1
1
1
1
1
1.00007
1.08216
3.25836
6.92273
7.48198
7.34766
7.24504
7.13803
7.02759
6.9084
6.78205
6.65091
6.51043
6.36124
1
1
1
1
1
1
1
1
1
1
1
1
1
1
1
1
1
1
1
1
1
1
1
1
1
1
1
1
1
1
1
1
1
1
1
1
1
1
1
1
1
1
1
1
1
1
1
1
1
1
1
1
1
1
1
1
1
1
1
1
1
1
1
1
1
1
1
1
1
1
1
1
1
1
1
1
1
1
1
1
1
1
1
1.00092
1.29322
4.42624
7.16183
7.36126
7.2085
7.10882
7.01026
6.905
6.79626
6.68013
6.55087
6.41053
1
1
1
1
1
1
1