/*--------------------------------*- C++ -*----------------------------------*\
  =========                 |
  \\      /  F ield         | OpenFOAM: The Open Source CFD Toolbox
   \\    /   O peration     | Website:  https://openfoam.org
    \\  /    A nd           | Version:  7
     \\/     M anipulation  |
\*---------------------------------------------------------------------------*/
FoamFile
{
    version     2.0;
    format      ascii;
    class       volScalarField;
    location    "0.6";
    object      rho;
}
// * * * * * * * * * * * * * * * * * * * * * * * * * * * * * * * * * * * * * //

dimensions      [1 -3 0 0 0 0 0];

internalField   nonuniform List<scalar> 
64512
(
1.40001
1.40001
1.40001
1.40001
1.40001
1.40001
1.40001
1.40001
1.40001
1.40001
1.40001
1.40001
1.40001
1.40001
1.40001
1.40001
1.40001
1.40001
1.40001
1.40001
1.40001
1.40001
1.40001
1.40001
1.40001
1.40001
1.40001
1.40001
1.40001
1.40001
1.40001
1.40001
1.40001
1.40001
1.40001
1.40001
1.40001
1.40001
1.40001
1.40001
1.40001
1.40001
1.40001
1.40001
1.40001
1.40001
1.40001
1.40001
1.40001
1.40001
1.40001
1.40001
1.40001
1.40001
1.40001
1.40001
1.40001
1.40001
1.40001
3.02158
5.36787
5.577
5.63495
5.66185
5.65253
5.62904
5.61441
5.6153
5.64038
5.68888
5.72671
5.7488
5.76359
5.77015
5.7706
5.77508
5.78669
5.80864
5.83765
5.86307
5.87725
5.87556
5.85429
5.81464
5.76192
5.70134
5.63673
5.56735
5.48477
5.38185
5.26347
5.14959
5.0625
5.01456
5.00035
5.00375
1.40001
1.40001
1.40001
1.40001
1.40001
1.40001
1.40001
1.40001
1.40001
1.40001
1.40001
1.40001
1.40001
1.40001
1.40001
1.40001
1.40001
1.40001
1.40001
1.40001
1.40001
1.40001
1.40001
1.40001
1.40001
1.40001
1.40001
1.40001
1.40001
1.40001
1.40001
1.40001
1.40001
1.40001
1.40001
1.40001
1.40001
1.40001
1.40001
1.40001
1.40001
1.40001
1.40001
1.40001
1.40001
1.40001
1.40001
1.40001
1.40001
1.40001
1.40001
1.40001
1.40001
1.40001
1.40001
1.40001
1.40001
1.40001
1.40001
3.00286
5.35246
5.58012
5.63338
5.66043
5.65113
5.62832
5.61286
5.61308
5.63812
5.68709
5.72581
5.74922
5.76495
5.77164
5.77158
5.77518
5.78582
5.80717
5.83589
5.86121
5.87532
5.87362
5.85252
5.81327
5.76085
5.7004
5.63553
5.56542
5.48201
5.3785
5.2603
5.14719
5.06092
5.01338
4.99926
5.00257
1.40001
1.40001
1.40001
1.40001
1.40001
1.40001
1.40001
1.40001
1.40001
1.40001
1.40001
1.40001
1.40001
1.40001
1.40001
1.40001
1.40001
1.40001
1.40001
1.40001
1.40001
1.40001
1.40001
1.40001
1.40001
1.40001
1.40001
1.40001
1.40001
1.40001
1.40001
1.40001
1.40001
1.40001
1.40001
1.40001
1.40001
1.40001
1.40001
1.40001
1.40001
1.40001
1.40001
1.40001
1.40001
1.40001
1.40001
1.40001
1.40001
1.40001
1.40001
1.40001
1.40001
1.40001
1.40001
1.40001
1.40001
1.40001
1.40001
2.9635
5.33915
5.57823
5.62888
5.65597
5.6476
5.62695
5.61023
5.60961
5.63446
5.68412
5.72437
5.74975
5.76691
5.77368
5.77271
5.77495
5.78414
5.80457
5.83298
5.85836
5.87249
5.87082
5.84989
5.81099
5.75886
5.69812
5.63225
5.56033
5.47491
5.37006
5.25216
5.14089
5.05685
5.01079
4.9972
5.00041
1.40001
1.40001
1.40001
1.40001
1.40001
1.40001
1.40001
1.40001
1.40001
1.40001
1.40001
1.40001
1.40001
1.40001
1.40001
1.40001
1.40001
1.40001
1.40001
1.40001
1.40001
1.40001
1.40001
1.40001
1.40001
1.40001
1.40001
1.40001
1.40001
1.40001
1.40001
1.40001
1.40001
1.40001
1.40001
1.40001
1.40001
1.40001
1.40001
1.40001
1.40001
1.40001
1.40001
1.40001
1.40001
1.40001
1.40001
1.40001
1.40001
1.40001
1.40001
1.40001
1.40001
1.40001
1.40001
1.40001
1.40001
1.40001
1.40001
2.90669
5.32626
5.57467
5.62221
5.6504
5.64286
5.62409
5.60591
5.60423
5.62919
5.67997
5.72296
5.75117
5.76999
5.77655
5.77385
5.77412
5.78159
5.80101
5.82916
5.85462
5.86876
5.86718
5.84651
5.8081
5.75626
5.69534
5.62825
5.55396
5.46586
5.35916
5.24151
5.13251
5.05128
5.00703
4.99401
4.99687
1.40001
1.40001
1.40001
1.40001
1.40001
1.40001
1.40001
1.40001
1.40001
1.40001
1.40001
1.40001
1.40001
1.40001
1.40001
1.40001
1.40001
1.40001
1.40001
1.40001
1.40001
1.40001
1.40001
1.40001
1.40001
1.40001
1.40001
1.40001
1.40001
1.40001
1.40001
1.40001
1.40001
1.40001
1.40001
1.40001
1.40001
1.40001
1.40001
1.40001
1.40001
1.40001
1.40001
1.40001
1.40001
1.40001
1.40001
1.40001
1.40001
1.40001
1.40001
1.40001
1.40001
1.40001
1.40001
1.40001
1.40001
1.40001
1.40001
2.83398
5.30723
5.56675
5.61393
5.64479
5.63725
5.62012
5.60065
5.59784
5.62329
5.67568
5.72217
5.75353
5.77381
5.77983
5.77481
5.77268
5.77835
5.79688
5.8249
5.85056
5.86474
5.86332
5.843
5.80509
5.75339
5.69216
5.624
5.54789
5.4576
5.34925
5.23189
5.12486
5.04597
5.00308
4.99017
4.99234
1.40001
1.40001
1.40001
1.40001
1.40001
1.40001
1.40001
1.40001
1.40001
1.40001
1.40001
1.40001
1.40001
1.40001
1.40001
1.40001
1.40001
1.40001
1.40001
1.40001
1.40001
1.40001
1.40001
1.40001
1.40001
1.40001
1.40001
1.40001
1.40001
1.40001
1.40001
1.40001
1.40001
1.40001
1.40001
1.40001
1.40001
1.40001
1.40001
1.40001
1.40001
1.40001
1.40001
1.40001
1.40001
1.40001
1.40001
1.40001
1.40001
1.40001
1.40001
1.40001
1.40001
1.40001
1.40001
1.40001
1.40001
1.40001
1.40001
2.74497
5.27767
5.55708
5.6052
5.63921
5.63142
5.61447
5.59406
5.59094
5.61746
5.67215
5.72248
5.75699
5.77818
5.78318
5.77534
5.77039
5.77432
5.79223
5.82031
5.84622
5.86043
5.85919
5.83932
5.80202
5.75054
5.6887
5.61944
5.542
5.45078
5.34225
5.22536
5.11952
5.0419
4.99928
4.98586
4.98702
1.40001
1.40001
1.40001
1.40001
1.40001
1.40001
1.40001
1.40001
1.40001
1.40001
1.40001
1.40001
1.40001
1.40001
1.40001
1.40001
1.40001
1.40001
1.40001
1.40001
1.40001
1.40001
1.40001
1.40001
1.40001
1.40001
1.40001
1.40001
1.40001
1.40001
1.40001
1.40001
1.40001
1.40001
1.40001
1.40001
1.40001
1.40001
1.40001
1.40001
1.40001
1.40001
1.40001
1.40001
1.40001
1.40001
1.40001
1.40001
1.40001
1.40001
1.40001
1.40001
1.40001
1.40001
1.40001
1.40001
1.40001
1.40001
1.40001
2.64097
5.23402
5.54692
5.59621
5.63308
5.62476
5.60654
5.58636
5.585
5.61304
5.67032
5.72405
5.761
5.78237
5.78579
5.77486
5.76702
5.76957
5.78726
5.81553
5.84166
5.85584
5.85474
5.83543
5.79889
5.74781
5.68547
5.61489
5.53602
5.44453
5.33683
5.22116
5.11618
5.03875
4.99553
4.98102
4.98089
1.40001
1.40001
1.40001
1.40001
1.40001
1.40001
1.40001
1.40001
1.40001
1.40001
1.40001
1.40001
1.40001
1.40001
1.40001
1.40001
1.40001
1.40001
1.40001
1.40001
1.40001
1.40001
1.40001
1.40001
1.40001
1.40001
1.40001
1.40001
1.40001
1.40001
1.40001
1.40001
1.40001
1.40001
1.40001
1.40001
1.40001
1.40001
1.40001
1.40001
1.40001
1.40001
1.40001
1.40001
1.40001
1.40001
1.40001
1.40001
1.40001
1.40001
1.40001
1.40001
1.40001
1.40001
1.40001
1.40001
1.40001
1.40001
1.40001
2.52236
5.17286
5.53896
5.58765
5.62574
5.61643
5.59699
5.57869
5.58094
5.61066
5.66991
5.72623
5.76494
5.78586
5.7872
5.77302
5.76257
5.7642
5.782
5.81047
5.8366
5.85056
5.84959
5.83105
5.79554
5.7451
5.68246
5.61073
5.5308
5.43918
5.3323
5.21807
5.11375
5.03592
4.99176
4.97573
4.97422
1.40001
1.40001
1.40001
1.40001
1.40001
1.40001
1.40001
1.40001
1.40001
1.40001
1.40001
1.40001
1.40001
1.40001
1.40001
1.40001
1.40001
1.40001
1.40001
1.40001
1.40001
1.40001
1.40001
1.40001
1.40001
1.40001
1.40001
1.40001
1.40001
1.40001
1.40001
1.40001
1.40001
1.40001
1.40001
1.40001
1.40001
1.40001
1.40001
1.40001
1.40001
1.40001
1.40001
1.40001
1.40001
1.40001
1.40001
1.40001
1.40001
1.40001
1.40001
1.40001
1.40001
1.40001
1.40001
1.40001
1.40001
1.40001
1.40001
2.38909
5.09473
5.53662
5.57914
5.61615
5.60574
5.58739
5.57328
5.57899
5.61006
5.67027
5.72848
5.76839
5.7883
5.7869
5.76945
5.75677
5.75809
5.77634
5.80491
5.83076
5.84429
5.84346
5.82598
5.79182
5.74231
5.67959
5.60698
5.5264
5.43534
5.33008
5.21683
5.11246
5.03363
4.98795
4.97007
4.96723
1.40001
1.40001
1.40001
1.40001
1.40001
1.40001
1.40001
1.40001
1.40001
1.40001
1.40001
1.40001
1.40001
1.40001
1.40001
1.40001
1.40001
1.40001
1.40001
1.40001
1.40001
1.40001
1.40001
1.40001
1.40001
1.40001
1.40001
1.40001
1.40001
1.40001
1.40001
1.40001
1.40001
1.40001
1.40001
1.40001
1.40001
1.40001
1.40001
1.40001
1.40001
1.40001
1.40001
1.40001
1.40001
1.40001
1.40001
1.40001
1.40001
1.40001
1.40001
1.40001
1.40001
1.40001
1.40001
1.40001
1.40001
1.40001
1.40001
2.22853
4.99932
5.54625
5.57074
5.60372
5.59339
5.58009
5.57111
5.57889
5.61086
5.67118
5.7307
5.77079
5.78911
5.78452
5.76422
5.7501
5.75156
5.77023
5.79863
5.82376
5.83657
5.83593
5.81992
5.78754
5.73925
5.67665
5.60349
5.52282
5.43313
5.33005
5.21787
5.11279
5.03189
4.98382
4.96382
4.95985
1.40001
1.40001
1.40001
1.40001
1.40001
1.40001
1.40001
1.40001
1.40001
1.40001
1.40001
1.40001
1.40001
1.40001
1.40001
1.40001
1.40001
1.40001
1.40001
1.40001
1.40001
1.40001
1.40001
1.40001
1.40001
1.40001
1.40001
1.40001
1.40001
1.40001
1.40001
1.40001
1.40001
1.40001
1.40001
1.40001
1.40001
1.40001
1.40001
1.40001
1.40001
1.40001
1.40001
1.40001
1.40001
1.40001
1.40001
1.40001
1.40001
1.40001
1.40001
1.40001
1.40001
1.40001
1.40001
1.40001
1.40001
1.40001
1.40001
2.04245
4.88496
5.57142
5.56359
5.58958
5.582
5.57626
5.57141
5.58011
5.61298
5.6728
5.73258
5.77173
5.78754
5.77994
5.75791
5.74305
5.74468
5.76339
5.7912
5.81522
5.82708
5.82678
5.81271
5.78257
5.73578
5.67342
5.6
5.51977
5.43213
5.3316
5.22066
5.11423
5.03029
4.97911
4.95677
4.9519
1.40001
1.40001
1.40001
1.40001
1.40001
1.40001
1.40001
1.40001
1.40001
1.40001
1.40001
1.40001
1.40001
1.40001
1.40001
1.40001
1.40001
1.40001
1.40001
1.40001
1.40001
1.40001
1.40001
1.40001
1.40001
1.40001
1.40001
1.40001
1.40001
1.40001
1.40001
1.40001
1.40001
1.40001
1.40001
1.40001
1.40001
1.40001
1.40001
1.40001
1.40001
1.40001
1.40001
1.40001
1.40001
1.40001
1.40001
1.40001
1.40001
1.40001
1.40001
1.40001
1.40001
1.40001
1.40001
1.40001
1.40001
1.40001
1.40001
1.83968
4.73015
5.5975
5.55291
5.5719
5.57037
5.57348
5.57396
5.58382
5.61635
5.67437
5.7332
5.77029
5.78321
5.77376
5.75125
5.73604
5.73756
5.75569
5.7825
5.80508
5.81587
5.81599
5.80416
5.77668
5.73166
5.66972
5.59633
5.51706
5.43188
5.33445
5.22466
5.11628
5.02844
4.97357
4.94866
4.94306
1.40001
1.40001
1.40001
1.40001
1.40001
1.40001
1.40001
1.40001
1.40001
1.40001
1.40001
1.40001
1.40001
1.40001
1.40001
1.40001
1.40001
1.40001
1.40001
1.40001
1.40001
1.40001
1.40001
1.40001
1.40001
1.40001
1.40001
1.40001
1.40001
1.40001
1.40001
1.40001
1.40001
1.40001
1.40001
1.40001
1.40001
1.40001
1.40001
1.40001
1.40001
1.40001
1.40001
1.40001
1.40001
1.40001
1.40001
1.40001
1.40001
1.40001
1.40001
1.40001
1.40001
1.40001
1.40001
1.40001
1.40001
1.40001
1.40001
1.6397
4.51395
5.59649
5.5298
5.54742
5.56237
5.57292
5.58077
5.59204
5.62004
5.67406
5.73053
5.76558
5.77689
5.76715
5.74508
5.72933
5.73014
5.74695
5.77231
5.79335
5.80304
5.80362
5.79415
5.76956
5.72658
5.66533
5.59243
5.51465
5.43227
5.33797
5.22913
5.11838
5.02608
4.96705
4.93931
4.93305
1.40001
1.40001
1.40001
1.40001
1.40001
1.40001
1.40001
1.40001
1.40001
1.40001
1.40001
1.40001
1.40001
1.40001
1.40001
1.40001
1.40001
1.40001
1.40001
1.40001
1.40001
1.40001
1.40001
1.40001
1.40001
1.40001
1.40001
1.40001
1.40001
1.40001
1.40001
1.40001
1.40001
1.40001
1.40001
1.40001
1.40001
1.40001
1.40001
1.40001
1.40001
1.40001
1.40001
1.40001
1.40001
1.40001
1.40001
1.40001
1.40001
1.40001
1.40001
1.40001
1.40001
1.40001
1.40001
1.40001
1.40001
1.40001
1.40001
1.45095
4.1965
5.57187
5.51677
5.53349
5.5609
5.57738
5.59114
5.6024
5.62189
5.66919
5.72318
5.75809
5.76989
5.76137
5.74018
5.72314
5.72239
5.73717
5.76056
5.78015
5.78898
5.79007
5.78278
5.76103
5.72019
5.66005
5.58835
5.51266
5.4332
5.34165
5.2334
5.11988
5.02281
4.95931
4.92856
4.92163
1.40001
1.40001
1.40001
1.40001
1.40001
1.40001
1.40001
1.40001
1.40001
1.40001
1.40001
1.40001
1.40001
1.40001
1.40001
1.40001
1.40001
1.40001
1.40001
1.40001
1.40001
1.40001
1.40001
1.40001
1.40001
1.40001
1.40001
1.40001
1.40001
1.40001
1.40001
1.40001
1.40001
1.40001
1.40001
1.40001
1.40001
1.40001
1.40001
1.40001
1.40001
1.40001
1.40001
1.40001
1.40001
1.40001
1.40001
1.40001
1.40001
1.40001
1.40001
1.40001
1.40001
1.40001
1.40001
1.40001
1.40001
1.40001
1.40001
1.40086
3.85175
5.50055
5.49861
5.53318
5.57081
5.59121
5.60319
5.6079
5.62057
5.65867
5.71159
5.74897
5.76308
5.75677
5.73654
5.7175
5.71426
5.72625
5.74709
5.76548
5.77403
5.77578
5.77026
5.75084
5.71207
5.65362
5.58407
5.51109
5.43433
5.34491
5.23683
5.12035
5.01831
4.95029
4.91656
4.90895
1.40001
1.40001
1.40001
1.40001
1.40001
1.40001
1.40001
1.40001
1.40001
1.40001
1.40001
1.40001
1.40001
1.40001
1.40001
1.40001
1.40001
1.40001
1.40001
1.40001
1.40001
1.40001
1.40001
1.40001
1.40001
1.40001
1.40001
1.40001
1.40001
1.40001
1.40001
1.40001
1.40001
1.40001
1.40001
1.40001
1.40001
1.40001
1.40001
1.40001
1.40001
1.40001
1.40001
1.40001
1.40001
1.40001
1.40001
1.40001
1.40001
1.40001
1.40001
1.40001
1.40001
1.40001
1.40001
1.40001
1.40001
1.40001
1.40001
1.40001
3.50199
5.41742
5.49271
5.5442
5.5842
5.60841
5.61414
5.60645
5.61388
5.64489
5.69745
5.73897
5.7564
5.75279
5.73351
5.71216
5.70573
5.71433
5.73206
5.74952
5.75844
5.76106
5.7568
5.73902
5.70218
5.64618
5.57987
5.51008
5.43552
5.34737
5.23875
5.11923
5.01215
4.93974
4.90324
4.89497
1.40001
1.40001
1.40001
1.40001
1.40001
1.40001
1.40001
1.40001
1.40001
1.40001
1.40001
1.40001
1.40001
1.40001
1.40001
1.40001
1.40001
1.40001
1.40001
1.40001
1.40001
1.40001
1.40001
1.40001
1.40001
1.40001
1.40001
1.40001
1.40001
1.40001
1.40001
1.40001
1.40001
1.40001
1.40001
1.40001
1.40001
1.40001
1.40001
1.40001
1.40001
1.40001
1.40001
1.40001
1.40001
1.40001
1.40001
1.40001
1.40001
1.40001
1.40001
1.40001
1.40001
1.40001
1.40001
1.40001
1.40001
1.40001
1.40001
1.40001
3.16339
5.32649
5.48734
5.55381
5.5996
5.61939
5.61659
5.59902
5.60081
5.62923
5.68255
5.72862
5.74953
5.74854
5.73014
5.70672
5.69664
5.70153
5.7158
5.73249
5.74219
5.74578
5.74233
5.72555
5.69067
5.63799
5.57592
5.50939
5.43623
5.34848
5.23884
5.11611
5.00425
4.92776
4.88891
4.88011
1.40001
1.40001
1.40001
1.40001
1.40001
1.40001
1.40001
1.40001
1.40001
1.40001
1.40001
1.40001
1.40001
1.40001
1.40001
1.40001
1.40001
1.40001
1.40001
1.40001
1.40001
1.40001
1.40001
1.40001
1.40001
1.40001
1.40001
1.40001
1.40001
1.40001
1.40001
1.40001
1.40001
1.40001
1.40001
1.40001
1.40001
1.40001
1.40001
1.40001
1.40001
1.40001
1.40001
1.40001
1.40001
1.40001
1.40001
1.40001
1.40001
1.40001
1.40001
1.40001
1.40001
1.40001
1.40001
1.40001
1.40001
1.40001
1.40001
1.40001
2.8336
5.22371
5.48386
5.55751
5.60804
5.62053
5.60655
5.58643
5.58502
5.61407
5.66854
5.7179
5.74193
5.74313
5.7256
5.70085
5.6866
5.68766
5.69878
5.71477
5.72527
5.72964
5.72658
5.71047
5.67792
5.6295
5.5723
5.50892
5.43638
5.34795
5.23696
5.11091
4.99453
4.91423
4.87335
4.86408
1.40001
1.40001
1.40001
1.40001
1.40001
1.40001
1.40001
1.40001
1.40001
1.40001
1.40001
1.40001
1.40001
1.40001
1.40001
1.40001
1.40001
1.40001
1.40001
1.40001
1.40001
1.40001
1.40001
1.40001
1.40001
1.40001
1.40001
1.40001
1.40001
1.40001
1.40001
1.40001
1.40001
1.40001
1.40001
1.40001
1.40001
1.40001
1.40001
1.40001
1.40001
1.40001
1.40001
1.40001
1.40001
1.40001
1.40001
1.40001
1.40001
1.40001
1.40001
1.40001
1.40001
1.40001
1.40001
1.40001
1.40001
1.40001
1.40001
1.40001
2.51208
5.11117
5.4837
5.55603
5.60001
5.60864
5.59026
5.57417
5.57234
5.59989
5.65458
5.70609
5.73249
5.73558
5.71943
5.69418
5.67549
5.67274
5.68159
5.69671
5.7078
5.71241
5.70901
5.69344
5.664
5.62095
5.56883
5.50809
5.43543
5.34547
5.23263
5.10362
4.98316
4.89933
4.85663
4.84695
1.40001
1.40001
1.40001
1.40001
1.40001
1.40001
1.40001
1.40001
1.40001
1.40001
1.40001
1.40001
1.40001
1.40001
1.40001
1.40001
1.40001
1.40001
1.40001
1.40001
1.40001
1.40001
1.40001
1.40001
1.40001
1.40001
1.40001
1.40001
1.40001
1.40001
1.40001
1.40001
1.40001
1.40001
1.40001
1.40001
1.40001
1.40001
1.40001
1.40001
1.40001
1.40001
1.40001
1.40001
1.40001
1.40001
1.40001
1.40001
1.40001
1.40001
1.40001
1.40001
1.40001
1.40001
1.40001
1.40001
1.40001
1.40001
1.40001
1.40001
2.19443
4.97364
5.49554
5.54238
5.58192
5.5895
5.57519
5.56439
5.56414
5.58861
5.63954
5.6926
5.72039
5.7254
5.71127
5.68609
5.66375
5.65719
5.66408
5.67818
5.68962
5.69381
5.68933
5.67431
5.64898
5.61247
5.56568
5.50674
5.43293
5.34078
5.22592
5.09437
4.97024
4.88288
4.83824
4.82797
1.40001
1.40001
1.40001
1.40001
1.40001
1.40001
1.40001
1.40001
1.40001
1.40001
1.40001
1.40001
1.40001
1.40001
1.40001
1.40001
1.40001
1.40001
1.40001
1.40001
1.40001
1.40001
1.40001
1.40001
1.40001
1.40001
1.40001
1.40001
1.40001
1.40001
1.40001
1.40001
1.40001
1.40001
1.40001
1.40001
1.40001
1.40001
1.40001
1.40001
1.40001
1.40001
1.40001
1.40001
1.40001
1.40001
1.40001
1.40001
1.40001
1.40001
1.40001
1.40001
1.40001
1.40001
1.40001
1.40001
1.40001
1.40001
1.40001
1.40001
1.89911
4.80209
5.51191
5.52494
5.56328
5.56934
5.56396
5.56161
5.56198
5.58096
5.62525
5.67668
5.70524
5.71239
5.70104
5.67689
5.65151
5.64101
5.64603
5.65875
5.6704
5.67383
5.66784
5.65361
5.63303
5.60353
5.56185
5.50396
5.42832
5.33341
5.21659
5.08312
4.95589
4.86509
4.81826
4.80718
1.40001
1.40001
1.40001
1.40001
1.40001
1.40001
1.40001
1.40001
1.40001
1.40001
1.40001
1.40001
1.40001
1.40001
1.40001
1.40001
1.40001
1.40001
1.40001
1.40001
1.40001
1.40001
1.40001
1.40001
1.40001
1.40001
1.40001
1.40001
1.40001
1.40001
1.40001
1.40001
1.40001
1.40001
1.40001
1.40001
1.40001
1.40001
1.40001
1.40001
1.40001
1.40001
1.40001
1.40001
1.40001
1.40001
1.40001
1.40001
1.40001
1.40001
1.40001
1.40001
1.40001
1.40001
1.40001
1.40001
1.40001
1.40001
1.40001
1.40001
1.62178
4.49471
5.4905
5.499
5.54218
5.55706
5.56245
5.5645
5.56399
5.57585
5.61171
5.6587
5.68791
5.69703
5.68923
5.66748
5.63911
5.62482
5.62735
5.63782
5.64926
5.65212
5.64492
5.63218
5.61651
5.59355
5.55644
5.49933
5.42174
5.32406
5.20528
5.07002
4.93976
4.84518
4.79556
4.78323
1.40001
1.40001
1.40001
1.40001
1.40001
1.40001
1.40001
1.40001
1.40001
1.40001
1.40001
1.40001
1.40001
1.40001
1.40001
1.40001
1.40001
1.40001
1.40001
1.40001
1.40001
1.40001
1.40001
1.40001
1.40001
1.40001
1.40001
1.40001
1.40001
1.40001
1.40001
1.40001
1.40001
1.40001
1.40001
1.40001
1.40001
1.40001
1.40001
1.40001
1.40001
1.40001
1.40001
1.40001
1.40001
1.40001
1.40001
1.40001
1.40001
1.40001
1.40001
1.40001
1.40001
1.40001
1.40001
1.40001
1.40001
1.40001
1.40001
1.40001
1.41655
4.02012
5.41912
5.49225
5.53272
5.55958
5.57007
5.57274
5.56644
5.57128
5.59626
5.63827
5.66901
5.68121
5.67799
5.65903
5.62756
5.60874
5.6076
5.615
5.62544
5.62842
5.62111
5.61122
5.60017
5.58219
5.54839
5.49176
5.41242
5.31202
5.1911
5.05411
4.9211
4.82277
4.7701
4.75653
1.40001
1.40001
1.40001
1.40001
1.40001
1.40001
1.40001
1.40001
1.40001
1.40001
1.40001
1.40001
1.40001
1.40001
1.40001
1.40001
1.40001
1.40001
1.40001
1.40001
1.40001
1.40001
1.40001
1.40001
1.40001
1.40001
1.40001
1.40001
1.40001
1.40001
1.40001
1.40001
1.40001
1.40001
1.40001
1.40001
1.40001
1.40001
1.40001
1.40001
1.40001
1.40001
1.40001
1.40001
1.40001
1.40001
1.40001
1.40001
1.40001
1.40001
1.40001
1.40001
1.40001
1.40001
1.40001
1.40001
1.40001
1.40001
1.40001
1.40001
1.40017
3.40252
5.29294
5.48613
5.52693
5.5747
5.58822
5.58344
5.56797
5.56232
5.57603
5.61479
5.64997
5.66755
5.66877
5.65056
5.61693
5.59304
5.58673
5.58982
5.5983
5.60251
5.59698
5.59125
5.58397
5.56891
5.53698
5.48068
5.4002
5.29766
5.1747
5.03582
4.89973
4.79694
4.74048
4.72533
1.40001
1.40001
1.40001
1.40001
1.40001
1.40001
1.40001
1.40001
1.40001
1.40001
1.40001
1.40001
1.40001
1.40001
1.40001
1.40001
1.40001
1.40001
1.40001
1.40001
1.40001
1.40001
1.40001
1.40001
1.40001
1.40001
1.40001
1.40001
1.40001
1.40001
1.40001
1.40001
1.40001
1.40001
1.40001
1.40001
1.40001
1.40001
1.40001
1.40001
1.40001
1.40001
1.40001
1.40001
1.40001
1.40001
1.40001
1.40001
1.40001
1.40001
1.40001
1.40001
1.40001
1.40001
1.40001
1.40001
1.40001
1.40001
1.40001
1.40001
1.40001
2.79566
5.15173
5.50415
5.53447
5.59405
5.60652
5.59177
5.56164
5.54465
5.55117
5.58961
5.63203
5.65605
5.65969
5.64142
5.60659
5.57724
5.56386
5.56208
5.56909
5.57562
5.57373
5.57212
5.567
5.55293
5.52152
5.4653
5.3841
5.28
5.15506
5.01397
4.87453
4.76698
4.70645
4.69003
1.40001
1.40001
1.40001
1.40001
1.40001
1.40001
1.40001
1.40001
1.40001
1.40001
1.40001
1.40001
1.40001
1.40001
1.40001
1.40001
1.40001
1.40001
1.40001
1.40001
1.40001
1.40001
1.40001
1.40001
1.40001
1.40001
1.40001
1.40001
1.40001
1.40001
1.40001
1.40001
1.40001
1.40001
1.40001
1.40001
1.40001
1.40001
1.40001
1.40001
1.40001
1.40001
1.40001
1.40001
1.40001
1.40001
1.40001
1.40001
1.40001
1.40001
1.40001
1.40001
1.40001
1.40001
1.40001
1.40001
1.40001
1.40001
1.40001
1.40001
1.40001
2.24552
5.01377
5.54283
5.55135
5.59131
5.59785
5.57785
5.54609
5.52545
5.52949
5.56772
5.61441
5.64304
5.64892
5.63105
5.59501
5.55983
5.53914
5.53308
5.5393
5.54873
5.55149
5.55241
5.54754
5.53303
5.50138
5.44548
5.36451
5.26009
5.13381
4.99002
4.84578
4.73143
4.66533
4.64669
1.40001
1.40001
1.40001
1.40001
1.40001
1.40001
1.40001
1.40001
1.40001
1.40001
1.40001
1.40001
1.40001
1.40001
1.40001
1.40001
1.40001
1.40001
1.40001
1.40001
1.40001
1.40001
1.40001
1.40001
1.40001
1.40001
1.40001
1.40001
1.40001
1.40001
1.40001
1.40001
1.40001
1.40001
1.40001
1.40001
1.40001
1.40001
1.40001
1.40001
1.40001
1.40001
1.40001
1.40001
1.40001
1.40001
1.40001
1.40001
1.40001
1.40001
1.40001
1.40001
1.40001
1.40001
1.40001
1.40001
1.40001
1.40001
1.40001
1.40001
1.40001
1.79297
4.74693
5.56622
5.53453
5.55827
5.56744
5.5581
5.5326
5.51385
5.51338
5.54693
5.59377
5.62621
5.63495
5.61752
5.58046
5.54101
5.51379
5.50494
5.51075
5.52277
5.52909
5.53074
5.52456
5.50852
5.47633
5.42114
5.34109
5.23671
5.1085
4.9605
4.81003
4.68827
4.61653
4.5967
1.40001
1.40001
1.40001
1.40001
1.40001
1.40001
1.40001
1.40001
1.40001
1.40001
1.40001
1.40001
1.40001
1.40001
1.40001
1.40001
1.40001
1.40001
1.40001
1.40001
1.40001
1.40001
1.40001
1.40001
1.40001
1.40001
1.40001
1.40001
1.40001
1.40001
1.40001
1.40001
1.40001
1.40001
1.40001
1.40001
1.40001
1.40001
1.40001
1.40001
1.40001
1.40001
1.40001
1.40001
1.40001
1.40001
1.40001
1.40001
1.40001
1.40001
1.40001
1.40001
1.40001
1.40001
1.40001
1.40001
1.40001
1.40001
1.40001
1.40001
1.40001
1.45516
4.27409
5.49298
5.48686
5.52066
5.53223
5.53371
5.51834
5.50508
5.50078
5.527
5.57252
5.6058
5.61499
5.59882
5.56326
5.52278
5.49044
5.47955
5.48451
5.49752
5.50511
5.50579
5.49727
5.47889
5.44605
5.3919
5.31329
5.20962
5.08012
4.92794
4.76971
4.63704
4.55593
4.53091
1.40001
1.40001
1.40001
1.40001
1.40001
1.40001
1.40001
1.40001
1.40001
1.40001
1.40001
1.40001
1.40001
1.40001
1.40001
1.40001
1.40001
1.40001
1.40001
1.40001
1.40001
1.40001
1.40001
1.40001
1.40001
1.40001
1.40001
1.40001
1.40001
1.40001
1.40001
1.40001
1.40001
1.40001
1.40001
1.40001
1.40001
1.40001
1.40001
1.40001
1.40001
1.40001
1.40001
1.40001
1.40001
1.40001
1.40001
1.40001
1.40001
1.40001
1.40001
1.40001
1.40001
1.40001
1.40001
1.40001
1.40001
1.40001
1.40001
1.40001
1.40001
1.40075
3.59963
5.35373
5.44669
5.48631
5.5085
5.515
5.50684
5.49364
5.49501
5.51444
5.54884
5.57731
5.58753
5.57578
5.54588
5.50758
5.47136
5.4579
5.46069
5.47127
5.47793
5.47654
5.46516
5.44416
5.41075
5.358
5.28103
5.17761
5.04521
4.8856
4.71567
4.57025
4.47918
4.45308
1.40001
1.40001
1.40001
1.40001
1.40001
1.40001
1.40001
1.40001
1.40001
1.40001
1.40001
1.40001
1.40001
1.40001
1.40001
1.40001
1.40001
1.40001
1.40001
1.40001
1.40001
1.40001
1.40001
1.40001
1.40001
1.40001
1.40001
1.40001
1.40001
1.40001
1.40001
1.40001
1.40001
1.40001
1.40001
1.40001
1.40001
1.40001
1.40001
1.40001
1.40001
1.40001
1.40001
1.40001
1.40001
1.40001
1.40001
1.40001
1.40001
1.40001
1.40001
1.40001
1.40001
1.40001
1.40001
1.40001
1.40001
1.40001
1.40001
1.40001
1.40001
1.40001
2.90369
5.20652
5.43035
5.46672
5.49928
5.50746
5.50321
5.48977
5.48331
5.48933
5.51473
5.54428
5.55668
5.55178
5.52995
5.49526
5.45788
5.43971
5.43771
5.44261
5.44629
5.44235
5.42814
5.40472
5.37092
5.31942
5.24332
5.1389
5.00299
4.83697
4.65556
4.49375
4.38394
4.33737
1.40001
1.40001
1.40001
1.40001
1.40001
1.40001
1.40001
1.40001
1.40001
1.40001
1.40001
1.40001
1.40001
1.40001
1.40001
1.40001
1.40001
1.40001
1.40001
1.40001
1.40001
1.40001
1.40001
1.40001
1.40001
1.40001
1.40001
1.40001
1.40001
1.40001
1.40001
1.40001
1.40001
1.40001
1.40001
1.40001
1.40001
1.40001
1.40001
1.40001
1.40001
1.40001
1.40001
1.40001
1.40001
1.40001
1.40001
1.40001
1.40001
1.40001
1.40001
1.40001
1.40001
1.40001
1.40001
1.40001
1.40001
1.40001
1.40001
1.40001
1.40001
1.40001
2.2313
5.0457
5.45445
5.47222
5.51047
5.5214
5.50595
5.4771
5.45974
5.45896
5.4779
5.50895
5.52735
5.52997
5.51641
5.48539
5.44884
5.42459
5.41383
5.41112
5.40987
5.40355
5.38694
5.36126
5.3267
5.27583
5.19991
5.09373
4.95311
4.77679
4.57419
4.37847
4.23846
4.17546
1.40001
1.40001
1.40001
1.40001
1.40001
1.40001
1.40001
1.40001
1.40001
1.40001
1.40001
1.40001
1.40001
1.40001
1.40001
1.40001
1.40001
1.40001
1.40001
1.40001
1.40001
1.40001
1.40001
1.40001
1.40001
1.40001
1.40001
1.40001
1.40001
1.40001
1.40001
1.40001
1.40001
1.40001
1.40001
1.40001
1.40001
1.40001
1.40001
1.40001
1.40001
1.40001
1.40001
1.40001
1.40001
1.40001
1.40001
1.40001
1.40001
1.40001
1.40001
1.40001
1.40001
1.40001
1.40001
1.40001
1.40001
1.40001
1.40001
1.40001
1.40001
1.40001
1.70475
4.67318
5.48604
5.45529
5.48403
5.49806
5.48605
5.45614
5.43497
5.42905
5.44436
5.47622
5.50194
5.51084
5.50402
5.4785
5.44126
5.40902
5.38744
5.37629
5.36991
5.36111
5.34273
5.31466
5.27807
5.22633
5.14937
5.03978
4.89242
4.70451
4.48421
4.25369
4.06182
3.96896
1.40001
1.40001
1.40001
1.40001
1.40001
1.40001
1.40001
1.40001
1.40001
1.40001
1.40001
1.40001
1.40001
1.40001
1.40001
1.40001
1.40001
1.40001
1.40001
1.40001
1.40001
1.40001
1.40001
1.40001
1.40001
1.40001
1.40001
1.40001
1.40001
1.40001
1.40001
1.40001
1.40001
1.40001
1.40001
1.40001
1.40001
1.40001
1.40001
1.40001
1.40001
1.40001
1.40001
1.40001
1.40001
1.40001
1.40001
1.40001
1.40001
1.40001
1.40001
1.40001
1.40001
1.40001
1.40001
1.40001
1.40001
1.40001
1.40001
1.40001
1.40001
1.40001
1.42031
4.01303
5.35491
5.41193
5.46528
5.48893
5.47703
5.44464
5.41603
5.40411
5.4129
5.44212
5.47521
5.49359
5.49456
5.47205
5.43117
5.38972
5.35717
5.33833
5.32779
5.31733
5.29772
5.26643
5.22538
5.17015
5.09097
4.97839
4.82586
4.62567
4.37202
4.08447
3.67716
2.87645
1.40001
1.40001
1.40001
1.40001
1.40001
1.40001
1.40001
1.40001
1.40001
1.40001
1.40001
1.40001
1.40001
1.40001
1.40001
1.40001
1.40001
1.40001
1.40001
1.40001
1.40001
1.40001
1.40001
1.40001
1.40001
1.40001
1.40001
1.40001
1.40001
1.40001
1.40001
1.40001
1.40001
1.40001
1.40001
1.40001
1.40001
1.40001
1.40001
1.40001
1.40001
1.40001
1.40001
1.40001
1.40001
1.40001
1.40001
1.40001
1.40001
1.40001
1.40001
1.40001
1.40001
1.40001
1.40001
1.40001
1.40001
1.40001
1.40001
1.40001
1.40001
1.40001
1.40015
3.25047
5.19989
5.38081
5.43037
5.46545
5.46554
5.44082
5.40683
5.38717
5.38816
5.41297
5.45062
5.47496
5.47911
5.45888
5.41764
5.36981
5.32706
5.29934
5.2847
5.27272
5.25187
5.21678
5.16926
5.10779
5.02452
4.90857
4.74909
4.53517
4.24226
3.89264
3.41971
2.52645
1.40001
1.40001
1.40001
1.40001
1.40001
1.40001
1.40001
1.40001
1.40001
1.40001
1.40001
1.40001
1.40001
1.40001
1.40001
1.40001
1.40001
1.40001
1.40001
1.40001
1.40001
1.40001
1.40001
1.40001
1.40001
1.40001
1.40001
1.40001
1.40001
1.40001
1.40001
1.40001
1.40001
1.40001
1.40001
1.40001
1.40001
1.40001
1.40001
1.40001
1.40001
1.40001
1.40001
1.40001
1.40001
1.40001
1.40001
1.40001
1.40001
1.40001
1.40001
1.40001
1.40001
1.40001
1.40001
1.40001
1.40001
1.40001
1.40001
1.40001
1.40001
1.40001
1.40001
2.48126
5.05652
5.3757
5.39714
5.44128
5.45781
5.44463
5.41085
5.38392
5.37546
5.39019
5.42372
5.44923
5.4575
5.44132
5.40107
5.34871
5.29785
5.26082
5.24101
5.22656
5.20438
5.1657
5.11101
5.04149
4.95183
4.83234
4.66717
4.44577
4.14283
3.76538
3.20316
2.45335
1.40001
1.40001
1.40001
1.40001
1.40001
1.40001
1.40001
1.40001
1.40001
1.40001
1.40001
1.40001
1.40001
1.40001
1.40001
1.40001
1.40001
1.40001
1.40001
1.40001
1.40001
1.40001
1.40001
1.40001
1.40001
1.40001
1.40001
1.40001
1.40001
1.40001
1.40001
1.40001
1.40001
1.40001
1.40001
1.40001
1.40001
1.40001
1.40001
1.40001
1.40001
1.40001
1.40001
1.40001
1.40001
1.40001
1.40001
1.40001
1.40001
1.40001
1.40001
1.40001
1.40001
1.40001
1.40001
1.40001
1.40001
1.40001
1.40001
1.40001
1.40001
1.40001
1.40001
1.78782
4.7268
5.42307
5.40511
5.43293
5.45456
5.4383
5.4041
5.37689
5.36724
5.375
5.40027
5.42219
5.43079
5.4167
5.37749
5.32322
5.26772
5.22492
5.19869
5.18078
5.15573
5.11334
5.0522
4.97415
4.87621
4.75274
4.58809
4.36246
4.0684
3.65157
3.11461
2.47654
1.40001
1.40001
1.40001
1.40001
1.40001
1.40001
1.40001
1.40001
1.40001
1.40001
1.40001
1.40001
1.40001
1.40001
1.40001
1.40001
1.40001
1.40001
1.40001
1.40001
1.40001
1.40001
1.40001
1.40001
1.40001
1.40001
1.40001
1.40001
1.40001
1.40001
1.40001
1.40001
1.40001
1.40001
1.40001
1.40001
1.40001
1.40001
1.40001
1.40001
1.40001
1.40001
1.40001
1.40001
1.40001
1.40001
1.40001
1.40001
1.40001
1.40001
1.40001
1.40001
1.40001
1.40001
1.40001
1.40001
1.40001
1.40001
1.40001
1.40001
1.40001
1.40001
1.40001
1.4293
4.04462
5.29566
5.36823
5.42214
5.44949
5.43874
5.4078
5.37404
5.35569
5.3562
5.37192
5.39096
5.39941
5.38733
5.34845
5.29385
5.23768
5.19303
5.16075
5.13654
5.10648
5.06057
4.99358
4.90771
4.80182
4.67388
4.51125
4.29206
3.99735
3.59631
3.11237
2.55651
1.40001
1.40001
1.40001
1.40001
1.40001
1.40001
1.40001
1.40001
1.40001
1.40001
1.40001
1.40001
1.40001
1.40001
1.40001
1.40001
1.40001
1.40001
1.40001
1.40001
1.40001
1.40001
1.40001
1.40001
1.40001
1.40001
1.40001
1.40001
1.40001
1.40001
1.40001
1.40001
1.40001
1.40001
1.40001
1.40001
1.40001
1.40001
1.40001
1.40001
1.40001
1.40001
1.40001
1.40001
1.40001
1.40001
1.40001
1.40001
1.40001
1.40001
1.40001
1.40001
1.40001
1.40001
1.40001
1.40001
1.40001
1.40001
1.40001
1.40001
1.40001
1.40001
1.40001
1.4002
3.1412
5.15387
5.35675
5.39445
5.42805
5.43147
5.40745
5.36828
5.33792
5.3304
5.3384
5.35419
5.36409
5.35576
5.31997
5.26699
5.2114
5.16397
5.12571
5.09343
5.05672
5.00686
4.93499
4.84353
4.73197
4.60023
4.43787
4.22676
3.94305
3.57923
3.14765
2.66305
1.40001
1.40001
1.40001
1.40001
1.40001
1.40001
1.40001
1.40001
1.40001
1.40001
1.40001
1.40001
1.40001
1.40001
1.40001
1.40001
1.40001
1.40001
1.40001
1.40001
1.40001
1.40001
1.40001
1.40001
1.40001
1.40001
1.40001
1.40001
1.40001
1.40001
1.40001
1.40001
1.40001
1.40001
1.40001