/*--------------------------------*- C++ -*----------------------------------*\
  =========                 |
  \\      /  F ield         | OpenFOAM: The Open Source CFD Toolbox
   \\    /   O peration     | Website:  https://openfoam.org
    \\  /    A nd           | Version:  7
     \\/     M anipulation  |
\*---------------------------------------------------------------------------*/
FoamFile
{
    version     2.0;
    format      ascii;
    class       volVectorField;
    location    "0.6";
    object      U;
}
// * * * * * * * * * * * * * * * * * * * * * * * * * * * * * * * * * * * * * //

dimensions      [0 1 -1 0 0 0 0];

internalField   nonuniform List<vector> 
64512
(
(3 -2.33418e-16 0)
(3 2.0954e-16 0)
(3 2.47407e-16 0)
(3 1.48137e-16 0)
(3 6.08089e-16 0)
(3 3.9179e-16 0)
(3 2.09849e-16 0)
(3 -1.04564e-16 0)
(3 -3.17497e-16 0)
(3 -3.96292e-16 0)
(3 -1.55191e-16 0)
(3 2.60083e-16 0)
(3 -2.4106e-16 0)
(3 -3.77579e-16 0)
(3 -2.81316e-16 0)
(3 -1.08676e-16 0)
(3 -3.08899e-16 0)
(3 -4.97539e-16 0)
(3 -4.51985e-16 0)
(3 -1.10855e-15 0)
(3 -1.64546e-15 0)
(3 -1.28405e-15 0)
(3 -6.95561e-16 0)
(3 -2.07501e-17 0)
(3 -7.82861e-16 0)
(3 -2.06756e-15 0)
(3 -8.75487e-16 0)
(3 -4.13778e-16 0)
(3 -5.87551e-16 0)
(3 1.80577e-16 0)
(3 -3.86801e-16 0)
(3 -5.66547e-16 0)
(3 -6.82923e-16 0)
(3 -1.05543e-15 0)
(3 7.74572e-16 0)
(3 1.79065e-15 0)
(3 2.74677e-15 0)
(3 2.69245e-15 0)
(3 2.72288e-15 0)
(3 2.39675e-15 0)
(3 2.14748e-15 0)
(3 1.14108e-15 0)
(3 8.83247e-16 0)
(3 7.87102e-16 0)
(3 2.57701e-16 0)
(3 -3.89271e-16 0)
(3 3.23302e-16 0)
(3 -1.01264e-15 0)
(3 -5.6542e-16 0)
(3 -6.14529e-16 0)
(3 3.63215e-17 0)
(3 -1.36559e-17 0)
(3 5.16147e-16 0)
(3 -3.34341e-16 0)
(3 -3.26609e-16 0)
(3 6.89965e-16 0)
(3 8.77422e-16 0)
(3 5.60384e-16 0)
(3 1.79485e-15 0)
(1.60803 0.00334719 0)
(0.728975 0.00155425 0)
(0.65689 0.0140636 0)
(0.625442 0.00946319 0)
(0.602085 0.00739965 0)
(0.587954 0.00698957 0)
(0.579535 0.0078107 0)
(0.564875 0.00879054 0)
(0.543309 0.00821977 0)
(0.51448 0.00725041 0)
(0.480918 0.00734809 0)
(0.454375 0.007921 0)
(0.43826 0.00828216 0)
(0.431722 0.00850126 0)
(0.429816 0.00892614 0)
(0.42654 0.00894291 0)
(0.417074 0.00887907 0)
(0.399742 0.00889331 0)
(0.37538 0.00886695 0)
(0.348281 0.00880791 0)
(0.323049 0.00882772 0)
(0.300537 0.00885204 0)
(0.278446 0.00898724 0)
(0.261211 0.00903391 0)
(0.247203 0.00902074 0)
(0.235555 0.00904019 0)
(0.224042 0.00901194 0)
(0.209164 0.00896163 0)
(0.188482 0.00893565 0)
(0.162577 0.00932086 0)
(0.135162 0.00989006 0)
(0.110382 0.0105268 0)
(0.0894829 0.0110635 0)
(0.0711003 0.0113644 0)
(0.0530814 0.0113611 0)
(0.0337845 0.0113585 0)
(0.013058 0.0115135 0)
(3 1.21499e-17 0)
(3 6.75207e-16 0)
(3 1.77695e-15 0)
(3 1.1533e-15 0)
(3 1.69854e-15 0)
(3 1.71969e-15 0)
(3 1.2815e-15 0)
(3 8.56564e-17 0)
(3 -1.2916e-15 0)
(3 -1.74361e-15 0)
(3 -1.41682e-15 0)
(3 -8.8721e-16 0)
(3 -1.42253e-15 0)
(3 -1.35283e-15 0)
(3 -1.24969e-15 0)
(3 -1.11643e-15 0)
(3 -1.28877e-15 0)
(3 -1.36462e-15 0)
(3 -9.96931e-16 0)
(3 -1.08977e-15 0)
(3 -1.506e-15 0)
(3 -1.42823e-15 0)
(3 -5.09585e-16 0)
(3 5.61645e-16 0)
(3 2.57014e-16 0)
(3 -7.30621e-16 0)
(3 -6.79685e-16 0)
(3 -3.20474e-16 0)
(3 3.39384e-17 0)
(3 4.82893e-16 0)
(3 -2.94352e-16 0)
(3 -5.2541e-16 0)
(3 -1.06297e-15 0)
(3 -5.949e-16 0)
(3 2.79829e-16 0)
(3 1.37053e-15 0)
(3 2.55926e-15 0)
(3 2.28208e-15 0)
(3 3.18816e-15 0)
(3 4.03557e-15 0)
(3 2.54094e-15 0)
(3 1.69064e-15 0)
(3 1.85235e-15 0)
(3 1.95074e-15 0)
(3 1.36852e-15 0)
(3 1.00033e-15 0)
(3 7.79394e-16 0)
(3 -1.2317e-15 0)
(3 -1.31984e-15 0)
(3 1.79189e-17 0)
(3 1.14787e-15 0)
(3 1.00739e-15 0)
(3 4.26558e-16 0)
(3 -7.20205e-17 0)
(3 1.66324e-16 0)
(3 1.24889e-15 0)
(3 1.47816e-15 0)
(3 1.21656e-15 0)
(3 4.23209e-15 0)
(1.61606 0.0181768 0)
(0.724175 0.0126436 0)
(0.651125 0.0363287 0)
(0.621618 0.0282916 0)
(0.597684 0.0216234 0)
(0.583418 0.0193508 0)
(0.575533 0.0220541 0)
(0.561701 0.0254852 0)
(0.540629 0.0248034 0)
(0.511728 0.0222893 0)
(0.477957 0.0222457 0)
(0.451479 0.0236149 0)
(0.435541 0.0243845 0)
(0.429033 0.0250486 0)
(0.426901 0.0262007 0)
(0.423278 0.0263617 0)
(0.413391 0.0262405 0)
(0.39578 0.0263681 0)
(0.371259 0.0263414 0)
(0.344132 0.0262163 0)
(0.318856 0.0263422 0)
(0.296177 0.0264463 0)
(0.273882 0.0267962 0)
(0.256446 0.0268261 0)
(0.242292 0.0266214 0)
(0.230549 0.0265681 0)
(0.218972 0.0263569 0)
(0.204108 0.0261259 0)
(0.183564 0.0260728 0)
(0.15804 0.0272383 0)
(0.131346 0.029026 0)
(0.107528 0.030983 0)
(0.0876914 0.0326692 0)
(0.0702507 0.0337701 0)
(0.0528441 0.0340993 0)
(0.0338035 0.0343285 0)
(0.0130909 0.0349804 0)
(3 4.89738e-16 0)
(3 4.52063e-16 0)
(3 4.46097e-16 0)
(3 1.01775e-15 0)
(3 1.30532e-15 0)
(3 1.28948e-15 0)
(3 1.85963e-15 0)
(3 1.45886e-15 0)
(3 -1.0645e-16 0)
(3 -2.24082e-15 0)
(3 -2.75855e-15 0)
(3 -2.4048e-15 0)
(3 -1.24798e-15 0)
(3 -1.43994e-15 0)
(3 -2.21329e-15 0)
(3 -1.46474e-15 0)
(3 -3.57479e-16 0)
(3 -4.55498e-16 0)
(3 -4.6271e-16 0)
(3 -1.48753e-16 0)
(3 -1.615e-16 0)
(3 -2.40665e-16 0)
(3 7.5497e-16 0)
(3 1.40233e-15 0)
(3 1.32525e-15 0)
(3 9.95694e-16 0)
(3 -4.9156e-16 0)
(3 -4.00192e-16 0)
(3 5.09165e-16 0)
(3 5.52684e-16 0)
(3 7.3879e-16 0)
(3 5.65438e-16 0)
(3 1.96415e-16 0)
(3 5.57469e-16 0)
(3 1.0983e-15 0)
(3 2.0502e-15 0)
(3 2.32791e-15 0)
(3 3.0741e-15 0)
(3 3.15186e-15 0)
(3 3.21585e-15 0)
(3 1.39544e-15 0)
(3 -9.49158e-16 0)
(3 -1.56558e-15 0)
(3 -9.0614e-16 0)
(3 -9.0064e-16 0)
(3 -8.59522e-16 0)
(3 -1.35486e-15 0)
(3 -1.15314e-15 0)
(3 -2.56061e-15 0)
(3 -2.11518e-15 0)
(3 -2.60968e-15 0)
(3 -1.20618e-15 0)
(3 -4.07127e-16 0)
(3 2.38612e-16 0)
(3 6.81222e-16 0)
(3 -3.06065e-18 0)
(3 2.14623e-17 0)
(3 -3.10634e-16 0)
(3 -2.85401e-15 0)
(1.6443 0.0346037 0)
(0.726319 0.0276394 0)
(0.649504 0.0569381 0)
(0.621553 0.0469367 0)
(0.597587 0.0370858 0)
(0.582699 0.0326441 0)
(0.574001 0.0360824 0)
(0.560467 0.0414779 0)
(0.539581 0.0411867 0)
(0.51081 0.0378651 0)
(0.476976 0.0377263 0)
(0.450697 0.0397916 0)
(0.434969 0.0409989 0)
(0.428502 0.0422027 0)
(0.426055 0.0439113 0)
(0.422069 0.044152 0)
(0.411649 0.0439763 0)
(0.393699 0.0442191 0)
(0.368958 0.0442439 0)
(0.341724 0.0440691 0)
(0.316245 0.0442812 0)
(0.293143 0.0444306 0)
(0.270298 0.0449191 0)
(0.252262 0.0448835 0)
(0.237583 0.0444681 0)
(0.225427 0.0444068 0)
(0.213486 0.0440322 0)
(0.198319 0.0435893 0)
(0.177556 0.0434001 0)
(0.152017 0.0450766 0)
(0.125667 0.047707 0)
(0.102552 0.0506577 0)
(0.0837284 0.0532975 0)
(0.0674316 0.0551871 0)
(0.051062 0.0559678 0)
(0.0328549 0.0565873 0)
(0.0127691 0.0578301 0)
(3 -2.13666e-16 0)
(3 -7.66491e-16 0)
(3 -9.69374e-16 0)
(3 -7.29249e-16 0)
(3 -4.83752e-16 0)
(3 7.503e-16 0)
(3 1.65759e-15 0)
(3 1.98294e-15 0)
(3 1.11978e-15 0)
(3 -5.22268e-17 0)
(3 -3.25105e-16 0)
(3 -2.47887e-16 0)
(3 4.60864e-16 0)
(3 -3.44456e-16 0)
(3 -1.2654e-15 0)
(3 -8.06779e-16 0)
(3 -3.34245e-16 0)
(3 -1.15553e-16 0)
(3 -7.39989e-16 0)
(3 -7.12662e-16 0)
(3 -6.22194e-16 0)
(3 3.63603e-16 0)
(3 2.83046e-16 0)
(3 2.64878e-16 0)
(3 -3.93724e-17 0)
(3 -4.45835e-16 0)
(3 -8.41496e-16 0)
(3 1.0246e-16 0)
(3 2.12806e-16 0)
(3 1.31957e-16 0)
(3 5.91805e-16 0)
(3 9.97512e-16 0)
(3 1.87371e-15 0)
(3 1.99534e-15 0)
(3 1.34036e-15 0)
(3 1.56834e-15 0)
(3 2.35725e-15 0)
(3 2.93017e-15 0)
(3 1.41023e-15 0)
(3 2.50715e-16 0)
(3 -8.19754e-16 0)
(3 -1.31121e-15 0)
(3 -9.82513e-16 0)
(3 -8.56528e-16 0)
(3 -3.58919e-16 0)
(3 -7.74736e-16 0)
(3 -4.68762e-16 0)
(3 -5.49656e-16 0)
(3 -8.46337e-16 0)
(3 -1.82203e-15 0)
(3 -1.92338e-15 0)
(3 -7.29627e-16 0)
(3 3.91035e-17 0)
(3 -4.63482e-16 0)
(3 -8.08312e-16 0)
(3 -2.68697e-16 0)
(3 -5.26594e-16 0)
(3 -1.25359e-15 0)
(3 -4.91012e-15 0)
(1.68726 0.049946 0)
(0.731176 0.0454362 0)
(0.647312 0.0756614 0)
(0.620419 0.0643321 0)
(0.598108 0.0523682 0)
(0.583893 0.0459748 0)
(0.574295 0.0498773 0)
(0.560879 0.0569496 0)
(0.540136 0.0574367 0)
(0.511841 0.0536598 0)
(0.478597 0.05334 0)
(0.452959 0.0559358 0)
(0.437602 0.0575597 0)
(0.431145 0.0593848 0)
(0.428105 0.0615875 0)
(0.423727 0.0618992 0)
(0.412724 0.061733 0)
(0.394595 0.0621592 0)
(0.369804 0.0623238 0)
(0.342641 0.0621892 0)
(0.317044 0.0626004 0)
(0.293476 0.0629338 0)
(0.269929 0.0636341 0)
(0.251055 0.063606 0)
(0.235581 0.063021 0)
(0.222732 0.0629284 0)
(0.210189 0.0625077 0)
(0.194474 0.0618808 0)
(0.173145 0.0615456 0)
(0.14716 0.0634867 0)
(0.120697 0.0665561 0)
(0.097814 0.069994 0)
(0.0795894 0.0731149 0)
(0.0641777 0.0755331 0)
(0.0487822 0.0767559 0)
(0.0314975 0.0777942 0)
(0.0122359 0.0796792 0)
(3 -4.93707e-16 0)
(3 -5.61204e-16 0)
(3 3.32563e-16 0)
(3 3.51195e-16 0)
(3 1.56285e-16 0)
(3 4.75233e-16 0)
(3 1.31248e-16 0)
(3 1.15326e-16 0)
(3 4.72081e-16 0)
(3 1.38605e-15 0)
(3 6.66451e-16 0)
(3 -7.81894e-16 0)
(3 -9.05962e-16 0)
(3 -7.60837e-16 0)
(3 1.86904e-16 0)
(3 1.18534e-16 0)
(3 -1.04449e-15 0)
(3 -1.13486e-15 0)
(3 -1.10241e-15 0)
(3 -7.79734e-16 0)
(3 -3.81857e-16 0)
(3 -4.83205e-16 0)
(3 -7.63135e-16 0)
(3 -4.6823e-16 0)
(3 -9.20991e-17 0)
(3 -8.87461e-16 0)
(3 -1.07719e-15 0)
(3 -8.57227e-16 0)
(3 -1.08611e-15 0)
(3 -1.0665e-15 0)
(3 -9.02544e-16 0)
(3 -6.04134e-16 0)
(3 8.28666e-16 0)
(3 1.5341e-15 0)
(3 1.53333e-15 0)
(3 9.80619e-16 0)
(3 5.93316e-16 0)
(3 -5.82186e-16 0)
(3 -8.83753e-16 0)
(3 -5.98699e-16 0)
(3 -3.98983e-17 0)
(3 -6.77058e-16 0)
(3 -7.74685e-16 0)
(3 9.54552e-16 0)
(3 1.89923e-15 0)
(3 2.61075e-15 0)
(3 1.6814e-15 0)
(3 7.04889e-16 0)
(3 -6.31973e-16 0)
(3 -1.63286e-15 0)
(3 -1.07931e-15 0)
(3 -6.53588e-16 0)
(3 -1.06292e-15 0)
(3 -1.12809e-15 0)
(3 -1.20779e-15 0)
(3 -9.58336e-16 0)
(3 -1.72261e-15 0)
(3 -1.84541e-15 0)
(3 -3.88697e-15 0)
(1.74286 0.0656458 0)
(0.735941 0.0664942 0)
(0.643977 0.0936584 0)
(0.619558 0.0802396 0)
(0.599343 0.0665139 0)
(0.58606 0.0588286 0)
(0.575363 0.0635124 0)
(0.561269 0.0722064 0)
(0.540339 0.0736078 0)
(0.512666 0.0696122 0)
(0.48046 0.0690854 0)
(0.455771 0.0721903 0)
(0.440897 0.0742772 0)
(0.434482 0.0766622 0)
(0.430716 0.0792045 0)
(0.426021 0.0794615 0)
(0.414559 0.0792893 0)
(0.396502 0.0799425 0)
(0.371937 0.0803375 0)
(0.345152 0.0803149 0)
(0.319683 0.081001 0)
(0.295819 0.0816219 0)
(0.27168 0.082602 0)
(0.252029 0.0826881 0)
(0.235813 0.0820294 0)
(0.222333 0.0821002 0)
(0.209254 0.081586 0)
(0.193096 0.0808651 0)
(0.171338 0.0806168 0)
(0.14493 0.0828154 0)
(0.118226 0.0860905 0)
(0.0953269 0.0896445 0)
(0.077319 0.0927668 0)
(0.0623189 0.0952864 0)
(0.0474416 0.0966923 0)
(0.0306307 0.0979533 0)
(0.0117959 0.100338 0)
(3 -1.57347e-16 0)
(3 1.13512e-16 0)
(3 2.35168e-16 0)
(3 6.26766e-16 0)
(3 3.63494e-16 0)
(3 -7.34888e-16 0)
(3 -1.35053e-15 0)
(3 -6.3145e-16 0)
(3 -1.61829e-16 0)
(3 5.11475e-16 0)
(3 7.83434e-16 0)
(3 -4.23576e-16 0)
(3 -1.34001e-15 0)
(3 -1.10667e-15 0)
(3 -3.38806e-16 0)
(3 7.80196e-17 0)
(3 -2.39796e-16 0)
(3 -6.44265e-16 0)
(3 -6.15997e-16 0)
(3 6.25057e-16 0)
(3 9.17857e-16 0)
(3 -1.38187e-15 0)
(3 -7.33131e-16 0)
(3 -1.72088e-17 0)
(3 8.17835e-16 0)
(3 7.18426e-16 0)
(3 1.20993e-15 0)
(3 5.9204e-16 0)
(3 1.4174e-16 0)
(3 -1.52847e-16 0)
(3 -5.36124e-16 0)
(3 -9.64661e-16 0)
(3 -4.55598e-16 0)
(3 1.09058e-15 0)
(3 2.95595e-15 0)
(3 2.06756e-15 0)
(3 1.22775e-15 0)
(3 -2.51323e-16 0)
(3 -6.54318e-16 0)
(3 -7.88074e-16 0)
(3 4.83832e-16 0)
(3 1.30754e-15 0)
(3 1.43238e-15 0)
(3 1.59667e-15 0)
(3 1.83955e-15 0)
(3 2.84959e-15 0)
(3 2.64623e-15 0)
(3 1.94538e-15 0)
(3 7.78748e-16 0)
(3 -3.0505e-16 0)
(3 -1.80241e-16 0)
(3 -1.15578e-15 0)
(3 -2.11036e-15 0)
(3 -8.80232e-16 0)
(3 -7.2035e-16 0)
(3 -1.23194e-15 0)
(3 -2.04523e-15 0)
(3 -1.79218e-15 0)
(3 -3.45648e-15 0)
(1.81299 0.0815631 0)
(0.742636 0.0903991 0)
(0.641344 0.110642 0)
(0.620404 0.0945792 0)
(0.601863 0.0790606 0)
(0.588669 0.0713887 0)
(0.576604 0.0775815 0)
(0.561115 0.0878409 0)
(0.540266 0.0898111 0)
(0.513848 0.0856195 0)
(0.48313 0.0848976 0)
(0.459417 0.0884721 0)
(0.444768 0.0911725 0)
(0.43803 0.0940516 0)
(0.433086 0.0968243 0)
(0.427892 0.096841 0)
(0.415952 0.0966511 0)
(0.398102 0.0975523 0)
(0.373974 0.0982654 0)
(0.347817 0.0984255 0)
(0.322686 0.0994392 0)
(0.298695 0.100417 0)
(0.274119 0.101716 0)
(0.253835 0.101999 0)
(0.237039 0.10135 0)
(0.223133 0.101689 0)
(0.209728 0.101286 0)
(0.193329 0.100471 0)
(0.171373 0.100154 0)
(0.144806 0.10256 0)
(0.118111 0.106066 0)
(0.0953276 0.109537 0)
(0.0774621 0.112405 0)
(0.0625692 0.114805 0)
(0.0476916 0.116195 0)
(0.030736 0.11756 0)
(0.0116497 0.120279 0)
(3 1.81907e-16 0)
(3 4.43494e-16 0)
(3 6.63132e-17 0)
(3 3.63274e-16 0)
(3 2.86452e-16 0)
(3 4.86937e-16 0)
(3 7.09567e-16 0)
(3 6.90625e-16 0)
(3 2.90477e-17 0)
(3 -2.18535e-16 0)
(3 9.29541e-16 0)
(3 1.2772e-15 0)
(3 5.48226e-16 0)
(3 -2.08195e-16 0)
(3 -7.70972e-16 0)
(3 -5.63865e-16 0)
(3 4.5596e-16 0)
(3 7.35705e-16 0)
(3 -5.21655e-17 0)
(3 -1.85103e-16 0)
(3 -9.33805e-16 0)
(3 -4.90943e-16 0)
(3 -3.9165e-17 0)
(3 -2.27477e-16 0)
(3 4.76851e-16 0)
(3 2.02558e-15 0)
(3 2.63535e-15 0)
(3 1.96533e-15 0)
(3 1.64838e-15 0)
(3 1.37858e-15 0)
(3 5.78356e-16 0)
(3 -5.25792e-16 0)
(3 -3.77185e-16 0)
(3 -3.15496e-19 0)
(3 -9.6161e-17 0)
(3 -4.23555e-16 0)
(3 -6.94921e-16 0)
(3 -1.21452e-15 0)
(3 -1.40357e-15 0)
(3 -2.13565e-15 0)
(3 -4.70705e-16 0)
(3 1.57127e-15 0)
(3 2.33531e-15 0)
(3 1.12951e-15 0)
(3 7.7776e-16 0)
(3 1.76477e-15 0)
(3 3.81085e-15 0)
(3 3.88982e-15 0)
(3 3.5436e-15 0)
(3 2.75258e-15 0)
(3 2.22954e-15 0)
(3 7.03976e-17 0)
(3 -1.44769e-15 0)
(3 -2.34875e-15 0)
(3 -2.03114e-15 0)
(3 -2.04563e-15 0)
(3 -9.96152e-16 0)
(3 -2.14074e-16 0)
(3 -5.65495e-15 0)
(1.89745 0.0976911 0)
(0.750621 0.117217 0)
(0.639128 0.125774 0)
(0.622883 0.107176 0)
(0.605414 0.0905878 0)
(0.591688 0.0840746 0)
(0.578165 0.092363 0)
(0.561117 0.10411 0)
(0.540932 0.106065 0)
(0.51627 0.101568 0)
(0.487013 0.100851 0)
(0.463923 0.10503 0)
(0.44914 0.108495 0)
(0.441756 0.111665 0)
(0.435335 0.114473 0)
(0.429566 0.11409 0)
(0.417226 0.113803 0)
(0.399684 0.114938 0)
(0.376098 0.116042 0)
(0.350651 0.11644 0)
(0.325896 0.117798 0)
(0.301811 0.119161 0)
(0.276871 0.12079 0)
(0.256043 0.121328 0)
(0.238796 0.120769 0)
(0.224619 0.121485 0)
(0.211091 0.121322 0)
(0.194664 0.120549 0)
(0.17268 0.120391 0)
(0.14613 0.122893 0)
(0.11953 0.126182 0)
(0.0968623 0.129498 0)
(0.0790074 0.132117 0)
(0.0639155 0.134282 0)
(0.0487135 0.135712 0)
(0.0313473 0.137047 0)
(0.0116454 0.140003 0)
(3 2.36711e-16 0)
(3 1.18136e-16 0)
(3 1.97412e-16 0)
(3 8.00207e-16 0)
(3 4.61457e-16 0)
(3 4.86522e-16 0)
(3 3.05701e-16 0)
(3 2.29749e-16 0)
(3 -2.50653e-16 0)
(3 -4.48103e-16 0)
(3 -1.66978e-16 0)
(3 3.91098e-16 0)
(3 8.72546e-16 0)
(3 5.32878e-16 0)
(3 2.97815e-16 0)
(3 5.43895e-17 0)
(3 7.31215e-16 0)
(3 2.14465e-15 0)
(3 2.25693e-15 0)
(3 1.41823e-15 0)
(3 3.57166e-16 0)
(3 -1.13163e-15 0)
(3 -1.24938e-15 0)
(3 -1.69979e-15 0)
(3 -2.62095e-15 0)
(3 -1.78341e-15 0)
(3 -4.04612e-16 0)
(3 3.29035e-16 0)
(3 -5.02485e-17 0)
(3 1.34815e-16 0)
(3 -9.41827e-16 0)
(3 -1.24651e-15 0)
(3 -1.28929e-15 0)
(3 -1.46313e-15 0)
(3 -1.78766e-15 0)
(3 -3.00807e-15 0)
(3 -2.95588e-15 0)
(3 -2.82761e-15 0)
(3 -1.96956e-15 0)
(3 -1.23773e-15 0)
(3 -9.48679e-16 0)
(3 3.75063e-16 0)
(3 4.97934e-16 0)
(3 1.07572e-15 0)
(3 1.74455e-15 0)
(3 2.04019e-15 0)
(3 2.0244e-15 0)
(3 2.03936e-15 0)
(3 1.91238e-15 0)
(3 2.0787e-15 0)
(3 1.84263e-15 0)
(3 9.3967e-16 0)
(3 -9.11492e-16 0)
(3 -1.63665e-15 0)
(3 -8.46108e-16 0)
(3 -6.21258e-16 0)
(3 2.96583e-16 0)
(3 -5.53554e-17 0)
(3 -6.62773e-15 0)
(1.99665 0.115341 0)
(0.759316 0.146473 0)
(0.638304 0.138716 0)
(0.627552 0.11787 0)
(0.610376 0.10092 0)
(0.595243 0.0969169 0)
(0.580085 0.108234 0)
(0.561826 0.121193 0)
(0.542277 0.122462 0)
(0.519886 0.117531 0)
(0.49202 0.116997 0)
(0.469276 0.121896 0)
(0.45412 0.126232 0)
(0.445855 0.129396 0)
(0.437714 0.13213 0)
(0.431279 0.131261 0)
(0.418559 0.130878 0)
(0.401326 0.132244 0)
(0.378298 0.133794 0)
(0.353528 0.134454 0)
(0.329104 0.136109 0)
(0.30492 0.13781 0)
(0.279688 0.139736 0)
(0.258388 0.140552 0)
(0.24079 0.140148 0)
(0.226453 0.141312 0)
(0.212922 0.141495 0)
(0.196642 0.140877 0)
(0.174865 0.140998 0)
(0.148529 0.143687 0)
(0.122052 0.146965 0)
(0.0993897 0.149913 0)
(0.081354 0.152077 0)
(0.0658072 0.154039 0)
(0.0501103 0.155441 0)
(0.0321675 0.156622 0)
(0.0117287 0.159774 0)
(3 -2.161e-16 0)
(3 -7.77251e-16 0)
(3 -9.78865e-16 0)
(3 -1.48589e-15 0)
(3 -6.94014e-16 0)
(3 -1.75123e-15 0)
(3 -2.04125e-15 0)
(3 -1.44981e-15 0)
(3 -1.31461e-15 0)
(3 -6.02193e-16 0)
(3 -2.95838e-17 0)
(3 3.29528e-16 0)
(3 9.50046e-16 0)
(3 1.36844e-15 0)
(3 1.43827e-15 0)
(3 5.16734e-16 0)
(3 3.32482e-17 0)
(3 6.00973e-16 0)
(3 1.54976e-15 0)
(3 2.40143e-15 0)
(3 2.46158e-15 0)
(3 1.70389e-16 0)
(3 -9.92969e-16 0)
(3 -8.52957e-16 0)
(3 -3.76853e-16 0)
(3 -1.40364e-15 0)
(3 -1.46902e-15 0)
(3 -4.0565e-16 0)
(3 -2.44205e-15 0)
(3 -3.21428e-15 0)
(3 -2.9677e-15 0)
(3 -2.1025e-15 0)
(3 -1.76226e-15 0)
(3 -1.75722e-15 0)
(3 -1.85463e-15 0)
(3 -1.76655e-15 0)
(3 -1.62567e-15 0)
(3 -1.4921e-15 0)
(3 -1.73957e-15 0)
(3 -1.56867e-15 0)
(3 -1.23484e-15 0)
(3 -9.62415e-16 0)
(3 2.07006e-16 0)
(3 -6.81091e-17 0)
(3 3.4155e-16 0)
(3 7.29496e-16 0)
(3 7.47206e-16 0)
(3 7.10863e-16 0)
(3 -3.38038e-16 0)
(3 -3.92793e-16 0)
(3 7.98326e-16 0)
(3 1.3242e-15 0)
(3 4.05971e-16 0)
(3 9.56073e-16 0)
(3 1.23182e-15 0)
(3 1.85366e-15 0)
(3 1.9779e-15 0)
(3 7.25998e-16 0)
(3 -4.9803e-16 0)
(2.11624 0.133908 0)
(0.77112 0.176253 0)
(0.641221 0.150594 0)
(0.635038 0.125963 0)
(0.616217 0.110529 0)
(0.598847 0.110785 0)
(0.581988 0.12612 0)
(0.562686 0.139207 0)
(0.544544 0.138873 0)
(0.524332 0.133512 0)
(0.497755 0.133289 0)
(0.475179 0.139073 0)
(0.459379 0.144418 0)
(0.449674 0.147302 0)
(0.440216 0.149799 0)
(0.432941 0.14848 0)
(0.420028 0.148 0)
(0.40331 0.149602 0)
(0.380947 0.1516 0)
(0.356777 0.152507 0)
(0.332545 0.154384 0)
(0.308158 0.156349 0)
(0.282627 0.158542 0)
(0.260854 0.159648 0)
(0.242934 0.159442 0)
(0.228466 0.161081 0)
(0.214961 0.16165 0)
(0.198912 0.161285 0)
(0.177533 0.161807 0)
(0.151675 0.164802 0)
(0.125549 0.168207 0)
(0.102895 0.170977 0)
(0.0845134 0.172635 0)
(0.068355 0.17429 0)
(0.051928 0.175498 0)
(0.0331543 0.176489 0)
(0.0118968 0.179831 0)
(3 2.79937e-17 0)
(3 1.48247e-16 0)
(3 -1.3884e-15 0)
(3 -1.92406e-15 0)
(3 -1.6626e-15 0)
(3 -2.13967e-15 0)
(3 -2.83324e-15 0)
(3 -2.38042e-15 0)
(3 -6.03833e-16 0)
(3 1.80096e-16 0)
(3 5.45595e-16 0)
(3 6.67397e-16 0)
(3 7.70598e-16 0)
(3 1.55002e-15 0)
(3 2.0731e-15 0)
(3 1.62789e-15 0)
(3 5.05283e-16 0)
(3 -3.89581e-16 0)
(3 -2.60287e-16 0)
(3 1.15468e-16 0)
(3 -1.09586e-16 0)
(3 -7.15971e-16 0)
(3 -1.84686e-15 0)
(3 -1.21459e-15 0)
(3 6.01181e-16 0)
(3 5.40685e-16 0)
(3 -1.69916e-17 0)
(3 -1.43108e-15 0)
(3 -2.84971e-15 0)
(3 -3.36921e-15 0)
(3 -2.64893e-15 0)
(3 -1.98851e-15 0)
(3 -2.24692e-15 0)
(3 -2.79851e-15 0)
(3 -3.01782e-15 0)
(3 -2.62474e-15 0)
(3 -1.28128e-15 0)
(3 -1.61897e-15 0)
(3 -2.28943e-15 0)
(3 -2.73371e-15 0)
(3 -1.42526e-15 0)
(3 2.23244e-16 0)
(3 4.03079e-16 0)
(3 1.13555e-15 0)
(3 3.86705e-16 0)
(3 1.61282e-16 0)
(3 3.63272e-16 0)
(3 -6.51421e-16 0)
(3 -7.60948e-16 0)
(3 -6.86665e-16 0)
(3 4.02296e-17 0)
(3 5.49488e-16 0)
(3 5.35196e-16 0)
(3 1.77233e-15 0)
(3 2.10652e-15 0)
(3 1.55113e-15 0)
(3 5.14746e-16 0)
(3 -2.55821e-16 0)
(3 -5.10443e-15 0)
(2.26482 0.15161 0)
(0.788332 0.204331 0)
(0.648393 0.160223 0)
(0.644599 0.131965 0)
(0.622521 0.12073 0)
(0.602264 0.127106 0)
(0.583767 0.146899 0)
(0.563624 0.157923 0)
(0.547921 0.15492 0)
(0.529429 0.149398 0)
(0.504078 0.149782 0)
(0.481541 0.156637 0)
(0.464839 0.162872 0)
(0.453309 0.165208 0)
(0.442843 0.167262 0)
(0.434762 0.165693 0)
(0.421926 0.165205 0)
(0.405818 0.1671 0)
(0.384104 0.16954 0)
(0.360348 0.170697 0)
(0.33611 0.172738 0)
(0.311426 0.174877 0)
(0.285647 0.177293 0)
(0.263448 0.178682 0)
(0.245249 0.178686 0)
(0.230644 0.18078 0)
(0.217124 0.181719 0)
(0.201316 0.181639 0)
(0.180488 0.18265 0)
(0.155357 0.186089 0)
(0.1298 0.189787 0)
(0.107221 0.192472 0)
(0.0883568 0.193891 0)
(0.0713259 0.195125 0)
(0.0538916 0.196109 0)
(0.0341121 0.196869 0)
(0.0120908 0.200388 0)
(3 1.22304e-16 0)
(3 -3.61176e-16 0)
(3 -5.22073e-16 0)
(3 -6.87692e-16 0)
(3 -1.19491e-15 0)
(3 -1.23899e-15 0)
(3 -1.25896e-15 0)
(3 -1.68131e-15 0)
(3 -1.77122e-15 0)
(3 -7.82606e-16 0)
(3 -4.31065e-17 0)
(3 8.44428e-16 0)
(3 1.3126e-15 0)
(3 1.33516e-15 0)
(3 1.31067e-15 0)
(3 1.59951e-15 0)
(3 1.64038e-15 0)
(3 6.24522e-16 0)
(3 2.62633e-16 0)
(3 -8.18439e-16 0)
(3 -2.10842e-15 0)
(3 -2.64197e-15 0)
(3 -2.20876e-15 0)
(3 -6.39227e-16 0)
(3 -1.35466e-16 0)
(3 9.77525e-16 0)
(3 6.40433e-16 0)
(3 -7.03251e-16 0)
(3 -8.02229e-16 0)
(3 -1.5183e-15 0)
(3 -1.40206e-15 0)
(3 -8.95681e-16 0)
(3 -1.23933e-15 0)
(3 -2.29957e-15 0)
(3 -2.43399e-15 0)
(3 -2.76263e-15 0)
(3 -2.61972e-15 0)
(3 -1.60265e-15 0)
(3 -9.37862e-16 0)
(3 -1.46882e-15 0)
(3 -1.70236e-15 0)
(3 -8.38142e-16 0)
(3 2.2595e-16 0)
(3 2.96389e-15 0)
(3 3.19376e-15 0)
(3 1.92004e-15 0)
(3 -8.68557e-16 0)
(3 -1.0484e-15 0)
(3 -4.29009e-16 0)
(3 3.57738e-16 0)
(3 5.44659e-17 0)
(3 -1.44572e-16 0)
(3 4.54443e-16 0)
(3 5.58782e-16 0)
(3 2.02193e-16 0)
(3 -7.77567e-16 0)
(3 -1.19485e-15 0)
(3 -8.37427e-16 0)
(3 -5.15306e-15 0)
(2.45347 0.157888 0)
(0.818806 0.226958 0)
(0.65707 0.169274 0)
(0.654521 0.137985 0)
(0.629383 0.132687 0)
(0.605413 0.147476 0)
(0.584208 0.170477 0)
(0.564207 0.176474 0)
(0.552061 0.170531 0)
(0.535186 0.165229 0)
(0.511049 0.166536 0)
(0.488271 0.174517 0)
(0.470251 0.181326 0)
(0.456747 0.18303 0)
(0.445218 0.184482 0)
(0.436548 0.182959 0)
(0.42409 0.182619 0)
(0.408676 0.184851 0)
(0.387656 0.187656 0)
(0.364215 0.189026 0)
(0.339867 0.191178 0)
(0.314857 0.193408 0)
(0.288948 0.196024 0)
(0.266355 0.197723 0)
(0.247863 0.197956 0)
(0.233031 0.200455 0)
(0.21939 0.201706 0)
(0.203784 0.20189 0)
(0.183652 0.203425 0)
(0.159493 0.207376 0)
(0.134596 0.211421 0)
(0.112069 0.214316 0)
(0.0926172 0.215632 0)
(0.0744599 0.216638 0)
(0.0558041 0.217399 0)
(0.0349181 0.217902 0)
(0.0122764 0.221596 0)
(3 -1.0867e-17 0)
(3 2.37172e-17 0)
(3 9.0178e-16 0)
(3 5.58303e-16 0)
(3 1.25767e-16 0)
(3 4.08357e-16 0)
(3 9.30688e-16 0)
(3 7.87332e-16 0)
(3 -9.75167e-17 0)
(3 9.76572e-17 0)
(3 -2.41256e-16 0)
(3 8.09743e-16 0)
(3 1.27397e-15 0)
(3 1.78836e-15 0)
(3 1.19518e-15 0)
(3 1.07361e-16 0)
(3 -2.64005e-17 0)
(3 1.75554e-16 0)
(3 -1.01768e-16 0)
(3 -4.56764e-16 0)
(3 -8.43507e-16 0)
(3 -2.55718e-16 0)
(3 1.91744e-16 0)
(3 -3.22999e-17 0)
(3 -2.90555e-16 0)
(3 2.71703e-17 0)
(3 6.53704e-16 0)
(3 6.28881e-16 0)
(3 5.5557e-16 0)
(3 8.98432e-16 0)
(3 -5.56507e-16 0)
(3 -6.00603e-16 0)
(3 -1.27126e-15 0)
(3 -1.753e-15 0)
(3 -2.73748e-15 0)
(3 -2.49745e-15 0)
(3 -2.02485e-15 0)
(3 -1.2254e-15 0)
(3 -5.03109e-16 0)
(3 -1.11975e-15 0)
(3 -2.28061e-15 0)
(3 -2.3684e-15 0)
(3 8.55807e-16 0)
(3 2.62055e-15 0)
(3 3.78434e-15 0)
(3 9.92112e-16 0)
(3 -7.22782e-16 0)
(3 2.25593e-16 0)
(3 2.82501e-16 0)
(3 1.16348e-17 0)
(3 -1.7498e-16 0)
(3 -3.43648e-16 0)
(3 4.02767e-16 0)
(3 -5.34558e-16 0)
(3 -1.60273e-15 0)
(3 -1.90439e-15 0)
(3 -2.23586e-16 0)
(3 3.8603e-16 0)
(3 -1.41585e-15 0)
(2.66314 0.145814 0)
(0.866874 0.240061 0)
(0.667944 0.176258 0)
(0.662957 0.144591 0)
(0.634129 0.148331 0)
(0.605603 0.172585 0)
(0.582107 0.194404 0)
(0.564796 0.194066 0)
(0.557135 0.185806 0)
(0.542138 0.180915 0)
(0.518931 0.183459 0)
(0.495268 0.192502 0)
(0.475405 0.199643 0)
(0.459936 0.200538 0)
(0.447458 0.201536 0)
(0.438542 0.200333 0)
(0.426774 0.200241 0)
(0.412127 0.202798 0)
(0.391808 0.205844 0)
(0.368532 0.207397 0)
(0.34389 0.209683 0)
(0.318448 0.211993 0)
(0.292523 0.214833 0)
(0.269545 0.216892 0)
(0.250728 0.217375 0)
(0.235549 0.2202 0)
(0.221666 0.221685 0)
(0.206233 0.222092 0)
(0.18694 0.224165 0)
(0.163978 0.228692 0)
(0.139847 0.233308 0)
(0.117293 0.236604 0)
(0.0970407 0.23801 0)
(0.0775679 0.238855 0)
(0.057559 0.23941 0)
(0.0355251 0.239668 0)
(0.0124332 0.243567 0)
(3 6.40181e-17 0)
(3 8.94471e-16 0)
(3 1.59704e-15 0)
(3 1.60428e-15 0)
(3 1.20651e-15 0)
(3 1.001e-15 0)
(3 1.389e-15 0)
(3 2.23385e-15 0)
(3 2.49899e-15 0)
(3 2.0221e-15 0)
(3 1.10764e-15 0)
(3 -3.99443e-16 0)
(3 7.00025e-16 0)
(3 1.53975e-15 0)
(3 1.81247e-15 0)
(3 1.57313e-15 0)
(3 5.62734e-16 0)
(3 2.16408e-16 0)
(3 -2.32388e-17 0)
(3 -1.04507e-16 0)
(3 1.43545e-16 0)
(3 -2.24863e-16 0)
(3 -5.98072e-16 0)
(3 -7.71905e-16 0)
(3 -1.07351e-15 0)
(3 -6.75716e-16 0)
(3 -4.65963e-16 0)
(3 -1.75808e-16 0)
(3 1.45409e-15 0)
(3 2.00135e-15 0)
(3 1.84077e-15 0)
(3 -6.21546e-16 0)
(3 -3.66755e-15 0)
(3 -3.50392e-15 0)
(3 -3.39789e-15 0)
(3 -2.52058e-15 0)
(3 -1.67054e-15 0)
(3 -2.19081e-15 0)
(3 -2.5296e-15 0)
(3 -2.44436e-15 0)
(3 -1.6709e-15 0)
(3 -7.2823e-16 0)
(3 2.00746e-16 0)
(3 1.07766e-15 0)
(3 1.68049e-15 0)
(3 7.07529e-16 0)
(3 -4.90277e-16 0)
(3 -5.37099e-16 0)
(3 3.96168e-16 0)
(3 3.81914e-16 0)
(3 4.55501e-16 0)
(3 8.36976e-16 0)
(3 1.70405e-15 0)
(3 4.4371e-16 0)
(3 -1.07411e-15 0)
(3 -6.77592e-16 0)
(3 3.84119e-17 0)
(3 8.5801e-16 0)
(3 6.19424e-16 0)
(2.85493 0.109746 0)
(0.935279 0.235174 0)
(0.681038 0.172942 0)
(0.667324 0.153819 0)
(0.635021 0.171101 0)
(0.60334 0.201737 0)
(0.580069 0.215956 0)
(0.567416 0.210413 0)
(0.563021 0.201021 0)
(0.549959 0.196497 0)
(0.527198 0.200705 0)
(0.501933 0.21078 0)
(0.480027 0.217667 0)
(0.462994 0.217697 0)
(0.449912 0.21842 0)
(0.441114 0.217755 0)
(0.430249 0.217975 0)
(0.416327 0.22087 0)
(0.39665 0.224052 0)
(0.373372 0.225771 0)
(0.348257 0.228249 0)
(0.322358 0.23067 0)
(0.296533 0.233753 0)
(0.273246 0.23622 0)
(0.254052 0.236992 0)
(0.238365 0.240064 0)
(0.224098 0.241733 0)
(0.208821 0.242341 0)
(0.190508 0.244973 0)
(0.168928 0.250184 0)
(0.145619 0.25553 0)
(0.122905 0.259352 0)
(0.101643 0.260981 0)
(0.0806799 0.261742 0)
(0.0592258 0.262141 0)
(0.0360131 0.262216 0)
(0.0125776 0.266387 0)
(3 2.12874e-16 0)
(3 5.27935e-16 0)
(3 1.05563e-15 0)
(3 5.40399e-16 0)
(3 2.13853e-16 0)
(3 2.21453e-16 0)
(3 8.34148e-16 0)
(3 2.40789e-15 0)
(3 2.42311e-15 0)
(3 1.39586e-15 0)
(3 1.52139e-16 0)
(3 -7.34465e-16 0)
(3 -7.8655e-16 0)
(3 -7.82597e-16 0)
(3 -5.16541e-16 0)
(3 3.85169e-16 0)
(3 9.14551e-16 0)
(3 1.10124e-15 0)
(3 8.46856e-16 0)
(3 1.88488e-16 0)
(3 -3.91609e-16 0)
(3 -2.00784e-16 0)
(3 -2.26168e-16 0)
(3 -5.15553e-16 0)
(3 -1.72365e-15 0)
(3 -2.32452e-15 0)
(3 -2.35931e-15 0)
(3 -1.60749e-15 0)
(3 -4.50336e-17 0)
(3 6.02207e-16 0)
(3 8.65565e-16 0)
(3 -2.02208e-16 0)
(3 -1.56562e-15 0)
(3 -2.38633e-15 0)
(3 -1.22827e-15 0)
(3 7.30735e-17 0)
(3 -1.87588e-16 0)
(3 -1.2043e-15 0)
(3 -1.62549e-15 0)
(3 -1.74534e-15 0)
(3 -1.52618e-15 0)
(3 -6.79838e-16 0)
(3 6.02098e-16 0)
(3 8.70266e-16 0)
(3 8.42295e-16 0)
(3 1.03962e-15 0)
(3 -8.17981e-16 0)
(3 -1.98316e-15 0)
(3 -1.30489e-15 0)
(3 -4.22683e-16 0)
(3 -3.46931e-17 0)
(3 5.1297e-16 0)
(3 1.12599e-15 0)
(3 1.159e-15 0)
(3 9.9286e-16 0)
(3 4.95095e-16 0)
(3 9.81672e-16 0)
(3 1.82714e-15 0)
(3 4.12157e-16 0)
(2.98021 0.0231236 0)
(1.02781 0.220947 0)
(0.698471 0.167379 0)
(0.670936 0.173586 0)
(0.631299 0.202183 0)
(0.599198 0.231363 0)
(0.580089 0.234028 0)
(0.573208 0.225595 0)
(0.570082 0.215852 0)
(0.558427 0.211569 0)
(0.536061 0.218081 0)
(0.508722 0.229026 0)
(0.484787 0.235356 0)
(0.466745 0.234504 0)
(0.453255 0.235112 0)
(0.444675 0.235126 0)
(0.434686 0.235743 0)
(0.421213 0.239042 0)
(0.402067 0.242291 0)
(0.378642 0.244135 0)
(0.352945 0.246856 0)
(0.326631 0.249442 0)
(0.300985 0.252794 0)
(0.277447 0.25575 0)
(0.257743 0.256885 0)
(0.241313 0.260145 0)
(0.226514 0.261994 0)
(0.211418 0.26283 0)
(0.194251 0.266069 0)
(0.17418 0.272077 0)
(0.151649 0.278236 0)
(0.128602 0.282662 0)
(0.106168 0.284581 0)
(0.0836392 0.285304 0)
(0.0607647 0.285592 0)
(0.0364237 0.285555 0)
(0.0127114 0.290083 0)
(3 5.87327e-17 0)
(3 -8.73947e-17 0)
(3 -6.55682e-16 0)
(3 -1.19121e-15 0)
(3 -6.65208e-16 0)
(3 -1.90597e-16 0)
(3 3.65623e-16 0)
(3 6.82275e-16 0)
(3 -1.66988e-17 0)
(3 -3.34759e-16 0)
(3 -6.15462e-16 0)
(3 -1.5539e-16 0)
(3 -1.72829e-15 0)
(3 -1.57245e-15 0)
(3 -1.07701e-15 0)
(3 -2.79975e-16 0)
(3 3.2352e-16 0)
(3 5.89799e-16 0)
(3 8.69347e-16 0)
(3 9.34755e-16 0)
(3 1.34741e-15 0)
(3 1.03478e-15 0)
(3 3.76728e-16 0)
(3 -1.25723e-16 0)
(3 -6.99246e-16 0)
(3 -1.62343e-15 0)
(3 -3.01764e-15 0)
(3 -3.0826e-15 0)
(3 -1.87905e-15 0)
(3 -2.3528e-16 0)
(3 4.76822e-16 0)
(3 1.13623e-16 0)
(3 -1.52356e-16 0)
(3 -5.10381e-16 0)
(3 5.40185e-16 0)
(3 5.71867e-16 0)
(3 8.18262e-16 0)
(3 7.02294e-17 0)
(3 -8.50557e-17 0)
(3 -1.032e-15 0)
(3 -1.11614e-15 0)
(3 -2.32522e-16 0)
(3 3.66781e-16 0)
(3 1.84187e-16 0)
(3 6.99338e-16 0)
(3 1.11563e-15 0)
(3 -5.74198e-16 0)
(3 -4.56142e-16 0)
(3 9.26445e-16 0)
(3 8.60403e-16 0)
(3 7.96134e-16 0)
(3 1.07939e-15 0)
(3 3.75475e-16 0)
(3 -2.49611e-18 0)
(3 4.06341e-16 0)
(3 4.10825e-16 0)
(3 1.14003e-15 0)
(3 1.8524e-15 0)
(3 8.62564e-16 0)
(3.00034 0.000598211 0)
(1.16033 0.216599 0)
(0.70584 0.172943 0)
(0.665569 0.20128 0)
(0.62869 0.23646 0)
(0.598065 0.25606 0)
(0.583873 0.250558 0)
(0.582252 0.238964 0)
(0.57924 0.228571 0)
(0.567388 0.226298 0)
(0.545304 0.23542 0)
(0.515697 0.247542 0)
(0.489906 0.252915 0)
(0.471348 0.251112 0)
(0.457521 0.251702 0)
(0.449148 0.252438 0)
(0.4399 0.253532 0)
(0.426668 0.257289 0)
(0.407982 0.260538 0)
(0.384388 0.262437 0)
(0.358153 0.265434 0)
(0.33154 0.268265 0)
(0.306096 0.271917 0)
(0.282355 0.275453 0)
(0.261999 0.277042 0)
(0.244628 0.280464 0)
(0.229266 0.282537 0)
(0.214493 0.283665 0)
(0.198654 0.287532 0)
(0.180153 0.294345 0)
(0.158287 0.301358 0)
(0.134681 0.306451 0)
(0.110896 0.308724 0)
(0.0867737 0.309521 0)
(0.062515 0.30978 0)
(0.037047 0.309708 0)
(0.0129277 0.314674 0)
(3 -5.27735e-16 0)
(3 -1.61886e-15 0)
(3 -2.19706e-15 0)
(3 -1.48578e-15 0)
(3 -1.13189e-15 0)
(3 -6.71539e-16 0)
(3 -9.30925e-16 0)
(3 -1.74015e-15 0)
(3 -1.71194e-15 0)
(3 -1.64242e-15 0)
(3 -1.00593e-15 0)
(3 -4.3223e-16 0)
(3 -3.49824e-16 0)
(3 8.84855e-16 0)
(3 1.14672e-15 0)
(3 -6.11347e-17 0)
(3 -1.20627e-16 0)
(3 -1.89746e-16 0)
(3 -1.62498e-16 0)
(3 3.69602e-16 0)
(3 1.33337e-15 0)
(3 8.29304e-16 0)
(3 7.44659e-17 0)
(3 -1.17804e-15 0)
(3 -1.30464e-15 0)
(3 -9.35835e-16 0)
(3 -1.51299e-15 0)
(3 -1.51131e-15 0)
(3 -2.4669e-15 0)
(3 -1.79451e-15 0)
(3 3.94682e-16 0)
(3 -4.94352e-16 0)
(3 -7.97674e-16 0)