/*--------------------------------*- C++ -*----------------------------------*\
  =========                 |
  \\      /  F ield         | OpenFOAM: The Open Source CFD Toolbox
   \\    /   O peration     | Website:  https://openfoam.org
    \\  /    A nd           | Version:  7
     \\/     M anipulation  |
\*---------------------------------------------------------------------------*/
FoamFile
{
    version     2.0;
    format      ascii;
    class       volScalarField;
    location    "3.4";
    object      p;
}
// * * * * * * * * * * * * * * * * * * * * * * * * * * * * * * * * * * * * * //

dimensions      [1 -1 -2 0 0 0 0];

internalField   nonuniform List<scalar> 
16128
(
1
1
1
1
1
1
1
1
1
1
1
1
1
1
1
1
1
1
1
1
1
1
1
1
4.38373
10.1223
10.5284
10.6125
10.7351
10.8402
10.9421
11.0385
11.1314
11.2214
11.3075
11.3894
11.4677
11.5429
11.6136
11.6788
11.7397
11.7974
11.8509
11.8987
11.9401
11.9728
11.9967
12.0134
1
1
1
1
1
1
1
1
1
1
1
1
1
1
1
1
1
1
1
1
1
1
1
1
4.31171
10.0795
10.5215
10.6092
10.7311
10.836
10.9375
11.0334
11.1259
11.2156
11.3014
11.3829
11.4605
11.5349
11.6049
11.6692
11.7291
11.7858
11.8382
11.8851
11.9258
11.9582
11.9821
11.9989
1
1
1
1
1
1
1
1
1
1
1
1
1
1
1
1
1
1
1
1
1
1
1
1
4.14894
10.0253
10.5044
10.5968
10.7185
10.8241
10.926
11.0221
11.1144
11.204
11.2896
11.3709
11.448
11.5219
11.5913
11.6548
11.7138
11.7692
11.8199
11.865
11.904
11.9352
11.9583
11.9747
1
1
1
1
1
1
1
1
1
1
1
1
1
1
1
1
1
1
1
1
1
1
1
1
3.91252
9.93888
10.4852
10.5815
10.7023
10.8078
10.9091
11.0047
11.0962
11.1853
11.2703
11.3511
11.4275
11.5005
11.5689
11.6313
11.6889
11.7427
11.7917
11.8351
11.8726
11.9027
11.9249
11.941
1
1
1
1
1
1
1
1
1
1
1
1
1
1
1
1
1
1
1
1
1
1
1
1
3.60904
9.80776
10.4632
10.5622
10.6822
10.7873
10.8883
10.9833
11.0742
11.1626
11.2468
11.3269
11.4024
11.4742
11.5413
11.6024
11.6583
11.71
11.7567
11.7973
11.8321
11.8601
11.8803
11.8955
1
1
1
1
1
1
1
1
1
1
1
1
1
1
1
1
1
1
1
1
1
1
1
1
3.24481
9.61674
10.4396
10.5385
10.6579
10.7617
10.8615
10.9554
11.0447
11.1317
11.2145
11.2932
11.3672
11.4375
11.503
11.5627
11.6171
11.6672
11.7122
11.7508
11.7831
11.8089
11.8264
11.8404
1
1
1
1
1
1
1
1
1
1
1
1
1
1
1
1
1
1
1
1
1
1
1
1
2.8276
9.34562
10.4179
10.5135
10.631
10.7322
10.8298
10.9214
11.0082
11.0927
11.1731
11.2498
11.3219
11.3904
11.4542
11.5123
11.5651
11.6134
11.6565
11.693
11.7228
11.7464
11.7612
11.7739
1
1
1
1
1
1
1
1
1
1
1
1
1
1
1
1
1
1
1
1
1
1
1
1
2.38447
8.97917
10.4128
10.4893
10.6063
10.7042
10.799
10.8875
10.9708
11.0516
11.1289
11.2024
11.2712
11.3362
11.3967
11.4521
11.5025
11.5485
11.5893
11.6234
11.6499
11.6703
11.6817
11.6922
1
1
1
1
1
1
1
1
1
1
1
1
1
1
1
1
1
1
1
1
1
1
1
1
1.92923
8.48287
10.4194
10.4711
10.5814
10.671
10.7615
10.8473
10.9284
11.0058
11.0802
11.1503
11.2152
11.2754
11.3309
11.3816
11.4275
11.4689
11.5057
11.5364
11.5599
11.5783
11.5878
11.5975
1
1
1
1
1
1
1
1
1
1
1
1
1
1
1
1
1
1
1
1
1
1
1
1
1.49118
7.89266
10.4443
10.4286
10.5368
10.6253
10.7155
10.799
10.8774
10.952
11.0238
11.0907
11.1519
11.2071
11.257
11.302
11.3423
11.3785
11.4105
11.4366
11.4549
11.4671
11.4713
11.4765
1
1
1
1
1
1
1
1
1
1
1
1
1
1
1
1
1
1
1
1
1
1
1
1
1.11801
7.16492
10.4247
10.3902
10.4854
10.565
10.6505
10.7337
10.8136
10.8867
10.9553
11.0192
11.077
11.1274
11.1716
11.21
11.2429
11.2704
11.293
11.3102
11.3209
11.3279
11.3301
11.3362
1
1
1
1
1
1
1
1
1
1
1
1
1
1
1
1
1
1
1
1
1
1
1
1
1.00336
6.26283
10.2071
10.2872
10.4003
10.4954
10.5833
10.6643
10.7356
10.8083
10.8758
10.9365
10.9907
11.0363
11.0744
11.1053
11.1291
11.1469
11.1601
11.1684
11.1699
11.1634
11.15
11.1402
1
1
1
1
1
1
1
1
1
1
1
1
1
1
1
1
1
1
1
1
1
1
1
1
1.00001
5.27588
10.007
10.2141
10.3239
10.4222
10.5097
10.5873
10.6623
10.7243
10.7828
10.8385
10.8879
10.9282
10.9604
10.983
10.9971
11.0034
11.0004
10.9873
10.964
10.9381
10.9104
10.9088
1
1
1
1
1
1
1
1
1
1
1
1
1
1
1
1
1
1
1
1
1
1
1
1
1
4.21402
9.65301
10.148
10.2682
10.3683
10.4482
10.513
10.5694
10.6257
10.6791
10.7262
10.7685
10.8029
10.8291
10.8426
10.8452
10.8355
10.8116
10.7783
10.7348
10.6878
10.618
10.5397
1
1
1
1
1
1
1
1
1
1
1
1
1
1
1
1
1
1
1
1
1
1
1
1
1
3.16157
9.15796
10.0906
10.2116
10.3157
10.3921
10.4488
10.4947
10.5368
10.5753
10.6107
10.6414
10.6664
10.6833
10.6835
10.6719
10.6438
10.5968
10.5302
10.4302
10.2897
10.1431
10.0339
1
1
1
1
1
1
1
1
1
1
1
1
1
1
1
1
1
1
1
1
1
1
1
1
1
2.07892
8.36274
10.183
10.201
10.271
10.3258
10.3715
10.4113
10.4455
10.4758
10.4985
10.513
10.5247
10.5266
10.5108
10.4804
10.4277
10.3462
10.229
10.068
9.86584
9.64924
9.54913
1
1
1
1
1
1
1
1
1
1
1
1
1
1
1
1
1
1
1
1
1
1
1
1
1
1.19394
7.43104
10.2737
10.1514
10.1771
10.2359
10.2842
10.3226
10.3495
10.3704
10.3824
10.384
10.3805
10.3627
10.3296
10.2748
10.1931
10.0743
9.91051
9.66921
9.28234
8.42111
6.46584
1
1
1
1
1
1
1
1
1
1
1
1
1
1
1
1
1
1
1
1
1
1
1
1
1
1.00428
6.14756
9.9258
9.96046
10.0531
10.1231
10.1795
10.2206
10.2446
10.2594
10.2624
10.253
10.2313
10.1956
10.1425
10.0617
9.94858
9.78816
9.55863
9.21469
8.61757
7.67834
5.50231
1
1
1
1
1
1
1
1
1
1
1
1
1
1
1
1
1
1
1
1
1
1
1
1
1
0.999971
4.60934
9.51902
9.90009
9.99555
10.0392
10.08
10.1163
10.1351
10.1432
10.1379
10.1168
10.0794
10.025
9.95063
9.84531
9.70007
9.49974
9.21114
8.79172
8.13231
7.06067
5.13833
1
1
1
1
1
1
1
1
1
1
1
1
1
1
1
1
1
1
1
1
1
1
1
1
1
0.999993
3.0902
8.8934
9.8528
9.9256
9.9734
9.99868
10.0189
10.0265
10.0248
10.0098
9.97788
9.92699
9.85416
9.75842
9.62995
9.45553
9.21884
8.88868
8.41192
7.74835
6.63437
5.10468
1
1
1
1
1
1
1
1
1
1
1
1
1
1
1
1
1
1
1
1
1
1
1
1
1
0.999999
1.75526
8.03596
9.91635
9.8577
9.88858
9.914
9.92607
9.92286
9.90871
9.88188
9.83835
9.77482
9.68578
9.57031
9.41965
9.2214
8.95567
8.59965
8.10219
7.44609
6.40318
5.19471
1
1
1
1
1
1
1
1
1
1
1
1
1
1
1
1
1
1
1
1
1
1
1
1
1
1
1.06672
6.60421
9.81737
9.75693
9.77229
9.81055
9.82245
9.81396
9.79059
9.75328
9.69858
9.62305
9.52035
9.38801
9.21853
9.00205
8.71872
8.34669
7.8494
7.2114
6.29874
5.31847
1
1
1
1
1
1
1
1
1
1
1
1
1
1
1
1
1
1
1
1
1
1
1
1
1
1
1.00023
4.76092
9.26882
9.6184
9.69475
9.72252
9.72144
9.70497
9.67294
9.62587
9.56127
9.47427
9.36038
9.21487
9.03076
8.8007
8.50929
8.13454
7.64878
7.04442
6.25929
5.44702
1
1
1
1
1
1
1
1
1
1
1
1
1
1
1
1
1
1
1
1
1
1
1
1
1
1
0.999997
2.81117
8.61449
9.62484
9.61899
9.63757
9.63377
9.60704
9.56395
9.50519
9.42955
9.33172
9.20699
9.0506
8.85553
8.61598
8.32184
7.95457
7.49568
6.9286
6.24462
5.55823
1
1
1
1
1
1
1
1
1
1
1
1
1
1
1
1
1
1
1
1
1
1
1
1
1
1
0.999999
1.31324
7.51117
9.72246
9.574
9.52772
9.52212
9.49284
9.44607
9.3811
9.29723
9.19227
9.06008
8.89658
8.69565
8.45152
8.15799
7.79942
7.37223
6.84591
6.24727
5.65711
1
1
1
1
1
1
1
1
1
1
1
1
1
1
1
1
1
1
1
1
1
1
1
1
1
1
1
1.00978
5.72011
9.22654
9.36196
9.42176
9.41733
9.38025
9.32941
9.25972
9.16986
9.05807
8.92075
8.7526
8.54834
8.30394
8.01473
7.66228
7.26207
6.78648
6.25529
5.73683
1
1
1
1
1
1
1
1
1
1
1
1
1
1
1
1
1
1
1
1
1
1
1
1
1
1
1
0.999917
3.40013
8.66262
9.33291
9.34044
9.33169
9.29408
9.23485
9.15452
9.0548
8.93423
8.79008
8.6197
8.41605
8.17686
7.8907
7.54779
7.1692
6.73576
6.26819
5.80233
1
1
1
1
1
1
1
1
1
1
1
1
1
1
1
1
1
1
1
1
1
1
1
1
1
1
1
0.999979
1.51037
7.70731
9.47012
9.29298
9.22541
9.18547
9.12277
9.03967
8.93696
8.81269
8.66534
8.49332
8.29075
8.06052
7.77686
7.45272
7.0941
6.69285
6.2783
5.84341
1
1
1
1
1
1
1
1
1
1
1
1
1
1
1
1
1
1
1
1
1
1
1
1
1
1
1
0.999996
1.02488
5.8571
9.01016
9.08255
9.11373
9.08098
9.01484
8.93057
8.82606
8.70087
8.55198
8.38061
8.18231
7.95206
7.67879
7.37804
7.0409
6.6691
6.28983
5.88602
1
1
1
1
1
1
1
1
1
1
1
1
1
1
1
1
1
1
1
1
1
1
1
1
1
1
1
1
0.999904
3.26029
8.39148
9.05681
9.04423
9.00216
8.93396
8.84283
8.73066
8.60067
8.44973
8.27437
8.08176
7.85151
7.59113
7.31032
6.99402
6.6526
6.29728
5.92263
1
1
1
1
1
1
1
1
1
1
1
1
1
1
1
1
1
1
1
1
1
1
1
1
1
1
1
1
0.999974
1.35784
7.23806
9.18812
9.00983
8.90759
8.83163
8.73791
8.62769
8.50174
8.35369
8.18211
7.98807
7.76664
7.51975
7.25297
6.95587
6.64186
6.3075
5.96187
1
1
1
1
1
1
1
1
1
1
1
1
1
1
1
1
1
1
1
1
1
1
1
1
1
1
1
1
0.999996
1.01138
5.1032
8.68006
8.79782
8.7932
8.72918
8.63672
8.53131
8.40962
8.2655
8.09816
7.90664
7.69132
7.45613
7.19972
6.92028
6.62673
6.3122
5.99198
1
1
1
1
1
1
1
1
1
1
1
1
1
1
1
1
1
1
1
1
1
1
1
1
1
1
1
1
1
0.999937
2.40964
7.98068
8.80281
8.73799
8.65511
8.56415
8.4614
8.33943
8.19424
8.02698
7.83844
7.62795
7.40121
7.15483
6.89099
6.61155
6.31723
6.01714
1
1
1
1
1
1
1
1
1
1
1
1
1
1
1
1
1
1
1
1
1
1
1
1
1
1
1
1
1
0.999984
1.1515
6.21833
8.71825
8.64068
8.565
8.48076
8.38353
8.26334
8.11929
7.95488
7.77169
7.5696
7.35203
7.11629
6.8635
6.59564
6.31951
6.03535
1
1
1
1
1
1
1
1
1
1
1
1
1
1
1
1
1
1
1
1
1
1
1
1
1
1
1
1
1
0.999997
1.00157
3.40731
8.05784
8.51926
8.48127
8.42086
8.32532
8.20195
8.05673
7.89458
7.71595
7.5205
7.30987
7.082
6.83832
6.58398
6.32302
6.0546
1
1
1
1
1
1
1
1
1
1
1
1
1
1
1
1
1
1
1
1
1
1
1
1
1
1
1
1
1
1
0.999995
1.3796
6.71959
8.61542
8.473
8.38453
8.27365
8.14147
7.99503
7.83539
7.66118
7.47196
7.26831
7.04894
6.81679
6.57654
6.32824
6.07483
1
1
1
1
1
1
1
1
1
1
1
1
1
1
1
1
1
1
1
1
1
1
1
1
1
1
1
1
1
1
0.999999
1.01163
4.13427
8.10132
8.32404
8.28649
8.19243
8.07022
7.93184
7.77812
7.60942
7.42683
7.23006
7.01927
6.79851
6.57048
6.33378
6.0924
1
1
1
1
1
1
1
1
1
1
1
1
1
1
1
1
1
1
1
1
1
1
1
1
1
1
1
1
1
1
1
1
1.61121
6.94513
8.44779
8.2856
8.15783
8.02868
7.88882
7.73526
7.5676
7.38731
7.19557
6.99286
6.78212
6.56497
6.33931
6.10831
1
1
1
1
1
1
1
1
1
1
1
1
1
1
1
1
1
1
1
1
1
1
1
1
1
1
1
1
1
1
1
1
1.02968
4.53318
8.03608
8.14549
8.06643
7.95919
7.83184
7.68503
7.52136
7.34603
7.16174
6.96757
6.7663
6.55974
6.34306
6.12179
1
1
1
1
1
1
1
1
1
1
1
1
1
1
1
1
1
1
1
1
1
1
1
1
1
1
1
1
1
1
1
1
1.00007
1.77469
6.94994
8.23517
8.06339
7.93278
7.79992
7.65109
7.48982
7.32012
7.1427
6.95471
6.75847
6.55858
6.34816
6.13395
1
1
1
1
1
1
1
1
1
1
1
1
1
1
1
1
1
1
1
1
1
1
1
1
1
1
1
1
1
1
1
1
1
1.04592
4.61401
7.88261
7.9494
7.86451
7.74736
7.60712
7.45285
7.28882
7.11636
6.93405
6.7426
6.54999
6.34924
6.14229
1
1
1
1
1
1
1
1
1
1
1
1
1
1
1
1
1
1
1
1
1
1
1
1
1
1
1
1
1
1
1
1
1
1.00021
1.82399
6.73977
7.99396
7.85193
7.72333
7.58033
7.42688
7.26581
7.09715
6.921
6.73601
6.54966
6.35837
6.1583
1
1
1
1
1
1
1
1
1
1
1
1
1
1
1
1
1
1
1
1
1
1
1
1
1
1
1
1
1
1
1
1
1
1
1.05083
4.32392
7.6698
7.78188
7.67324
7.53946
7.39322
7.23867
7.07545
6.90571
6.72836
6.54751
6.36403
6.17294
1
1
1
1
1
1
1
1
1
1
1
1
1
1
1
1
1
1
1
1
1
1
1
1
1
1
1
1
1
1
1
1
1
1
1.00032
1.71315
6.37227
7.79278
7.65985
7.52485
7.37529
7.21996
7.05952
6.8956
6.72653
6.55282
6.37629
6.1933
1
1
1
1
1
1
1
1
1
1
1
1
1
1
1
1
1
1
1
1
1
1
1
1
1
1
1
1
1
1
1
1
1
1
1
1.03837
3.69881
7.37663
7.61938
7.48159
7.33821
7.19192
7.04282
6.8888
6.72782
6.56043
6.38895
6.21124
1
1
1
1
1
1
1
1
1
1
1
1
1
1
1
1
1
1
1
1
1
1
1
1
1
1
1
1
1
1
1
1
1
1
1
1.00027
1.48409
5.84414
7.64923
7.46841
7.33356
7.19394
7.04841
6.89508
6.73456
6.56876
6.40051
6.22823
1
1
1
1
1
1
1
1
1
1
1
1
1
1
1
1
1
1
1
1
1
1
1
1
1
1
1
1
1
1
1
1
1
1
1
1
1.01856
2.89188
6.91258
7.42713
7.30629
7.18021
7.03547
6.88466
6.72942
6.56867
6.40469
6.23985
1
1
1
1
1
1
1
1
1
1
1
1
1
1
1
1
1
1
1
1
1
1
1
1
1
1
1
1
1
1
1
1
1
1
1
1
1.00012
1.2458
5.01203
7.43814
7.32872
7.1956
7.04082
6.89033
6.73815
6.58091
6.41848
6.25664
1
1
1
1
1
1
1
1
1
1
1
1
1
1
1
1
1
1
1
1
1
1
1
1
1
1
1
1
1
1
1
1
1
1
1
1
1
1.00546
2.16149
6.36685
7.3036
7.149
7.01771
6.87478
6.7268
6.57633
6.42206
6.26397
1
1
1
1
1
1
1
1
1
1
1
1
1
1
1
1
1
1
1
1
1
1
1
1
1
1
1
1
1
1
1
1
1
1
1
1
1
1.00003
1.09611
3.84241
6.99391
7.15981
7.03205
6.8933
6.74717
6.59753
6.44638
6.29191
1
1
1
1
1
1
1
1
1
1
1
1
1
1
1
1
1
1
1
1
1
1
1
1
1
1
1
1
1
1
1
1
1
1
1
1
1
1
1.00131
1.54953
5.44719
7.18178
7.03965
6.89652
6.75178
6.60613
6.45832
6.30858
1
1
1
1
1
1
1
1
1
1
1
1
1
1
1
1
1
1
1
1
1
1
1
1
1
1
1
1
1
1
1
1
1
1
1
1
1
1
1.00001
1.02415
2.6024
6.40648
7.02097
6.88672
6.75195
6.6143
6.47217
6.326
1
1
1
1
1
1
1
1
1
1
1
1
1
1
1
1
1
1
1
1
1
1
1
1
1
1
1
1
1
1
1
1
1
1
1
1
1
1
1
1.00021
1.17829
4.15864
6.81357
6.91282
6.78515
6.64409
6.50016
6.35385
1
1
1
1
1
1
1
1
1
1
1
1
1
1
1
1
1
1
1
1
1
1
1
1
1
1
1
1
1
1
1
1
1
1
1
1
1
1
1
1
1.00364
1.70087
5.41151
6.88707
6.79291
6.65086
6.51061
6.3678
1
1
1
1
1
1
1
1
1
1
1
1
1
1
1
1
1
1
1
1
1
1
1
1
1
1
1
1
1
1
1
1
1
1
1
1
1
1
1
1
1.00002
1.03822
2.66237
6.18652
6.78256
6.66396
6.52204
6.38329
1
1
1
1
1
1
1
1
1
1
1
1
1
1
1
1
1
1
1
1
1
1
1
1
1
1
1
1
1
1
1
1
1
1
1
1
1
1
1
1
1
1.00043
1.19402
3.95147
6.51402
6.68969
6.55816
6.414
1
1
1
1
1
1
1
1
1
1
1
1
1
1
1
1
1
1
1
1
1
1
1
1
1
1
1
1
1
1
1
1
1
1
1
1
1
1
1
1
1
1
1.00444
1.62153
5.03617
6.61646
6.58125
6.44096
1
1
1
1
1
1
1
1
1
1
1
1
1
1
1
1
1
1
1
1
1
1
1
1
1
1
1
1
1
1
1
1
1
1
1
1
1
1
1
1
1
1
1.00003
1.0315
2.36934
5.75592
6.5544
6.46346
1
1
1
1
1
1
1
1
1
1
1
1
1
1
1
1
1
1
1
1
1
1
1
1
1
1
1
1
1
1
1
1
1
1
1
1
1
1
1
1
1
1
1
1.00035
1.13613
3.34832
6.16236
6.48934
1
1
1
1
1
1
1
1
1
1
1
1
1
1
1
1
1
1
1
1
1
1
1
1
1
1
1
1
1
1
1
1
1
1
1
1
1
1
1
1
1
1
1
1
1.00271
1.39717
4.35408
6.29481
1
1
1
1
1
1
1
1
1
1
1
1
1
1
1
1
1
1
1
1
1
1
1
1
1
1
1
1
1
1
1
1
1
1
1
1
1
1
1
1
1
1
1
1
1.00001
1.01511
1.88022
5.08542
1
1
1
1
1
1
1
1
1
1
1
1
1
1
1
1
1
1
1
1
1
1
1
1
1
1
1
1
1
1
1
1
1
1
1
1
1
1
1
1
1
1
1
1
1
1.00014
1.06088
2.54653
1
1
1
1
1
1
1
1
1
1
1
1
1
1
1
1
1
1
1
1
1
1
1
1
1
1
1
1
1
1
1
1
1
1
1
1
1
1
1
1
1
1
1
1
1
1
1.00091
1.17753
1
1
1
1
1
1
1
1
1
1
1
1
1
1
1
1
1
1
1
1
1
1
1
1
1
1
1
1
1
1
1
1
1
1
1
1
1
1
1
1
1
1
1
1
1
1
1
1.00434
1
1
1
1
1
1
1
1
1
1
1
1
1
1
1
1
1
1
1
1
1
1
1
1
1
1
1
1
1
1
1
1
1
1
1
1
1
1
1
1
1
1
1
1
1
1
1
1.00003
1
1
1
1
1
1
1
1
1
1
1
1
1
1
1
1
1
1
1
1
1
1
1
1
1
1
1
1
1
1
1
1
1
1
1
1
1
1
1
1
1
1
1
1
1
1
1
1
1
1
1
1
1
1
1
1
1
1
1
1
1
1
1
1
1
1
1
1
1
1
1
1
1
1
1
1
1
1
1
1
1
1
1
1
1
1
1
1
1
1
1
1
1
1
1
1
1
1
1
1
1
1
1
1
1
1
1
1
1
1
1
1
1
1
1
1
1
1
1
1
1
1
1
1
1
1
1
1
1
1
1
1
1
1
1
1
1
1
1
1
1
1
1
1
1
1
1
1
1
1
1
1
1
1
1
1
1
1
1
1
1
1
1
1
1
1
1
1
1
1
1
1
1
1
1
1
1
1
1
1
1
1
1
1
1
1
1
1
1
1
1
1
1
1
1
1
1
1
1
1
1
1
1
1
1
1
1
1
1
1
1
1
1
1
1
1
1
1
1
1
1
1
1
1
1
1
1
1
1
1
1
1
1
1
1
1
1
1
1
1
1
1
1
1
1
1
1
1
1
1
1
1
1
1
1
1
1
1
1
1
1
1
1
1
1
1
1
1
1
1
1
1
1
1
1
1
1
1
1
1
1
1
1
1
1
1
1
1
1
1
1
1
1
1
1
1
1
1
1
1
1
1
1
1
1
1
1
1
1
1
1
1
1
1
1
1
1
1
1
1
1
1
1
1
1
1
1
1
1
1
1
1
1
1
1
1
1
1
1
1
1
1
1
1
1
1
1
1
1
1
1
1
1
1
1
1
1
1
1
1
1
1
1
1
1
1
1
1
1
1
1
1
1
1
1
1
1
1
1
1
1
1
1
1
1
1
1
1
1
1
1
1
1
1
1
1
1
1
1
1
1
1
1
1
1
1
1
1
1
1
1
1
1
1
1
1
1
1
1
1
1
1
1
1
1
1
1
1
1
1
1
1
1
1
1
1
1
1
1
1
1
1
1
1
1
1
1
1
1
1
1
1
1
1
1
1
1
1
1
1
1
1
1
1
1
1
1
1
1
1
1
1
1
1
1
1
1
1
1
1
1
1
1
1
1
1
1
1
1
1
1
1
1
1
1
1
1
1
1
1
1
1
1
1
1
1
1
1
1
1
1
1
1
1
1
1
1
1
1
1
1
1
1
1
1
1
1
1
1
1
1
1
1
1
1
1
1
1
1
1
1
1
1
1
1
1
1
1
1
1
1
1
1
1
1
1
1
1
1
1
1
1
1
1
1
1
1
1
1
1
1
1
1
1
1
1
1
1
1
1
1
1
1
1
1
1
1
1
1
1
1
1
1
1
1
1
1
1
1
1
1
1
1
1
1
1
1
1
1
1
1
1
1
1
1
1
1
1
1
1
1
1
1
1
1
1
1
1
1
1
1
1
1
1
1
1
1
1
1
1
1
1
1
1
1
1
1
1
1
1
1
1
1
1
1
1
1
1
1
1
1
1
1
1
1
1
1
1
1
1
1
1
1
1
1
1
1
1
1
1
1
1
1
1
1
1
1
1
1
1
1
1
1
1
1
1
1
1
1
1
1
1
1
1
1
1
1
1
1
1
1
1
1
1
1
1
1
1
1
1
1.19105
0.256465
0.0786653
0.0327927
0.0307901
0.043041
0.0802634
0.146553
0.217141
0.306859
0.402803
0.476373
0.562406
0.612883
0.637372
0.691348
0.778217
0.863742
0.923475
0.965418
0.986792
0.995089
1.00001
1.00011
1.00639
1.02083
1.04187
1.06408
1.10108
1.14623
1.18458
1.20036
1.20012
1.1936
1.19961
1.21869
1.24047
1.25797
1.26455
1.26318
1.26229
1.26977
1.28766
1.30099
1.30385
1.30341
1.30141
1.30182
1.3058
1.3172
1.33532
1.34292
1.34369
1.33962
1.33322
1.33281
1.33452
1.33713
1.33989
1.34135
1.34432
1.34733
2.5738
5.62252
6.1048
6.19878
6.25378
6.25537
6.24006
6.2162
6.19655
6.1865
6.17933
6.16423
6.13368
6.09161
6.04723
6.00796
5.97207
5.93115
5.87888
5.81853
5.75916
5.70988
5.67495
5.65087
5.63086
5.60948
5.58531
5.55402
5.51105
5.45873
5.40427
5.35707
5.32201
5.29325
5.25683
5.20684
5.14798
5.08762
5.029
4.97148
4.91203
4.84948
4.79154
4.7445
4.71014
4.68721
4.67098
4.66119
4.65959
4.66335
4.65062
4.60893
4.54415
4.4428
4.35599
4.29805
4.25361
4.22588
4.20762
4.18926
4.16954
4.14985
4.13121
4.11386
4.0948
4.06358
4.01875
3.94776
3.8715
3.8213
3.78746
3.76273
3.75074
3.74522
3.73568
3.71191
3.6787
3.63264
3.56873
3.51885
3.4852
3.45711
3.43214
3.40646
3.37988
3.35282
3.32447
3.29564
3.26649
3.23675
3.20532
3.17287
3.14094
3.10973
3.08113
3.05849
3.04034
3.0269
3.01779
3.00282
2.98135
2.9494
2.90635
2.87029
2.84719
2.82889
2.81406
2.80625
2.79682
2.77842
2.75414
2.71513
2.6624
2.62074
2.59715
2.58237
2.57121
2.56753
2.57694
2.59293
2.59789
2.58729
2.56827
2.53663
2.47879
2.40081
2.34373
2.31593
2.30307
2.2901
2.16748
1.01329
0.558053
0.380451
0.289145
0.211729
0.201486
0.224332
0.239525
0.247944
0.263296
0.282713
0.308513
0.368521
0.452304
0.521623
0.581487
0.656809
0.743701
0.816198
0.86428
0.894471
0.927302
0.965593
0.996588
1.03115
1.0636
1.08278
1.09385
1.10935
1.13429
1.16588
1.18906
1.19134
1.19585
1.2064
1.21534
1.22891
1.24849
1.26404
1.2715
1.28083
1.28933
1.29392
1.29898
1.2999
1.29848
1.29528
1.29754
1.30669
1.32532
1.33884
1.34213
1.34227
1.33552
1.32914
1.32937
1.33184
1.338
1.34308
1.34421
1.33846
2.46479
5.5735
6.23562
6.30853
6.32497
6.29635
6.26309
6.23101
6.20255
6.17813
6.15445
6.13238
6.11151
6.08613
6.05184
6.01247
5.97454
5.93917
5.90372
5.86573
5.82396
5.77673
5.7233
5.66612
5.60725
5.5503
5.50039
5.46173
5.42761
5.39354
5.36087
5.33178
5.30565
5.27553
5.23388
5.18199
5.12314
5.06338
5.00927
4.96452
4.92967
4.90253
4.87436
4.83637
4.78819
4.7361
4.68832
4.6483
4.61356
4.58186
4.55055
4.51699
4.48019
4.44334
4.39929
4.357
4.31931
4.28401
4.2481
4.21208
4.17861
4.14695
4.1144
4.08383
4.05358
4.02181
3.98836
3.95489
3.91882
3.87478
3.82746
3.78682
3.7558
3.72953
3.70392
3.67888
3.6513
3.61758
3.58651
3.55268
3.51308
3.47325
3.43711
3.40478
3.37428
3.34262
3.30828
3.27691
3.25306
3.23148
3.20917
3.1863
3.16035
3.13073
3.09973
3.0695
3.04318
3.02249
3.00254
2.98392
2.96657
2.94469
2.91688
2.88654
2.8567
2.8332
2.81553
2.7988
2.78183
2.76541
2.74664
2.7205
2.68847
2.65384
2.62095
2.59759
2.58443
2.57907
2.57918
2.57174
2.55999
2.54914
2.53427
2.50944
2.47292
2.43255
2.38882
2.3437
2.31394
2.29628
2.99399
1.80356
1.03687
0.81712
0.668965
0.497328
0.407096
0.387395
0.348261
0.305563
0.313154
0.325792
0.32673
0.349774
0.403948
0.451484
0.484604
0.523219
0.588702
0.670365
0.740035
0.792379
0.848105
0.911576
0.968247
1.02228
1.08193
1.11177
1.10838
1.10681
1.12641
1.16049
1.1974
1.20758
1.21185
1.20801
1.20259
1.2066
1.21949
1.24615
1.27269
1.28704
1.29308
1.29656
1.30049
1.30372
1.30431
1.30144
1.30065
1.30657
1.32079
1.33902
1.34752
1.35065
1.34873
1.33801
1.32826
1.32646
1.32913
1.33903
1.34905
1.35159
2.11236
5.45599
6.46394
6.36579
6.32741
6.3008
6.26594
6.23804
6.22164
6.20682
6.17716
6.14158
6.11217
6.09109
6.067
6.02695
5.97448
5.92062
5.8779
5.8511
5.83664
5.82955
5.81369
5.77441
5.71454
5.63565
5.54428
5.46823
5.40514
5.35331
5.32003
5.30459
5.29841
5.28414
5.24049
5.17935
5.11425
5.04311
4.97216
4.91817
4.88166
4.87023
4.87751
4.88375
4.87208
4.83725
4.78396
4.70877
4.61409
4.52181
4.45003
4.40145
4.37717
4.38174
4.38618
4.37335
4.35192
4.32645
4.29642
4.26249
4.22378
4.17914
4.12624
4.06327
4.00126
3.95681
3.92903
3.91722
3.91935
3.91365
3.88877
3.85129
3.79669
3.72726
3.66962
3.63022
3.59927
3.5799
3.57345
3.56426
3.54111
3.51111
3.47206
3.42567
3.37866
3.33277
3.289
3.25314
3.22559
3.20344
3.18716
3.17677
3.16393
3.14712
3.12737
3.09986
3.0618
3.01956
2.98604
2.96125
2.93851
2.92076
2.91051
2.89647
2.87689
2.85113
2.81918
2.7891
2.76631
2.74395
2.7207
2.70442
2.69172
2.67573
2.6571
2.63358
2.60775
2.58678
2.57064
2.55255
2.53033
2.5076
2.48737
2.46893
2.45253
2.43958
2.42366
2.39695
2.35854
2.30589
3.53192
2.48237
1.7491
1.33638
1.02827
0.797721
0.708543
0.658317
0.571987
0.483636
0.47841
0.471294
0.448678
0.429777
0.427415
0.437986
0.440719
0.44562
0.462356
0.500993
0.566014
0.639484
0.713736
0.786843
0.85701
0.906623
0.967118
1.03507
1.05269
1.06994
1.10623
1.14809
1.18366
1.20197
1.20811
1.20108
1.195
1.20267
1.22164
1.25455
1.27605
1.28351
1.28201
1.27553
1.27721
1.28403
1.29492
1.30078
1.30286
1.3058
1.31173
1.32304
1.33699
1.34404
1.34619
1.34262
1.33179
1.32609
1.32583
1.33141
1.34805
1.38356
1.78872
5.2055
6.92187
6.57011
6.36906
6.32929
6.28648
6.24778
6.21494
6.19865
6.17036
6.12937
6.092
6.06477
6.04992
6.02906
5.98676
5.93099
5.87356
5.82534
5.78967
5.77219
5.76483
5.73508
5.68983
5.63468
5.55627
5.46968
5.40608
5.35366
5.31019
5.28039
5.26331
5.24679
5.21712
5.17546
5.13071
5.08228
5.02363
4.95736
4.90324
4.86853
4.85162
4.84978
4.84546
4.8215
4.78051
4.72019
4.6344
4.53778
4.45877
4.40615
4.37465
4.37988
4.39216
4.38438
4.36144
4.33395
4.30285
4.26737
4.22827
4.18115
4.12405
4.05832
3.99488
3.94945
3.91903
3.90069
3.89824
3.90173
3.88805
3.85962
3.81911
3.75373
3.67807
3.62477
3.59418
3.57394
3.56526
3.55776
3.54032
3.51603
3.48417
3.43554
3.37774
3.32925
3.2921
3.26099
3.23336
3.20984
3.19077
3.17408
3.15834
3.14359
3.12849
3.10919
3.07993
3.03822
2.9894
2.9461
2.92056
2.90554
2.89563
2.88862
2.87657
2.85838
2.8323
2.79517
2.75548
2.72537
2.70661
2.69464
2.6906
2.69042
2.68154
2.66585
2.64161
2.60282
2.55913
2.52666
2.50159
2.47819
2.45639
2.44166
2.43555
2.43761
2.43479
2.42286
2.40513
2.33977
4.01241
3.0432
2.32721
1.8805
1.50958
1.17384
1.04202
0.942738
0.822398
0.721057
0.665718
0.620427
0.580108
0.552503
0.53558
0.520437
0.505781
0.501647
0.506042
0.525304
0.524752
0.529966
0.546153
0.580267
0.637493
0.703078
0.780715
0.894838
0.975815
1.01467
1.04729
1.08978
1.12918
1.15502
1.17205
1.17324
1.18318
1.20504
1.23545
1.26714
1.27984
1.28276
1.27534
1.2626
1.26387
1.27056
1.28346
1.30154
1.31098
1.31405
1.31626
1.32067
1.3267
1.33169
1.33439
1.33521
1.33303
1.32547
1.32311
1.32822
1.37155
1.60177
2.12094
4.03085
6.62336
6.84034
6.48862
6.31534
6.2487
6.21636
6.2087
6.19576
6.17168
6.12877
6.09297
6.06502
6.04992
6.03718
6.00957
5.96653
5.90519
5.83574
5.78738
5.7546
5.73892
5.71881
5.68349
5.63703
5.56579
5.47505
5.40805
5.36192
5.32388
5.29422
5.26451
5.22732
5.18812
5.14986
5.11313
5.07785
5.04266
5.00474
4.96298
4.923
4.88944
4.85763
4.82089
4.77776
4.7235
4.65921
4.58968
4.52488
4.47203
4.43018
4.40356
4.39521
4.3935
4.38306
4.36423
4.33842
4.30648
4.26879
4.22181
4.16195
4.09097
4.02505
3.98259
3.95587
3.93395
3.91725
3.90454
3.88865
3.86401
3.83412
3.7945
3.7385
3.67424
3.6268
3.59939
3.58024
3.56632
3.55292
3.53465
3.51234
3.48125
3.43002
3.36441
3.31077
3.27739
3.25465
3.23602
3.22024
3.20359
3.18477
3.16419
3.14205
3.11857
3.09298
3.06438
3.03262
2.99766
2.96079
2.92878
2.90844
2.89351
2.87904
2.86358
2.84519
2.82181
2.79208
2.75908
2.73153
2.71283
2.6997
2.69355
2.69266
2.68506
2.67179
2.65318
2.61705
2.56163
2.50928
2.4739
2.45097
2.43693
2.42886
2.42806
2.43454
2.43307
2.42434
2.4137
2.36371
4.37053
3.52088
2.83995
2.35492
1.96814
1.60762
1.40483
1.24755
1.07784
0.975415
0.907795
0.819631
0.734151
0.711806
0.686745
0.653093
0.621816
0.599804
0.582143
0.576219
0.571964
0.564895
0.559701
0.549763
0.551796
0.562183
0.58788
0.64708
0.748309
0.837405
0.899597
0.961512
1.01535
1.06119
1.11038
1.14391
1.1665
1.19382
1.22474
1.25346
1.26576
1.26741
1.26229
1.24881
1.24621
1.25172
1.26334
1.28636
1.309
1.31719
1.31833
1.31381
1.31152
1.31593
1.32306
1.33143
1.33313
1.32949
1.33044
1.3637
1.59121
2.25471
2.76362
3.15632
4.90109
6.35658
6.59265
6.44854
6.31353
6.21125
6.17542
6.17034
6.16411
6.1389
6.09861
6.05492
6.02063
5.99539
5.9718
5.94063
5.89248
5.82309
5.76185
5.72495
5.70145
5.68819
5.66078
5.62185
5.56527
5.48743
5.42235
5.38252
5.35383
5.32375
5.28474
5.23801
5.18283
5.13585
5.10001
5.07033
5.04971
5.03156
5.00328
4.95919
4.89397
4.81912
4.7504
4.69102
4.63955
4.5981
4.56749
4.54708
4.53348
4.51417
4.48161
4.44076
4.40605
4.3771
4.35127
4.32067
4.28444
4.24338
4.19641
4.14048
4.07553
4.01968
3.98821
3.96639
3.94713
3.92666
3.90145
3.87242
3.83896
3.80231
3.76283
3.72113
3.68193
3.64713
3.61515
3.58852
3.5677
3.54883
3.52943
3.50508
3.47059
3.42464
3.37485
3.32959
3.29158
3.26315
3.24368
3.22748
3.21038
3.19028
3.16473
3.13444
3.10294
3.07301
3.04624
3.02298
3.00175
2.97831
2.94814
2.91494
2.88901
2.86842
2.84765
2.82559
2.80377
2.78456
2.76841
2.7517
2.73293
2.7156
2.70137
2.68844
2.67672
2.66299
2.64237
2.60648
2.55781
2.50927
2.47099
2.44784
2.43568
2.42773
2.42528
2.42689
2.42368
2.41513
2.40176
2.35819
4.64891
3.88996
3.2827
2.79828
2.35422
2.00525
1.77497
1.57291
1.3631
1.20633
1.12418
1.02577
0.924586
0.875502
0.843638
0.811635
0.768397
0.719256
0.674814
0.66181
0.656805
0.646741
0.630284
0.610582
0.59558
0.591998
0.590993
0.590611
0.603985
0.634603
0.674736
0.727707
0.800605
0.880425
0.959549
1.04181
1.11849
1.1686
1.19887
1.21962
1.23812
1.24837
1.24962
1.24506
1.23773
1.23791
1.2466
1.26626
1.29416
1.30684
1.30889
1.30762
1.30341
1.30649
1.31352
1.32103
1.32364
1.33285
1.3925
1.65198
2.28627
2.86325
3.10003
3.12602
3.45377
4.92073
6.20878
6.47371
6.40882
6.27303
6.167
6.12477
6.11422
6.10455
6.08038
6.04993
6.01394
5.98529
5.96387
5.93567
5.89422
5.83909
5.76604
5.70194
5.66111
5.62888
5.60418
5.57222
5.53378
5.4862
5.44137
5.40678
5.37288
5.33435
5.291
5.2373
5.17814
5.13022
5.09566
5.07204
5.0555
5.03018
4.99444
4.94124
4.86272
4.77599
4.70129
4.64766
4.6146
4.59976
4.60904
4.62321
4.61555
4.58718
4.54053
4.46465
4.38647
4.33611
4.30046
4.26804
4.23575
4.20097
4.16274
4.12085
4.0755
4.03279
4.00002
3.97363
3.94723
3.91845
3.88638
3.85083
3.81271
3.77524
3.74245
3.71548
3.69146
3.66607
3.63714
3.60386
3.56764
3.53386
3.50245
3.46937
3.43377
3.39957
3.37216
3.34926
3.32507
3.29765
3.2685
3.24083
3.21315
3.17998
3.14228
3.10764
3.07913
3.05673
3.03991
3.02567
3.01171
2.99461
2.968
2.9246
2.87969
2.84844
2.82542
2.80675
2.79234
2.78129
2.77373
2.76453
2.75167
2.73482
2.71143
2.68452
2.6626
2.64046
2.61223
2.57831
2.5453
2.51708
2.49223
2.46941
2.45056
2.43829
2.42955
2.42179
2.41366
2.39751
2.37598
2.34055
4.85486
4.18535
3.64013
3.16054
2.70294
2.37442
2.10321
1.86726
1.63982
1.48444
1.35307
1.22354
1.11464
1.04356
0.990765
0.95925
0.928616
0.890292
0.83289
0.766229
0.738534
0.727045
0.713204
0.693692
0.665531
0.650178
0.641588
0.624463
0.611802
0.618103
0.626434
0.631675
0.64199
0.6735
0.734725
0.817149
0.914748
1.02059
1.0849
1.11945
1.14688
1.18533
1.22481
1.24463
1.25039
1.2436
1.23396
1.24068
1.25825
1.28507
1.30139
1.30615
1.3059
1.29897
1.29933
1.30288
1.31148
1.38943
1.7688
2.33249
2.92128
3.10554
3.15492
3.13824
3.14179
3.49881
4.90859
6.08254
6.38005
6.32468
6.21891
6.11592
6.07991
6.05873
6.04747
6.03545
6.0049
5.96686
5.94024
5.91928
5.88737
5.83805
5.77326
5.69648
5.64149
5.60375
5.57456
5.55702
5.53552
5.50453
5.46274
5.40926
5.35583
5.31144
5.2705
5.22881
5.18475
5.13931
5.09666
5.0585
5.02324
4.98427
4.93902
4.88733
4.83237
4.77909
4.72967
4.68904
4.66301
4.6539
4.65104
4.63185
4.59759
4.55213
4.49645
4.43376
4.36365
4.3005
4.2529
4.2187
4.19283
4.16723
4.14035
4.11442
4.08599
4.05101
4.0109
3.97359
3.94106
3.91039
3.87958
3.84815
3.81588
3.78197
3.7489
3.71843
3.69026
3.66348
3.63502
3.60113
3.55844
3.51097
3.46941
3.43614
3.41163
3.39474
3.38517
3.38128
3.36816
3.34346
3.30051
3.24163
3.18927
3.14811
3.11329
3.08607
3.06755
3.05401
3.04483
3.03623
3.02322
3.00546
2.97408
2.92431
2.87286
2.83489
2.81122
2.7965
2.78565
2.78078
2.7804
2.77648
2.76661
2.7516
2.72531
2.68244
2.63776
2.6022
2.57296
2.55
2.53448
2.52349
2.51255
2.49964
2.4829
2.46043
2.43253
2.40413
2.3783
2.3582
2.34523
2.32743
5.03191
4.44102
3.94042
3.45831
3.01927
2.70538
2.41679
2.14268
1.90197
1.73284
1.58065
1.42999
1.32864
1.25629
1.16406
1.07201
1.04621
1.02404
0.985171
0.929444
0.861942
0.802317
0.791466
0.784834
0.765946
0.739147
0.723714
0.707133
0.6867
0.662757
0.651885
0.643205
0.643146
0.645273
0.650484
0.66374
0.69346
0.750857
0.8324
0.931568
1.00173
1.05997
1.12543
1.20026
1.23313
1.24108
1.23754
1.22523
1.23105
1.25382
1.2879
1.30294
1.30665
1.2998
1.28636
1.29228
1.3631
1.74078
2.44011
2.8772
3.10955
3.14446
3.14519
3.12536
3.10186
3.11381
3.50377
4.81564
5.95761
6.30294
6.26016
6.14604
6.06776
6.03575
6.02032
6.0252
6.00444
5.96396
5.92488
5.89741
5.86686
5.82331
5.77256
5.70355
5.64095
5.6028
5.57707
5.57305
5.56696
5.53423
5.48782
5.42017
5.34681
5.30058
5.26707
5.23645
5.20444
5.16358
5.10669
5.03683
4.97352
4.92515
4.88371
4.85086
4.82726
4.81046
4.79374
4.7705
4.73277
4.67812
4.62123
4.57488
4.53388
4.48909
4.44069
4.39209
4.34754
4.29947
4.24656
4.20094
4.16758
4.14371
4.12902
4.11507
4.09345
4.06469
4.02433
3.97932
3.94027
3.90869
3.8812
3.85511
3.82758
3.79442
3.75319
3.71051
3.67455
3.64356
3.61315
3.57961
3.54009
3.49376
3.45228
3.42733
3.41242
3.40667
3.41197
3.40745
3.38969
3.35866
3.30292
3.2292
3.16676
3.12506
3.09844
3.08118
3.06867
3.06088
3.05471
3.04461
3.02526
2.99205
2.95024
2.91007
2.87484
2.84399
2.81896
2.8022
2.79259
2.79074
2.79405
2.78552
2.76983
2.74704
2.71329
2.66992
2.62164
2.5808
2.55611
2.54396
2.53602
2.5329
2.52998
2.51984
2.5032
2.47251
2.42781
2.38415
2.35288
2.33398
2.32593
2.31848
5.17002
4.647
4.18474
3.71202
3.3137
2.99428
2.6964
2.39072
2.17173
1.97809
1.80758
1.63207
1.52777
1.45086
1.36114
1.27009
1.19461
1.12471
1.08679
1.0578
1.00781
0.929123
0.887915
0.874491
0.857767
0.837932
0.817964
0.791592
0.76439
0.743283
0.726981
0.707626
0.679051
0.65832
0.658463
0.663576
0.66591
0.670833
0.686114
0.721997
0.776473
0.846204
0.927049
1.01726
1.10445
1.18829
1.22042
1.21954
1.21312
1.22684
1.25958
1.29276
1.29751
1.29348
1.29841
1.40779
1.75062
2.4604
2.89957
3.05937
3.10404
3.09902
3.09918
3.10445
3.11324
3.10603
3.11757
3.47021
4.64961
5.83984
6.18135
6.16077
6.06053
6.01813
5.99854
6.01089
6.00168
5.9668
5.92105
5.87736
5.84158
5.80482
5.765
5.71362
5.65166
5.60855
5.58281
5.57833
5.56766
5.53059
5.48642
5.42909
5.35762
5.30688
5.27229
5.24387
5.21361
5.17552
5.12078
5.03685
4.95376
4.89728
4.86211
4.84094
4.84233
4.84889
4.83594
4.80482
4.76019
4.69195
4.59883
4.51556
4.45152
4.40729
4.37823
4.35984
4.33782
4.30876
4.27486
4.23206
4.18344
4.15083
4.13023
4.11164
4.09054
4.06442
4.03118
3.99224
3.95097
3.91288
3.88135
3.85283
3.81998
3.781
3.73679
3.6921
3.65085
3.6132
3.57989
3.54944
3.51801
3.48623
3.45904
3.44029
3.4293
3.42707
3.42629
3.41054
3.38296
3.34162
3.28518
3.2264
3.17443
3.13494
3.10922
3.093
3.08304
3.07523
3.06038
3.03211
2.9949
2.95674
2.92353
2.90146
2.88512
2.86989
2.85396
2.83525
2.81407
2.793
2.77375
2.75719
2.73912