/*--------------------------------*- C++ -*----------------------------------*\
  =========                 |
  \\      /  F ield         | OpenFOAM: The Open Source CFD Toolbox
   \\    /   O peration     | Website:  https://openfoam.org
    \\  /    A nd           | Version:  7
     \\/     M anipulation  |
\*---------------------------------------------------------------------------*/
FoamFile
{
    version     2.0;
    format      ascii;
    class       volScalarField;
    location    "3.4";
    object      T;
}
// * * * * * * * * * * * * * * * * * * * * * * * * * * * * * * * * * * * * * //

dimensions      [0 0 0 1 0 0 0];

internalField   nonuniform List<scalar> 
16128
(
1
1
1
1
1
1
1
1
1
1
1
1
1
1
1
1
1
1
1
1
1
1
1
1
1.97602
2.65927
2.70783
2.71895
2.72977
2.73607
2.74007
2.74266
2.74519
2.74893
2.75504
2.76391
2.7742
2.78308
2.7883
2.79032
2.79144
2.79356
2.79773
2.80329
2.8084
2.81176
2.81357
2.81463
1
1
1
1
1
1
1
1
1
1
1
1
1
1
1
1
1
1
1
1
1
1
1
1
1.96531
2.65644
2.70746
2.71883
2.72953
2.73576
2.7397
2.74224
2.74474
2.74848
2.75462
2.7635
2.77374
2.78254
2.78766
2.7896
2.79066
2.79276
2.7969
2.8024
2.80744
2.81077
2.81258
2.81364
1
1
1
1
1
1
1
1
1
1
1
1
1
1
1
1
1
1
1
1
1
1
1
1
1.93752
2.65135
2.7058
2.71781
2.7286
2.73491
2.73884
2.74135
2.74382
2.74756
2.75372
2.76264
2.77287
2.78158
2.78659
2.78846
2.7895
2.7916
2.79572
2.80112
2.80601
2.80921
2.81095
2.81198
1
1
1
1
1
1
1
1
1
1
1
1
1
1
1
1
1
1
1
1
1
1
1
1
1.89528
2.64244
2.70246
2.71568
2.72695
2.73357
2.7376
2.74009
2.74246
2.74608
2.75213
2.76099
2.77118
2.77986
2.78482
2.78666
2.7877
2.7898
2.79389
2.79919
2.80393
2.80701
2.80867
2.80968
1
1
1
1
1
1
1
1
1
1
1
1
1
1
1
1
1
1
1
1
1
1
1
1
1.83819
2.62935
2.69717
2.71196
2.72413
2.73148
2.73593
2.73856
2.74085
2.74427
2.75002
2.75865
2.76874
2.77748
2.78258
2.78451
2.78555
2.7876
2.79159
2.7967
2.80121
2.80411
2.80562
2.80658
1
1
1
1
1
1
1
1
1
1
1
1
1
1
1
1
1
1
1
1
1
1
1
1
1.76343
2.61071
2.69024
2.70648
2.7198
2.72819
2.7334
2.73638
2.73866
2.74179
2.74706
2.75521
2.76511
2.774
2.77942
2.7816
2.78273
2.78474
2.7886
2.79355
2.79787
2.80061
2.80194
2.80282
1
1
1
1
1
1
1
1
1
1
1
1
1
1
1
1
1
1
1
1
1
1
1
1
1.66783
2.58489
2.68248
2.69973
2.71398
2.72344
2.72968
2.73329
2.7357
2.73856
2.74324
2.75074
2.7603
2.76935
2.77528
2.77788
2.77915
2.7811
2.78477
2.78954
2.7937
2.79631
2.79747
2.79829
1
1
1
1
1
1
1
1
1
1
1
1
1
1
1
1
1
1
1
1
1
1
1
1
1.55221
2.54981
2.67588
2.69218
2.70719
2.71749
2.72489
2.72942
2.73222
2.73493
2.73903
2.74571
2.7547
2.76377
2.7702
2.77329
2.77476
2.77663
2.78007
2.78462
2.7886
2.79105
2.79201
2.79269
1
1
1
1
1
1
1
1
1
1
1
1
1
1
1
1
1
1
1
1
1
1
1
1
1.40781
2.49467
2.67183
2.6847
2.69924
2.70975
2.71827
2.72408
2.72776
2.73064
2.73434
2.7402
2.74845
2.75732
2.76413
2.7677
2.76932
2.77101
2.7741
2.77838
2.78225
2.78465
2.78553
2.78619
1
1
1
1
1
1
1
1
1
1
1
1
1
1
1
1
1
1
1
1
1
1
1
1
1.23519
2.4214
2.67353
2.67702
2.68946
2.70007
2.70972
2.717
2.72192
2.7254
2.72898
2.73411
2.74151
2.75
2.75705
2.76109
2.7629
2.76446
2.76721
2.77117
2.77477
2.77684
2.77745
2.77784
1
1
1
1
1
1
1
1
1
1
1
1
1
1
1
1
1
1
1
1
1
1
1
1
1.06053
2.3429
2.67719
2.67495
2.68257
2.69075
2.69996
2.70826
2.71464
2.71902
2.72271
2.72725
2.73374
2.74162
2.74874
2.75318
2.75515
2.75643
2.75863
2.76198
2.7651
2.76697
2.76762
2.76818
1
1
1
1
1
1
1
1
1
1
1
1
1
1
1
1
1
1
1
1
1
1
1
1
1.00151
2.24913
2.67229
2.67231
2.67785
2.68495
2.69288
2.70058
2.70681
2.71188
2.71582
2.71985
2.72532
2.73233
2.73924
2.74394
2.74604
2.74713
2.74882
2.75149
2.75404
2.75521
2.75497
2.75447
1
1
1
1
1
1
1
1
1
1
1
1
1
1
1
1
1
1
1
1
1
1
1
1
1
2.12337
2.66683
2.67354
2.67805
2.68327
2.6891
2.69507
2.7009
2.70513
2.7085
2.71184
2.71614
2.72195
2.72833
2.73309
2.73533
2.73613
2.73679
2.73783
2.73868
2.73892
2.73791
2.73782
1
1
1
1
1
1
1
1
1
1
1
1
1
1
1
1
1
1
1
1
1
1
1
1
1
1.95197
2.63398
2.66921
2.67677
2.68312
2.68785
2.69175
2.69524
2.69859
2.70136
2.70365
2.70651
2.7108
2.71626
2.72071
2.7228
2.72286
2.72228
2.72185
2.72133
2.72034
2.71615
2.70977
1
1
1
1
1
1
1
1
1
1
1
1
1
1
1
1
1
1
1
1
1
1
1
1
1
1.73627
2.56371
2.65203
2.66803
2.67858
2.6847
2.68855
2.69136
2.69358
2.69509
2.69614
2.69735
2.69977
2.70361
2.70669
2.7082
2.70756
2.70556
2.70266
2.69802
2.69022
2.68016
2.67116
1
1
1
1
1
1
1
1
1
1
1
1
1
1
1
1
1
1
1
1
1
1
1
1
1
1.4332
2.44166
2.63682
2.65303
2.66563
2.6743
2.68039
2.68468
2.68756
2.6891
2.68924
2.68897
2.68945
2.69088
2.69185
2.69188
2.69012
2.68582
2.67901
2.66928
2.65679
2.64631
2.64924
1
1
1
1
1
1
1
1
1
1
1
1
1
1
1
1
1
1
1
1
1
1
1
1
1
1.08413
2.32749
2.63254
2.63176
2.64079
2.65383
2.66474
2.67283
2.67813
2.681
2.68138
2.68067
2.67972
2.67841
2.67708
2.67485
2.67086
2.66388
2.65336
2.63696
2.60944
2.54934
2.42978
1
1
1
1
1
1
1
1
1
1
1
1
1
1
1
1
1
1
1
1
1
1
1
1
1
1.00177
2.21421
2.6157
2.6144
2.62155
2.63253
2.6446
2.65548
2.66358
2.66914
2.67134
2.67096
2.66927
2.6664
2.66274
2.65773
2.65079
2.64033
2.62438
2.59921
2.55342
2.48188
2.29618
1
1
1
1
1
1
1
1
1
1
1
1
1
1
1
1
1
1
1
1
1
1
1
1
1
0.999993
2.01475
2.6001
2.61667
2.61975
2.62269
2.62877
2.63747
2.64576
2.65312
2.65771
2.65867
2.65727
2.65379
2.64843
2.64091
2.63068
2.61639
2.59507
2.56283
2.50996
2.41834
2.22245
1
1
1
1
1
1
1
1
1
1
1
1
1
1
1
1
1
1
1
1
1
1
1
1
1
0.999998
1.71041
2.52732
2.61323
2.61553
2.61748
2.6196
2.62369
2.62896
2.63525
2.64082
2.64346
2.6428
2.63962
2.63355
2.62429
2.61121
2.59315
2.56739
2.52903
2.47346
2.37055
2.20146
1
1
1
1
1
1
1
1
1
1
1
1
1
1
1
1
1
1
1
1
1
1
1
1
1
1
1.30854
2.38882
2.60665
2.60608
2.60932
2.61171
2.61369
2.61573
2.61891
2.62297
2.62588
2.62577
2.62328
2.61735
2.6073
2.59247
2.57149
2.54247
2.50071
2.44327
2.34269
2.20896
1
1
1
1
1
1
1
1
1
1
1
1
1
1
1
1
1
1
1
1
1
1
1
1
1
1
1.02689
2.24546
2.59643
2.59482
2.59768
2.60228
2.60431
2.6046
2.60504
2.60629
2.60759
2.60725
2.60487
2.59924
2.58924
2.5739
2.55165
2.52064
2.47742
2.41926
2.32878
2.22058
1
1
1
1
1
1
1
1
1
1
1
1
1
1
1
1
1
1
1
1
1
1
1
1
1
1
1.00011
2.01769
2.55129
2.58032
2.589
2.59345
2.59489
2.59445
2.59326
2.59197
2.59076
2.58888
2.58556
2.57967
2.56985
2.55481
2.53286
2.50182
2.4589
2.40226
2.32289
2.23325
1
1
1
1
1
1
1
1
1
1
1
1
1
1
1
1
1
1
1
1
1
1
1
1
1
1
0.999999
1.62446
2.4581
2.56818
2.57629
2.58228
2.58497
2.58451
2.58275
2.57988
2.57637
2.57218
2.5669
2.55976
2.5495
2.53475
2.51382
2.48438
2.44415
2.39055
2.32071
2.24493
1
1
1
1
1
1
1
1
1
1
1
1
1
1
1
1
1
1
1
1
1
1
1
1
1
1
1
1.12695
2.30957
2.56416
2.56066
2.56471
2.57019
2.57164
2.57064
2.56777
2.5632
2.55729
2.54998
2.54102
2.52962
2.51461
2.49453
2.46697
2.43059
2.38146
2.32073
2.25596
1
1
1
1
1
1
1
1
1
1
1
1
1
1
1
1
1
1
1
1
1
1
1
1
1
1
1
1.00396
2.13952
2.52824
2.53617
2.54689
2.55336
2.55631
2.55649
2.55464
2.55032
2.5437
2.53504
2.52434
2.51132
2.49542
2.47555
2.44907
2.41618
2.37306
2.32026
2.26452
1
1
1
1
1
1
1
1
1
1
1
1
1
1
1
1
1
1
1
1
1
1
1
1
1
1
1
0.999981
1.75419
2.4608
2.52194
2.53148
2.53775
2.54129
2.5421
2.54072
2.53698
2.53051
2.52136
2.50976
2.49555
2.47873
2.45809
2.43204
2.40148
2.36345
2.31855
2.27019
1
1
1
1
1
1
1
1
1
1
1
1
1
1
1
1
1
1
1
1
1
1
1
1
1
1
1
0.999995
1.2037
2.32022
2.52506
2.51729
2.51954
2.52337
2.5249
2.52418
2.52149
2.51604
2.50753
2.49601
2.48136
2.46422
2.44246
2.41698
2.38772
2.35295
2.31459
2.27072
1
1
1
1
1
1
1
1
1
1
1
1
1
1
1
1
1
1
1
1
1
1
1
1
1
1
1
0.999999
1.01002
2.14857
2.49506
2.49563
2.50211
2.50516
2.50669
2.50648
2.50463
2.50035
2.49301
2.48253
2.46864
2.45119
2.42945
2.40491
2.37657
2.34401
2.30949
2.27002
1
1
1
1
1
1
1
1
1
1
1
1
1
1
1
1
1
1
1
1
1
1
1
1
1
1
1
1
0.99999
1.71373
2.42036
2.48463
2.48981
2.49134
2.49131
2.49031
2.48791
2.48386
2.47742
2.46788
2.45552
2.43864
2.41797
2.3946
2.36726
2.33677
2.30404
2.26787
1
1
1
1
1
1
1
1
1
1
1
1
1
1
1
1
1
1
1
1
1
1
1
1
1
1
1
1
0.999995
1.14043
2.26739
2.48949
2.47956
2.47711
2.47591
2.4737
2.47072
2.46676
2.46092
2.45254
2.44123
2.42619
2.40744
2.38557
2.35973
2.33127
2.29987
2.26624
1
1
1
1
1
1
1
1
1
1
1
1
1
1
1
1
1
1
1
1
1
1
1
1
1
1
1
1
0.999999
1.00451
2.03374
2.44855
2.45752
2.46219
2.46086
2.45812
2.45478
2.45051
2.44465
2.43677
2.42633
2.41286
2.39625
2.37621
2.35249
2.32601
2.29619
2.26468
1
1
1
1
1
1
1
1
1
1
1
1
1
1
1
1
1
1
1
1
1
1
1
1
1
1
1
1
1
0.999987
1.48726
2.33505
2.44845
2.44777
2.44668
2.44471
2.44154
2.43676
2.4302
2.4219
2.41169
2.39909
2.38415
2.36612
2.34482
2.32035
2.29286
2.26342
1
1
1
1
1
1
1
1
1
1
1
1
1
1
1
1
1
1
1
1
1
1
1
1
1
1
1
1
1
0.999996
1.05928
2.15353
2.43469
2.43043
2.43027
2.42953
2.42732
2.42278
2.41597
2.40739
2.3972
2.38522
2.37141
2.35506
2.33575
2.31347
2.28867
2.26143
1
1
1
1
1
1
1
1
1
1
1
1
1
1
1
1
1
1
1
1
1
1
1
1
1
1
1
1
1
0.999999
1.00063
1.71915
2.35011
2.40954
2.4128
2.41471
2.41328
2.40919
2.40262
2.39415
2.384
2.37223
2.35885
2.34339
2.32562
2.30558
2.28333
2.25866
1
1
1
1
1
1
1
1
1
1
1
1
1
1
1
1
1
1
1
1
1
1
1
1
1
1
1
1
1
1
0.999999
1.14663
2.1859
2.40821
2.40025
2.40087
2.39901
2.39482
2.38871
2.3808
2.37108
2.35965
2.34658
2.3317
2.31512
2.29692
2.27675
2.25462
1
1
1
1
1
1
1
1
1
1
1
1
1
1
1
1
1
1
1
1
1
1
1
1
1
1
1
1
1
1
1
1.00453
1.84993
2.35309
2.37774
2.38133
2.38058
2.37803
2.37348
2.36679
2.35802
2.34733
2.33477
2.32048
2.30481
2.28785
2.26923
2.24904
1
1
1
1
1
1
1
1
1
1
1
1
1
1
1
1
1
1
1
1
1
1
1
1
1
1
1
1
1
1
1
1
1.22956
2.19456
2.37849
2.37014
2.36675
2.36333
2.3588
2.35262
2.34454
2.33457
2.32286
2.30946
2.29469
2.27872
2.26127
2.24248
1
1
1
1
1
1
1
1
1
1
1
1
1
1
1
1
1
1
1
1
1
1
1
1
1
1
1
1
1
1
1
1
1.01149
1.90925
2.33574
2.3527
2.34945
2.34648
2.34267
2.33721
2.32987
2.32084
2.31026
2.29801
2.28435
2.2695
2.25299
2.23532
1
1
1
1
1
1
1
1
1
1
1
1
1
1
1
1
1
1
1
1
1
1
1
1
1
1
1
1
1
1
1
1
1.00003
1.28347
2.18271
2.34853
2.33919
2.33465
2.32986
2.32375
2.31653
2.30821
2.29859
2.28727
2.27438
2.26039
2.24466
2.22783
1
1
1
1
1
1
1
1
1
1
1
1
1
1
1
1
1
1
1
1
1
1
1
1
1
1
1
1
1
1
1
1
1
1.01776
1.9137
2.30684
2.32575
2.32117
2.3161
2.30997
2.30291
2.29491
2.2858
2.27523
2.26311
2.25012
2.23562
2.21973
1
1
1
1
1
1
1
1
1
1
1
1
1
1
1
1
1
1
1
1
1
1
1
1
1
1
1
1
1
1
1
1
1
1.00008
1.29808
2.14933
2.31622
2.30952
2.3048
2.29845
2.29104
2.28288
2.27384
2.26379
2.25242
2.24028
2.227
2.21211
1
1
1
1
1
1
1
1
1
1
1
1
1
1
1
1
1
1
1
1
1
1
1
1
1
1
1
1
1
1
1
1
1
1
1.01964
1.85551
2.26839
2.29938
2.29274
2.28602
2.27886
2.27099
2.26216
2.25246
2.2417
2.23013
2.21777
2.20402
1
1
1
1
1
1
1
1
1
1
1
1
1
1
1
1
1
1
1
1
1
1
1
1
1
1
1
1
1
1
1
1
1
1
1.00011
1.26015
2.09802
2.28556
2.27974
2.27483
2.26804
2.26018
2.25147
2.2421
2.23192
2.22093
2.20924
2.1964
1
1
1
1
1
1
1
1
1
1
1
1
1
1
1
1
1
1
1
1
1
1
1
1
1
1
1
1
1
1
1
1
1
1
1
1.01473
1.73294
2.21568
2.26901
2.26104
2.25465
2.24798
2.24058
2.23224
2.2228
2.21233
2.20105
2.18871
1
1
1
1
1
1
1
1
1
1
1
1
1
1
1
1
1
1
1
1
1
1
1
1
1
1
1
1
1
1
1
1
1
1
1
1.00009
1.18055
2.02938
2.25568
2.24608
2.24245
2.2376
2.23128
2.22345
2.21428
2.20404
2.19306
2.18123
1
1
1
1
1
1
1
1
1
1
1
1
1
1
1
1
1
1
1
1
1
1
1
1
1
1
1
1
1
1
1
1
1
1
1
1
1.007
1.56074
2.14209
2.23084
2.22588
2.22296
2.21818
2.2118
2.20395
2.1947
2.18441
2.17342
1
1
1
1
1
1
1
1
1
1
1
1
1
1
1
1
1
1
1
1
1
1
1
1
1
1
1
1
1
1
1
1
1
1
1
1
1.00004
1.09353
1.92151
2.2189
2.21479
2.2102
2.20476
2.19944
2.19309
2.18526
2.17593
2.16575
1
1
1
1
1
1
1
1
1
1
1
1
1
1
1
1
1
1
1
1
1
1
1
1
1
1
1
1
1
1
1
1
1
1
1
1
1
1.00199
1.38317
2.07333
2.20162
2.19251
2.18862
2.18407
2.17877
2.17254
2.165
2.15609
1
1
1
1
1
1
1
1
1
1
1
1
1
1
1
1
1
1
1
1
1
1
1
1
1
1
1
1
1
1
1
1
1
1
1
1
1
1.00001
1.03665
1.74085
2.14735
2.18849
2.18033
2.17387
2.16782
2.16161
2.15488
2.14716
1
1
1
1
1
1
1
1
1
1
1
1
1
1
1
1
1
1
1
1
1
1
1
1
1
1
1
1
1
1
1
1
1
1
1
1
1
1
1.00044
1.20082
1.95668
2.17647
2.1691
2.16251
2.15606
2.14972
2.14318
2.13618
1
1
1
1
1
1
1
1
1
1
1
1
1
1
1
1
1
1
1
1
1
1
1
1
1
1
1
1
1
1
1
1
1
1
1
1
1
1
1
1.009
1.48492
2.06224
2.15742
2.14934
2.14351
2.13782
2.13168
2.12497
1
1
1
1
1
1
1
1
1
1
1
1
1
1
1
1
1
1
1
1
1
1
1
1
1
1
1
1
1
1
1
1
1
1
1
1
1
1
1
1.00007
1.06752
1.77966
2.11488
2.14682
2.13829
2.13037
2.12295
2.11557
1
1
1
1
1
1
1
1
1
1
1
1
1
1
1
1
1
1
1
1
1
1
1
1
1
1
1
1
1
1
1
1
1
1
1
1
1
1
1
1
1.00126
1.24759
1.9348
2.13101
2.12767
2.12072
2.11363
2.10613
1
1
1
1
1
1
1
1
1
1
1
1
1
1
1
1
1
1
1
1
1
1
1
1
1
1
1
1
1
1
1
1
1
1
1
1
1
1
1
1
1.00001
1.01425
1.49145
2.02353
2.11624
2.10981
2.10309
2.09653
1
1
1
1
1
1
1
1
1
1
1
1
1
1
1
1
1
1
1
1
1
1
1
1
1
1
1
1
1
1
1
1
1
1
1
1
1
1
1
1
1
1.00013
1.07295
1.73284
2.06585
2.10568
2.09696
2.08897
1
1
1
1
1
1
1
1
1
1
1
1
1
1
1
1
1
1
1
1
1
1
1
1
1
1
1
1
1
1
1
1
1
1
1
1
1
1
1
1
1
1
1.00153
1.22019
1.87577
2.08499
2.08796
2.08109
1
1
1
1
1
1
1
1
1
1
1
1
1
1
1
1
1
1
1
1
1
1
1
1
1
1
1
1
1
1
1
1
1
1
1
1
1
1
1
1
1
1
1.00001
1.01157
1.41951
1.95995
2.0745
2.07077
1
1
1
1
1
1
1
1
1
1
1
1
1
1
1
1
1
1
1
1
1
1
1
1
1
1
1
1
1
1
1
1
1
1
1
1
1
1
1
1
1
1
1
1.00011
1.05094
1.61953
2.00893
2.06465
1
1
1
1
1
1
1
1
1
1
1
1
1
1
1
1
1
1
1
1
1
1
1
1
1
1
1
1
1
1
1
1
1
1
1
1
1
1
1
1
1
1
1
1
1.0009
1.1448
1.77873
2.02476
1
1
1
1
1
1
1
1
1
1
1
1
1
1
1
1
1
1
1
1
1
1
1
1
1
1
1
1
1
1
1
1
1
1
1
1
1
1
1
1
1
1
1
1
1
1.00537
1.29353
1.86436
1
1
1
1
1
1
1
1
1
1
1
1
1
1
1
1
1
1
1
1
1
1
1
1
1
1
1
1
1
1
1
1
1
1
1
1
1
1
1
1
1
1
1
1
1
1.00004
1.02247
1.4534
1
1
1
1
1
1
1
1
1
1
1
1
1
1
1
1
1
1
1
1
1
1
1
1
1
1
1
1
1
1
1
1
1
1
1
1
1
1
1
1
1
1
1
1
1
1
1.00029
1.06594
1
1
1
1
1
1
1
1
1
1
1
1
1
1
1
1
1
1
1
1
1
1
1
1
1
1
1
1
1
1
1
1
1
1
1
1
1
1
1
1
1
1
1
1
1
1
1
1.00146
1
1
1
1
1
1
1
1
1
1
1
1
1
1
1
1
1
1
1
1
1
1
1
1
1
1
1
1
1
1
1
1
1
1
1
1
1
1
1
1
1
1
1
1
1
1
1
1.00001
1
1
1
1
1
1
1
1
1
1
1
1
1
1
1
1
1
1
1
1
1
1
1
1
1
1
1
1
1
1
1
1
1
1
1
1
1
1
1
1
1
1
1
1
1
1
1
1
1
1
1
1
1
1
1
1
1
1
1
1
1
1
1
1
1
1
1
1
1
1
1
1
1
1
1
1
1
1
1
1
1
1
1
1
1
1
1
1
1
1
1
1
1
1
1
1
1
1
1
1
1
1
1
1
1
1
1
1
1
1
1
1
1
1
1
1
1
1
1
1
1
1
1
1
1
1
1
1
1
1
1
1
1
1
1
1
1
1
1
1
1
1
1
1
1
1
1
1
1
1
1
1
1
1
1
1
1
1
1
1
1
1
1
1
1
1
1
1
1
1
1
1
1
1
1
1
1
1
1
1
1
1
1
1
1
1
1
1
1
1
1
1
1
1
1
1
1
1
1
1
1
1
1
1
1
1
1
1
1
1
1
1
1
1
1
1
1
1
1
1
1
1
1
1
1
1
1
1
1
1
1
1
1
1
1
1
1
1
1
1
1
1
1
1
1
1
1
1
1
1
1
1
1
1
1
1
1
1
1
1
1
1
1
1
1
1
1
1
1
1
1
1
1
1
1
1
1
1
1
1
1
1
1
1
1
1
1
1
1
1
1
1
1
1
1
1
1
1
1
1
1
1
1
1
1
1
1
1
1
1
1
1
1
1
1
1
1
1
1
1
1
1
1
1
1
1
1
1
1
1
1
1
1
1
1
1
1
1
1
1
1
1
1
1
1
1
1
1
1
1
1
1
1
1
1
1
1
1
1
1
1
1
1
1
1
1
1
1
1
1
1
1
1
1
1
1
1
1
1
1
1
1
1
1
1
1
1
1
1
1
1
1
1
1
1
1
1
1
1
1
1
1
1
1
1
1
1
1
1
1
1
1
1
1
1
1
1
1
1
1
1
1
1
1
1
1
1
1
1
1
1
1
1
1
1
1
1
1
1
1
1
1
1
1
1
1
1
1
1
1
1
1
1
1
1
1
1
1
1
1
1
1
1
1
1
1
1
1
1
1
1
1
1
1
1
1
1
1
1
1
1
1
1
1
1
1
1
1
1
1
1
1
1
1
1
1
1
1
1
1
1
1
1
1
1
1
1
1
1
1
1
1
1
1
1
1
1
1
1
1
1
1
1
1
1
1
1
1
1
1
1
1
1
1
1
1
1
1
1
1
1
1
1
1
1
1
1
1
1
1
1
1
1
1
1
1
1
1
1
1
1
1
1
1
1
1
1
1
1
1
1
1
1
1
1
1
1
1
1
1
1
1
1
1
1
1
1
1
1
1
1
1
1
1
1
1
1
1
1
1
1
1
1
1
1
1
1
1
1
1
1
1
1
1
1
1
1
1
1
1
1
1
1
1
1
1
1
1
1
1
1
1
1
1
1
1
1
1
1
1
1
1
1
1
1
1
1
1
1
1
1
1
1
1
1
1
1
1
1
1
1
1
1
1
1
1
1
1
1
1
1
1
1
1
1
1
1
1
1
1
1
1
1
1
1
1
1
1
1
1
1
1
1
1
1
1
1
1
1
1
1
1
1
1
1
1
1
1
1
1
1
1
1
1
1
1
1
1
1
1
1.55387
0.976681
0.783456
0.843597
0.827841
0.86666
0.980006
1.10808
1.20671
1.32674
1.44828
1.4832
1.48831
1.47034
1.45566
1.48452
1.57499
1.65252
1.66183
1.65532
1.6324
1.61762
1.62074
1.63322
1.64971
1.65342
1.64428
1.62847
1.62844
1.64273
1.66542
1.67024
1.66535
1.65161
1.64577
1.64702
1.65419
1.66427
1.66782
1.6669
1.66538
1.66604
1.66945
1.67115
1.67015
1.66807
1.66585
1.66518
1.66522
1.66738
1.67372
1.67861
1.68125
1.68282
1.68244
1.68213
1.68153
1.68
1.67866
1.67752
1.67677
1.67573
2.15297
2.78238
2.80382
2.8105
2.82337
2.83021
2.82987
2.8255
2.81746
2.80787
2.79724
2.78644
2.7747
2.76238
2.74991
2.73791
2.72667
2.71583
2.70517
2.69523
2.68681
2.68049
2.67616
2.67286
2.66937
2.66463
2.65781
2.64814
2.63565
2.62144
2.60708
2.59418
2.58373
2.57519
2.56661
2.55706
2.54678
2.53645
2.52627
2.51595
2.50505
2.49366
2.48319
2.47417
2.46668
2.4605
2.4551
2.45073
2.44774
2.44494
2.43903
2.42879
2.41522
2.39601
2.37923
2.36722
2.35772
2.35174
2.34821
2.34526
2.34252
2.33997
2.33756
2.33506
2.33147
2.32497
2.31566
2.30177
2.28718
2.2768
2.26927
2.26357
2.26043
2.25881
2.25652
2.25157
2.24489
2.23562
2.22289
2.21239
2.20439
2.19714
2.19034
2.18354
2.17679
2.1703
2.16397
2.15798
2.15242
2.14727
2.14216
2.13702
2.13199
2.12697
2.12215
2.1181
2.11458
2.1117
2.10942
2.10558
2.10032
2.09295
2.08326
2.07468
2.06831
2.06254
2.05717
2.05317
2.04872
2.04266
2.03595
2.02671
2.01515
2.00588
2.00059
1.99746
1.99531
1.99481
1.99735
2.00107
2.00199
1.99946
1.99515
1.98814
1.97528
1.95779
1.94431
1.93752
1.93468
1.93055
1.81071
1.464
1.26014
1.21908
1.18139
1.06285
1.00171
1.01392
1.04202
1.07844
1.12722
1.15303
1.15751
1.18292
1.22933
1.28443
1.34565
1.40917
1.45974
1.48945
1.50053
1.50758
1.524
1.5541
1.58289
1.59906
1.59783
1.58951
1.58636
1.59215
1.60833
1.62183
1.62428
1.61933
1.61662
1.61743
1.62024
1.62689
1.63499
1.64051
1.64333
1.6471
1.64926
1.649
1.64845
1.64671
1.64483
1.64308
1.64352
1.64606
1.65255
1.65884
1.66254
1.66481
1.66457
1.66308
1.66237
1.66151
1.66162
1.66183
1.66117
1.65689
2.11254
2.75985
2.80617
2.8089
2.81505
2.81405
2.81071
2.80419
2.79471
2.78316
2.77056
2.75863
2.74819
2.73825
2.72789
2.71715
2.70672
2.69713
2.68852
2.68084
2.67389
2.66728
2.66061
2.65369
2.64608
2.63753
2.62817
2.61865
2.60845
2.59744
2.58633
2.57594
2.56659
2.55765
2.54831
2.53854
2.52842
2.51849
2.50947
2.50169
2.49513
2.48948
2.48334
2.47552
2.46616
2.45616
2.44657
2.43772
2.42916
2.42096
2.41319
2.40505
2.39632
2.38767
2.37774
2.36813
2.35974
2.35245
2.34589
2.34005
2.33511
2.33066
2.32599
2.32124
2.31615
2.31053
2.30397
2.29683
2.28867
2.27909
2.26938
2.26122
2.25488
2.24944
2.24443
2.23976
2.2345
2.22792
2.22134
2.21372
2.20475
2.19558
2.18697
2.17898
2.17141
2.16391
2.15641
2.15012
2.14583
2.14242
2.13918
2.13587
2.13192
2.12715
2.12195
2.11661
2.11156
2.1072
2.10283
2.09861
2.09444
2.08916
2.08252
2.07504
2.06738
2.06067
2.05477
2.0489
2.04309
2.03763
2.03191
2.02509
2.01746
2.00958
2.00245
1.99766
1.99512
1.99429
1.99463
1.99333
1.99088
1.98845
1.98503
1.97933
1.97094
1.96181
1.95206
1.94196
1.93512
1.93021
1.92982
1.68974
1.45147
1.39471
1.33637
1.23394
1.15525
1.12978
1.0854
1.05257
1.0648
1.07331
1.06873
1.08396
1.12168
1.14923
1.17216
1.20232
1.2497
1.30114
1.34058
1.36634
1.39361
1.42869
1.46366
1.49146
1.51313
1.52271
1.52299
1.52518
1.53767
1.55092
1.55892
1.56028
1.56251
1.56235
1.56177
1.56383
1.56774
1.57587
1.58684
1.59625
1.60118
1.60232
1.6019
1.60032
1.59892
1.59799
1.59853
1.60198
1.60764
1.61403
1.61817
1.62101
1.62163
1.62009
1.61744
1.6163
1.61648
1.6184
1.62115
1.62099
1.93172
2.65464
2.76821
2.75304
2.7491
2.74488
2.73791
2.72979
2.72165
2.71226
2.70026
2.68775
2.67709
2.66888
2.66152
2.65329
2.64396
2.63404
2.62504
2.61809
2.61342
2.6109
2.6086
2.60484
2.59915
2.59052
2.57906
2.56804
2.557
2.54564
2.53533
2.52723
2.52069
2.51373
2.50383
2.49323
2.48304
2.47265
2.46262
2.45497
2.44957
2.44747
2.44762
2.44727
2.44404
2.43735
2.42781
2.41453
2.39778
2.38132
2.36812
2.35834
2.3524
2.35105
2.34922
2.34449
2.33899
2.33335
2.3274
2.32156
2.31561
2.30922
2.30178
2.29276
2.28392
2.27763
2.27322
2.27047
2.26943
2.26673
2.26066
2.25276
2.24237
2.22986
2.21976
2.21312
2.20788
2.20452
2.20299
2.20044
2.19504
2.1881
2.17928
2.16894
2.15855
2.14866
2.13968
2.13279
2.12791
2.12434
2.12216
2.12128
2.12004
2.11801
2.11527
2.11077
2.10382
2.09558
2.08866
2.08346
2.07857
2.0744
2.0715
2.06753
2.06221
2.05538
2.04695
2.03852
2.03158
2.02491
2.01821
2.01318
2.00907
2.00487
2.00076
1.99593
1.99071
1.98641
1.98301
1.97935
1.97494
1.97019
1.96578
1.96178
1.95831
1.95542
1.95224
1.94669
1.93822
1.92623
1.99047
1.81157
1.65207
1.55245
1.4549
1.35868
1.31434
1.28234
1.21842
1.15588
1.15623
1.15407
1.1426
1.12726
1.11701
1.11793
1.11507
1.11725
1.13019
1.16107
1.20409
1.24529
1.28187
1.31584
1.34864
1.37211
1.39871
1.42868
1.44331
1.45557
1.47216
1.48613
1.49528
1.50189
1.50785
1.5076
1.50736
1.51045
1.51477
1.52318
1.53274
1.54057
1.54313
1.54251
1.54255
1.54253
1.54356
1.54553
1.54787
1.55087
1.55423
1.55785
1.56181
1.56473
1.56652
1.56641
1.56457
1.56343
1.56338
1.56456
1.56986
1.58322
1.71621
2.44517
2.70032
2.65949
2.63835
2.63225
2.62415
2.61441
2.60481
2.59705
2.58821
2.57885
2.57031
2.56352
2.55925
2.55537
2.55001
2.54283
2.5341
2.52533
2.51791
2.51351
2.51166
2.50867
2.50563
2.50231
2.49622
2.48786
2.48043
2.47232
2.46335
2.45487
2.44767
2.44086
2.4333
2.42576
2.41909
2.41282
2.40569
2.3976
2.39099
2.38691
2.38517
2.38528
2.38478
2.38108
2.37452
2.36492
2.35147
2.33582
2.32183
2.31174
2.3051
2.30436
2.30449
2.30198
2.29725
2.29208
2.28643
2.28036
2.27425
2.26759
2.26015
2.25198
2.24418
2.23859
2.23481
2.23224
2.23178
2.23184
2.22811
2.22147
2.21334
2.20197
2.18929
2.18049
2.17577
2.17281
2.1718
2.17088
2.16777
2.16273
2.15578
2.14558
2.13376
2.12394
2.11654
2.11049
2.10533
2.1013
2.09855
2.09677
2.09553
2.09454
2.09332
2.09099
2.0864
2.079
2.06962
2.06085
2.05543
2.05205
2.04959
2.04768
2.04454
2.0399
2.03344
2.02434
2.01428
2.00605
2.00032
1.99611
1.99395
1.99299
1.99037
1.98679
1.98182
1.97401
1.96505
1.95836
1.95339
1.94888
1.94473
1.94213
1.94139
1.94231
1.94211
1.93977
1.93616
1.92271
2.05317
1.90151
1.7703
1.67937
1.58756
1.4805
1.43449
1.39379
1.33706
1.28619
1.25894
1.2352
1.21284
1.19538
1.18178
1.16854
1.1539
1.15
1.15317
1.16554
1.16495
1.16799
1.17689
1.19424
1.22442
1.25778
1.29575
1.34743
1.38486
1.40307
1.41547
1.42932
1.44229
1.45248
1.46294
1.4674
1.47328
1.48021
1.48758
1.49667
1.50312
1.50654
1.50596
1.50374
1.50436
1.50554
1.50765
1.51258
1.51641
1.51852
1.52017
1.5219
1.52335
1.52448
1.5254
1.52612
1.52595
1.52448
1.52421
1.52668
1.54196
1.61694
1.76309
2.1519
2.51456
2.57225
2.53629
2.51818
2.5098
2.50209
2.49641
2.49156
2.48624
2.48043
2.47573
2.47155
2.46893
2.46716
2.46446
2.46028
2.45323
2.44389
2.43624
2.43057
2.42781
2.42568
2.42352
2.42126
2.41656
2.40899
2.40317
2.39851
2.39319
2.38739
2.38063
2.3727
2.36511
2.35854
2.35304
2.34858
2.34484
2.3411
2.33687
2.33264
2.329
2.32542
2.32112
2.31582
2.30875
2.29986
2.28962
2.27956
2.27085
2.26349
2.25838
2.25614
2.25517
2.25307
2.25004
2.2461
2.24121
2.23547
2.22853
2.22005
2.2104
2.20203
2.19753
2.1954
2.19384
2.19263
2.19137
2.1888
2.18391
2.17783
2.1703
2.16045
2.14979
2.14244
2.13876
2.13663
2.13541
2.13414
2.13169
2.12803
2.12237
2.1127
2.10015
2.08963
2.08289
2.07837
2.07495
2.07247
2.07034
2.0683
2.0663
2.0642
2.06184
2.05887
2.05492
2.04989
2.04385
2.03699
2.03066
2.0265
2.02341
2.02044
2.01727
2.01343
2.00832
2.0016
1.99392
1.987
1.98168
1.97748
1.9748
1.97349
1.97093
1.96777
1.96395
1.95697
1.94604
1.93549
1.92859
1.92454
1.92237
1.92129
1.92148
1.92364
1.92381
1.9226
1.92069
1.91121
2.1003
1.97559
1.86262
1.77246
1.68811
1.59468
1.53936
1.48992
1.42708
1.38801
1.3625
1.32642
1.28541
1.27215
1.25674
1.23614
1.21689
1.20373
1.19351
1.18955
1.18688
1.18143
1.1758
1.16893
1.17018
1.17665
1.19184
1.2255
1.27939
1.3215
1.34647
1.3699
1.38979
1.40743
1.4277
1.44273
1.45204
1.46063
1.46915
1.47932
1.48553
1.4866
1.4854
1.48154
1.48084
1.4827
1.48609
1.49317
1.50069
1.5036
1.50407
1.5027
1.50198
1.50336
1.50553
1.50821
1.5087
1.5079
1.50869
1.52069
1.59448
1.77208
1.88537
1.96133
2.2399
2.42715
2.47441
2.46248
2.44869
2.43599
2.42723
2.42573
2.42514
2.42291
2.41912
2.41477
2.41122
2.40863
2.40642
2.40353
2.39852
2.3905
2.38277
2.37777
2.37478
2.37355
2.37134
2.36851
2.36398
2.35694
2.35126
2.34801
2.34527
2.34144
2.33563
2.32839
2.3201
2.31319
2.30805
2.30413
2.30204
2.30076
2.29824
2.29336
2.28531
2.27565
2.26694
2.2597
2.25346
2.24835
2.24428
2.24103
2.23858
2.23526
2.23006
2.2239
2.21888
2.21497
2.21155
2.20729
2.20214
2.19634
2.18972
2.18181
2.17273
2.16537
2.16207
2.16035
2.15902
2.15726
2.15422
2.1499
2.14432
2.13795
2.13109
2.12402
2.11774
2.11261
2.10826
2.10498
2.10267
2.10059
2.09832
2.09495
2.08936
2.08133
2.07232
2.06385
2.05662
2.05131
2.04787
2.04522
2.04279
2.04034
2.03726
2.03344
2.02941
2.02558
2.02211
2.01901
2.01596
2.01217
2.00674
2.00046
1.99551
1.99165
1.98779
1.98367
1.97953
1.97573
1.97228
1.96835
1.96364
1.959
1.95493
1.95119
1.94794
1.94469
1.94031
1.93316
1.92373
1.91439
1.90708
1.90288
1.90102
1.90001
1.89994
1.90078
1.90067
1.89954
1.89705
1.88913
2.13517
2.02982
1.93623
1.85246
1.76378
1.6852
1.63168
1.57847
1.51587
1.46602
1.43845
1.40159
1.35989
1.33812
1.32365
1.30924
1.28919
1.26443
1.2403
1.23215
1.22868
1.2224
1.21265
1.20165
1.19331
1.19043
1.18981
1.18981
1.19816
1.21543
1.23717
1.2651
1.30066
1.3362
1.36899
1.40215
1.43164
1.44839
1.45754
1.46485
1.47197
1.47549
1.47581
1.47405
1.47138
1.47144
1.47442
1.48115
1.49058
1.49495
1.49577
1.49541
1.49393
1.49478
1.49709
1.49955
1.50045
1.50351
1.52381
1.60633
1.77214
1.89552
1.94598
1.95275
2.01298
2.23402
2.39419
2.43486
2.43006
2.41538
2.4022
2.39659
2.39586
2.39544
2.3938
2.39127
2.38798
2.38537
2.38335
2.38033
2.37566
2.36933
2.36079
2.35316
2.34847
2.34491
2.34235
2.33919
2.33545
2.33071
2.32639
2.32327
2.32004
2.31588
2.31067
2.30374
2.29586
2.28945
2.28497
2.28214
2.28032
2.27755
2.27367
2.26755
2.25783
2.24667
2.23705
2.23025
2.22626
2.22463
2.22641
2.22858
2.22723
2.22265
2.21557
2.20448
2.19313
2.18604
2.18132
2.17702
2.17275
2.16809
2.16287
2.15708
2.15075
2.14485
2.14059
2.13747
2.13443
2.13095
2.12673
2.12167
2.11594
2.11009
2.10487
2.10061
2.09696
2.09329
2.08924
2.08462
2.07958
2.07489
2.07045
2.06555
2.05996
2.05434
2.04974
2.04578
2.0414
2.03635
2.03113
2.02646
2.02205
2.01683
2.01101
2.00591
2.00204
1.9993
1.9975
1.99598
1.99422
1.9916
1.9871
1.97918
1.97066
1.96485
1.96081
1.95765
1.9553
1.95353
1.95231
1.95047
1.94747
1.94334
1.93777
1.93144
1.92619
1.92111
1.91501
1.90804
1.90169
1.89647
1.89194
1.88777
1.88442
1.88242
1.88106
1.87992
1.87868
1.87571
1.87143
1.86482
2.16008
2.07102
1.99145
1.91333
1.82878
1.76369
1.70648
1.65082
1.59092
1.54864
1.50925
1.46584
1.42674
1.40013
1.37935
1.36697
1.35485
1.3389
1.31366
1.28158
1.26675
1.26052
1.25352
1.24387
1.22967
1.22116
1.21614
1.20654
1.19917
1.20274
1.20713
1.21005
1.21621
1.23395
1.26623
1.30689
1.35173
1.39525
1.41833
1.42988
1.44029
1.45517
1.46831
1.47377
1.47544
1.47334
1.4701
1.47243
1.47816
1.48689
1.49262
1.49458
1.49455
1.49201
1.49199
1.49302
1.49574
1.52135
1.64067
1.78714
1.91083
1.94569
1.9579
1.95603
1.95818
2.0234
2.23641
2.38313
2.41958
2.41413
2.40289
2.39061
2.38631
2.38434
2.38389
2.38325
2.38037
2.37641
2.37349
2.37097
2.36722
2.36148
2.35387
2.34483
2.33846
2.3342
2.33086
2.32882
2.32625
2.32261
2.31785
2.31182
2.30589
2.30109
2.29652
2.29156
2.28601
2.28005
2.27445
2.26971
2.26543
2.26068
2.25527
2.24913
2.24262
2.23631
2.22998
2.22443
2.22083
2.21969
2.21953
2.21735
2.21282
2.20631
2.19821
2.18897
2.17855
2.16895
2.16173
2.15718
2.15427
2.15121
2.14772
2.1442
2.14022
2.13522
2.12945
2.12412
2.1196
2.11538
2.1111
2.10664
2.10196
2.09698
2.09212
2.08774
2.08378
2.08002
2.076
2.0711
2.06469
2.05735
2.05094
2.04589
2.04224
2.03984
2.03853
2.03804
2.03577
2.03134
2.02359
2.0131
2.00397
1.99698
1.99136
1.98731
1.98495
1.98351
1.98275
1.98203
1.98045
1.97765
1.97196
1.96263
1.95285
1.94566
1.94153
1.93937
1.93785
1.93734
1.93775
1.93754
1.93587
1.93267
1.92674
1.91711
1.90707
1.8992
1.89305
1.88842
1.88543
1.88351
1.88157
1.8792
1.87607
1.87173
1.86613
1.86044
1.85524
1.85145
1.84926
1.84611
2.18165
2.1055
2.03537
1.96076
1.88575
1.82928
1.77281
1.71333
1.65606
1.61427
1.57247
1.52711
1.49578
1.47301
1.44203
1.40837
1.39843
1.38962
1.37422
1.35159
1.3225
1.29488
1.28996
1.28703
1.27851
1.26587
1.25774
1.2487
1.23786
1.22549
1.21973
1.21487
1.21461
1.2156
1.21853
1.22633
1.24333
1.27443
1.3143
1.35669
1.38516
1.40888
1.43499
1.46201
1.47198
1.4742
1.47304
1.4688
1.47066
1.47802
1.4892
1.49441
1.4958
1.49378
1.48918
1.49109
1.51484
1.63068
1.81066
1.90846
1.95182
1.95719
1.9577
1.95535
1.95283
1.95553
2.02716
2.22984
2.37409
2.41332
2.40796
2.39494
2.3853
2.38142
2.37988
2.38054
2.37823
2.37358
2.36897
2.36572
2.36214
2.35706
2.351
2.34283
2.33547
2.33112
2.3282
2.32771
2.32679
2.32233
2.31616
2.30788
2.29933
2.29416
2.29042
2.28685
2.28297
2.27774
2.27031
2.26108
2.25308
2.24725
2.24221
2.23821
2.23519
2.23311
2.23085
2.22764
2.22255
2.21525
2.20744
2.20105
2.19567
2.18989
2.18345
2.17687
2.17069
2.16372
2.1559
2.14935
2.14468
2.14159
2.13973
2.13788
2.13472
2.13043
2.1245
2.11791
2.11215
2.10748
2.10343
2.0996
2.09546
2.09041
2.0842
2.07791
2.07282
2.0686
2.06452
2.0599
2.0541
2.04701
2.04058
2.03691
2.03488
2.03429
2.03565
2.03529
2.03255
2.02707
2.01711
2.00387
1.99261
1.98526
1.98072
1.97801
1.9763
1.97555
1.97518
1.97387
1.97066
1.96481
1.95705
1.94952
1.94303
1.93737
1.9328
1.92998
1.92866
1.9287
1.92988
1.92881
1.92629
1.92202
1.91516
1.90603
1.89577
1.88707
1.88178
1.87914
1.8774
1.87704
1.87671
1.87472
1.8712
1.86466
1.85502
1.84557
1.83923
1.83594
1.83488
1.83348
2.19843
2.13265
2.06983
1.99982
1.93635
1.88228
1.82736
1.76524
1.7181
1.67374
1.63094
1.58319
1.55468
1.5329
1.50569
1.47636
1.45045
1.42494
1.41082
1.40021
1.38122
1.3497
1.33224
1.32637
1.31891
1.31017
1.30117
1.28865
1.27528
1.26506
1.25741
1.24811
1.23323
1.22194
1.22196
1.22473
1.22623
1.22913
1.23753
1.25636
1.28438
1.31806
1.35491
1.39311
1.42774
1.45794
1.46799
1.46745
1.46515
1.47001
1.48141
1.49236
1.49389
1.49268
1.49447
1.53324
1.64069
1.81613
1.90923
1.94405
1.95362
1.95232
1.95144
1.95236
1.95478
1.95391
1.9558
2.02067
2.20731
2.36197
2.40042
2.3978
2.38502
2.37903
2.37641
2.37764
2.37626
2.37177
2.36613
2.36097
2.35673
2.35235
2.34768
2.34162
2.3342
2.32907
2.32615
2.32563
2.32407
2.31888
2.31266
2.30524
2.29683
2.29107
2.28722
2.28403
2.28042
2.27557
2.26859
2.25803
2.24755
2.24038
2.236
2.23333
2.23348
2.23413
2.23218
2.22766
2.22121
2.21148
2.19848
2.18715
2.17875
2.17302
2.1693
2.167
2.16418
2.16038
2.1559
2.14987
2.14279
2.13821
2.1354
2.13289
2.12987
2.12603
2.12107
2.11525
2.10912
2.1034
2.09859
2.09417
2.08905
2.08293
2.07601
2.06913
2.06296
2.05761
2.05313
2.04917
2.04508
2.04075
2.03676
2.034
2.03271
2.03289
2.03335
2.03132
2.02693
2.01984
2.01002
1.99971
1.99033
1.983
1.97821
1.97536
1.97382
1.97274
1.97034
1.9653
1.95836
1.95128
1.94516
1.94121
1.93838
1.93569
1.93277
1.92926
1.92552
1.922
1.9187
1.91582
1.91259
1.90819
1.90311
1.89766
1.89129
1.88408
1.87907
1.8766
1.87552
1.87511
1.87278
1.86928
1.86381
1.85626
1.84737
1.83844
1.8322
1.82902
1.82768
1.82548
2.2125
2.15585
2.09827
2.03511
1.97842
1.92676
1.87211
1.81407
1.77052
1.7269
1.6842
1.64229