/*--------------------------------*- C++ -*----------------------------------*\
  =========                 |
  \\      /  F ield         | OpenFOAM: The Open Source CFD Toolbox
   \\    /   O peration     | Website:  https://openfoam.org
    \\  /    A nd           | Version:  7
     \\/     M anipulation  |
\*---------------------------------------------------------------------------*/
FoamFile
{
    version     2.0;
    format      ascii;
    class       volScalarField;
    location    "3.5";
    object      p;
}
// * * * * * * * * * * * * * * * * * * * * * * * * * * * * * * * * * * * * * //

dimensions      [1 -1 -2 0 0 0 0];

internalField   nonuniform List<scalar> 
16128
(
1
1
1
1
1
1
1
1
1
1
1
1
1
1
1
1
1
1
1
1
1
1
1
1
4.45501
10.198
10.505
10.6012
10.7198
10.8289
10.933
11.0322
11.1281
11.2203
11.3087
11.3933
11.4728
11.5466
11.6158
11.6808
11.7421
11.7992
11.8512
11.8978
11.938
11.9692
11.9919
12.0076
1
1
1
1
1
1
1
1
1
1
1
1
1
1
1
1
1
1
1
1
1
1
1
1
4.37531
10.1483
10.5021
10.5995
10.7175
10.8261
10.9295
11.0281
11.1232
11.2149
11.3026
11.3866
11.4653
11.5386
11.607
11.6713
11.7317
11.7877
11.8386
11.8843
11.9239
11.9547
11.9773
11.9932
1
1
1
1
1
1
1
1
1
1
1
1
1
1
1
1
1
1
1
1
1
1
1
1
4.20232
10.0868
10.4927
10.5894
10.7072
10.8157
10.9194
11.0179
11.1126
11.2039
11.2911
11.3745
11.4526
11.5255
11.5936
11.6572
11.7167
11.7713
11.8206
11.8645
11.9023
11.9318
11.9535
11.9689
1
1
1
1
1
1
1
1
1
1
1
1
1
1
1
1
1
1
1
1
1
1
1
1
3.94997
9.99264
10.4822
10.5773
10.694
10.8017
10.9047
11.0023
11.096
11.1863
11.2723
11.3546
11.4317
11.5038
11.5712
11.6338
11.6919
11.7451
11.7927
11.835
11.8714
11.8998
11.9205
11.9355
1
1
1
1
1
1
1
1
1
1
1
1
1
1
1
1
1
1
1
1
1
1
1
1
3.62772
9.8539
10.4711
10.5628
10.6778
10.784
10.8859
10.9826
11.0749
11.1641
11.2488
11.3297
11.4056
11.4768
11.5432
11.6045
11.6609
11.712
11.7574
11.7972
11.8312
11.8578
11.8768
11.8912
1
1
1
1
1
1
1
1
1
1
1
1
1
1
1
1
1
1
1
1
1
1
1
1
3.24744
9.65313
10.4592
10.544
10.657
10.761
10.8611
10.9563
11.047
11.1346
11.2176
11.2968
11.3709
11.4409
11.5061
11.5661
11.621
11.6702
11.7135
11.7509
11.7822
11.8066
11.8232
11.8366
1
1
1
1
1
1
1
1
1
1
1
1
1
1
1
1
1
1
1
1
1
1
1
1
2.82332
9.37182
10.4467
10.5204
10.6311
10.7317
10.8295
10.9229
11.0116
11.0972
11.1782
11.2552
11.3273
11.3951
11.4583
11.5163
11.5689
11.616
11.6572
11.6925
11.7218
11.7449
11.7597
11.7726
1
1
1
1
1
1
1
1
1
1
1
1
1
1
1
1
1
1
1
1
1
1
1
1
2.37886
8.99869
10.4445
10.4987
10.6092
10.7045
10.7989
10.8894
10.9753
11.0576
11.1351
11.2082
11.2765
11.3407
11.4007
11.456
11.5062
11.5513
11.5905
11.6233
11.6495
11.6696
11.6813
11.6922
1
1
1
1
1
1
1
1
1
1
1
1
1
1
1
1
1
1
1
1
1
1
1
1
1.92363
8.50276
10.4494
10.4766
10.583
10.6702
10.7615
10.8499
10.9338
11.0134
11.0877
11.1565
11.2205
11.28
11.3352
11.3859
11.4315
11.4721
11.5072
11.5366
11.5598
11.578
11.5881
11.5987
1
1
1
1
1
1
1
1
1
1
1
1
1
1
1
1
1
1
1
1
1
1
1
1
1.50088
7.91316
10.4446
10.4331
10.5402
10.6236
10.7147
10.8009
10.8829
10.9603
11.0322
11.0971
11.157
11.2116
11.2614
11.3064
11.3463
11.3816
11.412
11.4366
11.4545
11.4666
11.4714
11.4778
1
1
1
1
1
1
1
1
1
1
1
1
1
1
1
1
1
1
1
1
1
1
1
1
1.13592
7.18552
10.404
10.4003
10.4915
10.5661
10.6518
10.7376
10.8197
10.8951
10.9648
11.0265
11.0825
11.1324
11.1766
11.2149
11.2473
11.2739
11.2946
11.3098
11.3204
11.3276
11.33
11.3376
1
1
1
1
1
1
1
1
1
1
1
1
1
1
1
1
1
1
1
1
1
1
1
1
1.00448
6.30686
10.2034
10.2864
10.3977
10.4902
10.5807
10.6611
10.7396
10.8151
10.8849
10.9448
10.9967
11.0417
11.0797
11.1105
11.1336
11.15
11.1612
11.1678
11.1692
11.1625
11.15
11.1418
1
1
1
1
1
1
1
1
1
1
1
1
1
1
1
1
1
1
1
1
1
1
1
1
1.00001
5.32387
10.004
10.2008
10.3187
10.4214
10.5106
10.5924
10.6658
10.7318
10.7922
10.8479
10.8952
10.9348
10.9661
10.9892
11.0023
11.0064
11.0018
10.9872
10.9631
10.9372
10.9102
10.9095
1
1
1
1
1
1
1
1
1
1
1
1
1
1
1
1
1
1
1
1
1
1
1
1
1
4.26606
9.65921
10.1347
10.2574
10.364
10.4465
10.514
10.5737
10.6294
10.6841
10.7343
10.776
10.8097
10.8348
10.8496
10.8494
10.8379
10.8131
10.7781
10.7342
10.6875
10.6177
10.5399
1
1
1
1
1
1
1
1
1
1
1
1
1
1
1
1
1
1
1
1
1
1
1
1
1
3.21232
9.17323
10.0759
10.2039
10.3143
10.3905
10.4488
10.4977
10.5401
10.5783
10.6163
10.6507
10.6743
10.6892
10.6917
10.6763
10.647
10.5979
10.5301
10.4295
10.2889
10.1426
10.0345
1
1
1
1
1
1
1
1
1
1
1
1
1
1
1
1
1
1
1
1
1
1
1
1
1
2.12429
8.38656
10.1682
10.1963
10.2647
10.3198
10.3686
10.4128
10.4497
10.4782
10.5015
10.5211
10.5321
10.5336
10.5182
10.4851
10.4315
10.3471
10.2289
10.0662
9.8629
9.6476
9.55317
1
1
1
1
1
1
1
1
1
1
1
1
1
1
1
1
1
1
1
1
1
1
1
1
1
1.22211
7.47709
10.2707
10.1397
10.1702
10.2313
10.2815
10.3226
10.353
10.3734
10.3843
10.3905
10.389
10.3707
10.3367
10.2803
10.1973
10.0759
9.91081
9.66889
9.28391
8.42722
6.4985
1
1
1
1
1
1
1
1
1
1
1
1
1
1
1
1
1
1
1
1
1
1
1
1
1
1.00575
6.21495
9.93641
9.96058
10.0515
10.1204
10.1773
10.2195
10.2466
10.2615
10.2641
10.2569
10.238
10.2027
10.1489
10.0668
9.95214
9.78957
9.55922
9.21609
8.62212
7.69226
5.50978
1
1
1
1
1
1
1
1
1
1
1
1
1
1
1
1
1
1
1
1
1
1
1
1
1
0.999965
4.66948
9.52747
9.88935
9.98661
10.0324
10.076
10.1142
10.1358
10.1445
10.1397
10.1195
10.0845
10.0317
9.95748
9.85106
9.70413
9.50114
9.21009
8.7905
8.13227
7.07522
5.16608
1
1
1
1
1
1
1
1
1
1
1
1
1
1
1
1
1
1
1
1
1
1
1
1
1
0.999991
3.14904
8.92203
9.85322
9.91883
9.96696
9.99298
10.0153
10.0257
10.0249
10.0113
9.97995
9.93053
9.85932
9.76428
9.63514
9.45963
9.22102
8.88762
8.40881
7.74032
6.64514
5.11544
1
1
1
1
1
1
1
1
1
1
1
1
1
1
1
1
1
1
1
1
1
1
1
1
1
0.999999
1.80216
8.07754
9.89929
9.84914
9.8843
9.91017
9.92323
9.92286
9.90907
9.88319
9.84019
9.77702
9.68913
9.57471
9.42396
9.22521
8.9587
8.6021
8.10381
7.42704
6.4065
5.22353
1
1
1
1
1
1
1
1
1
1
1
1
1
1
1
1
1
1
1
1
1
1
1
1
1
1
1.0747
6.6465
9.82957
9.76577
9.77427
9.8103
9.82016
9.81325
9.79076
9.75405
9.70001
9.62469
9.52296
9.39174
9.22233
9.00487
8.72
8.34945
7.85921
7.19826
6.30512
5.33365
1
1
1
1
1
1
1
1
1
1
1
1
1
1
1
1
1
1
1
1
1
1
1
1
1
1
1.00032
4.82193
9.28385
9.61807
9.69143
9.71843
9.71667
9.70187
9.67205
9.62613
9.56173
9.47493
9.36164
9.21707
9.03337
8.80248
8.50849
8.13322
7.65715
7.03985
6.27193
5.4484
1
1
1
1
1
1
1
1
1
1
1
1
1
1
1
1
1
1
1
1
1
1
1
1
1
1
0.999996
2.86626
8.63996
9.6173
9.61411
9.63458
9.62974
9.60367
9.56243
9.50528
9.42997
9.33199
9.20794
9.05247
8.85825
8.61847
8.32184
7.95171
7.49073
6.93038
6.26599
5.54849
1
1
1
1
1
1
1
1
1
1
1
1
1
1
1
1
1
1
1
1
1
1
1
1
1
1
0.999999
1.34552
7.55987
9.71865
9.57208
9.52636
9.5183
9.48879
9.44323
9.37998
9.29759
9.19242
9.06063
8.89777
8.69735
8.45318
8.15866
7.79886
7.35648
6.84951
6.26379
5.64136
1
1
1
1
1
1
1
1
1
1
1
1
1
1
1
1
1
1
1
1
1
1
1
1
1
1
1
1.01198
5.78435
9.23922
9.36513
9.41998
9.41237
9.37465
9.32522
9.25749
9.16979
9.0587
8.92119
8.75325
8.54975
8.3051
8.01608
7.66605
7.24863
6.78803
6.26448
5.72162
1
1
1
1
1
1
1
1
1
1
1
1
1
1
1
1
1
1
1
1
1
1
1
1
1
1
1
0.999911
3.46219
8.68122
9.32501
9.33572
9.32745
9.28852
9.23014
9.15149
9.05401
8.93517
8.79138
8.62011
8.41662
8.17584
7.8918
7.55067
7.16476
6.74309
6.26637
5.79114
1
1
1
1
1
1
1
1
1
1
1
1
1
1
1
1
1
1
1
1
1
1
1
1
1
1
1
0.999977
1.55144
7.75633
9.46256
9.29105
9.22304
9.17985
9.11734
9.03579
8.93537
8.81314
8.66731
8.49459
8.29163
8.05866
7.77765
7.45179
7.09642
6.70595
6.26743
5.84215
1
1
1
1
1
1
1
1
1
1
1
1
1
1
1
1
1
1
1
1
1
1
1
1
1
1
1
0.999996
1.02895
5.92068
9.02322
9.08694
9.11024
9.07513
9.00949
8.92649
8.82407
8.70035
8.55352
8.38252
8.18382
7.95228
7.67896
7.37241
7.04323
6.67955
6.28007
5.88651
1
1
1
1
1
1
1
1
1
1
1
1
1
1
1
1
1
1
1
1
1
1
1
1
1
1
1
1
0.999914
3.31541
8.40757
9.05155
9.03819
8.99493
8.92887
8.83882
8.72878
8.59974
8.44993
8.27832
8.08282
7.85418
7.59277
7.30481
6.99587
6.65533
6.29348
5.92202
1
1
1
1
1
1
1
1
1
1
1
1
1
1
1
1
1
1
1
1
1
1
1
1
1
1
1
1
0.999976
1.37176
7.29073
9.19066
9.00586
8.90397
8.82805
8.73492
8.62634
8.50074
8.35367
8.18405
7.98939
7.77047
7.52224
7.25092
6.95766
6.63927
6.30594
5.95531
1
1
1
1
1
1
1
1
1
1
1
1
1
1
1
1
1
1
1
1
1
1
1
1
1
1
1
1
0.999996
1.01238
5.18357
8.68559
8.78621
8.78482
8.72381
8.63361
8.52986
8.40866
8.26534
8.09899
7.90848
7.69536
7.45822
7.20159
6.92264
6.62465
6.31111
5.98311
1
1
1
1
1
1
1
1
1
1
1
1
1
1
1
1
1
1
1
1
1
1
1
1
1
1
1
1
1
0.999931
2.47882
7.99305
8.78345
8.73237
8.65513
8.56457
8.46076
8.33894
8.19453
8.02788
7.84023
7.63094
7.40206
7.15736
6.89295
6.61225
6.31629
6.01154
1
1
1
1
1
1
1
1
1
1
1
1
1
1
1
1
1
1
1
1
1
1
1
1
1
1
1
1
1
0.999982
1.16534
6.25776
8.7327
8.65126
8.5724
8.4837
8.38346
8.26336
8.11974
7.95573
7.77307
7.57132
7.35225
7.11783
6.86521
6.59814
6.31987
6.03508
1
1
1
1
1
1
1
1
1
1
1
1
1
1
1
1
1
1
1
1
1
1
1
1
1
1
1
1
1
0.999997
1.00192
3.47566
8.07904
8.52052
8.47828
8.41557
8.32226
8.20125
8.05637
7.89445
7.71644
7.52145
7.31032
7.08298
6.84006
6.58679
6.32542
6.05638
1
1
1
1
1
1
1
1
1
1
1
1
1
1
1
1
1
1
1
1
1
1
1
1
1
1
1
1
1
1
0.999994
1.39968
6.76192
8.61757
8.47173
8.38212
8.27337
8.14235
7.99507
7.83497
7.66116
7.47263
7.26929
7.05055
6.81827
6.57774
6.33029
6.07465
1
1
1
1
1
1
1
1
1
1
1
1
1
1
1
1
1
1
1
1
1
1
1
1
1
1
1
1
1
1
0.999998
1.01295
4.20858
8.11689
8.32058
8.28404
8.19221
8.07039
7.93089
7.77667
7.60871
7.42705
7.23138
7.02164
6.80019
6.571
6.33464
6.09158
1
1
1
1
1
1
1
1
1
1
1
1
1
1
1
1
1
1
1
1
1
1
1
1
1
1
1
1
1
1
1
1
1.6393
6.98718
8.44461
8.2843
8.15901
8.02975
7.88846
7.7348
7.56829
7.38879
7.1972
6.99449
6.78294
6.56442
6.33828
6.10711
1
1
1
1
1
1
1
1
1
1
1
1
1
1
1
1
1
1
1
1
1
1
1
1
1
1
1
1
1
1
1
1
1.03243
4.60826
8.04906
8.14628
8.06819
7.9601
7.83159
7.68518
7.52269
7.34747
7.16239
6.96779
6.76562
6.55793
6.34189
6.12
1
1
1
1
1
1
1
1
1
1
1
1
1
1
1
1
1
1
1
1
1
1
1
1
1
1
1
1
1
1
1
1
1.00008
1.80796
6.99273
8.23343
8.06391
7.93256
7.79934
7.65183
7.49178
7.32133
7.14245
6.95399
6.75694
6.5558
6.34707
6.13212
1
1
1
1
1
1
1
1
1
1
1
1
1
1
1
1
1
1
1
1
1
1
1
1
1
1
1
1
1
1
1
1
1
1.04981
4.69103
7.89864
7.95322
7.86563
7.74766
7.60834
7.45446
7.28877
7.11449
6.93139
6.73982
6.54629
6.347
6.14185
1
1
1
1
1
1
1
1
1
1
1
1
1
1
1
1
1
1
1
1
1
1
1
1
1
1
1
1
1
1
1
1
1
1.00024
1.86007
6.78687
7.99423
7.85025
7.72227
7.58023
7.42602
7.26311
7.09373
6.91762
6.73363
6.54788
6.35737
6.15963
1
1
1
1
1
1
1
1
1
1
1
1
1
1
1
1
1
1
1
1
1
1
1
1
1
1
1
1
1
1
1
1
1
1
1.05519
4.41233
7.6893
7.78271
7.67202
7.53829
7.38979
7.23447
7.0721
6.90375
6.72748
6.54801
6.36554
6.17386
1
1
1
1
1
1
1
1
1
1
1
1
1
1
1
1
1
1
1
1
1
1
1
1
1
1
1
1
1
1
1
1
1
1
1.00036
1.75115
6.427
7.7937
7.65458
7.51956
7.36881
7.21534
7.05748
6.89622
6.72809
6.55467
6.37904
6.19449
1
1
1
1
1
1
1
1
1
1
1
1
1
1
1
1
1
1
1
1
1
1
1
1
1
1
1
1
1
1
1
1
1
1
1
1.04235
3.80199
7.40155
7.60739
7.47491
7.33377
7.19101
7.04422
6.89191
6.73163
6.56255
6.38968
6.21215
1
1
1
1
1
1
1
1
1
1
1
1
1
1
1
1
1
1
1
1
1
1
1
1
1
1
1
1
1
1
1
1
1
1
1
1.00031
1.51991
5.89973
7.63414
7.46758
7.33556
7.19749
7.05131
6.89682
6.73656
6.56932
6.39842
6.2268
1
1
1
1
1
1
1
1
1
1
1
1
1
1
1
1
1
1
1
1
1
1
1
1
1
1
1
1
1
1
1
1
1
1
1
1
1.02124
2.96855
6.92629
7.4346
7.31204
7.18335
7.03706
6.88409
6.72796
6.56876
6.40433
6.23666
1
1
1
1
1
1
1
1
1
1
1
1
1
1
1
1
1
1
1
1
1
1
1
1
1
1
1
1
1
1
1
1
1
1
1
1
1.00015
1.26688
5.08904
7.45018
7.33021
7.19296
7.03822
6.88774
6.73458
6.5796
6.41946
6.25362
1
1
1
1
1
1
1
1
1
1
1
1
1
1
1
1
1
1
1
1
1
1
1
1
1
1
1
1
1
1
1
1
1
1
1
1
1
1.00633
2.22196
6.40954
7.29873
7.14573
7.01513
6.87378
6.72587
6.57406
6.42098
6.26487
1
1
1
1
1
1
1
1
1
1
1
1
1
1
1
1
1
1
1
1
1
1
1
1
1
1
1
1
1
1
1
1
1
1
1
1
1
1.00003
1.10594
3.93658
7.02565
7.16117
7.03241
6.89342
6.74733
6.5965
6.44437
6.29197
1
1
1
1
1
1
1
1
1
1
1
1
1
1
1
1
1
1
1
1
1
1
1
1
1
1
1
1
1
1
1
1
1
1
1
1
1
1
1.00151
1.58882
5.51715
7.18233
7.03569
6.89246
6.74792
6.60229
6.45497
6.30606
1
1
1
1
1
1
1
1
1
1
1
1
1
1
1
1
1
1
1
1
1
1
1
1
1
1
1
1
1
1
1
1
1
1
1
1
1
1
1.00001
1.02742
2.67617
6.44399
7.02012
6.88598
6.7507
6.61264
6.46984
6.32405
1
1
1
1
1
1
1
1
1
1
1
1
1
1
1
1
1
1
1
1
1
1
1
1
1
1
1
1
1
1
1
1
1
1
1
1
1
1
1
1.00025
1.1944
4.24785
6.83557
6.91381
6.78323
6.64215
6.49721
6.35041
1
1
1
1
1
1
1
1
1
1
1
1
1
1
1
1
1
1
1
1
1
1
1
1
1
1
1
1
1
1
1
1
1
1
1
1
1
1
1
1
1.00416
1.7459
5.47777
6.88704
6.7883
6.64606
6.50677
6.36508
1
1
1
1
1
1
1
1
1
1
1
1
1
1
1
1
1
1
1
1
1
1
1
1
1
1
1
1
1
1
1
1
1
1
1
1
1
1
1
1
1.00002
1.04281
2.73791
6.22745
6.78016
6.66107
6.52
6.38286
1
1
1
1
1
1
1
1
1
1
1
1
1
1
1
1
1
1
1
1
1
1
1
1
1
1
1
1
1
1
1
1
1
1
1
1
1
1
1
1
1
1.0005
1.21145
4.0434
6.52962
6.68702
6.5581
6.41303
1
1
1
1
1
1
1
1
1
1
1
1
1
1
1
1
1
1
1
1
1
1
1
1
1
1
1
1
1
1
1
1
1
1
1
1
1
1
1
1
1
1
1.0051
1.66487
5.1006
6.62312
6.57991
6.43819
1
1
1
1
1
1
1
1
1
1
1
1
1
1
1
1
1
1
1
1
1
1
1
1
1
1
1
1
1
1
1
1
1
1
1
1
1
1
1
1
1
1
1.00003
1.03551
2.436
5.80439
6.55468
6.46042
1
1
1
1
1
1
1
1
1
1
1
1
1
1
1
1
1
1
1
1
1
1
1
1
1
1
1
1
1
1
1
1
1
1
1
1
1
1
1
1
1
1
1
1.00041
1.14935
3.43341
6.1858
6.49146
1
1
1
1
1
1
1
1
1
1
1
1
1
1
1
1
1
1
1
1
1
1
1
1
1
1
1
1
1
1
1
1
1
1
1
1
1
1
1
1
1
1
1
1
1.00311
1.42743
4.43028
6.3109
1
1
1
1
1
1
1
1
1
1
1
1
1
1
1
1
1
1
1
1
1
1
1
1
1
1
1
1
1
1
1
1
1
1
1
1
1
1
1
1
1
1
1
1
1.00002
1.0171
1.93154
5.14395
1
1
1
1
1
1
1
1
1
1
1
1
1
1
1
1
1
1
1
1
1
1
1
1
1
1
1
1
1
1
1
1
1
1
1
1
1
1
1
1
1
1
1
1
1
1.00016
1.06752
2.61655
1
1
1
1
1
1
1
1
1
1
1
1
1
1
1
1
1
1
1
1
1
1
1
1
1
1
1
1
1
1
1
1
1
1
1
1
1
1
1
1
1
1
1
1
1
1
1.00106
1.19377
1
1
1
1
1
1
1
1
1
1
1
1
1
1
1
1
1
1
1
1
1
1
1
1
1
1
1
1
1
1
1
1
1
1
1
1
1
1
1
1
1
1
1
1
1
1
1
1.00488
1
1
1
1
1
1
1
1
1
1
1
1
1
1
1
1
1
1
1
1
1
1
1
1
1
1
1
1
1
1
1
1
1
1
1
1
1
1
1
1
1
1
1
1
1
1
1
1.00003
1
1
1
1
1
1
1
1
1
1
1
1
1
1
1
1
1
1
1
1
1
1
1
1
1
1
1
1
1
1
1
1
1
1
1
1
1
1
1
1
1
1
1
1
1
1
1
1
1
1
1
1
1
1
1
1
1
1
1
1
1
1
1
1
1
1
1
1
1
1
1
1
1
1
1
1
1
1
1
1
1
1
1
1
1
1
1
1
1
1
1
1
1
1
1
1
1
1
1
1
1
1
1
1
1
1
1
1
1
1
1
1
1
1
1
1
1
1
1
1
1
1
1
1
1
1
1
1
1
1
1
1
1
1
1
1
1
1
1
1
1
1
1
1
1
1
1
1
1
1
1
1
1
1
1
1
1
1
1
1
1
1
1
1
1
1
1
1
1
1
1
1
1
1
1
1
1
1
1
1
1
1
1
1
1
1
1
1
1
1
1
1
1
1
1
1
1
1
1
1
1
1
1
1
1
1
1
1
1
1
1
1
1
1
1
1
1
1
1
1
1
1
1
1
1
1
1
1
1
1
1
1
1
1
1
1
1
1
1
1
1
1
1
1
1
1
1
1
1
1
1
1
1
1
1
1
1
1
1
1
1
1
1
1
1
1
1
1
1
1
1
1
1
1
1
1
1
1
1
1
1
1
1
1
1
1
1
1
1
1
1
1
1
1
1
1
1
1
1
1
1
1
1
1
1
1
1
1
1
1
1
1
1
1
1
1
1
1
1
1
1
1
1
1
1
1
1
1
1
1
1
1
1
1
1
1
1
1
1
1
1
1
1
1
1
1
1
1
1
1
1
1
1
1
1
1
1
1
1
1
1
1
1
1
1
1
1
1
1
1
1
1
1
1
1
1
1
1
1
1
1
1
1
1
1
1
1
1
1
1
1
1
1
1
1
1
1
1
1
1
1
1
1
1
1
1
1
1
1
1
1
1
1
1
1
1
1
1
1
1
1
1
1
1
1
1
1
1
1
1
1
1
1
1
1
1
1
1
1
1
1
1
1
1
1
1
1
1
1
1
1
1
1
1
1
1
1
1
1
1
1
1
1
1
1
1
1
1
1
1
1
1
1
1
1
1
1
1
1
1
1
1
1
1
1
1
1
1
1
1
1
1
1
1
1
1
1
1
1
1
1
1
1
1
1
1
1
1
1
1
1
1
1
1
1
1
1
1
1
1
1
1
1
1
1
1
1
1
1
1
1
1
1
1
1
1
1
1
1
1
1
1
1
1
1
1
1
1
1
1
1
1
1
1
1
1
1
1
1
1
1
1
1
1
1
1
1
1
1
1
1
1
1
1
1
1
1
1
1
1
1
1
1
1
1
1
1
1
1
1
1
1
1
1
1
1
1
1
1
1
1
1
1
1
1
1
1
1
1
1
1
1
1
1
1
1
1
1
1
1
1
1
1
1
1
1
1
1
1
1
1
1
1
1
1
1
1
1
1
1
1
1
1
1
1
1
1
1
1
1
1
1
1
1
1
1
1
1
1
1
1
1
1
1
1
1
1
1
1
1
1
1
1
1
1
1
1
1
1
1
1
1
1
1
1
1
1
1
1
1
1
1
1
1
1
1
1
1
1
1
1
1
1
1
1
1
1
1
1
1
1
1
1
1
1
1
1
1
1
1
1.27724
0.22995
0.0241345
0.0324279
0.0908021
0.112609
0.118415
0.158418
0.237815
0.302803
0.36036
0.41769
0.491033
0.548584
0.613814
0.714537
0.815921
0.902434
0.980491
0.992291
0.988376
0.982595
0.978596
0.992009
1.01867
1.04232
1.04982
1.07538
1.10797
1.13448
1.163
1.18873
1.21072
1.22301
1.21935
1.21847
1.21521
1.21681
1.22443
1.24386
1.2776
1.29322
1.297
1.29744
1.29358
1.2928
1.29552
1.30587
1.32426
1.33717
1.33888
1.33666
1.33463
1.33504
1.33619
1.33484
1.33314
1.33225
1.33357
1.34207
1.34912
2.88967
5.75948
6.09923
6.17071
6.21974
6.24454
6.24767
6.22663
6.1872
6.14428
6.10919
6.09159
6.09206
6.09597
6.08466
6.04979
5.99919
5.94786
5.90501
5.87265
5.84539
5.81306
5.7624
5.69335
5.62597
5.57477
5.54087
5.51315
5.4761
5.42701
5.37427
5.32777
5.29362
5.27209
5.25616
5.23926
5.22031
5.20296
5.18549
5.15101
5.08683
5.00381
4.8964
4.79685
4.73269
4.69021
4.68632
4.71505
4.73923
4.72681
4.67855
4.62211
4.55832
4.48976
4.42391
4.36619
4.31431
4.27016
4.23802
4.21659
4.19563
4.16949
4.14352
4.12154
4.10072
4.06848
4.0245
3.95467
3.87701
3.82669
3.79168
3.77055
3.76526
3.75893
3.74643
3.72601
3.69591
3.65619
3.59337
3.51998
3.47293
3.44418
3.42114
3.40695
3.40491
3.40774
3.39972
3.38002
3.35572
3.32623
3.28317
3.2236
3.17426
3.14545
3.12321
3.10291
3.08716
3.07669
3.0652
3.04724
3.02545
2.99671
2.95128
2.90543
2.87902
2.86086
2.84607
2.83862
2.83775
2.83427
2.824
2.80819
2.78617
2.74813
2.67963
2.60665
2.56594
2.54475
2.52941
2.51578
2.50379
2.49601
2.49508
2.49503
2.48511
2.46949
2.44661
2.40656
2.35703
2.32625
2.30343
2.19256
1.00744
0.357517
0.254747
0.293693
0.287705
0.237804
0.220273
0.224536
0.239599
0.270829
0.295374
0.326832
0.379207
0.449375
0.523051
0.593544
0.666521
0.758406
0.82244
0.860932
0.893134
0.92097
0.953858
0.994577
1.04472
1.0701
1.08412
1.0979
1.11333
1.13221
1.15248
1.17433
1.19237
1.20552
1.21468
1.22116
1.2252
1.22865
1.23722
1.2577
1.27806
1.28961
1.29754
1.30062
1.30119
1.30107
1.30521
1.31709
1.32664
1.32747
1.32639
1.3265
1.32705
1.32977
1.33483
1.34011
1.34152
1.34182
1.34456
1.34359
2.76934
5.73483
6.19401
6.22994
6.23846
6.24427
6.24656
6.23476
6.2011
6.15118
6.09548
6.05001
6.02726
6.02867
6.03711
6.02467
5.97833
5.91628
5.85888
5.81643
5.79333
5.78462
5.77943
5.75113
5.68635
5.60955
5.54054
5.48489
5.44353
5.40563
5.36321
5.31715
5.27331
5.23577
5.20399
5.17469
5.14715
5.12476
5.10858
5.08542
5.04645
4.99695
4.94241
4.8798
4.81143
4.75397
4.71631
4.69686
4.68402
4.6609
4.63081
4.58917
4.53787
4.4838
4.43462
4.38995
4.34933
4.31474
4.2862
4.25482
4.21352
4.16846
4.12582
4.08754
4.05129
4.01805
3.98496
3.95412
3.92033
3.88076
3.83941
3.80546
3.77638
3.74637
3.71578
3.68629
3.65743
3.62363
3.58582
3.55323
3.51364
3.47209
3.44054
3.41936
3.40883
3.40331
3.38759
3.36423
3.33841
3.30849
3.27005
3.22602
3.19003
3.16196
3.13695
3.11482
3.09694
3.08181
3.06197
3.0397
3.0159
2.9893
2.95467
2.91762
2.88706
2.86509
2.8492
2.8388
2.8323
2.82143
2.80693
2.79043
2.76999
2.73815
2.691
2.63684
2.58738
2.55309
2.5321
2.51769
2.50611
2.498
2.49186
2.48202
2.47035
2.4571
2.43905
2.41196
2.37781
2.34523
2.31015
2.80898
1.80775
1.19252
0.769936
0.598436
0.532526
0.411969
0.327122
0.334556
0.331774
0.314406
0.322707
0.345271
0.375728
0.415868
0.445902
0.466591
0.494296
0.555437
0.650702
0.731989
0.793091
0.857412
0.915992
0.969933
1.03519
1.08223
1.0903
1.10046
1.11973
1.14051
1.16287
1.18353
1.18992
1.19169
1.19711
1.20943
1.22772
1.23969
1.24908
1.25932
1.2683
1.27735
1.29094
1.30421
1.30669
1.3049
1.30597
1.31467
1.32826
1.33465
1.3372
1.33748
1.33268
1.32858
1.32946
1.33434
1.34425
1.35014
1.35038
1.35167
2.39805
5.67432
6.37201
6.26992
6.2499
6.24926
6.24164
6.23338
6.22457
6.20677
6.17403
6.12652
6.07897
6.04867
6.04064
6.03733
6.01443
5.96058
5.89022
5.81843
5.75721
5.72056
5.71916
5.73611
5.73783
5.69382
5.62529
5.55268
5.49085
5.44356
5.40815
5.37532
5.33784
5.29591
5.25138
5.20526
5.15679
5.10244
5.04268
4.9888
4.94541
4.91822
4.90608
4.89509
4.87487
4.84434
4.79888
4.73988
4.68172
4.63347
4.59766
4.55493
4.50879
4.46195
4.41701
4.37837
4.3465
4.32585
4.31699
4.30474
4.27222
4.22563
4.16182
4.07964
4.00024
3.94651
3.914
3.90068
3.90705
3.90939
3.89496
3.86613
3.82437
3.76575
3.69787
3.64034
3.59805
3.56863
3.55298
3.5472
3.53086
3.50688
3.47973
3.45248
3.4272
3.40136
3.37521
3.34704
3.31502
3.27814
3.23905
3.20789
3.18387
3.16265
3.14399
3.12951
3.1149
3.09363
3.0666
3.03358
2.99773
2.96497
2.94149
2.921
2.90114
2.8803
2.85959
2.8398
2.82146
2.80414
2.78672
2.76771
2.7441
2.71498
2.6857
2.65712
2.62532
2.58645
2.54901
2.52436
2.50943
2.49669
2.48323
2.46938
2.45348
2.43531
2.41705
2.40228
2.38683
2.37151
2.33351
3.44683
2.50191
1.84692
1.28299
1.01141
0.882697
0.719092
0.581189
0.554524
0.523113
0.46745
0.464139
0.459451
0.437005
0.425962
0.428229
0.427669
0.431876
0.443828
0.474565
0.540153
0.626257
0.721319
0.804606
0.858394
0.920858
0.986943
1.01202
1.03908
1.09207
1.13521
1.15475
1.17324
1.17956
1.17739
1.1807
1.19814
1.22909
1.25675
1.26587
1.26844
1.2647
1.26129
1.26529
1.27813
1.28868
1.29198
1.29554
1.30421
1.31859
1.32943
1.33323
1.33479
1.33264
1.32607
1.32463
1.32767
1.33456
1.34162
1.34994
1.38419
1.98482
5.57095
6.80205
6.43168
6.27511
6.28321
6.27323
6.24243
6.20018
6.15676
6.12656
6.10132
6.06832
6.03729
6.01221
5.98923
5.96649
5.93744
5.89357
5.83726
5.77468
5.72083
5.67952
5.65805
5.65774
5.64087
5.59698
5.54503
5.48199
5.42431
5.38396
5.35313
5.32345
5.28792
5.24652
5.20277
5.15707
5.10719
5.05286
5.00088
4.95839
4.92573
4.90368
4.89154
4.88415
4.8596
4.81118
4.74685
4.66499
4.5968
4.55188
4.51833
4.48854
4.45655
4.42115
4.38124
4.34621
4.3183
4.29572
4.27644
4.25247
4.21975
4.17562
4.1125
4.03473
3.96687
3.92343
3.89745
3.8923
3.89739
3.88958
3.86488
3.83111
3.7814
3.71488
3.64663
3.59547
3.56582
3.54903
3.54069
3.53156
3.51872
3.49966
3.47294
3.43572
3.39478
3.36146
3.33204
3.30123
3.27007
3.24488
3.22307
3.19881
3.17258
3.1499
3.13178
3.1137
3.09293
3.0668
3.03308
2.99509
2.96437
2.94296
2.92473
2.90772
2.88988
2.86929
2.84424
2.81618
2.78891
2.76356
2.73796
2.71056
2.68692
2.672
2.65906
2.64356
2.61996
2.58636
2.54997
2.51939
2.49628
2.47702
2.45722
2.43474
2.41361
2.39898
2.39011
2.38593
2.3799
2.35152
3.95529
3.06367
2.42929
1.87794
1.5014
1.24485
1.03036
0.880055
0.81886
0.751416
0.662634
0.624532
0.592895
0.551768
0.52576
0.511836
0.492762
0.490858
0.497214
0.510262
0.513663
0.522971
0.545248
0.590454
0.639755
0.700934
0.795878
0.888343
0.950623
1.02151
1.08457
1.10257
1.12102
1.14048
1.14333
1.14713
1.17248
1.21702
1.26061
1.27301
1.27433
1.26556
1.25306
1.25567
1.26528
1.2841
1.29924
1.30532
1.31122
1.3198
1.32471
1.32533
1.325
1.3249
1.32262
1.32036
1.32068
1.32417
1.33756
1.38941
1.63589
2.18767
4.40566
6.6857
6.71248
6.39311
6.26344
6.2569
6.24285
6.21363
6.1541
6.10586
6.07831
6.06433
6.04942
6.02736
5.99347
5.9556
5.92394
5.89271
5.85211
5.80428
5.75231
5.70532
5.66753
5.64515
5.62702
5.59218
5.5515
5.50405
5.44511
5.39715
5.36087
5.32783
5.29141
5.25156
5.20464
5.1504
5.0912
5.03423
4.99077
4.95942
4.9351
4.91723
4.90431
4.88855
4.85344
4.80389
4.73693
4.65548
4.5784
4.52021
4.48399
4.45899
4.44062
4.42191
4.40026
4.37604
4.34514
4.30495
4.25784
4.21206
4.17029
4.12895
4.08609
4.0438
4.00424
3.96905
3.94196
3.92159
3.89917
3.87088
3.83715
3.79624
3.74923
3.69933
3.65287
3.61416
3.584
3.56425
3.55133
3.54057
3.52636
3.50682
3.48017
3.43887
3.38587
3.33531
3.29631
3.26895
3.25
3.23819
3.22848
3.21362
3.1961
3.17283
3.14132
3.1062
3.073
3.04152
3.01213
2.98919
2.97146
2.95427
2.9364
2.91783
2.89794
2.87495
2.84659
2.81302
2.77697
2.74149
2.70999
2.68718
2.67447
2.66506
2.65657
2.64633
2.63301
2.61303
2.58195
2.5412
2.49977
2.46692
2.44125
2.41934
2.40392
2.39269
2.38556
2.38204
2.37633
2.35177
4.33159
3.55145
2.88613
2.37008
1.98503
1.65524
1.3801
1.19203
1.0747
0.974011
0.878564
0.825436
0.776196
0.712667
0.676962
0.650518
0.613723
0.596107
0.589128
0.574418
0.555548
0.547991
0.550906
0.55008
0.553377
0.565048
0.597454
0.664435
0.73816
0.815038
0.90842
0.97021
1.01925
1.08215
1.1099
1.12093
1.14496
1.18844
1.23493
1.25136
1.25395
1.24824
1.2355
1.23889
1.24971
1.27529
1.30051
1.30737
1.30989
1.30798
1.30877
1.31117
1.31443
1.31962
1.32127
1.31929
1.3184
1.32699
1.38863
1.65055
2.34263
2.75846
3.26482
5.15981
6.42602
6.56341
6.40143
6.29362
6.23286
6.21956
6.16543
6.09337
6.05105
6.02415
6.01946
6.00551
5.97198
5.92116
5.86851
5.82936
5.79814
5.77089
5.74001
5.70084
5.6568
5.61489
5.57673
5.53965
5.50366
5.46632
5.4186
5.36359
5.32067
5.28547
5.25587
5.22501
5.19029
5.15027
5.1032
5.05258
5.00479
4.9655
4.93698
4.9162
4.89508
4.86341
4.82184
4.77077
4.71233
4.65303
4.59538
4.53609
4.48082
4.44545
4.42229
4.40483
4.3913
4.37183
4.34322
4.30489
4.25212
4.19238
4.14066
4.10368
4.07859
4.0614
4.04513
4.02147
3.98517
3.93498
3.88113
3.83096
3.78536
3.74457
3.7107
3.68604
3.66585
3.64506
3.61894
3.58643
3.55642
3.53516
3.51462
3.49063
3.46167
3.42655
3.38541
3.34069
3.2995
3.26942
3.24936
3.23555
3.22773
3.21911
3.20538
3.18517
3.14835
3.10156
3.05895
3.02627
3.00402
2.98767
2.97301
2.95818
2.94229
2.92387
2.90028
2.87192
2.84101
2.8079
2.77121
2.73119
2.69634
2.67809
2.66809
2.65924
2.65154
2.64394
2.63416
2.62121
2.60006
2.56514
2.51598
2.46281
2.42566
2.40804
2.39699
2.38802
2.38258
2.37652
2.3677
2.34466
4.6262
3.92725
3.28572
2.7922
2.37972
2.02861
1.71429
1.52381
1.35619
1.20756
1.09946
1.02727
0.958213
0.885562
0.836767
0.795623
0.745765
0.71131
0.690671
0.674883
0.655429
0.630716
0.609386
0.597001
0.59328
0.593603
0.596508
0.60088
0.611971
0.629949
0.668997
0.728658
0.796423
0.882037
0.982903
1.06214
1.10892
1.14499
1.17836
1.21206
1.22909
1.22958
1.22202
1.22707
1.2418
1.27007
1.29736
1.30417
1.30589
1.30141
1.29484
1.29619
1.30203
1.31058
1.31446
1.31641
1.32332
1.39184
1.73555
2.31393
2.91956
3.06153
3.09521
3.54304
5.13402
6.27197
6.43564
6.36771
6.29371
6.24267
6.19219
6.13248
6.08824
6.05053
6.02907
6.01121
5.9794
5.93213
5.87592
5.83422
5.80042
5.77001
5.73799
5.70124
5.65668
5.60464
5.5604
5.52678
5.49676
5.46257
5.42315
5.37574
5.33287
5.30126
5.27346
5.24185
5.20659
5.17096
5.1344
5.09662
5.05495
5.00463
4.94745
4.89532
4.84752
4.79825
4.75052
4.70811
4.66991
4.63588
4.60219
4.56031
4.5034
4.44198
4.40446
4.3796
4.35758
4.33448
4.30638
4.27384
4.23536
4.19277
4.15684
4.13236
4.11509
4.09787
4.07363
4.03595
3.98154
3.91268
3.84498
3.78918
3.74773
3.72041
3.70355
3.7017
3.70504
3.69309
3.66871
3.62579
3.56534
3.51592
3.48199
3.4529
3.42535
3.39848
3.37111
3.34282
3.31542
3.29027
3.26852
3.25128
3.23659
3.22173
3.20121
3.16705
3.1238
3.08338
3.05097
3.02696
3.00895
2.99381
2.97979
2.96467
2.94723
2.92255
2.88782
2.8525
2.82246
2.79456
2.76608
2.73682
2.70831
2.68281
2.66481
2.6539
2.64497
2.6377
2.62888
2.61498
2.59342
2.56408
2.52635
2.48233
2.44162
2.4137
2.39798
2.38736
2.37816
2.36776
2.35715
2.33376
4.85245
4.20365
3.61407
3.15303
2.73912
2.35007
2.04433
1.82228
1.63502
1.46108
1.34621
1.24801
1.14209
1.05417
1.00282
0.952501
0.900924
0.864935
0.825222
0.783137
0.763302
0.738845
0.702632
0.669072
0.656803
0.645103
0.631922
0.63165
0.635218
0.635014
0.626385
0.625036
0.635979
0.66808
0.736642
0.83296
0.940702
1.02876
1.07256
1.10814
1.1519
1.19557
1.20483
1.21346
1.23098
1.25623
1.28507
1.297
1.29962
1.29788
1.2836
1.28129
1.28489
1.29182
1.30425
1.32461
1.40255
1.78522
2.4268
2.87453
3.07714
3.10986
3.08382
3.10459
3.56618
5.06456
6.1737
6.32959
6.30077
6.2376
6.18143
6.1452
6.10779
6.06655
6.04073
6.02822
6.00283
5.96536
5.91664
5.8574
5.80904
5.76881
5.7358
5.69983
5.66054
5.61591
5.57249
5.5377
5.50835
5.47995
5.44801
5.41126
5.3694
5.32271
5.27682
5.23552
5.19903
5.16534
5.13162
5.09503
5.05308
5.00108
4.93352
4.8549
4.78354
4.73062
4.69058
4.66038
4.63923
4.62582
4.60583
4.57663
4.53737
4.47586
4.4058
4.36215
4.33436
4.31036
4.29098
4.27404
4.25629
4.23575
4.20955
4.17385
4.12744
4.07519
4.02673
3.97677
3.92356
3.87312
3.82847
3.79216
3.76541
3.74955
3.74675
3.7454
3.73227
3.7101
3.67082
3.61324
3.54636
3.48764
3.44741
3.41977
3.39776
3.37933
3.36337
3.3505
3.33988
3.32735
3.30795
3.27924
3.24115
3.19918
3.16068
3.12528
3.09349
3.07034
3.05413
3.04
3.02592
3.01005
2.99166
2.97027
2.93959
2.8987
2.85982
2.83003
2.80645
2.78523
2.76536
2.74624
2.72576
2.70198
2.677
2.65701
2.64523
2.63341
2.61642
2.59494
2.57177
2.54802
2.52414
2.49975
2.47269
2.44166
2.41099
2.38777
2.37209
2.35673
2.3409
2.31803
5.04356
4.44134
3.90849
3.46389
3.04801
2.64389
2.36593
2.11811
1.90648
1.71504
1.58911
1.47112
1.34989
1.24399
1.1719
1.09917
1.03471
1.00105
0.96391
0.906434
0.859188
0.838871
0.811809
0.774291
0.754306
0.736184
0.707198
0.700319
0.701495
0.6897
0.664552
0.645427
0.641685
0.640847
0.646724
0.664831
0.703204
0.764249
0.843787
0.914852
0.981274
1.05685
1.1339
1.1786
1.19844
1.21831
1.24701
1.27665
1.28745
1.28898
1.28479
1.27344
1.27136
1.27567
1.30086
1.44548
1.79809
2.53547
2.89142
3.02829
3.08154
3.07435
3.06396
3.06989
3.12119
3.57413
5.02681
6.02465
6.22021
6.19642
6.15273
6.12335
6.10448
6.07198
6.04332
6.01906
5.99138
5.96369
5.9248
5.86877
5.80464
5.75145
5.70914
5.67817
5.65454
5.62514
5.58832
5.5448
5.50052
5.46525
5.43046
5.39456
5.35488
5.30966
5.26171
5.21365
5.16925
5.12951
5.09224
5.05444
5.01335
4.96805
4.91708
4.85013
4.77059
4.70415
4.66333
4.63527
4.62192
4.62767
4.62068
4.59705
4.56781
4.52493
4.45263
4.37508
4.3314
4.30563
4.28974
4.28851
4.2764
4.2484
4.21281
4.16152
4.09643
4.03136
3.9728
3.92421
3.88523
3.85957
3.8402
3.82958
3.82521
3.81723
3.79672
3.76529
3.72013
3.67018
3.62375
3.5758
3.52924
3.48225
3.43744
3.40606
3.38583
3.37076
3.36546
3.37231
3.37379
3.35939
3.33497
3.28945
3.22098
3.15646
3.11449
3.09025
3.07616
3.06607
3.06214
3.0583
3.04702
3.02906
3.00056
2.9562
2.905
2.86294
2.83343
2.81332
2.79715
2.7836
2.77189
2.76076
2.74696
2.72833
2.70007
2.66302
2.62801
2.60212
2.58417
2.56807
2.55081
2.5347
2.52164
2.50954
2.49452
2.47272
2.44039
2.4004
2.36582
2.3386
2.32083
2.30408
5.187
4.6349
4.16149
3.7384
3.30652
2.94357
2.66384
2.40768
2.15937
1.98196
1.83002
1.68435
1.54614
1.43777
1.35172
1.26595
1.17909
1.13191
1.09047
1.03632
0.982052
0.942824
0.910103
0.876789
0.85908
0.842146
0.809178
0.77363
0.763053
0.748641
0.722192
0.693035
0.68244
0.675662
0.664356
0.664399
0.667836
0.67791
0.693517
0.716258
0.755087
0.825263
0.916302
1.01919
1.10503
1.14631
1.17935
1.21751
1.26395
1.27639
1.28007
1.27934
1.2766
1.28702
1.43041
1.92142
2.46406
2.95971
3.06124
3.07621
3.06869
3.05516
3.0488
3.06061
3.1012
3.15877
3.59451
4.93551
5.8656
6.12695
6.08878
6.07259
6.07764
6.06646
6.03379
5.99446
5.96307
5.93617
5.90692
5.86958
5.8133
5.73923
5.68069
5.64611
5.62502
5.60587
5.5752
5.53641
5.48355
5.43028
5.39263
5.35804
5.3249
5.29306
5.25444
5.20316
5.14315
5.08613
5.03774
4.99933
4.96709
4.93563
4.89822
4.85189
4.79548
4.73648
4.68798
4.656
4.63472
4.6155
4.60621
4.60106
4.576
4.54016
4.4872
4.41743
4.35139
4.31013
4.28216
4.25574
4.2366
4.21383
4.18061
4.13212
4.06358
3.99271
3.93857
3.90277
3.88177
3.87543
3.88389
3.89095
3.88084
3.85558
3.81249
3.75133
3.68356
3.6167
3.56806
3.53871
3.51526
3.48641
3.45274
3.4208
3.39848
3.38555
3.38651
3.39393
3.38022
3.35784
3.32591
3.27535
3.20302
3.13681
3.09754
3.07957
3.069
3.07276
3.08588
3.07785
3.0607
3.03526
2.99011
2.93089
2.88052
2.84501
2.82347
2.8081
2.79562
2.78596
2.77937
2.77204
2.76161