/*--------------------------------*- C++ -*----------------------------------*\
  =========                 |
  \\      /  F ield         | OpenFOAM: The Open Source CFD Toolbox
   \\    /   O peration     | Website:  https://openfoam.org
    \\  /    A nd           | Version:  7
     \\/     M anipulation  |
\*---------------------------------------------------------------------------*/
FoamFile
{
    version     2.0;
    format      ascii;
    class       volScalarField;
    location    "3.5";
    object      T;
}
// * * * * * * * * * * * * * * * * * * * * * * * * * * * * * * * * * * * * * //

dimensions      [0 0 0 1 0 0 0];

internalField   nonuniform List<scalar> 
16128
(
1
1
1
1
1
1
1
1
1
1
1
1
1
1
1
1
1
1
1
1
1
1
1
1
1.99671
2.68612
2.69851
2.70347
2.7122
2.72274
2.73469
2.74661
2.75663
2.76322
2.76652
2.76818
2.77002
2.77367
2.77995
2.78755
2.79398
2.79795
2.80027
2.80254
2.80571
2.8094
2.81244
2.81409
1
1
1
1
1
1
1
1
1
1
1
1
1
1
1
1
1
1
1
1
1
1
1
1
1.98465
2.68248
2.69844
2.70347
2.71214
2.7226
2.73449
2.74635
2.7563
2.76282
2.76604
2.76764
2.76946
2.77311
2.77939
2.78693
2.79327
2.79714
2.79939
2.80161
2.80476
2.80843
2.81145
2.81311
1
1
1
1
1
1
1
1
1
1
1
1
1
1
1
1
1
1
1
1
1
1
1
1
1.95519
2.67678
2.69761
2.70264
2.71127
2.72171
2.73361
2.7455
2.75545
2.76196
2.76513
2.7667
2.7685
2.77219
2.77851
2.78602
2.79222
2.79594
2.79808
2.80024
2.80332
2.8069
2.80985
2.81147
1
1
1
1
1
1
1
1
1
1
1
1
1
1
1
1
1
1
1
1
1
1
1
1
1.90988
2.66715
2.69584
2.70087
2.70949
2.71989
2.73182
2.7438
2.75389
2.76052
2.76372
2.76525
2.76699
2.77064
2.77692
2.78436
2.79044
2.79403
2.7961
2.79822
2.80126
2.80478
2.80763
2.80922
1
1
1
1
1
1
1
1
1
1
1
1
1
1
1
1
1
1
1
1
1
1
1
1
1.84834
2.65259
2.69322
2.69808
2.70667
2.71704
2.72899
2.74114
2.75153
2.75852
2.76192
2.76349
2.76515
2.76866
2.77479
2.78211
2.78811
2.79162
2.79362
2.79566
2.79859
2.80198
2.8047
2.80623
1
1
1
1
1
1
1
1
1
1
1
1
1
1
1
1
1
1
1
1
1
1
1
1
1.76872
2.63117
2.69047
2.69458
2.70291
2.71307
2.72493
2.73722
2.74802
2.75558
2.75941
2.76113
2.76271
2.76598
2.77184
2.77902
2.785
2.78856
2.79056
2.79254
2.79533
2.79855
2.80108
2.80253
1
1
1
1
1
1
1
1
1
1
1
1
1
1
1
1
1
1
1
1
1
1
1
1
1.66985
2.60152
2.68867
2.69087
2.69827
2.70787
2.71945
2.73181
2.74307
2.75138
2.7559
2.75795
2.75952
2.7625
2.76794
2.77488
2.78088
2.78456
2.78664
2.7886
2.79127
2.79437
2.79677
2.79819
1
1
1
1
1
1
1
1
1
1
1
1
1
1
1
1
1
1
1
1
1
1
1
1
1.55193
2.56174
2.68821
2.68756
2.69363
2.70222
2.7132
2.72537
2.73698
2.74609
2.75146
2.75397
2.75559
2.75824
2.76316
2.76977
2.77581
2.77973
2.78197
2.78389
2.78636
2.78923
2.79142
2.79272
1
1
1
1
1
1
1
1
1
1
1
1
1
1
1
1
1
1
1
1
1
1
1
1
1.40625
2.50271
2.68527
2.6837
2.68939
2.69641
2.70619
2.71773
2.72946
2.73938
2.74587
2.74912
2.75097
2.75335
2.75766
2.76375
2.76967
2.77372
2.77604
2.77791
2.78021
2.78293
2.78502
2.78631
1
1
1
1
1
1
1
1
1
1
1
1
1
1
1
1
1
1
1
1
1
1
1
1
1.24032
2.42801
2.68001
2.67854
2.68539
2.69108
2.6992
2.7093
2.72051
2.73097
2.73872
2.74305
2.74541
2.74768
2.75142
2.7569
2.76257
2.76671
2.76913
2.77091
2.77294
2.77524
2.77692
2.77793
1
1
1
1
1
1
1
1
1
1
1
1
1
1
1
1
1
1
1
1
1
1
1
1
1.07003
2.34756
2.67844
2.6773
2.68265
2.68672
2.69281
2.70097
2.71092
2.72118
2.72986
2.73544
2.73858
2.74095
2.74422
2.74902
2.75429
2.75826
2.76048
2.76191
2.76356
2.76551
2.76703
2.76815
1
1
1
1
1
1
1
1
1
1
1
1
1
1
1
1
1
1
1
1
1
1
1
1
1.00202
2.25511
2.6737
2.67374
2.67851
2.68328
2.68854
2.69439
2.70202
2.71111
2.71995
2.7265
2.73048
2.73308
2.73595
2.74006
2.74477
2.74844
2.75049
2.75167
2.75279
2.75383
2.75433
2.75433
1
1
1
1
1
1
1
1
1
1
1
1
1
1
1
1
1
1
1
1
1
1
1
1
1
2.13036
2.66847
2.67429
2.67866
2.68294
2.68683
2.69116
2.69637
2.70281
2.71
2.71652
2.72098
2.72379
2.72633
2.72979
2.73381
2.73694
2.73829
2.73825
2.73781
2.7377
2.73713
2.73747
1
1
1
1
1
1
1
1
1
1
1
1
1
1
1
1
1
1
1
1
1
1
1
1
1
1.96123
2.63714
2.67056
2.67718
2.68269
2.686
2.68855
2.69146
2.69547
2.70075
2.70624
2.71045
2.71316
2.71542
2.71818
2.72098
2.72312
2.72344
2.72257
2.72095
2.71928
2.7152
2.70922
1
1
1
1
1
1
1
1
1
1
1
1
1
1
1
1
1
1
1
1
1
1
1
1
1
1.7479
2.56826
2.65453
2.66914
2.67884
2.68363
2.68632
2.68847
2.69077
2.69365
2.69718
2.70036
2.70221
2.70366
2.70518
2.70634
2.70717
2.70628
2.70358
2.69805
2.68929
2.67914
2.67049
1
1
1
1
1
1
1
1
1
1
1
1
1
1
1
1
1
1
1
1
1
1
1
1
1
1.44788
2.4462
2.63901
2.65496
2.66644
2.67405
2.67927
2.6829
2.68552
2.68761
2.68951
2.691
2.69159
2.69166
2.69111
2.69033
2.68909
2.68596
2.67988
2.66959
2.65601
2.6452
2.64843
1
1
1
1
1
1
1
1
1
1
1
1
1
1
1
1
1
1
1
1
1
1
1
1
1
1.09688
2.33036
2.63291
2.63209
2.64155
2.65452
2.66483
2.67223
2.67705
2.68002
2.68147
2.68189
2.68151
2.67968
2.67703
2.67365
2.66954
2.66343
2.65393
2.63761
2.6095
2.54899
2.42925
1
1
1
1
1
1
1
1
1
1
1
1
1
1
1
1
1
1
1
1
1
1
1
1
1
1.0024
2.22088
2.61555
2.61471
2.62236
2.63343
2.64525
2.65564
2.66344
2.66877
2.67143
2.6717
2.6706
2.66768
2.66312
2.65692
2.64938
2.63934
2.62444
2.59997
2.55418
2.48285
2.29428
1
1
1
1
1
1
1
1
1
1
1
1
1
1
1
1
1
1
1
1
1
1
1
1
1
0.999992
2.02424
2.60024
2.616
2.61914
2.62248
2.62895
2.63774
2.64607
2.65321
2.65792
2.65927
2.65822
2.65492
2.6491
2.64056
2.62948
2.61508
2.59442
2.56307
2.51053
2.41994
2.22475
1
1
1
1
1
1
1
1
1
1
1
1
1
1
1
1
1
1
1
1
1
1
1
1
1
0.999998
1.7243
2.53108
2.61364
2.6148
2.61679
2.61915
2.62356
2.62917
2.63544
2.64109
2.64393
2.64346
2.64049
2.63425
2.62426
2.61031
2.5918
2.56626
2.5286
2.47317
2.37209
2.20279
1
1
1
1
1
1
1
1
1
1
1
1
1
1
1
1
1
1
1
1
1
1
1
1
1
1
1.32556
2.39459
2.60614
2.60568
2.60896
2.61127
2.61341
2.61582
2.61905
2.62317
2.62619
2.62617
2.62386
2.61795
2.60748
2.59191
2.57034
2.54134
2.50016
2.44154
2.34351
2.21311
1
1
1
1
1
1
1
1
1
1
1
1
1
1
1
1
1
1
1
1
1
1
1
1
1
1
1.03006
2.24874
2.5974
2.59571
2.59792
2.60226
2.60408
2.60456
2.60506
2.60633
2.60772
2.60743
2.60522
2.59974
2.58955
2.57362
2.55066
2.51951
2.47722
2.41758
2.32974
2.22289
1
1
1
1
1
1
1
1
1
1
1
1
1
1
1
1
1
1
1
1
1
1
1
1
1
1
1.00014
2.02653
2.5522
2.58017
2.58874
2.5932
2.59451
2.5942
2.59316
2.59191
2.5907
2.58885
2.58565
2.57996
2.57016
2.55477
2.5321
2.50057
2.45846
2.40099
2.32405
2.23367
1
1
1
1
1
1
1
1
1
1
1
1
1
1
1
1
1
1
1
1
1
1
1
1
1
1
0.999999
1.63817
2.46121
2.56706
2.57562
2.58192
2.58454
2.5842
2.5826
2.57982
2.57629
2.57207
2.56689
2.55994
2.54984
2.535
2.51354
2.48341
2.44267
2.38975
2.32239
2.24367
1
1
1
1
1
1
1
1
1
1
1
1
1
1
1
1
1
1
1
1
1
1
1
1
1
1
1
1.14074
2.3138
2.56318
2.55996
2.56412
2.56954
2.57116
2.57033
2.56764
2.56317
2.55721
2.54993
2.54109
2.52987
2.51493
2.49466
2.46666
2.42849
2.38098
2.32162
2.25362
1
1
1
1
1
1
1
1
1
1
1
1
1
1
1
1
1
1
1
1
1
1
1
1
1
1
1
1.00487
2.14747
2.52899
2.53587
2.54608
2.55223
2.55534
2.55597
2.55433
2.55025
2.5437
2.53502
2.52437
2.51153
2.49574
2.47595
2.44958
2.41476
2.37273
2.32057
2.2622
1
1
1
1
1
1
1
1
1
1
1
1
1
1
1
1
1
1
1
1
1
1
1
1
1
1
1
0.999981
1.76762
2.46417
2.52082
2.53051
2.5366
2.54001
2.54125
2.54012
2.53671
2.5305
2.52142
2.50977
2.49565
2.47884
2.45855
2.43274
2.40135
2.36417
2.31817
2.26857
1
1
1
1
1
1
1
1
1
1
1
1
1
1
1
1
1
1
1
1
1
1
1
1
1
1
1
0.999994
1.21965
2.32608
2.52447
2.51687
2.51877
2.52208
2.52373
2.52324
2.52091
2.51582
2.50755
2.49604
2.48143
2.46418
2.44285
2.4174
2.38852
2.35483
2.3138
2.27077
1
1
1
1
1
1
1
1
1
1
1
1
1
1
1
1
1
1
1
1
1
1
1
1
1
1
1
0.999999
1.01165
2.15671
2.49628
2.49605
2.50155
2.50396
2.50543
2.50532
2.50376
2.4998
2.49279
2.48245
2.46862
2.45119
2.42964
2.40481
2.37745
2.34582
2.30917
2.27044
1
1
1
1
1
1
1
1
1
1
1
1
1
1
1
1
1
1
1
1
1
1
1
1
1
1
1
1
0.999997
1.72626
2.42363
2.48443
2.48926
2.49021
2.49022
2.48921
2.48695
2.48306
2.47685
2.46772
2.45523
2.43862
2.41806
2.39431
2.36797
2.33778
2.30448
2.2686
1
1
1
1
1
1
1
1
1
1
1
1
1
1
1
1
1
1
1
1
1
1
1
1
1
1
1
1
0.999996
1.1458
2.27217
2.49001
2.47948
2.47674
2.4753
2.47292
2.4699
2.46592
2.46017
2.452
2.4407
2.42599
2.40731
2.38527
2.36014
2.3316
2.30054
2.26653
1
1
1
1
1
1
1
1
1
1
1
1
1
1
1
1
1
1
1
1
1
1
1
1
1
1
1
1
0.999999
1.00491
2.04568
2.44979
2.4571
2.46181
2.46048
2.45767
2.45425
2.44986
2.44394
2.43606
2.42568
2.41242
2.39577
2.37591
2.35258
2.32603
2.2967
2.26464
1
1
1
1
1
1
1
1
1
1
1
1
1
1
1
1
1
1
1
1
1
1
1
1
1
1
1
1
1
0.999986
1.50656
2.33872
2.44749
2.44788
2.44702
2.44487
2.44142
2.43646
2.42977
2.42133
2.41104
2.39847
2.38333
2.36557
2.34449
2.32027
2.29302
2.26343
1
1
1
1
1
1
1
1
1
1
1
1
1
1
1
1
1
1
1
1
1
1
1
1
1
1
1
1
1
0.999996
1.06467
2.15684
2.43629
2.43211
2.4315
2.4302
2.42761
2.42289
2.41592
2.40714
2.39675
2.38458
2.37049
2.35425
2.33505
2.31312
2.28847
2.26155
1
1
1
1
1
1
1
1
1
1
1
1
1
1
1
1
1
1
1
1
1
1
1
1
1
1
1
1
1
0.999999
1.00077
1.73292
2.35274
2.41095
2.4133
2.41491
2.41368
2.40967
2.40297
2.39428
2.38391
2.37188
2.35818
2.34257
2.32484
2.30498
2.28292
2.25853
1
1
1
1
1
1
1
1
1
1
1
1
1
1
1
1
1
1
1
1
1
1
1
1
1
1
1
1
1
1
0.999999
1.15406
2.18828
2.40845
2.40031
2.40098
2.39937
2.3954
2.38928
2.38127
2.37141
2.35977
2.34642
2.33131
2.31449
2.29615
2.2761
2.25392
1
1
1
1
1
1
1
1
1
1
1
1
1
1
1
1
1
1
1
1
1
1
1
1
1
1
1
1
1
1
1
1.00504
1.86241
2.35476
2.37719
2.3811
2.38052
2.37817
2.37376
2.36721
2.35855
2.34785
2.33519
2.3207
2.30465
2.2873
2.26854
2.24813
1
1
1
1
1
1
1
1
1
1
1
1
1
1
1
1
1
1
1
1
1
1
1
1
1
1
1
1
1
1
1
1
1.23921
2.19758
2.37774
2.36965
2.36655
2.36322
2.35876
2.35287
2.34514
2.33538
2.32365
2.3101
2.295
2.27859
2.26079
2.24172
1
1
1
1
1
1
1
1
1
1
1
1
1
1
1
1
1
1
1
1
1
1
1
1
1
1
1
1
1
1
1
1
1.01256
1.92106
2.33715
2.35241
2.34923
2.34617
2.34234
2.33711
2.33019
2.32148
2.31104
2.29883
2.28501
2.26984
2.25309
2.23499
1
1
1
1
1
1
1
1
1
1
1
1
1
1
1
1
1
1
1
1
1
1
1
1
1
1
1
1
1
1
1
1
1.00003
1.29426
2.18658
2.34812
2.33888
2.33418
2.32931
2.32336
2.31644
2.3084
2.29905
2.28802
2.27523
2.26111
2.24536
2.22813
1
1
1
1
1
1
1
1
1
1
1
1
1
1
1
1
1
1
1
1
1
1
1
1
1
1
1
1
1
1
1
1
1
1.01927
1.92584
2.30903
2.32556
2.32082
2.31563
2.30952
2.30252
2.29458
2.28568
2.27549
2.26375
2.25092
2.23658
2.22072
1
1
1
1
1
1
1
1
1
1
1
1
1
1
1
1
1
1
1
1
1
1
1
1
1
1
1
1
1
1
1
1
1
1.00009
1.30952
2.15441
2.31612
2.3091
2.30431
2.2979
2.2903
2.28201
2.27316
2.26352
2.25272
2.24108
2.22815
2.21356
1
1
1
1
1
1
1
1
1
1
1
1
1
1
1
1
1
1
1
1
1
1
1
1
1
1
1
1
1
1
1
1
1
1
1.02134
1.87066
2.27149
2.29932
2.29246
2.28556
2.27799
2.26993
2.26122
2.25188
2.24162
2.23066
2.21884
2.20533
1
1
1
1
1
1
1
1
1
1
1
1
1
1
1
1
1
1
1
1
1
1
1
1
1
1
1
1
1
1
1
1
1
1
1.00013
1.27265
2.10407
2.28587
2.27946
2.27423
2.26711
2.25921
2.25061
2.24153
2.23166
2.22106
2.20988
2.1973
1
1
1
1
1
1
1
1
1
1
1
1
1
1
1
1
1
1
1
1
1
1
1
1
1
1
1
1
1
1
1
1
1
1
1
1.01628
1.75275
2.22036
2.26877
2.26092
2.25428
2.2476
2.24019
2.2319
2.22255
2.21209
2.20096
2.18899
1
1
1
1
1
1
1
1
1
1
1
1
1
1
1
1
1
1
1
1
1
1
1
1
1
1
1
1
1
1
1
1
1
1
1
1.0001
1.19315
2.03545
2.25497
2.24682
2.24315
2.23809
2.23139
2.22319
2.21389
2.20351
2.19237
2.18079
1
1
1
1
1
1
1
1
1
1
1
1
1
1
1
1
1
1
1
1
1
1
1
1
1
1
1
1
1
1
1
1
1
1
1
1
1.00803
1.57725
2.14457
2.23234
2.22723
2.22392
2.21871
2.21182
2.20361
2.19429
2.18386
2.17261
1
1
1
1
1
1
1
1
1
1
1
1
1
1
1
1
1
1
1
1
1
1
1
1
1
1
1
1
1
1
1
1
1
1
1
1
1.00005
1.10135
1.93127
2.22024
2.21535
2.21055
2.20512
2.19969
2.19304
2.18512
2.17579
2.16511
1
1
1
1
1
1
1
1
1
1
1
1
1
1
1
1
1
1
1
1
1
1
1
1
1
1
1
1
1
1
1
1
1
1
1
1
1
1.00232
1.39903
2.07744
2.20166
2.19252
2.18878
2.18446
2.17915
2.17266
2.16506
2.15617
1
1
1
1
1
1
1
1
1
1
1
1
1
1
1
1
1
1
1
1
1
1
1
1
1
1
1
1
1
1
1
1
1
1
1
1
1
1.00001
1.04042
1.75693
2.15098
2.18937
2.181
2.17444
2.16835
2.16202
2.15514
2.14746
1
1
1
1
1
1
1
1
1
1
1
1
1
1
1
1
1
1
1
1
1
1
1
1
1
1
1
1
1
1
1
1
1
1
1
1
1
1
1.00051
1.21386
1.96355
2.17686
2.16923
2.16278
2.1564
2.15006
2.14351
2.13653
1
1
1
1
1
1
1
1
1
1
1
1
1
1
1
1
1
1
1
1
1
1
1
1
1
1
1
1
1
1
1
1
1
1
1
1
1
1
1
1.01024
1.50109
2.06603
2.15771
2.14988
2.14417
2.13852
2.13232
2.12563
1
1
1
1
1
1
1
1
1
1
1
1
1
1
1
1
1
1
1
1
1
1
1
1
1
1
1
1
1
1
1
1
1
1
1
1
1
1
1
1.00008
1.07355
1.79234
2.11859
2.14627
2.13821
2.13069
2.12343
2.11613
1
1
1
1
1
1
1
1
1
1
1
1
1
1
1
1
1
1
1
1
1
1
1
1
1
1
1
1
1
1
1
1
1
1
1
1
1
1
1
1
1.00145
1.26107
1.94289
2.1305
2.12686
2.12017
2.11351
2.10641
1
1
1
1
1
1
1
1
1
1
1
1
1
1
1
1
1
1
1
1
1
1
1
1
1
1
1
1
1
1
1
1
1
1
1
1
1
1
1
1
1.00001
1.01599
1.50809
2.0283
2.11586
2.10928
2.10272
2.09659
1
1
1
1
1
1
1
1
1
1
1
1
1
1
1
1
1
1
1
1
1
1
1
1
1
1
1
1
1
1
1
1
1
1
1
1
1
1
1
1
1
1.00016
1.07944
1.74759
2.0679
2.10542
2.09686
2.0888
1
1
1
1
1
1
1
1
1
1
1
1
1
1
1
1
1
1
1
1
1
1
1
1
1
1
1
1
1
1
1
1
1
1
1
1
1
1
1
1
1
1
1.00176
1.23378
1.88289
2.08648
2.08739
2.08052
1
1
1
1
1
1
1
1
1
1
1
1
1
1
1
1
1
1
1
1
1
1
1
1
1
1
1
1
1
1
1
1
1
1
1
1
1
1
1
1
1
1
1.00001
1.01309
1.43464
1.96618
2.07442
2.07023
1
1
1
1
1
1
1
1
1
1
1
1
1
1
1
1
1
1
1
1
1
1
1
1
1
1
1
1
1
1
1
1
1
1
1
1
1
1
1
1
1
1
1
1.00013
1.05586
1.63487
2.0122
2.06486
1
1
1
1
1
1
1
1
1
1
1
1
1
1
1
1
1
1
1
1
1
1
1
1
1
1
1
1
1
1
1
1
1
1
1
1
1
1
1
1
1
1
1
1
1.00105
1.15507
1.7892
2.027
1
1
1
1
1
1
1
1
1
1
1
1
1
1
1
1
1
1
1
1
1
1
1
1
1
1
1
1
1
1
1
1
1
1
1
1
1
1
1
1
1
1
1
1
1
1.0061
1.30752
1.87101
1
1
1
1
1
1
1
1
1
1
1
1
1
1
1
1
1
1
1
1
1
1
1
1
1
1
1
1
1
1
1
1
1
1
1
1
1
1
1
1
1
1
1
1
1
1.00005
1.02497
1.46823
1
1
1
1
1
1
1
1
1
1
1
1
1
1
1
1
1
1
1
1
1
1
1
1
1
1
1
1
1
1
1
1
1
1
1
1
1
1
1
1
1
1
1
1
1
1
1.00033
1.07185
1
1
1
1
1
1
1
1
1
1
1
1
1
1
1
1
1
1
1
1
1
1
1
1
1
1
1
1
1
1
1
1
1
1
1
1
1
1
1
1
1
1
1
1
1
1
1
1.00165
1
1
1
1
1
1
1
1
1
1
1
1
1
1
1
1
1
1
1
1
1
1
1
1
1
1
1
1
1
1
1
1
1
1
1
1
1
1
1
1
1
1
1
1
1
1
1
1.00001
1
1
1
1
1
1
1
1
1
1
1
1
1
1
1
1
1
1
1
1
1
1
1
1
1
1
1
1
1
1
1
1
1
1
1
1
1
1
1
1
1
1
1
1
1
1
1
1
1
1
1
1
1
1
1
1
1
1
1
1
1
1
1
1
1
1
1
1
1
1
1
1
1
1
1
1
1
1
1
1
1
1
1
1
1
1
1
1
1
1
1
1
1
1
1
1
1
1
1
1
1
1
1
1
1
1
1
1
1
1
1
1
1
1
1
1
1
1
1
1
1
1
1
1
1
1
1
1
1
1
1
1
1
1
1
1
1
1
1
1
1
1
1
1
1
1
1
1
1
1
1
1
1
1
1
1
1
1
1
1
1
1
1
1
1
1
1
1
1
1
1
1
1
1
1
1
1
1
1
1
1
1
1
1
1
1
1
1
1
1
1
1
1
1
1
1
1
1
1
1
1
1
1
1
1
1
1
1
1
1
1
1
1
1
1
1
1
1
1
1
1
1
1
1
1
1
1
1
1
1
1
1
1
1
1
1
1
1
1
1
1
1
1
1
1
1
1
1
1
1
1
1
1
1
1
1
1
1
1
1
1
1
1
1
1
1
1
1
1
1
1
1
1
1
1
1
1
1
1
1
1
1
1
1
1
1
1
1
1
1
1
1
1
1
1
1
1
1
1
1
1
1
1
1
1
1
1
1
1
1
1
1
1
1
1
1
1
1
1
1
1
1
1
1
1
1
1
1
1
1
1
1
1
1
1
1
1
1
1
1
1
1
1
1
1
1
1
1
1
1
1
1
1
1
1
1
1
1
1
1
1
1
1
1
1
1
1
1
1
1
1
1
1
1
1
1
1
1
1
1
1
1
1
1
1
1
1
1
1
1
1
1
1
1
1
1
1
1
1
1
1
1
1
1
1
1
1
1
1
1
1
1
1
1
1
1
1
1
1
1
1
1
1
1
1
1
1
1
1
1
1
1
1
1
1
1
1
1
1
1
1
1
1
1
1
1
1
1
1
1
1
1
1
1
1
1
1
1
1
1
1
1
1
1
1
1
1
1
1
1
1
1
1
1
1
1
1
1
1
1
1
1
1
1
1
1
1
1
1
1
1
1
1
1
1
1
1
1
1
1
1
1
1
1
1
1
1
1
1
1
1
1
1
1
1
1
1
1
1
1
1
1
1
1
1
1
1
1
1
1
1
1
1
1
1
1
1
1
1
1
1
1
1
1
1
1
1
1
1
1
1
1
1
1
1
1
1
1
1
1
1
1
1
1
1
1
1
1
1
1
1
1
1
1
1
1
1
1
1
1
1
1
1
1
1
1
1
1
1
1
1
1
1
1
1
1
1
1
1
1
1
1
1
1
1
1
1
1
1
1
1
1
1
1
1
1
1
1
1
1
1
1
1
1
1
1
1
1
1
1
1
1
1
1
1
1
1
1
1
1
1
1
1
1
1
1
1
1
1
1
1
1
1
1
1
1
1
1
1
1
1
1
1
1
1
1
1
1
1
1
1
1
1
1
1
1
1
1
1
1
1
1
1
1
1
1
1
1
1
1
1
1
1
1
1
1
1
1
1
1
1
1
1
1
1
1
1
1
1
1
1
1
1
1
1
1
1
1
1
1
1.5668
0.964657
0.47515
0.653819
0.998034
1.07365
1.12605
1.2687
1.36353
1.33854
1.33478
1.34325
1.37932
1.42438
1.48059
1.55681
1.5999
1.61457
1.61483
1.60904
1.60346
1.60336
1.60914
1.62696
1.64099
1.63948
1.62768
1.6281
1.63526
1.65246
1.67474
1.68189
1.68
1.67319
1.66254
1.66015
1.66028
1.66378
1.66891
1.67332
1.6795
1.68232
1.68357
1.68402
1.68227
1.67969
1.67607
1.67424
1.67557
1.67725
1.67623
1.67308
1.66965
1.66696
1.66423
1.66116
1.65948
1.65935
1.66033
1.66467
1.66723
2.21674
2.78076
2.83158
2.83502
2.83653
2.83558
2.831
2.81889
2.801
2.78363
2.77172
2.76675
2.76658
2.76764
2.76706
2.76228
2.7526
2.74019
2.72724
2.71508
2.70375
2.69215
2.67905
2.66483
2.6516
2.64078
2.63262
2.62583
2.61835
2.60954
2.60052
2.59297
2.58781
2.58492
2.58311
2.58106
2.57822
2.57471
2.57001
2.56152
2.54778
2.53079
2.51003
2.49053
2.4764
2.46628
2.46313
2.46449
2.4664
2.46305
2.45424
2.44497
2.43448
2.4226
2.41063
2.39974
2.3897
2.38087
2.37391
2.36852
2.36296
2.35645
2.34999
2.34399
2.33771
2.32942
2.31926
2.30494
2.28976
2.2791
2.27108
2.26581
2.26358
2.26159
2.2593
2.25598
2.25131
2.24512
2.2347
2.22222
2.21389
2.20817
2.20285
2.19859
2.19656
2.19523
2.19181
2.18658
2.18101
2.17471
2.16612
2.15455
2.14495
2.13912
2.1342
2.12918
2.12461
2.12078
2.11651
2.11091
2.10463
2.09716
2.08682
2.07686
2.07112
2.06745
2.06497
2.06432
2.0651
2.06557
2.06469
2.06219
2.05815
2.05051
2.03605
2.01997
2.01028
2.00493
2.00086
1.99704
1.99338
1.99039
1.98898
1.9874
1.98284
1.97691
1.96934
1.95808
1.94493
1.93644
1.92934
1.79391
1.49461
1.15335
1.03875
1.08993
1.09476
1.07932
1.08303
1.08131
1.08329
1.09754
1.11809
1.14994
1.20182
1.2639
1.32068
1.36011
1.38871
1.42569
1.4557
1.47819
1.50029
1.52424
1.55
1.57255
1.58882
1.58906
1.58819
1.59032
1.60117
1.6166
1.62688
1.63056
1.62959
1.62854
1.62929
1.63265
1.6381
1.64173
1.64346
1.64675
1.65168
1.65559
1.65876
1.65949
1.65873
1.65593
1.65382
1.65457
1.65609
1.65535
1.65312
1.65091
1.64839
1.64689
1.64688
1.64784
1.64858
1.64919
1.65138
1.65128
2.18149
2.76778
2.82451
2.82132
2.81799
2.81505
2.81034
2.80006
2.78368
2.76526
2.74985
2.74019
2.7363
2.73653
2.73797
2.73622
2.72844
2.71603
2.70205
2.68878
2.67797
2.6697
2.6628
2.65359
2.64085
2.62754
2.61559
2.60562
2.59782
2.59075
2.58339
2.57598
2.56931
2.56387
2.55954
2.5557
2.5519
2.54818
2.54443
2.53886
2.5304
2.51966
2.50714
2.49273
2.47764
2.4649
2.45583
2.45013
2.44618
2.44124
2.43595
2.42923
2.42089
2.41176
2.40303
2.39472
2.38679
2.37958
2.3732
2.36638
2.35795
2.34873
2.33949
2.33051
2.32194
2.31403
2.30603
2.29849
2.29032
2.28112
2.27211
2.26491
2.25881
2.25279
2.24714
2.24244
2.23826
2.23334
2.22777
2.22269
2.21581
2.20801
2.20148
2.19631
2.19266
2.18977
2.18492
2.17911
2.17322
2.16697
2.15949
2.15117
2.14417
2.13843
2.13297
2.12772
2.12297
2.11844
2.11265
2.10621
2.09958
2.09271
2.08461
2.07625
2.06956
2.06511
2.06231
2.06096
2.06058
2.05951
2.05773
2.05541
2.05198
2.04566
2.03558
2.02352
2.01243
2.00452
1.9992
1.99518
1.99161
1.98863
1.98592
1.98213
1.97764
1.97245
1.96589
1.95733
1.94742
1.93861
1.92907
1.88387
1.70142
1.53206
1.36731
1.28288
1.24205
1.16257
1.09217
1.09683
1.08946
1.06101
1.06475
1.08059
1.10484
1.1329
1.14998
1.16283
1.1824
1.22545
1.28575
1.33325
1.36545
1.40022
1.43429
1.46314
1.49188
1.51234
1.51707
1.52202
1.52991
1.5393
1.55075
1.56109
1.56201
1.5615
1.56251
1.56708
1.57562
1.58177
1.58555
1.58854
1.59127
1.59452
1.59937
1.60349
1.60423
1.60367
1.60429
1.608
1.613
1.61434
1.61422
1.61333
1.60993
1.60743
1.60747
1.60914
1.61301
1.61535
1.61569
1.61662
2.02068
2.68255
2.76904
2.75174
2.74651
2.74396
2.73928
2.73146
2.72045
2.70747
2.69406
2.68216
2.67413
2.67004
2.66923
2.66928
2.66672
2.65852
2.64583
2.63097
2.61629
2.60471
2.59891
2.59603
2.59279
2.58432
2.57404
2.56342
2.55406
2.54678
2.54126
2.53605
2.53012
2.52363
2.51714
2.51117
2.50553
2.49941
2.4925
2.48594
2.47976
2.47424
2.46912
2.46283
2.45467
2.44509
2.43404
2.42198
2.41086
2.40258
2.39698
2.39064
2.38388
2.37712
2.37055
2.3646
2.35928
2.35528
2.35287
2.34975
2.34337
2.33455
2.32254
2.30726
2.2923
2.28115
2.27334
2.26883
2.26748
2.26559
2.26112
2.25486
2.24693
2.23648
2.22478
2.21541
2.20894
2.20497
2.2036
2.20356
2.2014
2.19749
2.19254
2.18697
2.18116
2.1749
2.16851
2.16197
2.15509
2.14768
2.14014
2.13425
2.12961
2.12537
2.12154
2.1183
2.11472
2.10945
2.10274
2.09463
2.0859
2.07784
2.07176
2.06651
2.06186
2.05757
2.05373
2.05042
2.04763
2.04523
2.04302
2.04047
2.03676
2.03154
2.02568
2.01952
2.01269
2.00398
1.99519
1.98898
1.98479
1.98093
1.97663
1.97206
1.96687
1.9609
1.95473
1.94926
1.9436
1.93865
1.92865
1.97458
1.82224
1.69066
1.53667
1.44462
1.38937
1.30827
1.23275
1.21983
1.19896
1.15932
1.15389
1.1467
1.12475
1.10672
1.10619
1.10582
1.11021
1.12114
1.14584
1.18929
1.238
1.28592
1.32664
1.3515
1.37866
1.40943
1.42575
1.43971
1.45981
1.47524
1.48371
1.49268
1.49837
1.49924
1.50183
1.50896
1.51866
1.52681
1.53031
1.53196
1.53163
1.53137
1.53299
1.5363
1.53899
1.54145
1.54531
1.55179
1.55864
1.56174
1.56216
1.56218
1.56102
1.55894
1.55903
1.56124
1.5646
1.56619
1.56968
1.58308
1.78815
2.50089
2.68544
2.64205
2.62671
2.62771
2.6257
2.61896
2.60813
2.59499
2.58297
2.57399
2.56802
2.56511
2.56357
2.5624
2.5612
2.55844
2.55235
2.54303
2.53137
2.51978
2.50966
2.503
2.5002
2.49599
2.48983
2.48351
2.47592
2.46893
2.46383
2.45947
2.45478
2.44912
2.44308
2.4377
2.43332
2.42964
2.42613
2.42259
2.41889
2.41486
2.41081
2.4067
2.40216
2.3941
2.38265
2.36966
2.3553
2.34402
2.33702
2.33238
2.32882
2.32536
2.32155
2.31694
2.31275
2.3093
2.30627
2.30327
2.29917
2.29342
2.28574
2.27492
2.26096
2.24773
2.23829
2.23165
2.22903
2.22845
2.22576
2.22052
2.21436
2.20604
2.19526
2.18415
2.17608
2.17201
2.17031
2.17027
2.17022
2.16945
2.16708
2.16273
2.15584
2.14764
2.14051
2.13408
2.1275
2.12097
2.11574
2.11141
2.10709
2.1027
2.09902
2.09595
2.09246
2.08802
2.08221
2.07461
2.06581
2.05816
2.05241
2.04772
2.04372
2.03997
2.03612
2.03182
2.02726
2.02311
2.01949
2.01582
2.0117
2.00817
2.00614
2.00423
2.00115
1.99574
1.9881
1.97977
1.97249
1.9667
1.96165
1.95623
1.94991
1.94375
1.93898
1.93535
1.93273
1.92977
1.92149
2.04591
1.90931
1.79598
1.67637
1.58178
1.50257
1.42043
1.35902
1.33683
1.30777
1.26347
1.24207
1.22081
1.1904
1.16962
1.15925
1.14664
1.14574
1.14999
1.15694
1.1573
1.16192
1.17469
1.20076
1.22749
1.25823
1.30447
1.34767
1.37391
1.4011
1.42469
1.43215
1.43992
1.44945
1.45363
1.45727
1.46767
1.48219
1.49498
1.4987
1.49943
1.49738
1.49442
1.49565
1.49805
1.50244
1.50798
1.51278
1.5181
1.5237
1.52505
1.52458
1.52376
1.52335
1.52285
1.52294
1.52409
1.52616
1.53207
1.55013
1.63008
1.78103
2.21586
2.52333
2.55807
2.52388
2.50903
2.50903
2.50739
2.50215
2.49088
2.47984
2.47311
2.47122
2.47152
2.47158
2.47027
2.46792
2.46573
2.46284
2.45784
2.45077
2.44199
2.43321
2.42582
2.4211
2.4179
2.41387
2.40998
2.40542
2.3992
2.39382
2.38937
2.38483
2.37958
2.37402
2.36811
2.36221
2.35678
2.35262
2.3506
2.34967
2.34886
2.34777
2.34583
2.34204
2.33448
2.32463
2.31256
2.29897
2.28661
2.2777
2.27279
2.27014
2.26884
2.26774
2.26633
2.26446
2.26135
2.25648
2.25017
2.24372
2.23759
2.23118
2.22402
2.21647
2.20898
2.2019
2.19605
2.19142
2.18663
2.18124
2.17534
2.16855
2.1609
2.15285
2.14561
2.13998
2.13612
2.13432
2.13382
2.13375
2.1332
2.13156
2.12829
2.12183
2.11253
2.10295
2.09495
2.08891
2.08455
2.08186
2.08
2.07778
2.07549
2.07228
2.06744
2.06154
2.05551
2.04934
2.0431
2.03773
2.0332
2.02875
2.02434
2.02009
2.01594
2.01159
2.00662
2.00099
1.99515
1.98964
1.98518
1.98245
1.98147
1.98093
1.98034
1.97893
1.97637
1.97212
1.96538
1.95645
1.94711
1.93948
1.93349
1.92821
1.92403
1.92045
1.91755
1.91534
1.91263
1.90523
2.09582
1.98235
1.87021
1.77086
1.68996
1.6079
1.52664
1.46657
1.42827
1.39074
1.35208
1.32973
1.30531
1.26983
1.24851
1.23299
1.21271
1.20295
1.19847
1.18838
1.17535
1.16859
1.16985
1.16955
1.17171
1.17889
1.19734
1.23465
1.27188
1.30727
1.3484
1.37362
1.39215
1.41523
1.42685
1.4324
1.4419
1.45686
1.47229
1.47806
1.47904
1.47734
1.47365
1.47521
1.47887
1.48631
1.49432
1.49818
1.50079
1.5019
1.50327
1.50369
1.50406
1.50545
1.50607
1.50566
1.50592
1.50977
1.53172
1.61395
1.79411
1.88362
1.98074
2.27488
2.43855
2.46853
2.45284
2.44195
2.43711
2.43567
2.42809
2.41717
2.41092
2.40851
2.40993
2.41088
2.40984
2.40621
2.40163
2.39817
2.39501
2.39156
2.38681
2.38054
2.37382
2.36796
2.36329
2.3594
2.35603
2.35257
2.34771
2.34162
2.33667
2.33227
2.32822
2.32397
2.31944
2.31469
2.30969
2.30492
2.30101
2.29836
2.29694
2.29608
2.29448
2.29019
2.28358
2.27531
2.266
2.25664
2.24769
2.23877
2.23092
2.2266
2.22435
2.22299
2.22229
2.22082
2.21792
2.21343
2.20664
2.19862
2.1916
2.18639
2.18251
2.17957
2.17676
2.17256
2.16606
2.1573
2.148
2.13952
2.13211
2.12563
2.12039
2.11676
2.11387
2.11104
2.10758
2.10343
2.09996
2.09804
2.09631
2.09398
2.09056
2.08568
2.07925
2.07153
2.06378
2.05769
2.05347
2.05064
2.0492
2.04796
2.0464
2.04397
2.03851
2.03083
2.02353
2.01773
2.01354
2.01017
2.00684
2.00329
1.99947
1.99531
1.99052
1.98508
1.97943
1.9737
1.96761
1.96113
1.95592
1.95418
1.95389
1.95366
1.95347
1.95301
1.95168
1.94937
1.94514
1.93787
1.92738
1.91576
1.90755
1.90364
1.90103
1.89858
1.89669
1.89444
1.8914
1.88456
2.1329
2.0361
1.93452
1.84876
1.76971
1.69277
1.61311
1.56306
1.51492
1.46682
1.42908
1.40268
1.37387
1.34147
1.3198
1.30102
1.27722
1.25962
1.24805
1.23855
1.22714
1.21314
1.2011
1.19397
1.19151
1.1907
1.192
1.19436
1.20085
1.21151
1.23365
1.26555
1.29774
1.33522
1.37699
1.40887
1.42608
1.43797
1.4496
1.46174
1.46723
1.46724
1.46457
1.4664
1.4717
1.48114
1.49012
1.49313
1.49416
1.49309
1.49141
1.492
1.49398
1.49688
1.49829
1.49923
1.50177
1.52489
1.63198
1.78029
1.90807
1.93788
1.94468
2.02567
2.2611
2.39839
2.42563
2.42105
2.4157
2.4112
2.40576
2.39808
2.39256
2.3885
2.38733
2.38693
2.38522
2.38157
2.37642
2.37255
2.36917
2.3656
2.36123
2.35595
2.34996
2.34347
2.33838
2.33489
2.33189
2.32834
2.32403
2.31863
2.31374
2.3101
2.3067
2.30262
2.29798
2.29341
2.28898
2.28471
2.2801
2.27445
2.268
2.26225
2.25704
2.25115
2.24491
2.23902
2.23351
2.22846
2.22345
2.21737
2.20926
2.20081
2.19625
2.19364
2.19136
2.18892
2.18573
2.1818
2.17694
2.1714
2.16674
2.1637
2.16166
2.15934
2.1556
2.14967
2.14106
2.13009
2.11924
2.11021
2.1037
2.09962
2.09722
2.09706
2.09778
2.09622
2.09257
2.08574
2.07628
2.06906
2.06467
2.06108
2.05765
2.05416
2.05028
2.04585
2.04125
2.03676
2.03271
2.02955
2.02715
2.02504
2.02199
2.01672
2.00988
2.0035
1.99843
1.99463
1.99166
1.98897
1.98623
1.98307
1.97948
1.97431
1.96716
1.96013
1.9544
1.94938
1.9446
1.93998
1.93567
1.93206
1.93009
1.92939
1.92887
1.92859
1.92769
1.92537
1.92122
1.91526
1.90748
1.89832
1.88962
1.88362
1.88037
1.87816
1.87602
1.87337
1.8705
1.864
2.1602
2.07383
1.98635
1.91219
1.83832
1.75962
1.69125
1.63899
1.59023
1.5402
1.50597
1.47468
1.43691
1.40327
1.384
1.36413
1.34281
1.32728
1.30881
1.28788
1.2778
1.26602
1.24853
1.23112
1.2239
1.21681
1.20919
1.20928
1.21158
1.2115
1.20663
1.20587
1.2123
1.22986
1.26601
1.3141
1.36203
1.39602
1.41204
1.42529
1.4424
1.45786
1.4598
1.46212
1.46854
1.47788
1.48713
1.49055
1.49142
1.49088
1.48648
1.48594
1.48724
1.48963
1.4938
1.50069
1.52663
1.64337
1.80579
1.90211
1.94128
1.94789
1.94378
1.94805
2.03215
2.25464
2.38728
2.41074
2.40866
2.40325
2.39831
2.3945
2.38997
2.38498
2.38234
2.38158
2.37965
2.3764
2.37156
2.36531
2.36006
2.3554
2.35122
2.34655
2.34138
2.33568
2.33053
2.32673
2.32357
2.3204
2.31666
2.31228
2.30716
2.30144
2.29587
2.29078
2.28616
2.28189
2.27768
2.27317
2.26794
2.26132
2.25253
2.24205
2.23251
2.22602
2.2214
2.2179
2.21533
2.21346
2.21064
2.20654
2.20104
2.1926
2.18316
2.17768
2.17461
2.17187
2.16962
2.16769
2.16562
2.163
2.15937
2.15431
2.14774
2.14029
2.13312
2.12566
2.11766
2.11016
2.10358
2.0981
2.09377
2.09119
2.09076
2.09065
2.08888
2.08549
2.07916
2.06958
2.05845
2.04884
2.04257
2.03869
2.03581
2.03349
2.0315
2.02985
2.02826
2.02618
2.02279
2.01789
2.01149
2.00462
1.99839
1.99274
1.98781
1.98455
1.98264
1.98093
1.97888
1.97624
1.97301
1.9691
1.96316
1.95514
1.9473
1.94132
1.93671
1.93272
1.92921
1.92611
1.92298
1.91933
1.91547
1.91265
1.9114
1.90996
1.9072
1.90321
1.89864
1.89385
1.88903
1.88412
1.87868
1.87236
1.86611
1.86148
1.85841
1.85523
1.85169
1.84568
2.18305
2.10547
2.03075
1.96308
1.89304
1.81694
1.76127
1.70756
1.65736
1.60777
1.57448
1.54048
1.50225
1.46764
1.44395
1.41816
1.39341
1.38003
1.36459
1.34024
1.32004
1.31146
1.29949
1.28199
1.27191
1.26245
1.24736
1.24411
1.24492
1.23905
1.226
1.21532
1.21294
1.21265
1.21613
1.22655
1.24778
1.27945
1.31731
1.34838
1.37666
1.40777
1.43683
1.45208
1.45927
1.46712
1.47709
1.48563
1.4884
1.48902
1.488
1.48471
1.48409
1.48551
1.49364
1.54153
1.64833
1.82918
1.90471
1.93366
1.94422
1.94301
1.94185
1.94323
1.95282
2.03523
2.25488
2.37807
2.40061
2.39854
2.39472
2.39218
2.38962
2.38509
2.38144
2.37862
2.37564
2.37283
2.36873
2.36248
2.35522
2.34902
2.34401
2.34008
2.3368
2.33292
2.32829
2.32297
2.31769
2.31344
2.30915
2.30462
2.2995
2.29374
2.28773
2.2818
2.2765
2.27184
2.26735
2.26265
2.25745
2.25156
2.24469
2.23562
2.22496
2.21631
2.21118
2.20782
2.20632
2.2073
2.2064
2.20292
2.1986
2.1925
2.18264
2.17235
2.16688
2.16389
2.1621
2.16223
2.16067
2.15665
2.15137
2.14365
2.13375
2.12395
2.11535
2.10843
2.10305
2.09954
2.09667
2.09493
2.09407
2.09275
2.08966
2.0849
2.07794
2.07007
2.06281
2.05536
2.04803
2.04045
2.03301
2.02785
2.0247
2.02248
2.0218
2.02347
2.02401
2.02175
2.01754
2.00955
1.99747
1.98623
1.97965
1.97633
1.97466
1.97354
1.97358
1.97375
1.97248
1.96962
1.96459
1.95642
1.9467
1.93872
1.93324
1.92942
1.92626
1.92362
1.92143
1.91947
1.91728
1.91435
1.90945
1.90263
1.89616
1.89138
1.88816
1.8852
1.88186
1.87867
1.87612
1.87376
1.87076
1.86646
1.86013
1.85206
1.84493
1.83943
1.8359
1.83167
2.20013
2.1308
2.06691
2.0051
1.93577
1.87253
1.82088
1.76951
1.71493
1.67368
1.63696
1.59849
1.55908
1.52777
1.50208
1.47416
1.44384
1.42702
1.41165
1.39107
1.37033
1.35467
1.3407
1.32612
1.31836
1.31082
1.29586
1.2792
1.2743
1.2674
1.2544
1.23958
1.23406
1.23084
1.22517
1.22519
1.22692
1.23217
1.24033
1.25257
1.27297
1.30788
1.35012
1.39322
1.42551
1.44051
1.45274
1.46651
1.48215
1.48612
1.48727
1.48732
1.48682
1.49041
1.53858
1.68628
1.81893
1.92154
1.9405
1.94355
1.94282
1.94089
1.93991
1.94209
1.94894
1.95903
2.03806
2.24406
2.36122
2.39174
2.38811
2.38679
2.38651
2.38404
2.37917
2.37415
2.37018
2.36697
2.36381
2.35965
2.35308
2.34423
2.33715
2.33295
2.33017
2.32751
2.32334
2.31813
2.31142
2.30485
2.30011
2.29562
2.29135
2.28734
2.28253
2.27617
2.2688
2.26193
2.25634
2.25176
2.24766
2.24345
2.23831
2.23204
2.22452
2.21659
2.2102
2.20618
2.20357
2.20141
2.2003
2.1995
2.19583
2.19053
2.18291
2.17331
2.16452
2.15922
2.15583
2.15243
2.14964
2.14614
2.14105
2.13376
2.1236
2.11312
2.10527
2.10006
2.09694
2.09584
2.09704
2.09835
2.09696
2.09301
2.08608
2.07627
2.06547
2.05509
2.04779
2.04363
2.04038
2.0362
2.0309
2.02559
2.02187
2.01972
2.01992
2.02123
2.01912
2.01552
2.01019
2.00158
1.98933
1.97822
1.97186
1.96929
1.96801
1.96925
1.97219
1.97115
1.9686
1.96435
1.95625
1.94537
1.93628
1.92998
1.92611
1.92324
1.92087
1.919
1.91779
1.91659
1.91478
1.91095
1.90399
1.89494
1.88665
1.88099
1.87712
1.87409
1.87189
1.87019
1.86928
1.86814
1.86629
1.86335
1.85748
1.84777
1.83703
1.82915
1.82586
1.82234
2.21407
2.15315
2.09689
2.04014
1.97492
1.92202
1.87234
1.82084
1.76788
1.73179
1.69177
1.65194
1.61082
1.58215