/*--------------------------------*- C++ -*----------------------------------*\
  =========                 |
  \\      /  F ield         | OpenFOAM: The Open Source CFD Toolbox
   \\    /   O peration     | Website:  https://openfoam.org
    \\  /    A nd           | Version:  7
     \\/     M anipulation  |
\*---------------------------------------------------------------------------*/
FoamFile
{
    version     2.0;
    format      ascii;
    class       volVectorField;
    location    "3.5";
    object      U;
}
// * * * * * * * * * * * * * * * * * * * * * * * * * * * * * * * * * * * * * //

dimensions      [0 1 -1 0 0 0 0];

internalField   nonuniform List<vector> 
16128
(
(3 6.5027e-18 0)
(3 3.03962e-17 0)
(3 -9.14135e-17 0)
(3 2.04759e-16 0)
(3 7.27222e-16 0)
(3 -1.0216e-16 0)
(3 -4.31481e-16 0)
(3 -1.54434e-15 0)
(3 -7.75714e-16 0)
(3 2.93159e-16 0)
(3 7.74036e-16 0)
(3 8.91903e-16 0)
(3 1.08584e-15 0)
(3 8.92607e-16 0)
(3 7.29749e-16 0)
(3 1.02142e-15 0)
(3 1.11182e-15 0)
(3 1.00842e-15 0)
(3 4.72758e-16 0)
(3 1.63156e-16 0)
(3 9.33757e-17 0)
(3 1.74317e-16 0)
(3 2.5986e-16 0)
(3 3.45293e-16 0)
(1.58361 0.00760474 0)
(0.785835 0.0066684 0)
(0.728227 0.0135944 0)
(0.697253 0.0136703 0)
(0.665062 0.0133871 0)
(0.634937 0.012963 0)
(0.605836 0.0128314 0)
(0.577053 0.0130321 0)
(0.547848 0.013486 0)
(0.517628 0.0141599 0)
(0.486226 0.0146843 0)
(0.454575 0.0146986 0)
(0.423552 0.0145959 0)
(0.392695 0.014835 0)
(0.361248 0.0153069 0)
(0.329047 0.0158083 0)
(0.296004 0.0163323 0)
(0.261799 0.0169479 0)
(0.22626 0.0176892 0)
(0.18923 0.0185507 0)
(0.150381 0.0195721 0)
(0.109323 0.0207301 0)
(0.066406 0.0213218 0)
(0.0230185 0.0219597 0)
(3 2.97438e-17 0)
(3 3.37267e-18 0)
(3 -7.77783e-17 0)
(3 1.42766e-16 0)
(3 1.19145e-16 0)
(3 7.23417e-17 0)
(3 -6.91853e-16 0)
(3 -2.03401e-15 0)
(3 -2.09109e-15 0)
(3 2.64501e-16 0)
(3 1.14424e-15 0)
(3 1.04836e-15 0)
(3 1.94991e-15 0)
(3 1.84532e-15 0)
(3 8.96903e-16 0)
(3 9.00091e-16 0)
(3 9.44913e-16 0)
(3 -2.4634e-17 0)
(3 -6.95618e-16 0)
(3 -8.274e-16 0)
(3 -1.07647e-15 0)
(3 -1.17113e-15 0)
(3 -1.52016e-15 0)
(3 -7.90565e-16 0)
(1.60139 0.0371783 0)
(0.780843 0.0302437 0)
(0.719871 0.0397954 0)
(0.688928 0.039265 0)
(0.656745 0.0384043 0)
(0.626505 0.0370293 0)
(0.597331 0.0365337 0)
(0.56859 0.0372509 0)
(0.539461 0.0388712 0)
(0.509316 0.0411389 0)
(0.477956 0.042896 0)
(0.446319 0.0430465 0)
(0.41532 0.0427968 0)
(0.384567 0.0435875 0)
(0.353367 0.0451482 0)
(0.321551 0.0468504 0)
(0.289043 0.0486332 0)
(0.255571 0.0506828 0)
(0.221006 0.0530846 0)
(0.185164 0.0558328 0)
(0.147626 0.0590551 0)
(0.107858 0.0627463 0)
(0.0658796 0.0648444 0)
(0.023052 0.0672273 0)
(3 -1.52488e-16 0)
(3 -4.39484e-16 0)
(3 -1.69106e-16 0)
(3 -2.40991e-17 0)
(3 -3.35781e-17 0)
(3 -2.57265e-16 0)
(3 -9.77687e-16 0)
(3 -1.43147e-15 0)
(3 -1.10201e-15 0)
(3 -3.65777e-16 0)
(3 1.85107e-16 0)
(3 2.95208e-16 0)
(3 2.57094e-16 0)
(3 3.73385e-16 0)
(3 8.65884e-16 0)
(3 7.64166e-16 0)
(3 4.71302e-16 0)
(3 4.59089e-16 0)
(3 2.21734e-16 0)
(3 1.85604e-16 0)
(3 -7.37693e-16 0)
(3 -1.41316e-15 0)
(3 -1.44266e-15 0)
(3 -1.43994e-15 0)
(1.65633 0.0663364 0)
(0.786194 0.0547538 0)
(0.721278 0.0671316 0)
(0.689781 0.0667019 0)
(0.656714 0.065586 0)
(0.625349 0.0633771 0)
(0.595041 0.0622571 0)
(0.565436 0.0630821 0)
(0.535729 0.0655541 0)
(0.505222 0.0692008 0)
(0.473535 0.0720703 0)
(0.441483 0.0723294 0)
(0.409951 0.0718447 0)
(0.378605 0.0729491 0)
(0.346882 0.0752832 0)
(0.314634 0.0778574 0)
(0.281826 0.0805337 0)
(0.24828 0.0835978 0)
(0.213977 0.087221 0)
(0.178801 0.0914826 0)
(0.142361 0.096664 0)
(0.10413 0.102903 0)
(0.0636781 0.106771 0)
(0.0224409 0.111313 0)
(3 1.25432e-16 0)
(3 4.04374e-17 0)
(3 -8.4545e-18 0)
(3 -4.98421e-17 0)
(3 -3.71967e-16 0)
(3 -9.04152e-16 0)
(3 -7.01926e-16 0)
(3 -6.141e-16 0)
(3 -5.23698e-16 0)
(3 -2.16533e-17 0)
(3 5.82835e-16 0)
(3 6.08564e-16 0)
(3 5.41518e-17 0)
(3 7.02609e-16 0)
(3 1.45674e-15 0)
(3 1.03178e-15 0)
(3 3.12503e-16 0)
(3 -4.64857e-16 0)
(3 -7.57078e-16 0)
(3 -1.58717e-15 0)
(3 -1.73678e-15 0)
(3 -1.44131e-15 0)
(3 -1.08663e-15 0)
(3 1.27443e-16 0)
(1.74083 0.0925418 0)
(0.794535 0.0801052 0)
(0.724325 0.0937523 0)
(0.693453 0.0935336 0)
(0.660663 0.0925825 0)
(0.629108 0.0899426 0)
(0.598291 0.0882998 0)
(0.568205 0.0891313 0)
(0.538227 0.0923732 0)
(0.507652 0.0973984 0)
(0.475846 0.10153 0)
(0.443416 0.102207 0)
(0.411239 0.101778 0)
(0.379068 0.103354 0)
(0.346492 0.106528 0)
(0.313397 0.110004 0)
(0.279787 0.113517 0)
(0.245566 0.11739 0)
(0.210824 0.121861 0)
(0.175527 0.127147 0)
(0.139358 0.13371 0)
(0.101944 0.142101 0)
(0.0623072 0.147658 0)
(0.022136 0.154448 0)
(3 1.25424e-16 0)
(3 6.26426e-16 0)
(3 3.50399e-16 0)
(3 5.2268e-17 0)
(3 -3.07347e-16 0)
(3 1.55423e-16 0)
(3 5.45684e-16 0)
(3 4.46347e-16 0)
(3 -1.00859e-16 0)
(3 -5.01854e-16 0)
(3 -7.36001e-17 0)
(3 3.88138e-16 0)
(3 9.15629e-16 0)
(3 8.62031e-16 0)
(3 8.6845e-16 0)
(3 -1.49615e-16 0)
(3 -4.61761e-16 0)
(3 -1.84192e-15 0)
(3 -2.0353e-15 0)
(3 -1.86898e-15 0)
(3 -1.19665e-15 0)
(3 -6.58092e-16 0)
(3 -1.61798e-16 0)
(3 -8.17159e-16 0)
(1.85614 0.11693 0)
(0.806056 0.107007 0)
(0.726673 0.12008 0)
(0.696184 0.120146 0)
(0.663581 0.119778 0)
(0.631876 0.117159 0)
(0.600657 0.115059 0)
(0.570239 0.115588 0)
(0.5403 0.119243 0)
(0.510202 0.125466 0)
(0.478936 0.130957 0)
(0.446701 0.132369 0)
(0.41435 0.132278 0)
(0.381708 0.134455 0)
(0.348474 0.138525 0)
(0.314564 0.142945 0)
(0.280043 0.147291 0)
(0.244909 0.151872 0)
(0.209379 0.156971 0)
(0.173539 0.162986 0)
(0.137173 0.170489 0)
(0.100224 0.180747 0)
(0.0611051 0.18794 0)
(0.0219026 0.197008 0)
(3 -8.33377e-17 0)
(3 2.97315e-17 0)
(3 3.26311e-16 0)
(3 1.91429e-16 0)
(3 -1.29001e-16 0)
(3 2.01622e-16 0)
(3 7.06135e-16 0)
(3 1.13272e-15 0)
(3 9.55976e-16 0)
(3 2.95058e-16 0)
(3 3.83611e-17 0)
(3 -6.79212e-17 0)
(3 -1.99849e-16 0)
(3 -6.42471e-16 0)
(3 -9.85065e-16 0)
(3 -1.15534e-15 0)
(3 -1.32915e-15 0)
(3 -1.59757e-15 0)
(3 -1.50724e-15 0)
(3 -1.02454e-15 0)
(3 -1.73138e-16 0)
(3 6.3002e-16 0)
(3 1.72911e-15 0)
(3 1.24436e-16 0)
(2.00505 0.137855 0)
(0.823093 0.136265 0)
(0.729977 0.145824 0)
(0.700016 0.146278 0)
(0.667848 0.146667 0)
(0.636477 0.144453 0)
(0.605305 0.142091 0)
(0.574845 0.142094 0)
(0.545156 0.145705 0)
(0.515859 0.152791 0)
(0.485582 0.159693 0)
(0.453909 0.162247 0)
(0.421673 0.16292 0)
(0.388809 0.166027 0)
(0.355069 0.171283 0)
(0.32036 0.176935 0)
(0.284806 0.182351 0)
(0.248473 0.187742 0)
(0.211683 0.193383 0)
(0.174668 0.199897 0)
(0.137297 0.207817 0)
(0.0999985 0.219475 0)
(0.060678 0.228033 0)
(0.0218872 0.239181 0)
(3 -1.0272e-17 0)
(3 -2.77578e-16 0)
(3 -1.60453e-16 0)
(3 3.38361e-17 0)
(3 8.48251e-17 0)
(3 -2.28839e-16 0)
(3 -2.34075e-16 0)
(3 -1.34198e-16 0)
(3 3.82177e-16 0)
(3 9.28485e-16 0)
(3 1.36355e-15 0)
(3 6.55698e-16 0)
(3 -6.78201e-16 0)
(3 -7.10516e-16 0)
(3 -6.44393e-16 0)
(3 -9.40851e-16 0)
(3 -1.4506e-15 0)
(3 -1.14639e-15 0)
(3 -7.93895e-16 0)
(3 -3.13521e-16 0)
(3 5.47001e-16 0)
(3 9.56057e-16 0)
(3 1.35907e-15 0)
(3 8.20972e-16 0)
(2.1865 0.154065 0)
(0.846529 0.168949 0)
(0.73256 0.171282 0)
(0.702722 0.172331 0)
(0.670615 0.173198 0)
(0.639661 0.17167 0)
(0.608653 0.169371 0)
(0.57814 0.168813 0)
(0.548515 0.171925 0)
(0.519921 0.179456 0)
(0.490891 0.187764 0)
(0.460215 0.191808 0)
(0.42869 0.193544 0)
(0.396443 0.197764 0)
(0.363209 0.204368 0)
(0.328772 0.211459 0)
(0.29319 0.218199 0)
(0.256428 0.224663 0)
(0.218739 0.231053 0)
(0.180446 0.238238 0)
(0.141459 0.246449 0)
(0.102817 0.259272 0)
(0.0621205 0.268971 0)
(0.0225141 0.281959 0)
(3 2.65364e-17 0)
(3 -5.28434e-17 0)
(3 -2.81944e-16 0)
(3 -2.0435e-16 0)
(3 -8.31277e-18 0)
(3 -1.56315e-16 0)
(3 -6.88287e-16 0)
(3 -7.54582e-16 0)
(3 -3.8912e-16 0)
(3 -1.54577e-17 0)
(3 5.91994e-16 0)
(3 3.98808e-16 0)
(3 -1.1764e-15 0)
(3 -1.15825e-15 0)
(3 -2.79305e-16 0)
(3 -8.04023e-17 0)
(3 -8.48263e-17 0)
(3 -9.25586e-17 0)
(3 -5.1969e-17 0)
(3 2.70701e-16 0)
(3 4.40322e-16 0)
(3 2.88948e-16 0)
(3 -1.39787e-16 0)
(3 3.80329e-16 0)
(2.39695 0.166135 0)
(0.879911 0.206755 0)
(0.738833 0.198175 0)
(0.710711 0.199488 0)
(0.678065 0.200634 0)
(0.647136 0.199881 0)
(0.615643 0.197962 0)
(0.584217 0.196931 0)
(0.553503 0.199052 0)
(0.52425 0.20624 0)
(0.495482 0.21552 0)
(0.465275 0.221056 0)
(0.434301 0.223826 0)
(0.402998 0.229068 0)
(0.370998 0.237033 0)
(0.337715 0.245763 0)
(0.302886 0.254281 0)
(0.266195 0.262475 0)
(0.227737 0.270282 0)
(0.188015 0.278711 0)
(0.147031 0.287368 0)
(0.10653 0.301193 0)
(0.0640248 0.311773 0)
(0.0231296 0.32624 0)
(3 8.37117e-17 0)
(3 1.70002e-16 0)
(3 6.62337e-17 0)
(3 -5.70904e-16 0)
(3 -6.79862e-16 0)
(3 -1.32458e-16 0)
(3 -2.86476e-16 0)
(3 1.55598e-17 0)
(3 1.57524e-16 0)
(3 1.36464e-16 0)
(3 -2.72534e-16 0)
(3 -5.65419e-16 0)
(3 -7.56753e-16 0)
(3 -8.35602e-16 0)
(3 -9.50701e-16 0)
(3 -3.44044e-16 0)
(3 4.94899e-16 0)
(3 5.13725e-16 0)
(3 2.22275e-16 0)
(3 -3.85919e-16 0)
(3 -5.92413e-16 0)
(3 -2.29884e-16 0)
(3 -3.40932e-16 0)
(3 -9.26296e-17 0)
(2.63668 0.16645 0)
(0.939054 0.242777 0)
(0.760701 0.219946 0)
(0.734992 0.225602 0)
(0.70121 0.22736 0)
(0.669146 0.22798 0)
(0.635599 0.227285 0)
(0.601686 0.22663 0)
(0.568263 0.228046 0)
(0.536507 0.234471 0)
(0.506226 0.244151 0)
(0.47512 0.250838 0)
(0.443487 0.254202 0)
(0.412122 0.259914 0)
(0.380713 0.268916 0)
(0.34834 0.279329 0)
(0.314422 0.290037 0)
(0.278312 0.300648 0)
(0.239707 0.310624 0)
(0.199068 0.321039 0)
(0.156152 0.330679 0)
(0.113278 0.345691 0)
(0.0679949 0.357159 0)
(0.0245065 0.372884 0)
(3 -1.21601e-16 0)
(3 -1.62813e-16 0)
(3 -4.38608e-16 0)
(3 -5.75204e-16 0)
(3 -5.42246e-16 0)
(3 -7.01068e-16 0)
(3 -7.44116e-16 0)
(3 -4.88269e-16 0)
(3 -3.04063e-16 0)
(3 -4.50467e-16 0)
(3 -7.29075e-16 0)
(3 -5.07954e-16 0)
(3 3.87361e-16 0)
(3 3.91844e-16 0)
(3 -2.56987e-17 0)
(3 3.20413e-16 0)
(3 4.65059e-16 0)
(3 4.55453e-16 0)
(3 -2.33001e-16 0)
(3 -4.44404e-16 0)
(3 -7.6984e-16 0)
(3 -6.09173e-16 0)
(3 -3.57962e-16 0)
(3 9.24067e-17 0)
(2.87452 0.115789 0)
(1.02024 0.26651 0)
(0.789403 0.231914 0)
(0.770216 0.245826 0)
(0.735292 0.252616 0)
(0.702183 0.256576 0)
(0.666809 0.25796 0)
(0.630727 0.258146 0)
(0.594471 0.259153 0)
(0.559384 0.264636 0)
(0.526235 0.2744 0)
(0.492918 0.282142 0)
(0.459215 0.285931 0)
(0.42622 0.29159 0)
(0.393956 0.301103 0)
(0.361365 0.312891 0)
(0.327574 0.325844 0)
(0.291561 0.339461 0)
(0.252379 0.352587 0)
(0.210468 0.366061 0)
(0.165394 0.377601 0)
(0.119804 0.39409 0)
(0.0717422 0.406391 0)
(0.0255316 0.422956 0)
(3 -2.62051e-17 0)
(3 -9.38403e-17 0)
(3 -1.90081e-16 0)
(3 2.19479e-17 0)
(3 -9.41057e-17 0)
(3 -8.47187e-16 0)
(3 -1.34179e-15 0)
(3 -1.16572e-15 0)
(3 -2.40037e-16 0)
(3 -1.30713e-16 0)
(3 -5.37626e-16 0)
(3 -4.14071e-16 0)
(3 -3.52097e-16 0)
(3 1.44853e-16 0)
(3 5.35024e-16 0)
(3 7.96938e-16 0)
(3 1.15818e-16 0)
(3 -3.95216e-16 0)
(3 -1.0287e-15 0)
(3 -9.60596e-16 0)
(3 -6.90136e-16 0)
(3 -7.96994e-16 0)
(3 -7.88888e-17 0)
(3 1.83859e-16 0)
(2.99797 0.0237032 0)
(1.10414 0.276178 0)
(0.798503 0.246147 0)
(0.789698 0.268677 0)
(0.761795 0.279119 0)
(0.732898 0.284676 0)
(0.699809 0.287791 0)
(0.664149 0.29025 0)
(0.626969 0.292447 0)
(0.58989 0.297516 0)
(0.554322 0.30709 0)
(0.518748 0.315773 0)
(0.482499 0.320082 0)
(0.446898 0.325332 0)
(0.412544 0.33477 0)
(0.378595 0.34742 0)
(0.344107 0.362308 0)
(0.308136 0.379013 0)
(0.269128 0.395626 0)
(0.227174 0.412615 0)
(0.180774 0.426924 0)
(0.132392 0.445991 0)
(0.0797869 0.460087 0)
(0.0284877 0.477946 0)
(3 2.31711e-17 0)
(3 2.64567e-16 0)
(3 7.39641e-16 0)
(3 7.89147e-16 0)
(3 -5.89492e-17 0)
(3 -1.41985e-16 0)
(3 -2.64768e-16 0)
(3 -9.01714e-16 0)
(3 -7.18719e-16 0)
(3 -5.17321e-16 0)
(3 -3.46383e-16 0)
(3 -4.57453e-16 0)
(3 -3.27475e-16 0)
(3 -4.09951e-16 0)
(3 -1.89532e-16 0)
(3 -3.29737e-16 0)
(3 -7.49903e-16 0)
(3 -6.63928e-16 0)
(3 -5.01938e-16 0)
(3 -1.40055e-15 0)
(3 -1.20676e-15 0)
(3 -4.93748e-16 0)
(3 -1.78805e-16 0)
(3 -1.10672e-16 0)
(3.0039 0.00160609 0)
(1.20477 0.283717 0)
(0.79501 0.25716 0)
(0.783948 0.287965 0)
(0.760238 0.304861 0)
(0.737013 0.313453 0)
(0.712329 0.318334 0)
(0.685229 0.321709 0)
(0.654145 0.325066 0)
(0.620213 0.330913 0)
(0.585713 0.341256 0)
(0.550103 0.3515 0)
(0.512511 0.357079 0)
(0.474435 0.362162 0)
(0.43734 0.371219 0)
(0.401191 0.384116 0)
(0.365203 0.400211 0)
(0.328692 0.41954 0)
(0.289179 0.44004 0)
(0.245764 0.462164 0)
(0.196233 0.481543 0)
(0.144262 0.504938 0)
(0.087098 0.522034 0)
(0.0297382 0.540374 0)
(3 -4.73215e-17 0)
(3 -2.32012e-16 0)
(3 -2.37359e-16 0)
(3 1.27633e-16 0)
(3 1.08939e-16 0)
(3 1.47072e-16 0)
(3 4.59659e-16 0)
(3 2.59607e-16 0)
(3 -4.90151e-16 0)
(3 -3.90287e-16 0)
(3 -6.05585e-17 0)
(3 -5.14438e-17 0)
(3 7.30891e-17 0)
(3 3.12455e-16 0)
(3 -1.66968e-16 0)
(3 -9.96188e-16 0)
(3 -1.0089e-15 0)
(3 -7.57578e-16 0)
(3 -4.72093e-16 0)
(3 -7.95915e-16 0)
(3 -1.08904e-15 0)
(3 -7.2566e-16 0)
(3 -7.44701e-16 0)
(3 -6.93176e-16 0)
(3.00006 1.90778e-06 0)
(1.37038 0.310896 0)
(0.796715 0.274055 0)
(0.762469 0.300486 0)
(0.741647 0.318621 0)
(0.722458 0.330287 0)
(0.704011 0.338728 0)
(0.685612 0.346486 0)
(0.665154 0.353047 0)
(0.641014 0.360526 0)
(0.613521 0.372433 0)
(0.582208 0.385686 0)
(0.546414 0.394686 0)
(0.507834 0.401207 0)
(0.468884 0.410403 0)
(0.430449 0.423215 0)
(0.392414 0.440074 0)
(0.354788 0.461812 0)
(0.314935 0.486559 0)
(0.2721 0.514423 0)
(0.222955 0.538922 0)
(0.169897 0.567575 0)
(0.105841 0.591518 0)
(0.0381924 0.613883 0)
(3 -1.00971e-16 0)
(3 -3.79765e-16 0)
(3 -7.78443e-16 0)
(3 -1.15909e-15 0)
(3 -6.94989e-16 0)
(3 -2.83916e-16 0)
(3 -9.89202e-17 0)
(3 1.03014e-15 0)
(3 9.12499e-16 0)
(3 8.59895e-16 0)
(3 -1.8157e-16 0)
(3 1.52242e-16 0)
(3 5.26579e-16 0)
(3 2.56751e-16 0)
(3 -7.66992e-17 0)
(3 -3.00681e-16 0)
(3 -2.98753e-16 0)
(3 -3.61021e-16 0)
(3 -1.95256e-16 0)
(3 6.44344e-16 0)
(3 4.54955e-16 0)
(3 5.24944e-16 0)
(3 7.09469e-16 0)
(3 3.33298e-16 0)
(3 -3.05539e-09 0)
(1.63806 0.34636 0)
(0.815246 0.321496 0)
(0.740202 0.319754 0)
(0.722158 0.331617 0)
(0.705588 0.340163 0)
(0.690713 0.348576 0)
(0.676263 0.35848 0)
(0.661204 0.370237 0)
(0.643597 0.382984 0)
(0.624975 0.399221 0)
(0.602705 0.416877 0)
(0.574212 0.431102 0)
(0.540026 0.441213 0)
(0.50289 0.451994 0)
(0.463979 0.465489 0)
(0.425298 0.482772 0)
(0.387421 0.50616 0)
(0.347828 0.534035 0)
(0.306137 0.567741 0)
(0.254379 0.602014 0)
(0.193852 0.642964 0)
(0.122131 0.682536 0)
(0.0385218 0.709387 0)
(3 -6.01022e-17 0)
(3 -1.33197e-16 0)
(3 3.79537e-17 0)
(3 -3.77537e-16 0)
(3 -1.14967e-15 0)
(3 -1.36385e-15 0)
(3 -1.14032e-15 0)
(3 -4.69542e-16 0)
(3 3.32874e-17 0)
(3 -6.09276e-16 0)
(3 -3.43113e-16 0)
(3 -7.37296e-16 0)
(3 -9.94807e-16 0)
(3 -9.89344e-16 0)
(3 -6.85481e-16 0)
(3 -2.88324e-16 0)
(3 1.84439e-16 0)
(3 3.23581e-16 0)
(3 1.31478e-15 0)
(3 2.07276e-15 0)
(3 1.72074e-15 0)
(3 1.2416e-15 0)
(3 8.60542e-16 0)
(3 5.40511e-16 0)
(3 -3.16891e-09 0)
(2.02696 0.377563 0)
(0.860552 0.391002 0)
(0.750301 0.359016 0)
(0.726481 0.353249 0)
(0.707296 0.35745 0)
(0.690752 0.365453 0)
(0.674645 0.374587 0)
(0.659217 0.385764 0)
(0.643515 0.399394 0)
(0.627965 0.417431 0)
(0.613478 0.439479 0)
(0.594182 0.460196 0)
(0.568 0.476726 0)
(0.536543 0.491631 0)
(0.501058 0.508082 0)
(0.463949 0.526505 0)
(0.426737 0.551531 0)
(0.387839 0.583186 0)
(0.347645 0.625361 0)
(0.300638 0.673413 0)
(0.245626 0.725339 0)
(0.177346 0.779493 0)
(0.0691751 0.827794 0)
(3 1.42602e-16 0)
(3 2.75311e-16 0)
(3 -8.17044e-17 0)
(3 -2.15116e-16 0)
(3 -5.50119e-16 0)
(3 -7.72418e-16 0)
(3 -7.53556e-16 0)
(3 -1.02719e-15 0)
(3 -1.15698e-15 0)
(3 -1.03872e-15 0)
(3 -9.02106e-16 0)
(3 -1.37798e-15 0)
(3 -2.28027e-15 0)
(3 -2.13018e-15 0)
(3 -2.26651e-15 0)
(3 -1.18134e-15 0)
(3 6.53984e-18 0)
(3 2.34586e-16 0)
(3 2.92943e-16 0)
(3 6.17035e-16 0)
(3 1.38804e-15 0)
(3 1.22948e-15 0)
(3 1.09826e-15 0)
(3 8.74266e-16 0)
(3 -6.50706e-10 0)
(2.589 0.327862 0)
(0.965905 0.445931 0)
(0.819644 0.376427 0)
(0.783796 0.367172 0)
(0.747042 0.376502 0)
(0.716322 0.384678 0)
(0.69076 0.394057 0)
(0.66913 0.404966 0)
(0.65033 0.417775 0)
(0.633951 0.434638 0)
(0.620741 0.457168 0)
(0.607873 0.482196 0)
(0.590426 0.505494 0)
(0.566274 0.526889 0)
(0.53815 0.548455 0)
(0.505556 0.570241 0)
(0.471567 0.598082 0)
(0.436413 0.633376 0)
(0.402997 0.680376 0)
(0.365813 0.736817 0)
(0.313401 0.814068 0)
(0.218256 0.925047 0)
(0.119435 1.05157 0)
(3 5.53397e-17 0)
(3 -1.35761e-16 0)
(3 -3.18252e-16 0)
(3 2.62789e-16 0)
(3 5.60936e-16 0)
(3 5.74401e-16 0)
(3 5.07661e-16 0)
(3 -4.69727e-16 0)
(3 -1.45305e-15 0)
(3 -1.63858e-15 0)
(3 -1.76192e-15 0)
(3 -1.5978e-15 0)
(3 -1.99187e-15 0)
(3 -2.45574e-15 0)
(3 -2.03322e-15 0)
(3 -6.77887e-16 0)
(3 -4.65889e-16 0)
(3 3.87413e-16 0)
(3 7.06147e-16 0)
(3 7.47423e-16 0)
(3 8.662e-16 0)
(3 9.44623e-16 0)
(3 9.87569e-16 0)
(3 6.65399e-16 0)
(3 -6.3584e-11 0)
(3.05212 0.0634906 0)
(1.17093 0.425991 0)
(0.880604 0.406441 0)
(0.850878 0.408527 0)
(0.807076 0.412081 0)
(0.763123 0.416146 0)
(0.725743 0.420875 0)
(0.694914 0.428005 0)
(0.669785 0.438336 0)
(0.649138 0.452865 0)
(0.633836 0.473854 0)
(0.622312 0.499882 0)
(0.609538 0.527772 0)
(0.593856 0.555411 0)
(0.574033 0.583229 0)
(0.54897 0.610652 0)
(0.521748 0.642447 0)
(0.492996 0.680246 0)
(0.466921 0.731755 0)
(0.438015 0.80668 0)
(0.41 0.929404 0)
(0.395855 1.08473 0)
(0.505228 1.33967 0)
(3 -8.60676e-17 0)
(3 -1.57361e-17 0)
(3 2.71483e-16 0)
(3 6.84323e-16 0)
(3 1.09546e-15 0)
(3 9.6228e-16 0)
(3 5.9921e-16 0)
(3 -3.78993e-16 0)
(3 -8.73414e-16 0)
(3 -9.91739e-16 0)
(3 -1.24712e-15 0)
(3 -1.75615e-15 0)
(3 -1.68832e-15 0)
(3 -1.40832e-15 0)
(3 -6.34299e-16 0)
(3 2.72557e-16 0)
(3 2.5985e-16 0)
(3 9.44989e-16 0)
(3 1.33684e-15 0)
(3 6.06374e-16 0)
(3 3.36859e-16 0)
(3 -4.58256e-16 0)
(3 -8.17933e-16 0)
(3 -1.0718e-15 0)
(3 -2.3283e-12 0)
(3.01409 0.00115648 0)
(1.31998 0.403348 0)
(0.874063 0.441473 0)
(0.848852 0.454855 0)
(0.820973 0.455173 0)
(0.792791 0.454506 0)
(0.761047 0.455758 0)
(0.728833 0.458725 0)
(0.699427 0.465154 0)
(0.673741 0.474959 0)
(0.654384 0.49223 0)
(0.640592 0.516723 0)
(0.63033 0.546165 0)
(0.619943 0.577962 0)
(0.608231 0.611367 0)
(0.592526 0.645166 0)
(0.574737 0.681968 0)
(0.555395 0.723733 0)
(0.538877 0.780476 0)
(0.532452 0.867514 0)
(0.539242 0.997068 0)
(0.616102 1.14627 0)
(0.910865 1.33284 0)
(3 3.75027e-17 0)
(3 2.51373e-16 0)
(3 1.63776e-16 0)
(3 1.74509e-16 0)
(3 -1.07334e-16 0)
(3 -5.47701e-16 0)
(3 -5.2754e-16 0)
(3 -3.05175e-16 0)
(3 -3.74902e-16 0)
(3 -6.70795e-16 0)
(3 -9.3321e-16 0)
(3 -8.87106e-16 0)
(3 -2.98054e-16 0)
(3 -2.0673e-16 0)
(3 -1.09118e-16 0)
(3 3.46584e-16 0)
(3 -1.12852e-17 0)
(3 -2.04835e-16 0)
(3 -4.40884e-16 0)
(3 -1.45753e-16 0)
(3 1.55235e-16 0)
(3 -3.69813e-16 0)
(3 -4.84893e-16 0)
(3 -6.90176e-16 0)
(3 -3.44191e-14 0)
(3.00015 -4.19686e-06 0)
(1.60224 0.423057 0)
(0.852962 0.452102 0)
(0.829353 0.462867 0)
(0.814675 0.470341 0)
(0.800215 0.477475 0)
(0.781095 0.48402 0)
(0.757073 0.489247 0)
(0.731232 0.4956 0)
(0.70493 0.502138 0)
(0.682119 0.514681 0)
(0.665209 0.535448 0)
(0.654536 0.563292 0)
(0.646992 0.596251 0)
(0.641287 0.633162 0)
(0.634924 0.672407 0)
(0.627824 0.71442 0)
(0.621022 0.760974 0)
(0.61748 0.819557 0)
(0.633004 0.905192 0)
(0.675148 1.02158 0)
(0.814965 1.15494 0)
(1.1492 1.27445 0)
(3 -3.98591e-17 0)
(3 -2.95933e-16 0)
(3 -2.09248e-16 0)
(3 -3.17896e-16 0)
(3 -9.16946e-16 0)
(3 -1.24488e-15 0)
(3 -1.25064e-15 0)
(3 -6.1617e-16 0)
(3 -4.8679e-16 0)
(3 -7.0804e-16 0)
(3 -9.53588e-16 0)
(3 -8.71872e-16 0)
(3 -4.86674e-16 0)
(3 -4.66908e-16 0)
(3 -9.94577e-16 0)
(3 -9.44293e-16 0)
(3 -1.14976e-15 0)
(3 -1.5353e-15 0)
(3 -1.48467e-15 0)
(3 -2.93386e-16 0)
(3 5.06478e-16 0)
(3 8.03634e-16 0)
(3 1.50963e-16 0)
(3 1.37807e-16 0)
(3 8.24496e-16 0)
(3.00001 -4.70762e-06 0)
(2.11771 0.44785 0)
(0.909648 0.50053 0)
(0.830619 0.473124 0)
(0.822343 0.483272 0)
(0.809326 0.493525 0)
(0.795607 0.503789 0)
(0.7786 0.512944 0)
(0.759579 0.522527 0)
(0.737646 0.530392 0)
(0.715329 0.540131 0)
(0.696808 0.556675 0)
(0.683842 0.581017 0)
(0.677207 0.612372 0)
(0.674887 0.649787 0)
(0.67584 0.692104 0)
(0.679019 0.738385 0)
(0.685496 0.788885 0)
(0.697896 0.847152 0)
(0.728662 0.924853 0)
(0.800638 1.02539 0)
(0.964964 1.13226 0)
(1.24065 1.20508 0)
(3 1.58883e-18 0)
(3 -4.62027e-17 0)
(3 -1.71849e-16 0)
(3 -2.27528e-16 0)
(3 -1.69236e-16 0)
(3 5.91844e-17 0)
(3 1.21235e-16 0)
(3 3.13573e-16 0)
(3 3.59485e-16 0)
(3 5.72511e-16 0)
(3 6.26829e-16 0)
(3 -2.5226e-16 0)
(3 -8.28439e-16 0)
(3 -1.2751e-15 0)
(3 -9.19828e-16 0)
(3 -1.72102e-15 0)
(3 -1.49217e-15 0)
(3 -1.13685e-15 0)
(3 -6.98543e-16 0)
(3 -4.9522e-16 0)
(3 8.79808e-17 0)
(3 6.41875e-16 0)
(3 6.47147e-16 0)
(3 7.51996e-16 0)
(3 1.51836e-15 0)
(3 -1.00185e-06 0)
(2.82196 0.264716 0)
(1.07764 0.544351 0)
(0.888772 0.482701 0)
(0.860745 0.493692 0)
(0.835238 0.508555 0)
(0.816328 0.520828 0)
(0.799932 0.532213 0)
(0.785054 0.544564 0)
(0.768553 0.556029 0)
(0.749932 0.56642 0)
(0.73275 0.580658 0)
(0.718365 0.601093 0)
(0.711324 0.629166 0)
(0.710492 0.66427 0)
(0.715923 0.706056 0)
(0.727356 0.753745 0)
(0.745152 0.80657 0)
(0.772908 0.864608 0)
(0.8171 0.934035 0)
(0.906546 1.01637 0)
(1.06718 1.09434 0)
(1.29876 1.14202 0)
(3 1.13734e-16 0)
(3 6.14095e-16 0)
(3 5.74925e-16 0)
(3 6.39276e-16 0)
(3 1.55847e-15 0)
(3 1.75248e-15 0)
(3 1.44634e-15 0)
(3 8.36028e-16 0)
(3 8.33477e-16 0)
(3 7.94315e-16 0)
(3 1.00528e-15 0)
(3 1.03498e-15 0)
(3 8.08133e-16 0)
(3 5.2085e-16 0)
(3 -5.31402e-16 0)
(3 -1.41433e-15 0)
(3 -9.54422e-16 0)
(3 -7.42544e-16 0)
(3 1.43086e-16 0)
(3 2.03873e-16 0)
(3 -3.52503e-16 0)
(3 -7.58155e-16 0)
(3 -2.58125e-16 0)
(3 4.75074e-16 0)
(3 8.88263e-16 0)
(3 -9.67231e-08 0)
(3.06403 0.0197837 0)
(1.33144 0.514957 0)
(0.933617 0.525108 0)
(0.898128 0.534518 0)
(0.869087 0.535202 0)
(0.843656 0.540847 0)
(0.824829 0.550148 0)
(0.810516 0.562591 0)
(0.79797 0.576705 0)
(0.783739 0.589527 0)
(0.769905 0.604219 0)
(0.75699 0.62224 0)
(0.749548 0.646679 0)
(0.749095 0.678168 0)
(0.756601 0.716725 0)
(0.772955 0.762076 0)
(0.798697 0.813594 0)
(0.837661 0.86987 0)
(0.89395 0.933677 0)
(0.990805 0.999373 0)
(1.13786 1.05366 0)
(1.32307 1.08397 0)
(3 -1.52503e-17 0)
(3 -1.00395e-16 0)
(3 2.07044e-16 0)
(3 3.74737e-16 0)
(3 5.51221e-16 0)
(3 4.61511e-16 0)
(3 5.98684e-16 0)
(3 2.97999e-16 0)
(3 2.35359e-16 0)
(3 -1.41334e-16 0)
(3 -8.17374e-17 0)
(3 6.62619e-16 0)
(3 8.5029e-16 0)
(3 4.4229e-16 0)
(3 -1.02334e-15 0)
(3 -1.06144e-15 0)
(3 -4.33283e-16 0)
(3 -3.2917e-16 0)
(3 -2.90986e-16 0)
(3 -6.19136e-17 0)
(3 1.65569e-16 0)
(3 -2.5283e-17 0)
(3 -1.85333e-16 0)
(3 -2.43475e-16 0)
(3 2.15691e-16 0)
(3 -3.63329e-09 0)
(3.00322 1.1464e-06 0)
(1.6228 0.505675 0)
(0.918837 0.575932 0)
(0.889794 0.559636 0)
(0.877275 0.562944 0)
(0.861562 0.566933 0)
(0.846314 0.572496 0)
(0.833069 0.582231 0)
(0.823591 0.596137 0)
(0.813877 0.610554 0)
(0.804572 0.626392 0)
(0.795835 0.644055 0)
(0.789988 0.665604 0)
(0.790171 0.693156 0)
(0.798661 0.727308 0)
(0.817383 0.76802 0)
(0.847424 0.815065 0)
(0.892846 0.866773 0)
(0.95747 0.924541 0)
(1.05596 0.979302 0)
(1.18867 1.01939 0)
(1.34218 1.03905 0)
(3 -1.31557e-16 0)
(3 -4.63874e-16 0)
(3 -8.80447e-16 0)
(3 -9.22337e-16 0)
(3 -9.28576e-16 0)
(3 -1.64515e-16 0)
(3 2.37074e-16 0)
(3 3.16329e-16 0)
(3 -1.4734e-17 0)
(3 -6.42341e-16 0)
(3 -6.36741e-16 0)
(3 -2.62307e-16 0)
(3 3.78045e-17 0)
(3 3.90748e-16 0)
(3 8.22326e-16 0)
(3 7.58336e-16 0)
(3 5.98666e-16 0)
(3 7.05671e-16 0)
(3 3.08895e-16 0)
(3 2.72648e-16 0)
(3 4.34372e-16 0)
(3 5.34993e-16 0)
(3 6.63186e-16 0)
(3 -8.11236e-18 0)
(3 -7.88765e-17 0)
(3 -5.39436e-11 0)
(3.00001 -4.85908e-07 0)
(2.29448 0.478619 0)
(0.990441 0.605374 0)
(0.91448 0.56028 0)
(0.906922 0.56948 0)
(0.891779 0.581639 0)
(0.875922 0.59014 0)
(0.861457 0.599002 0)
(0.851718 0.612243 0)
(0.844132 0.627516 0)
(0.838059 0.644377 0)
(0.833568 0.6629 0)
(0.831004 0.683397 0)
(0.832898 0.707755 0)
(0.842095 0.737411 0)
(0.861605 0.772666 0)
(0.892825 0.813428 0)
(0.939985 0.858207 0)
(1.00663 0.906668 0)
(1.10224 0.954357 0)
(1.22038 0.986091 0)
(1.35326 0.998631 0)
(3 1.47264e-16 0)
(3 1.44193e-16 0)
(3 -1.70286e-17 0)
(3 -2.82918e-16 0)
(3 8.96792e-17 0)
(3 7.91619e-16 0)
(3 6.26259e-16 0)
(3 4.52971e-16 0)
(3 -4.09917e-17 0)
(3 -2.97201e-16 0)
(3 -7.16956e-16 0)
(3 -2.32341e-16 0)
(3 -7.31002e-17 0)
(3 1.49058e-15 0)
(3 2.77669e-15 0)
(3 2.81911e-15 0)
(3 2.13427e-15 0)
(3 8.42947e-16 0)
(3 9.57846e-16 0)
(3 1.19175e-15 0)
(3 5.7901e-16 0)
(3 -2.83383e-16 0)
(3 -5.19001e-16 0)
(3 -1.59121e-16 0)
(3 2.36457e-16 0)
(3 -6.46423e-14 0)
(3 -6.00045e-07 0)
(3.05088 0.12282 0)
(1.23791 0.587543 0)
(0.969005 0.57555 0)
(0.949989 0.593588 0)
(0.930418 0.603169 0)
(0.910948 0.610183 0)
(0.89469 0.617602 0)
(0.882603 0.629143 0)
(0.874911 0.643888 0)
(0.870248 0.660669 0)
(0.86878 0.679485 0)
(0.869994 0.699909 0)
(0.874937 0.722508 0)
(0.885668 0.748478 0)
(0.905611 0.77889 0)
(0.937055 0.81345 0)
(0.983939 0.851031 0)
(1.04883 0.88988 0)
(1.13805 0.930222 0)
(1.24354 0.956555 0)
(1.36319 0.966787 0)
(3 4.55389e-17 0)
(3 2.32741e-17 0)
(3 1.44065e-16 0)
(3 5.4782e-17 0)
(3 2.28515e-16 0)
(3 -2.60928e-17 0)
(3 -1.10887e-16 0)
(3 -1.00837e-16 0)
(3 -4.57541e-17 0)
(3 5.00298e-16 0)
(3 1.03217e-15 0)
(3 6.90726e-16 0)
(3 5.83e-16 0)
(3 1.00623e-15 0)
(3 1.28212e-15 0)
(3 1.75339e-15 0)
(3 1.4803e-15 0)
(3 1.11888e-15 0)
(3 8.2801e-16 0)
(3 -6.48285e-17 0)
(3 -6.54145e-16 0)
(3 -4.99109e-16 0)
(3 -2.7504e-16 0)
(3 -2.74227e-16 0)
(3 5.29409e-16 0)
(3 -2.75594e-16 0)
(3 -1.26995e-07 0)
(3.02658 0.00190645 0)
(1.46737 0.566318 0)
(0.970091 0.633983 0)
(0.949307 0.623465 0)
(0.937971 0.629951 0)
(0.928394 0.635912 0)
(0.919207 0.641122 0)
(0.910083 0.649416 0)
(0.904064 0.661516 0)
(0.901114 0.676402 0)
(0.901849 0.693839 0)
(0.906283 0.713461 0)
(0.914713 0.734852 0)
(0.928074 0.75795 0)
(0.948476 0.784015 0)
(0.97989 0.812712 0)
(1.0248 0.842963 0)
(1.08458 0.873672 0)
(1.16453 0.905372 0)
(1.25627 0.926124 0)
(1.36386 0.934835 0)
(3 -1.97586e-16 0)
(3 1.45645e-16 0)
(3 1.32565e-16 0)
(3 6.78428e-17 0)
(3 3.93896e-17 0)
(3 -8.19965e-16 0)
(3 -1.01937e-15 0)
(3 -9.97755e-16 0)
(3 3.90811e-16 0)
(3 9.63229e-16 0)
(3 1.30755e-15 0)
(3 7.53277e-16 0)
(3 2.55851e-16 0)
(3 1.33815e-15 0)
(3 1.21506e-15 0)
(3 9.23339e-16 0)
(3 4.81179e-16 0)
(3 1.77065e-15 0)
(3 1.70155e-15 0)
(3 -7.15649e-16 0)
(3 -1.17147e-15 0)
(3 -1.05517e-15 0)
(3 -1.35298e-16 0)
(3 2.33584e-16 0)
(3 1.9636e-16 0)
(3 2.0218e-16 0)
(3 -1.07009e-08 0)
(3.00038 -7.95926e-06 0)
(2.08695 0.555863 0)
(1.01902 0.666628 0)
(0.963585 0.628102 0)
(0.961233 0.634639 0)
(0.95466 0.646264 0)
(0.947178 0.655504 0)
(0.939998 0.664928 0)
(0.935039 0.676657 0)
(0.932943 0.690532 0)
(0.93454 0.706703 0)
(0.940565 0.725041 0)
(0.951392 0.745399 0)
(0.967374 0.767327 0)
(0.989277 0.790618 0)
(1.02143 0.815156 0)
(1.06426 0.839831 0)
(1.11947 0.865049 0)
(1.19129 0.888526 0)
(1.27116 0.902982 0)
(1.36789 0.91165 0)
(3 -2.51606e-17 0)
(3 1.97485e-17 0)
(3 -6.2273e-17 0)
(3 -1.23966e-16 0)
(3 -3.26427e-17 0)
(3 -3.79897e-17 0)
(3 -2.40778e-17 0)
(3 -1.23089e-16 0)
(3 3.54914e-16 0)
(3 2.88385e-16 0)
(3 -7.95293e-17 0)
(3 1.28567e-16 0)
(3 8.15719e-16 0)
(3 9.39205e-16 0)
(3 9.86781e-16 0)
(3 8.35176e-16 0)
(3 7.54878e-16 0)
(3 7.02491e-16 0)
(3 -1.69129e-16 0)
(3 -2.48918e-16 0)
(3 -1.02366e-16 0)
(3 6.73114e-17 0)
(3 1.78405e-16 0)
(3 6.99723e-16 0)
(3 5.08827e-16 0)
(3 8.59216e-16 0)
(3 -5.76696e-11 0)
(3.00003 -1.21395e-05 0)
(2.97321 0.196546 0)
(1.23848 0.651259 0)
(1.0134 0.631988 0)
(1.003 0.649627 0)
(0.991012 0.661897 0)
(0.979408 0.670603 0)
(0.971664 0.680074 0)
(0.966781 0.691603 0)
(0.965133 0.704713 0)
(0.967145 0.719134 0)
(0.973529 0.735442 0)
(0.985673 0.753484 0)
(1.00284 0.773125 0)
(1.02679 0.793983 0)
(1.05954 0.815031 0)
(1.10004 0.835245 0)
(1.1511 0.855103 0)
(1.2143 0.871516 0)
(1.28464 0.881507 0)
(1.36941 0.888969 0)
(3 8.80309e-17 0)
(3 -1.40472e-16 0)
(3 -2.32582e-16 0)
(3 -2.10994e-16 0)
(3 -2.12888e-16 0)
(3 1.88607e-16 0)
(3 5.28556e-16 0)
(3 7.94055e-16 0)
(3 3.44486e-16 0)
(3 4.51322e-16 0)
(3 5.5984e-16 0)
(3 8.54001e-16 0)
(3 7.19989e-16 0)
(3 2.36321e-16 0)
(3 1.60732e-16 0)
(3 5.1142e-16 0)
(3 2.06786e-16 0)
(3 -3.1787e-16 0)
(3 -6.71329e-16 0)
(3 3.6746e-17 0)
(3 4.58169e-16 0)
(3 9.14074e-16 0)
(3 6.57617e-16 0)
(3 5.93201e-16 0)
(3 7.58028e-16 0)
(3 1.04253e-15 0)
(3 -8.64087e-14 0)
(3 -2.63443e-06 0)
(3.04203 0.00555337 0)
(1.48692 0.620575 0)
(1.02213 0.687691 0)
(1.00836 0.67971 0)
(1.00026 0.686007 0)
(0.995832 0.692222 0)
(0.993625 0.699285 0)
(0.9925 0.708985 0)
(0.993687 0.720183 0)
(0.997763 0.732972 0)
(1.00499 0.746329 0)
(1.01741 0.76239 0)
(1.03574 0.779988 0)
(1.06111 0.798526 0)
(1.09408 0.817393 0)
(1.13314 0.8349 0)
(1.18152 0.8514 0)
(1.23778 0.863772 0)
(1.30136 0.871212 0)
(1.37539 0.876199 0)
(3 1.65134e-17 0)
(3 5.7251e-17 0)
(3 -5.78038e-17 0)
(3 1.5718e-16 0)
(3 -1.20414e-16 0)
(3 -4.64483e-17 0)
(3 1.09937e-15 0)
(3 1.47229e-15 0)
(3 9.92972e-16 0)
(3 1.14838e-15 0)
(3 1.55053e-15 0)
(3 1.69025e-15 0)
(3 1.0418e-15 0)
(3 1.1244e-15 0)
(3 1.04931e-15 0)
(3 4.87017e-16 0)
(3 -1.17414e-15 0)
(3 -1.43481e-15 0)
(3 -8.58847e-16 0)
(3 -7.71419e-16 0)
(3 -1.0287e-15 0)
(3 -1.50638e-15 0)
(3 -1.16225e-15 0)
(3 -3.21057e-16 0)
(3 4.87553e-16 0)
(3 1.08233e-15 0)
(3 2.25525e-15 0)
(3 -2.15688e-07 0)
(3.00086 -2.18089e-06 0)
(2.16877 0.579456 0)
(1.08009 0.728298 0)
(1.0231 0.685898 0)
(1.02254 0.690098 0)
(1.02111 0.699803 0)
(1.01923 0.709055 0)
(1.01967 0.719636 0)
(1.02242 0.731065 0)
(1.02793 0.743499 0)
(1.03618 0.755859 0)
(1.04846 0.768405 0)
(1.06667 0.783462 0)
(1.09198 0.799594 0)
(1.12378 0.815595 0)
(1.16151 0.83038 0)
(1.20703 0.843826 0)
(1.25855 0.853449 0)
(1.31706 0.859249 0)
(1.38189 0.862239 0)
(3 -4.17976e-17 0)
(3 -8.01789e-17 0)
(3 1.36147e-16 0)
(3 2.67522e-16 0)
(3 3.9732e-16 0)
(3 8.94985e-16 0)
(3 1.06434e-15 0)
(3 7.47582e-16 0)
(3 8.19929e-16 0)
(3 1.01293e-15 0)
(3 1.43977e-15 0)
(3 1.20155e-15 0)
(3 7.87045e-16 0)
(3 2.28532e-16 0)
(3 -1.88171e-16 0)
(3 -5.14281e-16 0)
(3 -5.29227e-16 0)
(3 -1.45425e-15 0)
(3 -1.88872e-15 0)
(3 -2.3126e-15 0)
(3 -2.24197e-15 0)
(3 -2.37077e-15 0)
(3 -1.65602e-15 0)
(3 -7.11682e-16 0)