/*--------------------------------*- C++ -*----------------------------------*\
  =========                 |
  \\      /  F ield         | OpenFOAM: The Open Source CFD Toolbox
   \\    /   O peration     | Website:  https://openfoam.org
    \\  /    A nd           | Version:  7
     \\/     M anipulation  |
\*---------------------------------------------------------------------------*/
FoamFile
{
    version     2.0;
    format      ascii;
    class       volScalarField;
    location    "4";
    object      p;
}
// * * * * * * * * * * * * * * * * * * * * * * * * * * * * * * * * * * * * * //

dimensions      [1 -1 -2 0 0 0 0];

internalField   nonuniform List<scalar> 
258048
(
1
1
1
1
1
1
1
1
1
1
1
1
1
1
1
1
1
1
1
1
1
1
1
1
1
1
1
1
1
1
1
1
1
1
1
1
1
1
1
1
1
1
1
1
1
1
1
1
1
1
1
1
1
1
1
1
1
1
1
1
1
1
1
1
1
1
1
1
1
1
1
1
1
1
1
1
1
1
1
1
1
1
1
1
1
1
1
1
1
1
1
1
1
1
1
1
1
1
4.74483
10.2029
10.3839
10.3846
10.4144
10.4572
10.503
10.5477
10.5877
10.6181
10.6357
10.6438
10.651
10.6635
10.6907
10.7435
10.8043
10.8627
10.9082
10.9332
10.9336
10.927
10.9276
10.9575
11.0212
11.0764
11.1153
11.1265
11.1157
11.1025
11.1081
11.1414
11.2036
11.2633
11.3061
11.3239
11.3213
11.3166
11.3243
11.355
11.4033
11.4464
11.4719
11.474
11.4665
11.4617
11.4689
11.4949
11.536
11.5788
11.6111
11.6268
11.6328
11.6425
11.6636
11.6952
11.7254
11.7414
11.7383
11.7293
11.7262
11.74
11.7746
11.8184
11.8517
11.8634
11.8558
11.8473
11.8516
11.874
11.9075
11.9341
11.9422
11.9334
11.9198
11.9132
11.9197
11.9401
11.9674
11.9895
12.0017
12.009
12.0172
12.0248
12.0269
12.0196
12.0066
11.9963
11.998
12.0132
12.0331
12.0484
12.0543
12.0559
1
1
1
1
1
1
1
1
1
1
1
1
1
1
1
1
1
1
1
1
1
1
1
1
1
1
1
1
1
1
1
1
1
1
1
1
1
1
1
1
1
1
1
1
1
1
1
1
1
1
1
1
1
1
1
1
1
1
1
1
1
1
1
1
1
1
1
1
1
1
1
1
1
1
1
1
1
1
1
1
1
1
1
1
1
1
1
1
1
1
1
1
1
1
1
1
1
1
4.71685
10.1854
10.3915
10.3936
10.4192
10.4553
10.4987
10.5437
10.5864
10.6207
10.642
10.6508
10.6557
10.6658
10.6913
10.7423
10.8039
10.8615
10.9048
10.9283
10.9299
10.9277
10.9333
10.9617
11.0198
11.0744
11.112
11.1249
11.1172
11.1078
11.1151
11.146
11.2035
11.2615
11.3042
11.3235
11.3232
11.3214
11.33
11.3581
11.4024
11.4436
11.4687
11.4729
11.468
11.4656
11.4743
11.5001
11.5395
11.5797
11.6098
11.6251
11.6322
11.6431
11.665
11.6966
11.7263
11.7418
11.7388
11.7302
11.7277
11.7419
11.7767
11.8196
11.8513
11.8618
11.8545
11.8472
11.8529
11.8766
11.9097
11.9344
11.9405
11.9315
11.9194
11.9146
11.9227
11.9436
11.969
11.9882
11.9992
12.0075
12.017
12.0255
12.0276
12.0197
12.0065
11.9964
11.9984
12.0137
12.0333
12.0482
12.0538
12.0554
1
1
1
1
1
1
1
1
1
1
1
1
1
1
1
1
1
1
1
1
1
1
1
1
1
1
1
1
1
1
1
1
1
1
1
1
1
1
1
1
1
1
1
1
1
1
1
1
1
1
1
1
1
1
1
1
1
1
1
1
1
1
1
1
1
1
1
1
1
1
1
1
1
1
1
1
1
1
1
1
1
1
1
1
1
1
1
1
1
1
1
1
1
1
1
1
1
1
4.66766
10.1545
10.3936
10.4054
10.4297
10.4568
10.4932
10.5365
10.5809
10.62
10.6469
10.66
10.6655
10.673
10.6953
10.742
10.802
10.8574
10.8973
10.9188
10.9229
10.9256
10.938
10.9693
11.0206
11.0695
11.1021
11.1141
11.1108
11.1089
11.1215
11.1529
11.2038
11.2556
11.2946
11.314
11.3177
11.3216
11.3345
11.3624
11.4012
11.4366
11.4582
11.4632
11.4621
11.4643
11.4772
11.5054
11.5436
11.5799
11.6057
11.6185
11.6262
11.6391
11.6632
11.6956
11.7245
11.7389
11.7354
11.7275
11.7261
11.7415
11.7773
11.8196
11.849
11.8571
11.8493
11.8429
11.8508
11.8773
11.9113
11.9336
11.9365
11.926
11.9147
11.9125
11.924
11.9474
11.9711
11.9861
11.9938
12.002
12.0134
12.0241
12.0268
12.0186
12.0048
11.9945
11.9967
12.0121
12.0318
12.0464
12.0514
12.0529
1
1
1
1
1
1
1
1
1
1
1
1
1
1
1
1
1
1
1
1
1
1
1
1
1
1
1
1
1
1
1
1
1
1
1
1
1
1
1
1
1
1
1
1
1
1
1
1
1
1
1
1
1
1
1
1
1
1
1
1
1
1
1
1
1
1
1
1
1
1
1
1
1
1
1
1
1
1
1
1
1
1
1
1
1
1
1
1
1
1
1
1
1
1
1
1
1
1
4.60089
10.1102
10.3904
10.4166
10.445
10.4645
10.491
10.5276
10.5709
10.6132
10.6473
10.6686
10.6791
10.6868
10.7035
10.7413
10.7951
10.8466
10.8835
10.9047
10.917
10.9284
10.9473
10.978
11.0212
11.063
11.0914
11.1041
11.1076
11.1143
11.1319
11.1619
11.2054
11.2504
11.2851
11.3047
11.3137
11.3234
11.3405
11.3677
11.4012
11.431
11.4491
11.4544
11.4569
11.4653
11.483
11.5128
11.5483
11.5799
11.6014
11.6123
11.6208
11.6358
11.6621
11.6952
11.7233
11.7366
11.7328
11.7253
11.7252
11.7421
11.7787
11.82
11.8468
11.8527
11.8448
11.8391
11.8496
11.8786
11.9125
11.9324
11.9324
11.921
11.9105
11.9113
11.9268
11.9519
11.9734
11.9842
11.9889
11.9965
12.0094
12.0225
12.0266
12.0183
12.0043
11.9938
11.9959
12.011
12.0307
12.045
12.0496
12.0509
1
1
1
1
1
1
1
1
1
1
1
1
1
1
1
1
1
1
1
1
1
1
1
1
1
1
1
1
1
1
1
1
1
1
1
1
1
1
1
1
1
1
1
1
1
1
1
1
1
1
1
1
1
1
1
1
1
1
1
1
1
1
1
1
1
1
1
1
1
1
1
1
1
1
1
1
1
1
1
1
1
1
1
1
1
1
1
1
1
1
1
1
1
1
1
1
1
1
4.52115
10.0522
10.3876
10.4226
10.4583
10.478
10.4937
10.5198
10.5558
10.5981
10.6402
10.6738
10.6944
10.7061
10.7172
10.7434
10.7862
10.8304
10.8647
10.8909
10.9139
10.936
10.96
10.9877
11.0206
11.0532
11.0777
11.0934
11.106
11.1219
11.144
11.1721
11.2073
11.244
11.2735
11.2929
11.3073
11.324
11.3461
11.373
11.4013
11.4249
11.4385
11.4446
11.4518
11.4661
11.4891
11.5202
11.5525
11.5787
11.5956
11.6048
11.6145
11.6323
11.6608
11.694
11.7205
11.7322
11.7284
11.7222
11.7241
11.7429
11.7795
11.819
11.8432
11.8473
11.8399
11.8357
11.8485
11.8789
11.9116
11.9292
11.9273
11.9157
11.9066
11.9102
11.9293
11.9554
11.9745
11.9817
11.9837
11.9901
12.0041
12.0192
12.0246
12.0168
12.0031
11.9928
11.9946
12.009
12.0281
12.0421
12.0466
12.048
1
1
1
1
1
1
1
1
1
1
1
1
1
1
1
1
1
1
1
1
1
1
1
1
1
1
1
1
1
1
1
1
1
1
1
1
1
1
1
1
1
1
1
1
1
1
1
1
1
1
1
1
1
1
1
1
1
1
1
1
1
1
1
1
1
1
1
1
1
1
1
1
1
1
1
1
1
1
1
1
1
1
1
1
1
1
1
1
1
1
1
1
1
1
1
1
1
1
4.43003
9.98548
10.3874
10.4261
10.4677
10.4923
10.5021
10.5152
10.5404
10.5786
10.6296
10.6762
10.7093
10.7268
10.7349
10.7469
10.7748
10.8103
10.844
10.8796
10.9149
10.9465
10.9726
10.9948
11.0171
11.0405
11.0628
11.0843
11.1071
11.1312
11.1559
11.1808
11.2076
11.2358
11.2605
11.2807
11.3013
11.3254
11.3518
11.3776
11.4006
11.4178
11.428
11.4359
11.4486
11.4691
11.4962
11.5268
11.5547
11.5757
11.5888
11.5975
11.6092
11.6299
11.6601
11.6923
11.7165
11.7264
11.7234
11.7194
11.724
11.7448
11.7804
11.8166
11.838
11.8413
11.8355
11.834
11.8484
11.8782
11.9084
11.9235
11.9209
11.911
11.9044
11.9106
11.9317
11.9574
11.9742
11.9787
11.9788
11.9844
11.9987
12.0149
12.0213
12.0147
12.0019
11.9922
11.9936
12.0067
12.0247
12.0383
12.0431
12.0448
1
1
1
1
1
1
1
1
1
1
1
1
1
1
1
1
1
1
1
1
1
1
1
1
1
1
1
1
1
1
1
1
1
1
1
1
1
1
1
1
1
1
1
1
1
1
1
1
1
1
1
1
1
1
1
1
1
1
1
1
1
1
1
1
1
1
1
1
1
1
1
1
1
1
1
1
1
1
1
1
1
1
1
1
1
1
1
1
1
1
1
1
1
1
1
1
1
1
4.3178
9.92918
10.3791
10.4251
10.4735
10.5031
10.5121
10.5151
10.5295
10.5615
10.6198
10.6779
10.7213
10.7439
10.7497
10.7487
10.7616
10.7899
10.8263
10.8731
10.9189
10.9558
10.9812
10.9976
11.0107
11.0274
11.0492
11.0779
11.11
11.1402
11.166
11.1868
11.2059
11.2262
11.2466
11.2687
11.2965
11.328
11.3574
11.3805
11.3977
11.4094
11.4175
11.4286
11.4473
11.4734
11.5027
11.5309
11.5541
11.5704
11.5813
11.5907
11.6055
11.6291
11.6595
11.6893
11.7102
11.7182
11.7173
11.7168
11.7248
11.7477
11.7808
11.812
11.8303
11.834
11.8314
11.8339
11.8499
11.877
11.9025
11.9148
11.9132
11.9068
11.9039
11.9123
11.9336
11.9573
11.9714
11.9743
11.974
11.9792
11.9933
12.0094
12.0164
12.0113
12.0002
11.9917
11.9927
12.004
12.0204
12.0334
12.0389
12.0412
1
1
1
1
1
1
1
1
1
1
1
1
1
1
1
1
1
1
1
1
1
1
1
1
1
1
1
1
1
1
1
1
1
1
1
1
1
1
1
1
1
1
1
1
1
1
1
1
1
1
1
1
1
1
1
1
1
1
1
1
1
1
1
1
1
1
1
1
1
1
1
1
1
1
1
1
1
1
1
1
1
1
1
1
1
1
1
1
1
1
1
1
1
1
1
1
1
1
4.17414
9.88369
10.3695
10.4225
10.4751
10.5066
10.5181
10.5171
10.5238
10.5518
10.6127
10.6769
10.7262
10.7516
10.7554
10.7465
10.7501
10.7747
10.816
10.8698
10.9207
10.9592
10.983
10.9947
11.0024
11.0155
11.039
11.0744
11.1134
11.1479
11.1733
11.1896
11.2013
11.2144
11.2319
11.2581
11.2945
11.3323
11.3627
11.3815
11.3922
11.3994
11.4068
11.4227
11.4481
11.4787
11.5078
11.5321
11.5502
11.5627
11.573
11.5851
11.6039
11.6297
11.6589
11.6847
11.7014
11.7081
11.7101
11.7145
11.7277
11.7519
11.7808
11.8055
11.82
11.8251
11.8276
11.8355
11.8529
11.8755
11.8944
11.9036
11.9045
11.9025
11.9041
11.9153
11.9354
11.9555
11.9665
11.9687
11.9689
11.9745
11.9881
12.0033
12.0102
12.0067
11.9979
11.9911
11.9918
12.0011
12.0154
12.0278
12.034
12.0372
1
1
1
1
1
1
1
1
1
1
1
1
1
1
1
1
1
1
1
1
1
1
1
1
1
1
1
1
1
1
1
1
1
1
1
1
1
1
1
1
1
1
1
1
1
1
1
1
1
1
1
1
1
1
1
1
1
1
1
1
1
1
1
1
1
1
1
1
1
1
1
1
1
1
1
1
1
1
1
1
1
1
1
1
1
1
1
1
1
1
1
1
1
1
1
1
1
1
4.00139
9.8396
10.3664
10.4189
10.4724
10.5047
10.5199
10.5202
10.524
10.5504
10.6085
10.6718
10.7209
10.7474
10.7525
10.7439
10.7454
10.7688
10.813
10.8675
10.9176
10.9552
10.9776
10.9874
10.9937
11.0061
11.0326
11.0732
11.1167
11.1535
11.1775
11.1893
11.194
11.2012
11.2179
11.251
11.2957
11.3379
11.3668
11.3801
11.3842
11.3878
11.3962
11.4184
11.4505
11.4837
11.511
11.5306
11.5433
11.5532
11.5649
11.5814
11.6044
11.6315
11.6578
11.6781
11.6901
11.6962
11.7021
11.7132
11.7321
11.7565
11.78
11.7974
11.808
11.815
11.8236
11.8377
11.8561
11.8734
11.8853
11.8914
11.8945
11.8976
11.905
11.9191
11.9368
11.952
11.9598
11.962
11.9639
11.9706
11.9834
11.9967
12.003
12.0009
11.9947
11.9899
11.9906
11.9979
12.01
12.0214
12.0283
12.0322
1
1
1
1
1
1
1
1
1
1
1
1
1
1
1
1
1
1
1
1
1
1
1
1
1
1
1
1
1
1
1
1
1
1
1
1
1
1
1
1
1
1
1
1
1
1
1
1
1
1
1
1
1
1
1
1
1
1
1
1
1
1
1
1
1
1
1
1
1
1
1
1
1
1
1
1
1
1
1
1
1
1
1
1
1
1
1
1
1
1
1
1
1
1
1
1
1
1
3.81081
9.79164
10.3642
10.4125
10.4656
10.4994
10.5178
10.5234
10.529
10.5543
10.606
10.6637
10.7095
10.7365
10.7452
10.7434
10.7479
10.7712
10.8139
10.8651
10.9116
10.9465
10.9675
10.9776
10.9855
10.9996
11.0298
11.0737
11.1194
11.1562
11.1778
11.185
11.1845
11.1882
11.2076
11.2485
11.2995
11.3431
11.3684
11.3756
11.3739
11.3753
11.3867
11.416
11.4536
11.4878
11.5119
11.526
11.534
11.5429
11.5576
11.5794
11.6065
11.6336
11.6555
11.6696
11.6771
11.6832
11.694
11.7126
11.7368
11.7602
11.7777
11.7882
11.7953
11.8043
11.8195
11.8397
11.8585
11.8705
11.8759
11.8794
11.884
11.8924
11.9057
11.9218
11.9368
11.9472
11.9524
11.9549
11.9587
11.9668
11.9787
11.9897
11.9948
11.9941
11.9907
11.988
11.9889
11.9947
12.0046
12.0149
12.0221
12.0264
1
1
1
1
1
1
1
1
1
1
1
1
1
1
1
1
1
1
1
1
1
1
1
1
1
1
1
1
1
1
1
1
1
1
1
1
1
1
1
1
1
1
1
1
1
1
1
1
1
1
1
1
1
1
1
1
1
1
1
1
1
1
1
1
1
1
1
1
1
1
1
1
1
1
1
1
1
1
1
1
1
1
1
1
1
1
1
1
1
1
1
1
1
1
1
1
1
1
3.60997
9.73424
10.3613
10.4056
10.4574
10.492
10.5135
10.5245
10.5346
10.5589
10.6023
10.6531
10.6965
10.7254
10.7385
10.7437
10.7534
10.7773
10.8162
10.8622
10.9039
10.9354
10.9554
10.9674
10.9783
10.9957
11.0296
11.0753
11.1206
11.1555
11.1738
11.1771
11.1741
11.1782
11.2034
11.2507
11.3041
11.3458
11.366
11.3671
11.3615
11.3631
11.3795
11.4157
11.4568
11.4901
11.51
11.5185
11.5233
11.5328
11.5518
11.5789
11.6091
11.6347
11.6515
11.6596
11.6635
11.6704
11.6867
11.7127
11.7408
11.762
11.7733
11.7781
11.783
11.7945
11.8156
11.8405
11.8589
11.8657
11.8665
11.8684
11.8743
11.8874
11.9053
11.9224
11.9345
11.9411
11.9446
11.9478
11.9538
11.9632
11.9738
11.982
11.9858
11.9863
11.9856
11.9851
11.9865
11.9912
11.9991
12.008
12.0151
12.0197
1
1
1
1
1
1
1
1
1
1
1
1
1
1
1
1
1
1
1
1
1
1
1
1
1
1
1
1
1
1
1
1
1
1
1
1
1
1
1
1
1
1
1
1
1
1
1
1
1
1
1
1
1
1
1
1
1
1
1
1
1
1
1
1
1
1
1
1
1
1
1
1
1
1
1
1
1
1
1
1
1
1
1
1
1
1
1
1
1
1
1
1
1
1
1
1
1
1
3.40065
9.66185
10.3581
10.3993
10.4497
10.4844
10.508
10.523
10.5377
10.5612
10.5978
10.6433
10.6854
10.7161
10.7342
10.7448
10.7587
10.783
10.818
10.859
10.8964
10.9251
10.9442
10.958
10.9721
10.9931
11.0304
11.0763
11.1194
11.151
11.1657
11.1673
11.1649
11.1735
11.2056
11.2557
11.3074
11.3446
11.3586
11.3551
11.3485
11.3529
11.3759
11.4171
11.4591
11.4899
11.505
11.5092
11.5125
11.5239
11.5476
11.5793
11.611
11.634
11.6452
11.6485
11.6501
11.6588
11.6813
11.7134
11.7431
11.7606
11.766
11.7672
11.7719
11.7869
11.8125
11.8394
11.8559
11.8585
11.8572
11.8587
11.8667
11.8834
11.9036
11.92
11.9291
11.9337
11.9369
11.9414
11.9493
11.9594
11.9681
11.9734
11.9759
11.9777
11.9795
11.9811
11.9835
11.9875
11.9936
12.001
12.0078
12.0124
1
1
1
1
1
1
1
1
1
1
1
1
1
1
1
1
1
1
1
1
1
1
1
1
1
1
1
1
1
1
1
1
1
1
1
1
1
1
1
1
1
1
1
1
1
1
1
1
1
1
1
1
1
1
1
1
1
1
1
1
1
1
1
1
1
1
1
1
1
1
1
1
1
1
1
1
1
1
1
1
1
1
1
1
1
1
1
1
1
1
1
1
1
1
1
1
1
1
3.18361
9.56643
10.356
10.3943
10.4436
10.4777
10.5018
10.5196
10.5372
10.5602
10.5935
10.6364
10.678
10.7094
10.7307
10.7447
10.7614
10.7858
10.8186
10.8563
10.8908
10.9173
10.9357
10.9506
10.9675
10.9922
11.0316
11.0761
11.1155
11.1426
11.1543
11.1568
11.1583
11.1738
11.2116
11.2605
11.3076
11.3388
11.3469
11.3414
11.3366
11.3457
11.375
11.4188
11.4597
11.4869
11.4976
11.4991
11.5023
11.5166
11.5448
11.5799
11.6116
11.6306
11.6363
11.6362
11.6373
11.6496
11.6784
11.7143
11.7427
11.7552
11.7558
11.7556
11.7622
11.7817
11.8107
11.8367
11.8494
11.8492
11.8472
11.8501
11.8613
11.8806
11.9006
11.9141
11.9206
11.9248
11.9293
11.9362
11.9459
11.9556
11.9616
11.9638
11.9655
11.9687
11.9727
11.9764
11.9797
11.9832
11.9876
11.9936
11.9998
12.0042
1
1
1
1
1
1
1
1
1
1
1
1
1
1
1
1
1
1
1
1
1
1
1
1
1
1
1
1
1
1
1
1
1
1
1
1
1
1
1
1
1
1
1
1
1
1
1
1
1
1
1
1
1
1
1
1
1
1
1
1
1
1
1
1
1
1
1
1
1
1
1
1
1
1
1
1
1
1
1
1
1
1
1
1
1
1
1
1
1
1
1
1
1
1
1
1
1
1
2.96048
9.44574
10.3545
10.3899
10.438
10.4719
10.4962
10.5153
10.5347
10.5577
10.5904
10.6325
10.6734
10.7042
10.726
10.7417
10.7601
10.7852
10.8175
10.8535
10.8859
10.9108
10.9292
10.9455
10.9653
10.9931
11.0325
11.0738
11.1079
11.13
11.1406
11.1467
11.1547
11.1778
11.2176
11.2623
11.3033
11.328
11.3327
11.328
11.3273
11.342
11.3756
11.4195
11.4579
11.481
11.4885
11.4889
11.4932
11.5109
11.5429
11.58
11.6102
11.6242
11.6251
11.623
11.6253
11.6433
11.6779
11.7151
11.7396
11.7456
11.7432
11.7433
11.7538
11.7789
11.8099
11.8325
11.84
11.838
11.8367
11.8426
11.8583
11.8789
11.896
11.905
11.9094
11.9145
11.922
11.9323
11.9434
11.9511
11.9535
11.9531
11.9543
11.959
11.9652
11.971
11.975
11.9778
11.981
11.9858
11.9915
11.9955
1
1
1
1
1
1
1
1
1
1
1
1
1
1
1
1
1
1
1
1
1
1
1
1
1
1
1
1
1
1
1
1
1
1
1
1
1
1
1
1
1
1
1
1
1
1
1
1
1
1
1
1
1
1
1
1
1
1
1
1
1
1
1
1
1
1
1
1
1
1
1
1
1
1
1
1
1
1
1
1
1
1
1
1
1
1
1
1
1
1
1
1
1
1
1
1
1
1
2.72966
9.29828
10.355
10.3863
10.4336
10.467
10.4916
10.5113
10.5317
10.5558
10.589
10.6303
10.6697
10.6992
10.7201
10.7365
10.7564
10.783
10.8156
10.8505
10.8815
10.9057
10.925
10.9437
10.9664
10.9958
11.0327
11.0683
11.096
11.1146
11.127
11.1389
11.1545
11.1829
11.221
11.2598
11.2935
11.3132
11.3176
11.3164
11.3211
11.3407
11.3764
11.4186
11.4536
11.4728
11.4781
11.4786
11.4849
11.5062
11.5416
11.5796
11.6066
11.6152
11.6124
11.6092
11.6145
11.6398
11.6792
11.7153
11.7338
11.7333
11.7286
11.7304
11.7467
11.7776
11.8091
11.827
11.8288
11.8252
11.8257
11.8363
11.8566
11.8771
11.8891
11.8931
11.8962
11.9031
11.9151
11.9294
11.9412
11.9458
11.9441
11.9417
11.9429
11.9491
11.9577
11.9651
11.9694
11.9714
11.9736
11.9775
11.9827
11.9865
1
1
1
1
1
1
1
1
1
1
1
1
1
1
1
1
1
1
1
1
1
1
1
1
1
1
1
1
1
1
1
1
1
1
1
1
1
1
1
1
1
1
1
1
1
1
1
1
1
1
1
1
1
1
1
1
1
1
1
1
1
1
1
1
1
1
1
1
1
1
1
1
1
1
1
1
1
1
1
1
1
1
1
1
1
1
1
1
1
1
1
1
1
1
1
1
1
1
2.49201
9.12551
10.3546
10.3826
10.4301
10.463
10.4878
10.5077
10.5287
10.5538
10.5875
10.6276
10.6652
10.6932
10.7133
10.7302
10.7513
10.7791
10.812
10.846
10.8762
10.9008
10.922
10.9439
10.969
10.9983
11.0303
11.0588
11.081
11.0984
11.1152
11.134
11.1567
11.1871
11.2211
11.2528
11.2794
11.2962
11.3028
11.3071
11.3176
11.3412
11.3769
11.4159
11.4467
11.4627
11.4667
11.4678
11.4767
11.5024
11.5406
11.578
11.6007
11.6039
11.5985
11.5954
11.6056
11.6385
11.681
11.7133
11.7246
11.7193
11.7129
11.7175
11.7408
11.7767
11.807
11.8199
11.8169
11.8119
11.8148
11.8308
11.8549
11.8735
11.8797
11.8797
11.8824
11.8919
11.909
11.9273
11.9382
11.9389
11.9336
11.9295
11.9312
11.9392
11.9499
11.9583
11.9623
11.9636
11.9651
11.9686
11.9737
11.9773
1
1
1
1
1
1
1
1
1
1
1
1
1
1
1
1
1
1
1
1
1
1
1
1
1
1
1
1
1
1
1
1
1
1
1
1
1
1
1
1
1
1
1
1
1
1
1
1
1
1
1
1
1
1
1
1
1
1
1
1
1
1
1
1
1
1
1
1
1
1
1
1
1
1
1
1
1
1
1
1
1
1
1
1
1
1
1
1
1
1
1
1
1
1
1
1
1
1
2.25302
8.92377
10.3566
10.3814
10.427
10.4588
10.4838
10.5042
10.526
10.5522
10.5856
10.6236
10.6593
10.6862
10.7062
10.7245
10.7471
10.7754
10.8077
10.8402
10.8696
10.8952
10.9192
10.9444
10.9715
10.9993
11.0257
11.0475
11.0653
11.0837
11.1056
11.1312
11.1592
11.1889
11.218
11.2428
11.2637
11.2795
11.2896
11.2996
11.316
11.3425
11.3769
11.4118
11.4383
11.4513
11.4546
11.4568
11.4696
11.4997
11.5395
11.5744
11.5924
11.5911
11.5842
11.583
11.5998
11.6384
11.681
11.7078
11.712
11.704
11.6972
11.7057
11.7357
11.775
11.8028
11.8106
11.8051
11.7997
11.8051
11.8258
11.8518
11.867
11.8682
11.8659
11.8688
11.8817
11.9035
11.9244
11.9337
11.9301
11.9219
11.9168
11.9197
11.9296
11.9418
11.9505
11.9539
11.9545
11.9557
11.9592
11.9645
11.9683
1
1
1
1
1
1
1
1
1
1
1
1
1
1
1
1
1
1
1
1
1
1
1
1
1
1
1
1
1
1
1
1
1
1
1
1
1
1
1
1
1
1
1
1
1
1
1
1
1
1
1
1
1
1
1
1
1
1
1
1
1
1
1
1
1
1
1
1
1
1
1
1
1
1
1
1
1
1
1
1
1
1
1
1
1
1
1
1
1
1
1
1
1
1
1
1
1
1
2.02395
8.68919
10.3545
10.3808
10.4226
10.4528
10.4786
10.5011
10.5238
10.5507
10.583
10.6185
10.6516
10.6776
10.6981
10.7184
10.7426
10.7715
10.8028
10.8333
10.8613
10.8876
10.9145
10.9428
10.9715
10.9981
11.0199
11.0361
11.051
11.0707
11.097
11.1279
11.1593
11.1878
11.2123
11.2319
11.2489
11.2645
11.2778
11.2932
11.3146
11.3432
11.3757
11.4064
11.4282
11.4383
11.4411
11.4457
11.4636
11.4974
11.537
11.5679
11.5808
11.577
11.5705
11.5735
11.5974
11.6387
11.6777
11.6981
11.697
11.688
11.683
11.6967
11.7318
11.7715
11.7955
11.7994
11.7933
11.7889
11.7972
11.8209
11.8454
11.8568
11.855
11.8517
11.8561
11.8729
11.8988
11.92
11.9264
11.9196
11.9095
11.9044
11.9087
11.9204
11.9334
11.9414
11.9439
11.944
11.9452
11.9493
11.9552
11.9592
1
1
1
1
1
1
1
1
1
1
1
1
1
1
1
1
1
1
1
1
1
1
1
1
1
1
1
1
1
1
1
1
1
1
1
1
1
1
1
1
1
1
1
1
1
1
1
1
1
1
1
1
1
1
1
1
1
1
1
1
1
1
1
1
1
1
1
1
1
1
1
1
1
1
1
1
1
1
1
1
1
1
1
1
1
1
1
1
1
1
1
1
1
1
1
1
1
1
1.81354
8.4156
10.3494
10.38
10.4159
10.4454
10.4727
10.497
10.5214
10.5484
10.579
10.6126
10.6434
10.668
10.689
10.7115
10.7378
10.7678
10.799
10.8277
10.8534
10.8787
10.9067
10.9379
10.9689
10.9952
11.0143
11.0267
11.0395
11.0597
11.0883
11.1218
11.1549
11.1827
11.2046
11.2215
11.2363
11.2518
11.2674
11.2871
11.3127
11.3427
11.3735
11.4
11.4171
11.4242
11.4275
11.4363
11.4602
11.4959
11.5325
11.5577
11.5657
11.5619
11.5588
11.5687
11.5985
11.638
11.6694
11.6824
11.6786
11.6711
11.6712
11.6916
11.729
11.765
11.7842
11.7862
11.7813
11.7796
11.7912
11.8156
11.8364
11.8435
11.8406
11.838
11.845
11.8658
11.8941
11.9134
11.9161
11.9072
11.8964
11.8924
11.8985
11.9117
11.9243
11.9308
11.9323
11.9322
11.9338
11.9388
11.9457
11.9501
1
1
1
1
1
1
1
1
1
1
1
1
1
1
1
1
1
1
1
1
1
1
1
1
1
1
1
1
1
1
1
1
1
1
1
1
1
1
1
1
1
1
1
1
1
1
1
1
1
1
1
1
1
1
1
1
1
1
1
1
1
1
1
1
1
1
1
1
1
1
1
1
1
1
1
1
1
1
1
1
1
1
1
1
1
1
1
1
1
1
1
1
1
1
1
1
1
1
1.62278
8.10445
10.3482
10.3787
10.4109
10.4393
10.4668
10.4918
10.5172
10.5445
10.5748
10.6077
10.6371
10.6601
10.6803
10.7031
10.7312
10.7633
10.7954
10.8231
10.8467
10.8705
10.8984
10.931
10.9638
10.9908
11.0088
11.0194
11.0308
11.0507
11.0792
11.1128
11.1464
11.1742
11.1957
11.2123
11.2265
11.2422
11.2592
11.2819
11.31
11.3404
11.3688
11.3909
11.4034
11.4085
11.4142
11.4294
11.4587
11.4942
11.5253
11.5435
11.5476
11.5455
11.5495
11.5687
11.602
11.6358
11.6568
11.6619
11.658
11.6544
11.6632
11.691
11.7269
11.7558
11.7695
11.7711
11.7687
11.7716
11.7868
11.8094
11.825
11.8278
11.825
11.8247
11.8355
11.8599
11.8881
11.9041
11.9032
11.8931
11.8831
11.8811
11.8891
11.903
11.9143
11.9187
11.9191
11.9191
11.9216
11.928
11.9361
11.9409
1
1
1
1
1
1
1
1
1
1
1
1
1
1
1
1
1
1
1
1
1
1
1
1
1
1
1
1
1
1
1
1
1
1
1
1
1
1
1
1
1
1
1
1
1
1
1
1
1
1
1
1
1
1
1
1
1
1
1
1
1
1
1
1
1
1
1
1
1
1
1
1
1
1
1
1
1
1
1
1
1
1
1
1
1
1
1
1
1
1
1
1
1
1
1
1
1
1
1.44157
7.75175
10.3534
10.3798
10.4058
10.4331
10.4598
10.4853
10.5116
10.5398
10.5712
10.6039
10.6317
10.6532
10.6724
10.6949
10.7242
10.7583
10.7916
10.8194
10.8417
10.8637
10.8904
10.9226
10.9559
10.9837
11.0023
11.0135
11.025
11.0442
11.0712
11.1023
11.1343
11.162
11.1843
11.202
11.2172
11.2338
11.2527
11.2776
11.3068
11.3363
11.3617
11.3792
11.3879
11.3931
11.4034
11.4256
11.4582
11.491
11.5149
11.5258
11.5272
11.5297
11.5441
11.5724
11.6048
11.6293
11.6393
11.6384
11.6353
11.6394
11.6601
11.6927
11.7239
11.7438
11.7518
11.7539
11.7556
11.7645
11.7827
11.8018
11.8118
11.8111
11.8085
11.8117
11.8274
11.8544
11.8803
11.8921
11.8885
11.8781
11.8698
11.8704
11.8804
11.8941
11.903
11.9051
11.9046
11.905
11.9087
11.917
11.9262
11.9313
1
1
1
1
1
1
1
1
1
1
1
1
1
1
1
1
1
1
1
1
1
1
1
1
1
1
1
1
1
1
1
1
1
1
1
1
1
1
1
1
1
1
1
1
1
1
1
1
1
1
1
1
1
1
1
1
1
1
1
1
1
1
1
1
1
1
1
1
1
1
1
1
1
1
1
1
1
1
1
1
1
1
1
1
1
1
1
1
1
1
1
1
1
1
1
1
1
1
1.27136
7.37578
10.3587
10.3767
10.3964
10.4237
10.4496
10.4755
10.5031
10.5333
10.5663
10.599
10.626
10.6469
10.6659
10.6886
10.7182
10.7528
10.7865
10.8143
10.8364
10.8576
10.8834
10.9145
10.9468
10.9746
10.9948
11.0082
11.0211
11.0398
11.0646
11.0923
11.1212
11.148
11.1708
11.1903
11.208
11.2273
11.2487
11.2751
11.3037
11.3301
11.3511
11.364
11.3708
11.3786
11.3952
11.4229
11.4561
11.4843
11.501
11.5062
11.5072
11.5167
11.542
11.5756
11.6042
11.6181
11.6183
11.6141
11.6137
11.6285
11.6605
11.6946
11.7186
11.7291
11.7326
11.7355
11.7422
11.7575
11.7779
11.7929
11.7969
11.7941
11.7922
11.7991
11.8197
11.8483
11.8705
11.8779
11.8722
11.8625
11.8566
11.86
11.872
11.8843
11.8902
11.89
11.8887
11.8899
11.8955
11.9057
11.9159
11.9208
1
1
1
1
1
1
1
1
1
1
1
1
1
1
1
1
1
1
1
1
1
1
1
1
1
1
1
1
1
1
1
1
1
1
1
1
1
1
1
1
1
1
1
1
1
1
1
1
1
1
1
1
1
1
1
1
1
1
1
1
1
1
1
1
1
1
1
1
1
1
1
1
1
1
1
1
1
1
1
1
1
1
1
1
1
1
1
1
1
1
1
1
1
1
1
1
1
1
1.10511
6.9844
10.354
10.3723
10.3877
10.4155
10.4411
10.468
10.497
10.5289
10.5627
10.5941
10.6196
10.6398
10.6593
10.6829
10.7129
10.7469
10.7796
10.8071
10.8296
10.8516
10.8773
10.9066
10.9366
10.9632
10.9844
11.0008
11.0163
11.0357
11.0591
11.0839
11.1093
11.1342
11.1563
11.1775
11.1989
11.222
11.2462
11.2725
11.2983
11.3203
11.3369
11.3472
11.355
11.3674
11.3893
11.4193
11.4501
11.473
11.4844
11.4873
11.491
11.5085
11.5406
11.5744
11.5965
11.6015
11.5967
11.5912
11.5964
11.6229
11.6614
11.6934
11.7088
11.7118
11.7127
11.717
11.7293
11.7501
11.7713
11.7825
11.7815
11.7773
11.7766
11.7872
11.8118
11.8404
11.8586
11.8619
11.8549
11.8464
11.8434
11.85
11.8633
11.8733
11.8758
11.8736
11.8718
11.8741
11.8821
11.8944
11.905
11.909
1
1
1
1
1
1
1
1
1
1
1
1
1
1
1
1
1
1
1
1
1
1
1
1
1
1
1
1
1
1
1
1
1
1
1
1
1
1
1
1
1
1
1
1
1
1
1
1
1
1
1
1
1
1
1
1
1
1
1
1
1
1
1
1
1
1
1
1
1
1
1
1
1
1
1
1
1
1
1
1
1
1
1
1
1
1
1
1
1
1
1
1
1
1
1
1
1
1
1.00463
6.57226
10.2878
10.3452
10.3697
10.4031
10.4314
10.461
10.4917
10.5242
10.557
10.5862
10.6102
10.6311
10.6529
10.6787
10.7089
10.741
10.7712
10.7973
10.8209
10.8452
10.8718
10.8996
10.9263
10.9503
10.9712
10.9901
11.009
11.0305
11.0538
11.0764
11.0985
11.1208
11.1417
11.1648
11.1907
11.2177
11.2437
11.2684
11.2896
11.3065
11.3201
11.3311
11.3433
11.3608
11.3844
11.4118
11.4372
11.4553
11.4654
11.4711
11.4816
11.5052
11.5378
11.5667
11.5812
11.5808
11.5749
11.5722
11.586
11.6207
11.6602
11.6867
11.6944
11.6932
11.6931
11.6998
11.7176
11.7423
11.7624
11.7698
11.7659
11.7608
11.7619
11.7761
11.803
11.8301
11.8445
11.8447
11.8372
11.8301
11.8304
11.8402
11.8538
11.861
11.86
11.8557
11.8539
11.858
11.8689
11.8829
11.8929
11.8955
1
1
1
1
1
1
1
1
1
1
1
1
1
1
1
1
1
1
1
1
1
1
1
1
1
1
1
1
1
1
1
1
1
1
1
1
1
1
1
1
1
1
1
1
1
1
1
1
1
1
1
1
1
1
1
1
1
1
1
1
1
1
1
1
1
1
1
1
1
1
1
1
1
1
1
1
1
1
1
1
1
1
1
1
1
1
1
1
1
1
1
1
1
1
1
1
1
1
1.00003
6.05273
10.2155
10.3208
10.3562
10.394
10.4253
10.4571
10.4888
10.5207
10.5506
10.5764
10.5992
10.6214
10.6456
10.6727
10.7025
10.7325
10.7602
10.7857
10.8114
10.8385
10.8661
10.8926
10.9164
10.9375
10.9571
10.9772
10.9988
11.0226
11.0466
11.0681
11.0879
11.1083
11.129
11.1548
11.1847
11.2138
11.2394
11.2599
11.2752
11.2879
11.3017
11.3176
11.3369
11.3581
11.3794
11.3997
11.4178
11.4331
11.4464
11.46
11.4791
11.5048
11.532
11.5518
11.5589
11.5573
11.5546
11.5597
11.5829
11.6199
11.6545
11.6736
11.6758
11.6732
11.6746
11.6851
11.7071
11.7331
11.7505
11.7545
11.7497
11.7451
11.7484
11.7656
11.7929
11.8173
11.8283
11.8266
11.8192
11.8137
11.8173
11.8303
11.843
11.8469
11.8427
11.8367
11.8356
11.8421
11.8563
11.8711
11.8794
11.8801
1
1
1
1
1
1
1
1
1
1
1
1
1
1
1
1
1
1
1
1
1
1
1
1
1
1
1
1
1
1
1
1
1
1
1
1
1
1
1
1
1
1
1
1
1
1
1
1
1
1
1
1
1
1
1
1
1
1
1
1
1
1
1
1
1
1
1
1
1
1
1
1
1
1
1
1
1
1
1
1
1
1
1
1
1
1
1
1
1
1
1
1
1
1
1
1
1
1
1
5.49957
10.1415
10.3082
10.3434
10.3818
10.4158
10.4491
10.4814
10.513
10.5428
10.569
10.5921
10.6152
10.6397
10.6658
10.6936
10.7214
10.748
10.7743
10.8025
10.8315
10.8594
10.8849
10.907
10.9264
10.945
10.9651
10.9877
11.0122
11.0362
11.057
11.076
11.0964
11.1189
11.1482
11.181
11.21
11.2323
11.2465
11.2559
11.2667
11.2843
11.3082
11.3344
11.3564
11.3716
11.3825
11.3935
11.409
11.43
11.4547
11.4801
11.5037
11.5213
11.5304
11.5324
11.5331
11.5382
11.5547
11.5843
11.618
11.6433
11.6543
11.6539
11.6525
11.6579
11.6734
11.6977
11.7217
11.7355
11.7371
11.733
11.7303
11.7362
11.7553
11.7813
11.8019
11.81
11.8074
11.8008
11.7976
11.8046
11.8197
11.8307
11.8311
11.8238
11.8166
11.817
11.8269
11.8442
11.8584
11.8641
11.8628
1
1
1
1
1
1
1
1
1
1
1
1
1
1
1
1
1
1
1
1
1
1
1
1
1
1
1
1
1
1
1
1
1
1
1
1
1
1
1
1
1
1
1
1
1
1
1
1
1
1
1
1
1
1
1
1
1
1
1
1
1
1
1
1
1
1
1
1
1
1
1
1
1
1
1
1
1
1
1
1
1
1
1
1
1
1
1
1
1
1
1
1
1
1
1
1
1
1
1
4.93016
10.0392
10.2919
10.334
10.3742
10.409
10.442
10.4737
10.5044
10.5342
10.5606
10.585
10.6084
10.6319
10.6567
10.6836
10.7116
10.7392
10.7667
10.7951
10.823
10.849
10.8736
10.8956
10.9159
10.9358
10.9563
10.978
11.0005
11.0224
11.0424
11.0623
11.0851
11.1114
11.1441
11.1776
11.2042
11.2212
11.2289
11.2341
11.246
11.27
11.3016
11.3316
11.3513
11.3593
11.3618
11.3685
11.387
11.4175
11.4516
11.4799
11.4982
11.5055
11.5055
11.5054
11.5112
11.5276
11.5546
11.5855
11.6117
11.6266
11.6303
11.6298
11.6327
11.6438
11.6642
11.6882
11.7077
11.7173
11.718
11.7157
11.7161
11.725
11.7448
11.768
11.7845
11.79
11.7873
11.7821
11.7818
11.7923
11.8079
11.8163
11.8134
11.8035
11.796
11.7987
11.8126
11.8323
11.8446
11.8469
11.8435
1
1
1
1
1
1
1
1
1
1
1
1
1
1
1
1
1
1
1
1
1
1
1
1
1
1
1
1
1
1
1
1
1
1
1
1
1
1
1
1
1
1
1
1
1
1
1
1
1
1
1
1
1
1
1
1
1
1
1
1
1
1
1
1
1
1
1
1
1
1
1
1
1
1
1
1
1
1
1
1
1
1
1
1
1
1
1
1
1
1
1
1
1
1
1
1
1
1
1
4.36295
9.89884
10.2802
10.323
10.3655
10.4011
10.4345
10.4663
10.4968
10.5263
10.5539
10.5776
10.5993
10.6215
10.6462
10.674
10.7039
10.7334
10.7614
10.7877
10.812
10.835
10.859
10.8828
10.9062
10.9288
10.9501
10.9703
10.9894
11.0074
11.0259
11.0478
11.0748
11.1056
11.1399
11.1719
11.1942
11.2057
11.2088
11.2135
11.2298
11.2598
11.2952
11.3248
11.3401
11.3421
11.3406
11.3474
11.3714
11.4086
11.4464
11.4738
11.4857
11.4848
11.4805
11.4815
11.4949
11.522
11.5545
11.5825
11.5994
11.6049
11.6043
11.6057
11.6145
11.6326
11.6558
11.677
11.6909
11.6968
11.6978
11.6983
11.7026
11.7145
11.7336
11.7529
11.765
11.7686
11.7665
11.7629
11.7665
11.7801
11.7944
11.7993
11.7934
11.782
11.7752
11.7811
11.7993
11.8197
11.8291
11.828
11.8226
1
1
1
1
1
1
1
1
1
1
1
1
1
1
1
1
1
1
1
1
1
1
1
1
1
1
1
1
1
1
1
1
1
1
1
1
1
1
1
1
1
1
1
1
1
1
1
1
1
1
1
1
1
1
1
1
1
1
1
1
1
1
1
1
1
1
1
1
1
1
1
1
1
1
1
1
1
1
1
1
1
1
1
1
1
1
1
1
1
1
1
1
1
1
1
1
1
1
1
3.79581
9.72077
10.2706
10.3141
10.3596
10.3944
10.427
10.4578
10.4878
10.5172
10.5456
10.57
10.5909
10.6124
10.6373
10.6663
10.6979
10.7289
10.7562
10.7793
10.7991
10.8189
10.8427
10.8697
10.8977
10.9237
10.9456
10.9636
10.9783
10.992
11.0104
11.0358
11.0669
11.1003
11.1339
11.162
11.1789
11.1863
11.1888
11.1977
11.2203
11.2528
11.2861
11.3106
11.3207
11.3205
11.3207
11.3334
11.3632
11.4019
11.4373
11.4594
11.4659
11.4619
11.4581
11.4642
11.4859
11.5183
11.5503
11.572
11.5805
11.5799
11.5786
11.584
11.5996
11.6229
11.6461
11.6627
11.6714
11.675
11.6771
11.6811
11.6897
11.7038
11.7212
11.7362
11.7438
11.7458
11.7449
11.744
11.7519
11.7671
11.7786
11.7797
11.7712
11.7597
11.7551
11.7649
11.7866
11.8055
11.8113
11.8073
11.8006
1
1
1
1
1
1
1
1
1
1
1
1
1
1
1
1
1
1
1
1
1
1
1
1
1
1
1
1
1
1
1
1
1
1
1
1
1
1
1
1
1
1
1
1
1
1
1
1
1
1
1
1
1
1
1
1
1
1
1
1
1
1
1
1
1
1
1
1
1
1
1
1
1
1
1
1
1
1
1
1
1
1
1
1
1
1
1
1
1
1
1
1
1
1
1
1
1
1
1
3.23575
9.48844
10.2681
10.3073
10.3535
10.3873
10.4201
10.4505
10.4799
10.5087
10.5372
10.5621
10.5828
10.6041
10.6294
10.659
10.6909
10.7226
10.7498
10.7696
10.786
10.8044
10.8283
10.8577
10.8889
10.9173
10.9396
10.9555
10.9668
10.978
10.9987
11.0283
11.0615
11.0948
11.1251
11.1465
11.1569
11.1628
11.1705
11.1885
11.2161
11.2462
11.2723
11.2887
11.2947
11.297
11.3058
11.3277
11.3598
11.3939
11.4216
11.437
11.4404
11.4386
11.441
11.4552
11.4819
11.5134
11.5394
11.5533
11.556
11.5538
11.5552
11.5665
11.5878
11.6126
11.633
11.6451
11.6502
11.6528
11.6567
11.6644
11.6766
11.6921
11.7071
11.7175
11.7212
11.7219
11.7226
11.7256
11.7378
11.7525
11.7602
11.7575
11.747
11.7372
11.7362
11.7504
11.7735
11.7889
11.7909
11.7849
11.7782
1
1
1
1
1
1
1
1
1
1
1
1
1
1
1
1
1
1
1
1
1
1
1
1
1
1
1
1
1
1
1
1
1
1
1
1
1
1
1
1
1
1
1
1
1
1
1
1
1
1
1
1
1
1
1
1
1
1
1
1
1
1
1
1
1
1
1
1
1
1
1
1
1
1
1
1
1
1
1
1
1
1
1
1
1
1
1
1
1
1
1
1
1
1
1
1
1
1
1
2.69599
9.19022
10.2841
10.3109
10.3542
10.385
10.4165
10.4458
10.4736
10.5009
10.5286
10.5542
10.5756
10.5972
10.6222
10.6508
10.6814
10.7128
10.7405
10.7602
10.7765
10.7952
10.8188
10.8476
10.879
10.9077
10.9295
10.9441
10.9543
10.9668
10.9916
11.0243
11.0578
11.0882
11.1116
11.1237
11.1294
11.1389
11.1574
11.1847
11.2135
11.2374
11.2534
11.2607
11.2647
11.2752
11.2973
11.3269
11.3568
11.382
11.3994
11.4087
11.4128
11.4184
11.4311
11.4523
11.4786
11.5035
11.5205
11.5277
11.5283
11.5287
11.5362
11.5535
11.5769
11.5995
11.616
11.6245
11.628
11.6309
11.6369
11.6478
11.6627
11.6787
11.691
11.697
11.6974
11.6973
11.7
11.7081
11.7235
11.7357
11.7386
11.7324
11.7216
11.7149
11.7192
11.7374
11.7586
11.7692
11.768
11.7609
11.7559
1
1
1
1
1
1
1
1
1
1
1
1
1
1
1
1
1
1
1
1
1
1
1
1
1
1
1
1
1
1
1
1
1
1
1
1
1
1
1
1
1
1
1
1
1
1
1
1
1
1
1
1
1
1
1
1
1
1
1
1
1
1
1
1
1
1
1
1
1
1
1
1
1
1
1
1
1
1
1
1
1
1
1
1
1
1
1
1
1
1
1
1
1
1
1
1
1
1
1
2.1976
8.79552
10.3111
10.3178
10.3563
10.3828
10.4114
10.4381
10.4638
10.4901
10.518
10.5457
10.57