/*--------------------------------*- C++ -*----------------------------------*\
  =========                 |
  \\      /  F ield         | OpenFOAM: The Open Source CFD Toolbox
   \\    /   O peration     | Website:  https://openfoam.org
    \\  /    A nd           | Version:  7
     \\/     M anipulation  |
\*---------------------------------------------------------------------------*/
FoamFile
{
    version     2.0;
    format      ascii;
    class       volScalarField;
    location    "4";
    object      rho;
}
// * * * * * * * * * * * * * * * * * * * * * * * * * * * * * * * * * * * * * //

dimensions      [1 -3 0 0 0 0 0];

internalField   nonuniform List<scalar> 
258048
(
1.40001
1.40001
1.40001
1.40001
1.40001
1.40001
1.40001
1.40001
1.40001
1.40001
1.40001
1.40001
1.40001
1.40001
1.40001
1.40001
1.40001
1.40001
1.40001
1.40001
1.40001
1.40001
1.40001
1.40001
1.40001
1.40001
1.40001
1.40001
1.40001
1.40001
1.40001
1.40001
1.40001
1.40001
1.40001
1.40001
1.40001
1.40001
1.40001
1.40001
1.40001
1.40001
1.40001
1.40001
1.40001
1.40001
1.40001
1.40001
1.40001
1.40001
1.40001
1.40001
1.40001
1.40001
1.40001
1.40001
1.40001
1.40001
1.40001
1.40001
1.40001
1.40001
1.40001
1.40001
1.40001
1.40001
1.40001
1.40001
1.40001
1.40001
1.40001
1.40001
1.40001
1.40001
1.40001
1.40001
1.40001
1.40001
1.40001
1.40001
1.40001
1.40001
1.40001
1.40001
1.40001
1.40001
1.40001
1.40001
1.40001
1.40001
1.40001
1.40001
1.40001
1.40001
1.40001
1.40001
1.40001
1.40001
3.26153
5.34217
5.4235
5.42219
5.43078
5.44315
5.45594
5.46839
5.48003
5.4897
5.49643
5.50117
5.50645
5.51441
5.52797
5.55067
5.57523
5.59794
5.61428
5.6214
5.61832
5.61148
5.60753
5.61565
5.63914
5.66119
5.67757
5.68394
5.68275
5.67961
5.68223
5.69403
5.71451
5.73329
5.74679
5.75253
5.75181
5.7512
5.75563
5.76882
5.78728
5.80286
5.81155
5.8115
5.80776
5.8054
5.80761
5.81722
5.8328
5.84886
5.86076
5.86642
5.86843
5.87166
5.87908
5.8904
5.90135
5.90717
5.90613
5.90293
5.9018
5.90673
5.91911
5.93481
5.94675
5.95096
5.94826
5.94525
5.94681
5.9549
5.96694
5.97649
5.97944
5.97633
5.97145
5.96908
5.97128
5.9784
5.98792
5.99555
5.99967
6.00207
6.0048
6.00736
6.00804
6.00533
6.00054
5.99671
5.99707
6.00213
6.00877
6.01375
6.01546
6.01589
1.40001
1.40001
1.40001
1.40001
1.40001
1.40001
1.40001
1.40001
1.40001
1.40001
1.40001
1.40001
1.40001
1.40001
1.40001
1.40001
1.40001
1.40001
1.40001
1.40001
1.40001
1.40001
1.40001
1.40001
1.40001
1.40001
1.40001
1.40001
1.40001
1.40001
1.40001
1.40001
1.40001
1.40001
1.40001
1.40001
1.40001
1.40001
1.40001
1.40001
1.40001
1.40001
1.40001
1.40001
1.40001
1.40001
1.40001
1.40001
1.40001
1.40001
1.40001
1.40001
1.40001
1.40001
1.40001
1.40001
1.40001
1.40001
1.40001
1.40001
1.40001
1.40001
1.40001
1.40001
1.40001
1.40001
1.40001
1.40001
1.40001
1.40001
1.40001
1.40001
1.40001
1.40001
1.40001
1.40001
1.40001
1.40001
1.40001
1.40001
1.40001
1.40001
1.40001
1.40001
1.40001
1.40001
1.40001
1.40001
1.40001
1.40001
1.40001
1.40001
1.40001
1.40001
1.40001
1.40001
1.40001
1.40001
3.24944
5.33588
5.42701
5.42595
5.43281
5.44259
5.4543
5.46676
5.47939
5.49047
5.49862
5.50365
5.50806
5.51511
5.52804
5.55018
5.57512
5.59759
5.61318
5.61968
5.61696
5.61173
5.60951
5.61713
5.63851
5.66039
5.67642
5.68342
5.68329
5.6816
5.68492
5.69585
5.71453
5.73265
5.74601
5.75234
5.75245
5.75285
5.75773
5.76998
5.78699
5.80188
5.81043
5.81107
5.80832
5.80676
5.80945
5.8191
5.83406
5.84919
5.86033
5.86583
5.86821
5.87185
5.87958
5.89091
5.90168
5.90733
5.9063
5.90327
5.90235
5.90743
5.91986
5.93523
5.9466
5.95038
5.94779
5.94521
5.94728
5.95582
5.96773
5.9766
5.97885
5.97566
5.97131
5.96958
5.97236
5.97964
5.98847
5.9951
5.99879
6.00153
6.00475
6.00761
6.00826
6.0054
6.0005
5.99673
5.99723
6.00229
6.00887
6.01369
6.01528
6.01571
1.40001
1.40001
1.40001
1.40001
1.40001
1.40001
1.40001
1.40001
1.40001
1.40001
1.40001
1.40001
1.40001
1.40001
1.40001
1.40001
1.40001
1.40001
1.40001
1.40001
1.40001
1.40001
1.40001
1.40001
1.40001
1.40001
1.40001
1.40001
1.40001
1.40001
1.40001
1.40001
1.40001
1.40001
1.40001
1.40001
1.40001
1.40001
1.40001
1.40001
1.40001
1.40001
1.40001
1.40001
1.40001
1.40001
1.40001
1.40001
1.40001
1.40001
1.40001
1.40001
1.40001
1.40001
1.40001
1.40001
1.40001
1.40001
1.40001
1.40001
1.40001
1.40001
1.40001
1.40001
1.40001
1.40001
1.40001
1.40001
1.40001
1.40001
1.40001
1.40001
1.40001
1.40001
1.40001
1.40001
1.40001
1.40001
1.40001
1.40001
1.40001
1.40001
1.40001
1.40001
1.40001
1.40001
1.40001
1.40001
1.40001
1.40001
1.40001
1.40001
1.40001
1.40001
1.40001
1.40001
1.40001
1.40001
3.22815
5.32477
5.42909
5.4312
5.43731
5.44337
5.45216
5.46386
5.4771
5.48987
5.50002
5.50678
5.51136
5.51743
5.52913
5.54988
5.57439
5.59619
5.61067
5.61635
5.61437
5.61089
5.61107
5.61978
5.6386
5.65843
5.67282
5.67964
5.68106
5.68211
5.68768
5.6987
5.71484
5.73053
5.74232
5.74863
5.75021
5.75273
5.75946
5.77169
5.7868
5.79965
5.80681
5.80763
5.80617
5.80603
5.81027
5.821
5.8356
5.84936
5.85894
5.86349
5.86605
5.87039
5.8789
5.89054
5.90104
5.90631
5.90513
5.90232
5.90179
5.90728
5.9201
5.93526
5.9458
5.94871
5.94594
5.94366
5.94655
5.95609
5.9683
5.97634
5.97742
5.9737
5.96968
5.96885
5.97283
5.98098
5.98924
5.99435
5.99688
5.99958
6.00348
6.0071
6.00801
6.00501
5.9999
5.99605
5.99662
6.00172
6.00832
6.01304
6.01443
6.01479
1.40001
1.40001
1.40001
1.40001
1.40001
1.40001
1.40001
1.40001
1.40001
1.40001
1.40001
1.40001
1.40001
1.40001
1.40001
1.40001
1.40001
1.40001
1.40001
1.40001
1.40001
1.40001
1.40001
1.40001
1.40001
1.40001
1.40001
1.40001
1.40001
1.40001
1.40001
1.40001
1.40001
1.40001
1.40001
1.40001
1.40001
1.40001
1.40001
1.40001
1.40001
1.40001
1.40001
1.40001
1.40001
1.40001
1.40001
1.40001
1.40001
1.40001
1.40001
1.40001
1.40001
1.40001
1.40001
1.40001
1.40001
1.40001
1.40001
1.40001
1.40001
1.40001
1.40001
1.40001
1.40001
1.40001
1.40001
1.40001
1.40001
1.40001
1.40001
1.40001
1.40001
1.40001
1.40001
1.40001
1.40001
1.40001
1.40001
1.40001
1.40001
1.40001
1.40001
1.40001
1.40001
1.40001
1.40001
1.40001
1.40001
1.40001
1.40001
1.40001
1.40001
1.40001
1.40001
1.40001
1.40001
1.40001
3.19887
5.30879
5.42863
5.4362
5.44365
5.44652
5.4515
5.46053
5.47323
5.4871
5.49972
5.50946
5.51596
5.52207
5.53166
5.54919
5.57172
5.59215
5.60565
5.61135
5.61219
5.61188
5.61439
5.62287
5.63848
5.65571
5.66881
5.67608
5.68007
5.68443
5.69209
5.70243
5.7157
5.72874
5.73868
5.74476
5.7484
5.7533
5.76175
5.77377
5.78716
5.79812
5.80386
5.80459
5.80417
5.80603
5.81218
5.82361
5.83739
5.8495
5.85751
5.86136
5.86414
5.86919
5.87845
5.89038
5.90063
5.90553
5.90423
5.9016
5.90151
5.90751
5.92058
5.93541
5.94504
5.94717
5.94437
5.94236
5.94613
5.95658
5.96874
5.97594
5.97599
5.97193
5.96819
5.96845
5.97386
5.98263
5.99005
5.99368
5.99514
5.99762
6.00205
6.00657
6.00792
6.00489
5.9997
5.9958
5.99632
6.00134
6.00794
6.01254
6.01376
6.01407
1.40001
1.40001
1.40001
1.40001
1.40001
1.40001
1.40001
1.40001
1.40001
1.40001
1.40001
1.40001
1.40001
1.40001
1.40001
1.40001
1.40001
1.40001
1.40001
1.40001
1.40001
1.40001
1.40001
1.40001
1.40001
1.40001
1.40001
1.40001
1.40001
1.40001
1.40001
1.40001
1.40001
1.40001
1.40001
1.40001
1.40001
1.40001
1.40001
1.40001
1.40001
1.40001
1.40001
1.40001
1.40001
1.40001
1.40001
1.40001
1.40001
1.40001
1.40001
1.40001
1.40001
1.40001
1.40001
1.40001
1.40001
1.40001
1.40001
1.40001
1.40001
1.40001
1.40001
1.40001
1.40001
1.40001
1.40001
1.40001
1.40001
1.40001
1.40001
1.40001
1.40001
1.40001
1.40001
1.40001
1.40001
1.40001
1.40001
1.40001
1.40001
1.40001
1.40001
1.40001
1.40001
1.40001
1.40001
1.40001
1.40001
1.40001
1.40001
1.40001
1.40001
1.40001
1.40001
1.40001
1.40001
1.40001
3.16314
5.28691
5.42715
5.43852
5.44904
5.4521
5.45318
5.45823
5.46803
5.48166
5.497
5.51101
5.52143
5.52871
5.53623
5.54927
5.56802
5.58584
5.59842
5.60619
5.61106
5.61473
5.61928
5.62658
5.63808
5.65178
5.66365
5.67227
5.67965
5.68759
5.69694
5.7065
5.71673
5.7266
5.73442
5.74017
5.74579
5.75348
5.76382
5.77582
5.78755
5.79637
5.80042
5.80116
5.80212
5.80606
5.81427
5.82625
5.83893
5.8492
5.85558
5.8588
5.86194
5.86789
5.87793
5.88991
5.89965
5.90401
5.90274
5.90055
5.90116
5.90781
5.92092
5.93509
5.94379
5.9453
5.94267
5.94118
5.94577
5.95669
5.96847
5.97482
5.97418
5.97009
5.96684
5.96811
5.97479
5.98394
5.99049
5.99283
5.99327
5.99534
6.00012
6.00537
6.0072
6.00437
5.9993
5.99545
5.99586
6.00064
6.00704
6.01153
6.0127
6.01303
1.40001
1.40001
1.40001
1.40001
1.40001
1.40001
1.40001
1.40001
1.40001
1.40001
1.40001
1.40001
1.40001
1.40001
1.40001
1.40001
1.40001
1.40001
1.40001
1.40001
1.40001
1.40001
1.40001
1.40001
1.40001
1.40001
1.40001
1.40001
1.40001
1.40001
1.40001
1.40001
1.40001
1.40001
1.40001
1.40001
1.40001
1.40001
1.40001
1.40001
1.40001
1.40001
1.40001
1.40001
1.40001
1.40001
1.40001
1.40001
1.40001
1.40001
1.40001
1.40001
1.40001
1.40001
1.40001
1.40001
1.40001
1.40001
1.40001
1.40001
1.40001
1.40001
1.40001
1.40001
1.40001
1.40001
1.40001
1.40001
1.40001
1.40001
1.40001
1.40001
1.40001
1.40001
1.40001
1.40001
1.40001
1.40001
1.40001
1.40001
1.40001
1.40001
1.40001
1.40001
1.40001
1.40001
1.40001
1.40001
1.40001
1.40001
1.40001
1.40001
1.40001
1.40001
1.40001
1.40001
1.40001
1.40001
3.12138
5.2605
5.42473
5.43891
5.45274
5.45826
5.45757
5.458
5.46348
5.47531
5.49368
5.51222
5.52689
5.53611
5.5422
5.54973
5.56304
5.57796
5.59047
5.60188
5.61142
5.61876
5.62436
5.62961
5.63689
5.64697
5.65799
5.66895
5.68009
5.69113
5.70137
5.70987
5.7172
5.72398
5.72991
5.73575
5.74353
5.754
5.76589
5.77748
5.78743
5.79408
5.79691
5.79816
5.80092
5.8071
5.8168
5.8286
5.83974
5.84817
5.85327
5.85629
5.86008
5.86704
5.87763
5.8893
5.89826
5.90202
5.90105
5.89961
5.90117
5.90852
5.92126
5.93425
5.94197
5.94321
5.94115
5.94062
5.94578
5.9565
5.96737
5.97281
5.97196
5.96847
5.96613
5.96831
5.97571
5.98469
5.99041
5.99176
5.99154
5.99328
5.99821
6.00384
6.00603
6.00361
5.99889
5.99527
5.99552
5.99982
6.00583
6.01017
6.01146
6.01191
1.40001
1.40001
1.40001
1.40001
1.40001
1.40001
1.40001
1.40001
1.40001
1.40001
1.40001
1.40001
1.40001
1.40001
1.40001
1.40001
1.40001
1.40001
1.40001
1.40001
1.40001
1.40001
1.40001
1.40001
1.40001
1.40001
1.40001
1.40001
1.40001
1.40001
1.40001
1.40001
1.40001
1.40001
1.40001
1.40001
1.40001
1.40001
1.40001
1.40001
1.40001
1.40001
1.40001
1.40001
1.40001
1.40001
1.40001
1.40001
1.40001
1.40001
1.40001
1.40001
1.40001
1.40001
1.40001
1.40001
1.40001
1.40001
1.40001
1.40001
1.40001
1.40001
1.40001
1.40001
1.40001
1.40001
1.40001
1.40001
1.40001
1.40001
1.40001
1.40001
1.40001
1.40001
1.40001
1.40001
1.40001
1.40001
1.40001
1.40001
1.40001
1.40001
1.40001
1.40001
1.40001
1.40001
1.40001
1.40001
1.40001
1.40001
1.40001
1.40001
1.40001
1.40001
1.40001
1.40001
1.40001
1.40001
3.07017
5.23822
5.41778
5.4369
5.45458
5.46308
5.46289
5.46007
5.46146
5.47039
5.49112
5.51355
5.53152
5.54218
5.54705
5.54971
5.55708
5.56982
5.58365
5.59938
5.61304
5.62257
5.62813
5.63128
5.63508
5.64233
5.65298
5.66656
5.68107
5.69425
5.70484
5.71209
5.71689
5.72094
5.7253
5.73165
5.74198
5.755
5.76788
5.77848
5.78639
5.79117
5.79334
5.79567
5.80053
5.80877
5.8192
5.83007
5.83953
5.84629
5.85063
5.85395
5.85881
5.86675
5.87742
5.88824
5.89605
5.89917
5.89896
5.89876
5.90153
5.9096
5.92143
5.93267
5.93929
5.94068
5.93975
5.94065
5.94638
5.95613
5.96531
5.96975
5.96924
5.96703
5.966
5.96897
5.97645
5.9847
5.98948
5.99023
5.98981
5.99141
5.99626
6.00189
6.0043
6.0024
5.9983
5.99512
5.99521
5.99884
6.00425
6.00842
6.00995
6.01063
1.40001
1.40001
1.40001
1.40001
1.40001
1.40001
1.40001
1.40001
1.40001
1.40001
1.40001
1.40001
1.40001
1.40001
1.40001
1.40001
1.40001
1.40001
1.40001
1.40001
1.40001
1.40001
1.40001
1.40001
1.40001
1.40001
1.40001
1.40001
1.40001
1.40001
1.40001
1.40001
1.40001
1.40001
1.40001
1.40001
1.40001
1.40001
1.40001
1.40001
1.40001
1.40001
1.40001
1.40001
1.40001
1.40001
1.40001
1.40001
1.40001
1.40001
1.40001
1.40001
1.40001
1.40001
1.40001
1.40001
1.40001
1.40001
1.40001
1.40001
1.40001
1.40001
1.40001
1.40001
1.40001
1.40001
1.40001
1.40001
1.40001
1.40001
1.40001
1.40001
1.40001
1.40001
1.40001
1.40001
1.40001
1.40001
1.40001
1.40001
1.40001
1.40001
1.40001
1.40001
1.40001
1.40001
1.40001
1.40001
1.40001
1.40001
1.40001
1.40001
1.40001
1.40001
1.40001
1.40001
1.40001
1.40001
3.0058
5.22208
5.41064
5.43398
5.45432
5.46469
5.4665
5.46309
5.46188
5.46875
5.48975
5.51384
5.53349
5.54487
5.54871
5.54833
5.55195
5.56353
5.57964
5.59812
5.61383
5.62426
5.62946
5.63111
5.63276
5.63835
5.64935
5.66528
5.68223
5.69681
5.70721
5.713
5.71544
5.71721
5.72053
5.72831
5.74159
5.75675
5.76981
5.7787
5.7842
5.78755
5.78965
5.7937
5.80099
5.81085
5.82119
5.83055
5.83811
5.84351
5.8477
5.85199
5.85828
5.86704
5.87728
5.88664
5.89293
5.89562
5.89645
5.89805
5.90264
5.91116
5.9215
5.9304
5.93566
5.93755
5.93846
5.9413
5.94752
5.95563
5.96245
5.96583
5.9662
5.96554
5.96615
5.97013
5.97716
5.98413
5.98777
5.98826
5.98803
5.98975
5.99441
5.9997
6.00209
6.00076
5.99749
5.99493
5.99491
5.99781
6.00247
6.00639
6.00822
6.00918
1.40001
1.40001
1.40001
1.40001
1.40001
1.40001
1.40001
1.40001
1.40001
1.40001
1.40001
1.40001
1.40001
1.40001
1.40001
1.40001
1.40001
1.40001
1.40001
1.40001
1.40001
1.40001
1.40001
1.40001
1.40001
1.40001
1.40001
1.40001
1.40001
1.40001
1.40001
1.40001
1.40001
1.40001
1.40001
1.40001
1.40001
1.40001
1.40001
1.40001
1.40001
1.40001
1.40001
1.40001
1.40001
1.40001
1.40001
1.40001
1.40001
1.40001
1.40001
1.40001
1.40001
1.40001
1.40001
1.40001
1.40001
1.40001
1.40001
1.40001
1.40001
1.40001
1.40001
1.40001
1.40001
1.40001
1.40001
1.40001
1.40001
1.40001
1.40001
1.40001
1.40001
1.40001
1.40001
1.40001
1.40001
1.40001
1.40001
1.40001
1.40001
1.40001
1.40001
1.40001
1.40001
1.40001
1.40001
1.40001
1.40001
1.40001
1.40001
1.40001
1.40001
1.40001
1.40001
1.40001
1.40001
1.40001
2.9286
5.20866
5.40679
5.43056
5.45204
5.46386
5.46841
5.46658
5.46483
5.47082
5.48991
5.51272
5.53172
5.54321
5.54727
5.54687
5.5497
5.56093
5.57836
5.59734
5.61306
5.6234
5.62836
5.62938
5.63032
5.63543
5.64732
5.66492
5.68335
5.69868
5.70846
5.71267
5.71294
5.71293
5.71611
5.7264
5.74255
5.7591
5.77136
5.77804
5.78107
5.78319
5.78589
5.7923
5.80211
5.81297
5.82253
5.83011
5.83562
5.84006
5.84477
5.85065
5.85851
5.8678
5.87702
5.88437
5.88895
5.89141
5.89368
5.89761
5.90424
5.91288
5.92129
5.92758
5.93145
5.93403
5.93713
5.94217
5.94874
5.95496
5.95925
5.96152
5.96271
5.96389
5.96656
5.97154
5.97774
5.98295
5.98546
5.98593
5.98626
5.98835
5.99272
5.99735
5.9995
5.99871
5.9964
5.99455
5.9945
5.99668
6.0005
6.00409
6.00618
6.00739
1.40001
1.40001
1.40001
1.40001
1.40001
1.40001
1.40001
1.40001
1.40001
1.40001
1.40001
1.40001
1.40001
1.40001
1.40001
1.40001
1.40001
1.40001
1.40001
1.40001
1.40001
1.40001
1.40001
1.40001
1.40001
1.40001
1.40001
1.40001
1.40001
1.40001
1.40001
1.40001
1.40001
1.40001
1.40001
1.40001
1.40001
1.40001
1.40001
1.40001
1.40001
1.40001
1.40001
1.40001
1.40001
1.40001
1.40001
1.40001
1.40001
1.40001
1.40001
1.40001
1.40001
1.40001
1.40001
1.40001
1.40001
1.40001
1.40001
1.40001
1.40001
1.40001
1.40001
1.40001
1.40001
1.40001
1.40001
1.40001
1.40001
1.40001
1.40001
1.40001
1.40001
1.40001
1.40001
1.40001
1.40001
1.40001
1.40001
1.40001
1.40001
1.40001
1.40001
1.40001
1.40001
1.40001
1.40001
1.40001
1.40001
1.40001
1.40001
1.40001
1.40001
1.40001
1.40001
1.40001
1.40001
1.40001
2.84221
5.19495
5.40401
5.42636
5.44812
5.46167
5.46887
5.47015
5.4699
5.47554
5.49132
5.51089
5.52785
5.53902
5.54401
5.5459
5.55019
5.56151
5.57863
5.59683
5.61164
5.62124
5.62568
5.6267
5.62806
5.63362
5.64661
5.66524
5.68431
5.69957
5.70837
5.71094
5.70966
5.7087
5.71306
5.72622
5.74459
5.76142
5.77211
5.77627
5.77714
5.77848
5.78242
5.7916
5.80356
5.81483
5.82318
5.82863
5.8323
5.83629
5.8421
5.84992
5.8593
5.86867
5.87636
5.88146
5.88438
5.88681
5.89082
5.89745
5.906
5.91433
5.92055
5.92435
5.92698
5.9303
5.93575
5.94295
5.94965
5.95398
5.95596
5.95728
5.95904
5.9621
5.96687
5.97257
5.97779
5.98128
5.98286
5.98342
5.98444
5.98701
5.99104
5.99482
5.99657
5.99628
5.99497
5.9939
5.99392
5.99552
5.99854
6.00172
6.00396
6.00537
1.40001
1.40001
1.40001
1.40001
1.40001
1.40001
1.40001
1.40001
1.40001
1.40001
1.40001
1.40001
1.40001
1.40001
1.40001
1.40001
1.40001
1.40001
1.40001
1.40001
1.40001
1.40001
1.40001
1.40001
1.40001
1.40001
1.40001
1.40001
1.40001
1.40001
1.40001
1.40001
1.40001
1.40001
1.40001
1.40001
1.40001
1.40001
1.40001
1.40001
1.40001
1.40001
1.40001
1.40001
1.40001
1.40001
1.40001
1.40001
1.40001
1.40001
1.40001
1.40001
1.40001
1.40001
1.40001
1.40001
1.40001
1.40001
1.40001
1.40001
1.40001
1.40001
1.40001
1.40001
1.40001
1.40001
1.40001
1.40001
1.40001
1.40001
1.40001
1.40001
1.40001
1.40001
1.40001
1.40001
1.40001
1.40001
1.40001
1.40001
1.40001
1.40001
1.40001
1.40001
1.40001
1.40001
1.40001
1.40001
1.40001
1.40001
1.40001
1.40001
1.40001
1.40001
1.40001
1.40001
1.40001
1.40001
2.74949
5.17847
5.40174
5.42244
5.44396
5.45869
5.46824
5.47281
5.47529
5.48089
5.49283
5.50855
5.52336
5.5346
5.54097
5.54506
5.55149
5.56333
5.57948
5.59634
5.60991
5.6185
5.62247
5.62396
5.62625
5.63279
5.64687
5.66594
5.68476
5.69926
5.70684
5.70806
5.70618
5.70563
5.71215
5.72772
5.74692
5.76289
5.77152
5.77326
5.7726
5.77389
5.77977
5.79161
5.80505
5.81606
5.82292
5.82623
5.82855
5.83266
5.83993
5.8497
5.86031
5.86925
5.87514
5.87806
5.87961
5.88226
5.88824
5.89752
5.90754
5.91506
5.91909
5.92086
5.92266
5.92685
5.93442
5.94333
5.9499
5.95235
5.95267
5.95341
5.95564
5.96039
5.96682
5.97285
5.97703
5.97919
5.98016
5.98096
5.98271
5.98572
5.98929
5.9921
5.99336
5.99351
5.9932
5.99286
5.99307
5.9943
5.99656
5.99924
6.00147
6.00299
1.40001
1.40001
1.40001
1.40001
1.40001
1.40001
1.40001
1.40001
1.40001
1.40001
1.40001
1.40001
1.40001
1.40001
1.40001
1.40001
1.40001
1.40001
1.40001
1.40001
1.40001
1.40001
1.40001
1.40001
1.40001
1.40001
1.40001
1.40001
1.40001
1.40001
1.40001
1.40001
1.40001
1.40001
1.40001
1.40001
1.40001
1.40001
1.40001
1.40001
1.40001
1.40001
1.40001
1.40001
1.40001
1.40001
1.40001
1.40001
1.40001
1.40001
1.40001
1.40001
1.40001
1.40001
1.40001
1.40001
1.40001
1.40001
1.40001
1.40001
1.40001
1.40001
1.40001
1.40001
1.40001
1.40001
1.40001
1.40001
1.40001
1.40001
1.40001
1.40001
1.40001
1.40001
1.40001
1.40001
1.40001
1.40001
1.40001
1.40001
1.40001
1.40001
1.40001
1.40001
1.40001
1.40001
1.40001
1.40001
1.40001
1.40001
1.40001
1.40001
1.40001
1.40001
1.40001
1.40001
1.40001
1.40001
2.65131
5.15741
5.40038
5.41929
5.44027
5.45569
5.46692
5.47395
5.47917
5.48506
5.49415
5.50683
5.51983
5.53096
5.53891
5.54473
5.55273
5.56495
5.58017
5.59588
5.60848
5.61634
5.61998
5.62183
5.62495
5.63247
5.64753
5.66647
5.68439
5.69769
5.70403
5.70475
5.70324
5.70439
5.71359
5.7303
5.74876
5.76302
5.7692
5.76913
5.76797
5.77019
5.7784
5.79219
5.80618
5.81646
5.82159
5.82321
5.82482
5.82953
5.83842
5.84987
5.86111
5.86921
5.87313
5.87427
5.87492
5.87818
5.88635
5.89787
5.90845
5.91469
5.91659
5.91707
5.91878
5.9242
5.93341
5.94303
5.94893
5.94988
5.94942
5.95003
5.953
5.95902
5.96629
5.97206
5.97518
5.97661
5.97745
5.97872
5.98116
5.9844
5.98727
5.98902
5.98984
5.99045
5.99101
5.99144
5.992
5.99299
5.99461
5.99675
5.99887
6.00038
1.40001
1.40001
1.40001
1.40001
1.40001
1.40001
1.40001
1.40001
1.40001
1.40001
1.40001
1.40001
1.40001
1.40001
1.40001
1.40001
1.40001
1.40001
1.40001
1.40001
1.40001
1.40001
1.40001
1.40001
1.40001
1.40001
1.40001
1.40001
1.40001
1.40001
1.40001
1.40001
1.40001
1.40001
1.40001
1.40001
1.40001
1.40001
1.40001
1.40001
1.40001
1.40001
1.40001
1.40001
1.40001
1.40001
1.40001
1.40001
1.40001
1.40001
1.40001
1.40001
1.40001
1.40001
1.40001
1.40001
1.40001
1.40001
1.40001
1.40001
1.40001
1.40001
1.40001
1.40001
1.40001
1.40001
1.40001
1.40001
1.40001
1.40001
1.40001
1.40001
1.40001
1.40001
1.40001
1.40001
1.40001
1.40001
1.40001
1.40001
1.40001
1.40001
1.40001
1.40001
1.40001
1.40001
1.40001
1.40001
1.40001
1.40001
1.40001
1.40001
1.40001
1.40001
1.40001
1.40001
1.40001
1.40001
2.54781
5.12824
5.4004
5.41706
5.43729
5.4529
5.46491
5.47364
5.4808
5.48733
5.4954
5.50652
5.51826
5.5286
5.53731
5.54436
5.55323
5.56559
5.58039
5.59556
5.60775
5.61527
5.61873
5.62075
5.62444
5.63286
5.64841
5.66668
5.68319
5.69478
5.70014
5.70139
5.7014
5.70507
5.71652
5.73277
5.74959
5.76152
5.76537
5.76449
5.76378
5.76767
5.77806
5.79289
5.8067
5.8159
5.81942
5.81997
5.82142
5.82701
5.83744
5.85014
5.86145
5.86821
5.87017
5.87006
5.87046
5.87495
5.88539
5.89827
5.90842
5.91289
5.91309
5.91305
5.91543
5.92247
5.93288
5.94216
5.94671
5.94663
5.94595
5.94704
5.95115
5.95809
5.96528
5.97004
5.97222
5.97351
5.9748
5.97692
5.97999
5.98309
5.98498
5.98562
5.98616
5.98722
5.98856
5.98975
5.99066
5.99145
5.99251
5.99413
5.99603
5.99746
1.40001
1.40001
1.40001
1.40001
1.40001
1.40001
1.40001
1.40001
1.40001
1.40001
1.40001
1.40001
1.40001
1.40001
1.40001
1.40001
1.40001
1.40001
1.40001
1.40001
1.40001
1.40001
1.40001
1.40001
1.40001
1.40001
1.40001
1.40001
1.40001
1.40001
1.40001
1.40001
1.40001
1.40001
1.40001
1.40001
1.40001
1.40001
1.40001
1.40001
1.40001
1.40001
1.40001
1.40001
1.40001
1.40001
1.40001
1.40001
1.40001
1.40001
1.40001
1.40001
1.40001
1.40001
1.40001
1.40001
1.40001
1.40001
1.40001
1.40001
1.40001
1.40001
1.40001
1.40001
1.40001
1.40001
1.40001
1.40001
1.40001
1.40001
1.40001
1.40001
1.40001
1.40001
1.40001
1.40001
1.40001
1.40001
1.40001
1.40001
1.40001
1.40001
1.40001
1.40001
1.40001
1.40001
1.40001
1.40001
1.40001
1.40001
1.40001
1.40001
1.40001
1.40001
1.40001
1.40001
1.40001
1.40001
2.43898
5.08881
5.40143
5.41548
5.4347
5.45025
5.46256
5.47221
5.48066
5.48815
5.49671
5.50752
5.51842
5.52753
5.53566
5.54316
5.55253
5.56505
5.57989
5.595
5.60709
5.61458
5.61827
5.62068
5.625
5.63404
5.64921
5.66619
5.68068
5.69048
5.69556
5.69838
5.70069
5.70717
5.71942
5.73415
5.74876
5.75821
5.7607
5.76001
5.76065
5.76652
5.77831
5.79329
5.8064
5.81423
5.81661
5.81671
5.81846
5.82516
5.83691
5.8503
5.86113
5.86612
5.86636
5.86556
5.86638
5.87284
5.88533
5.89868
5.90747
5.90961
5.90874
5.90879
5.91258
5.9216
5.93271
5.94079
5.94348
5.94273
5.9423
5.94446
5.95015
5.95758
5.9637
5.96686
5.9683
5.96989
5.97226
5.9756
5.97915
5.98152
5.98213
5.98185
5.98218
5.98374
5.98591
5.98781
5.98898
5.98955
5.99018
5.99135
5.99304
5.99436
1.40001
1.40001
1.40001
1.40001
1.40001
1.40001
1.40001
1.40001
1.40001
1.40001
1.40001
1.40001
1.40001
1.40001
1.40001
1.40001
1.40001
1.40001
1.40001
1.40001
1.40001
1.40001
1.40001
1.40001
1.40001
1.40001
1.40001
1.40001
1.40001
1.40001
1.40001
1.40001
1.40001
1.40001
1.40001
1.40001
1.40001
1.40001
1.40001
1.40001
1.40001
1.40001
1.40001
1.40001
1.40001
1.40001
1.40001
1.40001
1.40001
1.40001
1.40001
1.40001
1.40001
1.40001
1.40001
1.40001
1.40001
1.40001
1.40001
1.40001
1.40001
1.40001
1.40001
1.40001
1.40001
1.40001
1.40001
1.40001
1.40001
1.40001
1.40001
1.40001
1.40001
1.40001
1.40001
1.40001
1.40001
1.40001
1.40001
1.40001
1.40001
1.40001
1.40001
1.40001
1.40001
1.40001
1.40001
1.40001
1.40001
1.40001
1.40001
1.40001
1.40001
1.40001
1.40001
1.40001
1.40001
1.40001
2.32488
5.03923
5.40417
5.41499
5.43305
5.44803
5.46031
5.47027
5.47955
5.48819
5.49798
5.50917
5.51948
5.52751
5.53446
5.54148
5.55103
5.56391
5.57898
5.59409
5.60624
5.61407
5.61855
5.62186
5.62698
5.63607
5.6498
5.66445
5.67658
5.68513
5.69109
5.69618
5.70118
5.70964
5.72127
5.73388
5.74581
5.75342
5.75577
5.75627
5.75883
5.76632
5.77873
5.79318
5.80514
5.81165
5.81332
5.81343
5.81584
5.82379
5.83671
5.85041
5.8601
5.86315
5.86207
5.86083
5.8627
5.87177
5.88598
5.89893
5.90556
5.90537
5.90366
5.90431
5.91019
5.92129
5.93258
5.93896
5.93958
5.93829
5.93847
5.94231
5.94962
5.957
5.9613
5.96267
5.96368
5.96591
5.96988
5.97461
5.97837
5.9797
5.97883
5.97779
5.97812
5.98022
5.98321
5.9857
5.98697
5.98728
5.98756
5.98841
5.98993
5.99115
1.40001
1.40001
1.40001
1.40001
1.40001
1.40001
1.40001
1.40001
1.40001
1.40001
1.40001
1.40001
1.40001
1.40001
1.40001
1.40001
1.40001
1.40001
1.40001
1.40001
1.40001
1.40001
1.40001
1.40001
1.40001
1.40001
1.40001
1.40001
1.40001
1.40001
1.40001
1.40001
1.40001
1.40001
1.40001
1.40001
1.40001
1.40001
1.40001
1.40001
1.40001
1.40001
1.40001
1.40001
1.40001
1.40001
1.40001
1.40001
1.40001
1.40001
1.40001
1.40001
1.40001
1.40001
1.40001
1.40001
1.40001
1.40001
1.40001
1.40001
1.40001
1.40001
1.40001
1.40001
1.40001
1.40001
1.40001
1.40001
1.40001
1.40001
1.40001
1.40001
1.40001
1.40001
1.40001
1.40001
1.40001
1.40001
1.40001
1.40001
1.40001
1.40001
1.40001
1.40001
1.40001
1.40001
1.40001
1.40001
1.40001
1.40001
1.40001
1.40001
1.40001
1.40001
1.40001
1.40001
1.40001
1.40001
2.2056
4.98046
5.4075
5.41534
5.43248
5.44648
5.45833
5.46815
5.47771
5.48739
5.49846
5.51027
5.52054
5.52789
5.53385
5.54018
5.54945
5.5623
5.57738
5.59235
5.60468
5.61328
5.61903
5.62383
5.62969
5.6382
5.64959
5.66129
5.67127
5.67953
5.68727
5.69491
5.70252
5.71174
5.72199
5.73202
5.74124
5.74781
5.75101
5.75348
5.75814
5.76681
5.7792
5.79253
5.80301
5.80838
5.80963
5.80996
5.81334
5.82279
5.83666
5.85017
5.8583
5.85937
5.85735
5.85613
5.85974
5.87153
5.88681
5.89843
5.90244
5.90052
5.8982
5.89984
5.90823
5.92111
5.93197
5.93656
5.93549
5.93367
5.93468
5.94045
5.94913
5.95581
5.95801
5.95795
5.95879
5.96199
5.96778
5.9739
5.97742
5.97735
5.97513
5.97344
5.97397
5.97669
5.98043
5.98329
5.98447
5.98451
5.98455
5.98523
5.98669
5.98788
1.40001
1.40001
1.40001
1.40001
1.40001
1.40001
1.40001
1.40001
1.40001
1.40001
1.40001
1.40001
1.40001
1.40001
1.40001
1.40001
1.40001
1.40001
1.40001
1.40001
1.40001
1.40001
1.40001
1.40001
1.40001
1.40001
1.40001
1.40001
1.40001
1.40001
1.40001
1.40001
1.40001
1.40001
1.40001
1.40001
1.40001
1.40001
1.40001
1.40001
1.40001
1.40001
1.40001
1.40001
1.40001
1.40001
1.40001
1.40001
1.40001
1.40001
1.40001
1.40001
1.40001
1.40001
1.40001
1.40001
1.40001
1.40001
1.40001
1.40001
1.40001
1.40001
1.40001
1.40001
1.40001
1.40001
1.40001
1.40001
1.40001
1.40001
1.40001
1.40001
1.40001
1.40001
1.40001
1.40001
1.40001
1.40001
1.40001
1.40001
1.40001
1.40001
1.40001
1.40001
1.40001
1.40001
1.40001
1.40001
1.40001
1.40001
1.40001
1.40001
1.40001
1.40001
1.40001
1.40001
1.40001
1.40001
2.08384
4.91065
5.41097
5.41692
5.43272
5.44539
5.45642
5.46588
5.47554
5.48605
5.49801
5.51031
5.52085
5.52816
5.53376
5.53985
5.54879
5.56108
5.57551
5.58991
5.60229
5.61188
5.61924
5.62572
5.63236
5.63999
5.64877
5.65753
5.66577
5.6744
5.68409
5.69422
5.70387
5.71304
5.72162
5.72906
5.73614
5.74225
5.74677
5.75136
5.75799
5.76766
5.77958
5.79143
5.80032
5.80464
5.80565
5.80646
5.81124
5.82227
5.83668
5.84923
5.85565
5.85509
5.85254
5.85202
5.85795
5.87178
5.88705
5.89668
5.89813
5.89521
5.89274
5.89578
5.90659
5.9207
5.93064
5.93342
5.93139
5.92942
5.93135
5.93879
5.94809
5.95355
5.95394
5.95306
5.95398
5.95837
5.96589
5.97293
5.97589
5.97433
5.97102
5.96898
5.96987
5.97328
5.97758
5.98053
5.98148
5.98129
5.9812
5.98188
5.98341
5.98463
1.40001
1.40001
1.40001
1.40001
1.40001
1.40001
1.40001
1.40001
1.40001
1.40001
1.40001
1.40001
1.40001
1.40001
1.40001
1.40001
1.40001
1.40001
1.40001
1.40001
1.40001
1.40001
1.40001
1.40001
1.40001
1.40001
1.40001
1.40001
1.40001
1.40001
1.40001
1.40001
1.40001
1.40001
1.40001
1.40001
1.40001
1.40001
1.40001
1.40001
1.40001
1.40001
1.40001
1.40001
1.40001
1.40001
1.40001
1.40001
1.40001
1.40001
1.40001
1.40001
1.40001
1.40001
1.40001
1.40001
1.40001
1.40001
1.40001
1.40001
1.40001
1.40001
1.40001
1.40001
1.40001
1.40001
1.40001
1.40001
1.40001
1.40001
1.40001
1.40001
1.40001
1.40001
1.40001
1.40001
1.40001
1.40001
1.40001
1.40001
1.40001
1.40001
1.40001
1.40001
1.40001
1.40001
1.40001
1.40001
1.40001
1.40001
1.40001
1.40001
1.40001
1.40001
1.40001
1.40001
1.40001
1.40001
1.9647
4.82621
5.41052
5.41803
5.43269
5.44412
5.45453
5.46401
5.47362
5.48447
5.49667
5.50918
5.51993
5.52756
5.53339
5.53973
5.54849
5.56012
5.57356
5.58699
5.59903
5.60938
5.61839
5.62647
5.63397
5.64097
5.64765
5.65392
5.66079
5.66987
5.68122
5.69339
5.70444
5.71333
5.72031
5.72585
5.7314
5.73732
5.74298
5.74949
5.7579
5.76827
5.77955
5.78988
5.7971
5.80032
5.8012
5.80291
5.80957
5.82188
5.83617
5.84725
5.85183
5.85039
5.84793
5.84894
5.85739
5.87215
5.88616
5.89343
5.89298
5.88968
5.88788
5.89277
5.90539
5.91961
5.92819
5.92958
5.92733
5.92569
5.92866
5.93714
5.94591
5.94998
5.9493
5.94804
5.94947
5.95527
5.96425
5.97146
5.97341
5.97064
5.96665
5.9646
5.966
5.97005
5.97458
5.97729
5.97794
5.97758
5.97748
5.97832
5.98007
5.98138
1.40001
1.40001
1.40001
1.40001
1.40001
1.40001
1.40001
1.40001
1.40001
1.40001
1.40001
1.40001
1.40001
1.40001
1.40001
1.40001
1.40001
1.40001
1.40001
1.40001
1.40001
1.40001
1.40001
1.40001
1.40001
1.40001
1.40001
1.40001
1.40001
1.40001
1.40001
1.40001
1.40001
1.40001
1.40001
1.40001
1.40001
1.40001
1.40001
1.40001
1.40001
1.40001
1.40001
1.40001
1.40001
1.40001
1.40001
1.40001
1.40001
1.40001
1.40001
1.40001
1.40001
1.40001
1.40001
1.40001
1.40001
1.40001
1.40001
1.40001
1.40001
1.40001
1.40001
1.40001
1.40001
1.40001
1.40001
1.40001
1.40001
1.40001
1.40001
1.40001
1.40001
1.40001
1.40001
1.40001
1.40001
1.40001
1.40001
1.40001
1.40001
1.40001
1.40001
1.40001
1.40001
1.40001
1.40001
1.40001
1.40001
1.40001
1.40001
1.40001
1.40001
1.40001
1.40001
1.40001
1.40001
1.40001
1.85274
4.72402
5.40659
5.41805
5.43147
5.44248
5.45283
5.46239
5.47211
5.48282
5.4946
5.50705
5.51788
5.52583
5.53221
5.5392
5.54818
5.55949
5.57218
5.58456
5.59576
5.60606
5.61605
5.62569
5.63434
5.64131
5.64671
5.65118
5.65694
5.66613
5.67833
5.69157
5.70344
5.71222
5.71827
5.72282
5.72744
5.73323
5.73967
5.74773
5.75762
5.76851
5.77916
5.788
5.7935
5.79567
5.79675
5.80003
5.80883
5.82176
5.83492
5.84393
5.84676
5.84531
5.84408
5.84752
5.85811
5.87224
5.88345
5.88802
5.88661
5.88385
5.88387
5.89122
5.9046
5.91749
5.92434
5.925
5.92319
5.92251
5.92663
5.93536
5.94279
5.94532
5.94422
5.94319
5.94555
5.95277
5.96262
5.96921
5.96986
5.96628
5.96205
5.96039
5.96238
5.96693
5.97133
5.97351
5.97381
5.97337
5.9734
5.97461
5.97669
5.97815
1.40001
1.40001
1.40001
1.40001
1.40001
1.40001
1.40001
1.40001
1.40001
1.40001
1.40001
1.40001
1.40001
1.40001
1.40001
1.40001
1.40001
1.40001
1.40001
1.40001
1.40001
1.40001
1.40001
1.40001
1.40001
1.40001
1.40001
1.40001
1.40001
1.40001
1.40001
1.40001
1.40001
1.40001
1.40001
1.40001
1.40001
1.40001
1.40001
1.40001