/*--------------------------------*- C++ -*----------------------------------*\
  =========                 |
  \\      /  F ield         | OpenFOAM: The Open Source CFD Toolbox
   \\    /   O peration     | Website:  https://openfoam.org
    \\  /    A nd           | Version:  7
     \\/     M anipulation  |
\*---------------------------------------------------------------------------*/
FoamFile
{
    version     2.0;
    format      ascii;
    class       volScalarField;
    location    "0.8";
    object      p;
}
// * * * * * * * * * * * * * * * * * * * * * * * * * * * * * * * * * * * * * //

dimensions      [1 -1 -2 0 0 0 0];

internalField   nonuniform List<scalar> 
4032
(
1
1
1
1
1
1
1
1
1
1
1
1
1
1.77021
8.57115
11.0004
11.0879
11.3858
11.6271
11.8631
12.0692
12.1942
12.3008
12.3575
1
1
1
1
1
1
1
1
1
1
1
1
1
1.68729
8.33859
10.9529
11.0978
11.38
11.6145
11.8342
12.0198
12.1283
12.2275
12.2835
1
1
1
1
1
1
1
1
1
1
1
1
1
1.48931
7.89986
10.9313
11.0824
11.3523
11.5817
11.7838
11.9454
12.0355
12.1215
12.1748
1
1
1
1
1
1
1
1
1
1
1
1
1
1.20175
7.18699
10.9115
11.0766
11.3205
11.5218
11.6912
11.8294
11.9018
11.9693
12.0084
1
1
1
1
1
1
1
1
1
1
1
1
1
1.00946
6.29921
10.829
10.9987
11.2118
11.3948
11.531
11.6307
11.6899
11.7465
11.8041
1
1
1
1
1
1
1
1
1
1
1
1
1
1.00006
5.24786
10.6088
10.8977
11.06
11.2197
11.3282
11.4275
11.4873
11.5109
11.4716
1
1
1
1
1
1
1
1
1
1
1
1
1
1
4.08503
10.1847
10.7812
10.8835
11.0052
11.0728
11.1178
11.0987
11.0573
10.9869
1
1
1
1
1
1
1
1
1
1
1
1
1
1
2.83605
9.45406
10.6396
10.6808
10.7412
10.755
10.7378
10.6772
10.5826
10.571
1
1
1
1
1
1
1
1
1
1
1
1
1
1
1.68965
8.37963
10.6192
10.5642
10.539
10.4702
10.3194
10.0359
9.28702
7.34259
1
1
1
1
1
1
1
1
1
1
1
1
1
1
1.05137
6.78497
10.2454
10.1611
10.154
10.0669
9.84689
9.3612
8.53628
6.42863
1
1
1
1
1
1
1
1
1
1
1
1
1
1
1.00036
4.62934
9.68311
9.93466
9.88181
9.73341
9.44708
8.87104
7.98776
6.04041
1
1
1
1
1
1
1
1
1
1
1
1
1
1
1
2.47381
8.7808
9.79183
9.58771
9.37958
9.01814
8.46278
7.47724
5.91085
1
1
1
1
1
1
1
1
1
1
1
1
1
1
1
1.16577
6.90257
9.5446
9.26928
9.04663
8.6592
8.11531
7.18258
5.99473
1
1
1
1
1
1
1
1
1
1
1
1
1
1
1
1.00243
4.01381
8.89265
9.13873
8.82808
8.40851
7.84611
7.01923
6.05627
1
1
1
1
1
1
1
1
1
1
1
1
1
1
1
0.999999
1.50446
7.42278
9.03441
8.59852
8.19773
7.64728
6.94184
6.13103
1
1
1
1
1
1
1
1
1
1
1
1
1
1
1
1
1.01946
4.52625
8.40546
8.4414
8.03167
7.50671
6.87187
6.16349
1
1
1
1
1
1
1
1
1
1
1
1
1
1
1
1
1.00004
1.68265
7.02204
8.46138
7.92517
7.40804
6.812
6.18996
1
1
1
1
1
1
1
1
1
1
1
1
1
1
1
1
1
1.03164
3.94444
7.79082
7.83454
7.33357
6.82205
6.26492
1
1
1
1
1
1
1
1
1
1
1
1
1
1
1
1
1
1.00015
1.48833
6.02344
7.88757
7.37357
6.84082
6.30248
1
1
1
1
1
1
1
1
1
1
1
1
1
1
1
1
1
1
1.01574
2.73218
6.80029
7.43921
6.86456
6.38135
1
1
1
1
1
1
1
1
1
1
1
1
1
1
1
1
1
1
1.00007
1.17762
4.28972
7.06231
6.85137
6.37683
1
1
1
1
1
1
1
1
1
1
1
1
1
1
1
1
1
1
1
1.0029
1.69172
5.38293
6.87481
6.49781
1
1
1
1
1
1
1
1
1
1
1
1
1
1
1
1
1
1
1
1.00001
1.03215
2.45293
5.82445
6.54732
1
1
1
1
1
1
1
1
1
1
1
1
1
1
1
1
1
1
1
1
1.00026
1.13307
3.15557
5.90356
1
1
1
1
1
1
1
1
1
1
1
1
1
1
1
1
1
1
1
1
1
1.00218
1.30393
3.67653
1
1
1
1
1
1
1
1
1
1
1
1
1
1
1
1
1
1
1
1
1
1.00001
1.0084
1.50943
1
1
1
1
1
1
1
1
1
1
1
1
1
1
1
1
1
1
1
1
1
1
1.00004
1.02062
1
1
1
1
1
1
1
1
1
1
1
1
1
1
1
1
1
1
1
1
1
1
1
1.00016
1
1
1
1
1
1
1
1
1
1
1
1
1
1
1
1
1
1
1
1
1
1
1
1
1
1
1
1
1
1
1
1
1
1
1
1
1
1
1
1
1
1
1
1
1
1
1
1
1
1
1
1
1
1
1
1
1
1
1
1
1
1
1
1
1
1
1
1
1
1
1
1
1
1
1
1
1
1
1
1
1
1
1
1
1
1
1
1
1
1
1
1
1
1
1
1
1
1
1
1
1
1
1
1
1
1
1
1
1
1
1
1
1
1
1
1
1
1
1
1
1
1
1
1
1
1
1
1
1
1
1
1
1
1
1
1
1
1
1
1
1
1
1
1
1
1
1
1
1
1
1
1
1
1
1
1
1
1
1
1
1
1
1
1
1
1
1
1
1
1
1
1
1
1
1
1
1
1
1
1
1
1
1
1
1
1
1
1
1
1
1
1
1
1
1
1
1
1
1
1
1
1
1
1
1
1
1
1
1
1
1
1
1
1
1
1
1
1
1
1
1
1
1
1
1
1
1
1
1
1
1
1
1
1
1
1
1
1
1
1
1
1
1
1
1
1
1
1
1
1
1
1
1
1
1
1
1
1
1
1
1
1
1
1
1
1
1
1
1
1
1
1
1
1
1
1
1
1
1
1
1
1
1
1
1
1
1
1
1.62057
0.430023
0.137311
0.152149
0.23163
0.300979
0.374953
0.492155
0.661728
0.782365
0.830469
0.897263
0.972715
1.00093
1.03539
1.08465
1.10231
1.10048
1.084
1.07012
1.06306
1.0517
1.03791
1.03145
1.02449
1.01834
1.01138
1.0019
0.982424
0.960739
0.955933
0.953658
0.952923
0.959241
0.966079
0.966306
0.964157
0.955515
0.936978
0.918759
0.908129
0.898368
0.891341
0.88878
0.891081
0.897334
0.898791
0.894744
0.879994
0.852933
0.833512
0.827883
0.828412
0.830656
0.835656
0.842385
0.846782
0.848587
0.851674
0.855793
0.858851
0.862692
0.869014
0.874542
0.880723
0.889128
0.897189
0.902789
0.907017
0.908775
0.907949
0.907414
0.908065
0.910427
0.915526
0.921574
0.930289
0.936819
0.9407
0.943783
0.946563
0.948886
0.951222
0.95436
0.960529
0.966455
0.965442
0.953517
0.965155
1.00692
1.01529
1.00808
0.999488
0.996153
0.994627
0.996914
2.81304
1.55973
0.875811
0.646842
0.627544
0.56139
0.514765
0.522669
0.517688
0.54574
0.59598
0.663399
0.743014
0.820572
0.879272
0.937778
0.985561
1.00022
1.00657
1.00837
1.02563
1.0267
1.02224
1.01716
1.01423
1.01495
1.00944
1.00181
0.9913
0.978897
0.974015
0.969067
0.964848
0.964353
0.961825
0.957296
0.953633
0.947709
0.935355
0.925511
0.917976
0.905867
0.890747
0.880342
0.876249
0.876912
0.879522
0.877409
0.869681
0.861281
0.854766
0.846531
0.836774
0.830772
0.829728
0.832996
0.839861
0.848703
0.855177
0.861765
0.869193
0.870015
0.869146
0.871103
0.874357
0.881147
0.891764
0.901549
0.909369
0.915305
0.919131
0.923091
0.924051
0.913654
0.910144
0.912733
0.921401
0.931608
0.937046
0.94035
0.942219
0.94313
0.94377
0.945296
0.944911
0.942332
0.944717
0.956968
0.970465
0.99766
1.00377
0.997542
0.99045
0.987279
0.986071
0.990431
3.67224
2.4562
1.7557
1.28037
1.02946
0.832253
0.671416
0.633095
0.601798
0.562413
0.584065
0.638586
0.689626
0.729772
0.768749
0.809606
0.860493
0.898686
0.930427
0.967883
1.01219
1.04714
1.05201
1.04858
1.0519
1.04405
1.02762
1.00858
0.988977
0.976305
0.973312
0.966688
0.961129
0.960507
0.9605
0.958732
0.949563
0.937994
0.933948
0.933854
0.930371
0.922383
0.910042
0.897209
0.884349
0.86943
0.850585
0.84128
0.843083
0.847961
0.854637
0.856518
0.8545
0.850876
0.84259
0.831242
0.825114
0.830714
0.840146
0.851744
0.869585
0.882487
0.884009
0.88299
0.879119
0.876311
0.881326
0.888666
0.897202
0.908124
0.917682
0.927455
0.937429
0.927745
0.917284
0.911488
0.912089
0.920147
0.929416
0.935425
0.940247
0.944523
0.947466
0.948428
0.948432
0.950057
0.957339
0.973346
0.982687
0.985938
0.991414
0.995396
0.99619
0.994493
0.994175
1.00112
4.31001
3.21701
2.38889
1.88355
1.54811
1.26825
1.01091
0.921555
0.864134
0.766972
0.701195
0.698848
0.682947
0.652741
0.658053
0.675508
0.715528
0.761978
0.811217
0.86159
0.904878
0.954102
0.973236
0.98933
1.01701
1.03579
1.03901
1.02929
1.01056
0.995567
0.985793
0.973187
0.960881
0.956239
0.955977
0.956693
0.946426
0.934279
0.933544
0.934866
0.932656
0.925105
0.91277
0.899011
0.886258
0.868727
0.846608
0.840121
0.843337
0.846672
0.851733
0.8555
0.856045
0.855548
0.848906
0.835168
0.827057
0.830105
0.837975
0.849232
0.864952
0.878794
0.883766
0.883911
0.883684
0.885225
0.888955
0.893726
0.899689
0.907482
0.913979
0.920132
0.92752
0.928377
0.922008
0.917689
0.916893
0.921772
0.931606
0.938995
0.942089
0.942746
0.942431
0.941493
0.942555
0.951141
0.97049
0.995538
0.990266
0.969926
0.972034
0.980545
0.99265
1.00273
1.00659
1.01031
4.76316
3.82728
3.03135
2.40217
1.99273
1.67243
1.3832
1.25156
1.13604
0.998283
0.868174
0.823147
0.771639
0.698771
0.659656
0.666123
0.680901
0.685332
0.70095
0.743999
0.793704
0.840733
0.879848
0.909348
0.941063
0.9741
0.983489
0.978468
0.982656
0.998184
1.00919
1.00464
0.991962
0.98023
0.965485
0.948262
0.931521
0.92169
0.920807
0.92414
0.929364
0.930861
0.925757
0.912632
0.889058
0.855669
0.837561
0.837734
0.841735
0.845928
0.854325
0.859236
0.8596
0.858745
0.850396
0.834238
0.827916
0.831671
0.839085
0.849741
0.864789
0.876614
0.878781
0.878505
0.879264
0.882511
0.8872
0.894822
0.906954
0.914954
0.919135
0.922367
0.924261
0.922608
0.918762
0.916735
0.918496
0.924611
0.932369
0.936672
0.9365
0.934438
0.932472
0.931998
0.936558
0.950427
0.976594
1.00457
0.993049
0.969098
0.97017
0.981923
1.00269
1.01398
1.01323
1.01083
5.06949
4.22807
3.48663
2.88851
2.4663
2.08549
1.72984
1.54295
1.40435
1.26105
1.123
1.04566
0.96682
0.865936
0.769513
0.758959
0.737655
0.700744
0.68812
0.693539
0.699453
0.703803
0.725633
0.76971
0.821978
0.885839
0.920736
0.925497
0.935069
0.955284
0.972332
0.975481
0.975564
0.97961
0.97717
0.96342
0.944787
0.932418
0.925088
0.922997
0.925494
0.929056
0.929085
0.918524
0.891485
0.853412
0.838802
0.838823
0.840823
0.844855
0.853632
0.857131
0.857833
0.857512
0.850625
0.83516
0.828826
0.830716
0.835456
0.843432
0.857386
0.872275
0.87845
0.879592
0.880643
0.883217
0.887886
0.895389
0.906039
0.914244
0.918936
0.922029
0.922903
0.921175
0.918399
0.917293
0.920917
0.929234
0.937452
0.941417
0.94138
0.938448
0.932578
0.928345
0.93495
0.955825
0.985524
1.00417
0.984461
0.965075
0.971212
0.991212
1.01194
1.01546
1.01326
1.00835
5.27655
4.545
3.87223
3.25962
2.82423
2.44958
2.10727
1.87701
1.68937
1.47422
1.31723
1.2359
1.15337
1.0419
0.918499
0.876097
0.83684
0.781736
0.715018
0.703653
0.702189
0.690559
0.683364
0.691055
0.715965
0.754312
0.80081
0.8432
0.867017
0.893443
0.927051
0.938516
0.946804
0.952838
0.956239
0.957521
0.955177
0.951311
0.947992
0.940949
0.930436
0.923941
0.918398
0.908035
0.889616
0.863547
0.847776
0.846402
0.847065
0.851917
0.857002
0.855215
0.854414
0.852335
0.844283
0.832314
0.828709
0.829658
0.833021
0.841083
0.854233
0.868432
0.87684
0.878599
0.879495
0.8833
0.890322
0.898218
0.905351
0.910791
0.914941
0.918074
0.919512
0.918914
0.917695
0.91991
0.927882
0.937276
0.942636
0.943339
0.940507
0.933534
0.924776
0.924143
0.941945
0.973584
0.996034
0.992575
0.971515
0.962417
0.973643
0.99743
1.01253
1.01377
1.01172
1.00527
5.42415
4.76685
4.13328
3.59735
3.18281
2.77354
2.38942
2.15597
1.96633
1.748
1.54778
1.42971
1.32227
1.20133
1.07884
1.03188
0.987352
0.924136
0.833115
0.795075
0.775718
0.738562
0.702562
0.692853
0.695901
0.69908
0.704906
0.723273
0.754077
0.7906
0.833879
0.876115
0.898277
0.907859
0.924769
0.939602
0.941928
0.944759
0.949696
0.949427
0.939243
0.923711
0.911242
0.901972
0.890031
0.872561
0.855243
0.85063
0.850386
0.853218
0.853164
0.848683
0.845153
0.842114
0.836807
0.831745
0.83001
0.830584
0.833868
0.841789
0.851465
0.86207
0.872205
0.873616
0.874895
0.882497
0.894703
0.902645
0.906769
0.909634
0.913281
0.917059
0.918258
0.916838
0.916766
0.923212
0.933503
0.939798
0.940582
0.936176
0.9256
0.91378
0.913426
0.936094
0.978255
1.00638
0.998981
0.978024
0.962724
0.960485
0.974002
0.998331
1.01
1.01057
1.00903
1.00516
5.54061
4.96084
4.39784
3.85475
3.43263
3.06221
2.69866
2.42378
2.19632
1.94757
1.7549
1.63183
1.52175
1.38199
1.22895
1.15681
1.10484
1.04364
0.9617
0.89889
0.863616
0.819405
0.756353
0.71019
0.706683
0.706571
0.70411
0.702485
0.70317
0.707362
0.721228
0.745693
0.782278
0.819515
0.854406
0.899978
0.923031
0.929842
0.939273
0.943881
0.943061
0.934824
0.922437
0.910282
0.897021
0.883241
0.865272
0.847578
0.844669
0.844954
0.843801
0.83945
0.836339
0.836141
0.836971
0.836829
0.835497
0.834822
0.836172
0.839649
0.842914
0.848954
0.86203
0.86939
0.874906
0.888645
0.903783
0.907926
0.908767
0.90864
0.909059
0.910949
0.913035
0.915534
0.922791
0.933703
0.937917
0.935112
0.929753
0.920446
0.908174
0.905378
0.932455
0.992614
1.02327
1.00475
0.979136
0.96311
0.957702
0.959899
0.976446
1.00005
1.00648
1.00666
1.0059
1.00381
5.67084
5.1199
4.59246
4.10276
3.69295
3.30482
2.94137
2.66651
2.43454
2.19375
1.95827
1.78057
1.66244
1.54975
1.42442
1.31718
1.23403
1.16145
1.08292
1.01388
0.96985
0.927517
0.868493
0.798004
0.779253
0.767553
0.749089
0.730102
0.715704
0.703893
0.684132
0.676975
0.681949
0.703755
0.744439
0.796817
0.856094
0.897112
0.913286
0.920509
0.925037
0.931392
0.938055
0.933375
0.923044
0.907604
0.883849
0.85313
0.835444
0.832047
0.830936
0.831547
0.83324
0.838223
0.844238
0.844718
0.84349
0.839021
0.834262
0.832312
0.831175
0.8357
0.851962
0.870873
0.884208
0.898217
0.906211
0.907867
0.907246
0.904933
0.902099
0.90256
0.908951
0.923777
0.943179
0.948536
0.937795
0.925157
0.914966
0.904883
0.901291
0.925584
0.991547
1.03098
1.01092
0.985968
0.964107
0.953668
0.952127
0.961025
0.985041
1.00227
1.00342
1.003
1.00226
1.00285
5.75148
5.23903
4.76175
4.30195
3.89067
3.52238
3.18253
2.88613
2.62233
2.38569
2.1805
1.99547
1.82383
1.68025
1.57466
1.46567
1.36435
1.28521
1.21091
1.14118
1.07317
1.01099
0.955659
0.900056
0.856318
0.819828
0.788921
0.771027
0.75267
0.724469
0.687259
0.671578
0.671256
0.670747
0.677027
0.700259
0.73568
0.787208
0.825105
0.851012
0.8788
0.907437
0.92759
0.93731
0.936186
0.928796
0.908676
0.870786
0.834531
0.825543
0.824287
0.825766
0.831188
0.840268
0.847763
0.848596
0.846462
0.837576
0.827962
0.82409
0.822974
0.830726
0.854817
0.88369
0.893462
0.897068
0.899959
0.900714
0.899572
0.897379
0.894691
0.899232
0.919195
0.949931
0.961949
0.946173
0.924146
0.908736
0.899175
0.895761
0.913664
0.975575
1.03025
1.01596
0.989054
0.964691
0.946473
0.94494
0.951118
0.971202
0.997569
1.00357
1.00255
1.00177
1.00131
1.00264
5.88421
5.3944
4.92559
4.49872
4.10521
3.72113
3.38195
3.10148
2.84077
2.58256
2.36435
2.17544
1.98887
1.84186
1.73976
1.63456
1.5119
1.38375
1.30726
1.26191
1.20146
1.12657
1.05607
1.00768
0.958806
0.902913
0.849962
0.832656
0.822404
0.79713
0.74814
0.713979
0.703048
0.691541
0.676011
0.669229
0.672121
0.684137
0.707966
0.74104
0.787552
0.844574
0.892314
0.910603
0.914221
0.914414
0.907529
0.883483
0.849404
0.837076
0.83342
0.832718
0.836652
0.840722
0.843011
0.84295
0.839251
0.828664
0.820902
0.819106
0.821468
0.836267
0.870518
0.890459
0.891405
0.890282
0.890931
0.890076
0.887253
0.886872
0.890866
0.909154
0.946058
0.96792
0.95557
0.930418
0.907795
0.893967
0.888536
0.900793
0.951594
1.01693
1.01747
0.990825
0.967822
0.943978
0.940766
0.944966
0.960843
0.989415
1.00299
1.0036
1.00246
1.00117
1.00071
1.00281
5.91691
5.4807
5.03818
4.61083
4.24375
3.90725
3.57895
3.27667
3.0072
2.76786
2.56986
2.3864
2.17511
1.97183
1.87337
1.80015
1.70187
1.56801
1.41327
1.34451
1.29355
1.23181
1.15961
1.11136
1.0667
1.01145
0.933601
0.875002
0.86527
0.849748
0.814061
0.768304
0.748322
0.731147
0.699491
0.67107
0.668197
0.673689
0.677737
0.682855
0.703754
0.749953
0.809161
0.85117
0.876277
0.888029
0.88824
0.875009
0.861563
0.855389
0.850524
0.847347
0.848196
0.844378
0.839772
0.835379
0.8274
0.819331
0.815204
0.816053
0.823053
0.842054
0.872121
0.883673
0.8812
0.880425
0.881277
0.880714
0.879558
0.88326
0.89887
0.931792
0.96379
0.960552
0.939167
0.917133
0.902584
0.890995
0.892083
0.929517
0.996447
1.01444
0.991763
0.969309
0.946647
0.940422
0.944596
0.960045
0.987934
1.00193
1.00242
1.00142
0.999605
0.998834
0.999574
1.0026
6.02539
5.5837
5.15476
4.75386
4.38767
4.04547
3.73396
3.45776
3.19179
2.92327
2.70278
2.53638
2.36673
2.17866
2.01255
1.9043
1.81682
1.70999
1.57332
1.47305
1.40628
1.33168
1.24121
1.1931
1.16213
1.1165
1.04262
0.960308
0.936229
0.917597
0.885566
0.841191
0.818109
0.800845
0.766045
0.712982
0.691055
0.692431
0.690221
0.683679
0.681416
0.692674
0.722905
0.759638
0.792661
0.823214
0.848553
0.851685
0.848469
0.850116
0.852946
0.857425
0.858089
0.852531
0.844987
0.835277
0.826513
0.820443
0.816641
0.818854
0.826947
0.83972
0.853524
0.860576
0.863161
0.86648
0.87035
0.875408
0.885151
0.901935
0.925768
0.951197
0.957314
0.942375
0.92345
0.911728
0.906157
0.902559
0.914565
0.965297
1.00551
0.992856
0.970881
0.951716
0.942725
0.945945
0.959926
0.985797
1.00053
1.00204
1.00198
0.999237
0.994641
0.994128
0.994724
1.00066
6.1694
5.71194
5.29751
4.90543
4.54746
4.21612
3.89527
3.60009
3.34816
3.11042
2.88656
2.68727
2.51187
2.33277
2.161
2.04005
1.94579
1.83857
1.6965
1.58493
1.51879
1.44787
1.35025
1.28471
1.24919
1.19778
1.12253
1.03862
1.01504
0.996615
0.96125
0.908885
0.880417
0.86289
0.828873
0.767046
0.724871
0.719763
0.714066
0.693326
0.682819
0.69106
0.70091
0.703856
0.711678
0.73167
0.766767
0.803192
0.81936
0.827295
0.836265
0.847259
0.850467
0.848565
0.846314
0.842867
0.838594
0.833572
0.83023
0.831553
0.834095
0.835831
0.837467
0.839977
0.84513
0.852449
0.860354
0.8711
0.888875
0.911744
0.93061
0.938825
0.934464
0.92182
0.91005
0.903762
0.903276
0.908978
0.930324
0.973301
0.98954
0.973654
0.958312
0.951386
0.95284
0.963562
0.984928
0.99536
0.996652
0.996904
0.993908
0.99081
0.990943
0.991697
0.992713
1.00038
6.25613
5.88072
5.41643
5.03677
4.71092
4.38205
4.05609
3.77128
3.51848
3.25864
3.01271
2.82592
2.68034
2.52059
2.32419
2.14284
2.05501
1.96641
1.84591
1.71913
1.63242
1.55087
1.44271
1.3732
1.33951
1.29961
1.22071
1.11064
1.08149
1.06603
1.03416
0.981496
0.947307
0.93007
0.897069
0.836805
0.785391
0.775859
0.772549
0.753961
0.718543
0.713898
0.714045
0.704943
0.690712
0.690627
0.701647
0.730174
0.763105
0.785812
0.806456
0.827194
0.832447
0.831332
0.8304
0.831023
0.833649
0.83574
0.837632
0.840422
0.843035
0.843082
0.839085
0.83646
0.839208
0.846174
0.855741
0.868637
0.885689
0.904515
0.918245
0.921544
0.916252
0.908224
0.901346
0.89781
0.900567
0.913781
0.941304
0.969863
0.973437
0.963255
0.958298
0.962063
0.972257
0.984965
0.990898
0.992377
0.99189
0.985778
0.979587
0.979483
0.982012
0.988042
0.995691
1.01164
5.79738
5.99553
5.63639
5.17581
4.83179
4.54147
4.22992
3.91946
3.67297
3.44213
3.2056
2.95396
2.78005
2.65352
2.49964
2.3188
2.18603
2.06974
1.94015
1.82716
1.75461
1.6786
1.5706
1.45006
1.41079
1.38367
1.31659
1.21303
1.16353
1.14363
1.11032
1.04827
1.00654
0.988764
0.961393
0.909822
0.849908
0.834493
0.829678
0.810857
0.765443
0.739761
0.730569
0.713443
0.691727
0.688977
0.694856
0.703261
0.715752
0.731586
0.754551
0.782218
0.798551
0.802096
0.802227
0.803854
0.810531
0.817612
0.822327
0.827412
0.836202
0.84634
0.849444
0.847402
0.846337
0.849173
0.857269
0.869806
0.8836
0.896522
0.907242
0.91291
0.912931
0.909812
0.906416
0.905301
0.912857
0.936094
0.965344
0.974011
0.966482
0.961599
0.965775
0.975379
0.98353
0.986957
0.987485
0.985703
0.979454
0.977938
0.978594
0.978562
0.980266
0.985792
1.00088
1.03022
3.95364
5.63151
5.76233
5.41997
4.99655
4.64652
4.36274
4.1087
3.8438
3.57721
3.34197
3.12573
2.94993
2.79088
2.61613
2.4364
2.31169
2.21168
2.08352
1.9364
1.84819
1.77688
1.68163
1.56617
1.51042
1.46876
1.40248
1.29816
1.23781
1.21906
1.18881
1.12879
1.07072
1.05122
1.02622
0.981126
0.918871
0.898721
0.893433
0.875838
0.830308
0.786111
0.772946
0.757964
0.72869
0.710315
0.709416
0.711506
0.713891
0.719301
0.723566
0.734725
0.749374
0.75872
0.764654
0.771005
0.782148
0.794454
0.801635
0.806724
0.815065
0.8275
0.838275
0.842149
0.840829
0.840976
0.84805
0.860073
0.871344
0.879893
0.887636
0.894548
0.900368
0.907751
0.916828
0.926676
0.942528
0.972618
0.991563
0.985857
0.975984
0.970925
0.972054
0.977611
0.981704
0.98172
0.978494
0.972379
0.9722
0.974755
0.978983
0.983477
0.991379
1.00839
1.03499
1.05123
1.67961
4.06217
5.43722
5.53849
5.24676
4.85016
4.49065
4.23451
3.99639
3.75545
3.51283
3.27205
3.08068
2.93407
2.7848
2.59926
2.41136
2.30496
2.19832
2.06841
1.97835
1.90155
1.79379
1.64931
1.58663
1.55596
1.50037
1.4122
1.3285
1.2929
1.25665
1.19019
1.13692
1.11943
1.09994
1.06347
0.995213
0.961572
0.950384
0.928064
0.885209
0.836517
0.819644
0.806562
0.780163
0.740815
0.731774
0.726545
0.718847
0.716173
0.715545
0.721449
0.734729
0.748742
0.758603
0.766962
0.775645
0.786043
0.794563
0.800231
0.80665
0.817801
0.832767
0.844714
0.849579
0.851703
0.856367
0.864537
0.872065
0.876898
0.87991
0.883545
0.889534
0.899783
0.915421
0.933371
0.95646
0.987967
1.00045
0.995755
0.985997
0.975018
0.971658
0.973139
0.974739
0.975163
0.972813
0.970164
0.971155
0.973752
0.978033
0.990484
1.01766
1.04692
1.05872
1.05912
1.03522
1.79267
4.00022
5.22387
5.34734
5.09976
4.70778
4.40093
4.14808
3.88183
3.65948
3.47419
3.26267
3.03514
2.89061
2.75266
2.57438
2.43431
2.31341
2.16392
2.06733
2.01233
1.92669
1.78486
1.68262
1.6386
1.57873
1.494
1.42191
1.38317
1.34077
1.26458
1.19085
1.17613
1.16684
1.13596
1.07804
1.03894
1.0147
0.984536
0.935161
0.878888
0.865391
0.857175
0.837506
0.800295
0.781358
0.770709
0.756827
0.744517
0.739509
0.73816
0.744713
0.756119
0.771496
0.789006
0.806511
0.828106
0.855411
0.883291
0.906874
0.93049
0.956285
0.982442
1.00932
1.03483
1.04787
1.04518
1.03689
1.02647
1.01249
0.995456
0.983594
0.980607
0.986954
0.994856
1.0148
1.02748
1.01862
1.00781
0.995482
0.984633
0.976673
0.970892
0.970627
0.972597
0.974236
0.975087
0.977541
0.983584
0.997832
1.025
1.05064
1.05754
1.05855
1.05825
1.00035
1.04729
1.81462
3.82376
5.07414
5.17031
4.95127
4.61219
4.3321
4.045
3.78867
3.61114
3.42461
3.20396
3.01371
2.87867
2.70593
2.54698
2.44321
2.3219
2.18741
2.10288
2.01771
1.88849
1.79518
1.7441
1.68296
1.59493
1.50188
1.45836
1.41496
1.33926
1.26365
1.25032
1.23987
1.20882
1.14917
1.10674
1.07621
1.04059
0.990743
0.930045
0.912224
0.905657
0.889198
0.856383
0.836389
0.827501
0.81747
0.802235
0.798013
0.810347
0.841429
0.894313
0.963566
1.03405
1.09136
1.14118
1.19143
1.23741
1.27245
1.30106
1.32698
1.35397
1.38204
1.40464
1.41574
1.40651
1.39065
1.37346
1.35445
1.33493
1.31857
1.30902
1.31075
1.31945
1.30998
1.26759
1.20183
1.14052
1.0944
1.05567
1.02187
0.998397
0.984862
0.978887
0.979209
0.982957
0.99091
1.00922
1.03831
1.05434
1.05621
1.0563
1.05601
1.05308
1
1.00053
1.05208
1.73956
3.70788
4.83681
4.94537
4.85075
4.57452
4.22681
3.93934
3.75453
3.57153
3.35673
3.13234
3.01099
2.87382
2.68153
2.53158
2.43541
2.32497
2.22983
2.13778
1.99985
1.87783
1.82994
1.77579
1.6905
1.59894
1.54824
1.50164
1.42374
1.33808
1.31941
1.31096
1.28012
1.22104
1.17514
1.13784
1.09679
1.04188
0.98194
0.965897
0.965077
0.960314
0.946787
0.951943
0.982981
1.02596
1.06499
1.12299
1.20449
1.28965
1.37901
1.46875
1.53986
1.57831
1.59695
1.60239
1.60009
1.59358
1.58303
1.58067
1.59163
1.60025
1.59573
1.57725
1.55228
1.5327
1.51661
1.4996
1.48525
1.48206
1.49189
1.50722
1.51566
1.51072
1.49461
1.46843
1.43481
1.39505
1.34301
1.27112
1.19034
1.12021
1.06605
1.03191
1.01774
1.01855
1.03531
1.05156
1.05445
1.05523
1.05553
1.05565
1.04788
1
1
1.00061
1.04598
1.66371
3.46517
4.50964
4.81471
4.76648
4.49407
4.14396
3.89564
3.71482
3.50428
3.28236
3.14218
3.00196
2.83147
2.68873
2.56516
2.41381
2.31529
2.2512
2.13938
1.99718
1.92406
1.86711
1.77794
1.67997
1.63337
1.58724
1.51643
1.42748
1.4013
1.38709
1.34968
1.27833
1.23271
1.19924
1.16504
1.11816
1.0717
1.07293
1.10168
1.1813
1.29504
1.41992
1.55111
1.64276
1.70344
1.76551
1.79773
1.8032
1.82025
1.84912
1.85708
1.84524
1.82127
1.78693
1.74019
1.70746
1.68115
1.65998
1.65518
1.64515
1.61653
1.58234
1.54583
1.52451
1.50906
1.49371
1.48472
1.48956
1.49964
1.5021
1.49547
1.48606
1.47521
1.4695
1.47567
1.48416
1.484
1.47057
1.4477
1.41165
1.35944
1.30311
1.24067
1.16614
1.09412
1.0571
1.05116
1.05004
1.04569
1.03987
1.02202
1
1
1
1.00054
1.03723
1.57136
3.0339
4.27124
4.7199
4.66422
4.40846
4.11001
3.87833
3.61753
3.43173
3.29763
3.13716
2.94886
2.80524
2.71354
2.56447
2.40475
2.33363
2.24993
2.12779
2.03521
1.96879
1.86585
1.7681
1.72193
1.67977
1.61005
1.50369
1.4737
1.4595
1.42384
1.35494
1.3112
1.29767
1.30849
1.35487
1.43563
1.56163
1.72503
1.92847
2.09876
2.19919
2.22835
2.24568
2.23694
2.18779
2.11744
2.07536
2.03925
2.01834
1.9808
1.93951
1.89866
1.84609
1.78045
1.74241
1.71824
1.69982
1.68738
1.66199
1.62764
1.57613
1.52568
1.5056
1.49426
1.48703
1.49137
1.4963
1.47997
1.46574
1.45577
1.44512
1.43239
1.43226
1.44305
1.45682
1.45788
1.45955
1.47838
1.5042
1.51564
1.5172
1.50151
1.46066
1.37477
1.23945
1.10658
1.03723
1.01593
1.00628
0.994055
1
1
1
1
1.0004
1.02794
1.40639
2.57464
4.09989
4.56869
4.48778
4.30826
4.10016
3.80924
3.5864
3.41548
3.26461
3.08909
2.91911
2.84222
2.71152
2.53028
2.43242
2.35904
2.24455
2.14925
2.07792
1.96834
1.84352
1.80412
1.77142
1.709
1.60218
1.5587
1.55011
1.53868
1.55621
1.62843
1.78823
2.00314
2.21676
2.41225
2.49905
2.60024
2.69759
2.66787
2.58315
2.51849
2.46595
2.40345
2.31311
2.2072
2.14385
2.08663
2.02777
1.97266
1.92125
1.86736
1.8058
1.74147
1.70487
1.68588
1.67176
1.64994
1.6207
1.58612
1.54052
1.49911
1.48
1.46714
1.45625
1.45029
1.4471
1.43447
1.42288
1.41172
1.39786
1.38571
1.38303
1.39114
1.40362
1.41075
1.42012
1.44137
1.47783
1.51261
1.53206
1.54124
1.54432
1.53523
1.49377
1.39815
1.24812
1.10355
1.01682
0.98859
1
1
1
1
1
1.00025
1.01584
1.24421
2.25035
3.8802
4.25454
4.28215
4.25116
4.06247
3.77522
3.55556
3.4071
3.20526
3.04464
2.97077
2.85143
2.66627
2.52257
2.45629
2.36642
2.26701
2.18745
2.07248
1.9326
1.88494
1.86315
1.82101
1.77385
1.81773
1.94799
2.18724
2.50716
2.75475
2.94572
3.13206
3.17773
3.13572
3.09345
3.06064
3.01501
2.9205
2.79962
2.70243
2.63109
2.54306
2.42554
2.3185
2.25778
2.20307
2.1462
2.08993
2.02892
1.96298
1.89872
1.84523
1.80795
1.77958
1.74903
1.71334
1.67678
1.63422
1.58488
1.55357
1.53603
1.51881
1.50086
1.48335
1.46248
1.45165
1.4435
1.42974
1.41299
1.39691
1.38006
1.36941
1.36952
1.37736
1.39558
1.41902
1.44244
1.47271
1.50777
1.53389
1.54438
1.54712
1.541
1.51803
1.46996
1.37832
1.25735
1.09834
1
1
1
1
1
1
1.00011
1.0075
1.14878
2.03703
3.39005
3.95062
4.20903
4.1957
4.00822
3.78052
3.58795
3.32201
3.18381
3.08762
2.94953
2.80658
2.68771
2.56835
2.44251
2.36122
2.28965
2.20201
2.06966
2.03534
2.10412
2.29768
2.60741
2.97461
3.25908
3.63781
3.77141
3.72747
3.67285
3.6067
3.4754
3.29186
3.19344
3.10762
2.99639
2.86973
2.74984
2.64098
2.54009
2.44053
2.33161
2.2459
2.1774
2.11164
2.04967
1.99956
1.95387
1.90129
1.84502
1.79431
1.75328
1.71812
1.68348
1.64646
1.60621
1.56492
1.52969
1.50765
1.4893
1.46905
1.44768
1.42682
1.40789
1.3887
1.3732
1.36164
1.35119
1.34622
1.34405
1.33884
1.33087
1.32344
1.31922
1.32329
1.33413
1.34903
1.37295
1.41129
1.45393
1.48453
1.4987
1.49847
1.48436
1.4746
1.45176
1.35394
1
1
1
1
1
1
1
1.00004
1.00375
1.09798
1.74991
2.76212
3.68192
4.11954
4.10299
3.96748
3.77452
3.54644
3.37031
3.21238
3.04606
2.87795
2.79296
2.72252
2.60403
2.46023
2.42054
2.48031
2.6527
2.99778
3.44118
3.94956
4.37523
4.44114
4.48914
4.51604
4.43288
4.24542
4.1036
3.94074
3.73284
3.53298
3.35221
3.19261
3.04367
2.91302
2.78023
2.64551
2.53811
2.44513
2.3482
2.25039
2.17331
2.10633
2.03253
1.97214
1.93862
1.90899
1.85848
1.79618
1.74489
1.70365
1.66899
1.63645
1.59454
1.55018
1.52473
1.5052
1.48563
1.46441
1.44255
1.42259
1.40678
1.38982
1.36399
1.34964
1.34499
1.34163
1.33531
1.32695
1.32017
1.3131
1.30275
1.29489
1.29598
1.30002
1.30597
1.31743
1.33781
1.36628
1.39967
1.43913
1.48149
1.50113
1.50378
1.47142
1
1
1
1
1
1
1
1
1.00002
1.0019
1.0519
1.37593
2.15575
3.4629
3.89054
3.83722
3.82661
3.76258
3.57541
3.36223
3.19414
3.02387
2.87446
2.86046
2.88453
3.04299
3.3852
3.97895
4.58577
4.97884
5.18989
5.24147
5.12354
4.86899
4.67814
4.52774
4.35346
4.16609
3.96709
3.74689
3.52504
3.34692
3.22575
3.11747
3.00704
2.89144
2.76839
2.64659
2.52951
2.42678
2.33622
2.25802
2.19797
2.14463
2.08557
2.02252
1.95236
1.87452
1.81791
1.77972
1.74522
1.71152
1.6811
1.65129
1.60452
1.54895
1.52692
1.51186
1.49517
1.47807
1.46184
1.44348
1.41652
1.38654
1.36292
1.34797
1.34086
1.33577
1.33213
1.33011
1.32566
1.31939
1.31041
1.29788
1.29183
1.29045
1.29064
1.29316
1.29419
1.29414
1.29694
1.30471
1.3242
1.36641
1.43859
1.45977
1
1
1
1
1
1
1
1
1
1.00001
1.00058
1.01522
1.14444
1.82913
3.04418
3.55507
3.7334
3.77927
3.72048
3.61729
3.52745
3.43451
3.50952
3.82467
4.45614
5.29414
5.89851
6.42447
6.45942
6.31189
6.12116
5.90162
5.61716
5.27412
4.86326
4.46702
4.17023
3.96173
3.79282
3.64151
3.48347
3.33369
3.21498
3.11196
3.00875
2.89622
2.77833
2.65856
2.53737
2.43137
2.34497
2.28497
2.24159
2.19573
2.13921
2.06725
1.9756
1.88253
1.82371
1.79001
1.7609
1.73235
1.70358
1.66952
1.61233
1.55622
1.53871
1.52691
1.51396
1.50028
1.48444
1.46075
1.42284
1.38782
1.36667
1.35437
1.34701
1.34191
1.34026
1.33986
1.33475
1.32906
1.32083
1.30628
1.29471
1.29049
1.28927
1.28834
1.28515
1.27629
1.2659
1.26334
1.26608
1.27516
1.31834
1.44235
1
1
1
1
1
1
1
1
1
1
1
1.00009
1.00357
1.07629
1.57302
2.46274
3.12265
3.57143
3.96877
4.29946
4.7209
5.22003
5.82276
6.27337
6.72064
6.8816
6.85228
6.83132
6.6883
6.35096
5.99506
5.66478
5.34076
5.02969
4.77656
4.55965
4.33076
4.12295
3.94204
3.7863
3.62915
3.47064
3.33667
3.22468
3.11601
3.00124
2.87947
2.74829
2.61819
2.50598
2.42778
2.3883
2.35169
2.30479
2.24523
2.16841
2.0636
1.95406
1.89545
1.86447
1.83691
1.80935
1.77914
1.73899
1.67606
1.62542
1.60816
1.59603
1.58337
1.5688
1.54919
1.51638
1.46537
1.43105
1.41906
1.41016
1.4025
1.39806
1.39759
1.39257
1.38589
1.37925
1.36636
1.34111
1.32107
1.31397
1.31033
1.30698
1.30167
1.29113
1.2806
1.28116
1.28618
1.29602
1.30928
1.34089
1
1
1
1
1
1
1
1
1
1
1
1
1.00002
1.00154
1.0389
1.31262
1.94003
3.24136
5.03343
6.70996
8.10928
9.29852
9.88393
9.91113
9.5923
9.02716
8.29978
7.44261
6.65932
6.01651
5.62013
5.34744
5.08215
4.81912
4.59109
4.38037
4.16971
3.9778
3.81139
3.66812
3.51733
3.35803
3.21529
3.09241
2.97762
2.86492
2.75115
2.62764
2.49942
2.3798
2.30922
2.27977
2.24797
2.20426
2.14886
2.07676
1.97204
1.86109
1.80783
1.77951
1.75262
1.72638
1.6985
1.6596
1.59859
1.55606
1.54013
1.52711
1.51405
1.4997
1.4807
1.44839
1.3963
1.36371
1.35557
1.3486
1.3417
1.33842
1.33913
1.33344
1.32638
1.31898
1.3046
1.27777
1.25801
1.25173
1.2485
1.24545
1.24203
1.23684
1.23124
1.22681
1.22417
1.22377
1.2193
1.24101
)
;

boundaryField
{
    inlet
    {
        type            fixedValue;
        value           uniform 1;
    }
    outlet
    {
        type            zeroGradient;
    }
    bottom
    {
        type            symmetryPlane;
    }
    top
    {
        type            symmetryPlane;
    }
    obstacle
    {
        type            zeroGradient;
    }
    defaultFaces
    {
        type            empty;
    }
}


// ************************************************************************* //
