/*--------------------------------*- C++ -*----------------------------------*\
  =========                 |
  \\      /  F ield         | OpenFOAM: The Open Source CFD Toolbox
   \\    /   O peration     | Website:  https://openfoam.org
    \\  /    A nd           | Version:  7
     \\/     M anipulation  |
\*---------------------------------------------------------------------------*/
FoamFile
{
    version     2.0;
    format      ascii;
    class       volScalarField;
    location    "0.8";
    object      T;
}
// * * * * * * * * * * * * * * * * * * * * * * * * * * * * * * * * * * * * * //

dimensions      [0 0 0 1 0 0 0];

internalField   nonuniform List<scalar> 
4032
(
1
1
1
1
1
1
1
1
1
1
1
1
1
1.37406
2.55158
2.79281
2.82984
2.86501
2.87791
2.89157
2.92237
2.98881
3.08925
3.14959
1
1
1
1
1
1
1
1
1
1
1
1
1
1.34315
2.52883
2.79027
2.83269
2.86515
2.87653
2.88948
2.91966
2.98543
3.0854
3.14516
1
1
1
1
1
1
1
1
1
1
1
1
1
1.25598
2.47272
2.78965
2.8337
2.86294
2.87279
2.88539
2.9154
2.98095
3.08049
3.13951
1
1
1
1
1
1
1
1
1
1
1
1
1
1.11071
2.37911
2.78935
2.83483
2.85902
2.86608
2.87725
2.90691
2.97235
3.07149
3.12944
1
1
1
1
1
1
1
1
1
1
1
1
1
1.00409
2.27521
2.79062
2.8294
2.84662
2.85276
2.86246
2.8897
2.95443
3.05372
3.11403
1
1
1
1
1
1
1
1
1
1
1
1
1
1.00002
2.14749
2.78402
2.81735
2.82646
2.83316
2.84257
2.8694
2.93289
3.02988
3.08351
1
1
1
1
1
1
1
1
1
1
1
1
1
1
1.96158
2.74455
2.79332
2.79975
2.80758
2.81686
2.83904
2.89333
2.98525
3.0404
1
1
1
1
1
1
1
1
1
1
1
1
1
1
1.68252
2.64407
2.75693
2.7662
2.77491
2.78444
2.80238
2.84901
2.94198
3.02685
1
1
1
1
1
1
1
1
1
1
1
1
1
1
1.30624
2.48568
2.72924
2.73332
2.74354
2.75407
2.76372
2.78318
2.8028
2.77195
1
1
1
1
1
1
1
1
1
1
1
1
1
1
1.02144
2.31086
2.68542
2.68894
2.70503
2.71699
2.71958
2.71088
2.69565
2.58612
1
1
1
1
1
1
1
1
1
1
1
1
1
1
1.00012
2.02229
2.62505
2.67467
2.68109
2.68376
2.67852
2.654
2.61017
2.45824
1
1
1
1
1
1
1
1
1
1
1
1
1
1
1
1.54982
2.50062
2.65277
2.64542
2.64342
2.63091
2.60207
2.53377
2.39263
1
1
1
1
1
1
1
1
1
1
1
1
1
1
1
1.06855
2.29059
2.61244
2.60015
2.59771
2.5823
2.55131
2.48029
2.37187
1
1
1
1
1
1
1
1
1
1
1
1
1
1
1
1.00091
1.88006
2.50894
2.57637
2.55847
2.53727
2.50345
2.43981
2.35199
1
1
1
1
1
1
1
1
1
1
1
1
1
1
1
1
1.20288
2.29622
2.53875
2.51324
2.49348
2.4594
2.40619
2.33497
1
1
1
1
1
1
1
1
1
1
1
1
1
1
1
1
1.0077
1.93687
2.43502
2.47652
2.45407
2.41876
2.37187
2.31339
1
1
1
1
1
1
1
1
1
1
1
1
1
1
1
1
1.00001
1.26407
2.22947
2.44912
2.41461
2.38119
2.33839
2.29027
1
1
1
1
1
1
1
1
1
1
1
1
1
1
1
1
1
1.01258
1.81432
2.33054
2.38043
2.34925
2.31344
2.27141
1
1
1
1
1
1
1
1
1
1
1
1
1
1
1
1
1
1.00005
1.19213
2.09147
2.35424
2.32175
2.28622
2.24677
1
1
1
1
1
1
1
1
1
1
1
1
1
1
1
1
1
1
1.00611
1.54215
2.17643
2.29909
2.25618
2.22309
1
1
1
1
1
1
1
1
1
1
1
1
1
1
1
1
1
1
1.00002
1.07017
1.8345
2.22241
2.21752
2.19271
1
1
1
1
1
1
1
1
1
1
1
1
1
1
1
1
1
1
1
1.00102
1.25482
1.97346
2.19055
2.17008
1
1
1
1
1
1
1
1
1
1
1
1
1
1
1
1
1
1
1
1
1.01226
1.45795
2.01708
2.14535
1
1
1
1
1
1
1
1
1
1
1
1
1
1
1
1
1
1
1
1
1.00008
1.05135
1.60186
2.01689
1
1
1
1
1
1
1
1
1
1
1
1
1
1
1
1
1
1
1
1
1
1.00073
1.11535
1.68214
1
1
1
1
1
1
1
1
1
1
1
1
1
1
1
1
1
1
1
1
1
1
1.00295
1.18509
1
1
1
1
1
1
1
1
1
1
1
1
1
1
1
1
1
1
1
1
1
1
1.00001
1.00746
1
1
1
1
1
1
1
1
1
1
1
1
1
1
1
1
1
1
1
1
1
1
1
1.00005
1
1
1
1
1
1
1
1
1
1
1
1
1
1
1
1
1
1
1
1
1
1
1
1
1
1
1
1
1
1
1
1
1
1
1
1
1
1
1
1
1
1
1
1
1
1
1
1
1
1
1
1
1
1
1
1
1
1
1
1
1
1
1
1
1
1
1
1
1
1
1
1
1
1
1
1
1
1
1
1
1
1
1
1
1
1
1
1
1
1
1
1
1
1
1
1
1
1
1
1
1
1
1
1
1
1
1
1
1
1
1
1
1
1
1
1
1
1
1
1
1
1
1
1
1
1
1
1
1
1
1
1
1
1
1
1
1
1
1
1
1
1
1
1
1
1
1
1
1
1
1
1
1
1
1
1
1
1
1
1
1
1
1
1
1
1
1
1
1
1
1
1
1
1
1
1
1
1
1
1
1
1
1
1
1
1
1
1
1
1
1
1
1
1
1
1
1
1
1
1
1
1
1
1
1
1
1
1
1
1
1
1
1
1
1
1
1
1
1
1
1
1
1
1
1
1
1
1
1
1
1
1
1
1
1
1
1
1
1
1
1
1
1
1
1
1
1
1
1
1
1
1
1
1
1
1
1
1
1
1
1
1
1
1
1
1
1
1
1
1
1
1
1
1
1
1
1
1
1
1
1
1
1
1
1
1
1
1
1.91001
1.3452
1.07999
1.17436
1.39429
1.52571
1.63159
1.71875
1.76604
1.77928
1.79555
1.86273
1.94649
1.9522
1.94706
1.93449
1.92734
1.92982
1.94079
1.95858
1.95872
1.94815
1.93208
1.92642
1.92669
1.93067
1.9328
1.93134
1.92107
1.91
1.90913
1.90735
1.90506
1.90579
1.90902
1.91228
1.91683
1.91744
1.91222
1.89986
1.88653
1.87237
1.86542
1.86592
1.87224
1.88666
1.89763
1.90117
1.89692
1.87636
1.85335
1.84371
1.84253
1.84342
1.8496
1.86
1.86599
1.86677
1.86663
1.86299
1.85176
1.83994
1.83724
1.83792
1.84245
1.85222
1.85929
1.85984
1.85737
1.84599
1.81752
1.76932
1.71886
1.69626
1.69378
1.69431
1.69705
1.6983
1.69732
1.69214
1.6789
1.65353
1.61324
1.55793
1.48967
1.40444
1.29045
1.14673
1.03477
1.00136
0.995191
0.9915
0.990624
0.991029
0.99156
0.992896
2.15667
1.90858
1.64394
1.51279
1.53774
1.53292
1.51961
1.50332
1.46569
1.47496
1.51261
1.57696
1.64773
1.70089
1.72685
1.74103
1.75478
1.77225
1.79737
1.82535
1.8475
1.84631
1.84404
1.8457
1.85332
1.86473
1.86921
1.87111
1.87082
1.86889
1.86921
1.86815
1.86486
1.86301
1.86247
1.86437
1.87045
1.87457
1.87314
1.86802
1.86009
1.84759
1.83726
1.83581
1.83918
1.84938
1.86152
1.86716
1.8671
1.86137
1.85069
1.8381
1.8284
1.8263
1.82813
1.83495
1.84473
1.85287
1.8542
1.85247
1.84602
1.83407
1.82622
1.82542
1.82716
1.83387
1.84327
1.84691
1.84604
1.83866
1.81595
1.77321
1.72412
1.69147
1.68111
1.67965
1.6811
1.68367
1.68329
1.67865
1.66568
1.64096
1.60155
1.54679
1.4764
1.3885
1.27753
1.14424
1.03339
0.997489
0.991929
0.988946
0.988261
0.988453
0.988839
0.990831
2.18971
2.01137
1.86629
1.73124
1.64331
1.55804
1.47362
1.43401
1.4008
1.36259
1.37734
1.41343
1.44191
1.46536
1.48954
1.51099
1.53638
1.56208
1.59476
1.63643
1.67486
1.70139
1.71517
1.72555
1.7407
1.74559
1.74541
1.74649
1.74977
1.75333
1.75692
1.75578
1.75318
1.75401
1.75732
1.7634
1.76781
1.7701
1.77439
1.77957
1.77974
1.77719
1.77389
1.7741
1.77562
1.77786
1.77863
1.7812
1.78848
1.79474
1.79568
1.79229
1.78685
1.78401
1.78304
1.78261
1.78361
1.79255
1.80121
1.80446
1.80691
1.80632
1.8011
1.79592
1.7918
1.79115
1.79582
1.8002
1.8001
1.79781
1.78602
1.75786
1.72031
1.68258
1.65887
1.64673
1.64217
1.64163
1.64125
1.63741
1.62669
1.6062
1.57197
1.52145
1.45565
1.37456
1.27131
1.14469
1.03526
0.993111
0.988506
0.988674
0.989405
0.98985
0.990679
0.993981
2.21371
2.07032
1.9312
1.82818
1.7419
1.65186
1.55453
1.51089
1.47601
1.41944
1.3808
1.37675
1.36595
1.35007
1.35273
1.36178
1.38262
1.40901
1.43983
1.47335
1.50331
1.5353
1.55883
1.57924
1.60137
1.61864
1.62941
1.63565
1.64099
1.64541
1.64543
1.64133
1.635
1.63522
1.63845
1.64498
1.64698
1.64776
1.6534
1.66245
1.67038
1.67469
1.67654
1.67902
1.68349
1.68557
1.68481
1.68867
1.6988
1.70602
1.70987
1.71004
1.70856
1.70747
1.70595
1.7046
1.70559
1.71397
1.72601
1.73376
1.73877
1.74081
1.73907
1.73364
1.72991
1.72981
1.73142
1.73385
1.73403
1.73313
1.72766
1.71253
1.68675
1.65348
1.62309
1.60309
1.5905
1.58294
1.57813
1.57101
1.55777
1.53624
1.50397
1.45903
1.40293
1.3366
1.25255
1.1441
1.03837
0.989465
0.983459
0.98385
0.986682
0.991149
0.993824
0.996577
2.23524
2.11619
1.99713
1.88499
1.79779
1.71699
1.6316
1.58891
1.54509
1.48775
1.42603
1.40253
1.37652
1.33983
1.32048
1.32457
1.33433
1.33607
1.3446
1.36891
1.3968
1.42394
1.44895
1.47
1.48996
1.51085
1.52619
1.53481
1.54646
1.56365
1.57407
1.57257
1.56726
1.56244
1.5561
1.54979
1.54764
1.54842
1.55362
1.56384
1.57715
1.5893
1.59766
1.60185
1.60206
1.59611
1.59376
1.59998
1.61053
1.61831
1.62526
1.62824
1.62867
1.62873
1.62646
1.62265
1.62353
1.63196
1.6445
1.65424
1.66084
1.663
1.66152
1.65713
1.65277
1.65148
1.65151
1.65324
1.65758
1.65863
1.65682
1.64951
1.63296
1.60662
1.57704
1.55177
1.53261
1.51802
1.50483
1.48905
1.46808
1.44107
1.40716
1.36626
1.32051
1.27023
1.20909
1.12736
1.03783
0.990353
0.982815
0.983377
0.988823
0.994261
0.994971
0.996112
2.24594
2.14189
2.03612
1.93827
1.86127
1.78128
1.69291
1.64158
1.5989
1.55177
1.50168
1.47186
1.43888
1.39463
1.34976
1.34635
1.33652
1.3185
1.31595
1.31952
1.32375
1.32726
1.34199
1.36884
1.39877
1.43213
1.45381
1.46408
1.47507
1.48951
1.50081
1.50455
1.50531
1.50735
1.50601
1.49999
1.49438
1.49464
1.49851
1.50685
1.51776
1.52971
1.54059
1.54571
1.54483
1.53557
1.53232
1.53643
1.54318
1.54906
1.55516
1.5589
1.56169
1.56379
1.56299
1.55838
1.55805
1.56309
1.5715
1.57914
1.58605
1.59073
1.59104
1.58888
1.58499
1.58194
1.5806
1.58072
1.5828
1.58389
1.58311
1.57921
1.56935
1.55154
1.52755
1.50234
1.47996
1.46029
1.43994
1.41545
1.38555
1.35036
1.31039
1.26869
1.22959
1.19253
1.15047
1.09325
1.02671
0.989553
0.983788
0.985593
0.991851
0.99421
0.994416
0.995139
2.24713
2.16198
2.07198
1.97826
1.90401
1.83155
1.75749
1.70412
1.65619
1.59407
1.54453
1.51866
1.49043
1.44951
1.3991
1.38195
1.36497
1.34046
1.30808
1.30466
1.30478
1.30209
1.30318
1.31028
1.32736
1.35076
1.3773
1.40112
1.41359
1.42579
1.44068
1.44688
1.45187
1.45526
1.45788
1.45979
1.46151
1.46579
1.47381
1.4814
1.48606
1.49115
1.49679
1.50067
1.50147
1.49798
1.49414
1.49536
1.49833
1.50312
1.50663
1.50768
1.51127
1.51409
1.51361
1.51016
1.50966
1.51189
1.51663
1.52238
1.52813
1.53222
1.53297
1.53131
1.52785
1.52566
1.5245
1.52361
1.52259
1.52088
1.5184
1.51439
1.50691
1.49384
1.4752
1.45428
1.43354
1.41139
1.38479
1.35218
1.31351
1.26987
1.22501
1.18511
1.15359
1.12672
1.0957
1.0542
1.01123
0.989151
0.985921
0.988201
0.992527
0.993506
0.993729
0.994339
2.2428
2.17093
2.09135
2.01521
1.9501
1.87805
1.8019
1.75241
1.70875
1.65395
1.59908
1.56513
1.53138
1.49053
1.44621
1.4303
1.41409
1.3886
1.34782
1.33199
1.32502
1.30781
1.29748
1.29856
1.30268
1.3067
1.31124
1.32212
1.33817
1.3554
1.37446
1.39224
1.40107
1.40558
1.41387
1.42301
1.42934
1.43694
1.44778
1.4594
1.4661
1.46611
1.46632
1.46726
1.46734
1.46579
1.4627
1.4627
1.46384
1.46668
1.46729
1.46745
1.47007
1.47339
1.47409
1.47377
1.47349
1.47405
1.47625
1.47988
1.48236
1.48394
1.48455
1.48214
1.47926
1.47942
1.48014
1.47917
1.47569
1.47061
1.46594
1.46082
1.45248
1.43935
1.42301
1.40611
1.38732
1.36307
1.33201
1.29374
1.24844
1.20075
1.15925
1.12897
1.1075
1.0852
1.0558
1.02454
1.00072
0.989599
0.987937
0.990112
0.992783
0.993151
0.993322
0.994524
2.2333
2.17542
2.11124
2.03992
1.97814
1.91776
1.85233
1.79909
1.75074
1.69187
1.64253
1.60981
1.57898
1.53695
1.48674
1.46288
1.44529
1.42329
1.39131
1.3666
1.35403
1.33642
1.30957
1.2926
1.29364
1.29495
1.2953
1.29644
1.29587
1.29652
1.30141
1.31142
1.32763
1.34491
1.36202
1.38417
1.40048
1.40989
1.42066
1.43224
1.44543
1.44992
1.44856
1.44558
1.44165
1.43799
1.43324
1.43002
1.4309
1.43254
1.43308
1.43328
1.43541
1.43982
1.44336
1.44453
1.44441
1.44334
1.44287
1.44257
1.44059
1.43914
1.44002
1.4391
1.43855
1.44156
1.44421
1.44187
1.43546
1.4271
1.41919
1.41148
1.40167
1.38899
1.37567
1.36107
1.34008
1.31153
1.27709
1.23626
1.19086
1.1492
1.12054
1.10362
1.08285
1.05288
1.02536
1.00699
0.996015
0.990453
0.990043
0.992563
0.993416
0.993322
0.993388
0.994528
2.22236
2.17186
2.11736
2.06002
2.006
1.94813
1.88772
1.83811
1.79217
1.73999
1.68452
1.63931
1.60724
1.57548
1.53879
1.506
1.47928
1.45487
1.42699
1.40254
1.38831
1.37386
1.35101
1.32188
1.31563
1.31127
1.30304
1.2944
1.28777
1.27991
1.26602
1.25804
1.26032
1.27228
1.29549
1.32415
1.35576
1.37862
1.39026
1.39984
1.41145
1.42536
1.43247
1.43063
1.42631
1.41978
1.41049
1.40151
1.3993
1.39993
1.40109
1.4032
1.40649
1.41257
1.41761
1.41804
1.41738
1.4143
1.40947
1.40537
1.40024
1.39717
1.39799
1.40086
1.40405
1.4078
1.40792
1.40388
1.39542
1.38478
1.37393
1.3641
1.3545
1.34539
1.33605
1.31906
1.29083
1.25791
1.2221
1.18228
1.14361
1.11674
1.10327
1.08547
1.05374
1.02596
1.00791
0.998269
0.993062
0.991261
0.992931
0.995175
0.994571
0.993858
0.993796
0.995122
2.20367
2.1615
2.1172
2.06858
2.01931
1.96953
1.91797
1.86802
1.81861
1.77028
1.72576
1.68286
1.64019
1.60191
1.57256
1.54089
1.51033
1.48631
1.46333
1.44173
1.41996
1.39871
1.37869
1.35742
1.33973
1.32367
1.30884
1.29932
1.28916
1.27388
1.25341
1.24357
1.24385
1.24482
1.24973
1.26501
1.28633
1.3149
1.33523
1.34973
1.36648
1.38602
1.40075
1.40686
1.40651
1.40332
1.39495
1.38138
1.37224
1.37233
1.37378
1.37589
1.37985
1.38605
1.39064
1.39081
1.38876
1.3821
1.37419
1.36837
1.36317
1.36076
1.3627
1.36904
1.37031
1.36952
1.36733
1.36205
1.3527
1.34108
1.32912
1.32029
1.31504
1.31059
1.29861
1.2714
1.23744
1.20485
1.17096
1.13635
1.11017
1.09886
1.08737
1.05818
1.027
1.00695
0.996732
0.993203
0.991569
0.992817
0.997358
0.997819
0.996325
0.995399
0.995347
0.996404
2.18766
2.1516
2.11331
2.07312
2.03065
1.98187
1.93392
1.89065
1.84625
1.79823
1.75466
1.71378
1.67034
1.634
1.60781
1.57983
1.54545
1.50731
1.48524
1.47363
1.45659
1.43333
1.40903
1.39078
1.37107
1.34732
1.32338
1.31366
1.30676
1.29343
1.26984
1.25417
1.25034
1.24599
1.24037
1.2393
1.24127
1.2486
1.26246
1.28092
1.30498
1.33284
1.35586
1.36742
1.37262
1.37365
1.37171
1.36348
1.35333
1.35272
1.35403
1.35495
1.35724
1.3596
1.36092
1.36048
1.35641
1.34682
1.33851
1.33424
1.33069
1.32973
1.33401
1.33577
1.33209
1.32772
1.3246
1.31863
1.30777
1.29591
1.28645
1.28292
1.28234
1.27573
1.25248
1.21963
1.18801
1.15832
1.12835
1.1033
1.09105
1.08385
1.0617
1.0297
1.00769
0.995686
0.992411
0.990936
0.991813
0.997547
1.00034
0.999709
0.998151
0.997164
0.997067
0.997889
2.16309
2.13299
2.09993
2.0633
2.02593
1.9863
1.94276
1.89825
1.85621
1.8171
1.78225
1.74677
1.70222
1.65497
1.6306
1.61229
1.58724
1.55173
1.50779
1.48979
1.4765
1.45913
1.43644
1.4189
1.40084
1.378
1.34516
1.31832
1.31305
1.30557
1.28967
1.26981
1.26239
1.25562
1.24225
1.23083
1.23048
1.23354
1.23565
1.23773
1.24717
1.26853
1.29557
1.31578
1.3293
1.34025
1.34284
1.33971
1.33692
1.33679
1.33718
1.33684
1.33723
1.33547
1.33331
1.33041
1.32348
1.31336
1.30626
1.30317
1.30063
1.29983
1.30151
1.29871
1.29024
1.28529
1.28187
1.27568
1.26518
1.25453
1.2498
1.25016
1.2486
1.23204
1.20283
1.17403
1.14883
1.12192
1.0977
1.08468
1.07864
1.06288
1.0334
1.0095
0.995984
0.992154
0.991441
0.992372
0.998385
1.00208
1.00173
1.00038
0.998837
0.998213
0.99827
0.99875
2.14125
2.11186
2.08163
2.05051
2.01696
1.97977
1.9405
1.90348
1.86567
1.82376
1.78731
1.7592
1.72842
1.69002
1.65225
1.62623
1.60477
1.57814
1.54306
1.51753
1.5003
1.47963
1.4521
1.43506
1.42213
1.40337
1.37383
1.34051
1.33105
1.32368
1.31071
1.2926
1.28466
1.27852
1.26403
1.24149
1.23124
1.23174
1.23041
1.22443
1.21953
1.22362
1.23678
1.25507
1.27317
1.29087
1.30563
1.31108
1.31154
1.31335
1.3151
1.31666
1.31673
1.31393
1.30994
1.30408
1.29657
1.28818
1.28112
1.27694
1.27294
1.2686
1.26362
1.25561
1.24767
1.24323
1.23969
1.23517
1.2298
1.22493
1.22189
1.21868
1.20753
1.18446
1.15854
1.137
1.11709
1.09578
1.07865
1.07135
1.06201
1.03865
1.01374
0.998407
0.992655
0.991951
0.992886
0.998556
1.00284
1.00303
1.00268
1.001
0.998727
0.998106
0.99788
0.998559
2.11967
2.08878
2.06172
2.03381
2.00413
1.97173
1.93588
1.89952
1.86637
1.83294
1.79977
1.76833
1.73871
1.70562
1.67067
1.64459
1.62366
1.59952
1.56561
1.53754
1.52017
1.50084
1.47284
1.45186
1.43808
1.41793
1.38907
1.35766
1.35015
1.3441
1.33121
1.31106
1.30132
1.29537
1.28174
1.25605
1.23613
1.23117
1.22641
1.2137
1.2053
1.20849
1.21283
1.21513
1.22026
1.23178
1.25117
1.27048
1.27872
1.28229
1.28554
1.28858
1.28895
1.28747
1.28497
1.28136
1.27645
1.26996
1.2631
1.25652
1.24849
1.23886
1.2283
1.21789
1.20992
1.20465
1.2006
1.19766
1.19582
1.19353
1.18878
1.17889
1.16223
1.14149
1.1215
1.10372
1.08713
1.07159
1.06032
1.05397
1.04199
1.02045
1.00358
0.996212
0.994324
0.994829
0.999226
1.00215
1.00239
1.00239
1.00119
0.999499
0.998691
0.998043
0.997768
0.998558
2.10016
2.07227
2.03818
2.01188
1.98764
1.95886
1.92665
1.89604
1.86652
1.83264
1.79794
1.77065
1.74932
1.72382
1.68779
1.65022
1.63248
1.61503
1.5898
1.56069
1.53827
1.51499
1.4833
1.46224
1.4505
1.43634
1.40906
1.37089
1.36288
1.35879
1.34831
1.32936
1.31727
1.31109
1.29771
1.27321
1.25091
1.243
1.23897
1.22723
1.20741
1.20479
1.20524
1.20156
1.19632
1.197
1.20347
1.21841
1.23449
1.24413
1.25209
1.25787
1.25745
1.25549
1.25316
1.25138
1.24981
1.24697
1.24256
1.23624
1.22732
1.21592
1.20257
1.18992
1.18008
1.17282
1.16784
1.16491
1.16269
1.15936
1.15257
1.14061
1.12457
1.10759
1.09135
1.07598
1.06209
1.05124
1.04443
1.03822
1.02591
1.00982
1.00047
0.998349
0.998765
1.00073
1.00192
1.00218
1.00195
0.99987
0.997321
0.996685
0.996552
0.997043
0.998484
1.0018
1.99251
2.0575
2.02969
1.99161
1.96522
1.94291
1.91618
1.88637
1.86118
1.83461
1.80513
1.76975
1.74398
1.72532
1.70079
1.6679
1.64235
1.61966
1.5936
1.57034
1.55307
1.53198
1.50149
1.46645
1.45391
1.44525
1.42462
1.39246
1.37905
1.37426
1.36412
1.34275
1.32732
1.32005
1.30864
1.28805
1.26419
1.2543
1.24951
1.23821
1.2146
1.20161
1.19762
1.18987
1.18261
1.18319
1.18717
1.19172
1.19697
1.20227
1.20964
1.2191
1.22145
1.22016
1.21754
1.21564
1.21569
1.21497
1.21219
1.20705
1.20061
1.19257
1.18165
1.16889
1.15683
1.14739
1.14144
1.13782
1.13421
1.129
1.12131
1.11061
1.09764
1.08383
1.07009
1.05675
1.04611
1.04044
1.03679
1.02897
1.01566
1.00495
1.00136
1.0015
1.00206
1.00223
1.00203
1.00115
0.999011
0.997982
0.997338
0.996252
0.995897
0.996389
0.999819
1.00742
1.71226
1.96259
2.01392
1.98742
1.95049
1.92066
1.89832
1.87798
1.85405
1.82677
1.80021
1.77315
1.74945
1.72595
1.69815
1.66786
1.6469
1.62983
1.60657
1.57686
1.55589
1.53661
1.51088
1.47922
1.46397
1.45311
1.43544
1.40583
1.38964
1.38537
1.37667
1.35765
1.33737
1.32864
1.31758
1.29936
1.27552
1.26479
1.26025
1.25063
1.22905
1.20835
1.20231
1.19572
1.18318
1.17847
1.17955
1.18078
1.18058
1.1799
1.17692
1.17788
1.1805
1.18079
1.18025
1.17995
1.18084
1.18112
1.17909
1.17376
1.16706
1.15989
1.15158
1.1412
1.12899
1.11851
1.11239
1.10844
1.10388
1.09729
1.08891
1.07947
1.06987
1.06134
1.05345
1.04534
1.03901
1.03706
1.034
1.02456
1.01267
1.00496
1.00245
1.00234
1.00235
1.00183
1.00007
0.997743
0.997409
0.997314
0.997333
0.997442
0.998575
1.00267
1.00965
1.01415
1.23616
1.71752
1.92453
1.97054
1.94849
1.91313
1.87941
1.85948
1.8409
1.82023
1.79661
1.76878
1.74456
1.72422
1.70296
1.67537
1.64487
1.6271
1.60883
1.58424
1.5646
1.54591
1.51884
1.48087
1.46563
1.45927
1.44623
1.42421
1.40263
1.39318
1.38239
1.36192
1.34426
1.33632
1.32763
1.31332
1.28814
1.2731
1.26639
1.25563
1.23685
1.21555
1.20784
1.2021
1.191
1.1754
1.17276
1.17077
1.16745
1.16317
1.15712
1.15513
1.15678
1.15899
1.15934
1.15929
1.15875
1.15799
1.15569
1.15058
1.14332
1.13597
1.12912
1.12172
1.11262
1.1034
1.09619
1.09039
1.08418
1.07634
1.06658
1.05642
1.04769
1.04125
1.03653
1.03212
1.03011
1.0306
1.02882
1.02242
1.01289
1.00479
1.00205
1.00162
1.00114
1.00049
0.998878
0.997401
0.997171
0.996807
0.996655
0.998786
1.00581
1.01365
1.01641
1.0166
1.0129
1.26567
1.69645
1.88139
1.93215
1.91214
1.87655
1.84824
1.82688
1.80443
1.7855
1.76806
1.74391
1.71415
1.6957
1.67798
1.65215
1.63001
1.60903
1.58071
1.56069
1.54852
1.52896
1.4953
1.47157
1.46184
1.44764
1.42737
1.41103
1.40194
1.3904
1.36845
1.34539
1.3383
1.33329
1.3211
1.3001
1.28451
1.27373
1.26098
1.24101
1.21782
1.21137
1.2075
1.1993
1.18462
1.17796
1.17378
1.16804
1.16161
1.15358
1.1471
1.14682
1.14816
1.15113
1.15489
1.15814
1.162
1.1666
1.16949
1.1695
1.16788
1.16526
1.16155
1.15843
1.15641
1.15231
1.14296
1.1307
1.11746
1.10241
1.08544
1.07061
1.05937
1.05049
1.04239
1.039
1.0354
1.02971
1.02287
1.01487
1.00813
1.00372
1.00098
1.00033
1
0.999384
0.998671
0.998553
0.99905
1.00174
1.00854
1.01512
1.01645
1.0164
1.01648
1.00011
1.01737
1.26855
1.65995
1.84854
1.89423
1.87719
1.84595
1.81894
1.79172
1.76913
1.75554
1.73737
1.71254
1.68987
1.67385
1.64965
1.62504
1.60764
1.58695
1.56246
1.54596
1.528
1.49992
1.47908
1.46748
1.45374
1.43401
1.4125
1.40307
1.39244
1.37234
1.35045
1.34416
1.33902
1.3273
1.30627
1.29025
1.27776
1.26374
1.24502
1.22194
1.214
1.21083
1.20407
1.19166
1.18483
1.18139
1.17685
1.1701
1.16116
1.16371
1.17415
1.19374
1.21903
1.24204
1.25665
1.26627
1.27322
1.27586
1.27345
1.26862
1.26206
1.25452
1.24755
1.24124
1.23399
1.22319
1.20996
1.19631
1.18181
1.16722
1.15355
1.14215
1.13306
1.12678
1.11816
1.10239
1.08315
1.06351
1.04659
1.03165
1.01877
1.0099
1.00449
1.00152
1.00071
1.00057
1.00157
1.00586
1.01313
1.01656
1.01663
1.01623
1.01585
1.01535
1
1.00016
1.01896
1.24618
1.63377
1.80658
1.85417
1.84499
1.818
1.78284
1.75554
1.74139
1.72669
1.7069
1.68202
1.66835
1.64977
1.61968
1.59606
1.58153
1.56408
1.54874
1.53213
1.50454
1.47747
1.46649
1.45467
1.43628
1.41645
1.40623
1.39588
1.37687
1.35416
1.34635
1.34179
1.33036
1.31037
1.29404
1.28008
1.26507
1.24569
1.22455
1.21812
1.21728
1.21509
1.21133
1.21481
1.22902
1.24543
1.25791
1.27473
1.29602
1.31541
1.33472
1.35226
1.36291
1.36212
1.35732
1.34787
1.33487
1.32039
1.30469
1.29098
1.28037
1.27035
1.25979
1.24667
1.23253
1.22037
1.20904
1.19686
1.18546
1.17757
1.17249
1.16876
1.16465
1.15913
1.15241
1.1451
1.13597
1.12448
1.10944
1.08905
1.06595
1.0451
1.028
1.01623
1.01032
1.0095
1.01302
1.01668
1.01676
1.01652
1.01607
1.01576
1.01448
1
1
1.00019
1.01661
1.22264
1.5905
1.75341
1.81623
1.81232
1.78647
1.75155
1.72866
1.71631
1.69979
1.67722
1.66061
1.64139
1.61583
1.59563
1.57826
1.5559
1.5417
1.53185
1.5118
1.48299
1.46713
1.45487
1.43562
1.41444
1.40555
1.39596
1.38035
1.35932
1.35069
1.34488
1.332
1.30895
1.29325
1.28135
1.26956
1.25423
1.23938
1.24037
1.25142
1.27982
1.31942
1.35941
1.39535
1.41325
1.42082
1.42756
1.42262
1.41249
1.40586
1.40033
1.39288
1.38231
1.36782
1.35091
1.33072
1.31175
1.2945
1.27913
1.26854
1.25782
1.24247
1.22723
1.21268
1.20154
1.19167
1.1815
1.17365
1.16951
1.16622
1.16129
1.15492
1.14883
1.14404
1.14129
1.14156
1.14151
1.13953
1.13358
1.12596
1.11569
1.10224
1.0879
1.07157
1.05129
1.03048
1.01869
1.01612
1.01511
1.01325
1.01133
1.00759
1
1
1
1.00017
1.01342
1.19419
1.51121
1.70575
1.78744
1.78317
1.75769
1.72957
1.71137
1.6882
1.6701
1.65454
1.63331
1.60788
1.58931
1.57876
1.55843
1.53418
1.52443
1.51078
1.48879
1.47046
1.4565
1.43405
1.41268
1.40384
1.39601
1.38239
1.35949
1.35118
1.34595
1.33426
1.31295
1.29846
1.29327
1.29795
1.31463
1.34253
1.37958
1.42155
1.46367
1.4951
1.50764
1.50433
1.49841
1.48945
1.47109
1.44688
1.42827
1.41221
1.39998
1.38394
1.36766
1.35175
1.33348
1.31203
1.29472
1.28121
1.27001
1.26033
1.24706
1.23217
1.21429
1.19748
1.18747
1.1798
1.17352
1.17025
1.16674
1.15832
1.15055
1.14443
1.13894
1.13263
1.131
1.13235
1.13346
1.13183
1.13026
1.13215
1.13533
1.13596
1.13518
1.13034
1.12086
1.10147
1.06905
1.03293
1.01179
1.00506
1.00225
0.999239
1
1
1
1
1.00012
1.01001
1.14088
1.42156
1.67873
1.75479
1.74781
1.73189
1.71556
1.68771
1.66318
1.64375
1.62719
1.60686
1.58501
1.5762
1.5582
1.53129
1.51811
1.50819
1.4901
1.47318
1.45853
1.43473
1.40682
1.4001
1.39526
1.38506
1.36526
1.35544
1.35169
1.34659
1.35159
1.37225
1.41394
1.46598
1.50988
1.54508
1.552
1.56544
1.56485
1.55295
1.52942
1.50929
1.49275
1.47514
1.45229
1.42572
1.40677
1.38975
1.37254
1.35526
1.33859
1.32184
1.30374
1.28466
1.27032
1.26025
1.25199
1.24179
1.2296
1.2161
1.20038
1.18577
1.17652
1.1693
1.16277
1.15777
1.1534
1.14662
1.1404
1.13462
1.12849
1.12206
1.1197
1.12031
1.12127
1.12101
1.12143
1.12378
1.12921
1.13451
1.13686
1.13756
1.13749
1.13464
1.12507
1.10375
1.06862
1.03108
1.00624
0.997684
1
1
1
1
1
1.00008
1.0055
1.08607
1.35882
1.64236
1.69663
1.71533
1.71232
1.69179
1.6611
1.63962
1.62682
1.60473
1.58371
1.57324
1.55579
1.52901
1.51064
1.50415
1.49227
1.47557
1.45912
1.43395
1.40274
1.39663
1.39587
1.39239
1.3895
1.40264
1.43421
1.48688
1.54756
1.587
1.61214
1.63816
1.63361
1.61941
1.6035
1.5913
1.57762
1.55631
1.5314
1.51133
1.49534
1.4753
1.44979
1.42656
1.41129
1.39701
1.38187
1.36585
1.34796
1.3292
1.31168
1.29658
1.28434
1.27382
1.26287
1.25071
1.23791
1.22339
1.20727
1.1952
1.18689
1.17898
1.17126
1.16412
1.15638
1.1506
1.14538
1.13894
1.13225
1.12581
1.11924
1.11444
1.1136
1.1138
1.11582
1.11896
1.12177
1.12616
1.1318
1.13563
1.13655
1.13646
1.13427
1.1286
1.11796
1.09782
1.06989
1.03366
1
1
1
1
1
1
1.00003
1.0025
1.05309
1.31109
1.56434
1.64245
1.68426
1.68514
1.66855
1.64873
1.63298
1.6038
1.5835
1.56746
1.54673
1.52883
1.51828
1.50604
1.48812
1.47252
1.45671
1.43711
1.41135
1.41224
1.43144
1.48069
1.55124
1.61787
1.65328
1.70026
1.70148
1.69023
1.67366
1.65704
1.63233
1.59964
1.5778
1.55982
1.5398
1.51746
1.49576
1.47641
1.45743
1.43682
1.41349
1.39367
1.37676
1.36023
1.34424
1.33129
1.31932
1.30477
1.28868
1.27361
1.26064
1.24913
1.23803
1.22657
1.21414
1.20099
1.18869
1.17914
1.17072
1.16225
1.15421
1.14698
1.14041
1.1332
1.12656
1.12106
1.11638
1.11293
1.11049
1.10739
1.10381
1.09979
1.0968
1.0968
1.09762
1.0992
1.1028
1.10978
1.11787
1.12334
1.12548
1.12484
1.12109
1.11873
1.11335
1.09903
1
1
1
1
1
1
1
1.00001
1.00121
1.03524
1.24196
1.44681
1.58137
1.66033
1.66781
1.6598
1.64229
1.61409
1.58776
1.56311
1.54031
1.52139
1.51819
1.5142
1.49898
1.47347
1.46052
1.47157
1.50888
1.57876
1.65586
1.7285
1.77589
1.76992
1.76468
1.75949
1.74532
1.71814
1.69679
1.67294
1.64304
1.6115
1.58094
1.55328
1.5278
1.50566
1.48266
1.45887
1.43893
1.42059
1.39986
1.37739
1.35887
1.34317
1.32653
1.31222
1.30322
1.29477
1.28048
1.26282
1.24821
1.2365
1.22635
1.21652
1.20444
1.19137
1.18206
1.17404
1.16608
1.15804
1.15026
1.14324
1.13714
1.13062
1.12216
1.11642
1.11343
1.1111
1.10785
1.10408
1.10068
1.09702
1.09238
1.08875
1.08823
1.088
1.08799
1.08898
1.09234
1.09793
1.10464
1.11265
1.12119
1.12476
1.1249
1.12127
1
1
1
1
1
1
1
1
1
1.00061
1.01873
1.12856
1.31808
1.54942
1.62978
1.63715
1.63425
1.62121
1.59311
1.56397
1.54486
1.52973
1.51921
1.52206
1.52777
1.55532
1.60967
1.69696
1.77162
1.81052
1.82917
1.82283
1.80242
1.76642
1.73931
1.72036
1.69778
1.67278
1.64665
1.61742
1.58632
1.55864
1.53759
1.51837
1.49901
1.4793
1.45837
1.43724
1.41659
1.3977
1.3795
1.36249
1.34872
1.33654
1.32338
1.30894
1.29305
1.27557
1.26098
1.24973
1.23981
1.23053
1.22185
1.213
1.20047
1.1858
1.17771
1.17151
1.16493
1.15825
1.15189
1.14514
1.13639
1.1273
1.12011
1.11511
1.11175
1.10882
1.10611
1.10387
1.10096
1.09766
1.09383
1.08953
1.08674
1.08539
1.08458
1.08416
1.08324
1.08216
1.08204
1.08299
1.08689
1.09628
1.11092
1.11565
1
1
1
1
1
1
1
1
1
1
1.00018
1.00518
1.04975
1.24809
1.49403
1.58566
1.5999
1.60395
1.59641
1.58443
1.5785
1.58038
1.59774
1.64643
1.7228
1.80795
1.85974
1.91114
1.90945
1.89565
1.87565
1.85056
1.82043
1.78434
1.7404
1.69415
1.65651
1.62834
1.60477
1.58326
1.55996
1.53692
1.51744
1.49986
1.48207
1.46299
1.4433
1.42343
1.40311
1.38471
1.36848
1.35541
1.34474
1.33362
1.32088
1.30596
1.28774
1.26822
1.25405
1.24462
1.23623
1.22809
1.22007
1.21105
1.19725
1.18276
1.17585
1.1706
1.16498
1.15918
1.15315
1.14572
1.13549
1.12578
1.11934
1.11522
1.11202
1.10892
1.1068
1.10498
1.10203
1.0992
1.09599
1.09151
1.08778
1.08583
1.08466
1.08354
1.08167
1.07846
1.07521
1.07413
1.07428
1.07538
1.08454
1.10953
1
1
1
1
1
1
1
1
1
1
1
1.00003
1.00114
1.02636
1.18536
1.39521
1.495
1.55218
1.60977
1.66275
1.72236
1.78037
1.82893
1.85657
1.88439
1.89647
1.89621
1.89618
1.88545
1.85754
1.82778
1.79906
1.76906
1.7381
1.71091
1.68482
1.65752
1.6322
1.60966
1.58956
1.56826
1.54583
1.52569
1.50774
1.48989
1.47114
1.45159
1.43081
1.41005
1.39174
1.37754
1.36819
1.35888
1.34768
1.33479
1.31985
1.3004
1.27871
1.26504
1.2566
1.24881
1.24107
1.23306
1.22332
1.20889
1.19571
1.18924
1.18405
1.17857
1.17272
1.16601
1.15696
1.14448
1.1351
1.13088
1.12767
1.12455
1.12163
1.11975
1.11676
1.11364
1.11079
1.10663
1.09987
1.09423
1.09159
1.08986
1.08814
1.08578
1.08212
1.0788
1.07863
1.07899
1.08013
1.08236
1.08523
1
1
1
1
1
1
1
1
1
1
1
1
1
1.00048
1.01365
1.10882
1.27158
1.49251
1.70626
1.87217
1.99113
2.0771
2.1052
2.11367
2.09472
2.06309
2.01632
1.94972
1.88194
1.82139
1.78333
1.75743
1.73145
1.70421
1.67876
1.65412
1.62893
1.60533
1.58455
1.56633
1.5466
1.52478
1.50385
1.48463
1.46597
1.44744
1.42889
1.409
1.3883
1.36856
1.35526
1.34792
1.33979
1.32926
1.31695
1.30243
1.28222
1.2594
1.24653
1.23872
1.2311
1.22361
1.21597
1.20616
1.19146
1.17975
1.17387
1.16862
1.16308
1.15723
1.15053
1.14125
1.12795
1.1187
1.11549
1.11279
1.10975
1.10716
1.10559
1.10243
1.09919
1.0961
1.0915
1.08419
1.07843
1.07598
1.07437
1.07269
1.07081
1.06855
1.06647
1.06475
1.06334
1.06251
1.0608
1.06177
)
;

boundaryField
{
    inlet
    {
        type            fixedValue;
        value           uniform 1;
    }
    outlet
    {
        type            inletOutlet;
        inletValue      uniform 1;
        value           nonuniform List<scalar> 
32
(
0.993112
0.991296
0.994651
0.996848
0.996245
0.995144
0.994262
0.99458
0.994681
0.995365
0.996594
0.998
0.998845
0.998726
0.998855
1.00262
1.00884
1.01452
1.01662
1.01653
1.01528
1.01386
1.00643
0.998567
0.996999
1.02486
1.09302
1.12031
1.11654
1.11726
1.08796
1.06326
)
;
    }
    bottom
    {
        type            symmetryPlane;
    }
    top
    {
        type            symmetryPlane;
    }
    obstacle
    {
        type            zeroGradient;
    }
    defaultFaces
    {
        type            empty;
    }
}


// ************************************************************************* //
