/*--------------------------------*- C++ -*----------------------------------*\
  =========                 |
  \\      /  F ield         | OpenFOAM: The Open Source CFD Toolbox
   \\    /   O peration     | Website:  https://openfoam.org
    \\  /    A nd           | Version:  7
     \\/     M anipulation  |
\*---------------------------------------------------------------------------*/
FoamFile
{
    version     2.0;
    format      ascii;
    class       volScalarField;
    location    "2.7";
    object      p;
}
// * * * * * * * * * * * * * * * * * * * * * * * * * * * * * * * * * * * * * //

dimensions      [1 -1 -2 0 0 0 0];

internalField   nonuniform List<scalar> 
4032
(
1
1
1
1
1
1
1
1
1
1
1
1
6.51377
10.5956
10.7585
10.9527
11.1418
11.3218
11.4902
11.6436
11.7819
11.8963
11.9849
12.0477
1
1
1
1
1
1
1
1
1
1
1
1
6.33488
10.5401
10.732
10.9242
11.1131
11.2891
11.4521
11.5984
11.7292
11.8361
11.9175
11.9763
1
1
1
1
1
1
1
1
1
1
1
1
5.97203
10.4719
10.6828
10.8714
11.0593
11.2303
11.3871
11.5261
11.65
11.7516
11.8269
11.8872
1
1
1
1
1
1
1
1
1
1
1
1
5.44292
10.3544
10.6155
10.7993
10.986
11.1512
11.3015
11.4326
11.5456
11.6322
11.6863
11.7241
1
1
1
1
1
1
1
1
1
1
1
1
4.76527
10.155
10.5263
10.702
10.8806
11.0316
11.164
11.2733
11.3624
11.4338
11.4774
11.5331
1
1
1
1
1
1
1
1
1
1
1
1
3.96212
9.82723
10.4224
10.5889
10.7543
10.8859
10.996
11.0864
11.1582
11.2148
11.2242
11.1863
1
1
1
1
1
1
1
1
1
1
1
1
3.07942
9.32731
10.3638
10.5031
10.6409
10.7422
10.8137
10.8598
10.8677
10.819
10.7428
10.6944
1
1
1
1
1
1
1
1
1
1
1
1
2.13954
8.54283
10.284
10.3786
10.5026
10.5788
10.6109
10.6077
10.5405
10.4405
10.294
10.2646
1
1
1
1
1
1
1
1
1
1
1
1
1.26576
7.54343
10.3389
10.2767
10.3272
10.3508
10.3384
10.2818
10.1288
9.85189
9.07689
7.19382
1
1
1
1
1
1
1
1
1
1
1
1
1.00921
6.13446
9.84019
9.9069
9.9953
10.0322
10.0022
9.89689
9.66179
9.19421
8.39091
6.33026
1
1
1
1
1
1
1
1
1
1
1
1
0.999965
4.37905
9.39538
9.78545
9.83167
9.81564
9.7344
9.55828
9.25058
8.67882
7.83429
5.90202
1
1
1
1
1
1
1
1
1
1
1
1
0.999991
2.57222
8.51511
9.65846
9.65338
9.60641
9.47469
9.23517
8.86359
8.28946
7.35891
5.80686
1
1
1
1
1
1
1
1
1
1
1
1
0.999999
1.22821
7.20919
9.70918
9.49822
9.36515
9.19205
8.92702
8.52965
7.97659
7.04699
5.85706
1
1
1
1
1
1
1
1
1
1
1
1
1
1.00504
5.27527
9.06869
9.13092
9.05808
8.90212
8.63667
8.26224
7.70604
6.87295
5.93013
1
1
1
1
1
1
1
1
1
1
1
1
1
0.999945
2.77683
8.23373
9.02269
8.92599
8.73972
8.4448
8.07332
7.50716
6.79048
6.02172
1
1
1
1
1
1
1
1
1
1
1
1
1
0.999987
1.24055
6.60764
8.92932
8.77768
8.57046
8.25476
7.88308
7.35686
6.73716
6.0805
1
1
1
1
1
1
1
1
1
1
1
1
1
0.999998
1.00466
4.07285
8.35502
8.56428
8.36802
8.10279
7.73251
7.25607
6.7063
6.13052
1
1
1
1
1
1
1
1
1
1
1
1
1
1
0.999979
1.58467
7.19701
8.60011
8.27695
8.00867
7.62669
7.16914
6.66538
6.14877
1
1
1
1
1
1
1
1
1
1
1
1
1
1
0.999995
1.02827
4.87741
8.1322
8.08378
7.86095
7.51234
7.08598
6.62633
6.15606
1
1
1
1
1
1
1
1
1
1
1
1
1
1
0.999999
1.00002
1.92451
7.11935
8.13353
7.80217
7.44205
7.04021
6.62497
6.19147
1
1
1
1
1
1
1
1
1
1
1
1
1
1
1
1
1.06623
4.93759
7.83375
7.66229
7.33983
6.98646
6.60653
6.20455
1
1
1
1
1
1
1
1
1
1
1
1
1
1
1
1
1.00035
1.99212
6.6746
7.66807
7.30822
6.9672
6.60104
6.224
1
1
1
1
1
1
1
1
1
1
1
1
1
1
1
1
1
1.07288
4.33526
7.39311
7.23786
6.91204
6.5773
6.23865
1
1
1
1
1
1
1
1
1
1
1
1
1
1
1
1
1
1.00061
1.7426
5.96354
7.24594
6.88944
6.59203
6.27852
1
1
1
1
1
1
1
1
1
1
1
1
1
1
1
1
1
1
1.04179
3.21056
6.6298
6.88593
6.60798
6.3063
1
1
1
1
1
1
1
1
1
1
1
1
1
1
1
1
1
1
1.00039
1.34221
4.77568
6.90141
6.66563
6.36314
1
1
1
1
1
1
1
1
1
1
1
1
1
1
1
1
1
1
1
1.01057
2.09731
5.74501
6.66177
6.38716
1
1
1
1
1
1
1
1
1
1
1
1
1
1
1
1
1
1
1
1.00007
1.08922
3.21434
6.08919
6.43322
1
1
1
1
1
1
1
1
1
1
1
1
1
1
1
1
1
1
1
1
1.00141
1.3504
4.25887
6.24383
1
1
1
1
1
1
1
1
1
1
1
1
1
1
1
1
1
1
1
1
1.00001
1.012
1.84347
4.96335
1
1
1
1
1
1
1
1
1
1
1
1
1
1
1
1
1
1
1
1
1
1.0001
1.0568
2.46498
1
1
1
1
1
1
1
1
1
1
1
1
1
1
1
1
1
1
1
1
1
1
1.00082
1.16295
1
1
1
1
1
1
1
1
1
1
1
1
1
1
1
1
1
1
1
1
1
1
1
1.00384
1
1
1
1
1
1
1
1
1
1
1
1
1
1
1
1
1
1
1
1
1
1
1
1.00002
1
1
1
1
1
1
1
1
1
1
1
1
1
1
1
1
1
1
1
1
1
1
1
1
1
1
1
1
1
1
1
1
1
1
1
1
1
1
1
1
1
1
1
1
1
1
1
1
1
1
1
1
1
1
1
1
1
1
1
1
1
1
1
1
1
1
1
1
1
1
1
1
1
1
1
1
1
1
1
1
1
1
1
1
1
1
1
1
1
1
1
1
1
1
1
1
1
1
1
1
1
1
1
1
1
1
1
1
1
1
1
1
1
1
1
1
1
1
1
1
1
1
1
1
1
1
1
1
1
1
1
1
1
1
1
1
1
1
1
1
1
1
1
1
1.59546
0.417615
0.181774
0.176712
0.185183
0.223913
0.330113
0.453959
0.612926
0.77625
0.955476
1.08887
1.10959
1.119
1.18203
1.22314
1.2345
1.26751
1.30715
1.31146
1.29418
1.26863
1.26224
1.26283
1.29107
1.32231
1.335
1.33302
1.32334
1.31944
1.32243
1.33647
1.3377
1.32676
1.38997
3.84437
6.75168
6.78992
6.64464
6.45843
6.24198
6.08452
5.95935
5.86413
5.77139
5.66649
5.54632
5.41668
5.29399
5.18797
5.10069
5.02558
4.96142
4.88333
4.7731
4.66088
4.54668
4.42803
4.31695
4.23481
4.16861
4.11739
4.08586
4.03653
3.96929
3.89393
3.79558
3.68297
3.59613
3.53914
3.49338
3.46465
3.44867
3.41041
3.35672
3.27735
3.1587
3.06012
3.00571
2.96698
2.93375
2.90663
2.87741
2.84496
2.81164
2.77322
2.7137
2.62265
2.54365
2.49625
2.46048
2.42659
2.39453
2.36451
2.33748
2.27876
2.77928
1.37128
0.863215
0.712799
0.572726
0.511272
0.503667
0.501918
0.511057
0.548204
0.620091
0.730238
0.843612
0.923229
0.986987
1.05897
1.11827
1.17448
1.23228
1.25604
1.27585
1.28039
1.27695
1.26197
1.26228
1.28394
1.31395
1.33897
1.34383
1.33852
1.32296
1.30857
1.30924
1.36156
1.71102
3.4737
6.38227
6.71129
6.50761
6.25864
6.06556
5.97954
5.91731
5.85219
5.73486
5.61909
5.52077
5.4265
5.32115
5.21379
5.10713
5.00685
4.92081
4.84951
4.77109
4.67436
4.57783
4.47154
4.34964
4.23719
4.15895
4.09753
4.04912
4.00991
3.95889
3.89298
3.81649
3.72858
3.63264
3.55177
3.50005
3.45971
3.42157
3.3796
3.32954
3.26603
3.18163
3.09015
3.01604
2.96868
2.93493
2.90486
2.87481
2.84249
2.80677
2.76043
2.69625
2.61963
2.5494
2.50161
2.46646
2.43394
2.40244
2.36954
2.33777
2.27373
3.63941
2.41248
1.6593
1.23253
0.985842
0.840065
0.758043
0.681936
0.583822
0.571516
0.589449
0.644674
0.728472
0.808787
0.861242
0.914958
0.993666
1.0726
1.1489
1.20592
1.25079
1.29967
1.31868
1.31241
1.28667
1.28166
1.29413
1.31666
1.34176
1.34593
1.33711
1.3126
1.35262
1.69508
2.47975
3.06357
4.7318
6.20686
6.47218
6.37467
6.22393
6.04087
5.93491
5.84071
5.73111
5.61488
5.51203
5.42046
5.33568
5.24103
5.13818
5.02304
4.91368
4.81964
4.73865
4.65749
4.57664
4.49419
4.39584
4.28287
4.17691
4.08787
4.01654
3.95503
3.8957
3.84724
3.80005
3.74823
3.68943
3.61101
3.51766
3.44304
3.39142
3.34081
3.28386
3.2246
3.17366
3.12221
3.05787
2.98561
2.93245
2.89825
2.86718
2.83452
2.79633
2.74586
2.67795
2.60029
2.53444
2.49082
2.4616
2.43576
2.40966
2.37921
2.34533
2.27363
4.23914
3.11236
2.43137
1.90689
1.4703
1.22834
1.1014
0.995158
0.875934
0.793492
0.740551
0.700108
0.703643
0.720515
0.742368
0.77065
0.836509
0.923952
1.00638
1.07697
1.12872
1.17991
1.24751
1.29536
1.29702
1.2965
1.30688
1.3202
1.34264
1.34299
1.33007
1.36948
1.72462
2.51783
3.24186
3.20484
3.43591
4.49928
5.54861
6.15221
6.30681
6.08712
5.9257
5.764
5.6686
5.60339
5.51571
5.41458
5.31627
5.21325
5.11056
5.00704
4.89484
4.79899
4.71525
4.6344
4.55652
4.47717
4.38932
4.29139
4.19039
4.09425
4.01043
3.93976
3.88061
3.83026
3.78522
3.74269
3.69676
3.63909
3.54718
3.43659
3.35622
3.29572
3.24308
3.20105
3.16528
3.12767
3.08388
3.02156
2.94316
2.88584
2.84989
2.81548
2.7751
2.72369
2.66274
2.6031
2.54672
2.49147
2.45198
2.42675
2.40304
2.37715
2.34811
2.27827
4.714
3.69978
2.9864
2.47818
2.01535
1.69198
1.46691
1.27362
1.13946
1.03361
0.941295
0.830447
0.770392
0.764321
0.770255
0.790367
0.794591
0.801135
0.814339
0.860821
0.935441
1.02363
1.1286
1.21041
1.25089
1.25608
1.26447
1.28572
1.30047
1.31556
1.36291
1.68408
2.60286
3.1904
3.39203
3.32737
3.26922
3.38573
4.02638
5.15179
5.92629
6.04936
5.96114
5.81254
5.70804
5.61114
5.49915
5.3739
5.27418
5.18886
5.10393
5.01117
4.90443
4.7953
4.70108
4.61873
4.54114
4.46334
4.38138
4.29312
4.19879
4.09778
3.99675
3.92136
3.86883
3.82349
3.78266
3.73947
3.69298
3.63608
3.54753
3.42111
3.31466
3.25939
3.22249
3.19194
3.16702
3.13414
3.09598
3.04747
2.97091
2.88178
2.82201
2.77886
2.73475
2.68784
2.64576
2.60985
2.57086
2.51817
2.45834
2.41697
2.3886
2.36121
2.33241
2.2711
5.00364
4.14712
3.48248
2.9308
2.45386
2.12579
1.85386
1.59284
1.39974
1.29626
1.20578
1.08517
0.949507
0.902816
0.88592
0.868534
0.848596
0.822342
0.804482
0.793523
0.806786
0.847072
0.916145
1.01255
1.13069
1.1919
1.21619
1.2503
1.25726
1.31329
1.6526
2.49115
3.22492
3.39324
3.37989
3.31891
3.23359
3.18779
3.25293
3.71564
4.73304
5.60849
5.76325
5.80655
5.77214
5.63484
5.45113
5.2995
5.21104
5.14436
5.08208
5.00431
4.90792
4.79068
4.67363
4.57843
4.49992
4.4301
4.36095
4.28754
4.20793
4.12008
4.02167
3.92762
3.86342
3.81428
3.76808
3.71966
3.66709
3.60478
3.52498
3.42215
3.31243
3.24639
3.21093
3.18038
3.15763
3.12992
3.09377
3.05248
2.98753
2.88539
2.79222
2.73633
2.6956
2.66404
2.6382
2.61232
2.5838
2.54467
2.4839
2.41854
2.3743
2.33837
2.30643
2.25491
5.24421
4.49305
3.88482
3.33835
2.82797
2.4941
2.22479
1.93666
1.6671
1.51922
1.42293
1.32785
1.22401
1.10487
0.995486
0.932469
0.898515
0.876654
0.864012
0.852628
0.838275
0.819573
0.820699
0.839745
0.902043
0.995498
1.08188
1.14952
1.21452
1.62749
2.38876
3.09259
3.42303
3.43717
3.37999
3.29271
3.22228
3.16799
3.14205
3.15403
3.41019
4.24596
5.17369
5.60544
5.731
5.63373
5.41423
5.26156
5.17496
5.1114
5.06167
4.99352
4.90202
4.78688
4.65573
4.54005
4.45709
4.39561
4.33606
4.27169
4.20343
4.13036
4.0472
3.95256
3.86597
3.80086
3.74428
3.68645
3.62316
3.55636
3.49142
3.4255
3.3471
3.25994
3.20445
3.17006
3.13944
3.10913
3.07327
3.03462
2.98064
2.8847
2.76556
2.70089
2.67219
2.64934
2.63145
2.61391
2.58888
2.55794
2.50533
2.41938
2.3475
2.30518
2.28331
2.24794
5.4128
4.74883
4.17741
3.66788
3.19003
2.80471
2.50434
2.2421
2.01195
1.79341
1.57991
1.48688
1.43206
1.34673
1.23854
1.1052
1.00871
0.984532
0.971582
0.950418
0.918052
0.874704
0.831359
0.826102
0.831226
0.847092
0.889403
0.948617
1.2967
2.1832
2.79594
3.10645
3.28151
3.27696
3.23084
3.20698
3.20094
3.16624
3.12489
3.09424
3.06635
3.20536
3.83334
4.774
5.37185
5.50494
5.37461
5.25278
5.16428
5.09567
5.04342
4.97064
4.88509
4.77778
4.6499
4.52203
4.42742
4.36365
4.30601
4.24993
4.19047
4.12832
4.05954
3.97626
3.87957
3.79054
3.71739
3.64983
3.58237
3.52039
3.46945
3.42241
3.36679
3.28925
3.205
3.1481
3.10995
3.07902
3.0498
3.01074
2.95916
2.88243
2.77815
2.69408
2.6575
2.63425
2.61902
2.61378
2.5954
2.5676
2.52084
2.42261
2.3191
2.27703
2.26122
2.23654
5.53632
4.94672
4.42028
3.92707
3.48066
3.11855
2.77949
2.45727
2.25836
2.07701
1.87272
1.67296
1.54257
1.4853
1.42609
1.33896
1.22988
1.10777
1.04303
1.01737
0.990724
0.961157
0.932096
0.887029
0.845168
0.84329
0.861874
1.07656
1.8084
2.40921
2.66362
2.7612
2.79442
2.86096
2.95445
3.04156
3.10942
3.1002
3.07134
3.05673
3.03292
2.97601
3.04117
3.45635
4.24103
5.00939
5.14989
5.19391
5.17453
5.10183
5.03219
4.94143
4.85387
4.75066
4.63674
4.51718
4.40993
4.33771
4.28073
4.22935
4.17985
4.12319
4.06125
3.98505
3.88151
3.76954
3.68404
3.6173
3.55857
3.50809
3.46153
3.41482
3.36369
3.29678
3.20943
3.13292
3.08216
3.04007
2.99722
2.95464
2.9109
2.86687
2.81277
2.73888
2.66879
2.63428
2.61182
2.59285
2.57383
2.5469
2.50081
2.41865
2.32145
2.27001
2.25291
2.2291
5.61219
5.09179
4.60862
4.13605
3.71427
3.36907
3.04414
2.71854
2.46
2.26527
2.09986
1.93386
1.78261
1.61776
1.51021
1.47208
1.41049
1.31564
1.21122
1.11721
1.06861
1.05379
1.03753
0.989444
0.924792
0.921451
1.08886
1.67651
2.35715
2.4695
2.45318
2.44211
2.43946
2.47162
2.56991
2.67836
2.76902
2.83766
2.88322
2.92485
2.93708
2.92049
2.89998
2.91404
3.11221
3.74016
4.46139
4.89698
5.01681
5.06141
5.01141
4.90651
4.8203
4.72386
4.62247
4.50905
4.38926
4.30299
4.24747
4.19911
4.16021
4.11266
4.056
3.98459
3.87171
3.73128
3.63963
3.58727
3.54465
3.50277
3.45778
3.40805
3.35131
3.2822
3.19763
3.11642
3.05635
3.00798
2.96178
2.91822
2.88253
2.85371
2.82321
2.77973
2.714
2.6439
2.59533
2.56072
2.52728
2.48982
2.44828
2.40189
2.35628
2.30425
2.26178
2.22076
5.67098
5.20803
4.76322
4.3264
3.93395
3.58025
3.24904
2.95604
2.71351
2.48587
2.2497
2.10473
1.99286
1.84054
1.6879
1.57598
1.50083
1.44388
1.37882
1.30557
1.2114
1.12694
1.09239
1.06653
1.0471
1.20401
1.81951
2.47177
2.59262
2.52066
2.43973
2.40826
2.40359
2.37529
2.35649
2.35257
2.35687
2.39967
2.46925
2.55854
2.64732
2.72392
2.74914
2.73596
2.76221
2.87993
3.27114
3.94983
4.51642
4.77242
4.88764
4.86875
4.79064
4.71578
4.62381
4.51717
4.38739
4.26799
4.20596
4.15968
4.12538
4.0874
4.03529
3.97225
3.86594
3.7089
3.6035
3.55955
3.52388
3.4875
3.448
3.40142
3.34251
3.26587
3.17445
3.0924
3.0342
2.98678
2.94072
2.89928
2.869
2.84266
2.8156
2.78406
2.73491
2.65863
2.5807
2.52533
2.48422
2.44622
2.40844
2.38564
2.36775
2.33951
2.29447
2.2215
5.74292
5.31159
4.88811
4.47813
4.11422
3.77356
3.44091
3.15472
2.91611
2.69621
2.469
2.28249
2.13554
2.00181
1.87442
1.76051
1.64716
1.52163
1.46512
1.43382
1.37457
1.27407
1.1881
1.177
1.32359
1.95816
2.71154
2.84027
2.74088
2.64035
2.55888
2.5039
2.44934
2.39268
2.35011
2.31835
2.30571
2.27213
2.22636
2.21974
2.25706
2.31691
2.39334
2.46533
2.53123
2.57822
2.63943
2.86105
3.40293
3.9878
4.5043
4.61831
4.67908
4.69636
4.62198
4.53474
4.41331
4.26339
4.17148
4.12008
4.07958
4.04169
3.99349
3.9361
3.85081
3.72251
3.59621
3.52914
3.49326
3.46057
3.42597
3.38496
3.33294
3.26027
3.1626
3.06689
3.00719
2.9674
2.93144
2.8985
2.86585
2.83137
2.79731
2.76357
2.72219
2.65803
2.57387
2.49952
2.44839
2.41202
2.39099
2.37643
2.36033
2.34123
2.31342
2.23515
5.79389
5.38452
4.98289
4.6173
4.27223
3.934
3.61938
3.35905
3.10781
2.8639
2.6524
2.48046
2.3144
2.15074
2.00361
1.90493
1.806
1.69364
1.57039
1.50271
1.45972
1.40123
1.35793
1.52502
2.18546
2.96668
3.12939
3.02559
2.91168
2.82313
2.73848
2.64919
2.55944
2.47748
2.41054
2.35477
2.30654
2.26473
2.2146
2.15726
2.11787
2.09494
2.09864
2.14035
2.19433
2.24885
2.29133
2.33325
2.44874
2.76862
3.39532
3.96143
4.33493
4.52379
4.55667
4.53203
4.42208
4.29612
4.18836
4.08409
4.01824
3.97454
3.9317
3.87821
3.81497
3.73519
3.62811
3.51909
3.45891
3.42413
3.39218
3.3564
3.31207
3.25455
3.17192
3.06428
2.98009
2.94108
2.91561
2.89091
2.86255
2.82746
2.7849
2.73626
2.68394
2.62782
2.55804
2.48482
2.4326
2.40333
2.38526
2.36844
2.35183
2.3343
2.31262
2.24141
5.84675
5.46403
5.08671
4.74636
4.41703
4.08315
3.7919
3.53207
3.2829
3.03086
2.82969
2.6438
2.47338
2.30654
2.16585
2.0319
1.91625
1.83362
1.73966
1.62506
1.5374
1.51219
1.69461
2.44678
3.27797
3.43647
3.32745
3.19899
3.10255
3.00505
2.89383
2.78142
2.6825
2.60398
2.54047
2.48101
2.41769
2.34783
2.27039
2.17888
2.09771
2.05978
2.04604
2.03282
2.02775
2.03039
2.01968
2.01864
2.01256
2.035
2.20098
2.68237
3.30398
3.97917
4.24348
4.36829
4.35717
4.30768
4.20817
4.07663
3.96253
3.90952
3.86542
3.81488
3.76611
3.71571
3.64668
3.54109
3.43628
3.38413
3.35091
3.31828
3.2805
3.23621
3.17721
3.08518
2.97581
2.9125
2.88457
2.86223
2.83907
2.81155
2.77561
2.72618
2.66199
2.58362
2.50903
2.46445
2.43964
2.41803
2.39327
2.36519
2.33932
2.32115
2.30572
2.2402
5.88855
5.53183
5.19213
4.86462
4.53712
4.22511
3.9547
3.69063
3.43098
3.19195
2.99651
2.80195
2.61885
2.44564
2.31514
2.18735
2.05071
1.93128
1.84539
1.75556
1.70262
1.91168
2.71093
3.59513
3.73761
3.62197
3.48851
3.38577
3.28761
3.18036
3.05936
2.92938
2.81894
2.73675
2.66879
2.60466
2.53882
2.46323
2.3708
2.25866
2.15086
2.08376
2.04217
2.0091
1.99055
1.97211
1.95628
1.93798
1.90137
1.83076
1.79653
1.8429
2.05699
2.59386
3.26662
3.8452
4.14734
4.19807
4.16773
4.07629
3.94026
3.85114
3.79078
3.7464
3.71304
3.67638
3.63144
3.55783
3.454
3.35493
3.30024
3.26546
3.23583
3.2021
3.1583
3.09547
2.99978
2.90644
2.85775
2.82679
2.80021
2.77526
2.74794
2.71182
2.65503
2.56817
2.48425
2.45071
2.43262
2.41346
2.39291
2.37104
2.34225
2.30179
2.25654
2.18434
5.94663
5.60905
5.29077
4.97855
4.65632
4.3643
4.09527
3.8347
3.56698
3.34865
3.14208
2.94947
2.75427
2.59524
2.44953
2.31709
2.19362
2.05598
1.945
1.91379
2.17531
3.09779
3.99263
4.07794
3.92977
3.76836
3.6653
3.56882
3.46502
3.352
3.22172
3.07521
2.94606
2.85369
2.77871
2.70931
2.64168
2.5719
2.49141
2.3851
2.25735
2.15581
2.09498
2.05152
2.0135
1.97647
1.93968
1.90266
1.86903
1.82753
1.7707
1.71629
1.69287
1.74051
1.98279
2.48682
3.15572
3.6544
3.98015
3.97668
3.9229
3.84556
3.76108
3.71583
3.67672
3.62396
3.57528
3.52652
3.4506
3.34766
3.27405
3.229
3.18836
3.15103
3.12166
3.08218
3.00491
2.90849
2.83923
2.79997
2.77166
2.74684
2.7204
2.687
2.64063
2.57476
2.49648
2.44522
2.42374
2.40971
2.39799
2.37842
2.34479
2.29186
2.22743
2.14501
5.99673
5.68812
5.37672
5.06419
4.76538
4.49028
4.21756
3.94618
3.69921
3.48847
3.27887
3.07915
2.8851
2.7411
2.58822
2.44731
2.29648
2.17097
2.13672
2.4619
3.49164
4.42498
4.46842
4.29478
4.09972
3.94984
3.84033
3.72922
3.61416
3.49593
3.36811
3.22265
3.07809
2.9689
2.88737
2.81545
2.74559
2.6734
2.59392
2.49652
2.3726
2.25505
2.17671
2.11792
2.06451
2.01411
1.96848
1.92432
1.87979
1.83406
1.78056
1.71461
1.66918
1.64488
1.6243
1.65924
1.87802
2.33348
2.99941
3.43165
3.70801
3.75064
3.74404
3.73225
3.6743
3.60759
3.54985
3.48416
3.40169
3.32322
3.25757
3.20477
3.15963
3.11475
3.0599
3.00061
2.95245
2.90013
2.84587
2.79351
2.74632
2.70522
2.66777
2.63553
2.6055
2.56702
2.51751
2.46943
2.42593
2.38744
2.35357
2.32625
2.30431
2.27038
2.21709
2.13101
6.06207
5.76334
5.45738
5.14858
4.86629
4.59417
4.32893
4.06158
3.83734
3.61692
3.41432
3.20123
3.03344
2.87256
2.7252
2.56082
2.40577
2.3925
2.80168
3.93532
4.89272
4.93082
4.72632
4.48606
4.27312
4.12388
3.99504
3.87172
3.7512
3.63041
3.50319
3.36112
3.20843
3.07976
2.98524
2.90548
2.82961
2.75372
2.67449
2.58655
2.4812
2.35966
2.25761
2.1881
2.13051
2.07472
2.02036
1.96744
1.91272
1.86283
1.8092
1.75252
1.69504
1.64718
1.60548
1.5833
1.56298
1.58926
1.76419
2.20231
2.78101
3.22497
3.45928
3.61199
3.62596
3.60337
3.54365
3.45253
3.36288
3.28972
3.23254
3.18766
3.14718
3.09509
3.02675
2.95786
2.90202
2.86929
2.83981
2.79134
2.73184
2.68283
2.64428
2.60997
2.57456
2.5477
2.52701
2.49639
2.43763
2.36927
2.32364
2.29384
2.26569
2.23218
2.19819
2.13587
6.08793
5.79823
5.50032
5.22232
4.95505
4.68664
4.41708
4.18214
3.96321
3.74557
3.53075
3.33176
3.16809
3.00243
2.8295
2.65668
2.66522
3.20956
4.45847
5.28561
5.29321
5.09252
4.86967
4.6541
4.44966
4.28529
4.14192
4.0079
3.88092
3.75636
3.62845
3.48726
3.32984
3.18312
3.07227
2.98302
2.90154
2.82353
2.7466
2.66692
2.57693
2.46998
2.35842
2.26671
2.19551
2.13439
2.07731
2.01987
1.96076
1.9018
1.8402
1.78086
1.72459
1.67819
1.63302
1.5949
1.55923
1.5327
1.49644
1.51516
1.65971
2.09502
2.60855
3.14465
3.36837
3.43163
3.4392
3.4083
3.33923
3.26663
3.20487
3.16399
3.12819
3.07616
3.00745
2.94584
2.89966
2.85275
2.80034
2.76039
2.72059
2.67386
2.63138
2.59387
2.56429
2.54016
2.50732
2.45247
2.38258
2.33086
2.29759
2.27058
2.24202
2.21236
2.18936
2.1356
6.16427
5.863
5.57629
5.311
5.05369
4.78509
4.52828
4.30868
4.08232
3.86465
3.64438
3.46655
3.29446
3.11548
2.92172
2.98119
3.72678
5.12225
5.79835
5.77871
5.52891
5.28109
5.07631
4.86057
4.6403
4.45058
4.28876
4.14056
4.00166
3.86954
3.73839
3.60072
3.45014
3.29606
3.16472
3.05961
2.9676
2.88149
2.79875
2.71767
2.63483
2.54439
2.44393
2.34561
2.26257
2.19395
2.13335
2.07536
2.0189
1.96181
1.90074
1.8332
1.76187
1.69896
1.65181
1.61773
1.58368
1.5433
1.50278
1.46814
1.43123
1.45337
1.60174
1.98314
2.49752
2.95193
3.24601
3.28909
3.26857
3.22702
3.15297
3.0979
3.06153
3.02315
2.98506
2.9474
2.90141
2.84415
2.78365
2.72273
2.66905
2.63725
2.61289
2.59286
2.57358
2.54323
2.49525
2.42539
2.35184
2.30297
2.27301
2.24651
2.21841
2.19543
2.18225
2.1403
6.24543
5.95626
5.66047
5.40038
5.14253
4.8739
4.63542
4.41398
4.19213
3.96531
3.76291
3.58339
3.39979
3.20947
3.30185
4.28703
5.92236
6.40099
6.19558
5.93005
5.70883
5.51469
5.3109
5.07754
4.84154
4.62821
4.43743
4.26411
4.1076
3.96519
3.83025
3.6957
3.55555
3.41001
3.27153
3.15175
3.0475
2.95156
2.85992
2.77139
2.68547
2.59991
2.51016
2.41718
2.32923
2.25221
2.18443
2.12072
2.05914
2.00041
1.94564
1.89056
1.8318
1.76888
1.70358
1.64365
1.59157
1.55422
1.52122
1.4816
1.44396
1.41855
1.38592
1.39909
1.53884
1.87041
2.37779
2.75747
3.05865
3.14083
3.11753
3.09029
3.05066
2.99931
2.95971
2.9154
2.86717
2.8261
2.76982
2.69452
2.63959
2.61038
2.58792
2.56382
2.5319
2.49053
2.43609
2.37457
2.32312
2.29353
2.26802
2.23954
2.21028
2.18515
2.16111
2.09888
6.17326
6.03723
5.74487
5.47987
5.22301
4.95904
4.73787
4.51512
4.29335
4.06702
3.86876
3.69349
3.51323
3.68962
4.86763
6.51816
7.13635
6.87054
6.44127
6.07822
5.86029
5.68489
5.47909
5.24765
5.02378
4.81188
4.6087
4.41628
4.23657
4.07148
3.92096
3.77884
3.63962
3.50205
3.36889
3.24519
3.13313
3.02976
2.93066
2.83324
2.7373
2.64532
2.558
2.47248
2.38705
2.30379
2.22654
2.15646
2.09026
2.02521
1.96433
1.91205
1.86654
1.81967
1.76714
1.7092
1.6478
1.58886
1.53342
1.49081
1.46022
1.42618
1.39047
1.36346
1.33681
1.34732
1.47213
1.7724
2.23942
2.61359
2.88337
2.98141
3.00704
3.00832
2.98967
2.93313
2.8644
2.79368
2.70825
2.63795
2.61338
2.60176
2.58326
2.55301
2.50996
2.45557
2.39532
2.341
2.30933
2.27853
2.24785
2.23259
2.21024
2.17823
2.14307
2.07562
5.37152
6.03853
5.84773
5.56664
5.29959
5.05494
4.83307
4.61221
4.38863
4.15874
3.982
3.83527
4.15399
5.64047
7.18655
7.57488
7.33354
6.99719
6.67367
6.34671
6.05476
5.81519
5.59293
5.37575
5.16992
4.97218
4.7756
4.5765
4.37805
4.19001
4.01966
3.86547
3.72157
3.58432
3.4524
3.32543
3.20484
3.09256
2.98725
2.88596
2.78723
2.69317
2.60662
2.52578
2.44552
2.36287
2.27951
2.20073
2.12802
2.05976
1.99507
1.93523
1.88207
1.83483
1.7898
1.74221
1.69186
1.63811
1.58386
1.53617
1.48784
1.44043
1.39567
1.35844
1.3224
1.30234
1.28398
1.29958
1.40563
1.70099
2.10629
2.48064
2.68943
2.86942
2.90238
2.89466
2.86711
2.78919
2.68182
2.62447
2.59369
2.56363
2.53218
2.49628
2.45417
2.40621
2.3663
2.34665
2.32555
2.28481
2.23875
2.19712
2.16267
2.12777
2.09787
2.05362
3.12345
5.54763
5.8999
5.68587
5.38763
5.15551
4.92648
4.7223
4.46373
4.263
4.18719
4.74362
6.57795
8.09201
8.13793
7.80792
7.37885
7.10868
6.8936
6.62195
6.30272
5.99926
5.74198
5.51196
5.30137
5.10728
4.91816
4.72205
4.5154
4.30751
4.11556
3.949
3.80314
3.66845
3.53764
3.40678
3.27617
3.15077
3.03443
2.92622
2.82448
2.73026
2.6441
2.56521
2.48873
2.40851
2.32248
2.23582
2.15617
2.08721
2.02543
1.965
1.90516
1.84994
1.80155
1.75582
1.70915
1.66462
1.6198
1.56835
1.5165
1.47726
1.43829
1.39267
1.34188
1.2996
1.26238
1.25066
1.23578
1.25027
1.3359
1.60898
1.9884
2.41733
2.61178
2.7049
2.73032
2.71091
2.66891
2.63039
2.59455
2.54814
2.50307
2.46338
2.42406
2.38833
2.35832
2.32143
2.27669
2.25023
2.21709
2.17213
2.13707
2.10493
2.07827
2.02926
1.34801
3.71113
5.57821
5.74831
5.51832
5.24687
5.03061
4.79859
4.55748
4.60998
5.47348
7.43042
8.93208
8.85186
8.37666
7.94757
7.5776
7.31159
7.09135
6.82995
6.52042
6.19182
5.89393
5.64285
5.42342
5.22073
5.02599
4.83008
4.62443
4.4118
4.20959
4.03122
3.87746
3.74099
3.61071
3.4781
3.34147
3.20512
3.07931
2.96897
2.86838
2.77267
2.68195
2.59642
2.51609
2.44079
2.36133
2.27363
2.18733
2.11168
2.04978
1.99706
1.94277
1.88114
1.81744
1.76314
1.718
1.67353
1.62962
1.59678
1.57057
1.53472
1.48779
1.42957
1.37439
1.33098
1.28928
1.25702
1.22292
1.20863
1.19342
1.20284
1.29264
1.52105
1.8795
2.2519
2.52033
2.55696
2.54519
2.53256
2.49956
2.46807
2.45833
2.44868
2.4306
2.40795
2.36768
2.3175
2.26257
2.20177
2.17401
2.15459
2.12692
2.09709
2.06946
2.01646
1.01308
1.60654
4.14368
5.53336
5.61574
5.38154
5.12613
4.88328
5.12801
6.54725
8.4535
9.44465
9.5394
9.10016
8.61309
8.21878
7.89211
7.5837
7.28971
7
6.69349
6.3713
6.05376
5.76514
5.52005
5.3106
5.11491
4.91621
4.70838
4.49497
4.28986
4.1061
3.943
3.79384
3.65893
3.5334
3.40404
3.26523
3.12494
2.99696
2.89491
2.81769
2.74205
2.65547
2.56151
2.46813
2.38107
2.2952
2.21194
2.14093
2.07575
2.01391
1.95696
1.9027
1.84544
1.78862
1.73791
1.6925
1.65238
1.61306
1.56734
1.51624
1.46936
1.42322
1.37387
1.34664
1.33212
1.30643
1.27104
1.24115
1.20335
1.16929
1.14139
1.14608
1.2235
1.42933
1.78001
2.09795
2.3983
2.46068
2.43889
2.40834
2.3706
2.34844
2.34827
2.35699
2.34857
2.31679
2.25776
2.18255
2.13861
2.10458
2.07625
2.0565
2.04413
2.01538
1.00012
1.03419
1.90241
4.39757
5.49272
5.42639
5.26688
5.91667
7.86063
9.83006
10.0992
9.95169
9.66369
9.26989
8.82901
8.43734
8.10607
7.78352
7.45759
7.14309
6.82514
6.50836
6.20594
5.90818
5.62698
5.40761
5.22116
5.01468
4.78914
4.57597
4.36811
4.18088
4.02695
3.87632
3.72031
3.57318
3.43639
3.31561
3.18921
3.0572
2.94365
2.8387
2.7424
2.66117
2.58462
2.50212
2.41309
2.33645
2.27746
2.21395
2.14089
2.05951
1.98187
1.91502
1.86249
1.82461
1.78793
1.74406
1.69897
1.64789
1.58405
1.51928
1.46504
1.4312
1.40548
1.37222
1.32974
1.29128
1.25808
1.22673
1.19391
1.16358
1.12899
1.09956
1.07718
1.08625
1.16886
1.37215
1.74889
2.02594
2.23633
2.34877
2.32799
2.32851
2.33851
2.33066
2.30523
2.26588
2.21406
2.16233
2.10944
2.06973
2.04828
2.03729
2.02554
1.99153
1
1.00045
1.06927
2.19722
4.55156
5.25516
6.97092
9.42364
10.7879
11.0179
10.6242
10.1894
9.89941
9.55941
9.11287
8.68304
8.33705
8.01731
7.69167
7.34674
7.02189
6.71448
6.41186
6.1121
5.80071
5.50293
5.2489
5.06517
4.90627
4.72034
4.50924
4.26978
4.06033
3.92132
3.79993
3.66076
3.49748
3.33558
3.23546
3.15187
3.03662
2.90567
2.79378
2.70359
2.61267
2.52056
2.4339
2.35237
2.27374
2.19488
2.12302
2.05809
1.99408
1.93525
1.8819
1.82894
1.77623
1.72375
1.66952
1.62101
1.57814
1.52774
1.48381
1.44976
1.41507
1.37694
1.33309
1.29177
1.26092
1.23181
1.2013
1.16989
1.13468
1.09701
1.07024
1.06384
1.05924
1.07078
1.15434
1.353
1.62103
1.89628
2.08002
2.2201
2.28675
2.30001
2.29457
2.26174
2.19496
2.11623
2.05726
2.03894
2.03446
2.02821
2.01476
1.98844
1
1
1.00124
1.12091
2.32729
6.17324
11.158
11.8557
11.801
11.3419
10.8158
10.3925
10.0947
9.74082
9.27458
8.81085
8.44997
8.1139
7.76247
7.4121
7.05806
6.70389
6.37621
6.10819
5.88598
5.63986
5.38062
5.14121
4.90576
4.68403
4.4964
4.33775
4.15906
3.96933
3.78498
3.64237
3.53627
3.42425
3.28213
3.13035
3.00092
2.89232
2.79165
2.70308
2.6385
2.57443
2.49069
2.39676
2.29682
2.20361
2.12702
2.07746
2.03468
1.9842
1.92727
1.86268
1.79498
1.73449
1.67337
1.61362
1.57688
1.55545
1.52809
1.48771
1.44129
1.39373
1.3463
1.29823
1.25933
1.23491
1.2199
1.20224
1.17196
1.13377
1.09971
1.0733
1.04618
1.03527
1.02288
1.03094
1.08396
1.25437
1.53501
1.81758
1.98039
2.14282
2.20857
2.20772
2.18711
2.12442
2.05476
2.02058
2.00801
2.0079
2.01041
2.05631
1
1
1.00001
1.00228
1.38409
8.66392
13.1399
12.1895
11.6615
11.2057
10.8215
10.5135
10.2431
9.90844
9.46992
9.01466
8.62496
8.26024
7.89959
7.54113
7.17777
6.81817
6.48276
6.17814
5.89295
5.63237
5.39793
5.16858
4.94484
4.73382
4.52727
4.32459
4.14106
3.97064
3.82164
3.68453
3.54159
3.40074
3.26212
3.12017
2.99891
2.90577
2.82563
2.74338
2.64783
2.54591
2.45265
2.36578
2.28524
2.20697
2.13542
2.06783
2.00397
1.94707
1.89411
1.84227
1.78716
1.72685
1.67098
1.62191
1.58534
1.55149
1.5133
1.46851
1.42079
1.37637
1.33756
1.3045
1.27416
1.24755
1.22098
1.19017
1.15623
1.12178
1.09384
1.07296
1.05223
1.03467
1.01219
0.998512
0.97444
0.980397
1.0295
1.20702
1.46879
1.79473
1.94853
2.02444
2.07167
2.05651
2.05856
2.04999
2.05679
2.10533
2.22174
2.61019
1
1
1
1.00002
2.29519
9.34373
11.8746
11.5456
11.4616
11.2569
10.9679
10.6747
10.3482
9.96224
9.52661
9.08
8.65166
8.27112
7.90893
7.54543
7.19735
6.86076
6.53987
6.23366
5.94383
5.67577
5.42545
5.18651
4.96048
4.74598
4.54083
4.34843
4.17117
4.00603
3.84948
3.69656
3.54836
3.40631
3.26835
3.13887
3.02272
2.91704
2.81924
2.72789
2.63678
2.54647
2.45701
2.36886
2.2858
2.2099
2.13718
2.0665
2.00153
1.94155
1.88667
1.8383
1.78999
1.72936
1.67133
1.64186
1.611
1.57007
1.52251
1.47124
1.41828
1.37265
1.33386
1.30773
1.29356
1.27488
1.24476
1.20337
1.15884
1.12849
1.10719
1.08921
1.07383
1.05439
1.03012
1.00409
0.971685
0.944223
0.91723
0.929253
0.998763
1.16712
1.43785
1.70125
1.8997
1.97365
2.10173
2.30635
2.51885
2.77419
3.04149
3.39191
1
1
1
1
3.08103
9.54425
11.2999
11.4157
11.5256
11.4297
11.1754
10.8974
10.5544
10.149
9.71126
9.26123
8.82148
8.4012
7.9994
7.61903
7.25731
6.91281
6.58249
6.26955
5.97563
5.69872
5.43703
5.19126
4.96164
4.74803
4.55106
4.36841
4.19509
4.02759
3.86367
3.70468
3.55266
3.40917
3.27662
3.15428
3.03774
2.9254
2.81839
2.71843
2.62802
2.54714
2.46981
2.38926
2.30263
2.21383
2.13162
2.0616
2.00055
1.94407
1.88879
1.83143
1.77488
1.72811
1.68756
1.63696
1.58193
1.5353
1.49532
1.45525
1.41361
1.37171
1.33847
1.31432
1.28774
1.25623
1.22208
1.18144
1.13787
1.1048
1.08324
1.06578
1.05155
1.0332
1.00895
0.980529
0.948554
0.912564
0.889018
0.885254
0.884424
0.900796
0.993743
1.18958
1.5422
2.06146
2.57073
3.02808
3.50643
3.88542
4.22341
4.41373
)
;

boundaryField
{
    inlet
    {
        type            fixedValue;
        value           uniform 1;
    }
    outlet
    {
        type            zeroGradient;
    }
    bottom
    {
        type            symmetryPlane;
    }
    top
    {
        type            symmetryPlane;
    }
    obstacle
    {
        type            zeroGradient;
    }
    defaultFaces
    {
        type            empty;
    }
}


// ************************************************************************* //
