/*--------------------------------*- C++ -*----------------------------------*\
  =========                 |
  \\      /  F ield         | OpenFOAM: The Open Source CFD Toolbox
   \\    /   O peration     | Website:  https://openfoam.org
    \\  /    A nd           | Version:  7
     \\/     M anipulation  |
\*---------------------------------------------------------------------------*/
FoamFile
{
    version     2.0;
    format      ascii;
    class       volScalarField;
    location    "1.4";
    object      p;
}
// * * * * * * * * * * * * * * * * * * * * * * * * * * * * * * * * * * * * * //

dimensions      [1 -1 -2 0 0 0 0];

internalField   nonuniform List<scalar> 
4032
(
1
1
1
1
1
1
1
1
1
1
1
1
2.38989
9.34292
10.8724
10.9676
11.155
11.3253
11.479
11.6198
11.754
11.8766
11.9659
12.032
1
1
1
1
1
1
1
1
1
1
1
1
2.28173
9.18404
10.8415
10.9517
11.1297
11.2911
11.4387
11.5764
11.7095
11.8256
11.9083
11.9689
1
1
1
1
1
1
1
1
1
1
1
1
2.05939
8.90134
10.7991
10.9065
11.0774
11.233
11.3783
11.5153
11.6487
11.7618
11.8363
11.8939
1
1
1
1
1
1
1
1
1
1
1
1
1.75816
8.43461
10.7378
10.8371
10.9946
11.1432
11.2897
11.4295
11.5623
11.663
11.719
11.7507
1
1
1
1
1
1
1
1
1
1
1
1
1.40391
7.77052
10.6555
10.7314
10.8846
11.0291
11.1696
11.2957
11.4026
11.4802
11.5216
11.5724
1
1
1
1
1
1
1
1
1
1
1
1
1.03473
6.86531
10.5697
10.6542
10.7791
10.8904
10.9943
11.098
11.1927
11.2656
11.2786
11.2428
1
1
1
1
1
1
1
1
1
1
1
1
1.00039
5.70099
10.2522
10.464
10.5974
10.7098
10.7909
10.8592
10.8894
10.8643
10.7969
10.7447
1
1
1
1
1
1
1
1
1
1
1
1
0.999999
4.40064
9.83658
10.3633
10.4792
10.5595
10.5876
10.5877
10.5519
10.4761
10.3523
10.3235
1
1
1
1
1
1
1
1
1
1
1
1
1
3.01336
9.13075
10.2374
10.3328
10.4011
10.3798
10.3145
10.1745
9.90383
9.13375
7.23575
1
1
1
1
1
1
1
1
1
1
1
1
1
1.70795
8.18535
10.2267
10.2097
10.1818
10.0982
9.96431
9.72425
9.25145
8.43726
6.34656
1
1
1
1
1
1
1
1
1
1
1
1
1
1.05489
6.64697
9.88092
9.90709
9.86742
9.75103
9.56959
9.2716
8.71138
7.87361
5.94437
1
1
1
1
1
1
1
1
1
1
1
1
1
1.00024
4.56544
9.43778
9.72126
9.65096
9.51127
9.27757
8.90076
8.31819
7.40228
5.80621
1
1
1
1
1
1
1
1
1
1
1
1
1
0.999999
2.4883
8.54881
9.53742
9.38438
9.21474
8.95946
8.54174
7.98731
7.05235
5.85333
1
1
1
1
1
1
1
1
1
1
1
1
1
1
1.18233
6.82059
9.23895
9.08541
8.93945
8.68476
8.28678
7.70339
6.8744
5.92515
1
1
1
1
1
1
1
1
1
1
1
1
1
1
1.00283
4.20493
8.60155
8.91298
8.80558
8.52494
8.11717
7.54086
6.81804
6.01941
1
1
1
1
1
1
1
1
1
1
1
1
1
1
0.999992
1.6945
7.56516
8.9025
8.64915
8.34076
7.92206
7.40061
6.77031
6.0873
1
1
1
1
1
1
1
1
1
1
1
1
1
1
0.999999
1.039
5.26786
8.45441
8.40367
8.14825
7.7788
7.30022
6.7333
6.137
1
1
1
1
1
1
1
1
1
1
1
1
1
1
1
1.00007
2.24401
7.57971
8.38299
8.04532
7.67694
7.21936
6.6967
6.16687
1
1
1
1
1
1
1
1
1
1
1
1
1
1
1
0.999999
1.10949
5.45009
8.10852
7.87927
7.54054
7.12559
6.65657
6.18286
1
1
1
1
1
1
1
1
1
1
1
1
1
1
1
0.999999
1.00091
2.24133
7.0709
7.89448
7.50554
7.10084
6.66483
6.22635
1
1
1
1
1
1
1
1
1
1
1
1
1
1
1
1
1
1.10918
4.86306
7.64418
7.41365
7.03079
6.6395
6.23893
1
1
1
1
1
1
1
1
1
1
1
1
1
1
1
1
1
1.00109
1.96401
6.34638
7.41059
7.0004
6.65448
6.27838
1
1
1
1
1
1
1
1
1
1
1
1
1
1
1
1
1
1
1.06517
3.60019
6.92109
6.98967
6.65478
6.3001
1
1
1
1
1
1
1
1
1
1
1
1
1
1
1
1
1
1
1.00068
1.44983
5.12589
7.05431
6.72375
6.3696
1
1
1
1
1
1
1
1
1
1
1
1
1
1
1
1
1
1
1
1.0162
2.29199
5.97918
6.74156
6.41344
1
1
1
1
1
1
1
1
1
1
1
1
1
1
1
1
1
1
1
1.00011
1.11497
3.42892
6.16431
6.46318
1
1
1
1
1
1
1
1
1
1
1
1
1
1
1
1
1
1
1
1
1.00191
1.40395
4.33822
6.2533
1
1
1
1
1
1
1
1
1
1
1
1
1
1
1
1
1
1
1
1
1.00001
1.01437
1.86827
4.91769
1
1
1
1
1
1
1
1
1
1
1
1
1
1
1
1
1
1
1
1
1
1.00011
1.05728
2.38092
1
1
1
1
1
1
1
1
1
1
1
1
1
1
1
1
1
1
1
1
1
1
1.00078
1.13997
1
1
1
1
1
1
1
1
1
1
1
1
1
1
1
1
1
1
1
1
1
1
1
1.00291
1
1
1
1
1
1
1
1
1
1
1
1
1
1
1
1
1
1
1
1
1
1
1
1.00001
1
1
1
1
1
1
1
1
1
1
1
1
1
1
1
1
1
1
1
1
1
1
1
1
1
1
1
1
1
1
1
1
1
1
1
1
1
1
1
1
1
1
1
1
1
1
1
1
1
1
1
1
1
1
1
1
1
1
1
1
1
1
1
1
1
1
1
1
1
1
1
1
1
1
1
1
1
1
1
1
1
1
1
1
1
1
1
1
1
1
1
1
1
1
1
1
1
1
1
1
1
1
1
1
1
1
1
1
1
1
1
1
1
1
1
1
1
1
1
1
1
1
1
1
1
1
1
1
1
1
1
1
1
1
1
1
1
1
1
1
1
1
1
1
1
1
1
1
1
1
1
1
1
1
1
1
1
1
1
1
1
1
1
1
1
1
1
1
1
1
1
1
1
1
1
1
1
1
1
1
1
1
1
1
1
1
1
1
1
1
1
1
1.60203
0.4362
0.124216
0.122787
0.186759
0.283857
0.3925
0.533697
0.714645
0.835352
0.857969
0.900571
0.966843
1.0368
1.12495
1.1932
1.19457
1.19395
1.21493
1.22074
1.20005
1.18939
1.20951
1.22251
1.21544
1.2023
1.19117
1.18585
1.18594
1.18806
1.19318
1.20239
1.21113
1.21227
1.2104
1.2055
1.19996
1.19317
1.184
1.17485
1.16894
1.16365
1.15784
1.15317
1.14808
1.13957
1.12548
1.11036
1.09919
1.09106
1.08454
1.07964
1.07643
1.07786
1.11391
1.2512
1.52734
1.95773
2.49505
2.99831
3.46125
3.81931
4.12175
4.39428
4.46269
4.37744
4.25459
4.14946
4.03174
3.91849
3.79499
3.6847
3.57034
3.45163
3.34149
3.24861
3.17225
3.09143
3.03215
2.9951
2.95909
2.92418
2.90273
2.88676
2.86251
2.80809
2.69591
2.60498
2.56013
2.53202
2.51639
2.50996
2.50187
2.49162
2.47478
2.41258
2.71929
1.5104
0.893879
0.583185
0.569459
0.543974
0.524206
0.527627
0.535276
0.57987
0.63352
0.698829
0.774769
0.84959
0.930095
1.01946
1.06822
1.08452
1.12339
1.16395
1.17329
1.18452
1.20566
1.21545
1.20996
1.19869
1.19338
1.19127
1.1917
1.19323
1.19748
1.20408
1.20824
1.20728
1.20336
1.19622
1.18982
1.18465
1.17881
1.17178
1.16274
1.15572
1.15164
1.14955
1.14698
1.14122
1.1309
1.11805
1.10294
1.08835
1.07343
1.07346
1.10133
1.2114
1.43702
1.72083
2.01292
2.16403
2.2434
2.33741
2.53201
2.80642
3.04258
3.22467
3.39167
3.49982
3.57092
3.64212
3.69955
3.72245
3.69362
3.64607
3.57879
3.49688
3.40863
3.31575
3.23249
3.15355
3.08715
3.04222
2.99904
2.959
2.93062
2.90429
2.86915
2.80956
2.71684
2.62061
2.55847
2.51621
2.4847
2.46564
2.45499
2.43965
2.42397
2.37329
3.6173
2.3911
1.73976
1.28086
1.00615
0.837169
0.694992
0.64269
0.586363
0.57258
0.612793
0.681825
0.727171
0.76432
0.803955
0.869918
0.943388
0.98926
1.03805
1.11626
1.18299
1.21175
1.23022
1.23342
1.22557
1.21174
1.19792
1.18903
1.18577
1.18588
1.1916
1.1992
1.20141
1.20121
1.20026
1.19662
1.19149
1.18656
1.18219
1.17761
1.17261
1.16728
1.1615
1.15483
1.14671
1.13648
1.12483
1.11338
1.10112
1.10071
1.12678
1.22755
1.44083
1.73695
2.05633
2.20768
2.24284
2.2472
2.2337
2.22051
2.15711
2.15455
2.22106
2.34325
2.55942
2.82147
3.02787
3.18859
3.32127
3.40372
3.46159
3.49268
3.5093
3.50978
3.48657
3.43812
3.35196
3.25084
3.16379
3.08163
3.00928
2.95425
2.91082
2.86639
2.81311
2.753
2.68924
2.61381
2.54033
2.48283
2.43825
2.42251
2.4178
2.40771
2.38501
2.3353
4.22073
3.13118
2.36802
1.8933
1.53515
1.2612
1.04821
0.942744
0.858195
0.757375
0.735321
0.72372
0.696189
0.688181
0.696501
0.723209
0.778657
0.847639
0.905571
0.978834
1.06871
1.1177
1.15242
1.19699
1.21226
1.21326
1.21418
1.2142
1.20649
1.19813
1.19894
1.2011
1.19672
1.19168
1.1882
1.18519
1.18228
1.18016
1.17739
1.17562
1.17148
1.16682
1.16217
1.15479
1.14344
1.12953
1.11613
1.11094
1.12465
1.19744
1.38644
1.71092
2.07054
2.24733
2.31147
2.33565
2.3326
2.30539
2.24852
2.17451
2.10291
2.07023
2.05526
2.04482
2.04973
2.10537
2.21373
2.34596
2.5115
2.71464
2.92485
3.09603
3.21793
3.27562
3.29073
3.27901
3.23571
3.18828
3.13071
3.05921
3.01916
2.99349
2.96361
2.92477
2.87813
2.81998
2.75923
2.691
2.61597
2.54121
2.46829
2.42154
2.40567
2.38829
2.36316
2.31661
4.67524
3.74433
2.95835
2.4274
2.03013
1.67889
1.41776
1.26286
1.12798
1.00103
0.916176
0.856043
0.78286
0.714777
0.708082
0.716323
0.727239
0.74755
0.773054
0.817433
0.899488
0.983979
1.0478
1.12055
1.15617
1.16085
1.16986
1.1869
1.19866
1.19625
1.2033
1.21584
1.21544
1.21089
1.201
1.18819
1.17451
1.16736
1.16385
1.16151
1.16039
1.16147
1.16166
1.15676
1.14805
1.13588
1.13529
1.17012
1.3061
1.62023
2.00228
2.24896
2.36537
2.42665
2.41065
2.37528
2.32717
2.25375
2.19168
2.15567
2.12062
2.08155
2.04171
2.01133
1.98307
1.96348
1.94621
1.91585
1.91113
1.95162
2.07226
2.25433
2.46842
2.66931
2.84734
2.95333
3.01522
3.03087
3.00074
2.94116
2.91645
2.89678
2.86775
2.85462
2.85665
2.84017
2.81946
2.78936
2.73109
2.6457
2.53802
2.43931
2.3813
2.34299
2.31552
2.27362
4.99304
4.17183
3.45863
2.90389
2.46105
2.08976
1.78834
1.58399
1.41031
1.25072
1.14886
1.06584
0.983137
0.889453
0.853494
0.82179
0.782094
0.768538
0.774027
0.767906
0.772426
0.802988
0.858474
0.936736
1.01408
1.06869
1.10366
1.13955
1.16829
1.16922
1.1755
1.19505
1.20665
1.20523
1.19953
1.19533
1.18714
1.17439
1.16421
1.15852
1.15431
1.15239
1.14854
1.14485
1.14486
1.16703
1.2558
1.5183
1.92015
2.22562
2.39528
2.48008
2.47709
2.4564
2.3941
2.31667
2.26789
2.23024
2.2034
2.17255
2.11888
2.05537
2.01463
1.98816
1.96669
1.9469
1.9231
1.8936
1.84325
1.77628
1.74363
1.75243
1.79889
1.89531
2.03502
2.20218
2.37299
2.55524
2.6438
2.69763
2.74152
2.72499
2.68544
2.68156
2.69301
2.72012
2.74533
2.73634
2.71025
2.66896
2.60818
2.52034
2.42671
2.37524
2.35627
2.32006
5.2466
4.49832
3.84545
3.32093
2.85619
2.44674
2.14994
1.89795
1.69175
1.51174
1.37949
1.26811
1.15773
1.05704
0.993789
0.940984
0.88402
0.832645
0.819347
0.798755
0.775794
0.77264
0.780589
0.800057
0.837091
0.896015
0.962297
1.02424
1.08631
1.12236
1.13887
1.16404
1.18725
1.18747
1.18237
1.1837
1.1846
1.17982
1.17613
1.17377
1.1662
1.15623
1.14519
1.15123
1.20634
1.44027
1.81575
2.21973
2.46811
2.5677
2.5462
2.50389
2.44559
2.39342
2.33531
2.29164
2.27331
2.24804
2.207
2.15741
2.09078
2.022
1.99452
1.97855
1.96139
1.93803
1.91008
1.87746
1.83617
1.77715
1.70665
1.6683
1.65492
1.64583
1.6467
1.67091
1.72439
1.81191
1.92324
2.0354
2.13023
2.20533
2.28522
2.36376
2.40932
2.46518
2.53448
2.57658
2.59103
2.58245
2.54498
2.49008
2.43143
2.38385
2.36608
2.34634
5.41179
4.73242
4.15534
3.65398
3.17089
2.76089
2.47088
2.19919
1.95362
1.75711
1.6134
1.47017
1.35436
1.24785
1.16954
1.09683
1.0299
0.965417
0.936555
0.90585
0.851498
0.806149
0.804755
0.793992
0.782768
0.788009
0.814047
0.869429
0.933709
1.00029
1.04786
1.08476
1.13535
1.15084
1.15331
1.163
1.1705
1.17436
1.17503
1.16793
1.16329
1.15782
1.17875
1.31051
1.67143
2.13112
2.45239
2.63763
2.64561
2.61001
2.51539
2.45174
2.39858
2.35402
2.33056
2.30475
2.26928
2.22832
2.18207
2.12836
2.06557
2.00392
1.96897
1.94947
1.93101
1.91065
1.88651
1.85818
1.82487
1.78024
1.70831
1.6419
1.61258
1.5972
1.58656
1.58158
1.57555
1.57165
1.57608
1.58444
1.58385
1.60561
1.64312
1.70288
1.80259
1.91669
2.04574
2.17368
2.28353
2.34862
2.37472
2.36481
2.34732
2.33144
2.29275
2.26799
5.53166
4.92882
4.39958
3.923
3.44807
3.07018
2.75335
2.46549
2.19147
2.00522
1.83986
1.67903
1.52647
1.42639
1.33942
1.2573
1.18774
1.10897
1.04843
0.995985
0.938232
0.867656
0.840379
0.82254
0.794724
0.789484
0.79708
0.809738
0.829014
0.8487
0.883109
0.929886
0.988193
1.04753
1.08764
1.11053
1.14111
1.16199
1.16345
1.15862
1.16742
1.25591
1.50593
1.93104
2.39611
2.61596
2.69281
2.66967
2.62658
2.57174
2.51097
2.42613
2.379
2.33957
2.30134
2.2695
2.2346
2.1965
2.15537
2.10764
2.04875
1.98298
1.94338
1.9149
1.88991
1.87312
1.86226
1.83818
1.80797
1.77135
1.71457
1.63458
1.58711
1.56695
1.55125
1.54084
1.533
1.52388
1.51464
1.50529
1.49464
1.47247
1.43064
1.37864
1.37468
1.39753
1.45359
1.53277
1.644
1.76925
1.89904
2.00568
2.05846
2.10197
2.11862
2.13539
5.61967
5.07378
4.5893
4.13612
3.68622
3.32285
3.00777
2.70829
2.42583
2.22909
2.04305
1.87551
1.71707
1.60909
1.50114
1.39618
1.32479
1.25612
1.18087
1.12106
1.06819
0.986248
0.932955
0.911311
0.879303
0.834384
0.826759
0.829003
0.816644
0.798838
0.799411
0.809704
0.834767
0.87983
0.947237
1.00283
1.05709
1.12192
1.13621
1.17536
1.36767
1.84088
2.28128
2.61762
2.70991
2.67664
2.66461
2.66915
2.61843
2.53824
2.46702
2.38689
2.32667
2.29186
2.26154
2.23009
2.19639
2.16043
2.11612
2.07019
2.01536
1.95073
1.91303
1.88077
1.85477
1.84006
1.82447
1.7992
1.77265
1.7463
1.71235
1.6595
1.58899
1.54605
1.52652
1.50902
1.4927
1.48532
1.47538
1.46192
1.45003
1.43715
1.41854
1.38292
1.32425
1.28887
1.27213
1.26846
1.2759
1.30216
1.34912
1.42053
1.49279
1.56899
1.63416
1.74791
5.68659
5.19455
4.75283
4.31703
3.89855
3.55476
3.23876
2.91581
2.64802
2.44735
2.25166
2.05871
1.88371
1.7783
1.66439
1.55222
1.4551
1.38914
1.29625
1.22095
1.17856
1.11167
1.0408
1.00452
0.968109
0.90972
0.8681
0.856115
0.833828
0.805631
0.798529
0.80143
0.804486
0.809484
0.8252
0.863691
0.918437
1.00944
1.10537
1.38765
2.0098
2.51133
2.70699
2.80832
2.79286
2.75583
2.7029
2.64187
2.58094
2.5037
2.42373
2.34832
2.30152
2.27631
2.24399
2.19946
2.15675
2.10825
2.06312
2.02142
1.98059
1.94255
1.90893
1.86438
1.82262
1.79952
1.77931
1.75787
1.73434
1.71269
1.69201
1.66534
1.62013
1.54791
1.49838
1.47673
1.45942
1.44552
1.43757
1.42965
1.41762
1.40551
1.3927
1.37462
1.33901
1.27985
1.23785
1.22214
1.21197
1.20243
1.19501
1.19421
1.20075
1.20692
1.21668
1.26435
5.76401
5.31053
4.89376
4.47434
4.07803
3.74858
3.43778
3.11387
2.85713
2.63777
2.43535
2.23115
2.07253
1.9474
1.82145
1.68588
1.58075
1.5211
1.4378
1.33662
1.28212
1.22078
1.14254
1.10431
1.07351
1.02382
0.962602
0.938368
0.913971
0.870324
0.831423
0.828614
0.823019
0.808293
0.803595
0.809589
0.831041
0.935321
1.32673
1.90407
2.41183
2.57374
2.66143
2.67506
2.66115
2.60442
2.54856
2.49648
2.46405
2.44113
2.40031
2.36188
2.32467
2.28221
2.23214
2.16747
2.10641
2.05397
2.01156
1.98578
1.95332
1.92641
1.89696
1.84981
1.7879
1.75097
1.7301
1.71381
1.7031
1.69127
1.66947
1.64695
1.62008
1.57229
1.49619
1.44777
1.42417
1.40717
1.3947
1.38688
1.38822
1.38384
1.36785
1.35267
1.33531
1.29482
1.22782
1.1944
1.18243
1.17199
1.16286
1.15851
1.15234
1.13991
1.13275
1.11348
5.81205
5.39947
5.00424
4.60371
4.23485
3.91885
3.60767
3.29239
3.04756
2.82641
2.61414
2.39612
2.24784
2.10544
1.97209
1.83092
1.71851
1.64277
1.5579
1.45243
1.38891
1.3359
1.25266
1.19748
1.16234
1.11349
1.05038
1.01828
0.989616
0.946818
0.889181
0.864809
0.848011
0.827094
0.814505
0.840666
1.00145
1.45959
1.87078
2.21828
2.33754
2.35585
2.35857
2.34315
2.31591
2.30749
2.31379
2.32127
2.33448
2.34354
2.34972
2.34346
2.30899
2.25361
2.18879
2.11016
2.04965
2.01977
1.99993
1.97423
1.9428
1.90998
1.87496
1.82828
1.76749
1.71442
1.67731
1.65487
1.63809
1.63058
1.62935
1.61117
1.59139
1.56403
1.50803
1.42913
1.39107
1.37515
1.36213
1.35325
1.36226
1.36779
1.35123
1.33378
1.3164
1.28592
1.23074
1.1766
1.15728
1.14758
1.14063
1.13774
1.12708
1.11379
1.10423
1.08174
5.87433
5.48606
5.1112
4.73279
4.38301
4.07052
3.76662
3.47448
3.22821
3.00114
2.77131
2.56364
2.41837
2.2713
2.12232
1.95938
1.86298
1.77194
1.67827
1.56362
1.49153
1.44056
1.36131
1.29841
1.26298
1.21444
1.14291
1.10399
1.07098
1.03445
0.978625
0.93377
0.913939
0.905685
0.954515
1.16281
1.68142
2.10601
2.23517
2.2797
2.25827
2.17958
2.11566
2.07357
2.0347
2.02069
2.03174
2.0542
2.08159
2.11958
2.17274
2.21177
2.20069
2.14838
2.0755
2.03588
2.01066
1.99766
1.98448
1.95112
1.92632
1.8967
1.86055
1.81048
1.75118
1.69175
1.63861
1.60718
1.58925
1.5759
1.57451
1.57939
1.55972
1.53384
1.49745
1.43003
1.36645
1.34684
1.33452
1.32518
1.3262
1.32016
1.30263
1.2865
1.27163
1.25361
1.2255
1.18089
1.14323
1.13082
1.12228
1.1129
1.10153
1.08876
1.07499
1.04778
5.93169
5.56507
5.19878
4.84681
4.52692
4.2161
3.90287
3.62809
3.39237
3.16319
2.92368
2.72078
2.56318
2.41004
2.25625
2.10549
2.00016
1.89397
1.78965
1.6725
1.60664
1.5491
1.46651
1.38939
1.35069
1.30394
1.23696
1.18894
1.15232
1.11079
1.055
1.00084
0.996966
1.07231
1.42102
1.95655
2.41482
2.41911
2.369
2.30997
2.21469
2.10672
2.04976
2.01701
1.98476
1.92547
1.87979
1.8536
1.83826
1.84285
1.86031
1.88904
1.91401
1.90676
1.8822
1.88111
1.88041
1.87308
1.87658
1.89728
1.89208
1.87121
1.83942
1.79192
1.72714
1.65975
1.61265
1.58161
1.55703
1.53871
1.52235
1.51018
1.49701
1.4818
1.46391
1.42888
1.37093
1.32685
1.30623
1.29598
1.29026
1.28415
1.26894
1.25373
1.24046
1.22665
1.20727
1.17343
1.13432
1.11314
1.10051
1.09179
1.0808
1.06735
1.05162
1.02454
6.02045
5.66414
5.30471
4.97206
4.66066
4.35006
4.04343
3.78764
3.54537
3.30814
3.06365
2.87872
2.71339
2.55059
2.37709
2.23768
2.13201
2.017
1.90498
1.78857
1.71798
1.64883
1.56453
1.48731
1.44359
1.39276
1.32077
1.2634
1.22393
1.18429
1.13361
1.13604
1.30043
1.77363
2.38848
2.69442
2.67105
2.58081
2.4596
2.32952
2.21555
2.13595
2.09676
2.06662
2.02712
1.96369
1.87894
1.82251
1.79433
1.76887
1.74155
1.72178
1.69856
1.68048
1.66986
1.65467
1.66126
1.68085
1.7091
1.74208
1.76216
1.77031
1.75472
1.72015
1.6704
1.61958
1.58934
1.57172
1.55102
1.51731
1.48279
1.46227
1.44808
1.4359
1.42313
1.40524
1.37523
1.32938
1.28353
1.26528
1.25679
1.24613
1.23592
1.22488
1.21287
1.2014
1.18353
1.15688
1.12166
1.09174
1.07551
1.06161
1.05004
1.04045
1.02941
1.0076
6.06357
5.71953
5.37438
5.06218
4.76473
4.45912
4.16296
3.91275
3.67238
3.43686
3.20473
3.02554
2.84334
2.67496
2.50213
2.37937
2.25734
2.13451
2.00529
1.90438
1.8374
1.75847
1.66806
1.58013
1.5316
1.48128
1.40738
1.3436
1.30222
1.26261
1.32147
1.6126
2.22845
2.79707
3.02152
2.96913
2.79086
2.61337
2.48557
2.38002
2.29303
2.24501
2.20852
2.16629
2.10861
2.03041
1.93574
1.85506
1.79695
1.74219
1.70274
1.6759
1.64873
1.6251
1.5938
1.54167
1.49808
1.48205
1.48757
1.50873
1.5214
1.53544
1.55937
1.56845
1.5456
1.51396
1.50419
1.50464
1.50032
1.47204
1.44957
1.43218
1.41922
1.41044
1.39904
1.38543
1.36064
1.32059
1.27873
1.24572
1.2299
1.2182
1.20611
1.19359
1.18111
1.16928
1.15989
1.14006
1.10487
1.06835
1.04407
1.03029
1.02216
1.01527
1.01029
0.997584
6.13359
5.78008
5.46365
5.16302
4.86553
4.56103
4.29211
4.0451
3.80824
3.55488
3.34713
3.16739
2.98724
2.80534
2.63345
2.51323
2.37672
2.25194
2.1158
2.02411
1.94493
1.85717
1.76134
1.68285
1.62816
1.57001
1.48274
1.41759
1.40106
1.5016
2.00711
2.73546
3.22161
3.26976
3.19107
3.04021
2.85404
2.68541
2.55744
2.47429
2.41684
2.3644
2.30693
2.23878
2.16114
2.07975
1.9954
1.91341
1.84219
1.78024
1.72708
1.67975
1.63719
1.6023
1.57547
1.5439
1.49144
1.4403
1.41339
1.39687
1.38248
1.37618
1.37402
1.36787
1.36238
1.34295
1.32802
1.33776
1.3548
1.37757
1.38767
1.37297
1.34606
1.33466
1.33034
1.32006
1.30594
1.2906
1.26485
1.23777
1.21969
1.20286
1.17956
1.16759
1.15745
1.14025
1.12308
1.10762
1.08655
1.04609
1.01209
1.00201
0.997036
0.99427
0.999849
0.989418
6.21679
5.88653
5.55523
5.2598
4.96946
4.68383
4.41927
4.16613
3.9211
3.68528
3.49448
3.3036
3.11549
2.91386
2.76928
2.645
2.50771
2.36589
2.21916
2.14223
2.05432
1.96377
1.85872
1.77904
1.7191
1.65129
1.57409
1.57617
1.78356
2.45029
3.22436
3.58904
3.56227
3.44625
3.26887
3.09614
2.9336
2.80251
2.70165
2.60067
2.5113
2.43294
2.35751
2.28674
2.22259
2.16072
2.09527
2.0222
1.93847
1.85455
1.78392
1.724
1.67102
1.623
1.58573
1.55248
1.50415
1.44042
1.39313
1.3655
1.34516
1.32501
1.30458
1.28491
1.26285
1.23842
1.20987
1.19196
1.18728
1.19361
1.2061
1.20958
1.21393
1.22333
1.23644
1.23849
1.22441
1.20275
1.19817
1.19319
1.16855
1.15138
1.14904
1.15297
1.14883
1.12876
1.10159
1.07525
1.04899
1.01679
0.993085
0.984651
0.97603
0.969719
0.966923
0.95392
6.13867
6.01344
5.68094
5.36615
5.07204
4.78943
4.54026
4.30268
4.0493
3.80505
3.61596
3.43126
3.24457
3.03997
2.90077
2.7616
2.62207
2.47572
2.34369
2.25765
2.15713
2.05812
1.94909
1.87567
1.8163
1.73852
1.81179
2.2546
3.05097
3.7998
3.94505
3.8462
3.62909
3.45426
3.30259
3.14643
3.02361
2.93047
2.8396
2.74348
2.64138
2.53086
2.41647
2.31729
2.24273
2.18594
2.13615
2.08332
2.01671
1.93687
1.85697
1.78371
1.71711
1.65344
1.59765
1.55806
1.52254
1.48198
1.43373
1.385
1.34596
1.31204
1.28253
1.25754
1.23195
1.20842
1.17834
1.13355
1.10969
1.0995
1.09306
1.08373
1.07822
1.07921
1.09078
1.10472
1.10117
1.07808
1.05896
1.05929
1.06355
1.06858
1.08001
1.09965
1.1111
1.10578
1.08534
1.0528
1.01977
0.997976
0.98404
0.974621
0.962589
0.954345
0.951948
0.936281
5.23281
5.97318
5.80507
5.47315
5.16885
4.90782
4.65797
4.41241
4.1571
3.93752
3.75094
3.57169
3.35456
3.15504
3.02927
2.89161
2.75212
2.57933
2.46346
2.37029
2.26048
2.15938
2.04042
1.96442
1.94411
2.13242
2.85263
3.89996
4.32014
4.29168
4.12509
3.87957
3.65407
3.49656
3.37407
3.25487
3.15278
3.06161
2.96207
2.84912
2.72447
2.59612
2.47911
2.38129
2.30092
2.23316
2.17306
2.11614
2.05855
1.99736
1.93107
1.86136
1.79607
1.73097
1.65749
1.59461
1.55003
1.50632
1.45676
1.40969
1.3727
1.33839
1.30445
1.26978
1.2365
1.20825
1.17076
1.11913
1.07205
1.05001
1.03835
1.03223
1.03295
1.02994
1.01798
1.00516
0.990391
0.970269
0.939705
0.92462
0.926498
0.932601
0.947245
0.977818
1.01509
1.03333
1.03129
1.01376
0.983648
0.963717
0.949314
0.943492
0.943176
0.949349
0.948106
0.925084
2.86749
5.36047
5.81333
5.61616
5.29153
5.00592
4.76558
4.5329
4.29179
4.05359
3.85352
3.67964
3.48505
3.29727
3.14001
2.99327
2.84904
2.69194
2.59169
2.4829
2.36773
2.2477
2.14222
2.19736
2.57875
3.54126
4.54311
4.90006
4.77032
4.47729
4.1885
3.95054
3.75201
3.59518
3.46908
3.35708
3.25249
3.15176
3.04717
2.93355
2.80738
2.67203
2.54654
2.44398
2.35968
2.28709
2.22176
2.15867
2.09389
2.0271
1.9597
1.88846
1.81907
1.76548
1.716
1.66144
1.60646
1.54836
1.47765
1.40969
1.3658
1.33959
1.32033
1.29868
1.27398
1.24934
1.21502
1.15026
1.07572
1.03741
1.01808
1.00587
0.997405
0.990431
0.981239
0.973525
0.964494
0.945675
0.902046
0.851835
0.839763
0.839885
0.843018
0.853127
0.874743
0.902176
0.91605
0.915637
0.905567
0.894932
0.893459
0.894796
0.897821
0.908071
0.920868
0.913533
1.26115
3.27384
5.36369
5.65582
5.44842
5.13726
4.87437
4.63642
4.40178
4.1785
3.98462
3.79409
3.58795
3.41955
3.26549
3.11453
2.94741
2.7906
2.70105
2.57994
2.47881
2.378
2.50351
3.29857
4.36635
5.20278
5.23767
5.07441
4.78967
4.5074
4.26615
4.05675
3.84717
3.68295
3.55646
3.44338
3.33395
3.22354
3.11022
2.99285
2.87048
2.74583
2.6277
2.52335
2.43103
2.34452
2.26151
2.18565
2.11967
2.06066
2.00301
1.93691
1.85664
1.78619
1.7341
1.69065
1.65215
1.60731
1.54381
1.47305
1.40596
1.35161
1.32412
1.30786
1.29346
1.27696
1.25257
1.20643
1.13261
1.05999
1.024
1.00493
0.989867
0.975309
0.962904
0.954507
0.947304
0.936026
0.903513
0.851223
0.813891
0.805215
0.800987
0.798195
0.79817
0.801298
0.804705
0.805026
0.802447
0.800963
0.802766
0.807935
0.821226
0.845924
0.874408
0.873501
1.00779
1.40752
3.56819
5.30132
5.50127
5.29754
4.99864
4.7356
4.52043
4.30227
4.09421
3.88938
3.70448
3.54598
3.38446
3.23414
3.0325
2.90035
2.80038
2.68727
2.67685
3.07365
4.16296
5.4072
5.8041
5.74803
5.50658
5.15419
4.84519
4.5968
4.38605
4.1882
3.98773
3.81464
3.67181
3.53851
3.40532
3.27312
3.14665
3.02948
2.91818
2.80797
2.6998
2.59616
2.49826
2.40476
2.31266
2.22325
2.14354
2.07873
2.02685
1.97427
1.90796
1.83562
1.76906
1.70755
1.65413
1.60914
1.56187
1.50542
1.45141
1.40571
1.36414
1.32727
1.29428
1.26423
1.24107
1.2201
1.17835
1.105
1.04949
1.02364
1.00438
0.986003
0.968415
0.952084
0.935343
0.918259
0.900685
0.860496
0.811314
0.794757
0.7887
0.784666
0.779285
0.771499
0.762864
0.752024
0.736275
0.717391
0.711853
0.714775
0.726619
0.748503
0.785942
0.806584
1.00005
1.0165
1.55505
3.75101
5.20348
5.35349
5.16897
4.87401
4.62563
4.40212
4.21378
4.02046
3.82353
3.64513
3.48985
3.34937
3.15697
3.01417
2.90408
3.05921
3.93154
5.3521
6.37675
6.44545
6.1808
5.82407
5.48864
5.19551
4.94228
4.72246
4.51633
4.30246
4.09637
3.91782
3.76529
3.6261
3.48798
3.34675
3.2032
3.06414
2.94252
2.83749
2.73991
2.64623
2.55563
2.46468
2.37048
2.27623
2.18829
2.10918
2.04088
1.98415
1.92773
1.86715
1.80765
1.75033
1.69399
1.63842
1.57745
1.50866
1.45527
1.41943
1.38664
1.3548
1.32439
1.29433
1.26243
1.22514
1.18126
1.13033
1.07958
1.04997
1.03066
1.0122
0.992542
0.97149
0.948731
0.921648
0.888457
0.85136
0.811403
0.795355
0.789375
0.783053
0.773729
0.763699
0.754915
0.741915
0.720699
0.690335
0.670415
0.66722
0.667921
0.673041
0.683727
0.712593
1
1.00015
1.02835
1.68433
3.817
5.10926
5.22839
5.0351
4.77517
4.53101
4.3175
4.11997
3.94217
3.77022
3.62177
3.4283
3.26748
3.21078
3.63134
4.93817
6.69297
7.17615
7.07785
6.75431
6.27425
5.82343
5.48531
5.25237
5.03918
4.84193
4.64248
4.42947
4.21857
4.02422
3.84586
3.6789
3.52294
3.3788
3.24676
3.12388
3.00532
2.89051
2.78198
2.68068
2.58524
2.49333
2.40058
2.30812
2.2254
2.15258
2.08364
2.01909
1.95284
1.88275
1.82184
1.77113
1.72375
1.67392
1.61219
1.53688
1.47823
1.4409
1.40409
1.36707
1.33677
1.3129
1.28883
1.258
1.20619
1.13342
1.09507
1.07721
1.05968
1.0403
1.0195
0.997627
0.973527
0.942326
0.899334
0.86193
0.843423
0.829656
0.817992
0.805118
0.790168
0.773735
0.757542
0.740177
0.717203
0.689334
0.660132
0.649617
0.645033
0.641641
0.639102
0.643371
1
1
1.00032
1.04198
1.76201
3.86105
5.02876
5.08618
4.92011
4.66973
4.42361
4.25106
4.05672
3.8741
3.72772
3.54768
3.62658
4.49043
6.44756
7.63671
7.87685
7.50435
7.10005
6.72962
6.34228
5.95348
5.64067
5.38818
5.16249
4.94738
4.72962
4.51093
4.3016
4.1062
3.92083
3.74229
3.57368
3.42013
3.28245
3.16016
3.04654
2.93381
2.82622
2.72826
2.63351
2.53441
2.43083
2.32713
2.23614
2.16137
2.09241
2.03081
1.97317
1.92029
1.87069
1.81424
1.74433
1.67509
1.61198
1.54938
1.48776
1.4443
1.41409
1.37958
1.34648
1.31897
1.29264
1.26245
1.22044
1.16008
1.10598
1.0816
1.06486
1.04624
1.02542
1.0036
0.979337
0.949746
0.915662
0.879988
0.843517
0.818939
0.804809
0.792391
0.778586
0.763541
0.749407
0.736487
0.721649
0.695681
0.659937
0.644979
0.639564
0.634604
0.631511
0.626808
1
1
1
1.00055
1.05338
1.80648
3.91005
4.83234
4.96259
4.83761
4.57144
4.36268
4.14563
3.99201
3.85952
4.17379
5.83201
7.95374
8.96553
8.68514
8.24302
7.64641
7.11744
6.72913
6.41009
6.08524
5.78739
5.52685
5.28491
5.04682
4.8097
4.58134
4.36764
4.16691
3.97506
3.79153
3.62164
3.47094
3.33703
3.21362
3.09429
2.97475
2.85989
2.75295
2.651
2.55188
2.45808
2.38571
2.3217
2.24082
2.15467
2.06912
1.99209
1.9238
1.86378
1.81734
1.77944
1.7294
1.66675
1.59532
1.50335
1.43947
1.42195
1.41107
1.39052
1.36469
1.33797
1.30752
1.26513
1.19583
1.13095
1.10682
1.09094
1.0724
1.05198
1.03182
1.01149
0.988112
0.955966
0.910227
0.857986
0.823956
0.808448
0.795628
0.781527
0.767859
0.756221
0.743945
0.726282
0.701378
0.668378
0.652091
0.645792
0.639713
0.635277
0.622139
1
1
1
1
1.00082
1.05959
1.87444
3.72404
4.73636
4.87505
4.74372
4.50641
4.26879
4.16364
4.93995
7.50016
9.68157
9.59268
9.17106
8.62156
8.19591
7.73789
7.2466
6.83128
6.48328
6.1479
5.84631
5.58497
5.3435
5.10508
4.86827
4.63814
4.42533
4.22728
4.0369
3.85314
3.67938
3.51923
3.37331
3.24252
3.12527
3.01619
2.91153
2.80493
2.69458
2.58862
2.49542
2.40314
2.29913
2.20494
2.11952
2.04777
1.99267
1.94086
1.89071
1.83955
1.77664
1.7068
1.63431
1.55927
1.50233
1.46858
1.44216
1.40857
1.37148
1.34244
1.31461
1.28142
1.23683
1.17126
1.10877
1.08228
1.06575
1.0478
1.02957
1.01272
0.996014
0.975454
0.94137
0.885774
0.855152
0.846789
0.836767
0.822765
0.805898
0.790642
0.776903
0.762097
0.74159
0.698386
0.650762
0.638113
0.632423
0.626277
0.621195
0.610447
1
1
1
1
1
1.00097
1.06798
1.828
3.52716
4.64748
4.73711
4.6272
4.67667
5.91515
9.19457
11.1755
11.1475
10.2194
9.21115
8.49764
8.09335
7.75983
7.37472
6.95741
6.55209
6.18139
5.86084
5.59014
5.34651
5.11217
4.8913
4.67463
4.45634
4.25581
4.06466
3.87925
3.70242
3.54054
3.39531
3.26543
3.14784
3.03751
2.92946
2.82192
2.71478
2.60917
2.50836
2.40586
2.30267
2.21358
2.13888
2.07374
2.01401
1.95833
1.90709
1.8506
1.78376
1.71266
1.64082
1.57443
1.52363
1.48547
1.4504
1.41277
1.37888
1.35105
1.3221
1.28652
1.24016
1.17564
1.1127
1.08407
1.06628
1.04776
1.02992
1.01425
0.999137
0.980057
0.946491
0.892953
0.855847
0.841013
0.830136
0.818178
0.805275
0.792702
0.780523
0.767118
0.745288
0.697731
0.650151
0.639076
0.633709
0.627806
0.622662
0.610836
1
1
1
1
1
1
1.0012
1.06218
1.70473
3.39798
4.30824
5.11312
7.43434
10.4964
11.8997
11.3894
10.6804
10.0096
9.38208
8.72628
8.21338
7.82169
7.44971
7.06694
6.68068
6.3165
5.99417
5.70847
5.43579
5.17032
4.93157
4.75717
4.59945
4.41255
4.21568
4.01536
3.82063
3.64484
3.49353
3.36313
3.24651
3.13501
3.02249
2.90842
2.7921
2.67555
2.56549
2.46395
2.37157
2.28941
2.21272
2.14019
2.07633
2.0207
1.9656
1.90345
1.83352
1.76079
1.69196
1.6311
1.57701
1.5283
1.48648
1.45184
1.42303
1.39545
1.36421
1.32707
1.2803
1.21404
1.14645
1.11356
1.09376
1.07517
1.05877
1.04503
1.03181
1.01355
0.977938
0.916127
0.871534
0.856898
0.845682
0.834043
0.822294
0.810922
0.799894
0.78765
0.764461
0.711195
0.666251
0.65717
0.651949
0.645472
0.639579
0.625416
1
1
1
1
1
1
1
1.00094
1.05293
1.70638
4.0977
8.10151
14.1551
16.567
14.5067
11.9048
10.3617
9.73343
9.22131
8.71588
8.23053
7.79879
7.4334
7.09932
6.76039
6.39899
6.02852
5.68585
5.40242
5.17294
4.96872
4.75459
4.52638
4.31111
4.10405
3.90325
3.71419
3.54642
3.40099
3.2715
3.15289
3.04112
2.93338
2.82689
2.7161
2.60003
2.48579
2.38131
2.29275
2.21919
2.14928
2.07889
2.01432
1.95836
1.90528
1.84678
1.77884
1.70673
1.63893
1.58065
1.52934
1.48072
1.43706
1.40331
1.37807
1.35417
1.32552
1.29034
1.24421
1.17538
1.1082
1.07924
1.06096
1.04286
1.02678
1.01377
1.00179
0.984824
0.949792
0.8878
0.845528
0.831565
0.821237
0.810352
0.798465
0.786133
0.774941
0.763712
0.741106
0.687419
0.645963
0.637332
0.631697
0.624924
0.619306
0.605413
)
;

boundaryField
{
    inlet
    {
        type            fixedValue;
        value           uniform 1;
    }
    outlet
    {
        type            zeroGradient;
    }
    bottom
    {
        type            symmetryPlane;
    }
    top
    {
        type            symmetryPlane;
    }
    obstacle
    {
        type            zeroGradient;
    }
    defaultFaces
    {
        type            empty;
    }
}


// ************************************************************************* //
