/*--------------------------------*- C++ -*----------------------------------*\
  =========                 |
  \\      /  F ield         | OpenFOAM: The Open Source CFD Toolbox
   \\    /   O peration     | Website:  https://openfoam.org
    \\  /    A nd           | Version:  7
     \\/     M anipulation  |
\*---------------------------------------------------------------------------*/
FoamFile
{
    version     2.0;
    format      ascii;
    class       volVectorField;
    location    "1.4";
    object      U;
}
// * * * * * * * * * * * * * * * * * * * * * * * * * * * * * * * * * * * * * //

dimensions      [0 1 -1 0 0 0 0];

internalField   nonuniform List<vector> 
4032
(
(3 4.41995e-17 0)
(3 -3.12085e-16 0)
(3 -1.77099e-16 0)
(3 1.64679e-16 0)
(3 3.03974e-16 0)
(3 4.15584e-16 0)
(3 6.0026e-16 0)
(3 7.98752e-16 0)
(3 8.00549e-16 0)
(3 7.75635e-16 0)
(3 1.11602e-15 0)
(3 8.44364e-16 0)
(2.3813 0.00980619 0)
(0.826759 0.0133112 0)
(0.663403 0.0233971 0)
(0.607547 0.0303598 0)
(0.540529 0.0325173 0)
(0.474664 0.0309641 0)
(0.412293 0.0286529 0)
(0.352301 0.02854 0)
(0.289109 0.0320343 0)
(0.216517 0.0371964 0)
(0.13578 0.041273 0)
(0.0509391 0.0472312 0)
(3 1.66197e-16 0)
(3 -3.91007e-16 0)
(3 -3.49874e-16 0)
(3 -2.78327e-16 0)
(3 -1.4559e-16 0)
(3 1.15794e-16 0)
(3 6.43683e-16 0)
(3 8.49726e-16 0)
(3 6.48073e-16 0)
(3 2.75386e-16 0)
(3 4.56215e-16 0)
(3 4.72745e-16 0)
(2.42507 0.0501865 0)
(0.826491 0.0679386 0)
(0.6457 0.0764391 0)
(0.586484 0.0874797 0)
(0.521904 0.0925397 0)
(0.460156 0.0901763 0)
(0.40095 0.0867018 0)
(0.342033 0.088187 0)
(0.279775 0.0984787 0)
(0.20942 0.114505 0)
(0.130253 0.126935 0)
(0.0492329 0.144369 0)
(3 -2.22489e-16 0)
(3 -2.97729e-16 0)
(3 -5.97313e-16 0)
(3 -6.01291e-16 0)
(3 -4.60604e-16 0)
(3 -1.31449e-16 0)
(3 2.20667e-16 0)
(3 1.53081e-16 0)
(3 7.17817e-17 0)
(3 -1.39298e-16 0)
(3 -7.18266e-16 0)
(3 -8.43177e-16 0)
(2.5397 0.0862013 0)
(0.855073 0.127453 0)
(0.649569 0.135344 0)
(0.588839 0.149798 0)
(0.527217 0.153828 0)
(0.469671 0.148643 0)
(0.412081 0.144167 0)
(0.351389 0.148226 0)
(0.285947 0.164694 0)
(0.213141 0.190491 0)
(0.130526 0.209924 0)
(0.0495616 0.236366 0)
(3 -1.39193e-16 0)
(3 -7.47363e-17 0)
(3 5.62676e-18 0)
(3 2.2018e-16 0)
(3 5.9684e-16 0)
(3 6.2885e-16 0)
(3 2.9668e-16 0)
(3 -1.83308e-16 0)
(3 -3.75159e-16 0)
(3 3.14775e-17 0)
(3 -1.41875e-16 0)
(3 -6.77362e-16 0)
(2.69584 0.108293 0)
(0.905023 0.192526 0)
(0.66873 0.195044 0)
(0.615381 0.207298 0)
(0.560627 0.207283 0)
(0.505709 0.200602 0)
(0.445251 0.199806 0)
(0.377762 0.212057 0)
(0.303299 0.23736 0)
(0.223381 0.273027 0)
(0.13553 0.298777 0)
(0.048577 0.329662 0)
(3 9.95955e-17 0)
(3 5.66778e-16 0)
(3 5.55671e-16 0)
(3 2.00547e-16 0)
(3 -5.90475e-17 0)
(3 -6.91429e-17 0)
(3 -3.36515e-16 0)
(3 -9.17074e-17 0)
(3 1.77636e-16 0)
(3 2.17552e-16 0)
(3 4.44354e-16 0)
(3 -9.99296e-17 0)
(2.88452 0.105052 0)
(0.993126 0.256643 0)
(0.709496 0.242595 0)
(0.660019 0.250539 0)
(0.605239 0.253274 0)
(0.548118 0.2533 0)
(0.483035 0.2615 0)
(0.410615 0.284254 0)
(0.330879 0.317119 0)
(0.250226 0.360177 0)
(0.155259 0.393195 0)
(0.0594896 0.430518 0)
(3 2.69572e-16 0)
(3 1.19627e-16 0)
(3 -1.33258e-16 0)
(3 -5.09739e-16 0)
(3 -1.28274e-15 0)
(3 -1.43237e-15 0)
(3 -7.92263e-16 0)
(3 2.09916e-16 0)
(3 1.15787e-15 0)
(3 1.01671e-15 0)
(3 8.90599e-16 0)
(3 4.74455e-16 0)
(3.01961 0.0133869 0)
(1.12506 0.297155 0)
(0.751114 0.281056 0)
(0.692979 0.301823 0)
(0.631629 0.310239 0)
(0.56906 0.315628 0)
(0.50304 0.329466 0)
(0.435024 0.359528 0)
(0.357764 0.400843 0)
(0.273488 0.455172 0)
(0.173829 0.506269 0)
(0.0587795 0.552529 0)
(3 -2.1221e-16 0)
(3 -5.89411e-16 0)
(3 -8.6616e-16 0)
(3 -8.28202e-16 0)
(3 -9.66257e-16 0)
(3 -9.82038e-16 0)
(3 -7.29352e-16 0)
(3 -9.05297e-17 0)
(3 5.35358e-16 0)
(3 8.10243e-16 0)
(3 5.79681e-16 0)
(3 4.26197e-16 0)
(3.00123 7.0758e-05 0)
(1.31527 0.339222 0)
(0.757098 0.340171 0)
(0.68241 0.355259 0)
(0.623624 0.365231 0)
(0.567743 0.373245 0)
(0.511663 0.39124 0)
(0.454352 0.429335 0)
(0.393199 0.483736 0)
(0.325241 0.551616 0)
(0.235274 0.622427 0)
(0.0995263 0.695247 0)
(3 -1.40386e-16 0)
(3 2.63549e-17 0)
(3 6.65316e-17 0)
(3 1.48256e-17 0)
(3 9.10188e-18 0)
(3 9.91028e-17 0)
(3 -3.28351e-16 0)
(3 -1.64735e-16 0)
(3 2.77991e-16 0)
(3 6.8273e-16 0)
(3 8.00152e-16 0)
(3 8.23978e-16 0)
(3 -2.48749e-07 0)
(1.63674 0.399404 0)
(0.784502 0.415761 0)
(0.685794 0.415346 0)
(0.635342 0.423782 0)
(0.586128 0.4307 0)
(0.538094 0.449704 0)
(0.493325 0.49156 0)
(0.445601 0.553714 0)
(0.38735 0.647108 0)
(0.274856 0.781294 0)
(0.150634 0.955287 0)
(3 4.23061e-17 0)
(3 2.22834e-16 0)
(3 1.55777e-16 0)
(3 1.06706e-16 0)
(3 2.08008e-16 0)
(3 5.1068e-16 0)
(3 4.44805e-16 0)
(3 3.14771e-16 0)
(3 8.97803e-16 0)
(3 1.61377e-15 0)
(3 2.03452e-15 0)
(3 8.57733e-16 0)
(3 -5.90916e-08 0)
(2.1644 0.423301 0)
(0.87431 0.512084 0)
(0.749297 0.460222 0)
(0.704359 0.465174 0)
(0.653805 0.480811 0)
(0.604991 0.501424 0)
(0.563235 0.545321 0)
(0.521787 0.619575 0)
(0.489208 0.750887 0)
(0.463393 0.938583 0)
(0.581438 1.23061 0)
(3 -1.63311e-16 0)
(3 -1.50574e-16 0)
(3 -3.93772e-16 0)
(3 -3.9512e-16 0)
(3 1.78189e-16 0)
(3 2.09947e-16 0)
(3 1.20035e-16 0)
(3 -2.78404e-16 0)
(3 1.5534e-16 0)
(3 3.86855e-16 0)
(3 3.32853e-16 0)
(3 -7.11511e-16 0)
(3 -6.43216e-09 0)
(2.86118 0.227701 0)
(1.07361 0.547837 0)
(0.852428 0.488888 0)
(0.804881 0.505935 0)
(0.755564 0.530698 0)
(0.704357 0.554403 0)
(0.658647 0.59811 0)
(0.628278 0.677783 0)
(0.622937 0.814048 0)
(0.686688 0.972839 0)
(0.977028 1.15314 0)
(3 2.83278e-17 0)
(3 6.1784e-17 0)
(3 -2.95094e-17 0)
(3 -1.50175e-16 0)
(3 -2.22769e-16 0)
(3 -3.19691e-16 0)
(3 -1.99827e-16 0)
(3 -2.95966e-18 0)
(3 -3.69414e-16 0)
(3 -4.27327e-16 0)
(3 -5.83992e-16 0)
(3 -7.85425e-16 0)
(3 -2.26962e-10 0)
(3.05325 0.0165093 0)
(1.30725 0.523208 0)
(0.890837 0.564045 0)
(0.823371 0.574884 0)
(0.788942 0.60255 0)
(0.76396 0.629939 0)
(0.740278 0.665423 0)
(0.738391 0.732723 0)
(0.762373 0.843552 0)
(0.881617 0.970025 0)
(1.19723 1.08244 0)
(3 2.67663e-16 0)
(3 -5.24348e-17 0)
(3 -4.49881e-17 0)
(3 -1.9378e-16 0)
(3 -7.60228e-16 0)
(3 -7.26591e-16 0)
(3 -7.61242e-16 0)
(3 -5.74159e-16 0)
(3 -1.32542e-15 0)
(3 -1.51256e-15 0)
(3 -2.34855e-15 0)
(3 -1.6205e-15 0)
(3 -1.33197e-12 0)
(3.00185 3.40208e-05 0)
(1.70017 0.536157 0)
(0.90999 0.625358 0)
(0.84757 0.618231 0)
(0.836075 0.639833 0)
(0.833667 0.668281 0)
(0.830221 0.700652 0)
(0.845247 0.759657 0)
(0.892631 0.845456 0)
(1.02841 0.943622 0)
(1.28658 1.01592 0)
(3 8.29899e-18 0)
(3 5.54942e-17 0)
(3 4.95429e-17 0)
(3 1.37322e-16 0)
(3 1.7523e-16 0)
(3 4.49993e-18 0)
(3 -6.73502e-16 0)
(3 -1.23143e-15 0)
(3 -2.25429e-15 0)
(3 -3.06827e-15 0)
(3 -3.62337e-15 0)
(3 -2.66902e-15 0)
(3 -1.1422e-14 0)
(3 -2.04988e-07 0)
(2.49355 0.429095 0)
(1.03687 0.677711 0)
(0.913728 0.635042 0)
(0.90805 0.656992 0)
(0.910615 0.690951 0)
(0.917897 0.731442 0)
(0.93841 0.78588 0)
(1.0024 0.855227 0)
(1.13795 0.928332 0)
(1.34302 0.974807 0)
(3 -2.65973e-16 0)
(3 1.12886e-16 0)
(3 5.0697e-17 0)
(3 1.28948e-17 0)
(3 1.92521e-17 0)
(3 1.41823e-16 0)
(3 2.61918e-16 0)
(3 2.17458e-16 0)
(3 2.12957e-16 0)
(3 -4.7275e-16 0)
(3 -4.76674e-16 0)
(3 -8.53248e-16 0)
(3 -5.63833e-16 0)
(3 -1.02049e-07 0)
(3.08043 0.0636034 0)
(1.3727 0.681499 0)
(1.01156 0.69455 0)
(0.975119 0.69598 0)
(0.96279 0.723761 0)
(0.976637 0.763295 0)
(1.01117 0.805994 0)
(1.0818 0.853729 0)
(1.20268 0.900026 0)
(1.36512 0.924591 0)
(3 -5.32748e-17 0)
(3 -3.72981e-18 0)
(3 1.12613e-16 0)
(3 -2.65046e-16 0)
(3 -1.09046e-16 0)
(3 -1.25674e-16 0)
(3 1.02546e-16 0)
(3 4.62911e-16 0)
(3 8.95362e-16 0)
(3 5.77755e-16 0)
(3 1.24147e-15 0)
(3 1.05901e-15 0)
(3 9.34594e-16 0)
(3 -1.74241e-08 0)
(3.00902 0.000540247 0)
(1.89715 0.660376 0)
(1.06101 0.768809 0)
(1.02511 0.748009 0)
(1.01401 0.752525 0)
(1.03069 0.776385 0)
(1.07105 0.812064 0)
(1.14238 0.852313 0)
(1.24701 0.886382 0)
(1.38299 0.901234 0)
(3 5.33752e-17 0)
(3 -2.22503e-16 0)
(3 -3.19986e-16 0)
(3 -3.75178e-16 0)
(3 7.43888e-18 0)
(3 -8.34192e-17 0)
(3 -1.34341e-16 0)
(3 -1.43664e-16 0)
(3 2.86109e-16 0)
(3 4.83612e-16 0)
(3 2.98487e-16 0)
(3 6.00733e-16 0)
(3 1.70671e-15 0)
(3 -1.63984e-09 0)
(3.00004 1.06299e-06 0)
(2.91404 0.263159 0)
(1.29587 0.761458 0)
(1.10134 0.767179 0)
(1.09524 0.767637 0)
(1.10057 0.795297 0)
(1.13163 0.820286 0)
(1.19373 0.846303 0)
(1.28087 0.867088 0)
(1.39613 0.874583 0)
(3 5.21665e-17 0)
(3 2.32833e-17 0)
(3 -9.98546e-17 0)
(3 -5.12161e-17 0)
(3 1.61711e-16 0)
(3 4.654e-16 0)
(3 5.99282e-16 0)
(3 1.49329e-16 0)
(3 -2.17206e-16 0)
(3 1.67205e-16 0)
(3 4.94801e-16 0)
(3 5.11881e-16 0)
(3 8.20326e-16 0)
(3 2.24444e-12 0)
(3 -8.30862e-07 0)
(3.04221 0.00906997 0)
(1.67456 0.727252 0)
(1.12803 0.82325 0)
(1.1282 0.825047 0)
(1.15139 0.835905 0)
(1.18502 0.849211 0)
(1.2408 0.862352 0)
(1.31502 0.872629 0)
(1.41141 0.873714 0)
(3 -4.10213e-17 0)
(3 2.13537e-16 0)
(3 2.71019e-16 0)
(3 2.58812e-16 0)
(3 2.44401e-16 0)
(3 8.56514e-16 0)
(3 8.90955e-16 0)
(3 5.7189e-16 0)
(3 -1.22134e-16 0)
(3 1.24475e-16 0)
(3 4.6814e-16 0)
(3 4.29726e-16 0)
(3 6.72022e-16 0)
(3 -1.71308e-14 0)
(3 -1.18072e-07 0)
(3.00067 0.000107316 0)
(2.67267 0.433157 0)
(1.29206 0.842744 0)
(1.17797 0.824349 0)
(1.21362 0.833288 0)
(1.24452 0.85023 0)
(1.2948 0.861665 0)
(1.359 0.867729 0)
(1.43933 0.86518 0)
(3 2.01785e-17 0)
(3 -1.1994e-16 0)
(3 1.6653e-19 0)
(3 3.07675e-16 0)
(3 -1.22303e-17 0)
(3 -3.11893e-16 0)
(3 -3.72336e-16 0)
(3 -3.83626e-16 0)
(3 -4.97201e-16 0)
(3 -4.9672e-16 0)
(3 -4.93876e-16 0)
(3 -4.81783e-16 0)
(3 -3.39552e-16 0)
(3 8.18097e-16 0)
(3 -3.75209e-09 0)
(3 -2.53361e-07 0)
(3.05781 0.0310462 0)
(1.70212 0.784173 0)
(1.22178 0.872774 0)
(1.24212 0.873938 0)
(1.2803 0.882471 0)
(1.33053 0.890568 0)
(1.39103 0.892096 0)
(1.46168 0.884769 0)
(3 -3.18718e-17 0)
(3 -1.41932e-16 0)
(3 -4.50108e-17 0)
(3 4.18478e-17 0)
(3 -5.46346e-18 0)
(3 -8.23724e-16 0)
(3 -2.07356e-15 0)
(3 -2.00381e-15 0)
(3 -1.94932e-15 0)
(3 -2.4173e-15 0)
(3 -1.99663e-15 0)
(3 -1.21649e-15 0)
(3 -1.16295e-15 0)
(3 -9.31031e-16 0)
(3 -7.10564e-12 0)
(3 -3.57657e-07 0)
(3.00215 0.000716274 0)
(2.70354 0.458117 0)
(1.38624 0.910441 0)
(1.28555 0.872246 0)
(1.33031 0.873389 0)
(1.37435 0.880563 0)
(1.43027 0.881911 0)
(1.49395 0.876316 0)
(3 -1.48193e-17 0)
(3 -1.9102e-17 0)
(3 -1.89358e-16 0)
(3 -9.80837e-17 0)
(3 -1.12988e-16 0)
(3 -2.46748e-16 0)
(3 -1.26821e-15 0)
(3 -1.29424e-15 0)
(3 -1.11895e-15 0)
(3 -9.41735e-16 0)
(3 -1.02276e-15 0)
(3 -9.0137e-16 0)
(3 -9.4503e-16 0)
(3 -4.23136e-16 0)
(3 -2.31424e-15 0)
(3 -6.89413e-08 0)
(3 1.6459e-06 0)
(3.0494 0.0312611 0)
(1.87634 0.801081 0)
(1.34016 0.914449 0)
(1.35839 0.909697 0)
(1.40036 0.908589 0)
(1.4498 0.904585 0)
(1.50604 0.897485 0)
(3 -4.99499e-17 0)
(3 -9.82475e-17 0)
(3 -9.44624e-18 0)
(3 8.99587e-17 0)
(3 -2.51581e-16 0)
(3 -1.97985e-16 0)
(3 -3.28026e-16 0)
(3 -8.75192e-16 0)
(3 -1.2499e-15 0)
(3 -9.69971e-16 0)
(3 -9.03292e-16 0)
(3 -9.10335e-16 0)
(3 -5.68955e-16 0)
(3 -2.93024e-17 0)
(3 9.81876e-17 0)
(3 -3.46616e-09 0)
(3 -2.48247e-09 0)
(3.00156 0.000947143 0)
(2.80029 0.356902 0)
(1.59833 0.933186 0)
(1.39048 0.918269 0)
(1.4424 0.912395 0)
(1.48108 0.904827 0)
(1.52936 0.895556 0)
(3 4.66119e-18 0)
(3 5.13304e-17 0)
(3 5.32089e-17 0)
(3 4.62977e-17 0)
(3 -7.60096e-17 0)
(3 -6.43908e-17 0)
(3 7.39659e-16 0)
(3 9.16767e-16 0)
(3 4.52993e-16 0)
(3 6.28248e-19 0)
(3 -4.39568e-16 0)
(3 -8.32479e-16 0)
(3 -6.15707e-16 0)
(3 -2.18531e-16 0)
(3 2.73787e-16 0)
(3 -2.19453e-11 0)
(3 -6.21641e-10 0)
(3 2.63821e-06 0)
(3.01929 0.022681 0)
(2.26465 0.73906 0)
(1.47867 0.95853 0)
(1.46767 0.949722 0)
(1.50574 0.933248 0)
(1.54571 0.918931 0)
(3 5.47104e-17 0)
(3 1.49817e-16 0)
(3 5.7845e-17 0)
(3 3.13151e-16 0)
(3 8.16653e-16 0)
(3 8.41472e-16 0)
(3 1.14801e-15 0)
(3 1.29571e-15 0)
(3 1.6016e-15 0)
(3 1.33701e-15 0)
(3 9.39809e-16 0)
(3 8.56732e-17 0)
(3 -7.00588e-16 0)
(3 -1.23619e-15 0)
(3 -8.00963e-16 0)
(3 -2.27839e-14 0)
(3 -5.22884e-11 0)
(3 5.56559e-10 0)
(3.00028 0.00064682 0)
(2.97559 0.169392 0)
(1.88553 0.878 0)
(1.51214 0.959297 0)
(1.54881 0.94558 0)
(1.58327 0.926303 0)
(3 1.36673e-16 0)
(3 -2.08438e-17 0)
(3 8.68662e-17 0)
(3 1.57375e-16 0)
(3 3.01968e-16 0)
(3 3.50311e-16 0)
(3 3.54365e-16 0)
(3 2.73629e-16 0)
(3 7.22654e-16 0)
(3 6.62434e-16 0)
(3 3.97279e-16 0)
(3 6.25853e-16 0)
(3 1.10471e-16 0)
(3 -8.6235e-16 0)
(3 -1.11852e-15 0)
(3 -1.2793e-16 0)
(3 -1.74269e-12 0)
(3 -1.52255e-12 0)
(3 1.33875e-06 0)
(3.00428 0.00922339 0)
(2.67074 0.463308 0)
(1.7301 0.955039 0)
(1.56884 0.972407 0)
(1.60933 0.955106 0)
(3 5.25753e-18 0)
(3 1.59865e-17 0)
(3 6.79601e-18 0)
(3 -4.02931e-16 0)
(3 -6.99512e-16 0)
(3 -1.04989e-15 0)
(3 -5.06597e-16 0)
(3 -1.51575e-17 0)
(3 2.49851e-16 0)
(3 5.04573e-16 0)
(3 5.14483e-16 0)
(3 2.35802e-16 0)
(3 -4.94313e-16 0)
(3 -8.0608e-16 0)
(3 -6.24987e-16 0)
(3 1.35661e-15 0)
(3 -9.17714e-15 0)
(3 -3.82135e-13 0)
(3 4.85955e-10 0)
(3 0.000102954 0)
(3.00201 0.0458664 0)
(2.34048 0.709343 0)
(1.65875 0.996166 0)
(1.62232 0.980005 0)
(3 -1.93496e-16 0)
(3 -9.33465e-17 0)
(3 1.11812e-16 0)
(3 8.62433e-17 0)
(3 -8.94193e-17 0)
(3 2.49828e-16 0)
(3 -6.54228e-16 0)
(3 -4.79497e-16 0)
(3 -4.81781e-16 0)
(3 7.59679e-16 0)
(3 1.7842e-15 0)
(3 8.57443e-16 0)
(3 5.63892e-17 0)
(3 -4.27893e-16 0)
(3 8.93578e-17 0)
(3 4.23381e-16 0)
(3 -2.53381e-16 0)
(3 -3.1324e-14 0)
(3 2.64658e-14 0)
(3 1.02562e-07 0)
(3.00009 0.00155729 0)
(2.94511 0.160629 0)
(2.1068 0.834276 0)
(1.68885 0.987926 0)
(3 7.11003e-20 0)
(3 8.17916e-17 0)
(3 -9.16861e-17 0)
(3 1.07402e-16 0)
(3 3.94823e-16 0)
(3 6.06782e-16 0)
(3 3.23428e-16 0)
(3 2.3975e-16 0)
(3 7.37105e-17 0)
(3 1.20592e-16 0)
(3 1.7361e-16 0)
(3 -6.18888e-17 0)
(3 6.02463e-16 0)
(3 1.05823e-15 0)
(3 -4.84888e-16 0)
(3 -1.11902e-15 0)
(3 -1.16866e-15 0)
(3 -1.91181e-15 0)
(3 -1.65563e-15 0)
(3 3.34888e-11 0)
(3 4.82725e-06 0)
(2.99996 0.00908826 0)
(2.79496 0.336701 0)
(1.97557 0.903605 0)
(3 2.23821e-16 0)
(3 1.3298e-16 0)
(3 -1.83536e-16 0)
(3 -1.17772e-16 0)
(3 -8.43171e-17 0)
(3 1.47917e-16 0)
(3 1.08608e-15 0)
(3 1.09818e-15 0)
(3 8.36891e-16 0)
(3 4.17686e-16 0)
(3 -1.17287e-16 0)
(3 8.18635e-17 0)
(3 7.07394e-16 0)
(3 6.99543e-16 0)
(3 -4.20744e-17 0)
(3 -1.99855e-16 0)
(3 -5.81407e-16 0)
(3 -9.64871e-16 0)
(3 -1.22425e-15 0)
(3 2.43154e-15 0)
(3 3.24995e-09 0)
(2.99998 8.11133e-05 0)
(2.99561 0.0284957 0)
(2.61113 0.498878 0)
(3 -3.80509e-18 0)
(3 -2.09576e-17 0)
(3 -7.04613e-17 0)
(3 -3.07065e-16 0)
(3 -3.46208e-16 0)
(3 -3.55325e-16 0)
(3 -2.94011e-16 0)
(3 9.49742e-17 0)
(3 6.74182e-17 0)
(3 4.54768e-17 0)
(3 1.90195e-16 0)
(3 7.37586e-16 0)
(3 7.61011e-16 0)
(3 5.84674e-16 0)
(3 4.892e-16 0)
(3 3.34901e-16 0)
(3 -2.58538e-16 0)
(3 -9.05033e-16 0)
(3 -1.31557e-15 0)
(3 -1.12046e-15 0)
(3 4.97721e-13 0)
(3 9.36119e-08 0)
(2.99989 0.000613753 0)
(2.98058 0.0610106 0)
(3 -1.77955e-16 0)
(3 -4.83515e-17 0)
(3 -6.56622e-18 0)
(3 -2.16222e-16 0)
(3 -3.21968e-16 0)
(3 -8.82846e-16 0)
(3 -1.10554e-15 0)
(3 -9.15033e-16 0)
(3 -7.86508e-16 0)
(3 -9.06682e-16 0)
(3 -7.44899e-16 0)
(3 -1.76841e-16 0)
(3 4.63692e-17 0)
(3 5.31198e-16 0)
(3 1.0974e-15 0)
(3 8.76716e-16 0)
(3 2.32852e-16 0)
(3 6.73557e-17 0)
(3 -3.02533e-16 0)
(3 -3.76521e-16 0)
(3 -2.02557e-16 0)
(3 3.26142e-11 0)
(3 1.28331e-06 0)
(2.99962 0.00226373 0)
(3 -1.66157e-19 0)
(3 9.16409e-17 0)
(3 1.29514e-16 0)
(3 2.38818e-16 0)
(3 2.85204e-16 0)
(3 7.29464e-17 0)
(3 2.40738e-16 0)
(3 2.73156e-17 0)
(3 7.79077e-18 0)
(3 -3.79999e-17 0)
(3 -1.60434e-16 0)
(3 -4.07386e-16 0)
(3 -5.04335e-16 0)
(3 -9.74131e-17 0)
(3 6.4757e-16 0)
(3 5.35668e-16 0)
(3 7.31912e-16 0)
(3 3.77034e-16 0)
(3 6.11176e-16 0)
(3 1.63856e-16 0)
(3 -6.10846e-16 0)
(3 1.83548e-15 0)
(3 8.96694e-10 0)
(3 7.89227e-06 0)
(3 5.19981e-18 0)
(3 -7.665e-17 0)
(3 -6.60822e-17 0)
(3 1.33316e-16 0)
(3 3.52687e-16 0)
(3 4.83723e-16 0)
(3 2.71978e-16 0)
(3 9.98193e-17 0)
(3 6.62666e-17 0)
(3 -5.42738e-16 0)
(3 -5.79208e-16 0)
(3 -9.57862e-16 0)
(3 -1.58621e-15 0)
(3 -1.79622e-15 0)
(3 -1.70458e-15 0)
(3 -2.53461e-16 0)
(3 3.09676e-16 0)
(3 4.72423e-16 0)
(3 1.44827e-16 0)
(3 -7.57969e-17 0)
(3 -2.86027e-16 0)
(3 -2.43618e-16 0)
(3 7.5845e-14 0)
(3 8.38084e-09 0)
(3 6.18146e-18 0)
(3 -8.74375e-17 0)
(3 -3.94223e-18 0)
(3 5.21963e-17 0)
(3 -3.64538e-16 0)
(3 -6.56127e-16 0)
(3 -1.079e-15 0)
(3 -1.66637e-15 0)
(3 -1.39296e-15 0)
(3 -8.8674e-16 0)
(3 -7.5464e-16 0)
(3 -8.47161e-16 0)
(3 -6.62339e-16 0)
(3 -3.79176e-16 0)
(3 -1.98471e-16 0)
(3 4.83916e-16 0)
(3 6.19381e-16 0)
(3 3.63095e-16 0)
(3 -6.37164e-16 0)
(3 -7.68878e-16 0)
(3 -6.62558e-16 0)
(3 -7.07331e-16 0)
(3 -4.16062e-16 0)
(3 1.25371e-12 0)
(3 -2.24823e-17 0)
(3 -5.07746e-17 0)
(3 1.2946e-16 0)
(3 -5.06866e-17 0)
(3 -3.3877e-16 0)
(3 -4.33141e-16 0)
(3 -6.44103e-16 0)
(3 -6.7129e-16 0)
(3 6.88052e-17 0)
(3 6.85915e-16 0)
(3 5.94603e-16 0)
(3 9.2368e-16 0)
(3 9.58485e-16 0)
(3 8.6118e-16 0)
(3 1.11031e-15 0)
(3 1.24339e-15 0)
(3 1.08431e-15 0)
(3 7.14411e-16 0)
(3 3.39861e-16 0)
(3 -6.22704e-16 0)
(3 -6.66074e-16 0)
(3 -8.19085e-16 0)
(3 -6.3013e-16 0)
(3 -8.03012e-16 0)
(3 -3.0612e-17 0)
(3 -1.9985e-16 0)
(3 -8.88806e-17 0)
(3 -1.40513e-16 0)
(3 2.51917e-16 0)
(3 6.68255e-16 0)
(3 9.29561e-16 0)
(3 1.23071e-15 0)
(3 1.07461e-15 0)
(3 8.03386e-16 0)
(3 1.1413e-15 0)
(3 1.11616e-15 0)
(3 1.36228e-15 0)
(3 1.6679e-15 0)
(3 1.32069e-15 0)
(3 1.13546e-15 0)
(3 1.22328e-15 0)
(3 1.19782e-15 0)
(3 1.15756e-15 0)
(3 4.30345e-16 0)
(3 6.54953e-16 0)
(3 2.80087e-16 0)
(3 -3.57641e-16 0)
(3 -1.10695e-15 0)
(3 1.06129e-16 0)
(3 2.90532e-16 0)
(3 1.36564e-16 0)
(3 5.04092e-16 0)
(3 7.84595e-16 0)
(3 1.14088e-15 0)
(3 1.21658e-15 0)
(3 7.45322e-16 0)
(3 1.0393e-16 0)
(3 2.83179e-16 0)
(3 7.10539e-16 0)
(3 7.51413e-16 0)
(3 7.06919e-16 0)
(3 1.14795e-15 0)
(3 1.3754e-15 0)
(3 9.19021e-16 0)
(3 2.05948e-17 0)
(3 -1.59821e-16 0)
(3 -2.44353e-16 0)
(3 -2.08203e-16 0)
(3 -8.78336e-16 0)
(3 8.19148e-16 0)
(3 4.2248e-16 0)
(3 8.67127e-16 0)
(3 -5.42237e-17 0)
(3 1.04573e-16 0)
(3 2.72902e-16 0)
(3 3.0098e-17 0)
(3 3.2729e-16 0)
(3 5.92414e-16 0)
(3 4.47716e-16 0)
(3 7.48437e-16 0)
(3 6.43472e-16 0)
(3 1.2593e-16 0)
(3 1.96283e-16 0)
(3 2.61841e-16 0)
(3 -1.4598e-16 0)
(3 -4.10104e-16 0)
(3 -3.14051e-16 0)
(3 -3.27237e-16 0)
(3 -9.64342e-16 0)
(3 -1.66321e-15 0)
(3 -1.48104e-15 0)
(3 -4.74498e-16 0)
(3 3.49055e-17 0)
(3 1.22986e-16 0)
(3 9.79499e-16 0)
(3 1.55051e-15 0)
(3 -1.36439e-16 0)
(3 -3.34797e-16 0)
(3 -4.98668e-16 0)
(3 -8.09599e-16 0)
(3 -8.59741e-16 0)
(3 -5.16948e-16 0)
(3 -1.21213e-17 0)
(3 6.36481e-16 0)
(3 7.77021e-16 0)
(3 4.25995e-16 0)
(3 3.208e-16 0)
(3 2.84692e-16 0)
(3 -3.70181e-16 0)
(3 -1.24298e-15 0)
(3 -2.13157e-15 0)
(3 -1.61865e-15 0)
(3 -1.15223e-15 0)
(3 -1.48252e-15 0)
(3 -4.99003e-16 0)
(3 5.01566e-16 0)
(3 8.34906e-16 0)
(3 5.91577e-16 0)
(3 1.32879e-15 0)
(3 1.12917e-15 0)
(3 1.98228e-17 0)
(3 -7.49731e-17 0)
(3 -4.65713e-16 0)
(3 -5.17539e-16 0)
(3 -7.55705e-16 0)
(3 -7.98344e-16 0)
(3 -3.41856e-16 0)
(3 -1.14052e-16 0)
(3 2.78049e-18 0)
(3 3.89728e-16 0)
(3 3.74954e-16 0)
(3 2.89585e-16 0)
(3 -1.47982e-16 0)
(3 -7.5113e-16 0)
(3 -7.63141e-16 0)
(3 -6.14095e-16 0)
(3 -4.36528e-16 0)
(3 -6.62318e-16 0)
(3 -2.70791e-16 0)
(3 -2.23623e-16 0)
(3 -1.29012e-16 0)
(3 1.13942e-15 0)
(3 1.19725e-15 0)
(3 8.90908e-16 0)
(1.5566 1.28243 0)
(1.98753 1.43975 0)
(2.19347 1.49255 0)
(2.39172 0.788324 0)
(2.68435 0.43753 0)
(2.68048 0.0313971 0)
(2.62029 -0.194666 0)
(2.51855 -0.355013 0)
(2.49133 -0.487596 0)
(2.51425 -0.365934 0)
(2.50045 -0.205713 0)
(2.49908 -0.14805 0)
(2.50575 -0.131657 0)
(2.51534 -0.134047 0)
(2.51294 -0.139701 0)
(2.53154 -0.102957 0)
(2.53785 -0.0693921 0)
(2.51666 -0.0400107 0)
(2.48765 -0.0235101 0)
(2.48298 -0.0263456 0)
(2.50059 -0.0131932 0)
(2.50633 0.00434793 0)
(2.50581 0.00591231 0)
(2.51144 -0.00635375 0)
(2.51732 -0.00948941 0)
(2.52907 -0.00922338 0)
(2.53263 -0.00426366 0)
(2.52928 -0.0012234 0)
(2.52793 -0.00111538 0)
(2.52531 -0.00205198 0)
(2.52583 -0.00353314 0)
(2.5333 -0.00387119 0)
(2.5414 -0.00265452 0)
(2.54298 -0.00189682 0)
(2.54378 -0.00171698 0)
(2.54552 -0.00273959 0)
(2.5512 -0.0031548 0)
(2.55777 -0.00293892 0)
(2.56387 -0.00130682 0)
(2.56945 0.00210154 0)
(2.57535 0.00296866 0)
(2.58272 0.00226622 0)
(2.59265 0.00100502 0)
(2.60275 -0.00041547 0)
(2.61087 -0.0010539 0)
(2.61615 -0.00167792 0)
(2.61839 -0.00119757 0)
(2.6202 0.000449199 0)
(2.62558 0.00125402 0)
(2.63424 0.00233683 0)
(2.64353 0.00379913 0)
(2.65508 0.00450453 0)
(2.66685 0.00328479 0)
(2.67803 -0.00242111 0)
(2.67159 -0.0222875 0)
(2.61714 -0.0821663 0)
(2.526 -0.188719 0)
(2.42281 -0.275877 0)
(2.34338 -0.334668 0)
(2.30898 -0.347041 0)
(2.28634 -0.343281 0)
(2.29128 -0.312207 0)
(2.28393 -0.264943 0)
(2.28198 -0.223093 0)
(2.26508 -0.168339 0)
(2.25679 -0.122636 0)
(2.27003 -0.0677163 0)
(2.28763 -0.0232406 0)
(2.31191 0.0039148 0)
(2.34157 0.0165938 0)
(2.37788 0.0203326 0)
(2.40708 0.0207336 0)
(2.42749 0.0248441 0)
(2.4419 0.0268745 0)
(2.45646 0.0268796 0)
(2.47365 0.0297363 0)
(2.49028 0.0312419 0)
(2.50485 0.0280632 0)
(2.52662 0.0225836 0)
(2.55237 0.0201283 0)
(2.58253 0.0149317 0)
(2.61513 0.0130247 0)
(2.64405 0.0116831 0)
(2.66662 0.00777933 0)
(2.68667 0.00530293 0)
(2.70301 0.00357692 0)
(2.70509 0.00453959 0)
(2.71326 0.00494778 0)
(2.7338 0.00710519 0)
(2.75256 0.0124272 0)
(2.76804 0.0147474 0)
(2.78933 0.0143934 0)
(2.81117 0.013838 0)
(2.83288 0.0104038 0)
(2.85332 0.00718927 0)
(2.88883 0.00979599 0)
(1.80465 1.10131 0)
(2.31675 0.806138 0)
(2.58107 0.577743 0)
(2.72191 0.124914 0)
(2.77659 -0.331879 0)
(2.74854 -0.427408 0)
(2.76004 -0.573595 0)
(2.80663 -0.655917 0)
(2.76844 -0.619789 0)
(2.68848 -0.528948 0)
(2.58739 -0.356962 0)
(2.57136 -0.229448 0)
(2.57973 -0.178798 0)
(2.59304 -0.152122 0)
(2.57982 -0.125339 0)
(2.57648 -0.109077 0)
(2.56615 -0.066039 0)
(2.54455 -0.011538 0)
(2.52487 0.00289305 0)
(2.51418 -0.00458508 0)
(2.50804 0.0107343 0)
(2.51069 0.0269527 0)
(2.51199 0.0203241 0)
(2.52992 -0.00714572 0)
(2.53863 -0.0240474 0)
(2.54955 -0.0299569 0)
(2.55205 -0.0234553 0)
(2.54965 -0.0107389 0)
(2.54938 -0.00727675 0)
(2.54927 -0.00599516 0)
(2.55097 -0.00486182 0)
(2.55691 -0.00184804 0)
(2.56213 0.00163213 0)
(2.5646 0.00369807 0)
(2.56537 0.00677645 0)
(2.56414 0.00668901 0)
(2.56742 0.00479655 0)
(2.57256 0.00405102 0)
(2.57776 0.00409634 0)
(2.58349 0.00814025 0)
(2.58848 0.0149673 0)
(2.59617 0.0158135 0)
(2.60488 0.0134598 0)
(2.61322 0.00706864 0)
(2.61971 -0.000676106 0)
(2.62453 -0.00636833 0)
(2.62884 -0.00813651 0)
(2.63366 -0.00534547 0)
(2.64106 -0.000279246 0)
(2.65185 0.00838522 0)
(2.65905 0.0220116 0)
(2.66888 0.0168224 0)
(2.66613 -0.00869723 0)
(2.63696 -0.0944094 0)
(2.59006 -0.248308 0)
(2.49514 -0.457047 0)
(2.50984 -0.54546 0)
(2.44759 -0.662807 0)
(2.43919 -0.688004 0)
(2.39289 -0.622717 0)
(2.37097 -0.539673 0)
(2.35821 -0.417406 0)
(2.36161 -0.278849 0)
(2.36113 -0.154192 0)
(2.36066 -0.0817422 0)
(2.33869 -0.0214365 0)
(2.32605 0.0386908 0)
(2.32831 0.0794284 0)
(2.34274 0.0909165 0)
(2.36165 0.0863718 0)
(2.3987 0.0762698 0)
(2.42067 0.0692787 0)
(2.44102 0.0655392 0)
(2.46063 0.054464 0)
(2.4761 0.0431592 0)
(2.49398 0.0432333 0)
(2.50995 0.0396718 0)
(2.52055 0.026915 0)
(2.54003 0.0140677 0)
(2.56638 0.00692647 0)
(2.5927 0.00167416 0)
(2.62037 -0.0020314 0)
(2.64813 -0.00436195 0)
(2.67239 -0.00866383 0)
(2.69604 -0.0148511 0)
(2.71593 -0.0202566 0)
(2.72271 -0.0149794 0)
(2.72606 -0.00568049 0)
(2.74099 0.00296312 0)
(2.76042 0.0154222 0)
(2.77903 0.03323 0)
(2.79697 0.0469386 0)
(2.82013 0.0484017 0)
(2.84271 0.046686 0)
(2.86389 0.0330045 0)
(2.89724 0.0253624 0)
(1.66693 1.09459 0)
(2.11714 0.878949 0)
(2.44497 0.532075 0)
(2.52033 0.444973 0)
(2.62416 0.205068 0)
(2.69965 0.0247695 0)
(2.74705 -0.115718 0)
(2.79532 -0.304511 0)
(2.80641 -0.352696 0)
(2.78856 -0.39039 0)
(2.76594 -0.403225 0)
(2.74205 -0.434149 0)
(2.74992 -0.406669 0)
(2.74408 -0.352386 0)
(2.73778 -0.31327 0)
(2.73662 -0.288021 0)
(2.68399 -0.20942 0)
(2.63433 -0.114587 0)
(2.61275 -0.0828004 0)
(2.59493 -0.0839141 0)
(2.5625 -0.0326822 0)
(2.55569 0.0334737 0)
(2.56631 0.038981 0)
(2.57704 0.0150014 0)
(2.58076 -6.43667e-05 0)
(2.58792 -0.00179312 0)
(2.58726 0.000519317 0)
(2.5897 -0.0087246 0)
(2.59485 -0.017974 0)
(2.59818 -0.0218365 0)
(2.60019 -0.0230851 0)
(2.60193 -0.0195294 0)
(2.60356 -0.0153976 0)
(2.60747 -0.00629362 0)
(2.60788 0.0021253 0)
(2.60532 0.00327934 0)
(2.60397 0.000510638 0)
(2.6057 -0.000434523 0)
(2.60947 0.000124487 0)
(2.61338 0.000424461 0)
(2.61865 -0.00118523 0)
(2.62492 -0.0047711 0)
(2.63141 -0.00557204 0)
(2.63765 -0.00374847 0)
(2.64231 -0.0016209 0)
(2.64578 -0.00321437 0)
(2.64931 -0.00391285 0)
(2.65546 -0.00474563 0)
(2.66471 0.00028561 0)
(2.67617 -0.00236738 0)
(2.67249 -0.023685 0)
(2.64646 -0.093577 0)
(2.60329 -0.233501 0)
(2.50124 -0.433789 0)
(2.49061 -0.521577 0)
(2.41922 -0.637417 0)
(2.40633 -0.732417 0)
(2.42039 -0.719884 0)
(2.45808 -0.703219 0)
(2.46504 -0.687845 0)
(2.47946 -0.675996 0)
(2.47846 -0.651928 0)
(2.47952 -0.600498 0)
(2.49597 -0.536141 0)
(2.52103 -0.454628 0)
(2.52769 -0.347041 0)
(2.51244 -0.232684 0)
(2.49514 -0.137505 0)
(2.47818 -0.0681911 0)
(2.46251 -0.0171664 0)
(2.45528 0.0174394 0)
(2.45317 0.0386031 0)
(2.46817 0.0528748 0)
(2.48912 0.0634152 0)
(2.50499 0.0756097 0)
(2.51975 0.0805993 0)
(2.53257 0.0875887 0)
(2.54393 0.0803668 0)
(2.55957 0.0735845 0)
(2.57949 0.0713819 0)
(2.60174 0.0629707 0)
(2.62362 0.0547047 0)
(2.64544 0.0488004 0)
(2.66821 0.0434005 0)
(2.69076 0.0365445 0)
(2.71014 0.0281712 0)
(2.72356 0.022876 0)
(2.73337 0.0274318 0)
(2.74183 0.042193 0)
(2.75239 0.063846 0)
(2.76184 0.0790394 0)
(2.78927 0.080937 0)
(2.8135 0.0777684 0)
(2.837 0.0680026 0)
(2.85475 0.0597484 0)
(2.87682 0.0597283 0)
(1.6256 0.992739 0)
(1.94947 0.861081 0)
(2.13948 0.748009 0)
(2.31434 0.57864 0)
(2.51053 0.295809 0)
(2.62105 0.112767 0)
(2.63187 0.059729 0)
(2.7128 -0.130109 0)
(2.74996 -0.255682 0)
(2.76788 -0.319279 0)
(2.80421 -0.414569 0)
(2.80394 -0.475539 0)
(2.84015 -0.476948 0)
(2.82411 -0.442138 0)
(2.81249 -0.432113 0)
(2.79301 -0.418195 0)
(2.75302 -0.351465 0)
(2.72271 -0.271257 0)
(2.71143 -0.248971 0)
(2.70173 -0.240406 0)
(2.65128 -0.162684 0)
(2.62363 -0.0545361 0)
(2.62831 -0.0287561 0)
(2.62632 -0.0219293 0)
(2.62228 -0.0175208 0)
(2.61921 -0.00779163 0)
(2.61632 0.0132955 0)
(2.62299 0.0132329 0)
(2.63267 0.0118184 0)
(2.64008 0.0125033 0)
(2.6398 0.0109308 0)
(2.64007 0.00432129 0)
(2.64096 -0.0037291 0)
(2.64581 -0.00529326 0)
(2.65008 -0.00373569 0)
(2.64897 -0.00462531 0)
(2.64273 -0.00470621 0)
(2.64236 -0.00422848 0)
(2.64498 -0.00194725 0)
(2.64986 0.00587352 0)
(2.65353 0.009444 0)
(2.6586 0.0078875 0)
(2.6623 0.00532733 0)
(2.66634 0.00395951 0)
(2.67047 0.00216199 0)
(2.67243 0.00337564 0)
(2.67342 0.00531765 0)
(2.68197 -0.00193782 0)
(2.67969 -0.0187223 0)
(2.66166 -0.0710399 0)
(2.62222 -0.186633 0)
(2.51103 -0.405106 0)
(2.49497 -0.511898 0)
(2.41659 -0.641247 0)
(2.3916 -0.716244 0)
(2.39413 -0.698258 0)
(2.42379 -0.684728 0)
(2.437 -0.67694 0)
(2.45654 -0.681656 0)
(2.47103 -0.692854 0)
(2.48058 -0.690359 0)
(2.49444 -0.676763 0)
(2.51391 -0.661149 0)
(2.53414 -0.645596 0)
(2.55088 -0.628904 0)
(2.56187 -0.591399 0)
(2.55878 -0.520434 0)
(2.5513 -0.423703 0)
(2.5366 -0.320164 0)
(2.52019 -0.229641 0)
(2.5005 -0.142625 0)
(2.50528 -0.0895739 0)
(2.52016 -0.0569059 0)
(2.52653 -0.0237521 0)
(2.54498 0.0114835 0)
(2.54409 0.0347603 0)
(2.55275 0.057649 0)
(2.56635 0.0787395 0)
(2.57605 0.0887011 0)
(2.58652 0.0994594 0)
(2.60343 0.10382 0)
(2.6199 0.101401 0)
(2.63794 0.0965281 0)
(2.65966 0.0865353 0)
(2.68288 0.0724392 0)
(2.70597 0.0577768 0)
(2.7237 0.0399033 0)
(2.73701 0.0322686 0)
(2.74816 0.0428743 0)
(2.75408 0.0615926 0)
(2.75642 0.0714855 0)
(2.77344 0.0656794 0)
(2.79655 0.0577679 0)
(2.81454 0.0460744 0)
(2.82807 0.0350863 0)
(2.84952 0.0374027 0)
(1.59951 0.945498 0)
(1.8288 0.86447 0)
(1.98843 0.796976 0)
(2.20893 0.621482 0)
(2.37205 0.417853 0)
(2.42982 0.362815 0)
(2.51871 0.221816 0)
(2.61117 0.0227474 0)
(2.66151 -0.0661323 0)
(2.68449 -0.0716038 0)
(2.72734 -0.158738 0)
(2.75126 -0.2716 0)
(2.7749 -0.28544 0)
(2.77529 -0.315011 0)
(2.76686 -0.368389 0)
(2.77933 -0.396976 0)
(2.78748 -0.387681 0)
(2.78702 -0.375854 0)
(2.77636 -0.381971 0)
(2.76232 -0.36319 0)
(2.72692 -0.288481 0)
(2.69407 -0.168581 0)
(2.68567 -0.124528 0)
(2.68297 -0.107079 0)
(2.65234 -0.0810173 0)
(2.63844 -0.0522488 0)
(2.63666 -0.0354276 0)
(2.64203 -0.0293811 0)
(2.65735 -0.0115344 0)
(2.65958 0.0105345 0)
(2.6605 0.0179835 0)
(2.6561 0.0160029 0)
(2.65655 0.0133467 0)
(2.66045 0.0128491 0)
(2.66706 0.0139418 0)
(2.66943 0.0110451 0)
(2.66634 -0.00224582 0)
(2.66788 -0.0133238 0)
(2.67115 -0.0136729 0)
(2.67582 -0.011619 0)
(2.68113 -0.00678574 0)
(2.68714 -0.000208859 0)
(2.69032 0.00590107 0)
(2.69109 0.0109468 0)
(2.6903 0.0182592 0)
(2.68638 0.0186584 0)
(2.6875 0.00104482 0)
(2.67996 -0.0325382 0)
(2.64557 -0.117028 0)
(2.52733 -0.322668 0)
(2.48789 -0.455596 0)
(2.39701 -0.63086 0)
(2.37449 -0.708876 0)
(2.38667 -0.68882 0)
(2.39689 -0.678263 0)
(2.40991 -0.675838 0)
(2.42293 -0.684498 0)
(2.43258 -0.692263 0)
(2.45301 -0.688 0)
(2.47474 -0.671715 0)
(2.48776 -0.655301 0)
(2.50146 -0.645323 0)
(2.52101 -0.643872 0)
(2.54167 -0.646066 0)
(2.55805 -0.646472 0)
(2.57367 -0.638787 0)
(2.58515 -0.627109 0)
(2.59346 -0.610637 0)
(2.59325 -0.560073 0)
(2.59532 -0.505284 0)
(2.58374 -0.436971 0)
(2.57304 -0.345523 0)
(2.57034 -0.249843 0)
(2.56512 -0.160325 0)
(2.57215 -0.102781 0)
(2.56696 -0.0443578 0)
(2.58545 -0.0215169 0)
(2.60255 0.0156838 0)
(2.59947 0.0435167 0)
(2.59803 0.0768441 0)
(2.60752 0.0958712 0)
(2.61647 0.0986625 0)
(2.63457 0.0988746 0)
(2.65247 0.0996067 0)
(2.67361 0.0968429 0)
(2.69015 0.0939526 0)
(2.70743 0.093679 0)
(2.72373 0.0956916 0)
(2.7411 0.103641 0)
(2.75095 0.11196 0)
(2.75171 0.113874 0)
(2.75487 0.114704 0)
(2.76663 0.110389 0)
(2.78104 0.100011 0)
(2.79481 0.0874549 0)
(2.8181 0.0846781 0)
(1.56731 0.906308 0)
(1.74513 0.866354 0)
(1.9163 0.791333 0)
(2.10311 0.657748 0)
(2.2433 0.52588 0)
(2.31684 0.45849 0)
(2.41114 0.343275 0)
(2.51 0.183284 0)