/*--------------------------------*- C++ -*----------------------------------*\
  =========                 |
  \\      /  F ield         | OpenFOAM: The Open Source CFD Toolbox
   \\    /   O peration     | Website:  https://openfoam.org
    \\  /    A nd           | Version:  7
     \\/     M anipulation  |
\*---------------------------------------------------------------------------*/
FoamFile
{
    version     2.0;
    format      ascii;
    class       volScalarField;
    location    "4";
    object      p;
}
// * * * * * * * * * * * * * * * * * * * * * * * * * * * * * * * * * * * * * //

dimensions      [1 -1 -2 0 0 0 0];

internalField   nonuniform List<scalar> 
4032
(
1
1
1
1
1
1
1
1
1
1
1
1.3034
7.52255
10.6098
10.7437
10.9516
11.1369
11.3134
11.4746
11.6178
11.7423
11.8408
11.9136
11.9647
1
1
1
1
1
1
1
1
1
1
1
1.2644
7.35619
10.5761
10.729
10.9304
11.1121
11.2841
11.4407
11.5786
11.697
11.7889
11.8539
11.9008
1
1
1
1
1
1
1
1
1
1
1
1.16021
7.04809
10.5437
10.6855
10.8851
11.0664
11.2358
11.3886
11.5213
11.6342
11.7208
11.7792
11.822
1
1
1
1
1
1
1
1
1
1
1
1.0128
6.54065
10.4809
10.6278
10.8151
10.9874
11.1453
11.2894
11.4171
11.5281
11.6118
11.663
11.6979
1
1
1
1
1
1
1
1
1
1
1
1.00013
5.86018
10.309
10.5034
10.6838
10.8565
11.0097
11.146
11.2598
11.3505
11.4184
11.4592
11.5087
1
1
1
1
1
1
1
1
1
1
1
0.999999
5.01323
10.072
10.3925
10.5571
10.7198
10.8555
10.9722
11.0698
11.1497
11.2111
11.2285
11.1908
1
1
1
1
1
1
1
1
1
1
1
1
4.04924
9.70528
10.2778
10.4308
10.5725
10.6785
10.7589
10.8157
10.8363
10.8017
10.741
10.7022
1
1
1
1
1
1
1
1
1
1
1
1
3.00655
9.13776
10.1903
10.3232
10.4349
10.5063
10.5392
10.5396
10.4947
10.4185
10.2993
10.2934
1
1
1
1
1
1
1
1
1
1
1
1
1.93601
8.26798
10.1546
10.1959
10.2873
10.326
10.3092
10.246
10.1011
9.83646
9.06086
7.17007
1
1
1
1
1
1
1
1
1
1
1
1
1.1112
7.08355
10.1842
10.0846
10.0831
10.0739
10.0179
9.89183
9.6525
9.18117
8.3779
6.32365
1
1
1
1
1
1
1
1
1
1
1
1
1.00113
5.44882
9.58002
9.73673
9.79895
9.76873
9.69087
9.51646
9.21977
8.65832
7.82869
5.87865
1
1
1
1
1
1
1
1
1
1
1
1
0.999984
3.57546
8.964
9.59944
9.63152
9.56539
9.44295
9.2116
8.85129
8.27649
7.37744
5.78631
1
1
1
1
1
1
1
1
1
1
1
1
0.999996
1.87858
7.98681
9.55583
9.45024
9.33441
9.17496
8.91157
8.51474
7.95637
7.05248
5.8207
1
1
1
1
1
1
1
1
1
1
1
1
0.999999
1.08152
6.21437
9.18545
9.1765
9.08091
8.9171
8.64872
8.25982
7.69223
6.86677
5.90452
1
1
1
1
1
1
1
1
1
1
1
1
1
1.0003
3.7305
8.56386
9.04491
8.93969
8.75256
8.44316
8.05417
7.47716
6.76021
5.96653
1
1
1
1
1
1
1
1
1
1
1
1
1
0.999996
1.56013
7.57054
9.08366
8.80026
8.55349
8.23472
7.82491
7.31558
6.71033
6.03261
1
1
1
1
1
1
1
1
1
1
1
1
1
0.999999
1.02785
5.50992
8.62177
8.45364
8.28454
8.01275
7.64451
7.19846
6.67182
6.07787
1
1
1
1
1
1
1
1
1
1
1
1
1
1
0.999945
2.71241
7.87592
8.3546
8.19173
7.91843
7.56001
7.13169
6.64049
6.11491
1
1
1
1
1
1
1
1
1
1
1
1
1
1
0.999983
1.20891
6.0019
8.28477
8.08889
7.80956
7.46038
7.0597
6.61074
6.14511
1
1
1
1
1
1
1
1
1
1
1
1
1
1
0.999997
1.00332
3.11955
7.55028
7.96455
7.69181
7.37025
6.9993
6.59475
6.17526
1
1
1
1
1
1
1
1
1
1
1
1
1
1
1
1
1.30949
5.86742
7.9285
7.62935
7.33009
6.97152
6.59208
6.19932
1
1
1
1
1
1
1
1
1
1
1
1
1
1
1
1
1.00768
2.9254
7.14173
7.55278
7.25298
6.91671
6.56655
6.20431
1
1
1
1
1
1
1
1
1
1
1
1
1
1
1
1
1.00002
1.26125
5.32255
7.56071
7.22105
6.9084
6.58058
6.24062
1
1
1
1
1
1
1
1
1
1
1
1
1
1
1
1
1
1.00584
2.38031
6.48272
7.17197
6.88757
6.58455
6.26381
1
1
1
1
1
1
1
1
1
1
1
1
1
1
1
1
1
1.00003
1.13674
4.22466
7.07474
6.9189
6.6301
6.31877
1
1
1
1
1
1
1
1
1
1
1
1
1
1
1
1
1
1
1.00211
1.73928
5.65378
6.91964
6.62798
6.32693
1
1
1
1
1
1
1
1
1
1
1
1
1
1
1
1
1
1
1.00001
1.04241
2.90562
6.23446
6.64378
6.37609
1
1
1
1
1
1
1
1
1
1
1
1
1
1
1
1
1
1
1
1.00046
1.25524
4.23649
6.48855
6.44154
1
1
1
1
1
1
1
1
1
1
1
1
1
1
1
1
1
1
1
1
1.00679
1.79399
5.15271
6.38635
1
1
1
1
1
1
1
1
1
1
1
1
1
1
1
1
1
1
1
1
1.00004
1.05
2.56604
5.62393
1
1
1
1
1
1
1
1
1
1
1
1
1
1
1
1
1
1
1
1
1
1.00067
1.18143
3.40631
1
1
1
1
1
1
1
1
1
1
1
1
1
1
1
1
1
1
1
1
1
1
1.00431
1.444
1
1
1
1
1
1
1
1
1
1
1
1
1
1
1
1
1
1
1
1
1
1
1.00003
1.02007
1
1
1
1
1
1
1
1
1
1
1
1
1
1
1
1
1
1
1
1
1
1
1
1.00021
1
1
1
1
1
1
1
1
1
1
1
1
1
1
1
1
1
1
1
1
1
1
1
1
1
1
1
1
1
1
1
1
1
1
1
1
1
1
1
1
1
1
1
1
1
1
1
1
1
1
1
1
1
1
1
1
1
1
1
1
1
1
1
1
1
1
1
1
1
1
1
1
1
1
1
1
1
1
1
1
1
1
1
1
1
1
1
1
1
1
1
1
1
1
1
1
1
1
1
1
1
1
1
1
1
1
1
1
1
1
1
1
1
1
1
1
1
1
1
1
1
1
1
1
1
1
1
1
1
1
1
1
1
1
1
1
1
1
1
1
1
1
1
1
1.54764
0.487256
0.198158
0.140226
0.16188
0.232685
0.36362
0.5087
0.658901
0.762647
0.858534
0.956381
1.10455
1.2359
1.25598
1.25354
1.23304
1.22793
1.22373
1.25298
1.3254
1.3497
1.35164
1.32143
1.29662
1.29285
1.31353
3.17255
5.62716
5.80342
5.85655
5.8838
5.8956
5.89836
5.88366
5.84803
5.79095
5.727
5.67219
5.62592
5.58052
5.5252
5.44582
5.34529
5.24648
5.1723
5.13127
5.11892
5.09577
5.00221
4.87522
4.7546
4.66196
4.60715
4.59605
4.57816
4.5025
4.40378
4.29183
4.19276
4.11736
4.07108
4.04638
3.99441
3.92235
3.84549
3.76619
3.6982
3.63973
3.59124
3.54551
3.49057
3.4329
3.37061
3.30437
3.24271
3.19164
3.14821
3.11389
3.0769
3.03137
2.97631
2.90848
2.84157
2.78937
2.75087
2.71945
2.69484
2.66668
2.62977
2.57313
2.49902
2.4392
2.40083
2.37694
2.3327
2.77606
1.44407
0.94164
0.678499
0.524275
0.495953
0.519285
0.519301
0.529419
0.569326
0.628497
0.696462
0.793671
0.943173
1.0422
1.08016
1.12148
1.15401
1.17634
1.22152
1.27986
1.30084
1.31335
1.3207
1.31151
1.29822
1.28637
2.91574
5.56857
5.95259
6.00101
5.98316
5.91528
5.85215
5.81414
5.81188
5.81289
5.76189
5.66282
5.56165
5.48042
5.43376
5.4115
5.37612
5.28973
5.18006
5.08322
5.01377
4.98666
4.96545
4.90375
4.80657
4.69825
4.60492
4.52607
4.46878
4.43285
4.38796
4.31963
4.23689
4.14969
4.06898
3.99855
3.94114
3.89767
3.84463
3.78189
3.71147
3.63611
3.57056
3.51725
3.47438
3.43382
3.38361
3.3271
3.2615
3.19188
3.13189
3.08509
3.04657
3.0147
2.97315
2.92561
2.87222
2.81403
2.75899
2.71391
2.67661
2.64291
2.61146
2.57071
2.51898
2.46567
2.41364
2.37608
2.32354
3.64383
2.35486
1.67108
1.29073
0.987288
0.783204
0.693819
0.664016
0.631527
0.617808
0.634615
0.665393
0.680115
0.725554
0.837543
0.931257
1.00618
1.0939
1.16088
1.22439
1.25931
1.26814
1.28296
1.31473
1.33884
1.33684
1.32047
2.44227
5.60913
6.16119
6.02059
6.03449
5.99573
5.89462
5.80053
5.76128
5.787
5.82316
5.77372
5.6466
5.50173
5.38893
5.32558
5.32463
5.33258
5.27423
5.16795
5.04873
4.94549
4.87617
4.84654
4.82425
4.77394
4.68978
4.56647
4.43212
4.34772
4.29676
4.27536
4.25116
4.1957
4.12054
4.02007
3.92073
3.85605
3.80729
3.76979
3.72275
3.66449
3.58756
3.49896
3.4362
3.39343
3.36466
3.3338
3.29025
3.23375
3.15485
3.06613
3.00063
2.95793
2.92896
2.9122
2.88516
2.84882
2.7988
2.73074
2.66203
2.60977
2.56744
2.53752
2.51317
2.48493
2.44827
2.40133
2.32173
4.25073
3.14057
2.34679
1.88827
1.56389
1.25474
0.990958
0.929948
0.901335
0.842662
0.781008
0.721565
0.680896
0.682709
0.709697
0.773914
0.856887
0.946903
1.0416
1.1176
1.16164
1.17675
1.19692
1.24886
1.30849
1.34074
1.39191
1.99679
5.47062
6.61763
6.19669
6.02038
6.01643
5.94075
5.85336
5.76676
5.71465
5.70592
5.70471
5.64365
5.54222
5.40979
5.30859
5.24631
5.22447
5.21115
5.15528
5.07847
4.97447
4.86334
4.79844
4.7555
4.71931
4.66079
4.58583
4.48721
4.37538
4.30024
4.25047
4.21306
4.16065
4.09668
4.02447
3.9436
3.85862
3.79016
3.74096
3.69678
3.65022
3.5955
3.52623
3.44539
3.37791
3.335
3.2997
3.26621
3.22621
3.17387
3.10071
3.01511
2.95033
2.91449
2.88662
2.86274
2.837
2.80337
2.75321
2.67864
2.59963
2.54829
2.51899
2.49543
2.47307
2.4483
2.41762
2.33682
4.66732
3.74929
2.96191
2.39429
2.04421
1.7527
1.47796
1.2239
1.0796
1.02473
0.972187
0.907505
0.825301
0.736188
0.723
0.737096
0.767597
0.81424
0.879661
0.936046
0.985721
1.04224
1.0918
1.16312
1.22172
1.32514
1.68109
2.246
4.28608
6.38198
6.46248
6.10769
5.98339
5.92006
5.89049
5.81865
5.7108
5.64058
5.59597
5.58946
5.55204
5.47787
5.36085
5.2502
5.18289
5.13881
5.10956
5.05986
4.99654
4.8982
4.78374
4.71001
4.65164
4.59598
4.5423
4.48276
4.40356
4.31138
4.24158
4.18179
4.12006
4.05928
4.00337
3.94627
3.87767
3.79837
3.72785
3.67242
3.62364
3.57653
3.52587
3.46534
3.39664
3.33281
3.27993
3.23247
3.18618
3.13912
3.08917
3.03527
2.97883
2.92586
2.88316
2.84701
2.81121
2.77176
2.72502
2.67034
2.61551
2.56827
2.52761
2.4942
2.46296
2.4318
2.39964
2.33154
4.99242
4.19273
3.48578
2.91677
2.44664
2.10543
1.88072
1.65706
1.40396
1.21196
1.1568
1.1215
1.05761
0.961486
0.861816
0.807696
0.797818
0.811177
0.818382
0.823948
0.837116
0.864278
0.920697
0.998913
1.10961
1.44743
2.20273
2.63992
3.11969
4.7263
5.98979
6.07348
6.04559
6.00662
5.93459
5.84688
5.67672
5.5598
5.51083
5.51035
5.52765
5.47408
5.38191
5.23768
5.13137
5.0774
5.05068
5.02854
4.97723
4.8998
4.77811
4.67559
4.61729
4.57456
4.53361
4.48151
4.41756
4.32368
4.22272
4.15054
4.09408
4.04412
3.99649
3.94586
3.88165
3.79253
3.70511
3.64944
3.60688
3.56642
3.52397
3.4735
3.40568
3.32575
3.25932
3.20822
3.16309
3.12228
3.08653
3.04989
3.00173
2.93746
2.87667
2.83012
2.78818
2.74561
2.70395
2.66676
2.63147
2.59038
2.54139
2.4939
2.45169
2.41045
2.37309
2.31469
5.21244
4.5016
3.84776
3.34441
2.89144
2.44499
2.15055
1.96851
1.77107
1.56603
1.36043
1.2464
1.19963
1.14526
1.07608
0.996037
0.907404
0.847679
0.828168
0.827415
0.837088
0.857706
0.862523
0.898511
1.17112
1.75763
2.39083
2.67105
2.70881
3.06883
4.46515
5.62741
5.92334
6.05964
6.00696
5.87921
5.69611
5.51603
5.45054
5.42797
5.44451
5.42097
5.35396
5.2545
5.13146
5.05963
5.02262
4.99471
4.93964
4.87389
4.78114
4.68061
4.61595
4.57252
4.5263
4.47023
4.40578
4.31961
4.21367
4.13579
4.08412
4.03623
3.9874
3.93454
3.86891
3.7806
3.69126
3.63798
3.59842
3.55946
3.5188
3.47013
3.39948
3.30696
3.2295
3.1823
3.14792
3.11796
3.08942
3.05785
3.01179
2.93633
2.85237
2.79563
2.75623
2.72339
2.69664
2.67264
2.64499
2.60716
2.54787
2.47873
2.42529
2.38332
2.35331
2.3077
5.37677
4.7517
4.14776
3.64406
3.22047
2.81718
2.4894
2.19736
1.98987
1.84286
1.68009
1.49713
1.32426
1.26878
1.24523
1.19481
1.11248
0.995538
0.923383
0.902357
0.885408
0.883043
0.922141
1.14068
1.58856
2.0279
2.26545
2.37638
2.37693
2.40044
2.72181
4.00573
5.27582
5.85734
5.97238
5.88492
5.74565
5.55373
5.41716
5.35516
5.32766
5.33319
5.32078
5.26311
5.17858
5.06557
4.98088
4.92286
4.87424
4.82995
4.77433
4.7057
4.62538
4.55163
4.49012
4.43046
4.3692
4.29976
4.21111
4.12297
4.06135
4.01222
3.96263
3.90909
3.84796
3.77443
3.69183
3.62726
3.58779
3.54867
3.50264
3.44873
3.38225
3.29984
3.22362
3.17879
3.14914
3.12713
3.10065
3.06165
3.00512
2.92356
2.83827
2.77777
2.74164
2.71667
2.69656
2.6787
2.65789
2.61698
2.5423
2.45777
2.40306
2.36785
2.34414
2.30329
5.49998
4.93361
4.386
3.91549
3.48061
3.0885
2.78742
2.50235
2.2127
2.00925
1.89635
1.75762
1.58949
1.42989
1.34013
1.30993
1.26646
1.19005
1.08901
1.00674
0.963316
0.988158
1.20626
1.68359
2.06337
2.22603
2.23156
2.21408
2.21035
2.21272
2.22097
2.42301
3.44798
4.83753
5.60464
5.78714
5.75397
5.63997
5.47417
5.3222
5.26126
5.2291
5.23845
5.24054
5.18761
5.09235
4.95949
4.87292
4.82213
4.7811
4.74778
4.69536
4.62166
4.52871
4.44957
4.38853
4.33176
4.27129
4.2002
4.11311
4.03277
3.97506
3.92815
3.88174
3.8334
3.7776
3.70564
3.62093
3.54981
3.50059
3.45662
3.41145
3.36398
3.31341
3.25711
3.19761
3.14875
3.10367
3.05501
3.00546
2.95111
2.89536
2.8396
2.79238
2.75821
2.73348
2.71239
2.68033
2.62894
2.56672
2.50217
2.44005
2.39675
2.36789
2.34676
2.30364
5.59648
5.0753
4.58447
4.14601
3.7249
3.33437
3.02475
2.75738
2.48725
2.25224
2.06233
1.91709
1.80446
1.68501
1.54437
1.40707
1.35727
1.31854
1.25121
1.16972
1.19985
1.45206
1.97492
2.32239
2.36855
2.32223
2.27035
2.25164
2.2606
2.26865
2.25984
2.22087
2.28112
2.86835
4.15962
5.11996
5.56818
5.64302
5.54374
5.37662
5.21044
5.1669
5.15356
5.17558
5.1516
5.08428
4.96272
4.83498
4.77327
4.72914
4.70234
4.65937
4.59826
4.50968
4.40933
4.34463
4.29451
4.24335
4.18649
4.11221
4.02025
3.94134
3.88912
3.84844
3.81213
3.77152
3.71594
3.62645
3.52718
3.46675
3.42773
3.39238
3.35898
3.32395
3.27883
3.20985
3.12518
3.05959
3.0109
2.96488
2.91638
2.87506
2.84449
2.8149
2.7834
2.7454
2.69188
2.63663
2.57926
2.52158
2.46803
2.42618
2.39564
2.37175
2.35424
2.31451
5.67226
5.19256
4.74956
4.33091
3.92317
3.56732
3.25377
2.96102
2.69929
2.49671
2.30077
2.08946
1.92948
1.85509
1.7581
1.60931
1.46559
1.40145
1.3666
1.42238
1.71606
2.30567
2.69492
2.67752
2.58158
2.46637
2.42453
2.41765
2.40598
2.36925
2.33381
2.29136
2.23913
2.2331
2.47731
3.3964
4.55965
5.28501
5.46698
5.42671
5.23436
5.12847
5.08923
5.09946
5.09734
5.04553
4.95466
4.81822
4.73345
4.68457
4.65424
4.61905
4.56704
4.49551
4.38878
4.30018
4.24924
4.20586
4.16041
4.10367
4.02272
3.92853
3.86008
3.8177
3.78423
3.74986
3.70559
3.63059
3.52364
3.44608
3.4053
3.37498
3.35325
3.32217
3.27727
3.20286
3.10015
3.01909
2.97221
2.93578
2.90657
2.8835
2.85774
2.8244
2.77696
2.70943
2.64456
2.59006
2.5424
2.49464
2.4571
2.43119
2.41083
2.39218
2.37028
2.31197
5.73352
5.29672
4.89173
4.4904
4.09922
3.77237
3.46665
3.17057
2.90061
2.69022
2.50068
2.31285
2.13305
1.98466
1.87834
1.76622
1.64612
1.56508
1.65082
1.99746
2.55539
2.9945
2.99508
2.90394
2.79186
2.67267
2.61281
2.58636
2.55536
2.51242
2.47392
2.42939
2.35712
2.25517
2.23306
2.30264
2.80572
3.86474
4.8282
5.19931
5.23473
5.11819
5.07591
5.04923
5.03739
4.99107
4.91482
4.79462
4.69808
4.64743
4.61576
4.57957
4.53203
4.47497
4.39046
4.28329
4.20263
4.15358
4.11164
4.06905
4.02032
3.9589
3.88243
3.80174
3.74193
3.70127
3.6635
3.61334
3.53998
3.46011
3.39423
3.35114
3.31696
3.28238
3.24216
3.18058
3.08182
2.99026
2.94623
2.92239
2.90975
2.89798
2.8714
2.82791
2.75059
2.66219
2.60089
2.55727
2.5199
2.49387
2.47192
2.44638
2.41714
2.38092
2.33832
2.27819
5.78567
5.38605
5.00565
4.62025
4.2628
3.94977
3.64628
3.34694
3.10502
2.88219
2.66792
2.47009
2.32078
2.16641
1.99424
1.88032
1.84849
2.0022
2.49468
2.9316
3.24881
3.26979
3.19297
3.11128
3.02572
2.90958
2.80852
2.76454
2.72777
2.68426
2.63476
2.57734
2.49909
2.3953
2.29636
2.25035
2.26743
2.46399
3.1722
4.16828
4.83903
4.95142
5.04102
5.0214
4.99016
4.93024
4.85348
4.76237
4.67398
4.62098
4.58032
4.53552
4.4905
4.44302
4.38418
4.30122
4.19856
4.1123
4.06152
4.02517
3.99257
3.95701
3.90559
3.82423
3.73071
3.65668
3.60235
3.55817
3.51719
3.46736
3.40067
3.33105
3.27643
3.23256
3.19008
3.1422
3.08029
3.00828
2.94741
2.91711
2.89483
2.86777
2.83369
2.78554
2.70627
2.61769
2.56464
2.53736
2.51881
2.50679
2.48745
2.45877
2.41851
2.35901
2.30857
2.25453
5.83014
5.46702
5.10592
4.74313
4.41747
4.11056
3.80278
3.5155
3.28441
3.05692
2.84356
2.62833
2.46054
2.30477
2.14979
2.1609
2.37749
3.02179
3.54548
3.60006
3.52931
3.42053
3.35058
3.30235
3.23741
3.14196
3.01533
2.93791
2.8903
2.8369
2.77439
2.71297
2.64324
2.54253
2.43927
2.36418
2.31184
2.29056
2.33888
2.65884
3.4372
4.23506
4.71054
4.83464
4.91993
4.88184
4.81009
4.75058
4.68014
4.62099
4.54737
4.47965
4.43186
4.38832
4.34372
4.29023
4.21294
4.10877
4.02181
3.97658
3.94496
3.91393
3.87884
3.82728
3.74016
3.62746
3.54914
3.50836
3.47473
3.43899
3.39148
3.32171
3.24287
3.18095
3.13399
3.09487
3.06419
3.02883
2.97693
2.91674
2.86853
2.83092
2.79312
2.7445
2.66781
2.58009
2.54382
2.52797
2.52051
2.51246
2.49129
2.46133
2.404
2.31359
2.27378
2.2415
5.89316
5.55022
5.20036
4.85903
4.55063
4.24975
3.94063
3.67983
3.44174
3.2154
2.98421
2.77714
2.61013
2.45897
2.5264
2.90185
3.48509
4.05609
4.10966
3.97196
3.74258
3.5954
3.54499
3.50078
3.43443
3.3458
3.21804
3.10335
3.04004
2.98304
2.92016
2.85006
2.77348
2.6825
2.57252
2.4823
2.42297
2.35766
2.31177
2.3042
2.38214
2.77336
3.51791
4.19723
4.57943
4.71766
4.77526
4.73976
4.69241
4.6236
4.51549
4.41113
4.35914
4.32453
4.28751
4.24448
4.19106
4.11158
4.00941
3.93232
3.88771
3.85373
3.82048
3.78016
3.71696
3.61872
3.52368
3.46876
3.43236
3.39792
3.35798
3.30073
3.21609
3.13265
3.09076
3.06838
3.04751
3.02165
2.98259
2.91875
2.84774
2.79272
2.74588
2.69624
2.63505
2.57418
2.5381
2.52166
2.51119
2.5009
2.48176
2.4519
2.38868
2.29429
2.24782
2.21564
5.93927
5.60863
5.27218
4.96018
4.66256
4.3608
4.07238
3.82629
3.58283
3.34825
3.09851
2.93638
2.81814
2.98303
3.56266
4.10814
4.40572
4.44329
4.31863
4.15817
3.98446
3.83637
3.77334
3.70714
3.61844
3.524
3.40428
3.26837
3.18813
3.12158
3.05299
2.97921
2.89665
2.80048
2.69659
2.60367
2.53455
2.47545
2.40892
2.34997
2.31298
2.28143
2.38267
2.81906
3.50508
4.17491
4.46012
4.6318
4.6886
4.62372
4.49234
4.34885
4.28675
4.25764
4.22465
4.18549
4.1419
4.08229
3.99509
3.90254
3.8374
3.79283
3.75518
3.71542
3.66407
3.58998
3.50106
3.43348
3.39123
3.35579
3.31784
3.26906
3.19893
3.1162
3.06321
3.03849
3.01703
2.99323
2.95935
2.90122
2.82291
2.75322
2.6999
2.65491
2.61803
2.58365
2.5445
2.51064
2.49044
2.47254
2.45083
2.42033
2.36835
2.28681
2.22645
2.19415
6.0009
5.6786
5.35489
5.05781
4.76642
4.46575
4.20607
3.95232
3.71074
3.45491
3.25615
3.26003
3.57635
4.35189
4.94406
4.90139
4.80241
4.62778
4.48376
4.39323
4.27764
4.11213
3.98936
3.90003
3.79567
3.69733
3.59358
3.46699
3.34505
3.25613
3.17258
3.0925
3.01132
2.92239
2.82212
2.72099
2.63779
2.57003
2.5087
2.44162
2.36502
2.29889
2.23891
2.23326
2.37027
2.87716
3.54523
4.161
4.42357
4.48014
4.44707
4.30882
4.23479
4.20498
4.16182
4.12537
4.08804
4.03376
3.95825
3.87353
3.80257
3.74861
3.70347
3.65994
3.6109
3.54808
3.46911
3.39495
3.34614
3.31084
3.27643
3.23658
3.18576
3.12108
3.05504
3.00702
2.97341
2.94256
2.90714
2.858
2.78316
2.70693
2.66701
2.64744
2.62957
2.60199
2.55522
2.4915
2.44705
2.42596
2.40566
2.38035
2.34537
2.29588
2.23538
2.19338
6.02425
5.71221
5.41858
5.13731
4.84702
4.56204
4.31518
4.05439
3.82505
3.60842
3.73908
4.30602
5.0416
5.59568
5.55095
5.24372
4.9739
4.83234
4.74797
4.67993
4.5543
4.36991
4.17043
4.06163
3.96672
3.87017
3.77163
3.657
3.51612
3.38615
3.28595
3.19675
3.11388
3.03274
2.94554
2.84656
2.74397
2.6559
2.5839
2.51757
2.44798
2.37148
2.29211
2.22126
2.17399
2.20029
2.40653
2.93791
3.56768
4.03756
4.21497
4.19776
4.20742
4.16608
4.1091
4.07564
4.03727
3.97785
3.90211
3.82804
3.76725
3.71685
3.6696
3.62021
3.56627
3.50469
3.43208
3.35855
3.30367
3.26722
3.23649
3.20461
3.16707
3.11676
3.05042
2.98448
2.93494
2.89502
2.85404
2.80294
2.73051
2.67068
2.65329
2.6421
2.63073
2.61193
2.56749
2.48023
2.40467
2.37187
2.35313
2.33514
2.31789
2.29902
2.25698
2.27413
6.07147
5.77883
5.49951
5.23121
4.93011
4.67558
4.40297
4.19082
4.07416
4.35787
5.18809
5.78011
6.10296
6.12179
5.84494
5.51229
5.21931
5.06461
4.98138
4.91304
4.78037
4.60183
4.38416
4.23384
4.14031
4.04548
3.94179
3.82376
3.68181
3.52584
3.39977
3.30547
3.22093
3.1369
3.0526
2.96239
2.8605
2.75794
2.66754
2.58771
2.51323
2.44338
2.36937
2.29064
2.22067
2.16258
2.1241
2.16276
2.41502
2.91245
3.52121
3.83597
4.00641
4.07977
4.09239
4.04926
3.98929
3.9166
3.83254
3.76354
3.71072
3.67115
3.6343
3.58875
3.53213
3.46441
3.39118
3.3212
3.26437
3.22337
3.19197
3.16193
3.13
3.09015
3.03387
2.96442
2.90397
2.85674
2.81192
2.76217
2.69966
2.65302
2.64187
2.64013
2.62695
2.60474
2.55931
2.48125
2.3908
2.33426
2.31354
2.30268
2.30378
2.32104
2.35982
2.61333
6.14805
5.85972
5.59163
5.30818
5.00406
4.75805
4.53939
4.62844
5.14934
6.17771
6.67017
6.50982
6.39762
6.27651
6.04875
5.80098
5.53435
5.32295
5.197
5.10154
4.98465
4.8257
4.62639
4.43314
4.30489
4.19174
4.07699
3.95409
3.8218
3.67963
3.53489
3.41109
3.31458
3.22633
3.13901
3.05133
2.95843
2.85916
2.76015
2.66745
2.58144
2.50491
2.43452
2.36352
2.28821
2.20827
2.1335
2.09953
2.07615
2.13326
2.4002
2.90169
3.38392
3.79738
3.88617
3.94216
3.93145
3.87071
3.80497
3.72133
3.65017
3.63043
3.59941
3.55339
3.49427
3.43466
3.36972
3.2866
3.23113
3.2078
3.17657
3.14218
3.10508
3.06044
2.99935
2.92507
2.86272
2.82211
2.78819
2.75268
2.70643
2.65559
2.60905
2.5758
2.55105
2.52763
2.50127
2.45974
2.39003
2.31501
2.29767
2.30133
2.33983
2.48243
2.72125
3.19304
6.2131
5.91959
5.65515
5.32858
5.09577
4.93539
5.25025
6.11581
6.98969
7.56582
7.37515
6.89825
6.5575
6.40046
6.28172
6.08737
5.84221
5.60041
5.42364
5.29355
5.17279
5.02797
4.84996
4.6413
4.46448
4.32589
4.19712
4.07236
3.94818
3.8223
3.69071
3.55292
3.42306
3.30947
3.20798
3.11749
3.03122
2.94084
2.84511
2.74922
2.65628
2.56723
2.48467
2.41051
2.34505
2.27617
2.20211
2.12814
2.06818
2.03618
2.01643
2.09617
2.35509
2.87961
3.33743
3.65879
3.80308
3.84263
3.82056
3.72951
3.61803
3.53796
3.49128
3.45869
3.43291
3.4023
3.35438
3.28571
3.20759
3.1344
3.0932
3.06048
3.02559
2.98436
2.93009
2.87332
2.84273
2.82315
2.80063
2.76503
2.72297
2.65858
2.57373
2.51996
2.49383
2.47184
2.4507
2.42548
2.39581
2.34694
2.35658
2.43229
2.65547
3.04669
3.32189
3.56397
6.23598
5.99636
5.6773
5.39035
5.41986
6.08187
7.30905
7.86634
7.9995
7.92038
7.60647
7.18177
6.82719
6.6711
6.5598
6.35351
6.11164
5.88181
5.68122
5.51247
5.35587
5.1971
5.02254
4.82555
4.6344
4.47514
4.33287
4.19888
4.06806
3.93713
3.80761
3.67568
3.54306
3.41562
3.29348
3.18316
3.089
3.00192
2.91216
2.82214
2.7351
2.64562
2.55034
2.45442
2.36959
2.30943
2.25357
2.18876
2.1229
2.05678
2.00962
1.95575
1.94122
2.04228
2.36195
2.84125
3.26935
3.61776
3.68674
3.67397
3.59947
3.47991
3.42583
3.41066
3.39514
3.36764
3.32751
3.2701
3.1779
3.08129
3.03836
3.01258
2.98599
2.952
2.90952
2.85682
2.77854
2.73226
2.72057
2.71856
2.6995
2.64868
2.57213
2.49776
2.43344
2.40218
2.39285
2.39508
2.42604
2.51424
2.73225
3.04738
3.38122
3.58401
3.71276
3.76965
5.9061
6.01248
5.73806
5.99761
7.14281
8.52132
9.00253
8.63102
8.35368
8.08162
7.79302
7.472
7.17387
6.99284
6.83493
6.61153
6.35405
6.11852
5.91624
5.73221
5.54693
5.35413
5.16075
4.97173
4.792
4.63107
4.48098
4.33234
4.18426
4.03647
3.89648
3.76861
3.64572
3.52237
3.39654
3.26722
3.14361
3.0413
2.95307
2.86613
2.78764
2.7159
2.63248
2.53176
2.42211
2.32508
2.25943
2.22144
2.17887
2.12606
2.06262
1.98695
1.93002
1.86567
1.87497
2.00688
2.37075
2.89974
3.27115
3.4553
3.45898
3.40246
3.3487
3.32954
3.32345
3.30873
3.28332
3.24313
3.1653
3.05322
2.96891
2.94066
2.91988
2.89975
2.87645
2.83309
2.76449
2.69447
2.66022
2.63888
2.61359
2.58885
2.55553
2.49599
2.41669
2.38633
2.39401
2.46404
2.68996
3.0583
3.4157
3.68242
3.86308
3.88552
3.87797
3.83339
4.30525
5.42521
6.42828
8.3558
9.52451
9.86276
9.44603
8.91177
8.56602
8.30431
8.06159
7.77546
7.4867
7.27644
7.07887
6.84054
6.58046
6.33552
6.11888
5.92661
5.73683
5.53386
5.32387
5.12311
4.93959
4.77162
4.61401
4.45798
4.30234
4.14294
3.98355
3.84624
3.72884
3.6145
3.49394
3.36585
3.2314
3.10045
2.99788
2.92762
2.86676
2.79936
2.71524
2.6124
2.50167
2.38323
2.29097
2.23785
2.19326
2.13624
2.07214
2.00428
1.93818
1.87484
1.83456
1.79623
1.83007
2.01285
2.41691
2.87165
3.25873
3.29864
3.28657
3.26597
3.22029
3.17951
3.14978
3.11387
3.06408
3.00323
2.93163
2.88848
2.87243
2.8598
2.84477
2.82155
2.77465
2.687
2.59623
2.55169
2.52267
2.50065
2.48133
2.47619
2.47428
2.52016
2.67847
3.00563
3.41051
3.69937
3.90592
3.99584
3.99148
3.93139
3.86433
3.7945
1.87863
4.28886
9.28183
10.7288
10.4569
10.1496
9.66305
9.21767
8.87211
8.62699
8.38084
8.09305
7.76815
7.52471
7.31219
7.05916
6.78268
6.52846
6.29507
6.08067
5.88563
5.68838
5.47966
5.26173
5.05407
4.87535
4.71982
4.56863
4.41155
4.25668
4.0912
3.92074
3.77743
3.65761
3.54653
3.43353
3.31424
3.19371
3.07925
2.9653
2.85351
2.77024
2.71413
2.66627
2.59303
2.47624
2.34797
2.26166
2.22982
2.19562
2.1407
2.07424
1.99232
1.90429
1.83708
1.78586
1.74083
1.73973
1.8081
2.02395
2.46059
2.8291
3.14646
3.2034
3.19081
3.15042
3.10634
3.06276
3.0184
2.97391
2.91781
2.85078
2.81468
2.79674
2.77871
2.75419
2.72069
2.66079
2.56869
2.49884
2.47074
2.47128
2.48052
2.54806
2.74099
3.09375
3.46925
3.78322
3.96177
4.04057
4.04653
4.01348
3.94785
3.87304
3.82232
3.76864
1.06344
4.9044
11.8551
11.5794
10.7627
10.2774
9.86148
9.4933
9.15888
8.88989
8.61737
8.31043
8.0123
7.78252
7.58648
7.34015
7.05873
6.79504
6.55168
6.32406
6.12163
5.92518
5.71567
5.48961
5.2648
5.06845
4.90486
4.75279
4.58383
4.37881
4.20623
4.06857
3.92558
3.79715
3.68009
3.56171
3.4383
3.3126
3.18502
3.05906
2.9404
2.82738
2.72475
2.63356
2.56621
2.51798
2.44805
2.35478
2.24798
2.15914
2.0936
2.03859
2.00482
1.96904
1.90537
1.81384
1.7338
1.67921
1.64879
1.66233
1.77129
2.05003
2.48517
2.83949
3.04927
3.07526
3.05426
3.0301
3.01039
2.97937
2.92509
2.83297
2.75628
2.7248
2.70321
2.67874
2.64753
2.61034
2.55735
2.5016
2.49015
2.5236
2.69049
3.06302
3.51733
3.83362
4.02844
4.14918
4.15487
4.13433
4.07198
3.9808
3.89573
3.83874
3.82365
3.79851
1.00179
5.65851
11.5324
11.0808
10.5088
10.2071
9.90399
9.61219
9.35397
9.1183
8.86928
8.55689
8.24238
7.98829
7.77163
7.51554
7.2133
6.90881
6.64841
6.40847
6.18805
5.98344
5.77003
5.54061
5.30696
5.08553
4.88746
4.72126
4.57976
4.44409
4.28806
4.10474
3.91969
3.75908
3.62887
3.51655
3.40898
3.29747
3.17816
3.05875
2.94754
2.84415
2.75207
2.67207
2.5955
2.51425
2.43269
2.34842
2.2549
2.1648
2.10826
2.06845
2.02304
1.96354
1.89101
1.81163
1.73895
1.67836
1.63859
1.61463
1.61339
1.65246
1.80003
2.12792
2.57408
2.76808
2.8459
2.90533
2.92213
2.90887
2.86697
2.80944
2.74521
2.67629
2.62538
2.59207
2.56483
2.56159
2.55511
2.589
2.751
3.06913
3.51101
3.8784
4.08645
4.166
4.23146
4.23562
4.20121
4.11797
4.02552
3.95928
3.92371
3.90411
3.89395
3.85831
1.00003
6.21235
10.9713
10.9305
10.569
10.3547
10.1003
9.85266
9.61023
9.35152
9.0247
8.65737
8.34234
8.0814
7.85604
7.6197
7.32696
7.01237
6.76926
6.55834
6.32914
6.10646
5.88384
5.6516
5.41861
5.19682
4.99308
4.80887
4.64385
4.49151
4.33458
4.16314
3.98806
3.82906
3.69402
3.57525
3.46149
3.3457
3.22404
3.10065
2.98417
2.87951
2.78662
2.69976
2.61553
2.53005
2.44232
2.35831
2.28664
2.22357
2.1564
2.08412
2.01064
1.94251
1.87673
1.81925
1.77228
1.73404
1.68877
1.63151
1.58299
1.54347
1.54586
1.60357
1.80776
2.17219
2.5496
2.73544
2.78341
2.8167
2.80048
2.76824
2.72244
2.64042
2.56567
2.5401
2.54897
2.57971
2.735
3.07737
3.56846
3.93078
4.19542
4.25869
4.26613
4.28986
4.26799
4.21814
4.14776
4.05845
3.99472
3.96379
3.93982
3.9213
3.90642
3.86271
1
6.33227
10.6604
10.7456
10.5267
10.3717
10.1451
9.91474
9.67739
9.41011
9.1001
8.78968
8.51877
8.27533
8.03499
7.75857
7.43564
7.1147
6.84885
6.62594
6.39458
6.16504
5.93687
5.69928
5.46326
5.24809
5.05461
4.87375
4.70169
4.53652
4.37062
4.20089
4.03288
3.87548
3.73239
3.60258
3.48174
3.36558
3.25024
3.13591
3.02311
2.91132
2.80276
2.70122
2.61042
2.52957
2.45964
2.39678
2.33112
2.25606
2.16495
2.06145
1.97105
1.91448
1.88249
1.85803
1.82736
1.77887
1.71048
1.63015
1.55887
1.50996
1.49087
1.48531
1.50982
1.62826
1.89135
2.24977
2.51909
2.69092
2.7418
2.74101
2.70104
2.63921
2.57757
2.57092
2.65882
2.95128
3.44627
3.9209
4.24993
4.33087
4.40077
4.38253
4.30979
4.2557
4.20827
4.15672
4.10399
4.05669
4.0293
4.00452
3.97714
3.94624
3.91089
3.83848
1
6.31005
10.5964
10.6666
10.458
10.3308
10.1612
9.97364
9.75198
9.48245
9.18033
8.87875
8.60207
8.34107
8.06898
7.77169
7.46743
7.18288
6.93792
6.72637
6.5005
6.26319
6.01758
5.76294
5.52043
5.30477
5.11098
4.9333
4.76371
4.59207
4.41296
4.23215
4.06003
3.90327
3.76115
3.63134
3.50943
3.39046
3.27041
3.15107
3.03588
2.92397
2.81545
2.71528
2.62636
2.54724
2.47618
2.40706
2.3332
2.25256
2.16461
2.06862
1.98824
1.94518
1.9098
1.872
1.82855
1.7731
1.7058
1.63673
1.57449
1.52824
1.50046
1.47811
1.46818
1.4614
1.4982
1.63808
1.93168
2.27583
2.48731
2.5999
2.64031
2.655
2.74965
2.97768
3.37735
3.86416
4.17629
4.38119
4.49236
4.47565
4.43334
4.34762
4.25598
4.19347
4.15472
4.11938
4.09509
4.0709
4.05257
4.03098
3.99986
3.96142
3.91467
3.82812
1
6.23617
10.5968
10.6067
10.4348
10.3231
10.1566
9.95388
9.71752
9.45347
9.18462
8.91841
8.64749
8.36499
8.07251
7.78349
7.5082
7.25343
7.01615
6.77332
6.50399
6.23281
5.97422
5.75016
5.54772
5.3551
5.16535
4.9776
4.78554
4.58978
4.4023
4.23258
4.07949
3.93803
3.80241
3.66686
3.5273
3.38851
3.25962
3.14512
3.04185
2.94209
2.84195
2.73956
2.6349
2.5383
2.45869
2.39033
2.3235
2.25202
2.17718
2.10999
2.04162
1.9685
1.90764
1.85765
1.81108
1.76041
1.70252
1.65021
1.61458
1.57661
1.53601
1.49663
1.46003
1.42819
1.39276
1.3953
1.45503
1.67539
2.05856
2.36605
2.56815
2.92953
3.39379
3.77936
4.07187
4.32284
4.41215
4.42042
4.40417
4.39553
4.35565
4.30341
4.24915
4.20891
4.17146
4.14025
4.13211
4.1084
4.07078
4.03429
3.9937
3.93887
3.88103
3.81602
1
6.18865
10.603
10.5863
10.4207
10.3024
10.1375
9.94748
9.73084
9.48818
9.2306
8.95939
8.67518
8.38722
8.10703
7.83931
7.58191
7.32778
7.06486
6.78952
6.51404
6.24638
6.00598
5.80531
5.62636
5.42157
5.21326
4.9987
4.78169
4.57624
4.395
4.23778
4.09658
3.96223
3.82517
3.67898
3.52513
3.37677
3.24842
3.14284
3.05105
2.96107
2.86296
2.74964
2.62922
2.52236
2.4396
2.37463
2.31793
2.26436
2.2058
2.12702
2.03696
1.95752
1.89363
1.84081
1.79473
1.75223
1.70936
1.66212
1.61276
1.57074
1.52924
1.49077
1.45264
1.41287
1.37148
1.34878
1.33449
1.36904
1.54613
2.00529
2.78826
3.5617
4.18143
4.76104
4.9534
4.84596
4.66076
4.45471
4.37902
4.33138
4.29456
4.25756
4.21731
4.19284
4.17178
4.16011
4.17074
4.15286
4.10369
4.0501
3.99087
3.92174
3.86837
3.82155
)
;

boundaryField
{
    inlet
    {
        type            fixedValue;
        value           uniform 1;
    }
    outlet
    {
        type            zeroGradient;
    }
    bottom
    {
        type            symmetryPlane;
    }
    top
    {
        type            symmetryPlane;
    }
    obstacle
    {
        type            zeroGradient;
    }
    defaultFaces
    {
        type            empty;
    }
}


// ************************************************************************* //
