/*--------------------------------*- C++ -*----------------------------------*\
  =========                 |
  \\      /  F ield         | OpenFOAM: The Open Source CFD Toolbox
   \\    /   O peration     | Website:  https://openfoam.org
    \\  /    A nd           | Version:  7
     \\/     M anipulation  |
\*---------------------------------------------------------------------------*/
FoamFile
{
    version     2.0;
    format      ascii;
    class       volVectorField;
    location    "1.6";
    object      U;
}
// * * * * * * * * * * * * * * * * * * * * * * * * * * * * * * * * * * * * * //

dimensions      [0 1 -1 0 0 0 0];

internalField   nonuniform List<vector> 
4032
(
(3 3.91096e-18 0)
(3 5.76194e-17 0)
(3 -5.79746e-17 0)
(3 -1.34624e-16 0)
(3 -5.41419e-17 0)
(3 -2.70929e-16 0)
(3 -5.37084e-16 0)
(3 -1.26284e-16 0)
(3 4.26277e-16 0)
(3 8.21023e-16 0)
(3 3.74207e-16 0)
(3 -2.59928e-16 0)
(1.93569 0.012572 0)
(0.772379 0.0158334 0)
(0.656785 0.0269944 0)
(0.59704 0.0264659 0)
(0.536708 0.0262015 0)
(0.477459 0.0280476 0)
(0.414289 0.0311445 0)
(0.347262 0.0336025 0)
(0.277477 0.0346288 0)
(0.201432 0.0365316 0)
(0.125604 0.0383582 0)
(0.0465644 0.0431797 0)
(3 3.95372e-17 0)
(3 2.14458e-17 0)
(3 -1.55865e-16 0)
(3 -6.09034e-16 0)
(3 -2.82571e-16 0)
(3 -2.97508e-16 0)
(3 -2.77435e-16 0)
(3 -1.49522e-16 0)
(3 1.39434e-16 0)
(3 2.80143e-16 0)
(3 6.35743e-16 0)
(3 -6.59469e-17 0)
(1.96708 0.0627411 0)
(0.765127 0.0708871 0)
(0.641247 0.0836647 0)
(0.581695 0.0802421 0)
(0.520826 0.079276 0)
(0.460587 0.0845094 0)
(0.397047 0.0931395 0)
(0.330895 0.100529 0)
(0.26284 0.104086 0)
(0.190641 0.11123 0)
(0.118052 0.117864 0)
(0.0439963 0.13184 0)
(3 1.47451e-17 0)
(3 -1.65191e-16 0)
(3 -7.98732e-16 0)
(3 -1.26301e-15 0)
(3 -1.69508e-15 0)
(3 -1.61973e-15 0)
(3 -8.29369e-16 0)
(3 -6.47504e-16 0)
(3 -7.75853e-16 0)
(3 -7.12874e-16 0)
(3 -7.15094e-16 0)
(3 -2.18806e-15 0)
(2.08654 0.117514 0)
(0.788159 0.131522 0)
(0.651769 0.140599 0)
(0.590742 0.136038 0)
(0.525361 0.135559 0)
(0.460692 0.144466 0)
(0.393471 0.157373 0)
(0.325306 0.167947 0)
(0.256261 0.172079 0)
(0.185589 0.182597 0)
(0.113484 0.192273 0)
(0.0432174 0.213784 0)
(3 -2.27802e-16 0)
(3 -2.8425e-16 0)
(3 -2.45905e-16 0)
(3 -6.74056e-16 0)
(3 -9.33937e-16 0)
(3 -9.17891e-16 0)
(3 -7.52184e-16 0)
(3 -3.74691e-16 0)
(3 -2.14391e-16 0)
(3 -7.1444e-16 0)
(3 -2.28083e-15 0)
(3 -2.72439e-15 0)
(2.28458 0.155594 0)
(0.832 0.19093 0)
(0.671306 0.196763 0)
(0.60762 0.192841 0)
(0.537225 0.194958 0)
(0.469707 0.207794 0)
(0.401909 0.224488 0)
(0.334348 0.238288 0)
(0.264764 0.243193 0)
(0.193497 0.256948 0)
(0.118676 0.269394 0)
(0.0449537 0.296618 0)
(3 -1.14406e-16 0)
(3 -2.31415e-17 0)
(3 4.92711e-16 0)
(3 6.91669e-16 0)
(3 5.22949e-16 0)
(3 4.4603e-16 0)
(3 7.58994e-17 0)
(3 1.52013e-16 0)
(3 4.78276e-16 0)
(3 -5.99582e-16 0)
(3 -1.05841e-15 0)
(3 -7.93457e-16 0)
(2.53126 0.182214 0)
(0.886646 0.258836 0)
(0.691728 0.254721 0)
(0.634832 0.254919 0)
(0.568401 0.258419 0)
(0.50349 0.272647 0)
(0.43782 0.290933 0)
(0.372588 0.307838 0)
(0.302594 0.314339 0)
(0.229155 0.33275 0)
(0.143253 0.352821 0)
(0.0578742 0.390574 0)
(3 4.0221e-17 0)
(3 7.23662e-17 0)
(3 1.51966e-17 0)
(3 6.60376e-17 0)
(3 3.6016e-16 0)
(3 1.37895e-16 0)
(3 -3.33771e-16 0)
(3 -6.26006e-16 0)
(3 -4.41458e-16 0)
(3 -5.05638e-16 0)
(3 -6.2957e-16 0)
(3 -1.0253e-15 0)
(2.83701 0.151647 0)
(0.994388 0.31854 0)
(0.7465 0.292981 0)
(0.699037 0.295824 0)
(0.635128 0.307303 0)
(0.570886 0.327856 0)
(0.50431 0.350936 0)
(0.437902 0.37437 0)
(0.361508 0.389387 0)
(0.275844 0.423049 0)
(0.174838 0.462012 0)
(0.061066 0.51082 0)
(3 -5.4012e-17 0)
(3 -2.35513e-17 0)
(3 -3.2301e-16 0)
(3 -6.7985e-16 0)
(3 -4.93826e-16 0)
(3 -1.99901e-16 0)
(3 -2.50826e-16 0)
(3 -4.50738e-16 0)
(3 -1.18481e-15 0)
(3 -1.04156e-15 0)
(3 -8.9846e-16 0)
(3 -1.2049e-15 0)
(3.02373 0.0223011 0)
(1.13448 0.341543 0)
(0.791129 0.322899 0)
(0.749708 0.345658 0)
(0.693546 0.363178 0)
(0.637663 0.386121 0)
(0.576669 0.411254 0)
(0.513741 0.442623 0)
(0.435106 0.473013 0)
(0.353649 0.520048 0)
(0.251927 0.581098 0)
(0.108836 0.659798 0)
(3 1.31651e-16 0)
(3 4.68751e-16 0)
(3 4.37255e-16 0)
(3 5.54499e-16 0)
(3 4.35804e-16 0)
(3 5.57472e-16 0)
(3 6.54873e-16 0)
(3 5.56823e-16 0)
(3 3.88537e-16 0)
(3 2.35831e-16 0)
(3 2.96432e-16 0)
(3 1.01518e-16 0)
(3.00289 0.000390934 0)
(1.30935 0.354662 0)
(0.795147 0.37462 0)
(0.739046 0.398347 0)
(0.687937 0.418364 0)
(0.64139 0.445389 0)
(0.594895 0.477819 0)
(0.547712 0.517902 0)
(0.48908 0.56066 0)
(0.414916 0.632661 0)
(0.284732 0.753605 0)
(0.157247 0.931751 0)
(3 7.40793e-17 0)
(3 9.92373e-17 0)
(3 -8.24158e-18 0)
(3 1.98669e-16 0)
(3 -2.0332e-16 0)
(3 -3.33117e-16 0)
(3 1.67176e-16 0)
(3 5.08419e-16 0)
(3 8.4382e-16 0)
(3 3.74447e-16 0)
(3 2.21125e-16 0)
(3 -1.08559e-16 0)
(3.00001 -1.93774e-07 0)
(1.63734 0.418646 0)
(0.810944 0.439429 0)
(0.731892 0.445915 0)
(0.693204 0.465928 0)
(0.656524 0.491169 0)
(0.621161 0.525553 0)
(0.588414 0.572323 0)
(0.54815 0.634642 0)
(0.507639 0.748993 0)
(0.473029 0.924986 0)
(0.584369 1.21422 0)
(3 -8.52217e-17 0)
(3 -5.25858e-16 0)
(3 -1.03303e-15 0)
(3 -1.63224e-15 0)
(3 -1.88203e-15 0)
(3 -2.11491e-15 0)
(3 -1.94869e-15 0)
(3 -1.72699e-15 0)
(3 -1.50866e-15 0)
(3 -1.51352e-15 0)
(3 -9.67282e-16 0)
(3 8.2404e-17 0)
(3 -3.12729e-07 0)
(2.21076 0.438323 0)
(0.905809 0.537513 0)
(0.785482 0.486432 0)
(0.748511 0.500373 0)
(0.709675 0.529685 0)
(0.673172 0.567146 0)
(0.647536 0.618952 0)
(0.630054 0.694706 0)
(0.627615 0.820082 0)
(0.689592 0.96986 0)
(0.976628 1.14802 0)
(3 -6.33496e-17 0)
(3 -2.13293e-16 0)
(3 -1.91566e-16 0)
(3 -2.11832e-16 0)
(3 -7.78418e-16 0)
(3 -1.66064e-15 0)
(3 -1.98593e-15 0)
(3 -1.90455e-15 0)
(3 -1.7226e-15 0)
(3 -7.45441e-16 0)
(3 -4.19602e-16 0)
(3 -3.42752e-16 0)
(3 -7.71139e-08 0)
(2.95624 0.187949 0)
(1.13585 0.57136 0)
(0.890544 0.516704 0)
(0.843934 0.536356 0)
(0.799073 0.568583 0)
(0.756346 0.606363 0)
(0.728015 0.656796 0)
(0.725612 0.731071 0)
(0.751519 0.841357 0)
(0.87296 0.964641 0)
(1.1876 1.07049 0)
(3 -1.69578e-16 0)
(3 -1.63207e-16 0)
(3 1.64498e-16 0)
(3 2.93727e-16 0)
(3 4.71718e-17 0)
(3 -1.5815e-16 0)
(3 -5.03072e-16 0)
(3 -8.60453e-16 0)
(3 -8.05059e-16 0)
(3 2.63516e-16 0)
(3 1.80655e-16 0)
(3 -3.4951e-16 0)
(3 -7.46698e-09 0)
(3.04499 0.00807091 0)
(1.39273 0.550618 0)
(0.918993 0.602359 0)
(0.856656 0.605318 0)
(0.831025 0.632166 0)
(0.813625 0.666972 0)
(0.805507 0.706165 0)
(0.818503 0.764014 0)
(0.868434 0.844403 0)
(1.01054 0.941422 0)
(1.27999 1.00604 0)
(3 8.49207e-17 0)
(3 -1.57493e-17 0)
(3 -3.40926e-16 0)
(3 -2.48819e-16 0)
(3 6.61384e-16 0)
(3 6.81505e-16 0)
(3 3.75821e-16 0)
(3 -2.96966e-16 0)
(3 -4.19378e-16 0)
(3 -4.32773e-16 0)
(3 -6.71467e-16 0)
(3 -1.09471e-15 0)
(3 -1.85712e-10 0)
(3.00102 -4.27743e-06 0)
(1.94329 0.565126 0)
(0.972543 0.676054 0)
(0.9027 0.643452 0)
(0.887683 0.659143 0)
(0.884922 0.690435 0)
(0.892569 0.72811 0)
(0.914624 0.778574 0)
(0.977689 0.842047 0)
(1.1136 0.910315 0)
(1.32636 0.949882 0)
(3 1.96052e-16 0)
(3 -9.94287e-18 0)
(3 -8.46321e-17 0)
(3 -1.32294e-16 0)
(3 3.66437e-16 0)
(3 4.14172e-16 0)
(3 7.54097e-16 0)
(3 7.06733e-16 0)
(3 5.5804e-18 0)
(3 -1.07023e-15 0)
(3 -7.48355e-16 0)
(3 -1.343e-15 0)
(3 -6.17818e-13 0)
(3.00001 -4.47297e-06 0)
(2.85823 0.27077 0)
(1.17903 0.682713 0)
(0.993091 0.656167 0)
(0.977332 0.675222 0)
(0.971787 0.712665 0)
(0.979705 0.754527 0)
(1.00644 0.799898 0)
(1.07324 0.846967 0)
(1.19312 0.893746 0)
(1.35926 0.917318 0)
(3 -9.44155e-17 0)
(3 -1.29356e-16 0)
(3 9.29552e-17 0)
(3 -1.58919e-16 0)
(3 -3.18472e-16 0)
(3 -4.41037e-16 0)
(3 -7.78223e-17 0)
(3 -5.47052e-17 0)
(3 -2.05975e-16 0)
(3 -6.47111e-16 0)
(3 -7.20848e-16 0)
(3 -7.83938e-16 0)
(3 -2.17219e-15 0)
(3 -1.28469e-06 0)
(3.0562 0.0140642 0)
(1.47248 0.645669 0)
(1.02905 0.726301 0)
(1.01873 0.732465 0)
(1.01661 0.757977 0)
(1.03795 0.785511 0)
(1.07587 0.813666 0)
(1.14499 0.847319 0)
(1.24831 0.874405 0)
(1.37898 0.885658 0)
(3 -2.65836e-16 0)
(3 -1.47435e-16 0)
(3 2.05878e-16 0)
(3 4.09352e-16 0)
(3 4.26506e-17 0)
(3 -2.42009e-16 0)
(3 -1.09408e-15 0)
(3 -1.14771e-15 0)
(3 -4.7558e-16 0)
(3 3.34839e-16 0)
(3 9.53503e-17 0)
(3 -6.38512e-16 0)
(3 -6.60993e-16 0)
(3 -1.21426e-07 0)
(3.00152 6.67571e-05 0)
(2.17688 0.571075 0)
(1.12479 0.781864 0)
(1.06048 0.776307 0)
(1.06481 0.778609 0)
(1.08885 0.793956 0)
(1.1303 0.818845 0)
(1.19749 0.84662 0)
(1.28812 0.867361 0)
(1.39791 0.873389 0)
(3 1.20993e-16 0)
(3 1.29605e-16 0)
(3 -4.52982e-17 0)
(3 -1.03038e-16 0)
(3 -1.62463e-16 0)
(3 -2.61584e-16 0)
(3 1.62129e-17 0)
(3 -1.84477e-16 0)
(3 -2.78097e-16 0)
(3 -2.37825e-16 0)
(3 -4.34816e-16 0)
(3 -5.88803e-16 0)
(3 1.97151e-16 0)
(3 -2.08838e-09 0)
(3 -1.73191e-07 0)
(3.036 0.124859 0)
(1.4395 0.773383 0)
(1.13401 0.781101 0)
(1.13995 0.784898 0)
(1.15127 0.803504 0)
(1.18497 0.820903 0)
(1.24319 0.838792 0)
(1.3203 0.854037 0)
(1.41619 0.858056 0)
(3 2.48189e-16 0)
(3 4.88833e-16 0)
(3 5.66297e-17 0)
(3 -3.50782e-16 0)
(3 -3.69145e-16 0)
(3 -6.47721e-16 0)
(3 5.74927e-17 0)
(3 7.01086e-16 0)
(3 2.42954e-16 0)
(3 -1.62584e-16 0)
(3 -5.86165e-16 0)
(3 1.20417e-16 0)
(3 1.19302e-15 0)
(3 -3.49903e-12 0)
(3 -4.3026e-07 0)
(3.01627 0.00215853 0)
(1.99313 0.698688 0)
(1.18307 0.843143 0)
(1.17051 0.839013 0)
(1.19709 0.83961 0)
(1.23016 0.846361 0)
(1.28199 0.855626 0)
(1.34958 0.863124 0)
(1.43289 0.862162 0)
(3 -4.63038e-17 0)
(3 1.32506e-16 0)
(3 3.26836e-16 0)
(3 -3.00321e-17 0)
(3 -4.62581e-16 0)
(3 -5.53018e-16 0)
(3 -9.41733e-16 0)
(3 -8.38569e-16 0)
(3 -7.96049e-16 0)
(3 -7.8094e-16 0)
(3 -7.52128e-16 0)
(3 -3.71468e-16 0)
(3 3.33689e-16 0)
(3 -2.24923e-15 0)
(3 -1.23175e-07 0)
(3.00011 2.0591e-05 0)
(2.96103 0.225317 0)
(1.46594 0.842696 0)
(1.22154 0.830997 0)
(1.25608 0.838959 0)
(1.28491 0.849036 0)
(1.33165 0.855069 0)
(1.38908 0.858352 0)
(1.46025 0.855115 0)
(3 -1.6854e-16 0)
(3 -2.94512e-16 0)
(3 -2.11358e-16 0)
(3 -3.73792e-16 0)
(3 -3.68313e-16 0)
(3 -1.40735e-16 0)
(3 -5.63608e-16 0)
(3 -1.6145e-15 0)
(3 -1.54048e-15 0)
(3 -1.9085e-15 0)
(3 -1.12687e-15 0)
(3 -3.69648e-16 0)
(3 -3.82778e-16 0)
(3 4.05819e-16 0)
(3 -5.64448e-09 0)
(3 -6.75621e-07 0)
(3.02536 0.00686544 0)
(2.02219 0.735654 0)
(1.27808 0.885748 0)
(1.27598 0.882527 0)
(1.31465 0.883576 0)
(1.3595 0.88494 0)
(1.41344 0.882492 0)
(1.47739 0.874563 0)
(3 8.02279e-17 0)
(3 -1.029e-16 0)
(3 -1.50074e-16 0)
(3 7.31832e-17 0)
(3 8.30251e-16 0)
(3 7.94392e-16 0)
(3 4.86921e-16 0)
(3 3.75441e-17 0)
(3 -2.59119e-16 0)
(3 -2.99863e-16 0)
(3 1.57119e-16 0)
(3 1.48393e-16 0)
(3 -1.72054e-16 0)
(3 1.36162e-16 0)
(3 -3.23945e-11 0)
(3 -1.54851e-07 0)
(3.00026 0.000128891 0)
(2.94019 0.23324 0)
(1.59098 0.888341 0)
(1.31436 0.879134 0)
(1.36 0.87923 0)
(1.39622 0.881347 0)
(1.44551 0.878028 0)
(1.50343 0.870497 0)
(3 2.43716e-16 0)
(3 5.54727e-16 0)
(3 4.47595e-16 0)
(3 8.16231e-16 0)
(3 1.00209e-15 0)
(3 8.1451e-16 0)
(3 1.09369e-16 0)
(3 3.81611e-16 0)
(3 5.23272e-16 0)
(3 7.04683e-16 0)
(3 7.02572e-16 0)
(3 3.83116e-16 0)
(3 -4.46159e-16 0)
(3 -8.88791e-16 0)
(3 -1.87547e-14 0)
(3 -1.27361e-08 0)
(3 1.02026e-07 0)
(3.01723 0.0100968 0)
(2.30321 0.698095 0)
(1.40311 0.928243 0)
(1.38621 0.919105 0)
(1.42484 0.90775 0)
(1.46637 0.8988 0)
(1.51735 0.889382 0)
(3 -6.80876e-17 0)
(3 1.27901e-16 0)
(3 4.04786e-16 0)
(3 7.23703e-16 0)
(3 6.85738e-17 0)
(3 -1.20401e-16 0)
(3 -3.8038e-16 0)
(3 4.59022e-16 0)
(3 6.42537e-16 0)
(3 9.17823e-16 0)
(3 8.11683e-16 0)
(3 -2.49957e-16 0)
(3 -9.25973e-16 0)
(3 -9.26598e-16 0)
(3 -2.77716e-16 0)
(3 -3.7473e-10 0)
(3 -3.47472e-10 0)
(3.00014 0.000203955 0)
(3.00622 0.137842 0)
(1.81239 0.86081 0)
(1.42482 0.92691 0)
(1.47072 0.913563 0)
(1.50322 0.904859 0)
(1.54524 0.895309 0)
(3 -1.05065e-16 0)
(3 -3.2292e-16 0)
(3 1.30911e-16 0)
(3 -2.89942e-16 0)
(3 -1.13082e-15 0)
(3 -1.54252e-15 0)
(3 -8.25491e-16 0)
(3 -3.09593e-16 0)
(3 3.29316e-16 0)
(3 7.09028e-16 0)
(3 2.97213e-16 0)
(3 -1.0488e-17 0)
(3 -3.24536e-17 0)
(3 1.27118e-16 0)
(3 -2.82277e-18 0)
(3 -2.16186e-12 0)
(3 -9.55933e-11 0)
(3 2.55716e-07 0)
(3.00542 0.00657007 0)
(2.64144 0.494649 0)
(1.61074 0.958531 0)
(1.48341 0.938769 0)
(1.53207 0.931042 0)
(1.56702 0.922094 0)
(3 1.06473e-17 0)
(3 1.19786e-16 0)
(3 1.37508e-16 0)
(3 -3.43894e-16 0)
(3 -5.5811e-16 0)
(3 -8.76529e-16 0)
(3 -5.08667e-16 0)
(3 -7.02356e-16 0)
(3 -6.69181e-16 0)
(3 -8.04869e-16 0)
(3 -7.97203e-16 0)
(3 4.07382e-16 0)
(3 7.8382e-16 0)
(3 -7.63208e-17 0)
(3 -7.29802e-16 0)
(3 -4.36987e-15 0)
(3 -9.17587e-12 0)
(3 4.60047e-11 0)
(3.00001 6.75749e-05 0)
(3.01546 0.0486035 0)
(2.18293 0.774002 0)
(1.55673 0.959553 0)
(1.55723 0.954494 0)
(1.59271 0.937489 0)
(3 4.26757e-17 0)
(3 5.36516e-16 0)
(3 3.16709e-16 0)
(3 -1.58625e-16 0)
(3 -2.49636e-16 0)
(3 -3.43824e-16 0)
(3 -4.99501e-16 0)
(3 -8.72629e-16 0)
(3 -1.39075e-15 0)
(3 -2.04307e-15 0)
(3 -1.53557e-15 0)
(3 -5.07581e-16 0)
(3 5.5209e-17 0)
(3 -2.65857e-16 0)
(3 -9.68041e-16 0)
(3 -1.63042e-15 0)
(3 -3.27105e-13 0)
(3 -2.84388e-13 0)
(3 5.43546e-08 0)
(3.00057 0.00190745 0)
(2.91354 0.227727 0)
(1.90764 0.881293 0)
(1.5997 0.964286 0)
(1.62233 0.951939 0)
(3 1.93559e-17 0)
(3 1.05865e-16 0)
(3 -5.15462e-17 0)
(3 2.49142e-16 0)
(3 3.65651e-16 0)
(3 6.87615e-16 0)
(3 4.8991e-16 0)
(3 1.36951e-16 0)
(3 -5.4593e-17 0)
(3 -4.0158e-16 0)
(3 -8.26205e-17 0)
(3 2.25174e-16 0)
(3 6.89084e-16 0)
(3 7.12648e-16 0)
(3 5.25562e-16 0)
(3 -3.89591e-16 0)
(3 -2.56975e-15 0)
(3 -7.46549e-14 0)
(3 1.37182e-11 0)
(3 7.15902e-06 0)
(3.00303 0.0145653 0)
(2.628 0.482455 0)
(1.80021 0.943751 0)
(1.64092 0.974 0)
(3 -6.87016e-18 0)
(3 -6.59146e-16 0)
(3 -9.61764e-16 0)
(3 -3.36204e-16 0)
(3 1.55071e-16 0)
(3 7.49095e-16 0)
(3 9.71e-16 0)
(3 1.02947e-15 0)
(3 8.35664e-16 0)
(3 8.31816e-16 0)
(3 5.74235e-16 0)
(3 8.92053e-18 0)
(3 -1.89493e-16 0)
(3 2.82399e-16 0)
(3 3.62989e-16 0)
(3 -5.52055e-17 0)
(3 -8.16842e-17 0)
(3 -7.29685e-15 0)
(3 -2.44155e-15 0)
(3 4.15659e-09 0)
(2.99998 0.000233122 0)
(2.99243 0.0532642 0)
(2.36467 0.67749 0)
(1.75088 0.982111 0)
(3 -2.2057e-17 0)
(3 -2.03785e-16 0)
(3 -7.19841e-16 0)
(3 -8.15786e-16 0)
(3 -6.63931e-16 0)
(3 -3.67136e-16 0)
(3 3.72191e-17 0)
(3 3.83494e-16 0)
(3 7.03412e-17 0)
(3 4.81408e-17 0)
(3 -1.46428e-16 0)
(3 -9.63467e-16 0)
(3 -1.76488e-15 0)
(3 -1.73946e-15 0)
(3 -1.20058e-15 0)
(3 -4.21323e-16 0)
(3 -1.45739e-17 0)
(3 8.03628e-16 0)
(3 -4.76479e-16 0)
(3 9.04486e-13 0)
(3 3.38802e-07 0)
(2.99993 0.00199391 0)
(2.93422 0.147306 0)
(2.18954 0.797052 0)
(3 1.88329e-17 0)
(3 3.06471e-16 0)
(3 1.96483e-16 0)
(3 -6.67059e-16 0)
(3 -8.45971e-16 0)
(3 -7.60907e-16 0)
(3 -1.13738e-16 0)
(3 3.97371e-16 0)
(3 4.87953e-16 0)
(3 3.54782e-16 0)
(3 -7.6564e-16 0)
(3 -1.92174e-15 0)
(3 -1.82965e-15 0)
(3 -1.37679e-15 0)
(3 -9.65575e-16 0)
(3 -4.46749e-16 0)
(3 6.73981e-16 0)
(3 7.75157e-16 0)
(3 3.00318e-17 0)
(3 -1.00181e-15 0)
(3 1.78373e-10 0)
(3 7.31437e-06 0)
(2.99898 0.00828664 0)
(2.82312 0.293071 0)
(3 -2.58329e-17 0)
(3 3.72262e-17 0)
(3 1.94993e-16 0)
(3 3.39956e-16 0)
(3 4.32995e-16 0)
(3 2.09969e-16 0)
(3 2.13613e-16 0)
(3 2.53131e-16 0)
(3 7.33048e-16 0)
(3 5.59222e-16 0)
(3 4.99858e-16 0)
(3 -7.50175e-17 0)
(3 -2.28541e-16 0)
(3 -1.2057e-16 0)
(3 3.34209e-16 0)
(3 8.33797e-16 0)
(3 1.06316e-15 0)
(3 8.63223e-16 0)
(3 6.09659e-16 0)
(3 -9.23633e-16 0)
(3 1.68927e-14 0)
(3 6.28213e-09 0)
(2.99998 7.39291e-05 0)
(2.99462 0.0233116 0)
(3 1.62527e-17 0)
(3 -4.9123e-16 0)
(3 -5.41808e-16 0)
(3 1.77752e-16 0)
(3 8.40359e-16 0)
(3 8.13146e-16 0)
(3 2.79418e-16 0)
(3 6.95802e-17 0)
(3 6.95555e-16 0)
(3 1.08574e-15 0)
(3 1.9718e-15 0)
(3 2.53513e-15 0)
(3 1.72937e-15 0)
(3 1.27859e-15 0)
(3 1.0837e-15 0)
(3 1.66503e-15 0)
(3 1.7046e-15 0)
(3 2.18589e-15 0)
(3 2.44838e-15 0)
(3 1.21752e-15 0)
(3 2.5556e-16 0)
(3 1.21048e-12 0)
(3 9.82897e-08 0)
(2.99989 0.000435953 0)
(3 8.46961e-17 0)
(3 -1.11597e-17 0)
(3 -5.3174e-16 0)
(3 -7.53121e-16 0)
(3 -7.57067e-16 0)
(3 -4.5962e-16 0)
(3 -5.23057e-16 0)
(3 -3.22808e-16 0)
(3 -1.70181e-16 0)
(3 2.50566e-16 0)
(3 1.18382e-15 0)
(3 1.72278e-15 0)
(3 1.68994e-15 0)
(3 1.2359e-15 0)
(3 8.926e-16 0)
(3 1.62803e-15 0)
(3 1.93537e-15 0)
(3 1.8049e-15 0)
(3 1.35625e-15 0)
(3 6.56891e-16 0)
(3 -4.6085e-16 0)
(3 -5.26693e-16 0)
(3 3.9136e-11 0)
(3 9.06595e-07 0)
(3 2.26813e-16 0)
(3 -5.08766e-17 0)
(3 -1.10695e-16 0)
(3 -4.04055e-16 0)
(3 -5.77618e-16 0)
(3 -4.26173e-16 0)
(3 5.74582e-17 0)
(3 -4.7545e-17 0)
(3 -6.71843e-16 0)
(3 -2.22185e-16 0)
(3 -2.3869e-16 0)
(3 -4.91069e-16 0)
(3 -2.32283e-16 0)
(3 -2.72449e-17 0)
(3 8.83328e-17 0)
(3 4.80355e-16 0)
(3 7.53704e-16 0)
(3 6.6372e-16 0)
(3 -3.73435e-16 0)
(3 -1.09316e-15 0)
(3 -1.31113e-15 0)
(3 -1.49893e-15 0)
(3 1.7419e-15 0)
(3 6.33325e-10 0)
(3 6.2126e-17 0)
(3 -7.11283e-17 0)
(3 -6.16935e-17 0)
(3 -2.48971e-16 0)
(3 -6.16215e-16 0)
(3 -3.34803e-16 0)
(3 2.97546e-16 0)
(3 2.23438e-16 0)
(3 -2.12201e-16 0)
(3 -3.67996e-16 0)
(3 -8.35985e-16 0)
(3 -1.56104e-15 0)
(3 -9.77074e-16 0)
(3 -7.49638e-16 0)
(3 -3.72717e-16 0)
(3 -1.4956e-16 0)
(3 3.62501e-17 0)
(3 1.74226e-16 0)
(3 -6.1132e-16 0)
(3 -5.82361e-16 0)
(3 3.13597e-17 0)
(3 -6.21635e-17 0)
(3 -8.05276e-16 0)
(3 5.0587e-14 0)
(3 9.17399e-17 0)
(3 1.39971e-16 0)
(3 3.74717e-16 0)
(3 4.25193e-16 0)
(3 2.77414e-16 0)
(3 2.37356e-17 0)
(3 -2.05042e-16 0)
(3 -4.06046e-16 0)
(3 -1.78844e-16 0)
(3 -1.36891e-16 0)
(3 4.77334e-18 0)
(3 3.56072e-16 0)
(3 2.88546e-16 0)
(3 -7.12305e-18 0)
(3 -2.59324e-16 0)
(3 -1.74363e-16 0)
(3 1.60353e-16 0)
(3 -1.76401e-16 0)
(3 -1.12426e-16 0)
(3 1.04174e-16 0)
(3 3.33872e-17 0)
(3 1.8002e-16 0)
(3 -1.98152e-16 0)
(3 -1.09562e-15 0)
(3 -7.12188e-17 0)
(3 -2.53284e-17 0)
(3 4.40683e-16 0)
(3 1.04107e-15 0)
(3 1.07908e-15 0)
(3 4.72753e-16 0)
(3 -1.4393e-16 0)
(3 -7.14642e-17 0)
(3 -8.29035e-18 0)
(3 -9.21665e-17 0)
(3 -1.7529e-16 0)
(3 7.27746e-16 0)
(3 4.59382e-16 0)
(3 6.36436e-16 0)
(3 3.17492e-16 0)
(3 2.55267e-16 0)
(3 1.10447e-16 0)
(3 3.02594e-16 0)
(3 8.11977e-16 0)
(3 1.31485e-15 0)
(3 1.18107e-15 0)
(3 6.45937e-16 0)
(3 4.21971e-16 0)
(3 7.93025e-16 0)
(3 -4.0857e-16 0)
(3 -1.51161e-16 0)
(3 4.89241e-16 0)
(3 7.71745e-16 0)
(3 3.34575e-16 0)
(3 -8.07575e-17 0)
(3 -1.03077e-16 0)
(3 -4.33689e-16 0)
(3 -1.07057e-15 0)
(3 -1.1531e-15 0)
(3 -1.33357e-15 0)
(3 -7.72676e-16 0)
(3 2.20947e-16 0)
(3 6.40221e-16 0)
(3 1.52086e-15 0)
(3 9.57527e-16 0)
(3 3.6508e-16 0)
(3 5.69939e-16 0)
(3 8.44397e-16 0)
(3 1.81387e-15 0)
(3 2.14347e-15 0)
(3 1.77374e-15 0)
(3 3.86796e-16 0)
(3 -5.20843e-16 0)
(3 -3.37289e-16 0)
(3 -2.99275e-16 0)
(3 3.34364e-17 0)
(3 2.67206e-16 0)
(3 2.73777e-16 0)
(3 -2.61032e-16 0)
(3 -4.20138e-16 0)
(3 -8.49751e-16 0)
(3 -1.70274e-15 0)
(3 -2.25478e-15 0)
(3 -2.65756e-15 0)
(3 -2.00302e-15 0)
(3 -5.58465e-16 0)
(3 5.34089e-16 0)
(3 6.59001e-17 0)
(3 -2.45977e-16 0)
(3 -5.45119e-16 0)
(3 -8.77304e-16 0)
(3 8.9617e-16 0)
(3 1.9914e-15 0)
(3 1.8532e-15 0)
(3 1.7431e-16 0)
(3 -1.08959e-15 0)
(3 -1.3307e-15 0)
(3 -5.75212e-17 0)
(3 -1.23874e-16 0)
(3 -1.75606e-16 0)
(3 -2.34726e-17 0)
(3 1.40901e-16 0)
(3 -2.95674e-16 0)
(3 -3.77884e-16 0)
(3 -4.30972e-16 0)
(3 -5.31118e-16 0)
(3 -1.21464e-15 0)
(3 -1.57269e-15 0)
(3 -1.2273e-15 0)
(3 -3.89184e-16 0)
(3 2.382e-16 0)
(3 -4.81563e-16 0)
(3 -8.83267e-16 0)
(3 -7.77261e-16 0)
(3 -6.16066e-16 0)
(3 6.32437e-16 0)
(3 9.48108e-16 0)
(3 8.86604e-16 0)
(3 -7.18992e-16 0)
(3 -1.23485e-15 0)
(3 -6.52763e-16 0)
(1.55317 1.25229 0)
(2.09427 1.4265 0)
(2.23511 1.69675 0)
(2.31629 0.764445 0)
(2.51596 0.36784 0)
(2.68472 -0.0260651 0)
(2.73199 -0.187082 0)
(2.68414 -0.217107 0)
(2.49277 -0.298639 0)
(2.47802 -0.420602 0)
(2.53129 -0.383261 0)
(2.52663 -0.238366 0)
(2.50715 -0.159484 0)
(2.45473 -0.151433 0)
(2.43816 -0.138687 0)
(2.4341 -0.0839707 0)
(2.42748 -0.0418752 0)
(2.44394 -0.0298998 0)
(2.45129 -0.0252694 0)
(2.45727 -0.0187968 0)
(2.46242 -0.0208334 0)
(2.47461 -0.0188524 0)
(2.47852 -0.0098447 0)
(2.48028 -0.00103635 0)
(2.47728 -0.00165676 0)
(2.48084 -0.00796372 0)
(2.49092 -0.0102659 0)
(2.50082 -0.00607013 0)
(2.49602 -0.0025335 0)
(2.48997 -0.00214918 0)
(2.48291 -0.00386098 0)
(2.47998 -0.00658201 0)
(2.48482 -0.00648757 0)
(2.48963 -0.00479164 0)
(2.49563 -0.00227046 0)
(2.50898 -0.000976077 0)
(2.52874 -0.00244292 0)
(2.5354 -0.00368176 0)
(2.54317 -0.00401713 0)
(2.54386 -0.00140332 0)
(2.54146 0.00232338 0)
(2.54451 0.00331958 0)
(2.54674 0.00333448 0)
(2.55115 0.00303385 0)
(2.56191 0.00229961 0)
(2.56778 0.00263534 0)
(2.57478 -0.00139478 0)
(2.56 -0.0182564 0)
(2.48361 -0.0860596 0)
(2.31762 -0.20323 0)
(2.14875 -0.313409 0)
(2.04102 -0.338639 0)
(1.96878 -0.291238 0)
(1.93027 -0.276228 0)
(1.91664 -0.20146 0)
(1.89249 -0.135678 0)
(1.90674 -0.0707134 0)
(1.94866 -0.0305215 0)
(1.99923 -0.000796535 0)
(2.03811 0.0147931 0)
(2.06087 0.0228949 0)
(2.07768 0.0205796 0)
(2.10439 0.0164396 0)
(2.13227 0.0148373 0)
(2.15966 0.0146113 0)
(2.18477 0.0128802 0)
(2.20787 0.00829759 0)
(2.23099 0.006018 0)
(2.24925 0.00538293 0)
(2.25867 0.00683509 0)
(2.27373 0.0102668 0)
(2.29578 0.0109866 0)
(2.32041 0.0107275 0)
(2.34639 0.0100198 0)
(2.37113 0.00848973 0)
(2.39573 0.00759352 0)
(2.42161 0.00761473 0)
(2.44173 0.00999967 0)
(2.45113 0.0131294 0)
(2.45925 0.0148507 0)
(2.47453 0.0151323 0)
(2.4951 0.0158745 0)
(2.517 0.0160891 0)
(2.53973 0.0158094 0)
(2.56075 0.0153651 0)
(2.5804 0.0146863 0)
(2.59756 0.0142371 0)
(2.60878 0.014758 0)
(2.60463 0.0167879 0)
(2.5955 0.0193692 0)
(2.60805 0.0197026 0)
(2.623 0.0191148 0)
(2.63958 0.0172437 0)
(2.66299 0.0160131 0)
(2.69612 0.0124416 0)
(2.72401 0.0112109 0)
(1.79457 1.09995 0)
(2.34335 0.750075 0)
(2.5811 0.53134 0)
(2.69285 0.240301 0)
(2.77177 -0.230078 0)
(2.75502 -0.543735 0)
(2.77399 -0.552712 0)
(2.786 -0.599279 0)
(2.79299 -0.598203 0)
(2.76202 -0.555859 0)
(2.70251 -0.488875 0)
(2.60013 -0.320352 0)
(2.55532 -0.22182 0)
(2.53384 -0.170348 0)
(2.51944 -0.143603 0)
(2.49676 -0.0667921 0)
(2.48123 0.000564121 0)
(2.49131 -0.00618687 0)
(2.49009 0.00863997 0)
(2.48935 0.0165095 0)
(2.4833 0.00423274 0)
(2.48783 -0.0133146 0)
(2.49424 -0.0122796 0)
(2.49783 0.000738628 0)
(2.49722 0.00523176 0)
(2.49642 -0.000540157 0)
(2.50343 -0.00955144 0)
(2.51406 -0.00901466 0)
(2.51256 -0.00655817 0)
(2.50822 -0.00593162 0)
(2.50307 -0.0074848 0)
(2.50119 -0.01194 0)
(2.50544 -0.0122637 0)
(2.51079 -0.00909481 0)
(2.51839 -0.00130733 0)
(2.53177 0.00620148 0)
(2.54604 0.00733206 0)
(2.55173 0.00470033 0)
(2.55933 -0.00122338 0)
(2.56143 -0.00250978 0)
(2.55664 0.00142475 0)
(2.55804 0.00621984 0)
(2.56287 0.00845539 0)
(2.56892 0.0120314 0)
(2.57662 0.0163324 0)
(2.57451 0.00276657 0)
(2.55361 -0.052653 0)
(2.4747 -0.215871 0)
(2.36952 -0.415848 0)
(2.28585 -0.571939 0)
(2.22667 -0.692927 0)
(2.1524 -0.625602 0)
(2.10122 -0.500297 0)
(2.07172 -0.319744 0)
(2.04751 -0.144164 0)
(2.00318 -0.0324782 0)
(1.97831 0.0369794 0)
(1.98438 0.0439561 0)
(2.02117 0.0526925 0)
(2.05783 0.0580249 0)
(2.08053 0.0588166 0)
(2.09754 0.047128 0)
(2.11935 0.0256594 0)
(2.14383 0.0126399 0)
(2.16935 0.0117015 0)
(2.19732 0.00911301 0)
(2.2221 0.000747013 0)
(2.24484 -0.00542688 0)
(2.26503 -0.00731026 0)
(2.27881 -0.00328072 0)
(2.29302 0.00843894 0)
(2.31318 0.0254388 0)
(2.33487 0.039091 0)
(2.35843 0.0416887 0)
(2.38146 0.0395895 0)
(2.40577 0.0318595 0)
(2.43009 0.0233535 0)
(2.45182 0.0196121 0)
(2.46629 0.0238316 0)
(2.47606 0.0341054 0)
(2.48655 0.0417595 0)
(2.50573 0.0412829 0)
(2.52679 0.0368038 0)
(2.54826 0.0262712 0)
(2.56774 0.0200066 0)
(2.58764 0.0161827 0)
(2.60742 0.0123271 0)
(2.62487 0.0104883 0)
(2.63166 0.0165717 0)
(2.62209 0.0336041 0)
(2.62251 0.0459389 0)
(2.63836 0.0481719 0)
(2.65255 0.0496818 0)
(2.66889 0.0534824 0)
(2.69754 0.0455877 0)
(2.72606 0.0335718 0)
(1.68852 1.04485 0)
(2.01689 0.941764 0)
(2.39009 0.602332 0)
(2.59871 0.338121 0)
(2.66826 0.17789 0)
(2.70061 -0.0899691 0)
(2.72173 -0.114871 0)
(2.73792 -0.163004 0)
(2.85981 -0.32703 0)
(2.84881 -0.450361 0)
(2.82908 -0.456848 0)
(2.76804 -0.46819 0)
(2.71595 -0.444196 0)
(2.71723 -0.383723 0)
(2.72353 -0.341168 0)
(2.68932 -0.250842 0)
(2.64145 -0.131139 0)
(2.60592 -0.0901901 0)
(2.57286 -0.0681474 0)
(2.55594 -0.0266133 0)
(2.54516 -0.0216925 0)
(2.54386 -0.0189922 0)
(2.55241 -0.00543762 0)
(2.55627 0.0161209 0)
(2.55777 0.0168455 0)
(2.55254 -0.00254169 0)
(2.55541 -0.0266963 0)
(2.55969 -0.0248445 0)
(2.55878 -0.0196777 0)
(2.55305 -0.014567 0)
(2.54792 -0.0196941 0)
(2.54563 -0.0259602 0)
(2.54839 -0.0252336 0)
(2.55227 -0.0223952 0)
(2.5586 -0.0133507 0)
(2.57221 -0.00213093 0)
(2.58061 -0.000877711 0)
(2.58382 -0.00297039 0)
(2.58757 -0.00336674 0)
(2.58807 -0.0015121 0)
(2.5868 -0.00366425 0)
(2.58902 -0.00335748 0)
(2.59557 0.00123597 0)
(2.59904 0.000594924 0)
(2.59248 -0.0208228 0)
(2.55094 -0.103566 0)
(2.4221 -0.314491 0)
(2.34202 -0.481612 0)
(2.23171 -0.659895 0)
(2.21144 -0.72035 0)
(2.22941 -0.696954 0)
(2.25312 -0.681559 0)
(2.26304 -0.666083 0)
(2.25877 -0.613042 0)
(2.25214 -0.506864 0)
(2.23188 -0.37317 0)
(2.20036 -0.23488 0)
(2.17341 -0.1304 0)
(2.12649 -0.0455518 0)
(2.12387 0.00620008 0)
(2.12516 0.0478214 0)
(2.14026 0.0600637 0)
(2.15517 0.056828 0)
(2.17508 0.0575448 0)
(2.19597 0.0596841 0)
(2.22048 0.0544323 0)
(2.24636 0.0418621 0)
(2.26698 0.0312787 0)
(2.28799 0.0261697 0)
(2.3072 0.0225927 0)
(2.3237 0.0254514 0)
(2.34112 0.0390868 0)
(2.35707 0.0540251 0)
(2.37501 0.0577567 0)
(2.39689 0.0553299 0)
(2.41772 0.0503934 0)
(2.43719 0.042148 0)
(2.45495 0.0349679 0)
(2.47293 0.0315004 0)
(2.49187 0.0325784 0)
(2.50934 0.0414072 0)
(2.52285 0.0519754 0)
(2.5381 0.0532715 0)
(2.55551 0.0497995 0)
(2.57346 0.0474364 0)
(2.59215 0.0451117 0)
(2.61058 0.0414916 0)
(2.62812 0.0377036 0)
(2.64295 0.0354603 0)
(2.64877 0.0415765 0)
(2.64465 0.0598435 0)
(2.64977 0.0723146 0)
(2.66391 0.0752185 0)
(2.6787 0.0770601 0)
(2.69584 0.0723263 0)
(2.72165 0.0643865 0)
(1.60225 0.996395 0)
(1.90081 0.890779 0)
(2.18882 0.685712 0)
(2.35004 0.547698 0)
(2.45059 0.414928 0)
(2.60009 0.135165 0)
(2.66713 -0.0298941 0)
(2.69824 -0.125753 0)
(2.76124 -0.305304 0)
(2.7813 -0.361231 0)
(2.7902 -0.401033 0)
(2.80262 -0.482626 0)
(2.81674 -0.500164 0)
(2.82377 -0.475787 0)
(2.81251 -0.457736 0)
(2.77494 -0.408061 0)
(2.7392 -0.327951 0)
(2.70853 -0.255602 0)
(2.68218 -0.222136 0)
(2.65067 -0.160051 0)
(2.63203 -0.10539 0)
(2.62435 -0.0966872 0)
(2.61449 -0.0758862 0)
(2.61111 -0.0268049 0)
(2.61708 -8.76063e-05 0)
(2.60944 -0.00601915 0)
(2.60678 -0.00666773 0)
(2.60863 0.00098866 0)
(2.60541 0.0142797 0)
(2.59746 0.0191827 0)
(2.59762 0.00601071 0)
(2.59669 -0.0114415 0)
(2.59512 -0.0181163 0)
(2.59839 -0.0179358 0)
(2.60295 -0.0160025 0)
(2.61203 -0.00996582 0)
(2.6176 -0.0047594 0)
(2.61866 -0.0018383 0)
(2.61734 -0.000109424 0)
(2.61623 0.00255398 0)
(2.61758 0.00534554 0)
(2.62076 0.0119729 0)
(2.61918 0.00185911 0)
(2.60865 -0.03286 0)
(2.52914 -0.156818 0)
(2.41444 -0.364128 0)
(2.24451 -0.631779 0)
(2.22303 -0.663428 0)
(2.24075 -0.657188 0)
(2.24874 -0.663821 0)
(2.24942 -0.686152 0)
(2.25817 -0.697331 0)
(2.28144 -0.697979 0)
(2.30023 -0.679987 0)
(2.31327 -0.649993 0)
(2.31876 -0.612113 0)
(2.30868 -0.535026 0)
(2.28358 -0.416746 0)
(2.22889 -0.259854 0)
(2.21771 -0.149104 0)
(2.19866 -0.0520171 0)
(2.21182 -0.00233268 0)
(2.21224 0.0291137 0)
(2.20949 0.0450816 0)
(2.21736 0.0630313 0)
(2.23729 0.0695553 0)
(2.26014 0.0704292 0)
(2.28439 0.0673548 0)
(2.30999 0.0609562 0)
(2.33304 0.0517043 0)
(2.35179 0.0445433 0)
(2.3668 0.0445172 0)
(2.37894 0.0459388 0)
(2.3924 0.0467442 0)
(2.40933 0.0444911 0)
(2.42792 0.039698 0)
(2.4458 0.0370327 0)
(2.4638 0.0388325 0)
(2.4832 0.0432083 0)
(2.50409 0.0482445 0)
(2.52332 0.0531432 0)
(2.53622 0.0628988 0)
(2.54374 0.0733517 0)
(2.55567 0.0745445 0)
(2.57216 0.0717911 0)
(2.59035 0.0694712 0)
(2.60853 0.0670505 0)
(2.62574 0.0641193 0)
(2.64236 0.0625208 0)
(2.65605 0.0635841 0)
(2.662 0.071597 0)
(2.66234 0.0871192 0)
(2.66665 0.0950046 0)
(2.68099 0.0933183 0)
(2.69644 0.0850014 0)
(2.71801 0.0723216 0)
(1.56119 0.938956 0)
(1.82301 0.839743 0)
(2.0146 0.737941 0)
(2.14778 0.663385 0)
(2.34679 0.461649 0)
(2.46806 0.269453 0)
(2.50881 0.228987 0)
(2.56557 0.125292 0)
(2.64362 -0.065181 0)
(2.68061 -0.155955 0)
(2.6944 -0.172501 0)
(2.73552 -0.269658 0)
(2.75796 -0.330464 0)
(2.7779 -0.321453 0)
(2.77475 -0.377926 0)
(2.76664 -0.400287 0)
(2.76913 -0.402521 0)
(2.76705 -0.389729 0)
(2.74535 -0.359345 0)
(2.71773 -0.307201 0)
(2.69931 -0.227899 0)
(2.68827 -0.186617 0)
(2.67172 -0.166329 0)
(2.65876 -0.110853 0)
(2.66305 -0.0639932 0)
(2.6618 -0.0564595 0)
(2.65328 -0.0487973 0)
(2.6423 -0.0393779 0)
(2.63438 -0.0170584 0)
(2.62893 -0.00356785 0)
(2.62067 -0.00326525 0)
(2.62286 0.00613503 0)
(2.62397 0.00780283 0)
(2.62475 0.00648147 0)
(2.62796 0.00310824 0)
(2.63542 -1.27936e-05 0)
(2.6432 -0.000987551 0)
(2.64394 -0.00591438 0)
(2.63659 -0.0113973 0)
(2.63479 -0.0131223 0)
(2.63443 -0.0133979 0)
(2.62988 -0.0205972 0)
(2.59339 -0.078973 0)
(2.52823 -0.216797 0)
(2.3081 -0.49597 0)
(2.25274 -0.578197 0)
(2.22143 -0.65259 0)
(2.20881 -0.690911 0)
(2.21469 -0.694806 0)
(2.24116 -0.688407 0)
(2.2632 -0.673158 0)
(2.28099 -0.666136 0)
(2.29972 -0.662982 0)
(2.31736 -0.657758 0)
(2.33347 -0.651977 0)
(2.34621 -0.65104 0)
(2.35924 -0.642574 0)
(2.36167 -0.616524 0)
(2.35479 -0.550733 0)
(2.33897 -0.43595 0)
(2.30304 -0.280084 0)
(2.30984 -0.171753 0)
(2.26393 -0.0457658 0)
(2.26278 0.00116229 0)
(2.25192 0.0372675 0)
(2.2574 0.0566434 0)
(2.27559 0.0701938 0)
(2.29941 0.0709242 0)
(2.32234 0.0773945 0)
(2.33822 0.0791677 0)
(2.36044 0.0856716 0)
(2.38 0.0838272 0)
(2.39318 0.0788302 0)
(2.40327 0.0779075 0)
(2.41308 0.0789851 0)
(2.4262 0.0748245 0)
(2.44583 0.0687308 0)
(2.46631 0.0645786 0)
(2.48733 0.063442 0)
(2.50995 0.0644864 0)
(2.52814 0.0697769 0)
(2.53942 0.080426 0)
(2.54354 0.0935289 0)
(2.55196 0.0983774 0)
(2.56993 0.094833 0)
(2.58686 0.0922787 0)
(2.60454 0.0915294 0)
(2.62155 0.0900152 0)
(2.63755 0.0866114 0)
(2.65216 0.0854157 0)
(2.66598 0.0915807 0)
(2.67598 0.103296 0)
(2.68073 0.115281 0)
(2.68128 0.120674 0)
(2.69005 0.113506 0)
(2.70969 0.0954218 0)
(1.54798 0.898764 0)
(1.7392 0.840951 0)
(1.90798 0.764981 0)
(2.05716 0.673958 0)
(2.20897 0.554237 0)