/*--------------------------------*- C++ -*----------------------------------*\
  =========                 |
  \\      /  F ield         | OpenFOAM: The Open Source CFD Toolbox
   \\    /   O peration     | Website:  https://openfoam.org
    \\  /    A nd           | Version:  7
     \\/     M anipulation  |
\*---------------------------------------------------------------------------*/
FoamFile
{
    version     2.0;
    format      ascii;
    class       volScalarField;
    location    "1.2";
    object      rho;
}
// * * * * * * * * * * * * * * * * * * * * * * * * * * * * * * * * * * * * * //

dimensions      [1 -3 0 0 0 0 0];

internalField   nonuniform List<scalar> 
4032
(
1.40001
1.40001
1.40001
1.40001
1.40001
1.40001
1.40001
1.40001
1.40001
1.40001
1.40001
1.40001
1.53123
4.33674
5.55498
5.55152
5.58497
5.63871
5.71204
5.78089
5.82151
5.81414
5.77623
5.76222
1.40001
1.40001
1.40001
1.40001
1.40001
1.40001
1.40001
1.40001
1.40001
1.40001
1.40001
1.40001
1.5046
4.26288
5.54747
5.54149
5.57399
5.62834
5.69885
5.76209
5.79807
5.78696
5.74665
5.7321
1.40001
1.40001
1.40001
1.40001
1.40001
1.40001
1.40001
1.40001
1.40001
1.40001
1.40001
1.40001
1.42869
4.10663
5.54152
5.52888
5.55891
5.61234
5.67828
5.736
5.76699
5.7496
5.70293
5.68591
1.40001
1.40001
1.40001
1.40001
1.40001
1.40001
1.40001
1.40001
1.40001
1.40001
1.40001
1.40001
1.40078
3.87469
5.49142
5.48908
5.5256
5.58442
5.64761
5.69977
5.72506
5.69915
5.64281
5.61724
1.40001
1.40001
1.40001
1.40001
1.40001
1.40001
1.40001
1.40001
1.40001
1.40001
1.40001
1.40001
1.40001
3.54647
5.40917
5.45009
5.49261
5.55307
5.61016
5.65317
5.66662
5.62838
5.56107
5.53492
1.40001
1.40001
1.40001
1.40001
1.40001
1.40001
1.40001
1.40001
1.40001
1.40001
1.40001
1.40001
1.40001
3.14513
5.29181
5.41758
5.4585
5.51578
5.56429
5.60024
5.60683
5.56274
5.48871
5.43143
1.40001
1.40001
1.40001
1.40001
1.40001
1.40001
1.40001
1.40001
1.40001
1.40001
1.40001
1.40001
1.40001
2.69123
5.13554
5.41972
5.44428
5.48473
5.51663
5.53778
5.52316
5.4478
5.33926
5.27718
1.40001
1.40001
1.40001
1.40001
1.40001
1.40001
1.40001
1.40001
1.40001
1.40001
1.40001
1.40001
1.40001
2.18383
4.90968
5.42258
5.41703
5.44459
5.46146
5.46212
5.42772
5.34001
5.18765
5.0929
1.40001
1.40001
1.40001
1.40001
1.40001
1.40001
1.40001
1.40001
1.40001
1.40001
1.40001
1.40001
1.40001
1.66936
4.59838
5.47213
5.41956
5.39781
5.37689
5.35076
5.2885
5.15351
4.78074
3.87327
1.40001
1.40001
1.40001
1.40001
1.40001
1.40001
1.40001
1.40001
1.40001
1.40001
1.40001
1.40001
1.40001
1.41691
3.97453
5.31082
5.30307
5.28919
5.26096
5.21685
5.12055
4.92047
4.53309
3.62511
1.40001
1.40001
1.40001
1.40001
1.40001
1.40001
1.40001
1.40001
1.40001
1.40001
1.40001
1.40001
1.40001
1.40002
3.14847
5.13383
5.24199
5.21725
5.17599
5.10536
4.9754
4.73122
4.34623
3.51919
1.40001
1.40001
1.40001
1.40001
1.40001
1.40001
1.40001
1.40001
1.40001
1.40001
1.40001
1.40001
1.40001
1.4
2.2715
4.85748
5.19433
5.15724
5.09781
4.99879
4.83735
4.59255
4.18235
3.52903
1.40001
1.40001
1.40001
1.40001
1.40001
1.40001
1.40001
1.40001
1.40001
1.40001
1.40001
1.40001
1.40001
1.4
1.55695
4.25978
5.14169
5.09662
5.02195
4.90729
4.72346
4.49302
4.07697
3.55801
1.40001
1.40001
1.40001
1.40001
1.40001
1.40001
1.40001
1.40001
1.40001
1.40001
1.40001
1.40001
1.40001
1.4
1.4031
3.22645
4.97693
5.03772
4.9762
4.84838
4.65587
4.41134
4.02958
3.60937
1.40001
1.40001
1.40001
1.40001
1.40001
1.40001
1.40001
1.40001
1.40001
1.40001
1.40001
1.40001
1.40001
1.40001
1.39998
2.03538
4.76525
5.06468
4.94002
4.79199
4.58436
4.33211
4.00403
3.65102
1.40001
1.40001
1.40001
1.40001
1.40001
1.40001
1.40001
1.40001
1.40001
1.40001
1.40001
1.40001
1.40001
1.40001
1.4
1.46351
3.88488
4.96994
4.86114
4.72673
4.53218
4.29317
4.00552
3.69486
1.40001
1.40001
1.40001
1.40001
1.40001
1.40001
1.40001
1.40001
1.40001
1.40001
1.40001
1.40001
1.40001
1.40001
1.4
1.40032
2.52102
4.79446
4.84236
4.7125
4.5205
4.28688
4.01687
3.73708
1.40001
1.40001
1.40001
1.40001
1.40001
1.40001
1.40001
1.40001
1.40001
1.40001
1.40001
1.40001
1.40001
1.40001
1.40001
1.4
1.57977
4.03567
4.84708
4.69073
4.51207
4.28936
4.03827
3.78419
1.40001
1.40001
1.40001
1.40001
1.40001
1.40001
1.40001
1.40001
1.40001
1.40001
1.40001
1.40001
1.40001
1.40001
1.40001
1.4
1.40353
2.60996
4.63858
4.67927
4.51662
4.31109
4.0784
3.83976
1.40001
1.40001
1.40001
1.40001
1.40001
1.40001
1.40001
1.40001
1.40001
1.40001
1.40001
1.40001
1.40001
1.40001
1.40001
1.4
1.40001
1.60501
3.88412
4.72028
4.53725
4.33293
4.1104
3.88466
1.40001
1.40001
1.40001
1.40001
1.40001
1.40001
1.40001
1.40001
1.40001
1.40001
1.40001
1.40001
1.40001
1.40001
1.40001
1.40001
1.40001
1.40482
2.37
4.42997
4.55521
4.36116
4.16084
3.94845
1.40001
1.40001
1.40001
1.40001
1.40001
1.40001
1.40001
1.40001
1.40001
1.40001
1.40001
1.40001
1.40001
1.40001
1.40001
1.40001
1.40001
1.40002
1.52526
3.41856
4.54689
4.42003
4.22742
4.0179
1.40001
1.40001
1.40001
1.40001
1.40001
1.40001
1.40001
1.40001
1.40001
1.40001
1.40001
1.40001
1.40001
1.40001
1.40001
1.40001
1.40001
1.40001
1.40212
1.99579
4.0421
4.50648
4.30286
4.10168
1.40001
1.40001
1.40001
1.40001
1.40001
1.40001
1.40001
1.40001
1.40001
1.40001
1.40001
1.40001
1.40001
1.40001
1.40001
1.40001
1.40001
1.40001
1.40001
1.44382
2.675
4.26929
4.36034
4.16606
1.40001
1.40001
1.40001
1.40001
1.40001
1.40001
1.40001
1.40001
1.40001
1.40001
1.40001
1.40001
1.40001
1.40001
1.40001
1.40001
1.40001
1.40001
1.40001
1.40053
1.61447
3.31934
4.31125
4.24507
1.40001
1.40001
1.40001
1.40001
1.40001
1.40001
1.40001
1.40001
1.40001
1.40001
1.40001
1.40001
1.40001
1.40001
1.40001
1.40001
1.40001
1.40001
1.40001
1.40001
1.40642
1.94838
3.72596
4.27411
1.40001
1.40001
1.40001
1.40001
1.40001
1.40001
1.40001
1.40001
1.40001
1.40001
1.40001
1.40001
1.40001
1.40001
1.40001
1.40001
1.40001
1.40001
1.40001
1.40001
1.40004
1.43773
2.33241
3.93502
1.40001
1.40001
1.40001
1.40001
1.40001
1.40001
1.40001
1.40001
1.40001
1.40001
1.40001
1.40001
1.40001
1.40001
1.40001
1.40001
1.40001
1.40001
1.40001
1.40001
1.40001
1.40049
1.50969
2.68118
1.40001
1.40001
1.40001
1.40001
1.40001
1.40001
1.40001
1.40001
1.40001
1.40001
1.40001
1.40001
1.40001
1.40001
1.40001
1.40001
1.40001
1.40001
1.40001
1.40001
1.40001
1.40001
1.40234
1.61785
1.40001
1.40001
1.40001
1.40001
1.40001
1.40001
1.40001
1.40001
1.40001
1.40001
1.40001
1.40001
1.40001
1.40001
1.40001
1.40001
1.40001
1.40001
1.40001
1.40001
1.40001
1.40001
1.40002
1.4072
1.40001
1.40001
1.40001
1.40001
1.40001
1.40001
1.40001
1.40001
1.40001
1.40001
1.40001
1.40001
1.40001
1.40001
1.40001
1.40001
1.40001
1.40001
1.40001
1.40001
1.40001
1.40001
1.40001
1.40005
1.40001
1.40001
1.40001
1.40001
1.40001
1.40001
1.40001
1.40001
1.40001
1.40001
1.40001
1.40001
1.40001
1.40001
1.40001
1.40001
1.40001
1.40001
1.40001
1.40001
1.40001
1.40001
1.40001
1.40001
1.40001
1.40001
1.40001
1.40001
1.40001
1.40001
1.40001
1.40001
1.40001
1.40001
1.40001
1.40001
1.40001
1.40001
1.40001
1.40001
1.40001
1.40001
1.40001
1.40001
1.40001
1.40001
1.40001
1.40001
1.40001
1.40001
1.40001
1.40001
1.40001
1.40001
1.40001
1.40001
1.40001
1.40001
1.40001
1.40001
1.40001
1.40001
1.40001
1.40001
1.40001
1.40001
1.40001
1.40001
1.40001
1.40001
1.40001
1.40001
1.40001
1.40001
1.40001
1.40001
1.40001
1.40001
1.40001
1.40001
1.40001
1.40001
1.40001
1.40001
1.40001
1.40001
1.40001
1.40001
1.40001
1.40001
1.40001
1.40001
1.40001
1.40001
1.40001
1.40001
1.40001
1.40001
1.40001
1.40001
1.40001
1.40001
1.40001
1.40001
1.40001
1.40001
1.40001
1.40001
1.40001
1.40001
1.40001
1.40001
1.40001
1.40001
1.40001
1.40001
1.40001
1.40001
1.40001
1.40001
1.40001
1.40001
1.40001
1.40001
1.40001
1.40001
1.40001
1.40001
1.40001
1.40001
1.40001
1.40001
1.40001
1.40001
1.40001
1.40001
1.40001
1.40001
1.40001
1.40001
1.40001
1.40001
1.40001
1.40001
1.40001
1.40001
1.40001
1.40001
1.40001
1.40001
1.40001
1.40001
1.40001
1.40001
1.40001
1.40001
1.40001
1.40001
1.40001
1.40001
1.40001
1.40001
1.40001
1.40001
1.40001
1.40001
1.40001
1.40001
1.40001
1.40001
1.40001
1.40001
1.40001
1.40001
1.40001
1.40001
1.40001
1.40001
1.40001
1.40001
1.40001
1.40001
1.40001
1.40001
1.40001
1.40001
1.40001
1.40001
1.40001
1.40001
1.40001
1.40001
1.40001
1.40001
1.40001
1.40001
1.40001
1.40001
1.40001
1.40001
1.40001
1.40001
1.40001
1.40001
1.40001
1.40001
1.40001
1.40001
1.40001
1.40001
1.40001
1.40001
1.40001
1.40001
1.40001
1.40001
1.27364
0.431225
0.287473
0.238252
0.213948
0.227648
0.292759
0.402905
0.528866
0.634438
0.7153
0.796398
0.841448
0.844463
0.860699
0.878958
0.882456
0.882597
0.89191
0.916561
0.935955
0.93809
0.936935
0.930518
0.926397
0.925701
0.925117
0.925569
0.92531
0.920355
0.917632
0.918021
0.919956
0.919945
0.91666
0.907801
0.893319
0.880741
0.872699
0.86684
0.863596
0.861404
0.858816
0.855507
0.851911
0.847495
0.841892
0.836615
0.832276
0.828522
0.825964
0.825104
0.823307
0.819509
0.814443
0.807568
0.798017
0.786599
0.777359
0.770872
0.765687
0.761163
0.756832
0.75196
0.745232
0.734011
0.721885
0.72677
0.744586
0.778567
0.834929
0.91699
1.01808
1.13232
1.25338
1.36559
1.45224
1.52136
1.58189
1.63064
1.67364
1.7098
1.73731
1.76308
1.77409
1.76768
1.7407
1.70752
1.67747
1.64385
1.60124
1.56587
1.54227
1.52823
1.52098
1.5039
1.9683
1.16806
0.81277
0.682939
0.566884
0.491822
0.499642
0.516471
0.524512
0.550089
0.590586
0.651077
0.727208
0.783133
0.818281
0.843988
0.863076
0.872496
0.8873
0.916796
0.949762
0.952762
0.954345
0.954824
0.953979
0.951806
0.948909
0.947907
0.947302
0.943988
0.939538
0.936377
0.934075
0.931748
0.926158
0.915995
0.902807
0.893573
0.88811
0.882686
0.877449
0.873497
0.869631
0.865217
0.862057
0.859857
0.856382
0.852278
0.848086
0.844068
0.839765
0.836209
0.83309
0.828972
0.82342
0.816993
0.809883
0.801492
0.792129
0.782886
0.774989
0.769063
0.765247
0.765148
0.772983
0.795858
0.837447
0.895273
0.962096
1.02377
1.08637
1.13273
1.16565
1.1846
1.19638
1.21237
1.246
1.28389
1.33047
1.37907
1.41325
1.44455
1.46606
1.48907
1.51888
1.53449
1.52995
1.52966
1.53455
1.53191
1.52042
1.51297
1.51405
1.51388
1.51264
1.49958
2.42969
1.78494
1.34318
1.0772
0.895737
0.753569
0.703188
0.673582
0.624034
0.622444
0.637592
0.663722
0.719282
0.777747
0.807244
0.829384
0.863812
0.895555
0.920825
0.955476
1.00425
1.01575
1.01846
1.02549
1.02796
1.02195
1.00946
1.00266
0.998746
0.993782
0.986023
0.979316
0.974094
0.969686
0.962831
0.95111
0.937699
0.930192
0.927146
0.924411
0.92038
0.91628
0.911592
0.903684
0.893422
0.888347
0.885507
0.883185
0.880757
0.877145
0.873157
0.869443
0.865818
0.859986
0.851627
0.843085
0.835417
0.828961
0.822123
0.814532
0.809406
0.814421
0.833285
0.876571
0.949714
1.03974
1.12818
1.19999
1.24562
1.28191
1.29676
1.29326
1.28716
1.27352
1.25536
1.2416
1.23878
1.23927
1.23999
1.24389
1.25293
1.27025
1.29295
1.30875
1.33437
1.36895
1.40702
1.44131
1.4736
1.49575
1.50455
1.50859
1.51749
1.52197
1.52255
1.51083
2.78661
2.21029
1.79299
1.49703
1.26753
1.09458
0.980613
0.899702
0.826308
0.796068
0.766
0.720404
0.721379
0.730867
0.741096
0.757702
0.798477
0.848117
0.891611
0.929916
0.977564
1.00528
1.01667
1.036
1.07017
1.07662
1.06945
1.06629
1.06437
1.05704
1.04491
1.031
1.01857
1.01005
1.00128
0.989913
0.981287
0.974879
0.97166
0.97058
0.96865
0.9655
0.961327
0.954423
0.944045
0.935633
0.930954
0.927562
0.925208
0.921974
0.917839
0.913656
0.909998
0.904227
0.895306
0.887147
0.879647
0.876145
0.878174
0.893193
0.932739
0.998722
1.09232
1.19414
1.28708
1.35681
1.38666
1.40418
1.40628
1.40271
1.39396
1.38067
1.36354
1.34449
1.32282
1.29477
1.27912
1.27162
1.26496
1.26152
1.26215
1.2632
1.25729
1.24318
1.22948
1.22389
1.22918
1.242
1.26656
1.29729
1.32576
1.34956
1.37036
1.39086
1.40241
1.41867
3.01596
2.53315
2.14968
1.84677
1.58127
1.38288
1.26284
1.14983
1.02785
0.958796
0.905569
0.828693
0.776828
0.764593
0.748895
0.750834
0.764969
0.788525
0.821417
0.852155
0.888994
0.936508
0.972362
1.00224
1.04705
1.07411
1.07104
1.07464
1.08374
1.08357
1.07854
1.07015
1.06081
1.04942
1.03778
1.02772
1.02145
1.01475
1.00657
1.00234
1.00089
0.999443
0.997024
0.993269
0.987948
0.981206
0.975631
0.972706
0.971022
0.967939
0.962327
0.955673
0.948442
0.940859
0.930399
0.926423
0.933235
0.960718
1.02545
1.12657
1.2525
1.36545
1.4427
1.50046
1.52008
1.52174
1.51139
1.48994
1.46838
1.45288
1.43773
1.42094
1.40401
1.38745
1.3655
1.33443
1.31313
1.30214
1.29418
1.28866
1.28542
1.28095
1.27108
1.2572
1.23986
1.22405
1.21553
1.21189
1.20754
1.20068
1.19483
1.18957
1.18813
1.19181
1.19722
1.21412
3.178
2.76467
2.41931
2.12575
1.86496
1.64917
1.48921
1.35855
1.22651
1.14139
1.08441
1.00585
0.915569
0.888069
0.852603
0.811895
0.810665
0.810215
0.802124
0.800157
0.805861
0.825235
0.85519
0.893745
0.949939
1.01906
1.04774
1.06247
1.07685
1.08167
1.07823
1.07164
1.06754
1.0678
1.06988
1.06734
1.06279
1.05507
1.04291
1.0278
1.01705
1.01042
1.00749
1.00601
1.00551
1.00393
1.0017
1.00135
1.00023
0.997368
0.991675
0.984617
0.976793
0.96741
0.972607
1.0029
1.07461
1.20948
1.34153
1.47813
1.56127
1.60789
1.61719
1.60642
1.59298
1.57108
1.54479
1.51105
1.48533
1.47016
1.4547
1.43669
1.42316
1.41055
1.38512
1.34826
1.32448
1.3154
1.30814
1.30403
1.30381
1.29832
1.29018
1.28028
1.26257
1.2383
1.22668
1.22197
1.21505
1.20391
1.19506
1.18768
1.17682
1.17072
1.16614
1.16242
3.28538
2.92351
2.61966
2.34355
2.07182
1.87395
1.70665
1.55647
1.40927
1.31044
1.23029
1.1506
1.06867
1.01936
0.973674
0.910961
0.876461
0.856919
0.82542
0.808381
0.81132
0.817711
0.819577
0.827442
0.85199
0.899831
0.954645
0.992174
1.01995
1.04994
1.05643
1.05621
1.06076
1.06901
1.07758
1.0814
1.08034
1.07583
1.06776
1.05419
1.03548
1.01957
1.01507
1.0135
1.013
1.01335
1.01306
1.01041
1.00514
1.00171
0.998355
0.997024
1.0082
1.05049
1.14179
1.28443
1.43845
1.54562
1.60018
1.6584
1.66335
1.655
1.64465
1.6286
1.59965
1.56674
1.54064
1.51851
1.49013
1.47814
1.46614
1.44947
1.43097
1.4093
1.38603
1.35473
1.33818
1.33139
1.32612
1.32516
1.32099
1.31319
1.30496
1.28904
1.26584
1.24436
1.23883
1.23632
1.23054
1.22209
1.21539
1.20692
1.19632
1.18789
1.17935
1.17253
3.37303
3.05485
2.77642
2.51503
2.26213
2.06429
1.89393
1.72474
1.57787
1.48174
1.38466
1.28332
1.20051
1.14742
1.09481
1.03277
0.991135
0.966018
0.923055
0.877701
0.869888
0.857985
0.837217
0.829903
0.833326
0.838654
0.846648
0.86679
0.899967
0.94383
0.988724
1.01397
1.03371
1.05485
1.07177
1.07739
1.07747
1.07575
1.0733
1.06723
1.05412
1.03602
1.02859
1.02551
1.02343
1.02111
1.01816
1.01504
1.00752
1.0022
1.01633
1.06906
1.18844
1.35313
1.52505
1.62889
1.69902
1.70507
1.68619
1.6731
1.67211
1.6674
1.65118
1.61964
1.58273
1.55352
1.53212
1.50663
1.48225
1.4639
1.44802
1.43232
1.41828
1.4032
1.38692
1.37781
1.36451
1.34814
1.33604
1.32597
1.31618
1.30712
1.29793
1.28388
1.26249
1.25138
1.24737
1.24466
1.2433
1.24321
1.23828
1.22551
1.2089
1.19814
1.19115
1.18616
3.44702
3.16102
2.90667
2.65668
2.41945
2.228
2.05699
1.88384
1.74021
1.628
1.52352
1.41715
1.33386
1.27406
1.21272
1.13852
1.09245
1.05899
1.01419
0.960127
0.935565
0.915629
0.883247
0.849189
0.846719
0.844502
0.836307
0.832574
0.837014
0.851325
0.879414
0.918402
0.957152
1.00319
1.03728
1.04879
1.05599
1.06596
1.07101
1.06817
1.05994
1.04912
1.04104
1.03711
1.03417
1.03022
1.02597
1.02283
1.03742
1.09526
1.21524
1.39399
1.56132
1.66052
1.7473
1.77737
1.76775
1.72652
1.68959
1.67531
1.66412
1.64629
1.62124
1.59466
1.5718
1.55225
1.52923
1.50179
1.4776
1.45781
1.44017
1.42568
1.41251
1.40396
1.40355
1.39803
1.3813
1.35483
1.33098
1.31952
1.31166
1.30428
1.29416
1.27914
1.26679
1.25993
1.25453
1.25419
1.25912
1.25781
1.24834
1.23244
1.2148
1.20447
1.20064
1.19992
3.51602
3.25689
3.02259
2.78402
2.5615
2.38094
2.20733
2.02032
1.88509
1.77175
1.66119
1.54066
1.45891
1.39228
1.32413
1.24987
1.19982
1.1599
1.11012
1.04674
1.01776
0.997166
0.964201
0.915682
0.902937
0.888499
0.862551
0.840376
0.838907
0.837105
0.835895
0.84138
0.861547
0.902836
0.955217
0.995427
1.01435
1.02994
1.04656
1.05503
1.05447
1.04956
1.04822
1.0446
1.04061
1.03865
1.05383
1.11857
1.25783
1.44606
1.61456
1.7083
1.75786
1.79623
1.80704
1.7922
1.75415
1.705
1.66513
1.63825
1.62433
1.61157
1.5962
1.5816
1.56823
1.55416
1.53165
1.5023
1.477
1.45673
1.43779
1.42394
1.41675
1.41685
1.41631
1.4028
1.38402
1.35597
1.32806
1.31388
1.30602
1.2991
1.28945
1.28086
1.27797
1.27591
1.27448
1.27655
1.27623
1.26895
1.25382
1.23188
1.22096
1.21758
1.21535
1.21895
3.58605
3.34451
3.12289
2.89694
2.68661
2.50895
2.33681
2.16094
2.02328
1.90326
1.78435
1.66168
1.58317
1.51151
1.43576
1.3494
1.29794
1.25215
1.19982
1.13808
1.10359
1.07752
1.03866
0.981605
0.954999
0.935224
0.905041
0.863602
0.851826
0.850769
0.841583
0.839602
0.844002
0.853126
0.871804
0.892738
0.914685
0.942578
0.975094
1.00143
1.01851
1.03403
1.04613
1.05015
1.06399
1.12307
1.27125
1.46999
1.66439
1.7591
1.79876
1.8256
1.83085
1.82151
1.79834
1.76322
1.72036
1.68253
1.64446
1.60972
1.59673
1.58853
1.58301
1.57492
1.56728
1.55673
1.53328
1.51161
1.49507
1.47643
1.45632
1.43838
1.42775
1.42179
1.41258
1.39968
1.38388
1.3614
1.33232
1.31229
1.30165
1.29554
1.29285
1.29574
1.29817
1.29477
1.28746
1.2758
1.26723
1.26198
1.25281
1.24207
1.23446
1.22985
1.2281
1.23318
3.6477
3.4224
3.21032
2.9946
2.79847
2.62961
2.45551
2.28232
2.14714
2.02844
1.90738
1.78928
1.70041
1.61897
1.54084
1.45753
1.39886
1.34489
1.28339
1.21171
1.1811
1.15789
1.12117
1.0637
1.02926
1.00682
0.975226
0.922368
0.902114
0.900047
0.887115
0.864114
0.858523
0.861888
0.857751
0.848791
0.848614
0.858862
0.882664
0.918764
0.95504
0.990896
1.03125
1.08827
1.24726
1.47987
1.67205
1.78683
1.8537
1.86309
1.86435
1.85898
1.84661
1.82223
1.78224
1.74085
1.71062
1.68115
1.63983
1.60248
1.58952
1.58031
1.57178
1.56826
1.56417
1.55397
1.54524
1.53998
1.52827
1.50584
1.4752
1.44808
1.43155
1.41851
1.4074
1.39677
1.38456
1.36908
1.3471
1.32006
1.30788
1.3041
1.30469
1.30993
1.30701
1.30285
1.29515
1.27665
1.26157
1.25617
1.25529
1.2545
1.25194
1.24707
1.24437
1.24073
3.7249
3.50754
3.30162
3.09895
2.90942
2.7363
2.56722
2.41185
2.27605
2.14696
2.01756
1.91255
1.8205
1.73288
1.64438
1.55357
1.48729
1.43141
1.3736
1.30036
1.25739
1.22735
1.1876
1.13335
1.10326
1.08185
1.04901
0.991527
0.955911
0.947667
0.932237
0.899413
0.878749
0.879221
0.872268
0.856319
0.849762
0.851014
0.853369
0.860009
0.875473
0.920285
1.04176
1.29149
1.59808
1.75002
1.82132
1.84879
1.85267
1.85213
1.84532
1.83192
1.7998
1.77131
1.75029
1.7311
1.7145
1.69321
1.66001
1.62181
1.59789
1.58035
1.56865
1.56473
1.56178
1.56132
1.5632
1.56081
1.54892
1.52785
1.49741
1.46378
1.43173
1.41131
1.40137
1.39191
1.38116
1.37295
1.36395
1.34663
1.32636
1.31874
1.3165
1.31279
1.30681
1.29931
1.29127
1.27638
1.26645
1.26429
1.265
1.26302
1.26087
1.25884
1.25055
1.23598
3.804
3.59379
3.39066
3.19835
3.01921
2.8462
2.67511
2.5276
2.39303
2.25913
2.12925
2.02864
1.92752
1.82951
1.74243
1.661
1.58229
1.51435
1.45518
1.38266
1.33535
1.30425
1.26519
1.20293
1.16573
1.14782
1.11955
1.06776
1.02736
1.01513
0.998395
0.963059
0.929145
0.925662
0.918148
0.896376
0.873416
0.867264
0.865622
0.87712
0.940618
1.12313
1.35602
1.62078
1.71845
1.74766
1.76852
1.78036
1.77121
1.75613
1.74458
1.73351
1.71519
1.70565
1.70696
1.71729
1.71891
1.71318
1.6964
1.66799
1.6326
1.59811
1.57748
1.57084
1.56454
1.56176
1.56805
1.56624
1.5549
1.53683
1.50885
1.47371
1.43289
1.4083
1.39967
1.39371
1.38699
1.37973
1.37516
1.36869
1.35283
1.32567
1.31097
1.30376
1.29717
1.28905
1.28384
1.28377
1.28585
1.28161
1.27394
1.268
1.26283
1.25838
1.25087
1.23611
3.897
3.6885
3.4843
3.30275
3.12734
2.94792
2.78163
2.64587
2.51009
2.36776
2.2351
2.13662
2.0337
1.93284
1.83195
1.75418
1.6689
1.59263
1.53927
1.47437
1.40818
1.36938
1.33279
1.27965
1.23383
1.21127
1.18182
1.13437
1.09109
1.07768
1.0626
1.0272
0.983464
0.972411
0.960041
0.935911
0.910958
0.897603
0.924774
1.03664
1.27997
1.48832
1.63429
1.72269
1.72132
1.70433
1.66816
1.63783
1.62735
1.61701
1.60269
1.59304
1.59817
1.61053
1.6235
1.64635
1.68204
1.69197
1.68362
1.66307
1.63828
1.61008
1.58823
1.57301
1.56779
1.56708
1.57061
1.56498
1.5549
1.53883
1.51414
1.4811
1.44298
1.41404
1.40127
1.39496
1.39064
1.38804
1.38403
1.37591
1.36316
1.33574
1.3104
1.30005
1.29131
1.28549
1.28405
1.29322
1.29696
1.29021
1.27315
1.25489
1.24885
1.24741
1.24648
1.24181
3.96519
3.76701
3.56962
3.38664
3.2144
3.03881
2.88143
2.74228
2.60635
2.46103
2.33981
2.23571
2.13034
2.01814
1.92083
1.84695
1.7646
1.67343
1.61116
1.5612
1.49456
1.44423
1.40668
1.34889
1.29544
1.27168
1.24688
1.20833
1.16262
1.14492
1.12744
1.09367
1.04261
1.02346
1.01342
0.996724
0.999883
1.06926
1.25168
1.52002
1.70844
1.75472
1.78118
1.76434
1.71304
1.66531
1.62854
1.60428
1.58935
1.56743
1.53769
1.49959
1.48237
1.48227
1.48611
1.49856
1.52873
1.56774
1.59133
1.6028
1.60144
1.58517
1.54796
1.52552
1.52223
1.53715
1.56498
1.56648
1.55855
1.537
1.51839
1.49744
1.46796
1.43376
1.40513
1.39467
1.38961
1.38992
1.38667
1.37568
1.36302
1.34385
1.31771
1.30178
1.29345
1.29019
1.29739
1.30102
1.29511
1.28351
1.26367
1.24404
1.2371
1.23582
1.23645
1.24099
4.05385
3.85357
3.66288
3.48258
3.3122
3.14095
2.98256
2.84053
2.70589
2.56716
2.44755
2.33071
2.22185
2.11351
2.01714
1.93261
1.85131
1.7611
1.68965
1.64537
1.57944
1.51575
1.47993
1.43323
1.36718
1.3307
1.30506
1.26957
1.22632
1.20718
1.19005
1.16179
1.11043
1.08095
1.07394
1.12113
1.26441
1.51629
1.76791
1.93871
1.92092
1.87594
1.82436
1.76558
1.71394
1.67037
1.63291
1.60826
1.59141
1.57324
1.55148
1.51593
1.47819
1.46098
1.45146
1.44256
1.43886
1.44654
1.4572
1.45893
1.46119
1.46543
1.46324
1.45723
1.4547
1.46914
1.48797
1.49891
1.50823
1.51911
1.51638
1.50625
1.48434
1.45315
1.42303
1.40129
1.39426
1.38852
1.3732
1.36111
1.35324
1.34581
1.3288
1.30757
1.30322
1.30108
1.29172
1.28325
1.27388
1.26252
1.25117
1.23928
1.22912
1.22805
1.23694
1.24876
4.16665
3.96083
3.76903
3.58741
3.41259
3.24988
3.09708
2.94863
2.79577
2.66218
2.55429
2.44301
2.3222
2.2027
2.11685
2.02711
1.94279
1.84767
1.77715
1.72942
1.66553
1.59415
1.55175
1.51027
1.44438
1.39956
1.37331
1.33917
1.28818
1.25962
1.23972
1.21689
1.18289
1.19198
1.27538
1.53573
1.82897
2.0219
2.09784
2.07954
2.01864
1.94671
1.87614
1.80775
1.74776
1.7039
1.68558
1.6782
1.66758
1.65053
1.62507
1.58088
1.51817
1.4678
1.44879
1.43672
1.4251
1.41432
1.40771
1.40616
1.40667
1.39964
1.38557
1.37199
1.36595
1.3612
1.37259
1.39822
1.41657
1.43212
1.44766
1.46459
1.46708
1.45788
1.44066
1.42187
1.40699
1.38601
1.36593
1.35725
1.34896
1.33709
1.32676
1.31481
1.30095
1.28885
1.27809
1.26933
1.25886
1.24732
1.2439
1.23972
1.22507
1.21772
1.21972
1.2238
4.19805
4.07293
3.87494
3.69103
3.52094
3.35891
3.20334
3.05553
2.90912
2.77417
2.65133
2.53623
2.41715
2.30774
2.21705
2.12492
2.03055
1.92696
1.86811
1.81299
1.74913
1.67282
1.62989
1.58955
1.5252
1.46643
1.43794
1.40285
1.35526
1.32122
1.29757
1.28434
1.34044
1.55003
1.86367
2.12277
2.23328
2.26122
2.22594
2.16355
2.08317
1.99906
1.92153
1.85529
1.8022
1.77959
1.76265
1.75055
1.73511
1.71294
1.68211
1.63809
1.58319
1.53249
1.49595
1.46735
1.43709
1.41397
1.40331
1.3973
1.38806
1.37592
1.37187
1.36868
1.34242
1.29658
1.27747
1.27725
1.28518
1.29669
1.31996
1.35401
1.39017
1.4121
1.41106
1.38909
1.36841
1.36657
1.36568
1.36559
1.35343
1.33793
1.3235
1.30771
1.29363
1.27681
1.26417
1.25474
1.24583
1.24018
1.23724
1.23288
1.22196
1.20842
1.20669
1.20369
4.00875
4.13862
4.00328
3.80512
3.62217
3.46423
3.31689
3.16262
3.00263
2.87599
2.76157
2.64533
2.51623
2.40983
2.31601
2.22279
2.12851
2.02939
1.96052
1.89411
1.82604
1.75188
1.70796
1.66964
1.60588
1.54563
1.50806
1.46658
1.41485
1.387
1.41881
1.5599
1.88505
2.22884
2.38866
2.45454
2.42976
2.36365
2.26672
2.17829
2.11374
2.05725
1.99758
1.93681
1.89979
1.87131
1.84241
1.81736
1.79304
1.76615
1.73567
1.70024
1.65803
1.61161
1.56555
1.52093
1.48156
1.45772
1.44057
1.42228
1.40267
1.38852
1.38029
1.3713
1.35383
1.31903
1.27232
1.24527
1.24038
1.23923
1.24179
1.2536
1.26914
1.2936
1.3063
1.30267
1.30107
1.30963
1.31704
1.32269
1.33958
1.34339
1.33691
1.3222
1.29443
1.26305
1.25116
1.24408
1.23624
1.23292
1.22951
1.2257
1.21929
1.20243
1.18761
1.18103
2.95241
4.01815
4.07795
3.9392
3.74344
3.57121
3.41793
3.27043
3.12417
2.98762
2.85652
2.729
2.61017
2.51857
2.42188
2.32211
2.20845
2.12371
2.06118
1.98956
1.91544
1.83077
1.78483
1.74411
1.68102
1.61343
1.57515
1.54015
1.51693
1.60719
1.90788
2.26167
2.57179
2.69176
2.63646
2.55383
2.46449
2.36962
2.28958
2.22751
2.18626
2.15645
2.11659
2.04786
1.97614
1.93551
1.90233
1.87231
1.84577
1.82001
1.79175
1.75904
1.72293
1.68377
1.63693
1.56967
1.50958
1.49146
1.47896
1.46353
1.44576
1.428
1.41158
1.39233
1.36661
1.33371
1.28507
1.24198
1.23278
1.22971
1.22967
1.23053
1.22713
1.22187
1.21903
1.21324
1.20017
1.20301
1.21747
1.24419
1.2876
1.31656
1.31615
1.30489
1.2804
1.25842
1.24468
1.23779
1.23703
1.2356
1.23021
1.22397
1.21504
1.19324
1.16872
1.16325
1.7424
3.14157
3.99417
4.01689
3.87795
3.69201
3.52905
3.37951
3.23156
3.09512
2.96927
2.83959
2.71499
2.61467
2.51612
2.41702
2.3109
2.22911
2.15455
2.07749
1.9984
1.91963
1.87213
1.8272
1.75901
1.68705
1.65591
1.70972
1.90625
2.30604
2.7613
2.90061
2.87059
2.81326
2.7044
2.59397
2.5002
2.41425
2.3719
2.34267
2.30279
2.25246
2.1952
2.13239
2.06914
2.00975
1.95686
1.91367
1.88225
1.8574
1.83114
1.80341
1.77807
1.7521
1.71822
1.65587
1.56919
1.53028
1.51295
1.49669
1.48028
1.46365
1.44715
1.42917
1.40432
1.36362
1.3048
1.26084
1.25058
1.24549
1.23722
1.22667
1.21982
1.21343
1.2031
1.18483
1.1509
1.13755
1.13879
1.1466
1.17205
1.21613
1.24088
1.24407
1.23616
1.23096
1.22633
1.21271
1.20809
1.20777
1.20357
1.1961
1.18632
1.17112
1.15464
1.15214
1.41612
1.85966
3.25337
3.96226
3.95837
3.83252
3.64417
3.48202
3.34813
3.21735
3.08407
2.93703
2.82077
2.72727
2.6333
2.51761
2.39851
2.32832
2.25492
2.17672
2.08945
2.00849
1.94805
1.89872
1.84457
1.82996
1.95974
2.36486
2.83245
3.05716
3.15935
3.11401
3.0006
2.86775
2.75229
2.66438
2.60343
2.53759
2.46224
2.41372
2.36742
2.31642
2.2676
2.22153
2.17064
2.10371
2.03559
1.98151
1.92821
1.88984
1.86733
1.84692
1.8262
1.80428
1.7754
1.72293
1.64322
1.59042
1.56195
1.53936
1.51993
1.50146
1.48445
1.46715
1.44579
1.41065
1.34646
1.28786
1.27434
1.26908
1.26259
1.2522
1.23929
1.22225
1.20314
1.18073
1.14523
1.11346
1.10943
1.10956
1.11179
1.12197
1.14347
1.15978
1.16139
1.15893
1.1673
1.1769
1.17956
1.18546
1.18472
1.17897
1.16796
1.15531
1.14578
1.14205
1.40016
1.42808
1.95101
3.3174
3.9156
3.9072
3.78662
3.60946
3.45137
3.32334
3.20245
3.06717
2.93378
2.82268
2.72764
2.61922
2.51397
2.43195
2.34758
2.26025
2.16776
2.09586
2.04321
1.99468
2.0873
2.4166
2.93362
3.28171
3.45828
3.41218
3.32842
3.21505
3.08597
2.95675
2.84049
2.74113
2.6702
2.61819
2.55687
2.49314
2.43792
2.38882
2.34327
2.29873
2.24991
2.18453
2.10407
2.03718
1.98668
1.94981
1.92293
1.89625
1.8684
1.83977
1.80367
1.75137
1.68602
1.64218
1.61731
1.5938
1.5688
1.54158
1.51303
1.48547
1.45896
1.43212
1.39613
1.34131
1.30281
1.28691
1.27247
1.25796
1.24477
1.23218
1.21751
1.19121
1.14917
1.11148
1.10025
1.09721
1.09469
1.09431
1.09696
1.09925
1.10021
1.09509
1.09316
1.10623
1.12155
1.13615
1.14535
1.14424
1.13693
1.13006
1.12916
1.12705
1.40001
1.40034
1.44017
2.01995
3.31794
3.86952
3.86539
3.76061
3.58824
3.43878
3.30952
3.17419
3.04746
2.94762
2.84128
2.71038
2.6011
2.53216
2.45352
2.35702
2.25837
2.17925
2.22497
2.47854
3.06268
3.53882
3.79323
3.729
3.64205
3.51316
3.35954
3.2179
3.10421
3.01619
2.93942
2.85899
2.77807
2.7081
2.64465
2.58324
2.52292
2.46438
2.41009
2.35865
2.30546
2.24075
2.15935
2.09326
2.05162
2.01753
1.98694
1.95496
1.91963
1.88182
1.83555
1.77652
1.71896
1.67926
1.65513
1.63461
1.61201
1.58472
1.55368
1.5245
1.49875
1.4681
1.42075
1.36524
1.33728
1.3262
1.31404
1.29709
1.27663
1.25562
1.23376
1.20619
1.16868
1.12786
1.10457
1.09489
1.08971
1.08771
1.08727
1.083
1.07586
1.06489
1.04774
1.04634
1.05303
1.06139
1.07773
1.09117
1.09059
1.08971
1.09477
1.1067
1.40001
1.40001
1.40058
1.4502
2.05091
3.26172
3.83243
3.83298
3.738
3.57021
3.42767
3.28535
3.15661
3.05641
2.94581
2.82569
2.71035
2.62925
2.55014
2.45373
2.4062
2.56082
3.09295
3.68746
4.12953
4.18918
4.08111
3.87732
3.69548
3.54028
3.39535
3.2813
3.19684
3.13859
3.07885
2.98648
2.88021
2.79243
2.72345
2.66719
2.61135
2.54697
2.47808
2.41321
2.35367
2.29204
2.22151
2.15858
2.11283
2.07436
2.03946
2.00334
1.96317
1.92156
1.87865
1.8286
1.77039
1.71509
1.67721
1.65188
1.62892
1.60707
1.58485
1.55795
1.52937
1.5008
1.45804
1.39294
1.35625
1.34621
1.33881
1.32658
1.3074
1.28682
1.26793
1.24798
1.21644
1.16957
1.12188
1.09664
1.08892
1.08545
1.08208
1.07695
1.0694
1.05771
1.03445
1.01554
1.01548
1.01546
1.02026
1.03616
1.04544
1.04258
1.04208
1.05983
1.40001
1.40001
1.40001
1.4008
1.45572
2.02617
3.19479
3.80499
3.79353
3.70225
3.56109
3.39664
3.26382
3.16871
3.05197
2.93801
2.81144
2.733
2.66318
2.75404
3.16872
3.88715
4.35974
4.51255
4.45739
4.29372
4.10684
3.92568
3.76756
3.63999
3.52869
3.42878
3.3488
3.27755
3.19661
3.09356
2.97484
2.86314
2.77844
2.72254
2.67339
2.6149
2.54774
2.48014
2.41576
2.35515
2.29149
2.22066
2.15478
2.10307
2.06171
2.02243
1.98463
1.9479
1.91339
1.88034
1.83586
1.77362
1.71694
1.67593
1.64335
1.6137
1.59734
1.5864
1.57046
1.53673
1.46201
1.39165
1.37194
1.3613
1.35057
1.34113
1.32808
1.3068
1.28181
1.2511
1.20983
1.16309
1.13104
1.11208
1.09941
1.09027
1.08069
1.07195
1.06586
1.05609
1.03352
1.00832
1.00392
1.0031
1.00387
1.00767
1.00796
1.00203
0.996914
1.00446
1.40001
1.40001
1.40001
1.40001
1.40091
1.45368
1.96933
3.17426
3.72823
3.71783
3.68028
3.54371
3.3859
3.27018
3.14911
3.03601
2.93157
2.9256
3.24214
4.06339
4.70211
5.07923
4.99634
4.83756
4.60953
4.36645
4.16026
4.00736
3.8669
3.75639
3.66282
3.57076
3.48316
3.3937
3.29363
3.18237
3.06305
2.94754
2.85066
2.78109
2.72715
2.66984
2.60511
2.53773
2.46971
2.40518
2.3464
2.2849
2.21084
2.14349
2.08968
2.04534
2.00975
1.97831
1.94519
1.90258
1.83516
1.75043
1.71509
1.69807
1.67465
1.65004
1.62587
1.59858
1.56489
1.51663
1.4585
1.41456
1.39664
1.38105
1.36451
1.35134
1.34035
1.32924
1.30764
1.27485
1.23047
1.17554
1.14055
1.12458
1.11292
1.10312
1.09424
1.08324
1.07366
1.06603
1.04735
1.01577
1.00513
1.00382
0.998898
0.991226
0.985991
0.980561
0.975952
0.977305
1.40001
1.40001
1.40001
1.40001
1.40001
1.40086