/*--------------------------------*- C++ -*----------------------------------*\
  =========                 |
  \\      /  F ield         | OpenFOAM: The Open Source CFD Toolbox
   \\    /   O peration     | Website:  https://openfoam.org
    \\  /    A nd           | Version:  7
     \\/     M anipulation  |
\*---------------------------------------------------------------------------*/
FoamFile
{
    version     2.0;
    format      ascii;
    class       volScalarField;
    location    "1.6";
    object      p;
}
// * * * * * * * * * * * * * * * * * * * * * * * * * * * * * * * * * * * * * //

dimensions      [1 -1 -2 0 0 0 0];

internalField   nonuniform List<scalar> 
4032
(
1
1
1
1
1
1
1
1
1
1
1
1
3.40139
9.99495
10.8135
10.9881
11.1898
11.3576
11.5147
11.6635
11.8064
11.9208
11.9933
12.0459
1
1
1
1
1
1
1
1
1
1
1
1
3.28724
9.86306
10.7763
10.9528
11.1548
11.3229
11.4793
11.6229
11.7579
11.8617
11.9267
11.9768
1
1
1
1
1
1
1
1
1
1
1
1
3.00703
9.63853
10.7101
10.8849
11.0952
11.2688
11.4263
11.5628
11.6865
11.7797
11.8368
11.8885
1
1
1
1
1
1
1
1
1
1
1
1
2.59199
9.27891
10.6413
10.8085
11.0219
11.1927
11.3447
11.4716
11.5863
11.6709
11.7146
11.7577
1
1
1
1
1
1
1
1
1
1
1
1
2.0974
8.75493
10.5912
10.7413
10.9394
11.0967
11.2342
11.341
11.4327
11.5008
11.5329
11.5957
1
1
1
1
1
1
1
1
1
1
1
1
1.57351
8.04726
10.5285
10.6105
10.7988
10.9506
11.0802
11.174
11.2514
11.3111
11.3193
11.3016
1
1
1
1
1
1
1
1
1
1
1
1
1.08428
7.11465
10.5046
10.5364
10.6778
10.791
10.8751
10.9314
10.957
10.9248
10.8705
10.8364
1
1
1
1
1
1
1
1
1
1
1
1
1.00136
5.87663
10.0489
10.2106
10.3538
10.4784
10.5512
10.5826
10.5601
10.5006
10.404
10.4313
1
1
1
1
1
1
1
1
1
1
1
1
0.999998
4.43826
9.60717
10.1016
10.2045
10.2883
10.307
10.2778
10.1573
9.90499
9.14118
7.2632
1
1
1
1
1
1
1
1
1
1
1
1
0.999999
2.92015
8.84274
9.94735
10.0319
10.1043
10.0747
9.95798
9.71631
9.24117
8.42936
6.35918
1
1
1
1
1
1
1
1
1
1
1
1
1
1.54106
7.81317
9.99161
9.93403
9.89523
9.80175
9.60968
9.29239
8.71555
7.86298
5.94047
1
1
1
1
1
1
1
1
1
1
1
1
1
1.03347
6.1506
9.48915
9.60411
9.58454
9.47707
9.25287
8.89665
8.33091
7.39049
5.84229
1
1
1
1
1
1
1
1
1
1
1
1
1
0.999988
3.83547
8.88946
9.47937
9.4317
9.27641
8.99772
8.57827
8.00408
7.06466
5.8512
1
1
1
1
1
1
1
1
1
1
1
1
1
0.99999
1.78881
7.97488
9.4886
9.24337
9.01211
8.70447
8.28638
7.70209
6.86993
5.92171
1
1
1
1
1
1
1
1
1
1
1
1
1
0.999998
1.05582
6.09852
9.06585
8.84707
8.69408
8.41156
8.03518
7.47241
6.76677
5.97833
1
1
1
1
1
1
1
1
1
1
1
1
1
1
1.00013
3.315
8.33568
8.70937
8.56071
8.27258
7.87005
7.34993
6.73195
6.0441
1
1
1
1
1
1
1
1
1
1
1
1
1
1
0.999998
1.3434
6.76088
8.68161
8.43124
8.12539
7.72044
7.24201
6.68844
6.08481
1
1
1
1
1
1
1
1
1
1
1
1
1
1
0.999999
1.00959
4.09775
8.08021
8.23747
7.97487
7.61088
7.16222
6.65316
6.12294
1
1
1
1
1
1
1
1
1
1
1
1
1
1
1
0.999996
1.58949
6.75418
8.23
7.89712
7.53965
7.11076
6.63963
6.16093
1
1
1
1
1
1
1
1
1
1
1
1
1
1
1
0.999999
1.02709
4.14835
7.72586
7.75225
7.42722
7.04264
6.61502
6.1812
1
1
1
1
1
1
1
1
1
1
1
1
1
1
1
1
1.00009
1.62209
6.25479
7.75556
7.38418
7.03495
6.63927
6.23173
1
1
1
1
1
1
1
1
1
1
1
1
1
1
1
1
1
1.02904
3.39363
7.14263
7.32819
6.99316
6.63653
6.25727
1
1
1
1
1
1
1
1
1
1
1
1
1
1
1
1
1
1.00018
1.37979
5.35029
7.38939
7.02059
6.6745
6.30123
1
1
1
1
1
1
1
1
1
1
1
1
1
1
1
1
1
1
1.01163
2.41528
6.30668
7.01408
6.6394
6.29836
1
1
1
1
1
1
1
1
1
1
1
1
1
1
1
1
1
1
1.00007
1.13736
3.92108
6.68593
6.65956
6.35411
1
1
1
1
1
1
1
1
1
1
1
1
1
1
1
1
1
1
1
1.00229
1.59588
5.08037
6.65244
6.42847
1
1
1
1
1
1
1
1
1
1
1
1
1
1
1
1
1
1
1
1.00001
1.028
2.36113
5.69146
6.4352
1
1
1
1
1
1
1
1
1
1
1
1
1
1
1
1
1
1
1
1
1.00027
1.13178
3.25683
5.89456
1
1
1
1
1
1
1
1
1
1
1
1
1
1
1
1
1
1
1
1
1
1.00252
1.36465
4.04401
1
1
1
1
1
1
1
1
1
1
1
1
1
1
1
1
1
1
1
1
1
1.00001
1.013
1.73306
1
1
1
1
1
1
1
1
1
1
1
1
1
1
1
1
1
1
1
1
1
1
1.0001
1.04413
1
1
1
1
1
1
1
1
1
1
1
1
1
1
1
1
1
1
1
1
1
1
1
1.00057
1
1
1
1
1
1
1
1
1
1
1
1
1
1
1
1
1
1
1
1
1
1
1
1
1
1
1
1
1
1
1
1
1
1
1
1
1
1
1
1
1
1
1
1
1
1
1
1
1
1
1
1
1
1
1
1
1
1
1
1
1
1
1
1
1
1
1
1
1
1
1
1
1
1
1
1
1
1
1
1
1
1
1
1
1
1
1
1
1
1
1
1
1
1
1
1
1
1
1
1
1
1
1
1
1
1
1
1
1
1
1
1
1
1
1
1
1
1
1
1
1
1
1
1
1
1
1
1
1
1
1
1
1
1
1
1
1
1
1
1
1
1
1
1
1
1
1
1
1
1
1
1
1
1
1
1
1
1
1
1
1
1
1
1
1
1
1
1
1
1
1
1
1
1
1
1
1
1
1
1
1
1
1
1
1
1
1
1
1
1
1
1
1.6272
0.46213
0.139096
0.1112
0.145922
0.24457
0.339442
0.463727
0.657317
0.809333
0.924103
0.969977
1.01556
1.08792
1.18565
1.24516
1.26908
1.25965
1.23966
1.23172
1.22819
1.22247
1.20883
1.2091
1.21689
1.22169
1.22689
1.24001
1.24538
1.24391
1.24096
1.23326
1.23024
1.22684
1.22294
1.22857
1.24106
1.23664
1.22591
1.20784
1.19263
1.18886
1.18644
1.18481
1.18819
1.18678
1.1843
1.21816
1.39257
1.84557
2.6166
3.47586
4.25588
4.85343
5.28598
5.33367
5.20882
5.06538
4.80737
4.58082
4.41383
4.27675
4.1806
4.09892
4.02474
3.96445
3.90682
3.83855
3.75187
3.63903
3.55363
3.50305
3.45727
3.41957
3.38362
3.33892
3.27799
3.18609
3.07443
2.98189
2.92394
2.8844
2.84903
2.81414
2.77749
2.73988
2.69483
2.62981
2.52462
2.4177
2.3751
2.35124
2.33003
2.3218
2.34457
2.30883
2.70796
1.46985
0.964269
0.606172
0.523735
0.530822
0.507038
0.493757
0.513143
0.540987
0.608195
0.698944
0.779333
0.853998
0.960441
1.07842
1.13717
1.16267
1.17473
1.18341
1.19562
1.21032
1.20818
1.20347
1.20684
1.2095
1.21549
1.2329
1.24467
1.24558
1.24363
1.2389
1.237
1.23284
1.22644
1.2258
1.23038
1.22539
1.21897
1.21089
1.19884
1.19127
1.18702
1.18194
1.17845
1.19186
1.27095
1.50937
1.93848
2.35639
2.52525
2.70547
3.08102
3.55379
3.95227
4.22894
4.42152
4.56377
4.56124
4.51834
4.42541
4.32992
4.24905
4.15593
4.05733
3.9813
3.92136
3.84791
3.7605
3.66552
3.56786
3.48014
3.41543
3.37243
3.33345
3.2939
3.24302
3.17661
3.09771
3.01267
2.93446
2.88483
2.85138
2.82239
2.78651
2.74676
2.70265
2.64713
2.56808
2.46008
2.3816
2.34986
2.32836
2.31535
2.31876
2.28725
3.62332
2.31626
1.72116
1.28974
0.976099
0.84283
0.746882
0.622493
0.587515
0.565833
0.572356
0.631629
0.704427
0.750396
0.805502
0.911781
0.993712
1.05311
1.1243
1.17094
1.19698
1.22287
1.22867
1.22186
1.22745
1.23384
1.23812
1.243
1.24469
1.24401
1.23768
1.23075
1.22809
1.22659
1.22539
1.22955
1.23209
1.22807
1.22308
1.21524
1.20406
1.19422
1.18853
1.19005
1.22096
1.36513
1.732
2.18787
2.47653
2.57765
2.57753
2.58923
2.57615
2.66522
2.90652
3.28924
3.6769
4.03134
4.26697
4.41595
4.40249
4.3907
4.33299
4.22944
4.10484
3.99243
3.90019
3.81098
3.71934
3.64053
3.56036
3.47841
3.4021
3.34055
3.29975
3.25778
3.21021
3.16548
3.12094
3.06597
2.99477
2.91586
2.85433
2.80976
2.76604
2.72126
2.67943
2.63882
2.58876
2.51439
2.41912
2.35644
2.3321
2.31434
2.30135
2.26154
4.27056
3.1493
2.393
1.89329
1.52125
1.27507
1.09329
0.93286
0.859562
0.79787
0.721811
0.70232
0.690116
0.685037
0.699267
0.744757
0.81691
0.89745
0.986166
1.06142
1.09127
1.12343
1.16231
1.17828
1.19791
1.22779
1.25194
1.25895
1.25962
1.25653
1.25038
1.23488
1.2217
1.21999
1.221
1.22212
1.22045
1.22035
1.21838
1.20896
1.19895
1.19264
1.20358
1.25457
1.48214
1.97166
2.37639
2.63818
2.70782
2.67829
2.62326
2.5394
2.48461
2.46162
2.44681
2.50762
2.6754
3.00268
3.43868
3.847
4.05291
4.12619
4.12056
4.08006
4.00883
3.96073
3.91913
3.86481
3.79371
3.71473
3.62279
3.52786
3.43539
3.34742
3.27828
3.22181
3.16992
3.13001
3.09187
3.04572
2.9879
2.91593
2.84029
2.78616
2.74671
2.70774
2.67026
2.63446
2.59323
2.53795
2.46328
2.38583
2.33008
2.30059
2.28004
2.23523
4.65141
3.73823
3.03087
2.42445
2.0192
1.72757
1.46955
1.24634
1.11213
1.00833
0.901552
0.843413
0.804605
0.752252
0.725839
0.735363
0.742967
0.764236
0.81257
0.885137
0.94695
0.9993
1.0671
1.11223
1.13246
1.15858
1.20054
1.21375
1.21417
1.22616
1.24702
1.25351
1.25237
1.25241
1.24863
1.23794
1.222
1.20916
1.19569
1.18453
1.18735
1.21306
1.33173
1.64366
2.16482
2.60617
2.75442
2.7538
2.70572
2.62997
2.57464
2.5347
2.50076
2.46399
2.4176
2.36294
2.32115
2.34033
2.46436
2.73933
3.11393
3.4732
3.66433
3.78216
3.82185
3.81639
3.78951
3.78872
3.79413
3.75874
3.69269
3.60328
3.499
3.38225
3.26773
3.17754
3.12356
3.08943
3.04962
3.00372
2.95955
2.90894
2.83452
2.76543
2.73225
2.70292
2.67016
2.63493
2.59497
2.54944
2.49867
2.43767
2.36247
2.29028
2.23918
2.19142
4.98187
4.16022
3.48925
2.93267
2.4612
2.105
1.82296
1.57721
1.40414
1.27479
1.13384
1.03512
0.984726
0.92366
0.863628
0.835049
0.799966
0.777894
0.775673
0.782028
0.798129
0.829553
0.891864
0.974766
1.02845
1.06582
1.12834
1.16231
1.1691
1.18422
1.21155
1.2264
1.24277
1.25299
1.25192
1.24429
1.22902
1.20722
1.18576
1.18275
1.21538
1.41737
1.87515
2.36909
2.75001
2.78927
2.74762
2.71148
2.6933
2.66134
2.6102
2.56243
2.5163
2.45806
2.38534
2.32218
2.27815
2.24889
2.22942
2.2351
2.307
2.47055
2.73598
3.01278
3.27719
3.43012
3.52157
3.59396
3.65496
3.65121
3.61893
3.58447
3.53364
3.45187
3.33311
3.20958
3.14293
3.10044
3.05042
2.9992
2.95472
2.90253
2.82764
2.74752
2.70877
2.6859
2.65634
2.61677
2.57585
2.53889
2.50357
2.45994
2.39407
2.30079
2.22222
2.16836
5.20439
4.49955
3.84244
3.31035
2.86626
2.47906
2.16168
1.89051
1.66899
1.5161
1.393
1.27749
1.17568
1.08334
0.995173
0.939066
0.887657
0.824044
0.80748
0.796793
0.792376
0.799511
0.814286
0.844922
0.881175
0.91844
0.966052
1.02895
1.07603
1.10716
1.1597
1.19566
1.22031
1.23598
1.23718
1.23196
1.21928
1.2036
1.20103
1.25088
1.52209
2.12292
2.60164
2.7739
2.8109
2.7946
2.76962
2.72602
2.67961
2.64322
2.59522
2.54262
2.49435
2.43405
2.35961
2.30773
2.26822
2.22476
2.19512
2.17382
2.14994
2.13432
2.13497
2.19904
2.35086
2.56271
2.81761
3.03136
3.23544
3.35052
3.43516
3.45503
3.43893
3.40845
3.34702
3.25374
3.17333
3.1165
3.06802
3.02616
2.97818
2.91235
2.83276
2.74756
2.67325
2.6328
2.60073
2.56722
2.53935
2.51483
2.48805
2.45652
2.41182
2.33226
2.23683
2.17101
5.38253
4.73985
4.13379
3.64388
3.19706
2.7869
2.45756
2.19959
1.95651
1.74523
1.602
1.49127
1.36697
1.26757
1.18391
1.109
1.03806
0.954667
0.916676
0.890722
0.851898
0.833709
0.833748
0.822891
0.811413
0.814435
0.826945
0.856213
0.907942
0.966866
1.03625
1.1279
1.16185
1.19119
1.20521
1.20012
1.19353
1.20703
1.34058
1.70175
2.33661
2.76238
2.84617
2.85993
2.84281
2.79058
2.7434
2.68473
2.62823
2.59562
2.56749
2.52716
2.48228
2.42396
2.36327
2.30846
2.24593
2.19674
2.16901
2.1414
2.11384
2.08798
2.06854
2.04034
2.00441
1.98612
2.04243
2.17199
2.38379
2.63931
2.8825
3.06904
3.1799
3.24716
3.2395
3.20923
3.13891
3.08649
3.0684
3.04485
3.00704
2.95172
2.8804
2.79303
2.68746
2.60848
2.56378
2.53343
2.50966
2.48679
2.45908
2.433
2.40391
2.35431
2.28397
2.19479
5.50237
4.91057
4.3723
3.91122
3.47192
3.05764
2.75039
2.46328
2.21294
1.98517
1.83826
1.6931
1.55351
1.42782
1.35158
1.26918
1.18654
1.10387
1.04803
1.00169
0.943363
0.887923
0.868659
0.845259
0.819249
0.815892
0.817887
0.817699
0.821436
0.840882
0.880999
0.949807
1.02034
1.07926
1.14221
1.14958
1.17145
1.42536
1.98537
2.51355
2.91893
2.91285
2.87629
2.83943
2.80634
2.73912
2.66962
2.61893
2.57893
2.55348
2.53925
2.50903
2.46304
2.40497
2.34959
2.29089
2.21891
2.16317
2.13138
2.10676
2.08306
2.06361
2.04189
2.01095
1.9759
1.94749
1.88821
1.82647
1.8325
1.89396
2.02821
2.24195
2.46976
2.68837
2.85561
2.97738
3.02294
2.97398
2.94879
2.94822
2.95197
2.93362
2.90101
2.84397
2.74654
2.6484
2.57148
2.52362
2.49397
2.46203
2.42722
2.38693
2.35119
2.32089
2.28735
2.21841
5.59574
5.05539
4.56974
4.13501
3.69759
3.30783
3.00292
2.71954
2.44888
2.22298
2.05543
1.88718
1.74008
1.61093
1.51566
1.41835
1.32552
1.23613
1.18147
1.12955
1.07037
1.00476
0.969582
0.935334
0.880981
0.861601
0.851826
0.833232
0.819353
0.818013
0.820157
0.826216
0.85007
0.893083
0.969017
1.06366
1.35936
2.10656
2.62526
2.8973
2.9824
2.96873
2.92342
2.83117
2.7735
2.71343
2.64291
2.60301
2.56904
2.5336
2.50589
2.46821
2.41252
2.36297
2.32421
2.28198
2.21817
2.14408
2.09642
2.06775
2.04423
2.02566
2.00448
1.97503
1.94422
1.91446
1.88233
1.84066
1.76889
1.70835
1.68794
1.70408
1.75872
1.8774
2.05951
2.27091
2.48138
2.63396
2.71833
2.76496
2.77146
2.79516
2.79504
2.76638
2.72208
2.68106
2.62562
2.5646
2.5142
2.47108
2.4304
2.3858
2.33886
2.29162
2.25824
2.20513
5.67251
5.17178
4.72757
4.31635
3.89415
3.53888
3.23273
2.94803
2.6636
2.45344
2.26328
2.08517
1.91426
1.78467
1.67825
1.56637
1.46955
1.37924
1.31296
1.24649
1.1741
1.109
1.06874
1.02802
0.970813
0.92926
0.905123
0.875983
0.838438
0.827126
0.823199
0.818226
0.818753
0.825964
0.875556
1.16706
1.90219
2.45053
2.6668
2.79421
2.81969
2.80392
2.75292
2.73873
2.70972
2.68951
2.6641
2.62133
2.57153
2.51004
2.45483
2.40497
2.35534
2.32116
2.30298
2.27511
2.22678
2.15106
2.06901
2.02351
1.99359
1.96707
1.94077
1.92038
1.90676
1.88873
1.86566
1.83523
1.78877
1.71268
1.6497
1.61859
1.59711
1.58594
1.5982
1.65156
1.74587
1.89239
2.04336
2.21574
2.3549
2.49619
2.58619
2.57364
2.57767
2.57617
2.56643
2.53424
2.49969
2.47844
2.45561
2.41942
2.37935
2.32836
2.27321
2.19435
5.73417
5.27694
4.86838
4.47539
4.0756
3.74349
3.44432
3.14346
2.86276
2.66144
2.45804
2.27116
2.08287
1.95758
1.83074
1.711
1.59611
1.51368
1.44396
1.36648
1.29113
1.21971
1.1749
1.12787
1.06817
1.02383
0.99425
0.962523
0.915908
0.886846
0.863372
0.842135
0.849358
0.918069
1.22229
1.76839
2.3341
2.35229
2.38364
2.39551
2.40533
2.43554
2.4766
2.52263
2.57793
2.60443
2.5948
2.56016
2.50317
2.43796
2.37789
2.34221
2.31094
2.30598
2.30188
2.2671
2.2157
2.15039
2.06661
1.99419
1.94988
1.9189
1.89407
1.87212
1.85642
1.84817
1.83055
1.80852
1.77489
1.7243
1.66641
1.61249
1.57026
1.5389
1.51659
1.50525
1.49966
1.50694
1.53125
1.58131
1.68243
1.82007
1.99369
2.17207
2.26793
2.32451
2.39161
2.39621
2.37924
2.36987
2.35909
2.37129
2.37481
2.35518
2.31037
2.2147
5.81101
5.38702
4.997
4.61648
4.24514
3.92829
3.63162
3.3173
3.05478
2.84425
2.63937
2.43294
2.25253
2.12143
1.97987
1.85307
1.72508
1.64819
1.56781
1.48539
1.39813
1.33446
1.28497
1.23081
1.16599
1.11735
1.08015
1.04113
0.994223
0.946668
0.913632
0.902913
0.996736
1.40022
1.9468
2.37268
2.38433
2.31686
2.22357
2.1635
2.14748
2.16009
2.18825
2.21561
2.25974
2.31849
2.36348
2.37115
2.34287
2.30283
2.27767
2.26894
2.27275
2.28883
2.27806
2.24231
2.19142
2.12965
2.06376
1.9923
1.92632
1.88795
1.86379
1.83633
1.80606
1.77907
1.76033
1.74194
1.7255
1.7058
1.67597
1.63586
1.58415
1.52705
1.4849
1.46271
1.44838
1.43434
1.42383
1.41751
1.41482
1.42337
1.4615
1.54667
1.67416
1.78231
1.88393
1.9879
2.10362
2.14765
2.16944
2.21767
2.26133
2.26588
2.25263
2.20247
5.86345
5.47596
5.10511
4.73394
4.38316
4.08031
3.78774
3.47555
3.22411
3.00857
2.80368
2.58204
2.41779
2.27446
2.13057
1.98719
1.85948
1.7819
1.68889
1.6023
1.51086
1.44534
1.38764
1.32606
1.25794
1.21038
1.16921
1.1313
1.07903
1.0262
1.03235
1.16086
1.67829
2.25161
2.55271
2.5567
2.46203
2.33316
2.21991
2.14124
2.11085
2.08665
2.0738
2.05916
2.03659
2.01918
2.00621
2.0093
2.01522
2.03356
2.0744
2.10934
2.12783
2.13615
2.1471
2.15058
2.13077
2.09388
2.04846
1.9852
1.9216
1.88555
1.85353
1.81503
1.77416
1.73541
1.70811
1.68737
1.6704
1.662
1.64862
1.6221
1.58664
1.53209
1.46809
1.43554
1.419
1.40358
1.39026
1.37437
1.35794
1.35087
1.34416
1.33647
1.32739
1.32705
1.35357
1.40792
1.49414
1.61304
1.73492
1.83943
1.94342
2.03895
2.11928
2.10626
5.92445
5.56193
5.20879
4.84919
4.51214
4.21556
3.9245
3.62993
3.38494
3.16772
2.9506
2.72932
2.57481
2.42474
2.2803
2.1137
2.00049
1.9132
1.81329
1.71499
1.61727
1.55887
1.49099
1.42477
1.35261
1.29978
1.25717
1.20971
1.15433
1.16797
1.34422
1.96115
2.61418
2.78865
2.75749
2.64812
2.52144
2.40877
2.32112
2.23296
2.16271
2.1119
2.06391
2.02154
1.97894
1.94168
1.91512
1.89226
1.85204
1.80497
1.79358
1.80871
1.84232
1.87206
1.91141
1.94226
1.95378
1.9703
1.97227
1.94202
1.9039
1.87489
1.84114
1.80323
1.75969
1.70958
1.67328
1.65292
1.63717
1.61982
1.60523
1.58833
1.56271
1.52531
1.47165
1.41933
1.39756
1.38348
1.36818
1.34932
1.33028
1.30906
1.29046
1.28017
1.26913
1.25
1.21811
1.18947
1.17772
1.19348
1.23757
1.31269
1.41694
1.53649
1.6684
1.79761
5.95538
5.61634
5.27868
4.9459
4.63392
4.33588
4.04526
3.77501
3.54211
3.31916
3.0901
2.8792
2.72489
2.57347
2.42003
2.25092
2.14264
2.03828
1.93355
1.82225
1.73154
1.6676
1.59136
1.52105
1.44398
1.38538
1.34691
1.2948
1.33671
1.63794
2.29178
2.99009
3.05661
2.97467
2.852
2.72484
2.62089
2.5394
2.463
2.3707
2.26671
2.1798
2.10865
2.04687
1.99015
1.9352
1.88608
1.84649
1.81623
1.78905
1.74639
1.68544
1.64804
1.63609
1.6449
1.6709
1.69398
1.7367
1.7832
1.80568
1.81888
1.80217
1.76998
1.74937
1.71971
1.68681
1.65786
1.63706
1.60861
1.58361
1.55968
1.54089
1.52394
1.50154
1.46249
1.40833
1.37592
1.36076
1.34425
1.32676
1.30807
1.28464
1.25882
1.23625
1.21933
1.20672
1.19359
1.17544
1.1597
1.12956
1.10436
1.09721
1.10503
1.12967
1.17426
1.28812
6.03229
5.70674
5.37363
5.05956
4.76733
4.47193
4.17457
3.92269
3.69346
3.4653
3.23106
3.0326
2.8706
2.7082
2.54174
2.38475
2.27843
2.16268
2.05107
1.92287
1.84094
1.76881
1.69125
1.61573
1.53389
1.47309
1.43443
1.53061
2.04721
2.77383
3.33561
3.36109
3.22179
3.06199
2.92453
2.82608
2.7449
2.66814
2.58409
2.48866
2.37837
2.26863
2.1808
2.11422
2.05431
1.9946
1.93809
1.88779
1.83842
1.79048
1.74179
1.6883
1.62934
1.59733
1.57228
1.54779
1.52944
1.52869
1.54271
1.55695
1.58534
1.60499
1.60015
1.58765
1.60235
1.61636
1.59661
1.56361
1.55969
1.5495
1.52602
1.49854
1.47918
1.46112
1.42856
1.38046
1.35487
1.34011
1.326
1.3118
1.2927
1.26488
1.23433
1.20993
1.18832
1.16777
1.15739
1.15345
1.14511
1.12622
1.09499
1.06826
1.05072
1.04182
1.03753
1.04188
6.10227
5.78198
5.45625
5.15709
4.87414
4.58397
4.29408
4.05741
3.82673
3.59583
3.35655
3.17868
3.00484
2.83705
2.65781
2.51956
2.40532
2.27859
2.15812
2.03294
1.95701
1.87247
1.79242
1.69786
1.62263
1.59806
1.75043
2.46043
3.34882
3.73014
3.68561
3.51396
3.30454
3.14352
3.02401
2.94527
2.87093
2.7852
2.69459
2.60038
2.49593
2.38075
2.27355
2.18851
2.11587
2.05025
1.99239
1.93801
1.88106
1.82181
1.76385
1.70805
1.65032
1.59812
1.55841
1.52419
1.49908
1.46964
1.44229
1.42936
1.42598
1.41946
1.40841
1.38862
1.38356
1.40814
1.42027
1.42816
1.45727
1.47434
1.45988
1.43574
1.42456
1.40467
1.36955
1.3496
1.33677
1.32194
1.30769
1.29468
1.27563
1.24715
1.21774
1.19238
1.1694
1.14858
1.13199
1.11811
1.10619
1.09868
1.08613
1.05992
1.03268
1.01833
1.0109
0.996327
6.16796
5.83853
5.53017
5.23921
4.9583
4.67526
4.40838
4.16963
3.93875
3.702
3.48477
3.31453
3.13613
2.9542
2.76264
2.64377
2.52171
2.39614
2.25853
2.14569
2.06371
1.97328
1.88246
1.78946
1.77683
2.02863
2.84825
3.87564
4.10868
4.0097
3.78086
3.56549
3.38848
3.24921
3.14771
3.05994
2.9715
2.87822
2.78471
2.69302
2.59636
2.48406
2.36399
2.26406
2.1866
2.12029
2.05774
1.99459
1.93197
1.87101
1.8124
1.75364
1.69393
1.64054
1.59283
1.54699
1.50255
1.4559
1.4172
1.39821
1.38208
1.36125
1.34105
1.30251
1.25392
1.24386
1.24753
1.24883
1.25924
1.28716
1.29958
1.30742
1.32129
1.32412
1.30754
1.28013
1.26903
1.25934
1.24566
1.23229
1.22208
1.21294
1.20353
1.18611
1.16118
1.13852
1.11828
1.10093
1.08198
1.0585
1.04385
1.0333
1.01724
1.00211
0.993311
0.975685
6.23324
5.93153
5.60395
5.33085
5.05765
4.77635
4.52575
4.28844
4.05838
3.81527
3.61371
3.43511
3.25683
3.0723
2.89561
2.77154
2.63424
2.504
2.36164
2.26349
2.17294
2.07877
1.97616
2.02586
2.4735
3.40999
4.34042
4.4481
4.2841
4.05737
3.85958
3.69356
3.53515
3.38587
3.26199
3.15467
3.05114
2.94745
2.84936
2.75978
2.67272
2.57424
2.4574
2.34313
2.25358
2.18466
2.12504
2.06519
2.00102
1.93259
1.86376
1.79755
1.7354
1.67845
1.625
1.57321
1.52424
1.47655
1.43459
1.40322
1.3706
1.33702
1.31004
1.27994
1.23079
1.19769
1.18883
1.17576
1.156
1.14761
1.14388
1.14103
1.14296
1.15551
1.18404
1.18707
1.18222
1.18686
1.18398
1.16852
1.14929
1.14085
1.13988
1.14732
1.14507
1.13314
1.11384
1.09302
1.06936
1.04175
1.01316
0.998718
0.992839
0.986045
0.976756
0.95945
5.93688
6.00594
5.72445
5.41996
5.14113
4.87771
4.63635
4.40328
4.1679
3.92886
3.74082
3.55573
3.38082
3.1778
3.02549
2.89371
2.74955
2.61094
2.47257
2.36421
2.27607
2.19335
2.30953
3.04611
4.19016
4.78244
4.78287
4.56924
4.32365
4.12935
3.98519
3.85966
3.69572
3.50463
3.34376
3.22439
3.12211
3.02186
2.9226
2.82521
2.72828
2.62793
2.51993
2.41039
2.31358
2.23488
2.1697
2.11057
2.05251
1.99097
1.92338
1.85006
1.77631
1.7107
1.65703
1.6122
1.57078
1.52756
1.47994
1.43292
1.39106
1.35051
1.31692
1.28769
1.23849
1.18678
1.17019
1.15166
1.13072
1.11339
1.09325
1.07493
1.05569
1.04054
1.04282
1.04503
1.0433
1.05252
1.07324
1.07429
1.05573
1.0435
1.04802
1.06196
1.07324
1.07999
1.08389
1.07819
1.05979
1.03012
0.996481
0.97016
0.95686
0.945202
0.937608
0.929958
4.53972
5.86382
5.84509
5.55111
5.23929
4.98491
4.74843
4.51291
4.27079
4.05651
3.86163
3.67527
3.48045
3.28702
3.1525
3.01414
2.87087
2.70522
2.56446
2.47606
2.42618
2.68825
3.69991
5.06483
5.38928
5.17849
4.92859
4.67866
4.44985
4.27612
4.13047
3.97956
3.80046
3.60821
3.43745
3.30377
3.19415
3.09208
2.99078
2.88765
2.78072
2.6714
2.56525
2.46611
2.37546
2.29483
2.22266
2.15441
2.09004
2.02927
1.96848
1.90423
1.83439
1.76216
1.69528
1.64012
1.60046
1.5634
1.51935
1.47596
1.43713
1.39263
1.34027
1.29335
1.24669
1.20316
1.18143
1.16233
1.13471
1.10328
1.07569
1.05369
1.03346
1.00933
0.993106
0.982571
0.970724
0.961523
0.957577
0.954568
0.951422
0.944349
0.940518
0.947884
0.96555
0.985284
1.00371
1.01425
1.01183
0.99843
0.971601
0.942614
0.925549
0.914529
0.906879
0.898612
2.12712
4.84191
5.75616
5.67049
5.3761
5.08537
4.84712
4.62489
4.39025
4.16583
3.97343
3.79742
3.60487
3.40449
3.25967
3.11722
2.98563
2.82046
2.67061
2.69651
3.20196
4.53965
5.82475
5.93677
5.65691
5.26244
4.99552
4.79456
4.61093
4.43335
4.25643
4.06667
3.87446
3.6973
3.54017
3.40085
3.27764
3.1637
3.05205
2.94007
2.82752
2.7158
2.6082
2.50774
2.41738
2.3392
2.26944
2.19996
2.12663
2.05271
1.98647
1.93105
1.87706
1.81843
1.75244
1.67247
1.59947
1.55795
1.52631
1.49593
1.46722
1.43549
1.39451
1.34281
1.27559
1.21631
1.18503
1.16179
1.13915
1.11472
1.08543
1.05866
1.03121
1.00349
0.984397
0.967702
0.947477
0.92579
0.910828
0.902609
0.894299
0.878649
0.861855
0.854818
0.858552
0.872641
0.888917
0.900942
0.905822
0.904445
0.894656
0.875552
0.86569
0.865303
0.868453
0.867901
1.0991
2.50834
4.99223
5.62521
5.51412
5.23002
4.95656
4.72207
4.48924
4.28566
4.09488
3.91084
3.6989
3.52228
3.37914
3.23165
3.08574
2.92452
3.05365
3.94754
5.44822
6.55251
6.53301
6.21929
5.79336
5.41661
5.14029
4.93311
4.73865
4.54168
4.34671
4.15649
3.97534
3.8082
3.64974
3.49758
3.35702
3.22648
3.10219
2.98619
2.88013
2.77852
2.67506
2.56699
2.4587
2.36364
2.28821
2.22364
2.15889
2.08943
2.02044
1.96067
1.90758
1.85487
1.80074
1.73514
1.65245
1.58768
1.54975
1.51788
1.48503
1.44862
1.4102
1.37235
1.3278
1.28433
1.24147
1.19543
1.14942
1.11696
1.10083
1.08127
1.05356
1.02538
0.998095
0.970455
0.945135
0.920406
0.89547
0.876541
0.86296
0.852296
0.839201
0.816468
0.804267
0.802084
0.802303
0.801765
0.800401
0.798454
0.791023
0.776693
0.774426
0.778474
0.788087
0.810282
1.00184
1.17772
2.82296
5.0426
5.50183
5.38347
5.09735
4.83356
4.6126
4.40369
4.2007
4.01719
3.82384
3.6572
3.46807
3.33247
3.22633
3.50031
4.8842
6.50623
7.06074
6.92364
6.57412
6.22982
5.88823
5.58178
5.31344
5.07015
4.84034
4.6219
4.42242
4.23955
4.06934
3.90392
3.73468
3.56837
3.41465
3.27361
3.14649
3.03612
2.93578
2.83692
2.73587
2.6305
2.52186
2.41713
2.3234
2.24265
2.17328
2.11155
2.05139
1.98822
1.92402
1.86244
1.8063
1.75265
1.69341
1.63525
1.59353
1.55427
1.50484
1.45368
1.40119
1.3579
1.33853
1.31663
1.27973
1.23418
1.18966
1.14263
1.09549
1.06328
1.04332
1.02444
1.00287
0.980053
0.955863
0.929199
0.898162
0.870265
0.854715
0.842015
0.826628
0.809019
0.793129
0.78304
0.773934
0.764418
0.755991
0.746333
0.729004
0.705419
0.696305
0.698146
0.703809
0.728819
1.00001
1.00449
1.26733
3.04493
5.03903
5.38173
5.25314
4.97994
4.72327
4.50907
4.3275
4.12769
3.93817
3.75023
3.59133
3.55943
4.15601
5.89136
7.56813
7.93924
7.63616
7.10736
6.6391
6.27315
5.98526
5.7161
5.44651
5.19077
4.95303
4.7306
4.5229
4.32796
4.14414
3.9671
3.78987
3.61821
3.46068
3.31879
3.19786
3.09466
2.9951
2.88937
2.77733
2.66595
2.56225
2.46746
2.37723
2.28707
2.20047
2.13087
2.07824
2.02534
1.96539
1.90174
1.8314
1.76001
1.69968
1.6573
1.62105
1.57482
1.51988
1.47233
1.43169
1.39052
1.34627
1.31169
1.29109
1.27
1.22959
1.1731
1.11351
1.07699
1.06215
1.05173
1.04139
1.02301
0.994873
0.958179
0.913214
0.87102
0.851627
0.842614
0.831811
0.812162
0.791152
0.777129
0.765808
0.755103
0.744446
0.732035
0.713487
0.682737
0.661806
0.658825
0.657133
0.661447
1
1.00003
1.00857
1.35142
3.21129
4.98992
5.24732
5.13379
4.8779
4.63705
4.41969
4.23339
4.05716
3.83504
3.92607
5.01392
7.31862
8.47271
8.31355
8.0296
7.60342
7.17508
6.77498
6.41611
6.10805
5.81799
5.53796
5.28348
5.05162
4.83215
4.61945
4.41264
4.21179
4.0139
3.81916
3.64203
3.49128
3.36135
3.24989
3.1477
3.04493
2.93411
2.81201
2.68967
2.58514
2.49999
2.42165
2.33974
2.24939
2.15336
2.07454
2.02808
1.99067
1.94056
1.87647
1.80729
1.73141
1.65468
1.5989
1.55992
1.52929
1.49888
1.46195
1.41994
1.37503
1.33742
1.30324
1.25981
1.20977
1.15479
1.123
1.10745
1.09171
1.06896
1.04005
1.01485
0.987986
0.953919
0.917509
0.888717
0.86819
0.851815
0.833725
0.811994
0.792535
0.778557
0.766622
0.754793
0.743033
0.729647
0.709607
0.678922
0.656475
0.648914
0.643509
0.636321
1
1
1.00006
1.01376
1.42483
3.31388
4.87002
5.14717
5.03351
4.79427
4.54416
4.34378
4.12444
4.32321
6.13101
8.60143
9.64835
9.45372
8.74035
8.07215
7.57892
7.22324
6.89791
6.56954
6.23802
5.91592
5.62307
5.36392
5.1266
4.89933
4.67896
4.46849
4.26822
4.07182
3.87345
3.68336
3.52367
3.39844
3.29237
3.18731
3.07564
2.96013
2.8393
2.71989
2.61581
2.52848
2.45088
2.3747
2.28882
2.1951
2.11271
2.04746
1.98572
1.92939
1.89849
1.86014
1.78678
1.69817
1.63464
1.58916
1.54316
1.49942
1.45495
1.41338
1.39525
1.37545
1.33552
1.27494
1.21379
1.17147
1.13915
1.11555
1.09631
1.07363
1.04502
1.01877
1.00077
0.980731
0.95573
0.930029
0.903755
0.877788
0.852255
0.827761
0.808104
0.795457
0.785109
0.773947
0.76136
0.745796
0.723128
0.689758
0.662353
0.646024
0.637139
0.625842
1
1
1
1.00012
1.01879
1.48672
3.28567
4.8019
5.04238
4.93622
4.70147
4.44436
4.80682
7.37165
10.2689
10.2984
9.88175
9.42843
8.90181
8.31649
7.77904
7.3435
6.98541
6.65691
6.33409
6.02115
5.7286
5.4557
5.19813
4.95284
4.71973
4.50362
4.30641
4.11682
3.92387
3.73421
3.57026
3.43998
3.33723
3.24431
3.12917
2.99106
2.8584
2.74414
2.64774
2.56028
2.47129
2.37339
2.27633
2.1982
2.13199
2.0669
2.0078
1.96074
1.90668
1.83606
1.7572
1.67626
1.61377
1.57214
1.53721
1.50517
1.47351
1.44087
1.40494
1.36114
1.30764
1.24788
1.19731
1.16934
1.15203
1.13321
1.11154
1.08783
1.06221
1.03446
1.0033
0.97144
0.942529
0.913553
0.883685
0.855597
0.830273
0.808633
0.793948
0.784302
0.774848
0.763629
0.750268
0.733366
0.708029
0.672006
0.646006
0.634364
0.627876
0.618039
1
1
1
1
1.00019
1.02409
1.49988
3.227
4.71756
4.88554
4.82554
5.46077
8.54012
11.6332
11.8657
11.0148
10.0511
9.35031
8.89382
8.43013
7.93575
7.467
7.06252
6.70831
6.38246
6.07757
5.79062
5.51729
5.25373
5.00245
4.76615
4.54416
4.33659
4.14387
3.95779
3.7786
3.61692
3.48399
3.36222
3.24088
3.11404
2.9833
2.86475
2.765
2.67769
2.59202
2.50043
2.40202
2.3058
2.21857
2.14197
2.07632
2.02008
1.96645
1.9062
1.83812
1.76243
1.68871
1.63215
1.58924
1.55028
1.51513
1.48277
1.44809
1.40787
1.36175
1.30751
1.25079
1.20973
1.18123
1.15605
1.13389
1.11293
1.09124
1.06732
1.03872
1.00642
0.976064
0.947474
0.917135
0.884352
0.853813
0.827882
0.808293
0.796622
0.787867
0.778317
0.766846
0.753159
0.735494
0.708312
0.671046
0.645049
0.63293
0.626083
0.615584
1
1
1
1
1
1.00028
1.02485
1.48971
3.20545
4.28371
5.6537
10.1915
12.5751
12.1254
11.4665
10.853
10.1564
9.47681
8.91917
8.45225
8.01373
7.57854
7.15952
6.77167
6.42067
6.10619
5.82077
5.55388
5.29715
5.04776
4.81262
4.60147
4.39925
4.18511
3.98547
3.85057
3.74075
3.60907
3.46203
3.29948
3.15115
3.04198
2.94858
2.8629
2.77782
2.68743
2.58816
2.48134
2.37402
2.27706
2.19763
2.13242
2.07405
2.01668
1.95735
1.89222
1.81991
1.74789
1.68603
1.63614
1.59547
1.56051
1.52427
1.48332
1.44026
1.39489
1.34456
1.29343
1.24819
1.20985
1.18056
1.15858
1.13887
1.11826
1.09441
1.06624
1.03642
1.00689
0.975736
0.939718
0.900328
0.866587
0.844457
0.833424
0.825539
0.816501
0.80548
0.792226
0.776574
0.756008
0.724535
0.685566
0.661237
0.648443
0.640803
0.629402
1
1
1
1
1
1
1.00026
1.02784
1.53197
3.63968
10.1125
17.4424
16.399
13.2728
11.5471
10.7918
10.152
9.50518
8.90966
8.42142
8.01188
7.61729
7.20999
6.80358
6.42411
6.08541
5.78878
5.52807
5.29538
5.07873
4.85865
4.61219
4.36011
4.15764
4.00284
3.8544
3.69214
3.53272
3.37507
3.22303
3.0834
2.96712
2.87675
2.79429
2.70875
2.61574
2.51403
2.40697
2.30302
2.21218
2.13745
2.07237
2.01122
1.9519
1.89352
1.83415
1.77031
1.70271
1.63886
1.58573
1.54592
1.51503
1.48269
1.44344
1.39903
1.35185
1.30242
1.25435
1.21248
1.17755
1.14881
1.12533
1.10527
1.08609
1.06441
1.03743
1.00699
0.977202
0.947897
0.91397
0.874799
0.838149
0.816246
0.808223
0.801728
0.794169
0.784452
0.771656
0.755822
0.734139
0.701012
0.663846
0.64264
0.629765
0.622216
0.611217
)
;

boundaryField
{
    inlet
    {
        type            fixedValue;
        value           uniform 1;
    }
    outlet
    {
        type            zeroGradient;
    }
    bottom
    {
        type            symmetryPlane;
    }
    top
    {
        type            symmetryPlane;
    }
    obstacle
    {
        type            zeroGradient;
    }
    defaultFaces
    {
        type            empty;
    }
}


// ************************************************************************* //
