/*--------------------------------*- C++ -*----------------------------------*\
  =========                 |
  \\      /  F ield         | OpenFOAM: The Open Source CFD Toolbox
   \\    /   O peration     | Website:  https://openfoam.org
    \\  /    A nd           | Version:  7
     \\/     M anipulation  |
\*---------------------------------------------------------------------------*/
FoamFile
{
    version     2.0;
    format      ascii;
    class       volScalarField;
    location    "1.6";
    object      rho;
}
// * * * * * * * * * * * * * * * * * * * * * * * * * * * * * * * * * * * * * //

dimensions      [1 -3 0 0 0 0 0];

internalField   nonuniform List<scalar> 
4032
(
1.40001
1.40001
1.40001
1.40001
1.40001
1.40001
1.40001
1.40001
1.40001
1.40001
1.40001
1.40001
2.63417
5.25316
5.48451
5.52514
5.59492
5.67181
5.75151
5.82358
5.86807
5.86399
5.83459
5.82524
1.40001
1.40001
1.40001
1.40001
1.40001
1.40001
1.40001
1.40001
1.40001
1.40001
1.40001
1.40001
2.57622
5.20094
5.47087
5.51311
5.5836
5.66072
5.74005
5.80963
5.85061
5.84276
5.81101
5.80128
1.40001
1.40001
1.40001
1.40001
1.40001
1.40001
1.40001
1.40001
1.40001
1.40001
1.40001
1.40001
2.44454
5.12558
5.45392
5.49354
5.56597
5.64439
5.72371
5.78932
5.82504
5.8135
5.77926
5.77049
1.40001
1.40001
1.40001
1.40001
1.40001
1.40001
1.40001
1.40001
1.40001
1.40001
1.40001
1.40001
2.24976
5.0156
5.44934
5.47813
5.54702
5.62198
5.69752
5.75794
5.78987
5.77604
5.73733
5.72561
1.40001
1.40001
1.40001
1.40001
1.40001
1.40001
1.40001
1.40001
1.40001
1.40001
1.40001
1.40001
2.00116
4.84676
5.4628
5.47319
5.52841
5.59343
5.6607
5.7121
5.73668
5.71927
5.6773
5.67298
1.40001
1.40001
1.40001
1.40001
1.40001
1.40001
1.40001
1.40001
1.40001
1.40001
1.40001
1.40001
1.73396
4.61833
5.47194
5.44968
5.49295
5.54817
5.60819
5.65302
5.67387
5.65749
5.61028
5.58085
1.40001
1.40001
1.40001
1.40001
1.40001
1.40001
1.40001
1.40001
1.40001
1.40001
1.40001
1.40001
1.45922
4.27113
5.47893
5.44369
5.46836
5.50125
5.53906
5.56688
5.57022
5.52734
5.45903
5.42284
1.40001
1.40001
1.40001
1.40001
1.40001
1.40001
1.40001
1.40001
1.40001
1.40001
1.40001
1.40001
1.40115
3.74586
5.31021
5.33456
5.36559
5.40005
5.42857
5.44387
5.43062
5.38185
5.28504
5.23453
1.40001
1.40001
1.40001
1.40001
1.40001
1.40001
1.40001
1.40001
1.40001
1.40001
1.40001
1.40001
1.4
3.12358
5.14665
5.30579
5.32009
5.34071
5.34727
5.33711
5.28863
5.17419
4.82937
3.9556
1.40001
1.40001
1.40001
1.40001
1.40001
1.40001
1.40001
1.40001
1.40001
1.40001
1.40001
1.40001
1.4
2.44539
4.92074
5.27802
5.27111
5.28375
5.27089
5.22497
5.12971
4.93443
4.57974
3.66199
1.40001
1.40001
1.40001
1.40001
1.40001
1.40001
1.40001
1.40001
1.40001
1.40001
1.40001
1.40001
1.4
1.75817
4.63878
5.34104
5.26985
5.22711
5.18214
5.10239
4.97514
4.74027
4.3781
3.54734
1.40001
1.40001
1.40001
1.40001
1.40001
1.40001
1.40001
1.40001
1.40001
1.40001
1.40001
1.40001
1.40001
1.42743
3.92325
5.17908
5.17017
5.1354
5.0803
4.98134
4.8333
4.59963
4.20527
3.54098
1.40001
1.40001
1.40001
1.40001
1.40001
1.40001
1.40001
1.40001
1.40001
1.40001
1.40001
1.40001
1.40001
1.39997
2.90755
4.99837
5.15701
5.11046
5.03159
4.90498
4.72555
4.48387
4.08736
3.56148
1.40001
1.40001
1.40001
1.40001
1.40001
1.40001
1.40001
1.40001
1.40001
1.40001
1.40001
1.40001
1.40001
1.39999
1.91211
4.75913
5.2032
5.08406
4.96466
4.81758
4.63124
4.37979
4.0231
3.60611
1.40001
1.40001
1.40001
1.40001
1.40001
1.40001
1.40001
1.40001
1.40001
1.40001
1.40001
1.40001
1.40001
1.4
1.44555
3.94004
5.06593
4.96684
4.87718
4.73428
4.5574
4.30732
3.9982
3.64736
1.40001
1.40001
1.40001
1.40001
1.40001
1.40001
1.40001
1.40001
1.40001
1.40001
1.40001
1.40001
1.40001
1.4
1.4001
2.69984
4.85941
4.92765
4.85555
4.71584
4.52437
4.28501
4.0063
3.69554
1.40001
1.40001
1.40001
1.40001
1.40001
1.40001
1.40001
1.40001
1.40001
1.40001
1.40001
1.40001
1.40001
1.40001
1.4
1.65579
4.29859
4.95683
4.83659
4.68773
4.49436
4.26893
4.01236
3.73401
1.40001
1.40001
1.40001
1.40001
1.40001
1.40001
1.40001
1.40001
1.40001
1.40001
1.40001
1.40001
1.40001
1.40001
1.4
1.40812
3.10452
4.7954
4.77862
4.65286
4.47876
4.26583
4.02482
3.77448
1.40001
1.40001
1.40001
1.40001
1.40001
1.40001
1.40001
1.40001
1.40001
1.40001
1.40001
1.40001
1.40001
1.40001
1.4
1.4
1.81857
4.36632
4.82633
4.66425
4.48561
4.27642
4.04917
3.81888
1.40001
1.40001
1.40001
1.40001
1.40001
1.40001
1.40001
1.40001
1.40001
1.40001
1.40001
1.40001
1.40001
1.40001
1.40001
1.4
1.42286
3.16914
4.69758
4.64398
4.4781
4.28509
4.07354
3.86009
1.40001
1.40001
1.40001
1.40001
1.40001
1.40001
1.40001
1.40001
1.40001
1.40001
1.40001
1.40001
1.40001
1.40001
1.40001
1.4
1.40008
1.84336
4.17489
4.69655
4.51142
4.32734
4.12461
3.91944
1.40001
1.40001
1.40001
1.40001
1.40001
1.40001
1.40001
1.40001
1.40001
1.40001
1.40001
1.40001
1.40001
1.40001
1.40001
1.40001
1.40001
1.42465
2.83306
4.55411
4.52743
4.35554
4.16879
3.97257
1.40001
1.40001
1.40001
1.40001
1.40001
1.40001
1.40001
1.40001
1.40001
1.40001
1.40001
1.40001
1.40001
1.40001
1.40001
1.40001
1.40001
1.40017
1.68749
3.81337
4.61449
4.42419
4.23698
4.03889
1.40001
1.40001
1.40001
1.40001
1.40001
1.40001
1.40001
1.40001
1.40001
1.40001
1.40001
1.40001
1.40001
1.40001
1.40001
1.40001
1.40001
1.40001
1.41017
2.33761
4.26457
4.46436
4.27303
4.08749
1.40001
1.40001
1.40001
1.40001
1.40001
1.40001
1.40001
1.40001
1.40001
1.40001
1.40001
1.40001
1.40001
1.40001
1.40001
1.40001
1.40001
1.40001
1.40007
1.51271
3.14403
4.39391
4.33035
4.16016
1.40001
1.40001
1.40001
1.40001
1.40001
1.40001
1.40001
1.40001
1.40001
1.40001
1.40001
1.40001
1.40001
1.40001
1.40001
1.40001
1.40001
1.40001
1.40001
1.40211
1.83829
3.7349
4.37859
4.25094
1.40001
1.40001
1.40001
1.40001
1.40001
1.40001
1.40001
1.40001
1.40001
1.40001
1.40001
1.40001
1.40001
1.40001
1.40001
1.40001
1.40001
1.40001
1.40001
1.40001
1.42441
2.32234
4.04267
4.29812
1.40001
1.40001
1.40001
1.40001
1.40001
1.40001
1.40001
1.40001
1.40001
1.40001
1.40001
1.40001
1.40001
1.40001
1.40001
1.40001
1.40001
1.40001
1.40001
1.40001
1.40027
1.50959
2.83874
4.14271
1.40001
1.40001
1.40001
1.40001
1.40001
1.40001
1.40001
1.40001
1.40001
1.40001
1.40001
1.40001
1.40001
1.40001
1.40001
1.40001
1.40001
1.40001
1.40001
1.40001
1.40001
1.40236
1.68459
3.2714
1.40001
1.40001
1.40001
1.40001
1.40001
1.40001
1.40001
1.40001
1.40001
1.40001
1.40001
1.40001
1.40001
1.40001
1.40001
1.40001
1.40001
1.40001
1.40001
1.40001
1.40001
1.40002
1.41174
1.9396
1.40001
1.40001
1.40001
1.40001
1.40001
1.40001
1.40001
1.40001
1.40001
1.40001
1.40001
1.40001
1.40001
1.40001
1.40001
1.40001
1.40001
1.40001
1.40001
1.40001
1.40001
1.40001
1.40011
1.43862
1.40001
1.40001
1.40001
1.40001
1.40001
1.40001
1.40001
1.40001
1.40001
1.40001
1.40001
1.40001
1.40001
1.40001
1.40001
1.40001
1.40001
1.40001
1.40001
1.40001
1.40001
1.40001
1.40001
1.40056
1.40001
1.40001
1.40001
1.40001
1.40001
1.40001
1.40001
1.40001
1.40001
1.40001
1.40001
1.40001
1.40001
1.40001
1.40001
1.40001
1.40001
1.40001
1.40001
1.40001
1.40001
1.40001
1.40001
1.40001
1.40001
1.40001
1.40001
1.40001
1.40001
1.40001
1.40001
1.40001
1.40001
1.40001
1.40001
1.40001
1.40001
1.40001
1.40001
1.40001
1.40001
1.40001
1.40001
1.40001
1.40001
1.40001
1.40001
1.40001
1.40001
1.40001
1.40001
1.40001
1.40001
1.40001
1.40001
1.40001
1.40001
1.40001
1.40001
1.40001
1.40001
1.40001
1.40001
1.40001
1.40001
1.40001
1.40001
1.40001
1.40001
1.40001
1.40001
1.40001
1.40001
1.40001
1.40001
1.40001
1.40001
1.40001
1.40001
1.40001
1.40001
1.40001
1.40001
1.40001
1.40001
1.40001
1.40001
1.40001
1.40001
1.40001
1.40001
1.40001
1.40001
1.40001
1.40001
1.40001
1.40001
1.40001
1.40001
1.40001
1.40001
1.40001
1.40001
1.40001
1.40001
1.40001
1.40001
1.40001
1.40001
1.40001
1.40001
1.40001
1.40001
1.40001
1.40001
1.40001
1.40001
1.40001
1.40001
1.40001
1.40001
1.40001
1.40001
1.40001
1.40001
1.40001
1.40001
1.40001
1.40001
1.40001
1.40001
1.40001
1.40001
1.40001
1.40001
1.40001
1.40001
1.40001
1.40001
1.40001
1.40001
1.40001
1.40001
1.40001
1.40001
1.40001
1.40001
1.40001
1.40001
1.40001
1.40001
1.40001
1.40001
1.40001
1.40001
1.40001
1.40001
1.40001
1.40001
1.40001
1.40001
1.40001
1.40001
1.40001
1.40001
1.40001
1.40001
1.40001
1.40001
1.40001
1.40001
1.40001
1.40001
1.40001
1.40001
1.40001
1.40001
1.40001
1.40001
1.40001
1.40001
1.40001
1.40001
1.40001
1.40001
1.40001
1.40001
1.40001
1.40001
1.40001
1.40001
1.40001
1.30966
0.519828
0.192094
0.155048
0.186322
0.275736
0.35628
0.443774
0.558044
0.654989
0.748119
0.797162
0.835582
0.881053
0.927181
0.960171
0.981712
0.982387
0.976829
0.974235
0.973905
0.974284
0.972024
0.973654
0.979085
0.982671
0.986929
0.997303
1.00386
1.00563
1.00435
0.998503
0.995877
0.994202
0.994559
1.00212
1.01319
1.01207
1.00416
0.989676
0.978309
0.975892
0.975253
0.975296
0.978067
0.977738
0.973617
0.989813
1.0799
1.30943
1.68227
2.0688
2.40185
2.64678
2.81755
2.84322
2.79974
2.75725
2.6692
2.58649
2.5219
2.4687
2.43315
2.40317
2.37547
2.35324
2.33183
2.30474
2.26706
2.21375
2.17015
2.14346
2.12045
2.10202
2.08453
2.06247
2.03219
1.98767
1.93475
1.89097
1.86348
1.84518
1.82986
1.81584
1.80134
1.78576
1.76576
1.73565
1.68602
1.63557
1.61697
1.60815
1.60123
1.59933
1.61261
1.59742
1.93648
1.21685
0.850885
0.596258
0.557214
0.571449
0.550173
0.525685
0.528876
0.546386
0.601967
0.676119
0.734826
0.782951
0.846593
0.913008
0.948769
0.966781
0.975344
0.979863
0.98698
0.999296
0.999884
0.996999
0.998166
0.999486
1.00371
1.01595
1.02544
1.02668
1.02524
1.02115
1.019
1.01634
1.01419
1.01675
1.02253
1.02078
1.01507
1.00651
0.996326
0.990568
0.988142
0.985723
0.9849
0.991745
1.03499
1.16267
1.38618
1.60133
1.70044
1.79595
1.97636
2.19271
2.37021
2.48897
2.56801
2.63093
2.62824
2.61154
2.57337
2.5351
2.50486
2.46847
2.42707
2.39418
2.36906
2.33836
2.29917
2.25251
2.20269
2.15805
2.12551
2.10401
2.08459
2.06432
2.03812
2.00457
1.96571
1.92435
1.88654
1.86296
1.8481
1.83625
1.82146
1.80423
1.78386
1.75726
1.71919
1.66764
1.63139
1.61845
1.61051
1.6068
1.61045
1.59754
2.4568
1.74965
1.38234
1.11418
0.917702
0.830267
0.759748
0.661771
0.631165
0.618129
0.625328
0.673268
0.731625
0.766979
0.806415
0.876199
0.927342
0.965191
1.00942
1.03461
1.04905
1.06587
1.06738
1.06028
1.06024
1.06399
1.06859
1.07275
1.07328
1.07175
1.06649
1.06113
1.05872
1.05718
1.05635
1.05951
1.06199
1.05986
1.05529
1.0474
1.03681
1.02779
1.02366
1.0237
1.0406
1.12282
1.326
1.5659
1.72718
1.79114
1.80225
1.82149
1.83103
1.87958
2.00004
2.18419
2.36497
2.52504
2.62284
2.67778
2.66389
2.65439
2.62748
2.58096
2.52335
2.47038
2.42812
2.38814
2.34486
2.30395
2.26094
2.21705
2.1772
2.14596
2.12497
2.1034
2.07881
2.055
2.03101
2.00195
1.96541
1.92617
1.89654
1.87584
1.85573
1.83445
1.8133
1.79181
1.76571
1.72896
1.68317
1.65419
1.64415
1.63726
1.63245
1.61403
2.81171
2.23703
1.81684
1.52492
1.29819
1.14087
1.02346
0.915815
0.862554
0.817517
0.759998
0.747731
0.741478
0.737764
0.748774
0.784464
0.838208
0.896473
0.958395
1.00874
1.02788
1.04896
1.07317
1.07977
1.08943
1.10846
1.12657
1.13085
1.12934
1.12557
1.12111
1.11182
1.10301
1.1012
1.10101
1.10104
1.09953
1.09891
1.09655
1.0884
1.07942
1.07209
1.07527
1.10405
1.2368
1.50802
1.72963
1.86324
1.91411
1.90507
1.88481
1.84897
1.82728
1.82264
1.8231
1.85678
1.9447
2.11008
2.32181
2.50985
2.59809
2.62909
2.61862
2.59554
2.55708
2.52977
2.5077
2.48056
2.44614
2.40693
2.36043
2.31093
2.26315
2.21903
2.18467
2.15656
2.13065
2.10999
2.08946
2.06428
2.0328
1.9943
1.95475
1.927
1.90705
1.88701
1.86667
1.84637
1.82332
1.79413
1.7565
1.71824
1.69127
1.67765
1.66822
1.64601
3.01216
2.56285
2.19278
1.85967
1.62318
1.44565
1.28482
1.14189
1.05187
0.980667
0.904981
0.863785
0.835361
0.795279
0.77764
0.78578
0.792011
0.808358
0.845598
0.900159
0.94512
0.983287
1.03175
1.06192
1.07484
1.09277
1.12257
1.13066
1.12942
1.1358
1.14967
1.15477
1.15364
1.15353
1.15086
1.14342
1.13217
1.12271
1.11282
1.10374
1.10433
1.11849
1.18897
1.3725
1.66364
1.89429
1.97051
1.97453
1.9545
1.91848
1.89329
1.87609
1.86136
1.84574
1.82536
1.798
1.77563
1.7856
1.85081
1.9929
2.18166
2.35918
2.45089
2.50547
2.51993
2.51466
2.49909
2.49557
2.49684
2.47905
2.44564
2.40113
2.35043
2.2938
2.23766
2.19336
2.16703
2.15052
2.13074
2.1068
2.08197
2.05269
2.01112
1.97335
1.95512
1.93918
1.92118
1.90136
1.87887
1.85393
1.82703
1.79559
1.75735
1.72072
1.69439
1.67081
3.17765
2.7845
2.44762
2.1547
1.89298
1.68695
1.51949
1.3682
1.25665
1.17129
1.07711
1.00932
0.974389
0.931429
0.889021
0.868361
0.84218
0.82524
0.823769
0.828467
0.841355
0.865889
0.913271
0.974014
1.01301
1.04056
1.08569
1.10971
1.11424
1.12437
1.14279
1.15242
1.1632
1.16987
1.16915
1.16381
1.15277
1.13702
1.12098
1.11787
1.13838
1.26221
1.52733
1.79895
1.99869
2.01702
1.99413
1.97505
1.96603
1.95033
1.92683
1.90609
1.88548
1.85707
1.81881
1.78392
1.75891
1.74241
1.73182
1.73479
1.7731
1.85881
1.99609
2.13784
2.27147
2.35091
2.39855
2.43485
2.46463
2.46276
2.44613
2.4295
2.40559
2.36675
2.30991
2.24995
2.21787
2.19765
2.17309
2.14705
2.12285
2.09296
2.04996
2.00441
1.98195
1.96877
1.95255
1.93131
1.90929
1.88941
1.87065
1.84795
1.81373
1.76471
1.72249
1.69592
3.29337
2.95965
2.6372
2.36429
2.12667
1.91229
1.73062
1.56983
1.43409
1.33869
1.25961
1.18241
1.11338
1.0508
0.989906
0.950025
0.912636
0.865395
0.852718
0.844578
0.842165
0.847758
0.859021
0.882659
0.910411
0.938719
0.974354
1.02045
1.05443
1.07729
1.11473
1.13938
1.15621
1.16687
1.16757
1.16377
1.1542
1.14187
1.13851
1.16968
1.337
1.67529
1.92605
2.01944
2.03873
2.02893
2.01394
1.99106
1.9689
1.95236
1.93043
1.90658
1.88452
1.85434
1.81331
1.78302
1.76022
1.73599
1.71946
1.70759
1.6948
1.68714
1.68895
1.72426
1.80665
1.92207
2.06
2.17461
2.28082
2.34245
2.38613
2.39825
2.39041
2.37634
2.34782
2.3031
2.2641
2.23573
2.21138
2.19035
2.1654
2.12887
2.08257
2.0327
1.98992
1.96678
1.94901
1.93134
1.91743
1.90541
1.89207
1.87612
1.85281
1.80991
1.75704
1.72369
3.39085
3.08777
2.79317
2.54581
2.31304
2.09272
1.90998
1.76196
1.61892
1.49068
1.40124
1.32974
1.24887
1.18347
1.12702
1.07506
1.0254
0.966109
0.938625
0.91999
0.89134
0.877604
0.877814
0.869656
0.861811
0.864842
0.875542
0.898477
0.936935
0.980505
1.03128
1.0959
1.1193
1.1402
1.15007
1.14658
1.14062
1.14833
1.23042
1.44646
1.80367
2.01603
2.05502
2.06449
2.05649
2.03074
2.00732
1.97865
1.95209
1.93822
1.92686
1.90934
1.88851
1.85895
1.82544
1.79373
1.75749
1.72925
1.71389
1.69904
1.68494
1.67267
1.66461
1.6521
1.63404
1.6295
1.66336
1.73849
1.85711
1.9983
2.1305
2.23152
2.29136
2.32917
2.32583
2.3113
2.27624
2.24861
2.239
2.22634
2.20561
2.17457
2.13365
2.08319
2.02194
1.97637
1.95136
1.93549
1.92428
1.91401
1.90102
1.88827
1.87275
1.84502
1.80525
1.75711
3.46407
3.1844
2.92334
2.69329
2.46851
2.25079
2.0836
1.92328
1.77937
1.64504
1.55529
1.46491
1.37643
1.2957
1.24513
1.18956
1.13321
1.07599
1.03654
1.00366
0.961736
0.9213
0.90761
0.890492
0.870804
0.870256
0.872552
0.872923
0.876209
0.891382
0.921658
0.972035
1.02221
1.06384
1.10842
1.11326
1.12727
1.28418
1.60118
1.89338
2.10576
2.09357
2.07332
2.05613
2.0422
2.0115
1.97974
1.95672
1.93945
1.92994
1.92588
1.91316
1.89113
1.86112
1.83079
1.79728
1.75568
1.72349
1.70578
1.69349
1.68266
1.6747
1.66613
1.65275
1.63672
1.62434
1.59315
1.56184
1.56789
1.606
1.68638
1.81034
1.94088
2.06565
2.15953
2.22603
2.25014
2.22371
2.20912
2.20627
2.20556
2.19397
2.17362
2.13875
2.0812
2.02476
1.98176
1.95612
1.94124
1.92543
1.9081
1.88704
1.86726
1.8498
1.83038
1.79114
3.52594
3.26892
3.03384
2.81917
2.59871
2.39673
2.23352
2.078
1.92562
1.79483
1.69463
1.59244
1.50141
1.41985
1.35772
1.2935
1.23169
1.17164
1.13399
1.09801
1.05672
1.01032
0.985451
0.961329
0.92169
0.908379
0.901742
0.888175
0.877777
0.876751
0.878632
0.883368
0.900925
0.932388
0.987472
1.05475
1.24596
1.67081
1.94029
2.09273
2.13323
2.12495
2.1016
2.05841
2.03538
2.01084
1.98032
1.96564
1.95335
1.93884
1.92664
1.90809
1.87918
1.85342
1.83238
1.80855
1.77202
1.72978
1.70364
1.68922
1.67907
1.67262
1.66489
1.65202
1.63798
1.62428
1.60872
1.58717
1.54685
1.51287
1.50529
1.51637
1.55203
1.62728
1.73891
1.86535
1.98715
2.07314
2.11987
2.14373
2.14633
2.1565
2.15188
2.1319
2.10283
2.07726
2.04475
2.01081
1.98378
1.96094
1.93945
1.91509
1.88844
1.86077
1.84071
1.80925
3.58409
3.34442
3.1286
2.92597
2.71438
2.53147
2.36953
2.21524
2.05751
1.93704
1.82557
1.71933
1.61548
1.53456
1.46641
1.39445
1.33148
1.27198
1.22731
1.18235
1.13318
1.08846
1.06056
1.03223
0.991669
0.961998
0.944715
0.923484
0.895493
0.88677
0.883973
0.879629
0.879708
0.884631
0.9199
1.11665
1.55147
1.84867
1.96619
2.03696
2.05867
2.05454
2.03277
2.0321
2.02418
2.02096
2.01394
1.9975
1.97702
1.94889
1.92075
1.89358
1.86619
1.84779
1.83874
1.824
1.7973
1.75463
1.7088
1.68501
1.67036
1.65841
1.64693
1.63922
1.63533
1.62805
1.61728
1.60188
1.57644
1.53178
1.49528
1.47947
1.4689
1.46646
1.47604
1.51304
1.57531
1.66735
1.7598
1.86247
1.9441
2.0246
2.07513
2.06591
2.06467
2.05923
2.05168
2.0327
2.01425
2.00304
1.99009
1.96878
1.94504
1.9147
1.88178
1.83404
3.64095
3.41782
3.21784
3.02343
2.82265
2.65177
2.49447
2.33307
2.17879
2.06428
1.94687
1.83685
1.72423
1.64674
1.56747
1.49193
1.41867
1.36515
1.31915
1.268
1.21787
1.16992
1.13956
1.10755
1.06633
1.03519
1.01414
0.991321
0.957234
0.935487
0.917571
0.900433
0.905407
0.953355
1.15455
1.48007
1.79036
1.80794
1.83192
1.84495
1.85759
1.87959
1.90795
1.93801
1.97693
2.00153
2.00234
1.9901
1.96401
1.93127
1.89944
1.88003
1.8616
1.85908
1.85773
1.83983
1.81237
1.77653
1.72959
1.68941
1.6661
1.65077
1.63923
1.62954
1.62392
1.6225
1.61464
1.6034
1.58499
1.55624
1.52244
1.49041
1.46603
1.44905
1.43756
1.4333
1.43325
1.44064
1.45903
1.49315
1.55842
1.64504
1.75245
1.86126
1.91961
1.95311
1.99204
1.99562
1.98677
1.98222
1.97428
1.97902
1.98038
1.96823
1.94075
1.88089
3.70981
3.49927
3.30544
3.11516
2.92672
2.76277
2.6067
2.43872
2.29461
2.17582
2.05853
1.93857
1.83166
1.75182
1.6652
1.58658
1.50643
1.45709
1.40522
1.35191
1.29513
1.25333
1.22046
1.18412
1.13998
1.10627
1.08006
1.05224
1.0182
0.982939
0.958572
0.947997
1.0106
1.26649
1.5891
1.82339
1.83383
1.80122
1.7584
1.73286
1.73239
1.74317
1.76415
1.78474
1.81567
1.85596
1.89067
1.90159
1.8921
1.87334
1.86138
1.85741
1.86124
1.87277
1.86751
1.84805
1.81957
1.78545
1.74983
1.71005
1.67251
1.65229
1.64114
1.62768
1.61144
1.59671
1.5871
1.57769
1.56998
1.56061
1.54473
1.52196
1.4908
1.45535
1.43003
1.41812
1.41153
1.40522
1.40131
1.39964
1.39963
1.40567
1.43131
1.48758
1.5713
1.64244
1.70919
1.7767
1.85078
1.88253
1.89834
1.92849
1.95249
1.9538
1.94472
1.90998
3.77159
3.57493
3.38656
3.19802
3.0182
2.85983
2.70464
2.53704
2.39848
2.27724
2.16044
2.03296
1.93619
1.85048
1.76382
1.67632
1.59738
1.54834
1.48964
1.43472
1.37616
1.33368
1.29583
1.25504
1.2093
1.17666
1.14793
1.12105
1.08345
1.04493
1.04848
1.13024
1.43992
1.76815
1.93392
1.9409
1.89344
1.82651
1.76669
1.72789
1.71958
1.71365
1.71377
1.71258
1.70567
1.70098
1.69866
1.70683
1.71382
1.72888
1.75822
1.78101
1.794
1.80283
1.81266
1.81595
1.80643
1.78679
1.76134
1.72504
1.68922
1.67096
1.65472
1.63349
1.60945
1.58613
1.57023
1.55862
1.54992
1.54752
1.54234
1.52831
1.50767
1.47338
1.43219
1.41313
1.40492
1.39773
1.39225
1.38426
1.37407
1.36953
1.36527
1.36062
1.35491
1.3556
1.37437
1.41256
1.47316
1.55649
1.64214
1.71525
1.78534
1.84762
1.89917
1.88591
3.84168
3.65319
3.46986
3.28331
3.10785
2.95116
2.79514
2.63525
2.49934
2.37717
2.25404
2.12743
2.03672
1.94801
1.86179
1.76163
1.69229
1.63817
1.57616
1.51457
1.45275
1.41525
1.37124
1.3278
1.27973
1.2437
1.21427
1.18072
1.1413
1.14953
1.25869
1.60976
1.96686
2.07466
2.06239
2.00879
1.94463
1.88764
1.84352
1.8
1.76733
1.74536
1.72476
1.70648
1.68721
1.67061
1.65936
1.64929
1.62752
1.60247
1.60001
1.61139
1.63539
1.65771
1.68453
1.70635
1.71827
1.73202
1.73442
1.71857
1.69824
1.68391
1.66596
1.64415
1.61796
1.58676
1.56471
1.55306
1.54467
1.53573
1.52923
1.52114
1.50639
1.48299
1.44844
1.41515
1.4038
1.39783
1.3912
1.38136
1.36946
1.35431
1.34058
1.33359
1.32666
1.31404
1.29168
1.27117
1.26544
1.2779
1.31132
1.36805
1.44534
1.53194
1.62701
1.71018
3.90163
3.71966
3.53969
3.36277
3.19632
3.03664
2.8793
2.73068
2.60063
2.47548
2.34615
2.22547
2.13503
2.04601
1.95522
1.85456
1.78887
1.72518
1.66085
1.59172
1.5347
1.49388
1.44482
1.39897
1.34796
1.30836
1.28167
1.24429
1.26963
1.45143
1.81554
2.1709
2.22722
2.19279
2.13409
2.07128
2.02041
1.9806
1.94288
1.89664
1.84453
1.80244
1.76848
1.73836
1.7094
1.6799
1.65317
1.63276
1.61802
1.60411
1.5803
1.54522
1.52484
1.52215
1.52968
1.5496
1.5677
1.59794
1.63049
1.65016
1.66244
1.6546
1.63771
1.6274
1.61017
1.58937
1.57182
1.5606
1.5439
1.52944
1.51611
1.506
1.49599
1.48142
1.45566
1.42019
1.40151
1.39512
1.38773
1.3791
1.36825
1.35226
1.33315
1.3161
1.30353
1.29464
1.28567
1.27297
1.26269
1.24121
1.22325
1.22206
1.2295
1.25056
1.28654
1.36949
3.98246
3.80429
3.62374
3.45355
3.29446
3.13332
2.97074
2.83083
2.70264
2.57426
2.44151
2.32734
2.23286
2.13803
2.04016
1.94699
1.88271
1.8126
1.74428
1.66506
1.61353
1.56765
1.51799
1.46879
1.41484
1.37398
1.34585
1.40345
1.69994
2.09484
2.37336
2.39812
2.33421
2.25904
2.19399
2.14874
2.11124
2.07484
2.03325
1.98457
1.92772
1.87196
1.82855
1.79616
1.76584
1.73396
1.70299
1.6756
1.64855
1.62182
1.59338
1.56009
1.52292
1.50612
1.49403
1.48097
1.47197
1.47369
1.48558
1.49828
1.52146
1.53956
1.53948
1.53493
1.54733
1.55933
1.54633
1.52608
1.52717
1.52335
1.51038
1.49384
1.48168
1.46979
1.44707
1.41368
1.39906
1.39258
1.38672
1.38069
1.37044
1.35251
1.33095
1.31281
1.2962
1.28009
1.27164
1.26841
1.262
1.24781
1.22541
1.20807
1.19759
1.19351
1.19283
1.19876
4.06707
3.88621
3.70502
3.53916
3.38228
3.22135
3.06082
2.92855
2.79914
2.66833
2.53183
2.42819
2.3273
2.22916
2.12388
2.04157
1.97274
1.89621
1.82244
1.74503
1.69702
1.64346
1.59224
1.53088
1.48189
1.46182
1.55147
1.93989
2.40435
2.60306
2.58327
2.50303
2.40289
2.32552
2.26969
2.23611
2.20401
2.16389
2.11933
2.07178
2.01796
1.95779
1.90205
1.85837
1.82057
1.78521
1.75342
1.72334
1.69138
1.65733
1.62307
1.58902
1.55276
1.51944
1.49446
1.47385
1.46058
1.44481
1.4292
1.42309
1.42402
1.42359
1.42072
1.41135
1.40949
1.42875
1.43922
1.44636
1.47041
1.48654
1.47873
1.46538
1.45983
1.44655
1.42083
1.40797
1.40129
1.39363
1.38688
1.38119
1.3709
1.35259
1.3323
1.3141
1.29699
1.28075
1.26679
1.25442
1.24359
1.23716
1.22816
1.2102
1.19197
1.18403
1.181
1.17321
4.15143
3.96484
3.7877
3.62151
3.46236
3.3031
3.15271
3.01719
2.88576
2.75057
2.62549
2.52614
2.42255
2.31643
2.20388
2.13202
2.05824
1.98185
1.89754
1.82735
1.77541
1.71823
1.65935
1.60118
1.58686
1.72958
2.16314
2.67205
2.81717
2.77275
2.66495
2.56143
2.4755
2.40835
2.36142
2.32209
2.28213
2.23838
2.19298
2.14756
2.09902
2.04087
1.97672
1.92325
1.88205
1.84632
1.81175
1.776
1.74012
1.70466
1.66994
1.63447
1.59756
1.56389
1.53359
1.50468
1.47659
1.44634
1.42168
1.41167
1.4043
1.39379
1.3839
1.36093
1.3289
1.32481
1.32933
1.33127
1.33985
1.36282
1.37616
1.38574
1.40012
1.40376
1.39246
1.37289
1.36614
1.36067
1.35276
1.34607
1.34252
1.33941
1.33448
1.32209
1.30338
1.28608
1.26963
1.25467
1.23772
1.21715
1.20559
1.19889
1.18868
1.17984
1.17581
1.16543
4.22053
4.05816
3.87336
3.71353
3.55505
3.3943
3.25063
3.11419
2.98079
2.84
2.72252
2.61827
2.51419
2.40557
2.30073
2.22546
2.14265
2.06332
1.97597
1.91404
1.85663
1.79645
1.72865
1.75597
2.0015
2.48578
2.92524
3.00287
2.9327
2.82918
2.73786
2.66067
2.58446
2.51076
2.45051
2.39974
2.35103
2.30141
2.25366
2.20959
2.16628
2.11595
2.05399
1.99171
1.94248
1.90459
1.8717
1.8384
1.80208
1.76209
1.72044
1.67945
1.64049
1.60476
1.57137
1.5388
1.50735
1.47599
1.44855
1.42861
1.40749
1.38614
1.37068
1.35341
1.32192
1.30232
1.29812
1.28958
1.27518
1.27022
1.26984
1.27176
1.27554
1.28788
1.31324
1.31646
1.31368
1.31854
1.31759
1.30808
1.2967
1.29379
1.29506
1.30297
1.30225
1.29372
1.27813
1.26053
1.24004
1.21609
1.19239
1.18197
1.17934
1.17651
1.17147
1.16049
4.16147
4.13335
3.97503
3.80223
3.64165
3.48928
3.34881
3.2124
3.07389
2.93361
2.82157
2.71245
2.60872
2.48868
2.39682
2.31716
2.23025
2.14549
2.05999
1.99152
1.93523
1.87894
1.9414
2.32542
2.90146
3.18483
3.19641
3.1026
2.98626
2.89677
2.83458
2.77983
2.70204
2.60642
2.52546
2.46685
2.41752
2.36901
2.32041
2.27202
2.22298
2.17114
2.11379
2.0539
1.9999
1.95574
1.91937
1.88664
1.8544
1.81927
1.77881
1.73284
1.68536
1.64318
1.60938
1.58183
1.55658
1.5292
1.4976
1.46535
1.43618
1.40847
1.38759
1.371
1.33897
1.3032
1.29324
1.28076
1.26636
1.2554
1.24164
1.22926
1.21633
1.20749
1.21118
1.21449
1.21403
1.2222
1.2411
1.24303
1.23013
1.22238
1.22751
1.24196
1.25395
1.26071
1.26416
1.25944
1.24381
1.21848
1.18994
1.16815
1.1582
1.15033
1.14634
1.14403
3.553
4.12694
4.08259
3.91368
3.73592
3.58775
3.44865
3.30938
3.16606
3.0377
2.92025
2.80796
2.69103
2.57549
2.49349
2.40957
2.32256
2.22205
2.13387
2.07751
2.03906
2.17889
2.68801
3.33882
3.52121
3.42632
3.31193
3.19453
3.08541
3.00643
2.94371
2.87639
2.79092
2.69485
2.60811
2.54085
2.48663
2.43642
2.38622
2.33417
2.27888
2.22091
2.16345
2.10897
2.0587
2.01381
1.97353
1.93527
1.89905
1.86434
1.82834
1.78866
1.74395
1.6966
1.65265
1.61732
1.59256
1.5694
1.54108
1.5122
1.48561
1.45428
1.41709
1.38539
1.35505
1.32667
1.3142
1.30219
1.28216
1.25791
1.23661
1.22042
1.20652
1.18959
1.17832
1.17122
1.16265
1.15584
1.15322
1.15138
1.1498
1.14539
1.14367
1.15136
1.16873
1.18745
1.20471
1.21443
1.21238
1.20095
1.17776
1.15265
1.13817
1.12959
1.12519
1.12281
2.20319
3.72073
4.0828
4.02627
3.85546
3.68525
3.54233
3.40832
3.26774
3.13283
3.01569
2.90766
2.79029
2.66897
2.58043
2.49404
2.41329
2.31165
2.21556
2.2262
2.48824
3.14581
3.72594
3.81089
3.69752
3.51695
3.39091
3.29599
3.20982
3.12798
3.0471
2.95808
2.86457
2.77598
2.6963
2.62557
2.5635
2.50635
2.44991
2.39221
2.33268
2.27207
2.21255
2.15633
2.10573
2.06238
2.02417
1.98592
1.94446
1.9012
1.86144
1.82757
1.7936
1.75548
1.71142
1.65679
1.60769
1.58173
1.56189
1.54206
1.52262
1.50035
1.47167
1.43568
1.38818
1.34733
1.32759
1.31272
1.29704
1.27854
1.25577
1.23449
1.21179
1.18914
1.17516
1.16388
1.14945
1.13248
1.11987
1.11299
1.10634
1.09347
1.08021
1.07559
1.07943
1.09308
1.10892
1.12089
1.12571
1.1244
1.11538
1.09844
1.09019
1.09027
1.09468
1.09871
1.48464
2.44782
3.80082
4.0445
3.97581
3.80925
3.6455
3.50195
3.35996
3.23473
3.11722
3.00331
2.87382
2.76515
2.67688
2.58633
2.49614
2.39177
2.45757
2.91386
3.63718
4.13369
4.12635
3.99235
3.80551
3.63489
3.50726
3.41146
3.32095
3.22845
3.136
3.04425
2.95481
2.87044
2.78926
2.71111
2.63931
2.57277
2.5089
2.4483
2.39173
2.33619
2.27832
2.21668
2.15434
2.10029
2.05879
2.02388
1.98804
1.94782
1.90614
1.86919
1.83588
1.80191
1.76581
1.72103
1.66418
1.61977
1.59404
1.57221
1.5494
1.52385
1.49707
1.47113
1.44165
1.41326
1.38344
1.34953
1.31395
1.2884
1.27582
1.2604
1.23808
1.21514
1.19323
1.1711
1.15085
1.13106
1.11088
1.09512
1.08382
1.07514
1.06413
1.04396
1.03351
1.03279
1.03407
1.03458
1.03385
1.03196
1.02455
1.01177
1.0103
1.0145
1.02429
1.0484
1.40175
1.54805
2.64332
3.84133
4.00562
3.93363
3.76606
3.60621
3.46837
3.33778
3.21155
3.09664
2.97647
2.87283
2.75671
2.67216
2.59851
2.7376
3.41403
4.16764
4.43597
4.37809
4.21831
4.05957
3.90341
3.76287
3.63913
3.52627
3.4187
3.31528
3.2196
3.13012
3.04473
2.95986
2.87185
2.78526
2.70567
2.63276
2.56667
2.50863
2.45467
2.39993
2.34264
2.28201
2.21916
2.15881
2.10538
2.05992
2.02089
1.98535
1.94914
1.90932
1.86818
1.82844
1.79136
1.75464
1.71301
1.67221
1.64239
1.61348
1.5771
1.5395
1.50063
1.47059
1.4603
1.44794
1.42373
1.3906
1.35535
1.3161
1.27607
1.25035
1.23568
1.22164
1.20478
1.18615
1.16573
1.14271
1.11596
1.09264
1.07967
1.0687
1.05514
1.03925
1.02541
1.01733
1.01016
1.00241
0.995312
0.986652
0.970257
0.948158
0.940493
0.942465
0.948422
0.9745
1.40001
1.40419
1.61805
2.7834
3.85451
3.96371
3.88738
3.727
3.57142
3.43719
3.32124
3.1949
3.0755
2.95763
2.86056
2.82636
3.11935
3.94879
4.6887
4.87721
4.7505
4.51835
4.30802
4.14037
4.00716
3.8817
3.75528
3.63517
3.52336
3.41805
3.31808
3.22166
3.12791
3.0355
2.94201
2.85161
2.76917
2.6949
2.63128
2.57626
2.52168
2.46188
2.39708
2.33209
2.27178
2.21715
2.16529
2.1128
2.06143
2.01982
1.98762
1.954
1.91562
1.87364
1.82562
1.77613
1.73416
1.70428
1.6776
1.64263
1.60079
1.56506
1.53478
1.50461
1.47284
1.45014
1.43844
1.42463
1.39326
1.34676
1.29697
1.2673
1.25574
1.24776
1.23989
1.22541
1.2024
1.17127
1.13221
1.09559
1.07883
1.07099
1.06155
1.0441
1.02558
1.01368
1.00426
0.995385
0.986469
0.975697
0.958721
0.929387
0.909459
0.906769
0.905674
0.910878
1.40001
1.40003
1.40791
1.68192
2.88995
3.84261
3.91339
3.84611
3.69568
3.54997
3.4143
3.29414
3.18108
3.037
3.07804
3.60138
4.65218
5.16718
5.10683
4.99056
4.80532
4.61402
4.43202
4.26679
4.12392
3.98806
3.8558
3.73523
3.62518
3.52023
3.41667
3.31322
3.20977
3.10541
3.00138
2.90682
2.82688
2.75794
2.69827
2.64226
2.58395
2.51947
2.44745
2.37489
2.31332
2.2639
2.2186
2.17022
2.11437
2.05238
2.00077
1.97084
1.94646
1.91283
1.87003
1.82292
1.76909
1.71253
1.67091
1.64135
1.61694
1.59274
1.56474
1.53383
1.50167
1.47599
1.45237
1.42022
1.38137
1.3368
1.31046
1.29717
1.28363
1.26439
1.24036
1.21988
1.19817
1.17016
1.13936
1.11407
1.09589
1.08136
1.06516
1.04605
1.02914
1.01705
1.00677
0.996728
0.986799
0.975112
0.956619
0.927102
0.905275
0.89804
0.892895
0.887257
1.40001
1.40001
1.40007
1.41257
1.737
2.95826
3.79408
3.88437
3.81635
3.674
3.52172
3.39597
3.25123
3.34064
4.19256
5.28032
5.74363
5.66911
5.36795
5.07795
4.86133
4.70317
4.55527
4.40331
4.24823
4.09638
3.95739
3.83335
3.71845
3.60683
3.49683
3.38979
3.2859
3.18224
3.07584
2.97239
2.88497
2.81634
2.75779
2.69845
2.63284
2.56329
2.49039
2.41865
2.35651
2.30464
2.25833
2.21168
2.1565
2.09391
2.03833
1.99388
1.95103
1.91279
1.89245
1.86623
1.81409
1.74964
1.70281
1.6686
1.63276
1.59789
1.56349
1.53339
1.52187
1.50885
1.48027
1.43539
1.38853
1.35497
1.32832
1.30758
1.29047
1.27105
1.2472
1.22568
1.21123
1.1951
1.1744
1.15219
1.12903
1.10593
1.08309
1.06144
1.0443
1.03344
1.02473
1.01545
1.0049
0.991237
0.970192
0.938046
0.91137
0.895523
0.886976
0.877465
1.40001
1.40001
1.40001
1.40013
1.41702
1.78378
2.95156
3.7792
3.84629
3.78277
3.64225
3.47894
3.64882
4.82759
6.0636
6.11247
5.95152
5.75537
5.52245
5.26349
5.02417
4.82947
4.66617
4.51264
4.35953
4.20977
4.06841
3.93478
3.80669
3.68282
3.56364
3.45205
3.34877