/*--------------------------------*- C++ -*----------------------------------*\
  =========                 |
  \\      /  F ield         | OpenFOAM: The Open Source CFD Toolbox
   \\    /   O peration     | Website:  https://openfoam.org
    \\  /    A nd           | Version:  7
     \\/     M anipulation  |
\*---------------------------------------------------------------------------*/
FoamFile
{
    version     2.0;
    format      ascii;
    class       volScalarField;
    location    "2.5";
    object      rho;
}
// * * * * * * * * * * * * * * * * * * * * * * * * * * * * * * * * * * * * * //

dimensions      [1 -3 0 0 0 0 0];

internalField   nonuniform List<scalar> 
64512
(
1.40001
1.40001
1.40001
1.40001
1.40001
1.40001
1.40001
1.40001
1.40001
1.40001
1.40001
1.40001
1.40001
1.40001
1.40001
1.40001
1.40001
1.40001
1.40001
1.40001
1.40001
1.40001
1.40001
1.40001
1.40001
1.40001
1.40001
1.40001
1.40001
1.40001
1.40001
1.40001
1.40001
1.40001
1.40001
1.40001
1.40001
1.40001
1.40001
1.40001
1.40001
1.40001
1.40001
1.40001
1.40001
1.40001
1.40001
1.40001
1.40001
2.66833
5.17292
5.43052
5.45592
5.48213
5.50133
5.51611
5.52831
5.542
5.56021
5.58311
5.608
5.63124
5.65106
5.66751
5.68139
5.69427
5.70884
5.72709
5.7483
5.76997
5.78982
5.80596
5.81778
5.8268
5.83576
5.84655
5.85976
5.8747
5.8896
5.90289
5.91396
5.92301
5.93072
5.93789
5.94491
5.95167
5.95824
5.96471
5.97069
5.97529
5.97738
5.97638
5.97163
5.96493
5.95965
5.95745
1.40001
1.40001
1.40001
1.40001
1.40001
1.40001
1.40001
1.40001
1.40001
1.40001
1.40001
1.40001
1.40001
1.40001
1.40001
1.40001
1.40001
1.40001
1.40001
1.40001
1.40001
1.40001
1.40001
1.40001
1.40001
1.40001
1.40001
1.40001
1.40001
1.40001
1.40001
1.40001
1.40001
1.40001
1.40001
1.40001
1.40001
1.40001
1.40001
1.40001
1.40001
1.40001
1.40001
1.40001
1.40001
1.40001
1.40001
1.40001
1.40001
2.65466
5.16691
5.42837
5.45387
5.48122
5.50077
5.5159
5.5284
5.54222
5.56037
5.58307
5.60776
5.63105
5.65103
5.66753
5.68126
5.69391
5.70816
5.72621
5.7473
5.76902
5.7889
5.80504
5.81684
5.8259
5.835
5.84596
5.85927
5.87416
5.88891
5.90201
5.91295
5.92198
5.92973
5.93695
5.94398
5.95069
5.95718
5.96358
5.96954
5.97415
5.97627
5.9753
5.97053
5.96383
5.95853
5.95635
1.40001
1.40001
1.40001
1.40001
1.40001
1.40001
1.40001
1.40001
1.40001
1.40001
1.40001
1.40001
1.40001
1.40001
1.40001
1.40001
1.40001
1.40001
1.40001
1.40001
1.40001
1.40001
1.40001
1.40001
1.40001
1.40001
1.40001
1.40001
1.40001
1.40001
1.40001
1.40001
1.40001
1.40001
1.40001
1.40001
1.40001
1.40001
1.40001
1.40001
1.40001
1.40001
1.40001
1.40001
1.40001
1.40001
1.40001
1.40001
1.40001
2.6235
5.15836
5.42527
5.44984
5.47895
5.49905
5.51468
5.52759
5.54167
5.55977
5.58227
5.60684
5.63028
5.65052
5.66714
5.68079
5.69322
5.70708
5.72485
5.74574
5.76746
5.78737
5.8035
5.81531
5.82442
5.83367
5.84482
5.85831
5.87322
5.88783
5.90069
5.91142
5.92035
5.92812
5.93541
5.94247
5.94913
5.9555
5.96175
5.96761
5.97219
5.97437
5.97349
5.96874
5.96206
5.95672
5.95454
1.40001
1.40001
1.40001
1.40001
1.40001
1.40001
1.40001
1.40001
1.40001
1.40001
1.40001
1.40001
1.40001
1.40001
1.40001
1.40001
1.40001
1.40001
1.40001
1.40001
1.40001
1.40001
1.40001
1.40001
1.40001
1.40001
1.40001
1.40001
1.40001
1.40001
1.40001
1.40001
1.40001
1.40001
1.40001
1.40001
1.40001
1.40001
1.40001
1.40001
1.40001
1.40001
1.40001
1.40001
1.40001
1.40001
1.40001
1.40001
1.40001
2.57291
5.14786
5.42215
5.44629
5.47673
5.49727
5.51345
5.52688
5.54128
5.55922
5.58127
5.60553
5.62902
5.64945
5.66613
5.67963
5.69184
5.70531
5.72279
5.74341
5.76507
5.78494
5.8011
5.813
5.82227
5.83174
5.84306
5.85666
5.87157
5.88607
5.89878
5.90935
5.91816
5.92585
5.93309
5.94013
5.94674
5.95302
5.95914
5.96486
5.96937
5.97157
5.97074
5.966
5.95932
5.95392
5.95173
1.40001
1.40001
1.40001
1.40001
1.40001
1.40001
1.40001
1.40001
1.40001
1.40001
1.40001
1.40001
1.40001
1.40001
1.40001
1.40001
1.40001
1.40001
1.40001
1.40001
1.40001
1.40001
1.40001
1.40001
1.40001
1.40001
1.40001
1.40001
1.40001
1.40001
1.40001
1.40001
1.40001
1.40001
1.40001
1.40001
1.40001
1.40001
1.40001
1.40001
1.40001
1.40001
1.40001
1.40001
1.40001
1.40001
1.40001
1.40001
1.40001
2.50799
5.1262
5.41817
5.44303
5.47461
5.49583
5.51262
5.52649
5.54104
5.55871
5.58035
5.60443
5.62797
5.6486
5.66536
5.67876
5.69086
5.70398
5.72105
5.74111
5.76238
5.78196
5.79805
5.8101
5.81959
5.82926
5.84065
5.85424
5.8691
5.88358
5.89627
5.90678
5.91543
5.92293
5.93003
5.93698
5.94357
5.9498
5.95582
5.96142
5.96582
5.968
5.96718
5.96251
5.95586
5.95041
5.94823
1.40001
1.40001
1.40001
1.40001
1.40001
1.40001
1.40001
1.40001
1.40001
1.40001
1.40001
1.40001
1.40001
1.40001
1.40001
1.40001
1.40001
1.40001
1.40001
1.40001
1.40001
1.40001
1.40001
1.40001
1.40001
1.40001
1.40001
1.40001
1.40001
1.40001
1.40001
1.40001
1.40001
1.40001
1.40001
1.40001
1.40001
1.40001
1.40001
1.40001
1.40001
1.40001
1.40001
1.40001
1.40001
1.40001
1.40001
1.40001
1.40001
2.42849
5.0954
5.41249
5.43879
5.47225
5.49525
5.51348
5.52799
5.54236
5.55908
5.57948
5.60254
5.62545
5.64584
5.66258
5.67613
5.68854
5.70178
5.71878
5.73845
5.75931
5.77854
5.79455
5.80677
5.81651
5.82631
5.83759
5.85103
5.86581
5.88036
5.89316
5.90368
5.91219
5.91944
5.92631
5.93313
5.93971
5.94595
5.95191
5.95737
5.9616
5.96366
5.96275
5.95814
5.95152
5.94607
5.94392
1.40001
1.40001
1.40001
1.40001
1.40001
1.40001
1.40001
1.40001
1.40001
1.40001
1.40001
1.40001
1.40001
1.40001
1.40001
1.40001
1.40001
1.40001
1.40001
1.40001
1.40001
1.40001
1.40001
1.40001
1.40001
1.40001
1.40001
1.40001
1.40001
1.40001
1.40001
1.40001
1.40001
1.40001
1.40001
1.40001
1.40001
1.40001
1.40001
1.40001
1.40001
1.40001
1.40001
1.40001
1.40001
1.40001
1.40001
1.40001
1.40001
2.33367
5.05507
5.40882
5.43452
5.46877
5.49365
5.51417
5.52988
5.5441
5.55957
5.57846
5.60026
5.62245
5.64265
5.65954
5.67353
5.68654
5.70011
5.71704
5.73614
5.75633
5.77496
5.79072
5.80301
5.81293
5.82279
5.83388
5.84711
5.86178
5.87639
5.88932
5.89988
5.90826
5.91526
5.92189
5.92855
5.93506
5.94128
5.9472
5.95255
5.9566
5.95848
5.95745
5.95289
5.94638
5.94102
5.939
1.40001
1.40001
1.40001
1.40001
1.40001
1.40001
1.40001
1.40001
1.40001
1.40001
1.40001
1.40001
1.40001
1.40001
1.40001
1.40001
1.40001
1.40001
1.40001
1.40001
1.40001
1.40001
1.40001
1.40001
1.40001
1.40001
1.40001
1.40001
1.40001
1.40001
1.40001
1.40001
1.40001
1.40001
1.40001
1.40001
1.40001
1.40001
1.40001
1.40001
1.40001
1.40001
1.40001
1.40001
1.40001
1.40001
1.40001
1.40001
1.40001
2.22351
4.99935
5.40593
5.4304
5.46404
5.49
5.51281
5.53075
5.54589
5.56082
5.57822
5.59837
5.61942
5.63914
5.65605
5.67046
5.68407
5.69795
5.71472
5.73316
5.75261
5.77062
5.78617
5.79861
5.80889
5.819
5.8301
5.84318
5.85768
5.87215
5.88492
5.89525
5.90335
5.91009
5.91654
5.92309
5.92959
5.93583
5.94176
5.94706
5.95095
5.95261
5.95136
5.94673
5.94031
5.9351
5.93331
1.40001
1.40001
1.40001
1.40001
1.40001
1.40001
1.40001
1.40001
1.40001
1.40001
1.40001
1.40001
1.40001
1.40001
1.40001
1.40001
1.40001
1.40001
1.40001
1.40001
1.40001
1.40001
1.40001
1.40001
1.40001
1.40001
1.40001
1.40001
1.40001
1.40001
1.40001
1.40001
1.40001
1.40001
1.40001
1.40001
1.40001
1.40001
1.40001
1.40001
1.40001
1.40001
1.40001
1.40001
1.40001
1.40001
1.40001
1.40001
1.40001
2.10464
4.92863
5.40561
5.42774
5.45931
5.48524
5.50951
5.52965
5.54645
5.5616
5.57788
5.5963
5.61588
5.63482
5.65168
5.66661
5.68103
5.69551
5.71237
5.73034
5.74917
5.76657
5.78176
5.79401
5.80422
5.81421
5.82511
5.83796
5.85219
5.86639
5.8789
5.88905
5.89708
5.90389
5.91049
5.91712
5.92362
5.92979
5.93561
5.94079
5.94449
5.94589
5.94436
5.93962
5.93329
5.92827
5.92677
1.40001
1.40001
1.40001
1.40001
1.40001
1.40001
1.40001
1.40001
1.40001
1.40001
1.40001
1.40001
1.40001
1.40001
1.40001
1.40001
1.40001
1.40001
1.40001
1.40001
1.40001
1.40001
1.40001
1.40001
1.40001
1.40001
1.40001
1.40001
1.40001
1.40001
1.40001
1.40001
1.40001
1.40001
1.40001
1.40001
1.40001
1.40001
1.40001
1.40001
1.40001
1.40001
1.40001
1.40001
1.40001
1.40001
1.40001
1.40001
1.40001
1.97798
4.83858
5.40991
5.42685
5.45442
5.47956
5.50459
5.52651
5.5453
5.56155
5.57743
5.59448
5.61259
5.63058
5.64719
5.66243
5.67749
5.69246
5.70927
5.72667
5.74476
5.76146
5.77627
5.78838
5.79873
5.80888
5.81989
5.83263
5.84657
5.86031
5.87237
5.88224
5.89024
5.89723
5.90402
5.91071
5.91709
5.92305
5.92866
5.93363
5.93714
5.9383
5.93652
5.93171
5.9255
5.9207
5.91955
1.40001
1.40001
1.40001
1.40001
1.40001
1.40001
1.40001
1.40001
1.40001
1.40001
1.40001
1.40001
1.40001
1.40001
1.40001
1.40001
1.40001
1.40001
1.40001
1.40001
1.40001
1.40001
1.40001
1.40001
1.40001
1.40001
1.40001
1.40001
1.40001
1.40001
1.40001
1.40001
1.40001
1.40001
1.40001
1.40001
1.40001
1.40001
1.40001
1.40001
1.40001
1.40001
1.40001
1.40001
1.40001
1.40001
1.40001
1.40001
1.40001
1.84963
4.72669
5.41853
5.42852
5.45146
5.47475
5.49946
5.52221
5.54246
5.56002
5.57617
5.59248
5.60934
5.62628
5.64246
5.65788
5.67356
5.68914
5.70605
5.723
5.74033
5.75622
5.7705
5.7824
5.79291
5.80327
5.8144
5.82693
5.84032
5.85335
5.86479
5.87426
5.88216
5.8893
5.89628
5.90304
5.9094
5.91527
5.92078
5.92568
5.92907
5.93004
5.92802
5.92309
5.91689
5.9122
5.91129
1.40001
1.40001
1.40001
1.40001
1.40001
1.40001
1.40001
1.40001
1.40001
1.40001
1.40001
1.40001
1.40001
1.40001
1.40001
1.40001
1.40001
1.40001
1.40001
1.40001
1.40001
1.40001
1.40001
1.40001
1.40001
1.40001
1.40001
1.40001
1.40001
1.40001
1.40001
1.40001
1.40001
1.40001
1.40001
1.40001
1.40001
1.40001
1.40001
1.40001
1.40001
1.40001
1.40001
1.40001
1.40001
1.40001
1.40001
1.40001
1.40001
1.72401
4.59232
5.42888
5.43163
5.44959
5.47064
5.49463
5.51762
5.53864
5.55706
5.5736
5.58952
5.60546
5.62147
5.63719
5.65271
5.66896
5.68521
5.7023
5.71885
5.73532
5.75026
5.76392
5.77562
5.7864
5.79699
5.80815
5.82023
5.83277
5.84489
5.85572
5.86502
5.87317
5.88074
5.88805
5.89493
5.90117
5.90678
5.91194
5.91645
5.91948
5.92018
5.91799
5.91305
5.90692
5.90232
5.90161
1.40001
1.40001
1.40001
1.40001
1.40001
1.40001
1.40001
1.40001
1.40001
1.40001
1.40001
1.40001
1.40001
1.40001
1.40001
1.40001
1.40001
1.40001
1.40001
1.40001
1.40001
1.40001
1.40001
1.40001
1.40001
1.40001
1.40001
1.40001
1.40001
1.40001
1.40001
1.40001
1.40001
1.40001
1.40001
1.40001
1.40001
1.40001
1.40001
1.40001
1.40001
1.40001
1.40001
1.40001
1.40001
1.40001
1.40001
1.40001
1.40001
1.60826
4.43911
5.43388
5.43055
5.44693
5.46611
5.48911
5.51182
5.53298
5.55194
5.56901
5.58497
5.60044
5.61582
5.6312
5.64683
5.66357
5.6804
5.69764
5.71377
5.72928
5.74324
5.75625
5.76785
5.77899
5.78987
5.80102
5.81253
5.82418
5.8355
5.84589
5.85515
5.86348
5.8712
5.87849
5.88521
5.89127
5.89672
5.90168
5.90595
5.90875
5.90933
5.9071
5.90219
5.89611
5.89153
5.8909
1.40001
1.40001
1.40001
1.40001
1.40001
1.40001
1.40001
1.40001
1.40001
1.40001
1.40001
1.40001
1.40001
1.40001
1.40001
1.40001
1.40001
1.40001
1.40001
1.40001
1.40001
1.40001
1.40001
1.40001
1.40001
1.40001
1.40001
1.40001
1.40001
1.40001
1.40001
1.40001
1.40001
1.40001
1.40001
1.40001
1.40001
1.40001
1.40001
1.40001
1.40001
1.40001
1.40001
1.40001
1.40001
1.40001
1.40001
1.40001
1.40001
1.49354
4.26027
5.43121
5.42566
5.44386
5.46293
5.48457
5.50598
5.5262
5.54483
5.56199
5.57807
5.59349
5.60866
5.62393
5.63975
5.65695
5.67434
5.69174
5.70751
5.72211
5.7352
5.74761
5.75921
5.77074
5.78194
5.79301
5.80386
5.81456
5.82501
5.83501
5.84436
5.85301
5.86095
5.86825
5.87481
5.88062
5.88582
5.89046
5.89438
5.89687
5.89733
5.89511
5.89026
5.88419
5.87955
5.87887
1.40001
1.40001
1.40001
1.40001
1.40001
1.40001
1.40001
1.40001
1.40001
1.40001
1.40001
1.40001
1.40001
1.40001
1.40001
1.40001
1.40001
1.40001
1.40001
1.40001
1.40001
1.40001
1.40001
1.40001
1.40001
1.40001
1.40001
1.40001
1.40001
1.40001
1.40001
1.40001
1.40001
1.40001
1.40001
1.40001
1.40001
1.40001
1.40001
1.40001
1.40001
1.40001
1.40001
1.40001
1.40001
1.40001
1.40001
1.40001
1.40001
1.40596
4.04737
5.40118
5.40989
5.43234
5.45364
5.47508
5.49592
5.51583
5.53461
5.55231
5.56897
5.58477
5.60005
5.61534
5.63135
5.64891
5.66667
5.68409
5.69944
5.71317
5.72556
5.73751
5.74924
5.7612
5.77275
5.78376
5.79401
5.80385
5.81356
5.82321
5.83262
5.84145
5.84945
5.85662
5.86295
5.86851
5.87347
5.87783
5.88145
5.88371
5.88412
5.88192
5.87711
5.871
5.86624
5.86541
1.40001
1.40001
1.40001
1.40001
1.40001
1.40001
1.40001
1.40001
1.40001
1.40001
1.40001
1.40001
1.40001
1.40001
1.40001
1.40001
1.40001
1.40001
1.40001
1.40001
1.40001
1.40001
1.40001
1.40001
1.40001
1.40001
1.40001
1.40001
1.40001
1.40001
1.40001
1.40001
1.40001
1.40001
1.40001
1.40001
1.40001
1.40001
1.40001
1.40001
1.40001
1.40001
1.40001
1.40001
1.40001
1.40001
1.40001
1.40001
1.40001
1.40006
3.7778
5.35459
5.39146
5.41754
5.44205
5.46495
5.48604
5.50555
5.52388
5.54123
5.55779
5.57392
5.58975
5.60558
5.62209
5.64008
5.65811
5.67545
5.69029
5.7031
5.71477
5.72618
5.73787
5.74998
5.76173
5.77269
5.78251
5.79169
5.80077
5.81006
5.81941
5.82831
5.83634
5.84346
5.84968
5.85509
5.85982
5.86389
5.86719
5.86918
5.86948
5.86726
5.86241
5.85617
5.85126
5.85025
1.40001
1.40001
1.40001
1.40001
1.40001
1.40001
1.40001
1.40001
1.40001
1.40001
1.40001
1.40001
1.40001
1.40001
1.40001
1.40001
1.40001
1.40001
1.40001
1.40001
1.40001
1.40001
1.40001
1.40001
1.40001
1.40001
1.40001
1.40001
1.40001
1.40001
1.40001
1.40001
1.40001
1.40001
1.40001
1.40001
1.40001
1.40001
1.40001
1.40001
1.40001
1.40001
1.40001
1.40001
1.40001
1.40001
1.40001
1.40001
1.40001
1.40001
3.4767
5.31141
5.37731
5.40498
5.43121
5.45452
5.47549
5.49463
5.51262
5.52963
5.54597
5.56233
5.5787
5.5951
5.612
5.63015
5.64813
5.66521
5.67956
5.69158
5.70275
5.71381
5.72543
5.73749
5.7493
5.76022
5.76978
5.77852
5.78708
5.79595
5.80502
5.81373
5.82163
5.82861
5.83471
5.83992
5.8444
5.84816
5.85119
5.85298
5.85323
5.85096
5.84605
5.83965
5.83459
5.83339
1.40001
1.40001
1.40001
1.40001
1.40001
1.40001
1.40001
1.40001
1.40001
1.40001
1.40001
1.40001
1.40001
1.40001
1.40001
1.40001
1.40001
1.40001
1.40001
1.40001
1.40001
1.40001
1.40001
1.40001
1.40001
1.40001
1.40001
1.40001
1.40001
1.40001
1.40001
1.40001
1.40001
1.40001
1.40001
1.40001
1.40001
1.40001
1.40001
1.40001
1.40001
1.40001
1.40001
1.40001
1.40001
1.40001
1.40001
1.40001
1.40001
1.40001
3.15389
5.26473
5.37172
5.39844
5.42488
5.44827
5.46827
5.48568
5.5022
5.51828
5.53407
5.5504
5.56726
5.58424
5.60146
5.61962
5.63741
5.65418
5.66812
5.67957
5.69035
5.70106
5.71239
5.72397
5.73553
5.74635
5.75578
5.76428
5.77244
5.78081
5.78938
5.79769
5.8053
5.81211
5.81808
5.82312
5.82735
5.83083
5.83361
5.83519
5.8353
5.83284
5.82775
5.82106
5.81577
5.81438
1.40001
1.40001
1.40001
1.40001
1.40001
1.40001
1.40001
1.40001
1.40001
1.40001
1.40001
1.40001
1.40001
1.40001
1.40001
1.40001
1.40001
1.40001
1.40001
1.40001
1.40001
1.40001
1.40001
1.40001
1.40001
1.40001
1.40001
1.40001
1.40001
1.40001
1.40001
1.40001
1.40001
1.40001
1.40001
1.40001
1.40001
1.40001
1.40001
1.40001
1.40001
1.40001
1.40001
1.40001
1.40001
1.40001
1.40001
1.40001
1.40001
1.40001
2.81675
5.19144
5.37597
5.40064
5.4262
5.44789
5.46616
5.48172
5.49592
5.50988
5.52426
5.53995
5.5569
5.57413
5.59136
5.60923
5.62648
5.64259
5.65594
5.66674
5.67699
5.68729
5.69825
5.70928
5.72063
5.73148
5.741
5.74939
5.75717
5.76493
5.77278
5.78047
5.78762
5.79413
5.79984
5.80458
5.80848
5.81163
5.81412
5.81549
5.81538
5.81267
5.80734
5.80033
5.79481
5.79326
1.40001
1.40001
1.40001
1.40001
1.40001
1.40001
1.40001
1.40001
1.40001
1.40001
1.40001
1.40001
1.40001
1.40001
1.40001
1.40001
1.40001
1.40001
1.40001
1.40001
1.40001
1.40001
1.40001
1.40001
1.40001
1.40001
1.40001
1.40001
1.40001
1.40001
1.40001
1.40001
1.40001
1.40001
1.40001
1.40001
1.40001
1.40001
1.40001
1.40001
1.40001
1.40001
1.40001
1.40001
1.40001
1.40001
1.40001
1.40001
1.40001
1.40001
2.48304
5.07304
5.39063
5.40952
5.43178
5.45136
5.46894
5.48289
5.49472
5.50588
5.51788
5.53211
5.5486
5.56575
5.58277
5.60011
5.61648
5.63148
5.64405
5.654
5.66343
5.67308
5.6835
5.69389
5.70491
5.71575
5.72532
5.73355
5.74088
5.74792
5.75498
5.76195
5.76858
5.77469
5.78005
5.7844
5.78789
5.79068
5.79282
5.79397
5.79347
5.79033
5.78457
5.77707
5.77118
5.76941
1.40001
1.40001
1.40001
1.40001
1.40001
1.40001
1.40001
1.40001
1.40001
1.40001
1.40001
1.40001
1.40001
1.40001
1.40001
1.40001
1.40001
1.40001
1.40001
1.40001
1.40001
1.40001
1.40001
1.40001
1.40001
1.40001
1.40001
1.40001
1.40001
1.40001
1.40001
1.40001
1.40001
1.40001
1.40001
1.40001
1.40001
1.40001
1.40001
1.40001
1.40001
1.40001
1.40001
1.40001
1.40001
1.40001
1.40001
1.40001
1.40001
1.40001
2.15745
4.90959
5.40557
5.42139
5.44597
5.46281
5.47753
5.48871
5.49775
5.50597
5.51515
5.52723
5.54262
5.55927
5.57589
5.59259
5.60788
5.62139
5.63296
5.64192
5.65029
5.65903
5.66875
5.67847
5.68894
5.69949
5.70883
5.71663
5.72331
5.72957
5.73582
5.74213
5.74822
5.75384
5.75868
5.76246
5.76536
5.7676
5.76923
5.76996
5.76897
5.7654
5.75917
5.75119
5.74495
5.743
1.40001
1.40001
1.40001
1.40001
1.40001
1.40001
1.40001
1.40001
1.40001
1.40001
1.40001
1.40001
1.40001
1.40001
1.40001
1.40001
1.40001
1.40001
1.40001
1.40001
1.40001
1.40001
1.40001
1.40001
1.40001
1.40001
1.40001
1.40001
1.40001
1.40001
1.40001
1.40001
1.40001
1.40001
1.40001
1.40001
1.40001
1.40001
1.40001
1.40001
1.40001
1.40001
1.40001
1.40001
1.40001
1.40001
1.40001
1.40001
1.40001
1.40001
1.84195
4.72631
5.444
5.42551
5.44715
5.46352
5.48062
5.49355
5.50255
5.5094
5.51639
5.52606
5.53944
5.55493
5.57077
5.58661
5.60081
5.61278
5.62322
5.63106
5.63814
5.6456
5.65433
5.66326
5.67291
5.6828
5.69158
5.69867
5.70451
5.70988
5.71534
5.72098
5.72646
5.73144
5.73559
5.73864
5.74084
5.74243
5.74351
5.7437
5.74206
5.73778
5.73078
5.72208
5.7153
5.71299
1.40001
1.40001
1.40001
1.40001
1.40001
1.40001
1.40001
1.40001
1.40001
1.40001
1.40001
1.40001
1.40001
1.40001
1.40001
1.40001
1.40001
1.40001
1.40001
1.40001
1.40001
1.40001
1.40001
1.40001
1.40001
1.40001
1.40001
1.40001
1.40001
1.40001
1.40001
1.40001
1.40001
1.40001
1.40001
1.40001
1.40001
1.40001
1.40001
1.40001
1.40001
1.40001
1.40001
1.40001
1.40001
1.40001
1.40001
1.40001
1.40001
1.40001
1.55024
4.44142
5.46395
5.43404
5.44356
5.45578
5.4725
5.48788
5.50121
5.5108
5.51802
5.52614
5.5373
5.55123
5.56617
5.58133
5.59476
5.60551
5.61483
5.62158
5.62722
5.63305
5.64036
5.64826
5.65685
5.66575
5.67368
5.67983
5.68463
5.68894
5.69347
5.69836
5.70313
5.70734
5.71066
5.71281
5.71408
5.71473
5.71495
5.71414
5.71158
5.70649
5.69877
5.68947
5.68225
5.67972
1.40001
1.40001
1.40001
1.40001
1.40001
1.40001
1.40001
1.40001
1.40001
1.40001
1.40001
1.40001
1.40001
1.40001
1.40001
1.40001
1.40001
1.40001
1.40001
1.40001
1.40001
1.40001
1.40001
1.40001
1.40001
1.40001
1.40001
1.40001
1.40001
1.40001
1.40001
1.40001
1.40001
1.40001
1.40001
1.40001
1.40001
1.40001
1.40001
1.40001
1.40001
1.40001
1.40001
1.40001
1.40001
1.40001
1.40001
1.40001
1.40001
1.40001
1.40719
4.08086
5.38666
5.37984
5.40953
5.43196
5.45459
5.47471
5.49127
5.50395
5.51353
5.52298
5.53402
5.54691
5.5608
5.57509
5.58814
5.59857
5.60724
5.61338
5.61779
5.62188
5.62717
5.63357
5.64076
5.64836
5.65521
5.66029
5.6639
5.66696
5.67036
5.67429
5.67817
5.68143
5.68371
5.68474
5.68492
5.6845
5.6836
5.68169
5.678
5.67174
5.66283
5.65241
5.64434
5.64118
1.40001
1.40001
1.40001
1.40001
1.40001
1.40001
1.40001
1.40001
1.40001
1.40001
1.40001
1.40001
1.40001
1.40001
1.40001
1.40001
1.40001
1.40001
1.40001
1.40001
1.40001
1.40001
1.40001
1.40001
1.40001
1.40001
1.40001
1.40001
1.40001
1.40001
1.40001
1.40001
1.40001
1.40001
1.40001
1.40001
1.40001
1.40001
1.40001
1.40001
1.40001
1.40001
1.40001
1.40001
1.40001
1.40001
1.40001
1.40001
1.40001
1.40001
1.40003
3.62652
5.27258
5.35024
5.38635
5.41346
5.43703
5.45855
5.47715
5.49273
5.50565
5.5168
5.52739
5.53945
5.55275
5.56663
5.57945
5.59009
5.59893
5.6053
5.6091
5.61183
5.61478
5.61917
5.62458
5.63061
5.63621
5.64015
5.64251
5.64414
5.64609
5.64874
5.6514
5.65341
5.65449
5.65432
5.65318
5.65122
5.6486
5.64482
5.6393
5.63153
5.62145
5.61014
5.60143
5.59799
1.40001
1.40001
1.40001
1.40001
1.40001
1.40001
1.40001
1.40001
1.40001
1.40001
1.40001
1.40001
1.40001
1.40001
1.40001
1.40001
1.40001
1.40001
1.40001
1.40001
1.40001
1.40001
1.40001
1.40001
1.40001
1.40001
1.40001
1.40001
1.40001
1.40001
1.40001
1.40001
1.40001
1.40001
1.40001
1.40001
1.40001
1.40001
1.40001
1.40001
1.40001
1.40001
1.40001
1.40001
1.40001
1.40001
1.40001
1.40001
1.40001
1.40001
1.4
3.19164
5.17184
5.31328
5.35465
5.38743
5.4135
5.43681
5.45711
5.4747
5.49005
5.50374
5.51629
5.52777
5.54002
5.55305
5.56639
5.57852
5.58839
5.59583
5.59995
5.60204
5.60295
5.60504
5.60831
5.61255
5.61673
5.61953
5.62063
5.6207
5.6209
5.62184
5.62288
5.62334
5.6229
5.62133
5.61853
5.61462
5.60986
5.60398
5.59649
5.58686
5.57478
5.56126
5.5507
5.54579
1.40001
1.40001
1.40001
1.40001
1.40001
1.40001
1.40001
1.40001
1.40001
1.40001
1.40001
1.40001
1.40001
1.40001
1.40001
1.40001
1.40001
1.40001
1.40001
1.40001
1.40001
1.40001
1.40001
1.40001
1.40001
1.40001
1.40001
1.40001
1.40001
1.40001
1.40001
1.40001
1.40001
1.40001
1.40001
1.40001
1.40001
1.40001
1.40001
1.40001
1.40001
1.40001
1.40001
1.40001
1.40001
1.40001
1.40001
1.40001
1.40001
1.40001
1.40001
2.74633
5.05288
5.31835
5.35599
5.38458
5.40465
5.423
5.4405
5.45735
5.47273
5.48664
5.49942
5.51173
5.5243
5.53724
5.5505
5.56257
5.57421
5.58344
5.58871
5.59103
5.59081
5.59077
5.59184
5.59411
5.59672
5.59833
5.59825
5.59668
5.59491
5.59371
5.59253
5.59109
5.58892
5.58542
5.5806
5.57429
5.56673
5.55766
5.54651
5.53351
5.51879
5.50323
5.49122
5.48604
1.40001
1.40001
1.40001
1.40001
1.40001
1.40001
1.40001
1.40001
1.40001
1.40001
1.40001
1.40001
1.40001
1.40001
1.40001
1.40001
1.40001
1.40001
1.40001
1.40001
1.40001
1.40001
1.40001
1.40001
1.40001
1.40001
1.40001
1.40001
1.40001
1.40001
1.40001
1.40001
1.40001
1.40001
1.40001
1.40001
1.40001
1.40001
1.40001
1.40001
1.40001
1.40001
1.40001
1.40001
1.40001
1.40001
1.40001
1.40001
1.40001
1.40001
1.40001
2.27781
4.89278
5.37101
5.3686
5.38012
5.39455
5.41187
5.42873
5.44424
5.45802
5.47042
5.48218
5.4936
5.50511
5.5173
5.53023
5.54433
5.55609
5.56678
5.57369
5.57714
5.57702
5.57559
5.57482
5.57513
5.57612
5.57666
5.5754
5.57212
5.56817
5.56444
5.56053
5.55678
5.55247
5.54675
5.53927
5.52987
5.51864
5.5056
5.49077
5.47409
5.45532
5.43491
5.41769
5.40802
1.40001
1.40001
1.40001
1.40001
1.40001
1.40001
1.40001
1.40001
1.40001
1.40001
1.40001
1.40001
1.40001
1.40001
1.40001
1.40001
1.40001
1.40001
1.40001
1.40001
1.40001
1.40001
1.40001
1.40001
1.40001
1.40001
1.40001
1.40001
1.40001
1.40001
1.40001
1.40001
1.40001
1.40001
1.40001
1.40001
1.40001
1.40001
1.40001
1.40001
1.40001
1.40001
1.40001
1.40001
1.40001
1.40001
1.40001
1.40001
1.40001
1.40001
1.40001
1.81106
4.72873
5.45034
5.38905
5.39576
5.40484
5.41604
5.42602
5.43574
5.44564
5.45594
5.4661
5.47627
5.48647
5.49751
5.50927
5.52175
5.53502
5.54643
5.55454
5.55933
5.56038
5.55858
5.55651
5.55522
5.55484
5.55418
5.55173
5.54668
5.54043
5.53391
5.52693
5.52035
5.51338
5.50493
5.49427
5.4811
5.46542
5.44723
5.4263
5.40204
5.37445
5.3464
5.32413
5.31484
1.40001
1.40001
1.40001
1.40001
1.40001
1.40001
1.40001
1.40001
1.40001
1.40001
1.40001
1.40001
1.40001
1.40001
1.40001
1.40001
1.40001
1.40001
1.40001
1.40001
1.40001
1.40001
1.40001
1.40001
1.40001
1.40001
1.40001
1.40001
1.40001
1.40001
1.40001
1.40001
1.40001
1.40001
1.40001
1.40001
1.40001
1.40001
1.40001
1.40001
1.40001
1.40001
1.40001
1.40001
1.40001
1.40001
1.40001
1.40001
1.40001
1.40001
1.40001
1.44558
4.30998
5.44689
5.40043
5.40221
5.40838
5.41735
5.42785
5.43539
5.44136
5.44722
5.45345
5.46078
5.46911
5.47848
5.48897
5.50035
5.51249
5.52372
5.53235
5.53783
5.54017
5.53899
5.53628
5.53381
5.53228
5.53047
5.52693
5.5203
5.5118
5.50235
5.49203
5.4821
5.47188
5.46011
5.44563
5.42784
5.40642
5.38127
5.35227
5.3196
5.28308
5.24454
5.20575
5.17583
1.40001
1.40001
1.40001
1.40001
1.40001
1.40001
1.40001
1.40001
1.40001
1.40001
1.40001
1.40001
1.40001
1.40001
1.40001
1.40001
1.40001
1.40001
1.40001
1.40001
1.40001
1.40001
1.40001
1.40001
1.40001
1.40001
1.40001
1.40001
1.40001
1.40001
1.40001
1.40001
1.40001
1.40001
1.40001
1.40001
1.40001
1.40001
1.40001
1.40001
1.40001
1.40001
1.40001
1.40001
1.40001
1.40001
1.40001
1.40001
1.40001
1.40001
1.40001
1.40027
3.75102
5.29641
5.33362
5.37236
5.39835
5.41636
5.42881
5.43625
5.44074
5.44355
5.44607
5.44959
5.45459
5.46126
5.46959
5.47918
5.49002
5.50072
5.50902
5.51417
5.51682
5.51682
5.51392
5.51058
5.50809
5.50516
5.50056
5.4925
5.48191
5.46954
5.45569
5.44198
5.42792
5.41219
5.39318
5.36988
5.34167
5.30834
5.2691
5.2224
5.16419
5.09457
5.02678
4.97992
1.40001
1.40001
1.40001
1.40001
1.40001
1.40001
1.40001
1.40001
1.40001
1.40001
1.40001
1.40001
1.40001
1.40001
1.40001
1.40001
1.40001
1.40001
1.40001
1.40001
1.40001
1.40001
1.40001
1.40001
1.40001
1.40001
1.40001
1.40001
1.40001
1.40001
1.40001
1.40001
1.40001
1.40001
1.40001
1.40001
1.40001
1.40001
1.40001
1.40001
1.40001
1.40001
1.40001
1.40001
1.40001
1.40001
1.40001
1.40001
1.40001
1.40001
1.40001
1.4
3.17707
5.14701
5.30103
5.35127
5.382
5.40122
5.41696
5.42822
5.43554
5.43966
5.44163
5.44275
5.44465
5.4481
5.45336
5.46017
5.46856
5.47768
5.4853
5.48993
5.49198
5.49207
5.48926
5.48516
5.48184
5.47786
5.47225
5.46307
5.45071
5.43559
5.41823
5.40039
5.38192
5.36155
5.33731
5.30771
5.27157
5.22786
5.1742
5.10774
5.02551
4.92507
4.81225
4.73212
1.40001
1.40001
1.40001
1.40001
1.40001
1.40001
1.40001
1.40001
1.40001
1.40001
1.40001
1.40001
1.40001
1.40001
1.40001
1.40001
1.40001
1.40001
1.40001
1.40001
1.40001
1.40001
1.40001
1.40001
1.40001
1.40001
1.40001
1.40001
1.40001
1.40001
1.40001
1.40001
1.40001
1.40001
1.40001
1.40001
1.40001
1.40001
1.40001
1.40001
1.40001
1.40001
1.40001
1.40001
1.40001
1.40001
1.40001
1.40001
1.40001
1.40001
1.40001
1.4
2.62547
4.96994
5.29635
5.33531
5.36547
5.38802
5.40227
5.41405
5.42439
5.43186
5.43582
5.43715
5.43761
5.43844
5.4405
5.44405
5.44931
5.45577
5.4617
5.46543
5.46657
5.46583
5.46263
5.45767
5.45348
5.44845
5.44175
5.43162
5.41774
5.4001
5.37949
5.35737
5.334
5.30838
5.27825
5.24164
5.19645
5.14091
5.0715
4.98389
4.8661
4.68862
4.33806
3.4312
1.40001
1.40001
1.40001
1.40001
1.40001
1.40001
1.40001
1.40001
1.40001
1.40001
1.40001
1.40001
1.40001
1.40001
1.40001
1.40001
1.40001
1.40001
1.40001
1.40001
1.40001
1.40001
1.40001
1.40001
1.40001
1.40001
1.40001
1.40001
1.40001
1.40001
1.40001
1.40001
1.40001
1.40001
1.40001
1.40001
1.40001
1.40001
1.40001
1.40001
1.40001
1.40001
1.40001
1.40001
1.40001
1.40001
1.40001
1.40001
1.40001
1.40001
1.40001
1.4
2.05999
4.78429
5.35951
5.34296
5.35456
5.36954
5.38404
5.39806
5.40971
5.41856
5.4246
5.42783
5.42908
5.42941
5.42975
5.4308
5.43303
5.43645
5.4397
5.44169
5.44142
5.43915
5.43458
5.42862
5.42315
5.41691
5.40918
5.39807
5.38285
5.36318
5.33961
5.31332
5.28478
5.25337
5.21683
5.17267
5.11791
5.04953
4.96235
4.84679
4.68426
4.4241
4.01022
2.9914
1.40001
1.40001
1.40001
1.40001
1.40001
1.40001
1.40001
1.40001
1.40001
1.40001
1.40001
1.40001
1.40001
1.40001
1.40001
1.40001
1.40001
1.40001
1.40001
1.40001
1.40001
1.40001
1.40001
1.40001
1.40001
1.40001
1.40001
1.40001
1.40001
1.40001
1.40001
1.40001
1.40001
1.40001
1.40001
1.40001
1.40001
1.40001
1.40001
1.40001
1.40001
1.40001
1.40001
1.40001
1.40001
1.40001
1.40001
1.40001
1.40001
1.40001
1.40001
1.40001
1.53206
4.45437
5.43446
5.37503
5.35272
5.35695
5.3691
5.38112
5.3925
5.40206
5.40953
5.41473
5.41777
5.4191
5.41929
5.4191
5.41908
5.41966
5.41993
5.4196
5.41709
5.41268
5.40617
5.39878
5.39148
5.3835
5.37445
5.36219
5.34577
5.3245
5.29841
5.2683
5.23466
5.19719
5.15385
5.10185
5.03732
4.95628
4.85146
4.71335
4.51393
4.24311
3.69465
2.86202
1.40001
1.40001
1.40001
1.40001
1.40001
1.40001
1.40001
1.40001
1.40001
1.40001
1.40001
1.40001
1.40001
1.40001
1.40001
1.40001
1.40001
1.40001
1.40001
1.40001
1.40001
1.40001
1.40001
1.40001
1.40001
1.40001
1.40001
1.40001
1.40001
1.40001
1.40001
1.40001
1.40001
1.40001
1.40001
1.40001
1.40001
1.40001
1.40001
1.40001
1.40001
1.40001
1.40001
1.40001
1.40001
1.40001
1.40001
1.40001
1.40001
1.40001
1.40001
1.40001
1.40269
3.86833
5.29282
5.31274
5.33511
5.34511
5.35694
5.36662
5.37634
5.38512
5.39263
5.39861
5.40278
5.40529
5.40624
5.40612
5.40515
5.40412
5.40217
5.39928
5.39417
5.38745
5.37878
5.36907
5.35918
5.34884
5.33784
5.32428
5.30677
5.28427
5.25613
5.22263
5.18414
5.14064
5.09039
5.03072
4.95677
4.86452
4.74439
4.58922
4.36894
4.05736
3.52546
2.84254
1.40001
1.40001
1.40001
1.40001
1.40001
1.40001
1.40001
1.40001
1.40001
1.40001
1.40001
1.40001
1.40001
1.40001
1.40001
1.40001
1.40001
1.40001
1.40001
1.40001
1.40001
1.40001
1.40001
1.40001
1.40001
1.40001
1.40001
1.40001
1.40001
1.40001
1.40001
1.40001
1.40001
1.40001
1.40001
1.40001
1.40001
1.40001
1.40001
1.40001
1.40001
1.40001
1.40001
1.40001
1.40001
1.40001
1.40001
1.40001
1.40001
1.40001
1.40001
1.40001
1.39998
3.18257
5.11896
5.29173
5.32559
5.3411
5.34803
5.35618
5.36363
5.37021
5.37613
5.38135
5.38549
5.38851
5.39023
5.39065
5.38966
5.38798
5.38474
5.38006
5.37289
5.36403
5.35294
5.34045
5.3273
5.31386
5.30002
5.2846
5.26586
5.24229
5.21253
5.17625
5.13349
5.08444
5.02761
4.96075
4.87845
4.77647
4.64513
4.47466
4.24608
3.92023
3.44573
2.89355
1.40001
1.40001
1.40001
1.40001
1.40001
1.40001
1.40001
1.40001
1.40001
1.40001
1.40001
1.40001
1.40001
1.40001
1.40001
1.40001
1.40001
1.40001
1.40001
1.40001
1.40001
1.40001
1.40001
1.40001
1.40001
1.40001
1.40001
1.40001
1.40001
1.40001
1.40001
1.40001
1.40001
1.40001
1.40001
1.40001
1.40001
1.40001
1.40001
1.40001
1.40001
1.40001
1.40001
1.40001
1.40001
1.40001
1.40001
1.40001
1.40001
1.40001
1.40001
1.40001
1.4
2.52509
4.94294
5.30711
5.32226
5.33209
5.34171
5.34924
5.3547
5.35878
5.36217
5.36542
5.36828
5.37061
5.3722
5.3727
5.37181
5.36989
5.36616
5.36073
5.35253
5.342
5.3287
5.31371
5.29704
5.2798
5.26237
5.24425
5.22379
5.19904
5.16789
5.12942
5.08304
5.02914
4.96635
4.89297
4.80385
4.69404
4.55537
4.37618
4.14425
3.82832
3.42215
2.96418
1.40001
1.40001
1.40001
1.40001
1.40001
1.40001
1.40001
1.40001
1.40001
1.40001
1.40001
1.40001
1.40001
1.40001
1.40001
1.40001
1.40001
1.40001
1.40001
1.40001
1.40001
1.40001
1.40001
1.40001
1.40001
1.40001
1.40001
1.40001
1.40001
1.40001
1.40001
1.40001
1.40001
1.40001
1.40001
1.40001
1.40001
1.40001
1.40001
1.40001
1.40001