/*--------------------------------*- C++ -*----------------------------------*\
  =========                 |
  \\      /  F ield         | OpenFOAM: The Open Source CFD Toolbox
   \\    /   O peration     | Website:  https://openfoam.org
    \\  /    A nd           | Version:  7
     \\/     M anipulation  |
\*---------------------------------------------------------------------------*/
FoamFile
{
    version     2.0;
    format      ascii;
    class       volScalarField;
    location    "2.5";
    object      T;
}
// * * * * * * * * * * * * * * * * * * * * * * * * * * * * * * * * * * * * * //

dimensions      [0 0 0 1 0 0 0];

internalField   nonuniform List<scalar> 
64512
(
1
1
1
1
1
1
1
1
1
1
1
1
1
1
1
1
1
1
1
1
1
1
1
1
1
1
1
1
1
1
1
1
1
1
1
1
1
1
1
1
1
1
1
1
1
1
1
1
1
1.81782
2.65463
2.6957
2.69549
2.69926
2.70565
2.7135
2.72162
2.72908
2.73506
2.73902
2.74106
2.74184
2.74233
2.74343
2.74599
2.75029
2.75568
2.76087
2.76472
2.76713
2.76881
2.77052
2.77274
2.77553
2.77858
2.7815
2.78413
2.78647
2.78853
2.79022
2.79154
2.79256
2.79353
2.79485
2.79693
2.79991
2.80352
2.80713
2.8102
2.81266
2.815
2.81767
2.82098
2.82478
2.82766
2.82869
1
1
1
1
1
1
1
1
1
1
1
1
1
1
1
1
1
1
1
1
1
1
1
1
1
1
1
1
1
1
1
1
1
1
1
1
1
1
1
1
1
1
1
1
1
1
1
1
1
1.81301
2.65365
2.69519
2.69501
2.69907
2.70561
2.71353
2.72168
2.72915
2.73506
2.73894
2.74093
2.74173
2.74225
2.74339
2.74596
2.75024
2.75557
2.7607
2.76451
2.76692
2.76861
2.77033
2.77256
2.77536
2.77844
2.78139
2.78402
2.78635
2.78838
2.79004
2.79134
2.79235
2.79334
2.79468
2.79677
2.79975
2.80334
2.80694
2.81
2.81246
2.8148
2.81748
2.82078
2.82458
2.82746
2.82848
1
1
1
1
1
1
1
1
1
1
1
1
1
1
1
1
1
1
1
1
1
1
1
1
1
1
1
1
1
1
1
1
1
1
1
1
1
1
1
1
1
1
1
1
1
1
1
1
1
1.79915
2.65045
2.69442
2.69416
2.69858
2.70533
2.71334
2.7215
2.72891
2.73472
2.7385
2.74048
2.74134
2.74196
2.74318
2.74581
2.7501
2.75536
2.7604
2.76414
2.76654
2.76825
2.77
2.77225
2.77508
2.77818
2.78115
2.7838
2.78614
2.78814
2.78976
2.79102
2.79203
2.79303
2.7944
2.79653
2.79952
2.8031
2.80666
2.80968
2.81213
2.81449
2.81719
2.82049
2.82429
2.82714
2.82816
1
1
1
1
1
1
1
1
1
1
1
1
1
1
1
1
1
1
1
1
1
1
1
1
1
1
1
1
1
1
1
1
1
1
1
1
1
1
1
1
1
1
1
1
1
1
1
1
1
1.77467
2.64438
2.69411
2.69377
2.69818
2.70482
2.7128
2.72089
2.7282
2.73393
2.73767
2.73969
2.74066
2.7414
2.74273
2.74543
2.74972
2.7549
2.75985
2.76352
2.76592
2.76767
2.76946
2.77177
2.77463
2.77775
2.78074
2.78341
2.78575
2.78775
2.78935
2.79058
2.79158
2.7926
2.794
2.79615
2.79917
2.80274
2.80626
2.80923
2.81165
2.81403
2.81675
2.82005
2.82384
2.82667
2.82766
1
1
1
1
1
1
1
1
1
1
1
1
1
1
1
1
1
1
1
1
1
1
1
1
1
1
1
1
1
1
1
1
1
1
1
1
1
1
1
1
1
1
1
1
1
1
1
1
1
1.74378
2.63514
2.69481
2.69416
2.69806
2.704
2.71154
2.71943
2.72674
2.73255
2.73648
2.73872
2.73986
2.74076
2.74223
2.745
2.74928
2.75435
2.75919
2.76276
2.76516
2.76692
2.76877
2.77112
2.774
2.77714
2.78013
2.78282
2.78518
2.78719
2.78881
2.79004
2.79104
2.79205
2.79346
2.79563
2.79867
2.80223
2.80572
2.80864
2.81104
2.81343
2.81617
2.8195
2.82329
2.82609
2.82707
1
1
1
1
1
1
1
1
1
1
1
1
1
1
1
1
1
1
1
1
1
1
1
1
1
1
1
1
1
1
1
1
1
1
1
1
1
1
1
1
1
1
1
1
1
1
1
1
1
1.70464
2.62224
2.69607
2.69523
2.69855
2.70338
2.70996
2.71741
2.72471
2.73074
2.73497
2.73746
2.73878
2.73982
2.74139
2.74419
2.74844
2.7534
2.75816
2.76172
2.76419
2.76604
2.76796
2.77034
2.77322
2.77633
2.7793
2.782
2.7844
2.78647
2.78813
2.7894
2.79039
2.79139
2.7928
2.79498
2.79803
2.80159
2.80504
2.80793
2.8103
2.81269
2.81544
2.8188
2.82259
2.82537
2.82634
1
1
1
1
1
1
1
1
1
1
1
1
1
1
1
1
1
1
1
1
1
1
1
1
1
1
1
1
1
1
1
1
1
1
1
1
1
1
1
1
1
1
1
1
1
1
1
1
1
1.65458
2.60468
2.69716
2.69659
2.69947
2.7032
2.70855
2.71511
2.72214
2.72841
2.7331
2.73605
2.73774
2.73901
2.74068
2.74342
2.74751
2.75228
2.75695
2.76053
2.76312
2.76507
2.76705
2.76943
2.77224
2.77529
2.77822
2.78095
2.78342
2.78557
2.7873
2.7886
2.78961
2.79061
2.79201
2.79419
2.79723
2.80077
2.80419
2.80705
2.8094
2.81178
2.81453
2.81793
2.82175
2.82454
2.82553
1
1
1
1
1
1
1
1
1
1
1
1
1
1
1
1
1
1
1
1
1
1
1
1
1
1
1
1
1
1
1
1
1
1
1
1
1
1
1
1
1
1
1
1
1
1
1
1
1
1.59634
2.58417
2.69712
2.69716
2.70017
2.70327
2.7075
2.71301
2.71948
2.72582
2.731
2.73456
2.73673
2.73827
2.73999
2.74257
2.74636
2.75083
2.75536
2.759
2.76177
2.76389
2.76596
2.76834
2.77109
2.77407
2.77701
2.7798
2.78235
2.78457
2.78633
2.78763
2.78863
2.78963
2.79104
2.79323
2.79625
2.79977
2.80318
2.80602
2.80837
2.81072
2.81345
2.81688
2.82073
2.82355
2.82459
1
1
1
1
1
1
1
1
1
1
1
1
1
1
1
1
1
1
1
1
1
1
1
1
1
1
1
1
1
1
1
1
1
1
1
1
1
1
1
1
1
1
1
1
1
1
1
1
1
1.52948
2.56012
2.69563
2.69698
2.70061
2.70344
2.70684
2.71125
2.71688
2.72296
2.72848
2.73267
2.73544
2.73735
2.73916
2.74155
2.74499
2.74913
2.75352
2.75729
2.76033
2.76269
2.76487
2.76716
2.76973
2.77256
2.77544
2.7783
2.78095
2.78323
2.78502
2.78634
2.78738
2.78845
2.78994
2.79216
2.79517
2.79864
2.802
2.80482
2.80717
2.80948
2.81218
2.81563
2.81952
2.82238
2.82349
1
1
1
1
1
1
1
1
1
1
1
1
1
1
1
1
1
1
1
1
1
1
1
1
1
1
1
1
1
1
1
1
1
1
1
1
1
1
1
1
1
1
1
1
1
1
1
1
1
1.45307
2.53108
2.69276
2.69608
2.70037
2.70329
2.70628
2.70976
2.71441
2.71997
2.72558
2.73035
2.73383
2.73625
2.7382
2.74041
2.74345
2.74717
2.75138
2.75524
2.75859
2.76123
2.76353
2.76574
2.76815
2.77085
2.77373
2.77668
2.77944
2.7818
2.7836
2.78493
2.78602
2.78718
2.78877
2.79102
2.79398
2.79737
2.80065
2.80343
2.80577
2.80805
2.81071
2.81419
2.81813
2.82107
2.82225
1
1
1
1
1
1
1
1
1
1
1
1
1
1
1
1
1
1
1
1
1
1
1
1
1
1
1
1
1
1
1
1
1
1
1
1
1
1
1
1
1
1
1
1
1
1
1
1
1
1.36953
2.49654
2.68896
2.69424
2.69945
2.70275
2.70564
2.70849
2.71217
2.71695
2.72239
2.7276
2.73181
2.73482
2.73701
2.7391
2.74177
2.74512
2.74912
2.75309
2.75674
2.75966
2.7621
2.76423
2.76646
2.76902
2.77188
2.7749
2.77776
2.78016
2.78197
2.7833
2.78443
2.78568
2.78734
2.78963
2.79256
2.79588
2.79911
2.80188
2.80423
2.80648
2.8091
2.81259
2.81658
2.81956
2.8208
1
1
1
1
1
1
1
1
1
1
1
1
1
1
1
1
1
1
1
1
1
1
1
1
1
1
1
1
1
1
1
1
1
1
1
1
1
1
1
1
1
1
1
1
1
1
1
1
1
1.27828
2.45381
2.68544
2.69161
2.69754
2.70145
2.70465
2.70733
2.71037
2.71435
2.71931
2.72464
2.7294
2.733
2.7355
2.73755
2.73995
2.74296
2.74676
2.75079
2.7547
2.75791
2.76049
2.76257
2.76465
2.76704
2.76983
2.77287
2.77578
2.77822
2.78006
2.78145
2.78269
2.78406
2.78583
2.78815
2.79103
2.79426
2.79739
2.80007
2.80238
2.80458
2.80717
2.8107
2.81474
2.81777
2.81905
1
1
1
1
1
1
1
1
1
1
1
1
1
1
1
1
1
1
1
1
1
1
1
1
1
1
1
1
1
1
1
1
1
1
1
1
1
1
1
1
1
1
1
1
1
1
1
1
1
1.18387
2.40371
2.68421
2.68833
2.69454
2.69908
2.70295
2.706
2.70893
2.71243
2.71686
2.72198
2.72694
2.73093
2.73372
2.73581
2.73804
2.74078
2.74435
2.74837
2.75247
2.75596
2.75871
2.76077
2.76272
2.76493
2.76761
2.77061
2.77356
2.77609
2.77803
2.77951
2.78083
2.78228
2.78408
2.78637
2.78919
2.79234
2.79539
2.79802
2.8003
2.80248
2.80506
2.80863
2.81272
2.81578
2.81709
1
1
1
1
1
1
1
1
1
1
1
1
1
1
1
1
1
1
1
1
1
1
1
1
1
1
1
1
1
1
1
1
1
1
1
1
1
1
1
1
1
1
1
1
1
1
1
1
1
1.08436
2.34947
2.68574
2.6864
2.69167
2.69665
2.70122
2.70488
2.70802
2.71134
2.71533
2.72
2.72477
2.72883
2.73176
2.73391
2.73606
2.73861
2.74198
2.74595
2.75017
2.75391
2.75682
2.75891
2.76074
2.76276
2.76526
2.76817
2.77114
2.77376
2.77583
2.77744
2.77887
2.78038
2.7822
2.78446
2.7872
2.79025
2.7932
2.79576
2.79798
2.80014
2.80272
2.80632
2.81045
2.81354
2.81486
1
1
1
1
1
1
1
1
1
1
1
1
1
1
1
1
1
1
1
1
1
1
1
1
1
1
1
1
1
1
1
1
1
1
1
1
1
1
1
1
1
1
1
1
1
1
1
1
1
1.00376
2.28874
2.68502
2.68579
2.69005
2.69491
2.69969
2.70379
2.7073
2.71076
2.7146
2.71889
2.72326
2.72705
2.72989
2.732
2.73409
2.73652
2.73974
2.74362
2.74787
2.75178
2.75484
2.75695
2.75868
2.7605
2.76279
2.76556
2.76853
2.77127
2.77349
2.77523
2.77674
2.77828
2.78007
2.78227
2.78492
2.78786
2.79073
2.79322
2.7954
2.79755
2.80013
2.80375
2.80791
2.81102
2.81234
1
1
1
1
1
1
1
1
1
1
1
1
1
1
1
1
1
1
1
1
1
1
1
1
1
1
1
1
1
1
1
1
1
1
1
1
1
1
1
1
1
1
1
1
1
1
1
1
1
1.00002
2.21236
2.68283
2.686
2.69002
2.69479
2.69953
2.70369
2.70732
2.71081
2.71449
2.71839
2.72228
2.72568
2.72827
2.73029
2.73233
2.73471
2.73785
2.74165
2.74584
2.74981
2.75289
2.75495
2.7565
2.75808
2.76013
2.76275
2.76573
2.76858
2.77094
2.77279
2.77435
2.7759
2.77766
2.77981
2.78238
2.78522
2.78799
2.79042
2.79256
2.79469
2.79724
2.80085
2.80502
2.80816
2.80946
1
1
1
1
1
1
1
1
1
1
1
1
1
1
1
1
1
1
1
1
1
1
1
1
1
1
1
1
1
1
1
1
1
1
1
1
1
1
1
1
1
1
1
1
1
1
1
1
1
1
2.11512
2.67554
2.68524
2.68967
2.69443
2.69899
2.70318
2.70707
2.71082
2.71457
2.71828
2.72177
2.72469
2.72691
2.72871
2.73065
2.733
2.73612
2.73991
2.74406
2.74802
2.75105
2.75298
2.75429
2.75561
2.75742
2.75989
2.76285
2.7658
2.76827
2.77018
2.77174
2.77323
2.77494
2.77702
2.7795
2.78223
2.78491
2.78728
2.78939
2.7915
2.79403
2.79762
2.8018
2.80495
2.80624
1
1
1
1
1
1
1
1
1
1
1
1
1
1
1
1
1
1
1
1
1
1
1
1
1
1
1
1
1
1
1
1
1
1
1
1
1
1
1
1
1
1
1
1
1
1
1
1
1
1
1.99676
2.65831
2.68213
2.68717
2.6922
2.69692
2.70146
2.70594
2.71033
2.71442
2.71807
2.72124
2.72374
2.72558
2.72712
2.72895
2.73131
2.73451
2.73839
2.74256
2.7465
2.7494
2.7511
2.75209
2.75311
2.75467
2.757
2.75995
2.76296
2.76548
2.76739
2.76888
2.77029
2.77192
2.77392
2.7763
2.77893
2.78152
2.78384
2.78593
2.78799
2.79045
2.794
2.79815
2.8013
2.80257
1
1
1
1
1
1
1
1
1
1
1
1
1
1
1
1
1
1
1
1
1
1
1
1
1
1
1
1
1
1
1
1
1
1
1
1
1
1
1
1
1
1
1
1
1
1
1
1
1
1
1.86109
2.63058
2.67728
2.68217
2.68725
2.69216
2.69743
2.70297
2.70847
2.71345
2.7174
2.72041
2.72255
2.72401
2.72529
2.727
2.72941
2.73275
2.73677
2.741
2.74489
2.74766
2.74915
2.74983
2.75059
2.75195
2.75417
2.7571
2.76013
2.76264
2.76447
2.76584
2.76712
2.76863
2.77052
2.77278
2.77528
2.77777
2.78002
2.78209
2.78411
2.78646
2.78996
2.79407
2.79721
2.79847
1
1
1
1
1
1
1
1
1
1
1
1
1
1
1
1
1
1
1
1
1
1
1
1
1
1
1
1
1
1
1
1
1
1
1
1
1
1
1
1
1
1
1
1
1
1
1
1
1
1
1.71631
2.59424
2.67228
2.67511
2.67927
2.68435
2.69067
2.6975
2.70435
2.71049
2.71529
2.71858
2.72061
2.72185
2.72296
2.72463
2.72713
2.73062
2.73483
2.73915
2.74303
2.74572
2.74705
2.74749
2.74806
2.74925
2.75135
2.75422
2.75719
2.75964
2.76136
2.76259
2.76372
2.76507
2.76682
2.76893
2.7713
2.77368
2.77588
2.77789
2.7798
2.78205
2.78544
2.78947
2.79258
2.79381
1
1
1
1
1
1
1
1
1
1
1
1
1
1
1
1
1
1
1
1
1
1
1
1
1
1
1
1
1
1
1
1
1
1
1
1
1
1
1
1
1
1
1
1
1
1
1
1
1
1
1.54562
2.53685
2.66526
2.66697
2.67163
2.67668
2.68296
2.69016
2.69781
2.70497
2.7108
2.71482
2.71719
2.71855
2.71973
2.72151
2.72415
2.72778
2.73219
2.73665
2.74062
2.74339
2.74475
2.74509
2.74553
2.74656
2.74849
2.75119
2.75406
2.75642
2.75802
2.75912
2.76008
2.76125
2.7628
2.76473
2.76693
2.76918
2.7713
2.7732
2.77496
2.77711
2.78038
2.78432
2.7874
2.78863
1
1
1
1
1
1
1
1
1
1
1
1
1
1
1
1
1
1
1
1
1
1
1
1
1
1
1
1
1
1
1
1
1
1
1
1
1
1
1
1
1
1
1
1
1
1
1
1
1
1
1.33717
2.45745
2.66287
2.6605
2.66552
2.67007
2.67573
2.68241
2.69003
2.6977
2.70416
2.70895
2.71202
2.71388
2.7154
2.71742
2.72024
2.72397
2.72854
2.73319
2.73738
2.74043
2.74204
2.7425
2.7429
2.74379
2.7455
2.74797
2.75066
2.75291
2.75442
2.75539
2.75618
2.75713
2.75844
2.76013
2.76215
2.76427
2.7663
2.76805
2.76961
2.77161
2.7747
2.77851
2.78152
2.7827
1
1
1
1
1
1
1
1
1
1
1
1
1
1
1
1
1
1
1
1
1
1
1
1
1
1
1
1
1
1
1
1
1
1
1
1
1
1
1
1
1
1
1
1
1
1
1
1
1
1
1.11706
2.37098
2.66483
2.66152
2.66438
2.66743
2.67151
2.67651
2.68278
2.6897
2.6962
2.70148
2.70529
2.70791
2.71
2.71239
2.71541
2.71914
2.72373
2.72854
2.73304
2.73655
2.73868
2.73951
2.74
2.74081
2.74229
2.74448
2.74695
2.74908
2.75051
2.75136
2.75197
2.75266
2.75369
2.75511
2.7569
2.75884
2.76068
2.76218
2.76355
2.76537
2.76828
2.77196
2.77493
2.7761
1
1
1
1
1
1
1
1
1
1
1
1
1
1
1
1
1
1
1
1
1
1
1
1
1
1
1
1
1
1
1
1
1
1
1
1
1
1
1
1
1
1
1
1
1
1
1
1
1
1
1.00418
2.2938
2.66328
2.65905
2.6635
2.66707
2.67091
2.6747
2.67884
2.68379
2.68913
2.69414
2.69832
2.7015
2.7041
2.70678
2.70989
2.71353
2.71794
2.72279
2.72757
2.73165
2.73446
2.73589
2.73663
2.73744
2.73874
2.74063
2.74288
2.7449
2.74627
2.747
2.74739
2.74781
2.74851
2.74962
2.75115
2.75285
2.75443
2.7557
2.75686
2.75841
2.76103
2.76448
2.76733
2.76841
1
1
1
1
1
1
1
1
1
1
1
1
1
1
1
1
1
1
1
1
1
1
1
1
1
1
1
1
1
1
1
1
1
1
1
1
1
1
1
1
1
1
1
1
1
1
1
1
1
1
1.00001
2.17434
2.66569
2.6662
2.66853
2.67131
2.67373
2.67623
2.67918
2.68245
2.68597
2.68959
2.69292
2.69594
2.69867
2.7014
2.70433
2.70763
2.71163
2.71625
2.72114
2.72573
2.72925
2.73143
2.73258
2.7335
2.73468
2.73635
2.7384
2.74033
2.74165
2.74224
2.74239
2.74253
2.74289
2.74364
2.74479
2.74615
2.74739
2.74832
2.74913
2.75033
2.75264
2.7559
2.75868
2.75975
1
1
1
1
1
1
1
1
1
1
1
1
1
1
1
1
1
1
1
1
1
1
1
1
1
1
1
1
1
1
1
1
1
1
1
1
1
1
1
1
1
1
1
1
1
1
1
1
1
1
1
2.02108
2.65217
2.66832
2.67053
2.67326
2.67559
2.67782
2.67998
2.68225
2.68459
2.68719
2.68988
2.69228
2.69457
2.69686
2.69938
2.7022
2.7055
2.70954
2.71416
2.71898
2.72308
2.72601
2.7277
2.72884
2.73001
2.73155
2.73347
2.73533
2.73658
2.73702
2.73695
2.73681
2.73678
2.73707
2.73777
2.7387
2.73955
2.74012
2.74055
2.74132
2.74311
2.74592
2.74841
2.74923
1
1
1
1
1
1
1
1
1
1
1
1
1
1
1
1
1
1
1
1
1
1
1
1
1
1
1
1
1
1
1
1
1
1
1
1
1
1
1
1
1
1
1
1
1
1
1
1
1
1
1
1.83539
2.60471
2.66495
2.6696
2.67355
2.67651
2.67903
2.68099
2.68269
2.6845
2.68641
2.6884
2.69043
2.69236
2.69414
2.69593
2.69777
2.7002
2.70335
2.70723
2.71181
2.71622
2.71966
2.72193
2.72338
2.72464
2.72615
2.72799
2.72978
2.73098
2.73129
2.73103
2.73052
2.73007
2.72989
2.73008
2.73047
2.73077
2.73072
2.73051
2.73056
2.73164
2.73399
2.73628
2.73712
1
1
1
1
1
1
1
1
1
1
1
1
1
1
1
1
1
1
1
1
1
1
1
1
1
1
1
1
1
1
1
1
1
1
1
1
1
1
1
1
1
1
1
1
1
1
1
1
1
1
1
1.5937
2.51246
2.65111
2.65871
2.66512
2.6706
2.67553
2.67929
2.68214
2.68433
2.68622
2.68801
2.68964
2.69103
2.69223
2.69335
2.69476
2.69611
2.69816
2.70097
2.7048
2.70905
2.71265
2.71534
2.71712
2.71858
2.72012
2.72186
2.72363
2.72479
2.72498
2.72456
2.72372
2.72279
2.72206
2.72162
2.72134
2.72092
2.72013
2.7191
2.71843
2.71872
2.71999
2.72124
2.72118
1
1
1
1
1
1
1
1
1
1
1
1
1
1
1
1
1
1
1
1
1
1
1
1
1
1
1
1
1
1
1
1
1
1
1
1
1
1
1
1
1
1
1
1
1
1
1
1
1
1
1
1.28615
2.40569
2.64237
2.64117
2.64993
2.65931
2.66702
2.67296
2.67779
2.68162
2.68464
2.68702
2.68887
2.69017
2.69107
2.69167
2.69222
2.69309
2.69422
2.69589
2.69858
2.70209
2.70543
2.70822
2.71024
2.71184
2.71339
2.71508
2.7168
2.71791
2.71802
2.71746
2.71633
2.71491
2.71353
2.71234
2.71123
2.70993
2.70814
2.70582
2.70347
2.70205
2.70186
2.70202
2.70205
1
1
1
1
1
1
1
1
1
1
1
1
1
1
1
1
1
1
1
1
1
1
1
1
1
1
1
1
1
1
1
1
1
1
1
1
1
1
1
1
1
1
1
1
1
1
1
1
1
1
1
1.02348
2.31171
2.64445
2.63909
2.6419
2.64751
2.65487
2.6626
2.66919
2.67495
2.67981
2.68369
2.68661
2.68853
2.68958
2.69009
2.69039
2.69075
2.69125
2.69206
2.69354
2.69592
2.69863
2.70103
2.70297
2.70457
2.70606
2.70768
2.70929
2.71034
2.71038
2.70972
2.70832
2.70641
2.70431
2.70223
2.70011
2.69764
2.69447
2.69049
2.68636
2.683
2.68053
2.67718
2.67275
1
1
1
1
1
1
1
1
1
1
1
1
1
1
1
1
1
1
1
1
1
1
1
1
1
1
1
1
1
1
1
1
1
1
1
1
1
1
1
1
1
1
1
1
1
1
1
1
1
1
1
1.00012
2.19207
2.63601
2.63396
2.63721
2.64179
2.64731
2.65292
2.65891
2.66515
2.67131
2.67689
2.68148
2.68474
2.68665
2.6876
2.68805
2.68842
2.68877
2.68912
2.68967
2.69089
2.69273
2.6943
2.69576
2.69711
2.69837
2.69975
2.70112
2.70204
2.702
2.70124
2.6996
2.69721
2.69437
2.69126
2.68792
2.68404
2.67922
2.67317
2.66606
2.65793
2.64869
2.63906
2.63091
1
1
1
1
1
1
1
1
1
1
1
1
1
1
1
1
1
1
1
1
1
1
1
1
1
1
1
1
1
1
1
1
1
1
1
1
1
1
1
1
1
1
1
1
1
1
1
1
1
1
1
0.999999
2.01358
2.62903
2.63998
2.64182
2.64362
2.64507
2.6472
2.65069
2.65549
2.66141
2.66769
2.67346
2.67815
2.68143
2.68343
2.68456
2.68533
2.68593
2.68628
2.68646
2.68687
2.6877
2.68838
2.68902
2.6898
2.69059
2.69153
2.69247
2.69311
2.69294
2.69203
2.69017
2.68733
2.68371
2.67948
2.67473
2.66916
2.66223
2.65322
2.64178
2.62793
2.61178
2.59614
2.58977
1
1
1
1
1
1
1
1
1
1
1
1
1
1
1
1
1
1
1
1
1
1
1
1
1
1
1
1
1
1
1
1
1
1
1
1
1
1
1
1
1
1
1
1
1
1
1
1
1
1
1
1
1.7749
2.57258
2.64454
2.64426
2.64558
2.64658
2.64715
2.648
2.65012
2.65386
2.65887
2.66438
2.66959
2.67388
2.67704
2.67923
2.68082
2.68203
2.68278
2.68308
2.68318
2.68328
2.68317
2.68296
2.68299
2.68306
2.68329
2.68357
2.68369
2.68327
2.68211
2.67998
2.6767
2.67231
2.6669
2.66059
2.65306
2.64366
2.63135
2.61517
2.59286
2.55884
2.49575
2.35747
1
1
1
1
1
1
1
1
1
1
1
1
1
1
1
1
1
1
1
1
1
1
1
1
1
1
1
1
1
1
1
1
1
1
1
1
1
1
1
1
1
1
1
1
1
1
1
1
1
1
1
1
1.44809
2.45164
2.64053
2.63973
2.64263
2.6447
2.64613
2.64715
2.64821
2.64986
2.6526
2.65644
2.66087
2.66521
2.66897
2.67205
2.67458
2.67664
2.67809
2.67892
2.67915
2.67891
2.67831
2.67746
2.67672
2.67599
2.67539
2.6748
2.67417
2.6732
2.67161
2.66911
2.66536
2.66019
2.65362
2.64568
2.63603
2.62388
2.60775
2.58531
2.55244
2.49903
2.41901
2.20553
1
1
1
1
1
1
1
1
1
1
1
1
1
1
1
1
1
1
1
1
1
1
1
1
1
1
1
1
1
1
1
1
1
1
1
1
1
1
1
1
1
1
1
1
1
1
1
1
1
1
1
1
1.07306
2.3224
2.63379
2.63049
2.63317
2.63788
2.64251
2.64499
2.64641
2.64755
2.64901
2.65116
2.65402
2.65732
2.66072
2.66396
2.66695
2.66968
2.67188
2.67347
2.67408
2.67398
2.6733
2.67214
2.67085
2.66941
2.66794
2.66636
2.66477
2.663
2.66075
2.65768
2.65335
2.64742
2.63972
2.63017
2.61835
2.60338
2.58336
2.55575
2.51417
2.45667
2.33506
2.12961
1
1
1
1
1
1
1
1
1
1
1
1
1
1
1
1
1
1
1
1
1
1
1
1
1
1
1
1
1
1
1
1
1
1
1
1
1
1
1
1
1
1
1
1
1
1
1
1
1
1
1
1
1.00128
2.20382
2.61189
2.61492
2.62198
2.62898
2.63573
2.64029
2.64321
2.64498
2.64628
2.64759
2.64916
2.6511
2.65344
2.65611
2.65883
2.66168
2.66427
2.66642
2.66769
2.66813
2.66761
2.66651
2.66501
2.6631
2.66089
2.65841
2.65579
2.65302
2.64986
2.64597
2.64087
2.63411
2.62534
2.61431
2.60041
2.58287
2.55935
2.52769
2.48088
2.41194
2.28494
2.09873
1
1
1
1
1
1
1
1
1
1
1
1
1
1
1
1
1
1
1
1
1
1
1
1
1
1
1
1
1
1
1
1
1
1
1
1
1
1
1
1
1
1
1
1
1
1
1
1
1
1
1
1
0.999993
2.0033
2.59346
2.6164
2.6207
2.62472
2.62898
2.63385
2.638
2.64094
2.64288
2.64422
2.64528
2.64636
2.64767
2.64937
2.65131
2.6536
2.65594
2.65819
2.65995
2.66103
2.66089
2.66018
2.65877
2.65668
2.654
2.65082
2.64727
2.64344
2.63919
2.63425
2.62817
2.62051
2.61069
2.59834
2.58264
2.56282
2.53659
2.5012
2.45183
2.37752
2.26025
2.11036
1
1
1
1
1
1
1
1
1
1
1
1
1
1
1
1
1
1
1
1
1
1
1
1
1
1
1
1
1
1
1
1
1
1
1
1
1
1
1
1
1
1
1
1
1
1
1
1
1
1
1
1
0.999998
1.71045
2.52815
2.61409
2.61682
2.61933
2.62308
2.62738
2.63162
2.63527
2.63807
2.64004
2.64132
2.64219
2.64296
2.64386
2.64489
2.64625
2.64782
2.64959
2.65127
2.6527
2.65319
2.65285
2.65175
2.6498
2.64697
2.64339
2.63917
2.6344
2.62901
2.62288
2.61563
2.60689
2.596
2.58245
2.56532
2.54362
2.51549
2.47777
2.42694
2.35351
2.25195
2.12748
1
1
1
1
1
1
1
1
1
1
1
1
1
1
1
1
1
1
1
1
1
1
1
1
1
1
1
1
1
1
1
1
1
1
1
1
1
1
1
1
1
1
1
1
1
1
1
1
1
1
1
1
1
1.32276
2.4038
2.60887
2.6074
2.61092
2.61635
2.62085
2.62496
2.62872
2.63199
2.6346
2.63646
2.63764
2.63841
2.63895
2.63933
2.63983
2.64045
2.64138
2.64248
2.64371
2.64455
2.6445
2.64381
2.64214
2.63943
2.63576
2.63118
2.62573
2.61933
2.61204
2.60353
2.59362
2.58161
2.56694
2.54865
2.52563
2.4963
2.45786
2.40635
2.33834
2.25064
2.14396
1
1
1
1
1
1
1
1
1
1
1
1
1
1
1
1
1
1
1
1
1
1
1
1
1
1
1
1
1
1
1
1
1
1
1
1
1
1
1
1
1
1
1
1
1
1
1
1
1
1
1
1
1
1.02856
2.27294
2.60971
2.60486
2.60581
2.60994
2.6141
2.61793
2.62152
2.62496
2.62795
2.63038
2.63214
2.63332
2.63398
2.63416
2.63413
2.63401
2.63409
2.63435
2.63487
2.63545
2.63551
2.63498
2.63356
2.63113
2.62765
2.62303
2.61722
2.61011
2.60183
2.59215
2.58103
2.56785
2.55209
2.53282
2.50892
2.47908
2.44074
2.39078
2.32884
2.25219
2.1607
1
1
1
1
1
1
1
1
1
1
1
1
1
1
1
1
1
1
1
1
1
1
1
1
1
1
1
1
1
1
1
1
1
1
1
1
1
1
1
1
1
1
1
1
1
1
1
1
1
1
1
1
1
1.00014
2.07925
2.58441
2.59543
2.60087
2.60437
2.60761
2.61104
2.61437
2.61774
2.62072
2.62341
2.62562
2.62729
2.62836
2.62873
2.62857
2.62809
2.62752
2.62702
2.6267
2.6266
2.62634
2.62564
2.62425
2.62203
2.61881
2.61437
2.60853
2.60108
2.59208
2.58148
2.56929
2.55502
2.53824
2.51813
2.49365
2.46379
2.42598
2.37934
2.32294
2.25426
2.17665
1
1
1
1
1
1
1
1
1
1
1
1
1
1
1
1
1
1
1
1
1
1
1
1
1
1
1
1
1
1
1
1
1
1
1
1
1
1
1
1
1
1
1
1
1
1
1
1
1
1
1
1
1
0.999999
1.77978
2.53321
2.59548
2.59658
2.59925
2.60217
2.60509
2.608
2.61103
2.61369
2.61626
2.61856
2.62049
2.62195
2.6227
2.62268
2.62222
2.62141
2.62044
2.61945
2.6185
2.61752
2.61626
2.61457
2.61228
2.6092
2.60499
2.59932
2.59189
2.5826
2.57145
2.55844
2.54331
2.52567
2.50482
2.4799
2.45035
2.41336
2.37021
2.31896
2.25697
2.19152
1
1
1
1
1
1
1
1
1
1
1
1
1
1
1
1
1
1
1
1
1
1
1
1
1
1
1
1
1
1
1
1
1
1
1
1
1
1
1
1
1
1
1
1
1
1
1
1
1
1
1
1
1
1
1.36839
2.41319
2.58921
2.58793
2.59193
2.59627
2.59947
2.60223
2.6048
2.6071
2.60931
2.61136
2.61322
2.61481
2.61592
2.61627
2.616
2.61525
2.61413
2.61275
2.61114
2.60935
2.60734
2.60505
2.60235
2.5991
2.59493
2.58946
2.58225
2.57306
2.56179
2.54836
2.53267
2.51442
2.4931
2.4678
2.43882
2.40276
2.36266
2.31612
2.26036
2.20355
1
1
1
1
1
1
1
1
1
1
1
1
1
1
1
1
1
1
1
1
1
1
1
1
1
1
1
1
1
1
1
1
1
1
1
1
1
1
1
1
1
1
1
1
1
1
1
1
1
1
1
1
1
1
1.03578
2.27075
2.59143
2.58698
2.58785
2.59054
2.5934
2.59613
2.59854
2.60072
2.60264
2.60436
2.60593
2.60737
2.60859
2.60928
2.60922
2.60874
2.60773
2.60627
2.60431
2.6019
2.59912
2.59607
2.59267
2.58888
2.58446
2.57899
2.572
2.56311
2.5521
2.53874
2.52292
2.50443
2.48286
2.45764
2.4291
2.39405
2.35704
2.31371
2.26328
2.21236
1
1
1
1
1
1
1
1
1
1
1
1
1
1
1
1
1
1
1
1
1
1
1
1
1
1
1
1
1
1
1
1
1
1
1
1
1
1
1
1
1
1
1
1
1
1
1
1
1
1
1
1
1
1
1.00023
2.05543
2.55971
2.57625
2.58231
2.58578
2.58785
2.58998
2.59223
2.59432
2.59604
2.59745
2.59869
2.59986
2.60097
2.60181
2.60205
2.60178
2.60099
2.59963
2.59759
2.59487
2.59153
2.58776
2.58359
2.57907
2.57405
2.56827
2.56128
2.55268
2.54211
2.52919
2.51372
2.4954
2.47395
2.44927
2.42074
2.3876
2.35323
2.31123
2.26579
2.21916
1
1
1
1
1
1
1
1
1
1
1
1
1
1
1
1
1
1
1
1
1
1
1
1
1
1
1
1
1
1
1
1
1
1
1
1
1
1
1
1
1
1
1
1
1
1
1
1
1
1
1
1
1
1
0.999999
1.69039
2.48935
2.57733
2.57894
2.58034
2.58206
2.58413
2.58621
2.58814
2.58971
2.59088
2.59181
2.59263
2.59345
2.59417
2.59454
2.59439
2.59379
2.5926
2.59067
2.5879
2.58429
2.58003
2.57522
2.56996
2.56415
2.55773
2.55042
2.54189
2.53172
2.5194
2.5046
2.4869
2.46609
2.44204
2.41385
2.38325
2.35016
2.30978
2.26921
2.22554
1
1
1
1
1
1
1
1
1
1
1
1
1
1
1
1
1
1
1
1
1
1
1
1
1
1
1
1
1
1
1
1
1
1
1
1
1
1
1
1
1
1
1
1
1
1
1
1
1
1
1
1
1
1
1
1.21441
2.3542
2.5754
2.57019
2.57122
2.57414
2.57722
2.57957
2.58156
2.58313
2.58422
2.58496
2.58552
2.58606
2.58655
2.58684
2.58674
2.58625
2.5852
2.5834
2.58074
2.57712
2.57267
2.56745
2.56158
2.55502
2.54782
2.53991
2.53115
2.52113
2.50933
2.4953
2.47847
2.45875
2.43537
2.40851
2.38012
2.34725
2.30974
2.27321
2.23177
1
1
1
1
1
1
1
1
1
1
1
1
1
1
1
1
1
1
1
1
1
1
1
1
1
1
1
1
1
1
1
1
1
1
1
1
1
1
1
1
1
1
1
1
1
1
1
1
1
1
1
1
1
1
1
1.01094
2.2142
2.55705
2.55603
2.56041
2.56516
2.56942
2.57245
2.57485
2.57663
2.57775
2.57836
2.57868
2.57889
2.57903
2.57907
2.57891
2.5784
2.57739
2.57569
2.57317
2.56969
2.56529
2.55995
2.55373
2.54662
2.53877
2.53017
2.52093
2.51074
2.49918
2.48577
2.46983
2.45134
2.42901
2.4042
2.37695
2.34491
2.31124
2.27696
2.23727
1
1
1
1
1
1
1
1
1
1
1
1
1
1
1
1
1
1
1
1
1
1
1
1
1
1
1
1
1
1
1
1
1
1
1
1
1
1
1
1
1
1
1
1
1
1
1
1
1
1
1
1
1
1
1
1.00001
1.92568
2.52656
2.54911
2.55388
2.55834
2.56197
2.56504
2.5678
2.56989
2.57119
2.57182
2.57197
2.5719
2.57173
2.57147
2.57108
2.57042
2.56937
2.5677
2.56529
2.56199
2.55775
2.55249
2.54617
2.53878
2.53048
2.52136
2.51158
2.50098
2.48933
2.47623
2.46094
2.44362
2.42263
2.39951
2.37358
2.34394
2.31343
2.27966
2.24226
1
1
1
1
1
1
1
1
1
1
1
1
1
1
1
1
1
1
1
1
1
1
1
1
1
1
1
1
1
1
1
1
1
1
1
1
1
1
1
1
1
1
1
1
1
1
1
1
1
1
1
1
1
1
1
0.999998
1.46573
2.42352
2.55162
2.5496
2.55124
2.55451
2.55762
2.56053
2.56289
2.56445
2.56522
2.56524
2.56499
2.56452
2.56392
2.56323
2.56235
2.56116
2.55946
2.55711
2.55395
2.54988
2.54477
2.53855
2.53119
2.52277
2.51341
2.50324
2.4922
2.4802
2.46708
2.45207
2.43558
2.41575
2.3945
2.37062
2.34289
2.31391
2.28151
2.24823
1
1
1
1
1
1
1
1
1
1
1
1
1
1
1
1
1
1
1
1
1
1
1
1
1
1
1
1
1
1
1
1
1
1
1
1
1
1
1
1
1
1
1
1
1
1
1
1
1
1
1
1
1
1
1
0.999999
1.05635
2.26736
2.55529
2.54695
2.5459
2.54769
2.55
2.55268
2.55522
2.55714
2.5583
2.5585
2.55819
2.55753
2.55662
2.55559
2.55441
2.55302
2.55122
2.54886
2.54577
2.54181
2.53683
2.53077
2.52361
2.51536
2.50605
2.49572
2.48438
2.47199
2.4586
2.44357
2.42741
2.4087
2.38948
2.36641
2.34042
2.31397
2.28412
2.25386
1
1
1
1
1
1
1
1
1
1
1
1
1
1
1
1
1
1
1
1
1
1
1
1
1
1
1
1
1
1
1
1
1
1
1
1
1
1
1
1
1
1
1
1
1
1
1
1
1
1
1
1
1
1
1
1
1.0006
2.01939
2.51755
2.53436
2.5395
2.54208
2.54362
2.54525
2.54729
2.54926
2.55078
2.55142
2.55119
2.55051
2.54943
2.54813
2.54665
2.545
2.54302
2.54059
2.53749
2.53358
2.52868
2.52277
2.51586
2.50792
2.49889
2.48868
2.47734
2.46468
2.45096
2.43593
2.41974
2.40206
2.38358
2.36107
2.33824
2.31367
2.28605
2.25768
1
1
1
1
1
1
1
1
1
1
1
1
1
1
1
1
1
1
1
1
1
1
1
1
1
1
1
1
1
1
1
1
1
1
1
1
1
1
1
1
1
1
1
1
1
1
1
1
1
1
1
1
1
1
1
1
0.999997
1.5602
2.42217
2.53705
2.53517
2.53585
2.53738
2.53845
2.53978
2.54133
2.54287
2.54389
2.54389
2.54339
2.54234
2.54089
2.53915
2.53721
2.535
2.53242
2.52927
2.52535
2.52049
2.5147
2.508
2.50036
2.49168
2.48176
2.47071
2.45795
2.44417
2.42919
2.41284
2.39584
2.37742
2.35635
2.3357
2.312
2.28666
2.26007
1
1
1
1
1
1
1
1
1
1
1
1
1
1
1
1
1
1
1
1
1
1
1
1
1
1
1
1
1
1
1
1
1
1
1
1
1
1
1
1
1
1
1
1
1
1
1
1
1
1
1
1
1
1
1
1
0.999999
1.08346
2.26928
2.53531
2.52778
2.52861
2.53022
2.53153
2.53237
2.53343
2.53466
2.53575
2.53616
2.53587
2.53501
2.53363
2.5318
2.52966
2.52721
2.52443
2.52115
2.51719
2.51235
2.50665
2.50011
2.49267
2.48426
2.47468
2.46408
2.45147
2.43805
2.42309
2.40684
2.39039
2.37206
2.35229
2.33206
2.30941
2.28649
2.26155
1
1
1
1
1
1
1
1
1
1
1
1
1
1
1
1
1
1
1
1
1
1
1
1
1
1
1
1
1
1
1
1
1
1
1
1
1
1
1
1
1
1
1
1
1
1
1
1
1
1
1
1
1
1
1
1
1
1.00145
2.03567
2.49698
2.51096
2.51899
2.52414
2.52527
2.52564
2.52612
2.52673
2.52743
2.52795
2.52784
2.52725
2.52608
2.52435
2.52214
2.51952
2.51654
2.51312
2.50909
2.50427
2.49867
2.49227
2.48497
2.47675
2.46743
2.45722
2.44501
2.43213
2.41732
2.40176
2.38577
2.36733
2.34827
2.32853
2.30768
2.28607
2.26205
1
1
1
1
1
1
1
1
1
1
1
1
1
1
1
1
1
1
1
1
1
1
1
1
1
1
1
1
1
1
1
1
1
1
1
1
1
1
1
1
1
1
1
1
1
1
1
1
1
1
1
1
1
1
1
1
1
0.999993
1.56023
2.40161
2.51434
2.5149
2.51762
2.51916
2.51972
2.51963
2.51951
2.51956
2.51971
2.51961
2.51916
2.51821
2.51668
2.51458
2.51192
2.50882
2.50525
2.50112
2.49631
2.49081
2.48452
2.47733
2.46921
2.46003
2.45008
2.43844
2.42609
2.4118
2.39726
2.38124
2.36306
2.34504
2.32602
2.30601
2.28452
2.26162
1
1
1
1
1
1
1
1
1
1
1
1
1
1
1
1
1
1
1
1
1
1
1
1
1
1
1
1
1
1
1
1
1
1
1
1
1
1
1
1
1
1
1
1
1
1
1
1
1
1
1
1
1
1
1
1
1
0.999998
1.08268
2.24834
2.51332
2.50777
2.5085
2.51105
2.51245
2.5125
2.51223
2.51186
2.51156
2.51124
2.51074
2.50989
2.50855
2.50666
2.50413
2.50104
2.49739
2.49319
2.48836
2.48296
2.47675
2.46974
2.46176
2.45266
2.44287
2.43179
2.41988
2.40646
2.39261
2.37661
2.35963
2.34256
2.32383
2.30401
2.28305
2.26188
1
1
1
1
1
1
1
1
1
1
1
1
1
1
1
1
1
1
1
1
1
1
1
1
1
1
1
1
1
1
1
1
1
1
1
1
1
1
1
1
1
1
1
1
1
1
1
1
1
1
1
1
1
1
1
1
1
1
1.00138
1.98217
2.47376
2.48995
2.49863
2.50343
2.50512
2.50569
2.50549
2.50497
2.50429
2.50354
2.50273
2.50169
2.50034
2.49856
2.49618
2.49323
2.48961
2.4854
2.48055
2.47517
2.46907
2.4622
2.45433
2.44538
2.43577
2.42515
2.4136
2.40102
2.38755
2.37219
2.35654
2.33979
2.32134
2.30229
2.28281
2.26274
1
1
1
1
1
1
1
1
1
1
1
1
1
1
1
1
1
1
1
1
1
1
1
1
1
1
1
1
1
1
1
1
1
1
1
1
1
1
1
1
1
1
1
1
1
1
1
1
1
1
1
1
1
1
1
1
1
1
0.999995
1.45528
2.37012
2.49178
2.49139
2.49386
2.49589
2.49756
2.49837
2.49817
2.49744
2.49637
2.49513
2.49372
2.49212
2.49027
2.48797
2.48515
2.48167
2.47754
2.47274
2.46737
2.46134
2.45465
2.44699
2.43833
2.429
2.41874
2.40748
2.39546
2.38241
2.36805
2.35308
2.3366
2.31913
2.30134
2.2829
2.26327
1
1
1
1
1
1
1
1
1
1
1
1
1
1
1
1
1
1
1
1
1
1
1
1
1
1
1
1
1
1
1
1
1
1
1
1
1
1
1
1
1
1
1
1
1
1
1
1
1
1
1
1
1
1
1
1
1
1
0.999999
1.05063
2.21298
2.48552
2.48254
2.48419
2.48609
2.48853
2.49038
2.49096
2.49046
2.48941
2.48795
2.48624
2.48432
2.48222
2.4798
2.477
2.47364
2.46965
2.46499
2.45967
2.45375
2.44711
2.43978
2.43148
2.42248
2.4125
2.40148
2.38987
2.37735
2.36374
2.34905
2.33331
2.31715
2.30036
2.28248
2.26311
1
1
1
1
1
1
1
1
1
1
1
1
1
1
1
1
1
1
1
1
1
1
1
1
1
1
1
1
1
1
1
1
1
1
1
1
1
1
1
1
1
1
1
1
1
1
1
1
1
1
1
1
1
1
1
1
1
1
1
1.00044
1.85302
2.43662
2.47435
2.47556
2.47735
2.48038
2.48295
2.4842
2.48392
2.48296
2.48137
2.47935
2.47703
2.4745
2.47177
2.46884
2.46548
2.46163
2.45714
2.45201
2.44623
2.43979
2.43268
2.42476
2.41616
2.40648
2.39578
2.38457
2.3725
2.35921
2.34495
2.33034
2.31505
2.29889
2.2814
2.26299
1
1
1
1
1
1
1
1
1
1
1
1
1
1
1
1
1
1
1
1
1
1
1
1
1
1
1
1
1
1
1
1
1
1
1
1
1
1
1
1
1
1
1
1
1
1
1
1
1
1
1
1
1
1
1
1
1
1
1
0.999998
1.24882
2.30782
2.4803
2.47028
2.47101
2.47241
2.47453
2.47603
2.47631
2.47578
2.47446
2.47247
2.47001
2.46721
2.46419
2.46098
2.45749
2.45365
2.44929
2.44436
2.4388
2.43262
2.4257
2.41805
2.40979
2.40044
2.39021
2.3794
2.36763
2.35458
2.3411
2.32735
2.31245
2.2967
2.27995
2.26302
1
1
1
1
1
1
1
1
1
1
1
1
1
1
1
1
1
1
1
1
1
1
1
1
1
1
1
1
1
1
1
1
1
1
1
1
1
1
1
1
1
1
1
1
1
1
1
1
1
1
1
1
1
1
1
1
1
1
1
1
1.01383
2.12749
2.45571
2.45526
2.45844
2.46378
2.46608
2.46747
2.46836
2.46823
2.46733
2.46559
2.46315
2.46022
2.45695
2.45342
2.44973
2.4458
2.44152
2.43675
2.43142
2.42548
2.4188
2.41144
2.40344
2.39448
2.38476
2.37437
2.36285
2.35022
2.33751
2.32412
2.30951
2.29433
2.27856
2.26291
1
1
1
1
1
1
1
1
1
1
1
1
1
1
1
1
1
1
1
1
1
1
1
1
1
1
1
1
1
1
1
1
1
1
1
1
1
1
1
1
1
1
1
1
1
1
1
1
1
1
1
1
1
1
1
1
1
1
1
1
1.00001
1.64863
2.37917
2.45339
2.45867
2.46009
2.45903
2.45943
2.46047
2.46072
2.46012
2.45864
2.4563
2.45334
2.44995
2.44623
2.44236
2.43825
2.43391
2.42918
2.42401
2.41826
2.41184
2.40475
2.39698
2.3884
2.37913
2.36912
2.358
2.34603
2.33385
2.32054
2.30639
2.29195
2.27712
2.26225
1
1
1
1
1
1
1
1
1
1
1
1
1
1
1
1
1
1
1
1
1
1
1
1
1
1
1
1
1
1
1
1
1
1
1
1
1
1
1
1
1
1
1
1
1
1
1
1
1
1
1
1
1
1
1
1
1
1
1
1
0.999998
1.11122
2.22506
2.45576
2.45277
2.45264
2.45118
2.45148
2.45243
2.45265
2.45223
2.45105
2.449
2.44625
2.44295
2.43922
2.43526
2.43102
2.4266
2.42185
2.41673
2.41113
2.40493
2.39808
2.39057
2.38235
2.37344
2.36383
2.35322
2.34193
2.33005
2.31694
2.30344
2.28968
2.27548
2.26087
1
1
1
1
1
1
1
1
1
1
1
1
1
1
1
1
1
1
1
1
1
1
1
1
1
1
1
1
1
1
1
1
1
1
1
1
1
1
1
1
1
1
1
1
1
1
1
1
1
1
1
1
1
1
1
1
1
1
1
1
0.999999
1.00254
1.89653
2.41111
2.43804
2.4426
2.44277
2.4444
2.44541
2.44531