/*--------------------------------*- C++ -*----------------------------------*\
  =========                 |
  \\      /  F ield         | OpenFOAM: The Open Source CFD Toolbox
   \\    /   O peration     | Website:  https://openfoam.org
    \\  /    A nd           | Version:  7
     \\/     M anipulation  |
\*---------------------------------------------------------------------------*/
FoamFile
{
    version     2.0;
    format      ascii;
    class       volVectorField;
    location    "2.5";
    object      U;
}
// * * * * * * * * * * * * * * * * * * * * * * * * * * * * * * * * * * * * * //

dimensions      [0 1 -1 0 0 0 0];

internalField   nonuniform List<vector> 
64512
(
(3 -1.79338e-17 0)
(3 -3.82555e-17 0)
(3 -2.78534e-16 0)
(3 -4.36689e-16 0)
(3 -4.70157e-16 0)
(3 -5.6936e-16 0)
(3 -5.33151e-17 0)
(3 -5.27973e-17 0)
(3 -6.23066e-17 0)
(3 6.31748e-16 0)
(3 4.47973e-16 0)
(3 1.01571e-15 0)
(3 1.01059e-15 0)
(3 -2.87937e-16 0)
(3 -1.42195e-15 0)
(3 -8.81867e-16 0)
(3 -9.98311e-16 0)
(3 -4.65529e-16 0)
(3 4.05231e-16 0)
(3 4.38018e-16 0)
(3 -5.38173e-16 0)
(3 -1.30913e-15 0)
(3 -1.2492e-15 0)
(3 -1.19518e-16 0)
(3 5.73924e-17 0)
(3 -2.53936e-17 0)
(3 -5.01257e-16 0)
(3 -6.10784e-16 0)
(3 -4.87754e-17 0)
(3 2.95645e-16 0)
(3 3.5375e-16 0)
(3 2.37338e-16 0)
(3 5.84553e-16 0)
(3 8.15488e-16 0)
(3 5.60016e-16 0)
(3 2.83035e-16 0)
(3 -3.45959e-17 0)
(3 -7.85568e-16 0)
(3 -6.90559e-16 0)
(3 -2.14027e-16 0)
(3 -4.2149e-16 0)
(3 -4.84708e-16 0)
(3 -9.21163e-17 0)
(3 1.31433e-15 0)
(3 1.60891e-15 0)
(3 1.20228e-15 0)
(3 3.1164e-16 0)
(3 3.62478e-16 0)
(3 9.51131e-17 0)
(1.92412 0.00446274 0)
(0.817536 0.00633896 0)
(0.741325 0.00730733 0)
(0.727907 0.0050717 0)
(0.714507 0.00496706 0)
(0.702061 0.00527795 0)
(0.689286 0.00589767 0)
(0.675463 0.00682786 0)
(0.659614 0.00790648 0)
(0.64158 0.00864628 0)
(0.62263 0.00851986 0)
(0.604741 0.00759693 0)
(0.589022 0.00658049 0)
(0.575304 0.00599677 0)
(0.56249 0.00598348 0)
(0.549223 0.00648157 0)
(0.534403 0.00730496 0)
(0.517711 0.00790527 0)
(0.500124 0.00779757 0)
(0.482884 0.00738789 0)
(0.466245 0.00725291 0)
(0.450163 0.0072852 0)
(0.434746 0.00734882 0)
(0.41973 0.00753239 0)
(0.404601 0.00773514 0)
(0.389142 0.00775978 0)
(0.373295 0.00773419 0)
(0.356941 0.00783331 0)
(0.34019 0.00798496 0)
(0.32339 0.00813424 0)
(0.306649 0.00830606 0)
(0.289797 0.00844284 0)
(0.272709 0.0084678 0)
(0.255443 0.0084085 0)
(0.238147 0.00833085 0)
(0.221023 0.00827585 0)
(0.204175 0.00831204 0)
(0.187408 0.00843372 0)
(0.170312 0.00862803 0)
(0.15246 0.00888919 0)
(0.133733 0.00917568 0)
(0.114228 0.00954754 0)
(0.0939533 0.00987575 0)
(0.0737447 0.0101956 0)
(0.053145 0.0104662 0)
(0.0321705 0.0105645 0)
(0.0107873 0.0106655 0)
(3 -1.13734e-16 0)
(3 -4.23635e-16 0)
(3 -5.96919e-16 0)
(3 -4.25791e-16 0)
(3 -6.74742e-16 0)
(3 -1.03127e-15 0)
(3 -6.64884e-16 0)
(3 -4.74765e-16 0)
(3 2.23475e-16 0)
(3 1.68456e-15 0)
(3 1.6544e-15 0)
(3 1.37117e-15 0)
(3 1.51864e-15 0)
(3 -6.20194e-16 0)
(3 -1.92623e-15 0)
(3 -1.83418e-15 0)
(3 -1.6772e-15 0)
(3 -9.1302e-16 0)
(3 5.27583e-16 0)
(3 1.50122e-16 0)
(3 -8.28104e-16 0)
(3 -1.35082e-15 0)
(3 -9.78717e-16 0)
(3 -1.80872e-16 0)
(3 2.96183e-16 0)
(3 7.85207e-17 0)
(3 -4.68408e-16 0)
(3 -8.31275e-17 0)
(3 1.17801e-15 0)
(3 1.20239e-15 0)
(3 1.27127e-15 0)
(3 9.8515e-16 0)
(3 9.58704e-16 0)
(3 8.06164e-16 0)
(3 6.47717e-16 0)
(3 8.87563e-16 0)
(3 4.9781e-16 0)
(3 -3.39503e-16 0)
(3 -4.41406e-16 0)
(3 1.49131e-16 0)
(3 -4.72776e-17 0)
(3 -1.2025e-16 0)
(3 3.861e-16 0)
(3 1.96608e-15 0)
(3 2.2758e-15 0)
(3 1.98993e-15 0)
(3 1.25963e-15 0)
(3 7.39373e-16 0)
(3 1.07682e-15 0)
(1.93149 0.0194029 0)
(0.816496 0.0229691 0)
(0.737659 0.0230261 0)
(0.724443 0.0156325 0)
(0.710019 0.0140502 0)
(0.69703 0.0143096 0)
(0.684021 0.0160448 0)
(0.670281 0.0189084 0)
(0.654878 0.0222124 0)
(0.637566 0.0244845 0)
(0.619451 0.0244304 0)
(0.602178 0.0222879 0)
(0.586556 0.0196554 0)
(0.572513 0.0178837 0)
(0.559238 0.0176006 0)
(0.545616 0.0189007 0)
(0.530678 0.0212686 0)
(0.514054 0.0230355 0)
(0.496678 0.0228293 0)
(0.479611 0.0218213 0)
(0.462968 0.0215384 0)
(0.446777 0.0216408 0)
(0.431225 0.0217615 0)
(0.416132 0.0222418 0)
(0.401013 0.0228142 0)
(0.385627 0.02287 0)
(0.369875 0.0228049 0)
(0.353589 0.0231463 0)
(0.336849 0.0236649 0)
(0.320022 0.0241585 0)
(0.303294 0.0246916 0)
(0.286558 0.0251088 0)
(0.269689 0.0252086 0)
(0.252676 0.0250923 0)
(0.235585 0.0249428 0)
(0.218587 0.0248472 0)
(0.201819 0.0249878 0)
(0.185156 0.0253517 0)
(0.168247 0.0259147 0)
(0.150687 0.0266783 0)
(0.132327 0.0275273 0)
(0.113229 0.0286463 0)
(0.0933315 0.0296567 0)
(0.0734366 0.0306849 0)
(0.0530464 0.0315678 0)
(0.0321834 0.0319432 0)
(0.0108366 0.0323512 0)
(3 6.50345e-17 0)
(3 2.19724e-16 0)
(3 4.9999e-16 0)
(3 5.30595e-16 0)
(3 3.61949e-17 0)
(3 5.42625e-17 0)
(3 -2.97199e-16 0)
(3 -3.47949e-16 0)
(3 5.82101e-16 0)
(3 1.46892e-15 0)
(3 1.29355e-15 0)
(3 4.38112e-16 0)
(3 3.61195e-16 0)
(3 -2.42471e-16 0)
(3 -7.19299e-16 0)
(3 -1.1354e-15 0)
(3 -7.46119e-16 0)
(3 -7.63062e-18 0)
(3 4.18675e-16 0)
(3 1.91438e-16 0)
(3 -4.85531e-16 0)
(3 -6.68527e-16 0)
(3 -6.24049e-16 0)
(3 -3.84851e-16 0)
(3 -4.75418e-16 0)
(3 -7.43191e-16 0)
(3 -1.0072e-15 0)
(3 -7.12475e-17 0)
(3 6.94398e-16 0)
(3 5.58863e-16 0)
(3 3.3605e-17 0)
(3 5.56408e-16 0)
(3 7.45779e-16 0)
(3 9.42344e-16 0)
(3 1.07893e-15 0)
(3 3.34179e-16 0)
(3 -6.05339e-16 0)
(3 -7.08218e-16 0)
(3 -1.30427e-16 0)
(3 3.56356e-16 0)
(3 4.61063e-16 0)
(3 5.10739e-16 0)
(3 6.45487e-16 0)
(3 1.43454e-15 0)
(3 1.76558e-15 0)
(3 1.89168e-15 0)
(3 2.24828e-15 0)
(3 1.6382e-15 0)
(3 8.79479e-16 0)
(1.9588 0.0349722 0)
(0.822008 0.0380606 0)
(0.742266 0.0381949 0)
(0.727416 0.0284348 0)
(0.709979 0.0258645 0)
(0.694858 0.0256795 0)
(0.680557 0.0277303 0)
(0.666394 0.0317023 0)
(0.651377 0.0365422 0)
(0.634962 0.0398949 0)
(0.618007 0.0398123 0)
(0.601813 0.0368356 0)
(0.586703 0.0331674 0)
(0.572534 0.0306142 0)
(0.558751 0.0301669 0)
(0.544601 0.0321149 0)
(0.52938 0.0357156 0)
(0.512648 0.0383441 0)
(0.49534 0.0379595 0)
(0.478353 0.0364862 0)
(0.461632 0.03621 0)
(0.445247 0.0364579 0)
(0.429413 0.0366211 0)
(0.414043 0.0373254 0)
(0.398714 0.038202 0)
(0.383173 0.0382623 0)
(0.367294 0.0381304 0)
(0.350862 0.0386626 0)
(0.333922 0.0394824 0)
(0.316845 0.0402362 0)
(0.299903 0.0410281 0)
(0.283068 0.0416303 0)
(0.266227 0.0417456 0)
(0.249313 0.0415562 0)
(0.232312 0.0413458 0)
(0.21535 0.0412169 0)
(0.198576 0.0414425 0)
(0.181925 0.0420027 0)
(0.165113 0.0428742 0)
(0.147782 0.0440832 0)
(0.129774 0.0454402 0)
(0.111142 0.0472668 0)
(0.0917272 0.0489361 0)
(0.0723064 0.0506989 0)
(0.0523189 0.0522659 0)
(0.0317844 0.0530197 0)
(0.0107406 0.0538729 0)
(3 2.59275e-16 0)
(3 9.1415e-16 0)
(3 9.7289e-16 0)
(3 7.87889e-16 0)
(3 2.05698e-17 0)
(3 -3.18307e-16 0)
(3 -4.10873e-16 0)
(3 -2.88778e-16 0)
(3 2.89878e-16 0)
(3 1.01353e-15 0)
(3 6.03242e-16 0)
(3 -5.4922e-16 0)
(3 -1.34575e-15 0)
(3 -1.3337e-16 0)
(3 5.19934e-17 0)
(3 3.79396e-16 0)
(3 2.84274e-16 0)
(3 9.63323e-16 0)
(3 1.16986e-15 0)
(3 1.02667e-15 0)
(3 4.58852e-16 0)
(3 4.09025e-16 0)
(3 7.80391e-18 0)
(3 -3.08008e-16 0)
(3 -3.97358e-16 0)
(3 -5.27782e-16 0)
(3 -6.27591e-16 0)
(3 -5.24625e-16 0)
(3 -9.27979e-16 0)
(3 -1.3374e-15 0)
(3 -1.86012e-15 0)
(3 -2.87269e-16 0)
(3 2.04065e-16 0)
(3 2.53876e-16 0)
(3 -1.4608e-17 0)
(3 -1.19574e-16 0)
(3 -5.2294e-17 0)
(3 -3.85465e-16 0)
(3 9.97581e-18 0)
(3 -1.83663e-16 0)
(3 -1.26648e-17 0)
(3 1.7663e-17 0)
(3 9.67639e-16 0)
(3 1.65245e-15 0)
(3 2.01939e-15 0)
(3 2.30442e-15 0)
(3 2.33482e-15 0)
(3 1.75959e-15 0)
(3 1.94947e-16 0)
(2.00478 0.0467668 0)
(0.830645 0.0489309 0)
(0.746153 0.0535504 0)
(0.730946 0.04236 0)
(0.712239 0.0388116 0)
(0.696045 0.0381657 0)
(0.680858 0.0402482 0)
(0.666377 0.0447872 0)
(0.651825 0.0504575 0)
(0.636368 0.0542334 0)
(0.620521 0.0539447 0)
(0.605169 0.0505007 0)
(0.590321 0.0463625 0)
(0.575904 0.0434326 0)
(0.561593 0.0429502 0)
(0.546965 0.0454559 0)
(0.531583 0.0500418 0)
(0.514854 0.0533083 0)
(0.497642 0.0527559 0)
(0.480656 0.0510184 0)
(0.463763 0.0509585 0)
(0.447094 0.0515073 0)
(0.430883 0.051793 0)
(0.415141 0.0527374 0)
(0.399489 0.0539228 0)
(0.383652 0.054015 0)
(0.367476 0.0538442 0)
(0.350716 0.0545865 0)
(0.33339 0.0557317 0)
(0.315872 0.0567436 0)
(0.298524 0.0577341 0)
(0.281391 0.0584212 0)
(0.264383 0.0584625 0)
(0.247385 0.0581578 0)
(0.230304 0.0578945 0)
(0.213218 0.0577582 0)
(0.196272 0.0580722 0)
(0.179441 0.0587915 0)
(0.162498 0.0598889 0)
(0.145147 0.0614308 0)
(0.127245 0.0631615 0)
(0.108886 0.0655726 0)
(0.0898334 0.0678061 0)
(0.0708431 0.0702692 0)
(0.0512891 0.0725485 0)
(0.031164 0.0737429 0)
(0.0105643 0.0751437 0)
(3 4.50594e-17 0)
(3 1.59364e-16 0)
(3 2.23689e-16 0)
(3 3.77149e-16 0)
(3 1.59648e-16 0)
(3 -1.15288e-16 0)
(3 -4.36813e-17 0)
(3 -5.25376e-16 0)
(3 -7.27383e-16 0)
(3 -5.36524e-16 0)
(3 -2.60252e-17 0)
(3 4.89561e-16 0)
(3 -5.74228e-16 0)
(3 -7.99796e-16 0)
(3 -5.64056e-16 0)
(3 -2.0096e-16 0)
(3 2.26246e-16 0)
(3 1.04161e-16 0)
(3 -2.42967e-16 0)
(3 -8.58828e-16 0)
(3 -7.2388e-16 0)
(3 5.8212e-16 0)
(3 7.90734e-16 0)
(3 4.31076e-16 0)
(3 3.01433e-16 0)
(3 -2.42423e-16 0)
(3 -4.0503e-16 0)
(3 -6.93001e-16 0)
(3 -1.23453e-15 0)
(3 -1.17025e-15 0)
(3 -1.26746e-15 0)
(3 -1.00635e-15 0)
(3 -6.93132e-16 0)
(3 -8.50393e-16 0)
(3 -5.78632e-16 0)
(3 -2.33074e-16 0)
(3 1.36964e-16 0)
(3 2.70989e-16 0)
(3 8.36988e-17 0)
(3 -1.59042e-16 0)
(3 -2.35343e-16 0)
(3 2.05211e-16 0)
(3 1.66824e-15 0)
(3 2.12731e-15 0)
(3 2.60765e-15 0)
(3 2.23164e-15 0)
(3 1.88892e-15 0)
(3 5.26091e-16 0)
(3 1.10788e-15 0)
(2.0615 0.0567678 0)
(0.837304 0.0607349 0)
(0.747626 0.0683604 0)
(0.73253 0.056675 0)
(0.713457 0.0520481 0)
(0.697194 0.0507978 0)
(0.682124 0.0526494 0)
(0.668129 0.0573535 0)
(0.654427 0.0633258 0)
(0.639877 0.0671815 0)
(0.624711 0.0669796 0)
(0.609541 0.0637387 0)
(0.5944 0.0598031 0)
(0.579365 0.0569095 0)
(0.56428 0.0564443 0)
(0.548973 0.0592816 0)
(0.53328 0.0644839 0)
(0.516494 0.0681129 0)
(0.499358 0.0674108 0)
(0.482387 0.0655721 0)
(0.465443 0.0658426 0)
(0.448716 0.0667595 0)
(0.432437 0.0671721 0)
(0.416684 0.0683168 0)
(0.401075 0.0697848 0)
(0.385257 0.069926 0)
(0.369045 0.0697425 0)
(0.352173 0.070725 0)
(0.33465 0.0722532 0)
(0.316842 0.0735705 0)
(0.299189 0.0747425 0)
(0.281806 0.0754392 0)
(0.264624 0.0753263 0)
(0.2475 0.0748668 0)
(0.230283 0.0745697 0)
(0.213006 0.0744848 0)
(0.195807 0.0749497 0)
(0.178675 0.075869 0)
(0.161422 0.0771862 0)
(0.14381 0.0790017 0)
(0.125729 0.0809835 0)
(0.107352 0.0838264 0)
(0.088408 0.0864624 0)
(0.0696414 0.0894831 0)
(0.0503923 0.0924232 0)
(0.0305841 0.0940596 0)
(0.0103968 0.0960528 0)
(3 1.08712e-16 0)
(3 -2.13656e-16 0)
(3 8.94827e-17 0)
(3 3.95553e-16 0)
(3 7.96538e-16 0)
(3 5.85952e-16 0)
(3 3.46808e-16 0)
(3 -6.28441e-17 0)
(3 -1.10116e-15 0)
(3 -1.02672e-15 0)
(3 -8.63115e-16 0)
(3 -1.3286e-15 0)
(3 -1.52685e-15 0)
(3 -1.6e-15 0)
(3 -1.33112e-15 0)
(3 -6.54233e-16 0)
(3 -2.94145e-16 0)
(3 -9.3705e-16 0)
(3 -1.69895e-15 0)
(3 -1.60605e-15 0)
(3 -1.5203e-15 0)
(3 -3.36673e-16 0)
(3 7.23055e-16 0)
(3 8.97145e-16 0)
(3 9.12816e-16 0)
(3 3.57801e-16 0)
(3 -1.54533e-16 0)
(3 -7.39628e-16 0)
(3 -1.05116e-15 0)
(3 -9.64732e-16 0)
(3 -2.76043e-16 0)
(3 -1.2809e-16 0)
(3 8.70088e-18 0)
(3 3.60973e-16 0)
(3 8.05593e-16 0)
(3 3.21355e-16 0)
(3 2.0133e-16 0)
(3 2.99283e-16 0)
(3 8.24064e-16 0)
(3 9.36268e-16 0)
(3 1.25176e-15 0)
(3 1.58755e-15 0)
(3 1.61667e-15 0)
(3 1.29149e-15 0)
(3 1.5215e-15 0)
(3 1.51826e-15 0)
(3 1.08487e-15 0)
(3 1.09928e-15 0)
(3 -7.20379e-16 0)
(2.13219 0.0673332 0)
(0.845612 0.0732031 0)
(0.749026 0.0823815 0)
(0.734584 0.0704891 0)
(0.715573 0.0649529 0)
(0.69917 0.062995 0)
(0.6838 0.0646352 0)
(0.669559 0.0693717 0)
(0.65581 0.0756945 0)
(0.641183 0.0800882 0)
(0.625719 0.080432 0)
(0.610017 0.0777274 0)
(0.59435 0.0741328 0)
(0.578977 0.0712506 0)
(0.5638 0.0705867 0)
(0.548728 0.0734059 0)
(0.533686 0.0788205 0)
(0.517652 0.0825468 0)
(0.501147 0.0817086 0)
(0.484507 0.0798906 0)
(0.467705 0.0805824 0)
(0.451021 0.0819533 0)
(0.434739 0.0825298 0)
(0.419057 0.083853 0)
(0.403594 0.0855862 0)
(0.387904 0.0858083 0)
(0.371758 0.0856609 0)
(0.354878 0.0869469 0)
(0.337272 0.0889597 0)
(0.319276 0.090669 0)
(0.301385 0.0920196 0)
(0.283772 0.0926434 0)
(0.266398 0.092287 0)
(0.249095 0.091634 0)
(0.231674 0.0913366 0)
(0.214139 0.0913911 0)
(0.196618 0.0921073 0)
(0.179107 0.093309 0)
(0.161437 0.0948796 0)
(0.143421 0.0969478 0)
(0.124981 0.099098 0)
(0.106376 0.102243 0)
(0.0873589 0.105125 0)
(0.0686365 0.108517 0)
(0.0495924 0.112017 0)
(0.0300303 0.114047 0)
(0.0102339 0.11662 0)
(3 9.77556e-17 0)
(3 4.07135e-16 0)
(3 3.32235e-16 0)
(3 2.90951e-16 0)
(3 -2.01473e-16 0)
(3 -2.61182e-16 0)
(3 -2.85367e-16 0)
(3 1.9405e-16 0)
(3 5.23893e-17 0)
(3 -1.02465e-15 0)
(3 -1.31127e-15 0)
(3 -1.84321e-15 0)
(3 -1.60448e-15 0)
(3 -9.8658e-16 0)
(3 -3.89431e-16 0)
(3 -2.62821e-17 0)
(3 2.71764e-17 0)
(3 1.82506e-16 0)
(3 1.86069e-16 0)
(3 -5.35901e-17 0)
(3 -4.52907e-16 0)
(3 1.05187e-16 0)
(3 8.9446e-16 0)
(3 1.4415e-15 0)
(3 8.39022e-16 0)
(3 4.63872e-16 0)
(3 3.14221e-16 0)
(3 6.70461e-17 0)
(3 -2.27335e-16 0)
(3 -3.75012e-16 0)
(3 -2.6846e-16 0)
(3 -2.50839e-16 0)
(3 6.25827e-16 0)
(3 7.79976e-16 0)
(3 1.25216e-15 0)
(3 9.65729e-16 0)
(3 6.36496e-16 0)
(3 1.44002e-16 0)
(3 2.9089e-16 0)
(3 1.60619e-16 0)
(3 1.18352e-15 0)
(3 1.74084e-15 0)
(3 1.614e-15 0)
(3 1.79641e-15 0)
(3 1.77483e-15 0)
(3 2.09487e-15 0)
(3 2.38115e-15 0)
(3 2.37201e-15 0)
(3 1.11211e-15 0)
(2.22224 0.0757622 0)
(0.85843 0.0852972 0)
(0.751855 0.0962801 0)
(0.736675 0.0844518 0)
(0.717303 0.0780813 0)
(0.700519 0.075418 0)
(0.684667 0.0768438 0)
(0.669909 0.0815888 0)
(0.655889 0.0880896 0)
(0.641404 0.0929307 0)
(0.626219 0.0937555 0)
(0.610864 0.091542 0)
(0.595516 0.0882599 0)
(0.580368 0.0853859 0)
(0.565309 0.084465 0)
(0.550334 0.0871262 0)
(0.535536 0.0926048 0)
(0.519759 0.0964813 0)
(0.503379 0.095736 0)
(0.486724 0.0941235 0)
(0.469946 0.0953072 0)
(0.453376 0.0971606 0)
(0.437297 0.0978637 0)
(0.421948 0.0992713 0)
(0.406867 0.101206 0)
(0.391442 0.101536 0)
(0.37538 0.101497 0)
(0.358446 0.103187 0)
(0.3407 0.105824 0)
(0.322464 0.10804 0)
(0.304305 0.109579 0)
(0.286451 0.110057 0)
(0.268884 0.109384 0)
(0.251405 0.108514 0)
(0.233795 0.108255 0)
(0.216035 0.108538 0)
(0.198239 0.109608 0)
(0.180395 0.11118 0)
(0.162338 0.113048 0)
(0.143922 0.115363 0)
(0.125092 0.117626 0)
(0.106166 0.12096 0)
(0.0869557 0.123957 0)
(0.0681188 0.127535 0)
(0.0491423 0.131465 0)
(0.0296827 0.133807 0)
(0.010149 0.136902 0)
(3 -5.68338e-17 0)
(3 -9.66129e-18 0)
(3 -1.75482e-16 0)
(3 -8.00974e-16 0)
(3 -8.10024e-16 0)
(3 -7.76782e-16 0)
(3 -5.84515e-16 0)
(3 -5.71877e-16 0)
(3 -2.68271e-16 0)
(3 -1.1164e-15 0)
(3 -1.39321e-15 0)
(3 -1.09314e-15 0)
(3 -7.59968e-16 0)
(3 -2.30986e-16 0)
(3 2.5869e-16 0)
(3 5.59123e-16 0)
(3 1.29081e-15 0)
(3 2.41542e-15 0)
(3 2.68713e-15 0)
(3 2.19115e-15 0)
(3 1.56512e-15 0)
(3 4.46748e-16 0)
(3 2.79347e-16 0)
(3 3.44272e-16 0)
(3 2.58809e-16 0)
(3 3.67832e-16 0)
(3 3.15546e-16 0)
(3 3.63024e-16 0)
(3 5.71053e-16 0)
(3 3.28977e-16 0)
(3 -6.50468e-16 0)
(3 -8.7907e-16 0)
(3 -4.06269e-17 0)
(3 7.69555e-16 0)
(3 1.23907e-15 0)
(3 1.02398e-15 0)
(3 6.9481e-17 0)
(3 -1.04197e-15 0)
(3 -2.00255e-15 0)
(3 -2.51958e-15 0)
(3 -1.22133e-15 0)
(3 -8.3764e-16 0)
(3 8.4446e-17 0)
(3 8.51711e-16 0)
(3 9.10872e-16 0)
(3 1.45809e-15 0)
(3 1.79533e-15 0)
(3 1.9706e-15 0)
(3 -1.04248e-16 0)
(2.32483 0.0822447 0)
(0.872281 0.0989783 0)
(0.752594 0.10999 0)
(0.737595 0.0984623 0)
(0.718692 0.0913951 0)
(0.702243 0.0881295 0)
(0.686462 0.0892479 0)
(0.671658 0.0939553 0)
(0.657493 0.100464 0)
(0.643084 0.105477 0)
(0.62813 0.106764 0)
(0.613049 0.105031 0)
(0.597907 0.102176 0)
(0.582869 0.0994814 0)
(0.567844 0.0984232 0)
(0.552883 0.100914 0)
(0.53824 0.106364 0)
(0.522713 0.110353 0)
(0.506566 0.109694 0)
(0.490122 0.108184 0)
(0.473625 0.109687 0)
(0.457377 0.1119 0)
(0.441556 0.112659 0)
(0.426413 0.114131 0)
(0.411454 0.116383 0)
(0.395921 0.117091 0)
(0.379531 0.117438 0)
(0.362174 0.119745 0)
(0.343976 0.123147 0)
(0.325279 0.125899 0)
(0.306756 0.127517 0)
(0.28873 0.127681 0)
(0.271191 0.126563 0)
(0.253827 0.125421 0)
(0.23631 0.125222 0)
(0.218535 0.125821 0)
(0.200571 0.127368 0)
(0.182411 0.129437 0)
(0.16393 0.131687 0)
(0.145052 0.134275 0)
(0.125755 0.136625 0)
(0.106389 0.140053 0)
(0.0868818 0.143062 0)
(0.0678071 0.146668 0)
(0.0488045 0.150903 0)
(0.0293873 0.153474 0)
(0.0100842 0.157012 0)
(3 -1.81579e-16 0)
(3 -5.4645e-16 0)
(3 -7.16998e-16 0)
(3 -1.18232e-15 0)
(3 -9.80191e-16 0)
(3 -6.80504e-16 0)
(3 -9.4902e-16 0)
(3 -5.75262e-16 0)
(3 -1.2952e-16 0)
(3 2.36526e-16 0)
(3 9.5562e-17 0)
(3 -4.94626e-16 0)
(3 -7.964e-16 0)
(3 -6.06483e-16 0)
(3 -6.90841e-17 0)
(3 3.05434e-16 0)
(3 1.45338e-15 0)
(3 1.80818e-15 0)
(3 1.98207e-15 0)
(3 1.82715e-15 0)
(3 1.59505e-15 0)
(3 8.52657e-16 0)
(3 -1.50404e-16 0)
(3 -5.32736e-17 0)
(3 3.41759e-16 0)
(3 7.43758e-16 0)
(3 8.98384e-16 0)
(3 2.20648e-17 0)
(3 -8.6793e-16 0)
(3 -1.11214e-15 0)
(3 -5.53769e-16 0)
(3 -8.83794e-16 0)
(3 1.33884e-16 0)
(3 1.32066e-15 0)
(3 1.54374e-15 0)
(3 6.16869e-16 0)
(3 -4.54927e-16 0)
(3 -1.0219e-15 0)
(3 -1.87654e-15 0)
(3 -2.4005e-15 0)
(3 -1.79333e-15 0)
(3 -1.29762e-15 0)
(3 -1.61778e-16 0)
(3 4.3788e-16 0)
(3 2.41268e-16 0)
(3 1.3036e-16 0)
(3 -5.80596e-17 0)
(3 7.31928e-16 0)
(3 -7.88922e-16 0)
(2.43912 0.0870251 0)
(0.891378 0.113619 0)
(0.753961 0.12333 0)
(0.739913 0.111588 0)
(0.722051 0.10427 0)
(0.705969 0.100564 0)
(0.690188 0.101703 0)
(0.675195 0.106304 0)
(0.660884 0.112782 0)
(0.646508 0.117837 0)
(0.631843 0.119326 0)
(0.617075 0.118026 0)
(0.602151 0.115647 0)
(0.587212 0.113242 0)
(0.572199 0.112145 0)
(0.55719 0.11446 0)
(0.54253 0.119826 0)
(0.527 0.123951 0)
(0.510719 0.123496 0)
(0.494035 0.122179 0)
(0.47728 0.124066 0)
(0.460705 0.126785 0)
(0.444383 0.127782 0)
(0.428656 0.129449 0)
(0.413142 0.132149 0)
(0.397063 0.133359 0)
(0.380239 0.134084 0)
(0.362719 0.136888 0)
(0.344664 0.14088 0)
(0.326317 0.143935 0)
(0.308311 0.145362 0)
(0.290914 0.145013 0)
(0.273967 0.143403 0)
(0.256968 0.142087 0)
(0.239542 0.14214 0)
(0.221594 0.143283 0)
(0.203246 0.145508 0)
(0.184583 0.148212 0)
(0.165585 0.150908 0)
(0.146261 0.153759 0)
(0.126584 0.156145 0)
(0.106855 0.159571 0)
(0.0870979 0.162503 0)
(0.0677586 0.165989 0)
(0.0486566 0.170402 0)
(0.0292038 0.173113 0)
(0.0100621 0.177004 0)
(3 -1.64779e-16 0)
(3 -3.71937e-17 0)
(3 -5.34326e-16 0)
(3 -8.15528e-16 0)
(3 -8.5417e-16 0)
(3 -7.66542e-16 0)
(3 -2.74251e-16 0)
(3 3.53663e-16 0)
(3 4.97762e-17 0)
(3 4.67365e-16 0)
(3 8.77999e-16 0)
(3 9.74901e-16 0)
(3 1.43435e-16 0)
(3 -6.09835e-16 0)
(3 -9.44893e-17 0)
(3 2.12785e-16 0)
(3 6.64245e-16 0)
(3 1.04872e-15 0)
(3 6.10892e-16 0)
(3 8.10666e-16 0)
(3 1.42595e-15 0)
(3 1.48776e-15 0)
(3 1.12768e-15 0)
(3 5.43515e-16 0)
(3 5.79874e-16 0)
(3 8.67705e-16 0)
(3 1.35294e-15 0)
(3 8.13294e-16 0)
(3 -4.6716e-16 0)
(3 -8.88915e-16 0)
(3 4.71634e-16 0)
(3 7.15592e-16 0)
(3 8.24312e-16 0)
(3 2.16387e-15 0)
(3 1.82162e-15 0)
(3 5.67057e-16 0)
(3 -4.78893e-17 0)
(3 -4.33628e-16 0)
(3 -5.43005e-16 0)
(3 -1.3524e-15 0)
(3 -2.12438e-15 0)
(3 -1.78081e-15 0)
(3 -1.8188e-15 0)
(3 -1.54026e-15 0)
(3 -7.68562e-16 0)
(3 -4.62641e-16 0)
(3 -6.77626e-16 0)
(3 -2.34728e-16 0)
(3 -7.79487e-17 0)
(2.56281 0.0885216 0)
(0.916565 0.12898 0)
(0.756808 0.135161 0)
(0.743589 0.123772 0)
(0.726756 0.116563 0)
(0.710589 0.113019 0)
(0.694478 0.114475 0)
(0.679046 0.11923 0)
(0.664359 0.125423 0)
(0.649967 0.130242 0)
(0.635498 0.131847 0)
(0.62083 0.131016 0)
(0.605803 0.129232 0)
(0.590572 0.127296 0)
(0.57517 0.126344 0)
(0.559733 0.128564 0)
(0.544709 0.133867 0)
(0.528947 0.138178 0)
(0.512426 0.137978 0)
(0.495544 0.136812 0)
(0.478704 0.138983 0)
(0.462114 0.142152 0)
(0.445692 0.143325 0)
(0.429851 0.14505 0)
(0.414322 0.148092 0)
(0.398248 0.149778 0)
(0.381468 0.1508 0)
(0.364152 0.153913 0)
(0.346492 0.158244 0)
(0.328645 0.161358 0)
(0.311217 0.162456 0)
(0.294406 0.161682 0)
(0.277884 0.159894 0)
(0.261043 0.158781 0)
(0.243569 0.159383 0)
(0.225414 0.161248 0)
(0.206756 0.16421 0)
(0.187738 0.167534 0)
(0.168402 0.170621 0)
(0.148792 0.173672 0)
(0.128838 0.176055 0)
(0.108755 0.179444 0)
(0.0886512 0.182298 0)
(0.0688439 0.185603 0)
(0.0493509 0.190133 0)
(0.0295365 0.192944 0)
(0.0102212 0.197127 0)
(3 6.53887e-17 0)
(3 7.39649e-17 0)
(3 -2.40202e-16 0)
(3 -9.4677e-16 0)
(3 -7.71762e-16 0)
(3 -7.23372e-16 0)
(3 -4.27341e-16 0)
(3 -3.5897e-16 0)
(3 -8.0275e-16 0)
(3 -7.576e-16 0)
(3 -8.56632e-16 0)
(3 -2.79118e-16 0)
(3 2.44053e-16 0)
(3 2.44152e-16 0)
(3 -2.08834e-16 0)
(3 -4.2984e-16 0)
(3 -5.76673e-16 0)
(3 -5.30885e-16 0)
(3 2.57035e-17 0)
(3 1.75351e-16 0)
(3 1.51672e-15 0)
(3 1.7816e-15 0)
(3 9.9606e-16 0)
(3 6.49521e-16 0)
(3 3.48953e-16 0)
(3 4.93061e-17 0)
(3 -3.48804e-16 0)
(3 -3.41104e-16 0)
(3 -3.6235e-16 0)
(3 -4.25146e-16 0)
(3 1.33046e-16 0)
(3 4.21774e-16 0)
(3 -1.42044e-17 0)
(3 -2.54129e-16 0)
(3 1.58843e-17 0)
(3 -1.44689e-17 0)
(3 5.1687e-16 0)
(3 5.2732e-16 0)
(3 4.63984e-16 0)
(3 -7.2721e-17 0)
(3 -9.1518e-16 0)
(3 -9.18715e-16 0)
(3 -1.80966e-15 0)
(3 -2.00203e-15 0)
(3 -1.37129e-15 0)
(3 -8.70048e-16 0)
(3 -1.40668e-15 0)
(3 6.69804e-17 0)
(3 -1.40367e-15 0)
(2.6866 0.0864933 0)
(0.947324 0.144905 0)
(0.761089 0.145724 0)
(0.748592 0.135106 0)
(0.731768 0.129434 0)
(0.714932 0.126463 0)
(0.69813 0.128127 0)
(0.682403 0.132849 0)
(0.667725 0.138588 0)
(0.65364 0.142907 0)
(0.639552 0.144531 0)
(0.625043 0.144236 0)
(0.609995 0.143098 0)
(0.594673 0.141638 0)
(0.579201 0.140829 0)
(0.563707 0.142891 0)
(0.548658 0.14804 0)
(0.532922 0.15249 0)
(0.516307 0.152579 0)
(0.499281 0.151549 0)
(0.482341 0.15393 0)
(0.465714 0.157551 0)
(0.449131 0.158962 0)
(0.433073 0.160741 0)
(0.417429 0.164132 0)
(0.401295 0.166374 0)
(0.384514 0.16769 0)
(0.367397 0.170944 0)
(0.350198 0.175343 0)
(0.333011 0.178237 0)
(0.316368 0.178846 0)
(0.300285 0.177714 0)
(0.284218 0.17598 0)
(0.267536 0.175305 0)
(0.250021 0.17661 0)
(0.231658 0.179276 0)
(0.212655 0.18301 0)
(0.193184 0.186994 0)
(0.173326 0.190545 0)
(0.153169 0.193894 0)
(0.132632 0.19639 0)
(0.111877 0.199826 0)
(0.0911272 0.202671 0)
(0.0705854 0.205775 0)
(0.0504568 0.210381 0)
(0.0300915 0.213258 0)
(0.0104309 0.217682 0)
(3 2.11318e-16 0)
(3 -1.07512e-16 0)
(3 1.54115e-16 0)
(3 1.81993e-16 0)
(3 -6.2653e-16 0)
(3 -8.75293e-16 0)
(3 -1.19685e-15 0)
(3 -9.82329e-16 0)
(3 -7.01497e-16 0)
(3 -1.01294e-15 0)
(3 -1.36336e-15 0)
(3 -9.92508e-16 0)
(3 6.24996e-16 0)
(3 1.12632e-15 0)
(3 1.57533e-16 0)
(3 -3.36824e-16 0)
(3 -5.74538e-16 0)
(3 -3.85974e-16 0)
(3 6.312e-16 0)
(3 5.86203e-16 0)
(3 4.2721e-16 0)
(3 6.03766e-16 0)
(3 6.83036e-16 0)
(3 5.66896e-16 0)
(3 3.05628e-16 0)
(3 2.96673e-16 0)
(3 1.46086e-16 0)
(3 1.97224e-16 0)
(3 -3.2312e-17 0)
(3 -1.48437e-16 0)
(3 -5.31728e-16 0)
(3 -2.54917e-16 0)
(3 1.2383e-16 0)
(3 -7.64868e-16 0)
(3 -1.04004e-15 0)
(3 -6.38116e-16 0)
(3 2.69989e-16 0)
(3 1.14525e-15 0)
(3 1.53597e-15 0)
(3 1.12946e-15 0)
(3 7.17962e-17 0)
(3 -1.73591e-16 0)
(3 -9.31596e-16 0)
(3 -1.30703e-15 0)
(3 -8.82809e-16 0)
(3 -3.85695e-16 0)
(3 -9.43725e-16 0)
(3 6.65416e-16 0)
(3 4.61647e-16 0)
(2.80516 0.0799648 0)
(0.986267 0.158593 0)
(0.767604 0.154519 0)
(0.75581 0.146276 0)
(0.739766 0.142506 0)
(0.722972 0.14031 0)
(0.705774 0.141906 0)
(0.689677 0.146236 0)
(0.674733 0.151327 0)
(0.66043 0.155246 0)
(0.646131 0.157146 0)
(0.631476 0.15749 0)
(0.616451 0.156939 0)
(0.601288 0.155848 0)
(0.585995 0.155162 0)
(0.570569 0.157115 0)
(0.555469 0.162202 0)
(0.53966 0.166922 0)
(0.522861 0.167428 0)
(0.505684 0.166524 0)
(0.488683 0.169002 0)
(0.47212 0.173033 0)
(0.455478 0.17474 0)
(0.439252 0.176555 0)
(0.423523 0.180238 0)
(0.407396 0.183015 0)
(0.3907 0.184514 0)
(0.373854 0.187617 0)
(0.357136 0.19169 0)
(0.340534 0.194028 0)
(0.324391 0.19408 0)
(0.308469 0.192904 0)
(0.292127 0.19177 0)
(0.274858 0.192064 0)
(0.25658 0.194471 0)
(0.237325 0.198183 0)
(0.217369 0.202788 0)
(0.196964 0.207433 0)
(0.176269 0.211407 0)
(0.15545 0.215 0)
(0.13443 0.217563 0)
(0.113283 0.220961 0)
(0.0922608 0.223735 0)
(0.0713787 0.226534 0)
(0.050953 0.231119 0)
(0.0303183 0.233994 0)
(0.0105377 0.238603 0)
(3 6.73778e-17 0)
(3 -2.14909e-16 0)
(3 4.19986e-17 0)
(3 6.00323e-16 0)
(3 -4.14391e-17 0)
(3 -5.79582e-16 0)
(3 -7.61242e-16 0)
(3 -7.24891e-16 0)
(3 -3.37121e-16 0)
(3 -2.02989e-16 0)
(3 2.59242e-16 0)
(3 8.03319e-16 0)
(3 9.82629e-16 0)
(3 1.4579e-16 0)
(3 -1.14044e-17 0)
(3 -1.82938e-16 0)
(3 -1.23918e-16 0)
(3 -1.95942e-16 0)
(3 1.28023e-16 0)
(3 4.58668e-16 0)
(3 4.08491e-16 0)
(3 2.87762e-16 0)
(3 4.74708e-16 0)
(3 2.53438e-16 0)
(3 1.03506e-16 0)
(3 -2.94876e-16 0)
(3 -4.73991e-16 0)
(3 -8.71705e-16 0)
(3 -1.04757e-15 0)
(3 -9.6771e-16 0)
(3 -1.16209e-15 0)
(3 -9.82761e-16 0)
(3 -4.00556e-16 0)
(3 -2.90206e-16 0)
(3 -8.38107e-16 0)
(3 -8.0975e-16 0)
(3 -5.29874e-16 0)
(3 7.24284e-16 0)
(3 1.11937e-15 0)
(3 1.00144e-15 0)
(3 -1.98524e-16 0)
(3 -1.34038e-15 0)
(3 -1.26985e-15 0)
(3 -1.00464e-15 0)
(3 -1.09627e-15 0)
(3 -9.36784e-16 0)
(3 6.15147e-16 0)
(3 1.74388e-15 0)
(3 1.61342e-15 0)
(2.90735 0.0596012 0)
(1.02921 0.171429 0)
(0.775296 0.16077 0)
(0.765613 0.154535 0)
(0.750282 0.153966 0)
(0.733834 0.153288 0)
(0.71636 0.155211 0)
(0.699705 0.159264 0)
(0.684154 0.163931 0)
(0.669279 0.167756 0)
(0.654492 0.17003 0)
(0.639596 0.170838 0)
(0.624729 0.170558 0)
(0.609984 0.169635 0)
(0.595076 0.16912 0)
(0.579817 0.171156 0)
(0.564688 0.176363 0)
(0.548827 0.181424 0)
(0.531975 0.182302 0)
(0.514833 0.181379 0)
(0.497876 0.18378 0)
(0.481445 0.188195 0)
(0.46475 0.190369 0)
(0.448298 0.192303 0)
(0.432391 0.196244 0)
(0.416203 0.199507 0)
(0.399483 0.201111 0)
(0.382646 0.203912 0)
(0.36592 0.207581 0)
(0.349166 0.209578 0)
(0.332515 0.209651 0)
(0.315644 0.209094 0)
(0.298072 0.208991 0)
(0.279548 0.210389 0)
(0.260185 0.213807 0)
(0.240103 0.218337 0)
(0.219605 0.22352 0)
(0.19889 0.228542 0)
(0.178042 0.232715 0)
(0.157185 0.236407 0)
(0.13617 0.238989 0)
(0.114986 0.242342 0)
(0.09386 0.24509 0)
(0.0726996 0.247612 0)
(0.0519198 0.252185 0)
(0.0308781 0.255056 0)
(0.0107469 0.259839 0)
(3 1.02115e-17 0)
(3 1.80845e-18 0)
(3 3.96794e-16 0)
(3 8.87354e-16 0)
(3 9.45483e-16 0)
(3 1.2708e-15 0)
(3 1.25653e-15 0)
(3 6.68797e-16 0)
(3 3.10126e-16 0)
(3 4.20227e-16 0)
(3 5.8067e-16 0)
(3 4.00981e-16 0)
(3 -1.38693e-16 0)
(3 -3.74353e-16 0)
(3 -3.53633e-16 0)
(3 -1.86023e-16 0)
(3 -1.31972e-15 0)
(3 -1.9179e-15 0)
(3 -1.76451e-15 0)
(3 -1.07917e-15 0)
(3 -1.17243e-15 0)
(3 -1.42821e-15 0)
(3 -1.24723e-15 0)
(3 -1.29129e-15 0)
(3 -9.89187e-16 0)
(3 -1.17457e-15 0)
(3 -8.54798e-16 0)
(3 -1.19918e-15 0)
(3 -1.36296e-15 0)
(3 -1.20516e-15 0)
(3 -1.00723e-15 0)
(3 -1.3195e-15 0)
(3 -1.22354e-15 0)
(3 -1.46126e-15 0)
(3 -6.17685e-16 0)
(3 -1.68316e-16 0)
(3 1.60365e-16 0)
(3 2.66851e-16 0)
(3 1.48901e-16 0)
(3 9.93656e-16 0)
(3 1.21423e-15 0)
(3 9.0969e-16 0)
(3 6.74119e-16 0)
(3 -3.82224e-16 0)
(3 -6.06992e-16 0)
(3 -3.20456e-16 0)
(3 -9.89236e-18 0)
(3 6.18249e-16 0)
(3 1.5342e-16 0)
(2.97202 0.0207729 0)
(1.07069 0.185726 0)
(0.781887 0.162089 0)
(0.77242 0.164301 0)
(0.756886 0.166208 0)
(0.740962 0.167148 0)
(0.724162 0.169391 0)
(0.707895 0.172938 0)
(0.692535 0.176979 0)
(0.677723 0.180539 0)
(0.662952 0.182892 0)
(0.64815 0.183752 0)
(0.633572 0.183381 0)
(0.619239 0.182556 0)
(0.604689 0.182441 0)
(0.589645 0.184876 0)
(0.57459 0.190408 0)
(0.558803 0.195815 0)
(0.542066 0.196995 0)
(0.525067 0.196052 0)
(0.50815 0.198404 0)
(0.49183 0.203329 0)
(0.475103 0.206244 0)
(0.458467 0.20841 0)
(0.442426 0.212516 0)
(0.426226 0.216147 0)
(0.409429 0.217854 0)
(0.392363 0.220426 0)
(0.375225 0.223885 0)
(0.357855 0.225894 0)
(0.340334 0.226308 0)
(0.322432 0.226482 0)
(0.303818 0.227349 0)
(0.28436 0.229682 0)
(0.264257 0.233887 0)
(0.243664 0.238992 0)
(0.222884 0.244535 0)
(0.202054 0.249777 0)
(0.181167 0.254078 0)
(0.160289 0.257881 0)
(0.139207 0.260584 0)
(0.117863 0.264013 0)
(0.0964572 0.266875 0)
(0.0748337 0.269216 0)
(0.0534941 0.273816 0)
(0.031829 0.27669 0)
(0.0110629 0.281634 0)
(3 -2.65617e-16 0)
(3 4.19138e-16 0)
(3 3.316e-16 0)
(3 8.094e-16 0)
(3 1.97785e-15 0)
(3 2.28979e-15 0)
(3 1.98061e-15 0)
(3 8.69658e-16 0)
(3 3.0836e-16 0)
(3 3.08307e-16 0)
(3 -1.36947e-16 0)
(3 -1.08836e-15 0)
(3 -1.50151e-15 0)
(3 -8.3374e-16 0)
(3 -4.34068e-16 0)
(3 4.38475e-16 0)
(3 -3.61611e-16 0)
(3 -1.32625e-15 0)
(3 -1.50805e-15 0)
(3 -1.63578e-15 0)
(3 -2.87136e-15 0)
(3 -2.62722e-15 0)
(3 -2.50636e-15 0)
(3 -2.32648e-15 0)
(3 -1.98429e-15 0)
(3 -1.30638e-15 0)
(3 -7.00917e-16 0)
(3 -5.44738e-16 0)
(3 -2.66436e-16 0)
(3 1.72238e-16 0)
(3 2.01342e-16 0)
(3 -3.29246e-16 0)
(3 -5.8107e-16 0)
(3 -4.47774e-16 0)
(3 -7.17094e-16 0)
(3 -4.82217e-16 0)
(3 4.262e-16 0)
(3 8.81911e-17 0)
(3 2.25996e-16 0)
(3 4.33975e-16 0)
(3 6.60169e-16 0)
(3 1.21283e-15 0)
(3 1.88495e-15 0)
(3 1.55363e-15 0)
(3 1.36548e-15 0)
(3 1.6714e-15 0)
(3 9.70164e-16 0)
(3 4.38541e-16 0)
(3 4.05641e-17 0)
(3.00305 0.00315279 0)
(1.12917 0.19021 0)
(0.784477 0.166267 0)
(0.770357 0.177243 0)
(0.75306 0.179899 0)
(0.736998 0.181326 0)
(0.721419 0.183631 0)
(0.706675 0.186803 0)
(0.692783 0.190482 0)
(0.67921 0.194039 0)
(0.665357 0.196612 0)
(0.651192 0.197529 0)
(0.637176 0.19696 0)
(0.623494 0.196092 0)
(0.609697 0.196283 0)
(0.595437 0.199072 0)
(0.581118 0.204817 0)
(0.566034 0.210331 0)
(0.550008 0.211594 0)
(0.533667 0.210567 0)
(0.51721 0.21282 0)
(0.501409 0.218203 0)
(0.485118 0.221951 0)
(0.46873 0.224372 0)
(0.452884 0.228529 0)
(0.436888 0.232469 0)
(0.420105 0.234435 0)
(0.402795 0.237015 0)
(0.385187 0.240543 0)
(0.367162 0.242872 0)
(0.348808 0.243863 0)
(0.330009 0.244862 0)
(0.310556 0.246667 0)
(0.2904 0.249801 0)
(0.269801 0.254589 0)
(0.248921 0.260042 0)
(0.228013 0.26575 0)
(0.207115 0.271097 0)
(0.186109 0.275521 0)
(0.16501 0.279523 0)
(0.14358 0.282517 0)
(0.121785 0.28619 0)
(0.0998213 0.289327 0)
(0.0775186 0.29158 0)
(0.0554427 0.296224 0)
(0.0330109 0.299079 0)
(0.0114313 0.30414 0)
(3 -1.26115e-17 0)
(3 4.30102e-16 0)
(3 3.33695e-16 0)