/*--------------------------------*- C++ -*----------------------------------*\
  =========                 |
  \\      /  F ield         | OpenFOAM: The Open Source CFD Toolbox
   \\    /   O peration     | Website:  https://openfoam.org
    \\  /    A nd           | Version:  7
     \\/     M anipulation  |
\*---------------------------------------------------------------------------*/
FoamFile
{
    version     2.0;
    format      ascii;
    class       volScalarField;
    location    "0.5";
    object      rho;
}
// * * * * * * * * * * * * * * * * * * * * * * * * * * * * * * * * * * * * * //

dimensions      [1 -3 0 0 0 0 0];

internalField   nonuniform List<scalar> 
4032
(
1.40001
1.40001
1.40001
1.40001
1.40001
1.40001
1.40001
1.40001
1.40001
1.40001
1.40001
1.40001
1.40001
1.40001
1.40001
3.7522
5.59356
5.67921
5.7471
5.76718
5.62293
5.34231
5.09596
5.0131
1.40001
1.40001
1.40001
1.40001
1.40001
1.40001
1.40001
1.40001
1.40001
1.40001
1.40001
1.40001
1.40001
1.40001
1.40001
3.66079
5.55396
5.6709
5.74119
5.75494
5.60051
5.31443
5.07169
4.99231
1.40001
1.40001
1.40001
1.40001
1.40001
1.40001
1.40001
1.40001
1.40001
1.40001
1.40001
1.40001
1.40001
1.40001
1.40001
3.47931
5.50055
5.65646
5.72979
5.73357
5.56649
5.27541
5.03931
4.96509
1.40001
1.40001
1.40001
1.40001
1.40001
1.40001
1.40001
1.40001
1.40001
1.40001
1.40001
1.40001
1.40001
1.40001
1.40001
3.21102
5.40986
5.6372
5.71491
5.71139
5.5344
5.24098
5.00384
4.92753
1.40001
1.40001
1.40001
1.40001
1.40001
1.40001
1.40001
1.40001
1.40001
1.40001
1.40001
1.40001
1.40001
1.40001
1.40001
2.8742
5.27534
5.6304
5.70238
5.67872
5.49643
5.20393
4.95995
4.88182
1.40001
1.40001
1.40001
1.40001
1.40001
1.40001
1.40001
1.40001
1.40001
1.40001
1.40001
1.40001
1.40001
1.40001
1.40001
2.48455
5.10874
5.62261
5.66705
5.63356
5.46244
5.17112
4.91076
4.79177
1.40001
1.40001
1.40001
1.40001
1.40001
1.40001
1.40001
1.40001
1.40001
1.40001
1.40001
1.40001
1.40001
1.40001
1.40001
2.01844
4.89931
5.63344
5.63775
5.58048
5.40386
5.08946
4.7883
4.65356
1.40001
1.40001
1.40001
1.40001
1.40001
1.40001
1.40001
1.40001
1.40001
1.40001
1.40001
1.40001
1.40001
1.40001
1.40001
1.57251
4.47456
5.59587
5.57934
5.49348
5.3174
5.01899
4.67053
4.50639
1.40001
1.40001
1.40001
1.40001
1.40001
1.40001
1.40001
1.40001
1.40001
1.40001
1.40001
1.40001
1.40001
1.40001
1.40001
1.4065
3.68347
5.43567
5.5105
5.42958
5.25752
4.91516
4.3736
3.42111
1.40001
1.40001
1.40001
1.40001
1.40001
1.40001
1.40001
1.40001
1.40001
1.40001
1.40001
1.40001
1.40001
1.40001
1.40001
1.40002
2.69753
5.14114
5.45343
5.34989
5.15745
4.76629
4.19677
3.26606
1.40001
1.40001
1.40001
1.40001
1.40001
1.40001
1.40001
1.40001
1.40001
1.40001
1.40001
1.40001
1.40001
1.40001
1.40001
1.40001
1.77678
4.68642
5.38504
5.25152
5.04148
4.65289
4.1191
3.29573
1.40001
1.40001
1.40001
1.40001
1.40001
1.40001
1.40001
1.40001
1.40001
1.40001
1.40001
1.40001
1.40001
1.40001
1.40001
1.40001
1.42235
3.65151
5.22498
5.14983
4.96053
4.62783
4.11568
3.41504
1.40001
1.40001
1.40001
1.40001
1.40001
1.40001
1.40001
1.40001
1.40001
1.40001
1.40001
1.40001
1.40001
1.40001
1.40001
1.40001
1.40008
2.30044
4.93349
5.08827
4.87564
4.56505
4.11791
3.55248
1.40001
1.40001
1.40001
1.40001
1.40001
1.40001
1.40001
1.40001
1.40001
1.40001
1.40001
1.40001
1.40001
1.40001
1.40001
1.40001
1.40001
1.5113
3.98257
4.96327
4.79597
4.52119
4.14156
3.67135
1.40001
1.40001
1.40001
1.40001
1.40001
1.40001
1.40001
1.40001
1.40001
1.40001
1.40001
1.40001
1.40001
1.40001
1.40001
1.40001
1.40001
1.4014
2.42445
4.75618
4.81323
4.53427
4.18301
3.76384
1.40001
1.40001
1.40001
1.40001
1.40001
1.40001
1.40001
1.40001
1.40001
1.40001
1.40001
1.40001
1.40001
1.40001
1.40001
1.40001
1.40001
1.40001
1.52997
3.75823
4.75189
4.52591
4.21022
3.84334
1.40001
1.40001
1.40001
1.40001
1.40001
1.40001
1.40001
1.40001
1.40001
1.40001
1.40001
1.40001
1.40001
1.40001
1.40001
1.40001
1.40001
1.40001
1.40185
2.14823
4.41053
4.61057
4.29599
3.96115
1.40001
1.40001
1.40001
1.40001
1.40001
1.40001
1.40001
1.40001
1.40001
1.40001
1.40001
1.40001
1.40001
1.40001
1.40001
1.40001
1.40001
1.40001
1.40001
1.4657
3.03367
4.48988
4.36376
4.02945
1.40001
1.40001
1.40001
1.40001
1.40001
1.40001
1.40001
1.40001
1.40001
1.40001
1.40001
1.40001
1.40001
1.40001
1.40001
1.40001
1.40001
1.40001
1.40001
1.40074
1.73524
3.67372
4.37712
4.15171
1.40001
1.40001
1.40001
1.40001
1.40001
1.40001
1.40001
1.40001
1.40001
1.40001
1.40001
1.40001
1.40001
1.40001
1.40001
1.40001
1.40001
1.40001
1.40001
1.40001
1.41257
2.14524
3.93415
4.21308
1.40001
1.40001
1.40001
1.40001
1.40001
1.40001
1.40001
1.40001
1.40001
1.40001
1.40001
1.40001
1.40001
1.40001
1.40001
1.40001
1.40001
1.40001
1.40001
1.40001
1.40008
1.46107
2.52379
3.96297
1.40001
1.40001
1.40001
1.40001
1.40001
1.40001
1.40001
1.40001
1.40001
1.40001
1.40001
1.40001
1.40001
1.40001
1.40001
1.40001
1.40001
1.40001
1.40001
1.40001
1.40001
1.40076
1.55171
2.73453
1.40001
1.40001
1.40001
1.40001
1.40001
1.40001
1.40001
1.40001
1.40001
1.40001
1.40001
1.40001
1.40001
1.40001
1.40001
1.40001
1.40001
1.40001
1.40001
1.40001
1.40001
1.40001
1.40338
1.62834
1.40001
1.40001
1.40001
1.40001
1.40001
1.40001
1.40001
1.40001
1.40001
1.40001
1.40001
1.40001
1.40001
1.40001
1.40001
1.40001
1.40001
1.40001
1.40001
1.40001
1.40001
1.40001
1.40002
1.40687
1.40001
1.40001
1.40001
1.40001
1.40001
1.40001
1.40001
1.40001
1.40001
1.40001
1.40001
1.40001
1.40001
1.40001
1.40001
1.40001
1.40001
1.40001
1.40001
1.40001
1.40001
1.40001
1.40001
1.40004
1.40001
1.40001
1.40001
1.40001
1.40001
1.40001
1.40001
1.40001
1.40001
1.40001
1.40001
1.40001
1.40001
1.40001
1.40001
1.40001
1.40001
1.40001
1.40001
1.40001
1.40001
1.40001
1.40001
1.40001
1.40001
1.40001
1.40001
1.40001
1.40001
1.40001
1.40001
1.40001
1.40001
1.40001
1.40001
1.40001
1.40001
1.40001
1.40001
1.40001
1.40001
1.40001
1.40001
1.40001
1.40001
1.40001
1.40001
1.40001
1.40001
1.40001
1.40001
1.40001
1.40001
1.40001
1.40001
1.40001
1.40001
1.40001
1.40001
1.40001
1.40001
1.40001
1.40001
1.40001
1.40001
1.40001
1.40001
1.40001
1.40001
1.40001
1.40001
1.40001
1.40001
1.40001
1.40001
1.40001
1.40001
1.40001
1.40001
1.40001
1.40001
1.40001
1.40001
1.40001
1.40001
1.40001
1.40001
1.40001
1.40001
1.40001
1.40001
1.40001
1.40001
1.40001
1.40001
1.40001
1.40001
1.40001
1.40001
1.40001
1.40001
1.40001
1.40001
1.40001
1.40001
1.40001
1.40001
1.40001
1.40001
1.40001
1.40001
1.40001
1.40001
1.40001
1.40001
1.40001
1.40001
1.40001
1.40001
1.40001
1.40001
1.40001
1.40001
1.40001
1.40001
1.40001
1.40001
1.40001
1.40001
1.40001
1.40001
1.40001
1.40001
1.40001
1.40001
1.40001
1.40001
1.40001
1.40001
1.40001
1.40001
1.40001
1.40001
1.40001
1.40001
1.40001
1.40001
1.40001
1.40001
1.40001
1.40001
1.40001
1.40001
1.40001
1.40001
1.40001
1.40001
1.40001
1.40001
1.40001
1.40001
1.40001
1.40001
1.40001
1.40001
1.40001
1.40001
1.40001
1.40001
1.40001
1.40001
1.40001
1.40001
1.40001
1.40001
1.40001
1.40001
1.40001
1.40001
1.40001
1.40001
1.40001
1.40001
1.40001
1.40001
1.40001
1.40001
1.40001
1.40001
1.40001
1.40001
1.40001
1.40001
1.40001
1.40001
1.40001
1.40001
1.40001
1.40001
1.40001
1.40001
1.40001
1.40001
1.40001
1.40001
1.40001
1.40001
1.40001
1.40001
1.40001
1.40001
1.40001
1.40001
1.40001
1.40001
1.40001
1.40001
1.40001
1.40001
1.40001
1.40001
1.40001
1.40001
1.40001
1.40001
1.40001
1.40001
1.40001
1.40001
1.40001
1.40001
1.40001
1.40001
1.40001
1.40001
1.40001
1.40001
1.40001
1.40001
1.40001
1.40001
1.40001
1.40001
1.40001
1.40001
1.40001
1.40001
1.40001
1.40001
1.40001
1.40001
1.40001
1.40001
1.40001
1.40001
1.40001
1.40001
1.40001
1.40001
1.40001
1.40001
1.40001
1.40001
1.40001
1.40001
1.40001
1.40001
1.40001
1.40001
1.40001
1.40001
1.40001
1.40001
1.40001
1.40001
1.40001
1.40001
1.40001
1.40001
1.40001
1.40001
1.40001
1.40001
1.40001
1.40001
1.40001
1.40001
1.40001
1.40001
1.40001
1.40001
1.40001
1.40001
1.40001
1.40001
1.40001
1.40001
1.40001
1.40001
1.40001
1.40001
1.40001
1.40001
1.40001
1.40001
1.40001
1.40001
1.40001
1.40001
1.40001
1.40001
1.40001
1.40001
1.40001
1.40001
1.40001
1.40001
1.40001
1.40001
1.40001
1.40001
1.40001
1.40001
1.40001
1.40001
1.40001
1.40001
1.40001
1.40001
1.40001
1.40001
1.40001
1.40001
1.40001
1.40001
1.40001
1.40001
1.40001
1.40001
1.40001
1.40001
1.40001
1.40001
1.40001
1.40001
1.40001
1.40001
1.40001
1.40001
1.40001
1.40001
1.40001
1.40001
1.40001
1.40001
1.40001
1.40001
1.40001
1.40001
1.40001
1.08523
0.46012
0.234566
0.156956
0.161312
0.214381
0.302958
0.368819
0.441157
0.518523
0.603783
0.64419
0.644631
0.639083
0.642162
0.658631
0.679045
0.697879
0.705582
0.703306
0.691141
0.666316
0.641509
0.631481
0.62989
0.630207
0.638715
0.654878
0.658974
0.656674
0.643149
0.620327
0.61026
0.609619
0.611633
0.622309
0.651059
0.702502
0.736843
0.741443
0.741431
0.734052
0.730468
0.731911
0.737811
0.749705
0.766341
0.788822
0.820744
0.863739
0.91641
0.977946
1.05612
1.16861
1.29907
1.36805
1.38547
1.39642
1.40928
1.41073
1.40612
1.40023
1.39532
1.39199
1.3901
1.38897
1.38881
1.39464
1.41713
1.44188
1.44802
1.44825
1.44831
1.44812
1.44641
1.44
1.42544
1.40758
1.40052
1.40001
1.4
1.4
1.4
1.4
1.4
1.4
1.40001
1.40001
1.40001
1.40001
1.40001
1.40001
1.40001
1.40001
1.40001
1.40001
1.68858
1.02795
0.757341
0.578452
0.451633
0.447233
0.458148
0.441487
0.434027
0.454294
0.503527
0.551776
0.577553
0.602681
0.624787
0.646527
0.683516
0.712013
0.714794
0.711738
0.700366
0.685498
0.669892
0.657931
0.652685
0.650364
0.651311
0.657555
0.659418
0.65755
0.648946
0.637082
0.632377
0.632175
0.634842
0.644194
0.665081
0.702426
0.732636
0.73898
0.740641
0.740883
0.743166
0.746637
0.752792
0.762182
0.774569
0.793321
0.822588
0.863972
0.916832
0.98259
1.0708
1.19607
1.31865
1.36489
1.37535
1.38309
1.39625
1.40143
1.39852
1.3943
1.39113
1.38948
1.38835
1.38756
1.38767
1.39503
1.41808
1.44221
1.44824
1.44844
1.44845
1.44784
1.44547
1.43971
1.42603
1.40796
1.40054
1.40001
1.4
1.4
1.4
1.4
1.4
1.4
1.40001
1.40001
1.40001
1.40001
1.40001
1.40001
1.40001
1.40001
1.40001
1.40001
2.22689
1.55821
1.18523
0.954564
0.779978
0.673247
0.625487
0.567688
0.493578
0.487541
0.508265
0.543991
0.575085
0.606287
0.640794
0.664028
0.698193
0.737854
0.75685
0.759405
0.753378
0.735506
0.717632
0.701689
0.692857
0.688703
0.686984
0.684563
0.680296
0.671561
0.663974
0.662944
0.663408
0.665797
0.672295
0.685196
0.703895
0.72963
0.746289
0.750156
0.751122
0.755187
0.761451
0.771334
0.784497
0.795768
0.806141
0.821375
0.845759
0.88169
0.931792
1.00062
1.09986
1.2381
1.34975
1.3797
1.38489
1.39025
1.40161
1.40501
1.40188
1.39677
1.39312
1.39158
1.39058
1.38998
1.39075
1.39949
1.42296
1.44479
1.44939
1.44948
1.44931
1.44827
1.4455
1.4386
1.42394
1.40659
1.40038
1.40001
1.4
1.4
1.4
1.4
1.4
1.4
1.40001
1.40001
1.40001
1.40001
1.40001
1.40001
1.40001
1.40001
1.40001
1.40001
2.60539
2.02164
1.62329
1.32292
1.07714
0.927694
0.855278
0.788752
0.689176
0.626906
0.619008
0.597968
0.576335
0.582117
0.605695
0.632788
0.667907
0.708793
0.738907
0.762438
0.78115
0.778823
0.773449
0.762572
0.750322
0.739486
0.731745
0.723827
0.712403
0.701264
0.698166
0.6979
0.699963
0.706039
0.716538
0.729661
0.739494
0.753818
0.771225
0.777488
0.781605
0.78928
0.802558
0.820987
0.839487
0.855314
0.870268
0.887628
0.909755
0.939146
0.981947
1.04883
1.15496
1.29277
1.37061
1.38373
1.38796
1.39537
1.40483
1.40495
1.40106
1.39518
1.3918
1.39021
1.38911
1.38856
1.38996
1.40193
1.42842
1.44782
1.45077
1.45087
1.45068
1.44943
1.44618
1.43807
1.42141
1.40474
1.40019
1.40001
1.4
1.4
1.4
1.4
1.4
1.40001
1.40001
1.40001
1.40001
1.40001
1.40001
1.40001
1.40001
1.40001
1.40001
1.40001
2.92505
2.38927
1.97573
1.67326
1.41594
1.20705
1.07212
0.961798
0.855086
0.77751
0.743434
0.698993
0.637777
0.606317
0.613334
0.62574
0.631142
0.647388
0.683834
0.7261
0.760131
0.772468
0.781752
0.792868
0.792564
0.787497
0.77674
0.76026
0.740703
0.73178
0.730033
0.731981
0.739389
0.747558
0.756131
0.761572
0.763229
0.769969
0.78632
0.799885
0.811369
0.828966
0.855872
0.882706
0.903695
0.923006
0.942859
0.962624
0.984002
1.01242
1.05682
1.12827
1.23092
1.33126
1.37684
1.38968
1.39833
1.40803
1.41023
1.40787
1.39979
1.39083
1.38788
1.38669
1.3859
1.3859
1.39047
1.40792
1.4361
1.45115
1.45267
1.45276
1.45255
1.45111
1.44704
1.43667
1.41759
1.40278
1.40007
1.4
1.4
1.4
1.4
1.4
1.4
1.40001
1.40001
1.40001
1.40001
1.40001
1.40001
1.40001
1.40001
1.40001
1.40001
1.40001
3.15129
2.68722
2.29624
1.97091
1.68798
1.46907
1.31595
1.19082
1.0388
0.924656
0.877902
0.830168
0.767384
0.714914
0.705778
0.68617
0.656451
0.652431
0.658515
0.676031
0.703291
0.736557
0.766504
0.789727
0.793725
0.791499
0.783951
0.776532
0.77204
0.768206
0.768897
0.779437
0.788173
0.788869
0.787921
0.785281
0.783239
0.78742
0.800185
0.816697
0.835313
0.865194
0.907857
0.941741
0.964126
0.986058
1.01006
1.03303
1.05648
1.08782
1.13545
1.20103
1.27333
1.33409
1.37306
1.39838
1.41498
1.41938
1.41861
1.41106
1.39451
1.38407
1.38231
1.3815
1.38108
1.38291
1.39312
1.41667
1.44451
1.45462
1.45527
1.45537
1.45508
1.4532
1.44765
1.43379
1.41259
1.40122
1.40002
1.4
1.4
1.4
1.4
1.4
1.4
1.40001
1.40001
1.40001
1.40001
1.40001
1.40001
1.40001
1.40001
1.40001
1.40001
1.40001
3.32782
2.91178
2.54179
2.23855
1.96656
1.7103
1.51304
1.37413
1.23412
1.10979
1.03282
0.965051
0.880308
0.813729
0.791247
0.759713
0.715112
0.675615
0.6724
0.678001
0.688655
0.702586
0.727279
0.758489
0.779305
0.780481
0.776794
0.775177
0.776853
0.783858
0.795786
0.814897
0.826103
0.82493
0.821151
0.814094
0.811297
0.814315
0.823535
0.838124
0.860691
0.902079
0.95441
0.986244
1.00636
1.02728
1.05081
1.076
1.10608
1.14696
1.19913
1.2526
1.29819
1.33774
1.37913
1.41559
1.42762
1.42833
1.42505
1.40909
1.38686
1.37848
1.37761
1.37729
1.37802
1.38361
1.39915
1.42727
1.45253
1.45855
1.45896
1.45914
1.45866
1.45568
1.44706
1.42823
1.40706
1.40034
1.40001
1.4
1.4
1.4
1.4
1.4
1.40001
1.40001
1.40001
1.40001
1.40001
1.40001
1.40001
1.40001
1.40001
1.40001
1.40001
1.40001
3.45781
3.08463
2.74999
2.45613
2.18356
1.931
1.73386
1.56972
1.39798
1.2662
1.19147
1.12239
1.03426
0.942271
0.902902
0.86368
0.813045
0.756428
0.748247
0.742943
0.725186
0.717028
0.71932
0.728937
0.741484
0.74697
0.749431
0.757015
0.772172
0.790051
0.806115
0.823147
0.836257
0.839592
0.842389
0.844161
0.846727
0.852317
0.861622
0.876025
0.901111
0.94125
0.98201
1.01182
1.0392
1.0648
1.08833
1.11523
1.15293
1.20368
1.25553
1.29801
1.3353
1.37484
1.41474
1.43068
1.4323
1.43139
1.42139
1.39818
1.37776
1.37292
1.37244
1.37251
1.37573
1.38591
1.40672
1.43819
1.45963
1.46319
1.46371
1.46397
1.46317
1.4586
1.4446
1.41987
1.40268
1.40005
1.4
1.4
1.4
1.4
1.4
1.4
1.40001
1.40001
1.40001
1.40001
1.40001
1.40001
1.40001
1.40001
1.40001
1.40001
1.40001
1.40001
3.59728
3.2434
2.913
2.63152
2.38271
2.13257
1.9021
1.73204
1.58236
1.44241
1.35151
1.27362
1.17406
1.07954
1.02996
0.984625
0.919479
0.841827
0.821686
0.807107
0.777005
0.742296
0.735005
0.738174
0.737592
0.738648
0.74781
0.762095
0.78014
0.796933
0.808534
0.819365
0.831066
0.840016
0.848673
0.856297
0.864866
0.878106
0.89705
0.919703
0.947433
0.98111
1.01358
1.04374
1.07762
1.11363
1.14893
1.18858
1.23899
1.29383
1.3335
1.36124
1.39155
1.42328
1.43653
1.43863
1.4384
1.43063
1.40987
1.38319
1.36963
1.36783
1.36772
1.36901
1.37495
1.3892
1.41632
1.45105
1.46732
1.4691
1.46963
1.46976
1.46787
1.45898
1.43712
1.41018
1.40056
1.40001
1.4
1.4
1.4
1.4
1.4
1.40001
1.40001
1.40001
1.40001
1.40001
1.40001
1.40001
1.40001
1.40001
1.40001
1.40001
1.40001
1.40001
3.70731
3.39151
3.09494
2.81908
2.55369
2.31965
2.11797
1.92918
1.72374
1.57323
1.4992
1.43296
1.33714
1.22454
1.15349
1.09583
1.02919
0.951561
0.920447
0.897118
0.863006
0.816506
0.790697
0.788597
0.776394
0.76076
0.761184
0.768218
0.782664
0.793491
0.799853
0.806929
0.818978
0.837943
0.854699
0.865483
0.876243
0.89101
0.910639
0.936744
0.970231
1.00595
1.03566
1.06585
1.10812
1.16235
1.22019
1.27879
1.33545
1.37972
1.40115
1.40952
1.41834
1.42811
1.43372
1.43596
1.43561
1.4239
1.39501
1.37078
1.36366
1.36237
1.3622
1.36513
1.3749
1.39443
1.42896
1.46503
1.47622
1.47739
1.47798
1.47766
1.47286
1.45524
1.42387
1.40298
1.40005
1.4
1.4
1.4
1.4
1.4
1.4
1.40001
1.40001
1.40001
1.40001
1.40001
1.40001
1.40001
1.40001
1.40001
1.40001
1.40001
1.40001
1.40001
3.82161
3.50439
3.21848
2.97722
2.73741
2.48717
2.29216
2.12552
1.93413
1.75478
1.6259
1.54853
1.46194
1.36981
1.29526
1.22707
1.1344
1.04595
1.01944
0.994744
0.958294
0.910464
0.865961
0.848839
0.825785
0.793759
0.788244
0.790683
0.798684
0.807146
0.813088
0.821268
0.836388
0.854985
0.869925
0.877426
0.884143
0.895379
0.91383
0.940279
0.972205
1.00269
1.02971
1.0625
1.11147
1.17726
1.24407
1.3004
1.34706
1.38339
1.4042
1.41308
1.41543
1.41623
1.4168
1.41593
1.40846
1.39003
1.36822
1.35678
1.35449
1.35493
1.35838
1.36666
1.38088
1.40526
1.44468
1.47829
1.48588
1.48701
1.48757
1.48606
1.47378
1.44251
1.40935
1.40035
1.40001
1.4
1.4
1.4
1.4
1.4
1.40001
1.40001
1.40001
1.40001
1.40001
1.40001
1.40001
1.40001
1.40001
1.40001
1.40001
1.40001
1.40001
1.40001
3.99739
3.66428
3.36402
3.10655
2.87302
2.65415
2.46423
2.29278
2.12106
1.92835
1.7851
1.68989
1.58864
1.49047
1.41882
1.35129
1.2607
1.16209
1.12355
1.09213
1.05005
0.999673
0.960295
0.93984
0.912478
0.87168
0.851311
0.850993
0.854921
0.855267
0.850173
0.850965
0.85954
0.870481
0.875171
0.876346
0.879991
0.8933
0.917602
0.943398
0.965369
0.986402
1.0113
1.04733
1.0995
1.17001
1.2419
1.29863
1.34069
1.3729
1.39107
1.39823
1.40072
1.40058
1.39503
1.38083
1.36228
1.34845
1.34493
1.34592
1.34808
1.3519
1.3584
1.36928
1.38789
1.42106
1.46822
1.49529
1.49914
1.50012
1.50007
1.49252
1.46383
1.42082
1.40149
1.40001
1.4
1.4
1.4
1.4
1.4
1.40001
1.40001
1.40001
1.40001
1.40001
1.40001
1.40001
1.40001
1.40001
1.40001
1.40001
1.40001
1.40001
1.40001
1.40001
4.07185
3.87363
3.55562
3.25934
3.01827
2.81973
2.6156
2.44154
2.2988
2.13085
1.95086
1.8193
1.71248
1.62327
1.54832
1.47295
1.36956
1.28282
1.24772
1.20548
1.15518
1.08962
1.04015
1.02367
0.99985
0.96158
0.9287
0.921324
0.921898
0.918318
0.902705
0.894601
0.895
0.894361
0.893326
0.894077
0.900535
0.916808
0.940191
0.963098
0.981746
0.999457
1.0245
1.06281
1.10888
1.15904
1.21615
1.26697
1.30877
1.3347
1.34075
1.34278
1.34323
1.34039
1.33055
1.3216
1.32125
1.32628
1.33455
1.34394
1.35183
1.35906
1.36571
1.37407
1.39403
1.43893
1.49405
1.51344
1.51553
1.51633
1.51257
1.48705
1.43687
1.4042
1.40006
1.4
1.4
1.4
1.4
1.4
1.40001
1.40001
1.40001
1.40001
1.40001
1.40001
1.40001
1.40001
1.40001
1.40001
1.40001
1.40001
1.40001
1.40001
1.40001
1.40001
3.89525
3.95738
3.7957
3.48416
3.17308
2.96935
2.79046
2.60869
2.43271
2.2841
2.14119
1.99653
1.84069
1.72468
1.66856
1.60809
1.49816
1.40034
1.36162
1.31898
1.26581
1.19009
1.1394
1.12325
1.09841
1.055
1.01454
1.00591
1.00928
1.00923
0.99283
0.97393
0.960976
0.951719
0.950614
0.953946
0.964137
0.975214
0.984717
0.995829
1.01181
1.03465
1.06654
1.10052
1.12846
1.1537
1.1867
1.22187
1.2462
1.25611
1.26262
1.27043
1.27914
1.28629
1.29299
1.30206
1.31316
1.32301
1.33192
1.34026
1.34918
1.36017
1.37413
1.39236
1.42512
1.48301
1.52722
1.53483
1.5361
1.5346
1.51159
1.45607
1.40877
1.40018
1.4
1.4
1.4
1.4
1.4
1.40001
1.40001
1.40001
1.40001
1.40001
1.40001
1.40001
1.40001
1.40001
1.40001
1.40001
1.40001
1.40001
1.40001
1.40001
1.40001
1.40001
2.78404
3.80924
3.85204
3.73583
3.43012
3.14846
2.93643
2.76932
2.60775
2.43803
2.28988
2.1686
2.01818
1.8498
1.7777
1.73575
1.64833
1.53497
1.47777
1.43342
1.3735
1.28241
1.23721
1.23028
1.21129
1.16605
1.11409
1.10062
1.10273
1.10285
1.08305
1.05367
1.03193
1.02432
1.02593
1.03531
1.04373
1.04124
1.03996
1.0452
1.06653
1.10161
1.13161
1.14675
1.15833
1.17037
1.19246
1.222
1.23157
1.23575
1.2426
1.25424
1.26781
1.28091
1.29326
1.30684
1.32295
1.33866
1.34875
1.35304
1.35594
1.36181
1.374
1.40496
1.46836
1.53732
1.55814
1.56025
1.56003
1.53777
1.47641
1.41445
1.4004
1.40001
1.4
1.4
1.4
1.4
1.40001
1.40001
1.40001
1.40001
1.40001
1.40001
1.40001
1.40001
1.40001
1.40001
1.40001
1.40001
1.40001
1.40001
1.40001
1.40001
1.40001
1.40001
1.6612
2.73529
3.70588
3.74894
3.66451
3.41981
3.15392
2.93324
2.77458
2.60263
2.44435
2.33206
2.20407
2.03052
1.8903
1.84819
1.79
1.68446
1.60367
1.5572
1.49416
1.38933
1.34056
1.33689
1.32519
1.28324
1.22069
1.20543
1.21056
1.20986
1.18318
1.14084
1.11883
1.11723
1.12303
1.13714
1.13747
1.13106
1.13029
1.13642
1.1636
1.19906
1.20741
1.21164
1.22031
1.22655
1.2363
1.24318
1.24509
1.24426
1.24484
1.25196
1.26365
1.27621
1.29018
1.30666
1.3249
1.34202
1.3568
1.37086
1.38201
1.39427
1.41718
1.46873
1.54704
1.58684
1.59097
1.59047
1.56507
1.49487
1.41944
1.40061
1.40001
1.4
1.4
1.4
1.4
1.40001
1.40001
1.40001
1.40001
1.40001
1.40001
1.40001
1.40001
1.40001
1.40001
1.40001
1.40001
1.40001
1.40001
1.40001
1.40001
1.40001
1.40001
1.40001
1.40897
1.64878
2.62324
3.54675
3.65588
3.58825
3.42521
3.17582
2.97366
2.79684
2.60825
2.47007
2.36457
2.22218
2.0541
1.98233
1.93239
1.84227
1.73055
1.67298
1.62357
1.52745
1.45869
1.44962
1.4427
1.41185
1.34339
1.3155
1.32038
1.31891
1.28338
1.23182
1.22014
1.22088
1.2335
1.24318
1.23539
1.22898
1.22974
1.23801
1.26124
1.2824
1.28259
1.2829
1.28608
1.28525
1.28014
1.27579
1.27311
1.26551
1.25882
1.2626
1.27385
1.28908
1.30606
1.32276
1.33712
1.34903
1.35996
1.37316
1.39506
1.42935
1.48514
1.56548
1.61997
1.62827
1.62525
1.59176
1.50839
1.4219
1.40069
1.40001
1.4
1.4
1.4
1.4
1.40001
1.40001
1.40001
1.40001
1.40001
1.40001
1.40001
1.40001
1.40001
1.40001
1.40001
1.40001
1.40001
1.40001
1.40001
1.40001
1.40001
1.40001
1.40001
1.40001
1.40005
1.40854
1.60283
2.41681
3.36119
3.55131
3.49711
3.43217
3.25043
3.04344
2.83028
2.63645
2.50087
2.38537
2.2433
2.12316
2.06394
2.00316
1.89896
1.7902
1.74134
1.68771
1.60517
1.56651
1.55872
1.53914
1.48704
1.43658
1.43097
1.42678
1.38961
1.33773
1.33082
1.33148
1.34614
1.3528
1.34283
1.33783
1.3398
1.34879
1.35561
1.363
1.36515
1.3582
1.35223
1.34934
1.34434
1.33967
1.33393
1.32311
1.31768
1.32143
1.33188
1.34648
1.36234
1.37729
1.39069
1.40385
1.41923
1.4405
1.47411
1.52899
1.60524
1.65932
1.66859
1.65964
1.61386
1.51398
1.42088
1.40058
1.40001
1.4
1.4
1.4
1.4
1.40001
1.40001
1.40001
1.40001
1.40001
1.40001
1.40001
1.40001
1.40001
1.40001
1.40001
1.40001
1.40001
1.40001
1.40001
1.40001
1.40001
1.40001
1.40001
1.40001
1.40001
1.40001
1.40005
1.40607
1.53433
2.19203
3.01941
3.44533
3.47619
3.4388
3.31918
3.11105
2.87846
2.67547
2.52645
2.41448
2.29441
2.18296
2.13073
2.0673
1.9614
1.85859
1.82269
1.77558
1.70326
1.67777
1.66687
1.63455
1.57501
1.53814
1.53074
1.51045
1.46193
1.44751
1.44817
1.46107
1.46523
1.45176
1.44245
1.4442
1.45184
1.44919
1.44472
1.44184
1.43037
1.4188
1.41241
1.40666
1.39894
1.38583
1.37119
1.36972
1.37358
1.38116
1.39148
1.40408
1.4192
1.43769
1.46099
1.49182
1.53482
1.59526
1.66485
1.70416
1.70692
1.68681
1.62547
1.50765
1.41633
1.40036
1.40001
1.4
1.4
1.4
1.40001
1.40001
1.40001
1.40001
1.40001
1.40001
1.40001
1.40001
1.40001
1.40001
1.40001
1.40001
1.40001
1.40001
1.40001
1.40001
1.40001
1.40001
1.40001
1.40001
1.40001
1.40001
1.40001
1.40001
1.40001
1.40003
1.40303
1.47581
1.88989
2.67067
3.253
3.4103
3.39331
3.33431
3.16057
2.92412
2.71871
2.59131
2.48627
2.35704
2.26096
2.20732
2.12619
2.00332
1.94367
1.92284
1.86649
1.80299
1.79262
1.77222
1.71257
1.65112
1.63956
1.63358
1.60243
1.56855
1.56552
1.57446
1.5782
1.56026
1.54068
1.54049
1.54442
1.54015
1.52557
1.51188
1.49705
1.48612
1.48183
1.47787
1.47051
1.46034
1.45731
1.4599
1.46658
1.47615
1.48757
1.50137
1.51915
1.5434
1.57722
1.62383
1.68185
1.7314
1.74673
1.7386
1.70313
1.61974
1.48686
1.40983
1.40015
1.40001
1.4
1.4
1.4
1.40001
1.40001
1.40001
1.40001
1.40001
1.40001
1.40001
1.40001
1.40001
1.40001
1.40001
1.40001
1.40001
1.40001
1.40001
1.40001
1.40001
1.40001
1.40001
1.40001
1.40001
1.40001
1.40001
1.40001
1.40001
1.40001
1.40001
1.40001
1.40113
1.42944
1.65853
2.30561
2.95625
3.29737
3.33952
3.2844
3.13866
2.97408
2.85038
2.73019
2.59271
2.45082
2.3666
2.28699
2.15048
2.06653
2.05487
2.02613
1.95113
1.91275
1.89445
1.83457
1.76793
1.75675
1.75655
1.73969
1.70021
1.67849
1.68031
1.68282
1.66546
1.63326
1.62973
1.63092
1.62377
1.60111
1.58155
1.57005
1.56211
1.55581
1.5487
1.54092
1.53811
1.54006
1.54661
1.55757
1.57209
1.59065
1.61481
1.64584
1.68478
1.72975
1.76929
1.78502
1.78041
1.75497
1.70108
1.58861
1.4558
1.40417
1.40004
1.40001
1.4
1.4
1.40001
1.40001
1.40001
1.40001
1.40001
1.40001
1.40001
1.40001
1.40001
1.40001
1.40001
1.40001
1.40001
1.40001
1.40001
1.40001
1.40001
1.40001
1.40001
1.40001
1.40001
1.40001
1.40001
1.40001
1.40001
1.40001
1.40001
1.40001
1.40001
1.40001
1.40001
1.40026
1.4095
1.51646
1.94753
2.54629
3.07233
3.23827
3.1643
3.07595
3.05019
2.99817
2.89027
2.73506
2.5873
2.47958
2.34441
2.22633
2.19847
2.18006
2.12009
2.03572
2.00631
1.95879
1.89272
1.87784
1.87819
1.86542
1.8293
1.79197
1.78047
1.77854
1.76549
1.7313
1.71937
1.71498
1.70384
1.67835
1.65954
1.65185
1.64562
1.63958
1.6358
1.63559
1.64053
1.65085
1.66519
1.68436
1.70881
1.73825
1.77096
1.80195
1.82281
1.82747
1.81862
1.79388
1.75491
1.67058
1.53133
1.42563
1.40113
1.40001
1.40001
1.40001
1.40001
1.40001
1.40001
1.40001
1.40001
1.40001
1.40001
1.40001
1.40001
1.40001
1.40001
1.40001
1.40001
1.40001
1.40001
1.40001
1.40001
1.40001
1.40001
1.40001
1.40001
1.40001
1.40001
1.40001
1.40001
1.40001
1.40001
1.40001
1.40001
1.40001
1.40001
1.40001
1.40001
1.40001
1.40005
1.40247
1.43952
1.64065
2.10068
2.67313
2.98977
3.05697
3.06672
3.07222
3.03588
2.95967
2.84012
2.72189
2.61568
2.49441
2.41058
2.36616
2.30404
2.19127
2.13372
2.09886
2.04298
2.0155
2.01045
1.99618
1.95677
1.90834
1.88896
1.8797
1.86578
1.83976
1.82249
1.81175
1.79512
1.77041
1.75844
1.75371
1.75014
1.74887
1.75252
1.76389
1.77991
1.79981
1.82326
1.84874
1.87089
1.88422
1.88607
1.87528
1.85414
1.82993
1.79409
1.72243
1.59764
1.46572
1.40749
1.40018
1.40001
1.40001
1.40001
1.40001
1.40001
1.40001
1.40001
1.40001
1.40001
1.40001
1.40001
1.40001
1.40001
1.40001
1.40001
1.40001
1.40001
1.40001
1.40001
1.40001
1.40001
1.40001
1.40001
1.40001
1.40001
1.40001
1.40001
1.40001
1.40001
1.40001
1.40001
1.40001
1.40001
1.40001
1.40001
1.40001
1.40001
1.40001
1.40001
1.40001
1.4004
1.40847
1.47194
1.72087
2.18867
2.61722
2.8993
3.02037
3.02692
2.99303
2.91755
2.86423
2.83691
2.77798
2.68877
2.61103
2.53104
2.41063
2.32936
2.29563
2.25162
2.20724
2.1798
2.15578
2.11079
2.05251
2.02579
2.01149
1.99557
1.97537
1.95841
1.94425
1.92365
1.90258
1.89806
1.89717
1.89876
1.9067
1.92114
1.93861
1.95469
1.96575
1.96855
1.96231
1.94384
1.91998
1.89468
1.8663
1.82356
1.75139
1.63594
1.50201
1.42015
1.40121
1.40002
1.40001
1.40001
1.40001
1.40001
1.40001
1.40001
1.40001
1.40001
1.40001
1.40001
1.40001
1.40001
1.40001
1.40001
1.40001
1.40001
1.40001
1.40001
1.40001
1.40001
1.40001
1.40001
1.40001
1.40001
1.40001
1.40001
1.40001
1.40001
1.40001
1.40001
1.40001
1.40001
1.40001
1.40001
1.40001
1.40001
1.40001
1.40001
1.40001
1.40001
1.40001
1.40001
1.40004
1.40105
1.41543
1.50452
1.74073
2.1175
2.50967
2.76368
2.89904
2.88771
2.87599
2.86073
2.84245
2.80845
2.75817
2.69025
2.61896
2.579
2.54478
2.50036
2.45256
2.40591
2.36275
2.31231
2.25509
2.21808
2.19729
2.17978
2.16169
2.14385
2.12654
2.10637
2.0878
2.07759
2.07403
2.07377
2.07421
2.07161
2.0632
2.04705
2.02457
1.99779
1.96904
1.9376
1.89739
1.84109
1.75762
1.64205
1.51555
1.43043
1.40322
1.4001
1.40001
1.40001
1.40001
1.40001
1.40001
1.40001
1.40001
1.40001
1.40001
1.40001
1.40001
1.40001
1.40001
1.40001
1.40001
1.40001
1.40001
1.40001
1.40001
1.40001
1.40001
1.40001
1.40001
1.40001
1.40001
1.40001
1.40001
1.40001
1.40001
1.40001
1.40001
1.40001
1.40001
1.40001
1.40001
1.40001
1.40001
1.40001
1.40001
1.40001
1.40001
1.40001
1.40001
1.40001
1.40001
1.40001
1.4001
1.402
1.41718
1.48605
1.66522
1.95328
2.26809
2.53118
2.69151
2.76717
2.81495
2.80384
2.77071
2.71
2.66676
2.65671
2.64295
2.61141
2.57866
2.54367
2.49754
2.45056
2.41114
2.37946
2.35489
2.33354
2.31137
2.28756
2.26155
2.233
2.20328
2.17669
2.15538
2.13715
2.11886
2.09848
2.07509
2.04769
2.01264
1.96761
1.90858
1.83017
1.72961
1.61179
1.50105
1.42987
1.40429
1.40023
1.40001
1.40001
1.40001
1.40001
1.40001
1.40001
1.40001
1.40001
1.40001
1.40001
1.40001
1.40001
1.40001
1.40001
1.40001
1.40001
1.40001
1.40001
1.40001
1.40001
1.40001
1.40001
1.40001
1.40001
1.40001
1.40001
1.40001
1.40001
1.40001
1.40001
1.40001
1.40001
1.40001
1.40001
1.40001
1.40001
1.40001
1.40001
1.40001
1.40001
1.40001
1.40001
1.40001
1.40001
1.40001
1.40001
1.40001
1.40001
1.40001
1.40001
1.4001
1.40136
1.41042
1.44885
1.55303
1.74847
1.99129
2.22653
2.42411
2.55438
2.6217
2.6324
2.63216
2.63564
2.63215
2.61669
2.58895
2.55595
2.51202
2.4666
2.43289
2.40474
2.37945
2.35649
2.33322
2.30684
2.27718
2.24479
2.21148
2.1802
2.15284
2.12693
2.09838
2.06269
2.0147
1.94925
1.86505
1.7637
1.65253
1.5469
1.46527
1.41933
1.40318
1.40023
1.40001
1.40001
1.40001
1.40001
1.40001
1.40001
1.40001
1.40001
1.40001
1.40001
1.40001
1.40001
1.40001
1.40001
1.40001
1.40001
1.40001
1.40001
1.40001
1.40001
1.40001
1.40001
1.40001
1.40001
1.40001
1.40001
1.40001
1.40001
1.40001
1.40001
1.40001
1.40001
1.40001
1.40001
1.40001
1.40001
1.40001
1.40001
1.40001
1.40001
1.40001
1.40001
1.40001
1.40001
1.40001
1.40001
1.40001
1.40001
1.40001
1.40001
1.40001
1.40001
1.40001
1.40001
1.40005
1.40053
1.40398
1.41967
1.46366
1.55159
1.6845
1.84705
2.01425
2.16269
2.27422
2.35602
2.41325
2.44636
2.45373
2.44784
2.4293
2.39938
2.37641
2.35525
2.33216
2.3085
2.28296
2.25263
2.21605
2.17379
2.12819
2.0815
2.03248
1.97684
1.9093
1.82641
1.73013
1.62989
1.53925
1.47004
1.42738
1.40754
1.40127
1.40011
1.40001
1.40001
1.40001
1.40001
1.40001
1.40001
1.40001
1.40001
1.40001
1.40001
1.40001
1.40001
1.40001
1.40001
1.40001
1.40001
1.40001
1.40001
1.40001
1.40001
1.40001
1.40001
1.40001
1.40001
1.40001
1.40001
1.40001
1.40001
1.40001
1.40001
1.40001
1.40001
1.40001
1.40001
1.40001
1.40001
1.40001
1.40001
1.40001
1.40001
1.40001
1.40001
1.40001
1.40001
1.40001
1.40001
1.40001
1.40001
1.40001
1.40001
1.40001
1.40001
1.40001
1.40001
1.40001
1.40001
1.40001
1.40001
1.40001
1.40012
1.40081
1.40382
1.41316
1.43574
1.48001
1.54877
1.63124
1.71792
1.80164
1.87387
1.92981
1.97583
2.00932
2.02753
2.03605
2.03205
2.02071
2.00135
1.97408
1.9381