/*--------------------------------*- C++ -*----------------------------------*\
  =========                 |
  \\      /  F ield         | OpenFOAM: The Open Source CFD Toolbox
   \\    /   O peration     | Website:  https://openfoam.org
    \\  /    A nd           | Version:  7
     \\/     M anipulation  |
\*---------------------------------------------------------------------------*/
FoamFile
{
    version     2.0;
    format      ascii;
    class       volVectorField;
    location    "2.1";
    object      U;
}
// * * * * * * * * * * * * * * * * * * * * * * * * * * * * * * * * * * * * * //

dimensions      [0 1 -1 0 0 0 0];

internalField   nonuniform List<vector> 
4032
(
(3 -8.99569e-17 0)
(3 -8.96998e-17 0)
(3 3.2713e-16 0)
(3 3.4773e-16 0)
(3 2.33208e-16 0)
(3 8.43466e-16 0)
(3 1.07279e-15 0)
(3 9.04293e-16 0)
(3 3.84524e-16 0)
(3 3.1473e-16 0)
(3 5.60129e-16 0)
(3 4.93068e-17 0)
(1.29299 0.0159274 0)
(0.731237 0.0160693 0)
(0.671452 0.022159 0)
(0.615467 0.0247461 0)
(0.555831 0.0264298 0)
(0.495935 0.0278627 0)
(0.434427 0.0296397 0)
(0.369459 0.0320245 0)
(0.299169 0.0349141 0)
(0.221806 0.0386797 0)
(0.137471 0.0412617 0)
(0.0503641 0.045288 0)
(3 1.27312e-16 0)
(3 -3.26343e-17 0)
(3 -1.19427e-16 0)
(3 1.17263e-17 0)
(3 -1.40967e-16 0)
(3 4.69847e-16 0)
(3 1.54159e-15 0)
(3 1.5172e-15 0)
(3 9.44498e-16 0)
(3 3.82258e-16 0)
(3 3.6983e-16 0)
(3 -1.78279e-16 0)
(1.3214 0.0736619 0)
(0.724739 0.0651602 0)
(0.657269 0.0686404 0)
(0.599875 0.0744671 0)
(0.539066 0.0786951 0)
(0.478561 0.0827228 0)
(0.417194 0.0881341 0)
(0.353512 0.0958824 0)
(0.285769 0.105414 0)
(0.212278 0.11801 0)
(0.131595 0.127202 0)
(0.048595 0.139674 0)
(3 3.75467e-17 0)
(3 9.98598e-17 0)
(3 -2.8686e-16 0)
(3 -1.75669e-16 0)
(3 -4.07695e-17 0)
(3 -1.4635e-16 0)
(3 -6.58677e-18 0)
(3 1.79676e-16 0)
(3 1.62187e-18 0)
(3 -2.85679e-16 0)
(3 2.30473e-16 0)
(3 -5.22746e-16 0)
(1.40939 0.129805 0)
(0.73677 0.115566 0)
(0.660856 0.119485 0)
(0.600865 0.128265 0)
(0.537244 0.135009 0)
(0.474145 0.141021 0)
(0.410599 0.148716 0)
(0.345596 0.159954 0)
(0.27742 0.173729 0)
(0.205422 0.193352 0)
(0.126345 0.20847 0)
(0.0469129 0.228561 0)
(3 -2.15275e-16 0)
(3 -3.8749e-16 0)
(3 2.66082e-17 0)
(3 3.33651e-16 0)
(3 6.24581e-16 0)
(3 4.04045e-16 0)
(3 -6.40337e-16 0)
(3 -8.69218e-16 0)
(3 -6.52951e-16 0)
(3 9.497e-17 0)
(3 9.71135e-16 0)
(3 1.08236e-15 0)
(1.55093 0.182228 0)
(0.75488 0.16958 0)
(0.669237 0.172146 0)
(0.610197 0.182966 0)
(0.547382 0.192337 0)
(0.484655 0.200935 0)
(0.420535 0.211609 0)
(0.354217 0.227189 0)
(0.283809 0.245314 0)
(0.210509 0.271403 0)
(0.129099 0.29255 0)
(0.0470318 0.317918 0)
(3 4.44208e-17 0)
(3 1.45454e-16 0)
(3 3.70314e-16 0)
(3 3.19819e-16 0)
(3 3.30253e-16 0)
(3 1.4618e-16 0)
(3 4.61989e-16 0)
(3 9.79474e-16 0)
(3 1.23263e-15 0)
(3 1.49148e-15 0)
(3 1.3058e-15 0)
(3 1.23709e-15 0)
(1.75877 0.228613 0)
(0.782725 0.227553 0)
(0.679209 0.223889 0)
(0.622419 0.235513 0)
(0.562849 0.247447 0)
(0.502793 0.259428 0)
(0.440168 0.273949 0)
(0.375485 0.294634 0)
(0.305903 0.317461 0)
(0.232846 0.350795 0)
(0.14668 0.381949 0)
(0.0557201 0.41607 0)
(3 5.79098e-17 0)
(3 8.11968e-17 0)
(3 -3.82306e-16 0)
(3 -6.48471e-16 0)
(3 -5.05341e-16 0)
(3 -4.89301e-17 0)
(3 1.10089e-15 0)
(3 1.19353e-15 0)
(3 1.00812e-15 0)
(3 7.70639e-16 0)
(3 1.01038e-15 0)
(3 -9.38634e-16 0)
(2.03707 0.273052 0)
(0.817327 0.29789 0)
(0.681692 0.284484 0)
(0.62501 0.290111 0)
(0.569193 0.303282 0)
(0.514013 0.319101 0)
(0.455754 0.337982 0)
(0.394365 0.364614 0)
(0.323943 0.395388 0)
(0.245971 0.440626 0)
(0.157166 0.489496 0)
(0.0534016 0.532589 0)
(3 -5.55007e-17 0)
(3 -4.87255e-16 0)
(3 -1.14967e-15 0)
(3 -1.19212e-15 0)
(3 -8.8016e-16 0)
(3 2.73199e-16 0)
(3 8.24247e-16 0)
(3 4.58776e-16 0)
(3 4.67023e-16 0)
(3 7.0291e-16 0)
(3 1.69527e-15 0)
(3 -8.19428e-17 0)
(2.43681 0.297396 0)
(0.901419 0.381112 0)
(0.726079 0.342421 0)
(0.670306 0.346027 0)
(0.612144 0.358669 0)
(0.556636 0.376522 0)
(0.49922 0.400231 0)
(0.44006 0.435231 0)
(0.373449 0.476561 0)
(0.305735 0.531165 0)
(0.22167 0.595613 0)
(0.0979524 0.668956 0)
(3 -1.22201e-16 0)
(3 -4.53718e-16 0)
(3 -3.30228e-16 0)
(3 -8.41639e-18 0)
(3 -7.89874e-17 0)
(3 2.75869e-16 0)
(3 1.02747e-15 0)
(3 1.47797e-15 0)
(3 1.33717e-15 0)
(3 1.40245e-15 0)
(3 9.40529e-16 0)
(3 1.95599e-16 0)
(2.93831 0.143298 0)
(1.07386 0.429318 0)
(0.815135 0.377603 0)
(0.758633 0.386596 0)
(0.69364 0.406047 0)
(0.632647 0.42889 0)
(0.573907 0.458428 0)
(0.516988 0.499466 0)
(0.455669 0.546401 0)
(0.388099 0.623999 0)
(0.27179 0.752139 0)
(0.149583 0.927639 0)
(3 -6.3985e-17 0)
(3 -2.96092e-16 0)
(3 9.21907e-17 0)
(3 3.04191e-16 0)
(3 1.73479e-16 0)
(3 -1.06408e-16 0)
(3 6.87478e-17 0)
(3 8.39759e-16 0)
(3 1.06732e-15 0)
(3 7.15746e-16 0)
(3 -1.33728e-16 0)
(3 -7.90037e-18 0)
(3.03605 0.00882472 0)
(1.26077 0.410954 0)
(0.852955 0.430465 0)
(0.808953 0.456198 0)
(0.756478 0.469971 0)
(0.70383 0.489085 0)
(0.651087 0.519101 0)
(0.599645 0.566161 0)
(0.545178 0.626981 0)
(0.498411 0.739429 0)
(0.46657 0.913576 0)
(0.583298 1.20009 0)
(3 1.92706e-16 0)
(3 3.41084e-16 0)
(3 2.42378e-16 0)
(3 -7.48472e-17 0)
(3 -2.61886e-16 0)
(3 -8.00297e-16 0)
(3 -1.16531e-15 0)
(3 -8.44305e-16 0)
(3 -2.06271e-16 0)
(3 -6.12577e-16 0)
(3 -8.19511e-17 0)
(3 1.85603e-16 0)
(3.00109 -5.34621e-06 0)
(1.52411 0.426422 0)
(0.84831 0.47516 0)
(0.797257 0.498815 0)
(0.762073 0.519149 0)
(0.731098 0.545739 0)
(0.699093 0.579946 0)
(0.670596 0.629843 0)
(0.646195 0.698679 0)
(0.635234 0.81302 0)
(0.693724 0.952733 0)
(0.975397 1.12498 0)
(3 7.20961e-17 0)
(3 6.47771e-16 0)
(3 6.34209e-16 0)
(3 1.604e-17 0)
(3 -1.21005e-16 0)
(3 -2.51536e-16 0)
(3 -1.11552e-16 0)
(3 -1.32359e-16 0)
(3 7.69523e-18 0)
(3 1.19575e-16 0)
(3 8.90232e-16 0)
(3 9.10547e-16 0)
(3 -1.18857e-07 0)
(2.06556 0.462908 0)
(0.908097 0.547078 0)
(0.81287 0.529487 0)
(0.791186 0.553107 0)
(0.773308 0.582873 0)
(0.75468 0.619353 0)
(0.74429 0.670993 0)
(0.750436 0.744402 0)
(0.774326 0.846252 0)
(0.887861 0.957048 0)
(1.18594 1.05987 0)
(3 -1.05887e-16 0)
(3 7.99613e-17 0)
(3 4.83242e-16 0)
(3 4.74358e-16 0)
(3 4.60777e-16 0)
(3 -2.61549e-16 0)
(3 -3.52895e-16 0)
(3 -2.33288e-16 0)
(3 -1.88167e-16 0)
(3 2.88967e-16 0)
(3 2.22065e-16 0)
(3 5.64393e-16 0)
(3 -1.20362e-07 0)
(2.8372 0.266348 0)
(1.09966 0.604815 0)
(0.890305 0.548283 0)
(0.855825 0.569033 0)
(0.835547 0.604586 0)
(0.820948 0.645503 0)
(0.820121 0.697375 0)
(0.842081 0.766423 0)
(0.894407 0.852373 0)
(1.0315 0.940771 0)
(1.28058 0.997892 0)
(3 1.61167e-17 0)
(3 -7.94556e-17 0)
(3 -9.20896e-17 0)
(3 4.86471e-16 0)
(3 1.07844e-16 0)
(3 -4.77013e-16 0)
(3 -1.30157e-15 0)
(3 -1.20611e-15 0)
(3 -6.19015e-16 0)
(3 -1.23455e-16 0)
(3 2.69223e-16 0)
(3 7.14513e-16 0)
(3 -2.38252e-08 0)
(3.06473 0.0176297 0)
(1.41743 0.599524 0)
(0.959845 0.629591 0)
(0.904386 0.623733 0)
(0.88057 0.645484 0)
(0.874739 0.679639 0)
(0.88759 0.723631 0)
(0.920736 0.781095 0)
(0.991508 0.852017 0)
(1.13155 0.918177 0)
(1.33868 0.955323 0)
(3 -1.23588e-16 0)
(3 -3.85478e-16 0)
(3 8.93292e-18 0)
(3 1.77097e-16 0)
(3 7.44725e-17 0)
(3 2.49015e-16 0)
(3 5.61142e-17 0)
(3 -8.36338e-17 0)
(3 -1.27997e-16 0)
(3 1.29456e-16 0)
(3 6.67206e-16 0)
(3 1.49908e-15 0)
(3 -2.19261e-09 0)
(3.00263 2.26252e-05 0)
(1.95974 0.5854 0)
(1.01979 0.699815 0)
(0.95994 0.671801 0)
(0.941626 0.674571 0)
(0.939881 0.697993 0)
(0.956821 0.734813 0)
(0.994782 0.782901 0)
(1.06911 0.83835 0)
(1.19443 0.886815 0)
(1.35972 0.91049 0)
(3 -7.22062e-17 0)
(3 1.16987e-16 0)
(3 -1.05296e-16 0)
(3 -4.72838e-16 0)
(3 9.22438e-17 0)
(3 5.96811e-16 0)
(3 8.72707e-16 0)
(3 1.0232e-15 0)
(3 7.94177e-16 0)
(3 4.88047e-16 0)
(3 4.97752e-16 0)
(3 9.61972e-16 0)
(3 -5.82845e-11 0)
(3.00001 -2.59283e-07 0)
(2.88472 0.249492 0)
(1.23002 0.685696 0)
(1.04005 0.692176 0)
(1.03198 0.69369 0)
(1.02641 0.721409 0)
(1.03385 0.754712 0)
(1.06674 0.79689 0)
(1.13649 0.838064 0)
(1.24337 0.871021 0)
(1.37834 0.885999 0)
(3 2.4105e-16 0)
(3 3.66978e-16 0)
(3 -3.20897e-17 0)
(3 -3.878e-16 0)
(3 -6.40147e-16 0)
(3 -5.36273e-16 0)
(3 2.24476e-16 0)
(3 1.05537e-15 0)
(3 1.23246e-15 0)
(3 1.15009e-15 0)
(3 8.03424e-16 0)
(3 2.1536e-16 0)
(3 -1.04824e-13 0)
(3 -3.2105e-07 0)
(3.04905 0.0104139 0)
(1.51055 0.6492 0)
(1.06316 0.738274 0)
(1.07025 0.747643 0)
(1.06929 0.769636 0)
(1.08809 0.786954 0)
(1.12329 0.807346 0)
(1.1886 0.831529 0)
(1.27956 0.851722 0)
(1.39109 0.860395 0)
(3 3.04386e-16 0)
(3 -8.57124e-17 0)
(3 -4.79754e-16 0)
(3 -2.89787e-16 0)
(3 -3.0343e-16 0)
(3 -2.03413e-16 0)
(3 -1.32079e-16 0)
(3 4.12575e-16 0)
(3 1.0037e-15 0)
(3 9.0681e-16 0)
(3 3.57539e-16 0)
(3 5.44584e-16 0)
(3 -5.76146e-16 0)
(3 -5.92069e-08 0)
(3.00113 4.88607e-05 0)
(2.25186 0.55065 0)
(1.15714 0.780433 0)
(1.09946 0.785245 0)
(1.10869 0.788982 0)
(1.13225 0.800476 0)
(1.16981 0.817461 0)
(1.23017 0.835384 0)
(1.31126 0.849342 0)
(1.40593 0.852761 0)
(3 -3.37998e-17 0)
(3 -4.4798e-16 0)
(3 -2.4398e-16 0)
(3 -4.79176e-17 0)
(3 5.33169e-16 0)
(3 8.52315e-16 0)
(3 7.37101e-16 0)
(3 3.33025e-16 0)
(3 5.48312e-16 0)
(3 4.22717e-16 0)
(3 1.63506e-16 0)
(3 -2.62704e-16 0)
(3 -8.01143e-16 0)
(3 -2.60279e-09 0)
(3 -2.13505e-07 0)
(3.04497 0.104759 0)
(1.49492 0.775925 0)
(1.15994 0.782178 0)
(1.17067 0.788921 0)
(1.1861 0.805852 0)
(1.21975 0.819797 0)
(1.27218 0.832412 0)
(1.34179 0.841021 0)
(1.42381 0.841178 0)
(3 -3.94069e-16 0)
(3 -3.15885e-16 0)
(3 2.06926e-16 0)
(3 1.40562e-16 0)
(3 3.42713e-16 0)
(3 4.75313e-16 0)
(3 2.65773e-16 0)
(3 2.39621e-17 0)
(3 -5.44879e-17 0)
(3 6.48929e-17 0)
(3 3.20039e-17 0)
(3 -6.79271e-16 0)
(3 -7.06378e-16 0)
(3 -7.3102e-12 0)
(3 -3.90863e-07 0)
(3.01286 0.00185687 0)
(2.11378 0.676162 0)
(1.22084 0.844494 0)
(1.19888 0.837528 0)
(1.22748 0.837065 0)
(1.25978 0.842955 0)
(1.30808 0.848964 0)
(1.36896 0.851373 0)
(1.44054 0.847443 0)
(3 -4.41329e-17 0)
(3 -3.21919e-17 0)
(3 -4.49849e-16 0)
(3 -3.02674e-16 0)
(3 -1.61265e-16 0)
(3 -6.29038e-16 0)
(3 -9.60315e-16 0)
(3 -9.99118e-16 0)
(3 -1.32616e-15 0)
(3 -8.49496e-16 0)
(3 1.24562e-16 0)
(3 -1.63098e-16 0)
(3 -2.05958e-16 0)
(3 -7.42509e-15 0)
(3 -9.85486e-08 0)
(3.00007 1.6864e-05 0)
(2.99829 0.178732 0)
(1.54242 0.841293 0)
(1.24766 0.830922 0)
(1.28132 0.835752 0)
(1.30823 0.843371 0)
(1.35112 0.84762 0)
(1.40463 0.847643 0)
(1.46617 0.843806 0)
(3 3.77608e-17 0)
(3 -1.14869e-16 0)
(3 4.24126e-18 0)
(3 2.38332e-16 0)
(3 -2.44625e-16 0)
(3 -6.15921e-16 0)
(3 -7.4552e-16 0)
(3 -1.1365e-15 0)
(3 -1.16758e-15 0)
(3 -1.167e-15 0)
(3 -9.00167e-16 0)
(3 -4.66762e-16 0)
(3 -4.16957e-16 0)
(3 -9.01252e-16 0)
(3 -3.97862e-09 0)
(3 -3.96357e-07 0)
(3.01801 0.00530189 0)
(2.1807 0.699907 0)
(1.31765 0.886449 0)
(1.30235 0.880046 0)
(1.33812 0.875887 0)
(1.37678 0.874586 0)
(1.42552 0.869651 0)
(1.47984 0.863149 0)
(3 1.56999e-16 0)
(3 1.21166e-16 0)
(3 4.2951e-16 0)
(3 6.01078e-16 0)
(3 1.44271e-16 0)
(3 1.09798e-16 0)
(3 -1.7759e-16 0)
(3 -5.61687e-16 0)
(3 -1.17488e-15 0)
(3 -2.06815e-15 0)
(3 -2.22399e-15 0)
(3 -1.61243e-15 0)
(3 -1.13021e-15 0)
(3 -5.11031e-16 0)
(3 -1.94169e-11 0)
(3 -9.79818e-08 0)
(3.00013 9.01115e-05 0)
(2.99156 0.169183 0)
(1.67776 0.868402 0)
(1.33923 0.880268 0)
(1.38323 0.876602 0)
(1.41359 0.873702 0)
(1.45589 0.866919 0)
(1.5038 0.859585 0)
(3 2.13763e-16 0)
(3 3.17454e-16 0)
(3 -3.34452e-17 0)
(3 -1.09007e-16 0)
(3 -1.07609e-16 0)
(3 1.85148e-17 0)
(3 8.00818e-17 0)
(3 -9.27986e-17 0)
(3 -5.72948e-16 0)
(3 -8.2351e-16 0)
(3 -4.16176e-16 0)
(3 -7.84638e-16 0)
(3 -1.08862e-15 0)
(3 -7.33617e-16 0)
(3 -1.13028e-14 0)
(3 -8.84239e-09 0)
(3 6.46842e-08 0)
(3.01066 0.00723098 0)
(2.47994 0.621675 0)
(1.4496 0.930984 0)
(1.40835 0.912981 0)
(1.44263 0.898646 0)
(1.4772 0.888716 0)
(1.52107 0.877392 0)
(3 -8.5017e-17 0)
(3 -5.36363e-18 0)
(3 1.43205e-17 0)
(3 -3.23633e-16 0)
(3 -3.89352e-16 0)
(3 -4.0616e-16 0)
(3 8.17033e-17 0)
(3 5.76189e-16 0)
(3 5.77836e-16 0)
(3 4.92044e-16 0)
(3 2.7862e-16 0)
(3 -4.74248e-17 0)
(3 -3.13147e-16 0)
(3 -5.81822e-16 0)
(3 -6.76636e-16 0)
(3 -3.02288e-10 0)
(3 -2.86679e-10 0)
(3.00005 0.000113331 0)
(3.03294 0.0859141 0)
(1.90785 0.829614 0)
(1.45139 0.922188 0)
(1.48698 0.908556 0)
(1.51417 0.89809 0)
(1.55139 0.884905 0)
(3 -9.85715e-17 0)
(3 -2.30653e-17 0)
(3 1.84992e-16 0)
(3 -2.45432e-16 0)
(3 -2.59741e-16 0)
(3 -7.1269e-17 0)
(3 3.67407e-16 0)
(3 1.26636e-15 0)
(3 8.47785e-16 0)
(3 5.08368e-16 0)
(3 2.47764e-16 0)
(3 -1.76067e-16 0)
(3 -1.13469e-16 0)
(3 -3.86707e-16 0)
(3 -8.36709e-17 0)
(3 -2.07056e-12 0)
(3 -8.17057e-11 0)
(3 1.18842e-07 0)
(3.00318 0.00388202 0)
(2.74409 0.402474 0)
(1.6762 0.933529 0)
(1.4963 0.933281 0)
(1.54162 0.92417 0)
(1.57434 0.911395 0)
(3 2.43497e-17 0)
(3 3.59603e-17 0)
(3 -1.91951e-17 0)
(3 3.74738e-16 0)
(3 1.41812e-16 0)
(3 3.96876e-16 0)
(3 5.15678e-16 0)
(3 4.29317e-16 0)
(3 1.22829e-16 0)
(3 2.37115e-16 0)
(3 8.71304e-16 0)
(3 7.32692e-16 0)
(3 1.50639e-16 0)
(3 2.92573e-16 0)
(3 7.28391e-16 0)
(3 -2.27792e-15 0)
(3 -8.64787e-12 0)
(3 1.78559e-11 0)
(3 2.81969e-05 0)
(3.01281 0.0318704 0)
(2.29779 0.717881 0)
(1.57361 0.953333 0)
(1.56388 0.949535 0)
(1.59681 0.930133 0)
(3 2.70788e-17 0)
(3 1.52771e-16 0)
(3 2.79836e-16 0)
(3 5.11492e-16 0)
(3 1.00862e-15 0)
(3 7.17044e-16 0)
(3 1.8589e-16 0)
(3 -1.7902e-16 0)
(3 1.60971e-16 0)
(3 6.98878e-16 0)
(3 1.12586e-15 0)
(3 1.6813e-15 0)
(3 1.67051e-15 0)
(3 1.23851e-15 0)
(3 4.26238e-16 0)
(3 8.00011e-17 0)
(3 -3.79813e-13 0)
(3 -3.5544e-13 0)
(3 1.80895e-08 0)
(3.00023 0.00110949 0)
(2.95829 0.166544 0)
(1.96837 0.84701 0)
(1.61058 0.953591 0)
(1.62309 0.944345 0)
(3 2.58235e-17 0)
(3 2.26957e-16 0)
(3 1.65326e-16 0)
(3 4.76468e-18 0)
(3 4.01949e-16 0)
(3 4.52007e-16 0)
(3 8.71344e-17 0)
(3 -1.78458e-16 0)
(3 4.09071e-17 0)
(3 6.77007e-16 0)
(3 4.48657e-16 0)
(3 7.12229e-16 0)
(3 9.57941e-16 0)
(3 7.31607e-16 0)
(3 -9.88997e-16 0)
(3 -8.74298e-16 0)
(3 -5.30444e-15 0)
(3 -1.08013e-13 0)
(3 4.84039e-12 0)
(3 3.27315e-06 0)
(3.00218 0.00985128 0)
(2.70808 0.410695 0)
(1.83108 0.919637 0)
(1.64457 0.964722 0)
(3 6.94987e-17 0)
(3 3.09593e-16 0)
(3 1.6827e-16 0)
(3 -1.95847e-16 0)
(3 -3.10005e-16 0)
(3 -2.43051e-16 0)
(3 -9.81537e-17 0)
(3 -2.98171e-16 0)
(3 1.7153e-17 0)
(3 1.29595e-16 0)
(3 -7.9694e-17 0)
(3 -4.92243e-16 0)
(3 -2.80836e-16 0)
(3 -6.05223e-17 0)
(3 -3.23649e-16 0)
(3 -5.01863e-16 0)
(3 -3.99859e-16 0)
(3 -1.2293e-14 0)
(3 -1.14982e-14 0)
(3 1.87785e-09 0)
(2.99999 0.000122699 0)
(2.9977 0.0385274 0)
(2.42619 0.624937 0)
(1.77064 0.964326 0)
(3 4.9324e-17 0)
(3 7.80575e-17 0)
(3 1.29216e-16 0)
(3 -5.36212e-18 0)
(3 -8.66069e-17 0)
(3 -6.62745e-16 0)
(3 -5.14864e-16 0)
(3 -2.21651e-16 0)
(3 -9.18141e-17 0)
(3 -4.51266e-16 0)
(3 -3.94851e-16 0)
(3 -1.28217e-15 0)
(3 -1.82592e-15 0)
(3 -1.59708e-15 0)
(3 -4.4103e-16 0)
(3 -2.25836e-16 0)
(3 -2.95044e-16 0)
(3 -1.13371e-15 0)
(3 -4.69796e-15 0)
(3 4.10653e-13 0)
(3 1.51511e-07 0)
(2.99993 0.00129703 0)
(2.95458 0.11394 0)
(2.22838 0.766233 0)
(3 1.74517e-17 0)
(3 -1.23666e-16 0)
(3 -1.23102e-16 0)
(3 1.77146e-16 0)
(3 2.17344e-16 0)
(3 2.17093e-16 0)
(3 1.57743e-16 0)
(3 3.10175e-16 0)
(3 -1.09838e-17 0)
(3 -3.99985e-16 0)
(3 -5.31209e-16 0)
(3 -6.44199e-16 0)
(3 -1.4324e-15 0)
(3 -1.47475e-15 0)
(3 -6.64525e-16 0)
(3 -1.23239e-16 0)
(3 -5.6617e-16 0)
(3 -3.1687e-16 0)
(3 -8.90738e-16 0)
(3 -1.604e-15 0)
(3 8.13177e-11 0)
(3 3.97331e-06 0)
(2.99937 0.00609763 0)
(2.85548 0.252973 0)
(3 3.78903e-17 0)
(3 4.27782e-17 0)
(3 -3.08246e-17 0)
(3 1.97908e-16 0)
(3 2.43976e-16 0)
(3 8.09486e-16 0)
(3 1.05646e-15 0)
(3 6.00397e-16 0)
(3 -9.94887e-17 0)
(3 -1.87906e-16 0)
(3 -2.32924e-16 0)
(3 -1.32859e-16 0)
(3 6.26653e-17 0)
(3 4.41611e-16 0)
(3 5.11254e-16 0)
(3 4.0663e-16 0)
(3 9.56604e-16 0)
(3 5.69064e-16 0)
(3 2.19029e-16 0)
(3 -5.57529e-17 0)
(3 8.92514e-15 0)
(3 3.4338e-09 0)
(2.99999 4.7391e-05 0)
(2.99624 0.0188185 0)
(3 -2.73712e-17 0)
(3 -2.25902e-16 0)
(3 -5.49794e-17 0)
(3 -3.49083e-16 0)
(3 -4.13652e-16 0)
(3 -4.66488e-16 0)
(3 -4.9736e-16 0)
(3 -4.7853e-16 0)
(3 -4.77152e-16 0)
(3 -5.42724e-16 0)
(3 -1.17908e-15 0)
(3 -8.73028e-16 0)
(3 1.38351e-17 0)
(3 6.07177e-16 0)
(3 3.54093e-16 0)
(3 -1.5226e-16 0)
(3 1.33779e-16 0)
(3 7.5835e-16 0)
(3 6.99377e-16 0)
(3 1.15819e-15 0)
(3 3.46105e-16 0)
(3 6.88095e-13 0)
(3 6.11e-08 0)
(2.99992 0.00032847 0)
(3 -2.24786e-16 0)
(3 -8.24118e-16 0)
(3 -7.18539e-16 0)
(3 -4.95653e-16 0)
(3 -8.00663e-16 0)
(3 -1.34366e-15 0)
(3 -1.22946e-15 0)
(3 -9.35291e-16 0)
(3 -3.544e-16 0)
(3 -3.77239e-16 0)
(3 -8.32789e-16 0)
(3 -1.14462e-15 0)
(3 -2.08373e-16 0)
(3 1.33262e-16 0)
(3 -4.60118e-16 0)
(3 -2.96958e-17 0)
(3 5.73982e-17 0)
(3 6.26861e-16 0)
(3 1.30602e-15 0)
(3 1.09736e-15 0)
(3 1.33648e-16 0)
(3 3.37472e-16 0)
(3 2.72997e-11 0)
(3 6.48296e-07 0)
(3 -1.72134e-16 0)
(3 -3.05374e-16 0)
(3 -5.94658e-16 0)
(3 -2.116e-16 0)
(3 -2.03446e-16 0)
(3 -6.38194e-16 0)
(3 -4.81239e-16 0)
(3 -1.27453e-16 0)
(3 -1.69851e-16 0)
(3 1.16729e-17 0)
(3 3.50332e-16 0)
(3 5.6819e-17 0)
(3 -6.79142e-16 0)
(3 -6.63186e-16 0)
(3 -6.5303e-16 0)
(3 -6.42825e-16 0)
(3 -6.10395e-16 0)
(3 -5.50538e-16 0)
(3 -3.89063e-16 0)
(3 -6.5169e-16 0)
(3 -8.62389e-16 0)
(3 -2.36117e-16 0)
(3 2.47986e-15 0)
(3 5.26602e-10 0)
(3 1.56606e-16 0)
(3 2.8664e-16 0)
(3 1.50651e-16 0)
(3 -3.77165e-16 0)
(3 -4.28279e-16 0)
(3 2.36642e-16 0)
(3 7.11185e-17 0)
(3 -1.65924e-16 0)
(3 -5.86231e-16 0)
(3 -5.89465e-16 0)
(3 -3.06246e-16 0)
(3 1.9326e-16 0)
(3 -1.33665e-16 0)
(3 -5.33211e-17 0)
(3 -7.48966e-17 0)
(3 -2.14072e-16 0)
(3 -3.52381e-16 0)
(3 -6.67046e-16 0)
(3 -1.31168e-15 0)
(3 -1.324e-15 0)
(3 -7.53143e-16 0)
(3 -2.51058e-16 0)
(3 1.21027e-16 0)
(3 4.89553e-14 0)
(3 1.60975e-17 0)
(3 -6.45187e-17 0)
(3 -2.38583e-16 0)
(3 -8.79447e-16 0)
(3 -9.55744e-16 0)
(3 -1.71305e-17 0)
(3 -7.54293e-17 0)
(3 -6.90739e-16 0)
(3 -9.40144e-16 0)
(3 -1.11781e-15 0)
(3 -1.22382e-15 0)
(3 -8.46715e-16 0)
(3 -7.74645e-16 0)
(3 -3.36336e-16 0)
(3 6.19298e-16 0)
(3 8.12572e-16 0)
(3 1.7034e-16 0)
(3 -2.76337e-16 0)
(3 -5.91992e-16 0)
(3 -6.15992e-16 0)
(3 8.67318e-17 0)
(3 6.13044e-16 0)
(3 1.15545e-15 0)
(3 -1.54787e-16 0)
(3 -1.22461e-16 0)
(3 -4.13452e-16 0)
(3 -8.06334e-16 0)
(3 -6.2188e-16 0)
(3 -4.06606e-16 0)
(3 -4.1642e-16 0)
(3 -8.80843e-17 0)
(3 6.80817e-17 0)
(3 -8.41328e-17 0)
(3 -4.90225e-16 0)
(3 -7.1339e-16 0)
(3 -8.12499e-16 0)
(3 -3.97459e-16 0)
(3 3.32196e-16 0)
(3 6.27628e-16 0)
(3 6.36891e-16 0)
(3 -6.39693e-17 0)
(3 -5.09055e-16 0)
(3 -5.15489e-16 0)
(3 -4.29595e-16 0)
(3 2.9294e-17 0)
(3 3.27101e-16 0)
(3 3.02026e-16 0)
(3 -3.32992e-16 0)
(3 1.31266e-16 0)
(3 4.11014e-16 0)
(3 4.77358e-16 0)
(3 4.50876e-16 0)
(3 7.10572e-16 0)
(3 5.36452e-16 0)
(3 4.69645e-16 0)
(3 2.52337e-16 0)
(3 -2.73097e-16 0)
(3 -7.44387e-16 0)
(3 -7.24791e-16 0)
(3 -6.83406e-16 0)
(3 -1.75634e-17 0)
(3 1.95228e-16 0)
(3 -4.84408e-17 0)
(3 1.29514e-15 0)
(3 1.26528e-15 0)
(3 2.12594e-16 0)
(3 -4.53894e-16 0)
(3 -3.76713e-16 0)
(3 -6.0993e-16 0)
(3 -3.46204e-16 0)
(3 -5.54353e-16 0)
(3 -5.73211e-16 0)
(3 1.79797e-16 0)
(3 4.84134e-16 0)
(3 6.2558e-16 0)
(3 6.61171e-16 0)
(3 8.90238e-16 0)
(3 7.82632e-16 0)
(3 3.19401e-16 0)
(3 -8.00538e-17 0)
(3 -9.27417e-17 0)
(3 -2.88333e-16 0)
(3 -4.58414e-16 0)
(3 -7.95439e-16 0)
(3 -2.33467e-16 0)
(3 -4.46822e-16 0)
(3 -3.81412e-16 0)
(3 3.00756e-16 0)
(3 2.75888e-16 0)
(3 -3.83378e-17 0)
(3 -3.81345e-16 0)
(3 -4.81468e-16 0)
(3 -6.9856e-16 0)
(3 -5.06039e-16 0)
(3 -4.59022e-16 0)
(3 -6.00143e-16 0)
(1.4848 1.29108 0)
(2.00556 1.21351 0)
(2.44426 1.22957 0)
(2.53858 0.854888 0)
(2.4988 0.350639 0)
(2.49631 -0.00179877 0)
(2.48135 -0.26998 0)
(2.51987 -0.363385 0)
(2.53869 -0.318427 0)
(2.50615 -0.278915 0)
(2.45719 -0.243263 0)
(2.4234 -0.172396 0)
(2.41099 -0.115744 0)
(2.41263 -0.111278 0)
(2.44465 -0.118452 0)
(2.44658 -0.106325 0)
(2.43079 -0.0708857 0)
(2.39257 -0.0401262 0)
(2.38465 -0.0253605 0)
(2.39506 -0.0173542 0)
(2.42142 -0.00832001 0)
(2.45144 -0.0105377 0)
(2.45028 -0.0147552 0)
(2.44205 -0.0155999 0)
(2.42272 -0.0114393 0)
(2.40819 -0.00199648 0)
(2.40573 0.000911753 0)
(2.41121 0.00107253 0)
(2.43304 -0.00492205 0)
(2.4458 -0.0101952 0)
(2.44429 -0.0111792 0)
(2.43543 -0.010137 0)
(2.42401 -0.00378841 0)
(2.42199 -0.000198428 0)
(2.42483 0.000272282 0)
(2.44082 -0.00133577 0)
(2.46426 -0.00273154 0)
(2.47018 -0.000815542 0)
(2.46156 -0.0071302 0)
(2.41035 -0.0440899 0)
(2.18528 -0.139471 0)
(1.76582 -0.274938 0)
(1.47647 -0.258929 0)
(1.39599 -0.159059 0)
(1.411 -0.080903 0)
(1.49589 -0.0290898 0)
(1.55715 -0.00435257 0)
(1.58286 -0.00277042 0)
(1.61596 -0.00410465 0)
(1.66126 -0.00224861 0)
(1.69694 -0.00222627 0)
(1.72384 -0.0015235 0)
(1.74678 0.00128383 0)
(1.76206 0.00459696 0)
(1.78184 0.00500219 0)
(1.8061 0.00407583 0)
(1.8344 0.00130347 0)
(1.86468 -0.00138053 0)
(1.89034 -0.00139845 0)
(1.91455 0.000247506 0)
(1.93257 0.00353367 0)
(1.94199 0.00790351 0)
(1.95211 0.0108612 0)
(1.97199 0.0112005 0)
(1.99449 0.0107983 0)
(2.0231 0.00885484 0)
(2.05466 0.00482344 0)
(2.0791 0.00268155 0)
(2.10275 0.00203541 0)
(2.11775 0.00286024 0)
(2.11633 0.00648416 0)
(2.11901 0.0103013 0)
(2.13629 0.0109149 0)
(2.1572 0.0107992 0)
(2.18107 0.0104554 0)
(2.21094 0.00995167 0)
(2.2386 0.00888167 0)
(2.259 0.00788128 0)
(2.27823 0.00724351 0)
(2.292 0.00659897 0)
(2.28491 0.00832706 0)
(2.27065 0.0114243 0)
(2.28234 0.0121415 0)
(2.30154 0.0122277 0)
(2.32121 0.0122181 0)
(2.34415 0.0118818 0)
(2.37253 0.010517 0)
(2.39596 0.00881141 0)
(2.41801 0.00822321 0)
(2.43891 0.00740047 0)
(2.44749 0.00644543 0)
(2.43029 0.00827099 0)
(2.4251 0.010463 0)
(2.44417 0.0113728 0)
(2.46161 0.011576 0)
(2.48908 0.0115795 0)
(1.7549 1.1108 0)
(2.2828 0.779205 0)
(2.55567 0.341147 0)
(2.6572 0.0787343 0)
(2.70766 -0.175336 0)
(2.6787 -0.471829 0)
(2.68442 -0.564653 0)
(2.71316 -0.634601 0)
(2.69931 -0.594127 0)
(2.65647 -0.479065 0)
(2.59902 -0.341651 0)
(2.53113 -0.215644 0)
(2.49245 -0.122623 0)
(2.49311 -0.0786556 0)
(2.5066 -0.0802563 0)
(2.48338 -0.0799292 0)
(2.45951 -0.0603871 0)
(2.45074 -0.0332171 0)
(2.44479 -0.00689685 0)
(2.44574 0.00921516 0)
(2.45763 0.0202239 0)
(2.47002 0.0172286 0)
(2.4655 0.000133549 0)
(2.45822 -0.0185101 0)
(2.44526 -0.0293204 0)
(2.4385 -0.0184968 0)
(2.43983 -4.32859e-05 0)
(2.44805 0.0136293 0)
(2.45839 0.00923571 0)
(2.46832 -0.00970176 0)
(2.46788 -0.0181112 0)
(2.46368 -0.0206131 0)
(2.45434 -0.0127825 0)
(2.45112 0.00158484 0)
(2.45445 0.00742077 0)
(2.46575 0.0108941 0)
(2.48316 0.0172107 0)
(2.4799 -0.00170789 0)
(2.43447 -0.0805726 0)
(2.28423 -0.293106 0)
(2.04766 -0.525149 0)
(1.95372 -0.630808 0)
(1.79117 -0.445711 0)
(1.59312 -0.153118 0)
(1.48598 0.0148348 0)
(1.52183 0.0253151 0)
(1.55578 0.0177326 0)
(1.58243 0.00477317 0)
(1.62651 -0.00196688 0)
(1.67478 0.00606575 0)
(1.70786 0.00151637 0)
(1.73592 0.00181157 0)
(1.7621 0.00557687 0)
(1.78083 0.0147082 0)
(1.79385 0.0214661 0)
(1.81449 0.0197017 0)
(1.83892 0.0128979 0)
(1.86956 8.11394e-05 0)
(1.89664 -0.00792688 0)
(1.9217 -0.0100969 0)
(1.94502 -0.00935945 0)
(1.96317 -0.000672505 0)
(1.97434 0.0164378 0)
(1.98477 0.0309073 0)
(2.00432 0.0350397 0)
(2.0275 0.0341024 0)
(2.0556 0.0251957 0)
(2.08238 0.012576 0)
(2.10319 0.00238094 0)
(2.12032 -0.00679031 0)
(2.13037 -0.00605816 0)
(2.13778 0.00742681 0)
(2.14851 0.0225809 0)
(2.16649 0.0302911 0)
(2.18662 0.0333555 0)
(2.21057 0.0347972 0)
(2.23423 0.0311004 0)
(2.25515 0.0255916 0)
(2.27494 0.0179917 0)
(2.29117 0.00774169 0)
(2.2975 0.0023363 0)
(2.29171 0.014737 0)
(2.29294 0.0297084 0)
(2.30875 0.0347278 0)
(2.32656 0.0363443 0)
(2.34605 0.0381522 0)
(2.36986 0.0360161 0)
(2.39331 0.0294694 0)
(2.41535 0.0223893 0)
(2.43609 0.0136838 0)
(2.45003 0.00391254 0)
(2.44695 0.00589232 0)
(2.43815 0.0212486 0)
(2.44818 0.031989 0)
(2.46473 0.0345774 0)
(2.49049 0.0356472 0)
(1.69254 1.00858 0)
(2.04876 0.866874 0)
(2.27407 0.670562 0)
(2.51066 0.333111 0)
(2.63612 0.0963522 0)
(2.69054 0.0187441 0)
(2.69909 -0.114417 0)
(2.71325 -0.266688 0)
(2.74471 -0.344687 0)
(2.78671 -0.409866 0)
(2.79502 -0.427106 0)
(2.75138 -0.419769 0)
(2.69396 -0.372494 0)
(2.68847 -0.342075 0)
(2.68152 -0.328949 0)
(2.62786 -0.25081 0)
(2.57284 -0.155258 0)
(2.56356 -0.127682 0)
(2.56005 -0.0872878 0)
(2.542 -0.0179865 0)
(2.53379 -0.00813287 0)
(2.52124 -0.00494804 0)
(2.51492 -0.000778524 0)
(2.5077 0.000866731 0)
(2.50215 -0.00719266 0)
(2.50527 -0.0157307 0)
(2.51067 -0.0146765 0)
(2.51466 -0.0109582 0)
(2.51844 -0.0101429 0)
(2.51979 -0.0168145 0)
(2.5132 -0.0270692 0)
(2.50453 -0.0311442 0)
(2.49985 -0.0273839 0)
(2.50109 -0.0175411 0)
(2.50619 -0.00815835 0)
(2.51691 0.0070359 0)
(2.51413 -0.00408009 0)
(2.47358 -0.0699723 0)
(2.27713 -0.31908 0)
(2.05794 -0.586496 0)
(1.99447 -0.602893 0)
(2.03177 -0.672637 0)
(2.01578 -0.647651 0)
(1.93328 -0.490284 0)
(1.77928 -0.240471 0)
(1.66655 -0.0892949 0)
(1.618 -0.0145823 0)
(1.63289 0.018964 0)
(1.67734 0.0205639 0)
(1.71838 0.0103788 0)
(1.7447 -0.00414441 0)
(1.77217 -0.0105079 0)
(1.79572 -0.00826815 0)
(1.81742 0.00252571 0)
(1.83177 0.0184803 0)
(1.84358 0.0273961 0)
(1.86335 0.0267516 0)
(1.88613 0.0234657 0)
(1.91253 0.0151468 0)
(1.93989 0.00963557 0)
(1.965 0.00734977 0)
(1.98798 0.00694523 0)
(2.00742 0.0125221 0)
(2.02001 0.027663 0)
(2.0281 0.0409001 0)
(2.04414 0.042834 0)
(2.06529 0.040297 0)
(2.0856 0.0339795 0)
(2.10505 0.0233478 0)
(2.12486 0.0135907 0)
(2.14442 0.00861478 0)
(2.16349 0.0105782 0)
(2.17846 0.0235966 0)
(2.18793 0.0416312 0)
(2.20213 0.0511117 0)
(2.22195 0.052337 0)
(2.24165 0.0504422 0)
(2.26002 0.0452133 0)
(2.2763 0.0364356 0)
(2.28899 0.026259 0)
(2.30043 0.0191229 0)
(2.3118 0.0211597 0)
(2.31915 0.0359564 0)
(2.32446 0.0528942 0)
(2.34019 0.0588926 0)
(2.35878 0.0598318 0)
(2.37844 0.0580179 0)
(2.39802 0.0518502 0)
(2.41629 0.0425226 0)
(2.43166 0.0306247 0)
(2.44162 0.0192632 0)
(2.44935 0.0142648 0)
(2.45688 0.0216749 0)
(2.46458 0.0384306 0)
(2.47384 0.0534983 0)
(2.50037 0.0581914 0)
(1.61779 0.967027 0)
(1.90087 0.862172 0)
(2.13714 0.702593 0)
(2.33045 0.49963 0)
(2.47001 0.302875 0)
(2.56877 0.188348 0)
(2.62503 0.0942604 0)
(2.68708 -0.101095 0)
(2.73414 -0.28616 0)
(2.74029 -0.370214 0)
(2.78573 -0.423652 0)
(2.82257 -0.494645 0)
(2.81529 -0.501657 0)
(2.77578 -0.455238 0)
(2.75374 -0.436518 0)
(2.71094 -0.379483 0)
(2.67968 -0.304177 0)
(2.67869 -0.274677 0)
(2.67498 -0.235783 0)
(2.63708 -0.146335 0)
(2.62919 -0.106725 0)
(2.6041 -0.0860947 0)
(2.57873 -0.0599632 0)
(2.56545 -0.0447461 0)
(2.55837 -0.032822 0)
(2.56469 -0.0094128 0)
(2.57191 0.0104883 0)
(2.5717 0.0128025 0)
(2.56964 0.0122828 0)
(2.56433 0.00498044 0)
(2.55327 -0.00846624 0)
(2.54916 -0.0153068 0)
(2.55037 -0.0150975 0)
(2.55494 -0.00920425 0)
(2.55827 -0.00339426 0)
(2.55205 -0.0150441 0)
(2.50367 -0.087976 0)
(2.34056 -0.296516 0)
(2.08552 -0.570894 0)
(1.99415 -0.690435 0)
(1.99334 -0.66186 0)
(2.03776 -0.646034 0)
(2.06547 -0.650378 0)
(2.07101 -0.640158 0)
(2.03161 -0.559908 0)
(1.89186 -0.348081 0)
(1.77238 -0.148376 0)
(1.72941 -0.0182931 0)
(1.73379 0.00688471 0)
(1.75555 0.025074 0)
(1.78615 0.0287863 0)
(1.81732 0.0190715 0)
(1.8402 0.00683108 0)
(1.86163 0.00573266 0)
(1.87822 0.0167962 0)
(1.8868 0.0304252 0)
(1.89874 0.0336747 0)
(1.91873 0.0309047 0)
(1.94149 0.0277257 0)
(1.96769 0.0252371 0)
(1.99268 0.0263819 0)
(2.01661 0.0295284 0)
(2.03936 0.0315158 0)
(2.05783 0.0344785 0)
(2.06349 0.0414047 0)
(2.06483 0.043721 0)
(2.07884 0.0382375 0)
(2.09882 0.0320291 0)
(2.1212 0.0284572 0)
(2.14372 0.0280577 0)
(2.16688 0.0300909 0)
(2.18862 0.03287 0)
(2.20861 0.0384852 0)
(2.22066 0.0509765 0)
(2.22435 0.0627624 0)
(2.23506 0.0635213 0)
(2.25159 0.0594128 0)
(2.26791 0.0536658 0)
(2.28147 0.0462516 0)
(2.29538 0.0400866 0)
(2.31247 0.0389713 0)
(2.33039 0.0402104 0)
(2.34657 0.0464343 0)
(2.35565 0.062285 0)
(2.35849 0.0772795 0)
(2.37088 0.0782077 0)
(2.38815 0.0735656 0)
(2.4047 0.0661827 0)
(2.41923 0.0566674 0)
(2.42956 0.0463829 0)
(2.43967 0.0382476 0)
(2.4549 0.035871 0)
(2.4718 0.0370054 0)
(2.4871 0.0447522 0)
(2.49522 0.0581329 0)
(2.51429 0.0661583 0)
(1.57785 0.933659 0)
(1.81361 0.848027 0)
(2.00998 0.740708 0)
(2.16284 0.62208 0)
(2.32558 0.454968 0)
(2.44926 0.278105 0)
(2.53185 0.167966 0)
(2.57046 0.136196 0)
(2.59666 0.0249031 0)
(2.67096 -0.127746 0)
(2.69527 -0.216212 0)
(2.73665 -0.287568 0)
(2.77216 -0.316199 0)
(2.76623 -0.335086 0)
(2.72911 -0.370121 0)
(2.72292 -0.369329 0)
(2.72726 -0.369726 0)
(2.73328 -0.372289 0)
(2.72793 -0.356052 0)
(2.70787 -0.2923 0)
(2.69381 -0.23111 0)
(2.67443 -0.195235 0)
(2.63804 -0.149001 0)
(2.62031 -0.120454 0)
(2.61789 -0.0907637 0)
(2.62062 -0.0458107 0)
(2.61576 -0.0316519 0)
(2.60519 -0.0312692 0)
(2.5996 -0.0276494 0)
(2.58345 -0.0126511 0)
(2.5736 -0.00255351 0)
(2.57149 0.00290528 0)
(2.58193 0.012581 0)
(2.58722 0.0106659 0)
(2.5798 -0.0089089 0)
(2.50494 -0.122998 0)
(2.32793 -0.344766 0)
(2.13573 -0.520126 0)
(2.02098 -0.679811 0)
(2.0013 -0.7001 0)
(2.01138 -0.686062 0)
(2.04677 -0.653278 0)
(2.07827 -0.637147 0)
(2.10332 -0.644634 0)
(2.11921 -0.646834 0)
(2.09612 -0.600459 0)
(2.00713 -0.44102 0)
(1.89747 -0.21943 0)
(1.83673 -0.0859399 0)
(1.80519 0.000382897 0)
(1.82419 0.00786765 0)
(1.84597 0.0194874 0)
(1.86693 0.029954 0)
(1.88943 0.0292318 0)
(1.91111 0.029418 0)
(1.92508 0.0375868 0)
(1.9312 0.0433286 0)
(1.94779 0.0436362 0)
(1.96828 0.0428965 0)
(1.99123 0.0426885 0)
(2.01754 0.0441818 0)
(2.04178 0.0445312 0)
(2.06628 0.0448239 0)
(2.08787 0.0455051 0)
(2.09633 0.0491459 0)
(2.08805 0.0540603 0)
(2.09441 0.0515843 0)
(2.11457 0.048168 0)
(2.1359 0.0451068 0)
(2.16153 0.0426584 0)
(2.18832 0.0442948 0)
(2.21092 0.0478338 0)
(2.23274 0.0530316 0)
(2.24909 0.0625493 0)
(2.24948 0.0752964 0)
(2.24489 0.0785266 0)
(2.25581 0.0714647 0)
(2.27188 0.0639293 0)
(2.28954 0.0588552 0)
(2.3079 0.0584156 0)
(2.32786 0.0601274 0)
(2.34741 0.0630273 0)
(2.36587 0.0660292 0)
(2.3812 0.0733251 0)
(2.38553 0.0882844 0)
(2.38102 0.0998339 0)
(2.38847 0.0953838 0)
(2.40302 0.0843612 0)
(2.41613 0.0695868 0)
(2.4299 0.0561985 0)
(2.44718 0.0528413 0)
(2.4651 0.0547007 0)
(2.48361 0.0585762 0)
(2.50215 0.0645368 0)
(2.51504 0.0719541 0)
(2.52968 0.076585 0)
(1.54897 0.897985 0)
(1.74345 0.841149 0)
(1.92219 0.748365 0)
(2.06113 0.66212 0)
(2.17613 0.574036 0)