/*--------------------------------*- C++ -*----------------------------------*\
  =========                 |
  \\      /  F ield         | OpenFOAM: The Open Source CFD Toolbox
   \\    /   O peration     | Website:  https://openfoam.org
    \\  /    A nd           | Version:  7
     \\/     M anipulation  |
\*---------------------------------------------------------------------------*/
FoamFile
{
    version     2.0;
    format      ascii;
    class       volScalarField;
    location    "3.3";
    object      rho;
}
// * * * * * * * * * * * * * * * * * * * * * * * * * * * * * * * * * * * * * //

dimensions      [1 -3 0 0 0 0 0];

internalField   nonuniform List<scalar> 
4032
(
1.40001
1.40001
1.40001
1.40001
1.40001
1.40001
1.40001
1.40001
1.40001
1.40001
1.40001
1.48773
4.20257
5.46383
5.51468
5.58581
5.65099
5.71381
5.77434
5.83101
5.88037
5.91653
5.94155
5.9606
1.40001
1.40001
1.40001
1.40001
1.40001
1.40001
1.40001
1.40001
1.40001
1.40001
1.40001
1.46702
4.14324
5.45323
5.50918
5.57828
5.64249
5.70414
5.76354
5.8186
5.86573
5.89895
5.92003
5.93635
1.40001
1.40001
1.40001
1.40001
1.40001
1.40001
1.40001
1.40001
1.40001
1.40001
1.40001
1.40801
4.01489
5.43868
5.49152
5.55765
5.62059
5.68026
5.7377
5.79123
5.83801
5.87219
5.89376
5.91236
1.40001
1.40001
1.40001
1.40001
1.40001
1.40001
1.40001
1.40001
1.40001
1.40001
1.40001
1.40015
3.80413
5.40124
5.46145
5.52538
5.58802
5.64603
5.70166
5.75319
5.79758
5.82776
5.84301
5.85457
1.40001
1.40001
1.40001
1.40001
1.40001
1.40001
1.40001
1.40001
1.40001
1.40001
1.40001
1.4
3.51556
5.34062
5.42819
5.48832
5.54874
5.60212
5.65173
5.69568
5.73214
5.75757
5.77024
5.78887
1.40001
1.40001
1.40001
1.40001
1.40001
1.40001
1.40001
1.40001
1.40001
1.40001
1.40001
1.4
3.15776
5.24859
5.39329
5.44698
5.50058
5.54569
5.58719
5.62493
5.65631
5.67892
5.68421
5.67242
1.40001
1.40001
1.40001
1.40001
1.40001
1.40001
1.40001
1.40001
1.40001
1.40001
1.40001
1.40001
2.74513
5.11896
5.38104
5.42122
5.46139
5.49171
5.51573
5.53622
5.54437
5.53116
5.50758
5.49556
1.40001
1.40001
1.40001
1.40001
1.40001
1.40001
1.40001
1.40001
1.40001
1.40001
1.40001
1.40001
2.27436
4.93513
5.40343
5.40892
5.42757
5.43943
5.44241
5.44089
5.42036
5.38761
5.32764
5.29797
1.40001
1.40001
1.40001
1.40001
1.40001
1.40001
1.40001
1.40001
1.40001
1.40001
1.40001
1.40001
1.78078
4.66985
5.44074
5.39874
5.40178
5.39041
5.36812
5.33768
5.27591
5.17124
4.85771
4.01622
1.40001
1.40001
1.40001
1.40001
1.40001
1.40001
1.40001
1.40001
1.40001
1.40001
1.40001
1.40001
1.43945
4.12126
5.37581
5.32446
5.33665
5.32127
5.28325
5.2239
5.11998
4.93104
4.60422
3.70194
1.40001
1.40001
1.40001
1.40001
1.40001
1.40001
1.40001
1.40001
1.40001
1.40001
1.40001
1.40001
1.40011
3.34765
5.13864
5.26923
5.28678
5.25792
5.20356
5.11486
4.97914
4.74344
4.39223
3.57591
1.40001
1.40001
1.40001
1.40001
1.40001
1.40001
1.40001
1.40001
1.40001
1.40001
1.40001
1.40001
1.4
2.51538
4.90074
5.22675
5.21491
5.19203
5.13228
5.02135
4.85666
4.61018
4.22245
3.54821
1.40001
1.40001
1.40001
1.40001
1.40001
1.40001
1.40001
1.40001
1.40001
1.40001
1.40001
1.40001
1.4
1.73534
4.60846
5.28529
5.18336
5.11836
5.04454
4.923
4.74613
4.50409
4.10909
3.579
1.40001
1.40001
1.40001
1.40001
1.40001
1.40001
1.40001
1.40001
1.40001
1.40001
1.40001
1.40001
1.4
1.42135
3.81617
5.05547
5.05627
5.03073
4.95646
4.83418
4.66096
4.40874
4.04843
3.62384
1.40001
1.40001
1.40001
1.40001
1.40001
1.40001
1.40001
1.40001
1.40001
1.40001
1.40001
1.40001
1.40001
1.39987
2.6981
4.83345
5.04261
5.00242
4.90997
4.76899
4.59687
4.34265
4.02993
3.67523
1.40001
1.40001
1.40001
1.40001
1.40001
1.40001
1.40001
1.40001
1.40001
1.40001
1.40001
1.40001
1.40001
1.39997
1.68866
4.48985
5.10787
4.9794
4.8558
4.69633
4.52344
4.28774
4.01883
3.71416
1.40001
1.40001
1.40001
1.40001
1.40001
1.40001
1.40001
1.40001
1.40001
1.40001
1.40001
1.40001
1.40001
1.4
1.41184
3.51116
4.92183
4.8876
4.78359
4.63921
4.46713
4.25536
4.01865
3.7509
1.40001
1.40001
1.40001
1.40001
1.40001
1.40001
1.40001
1.40001
1.40001
1.40001
1.40001
1.40001
1.40001
1.4
1.39992
2.21728
4.72549
4.90521
4.77293
4.62238
4.44776
4.24573
4.02329
3.78292
1.40001
1.40001
1.40001
1.40001
1.40001
1.40001
1.40001
1.40001
1.40001
1.40001
1.40001
1.40001
1.40001
1.40001
1.39998
1.50503
3.87681
4.85914
4.72439
4.59828
4.43349
4.24416
4.03497
3.81672
1.40001
1.40001
1.40001
1.40001
1.40001
1.40001
1.40001
1.40001
1.40001
1.40001
1.40001
1.40001
1.40001
1.40001
1.4
1.40098
2.4801
4.61817
4.72671
4.60615
4.44679
4.26546
4.06789
3.86354
1.40001
1.40001
1.40001
1.40001
1.40001
1.40001
1.40001
1.40001
1.40001
1.40001
1.40001
1.40001
1.40001
1.40001
1.4
1.4
1.57384
3.83903
4.748
4.62148
4.46948
4.29116
4.1
3.90275
1.40001
1.40001
1.40001
1.40001
1.40001
1.40001
1.40001
1.40001
1.40001
1.40001
1.40001
1.40001
1.40001
1.40001
1.40001
1.4
1.40336
2.36905
4.48714
4.63884
4.48962
4.31876
4.13607
3.94648
1.40001
1.40001
1.40001
1.40001
1.40001
1.40001
1.40001
1.40001
1.40001
1.40001
1.40001
1.40001
1.40001
1.40001
1.40001
1.4
1.40001
1.535
3.60833
4.66453
4.51869
4.35159
4.17407
3.99199
1.40001
1.40001
1.40001
1.40001
1.40001
1.40001
1.40001
1.40001
1.40001
1.40001
1.40001
1.40001
1.40001
1.40001
1.40001
1.40001
1.40001
1.40223
2.15581
4.26447
4.53681
4.37711
4.21244
4.03987
1.40001
1.40001
1.40001
1.40001
1.40001
1.40001
1.40001
1.40001
1.40001
1.40001
1.40001
1.40001
1.40001
1.40001
1.40001
1.40001
1.40001
1.40001
1.47571
3.10738
4.4915
4.43033
4.27248
4.10589
1.40001
1.40001
1.40001
1.40001
1.40001
1.40001
1.40001
1.40001
1.40001
1.40001
1.40001
1.40001
1.40001
1.40001
1.40001
1.40001
1.40001
1.40001
1.40105
1.82748
3.85817
4.48129
4.33181
4.16401
1.40001
1.40001
1.40001
1.40001
1.40001
1.40001
1.40001
1.40001
1.40001
1.40001
1.40001
1.40001
1.40001
1.40001
1.40001
1.40001
1.40001
1.40001
1.40001
1.42348
2.45957
4.20245
4.37038
4.22149
1.40001
1.40001
1.40001
1.40001
1.40001
1.40001
1.40001
1.40001
1.40001
1.40001
1.40001
1.40001
1.40001
1.40001
1.40001
1.40001
1.40001
1.40001
1.40001
1.40025
1.55059
3.1736
4.31225
4.28187
1.40001
1.40001
1.40001
1.40001
1.40001
1.40001
1.40001
1.40001
1.40001
1.40001
1.40001
1.40001
1.40001
1.40001
1.40001
1.40001
1.40001
1.40001
1.40001
1.40001
1.40375
1.87158
3.6845
4.29713
1.40001
1.40001
1.40001
1.40001
1.40001
1.40001
1.40001
1.40001
1.40001
1.40001
1.40001
1.40001
1.40001
1.40001
1.40001
1.40001
1.40001
1.40001
1.40001
1.40001
1.40003
1.42959
2.31261
3.96984
1.40001
1.40001
1.40001
1.40001
1.40001
1.40001
1.40001
1.40001
1.40001
1.40001
1.40001
1.40001
1.40001
1.40001
1.40001
1.40001
1.40001
1.40001
1.40001
1.40001
1.40001
1.40039
1.51092
2.78295
1.40001
1.40001
1.40001
1.40001
1.40001
1.40001
1.40001
1.40001
1.40001
1.40001
1.40001
1.40001
1.40001
1.40001
1.40001
1.40001
1.40001
1.40001
1.40001
1.40001
1.40001
1.40001
1.40259
1.66912
1.40001
1.40001
1.40001
1.40001
1.40001
1.40001
1.40001
1.40001
1.40001
1.40001
1.40001
1.40001
1.40001
1.40001
1.40001
1.40001
1.40001
1.40001
1.40001
1.40001
1.40001
1.40001
1.40002
1.41134
1.40001
1.40001
1.40001
1.40001
1.40001
1.40001
1.40001
1.40001
1.40001
1.40001
1.40001
1.40001
1.40001
1.40001
1.40001
1.40001
1.40001
1.40001
1.40001
1.40001
1.40001
1.40001
1.40001
1.40012
1.40001
1.40001
1.40001
1.40001
1.40001
1.40001
1.40001
1.40001
1.40001
1.40001
1.40001
1.40001
1.40001
1.40001
1.40001
1.40001
1.40001
1.40001
1.40001
1.40001
1.40001
1.40001
1.40001
1.40001
1.40001
1.40001
1.40001
1.40001
1.40001
1.40001
1.40001
1.40001
1.40001
1.40001
1.40001
1.40001
1.40001
1.40001
1.40001
1.40001
1.40001
1.40001
1.40001
1.40001
1.40001
1.40001
1.40001
1.40001
1.40001
1.40001
1.40001
1.40001
1.40001
1.40001
1.40001
1.40001
1.40001
1.40001
1.40001
1.40001
1.40001
1.40001
1.40001
1.40001
1.40001
1.40001
1.40001
1.40001
1.40001
1.40001
1.40001
1.40001
1.40001
1.40001
1.40001
1.40001
1.40001
1.40001
1.40001
1.40001
1.40001
1.40001
1.40001
1.40001
1.40001
1.40001
1.40001
1.40001
1.40001
1.40001
1.40001
1.40001
1.40001
1.40001
1.40001
1.40001
1.40001
1.40001
1.40001
1.40001
1.40001
1.40001
1.40001
1.40001
1.40001
1.40001
1.40001
1.40001
1.40001
1.40001
1.40001
1.40001
1.40001
1.40001
1.40001
1.40001
1.40001
1.40001
1.40001
1.40001
1.40001
1.40001
1.40001
1.40001
1.40001
1.40001
1.40001
1.40001
1.40001
1.40001
1.40001
1.40001
1.40001
1.40001
1.40001
1.40001
1.40001
1.40001
1.40001
1.40001
1.40001
1.40001
1.40001
1.40001
1.34289
0.526603
0.186379
0.169273
0.215973
0.300023
0.379553
0.474114
0.595476
0.716959
0.796083
0.848968
0.8891
0.927396
0.969544
1.02724
1.05262
1.04375
1.03442
1.03585
1.03827
1.03906
1.0475
1.06101
1.06891
1.07644
1.08777
1.09396
1.09641
1.09198
1.23043
2.45661
2.96142
3.01612
3.06173
3.08545
3.08162
3.06307
3.04995
3.04562
3.04843
3.0492
3.0307
2.99254
2.94969
2.91356
2.88706
2.87036
2.8572
2.83472
2.79644
2.75337
2.71571
2.68836
2.67481
2.66495
2.63706
2.59877
2.55215
2.50599
2.47147
2.44466
2.42801
2.41611
2.40221
2.37886
2.34802
2.29991
2.24871
2.21822
2.19665
2.18026
2.17115
2.16086
2.14272
2.11908
2.08501
2.04031
2.00788
1.98955
1.97584
1.96817
1.96007
1.94327
1.91804
1.87602
1.82723
1.79748
1.78114
1.7695
1.76451
1.76438
1.75558
1.74002
1.71374
1.65515
1.96446
1.26296
0.851945
0.617691
0.618629
0.606418
0.553682
0.547004
0.555344
0.598162
0.668718
0.723495
0.778767
0.836008
0.893554
0.960721
1.0254
1.03037
1.02965
1.03995
1.06009
1.06975
1.07836
1.08638
1.0869
1.09
1.10156
1.10969
1.11117
1.1078
1.17294
2.41234
3.08897
3.10732
3.12448
3.1437
3.1442
3.11091
3.07446
3.04982
3.03928
3.04016
3.04292
3.02835
2.9887
2.94393
2.90636
2.87864
2.86219
2.8508
2.82932
2.79063
2.74648
2.70541
2.67162
2.64559
2.62715
2.60566
2.57834
2.54744
2.51157
2.47449
2.44148
2.41433
2.38785
2.36495
2.34114
2.31285
2.28545
2.25274
2.2219
2.1965
2.17496
2.15213
2.13101
2.11197
2.08806
2.06044
2.03118
2.00393
1.98388
1.96832
1.95162
1.93475
1.91429
1.8853
1.85156
1.8185
1.79262
1.77651
1.76437
1.75243
1.74267
1.72924
1.71118
1.66975
2.48598
1.80982
1.42776
1.13526
0.972926
0.890087
0.762541
0.670792
0.662955
0.655984
0.670466
0.719516
0.775613
0.817806
0.860294
0.912816
0.985056
1.03456
1.06181
1.09033
1.12534
1.13883
1.13964
1.14569
1.14983
1.15338
1.15475
1.15065
1.14281
1.14862
1.24207
2.38213
3.3614
3.35218
3.26661
3.25019
3.27097
3.26551
3.24343
3.2109
3.1744
3.14311
3.12731
3.11469
3.09046
3.05444
3.01135
2.96831
2.93275
2.90713
2.89005
2.86951
2.83903
2.80013
2.74779
2.68434
2.63784
2.61114
2.59782
2.59341
2.58
2.55248
2.51236
2.45383
2.39389
2.35594
2.33136
2.31922
2.31634
2.30376
2.28164
2.24933
2.20303
2.15939
2.1293
2.10426
2.08628
2.07658
2.06295
2.04305
2.0133
1.97872
1.95191
1.92837
1.90547
1.88861
1.87312
1.85525
1.83038
1.79931
1.77089
1.74898
1.72993
1.71313
1.69922
1.6788
2.81757
2.26941
1.86948
1.54954
1.32706
1.18949
1.059
0.934524
0.888739
0.850922
0.794848
0.782618
0.779491
0.781835
0.79382
0.821985
0.876573
0.953653
1.01281
1.04933
1.09012
1.12535
1.13597
1.15493
1.18937
1.21212
1.21191
1.2021
1.19344
1.26142
1.54371
2.18139
3.34374
3.60451
3.5155
3.42953
3.38737
3.37772
3.36386
3.34945
3.31472
3.26237
3.22711
3.19703
3.17279
3.14958
3.11808
3.07883
3.03049
2.98394
2.9508
2.92519
2.90245
2.87226
2.83523
2.78577
2.72436
2.67762
2.65339
2.63956
2.6292
2.60727
2.5749
2.52641
2.46113
2.40217
2.37163
2.35589
2.3508
2.34519
2.32786
2.30263
2.26092
2.20308
2.15176
2.12389
2.10789
2.09882
2.09182
2.07753
2.05565
2.01586
1.96546
1.93214
1.91438
1.90212
1.8936
1.88276
1.867
1.84198
1.79945
1.75532
1.72772
1.7099
1.70016
1.68729
3.03801
2.59656
2.22584
1.88678
1.65807
1.47204
1.30685
1.18059
1.07746
1.00858
0.954288
0.907157
0.872064
0.839679
0.815336
0.814086
0.820771
0.844227
0.888988
0.930837
0.980547
1.04856
1.09487
1.1277
1.16184
1.20058
1.2033
1.21152
1.2761
1.59292
2.04796
2.21715
2.72097
3.3206
3.55099
3.54288
3.4952
3.45847
3.43902
3.42644
3.4083
3.35676
3.29622
3.25583
3.22468
3.20692
3.19397
3.1647
3.12499
3.07041
3.01411
2.97899
2.95148
2.9257
2.89633
2.86318
2.82102
2.76745
2.71894
2.6904
2.66577
2.63828
2.60626
2.57018
2.5302
2.48511
2.4418
2.41566
2.39743
2.38004
2.35875
2.33156
2.29698
2.25587
2.21227
2.17432
2.15073
2.13454
2.12003
2.10372
2.08228
2.04888
2.00337
1.9657
1.94465
1.93013
1.91818
1.90607
1.89156
1.87111
1.8331
1.78214
1.74327
1.72462
1.7165
1.70348
3.19328
2.81101
2.47682
2.17635
1.92087
1.71643
1.54043
1.41384
1.30116
1.17675
1.11291
1.05885
1.01238
0.980228
0.935383
0.883726
0.860132
0.86158
0.857441
0.859336
0.874796
0.913749
0.97217
1.01998
1.06923
1.13719
1.16231
1.23744
1.57271
1.99181
2.28983
2.31484
2.37935
2.66374
3.16204
3.45082
3.49363
3.50133
3.48095
3.45985
3.43446
3.39298
3.32691
3.27345
3.24036
3.22058
3.21546
3.19813
3.16653
3.12179
3.05775
3.00212
2.97106
2.94669
2.92756
2.90615
2.87579
2.83266
2.773
2.7178
2.68336
2.65746
2.63332
2.61027
2.58665
2.55827
2.51806
2.46691
2.4274
2.40118
2.3757
2.34863
2.3228
2.30009
2.27585
2.24314
2.20139
2.16588
2.14249
2.12063
2.09583
2.06841
2.04167
2.0154
1.98605
1.95939
1.94228
1.92834
1.91034
1.88301
1.84868
1.81479
1.7842
1.75615
1.74097
1.72182
3.31914
2.98226
2.65983
2.39042
2.15297
1.94145
1.74387
1.60188
1.49015
1.37781
1.2882
1.21468
1.12873
1.08047
1.0458
0.994852
0.928139
0.896431
0.888618
0.880686
0.881604
0.887698
0.89825
0.908982
0.936053
0.994249
1.09661
1.4181
1.90352
2.13781
2.27223
2.30601
2.30318
2.34144
2.55779
3.012
3.3552
3.45023
3.48829
3.46989
3.43184
3.40045
3.35772
3.3041
3.25642
3.22633
3.21264
3.205
3.17904
3.14533
3.09601
3.02782
2.97592
2.94812
2.93044
2.91678
2.8914
2.86029
2.81312
2.74749
2.69631
2.6693
2.64884
2.6334
2.61627
2.59339
2.56305
2.5121
2.44828
2.40527
2.38028
2.36137
2.34543
2.33334
2.318
2.29548
2.25514
2.19647
2.15153
2.12435
2.10287
2.08512
2.06982
2.05393
2.03194
1.99916
1.96231
1.9307
1.90331
1.87873
1.85912
1.8429
1.82549
1.80186
1.775
1.74383
3.41158
3.10652
2.81461
2.56797
2.33532
2.11647
1.94137
1.79184
1.65228
1.5313
1.44724
1.37093
1.28019
1.1958
1.15778
1.12423
1.06248
0.989562
0.972192
0.962003
0.938617
0.92329
0.912152
0.894022
0.89379
0.928557
1.18474
1.69254
1.91969
2.04088
2.10018
2.15022
2.18889
2.23348
2.29147
2.46806
2.88847
3.26034
3.43286
3.45345
3.42273
3.39198
3.36853
3.34268
3.29778
3.24246
3.20753
3.18304
3.17103
3.14676
3.11391
3.06627
3.00243
2.95273
2.92465
2.90303
2.88854
2.86575
2.83583
2.79155
2.73093
2.68192
2.655
2.63555
2.62167
2.60122
2.57488
2.53765
2.48179
2.42326
2.39269
2.37646
2.36866
2.36181
2.3429
2.3188
2.28068
2.22232
2.16195
2.12858
2.11108
2.0977
2.0865
2.07375
2.05829
2.03056
1.97953
1.92849
1.89866
1.88254
1.87082
1.86094
1.84955
1.83437
1.81419
1.76695
3.48477
3.20665
2.94593
2.71707
2.49248
2.2724
2.1111
1.96056
1.8174
1.68452
1.59026
1.49994
1.42051
1.33269
1.26243
1.22091
1.18174
1.12527
1.05501
1.02276
1.00544
0.974504
0.94412
0.920066
0.947599
1.15324
1.55608
1.83613
1.87171
1.86287
1.87097
1.91533
1.98696
2.05766
2.10986
2.18492
2.35378
2.70983
3.16842
3.34209
3.37775
3.37467
3.3678
3.36155
3.33531
3.28348
3.20996
3.16659
3.14198
3.12794
3.11273
3.08614
3.04631
2.9857
2.93018
2.89914
2.87457
2.8561
2.83786
2.81112
2.77126
2.71298
2.66207
2.63058
2.60534
2.58406
2.56353
2.54129
2.51144
2.4672
2.41999
2.38964
2.36826
2.34671
2.32522
2.30277
2.27831
2.24327
2.19575
2.14927
2.12335
2.10903
2.1005
2.08925
2.07055
2.04075
1.98906
1.93369
1.90566
1.89247
1.88334
1.87912
1.87267
1.86088
1.84312
1.78528
3.54252
3.29259
3.05619
2.84135
2.62197
2.42198
2.25859
2.10917
1.95533
1.83299
1.72751
1.62193
1.53727
1.47109
1.39363
1.30625
1.26646
1.23745
1.18188
1.11371
1.08313
1.05495
1.02602
1.04521
1.21471
1.60114
1.89176
1.88503
1.86268
1.83114
1.81656
1.81847
1.83155
1.85761
1.89767
1.94339
2.00062
2.11901
2.43129
2.89253
3.20457
3.2984
3.36118
3.38228
3.35614
3.31718
3.24615
3.16335
3.12407
3.10281
3.09669
3.08875
3.06478
3.02591
2.96145
2.89959
2.86737
2.84471
2.82724
2.80773
2.78173
2.7417
2.68205
2.62854
2.59743
2.5745
2.55449
2.53613
2.51672
2.49271
2.45389
2.40356
2.36489
2.33749
2.31375
2.29025
2.268
2.24798
2.22404
2.18905
2.14774
2.11653
2.09336
2.07233
2.05072
2.02553
1.99443
1.96343
1.93724
1.91491
1.89861
1.88451
1.87088
1.8556
1.83771
1.78762
3.59694
3.36929
3.15076
2.94776
2.74077
2.55304
2.38855
2.23477
2.08333
1.9664
1.85946
1.74885
1.64017
1.57671
1.51479
1.4301
1.3477
1.31434
1.28139
1.22723
1.16546
1.12516
1.14363
1.31834
1.68282
1.98849
2.00313
1.96663
1.92775
1.90298
1.87079
1.83978
1.82801
1.82542
1.82925
1.83924
1.85038
1.85213
1.88693
2.07759
2.51009
2.96549
3.2085
3.32222
3.35738
3.33296
3.28245
3.19834
3.12056
3.08975
3.07158
3.07531
3.06408
3.03728
2.9959
2.92944
2.86924
2.836
2.8117
2.79196
2.77143
2.74546
2.70645
2.65349
2.6046
2.57341
2.55185
2.53348
2.51771
2.49834
2.46735
2.41979
2.3693
2.33282
2.30561
2.28297
2.26488
2.24943
2.23396
2.2105
2.17228
2.12738
2.0919
2.06558
2.04098
2.01562
1.99864
1.98647
1.9701
1.94455
1.91527
1.89072
1.86871
1.84402
1.81934
1.77835
3.65378
3.43796
3.23644
3.04056
2.84011
2.66666
2.51031
2.35171
2.20233
2.08576
1.97591
1.86918
1.75943
1.67815
1.60717
1.54001
1.46451
1.39645
1.35384
1.31089
1.25982
1.28038
1.48186
1.86252
2.12739
2.14832
2.1013
2.05545
2.03335
2.0126
1.98033
1.93346
1.88627
1.85485
1.83851
1.82928
1.82497
1.82952
1.81968
1.80879
1.869
2.14358
2.6279
3.01087
3.23451
3.29402
3.2899
3.24026
3.16234
3.0924
3.0631
3.04412
3.04084
3.03044
3.00341
2.96036
2.89418
2.83587
2.80279
2.77808
2.75614
2.73517
2.71213
2.67958
2.63303
2.58893
2.55756
2.5318
2.50535
2.47749
2.45155
2.42222
2.38079
2.33987
2.31208
2.29144
2.27134
2.24962
2.22724
2.20649
2.18132
2.14235
2.09847
2.06277
2.0375
2.02098
2.00957
1.9976
1.98319
1.96099
1.92821
1.89326
1.86394
1.83572
1.80958
1.77426
3.70022
3.49691
3.30716
3.11797
2.93145
2.76964
2.61244
2.44937
2.31762
2.2019
2.08519
1.96194
1.86902
1.78787
1.70205
1.62416
1.5629
1.49945
1.43576
1.38157
1.41346
1.65264
2.08484
2.32495
2.31367
2.25456
2.19227
2.15977
2.13833
2.11039
2.07832
2.03617
1.97595
1.93417
1.9069
1.88121
1.85684
1.83984
1.82737
1.81952
1.79589
1.78733
1.88247
2.21889
2.69274
3.03245
3.20209
3.23995
3.21522
3.14606
3.07713
3.03907
3.01676
3.00096
2.98837
2.96404
2.92254
2.86156
2.80672
2.77351
2.7502
2.73012
2.70997
2.6874
2.65457
2.60953
2.56721
2.53273
2.50159
2.47295
2.4453
2.41607
2.38424
2.35083
2.32365
2.30167
2.27967
2.2558
2.23026
2.20239
2.17177
2.14067
2.1043
2.07089
2.05178
2.03788
2.02259
2.00464
1.98478
1.96408
1.93496
1.89651
1.86007
1.82932
1.80708
1.78291
3.75188
3.56193
3.37923
3.19485
3.02147
2.86492
2.70916
2.55002
2.42215
2.30204
2.18404
2.06197
1.9711
1.88571
1.80036
1.71152
1.6438
1.58671
1.52694
1.56267
1.81506
2.25102
2.5109
2.49901
2.43338
2.35746
2.29487
2.2654
2.2376
2.20893
2.18007
2.14593
2.09816
2.0358
1.9855
1.95129
1.92279
1.89493
1.87063
1.85099
1.83036
1.80158
1.75894
1.76595
1.90702
2.29693
2.72719
3.06436
3.15407
3.17681
3.13132
3.06355
3.01782
2.98655
2.96072
2.94214
2.92091
2.88613
2.83787
2.79315
2.7596
2.73402
2.711
2.68713
2.65835
2.61808
2.57271
2.53642
2.50827
2.48215
2.45468
2.42516
2.39274
2.35861
2.32862
2.30381
2.2821
2.26084
2.23617
2.20612
2.1732
2.138
2.10362
2.07945
2.06451
2.04968
2.03196
2.01053
1.98574
1.95502
1.91714
1.87922
1.84902
1.8291
1.8196
1.80032
3.80733
3.62789
3.44967
3.26959
3.1078
2.95466
2.79628
2.64452
2.52083
2.39888
2.27275
2.15891
2.06853
1.97812
1.89218
1.79875
1.72764
1.67581
1.73351
2.03014
2.43077
2.66758
2.6668
2.61253
2.55322
2.48689
2.41329
2.36811
2.33449
2.3031
2.27053
2.2347
2.19491
2.14537
2.08333
2.02762
1.99135
1.96221
1.93444
1.90674
1.88045
1.85153
1.81522
1.75869
1.73678
1.76231
1.95628
2.37855
2.78355
3.04493
3.10067
3.10755
3.06409
2.9972
2.95087
2.92464
2.90294
2.88351
2.86076
2.82663
2.7857
2.74968
2.71992
2.69127
2.65838
2.61622
2.56931
2.53636
2.51481
2.49486
2.47359
2.4483
2.41472
2.36653
2.31869
2.29635
2.28014
2.262
2.24104
2.21748
2.18954
2.15177
2.11153
2.08865
2.07349
2.05658
2.03644
2.01188
1.98635
1.95518
1.91263
1.86712
1.84435
1.83455
1.82941
1.81164
3.8662
3.69303
3.51783
3.3484
3.19146
3.03704
2.87922
2.74011
2.61378
2.48997
2.36001
2.25907
2.16377
2.07242
1.9639
1.88417
1.83818
1.93931
2.32454
2.73431
2.84049
2.81124
2.74705
2.70647
2.67314
2.62399
2.55307
2.47593
2.43021
2.39506
2.3601
2.32398
2.28634
2.24322
2.18705
2.12166
2.06929
2.03271
2.00111
1.97162
1.94133
1.9095
1.87342
1.8276
1.77005
1.73175
1.73125
1.78061
2.01922
2.42471
2.80424
3.0037
3.06054
3.03659
2.96033
2.93026
2.90996
2.88896
2.86695
2.84023
2.80503
2.76853
2.73667
2.70612
2.67129
2.62529
2.57157
2.53578
2.51694
2.50027
2.48314
2.46363
2.43629
2.38727
2.32573
2.28606
2.26454
2.24811
2.23429
2.22082
2.20334
2.17516
2.13097
2.08161
2.04761
2.03009
2.01732
2.00531
1.98777
1.95967
1.91645
1.87064
1.85152
1.84112
1.83313
1.8139
3.93665
3.76497
3.59218
3.42956
3.27347
3.11698
2.96479
2.83377
2.70546
2.57765
2.45379
2.35352
2.25463
2.14819
2.05237
2.0134
2.15621
2.59841
3.0445
3.11952
3.02203
2.9061
2.84665
2.82155
2.7968
2.74956
2.68718
2.60397
2.53118
2.48585
2.44676
2.40872
2.36931
2.32645
2.27654
2.21416
2.14748
2.09847
2.06274
2.03076
1.9999
1.97108
1.94052
1.90474
1.85591
1.79665
1.7399
1.72791
1.73248
1.79947
2.0642
2.44912
2.82121
2.96325
2.95522
2.95927
2.93985
2.90789
2.88385
2.85094
2.81244
2.77575
2.7435
2.71435
2.68251
2.64326
2.59805
2.5543
2.51912
2.4962
2.47881
2.4641
2.44412
2.40588
2.34558
2.28763
2.25924
2.24277
2.22789
2.21322
2.1975
2.18009
2.14583
2.0848
2.03917
2.01871
2.00462
1.98976
1.97297
1.95413
1.92792
1.89032
1.86393
1.85393
1.84708
1.82745
3.99501
3.8232
3.65932
3.50371
3.34823
3.1902
3.05249
2.9233
2.79473
2.66257
2.54537
2.44348
2.33577
2.22751
2.2271
2.44236
2.87546
3.26828
3.37351
3.29968
3.17236
3.04676
2.97913
2.94346
2.90638
2.85443
2.79622
2.7285
2.64909
2.58109
2.53114
2.48751
2.44462
2.40139
2.35708
2.30662
2.24321
2.17626
2.12504
2.08692
2.0532
2.02241
1.99292
1.96303
1.92713
1.88078
1.82367
1.77445
1.73102
1.72099
1.72977
1.81636
2.08436
2.46309
2.75398
2.89623
2.92177
2.93133
2.91273
2.8758
2.83955
2.79339
2.7442
2.70843
2.67868
2.65009
2.61891
2.5824
2.54471
2.50998
2.47746
2.44809
2.42457
2.40207
2.36265
2.31452
2.27269
2.24345
2.22355
2.20847
2.19737
2.1832
2.15515
2.10339
2.04891
2.01628
1.99712
1.98151
1.96833
1.95643
1.94246
1.92077
1.88943
1.85326
1.83377
1.81162
4.05467
3.89028
3.73337
3.58042
3.42526
3.27417
3.14324
3.01073
2.87864
2.74934
2.63231
2.52804
2.42241
2.46862
2.80405
3.27242
3.5021
3.55388
3.4986
3.40791
3.32005
3.21885
3.12116
3.05902
3.00849
2.95699
2.90337
2.84521
2.77266
2.68672
2.61501
2.56325
2.51841
2.47477
2.43182
2.38635
2.33199
2.26581
2.20042
2.14903
2.10762
2.07108
2.03771
2.00665
1.97696
1.94338
1.90014
1.84835
1.7956
1.755
1.7189
1.70866
1.7212
1.82618
2.09143
2.46046
2.69427
2.84929
2.89116
2.89514
2.87667
2.82494
2.76199
2.70942
2.67403
2.64765
2.62498
2.60154
2.57434
2.53983
2.49753
2.45266
2.41228
2.37895
2.35555
2.32885
2.29698
2.26811
2.24136
2.21253
2.179
2.14895
2.12716
2.10557
2.0724
2.03388
2.00278
1.9828
1.96944
1.95965
1.9496
1.93555
1.90944
1.8644
1.83274
1.80527
4.13026
3.9683
3.81511
3.66289
3.50586
3.36339
3.2289
3.09499
2.9597
2.82551
2.72428
2.63622
2.75206
3.18745
3.74745
3.82998
3.76817
3.66554
3.58891
3.54119
3.4744
3.37867
3.25928
3.1742
3.11968
3.06886
3.01384
2.95325
2.88118
2.79171
2.70389
2.64072
2.592
2.54612
2.50106
2.45499
2.40463
2.34616
2.28318
2.22671
2.17942
2.13732
2.09792
2.06004
2.02299
1.98511
1.94715
1.90424
1.86071
1.81789
1.77641
1.73929
1.70702
1.69048
1.70618
1.81428
2.07771
2.40755
2.6684
2.79598
2.83904
2.8303
2.79087
2.73235
2.67835
2.63865
2.62129
2.60694
2.58493
2.55809
2.52741
2.48508
2.42708
2.37415
2.34046
2.31872
2.30209
2.28613
2.26639
2.23241
2.18269
2.13993
2.11341
2.09561
2.07914
2.05698
2.03
2.00602
1.98605
1.96749
1.95271
1.94101
1.91947
1.88046
1.84364
1.8064
4.20656
4.04482
3.89028
3.73533
3.58207
3.44931
3.30726
3.16909
3.02836
2.92017
2.89105
3.10186
3.58876
4.05416
4.19926
4.08338
3.90835
3.7904
3.73434
3.69815
3.62862
3.52829
3.40166
3.29926
3.2377
3.18184
3.12122
3.05492
2.98059
2.8947
2.80485
2.73096
2.67483
2.62452
2.57453
2.52357
2.4707
2.41332
2.35213
2.29478
2.24672
2.20555
2.16603
2.1245
2.07802
2.02645
1.9755
1.93029
1.8953
1.86257
1.83081
1.79701
1.75737
1.71935
1.69025
1.66087
1.67815
1.78257
2.0621
2.37456
2.64965
2.75564
2.77227
2.75327
2.70272
2.65223
2.61077
2.58633
2.57658
2.5699
2.54891
2.51257
2.45409
2.38568
2.33875
2.32192
2.3137
2.30516
2.28766
2.25603
2.20116
2.14478
2.11118
2.09544
2.0837
2.06997
2.05251
2.03174
2.00826
1.98349
1.95733
1.92732
1.89711
1.8729
1.8493
1.81279
4.24549
4.12908
3.96864
3.80955
3.66669
3.53049
3.3779
3.24706
3.12061
3.20246
3.58276
4.10882
4.35842
4.44105
4.36765
4.2323
4.08617
3.96684
3.89746
3.83622
3.75674
3.65752
3.54445
3.43318
3.35258
3.28692
3.21968
3.14922
3.07598
2.99701
2.91108
2.82791
2.76071
2.70518
2.65197
2.5981
2.54301
2.48339
2.41798
2.3539
2.30077
2.25776
2.21875
2.18029
2.13804
2.08904
2.03291
1.97198
1.91654
1.87592
1.84719
1.82188
1.79561
1.76506
1.72311
1.6819
1.64815
1.61794
1.64287
1.76576
2.04208
2.34384
2.58532
2.69333
2.70343
2.68133
2.63471
2.59096
2.56227
2.53964
2.51353
2.48714
2.45793
2.41213
2.37073
2.33921
2.3096
2.28063
2.25635
2.23057
2.19977
2.16667
2.13531
2.10581
2.08702
2.07365
2.06253
2.05206
2.03465
2.00278
1.96117
1.92116
1.89047
1.86623
1.8448
1.81991
4.0879
4.19264
4.06149
3.89127
3.76003
3.59832
3.46705
3.37776
3.56968
4.09828
4.66502
4.79674
4.68293
4.58424
4.48399
4.39205
4.28489
4.16743
4.06501
3.97215
3.87919
3.78334
3.68244
3.57388
3.47428
3.39305
3.31864
3.24633
3.17457
3.09841
3.01377
2.92447
2.84602
2.78379
2.72711
2.67131
2.61516
2.55431
2.48559
2.41363
2.34909
2.29616
2.25101
2.21157
2.17352
2.13064
2.07803
2.01655
1.95876
1.91213
1.8739
1.84005
1.80797
1.77668
1.74606
1.71207
1.66531
1.62006
1.5955
1.57667
1.61
1.7521
2.02445
2.31811
2.52063
2.62161
2.61728
2.59577
2.56427
2.52821
2.49692
2.46542
2.43234
2.40762
2.38526
2.35568
2.3142
2.27454
2.24429
2.22186
2.2061
2.18658
2.15627
2.11665
2.09591
2.09032
2.07677
2.05195
2.02221
1.99226
1.95504
1.91442
1.88426
1.86362
1.85367
1.85883
3.19966
4.12196
4.12027
3.99115
3.83593
3.67119
3.70721
4.08177
4.67431
5.06331
5.19958
5.07844
4.88132
4.72077
4.6323
4.56715
4.46919
4.34963
4.22867
4.11986
4.02268
3.92766
3.82775
3.71935
3.60895
3.51052
3.42495
3.34647
3.27073
3.19138
3.10431
3.01284
2.92837
2.85789
2.79358
2.73284
2.67292
2.60881
2.53799
2.46446
2.39699
2.34021
2.29046
2.2445
2.19882
2.15208
2.10225
2.04485
1.98506
1.93417
1.89604
1.86421
1.83378
1.803
1.77142
1.73179
1.6874
1.64485
1.59923
1.56022
1.54325
1.53263
1.57582
1.74437
1.9992
2.28264
2.42148
2.51091
2.51411
2.49821
2.46618
2.45172
2.43642
2.41446
2.38706
2.35146
2.30998
2.27281
2.24427
2.2202
2.19616
2.17403
2.15477
2.13347
2.10954
2.08017
2.05477
2.03055
2.00613
1.97946
1.95133
1.91876
1.89235
1.88354
1.89674
2.03344
1.90489
3.48227
4.11251
4.0526
3.91477
4.10045
4.75599
5.42171
5.49159
5.43431
5.39207
5.26466
5.0992
4.93401
4.83347
4.75493
4.65255
4.52871
4.40694
4.29514
4.18619
4.07714
3.9658
3.8506
3.73373
3.6235
3.52353
3.43132
3.34397
3.25899
3.17319
3.08737
3.00474
2.92735
2.85411
2.78517
2.71732
2.64679
2.57384
2.50109
2.43297
2.37329
2.32144
2.27532
2.22997
2.18187
2.12697
2.06538
2.00629
1.9555
1.91278
1.87409
1.83885
1.80577
1.77167
1.73485
1.69537
1.65059
1.60567
1.57007
1.54011
1.51898
1.5034
1.49759
1.54389
1.70801
1.96655
2.23021
2.3795
2.401
2.415
2.4079
2.38997
2.3662
2.33578
2.30376
2.27598
2.24738
2.22156
2.20123
2.18342
2.17034
2.15643
2.13186
2.08757
2.04059
2.01146
1.99235
1.97643
1.96075
1.95473
1.94819
1.96049
2.02151
2.15759
2.45257
1.43474
2.16633
3.6915
3.99535
4.57759
5.50427
6.05891
6.06065
5.8139
5.62054
5.52244
5.43585
5.29088
5.12431
5.00643
4.91204
4.80611
4.67978
4.54698
4.42687
4.3111
4.1943
4.07805
3.96204
3.84065
3.72111
3.61047
3.50942
3.41506
3.32539
3.23911
3.15415
3.06907
2.98564
2.91738
2.85066
2.78063
2.70842
2.63484
2.56117
2.49131
2.42903
2.37367
2.32287
2.27266
2.22071
2.16436
2.10531
2.04895
1.99763
1.95169
1.90851
1.86793
1.8298
1.78949
1.74432
1.69441
1.64917
1.61342
1.58866
1.5642
1.53916
1.49819
1.46669
1.43396
1.43847
1.50315
1.67582
1.94212
2.1642
2.31886
2.35581
2.34875
2.33024
2.30283
2.27249
2.24229
2.20483
2.17805
2.17084
2.17029
2.16544
2.15141
2.12386
2.07589
2.01805
1.98488
1.97295
1.97122
1.97043
2.00089
2.1016
2.27094
2.48452
2.66209
2.80382
1.40052
1.48057
2.37237
4.1723
6.24165
6.47426
6.39035
6.17487
5.93046
5.76173
5.65982
5.57026
5.42417
5.2613
5.14391
5.04528
4.93703
4.81245
4.67027
4.51886
4.38972
4.28153
4.17542
4.05879
3.92891
3.79463
3.67533
3.5676
3.46772
3.37173
3.27814
3.18277
3.08573
2.99051
2.9004
2.81774
2.73988
2.6648
2.59235
2.52209
2.45556
2.39436
2.33664
2.28103
2.22711
2.17647
2.12675
2.0761
2.02502
1.97507
1.92862
1.88565
1.84143
1.7956
1.75374
1.71662
1.67803
1.64331
1.61566
1.58968
1.5592
1.52683
1.49074
1.45639
1.42117
1.39614
1.38415
1.39743
1.49023
1.68497
1.94595
2.12696
2.25224
2.28045
2.27913
2.26741
2.23411
2.192
2.1643
2.13964
2.12131
2.11059
2.0961
2.07336
2.0436
2.00524
1.98081
1.98065
2.00584
2.11635
2.33337
2.58494
2.77776
2.89877
2.90214
2.87029
1.40001
1.40137
1.56509
4.77456
6.81519
6.41
6.16429
6.00512
5.85833
5.75477
5.67905
5.58946
5.43699
5.27639
5.16093
5.05606
4.93922
4.81168
4.67226
4.52588
4.38362
4.25347
4.1326
4.02847
3.94199
3.84777
3.73716
3.62508
3.51808
3.41584
3.31576
3.21366
3.10607
2.99935
2.89727
2.80505
2.7227
2.64674
2.57579
2.50874
2.44459
2.383
2.32399
2.26686
2.21212
2.16293
2.1195
2.07864
2.03401
1.98374
1.93286
1.88345
1.83709
1.78636
1.73985
1.70796
1.68435
1.65906
1.63233
1.60282
1.56853
1.53032
1.49155
1.45405
1.42023
1.39017
1.36466
1.34888
1.34904
1.37624
1.49683
1.70439
1.95065
2.06596
2.1602
2.20434
2.20055
2.18984
2.1639
2.12513
2.09224
2.07054
2.05344
2.04225
2.02528
2.01549
2.03901
2.14347
2.34414
2.61543
2.83844
2.97599
3.01306
3.00027
2.95372
2.87436
1.40001
1.40001
1.77763
4.84218
6.06959
5.81131
5.73568
5.69845
5.66454
5.62333
5.56493
5.44979
5.29707
5.16375
5.0643
4.97258
4.86493
4.73808
4.59906
4.46212
4.32882
4.20079
4.07767
3.96322
3.85313
3.74406
3.63477
3.52498
3.41887
3.31735
3.21808
3.12111
3.02664
2.93354
2.84158
2.75324
2.6709
2.5942
2.52374
2.45941
2.40084
2.34743
2.29814
2.2495
2.19742
2.14066
2.0811
2.02495
1.97683
1.93435
1.89554
1.85796