/*--------------------------------*- C++ -*----------------------------------*\
  =========                 |
  \\      /  F ield         | OpenFOAM: The Open Source CFD Toolbox
   \\    /   O peration     | Website:  https://openfoam.org
    \\  /    A nd           | Version:  7
     \\/     M anipulation  |
\*---------------------------------------------------------------------------*/
FoamFile
{
    version     2.0;
    format      ascii;
    class       volVectorField;
    location    "3.3";
    object      U;
}
// * * * * * * * * * * * * * * * * * * * * * * * * * * * * * * * * * * * * * //

dimensions      [0 1 -1 0 0 0 0];

internalField   nonuniform List<vector> 
4032
(
(3 -4.35119e-18 0)
(3 -1.5115e-20 0)
(3 -4.16294e-17 0)
(3 2.7337e-16 0)
(3 2.51793e-16 0)
(3 -6.71982e-17 0)
(3 -4.5339e-16 0)
(3 -4.76654e-16 0)
(3 -3.83972e-16 0)
(3 -2.53158e-16 0)
(3 -7.60329e-16 0)
(2.96208 0.00228229 0)
(1.03157 0.0179824 0)
(0.708361 0.0188518 0)
(0.65574 0.0226194 0)
(0.597136 0.0242231 0)
(0.538108 0.0258387 0)
(0.476701 0.0275703 0)
(0.413041 0.0290673 0)
(0.347344 0.03043 0)
(0.27954 0.0321886 0)
(0.207567 0.0354892 0)
(0.129685 0.0382584 0)
(0.048565 0.0437952 0)
(3 -1.21893e-16 0)
(3 -3.19058e-16 0)
(3 -8.95621e-17 0)
(3 3.66746e-16 0)
(3 9.09952e-16 0)
(3 5.86408e-16 0)
(3 1.67167e-16 0)
(3 -4.55771e-16 0)
(3 -5.69574e-16 0)
(3 -4.26942e-16 0)
(3 -1.61652e-15 0)
(2.97028 0.0190928 0)
(1.04185 0.0793689 0)
(0.702982 0.0672725 0)
(0.649739 0.0707717 0)
(0.592358 0.0757794 0)
(0.533746 0.0809401 0)
(0.472536 0.0866462 0)
(0.408615 0.0917963 0)
(0.342053 0.0965931 0)
(0.273017 0.101865 0)
(0.200629 0.111225 0)
(0.12321 0.118733 0)
(0.0453936 0.132707 0)
(3 -4.18346e-16 0)
(3 -4.59846e-16 0)
(3 -2.85445e-16 0)
(3 3.13644e-17 0)
(3 1.94955e-16 0)
(3 5.13264e-16 0)
(3 7.23484e-16 0)
(3 1.22534e-16 0)
(3 -7.13524e-16 0)
(3 -1.08267e-15 0)
(3 -1.68491e-15 0)
(3.00307 0.00440901 0)
(1.10306 0.131656 0)
(0.727539 0.109419 0)
(0.672331 0.116998 0)
(0.61352 0.125651 0)
(0.553764 0.134273 0)
(0.492303 0.143879 0)
(0.428196 0.153019 0)
(0.360697 0.162123 0)
(0.289122 0.171592 0)
(0.213269 0.187253 0)
(0.130321 0.199037 0)
(0.0483223 0.219142 0)
(3 -2.48341e-17 0)
(3 4.09616e-16 0)
(3 3.33082e-16 0)
(3 2.48418e-16 0)
(3 -6.98028e-17 0)
(3 -5.78108e-17 0)
(3 4.498e-16 0)
(3 9.56018e-16 0)
(3 6.56454e-16 0)
(3 -3.3692e-16 0)
(3 -8.99879e-16 0)
(3.00031 2.40419e-05 0)
(1.19186 0.176883 0)
(0.737576 0.154022 0)
(0.679676 0.166323 0)
(0.622188 0.178012 0)
(0.563303 0.189218 0)
(0.503002 0.202562 0)
(0.439149 0.216551 0)
(0.370377 0.231876 0)
(0.295823 0.247044 0)
(0.217733 0.270011 0)
(0.13214 0.287014 0)
(0.0477914 0.311833 0)
(3 2.48862e-16 0)
(3 8.90076e-17 0)
(3 -6.25971e-17 0)
(3 -3.57756e-16 0)
(3 -4.22205e-16 0)
(3 -6.43023e-16 0)
(3 -6.86957e-16 0)
(3 -8.06057e-17 0)
(3 2.51522e-16 0)
(3 1.18381e-16 0)
(3 -1.07588e-15 0)
(3 -6.54391e-08 0)
(1.33334 0.227267 0)
(0.75071 0.20154 0)
(0.683926 0.21379 0)
(0.629737 0.227966 0)
(0.573908 0.241818 0)
(0.517312 0.259443 0)
(0.457056 0.279282 0)
(0.391974 0.302132 0)
(0.319417 0.323398 0)
(0.2421 0.35391 0)
(0.150841 0.378989 0)
(0.0573958 0.41137 0)
(3 2.43119e-16 0)
(3 5.73633e-17 0)
(3 -2.42816e-17 0)
(3 -7.65013e-17 0)
(3 -1.54115e-16 0)
(3 -6.79522e-16 0)
(3 -1.13442e-15 0)
(3 -1.17252e-15 0)
(3 -1.07308e-15 0)
(3 -1.12915e-15 0)
(3 -9.27286e-16 0)
(3 -3.86182e-08 0)
(1.54804 0.277476 0)
(0.774087 0.258103 0)
(0.687131 0.261761 0)
(0.634135 0.275476 0)
(0.582008 0.290929 0)
(0.531724 0.312402 0)
(0.478139 0.338074 0)
(0.418731 0.370249 0)
(0.345746 0.402925 0)
(0.263825 0.448123 0)
(0.16441 0.491037 0)
(0.0563079 0.53228 0)
(3 -1.20312e-16 0)
(3 -3.11812e-17 0)
(3 2.29841e-17 0)
(3 2.372e-16 0)
(3 1.12791e-16 0)
(3 -1.5213e-17 0)
(3 -2.28591e-16 0)
(3 -7.33767e-16 0)
(3 -1.01711e-15 0)
(3 -1.31778e-15 0)
(3 -7.36938e-16 0)
(3 -7.59376e-09 0)
(1.85777 0.32916 0)
(0.81206 0.330358 0)
(0.693094 0.318764 0)
(0.63798 0.325736 0)
(0.587188 0.339394 0)
(0.541671 0.362646 0)
(0.494787 0.393776 0)
(0.446677 0.436619 0)
(0.385717 0.484827 0)
(0.318352 0.543456 0)
(0.229001 0.604549 0)
(0.099292 0.673666 0)
(3 -4.8095e-17 0)
(3 -5.01237e-17 0)
(3 -3.37055e-16 0)
(3 -4.87357e-16 0)
(3 -2.91401e-16 0)
(3 4.25884e-16 0)
(3 5.06971e-16 0)
(3 3.38506e-16 0)
(3 8.02555e-17 0)
(3 -2.63385e-16 0)
(3 -1.32411e-16 0)
(3 -7.59114e-10 0)
(2.31222 0.345057 0)
(0.892121 0.418178 0)
(0.737066 0.37832 0)
(0.681752 0.381364 0)
(0.626459 0.390217 0)
(0.578268 0.411742 0)
(0.533503 0.445267 0)
(0.491207 0.493606 0)
(0.445309 0.553268 0)
(0.384576 0.639168 0)
(0.269236 0.764631 0)
(0.149006 0.932701 0)
(3 9.03071e-17 0)
(3 1.65851e-16 0)
(3 -6.62896e-17 0)
(3 -2.67321e-16 0)
(3 -2.88787e-16 0)
(3 -8.36973e-17 0)
(3 5.57421e-16 0)
(3 7.38206e-16 0)
(3 1.00065e-15 0)
(3 1.15143e-15 0)
(3 7.22411e-16 0)
(3 -2.6663e-11 0)
(2.89148 0.189499 0)
(1.06659 0.472587 0)
(0.832414 0.410548 0)
(0.774273 0.424237 0)
(0.706551 0.440141 0)
(0.64751 0.460574 0)
(0.598253 0.493346 0)
(0.556429 0.543573 0)
(0.520104 0.619064 0)
(0.486227 0.745343 0)
(0.456473 0.923898 0)
(0.572242 1.20461 0)
(3 -1.59402e-16 0)
(3 -3.46957e-16 0)
(3 -5.96821e-17 0)
(3 4.28378e-16 0)
(3 5.24726e-16 0)
(3 3.82166e-16 0)
(3 4.54687e-16 0)
(3 2.94866e-16 0)
(3 2.68095e-16 0)
(3 -7.16337e-17 0)
(3 4.8282e-16 0)
(3 -4.12671e-13 0)
(3.04802 0.0129004 0)
(1.28141 0.45149 0)
(0.878361 0.467939 0)
(0.838927 0.496469 0)
(0.778436 0.507619 0)
(0.721222 0.522203 0)
(0.673493 0.550124 0)
(0.633004 0.596987 0)
(0.614221 0.67736 0)
(0.613283 0.810339 0)
(0.676747 0.961741 0)
(0.96541 1.13344 0)
(3 -2.714e-16 0)
(3 -4.72211e-16 0)
(3 1.28372e-16 0)
(3 1.24457e-15 0)
(3 1.42717e-15 0)
(3 1.08333e-15 0)
(3 1.14268e-16 0)
(3 1.41347e-16 0)
(3 -8.45416e-17 0)
(3 -5.47912e-16 0)
(3 -7.95431e-18 0)
(3 -2.74867e-15 0)
(3.0019 -8.03795e-06 0)
(1.56504 0.465677 0)
(0.873371 0.518477 0)
(0.836829 0.54456 0)
(0.806948 0.567371 0)
(0.776088 0.582613 0)
(0.746 0.607296 0)
(0.718107 0.645052 0)
(0.717347 0.715149 0)
(0.743305 0.828531 0)
(0.866184 0.956853 0)
(1.18347 1.06136 0)
(3 5.05657e-17 0)
(3 -1.56201e-16 0)
(3 4.93765e-17 0)
(3 4.38698e-16 0)
(3 -1.46943e-16 0)
(3 -1.15844e-16 0)
(3 2.97794e-16 0)
(3 4.3842e-16 0)
(3 3.99227e-16 0)
(3 1.06077e-15 0)
(3 1.90731e-15 0)
(3 2.54386e-15 0)
(3.00001 -2.50417e-07 0)
(2.19603 0.479359 0)
(0.954257 0.586484 0)
(0.864212 0.556666 0)
(0.858207 0.585104 0)
(0.839775 0.615512 0)
(0.822983 0.648512 0)
(0.80987 0.684063 0)
(0.819115 0.743882 0)
(0.866035 0.829662 0)
(1.00622 0.928968 0)
(1.27395 0.994048 0)
(3 1.57505e-16 0)
(3 4.33907e-16 0)
(3 3.96548e-16 0)
(3 -2.59214e-16 0)
(3 -3.94422e-16 0)
(3 -3.53827e-16 0)
(3 2.48745e-16 0)
(3 2.22799e-17 0)
(3 -1.26905e-16 0)
(3 4.98032e-16 0)
(3 1.30947e-15 0)
(3 2.23813e-15 0)
(3 -2.85351e-07 0)
(2.99668 0.175019 0)
(1.19173 0.607209 0)
(0.93923 0.566594 0)
(0.930693 0.614447 0)
(0.911812 0.64542 0)
(0.89979 0.680247 0)
(0.899249 0.716178 0)
(0.914468 0.765784 0)
(0.974457 0.831068 0)
(1.11061 0.902862 0)
(1.32298 0.946251 0)
(3 -1.73244e-16 0)
(3 1.83244e-16 0)
(3 -2.82974e-16 0)
(3 -4.6477e-16 0)
(3 -1.74808e-16 0)
(3 -7.31589e-18 0)
(3 6.35375e-17 0)
(3 -9.91575e-17 0)
(3 -9.63046e-17 0)
(3 -1.51182e-17 0)
(3 7.11879e-16 0)
(3 8.99662e-16 0)
(3 -5.93662e-08 0)
(3.04173 0.00508446 0)
(1.4646 0.593116 0)
(0.971127 0.646178 0)
(0.943048 0.659391 0)
(0.933599 0.682414 0)
(0.944112 0.713718 0)
(0.963898 0.749636 0)
(0.997048 0.786311 0)
(1.06419 0.830929 0)
(1.18452 0.87584 0)
(1.34864 0.898635 0)
(3 3.52826e-17 0)
(3 -3.8819e-16 0)
(3 -4.21399e-16 0)
(3 -6.96936e-16 0)
(3 -4.01147e-16 0)
(3 -1.20183e-17 0)
(3 -1.65252e-16 0)
(3 -8.09994e-17 0)
(3 5.04395e-16 0)
(3 1.04418e-15 0)
(3 5.9165e-16 0)
(3 3.66657e-16 0)
(3 -4.92001e-09 0)
(3.00087 -7.80745e-06 0)
(2.1401 0.577864 0)
(1.05085 0.718337 0)
(0.985942 0.680847 0)
(0.976302 0.692695 0)
(0.991475 0.71805 0)
(1.01849 0.754727 0)
(1.06451 0.793681 0)
(1.13693 0.832517 0)
(1.24227 0.864545 0)
(1.37415 0.877586 0)
(3 2.61214e-16 0)
(3 1.4976e-16 0)
(3 1.12194e-17 0)
(3 -3.83455e-16 0)
(3 -3.16967e-16 0)
(3 2.8346e-16 0)
(3 5.27003e-16 0)
(3 9.41702e-16 0)
(3 1.40438e-15 0)
(3 1.5434e-15 0)
(3 1.09038e-15 0)
(3 9.48804e-16 0)
(3 -3.10788e-11 0)
(3.00004 -1.55519e-05 0)
(3.04201 0.151959 0)
(1.33977 0.694181 0)
(1.0693 0.703231 0)
(1.06124 0.707176 0)
(1.06118 0.733231 0)
(1.07882 0.764984 0)
(1.12099 0.796152 0)
(1.1899 0.827518 0)
(1.2808 0.849172 0)
(1.39233 0.856009 0)
(3 -5.67242e-18 0)
(3 2.16573e-16 0)
(3 -1.22649e-16 0)
(3 -7.37254e-17 0)
(3 -3.13523e-16 0)
(3 -2.77613e-16 0)
(3 -1.98201e-16 0)
(3 4.20114e-16 0)
(3 6.12357e-16 0)
(3 5.29196e-16 0)
(3 8.31036e-16 0)
(3 1.09893e-15 0)
(3 -4.20189e-14 0)
(3 -3.59527e-06 0)
(3.02743 0.00201104 0)
(1.68855 0.663202 0)
(1.09503 0.761627 0)
(1.08682 0.761162 0)
(1.10095 0.772731 0)
(1.12614 0.789337 0)
(1.16735 0.80896 0)
(1.23168 0.82916 0)
(1.31075 0.843801 0)
(1.4082 0.847775 0)
(3 -4.59428e-17 0)
(3 -2.65763e-17 0)
(3 -2.4538e-16 0)
(3 1.85739e-16 0)
(3 -3.42115e-16 0)
(3 -1.04536e-15 0)
(3 -1.45899e-15 0)
(3 -1.49542e-15 0)
(3 -1.0861e-15 0)
(3 -4.74511e-16 0)
(3 1.31797e-16 0)
(3 8.9851e-16 0)
(3 3.54117e-16 0)
(3 -2.88389e-07 0)
(3.00035 1.02744e-05 0)
(2.62325 0.425686 0)
(1.24184 0.786797 0)
(1.1252 0.773646 0)
(1.14954 0.778343 0)
(1.17302 0.795238 0)
(1.20982 0.810925 0)
(1.26735 0.824739 0)
(1.33726 0.834969 0)
(1.42223 0.837148 0)
(3 -1.2096e-16 0)
(3 -2.68507e-16 0)
(3 -3.78377e-16 0)
(3 -3.61352e-16 0)
(3 -7.32582e-16 0)
(3 -8.39835e-16 0)
(3 -6.68447e-16 0)
(3 -5.43026e-16 0)
(3 -5.4631e-16 0)
(3 -5.69748e-16 0)
(3 -6.89078e-16 0)
(3 -7.45168e-16 0)
(3 -8.3858e-16 0)
(3 -1.6367e-09 0)
(3.00002 -1.01123e-05 0)
(3.06566 0.0353121 0)
(1.61846 0.752982 0)
(1.17444 0.801364 0)
(1.20139 0.801756 0)
(1.21483 0.81411 0)
(1.24844 0.823243 0)
(1.29766 0.832052 0)
(1.35926 0.837609 0)
(1.43341 0.836419 0)
(3 1.20512e-17 0)
(3 -9.74833e-17 0)
(3 6.91369e-17 0)
(3 -3.6391e-16 0)
(3 -7.96138e-16 0)
(3 -7.86232e-16 0)
(3 2.42832e-16 0)
(3 4.8615e-16 0)
(3 1.83686e-16 0)
(3 -6.99118e-16 0)
(3 -1.31339e-15 0)
(3 -1.72762e-15 0)
(3 -1.53212e-15 0)
(3 -2.60875e-12 0)
(3 -2.20029e-06 0)
(3.00366 0.000641093 0)
(2.4685 0.558395 0)
(1.29094 0.860409 0)
(1.23154 0.83915 0)
(1.25356 0.833477 0)
(1.28387 0.83396 0)
(1.32836 0.835286 0)
(1.38187 0.835423 0)
(1.44819 0.830859 0)
(3 1.0373e-16 0)
(3 1.56117e-16 0)
(3 2.72912e-16 0)
(3 3.32621e-16 0)
(3 3.38057e-16 0)
(3 3.06793e-16 0)
(3 -4.50529e-18 0)
(3 -7.27371e-16 0)
(3 -5.24966e-16 0)
(3 -5.09554e-16 0)
(3 -2.83937e-16 0)
(3 -7.32371e-16 0)
(3 -4.30941e-16 0)
(3 -1.67768e-16 0)
(3 -1.81472e-07 0)
(3.00001 1.82387e-06 0)
(3.05826 0.0688655 0)
(1.70768 0.81456 0)
(1.27842 0.846658 0)
(1.30209 0.842691 0)
(1.32484 0.842328 0)
(1.36244 0.841044 0)
(1.40871 0.83857 0)
(1.46634 0.833971 0)
(3 -3.99092e-17 0)
(3 6.34734e-17 0)
(3 2.92973e-17 0)
(3 2.96602e-16 0)
(3 6.47483e-16 0)
(3 2.81638e-16 0)
(3 -6.12244e-16 0)
(3 -1.35214e-15 0)
(3 -1.3113e-15 0)
(3 -1.41367e-15 0)
(3 -1.14867e-15 0)
(3 -1.01253e-15 0)
(3 -3.37559e-16 0)
(3 2.72404e-16 0)
(3 -1.3079e-09 0)
(3 -1.41581e-07 0)
(3.00546 0.0021757 0)
(2.61279 0.537052 0)
(1.40754 0.904608 0)
(1.33456 0.874119 0)
(1.36467 0.864959 0)
(1.39577 0.859677 0)
(1.43592 0.853412 0)
(1.48422 0.846801 0)
(3 2.01527e-17 0)
(3 1.66042e-16 0)
(3 3.34304e-16 0)
(3 1.97727e-16 0)
(3 3.39591e-16 0)
(3 3.365e-16 0)
(3 2.43614e-16 0)
(3 3.85802e-16 0)
(3 -4.38189e-16 0)
(3 -1.32009e-15 0)
(3 -1.37116e-15 0)
(3 -1.00296e-15 0)
(3 -7.81582e-16 0)
(3 -6.97841e-16 0)
(3 -2.35549e-12 0)
(3 -3.10735e-08 0)
(3.00001 1.53371e-05 0)
(3.0531 0.0502291 0)
(1.86359 0.804243 0)
(1.37995 0.890669 0)
(1.41111 0.881608 0)
(1.43821 0.873813 0)
(1.47279 0.864445 0)
(1.51115 0.856001 0)
(3 -2.71534e-17 0)
(3 -9.34983e-17 0)
(3 4.30699e-17 0)
(3 4.46074e-17 0)
(3 -1.73661e-16 0)
(3 -7.47147e-17 0)
(3 3.78714e-16 0)
(3 4.69318e-16 0)
(3 3.61229e-16 0)
(3 6.1891e-16 0)
(3 -1.63134e-16 0)
(3 -1.39087e-16 0)
(3 -6.63999e-16 0)
(3 -8.90016e-16 0)
(3 -2.02104e-15 0)
(3 -2.8253e-09 0)
(3 3.59182e-09 0)
(3.00271 0.00186744 0)
(2.7448 0.405986 0)
(1.58473 0.921603 0)
(1.42591 0.905453 0)
(1.46505 0.89928 0)
(1.4959 0.890938 0)
(1.53207 0.877598 0)
(3 -1.41688e-16 0)
(3 -2.4102e-16 0)
(3 -5.54348e-17 0)
(3 -2.01505e-16 0)
(3 -6.9535e-16 0)
(3 -9.06662e-16 0)
(3 -3.3247e-16 0)
(3 -2.3534e-16 0)
(3 1.46214e-16 0)
(3 4.79306e-16 0)
(3 3.92774e-16 0)
(3 1.69803e-16 0)
(3 -5.08956e-17 0)
(3 -2.21021e-16 0)
(3 -1.85795e-16 0)
(3 -1.01498e-10 0)
(3 -1.0006e-10 0)
(3 9.72802e-06 0)
(3.02407 0.0284119 0)
(2.16124 0.754662 0)
(1.49152 0.923103 0)
(1.49306 0.914918 0)
(1.52473 0.901378 0)
(1.55899 0.886123 0)
(3 -3.95936e-19 0)
(3 1.09411e-16 0)
(3 2.02345e-16 0)
(3 -3.06161e-16 0)
(3 -5.18238e-16 0)
(3 -5.91821e-16 0)
(3 -4.90206e-16 0)
(3 -6.88232e-16 0)
(3 -7.87816e-16 0)
(3 -7.61562e-16 0)
(3 2.38638e-16 0)
(3 4.06258e-16 0)
(3 3.30777e-16 0)
(3 4.62966e-16 0)
(3 5.12416e-16 0)
(3 -7.78752e-13 0)
(3 -3.0755e-11 0)
(3 3.96276e-09 0)
(3.00055 0.00106218 0)
(2.93043 0.214844 0)
(1.81901 0.874976 0)
(1.51952 0.930548 0)
(1.55377 0.918601 0)
(1.58809 0.90239 0)
(3 1.34962e-16 0)
(3 1.96971e-16 0)
(3 -2.36386e-16 0)
(3 -7.68718e-16 0)
(3 -3.65251e-16 0)
(3 -1.08139e-16 0)
(3 -8.97073e-16 0)
(3 -9.53594e-16 0)
(3 -6.44669e-16 0)
(3 -3.00224e-16 0)
(3 -4.29446e-16 0)
(3 -3.74323e-16 0)
(3 -9.94482e-17 0)
(3 -1.55063e-16 0)
(3 -5.84222e-17 0)
(3 -1.26191e-15 0)
(3 -3.82356e-12 0)
(3 -3.3045e-12 0)
(3 3.37436e-06 0)
(3.00638 0.0126685 0)
(2.55964 0.540139 0)
(1.66984 0.951643 0)
(1.56115 0.937938 0)
(1.5991 0.925868 0)
(3 -2.72247e-18 0)
(3 -1.14841e-16 0)
(3 -1.63471e-16 0)
(3 1.17837e-16 0)
(3 6.75986e-17 0)
(3 9.37999e-17 0)
(3 1.74431e-16 0)
(3 4.02653e-16 0)
(3 9.75271e-16 0)
(3 8.90825e-16 0)
(3 1.51118e-16 0)
(3 1.37301e-16 0)
(3 2.37618e-16 0)
(3 -2.23115e-16 0)
(3 -1.49898e-16 0)
(3 -2.07246e-16 0)
(3 -1.03193e-13 0)
(3 -1.11121e-12 0)
(3 1.47508e-09 0)
(3.00001 0.000243603 0)
(3.00093 0.0664549 0)
(2.18328 0.767104 0)
(1.62619 0.948347 0)
(1.61847 0.944766 0)
(3 1.20038e-17 0)
(3 6.73554e-17 0)
(3 4.1735e-16 0)
(3 1.15178e-15 0)
(3 1.21561e-15 0)
(3 1.31915e-15 0)
(3 1.32355e-15 0)
(3 1.62978e-15 0)
(3 1.43534e-15 0)
(3 8.96296e-16 0)
(3 6.85724e-16 0)
(3 8.87537e-17 0)
(3 -1.20286e-16 0)
(3 1.5422e-16 0)
(3 1.68711e-16 0)
(3 -3.61396e-16 0)
(3 -2.2727e-15 0)
(3 -1.61665e-13 0)
(3 1.51837e-13 0)
(3 3.68841e-07 0)
(3.0005 0.00314716 0)
(2.88298 0.243706 0)
(1.94875 0.864702 0)
(1.66039 0.954829 0)
(3 8.34008e-17 0)
(3 3.64144e-16 0)
(3 7.92515e-16 0)
(3 8.2734e-16 0)
(3 1.29882e-15 0)
(3 1.48615e-15 0)
(3 1.19569e-15 0)
(3 1.04597e-15 0)
(3 7.88455e-16 0)
(3 3.41792e-16 0)
(3 -3.16936e-16 0)
(3 -6.40406e-16 0)
(3 -1.11132e-15 0)
(3 -4.32146e-16 0)
(3 -1.42572e-16 0)
(3 -6.19153e-16 0)
(3 -6.0628e-16 0)
(3 -1.22613e-14 0)
(3 -1.14504e-14 0)
(3 1.96856e-10 0)
(3 1.78238e-05 0)
(3.00087 0.0170034 0)
(2.6282 0.469785 0)
(1.84955 0.924167 0)
(3 8.14047e-17 0)
(3 5.74844e-17 0)
(3 1.3545e-16 0)
(3 5.20707e-17 0)
(3 2.56425e-17 0)
(3 -2.25567e-17 0)
(3 1.15739e-16 0)
(3 1.7265e-16 0)
(3 1.13884e-16 0)
(3 4.54629e-17 0)
(3 4.05995e-16 0)
(3 5.98526e-16 0)
(3 4.34299e-16 0)
(3 8.02487e-16 0)
(3 4.51408e-16 0)
(3 6.16256e-17 0)
(3 -3.69208e-16 0)
(3 -3.96807e-16 0)
(3 -3.57423e-15 0)
(3 2.5268e-14 0)
(3 1.50359e-08 0)
(2.99995 0.000336779 0)
(2.98817 0.0530925 0)
(2.38785 0.649413 0)
(3 -1.08915e-16 0)
(3 -2.89825e-16 0)
(3 -4.4191e-16 0)
(3 -2.08688e-16 0)
(3 -2.83938e-16 0)
(3 -2.05599e-16 0)
(3 -3.9108e-16 0)
(3 -2.9193e-16 0)
(3 3.93016e-17 0)
(3 3.49641e-16 0)
(3 2.91198e-16 0)
(3 -5.79712e-17 0)
(3 -1.12965e-17 0)
(3 -5.6205e-17 0)
(3 -2.78999e-16 0)
(3 8.56352e-17 0)
(3 5.60702e-17 0)
(3 3.79463e-17 0)
(3 -1.24323e-15 0)
(3 -1.28447e-15 0)
(3 6.05279e-12 0)
(3 6.17086e-07 0)
(2.99978 0.00217782 0)
(2.9333 0.136663 0)
(3 -7.57747e-17 0)
(3 6.87467e-17 0)
(3 -1.14257e-16 0)
(3 -1.65343e-16 0)
(3 -9.32627e-17 0)
(3 4.09862e-16 0)
(3 4.18072e-16 0)
(3 1.01291e-15 0)
(3 1.00461e-15 0)
(3 8.02314e-16 0)
(3 5.77627e-16 0)
(3 1.12136e-16 0)
(3 -6.84705e-17 0)
(3 -1.46752e-15 0)
(3 -2.25049e-15 0)
(3 -1.35759e-15 0)
(3 -9.53778e-16 0)
(3 -1.17808e-15 0)
(3 -1.08538e-15 0)
(3 -6.29357e-16 0)
(3 1.49987e-16 0)
(3 5.03261e-10 0)
(3 8.9655e-06 0)
(2.9985 0.00822 0)
(3 8.71557e-17 0)
(3 5.27993e-17 0)
(3 -6.77282e-17 0)
(3 -4.99306e-16 0)
(3 -1.98768e-16 0)
(3 3.39554e-16 0)
(3 8.84273e-16 0)
(3 9.16207e-16 0)
(3 8.76234e-16 0)
(3 1.11848e-15 0)
(3 1.32725e-15 0)
(3 1.52538e-15 0)
(3 1.14395e-15 0)
(3 -7.78133e-16 0)
(3 -1.33458e-15 0)
(3 -1.20389e-15 0)
(3 -8.31435e-16 0)
(3 -4.07389e-18 0)
(3 6.16455e-16 0)
(3 9.37699e-16 0)
(3 2.26706e-16 0)
(3 6.91453e-14 0)
(3 9.70715e-09 0)
(2.99997 8.33312e-05 0)
(3 -3.17558e-18 0)
(3 -1.8173e-16 0)
(3 -1.30422e-17 0)
(3 7.53759e-17 0)
(3 2.483e-16 0)
(3 -3.54677e-17 0)
(3 1.69711e-16 0)
(3 2.48669e-16 0)
(3 1.81757e-16 0)
(3 6.37211e-17 0)
(3 1.48561e-15 0)
(3 1.19082e-15 0)
(3 8.46357e-16 0)
(3 9.18917e-16 0)
(3 7.22367e-16 0)
(3 5.70055e-16 0)
(3 9.47338e-16 0)
(3 1.76033e-15 0)
(3 2.19684e-15 0)
(3 1.8146e-15 0)
(3 1.57743e-15 0)
(3 1.0643e-15 0)
(3 3.19908e-12 0)
(3 1.08824e-07 0)
(3 -5.87003e-18 0)
(3 -1.50069e-16 0)
(3 -2.2723e-17 0)
(3 4.30585e-16 0)
(3 7.71861e-16 0)
(3 -6.0247e-17 0)
(3 -5.14277e-16 0)
(3 -3.59438e-17 0)
(3 2.20321e-16 0)
(3 3.94215e-16 0)
(3 5.9092e-16 0)
(3 6.30624e-16 0)
(3 6.654e-16 0)
(3 1.44089e-15 0)
(3 2.23458e-15 0)
(3 1.76205e-15 0)
(3 1.60057e-15 0)
(3 1.79581e-15 0)
(3 2.29365e-15 0)
(3 2.29808e-15 0)
(3 2.63789e-15 0)
(3 2.23628e-15 0)
(3 2.30993e-15 0)
(3 6.37035e-11 0)
(3 -8.19778e-17 0)
(3 2.63095e-17 0)
(3 -1.67285e-16 0)
(3 -2.02412e-16 0)
(3 -1.94243e-16 0)
(3 -6.13702e-16 0)
(3 -1.19714e-15 0)
(3 -1.75137e-15 0)
(3 -1.76132e-15 0)
(3 -1.2003e-15 0)
(3 -1.24892e-15 0)
(3 -5.17221e-16 0)
(3 4.17811e-16 0)
(3 1.86423e-15 0)
(3 2.17066e-15 0)
(3 1.34643e-15 0)
(3 1.23978e-15 0)
(3 8.37958e-16 0)
(3 5.26914e-16 0)
(3 7.69814e-16 0)
(3 1.13384e-15 0)
(3 1.54072e-15 0)
(3 1.23185e-15 0)
(3 1.18962e-14 0)
(3 1.73481e-16 0)
(3 1.37651e-16 0)
(3 -2.87738e-16 0)
(3 -6.17081e-16 0)
(3 -9.20359e-16 0)
(3 -5.83933e-16 0)
(3 -8.53466e-16 0)
(3 -1.90886e-15 0)
(3 -2.2343e-15 0)
(3 -1.95918e-15 0)
(3 -1.60266e-15 0)
(3 -1.12564e-15 0)
(3 6.42219e-16 0)
(3 6.43299e-16 0)
(3 7.8374e-16 0)
(3 1.55716e-15 0)
(3 1.35093e-15 0)
(3 5.92794e-16 0)
(3 -2.58024e-16 0)
(3 -6.35964e-16 0)
(3 -3.91912e-16 0)
(3 -2.50886e-17 0)
(3 -3.50083e-16 0)
(3 -6.413e-16 0)
(3 1.01686e-16 0)
(3 -1.31161e-16 0)
(3 -5.18961e-16 0)
(3 -4.04723e-16 0)
(3 -2.95713e-16 0)
(3 -5.57252e-17 0)
(3 -1.80673e-16 0)
(3 -6.2205e-16 0)
(3 -5.63289e-16 0)
(3 -3.23738e-16 0)
(3 -3.40476e-16 0)
(3 -1.01734e-15 0)
(3 -4.78321e-16 0)
(3 -7.14084e-16 0)
(3 -2.49442e-16 0)
(3 8.01492e-16 0)
(3 9.13497e-16 0)
(3 7.32592e-16 0)
(3 1.58265e-16 0)
(3 -2.219e-16 0)
(3 -2.02127e-16 0)
(3 -5.00972e-16 0)
(3 -1.16119e-15 0)
(3 -1.83012e-15 0)
(3 -1.01745e-16 0)
(3 -3.89377e-16 0)
(3 -6.30173e-16 0)
(3 -6.7893e-17 0)
(3 1.44352e-16 0)
(3 1.04058e-16 0)
(3 5.0618e-18 0)
(3 -1.40125e-16 0)
(3 -1.40752e-16 0)
(3 -1.88777e-16 0)
(3 -2.5707e-16 0)
(3 -3.11601e-16 0)
(3 -2.26465e-16 0)
(3 -5.09223e-16 0)
(3 -3.40563e-16 0)
(3 -1.52242e-16 0)
(3 6.03115e-17 0)
(3 7.73646e-17 0)
(3 -1.39604e-16 0)
(3 1.41721e-17 0)
(3 -4.03944e-16 0)
(3 -2.96084e-16 0)
(3 -1.98086e-16 0)
(3 -6.00013e-16 0)
(1.53493 1.22939 0)
(2.03501 1.43759 0)
(2.1374 1.61722 0)
(2.25874 0.737513 0)
(2.55364 0.349672 0)
(2.6565 0.0225967 0)
(2.65438 -0.161374 0)
(2.56063 -0.247461 0)
(2.42466 -0.365 0)
(2.45823 -0.422837 0)
(2.47202 -0.289083 0)
(2.45329 -0.207231 0)
(2.42184 -0.166407 0)
(2.39169 -0.139094 0)
(2.37671 -0.117081 0)
(2.37088 -0.0877756 0)
(2.3888 -0.0454475 0)
(2.40093 -0.0309964 0)
(2.39167 -0.0169985 0)
(2.38593 -0.0188642 0)
(2.39188 -0.0204641 0)
(2.3941 -0.00991665 0)
(2.38982 -0.00013758 0)
(2.37788 -0.000980199 0)
(2.37902 -0.00774292 0)
(2.39279 -0.0120575 0)
(2.40621 -0.0103687 0)
(2.40398 -0.00753233 0)
(2.39772 -0.00716533 0)
(2.38911 -0.00491803 0)
(2.19856 0.0217867 0)
(0.920595 0.0440214 0)
(0.712537 0.00331662 0)
(0.7356 -0.0145961 0)
(0.781869 -0.0333803 0)
(0.835491 -0.0428399 0)
(0.883044 -0.0442771 0)
(0.926154 -0.0404095 0)
(0.970133 -0.0383857 0)
(1.02094 -0.038378 0)
(1.07701 -0.0396522 0)
(1.13292 -0.0402893 0)
(1.18156 -0.0368774 0)
(1.21915 -0.0302923 0)
(1.24956 -0.0232863 0)
(1.27799 -0.0180962 0)
(1.30846 -0.0153309 0)
(1.34443 -0.014697 0)
(1.38433 -0.0154342 0)
(1.42106 -0.0161982 0)
(1.45098 -0.014365 0)
(1.47692 -0.0108431 0)
(1.50232 -0.00738813 0)
(1.53026 -0.00494321 0)
(1.56432 -0.00386704 0)
(1.59657 -0.00714494 0)
(1.61956 -0.00977162 0)
(1.64182 -0.00930698 0)
(1.66095 -0.00575092 0)
(1.67863 0.00015339 0)
(1.69925 0.0042349 0)
(1.72153 0.00610705 0)
(1.74817 0.00621911 0)
(1.77631 0.0046715 0)
(1.80004 -0.000500877 0)
(1.8201 -0.00425706 0)
(1.83873 -0.00498656 0)
(1.8477 -0.00196111 0)
(1.85242 0.00442257 0)
(1.8669 0.00856142 0)
(1.88523 0.00945527 0)
(1.9072 0.00920637 0)
(1.93416 0.00803803 0)
(1.95842 0.0049273 0)
(1.97828 0.0019734 0)
(1.99742 0.000973401 0)
(2.00956 0.00234887 0)
(2.01155 0.00638264 0)
(2.0183 0.00925424 0)
(2.03274 0.00970242 0)
(2.0487 0.00971065 0)
(2.06898 0.00878612 0)
(2.08857 0.00551159 0)
(2.10649 0.00381804 0)
(2.12309 0.00250412 0)
(2.12869 0.00372287 0)
(2.1277 0.00739609 0)
(2.1373 0.0100381 0)
(2.15368 0.010898 0)
(2.1697 0.0117986 0)
(2.18797 0.0122965 0)
(2.20769 0.00946913 0)
(2.2222 0.00671303 0)
(2.23845 0.00528754 0)
(2.24561 0.00479692 0)
(2.24707 0.00804823 0)
(1.7743 1.07078 0)
(2.28645 0.721182 0)
(2.5056 0.581642 0)
(2.65945 0.198561 0)
(2.72542 -0.321782 0)
(2.69309 -0.473952 0)
(2.71847 -0.536096 0)
(2.72372 -0.604476 0)
(2.73312 -0.608123 0)
(2.70997 -0.556704 0)
(2.59997 -0.405959 0)
(2.52366 -0.275247 0)
(2.48295 -0.230668 0)
(2.46485 -0.178139 0)
(2.45043 -0.100764 0)
(2.44053 -0.0603911 0)
(2.44266 -0.0299288 0)
(2.44609 -0.00439097 0)
(2.43879 0.0203178 0)
(2.42569 0.0135801 0)
(2.41741 -0.0146742 0)
(2.41462 -0.012103 0)
(2.41292 -0.000640835 0)
(2.40289 -0.000664083 0)
(2.40501 -0.00581092 0)
(2.41637 -0.0135279 0)
(2.4317 -0.0159393 0)
(2.43039 -0.0119496 0)
(2.42532 -0.0101825 0)
(2.41746 -0.0038685 0)
(2.35683 0.0260268 0)
(1.08856 0.112655 0)
(0.820901 -0.00515696 0)
(0.868104 -0.0702656 0)
(0.930617 -0.0831057 0)
(0.9844 -0.0778369 0)
(1.02632 -0.0678518 0)
(1.05735 -0.0455975 0)
(1.08797 -0.0244769 0)
(1.12108 -0.0141268 0)
(1.15775 -0.016406 0)
(1.19979 -0.0271635 0)
(1.24492 -0.0389732 0)
(1.28375 -0.0396284 0)
(1.31034 -0.0306816 0)
(1.33313 -0.0178698 0)
(1.35739 -0.00790441 0)
(1.38479 -0.00518465 0)
(1.41808 -0.00994265 0)
(1.45565 -0.0172587 0)
(1.48906 -0.0198263 0)
(1.51466 -0.0161136 0)
(1.53843 -0.00621813 0)
(1.56164 0.00604003 0)
(1.58333 0.0100413 0)
(1.60581 0.00432109 0)
(1.63265 -0.00853609 0)
(1.6571 -0.0184243 0)
(1.6783 -0.0214871 0)
(1.69997 -0.0173722 0)
(1.72201 -0.00414485 0)
(1.74284 0.0112705 0)
(1.76256 0.0216658 0)
(1.78162 0.0224847 0)
(1.80078 0.0163942 0)
(1.82013 0.0054262 0)
(1.83622 -0.00883057 0)
(1.85125 -0.0175568 0)
(1.86822 -0.0141107 0)
(1.88435 -0.000287361 0)
(1.90137 0.014781 0)
(1.91904 0.0252121 0)
(1.93713 0.0274465 0)
(1.95623 0.0230674 0)
(1.97601 0.0150925 0)
(1.99409 0.00523593 0)
(2.0094 -0.00239163 0)
(2.02228 -0.000587532 0)
(2.03272 0.0112204 0)
(2.04181 0.0233346 0)
(2.05327 0.0285832 0)
(2.06864 0.0282557 0)
(2.08653 0.0225873 0)
(2.10467 0.0131827 0)
(2.12074 0.00295368 0)
(2.1333 -0.00313693 0)
(2.14142 0.00329199 0)
(2.14913 0.0171843 0)
(2.15805 0.0291113 0)
(2.17126 0.0345744 0)
(2.18635 0.0358149 0)
(2.20297 0.0340409 0)
(2.21945 0.0256796 0)
(2.23433 0.0138219 0)
(2.24505 0.00399062 0)
(2.25762 0.00775746 0)
(1.65098 1.05638 0)
(2.01677 0.907725 0)
(2.38025 0.553628 0)
(2.53977 0.366749 0)
(2.60967 0.10867 0)
(2.63835 -0.0482531 0)
(2.6681 -0.046918 0)
(2.73819 -0.200207 0)
(2.78111 -0.379222 0)
(2.76024 -0.429904 0)
(2.75054 -0.422066 0)
(2.70673 -0.442566 0)
(2.66412 -0.446058 0)
(2.65977 -0.385704 0)
(2.65116 -0.291635 0)
(2.64305 -0.226509 0)
(2.61752 -0.163883 0)
(2.55062 -0.0890888 0)
(2.52785 -0.035544 0)
(2.5029 -0.0394588 0)
(2.48971 -0.0496637 0)
(2.47597 -0.0268272 0)
(2.47699 0.0185769 0)
(2.47811 0.0245131 0)
(2.47436 0.00676822 0)
(2.47888 -0.0201297 0)
(2.48472 -0.0220795 0)
(2.48473 -0.0141796 0)
(2.47753 -0.00882181 0)
(2.46757 -0.0215127 0)
(2.41343 -0.13606 0)
(1.58409 -0.00855682 0)
(1.12646 0.00166093 0)
(1.13638 -0.0484947 0)
(1.19355 -0.092241 0)
(1.23072 -0.0984567 0)
(1.25614 -0.0969393 0)
(1.28173 -0.0918309 0)
(1.30154 -0.0851225 0)
(1.3178 -0.0782828 0)
(1.33234 -0.0721966 0)
(1.35126 -0.0687161 0)
(1.37674 -0.0657833 0)
(1.4048 -0.0647835 0)
(1.4291 -0.0625276 0)
(1.44939 -0.0556754 0)
(1.46825 -0.0440021 0)
(1.4877 -0.0325446 0)
(1.50938 -0.0267277 0)
(1.53364 -0.0282821 0)
(1.56063 -0.0351946 0)
(1.58639 -0.039208 0)
(1.60952 -0.0365166 0)
(1.63169 -0.0265589 0)
(1.64921 -0.0100395 0)
(1.66101 0.00677183 0)
(1.6749 0.0121984 0)
(1.69248 0.00762819 0)
(1.71508 -0.00231355 0)
(1.74224 -0.00848574 0)
(1.76574 -0.00689221 0)
(1.78644 -0.000627653 0)
(1.80502 0.0110955 0)
(1.81434 0.024607 0)
(1.8187 0.0290913 0)
(1.83055 0.0214637 0)
(1.84694 0.0128325 0)
(1.8676 0.00443676 0)
(1.89401 -2.49284e-05 0)
(1.9146 0.00380814 0)
(1.93342 0.0120616 0)
(1.94967 0.0236373 0)
(1.95875 0.0348597 0)
(1.96636 0.0376129 0)
(1.98039 0.0314466 0)
(1.99651 0.0237115 0)
(2.0141 0.0182782 0)
(2.035 0.0146679 0)
(2.05231 0.0163955 0)
(2.06734 0.0258748 0)
(2.0766 0.0385796 0)
(2.0814 0.0439506 0)
(2.09106 0.0385475 0)
(2.10469 0.0291568 0)
(2.11939 0.0197279 0)
(2.13647 0.0132025 0)
(2.15341 0.0116421 0)
(2.16945 0.0180032 0)
(2.18154 0.0337294 0)
(2.1882 0.0492455 0)
(2.19353 0.0544349 0)
(2.2036 0.0495705 0)
(2.21604 0.0409284 0)
(2.22851 0.0296484 0)
(2.24136 0.0214612 0)
(2.26412 0.0196119 0)
(1.58433 0.981989 0)
(1.91025 0.840858 0)
(2.14937 0.675263 0)
(2.26851 0.586542 0)
(2.42758 0.372018 0)
(2.56461 0.0720185 0)
(2.62823 -0.0277979 0)
(2.66045 -0.10577 0)
(2.71136 -0.286922 0)
(2.71341 -0.351598 0)
(2.73321 -0.403473 0)
(2.7648 -0.47006 0)
(2.7799 -0.49224 0)
(2.76545 -0.472694 0)
(2.75012 -0.428985 0)
(2.72674 -0.388237 0)
(2.69451 -0.336408 0)
(2.65672 -0.266524 0)
(2.63654 -0.188163 0)
(2.62 -0.163714 0)
(2.59724 -0.150928 0)
(2.55893 -0.109708 0)
(2.54469 -0.0364488 0)
(2.54811 -0.00591021 0)
(2.54205 -0.00956629 0)
(2.53408 -0.0145597 0)
(2.53287 -0.0123412 0)
(2.52965 0.00907374 0)
(2.52182 -0.000630088 0)
(2.49208 -0.0398464 0)
(2.23288 -0.342191 0)
(2.02469 -0.488698 0)
(1.4479 -0.19254 0)
(1.34001 -0.0815835 0)
(1.38002 -0.0464682 0)
(1.41105 -0.0603064 0)
(1.43713 -0.0880617 0)
(1.4654 -0.0977032 0)
(1.48349 -0.0916891 0)
(1.49261 -0.0769542 0)
(1.49448 -0.0584781 0)
(1.49575 -0.0433593 0)
(1.50815 -0.039328 0)
(1.52621 -0.039357 0)
(1.54756 -0.0417164 0)
(1.56918 -0.0425207 0)
(1.5882 -0.0377042 0)
(1.60498 -0.0273784 0)
(1.6177 -0.0165894 0)
(1.63001 -0.0101566 0)
(1.64691 -0.0108939 0)
(1.6667 -0.0171099 0)
(1.68877 -0.0237872 0)
(1.70873 -0.0267163 0)
(1.72794 -0.0257697 0)
(1.74274 -0.0162986 0)
(1.74985 0.00180199 0)
(1.75962 0.0167737 0)
(1.77612 0.0210546 0)
(1.79628 0.0190151 0)
(1.81838 0.0104949 0)
(1.83573 0.00301551 0)
(1.85112 -0.0025042 0)
(1.86149 -0.00340121 0)
(1.86504 0.00484661 0)
(1.87037 0.0169005 0)
(1.88727 0.0230747 0)
(1.90536 0.0261919 0)
(1.9286 0.0251197 0)
(1.95116 0.0207537 0)
(1.96811 0.0181832 0)
(1.98422 0.0168569 0)
(1.99386 0.0191925 0)
(1.99641 0.0270041 0)
(2.00152 0.0342281 0)
(2.0174 0.0369646 0)
(2.03491 0.0386121 0)
(2.05519 0.0388695 0)
(2.07684 0.0372982 0)
(2.0936 0.0369306 0)
(2.10817 0.039297 0)
(2.11247 0.0455929 0)
(2.10896 0.0483866 0)
(2.1159 0.0434209 0)
(2.13164 0.0398308 0)
(2.14821 0.0384204 0)
(2.16862 0.0371957 0)
(2.18747 0.037588 0)
(2.20461 0.039893 0)
(2.21742 0.0485143 0)
(2.21826 0.0609111 0)
(2.21431 0.0652714 0)
(2.22057 0.0601815 0)
(2.23429 0.0531227 0)
(2.24765 0.0496937 0)
(2.27165 0.0472668 0)
(1.55861 0.930273 0)
(1.80934 0.828033 0)
(1.97851 0.748195 0)
(2.1397 0.638266 0)
(2.33129 0.416133 0)
(2.41803 0.289245 0)
(2.46359 0.229191 0)
(2.55127 0.0809216 0)
(2.61293 -0.0763523 0)
(2.63688 -0.166742 0)
(2.6509 -0.189631 0)
(2.69469 -0.256692 0)
(2.73023 -0.327477 0)
(2.74081 -0.339564 0)
(2.71626 -0.374379 0)
(2.70299 -0.397348 0)
(2.70463 -0.409723 0)
(2.70725 -0.402895 0)
(2.70216 -0.355027 0)
(2.69961 -0.308149 0)
(2.67665 -0.261574 0)
(2.63564 -0.216087 0)
(2.60257 -0.124708 0)
(2.60751 -0.0889721 0)
(2.61099 -0.066354 0)
(2.5837 -0.0535956 0)
(2.56992 -0.0445637 0)
(2.56382 -0.0286454 0)
(2.52354 -0.0566716 0)
(2.30641 -0.265982 0)
(2.03329 -0.49631 0)
(2.01688 -0.665585 0)
(1.79307 -0.474711 0)
(1.54519 -0.223109 0)
(1.48091 -0.119365 0)
(1.48115 -0.062546 0)
(1.51048 -0.0614701 0)
(1.54446 -0.0881471 0)
(1.57637 -0.0969422 0)
(1.58742 -0.090866 0)
(1.59104 -0.075646 0)
(1.58882 -0.0530271 0)
(1.58848 -0.0400696 0)
(1.60259 -0.0392526 0)
(1.62048 -0.040319 0)
(1.64231 -0.0415502 0)
(1.6665 -0.0395809 0)
(1.6849 -0.0355791 0)
(1.70033 -0.0297642 0)
(1.70931 -0.0209457 0)
(1.71585 -0.0143713 0)
(1.73066 -0.0137639 0)
(1.74802 -0.0152783 0)
(1.76752 -0.016165 0)
(1.78672 -0.0147649 0)
(1.80449 -0.00872144 0)
(1.81817 0.00364909 0)
(1.82573 0.020353 0)
(1.83358 0.0313431 0)
(1.84966 0.0324592 0)
(1.8664 0.026544 0)
(1.88133 0.0163741 0)
(1.89473 0.00810261 0)
(1.90724 0.00375078 0)
(1.91885 0.00682864 0)
(1.92816 0.020106 0)
(1.93674 0.0372099 0)
(1.95217 0.0459461 0)
(1.96957 0.0474405 0)
(1.98766 0.0434274 0)
(2.0041 0.0357855 0)
(2.01786 0.0274563 0)
(2.02816 0.0212428 0)
(2.03605 0.0226534 0)
(2.04337 0.0340495 0)
(2.05258 0.0489896 0)
(2.06823 0.0576758 0)
(2.08563 0.0603133 0)
(2.10362 0.0591234 0)
(2.12088 0.0538924 0)
(2.13505 0.0471172 0)
(2.14153 0.0411017 0)
(2.14086 0.0419875 0)
(2.14468 0.0488856 0)
(2.15755 0.0540803 0)
(2.17351 0.0558166 0)
(2.19122 0.0565753 0)
(2.20938 0.0562567 0)
(2.22616 0.0556111 0)
(2.23969 0.0536392 0)
(2.24355 0.0538629 0)
(2.23919 0.0595402 0)
(2.24119 0.0663025 0)