/*--------------------------------*- C++ -*----------------------------------*\
  =========                 |
  \\      /  F ield         | OpenFOAM: The Open Source CFD Toolbox
   \\    /   O peration     | Website:  https://openfoam.org
    \\  /    A nd           | Version:  7
     \\/     M anipulation  |
\*---------------------------------------------------------------------------*/
FoamFile
{
    version     2.0;
    format      ascii;
    class       volScalarField;
    location    "2.1";
    object      p;
}
// * * * * * * * * * * * * * * * * * * * * * * * * * * * * * * * * * * * * * //

dimensions      [1 -1 -2 0 0 0 0];

internalField   nonuniform List<scalar> 
64512
(
1
1
1
1
1
1
1
1
1
1
1
1
1
1
1
1
1
1
1
1
1
1
1
1
1
1
1
1
1
1
1
1
1
1
1
1
1
1
1
1
1
1
1
1
1
1
1
1
1
1.21751
7.26683
10.48
10.5162
10.5797
10.638
10.6981
10.7606
10.8211
10.8735
10.9161
10.9536
10.9949
11.0464
11.1084
11.1737
11.2343
11.2874
11.3349
11.3806
11.429
11.4774
11.5247
11.5677
11.6036
11.631
11.6517
11.6706
11.6919
11.723
11.7675
11.8184
11.8651
11.9016
11.9278
11.9463
11.961
11.973
11.9829
11.9941
12.0037
12.0131
12.0233
12.0357
12.0501
12.0631
12.0758
1
1
1
1
1
1
1
1
1
1
1
1
1
1
1
1
1
1
1
1
1
1
1
1
1
1
1
1
1
1
1
1
1
1
1
1
1
1
1
1
1
1
1
1
1
1
1
1
1
1.2114
7.23479
10.4638
10.5223
10.5814
10.6384
10.6988
10.7619
10.8227
10.875
10.9171
10.954
10.9946
11.0459
11.1081
11.1732
11.233
11.2852
11.3314
11.3764
11.4249
11.4745
11.5231
11.5668
11.6022
11.6283
11.648
11.6667
11.689
11.7214
11.7664
11.817
11.863
11.8989
11.9246
11.9429
11.9577
11.9696
11.9792
11.9902
12.0001
12.0105
12.0216
12.0341
12.0477
12.0589
12.0699
1
1
1
1
1
1
1
1
1
1
1
1
1
1
1
1
1
1
1
1
1
1
1
1
1
1
1
1
1
1
1
1
1
1
1
1
1
1
1
1
1
1
1
1
1
1
1
1
1
1.19801
7.17859
10.4474
10.5217
10.5754
10.6343
10.6975
10.7626
10.8246
10.877
10.9181
10.9535
10.9928
11.0437
11.1063
11.1715
11.2306
11.2817
11.3262
11.3699
11.4183
11.4689
11.5194
11.5642
11.5995
11.6245
11.6427
11.6609
11.684
11.7176
11.7632
11.8137
11.8593
11.8947
11.92
11.938
11.9527
11.9645
11.9738
11.9841
11.994
12.0053
12.0178
12.0308
12.0435
12.0529
12.0616
1
1
1
1
1
1
1
1
1
1
1
1
1
1
1
1
1
1
1
1
1
1
1
1
1
1
1
1
1
1
1
1
1
1
1
1
1
1
1
1
1
1
1
1
1
1
1
1
1
1.17337
7.08827
10.43
10.5046
10.564
10.6292
10.697
10.7651
10.8283
10.8806
10.9202
10.9535
10.9907
11.0404
11.1028
11.1677
11.2256
11.2757
11.3189
11.3616
11.4097
11.4612
11.5134
11.5593
11.5948
11.6187
11.6357
11.6533
11.6769
11.7115
11.7576
11.8079
11.8531
11.8879
11.913
11.9313
11.946
11.9574
11.966
11.9753
11.9852
11.9976
12.0115
12.025
12.0367
12.0441
12.0502
1
1
1
1
1
1
1
1
1
1
1
1
1
1
1
1
1
1
1
1
1
1
1
1
1
1
1
1
1
1
1
1
1
1
1
1
1
1
1
1
1
1
1
1
1
1
1
1
1
1.10596
6.94481
10.4427
10.4997
10.5604
10.6242
10.6919
10.7604
10.8239
10.8757
10.9148
10.9485
10.9865
11.0366
11.0988
11.1627
11.2187
11.2679
11.3104
11.3523
11.3996
11.4511
11.504
11.551
11.5871
11.6109
11.6271
11.6442
11.6678
11.7028
11.7489
11.7988
11.8437
11.8786
11.9042
11.9232
11.9382
11.9491
11.9566
11.9648
11.9744
11.9876
12.0025
12.0164
12.0272
12.033
12.0369
1
1
1
1
1
1
1
1
1
1
1
1
1
1
1
1
1
1
1
1
1
1
1
1
1
1
1
1
1
1
1
1
1
1
1
1
1
1
1
1
1
1
1
1
1
1
1
1
1
1.01176
6.73101
10.4643
10.5003
10.5605
10.6206
10.6854
10.7527
10.8164
10.8688
10.9093
10.9449
10.9842
11.0337
11.094
11.1552
11.2089
11.2576
11.3006
11.3426
11.3889
11.4393
11.4918
11.5392
11.5763
11.6009
11.6175
11.6346
11.6579
11.6924
11.7376
11.7866
11.8311
11.8665
11.8931
11.9133
11.9286
11.9386
11.945
11.9518
11.9612
11.975
11.9905
12.0046
12.015
12.0201
12.0229
1
1
1
1
1
1
1
1
1
1
1
1
1
1
1
1
1
1
1
1
1
1
1
1
1
1
1
1
1
1
1
1
1
1
1
1
1
1
1
1
1
1
1
1
1
1
1
1
1
1.00011
6.4359
10.4263
10.4896
10.5531
10.6153
10.681
10.7472
10.808
10.8578
10.8988
10.9374
10.9796
11.0297
11.088
11.1464
11.1977
11.2461
11.2899
11.3324
11.3774
11.4257
11.477
11.5241
11.5624
11.5886
11.6067
11.6243
11.6472
11.6802
11.7234
11.7707
11.8146
11.8509
11.8791
11.9009
11.9167
11.926
11.9314
11.9372
11.9462
11.9603
11.9758
11.9896
11.9999
12.0053
12.008
1
1
1
1
1
1
1
1
1
1
1
1
1
1
1
1
1
1
1
1
1
1
1
1
1
1
1
1
1
1
1
1
1
1
1
1
1
1
1
1
1
1
1
1
1
1
1
1
1
1
6.09112
10.391
10.4869
10.548
10.6098
10.6738
10.7371
10.7944
10.843
10.8865
10.9295
10.9748
11.0249
11.0807
11.1359
11.1852
11.2335
11.2781
11.321
11.365
11.4109
11.4602
11.5065
11.5456
11.5738
11.5941
11.6127
11.6352
11.6663
11.707
11.7521
11.7954
11.8328
11.863
11.8862
11.9025
11.9112
11.9158
11.9209
11.9296
11.9433
11.9582
11.9716
11.982
11.9882
11.9916
1
1
1
1
1
1
1
1
1
1
1
1
1
1
1
1
1
1
1
1
1
1
1
1
1
1
1
1
1
1
1
1
1
1
1
1
1
1
1
1
1
1
1
1
1
1
1
1
1
1
5.70712
10.3382
10.4786
10.5379
10.6003
10.6635
10.7252
10.7805
10.8293
10.8754
10.9213
10.9678
11.017
11.0707
11.1239
11.1722
11.2204
11.2654
11.3082
11.3514
11.3949
11.4421
11.4871
11.5266
11.5566
11.5793
11.5993
11.6216
11.6508
11.6889
11.7318
11.7744
11.8125
11.844
11.8681
11.8844
11.8927
11.8969
11.9021
11.9109
11.9241
11.9384
11.9513
11.9621
11.9694
11.9741
1
1
1
1
1
1
1
1
1
1
1
1
1
1
1
1
1
1
1
1
1
1
1
1
1
1
1
1
1
1
1
1
1
1
1
1
1
1
1
1
1
1
1
1
1
1
1
1
1
1
5.28776
10.2687
10.4678
10.5264
10.5887
10.6505
10.7115
10.7669
10.8175
10.866
10.9131
10.959
11.0065
11.0583
11.1104
11.158
11.2059
11.2508
11.2932
11.3358
11.3773
11.4225
11.4664
11.5059
11.5374
11.5623
11.5838
11.6062
11.634
11.6698
11.7108
11.7524
11.7903
11.8219
11.8458
11.8622
11.8707
11.8753
11.8812
11.8904
11.9034
11.9169
11.929
11.9398
11.948
11.9538
1
1
1
1
1
1
1
1
1
1
1
1
1
1
1
1
1
1
1
1
1
1
1
1
1
1
1
1
1
1
1
1
1
1
1
1
1
1
1
1
1
1
1
1
1
1
1
1
1
1
4.83543
10.178
10.4563
10.5143
10.5766
10.6375
10.6987
10.7555
10.8078
10.8571
10.9039
10.9487
10.9944
11.0451
11.0966
11.144
11.1912
11.2358
11.2771
11.3188
11.3585
11.402
11.4449
11.4847
11.5174
11.5439
11.5663
11.5883
11.6146
11.6484
11.688
11.7285
11.7657
11.7965
11.8196
11.836
11.8453
11.8511
11.8581
11.8681
11.8809
11.8936
11.9048
11.9153
11.9238
11.9302
1
1
1
1
1
1
1
1
1
1
1
1
1
1
1
1
1
1
1
1
1
1
1
1
1
1
1
1
1
1
1
1
1
1
1
1
1
1
1
1
1
1
1
1
1
1
1
1
1
1
4.35409
10.0576
10.4463
10.5027
10.5657
10.6261
10.6874
10.7454
10.7982
10.8464
10.8918
10.9353
10.9794
11.0288
11.08
11.1272
11.1741
11.2189
11.26
11.3017
11.3406
11.3828
11.4247
11.464
11.4966
11.5232
11.5452
11.5664
11.5914
11.6242
11.6632
11.7034
11.7397
11.7691
11.7909
11.8067
11.8168
11.824
11.8326
11.8434
11.8561
11.8682
11.8785
11.8884
11.8963
11.9026
1
1
1
1
1
1
1
1
1
1
1
1
1
1
1
1
1
1
1
1
1
1
1
1
1
1
1
1
1
1
1
1
1
1
1
1
1
1
1
1
1
1
1
1
1
1
1
1
1
1
3.85237
9.89352
10.4379
10.4916
10.555
10.6148
10.6756
10.7343
10.7873
10.8345
10.8795
10.9225
10.9659
11.0143
11.0648
11.1112
11.1568
11.2002
11.2395
11.2798
11.3173
11.3583
11.4
11.4395
11.4727
11.4996
11.5215
11.5422
11.5665
11.5985
11.6368
11.6762
11.7111
11.7385
11.7585
11.7737
11.7847
11.794
11.8043
11.8163
11.8291
11.8407
11.8503
11.8591
11.8659
11.8714
1
1
1
1
1
1
1
1
1
1
1
1
1
1
1
1
1
1
1
1
1
1
1
1
1
1
1
1
1
1
1
1
1
1
1
1
1
1
1
1
1
1
1
1
1
1
1
1
1
1
3.34414
9.67357
10.4322
10.4808
10.5445
10.6029
10.6619
10.7198
10.7711
10.8164
10.8606
10.9035
10.9467
10.9944
11.0448
11.0914
11.1363
11.1789
11.2169
11.2565
11.2932
11.3338
11.3751
11.4147
11.448
11.4751
11.4967
11.5166
11.5394
11.5695
11.6062
11.6443
11.6782
11.7043
11.7236
11.7386
11.7505
11.7617
11.7737
11.7866
11.7995
11.8106
11.8193
11.8267
11.8316
11.8358
1
1
1
1
1
1
1
1
1
1
1
1
1
1
1
1
1
1
1
1
1
1
1
1
1
1
1
1
1
1
1
1
1
1
1
1
1
1
1
1
1
1
1
1
1
1
1
1
1
1
2.84515
9.38244
10.4346
10.4736
10.5365
10.5914
10.647
10.703
10.7542
10.7993
10.843
10.8857
10.9286
10.9753
11.0254
11.0718
11.1155
11.1566
11.193
11.2315
11.2678
11.308
11.3488
11.3877
11.4207
11.4477
11.4694
11.4888
11.5099
11.5376
11.5719
11.6085
11.6418
11.6677
11.6868
11.7019
11.7143
11.7265
11.7396
11.7532
11.7661
11.7767
11.7846
11.7905
11.7934
11.7962
1
1
1
1
1
1
1
1
1
1
1
1
1
1
1
1
1
1
1
1
1
1
1
1
1
1
1
1
1
1
1
1
1
1
1
1
1
1
1
1
1
1
1
1
1
1
1
1
1
1
2.367
9.00802
10.4423
10.4663
10.5278
10.5776
10.6294
10.6825
10.7335
10.779
10.8222
10.8651
10.9081
10.9538
11.0032
11.0497
11.0922
11.1319
11.1674
11.205
11.2413
11.281
11.3205
11.358
11.3903
11.4175
11.4398
11.4593
11.4788
11.5034
11.5344
11.569
11.6019
11.6282
11.6478
11.6632
11.6759
11.6884
11.7021
11.7161
11.7289
11.739
11.746
11.7504
11.7512
11.7527
1
1
1
1
1
1
1
1
1
1
1
1
1
1
1
1
1
1
1
1
1
1
1
1
1
1
1
1
1
1
1
1
1
1
1
1
1
1
1
1
1
1
1
1
1
1
1
1
1
1
1.92007
8.5487
10.4513
10.458
10.5184
10.5621
10.6107
10.661
10.7112
10.7566
10.7992
10.8417
10.8846
10.9294
10.9782
11.0247
11.0665
11.1053
11.1403
11.1773
11.2136
11.2524
11.2901
11.3256
11.3567
11.3841
11.4073
11.427
11.4451
11.4664
11.4938
11.526
11.5585
11.5856
11.6061
11.6221
11.6346
11.6469
11.6607
11.6747
11.6872
11.6968
11.7028
11.7058
11.7046
11.705
1
1
1
1
1
1
1
1
1
1
1
1
1
1
1
1
1
1
1
1
1
1
1
1
1
1
1
1
1
1
1
1
1
1
1
1
1
1
1
1
1
1
1
1
1
1
1
1
1
1
1.53753
8.00306
10.4507
10.4388
10.4926
10.5328
10.5812
10.6317
10.6829
10.7298
10.7729
10.8158
10.859
10.9031
10.9507
10.9967
11.0377
11.0759
11.1109
11.1472
11.1833
11.2208
11.2564
11.2897
11.3195
11.347
11.3711
11.3914
11.4084
11.4269
11.451
11.4807
11.5126
11.5405
11.5619
11.5782
11.5904
11.6019
11.6152
11.6288
11.6407
11.6493
11.6541
11.6556
11.6527
11.652
1
1
1
1
1
1
1
1
1
1
1
1
1
1
1
1
1
1
1
1
1
1
1
1
1
1
1
1
1
1
1
1
1
1
1
1
1
1
1
1
1
1
1
1
1
1
1
1
1
1
1.2208
7.36075
10.4096
10.4205
10.4672
10.5136
10.5651
10.6149
10.6626
10.7064
10.7459
10.7861
10.8284
10.8721
10.9191
10.9647
11.0053
11.0436
11.079
11.1146
11.1499
11.1855
11.2192
11.2506
11.2795
11.3069
11.3314
11.352
11.3682
11.3846
11.4058
11.4329
11.4636
11.4916
11.5136
11.5301
11.5418
11.5522
11.5644
11.5771
11.5882
11.5957
11.5993
11.5996
11.5954
11.5943
1
1
1
1
1
1
1
1
1
1
1
1
1
1
1
1
1
1
1
1
1
1
1
1
1
1
1
1
1
1
1
1
1
1
1
1
1
1
1
1
1
1
1
1
1
1
1
1
1
1
1.01144
6.64257
10.3351
10.3688
10.4177
10.4701
10.524
10.5762
10.6256
10.6706
10.7108
10.7519
10.7949
10.8379
10.884
10.9295
10.9705
11.0094
11.045
11.079
11.1124
11.1459
11.1779
11.2081
11.2361
11.2631
11.2877
11.3085
11.3244
11.3396
11.3586
11.383
11.4117
11.4391
11.4613
11.4778
11.489
11.4977
11.5082
11.5191
11.5285
11.5347
11.5368
11.5359
11.5312
11.5298
1
1
1
1
1
1
1
1
1
1
1
1
1
1
1
1
1
1
1
1
1
1
1
1
1
1
1
1
1
1
1
1
1
1
1
1
1
1
1
1
1
1
1
1
1
1
1
1
1
1
1.00008
5.82989
10.1936
10.3024
10.3779
10.4471
10.5055
10.5572
10.6047
10.6483
10.6873
10.7247
10.764
10.8036
10.8477
10.8924
10.9341
10.9737
11.0094
11.0416
11.0725
11.1029
11.133
11.1619
11.1892
11.2156
11.24
11.261
11.2773
11.2919
11.3092
11.3306
11.3563
11.3819
11.4038
11.4202
11.4306
11.4372
11.4451
11.4533
11.4606
11.4653
11.4664
11.465
11.4604
11.4594
1
1
1
1
1
1
1
1
1
1
1
1
1
1
1
1
1
1
1
1
1
1
1
1
1
1
1
1
1
1
1
1
1
1
1
1
1
1
1
1
1
1
1
1
1
1
1
1
1
1
1
4.92418
10.0043
10.2542
10.3345
10.4091
10.4714
10.5262
10.5759
10.6206
10.6599
10.6964
10.7346
10.7728
10.8148
10.8578
10.8986
10.9369
10.9709
11.0001
11.028
11.0555
11.0844
11.1126
11.1391
11.1644
11.1881
11.2093
11.2266
11.2415
11.2576
11.276
11.2977
11.3203
11.3407
11.3569
11.3663
11.3707
11.3753
11.38
11.3844
11.3868
11.3864
11.3842
11.3798
11.3788
1
1
1
1
1
1
1
1
1
1
1
1
1
1
1
1
1
1
1
1
1
1
1
1
1
1
1
1
1
1
1
1
1
1
1
1
1
1
1
1
1
1
1
1
1
1
1
1
1
1
1
3.99844
9.73864
10.2219
10.3187
10.3953
10.4566
10.5065
10.5515
10.5925
10.629
10.663
10.6997
10.7376
10.7784
10.8204
10.8611
10.8981
10.9312
10.9588
10.984
11.0079
11.0339
11.0602
11.0853
11.1092
11.1322
11.1535
11.1719
11.1876
11.2029
11.2183
11.2355
11.2539
11.2715
11.2864
11.2944
11.2963
11.2969
11.2972
11.2977
11.2977
11.2961
11.2936
11.2898
11.2892
1
1
1
1
1
1
1
1
1
1
1
1
1
1
1
1
1
1
1
1
1
1
1
1
1
1
1
1
1
1
1
1
1
1
1
1
1
1
1
1
1
1
1
1
1
1
1
1
1
1
1
3.13602
9.32617
10.2237
10.2978
10.3646
10.4231
10.4788
10.5273
10.5683
10.6048
10.6369
10.6704
10.7054
10.743
10.7828
10.8213
10.856
10.8871
10.914
10.9375
10.9587
10.9824
11.0063
11.0289
11.0504
11.072
11.0932
11.1124
11.1289
11.1436
11.1564
11.1691
11.1825
11.196
11.2085
11.2142
11.2136
11.2102
11.2061
11.2024
11.1988
11.1945
11.19
11.1853
11.1836
1
1
1
1
1
1
1
1
1
1
1
1
1
1
1
1
1
1
1
1
1
1
1
1
1
1
1
1
1
1
1
1
1
1
1
1
1
1
1
1
1
1
1
1
1
1
1
1
1
1
1
2.29891
8.70508
10.2801
10.2998
10.3648
10.4143
10.4605
10.4997
10.5363
10.5721
10.6055
10.6401
10.6744
10.7095
10.7468
10.7827
10.8143
10.8431
10.869
10.891
10.9096
10.9295
10.9506
10.9708
10.9898
11.0093
11.0291
11.0479
11.0644
11.0784
11.0889
11.0974
11.1053
11.1138
11.1221
11.1245
11.1204
11.1123
11.1027
11.0935
11.0856
11.0783
11.072
11.0665
11.0646
1
1
1
1
1
1
1
1
1
1
1
1
1
1
1
1
1
1
1
1
1
1
1
1
1
1
1
1
1
1
1
1
1
1
1
1
1
1
1
1
1
1
1
1
1
1
1
1
1
1
1
1.53681
8.0311
10.3845
10.2705
10.3181
10.3661
10.4193
10.4685
10.5095
10.543
10.5754
10.6086
10.6413
10.6744
10.7097
10.7444
10.7745
10.8014
10.8256
10.8461
10.8626
10.879
10.8963
10.9131
10.9287
10.9451
10.9626
10.9796
10.9946
11.0069
11.0152
11.0199
11.0217
11.0245
11.0271
11.0248
11.0161
11.0032
10.9887
10.9746
10.9613
10.9481
10.9355
10.9252
10.9194
1
1
1
1
1
1
1
1
1
1
1
1
1
1
1
1
1
1
1
1
1
1
1
1
1
1
1
1
1
1
1
1
1
1
1
1
1
1
1
1
1
1
1
1
1
1
1
1
1
1
1
1.04211
7.1385
10.3384
10.2459
10.3002
10.3463
10.3914
10.4329
10.4735
10.5102
10.5431
10.5747
10.6064
10.6387
10.6719
10.705
10.7339
10.7595
10.782
10.801
10.8158
10.829
10.8425
10.8563
10.8692
10.8822
10.896
10.9096
10.9213
10.9306
10.9361
10.9361
10.9323
10.9282
10.9238
10.9151
10.9002
10.8811
10.8594
10.8369
10.8144
10.7929
10.774
10.7599
10.7534
1
1
1
1
1
1
1
1
1
1
1
1
1
1
1
1
1
1
1
1
1
1
1
1
1
1
1
1
1
1
1
1
1
1
1
1
1
1
1
1
1
1
1
1
1
1
1
1
1
1
1
1.00022
5.97349
10.0553
10.1589
10.2396
10.302
10.3577
10.4046
10.4417
10.4723
10.5029
10.5354
10.5683
10.6007
10.6326
10.6643
10.6925
10.7173
10.738
10.7548
10.7681
10.7783
10.7883
10.7991
10.8093
10.8192
10.8292
10.8384
10.8454
10.8502
10.8516
10.8464
10.8366
10.825
10.8122
10.7952
10.7722
10.7449
10.7148
10.6838
10.652
10.6192
10.5854
10.5564
10.5374
1
1
1
1
1
1
1
1
1
1
1
1
1
1
1
1
1
1
1
1
1
1
1
1
1
1
1
1
1
1
1
1
1
1
1
1
1
1
1
1
1
1
1
1
1
1
1
1
1
1
1
0.999999
4.8031
9.83698
10.0882
10.1931
10.2694
10.3215
10.3646
10.4007
10.433
10.4639
10.4939
10.5246
10.5579
10.5904
10.6212
10.6488
10.6728
10.6921
10.7069
10.7184
10.7259
10.7324
10.7405
10.7482
10.755
10.7611
10.7656
10.7675
10.7666
10.7623
10.7517
10.7356
10.7157
10.693
10.666
10.6328
10.5946
10.5529
10.507
10.4548
10.3977
10.3435
10.2998
10.2814
1
1
1
1
1
1
1
1
1
1
1
1
1
1
1
1
1
1
1
1
1
1
1
1
1
1
1
1
1
1
1
1
1
1
1
1
1
1
1
1
1
1
1
1
1
1
1
1
1
1
1
1
3.65259
9.37105
10.0845
10.177
10.2465
10.2997
10.3391
10.3703
10.3981
10.4234
10.4496
10.4794
10.5115
10.5431
10.5734
10.6008
10.6245
10.6431
10.6566
10.6659
10.6709
10.6747
10.6794
10.6847
10.6887
10.691
10.6905
10.6866
10.6794
10.6682
10.6513
10.6282
10.5993
10.5659
10.5274
10.4816
10.4291
10.3706
10.3047
10.2305
10.1489
10.066
9.97765
9.9028
1
1
1
1
1
1
1
1
1
1
1
1
1
1
1
1
1
1
1
1
1
1
1
1
1
1
1
1
1
1
1
1
1
1
1
1
1
1
1
1
1
1
1
1
1
1
1
1
1
1
1
1
2.51233
8.68315
10.1356
10.1636
10.2091
10.2563
10.3009
10.338
10.3665
10.3904
10.4126
10.4361
10.4635
10.4942
10.5228
10.5488
10.5713
10.5897
10.6028
10.6096
10.6124
10.6134
10.6151
10.6176
10.6189
10.6175
10.6122
10.6028
10.5888
10.5705
10.5464
10.5155
10.4771
10.432
10.3804
10.3198
10.2496
10.1703
10.0782
9.96695
9.82723
9.66084
9.49647
9.37735
1
1
1
1
1
1
1
1
1
1
1
1
1
1
1
1
1
1
1
1
1
1
1
1
1
1
1
1
1
1
1
1
1
1
1
1
1
1
1
1
1
1
1
1
1
1
1
1
1
1
1
1
1.50674
7.94126
10.2833
10.1484
10.1679
10.214
10.2623
10.3014
10.3307
10.3545
10.3759
10.3975
10.4211
10.4467
10.4721
10.4957
10.5157
10.5327
10.5454
10.5498
10.5507
10.5493
10.5481
10.5473
10.5453
10.5402
10.5305
10.5157
10.495
10.4692
10.4367
10.397
10.3484
10.291
10.2252
10.1481
10.0572
9.95053
9.82078
9.65752
9.45404
9.20815
8.94202
8.77225
1
1
1
1
1
1
1
1
1
1
1
1
1
1
1
1
1
1
1
1
1
1
1
1
1
1
1
1
1
1
1
1
1
1
1
1
1
1
1
1
1
1
1
1
1
1
1
1
1
1
1
1
1.03138
6.82249
10.1207
10.0694
10.1174
10.1669
10.2204
10.2645
10.295
10.3178
10.3377
10.3573
10.3781
10.4011
10.4239
10.4441
10.4603
10.4739
10.4844
10.487
10.4856
10.4817
10.4775
10.473
10.4671
10.4582
10.4443
10.4248
10.3979
10.3646
10.3234
10.2741
10.2149
10.1449
10.0638
9.9683
9.85366
9.71526
9.54401
9.32553
9.02904
8.58634
7.74557
5.7934
1
1
1
1
1
1
1
1
1
1
1
1
1
1
1
1
1
1
1
1
1
1
1
1
1
1
1
1
1
1
1
1
1
1
1
1
1
1
1
1
1
1
1
1
1
1
1
1
1
1
1
1
1.00006
5.34398
9.75232
9.98463
10.075
10.1343
10.1811
10.2246
10.2558
10.2781
10.2967
10.3145
10.3329
10.353
10.3738
10.3922
10.406
10.4153
10.422
10.4235
10.4191
10.4124
10.405
10.3964
10.386
10.3725
10.3543
10.33
10.2974
10.2569
10.2069
10.1475
10.0773
9.99432
9.89718
9.78218
9.64256
9.47023
9.25235
8.96197
8.55128
7.90871
6.93748
4.72242
1
1
1
1
1
1
1
1
1
1
1
1
1
1
1
1
1
1
1
1
1
1
1
1
1
1
1
1
1
1
1
1
1
1
1
1
1
1
1
1
1
1
1
1
1
1
1
1
1
1
1
1
0.999999
3.97824
9.42302
9.97203
10.0497
10.1142
10.1572
10.1852
10.2119
10.2341
10.2524
10.2689
10.2852
10.3026
10.321
10.3374
10.3496
10.3562
10.3593
10.3584
10.3512
10.3412
10.33
10.317
10.3019
10.2834
10.2605
10.2315
10.1937
10.1465
10.0881
10.0187
9.93717
9.84117
9.72775
9.59262
9.42757
9.22234
8.95865
8.61217
8.11193
7.45241
6.16623
4.35854
1
1
1
1
1
1
1
1
1
1
1
1
1
1
1
1
1
1
1
1
1
1
1
1
1
1
1
1
1
1
1
1
1
1
1
1
1
1
1
1
1
1
1
1
1
1
1
1
1
1
1
1
1
2.60777
8.69319
10.0223
10.0374
10.0784
10.1158
10.1485
10.1748
10.1947
10.2108
10.2246
10.238
10.2521
10.2675
10.2812
10.2918
10.2971
10.2976
10.2934
10.2836
10.2703
10.2548
10.2372
10.217
10.1929
10.1646
10.1304
10.0872
10.0336
9.9675
9.88861
9.79601
9.68722
9.55794
9.40351
9.21405
8.98034
8.67832
8.29082
7.74595
6.99072
5.75009
4.25414
1
1
1
1
1
1
1
1
1
1
1
1
1
1
1
1
1
1
1
1
1
1
1
1
1
1
1
1
1
1
1
1
1
1
1
1
1
1
1
1
1
1
1
1
1
1
1
1
1
1
1
1
1
1.45801
7.85674
10.182
10.0494
10.0318
10.0659
10.1034
10.1312
10.1513
10.1659
10.1777
10.1886
10.1994
10.2118
10.2229
10.2319
10.2358
10.2344
10.2271
10.2145
10.198
10.1781
10.1556
10.1306
10.1013
10.0674
10.0276
9.97901
9.9192
9.84594
9.7583
9.65499
9.53387
9.38962
9.21765
9.00696
8.74893
8.42023
7.99722
7.43897
6.65496
5.55799
4.36379
1
1
1
1
1
1
1
1
1
1
1
1
1
1
1
1
1
1
1
1
1
1
1
1
1
1
1
1
1
1
1
1
1
1
1
1
1
1
1
1
1
1
1
1
1
1
1
1
1
1
1
1
1
1.02399
6.54617
9.91006
9.90939
9.96105
10.0049
10.0488
10.0804
10.1031
10.1182
10.1293
10.1383
10.1462
10.1559
10.1646
10.1714
10.1739
10.1709
10.161
10.1458
10.1257
10.1016
10.0743
10.0446
10.0106
9.97088
9.92499
9.87023
9.80408
9.72406
9.62863
9.51571
9.38336
9.22585
9.03856
8.81114
8.53373
8.18818
7.74768
7.18767
6.43616
5.50426
4.51176
1
1
1
1
1
1
1
1
1
1
1
1
1
1
1
1
1
1
1
1
1
1
1
1
1
1
1
1
1
1
1
1
1
1
1
1
1
1
1
1
1
1
1
1
1
1
1
1
1
1
1
1
1
0.999999
4.85761
9.50003
9.85362
9.93723
9.97571
10.0024
10.0313
10.0538
10.0689
10.0795
10.0868
10.0918
10.0987
10.1053
10.11
10.1112
10.1066
10.095
10.0768
10.0527
10.0239
9.99164
9.95714
9.91897
9.87427
9.82245
9.7616
9.68932
9.60292
9.50045
9.37899
9.23661
9.06775
8.86771
8.6278
8.33762
7.98316
7.54242
6.98939
6.30784
5.5092
4.65046
1
1
1
1
1
1
1
1
1
1
1
1
1
1
1
1
1
1
1
1
1
1
1
1
1
1
1
1
1
1
1
1
1
1
1
1
1
1
1
1
1
1
1
1
1
1
1
1
1
1
1
1
1
0.999995
3.26212
9.00596
9.87821
9.91016
9.93332
9.96249
9.9885
10.0083
10.0224
10.0321
10.0376
10.0397
10.0432
10.0469
10.0487
10.0482
10.0416
10.0288
10.008
9.98006
9.9465
9.90917
9.86987
9.82778
9.77903
9.72165
9.6544
9.57582
9.48313
9.37445
9.24594
9.0954
8.91763
8.70804
8.45957
8.16251
7.80599
7.37295
6.84638
6.23129
5.53026
4.78976
1
1
1
1
1
1
1
1
1
1
1
1
1
1
1
1
1
1
1
1
1
1
1
1
1
1
1
1
1
1
1
1
1
1
1
1
1
1
1
1
1
1
1
1
1
1
1
1
1
1
1
1
1
0.999999
1.8487
8.22143
9.94004
9.85933
9.87709
9.91827
9.94505
9.96311
9.97654
9.98523
9.98842
9.98809
9.988
9.988
9.98638
9.98351
9.97522
9.96144
9.93907
9.90818
9.87024
9.82797
9.78358
9.73704
9.68424
9.62199
9.54868
9.46414
9.36554
9.25142
9.11725
8.96046
8.776
8.55981
8.30631
8.0071
7.65496
7.23359
6.74599
6.18781
5.55951
4.92359
1
1
1
1
1
1
1
1
1
1
1
1
1
1
1
1
1
1
1
1
1
1
1
1
1
1
1
1
1
1
1
1
1
1
1
1
1
1
1
1
1
1
1
1
1
1
1
1
1
1
1
1
1
1
1.07701
6.84329
9.91741
9.84157
9.84192
9.87068
9.89617
9.91502
9.9299
9.93845
9.94043
9.93826
9.93495
9.93095
9.92534
9.91897
9.90837
9.89283
9.86924
9.83627
9.79459
9.74769
9.69827
9.64712
9.59049
9.52422
9.44561
9.35507
9.25089
9.13191
8.99341
8.83241
8.64384
8.42426
8.16913
7.87103
7.52878
7.11989
6.67105
6.16418
5.59792
5.0489
1
1
1
1
1
1
1
1
1
1
1
1
1
1
1
1
1
1
1
1
1
1
1
1
1
1
1
1
1
1
1
1
1
1
1
1
1
1
1
1
1
1
1
1
1
1
1
1
1
1
1
1
1
1
1.00043
5.03674
9.4256
9.71183
9.79008
9.83285
9.84847
9.8656
9.88091
9.89024
9.89174
9.88828
9.88216
9.87412
9.86433
9.85379
9.84052
9.82269
9.79775
9.7636
9.71964
9.66935
9.61578
9.56013
9.49935
9.42917
9.34592
9.24961
9.14005
9.01649
8.87491
8.71145
8.52086
8.30028
8.04674
7.75307
7.42138
7.02748
6.61628
6.15317
5.6421
5.15228
1
1
1
1
1
1
1
1
1
1
1
1
1
1
1
1
1
1
1
1
1
1
1
1
1
1
1
1
1
1
1
1
1
1
1
1
1
1
1
1
1
1
1
1
1
1
1
1
1
1
1
1
1
1
0.999996
3.2125
8.94201
9.77496
9.779
9.78409
9.80155
9.8216
9.83617
9.84503
9.8446
9.83873
9.82946
9.81773
9.80435
9.78993
9.77367
9.75296
9.7258
9.69021
9.64471
9.59166
9.53445
9.47439
9.40937
9.33568
9.24905
9.14844
9.03435
8.90643
8.76197
8.597
8.40664
8.18764
7.93735
7.65128
7.3276
6.95783
6.58111
6.14561
5.68213
5.23383
1
1
1
1
1
1
1
1
1
1
1
1
1
1
1
1
1
1
1
1
1
1
1
1
1
1
1
1
1
1
1
1
1
1
1
1
1
1
1
1
1
1
1
1
1
1
1
1
1
1
1
1
1
1
0.999999
1.67838
8.09086
9.86353
9.73756
9.71899
9.74794
9.77306
9.78821
9.79746
9.79561
9.78806
9.7762
9.76136
9.74493
9.72726
9.70765
9.68391
9.65405
9.61645
9.56993
9.51533
9.45541
9.3915
9.32248
9.24545
9.15607
9.05244
8.93486
8.80321
8.65588
8.48955
8.3
8.08447
7.8402
7.56312
7.24872
6.90975
6.55295
6.13398
5.72379
5.30897
1
1
1
1
1
1
1
1
1
1
1
1
1
1
1
1
1
1
1
1
1
1
1
1
1
1
1
1
1
1
1
1
1
1
1
1
1
1
1
1
1
1
1
1
1
1
1
1
1
1
1
1
1
1
1
1.04604
6.57262
9.64454
9.61845
9.65304
9.69065
9.71949
9.73695
9.74759
9.7453
9.73617
9.72189
9.70443
9.68561
9.66532
9.6424
9.61559
9.58305
9.54362
9.49638
9.44097
9.37842
9.31046
9.23721
9.15684
9.06536
8.96033
8.84105
8.70694
8.55716
8.38965
8.201
7.98928
7.75252
7.48443
7.18629
6.87234
6.52338
6.13449
5.77344
5.3778
1
1
1
1
1
1
1
1
1
1
1
1
1
1
1
1
1
1
1
1
1
1
1
1
1
1
1
1
1
1
1
1
1
1
1
1
1
1
1
1
1
1
1
1
1
1
1
1
1
1
1
1
1
1
1
1.0001
4.54305
9.1827
9.55863
9.63087
9.66468
9.68096
9.6916
9.69901
9.69512
9.68424
9.66792
9.64845
9.62779
9.6052
9.57926
9.54949
9.51441
9.47332
9.42506
9.36889
9.30413
9.23253
9.15522
9.07148
8.97805
8.87237
8.75266
8.61742
8.46593
8.29763
8.11037
7.90229
7.67349
7.41453
7.13394
6.8368
6.50316
6.1539
5.8149
5.43337
1
1
1
1
1
1
1
1
1
1
1
1
1
1
1
1
1
1
1
1
1
1
1
1
1
1
1
1
1
1
1
1
1
1
1
1
1
1
1
1
1
1
1
1
1
1
1
1
1
1
1
1
1
1
1
0.999999
2.5476
8.53223
9.65499
9.62945
9.6284
9.63979
9.64859
9.65168
9.64579
9.63294
9.61485
9.59361
9.57114
9.54624
9.51736
9.48456
9.44712
9.40491
9.35616
9.29945
9.23307
9.15827
9.07674
8.9891
8.89331
8.78723
8.66815
8.53331
8.38128
8.21261
8.02696
7.82207
7.60191
7.35124
7.08483
6.80545
6.49383
6.17359
5.84313
5.48635
1
1
1
1
1
1
1
1
1
1
1
1
1
1
1
1
1
1
1
1
1
1
1
1
1
1
1
1
1
1
1
1
1
1
1
1
1
1
1
1
1
1
1
1
1
1
1
1
1
1
1
1
1
1
1
1
1.20787
7.25343
9.72766
9.608
9.57642
9.58666
9.59651
9.59944
9.59345
9.58015
9.56169
9.53977
9.51617
9.48956
9.4585
9.42314
9.3835
9.33995
9.2903
9.23267
9.16494
9.08773
9.00241
8.91074
8.81212
8.7052
8.58689
8.45348
8.30239
8.13428
7.95064
7.74929
7.53636
7.29243
7.0424
6.78135
6.48441
6.18449
5.86884
5.54653
1
1
1
1
1
1
1
1
1
1
1
1
1
1
1
1
1
1
1
1
1
1
1
1
1
1
1
1
1
1
1
1
1
1
1
1
1
1
1
1
1
1
1
1
1
1
1
1
1
1
1
1
1
1
1
1
1.00382
5.34937
9.24598
9.45102
9.51885
9.54335
9.54913
9.54781
9.54101
9.52747
9.50909
9.4869
9.46238
9.43436
9.40172
9.36429
9.32252
9.2772
9.22613
9.16754
9.09908
9.02042
8.93199
8.8366
8.73485
8.62626
8.50805
8.37641
8.22755
8.06112
7.88021
7.68238
7.47347
7.23944
7.00927
6.75576
6.47087
6.19284
5.89697
5.60384
1
1
1
1
1
1
1
1
1
1
1
1
1
1
1
1
1
1
1
1
1
1
1
1
1
1
1
1
1
1
1
1
1
1
1
1
1
1
1
1
1
1
1
1
1
1
1
1
1
1
1
1
1
1
1
1
0.999967
3.09482
8.71676
9.52905
9.50686
9.49736
9.50436
9.50241
9.49364
9.47899
9.45999
9.43714
9.41147
9.38199
9.34797
9.309
9.26516
9.21745
9.16414
9.1041
9.03493
8.95525
8.86455
8.76633
8.66184
8.55103
8.43191
8.30161
8.15584
7.99261
7.81573
7.62155
7.41653
7.19615
6.97837
6.72379
6.46131
6.20288
5.92666
5.64906
1
1
1
1
1
1
1
1
1
1
1
1
1
1
1
1
1
1
1
1
1
1
1
1
1
1
1
1
1
1
1
1
1
1
1
1
1
1
1
1
1
1
1
1
1
1
1
1
1
1
1
1
1
1
1
1
0.999992
1.37526
7.63145
9.63522
9.487
9.44803
9.44361
9.44499
9.43879
9.42665
9.40885
9.38628
9.35976
9.32901
9.29378
9.25392
9.20868
9.15886
9.10316
9.04136
8.97123
8.89074
8.79889
8.69942
8.59325
8.48015
8.35928
8.22899
8.08602
7.92709
7.75548
7.56623
7.36607
7.1589
6.94254
6.69539
6.4601
6.21088
5.94958
5.68249
1
1
1
1
1
1
1
1
1
1
1
1
1
1
1
1
1
1
1
1
1
1
1
1
1
1
1
1
1
1
1
1
1
1
1
1
1
1
1
1
1
1
1
1
1
1
1
1
1
1
1
1
1
1
1
1
0.999999
1.01299
5.7536
9.19538
9.31784
9.37462
9.39742
9.39456
9.38782
9.37742
9.36031
9.33757
9.30969
9.27712
9.2403
9.19926
9.15291
9.10131
9.04341
8.97974
8.90823
8.82666
8.73455
8.63542
8.52891
8.41407
8.29138
8.16014
8.01917
7.86433
7.69996
7.51701
7.32302
7.12549
6.9092
6.68024
6.45789
6.21334
5.96903
5.7141
1
1
1
1
1
1
1
1
1
1
1
1
1
1
1
1
1
1
1
1
1
1
1
1
1
1
1
1
1
1
1
1
1
1
1
1
1
1
1
1
1
1
1
1
1
1
1
1
1
1
1
1
1
1
1
1
1
0.999941
3.32645
8.70162
9.38574
9.3684
9.3527
9.35075
9.34777
9.33596
9.3167
9.29168
9.26076
9.22503
9.18573
9.14271
9.09516
9.04243
8.9831
8.91787
8.84471
8.76208
8.67072
8.57369
8.46845
8.35281
8.22861
8.09609
7.95621
7.80391
7.64716
7.4705
7.28528
7.09383
6.88087
6.66831
6.45115
6.2149
5.98442
5.74394
1
1
1
1
1
1
1
1
1
1
1
1
1
1
1
1
1
1
1
1
1
1
1
1
1
1
1
1
1
1
1
1
1
1
1
1
1
1
1
1
1
1
1
1
1
1
1
1
1
1
1
1
1
1
1
1
1
0.999985
1.43208
7.66772
9.50531
9.34995
9.31091
9.29783
9.29789
9.28662
9.26849
9.243
9.21085
9.17347
9.13228
9.08707
9.03784
8.98381
8.92322
8.8566
8.78208
8.69891
8.60915
8.51486
8.41135
8.29563
8.17114
8.03784
7.89832
7.748
7.59745
7.42736
7.25207
7.06477
6.85939
6.65736
6.44607
6.22108
6.00012
5.77333
1
1
1
1
1
1
1
1
1
1
1
1
1
1
1
1
1
1
1
1
1
1
1
1
1
1
1
1
1
1
1
1
1
1
1
1
1
1
1
1
1
1
1
1
1
1
1
1
1
1
1
1
1
1
1
1
1
0.999997
1.01686
5.73373
9.07215
9.17721
9.23054
9.25888
9.25266
9.23754
9.21949
9.19371
9.16101
9.12248
9.07968
9.03214
8.98077
8.92517
8.8634
8.79549
8.71984
8.63686
8.54938
8.45766
8.35561
8.2409
8.11708
7.98392
7.84473
7.69739
7.55064
7.38668
7.21917
7.03615
6.84128
6.64673
6.4416
6.22564
6.01432
5.79891
1
1
1
1
1
1
1
1
1
1
1
1
1
1
1
1
1
1
1
1
1
1
1
1
1
1
1
1
1
1
1
1
1
1
1
1
1
1
1
1
1
1
1
1
1
1
1
1
1
1
1
1
1
1
1
1
1
1
0.999939
3.17161
8.53805
9.25189
9.24276
9.23208
9.21404
9.19833
9.17796
9.1497
9.11517
9.07509
9.03043
8.98038
8.9265
8.86856
8.80535
8.73643
8.66061
8.57916
8.49359
8.40264
8.30136
8.18738
8.06562
7.93417
7.79693
7.65382
7.50762
7.34915
7.18664
7.00992
6.82481
6.63639
6.43953
6.23263
6.0319
5.82428
1
1
1
1
1
1
1
1
1
1
1
1
1
1
1
1
1
1
1
1
1
1
1
1
1
1
1
1
1
1
1
1
1
1
1
1
1
1
1
1
1
1
1
1
1
1
1
1
1
1
1
1
1
1
1
1
1
1
0.999984
1.32979
7.35856
9.36634
9.23129
9.17758
9.15954
9.1469
9.12608
9.09918
9.06532
9.02519
8.97952
8.92782
8.87202
8.81218
8.74818
8.67893
8.60372
8.52367
8.43873
8.34714
8.24617
8.13428
8.01553
7.88747
7.75403
7.61462
7.46744
7.31341
7.15455
6.9841
6.80547
6.62507
6.43873
6.24034
6.04797
5.84391
1
1
1
1
1
1
1
1
1
1
1
1
1
1
1
1
1
1
1
1
1
1
1
1
1
1
1
1
1
1
1
1
1
1
1
1
1
1
1
1
1
1
1
1
1
1
1
1
1
1
1
1
1
1
1
1
1
1
0.999997
1.00953
5.23386
8.91358
9.0702
9.11372
9.12064
9.10585
9.08148
9.05366
9.01961
8.9783
8.93071
8.87722
8.81936
8.75785
8.69301
8.62403
8.55038
8.47171
8.38645
8.29406
8.19302
8.08342
7.96898
7.84563
7.71599
7.57841
7.43153
7.28071
7.12451
6.95897
6.78628
6.61645
6.43849
6.24713
6.06173
5.86202
1
1
1
1
1
1
1
1
1
1
1
1
1
1
1
1
1
1
1
1
1
1
1
1
1
1
1
1
1
1
1
1
1
1
1
1
1
1
1
1
1
1
1
1
1
1
1
1
1
1
1
1
1
1
1
1
1
1
1
0.999949
2.61849
8.32658
9.12898
9.11522
9.09684
9.06365
9.03507
9.00696
8.97411
8.93148
8.88211
8.82741
8.76801
8.70553
8.64022
8.57218
8.4995
8.42121
8.33519
8.24188
8.14111
8.03411
7.92408
7.80598
7.67994
7.54377
7.39901
7.25056
7.09684
6.93525
6.76964
6.60936
6.4351
6.24941
6.07216
5.88107
1
1
1
1
1
1
1
1
1
1
1
1
1
1
1
1
1
1
1
1
1
1
1
1
1
1
1
1
1
1
1
1
1
1
1
1
1
1
1
1
1
1
1
1
1
1
1
1
1
1
1
1
1
1
1
1
1
1
1
0.999988
1.19218
6.75478
9.13175
9.08046
9.05172
9.01404
8.98445
8.9566
8.92397
8.88072
8.83126
8.77726
8.71846
8.65654
8.59167
8.52428
8.4523
8.37433
8.28783
8.1944
8.09436
7.98965
7.88232
7.76821
7.64535
7.5116
7.37031
7.22425
7.07387
6.91613
6.75677
6.60193
6.42958
6.25187
6.08392
5.90237
1
1
1
1
1
1
1
1
1
1
1
1
1
1
1
1
1
1
1
1
1
1
1
1
1
1
1
1
1
1
1
1
1
1
1
1
1
1
1
1
1
1
1
1
1
1
1
1
1
1
1
1
1
1
1
1
1
1
1
0.999998
1.00276
4.16128
8.6419
9.01273
8.99539
8.96011
8.94429
8.92041
8.88358
8.83686
8.7862
8.73275
8.67482
8.61312
8.54819
8.48017
8.40814
8.32987
8.24351
8.15035
8.05142
7.94848
7.84249
7.73082
7.61045
7.48018
7.34307
7.20046
7.05491
6.90109
6.74626
6.59344
6.42404
6.25629
6.0962
5.92223
1
1
1
1
1
1
1
1
1
1
1
1
1
1
1
1
1
1
1
1
1
1
1
1
1
1
1
1
1
1
1
1
1
1
1
1
1
1
1
1
1
1
1
1
1
1
1
1
1
1
1
1
1
1
1
1
1
1
1
1
0.999989
1.69309
7.80039
9.1732
9.00478
8.95308
8.91051
8.87431
8.83164
8.78605
8.73911
8.68876
8.63286
8.572
8.50719
8.43869
8.36679
8.28838
8.20295
8.11078
8.01352
7.91184
7.80627
7.69535
7.57651
7.45011
7.31735
7.17936
7.03923
6.88916
6.73756
6.58683
6.42227
6.26239
6.10703
5.93948
1
1
1
1
1
1
1
1
1
1
1
1
1
1
1
1
1
1
1
1
1
1
1
1
1
1
1
1
1
1
1
1
1
1
1
1
1
1
1
1
1
1
1
1
1
1
1
1
1
1
1
1
1
1
1
1
1
1
1
1
0.999998
1.03902
5.82692
8.80039
8.83033
8.85826
8.85844
8.82226
8.77591
8.73608
8.69602
8.6496
8.59552
8.53494
8.46925
8.39931
8.3261
8.24758
8.16361
8.07331
7.97797
7.87741
7.77211
7.66116
7.54343
7.42068
7.29213
7.15941
7.02441
6.87814
6.72934
6.58158
6.42372
6.26844
6.11481
5.95254
1
1
1
1
1
1
1
1
1
1
1
1
1
1
1
1
1
1
1
1
1
1
1
1
1
1
1
1
1
1
1
1
1
1
1
1
1
1
1
1
1
1
1
1
1
1
1
1
1
1
1
1
1
1
1
1
1
1
1
1
1
1.00003
2.98665
8.20172
8.8802
8.86494
8.83522
8.78049
8.73729
8.70162
8.66256
8.61666
8.56263
8.50132
8.43417
8.36258
8.28782
8.20918
8.12607
8.03767
7.94419
7.84487
7.73993
7.62885
7.51211
7.39236
7.26773
7.14027
7.00967
6.86722
6.72201
6.57827
6.42685
6.27397
6.12172
5.96424
1
1
1
1
1
1
1
1
1
1
1
1
1
1
1
1
1
1
1
1
1
1
1
1
1
1
1
1
1
1
1
1
1
1
1
1
1
1
1
1
1
1
1
1
1
1
1
1
1
1
1
1
1
1
1
1
1
1
1
1
1
0.999997
1.26857
6.75835
8.92416
8.83323
8.77862
8.73054
8.69678
8.66399
8.62507
8.57895
8.52543
8.46495
8.3983
8.32653
8.25077
8.17171
8.08878
8.00188
7.90989
7.81208
7.70829
7.59817
7.48317
7.36591
7.24452
7.12092