/*--------------------------------*- C++ -*----------------------------------*\
  =========                 |
  \\      /  F ield         | OpenFOAM: The Open Source CFD Toolbox
   \\    /   O peration     | Website:  https://openfoam.org
    \\  /    A nd           | Version:  7
     \\/     M anipulation  |
\*---------------------------------------------------------------------------*/
FoamFile
{
    version     2.0;
    format      ascii;
    class       volScalarField;
    location    "2.1";
    object      rho;
}
// * * * * * * * * * * * * * * * * * * * * * * * * * * * * * * * * * * * * * //

dimensions      [1 -3 0 0 0 0 0];

internalField   nonuniform List<scalar> 
64512
(
1.40001
1.40001
1.40001
1.40001
1.40001
1.40001
1.40001
1.40001
1.40001
1.40001
1.40001
1.40001
1.40001
1.40001
1.40001
1.40001
1.40001
1.40001
1.40001
1.40001
1.40001
1.40001
1.40001
1.40001
1.40001
1.40001
1.40001
1.40001
1.40001
1.40001
1.40001
1.40001
1.40001
1.40001
1.40001
1.40001
1.40001
1.40001
1.40001
1.40001
1.40001
1.40001
1.40001
1.40001
1.40001
1.40001
1.40001
1.40001
1.40001
1.52388
4.29958
5.45476
5.45029
5.46596
5.48607
5.50982
5.53627
5.56321
5.58784
5.60853
5.62573
5.6412
5.65549
5.66845
5.67971
5.69075
5.70497
5.7243
5.74695
5.77134
5.79517
5.81608
5.83036
5.83648
5.83757
5.83907
5.84449
5.85374
5.86719
5.88524
5.90487
5.92291
5.9379
5.94936
5.95697
5.96085
5.96139
5.96015
5.95922
5.95803
5.95609
5.95154
5.94276
5.93155
5.9235
5.92333
1.40001
1.40001
1.40001
1.40001
1.40001
1.40001
1.40001
1.40001
1.40001
1.40001
1.40001
1.40001
1.40001
1.40001
1.40001
1.40001
1.40001
1.40001
1.40001
1.40001
1.40001
1.40001
1.40001
1.40001
1.40001
1.40001
1.40001
1.40001
1.40001
1.40001
1.40001
1.40001
1.40001
1.40001
1.40001
1.40001
1.40001
1.40001
1.40001
1.40001
1.40001
1.40001
1.40001
1.40001
1.40001
1.40001
1.40001
1.40001
1.40001
1.52028
4.28503
5.44613
5.45125
5.46695
5.48665
5.51021
5.53666
5.56363
5.58826
5.60883
5.62587
5.64112
5.65529
5.66825
5.67942
5.69017
5.70408
5.72301
5.74544
5.76989
5.79413
5.81549
5.82992
5.83587
5.83657
5.83772
5.84309
5.85272
5.86664
5.88486
5.90437
5.92217
5.93694
5.94825
5.95579
5.95965
5.96012
5.95879
5.95779
5.95671
5.95512
5.95091
5.94217
5.93065
5.922
5.92123
1.40001
1.40001
1.40001
1.40001
1.40001
1.40001
1.40001
1.40001
1.40001
1.40001
1.40001
1.40001
1.40001
1.40001
1.40001
1.40001
1.40001
1.40001
1.40001
1.40001
1.40001
1.40001
1.40001
1.40001
1.40001
1.40001
1.40001
1.40001
1.40001
1.40001
1.40001
1.40001
1.40001
1.40001
1.40001
1.40001
1.40001
1.40001
1.40001
1.40001
1.40001
1.40001
1.40001
1.40001
1.40001
1.40001
1.40001
1.40001
1.40001
1.51272
4.26084
5.4367
5.44988
5.46514
5.48551
5.50975
5.53665
5.56389
5.58862
5.60894
5.62559
5.64045
5.65444
5.66741
5.67857
5.68907
5.70263
5.721
5.74295
5.76738
5.79202
5.81398
5.82876
5.83469
5.83506
5.83582
5.84103
5.85095
5.86534
5.88374
5.90322
5.92093
5.93554
5.94667
5.95408
5.95783
5.95821
5.95669
5.95548
5.95441
5.95319
5.94944
5.94086
5.92905
5.91978
5.91819
1.40001
1.40001
1.40001
1.40001
1.40001
1.40001
1.40001
1.40001
1.40001
1.40001
1.40001
1.40001
1.40001
1.40001
1.40001
1.40001
1.40001
1.40001
1.40001
1.40001
1.40001
1.40001
1.40001
1.40001
1.40001
1.40001
1.40001
1.40001
1.40001
1.40001
1.40001
1.40001
1.40001
1.40001
1.40001
1.40001
1.40001
1.40001
1.40001
1.40001
1.40001
1.40001
1.40001
1.40001
1.40001
1.40001
1.40001
1.40001
1.40001
1.49905
4.22583
5.43011
5.44381
5.4609
5.48337
5.50926
5.53711
5.56474
5.58947
5.6094
5.62539
5.63958
5.65313
5.66594
5.67696
5.68702
5.70019
5.71806
5.7396
5.76393
5.7889
5.81141
5.82663
5.83273
5.83294
5.83338
5.83836
5.84843
5.86319
5.88174
5.90118
5.91879
5.93326
5.94431
5.95172
5.95535
5.95551
5.9537
5.95212
5.95109
5.95029
5.94701
5.93857
5.92639
5.91644
5.91397
1.40001
1.40001
1.40001
1.40001
1.40001
1.40001
1.40001
1.40001
1.40001
1.40001
1.40001
1.40001
1.40001
1.40001
1.40001
1.40001
1.40001
1.40001
1.40001
1.40001
1.40001
1.40001
1.40001
1.40001
1.40001
1.40001
1.40001
1.40001
1.40001
1.40001
1.40001
1.40001
1.40001
1.40001
1.40001
1.40001
1.40001
1.40001
1.40001
1.40001
1.40001
1.40001
1.40001
1.40001
1.40001
1.40001
1.40001
1.40001
1.40001
1.46072
4.17471
5.43793
5.44321
5.45901
5.48056
5.50634
5.53446
5.56236
5.587
5.60685
5.62312
5.63772
5.65149
5.66439
5.67517
5.68455
5.69716
5.71452
5.73571
5.75968
5.78459
5.80744
5.82318
5.8298
5.83023
5.83057
5.83529
5.84524
5.86008
5.8786
5.89797
5.91555
5.93009
5.94129
5.94891
5.95255
5.95241
5.95014
5.94811
5.94705
5.94657
5.9436
5.93519
5.92266
5.91217
5.90895
1.40001
1.40001
1.40001
1.40001
1.40001
1.40001
1.40001
1.40001
1.40001
1.40001
1.40001
1.40001
1.40001
1.40001
1.40001
1.40001
1.40001
1.40001
1.40001
1.40001
1.40001
1.40001
1.40001
1.40001
1.40001
1.40001
1.40001
1.40001
1.40001
1.40001
1.40001
1.40001
1.40001
1.40001
1.40001
1.40001
1.40001
1.40001
1.40001
1.40001
1.40001
1.40001
1.40001
1.40001
1.40001
1.40001
1.40001
1.40001
1.40001
1.40696
4.09768
5.44895
5.44434
5.45814
5.47765
5.50226
5.53006
5.55821
5.58326
5.60378
5.62096
5.63619
5.65006
5.66273
5.67298
5.68156
5.69358
5.71054
5.73153
5.75493
5.77937
5.80222
5.81844
5.8259
5.827
5.82759
5.83216
5.84181
5.85635
5.87455
5.89364
5.91118
5.92593
5.93751
5.94547
5.94914
5.94862
5.94581
5.9433
5.94218
5.94191
5.9391
5.93065
5.91794
5.90722
5.90361
1.40001
1.40001
1.40001
1.40001
1.40001
1.40001
1.40001
1.40001
1.40001
1.40001
1.40001
1.40001
1.40001
1.40001
1.40001
1.40001
1.40001
1.40001
1.40001
1.40001
1.40001
1.40001
1.40001
1.40001
1.40001
1.40001
1.40001
1.40001
1.40001
1.40001
1.40001
1.40001
1.40001
1.40001
1.40001
1.40001
1.40001
1.40001
1.40001
1.40001
1.40001
1.40001
1.40001
1.40001
1.40001
1.40001
1.40001
1.40001
1.40001
1.40009
3.98008
5.43575
5.43892
5.45399
5.4741
5.49887
5.52626
5.55344
5.57763
5.59841
5.6168
5.63335
5.6481
5.66108
5.6711
5.679
5.69025
5.70648
5.72703
5.74969
5.77329
5.79589
5.81253
5.82105
5.8232
5.8244
5.82898
5.8382
5.85206
5.86951
5.88803
5.90544
5.92057
5.93274
5.94119
5.94497
5.94414
5.94088
5.93797
5.93675
5.93654
5.93365
5.92501
5.91221
5.90154
5.8979
1.40001
1.40001
1.40001
1.40001
1.40001
1.40001
1.40001
1.40001
1.40001
1.40001
1.40001
1.40001
1.40001
1.40001
1.40001
1.40001
1.40001
1.40001
1.40001
1.40001
1.40001
1.40001
1.40001
1.40001
1.40001
1.40001
1.40001
1.40001
1.40001
1.40001
1.40001
1.40001
1.40001
1.40001
1.40001
1.40001
1.40001
1.40001
1.40001
1.40001
1.40001
1.40001
1.40001
1.40001
1.40001
1.40001
1.40001
1.40001
1.40001
1.40001
3.83852
5.42236
5.43617
5.45106
5.47086
5.49476
5.52083
5.54648
5.56997
5.59158
5.61167
5.62984
5.64574
5.65931
5.66943
5.67698
5.68745
5.70251
5.72207
5.74397
5.76656
5.78873
5.80573
5.81536
5.81875
5.82081
5.82552
5.83426
5.84723
5.86372
5.88153
5.89879
5.91435
5.92721
5.93615
5.94004
5.93893
5.93531
5.93214
5.93079
5.9304
5.92726
5.91834
5.90548
5.89504
5.89165
1.40001
1.40001
1.40001
1.40001
1.40001
1.40001
1.40001
1.40001
1.40001
1.40001
1.40001
1.40001
1.40001
1.40001
1.40001
1.40001
1.40001
1.40001
1.40001
1.40001
1.40001
1.40001
1.40001
1.40001
1.40001
1.40001
1.40001
1.40001
1.40001
1.40001
1.40001
1.40001
1.40001
1.40001
1.40001
1.40001
1.40001
1.40001
1.40001
1.40001
1.40001
1.40001
1.40001
1.40001
1.40001
1.40001
1.40001
1.40001
1.40001
1.40001
3.67835
5.40244
5.4325
5.4473
5.467
5.49003
5.5149
5.53917
5.56207
5.58425
5.6055
5.62489
5.64204
5.65686
5.66789
5.67569
5.68539
5.6988
5.71677
5.73778
5.75932
5.78098
5.79828
5.80903
5.81376
5.81676
5.82167
5.82994
5.84197
5.85742
5.8745
5.89155
5.9074
5.9207
5.9299
5.93379
5.93248
5.9287
5.92549
5.92412
5.92353
5.92011
5.91094
5.8981
5.88799
5.88501
1.40001
1.40001
1.40001
1.40001
1.40001
1.40001
1.40001
1.40001
1.40001
1.40001
1.40001
1.40001
1.40001
1.40001
1.40001
1.40001
1.40001
1.40001
1.40001
1.40001
1.40001
1.40001
1.40001
1.40001
1.40001
1.40001
1.40001
1.40001
1.40001
1.40001
1.40001
1.40001
1.40001
1.40001
1.40001
1.40001
1.40001
1.40001
1.40001
1.40001
1.40001
1.40001
1.40001
1.40001
1.40001
1.40001
1.40001
1.40001
1.40001
1.40001
3.4997
5.37622
5.43052
5.44543
5.46461
5.48595
5.50921
5.53233
5.55471
5.57709
5.59885
5.61888
5.63711
5.6535
5.66607
5.67456
5.68358
5.6952
5.71112
5.73095
5.75149
5.77263
5.79026
5.80216
5.80824
5.81217
5.81728
5.82517
5.83637
5.85091
5.86732
5.88405
5.89983
5.91311
5.92222
5.92605
5.92478
5.92115
5.91816
5.9169
5.91617
5.91242
5.90288
5.88995
5.88006
5.87742
1.40001
1.40001
1.40001
1.40001
1.40001
1.40001
1.40001
1.40001
1.40001
1.40001
1.40001
1.40001
1.40001
1.40001
1.40001
1.40001
1.40001
1.40001
1.40001
1.40001
1.40001
1.40001
1.40001
1.40001
1.40001
1.40001
1.40001
1.40001
1.40001
1.40001
1.40001
1.40001
1.40001
1.40001
1.40001
1.40001
1.40001
1.40001
1.40001
1.40001
1.40001
1.40001
1.40001
1.40001
1.40001
1.40001
1.40001
1.40001
1.40001
1.40001
3.30215
5.34131
5.4314
5.44622
5.46474
5.48424
5.50555
5.52718
5.54887
5.57061
5.59208
5.61233
5.63142
5.64947
5.664
5.67364
5.68231
5.69227
5.70579
5.72394
5.74335
5.76385
5.78192
5.79512
5.80261
5.80733
5.81239
5.81968
5.83
5.84372
5.85961
5.87601
5.89146
5.90436
5.91313
5.91692
5.91589
5.91267
5.91011
5.90906
5.90822
5.90414
5.89422
5.88108
5.87119
5.86873
1.40001
1.40001
1.40001
1.40001
1.40001
1.40001
1.40001
1.40001
1.40001
1.40001
1.40001
1.40001
1.40001
1.40001
1.40001
1.40001
1.40001
1.40001
1.40001
1.40001
1.40001
1.40001
1.40001
1.40001
1.40001
1.40001
1.40001
1.40001
1.40001
1.40001
1.40001
1.40001
1.40001
1.40001
1.40001
1.40001
1.40001
1.40001
1.40001
1.40001
1.40001
1.40001
1.40001
1.40001
1.40001
1.40001
1.40001
1.40001
1.40001
1.40001
3.08699
5.29532
5.43493
5.44926
5.46734
5.48521
5.50438
5.52405
5.54412
5.56441
5.58495
5.60498
5.62443
5.64376
5.66025
5.67143
5.68037
5.68936
5.70086
5.71736
5.73573
5.75563
5.77398
5.78819
5.79673
5.80183
5.80647
5.81297
5.82248
5.83566
5.85134
5.86761
5.88268
5.89495
5.90311
5.90668
5.90588
5.90318
5.90115
5.90039
5.8995
5.89516
5.88489
5.8714
5.86122
5.85867
1.40001
1.40001
1.40001
1.40001
1.40001
1.40001
1.40001
1.40001
1.40001
1.40001
1.40001
1.40001
1.40001
1.40001
1.40001
1.40001
1.40001
1.40001
1.40001
1.40001
1.40001
1.40001
1.40001
1.40001
1.40001
1.40001
1.40001
1.40001
1.40001
1.40001
1.40001
1.40001
1.40001
1.40001
1.40001
1.40001
1.40001
1.40001
1.40001
1.40001
1.40001
1.40001
1.40001
1.40001
1.40001
1.40001
1.40001
1.40001
1.40001
1.40001
2.85795
5.23532
5.43824
5.45216
5.47058
5.48746
5.50493
5.52272
5.54048
5.5588
5.57831
5.59808
5.61783
5.63809
5.65619
5.66891
5.67825
5.68627
5.6955
5.70972
5.72655
5.74581
5.76451
5.77989
5.78971
5.79544
5.79985
5.80569
5.81453
5.82722
5.84263
5.85859
5.87302
5.88439
5.89182
5.89508
5.89457
5.89259
5.89121
5.89085
5.89002
5.8855
5.87494
5.86098
5.85028
5.84741
1.40001
1.40001
1.40001
1.40001
1.40001
1.40001
1.40001
1.40001
1.40001
1.40001
1.40001
1.40001
1.40001
1.40001
1.40001
1.40001
1.40001
1.40001
1.40001
1.40001
1.40001
1.40001
1.40001
1.40001
1.40001
1.40001
1.40001
1.40001
1.40001
1.40001
1.40001
1.40001
1.40001
1.40001
1.40001
1.40001
1.40001
1.40001
1.40001
1.40001
1.40001
1.40001
1.40001
1.40001
1.40001
1.40001
1.40001
1.40001
1.40001
1.40001
2.61997
5.15788
5.43855
5.45267
5.47259
5.48958
5.5061
5.52251
5.53787
5.55324
5.57076
5.58973
5.60941
5.63015
5.64965
5.66417
5.6746
5.68253
5.69026
5.70253
5.71787
5.73647
5.75525
5.77142
5.78232
5.78873
5.79301
5.79813
5.80602
5.8178
5.83253
5.84799
5.8619
5.87263
5.87959
5.88269
5.88249
5.88118
5.88039
5.88042
5.87965
5.87495
5.86404
5.8495
5.83805
5.83468
1.40001
1.40001
1.40001
1.40001
1.40001
1.40001
1.40001
1.40001
1.40001
1.40001
1.40001
1.40001
1.40001
1.40001
1.40001
1.40001
1.40001
1.40001
1.40001
1.40001
1.40001
1.40001
1.40001
1.40001
1.40001
1.40001
1.40001
1.40001
1.40001
1.40001
1.40001
1.40001
1.40001
1.40001
1.40001
1.40001
1.40001
1.40001
1.40001
1.40001
1.40001
1.40001
1.40001
1.40001
1.40001
1.40001
1.40001
1.40001
1.40001
1.40001
2.37846
5.05695
5.43887
5.45253
5.47414
5.49125
5.50749
5.52341
5.53802
5.55154
5.56657
5.58363
5.60229
5.62256
5.64277
5.65883
5.67044
5.67862
5.68535
5.69585
5.70964
5.72736
5.74581
5.76222
5.77387
5.78097
5.78538
5.78998
5.7969
5.80752
5.82122
5.83603
5.84959
5.86001
5.86672
5.86972
5.86966
5.86871
5.86834
5.86865
5.86793
5.86312
5.85192
5.83679
5.82453
5.82061
1.40001
1.40001
1.40001
1.40001
1.40001
1.40001
1.40001
1.40001
1.40001
1.40001
1.40001
1.40001
1.40001
1.40001
1.40001
1.40001
1.40001
1.40001
1.40001
1.40001
1.40001
1.40001
1.40001
1.40001
1.40001
1.40001
1.40001
1.40001
1.40001
1.40001
1.40001
1.40001
1.40001
1.40001
1.40001
1.40001
1.40001
1.40001
1.40001
1.40001
1.40001
1.40001
1.40001
1.40001
1.40001
1.40001
1.40001
1.40001
1.40001
1.40001
2.1409
4.93043
5.44219
5.45224
5.47489
5.49167
5.50813
5.52416
5.53877
5.55135
5.56406
5.57873
5.59561
5.61467
5.63492
5.65221
5.66511
5.67405
5.68055
5.68973
5.70206
5.71855
5.73615
5.75223
5.76425
5.77212
5.77702
5.78144
5.78742
5.79659
5.80887
5.82278
5.83601
5.84636
5.85303
5.85601
5.85598
5.85521
5.85513
5.8556
5.85491
5.85
5.83852
5.82281
5.80969
5.80524
1.40001
1.40001
1.40001
1.40001
1.40001
1.40001
1.40001
1.40001
1.40001
1.40001
1.40001
1.40001
1.40001
1.40001
1.40001
1.40001
1.40001
1.40001
1.40001
1.40001
1.40001
1.40001
1.40001
1.40001
1.40001
1.40001
1.40001
1.40001
1.40001
1.40001
1.40001
1.40001
1.40001
1.40001
1.40001
1.40001
1.40001
1.40001
1.40001
1.40001
1.40001
1.40001
1.40001
1.40001
1.40001
1.40001
1.40001
1.40001
1.40001
1.40001
1.91236
4.77784
5.44942
5.45277
5.47558
5.49127
5.5082
5.52455
5.53951
5.55172
5.56277
5.57498
5.58955
5.60684
5.62647
5.64455
5.65869
5.66882
5.67581
5.68418
5.69516
5.71005
5.72627
5.74147
5.75349
5.76204
5.76763
5.77209
5.77719
5.78482
5.7955
5.80833
5.82122
5.83164
5.83842
5.84141
5.84131
5.8405
5.84051
5.84102
5.8403
5.83529
5.82356
5.80731
5.79338
5.78844
1.40001
1.40001
1.40001
1.40001
1.40001
1.40001
1.40001
1.40001
1.40001
1.40001
1.40001
1.40001
1.40001
1.40001
1.40001
1.40001
1.40001
1.40001
1.40001
1.40001
1.40001
1.40001
1.40001
1.40001
1.40001
1.40001
1.40001
1.40001
1.40001
1.40001
1.40001
1.40001
1.40001
1.40001
1.40001
1.40001
1.40001
1.40001
1.40001
1.40001
1.40001
1.40001
1.40001
1.40001
1.40001
1.40001
1.40001
1.40001
1.40001
1.40001
1.71054
4.5903
5.45356
5.44803
5.46771
5.48252
5.50043
5.51836
5.53538
5.54933
5.56055
5.57165
5.58435
5.59964
5.61794
5.63602
5.65094
5.66235
5.67032
5.67841
5.68825
5.70131
5.71578
5.72977
5.74147
5.75054
5.75688
5.76161
5.76605
5.77229
5.78143
5.79308
5.80549
5.81594
5.82283
5.82584
5.8256
5.82457
5.82446
5.82488
5.824
5.81878
5.80671
5.78991
5.77522
5.76987
1.40001
1.40001
1.40001
1.40001
1.40001
1.40001
1.40001
1.40001
1.40001
1.40001
1.40001
1.40001
1.40001
1.40001
1.40001
1.40001
1.40001
1.40001
1.40001
1.40001
1.40001
1.40001
1.40001
1.40001
1.40001
1.40001
1.40001
1.40001
1.40001
1.40001
1.40001
1.40001
1.40001
1.40001
1.40001
1.40001
1.40001
1.40001
1.40001
1.40001
1.40001
1.40001
1.40001
1.40001
1.40001
1.40001
1.40001
1.40001
1.40001
1.40001
1.53339
4.34788
5.43433
5.43712
5.45432
5.4721
5.49208
5.51163
5.52976
5.54487
5.55628
5.56647
5.57773
5.59142
5.60843
5.62613
5.64155
5.65421
5.66347
5.67169
5.68064
5.69192
5.70458
5.71728
5.72852
5.73789
5.74482
5.74982
5.75378
5.75886
5.76658
5.77696
5.78864
5.79889
5.80579
5.80875
5.80834
5.80696
5.80652
5.80666
5.80553
5.80008
5.78773
5.77048
5.75525
5.74964
1.40001
1.40001
1.40001
1.40001
1.40001
1.40001
1.40001
1.40001
1.40001
1.40001
1.40001
1.40001
1.40001
1.40001
1.40001
1.40001
1.40001
1.40001
1.40001
1.40001
1.40001
1.40001
1.40001
1.40001
1.40001
1.40001
1.40001
1.40001
1.40001
1.40001
1.40001
1.40001
1.40001
1.40001
1.40001
1.40001
1.40001
1.40001
1.40001
1.40001
1.40001
1.40001
1.40001
1.40001
1.40001
1.40001
1.40001
1.40001
1.40001
1.40001
1.40867
4.05481
5.38945
5.40775
5.42906
5.45048
5.47249
5.49416
5.51432
5.53143
5.54463
5.55637
5.56829
5.58129
5.59733
5.61458
5.63039
5.64416
5.65465
5.66308
5.67135
5.68108
5.69218
5.70372
5.71443
5.72382
5.73113
5.73643
5.74023
5.74455
5.75108
5.76011
5.77074
5.78049
5.78729
5.79017
5.78957
5.78767
5.78662
5.78613
5.78451
5.77871
5.76604
5.7484
5.73282
5.72706
1.40001
1.40001
1.40001
1.40001
1.40001
1.40001
1.40001
1.40001
1.40001
1.40001
1.40001
1.40001
1.40001
1.40001
1.40001
1.40001
1.40001
1.40001
1.40001
1.40001
1.40001
1.40001
1.40001
1.40001
1.40001
1.40001
1.40001
1.40001
1.40001
1.40001
1.40001
1.40001
1.40001
1.40001
1.40001
1.40001
1.40001
1.40001
1.40001
1.40001
1.40001
1.40001
1.40001
1.40001
1.40001
1.40001
1.40001
1.40001
1.40001
1.40001
1.40008
3.71433
5.31971
5.37191
5.40532
5.43486
5.45992
5.48227
5.50229
5.51944
5.53314
5.54487
5.55661
5.56899
5.58433
5.60121
5.61739
5.63199
5.64355
5.65233
5.66016
5.66859
5.67834
5.68881
5.69895
5.70818
5.71574
5.72141
5.72537
5.72927
5.73481
5.74237
5.75156
5.7604
5.76686
5.76961
5.76876
5.76618
5.76422
5.76281
5.7605
5.75436
5.74152
5.72375
5.70812
5.7024
1.40001
1.40001
1.40001
1.40001
1.40001
1.40001
1.40001
1.40001
1.40001
1.40001
1.40001
1.40001
1.40001
1.40001
1.40001
1.40001
1.40001
1.40001
1.40001
1.40001
1.40001
1.40001
1.40001
1.40001
1.40001
1.40001
1.40001
1.40001
1.40001
1.40001
1.40001
1.40001
1.40001
1.40001
1.40001
1.40001
1.40001
1.40001
1.40001
1.40001
1.40001
1.40001
1.40001
1.40001
1.40001
1.40001
1.40001
1.40001
1.40001
1.40001
1.4
3.33396
5.24905
5.34668
5.38272
5.41557
5.44309
5.46686
5.48766
5.50525
5.51936
5.53128
5.54343
5.55602
5.57109
5.58746
5.60337
5.61785
5.62954
5.63818
5.64573
5.65345
5.66261
5.67245
5.68203
5.69088
5.69847
5.70454
5.70895
5.71283
5.71766
5.72379
5.73122
5.73867
5.74438
5.74693
5.74581
5.74248
5.73937
5.73674
5.73347
5.72675
5.71362
5.69565
5.67995
5.67414
1.40001
1.40001
1.40001
1.40001
1.40001
1.40001
1.40001
1.40001
1.40001
1.40001
1.40001
1.40001
1.40001
1.40001
1.40001
1.40001
1.40001
1.40001
1.40001
1.40001
1.40001
1.40001
1.40001
1.40001
1.40001
1.40001
1.40001
1.40001
1.40001
1.40001
1.40001
1.40001
1.40001
1.40001
1.40001
1.40001
1.40001
1.40001
1.40001
1.40001
1.40001
1.40001
1.40001
1.40001
1.40001
1.40001
1.40001
1.40001
1.40001
1.40001
1.40001
2.9326
5.17157
5.33651
5.37788
5.41108
5.43753
5.4584
5.4763
5.49183
5.50467
5.51585
5.5279
5.54091
5.55584
5.57194
5.58775
5.60184
5.61362
5.62245
5.62984
5.63686
5.6452
5.65429
5.66327
5.67166
5.67923
5.68569
5.69072
5.69488
5.69923
5.704
5.70949
5.71512
5.71956
5.72163
5.72007
5.71589
5.71135
5.70717
5.70268
5.69531
5.682
5.66403
5.64844
5.64267
1.40001
1.40001
1.40001
1.40001
1.40001
1.40001
1.40001
1.40001
1.40001
1.40001
1.40001
1.40001
1.40001
1.40001
1.40001
1.40001
1.40001
1.40001
1.40001
1.40001
1.40001
1.40001
1.40001
1.40001
1.40001
1.40001
1.40001
1.40001
1.40001
1.40001
1.40001
1.40001
1.40001
1.40001
1.40001
1.40001
1.40001
1.40001
1.40001
1.40001
1.40001
1.40001
1.40001
1.40001
1.40001
1.40001
1.40001
1.40001
1.40001
1.40001
1.40001
2.53119
5.04911
5.35528
5.38288
5.40921
5.43223
5.45296
5.46984
5.48328
5.4948
5.50484
5.51568
5.5277
5.54136
5.55636
5.57105
5.5841
5.59532
5.60438
5.61187
5.61855
5.62643
5.63478
5.64288
5.65055
5.6579
5.66463
5.67026
5.67481
5.67887
5.6825
5.6861
5.68961
5.69239
5.69359
5.69135
5.68625
5.6803
5.6746
5.66872
5.66034
5.64633
5.62773
5.61169
5.60548
1.40001
1.40001
1.40001
1.40001
1.40001
1.40001
1.40001
1.40001
1.40001
1.40001
1.40001
1.40001
1.40001
1.40001
1.40001
1.40001
1.40001
1.40001
1.40001
1.40001
1.40001
1.40001
1.40001
1.40001
1.40001
1.40001
1.40001
1.40001
1.40001
1.40001
1.40001
1.40001
1.40001
1.40001
1.40001
1.40001
1.40001
1.40001
1.40001
1.40001
1.40001
1.40001
1.40001
1.40001
1.40001
1.40001
1.40001
1.40001
1.40001
1.40001
1.40001
2.12562
4.8694
5.41133
5.41012
5.42997
5.44573
5.45935
5.4694
5.47802
5.48683
5.49579
5.50621
5.5173
5.52929
5.54252
5.55553
5.56695
5.57717
5.58606
5.5934
5.59951
5.60632
5.61383
5.62122
5.62815
5.63501
5.64159
5.6474
5.65215
5.65601
5.65869
5.66057
5.66187
5.66267
5.66246
5.65915
5.65276
5.6451
5.63748
5.62979
5.62013
5.60537
5.58625
5.56983
5.56342
1.40001
1.40001
1.40001
1.40001
1.40001
1.40001
1.40001
1.40001
1.40001
1.40001
1.40001
1.40001
1.40001
1.40001
1.40001
1.40001
1.40001
1.40001
1.40001
1.40001
1.40001
1.40001
1.40001
1.40001
1.40001
1.40001
1.40001
1.40001
1.40001
1.40001
1.40001
1.40001
1.40001
1.40001
1.40001
1.40001
1.40001
1.40001
1.40001
1.40001
1.40001
1.40001
1.40001
1.40001
1.40001
1.40001
1.40001
1.40001
1.40001
1.40001
1.40001
1.7324
4.66835
5.47496
5.42307
5.43504
5.44654
5.46039
5.47219
5.48048
5.48648
5.4931
5.50131
5.51016
5.51977
5.5307
5.54194
5.55193
5.56092
5.56901
5.57579
5.58121
5.58679
5.59295
5.59918
5.60505
5.61107
5.61713
5.62259
5.62704
5.63039
5.6322
5.63255
5.63166
5.63044
5.6282
5.62315
5.61513
5.60581
5.59648
5.58711
5.57582
5.5593
5.53803
5.51976
5.51183
1.40001
1.40001
1.40001
1.40001
1.40001
1.40001
1.40001
1.40001
1.40001
1.40001
1.40001
1.40001
1.40001
1.40001
1.40001
1.40001
1.40001
1.40001
1.40001
1.40001
1.40001
1.40001
1.40001
1.40001
1.40001
1.40001
1.40001
1.40001
1.40001
1.40001
1.40001
1.40001
1.40001
1.40001
1.40001
1.40001
1.40001
1.40001
1.40001
1.40001
1.40001
1.40001
1.40001
1.40001
1.40001
1.40001
1.40001
1.40001
1.40001
1.40001
1.40001
1.43242
4.29182
5.44596
5.41065
5.43079
5.44637
5.46024
5.47101
5.47979
5.48698
5.49336
5.49978
5.5066
5.51392
5.52204
5.53088
5.53903
5.54666
5.55354
5.55931
5.56372
5.56776
5.57232
5.57735
5.58226
5.58723
5.59223
5.59667
5.6001
5.60239
5.60324
5.60207
5.59918
5.59555
5.59083
5.58349
5.57326
5.56174
5.54981
5.53746
5.52318
5.50412
5.48077
5.46092
5.45261
1.40001
1.40001
1.40001
1.40001
1.40001
1.40001
1.40001
1.40001
1.40001
1.40001
1.40001
1.40001
1.40001
1.40001
1.40001
1.40001
1.40001
1.40001
1.40001
1.40001
1.40001
1.40001
1.40001
1.40001
1.40001
1.40001
1.40001
1.40001
1.40001
1.40001
1.40001
1.40001
1.40001
1.40001
1.40001
1.40001
1.40001
1.40001
1.40001
1.40001
1.40001
1.40001
1.40001
1.40001
1.40001
1.40001
1.40001
1.40001
1.40001
1.40001
1.40001
1.40019
3.78033
5.30431
5.36021
5.39781
5.42458
5.44677
5.46341
5.47484
5.48285
5.49
5.49717
5.50392
5.51007
5.51602
5.52261
5.52898
5.53508
5.54028
5.54436
5.54728
5.54947
5.5521
5.55567
5.55951
5.56337
5.56706
5.57
5.57174
5.57243
5.57193
5.56916
5.5642
5.55791
5.55035
5.54008
5.52701
5.51256
5.49746
5.48197
5.46446
5.44191
5.41346
5.38802
5.37495
1.40001
1.40001
1.40001
1.40001
1.40001
1.40001
1.40001
1.40001
1.40001
1.40001
1.40001
1.40001
1.40001
1.40001
1.40001
1.40001
1.40001
1.40001
1.40001
1.40001
1.40001
1.40001
1.40001
1.40001
1.40001
1.40001
1.40001
1.40001
1.40001
1.40001
1.40001
1.40001
1.40001
1.40001
1.40001
1.40001
1.40001
1.40001
1.40001
1.40001
1.40001
1.40001
1.40001
1.40001
1.40001
1.40001
1.40001
1.40001
1.40001
1.40001
1.40001
1.4
3.27354
5.19055
5.31407
5.36481
5.40077
5.42467
5.44324
5.45828
5.47073
5.48137
5.49015
5.49752
5.50446
5.5103
5.51568
5.52071
5.52545
5.52901
5.53114
5.53215
5.5321
5.53248
5.53432
5.53688
5.53941
5.54149
5.54258
5.54234
5.54113
5.53873
5.534
5.52697
5.51793
5.50688
5.49315
5.47655
5.45806
5.43875
5.4179
5.39279
5.36161
5.32637
5.29538
5.28226
1.40001
1.40001
1.40001
1.40001
1.40001
1.40001
1.40001
1.40001
1.40001
1.40001
1.40001
1.40001
1.40001
1.40001
1.40001
1.40001
1.40001
1.40001
1.40001
1.40001
1.40001
1.40001
1.40001
1.40001
1.40001
1.40001
1.40001
1.40001
1.40001
1.40001
1.40001
1.40001
1.40001
1.40001
1.40001
1.40001
1.40001
1.40001
1.40001
1.40001
1.40001
1.40001
1.40001
1.40001
1.40001
1.40001
1.40001
1.40001
1.40001
1.40001
1.40001
1.4
2.76575
5.02751
5.30754
5.3528
5.3842
5.40794
5.42641
5.44102
5.45374
5.46502
5.47538
5.48537
5.49426
5.50127
5.50706
5.512
5.51612
5.51866
5.51915
5.5181
5.51571
5.51377
5.51345
5.5144
5.51537
5.51563
5.51456
5.51205
5.50849
5.50348
5.49648
5.48708
5.47505
5.46031
5.44262
5.42155
5.3978
5.37236
5.34431
5.31115
5.27088
5.22559
5.17823
5.14397
1.40001
1.40001
1.40001
1.40001
1.40001
1.40001
1.40001
1.40001
1.40001
1.40001
1.40001
1.40001
1.40001
1.40001
1.40001
1.40001
1.40001
1.40001
1.40001
1.40001
1.40001
1.40001
1.40001
1.40001
1.40001
1.40001
1.40001
1.40001
1.40001
1.40001
1.40001
1.40001
1.40001
1.40001
1.40001
1.40001
1.40001
1.40001
1.40001
1.40001
1.40001
1.40001
1.40001
1.40001
1.40001
1.40001
1.40001
1.40001
1.40001
1.40001
1.40001
1.40001
2.24184
4.8552
5.35298
5.35949
5.37498
5.39183
5.40893
5.4242
5.43683
5.44799
5.45835
5.46843
5.47838
5.48769
5.49478
5.50038
5.50463
5.50708
5.50693
5.50424
5.49988
5.49557
5.49295
5.49194
5.49115
5.48939
5.48603
5.48111
5.47465
5.46686
5.45716
5.44504
5.42973
5.41101
5.38878
5.36239
5.3322
5.29898
5.2612
5.2145
5.15283
5.07645
5.00055
4.94927
1.40001
1.40001
1.40001
1.40001
1.40001
1.40001
1.40001
1.40001
1.40001
1.40001
1.40001
1.40001
1.40001
1.40001
1.40001
1.40001
1.40001
1.40001
1.40001
1.40001
1.40001
1.40001
1.40001
1.40001
1.40001
1.40001
1.40001
1.40001
1.40001
1.40001
1.40001
1.40001
1.40001
1.40001
1.40001
1.40001
1.40001
1.40001
1.40001
1.40001
1.40001
1.40001
1.40001
1.40001
1.40001
1.40001
1.40001
1.40001
1.40001
1.40001
1.40001
1.40001
1.72819
4.66759
5.44887
5.38384
5.38241
5.3903
5.40103
5.41132
5.42107
5.43097
5.44106
5.45113
5.46114
5.47058
5.47856
5.48497
5.48963
5.49253
5.49274
5.48936
5.48391
5.47786
5.47306
5.46979
5.46682
5.46286
5.45718
5.4497
5.44009
5.42905
5.41605
5.40068
5.38178
5.35881
5.33161
5.29929
5.26146
5.21794
5.16596
5.10001
5.01498
4.9081
4.78743
4.70397
1.40001
1.40001
1.40001
1.40001
1.40001
1.40001
1.40001
1.40001
1.40001
1.40001
1.40001
1.40001
1.40001
1.40001
1.40001
1.40001
1.40001
1.40001
1.40001
1.40001
1.40001
1.40001
1.40001
1.40001
1.40001
1.40001
1.40001
1.40001
1.40001
1.40001
1.40001
1.40001
1.40001
1.40001
1.40001
1.40001
1.40001
1.40001
1.40001
1.40001
1.40001
1.40001
1.40001
1.40001
1.40001
1.40001
1.40001
1.40001
1.40001
1.40001
1.40001
1.40001
1.42539
4.1794
5.38312
5.36193
5.37683
5.38838
5.3992
5.40677
5.41207
5.41809
5.42564
5.43421
5.44322
5.45231
5.46038
5.46673
5.4712
5.47411
5.47494
5.47187
5.46623
5.45935
5.45293
5.44746
5.44218
5.43591
5.42787
5.41784
5.4051
5.39058
5.37387
5.35472
5.33189
5.30441
5.27178
5.23283
5.18614
5.13053
5.06263
4.9758
4.85596
4.67359
4.31645
3.41415
1.40001
1.40001
1.40001
1.40001
1.40001
1.40001
1.40001
1.40001
1.40001
1.40001
1.40001
1.40001
1.40001
1.40001
1.40001
1.40001
1.40001
1.40001
1.40001
1.40001
1.40001
1.40001
1.40001
1.40001
1.40001
1.40001
1.40001
1.40001
1.40001
1.40001
1.40001
1.40001
1.40001
1.40001
1.40001
1.40001
1.40001
1.40001
1.40001
1.40001
1.40001
1.40001
1.40001
1.40001
1.40001
1.40001
1.40001
1.40001
1.40001
1.40001
1.40001
1.40001
1.40005
3.51992
5.2078
5.31624
5.35604
5.37963
5.39348
5.4027
5.40685
5.40971
5.41386
5.41965
5.42639
5.43368
5.44077
5.44658
5.45056
5.45278
5.45355
5.45149
5.44626
5.43941
5.43216
5.42493
5.41744
5.40877
5.39834
5.38572
5.36991
5.35177
5.33102
5.30757
5.28039
5.24811
5.20968
5.16357
5.1075
5.03881
4.95272
4.838
4.67378
4.4106
3.99172
2.9761
1.40001
1.40001
1.40001
1.40001
1.40001
1.40001
1.40001
1.40001
1.40001
1.40001
1.40001
1.40001
1.40001
1.40001
1.40001
1.40001
1.40001
1.40001
1.40001
1.40001
1.40001
1.40001
1.40001
1.40001
1.40001
1.40001
1.40001
1.40001
1.40001
1.40001
1.40001
1.40001
1.40001
1.40001
1.40001
1.40001
1.40001
1.40001
1.40001
1.40001
1.40001
1.40001
1.40001
1.40001
1.40001
1.40001
1.40001
1.40001
1.40001
1.40001
1.40001
1.40001
1.4
2.92013
5.07569
5.30026
5.33998
5.36886
5.38551
5.3935
5.39887
5.40202
5.40473
5.40805
5.41208
5.41665
5.42148
5.42555
5.42839
5.42961
5.42965
5.428
5.42339
5.41692
5.40937
5.40103
5.39179
5.38101
5.36835
5.35326
5.33463
5.31296
5.28808
5.26005
5.22813
5.19075
5.1462
5.09257
5.02682
4.94529
4.841
4.70372
4.50292
4.23051
3.67874
2.84732
1.40001
1.40001
1.40001
1.40001
1.40001
1.40001
1.40001
1.40001
1.40001
1.40001
1.40001
1.40001
1.40001
1.40001
1.40001
1.40001
1.40001
1.40001
1.40001
1.40001
1.40001
1.40001
1.40001
1.40001
1.40001
1.40001
1.40001
1.40001
1.40001
1.40001
1.40001
1.40001
1.40001
1.40001
1.40001
1.40001
1.40001
1.40001
1.40001
1.40001
1.40001
1.40001
1.40001
1.40001
1.40001
1.40001
1.40001
1.40001
1.40001
1.40001
1.40001
1.40001
1.4
2.29568
4.8661
5.33298
5.33911
5.35491
5.36959
5.38142
5.38948
5.39418
5.39705
5.39909
5.40086
5.40263
5.40458
5.40595
5.40672
5.40649
5.4054
5.40312
5.39857
5.39229
5.38458
5.37559
5.36514
5.35266
5.33796
5.32046
5.29927
5.27433
5.24547
5.21283
5.17588
5.13316
5.08237
5.02133
4.94611
4.85327
4.73339
4.57891
4.35843
4.04469
3.50964
2.82561
1.40001
1.40001
1.40001
1.40001
1.40001
1.40001
1.40001
1.40001
1.40001
1.40001
1.40001
1.40001
1.40001
1.40001
1.40001
1.40001
1.40001
1.40001
1.40001
1.40001
1.40001
1.40001
1.40001
1.40001
1.40001
1.40001
1.40001
1.40001
1.40001
1.40001
1.40001
1.40001
1.40001
1.40001
1.40001
1.40001
1.40001
1.40001
1.40001
1.40001
1.40001
1.40001
1.40001
1.40001
1.40001
1.40001
1.40001
1.40001
1.40001
1.40001
1.40001
1.40001
1.40001
1.70494
4.6398
5.42347
5.36196
5.34692
5.35515
5.36669
5.3758
5.38221
5.3862
5.38844
5.38937
5.38941
5.38926
5.38818
5.3866
5.38419
5.38134
5.37771
5.37229
5.36551
5.35731
5.34766
5.33641
5.32278
5.3065
5.28711
5.26375
5.23597
5.20352
5.16646
5.12439
5.07614
5.01911
4.95101
4.86734
4.76462
4.63348
4.46362
4.23583
3.90799
3.43178
2.88226
1.40001
1.40001
1.40001
1.40001
1.40001
1.40001
1.40001
1.40001
1.40001
1.40001
1.40001
1.40001
1.40001
1.40001
1.40001
1.40001
1.40001
1.40001
1.40001
1.40001
1.40001
1.40001
1.40001
1.40001
1.40001
1.40001
1.40001
1.40001
1.40001
1.40001
1.40001
1.40001
1.40001
1.40001
1.40001
1.40001
1.40001
1.40001
1.40001
1.40001
1.40001
1.40001
1.40001
1.40001
1.40001
1.40001
1.40001
1.40001
1.40001
1.40001
1.40001
1.40001
1.40001
1.41951
4.06663
5.31206
5.31219
5.32877
5.33955
5.3512
5.36029
5.36753
5.37238
5.3752
5.37618
5.37568
5.37465
5.37226
5.36879
5.36426
5.3592
5.35348
5.34649
5.33828
5.32887
5.31815
5.30602
5.29154
5.27396
5.25301
5.22778
5.19764
5.16216
5.12126
5.07441
5.0208
4.95782
4.8832
4.79252
4.68165
4.54297
4.36477
4.13454
3.81831
3.4123
2.95738
1.40001
1.40001
1.40001
1.40001
1.40001
1.40001
1.40001
1.40001
1.40001
1.40001
1.40001
1.40001
1.40001
1.40001
1.40001
1.40001
1.40001
1.40001
1.40001
1.40001
1.40001
1.40001
1.40001
1.40001
1.40001
1.40001
1.40001
1.40001
1.40001
1.40001
1.40001
1.40001
1.40001
1.40001
1.40001
1.40001
1.40001
1.40001
1.40001
1.40001