/*--------------------------------*- C++ -*----------------------------------*\
  =========                 |
  \\      /  F ield         | OpenFOAM: The Open Source CFD Toolbox
   \\    /   O peration     | Website:  https://openfoam.org
    \\  /    A nd           | Version:  7
     \\/     M anipulation  |
\*---------------------------------------------------------------------------*/
FoamFile
{
    version     2.0;
    format      ascii;
    class       volScalarField;
    location    "2.1";
    object      T;
}
// * * * * * * * * * * * * * * * * * * * * * * * * * * * * * * * * * * * * * //

dimensions      [0 0 0 1 0 0 0];

internalField   nonuniform List<scalar> 
64512
(
1
1
1
1
1
1
1
1
1
1
1
1
1
1
1
1
1
1
1
1
1
1
1
1
1
1
1
1
1
1
1
1
1
1
1
1
1
1
1
1
1
1
1
1
1
1
1
1
1
1.11854
2.36618
2.68978
2.70128
2.7098
2.71474
2.7183
2.72113
2.72318
2.72429
2.72488
2.72589
2.72865
2.7345
2.74359
2.75422
2.7638
2.76994
2.7722
2.77241
2.77242
2.77273
2.77413
2.77768
2.78337
2.78942
2.79367
2.7956
2.79628
2.79729
2.79931
2.80206
2.80457
2.8061
2.80686
2.80761
2.80924
2.8118
2.81472
2.81778
2.82061
2.82373
2.82829
2.83538
2.84414
2.85107
2.85418
1
1
1
1
1
1
1
1
1
1
1
1
1
1
1
1
1
1
1
1
1
1
1
1
1
1
1
1
1
1
1
1
1
1
1
1
1
1
1
1
1
1
1
1
1
1
1
1
1
1.11556
2.36375
2.68987
2.70237
2.70975
2.71456
2.71829
2.72127
2.72337
2.72446
2.72498
2.72592
2.72862
2.73448
2.7436
2.75424
2.76376
2.76982
2.77197
2.77213
2.77214
2.77252
2.77405
2.77766
2.78332
2.78927
2.79342
2.79534
2.79608
2.79717
2.79923
2.80196
2.80442
2.8059
2.80663
2.80738
2.80903
2.8116
2.81449
2.81755
2.82039
2.82357
2.8282
2.8353
2.844
2.85081
2.85379
1
1
1
1
1
1
1
1
1
1
1
1
1
1
1
1
1
1
1
1
1
1
1
1
1
1
1
1
1
1
1
1
1
1
1
1
1
1
1
1
1
1
1
1
1
1
1
1
1
1.10875
2.3587
2.69032
2.70288
2.7091
2.71409
2.71818
2.72146
2.72373
2.72481
2.72517
2.72592
2.72849
2.73435
2.74356
2.75425
2.7637
2.76967
2.77167
2.77173
2.77173
2.77218
2.77388
2.7776
2.78325
2.78906
2.79307
2.79495
2.79573
2.79689
2.799
2.80173
2.80414
2.80557
2.80628
2.80704
2.80872
2.81132
2.8142
2.81721
2.82004
2.82328
2.828
2.83515
2.84379
2.85047
2.85329
1
1
1
1
1
1
1
1
1
1
1
1
1
1
1
1
1
1
1
1
1
1
1
1
1
1
1
1
1
1
1
1
1
1
1
1
1
1
1
1
1
1
1
1
1
1
1
1
1
1.09584
2.34832
2.68909
2.70149
2.70829
2.71383
2.71832
2.72185
2.72423
2.72527
2.72548
2.72604
2.7284
2.73418
2.7434
2.75409
2.76346
2.76938
2.77131
2.77131
2.7713
2.77181
2.77364
2.77744
2.78304
2.7887
2.79255
2.79439
2.79523
2.79646
2.79861
2.80132
2.80367
2.80506
2.80576
2.80656
2.8083
2.81091
2.81378
2.81673
2.81953
2.82284
2.82767
2.83488
2.84346
2.85
2.85264
1
1
1
1
1
1
1
1
1
1
1
1
1
1
1
1
1
1
1
1
1
1
1
1
1
1
1
1
1
1
1
1
1
1
1
1
1
1
1
1
1
1
1
1
1
1
1
1
1
1.05999
2.32897
2.68849
2.70054
2.70828
2.71395
2.71845
2.72196
2.72429
2.72525
2.72538
2.72589
2.72826
2.73402
2.74317
2.75373
2.76298
2.76894
2.77093
2.77093
2.77091
2.77143
2.77329
2.77709
2.7826
2.78811
2.79185
2.79369
2.79459
2.79587
2.79803
2.80069
2.80299
2.80436
2.8051
2.80599
2.8078
2.81042
2.81327
2.81614
2.81891
2.82226
2.82717
2.83445
2.84299
2.84941
2.8519
1
1
1
1
1
1
1
1
1
1
1
1
1
1
1
1
1
1
1
1
1
1
1
1
1
1
1
1
1
1
1
1
1
1
1
1
1
1
1
1
1
1
1
1
1
1
1
1
1
1.00676
2.2997
2.68861
2.70015
2.70875
2.71447
2.71882
2.72219
2.72443
2.72535
2.7255
2.72603
2.72842
2.734
2.74278
2.75294
2.762
2.76816
2.77046
2.77059
2.77059
2.77107
2.77284
2.7765
2.78187
2.78726
2.79097
2.79288
2.79385
2.79515
2.79727
2.79985
2.80208
2.80346
2.80427
2.80528
2.80715
2.80975
2.81258
2.81538
2.8181
2.8215
2.82648
2.83383
2.84238
2.84875
2.85116
1
1
1
1
1
1
1
1
1
1
1
1
1
1
1
1
1
1
1
1
1
1
1
1
1
1
1
1
1
1
1
1
1
1
1
1
1
1
1
1
1
1
1
1
1
1
1
1
1
1.00004
2.26385
2.68535
2.70007
2.70892
2.71488
2.71935
2.72265
2.72466
2.72535
2.72549
2.72618
2.72865
2.73394
2.74211
2.75168
2.76049
2.76695
2.76981
2.77028
2.77031
2.77071
2.77229
2.77569
2.78083
2.78612
2.7899
2.79193
2.79301
2.79429
2.79629
2.79873
2.8009
2.80231
2.80323
2.80437
2.80632
2.80891
2.81171
2.81445
2.81716
2.82058
2.8256
2.83299
2.84158
2.84798
2.85038
1
1
1
1
1
1
1
1
1
1
1
1
1
1
1
1
1
1
1
1
1
1
1
1
1
1
1
1
1
1
1
1
1
1
1
1
1
1
1
1
1
1
1
1
1
1
1
1
1
1
2.22158
2.68286
2.70076
2.70907
2.71507
2.71957
2.72277
2.72466
2.72537
2.72574
2.7267
2.72916
2.7339
2.74114
2.74989
2.75838
2.76521
2.76885
2.76988
2.77004
2.77034
2.77166
2.7747
2.77952
2.78468
2.78857
2.79079
2.79201
2.79327
2.79513
2.7974
2.7995
2.80098
2.80203
2.8033
2.80529
2.80787
2.81066
2.81337
2.81608
2.81949
2.82451
2.83192
2.84056
2.84705
2.84951
1
1
1
1
1
1
1
1
1
1
1
1
1
1
1
1
1
1
1
1
1
1
1
1
1
1
1
1
1
1
1
1
1
1
1
1
1
1
1
1
1
1
1
1
1
1
1
1
1
1
2.17217
2.67907
2.70042
2.70834
2.71455
2.71929
2.72269
2.72474
2.72579
2.72653
2.72766
2.72982
2.73373
2.73987
2.74767
2.7558
2.76299
2.76752
2.76931
2.76971
2.76993
2.77098
2.77359
2.77798
2.78294
2.78697
2.78942
2.79081
2.79208
2.7938
2.79591
2.79794
2.79947
2.80062
2.80196
2.80399
2.80656
2.80934
2.81209
2.81482
2.81823
2.82323
2.83066
2.83939
2.846
2.84856
1
1
1
1
1
1
1
1
1
1
1
1
1
1
1
1
1
1
1
1
1
1
1
1
1
1
1
1
1
1
1
1
1
1
1
1
1
1
1
1
1
1
1
1
1
1
1
1
1
1
2.11529
2.67404
2.69862
2.7063
2.71277
2.718
2.72201
2.72467
2.72643
2.72766
2.72886
2.73057
2.73351
2.73843
2.74521
2.75286
2.76028
2.76569
2.76837
2.7692
2.76941
2.77025
2.77241
2.77627
2.78095
2.78507
2.7878
2.78941
2.79072
2.79235
2.79432
2.79627
2.7978
2.79899
2.80034
2.80238
2.805
2.80782
2.81062
2.81341
2.81683
2.82182
2.82923
2.83802
2.84474
2.8474
1
1
1
1
1
1
1
1
1
1
1
1
1
1
1
1
1
1
1
1
1
1
1
1
1
1
1
1
1
1
1
1
1
1
1
1
1
1
1
1
1
1
1
1
1
1
1
1
1
1
2.05006
2.66774
2.69523
2.7028
2.7096
2.71552
2.72057
2.7243
2.72686
2.7286
2.72985
2.73116
2.73328
2.73709
2.74282
2.74984
2.75729
2.76342
2.76701
2.76844
2.76876
2.76947
2.77122
2.77452
2.77883
2.78296
2.78591
2.78773
2.7891
2.79067
2.79254
2.79441
2.79593
2.79711
2.79844
2.80051
2.80321
2.8061
2.80899
2.81186
2.81529
2.82025
2.82764
2.83647
2.84327
2.846
1
1
1
1
1
1
1
1
1
1
1
1
1
1
1
1
1
1
1
1
1
1
1
1
1
1
1
1
1
1
1
1
1
1
1
1
1
1
1
1
1
1
1
1
1
1
1
1
1
1
1.97466
2.65907
2.69089
2.69833
2.70552
2.71213
2.71827
2.72329
2.72676
2.72894
2.73031
2.73139
2.73293
2.73583
2.74052
2.74676
2.75401
2.76068
2.7652
2.76744
2.76808
2.76876
2.77013
2.77282
2.77662
2.78059
2.78367
2.78567
2.78713
2.78871
2.79056
2.79241
2.79391
2.79508
2.79637
2.79844
2.80121
2.8042
2.8072
2.81013
2.81357
2.8185
2.82588
2.83472
2.84154
2.84429
1
1
1
1
1
1
1
1
1
1
1
1
1
1
1
1
1
1
1
1
1
1
1
1
1
1
1
1
1
1
1
1
1
1
1
1
1
1
1
1
1
1
1
1
1
1
1
1
1
1
1.88713
2.64568
2.68709
2.69404
2.70119
2.70813
2.715
2.72113
2.72579
2.72872
2.73047
2.73158
2.73279
2.73499
2.73873
2.74406
2.75078
2.75759
2.76276
2.76577
2.7668
2.76754
2.76867
2.77089
2.77421
2.77796
2.78113
2.78334
2.78494
2.78656
2.7884
2.79021
2.79168
2.7928
2.79405
2.79611
2.79896
2.8021
2.80522
2.80823
2.81168
2.81659
2.82395
2.83278
2.83958
2.8423
1
1
1
1
1
1
1
1
1
1
1
1
1
1
1
1
1
1
1
1
1
1
1
1
1
1
1
1
1
1
1
1
1
1
1
1
1
1
1
1
1
1
1
1
1
1
1
1
1
1
1.78697
2.6257
2.68548
2.69101
2.69751
2.70406
2.71094
2.71755
2.72299
2.72688
2.72941
2.7309
2.7321
2.7339
2.73695
2.74144
2.74749
2.75415
2.75976
2.76353
2.7651
2.76604
2.76708
2.76893
2.77178
2.77525
2.77843
2.78079
2.78248
2.7841
2.78588
2.78765
2.78911
2.79025
2.79154
2.79363
2.79657
2.79986
2.80308
2.80615
2.80959
2.81446
2.82179
2.83057
2.8373
2.83996
1
1
1
1
1
1
1
1
1
1
1
1
1
1
1
1
1
1
1
1
1
1
1
1
1
1
1
1
1
1
1
1
1
1
1
1
1
1
1
1
1
1
1
1
1
1
1
1
1
1
1.6747
2.59751
2.68594
2.68923
2.6947
2.7003
2.70646
2.71285
2.71864
2.7234
2.72703
2.72942
2.73105
2.73283
2.73546
2.73919
2.74437
2.75053
2.75626
2.76063
2.76287
2.76416
2.76521
2.76678
2.7692
2.77234
2.77548
2.77796
2.77975
2.78135
2.78304
2.78477
2.78628
2.78751
2.78889
2.79105
2.79405
2.79741
2.80069
2.8038
2.80723
2.81206
2.81933
2.82805
2.83471
2.8373
1
1
1
1
1
1
1
1
1
1
1
1
1
1
1
1
1
1
1
1
1
1
1
1
1
1
1
1
1
1
1
1
1
1
1
1
1
1
1
1
1
1
1
1
1
1
1
1
1
1
1.54786
2.55784
2.68629
2.68751
2.6921
2.69658
2.70167
2.7073
2.71306
2.71839
2.72304
2.72665
2.72918
2.7313
2.73377
2.73691
2.7412
2.74666
2.75226
2.75707
2.76003
2.76179
2.76297
2.76438
2.76643
2.76927
2.77233
2.77492
2.77678
2.77834
2.77992
2.7816
2.78318
2.78455
2.78607
2.78834
2.79138
2.79475
2.79807
2.80118
2.80458
2.80935
2.81655
2.82521
2.83178
2.83431
1
1
1
1
1
1
1
1
1
1
1
1
1
1
1
1
1
1
1
1
1
1
1
1
1
1
1
1
1
1
1
1
1
1
1
1
1
1
1
1
1
1
1
1
1
1
1
1
1
1
1.40565
2.50495
2.68504
2.68511
2.68936
2.69281
2.69689
2.70166
2.70704
2.71254
2.71787
2.7226
2.72625
2.72902
2.73164
2.73443
2.73795
2.74262
2.7479
2.75294
2.75657
2.75889
2.7603
2.76165
2.76344
2.766
2.76895
2.7716
2.77352
2.77504
2.77653
2.77816
2.77983
2.78137
2.78306
2.78544
2.78851
2.79184
2.79514
2.79825
2.8016
2.80629
2.8134
2.82199
2.8285
2.83099
1
1
1
1
1
1
1
1
1
1
1
1
1
1
1
1
1
1
1
1
1
1
1
1
1
1
1
1
1
1
1
1
1
1
1
1
1
1
1
1
1
1
1
1
1
1
1
1
1
1
1.25841
2.44087
2.68285
2.6825
2.68663
2.68964
2.69319
2.69725
2.7019
2.70695
2.71233
2.71772
2.72237
2.72596
2.72895
2.73162
2.73455
2.73848
2.74329
2.74834
2.75247
2.75535
2.7571
2.7585
2.76015
2.76249
2.76531
2.76798
2.76996
2.77147
2.77291
2.77453
2.77629
2.77801
2.77986
2.78235
2.7854
2.78866
2.79191
2.79498
2.79826
2.80284
2.80982
2.81834
2.82479
2.82725
1
1
1
1
1
1
1
1
1
1
1
1
1
1
1
1
1
1
1
1
1
1
1
1
1
1
1
1
1
1
1
1
1
1
1
1
1
1
1
1
1
1
1
1
1
1
1
1
1
1
1.11461
2.37014
2.68174
2.68316
2.68671
2.68984
2.69318
2.69629
2.69952
2.70322
2.70763
2.71279
2.71791
2.7222
2.72567
2.72846
2.73108
2.73444
2.73872
2.74354
2.74791
2.75124
2.75339
2.75497
2.75661
2.7588
2.76145
2.76407
2.7661
2.76764
2.76908
2.77068
2.77251
2.77438
2.77638
2.77894
2.78196
2.78512
2.78829
2.79129
2.79449
2.79894
2.80578
2.81423
2.82067
2.82314
1
1
1
1
1
1
1
1
1
1
1
1
1
1
1
1
1
1
1
1
1
1
1
1
1
1
1
1
1
1
1
1
1
1
1
1
1
1
1
1
1
1
1
1
1
1
1
1
1
1
1.00522
2.29348
2.68473
2.68436
2.68645
2.68933
2.69232
2.69499
2.69769
2.70074
2.70444
2.70909
2.71411
2.71856
2.72232
2.72528
2.72783
2.73082
2.73457
2.73891
2.74317
2.74671
2.74923
2.75107
2.75279
2.75488
2.75737
2.75989
2.76195
2.76357
2.76505
2.76666
2.76852
2.77049
2.77261
2.77522
2.77821
2.78123
2.78427
2.78714
2.79021
2.7945
2.80117
2.80954
2.81601
2.81851
1
1
1
1
1
1
1
1
1
1
1
1
1
1
1
1
1
1
1
1
1
1
1
1
1
1
1
1
1
1
1
1
1
1
1
1
1
1
1
1
1
1
1
1
1
1
1
1
1
1
1.00003
2.1974
2.68268
2.68496
2.68794
2.69115
2.69376
2.69598
2.69826
2.70095
2.70411
2.70783
2.71201
2.71596
2.71955
2.72253
2.72508
2.72785
2.73112
2.73487
2.73872
2.74215
2.74485
2.74691
2.74874
2.75077
2.7531
2.75552
2.7576
2.7593
2.76084
2.76244
2.76426
2.76625
2.76847
2.77113
2.77406
2.7769
2.77976
2.78244
2.78534
2.78944
2.79595
2.80428
2.81084
2.81341
1
1
1
1
1
1
1
1
1
1
1
1
1
1
1
1
1
1
1
1
1
1
1
1
1
1
1
1
1
1
1
1
1
1
1
1
1
1
1
1
1
1
1
1
1
1
1
1
1
1
1
2.06777
2.66831
2.68502
2.68794
2.69091
2.69333
2.69564
2.6981
2.70085
2.70393
2.70734
2.71106
2.71452
2.71775
2.72055
2.72301
2.72554
2.72834
2.73141
2.73467
2.73776
2.74048
2.74268
2.74458
2.74654
2.7487
2.75099
2.75309
2.75488
2.75649
2.75805
2.75977
2.7617
2.76393
2.76663
2.76948
2.77215
2.77477
2.7772
2.77985
2.7837
2.79001
2.79827
2.80492
2.80754
1
1
1
1
1
1
1
1
1
1
1
1
1
1
1
1
1
1
1
1
1
1
1
1
1
1
1
1
1
1
1
1
1
1
1
1
1
1
1
1
1
1
1
1
1
1
1
1
1
1
1
1.90883
2.63636
2.68165
2.68622
2.68956
2.69228
2.69478
2.69747
2.70029
2.70327
2.70642
2.70982
2.71304
2.71603
2.71874
2.72124
2.72365
2.72618
2.72878
2.73145
2.73398
2.7364
2.73851
2.74038
2.74222
2.74422
2.74637
2.74845
2.75031
2.75196
2.75346
2.75502
2.75682
2.75897
2.76162
2.76434
2.76682
2.76916
2.77127
2.77358
2.77716
2.78327
2.7915
2.79827
2.80097
1
1
1
1
1
1
1
1
1
1
1
1
1
1
1
1
1
1
1
1
1
1
1
1
1
1
1
1
1
1
1
1
1
1
1
1
1
1
1
1
1
1
1
1
1
1
1
1
1
1
1
1.73454
2.58594
2.67275
2.67829
2.68256
2.68627
2.69036
2.69447
2.69833
2.70196
2.70521
2.70839
2.71137
2.71419
2.71689
2.7194
2.72174
2.72407
2.72637
2.7286
2.73065
2.73272
2.7346
2.73627
2.7379
2.73969
2.74167
2.74369
2.74556
2.74722
2.74862
2.75
2.75159
2.75359
2.75607
2.75856
2.76088
2.76295
2.76471
2.76666
2.76987
2.77567
2.78373
2.7905
2.79319
1
1
1
1
1
1
1
1
1
1
1
1
1
1
1
1
1
1
1
1
1
1
1
1
1
1
1
1
1
1
1
1
1
1
1
1
1
1
1
1
1
1
1
1
1
1
1
1
1
1
1
1.51414
2.50281
2.65964
2.66532
2.67234
2.67734
2.68252
2.68761
2.69273
2.69754
2.70166
2.70534
2.70861
2.71163
2.71457
2.71727
2.71964
2.72189
2.72404
2.72598
2.72765
2.7293
2.7309
2.73236
2.73372
2.73523
2.73695
2.7388
2.74059
2.74219
2.74349
2.74468
2.74599
2.7477
2.74986
2.75208
2.75417
2.75588
2.75722
2.75871
2.76148
2.76693
2.77483
2.78163
2.78436
1
1
1
1
1
1
1
1
1
1
1
1
1
1
1
1
1
1
1
1
1
1
1
1
1
1
1
1
1
1
1
1
1
1
1
1
1
1
1
1
1
1
1
1
1
1
1
1
1
1
1
1.24194
2.40847
2.65544
2.65139
2.65781
2.66455
2.67144
2.67825
2.68468
2.6903
2.69531
2.69975
2.70371
2.7074
2.71098
2.71424
2.71696
2.71933
2.72146
2.7233
2.7248
2.72618
2.72751
2.72868
2.72973
2.7309
2.7323
2.73387
2.73545
2.73689
2.73808
2.73906
2.73994
2.74123
2.74296
2.74485
2.74661
2.74796
2.74892
2.74998
2.75221
2.75707
2.76447
2.77101
2.77352
1
1
1
1
1
1
1
1
1
1
1
1
1
1
1
1
1
1
1
1
1
1
1
1
1
1
1
1
1
1
1
1
1
1
1
1
1
1
1
1
1
1
1
1
1
1
1
1
1
1
1
1.01853
2.3286
2.65771
2.65113
2.65529
2.65954
2.66434
2.66974
2.67582
2.68168
2.68696
2.69186
2.69659
2.7012
2.70565
2.7097
2.71301
2.71575
2.71807
2.72002
2.7216
2.72292
2.72411
2.72512
2.72593
2.72677
2.7278
2.72902
2.73029
2.73148
2.73246
2.73304
2.73349
2.73424
2.73543
2.73685
2.73813
2.73899
2.73942
2.73984
2.74123
2.74523
2.75211
2.75848
2.76104
1
1
1
1
1
1
1
1
1
1
1
1
1
1
1
1
1
1
1
1
1
1
1
1
1
1
1
1
1
1
1
1
1
1
1
1
1
1
1
1
1
1
1
1
1
1
1
1
1
1
1
1.00009
2.21222
2.65398
2.65334
2.65579
2.65879
2.66227
2.6662
2.6701
2.67402
2.67834
2.68313
2.6882
2.69345
2.69863
2.70346
2.70749
2.71077
2.71344
2.7157
2.71761
2.71912
2.72035
2.72133
2.72201
2.72261
2.72334
2.72421
2.72512
2.72599
2.72657
2.72662
2.7266
2.72675
2.72725
2.728
2.72862
2.72884
2.72866
2.72847
2.72905
2.73192
2.73756
2.74293
2.74465
1
1
1
1
1
1
1
1
1
1
1
1
1
1
1
1
1
1
1
1
1
1
1
1
1
1
1
1
1
1
1
1
1
1
1
1
1
1
1
1
1
1
1
1
1
1
1
1
1
1
1
1
2.05416
2.65325
2.65776
2.66
2.66206
2.66378
2.66578
2.6677
2.66989
2.6726
2.67599
2.6802
2.68529
2.6907
2.6959
2.70043
2.70422
2.70734
2.71005
2.71248
2.7144
2.71586
2.71699
2.71769
2.71817
2.71868
2.7193
2.71989
2.72026
2.72034
2.71998
2.71938
2.71878
2.71847
2.71837
2.71814
2.71755
2.71646
2.71505
2.71413
2.715
2.71874
2.72308
2.72498
1
1
1
1
1
1
1
1
1
1
1
1
1
1
1
1
1
1
1
1
1
1
1
1
1
1
1
1
1
1
1
1
1
1
1
1
1
1
1
1
1
1
1
1
1
1
1
1
1
1
1
1
1.84892
2.60954
2.66006
2.66175
2.6643
2.66639
2.66747
2.66834
2.66926
2.67022
2.67186
2.67461
2.67846
2.68309
2.68797
2.69253
2.69652
2.7
2.70318
2.70607
2.7085
2.71041
2.71176
2.71265
2.71319
2.71365
2.71405
2.71428
2.71422
2.71383
2.71298
2.71173
2.71031
2.70906
2.70795
2.70667
2.70494
2.70252
2.69943
2.69673
2.69567
2.69681
2.6976
2.69519
1
1
1
1
1
1
1
1
1
1
1
1
1
1
1
1
1
1
1
1
1
1
1
1
1
1
1
1
1
1
1
1
1
1
1
1
1
1
1
1
1
1
1
1
1
1
1
1
1
1
1
1
1.56892
2.5038
2.65083
2.65494
2.65914
2.66307
2.66621
2.66828
2.66942
2.67008
2.6707
2.67181
2.67395
2.67725
2.68108
2.68498
2.68862
2.6921
2.6955
2.69855
2.7014
2.70378
2.7055
2.70663
2.70737
2.70788
2.70818
2.70819
2.70783
2.707
2.70562
2.7037
2.70142
2.6991
2.69683
2.69428
2.69111
2.68701
2.6818
2.67596
2.67002
2.66431
2.65873
2.65258
1
1
1
1
1
1
1
1
1
1
1
1
1
1
1
1
1
1
1
1
1
1
1
1
1
1
1
1
1
1
1
1
1
1
1
1
1
1
1
1
1
1
1
1
1
1
1
1
1
1
1
1
1.22061
2.38192
2.64214
2.63897
2.64475
2.65286
2.66009
2.66516
2.66792
2.6692
2.66976
2.67038
2.67154
2.67347
2.67607
2.67895
2.68178
2.68472
2.68783
2.69062
2.69352
2.69615
2.69819
2.69961
2.70055
2.70121
2.70153
2.70145
2.70089
2.69971
2.69779
2.69518
2.69201
2.68856
2.685
2.681
2.6761
2.66979
2.66149
2.65109
2.63923
2.62657
2.61494
2.61082
1
1
1
1
1
1
1
1
1
1
1
1
1
1
1
1
1
1
1
1
1
1
1
1
1
1
1
1
1
1
1
1
1
1
1
1
1
1
1
1
1
1
1
1
1
1
1
1
1
1
1
1
1.01302
2.28538
2.63212
2.62914
2.63435
2.64156
2.65013
2.65783
2.66312
2.66607
2.66748
2.66833
2.66927
2.67071
2.67262
2.67469
2.67666
2.67869
2.68099
2.68315
2.68555
2.68796
2.69003
2.69158
2.69268
2.69348
2.6939
2.69383
2.69322
2.69183
2.68946
2.68619
2.68215
2.67757
2.6726
2.66695
2.66001
2.65107
2.63928
2.62386
2.60313
2.5721
2.51221
2.37564
1
1
1
1
1
1
1
1
1
1
1
1
1
1
1
1
1
1
1
1
1
1
1
1
1
1
1
1
1
1
1
1
1
1
1
1
1
1
1
1
1
1
1
1
1
1
1
1
1
1
1
1
1.00003
2.1255
2.6217
2.6294
2.63348
2.63736
2.64275
2.6495
2.65556
2.65993
2.66269
2.66445
2.66588
2.66748
2.66936
2.67125
2.67284
2.67413
2.67549
2.67687
2.6783
2.67997
2.68163
2.68298
2.68402
2.68482
2.68529
2.68526
2.68467
2.68318
2.68049
2.67667
2.67182
2.66612
2.65969
2.65225
2.6431
2.63125
2.6154
2.59339
2.56149
2.51037
2.43317
2.2215
1
1
1
1
1
1
1
1
1
1
1
1
1
1
1
1
1
1
1
1
1
1
1
1
1
1
1
1
1
1
1
1
1
1
1
1
1
1
1
1
1
1
1
1
1
1
1
1
1
1
1
1
1
1.90729
2.59911
2.634
2.63478
2.63742
2.64043
2.64379
2.64809
2.65231
2.65572
2.65835
2.66059
2.66283
2.66522
2.66746
2.6692
2.6703
2.67108
2.67168
2.67208
2.6727
2.67351
2.67429
2.67493
2.67547
2.67582
2.67578
2.6752
2.67367
2.6708
2.66655
2.66101
2.65428
2.6464
2.63712
2.62565
2.61083
2.59082
2.56331
2.52208
2.46623
2.34666
2.14306
1
1
1
1
1
1
1
1
1
1
1
1
1
1
1
1
1
1
1
1
1
1
1
1
1
1
1
1
1
1
1
1
1
1
1
1
1
1
1
1
1
1
1
1
1
1
1
1
1
1
1
1
1
1.59034
2.50108
2.63105
2.63197
2.63493
2.63747
2.64019
2.64306
2.64594
2.64869
2.65128
2.65387
2.65667
2.65969
2.66257
2.66494
2.66644
2.66708
2.66712
2.66683
2.66649
2.66627
2.66615
2.66607
2.66599
2.66591
2.66566
2.66492
2.66329
2.6603
2.65578
2.64968
2.64207
2.63286
2.62181
2.60805
2.59052
2.56681
2.53493
2.48814
2.41973
2.29373
2.1078
1
1
1
1
1
1
1
1
1
1
1
1
1
1
1
1
1
1
1
1
1
1
1
1
1
1
1
1
1
1
1
1
1
1
1
1
1
1
1
1
1
1
1
1
1
1
1
1
1
1
1
1
1
1.19724
2.37068
2.62835
2.62388
2.62666
2.63153
2.63568
2.63845
2.64053
2.64237
2.64434
2.64669
2.64949
2.65279
2.65621
2.65932
2.66154
2.66256
2.66246
2.66189
2.66093
2.65981
2.65872
2.65776
2.65687
2.65607
2.65528
2.65413
2.65221
2.64905
2.6443
2.63779
2.62945
2.61909
2.60649
2.5907
2.57073
2.54417
2.50831
2.45869
2.38409
2.2674
2.11963
1
1
1
1
1
1
1
1
1
1
1
1
1
1
1
1
1
1
1
1
1
1
1
1
1
1
1
1
1
1
1
1
1
1
1
1
1
1
1
1
1
1
1
1
1
1
1
1
1
1
1
1
1
1.00992
2.25363
2.61182
2.61158
2.61702
2.62325
2.62903
2.63281
2.63517
2.63673
2.63823
2.6401
2.64241
2.64544
2.64889
2.65237
2.65526
2.65698
2.65725
2.65674
2.65555
2.65389
2.65206
2.65029
2.64855
2.64683
2.64516
2.64326
2.64077
2.63722
2.63219
2.62534
2.61646
2.60522
2.59134
2.57394
2.55193
2.52335
2.48508
2.43383
2.35985
2.2583
2.13584
1
1
1
1
1
1
1
1
1
1
1
1
1
1
1
1
1
1
1
1
1
1
1
1
1
1
1
1
1
1
1
1
1
1
1
1
1
1
1
1
1
1
1
1
1
1
1
1
1
1
1
1
1
1.00001
2.04985
2.59319
2.61177
2.61559
2.61879
2.62235
2.62622
2.62916
2.63112
2.63266
2.63425
2.63599
2.63839
2.64136
2.64462
2.64775
2.65008
2.65106
2.65077
2.6497
2.6479
2.64566
2.64331
2.6409
2.63833
2.63564
2.63274
2.62938
2.62517
2.61968
2.61243
2.6031
2.59121
2.57637
2.5578
2.53439
2.5045
2.46545
2.41366
2.34508
2.25686
2.15124
1
1
1
1
1
1
1
1
1
1
1
1
1
1
1
1
1
1
1
1
1
1
1
1
1
1
1
1
1
1
1
1
1
1
1
1
1
1
1
1
1
1
1
1
1
1
1
1
1
1
1
1
1
0.999999
1.74924
2.53575
2.61071
2.61153
2.613
2.61593
2.61939
2.62261
2.62523
2.62732
2.62902
2.63044
2.63222
2.63442
2.63695
2.6397
2.64214
2.6437
2.64381
2.64308
2.64144
2.63914
2.63654
2.63375
2.63057
2.62696
2.62295
2.61849
2.61332
2.60711
2.59932
2.58955
2.57718
2.56171
2.54241
2.51821
2.48775
2.4488
2.39866
2.33594
2.25837
2.16799
1
1
1
1
1
1
1
1
1
1
1
1
1
1
1
1
1
1
1
1
1
1
1
1
1
1
1
1
1
1
1
1
1
1
1
1
1
1
1
1
1
1
1
1
1
1
1
1
1
1
1
1
1
1
1.3435
2.41185
2.60478
2.60207
2.60458
2.60885
2.61231
2.6156
2.6188
2.62156
2.62363
2.62515
2.62658
2.62808
2.62974
2.63173
2.63375
2.63545
2.63603
2.63558
2.63423
2.63211
2.62955
2.62664
2.62314
2.6189
2.61392
2.60836
2.60207
2.59492
2.5864
2.57607
2.56325
2.54737
2.5277
2.50323
2.47293
2.43464
2.38775
2.33045
2.26099
2.18434
1
1
1
1
1
1
1
1
1
1
1
1
1
1
1
1
1
1
1
1
1
1
1
1
1
1
1
1
1
1
1
1
1
1
1
1
1
1
1
1
1
1
1
1
1
1
1
1
1
1
1
1
1
1
1.03126
2.27564
2.60488
2.59938
2.59959
2.60208
2.60499
2.60828
2.61189
2.61517
2.61776
2.61967
2.6211
2.6222
2.62316
2.62433
2.62562
2.62694
2.62763
2.62733
2.6262
2.62433
2.62194
2.61914
2.61563
2.61113
2.60553
2.59903
2.59167
2.58349
2.57408
2.56305
2.54974
2.53354
2.51376
2.48938
2.45988
2.42255
2.37921
2.32709
2.26464
2.19932
1
1
1
1
1
1
1
1
1
1
1
1
1
1
1
1
1
1
1
1
1
1
1
1
1
1
1
1
1
1
1
1
1
1
1
1
1
1
1
1
1
1
1
1
1
1
1
1
1
1
1
1
1
1
1.00018
2.06716
2.57643
2.58958
2.59417
2.59702
2.5988
2.60145
2.60483
2.60827
2.61116
2.61348
2.61515
2.61619
2.6168
2.61737
2.61798
2.61864
2.61902
2.6187
2.61765
2.61594
2.61375
2.61113
2.60777
2.6033
2.59745
2.59033
2.58213
2.57299
2.56268
2.55087
2.53696
2.52041
2.50064
2.47659
2.44802
2.41204
2.37238
2.32485
2.26881
2.21128
1
1
1
1
1
1
1
1
1
1
1
1
1
1
1
1
1
1
1
1
1
1
1
1
1
1
1
1
1
1
1
1
1
1
1
1
1
1
1
1
1
1
1
1
1
1
1
1
1
1
1
1
1
1
0.999999
1.72926
2.51394
2.59077
2.59085
2.59138
2.59323
2.59575
2.59858
2.60163
2.60423
2.60658
2.60847
2.6097
2.61035
2.61065
2.61081
2.61084
2.61069
2.61012
2.60893
2.60718
2.60502
2.60247
2.59925
2.59496
2.5892
2.58191
2.57326
2.56341
2.55232
2.53975
2.52524
2.50832
2.48847
2.46489
2.43694
2.40324
2.36711
2.32263
2.27224
2.22033
1
1
1
1
1
1
1
1
1
1
1
1
1
1
1
1
1
1
1
1
1
1
1
1
1
1
1
1
1
1
1
1
1
1
1
1
1
1
1
1
1
1
1
1
1
1
1
1
1
1
1
1
1
1
1
1.2779
2.38585
2.5868
2.58136
2.58311
2.58688
2.58995
2.59249
2.59515
2.59717
2.59924
2.60114
2.60261
2.60352
2.60382
2.60377
2.60346
2.60284
2.60185
2.60041
2.59848
2.59618
2.59351
2.59027
2.58611
2.58056
2.57341
2.56471
2.55454
2.54295
2.52977
2.5147
2.49744
2.47756
2.45436
2.42699
2.39616
2.36218
2.31956
2.27559
2.22829
1
1
1
1
1
1
1
1
1
1
1
1
1
1
1
1
1
1
1
1
1
1
1
1
1
1
1
1
1
1
1
1
1
1
1
1
1
1
1
1
1
1
1
1
1
1
1
1
1
1
1
1
1
1
1
1.01883
2.24891
2.57386
2.57081
2.57487
2.57961
2.58333
2.58611
2.58866
2.59028
2.59191
2.59353
2.59504
2.5962
2.59668
2.59662
2.5962
2.59532
2.59403
2.59234
2.59018
2.58756
2.58452
2.581
2.57675
2.57136
2.56451
2.55607
2.54598
2.53424
2.52076
2.50533
2.48781
2.46796
2.44498
2.41867
2.39002
2.35677
2.31766
2.27944
2.23492
1
1
1
1
1
1
1
1
1
1
1
1
1
1
1
1
1
1
1
1
1
1
1
1
1
1
1
1
1
1
1
1
1
1
1
1
1
1
1
1
1
1
1
1
1
1
1
1
1
1
1
1
1
1
1
1.00005
1.98623
2.54345
2.56669
2.57143
2.57472
2.57736
2.57979
2.58211
2.58354
2.58483
2.5861
2.58742
2.58866
2.58933
2.58933
2.58895
2.58802
2.5866
2.58474
2.58238
2.57941
2.5759
2.5719
2.56732
2.56186
2.55521
2.54713
2.53737
2.52579
2.51236
2.49693
2.47937
2.4597
2.43694
2.4117
2.38425
2.35219
2.31728
2.28172
2.23943
1
1
1
1
1
1
1
1
1
1
1
1
1
1
1
1
1
1
1
1
1
1
1
1
1
1
1
1
1
1
1
1
1
1
1
1
1
1
1
1
1
1
1
1
1
1
1
1
1
1
1
1
1
1
1
1
1.55483
2.45057
2.56974
2.56879
2.5694
2.57122
2.57338
2.57532
2.57673
2.57787
2.5789
2.57997
2.58109
2.58181
2.58186
2.58152
2.58063
2.57927
2.57742
2.57498
2.57175
2.5678
2.56322
2.5581
2.55231
2.54566
2.53783
2.52845
2.51724
2.50412
2.48899
2.47165
2.45248
2.43003
2.4056
2.37936
2.3491
2.31697
2.28246
2.24336
1
1
1
1
1
1
1
1
1
1
1
1
1
1
1
1
1
1
1
1
1
1
1
1
1
1
1
1
1
1
1
1
1
1
1
1
1
1
1
1
1
1
1
1
1
1
1
1
1
1
1
1
1
1
1
1
1.08298
2.29888
2.57068
2.5635
2.5632
2.56448
2.56636
2.5681
2.56946
2.5706
2.57161
2.57257
2.57359
2.57431
2.57437
2.57406
2.57324
2.57198
2.57019
2.56772
2.56437
2.56011
2.55506
2.54937
2.5431
2.5362
2.5284
2.51928
2.50845
2.49575
2.48115
2.46433
2.44584
2.42383
2.40063
2.37575
2.34653
2.3162
2.28315
2.24802
1
1
1
1
1
1
1
1
1
1
1
1
1
1
1
1
1
1
1
1
1
1
1
1
1
1
1
1
1
1
1
1
1
1
1
1
1
1
1
1
1
1
1
1
1
1
1
1
1
1
1
1
1
1
1
1
1.00152
2.09653
2.5387
2.54904
2.55571
2.5586
2.56014
2.56113
2.56216
2.56313
2.5641
2.56503
2.56599
2.56671
2.5668
2.56651
2.56574
2.56454
2.56278
2.56032
2.55696
2.5526
2.54724
2.54113
2.53439
2.5271
2.51909
2.51003
2.49946
2.48713
2.4731
2.45694
2.43907
2.41808
2.39671
2.37237
2.34409
2.31574
2.28454
2.25261
1
1
1
1
1
1
1
1
1
1
1
1
1
1
1
1
1
1
1
1
1
1
1
1
1
1
1
1
1
1
1
1
1
1
1
1
1
1
1
1
1
1
1
1
1
1
1
1
1
1
1
1
1
1
1
1
0.999991
1.68771
2.46492
2.55075
2.5505
2.55164
2.55361
2.55468
2.55538
2.55597
2.55664
2.5574
2.55824
2.55895
2.55917
2.55892
2.55819
2.55698
2.55518
2.55268
2.54933
2.54496
2.53949
2.53317
2.52615
2.5185
2.51018
2.50098
2.49052
2.47846
2.46494
2.44939
2.4322
2.41278
2.39282
2.36843
2.34233
2.31583
2.28661
2.25633
1
1
1
1
1
1
1
1
1
1
1
1
1
1
1
1
1
1
1
1
1
1
1
1
1
1
1
1
1
1
1
1
1
1
1
1
1
1
1
1
1
1
1
1
1
1
1
1
1
1
1
1
1
1
1
1
0.999998
1.15234
2.31996
2.54936
2.54148
2.54267
2.54504
2.5471
2.5481
2.54864
2.54904
2.5495
2.55009
2.55072
2.5511
2.55096
2.55034
2.54918
2.54731
2.54474
2.54134
2.53699
2.53154
2.52526
2.5182
2.51037
2.50177
2.49233
2.48183
2.46993
2.4568
2.44179
2.42527
2.40742
2.38793
2.3645
2.34132
2.31589
2.28832
2.25914
1
1
1
1
1
1
1
1
1
1
1
1
1
1
1
1
1
1
1
1
1
1
1
1
1
1
1
1
1
1
1
1
1
1
1
1
1
1
1
1
1
1
1
1
1
1
1
1
1
1
1
1
1
1
1
1
1
1.00522
2.14216
2.52119
2.52443
2.53096
2.53692
2.53937
2.54093
2.54171
2.54185
2.54187
2.54199
2.54231
2.54266
2.54262
2.54217
2.54111
2.53924
2.5366
2.53312
2.52871
2.52334
2.51725
2.51036
2.50254
2.49383
2.48421
2.47365
2.46182
2.44908
2.4345
2.41857
2.40182
2.38262
2.36128
2.33982
2.31518
2.2896
2.2619
1
1
1
1
1
1
1
1
1
1
1
1
1
1
1
1
1
1
1
1
1
1
1
1
1
1
1
1
1
1
1
1
1
1
1
1
1
1
1
1
1
1
1
1
1
1
1
1
1
1
1
1
1
1
1
1
1
0.999989
1.73636
2.45863
2.52673
2.52682
2.52866
2.53179
2.53439
2.53543
2.53529
2.53484
2.53428
2.53398
2.53397
2.53387
2.5335
2.5326
2.53085
2.52824
2.52469
2.52021
2.51492
2.50911
2.50251
2.49485
2.48619
2.47654
2.466
2.45418
2.44184
2.42755
2.41226
2.39606
2.37728
2.35788
2.33725
2.31378
2.28997
2.26422
1
1
1
1
1
1
1
1
1
1
1
1
1
1
1
1
1
1
1
1
1
1
1
1
1
1
1
1
1
1
1
1
1
1
1
1
1
1
1
1
1
1
1
1
1
1
1
1
1
1
1
1
1
1
1
1
1
0.999996
1.17394
2.31837
2.52836
2.51929
2.52017
2.52295
2.52653
2.52834
2.52852
2.52802
2.52708
2.52617
2.52559
2.52516
2.52467
2.52382
2.52223
2.51976
2.51625
2.51177
2.5066
2.50103
2.49466
2.48717
2.47872
2.46921
2.45881
2.44712
2.43516
2.4212
2.40656
2.39054
2.3724
2.35412
2.3343
2.31232
2.28987
2.26604
1
1
1
1
1
1
1
1
1
1
1
1
1
1
1
1
1
1
1
1
1
1
1
1
1
1
1
1
1
1
1
1
1
1
1
1
1
1
1
1
1
1
1
1
1
1
1
1
1
1
1
1
1
1
1
1
1
0.999999
1.00677
2.13509
2.50228
2.50285
2.50768
2.51454
2.51813
2.5206
2.52169
2.52136
2.52039
2.51906
2.51783
2.51678
2.51589
2.5149
2.51339
2.5111
2.50777
2.50344
2.49848
2.49308
2.4868
2.47945
2.47123
2.46195
2.4518
2.4405
2.42887
2.41534
2.40119
2.38531
2.36798
2.35032
2.33113
2.31025
2.28918
2.26687
1
1
1
1
1
1
1
1
1
1
1
1
1
1
1
1
1
1
1
1
1
1
1
1
1
1
1
1
1
1
1
1
1
1
1
1
1
1
1
1
1
1
1
1
1
1
1
1
1
1
1
1
1
1
1
1
1
1
0.99999
1.69615
2.43359
2.50564
2.50616
2.50809
2.51044
2.51321
2.515
2.51495
2.51417
2.51269
2.51093
2.50915
2.50761
2.5062
2.50459
2.50243
2.49939
2.49544
2.49076
2.4854
2.4791
2.47175
2.46374
2.45476
2.44499
2.43429
2.42286
2.40985
2.39607
2.38061
2.36401
2.34674
2.32825
2.30829
2.28845
2.26719
1
1
1
1
1
1
1
1
1
1
1
1
1
1
1
1
1
1
1
1
1
1
1
1
1
1
1
1
1
1
1
1
1
1
1
1
1
1
1
1
1
1
1
1
1
1
1
1
1
1
1
1
1
1
1
1
1
1
0.999996
1.13035
2.2855
2.50903
2.50028
2.49954
2.50147
2.50445
2.50677
2.5077
2.50731
2.50609
2.50417
2.50187
2.49968
2.49773
2.49589
2.49377
2.49103
2.48749
2.48309
2.47775
2.47143
2.46414
2.4563
2.44763
2.43832
2.42816
2.41685
2.4044
2.39102
2.37611
2.36
2.34335
2.32575
2.30653
2.28751
2.26673
1
1
1
1
1
1
1
1
1
1
1
1
1
1
1
1
1
1
1
1
1
1
1
1
1
1
1
1
1
1
1
1
1
1
1
1
1
1
1
1
1
1
1
1
1
1
1
1
1
1
1
1
1
1
1
1
1
1
0.999999
1.00378
2.06063
2.47908
2.48266
2.48851
2.49304
2.49588
2.49824
2.49995
2.5
2.49917
2.49736
2.49485
2.49217
2.48968
2.48747
2.48528
2.48277
2.47961
2.47546
2.47026
2.46398
2.45681
2.44921
2.44086
2.43188
2.42199
2.41088
2.39893
2.38598
2.37163
2.35611
2.34044
2.32358
2.30494
2.28653
2.26615
1
1
1
1
1
1
1
1
1
1
1
1
1
1
1
1
1
1
1
1
1
1
1
1
1
1
1
1
1
1
1
1
1
1
1
1
1
1
1
1
1
1
1
1
1
1
1
1
1
1
1
1
1
1
1
1
1
1
1
0.999989
1.55225
2.39028
2.48244
2.48374
2.48566
2.48692
2.48894
2.49105
2.49197
2.49143
2.48995
2.48761
2.48478
2.48198
2.47942
2.47708
2.47458
2.47158
2.46764
2.46262
2.45654
2.44963
2.44234
2.43431
2.42554
2.41575
2.40492
2.39335
2.38083
2.36704
2.35234
2.33769
2.32122
2.3031
2.28545
2.26593
1
1
1
1
1
1
1
1
1
1
1
1
1
1
1
1
1
1
1
1
1
1
1
1
1
1
1
1
1
1
1
1
1
1
1
1
1
1
1
1
1
1
1
1
1
1
1
1
1
1
1
1
1
1
1
1
1
1
1
0.999997
1.07603
2.2283
2.48218
2.4778
2.47769
2.47776
2.47906
2.48116
2.48274
2.48254
2.48157
2.47977
2.47728
2.47453
2.47182
2.46927
2.46665
2.46365
2.4598
2.45504
2.44928
2.44274
2.43571
2.42795
2.41933
2.40964
2.39908
2.3878
2.37574
2.36251
2.34861
2.33467
2.3185
2.30129
2.28465
2.26612
1
1
1
1
1
1
1
1
1
1
1
1
1
1
1
1
1
1
1
1
1
1
1
1
1
1
1
1
1
1
1
1
1
1
1
1
1
1
1
1
1
1
1
1
1
1
1
1
1
1
1
1
1
1
1
1
1
1
1
0.999999
1.00109
1.88225
2.43551
2.46794
2.46863
2.46868
2.47046
2.47245
2.47371
2.47359
2.47297
2.47173
2.46977
2.46731
2.4646
2.46184
2.45899
2.45581
2.45197
2.44738
2.44197
2.43583
2.42907
2.42154
2.41307
2.40356
2.39327
2.38227
2.37072
2.35799
2.34472
2.33119
2.31553
2.29953
2.28386
2.26624
1
1
1
1
1
1
1
1
1
1
1
1
1
1
1
1
1
1
1
1
1
1
1
1
1
1
1
1
1
1
1
1
1
1
1
1
1
1
1
1
1
1
1
1
1
1
1
1
1
1
1
1
1
1
1
1
1
1
1
1
0.999997
1.26613
2.30818
2.47392
2.46332
2.46339
2.46327
2.46363
2.4639
2.46401
2.46389
2.4633
2.46197
2.45994
2.45742
2.4546
2.45159
2.4482
2.44431
2.43981
2.43469
2.4289
2.4224
2.41509
2.40677
2.39754
2.38754
2.37687
2.36579
2.3535
2.34071
2.3276
2.31265
2.29766
2.28269
2.26597
1
1
1
1
1
1
1
1
1
1
1
1
1
1
1
1
1
1
1
1
1
1
1
1
1
1
1
1
1
1
1
1
1
1
1
1
1
1
1
1
1
1
1
1
1
1
1
1
1
1
1
1
1
1
1
1
1
1
1
1
0.999999
1.01541
2.12716
2.44998
2.44844
2.45125
2.45462
2.45439
2.45408
2.4546
2.4552
2.45502
2.45417
2.45253
2.45024
2.44742
2.44425
2.44067
2.43671
2.43226
2.42732
2.42177
2.41552
2.40841
2.40033
2.39145
2.38178
2.37152
2.36086
2.34892
2.33646
2.32379
2.3097
2.29542
2.28087
2.26495
1
1
1
1
1
1
1
1
1
1
1
1
1
1
1
1
1
1
1
1
1
1
1
1
1
1
1
1
1
1
1
1
1
1
1
1
1
1
1
1
1
1
1
1
1
1
1
1
1
1
1
1
1
1
1
1
1
1
1
1
1
1.00002
1.63879
2.37302
2.44978
2.44941
2.4489
2.44688
2.44637
2.44685
2.4474
2.44728
2.44659
2.44517
2.44304
2.44029
2.43705
2.43337
2.4293
2.42482
2.41994
2.41451
2.40842
2.4015
2.3937
2.38524
2.37598
2.36617
2.35588
2.34425
2.33215
2.31994
2.30664
2.2928
2.27861
2.26342
1
1
1
1
1
1
1
1
1
1
1
1
1
1
1
1
1
1
1
1
1
1
1
1
1
1
1
1
1
1
1
1
1
1
1
1
1
1
1
1
1
1
1
1
1
1
1
1
1
1
1
1
1
1
1
1
1
1
1
1
1
0.999999
1.1057
2.21581
2.45054
2.44405
2.44111
2.43911
2.43912
2.43936
2.43955
2.43935
2.43872
2.43752
2.43564
2.43308
2.42987
2.42614
2.42196
2.41742
2.41249
2.4071
2.40112
2.39441
2.38695
2.3789
2.37008
2.3607
2.35067
2.33942
2.32774
2.31599
2.3033
2.28982
2.27603
2.26159
1
1
1
1
1
1
1
1
1
1
1
1
1
1
1
1
1
1
1
1
1
1