/*--------------------------------*- C++ -*----------------------------------*\
  =========                 |
  \\      /  F ield         | OpenFOAM: The Open Source CFD Toolbox
   \\    /   O peration     | Website:  https://openfoam.org
    \\  /    A nd           | Version:  7
     \\/     M anipulation  |
\*---------------------------------------------------------------------------*/
FoamFile
{
    version     2.0;
    format      ascii;
    class       volScalarField;
    location    "0.4";
    object      p;
}
// * * * * * * * * * * * * * * * * * * * * * * * * * * * * * * * * * * * * * //

dimensions      [1 -1 -2 0 0 0 0];

internalField   nonuniform List<scalar> 
16128
(
1
1
1
1
1
1
1
1
1
1
1
1
1
1
1
1
1
1
1
1
1
1
1
1
1
1
1
1
1
1
1
3.20494
10.492
11.6079
11.5208
11.573
11.7328
11.9313
12.0734
12.1232
12.1595
12.3432
12.581
12.7208
12.686
12.506
12.2516
12.0457
1
1
1
1
1
1
1
1
1
1
1
1
1
1
1
1
1
1
1
1
1
1
1
1
1
1
1
1
1
1
1
3.12765
10.3811
11.5766
11.5108
11.5689
11.7371
11.9394
12.0805
12.1251
12.1584
12.3347
12.5658
12.7035
12.6675
12.4914
12.2373
12.0425
1
1
1
1
1
1
1
1
1
1
1
1
1
1
1
1
1
1
1
1
1
1
1
1
1
1
1
1
1
1
1
2.94789
10.2001
11.5442
11.4841
11.5543
11.7333
11.9452
12.0877
12.1248
12.1496
12.3158
12.5415
12.6786
12.6402
12.4673
12.2111
12.0353
1
1
1
1
1
1
1
1
1
1
1
1
1
1
1
1
1
1
1
1
1
1
1
1
1
1
1
1
1
1
1
2.69134
9.92027
11.5003
11.4482
11.5388
11.7295
11.9519
12.0939
12.1174
12.1275
12.2798
12.5009
12.6425
12.6053
12.4365
12.1786
12.0309
1
1
1
1
1
1
1
1
1
1
1
1
1
1
1
1
1
1
1
1
1
1
1
1
1
1
1
1
1
1
1
2.34451
9.51705
11.4538
11.4143
11.5277
11.7276
11.9551
12.0942
12.1023
12.0926
12.2274
12.4453
12.5966
12.5657
12.4017
12.1425
12.0228
1
1
1
1
1
1
1
1
1
1
1
1
1
1
1
1
1
1
1
1
1
1
1
1
1
1
1
1
1
1
1
1.93133
8.95854
11.4033
11.3947
11.5267
11.7256
11.948
12.0821
12.0765
12.0469
12.1622
12.3752
12.5367
12.5167
12.3604
12.1015
12.0078
1
1
1
1
1
1
1
1
1
1
1
1
1
1
1
1
1
1
1
1
1
1
1
1
1
1
1
1
1
1
1
1.50453
8.20629
11.3523
11.3943
11.5277
11.709
11.9195
12.052
12.0393
11.9922
12.0859
12.2886
12.4562
12.4519
12.3097
12.058
11.9895
1
1
1
1
1
1
1
1
1
1
1
1
1
1
1
1
1
1
1
1
1
1
1
1
1
1
1
1
1
1
1
1.14835
7.32476
11.3205
11.3974
11.5039
11.6676
11.8692
12.0068
11.9941
11.9325
12.0014
12.1888
12.3559
12.366
12.2435
12.0084
11.9622
1
1
1
1
1
1
1
1
1
1
1
1
1
1
1
1
1
1
1
1
1
1
1
1
1
1
1
1
1
1
1
1.00291
6.41844
11.1814
11.3821
11.4535
11.6065
11.7999
11.9486
11.9403
11.8658
11.9033
12.0678
12.2285
12.2517
12.1558
11.9506
11.9269
1
1
1
1
1
1
1
1
1
1
1
1
1
1
1
1
1
1
1
1
1
1
1
1
1
1
1
1
1
1
1
1
5.43178
10.9107
11.3334
11.3883
11.5266
11.7152
11.8761
11.8764
11.7932
11.7955
11.9311
12.0795
12.1114
12.0432
11.8739
11.8677
1
1
1
1
1
1
1
1
1
1
1
1
1
1
1
1
1
1
1
1
1
1
1
1
1
1
1
1
1
1
1
1
4.30516
10.529
11.2651
11.3132
11.4373
11.6184
11.788
11.8014
11.7126
11.6729
11.7659
11.8933
11.934
11.9001
11.7768
11.7903
1
1
1
1
1
1
1
1
1
1
1
1
1
1
1
1
1
1
1
1
1
1
1
1
1
1
1
1
1
1
1
1
3.10323
9.97946
11.2258
11.2366
11.3625
11.5205
11.681
11.7087
11.6176
11.5346
11.5806
11.6877
11.7407
11.735
11.6417
11.648
1
1
1
1
1
1
1
1
1
1
1
1
1
1
1
1
1
1
1
1
1
1
1
1
1
1
1
1
1
1
1
1
1.99658
9.07727
11.2281
11.1712
11.2665
11.391
11.5457
11.603
11.5123
11.3844
11.3708
11.4429
11.4953
11.5091
11.4404
11.4651
1
1
1
1
1
1
1
1
1
1
1
1
1
1
1
1
1
1
1
1
1
1
1
1
1
1
1
1
1
1
1
1
1.18209
7.62498
11.155
11.1046
11.1614
11.2555
11.3949
11.4807
11.3887
11.2183
11.1363
11.1727
11.2312
11.2535
11.1883
11.121
1
1
1
1
1
1
1
1
1
1
1
1
1
1
1
1
1
1
1
1
1
1
1
1
1
1
1
1
1
1
1
1
1.0029
5.66217
10.8528
11.0407
11.0675
11.1217
11.2274
11.3241
11.2369
11.0387
10.8882
10.8688
10.8879
10.8366
10.7116
10.6256
1
1
1
1
1
1
1
1
1
1
1
1
1
1
1
1
1
1
1
1
1
1
1
1
1
1
1
1
1
1
1
1
1
3.59056
10.2518
10.9757
10.9717
10.9787
11.0478
11.1375
11.0632
10.8422
10.6255
10.528
10.5021
10.4112
10.1953
10.1479
1
1
1
1
1
1
1
1
1
1
1
1
1
1
1
1
1
1
1
1
1
1
1
1
1
1
1
1
1
1
1
1
1
1.93223
8.99344
10.9468
10.8561
10.8133
10.8343
10.9129
10.8749
10.6474
10.3817
10.201
10.0786
9.80797
8.86848
6.89465
1
1
1
1
1
1
1
1
1
1
1
1
1
1
1
1
1
1
1
1
1
1
1
1
1
1
1
1
1
1
1
1
1
1.0666
7.09407
10.68
10.713
10.6424
10.6329
10.685
10.6656
10.4441
10.1344
9.84883
9.55544
9.07075
8.06215
5.88372
1
1
1
1
1
1
1
1
1
1
1
1
1
1
1
1
1
1
1
1
1
1
1
1
1
1
1
1
1
1
1
1
1
1.00063
4.70495
10.0968
10.5854
10.4668
10.4181
10.4241
10.4127
10.2348
9.8973
9.52462
9.09876
8.51345
7.4229
5.555
1
1
1
1
1
1
1
1
1
1
1
1
1
1
1
1
1
1
1
1
1
1
1
1
1
1
1
1
1
1
1
1
1
1
2.39986
9.13931
10.493
10.3583
10.2483
10.1832
10.1529
10.0289
9.70055
9.24889
8.72087
8.05827
6.96186
5.47463
1
1
1
1
1
1
1
1
1
1
1
1
1
1
1
1
1
1
1
1
1
1
1
1
1
1
1
1
1
1
1
1
1
1
1.13342
7.18633
10.3247
10.2295
10.1141
9.99112
9.91619
9.80602
9.48582
9.01512
8.4267
7.67785
6.70099
5.49277
1
1
1
1
1
1
1
1
1
1
1
1
1
1
1
1
1
1
1
1
1
1
1
1
1
1
1
1
1
1
1
1
1
1
1.00169
4.23739
9.79604
10.1603
10.0004
9.80378
9.64239
9.55054
9.29162
8.84645
8.22425
7.45139
6.56568
5.56608
1
1
1
1
1
1
1
1
1
1
1
1
1
1
1
1
1
1
1
1
1
1
1
1
1
1
1
1
1
1
1
1
1
1
1
1.76158
8.39613
10.1373
9.92322
9.66524
9.42139
9.24451
9.0639
8.67629
8.08705
7.33134
6.51935
5.66311
1
1
1
1
1
1
1
1
1
1
1
1
1
1
1
1
1
1
1
1
1
1
1
1
1
1
1
1
1
1
1
1
1
1
1
1.03589
5.55717
9.70075
9.83304
9.62946
9.28974
9.00005
8.79257
8.45592
7.96359
7.30178
6.56384
5.78843
1
1
1
1
1
1
1
1
1
1
1
1
1
1
1
1
1
1
1
1
1
1
1
1
1
1
1
1
1
1
1
1
1
1
1
1.00013
2.35783
8.70174
9.75724
9.54601
9.22273
8.85657
8.55578
8.22556
7.80211
7.24872
6.59526
5.90856
1
1
1
1
1
1
1
1
1
1
1
1
1
1
1
1
1
1
1
1
1
1
1
1
1
1
1
1
1
1
1
1
1
1
1
1
1.10116
5.97017
9.30034
9.32798
9.14488
8.80796
8.42701
8.03459
7.62283
7.14815
6.59519
5.99414
1
1
1
1
1
1
1
1
1
1
1
1
1
1
1
1
1
1
1
1
1
1
1
1
1
1
1
1
1
1
1
1
1
1
1
1
1.00081
2.44869
8.41797
9.27268
9.0402
8.75375
8.37233
7.93851
7.49443
7.04051
6.55014
6.02028
1
1
1
1
1
1
1
1
1
1
1
1
1
1
1
1
1
1
1
1
1
1
1
1
1
1
1
1
1
1
1
1
1
1
1
1
1
1.10722
5.53345
8.83414
8.84598
8.6393
8.31596
7.89258
7.43287
6.97312
6.50936
6.02679
1
1
1
1
1
1
1
1
1
1
1
1
1
1
1
1
1
1
1
1
1
1
1
1
1
1
1
1
1
1
1
1
1
1
1
1
1
1.00087
2.03118
7.72457
8.8141
8.5255
8.22528
7.8333
7.39861
6.96415
6.52249
6.05965
1
1
1
1
1
1
1
1
1
1
1
1
1
1
1
1
1
1
1
1
1
1
1
1
1
1
1
1
1
1
1
1
1
1
1
1
1
1
1.05956
4.35686
8.28765
8.48114
8.18604
7.82991
7.41665
6.98876
6.54999
6.10461
1
1
1
1
1
1
1
1
1
1
1
1
1
1
1
1
1
1
1
1
1
1
1
1
1
1
1
1
1
1
1
1
1
1
1
1
1
1
1.00039
1.54859
6.41521
8.31787
8.04307
7.70478
7.38063
7.01911
6.62348
6.20149
1
1
1
1
1
1
1
1
1
1
1
1
1
1
1
1
1
1
1
1
1
1
1
1
1
1
1
1
1
1
1
1
1
1
1
1
1
1
1
1.01699
2.7764
7.52191
8.09354
7.71439
7.37809
7.00688
6.63477
6.26091
1
1
1
1
1
1
1
1
1
1
1
1
1
1
1
1
1
1
1
1
1
1
1
1
1
1
1
1
1
1
1
1
1
1
1
1
1
1
1
1.00007
1.16381
4.41883
7.68241
7.82381
7.43309
7.09738
6.72885
6.33665
1
1
1
1
1
1
1
1
1
1
1
1
1
1
1
1
1
1
1
1
1
1
1
1
1
1
1
1
1
1
1
1
1
1
1
1
1
1
1
1
1.00225
1.61181
5.69252
7.62076
7.41885
7.0845
6.79772
6.45905
1
1
1
1
1
1
1
1
1
1
1
1
1
1
1
1
1
1
1
1
1
1
1
1
1
1
1
1
1
1
1
1
1
1
1
1
1
1
1
1
1
1.02097
2.36335
6.42631
7.43364
7.14087
6.7511
6.45416
1
1
1
1
1
1
1
1
1
1
1
1
1
1
1
1
1
1
1
1
1
1
1
1
1
1
1
1
1
1
1
1
1
1
1
1
1
1
1
1
1
1.0001
1.09533
3.16438
6.70113
7.20114
6.87171
6.4547
1
1
1
1
1
1
1
1
1
1
1
1
1
1
1
1
1
1
1
1
1
1
1
1
1
1
1
1
1
1
1
1
1
1
1
1
1
1
1
1
1
1
1.001
1.24357
3.80926
6.69099
6.96083
6.62128
1
1
1
1
1
1
1
1
1
1
1
1
1
1
1
1
1
1
1
1
1
1
1
1
1
1
1
1
1
1
1
1
1
1
1
1
1
1
1
1
1
1
1
1.00445
1.44533
4.19021
6.55856
6.71872
1
1
1
1
1
1
1
1
1
1
1
1
1
1
1
1
1
1
1
1
1
1
1
1
1
1
1
1
1
1
1
1
1
1
1
1
1
1
1
1
1
1
1
1.00001
1.0126
1.63068
4.36619
6.3832
1
1
1
1
1
1
1
1
1
1
1
1
1
1
1
1
1
1
1
1
1
1
1
1
1
1
1
1
1
1
1
1
1
1
1
1
1
1
1
1
1
1
1
1
1.00005
1.02406
1.76061
4.40752
1
1
1
1
1
1
1
1
1
1
1
1
1
1
1
1
1
1
1
1
1
1
1
1
1
1
1
1
1
1
1
1
1
1
1
1
1
1
1
1
1
1
1
1
1
1.00014
1.03478
1.82549
1
1
1
1
1
1
1
1
1
1
1
1
1
1
1
1
1
1
1
1
1
1
1
1
1
1
1
1
1
1
1
1
1
1
1
1
1
1
1
1
1
1
1
1
1
1
1.00025
1.04062
1
1
1
1
1
1
1
1
1
1
1
1
1
1
1
1
1
1
1
1
1
1
1
1
1
1
1
1
1
1
1
1
1
1
1
1
1
1
1
1
1
1
1
1
1
1
1
1.00031
1
1
1
1
1
1
1
1
1
1
1
1
1
1
1
1
1
1
1
1
1
1
1
1
1
1
1
1
1
1
1
1
1
1
1
1
1
1
1
1
1
1
1
1
1
1
1
1
1
1
1
1
1
1
1
1
1
1
1
1
1
1
1
1
1
1
1
1
1
1
1
1
1
1
1
1
1
1
1
1
1
1
1
1
1
1
1
1
1
1
1
1
1
1
1
1
1
1
1
1
1
1
1
1
1
1
1
1
1
1
1
1
1
1
1
1
1
1
1
1
1
1
1
1
1
1
1
1
1
1
1
1
1
1
1
1
1
1
1
1
1
1
1
1
1
1
1
1
1
1
1
1
1
1
1
1
1
1
1
1
1
1
1
1
1
1
1
1
1
1
1
1
1
1
1
1
1
1
1
1
1
1
1
1
1
1
1
1
1
1
1
1
1
1
1
1
1
1
1
1
1
1
1
1
1
1
1
1
1
1
1
1
1
1
1
1
1
1
1
1
1
1
1
1
1
1
1
1
1
1
1
1
1
1
1
1
1
1
1
1
1
1
1
1
1
1
1
1
1
1
1
1
1
1
1
1
1
1
1
1
1
1
1
1
1
1
1
1
1
1
1
1
1
1
1
1
1
1
1
1
1
1
1
1
1
1
1
1
1
1
1
1
1
1
1
1
1
1
1
1
1
1
1
1
1
1
1
1
1
1
1
1
1
1
1
1
1
1
1
1
1
1
1
1
1
1
1
1
1
1
1
1
1
1
1
1
1
1
1
1
1
1
1
1
1
1
1
1
1
1
1
1
1
1
1
1
1
1
1
1
1
1
1
1
1
1
1
1
1
1
1
1
1
1
1
1
1
1
1
1
1
1
1
1
1
1
1
1
1
1
1
1
1
1
1
1
1
1
1
1
1
1
1
1
1
1
1
1
1
1
1
1
1
1
1
1
1
1
1
1
1
1
1
1
1
1
1
1
1
1
1
1
1
1
1
1
1
1
1
1
1
1
1
1
1
1
1
1
1
1
1
1
1
1
1
1
1
1
1
1
1
1
1
1
1
1
1
1
1
1
1
1
1
1
1
1
1
1
1
1
1
1
1
1
1
1
1
1
1
1
1
1
1
1
1
1
1
1
1
1
1
1
1
1
1
1
1
1
1
1
1
1
1
1
1
1
1
1
1
1
1
1
1
1
1
1
1
1
1
1
1
1
1
1
1
1
1
1
1
1
1
1
1
1
1
1
1
1
1
1
1
1
1
1
1
1
1
1
1
1
1
1
1
1
1
1
1
1
1
1
1
1
1
1
1
1
1
1
1
1
1
1
1
1
1
1
1
1
1
1
1
1
1
1
1
1
1
1
1
1
1
1
1
1
1
1
1
1
1
1
1
1
1
1
1
1
1
1
1
1
1
1
1
1
1
1
1
1
1
1
1
1
1
1
1
1
1
1
1
1
1
1
1
1
1
1
1
1
1
1
1
1
1
1
1
1
1
1
1
1
1
1
1
1
1
1
1
1
1
1
1
1
1
1
1
1
1
1
1
1
1
1
1
1
1
1
1
1
1
1
1
1
1
1
1
1
1
1
1
1
1
1
1
1
1
1
1
1
1
1
1
1
1
1
1
1
1
1
1
1
1
1
1
1
1
1
1
1
1
1
1
1
1
1
1
1
1
1
1
1
1
1
1
1
1
1
1
1
1
1
1
1
1
1
1
1
1
1
1
1
1
1
1
1
1
1
1
1
1
1
1
1
1
1
1
1
1
1
1
1
1
1
1
1
1
1
1
1
1
1
1
1
1
1
1
1
1
1
1
1
1
1
1
1
1
1
1
1
1
1
1
1
1
1
1
1
1
1
1
1
1
1
1
1
1
1
1
1
1
1
1
1
1
1
1
1
1
1
1
1
1
1
1
1
1
1
1
1
1
1
1
1
1
1
1
1
1
1
1
1
1
1
1
1
1
1
1
1
1
1
1
1
1
1
1
1
1
1
1
1
1
1
1
1
1
1
1
1
1
1
1
1
1
1
1
1
1
1
1
1
1
1
1
1
1
1
1
1
1
1
1
1
1
1
1
1
1
1
1
1
1
1
1
1
1
1
1
1
1
1
1
1
1
1
1
1
1
1
1
1
1
1
1
1
1
1
1
1
1
1
1
1
1
1
1
1
1
1
1
1
1
1
1
1
1
1
1
1
1
1
1
1
1
1
1
1
1
1
1
1
1
1
1
1
1
1
1
1
1
1
1
1
1
1
1
1
1
1
1
1
1
1
1
1
1
1
1
1
1
1
1
1
1
1
1
1
1
1
1
1
1
1
1
1
1
1
1
1
1
1
1
1
1
1
1
1
1
1
1
1
1
1
1
1
1
1
1
1
1
1
1
1
1
1
1
1
1
1
1
1
1
1
1
1
1
1
1
1
1
1
1
1
1
1
1
1
1
1
1
1
1
1
1
1
1
1
1
1
1
1
1
1
1
1
1
1
1
1
1
1
1
1
1
1
1
1
1
1
1
1
1
1
1
1
1
1
1
1
1
1
1
1
1
1
1
1
1
1
1
1
1
1
1
1
1
1
1
1
1
1
1
1
1
1
1
1
1
1
1
1
1
1
1
1
1
1
1
1
1
1
1
1
1
1
1
1
1
1
1
1
1
1
1
1
1
1
1
1
1
1
1
1
1
1
1
1
1
1
1
1
1
1
1
1
1
1
1
1
1
1
1
1
1
1
1
1
1
1
1
1
1
1
1
1
1
1
1
1
1
1
1
1
1
1
1
1
1
1
1
1
1
1
1
1
1
1
1
1
1
1
1
1
1
1
1
1
1
1
1
1
1
1
1
1
1
1
1
1
1
1
1
1
1
1
1
1
1
1
1
1
1
1
1
1
1
1
1
1
1
1
1
1
1
1
1
1
1
1
1
1
1
1
1
1
1
1
1
1
1
1
1
1
1
1
1
1
1
1
1
1
1
1
1
1
1
1
1
1
1
1
1
1
1
1
1
1
1
1
1
1
1
1
1
1
1
1
1
1
1
1
1
1
1
1
1
1
1
1
1
1
1
1
1
1
1
1
1
1
1
1
1
1
1
1
1
1
1
1
1
1
1
1
1
1
1
1
1
1
1
1
1
1
1
1
1
1
1
1
1
1
1
1
1
1
1
1
1
1
1
1
1
1
1
1
1
1
1
1
1
1
1
1
1
1
1
1
1
1
1
1
1
1
1
1
1
1
1
1
1
1
1
1
1
1
1
1
1
1
1
1
1
1
1
1
1
1
1
1
1
1
1
1
1
1
1
1
1
1
1
1
1
1
1
1
1
1
1
1
1
1
1
1
1
1
1
1
1
1
1
1
1
1
1
1
1
1
1
1
1
1
1
1
1
1
1
1
1
1
1
1
1
1
1
1
1
1
1
1
1
1
1
1
1
1
1
1
1
1
1
1
1
1
1
1
1
1
1
1
1
1
1
1
1
1
1
1
1
1
1
1
1
1
1
1
1
1
1
1
1
1
1
1
1
1
1
1
1
1
1
1
1
1
1
1
1
1
1
1
1
1
1
1
1
1
1
1
1
1
1
1
1
1
1
1
1
1
1
1
1
1
1
1
1
1
1
1
1
1
1
1
1
1
1
1
1
1
1
1
1
1
1
1
1
1
1
1
1
1
1
1
1
1
1
1
1
1
1
1
1
1
1
1
1
1
1
1
1
1
1
1
1
1
1
1
1
1
1
1
1
1
1
1
1
1
1
1
1
1
1
1
1
1
1
1
1
1
1
1
1
1
1
1
1
1
1
1
1
1
1
1
1
1
1
1
1
1
1
1
1
1
1
1
1
1
1
1
1
1
1
1
1
1
1
1
1
1
1
1
1
1
1
1
1
1
1
1
1
1
1
1
1
1
1
1
1
1
1
1
1
1
1
1
1
1
1
1
1
1
1
1
1
1
1
1
1
1
1
1
1
1
1
1
1
1
1
1
1
1
1
1
1
1
1
1
1
1
1
1
1
1
1
1
1
1
1
1
1.35546
0.312293
0.041326
0.0232452
0.0340683
0.0855284
0.160569
0.191125
0.236002
0.327845
0.429992
0.490212
0.511637
0.552159
0.61595
0.670972
0.735308
0.811508
0.875631
0.895294
0.879218
0.866141
0.868919
0.873373
0.882767
0.898345
0.921507
0.931738
0.928988
0.924808
0.924031
0.929034
0.944475
0.966182
0.971709
0.969927
0.961929
0.938717
0.919525
0.912759
0.906419
0.901968
0.899951
0.894285
0.887137
0.876523
0.866312
0.859901
0.855239
0.852474
0.852918
0.855506
0.854534
0.852795
0.851841
0.850008
0.848521
0.848994
0.849845
0.852454
0.859457
0.872301
0.883626
0.88999
0.895384
0.900678
0.904923
0.908415
0.910624
0.911297
0.911098
0.912296
0.912005
0.91107
0.916207
0.924821
0.938891
0.952428
0.958829
0.96198
0.963692
0.965242
0.966244
0.966941
0.969231
0.972091
0.969744
0.963299
0.984211
1.02081
1.02346
1.01508
1.00469
1.0011
0.999466
0.998381
0.999785
1.01132
1.02298
1.0231
1.0221
1.02175
1.02064
1.01827
1.01346
1.00768
1.00537
1.00486
1.00447
1.00406
1.00371
1.00353
1.00392
1.00528
1.00829
1.01474
1.02687
1.03926
1.04286
1.04305
1.04308
1.04281
1.04113
1.03553
1.02288
1.00713
1.00055
1
1
1
1
1
1
1
1
1
1
1
1
1
1
1
1
1
1
1
1
1
1
1
1
1
1
1
1
1
1
1
1
1
1
1
1
1
1
1
1
1
1
1
1
1
1
1
1
1
1
1
1
1
1
1
1
1
1
1
1
1
1
1
1
1
2.33647
1.09745
0.595742
0.350396
0.235148
0.248396
0.272271
0.25831
0.244219
0.246519
0.268499
0.319286
0.351506
0.388583
0.454307
0.537041
0.60401
0.659769
0.722139
0.791794
0.80699
0.815116
0.830245
0.853308
0.878977
0.900256
0.916992
0.917708
0.91293
0.912746
0.919277
0.931497
0.949722
0.966441
0.968906
0.967437
0.958948
0.937793
0.921334
0.916787
0.912918
0.908831
0.90196
0.895702
0.888799
0.876968
0.864393
0.85733
0.852561
0.849733
0.849178
0.849962
0.849699
0.848971
0.848481
0.847828
0.849532
0.85293
0.856795
0.861445
0.868755
0.876876
0.879688
0.882104
0.886164
0.892496
0.900271
0.906987
0.91308
0.918088
0.922185
0.927202
0.928576
0.91873
0.91488
0.918136
0.929156
0.944094
0.952412
0.956919
0.958989
0.959071
0.957989
0.957084
0.954954
0.951701
0.954119
0.967075
0.986137
1.00985
1.01121
1.00466
0.996405
0.992946
0.991431
0.991128
0.996276
1.01042
1.01854
1.01805
1.01757
1.01785
1.01746
1.0161
1.01302
1.00779
1.00457
1.00393
1.00364
1.00337
1.0032
1.00336
1.00397
1.0052
1.00775
1.01426
1.02742
1.03989
1.04309
1.04321
1.0432
1.04274
1.04086
1.03562
1.02321
1.0072
1.00053
1
1
1
1
1
1
1
1
1
1
1
1
1
1
1
1
1
1
1
1
1
1
1
1
1
1
1
1
1
1
1
1
1
1
1
1
1
1
1
1
1
1
1
1
1
1
1
1
1
1
1
1
1
1
1
1
1
1
1
1
1
1
1
1
1
3.10334
1.82075
1.25489
0.885282
0.646985
0.510244
0.468067
0.40048
0.322342
0.308654
0.313801
0.318898
0.337932
0.373225
0.414611
0.463051
0.505542
0.540906
0.580626
0.652049
0.720239
0.768428
0.808401
0.862013
0.903887
0.917038
0.921459
0.92298
0.917853
0.908771
0.914005
0.930902
0.95198
0.963519
0.966992
0.969282
0.960851
0.934173
0.916696
0.913913
0.913142
0.91321
0.906597
0.900206
0.893257
0.879074
0.861162
0.853842
0.851051
0.850287
0.851038
0.852244
0.851927
0.850771
0.847325
0.840919
0.839296
0.842459
0.848871
0.860154
0.87709
0.88748
0.888352
0.886976
0.885147
0.886737
0.889783
0.894001
0.901232
0.910684
0.920415
0.929811
0.9381
0.935271
0.926714
0.922198
0.923046
0.932037
0.942117
0.947714
0.951433
0.954895
0.957797
0.958695
0.958687
0.960415
0.967077
0.981797
0.993824
0.996798
1.00462
1.00695
1.00421
1.00039
0.998444
0.999435
1.00688
1.01433
1.01697
1.01821
1.01933
1.01969
1.01917
1.01794
1.01574
1.01167
1.0067
1.00444
1.00395
1.00367
1.00342
1.00326
1.00348
1.00447
1.00745
1.01483
1.02862
1.04098
1.04389
1.044
1.04396
1.04334
1.0411
1.03491
1.02172
1.00622
1.0004
1
1
1
1
1
1
1
1
1
1
1
1
1
1
1
1
1
1
1
1
1
1
1
1
1
1
1
1
1
1
1
1
1
1
1
1
1
1
1
1
1
1
1
1
1
1
1
1
1
1
1
1
1
1
1
1
1
1
1
1
1
1
1
1
1
3.68572
2.5645
1.94173
1.4512
1.03338
0.856014
0.765126
0.653655
0.525605
0.496891
0.485429
0.443543
0.413318
0.417083
0.419903
0.422481
0.43008
0.440231
0.453002
0.493474
0.57542
0.657771
0.709271
0.762962
0.816305
0.834351
0.850831
0.883363
0.907543
0.914175
0.931709
0.950778
0.965564
0.968142
0.967373
0.966355
0.954991
0.930713
0.91436
0.911079
0.911223
0.911687
0.906573
0.899666
0.892617
0.881566
0.863745
0.852927
0.850465
0.849338
0.84926
0.851116
0.852088
0.851201
0.848825
0.843638
0.840492
0.841638
0.84678
0.857899
0.874043
0.88379
0.885968
0.886835
0.889247
0.892268
0.894935
0.898753
0.905611
0.912774
0.918874
0.924074
0.929414
0.93229
0.92993
0.927145
0.927564
0.933316
0.943315
0.951382
0.955058
0.95556
0.95454
0.953135
0.953929
0.96154
0.978696
1.00105
0.997889
0.98283
0.988122
0.996702
1.0052
1.00721
1.00682
1.00766
1.00983
1.01274
1.01441
1.0163
1.01856
1.0193
1.01875
1.01771
1.01628
1.01357
1.0088
1.00481
1.00374
1.00344
1.00317
1.00295
1.00289
1.0036
1.00673
1.01511
1.03023
1.04238
1.04482
1.04492
1.04488
1.04418
1.04164
1.03461
1.02004
1.00489
1.00024
1
1
1
1
1
1
1
1
1
1
1
1
1
1
1
1
1
1
1
1
1
1
1
1
1
1
1
1
1
1
1
1
1
1
1
1
1
1
1
1
1
1
1
1
1
1
1
1
1
1
1
1
1
1
1
1
1
1
1
1
1
1
1
1
1
4.17007
3.13875
2.43438
1.97301
1.5744
1.27615
1.0726
0.894488
0.737794
0.697759
0.666816
0.604818
0.536271
0.525416
0.511048
0.478101
0.454365
0.456808
0.462842
0.468326
0.484688
0.519286
0.56911
0.614275
0.666846
0.721296
0.761456
0.808382
0.852621
0.868601
0.895976
0.939968
0.97364
0.981481
0.981473
0.973531
0.954475
0.932019
0.916405
0.91028
0.909649
0.909349
0.906395
0.900791
0.893824
0.884247
0.867847
0.852793
0.849328
0.847765
0.847183
0.849296
0.850295
0.848745
0.846955
0.844478
0.844076
0.845754
0.850651
0.86031
0.872604
0.880686
0.882102
0.881867
0.884015
0.887594
0.89174
0.898987
0.912538
0.921697
0.924838
0.927493
0.92976
0.929618
0.9274
0.926252
0.928271
0.93411
0.942347
0.94834
0.949648
0.948118
0.946196
0.945887
0.949916
0.961504
0.983512
1.00866
1.00323
0.984063
0.987173
0.998601
1.01162
1.01537
1.01442
1.01123
1.00839
1.00826
1.0096
1.01104
1.01455
1.0194
1.0198
1.01898
1.01773
1.01532
1.01061
1.00504
1.003
1.0027
1.0025
1.00235
1.00234
1.00316
1.00666
1.01604
1.03248
1.0442
1.04614
1.04623
1.04614
1.04519
1.04199
1.03358
1.01758
1.00347
1.00012
1
1
1
1
1
1
1
1
1
1
1
1
1
1
1
1
1
1
1
1
1
1
1
1
1
1
1
1
1
1
1
1
1
1
1
1
1
1
1
1
1
1
1
1
1
1
1
1
1
1
1
1
1
1
1
1
1
1
1
1
1
1
1
1
1
4.48754
3.61515
2.97097
2.40302
1.93675
1.6706
1.44704
1.22304
0.993013
0.904939
0.84167
0.76878
0.704419
0.684583
0.658108
0.605766
0.554355
0.54746
0.537896
0.512939
0.505036
0.513573
0.515559
0.511448
0.518088
0.544126
0.586636
0.640765
0.728493
0.801583
0.847473
0.9007
0.940386
0.948606
0.950957
0.95737
0.958026
0.948516
0.936073
0.92205
0.908222
0.904595
0.901729
0.895136
0.888372
0.881663
0.871238
0.857692
0.851925
0.848666
0.846626
0.847234
0.848109
0.847021
0.845086
0.843322
0.843535
0.844956
0.848206
0.855134
0.865741
0.87788
0.883189
0.883258
0.884242
0.88739
0.892081
0.899266
0.910944
0.922268
0.925518
0.927008
0.928601
0.928906
0.927858
0.927753
0.931392
0.939284
0.948072
0.953214
0.953738
0.951209
0.946388
0.942323
0.946866
0.964488
0.990891
1.01012
0.99843
0.981947
0.988707
1.00435
1.01536
1.01657
1.01465
1.00925
1.00447
1.0052
1.00778
1.01031
1.0152
1.02008
1.02082
1.02048
1.01942
1.01705
1.01244
1.0059
1.0022
1.00169
1.00154
1.00142
1.00142
1.00235
1.00652
1.0177
1.0356
1.0464
1.04783
1.04792
1.04774
1.04642
1.04234
1.03203
1.01452
1.00215
1.00005
1
1
1
1
1
1
1
1
1
1
1
1
1
1
1
1
1
1
1
1
1
1
1
1
1
1
1
1
1
1
1
1
1
1
1
1
1
1
1
1
1
1
1
1
1
1
1
1
1
1
1
1
1
1
1
1
1
1
1
1
1
1
1
1
1
4.76802
3.95859
3.32859
2.8318
2.37443
2.00055
1.7327
1.48215
1.26983
1.16228
1.06643
0.942736
0.856727
0.827409
0.787759
0.728061
0.662993
0.650739
0.634658
0.602216
0.574147
0.566441
0.551058
0.517889
0.50177
0.503121
0.511548
0.530932
0.575124
0.657607
0.735518
0.80871
0.87469
0.88802
0.902122
0.922697
0.943359
0.95637
0.953616
0.939758
0.917036
0.906395
0.897695
0.887561
0.881809
0.878232
0.873452
0.866282
0.860421
0.855209
0.849896
0.845669
0.843248
0.843239
0.842691
0.840848
0.840706
0.843101
0.846677
0.852598
0.861902
0.874993
0.883435
0.883101
0.882452
0.886849
0.894932
0.90262
0.90994
0.918823
0.922342
0.922732
0.924051
0.925569
0.926641
0.92939
0.936658
0.946959
0.954951
0.957843
0.955797
0.948782
0.939078
0.935401
0.948124
0.977332
1.00396
1.00693
0.989605
0.979518
0.988744
1.0056
1.01417
1.01467
1.01281
1.00641
1.00011
1.00097
1.00431
1.00787
1.01512
1.02092
1.02205
1.02213
1.02136
1.01893
1.01402
1.00649
1.00159
1.00079
1.00066
1.00054
1.00052
1.00141
1.00642
1.0199
1.03922
1.04866
1.04963
1.0497
1.0494
1.04764
1.04231
1.0296
1.01103
1.00113
1.00001
1
1
1
1
1
1
1
1
1
1
1
1
1
1
1
1
1
1
1
1
1
1
1
1
1
1
1
1
1
1
1
1
1
1
1
1
1
1
1
1
1
1
1
1
1
1
1
1
1
1
1
1
1
1
1
1
1
1
1
1
1
1
1
1
1
4.98444
4.26333
3.68073
3.13904
2.67344
2.33987
2.05479
1.74576
1.50471
1.37659
1.27093
1.15829
1.06977
1.01021
0.943418
0.850532
0.777813
0.768813
0.753273
0.718413
0.674555
0.655923
0.631445
0.578938
0.532656
0.524282
0.525722
0.535099
0.541744
0.55766
0.593134
0.640282
0.698626
0.770369
0.819188
0.859965
0.910881
0.93605
0.93659
0.931685
0.9257
0.915012
0.897665
0.888675
0.885265
0.880453
0.875754
0.869983
0.861103
0.851271
0.84488
0.840047
0.836527
0.837128
0.840704
0.84114
0.840872
0.842578
0.845993
0.850847
0.856347
0.868041
0.880364
0.879259
0.878359
0.88586
0.899106
0.907476
0.911609
0.915935
0.918529
0.918908
0.920267
0.922669
0.925764
0.93211
0.942511
0.952003
0.956093
0.954063
0.944054
0.929349
0.922238
0.936471
0.974991
1.01277
1.01693
0.999016
0.982276
0.97731
0.987151
1.00419
1.01137
1.01151
1.00982
1.00534
1.00068
1.00169
1.00523
1.00931
1.01696
1.02217
1.02327
1.02353
1.02304
1.02076
1.01526
1.00642
1.0005
0.999596
0.999489
0.999404
0.999505
1.00117
1.00774
1.0238
1.04365
1.05116
1.05172
1.05176
1.05121
1.04873
1.04165
1.02605
1.00748
1.00048
1
1
1
1
1
1
1
1
1
1
1
1
1
1
1
1
1
1
1
1
1
1
1
1
1
1
1
1
1
1
1
1
1
1
1
1
1
1
1
1
1
1
1
1
1
1
1
1
1
1
1
1
1
1
1
1
1
1
1
1
1
1
1
1
1
1
5.20015
4.52298
3.95458
3.46338
2.98817
2.60169
2.30798
2.01066
1.79446
1.64535
1.49324
1.32197
1.24249
1.18917
1.12057
1.01497
0.903391
0.875679
0.855954
0.817041
0.764866
0.7349
0.706514
0.652395
0.589153
0.571027
0.569473
0.572065
0.563874
0.560556
0.572171
0.582097
0.589439
0.609372
0.659247
0.724391
0.809934
0.881002
0.897845
0.910416
0.915648
0.911879
0.901622
0.895348
0.898323
0.894354
0.883553
0.872157
0.856995
0.841797
0.835431
0.831494
0.829469
0.834987
0.84451
0.846926
0.8451
0.843768
0.844259
0.845979
0.846266
0.852635
0.869884
0.875108
0.877677
0.889848
0.907727
0.912746
0.913026
0.913477
0.913104
0.912499
0.914281
0.9188
0.927353
0.940135
0.950277
0.952665
0.949158
0.939918
0.926159
0.916899
0.930044
0.980233
1.03061
1.02632
1.00156
0.98279
0.975249
0.975879
0.98804
1.00436
1.00883
1.00855
1.00713
1.00287
1.00043
1.00301
1.007
1.01227
1.01963
1.02374
1.02477
1.02501
1.02444
1.02199
1.01576
1.00581
0.999211
0.998248
0.99815
0.99808
0.998303
1.00066
1.00956
1.02897
1.0484
1.05371
1.05403
1.05401
1.05311
1.04963
1.04003
1.02134
1.00434
1.00016
1
1
1
1
1
1
1
1
1
1
1
1
1
1
1
1
1
1
1
1
1
1
1
1
1
1
1
1
1
1
1
1
1
1
1
1
1
1
1
1
1
1
1
1
1
1
1
1
1
1
1
1
1
1
1
1
1
1
1
1
1
1
1
1
1
1
5.34838
4.75087
4.22398
3.70389
3.25631
2.91137
2.59267
2.26362
2.04004
1.88117
1.72715
1.55873
1.43281
1.34359
1.25665
1.16144
1.05828
1.00046
0.967271
0.928555
0.863191
0.813288
0.786176
0.748049
0.689265
0.652961
0.645692
0.64479
0.637467
0.615249
0.599533
0.595356
0.58021
0.567747
0.571103
0.593468
0.650518
0.738293
0.819394
0.865615
0.889449
0.890152
0.886911
0.893847
0.910611
0.912253
0.898894
0.879478
0.856344
0.836031
0.828533
0.824638
0.824733
0.835792
0.849418
0.851469
0.848073
0.843784
0.840905
0.839454
0.837017
0.839227
0.857369
0.875724
0.884637
0.898014
0.911028
0.913223
0.911834
0.911464
0.908742
0.906455
0.909007
0.920019
0.940893
0.958356
0.959424
0.950221
0.938014
0.924288
0.915347
0.926633
0.977353
1.03375
1.0279
1.00361
0.985558
0.972309
0.969131
0.97539
0.992869
1.00555
1.00626
1.00553
1.00408
1.00141
1.00167
1.00469
1.00879
1.01508
1.02248
1.02597
1.02668
1.02676
1.02595
1.02284
1.01566
1.00464
0.997969
0.997047
0.996965
0.996935
0.997481
1.00121
1.01299
1.03551
1.05303
1.05632
1.05651
1.05639
1.05497
1.04991
1.037
1.01575
1.00205
1.00004
1
1
1
1
1
1
1
1
1
1
1
1
1
1
1
1
1
1
1
1
1
1
1
1
1
1
1
1
1
1
1
1
1
1
1
1
1
1
1
1
1
1
1
1
1
1
1
1
1
1
1
1
1
1
1
1
1
1
1
1
1
1
1
1
1
1
5.44213
4.89543
4.41402
3.95293
3.51002
3.15381
2.83622
2.53129
2.31502
2.13586
1.93987
1.73653
1.60806
1.5091
1.41145
1.31779
1.2208
1.11947
1.05406
1.02405
0.978999
0.907372
0.854679
0.82359
0.786102
0.738347
0.709763
0.70407
0.701048
0.683874
0.65034
0.619072
0.597637
0.578367
0.571615
0.57573
0.588983
0.62235
0.677953
0.733595
0.795359
0.836135
0.853781
0.873224
0.894643
0.907716
0.903344
0.887112
0.861792
0.839092
0.83002
0.825313
0.826422
0.83776
0.847467
0.848065
0.844013
0.839063
0.835557
0.83347
0.832143
0.836312
0.856124
0.883767
0.892718
0.898574
0.90641
0.907951
0.90605
0.906626
0.904823
0.90414
0.91313
0.938595
0.964896
0.966653
0.953392
0.939053
0.925252
0.913948
0.919118
0.962974
1.02243
1.02438
1.00115
0.981925
0.967817
0.965557
0.969038
0.982558
1.00157
1.0066
1.0057
1.00479
1.00359
1.00233
1.00221
1.00428
1.00837
1.01564
1.0241
1.02788
1.02852
1.0286
1.02764
1.02356
1.01425
1.0022
0.996559
0.995905
0.995814
0.995908
0.997217
1.00268
1.01815
1.04304
1.05728
1.05903
1.05916
1.05886
1.05662
1.0493
1.03213
1.01001
1.00074
1.00001
1
1
1
1
1
1
1
1
1
1
1
1
1
1
1
1
1
1
1
1
1
1
1
1
1
1
1
1
1
1
1
1
1
1
1
1
1
1
1
1
1
1
1
1
1
1
1
1
1
1
1
1
1
1
1
1
1
1
1
1
1
1
1
1
1
1
5.50409
5.01481
4.56474
4.12533
3.72804
3.39878
3.07336
2.75227
2.51182
2.33885
2.16459
1.9825
1.79792
1.62705
1.52377
1.45819
1.39119
1.30671
1.18491
1.08748
1.05056
0.998904
0.935344
0.902738
0.886393
0.857723
0.809819
0.772554
0.766087
0.756292
0.725234
0.675694
0.647831
0.633682
0.611694
0.597985
0.599462
0.605913
0.611584
0.621582
0.653246
0.720095
0.792413
0.832493
0.866164
0.886681
0.884411
0.873622
0.863501
0.853682
0.844086
0.839102
0.839917
0.843158
0.842164
0.83781
0.833218
0.828767
0.826538
0.827889
0.833262
0.844136
0.866699
0.889779
0.892433
0.892232
0.895265
0.896429
0.897558
0.90079
0.903511
0.911321
0.933506
0.961129
0.964546
0.9499
0.935481
0.926303
0.919542
0.919593
0.94713
1.00126
1.01587
0.996268
0.976507
0.963503
0.96195
0.965074
0.976529
0.99691
1.00626
1.00652
1.00523
1.00394
1.0032
1.00312
1.00311
1.00412
1.00816
1.01635
1.02597
1.03015
1.0307
1.03068
1.02926
1.02361
1.01155
0.998874
0.994587
0.994264
0.994269
0.994759
0.997226
1.00538
1.02534
1.05099
1.06116
1.06198
1.06208
1.06144
1.05793
1.0471
1.0253
1.00515
1.00019
1
1
1
1
1
1
1
1
1
1
1
1
1
1
1
1
1
1
1
1
1
1
1
1
1
1
1
1
1
1
1
1
1
1
1
1
1
1
1
1
1
1
1
1
1
1
1
1
1
1
1
1
1
1
1
1
1
1
1
1
1
1
1
1
1
1
1
5.56742
5.10586
4.68374
4.28203
3.91433
3.58111
3.26468
2.97652
2.73187
2.50171
2.29934
2.15311
1.99315
1.82584
1.66825
1.55399
1.49744
1.43459
1.33804
1.21001
1.13236
1.08824
1.02749
0.97285
0.962835
0.953536
0.920039
0.868705
0.834431
0.8143
0.784605
0.738367
0.689291
0.674409
0.661412
0.636453
0.618881
0.613501
0.614177
0.620414
0.624607
0.637851
0.679002
0.733041
0.776229
0.827182
0.847754
0.846208
0.847857
0.854279
0.858354
0.859656
0.85395
0.846089
0.838721
0.830845
0.823837
0.81847
0.817912
0.825339
0.838129
0.850748
0.862713
0.873369
0.87798
0.880259
0.883834
0.887854
0.895696
0.90557
0.915561
0.932081
0.952248
0.954058
0.941813
0.930691
0.925261
0.92546
0.932687
0.952199
0.987258
1.00398
0.987583
0.96855
0.960142
0.960224
0.966216
0.980266
0.999702
1.00803
1.0085
1.00662
1.00223
1.00072
1.00153
1.0022
1.00353
1.00653
1.01239
1.02241
1.03146
1.03386
1.03404
1.03331
1.02984
1.02087
1.00621
0.995982
0.994173
0.994103
0.994266
0.995061
0.998471
1.00975
1.03427
1.05845
1.06477
1.06518
1.06522
1.06398
1.05823
1.04252
1.01711
1.00197
1.00003
1
1
1
1
1
1
1
1
1
1
1
1
1
1
1
1
1
1
1
1
1
1
1
1
1
1
1
1
1
1
1
1
1
1
1
1
1
1
1
1
1
1
1
1
1
1
1
1
1
1
1
1
1
1
1
1
1
1
1
1
1
1
1
1
1
1
1
5.64871
5.21286
4.79856
4.41595
4.07945
3.75782
3.43732
3.15678
2.9067
2.65914
2.45831
2.30591
2.15506
1.99398
1.81281
1.69008
1.61349
1.53997
1.45145
1.32484
1.22586
1.18706
1.14498
1.08213
1.04511
1.02977
0.999542
0.951478
0.910108
0.882642
0.849928
0.806776
0.754939
0.73298
0.724322
0.703016
0.670385
0.659083
0.657592
0.650894
0.640814
0.635368
0.629405
0.63762
0.661462
0.702475
0.760563
0.802579
0.820305
0.833589
0.848847
0.853212
0.847341
0.841256
0.836644
0.832131
0.827383
0.822773
0.824461
0.834859
0.843154
0.844938
0.845727
0.850094
0.857856
0.86668
0.877633
0.892371
0.910857
0.925846
0.934464
0.940027
0.938144
0.930134
0.924974
0.927067
0.935709
0.949233
0.965712
0.979602
0.987609
0.978683
0.962287
0.956577
0.958985
0.969808
0.988034
1.00469
1.01028
1.01084
1.00941
1.00363
0.997717
0.996456
0.997029
0.998916
1.00197
1.0079
1.01865
1.03121
1.03743
1.03851
1.03844
1.03591
1.02839
1.01461
0.999401
0.993593
0.993204
0.993265
0.993709
0.995361
1.00091
1.01654
1.04487
1.06514
1.06848
1.06874
1.06861
1.06627
1.0569
1.03478
1.0092
1.0005
1
1
1
1
1
1
1
1
1
1
1
1
1
1
1
1
1
1
1
1
1
1
1
1
1
1
1
1
1
1
1
1
1
1
1
1
1
1
1
1
1
1
1
1
1
1
1
1
1
1
1
1
1
1
1
1
1
1
1
1
1
1
1
1
1
1
1
1
5.7601
5.32953
4.93436
4.56694
4.21627
3.89546
3.61257
3.3536
3.09762
2.83629
2.60059
2.43044
2.31086
2.18063
2.0187
1.82762
1.69487
1.63709
1.5721
1.46884
1.334
1.26977
1.23765
1.18468
1.14534
1.12307
1.09031
1.03119
0.967086
0.937878
0.907692
0.867114
0.82025
0.795047
0.78402
0.765631
0.729798
0.704983
0.698431
0.686807
0.666534
0.64743
0.633331
0.629675
0.631929
0.642319
0.672589
0.72522
0.76786
0.796922
0.823343
0.832932
0.83001
0.823718
0.824075
0.831176
0.840939
0.84536
0.848623
0.852455
0.846459
0.835956
0.830219
0.831561
0.839769
0.856322
0.879345
0.898938
0.914224
0.925995
0.927316
0.91993
0.911176
0.911518
0.923265
0.94074
0.95699
0.966515
0.968199
0.96678
0.962628
0.955495
0.955759
0.962997
0.977545
0.996026
1.00711
1.00905
1.00907
1.00673
0.999511
0.994739
0.994733
0.99503
0.995569
0.997702
1.00342
1.01562
1.03176
1.04054
1.04213
1.04248
1.04164
1.03623
1.02345
1.00573
0.995579
0.993609
0.993382
0.99348
0.994125
0.996719
1.00504
1.02598
1.05632
1.07101
1.0725
1.0727
1.07216
1.0676
1.0524
1.02415
1.00354
1.00007
1
1
1
1
1
1
1
1
1
1
1
1
1
1
1
1
1
1
1
1
1
1
1
1
1
1
1
1
1
1
1
1
1
1
1
1
1
1
1
1
1
1
1
1
1
1
1
1
1
1
1
1
1
1
1
1
1
1
1
1
1
1
1
1
1
1
1
1
5.87068
5.47526
5.09808
4.738
4.38476
4.04493
3.74439
3.49541
3.27323
3.04795
2.82412
2.61255
2.41898
2.28521
2.16844
2.00905
1.84052
1.71637
1.65262
1.57445
1.46526
1.39311
1.34707
1.27444
1.21725
1.20128
1.18076
1.13211
1.05026
0.996719
0.960834
0.92319
0.879857
0.858765
0.84978
0.833809
0.802586
0.771908
0.75708
0.741336
0.717869
0.687733
0.663191
0.651801
0.647741
0.647521
0.656807
0.675448
0.705635
0.736112
0.762685
0.785469
0.796805
0.800023
0.802328