/*--------------------------------*- C++ -*----------------------------------*\
  =========                 |
  \\      /  F ield         | OpenFOAM: The Open Source CFD Toolbox
   \\    /   O peration     | Website:  https://openfoam.org
    \\  /    A nd           | Version:  7
     \\/     M anipulation  |
\*---------------------------------------------------------------------------*/
FoamFile
{
    version     2.0;
    format      ascii;
    class       volScalarField;
    location    "0.4";
    object      T;
}
// * * * * * * * * * * * * * * * * * * * * * * * * * * * * * * * * * * * * * //

dimensions      [0 0 0 1 0 0 0];

internalField   nonuniform List<scalar> 
16128
(
1
1
1
1
1
1
1
1
1
1
1
1
1
1
1
1
1
1
1
1
1
1
1
1
1
1
1
1
1
1
1
1.82701
2.80069
2.88448
2.89715
2.91894
2.94265
2.96527
2.99052
3.02146
3.06966
3.15951
3.28915
3.42262
3.51307
3.54596
3.54375
3.53233
1
1
1
1
1
1
1
1
1
1
1
1
1
1
1
1
1
1
1
1
1
1
1
1
1
1
1
1
1
1
1
1.80998
2.79069
2.88157
2.89693
2.91895
2.9429
2.96577
2.99133
3.02213
3.07074
3.1609
3.29049
3.42326
3.51262
3.54531
3.5426
3.53174
1
1
1
1
1
1
1
1
1
1
1
1
1
1
1
1
1
1
1
1
1
1
1
1
1
1
1
1
1
1
1
1.76438
2.76933
2.87701
2.89497
2.9177
2.94203
2.96571
2.99201
3.02277
3.07165
3.1622
3.29213
3.42432
3.51211
3.54415
3.54045
3.53058
1
1
1
1
1
1
1
1
1
1
1
1
1
1
1
1
1
1
1
1
1
1
1
1
1
1
1
1
1
1
1
1.69451
2.73366
2.87011
2.89188
2.91591
2.94034
2.965
2.99196
3.02201
3.07013
3.15994
3.28981
3.4223
3.50978
3.54184
3.53754
3.52972
1
1
1
1
1
1
1
1
1
1
1
1
1
1
1
1
1
1
1
1
1
1
1
1
1
1
1
1
1
1
1
1.59032
2.68066
2.8626
2.88937
2.91429
2.93774
2.96305
2.99048
3.01924
3.06518
3.15244
3.28131
3.415
3.50436
3.53802
3.53401
3.52868
1
1
1
1
1
1
1
1
1
1
1
1
1
1
1
1
1
1
1
1
1
1
1
1
1
1
1
1
1
1
1
1.44448
2.60664
2.85678
2.88875
2.9128
2.9342
2.95945
2.98711
3.01443
3.05709
3.13995
3.26627
3.40151
3.49508
3.53234
3.52973
3.52713
1
1
1
1
1
1
1
1
1
1
1
1
1
1
1
1
1
1
1
1
1
1
1
1
1
1
1
1
1
1
1
1.26325
2.51362
2.85595
2.88987
2.91002
2.92851
2.9536
2.98187
3.00809
3.04688
3.12395
3.24601
3.38214
3.4813
3.52444
3.52505
3.52536
1
1
1
1
1
1
1
1
1
1
1
1
1
1
1
1
1
1
1
1
1
1
1
1
1
1
1
1
1
1
1
1.08522
2.41809
2.86309
2.8897
2.90286
2.91963
2.94573
2.97531
3.0008
3.03548
3.1058
3.22203
3.35785
3.46291
3.51385
3.51958
3.52254
1
1
1
1
1
1
1
1
1
1
1
1
1
1
1
1
1
1
1
1
1
1
1
1
1
1
1
1
1
1
1
1.00142
2.32728
2.86783
2.88301
2.89069
2.90835
2.93625
2.96761
2.9926
3.02312
3.08579
3.19459
3.32867
3.43975
3.50002
3.51265
3.51855
1
1
1
1
1
1
1
1
1
1
1
1
1
1
1
1
1
1
1
1
1
1
1
1
1
1
1
1
1
1
1
1
2.21641
2.85749
2.86786
2.87566
2.8952
2.92552
2.95879
2.98341
3.01004
3.06474
3.1649
3.2956
3.4121
3.48246
3.50322
3.51202
1
1
1
1
1
1
1
1
1
1
1
1
1
1
1
1
1
1
1
1
1
1
1
1
1
1
1
1
1
1
1
1
2.04131
2.81644
2.84572
2.85789
2.88102
2.91416
2.94884
2.97298
2.99589
3.04231
3.13224
3.25744
3.37856
3.46027
3.49108
3.50349
1
1
1
1
1
1
1
1
1
1
1
1
1
1
1
1
1
1
1
1
1
1
1
1
1
1
1
1
1
1
1
1
1.7821
2.73228
2.82233
2.83933
2.86876
2.90339
2.93703
2.9601
2.97977
3.01838
3.09762
3.21593
3.34085
3.43392
3.47456
3.4888
1
1
1
1
1
1
1
1
1
1
1
1
1
1
1
1
1
1
1
1
1
1
1
1
1
1
1
1
1
1
1
1
1.44381
2.59607
2.80475
2.8266
2.85889
2.8904
2.92108
2.94414
2.96166
2.99348
3.06124
3.16979
3.29544
3.39937
3.45059
3.46925
1
1
1
1
1
1
1
1
1
1
1
1
1
1
1
1
1
1
1
1
1
1
1
1
1
1
1
1
1
1
1
1
1.09463
2.4261
2.79432
2.82267
2.8504
2.87442
2.90033
2.92439
2.94142
2.96783
3.02354
3.1204
3.24497
3.3586
3.41933
3.43245
1
1
1
1
1
1
1
1
1
1
1
1
1
1
1
1
1
1
1
1
1
1
1
1
1
1
1
1
1
1
1
1
1.00118
2.20613
2.7752
2.81928
2.83638
2.85318
2.87498
2.9008
2.91943
2.94199
2.98546
3.067
3.18275
3.29735
3.36503
3.3816
1
1
1
1
1
1
1
1
1
1
1
1
1
1
1
1
1
1
1
1
1
1
1
1
1
1
1
1
1
1
1
1
1
1.86437
2.7162
2.79957
2.81333
2.82718
2.84805
2.87583
2.89722
2.91546
2.94634
3.00931
3.11094
3.22597
3.30842
3.35435
1
1
1
1
1
1
1
1
1
1
1
1
1
1
1
1
1
1
1
1
1
1
1
1
1
1
1
1
1
1
1
1
1
1.40428
2.56769
2.77326
2.78609
2.80054
2.82088
2.84966
2.87421
2.88822
2.90811
2.95301
3.0351
3.12487
3.14346
3.07089
1
1
1
1
1
1
1
1
1
1
1
1
1
1
1
1
1
1
1
1
1
1
1
1
1
1
1
1
1
1
1
1
1
1.02846
2.36537
2.73782
2.76647
2.77744
2.79592
2.82303
2.84781
2.85868
2.86893
2.89533
2.94852
3.00236
2.99927
2.87427
1
1
1
1
1
1
1
1
1
1
1
1
1
1
1
1
1
1
1
1
1
1
1
1
1
1
1
1
1
1
1
1
1
1.0002
2.05509
2.68106
2.74746
2.75189
2.76799
2.79156
2.81533
2.82723
2.83036
2.84165
2.86714
2.89345
2.86714
2.73011
1
1
1
1
1
1
1
1
1
1
1
1
1
1
1
1
1
1
1
1
1
1
1
1
1
1
1
1
1
1
1
1
1
1
1.54335
2.55687
2.72046
2.72703
2.74094
2.75877
2.77949
2.79451
2.79569
2.79448
2.79695
2.79753
2.75743
2.64553
1
1
1
1
1
1
1
1
1
1
1
1
1
1
1
1
1
1
1
1
1
1
1
1
1
1
1
1
1
1
1
1
1
1
1.05635
2.34573
2.68776
2.70517
2.71763
2.72744
2.74252
2.75785
2.75924
2.75321
2.74156
2.71909
2.67139
2.58229
1
1
1
1
1
1
1
1
1
1
1
1
1
1
1
1
1
1
1
1
1
1
1
1
1
1
1
1
1
1
1
1
1
1
1.00059
1.94825
2.61935
2.69297
2.6919
2.69349
2.70022
2.71627
2.72415
2.71815
2.69883
2.66361
2.61144
2.53691
1
1
1
1
1
1
1
1
1
1
1
1
1
1
1
1
1
1
1
1
1
1
1
1
1
1
1
1
1
1
1
1
1
1
1
1.32176
2.45378
2.67167
2.66536
2.66168
2.66205
2.67069
2.6853
2.68201
2.66319
2.62322
2.57173
2.50626
1
1
1
1
1
1
1
1
1
1
1
1
1
1
1
1
1
1
1
1
1
1
1
1
1
1
1
1
1
1
1
1
1
1
1
1.01515
2.14002
2.60821
2.64853
2.64089
2.63005
2.63046
2.64013
2.63989
2.62778
2.59533
2.54773
2.4871
1
1
1
1
1
1
1
1
1
1
1
1
1
1
1
1
1
1
1
1
1
1
1
1
1
1
1
1
1
1
1
1
1
1
1
1.00005
1.50871
2.46501
2.62224
2.61469
2.60497
2.59617
2.59632
2.59496
2.58615
2.56247
2.52282
2.47126
1
1
1
1
1
1
1
1
1
1
1
1
1
1
1
1
1
1
1
1
1
1
1
1
1
1
1
1
1
1
1
1
1
1
1
1
1.04277
2.16955
2.55091
2.58297
2.58125
2.57171
2.56033
2.55068
2.54002
2.52226
2.49315
2.4526
1
1
1
1
1
1
1
1
1
1
1
1
1
1
1
1
1
1
1
1
1
1
1
1
1
1
1
1
1
1
1
1
1
1
1
1
1.00029
1.52272
2.40735
2.559
2.55184
2.54489
2.53202
2.51515
2.49817
2.48106
2.45855
2.42741
1
1
1
1
1
1
1
1
1
1
1
1
1
1
1
1
1
1
1
1
1
1
1
1
1
1
1
1
1
1
1
1
1
1
1
1
1
1.04513
2.08646
2.48396
2.5189
2.51483
2.50258
2.4842
2.4645
2.44519
2.4245
2.39913
1
1
1
1
1
1
1
1
1
1
1
1
1
1
1
1
1
1
1
1
1
1
1
1
1
1
1
1
1
1
1
1
1
1
1
1
1
1.00031
1.38472
2.30978
2.49299
2.47933
2.46839
2.4517
2.4332
2.41514
2.39564
2.37223
1
1
1
1
1
1
1
1
1
1
1
1
1
1
1
1
1
1
1
1
1
1
1
1
1
1
1
1
1
1
1
1
1
1
1
1
1
1
1.0243
1.8921
2.39368
2.458
2.441
2.42513
2.40759
2.38835
2.36732
2.34496
1
1
1
1
1
1
1
1
1
1
1
1
1
1
1
1
1
1
1
1
1
1
1
1
1
1
1
1
1
1
1
1
1
1
1
1
1
1
1.00013
1.21906
2.15564
2.41532
2.40021
2.38822
2.37833
2.36297
2.34396
2.32289
1
1
1
1
1
1
1
1
1
1
1
1
1
1
1
1
1
1
1
1
1
1
1
1
1
1
1
1
1
1
1
1
1
1
1
1
1
1
1
1.00671
1.57068
2.27105
2.38427
2.36258
2.34991
2.33255
2.31489
2.29727
1
1
1
1
1
1
1
1
1
1
1
1
1
1
1
1
1
1
1
1
1
1
1
1
1
1
1
1
1
1
1
1
1
1
1
1
1
1
1
1.00002
1.06675
1.87274
2.29828
2.35168
2.32675
2.31081
2.29309
2.27312
1
1
1
1
1
1
1
1
1
1
1
1
1
1
1
1
1
1
1
1
1
1
1
1
1
1
1
1
1
1
1
1
1
1
1
1
1
1
1
1
1.00079
1.23647
2.03982
2.3006
2.29504
2.28195
2.26973
2.25378
1
1
1
1
1
1
1
1
1
1
1
1
1
1
1
1
1
1
1
1
1
1
1
1
1
1
1
1
1
1
1
1
1
1
1
1
1
1
1
1
1
1.00817
1.45992
2.11821
2.27169
2.25636
2.2355
2.22371
1
1
1
1
1
1
1
1
1
1
1
1
1
1
1
1
1
1
1
1
1
1
1
1
1
1
1
1
1
1
1
1
1
1
1
1
1
1
1
1
1
1.00003
1.03867
1.63324
2.14653
2.23725
2.21729
2.19186
1
1
1
1
1
1
1
1
1
1
1
1
1
1
1
1
1
1
1
1
1
1
1
1
1
1
1
1
1
1
1
1
1
1
1
1
1
1
1
1
1
1
1.00033
1.09806
1.74348
2.13804
2.20181
2.17932
1
1
1
1
1
1
1
1
1
1
1
1
1
1
1
1
1
1
1
1
1
1
1
1
1
1
1
1
1
1
1
1
1
1
1
1
1
1
1
1
1
1
1
1.0016
1.17307
1.79211
2.11303
2.16546
1
1
1
1
1
1
1
1
1
1
1
1
1
1
1
1
1
1
1
1
1
1
1
1
1
1
1
1
1
1
1
1
1
1
1
1
1
1
1
1
1
1
1
1
1.00471
1.23426
1.80693
2.08268
1
1
1
1
1
1
1
1
1
1
1
1
1
1
1
1
1
1
1
1
1
1
1
1
1
1
1
1
1
1
1
1
1
1
1
1
1
1
1
1
1
1
1
1
1.00002
1.00914
1.27278
1.80118
1
1
1
1
1
1
1
1
1
1
1
1
1
1
1
1
1
1
1
1
1
1
1
1
1
1
1
1
1
1
1
1
1
1
1
1
1
1
1
1
1
1
1
1
1
1.00004
1.0133
1.28921
1
1
1
1
1
1
1
1
1
1
1
1
1
1
1
1
1
1
1
1
1
1
1
1
1
1
1
1
1
1
1
1
1
1
1
1
1
1
1
1
1
1
1
1
1
1
1.00008
1.01557
1
1
1
1
1
1
1
1
1
1
1
1
1
1
1
1
1
1
1
1
1
1
1
1
1
1
1
1
1
1
1
1
1
1
1
1
1
1
1
1
1
1
1
1
1
1
1
1.0001
1
1
1
1
1
1
1
1
1
1
1
1
1
1
1
1
1
1
1
1
1
1
1
1
1
1
1
1
1
1
1
1
1
1
1
1
1
1
1
1
1
1
1
1
1
1
1
1
1
1
1
1
1
1
1
1
1
1
1
1
1
1
1
1
1
1
1
1
1
1
1
1
1
1
1
1
1
1
1
1
1
1
1
1
1
1
1
1
1
1
1
1
1
1
1
1
1
1
1
1
1
1
1
1
1
1
1
1
1
1
1
1
1
1
1
1
1
1
1
1
1
1
1
1
1
1
1
1
1
1
1
1
1
1
1
1
1
1
1
1
1
1
1
1
1
1
1
1
1
1
1
1
1
1
1
1
1
1
1
1
1
1
1
1
1
1
1
1
1
1
1
1
1
1
1
1
1
1
1
1
1
1
1
1
1
1
1
1
1
1
1
1
1
1
1
1
1
1
1
1
1
1
1
1
1
1
1
1
1
1
1
1
1
1
1
1
1
1
1
1
1
1
1
1
1
1
1
1
1
1
1
1
1
1
1
1
1
1
1
1
1
1
1
1
1
1
1
1
1
1
1
1
1
1
1
1
1
1
1
1
1
1
1
1
1
1
1
1
1
1
1
1
1
1
1
1
1
1
1
1
1
1
1
1
1
1
1
1
1
1
1
1
1
1
1
1
1
1
1
1
1
1
1
1
1
1
1
1
1
1
1
1
1
1
1
1
1
1
1
1
1
1
1
1
1
1
1
1
1
1
1
1
1
1
1
1
1
1
1
1
1
1
1
1
1
1
1
1
1
1
1
1
1
1
1
1
1
1
1
1
1
1
1
1
1
1
1
1
1
1
1
1
1
1
1
1
1
1
1
1
1
1
1
1
1
1
1
1
1
1
1
1
1
1
1
1
1
1
1
1
1
1
1
1
1
1
1
1
1
1
1
1
1
1
1
1
1
1
1
1
1
1
1
1
1
1
1
1
1
1
1
1
1
1
1
1
1
1
1
1
1
1
1
1
1
1
1
1
1
1
1
1
1
1
1
1
1
1
1
1
1
1
1
1
1
1
1
1
1
1
1
1
1
1
1
1
1
1
1
1
1
1
1
1
1
1
1
1
1
1
1
1
1
1
1
1
1
1
1
1
1
1
1
1
1
1
1
1
1
1
1
1
1
1
1
1
1
1
1
1
1
1
1
1
1
1
1
1
1
1
1
1
1
1
1
1
1
1
1
1
1
1
1
1
1
1
1
1
1
1
1
1
1
1
1
1
1
1
1
1
1
1
1
1
1
1
1
1
1
1
1
1
1
1
1
1
1
1
1
1
1
1
1
1
1
1
1
1
1
1
1
1
1
1
1
1
1
1
1
1
1
1
1
1
1
1
1
1
1
1
1
1
1
1
1
1
1
1
1
1
1
1
1
1
1
1
1
1
1
1
1
1
1
1
1
1
1
1
1
1
1
1
1
1
1
1
1
1
1
1
1
1
1
1
1
1
1
1
1
1
1
1
1
1
1
1
1
1
1
1
1
1
1
1
1
1
1
1
1
1
1
1
1
1
1
1
1
1
1
1
1
1
1
1
1
1
1
1
1
1
1
1
1
1
1
1
1
1
1
1
1
1
1
1
1
1
1
1
1
1
1
1
1
1
1
1
1
1
1
1
1
1
1
1
1
1
1
1
1
1
1
1
1
1
1
1
1
1
1
1
1
1
1
1
1
1
1
1
1
1
1
1
1
1
1
1
1
1
1
1
1
1
1
1
1
1
1
1
1
1
1
1
1
1
1
1
1
1
1
1
1
1
1
1
1
1
1
1
1
1
1
1
1
1
1
1
1
1
1
1
1
1
1
1
1
1
1
1
1
1
1
1
1
1
1
1
1
1
1
1
1
1
1
1
1
1
1
1
1
1
1
1
1
1
1
1
1
1
1
1
1
1
1
1
1
1
1
1
1
1
1
1
1
1
1
1
1
1
1
1
1
1
1
1
1
1
1
1
1
1
1
1
1
1
1
1
1
1
1
1
1
1
1
1
1
1
1
1
1
1
1
1
1
1
1
1
1
1
1
1
1
1
1
1
1
1
1
1
1
1
1
1
1
1
1
1
1
1
1
1
1
1
1
1
1
1
1
1
1
1
1
1
1
1
1
1
1
1
1
1
1
1
1
1
1
1
1
1
1
1
1
1
1
1
1
1
1
1
1
1
1
1
1
1
1
1
1
1
1
1
1
1
1
1
1
1
1
1
1
1
1
1
1
1
1
1
1
1
1
1
1
1
1
1
1
1
1
1
1
1
1
1
1
1
1
1
1
1
1
1
1
1
1
1
1
1
1
1
1
1
1
1
1
1
1
1
1
1
1
1
1
1
1
1
1
1
1
1
1
1
1
1
1
1
1
1
1
1
1
1
1
1
1
1
1
1
1
1
1
1
1
1
1
1
1
1
1
1
1
1
1
1
1
1
1
1
1
1
1
1
1
1
1
1
1
1
1
1
1
1
1
1
1
1
1
1
1
1
1
1
1
1
1
1
1
1
1
1
1
1
1
1
1
1
1
1
1
1
1
1
1
1
1
1
1
1
1
1
1
1
1
1
1
1
1
1
1
1
1
1
1
1
1
1
1
1
1
1
1
1
1
1
1
1
1
1
1
1
1
1
1
1
1
1
1
1
1
1
1
1
1
1
1
1
1
1
1
1
1
1
1
1
1
1
1
1
1
1
1
1
1
1
1
1
1
1
1
1
1
1
1
1
1
1
1
1
1
1
1
1
1
1
1
1
1
1
1
1
1
1
1
1
1
1
1
1
1
1
1
1
1
1
1
1
1
1
1
1
1
1
1
1
1
1
1
1
1
1
1
1
1
1
1
1
1
1
1
1
1
1
1
1
1
1
1
1
1
1
1
1
1
1
1
1
1
1
1
1
1
1
1
1
1
1
1
1
1
1
1
1
1
1
1
1
1
1
1
1
1
1
1
1
1
1
1
1
1
1
1
1
1
1
1
1
1
1
1
1
1
1
1
1
1
1
1
1
1
1
1
1
1
1
1
1
1
1
1
1
1
1
1
1
1
1
1
1
1
1
1
1
1
1
1
1
1
1
1
1
1
1
1
1
1
1
1
1
1
1
1
1
1
1
1
1
1
1
1
1
1
1
1
1
1
1
1
1
1
1
1
1
1
1
1
1
1
1
1
1
1
1
1
1
1
1
1
1
1
1
1
1
1
1
1
1
1
1
1
1
1
1
1
1
1
1
1
1
1
1
1
1
1
1
1
1
1
1
1
1
1
1
1
1
1
1
1
1
1
1
1
1
1
1
1
1
1
1
1
1
1
1
1
1
1
1
1
1
1
1
1
1
1
1
1
1
1
1
1
1
1
1
1
1
1
1
1
1
1
1
1
1
1
1
1
1
1
1
1
1
1
1
1
1
1
1
1
1
1
1
1
1
1
1
1
1
1
1
1
1
1
1
1
1
1
1
1
1
1
1
1
1
1
1
1
1
1
1
1
1
1
1
1
1
1
1
1
1
1
1
1
1
1
1
1
1
1
1
1
1
1
1
1
1
1
1
1
1
1
1
1
1
1
1
1
1
1
1
1
1
1
1
1
1
1
1
1
1
1
1
1
1
1
1
1
1
1
1
1
1
1
1
1
1
1
1
1
1
1
1
1
1
1
1
1
1
1
1
1
1
1
1
1
1
1
1
1
1
1
1
1
1
1
1
1
1
1
1
1
1
1
1
1
1
1
1
1
1
1
1
1
1
1
1
1
1
1
1
1
1
1
1
1
1
1
1
1
1
1
1
1
1
1
1
1
1
1
1
1
1
1
1
1
1
1
1
1
1
1
1
1
1
1
1
1
1
1
1
1
1
1
1
1
1
1
1
1
1
1
1
1
1
1
1
1
1
1
1
1
1
1
1
1
1
1
1
1
1
1
1
1
1
1
1
1
1
1
1
1
1
1
1
1
1
1
1
1
1
1
1
1
1
1
1
1
1
1
1
1
1
1
1
1
1
1
1
1
1
2.03281
1.32554
0.755237
0.759683
0.940732
1.32623
1.51592
1.56237
1.65784
1.77916
1.81451
1.80167
1.79227
1.83337
1.92619
1.98057
2.01913
2.03226
2.01814
2.00385
1.99104
1.9883
1.98891
1.98375
1.97902
1.98187
1.98981
1.9877
1.97887
1.97257
1.97372
1.98195
1.99468
2.00099
1.9988
1.9937
1.98696
1.97658
1.96805
1.96304
1.95635
1.94986
1.94512
1.93859
1.93211
1.92286
1.91192
1.9031
1.89686
1.89351
1.89313
1.89356
1.89185
1.88938
1.88775
1.88526
1.88216
1.87949
1.87503
1.86936
1.86507
1.86403
1.86377
1.86379
1.86473
1.86646
1.86681
1.86564
1.86014
1.84585
1.81742
1.77374
1.72658
1.70041
1.696
1.69648
1.70088
1.70547
1.70511
1.69988
1.68602
1.66045
1.6197
1.5627
1.49125
1.40342
1.29043
1.15465
1.04773
1.00806
0.998129
0.993487
0.99213
0.992512
0.992926
0.993262
0.994294
0.998386
1.00249
1.00341
1.00437
1.00551
1.00591
1.00585
1.00496
1.00317
1.00224
1.00198
1.00176
1.00153
1.00131
1.00117
1.00118
1.00138
1.00211
1.00398
1.00753
1.01104
1.01203
1.01209
1.0121
1.01204
1.0116
1.01005
1.00652
1.00205
1.00016
1
1
1
1
1
1
1
1
1
1
1
1
1
1
1
1
1
1
1
1
1
1
1
1
1
1
1
1
1
1
1
1
1
1
1
1
1
1
1
1
1
1
1
1
1
1
1
1
1
1
1
1
1
1
1
1
1
1
1
1
1
1
1
1
1
2.31797
1.89999
1.71478
1.54426
1.32468
1.33122
1.37623
1.3741
1.38187
1.3894
1.41109
1.45293
1.48684
1.53734
1.62336
1.71481
1.772
1.796
1.8106
1.83308
1.85527
1.87488
1.89154
1.90184
1.91006
1.92165
1.92688
1.92452
1.91761
1.917
1.92375
1.93958
1.95543
1.96092
1.95941
1.9566
1.9518
1.94406
1.93816
1.93586
1.93215
1.92721
1.92078
1.91578
1.91057
1.9011
1.8889
1.88007
1.87443
1.87146
1.87042
1.87017
1.86908
1.86748
1.86609
1.86493
1.86528
1.86531
1.86411
1.86099
1.85742
1.85393
1.84886
1.84652
1.84664
1.84846
1.85114
1.85128
1.84888
1.83924
1.81612
1.77708
1.73181
1.69835
1.68562
1.68335
1.68506
1.68938
1.68967
1.68549
1.67255
1.64759
1.60761
1.55147
1.47915
1.38978
1.28022
1.15288
1.04545
1.00339
0.994558
0.991176
0.990137
0.990282
0.990502
0.990957
0.993341
0.998214
1.00141
1.00212
1.00318
1.00445
1.0051
1.00518
1.00477
1.00327
1.00203
1.00167
1.00147
1.00129
1.00115
1.00114
1.00116
1.00133
1.00195
1.00385
1.00769
1.01121
1.0121
1.01214
1.01214
1.01202
1.01152
1.01008
1.00661
1.00207
1.00015
1
1
1
1
1
1
1
1
1
1
1
1
1
1
1
1
1
1
1
1
1
1
1
1
1
1
1
1
1
1
1
1
1
1
1
1
1
1
1
1
1
1
1
1
1
1
1
1
1
1
1
1
1
1
1
1
1
1
1
1
1
1
1
1
1
2.39547
2.11844
1.97093
1.80561
1.65818
1.55023
1.51293
1.4495
1.36837
1.33847
1.33309
1.33312
1.35117
1.39196
1.43427
1.4796
1.5181
1.54428
1.56875
1.61393
1.66558
1.71159
1.74633
1.78153
1.80709
1.82109
1.82503
1.82459
1.82023
1.81649
1.82359
1.84345
1.86187
1.86821
1.87059
1.87378
1.8723
1.86365
1.85832
1.85895
1.85982
1.8599
1.85634
1.85418
1.85137
1.84215
1.82745
1.81924
1.81603
1.81529
1.81568
1.81604
1.81524
1.81338
1.81045
1.80709
1.80653
1.8086
1.8117
1.81536
1.81939
1.81949
1.81474
1.80899
1.80531
1.80456
1.80391
1.80316
1.80224
1.79872
1.78639
1.75972
1.72437
1.69085
1.66719
1.65414
1.64823
1.64751
1.64696
1.64255
1.63105
1.61013
1.57607
1.52558
1.45906
1.37703
1.27505
1.1536
1.0459
0.997982
0.992544
0.992638
0.992183
0.991966
0.992095
0.993042
0.996295
0.999509
1.00139
1.00277
1.00416
1.00521
1.0057
1.00575
1.00551
1.00443
1.00269
1.00175
1.00148
1.00131
1.00113
1.00101
1.001
1.00114
1.00189
1.00404
1.00805
1.01152
1.01232
1.01236
1.01235
1.01219
1.01159
1.00988
1.00619
1.00179
1.00012
1
1
1
1
1
1
1
1
1
1
1
1
1
1
1
1
1
1
1
1
1
1
1
1
1
1
1
1
1
1
1
1
1
1
1
1
1
1
1
1
1
1
1
1
1
1
1
1
1
1
1
1
1
1
1
1
1
1
1
1
1
1
1
1
1
2.42609
2.2459
2.12338
1.98921
1.81954
1.72483
1.66745
1.5928
1.50223
1.47777
1.46471
1.4248
1.38755
1.38643
1.38636
1.38847
1.3944
1.40174
1.41028
1.43956
1.50124
1.56092
1.59359
1.62634
1.6613
1.67873
1.69143
1.70949
1.72284
1.72976
1.74429
1.76007
1.77186
1.77513
1.77677
1.77976
1.77815
1.76962
1.76496
1.76591
1.76929
1.77155
1.77019
1.76924
1.76769
1.76153
1.74852
1.74
1.73825
1.73747
1.73723
1.73756
1.7369
1.73464
1.73201
1.72985
1.72921
1.73067
1.73489
1.74126
1.74747
1.74859
1.74604
1.74203
1.74033
1.73925
1.73781
1.73678
1.73649
1.73528
1.72927
1.71374
1.68898
1.65956
1.63187
1.61134
1.59788
1.58967
1.58423
1.57696
1.56381
1.54213
1.50959
1.4644
1.40745
1.3397
1.25612
1.15171
1.04731
0.995106
0.988322
0.988659
0.991057
0.992918
0.993827
0.995127
0.997043
0.99932
1.00131
1.00323
1.00489
1.00564
1.00579
1.00581
1.00569
1.00496
1.00324
1.00173
1.00126
1.0011
1.00094
1.00081
1.00076
1.00091
1.00176
1.00419
1.00853
1.01192
1.01259
1.01262
1.01261
1.01243
1.01173
1.00979
1.00571
1.00141
1.00007
1
1
1
1
1
1
1
1
1
1
1
1
1
1
1
1
1
1
1
1
1
1
1
1
1
1
1
1
1
1
1
1
1
1
1
1
1
1
1
1
1
1
1
1
1
1
1
1
1
1
1
1
1
1
1
1
1
1
1
1
1
1
1
1
1
2.44002
2.29634
2.17417
2.07916
1.97391
1.87168
1.78533
1.69299
1.60246
1.58626
1.57003
1.52981
1.47669
1.45927
1.44184
1.41181
1.387
1.38747
1.39013
1.39328
1.40418
1.42588
1.45834
1.48795
1.52323
1.55909
1.58249
1.60658
1.63086
1.64457
1.66375
1.68837
1.70622
1.71638
1.71941
1.7173
1.70939
1.69798
1.69237
1.69254
1.69517
1.69753
1.69742
1.69631
1.69389
1.68863
1.67832
1.66921
1.66689
1.66511
1.66349
1.66272
1.66076
1.6569
1.65363
1.65222
1.65242
1.65396
1.6574
1.66287
1.66774
1.66874
1.667
1.66323
1.66089
1.65912
1.65742
1.65729
1.66033
1.66181
1.65936
1.6515
1.63627
1.61331
1.58652
1.56158
1.54115
1.52496
1.511
1.4956
1.47543
1.44892
1.41517
1.37411
1.3271
1.27456
1.21234
1.13315
1.04619
0.996353
0.987825
0.988373
0.992038
0.994565
0.995258
0.99577
0.996541
0.998266
1.00064
1.00264
1.00472
1.00625
1.00637
1.0063
1.00612
1.00535
1.00356
1.00155
1.00083
1.00069
1.00061
1.00055
1.00055
1.00079
1.00181
1.00453
1.00919
1.01243
1.01296
1.01299
1.01297
1.01271
1.01183
1.0095
1.00502
1.001
1.00004
1
1
1
1
1
1
1
1
1
1
1
1
1
1
1
1
1
1
1
1
1
1
1
1
1
1
1
1
1
1
1
1
1
1
1
1
1
1
1
1
1
1
1
1
1
1
1
1
1
1
1
1
1
1
1
1
1
1
1
1
1
1
1
1
1
2.42973
2.3243
2.23177
2.12786
2.01948
1.95179
1.88493
1.80743
1.71061
1.67278
1.64022
1.59797
1.55792
1.54253
1.52125
1.48213
1.44246
1.43345
1.42382
1.40317
1.39387
1.39974
1.40003
1.39105
1.39324
1.41135
1.44098
1.47532
1.52762
1.57045
1.59656
1.62323
1.64329
1.65268
1.65847
1.66491
1.66467
1.65893
1.65302
1.64845
1.64497
1.64496
1.64424
1.64062
1.63652
1.63275
1.62713
1.61934
1.61465
1.61066
1.60684
1.60422
1.6012
1.59698
1.59257
1.58952
1.58923
1.58941
1.59012
1.59241
1.59594
1.59855
1.59824
1.59516
1.59185
1.58939
1.58709
1.58601
1.58705
1.58877
1.5872
1.58228
1.57343
1.55874
1.53779
1.51356
1.48998
1.4684
1.44702
1.42273
1.39362
1.35932
1.32008
1.278
1.2369
1.19717
1.15366
1.09847
1.03474
0.995461
0.988625
0.989731
0.993035
0.994296
0.994725
0.994934
0.99542
0.997729
1.001
1.00352
1.00568
1.00683
1.00697
1.0069
1.00657
1.0056
1.00373
1.00151
1.00042
1.00028
1.00025
1.00023
1.00025
1.00057
1.00184
1.00507
1.01009
1.01305
1.01344
1.01346
1.01341
1.01305
1.01192
1.00907
1.00415
1.00062
1.00001
1
1
1
1
1
1
1
1
1
1
1
1
1
1
1
1
1
1
1
1
1
1
1
1
1
1
1
1
1
1
1
1
1
1
1
1
1
1
1
1
1
1
1
1
1
1
1
1
1
1
1
1
1
1
1
1
1
1
1
1
1
1
1
1
1
2.42154
2.32832
2.24454
2.16798
2.08238
2.00065
1.93377
1.86112
1.79087
1.75358
1.71508
1.65772
1.61228
1.59471
1.57018
1.5342
1.49321
1.48326
1.47066
1.44683
1.4249
1.41727
1.40334
1.37602
1.36134
1.36189
1.36725
1.37917
1.40758
1.46173
1.50869
1.54751
1.57987
1.58803
1.59762
1.60999
1.62115
1.62932
1.6286
1.6236
1.6145
1.60976
1.60464
1.59776
1.59377
1.59191
1.5895
1.58452
1.57813
1.57162
1.56548
1.55999
1.55512
1.55139
1.54724
1.54284
1.54049
1.54007
1.53975
1.53997
1.54103
1.54246
1.54236
1.5389
1.53447
1.53317
1.53204
1.53029
1.52837
1.5272
1.52406
1.51861
1.51187
1.50168
1.48599
1.46576
1.44367
1.42011
1.39305
1.36087
1.32317
1.28041
1.23537
1.19366
1.15948
1.13079
1.10022
1.06126
1.01907
0.994131
0.98965
0.990745
0.992899
0.993535
0.99394
0.994052
0.994403
0.997032
1.00091
1.00391
1.00629
1.00734
1.00749
1.00746
1.00701
1.0058
1.00381
1.00145
1.00014
0.999979
0.99997
0.99997
0.999992
1.00033
1.00188
1.00574
1.0111
1.01367
1.01393
1.01395
1.01387
1.01339
1.01192
1.00839
1.00316
1.00033
1
1
1
1
1
1
1
1
1
1
1
1
1
1
1
1
1
1
1
1
1
1
1
1
1
1
1
1
1
1
1
1
1
1
1
1
1
1
1
1
1
1
1
1
1
1
1
1
1
1
1
1
1
1
1
1
1
1
1
1
1
1
1
1
1
1
2.41164
2.33256
2.26137
2.18312
2.10477
2.0441
1.98504
1.90782
1.83774
1.79785
1.76076
1.7185
1.68275
1.65652
1.62378
1.57548
1.53479
1.52894
1.51919
1.4978
1.46963
1.45537
1.43647
1.40057
1.36731
1.35745
1.35783
1.36363
1.36695
1.37559
1.39723
1.42597
1.46137
1.5027
1.52902
1.54859
1.57275
1.58955
1.59188
1.59105
1.58865
1.58306
1.57288
1.56637
1.56376
1.56098
1.55787
1.55237
1.54291
1.53284
1.5262
1.52102
1.51609
1.51304
1.5106
1.507
1.50345
1.50147
1.50023
1.49855
1.49541
1.49514
1.49508
1.49091
1.48665
1.48706
1.48775
1.48647
1.48264
1.47764
1.47182
1.46505
1.45777
1.44816
1.43461
1.41789
1.39836
1.37377
1.3423
1.30406
1.25927
1.21097
1.16684
1.13338
1.11033
1.0899
1.06321
1.03268
1.00735
0.993743
0.990914
0.991788
0.992983
0.993193
0.993432
0.99394
0.995009
0.998048
1.00201
1.00498
1.00704
1.00777
1.00783
1.00777
1.00733
1.00604
1.00389
1.0013
0.999813
0.999645
0.999648
0.999656
0.999734
1.00032
1.0023
1.00685
1.01232
1.01436
1.01451
1.01452
1.01437
1.01369
1.01174
1.0074
1.00215
1.00014
1
1
1
1
1
1
1
1
1
1
1
1
1
1
1
1
1
1
1
1
1
1
1
1
1
1
1
1
1
1
1
1
1
1
1
1
1
1
1
1
1
1
1
1
1
1
1
1
1
1
1
1
1
1
1
1
1
1
1
1
1
1
1
1
1
1
2.40734
2.33612
2.26971
2.20507
2.13265
2.06659
2.01078
1.94469
1.89227
1.85321
1.80806
1.74905
1.72108
1.70148
1.67431
1.62978
1.57709
1.56226
1.55118
1.52975
1.5007
1.48293
1.46483
1.43115
1.39069
1.37377
1.37091
1.37173
1.36465
1.35995
1.3673
1.36972
1.37088
1.38169
1.41351
1.45185
1.49668
1.5324
1.54303
1.55116
1.55419
1.55205
1.54582
1.54047
1.54071
1.53785
1.53045
1.52075
1.50719
1.494
1.4875
1.48325
1.48005
1.47971
1.47958
1.47741
1.47254
1.46797
1.46456
1.4604
1.45265
1.44923
1.45042
1.44817
1.44583
1.44781
1.45102
1.44907
1.44281
1.43451
1.42575
1.41694
1.40805
1.39759
1.38556
1.37203
1.35325
1.32561
1.28994
1.24775
1.20132
1.15685
1.12324
1.10381
1.08733
1.06153
1.03327
1.0127
1.00065
0.994279
0.993162
0.993968
0.994047
0.993697
0.99371
0.993905
0.995385
0.999024
1.00308
1.00611
1.00768
1.00812
1.00815
1.00808
1.00758
1.00623
1.00394
1.00113
0.999486
0.999297
0.9993
0.99931
0.999435
1.00023
1.00284
1.00828
1.01362
1.01506
1.01515
1.01514
1.0149
1.01394
1.01129
1.00609
1.00125
1.00005
1
1
1
1
1
1
1
1
1
1
1
1
1
1
1
1
1
1
1
1
1
1
1
1
1
1
1
1
1
1
1
1
1
1
1
1
1
1
1
1
1
1
1
1
1
1
1
1
1
1
1
1
1
1
1
1
1
1
1
1
1
1
1
1
1
1
2.39852
2.34
2.28247
2.21651
2.15278
2.09942
2.044
1.97681
1.9274
1.88933
1.84919
1.80105
1.76208
1.73238
1.70094
1.66522
1.6236
1.59842
1.58285
1.56438
1.53196
1.50575
1.48995
1.46756
1.43375
1.41081
1.40369
1.40103
1.39376
1.37763
1.36672
1.36164
1.34883
1.33587
1.33652
1.34937
1.38412
1.43458
1.47791
1.50045
1.51103
1.51133
1.50966
1.51214
1.51667
1.51587
1.5065
1.49233
1.47521
1.4597
1.45213
1.44782
1.44664
1.44849
1.44973
1.44747
1.44138
1.43457
1.42892
1.42275
1.41295
1.40619
1.40745
1.40958
1.41013
1.41293
1.41452
1.4113
1.40311
1.39347
1.38277
1.37186
1.3614
1.35146
1.34278
1.33098
1.30855
1.27579
1.23713
1.19445
1.15234
1.11948
1.10171
1.08776
1.06128
1.03241
1.01384
1.00267
0.997232
0.995163
0.995721
0.996561
0.995597
0.99465
0.994447
0.994666
0.996371
0.999776
1.0036
1.00669
1.0082
1.00854
1.00856
1.00847
1.0079
1.00645
1.00401
1.00093
0.999212
0.99901
0.999011
0.999021
0.999236
1.0004
1.0038
1.0101
1.01489
1.01577
1.01583
1.0158
1.01541
1.01402
1.01046
1.00451
1.00059
1.00001
1
1
1
1
1
1
1
1
1
1
1
1
1
1
1
1
1
1
1
1
1
1
1
1
1
1
1
1
1
1
1
1
1
1
1
1
1
1
1
1
1
1
1
1
1
1
1
1
1
1
1
1
1
1
1
1
1
1
1
1
1
1
1
1
1
1
2.38395
2.33531
2.28629
2.23262
2.17296
2.12003
2.06731
2.01014
1.96724
1.92894
1.8822
1.82785
1.79208
1.76311
1.73252
1.70162
1.66707
1.62702
1.5991
1.58599
1.56589
1.5329
1.5063
1.48887
1.46821
1.44213
1.42478
1.41896
1.41499
1.40263
1.38088
1.35916
1.3427
1.32756
1.31997
1.32192
1.32887
1.34707
1.37836
1.40807
1.43803
1.45598
1.46437
1.47296
1.4795
1.48172
1.4778
1.46595
1.44849
1.43206
1.42298
1.41747
1.41669
1.41837
1.41799
1.41359
1.40627
1.39881
1.39259
1.38589
1.37654
1.36982
1.37023
1.37515
1.376
1.37579
1.37502
1.37018
1.36099
1.35137
1.34046
1.32922
1.32
1.31374
1.30611
1.28789
1.25814
1.22419
1.18741
1.14859
1.11553
1.09687
1.08479
1.06149
1.03226
1.01258
1.00216
0.998225
0.996177
0.996542
0.999027
0.9991
0.997526
0.996475
0.996287
0.996522
0.997543
0.99984
1.00308
1.00622
1.00826
1.00886
1.0089
1.00886
1.00834
1.00676
1.00385
1.00045
0.998914
0.998746
0.998727
0.998762
0.999174
1.0008
1.00523
1.01217
1.01605
1.01652
1.01656
1.01648
1.01587
1.01386
1.00911
1.00288
1.00021
1
1
1
1
1
1
1
1
1
1
1
1
1
1
1
1
1
1
1
1
1
1
1
1
1
1
1
1
1
1
1
1
1
1
1
1
1
1
1
1
1
1
1
1
1
1
1
1
1
1
1
1
1
1
1
1
1
1
1
1
1
1
1
1
1
1
1
2.36413
2.32567
2.28406
2.23608
2.18698
2.14162
2.09036
2.03324
1.98745
1.9531
1.91559
1.87316
1.82623
1.77753
1.74648
1.7271
1.70623
1.67778
1.63244
1.59161
1.57583
1.55414
1.52609
1.50948
1.50007
1.48502
1.4606
1.4396
1.4334
1.4257
1.40636
1.37658
1.35694
1.34508
1.32952
1.31946
1.3192
1.32062
1.32078
1.32361
1.33824
1.37266
1.40847
1.42572
1.43807
1.44134
1.43875
1.43134
1.42195
1.41143
1.40151
1.3956
1.39354
1.3911
1.38541
1.37723
1.36874
1.36106
1.3554
1.35031
1.34413
1.33906
1.33954
1.34158
1.33949
1.3354
1.33191
1.3259
1.3176
1.30893
1.29954
1.2911
1.28545
1.27882
1.26273
1.23565
1.20615
1.17721
1.14644
1.11536
1.09302
1.07912
1.05893
1.03214
1.01169
1.00138
0.997791
0.995986
0.996441
1.00005
1.0016
1.0008
0.999162
0.998239
0.99814
0.99829
0.998799
1.00003
1.00255
1.00569
1.00832
1.00928
1.00937
1.00934
1.0088
1.00697
1.00337
0.999703
0.998443
0.998333
0.998327
0.998449
0.999156
1.00154
1.00725
1.01436
1.01711
1.01733
1.01736
1.01719
1.01623
1.01326
1.00721
1.00149
1.00005
1
1
1
1
1
1
1
1
1
1
1
1
1
1
1
1
1
1
1
1
1
1
1
1
1
1
1
1
1
1
1
1
1
1
1
1
1
1
1
1
1
1
1
1
1
1
1
1
1
1
1
1
1
1
1
1
1
1
1
1
1
1
1
1
1
1
1
2.34191
2.30934
2.2748
2.23501
2.19331
2.15024
2.10399
2.05723
2.01428
1.97009
1.92796
1.89658
1.8586
1.81543
1.77202
1.7381
1.72132
1.7014
1.66846
1.62163
1.59143
1.57384
1.54888
1.52429
1.51767
1.51178
1.49534
1.47083
1.45198
1.43888
1.421
1.3953
1.36654
1.35444
1.34422
1.3276
1.31486
1.30913
1.30617
1.30646
1.30428
1.30758
1.32595
1.35214
1.36979
1.39028
1.39333
1.39041
1.38813
1.38619
1.38194
1.37898
1.37325
1.36457
1.35457
1.34418
1.3342
1.32558
1.32068
1.3177
1.31425
1.30937
1.30464
1.30121
1.2973
1.29312
1.28894
1.28326
1.27737
1.27152
1.2651
1.25907
1.25126
1.23522
1.21123
1.18653
1.1634
1.1405
1.1175
1.09634
1.07843
1.05733
1.03131
1.01085
1.00124
0.997683
0.996842
0.997991
1.00211
1.00397
1.0036
1.00201
0.999714
0.999029
0.999118
0.999152
0.999604
1.00098
1.00344
1.0068
1.00945
1.01014
1.01021
1.01002
1.00902
1.00638
1.00207
0.999011
0.998412
0.99836
0.998367
0.998527
0.999476
1.00276
1.00976
1.01641
1.0181
1.01821
1.01822
1.01789
1.01632
1.012
1.00491
1.00057
1.00001
1
1
1
1
1
1
1
1
1
1
1
1
1
1
1
1
1
1
1
1
1
1
1
1
1
1
1
1
1
1
1
1
1
1
1
1
1
1
1
1
1
1
1
1
1
1
1
1
1
1
1
1
1
1
1
1
1
1
1
1
1
1
1
1
1
1
1
2.31929
2.29164
2.26101
2.22776
2.19347
2.15631
2.1134
2.07186
2.03095
1.98603
1.94711
1.91639
1.88357
1.84507
1.79704
1.76245
1.74089
1.71925
1.69135
1.64813
1.61114
1.59567
1.57922
1.55424
1.53749
1.52896
1.51398
1.49173
1.47153
1.45623
1.43792
1.4148
1.38736
1.3726
1.36498
1.35048
1.33063
1.32005
1.31504
1.30681
1.29789
1.29021
1.27772
1.27845
1.28728
1.3054
1.33081
1.34607
1.35014
1.3521
1.35254
1.35167
1.34571
1.33594
1.32584
1.31617
1.30749
1.29963
1.29525
1.2923
1.28624
1.2759
1.26555
1.25898
1.25546
1.2525
1.24958
1.2471
1.24509
1.24166
1.23491
1.22401
1.2073
1.18649
1.1666
1.14935
1.1332
1.11676
1.0992
1.07926
1.057
1.03275
1.01223
1.0021
0.998519
0.998355
1.00067
1.0045
1.00571
1.00561
1.00468
1.00222
0.999735
0.998848
0.998725
0.998856
0.999586
1.00159
1.00511
1.009
1.01094
1.01135
1.01138
1.01078
1.0087
1.0047
1.00019
0.998386
0.99821
0.998191
0.998228
0.998595
1.00016
1.00471
1.01272
1.01823
1.01912
1.01919
1.01915
1.01852
1.01596
1.00987
1.00266
1.00015
1
1
1
1
1
1
1
1
1
1
1
1
1
1
1
1
1
1
1
1
1
1
1
1
1
1
1
1
1
1
1
1
1
1
1
1
1
1
1
1
1
1
1
1
1
1
1
1
1
1
1
1
1
1
1
1
1
1
1
1
1
1
1
1
1
1
1
1
2.2987
2.27269
2.24655
2.21866
2.18704
2.15287
2.12014
2.08693
2.04887
2.00492
1.96103
1.92815
1.90512
1.87707
1.83835
1.78794
1.7503
1.73402
1.71471
1.68212
1.63634
1.6116
1.59871
1.5784
1.56224
1.55163
1.53646
1.51044
1.4816
1.46637
1.45004
1.42885
1.40514
1.39017
1.38161
1.36917
1.34825
1.33092
1.32212
1.31049
1.29423
1.28078
1.26693
1.25712
1.2546
1.25657
1.26745
1.28843
1.30285
1.31162
1.31816
1.31792
1.31288
1.30242
1.29416
1.28903
1.28618
1.28316
1.27912
1.27257
1.25954
1.24275
1.22946
1.22127
1.2171
1.21574
1.21555
1.21409
1.21083
1.20614
1.19693
1.1811
1.16166
1.14548
1.13357
1.1229
1.11048
1.09438
1.07472
1.05386
1.03305
1.01504
1.00498
1.00166
1.00176
1.00409
1.00624
1.00634
1.00602
1.00494
1.00259
1.00056
0.999802
0.999103
0.998764
0.998928
1.00028
1.00394
1.00883
1.01156
1.01221
1.01242
1.01228
1.01094
1.00738
1.0022
0.999113
0.998435
0.998308
0.998291
0.998365
0.998993
1.00137
1.00741
1.01588
1.01983
1.02022
1.02028
1.02013
1.01888
1.01474
1.00691
1.00103
1.00002
1
1
1
1
1
1
1
1
1
1
1
1
1
1
1
1
1
1
1
1
1
1
1
1
1
1
1
1
1
1
1
1
1
1
1
1
1
1
1
1
1
1
1
1
1
1
1
1
1
1
1
1
1
1
1
1
1
1
1
1
1
1
1
1
1
1
1
1
2.27734
2.25536
2.23267
2.2084
2.18058
2.14876
2.11593
2.08587
2.05789
2.02589
1.9891
1.95071
1.91196
1.8847
1.86022
1.82181
1.77759
1.74275
1.72404
1.70034
1.6656
1.64029
1.62327
1.59678
1.57459
1.5663
1.55625
1.53555
1.50195
1.47754
1.45906
1.43974
1.41839
1.40593
1.39864
1.38775
1.36949
1.35035
1.33749
1.32377
1.30587
1.28573
1.2675
1.25638
1.24822
1.24249
1.24285
1.24604
1.25307
1.2607
1.26929
1.27612
1.27464
1.26811
1.25942
1.25809
1.26003
1.26034
1.25709
1.24814
1.23341
1.21535
1.20014
1.19145
1.1896
1.19047
1.18885
1.17943
1.17058
1.16526
1.15751
1.14391
1.128
1.1179
1.11173
1.10219
1.08595
1.06612
1.04654
1.0296
1.01619
1.00766
1.00558
1.00634
1.0078
1.00771
1.0067
1.00621
1.00523
1.00229
0.999502
0.998751
0.998397
0.998453
0.999213
1.00093
1.0046
1.00966
1.01263
1.01328
1.01335
1.01298
1.01172
1.00909
1.00423
0.999746
0.998445
0.998333
0.99831
0.998339
0.9986
0.999726
1.00325
1.01095
1.01896
1.02128
1.02144
1.02147
1.02104
1.01866
1.01226
1.00372
1.00025
1
1
1
1
1
1
1
1
1
1
1
1
1
1
1
1
1
1
1
1
1
1
1
1
1
1
1
1
1
1
1
1
1
1
1
1
1
1
1
1
1
1
1
1
1
1
1
1
1
1
1
1
1
1
1
1
1
1
1
1
1
1
1
1
1
1
1
1
1
2.25083
2.2295
2.21166
2.19342
2.1714
2.14501
2.11647
2.08594
2.05381
2.027
2.00184
1.96949
1.93003
1.89714
1.8661
1.83262
1.79294
1.76152
1.74392
1.72106
1.68655
1.66027
1.64487
1.62183
1.59397
1.58065
1.569
1.5487
1.51715
1.4898
1.47158
1.4533
1.4302
1.41678
1.40895
1.40025
1.38681
1.36879
1.35286
1.33593
1.3151
1.28943
1.26594
1.25327
1.24437
1.23513
1.22918
1.23083
1.22983
1.22151
1.21984
1.22315
1.22586