/*--------------------------------*- C++ -*----------------------------------*\
  =========                 |
  \\      /  F ield         | OpenFOAM: The Open Source CFD Toolbox
   \\    /   O peration     | Website:  https://openfoam.org
    \\  /    A nd           | Version:  7
     \\/     M anipulation  |
\*---------------------------------------------------------------------------*/
FoamFile
{
    version     2.0;
    format      ascii;
    class       volScalarField;
    location    "2.6";
    object      p;
}
// * * * * * * * * * * * * * * * * * * * * * * * * * * * * * * * * * * * * * //

dimensions      [1 -1 -2 0 0 0 0];

internalField   nonuniform List<scalar> 
4032
(
1
1
1
1
1
1
1
1
1
1
1
1
6.30829
10.5908
10.7615
10.9546
11.1454
11.3244
11.4918
11.6452
11.7845
11.8997
11.9894
12.0541
1
1
1
1
1
1
1
1
1
1
1
1
6.13315
10.5328
10.7355
10.9261
11.1162
11.2909
11.4528
11.5993
11.7314
11.8397
11.9224
11.9836
1
1
1
1
1
1
1
1
1
1
1
1
5.77536
10.4605
10.6866
10.8732
11.0621
11.2319
11.388
11.5278
11.6533
11.7558
11.8312
11.8929
1
1
1
1
1
1
1
1
1
1
1
1
5.25477
10.3357
10.6201
10.8011
10.9886
11.1527
11.3027
11.4352
11.5502
11.6377
11.6909
11.7296
1
1
1
1
1
1
1
1
1
1
1
1
4.58921
10.1227
10.531
10.703
10.882
11.0322
11.1645
11.2753
11.3664
11.4392
11.4826
11.5398
1
1
1
1
1
1
1
1
1
1
1
1
3.80632
9.7764
10.4277
10.59
10.7567
10.8876
10.9973
11.0885
11.1632
11.2208
11.2294
11.1918
1
1
1
1
1
1
1
1
1
1
1
1
2.9406
9.25157
10.3711
10.5066
10.6439
10.7442
10.8165
10.8634
10.8744
10.8251
10.7499
10.6986
1
1
1
1
1
1
1
1
1
1
1
1
2.02712
8.45014
10.2988
10.3776
10.5028
10.581
10.6142
10.6129
10.5485
10.4453
10.2994
10.2663
1
1
1
1
1
1
1
1
1
1
1
1
1.19334
7.41293
10.362
10.2893
10.3292
10.3524
10.3407
10.2889
10.1366
9.85877
9.0818
7.19848
1
1
1
1
1
1
1
1
1
1
1
1
1.00476
5.95746
9.81631
9.91073
10.0001
10.0387
10.0051
9.90348
9.66703
9.19685
8.38783
6.3347
1
1
1
1
1
1
1
1
1
1
1
1
0.999973
4.2178
9.34034
9.78594
9.83158
9.81764
9.73278
9.56136
9.253
8.67918
7.82749
5.89685
1
1
1
1
1
1
1
1
1
1
1
1
0.999993
2.45021
8.4663
9.68152
9.67215
9.60743
9.46744
9.2324
8.85979
8.28396
7.35994
5.78318
1
1
1
1
1
1
1
1
1
1
1
1
0.999999
1.19878
7.05258
9.66659
9.49915
9.36462
9.18152
8.92102
8.52498
7.97026
7.04817
5.84507
1
1
1
1
1
1
1
1
1
1
1
1
1
1.00356
5.08648
9.09929
9.12791
9.04309
8.88517
8.62732
8.25708
7.70581
6.87482
5.91953
1
1
1
1
1
1
1
1
1
1
1
1
1
0.999963
2.63917
8.25723
9.01447
8.90625
8.71899
8.43354
8.0671
7.50758
6.7952
6.00917
1
1
1
1
1
1
1
1
1
1
1
1
1
0.999991
1.20581
6.50058
8.8973
8.75382
8.55496
8.25094
7.88
7.35836
6.74695
6.0733
1
1
1
1
1
1
1
1
1
1
1
1
1
0.999999
1.00326
3.87948
8.30218
8.56013
8.36784
8.10657
7.73114
7.25693
6.7182
6.12385
1
1
1
1
1
1
1
1
1
1
1
1
1
1
0.999986
1.51995
7.07473
8.59607
8.28116
8.01461
7.62863
7.17005
6.67446
6.14346
1
1
1
1
1
1
1
1
1
1
1
1
1
1
0.999997
1.02234
4.67207
8.0889
8.09456
7.86708
7.5148
7.08633
6.62669
6.15609
1
1
1
1
1
1
1
1
1
1
1
1
1
1
0.999999
1.00001
1.8283
6.99487
8.14585
7.80277
7.44218
7.03981
6.62089
6.19337
1
1
1
1
1
1
1
1
1
1
1
1
1
1
1
1
1.05323
4.71605
7.80353
7.65803
7.34053
6.98557
6.6082
6.20871
1
1
1
1
1
1
1
1
1
1
1
1
1
1
1
1
1.00025
1.87927
6.56162
7.67184
7.30914
6.96725
6.60842
6.23173
1
1
1
1
1
1
1
1
1
1
1
1
1
1
1
1
1
1.05768
4.10226
7.33707
7.22685
6.91351
6.58278
6.24171
1
1
1
1
1
1
1
1
1
1
1
1
1
1
1
1
1
1.00044
1.64152
5.82157
7.25684
6.90682
6.60119
6.27988
1
1
1
1
1
1
1
1
1
1
1
1
1
1
1
1
1
1
1.03178
2.99967
6.52322
6.89285
6.61331
6.31188
1
1
1
1
1
1
1
1
1
1
1
1
1
1
1
1
1
1
1.00027
1.28119
4.5843
6.86579
6.66922
6.37596
1
1
1
1
1
1
1
1
1
1
1
1
1
1
1
1
1
1
1
1.0075
1.9706
5.62543
6.65337
6.40743
1
1
1
1
1
1
1
1
1
1
1
1
1
1
1
1
1
1
1
1.00005
1.07101
3.01889
6.01959
6.44594
1
1
1
1
1
1
1
1
1
1
1
1
1
1
1
1
1
1
1
1
1.00102
1.29038
4.08863
6.20053
1
1
1
1
1
1
1
1
1
1
1
1
1
1
1
1
1
1
1
1
1
1.00884
1.74268
4.82484
1
1
1
1
1
1
1
1
1
1
1
1
1
1
1
1
1
1
1
1
1
1.00007
1.04515
2.32772
1
1
1
1
1
1
1
1
1
1
1
1
1
1
1
1
1
1
1
1
1
1
1.0006
1.1351
1
1
1
1
1
1
1
1
1
1
1
1
1
1
1
1
1
1
1
1
1
1
1
1.00291
1
1
1
1
1
1
1
1
1
1
1
1
1
1
1
1
1
1
1
1
1
1
1
1.00002
1
1
1
1
1
1
1
1
1
1
1
1
1
1
1
1
1
1
1
1
1
1
1
1
1
1
1
1
1
1
1
1
1
1
1
1
1
1
1
1
1
1
1
1
1
1
1
1
1
1
1
1
1
1
1
1
1
1
1
1
1
1
1
1
1
1
1
1
1
1
1
1
1
1
1
1
1
1
1
1
1
1
1
1
1
1
1
1
1
1
1
1
1
1
1
1
1
1
1
1
1
1
1
1
1
1
1
1
1
1
1
1
1
1
1
1
1
1
1
1
1
1
1
1
1
1
1
1
1
1
1
1
1
1
1
1
1
1
1
1
1
1
1
1
1.58646
0.378066
0.170835
0.18506
0.218261
0.246305
0.330127
0.470454
0.657408
0.790797
0.903985
0.998766
1.05848
1.12929
1.22127
1.28372
1.30306
1.2932
1.25531
1.23404
1.22687
1.25567
1.31782
1.35439
1.35895
1.32983
1.28741
1.27662
1.28669
1.32089
1.35647
1.35947
1.34745
1.31952
1.32518
1.51855
4.25931
6.86491
6.84405
6.7603
6.51328
6.21266
6.01681
5.91074
5.82429
5.72433
5.5864
5.45168
5.34491
5.26763
5.17578
5.07117
4.97134
4.88075
4.80527
4.73746
4.65586
4.56244
4.45547
4.33567
4.21552
4.10993
4.03023
3.9671
3.91852
3.89029
3.8577
3.79829
3.7319
3.65723
3.55645
3.43233
3.32948
3.26468
3.21979
3.18034
3.14563
3.11738
3.08274
3.04422
2.98684
2.89143
2.80312
2.75722
2.72606
2.69823
2.67338
2.6455
2.61181
2.55561
2.46
2.38191
2.34926
2.32432
2.30607
2.27904
2.79889
1.42497
0.814519
0.678015
0.614953
0.535752
0.488117
0.49237
0.518356
0.569376
0.642443
0.740066
0.830689
0.901794
0.997418
1.09424
1.13407
1.17483
1.20439
1.22104
1.23406
1.25747
1.28468
1.30263
1.317
1.31443
1.30896
1.29798
1.29758
1.30535
1.31784
1.33155
1.33166
1.34689
1.51641
2.09221
3.76322
6.20918
6.5278
6.44941
6.34628
6.13144
6.00399
5.88617
5.77912
5.66732
5.5408
5.4235
5.3341
5.27393
5.19842
5.09548
4.984
4.8677
4.7653
4.67606
4.60176
4.53074
4.44698
4.36162
4.26564
4.15423
4.04411
3.96591
3.90873
3.86169
3.81774
3.76689
3.70714
3.64024
3.5582
3.46115
3.36499
3.28699
3.23034
3.18697
3.14877
3.1103
3.06878
3.02111
2.96592
2.89631
2.82213
2.766
2.72725
2.69626
2.66704
2.63748
2.60356
2.55619
2.47973
2.39526
2.35002
2.32401
2.30625
2.27548
3.64001
2.44543
1.66685
1.21227
1.02045
0.850556
0.688135
0.630799
0.594781
0.599985
0.636325
0.707088
0.77996
0.805461
0.839448
0.918204
0.989593
1.05772
1.14295
1.23071
1.2929
1.30161
1.29574
1.27893
1.28007
1.29392
1.31518
1.33049
1.3329
1.32343
1.29497
1.28887
1.30942
1.45099
2.13347
2.89391
3.21674
4.47816
5.8836
6.36317
6.42373
6.26189
6.11865
5.93485
5.7809
5.61613
5.49747
5.4023
5.32333
5.2626
5.19219
5.10289
5.01216
4.90816
4.77748
4.63471
4.53022
4.45455
4.39627
4.34558
4.28262
4.21116
4.11694
3.99722
3.89612
3.83291
3.78002
3.72384
3.66007
3.59221
3.52493
3.46029
3.39283
3.32372
3.26099
3.20657
3.15502
3.10307
3.04912
2.98995
2.92617
2.872
2.82763
2.78251
2.73672
2.69709
2.6626
2.62829
2.58963
2.54429
2.48926
2.42246
2.36101
2.32262
2.30261
2.26623
4.22101
3.1753
2.36448
1.8478
1.52111
1.28004
1.08423
0.934833
0.838443
0.780473
0.7618
0.75116
0.730251
0.71594
0.715491
0.743107
0.81363
0.896388
0.989918
1.09974
1.1847
1.22163
1.23846
1.24124
1.25413
1.27901
1.31806
1.35184
1.35384
1.33959
1.29948
1.30748
1.42764
1.99256
2.84659
3.29752
3.24385
3.35824
4.21307
5.34624
6.06687
6.22459
6.14612
5.94386
5.75575
5.5749
5.46236
5.37711
5.30882
5.24592
5.15721
5.06826
4.98211
4.89049
4.77998
4.63906
4.50954
4.4302
4.36904
4.31771
4.26475
4.20652
4.13925
4.03867
3.90554
3.81066
3.75399
3.6977
3.63631
3.57473
3.51865
3.46427
3.40669
3.34431
3.27998
3.21801
3.15879
3.09833
3.03252
2.96309
2.90321
2.86118
2.82444
2.78602
2.74286
2.69743
2.65528
2.61446
2.57145
2.52871
2.48842
2.44568
2.39445
2.33437
2.29518
2.25282
4.6769
3.78193
2.98958
2.40639
2.00717
1.68145
1.47891
1.3278
1.16604
0.974269
0.890786
0.852273
0.812059
0.787003
0.768567
0.760427
0.76092
0.77123
0.805416
0.89351
1.00732
1.08892
1.15059
1.18367
1.19307
1.21521
1.2611
1.3109
1.32594
1.32496
1.3347
1.49993
2.03235
2.89644
3.2292
3.31882
3.29787
3.25191
3.32413
3.87567
4.96589
5.72673
5.95439
6.02129
5.84259
5.65028
5.46409
5.35604
5.27511
5.21503
5.14732
5.06349
4.97119
4.87009
4.76109
4.63872
4.50706
4.41063
4.34833
4.29647
4.24233
4.18513
4.12362
4.04414
3.92687
3.79061
3.70716
3.65617
3.60743
3.56019
3.51686
3.47403
3.4258
3.3658
3.29045
3.20844
3.13368
3.06801
3.00685
2.9533
2.91234
2.87489
2.83552
2.79305
2.74518
2.69143
2.63845
2.59063
2.54751
2.51166
2.48254
2.45437
2.42014
2.36837
2.30323
2.23355
4.98527
4.20459
3.47624
2.90979
2.49378
2.08703
1.77659
1.63544
1.49699
1.3245
1.13778
1.01182
0.974413
0.950167
0.916353
0.8748
0.829344
0.789594
0.784925
0.795861
0.823622
0.870944
0.941164
1.02932
1.09178
1.13798
1.19047
1.26041
1.28396
1.30047
1.45707
2.14245
2.92723
3.35222
3.29122
3.27038
3.27044
3.23252
3.17517
3.21417
3.5521
4.44047
5.31112
5.77012
5.82125
5.69592
5.49738
5.35682
5.25573
5.18375
5.11404
5.02739
4.93072
4.83267
4.73745
4.64195
4.53403
4.41426
4.32326
4.26087
4.20276
4.14743
4.09255
4.03188
3.95162
3.83312
3.70557
3.6321
3.58757
3.55022
3.5121
3.4721
3.42786
3.37106
3.2867
3.18084
3.09127
3.03
2.9885
2.95658
2.92531
2.89047
2.85048
2.80189
2.74232
2.67459
2.60959
2.56165
2.53007
2.50574
2.48258
2.45868
2.43251
2.39586
2.33731
2.22967
5.23319
4.54411
3.86345
3.30658
2.89436
2.49883
2.16326
1.90438
1.70753
1.57804
1.45077
1.30892
1.14252
1.05566
1.02274
0.983916
0.941148
0.904377
0.855656
0.813945
0.806424
0.810606
0.830207
0.87254
0.933449
0.997778
1.05385
1.11918
1.18529
1.30496
1.9685
2.88494
3.28639
3.39042
3.33097
3.27667
3.22566
3.19783
3.17597
3.14252
3.09719
3.25191
3.92163
4.87244
5.56096
5.60584
5.53403
5.38782
5.28037
5.1783
5.07322
4.94756
4.85887
4.78556
4.71552
4.64335
4.56176
4.4565
4.32459
4.21751
4.15381
4.10301
4.05739
4.00615
3.948
3.86707
3.74334
3.62602
3.57065
3.53188
3.49779
3.46011
3.41756
3.36414
3.27549
3.14408
3.05186
3.01415
2.9859
2.96151
2.93562
2.90441
2.86683
2.81255
2.72902
2.63222
2.56855
2.53738
2.51528
2.49494
2.47675
2.45761
2.43489
2.40598
2.35643
2.2261
5.3969
4.78206
4.18098
3.64839
3.20168
2.80752
2.51031
2.25884
1.98117
1.74192
1.6474
1.55271
1.42161
1.27765
1.15145
1.09726
1.07628
1.05285
1.00139
0.925495
0.854185
0.827226
0.827533
0.840513
0.856858
0.875323
0.897685
0.938827
1.06005
1.62217
2.59293
3.03781
3.19536
3.25814
3.2063
3.20885
3.19919
3.16927
3.14576
3.11337
3.05273
2.97274
3.03908
3.48783
4.39554
5.16721
5.36395
5.38841
5.2998
5.18098
5.0319
4.87735
4.78935
4.72566
4.68243
4.6347
4.5631
4.47618
4.34907
4.20327
4.11616
4.06028
4.01369
3.97484
3.92628
3.8689
3.78409
3.65755
3.55052
3.50031
3.46414
3.43179
3.39172
3.34143
3.26805
3.15561
3.04904
3.00176
2.97283
2.94697
2.92757
2.90451
2.87318
2.8254
2.72735
2.59932
2.53847
2.51492
2.49405
2.47816
2.47477
2.4686
2.44646
2.41409
2.35646
2.21971
5.5304
4.96263
4.41075
3.93436
3.51004
3.08705
2.75243
2.52589
2.28275
2.037
1.8344
1.68572
1.5968
1.50721
1.4007
1.26855
1.16775
1.13883
1.104
1.04679
0.990998
0.939618
0.875273
0.853904
0.856385
0.86333
0.881131
0.973395
1.40807
2.23292
2.59411
2.77524
2.85861
2.9118
2.96891
3.04491
3.09502
3.09514
3.09044
3.06386
3.01116
2.93357
2.89018
2.90556
3.1425
3.84325
4.68895
5.13757
5.22562
5.1717
5.007
4.82218
4.72764
4.6656
4.63744
4.59855
4.5328
4.45622
4.35374
4.21564
4.09485
4.02782
3.97748
3.9319
3.88959
3.84162
3.78507
3.69714
3.56855
3.46595
3.41534
3.37689
3.3393
3.29723
3.24897
3.18673
3.09703
3.00809
2.96815
2.9472
2.93296
2.90821
2.87209
2.82054
2.73225
2.61471
2.53748
2.50673
2.48545
2.46734
2.45147
2.42888
2.40146
2.37018
2.32382
2.22066
5.61209
5.09558
4.5978
4.14773
3.73743
3.35058
3.02344
2.73568
2.48473
2.27966
2.0918
1.90393
1.72056
1.64077
1.57871
1.47914
1.3634
1.25962
1.18671
1.14506
1.11623
1.08288
1.021
0.934579
0.89127
0.893059
0.947787
1.31064
2.06597
2.47339
2.49241
2.48168
2.49777
2.5373
2.60338
2.6746
2.77832
2.8753
2.91968
2.92194
2.91833
2.89193
2.86175
2.82707
2.79037
2.90078
3.40109
4.17972
4.80789
4.99592
4.95932
4.79221
4.7029
4.63837
4.60363
4.54633
4.48483
4.41258
4.32563
4.21968
4.09838
4.00022
3.94052
3.89178
3.84586
3.8
3.75216
3.69489
3.60244
3.46981
3.37548
3.32683
3.28828
3.25679
3.22656
3.19208
3.14512
3.06732
2.96937
2.90362
2.86982
2.84221
2.80995
2.77072
2.7231
2.65689
2.56943
2.51071
2.48837
2.4694
2.44258
2.40801
2.36834
2.32346
2.28007
2.21812
5.67618
5.2023
4.7599
4.34456
3.93658
3.56886
3.25934
2.96857
2.69547
2.46808
2.29432
2.12386
1.94478
1.80049
1.69031
1.60762
1.53123
1.44758
1.35596
1.23995
1.18217
1.16957
1.13541
1.06945
1.0033
1.03744
1.37911
2.10561
2.59877
2.5727
2.51134
2.44266
2.41533
2.39681
2.38528
2.37108
2.38915
2.44709
2.51687
2.5819
2.65718
2.73813
2.74766
2.72234
2.69523
2.6891
2.74173
3.02039
3.62413
4.28743
4.65347
4.64818
4.66611
4.64656
4.58397
4.51484
4.43729
4.35928
4.2832
4.20097
4.10178
3.98886
3.9077
3.85471
3.80628
3.75832
3.71281
3.66763
3.60726
3.50043
3.36465
3.28833
3.25178
3.22226
3.20072
3.18203
3.15075
3.10074
3.00195
2.88823
2.82718
2.79143
2.75991
2.73023
2.70239
2.66967
2.62033
2.54839
2.47445
2.42296
2.39229
2.36363
2.32936
2.2861
2.25276
2.2157
5.74953
5.30274
4.89356
4.49962
4.10631
3.76391
3.45597
3.17045
2.90087
2.67778
2.47378
2.29309
2.14295
2.00433
1.86408
1.72405
1.62581
1.57162
1.50973
1.41892
1.3107
1.23822
1.20672
1.17064
1.20806
1.57415
2.34765
2.82037
2.7836
2.68168
2.5783
2.50136
2.45322
2.41289
2.37692
2.3507
2.31282
2.27573
2.24791
2.25036
2.28324
2.35046
2.40965
2.45844
2.52183
2.5262
2.51113
2.54694
2.70371
3.07919
3.71195
4.17256
4.44165
4.50318
4.52611
4.48671
4.39963
4.32928
4.25045
4.16433
4.07525
3.96995
3.88222
3.82652
3.7756
3.72446
3.67654
3.63282
3.58518
3.51141
3.39469
3.28336
3.22687
3.19477
3.16943
3.15148
3.12603
3.09004
3.02593
2.91379
2.80395
2.74913
2.72162
2.69976
2.67883
2.65632
2.62863
2.57679
2.48378
2.39945
2.35293
2.32113
2.29013
2.26281
2.24823
2.21686
5.79178
5.38651
4.99774
4.61805
4.26423
3.94645
3.63956
3.3424
3.09498
2.87935
2.6718
2.46611
2.30099
2.16112
2.02712
1.9015
1.78836
1.66908
1.58506
1.53628
1.46735
1.37598
1.3019
1.34176
1.74229
2.58269
3.11594
3.07543
2.94455
2.83608
2.74798
2.67179
2.5966
2.52125
2.44791
2.3813
2.32275
2.26726
2.21892
2.20205
2.17842
2.14678
2.11337
2.11288
2.13582
2.1777
2.21419
2.2548
2.32458
2.42528
2.64994
3.10454
3.71008
4.09939
4.30472
4.37902
4.37089
4.31289
4.24249
4.14453
4.03043
3.92216
3.84884
3.80198
3.75525
3.70583
3.6537
3.59935
3.54597
3.48698
3.40846
3.31574
3.23623
3.17988
3.13985
3.10842
3.07908
3.047
3.00431
2.9326
2.82471
2.73168
2.69242
2.6709
2.65376
2.63614
2.61272
2.57627
2.50344
2.39507
2.32101
2.28676
2.26487
2.24985
2.24741
2.21907
5.84112
5.46958
5.10288
4.73679
4.41272
4.10528
3.80155
3.51288
3.27659
3.04712
2.8376
2.63344
2.47247
2.31334
2.15609
2.02859
1.93572
1.82889
1.70768
1.61257
1.55432
1.48867
1.5333
1.98635
2.88584
3.41543
3.36776
3.22828
3.10653
3.01463
2.92193
2.82469
2.72809
2.63685
2.55049
2.46498
2.38664
2.32096
2.27449
2.22759
2.17782
2.12789
2.08001
2.0166
1.95859
1.93767
1.94549
1.96929
2.00859
2.06818
2.12224
2.23052
2.50695
3.0547
3.56366
4.02874
4.17099
4.22607
4.22035
4.13498
4.01381
3.8879
3.81399
3.7699
3.72886
3.68689
3.63984
3.5792
3.50829
3.44206
3.38193
3.31953
3.25195
3.18662
3.13046
3.08105
3.03618
2.99471
2.95474
2.90967
2.84578
2.76215
2.68765
2.64514
2.62003
2.59926
2.57786
2.55
2.49879
2.40443
2.30931
2.27366
2.25735
2.24233
2.24
2.21389
5.89381
5.54381
5.19029
4.85547
4.54748
4.24471
3.94048
3.68039
3.4401
3.2101
2.98211
2.79376
2.62146
2.45987
2.30929
2.16918
2.05044
1.94817
1.84941
1.74022
1.65018
1.71058
2.24392
3.22474
3.74869
3.68526
3.51244
3.37639
3.27751
3.18085
3.08198
2.98178
2.88232
2.78168
2.67969
2.58187
2.49347
2.41539
2.34888
2.2897
2.23931
2.18483
2.11273
2.01813
1.93347
1.89684
1.87912
1.86302
1.85877
1.8651
1.85272
1.843
1.86832
1.98084
2.30781
2.8984
3.46156
3.87167
4.06234
4.06401
4.01198
3.89338
3.80196
3.73972
3.69268
3.65404
3.61558
3.56182
3.48889
3.41266
3.34728
3.2901
3.2302
3.17118
3.11886
3.0669
3.01368
2.95962
2.90948
2.86889
2.82911
2.77904
2.71294
2.64558
2.59671
2.56038
2.52979
2.50063
2.4657
2.40854
2.33002
2.27513
2.25281
2.23447
2.22337
2.19585
5.95587
5.62452
5.28483
4.97151
4.67284
4.37082
4.08155
3.83174
3.58675
3.34977
3.12506
2.94655
2.76239
2.59926
2.43922
2.31715
2.18632
2.06545
1.95428
1.85482
1.93745
2.56371
3.63508
4.13183
4.04449
3.83337
3.65237
3.5377
3.43472
3.33377
3.23408
3.13178
3.02388
2.90857
2.79015
2.67955
2.58598
2.50944
2.44291
2.38159
2.32114
2.255
2.17642
2.08533
1.9879
1.90755
1.86964
1.83849
1.82079
1.80455
1.78545
1.76794
1.73684
1.67853
1.68309
1.79866
2.18609
2.7441
3.39819
3.7226
3.8606
3.84471
3.82543
3.7586
3.68399
3.61971
3.57272
3.52736
3.47884
3.42189
3.34293
3.24862
3.17808
3.13241
3.08799
3.04109
2.99583
2.95286
2.90228
2.84525
2.80673
2.77042
2.71475
2.65397
2.59753
2.54623
2.49976
2.45866
2.42446
2.39284
2.35025
2.29456
2.25233
2.22392
2.20564
2.17295
6.00231
5.68694
5.38
5.07795
4.77452
4.47441
4.21264
3.95967
3.71584
3.46761
3.27026
3.08173
2.90275
2.7247
2.57799
2.44524
2.31101
2.18943
2.06823
2.16828
2.89279
4.07199
4.49657
4.39052
4.15921
3.93998
3.80386
3.69139
3.58335
3.48026
3.38013
3.27699
3.16525
3.0399
2.90535
2.78338
2.68803
2.61128
2.54219
2.47577
2.40767
2.33277
2.24976
2.15669
2.0586
1.97717
1.91845
1.87276
1.83265
1.7972
1.76456
1.73247
1.70041
1.66828
1.61602
1.56543
1.57882
1.69702
2.06742
2.64274
3.23378
3.55099
3.66911
3.67787
3.62904
3.56543
3.52676
3.49567
3.46157
3.41635
3.34439
3.24783
3.15146
3.07744
3.03708
3.01147
2.98884
2.95944
2.91607
2.85132
2.76803
2.70268
2.66699
2.63268
2.59246
2.54664
2.49664
2.44779
2.40514
2.37038
2.33813
2.29851
2.2533
2.21102
2.1837
2.14482
6.07203
5.76127
5.46483
5.16945
4.86696
4.58335
4.32733
4.07757
3.83162
3.60412
3.41165
3.21579
3.03577
2.85486
2.71792
2.56796
2.43503
2.31449
2.44736
3.31424
4.4571
4.89985
4.79388
4.5667
4.34239
4.12538
3.96157
3.83954
3.7249
3.61513
3.50969
3.40414
3.29265
3.16782
3.02597
2.88622
2.77543
2.69041
2.61705
2.54784
2.47999
2.41118
2.33862
2.25496
2.15657
2.05944
1.98321
1.92835
1.88267
1.83947
1.79652
1.7536
1.70865
1.66071
1.60911
1.55167
1.52595
1.50058
1.5092
1.62812
1.95265
2.48987
3.00979
3.41877
3.44292
3.4351
3.42371
3.398
3.39299
3.36105
3.31253
3.2368
3.13352
3.05857
3.01995
2.98624
2.94741
2.90979
2.87773
2.82814
2.73941
2.66526
2.62935
2.59877
2.56394
2.52608
2.48921
2.45213
2.40975
2.36212
2.31891
2.28492
2.2462
2.20472
2.17216
2.12064
6.09974
5.8059
5.51847
5.2251
4.93741
4.68621
4.43522
4.18584
3.93764
3.7408
3.53872
3.35021
3.15334
2.99194
2.83282
2.68858
2.5698
2.75509
3.78891
5.02555
5.25552
5.10239
4.90298
4.73065
4.55825
4.34492
4.12068
3.97154
3.85149
3.73591
3.62393
3.51376
3.40147
3.28177
3.14833
3.00559
2.87814
2.77776
2.69421
2.61789
2.54448
2.47231
2.39989
2.32332
2.23746
2.14527
2.05944
1.98882
1.92995
1.87648
1.82728
1.78102
1.73468
1.6846
1.63217
1.58127
1.53283
1.48951
1.47357
1.45282
1.44571
1.53603
1.7935
2.27513
2.74874
3.1439
3.30104
3.31224
3.32188
3.29939
3.2422
3.17868
3.11207
3.05434
3.00447
2.95408
2.90908
2.87397
2.83739
2.78837
2.72774
2.66591
2.60716
2.57192
2.54985
2.52797
2.49571
2.45534
2.40692
2.36085
2.31559
2.25857
2.21674
2.19335
2.1646
2.1051
6.16516
5.86197
5.58693
5.30443
5.03325
4.79097
4.54592
4.28709
4.06523
3.86929
3.66537
3.46563
3.27636
3.10831
2.94949
2.84305
3.11828
4.37364
5.64278
5.80733
5.55926
5.24699
5.04618
4.90613
4.74161
4.54199
4.29827
4.0979
3.96293
3.84176
3.72509
3.61175
3.49965
3.38461
3.25879
3.11876
2.98162
2.86721
2.77237
2.68703
2.60547
2.52501
2.44489
2.36574
2.28693
2.20741
2.13103
2.06446
2.00619
1.94957
1.89019
1.82536
1.76054
1.70569
1.65981
1.6162
1.57085
1.52897
1.49134
1.44845
1.41788
1.38693
1.36896
1.42202
1.64919
2.07093
2.58726
2.94174
3.1684
3.21247
3.20032
3.16339
3.10482
3.04748
2.9842
2.91661
2.86264
2.82091
2.78238
2.75104
2.72065
2.66692
2.60324
2.56045
2.52375
2.48273
2.44419
2.40516
2.37816
2.35484
2.3171
2.25586
2.19868
2.15085
2.11996
2.08294
6.2369
5.95648
5.66581
5.3891
5.12867
4.88912
4.646
4.39143
4.18182
3.97734
3.77661
3.56932
3.38534
3.21799
3.11725
3.51277
4.95999
6.36516
6.31189
5.97931
5.6718
5.44064
5.27713
5.1211
4.93419
4.72662
4.48125
4.24611
4.07809
3.94309
3.81932
3.70105
3.58533
3.46905
3.34644
3.2127
3.07586
2.95414
2.8527
2.76406
2.68033
2.59566
2.50695
2.41641
2.32947
2.24882
2.17489
2.10877
2.0502
1.99599
1.9423
1.88474
1.82077
1.75305
1.68721
1.63063
1.585
1.55156
1.52148
1.48408
1.44184
1.39427
1.3544
1.31545
1.30163
1.34322
1.55341
1.92956
2.44578
2.76494
2.99379
3.06615
3.07362
3.06069
3.00215
2.90802
2.84312
2.79907
2.75638
2.71407
2.66715
2.62554
2.59483
2.55577
2.50331
2.45296
2.41527
2.38768
2.35942
2.31778
2.27176
2.23231
2.18096
2.12886
2.10489
2.06982
6.15195
6.03822
5.75499
5.47053
5.22155
4.98335
4.73304
4.49186
4.29224
4.08903
3.88356
3.66189
3.48376
3.4254
3.96099
5.61844
6.91202
6.9372
6.55677
6.17098
5.8638
5.6425
5.46935
5.29741
5.10098
4.88829
4.65529
4.41664
4.21551
4.05655
3.91883
3.79039
3.66542
3.54086
3.4148
3.28587
3.15639
3.03371
2.92401
2.82719
2.73862
2.65255
2.56469
2.47482
2.3863
2.30217
2.22308
2.14891
2.07985
2.01685
1.96049
1.9094
1.85882
1.80449
1.74682
1.68911
1.63171
1.57955
1.53596
1.50175
1.47237
1.43586
1.38708
1.33318
1.29303
1.26345
1.25713
1.29314
1.46692
1.83689
2.28775
2.61766
2.81776
2.92261
2.91138
2.88102
2.85349
2.80725
2.74758
2.69957
2.65777
2.61868
2.56289
2.49252
2.45292
2.43369
2.41092
2.38435
2.34632
2.3025
2.25537
2.19658
2.153
2.13476
2.11711
2.06755
5.26383
6.02148
5.85105
5.55987
5.30132
5.07065
4.82119
4.6017
4.3893
4.19399
3.96833
3.7614
3.75651
4.51255
6.35477
7.46729
7.42026
7.0722
6.74617
6.43433
6.13287
5.86513
5.63854
5.43269
5.23207
5.02158
4.80021
4.57403
4.36265
4.18061
4.02331
3.88065
3.74431
3.61003
3.47794
3.34989
3.2268
3.10796
2.9936
2.88566
2.78529
2.69161
2.60342
2.51956
2.43825
2.35789
2.27789
2.19983
2.12608
2.05787
1.99397
1.93285
1.87494
1.82225
1.77326
1.72425
1.67447
1.626
1.5778
1.5293
1.48099
1.43947
1.40752
1.37354
1.32786
1.28212
1.249
1.22762
1.21948
1.25456
1.39097
1.72125
2.1293
2.52724
2.6301
2.70324
2.71457
2.72868
2.73387
2.71768
2.68706
2.63086
2.5508
2.47532
2.42436
2.38479
2.35786
2.338
2.32223
2.29675
2.24873
2.18546
2.14235
2.11058
2.08099
2.04232
2.95736
5.47773
5.89231
5.6807
5.40003
5.15644
4.92508
4.6974
4.49632
4.29166
4.04486
4.13535
5.1879
7.28826
8.226
8.07865
7.5482
7.18452
6.9289
6.65949
6.36574
6.07422
5.81253
5.57741
5.3583
5.14252
4.92575
4.71191
4.50496
4.30936
4.12947
3.96642
3.81634
3.67464
3.54007
3.41311
3.29267
3.17565
3.06003
2.94606
2.8363
2.73354
2.64001
2.55585
2.47784
2.40078
2.32086
2.23819
2.15801
2.08602
2.02096
1.96049
1.90353
1.8492
1.79528
1.74198
1.69452
1.65321
1.61279
1.56887
1.52117
1.46959
1.41396
1.36727
1.33757
1.30881
1.2654
1.23208
1.20899
1.19808
1.18325
1.20763
1.32097
1.59168
1.94527
2.34838
2.51589
2.56773
2.61705
2.61562
2.59999
2.58494
2.5501
2.49023
2.41745
2.37033
2.34306
2.31659
2.28135
2.24233
2.2083
2.18378
2.1463
2.09496
2.06326
2.02165
1.29559
3.54389
5.51723
5.73971
5.53588
5.24996
5.01738
4.77627
4.59708
4.38653
4.61027
6.01347
8.1358
8.94253
8.5752
8.15802
7.7107
7.36558
7.09227
6.81831
6.53951
6.25447
5.97657
5.71546
5.47193
5.24417
5.02872
4.82352
4.62504
4.4291
4.23614
4.05271
3.88517
3.73376
3.59577
3.46776
3.34576
3.22597
3.1073
2.99184
2.8822
2.77831
2.68124
2.5913
2.5082
2.43115
2.35658
2.2794
2.19766
2.11914
2.05189
1.9926
1.93284
1.87298
1.8177
1.76467
1.71325
1.66464
1.62056
1.58066
1.54164
1.49655
1.44679
1.40131
1.35792
1.32204
1.29449
1.26507
1.22931
1.19507
1.1701
1.16355
1.14208
1.15015
1.23408
1.47676
1.83653
2.18738
2.46947
2.50699
2.50092
2.47881
2.43858
2.42593
2.41545
2.39008
2.35809
2.30887
2.26056
2.22353
2.18824
2.14065
2.09715
2.07695
2.05743
2.0087
1.01004
1.52583
3.98948
5.49398
5.60432
5.39485
5.08833
4.87265
4.76747
5.29166
7.17725
8.94842
9.66737
9.3547
8.77779
8.32438
7.91753
7.5731
7.27535
6.98561
6.69338
6.3987
6.11128
5.83959
5.58105
5.33816
5.11867
4.91441
4.71735
4.52309
4.32837
4.13558
3.95569
3.7962
3.65326
3.51993
3.3922
3.26798
3.147
3.03214
2.92569
2.82523
2.72845
2.63541
2.54527
2.45616
2.36863
2.28841
2.21617
2.14606
2.07525
2.01171
1.96729
1.92393
1.86645
1.80452
1.74277
1.68368
1.63192
1.58406
1.53825
1.50715
1.48643
1.45424
1.40669
1.35321
1.29655
1.25524
1.23609
1.22103
1.20489
1.17618
1.1382
1.11119
1.07994
1.08538
1.17933
1.40222
1.75631
2.07094
2.33244
2.39373
2.37962
2.35842
2.32078
2.2979
2.29177
2.28557
2.26197
2.23225
2.18722
2.12613
2.07451
2.02773
2.0025
1.97188
1.00008
1.02678
1.7998
4.25283
5.47705
5.45105
5.18147
5.22817
6.26062
8.5221
10.0578
10.0737
9.85854
9.457
8.997
8.5844
8.18411
7.78848
7.46097
7.16048
6.84391
6.52519
6.22143
5.94892
5.68974
5.42969
5.19589
4.98933
4.79043
4.59539
4.40727
4.21679
4.02928
3.85744
3.70702
3.57323
3.44705
3.32258
3.20094
3.08691
2.98346
2.89025
2.80241
2.71195
2.6128
2.50968
2.41173
2.32604
2.25381
2.19073
2.12915
2.06363
1.99052
1.9153
1.84892
1.79004
1.73966
1.69493
1.64998
1.60607
1.56881
1.53374
1.48975
1.43982
1.38532
1.32673
1.28472
1.26583
1.25131
1.22946
1.20131
1.17465
1.15143
1.12451
1.08041
1.04897
1.03905
1.04969
1.13344
1.33136
1.67405
1.93843
2.16845
2.28751
2.27586
2.25507
2.24564
2.22649
2.2037
2.17427
2.14631
2.11593
2.06595
2.00397
1.97816
1.94815
1
1.00032
1.05574
2.05236
4.61501
5.05401
5.62913
7.53998
9.82768
10.9319
10.9251
10.5039
9.98691
9.64887
9.27918
8.88446
8.46671
8.03374
7.60064
7.25032
6.97393
6.68808
6.36519
6.01671
5.74594
5.5514
5.35378
5.13633
4.90499
4.66955
4.45313
4.26215
4.0898
3.92958
3.77497
3.62433
3.48208
3.34925
3.22575
3.11076
3.00379
2.90239
2.80236
2.70082
2.60198
2.50989
2.42522
2.34587
2.27078
2.1992
2.13087
2.06509
1.99742
1.93104
1.8712
1.8161
1.76105
1.70564
1.6562
1.6138
1.5754
1.53676
1.49462
1.44715
1.38878
1.32958
1.2954
1.27604
1.25697
1.23453
1.21105
1.19048
1.16505
1.12351
1.07031
1.03938
1.0221
1.01047
1.00325
1.01635
1.09463
1.27695
1.55166
1.83392
2.01048
2.1408
2.20383
2.21064
2.20041
2.16458
2.11078
2.0535
2.00671
1.98734
1.97167
1.93371
1
1
1.00082
1.10081
2.38274
3.97803
8.59983
11.3003
11.6675
11.6046
11.1574
10.613
10.1225
9.74772
9.36833
8.97772
8.609
8.23782
7.84376
7.46702
7.10569
6.77584
6.47474
6.16931
5.86761
5.59039
5.33618
5.11336
4.93325
4.77013
4.59115
4.41094
4.2374
4.06566
3.89256
3.72211
3.56192
3.42306
3.30232
3.18837
3.07104
2.94995
2.83115
2.71877
2.6159
2.52531
2.44857
2.37828
2.3041
2.22519
2.14679
2.07263
2.00807
1.95994
1.91817
1.86964
1.81021
1.74917
1.69692
1.65344
1.61224
1.57307
1.53325
1.48572
1.42843
1.37241
1.33259
1.30604
1.28557
1.26661
1.24562
1.21895
1.18105
1.13089
1.08384
1.05463
1.03108
1.01262
0.997519
0.990133
0.981816
0.987406
1.0357
1.1844
1.42364
1.68527
1.88568
2.08423
2.14287
2.13957
2.11995
2.0597
1.98903
1.93115
1.91111
1.90408
1
1
1
1.00228
1.14535
4.81258
12.4593
12.8328
11.9909
11.5928
11.192
10.7391
10.3501
9.99412
9.59025
9.16295
8.73398
8.31346
7.93715
7.57407
7.21512
6.85808
6.51401
6.20102
5.91239
5.63414
5.3856
5.16358
4.94999
4.73782
4.54386
4.36135
4.18177
4.00282
3.82833
3.66642
3.52248
3.3916
3.2683
3.14914
3.03368
2.92466
2.82188
2.72378
2.63121
2.54434
2.46009
2.37563
2.29308
2.21538
2.14261
2.07645
2.01964
1.96783
1.91384
1.85432
1.79079
1.72738
1.67024
1.62486
1.58845
1.55278
1.51684
1.47524
1.4225
1.36281
1.31101
1.27601
1.25245
1.23434
1.21653
1.19318
1.16852
1.15064
1.12833
1.09734
1.06547
1.0398
1.0178
0.998374
0.972182
0.957301
0.933779
0.935541
0.969326
1.10223
1.34469
1.66975
1.84476
1.9754
2.02177
2.0091
1.98898
1.94274
1.92748
1.98989
1
1
1
1.00001
1.00958
6.39334
12.5067
12.3567
11.8241
11.5564
11.2258
10.7748
10.387
10.011
9.61884
9.20874
8.77617
8.33961
7.95615
7.59355
7.24372
6.90508
6.57731
6.26236
5.9587
5.67439
5.41831
5.18522
4.96724
4.76309
4.56868
4.37758
4.18784
4.00226
3.82707
3.66863
3.52758
3.398
3.27445
3.15446
3.03761
2.92627
2.82331
2.73019
2.64385
2.55898
2.47189
2.38276
2.29581
2.2151
2.14313
2.0806
2.02432
1.96962
1.9138
1.85571
1.79482
1.73297
1.67372
1.62154
1.58615
1.56178
1.53048
1.48975
1.43835
1.37469
1.31654
1.27597
1.24707
1.22459
1.20536
1.18742
1.1701
1.14676
1.11785
1.08382
1.04848
1.02
0.997941
0.976647
0.95624
0.93651
0.913967
0.897446
0.874329
0.877427
0.92474
1.06882
1.31681
1.60819
1.7751
1.84846
1.94877
2.13154
2.29419
2.62702
1
1
1
1
1.09796
7.2473
11.9749
12.0876
11.9747
11.7751
11.4782
11.0754
10.6656
10.257
9.85328
9.43818
8.98892
8.51599
8.05543
7.6418
7.26971
6.92983
6.60973
6.29652
5.98912
5.69924
5.43586
5.1979
4.97976
4.77402
4.57375
4.37593
4.18269
4.00006
3.83298
3.68134
3.54161
3.4098
3.28413
3.16401
3.04776
2.93522
2.82869
2.73083
2.64091
2.55739
2.47729
2.39502
2.30734
2.22052
2.14699
2.08728
2.03235
1.97527
1.91215
1.84438
1.78078
1.72709
1.68156
1.64014
1.59431
1.54045
1.49158
1.44608
1.40299
1.36557
1.32863
1.29211
1.25792
1.22787
1.20293
1.18173
1.16212
1.14142
1.11732
1.08535
1.04815
1.01753
0.995122
0.973925
0.953062
0.929339
0.906044
0.883263
0.866159
0.854415
0.835107
0.842082
0.901672
1.05459
1.37044
1.80424
2.26572
2.68317
3.06464
3.6331
)
;

boundaryField
{
    inlet
    {
        type            fixedValue;
        value           uniform 1;
    }
    outlet
    {
        type            zeroGradient;
    }
    bottom
    {
        type            symmetryPlane;
    }
    top
    {
        type            symmetryPlane;
    }
    obstacle
    {
        type            zeroGradient;
    }
    defaultFaces
    {
        type            empty;
    }
}


// ************************************************************************* //
