/*--------------------------------*- C++ -*----------------------------------*\
  =========                 |
  \\      /  F ield         | OpenFOAM: The Open Source CFD Toolbox
   \\    /   O peration     | Website:  https://openfoam.org
    \\  /    A nd           | Version:  7
     \\/     M anipulation  |
\*---------------------------------------------------------------------------*/
FoamFile
{
    version     2.0;
    format      ascii;
    class       volScalarField;
    location    "2.6";
    object      T;
}
// * * * * * * * * * * * * * * * * * * * * * * * * * * * * * * * * * * * * * //

dimensions      [0 0 0 1 0 0 0];

internalField   nonuniform List<scalar> 
4032
(
1
1
1
1
1
1
1
1
1
1
1
1
2.25744
2.71783
2.73685
2.75239
2.76451
2.77357
2.78122
2.78979
2.80199
2.81748
2.83193
2.84011
1
1
1
1
1
1
1
1
1
1
1
1
2.23812
2.71494
2.73541
2.7504
2.76246
2.77124
2.77854
2.78668
2.79843
2.81345
2.8274
2.83535
1
1
1
1
1
1
1
1
1
1
1
1
2.19311
2.71072
2.73261
2.74702
2.75894
2.76736
2.77428
2.78198
2.79323
2.80785
2.82137
2.8294
1
1
1
1
1
1
1
1
1
1
1
1
2.12117
2.7
2.7282
2.7424
2.75429
2.76233
2.76883
2.77596
2.78631
2.79985
2.81198
2.81841
1
1
1
1
1
1
1
1
1
1
1
1
2.01883
2.67843
2.72012
2.73455
2.74647
2.75393
2.75948
2.7652
2.77376
2.78587
2.79706
2.80466
1
1
1
1
1
1
1
1
1
1
1
1
1.87985
2.64075
2.70435
2.72118
2.73462
2.74224
2.74712
2.75216
2.76005
2.77066
2.77716
2.77592
1
1
1
1
1
1
1
1
1
1
1
1
1.69349
2.57829
2.68074
2.70433
2.72042
2.72847
2.73235
2.7357
2.73946
2.74116
2.74096
2.73841
1
1
1
1
1
1
1
1
1
1
1
1
1.4266
2.47002
2.65381
2.68129
2.70099
2.71071
2.71454
2.71558
2.7135
2.71249
2.71428
2.72859
1
1
1
1
1
1
1
1
1
1
1
1
1.08611
2.34171
2.65378
2.66073
2.67379
2.68419
2.68823
2.68725
2.67954
2.66484
2.62089
2.52669
1
1
1
1
1
1
1
1
1
1
1
1
1.00195
2.19592
2.61765
2.62509
2.63771
2.65004
2.6537
2.65094
2.63817
2.60811
2.55603
2.4015
1
1
1
1
1
1
1
1
1
1
1
1
0.999993
1.94061
2.57286
2.61029
2.6206
2.62507
2.62369
2.61633
2.59824
2.55905
2.49667
2.31985
1
1
1
1
1
1
1
1
1
1
1
1
0.999998
1.53206
2.44891
2.59017
2.60024
2.60065
2.59565
2.58291
2.5587
2.51732
2.44269
2.28504
1
1
1
1
1
1
1
1
1
1
1
1
1
1.0792
2.27339
2.57535
2.57223
2.57176
2.56564
2.55124
2.52413
2.48203
2.40297
2.28487
1
1
1
1
1
1
1
1
1
1
1
1
1
1.00143
2.04656
2.51317
2.53252
2.53473
2.53121
2.51857
2.49416
2.45126
2.37787
2.28403
1
1
1
1
1
1
1
1
1
1
1
1
1
0.99999
1.56021
2.3837
2.50746
2.50582
2.50138
2.48909
2.46735
2.42503
2.36253
2.28559
1
1
1
1
1
1
1
1
1
1
1
1
1
0.999998
1.08109
2.18288
2.47752
2.47483
2.47058
2.458
2.43761
2.40045
2.34893
2.28454
1
1
1
1
1
1
1
1
1
1
1
1
1
1
1.0013
1.81452
2.38399
2.4474
2.43853
2.42786
2.40767
2.37614
2.33412
2.28045
1
1
1
1
1
1
1
1
1
1
1
1
1
1
0.999997
1.19899
2.20451
2.42534
2.40872
2.39937
2.37912
2.35006
2.31407
2.26986
1
1
1
1
1
1
1
1
1
1
1
1
1
1
0.999999
1.00874
1.93209
2.35544
2.37436
2.366
2.34825
2.32216
2.29066
2.25454
1
1
1
1
1
1
1
1
1
1
1
1
1
1
1
1.00001
1.30205
2.18261
2.35844
2.33827
2.31964
2.29686
2.27015
2.23945
1
1
1
1
1
1
1
1
1
1
1
1
1
1
1
1
1.02081
1.92261
2.31227
2.30623
2.28934
2.27
2.24748
2.22053
1
1
1
1
1
1
1
1
1
1
1
1
1
1
1
1
1.0001
1.31396
2.13299
2.29161
2.2669
2.24728
2.22594
2.20147
1
1
1
1
1
1
1
1
1
1
1
1
1
1
1
1
1
1.02237
1.81077
2.24313
2.23992
2.22204
2.20258
2.1812
1
1
1
1
1
1
1
1
1
1
1
1
1
1
1
1
1
1.00015
1.23447
2.0401
2.2264
2.20187
2.18412
2.16429
1
1
1
1
1
1
1
1
1
1
1
1
1
1
1
1
1
1
1.01203
1.58664
2.10674
2.18743
2.16734
2.14785
1
1
1
1
1
1
1
1
1
1
1
1
1
1
1
1
1
1
1.00009
1.10684
1.84918
2.16083
2.15118
2.134
1
1
1
1
1
1
1
1
1
1
1
1
1
1
1
1
1
1
1
1.00269
1.3254
1.97533
2.12952
2.11462
1
1
1
1
1
1
1
1
1
1
1
1
1
1
1
1
1
1
1
1.00001
1.02659
1.56798
2.01623
2.10066
1
1
1
1
1
1
1
1
1
1
1
1
1
1
1
1
1
1
1
1
1.00033
1.10816
1.74785
2.04222
1
1
1
1
1
1
1
1
1
1
1
1
1
1
1
1
1
1
1
1
1
1.00309
1.25469
1.83811
1
1
1
1
1
1
1
1
1
1
1
1
1
1
1
1
1
1
1
1
1
1.00002
1.01652
1.40182
1
1
1
1
1
1
1
1
1
1
1
1
1
1
1
1
1
1
1
1
1
1
1.00019
1.04979
1
1
1
1
1
1
1
1
1
1
1
1
1
1
1
1
1
1
1
1
1
1
1
1.00095
1
1
1
1
1
1
1
1
1
1
1
1
1
1
1
1
1
1
1
1
1
1
1
1
1
1
1
1
1
1
1
1
1
1
1
1
1
1
1
1
1
1
1
1
1
1
1
1
1
1
1
1
1
1
1
1
1
1
1
1
1
1
1
1
1
1
1
1
1
1
1
1
1
1
1
1
1
1
1
1
1
1
1
1
1
1
1
1
1
1
1
1
1
1
1
1
1
1
1
1
1
1
1
1
1
1
1
1
1
1
1
1
1
1
1
1
1
1
1
1
1
1
1
1
1
1
1
1
1
1
1
1
1
1
1
1
1
1
1
1
1
1
1
1
1
1
1
1
1
1
1
1
1
1
1
1
1
1
1
1
1
1
1
1
1
1
1
1
1.70399
1.14214
0.960352
1.08955
1.21912
1.28271
1.35968
1.42453
1.49395
1.55924
1.65707
1.73686
1.7403
1.72265
1.70821
1.71684
1.74497
1.76005
1.74983
1.72312
1.70014
1.69802
1.71455
1.739
1.74638
1.73931
1.71387
1.6958
1.69104
1.69745
1.71441
1.71787
1.71448
1.69792
1.69641
1.76429
2.45785
2.84149
2.81369
2.77056
2.71158
2.66355
2.63836
2.62177
2.60372
2.58095
2.55289
2.52736
2.50794
2.49454
2.48075
2.46576
2.45051
2.43533
2.42163
2.40874
2.39402
2.37866
2.36206
2.34353
2.32435
2.3064
2.2915
2.27871
2.26786
2.26007
2.25102
2.2373
2.22291
2.20802
2.18983
2.16855
2.15102
2.13963
2.13108
2.1229
2.11532
2.1092
2.10241
2.09542
2.08517
2.06746
2.05066
2.04194
2.03606
2.03103
2.02695
2.02256
2.0171
2.00661
1.98653
1.96929
1.96226
1.95692
1.95348
1.94819
1.95858
1.65016
1.39378
1.36762
1.37037
1.34789
1.28518
1.26302
1.27457
1.32129
1.39725
1.47929
1.52268
1.53173
1.54209
1.57005
1.60704
1.65253
1.67019
1.6663
1.65516
1.65231
1.66081
1.67872
1.69288
1.69321
1.68693
1.67358
1.66689
1.66672
1.67264
1.68115
1.68046
1.68567
1.74348
1.91231
2.27718
2.6636
2.69078
2.66869
2.64189
2.61155
2.59802
2.58287
2.56465
2.54322
2.51962
2.49861
2.48307
2.47318
2.46264
2.44917
2.43397
2.41675
2.40002
2.38452
2.37176
2.36054
2.34814
2.33547
2.32066
2.30265
2.28394
2.26938
2.25761
2.247
2.23644
2.22456
2.21167
2.19861
2.18422
2.16797
2.15183
2.13836
2.12795
2.11925
2.11111
2.10297
2.09479
2.08616
2.07651
2.06402
2.05008
2.03936
2.0321
2.02654
2.02162
2.01695
2.0115
2.00297
1.98722
1.96857
1.95857
1.95309
1.94972
1.94354
2.04736
1.85491
1.67819
1.54812
1.48887
1.42047
1.32986
1.2786
1.25146
1.25664
1.28631
1.33592
1.37314
1.37841
1.38713
1.41589
1.45135
1.49305
1.5394
1.57853
1.59312
1.59224
1.59247
1.59418
1.60273
1.61331
1.6179
1.6183
1.61755
1.61396
1.60759
1.60704
1.61689
1.66673
1.86779
2.02381
2.07077
2.28811
2.48201
2.53473
2.55804
2.54324
2.5288
2.50899
2.49044
2.46874
2.45157
2.4372
2.42576
2.41789
2.40987
2.40034
2.39071
2.37816
2.36002
2.33901
2.32382
2.31323
2.30559
2.29927
2.29092
2.28095
2.2671
2.24828
2.23104
2.21896
2.20812
2.19643
2.18359
2.17098
2.15974
2.14976
2.13946
2.12848
2.11776
2.10757
2.09725
2.08671
2.07608
2.06516
2.05393
2.04452
2.03663
2.02848
2.02018
2.01323
2.00754
2.00208
1.99576
1.9877
1.97669
1.96221
1.94846
1.94006
1.93616
1.92889
2.09979
1.95158
1.80752
1.69698
1.61436
1.54087
1.46963
1.40297
1.35168
1.32084
1.31366
1.30981
1.30159
1.29413
1.29327
1.3048
1.33536
1.37159
1.41407
1.46261
1.4952
1.50637
1.51368
1.51885
1.52917
1.54238
1.55667
1.56715
1.56765
1.56303
1.55278
1.55831
1.60322
1.76949
1.96478
2.03711
2.02075
2.03835
2.1811
2.33597
2.43123
2.46224
2.45681
2.43615
2.41613
2.39682
2.38322
2.37157
2.36271
2.35574
2.34641
2.33787
2.32983
2.32033
2.30718
2.28903
2.2719
2.26165
2.25393
2.248
2.24229
2.23612
2.22854
2.21552
2.19594
2.18064
2.17069
2.16
2.14819
2.13709
2.12816
2.12072
2.11331
2.10472
2.09474
2.08398
2.07287
2.06116
2.04842
2.03527
2.02431
2.01694
2.01073
2.00425
1.99689
1.98925
1.98247
1.97597
1.96881
1.96128
1.95369
1.94486
1.93357
1.91996
1.91145
1.90328
2.14813
2.02818
1.90432
1.79937
1.71515
1.63293
1.57622
1.53049
1.47574
1.39924
1.36047
1.34248
1.32595
1.31621
1.30739
1.30047
1.30018
1.304
1.31776
1.35629
1.40414
1.43501
1.45739
1.46975
1.47385
1.48222
1.4992
1.51946
1.5259
1.52482
1.5291
1.5883
1.74665
1.93833
2.00154
2.01535
2.01113
2.00098
2.013
2.10744
2.26584
2.36202
2.39355
2.40696
2.38815
2.36703
2.34416
2.32862
2.31721
2.31066
2.30432
2.29625
2.28633
2.27479
2.26197
2.2469
2.2299
2.21733
2.20938
2.20292
2.1967
2.19081
2.18489
2.17643
2.16146
2.14138
2.12788
2.11886
2.10991
2.10177
2.09542
2.09014
2.08448
2.07673
2.06551
2.05192
2.03862
2.0263
2.01468
2.00457
1.99694
1.99012
1.98311
1.97568
1.96738
1.95826
1.94964
1.94189
1.93478
1.92881
1.92374
1.91821
1.91068
1.89888
1.88402
1.86964
2.17878
2.07904
1.9731
1.88094
1.80431
1.71725
1.6419
1.60636
1.56819
1.51569
1.45098
1.40081
1.38515
1.37561
1.36127
1.34316
1.32357
1.30454
1.3019
1.30661
1.31815
1.3391
1.36991
1.40508
1.42729
1.44217
1.45958
1.4847
1.49454
1.50123
1.55454
1.75889
1.93589
2.01366
2.00346
2.00099
2.00116
1.99412
1.98226
1.9891
2.04935
2.18814
2.3034
2.3625
2.37012
2.35507
2.32869
2.30812
2.29332
2.28464
2.27757
2.2682
2.25659
2.24427
2.23239
2.22053
2.20667
2.19049
2.17776
2.16911
2.16138
2.15469
2.14903
2.14312
2.13426
2.11842
2.0989
2.08703
2.07961
2.07344
2.06771
2.06233
2.05666
2.04897
2.03606
2.01845
2.00316
1.99221
1.98459
1.97868
1.97287
1.96635
1.95886
1.94983
1.939
1.92694
1.91552
1.9075
1.90272
1.89911
1.89522
1.89051
1.88465
1.87596
1.86231
1.83933
2.20117
2.11752
2.0245
1.93977
1.87017
1.79532
1.72527
1.66573
1.61552
1.58077
1.54441
1.50049
1.44236
1.40913
1.39673
1.38221
1.3657
1.35037
1.32865
1.30838
1.30461
1.30677
1.31534
1.33413
1.36063
1.38665
1.40798
1.43131
1.45532
1.49926
1.71076
1.92796
2.00276
2.02139
2.0112
2.00184
1.99181
1.98484
1.97974
1.97134
1.95937
1.98753
2.103
2.24276
2.3322
2.33226
2.32092
2.29918
2.2831
2.26978
2.25724
2.24203
2.23095
2.22155
2.21256
2.20331
2.1926
2.1782
2.15936
2.14364
2.13438
2.12752
2.12221
2.11671
2.11045
2.10047
2.08288
2.06488
2.05645
2.05052
2.04525
2.0395
2.0332
2.02531
2.01141
1.98927
1.9736
1.96752
1.96268
1.95838
1.95374
1.94796
1.94081
1.93037
1.91427
1.89583
1.88438
1.8794
1.8761
1.87286
1.8696
1.86575
1.86049
1.85326
1.84132
1.81322
2.21302
2.14126
2.06344
1.98733
1.91655
1.84724
1.79128
1.74034
1.67769
1.61706
1.59214
1.56617
1.52817
1.4832
1.4393
1.41944
1.41196
1.40314
1.38291
1.35225
1.32203
1.30957
1.30968
1.31571
1.32286
1.33132
1.34166
1.36007
1.41152
1.61851
1.8707
1.95882
1.98675
1.99697
1.98687
1.98558
1.98132
1.97163
1.96437
1.95549
1.94147
1.92128
1.93257
2.0152
2.16077
2.26325
2.28565
2.28379
2.27139
2.25506
2.23628
2.21734
2.20639
2.19842
2.19325
2.18725
2.17756
2.16528
2.14711
2.12571
2.11272
2.10483
2.09872
2.09426
2.08872
2.08189
2.0707
2.0523
2.03599
2.02862
2.02323
2.01811
2.01174
2.00387
1.9923
1.97374
1.95527
1.94755
1.94298
1.93869
1.93558
1.93174
1.92617
1.9172
1.89814
1.87269
1.86136
1.8575
1.85395
1.85133
1.85107
1.84993
1.84444
1.83615
1.82228
1.7922
2.22041
2.15686
2.08859
2.02419
1.96124
1.89196
1.83261
1.78979
1.73984
1.68504
1.63589
1.59702
1.57319
1.54843
1.51723
1.47491
1.43958
1.42953
1.41731
1.39666
1.37555
1.35457
1.32696
1.31788
1.31903
1.32237
1.3306
1.37153
1.54287
1.79262
1.8738
1.90488
1.91533
1.92201
1.93033
1.94288
1.94747
1.94346
1.93846
1.92998
1.91723
1.90033
1.88628
1.88661
1.9293
2.05055
2.17455
2.23283
2.24065
2.23297
2.2122
2.19036
2.18001
2.17285
2.16976
2.16493
2.15603
2.14526
2.13069
2.11089
2.09315
2.08335
2.0763
2.07037
2.06529
2.05967
2.05283
2.04107
2.02213
2.00633
1.99884
1.9931
1.98718
1.98045
1.97275
1.96283
1.94793
1.93302
1.92705
1.92454
1.92291
1.91919
1.91322
1.904
1.88728
1.86395
1.84806
1.84224
1.8382
1.83483
1.83175
1.82653
1.8196
1.81165
1.80036
1.77739
2.21881
2.16407
2.10582
2.04802
1.99028
1.93085
1.87674
1.82517
1.77627
1.73399
1.693
1.64889
1.60188
1.58081
1.56409
1.53586
1.50106
1.46739
1.44237
1.428
1.4181
1.4062
1.38319
1.34899
1.3308
1.33177
1.35731
1.50676
1.73826
1.84147
1.8407
1.83258
1.83076
1.83479
1.84511
1.856
1.8735
1.89003
1.89118
1.88726
1.88295
1.87492
1.86512
1.8542
1.8421
1.86198
1.9535
2.07764
2.16363
2.18396
2.17973
2.16202
2.15425
2.14723
2.1433
2.13608
2.12792
2.11823
2.10661
2.09207
2.07489
2.06061
2.052
2.04514
2.03902
2.0334
2.02794
2.02119
2.00893
1.98924
1.97471
1.96768
1.96197
1.95717
1.95253
1.94723
1.94002
1.92771
1.91163
1.90146
1.89703
1.89337
1.88868
1.88233
1.87379
1.86094
1.84303
1.83082
1.82599
1.82176
1.81539
1.80714
1.79791
1.78746
1.77738
1.76374
2.21254
2.16514
2.11678
2.06687
2.01266
1.95949
1.91146
1.86252
1.81266
1.76863
1.73323
1.69611
1.65446
1.6188
1.59017
1.56791
1.54681
1.52272
1.49495
1.45695
1.43724
1.43343
1.42191
1.39846
1.37376
1.39005
1.52903
1.74611
1.85729
1.84982
1.83404
1.81641
1.80458
1.79507
1.78729
1.77926
1.78141
1.79026
1.79967
1.80769
1.81809
1.8307
1.82825
1.81975
1.81163
1.80504
1.81284
1.86394
1.96812
2.06557
2.11409
2.11731
2.12299
2.12249
2.11566
2.1071
2.09742
2.08747
2.07788
2.06746
2.05429
2.03855
2.02687
2.01911
2.01202
2.00538
1.99986
1.99506
1.98821
1.97389
1.95355
1.9422
1.93738
1.93341
1.93051
1.92804
1.92344
1.9157
1.89989
1.88093
1.87194
1.86778
1.86418
1.86069
1.85702
1.85135
1.84143
1.8261
1.8099
1.79807
1.79055
1.78367
1.77576
1.76602
1.75872
1.75072
2.20349
2.16234
2.12026
2.07594
2.02707
1.98092
1.93595
1.89082
1.84487
1.80458
1.76516
1.72784
1.69545
1.66434
1.63089
1.59492
1.56842
1.55384
1.53674
1.5105
1.47701
1.45299
1.4426
1.43116
1.4467
1.579
1.79279
1.89375
1.88503
1.86098
1.83431
1.81318
1.79833
1.78565
1.77573
1.76734
1.75482
1.74039
1.7289
1.72447
1.72763
1.73793
1.747
1.75416
1.76435
1.76141
1.75323
1.75748
1.7849
1.85463
1.9605
2.02949
2.06749
2.07626
2.08206
2.07806
2.06801
2.05936
2.04959
2.03918
2.02834
2.01454
2.00228
1.99407
1.98626
1.97856
1.97208
1.96708
1.96197
1.95297
1.9368
1.92049
1.91278
1.90882
1.90579
1.90386
1.90053
1.89526
1.88532
1.86719
1.84902
1.84174
1.83969
1.83843
1.83688
1.83416
1.82913
1.81796
1.79781
1.77886
1.76819
1.76069
1.75352
1.74753
1.74454
1.73807
2.18879
2.15453
2.11757
2.07731
2.03675
1.99708
1.9551
1.91077
1.87157
1.8353
1.79794
1.75816
1.7246
1.69495
1.66482
1.63522
1.60734
1.57625
1.55345
1.54019
1.52074
1.49348
1.47077
1.48648
1.62099
1.83433
1.93929
1.93039
1.90374
1.87904
1.85693
1.83669
1.81659
1.79676
1.77763
1.76004
1.74381
1.72851
1.71508
1.70507
1.69288
1.67975
1.6678
1.66496
1.66841
1.67464
1.67966
1.68532
1.69605
1.71352
1.75789
1.84446
1.94396
2.00009
2.02577
2.04049
2.04048
2.03416
2.02565
2.01389
2.0005
1.98686
1.97701
1.97022
1.96299
1.9554
1.94792
1.94071
1.93408
1.92679
1.91636
1.90353
1.8925
1.88502
1.87999
1.87618
1.87257
1.86838
1.86217
1.85105
1.83365
1.81895
1.81476
1.81361
1.81308
1.81211
1.80915
1.80233
1.78723
1.76382
1.74708
1.73906
1.73386
1.7303
1.72988
1.72456
2.17318
2.14393
2.11197
2.07598
2.04139
2.0056
1.96691
1.92698
1.89228
1.85599
1.82065
1.78378
1.75336
1.7214
1.68784
1.6593
1.63817
1.61264
1.58196
1.55636
1.5405
1.52291
1.53872
1.67653
1.88635
1.98156
1.97139
1.94473
1.92004
1.89931
1.8775
1.85406
1.83033
1.80771
1.78611
1.76453
1.74398
1.72564
1.7109
1.69622
1.68189
1.66765
1.65229
1.6318
1.61452
1.60571
1.60606
1.60909
1.61536
1.62564
1.63548
1.65819
1.71808
1.82291
1.90344
1.97463
1.99242
2.00173
2.00178
1.99258
1.97875
1.96305
1.95341
1.94694
1.94068
1.93436
1.92751
1.91888
1.90887
1.89972
1.89153
1.88291
1.87365
1.86494
1.85759
1.85098
1.84475
1.83898
1.83357
1.82708
1.81723
1.80403
1.79263
1.7875
1.78561
1.78442
1.7828
1.77912
1.76981
1.75071
1.73
1.72159
1.71736
1.71348
1.71314
1.70854
2.15745
2.13132
2.1023
2.07209
2.04126
2.00836
1.97235
1.93956
1.90674
1.87284
1.83649
1.8049
1.77428
1.74376
1.71383
1.68456
1.65876
1.63544
1.612
1.58484
1.56232
1.58223
1.73088
1.9374
2.02381
2.01151
1.98099
1.95587
1.93599
1.91535
1.89304
1.86955
1.8459
1.8222
1.79832
1.77495
1.75294
1.73247
1.71388
1.69666
1.68153
1.66565
1.64628
1.623
1.60085
1.588
1.57931
1.57136
1.5673
1.56619
1.56074
1.55503
1.56078
1.58844
1.66426
1.78202
1.8762
1.93662
1.96386
1.96577
1.96133
1.94808
1.93571
1.92613
1.91923
1.91381
1.90816
1.90022
1.88948
1.87809
1.86835
1.86001
1.85142
1.84313
1.83611
1.82923
1.82185
1.81392
1.80667
1.80096
1.79492
1.78687
1.77652
1.76652
1.7599
1.75552
1.75219
1.749
1.7442
1.73407
1.71826
1.70612
1.70068
1.69624
1.69388
1.68897
2.14289
2.11916
2.09237
2.06591
2.0384
2.00758
1.97565
1.94618
1.91485
1.88218
1.84887
1.82119
1.79046
1.76179
1.73184
1.70834
1.68153
1.6554
1.6303
1.60812
1.63229
1.79149
1.99733
2.06895
2.05319
2.01825
1.98761
1.96699
1.94746
1.92692
1.90514
1.88193
1.85743
1.8317
1.80543
1.78026
1.75785
1.73833
1.72047
1.70343
1.68642
1.66832
1.64802
1.62528
1.6003
1.57878
1.56678
1.55609
1.54773
1.54013
1.5326
1.52631
1.51685
1.49831
1.49825
1.52797
1.62522
1.74124
1.85269
1.90164
1.9263
1.92599
1.92374
1.91382
1.90327
1.89481
1.88825
1.88134
1.87399
1.86526
1.85267
1.83765
1.82674
1.82012
1.81389
1.8075
1.80153
1.79593
1.7886
1.77967
1.77359
1.76767
1.75844
1.74891
1.74049
1.73295
1.72614
1.72063
1.71654
1.71249
1.70533
1.69414
1.68479
1.67831
1.67418
1.66804
2.12752
2.10551
2.08256
2.05814
2.03166
2.00287
1.97558
1.94708
1.91786
1.88572
1.85917
1.83176
1.80408
1.77458
1.74925
1.7252
1.69927
1.67474
1.65031
1.67779
1.8454
2.05428
2.10681
2.08908
2.05253
2.01721
1.99432
1.97471
1.9549
1.93461
1.91363
1.8914
1.86736
1.84075
1.81222
1.78543
1.76304
1.74385
1.72602
1.7087
1.69111
1.67225
1.65172
1.62876
1.60416
1.58274
1.56608
1.55229
1.53974
1.52839
1.51783
1.5073
1.4971
1.48695
1.47033
1.45108
1.45339
1.48545
1.58205
1.70657
1.81484
1.8669
1.8844
1.88696
1.87997
1.87177
1.86747
1.86375
1.85891
1.85193
1.84028
1.8241
1.80802
1.79656
1.79126
1.78832
1.78591
1.78235
1.77611
1.76546
1.75102
1.74019
1.73465
1.72899
1.72252
1.71549
1.70789
1.7006
1.69473
1.69047
1.68602
1.67888
1.66971
1.66065
1.65436
1.64621
2.11488
2.09358
2.07198
2.04883
2.02318
1.99742
1.97264
1.94615
1.91825
1.89103
1.86673
1.83989
1.81387
1.78589
1.76425
1.73847
1.71452
1.69363
1.72662
1.90778
2.09298
2.14443
2.12763
2.09399
2.0604
2.0271
2.00053
1.97942
1.95875
1.93787
1.91679
1.89523
1.87254
1.8474
1.81872
1.78957
1.76503
1.74494
1.72682
1.70937
1.69217
1.67471
1.65648
1.63614
1.61265
1.58863
1.56833
1.55271
1.53922
1.52596
1.5126
1.49943
1.4861
1.47232
1.45748
1.44088
1.42928
1.41642
1.4179
1.45208
1.54017
1.66377
1.76454
1.83279
1.83565
1.83442
1.83562
1.83524
1.8355
1.83125
1.82372
1.81069
1.79318
1.78164
1.77664
1.77237
1.76708
1.76169
1.75681
1.74832
1.7329
1.72043
1.71463
1.70958
1.70341
1.69662
1.69057
1.68511
1.67908
1.6722
1.66592
1.66097
1.65431
1.64586
1.63829
1.6267
2.09607
2.07763
2.058
2.03593
2.01236
1.991
1.96792
1.9434
1.91657
1.89472
1.87018
1.84634
1.81947
1.7968
1.77259
1.74936
1.7321
1.77509
1.96982
2.15235
2.17044
2.14887
2.12061
2.09527
2.07016
2.03937
2.00548
1.98081
1.95965
1.93832
1.91683
1.89518
1.87294
1.84936
1.82334
1.79507
1.76861
1.74664
1.72756
1.70949
1.69164
1.67381
1.65575
1.63664
1.61536
1.59258
1.57105
1.55254
1.53652
1.52145
1.50711
1.49339
1.4796
1.46502
1.45006
1.43544
1.4213
1.40841
1.40037
1.38999
1.38514
1.41333
1.4897
1.60884
1.70408
1.77386
1.80107
1.80475
1.8102
1.80797
1.80008
1.78992
1.77868
1.76967
1.76264
1.75592
1.74964
1.74433
1.73833
1.73036
1.72052
1.70987
1.69935
1.69298
1.68885
1.68468
1.67885
1.67197
1.66415
1.65745
1.6511
1.64225
1.63544
1.6311
1.62466
1.61103
2.08087
2.06139
2.04415
2.02448
2.00379
1.98432
1.96306
1.93853
1.91633
1.89551
1.87237
1.84825
1.82443
1.80224
1.77935
1.76749
1.8248
2.03845
2.2076
2.2145
2.18404
2.14485
2.11711
2.09644
2.07305
2.04523
2.01053
1.97977
1.95704
1.93556
1.91406
1.89258
1.87095
1.84858
1.8242
1.79719
1.77018
1.74644
1.72576
1.70652
1.68771
1.66884
1.6497
1.63036
1.61086
1.59111
1.57186
1.5546
1.53913
1.52399
1.50834
1.49155
1.47436
1.45912
1.44594
1.43333
1.42025
1.40773
1.39569
1.38237
1.37216
1.36028
1.35306
1.37082
1.44235
1.55328
1.66291
1.72735
1.77031
1.78003
1.77868
1.77408
1.76612
1.75719
1.7475
1.73815
1.73058
1.72436
1.71852
1.71397
1.70937
1.70022
1.68878
1.68056
1.67323
1.66515
1.65776
1.65083
1.64697
1.64438
1.63963
1.63002
1.61981
1.61051
1.60409
1.59525
2.06888
2.05084
2.03181
2.01307
1.99433
1.97617
1.95623
1.93311
1.91374
1.89318
1.87173
1.84785
1.82586
1.80425
1.79654
1.87106
2.09413
2.25951
2.25031
2.20965
2.17245
2.14381
2.12155
2.09972
2.07439
2.04633
2.0126
1.97863
1.95219
1.92953
1.90788
1.88651
1.86502
1.84295
1.81942
1.79379
1.76733
1.74294
1.72168
1.70248
1.68395
1.66502
1.64503
1.62429
1.60383
1.58439
1.56632
1.54993
1.53525
1.52169
1.50835
1.49382
1.47751
1.46027
1.44311
1.42762
1.4146
1.40443
1.39503
1.38365
1.37041
1.35566
1.34402
1.33205
1.32674
1.34122
1.40951
1.51206
1.62688
1.68845
1.72991
1.74484
1.74867
1.74659
1.73803
1.72473
1.71559
1.70954
1.70362
1.69732
1.69006
1.68329
1.6778
1.67026
1.65973
1.64966
1.64215
1.63732
1.63297
1.62676
1.62027
1.61483
1.60577
1.59559
1.59121
1.58374
2.03836
2.03529
2.01862
2.00034
1.98384
1.96689
1.94713
1.92651
1.90918
1.89006
1.8693
1.84521
1.82324
1.82509
1.9171
2.1436
2.2882
2.28541
2.24499
2.204
2.16949
2.14245
2.1197
2.09673
2.07073
2.04229
2.0104
1.97651
1.94642
1.92133
1.89866
1.87671
1.85461
1.83196
1.80858
1.7844
1.75984
1.73612
1.7143
1.69449
1.67603
1.65794
1.63934
1.62001
1.60056
1.58175
1.56385
1.54692
1.53094
1.51613
1.50251
1.48987
1.47728
1.46352
1.44872
1.43366
1.41838
1.40427
1.3922
1.38209
1.37275
1.36157
1.34724
1.33142
1.31988
1.31143
1.30911
1.3219
1.37959
1.48493
1.58855
1.65488
1.69222
1.71012
1.70957
1.70778
1.70613
1.70097
1.69205
1.68416
1.67782
1.67187
1.66203
1.64892
1.64174
1.63814
1.63349
1.62808
1.62122
1.61419
1.60719
1.59776
1.5911
1.58901
1.58606
1.57546
1.88987
2.0135
2.0045
1.98608
1.97008
1.95544
1.93707
1.92008
1.9023
1.88512
1.86311
1.84186
1.84828
1.96991
2.1977
2.30651
2.30118
2.26823
2.23556
2.20298
2.1701
2.13892
2.11131
2.08533
2.05914
2.0309
2.00037
1.96837
1.93787
1.91086
1.88669
1.8639
1.84133
1.81843
1.79537
1.77254
1.75017
1.72825
1.70684
1.68632
1.66705
1.64896
1.63177
1.61508
1.59845
1.58166
1.56476
1.54815
1.53216
1.51693
1.5023
1.48802
1.47408
1.46085
1.44826
1.4355
1.42245
1.40975
1.39718
1.38431
1.37105
1.35905
1.34946
1.33936
1.32634
1.31301
1.30313
1.29723
1.29525
1.30808
1.35472
1.45271
1.5532
1.63169
1.64904
1.66233
1.66935
1.67653
1.67862
1.67673
1.6727
1.66384
1.64952
1.6364
1.62755
1.6199
1.61468
1.61096
1.60857
1.60481
1.59703
1.58655
1.58041
1.57601
1.57067
1.56234
1.53185
1.91172
1.99043
1.97614
1.95727
1.94209
1.927
1.91062
1.89522
1.87779
1.85779
1.87565
2.02506
2.25602
2.34075
2.32683
2.28071
2.24639
2.22088
2.19329
2.16192
2.12919
2.09859
2.07016
2.04265
2.0145
1.98534
1.956
1.92735
1.90012
1.87459
1.85065
1.82775
1.80539
1.78356
1.76241
1.74191
1.7217
1.70159
1.68159
1.66217
1.6439
1.62705
1.61155
1.59674
1.58152
1.56531
1.54835
1.53191
1.51674
1.50231
1.48841
1.4751
1.46201
1.44852
1.43489
1.42253
1.41166
1.40115
1.38982
1.37771
1.36419
1.34902
1.3356
1.32678
1.31819
1.30559
1.29605
1.2896
1.28665
1.28273
1.2921
1.33239
1.41573
1.50539
1.59039
1.62429
1.63437
1.64477
1.6477
1.64661
1.64538
1.64083
1.63123
1.61703
1.60757
1.60287
1.59824
1.59164
1.58502
1.58015
1.57756
1.57237
1.56392
1.55872
1.55113
1.10738
1.63144
1.91302
1.96647
1.95163
1.93015
1.915
1.89808
1.8858
1.87375
1.91102
2.08743
2.29364
2.35587
2.32628
2.29556
2.25833
2.22652
2.19966
2.17235
2.14383
2.11319
2.08189
2.05179
2.02343
1.99615
1.9694
1.94328
1.9176
1.89211
1.86682
1.84212
1.81863
1.79652
1.7756
1.75559
1.73608
1.71667
1.69736
1.67851
1.66025
1.6426
1.62602
1.61054
1.59589
1.58178
1.56752
1.55236
1.53619
1.52053
1.50652
1.49321
1.47903
1.46447
1.45029
1.43639
1.42312
1.41074
1.39952
1.38951
1.3799
1.36851
1.3555
1.34326
1.33129
1.3212
1.3133
1.30476
1.29443
1.2846
1.27746
1.27553
1.26845
1.27176
1.30228
1.37988
1.47553
1.55448
1.60919
1.61701
1.61626
1.6142
1.61097
1.61032
1.60894
1.60453
1.59858
1.58825
1.57812
1.5718
1.56684
1.55976
1.55374
1.55241
1.55008
1.54123
1.00345
1.18303
1.69506
1.90518
1.9446
1.92826
1.90391
1.88663
1.89071
1.96358
2.16302
2.31735
2.36842
2.3436
2.30036
2.26762
2.23589
2.20634
2.17923
2.15193
2.12432
2.09583
2.0664
2.03701
2.00878
1.9823
1.95787
1.93466
1.9118
1.88828
1.8639
1.83936
1.81588
1.79412
1.77355
1.75359
1.73398
1.7146
1.69557
1.67742
1.66038
1.64414
1.62858
1.61352
1.59843
1.58294
1.56732
1.55278
1.53933
1.526
1.512
1.49833
1.48752
1.47603
1.46062
1.44386
1.42744
1.41225
1.39934
1.38777
1.37662
1.36929
1.36473
1.35702
1.34466
1.33
1.31373
1.30149
1.29612
1.29233
1.28803
1.27937
1.26704
1.25759
1.24554
1.2474
1.281
1.35384
1.45002
1.52206
1.57543
1.59091
1.58949
1.58794
1.58343
1.58014
1.57858
1.57699
1.57216
1.56639
1.55808
1.5479
1.54036
1.53292
1.52939
1.52484
1.00002
1.00945
1.26211
1.72135
1.90583
1.91509
1.89818
1.90888
2.03077
2.23252
2.34759
2.34795
2.33713
2.31203
2.28038
2.25228
2.22363
2.19313
2.16696
2.14193
2.11383
2.08572
2.0591
2.03303
2.00522
1.97697
1.95233
1.93062
1.90979
1.88873
1.86656
1.84276
1.81857
1.7958
1.7753
1.75651
1.73827
1.71994
1.70187
1.68491
1.66955
1.65572
1.6427
1.62908
1.61355
1.59666
1.57998
1.5649
1.55164
1.53949
1.52688
1.51241
1.4949
1.47535
1.45689
1.43989
1.4252
1.41276
1.40112
1.39053
1.38209
1.37461
1.36496
1.35295
1.33872
1.32261
1.3108
1.30554
1.30149
1.29529
1.28711
1.27897
1.27142
1.26204
1.24647
1.23397
1.22627
1.22961
1.25982
1.32618
1.42326
1.48743
1.5398
1.56904
1.56834
1.56474
1.56267
1.55881
1.55432
1.54807
1.54301
1.53865
1.52972
1.518
1.51503
1.51223
1
1.0001
1.02006
1.32417
1.77013
1.84976
1.92402
2.10806
2.28902
2.36219
2.37344
2.35295
2.32321
2.30431
2.28172
2.25509
2.2254
2.19434
2.16322
2.13838
2.11805
2.09523
2.06768
2.03634
2.01074
1.99138
1.97122
1.94834
1.92338
1.89724
1.87224
1.84898
1.827
1.80587
1.78495
1.76408
1.74423
1.7259
1.7089
1.69295
1.67791
1.66307
1.64802
1.63268
1.61777
1.60358
1.58982
1.57609
1.56192
1.54697
1.53154
1.5158
1.49861
1.4805
1.46302
1.44611
1.42937
1.41344
1.40015
1.38975
1.38143
1.37372
1.36519
1.35464
1.34024
1.32462
1.31556
1.31053
1.30526
1.29863
1.2915
1.28497
1.27643
1.26198
1.24276
1.2296
1.22121
1.21502
1.20895
1.21308
1.24142
1.30516
1.38998
1.46474
1.50627
1.53862
1.55148
1.55118
1.54835
1.54028
1.52942
1.5184
1.50958
1.50754
1.50603
1.50078
1
1
1.00025
1.03614
1.40344
1.67697
2.16997
2.37635
2.42533
2.42554
2.40529
2.37592
2.34607
2.32284
2.2978
2.27055
2.2449
2.22059
2.19478
2.16931
2.14388
2.1184
2.09309
2.06665
2.03989
2.01322
1.98639
1.96158
1.94055
1.92109
1.89956
1.87693
1.85405
1.83066
1.80666
1.78279
1.76037
1.74118
1.72472
1.70921
1.69304
1.67579
1.65835
1.6415
1.62573
1.61149
1.59897
1.58667
1.57243
1.55578
1.53795
1.51988
1.50274
1.48824
1.47451
1.45889
1.44095
1.42355
1.40958
1.39901
1.39023
1.38263
1.37492
1.36492
1.35161
1.33759
1.32727
1.32035
1.31485
1.30943
1.30312
1.29475
1.28229
1.26501
1.24743
1.23498
1.2243
1.21509
1.20682
1.20187
1.19616
1.19889
1.22
1.27785
1.35631
1.43045
1.47897
1.52413
1.53373
1.53282
1.52844
1.51488
1.49944
1.48745
1.48488
1.486
1
1
1
1.00072
1.05362
1.88158
2.58587
2.61848
2.56595
2.5294
2.49337
2.45559
2.42332
2.39376
2.36217
2.33069
2.30034
2.27121
2.24487
2.21821
2.19081
2.16212
2.13271
2.10395
2.07521
2.04561
2.01734
1.99083
1.96421
1.93691
1.91083
1.88517
1.85912
1.8328
1.80709
1.78324
1.762
1.74265
1.72469
1.70781
1.69191
1.67728
1.66308
1.64867
1.63416
1.61974
1.60504
1.58941
1.57323
1.55683
1.5399
1.52287
1.50668
1.49083
1.47401
1.45581
1.43699
1.41906
1.40387
1.39281
1.38491
1.37781
1.37083
1.36217
1.34992
1.33477
1.32093
1.31139
1.30487
1.29972
1.29443
1.2871
1.27865
1.27159
1.26231
1.24953
1.23594
1.22397
1.21342
1.20424
1.19312
1.18714
1.1788
1.18119
1.19723
1.25093
1.33434
1.4272
1.46788
1.49771
1.50442
1.50056
1.49538
1.48433
1.48315
1.50162
1
1
1
1
1.00465
2.26043
2.83308
2.79205
2.72385
2.67281
2.62006
2.5616
2.51262
2.46999
2.43163
2.3956
2.35939
2.32356
2.29265
2.26343
2.23449
2.2049
2.17394
2.14173
2.10846
2.0754
2.0439
2.0138
1.98435
1.95555
1.92735
1.89915
1.87077
1.84272
1.81605
1.79191
1.77046
1.75088
1.73264
1.71541
1.69902
1.68359
1.66887
1.65482
1.64112
1.62699
1.61169
1.59501
1.57758
1.55999
1.54262
1.52582
1.5093
1.49235
1.47479
1.45677
1.43859
1.4211
1.40532
1.39235
1.38462
1.38029
1.37446
1.36607
1.35426
1.33817
1.32258
1.31139
1.30327
1.29682
1.29103
1.28516
1.2789
1.27004
1.25856
1.24463
1.22961
1.21652
1.2058
1.19575
1.18674
1.17879
1.17066
1.16541
1.1586
1.16102
1.18271
1.24091
1.32615
1.40868
1.44769
1.46215
1.48421
1.52491
1.55864
1.6271
1
1
1
1
1.06073
2.42922
2.895
2.87356
2.8256
2.76455
2.70095
2.63411
2.57582
2.52589
2.48298
2.44324
2.40295
2.36208
2.32327
2.28828
2.25548
2.2237
2.19174
2.15831
2.12338
2.08843
2.05488
2.02302
1.99253
1.96282
1.93331
1.90381
1.8747
1.84683
1.82106
1.79768
1.77633
1.75655
1.73812
1.72081
1.70418
1.68794
1.67213
1.65703
1.64269
1.62896
1.61508
1.59969
1.58183
1.56258
1.54459
1.52823
1.51187
1.49424
1.4749
1.45461
1.43578
1.42016
1.40758
1.39712
1.38655
1.37466
1.36423
1.35436
1.34455
1.33561
1.32614
1.31621
1.30658
1.29784
1.29022
1.28325
1.27618
1.26806
1.25813
1.24482
1.22907
1.21517
1.20429
1.19423
1.18497
1.17555
1.16724
1.15971
1.15461
1.15129
1.14543
1.14918
1.1763
1.23849
1.34337
1.4571
1.5523
1.62711
1.68887
1.78237
)
;

boundaryField
{
    inlet
    {
        type            fixedValue;
        value           uniform 1;
    }
    outlet
    {
        type            inletOutlet;
        inletValue      uniform 1;
        value           nonuniform List<scalar> 
32
(
1.9497
1.94475
1.9298
1.90408
1.86976
1.83772
1.81005
1.78872
1.77532
1.76368
1.75162
1.73898
1.72552
1.70952
1.68987
1.66857
1.64636
1.62628
1.61027
1.59571
1.58404
1.57506
1.5626
1.55115
1.54084
1.52556
1.51283
1.50105
1.48642
1.50064
1.62597
1.78134
)
;
    }
    bottom
    {
        type            symmetryPlane;
    }
    top
    {
        type            symmetryPlane;
    }
    obstacle
    {
        type            zeroGradient;
    }
    defaultFaces
    {
        type            empty;
    }
}


// ************************************************************************* //
