/*--------------------------------*- C++ -*----------------------------------*\
  =========                 |
  \\      /  F ield         | OpenFOAM: The Open Source CFD Toolbox
   \\    /   O peration     | Website:  https://openfoam.org
    \\  /    A nd           | Version:  7
     \\/     M anipulation  |
\*---------------------------------------------------------------------------*/
FoamFile
{
    version     2.0;
    format      ascii;
    class       volVectorField;
    location    "2.6";
    object      U;
}
// * * * * * * * * * * * * * * * * * * * * * * * * * * * * * * * * * * * * * //

dimensions      [0 1 -1 0 0 0 0];

internalField   nonuniform List<vector> 
4032
(
(3 6.85336e-18 0)
(3 -1.39506e-17 0)
(3 9.83265e-17 0)
(3 -1.44962e-18 0)
(3 9.59055e-17 0)
(3 2.61868e-16 0)
(3 2.6496e-16 0)
(3 4.88747e-16 0)
(3 4.08823e-16 0)
(3 2.48789e-16 0)
(3 2.90937e-16 0)
(3 -6.33633e-16 0)
(1.13645 0.0159271 0)
(0.718926 0.0158036 0)
(0.666634 0.0215266 0)
(0.610921 0.0239096 0)
(0.553155 0.0256812 0)
(0.493452 0.0274578 0)
(0.431114 0.0293797 0)
(0.365458 0.0316076 0)
(0.295529 0.0342431 0)
(0.219363 0.037975 0)
(0.136513 0.0406889 0)
(0.0504533 0.0454011 0)
(3 2.61978e-17 0)
(3 6.81808e-18 0)
(3 2.52408e-16 0)
(3 1.30763e-17 0)
(3 -3.80187e-16 0)
(3 -1.03248e-16 0)
(3 4.36116e-16 0)
(3 7.78932e-16 0)
(3 1.45366e-15 0)
(3 1.04121e-15 0)
(3 6.69703e-16 0)
(3 -1.11163e-15 0)
(1.16044 0.0721341 0)
(0.713456 0.0619466 0)
(0.655165 0.0676832 0)
(0.598281 0.0733472 0)
(0.539581 0.077773 0)
(0.479726 0.0830231 0)
(0.417798 0.0890925 0)
(0.35314 0.0964401 0)
(0.284773 0.104951 0)
(0.211145 0.116917 0)
(0.130841 0.125828 0)
(0.0485598 0.139627 0)
(3 -2.32835e-18 0)
(3 8.43544e-17 0)
(3 2.03514e-16 0)
(3 4.28266e-16 0)
(3 2.89724e-17 0)
(3 -2.94776e-16 0)
(3 -3.26869e-17 0)
(3 2.22128e-16 0)
(3 9.41239e-16 0)
(3 5.16668e-16 0)
(3 5.3518e-16 0)
(3 -1.66576e-16 0)
(1.23423 0.126338 0)
(0.724783 0.108167 0)
(0.660953 0.116493 0)
(0.602277 0.125177 0)
(0.541655 0.132017 0)
(0.480499 0.140148 0)
(0.417508 0.149486 0)
(0.351975 0.160959 0)
(0.282707 0.173987 0)
(0.209292 0.193093 0)
(0.128586 0.207475 0)
(0.0483176 0.22929 0)
(3 -1.7462e-16 0)
(3 3.5191e-17 0)
(3 3.6293e-17 0)
(3 5.09173e-16 0)
(3 9.91552e-16 0)
(3 5.71077e-16 0)
(3 -2.12685e-16 0)
(3 9.01254e-17 0)
(3 3.24905e-17 0)
(3 4.38103e-17 0)
(3 3.06677e-16 0)
(3 5.81703e-16 0)
(1.35298 0.17805 0)
(0.739967 0.157016 0)
(0.668683 0.166812 0)
(0.60998 0.178022 0)
(0.548903 0.187138 0)
(0.487552 0.198545 0)
(0.423699 0.211954 0)
(0.356569 0.228762 0)
(0.284847 0.246712 0)
(0.210497 0.272793 0)
(0.128128 0.292682 0)
(0.0467485 0.319755 0)
(3 -6.16706e-17 0)
(3 -3.07015e-16 0)
(3 -1.22266e-16 0)
(3 -4.68833e-17 0)
(3 1.07025e-16 0)
(3 2.03865e-16 0)
(3 -2.75782e-16 0)
(3 -5.46448e-16 0)
(3 -2.82638e-16 0)
(3 5.4177e-16 0)
(3 3.8918e-16 0)
(3 -3.108e-17 0)
(1.52952 0.227777 0)
(0.761302 0.210198 0)
(0.677423 0.218342 0)
(0.62068 0.230557 0)
(0.562304 0.241266 0)
(0.504755 0.255778 0)
(0.444738 0.273543 0)
(0.38149 0.296538 0)
(0.311497 0.31991 0)
(0.237313 0.353406 0)
(0.148798 0.382549 0)
(0.0566911 0.417624 0)
(3 7.42679e-17 0)
(3 1.56801e-16 0)
(3 3.56361e-16 0)
(3 6.25327e-17 0)
(3 -2.84799e-16 0)
(3 -3.85987e-16 0)
(3 7.33907e-16 0)
(3 3.84277e-16 0)
(3 3.5324e-16 0)
(3 -8.19308e-17 0)
(3 -6.29758e-16 0)
(3 -3.52107e-15 0)
(1.78038 0.274008 0)
(0.792781 0.271133 0)
(0.684509 0.271357 0)
(0.62654 0.281885 0)
(0.568965 0.293763 0)
(0.514751 0.311001 0)
(0.459564 0.332997 0)
(0.401978 0.363735 0)
(0.333 0.397587 0)
(0.254615 0.445326 0)
(0.161368 0.492937 0)
(0.0550051 0.536934 0)
(3 6.80099e-17 0)
(3 2.70303e-16 0)
(3 -7.16867e-17 0)
(3 -1.04695e-16 0)
(3 -7.47236e-19 0)
(3 1.23409e-15 0)
(3 1.64964e-15 0)
(3 2.15605e-15 0)
(3 1.48333e-15 0)
(3 8.60583e-16 0)
(3 5.07343e-16 0)
(3 -1.93945e-15 0)
(2.12577 0.313676 0)
(0.839109 0.348298 0)
(0.698861 0.332523 0)
(0.646869 0.341072 0)
(0.592777 0.350578 0)
(0.541054 0.367199 0)
(0.488365 0.390892 0)
(0.436939 0.428747 0)
(0.375937 0.475525 0)
(0.311791 0.536272 0)
(0.225337 0.602798 0)
(0.0986087 0.676378 0)
(3 6.84515e-17 0)
(3 -7.95479e-17 0)
(3 -2.35761e-16 0)
(3 -3.78948e-16 0)
(3 2.98132e-16 0)
(3 1.92562e-15 0)
(3 2.14228e-15 0)
(3 1.45118e-15 0)
(3 1.12183e-15 0)
(3 1.09665e-15 0)
(3 1.51461e-15 0)
(3 5.82279e-16 0)
(2.6243 0.284948 0)
(0.958446 0.430693 0)
(0.773274 0.367845 0)
(0.724458 0.380022 0)
(0.664991 0.397841 0)
(0.607385 0.420118 0)
(0.550218 0.447683 0)
(0.497227 0.489761 0)
(0.443871 0.544105 0)
(0.383159 0.630145 0)
(0.269525 0.761402 0)
(0.149267 0.935887 0)
(3 1.6317e-16 0)
(3 2.29806e-16 0)
(3 7.97635e-16 0)
(3 9.44503e-16 0)
(3 8.95017e-16 0)
(3 9.54134e-16 0)
(3 1.01917e-15 0)
(3 1.03935e-15 0)
(3 1.13966e-15 0)
(3 7.88937e-16 0)
(3 1.3277e-15 0)
(3 1.64314e-15 0)
(3.05104 0.0580358 0)
(1.16143 0.437452 0)
(0.848859 0.406574 0)
(0.806197 0.432542 0)
(0.751827 0.452714 0)
(0.695684 0.47579 0)
(0.637436 0.504165 0)
(0.58249 0.547637 0)
(0.53164 0.614439 0)
(0.490315 0.737728 0)
(0.459759 0.921001 0)
(0.576428 1.20967 0)
(3 1.06786e-16 0)
(3 -1.93274e-16 0)
(3 -4.07277e-16 0)
(3 -6.32842e-18 0)
(3 3.81266e-16 0)
(3 6.36157e-16 0)
(3 2.58854e-16 0)
(3 3.57171e-16 0)
(3 5.49694e-16 0)
(3 1.01068e-15 0)
(3 1.16008e-15 0)
(3 1.13311e-15 0)
(3.01231 0.00101953 0)
(1.34813 0.429198 0)
(0.857542 0.465172 0)
(0.806909 0.491722 0)
(0.764718 0.513265 0)
(0.72844 0.541723 0)
(0.692663 0.574895 0)
(0.655798 0.618556 0)
(0.629174 0.688906 0)
(0.621705 0.812424 0)
(0.682356 0.960332 0)
(0.965377 1.13704 0)
(3 -9.77083e-17 0)
(3 -1.39199e-16 0)
(3 -7.18903e-16 0)
(3 -8.32829e-16 0)
(3 -5.77255e-16 0)
(3 -7.41545e-16 0)
(3 -4.32702e-16 0)
(3 -3.96746e-16 0)
(3 -3.39258e-16 0)
(3 1.40621e-16 0)
(3 -5.08784e-17 0)
(3 -5.04118e-16 0)
(3.00012 -3.86381e-06 0)
(1.75233 0.473204 0)
(0.87871 0.521911 0)
(0.811541 0.529853 0)
(0.785099 0.550574 0)
(0.765291 0.578386 0)
(0.750188 0.615666 0)
(0.734032 0.661819 0)
(0.73417 0.731861 0)
(0.756341 0.839384 0)
(0.873891 0.960963 0)
(1.17848 1.07272 0)
(3 -1.38555e-16 0)
(3 1.21141e-16 0)
(3 1.99798e-16 0)
(3 -1.26742e-16 0)
(3 -7.66435e-16 0)
(3 -1.21994e-15 0)
(3 -1.0965e-15 0)
(3 -8.18094e-16 0)
(3 -3.05598e-16 0)
(3 -3.02167e-16 0)
(3 -5.72906e-16 0)
(3 -6.12111e-16 0)
(3.00001 -3.62993e-06 0)
(2.47126 0.412552 0)
(1.00438 0.605217 0)
(0.866556 0.556994 0)
(0.840663 0.575283 0)
(0.819896 0.604183 0)
(0.813577 0.645303 0)
(0.812493 0.694941 0)
(0.829981 0.761182 0)
(0.878112 0.846377 0)
(1.0155 0.939982 0)
(1.26855 1.00506 0)
(3 9.81658e-17 0)
(3 2.07735e-16 0)
(3 -6.13303e-18 0)
(3 -1.43466e-16 0)
(3 -6.98146e-16 0)
(3 -6.88968e-16 0)
(3 -5.98428e-16 0)
(3 -6.63907e-16 0)
(3 -4.08186e-16 0)
(3 -2.21244e-16 0)
(3 4.55566e-16 0)
(3 7.59623e-16 0)
(3 -7.44064e-07 0)
(3.08532 0.0702323 0)
(1.30484 0.604606 0)
(0.969357 0.586694 0)
(0.932215 0.608211 0)
(0.900078 0.634326 0)
(0.885535 0.671525 0)
(0.888673 0.718941 0)
(0.913265 0.778639 0)
(0.979984 0.849443 0)
(1.11901 0.917584 0)
(1.32596 0.95819 0)
(3 -8.51872e-17 0)
(3 -1.49019e-16 0)
(3 -2.90703e-16 0)
(3 -4.74839e-16 0)
(3 -6.15157e-16 0)
(3 -8.45818e-16 0)
(3 -5.57542e-16 0)
(3 -8.42615e-16 0)
(3 -5.2905e-16 0)
(3 5.59468e-17 0)
(3 8.04522e-17 0)
(3 4.04116e-16 0)
(3 -7.00179e-08 0)
(3.01353 0.00032386 0)
(1.61791 0.574376 0)
(0.996447 0.666114 0)
(0.95649 0.671103 0)
(0.938112 0.685638 0)
(0.9345 0.710178 0)
(0.948892 0.744567 0)
(0.983303 0.78713 0)
(1.05719 0.839651 0)
(1.18461 0.885978 0)
(1.34871 0.908723 0)
(3 -8.05246e-17 0)
(3 -9.90027e-17 0)
(3 -4.59018e-16 0)
(3 -5.37714e-16 0)
(3 -2.18858e-16 0)
(3 -3.42022e-16 0)
(3 -8.69086e-16 0)
(3 -8.11507e-16 0)
(3 -3.60882e-16 0)
(3 2.26601e-16 0)
(3 3.00964e-16 0)
(3 8.7396e-16 0)
(3 -1.97974e-09 0)
(3.00011 -3.09762e-06 0)
(2.42694 0.457943 0)
(1.11111 0.713834 0)
(1.00217 0.711406 0)
(0.987246 0.71463 0)
(0.986796 0.726585 0)
(1.00482 0.755774 0)
(1.04535 0.791081 0)
(1.12123 0.832381 0)
(1.23375 0.865626 0)
(1.3689 0.880525 0)
(3 4.90896e-16 0)
(3 6.27025e-16 0)
(3 6.36572e-16 0)
(3 5.26249e-16 0)
(3 6.48412e-16 0)
(3 2.14944e-16 0)
(3 -2.90206e-16 0)
(3 -4.87696e-16 0)
(3 -1.17306e-16 0)
(3 5.11744e-17 0)
(3 9.48662e-16 0)
(3 1.86595e-15 0)
(3 -4.23126e-12 0)
(3.00001 -4.86589e-06 0)
(3.07111 0.0668373 0)
(1.44779 0.710754 0)
(1.08799 0.729412 0)
(1.06443 0.729954 0)
(1.05412 0.745313 0)
(1.06595 0.764872 0)
(1.10224 0.788217 0)
(1.1712 0.817725 0)
(1.26642 0.840764 0)
(1.37975 0.850206 0)
(3 4.66674e-17 0)
(3 1.32452e-16 0)
(3 4.48453e-16 0)
(3 5.85788e-16 0)
(3 7.80749e-17 0)
(3 -3.0974e-16 0)
(3 -1.64876e-16 0)
(3 1.52929e-16 0)
(3 3.2326e-16 0)
(3 5.02937e-16 0)
(3 4.65929e-16 0)
(3 7.18741e-16 0)
(3 -3.45085e-15 0)
(3 -1.00222e-06 0)
(3.00967 0.00066744 0)
(2.01877 0.645796 0)
(1.1468 0.797884 0)
(1.10561 0.789756 0)
(1.11514 0.784833 0)
(1.12637 0.791274 0)
(1.15775 0.803154 0)
(1.21774 0.81937 0)
(1.29958 0.833415 0)
(1.39507 0.838716 0)
(3 -6.3026e-16 0)
(3 -7.24146e-16 0)
(3 -8.17163e-16 0)
(3 -6.75808e-16 0)
(3 -8.30365e-16 0)
(3 -2.34024e-16 0)
(3 4.83052e-16 0)
(3 7.07417e-16 0)
(3 7.45786e-16 0)
(3 2.61581e-16 0)
(3 -1.44891e-16 0)
(3 -1.27516e-17 0)
(3 -4.68985e-16 0)
(3 -8.05234e-08 0)
(3.00005 3.05316e-06 0)
(2.98103 0.19752 0)
(1.40115 0.782772 0)
(1.16496 0.788102 0)
(1.19089 0.794706 0)
(1.19882 0.80293 0)
(1.22515 0.808959 0)
(1.27274 0.816709 0)
(1.33852 0.824764 0)
(1.41785 0.827317 0)
(3 1.08182e-17 0)
(3 -1.91143e-16 0)
(3 -2.7143e-16 0)
(3 -6.42694e-16 0)
(3 -1.25577e-16 0)
(3 3.03184e-16 0)
(3 9.35767e-16 0)
(3 1.02338e-15 0)
(3 4.17719e-16 0)
(3 2.62851e-16 0)
(3 2.5691e-17 0)
(3 -4.61872e-16 0)
(3 -8.67672e-16 0)
(3 -3.86831e-10 0)
(3 -1.85348e-06 0)
(3.02793 0.0042486 0)
(1.83671 0.723871 0)
(1.1976 0.837151 0)
(1.20399 0.832162 0)
(1.2318 0.836565 0)
(1.26944 0.842235 0)
(1.31547 0.846363 0)
(1.37139 0.846544 0)
(1.43889 0.840565 0)
(3 4.39735e-16 0)
(3 5.29492e-16 0)
(3 5.16918e-16 0)
(3 9.2266e-17 0)
(3 4.85197e-16 0)
(3 4.27056e-16 0)
(3 2.47105e-16 0)
(3 4.83537e-16 0)
(3 1.43009e-16 0)
(3 2.11641e-16 0)
(3 -1.49942e-17 0)
(3 -1.00178e-15 0)
(3 -9.58078e-16 0)
(3 -5.67898e-13 0)
(3 -3.791e-07 0)
(3.0003 6.25302e-05 0)
(2.86027 0.316865 0)
(1.41551 0.849392 0)
(1.23758 0.819835 0)
(1.27723 0.830045 0)
(1.31446 0.840919 0)
(1.36112 0.845884 0)
(1.41213 0.844447 0)
(1.47139 0.836896 0)
(3 7.50837e-17 0)
(3 -6.02131e-17 0)
(3 1.15077e-17 0)
(3 -3.54468e-17 0)
(3 -1.01004e-16 0)
(3 -3.66185e-17 0)
(3 -7.99047e-17 0)
(3 -1.61502e-16 0)
(3 -2.57078e-16 0)
(3 -2.66585e-16 0)
(3 5.5459e-16 0)
(3 2.74953e-16 0)
(3 -1.06556e-16 0)
(3 -3.48624e-16 0)
(3 -3.11192e-08 0)
(3 4.14561e-09 0)
(3.03953 0.0123577 0)
(1.87457 0.756238 0)
(1.28168 0.86562 0)
(1.2936 0.86255 0)
(1.33432 0.864947 0)
(1.38064 0.867138 0)
(1.4321 0.864979 0)
(1.48699 0.859551 0)
(3 -2.4583e-16 0)
(3 -5.91763e-16 0)
(3 -5.37168e-16 0)
(3 2.66466e-16 0)
(3 3.13313e-17 0)
(3 2.44841e-17 0)
(3 1.47869e-16 0)
(3 -3.25157e-16 0)
(3 -4.61512e-16 0)
(3 -4.96904e-16 0)
(3 4.65009e-17 0)
(3 6.08207e-17 0)
(3 -3.12066e-16 0)
(3 2.96165e-17 0)
(3 -1.9686e-10 0)
(3 -8.10399e-09 0)
(3.00074 0.000301467 0)
(2.83987 0.32963 0)
(1.51594 0.894042 0)
(1.3227 0.857026 0)
(1.36802 0.859548 0)
(1.40755 0.86281 0)
(1.45622 0.862531 0)
(1.508 0.859265 0)
(3 -9.367e-17 0)
(3 -3.55365e-16 0)
(3 -2.9007e-16 0)
(3 1.40344e-16 0)
(3 4.55315e-16 0)
(3 7.59625e-16 0)
(3 4.95751e-16 0)
(3 -6.57282e-16 0)
(3 -1.07447e-15 0)
(3 -6.51524e-16 0)
(3 2.77324e-16 0)
(3 -1.48017e-16 0)
(3 -7.60743e-16 0)
(3 1.02536e-16 0)
(3 -4.70882e-13 0)
(3 -1.89744e-09 0)
(3 4.78261e-07 0)
(3.02998 0.0159267 0)
(2.0754 0.753442 0)
(1.389 0.899752 0)
(1.38943 0.893117 0)
(1.42579 0.886654 0)
(1.46625 0.882609 0)
(1.51399 0.875808 0)
(3 2.61505e-16 0)
(3 5.34859e-16 0)
(3 5.69672e-16 0)
(3 -2.99058e-17 0)
(3 7.62429e-17 0)
(3 -4.12387e-16 0)
(3 -6.84147e-16 0)
(3 -6.72961e-16 0)
(3 -1.16046e-15 0)
(3 -9.81689e-16 0)
(3 -7.806e-16 0)
(3 -2.94635e-16 0)
(3 -5.2697e-16 0)
(3 3.06817e-16 0)
(3 6.02401e-17 0)
(3 -1.81879e-10 0)
(3 -2.45236e-10 0)
(3.00051 0.000466248 0)
(2.91935 0.238298 0)
(1.71389 0.893581 0)
(1.42063 0.90114 0)
(1.46283 0.893058 0)
(1.49196 0.885441 0)
(1.53267 0.874194 0)
(3 -8.11404e-19 0)
(3 5.86052e-16 0)
(3 4.9408e-16 0)
(3 -6.58765e-16 0)
(3 -1.16918e-15 0)
(3 -1.56588e-15 0)
(3 -1.61009e-15 0)
(3 -8.70812e-16 0)
(3 -3.74706e-16 0)
(3 -4.72797e-16 0)
(3 -5.72415e-16 0)
(3 -5.29637e-16 0)
(3 2.43775e-16 0)
(3 -2.53536e-16 0)
(3 -4.94415e-16 0)
(3 -4.89881e-12 0)
(3 -1.16818e-10 0)
(3 9.55591e-07 0)
(3.01137 0.0127917 0)
(2.45876 0.637111 0)
(1.53343 0.94717 0)
(1.48673 0.92695 0)
(1.51644 0.909818 0)
(1.54919 0.8945 0)
(3 -9.67454e-17 0)
(3 -5.78032e-17 0)
(3 -3.33264e-17 0)
(3 2.36928e-16 0)
(3 -4.33797e-16 0)
(3 -9.29415e-16 0)
(3 -7.41849e-16 0)
(3 -4.58087e-16 0)
(3 2.59679e-17 0)
(3 -7.18764e-17 0)
(3 -4.00188e-16 0)
(3 -3.189e-16 0)
(3 3.23148e-16 0)
(3 2.08355e-18 0)
(3 2.18598e-16 0)
(3 -4.95974e-14 0)
(3 -2.65957e-11 0)
(3 1.90247e-10 0)
(3.00007 0.000281922 0)
(3.01207 0.100078 0)
(2.00179 0.824472 0)
(1.5436 0.935026 0)
(1.55813 0.923127 0)
(1.58569 0.904044 0)
(3 -2.38125e-16 0)
(3 -7.72976e-16 0)
(3 -3.013e-16 0)
(3 4.14333e-16 0)
(3 5.74021e-16 0)
(3 1.75134e-16 0)
(3 3.16712e-16 0)
(3 4.74695e-16 0)
(3 4.59659e-16 0)
(3 4.06694e-16 0)
(3 1.98201e-16 0)
(3 4.90771e-16 0)
(3 7.45716e-16 0)
(3 1.31248e-15 0)
(3 1.64126e-15 0)
(3 1.2185e-15 0)
(3 -2.23952e-12 0)
(3 -2.03557e-12 0)
(3 4.50635e-07 0)
(3.0023 0.00507191 0)
(2.78027 0.360326 0)
(1.79322 0.913484 0)
(1.58 0.949241 0)
(1.60807 0.934685 0)
(3 -1.26317e-16 0)
(3 -1.46636e-16 0)
(3 -8.05198e-17 0)
(3 -2.59117e-16 0)
(3 -1.41766e-16 0)
(3 4.717e-16 0)
(3 5.83294e-16 0)
(3 7.19112e-16 0)
(3 8.88716e-16 0)
(3 1.58537e-15 0)
(3 1.9148e-15 0)
(3 1.85773e-15 0)
(3 1.60061e-15 0)
(3 1.2921e-15 0)
(3 7.42922e-16 0)
(3 6.93411e-16 0)
(3 -3.04653e-14 0)
(3 -5.27028e-13 0)
(3 1.75281e-10 0)
(3 4.14643e-05 0)
(3.00419 0.0291271 0)
(2.4373 0.628008 0)
(1.69835 0.967369 0)
(1.61826 0.952838 0)
(3 1.04542e-17 0)
(3 4.04401e-16 0)
(3 6.47795e-16 0)
(3 4.15902e-16 0)
(3 2.73851e-16 0)
(3 2.8313e-16 0)
(3 1.07907e-16 0)
(3 -2.44598e-16 0)
(3 -4.69851e-17 0)
(3 3.50878e-16 0)
(3 3.66473e-16 0)
(3 3.68897e-16 0)
(3 1.77072e-16 0)
(3 -4.07377e-16 0)
(3 -9.03085e-16 0)
(3 -1.00256e-15 0)
(3 -3.53916e-16 0)
(3 -3.83932e-14 0)
(3 -1.09945e-14 0)
(3 3.48275e-08 0)
(3 0.000899511 0)
(2.97119 0.111073 0)
(2.1594 0.791411 0)
(1.68187 0.96073 0)
(3 2.1194e-16 0)
(3 7.4197e-17 0)
(3 -6.43761e-17 0)
(3 3.45557e-16 0)
(3 7.05444e-16 0)
(3 3.34444e-16 0)
(3 4.44123e-16 0)
(3 3.18024e-16 0)
(3 2.99577e-16 0)
(3 -3.98555e-17 0)
(3 -6.92804e-16 0)
(3 -8.54076e-16 0)
(3 -7.01906e-16 0)
(3 -5.8682e-16 0)
(3 -4.42099e-16 0)
(3 -6.65375e-16 0)
(3 1.06539e-16 0)
(3 -1.3854e-15 0)
(3 -3.22285e-15 0)
(3 1.4157e-11 0)
(3 2.3863e-06 0)
(3.00012 0.00603468 0)
(2.83648 0.286869 0)
(1.98122 0.872119 0)
(3 2.06091e-16 0)
(3 -1.89054e-16 0)
(3 -1.01283e-15 0)
(3 -7.80498e-16 0)
(3 2.79805e-16 0)
(3 6.36619e-16 0)
(3 6.72621e-16 0)
(3 9.95631e-16 0)
(3 9.57399e-16 0)
(3 4.09228e-16 0)
(3 -2.69959e-16 0)
(3 -3.81921e-17 0)
(3 2.58448e-16 0)
(3 -1.03729e-17 0)
(3 -7.3459e-16 0)
(3 -9.95049e-16 0)
(3 -8.91096e-16 0)
(3 -6.69954e-16 0)
(3 -1.43523e-16 0)
(3 2.81849e-15 0)
(3 1.777e-09 0)
(2.99999 4.94619e-05 0)
(2.99769 0.022415 0)
(2.62393 0.475018 0)
(3 -1.57435e-16 0)
(3 -4.38868e-16 0)
(3 -2.5061e-16 0)
(3 3.55897e-17 0)
(3 4.71454e-16 0)
(3 7.38066e-16 0)
(3 6.0635e-16 0)
(3 7.90274e-16 0)
(3 6.13066e-16 0)
(3 3.09018e-16 0)
(3 2.94782e-16 0)
(3 3.54812e-16 0)
(3 4.08835e-16 0)
(3 1.63543e-16 0)
(3 2.06476e-16 0)
(3 2.08783e-16 0)
(3 -7.17001e-16 0)
(3 -8.04793e-16 0)
(3 -2.1585e-16 0)
(3 -9.55141e-16 0)
(3 3.76107e-13 0)
(3 5.61655e-08 0)
(2.9999 0.000502252 0)
(2.98412 0.0556074 0)
(3 5.28115e-17 0)
(3 5.08528e-16 0)
(3 7.45413e-16 0)
(3 -1.41992e-16 0)
(3 -3.64125e-16 0)
(3 2.61405e-16 0)
(3 1.22827e-15 0)
(3 1.48567e-15 0)
(3 1.37447e-15 0)
(3 1.14612e-15 0)
(3 6.27145e-16 0)
(3 1.29006e-16 0)
(3 -6.63803e-17 0)
(3 4.95789e-16 0)
(3 5.0535e-16 0)
(3 2.25329e-16 0)
(3 -2.13664e-16 0)
(3 -3.35789e-16 0)
(3 -4.21502e-16 0)
(3 -1.1902e-15 0)
(3 -5.145e-16 0)
(3 2.83676e-11 0)
(3 1.06245e-06 0)
(2.99966 0.0022918 0)
(3 1.69341e-16 0)
(3 3.11119e-16 0)
(3 1.75269e-16 0)
(3 -3.61507e-16 0)
(3 -4.82301e-16 0)
(3 3.78937e-16 0)
(3 1.05752e-15 0)
(3 1.41909e-15 0)
(3 2.18399e-15 0)
(3 1.77818e-15 0)
(3 3.90417e-16 0)
(3 9.27703e-17 0)
(3 1.0069e-16 0)
(3 4.1633e-16 0)
(3 5.85027e-17 0)
(3 -1.60699e-16 0)
(3 8.64247e-16 0)
(3 1.13996e-15 0)
(3 1.22595e-15 0)
(3 9.96824e-16 0)
(3 6.57952e-16 0)
(3 2.9689e-15 0)
(3 9.64903e-10 0)
(3 9.51845e-06 0)
(3 1.86079e-17 0)
(3 1.72172e-17 0)
(3 6.41579e-18 0)
(3 2.71685e-16 0)
(3 3.11783e-16 0)
(3 3.77201e-16 0)
(3 1.45748e-16 0)
(3 -2.10538e-16 0)
(3 -5.19673e-16 0)
(3 -1.09431e-16 0)
(3 -2.85337e-16 0)
(3 -2.9237e-16 0)
(3 3.07781e-16 0)
(3 3.15338e-16 0)
(3 9.68473e-16 0)
(3 1.18002e-15 0)
(3 1.20896e-15 0)
(3 1.26025e-15 0)
(3 1.27996e-15 0)
(3 1.68372e-15 0)
(3 1.52881e-15 0)
(3 6.68444e-16 0)
(3 1.30778e-13 0)
(3 1.16403e-08 0)
(3 3.71292e-17 0)
(3 2.34902e-17 0)
(3 -7.92646e-17 0)
(3 2.94931e-16 0)
(3 1.1235e-16 0)
(3 -4.97822e-16 0)
(3 -1.09522e-15 0)
(3 -1.63453e-15 0)
(3 -1.80558e-15 0)
(3 -1.91918e-15 0)
(3 -6.25587e-16 0)
(3 -8.23347e-16 0)
(3 -6.92599e-16 0)
(3 4.26281e-19 0)
(3 9.14352e-16 0)
(3 1.30122e-15 0)
(3 9.10668e-16 0)
(3 3.67521e-16 0)
(3 1.10573e-19 0)
(3 6.37094e-16 0)
(3 2.69286e-16 0)
(3 1.06661e-16 0)
(3 2.95022e-16 0)
(3 3.18439e-12 0)
(3 -1.93864e-16 0)
(3 -4.31084e-16 0)
(3 -2.33223e-16 0)
(3 3.97135e-16 0)
(3 -3.57237e-16 0)
(3 -7.44064e-16 0)
(3 -8.56503e-16 0)
(3 -9.59861e-16 0)
(3 -9.77224e-16 0)
(3 -1.03936e-15 0)
(3 -6.773e-16 0)
(3 -8.1283e-16 0)
(3 -1.47085e-15 0)
(3 -1.29357e-15 0)
(3 -6.14869e-16 0)
(3 4.33388e-16 0)
(3 1.61509e-15 0)
(3 1.40529e-15 0)
(3 4.67674e-16 0)
(3 -1.71366e-16 0)
(3 -6.45704e-16 0)
(3 -6.37999e-16 0)
(3 -1.48397e-15 0)
(3 -7.85069e-16 0)
(3 -2.08584e-16 0)
(3 -4.04933e-16 0)
(3 -3.0528e-17 0)
(3 5.69534e-17 0)
(3 -1.28399e-16 0)
(3 -4.96237e-17 0)
(3 -4.47149e-16 0)
(3 -4.92737e-16 0)
(3 -6.79973e-16 0)
(3 -4.19912e-16 0)
(3 -7.56482e-16 0)
(3 -7.41636e-16 0)
(3 -1.00159e-15 0)
(3 -1.55868e-15 0)
(3 -1.3954e-15 0)
(3 9.8758e-19 0)
(3 8.04552e-17 0)
(3 -1.2662e-16 0)
(3 -3.39103e-16 0)
(3 -1.2443e-15 0)
(3 -1.78906e-15 0)
(3 -1.97771e-15 0)
(3 -2.52288e-15 0)
(3 -1.87157e-15 0)
(3 -1.47734e-16 0)
(3 8.88349e-17 0)
(3 3.45402e-16 0)
(3 2.47105e-16 0)
(3 3.47782e-16 0)
(3 1.54296e-16 0)
(3 -8.23726e-16 0)
(3 -1.11266e-15 0)
(3 -1.03751e-15 0)
(3 -6.56555e-16 0)
(3 -6.99556e-16 0)
(3 -1.59388e-15 0)
(3 -1.78014e-15 0)
(3 -1.14485e-15 0)
(3 -7.73139e-16 0)
(3 -1.17622e-15 0)
(3 -2.667e-15 0)
(3 -2.5079e-15 0)
(3 -2.10724e-15 0)
(3 -2.25277e-15 0)
(3 -2.62851e-15 0)
(3 -2.98576e-15 0)
(3 -1.79254e-15 0)
(3 -1.46751e-15 0)
(3 -1.0841e-17 0)
(3 2.57085e-16 0)
(3 4.00451e-16 0)
(3 2.60046e-16 0)
(3 2.22735e-16 0)
(3 8.23595e-17 0)
(3 -3.68443e-16 0)
(3 -4.28736e-16 0)
(3 -4.39717e-16 0)
(3 -3.05987e-16 0)
(3 -6.0038e-16 0)
(3 -1.27104e-15 0)
(3 -1.49582e-15 0)
(3 -1.05034e-15 0)
(3 -8.44227e-16 0)
(3 -1.21207e-15 0)
(3 -7.09418e-16 0)
(3 -3.97304e-16 0)
(3 -4.07621e-16 0)
(3 -5.55101e-16 0)
(3 -9.56585e-16 0)
(3 -1.11276e-15 0)
(3 -1.98764e-16 0)
(3 -4.69249e-16 0)
(1.52025 1.26602 0)
(1.83865 1.45422 0)
(2.25915 1.20075 0)
(2.69661 0.766026 0)
(2.59467 0.321231 0)
(2.59952 0.0256088 0)
(2.54686 -0.221716 0)
(2.46712 -0.4146 0)
(2.46502 -0.431039 0)
(2.48111 -0.273525 0)
(2.46261 -0.224597 0)
(2.44083 -0.186227 0)
(2.40952 -0.146155 0)
(2.37512 -0.128712 0)
(2.39137 -0.115946 0)
(2.41885 -0.086819 0)
(2.42151 -0.0722652 0)
(2.40823 -0.0444797 0)
(2.37774 -0.0165312 0)
(2.37035 -0.0124368 0)
(2.36641 -0.0133164 0)
(2.38427 -0.013369 0)
(2.42172 -0.0110624 0)
(2.43215 -0.0108455 0)
(2.42568 -0.0106039 0)
(2.40451 -0.00936932 0)
(2.37848 -0.00387679 0)
(2.36956 -0.00106104 0)
(2.36651 0.000466229 0)
(2.38498 -0.0021357 0)
(2.40672 -0.00800032 0)
(2.41028 -0.00989246 0)
(2.41316 -0.00776406 0)
(2.40468 -0.000741497 0)
(2.39659 -0.0046812 0)
(2.3152 -0.0638253 0)
(1.31221 -0.104709 0)
(0.991078 -0.109102 0)
(1.06307 -0.0893184 0)
(1.13832 -0.0743072 0)
(1.21361 -0.0506546 0)
(1.2776 -0.0323458 0)
(1.32641 -0.0234171 0)
(1.36404 -0.0202994 0)
(1.39702 -0.0188997 0)
(1.42507 -0.0179793 0)
(1.45618 -0.0165373 0)
(1.49083 -0.0151361 0)
(1.53079 -0.0124508 0)
(1.57202 -0.00845349 0)
(1.60443 -0.00430588 0)
(1.62954 -0.00106918 0)
(1.6533 0.00169197 0)
(1.67773 0.00345081 0)
(1.70444 0.00368106 0)
(1.73017 0.00119027 0)
(1.75269 -0.0021394 0)
(1.77517 -0.00287197 0)
(1.79607 -0.0023246 0)
(1.814 0.000250132 0)
(1.82955 0.00415916 0)
(1.84496 0.00699336 0)
(1.86385 0.00773459 0)
(1.88369 0.0078088 0)
(1.90541 0.00727958 0)
(1.93194 0.00553206 0)
(1.95725 0.00216488 0)
(1.97833 0.000360951 0)
(1.99962 -0.000260149 0)
(2.01887 -0.000293435 0)
(2.03053 0.00145005 0)
(2.033 0.00478677 0)
(2.03814 0.00767534 0)
(2.05173 0.00871868 0)
(2.0694 0.00891213 0)
(2.0872 0.00896269 0)
(2.10618 0.00876635 0)
(2.12698 0.00814129 0)
(2.1455 0.00769313 0)
(2.16343 0.00715755 0)
(2.17594 0.00637924 0)
(2.17656 0.00722091 0)
(2.17902 0.00834554 0)
(2.19435 0.00853245 0)
(2.21221 0.00853422 0)
(2.23028 0.00830392 0)
(2.2495 0.00730754 0)
(2.2685 0.00683066 0)
(2.2869 0.0067213 0)
(2.29773 0.00707195 0)
(2.29243 0.00798961 0)
(2.29297 0.00885875 0)
(2.30866 0.0090841 0)
(2.32672 0.00916894 0)
(2.34257 0.00904097 0)
(2.37278 0.00851229 0)
(1.77393 1.08157 0)
(2.25976 0.90458 0)
(2.55621 0.476804 0)
(2.69501 -0.0273496 0)
(2.71308 -0.233799 0)
(2.75602 -0.388184 0)
(2.71987 -0.605682 0)
(2.73457 -0.684879 0)
(2.70059 -0.635263 0)
(2.62792 -0.511249 0)
(2.58118 -0.347802 0)
(2.56299 -0.25189 0)
(2.52524 -0.179767 0)
(2.48615 -0.115909 0)
(2.46552 -0.0674345 0)
(2.46711 -0.0446917 0)
(2.44563 -0.0300967 0)
(2.44113 -0.0250953 0)
(2.43656 -0.0022116 0)
(2.43161 -0.00139902 0)
(2.4229 -0.00578419 0)
(2.42653 0.00439456 0)
(2.44071 0.0179621 0)
(2.44432 0.0117499 0)
(2.44198 -0.0113092 0)
(2.42826 -0.0311365 0)
(2.42061 -0.02775 0)
(2.41425 -0.00885439 0)
(2.41472 0.0115739 0)
(2.41526 0.0191968 0)
(2.42015 0.0102426 0)
(2.43221 -0.00609955 0)
(2.43605 -0.00883125 0)
(2.43036 -0.0184019 0)
(2.39667 -0.0865407 0)
(2.11826 -0.438316 0)
(1.74829 -0.349556 0)
(1.24766 -0.122136 0)
(1.20004 -0.0296352 0)
(1.23439 -0.0277978 0)
(1.28182 -0.0281634 0)
(1.33505 -0.0154357 0)
(1.37344 -0.0169795 0)
(1.40626 -0.0115971 0)
(1.42962 -0.0147738 0)
(1.45546 -0.0190601 0)
(1.4854 -0.0182492 0)
(1.51703 -0.0164579 0)
(1.55259 -0.0148722 0)
(1.59166 -0.0129989 0)
(1.62462 -0.00842628 0)
(1.6503 -0.00226471 0)
(1.67377 0.00730394 0)
(1.6941 0.0179244 0)
(1.71372 0.0214669 0)
(1.73437 0.0179287 0)
(1.75722 0.00812984 0)
(1.78063 -0.00302166 0)
(1.80248 -0.0089132 0)
(1.82546 -0.00901224 0)
(1.84649 -0.00183523 0)
(1.86254 0.0111946 0)
(1.87437 0.0230929 0)
(1.89024 0.0271146 0)
(1.90939 0.0267343 0)
(1.93216 0.0220203 0)
(1.95747 0.0146332 0)
(1.98028 0.00843691 0)
(2.00077 0.00391688 0)
(2.01981 -0.00151598 0)
(2.03424 -0.00646656 0)
(2.04298 -0.00398712 0)
(2.05079 0.00607767 0)
(2.06162 0.0169009 0)
(2.07587 0.0234989 0)
(2.09244 0.0265725 0)
(2.10952 0.0281142 0)
(2.12719 0.0279136 0)
(2.14513 0.0250018 0)
(2.16205 0.0200508 0)
(2.1765 0.0129496 0)
(2.18553 0.00928776 0)
(2.19093 0.0164551 0)
(2.20108 0.0240631 0)
(2.2164 0.0266957 0)
(2.23418 0.0269462 0)
(2.25311 0.0256786 0)
(2.27261 0.0216133 0)
(2.29119 0.016489 0)
(2.30497 0.0121827 0)
(2.30535 0.0158565 0)
(2.30032 0.0252477 0)
(2.31068 0.0290544 0)
(2.32846 0.0298577 0)
(2.3435 0.0300812 0)
(2.37054 0.0282722 0)
(1.66981 1.04825 0)
(2.11513 0.80155 0)
(2.30379 0.69515 0)
(2.43863 0.472572 0)
(2.61914 0.103036 0)
(2.70613 -0.0306456 0)
(2.73102 -0.118229 0)
(2.74957 -0.294664 0)
(2.73603 -0.373237 0)
(2.73884 -0.395649 0)
(2.74912 -0.437286 0)
(2.75278 -0.475093 0)
(2.73136 -0.427661 0)
(2.70468 -0.353966 0)
(2.68421 -0.320934 0)
(2.64001 -0.269011 0)
(2.56851 -0.159536 0)
(2.53892 -0.117836 0)
(2.53011 -0.0893378 0)
(2.53782 -0.060177 0)
(2.52784 -0.0225971 0)
(2.51173 -0.00652935 0)
(2.50101 0.00666529 0)
(2.48537 0.0205066 0)
(2.47553 0.0141134 0)
(2.47415 -0.00697132 0)
(2.48596 -0.0379991 0)
(2.49039 -0.040859 0)
(2.48951 -0.0315337 0)
(2.48178 -0.0160009 0)
(2.47429 -0.000734338 0)
(2.47566 0.00440994 0)
(2.47094 -0.00469495 0)
(2.43669 -0.0717419 0)
(2.24392 -0.312765 0)
(1.93587 -0.587266 0)
(1.94169 -0.656147 0)
(1.69158 -0.391273 0)
(1.42221 -0.137883 0)
(1.38885 -0.0491668 0)
(1.40871 -0.0133076 0)
(1.44188 -0.0328233 0)
(1.4637 -0.0626474 0)
(1.49459 -0.0630026 0)
(1.51277 -0.0536531 0)
(1.5295 -0.036896 0)
(1.55098 -0.0250933 0)
(1.57682 -0.0184331 0)
(1.60724 -0.0176654 0)
(1.64019 -0.0175004 0)
(1.66821 -0.0155793 0)
(1.69195 -0.0127709 0)
(1.71481 -0.00649039 0)
(1.73536 0.00444014 0)
(1.75049 0.0174694 0)
(1.761 0.0249522 0)
(1.77692 0.0221161 0)
(1.79717 0.0142627 0)
(1.8216 0.00536545 0)
(1.84766 5.02349e-05 0)
(1.86998 -0.000555448 0)
(1.89072 0.0038798 0)
(1.90676 0.0163777 0)
(1.91563 0.0304998 0)
(1.92674 0.0355164 0)
(1.94598 0.0343829 0)
(1.96705 0.0299815 0)
(1.98757 0.0242157 0)
(2.00655 0.0188808 0)
(2.02353 0.0135105 0)
(2.0392 0.0093233 0)
(2.0547 0.00844241 0)
(2.06815 0.0128039 0)
(2.08012 0.0219047 0)
(2.09315 0.0317807 0)
(2.10775 0.0386972 0)
(2.12313 0.0420793 0)
(2.1385 0.0429169 0)
(2.15279 0.0411825 0)
(2.16567 0.0365901 0)
(2.1766 0.0312424 0)
(2.18882 0.0276895 0)
(2.20317 0.0280626 0)
(2.21683 0.033186 0)
(2.22992 0.0388552 0)
(2.24463 0.0409752 0)
(2.26058 0.0403383 0)
(2.2762 0.0378529 0)
(2.29063 0.0334403 0)
(2.30314 0.0286465 0)
(2.31253 0.0272852 0)
(2.31729 0.0344566 0)
(2.32263 0.0446854 0)
(2.33607 0.0494007 0)
(2.35119 0.0500413 0)
(2.37706 0.0484671 0)
(1.61274 0.971858 0)
(1.90254 0.866972 0)
(2.11937 0.746736 0)
(2.33378 0.502419 0)
(2.4707 0.27614 0)
(2.55783 0.166941 0)
(2.61424 0.0791918 0)
(2.69036 -0.108941 0)
(2.71968 -0.277805 0)
(2.71561 -0.346287 0)
(2.75804 -0.416256 0)
(2.77699 -0.49554 0)
(2.79597 -0.518794 0)
(2.79735 -0.499315 0)
(2.76299 -0.45347 0)
(2.72041 -0.415548 0)
(2.66467 -0.321206 0)
(2.6434 -0.270748 0)
(2.64476 -0.247228 0)
(2.64422 -0.198492 0)
(2.62783 -0.120477 0)
(2.58967 -0.0771067 0)
(2.55909 -0.0519075 0)
(2.53937 -0.0185799 0)
(2.52907 -0.00494267 0)
(2.51583 -0.00812564 0)
(2.52522 -0.0078194 0)
(2.55008 0.00275358 0)
(2.5531 0.00365467 0)
(2.54632 -0.00141179 0)
(2.52969 0.00126243 0)
(2.51985 -0.00858328 0)
(2.47457 -0.0657136 0)
(2.34692 -0.257417 0)
(1.9881 -0.568744 0)
(1.91072 -0.633728 0)
(1.95844 -0.683643 0)
(1.93703 -0.634932 0)
(1.7805 -0.419967 0)
(1.61471 -0.170497 0)
(1.53509 -0.0514758 0)
(1.51681 -0.0104866 0)
(1.54095 -0.0102435 0)
(1.57695 -0.0277722 0)
(1.59939 -0.0312125 0)
(1.61073 -0.0262733 0)
(1.62639 -0.0201969 0)
(1.64732 -0.0163843 0)
(1.67288 -0.00841474 0)
(1.69962 0.00128044 0)
(1.72159 0.00397329 0)
(1.74277 0.00707916 0)
(1.76348 0.0112352 0)
(1.78296 0.0139231 0)
(1.798 0.0159476 0)
(1.80619 0.019252 0)
(1.81553 0.0205503 0)
(1.83452 0.0191044 0)
(1.85558 0.0176191 0)
(1.87906 0.0159659 0)
(1.90199 0.0161709 0)
(1.92337 0.0167149 0)
(1.94302 0.0187081 0)
(1.95504 0.0253287 0)
(1.95808 0.0337509 0)
(1.96922 0.0337324 0)
(1.98859 0.0289778 0)
(2.00724 0.0224568 0)
(2.02502 0.0183193 0)
(2.04229 0.016875 0)
(2.0595 0.0187134 0)
(2.07622 0.0232023 0)
(2.09132 0.0298746 0)
(2.10428 0.0378648 0)
(2.11593 0.044958 0)
(2.12797 0.0488894 0)
(2.14111 0.0497272 0)
(2.15442 0.0487571 0)
(2.16643 0.046604 0)
(2.17634 0.0442475 0)
(2.18752 0.0442033 0)
(2.2019 0.0470525 0)
(2.21724 0.0493839 0)
(2.23218 0.0515381 0)
(2.24505 0.0543418 0)
(2.25665 0.0560686 0)
(2.26937 0.0549346 0)
(2.28289 0.0514702 0)
(2.29593 0.0464906 0)
(2.30879 0.0416325 0)
(2.3225 0.0397228 0)
(2.33592 0.0425589 0)
(2.34609 0.0518016 0)
(2.35179 0.0651739 0)
(2.36254 0.0670257 0)
(2.3849 0.0641135 0)
(1.56857 0.93409 0)
(1.80488 0.850152 0)
(1.99037 0.76645 0)
(2.17351 0.607449 0)
(2.31075 0.437022 0)
(2.4063 0.330338 0)
(2.52451 0.155103 0)
(2.58261 0.026354 0)
(2.60776 0.00675867 0)
(2.62158 -0.0554917 0)
(2.68028 -0.184861 0)
(2.70287 -0.29084 0)
(2.72074 -0.345044 0)
(2.75092 -0.381409 0)
(2.76751 -0.408655 0)
(2.74435 -0.399938 0)
(2.73013 -0.38418 0)
(2.7135 -0.379464 0)
(2.70433 -0.369241 0)
(2.69442 -0.324911 0)
(2.68058 -0.239114 0)
(2.65939 -0.18098 0)
(2.63592 -0.151572 0)
(2.60094 -0.110877 0)
(2.5783 -0.0656631 0)
(2.56522 -0.0414052 0)
(2.56135 -0.0343546 0)
(2.58177 -0.0283303 0)
(2.58136 -0.0166972 0)
(2.57049 -0.000406146 0)
(2.5587 -0.00832589 0)
(2.49471 -0.0817848 0)
(2.29192 -0.337419 0)
(2.10302 -0.499907 0)
(1.96159 -0.621283 0)
(1.94354 -0.66949 0)
(1.96695 -0.67117 0)
(1.99188 -0.661976 0)
(1.99054 -0.60866 0)
(1.91263 -0.45716 0)
(1.75725 -0.231192 0)
(1.62776 -0.0739395 0)
(1.59936 -0.0405597 0)
(1.61678 -0.0217777 0)
(1.64825 -0.00891481 0)
(1.66448 -0.0106681 0)
(1.68071 -0.0193636 0)
(1.70223 -0.0197563 0)
(1.72351 -0.0144339 0)
(1.74608 -0.00162105 0)
(1.76652 0.0121616 0)
(1.78517 0.0189795 0)
(1.80313 0.0211198 0)
(1.82119 0.0215381 0)
(1.83754 0.0215674 0)
(1.84959 0.0237654 0)
(1.85812 0.02826 0)
(1.87251 0.0291971 0)
(1.89192 0.0273163 0)
(1.91261 0.0243376 0)
(1.93319 0.0242379 0)
(1.95395 0.0252629 0)
(1.97398 0.0273072 0)
(1.9902 0.0314422 0)
(1.99748 0.0405822 0)
(1.99832 0.0494379 0)
(2.01056 0.0473017 0)
(2.02865 0.0410409 0)
(2.04626 0.0348643 0)
(2.06427 0.0331255 0)
(2.08304 0.0341805 0)
(2.10169 0.0386958 0)
(2.11895 0.0463478 0)
(2.13291 0.0553302 0)
(2.14189 0.0626463 0)
(2.14841 0.0642677 0)
(2.1574 0.060218 0)
(2.16878 0.05416 0)
(2.1806 0.0493078 0)
(2.19365 0.0486838 0)
(2.20915 0.0527622 0)
(2.22452 0.0587073 0)
(2.23878 0.0646888 0)
(2.25122 0.0695011 0)
(2.26113 0.0724508 0)
(2.26915 0.0727598 0)
(2.27846 0.0697053 0)
(2.29007 0.0644699 0)
(2.30322 0.0593619 0)
(2.31835 0.0561875 0)
(2.33507 0.0555916 0)
(2.35199 0.0568965 0)
(2.36711 0.0608038 0)
(2.37596 0.0721209 0)
(2.37665 0.0845133 0)
(2.3892 0.0821948 0)
(1.54028 0.89123 0)
(1.73379 0.836486 0)