/*--------------------------------*- C++ -*----------------------------------*\
  =========                 |
  \\      /  F ield         | OpenFOAM: The Open Source CFD Toolbox
   \\    /   O peration     | Website:  https://openfoam.org
    \\  /    A nd           | Version:  7
     \\/     M anipulation  |
\*---------------------------------------------------------------------------*/
FoamFile
{
    version     2.0;
    format      ascii;
    class       volScalarField;
    location    "2.4";
    object      p;
}
// * * * * * * * * * * * * * * * * * * * * * * * * * * * * * * * * * * * * * //

dimensions      [1 -1 -2 0 0 0 0];

internalField   nonuniform List<scalar> 
258048
(
1
1
1
1
1
1
1
1
1
1
1
1
1
1
1
1
1
1
1
1
1
1
1
1
1
1
1
1
1
1
1
1
1
1
1
1
1
1
1
1
1
1
1
1
1
1
1
1
1
1
1
1
1
1
1
1
1
1
1
1
1
1
1
1
1
1
1
1
1
1
1
1
1
1
1
1
1
1
1
1
1
1
1
1
1
1
1
1
1
1
1
1
1
1
1
1
1
1
1
3.31474
9.64907
10.4699
10.4639
10.4892
10.4978
10.5097
10.5244
10.5605
10.6216
10.6809
10.7319
10.766
10.7749
10.7663
10.7638
10.7907
10.8542
10.9228
10.9724
10.9944
10.9924
10.98
10.9806
11.0045
11.0536
11.1136
11.1657
11.1972
11.2061
11.2028
11.2032
11.2203
11.2571
11.306
11.3491
11.3726
11.3758
11.3686
11.3675
11.3864
11.4282
11.484
11.5332
11.5598
11.5639
11.5554
11.5504
11.5601
11.5875
11.626
11.6614
11.681
11.6853
11.6831
11.6848
11.696
11.7171
11.7448
11.774
11.8004
11.8221
11.8403
11.8561
11.8693
11.8772
11.8797
11.8804
11.8848
11.8984
11.9207
11.9457
11.9657
11.9766
11.9785
11.9755
11.9767
11.9866
12.0033
12.0206
12.0315
12.0341
12.0333
12.0347
12.0417
12.0533
12.0624
12.0649
12.0639
12.0619
12.0609
12.0618
12.0659
1
1
1
1
1
1
1
1
1
1
1
1
1
1
1
1
1
1
1
1
1
1
1
1
1
1
1
1
1
1
1
1
1
1
1
1
1
1
1
1
1
1
1
1
1
1
1
1
1
1
1
1
1
1
1
1
1
1
1
1
1
1
1
1
1
1
1
1
1
1
1
1
1
1
1
1
1
1
1
1
1
1
1
1
1
1
1
1
1
1
1
1
1
1
1
1
1
1
1
3.29277
9.64004
10.4602
10.4704
10.4954
10.5058
10.5187
10.5307
10.5577
10.6147
10.6727
10.7243
10.7612
10.7758
10.7732
10.7735
10.7956
10.8532
10.9188
10.9685
10.9916
10.9911
10.98
10.9811
11.0046
11.0528
11.1119
11.1633
11.1942
11.2029
11.2004
11.2028
11.2215
11.2591
11.3077
11.3489
11.3701
11.3724
11.366
11.3671
11.3878
11.4298
11.484
11.5305
11.5555
11.5596
11.5534
11.5513
11.563
11.5905
11.6274
11.6606
11.6792
11.6839
11.6828
11.6854
11.6971
11.7181
11.7457
11.7749
11.8013
11.823
11.8407
11.8556
11.8684
11.877
11.8807
11.8825
11.8874
11.9003
11.9212
11.9446
11.9643
11.9764
11.9797
11.9779
11.9788
11.9867
12.0016
12.0183
12.0301
12.034
12.0339
12.0354
12.0415
12.052
12.0607
12.0633
12.0629
12.0615
12.0609
12.0619
12.0664
1
1
1
1
1
1
1
1
1
1
1
1
1
1
1
1
1
1
1
1
1
1
1
1
1
1
1
1
1
1
1
1
1
1
1
1
1
1
1
1
1
1
1
1
1
1
1
1
1
1
1
1
1
1
1
1
1
1
1
1
1
1
1
1
1
1
1
1
1
1
1
1
1
1
1
1
1
1
1
1
1
1
1
1
1
1
1
1
1
1
1
1
1
1
1
1
1
1
1
3.24595
9.64041
10.4399
10.4654
10.4951
10.5108
10.5265
10.5377
10.561
10.6099
10.6638
10.7144
10.7536
10.7735
10.7791
10.7838
10.8026
10.8535
10.9148
10.9628
10.9867
10.9882
10.9798
10.9824
11.0054
11.0524
11.1099
11.1599
11.1895
11.1979
11.1966
11.2016
11.2224
11.2615
11.3097
11.3486
11.367
11.368
11.3624
11.3663
11.3896
11.4322
11.4845
11.5277
11.55
11.5534
11.5494
11.5509
11.5658
11.5943
11.6295
11.6596
11.676
11.6804
11.6808
11.6851
11.6974
11.7178
11.7442
11.7725
11.799
11.8213
11.8396
11.854
11.8652
11.8731
11.8776
11.8812
11.8879
11.9008
11.9201
11.9411
11.9593
11.972
11.9778
11.9785
11.9801
11.9863
11.9987
12.0137
12.026
12.0319
12.0335
12.0356
12.041
12.05
12.0577
12.0604
12.0608
12.0605
12.0604
12.0616
12.0663
1
1
1
1
1
1
1
1
1
1
1
1
1
1
1
1
1
1
1
1
1
1
1
1
1
1
1
1
1
1
1
1
1
1
1
1
1
1
1
1
1
1
1
1
1
1
1
1
1
1
1
1
1
1
1
1
1
1
1
1
1
1
1
1
1
1
1
1
1
1
1
1
1
1
1
1
1
1
1
1
1
1
1
1
1
1
1
1
1
1
1
1
1
1
1
1
1
1
1
3.1904
9.6194
10.4281
10.4639
10.4959
10.5141
10.531
10.5433
10.5641
10.6061
10.6555
10.7049
10.7464
10.7727
10.7858
10.7943
10.8104
10.8536
10.9093
10.9551
10.9796
10.9838
10.9799
10.9849
11.0077
11.0525
11.1072
11.1546
11.1823
11.1909
11.1919
11.2004
11.2239
11.264
11.3109
11.3469
11.3625
11.3626
11.3588
11.3661
11.3917
11.4344
11.4842
11.5234
11.5429
11.5464
11.5457
11.5522
11.5702
11.5986
11.6306
11.6569
11.6712
11.6763
11.6794
11.6865
11.6996
11.7185
11.7423
11.7688
11.7954
11.8195
11.8396
11.8546
11.8647
11.8706
11.8746
11.8801
11.889
11.903
11.9215
11.9401
11.9558
11.9677
11.9753
11.979
11.9817
11.9869
11.9968
12.0097
12.0216
12.029
12.0326
12.0355
12.0404
12.0479
12.0543
12.057
12.0582
12.059
12.0597
12.0613
12.0662
1
1
1
1
1
1
1
1
1
1
1
1
1
1
1
1
1
1
1
1
1
1
1
1
1
1
1
1
1
1
1
1
1
1
1
1
1
1
1
1
1
1
1
1
1
1
1
1
1
1
1
1
1
1
1
1
1
1
1
1
1
1
1
1
1
1
1
1
1
1
1
1
1
1
1
1
1
1
1
1
1
1
1
1
1
1
1
1
1
1
1
1
1
1
1
1
1
1
1
3.1232
9.57963
10.4213
10.4623
10.4961
10.5163
10.5342
10.5488
10.5687
10.6044
10.6491
10.6967
10.7401
10.7715
10.7905
10.8027
10.8184
10.8545
10.9036
10.9464
10.9711
10.9784
10.9803
10.9889
11.0119
11.0541
11.105
11.1485
11.174
11.1832
11.1873
11.1996
11.2254
11.2656
11.3104
11.3439
11.3579
11.3581
11.3565
11.3669
11.3936
11.4354
11.4824
11.5185
11.5358
11.5397
11.5425
11.5537
11.5743
11.602
11.6307
11.6528
11.6651
11.6714
11.678
11.6889
11.7036
11.7206
11.7401
11.7631
11.7892
11.816
11.8395
11.8566
11.8657
11.8685
11.87
11.8757
11.8871
11.9039
11.923
11.9398
11.9526
11.9623
11.9706
11.9772
11.9824
11.988
11.9958
12.0061
12.0165
12.0243
12.0297
12.034
12.039
12.0454
12.0506
12.053
12.0547
12.0565
12.0583
12.0604
12.0655
1
1
1
1
1
1
1
1
1
1
1
1
1
1
1
1
1
1
1
1
1
1
1
1
1
1
1
1
1
1
1
1
1
1
1
1
1
1
1
1
1
1
1
1
1
1
1
1
1
1
1
1
1
1
1
1
1
1
1
1
1
1
1
1
1
1
1
1
1
1
1
1
1
1
1
1
1
1
1
1
1
1
1
1
1
1
1
1
1
1
1
1
1
1
1
1
1
1
1
3.04132
9.52674
10.4177
10.4607
10.4964
10.5183
10.5347
10.5475
10.5667
10.6001
10.6431
10.6904
10.7355
10.7709
10.7944
10.8097
10.8254
10.8552
10.8967
10.9353
10.9602
10.9723
10.9811
10.9937
11.0173
11.0563
11.1024
11.1412
11.1648
11.1758
11.1838
11.1992
11.226
11.2649
11.307
11.3387
11.3531
11.3552
11.3561
11.3683
11.3948
11.4345
11.4787
11.5129
11.5294
11.5346
11.5407
11.5554
11.5776
11.604
11.6294
11.648
11.6582
11.6658
11.6763
11.6916
11.7082
11.7233
11.7382
11.7565
11.781
11.8105
11.8386
11.859
11.8679
11.8678
11.8658
11.8697
11.883
11.9032
11.9241
11.9402
11.9503
11.9569
11.9641
11.9731
11.9818
11.9892
11.996
12.0033
12.0114
12.0186
12.025
12.0309
12.037
12.0428
12.0469
12.0491
12.0509
12.0534
12.0562
12.0591
12.0641
1
1
1
1
1
1
1
1
1
1
1
1
1
1
1
1
1
1
1
1
1
1
1
1
1
1
1
1
1
1
1
1
1
1
1
1
1
1
1
1
1
1
1
1
1
1
1
1
1
1
1
1
1
1
1
1
1
1
1
1
1
1
1
1
1
1
1
1
1
1
1
1
1
1
1
1
1
1
1
1
1
1
1
1
1
1
1
1
1
1
1
1
1
1
1
1
1
1
1
2.94283
9.46087
10.4149
10.4576
10.4966
10.5218
10.5383
10.5486
10.5648
10.5958
10.6389
10.687
10.7336
10.7713
10.7967
10.8133
10.8285
10.8533
10.8884
10.9232
10.9487
10.9666
10.9822
10.999
11.0233
11.0589
11.0997
11.134
11.1564
11.17
11.1816
11.1984
11.2249
11.2616
11.301
11.3323
11.3492
11.3545
11.3576
11.3701
11.395
11.432
11.4737
11.507
11.5241
11.5313
11.5395
11.5562
11.5789
11.6042
11.6271
11.6432
11.6519
11.66
11.6739
11.6931
11.7115
11.7254
11.7366
11.7504
11.7721
11.8029
11.8357
11.8601
11.87
11.868
11.8628
11.864
11.8779
11.9012
11.9246
11.9406
11.9482
11.9515
11.9565
11.9669
11.9797
11.9898
11.9967
12.0014
12.0063
12.012
12.0188
12.0263
12.0341
12.04
12.0433
12.0452
12.0468
12.0496
12.0534
12.0572
12.0618
1
1
1
1
1
1
1
1
1
1
1
1
1
1
1
1
1
1
1
1
1
1
1
1
1
1
1
1
1
1
1
1
1
1
1
1
1
1
1
1
1
1
1
1
1
1
1
1
1
1
1
1
1
1
1
1
1
1
1
1
1
1
1
1
1
1
1
1
1
1
1
1
1
1
1
1
1
1
1
1
1
1
1
1
1
1
1
1
1
1
1
1
1
1
1
1
1
1
1
2.82737
9.38331
10.4145
10.4545
10.4944
10.5224
10.5409
10.5512
10.5644
10.5934
10.6362
10.6848
10.7321
10.7706
10.7969
10.8142
10.8289
10.8501
10.8805
10.9126
10.9391
10.9623
10.9834
11.0034
11.0274
11.0596
11.0959
11.1272
11.1506
11.1669
11.18
11.1967
11.2216
11.2554
11.2933
11.3261
11.3465
11.355
11.36
11.3717
11.3946
11.4285
11.468
11.5011
11.5196
11.5287
11.5379
11.5549
11.5776
11.6024
11.6242
11.6395
11.6479
11.6558
11.6706
11.6918
11.7118
11.7257
11.7351
11.7462
11.7652
11.7949
11.8295
11.8574
11.8696
11.8677
11.861
11.8605
11.8734
11.8979
11.9231
11.9394
11.9453
11.946
11.9491
11.96
11.9762
11.9894
11.9968
11.9995
12.0012
12.0055
12.0122
12.0213
12.0304
12.0362
12.0392
12.0407
12.0423
12.0454
12.0498
12.0543
12.0581
1
1
1
1
1
1
1
1
1
1
1
1
1
1
1
1
1
1
1
1
1
1
1
1
1
1
1
1
1
1
1
1
1
1
1
1
1
1
1
1
1
1
1
1
1
1
1
1
1
1
1
1
1
1
1
1
1
1
1
1
1
1
1
1
1
1
1
1
1
1
1
1
1
1
1
1
1
1
1
1
1
1
1
1
1
1
1
1
1
1
1
1
1
1
1
1
1
1
1
2.6989
9.29588
10.4124
10.4479
10.4881
10.5189
10.5412
10.5542
10.567
10.5932
10.6348
10.683
10.7298
10.768
10.7948
10.8123
10.8268
10.8461
10.8738
10.9044
10.9328
10.9602
10.9842
11.005
11.028
11.0577
11.0917
11.1229
11.1483
11.1663
11.1788
11.1935
11.2156
11.2472
11.2852
11.3204
11.3443
11.3555
11.362
11.3726
11.3936
11.4247
11.4626
11.4957
11.5157
11.5264
11.5355
11.5515
11.5734
11.5981
11.6206
11.6369
11.6464
11.6543
11.6675
11.6874
11.7081
11.7235
11.7339
11.7447
11.7618
11.7884
11.8209
11.8496
11.8647
11.8656
11.8603
11.8597
11.8713
11.894
11.9186
11.9349
11.9403
11.9403
11.9426
11.9536
11.9716
11.987
11.995
11.9961
11.9958
11.9993
12.0061
12.0165
12.0264
12.0317
12.0341
12.0353
12.0372
12.0409
12.0458
12.0507
12.0534
1
1
1
1
1
1
1
1
1
1
1
1
1
1
1
1
1
1
1
1
1
1
1
1
1
1
1
1
1
1
1
1
1
1
1
1
1
1
1
1
1
1
1
1
1
1
1
1
1
1
1
1
1
1
1
1
1
1
1
1
1
1
1
1
1
1
1
1
1
1
1
1
1
1
1
1
1
1
1
1
1
1
1
1
1
1
1
1
1
1
1
1
1
1
1
1
1
1
1
2.55777
9.19624
10.4105
10.4404
10.4791
10.5118
10.5386
10.5567
10.5721
10.5959
10.6342
10.6801
10.7251
10.7627
10.79
10.808
10.8226
10.8416
10.8688
10.9
10.931
10.9604
10.9838
11.0024
11.0236
11.0526
11.0876
11.1214
11.149
11.1671
11.1773
11.1885
11.2078
11.2384
11.2777
11.3156
11.3421
11.3552
11.3624
11.3722
11.3917
11.4209
11.4575
11.4909
11.5124
11.5244
11.533
11.5465
11.5665
11.5911
11.6156
11.6347
11.6466
11.655
11.6658
11.6819
11.701
11.7184
11.732
11.7446
11.7611
11.784
11.8115
11.8376
11.8549
11.8608
11.8603
11.8621
11.8722
11.8909
11.9119
11.9269
11.9329
11.9341
11.9376
11.949
11.9669
11.9822
11.99
11.9905
11.99
11.9938
12.0014
12.0127
12.0222
12.0259
12.0272
12.0285
12.0312
12.0359
12.0414
12.0465
12.048
1
1
1
1
1
1
1
1
1
1
1
1
1
1
1
1
1
1
1
1
1
1
1
1
1
1
1
1
1
1
1
1
1
1
1
1
1
1
1
1
1
1
1
1
1
1
1
1
1
1
1
1
1
1
1
1
1
1
1
1
1
1
1
1
1
1
1
1
1
1
1
1
1
1
1
1
1
1
1
1
1
1
1
1
1
1
1
1
1
1
1
1
1
1
1
1
1
1
1
2.40769
9.07692
10.4084
10.4345
10.4711
10.5052
10.5355
10.5579
10.5764
10.5985
10.6328
10.6753
10.7186
10.7566
10.7848
10.8029
10.8176
10.8368
10.8653
10.8991
10.933
10.9622
10.9824
10.9972
11.0161
11.0455
11.0833
11.1209
11.1508
11.1676
11.1744
11.1819
11.1991
11.2298
11.271
11.3111
11.3393
11.3536
11.3613
11.3703
11.3886
11.4164
11.4522
11.4861
11.5093
11.5229
11.5313
11.542
11.5585
11.5816
11.6078
11.6308
11.6465
11.6564
11.6654
11.6772
11.693
11.711
11.7283
11.7442
11.7611
11.7808
11.8025
11.8239
11.8419
11.8537
11.86
11.8658
11.8748
11.8883
11.9036
11.9159
11.9232
11.9276
11.934
11.9461
11.9622
11.9752
11.9816
11.9825
11.9834
11.9891
11.9984
12.0102
12.0182
12.0192
12.0187
12.02
12.0242
12.0303
12.0365
12.0415
12.0418
1
1
1
1
1
1
1
1
1
1
1
1
1
1
1
1
1
1
1
1
1
1
1
1
1
1
1
1
1
1
1
1
1
1
1
1
1
1
1
1
1
1
1
1
1
1
1
1
1
1
1
1
1
1
1
1
1
1
1
1
1
1
1
1
1
1
1
1
1
1
1
1
1
1
1
1
1
1
1
1
1
1
1
1
1
1
1
1
1
1
1
1
1
1
1
1
1
1
1
2.25177
8.93406
10.4071
10.4298
10.466
10.5007
10.5324
10.5568
10.5767
10.5983
10.6294
10.6696
10.7125
10.7512
10.7797
10.7974
10.8118
10.8319
10.8624
10.8995
10.936
10.9643
10.9807
10.9913
11.0079
11.0383
11.0798
11.1211
11.1517
11.1665
11.1702
11.1748
11.1908
11.2219
11.2645
11.3062
11.3359
11.3515
11.3594
11.3676
11.3843
11.4104
11.4453
11.48
11.5055
11.5215
11.5308
11.5393
11.5518
11.5715
11.5972
11.6233
11.6436
11.6568
11.6658
11.675
11.6872
11.7034
11.7222
11.7408
11.7588
11.7767
11.7942
11.8114
11.8285
11.8449
11.8583
11.8681
11.8767
11.8852
11.8946
11.904
11.9125
11.921
11.9313
11.9441
11.9572
11.9664
11.9705
11.9723
11.9764
11.9853
11.9972
12.0088
12.0141
12.0114
12.0085
12.0099
12.0158
12.0239
12.0312
12.0358
12.0352
1
1
1
1
1
1
1
1
1
1
1
1
1
1
1
1
1
1
1
1
1
1
1
1
1
1
1
1
1
1
1
1
1
1
1
1
1
1
1
1
1
1
1
1
1
1
1
1
1
1
1
1
1
1
1
1
1
1
1
1
1
1
1
1
1
1
1
1
1
1
1
1
1
1
1
1
1
1
1
1
1
1
1
1
1
1
1
1
1
1
1
1
1
1
1
1
1
1
1
2.09005
8.76794
10.4079
10.4268
10.4627
10.4971
10.5283
10.5528
10.5728
10.5949
10.6256
10.6654
10.7089
10.7478
10.7755
10.7924
10.8067
10.8279
10.8605
10.9002
10.9376
10.9637
10.9765
10.9848
11.0008
11.0321
11.0758
11.1189
11.1495
11.163
11.1653
11.1687
11.1837
11.2146
11.2576
11.3
11.3312
11.3487
11.3576
11.3651
11.3797
11.4032
11.4362
11.4716
11.5002
11.5198
11.5313
11.5391
11.5481
11.5632
11.5854
11.6118
11.636
11.6539
11.6656
11.6748
11.6849
11.698
11.7147
11.7336
11.7525
11.7704
11.7865
11.8017
11.8178
11.8361
11.8537
11.8668
11.8754
11.8807
11.8858
11.8929
11.9024
11.9145
11.9282
11.9413
11.9511
11.9559
11.9579
11.9608
11.9689
11.9819
11.9967
12.0076
12.0094
12.0029
11.9973
11.9985
12.0063
12.0166
12.0253
12.0295
12.0283
1
1
1
1
1
1
1
1
1
1
1
1
1
1
1
1
1
1
1
1
1
1
1
1
1
1
1
1
1
1
1
1
1
1
1
1
1
1
1
1
1
1
1
1
1
1
1
1
1
1
1
1
1
1
1
1
1
1
1
1
1
1
1
1
1
1
1
1
1
1
1
1
1
1
1
1
1
1
1
1
1
1
1
1
1
1
1
1
1
1
1
1
1
1
1
1
1
1
1
1.92583
8.57993
10.409
10.4241
10.4592
10.492
10.5221
10.5465
10.5676
10.5911
10.6225
10.6629
10.707
10.7453
10.7714
10.788
10.8036
10.8261
10.8593
10.899
10.9353
10.9593
10.9709
10.9798
10.9969
11.0284
11.0715
11.1141
11.1441
11.1576
11.1607
11.1644
11.1786
11.208
11.2494
11.2915
11.3243
11.3446
11.3556
11.3632
11.3758
11.3961
11.4259
11.4608
11.4921
11.5162
11.5312
11.5399
11.5468
11.5578
11.5752
11.5987
11.6241
11.6468
11.6639
11.6758
11.6856
11.6955
11.7079
11.7235
11.7417
11.7607
11.7786
11.7947
11.8108
11.8286
11.8464
11.8604
11.8694
11.8739
11.8776
11.8841
11.8943
11.9083
11.9238
11.9362
11.9428
11.9445
11.945
11.9494
11.961
11.9786
11.996
12.0056
12.0038
11.994
11.9858
11.9865
11.9959
12.0085
12.0185
12.0224
12.0209
1
1
1
1
1
1
1
1
1
1
1
1
1
1
1
1
1
1
1
1
1
1
1
1
1
1
1
1
1
1
1
1
1
1
1
1
1
1
1
1
1
1
1
1
1
1
1
1
1
1
1
1
1
1
1
1
1
1
1
1
1
1
1
1
1
1
1
1
1
1
1
1
1
1
1
1
1
1
1
1
1
1
1
1
1
1
1
1
1
1
1
1
1
1
1
1
1
1
1
1.76315
8.36367
10.409
10.4211
10.4539
10.4849
10.5149
10.5411
10.5647
10.5898
10.6209
10.6599
10.7022
10.7391
10.7657
10.7846
10.8025
10.8259
10.8576
10.8944
10.9281
10.951
10.9642
10.9762
10.9955
11.0266
11.0674
11.1077
11.1367
11.1511
11.1564
11.1618
11.1754
11.2021
11.2402
11.2807
11.3144
11.3376
11.352
11.361
11.3724
11.3905
11.4168
11.4496
11.4818
11.5094
11.5288
11.5403
11.5468
11.5548
11.5678
11.5866
11.6101
11.6354
11.6585
11.676
11.6873
11.6949
11.7022
11.7123
11.7277
11.7479
11.7696
11.7894
11.8067
11.8231
11.8379
11.8499
11.8586
11.8645
11.87
11.8779
11.8888
11.903
11.9175
11.9279
11.9324
11.9327
11.9332
11.9389
11.9536
11.9748
11.9936
12.0017
11.997
11.9848
11.9744
11.9744
11.9849
11.9994
12.0106
12.0141
12.0127
1
1
1
1
1
1
1
1
1
1
1
1
1
1
1
1
1
1
1
1
1
1
1
1
1
1
1
1
1
1
1
1
1
1
1
1
1
1
1
1
1
1
1
1
1
1
1
1
1
1
1
1
1
1
1
1
1
1
1
1
1
1
1
1
1
1
1
1
1
1
1
1
1
1
1
1
1
1
1
1
1
1
1
1
1
1
1
1
1
1
1
1
1
1
1
1
1
1
1
1.6093
8.1154
10.4054
10.4172
10.4486
10.4789
10.51
10.5389
10.5652
10.5914
10.6207
10.6559
10.6949
10.7307
10.7591
10.7817
10.8025
10.8262
10.8555
10.8882
10.9185
10.9411
10.9571
10.9736
10.9957
11.0261
11.0637
11.1005
11.1278
11.1433
11.1518
11.1599
11.1737
11.1979
11.2319
11.2693
11.3021
11.3271
11.345
11.3567
11.3691
11.3865
11.4106
11.4405
11.4707
11.4988
11.5215
11.5369
11.5451
11.5522
11.5623
11.5775
11.598
11.6231
11.6497
11.6725
11.6873
11.6944
11.6975
11.7021
11.7136
11.7337
11.759
11.7835
11.8033
11.8182
11.8287
11.8367
11.8446
11.8532
11.863
11.8739
11.8853
11.898
11.9091
11.9163
11.9197
11.9205
11.9226
11.9302
11.9474
11.9702
11.9887
11.9953
11.9889
11.9751
11.9632
11.9627
11.974
11.9896
12.0016
12.0047
12.0037
1
1
1
1
1
1
1
1
1
1
1
1
1
1
1
1
1
1
1
1
1
1
1
1
1
1
1
1
1
1
1
1
1
1
1
1
1
1
1
1
1
1
1
1
1
1
1
1
1
1
1
1
1
1
1
1
1
1
1
1
1
1
1
1
1
1
1
1
1
1
1
1
1
1
1
1
1
1
1
1
1
1
1
1
1
1
1
1
1
1
1
1
1
1
1
1
1
1
1
1.46293
7.83132
10.3994
10.4143
10.4441
10.4744
10.5073
10.5388
10.5669
10.5929
10.6198
10.6509
10.6863
10.7216
10.7526
10.7786
10.8019
10.8256
10.8521
10.8806
10.9079
10.9308
10.9499
10.9704
10.9948
11.0245
11.0589
11.0923
11.1181
11.135
11.1473
11.1589
11.174
11.1967
11.2267
11.2596
11.2894
11.3132
11.3334
11.3491
11.3645
11.3833
11.4067
11.4342
11.4617
11.4878
11.5106
11.5286
11.5401
11.5486
11.5582
11.5718
11.5899
11.6128
11.6388
11.6637
11.6822
11.6909
11.6928
11.6943
11.702
11.7202
11.7468
11.7752
11.7981
11.8127
11.8196
11.8236
11.8298
11.8409
11.8556
11.8703
11.8826
11.892
11.8985
11.9024
11.9051
11.908
11.9131
11.9235
11.9423
11.9645
11.981
11.9862
11.9793
11.965
11.9525
11.9518
11.9631
11.979
11.9912
11.9941
11.9941
1
1
1
1
1
1
1
1
1
1
1
1
1
1
1
1
1
1
1
1
1
1
1
1
1
1
1
1
1
1
1
1
1
1
1
1
1
1
1
1
1
1
1
1
1
1
1
1
1
1
1
1
1
1
1
1
1
1
1
1
1
1
1
1
1
1
1
1
1
1
1
1
1
1
1
1
1
1
1
1
1
1
1
1
1
1
1
1
1
1
1
1
1
1
1
1
1
1
1
1.32554
7.51585
10.3913
10.4067
10.4368
10.4693
10.5043
10.5378
10.5667
10.5919
10.6164
10.6447
10.6781
10.7131
10.7455
10.7739
10.7988
10.8224
10.847
10.8729
10.899
10.9229
10.9448
10.9683
10.9941
11.023
11.0545
11.0849
11.109
11.1263
11.1413
11.156
11.1727
11.1944
11.2211
11.2499
11.2764
11.2985
11.3198
11.3393
11.359
11.3807
11.4047
11.4308
11.4558
11.4786
11.4982
11.5151
11.5288
11.5407
11.5532
11.5678
11.5853
11.6059
11.6287
11.6519
11.6715
11.6834
11.6876
11.6887
11.694
11.7093
11.7341
11.7633
11.7888
11.8045
11.8103
11.8118
11.8165
11.8289
11.8472
11.8654
11.8785
11.885
11.8865
11.887
11.8897
11.8957
11.9047
11.9185
11.9376
11.9573
11.9708
11.9747
11.968
11.9542
11.9423
11.9415
11.9523
11.9675
11.9795
11.9826
11.984
1
1
1
1
1
1
1
1
1
1
1
1
1
1
1
1
1
1
1
1
1
1
1
1
1
1
1
1
1
1
1
1
1
1
1
1
1
1
1
1
1
1
1
1
1
1
1
1
1
1
1
1
1
1
1
1
1
1
1
1
1
1
1
1
1
1
1
1
1
1
1
1
1
1
1
1
1
1
1
1
1
1
1
1
1
1
1
1
1
1
1
1
1
1
1
1
1
1
1
1.18779
7.17936
10.3919
10.4035
10.4309
10.4649
10.5009
10.5353
10.5645
10.5897
10.6139
10.6414
10.6738
10.7084
10.7407
10.7693
10.7942
10.8172
10.8405
10.8651
10.8903
10.9146
10.9378
10.9627
10.9895
11.0177
11.0471
11.0753
11.0985
11.1172
11.1354
11.1533
11.1715
11.1923
11.2162
11.2413
11.2652
11.2863
11.3077
11.3291
11.3513
11.3754
11.401
11.4272
11.451
11.4713
11.4873
11.5006
11.5138
11.5286
11.5457
11.5642
11.5832
11.6021
11.6203
11.6385
11.6563
11.6715
11.6805
11.6837
11.6887
11.7011
11.7219
11.7488
11.775
11.7931
11.8005
11.8022
11.8062
11.8184
11.8381
11.8585
11.872
11.8761
11.8739
11.8715
11.8739
11.883
11.8967
11.9139
11.9323
11.9484
11.9584
11.9608
11.9549
11.9429
11.9325
11.9317
11.9413
11.9552
11.9666
11.9705
11.9737
1
1
1
1
1
1
1
1
1
1
1
1
1
1
1
1
1
1
1
1
1
1
1
1
1
1
1
1
1
1
1
1
1
1
1
1
1
1
1
1
1
1
1
1
1
1
1
1
1
1
1
1
1
1
1
1
1
1
1
1
1
1
1
1
1
1
1
1
1
1
1
1
1
1
1
1
1
1
1
1
1
1
1
1
1
1
1
1
1
1
1
1
1
1
1
1
1
1
1
1.04111
6.81134
10.3835
10.3992
10.4232
10.4576
10.4927
10.5262
10.5554
10.5813
10.6072
10.6363
10.6697
10.7042
10.7357
10.7627
10.7865
10.8093
10.833
10.8577
10.8831
10.9081
10.9322
10.9584
10.9856
11.0127
11.0398
11.0662
11.0892
11.1099
11.1308
11.1501
11.1677
11.1868
11.2082
11.2308
11.2541
11.2763
11.2986
11.3204
11.3428
11.3672
11.3938
11.4215
11.446
11.4657
11.4793
11.4887
11.4986
11.5131
11.5338
11.5576
11.5801
11.5989
11.6136
11.6262
11.6404
11.6566
11.6701
11.6781
11.6845
11.6943
11.7105
11.733
11.758
11.7787
11.7902
11.7947
11.7992
11.81
11.8284
11.8487
11.8618
11.8645
11.8604
11.8562
11.8585
11.8703
11.8886
11.9088
11.926
11.9382
11.9446
11.9455
11.9407
11.9314
11.9231
11.922
11.9296
11.9417
11.9525
11.9578
11.9633
1
1
1
1
1
1
1
1
1
1
1
1
1
1
1
1
1
1
1
1
1
1
1
1
1
1
1
1
1
1
1
1
1
1
1
1
1
1
1
1
1
1
1
1
1
1
1
1
1
1
1
1
1
1
1
1
1
1
1
1
1
1
1
1
1
1
1
1
1
1
1
1
1
1
1
1
1
1
1
1
1
1
1
1
1
1
1
1
1
1
1
1
1
1
1
1
1
1
1
1.00099
6.36985
10.3411
10.3876
10.4136
10.4484
10.4836
10.5173
10.5475
10.575
10.6022
10.6323
10.6661
10.7001
10.7303
10.7559
10.7789
10.8018
10.8254
10.8499
10.8755
10.901
10.9258
10.9526
10.9794
11.005
11.0305
11.0564
11.0807
11.1042
11.1273
11.1467
11.1623
11.1782
11.1968
11.2182
11.2433
11.2691
11.2937
11.3155
11.3357
11.3573
11.3821
11.4105
11.4373
11.4587
11.4725
11.4801
11.4868
11.4986
11.5191
11.546
11.5726
11.5935
11.6072
11.6163
11.6265
11.6408
11.6568
11.6699
11.679
11.6877
11.7005
11.7178
11.74
11.7623
11.7788
11.788
11.7939
11.8027
11.8179
11.8358
11.8481
11.8508
11.8464
11.8416
11.844
11.858
11.88
11.9025
11.9185
11.927
11.9297
11.9291
11.9256
11.9196
11.9136
11.9119
11.9169
11.9268
11.9375
11.9449
11.953
1
1
1
1
1
1
1
1
1
1
1
1
1
1
1
1
1
1
1
1
1
1
1
1
1
1
1
1
1
1
1
1
1
1
1
1
1
1
1
1
1
1
1
1
1
1
1
1
1
1
1
1
1
1
1
1
1
1
1
1
1
1
1
1
1
1
1
1
1
1
1
1
1
1
1
1
1
1
1
1
1
1
1
1
1
1
1
1
1
1
1
1
1
1
1
1
1
1
1
1
5.87645
10.2953
10.3699
10.4002
10.4354
10.4715
10.5067
10.5393
10.5689
10.5972
10.6276
10.6612
10.6947
10.724
10.749
10.7718
10.7945
10.8174
10.8414
10.8673
10.8935
10.9192
10.946
10.9718
10.9958
11.0202
11.0468
11.0737
11.1006
11.1255
11.1439
11.1562
11.1675
11.1825
11.2034
11.2319
11.2624
11.29
11.3119
11.3296
11.3473
11.3684
11.3954
11.424
11.4488
11.4657
11.4745
11.4796
11.4879
11.5045
11.5299
11.5588
11.5835
11.5998
11.6089
11.6163
11.6273
11.6422
11.6579
11.6697
11.6794
11.6907
11.7041
11.7228
11.7454
11.7662
11.7805
11.7886
11.7957
11.8068
11.821
11.8322
11.8358
11.8323
11.8279
11.8305
11.8458
11.8702
11.8939
11.9089
11.9143
11.914
11.9122
11.9102
11.9075
11.9036
11.9008
11.9027
11.9103
11.9215
11.9321
11.9434
1
1
1
1
1
1
1
1
1
1
1
1
1
1
1
1
1
1
1
1
1
1
1
1
1
1
1
1
1
1
1
1
1
1
1
1
1
1
1
1
1
1
1
1
1
1
1
1
1
1
1
1
1
1
1
1
1
1
1
1
1
1
1
1
1
1
1
1
1
1
1
1
1
1
1
1
1
1
1
1
1
1
1
1
1
1
1
1
1
1
1
1
1
1
1
1
1
1
1
1
5.36865
10.2387
10.3544
10.3844
10.423
10.4606
10.4978
10.5323
10.5634
10.5919
10.6215
10.6546
10.6877
10.7171
10.7425
10.7653
10.7875
10.8097
10.8333
10.8594
10.8863
10.9127
10.9387
10.9632
10.9861
11.0103
11.038
11.0674
11.0967
11.1222
11.1393
11.1488
11.1568
11.1692
11.1896
11.2203
11.2541
11.2848
11.3078
11.3242
11.3388
11.3555
11.3785
11.4066
11.4345
11.4567
11.4701
11.4765
11.4822
11.4932
11.5127
11.5396
11.5673
11.5889
11.6016
11.6088
11.6164
11.6279
11.6426
11.6567
11.669
11.6807
11.6923
11.7081
11.7296
11.7528
11.7711
11.7817
11.7879
11.7951
11.8051
11.8149
11.8196
11.8178
11.8145
11.8176
11.8335
11.8589
11.8829
11.8967
11.9002
11.8979
11.8956
11.8952
11.8951
11.8928
11.8886
11.887
11.8926
11.905
11.9195
11.9341
1
1
1
1
1
1
1
1
1
1
1
1
1
1
1
1
1
1
1
1
1
1
1
1
1
1
1
1
1
1
1
1
1
1
1
1
1
1
1
1
1
1
1
1
1
1
1
1
1
1
1
1
1
1
1
1
1
1
1
1
1
1
1
1
1
1
1
1
1
1
1
1
1
1
1
1
1
1
1
1
1
1
1
1
1
1
1
1
1
1
1
1
1
1
1
1
1
1
1
1
4.86116
10.156
10.3415
10.3688
10.4101
10.449
10.4884
10.5251
10.558
10.5868
10.6152
10.6472
10.68
10.7097
10.7356
10.7587
10.7809
10.8026
10.8259
10.8519
10.879
10.9051
10.93
10.9539
10.9773
11.0018
11.03
11.0603
11.09
11.1148
11.1309
11.14
11.1476
11.1595
11.1794
11.2095
11.2431
11.2752
11.3005
11.318
11.3318
11.3456
11.3641
11.3887
11.4168
11.4438
11.4639
11.4746
11.4791
11.4847
11.4966
11.5183
11.5469
11.5743
11.5932
11.6025
11.6077
11.6146
11.6261
11.6408
11.6561
11.67
11.6818
11.6959
11.7155
11.7388
11.7592
11.7719
11.7779
11.7824
11.7891
11.7973
11.8027
11.803
11.8015
11.8054
11.8211
11.8459
11.8693
11.8822
11.8848
11.8821
11.8799
11.8805
11.8821
11.8805
11.8747
11.87
11.8739
11.888
11.9068
11.9245
1
1
1
1
1
1
1
1
1
1
1
1
1
1
1
1
1
1
1
1
1
1
1
1
1
1
1
1
1
1
1
1
1
1
1
1
1
1
1
1
1
1
1
1
1
1
1
1
1
1
1
1
1
1
1
1
1
1
1
1
1
1
1
1
1
1
1
1
1
1
1
1
1
1
1
1
1
1
1
1
1
1
1
1
1
1
1
1
1
1
1
1
1
1
1
1
1
1
1
1
4.36252
10.0333
10.3309
10.3559
10.3987
10.4375
10.4785
10.517
10.5516
10.5806
10.6077
10.6385
10.6712
10.7011
10.7273
10.7507
10.7731
10.7949
10.8181
10.8438
10.8704
10.8957
10.9196
10.9445
10.9698
10.9954
11.0229
11.0517
11.0791
11.1021
11.1186
11.1301
11.1407
11.1546
11.1746
11.2018
11.2314
11.2613
11.2883
11.3089
11.3247
11.3381
11.3533
11.3734
11.3987
11.4275
11.4534
11.4699
11.4756
11.4772
11.4828
11.4989
11.5262
11.5576
11.5826
11.5954
11.5994
11.6022
11.6095
11.6234
11.6411
11.6581
11.672
11.6855
11.703
11.7245
11.745
11.7589
11.7653
11.7686
11.773
11.7797
11.7856
11.7879
11.7886
11.7935
11.8082
11.8309
11.8527
11.8654
11.8683
11.8668
11.8653
11.8659
11.8678
11.8659
11.8588
11.8521
11.8553
11.8712
11.8938
11.9137
1
1
1
1
1
1
1
1
1
1
1
1
1
1
1
1
1
1
1
1
1
1
1
1
1
1
1
1
1
1
1
1
1
1
1
1
1
1
1
1
1
1
1
1
1
1
1
1
1
1
1
1
1
1
1
1
1
1
1
1
1
1
1
1
1
1
1
1
1
1
1
1
1
1
1
1
1
1
1
1
1
1
1
1
1
1
1
1
1
1
1
1
1
1
1
1
1
1
1
1
3.87005
9.8651
10.3221
10.3481
10.3898
10.4273
10.4692
10.5094
10.545
10.5737
10.5998
10.6297
10.6615
10.6919
10.7185
10.7424
10.7652
10.7869
10.8099
10.8348
10.8605
10.8849
10.9093
10.9365
10.9646
10.9916
11.0177
11.0426
11.0647
11.0839
11.1013
11.1177
11.1342
11.1519
11.1725
11.1963
11.2209
11.2462
11.2726
11.2961
11.3156
11.3307
11.3449
11.362
11.3841
11.4117
11.4395
11.46
11.4682
11.4685
11.4704
11.4823
11.5075
11.5403
11.5692
11.5857
11.5903
11.5907
11.5946
11.6064
11.625
11.6448
11.6614
11.6756
11.6913
11.71
11.7287
11.7428
11.7503
11.7538
11.7572
11.7626
11.7686
11.7727
11.7756
11.7814
11.7945
11.8138
11.8336
11.8468
11.8515
11.8525
11.852
11.8511
11.8517
11.8487
11.8408
11.8337
11.8375
11.8552
11.8801
11.9006
1
1
1
1
1
1
1
1
1
1
1
1
1
1
1
1
1
1
1
1
1
1
1
1
1
1
1
1
1
1
1
1
1
1
1
1
1
1
1
1
1
1
1
1
1
1
1
1
1
1
1
1
1
1
1
1
1
1
1
1
1
1
1
1
1
1
1
1
1
1
1
1
1
1
1
1
1
1
1
1
1
1
1
1
1
1
1
1
1
1
1
1
1
1
1
1
1
1
1
1
3.37092
9.65101
10.326
10.3495
10.3847
10.4199
10.4605
10.5012
10.536
10.5627
10.5896
10.6211
10.6535
10.6841
10.7108
10.7338
10.7559
10.777
10.7996
10.8243
10.8495
10.874
10.9
10.9299
10.9602
10.9878
11.0121
11.0328
11.0497
11.0653
11.0832
11.1037
11.1262
11.1487
11.1702
11.1916
11.2125
11.2332
11.2566
11.2803
11.3024
11.3206
11.3362
11.353
11.3732
11.3981
11.4238
11.4447
11.4551
11.457
11.4589
11.4693
11.4924
11.524
11.5537
11.5726
11.5792
11.5797
11.5816
11.5909
11.6088
11.63
11.6491
11.6646
11.6792
11.6949
11.7111
11.7246
11.7333
11.738
11.7414
11.746
11.7518
11.7573
11.7621
11.7684
11.7792
11.7948
11.8124
11.8268
11.8347
11.8392
11.8394
11.8358
11.8332
11.8285
11.8208
11.8153
11.8211
11.8401
11.8655
11.8846
1
1
1
1
1
1
1
1
1
1
1
1
1
1
1
1
1
1
1
1
1
1
1
1
1
1
1
1
1
1
1
1
1
1
1
1
1
1
1
1
1
1
1
1
1
1
1
1
1
1
1
1
1
1
1
1
1
1
1
1
1
1
1
1
1
1
1
1
1
1
1
1
1
1
1
1
1
1
1
1
1
1
1
1
1
1
1
1
1
1
1
1
1
1
1
1
1
1
1
1
2.8719
9.37215
10.3421
10.3578
10.3884
10.4196
10.4568
10.4956
10.5262
10.5524
10.5794
10.6118
10.6461
10.678
10.7042
10.7261
10.7464
10.7661
10.7889
10.8142
10.8398
10.865
10.8919
10.9226
10.9533
10.9808
11.0042
11.0228
11.0373
11.0514
11.069
11.0898
11.1139
11.1397
11.1632
11.1848
11.205
11.2237
11.2436
11.2644
11.2859
11.3062
11.3253
11.3446
11.3651
11.3873
11.4083
11.4259
11.4369
11.4423
11.4476
11.4593
11.4807
11.5092
11.5367
11.5564
11.5658
11.5683
11.57
11.5773
11.5932
11.6141
11.6347
11.6515
11.6656
11.6789
11.6925
11.7053
11.7151
11.7215
11.7256
11.73
11.7354
11.7415
11.7478
11.7539
11.7619
11.774
11.79
11.8063
11.8184
11.8265
11.8268
11.8195
11.8125
11.8055
11.799
11.7973
11.8063
11.826
11.8496
11.8652
1
1
1
1
1
1
1
1
1
1
1
1
1
1
1
1
1
1
1
1
1
1
1
1
1
1
1
1
1
1
1
1
1
1
1
1
1
1
1
1
1
1
1
1
1
1
1
1
1
1
1
1
1
1
1
1
1
1
1
1
1
1
1
1
1
1
1
1
1
1
1
1
1
1
1
1
1
1
1
1
1
1
1
1
1
1
1
1
1
1
1
1
1
1
1
1
1
1
1
1
2.39968
9.03412
10.3574
10.3595
10.3893
10.4192
10.4545
10.4886
10.5145
10.5389
10.5671
10.6015
10.6381
10.672
10.6979
10.7187
10.7366
10.7551
10.7779
10.8044
10.8313
10.8579
10.8852
10.9145
10.9427
10.9687
10.9921
11.0117
11.0277
11.0437
11.0615
11.0797
11.0994
11.124
11.1491
11.174
11.1975
11.2174
11.2346
11.2505
11.2677
11.2876
11.3105
11.3345
11.3574
11.378
11.3939
11.4062
11.416
11.425
11.4357
11.4505
11.4711
11.4957
11.5194
11.5381
11.5499
11.5556
11.5587
11.5648
11.5784
11.5977
11.6182
11.6359
11.65
11.6617
11.6733
11.6855
11.6963
11.7046
11.7099
11.7143
11.7193
11.7253
11.7318
11.7372
11.7424
11.7516
11.767
11.786
11.8028
11.814
11.8133
11.8018
11.7896
11.7801
11.7761
11.78
11.7928
11.8122
11.8319
11.8426
1
1
1
1
1
1
1
1
1
1
1
1
1
1
1
1
1
1
1
1
1
1
1
1
1
1
1
1
1
1
1
1
1
1
1
1
1
1
1
1
1
1
1
1
1
1
1
1
1
1
1
1
1
1
1
1
1
1
1
1
1
1
1
1
1
1
1
1
1
1
1
1
1
1
1
1
1
1
1
1
1
1
1
1
1
1
1
1
1
1
1
1
1
1
1
1
1
1
1
1
1.97332
8.6259
10.3806
10.3655
10.3941
10.4212
10.4547
10.4839
10.5041
10.5247
10.5528
10.5888
10.6282
10.6641
10.6909
10.7111
10.7268
10.7435
10.7665
10.7948
10.8244
10.8533
10.8808
10.9067
10.9292
10.951
10.9747
10.9982
11.0195
11.0399
11.0589
11.0742
11.0868
11.105
11.129
11.1581
11.1881
11.2123
11.2289
11.2401
11.251
11.2674
11.2916
11.3204
11.3475
11.3683
11.3808
11.3884
11.3956
11.4066
11.4222
11.4408
11.4612
11.4827
11.5026
11.5194
11.5326
11.5413
11.5465
11.5523
11.5638
11.5808
11.6001
11.618
11.6323
11.6434
11.6538
11.6656
11.6772
11.6872
11.6941
11.699
11.7033
11.7083
11.7138
11.7176
11.7208
11.7286
11.7443
11.7662
11.7875
11.8007
11.7981
11.7823
11.7648
11.7536
11.7531
11.7632
11.7797
11.7979
11.812
11.8175
1
1
1
1
1
1
1
1
1
1
1
1
1
1
1
1
1
1
1
1
1
1
1
1
1
1
1
1
1
1
1
1
1
1
1
1
1
1
1
1
1
1
1
1
1
1
1
1
1
1
1
1
1
1
1
1
1
1
1
1
1
1
1
1
1
1
1
1
1
1
1
1
1
1
1
1
1
1
1
1
1
1
1
1
1
1
1
1
1
1
1
1
1
1
1
1
1
1
1
1
1.62128
8.14374
10.3915
10.3646
10.3911
10.4161
10.4465
10.4715
10.4904
10.5109
10.5384
10.5743
10.6149
10.6523
10.6809
10.7019
10.7164
10.7317
10.7542
10.7838
10.8165
10.8483
10.877
10.9005
10.9177
10.9326
10.9534
10.9804
11.0089
11.0359
11.0576
11.071
11.078
11.0879
11.1071
11.1377
11.174
11.2046
11.2236
11.2323
11.2376
11.2487
11.2709
11.302
11.3331
11.3563
11.3683
11.3733
11.3781
11.389
11.4072
11.4285
11.4495
11.4693
11.4866
11.5014
11.5147
11.5255
11.5327
11.5386
11.5483
11.5631
11.5807
11.5982
11.613
11.6243
11.6342
11.6457
11.6579
11.6695
11.6782
11.684
11.6873
11.6902
11.6934
11.6951
11.6973
11.7053
11.7223
11.7471
11.7715
11.7853
11.7806
11.7608
11.7393
11.7273
11.7306
11.7461
11.7656
11.7823
11.7901
11.7911
1
1
1
1
1
1
1
1
1
1
1
1
1
1
1
1
1
1
1
1
1
1
1
1
1
1
1
1
1
1
1
1
1
1
1
1
1
1
1
1
1
1
1
1
1
1
1
1
1
1
1
1
1
1
1
1
1
1
1
1
1
1
1
1
1
1
1
1
1
1
1
1
1
1
1
1
1
1
1
1
1
1
1
1
1
1
1
1
1
1
1
1
1
1
1
1
1
1
1
1
1.33742
7.60328
10.3812
10.362
10.3849
10.4127
10.4415
10.4636
10.4811
10.5009
10.5272
10.5612
10.6
10.6366
10.6663
10.6887
10.7047
10.7201
10.7413
10.7707
10.8053
10.8403
10.8712
10.8947
10.9095
10.9194
10.9342
10.9595
10.9918
11.025
11.0516
11.0665
11.0717
11.0759
11.0893
11.1171
11.1555