/*--------------------------------*- C++ -*----------------------------------*\
  =========                 |
  \\      /  F ield         | OpenFOAM: The Open Source CFD Toolbox
   \\    /   O peration     | Website:  https://openfoam.org
    \\  /    A nd           | Version:  7
     \\/     M anipulation  |
\*---------------------------------------------------------------------------*/
FoamFile
{
    version     2.0;
    format      ascii;
    class       volScalarField;
    location    "2.4";
    object      rho;
}
// * * * * * * * * * * * * * * * * * * * * * * * * * * * * * * * * * * * * * //

dimensions      [1 -3 0 0 0 0 0];

internalField   nonuniform List<scalar> 
258048
(
1.40001
1.40001
1.40001
1.40001
1.40001
1.40001
1.40001
1.40001
1.40001
1.40001
1.40001
1.40001
1.40001
1.40001
1.40001
1.40001
1.40001
1.40001
1.40001
1.40001
1.40001
1.40001
1.40001
1.40001
1.40001
1.40001
1.40001
1.40001
1.40001
1.40001
1.40001
1.40001
1.40001
1.40001
1.40001
1.40001
1.40001
1.40001
1.40001
1.40001
1.40001
1.40001
1.40001
1.40001
1.40001
1.40001
1.40001
1.40001
1.40001
1.40001
1.40001
1.40001
1.40001
1.40001
1.40001
1.40001
1.40001
1.40001
1.40001
1.40001
1.40001
1.40001
1.40001
1.40001
1.40001
1.40001
1.40001
1.40001
1.40001
1.40001
1.40001
1.40001
1.40001
1.40001
1.40001
1.40001
1.40001
1.40001
1.40001
1.40001
1.40001
1.40001
1.40001
1.40001
1.40001
1.40001
1.40001
1.40001
1.40001
1.40001
1.40001
1.40001
1.40001
1.40001
1.40001
1.40001
1.40001
1.40001
1.40001
2.6041
5.14801
5.43773
5.43403
5.44068
5.43891
5.44015
5.44575
5.46136
5.48746
5.51303
5.53497
5.54938
5.55261
5.54764
5.54248
5.54745
5.56853
5.59474
5.61583
5.6272
5.62976
5.6279
5.62841
5.63562
5.65003
5.66887
5.68703
5.7
5.7054
5.70643
5.70803
5.71462
5.72694
5.74294
5.75749
5.76624
5.76866
5.76797
5.7694
5.77754
5.79289
5.81191
5.82786
5.83596
5.83708
5.83456
5.83376
5.83787
5.84753
5.8598
5.86998
5.87424
5.87416
5.87335
5.87478
5.87996
5.88805
5.8974
5.90622
5.91324
5.91842
5.9229
5.92763
5.93275
5.93655
5.93852
5.94037
5.94346
5.94963
5.95883
5.96844
5.97566
5.97875
5.97787
5.97483
5.97303
5.97451
5.979
5.98433
5.98758
5.988
5.98729
5.98721
5.98853
5.99017
5.98925
5.98331
5.97257
5.95952
5.94844
5.94246
5.942
1.40001
1.40001
1.40001
1.40001
1.40001
1.40001
1.40001
1.40001
1.40001
1.40001
1.40001
1.40001
1.40001
1.40001
1.40001
1.40001
1.40001
1.40001
1.40001
1.40001
1.40001
1.40001
1.40001
1.40001
1.40001
1.40001
1.40001
1.40001
1.40001
1.40001
1.40001
1.40001
1.40001
1.40001
1.40001
1.40001
1.40001
1.40001
1.40001
1.40001
1.40001
1.40001
1.40001
1.40001
1.40001
1.40001
1.40001
1.40001
1.40001
1.40001
1.40001
1.40001
1.40001
1.40001
1.40001
1.40001
1.40001
1.40001
1.40001
1.40001
1.40001
1.40001
1.40001
1.40001
1.40001
1.40001
1.40001
1.40001
1.40001
1.40001
1.40001
1.40001
1.40001
1.40001
1.40001
1.40001
1.40001
1.40001
1.40001
1.40001
1.40001
1.40001
1.40001
1.40001
1.40001
1.40001
1.40001
1.40001
1.40001
1.40001
1.40001
1.40001
1.40001
1.40001
1.40001
1.40001
1.40001
1.40001
1.40001
2.59326
5.14511
5.43514
5.43601
5.44198
5.44145
5.44342
5.44823
5.46045
5.48501
5.51014
5.53232
5.54783
5.5532
5.55016
5.54588
5.54918
5.56812
5.59328
5.61442
5.62626
5.62934
5.6279
5.62863
5.63568
5.64979
5.66829
5.68618
5.69888
5.70425
5.7056
5.70792
5.71512
5.72768
5.74354
5.75737
5.7653
5.76744
5.76706
5.76929
5.77814
5.7935
5.81186
5.82683
5.83434
5.83549
5.8338
5.83405
5.83896
5.84864
5.86032
5.86971
5.8736
5.87365
5.87321
5.87497
5.88032
5.88842
5.89775
5.90655
5.91357
5.91873
5.92305
5.92746
5.93242
5.93647
5.93889
5.94112
5.9444
5.95031
5.95901
5.96805
5.97518
5.97866
5.9783
5.97567
5.97375
5.97458
5.9784
5.98349
5.98709
5.98798
5.98752
5.98743
5.98845
5.98975
5.98865
5.98275
5.9722
5.95938
5.94843
5.94251
5.94215
1.40001
1.40001
1.40001
1.40001
1.40001
1.40001
1.40001
1.40001
1.40001
1.40001
1.40001
1.40001
1.40001
1.40001
1.40001
1.40001
1.40001
1.40001
1.40001
1.40001
1.40001
1.40001
1.40001
1.40001
1.40001
1.40001
1.40001
1.40001
1.40001
1.40001
1.40001
1.40001
1.40001
1.40001
1.40001
1.40001
1.40001
1.40001
1.40001
1.40001
1.40001
1.40001
1.40001
1.40001
1.40001
1.40001
1.40001
1.40001
1.40001
1.40001
1.40001
1.40001
1.40001
1.40001
1.40001
1.40001
1.40001
1.40001
1.40001
1.40001
1.40001
1.40001
1.40001
1.40001
1.40001
1.40001
1.40001
1.40001
1.40001
1.40001
1.40001
1.40001
1.40001
1.40001
1.40001
1.40001
1.40001
1.40001
1.40001
1.40001
1.40001
1.40001
1.40001
1.40001
1.40001
1.40001
1.40001
1.40001
1.40001
1.40001
1.40001
1.40001
1.40001
1.40001
1.40001
1.40001
1.40001
1.40001
1.40001
2.5714
5.14668
5.42931
5.43377
5.44094
5.44298
5.44663
5.45125
5.46201
5.48354
5.50717
5.529
5.54541
5.5527
5.55221
5.54949
5.55169
5.56821
5.59186
5.61249
5.62469
5.62844
5.62789
5.62918
5.63609
5.64977
5.66769
5.68502
5.69721
5.70253
5.70437
5.70762
5.71559
5.72854
5.74424
5.75724
5.76415
5.76588
5.76591
5.76919
5.77898
5.79443
5.81204
5.82566
5.83213
5.83307
5.8322
5.83386
5.84008
5.85007
5.86114
5.86939
5.87247
5.87237
5.87241
5.87481
5.88038
5.88828
5.8972
5.90572
5.91274
5.91811
5.92262
5.92684
5.93122
5.93503
5.9378
5.9407
5.94462
5.95055
5.95868
5.96691
5.9735
5.97721
5.97767
5.97588
5.97421
5.97443
5.97731
5.98181
5.98563
5.98724
5.98738
5.98752
5.98829
5.98907
5.98762
5.98171
5.97146
5.95902
5.94826
5.94239
5.9421
1.40001
1.40001
1.40001
1.40001
1.40001
1.40001
1.40001
1.40001
1.40001
1.40001
1.40001
1.40001
1.40001
1.40001
1.40001
1.40001
1.40001
1.40001
1.40001
1.40001
1.40001
1.40001
1.40001
1.40001
1.40001
1.40001
1.40001
1.40001
1.40001
1.40001
1.40001
1.40001
1.40001
1.40001
1.40001
1.40001
1.40001
1.40001
1.40001
1.40001
1.40001
1.40001
1.40001
1.40001
1.40001
1.40001
1.40001
1.40001
1.40001
1.40001
1.40001
1.40001
1.40001
1.40001
1.40001
1.40001
1.40001
1.40001
1.40001
1.40001
1.40001
1.40001
1.40001
1.40001
1.40001
1.40001
1.40001
1.40001
1.40001
1.40001
1.40001
1.40001
1.40001
1.40001
1.40001
1.40001
1.40001
1.40001
1.40001
1.40001
1.40001
1.40001
1.40001
1.40001
1.40001
1.40001
1.40001
1.40001
1.40001
1.40001
1.40001
1.40001
1.40001
1.40001
1.40001
1.40001
1.40001
1.40001
1.40001
2.54431
5.13889
5.42684
5.4335
5.4412
5.44451
5.44888
5.45386
5.46355
5.48241
5.50436
5.52572
5.54295
5.55257
5.55471
5.55332
5.55473
5.56848
5.59005
5.60987
5.62233
5.62698
5.628
5.63029
5.63707
5.65004
5.66699
5.68329
5.69474
5.70015
5.70284
5.70739
5.71625
5.72949
5.74466
5.75661
5.76254
5.76404
5.76478
5.76935
5.78
5.79533
5.81189
5.82397
5.82927
5.83016
5.83066
5.83422
5.84166
5.85163
5.86165
5.86849
5.87079
5.87084
5.87179
5.87522
5.88108
5.88847
5.89652
5.90441
5.91146
5.91744
5.92258
5.92699
5.93092
5.93404
5.93674
5.94031
5.94505
5.95147
5.95931
5.96674
5.97244
5.97588
5.9769
5.97602
5.97471
5.97455
5.97658
5.9803
5.984
5.98619
5.98708
5.98756
5.9881
5.98833
5.98646
5.98048
5.97049
5.95845
5.94798
5.94223
5.94202
1.40001
1.40001
1.40001
1.40001
1.40001
1.40001
1.40001
1.40001
1.40001
1.40001
1.40001
1.40001
1.40001
1.40001
1.40001
1.40001
1.40001
1.40001
1.40001
1.40001
1.40001
1.40001
1.40001
1.40001
1.40001
1.40001
1.40001
1.40001
1.40001
1.40001
1.40001
1.40001
1.40001
1.40001
1.40001
1.40001
1.40001
1.40001
1.40001
1.40001
1.40001
1.40001
1.40001
1.40001
1.40001
1.40001
1.40001
1.40001
1.40001
1.40001
1.40001
1.40001
1.40001
1.40001
1.40001
1.40001
1.40001
1.40001
1.40001
1.40001
1.40001
1.40001
1.40001
1.40001
1.40001
1.40001
1.40001
1.40001
1.40001
1.40001
1.40001
1.40001
1.40001
1.40001
1.40001
1.40001
1.40001
1.40001
1.40001
1.40001
1.40001
1.40001
1.40001
1.40001
1.40001
1.40001
1.40001
1.40001
1.40001
1.40001
1.40001
1.40001
1.40001
1.40001
1.40001
1.40001
1.40001
1.40001
1.40001
2.5109
5.12255
5.42604
5.43403
5.44215
5.44603
5.45059
5.45626
5.46555
5.48188
5.50187
5.5224
5.54035
5.55203
5.55662
5.55689
5.55842
5.56946
5.58838
5.60695
5.61947
5.62518
5.62819
5.63189
5.63881
5.65101
5.66669
5.68147
5.69191
5.69754
5.70132
5.70727
5.71686
5.73011
5.74456
5.75556
5.76095
5.76255
5.76413
5.76985
5.78095
5.79582
5.81127
5.82207
5.82644
5.82739
5.82923
5.83461
5.84302
5.85284
5.86178
5.86717
5.86867
5.86904
5.87114
5.87599
5.88241
5.88911
5.89575
5.90241
5.90926
5.91617
5.92251
5.92766
5.93119
5.93318
5.93514
5.9388
5.94445
5.95196
5.96005
5.96686
5.97155
5.97422
5.97538
5.97535
5.97481
5.97483
5.97615
5.97893
5.98211
5.98454
5.9861
5.98708
5.98761
5.98744
5.98517
5.97906
5.96921
5.95751
5.94739
5.94186
5.94169
1.40001
1.40001
1.40001
1.40001
1.40001
1.40001
1.40001
1.40001
1.40001
1.40001
1.40001
1.40001
1.40001
1.40001
1.40001
1.40001
1.40001
1.40001
1.40001
1.40001
1.40001
1.40001
1.40001
1.40001
1.40001
1.40001
1.40001
1.40001
1.40001
1.40001
1.40001
1.40001
1.40001
1.40001
1.40001
1.40001
1.40001
1.40001
1.40001
1.40001
1.40001
1.40001
1.40001
1.40001
1.40001
1.40001
1.40001
1.40001
1.40001
1.40001
1.40001
1.40001
1.40001
1.40001
1.40001
1.40001
1.40001
1.40001
1.40001
1.40001
1.40001
1.40001
1.40001
1.40001
1.40001
1.40001
1.40001
1.40001
1.40001
1.40001
1.40001
1.40001
1.40001
1.40001
1.40001
1.40001
1.40001
1.40001
1.40001
1.40001
1.40001
1.40001
1.40001
1.40001
1.40001
1.40001
1.40001
1.40001
1.40001
1.40001
1.40001
1.40001
1.40001
1.40001
1.40001
1.40001
1.40001
1.40001
1.40001
2.47014
5.10055
5.42562
5.43526
5.44412
5.44814
5.45165
5.45627
5.465
5.48008
5.49909
5.51937
5.53803
5.55147
5.55831
5.56035
5.56233
5.57099
5.58658
5.6032
5.61567
5.62302
5.62842
5.63369
5.64094
5.65236
5.66647
5.67944
5.6889
5.69507
5.70017
5.70724
5.71713
5.72999
5.74348
5.75381
5.75935
5.76171
5.76416
5.77059
5.78153
5.79564
5.81001
5.81999
5.82395
5.82525
5.82824
5.83497
5.84396
5.85346
5.86142
5.86559
5.86633
5.86702
5.87046
5.87683
5.88391
5.88992
5.89499
5.90003
5.90631
5.91417
5.92216
5.92857
5.93199
5.93286
5.93366
5.9367
5.94311
5.95187
5.9606
5.96716
5.9709
5.9725
5.97322
5.97387
5.97446
5.97511
5.97615
5.97788
5.98024
5.9825
5.9845
5.98605
5.98688
5.98651
5.98389
5.97763
5.96778
5.95631
5.94655
5.94128
5.94109
1.40001
1.40001
1.40001
1.40001
1.40001
1.40001
1.40001
1.40001
1.40001
1.40001
1.40001
1.40001
1.40001
1.40001
1.40001
1.40001
1.40001
1.40001
1.40001
1.40001
1.40001
1.40001
1.40001
1.40001
1.40001
1.40001
1.40001
1.40001
1.40001
1.40001
1.40001
1.40001
1.40001
1.40001
1.40001
1.40001
1.40001
1.40001
1.40001
1.40001
1.40001
1.40001
1.40001
1.40001
1.40001
1.40001
1.40001
1.40001
1.40001
1.40001
1.40001
1.40001
1.40001
1.40001
1.40001
1.40001
1.40001
1.40001
1.40001
1.40001
1.40001
1.40001
1.40001
1.40001
1.40001
1.40001
1.40001
1.40001
1.40001
1.40001
1.40001
1.40001
1.40001
1.40001
1.40001
1.40001
1.40001
1.40001
1.40001
1.40001
1.40001
1.40001
1.40001
1.40001
1.40001
1.40001
1.40001
1.40001
1.40001
1.40001
1.40001
1.40001
1.40001
1.40001
1.40001
1.40001
1.40001
1.40001
1.40001
2.42134
5.07401
5.42443
5.43604
5.44672
5.45174
5.45473
5.45777
5.46471
5.47818
5.49672
5.51713
5.53642
5.55117
5.55955
5.56293
5.56533
5.5721
5.58465
5.5992
5.61148
5.62091
5.62873
5.63556
5.64338
5.65404
5.66644
5.67762
5.68635
5.69324
5.69946
5.70703
5.71682
5.72899
5.74155
5.75173
5.75814
5.76169
5.7649
5.7714
5.78175
5.79488
5.8083
5.81788
5.82191
5.82378
5.82749
5.83495
5.84419
5.85338
5.86059
5.86403
5.8642
5.86499
5.86954
5.87728
5.8849
5.89043
5.89425
5.89778
5.90312
5.91149
5.92116
5.9291
5.93281
5.93293
5.93258
5.93465
5.94137
5.9513
5.96087
5.96738
5.97025
5.97068
5.97063
5.97169
5.97362
5.97522
5.97631
5.97716
5.97842
5.98019
5.98238
5.9845
5.98586
5.98548
5.98258
5.97615
5.96623
5.9549
5.94545
5.94044
5.94011
1.40001
1.40001
1.40001
1.40001
1.40001
1.40001
1.40001
1.40001
1.40001
1.40001
1.40001
1.40001
1.40001
1.40001
1.40001
1.40001
1.40001
1.40001
1.40001
1.40001
1.40001
1.40001
1.40001
1.40001
1.40001
1.40001
1.40001
1.40001
1.40001
1.40001
1.40001
1.40001
1.40001
1.40001
1.40001
1.40001
1.40001
1.40001
1.40001
1.40001
1.40001
1.40001
1.40001
1.40001
1.40001
1.40001
1.40001
1.40001
1.40001
1.40001
1.40001
1.40001
1.40001
1.40001
1.40001
1.40001
1.40001
1.40001
1.40001
1.40001
1.40001
1.40001
1.40001
1.40001
1.40001
1.40001
1.40001
1.40001
1.40001
1.40001
1.40001
1.40001
1.40001
1.40001
1.40001
1.40001
1.40001
1.40001
1.40001
1.40001
1.40001
1.40001
1.40001
1.40001
1.40001
1.40001
1.40001
1.40001
1.40001
1.40001
1.40001
1.40001
1.40001
1.40001
1.40001
1.40001
1.40001
1.40001
1.40001
2.36457
5.04424
5.42287
5.43632
5.44854
5.45503
5.45846
5.46056
5.46533
5.47705
5.49477
5.51506
5.53474
5.55045
5.56007
5.56474
5.56762
5.57304
5.58322
5.59598
5.60806
5.6192
5.62897
5.63709
5.64522
5.65509
5.66611
5.67616
5.68489
5.69243
5.69907
5.7065
5.71574
5.72703
5.73916
5.7498
5.75742
5.76214
5.76593
5.77213
5.78175
5.79378
5.80642
5.81581
5.82016
5.82255
5.82657
5.83416
5.84345
5.85253
5.85948
5.8628
5.86292
5.86359
5.8683
5.87669
5.88488
5.89039
5.89356
5.89622
5.90063
5.90865
5.91902
5.92822
5.93276
5.93289
5.93204
5.93346
5.9398
5.95022
5.96041
5.96698
5.96922
5.9688
5.96804
5.96921
5.97231
5.97498
5.97626
5.97644
5.97667
5.97791
5.98008
5.98275
5.98457
5.98419
5.98109
5.97446
5.9645
5.95329
5.94405
5.93927
5.93864
1.40001
1.40001
1.40001
1.40001
1.40001
1.40001
1.40001
1.40001
1.40001
1.40001
1.40001
1.40001
1.40001
1.40001
1.40001
1.40001
1.40001
1.40001
1.40001
1.40001
1.40001
1.40001
1.40001
1.40001
1.40001
1.40001
1.40001
1.40001
1.40001
1.40001
1.40001
1.40001
1.40001
1.40001
1.40001
1.40001
1.40001
1.40001
1.40001
1.40001
1.40001
1.40001
1.40001
1.40001
1.40001
1.40001
1.40001
1.40001
1.40001
1.40001
1.40001
1.40001
1.40001
1.40001
1.40001
1.40001
1.40001
1.40001
1.40001
1.40001
1.40001
1.40001
1.40001
1.40001
1.40001
1.40001
1.40001
1.40001
1.40001
1.40001
1.40001
1.40001
1.40001
1.40001
1.40001
1.40001
1.40001
1.40001
1.40001
1.40001
1.40001
1.40001
1.40001
1.40001
1.40001
1.40001
1.40001
1.40001
1.40001
1.40001
1.40001
1.40001
1.40001
1.40001
1.40001
1.40001
1.40001
1.40001
1.40001
2.30114
5.01173
5.41892
5.4344
5.44865
5.45727
5.4622
5.46441
5.46763
5.47707
5.49349
5.51332
5.53292
5.54895
5.55961
5.56531
5.56877
5.57364
5.5824
5.59388
5.60599
5.61833
5.6291
5.63766
5.64577
5.65521
5.66567
5.67561
5.68478
5.69261
5.69889
5.70546
5.71378
5.72439
5.73664
5.74815
5.75691
5.76253
5.76673
5.77254
5.78147
5.79258
5.80461
5.81393
5.81864
5.82138
5.82524
5.83242
5.84155
5.85075
5.85809
5.86194
5.86257
5.86318
5.86716
5.87495
5.88339
5.88947
5.89297
5.89557
5.89943
5.9064
5.91607
5.9255
5.93113
5.93226
5.93183
5.93327
5.93911
5.9489
5.95886
5.96538
5.96745
5.96678
5.96576
5.96695
5.97063
5.97405
5.97555
5.9752
5.97476
5.97575
5.97797
5.98107
5.98317
5.98261
5.97921
5.97244
5.96257
5.95156
5.94252
5.93788
5.93685
1.40001
1.40001
1.40001
1.40001
1.40001
1.40001
1.40001
1.40001
1.40001
1.40001
1.40001
1.40001
1.40001
1.40001
1.40001
1.40001
1.40001
1.40001
1.40001
1.40001
1.40001
1.40001
1.40001
1.40001
1.40001
1.40001
1.40001
1.40001
1.40001
1.40001
1.40001
1.40001
1.40001
1.40001
1.40001
1.40001
1.40001
1.40001
1.40001
1.40001
1.40001
1.40001
1.40001
1.40001
1.40001
1.40001
1.40001
1.40001
1.40001
1.40001
1.40001
1.40001
1.40001
1.40001
1.40001
1.40001
1.40001
1.40001
1.40001
1.40001
1.40001
1.40001
1.40001
1.40001
1.40001
1.40001
1.40001
1.40001
1.40001
1.40001
1.40001
1.40001
1.40001
1.40001
1.40001
1.40001
1.40001
1.40001
1.40001
1.40001
1.40001
1.40001
1.40001
1.40001
1.40001
1.40001
1.40001
1.40001
1.40001
1.40001
1.40001
1.40001
1.40001
1.40001
1.40001
1.40001
1.40001
1.40001
1.40001
2.23136
4.97653
5.41422
5.43078
5.44688
5.45779
5.46513
5.46871
5.47163
5.4787
5.49296
5.51146
5.53033
5.54643
5.55794
5.56461
5.56875
5.57384
5.58224
5.59331
5.60572
5.61842
5.62887
5.63674
5.64456
5.65415
5.6652
5.67604
5.68582
5.69344
5.69868
5.70392
5.71129
5.72161
5.73439
5.74683
5.75639
5.76253
5.76696
5.77244
5.78082
5.79131
5.80293
5.81228
5.81736
5.82034
5.82379
5.83003
5.83858
5.84794
5.85616
5.86116
5.86276
5.86357
5.86655
5.87283
5.88066
5.88749
5.89216
5.89543
5.89916
5.90489
5.91279
5.92121
5.92765
5.93073
5.93194
5.93421
5.93953
5.94787
5.95656
5.9626
5.96487
5.96459
5.96396
5.9653
5.96896
5.97232
5.97374
5.97319
5.97264
5.97378
5.97632
5.97973
5.98174
5.98063
5.97674
5.9699
5.96032
5.94964
5.94081
5.93625
5.93483
1.40001
1.40001
1.40001
1.40001
1.40001
1.40001
1.40001
1.40001
1.40001
1.40001
1.40001
1.40001
1.40001
1.40001
1.40001
1.40001
1.40001
1.40001
1.40001
1.40001
1.40001
1.40001
1.40001
1.40001
1.40001
1.40001
1.40001
1.40001
1.40001
1.40001
1.40001
1.40001
1.40001
1.40001
1.40001
1.40001
1.40001
1.40001
1.40001
1.40001
1.40001
1.40001
1.40001
1.40001
1.40001
1.40001
1.40001
1.40001
1.40001
1.40001
1.40001
1.40001
1.40001
1.40001
1.40001
1.40001
1.40001
1.40001
1.40001
1.40001
1.40001
1.40001
1.40001
1.40001
1.40001
1.40001
1.40001
1.40001
1.40001
1.40001
1.40001
1.40001
1.40001
1.40001
1.40001
1.40001
1.40001
1.40001
1.40001
1.40001
1.40001
1.40001
1.40001
1.40001
1.40001
1.40001
1.40001
1.40001
1.40001
1.40001
1.40001
1.40001
1.40001
1.40001
1.40001
1.40001
1.40001
1.40001
1.40001
2.15643
4.93632
5.41124
5.42706
5.44371
5.45708
5.46701
5.47241
5.47569
5.48107
5.49268
5.50924
5.52725
5.5436
5.55582
5.5632
5.5681
5.57378
5.58268
5.59429
5.60714
5.61932
5.62837
5.63492
5.64219
5.65223
5.66455
5.67693
5.68742
5.69436
5.69808
5.70187
5.70854
5.71891
5.73235
5.74554
5.75558
5.76199
5.76653
5.77171
5.77968
5.78976
5.80112
5.8106
5.81612
5.81946
5.82267
5.82778
5.83517
5.84422
5.85321
5.85974
5.8628
5.86418
5.86645
5.87103
5.87762
5.88473
5.89073
5.89521
5.89914
5.90378
5.90962
5.91633
5.92296
5.92829
5.93197
5.93571
5.94059
5.94695
5.95365
5.95881
5.96154
5.96228
5.96266
5.9643
5.96732
5.96982
5.97072
5.97032
5.97027
5.97207
5.97528
5.97885
5.98033
5.97827
5.97367
5.96679
5.95768
5.9475
5.93896
5.9344
5.9326
1.40001
1.40001
1.40001
1.40001
1.40001
1.40001
1.40001
1.40001
1.40001
1.40001
1.40001
1.40001
1.40001
1.40001
1.40001
1.40001
1.40001
1.40001
1.40001
1.40001
1.40001
1.40001
1.40001
1.40001
1.40001
1.40001
1.40001
1.40001
1.40001
1.40001
1.40001
1.40001
1.40001
1.40001
1.40001
1.40001
1.40001
1.40001
1.40001
1.40001
1.40001
1.40001
1.40001
1.40001
1.40001
1.40001
1.40001
1.40001
1.40001
1.40001
1.40001
1.40001
1.40001
1.40001
1.40001
1.40001
1.40001
1.40001
1.40001
1.40001
1.40001
1.40001
1.40001
1.40001
1.40001
1.40001
1.40001
1.40001
1.40001
1.40001
1.40001
1.40001
1.40001
1.40001
1.40001
1.40001
1.40001
1.40001
1.40001
1.40001
1.40001
1.40001
1.40001
1.40001
1.40001
1.40001
1.40001
1.40001
1.40001
1.40001
1.40001
1.40001
1.40001
1.40001
1.40001
1.40001
1.40001
1.40001
1.40001
2.0775
4.88908
5.41034
5.42421
5.44097
5.45576
5.46755
5.47442
5.47825
5.4829
5.49252
5.50743
5.52471
5.54112
5.5536
5.56132
5.56681
5.57345
5.58343
5.5961
5.60944
5.62072
5.62804
5.63292
5.63944
5.65006
5.66401
5.67792
5.68873
5.69483
5.69719
5.69979
5.70595
5.71641
5.73031
5.74397
5.75439
5.7611
5.76575
5.77058
5.77804
5.78763
5.79869
5.80839
5.81457
5.81856
5.82197
5.82625
5.83221
5.84025
5.8492
5.85697
5.86183
5.8644
5.86665
5.87016
5.87538
5.88189
5.88844
5.89394
5.89835
5.90238
5.9067
5.91189
5.91818
5.92518
5.9315
5.9366
5.94132
5.94592
5.95048
5.95471
5.95789
5.95998
5.96167
5.96359
5.96558
5.96669
5.96676
5.96662
5.96767
5.97071
5.97485
5.97832
5.97886
5.97554
5.97004
5.96313
5.9546
5.94509
5.93694
5.93231
5.93019
1.40001
1.40001
1.40001
1.40001
1.40001
1.40001
1.40001
1.40001
1.40001
1.40001
1.40001
1.40001
1.40001
1.40001
1.40001
1.40001
1.40001
1.40001
1.40001
1.40001
1.40001
1.40001
1.40001
1.40001
1.40001
1.40001
1.40001
1.40001
1.40001
1.40001
1.40001
1.40001
1.40001
1.40001
1.40001
1.40001
1.40001
1.40001
1.40001
1.40001
1.40001
1.40001
1.40001
1.40001
1.40001
1.40001
1.40001
1.40001
1.40001
1.40001
1.40001
1.40001
1.40001
1.40001
1.40001
1.40001
1.40001
1.40001
1.40001
1.40001
1.40001
1.40001
1.40001
1.40001
1.40001
1.40001
1.40001
1.40001
1.40001
1.40001
1.40001
1.40001
1.40001
1.40001
1.40001
1.40001
1.40001
1.40001
1.40001
1.40001
1.40001
1.40001
1.40001
1.40001
1.40001
1.40001
1.40001
1.40001
1.40001
1.40001
1.40001
1.40001
1.40001
1.40001
1.40001
1.40001
1.40001
1.40001
1.40001
1.99466
4.83453
5.41137
5.4225
5.4388
5.45389
5.46665
5.47462
5.47908
5.48393
5.49289
5.50687
5.52363
5.53968
5.55179
5.55947
5.56549
5.57319
5.58442
5.59819
5.61155
5.62151
5.62709
5.63084
5.63705
5.64813
5.66316
5.678
5.68893
5.69451
5.6962
5.69817
5.70382
5.71406
5.72792
5.74174
5.75256
5.75987
5.76491
5.7695
5.77622
5.78502
5.79545
5.80534
5.81247
5.81754
5.82162
5.82563
5.83027
5.83682
5.84472
5.85274
5.85913
5.86346
5.86661
5.87002
5.87442
5.87979
5.88568
5.89128
5.8961
5.90016
5.904
5.90849
5.91444
5.92208
5.92995
5.93622
5.94095
5.94444
5.94746
5.95091
5.95445
5.95774
5.96055
5.96258
5.9634
5.96299
5.96226
5.96249
5.96494
5.96954
5.9747
5.9779
5.97722
5.97252
5.96604
5.95904
5.95115
5.94243
5.93476
5.93002
5.92766
1.40001
1.40001
1.40001
1.40001
1.40001
1.40001
1.40001
1.40001
1.40001
1.40001
1.40001
1.40001
1.40001
1.40001
1.40001
1.40001
1.40001
1.40001
1.40001
1.40001
1.40001
1.40001
1.40001
1.40001
1.40001
1.40001
1.40001
1.40001
1.40001
1.40001
1.40001
1.40001
1.40001
1.40001
1.40001
1.40001
1.40001
1.40001
1.40001
1.40001
1.40001
1.40001
1.40001
1.40001
1.40001
1.40001
1.40001
1.40001
1.40001
1.40001
1.40001
1.40001
1.40001
1.40001
1.40001
1.40001
1.40001
1.40001
1.40001
1.40001
1.40001
1.40001
1.40001
1.40001
1.40001
1.40001
1.40001
1.40001
1.40001
1.40001
1.40001
1.40001
1.40001
1.40001
1.40001
1.40001
1.40001
1.40001
1.40001
1.40001
1.40001
1.40001
1.40001
1.40001
1.40001
1.40001
1.40001
1.40001
1.40001
1.40001
1.40001
1.40001
1.40001
1.40001
1.40001
1.40001
1.40001
1.40001
1.40001
1.90935
4.77194
5.41311
5.42122
5.43655
5.45122
5.46432
5.47333
5.47904
5.48486
5.49395
5.50753
5.52378
5.53894
5.55022
5.55793
5.56479
5.57351
5.58549
5.59949
5.61235
5.62118
5.62578
5.6294
5.6358
5.64702
5.66213
5.67711
5.68802
5.69352
5.69539
5.69727
5.70231
5.71175
5.72489
5.73848
5.74974
5.75804
5.76396
5.76858
5.77455
5.78236
5.7917
5.80135
5.80937
5.81588
5.8211
5.82547
5.82928
5.83433
5.8408
5.84799
5.85492
5.86099
5.86603
5.87038
5.8746
5.87875
5.88311
5.88763
5.89222
5.89672
5.9012
5.90607
5.91202
5.91952
5.92744
5.93406
5.93893
5.94216
5.9447
5.94793
5.9517
5.9556
5.95897
5.96072
5.96049
5.95895
5.95764
5.95836
5.96218
5.96839
5.9744
5.97722
5.97533
5.96936
5.96192
5.95476
5.94742
5.93948
5.9323
5.92742
5.92497
1.40001
1.40001
1.40001
1.40001
1.40001
1.40001
1.40001
1.40001
1.40001
1.40001
1.40001
1.40001
1.40001
1.40001
1.40001
1.40001
1.40001
1.40001
1.40001
1.40001
1.40001
1.40001
1.40001
1.40001
1.40001
1.40001
1.40001
1.40001
1.40001
1.40001
1.40001
1.40001
1.40001
1.40001
1.40001
1.40001
1.40001
1.40001
1.40001
1.40001
1.40001
1.40001
1.40001
1.40001
1.40001
1.40001
1.40001
1.40001
1.40001
1.40001
1.40001
1.40001
1.40001
1.40001
1.40001
1.40001
1.40001
1.40001
1.40001
1.40001
1.40001
1.40001
1.40001
1.40001
1.40001
1.40001
1.40001
1.40001
1.40001
1.40001
1.40001
1.40001
1.40001
1.40001
1.40001
1.40001
1.40001
1.40001
1.40001
1.40001
1.40001
1.40001
1.40001
1.40001
1.40001
1.40001
1.40001
1.40001
1.40001
1.40001
1.40001
1.40001
1.40001
1.40001
1.40001
1.40001
1.40001
1.40001
1.40001
1.82346
4.69713
5.41456
5.42044
5.43438
5.44828
5.46144
5.4716
5.47914
5.48637
5.49571
5.50845
5.52343
5.53743
5.54846
5.55698
5.56487
5.57429
5.58615
5.59939
5.61131
5.6194
5.62408
5.6284
5.63533
5.6464
5.66097
5.67548
5.68624
5.69208
5.69464
5.69688
5.7013
5.7095
5.72125
5.73414
5.74569
5.75511
5.76235
5.76745
5.77306
5.78016
5.78837
5.79722
5.80543
5.81305
5.81984
5.82522
5.82879
5.83274
5.83782
5.84359
5.84991
5.85693
5.86411
5.8704
5.87511
5.87839
5.88095
5.88359
5.88722
5.89219
5.89807
5.90424
5.91064
5.91762
5.92451
5.93039
5.93525
5.93899
5.9422
5.94593
5.94987
5.95377
5.95672
5.9578
5.95683
5.95475
5.9534
5.95463
5.95964
5.96708
5.97351
5.97584
5.97299
5.96607
5.95781
5.95043
5.94351
5.93621
5.92943
5.92442
5.92201
1.40001
1.40001
1.40001
1.40001
1.40001
1.40001
1.40001
1.40001
1.40001
1.40001
1.40001
1.40001
1.40001
1.40001
1.40001
1.40001
1.40001
1.40001
1.40001
1.40001
1.40001
1.40001
1.40001
1.40001
1.40001
1.40001
1.40001
1.40001
1.40001
1.40001
1.40001
1.40001
1.40001
1.40001
1.40001
1.40001
1.40001
1.40001
1.40001
1.40001
1.40001
1.40001
1.40001
1.40001
1.40001
1.40001
1.40001
1.40001
1.40001
1.40001
1.40001
1.40001
1.40001
1.40001
1.40001
1.40001
1.40001
1.40001
1.40001
1.40001
1.40001
1.40001
1.40001
1.40001
1.40001
1.40001
1.40001
1.40001
1.40001
1.40001
1.40001
1.40001
1.40001
1.40001
1.40001
1.40001
1.40001
1.40001
1.40001
1.40001
1.40001
1.40001
1.40001
1.40001
1.40001
1.40001
1.40001
1.40001
1.40001
1.40001
1.40001
1.40001
1.40001
1.40001
1.40001
1.40001
1.40001
1.40001
1.40001
1.74059
4.60733
5.41491
5.4207
5.43376
5.44664
5.45953
5.47059
5.47979
5.48831
5.49764
5.50918
5.52261
5.53566
5.54684
5.55644
5.5654
5.57509
5.58629
5.59823
5.60891
5.6166
5.62192
5.62747
5.63524
5.64614
5.65977
5.67335
5.68376
5.69006
5.69363
5.69653
5.70064
5.70765
5.71775
5.72944
5.7407
5.75078
5.75941
5.76556
5.77153
5.77846
5.78595
5.7938
5.80127
5.80895
5.8168
5.82355
5.82777
5.8314
5.8355
5.84019
5.84563
5.85261
5.86096
5.86911
5.87505
5.87808
5.87915
5.87995
5.88219
5.88713
5.89436
5.90224
5.90948
5.91598
5.9213
5.92579
5.93042
5.93511
5.93987
5.94467
5.94876
5.95205
5.9538
5.95378
5.95232
5.95041
5.94963
5.95155
5.9575
5.9655
5.97173
5.97353
5.97014
5.96266
5.95384
5.94626
5.93957
5.93267
5.92616
5.92103
5.9188
1.40001
1.40001
1.40001
1.40001
1.40001
1.40001
1.40001
1.40001
1.40001
1.40001
1.40001
1.40001
1.40001
1.40001
1.40001
1.40001
1.40001
1.40001
1.40001
1.40001
1.40001
1.40001
1.40001
1.40001
1.40001
1.40001
1.40001
1.40001
1.40001
1.40001
1.40001
1.40001
1.40001
1.40001
1.40001
1.40001
1.40001
1.40001
1.40001
1.40001
1.40001
1.40001
1.40001
1.40001
1.40001
1.40001
1.40001
1.40001
1.40001
1.40001
1.40001
1.40001
1.40001
1.40001
1.40001
1.40001
1.40001
1.40001
1.40001
1.40001
1.40001
1.40001
1.40001
1.40001
1.40001
1.40001
1.40001
1.40001
1.40001
1.40001
1.40001
1.40001
1.40001
1.40001
1.40001
1.40001
1.40001
1.40001
1.40001
1.40001
1.40001
1.40001
1.40001
1.40001
1.40001
1.40001
1.40001
1.40001
1.40001
1.40001
1.40001
1.40001
1.40001
1.40001
1.40001
1.40001
1.40001
1.40001
1.40001
1.66075
4.5036
5.41652
5.42286
5.43427
5.44581
5.45827
5.47008
5.48032
5.48948
5.49865
5.50914
5.52125
5.53383
5.54559
5.55611
5.56576
5.57538
5.5856
5.59598
5.6055
5.61307
5.61924
5.62604
5.63455
5.64531
5.65803
5.67069
5.68081
5.68771
5.69249
5.69632
5.70053
5.70666
5.71518
5.72528
5.73554
5.74522
5.75463
5.76244
5.76961
5.77696
5.78424
5.79135
5.79788
5.8048
5.81246
5.82002
5.82551
5.82967
5.83369
5.838
5.84278
5.84904
5.85715
5.86596
5.87318
5.87676
5.87734
5.87713
5.87814
5.88236
5.8901
5.89938
5.9078
5.91411
5.91807
5.92126
5.92525
5.93084
5.93747
5.94354
5.94785
5.95002
5.95016
5.94892
5.94715
5.94596
5.94626
5.94922
5.95573
5.9635
5.969
5.97031
5.96676
5.95907
5.95003
5.94234
5.93568
5.92886
5.92245
5.91725
5.91535
1.40001
1.40001
1.40001
1.40001
1.40001
1.40001
1.40001
1.40001
1.40001
1.40001
1.40001
1.40001
1.40001
1.40001
1.40001
1.40001
1.40001
1.40001
1.40001
1.40001
1.40001
1.40001
1.40001
1.40001
1.40001
1.40001
1.40001
1.40001
1.40001
1.40001
1.40001
1.40001
1.40001
1.40001
1.40001
1.40001
1.40001
1.40001
1.40001
1.40001
1.40001
1.40001
1.40001
1.40001
1.40001
1.40001
1.40001
1.40001
1.40001
1.40001
1.40001
1.40001
1.40001
1.40001
1.40001
1.40001
1.40001
1.40001
1.40001
1.40001
1.40001
1.40001
1.40001
1.40001
1.40001
1.40001
1.40001
1.40001
1.40001
1.40001
1.40001
1.40001
1.40001
1.40001
1.40001
1.40001
1.40001
1.40001
1.40001
1.40001
1.40001
1.40001
1.40001
1.40001
1.40001
1.40001
1.40001
1.40001
1.40001
1.40001
1.40001
1.40001
1.40001
1.40001
1.40001
1.40001
1.40001
1.40001
1.40001
1.58631
4.39119
5.41954
5.4233
5.43308
5.44417
5.4566
5.46886
5.47965
5.48891
5.49768
5.5076
5.51936
5.532
5.54415
5.55523
5.56519
5.57455
5.58386
5.59321
5.60213
5.60988
5.61685
5.62465
5.63373
5.64435
5.65634
5.66819
5.67788
5.68497
5.6906
5.69525
5.69964
5.70517
5.7124
5.72101
5.73024
5.73939
5.74921
5.75855
5.76732
5.77565
5.78318
5.78994
5.79567
5.80138
5.80768
5.81464
5.821
5.82648
5.83159
5.83641
5.84118
5.84672
5.85366
5.86176
5.86933
5.87402
5.87541
5.8751
5.87541
5.87862
5.88569
5.89532
5.90469
5.91137
5.91485
5.91716
5.92061
5.92672
5.93463
5.94186
5.9464
5.94759
5.94607
5.94351
5.94171
5.94155
5.94326
5.9475
5.95409
5.96096
5.96539
5.96623
5.96274
5.95524
5.94637
5.93867
5.9318
5.92476
5.91827
5.91313
5.9117
1.40001
1.40001
1.40001
1.40001
1.40001
1.40001
1.40001
1.40001
1.40001
1.40001
1.40001
1.40001
1.40001
1.40001
1.40001
1.40001
1.40001
1.40001
1.40001
1.40001
1.40001
1.40001
1.40001
1.40001
1.40001
1.40001
1.40001
1.40001
1.40001
1.40001
1.40001
1.40001
1.40001
1.40001
1.40001
1.40001
1.40001
1.40001
1.40001
1.40001
1.40001
1.40001
1.40001
1.40001
1.40001
1.40001
1.40001
1.40001
1.40001
1.40001
1.40001
1.40001
1.40001
1.40001
1.40001
1.40001
1.40001
1.40001
1.40001
1.40001
1.40001
1.40001
1.40001
1.40001
1.40001
1.40001
1.40001
1.40001
1.40001
1.40001
1.40001
1.40001
1.40001
1.40001
1.40001
1.40001
1.40001
1.40001
1.40001
1.40001
1.40001
1.40001
1.40001
1.40001
1.40001
1.40001
1.40001
1.40001
1.40001
1.40001
1.40001
1.40001
1.40001
1.40001
1.40001
1.40001
1.40001
1.40001
1.40001
1.50996
4.26958
5.42329
5.42363
5.43125
5.44228
5.45463
5.46694
5.47781
5.48723
5.49609
5.50608
5.51803
5.53098
5.54327
5.55428
5.56393
5.57271
5.58131
5.58993
5.59836
5.60611
5.61344
5.62175
5.63126
5.64185
5.65335
5.66469
5.67427
5.68186
5.68853
5.694
5.6986
5.70366
5.70979
5.71715
5.72557
5.7345
5.74444
5.75446
5.76415
5.77334
5.78149
5.78845
5.79391
5.79876
5.80363
5.8091
5.81523
5.82182
5.82866
5.83497
5.84045
5.84555
5.85088
5.85709
5.86391
5.86976
5.87285
5.87329
5.87363
5.87592
5.88155
5.89035
5.89998
5.90748
5.91159
5.91387
5.91707
5.92311
5.93148
5.93943
5.94403
5.94444
5.94171
5.93809
5.93613
5.93703
5.94045
5.94591
5.95221
5.95781
5.96105
5.96138
5.95811
5.95124
5.94291
5.93517
5.92785
5.92036
5.91367
5.90877
5.90796
1.40001
1.40001
1.40001
1.40001
1.40001
1.40001
1.40001
1.40001
1.40001
1.40001
1.40001
1.40001
1.40001
1.40001
1.40001
1.40001
1.40001
1.40001
1.40001
1.40001
1.40001
1.40001
1.40001
1.40001
1.40001
1.40001
1.40001
1.40001
1.40001
1.40001
1.40001
1.40001
1.40001
1.40001
1.40001
1.40001
1.40001
1.40001
1.40001
1.40001