/*--------------------------------*- C++ -*----------------------------------*\
  =========                 |
  \\      /  F ield         | OpenFOAM: The Open Source CFD Toolbox
   \\    /   O peration     | Website:  https://openfoam.org
    \\  /    A nd           | Version:  7
     \\/     M anipulation  |
\*---------------------------------------------------------------------------*/
FoamFile
{
    version     2.0;
    format      ascii;
    class       volScalarField;
    location    "2.4";
    object      T;
}
// * * * * * * * * * * * * * * * * * * * * * * * * * * * * * * * * * * * * * //

dimensions      [0 0 0 1 0 0 0];

internalField   nonuniform List<scalar> 
258048
(
1
1
1
1
1
1
1
1
1
1
1
1
1
1
1
1
1
1
1
1
1
1
1
1
1
1
1
1
1
1
1
1
1
1
1
1
1
1
1
1
1
1
1
1
1
1
1
1
1
1
1
1
1
1
1
1
1
1
1
1
1
1
1
1
1
1
1
1
1
1
1
1
1
1
1
1
1
1
1
1
1
1
1
1
1
1
1
1
1
1
1
1
1
1
1
1
1
1
1
1.78206
2.62407
2.69558
2.69587
2.69911
2.70219
2.70463
2.70564
2.70715
2.70988
2.71237
2.71451
2.71607
2.71673
2.71698
2.71888
2.72323
2.7289
2.73327
2.73538
2.73532
2.73358
2.7314
2.73131
2.73375
2.73894
2.74466
2.7487
2.75021
2.74979
2.74848
2.74781
2.74882
2.7519
2.75615
2.75968
2.7612
2.76081
2.7594
2.75845
2.75915
2.76193
2.76634
2.77058
2.7731
2.77356
2.77272
2.7719
2.77228
2.77426
2.77764
2.78128
2.78392
2.78498
2.78485
2.78458
2.7848
2.78598
2.78814
2.7909
2.79384
2.79654
2.79871
2.8002
2.80091
2.80098
2.80063
2.79992
2.79952
2.79981
2.80073
2.80207
2.80339
2.8045
2.80534
2.80607
2.8072
2.80881
2.81061
2.81217
2.81319
2.8136
2.81373
2.81411
2.81513
2.81705
2.81962
2.82301
2.82786
2.83356
2.83862
2.84168
2.84288
1
1
1
1
1
1
1
1
1
1
1
1
1
1
1
1
1
1
1
1
1
1
1
1
1
1
1
1
1
1
1
1
1
1
1
1
1
1
1
1
1
1
1
1
1
1
1
1
1
1
1
1
1
1
1
1
1
1
1
1
1
1
1
1
1
1
1
1
1
1
1
1
1
1
1
1
1
1
1
1
1
1
1
1
1
1
1
1
1
1
1
1
1
1
1
1
1
1
1
1.77764
2.62309
2.69439
2.69657
2.70004
2.70299
2.70531
2.70603
2.70688
2.70932
2.7117
2.71389
2.71562
2.71666
2.71751
2.71966
2.72362
2.72885
2.733
2.73509
2.73508
2.73345
2.73139
2.73133
2.73374
2.73887
2.74452
2.74853
2.75
2.74955
2.74828
2.74776
2.74887
2.75205
2.75628
2.75968
2.76104
2.76056
2.75919
2.7584
2.75919
2.76203
2.76634
2.77043
2.77285
2.77329
2.77261
2.77198
2.77245
2.77444
2.77773
2.78122
2.7838
2.78489
2.78484
2.78464
2.78488
2.78606
2.7882
2.79096
2.7939
2.79659
2.79874
2.80018
2.80086
2.80098
2.8007
2.80006
2.79969
2.79993
2.80076
2.80199
2.80328
2.80447
2.80542
2.80623
2.80734
2.80881
2.8105
2.81202
2.81309
2.81359
2.81378
2.81416
2.81511
2.81696
2.8195
2.8229
2.82778
2.83353
2.83861
2.84169
2.84291
1
1
1
1
1
1
1
1
1
1
1
1
1
1
1
1
1
1
1
1
1
1
1
1
1
1
1
1
1
1
1
1
1
1
1
1
1
1
1
1
1
1
1
1
1
1
1
1
1
1
1
1
1
1
1
1
1
1
1
1
1
1
1
1
1
1
1
1
1
1
1
1
1
1
1
1
1
1
1
1
1
1
1
1
1
1
1
1
1
1
1
1
1
1
1
1
1
1
1
1.76726
2.62239
2.69203
2.6964
2.70049
2.70352
2.70575
2.70633
2.70696
2.70883
2.71089
2.713
2.71487
2.71632
2.71798
2.72051
2.72416
2.72887
2.73268
2.73462
2.73464
2.73317
2.73135
2.73137
2.73375
2.73877
2.74432
2.74826
2.74965
2.74915
2.74794
2.74761
2.74888
2.75221
2.75644
2.75968
2.76083
2.76024
2.75888
2.75826
2.75921
2.76216
2.7664
2.7703
2.77258
2.77296
2.77239
2.77199
2.7726
2.77468
2.77784
2.78113
2.78358
2.78467
2.78475
2.78464
2.78492
2.78605
2.78809
2.79079
2.79374
2.79648
2.79867
2.80008
2.80067
2.80073
2.80048
2.79997
2.7997
2.79995
2.80066
2.80171
2.8029
2.80414
2.80527
2.80628
2.80744
2.80879
2.81033
2.81174
2.81282
2.81344
2.81376
2.81416
2.81507
2.81681
2.81928
2.8227
2.82765
2.83347
2.83858
2.84167
2.84292
1
1
1
1
1
1
1
1
1
1
1
1
1
1
1
1
1
1
1
1
1
1
1
1
1
1
1
1
1
1
1
1
1
1
1
1
1
1
1
1
1
1
1
1
1
1
1
1
1
1
1
1
1
1
1
1
1
1
1
1
1
1
1
1
1
1
1
1
1
1
1
1
1
1
1
1
1
1
1
1
1
1
1
1
1
1
1
1
1
1
1
1
1
1
1
1
1
1
1
1.75552
2.62065
2.69021
2.69615
2.70056
2.70361
2.70577
2.70646
2.70698
2.7084
2.71016
2.71221
2.71426
2.71619
2.71844
2.72127
2.72462
2.72878
2.73218
2.73396
2.73401
2.73278
2.73132
2.73147
2.73383
2.73865
2.74399
2.74778
2.74909
2.74858
2.74752
2.74743
2.74892
2.75237
2.75652
2.75957
2.76051
2.75982
2.75853
2.75814
2.75923
2.76225
2.76638
2.77008
2.77224
2.77264
2.77224
2.77211
2.77289
2.77496
2.77787
2.7809
2.78323
2.78441
2.78471
2.78476
2.78511
2.78612
2.78795
2.79052
2.79349
2.79637
2.7987
2.80016
2.80068
2.80059
2.80027
2.79988
2.79974
2.80004
2.80068
2.80155
2.80257
2.80375
2.80504
2.80632
2.80758
2.80887
2.81024
2.81151
2.81256
2.81325
2.81368
2.81414
2.81502
2.81666
2.81904
2.82248
2.82749
2.83339
2.83856
2.84167
2.84293
1
1
1
1
1
1
1
1
1
1
1
1
1
1
1
1
1
1
1
1
1
1
1
1
1
1
1
1
1
1
1
1
1
1
1
1
1
1
1
1
1
1
1
1
1
1
1
1
1
1
1
1
1
1
1
1
1
1
1
1
1
1
1
1
1
1
1
1
1
1
1
1
1
1
1
1
1
1
1
1
1
1
1
1
1
1
1
1
1
1
1
1
1
1
1
1
1
1
1
1.7414
2.61813
2.68885
2.69548
2.70015
2.70342
2.70575
2.70668
2.70718
2.70824
2.70977
2.71175
2.71394
2.71616
2.7187
2.72164
2.72484
2.72851
2.73157
2.73321
2.73328
2.73233
2.73133
2.73169
2.73405
2.73858
2.74358
2.74716
2.74839
2.74794
2.74713
2.74728
2.74899
2.75245
2.75647
2.75934
2.76015
2.75943
2.75828
2.75808
2.75926
2.76227
2.76625
2.7698
2.77188
2.77236
2.77217
2.77228
2.77324
2.77521
2.77782
2.78055
2.78277
2.78409
2.78467
2.78498
2.78544
2.78631
2.78781
2.79012
2.79308
2.79615
2.79872
2.80031
2.80079
2.80051
2.79995
2.79957
2.79958
2.8
2.8007
2.80144
2.80224
2.80326
2.80466
2.80623
2.80768
2.809
2.8102
2.81131
2.81225
2.81294
2.81346
2.81401
2.81493
2.81649
2.81878
2.82223
2.82729
2.83326
2.8385
2.84165
2.84291
1
1
1
1
1
1
1
1
1
1
1
1
1
1
1
1
1
1
1
1
1
1
1
1
1
1
1
1
1
1
1
1
1
1
1
1
1
1
1
1
1
1
1
1
1
1
1
1
1
1
1
1
1
1
1
1
1
1
1
1
1
1
1
1
1
1
1
1
1
1
1
1
1
1
1
1
1
1
1
1
1
1
1
1
1
1
1
1
1
1
1
1
1
1
1
1
1
1
1
1.72373
2.61491
2.68815
2.69444
2.69925
2.70288
2.70536
2.70635
2.70694
2.70801
2.70961
2.71164
2.71392
2.71627
2.71884
2.72169
2.72468
2.72795
2.73074
2.73229
2.73241
2.73185
2.73142
2.732
2.73433
2.73848
2.74305
2.74636
2.74759
2.74731
2.74683
2.74719
2.749
2.75236
2.75615
2.75891
2.75976
2.75914
2.75818
2.75808
2.75926
2.76215
2.76596
2.76943
2.77152
2.77216
2.7722
2.77254
2.77358
2.7754
2.7777
2.78015
2.78225
2.78372
2.78461
2.78522
2.78582
2.78657
2.78772
2.78968
2.79252
2.79578
2.79865
2.80044
2.80094
2.8005
2.79965
2.79915
2.79926
2.79988
2.8007
2.8014
2.802
2.80281
2.80415
2.80595
2.80771
2.80913
2.81024
2.81115
2.81194
2.81255
2.81311
2.81376
2.8148
2.81633
2.81853
2.822
2.82707
2.83309
2.83841
2.84162
2.84288
1
1
1
1
1
1
1
1
1
1
1
1
1
1
1
1
1
1
1
1
1
1
1
1
1
1
1
1
1
1
1
1
1
1
1
1
1
1
1
1
1
1
1
1
1
1
1
1
1
1
1
1
1
1
1
1
1
1
1
1
1
1
1
1
1
1
1
1
1
1
1
1
1
1
1
1
1
1
1
1
1
1
1
1
1
1
1
1
1
1
1
1
1
1
1
1
1
1
1
1.70152
2.61041
2.68801
2.69326
2.69801
2.702
2.70475
2.70588
2.7066
2.70788
2.70972
2.7119
2.71424
2.71652
2.71881
2.72134
2.72399
2.72693
2.72958
2.7312
2.73159
2.73145
2.73155
2.73241
2.73464
2.73832
2.74241
2.74545
2.74676
2.74679
2.74662
2.7471
2.74889
2.75202
2.75559
2.75835
2.75939
2.75897
2.7582
2.75812
2.75921
2.76189
2.76555
2.76902
2.77122
2.77206
2.77227
2.77273
2.77379
2.77548
2.77754
2.77976
2.78175
2.78331
2.78447
2.78537
2.78613
2.78682
2.78769
2.78928
2.79192
2.79526
2.79844
2.80047
2.80104
2.80052
2.79944
2.79875
2.79888
2.79968
2.80069
2.80139
2.80181
2.80238
2.80359
2.80554
2.80762
2.80924
2.81033
2.81104
2.8116
2.8121
2.81266
2.81342
2.81461
2.81615
2.81829
2.82177
2.82684
2.83289
2.83828
2.84156
2.84279
1
1
1
1
1
1
1
1
1
1
1
1
1
1
1
1
1
1
1
1
1
1
1
1
1
1
1
1
1
1
1
1
1
1
1
1
1
1
1
1
1
1
1
1
1
1
1
1
1
1
1
1
1
1
1
1
1
1
1
1
1
1
1
1
1
1
1
1
1
1
1
1
1
1
1
1
1
1
1
1
1
1
1
1
1
1
1
1
1
1
1
1
1
1
1
1
1
1
1
1.67402
2.6043
2.68867
2.69232
2.69653
2.70052
2.70358
2.70516
2.7062
2.70781
2.70999
2.71235
2.71467
2.7167
2.71863
2.72069
2.72298
2.72566
2.7283
2.73012
2.73086
2.73122
2.73174
2.73277
2.73479
2.73798
2.74162
2.74449
2.74603
2.74642
2.74643
2.74695
2.7486
2.75145
2.75488
2.75776
2.75908
2.75887
2.75828
2.75816
2.75911
2.76157
2.7651
2.76859
2.77096
2.77202
2.77233
2.77279
2.77383
2.77545
2.77737
2.77945
2.78139
2.78297
2.78426
2.78533
2.78623
2.78693
2.78766
2.78904
2.79145
2.7947
2.79798
2.80024
2.80097
2.80047
2.79929
2.79849
2.79855
2.79941
2.80056
2.80129
2.80161
2.80198
2.80306
2.80507
2.80741
2.80926
2.81039
2.81092
2.81123
2.81164
2.81219
2.81306
2.81434
2.81589
2.81804
2.82152
2.82659
2.83265
2.83809
2.84144
2.84264
1
1
1
1
1
1
1
1
1
1
1
1
1
1
1
1
1
1
1
1
1
1
1
1
1
1
1
1
1
1
1
1
1
1
1
1
1
1
1
1
1
1
1
1
1
1
1
1
1
1
1
1
1
1
1
1
1
1
1
1
1
1
1
1
1
1
1
1
1
1
1
1
1
1
1
1
1
1
1
1
1
1
1
1
1
1
1
1
1
1
1
1
1
1
1
1
1
1
1
1.642
2.59676
2.69011
2.69159
2.69486
2.69852
2.70179
2.70402
2.70571
2.70776
2.71025
2.71275
2.71499
2.71677
2.71831
2.71993
2.7219
2.72436
2.72702
2.7291
2.73029
2.73111
2.73186
2.73289
2.73466
2.73744
2.7408
2.7437
2.74552
2.74617
2.74623
2.74666
2.74807
2.7507
2.75411
2.75718
2.75878
2.75881
2.75838
2.75818
2.759
2.76123
2.76464
2.76818
2.77075
2.77202
2.77238
2.77279
2.77373
2.77528
2.77717
2.77925
2.78121
2.7828
2.78407
2.78512
2.78605
2.78684
2.78764
2.78897
2.79122
2.79423
2.79736
2.79967
2.8006
2.80026
2.79921
2.79841
2.79838
2.79911
2.80021
2.80098
2.80128
2.80159
2.80261
2.80464
2.80712
2.80912
2.81029
2.81071
2.81087
2.8112
2.81176
2.81273
2.81405
2.81556
2.81772
2.82122
2.82632
2.83241
2.83788
2.84127
2.8424
1
1
1
1
1
1
1
1
1
1
1
1
1
1
1
1
1
1
1
1
1
1
1
1
1
1
1
1
1
1
1
1
1
1
1
1
1
1
1
1
1
1
1
1
1
1
1
1
1
1
1
1
1
1
1
1
1
1
1
1
1
1
1
1
1
1
1
1
1
1
1
1
1
1
1
1
1
1
1
1
1
1
1
1
1
1
1
1
1
1
1
1
1
1
1
1
1
1
1
1.6048
2.5871
2.69195
2.69145
2.69342
2.69644
2.69967
2.70253
2.70505
2.70763
2.71038
2.71292
2.71506
2.71668
2.71793
2.71919
2.72084
2.72312
2.72586
2.72827
2.72997
2.73112
2.73187
2.73269
2.73415
2.7367
2.74001
2.7431
2.74519
2.74597
2.74595
2.74619
2.74736
2.74989
2.75337
2.75664
2.7585
2.75875
2.75838
2.75814
2.75885
2.76091
2.76422
2.76781
2.77057
2.77204
2.77246
2.77274
2.77348
2.77492
2.77688
2.77908
2.78116
2.78279
2.78394
2.78482
2.78566
2.78656
2.78758
2.78901
2.79117
2.7939
2.79668
2.79888
2.79992
2.79986
2.79917
2.79851
2.7984
2.79888
2.79973
2.80041
2.80076
2.80117
2.80228
2.80432
2.8068
2.80882
2.80997
2.81035
2.81049
2.81084
2.81143
2.81247
2.81376
2.81515
2.81728
2.82081
2.82599
2.83215
2.83766
2.84103
2.84207
1
1
1
1
1
1
1
1
1
1
1
1
1
1
1
1
1
1
1
1
1
1
1
1
1
1
1
1
1
1
1
1
1
1
1
1
1
1
1
1
1
1
1
1
1
1
1
1
1
1
1
1
1
1
1
1
1
1
1
1
1
1
1
1
1
1
1
1
1
1
1
1
1
1
1
1
1
1
1
1
1
1
1
1
1
1
1
1
1
1
1
1
1
1
1
1
1
1
1
1.56313
2.57434
2.69288
2.69177
2.69295
2.6951
2.69795
2.70103
2.70414
2.70714
2.71014
2.71279
2.71493
2.71653
2.71765
2.7186
2.7199
2.72196
2.72477
2.72757
2.72977
2.73113
2.73176
2.73228
2.73345
2.73588
2.73925
2.74256
2.74485
2.74565
2.74552
2.74555
2.74655
2.74908
2.7527
2.75615
2.75821
2.75862
2.7583
2.75803
2.75864
2.76056
2.7638
2.76746
2.77042
2.77211
2.77259
2.77272
2.77317
2.77441
2.77642
2.77883
2.78111
2.78284
2.7839
2.78455
2.78518
2.78611
2.78739
2.78903
2.79117
2.79366
2.79604
2.79794
2.79905
2.79934
2.79908
2.79869
2.79852
2.79869
2.79914
2.79961
2.80005
2.80072
2.80204
2.80412
2.80648
2.80835
2.80942
2.80983
2.81007
2.81054
2.81123
2.81231
2.81349
2.81468
2.81673
2.82028
2.82558
2.83185
2.83741
2.84075
2.8417
1
1
1
1
1
1
1
1
1
1
1
1
1
1
1
1
1
1
1
1
1
1
1
1
1
1
1
1
1
1
1
1
1
1
1
1
1
1
1
1
1
1
1
1
1
1
1
1
1
1
1
1
1
1
1
1
1
1
1
1
1
1
1
1
1
1
1
1
1
1
1
1
1
1
1
1
1
1
1
1
1
1
1
1
1
1
1
1
1
1
1
1
1
1
1
1
1
1
1
1.51744
2.5583
2.693
2.69197
2.69298
2.6946
2.6969
2.69975
2.70295
2.70617
2.70935
2.71225
2.71463
2.71637
2.71744
2.71813
2.71908
2.72089
2.72367
2.72677
2.7294
2.73099
2.73151
2.73178
2.73274
2.73513
2.73865
2.74213
2.74445
2.74515
2.74491
2.74481
2.74575
2.74834
2.7521
2.75571
2.75795
2.75852
2.75823
2.75789
2.75839
2.76013
2.76328
2.76704
2.77023
2.77219
2.77281
2.77282
2.77299
2.77389
2.77578
2.77834
2.78089
2.78282
2.78391
2.78443
2.78486
2.78565
2.787
2.78883
2.79102
2.79336
2.79546
2.79707
2.79815
2.79872
2.7989
2.79882
2.7986
2.79845
2.79851
2.79873
2.79924
2.80025
2.80187
2.80398
2.80613
2.80775
2.80868
2.80918
2.80964
2.81029
2.81113
2.81222
2.81321
2.81413
2.81606
2.81964
2.82507
2.83149
2.83711
2.84041
2.84128
1
1
1
1
1
1
1
1
1
1
1
1
1
1
1
1
1
1
1
1
1
1
1
1
1
1
1
1
1
1
1
1
1
1
1
1
1
1
1
1
1
1
1
1
1
1
1
1
1
1
1
1
1
1
1
1
1
1
1
1
1
1
1
1
1
1
1
1
1
1
1
1
1
1
1
1
1
1
1
1
1
1
1
1
1
1
1
1
1
1
1
1
1
1
1
1
1
1
1
1.46696
2.53906
2.69269
2.69204
2.69322
2.69458
2.69629
2.69862
2.70154
2.7048
2.7082
2.71145
2.71424
2.71623
2.71728
2.71777
2.71844
2.72
2.7227
2.72595
2.72879
2.73044
2.73094
2.73117
2.73213
2.73454
2.73808
2.74155
2.7438
2.74443
2.74419
2.74408
2.74505
2.74771
2.75155
2.75527
2.75769
2.75844
2.7582
2.75781
2.75815
2.75964
2.76265
2.76648
2.76996
2.77226
2.77309
2.77305
2.773
2.77352
2.77508
2.77759
2.78035
2.78258
2.78387
2.78444
2.78476
2.78534
2.78654
2.78836
2.79059
2.79292
2.79492
2.79639
2.79739
2.79809
2.79854
2.79869
2.79848
2.79809
2.79786
2.79792
2.79848
2.79978
2.80167
2.80381
2.80571
2.80704
2.80784
2.80843
2.80916
2.81006
2.81109
2.81213
2.81288
2.81357
2.81532
2.8189
2.82447
2.83105
2.83676
2.84003
2.84085
1
1
1
1
1
1
1
1
1
1
1
1
1
1
1
1
1
1
1
1
1
1
1
1
1
1
1
1
1
1
1
1
1
1
1
1
1
1
1
1
1
1
1
1
1
1
1
1
1
1
1
1
1
1
1
1
1
1
1
1
1
1
1
1
1
1
1
1
1
1
1
1
1
1
1
1
1
1
1
1
1
1
1
1
1
1
1
1
1
1
1
1
1
1
1
1
1
1
1
1.41209
2.5172
2.6921
2.69197
2.69343
2.6946
2.69586
2.69766
2.70023
2.70338
2.7069
2.7105
2.7137
2.71595
2.71702
2.71742
2.71799
2.71939
2.72189
2.72501
2.72781
2.7295
2.73015
2.73061
2.73178
2.73416
2.73752
2.74079
2.74292
2.74359
2.74345
2.74346
2.74452
2.74718
2.75101
2.75477
2.75735
2.75831
2.75817
2.7578
2.75798
2.75918
2.76193
2.76576
2.7695
2.77219
2.77331
2.77333
2.77317
2.7734
2.77451
2.77673
2.77952
2.78206
2.78375
2.78453
2.78486
2.78525
2.78613
2.7877
2.78985
2.79224
2.79436
2.79589
2.79688
2.79755
2.798
2.7982
2.79801
2.79755
2.79723
2.79725
2.79787
2.79933
2.80138
2.80347
2.80514
2.80627
2.807
2.80768
2.80861
2.80981
2.81106
2.81199
2.81247
2.81298
2.81457
2.81811
2.82379
2.83054
2.83634
2.83959
2.8404
1
1
1
1
1
1
1
1
1
1
1
1
1
1
1
1
1
1
1
1
1
1
1
1
1
1
1
1
1
1
1
1
1
1
1
1
1
1
1
1
1
1
1
1
1
1
1
1
1
1
1
1
1
1
1
1
1
1
1
1
1
1
1
1
1
1
1
1
1
1
1
1
1
1
1
1
1
1
1
1
1
1
1
1
1
1
1
1
1
1
1
1
1
1
1
1
1
1
1
1.3537
2.49284
2.69139
2.69159
2.69312
2.69423
2.69542
2.69713
2.69943
2.70229
2.70563
2.70926
2.71266
2.71513
2.71643
2.71704
2.71768
2.71897
2.72115
2.72392
2.72652
2.72832
2.72933
2.73022
2.73166
2.734
2.73706
2.74001
2.74196
2.74268
2.74275
2.74301
2.74421
2.74682
2.7505
2.75421
2.75688
2.75803
2.75804
2.75779
2.75789
2.75887
2.76134
2.76503
2.76888
2.77189
2.77334
2.77354
2.7734
2.77345
2.77414
2.77593
2.77853
2.78125
2.78337
2.78455
2.78502
2.78528
2.7858
2.78695
2.78889
2.79135
2.79371
2.79549
2.79657
2.79713
2.79739
2.79743
2.79721
2.79684
2.79663
2.79673
2.79743
2.79895
2.80096
2.80289
2.80442
2.80548
2.80621
2.80697
2.80808
2.80954
2.81093
2.81173
2.81197
2.81236
2.81381
2.81731
2.82308
2.82996
2.83584
2.83906
2.83988
1
1
1
1
1
1
1
1
1
1
1
1
1
1
1
1
1
1
1
1
1
1
1
1
1
1
1
1
1
1
1
1
1
1
1
1
1
1
1
1
1
1
1
1
1
1
1
1
1
1
1
1
1
1
1
1
1
1
1
1
1
1
1
1
1
1
1
1
1
1
1
1
1
1
1
1
1
1
1
1
1
1
1
1
1
1
1
1
1
1
1
1
1
1
1
1
1
1
1
1.2944
2.46598
2.69028
2.69046
2.69207
2.6935
2.69512
2.69705
2.69925
2.70174
2.70462
2.70789
2.71121
2.71388
2.71556
2.71656
2.71742
2.71866
2.72053
2.72291
2.7253
2.7272
2.72861
2.73001
2.73174
2.73401
2.73672
2.73926
2.74096
2.74173
2.7421
2.74272
2.74412
2.74669
2.75017
2.75368
2.75628
2.75753
2.75777
2.75767
2.75781
2.75873
2.76099
2.76446
2.7682
2.77131
2.77302
2.77352
2.77349
2.77346
2.77393
2.77534
2.77767
2.78037
2.78275
2.78433
2.78505
2.78529
2.78553
2.78626
2.78792
2.79036
2.79295
2.79504
2.79629
2.79676
2.79673
2.7965
2.79618
2.796
2.79605
2.79636
2.79715
2.79857
2.80035
2.80208
2.80354
2.80465
2.8055
2.80637
2.80763
2.80921
2.81062
2.81131
2.81141
2.81171
2.81307
2.81654
2.82236
2.82933
2.83527
2.83846
2.83931
1
1
1
1
1
1
1
1
1
1
1
1
1
1
1
1
1
1
1
1
1
1
1
1
1
1
1
1
1
1
1
1
1
1
1
1
1
1
1
1
1
1
1
1
1
1
1
1
1
1
1
1
1
1
1
1
1
1
1
1
1
1
1
1
1
1
1
1
1
1
1
1
1
1
1
1
1
1
1
1
1
1
1
1
1
1
1
1
1
1
1
1
1
1
1
1
1
1
1
1.23324
2.43447
2.68792
2.68864
2.69065
2.69276
2.69505
2.69728
2.69942
2.70157
2.70389
2.70664
2.70969
2.71247
2.71454
2.71596
2.71709
2.71836
2.72004
2.7221
2.72431
2.72634
2.72812
2.72992
2.73185
2.73401
2.73637
2.73852
2.73999
2.74084
2.74154
2.74256
2.74425
2.74686
2.75012
2.75332
2.75567
2.75683
2.75723
2.75729
2.75761
2.75866
2.76086
2.76411
2.76764
2.77064
2.77247
2.77321
2.77335
2.77341
2.77381
2.77501
2.77708
2.7796
2.78197
2.78373
2.78471
2.78509
2.78526
2.78572
2.78708
2.7894
2.79208
2.79441
2.79586
2.79633
2.7961
2.79554
2.79512
2.79511
2.79545
2.79607
2.79692
2.79813
2.79957
2.80108
2.80255
2.80381
2.80487
2.8059
2.80725
2.80881
2.81011
2.81071
2.81076
2.81102
2.81236
2.81583
2.82166
2.82864
2.8346
2.83778
2.83869
1
1
1
1
1
1
1
1
1
1
1
1
1
1
1
1
1
1
1
1
1
1
1
1
1
1
1
1
1
1
1
1
1
1
1
1
1
1
1
1
1
1
1
1
1
1
1
1
1
1
1
1
1
1
1
1
1
1
1
1
1
1
1
1
1
1
1
1
1
1
1
1
1
1
1
1
1
1
1
1
1
1
1
1
1
1
1
1
1
1
1
1
1
1
1
1
1
1
1
1.16986
2.39621
2.68435
2.68644
2.68937
2.69226
2.6951
2.69763
2.69971
2.70157
2.70351
2.70584
2.70854
2.71121
2.71345
2.71518
2.71659
2.71797
2.71961
2.72155
2.72373
2.72592
2.72801
2.73006
2.73208
2.7341
2.73612
2.7379
2.73916
2.74002
2.74098
2.74237
2.74436
2.74703
2.75009
2.75299
2.75504
2.75604
2.7565
2.75678
2.75737
2.75865
2.76088
2.76397
2.76727
2.77005
2.77176
2.77251
2.77279
2.77304
2.7736
2.77481
2.77675
2.77904
2.7812
2.7829
2.78399
2.7846
2.78495
2.78535
2.78647
2.7886
2.79114
2.79353
2.79513
2.7957
2.79542
2.79469
2.79416
2.79422
2.79481
2.7957
2.79665
2.79762
2.79868
2.8
2.80148
2.80297
2.80429
2.80554
2.80692
2.80832
2.8094
2.80991
2.80999
2.81029
2.81167
2.81515
2.82095
2.82789
2.83383
2.83704
2.83805
1
1
1
1
1
1
1
1
1
1
1
1
1
1
1
1
1
1
1
1
1
1
1
1
1
1
1
1
1
1
1
1
1
1
1
1
1
1
1
1
1
1
1
1
1
1
1
1
1
1
1
1
1
1
1
1
1
1
1
1
1
1
1
1
1
1
1
1
1
1
1
1
1
1
1
1
1
1
1
1
1
1
1
1
1
1
1
1
1
1
1
1
1
1
1
1
1
1
1
1.1013
2.35413
2.68262
2.68547
2.68875
2.69206
2.69521
2.69794
2.70006
2.70184
2.70366
2.70574
2.70811
2.71051
2.71267
2.7145
2.71605
2.71754
2.71922
2.72117
2.72339
2.7257
2.72791
2.73009
2.73212
2.734
2.73572
2.7372
2.73832
2.73927
2.74054
2.74231
2.74455
2.74724
2.75015
2.75276
2.75455
2.75541
2.75586
2.75625
2.75702
2.75848
2.76079
2.76381
2.76695
2.76953
2.77107
2.77167
2.77193
2.77234
2.7732
2.77465
2.77659
2.77869
2.78053
2.78192
2.78294
2.78378
2.78447
2.78503
2.78606
2.78792
2.79019
2.79242
2.79409
2.79482
2.79465
2.79396
2.79339
2.79344
2.79415
2.79522
2.79622
2.797
2.79777
2.79891
2.80039
2.80212
2.80374
2.80521
2.80656
2.80771
2.80853
2.80895
2.8091
2.80952
2.811
2.81449
2.82022
2.82707
2.83297
2.83625
2.8374
1
1
1
1
1
1
1
1
1
1
1
1
1
1
1
1
1
1
1
1
1
1
1
1
1
1
1
1
1
1
1
1
1
1
1
1
1
1
1
1
1
1
1
1
1
1
1
1
1
1
1
1
1
1
1
1
1
1
1
1
1
1
1
1
1
1
1
1
1
1
1
1
1
1
1
1
1
1
1
1
1
1
1
1
1
1
1
1
1
1
1
1
1
1
1
1
1
1
1
1.0229
2.3102
2.68293
2.68577
2.68856
2.6919
2.69509
2.69789
2.70013
2.70198
2.70377
2.70577
2.70802
2.71026
2.71222
2.71391
2.71544
2.71704
2.71886
2.72096
2.72332
2.72575
2.72807
2.73033
2.73234
2.73401
2.73542
2.73664
2.73766
2.73874
2.74029
2.74229
2.74462
2.74726
2.75
2.75237
2.75403
2.75491
2.75541
2.75586
2.75665
2.75813
2.76046
2.7635
2.7666
2.76911
2.77052
2.77094
2.77102
2.7714
2.7725
2.77427
2.77636
2.77837
2.77995
2.781
2.78182
2.78275
2.78374
2.78463
2.78571
2.7873
2.78926
2.7912
2.79282
2.79373
2.79382
2.79337
2.79285
2.79282
2.79345
2.79455
2.79554
2.79619
2.79682
2.79784
2.79933
2.80126
2.80317
2.80484
2.80613
2.80702
2.80757
2.80789
2.80814
2.80873
2.81035
2.81383
2.81944
2.82616
2.83203
2.83542
2.83674
1
1
1
1
1
1
1
1
1
1
1
1
1
1
1
1
1
1
1
1
1
1
1
1
1
1
1
1
1
1
1
1
1
1
1
1
1
1
1
1
1
1
1
1
1
1
1
1
1
1
1
1
1
1
1
1
1
1
1
1
1
1
1
1
1
1
1
1
1
1
1
1
1
1
1
1
1
1
1
1
1
1
1
1
1
1
1
1
1
1
1
1
1
1
1
1
1
1
1
1.00046
2.25858
2.68242
2.68622
2.68869
2.69191
2.6951
2.698
2.70046
2.70248
2.70429
2.70621
2.70831
2.71039
2.71213
2.71359
2.71502
2.71664
2.71854
2.72075
2.72324
2.72579
2.72823
2.73053
2.73243
2.73388
2.73503
2.73609
2.73713
2.73841
2.7402
2.74233
2.74463
2.74709
2.74958
2.75177
2.75348
2.75457
2.75523
2.75571
2.75638
2.75765
2.75981
2.7628
2.76597
2.76855
2.77001
2.77039
2.77033
2.77055
2.77161
2.77354
2.77583
2.77791
2.77939
2.78022
2.78081
2.78164
2.78279
2.78404
2.78526
2.78668
2.78838
2.78998
2.79143
2.7925
2.79294
2.79279
2.79242
2.79228
2.79272
2.79367
2.79461
2.79525
2.79586
2.79682
2.79833
2.80041
2.80257
2.80439
2.8056
2.80626
2.80656
2.80677
2.80712
2.80792
2.80968
2.81312
2.81856
2.82514
2.83099
2.83458
2.83611
1
1
1
1
1
1
1
1
1
1
1
1
1
1
1
1
1
1
1
1
1
1
1
1
1
1
1
1
1
1
1
1
1
1
1
1
1
1
1
1
1
1
1
1
1
1
1
1
1
1
1
1
1
1
1
1
1
1
1
1
1
1
1
1
1
1
1
1
1
1
1
1
1
1
1
1
1
1
1
1
1
1
1
1
1
1
1
1
1
1
1
1
1
1
1
1
1
1
1
1
2.19707
2.68127
2.68592
2.68846
2.69157
2.6948
2.69789
2.70062
2.70291
2.70486
2.70675
2.70873
2.71061
2.71215
2.71344
2.71475
2.71631
2.71821
2.72046
2.72307
2.72577
2.72833
2.73064
2.73242
2.73364
2.73459
2.7356
2.73676
2.73829
2.74025
2.74242
2.74457
2.7467
2.7489
2.75095
2.75282
2.75421
2.7551
2.75563
2.75617
2.75717
2.759
2.7618
2.76499
2.76776
2.76945
2.76998
2.7699
2.76993
2.7707
2.77248
2.77485
2.77713
2.77874
2.77957
2.78002
2.78064
2.78172
2.78314
2.78453
2.78596
2.78751
2.78884
2.79008
2.79121
2.79196
2.79216
2.79197
2.79175
2.79197
2.79265
2.79352
2.79424
2.7949
2.79588
2.7974
2.79956
2.80187
2.80378
2.80493
2.80539
2.8055
2.80564
2.80609
2.80708
2.80896
2.81234
2.81757
2.824
2.82989
2.83373
2.83551
1
1
1
1
1
1
1
1
1
1
1
1
1
1
1
1
1
1
1
1
1
1
1
1
1
1
1
1
1
1
1
1
1
1
1
1
1
1
1
1
1
1
1
1
1
1
1
1
1
1
1
1
1
1
1
1
1
1
1
1
1
1
1
1
1
1
1
1
1
1
1
1
1
1
1
1
1
1
1
1
1
1
1
1
1
1
1
1
1
1
1
1
1
1
1
1
1
1
1
1
2.12812
2.6776
2.68478
2.68732
2.69068
2.69408
2.69747
2.7005
2.70304
2.7051
2.70699
2.70891
2.71069
2.71215
2.71337
2.71459
2.71605
2.71785
2.72008
2.72275
2.72559
2.72827
2.73058
2.73226
2.73334
2.73419
2.73521
2.73649
2.73816
2.74019
2.74231
2.74428
2.74619
2.74819
2.75013
2.75207
2.75369
2.75482
2.75548
2.75598
2.75675
2.75821
2.76064
2.76369
2.76662
2.76872
2.76962
2.76968
2.76961
2.77
2.77131
2.77349
2.77591
2.77786
2.77893
2.77937
2.77977
2.78062
2.78198
2.78352
2.7851
2.78663
2.78782
2.78887
2.78996
2.79091
2.79139
2.79138
2.79116
2.79116
2.79155
2.79233
2.79314
2.79394
2.79499
2.79651
2.79869
2.80106
2.803
2.8041
2.80444
2.80444
2.80456
2.80507
2.8062
2.80817
2.81146
2.81646
2.82277
2.82872
2.83286
2.83492
1
1
1
1
1
1
1
1
1
1
1
1
1
1
1
1
1
1
1
1
1
1
1
1
1
1
1
1
1
1
1
1
1
1
1
1
1
1
1
1
1
1
1
1
1
1
1
1
1
1
1
1
1
1
1
1
1
1
1
1
1
1
1
1
1
1
1
1
1
1
1
1
1
1
1
1
1
1
1
1
1
1
1
1
1
1
1
1
1
1
1
1
1
1
1
1
1
1
1
1
2.05374
2.6706
2.68322
2.68548
2.68896
2.69251
2.69622
2.69965
2.70254
2.7048
2.70676
2.70873
2.71055
2.71205
2.71328
2.71446
2.71582
2.71747
2.71958
2.72218
2.72503
2.72778
2.73012
2.73186
2.73301
2.73387
2.73488
2.73617
2.73782
2.73976
2.74179
2.74374
2.74562
2.74757
2.74943
2.7513
2.75291
2.75419
2.75505
2.75567
2.75641
2.75761
2.75962
2.76233
2.76522
2.76767
2.7691
2.76949
2.76942
2.76948
2.77019
2.77195
2.7744
2.77671
2.7782
2.77878
2.77903
2.77956
2.78069
2.78229
2.78407
2.78571
2.7869
2.78784
2.78881
2.78979
2.79045
2.79059
2.7904
2.79023
2.79043
2.79109
2.792
2.79297
2.79412
2.79566
2.7978
2.80012
2.80205
2.80312
2.80343
2.80342
2.80354
2.80407
2.80527
2.80727
2.81044
2.81524
2.82146
2.82754
2.83198
2.83426
1
1
1
1
1
1
1
1
1
1
1
1
1
1
1
1
1
1
1
1
1
1
1
1
1
1
1
1
1
1
1
1
1
1
1
1
1
1
1
1
1
1
1
1
1
1
1
1
1
1
1
1
1
1
1
1
1
1
1
1
1
1
1
1
1
1
1
1
1
1
1
1
1
1
1
1
1
1
1
1
1
1
1
1
1
1
1
1
1
1
1
1
1
1
1
1
1
1
1
1
1.97465
2.65966
2.6824
2.68382
2.68696
2.6903
2.6941
2.6978
2.70101
2.70351
2.70559
2.70772
2.70983
2.71158
2.71297
2.71419
2.71549
2.71697
2.71883
2.72118
2.72386
2.72657
2.72901
2.73108
2.73257
2.73361
2.7346
2.73574
2.73715
2.73884
2.7408
2.74289
2.74499
2.74705
2.74894
2.75064
2.75201
2.75318
2.75421
2.75507
2.75598
2.75713
2.75882
2.76113
2.76378
2.76636
2.76823
2.76908
2.76913
2.76896
2.76924
2.77052
2.77283
2.7754
2.7773
2.77812
2.7783
2.77854
2.77937
2.78093
2.78288
2.78471
2.78602
2.78693
2.78777
2.78865
2.78933
2.78958
2.78943
2.7892
2.78928
2.78985
2.79084
2.79199
2.79326
2.79483
2.79687
2.79906
2.80092
2.80199
2.80234
2.80243
2.80258
2.80307
2.80427
2.80623
2.80927
2.81394
2.82013
2.82639
2.8311
2.83349
1
1
1
1
1
1
1
1
1
1
1
1
1
1
1
1
1
1
1
1
1
1
1
1
1
1
1
1
1
1
1
1
1
1
1
1
1
1
1
1
1
1
1
1
1
1
1
1
1
1
1
1
1
1
1
1
1
1
1
1
1
1
1
1
1
1
1
1
1
1
1
1
1
1
1
1
1
1
1
1
1
1
1
1
1
1
1
1
1
1
1
1
1
1
1
1
1
1
1
1
1.88858
2.64355
2.68209
2.68279
2.68529
2.68817
2.69176
2.69538
2.69858
2.70108
2.70323
2.7056
2.70809
2.71041
2.71229
2.71377
2.71508
2.71635
2.71785
2.71977
2.7221
2.72466
2.72731
2.72989
2.73194
2.73333
2.73434
2.73522
2.73615
2.73741
2.73927
2.74164
2.74417
2.74652
2.7485
2.75004
2.75112
2.752
2.75302
2.75412
2.75532
2.75661
2.75817
2.76019
2.76256
2.76504
2.76708
2.76825
2.76849
2.7683
2.76834
2.76927
2.77139
2.77403
2.77619
2.77726
2.77748
2.77756
2.77813
2.77956
2.78159
2.78361
2.7851
2.78604
2.78676
2.78747
2.78808
2.78835
2.78826
2.78808
2.78811
2.78864
2.78968
2.79097
2.79238
2.79398
2.79589
2.79788
2.79964
2.80075
2.80122
2.80148
2.80167
2.80206
2.80317
2.80502
2.80796
2.81259
2.81884
2.82528
2.83016
2.83257
1
1
1
1
1
1
1
1
1
1
1
1
1
1
1
1
1
1
1
1
1
1
1
1
1
1
1
1
1
1
1
1
1
1
1
1
1
1
1
1
1
1
1
1
1
1
1
1
1
1
1
1
1
1
1
1
1
1
1
1
1
1
1
1
1
1
1
1
1
1
1
1
1
1
1
1
1
1
1
1
1
1
1
1
1
1
1
1
1
1
1
1
1
1
1
1
1
1
1
1
1.79026
2.62077
2.682
2.68253
2.68442
2.68676
2.68975
2.69286
2.69553
2.69758
2.69976
2.7025
2.70553
2.70855
2.71112
2.71302
2.71439
2.71542
2.71653
2.71799
2.71993
2.72233
2.72519
2.72831
2.73098
2.73278
2.73388
2.73453
2.73502
2.73583
2.7375
2.74006
2.74304
2.74578
2.74791
2.74939
2.75027
2.75088
2.75172
2.75285
2.75428
2.7558
2.75746
2.7594
2.76157
2.76383
2.76577
2.76701
2.76742
2.76736
2.76741
2.76822
2.77016
2.77269
2.77489
2.77614
2.77651
2.7766
2.77701
2.77826
2.78026
2.78239
2.78405
2.78508
2.78572
2.78625
2.78672
2.78698
2.78697
2.78688
2.78693
2.78745
2.78853
2.78992
2.79145
2.79307
2.79482
2.79659
2.79823
2.79943
2.80009
2.80057
2.80078
2.801
2.80194
2.80362
2.8065
2.81123
2.81766
2.82423
2.82915
2.83146
1
1
1
1
1
1
1
1
1
1
1
1
1
1
1
1
1
1
1
1
1
1
1
1
1
1
1
1
1
1
1
1
1
1
1
1
1
1
1
1
1
1
1
1
1
1
1
1
1
1
1
1
1
1
1
1
1
1
1
1
1
1
1
1
1
1
1
1
1
1
1
1
1
1
1
1
1
1
1
1
1
1
1
1
1
1
1
1
1
1
1
1
1
1
1
1
1
1
1
1
1.67824
2.59015
2.68119
2.68237
2.68438
2.6862
2.68848
2.69087
2.69263
2.69418
2.69609
2.69888
2.70242
2.70618
2.70942
2.71182
2.71331
2.71417
2.71503
2.71617
2.71777
2.71998
2.72291
2.72632
2.72943
2.73167
2.73299
2.73361
2.7339
2.73445
2.73587
2.73829
2.74137
2.74444
2.74684
2.74845
2.74938
2.7499
2.75051
2.75147
2.75289
2.75461
2.75653
2.75861
2.76074
2.76277
2.7644
2.76548
2.76596
2.76612
2.76641
2.76734
2.76914
2.77142
2.77346
2.77477
2.77533
2.77557
2.77598
2.77707
2.77893
2.78106
2.78283
2.78396
2.78458
2.78496
2.78528
2.78552
2.7856
2.78562
2.78575
2.7863
2.78738
2.78883
2.79047
2.79207
2.79361
2.79519
2.79673
2.79806
2.799
2.79968
2.79986
2.79988
2.80056
2.80203
2.80493
2.80991
2.81658
2.82324
2.82805
2.83014
1
1
1
1
1
1
1
1
1
1
1
1
1
1
1
1
1
1
1
1
1
1
1
1
1
1
1
1
1
1
1
1
1
1
1
1
1
1
1
1
1
1
1
1
1
1
1
1
1
1
1
1
1
1
1
1
1
1
1
1
1
1
1
1
1
1
1
1
1
1
1
1
1
1
1
1
1
1
1
1
1
1
1
1
1
1
1
1
1
1
1
1
1
1
1
1
1
1
1
1
1.55472
2.55314
2.679
2.68048
2.68323
2.68519
2.68732
2.68913
2.69017
2.69121
2.69286
2.6956
2.69933
2.70348
2.7072
2.71002
2.7117
2.71259
2.71339
2.71442
2.71582
2.71785
2.72066
2.72405
2.72729
2.72983
2.73147
2.73233
2.73275
2.73334
2.73461
2.73669
2.7394
2.74247
2.74513
2.7471
2.74834
2.749
2.74947
2.75013
2.75127
2.75301
2.75524
2.75765
2.75991
2.76178
2.76304
2.76379
2.76423
2.76466
2.76535
2.76652
2.76823
2.77021
2.77199
2.77323
2.77396
2.77443
2.77495
2.77592
2.77763
2.77965
2.78145
2.78266
2.78329
2.78358
2.7838
2.78402
2.78418
2.78433
2.78457
2.78517
2.78623
2.78769
2.78938
2.79093
2.79228
2.79366
2.79518
2.79669
2.79794
2.79878
2.79887
2.79866
2.79902
2.80027
2.80331
2.80864
2.81558
2.82226
2.82684
2.82861
1
1
1
1
1
1
1
1
1
1
1
1
1
1
1
1
1
1
1
1
1
1
1
1
1
1
1
1
1
1
1
1
1
1
1
1
1
1
1
1
1
1
1
1
1
1
1
1
1
1
1
1
1
1
1
1
1
1
1
1
1
1
1
1
1
1
1
1
1
1
1
1
1
1
1
1
1
1
1
1
1
1
1
1
1
1
1
1
1
1
1
1
1
1
1
1
1
1
1
1
1.42321
2.50912
2.67821
2.67818
2.68112
2.68366
2.68614
2.68781
2.68847
2.6891
2.69048
2.69305
2.6967
2.70087
2.70473
2.70776
2.70961
2.71069
2.71166
2.71281
2.71427
2.71622
2.71879
2.72184
2.7248
2.72733
2.72931
2.73064
2.73152
2.73242
2.73368
2.73539
2.73751
2.74019
2.74289
2.74528
2.74706
2.74807
2.74855
2.74891
2.74963
2.75117
2.75356
2.75633
2.75884
2.7607
2.76171
2.76214
2.76245
2.76306
2.76414
2.76559
2.76727
2.76901
2.77052
2.77164
2.77247
2.77316
2.77383
2.77475
2.7763
2.77817
2.77992
2.78118
2.78185
2.78213
2.7823
2.7825
2.78273
2.78301
2.78339
2.78406
2.78508
2.78648
2.78814
2.7896
2.79081
2.79209
2.79363
2.79533
2.79689
2.79784
2.79778
2.79729
2.79731
2.79844
2.80169
2.80741
2.81459
2.82122
2.82547
2.82691
1
1
1
1
1
1
1
1
1
1
1
1
1
1
1
1
1
1
1
1
1
1
1
1
1
1
1
1
1
1
1
1
1
1
1
1
1
1
1
1
1
1
1
1
1
1
1
1
1
1
1
1
1
1
1
1
1
1
1
1
1
1
1
1
1
1
1
1
1
1
1
1
1
1
1
1
1
1
1
1
1
1
1
1
1
1
1
1
1
1
1
1
1
1
1
1
1
1
1
1
1.29362
2.45616
2.67772
2.67672
2.67941
2.68209
2.68477
2.68655
2.68742
2.68812
2.68936
2.6916
2.69485
2.69866
2.70234
2.70535
2.70731
2.70863
2.70988
2.71132
2.71302
2.71507
2.71747
2.72007
2.72251
2.72463
2.72665
2.72846
2.73001
2.73144
2.73285
2.7343
2.7359
2.73798
2.74045
2.74304
2.74534
2.74688
2.74756
2.74777
2.74812
2.74933
2.75165
2.75461
2.7574
2.7594
2.76037
2.76063
2.76081
2.76145
2.76275
2.76442
2.76614
2.76776
2.76908
2.77008
2.77092
2.77175
2.77257
2.77348
2.77486
2.77661
2.77828
2.77956
2.7803
2.78062
2.78077
2.78098
2.78126
2.78168
2.78222
2.78297
2.78391
2.7852
2.78673
2.78806
2.78921
2.79052
2.79214
2.79401
2.79576
2.79676
2.79656
2.79578
2.79553
2.79662
2.8001
2.80618
2.81353
2.82007
2.82395
2.82513
1
1
1
1
1
1
1
1
1
1
1
1
1
1
1
1
1
1
1
1
1
1
1
1
1
1
1
1
1
1
1
1
1
1
1
1
1
1
1
1
1
1
1
1
1
1
1
1
1
1
1
1
1
1
1
1
1
1
1
1
1
1
1
1
1
1
1
1
1
1
1
1
1
1
1
1
1
1
1
1
1
1
1
1
1
1
1
1
1
1
1
1
1
1
1
1
1
1
1
1
1.17129
2.39722
2.6778
2.67707
2.67924
2.68199
2.68466
2.68645
2.68741
2.68821
2.68942
2.69139
2.69416
2.69739
2.70056
2.70332
2.70534
2.70683
2.70827
2.70998
2.71199
2.71423
2.71657
2.71883
2.72077
2.72235
2.72402
2.72593
2.72794
2.72994
2.73174
2.73322
2.73456
2.7361
2.73819
2.74068