/*--------------------------------*- C++ -*----------------------------------*\
  =========                 |
  \\      /  F ield         | OpenFOAM: The Open Source CFD Toolbox
   \\    /   O peration     | Website:  https://openfoam.org
    \\  /    A nd           | Version:  7
     \\/     M anipulation  |
\*---------------------------------------------------------------------------*/
FoamFile
{
    version     2.0;
    format      ascii;
    class       volScalarField;
    location    "0.9";
    object      p;
}
// * * * * * * * * * * * * * * * * * * * * * * * * * * * * * * * * * * * * * //

dimensions      [1 -1 -2 0 0 0 0];

internalField   nonuniform List<scalar> 
16128
(
1
1
1
1
1
1
1
1
1
1
1
1
1
1
1
1
1
1
1
1
1
1
1
1
1
1
1
3.91983
10.4866
11.0656
11.1788
11.2895
11.3517
11.3726
11.3876
11.4375
11.5501
11.6828
11.7982
11.887
11.9496
11.9887
12.0191
12.0497
12.0962
12.1821
12.2724
12.3443
1
1
1
1
1
1
1
1
1
1
1
1
1
1
1
1
1
1
1
1
1
1
1
1
1
1
1
3.84834
10.4103
11.0674
11.1759
11.2815
11.344
11.3633
11.3811
11.4314
11.543
11.6749
11.7904
11.8799
11.943
11.9819
12.0119
12.0395
12.0831
12.1659
12.2547
12.3254
1
1
1
1
1
1
1
1
1
1
1
1
1
1
1
1
1
1
1
1
1
1
1
1
1
1
1
3.68908
10.3109
11.0527
11.1581
11.2606
11.3256
11.3448
11.3677
11.4206
11.5314
11.6625
11.7771
11.8664
11.9305
11.9715
12.0027
12.027
12.066
12.1424
12.2265
12.2938
1
1
1
1
1
1
1
1
1
1
1
1
1
1
1
1
1
1
1
1
1
1
1
1
1
1
1
3.44704
10.1705
11.0357
11.1438
11.2401
11.3028
11.3165
11.3436
11.4016
11.5136
11.6449
11.7565
11.8416
11.9038
11.9468
11.983
12.0088
12.0453
12.1145
12.1911
12.2505
1
1
1
1
1
1
1
1
1
1
1
1
1
1
1
1
1
1
1
1
1
1
1
1
1
1
1
3.14653
9.98644
10.9984
11.1064
11.2056
11.2718
11.2816
11.3133
11.3791
11.4931
11.6243
11.7311
11.8082
11.8635
11.9054
11.9484
11.9813
12.0191
12.0833
12.151
12.1998
1
1
1
1
1
1
1
1
1
1
1
1
1
1
1
1
1
1
1
1
1
1
1
1
1
1
1
2.80201
9.72785
10.9359
11.0535
11.162
11.2401
11.2493
11.2837
11.3524
11.4643
11.5933
11.6955
11.7647
11.8113
11.8487
11.8975
11.9411
11.9826
12.0449
12.1048
12.1424
1
1
1
1
1
1
1
1
1
1
1
1
1
1
1
1
1
1
1
1
1
1
1
1
1
1
1
2.42201
9.37585
10.8599
10.9955
11.1203
11.2029
11.2212
11.2545
11.3198
11.4244
11.5484
11.6473
11.7112
11.7498
11.7806
11.8315
11.8847
11.9308
11.9943
12.0507
12.08
1
1
1
1
1
1
1
1
1
1
1
1
1
1
1
1
1
1
1
1
1
1
1
1
1
1
1
2.01722
8.87739
10.7735
10.9488
11.083
11.1568
11.1899
11.2235
11.2832
11.3772
11.4914
11.5862
11.6461
11.6799
11.7062
11.7574
11.8158
11.8634
11.9269
11.9806
12.0043
1
1
1
1
1
1
1
1
1
1
1
1
1
1
1
1
1
1
1
1
1
1
1
1
1
1
1
1.58914
8.22961
10.7424
10.9251
11.0562
11.1221
11.1589
11.187
11.232
11.3127
11.4154
11.5097
11.5679
11.5995
11.6238
11.6732
11.7317
11.7784
11.8394
11.8899
11.9109
1
1
1
1
1
1
1
1
1
1
1
1
1
1
1
1
1
1
1
1
1
1
1
1
1
1
1
1.16807
7.3305
10.724
10.9169
11.0247
11.0771
11.1047
11.1276
11.164
11.2365
11.331
11.4254
11.4803
11.5098
11.5345
11.582
11.6368
11.678
11.728
11.7675
11.7827
1
1
1
1
1
1
1
1
1
1
1
1
1
1
1
1
1
1
1
1
1
1
1
1
1
1
1
1.00491
6.25783
10.5558
10.841
10.9586
11.0245
11.0485
11.0659
11.0844
11.1489
11.2413
11.3316
11.3831
11.4096
11.4326
11.4728
11.5156
11.5484
11.5859
11.6133
11.6251
1
1
1
1
1
1
1
1
1
1
1
1
1
1
1
1
1
1
1
1
1
1
1
1
1
1
1
1.00002
5.04096
10.3076
10.779
10.8912
10.9668
10.9858
10.9992
11.0042
11.0485
11.1357
11.2199
11.2708
11.2971
11.3188
11.35
11.3782
11.3993
11.4141
11.4151
11.408
1
1
1
1
1
1
1
1
1
1
1
1
1
1
1
1
1
1
1
1
1
1
1
1
1
1
1
1
3.8525
9.88294
10.7134
10.827
10.9053
10.9295
10.9326
10.9151
10.9365
11.0095
11.0864
11.1395
11.1669
11.1871
11.2024
11.2007
11.1928
11.1781
11.1567
11.1533
1
1
1
1
1
1
1
1
1
1
1
1
1
1
1
1
1
1
1
1
1
1
1
1
1
1
1
1
2.68507
9.17335
10.6855
10.7533
10.8226
10.8462
10.8537
10.8291
10.8373
10.8887
10.9413
10.9819
11.0076
11.023
11.0166
10.9963
10.9676
10.924
10.8564
10.7668
1
1
1
1
1
1
1
1
1
1
1
1
1
1
1
1
1
1
1
1
1
1
1
1
1
1
1
1
1.6484
8.32465
10.7127
10.7428
10.8041
10.8314
10.8263
10.7774
10.7486
10.7597
10.7854
10.8134
10.8375
10.8388
10.7994
10.75
10.6676
10.5244
10.3706
10.2494
1
1
1
1
1
1
1
1
1
1
1
1
1
1
1
1
1
1
1
1
1
1
1
1
1
1
1
1
1.0471
7.07768
10.4796
10.5405
10.6003
10.6562
10.6845
10.6488
10.621
10.6203
10.6388
10.6584
10.6667
10.628
10.5424
10.4435
10.3044
10.1081
9.87614
9.77137
1
1
1
1
1
1
1
1
1
1
1
1
1
1
1
1
1
1
1
1
1
1
1
1
1
1
1
1
1.00033
5.45601
10.12
10.4283
10.5218
10.5902
10.6092
10.5511
10.5014
10.481
10.4917
10.5046
10.492
10.4096
10.2715
10.11
9.88758
9.51216
8.5924
6.62779
1
1
1
1
1
1
1
1
1
1
1
1
1
1
1
1
1
1
1
1
1
1
1
1
1
1
1
1
1
3.82645
9.53271
10.2885
10.4066
10.483
10.5061
10.4439
10.3802
10.3337
10.3253
10.3263
10.2954
10.1802
9.99249
9.74297
9.39542
8.79801
7.82216
5.65806
1
1
1
1
1
1
1
1
1
1
1
1
1
1
1
1
1
1
1
1
1
1
1
1
1
1
1
1
1
2.25724
8.6987
10.3293
10.3319
10.37
10.3835
10.3163
10.2392
10.1615
10.1229
10.0967
10.0477
9.92006
9.70263
9.38687
8.94199
8.28036
7.18387
5.27157
1
1
1
1
1
1
1
1
1
1
1
1
1
1
1
1
1
1
1
1
1
1
1
1
1
1
1
1
1
1.14876
7.40003
10.3655
10.2268
10.2348
10.2486
10.1846
10.1028
9.99789
9.92199
9.85412
9.77958
9.64526
9.41234
9.06464
8.54818
7.90469
6.70755
5.21594
1
1
1
1
1
1
1
1
1
1
1
1
1
1
1
1
1
1
1
1
1
1
1
1
1
1
1
1
1
1.00234
5.49092
9.85357
10.0921
10.1481
10.1616
10.0976
10.0013
9.87339
9.75726
9.64348
9.53164
9.37718
9.12767
8.76328
8.2371
7.56662
6.46382
5.26367
1
1
1
1
1
1
1
1
1
1
1
1
1
1
1
1
1
1
1
1
1
1
1
1
1
1
1
1
1
0.999995
3.2748
9.15741
10.0085
10.0376
10.0645
10.0016
9.89738
9.75772
9.60578
9.45393
9.30724
9.131
8.8752
8.49808
7.98999
7.30061
6.36546
5.40079
1
1
1
1
1
1
1
1
1
1
1
1
1
1
1
1
1
1
1
1
1
1
1
1
1
1
1
1
1
0.999999
1.49607
7.93248
10.1253
9.96618
9.93767
9.87943
9.78198
9.64489
9.47114
9.29056
9.11142
8.91227
8.65136
8.27705
7.78651
7.11564
6.32108
5.5159
1
1
1
1
1
1
1
1
1
1
1
1
1
1
1
1
1
1
1
1
1
1
1
1
1
1
1
1
1
1
1.02146
5.98744
9.68571
9.75474
9.77074
9.72662
9.64814
9.52898
9.35373
9.15848
8.95279
8.73062
8.4474
8.09466
7.60148
6.98428
6.30806
5.62209
1
1
1
1
1
1
1
1
1
1
1
1
1
1
1
1
1
1
1
1
1
1
1
1
1
1
1
1
1
1
1.00002
3.41867
9.04185
9.66332
9.67003
9.61889
9.53239
9.41547
9.24373
9.03733
8.81358
8.57359
8.27194
7.93525
7.46307
6.9065
6.31638
5.69622
1
1
1
1
1
1
1
1
1
1
1
1
1
1
1
1
1
1
1
1
1
1
1
1
1
1
1
1
1
1
0.999997
1.42072
7.66748
9.71313
9.57093
9.49227
9.39995
9.28979
9.13789
8.93087
8.70326
8.43766
8.12543
7.7777
7.34896
6.85851
6.33715
5.77196
1
1
1
1
1
1
1
1
1
1
1
1
1
1
1
1
1
1
1
1
1
1
1
1
1
1
1
1
1
1
0.999999
1.0144
5.3452
9.21426
9.38977
9.36167
9.2785
9.17109
9.0376
8.84233
8.61346
8.32806
8.00818
7.65234
7.26388
6.83333
6.36003
5.84359
1
1
1
1
1
1
1
1
1
1
1
1
1
1
1
1
1
1
1
1
1
1
1
1
1
1
1
1
1
1
1
0.999985
2.58079
8.55088
9.39875
9.27816
9.15924
9.03444
8.89938
8.71958
8.49392
8.21073
7.89367
7.55066
7.1843
6.79802
6.36709
5.90766
1
1
1
1
1
1
1
1
1
1
1
1
1
1
1
1
1
1
1
1
1
1
1
1
1
1
1
1
1
1
1
0.999995
1.16678
6.70325
9.25055
9.13283
9.04186
8.91739
8.77366
8.60416
8.38835
8.11912
7.81495
7.48355
7.12995
6.76682
6.36866
5.95193
1
1
1
1
1
1
1
1
1
1
1
1
1
1
1
1
1
1
1
1
1
1
1
1
1
1
1
1
1
1
1
0.999999
1.00208
3.68427
8.65263
9.05277
8.98259
8.83958
8.66975
8.49685
8.29317
8.03441
7.74561
7.42599
7.08565
6.73438
6.36319
5.97772
1
1
1
1
1
1
1
1
1
1
1
1
1
1
1
1
1
1
1
1
1
1
1
1
1
1
1
1
1
1
1
1
0.999999
1.41208
7.22711
9.03409
8.91352
8.77738
8.58483
8.39888
8.19949
7.96149
7.69114
7.39164
7.06903
6.72682
6.37086
6.0008
1
1
1
1
1
1
1
1
1
1
1
1
1
1
1
1
1
1
1
1
1
1
1
1
1
1
1
1
1
1
1
1
1
1.01289
4.30668
8.44883
8.73942
8.6573
8.5152
8.33464
8.12849
7.89662
7.63857
7.35514
7.04845
6.7215
6.38011
6.02678
1
1
1
1
1
1
1
1
1
1
1
1
1
1
1
1
1
1
1
1
1
1
1
1
1
1
1
1
1
1
1
1
1
1.00002
1.6102
7.25202
8.76194
8.59796
8.46013
8.2804
8.06712
7.83376
7.58444
7.31465
7.02523
6.71913
6.39505
6.06127
1
1
1
1
1
1
1
1
1
1
1
1
1
1
1
1
1
1
1
1
1
1
1
1
1
1
1
1
1
1
1
1
1
1
1.02657
4.40712
8.21832
8.45903
8.3648
8.20731
8.0069
7.78139
7.54082
7.28117
7.00221
6.70926
6.40399
6.09169
1
1
1
1
1
1
1
1
1
1
1
1
1
1
1
1
1
1
1
1
1
1
1
1
1
1
1
1
1
1
1
1
1
1
1.00009
1.65665
6.94474
8.48803
8.32854
8.16177
7.96035
7.73575
7.49852
7.24613
6.97806
6.69913
6.41338
6.12081
1
1
1
1
1
1
1
1
1
1
1
1
1
1
1
1
1
1
1
1
1
1
1
1
1
1
1
1
1
1
1
1
1
1
1
1.02965
3.99087
7.89971
8.18215
8.05354
7.89069
7.69196
7.46671
7.22248
6.96467
6.69891
6.42787
6.14823
1
1
1
1
1
1
1
1
1
1
1
1
1
1
1
1
1
1
1
1
1
1
1
1
1
1
1
1
1
1
1
1
1
1
1
1.00014
1.51796
6.39225
8.19956
8.02082
7.85272
7.65565
7.4349
7.19554
6.94675
6.69469
6.43784
6.1708
1
1
1
1
1
1
1
1
1
1
1
1
1
1
1
1
1
1
1
1
1
1
1
1
1
1
1
1
1
1
1
1
1
1
1
1
1.01834
3.13915
7.45141
7.96686
7.78237
7.61628
7.41394
7.1834
6.94114
6.6983
6.45329
6.20135
1
1
1
1
1
1
1
1
1
1
1
1
1
1
1
1
1
1
1
1
1
1
1
1
1
1
1
1
1
1
1
1
1
1
1
1
1.00009
1.27294
5.52302
7.86742
7.7601
7.58042
7.38545
7.1673
6.93406
6.69319
6.45089
6.21244
1
1
1
1
1
1
1
1
1
1
1
1
1
1
1
1
1
1
1
1
1
1
1
1
1
1
1
1
1
1
1
1
1
1
1
1
1
1.00559
2.34413
6.82607
7.74075
7.53848
7.3671
7.16731
6.94854
6.71213
6.47134
6.23774
1
1
1
1
1
1
1
1
1
1
1
1
1
1
1
1
1
1
1
1
1
1
1
1
1
1
1
1
1
1
1
1
1
1
1
1
1
1.00002
1.11311
4.15682
7.33555
7.46523
7.29333
7.11222
6.91467
6.69625
6.46777
6.24304
1
1
1
1
1
1
1
1
1
1
1
1
1
1
1
1
1
1
1
1
1
1
1
1
1
1
1
1
1
1
1
1
1
1
1
1
1
1
1.00147
1.61992
5.75149
7.5152
7.31015
7.12964
6.9319
6.72399
6.5088
6.29142
1
1
1
1
1
1
1
1
1
1
1
1
1
1
1
1
1
1
1
1
1
1
1
1
1
1
1
1
1
1
1
1
1
1
1
1
1
1
1
1.02656
2.69928
6.64071
7.33
7.09427
6.9252
6.73256
6.53336
6.33042
1
1
1
1
1
1
1
1
1
1
1
1
1
1
1
1
1
1
1
1
1
1
1
1
1
1
1
1
1
1
1
1
1
1
1
1
1
1
1
1.00019
1.18051
4.12689
6.92847
7.09857
6.90239
6.72349
6.53386
6.33432
1
1
1
1
1
1
1
1
1
1
1
1
1
1
1
1
1
1
1
1
1
1
1
1
1
1
1
1
1
1
1
1
1
1
1
1
1
1
1
1
1.00336
1.62645
5.31649
7.06356
6.94528
6.75268
6.55951
6.36069
1
1
1
1
1
1
1
1
1
1
1
1
1
1
1
1
1
1
1
1
1
1
1
1
1
1
1
1
1
1
1
1
1
1
1
1
1
1
1
1
1.00001
1.02759
2.41306
6.08065
6.9632
6.7882
6.58781
6.39774
1
1
1
1
1
1
1
1
1
1
1
1
1
1
1
1
1
1
1
1
1
1
1
1
1
1
1
1
1
1
1
1
1
1
1
1
1
1
1
1
1
1.00022
1.12871
3.38376
6.46829
6.80983
6.60611
6.40665
1
1
1
1
1
1
1
1
1
1
1
1
1
1
1
1
1
1
1
1
1
1
1
1
1
1
1
1
1
1
1
1
1
1
1
1
1
1
1
1
1
1
1.00214
1.36667
4.32484
6.52155
6.69338
6.47588
1
1
1
1
1
1
1
1
1
1
1
1
1
1
1
1
1
1
1
1
1
1
1
1
1
1
1
1
1
1
1
1
1
1
1
1
1
1
1
1
1
1
1.00001
1.01127
1.75699
5.05487
6.51272
6.52615
1
1
1
1
1
1
1
1
1
1
1
1
1
1
1
1
1
1
1
1
1
1
1
1
1
1
1
1
1
1
1
1
1
1
1
1
1
1
1
1
1
1
1
1.00007
1.03973
2.28757
5.48632
6.50049
1
1
1
1
1
1
1
1
1
1
1
1
1
1
1
1
1
1
1
1
1
1
1
1
1
1
1
1
1
1
1
1
1
1
1
1
1
1
1
1
1
1
1
1
1.00039
1.1081
2.82514
5.74887
1
1
1
1
1
1
1
1
1
1
1
1
1
1
1
1
1
1
1
1
1
1
1
1
1
1
1
1
1
1
1
1
1
1
1
1
1
1
1
1
1
1
1
1
1
1.00167
1.21966
3.31613
1
1
1
1
1
1
1
1
1
1
1
1
1
1
1
1
1
1
1
1
1
1
1
1
1
1
1
1
1
1
1
1
1
1
1
1
1
1
1
1
1
1
1
1
1
1
1.00509
1.36553
1
1
1
1
1
1
1
1
1
1
1
1
1
1
1
1
1
1
1
1
1
1
1
1
1
1
1
1
1
1
1
1
1
1
1
1
1
1
1
1
1
1
1
1
1
1
1.00002
1.01184
1
1
1
1
1
1
1
1
1
1
1
1
1
1
1
1
1
1
1
1
1
1
1
1
1
1
1
1
1
1
1
1
1
1
1
1
1
1
1
1
1
1
1
1
1
1
1
1.00008
1
1
1
1
1
1
1
1
1
1
1
1
1
1
1
1
1
1
1
1
1
1
1
1
1
1
1
1
1
1
1
1
1
1
1
1
1
1
1
1
1
1
1
1
1
1
1
1
1
1
1
1
1
1
1
1
1
1
1
1
1
1
1
1
1
1
1
1
1
1
1
1
1
1
1
1
1
1
1
1
1
1
1
1
1
1
1
1
1
1
1
1
1
1
1
1
1
1
1
1
1
1
1
1
1
1
1
1
1
1
1
1
1
1
1
1
1
1
1
1
1
1
1
1
1
1
1
1
1
1
1
1
1
1
1
1
1
1
1
1
1
1
1
1
1
1
1
1
1
1
1
1
1
1
1
1
1
1
1
1
1
1
1
1
1
1
1
1
1
1
1
1
1
1
1
1
1
1
1
1
1
1
1
1
1
1
1
1
1
1
1
1
1
1
1
1
1
1
1
1
1
1
1
1
1
1
1
1
1
1
1
1
1
1
1
1
1
1
1
1
1
1
1
1
1
1
1
1
1
1
1
1
1
1
1
1
1
1
1
1
1
1
1
1
1
1
1
1
1
1
1
1
1
1
1
1
1
1
1
1
1
1
1
1
1
1
1
1
1
1
1
1
1
1
1
1
1
1
1
1
1
1
1
1
1
1
1
1
1
1
1
1
1
1
1
1
1
1
1
1
1
1
1
1
1
1
1
1
1
1
1
1
1
1
1
1
1
1
1
1
1
1
1
1
1
1
1
1
1
1
1
1
1
1
1
1
1
1
1
1
1
1
1
1
1
1
1
1
1
1
1
1
1
1
1
1
1
1
1
1
1
1
1
1
1
1
1
1
1
1
1
1
1
1
1
1
1
1
1
1
1
1
1
1
1
1
1
1
1
1
1
1
1
1
1
1
1
1
1
1
1
1
1
1
1
1
1
1
1
1
1
1
1
1
1
1
1
1
1
1
1
1
1
1
1
1
1
1
1
1
1
1
1
1
1
1
1
1
1
1
1
1
1
1
1
1
1
1
1
1
1
1
1
1
1
1
1
1
1
1
1
1
1
1
1
1
1
1
1
1
1
1
1
1
1
1
1
1
1
1
1
1
1
1
1
1
1
1
1
1
1
1
1
1
1
1
1
1
1
1
1
1
1
1
1
1
1
1
1
1
1
1
1
1
1
1
1
1
1
1
1
1
1
1
1
1
1
1
1
1
1
1
1
1
1
1
1
1
1
1
1
1
1
1
1
1
1
1
1
1
1
1
1
1
1
1
1
1
1
1
1
1
1
1
1
1
1
1
1
1
1
1
1
1
1
1
1
1
1
1
1
1
1
1
1
1
1
1
1
1
1
1
1
1
1
1
1
1
1
1
1
1
1
1
1
1
1
1
1
1
1
1
1
1
1
1
1
1
1
1
1
1
1
1
1
1
1
1
1
1
1
1
1
1
1
1
1
1
1
1
1
1
1
1
1
1
1
1
1
1
1
1
1
1
1
1
1
1
1
1
1
1
1
1
1
1
1
1
1
1
1
1
1
1
1
1
1
1
1
1
1
1
1
1
1
1
1
1
1
1
1
1
1
1
1
1
1
1
1
1
1
1
1
1
1
1
1
1
1
1
1
1
1
1
1
1
1
1
1
1
1
1
1
1
1
1
1
1
1
1
1
1
1
1
1
1
1
1
1
1
1
1
1
1
1
1
1
1
1
1
1
1
1
1
1
1
1
1
1
1
1
1
1
1
1
1
1
1
1
1
1
1
1
1
1
1
1
1
1
1
1
1
1
1
1
1
1
1
1
1
1
1
1
1
1
1
1
1
1
1
1
1
1
1
1
1
1
1
1
1
1
1
1
1
1
1
1
1
1
1
1
1
1
1
1
1
1
1
1
1
1
1
1
1
1
1
1
1
1
1
1
1
1
1
1
1
1
1
1
1
1
1
1
1
1
1
1
1
1
1
1
1
1
1
1
1
1
1
1
1
1
1
1
1
1
1
1
1
1
1
1
1
1
1
1
1
1
1
1
1
1
1
1
1
1
1
1
1
1
1
1
1
1
1
1
1
1
1
1
1
1
1
1
1
1
1
1
1
1
1
1
1
1
1
1
1
1
1
1
1
1
1
1
1
1
1
1
1
1
1
1
1
1
1
1
1
1
1
1
1
1
1
1
1
1
1
1
1
1
1
1
1
1
1
1
1
1
1
1
1
1
1
1
1
1
1
1
1
1
1
1
1
1
1
1
1
1
1
1
1
1
1
1
1
1
1
1
1
1
1
1
1
1
1
1
1
1
1
1
1
1
1
1
1
1
1
1
1
1
1
1
1
1
1
1
1
1
1
1
1
1
1
1
1
1
1
1
1
1
1
1
1
1
1
1
1
1
1
1
1
1
1
1
1
1
1
1
1
1
1
1
1
1
1
1
1
1
1
1
1
1
1
1
1
1
1
1
1
1
1
1
1
1
1
1
1
1
1
1
1
1
1
1
1
1
1
1
1
1
1
1
1
1
1
1
1
1
1
1
1
1
1
1
1
1
1
1
1
1
1
1
1
1
1
1
1
1
1
1
1
1
1
1
1
1
1
1
1
1
1
1
1
1
1
1
1
1
1
1
1
1
1
1
1
1
1
1
1
1
1
1
1
1
1
1
1
1
1
1
1
1
1
1
1
1
1
1
1
1
1
1
1
1
1
1
1
1
1
1
1
1
1
1
1
1
1
1
1
1
1
1.22578
0.268181
0.0793699
0.0262848
0.0250709
0.0380378
0.0814492
0.155896
0.237075
0.326976
0.399826
0.486153
0.547423
0.556424
0.58719
0.631895
0.688878
0.768702
0.850543
0.923861
0.961049
0.96464
0.963242
0.940354
0.932123
0.929793
0.930735
0.947775
0.983121
1.02333
1.05234
1.06221
1.06461
1.06555
1.06471
1.0635
1.06493
1.07979
1.09933
1.10648
1.10756
1.10176
1.08953
1.07798
1.07065
1.0683
1.06862
1.07448
1.08062
1.08196
1.0816
1.07846
1.07173
1.06788
1.06574
1.06557
1.06753
1.06838
1.07009
1.06893
1.06172
1.05096
1.03469
1.02106
1.01482
1.01171
1.00984
1.00939
1.01073
1.01019
1.00635
1.00138
0.993432
0.98084
0.971504
0.967276
0.964118
0.961576
0.959467
0.957864
0.956649
0.955508
0.954523
0.954042
0.953998
0.952642
0.950833
0.949575
0.948844
0.947788
0.945329
0.941481
0.936653
0.931505
0.926322
0.920849
0.914522
0.906465
0.895822
0.884273
0.878119
0.876891
0.87621
0.875735
0.877534
0.880909
0.883676
0.885822
0.887671
0.8885
0.886596
0.882062
0.872656
0.852436
0.829735
0.821369
0.81974
0.820798
0.824285
0.8325
0.841016
0.845852
0.847342
0.847501
0.846609
0.841013
0.832262
0.831061
0.833076
0.83741
0.844246
0.848364
0.850405
0.852232
0.853567
0.855368
0.857589
0.860694
0.866305
0.875795
0.882037
0.8837
0.883482
0.878246
0.874493
0.876231
0.879686
0.884095
0.891188
0.899981
0.906563
0.909932
0.912118
0.909333
0.900581
0.897707
0.90162
0.906203
0.911552
0.9193
0.923791
0.925193
0.924951
0.920687
0.917712
0.918867
0.920575
0.923402
0.929564
0.935868
0.937333
0.93743
0.93467
0.933144
0.933318
0.932828
0.932159
0.932711
0.935979
0.941207
0.945754
0.947391
0.945451
0.941239
0.941544
0.947846
0.946486
0.944612
0.942711
0.936497
0.936126
0.941873
2.23003
1.02224
0.563463
0.37351
0.253303
0.192445
0.199815
0.236121
0.243246
0.244489
0.25607
0.271242
0.320114
0.376214
0.425983
0.479125
0.536169
0.592958
0.663644
0.751015
0.825136
0.875468
0.897738
0.911805
0.921288
0.934907
0.944529
0.953507
0.973558
0.993615
1.01456
1.02969
1.0402
1.05023
1.05753
1.0619
1.06737
1.07853
1.08473
1.08613
1.0841
1.0826
1.07974
1.07616
1.0745
1.07494
1.08034
1.08729
1.08501
1.0815
1.07717
1.06984
1.06233
1.05989
1.05906
1.06124
1.06714
1.07049
1.07003
1.06651
1.05976
1.04895
1.03116
1.01559
1.00893
1.00519
1.00358
1.00368
1.00579
1.00822
1.00669
1.00339
0.999103
0.992046
0.983705
0.9783
0.9743
0.970077
0.965399
0.960222
0.955073
0.950049
0.946493
0.945417
0.945238
0.944017
0.942181
0.940895
0.940409
0.940242
0.939276
0.936676
0.932571
0.9279
0.923625
0.919629
0.915843
0.912094
0.907865
0.9018
0.89417
0.888623
0.886218
0.88447
0.883174
0.883278
0.884151
0.88456
0.88332
0.879876
0.874682
0.86787
0.859306
0.848459
0.840087
0.834864
0.831098
0.829629
0.83088
0.834653
0.839594
0.841991
0.842738
0.842714
0.840161
0.83442
0.831175
0.832297
0.835154
0.840613
0.848462
0.853309
0.85542
0.856614
0.856438
0.856287
0.857915
0.859804
0.863327
0.869399
0.87506
0.878976
0.881543
0.883504
0.8844
0.883175
0.883951
0.886786
0.891048
0.896558
0.900577
0.904239
0.907678
0.909243
0.907966
0.904958
0.904272
0.90748
0.911355
0.915162
0.919711
0.923699
0.925134
0.924818
0.92252
0.920878
0.921747
0.923487
0.926788
0.931707
0.935783
0.937471
0.937726
0.937148
0.937087
0.936152
0.934491
0.933867
0.935813
0.939025
0.940921
0.942227
0.943129
0.942105
0.944123
0.950961
0.948899
0.946331
0.943852
0.939403
0.939438
0.943953
2.99381
1.76311
1.09524
0.841408
0.61853
0.45305
0.420839
0.405806
0.354467
0.307286
0.314571
0.316323
0.325222
0.357716
0.393851
0.4218
0.453352
0.486224
0.527416
0.59921
0.675827
0.756629
0.81176
0.857439
0.897258
0.939347
0.974961
0.981731
0.994579
1.00809
1.02617
1.03363
1.03435
1.04624
1.05212
1.0554
1.06353
1.07544
1.08275
1.08656
1.08295
1.07606
1.07255
1.06877
1.06524
1.06808
1.07964
1.09408
1.09742
1.09646
1.09372
1.08484
1.07016
1.06216
1.05923
1.05756
1.0606
1.06772
1.06672
1.06378
1.06027
1.05304
1.03658
1.02071
1.0142
1.00911
1.0036
0.999954
1.00005
1.00046
0.999182
0.996888
0.993081
0.9876
0.98468
0.983593
0.982769
0.981362
0.979717
0.977574
0.97327
0.965619
0.955414
0.948639
0.945295
0.94162
0.937617
0.934636
0.932761
0.932109
0.931641
0.929702
0.925447
0.92003
0.915097
0.911174
0.908311
0.906806
0.906313
0.905403
0.902499
0.897781
0.894253
0.892442
0.891375
0.891763
0.891778
0.888859
0.884224
0.875885
0.864021
0.852127
0.841602
0.837681
0.837499
0.837346
0.837094
0.837583
0.839516
0.842329
0.843834
0.843931
0.842766
0.838665
0.830998
0.825398
0.825616
0.827268
0.830792
0.837255
0.845222
0.851651
0.856499
0.860084
0.862713
0.864793
0.865686
0.864718
0.862827
0.862583
0.863958
0.866069
0.870605
0.878912
0.886278
0.891385
0.895395
0.897517
0.897087
0.894287
0.892466
0.893002
0.895699
0.900897
0.906506
0.911284
0.915363
0.916241
0.912346
0.909794
0.911636
0.913638
0.917274
0.922492
0.926446
0.928573
0.929308
0.928348
0.926029
0.925737
0.926766
0.929119
0.933457
0.937199
0.939958
0.942332
0.942022
0.939594
0.937714
0.936246
0.934651
0.934901
0.937051
0.938906
0.943226
0.951627
0.948888
0.944934
0.940915
0.937699
0.938189
0.942196
3.58256
2.42856
1.77463
1.39221
1.05675
0.788601
0.721135
0.657276
0.565836
0.498315
0.488324
0.465649
0.425518
0.416586
0.414188
0.413977
0.421961
0.428495
0.434197
0.448604
0.488604
0.562778
0.651306
0.727368
0.783774
0.832866
0.889712
0.912745
0.932145
0.956704
0.988248
1.02172
1.03172
1.04754
1.06091
1.06916
1.07373
1.07363
1.07415
1.0731
1.06665
1.06062
1.05976
1.05969
1.0579
1.06181
1.07417
1.08769
1.09517
1.09572
1.09235
1.08413
1.07101
1.06279
1.05912
1.0556
1.05419
1.05698
1.05906
1.05861
1.05575
1.04931
1.03678
1.02536
1.0193
1.01354
1.00689
1.00171
1.00018
1.00099
1.00094
0.997859
0.989245
0.978657
0.975354
0.974472
0.974356
0.973808
0.97302
0.972492
0.971359
0.968315
0.963202
0.957438
0.952168
0.946877
0.942033
0.93803
0.934072
0.930639
0.928173
0.925437
0.921774
0.918151
0.91569
0.91409
0.912949
0.912018
0.911117
0.910802
0.911053
0.909745
0.905471
0.89888
0.89286
0.889912
0.887284
0.883063
0.876419
0.867112
0.856886
0.849783
0.84734
0.846644
0.846113
0.845138
0.84421
0.84343
0.842691
0.842027
0.841394
0.839769
0.836214
0.830855
0.828527
0.829418
0.83168
0.834562
0.838077
0.841932
0.845681
0.84998
0.854339
0.857385
0.85948
0.861038
0.863082
0.864463
0.865349
0.865806
0.865903
0.86715
0.870727
0.876795
0.883527
0.88971
0.894528
0.897562
0.899252
0.898952
0.897295
0.89665
0.897217
0.899404
0.903989
0.90968
0.915125
0.918643
0.917837
0.914248
0.912236
0.912636
0.914599
0.917285
0.921471
0.926785
0.92993
0.930994
0.931549
0.930885
0.928433
0.929248
0.931687
0.93359
0.936003
0.93979
0.943043
0.943784
0.942354
0.940507
0.93798
0.934712
0.933416
0.936263
0.941559
0.949995
0.950477
0.945081
0.939793
0.937311
0.937767
0.941714
4.03997
3.06228
2.33291
1.88144
1.55376
1.25253
1.07606
0.947163
0.794868
0.692585
0.652226
0.612825
0.55888
0.54219
0.530931
0.50263
0.482169
0.487493
0.483844
0.475252
0.47326
0.47943
0.497598
0.536335
0.594739
0.662628
0.744239
0.809558
0.853498
0.885715
0.919234
0.961596
0.983323
0.993416
1.01912
1.0498
1.0583
1.0631
1.07165
1.07306
1.06934
1.06858
1.06888
1.07338
1.07652
1.07251
1.07164
1.07292
1.07151
1.06649
1.06131
1.05903
1.06002
1.06241
1.06869
1.0741
1.07539
1.07144
1.06385
1.05452
1.04236
1.02824
1.01799
1.01439
1.01263
1.00956
1.00564
1.00669
1.00981
1.01134
1.01067
1.00574
0.994177
0.982273
0.977371
0.974916
0.972989
0.970567
0.968187
0.96715
0.966638
0.965525
0.963493
0.960296
0.956208
0.951916
0.948087
0.944398
0.939196
0.931244
0.922873
0.916671
0.912122
0.909917
0.910442
0.912044
0.913957
0.915915
0.917543
0.920203
0.923661
0.92505
0.923588
0.917343
0.904577
0.889424
0.877543
0.867167
0.856882
0.849098
0.84562
0.845095
0.846556
0.852279
0.85638
0.85664
0.856343
0.855504
0.852453
0.845033
0.834803
0.825957
0.820318
0.818919
0.820269
0.825124
0.832992
0.84078
0.846179
0.849599
0.852083
0.854321
0.856554
0.857938
0.857118
0.855575
0.856407
0.858159
0.859875
0.862284
0.866393
0.872382
0.877973
0.882204
0.88551
0.887927
0.888791
0.889514
0.891283
0.89318
0.895545
0.898443
0.901809
0.905566
0.909548
0.912476
0.913266
0.911787
0.90992
0.911567
0.914801
0.917983
0.919728
0.9204
0.921459
0.922697
0.923797
0.92531
0.927642
0.93029
0.933287
0.935951
0.937003
0.936892
0.937042
0.937253
0.937143
0.937368
0.937521
0.937455
0.937256
0.937238
0.93771
0.93938
0.942234
0.947004
0.952756
0.949221
0.943891
0.941027
0.94078
0.943439
4.40052
3.55994
2.90633
2.3776
1.96785
1.67817
1.43557
1.24609
1.09472
0.946537
0.857687
0.783468
0.705324
0.679781
0.668965
0.640886
0.597611
0.587781
0.572588
0.539996
0.512368
0.511968
0.517942
0.51721
0.520515
0.534939
0.563713
0.605953
0.650909
0.699909
0.755002
0.823478
0.894884
0.934858
0.976638
1.02
1.02884
1.03485
1.04271
1.04701
1.05472
1.07009
1.08266
1.0873
1.0862
1.07931
1.0685
1.05596
1.04517
1.04129
1.04102
1.04402
1.05426
1.06891
1.07801
1.07892
1.07319
1.06284
1.04901
1.03497
1.024
1.01634
1.01367
1.01445
1.01918
1.02193
1.02154
1.02082
1.01845
1.01213
1.00339
0.995523
0.986403
0.978444
0.973491
0.969785
0.966762
0.963989
0.962154
0.962247
0.962563
0.961642
0.960017
0.957998
0.955794
0.953606
0.951272
0.948031
0.94276
0.934437
0.925982
0.919898
0.914092
0.910716
0.912019
0.914114
0.916308
0.919649
0.922937
0.925325
0.92761
0.928276
0.926618
0.919687
0.90367
0.881134
0.863902
0.85367
0.846992
0.844161
0.844296
0.845469
0.850427
0.861222
0.869515
0.872256
0.871952
0.867988
0.855431
0.836089
0.82194
0.816477
0.815285
0.81599
0.818651
0.825562
0.836188
0.845338
0.851004
0.854308
0.856361
0.856455
0.853714
0.852669
0.853114
0.854102
0.854796
0.855721
0.857422
0.860733
0.867549
0.875478
0.880577
0.884103
0.887139
0.888803
0.887883
0.887791
0.88974
0.89234
0.895912
0.900453
0.904807
0.908718
0.912289
0.914481
0.913488
0.910246
0.908683
0.910969
0.914439
0.917994
0.920335
0.921655
0.922278
0.923593
0.924799
0.925614
0.927063
0.929695
0.933478
0.936442
0.937652
0.938378
0.939458
0.939296
0.937789
0.936335
0.935449
0.934932
0.934862
0.936249
0.939428
0.942823
0.944247
0.945479
0.951537
0.952341
0.94805
0.945263
0.944626
0.946116
4.65546
3.93439
3.3428
2.81134
2.37246
2.07328
1.78689
1.54421
1.35233
1.19934
1.07738
0.995962
0.908121
0.825281
0.803685
0.773368
0.713975
0.682758
0.672622
0.64433
0.59785
0.592901
0.592858
0.580949
0.561209
0.559093
0.552008
0.539497
0.538706
0.546963
0.572916
0.622551
0.702351
0.788772
0.859996
0.937302
0.967477
0.988261
1.00036
1.00967
1.0285
1.05128
1.06927
1.07744
1.07736
1.07225
1.06153
1.05001
1.04354
1.04264
1.04353
1.05151
1.06082
1.06118
1.06086
1.06047
1.05599
1.04588
1.03679
1.03192
1.0298
1.03098
1.03187
1.03296
1.03293
1.02986
1.02205
1.01254
1.00402
0.995817
0.986017
0.976667
0.97337
0.972424
0.97136
0.969292
0.966785
0.964881
0.962629
0.960843
0.960297
0.959601
0.958237
0.956571
0.954688
0.95264
0.950531
0.947899
0.944241
0.940307
0.936424
0.930663
0.920625
0.911
0.909684
0.911374
0.913235
0.916919
0.918905
0.918702
0.918869
0.918168
0.91474
0.907048
0.89314
0.873212
0.855973
0.848263
0.846623
0.847805
0.850141
0.856599
0.868825
0.880377
0.883763
0.881846
0.875466
0.8603
0.836211
0.816319
0.810183
0.809275
0.810281
0.812816
0.819788
0.833165
0.848552
0.85748
0.860554
0.861749
0.857961
0.847982
0.84281
0.843179
0.844508
0.846489
0.849116
0.852884
0.858907
0.867705
0.876754
0.882141
0.884922
0.885904
0.883915
0.881262
0.881241
0.883437
0.887231
0.893205
0.900842
0.907162
0.910711
0.91236
0.911111
0.907752
0.90469
0.904951
0.908292
0.912696
0.917044
0.919393
0.920289
0.91906
0.918588
0.920253
0.922887
0.926416
0.930429
0.933364
0.935085
0.935704
0.935702
0.93513
0.935543
0.93636
0.936656
0.93639
0.93672
0.937998
0.939516
0.941021
0.941864
0.941251
0.940567
0.940869
0.945483
0.951172
0.950846
0.949063
0.949553
0.950326
4.87829
4.25041
3.69185
3.15964
2.75268
2.41541
2.11121
1.83789
1.63849
1.4545
1.28486
1.18941
1.11042
1.01595
0.960744
0.933692
0.880527
0.794826
0.768204
0.752717
0.71466
0.68421
0.674231
0.660954
0.635756
0.612446
0.59155
0.566286
0.548258
0.549725
0.553766
0.562107
0.580736
0.613173
0.649727
0.70257
0.770545
0.835631
0.898364
0.936561
0.97389
1.00655
1.03876
1.05344
1.05681
1.05502
1.04685
1.03908
1.04247
1.05046
1.05911
1.06634
1.06247
1.05113
1.04431
1.03841
1.03193
1.03074
1.03245
1.03654
1.04588
1.04965
1.0467
1.04061
1.03205
1.02302
1.01312
1.00157
0.989047
0.976524
0.969642
0.968398
0.968977
0.972764
0.977968
0.977815
0.97628
0.974453
0.970888
0.965314
0.960821
0.957864
0.955087
0.952341
0.94982
0.948129
0.947352
0.946852
0.946151
0.944787
0.941972
0.936326
0.925746
0.91208
0.906502
0.906556
0.907514
0.90941
0.910675
0.909941
0.908779
0.906893
0.903519
0.897832
0.88999
0.879816
0.868058
0.860364
0.858722
0.860861
0.866465
0.875505
0.87997
0.878551
0.875075
0.869918
0.861294
0.843024
0.819716
0.809201
0.807341
0.80817
0.810865
0.818557
0.834156
0.852394
0.86183
0.863406
0.861764
0.853893
0.842009
0.833718
0.833913
0.835709
0.838259
0.842443
0.850042
0.861758
0.874325
0.882089
0.884651
0.883715
0.88044
0.875838
0.872756
0.873145
0.876227
0.882682
0.893455
0.905353
0.912392
0.914257
0.913018
0.907401
0.901136
0.89755
0.897755
0.90126
0.908801
0.918245
0.923251
0.924716
0.922336
0.91725
0.916098
0.917191
0.920791
0.927279
0.932257
0.934255
0.934923
0.934891
0.934199
0.934042
0.934376
0.934678
0.93492
0.9354
0.937521
0.941281
0.943562
0.943258
0.942626
0.939566
0.936566
0.936792
0.940263
0.94951
0.95249
0.950603
0.950914
0.951065
5.04671
4.49102
3.95436
3.465
3.07796
2.72251
2.40392
2.11827
1.90019
1.70445
1.52913
1.39958
1.32056
1.21667
1.10441
1.06554
1.03402
0.962561
0.876817
0.847882
0.823705
0.786689
0.758105
0.741114
0.72276
0.694257
0.664201
0.632157
0.610013
0.606917
0.600385
0.592502
0.592339
0.591631
0.585724
0.583753
0.59485
0.623938
0.680787
0.762584
0.859426
0.939577
0.968038
0.989951
0.997435
0.9996
1.00533
1.01315
1.02811
1.05187
1.06752
1.06939
1.06476
1.05153
1.03248
1.02261
1.02098
1.02207
1.02902
1.04532
1.05376
1.05266
1.04717
1.03768
1.02697
1.01395
0.997977
0.984973
0.978589
0.974167
0.970423
0.970766
0.975372
0.982396
0.98412
0.982555
0.979793
0.976487
0.972335
0.967046
0.961504
0.956464
0.952006
0.948267
0.94525
0.943438
0.942963
0.943019
0.942713
0.941542
0.939519
0.936201
0.930295
0.921042
0.911071
0.906542
0.905737
0.905561
0.905547
0.905091
0.904253
0.902409
0.899435
0.896489
0.894524
0.892673
0.88954
0.883583
0.87479
0.871857
0.873018
0.873065
0.870935
0.867577
0.86297
0.855708
0.843819
0.828657
0.817353
0.813821
0.813814
0.816331
0.824431
0.839719
0.854074
0.858446
0.857933
0.85519
0.850159
0.839069
0.827495
0.826766
0.828982
0.832363
0.838266
0.849407
0.865908
0.879094
0.883496
0.883522
0.879344
0.872853
0.866618
0.864843
0.865997
0.869888
0.878929
0.894647
0.90866
0.913606
0.913835
0.909174
0.900293
0.894718
0.893282
0.894253
0.899175
0.909998
0.923092
0.928917
0.928356
0.92394
0.916128
0.911778
0.911639
0.913878
0.921203
0.929428
0.932131
0.932783
0.932695
0.93195
0.93133
0.93207
0.933804
0.936013
0.937593
0.938655
0.941605
0.944775
0.94269
0.938572
0.935689
0.93464
0.935221
0.937729
0.944096
0.952328
0.952558
0.949297
0.949758
0.948622
5.20724
4.68416
4.16597
3.73318
3.34707
2.98772
2.65577
2.39026
2.14669
1.95513
1.77537
1.61588
1.51184
1.4189
1.31525
1.20368
1.14958
1.08988
1.00728
0.953632
0.937093
0.907591
0.865247
0.826521
0.802671
0.778329
0.74717
0.704604
0.674883
0.668997
0.660676
0.648069
0.64036
0.631086
0.611191
0.587697
0.582284
0.583799
0.592523
0.614832
0.66064
0.727352
0.794303
0.85642
0.900419
0.923983
0.948473
0.968499
0.991908
1.03155
1.05222
1.0551
1.0541
1.04762
1.03211
1.0201
1.01771
1.01999
1.0327
1.04572
1.04594
1.04344
1.0389
1.02884
1.01012
0.99286
0.986625
0.984466
0.982738
0.984861
0.986603
0.986506
0.987737
0.986952
0.984129
0.978978
0.973939
0.970211
0.967537
0.964653
0.960987
0.956375
0.95081
0.945706
0.942813
0.941048
0.940011
0.939638
0.939193
0.938409
0.937318
0.935695
0.933439
0.929459
0.922022
0.912575
0.906993
0.904423
0.902839
0.902252
0.902484
0.902273
0.900982
0.900403
0.900712
0.900724
0.899539
0.895234
0.885651
0.872915
0.867536
0.865433
0.862224
0.857129
0.849283
0.840003
0.832381
0.828221
0.827203
0.827413
0.829595
0.835408
0.8439
0.849825
0.850614
0.85005
0.848727
0.84514
0.835947
0.824364
0.822308
0.824559
0.828666
0.836172
0.85014
0.867909
0.878142
0.880293
0.879596
0.875608
0.86706
0.860516
0.859853
0.861658
0.866138
0.876875
0.895152
0.908515
0.91153
0.910829
0.905154
0.895683
0.891732
0.891668
0.893415
0.899934
0.912965
0.925187
0.928106
0.926054
0.919308
0.910403
0.906506
0.906003
0.908424
0.917067
0.929213
0.934056
0.933946
0.932676
0.930433
0.929067
0.929215
0.931267
0.935153
0.939244
0.942
0.943633
0.945209
0.943778
0.93872
0.93358
0.929674
0.929169
0.934518
0.942913
0.951944
0.954676
0.952817
0.950475
0.950272
0.948336
5.33729
4.83386
4.36333
3.95991
3.57364
3.20593
2.90603
2.63754
2.39183
2.18119
2.00807
1.84103
1.69815
1.59904
1.49265
1.36742
1.2782
1.21816
1.14477
1.06764
1.03497
1.00513