/*--------------------------------*- C++ -*----------------------------------*\
  =========                 |
  \\      /  F ield         | OpenFOAM: The Open Source CFD Toolbox
   \\    /   O peration     | Website:  https://openfoam.org
    \\  /    A nd           | Version:  7
     \\/     M anipulation  |
\*---------------------------------------------------------------------------*/
FoamFile
{
    version     2.0;
    format      ascii;
    class       volScalarField;
    location    "0.9";
    object      T;
}
// * * * * * * * * * * * * * * * * * * * * * * * * * * * * * * * * * * * * * //

dimensions      [0 0 0 1 0 0 0];

internalField   nonuniform List<scalar> 
16128
(
1
1
1
1
1
1
1
1
1
1
1
1
1
1
1
1
1
1
1
1
1
1
1
1
1
1
1
1.93536
2.76472
2.78897
2.79104
2.79847
2.80975
2.8213
2.83058
2.83751
2.84556
2.85335
2.86193
2.87171
2.88033
2.88676
2.89502
2.91451
2.96331
3.05104
3.14172
3.18483
1
1
1
1
1
1
1
1
1
1
1
1
1
1
1
1
1
1
1
1
1
1
1
1
1
1
1
1.92319
2.75856
2.78939
2.79096
2.79808
2.80941
2.82083
2.83025
2.83715
2.84504
2.85278
2.86143
2.8713
2.87995
2.88637
2.89469
2.91429
2.96332
3.05101
3.14138
3.18418
1
1
1
1
1
1
1
1
1
1
1
1
1
1
1
1
1
1
1
1
1
1
1
1
1
1
1
1.89237
2.74831
2.7879
2.78943
2.79663
2.80834
2.81981
2.82954
2.83654
2.84419
2.85189
2.86061
2.87053
2.87921
2.88577
2.89439
2.91445
2.96432
3.05225
3.14189
3.18394
1
1
1
1
1
1
1
1
1
1
1
1
1
1
1
1
1
1
1
1
1
1
1
1
1
1
1
1.84194
2.73271
2.78479
2.78697
2.7944
2.80648
2.81785
2.82803
2.8354
2.8429
2.85061
2.85929
2.86898
2.87745
2.88411
2.89332
2.91429
2.96539
3.05394
3.14287
3.18385
1
1
1
1
1
1
1
1
1
1
1
1
1
1
1
1
1
1
1
1
1
1
1
1
1
1
1
1.7751
2.71347
2.77844
2.78108
2.78966
2.80324
2.81515
2.82605
2.83402
2.84137
2.84906
2.85756
2.86673
2.87464
2.88111
2.89098
2.91321
2.96551
3.05489
3.14361
3.18373
1
1
1
1
1
1
1
1
1
1
1
1
1
1
1
1
1
1
1
1
1
1
1
1
1
1
1
1.69163
2.68758
2.76727
2.77168
2.78302
2.79994
2.81302
2.82425
2.83221
2.83905
2.84657
2.85488
2.86358
2.87083
2.87688
2.88723
2.91065
2.96403
3.05445
3.14352
3.18305
1
1
1
1
1
1
1
1
1
1
1
1
1
1
1
1
1
1
1
1
1
1
1
1
1
1
1
1.58817
2.64855
2.75016
2.76038
2.7773
2.79786
2.81227
2.82267
2.82958
2.83545
2.84258
2.85088
2.85943
2.86622
2.87173
2.88218
2.90623
2.96014
3.05186
3.14199
3.18139
1
1
1
1
1
1
1
1
1
1
1
1
1
1
1
1
1
1
1
1
1
1
1
1
1
1
1
1.45794
2.58317
2.72756
2.75188
2.77507
2.79696
2.81228
2.8208
2.82587
2.83042
2.8369
2.84527
2.85408
2.86087
2.86608
2.87633
2.90021
2.95371
3.0462
3.13783
3.17775
1
1
1
1
1
1
1
1
1
1
1
1
1
1
1
1
1
1
1
1
1
1
1
1
1
1
1
1.28949
2.48923
2.71062
2.7497
2.77755
2.7989
2.81254
2.81777
2.81972
2.82283
2.82869
2.8377
2.84741
2.8547
2.8599
2.8696
2.89246
2.94472
3.03731
3.13057
3.17152
1
1
1
1
1
1
1
1
1
1
1
1
1
1
1
1
1
1
1
1
1
1
1
1
1
1
1
1.08955
2.37374
2.70443
2.75424
2.78291
2.80094
2.80975
2.81093
2.81059
2.81284
2.81856
2.82883
2.83988
2.84786
2.85327
2.86226
2.88342
2.9336
3.02518
3.11939
3.16125
1
1
1
1
1
1
1
1
1
1
1
1
1
1
1
1
1
1
1
1
1
1
1
1
1
1
1
1.00215
2.25225
2.69939
2.75871
2.78576
2.79982
2.80274
2.80096
2.79834
2.80049
2.8071
2.81905
2.83176
2.84041
2.84582
2.85352
2.87199
2.91928
3.00907
3.10406
3.1472
1
1
1
1
1
1
1
1
1
1
1
1
1
1
1
1
1
1
1
1
1
1
1
1
1
1
1
1
2.09727
2.69613
2.76161
2.7826
2.79198
2.79044
2.78718
2.78405
2.78612
2.79435
2.80842
2.82289
2.8323
2.83751
2.84369
2.85896
2.90249
2.989
3.08351
3.12689
1
1
1
1
1
1
1
1
1
1
1
1
1
1
1
1
1
1
1
1
1
1
1
1
1
1
1
1
1.90417
2.66933
2.75442
2.76992
2.77622
2.77443
2.77128
2.76818
2.77066
2.78092
2.79729
2.81329
2.82301
2.82776
2.83185
2.84246
2.88006
2.96163
3.05573
3.10144
1
1
1
1
1
1
1
1
1
1
1
1
1
1
1
1
1
1
1
1
1
1
1
1
1
1
1
1
1.63739
2.58498
2.73378
2.74858
2.75621
2.75581
2.75488
2.75321
2.75718
2.76931
2.78645
2.80224
2.81157
2.81514
2.81652
2.8236
2.85518
2.93067
3.02163
3.06183
1
1
1
1
1
1
1
1
1
1
1
1
1
1
1
1
1
1
1
1
1
1
1
1
1
1
1
1
1.29016
2.45877
2.7101
2.7293
2.74005
2.74339
2.7439
2.74276
2.74688
2.75891
2.77541
2.78998
2.7984
2.79988
2.79819
2.80164
2.82355
2.8847
2.96902
3.01022
1
1
1
1
1
1
1
1
1
1
1
1
1
1
1
1
1
1
1
1
1
1
1
1
1
1
1
1
1.01973
2.32968
2.68438
2.70567
2.71681
2.72441
2.72951
2.7309
2.73696
2.74903
2.76432
2.77712
2.78344
2.78142
2.77609
2.77452
2.78609
2.83368
2.9165
2.97942
1
1
1
1
1
1
1
1
1
1
1
1
1
1
1
1
1
1
1
1
1
1
1
1
1
1
1
1
1.00011
2.15101
2.66601
2.69835
2.71343
2.72368
2.72862
2.72692
2.73011
2.7389
2.75132
2.76175
2.76583
2.76128
2.75162
2.74395
2.74491
2.76111
2.76881
2.71856
1
1
1
1
1
1
1
1
1
1
1
1
1
1
1
1
1
1
1
1
1
1
1
1
1
1
1
1
1
1.88747
2.61059
2.68067
2.70442
2.71877
2.72526
2.72267
2.72331
2.72707
2.73464
2.74183
2.74395
2.73829
2.72588
2.7103
2.69541
2.6772
2.65365
2.53152
1
1
1
1
1
1
1
1
1
1
1
1
1
1
1
1
1
1
1
1
1
1
1
1
1
1
1
1
1
1.49463
2.49089
2.66495
2.68682
2.7053
2.71611
2.71454
2.71263
2.71101
2.71294
2.71561
2.71591
2.71041
2.69724
2.67664
2.64947
2.61354
2.5518
2.3969
1
1
1
1
1
1
1
1
1
1
1
1
1
1
1
1
1
1
1
1
1
1
1
1
1
1
1
1
1
1.06137
2.33962
2.65857
2.66437
2.68282
2.69885
2.70017
2.69765
2.69203
2.68868
2.68668
2.68496
2.6794
2.66646
2.64433
2.60909
2.56637
2.47382
2.33665
1
1
1
1
1
1
1
1
1
1
1
1
1
1
1
1
1
1
1
1
1
1
1
1
1
1
1
1
1
1.00085
2.13544
2.61437
2.64881
2.669
2.68241
2.68358
2.68031
2.6728
2.66576
2.65986
2.65545
2.64872
2.63533
2.6127
2.57582
2.52532
2.42941
2.3106
1
1
1
1
1
1
1
1
1
1
1
1
1
1
1
1
1
1
1
1
1
1
1
1
1
1
1
1
1
0.999998
1.74977
2.52992
2.63051
2.65221
2.66537
2.66511
2.66136
2.65347
2.64413
2.63563
2.62897
2.62103
2.6075
2.58399
2.54799
2.49269
2.40725
2.31041
1
1
1
1
1
1
1
1
1
1
1
1
1
1
1
1
1
1
1
1
1
1
1
1
1
1
1
1
1
1
1.21039
2.37125
2.62785
2.63273
2.64404
2.64577
2.64262
2.63529
2.62478
2.61471
2.60627
2.5972
2.58347
2.55986
2.52449
2.46902
2.39466
2.31214
1
1
1
1
1
1
1
1
1
1
1
1
1
1
1
1
1
1
1
1
1
1
1
1
1
1
1
1
1
1
1.00878
2.18009
2.58505
2.6106
2.62402
2.62569
2.62364
2.61777
2.60749
2.59693
2.58733
2.57739
2.56229
2.54012
2.5034
2.45144
2.38804
2.317
1
1
1
1
1
1
1
1
1
1
1
1
1
1
1
1
1
1
1
1
1
1
1
1
1
1
1
1
1
1
1.00001
1.76518
2.50062
2.59219
2.60783
2.60924
2.60664
2.6008
2.5909
2.57989
2.56963
2.55936
2.54361
2.52293
2.48738
2.44001
2.38464
2.32033
1
1
1
1
1
1
1
1
1
1
1
1
1
1
1
1
1
1
1
1
1
1
1
1
1
1
1
1
1
1
0.999999
1.17439
2.32742
2.58191
2.58484
2.5892
2.58738
2.58253
2.57432
2.56325
2.55299
2.54148
2.52589
2.50513
2.47356
2.43191
2.38277
2.32425
1
1
1
1
1
1
1
1
1
1
1
1
1
1
1
1
1
1
1
1
1
1
1
1
1
1
1
1
1
1
1
1.00581
2.07951
2.5263
2.56122
2.5684
2.56741
2.56371
2.55732
2.54696
2.5364
2.52346
2.50814
2.48783
2.46077
2.42499
2.38059
2.32714
1
1
1
1
1
1
1
1
1
1
1
1
1
1
1
1
1
1
1
1
1
1
1
1
1
1
1
1
1
1
1
1
1.55023
2.41871
2.54752
2.54556
2.54551
2.54267
2.53664
2.52707
2.51612
2.5031
2.48834
2.46992
2.44574
2.41488
2.37516
2.32776
1
1
1
1
1
1
1
1
1
1
1
1
1
1
1
1
1
1
1
1
1
1
1
1
1
1
1
1
1
1
1
0.999999
1.06758
2.23067
2.52197
2.5197
2.52347
2.52191
2.51613
2.50738
2.49661
2.48397
2.46977
2.45232
2.42987
2.40249
2.36709
2.32536
1
1
1
1
1
1
1
1
1
1
1
1
1
1
1
1
1
1
1
1
1
1
1
1
1
1
1
1
1
1
1
1
1.0008
1.79527
2.43698
2.5052
2.50524
2.50202
2.49558
2.48785
2.47811
2.46536
2.45137
2.43431
2.41345
2.38811
2.35654
2.31924
1
1
1
1
1
1
1
1
1
1
1
1
1
1
1
1
1
1
1
1
1
1
1
1
1
1
1
1
1
1
1
1
1
1.16449
2.26165
2.48785
2.48487
2.48228
2.47532
2.46826
2.45951
2.44774
2.43394
2.41801
2.39876
2.37493
2.34593
2.31142
1
1
1
1
1
1
1
1
1
1
1
1
1
1
1
1
1
1
1
1
1
1
1
1
1
1
1
1
1
1
1
1
1
1.00506
1.89577
2.40903
2.46006
2.45838
2.45512
2.4494
2.44127
2.43027
2.41693
2.40153
2.3833
2.36117
2.33453
2.30299
1
1
1
1
1
1
1
1
1
1
1
1
1
1
1
1
1
1
1
1
1
1
1
1
1
1
1
1
1
1
1
1
1
1.00001
1.23652
2.2463
2.44473
2.43854
2.43642
2.43099
2.42256
2.41203
2.39966
2.3851
2.36797
2.34775
2.32337
2.29486
1
1
1
1
1
1
1
1
1
1
1
1
1
1
1
1
1
1
1
1
1
1
1
1
1
1
1
1
1
1
1
1
1
1
1.01049
1.90081
2.37102
2.41776
2.41483
2.40997
2.40291
2.39395
2.38312
2.36954
2.35301
2.33375
2.31136
2.28575
1
1
1
1
1
1
1
1
1
1
1
1
1
1
1
1
1
1
1
1
1
1
1
1
1
1
1
1
1
1
1
1
1
1
1.00003
1.25157
2.20362
2.40263
2.39622
2.39135
2.38427
2.37576
2.36578
2.35326
2.33773
2.31955
2.299
2.27581
1
1
1
1
1
1
1
1
1
1
1
1
1
1
1
1
1
1
1
1
1
1
1
1
1
1
1
1
1
1
1
1
1
1
1
1.01169
1.81769
2.31711
2.37358
2.36786
2.36325
2.35706
2.34856
2.33727
2.32292
2.30587
2.28661
2.26492
1
1
1
1
1
1
1
1
1
1
1
1
1
1
1
1
1
1
1
1
1
1
1
1
1
1
1
1
1
1
1
1
1
1
1
1.00005
1.20087
2.13316
2.35811
2.35008
2.34549
2.33909
2.33084
2.32021
2.30691
2.29115
2.27316
2.25285
1
1
1
1
1
1
1
1
1
1
1
1
1
1
1
1
1
1
1
1
1
1
1
1
1
1
1
1
1
1
1
1
1
1
1
1
1.00713
1.63852
2.24048
2.33405
2.32426
2.32018
2.31367
2.30405
2.29147
2.27659
2.25978
2.24122
1
1
1
1
1
1
1
1
1
1
1
1
1
1
1
1
1
1
1
1
1
1
1
1
1
1
1
1
1
1
1
1
1
1
1
1
1.00003
1.10744
2.02042
2.30915
2.30665
2.30152
2.29568
2.28706
2.27536
2.26083
2.24449
2.22752
1
1
1
1
1
1
1
1
1
1
1
1
1
1
1
1
1
1
1
1
1
1
1
1
1
1
1
1
1
1
1
1
1
1
1
1
1
1.00208
1.44713
2.15762
2.29024
2.28042
2.27721
2.27092
2.26135
2.24783
2.23176
2.21527
1
1
1
1
1
1
1
1
1
1
1
1
1
1
1
1
1
1
1
1
1
1
1
1
1
1
1
1
1
1
1
1
1
1
1
1
1
1.00001
1.04451
1.81417
2.21705
2.26478
2.25679
2.25062
2.243
2.23147
2.21669
2.20106
1
1
1
1
1
1
1
1
1
1
1
1
1
1
1
1
1
1
1
1
1
1
1
1
1
1
1
1
1
1
1
1
1
1
1
1
1
1
1.0005
1.23094
2.01477
2.24972
2.24081
2.23592
2.22854
2.21838
2.2055
2.19094
1
1
1
1
1
1
1
1
1
1
1
1
1
1
1
1
1
1
1
1
1
1
1
1
1
1
1
1
1
1
1
1
1
1
1
1
1
1
1
1.01016
1.51896
2.11866
2.22651
2.21227
2.20808
2.20074
2.19085
2.17874
1
1
1
1
1
1
1
1
1
1
1
1
1
1
1
1
1
1
1
1
1
1
1
1
1
1
1
1
1
1
1
1
1
1
1
1
1
1
1
1.00006
1.0702
1.78954
2.1549
2.20138
2.18835
2.18107
2.17298
2.1628
1
1
1
1
1
1
1
1
1
1
1
1
1
1
1
1
1
1
1
1
1
1
1
1
1
1
1
1
1
1
1
1
1
1
1
1
1
1
1
1
1.00117
1.22959
1.9455
2.17897
2.17462
2.16689
2.15941
2.14977
1
1
1
1
1
1
1
1
1
1
1
1
1
1
1
1
1
1
1
1
1
1
1
1
1
1
1
1
1
1
1
1
1
1
1
1
1
1
1
1
1
1.01038
1.44636
2.03506
2.16102
2.15281
2.1452
2.13705
1
1
1
1
1
1
1
1
1
1
1
1
1
1
1
1
1
1
1
1
1
1
1
1
1
1
1
1
1
1
1
1
1
1
1
1
1
1
1
1
1
1.00007
1.04972
1.64601
2.07736
2.14319
2.12975
2.1198
1
1
1
1
1
1
1
1
1
1
1
1
1
1
1
1
1
1
1
1
1
1
1
1
1
1
1
1
1
1
1
1
1
1
1
1
1
1
1
1
1
1
1.00072
1.1384
1.79616
2.08565
2.1258
2.11014
1
1
1
1
1
1
1
1
1
1
1
1
1
1
1
1
1
1
1
1
1
1
1
1
1
1
1
1
1
1
1
1
1
1
1
1
1
1
1
1
1
1
1
1.00407
1.2673
1.89116
2.08304
2.10156
1
1
1
1
1
1
1
1
1
1
1
1
1
1
1
1
1
1
1
1
1
1
1
1
1
1
1
1
1
1
1
1
1
1
1
1
1
1
1
1
1
1
1
1.00002
1.01495
1.40978
1.93642
2.08097
1
1
1
1
1
1
1
1
1
1
1
1
1
1
1
1
1
1
1
1
1
1
1
1
1
1
1
1
1
1
1
1
1
1
1
1
1
1
1
1
1
1
1
1
1.00012
1.04145
1.52508
1.96577
1
1
1
1
1
1
1
1
1
1
1
1
1
1
1
1
1
1
1
1
1
1
1
1
1
1
1
1
1
1
1
1
1
1
1
1
1
1
1
1
1
1
1
1
1
1.00055
1.0839
1.61329
1
1
1
1
1
1
1
1
1
1
1
1
1
1
1
1
1
1
1
1
1
1
1
1
1
1
1
1
1
1
1
1
1
1
1
1
1
1
1
1
1
1
1
1
1
1
1.00176
1.1362
1
1
1
1
1
1
1
1
1
1
1
1
1
1
1
1
1
1
1
1
1
1
1
1
1
1
1
1
1
1
1
1
1
1
1
1
1
1
1
1
1
1
1
1
1
1
1.00001
1.00422
1
1
1
1
1
1
1
1
1
1
1
1
1
1
1
1
1
1
1
1
1
1
1
1
1
1
1
1
1
1
1
1
1
1
1
1
1
1
1
1
1
1
1
1
1
1
1
1.00002
1
1
1
1
1
1
1
1
1
1
1
1
1
1
1
1
1
1
1
1
1
1
1
1
1
1
1
1
1
1
1
1
1
1
1
1
1
1
1
1
1
1
1
1
1
1
1
1
1
1
1
1
1
1
1
1
1
1
1
1
1
1
1
1
1
1
1
1
1
1
1
1
1
1
1
1
1
1
1
1
1
1
1
1
1
1
1
1
1
1
1
1
1
1
1
1
1
1
1
1
1
1
1
1
1
1
1
1
1
1
1
1
1
1
1
1
1
1
1
1
1
1
1
1
1
1
1
1
1
1
1
1
1
1
1
1
1
1
1
1
1
1
1
1
1
1
1
1
1
1
1
1
1
1
1
1
1
1
1
1
1
1
1
1
1
1
1
1
1
1
1
1
1
1
1
1
1
1
1
1
1
1
1
1
1
1
1
1
1
1
1
1
1
1
1
1
1
1
1
1
1
1
1
1
1
1
1
1
1
1
1
1
1
1
1
1
1
1
1
1
1
1
1
1
1
1
1
1
1
1
1
1
1
1
1
1
1
1
1
1
1
1
1
1
1
1
1
1
1
1
1
1
1
1
1
1
1
1
1
1
1
1
1
1
1
1
1
1
1
1
1
1
1
1
1
1
1
1
1
1
1
1
1
1
1
1
1
1
1
1
1
1
1
1
1
1
1
1
1
1
1
1
1
1
1
1
1
1
1
1
1
1
1
1
1
1
1
1
1
1
1
1
1
1
1
1
1
1
1
1
1
1
1
1
1
1
1
1
1
1
1
1
1
1
1
1
1
1
1
1
1
1
1
1
1
1
1
1
1
1
1
1
1
1
1
1
1
1
1
1
1
1
1
1
1
1
1
1
1
1
1
1
1
1
1
1
1
1
1
1
1
1
1
1
1
1
1
1
1
1
1
1
1
1
1
1
1
1
1
1
1
1
1
1
1
1
1
1
1
1
1
1
1
1
1
1
1
1
1
1
1
1
1
1
1
1
1
1
1
1
1
1
1
1
1
1
1
1
1
1
1
1
1
1
1
1
1
1
1
1
1
1
1
1
1
1
1
1
1
1
1
1
1
1
1
1
1
1
1
1
1
1
1
1
1
1
1
1
1
1
1
1
1
1
1
1
1
1
1
1
1
1
1
1
1
1
1
1
1
1
1
1
1
1
1
1
1
1
1
1
1
1
1
1
1
1
1
1
1
1
1
1
1
1
1
1
1
1
1
1
1
1
1
1
1
1
1
1
1
1
1
1
1
1
1
1
1
1
1
1
1
1
1
1
1
1
1
1
1
1
1
1
1
1
1
1
1
1
1
1
1
1
1
1
1
1
1
1
1
1
1
1
1
1
1
1
1
1
1
1
1
1
1
1
1
1
1
1
1
1
1
1
1
1
1
1
1
1
1
1
1
1
1
1
1
1
1
1
1
1
1
1
1
1
1
1
1
1
1
1
1
1
1
1
1
1
1
1
1
1
1
1
1
1
1
1
1
1
1
1
1
1
1
1
1
1
1
1
1
1
1
1
1
1
1
1
1
1
1
1
1
1
1
1
1
1
1
1
1
1
1
1
1
1
1
1
1
1
1
1
1
1
1
1
1
1
1
1
1
1
1
1
1
1
1
1
1
1
1
1
1
1
1
1
1
1
1
1
1
1
1
1
1
1
1
1
1
1
1
1
1
1
1
1
1
1
1
1
1
1
1
1
1
1
1
1
1
1
1
1
1
1
1
1
1
1
1
1
1
1
1
1
1
1
1
1
1
1
1
1
1
1
1
1
1
1
1
1
1
1
1
1
1
1
1
1
1
1
1
1
1
1
1
1
1
1
1
1
1
1
1
1
1
1
1
1
1
1
1
1
1
1
1
1
1
1
1
1
1
1
1
1
1
1
1
1
1
1
1
1
1
1
1
1
1
1
1
1
1
1
1
1
1
1
1
1
1
1
1
1
1
1
1
1
1
1
1
1
1
1
1
1
1
1
1
1
1
1
1
1
1
1
1
1
1
1
1
1
1
1
1
1
1
1
1
1
1
1
1
1
1
1
1
1
1
1
1
1
1
1
1
1
1
1
1
1
1
1
1
1
1
1
1
1
1
1
1
1
1
1
1
1
1
1
1
1
1
1
1
1
1
1
1
1
1
1
1
1
1
1
1
1
1
1
1
1
1
1
1
1
1
1
1
1
1
1
1
1
1
1
1
1
1
1
1
1
1
1
1
1
1
1
1
1
1
1
1
1
1
1
1
1
1
1
1
1
1
1
1
1
1
1
1
1
1
1
1
1
1
1
1
1
1
1
1
1
1
1
1
1
1
1
1
1
1
1
1
1
1
1
1
1
1
1
1
1
1
1
1
1
1
1
1
1
1
1
1
1
1
1
1
1
1
1
1
1
1
1
1
1
1
1
1
1
1
1
1
1
1
1
1
1
1
1
1
1
1
1
1
1
1
1
1
1
1
1
1
1
1
1
1
1
1
1
1
1
1
1
1
1
1
1
1
1
1
1
1
1
1
1
1
1
1
1
1
1
1
1
1
1
1
1
1
1
1
1
1
1
1
1
1
1
1
1
1
1
1
1
1
1
1
1
1
1
1
1
1
1
1
1
1
1
1
1
1
1
1
1
1
1
1
1
1
1
1
1
1
1
1
1
1
1
1
1
1
1
1
1
1
1
1
1
1
1
1
1
1
1
1
1
1
1
1
1
1
1
1
1
1
1
1.78344
1.13605
0.900403
0.884478
0.879418
0.974634
1.18179
1.34673
1.4699
1.60308
1.68045
1.69916
1.6826
1.65219
1.66939
1.73489
1.82818
1.89944
1.90478
1.89195
1.87557
1.87745
1.89072
1.89151
1.88431
1.86621
1.84812
1.84894
1.86588
1.89008
1.8996
1.89894
1.89573
1.8948
1.89481
1.89485
1.89499
1.89985
1.90881
1.91594
1.9195
1.91973
1.91678
1.90925
1.9021
1.90034
1.90133
1.90698
1.91095
1.91043
1.90608
1.89586
1.88494
1.88259
1.88379
1.88952
1.89777
1.90041
1.90061
1.89755
1.8876
1.87671
1.8694
1.86726
1.86781
1.87003
1.87225
1.87331
1.87419
1.8733
1.86935
1.86411
1.85767
1.84992
1.84511
1.84331
1.84254
1.84262
1.8434
1.84506
1.84696
1.8483
1.84919
1.84997
1.85072
1.85086
1.85125
1.8523
1.85401
1.85549
1.85582
1.85559
1.8546
1.85328
1.8523
1.85173
1.85128
1.85036
1.84809
1.84493
1.84402
1.84468
1.84465
1.84376
1.84328
1.84281
1.84162
1.83967
1.83773
1.83614
1.83324
1.82925
1.82342
1.81223
1.80051
1.79781
1.79851
1.80203
1.80823
1.81638
1.82319
1.82689
1.82776
1.82759
1.82604
1.82073
1.81428
1.81323
1.814
1.81637
1.82116
1.82437
1.82589
1.82689
1.82712
1.82712
1.82683
1.82655
1.82741
1.83127
1.83395
1.83462
1.8346
1.83235
1.83157
1.8341
1.83785
1.84138
1.84618
1.85233
1.85777
1.86166
1.86493
1.86536
1.86407
1.86483
1.87052
1.87564
1.87936
1.88302
1.88398
1.88337
1.88103
1.87522
1.87103
1.86998
1.86936
1.86953
1.87189
1.87445
1.87424
1.87296
1.86864
1.86373
1.85791
1.84983
1.84116
1.83398
1.82899
1.82449
1.81724
1.80304
1.77716
1.73686
1.69195
1.66317
1.65064
1.6459
1.64263
1.63665
1.63256
1.617
2.05679
1.67708
1.4567
1.40992
1.33218
1.1746
1.15184
1.18673
1.22216
1.25605
1.2909
1.29572
1.32381
1.36199
1.40798
1.4712
1.54634
1.59891
1.63316
1.66738
1.69371
1.7228
1.75548
1.78478
1.793
1.79011
1.78328
1.78399
1.79731
1.81189
1.82056
1.82473
1.82837
1.83375
1.83853
1.84112
1.84346
1.84872
1.85485
1.85921
1.86213
1.86488
1.86483
1.86321
1.86246
1.86335
1.86827
1.87433
1.87418
1.87323
1.86942
1.86037
1.85162
1.85006
1.85099
1.85622
1.86527
1.86948
1.8694
1.86645
1.85911
1.84975
1.8412
1.8372
1.83718
1.83871
1.84199
1.84534
1.84847
1.84982
1.84842
1.84541
1.84189
1.83754
1.83344
1.83148
1.83058
1.83003
1.82985
1.82971
1.82948
1.82903
1.82885
1.82934
1.82998
1.82995
1.83018
1.83121
1.83309
1.83531
1.83683
1.83721
1.83696
1.83643
1.83639
1.83685
1.83817
1.8403
1.84237
1.8428
1.84186
1.8403
1.83927
1.83772
1.83556
1.83378
1.83162
1.82881
1.82524
1.82052
1.8158
1.81133
1.80712
1.80236
1.79935
1.79839
1.79836
1.79988
1.80386
1.80958
1.81451
1.81672
1.81721
1.8169
1.81417
1.80928
1.80667
1.80701
1.80807
1.81121
1.81666
1.82025
1.82166
1.82211
1.82168
1.82097
1.82065
1.81964
1.81946
1.82092
1.82325
1.82558
1.82791
1.8303
1.83204
1.8327
1.83447
1.83734
1.84056
1.84456
1.84819
1.85226
1.85701
1.86092
1.86342
1.86512
1.86751
1.87183
1.87484
1.87655
1.87819
1.87881
1.87769
1.87466
1.87041
1.8675
1.86661
1.86623
1.86675
1.8685
1.86969
1.86937
1.86737
1.86322
1.85742
1.8494
1.8404
1.83255
1.82666
1.82094
1.8124
1.79844
1.77491
1.7378
1.69527
1.66591
1.65157
1.64585
1.64191
1.63665
1.6327
1.6165
2.11022
1.8699
1.67579
1.60802
1.49162
1.3643
1.32271
1.3037
1.25516
1.21819
1.2244
1.21189
1.21176
1.23404
1.25779
1.27771
1.30724
1.33805
1.37086
1.42298
1.47091
1.51478
1.554
1.59686
1.63141
1.65596
1.67338
1.68246
1.69446
1.70298
1.70797
1.70969
1.71229
1.7222
1.7249
1.72537
1.72896
1.73774
1.74755
1.7552
1.75656
1.75509
1.7543
1.75474
1.75731
1.76347
1.77347
1.78144
1.78444
1.78598
1.78704
1.7853
1.77919
1.77519
1.7745
1.7749
1.77874
1.78497
1.78552
1.78519
1.7837
1.77956
1.77133
1.76547
1.765
1.76559
1.76799
1.77273
1.779
1.78332
1.78423
1.78403
1.78293
1.78079
1.78044
1.7812
1.78269
1.78418
1.78593
1.78768
1.78817
1.78722
1.7844
1.78246
1.78153
1.78021
1.77938
1.77957
1.78062
1.78269
1.78488
1.78608
1.78629
1.78632
1.78671
1.78805
1.79051
1.79438
1.79951
1.80465
1.80759
1.80763
1.8071
1.80642
1.8054
1.80474
1.8032
1.79914
1.79425
1.78798
1.78086
1.77469
1.77014
1.76959
1.77126
1.77328
1.77549
1.7786
1.78311
1.7881
1.79102
1.79209
1.79203
1.78949
1.7837
1.77945
1.77929
1.77955
1.78092
1.78485
1.79029
1.7947
1.79795
1.80033
1.80198
1.8029
1.80275
1.80079
1.79774
1.79652
1.79667
1.79785
1.80159
1.8083
1.8143
1.81881
1.82257
1.82486
1.82522
1.82487
1.82513
1.82736
1.83204
1.83861
1.84579
1.85267
1.85869
1.86102
1.86041
1.85954
1.86052
1.86059
1.86079
1.86119
1.8609
1.85992
1.85853
1.85642
1.85379
1.85287
1.85255
1.85262
1.85303
1.85232
1.84942
1.84426
1.83665
1.82783
1.81969
1.81135
1.80103
1.78733
1.76668
1.73514
1.69781
1.66909
1.6513
1.64259
1.63652
1.63118
1.6268
1.60974
2.13999
1.95785
1.83469
1.74975
1.64559
1.5229
1.48061
1.43375
1.3676
1.32607
1.32052
1.30109
1.26434
1.24206
1.22666
1.22158
1.22883
1.23759
1.24506
1.25629
1.281
1.32678
1.38105
1.42977
1.46532
1.49337
1.52541
1.54607
1.56135
1.57408
1.58594
1.59941
1.60808
1.6206
1.62552
1.62566
1.62768
1.63025
1.63613
1.64023
1.63931
1.63658
1.63651
1.63862
1.64327
1.65149
1.66216
1.66923
1.67375
1.67618
1.67917
1.68176
1.68116
1.67935
1.67728
1.67473
1.67391
1.67555
1.67852
1.68088
1.6818
1.6806
1.67506
1.6699
1.66878
1.66894
1.67092
1.67663
1.68543
1.6936
1.69822
1.69937
1.69799
1.69483
1.69486
1.6964
1.69887
1.70113
1.70342
1.70616
1.7087
1.71014
1.71049
1.71019
1.70922
1.70767
1.70675
1.70675
1.70691
1.70739
1.70846
1.7096
1.71079
1.71262
1.71541
1.7187
1.72223
1.72627
1.73128
1.73768
1.74439
1.74829
1.74885
1.74794
1.74584
1.74438
1.74266
1.73987
1.73619
1.73179
1.72745
1.7251
1.72495
1.72556
1.72699
1.72878
1.73123
1.73432
1.73763
1.7406
1.74251
1.74289
1.74196
1.73864
1.73658
1.73672
1.73723
1.73817
1.73994
1.74243
1.74506
1.74812
1.75138
1.75389
1.75562
1.75683
1.75815
1.75838
1.75837
1.75843
1.75842
1.75947
1.76289
1.76867
1.77502
1.78071
1.78511
1.78812
1.79029
1.79127
1.79198
1.7936
1.79664
1.80146
1.80878
1.81717
1.82493
1.83052
1.83263
1.83278
1.83229
1.83211
1.83199
1.83187
1.83234
1.83306
1.83274
1.8314
1.83027
1.8289
1.82672
1.82665
1.82666
1.82604
1.82447
1.82186
1.81757
1.81134
1.8037
1.7952
1.78456
1.77015
1.75139
1.72703
1.69717
1.67076
1.6518
1.63906
1.62987
1.62308
1.61684
1.5981
2.1666
2.0308
1.91072
1.82495
1.75038
1.66112
1.59882
1.54308
1.46649
1.41148
1.38856
1.36391
1.32748
1.30837
1.29391
1.26804
1.25284
1.25646
1.25248
1.24165
1.23906
1.24296
1.25388
1.27711
1.31332
1.35286
1.39929
1.43598
1.45932
1.47402
1.48776
1.5054
1.51895
1.52717
1.53896
1.54846
1.55175
1.55574
1.56462
1.56824
1.56691
1.56596
1.56628
1.56974
1.57445
1.57741
1.5812
1.58406
1.58448
1.58427
1.58553
1.5901
1.59599
1.59958
1.60178
1.60225
1.60175
1.59862
1.59577
1.59422
1.59188
1.58765
1.58378
1.58294
1.58314
1.58387
1.5864
1.59413
1.60516
1.61441
1.61976
1.6211
1.61937
1.61607
1.61581
1.61663
1.61822
1.61973
1.62135
1.62375
1.62642
1.62875
1.63065
1.63158
1.63163
1.63146
1.63153
1.63177
1.63145
1.62962
1.62771
1.62733
1.62803
1.63096
1.63591
1.641
1.64578
1.65076
1.65646
1.66394
1.6723
1.67848
1.6818
1.68215
1.67877
1.67203
1.66694
1.66313
1.65967
1.65794
1.65813
1.65983
1.66279
1.66802
1.67234
1.67451
1.67718
1.68032
1.68215
1.68166
1.67867
1.67508
1.67253
1.67193
1.67283
1.67532
1.67904
1.68304
1.68606
1.68811
1.68973
1.69135
1.69322
1.6947
1.69483
1.69481
1.69604
1.69779
1.69912
1.70076
1.70366
1.70836
1.71367
1.71864
1.72312
1.72687
1.72934
1.73147
1.73393
1.73611
1.73869
1.7421
1.74667
1.75249
1.75946
1.76632
1.77235
1.77677
1.7799
1.78389
1.78801
1.79042
1.79096
1.79078
1.79036
1.78945
1.78794
1.78647
1.78599
1.78611
1.78711
1.7883
1.78837
1.78754
1.78574
1.78272
1.77839
1.77329
1.76734
1.7603
1.75164
1.74072
1.72671
1.70908
1.68786
1.66656
1.65035
1.63648
1.62475
1.6148
1.60584
1.58426
2.19281
2.08116
1.98376
1.89308
1.81068
1.74397
1.67797
1.61493
1.56036
1.503
1.4645
1.42626
1.37996
1.36027
1.3516
1.33434
1.30859
1.30062
1.28805
1.26336
1.24301
1.24183
1.24471
1.24516
1.24826
1.25855
1.2741
1.29903
1.32569
1.35233
1.37957
1.41051
1.44283
1.46069
1.47752
1.49339
1.49787
1.50219
1.50871
1.514
1.51974
1.5264
1.53177
1.53523
1.53582
1.53582
1.53535
1.53299
1.52975
1.52943
1.5311
1.53572
1.54384
1.55141
1.55427
1.55381
1.54915
1.54246
1.5366
1.53254
1.53021
1.52921
1.52946
1.53096
1.53428
1.53743
1.54034
1.54539
1.55133
1.55535
1.55688
1.55717
1.55602
1.55445
1.55412
1.55433
1.55518
1.55645
1.55815
1.56061
1.56299
1.56466
1.56609
1.56735
1.56848
1.56955
1.57049
1.57087
1.57046
1.56847
1.56664
1.56645
1.56687
1.56914
1.57407
1.57919
1.58355
1.58836
1.59365
1.59938
1.60589
1.61119
1.61433
1.61469
1.61072
1.60136
1.59496
1.59296
1.59278
1.59443
1.59801
1.60177
1.60739
1.61501
1.62115
1.62475
1.62675
1.62742
1.6245
1.61699
1.61151
1.61025
1.61051
1.61191
1.6142
1.61783
1.62304
1.62763
1.63043
1.63201
1.63312
1.63325
1.63194
1.63168
1.63248
1.63421
1.63582
1.63741
1.63929
1.64209
1.64703
1.65305
1.65794
1.66225
1.66659
1.66985
1.67156
1.67336
1.67595
1.67842
1.68137
1.68531
1.68986
1.69494
1.70087
1.70673
1.71176
1.7158
1.71988
1.72521
1.73051
1.73418
1.73604
1.7368
1.73683
1.7368
1.73593
1.73425
1.73327
1.73333
1.73448
1.73549
1.73551
1.73509
1.73401
1.73149
1.72743
1.72273
1.71766
1.71173
1.70431
1.69525
1.68477
1.67322
1.66042
1.64734
1.63713
1.62696
1.61575
1.60454
1.59395
1.57044
2.21193
2.11849
2.03374
1.9477
1.86663
1.8072
1.74045
1.67675
1.61984
1.57017
1.5246
1.49017
1.45118
1.41149
1.40069
1.38522
1.35417
1.33574
1.32828
1.31057
1.28218
1.27866
1.27838
1.2713
1.25977
1.25701
1.25098
1.24256
1.24084
1.24489
1.25908
1.28706
1.33099
1.37491
1.40638
1.43888
1.45127
1.45975
1.46555
1.47145
1.48182
1.49326
1.50266
1.50888
1.51051
1.51053
1.50957
1.50685
1.50491
1.50506
1.50636
1.51136
1.51669
1.51759
1.51753
1.51627
1.51163
1.50513
1.5014
1.50075
1.50154
1.50464
1.50753
1.50985
1.51111
1.5112
1.5104
1.51023
1.511
1.51231
1.51252
1.51176
1.51243
1.51414
1.5153
1.5159
1.5167
1.51808
1.51924
1.52018
1.52139
1.52257
1.52359
1.52465
1.52572
1.52675
1.52778
1.52846
1.52856
1.52868
1.52911
1.52918
1.52821
1.52756
1.52976
1.53436
1.53835
1.54261
1.54582
1.54874
1.55286
1.55663
1.5583
1.55819
1.5554
1.54847
1.54297
1.54242
1.54477
1.54982
1.55511
1.56228
1.57127
1.5791
1.58231
1.58258
1.58177
1.57655
1.56612
1.5579
1.55672
1.55768
1.56012
1.56331
1.56783
1.57466
1.58239
1.58668
1.58784
1.58818
1.5858
1.58011
1.57723
1.57746
1.57859
1.58054
1.58306
1.58624
1.59048
1.59615
1.60212
1.60661
1.61
1.61232
1.61344
1.61451
1.61648
1.61965
1.62304
1.62677
1.6312
1.63534
1.63871
1.64153
1.64348
1.64549
1.64844
1.65348
1.66024
1.66711
1.67258
1.67593
1.67753
1.67749
1.67739
1.6781
1.67845
1.67871
1.67919
1.67937
1.67916
1.67827
1.67701
1.67524
1.67344
1.67103
1.66781
1.6641
1.66044
1.65646
1.65098
1.64278
1.6316
1.62016
1.61183
1.60628
1.60332
1.60089
1.59593
1.58786
1.57898
1.55654
2.23112
2.15165
2.07364
1.98998
1.92029
1.85714
1.79387
1.73051
1.67989
1.62743
1.57241
1.53865
1.50951
1.47299
1.45105
1.44014
1.41717
1.37607
1.36169
1.35337
1.33376
1.31827
1.31316
1.3056
1.29082
1.27636
1.26338
1.24764
1.23253
1.23231
1.23397
1.23887
1.24912
1.26597
1.28536
1.31474
1.35125
1.38246
1.40957
1.4261
1.44291
1.45895
1.47417
1.48307
1.48802
1.48878
1.48837
1.4872
1.48896
1.49167
1.49476
1.4981
1.49705
1.4936
1.49096
1.48734
1.48263
1.48117
1.48136
1.48312
1.48908
1.49343
1.49453
1.49478
1.4936
1.49106
1.48822
1.48585
1.4843
1.48299
1.48316
1.48537
1.48791
1.49137
1.49491
1.49594
1.49686
1.49789
1.49799
1.49694
1.49597
1.49585
1.49588
1.49611
1.49659
1.49752
1.499
1.50077
1.5025
1.50397
1.50496
1.5052
1.5042
1.50166
1.50177
1.50456
1.50777
1.51063
1.51274
1.51435
1.51663
1.51902
1.52064
1.52095
1.52067
1.51926
1.51694
1.51658
1.51882
1.52395
1.53132
1.5392
1.54371
1.54453
1.54467
1.54404
1.54142
1.5338
1.52365
1.52025
1.5206
1.523
1.52695
1.53251
1.54095
1.5504
1.55499
1.55546
1.55418
1.5494
1.54255
1.53768
1.53759
1.53829
1.53971
1.54247
1.54717
1.55387
1.56098
1.56579
1.56806
1.56842
1.56834
1.56774
1.56778
1.56958
1.5735
1.57846
1.58449
1.59056
1.59414
1.59528
1.59499
1.59323
1.59214
1.59246
1.59526
1.60124
1.60929
1.61711
1.6222
1.62453
1.62451
1.62296
1.62237
1.62267
1.62361
1.62547
1.62649
1.62633
1.62527
1.62352
1.62137
1.61928
1.61674
1.61328
1.60913
1.60486
1.60138
1.59838
1.59379
1.5854
1.5737
1.56156
1.55481
1.55369
1.5546
1.55896
1.55997
1.55723
1.5526
1.53565
2.24591
2.17658
2.10277
2.02856
1.96548
1.9022
1.84044
1.77921
1.72858
1.67756
1.62806
1.58959
1.56617
1.5325
1.49163
1.47671
1.46473
1.43633
1.39946
1.38696
1.37656
1.36004
1.34673
1.33815
1.32835
1.31292
1.29573
1.27666
1.26168
1.25786
1.25262
1.24665
1.24455
1.24306
1.2387
1.23612
1.24261
1.26008
1.2931
1.33801
1.38608
1.42327
1.43656
1.4465
1.45131
1.45419
1.45921
1.46506
1.4724
1.48057
1.48519
1.48572
1.48397
1.47915
1.47159
1.46677
1.46544
1.46534
1.46755
1.47493
1.48053
1.48197
1.48245
1.48165
1.47919
1.47505
1.46974
1.46676
1.46675
1.46781
1.46897
1.47144
1.47573
1.47994
1.48148
1.4817
1.48205
1.48212
1.48163
1.4804
1.47895
1.47768
1.47669
1.47631
1.47635
1.4769
1.47842
1.48068
1.48301
1.485
1.48677
1.4882
1.48874
1.48828
1.48677
1.48675
1.48823
1.48984
1.4912
1.4925
1.49411
1.49574
1.4972
1.49887
1.5012
1.5036
1.50538
1.50596
1.50563
1.5073
1.5116
1.51475
1.5158
1.51597
1.5157
1.51384
1.50939
1.5034
1.49973
1.49948
1.50082
1.50446
1.5109
1.51971
1.52716
1.52945
1.52912
1.52734
1.52392
1.51735
1.51084
1.51021
1.51087
1.51222
1.51524
1.52104
1.52955
1.53626
1.53858
1.53876
1.53721
1.53476
1.53272
1.53272
1.53457
1.53847
1.54442
1.55278
1.55961
1.56175
1.56167
1.55887
1.55424
1.55193
1.55181
1.55331
1.55795
1.56577
1.57436
1.57892
1.57956
1.57895
1.5762
1.57391
1.57357
1.57391
1.57598
1.57834
1.5784
1.57742
1.57569
1.57353
1.5713
1.56932
1.56694
1.56373
1.55919
1.55359
1.54847
1.54357
1.53627
1.52627
1.51473
1.50463
1.50045
1.50032
1.50318
1.51019
1.5127
1.51244
1.5117
1.5023
2.26034
2.19582
2.12577
2.06263
2.00186
1.94062
1.87875
1.82561
1.77218
1.72729
1.68261
1.64056
1.61208
1.58465
1.55276
1.51536
1.49686
1.47531
1.44387
1.42349
1.41806
1.40669
1.38876
1.37082
1.359
1.34667
1.33049
1.30794
1.29042
1.28532
1.27907
1.27013
1.2643
1.25817
1.24555
1.23095
1.22808
1.22949
1.23598
1.24979
1.27726
1.31608
1.35285
1.38351
1.40337
1.41422
1.42575
1.43631
1.44744
1.46244
1.46796
1.46866
1.46843
1.46644
1.46082
1.45555
1.45425
1.45503
1.4601
1.4663
1.4677
1.46873
1.46959
1.46869
1.46306
1.45695
1.45589
1.4565
1.45741
1.46022
1.46329
1.46577
1.46844
1.46921
1.46893
1.46769
1.46678
1.46646
1.46628
1.46595
1.46534
1.46432
1.46274
1.46148
1.4614
1.46179
1.46306
1.46537
1.46815
1.47088
1.47334
1.47547
1.47746
1.47861
1.47822
1.47595
1.47482
1.47484
1.47529
1.47638
1.47821
1.48026
1.48231
1.48517
1.48869
1.49202
1.4946
1.49557
1.49475
1.49215
1.49237
1.494
1.49475
1.49463
1.49292
1.48959
1.48705
1.48659
1.48764
1.48961
1.49292
1.49813
1.50377
1.50741
1.50799
1.50769
1.50674
1.50428
1.4988
1.49238
1.49101
1.49174
1.49334
1.49673
1.50346
1.5121
1.51676
1.5175
1.51688
1.51444
1.51027
1.5075
1.5075
1.50922
1.5127
1.51899
1.52831
1.53457
1.53563
1.53492
1.53128
1.52577
1.52317
1.52288
1.52346
1.52687
1.53402
1.54065
1.54249
1.5419
1.53937
1.53545
1.53322
1.53253
1.53281
1.53497
1.53843
1.53889
1.53744
1.5349
1.53205
1.52984
1.5281
1.52651
1.52486
1.52225
1.5175
1.51056
1.50249
1.49304
1.48232
1.47169
1.46107
1.45279
1.45077
1.45152
1.45546
1.45922
1.46134
1.4631
1.46332
1.45827
2.2702
2.20877
2.14679
2.08982
2.03108
1.97036
1.91729
1.86628
1.81641
1.77095
1.73178
1.69143
1.65479
1.6286
1.59872
1.56082
1.5328
1.51388
1.48956
1.46219
1.4506
1.43942
1.42758
1.41228
1.38873
1.36967
1.35539
1.34019
1.32602
1.31936
1.3118
1.30008
1.29072
1.28306
1.26981
1.25318
1.24331
1.24039
1.23964
1.24126
1.24456
1.25104
1.2608
1.27449
1.29655
1.32809
1.36042
1.39161
1.41348
1.42896
1.43886
1.44582
1.44993
1.45025
1.44697
1.44427
1.44556
1.45077
1.45516
1.45627
1.45541
1.45346
1.45194
1.44867
1.44256
1.44114
1.44179
1.44424
1.44891
1.45604
1.45894
1.46029
1.46096
1.46031
1.45769
1.45476
1.45353
1.45342
1.45362
1.45357
1.4532
1.45255
1.45127
1.44939
1.44923
1.44967
1.45091
1.45326
1.45651
1.46019
1.46321
1.46557
1.46782
1.46936
1.46931
1.46706
1.46388
1.46225
1.46194
1.46257
1.46449
1.46731
1.47006
1.47338
1.4772
1.4806
1.48312
1.48419
1.48376
1.48052
1.47687
1.47654
1.47676
1.47672
1.47624
1.47549
1.47556
1.47804
1.48316
1.48682
1.48896
1.49018
1.49085
1.49084
1.49069
1.48971
1.48701
1.48233
1.47767
1.47655
1.47739
1.4795
1.48384
1.49115
1.49787
1.49996
1.49991
1.49922
1.49702
1.49217
1.4888
1.48867
1.48986
1.49306
1.49951
1.50832
1.51292
1.51323
1.51236
1.50884
1.50359
1.50125
1.50089
1.50118
1.50393
1.50944
1.51286
1.51292
1.51091
1.506
1.50161
1.49957
1.49896
1.49949
1.50241
1.50653
1.50717
1.50503
1.50056
1.49596
1.49277
1.49111
1.49003
1.48939
1.48858
1.48614
1.48065
1.47222
1.46126
1.44823
1.43511
1.4236
1.41401
1.40772
1.40708
1.40818
1.40982
1.41008
1.41065
1.41178
1.41185
1.4074
2.27588
2.21924
2.16491
2.1108
2.05329
1.99915
1.95108
1.90271
1.85498
1.81091
1.77321
1.7351
1.69635
1.66696
1.63951
1.60555
1.57019
1.54805
1.53012
1.51166
1.4946
1.47298
1.45352
1.44058
1.42306
1.402
1.38503