/*--------------------------------*- C++ -*----------------------------------*\
  =========                 |
  \\      /  F ield         | OpenFOAM: The Open Source CFD Toolbox
   \\    /   O peration     | Website:  https://openfoam.org
    \\  /    A nd           | Version:  7
     \\/     M anipulation  |
\*---------------------------------------------------------------------------*/
FoamFile
{
    version     2.0;
    format      ascii;
    class       volVectorField;
    location    "0.9";
    object      U;
}
// * * * * * * * * * * * * * * * * * * * * * * * * * * * * * * * * * * * * * //

dimensions      [0 1 -1 0 0 0 0];

internalField   nonuniform List<vector> 
16128
(
(3 -1.2059e-17 0)
(3 -8.83679e-17 0)
(3 6.09035e-17 0)
(3 3.95452e-16 0)
(3 3.31312e-16 0)
(3 1.73874e-16 0)
(3 -1.44272e-16 0)
(3 -3.6116e-16 0)
(3 -7.86121e-17 0)
(3 -6.14904e-16 0)
(3 -7.93293e-16 0)
(3 -1.07063e-15 0)
(3 -1.03004e-15 0)
(3 -4.55612e-16 0)
(3 -4.61079e-17 0)
(3 5.54305e-17 0)
(3 5.12791e-16 0)
(3 6.68229e-16 0)
(3 6.39701e-16 0)
(3 5.07185e-16 0)
(3 8.77843e-16 0)
(3 1.09347e-15 0)
(3 7.22621e-16 0)
(3 6.51053e-16 0)
(3 3.24351e-16 0)
(3 2.19269e-16 0)
(3 -4.78409e-16 0)
(1.7588 0.00632416 0)
(0.753116 0.00456662 0)
(0.669042 0.0174174 0)
(0.625647 0.0196192 0)
(0.584286 0.0184468 0)
(0.552836 0.0147668 0)
(0.531103 0.0127792 0)
(0.508358 0.0136609 0)
(0.479495 0.0150591 0)
(0.442034 0.0155691 0)
(0.403788 0.0155363 0)
(0.368655 0.0157965 0)
(0.334563 0.0163287 0)
(0.298034 0.016808 0)
(0.258321 0.0170606 0)
(0.216564 0.0178549 0)
(0.176539 0.0185153 0)
(0.139268 0.0196578 0)
(0.101646 0.0211853 0)
(0.0629392 0.0227263 0)
(0.0243082 0.0244666 0)
(3 7.81994e-17 0)
(3 -1.47996e-16 0)
(3 1.96325e-16 0)
(3 7.62293e-16 0)
(3 8.82558e-16 0)
(3 5.49524e-16 0)
(3 1.68561e-16 0)
(3 1.07558e-16 0)
(3 1.2383e-16 0)
(3 -4.14184e-16 0)
(3 -1.05453e-15 0)
(3 -1.53376e-15 0)
(3 -2.00962e-15 0)
(3 -1.29509e-15 0)
(3 -5.29129e-16 0)
(3 -3.28395e-16 0)
(3 4.96239e-16 0)
(3 1.21904e-15 0)
(3 1.83961e-15 0)
(3 1.74896e-15 0)
(3 2.10332e-15 0)
(3 1.60611e-15 0)
(3 3.67718e-16 0)
(3 -2.109e-16 0)
(3 -1.11731e-15 0)
(3 -1.44449e-15 0)
(3 -1.51225e-15 0)
(1.77668 0.0334871 0)
(0.745249 0.0257066 0)
(0.658961 0.0499849 0)
(0.615416 0.0563962 0)
(0.574473 0.0528699 0)
(0.544555 0.0424421 0)
(0.523167 0.0367812 0)
(0.500774 0.039581 0)
(0.472207 0.0443395 0)
(0.434608 0.0463348 0)
(0.396007 0.0462795 0)
(0.36057 0.0468585 0)
(0.326425 0.0482291 0)
(0.29004 0.0495508 0)
(0.250509 0.0503679 0)
(0.209172 0.052696 0)
(0.170174 0.0549079 0)
(0.134338 0.0588007 0)
(0.0984518 0.0639239 0)
(0.0613157 0.0688871 0)
(0.0239426 0.0745273 0)
(3 -8.86835e-17 0)
(3 -8.62857e-17 0)
(3 -1.66181e-16 0)
(3 -2.39967e-16 0)
(3 -2.1965e-16 0)
(3 -2.47364e-16 0)
(3 -1.45668e-16 0)
(3 2.55869e-16 0)
(3 7.46477e-17 0)
(3 7.24109e-17 0)
(3 -2.18866e-17 0)
(3 -3.41235e-16 0)
(3 -1.13066e-15 0)
(3 -1.39547e-15 0)
(3 -1.60423e-15 0)
(3 -9.0804e-16 0)
(3 -6.14524e-16 0)
(3 5.73022e-16 0)
(3 1.78541e-15 0)
(3 2.30945e-15 0)
(3 1.46306e-15 0)
(3 6.14308e-17 0)
(3 -2.12513e-16 0)
(3 -8.63093e-16 0)
(3 -1.47365e-15 0)
(3 -1.38621e-15 0)
(3 -2.05959e-15 0)
(1.83547 0.0618026 0)
(0.748829 0.0494706 0)
(0.660248 0.0847392 0)
(0.615274 0.0950455 0)
(0.573837 0.088285 0)
(0.544897 0.0715064 0)
(0.522401 0.0622329 0)
(0.499522 0.0662895 0)
(0.471102 0.074389 0)
(0.433227 0.0785601 0)
(0.3936 0.0788879 0)
(0.356821 0.0797721 0)
(0.321404 0.0815788 0)
(0.283923 0.083089 0)
(0.243414 0.0837407 0)
(0.201284 0.0868506 0)
(0.162415 0.0900004 0)
(0.127295 0.0958088 0)
(0.0929634 0.104289 0)
(0.0577924 0.112787 0)
(0.022783 0.122264 0)
(3 -2.30067e-16 0)
(3 -3.35506e-16 0)
(3 -2.79215e-16 0)
(3 -6.16661e-16 0)
(3 -1.06177e-15 0)
(3 -5.3874e-16 0)
(3 -4.16327e-18 0)
(3 6.11195e-17 0)
(3 1.36603e-18 0)
(3 4.55039e-16 0)
(3 8.08193e-16 0)
(3 9.0874e-16 0)
(3 3.42065e-16 0)
(3 -4.24084e-16 0)
(3 -9.5839e-16 0)
(3 -9.39766e-16 0)
(3 -8.98392e-16 0)
(3 7.54504e-16 0)
(3 8.84905e-16 0)
(3 7.65104e-16 0)
(3 -3.85341e-16 0)
(3 -8.8016e-16 0)
(3 -6.89093e-16 0)
(3 -9.92584e-16 0)
(3 -1.34816e-15 0)
(3 -1.61888e-15 0)
(3 -5.70766e-16 0)
(1.92941 0.0852505 0)
(0.758104 0.0744937 0)
(0.6626 0.120807 0)
(0.61509 0.133017 0)
(0.574618 0.121736 0)
(0.54839 0.0996355 0)
(0.526758 0.0874615 0)
(0.504846 0.0925772 0)
(0.477519 0.104056 0)
(0.439756 0.111253 0)
(0.39905 0.112585 0)
(0.360681 0.11423 0)
(0.323526 0.116779 0)
(0.284435 0.11858 0)
(0.24249 0.119045 0)
(0.198981 0.122652 0)
(0.159269 0.126041 0)
(0.123884 0.132923 0)
(0.0899647 0.1438 0)
(0.055647 0.154918 0)
(0.0217941 0.167393 0)
(3 1.5761e-16 0)
(3 1.12271e-16 0)
(3 1.62345e-16 0)
(3 -1.67078e-17 0)
(3 -3.15472e-16 0)
(3 -2.61387e-16 0)
(3 -3.76723e-16 0)
(3 2.16955e-16 0)
(3 6.28498e-16 0)
(3 7.65263e-16 0)
(3 5.78608e-16 0)
(3 7.13579e-16 0)
(3 7.26775e-16 0)
(3 -1.21626e-16 0)
(3 -6.62497e-16 0)
(3 -3.23748e-16 0)
(3 1.88792e-16 0)
(3 -3.57305e-16 0)
(3 -1.331e-15 0)
(3 -1.49615e-15 0)
(3 -5.22148e-16 0)
(3 -5.56737e-17 0)
(3 -4.7747e-16 0)
(3 -3.77324e-16 0)
(3 -4.091e-16 0)
(3 -7.57853e-18 0)
(3 -9.54622e-16 0)
(2.0508 0.105002 0)
(0.771372 0.10576 0)
(0.657922 0.161059 0)
(0.609509 0.169033 0)
(0.576042 0.151328 0)
(0.556424 0.124905 0)
(0.536512 0.111001 0)
(0.515448 0.117986 0)
(0.487779 0.133951 0)
(0.448751 0.145231 0)
(0.40637 0.14761 0)
(0.366509 0.149751 0)
(0.328004 0.152916 0)
(0.28796 0.155113 0)
(0.245287 0.155719 0)
(0.201455 0.159987 0)
(0.160942 0.163718 0)
(0.125175 0.17083 0)
(0.0909166 0.183509 0)
(0.0560786 0.196144 0)
(0.0214868 0.21048 0)
(3 9.93973e-17 0)
(3 8.77665e-17 0)
(3 -1.4049e-16 0)
(3 -1.75781e-16 0)
(3 -8.93312e-17 0)
(3 -3.2595e-16 0)
(3 -4.12244e-16 0)
(3 -6.95149e-17 0)
(3 2.51239e-16 0)
(3 1.0203e-20 0)
(3 -3.55202e-16 0)
(3 -4.12162e-18 0)
(3 4.07911e-17 0)
(3 -5.64182e-16 0)
(3 -1.29308e-15 0)
(3 -9.95087e-16 0)
(3 -8.1664e-16 0)
(3 -1.05928e-15 0)
(3 -8.74911e-16 0)
(3 -1.15353e-15 0)
(3 -1.23701e-15 0)
(3 -1.2772e-15 0)
(3 -1.03344e-15 0)
(3 -8.03037e-16 0)
(3 -3.09572e-16 0)
(3 1.00733e-15 0)
(3 -5.57679e-16 0)
(2.19756 0.125149 0)
(0.792318 0.148715 0)
(0.65249 0.201908 0)
(0.610457 0.198649 0)
(0.588405 0.173928 0)
(0.57176 0.145571 0)
(0.550869 0.133433 0)
(0.528509 0.145006 0)
(0.497813 0.167047 0)
(0.456075 0.182069 0)
(0.412364 0.18423 0)
(0.372028 0.185818 0)
(0.333204 0.189125 0)
(0.293046 0.191953 0)
(0.250311 0.193476 0)
(0.206756 0.198948 0)
(0.16556 0.203414 0)
(0.129695 0.210724 0)
(0.0946252 0.224141 0)
(0.0584145 0.237326 0)
(0.0216272 0.252488 0)
(3 -2.87999e-16 0)
(3 -6.86613e-16 0)
(3 -1.04284e-15 0)
(3 -5.68495e-16 0)
(3 -1.00682e-16 0)
(3 -1.24626e-16 0)
(3 3.11124e-16 0)
(3 4.34169e-17 0)
(3 8.47009e-17 0)
(3 3.84182e-16 0)
(3 4.29367e-16 0)
(3 -4.27964e-17 0)
(3 -2.70802e-16 0)
(3 -2.01889e-16 0)
(3 -3.38814e-16 0)
(3 -7.20246e-17 0)
(3 3.07168e-16 0)
(3 -1.84516e-17 0)
(3 -1.52012e-16 0)
(3 -1.5983e-16 0)
(3 -1.12397e-15 0)
(3 -6.99695e-16 0)
(3 -2.40543e-17 0)
(3 5.97479e-18 0)
(3 -3.21395e-16 0)
(3 -4.46723e-16 0)
(3 -8.68235e-16 0)
(2.37113 0.143936 0)
(0.827471 0.20317 0)
(0.651945 0.235965 0)
(0.625285 0.219138 0)
(0.609827 0.189823 0)
(0.591289 0.16478 0)
(0.567287 0.158486 0)
(0.541427 0.176452 0)
(0.506207 0.204366 0)
(0.461873 0.220915 0)
(0.418181 0.221137 0)
(0.378501 0.221357 0)
(0.340213 0.224541 0)
(0.30049 0.228393 0)
(0.258154 0.231721 0)
(0.215202 0.239237 0)
(0.173384 0.245154 0)
(0.13734 0.253048 0)
(0.100957 0.266997 0)
(0.0625574 0.279681 0)
(0.0224306 0.29459 0)
(3 1.0838e-16 0)
(3 1.7443e-16 0)
(3 9.91173e-17 0)
(3 6.56681e-16 0)
(3 1.22047e-15 0)
(3 8.48711e-16 0)
(3 2.91067e-16 0)
(3 1.47643e-16 0)
(3 7.33989e-16 0)
(3 9.26708e-16 0)
(3 6.86544e-16 0)
(3 -7.89016e-16 0)
(3 -1.10499e-15 0)
(3 -8.23352e-16 0)
(3 -6.7395e-17 0)
(3 9.16329e-16 0)
(3 4.12282e-16 0)
(3 4.15994e-16 0)
(3 -1.69115e-16 0)
(3 -4.63584e-16 0)
(3 -2.89156e-16 0)
(3 8.55539e-16 0)
(3 1.18288e-15 0)
(3 1.00405e-15 0)
(3 1.77175e-16 0)
(3 -7.21642e-16 0)
(3 -1.89307e-15 0)
(2.57414 0.160224 0)
(0.884312 0.260008 0)
(0.668979 0.256928 0)
(0.65101 0.231793 0)
(0.633566 0.204917 0)
(0.611242 0.186755 0)
(0.582389 0.188973 0)
(0.552236 0.213774 0)
(0.51323 0.245618 0)
(0.467583 0.260422 0)
(0.424865 0.257374 0)
(0.386256 0.256076 0)
(0.34918 0.259159 0)
(0.310486 0.264453 0)
(0.268765 0.270367 0)
(0.226314 0.280867 0)
(0.18351 0.289177 0)
(0.146457 0.298309 0)
(0.107991 0.312729 0)
(0.0669397 0.324337 0)
(0.0233152 0.338221 0)
(3 7.89171e-17 0)
(3 3.42228e-16 0)
(3 7.65625e-16 0)
(3 7.49471e-16 0)
(3 5.36706e-16 0)
(3 5.67287e-16 0)
(3 -1.00094e-16 0)
(3 -2.31382e-16 0)
(3 -1.79052e-16 0)
(3 8.15982e-17 0)
(3 -5.55929e-16 0)
(3 -1.53127e-15 0)
(3 -2.44733e-15 0)
(3 -1.95429e-15 0)
(3 -4.16038e-16 0)
(3 3.54264e-16 0)
(3 4.89748e-16 0)
(3 3.42264e-16 0)
(3 -2.96839e-16 0)
(3 -1.68758e-15 0)
(3 -1.67316e-15 0)
(3 -7.08283e-16 0)
(3 2.21444e-16 0)
(3 5.14264e-16 0)
(3 -3.07242e-16 0)
(3 -1.18181e-15 0)
(3 -1.82964e-15 0)
(2.809 0.136897 0)
(0.963055 0.3022 0)
(0.696257 0.275122 0)
(0.676328 0.246374 0)
(0.652338 0.225843 0)
(0.62349 0.216466 0)
(0.589077 0.227536 0)
(0.552169 0.257517 0)
(0.511561 0.288512 0)
(0.469385 0.298208 0)
(0.432584 0.291427 0)
(0.397737 0.289033 0)
(0.36297 0.292489 0)
(0.325417 0.300081 0)
(0.283972 0.309444 0)
(0.241761 0.323621 0)
(0.197841 0.335133 0)
(0.158609 0.346247 0)
(0.116851 0.361571 0)
(0.072166 0.372289 0)
(0.0246642 0.384849 0)
(3 -2.69771e-16 0)
(3 -1.39692e-16 0)
(3 -1.67768e-16 0)
(3 -4.65652e-16 0)
(3 -4.78476e-16 0)
(3 9.84263e-17 0)
(3 2.78104e-16 0)
(3 4.4339e-17 0)
(3 -8.51771e-17 0)
(3 -3.71545e-16 0)
(3 -1.80085e-15 0)
(3 -1.62945e-15 0)
(3 -1.2821e-15 0)
(3 -9.82512e-16 0)
(3 7.21349e-16 0)
(3 6.51874e-16 0)
(3 4.37475e-16 0)
(3 -6.68485e-17 0)
(3 -4.70279e-16 0)
(3 -2.80231e-16 0)
(3 -5.42817e-16 0)
(3 -1.44191e-16 0)
(3 1.56552e-16 0)
(3 1.94974e-16 0)
(3 8.427e-17 0)
(3 -4.67065e-17 0)
(3 -2.84292e-16 0)
(2.97543 0.0398856 0)
(1.05913 0.328675 0)
(0.715438 0.295589 0)
(0.689246 0.268934 0)
(0.656576 0.254964 0)
(0.620053 0.252688 0)
(0.582142 0.270544 0)
(0.545687 0.302614 0)
(0.511329 0.327777 0)
(0.479548 0.329945 0)
(0.44945 0.32016 0)
(0.416902 0.318724 0)
(0.38243 0.324791 0)
(0.344501 0.336531 0)
(0.301896 0.350562 0)
(0.25865 0.369005 0)
(0.212716 0.384418 0)
(0.170026 0.397946 0)
(0.124379 0.41444 0)
(0.0761588 0.424696 0)
(0.0255159 0.43582 0)
(3 -3.15468e-18 0)
(3 2.14294e-16 0)
(3 -8.88964e-17 0)
(3 -7.58165e-16 0)
(3 -2.96562e-16 0)
(3 4.37292e-16 0)
(3 7.70753e-16 0)
(3 8.68942e-16 0)
(3 6.6779e-16 0)
(3 1.98444e-16 0)
(3 -7.16896e-16 0)
(3 -5.54834e-16 0)
(3 1.59591e-16 0)
(3 1.44681e-15 0)
(3 2.11102e-15 0)
(3 1.89248e-15 0)
(3 6.57376e-16 0)
(3 -1.24915e-16 0)
(3 -2.4496e-17 0)
(3 6.52219e-16 0)
(3 7.92996e-16 0)
(3 5.4791e-16 0)
(3 4.47339e-16 0)
(3 5.19898e-16 0)
(3 -6.45653e-17 0)
(3 -1.09731e-17 0)
(3 -1.32699e-16 0)
(3.00252 0.00230772 0)
(1.20693 0.34557 0)
(0.716895 0.32372 0)
(0.683752 0.295897 0)
(0.64995 0.286746 0)
(0.61337 0.291209 0)
(0.576922 0.31307 0)
(0.550386 0.34374 0)
(0.524714 0.359578 0)
(0.501972 0.354401 0)
(0.474185 0.345755 0)
(0.441804 0.347432 0)
(0.405518 0.358349 0)
(0.365874 0.375675 0)
(0.32175 0.394891 0)
(0.277704 0.417012 0)
(0.231648 0.435838 0)
(0.186325 0.451791 0)
(0.136883 0.470429 0)
(0.083666 0.482021 0)
(0.0280986 0.492775 0)
(3 7.56111e-17 0)
(3 3.21292e-16 0)
(3 5.06416e-16 0)
(3 4.70317e-16 0)
(3 -2.34022e-16 0)
(3 -6.58365e-16 0)
(3 -4.67512e-16 0)
(3 8.52749e-17 0)
(3 -1.61054e-16 0)
(3 -3.89614e-16 0)
(3 3.1547e-16 0)
(3 1.78496e-15 0)
(3 1.94357e-15 0)
(3 1.5282e-15 0)
(3 1.54993e-15 0)
(3 1.70122e-15 0)
(3 1.65629e-15 0)
(3 1.11988e-15 0)
(3 -1.19515e-17 0)
(3 5.2486e-17 0)
(3 4.95326e-16 0)
(3 7.30149e-16 0)
(3 4.89105e-17 0)
(3 -4.26285e-16 0)
(3 -3.77583e-16 0)
(3 -1.04985e-15 0)
(3 -1.44341e-15 0)
(3.00002 6.43039e-06 0)
(1.45368 0.373507 0)
(0.738679 0.354764 0)
(0.682056 0.324473 0)
(0.648337 0.321397 0)
(0.616739 0.33015 0)
(0.591067 0.351176 0)
(0.573951 0.375447 0)
(0.553797 0.383605 0)
(0.53409 0.37676 0)
(0.504887 0.371776 0)
(0.469942 0.377527 0)
(0.4309 0.394614 0)
(0.388452 0.418047 0)
(0.342751 0.442083 0)
(0.297443 0.4671 0)
(0.250568 0.489976 0)
(0.201265 0.51003 0)
(0.147892 0.53265 0)
(0.0904746 0.547522 0)
(0.0295389 0.558274 0)
(3 1.74633e-17 0)
(3 1.41935e-16 0)
(3 2.84948e-16 0)
(3 6.4716e-16 0)
(3 5.06802e-16 0)
(3 -4.84404e-17 0)
(3 1.61015e-16 0)
(3 -6.1514e-17 0)
(3 -9.70729e-16 0)
(3 -1.09527e-15 0)
(3 2.66181e-16 0)
(3 9.62572e-16 0)
(3 1.38208e-15 0)
(3 8.21539e-16 0)
(3 6.80217e-16 0)
(3 9.32418e-16 0)
(3 1.31051e-15 0)
(3 1.81414e-15 0)
(3 1.67851e-15 0)
(3 1.2538e-15 0)
(3 6.24994e-16 0)
(3 -1.49879e-16 0)
(3 -3.17853e-16 0)
(3 -4.60593e-16 0)
(3 -3.32911e-16 0)
(3 -4.65611e-16 0)
(3 -7.47718e-16 0)
(3 1.33615e-09 0)
(1.80381 0.398724 0)
(0.778241 0.401052 0)
(0.699843 0.360492 0)
(0.673211 0.356353 0)
(0.647674 0.36058 0)
(0.628762 0.376183 0)
(0.614233 0.396785 0)
(0.594143 0.406319 0)
(0.570798 0.401717 0)
(0.536596 0.401769 0)
(0.496297 0.413104 0)
(0.453215 0.436974 0)
(0.407552 0.465527 0)
(0.361612 0.492631 0)
(0.317395 0.519393 0)
(0.275334 0.545489 0)
(0.227569 0.569299 0)
(0.173937 0.596938 0)
(0.109917 0.620452 0)
(0.0381659 0.636295 0)
(3 8.33264e-17 0)
(3 -3.82566e-16 0)
(3 -2.48065e-16 0)
(3 6.56943e-16 0)
(3 1.79453e-15 0)
(3 1.95504e-15 0)
(3 1.4615e-15 0)
(3 6.46314e-16 0)
(3 3.33975e-16 0)
(3 9.46711e-16 0)
(3 -2.48937e-17 0)
(3 6.85661e-16 0)
(3 8.80242e-16 0)
(3 7.68528e-16 0)
(3 5.28869e-16 0)
(3 6.65352e-16 0)
(3 7.70068e-16 0)
(3 1.57951e-15 0)
(3 1.87818e-15 0)
(3 1.36709e-15 0)
(3 5.26637e-16 0)
(3 -2.77427e-16 0)
(3 -6.24474e-16 0)
(3 -5.89962e-16 0)
(3 -1.14266e-15 0)
(3 -9.65999e-16 0)
(3 -5.45863e-16 0)
(3 -8.52785e-13 0)
(2.30075 0.385236 0)
(0.865674 0.434811 0)
(0.753801 0.373204 0)
(0.729763 0.366439 0)
(0.702379 0.37319 0)
(0.679341 0.392638 0)
(0.657762 0.417513 0)
(0.632228 0.433591 0)
(0.600904 0.434222 0)
(0.560228 0.440084 0)
(0.513111 0.456915 0)
(0.46564 0.485455 0)
(0.422507 0.516601 0)
(0.38314 0.542494 0)
(0.347392 0.568054 0)
(0.31005 0.597172 0)
(0.260975 0.630821 0)
(0.199828 0.67316 0)
(0.127431 0.715247 0)
(0.0391879 0.738213 0)
(3 1.05787e-16 0)
(3 -3.37141e-16 0)
(3 -1.16011e-16 0)
(3 7.24263e-16 0)
(3 1.45068e-15 0)
(3 1.79969e-15 0)
(3 7.91504e-16 0)
(3 5.66027e-16 0)
(3 9.29259e-16 0)
(3 7.22209e-16 0)
(3 8.35835e-16 0)
(3 9.47808e-16 0)
(3 1.20475e-15 0)
(3 1.35798e-15 0)
(3 9.22207e-16 0)
(3 6.23021e-16 0)
(3 7.31076e-16 0)
(3 -4.51892e-16 0)
(3 -2.60722e-16 0)
(3 -2.51959e-16 0)
(3 -2.60219e-16 0)
(3 -2.35549e-16 0)
(3 -3.14853e-16 0)
(3 -4.86378e-16 0)
(3 -5.80842e-16 0)
(3 -9.72885e-16 0)
(3 -5.53109e-16 0)
(3 -3.85512e-13 0)
(2.87075 0.193902 0)
(1.02666 0.445218 0)
(0.797317 0.398636 0)
(0.768109 0.398311 0)
(0.735472 0.407308 0)
(0.708115 0.427773 0)
(0.681367 0.454068 0)
(0.650379 0.472697 0)
(0.611215 0.474917 0)
(0.565204 0.4828 0)
(0.519841 0.503071 0)
(0.479955 0.532596 0)
(0.447565 0.562944 0)
(0.415181 0.586991 0)
(0.386051 0.613589 0)
(0.353075 0.650729 0)
(0.310063 0.699895 0)
(0.256049 0.755152 0)
(0.187449 0.814352 0)
(0.0735087 0.865101 0)
(3 9.00589e-18 0)
(3 3.43395e-17 0)
(3 -3.23976e-16 0)
(3 -8.80707e-17 0)
(3 -4.14774e-16 0)
(3 -8.0933e-16 0)
(3 -6.79454e-17 0)
(3 3.49852e-16 0)
(3 5.66547e-16 0)
(3 8.62282e-16 0)
(3 1.14195e-15 0)
(3 1.21024e-15 0)
(3 1.3737e-15 0)
(3 1.7695e-15 0)
(3 1.52889e-15 0)
(3 1.00763e-15 0)
(3 -9.14657e-17 0)
(3 -4.44655e-16 0)
(3 -2.67835e-16 0)
(3 -4.19775e-16 0)
(3 -9.89062e-16 0)
(3 -1.40622e-15 0)
(3 -1.17015e-15 0)
(3 -6.92669e-16 0)
(3 -1.52836e-16 0)
(3 -8.14591e-18 0)
(3 6.98861e-16 0)
(3 -1.88495e-14 0)
(3.04124 0.0167132 0)
(1.18158 0.423201 0)
(0.804097 0.43439 0)
(0.762101 0.434197 0)
(0.724922 0.44025 0)
(0.693772 0.459988 0)
(0.666711 0.489532 0)
(0.640203 0.511533 0)
(0.611259 0.515394 0)
(0.577705 0.522544 0)
(0.543029 0.541422 0)
(0.511406 0.569807 0)
(0.485624 0.600936 0)
(0.459871 0.627315 0)
(0.435927 0.657967 0)
(0.410764 0.700594 0)
(0.380169 0.758424 0)
(0.330123 0.840225 0)
(0.233704 0.966308 0)
(0.123889 1.10769 0)
(3 1.11003e-17 0)
(3 4.07648e-17 0)
(3 -1.30737e-16 0)
(3 -5.71919e-16 0)
(3 -1.46655e-15 0)
(3 -1.14589e-15 0)
(3 -5.63653e-16 0)
(3 2.06892e-16 0)
(3 8.91459e-16 0)
(3 1.38293e-15 0)
(3 1.32662e-15 0)
(3 1.02481e-15 0)
(3 8.36398e-16 0)
(3 1.61829e-15 0)
(3 1.70708e-15 0)
(3 9.25456e-16 0)
(3 6.50487e-16 0)
(3 6.31325e-16 0)
(3 1.28963e-16 0)
(3 -2.01732e-16 0)
(3 -3.79833e-16 0)
(3 -6.04949e-16 0)
(3 -7.51815e-16 0)
(3 -7.8543e-16 0)
(3 -2.60769e-16 0)
(3 1.75539e-15 0)
(3 2.23428e-15 0)
(3 1.27099e-15 0)
(3.00143 7.48445e-05 0)
(1.41419 0.434216 0)
(0.78834 0.464578 0)
(0.737119 0.456661 0)
(0.709938 0.469217 0)
(0.685862 0.493363 0)
(0.666699 0.525762 0)
(0.648999 0.546504 0)
(0.630763 0.548343 0)
(0.606944 0.553706 0)
(0.581202 0.571538 0)
(0.557703 0.600037 0)
(0.537165 0.632744 0)
(0.518147 0.662523 0)
(0.500746 0.697011 0)
(0.480641 0.745639 0)
(0.458992 0.823283 0)
(0.434006 0.953711 0)
(0.425229 1.13017 0)
(0.532009 1.41566 0)
(3 -7.4998e-17 0)
(3 -6.35791e-17 0)
(3 -2.53291e-16 0)
(3 -8.93024e-16 0)
(3 -1.26322e-15 0)
(3 -7.53848e-16 0)
(3 -7.63444e-16 0)
(3 -1.76641e-16 0)
(3 7.7866e-16 0)
(3 1.16614e-15 0)
(3 1.28025e-15 0)
(3 8.67718e-16 0)
(3 9.23386e-16 0)
(3 6.42607e-16 0)
(3 -6.18607e-17 0)
(3 -1.53366e-16 0)
(3 5.58221e-16 0)
(3 8.69451e-16 0)
(3 3.54676e-16 0)
(3 -2.92762e-16 0)
(3 -1.48684e-17 0)
(3 2.85528e-16 0)
(3 9.73322e-17 0)
(3 -2.54889e-16 0)
(3 -5.82517e-17 0)
(3 1.7385e-16 0)
(3 9.40888e-16 0)
(3 1.2969e-15 0)
(3 -1.4453e-07 0)
(1.87424 0.479653 0)
(0.831528 0.526431 0)
(0.751405 0.485612 0)
(0.729186 0.496387 0)
(0.709657 0.522875 0)
(0.693963 0.555979 0)
(0.678872 0.574452 0)
(0.666446 0.575849 0)
(0.650261 0.58077 0)
(0.632423 0.597322 0)
(0.616578 0.624534 0)
(0.601172 0.656959 0)
(0.587878 0.689654 0)
(0.576514 0.730165 0)
(0.563045 0.789227 0)
(0.557846 0.885235 0)
(0.566255 1.02438 0)
(0.650669 1.18914 0)
(0.952773 1.40782 0)
(3 -8.17956e-17 0)
(3 3.44451e-16 0)
(3 4.32135e-16 0)
(3 1.35839e-17 0)
(3 -2.73522e-16 0)
(3 -7.12409e-16 0)
(3 -6.91955e-16 0)
(3 -4.85948e-16 0)
(3 -5.44819e-16 0)
(3 6.19449e-17 0)
(3 1.12865e-15 0)
(3 1.06017e-15 0)
(3 6.72924e-16 0)
(3 -6.49477e-16 0)
(3 -1.17318e-15 0)
(3 -1.31961e-15 0)
(3 3.98961e-17 0)
(3 5.80609e-16 0)
(3 -3.64711e-17 0)
(3 1.58842e-16 0)
(3 -2.46545e-16 0)
(3 -2.16724e-16 0)
(3 -6.30589e-16 0)
(3 -3.12963e-16 0)
(3 -2.48589e-16 0)
(3 -8.3027e-16 0)
(3 -1.11524e-15 0)
(3 3.80522e-16 0)
(3 -3.23582e-08 0)
(2.58317 0.377514 0)
(0.968854 0.565659 0)
(0.824523 0.493329 0)
(0.79214 0.508499 0)
(0.763321 0.543463 0)
(0.74292 0.582456 0)
(0.723179 0.601279 0)
(0.712157 0.601245 0)
(0.700815 0.604088 0)
(0.688817 0.619093 0)
(0.677481 0.645595 0)
(0.665815 0.679435 0)
(0.656645 0.716333 0)
(0.651114 0.762479 0)
(0.648277 0.827677 0)
(0.659426 0.926886 0)
(0.701867 1.05014 0)
(0.844801 1.19385 0)
(1.16549 1.3374 0)
(3 -9.65326e-17 0)
(3 -2.08461e-16 0)
(3 1.35495e-16 0)
(3 3.16298e-16 0)
(3 7.19913e-16 0)
(3 6.97319e-16 0)
(3 9.70774e-16 0)
(3 8.58975e-16 0)
(3 3.40324e-16 0)
(3 -2.21541e-17 0)
(3 1.87977e-16 0)
(3 -5.8242e-17 0)
(3 -4.73795e-16 0)
(3 -3.46838e-16 0)
(3 1.96503e-16 0)
(3 2.01509e-16 0)
(3 -7.18593e-17 0)
(3 -1.99487e-17 0)
(3 1.45031e-16 0)
(3 3.01716e-16 0)
(3 4.20023e-16 0)
(3 1.44694e-16 0)
(3 -4.05454e-16 0)
(3 -1.03017e-15 0)
(3 -9.03593e-16 0)
(3 -7.71768e-16 0)
(3 -7.67897e-16 0)
(3 2.85776e-16 0)
(3 -3.51507e-09 0)
(3.08025 0.0555847 0)
(1.21661 0.540989 0)
(0.877787 0.533638 0)
(0.841867 0.553912 0)
(0.799134 0.584016 0)
(0.774136 0.618745 0)
(0.756512 0.631014 0)
(0.749369 0.627983 0)
(0.742436 0.627849 0)
(0.734576 0.641337 0)
(0.726486 0.66703 0)
(0.718864 0.702443 0)
(0.714344 0.743465 0)
(0.715687 0.792466 0)
(0.728192 0.858158 0)
(0.752683 0.951974 0)
(0.827896 1.0599 0)
(0.989342 1.17577 0)
(1.27658 1.26464 0)
(3 -6.77525e-17 0)
(3 -3.259e-16 0)
(3 -1.62224e-16 0)
(3 1.38944e-16 0)
(3 5.33234e-16 0)
(3 9.00673e-16 0)
(3 9.36565e-16 0)
(3 8.97049e-16 0)
(3 7.11454e-16 0)
(3 -3.71169e-16 0)
(3 -1.24257e-15 0)
(3 -7.90862e-16 0)
(3 -2.70625e-16 0)
(3 2.62013e-16 0)
(3 9.52034e-16 0)
(3 1.58e-15 0)
(3 9.78485e-16 0)
(3 8.17009e-16 0)
(3 1.55465e-15 0)
(3 1.85316e-15 0)
(3 1.94151e-15 0)
(3 1.32909e-15 0)
(3 8.5729e-16 0)
(3 5.98548e-16 0)
(3 2.43183e-16 0)
(3 -4.12194e-16 0)
(3 1.94853e-16 0)
(3 1.04807e-15 0)
(3 -1.66943e-10 0)
(3.00807 0.000478251 0)
(1.46964 0.533387 0)
(0.864954 0.58698 0)
(0.830642 0.594164 0)
(0.811195 0.620198 0)
(0.796996 0.643591 0)
(0.785159 0.652235 0)
(0.779477 0.651034 0)
(0.775566 0.649603 0)
(0.770566 0.661509 0)
(0.766057 0.685662 0)
(0.76276 0.722063 0)
(0.763755 0.76699 0)
(0.772412 0.817592 0)
(0.795829 0.879533 0)
(0.834736 0.959091 0)
(0.926746 1.0506 0)
(1.08448 1.13656 0)
(1.32016 1.18967 0)
(3 5.75042e-17 0)
(3 3.16171e-16 0)
(3 1.94082e-16 0)
(3 1.19746e-17 0)
(3 1.24202e-16 0)
(3 1.75315e-16 0)
(3 -2.28587e-16 0)
(3 -9.24047e-16 0)
(3 -9.19818e-16 0)
(3 -7.65558e-16 0)
(3 -7.8798e-16 0)
(3 -2.09675e-17 0)
(3 6.7401e-16 0)
(3 4.043e-16 0)
(3 5.74966e-16 0)
(3 8.86763e-16 0)
(3 9.02416e-16 0)
(3 7.41757e-16 0)
(3 1.39053e-15 0)
(3 2.13684e-15 0)
(3 2.08774e-15 0)
(3 1.75845e-15 0)
(3 1.42644e-15 0)
(3 1.56964e-15 0)
(3 1.26126e-15 0)
(3 5.59365e-16 0)
(3 6.86831e-16 0)
(3 4.40606e-16 0)
(3 -3.79321e-12 0)
(3.00003 -1.50939e-06 0)
(2.14213 0.522363 0)
(0.940644 0.639182 0)
(0.852013 0.604532 0)
(0.846023 0.631673 0)
(0.831712 0.65681 0)
(0.819238 0.668446 0)
(0.811601 0.671046 0)
(0.808206 0.670087 0)
(0.804356 0.680355 0)
(0.802503 0.702854 0)
(0.803097 0.738704 0)
(0.808636 0.785978 0)
(0.824413 0.838537 0)
(0.852835 0.896785 0)
(0.905465 0.963529 0)
(1.00571 1.03793 0)
(1.14891 1.09822 0)
(1.3463 1.13309 0)
(3 5.74099e-17 0)
(3 1.27792e-16 0)
(3 -2.80726e-16 0)
(3 -2.35924e-16 0)
(3 -2.67106e-16 0)
(3 -3.68173e-16 0)
(3 -7.38546e-16 0)
(3 -1.03634e-15 0)
(3 -9.87201e-16 0)
(3 9.49321e-17 0)
(3 9.21236e-16 0)
(3 1.19813e-15 0)
(3 1.20636e-15 0)
(3 -1.69418e-17 0)
(3 -9.27042e-16 0)
(3 -8.1568e-16 0)
(3 -1.80681e-16 0)
(3 -2.00953e-17 0)
(3 2.77646e-16 0)
(3 -1.75025e-16 0)
(3 -6.24384e-16 0)
(3 -6.69096e-16 0)
(3 4.37731e-16 0)
(3 8.3011e-16 0)
(3 1.01261e-15 0)
(3 1.21262e-15 0)
(3 1.06918e-15 0)
(3 1.66318e-16 0)
(3 1.42164e-14 0)
(3 -4.65938e-07 0)
(2.98678 0.17624 0)
(1.17958 0.641424 0)
(0.918553 0.61425 0)
(0.902008 0.654053 0)
(0.878827 0.676644 0)
(0.859529 0.687306 0)
(0.845732 0.69181 0)
(0.839448 0.692083 0)
(0.835939 0.700547 0)
(0.836404 0.721612 0)
(0.841554 0.755501 0)
(0.852413 0.801186 0)
(0.873194 0.853255 0)
(0.905097 0.905357 0)
(0.964488 0.959515 0)
(1.0602 1.01457 0)
(1.18721 1.05642 0)
(1.35176 1.07829 0)
(3 -7.87148e-18 0)
(3 -4.03746e-16 0)
(3 -3.87775e-16 0)
(3 6.24778e-18 0)
(3 -2.21622e-16 0)
(3 -4.35273e-17 0)
(3 1.3484e-16 0)
(3 2.81103e-16 0)
(3 3.08289e-16 0)
(3 6.51769e-16 0)
(3 8.89681e-16 0)
(3 2.7687e-16 0)
(3 -3.85177e-16 0)
(3 -7.98159e-16 0)
(3 -1.38169e-15 0)
(3 -1.7333e-15 0)
(3 -1.49033e-15 0)
(3 -5.98216e-16 0)
(3 -6.99201e-17 0)
(3 -5.64152e-16 0)
(3 -8.59016e-16 0)
(3 -2.61711e-16 0)
(3 6.91155e-16 0)
(3 8.07545e-16 0)
(3 9.72391e-16 0)
(3 1.13892e-15 0)
(3 8.39585e-16 0)
(3 4.81169e-17 0)
(3 -7.02575e-16 0)
(3 -5.66117e-08 0)
(3.03097 0.00604618 0)
(1.43646 0.606092 0)
(0.929138 0.661216 0)
(0.906178 0.694841 0)
(0.89177 0.711542 0)
(0.879581 0.719784 0)
(0.871524 0.720203 0)
(0.868758 0.716816 0)
(0.86803 0.720945 0)
(0.87139 0.739282 0)
(0.880964 0.770224 0)
(0.897774 0.813292 0)
(0.920614 0.864302 0)
(0.958039 0.912973 0)
(1.01888 0.956608 0)
(1.10708 0.99751 0)
(1.22207 1.02756 0)
(1.36193 1.04216 0)
(3 3.13475e-17 0)
(3 -8.89951e-17 0)
(3 3.50329e-16 0)
(3 8.0761e-16 0)
(3 6.64676e-16 0)
(3 8.02568e-16 0)
(3 6.28475e-16 0)
(3 5.82457e-16 0)
(3 3.92507e-16 0)
(3 2.9638e-16 0)
(3 1.21432e-16 0)
(3 -1.90181e-16 0)
(3 2.84916e-16 0)
(3 3.78041e-16 0)
(3 8.78382e-17 0)
(3 -5.05433e-16 0)
(3 -1.18272e-15 0)
(3 -1.23935e-15 0)
(3 -1.37665e-15 0)
(3 3.81111e-16 0)
(3 9.25308e-16 0)
(3 1.48445e-15 0)
(3 8.45635e-16 0)
(3 4.18089e-16 0)
(3 -3.14576e-16 0)
(3 -4.59733e-16 0)
(3 -4.3582e-16 0)
(3 -3.0333e-16 0)
(3 -5.43347e-16 0)
(3 -2.40125e-09 0)
(3.00036 1.36381e-05 0)
(2.12341 0.561878 0)
(0.999052 0.697497 0)
(0.929606 0.705975 0)
(0.922592 0.725971 0)
(0.913094 0.735471 0)
(0.907145 0.738091 0)
(0.903767 0.737935 0)
(0.903771 0.741578 0)
(0.908658 0.757845 0)
(0.922188 0.785 0)
(0.943093 0.82413 0)
(0.967708 0.869573 0)
(1.00894 0.912773 0)
(1.06729 0.948767 0)
(1.14613 0.977703 0)
(1.24916 0.997872 0)
(1.36733 1.00584 0)
(3 2.62332e-16 0)
(3 7.22384e-16 0)
(3 1.16801e-15 0)
(3 6.04218e-16 0)
(3 2.7587e-16 0)
(3 -8.08779e-17 0)
(3 1.05733e-16 0)
(3 1.57282e-16 0)
(3 6.16628e-16 0)
(3 6.84975e-16 0)
(3 3.3311e-16 0)
(3 4.23365e-17 0)
(3 -1.03275e-16 0)
(3 -1.56435e-16 0)
(3 2.8176e-16 0)
(3 -2.78895e-16 0)
(3 -6.89963e-16 0)
(3 -1.34649e-15 0)
(3 -1.81711e-15 0)
(3 3.48436e-16 0)
(3 1.41302e-15 0)
(3 1.96139e-15 0)
(3 1.48745e-15 0)
(3 8.12857e-16 0)
(3 -4.96733e-16 0)
(3 -1.24527e-15 0)
(3 -1.04108e-15 0)
(3 -3.10707e-16 0)
(3 -4.20674e-16 0)
(3 -9.57546e-12 0)
(3 -1.0027e-06 0)
(3.0195 0.157674 0)
(1.2553 0.69417 0)
(0.995307 0.721156 0)
(0.976739 0.74054 0)
(0.959767 0.75353 0)
(0.947344 0.759041 0)
(0.940244 0.760088 0)
(0.939522 0.763605 0)
(0.946235 0.775704 0)
(0.963234 0.799032 0)
(0.986252 0.832866 0)
(1.01524 0.872116 0)
(1.05826 0.909133 0)
(1.11279 0.94103 0)
(1.18517 0.964701 0)
(1.27739 0.980061 0)
(1.38078 0.983723 0)
(3 -6.57077e-17 0)
(3 5.25441e-16 0)
(3 4.26893e-16 0)
(3 -3.45825e-16 0)
(3 -2.58226e-16 0)
(3 1.38623e-16 0)
(3 4.8787e-16 0)
(3 1.24814e-15 0)
(3 1.02053e-15 0)
(3 7.27894e-16 0)
(3 2.95996e-16 0)
(3 -3.73598e-16 0)
(3 -1.4557e-15 0)
(3 -1.4106e-15 0)
(3 -7.07745e-16 0)
(3 -3.57878e-16 0)
(3 -4.62609e-16 0)
(3 -2.1376e-15 0)
(3 -2.29367e-15 0)
(3 -1.45532e-15 0)
(3 -2.40522e-16 0)
(3 7.94591e-16 0)
(3 7.95816e-16 0)
(3 3.79882e-16 0)
(3 -9.88712e-17 0)
(3 -9.43414e-16 0)
(3 -1.1843e-15 0)
(3 -1.15081e-15 0)
(3 -9.48099e-16 0)
(3 -5.00022e-15 0)
(3 -5.58534e-07 0)
(3.02447 0.00344063 0)
(1.60148 0.670899 0)
(1.01162 0.769279 0)
(0.990031 0.777456 0)
(0.984158 0.787167 0)
(0.976848 0.791716 0)
(0.974123 0.788155 0)
(0.975929 0.785317 0)
(0.984477 0.792335 0)
(1.00253 0.812659 0)
(1.02681 0.841011 0)
(1.06002 0.872584 0)
(1.10344 0.903634 0)
(1.15479 0.929091 0)
(1.2215 0.947308 0)
(1.30234 0.957824 0)
(1.39517 0.957874 0)
(3 -1.10768e-16 0)
(3 -2.87029e-16 0)
(3 -5.90579e-16 0)
(3 -4.95712e-16 0)
(3 1.9675e-16 0)
(3 3.45127e-16 0)
(3 1.36352e-16 0)
(3 4.61669e-16 0)
(3 -4.11921e-17 0)
(3 -4.27082e-16 0)
(3 -6.16977e-17 0)
(3 -7.67767e-16 0)
(3 -1.15491e-15 0)
(3 -1.19156e-15 0)
(3 -1.10187e-15 0)
(3 -1.06544e-15 0)
(3 -9.49418e-16 0)
(3 -8.81221e-16 0)
(3 -1.20523e-15 0)
(3 -6.37742e-16 0)
(3 -4.22096e-16 0)
(3 -2.36723e-16 0)
(3 4.96176e-16 0)
(3 -1.15733e-17 0)
(3 -3.57688e-16 0)
(3 -5.6431e-16 0)
(3 -1.97415e-15 0)
(3 -2.01732e-15 0)
(3 -2.33221e-15 0)
(3 -1.78199e-15 0)
(3 -4.68566e-08 0)
(3.00022 1.03296e-05 0)
(2.49984 0.466677 0)
(1.13837 0.773914 0)
(1.02951 0.775 0)
(1.0247 0.78922 0)
(1.01903 0.802074 0)
(1.01675 0.803236 0)
(1.01747 0.801353 0)
(1.02413 0.806661 0)
(1.04023 0.826172 0)
(1.06399 0.848543 0)
(1.09865 0.873144 0)
(1.14244 0.897623 0)
(1.1937 0.918693 0)
(1.257 0.935996 0)
(1.3289 0.94497 0)
(1.41285 0.943502 0)
(3 -6.60878e-18 0)
(3 -2.61226e-16 0)
(3 -4.73477e-16 0)
(3 -4.2263e-16 0)
(3 -2.28095e-16 0)
(3 -3.49758e-16 0)
(3 -1.85528e-16 0)
(3 -4.32753e-16 0)
(3 -1.04835e-15 0)
(3 -1.13967e-15 0)
(3 -1.21791e-15 0)
(3 -1.37097e-15 0)
(3 -1.086e-15 0)
(3 -7.68178e-16 0)
(3 -8.37034e-16 0)
(3 -7.75071e-16 0)
(3 -2.56894e-16 0)
(3 2.41011e-16 0)
(3 8.05106e-17 0)
(3 -3.34135e-16 0)
(3 -6.11259e-16 0)
(3 -2.53631e-16 0)
(3 3.53944e-16 0)
(3 -2.69464e-16 0)
(3 1.85559e-16 0)
(3 7.4584e-16 0)
(3 -5.72127e-16 0)
(3 -1.80387e-15 0)
(3 -1.70029e-15 0)
(3 -1.95847e-15 0)
(3 -2.65266e-10 0)
(3.00001 -2.47207e-06 0)
(3.07117 0.0558703 0)
(1.42622 0.735513 0)
(1.06706 0.808334 0)
(1.05125 0.816065 0)
(1.04658 0.825297 0)
(1.04822 0.828315 0)
(1.05112 0.827885 0)
(1.05841 0.829199 0)
(1.07347 0.8442 0)
(1.09688 0.862069 0)
(1.13161 0.881529 0)
(1.17511 0.899925 0)
(1.22699 0.915099 0)
(1.28714 0.925653 0)
(1.35268 0.928592 0)
(1.42713 0.924883 0)
(3 -7.00355e-17 0)
(3 -8.58027e-17 0)
(3 7.60114e-17 0)
(3 1.09636e-16 0)
(3 -9.18489e-16 0)
(3 -1.25566e-15 0)
(3 -1.30956e-15 0)
(3 -1.48736e-15 0)
(3 -1.2573e-15 0)
(3 -1.07411e-15 0)
(3 -1.48647e-15 0)
(3 -1.24784e-15 0)
(3 -1.05198e-15 0)
(3 -5.4249e-16 0)
(3 -2.72815e-16 0)
(3 3.60305e-17 0)
(3 2.21648e-16 0)
(3 4.1964e-17 0)
(3 3.64386e-17 0)
(3 -1.65497e-16 0)
(3 1.31449e-16 0)
(3 -3.52661e-16 0)
(3 -6.96785e-16 0)
(3 -9.54497e-17 0)
(3 5.25758e-16 0)
(3 1.00517e-15 0)
(3 -5.3076e-17 0)
(3 -1.3368e-15 0)
(3 -1.87614e-15 0)
(3 -1.76154e-15 0)
(3 -2.64371e-13 0)
(3 -4.82847e-07 0)
(3.00554 0.000663935 0)
(2.09401 0.649808 0)
(1.12617 0.846018 0)
(1.07747 0.834123 0)
(1.08054 0.828757 0)
(1.08539 0.831786 0)
(1.09008 0.835786 0)
(1.09722 0.83774 0)
(1.11041 0.848512 0)
(1.13237 0.864871 0)
(1.1645 0.882653 0)
(1.20548 0.899684 0)
(1.25516 0.912986 0)
(1.31091 0.921306 0)
(1.37169 0.922764 0)
(1.43755 0.919164 0)
(3 1.49898e-16 0)
(3 4.47642e-17 0)
(3 4.87633e-17 0)
(3 1.69693e-16 0)
(3 -1.92868e-16 0)
(3 -1.03323e-15 0)
(3 -1.22304e-15 0)
(3 -1.12593e-15 0)
(3 -4.97757e-16 0)
(3 -2.13896e-16 0)
(3 -6.9599e-16 0)
(3 -5.85818e-16 0)
(3 -7.68753e-16 0)
(3 -3.64567e-16 0)
(3 1.13073e-16 0)
(3 1.1615e-16 0)
(3 5.55241e-16 0)
(3 8.84668e-16 0)
(3 5.04158e-16 0)
(3 5.9865e-17 0)
(3 -3.6898e-16 0)
(3 -1.26079e-15 0)
(3 -1.57384e-15 0)
(3 -8.86051e-16 0)
(3 -3.13505e-16 0)
(3 -1.55816e-16 0)
(3 -3.15709e-16 0)
(3 -9.65215e-16 0)
(3 -1.42102e-15 0)
(3 -1.67255e-15 0)
(3 -1.40283e-15 0)
(3 -2.69895e-08 0)
(3.00001 1.95756e-06 0)
(3.0215 0.156963 0)
(1.39884 0.813691 0)
(1.12476 0.838698 0)
(1.12899 0.840572 0)
(1.12255 0.848091 0)
(1.12182 0.8552 0)
(1.12933 0.858745 0)
(1.14399 0.866054 0)
(1.16539 0.878098 0)
(1.19423 0.892944 0)