/*--------------------------------*- C++ -*----------------------------------*\
  =========                 |
  \\      /  F ield         | OpenFOAM: The Open Source CFD Toolbox
   \\    /   O peration     | Website:  https://openfoam.org
    \\  /    A nd           | Version:  7
     \\/     M anipulation  |
\*---------------------------------------------------------------------------*/
FoamFile
{
    version     2.0;
    format      ascii;
    class       volVectorField;
    location    "0.6";
    object      U;
}
// * * * * * * * * * * * * * * * * * * * * * * * * * * * * * * * * * * * * * //

dimensions      [0 1 -1 0 0 0 0];

internalField   nonuniform List<vector> 
4032
(
(3 -1.93497e-17 0)
(3 6.12441e-17 0)
(3 1.76898e-17 0)
(3 -2.32471e-16 0)
(3 -8.74233e-16 0)
(3 -1.4864e-15 0)
(3 -1.45653e-15 0)
(3 -1.23247e-15 0)
(3 -8.96329e-16 0)
(3 -6.46633e-16 0)
(3 2.84686e-17 0)
(3 5.02114e-16 0)
(3 5.30983e-16 0)
(3 5.762e-16 0)
(2.27417 0.013967 0)
(0.747154 0.0266332 0)
(0.572191 0.023431 0)
(0.509725 0.0265845 0)
(0.43642 0.0274964 0)
(0.36976 0.0318578 0)
(0.28729 0.0356174 0)
(0.216684 0.0410181 0)
(0.132542 0.0454959 0)
(0.0495733 0.0492306 0)
(3 6.18402e-18 0)
(3 9.68263e-17 0)
(3 -1.21829e-17 0)
(3 2.07178e-16 0)
(3 -1.00158e-15 0)
(3 -1.98578e-15 0)
(3 -2.62876e-15 0)
(3 -2.13546e-15 0)
(3 -1.25046e-15 0)
(3 -5.83492e-16 0)
(3 5.72065e-17 0)
(3 8.38594e-16 0)
(3 1.2639e-15 0)
(3 1.44101e-15 0)
(2.30949 0.0658783 0)
(0.744022 0.109966 0)
(0.556084 0.0784266 0)
(0.492232 0.0783129 0)
(0.419849 0.0839091 0)
(0.352223 0.0966943 0)
(0.269207 0.106967 0)
(0.20081 0.121994 0)
(0.121823 0.136929 0)
(0.0451621 0.148939 0)
(3 2.23211e-17 0)
(3 -6.06261e-16 0)
(3 -9.17943e-16 0)
(3 -5.0854e-16 0)
(3 -6.28526e-16 0)
(3 -4.07035e-16 0)
(3 -8.13333e-16 0)
(3 -5.64423e-16 0)
(3 -4.93914e-17 0)
(3 7.83088e-16 0)
(3 1.2428e-15 0)
(3 1.30744e-15 0)
(3 1.35886e-15 0)
(3 9.09201e-16 0)
(2.4353 0.121786 0)
(0.778221 0.19351 0)
(0.572773 0.134747 0)
(0.505981 0.135571 0)
(0.427369 0.146045 0)
(0.352903 0.167809 0)
(0.263146 0.183389 0)
(0.190428 0.201705 0)
(0.112691 0.22223 0)
(0.0397898 0.237814 0)
(3 1.33265e-16 0)
(3 -4.78479e-16 0)
(3 -6.40606e-16 0)
(3 -6.16838e-16 0)
(3 3.44195e-16 0)
(3 1.00212e-15 0)
(3 9.3228e-16 0)
(3 3.54195e-16 0)
(3 2.48976e-16 0)
(3 2.27392e-16 0)
(3 6.48522e-16 0)
(3 2.24442e-16 0)
(3 2.19768e-16 0)
(3 -1.75911e-16 0)
(2.63258 0.162295 0)
(0.838452 0.270024 0)
(0.606558 0.188532 0)
(0.539457 0.193308 0)
(0.451864 0.215164 0)
(0.367663 0.248063 0)
(0.268495 0.268817 0)
(0.190515 0.287139 0)
(0.112037 0.308711 0)
(0.0374775 0.321704 0)
(3 9.86786e-17 0)
(3 4.38094e-16 0)
(3 7.35288e-16 0)
(3 6.58348e-16 0)
(3 5.85466e-16 0)
(3 4.63681e-16 0)
(3 -5.9352e-17 0)
(3 -5.38721e-16 0)
(3 -9.59029e-16 0)
(3 -1.04554e-15 0)
(3 -8.08997e-16 0)
(3 -7.54462e-16 0)
(3 -5.22908e-16 0)
(3 -4.02291e-16 0)
(2.89971 0.112833 0)
(0.956084 0.312274 0)
(0.64471 0.236098 0)
(0.573634 0.262618 0)
(0.474675 0.298666 0)
(0.384203 0.33816 0)
(0.287081 0.358664 0)
(0.213467 0.373773 0)
(0.13278 0.396979 0)
(0.0478579 0.412987 0)
(3 -1.71382e-16 0)
(3 -3.77363e-17 0)
(3 3.4268e-16 0)
(3 2.55373e-16 0)
(3 8.10001e-17 0)
(3 -8.34118e-17 0)
(3 -3.02663e-16 0)
(3 -4.30835e-16 0)
(3 -3.22259e-16 0)
(3 -4.2869e-16 0)
(3 -8.0224e-16 0)
(3 -6.88821e-16 0)
(3 2.48025e-17 0)
(3 2.38024e-16 0)
(3.01335 0.0111 0)
(1.13598 0.347685 0)
(0.670402 0.297512 0)
(0.582556 0.34643 0)
(0.486302 0.389608 0)
(0.410182 0.42684 0)
(0.322778 0.44508 0)
(0.251369 0.466981 0)
(0.164962 0.504864 0)
(0.0553104 0.531804 0)
(3 1.92237e-17 0)
(3 8.85958e-17 0)
(3 9.31157e-17 0)
(3 1.68941e-16 0)
(3 2.11007e-16 0)
(3 1.40333e-16 0)
(3 6.2663e-17 0)
(3 3.25146e-16 0)
(3 5.34583e-16 0)
(3 1.69892e-16 0)
(3 -3.76231e-16 0)
(3 -3.20988e-17 0)
(3 1.49111e-16 0)
(3 -2.11059e-16 0)
(3.00035 7.82082e-05 0)
(1.44138 0.400406 0)
(0.707137 0.374982 0)
(0.605134 0.431863 0)
(0.526601 0.472289 0)
(0.467785 0.502365 0)
(0.397238 0.525528 0)
(0.339201 0.555141 0)
(0.255593 0.610095 0)
(0.116685 0.686321 0)
(3 9.46809e-17 0)
(3 4.49469e-16 0)
(3 7.15665e-16 0)
(3 4.57078e-16 0)
(3 2.81454e-16 0)
(3 -4.51637e-16 0)
(3 -6.86014e-16 0)
(3 -5.58782e-16 0)
(3 -3.68504e-16 0)
(3 2.98999e-16 0)
(3 8.26175e-16 0)
(3 9.87853e-16 0)
(3 7.83714e-17 0)
(3 -5.0477e-16 0)
(3 5.59487e-08 0)
(1.93727 0.433058 0)
(0.792265 0.460972 0)
(0.672899 0.503958 0)
(0.614097 0.529822 0)
(0.563075 0.550437 0)
(0.502853 0.580125 0)
(0.443686 0.6453 0)
(0.308971 0.778452 0)
(0.169915 0.985429 0)
(3 -1.09344e-16 0)
(3 -1.68469e-17 0)
(3 -1.47854e-16 0)
(3 -7.41945e-16 0)
(3 -1.15039e-15 0)
(3 -1.47342e-15 0)
(3 -1.05667e-15 0)
(3 -1.04418e-15 0)
(3 -2.78814e-16 0)
(3 3.43236e-16 0)
(3 1.0088e-15 0)
(3 5.3651e-16 0)
(3 4.21288e-16 0)
(3 6.02727e-16 0)
(3 2.66131e-12 0)
(2.61495 0.320599 0)
(0.954098 0.524485 0)
(0.773123 0.537071 0)
(0.721907 0.575144 0)
(0.661975 0.606028 0)
(0.595597 0.656703 0)
(0.538093 0.771236 0)
(0.515219 0.96647 0)
(0.626938 1.27969 0)
(3 -2.19561e-17 0)
(3 -5.28591e-16 0)
(3 -1.05955e-15 0)
(3 -1.10801e-15 0)
(3 -1.28212e-15 0)
(3 -1.29745e-15 0)
(3 -2.83011e-16 0)
(3 6.5562e-16 0)
(3 8.02073e-16 0)
(3 7.91558e-16 0)
(3 5.57224e-16 0)
(3 4.22258e-16 0)
(3 7.11376e-16 0)
(3 7.61648e-16 0)
(3 1.01606e-15 0)
(3.0609 0.0512756 0)
(1.1985 0.538057 0)
(0.844537 0.598205 0)
(0.770067 0.652615 0)
(0.702259 0.690303 0)
(0.658635 0.750215 0)
(0.653241 0.857376 0)
(0.733654 1.01573 0)
(1.02292 1.21579 0)
(3 -1.00233e-16 0)
(3 -5.51301e-16 0)
(3 -3.67782e-16 0)
(3 2.38805e-16 0)
(3 6.60234e-16 0)
(3 1.07676e-15 0)
(3 1.09176e-15 0)
(3 1.08948e-15 0)
(3 7.51646e-16 0)
(3 6.94523e-16 0)
(3 1.79352e-16 0)
(3 -3.14448e-16 0)
(3 -1.0303e-15 0)
(3 -1.50518e-16 0)
(3 -1.04283e-16 0)
(3.00609 0.000479846 0)
(1.5799 0.560401 0)
(0.8797 0.682705 0)
(0.800243 0.729041 0)
(0.76047 0.758709 0)
(0.745779 0.805013 0)
(0.779054 0.882895 0)
(0.903881 0.994948 0)
(1.21426 1.11938 0)
(3 -6.33141e-18 0)
(3 1.44083e-16 0)
(3 5.83598e-16 0)
(3 7.91864e-16 0)
(3 8.0707e-16 0)
(3 6.13512e-16 0)
(3 4.93304e-16 0)
(3 4.48472e-16 0)
(3 -7.32073e-17 0)
(3 -5.96843e-16 0)
(3 -1.0039e-15 0)
(3 -1.80531e-15 0)
(3 -2.31034e-15 0)
(3 -1.77247e-15 0)
(3 -9.07359e-16 0)
(3.00002 -5.9524e-07 0)
(2.42196 0.447808 0)
(1.03492 0.740329 0)
(0.886551 0.765524 0)
(0.856952 0.785943 0)
(0.853478 0.82692 0)
(0.905759 0.882756 0)
(1.0393 0.965044 0)
(1.30566 1.03804 0)
(3 2.37963e-17 0)
(3 1.09516e-16 0)
(3 -3.92661e-17 0)
(3 -1.55869e-16 0)
(3 -5.24213e-16 0)
(3 -6.20172e-16 0)
(3 -5.85915e-16 0)
(3 -6.14464e-16 0)
(3 -5.95016e-16 0)
(3 -1.42095e-15 0)
(3 -1.83155e-15 0)
(3 -1.93606e-15 0)
(3 -2.36302e-15 0)
(3 -3.04641e-15 0)
(3 -2.35734e-15 0)
(3 -2.64396e-07 0)
(3.07521 0.0712697 0)
(1.38167 0.754609 0)
(0.987538 0.826847 0)
(0.960848 0.835699 0)
(0.964141 0.86833 0)
(1.02386 0.907109 0)
(1.14935 0.954797 0)
(1.36141 0.986835 0)
(3 -1.92601e-16 0)
(3 1.2573e-16 0)
(3 -1.91906e-16 0)
(3 -3.15656e-16 0)
(3 7.28575e-17 0)
(3 3.36594e-16 0)
(3 8.9092e-17 0)
(3 -7.20399e-16 0)
(3 -8.49723e-16 0)
(3 -8.36999e-16 0)
(3 -2.09859e-15 0)
(3 -2.18139e-15 0)
(3 -2.53579e-15 0)
(3 -2.80936e-15 0)
(3 -2.32427e-15 0)
(3 -2.62454e-08 0)
(3.00819 0.000894285 0)
(2.06384 0.690447 0)
(1.09466 0.891921 0)
(1.05283 0.874475 0)
(1.08726 0.873057 0)
(1.13476 0.894759 0)
(1.23977 0.923831 0)
(1.40183 0.943076 0)
(3 -1.43361e-16 0)
(3 -1.44719e-16 0)
(3 4.17832e-16 0)
(3 3.84775e-16 0)
(3 2.54993e-16 0)
(3 -9.02241e-17 0)
(3 -3.80783e-16 0)
(3 -5.09078e-16 0)
(3 -9.92239e-16 0)
(3 -1.58982e-15 0)
(3 -1.63078e-15 0)
(3 -1.19053e-15 0)
(3 -1.8973e-16 0)
(3 -6.96836e-16 0)
(3 -1.38177e-15 0)
(3 -7.37603e-10 0)
(3.00002 3.54952e-06 0)
(3.01511 0.179125 0)
(1.44546 0.8708 0)
(1.13157 0.903018 0)
(1.17725 0.910366 0)
(1.21376 0.929744 0)
(1.30211 0.94354 0)
(1.43205 0.94516 0)
(3 7.77187e-18 0)
(3 -2.85598e-16 0)
(3 -4.69532e-16 0)
(3 -6.7523e-16 0)
(3 -6.51333e-16 0)
(3 -7.78564e-16 0)
(3 -1.11769e-15 0)
(3 -1.19052e-15 0)
(3 -1.18533e-15 0)
(3 -1.36267e-15 0)
(3 -1.30003e-15 0)
(3 -1.30703e-15 0)
(3 -7.24307e-16 0)
(3 -6.97977e-16 0)
(3 -3.90297e-16 0)
(3 -2.01348e-12 0)
(3 -1.43281e-08 0)
(3.01677 0.00513815 0)
(2.14774 0.737384 0)
(1.2365 0.962405 0)
(1.22179 0.951549 0)
(1.28587 0.934857 0)
(1.36596 0.929099 0)
(1.47406 0.927964 0)
(3 3.15569e-16 0)
(3 2.32256e-16 0)
(3 -4.35441e-16 0)
(3 -5.88319e-16 0)
(3 -7.60168e-16 0)
(3 -7.91421e-16 0)
(3 -9.12834e-16 0)
(3 -1.26071e-15 0)
(3 -9.82674e-16 0)
(3 -6.58685e-16 0)
(3 -4.31897e-16 0)
(3 -9.29237e-16 0)
(3 -1.59873e-15 0)
(3 -1.24517e-15 0)
(3 -1.18055e-16 0)
(3 -4.17111e-16 0)
(3 -3.06892e-10 0)
(3.00009 4.99061e-05 0)
(3.00558 0.164252 0)
(1.63816 0.910213 0)
(1.28119 0.972904 0)
(1.34229 0.965401 0)
(1.40632 0.966913 0)
(1.48978 0.96191 0)
(3 3.39638e-18 0)
(3 -5.73561e-17 0)
(3 4.51283e-17 0)
(3 2.41504e-16 0)
(3 -2.38381e-16 0)
(3 -8.65233e-16 0)
(3 -1.09737e-15 0)
(3 -1.36074e-15 0)
(3 -1.51928e-15 0)
(3 -8.6959e-16 0)
(3 -3.78926e-16 0)
(3 -2.37197e-16 0)
(3 -7.40703e-16 0)
(3 -7.98463e-16 0)
(3 -5.17254e-16 0)
(3 5.85403e-16 0)
(3 -2.26665e-13 0)
(3 2.00116e-08 0)
(3.00822 0.00632111 0)
(2.53501 0.588799 0)
(1.44513 1.00846 0)
(1.3904 0.979989 0)
(1.4693 0.964968 0)
(1.52818 0.958059 0)
(3 -1.22758e-16 0)
(3 -4.39739e-16 0)
(3 4.749e-17 0)
(3 3.39789e-16 0)
(3 3.20819e-16 0)
(3 -1.87641e-17 0)
(3 -4.65298e-16 0)
(3 -5.92548e-16 0)
(3 -4.7733e-16 0)
(3 -5.10023e-16 0)
(3 -3.67499e-16 0)
(3 -1.93857e-16 0)
(3 9.09882e-16 0)
(3 7.08673e-16 0)
(3 7.58048e-16 0)
(3 2.73607e-16 0)
(3 -7.88965e-15 0)
(3 1.04132e-12 0)
(3.00003 4.47133e-05 0)
(3.02315 0.0654332 0)
(2.02841 0.855693 0)
(1.46384 1.02332 0)
(1.48246 1.01757 0)
(1.55811 0.998379 0)
(3 -9.00113e-18 0)
(3 2.6094e-16 0)
(3 3.1831e-16 0)
(3 1.22458e-16 0)
(3 1.08658e-15 0)
(3 1.14288e-15 0)
(3 1.15358e-15 0)
(3 9.9213e-16 0)
(3 1.20947e-15 0)
(3 8.83746e-16 0)
(3 2.09987e-16 0)
(3 -9.8106e-17 0)
(3 6.84045e-16 0)
(3 1.56485e-15 0)
(3 1.60826e-15 0)
(3 9.56246e-16 0)
(3 -2.13136e-15 0)
(3 -7.58614e-15 0)
(3 1.84271e-08 0)
(3.00117 0.00208433 0)
(2.8748 0.290773 0)
(1.81956 0.960021 0)
(1.53754 1.03404 0)
(1.5993 1.01659 0)
(3 1.17331e-16 0)
(3 6.22482e-16 0)
(3 2.59623e-16 0)
(3 -3.99901e-16 0)
(3 -4.49416e-16 0)
(3 4.09316e-16 0)
(3 8.38054e-16 0)
(3 7.62863e-16 0)
(3 5.65364e-17 0)
(3 6.04745e-17 0)
(3 3.37009e-17 0)
(3 3.27633e-16 0)
(3 9.6595e-16 0)
(3 1.70847e-15 0)
(3 2.21368e-15 0)
(3 1.73176e-15 0)
(3 8.07654e-16 0)
(3 -5.50987e-15 0)
(3 1.17152e-12 0)
(3 5.64487e-06 0)
(3.00487 0.0186786 0)
(2.58264 0.550751 0)
(1.76576 1.00137 0)
(1.63715 1.04717 0)
(3 1.78813e-16 0)
(3 1.3204e-17 0)
(3 -2.73494e-16 0)
(3 -1.16377e-15 0)
(3 -1.59687e-15 0)
(3 -1.31797e-15 0)
(3 -6.34023e-16 0)
(3 -5.41896e-16 0)
(3 -1.05533e-15 0)
(3 -5.17743e-16 0)
(3 9.97693e-16 0)
(3 1.12099e-15 0)
(3 9.1663e-16 0)
(3 5.57528e-16 0)
(3 4.71368e-16 0)
(3 2.47558e-16 0)
(3 9.16355e-16 0)
(3 -4.26109e-16 0)
(3 -1.78807e-15 0)
(3 1.81747e-09 0)
(3.00002 0.000225874 0)
(2.99192 0.0642781 0)
(2.36524 0.708207 0)
(1.79064 1.0233 0)
(3 -6.00578e-17 0)
(3 -1.65026e-16 0)
(3 -1.80719e-16 0)
(3 7.80314e-17 0)
(3 -4.04887e-16 0)
(3 -9.74738e-16 0)
(3 -1.1917e-15 0)
(3 -6.98895e-17 0)
(3 4.62702e-16 0)
(3 4.44293e-16 0)
(3 1.16623e-15 0)
(3 1.42231e-15 0)
(3 1.08746e-15 0)
(3 7.7322e-16 0)
(3 -3.27975e-17 0)
(3 7.96237e-17 0)
(3 1.02296e-16 0)
(3 -1.82984e-16 0)
(3 -5.99925e-16 0)
(3 1.37384e-13 0)
(3 2.28307e-07 0)
(3.00005 0.00178006 0)
(2.94664 0.135139 0)
(2.26107 0.789786 0)
(3 -2.39201e-17 0)
(3 -1.74172e-16 0)
(3 2.58434e-17 0)
(3 3.24745e-16 0)
(3 5.86071e-16 0)
(3 1.90962e-16 0)
(3 2.9484e-16 0)
(3 1.78826e-16 0)
(3 7.04826e-16 0)
(3 8.03439e-16 0)
(3 5.40681e-16 0)
(3 7.95144e-16 0)
(3 1.06029e-15 0)
(3 1.20829e-15 0)
(3 8.59771e-16 0)
(3 2.99783e-17 0)
(3 -7.59507e-16 0)
(3 -9.96751e-16 0)
(3 -7.26422e-16 0)
(3 3.25635e-17 0)
(3 3.96546e-11 0)
(3 4.06963e-06 0)
(2.99951 0.00596497 0)
(2.89009 0.208176 0)
(3 9.59934e-18 0)
(3 -6.70552e-16 0)
(3 -2.0138e-16 0)
(3 1.99971e-16 0)
(3 4.44408e-16 0)
(3 4.15796e-16 0)
(3 2.77743e-16 0)
(3 1.44097e-16 0)
(3 4.09628e-16 0)
(3 5.32483e-16 0)
(3 2.50841e-16 0)
(3 -5.73689e-16 0)
(3 -3.53138e-16 0)
(3 1.88832e-17 0)
(3 2.09308e-17 0)
(3 -3.72233e-16 0)
(3 -9.13756e-16 0)
(3 -1.75548e-15 0)
(3 -2.0274e-15 0)
(3 -1.40697e-15 0)
(3 1.97572e-15 0)
(3 1.5764e-09 0)
(3 2.6469e-05 0)
(2.99783 0.0119611 0)
(3 -2.26435e-16 0)
(3 -2.98085e-16 0)
(3 1.44722e-16 0)
(3 3.88736e-16 0)
(3 3.86211e-16 0)
(3 2.75205e-16 0)
(3 1.17556e-16 0)
(3 9.43843e-17 0)
(3 4.85136e-17 0)
(3 1.91806e-16 0)
(3 6.15607e-16 0)
(3 6.5247e-16 0)
(3 4.33511e-16 0)
(3 3.7002e-16 0)
(3 -1.18255e-16 0)
(3 -5.76116e-16 0)
(3 -1.12881e-15 0)
(3 -9.74504e-16 0)
(3 -1.23196e-15 0)
(3 -1.53925e-15 0)
(3 -1.79746e-15 0)
(3 9.82095e-14 0)
(3 1.96322e-08 0)
(2.99999 7.58441e-05 0)
(3 -2.14729e-16 0)
(3 9.73672e-17 0)
(3 -4.33174e-17 0)
(3 -3.01675e-16 0)
(3 -4.0048e-16 0)
(3 -1.87494e-16 0)
(3 -1.28644e-16 0)
(3 -4.40947e-17 0)
(3 4.23235e-17 0)
(3 -2.14072e-16 0)
(3 -1.37371e-16 0)
(3 4.79073e-17 0)
(3 9.53415e-17 0)
(3 -3.41245e-16 0)
(3 -2.69975e-16 0)
(3 -5.25891e-16 0)
(3 -5.13934e-17 0)
(3 1.32203e-15 0)
(3 1.27555e-15 0)
(3 -1.0789e-16 0)
(3 -5.33618e-16 0)
(3 -1.88496e-15 0)
(3 1.63771e-12 0)
(3 7.51904e-08 0)
(3 1.46776e-16 0)
(3 1.85733e-16 0)
(3 -2.64784e-16 0)
(3 -2.94542e-16 0)
(3 -5.04377e-16 0)
(3 -8.99635e-16 0)
(3 -8.29657e-16 0)
(3 -8.35543e-16 0)
(3 -9.02616e-16 0)
(3 -9.85882e-16 0)
(3 -1.15681e-15 0)
(3 -1.06681e-15 0)
(3 -9.61313e-16 0)
(3 -7.12085e-16 0)
(3 -1.50543e-16 0)
(3 6.28957e-16 0)
(3 1.4293e-15 0)
(3 1.27748e-15 0)
(3 1.17987e-15 0)
(3 1.05863e-15 0)
(3 1.30509e-17 0)
(3 -1.18918e-15 0)
(3 -1.85896e-15 0)
(3 8.61294e-12 0)
(3 1.93785e-16 0)
(3 -2.93452e-16 0)
(3 -7.31924e-16 0)
(3 -5.175e-16 0)
(3 -1.23818e-16 0)
(3 -1.84928e-16 0)
(3 -2.09304e-16 0)
(3 -5.44426e-16 0)
(3 -8.10485e-16 0)
(3 -6.14222e-16 0)
(3 -9.1381e-16 0)
(3 -9.67408e-16 0)
(3 -1.05354e-15 0)
(3 -3.58114e-16 0)
(3 4.73358e-16 0)
(3 1.20413e-15 0)
(3 1.28273e-15 0)
(3 8.90436e-16 0)
(3 4.31624e-16 0)
(3 1.34164e-15 0)
(3 1.1359e-15 0)
(3 2.81054e-16 0)
(3 -7.55221e-16 0)
(3 4.13626e-17 0)
(3 -3.28458e-16 0)
(3 -3.2551e-16 0)
(3 -6.36251e-17 0)
(3 -1.31316e-16 0)
(3 -1.26561e-16 0)
(3 6.4873e-16 0)
(3 9.47421e-16 0)
(3 8.00215e-16 0)
(3 6.86467e-16 0)
(3 4.16052e-16 0)
(3 2.04863e-18 0)
(3 -4.48624e-16 0)
(3 -7.01821e-16 0)
(3 5.48913e-17 0)
(3 1.14446e-15 0)
(3 1.17025e-15 0)
(3 7.14912e-16 0)
(3 9.28571e-16 0)
(3 1.36348e-15 0)
(3 1.21601e-15 0)
(3 8.99487e-16 0)
(3 1.93351e-16 0)
(3 -1.40938e-16 0)
(3 -1.11153e-15 0)
(3 2.72255e-16 0)
(3 3.7771e-16 0)
(3 2.60659e-16 0)
(3 1.1808e-16 0)
(3 6.31945e-17 0)
(3 3.36157e-16 0)
(3 3.78099e-16 0)
(3 3.20858e-16 0)
(3 1.17563e-16 0)
(3 1.64128e-16 0)
(3 6.88314e-16 0)
(3 4.78743e-16 0)
(3 4.73554e-16 0)
(3 5.71831e-17 0)
(3 4.48478e-16 0)
(3 1.06461e-15 0)
(3 1.45549e-15 0)
(3 1.75348e-15 0)
(3 1.73931e-15 0)
(3 1.1481e-15 0)
(3 5.58012e-17 0)
(3 -8.10989e-17 0)
(3 -2.62204e-16 0)
(3 -3.59214e-16 0)
(3 3.69858e-16 0)
(3 2.10172e-16 0)
(3 5.20713e-17 0)
(3 1.41417e-17 0)
(3 -1.35954e-16 0)
(3 -2.91154e-16 0)
(3 -3.42401e-16 0)
(3 -2.99375e-16 0)
(3 -4.58086e-16 0)
(3 -7.22227e-16 0)
(3 -3.72896e-16 0)
(3 2.40436e-16 0)
(3 6.39243e-16 0)
(3 -1.31812e-16 0)
(3 -2.71872e-16 0)
(3 1.70753e-16 0)
(3 5.57622e-16 0)
(3 5.50084e-16 0)
(3 5.79089e-16 0)
(3 4.8506e-16 0)
(3 5.2964e-16 0)
(3 4.74303e-16 0)
(3 5.56141e-16 0)
(3 7.14621e-16 0)
(3 -6.62428e-17 0)
(3 9.06441e-17 0)
(3 2.80618e-16 0)
(3 2.31415e-16 0)
(3 -1.74579e-17 0)
(3 -5.72693e-16 0)
(3 -1.05146e-15 0)
(3 -7.42779e-16 0)
(3 -3.92258e-16 0)
(3 -3.7601e-16 0)
(3 -3.96639e-16 0)
(3 3.27186e-17 0)
(3 2.26744e-16 0)
(3 4.03606e-16 0)
(3 3.42791e-16 0)
(3 1.33496e-16 0)
(3 3.28574e-16 0)
(3 3.54289e-16 0)
(3 6.31426e-16 0)
(3 4.04998e-16 0)
(3 5.96311e-16 0)
(3 1.36888e-15 0)
(3 1.41136e-15 0)
(3 1.82884e-15 0)
(3 7.73729e-18 0)
(3 1.12594e-16 0)
(3 -1.5785e-16 0)
(3 -1.93785e-16 0)
(3 -4.57358e-16 0)
(3 -6.02773e-16 0)
(3 -5.07856e-16 0)
(3 -5.20225e-16 0)
(3 -1.58226e-16 0)
(3 4.39995e-16 0)
(3 6.0205e-16 0)
(3 2.04775e-16 0)
(3 -2.74412e-16 0)
(3 1.2705e-16 0)
(3 2.13734e-16 0)
(3 3.67877e-16 0)
(3 6.58212e-16 0)
(3 1.23633e-15 0)
(3 1.41146e-15 0)
(3 1.75942e-15 0)
(3 1.44339e-15 0)
(3 1.61529e-15 0)
(3 2.46163e-15 0)
(3 3.06366e-15 0)
(3 2.24067e-17 0)
(3 -1.01659e-17 0)
(3 9.78536e-17 0)
(3 1.22021e-16 0)
(3 -1.11737e-16 0)
(3 -2.62973e-17 0)
(3 6.35324e-17 0)
(3 -7.86812e-17 0)
(3 4.29013e-16 0)
(3 2.98907e-16 0)
(3 5.67909e-16 0)
(3 4.24017e-16 0)
(3 2.0596e-16 0)
(3 2.35419e-16 0)
(3 4.64542e-16 0)
(3 3.51742e-16 0)
(3 7.88906e-18 0)
(3 8.1445e-16 0)
(3 8.1204e-16 0)
(3 1.18131e-15 0)
(3 2.30748e-15 0)
(3 2.05463e-15 0)
(3 2.54949e-15 0)
(3 2.33031e-15 0)
(3 -6.07797e-17 0)
(3 -1.79058e-16 0)
(3 1.92582e-16 0)
(3 4.84369e-16 0)
(3 1.07786e-15 0)
(3 1.04857e-15 0)
(3 6.00272e-16 0)
(3 7.74718e-16 0)
(3 1.2896e-15 0)
(3 1.38643e-15 0)
(3 1.35549e-15 0)
(3 1.37414e-15 0)
(3 1.78434e-15 0)
(3 1.18268e-15 0)
(3 4.23147e-16 0)
(3 -1.49901e-16 0)
(3 -2.58402e-16 0)
(3 -4.92779e-16 0)
(3 -3.62248e-16 0)
(3 3.20207e-16 0)
(3 9.27386e-16 0)
(3 1.82835e-15 0)
(3 1.23482e-15 0)
(3 1.19272e-15 0)
(3 -3.61225e-16 0)
(3 3.02253e-16 0)
(3 5.84789e-16 0)
(3 5.78572e-16 0)
(3 1.13163e-15 0)
(3 1.01729e-15 0)
(3 6.98103e-16 0)
(3 6.01034e-16 0)
(3 1.84659e-15 0)
(3 2.24353e-15 0)
(3 1.74177e-15 0)
(3 1.30217e-15 0)
(3 1.66355e-15 0)
(3 1.45796e-15 0)
(3 8.33144e-16 0)
(3 -8.58801e-16 0)
(3 -1.06857e-15 0)
(3 -1.29618e-15 0)
(3 -8.06149e-16 0)
(3 7.49228e-16 0)
(3 7.44468e-16 0)
(3 -3.46048e-16 0)
(3 -8.02046e-16 0)
(3 -7.66833e-16 0)
(3 -3.68468e-17 0)
(3 5.10158e-16 0)
(3 3.46202e-16 0)
(3 1.90643e-16 0)
(3 4.23486e-16 0)
(3 5.36592e-16 0)
(3 4.0614e-16 0)
(3 7.05464e-16 0)
(3 1.79763e-15 0)
(3 1.86937e-15 0)
(3 1.21255e-15 0)
(3 1.1815e-15 0)
(3 1.13146e-15 0)
(3 8.61501e-16 0)
(3 6.005e-16 0)
(3 -5.10002e-16 0)
(3 -8.47551e-16 0)
(3 -6.6779e-16 0)
(3 4.85153e-16 0)
(3 9.70979e-16 0)
(3 1.07099e-15 0)
(3 -3.70894e-17 0)
(3 -6.55583e-16 0)
(3 -1.46771e-15 0)
(3 2.53291e-17 0)
(3 3.47035e-17 0)
(3 -3.05551e-16 0)
(3 -3.45059e-16 0)
(3 1.53136e-17 0)
(3 4.85445e-16 0)
(3 9.91015e-16 0)
(3 1.77396e-15 0)
(3 1.59996e-15 0)
(3 1.88017e-15 0)
(3 1.64515e-15 0)
(3 1.87022e-15 0)
(3 9.29152e-16 0)
(3 2.77628e-16 0)
(3 1.49638e-16 0)
(3 6.28587e-16 0)
(3 9.92944e-16 0)
(3 1.03969e-15 0)
(3 4.35328e-16 0)
(3 -4.76687e-16 0)
(3 -5.36165e-16 0)
(3 -4.88033e-16 0)
(3 -3.0617e-16 0)
(3 -4.52839e-16 0)
(3 -7.76863e-17 0)
(3 1.34136e-17 0)
(3 -1.77172e-16 0)
(3 -1.38733e-16 0)
(3 -6.66991e-17 0)
(3 3.44818e-16 0)
(3 7.23698e-16 0)
(3 1.11671e-15 0)
(3 1.23038e-15 0)
(3 1.1315e-15 0)
(3 8.6866e-16 0)
(3 7.5754e-16 0)
(3 4.36732e-16 0)
(3 3.62985e-16 0)
(3 3.31673e-16 0)
(3 1.04099e-15 0)
(3 1.18431e-15 0)
(3 9.51633e-16 0)
(3 4.5852e-16 0)
(3 -8.36294e-17 0)
(3 -1.10065e-16 0)
(3 -3.17006e-18 0)
(3 1.39409e-16 0)
(3 1.18027e-16 0)
(1.6384 1.42389 0)
(2.18864 1.37418 0)
(2.51936 1.45031 0)
(2.75065 0.914961 0)
(2.81519 0.464126 0)
(2.85193 0.0308882 0)
(2.82989 -0.291179 0)
(2.85433 -0.333235 0)
(2.81679 -0.303334 0)
(2.78309 -0.395288 0)
(2.82102 -0.321557 0)
(2.85579 -0.237024 0)
(2.84314 -0.149334 0)
(2.83098 -0.120982 0)
(2.81798 -0.098254 0)
(2.80508 -0.0654404 0)
(2.80223 -0.0359425 0)
(2.81575 -0.0193584 0)
(2.83504 -0.0174585 0)
(2.84267 -0.0184256 0)
(2.85807 -0.0121274 0)
(2.85139 0.00195873 0)
(2.81291 0.0147878 0)
(2.79412 0.0176478 0)
(2.80201 0.0169199 0)
(2.81397 0.0168603 0)
(2.82703 0.0164193 0)
(2.84585 0.0118149 0)
(2.85359 0.0065547 0)
(2.85774 0.00420829 0)
(2.86235 0.00251838 0)
(2.86075 0.00607431 0)
(2.86653 0.00936823 0)
(2.87188 0.00992752 0)
(2.87619 0.0100493 0)
(2.88666 0.00892039 0)
(2.90234 0.00519986 0)
(2.90328 0.00238796 0)
(2.89728 0.00152229 0)
(2.87858 0.00053208 0)
(2.84997 0.00289998 0)
(2.83466 0.00671475 0)
(2.82985 0.00770572 0)
(2.82603 0.00888538 0)
(2.82782 0.0104384 0)
(2.82661 0.0098241 0)
(2.82122 0.00598855 0)
(2.81813 -0.00128904 0)
(2.82107 -0.0107397 0)
(2.80996 -0.00884865 0)
(2.79531 -0.00392351 0)
(2.78952 0.000728931 0)
(2.79264 0.00467608 0)
(2.80572 0.00443638 0)
(2.81558 0.0029193 0)
(2.81498 0.00288913 0)
(2.81149 0.0033215 0)
(2.80605 0.00358111 0)
(2.79866 0.00305163 0)
(2.78999 0.00155687 0)
(2.78237 -0.00338694 0)
(2.78254 -0.0113807 0)
(2.79673 -0.0203083 0)
(2.8255 -0.0251183 0)
(2.86589 -0.021228 0)
(2.90193 -0.0147248 0)
(2.91394 -0.014226 0)
(2.92902 -0.0130412 0)
(2.93314 -0.00979472 0)
(2.94178 -0.00809203 0)
(2.95065 -0.00694268 0)
(2.96222 -0.00639443 0)
(2.97422 -0.00572113 0)
(2.97815 -0.00557199 0)
(2.98175 -0.00530872 0)
(2.98578 -0.00473194 0)
(2.98843 -0.00416727 0)
(2.99089 -0.00348352 0)
(2.99309 -0.00309441 0)
(2.99495 -0.00278533 0)
(2.99659 -0.00244149 0)
(2.99803 -0.00209558 0)
(3.00065 -0.00173531 0)
(3.0061 -0.00123616 0)
(3.01733 -0.000429792 0)
(3.03058 0.000359242 0)
(3.03465 0.000643802 0)
(3.03451 0.000685297 0)
(3.03427 0.000707819 0)
(3.03364 0.00071711 0)
(3.03202 0.000714767 0)
(3.02782 0.000583972 0)
(3.01806 0.000302245 0)
(3.00539 6.91109e-05 0)
(3.00035 3.42499e-06 0)
(3 8.28365e-09 0)
(1.92174 1.2183 0)
(2.50929 0.899866 0)
(2.82748 0.44702 0)
(3.02809 0.229713 0)
(3.0446 -0.191722 0)
(3.04864 -0.546911 0)
(3.02421 -0.690516 0)
(3.07411 -0.662881 0)
(3.05728 -0.535831 0)
(3.00209 -0.467746 0)
(2.95331 -0.399107 0)
(2.90834 -0.279713 0)
(2.88811 -0.165475 0)
(2.85798 -0.147336 0)
(2.85476 -0.140083 0)
(2.84796 -0.0578365 0)
(2.85047 0.000614697 0)
(2.86049 0.0230353 0)
(2.86285 0.0281802 0)
(2.85932 0.0255813 0)
(2.85447 0.0294939 0)
(2.84215 0.054976 0)
(2.81508 0.051512 0)
(2.80625 0.0347714 0)
(2.81256 0.0255094 0)
(2.82668 0.0227949 0)
(2.84358 0.0230492 0)
(2.85985 0.0154357 0)
(2.86597 0.00458305 0)
(2.87405 -0.00255649 0)
(2.88354 -0.00883448 0)
(2.88434 -0.00573094 0)
(2.88904 0.00539595 0)
(2.89794 0.0145218 0)
(2.90398 0.0233277 0)
(2.91103 0.0310442 0)
(2.91782 0.02836 0)
(2.91669 0.0117359 0)
(2.91001 -0.00110493 0)
(2.89718 -0.0119043 0)
(2.87738 -0.0146309 0)
(2.86593 -0.00550111 0)
(2.86326 0.00348503 0)
(2.8634 0.0146975 0)
(2.86089 0.0300335 0)
(2.85185 0.0372856 0)
(2.83834 0.03222 0)
(2.82758 0.018073 0)
(2.82047 -0.00168249 0)
(2.81254 -0.0223868 0)
(2.80557 -0.0265712 0)
(2.80751 -0.016097 0)
(2.81808 0.00192316 0)
(2.82586 0.0139148 0)
(2.82413 0.0139325 0)
(2.81977 0.0111448 0)
(2.81552 0.00845633 0)
(2.81134 0.00524415 0)
(2.8066 0.000982147 0)
(2.80146 -0.00350846 0)
(2.79799 -0.0122144 0)
(2.80167 -0.0239015 0)
(2.81712 -0.033964 0)
(2.84343 -0.0370315 0)
(2.86984 -0.0277962 0)
(2.87899 -0.0198355 0)
(2.89003 -0.0228536 0)
(2.91831 -0.0268419 0)
(2.93986 -0.0277965 0)
(2.94403 -0.0270364 0)
(2.95248 -0.0219954 0)
(2.96036 -0.0158572 0)
(2.96965 -0.0121468 0)
(2.97754 -0.00903573 0)
(2.98078 -0.00824425 0)
(2.98505 -0.00675079 0)
(2.9878 -0.00571771 0)
(2.99001 -0.00548195 0)
(2.99188 -0.00521901 0)
(2.99364 -0.00489513 0)
(2.99523 -0.00459158 0)
(2.99673 -0.00443739 0)
(2.99965 -0.00428799 0)
(3.00595 -0.00369653 0)
(3.01859 -0.00212704 0)
(3.0318 -0.000227472 0)
(3.03528 0.000518516 0)
(3.03523 0.000696353 0)
(3.03503 0.000952713 0)
(3.03429 0.0013212 0)
(3.03237 0.00159551 0)
(3.02765 0.0015782 0)
(3.01736 0.00105834 0)
(3.0049 0.000292429 0)
(3.00029 1.59001e-05 0)
(3 5.61515e-08 0)
(1.7726 1.12242 0)
(2.18263 1.01924 0)
(2.5968 0.638178 0)
(2.83233 0.360873 0)
(2.87142 0.31617 0)
(2.97403 0.0347324 0)
(3.01794 -0.181726 0)
(3.06601 -0.173729 0)
(3.07167 -0.290054 0)
(3.05375 -0.343244 0)
(3.05273 -0.444709 0)
(3.06013 -0.436622 0)
(3.03592 -0.386377 0)
(3.00782 -0.351723 0)
(2.99401 -0.301101 0)
(2.95144 -0.1955 0)
(2.94331 -0.0933201 0)
(2.93736 -0.0515448 0)
(2.92295 -0.0301249 0)
(2.90713 -0.00129128 0)
(2.89759 0.0154055 0)
(2.87978 0.0515698 0)
(2.86351 0.0615094 0)
(2.86391 0.0461421 0)
(2.86552 0.0153372 0)
(2.87474 0.00176852 0)
(2.88619 0.00582167 0)
(2.89472 0.0118387 0)
(2.90056 0.0108903 0)
(2.90569 0.0096452 0)
(2.90926 0.0106672 0)
(2.91754 0.00741215 0)
(2.93149 0.00573977 0)
(2.94194 0.00705094 0)
(2.95034 0.0113093 0)
(2.95775 0.0185121 0)
(2.96207 0.0264242 0)
(2.95859 0.0313958 0)
(2.94411 0.0258021 0)
(2.9313 0.00934037 0)
(2.92847 0.000613494 0)
(2.92629 -0.00356808 0)
(2.92694 -0.00469917 0)
(2.92922 -0.000577777 0)
(2.92061 0.00690849 0)
(2.91096 0.0157585 0)
(2.89954 0.0184417 0)
(2.88451 0.0139829 0)
(2.87032 0.00353103 0)
(2.85347 -0.00491695 0)
(2.84204 -0.00686188 0)
(2.8485 -0.00351101 0)
(2.85969 0.00118017 0)
(2.85672 0.0013475 0)
(2.84955 0.000678586 0)
(2.84384 0.00159159 0)
(2.84136 0.00502043 0)
(2.84127 0.00853836 0)
(2.8407 0.00823444 0)
(2.83875 0.00223709 0)
(2.8386 -0.0120279 0)
(2.84545 -0.0334002 0)
(2.86211 -0.0535083 0)
(2.88598 -0.0643204 0)
(2.90391 -0.0620324 0)
(2.90094 -0.0530549 0)
(2.90229 -0.0443167 0)
(2.92785 -0.0371213 0)
(2.95178 -0.0327179 0)
(2.95717 -0.031577 0)
(2.96212 -0.0303897 0)
(2.96792 -0.0274285 0)
(2.97622 -0.0205621 0)
(2.97991 -0.0169829 0)
(2.98482 -0.0141503 0)
(2.98746 -0.011 0)
(2.9889 -0.00912624 0)
(2.99097 -0.00878112 0)
(2.99269 -0.00839399 0)
(2.9944 -0.0078817 0)
(2.99597 -0.00745708 0)
(2.99784 -0.00718367 0)
(3.00124 -0.00671259 0)
(3.00808 -0.00521145 0)
(3.02123 -0.0024226 0)
(3.03359 0.000226301 0)
(3.03627 0.00118428 0)
(3.03611 0.00143089 0)
(3.03578 0.00182929 0)
(3.03474 0.00232896 0)
(3.03245 0.00265978 0)
(3.02709 0.00250909 0)
(3.01611 0.00157811 0)
(3.00406 0.000395881 0)
(3.0002 1.83101e-05 0)
(3 4.13143e-08 0)
(1.67195 1.04294 0)
(2.03346 0.924912 0)
(2.31006 0.761518 0)
(2.47959 0.672191 0)
(2.67007 0.492755 0)
(2.84668 0.18151 0)
(2.91587 -0.0183823 0)
(2.96396 -0.0416734 0)
(2.98723 -0.147758 0)
(3.03572 -0.344797 0)
(3.0376 -0.452015 0)
(3.09906 -0.451157 0)
(3.10383 -0.42841 0)
(3.09526 -0.42584 0)
(3.07451 -0.395889 0)
(3.03988 -0.323223 0)
(3.03266 -0.247754 0)
(3.01856 -0.195296 0)
(3.00517 -0.171202 0)
(2.9929 -0.122582 0)
(2.96573 -0.0829194 0)
(2.94122 -0.0212583 0)
(2.93125 0.0228895 0)
(2.92236 0.0318536 0)
(2.9201 0.0619417 0)
(2.91952 0.0673539 0)
(2.91825 0.0677463 0)
(2.9213 0.062301 0)
(2.93383 0.0373815 0)
(2.94006 0.00762034 0)
(2.94211 -0.006759 0)
(2.95919 -0.00606484 0)
(2.97321 -0.000361455 0)
(2.9833 0.0153606 0)
(2.99557 0.0233324 0)
(3.00279 0.0222821 0)
(3.00777 0.0190075 0)
(3.0069 0.013529 0)
(2.99658 0.00837597 0)
(2.99069 0.00905834 0)
(2.99138 0.0105774 0)
(2.99422 0.0118092 0)
(2.99955 0.0141857 0)
(2.99987 0.0194559 0)
(2.99192 0.0204264 0)
(2.9826 0.0209858 0)
(2.97097 0.0179865 0)
(2.95685 0.00485659 0)
(2.94369 -0.0115584 0)
(2.92634 -0.015301 0)
(2.91206 -0.00267918 0)
(2.91478 0.0189434 0)
(2.91274 0.0278824 0)
(2.89917 0.0235369 0)
(2.88666 0.0162826 0)
(2.87977 0.00752558 0)
(2.88083 0.00330736 0)
(2.88628 0.00573931 0)
(2.89193 0.00902876 0)
(2.89616 0.00727947 0)
(2.90218 -0.0040502 0)
(2.91475 -0.0224865 0)
(2.93258 -0.0429981 0)
(2.94886 -0.0615371 0)
(2.95094 -0.070934 0)
(2.93346 -0.066279 0)
(2.9297 -0.0553281 0)
(2.95228 -0.0451389 0)
(2.97156 -0.0396495 0)
(2.97493 -0.0384221 0)
(2.97776 -0.0363142 0)
(2.98151 -0.0319554 0)
(2.98397 -0.02777 0)
(2.98626 -0.0253086 0)
(2.98923 -0.0204122 0)
(2.98941 -0.0149194 0)
(2.99009 -0.0117275 0)
(2.99195 -0.0113048 0)
(2.99344 -0.0110487 0)
(2.99499 -0.0106377 0)
(2.99656 -0.0102984 0)
(2.99881 -0.0100249 0)
(3.00261 -0.00905778 0)
(3.01042 -0.00665865 0)
(3.02448 -0.00272585 0)
(3.03553 0.000587247 0)
(3.03723 0.00169827 0)
(3.03702 0.002048 0)
(3.03647 0.00271699 0)
(3.03511 0.00347362 0)
(3.03238 0.00388401 0)
(3.02621 0.00347556 0)
(3.01439 0.0019793 0)
(3.00305 0.000410795 0)
(3.00011 1.39907e-05 0)
(3 1.04004e-09 0)
(1.63204 0.972787 0)
(1.89823 0.907057 0)
(2.14087 0.785887 0)
(2.32628 0.679002 0)
(2.4808 0.599728 0)
(2.64556 0.409619 0)
(2.75378 0.203411 0)
(2.8103 0.151731 0)
(2.85643 0.0735699 0)
(2.91906 -0.0772892 0)
(2.94832 -0.175439 0)
(2.98932 -0.162868 0)
(3.00071 -0.191926 0)
(3.03657 -0.276512 0)
(3.04458 -0.342671 0)
(3.07869 -0.335133 0)
(3.07681 -0.306273 0)
(3.06394 -0.297337 0)
(3.03823 -0.285589 0)
(3.02634 -0.243442 0)
(3.01541 -0.181732 0)
(3.0026 -0.115386 0)
(2.99185 -0.0683196 0)
(2.98564 -0.0492124 0)
(2.97288 -0.00763954 0)
(2.93678 0.040083 0)
(2.9316 0.0694164 0)
(2.93394 0.0695504 0)
(2.9469 0.0587845 0)
(2.96177 0.0403238 0)
(2.97079 0.0162993 0)
(2.98109 0.00904537 0)
(2.99935 0.0154221 0)
(3.0161 0.0239031 0)
(3.03122 0.0257736 0)
(3.04081 0.0223441 0)
(3.04205 0.0141285 0)
(3.03691 0.00738409 0)
(3.03358 0.00219988 0)
(3.03392 -0.000192893 0)
(3.03723 -0.00141356 0)
(3.04668 0.00335775 0)
(3.05533 0.0161432 0)
(3.05216 0.0255227 0)
(3.04534 0.0277292 0)
(3.03308 0.0227848 0)
(3.02171 0.0119656 0)
(3.00964 0.000997822 0)
(2.99479 -0.00868446 0)
(2.97967 -0.00636094 0)
(2.97485 0.00790878 0)
(2.97867 0.025143 0)
(2.96479 0.0294858 0)
(2.94544 0.0263145 0)
(2.92866 0.0184399 0)
(2.92094 0.00526183 0)
(2.92293 -0.00478152 0)
(2.92865 -0.00596106 0)
(2.93545 -0.00544372 0)
(2.9456 -0.0102824 0)
(2.96343 -0.0226579 0)
(2.9853 -0.0392292 0)
(2.99882 -0.0566115 0)
(2.99623 -0.0730808 0)
(2.97844 -0.0825504 0)
(2.95793 -0.0766407 0)
(2.96002 -0.0599999 0)
(2.98114 -0.0457824 0)
(2.99036 -0.0412995 0)
(2.99095 -0.040682 0)
(2.99234 -0.0387865 0)
(2.99348 -0.036205 0)
(2.9935 -0.0335065 0)
(2.99464 -0.029333 0)
(2.99557 -0.0239062 0)
(2.99426 -0.0183967 0)
(2.99281 -0.0143521 0)
(2.99386 -0.0132558 0)
(2.99488 -0.0130065 0)
(2.99591 -0.0127278 0)
(2.99727 -0.012558 0)
(2.99963 -0.0120342 0)
(3.00376 -0.0106404 0)
(3.01311 -0.00763947 0)
(3.0283 -0.00274991 0)
(3.03746 0.00104091 0)
(3.03823 0.00229904 0)
(3.03793 0.00291531 0)
(3.03702 0.00388317 0)
(3.03527 0.00480222 0)
(3.03199 0.00512274 0)
(3.02477 0.00436145 0)
(3.01203 0.00218162 0)
(3.00198 0.00034602 0)
(3.00005 7.61186e-06 0)
(3 -2.92338e-08 0)
(1.6072 0.933451 0)
(1.80682 0.895687 0)
(1.98625 0.844144 0)
(2.17442 0.757836 0)
(2.3651 0.624822 0)
(2.50243 0.475737 0)
(2.57268 0.395478 0)
(2.62623 0.371581 0)
(2.72956 0.252245 0)
(2.83416 0.0451978 0)
(2.87229 -0.065178 0)
(2.90926 -0.0561961 0)
(2.93546 -0.091586 0)