/*--------------------------------*- C++ -*----------------------------------*\
  =========                 |
  \\      /  F ield         | OpenFOAM: The Open Source CFD Toolbox
   \\    /   O peration     | Website:  https://openfoam.org
    \\  /    A nd           | Version:  7
     \\/     M anipulation  |
\*---------------------------------------------------------------------------*/
FoamFile
{
    version     2.0;
    format      ascii;
    class       volScalarField;
    location    "0.6";
    object      p;
}
// * * * * * * * * * * * * * * * * * * * * * * * * * * * * * * * * * * * * * //

dimensions      [1 -1 -2 0 0 0 0];

internalField   nonuniform List<scalar> 
16128
(
1
1
1
1
1
1
1
1
1
1
1
1
1
1
1
1
1
1
1
1
1
1
1
1
1
1
1
1
1
3.47639
10.5043
11.2865
11.2704
11.3381
11.4721
11.6486
11.8007
11.9348
12.0558
12.1621
12.2159
12.2092
12.233
12.3099
12.4069
12.4757
12.4939
12.4993
1
1
1
1
1
1
1
1
1
1
1
1
1
1
1
1
1
1
1
1
1
1
1
1
1
1
1
1
1
3.40633
10.4239
11.2662
11.262
11.3332
11.466
11.6423
11.7941
11.9294
12.0527
12.1593
12.2114
12.2043
12.2247
12.2972
12.391
12.4595
12.478
12.4843
1
1
1
1
1
1
1
1
1
1
1
1
1
1
1
1
1
1
1
1
1
1
1
1
1
1
1
1
1
3.24877
10.2912
11.2486
11.2325
11.3151
11.4499
11.627
11.7815
11.9204
12.0476
12.1545
12.2046
12.1959
12.2115
12.2776
12.3671
12.4339
12.4497
12.4558
1
1
1
1
1
1
1
1
1
1
1
1
1
1
1
1
1
1
1
1
1
1
1
1
1
1
1
1
1
3.03302
10.0772
11.2263
11.1927
11.2851
11.4222
11.6006
11.7609
11.9068
12.0403
12.1466
12.1909
12.1773
12.1867
12.2485
12.3365
12.4029
12.4129
12.4179
1
1
1
1
1
1
1
1
1
1
1
1
1
1
1
1
1
1
1
1
1
1
1
1
1
1
1
1
1
2.75292
9.75688
11.2111
11.1514
11.2476
11.3873
11.5656
11.7336
11.889
12.0297
12.1344
12.1691
12.1474
12.1489
12.208
12.2964
12.363
12.3673
12.3717
1
1
1
1
1
1
1
1
1
1
1
1
1
1
1
1
1
1
1
1
1
1
1
1
1
1
1
1
1
2.38156
9.31977
11.2237
11.121
11.204
11.3447
11.5252
11.7032
11.8682
12.0141
12.115
12.1385
12.1068
12.0994
12.1538
12.2424
12.3095
12.3116
12.3167
1
1
1
1
1
1
1
1
1
1
1
1
1
1
1
1
1
1
1
1
1
1
1
1
1
1
1
1
1
1.92738
8.74125
11.2542
11.0886
11.1561
11.3033
11.4895
11.6738
11.8431
11.9863
12.0806
12.0957
12.0563
12.0395
12.0861
12.1722
12.2408
12.2455
12.2547
1
1
1
1
1
1
1
1
1
1
1
1
1
1
1
1
1
1
1
1
1
1
1
1
1
1
1
1
1
1.45602
7.94246
11.1955
11.0639
11.1223
11.2642
11.4565
11.6424
11.8099
11.943
12.0284
12.0399
11.9973
11.9721
12.0068
12.0851
12.1531
12.1636
12.1799
1
1
1
1
1
1
1
1
1
1
1
1
1
1
1
1
1
1
1
1
1
1
1
1
1
1
1
1
1
1.05813
6.94295
11.1234
11.048
11.0883
11.2232
11.4145
11.6056
11.766
11.8847
11.9591
11.9678
11.9243
11.8916
11.9119
11.9795
12.0458
12.0636
12.0885
1
1
1
1
1
1
1
1
1
1
1
1
1
1
1
1
1
1
1
1
1
1
1
1
1
1
1
1
1
1.00053
5.86753
10.9344
11.0149
11.0686
11.1829
11.3579
11.5487
11.7015
11.8098
11.8755
11.8818
11.8373
11.7974
11.8028
11.8579
11.9181
11.9382
11.967
1
1
1
1
1
1
1
1
1
1
1
1
1
1
1
1
1
1
1
1
1
1
1
1
1
1
1
1
1
1
4.7767
10.6763
11.0168
11.0505
11.1387
11.2891
11.4663
11.6122
11.7159
11.7776
11.7819
11.7338
11.6813
11.6658
11.7064
11.7626
11.7862
11.8188
1
1
1
1
1
1
1
1
1
1
1
1
1
1
1
1
1
1
1
1
1
1
1
1
1
1
1
1
1
1
3.70562
10.2783
10.9776
11.0156
11.0728
11.2117
11.3721
11.5019
11.5963
11.6581
11.6658
11.6187
11.5544
11.5152
11.5355
11.5785
11.594
11.6134
1
1
1
1
1
1
1
1
1
1
1
1
1
1
1
1
1
1
1
1
1
1
1
1
1
1
1
1
1
1
2.65
9.66488
10.9301
10.9503
11.0113
11.1312
11.2753
11.3848
11.4613
11.5177
11.5335
11.4921
11.4127
11.3345
11.3095
11.3278
11.3369
11.3662
1
1
1
1
1
1
1
1
1
1
1
1
1
1
1
1
1
1
1
1
1
1
1
1
1
1
1
1
1
1
1.76741
8.71001
10.9638
10.8628
10.8739
10.9729
11.1273
11.248
11.3234
11.3701
11.3792
11.3376
11.2434
11.1338
11.0687
11.0519
11.0267
10.968
1
1
1
1
1
1
1
1
1
1
1
1
1
1
1
1
1
1
1
1
1
1
1
1
1
1
1
1
1
1
1.15427
7.39941
10.7391
10.7632
10.7714
10.8541
11.0059
11.1237
11.1861
11.2117
11.1979
11.1496
11.0413
10.8961
10.7564
10.627
10.5066
10.42
1
1
1
1
1
1
1
1
1
1
1
1
1
1
1
1
1
1
1
1
1
1
1
1
1
1
1
1
1
1
1.00275
5.76321
10.3784
10.6401
10.6585
10.7195
10.8506
10.9633
11.0299
11.0405
11.0013
10.9263
10.7888
10.5975
10.3941
10.193
9.97644
9.90772
1
1
1
1
1
1
1
1
1
1
1
1
1
1
1
1
1
1
1
1
1
1
1
1
1
1
1
1
1
1
1
3.95022
9.83531
10.5745
10.5468
10.5781
10.6844
10.8022
10.8746
10.8575
10.7863
10.6793
10.5145
10.2856
9.99823
9.59015
8.67689
6.73315
1
1
1
1
1
1
1
1
1
1
1
1
1
1
1
1
1
1
1
1
1
1
1
1
1
1
1
1
1
1
1
2.19178
9.03551
10.6626
10.5632
10.5235
10.5604
10.6247
10.661
10.6249
10.5422
10.4256
10.2333
9.94386
9.52981
8.88747
7.89883
5.77888
1
1
1
1
1
1
1
1
1
1
1
1
1
1
1
1
1
1
1
1
1
1
1
1
1
1
1
1
1
1
1
1.14968
7.4733
10.4362
10.398
10.3948
10.4123
10.4574
10.477
10.4223
10.3081
10.1575
9.92883
9.60115
9.10328
8.42171
7.24492
5.4258
1
1
1
1
1
1
1
1
1
1
1
1
1
1
1
1
1
1
1
1
1
1
1
1
1
1
1
1
1
1
1
1.00192
5.16181
10.0431
10.3653
10.3042
10.2742
10.2856
10.2881
10.2284
10.0876
9.89576
9.63051
9.27684
8.74822
8.03064
6.83196
5.33784
1
1
1
1
1
1
1
1
1
1
1
1
1
1
1
1
1
1
1
1
1
1
1
1
1
1
1
1
1
1
1
1
2.85183
9.35484
10.3636
10.2052
10.1129
10.0815
10.0641
10.013
9.86414
9.64106
9.34162
8.96217
8.44312
7.69074
6.60243
5.37394
1
1
1
1
1
1
1
1
1
1
1
1
1
1
1
1
1
1
1
1
1
1
1
1
1
1
1
1
1
1
1
1
1.29174
7.79609
10.2439
10.0353
9.92745
9.86253
9.83756
9.79442
9.65475
9.4128
9.08579
8.68121
8.17329
7.43217
6.51135
5.49753
1
1
1
1
1
1
1
1
1
1
1
1
1
1
1
1
1
1
1
1
1
1
1
1
1
1
1
1
1
1
1
1
1.0062
5.24203
9.79512
9.92533
9.83636
9.73145
9.68009
9.60454
9.45771
9.20286
8.85027
8.4443
7.91576
7.23402
6.44334
5.59175
1
1
1
1
1
1
1
1
1
1
1
1
1
1
1
1
1
1
1
1
1
1
1
1
1
1
1
1
1
1
1
1
1
2.54586
8.95781
9.90726
9.7313
9.58068
9.47644
9.38388
9.24244
9.01364
8.65852
8.25554
7.71972
7.10514
6.41687
5.70144
1
1
1
1
1
1
1
1
1
1
1
1
1
1
1
1
1
1
1
1
1
1
1
1
1
1
1
1
1
1
1
1
1
1.14933
7.01495
9.7151
9.6205
9.46254
9.30385
9.17843
9.02425
8.81945
8.50715
8.1019
7.5922
7.02639
6.40257
5.7697
1
1
1
1
1
1
1
1
1
1
1
1
1
1
1
1
1
1
1
1
1
1
1
1
1
1
1
1
1
1
1
1
1
1.00181
3.95637
9.23928
9.57679
9.40089
9.19971
9.02429
8.82224
8.60153
8.32548
7.95458
7.50078
6.9813
6.41822
5.84328
1
1
1
1
1
1
1
1
1
1
1
1
1
1
1
1
1
1
1
1
1
1
1
1
1
1
1
1
1
1
1
1
1
1
1.48453
7.79718
9.52514
9.28377
9.1051
8.89489
8.65505
8.4162
8.16655
7.84023
7.43542
6.95461
6.4417
5.90429
1
1
1
1
1
1
1
1
1
1
1
1
1
1
1
1
1
1
1
1
1
1
1
1
1
1
1
1
1
1
1
1
1
1
1.0159
4.8873
8.9977
9.20621
9.04602
8.8069
8.54745
8.2861
8.02499
7.72466
7.35719
6.92752
6.47047
5.97661
1
1
1
1
1
1
1
1
1
1
1
1
1
1
1
1
1
1
1
1
1
1
1
1
1
1
1
1
1
1
1
1
1
1
1.00002
1.84623
7.9209
9.20489
8.99626
8.75856
8.4716
8.19277
7.92246
7.62947
7.28745
6.89717
6.47909
6.02982
1
1
1
1
1
1
1
1
1
1
1
1
1
1
1
1
1
1
1
1
1
1
1
1
1
1
1
1
1
1
1
1
1
1
1
1.04383
5.10868
8.71231
8.84407
8.67406
8.42366
8.14625
7.85835
7.54848
7.21062
6.85023
6.47209
6.07032
1
1
1
1
1
1
1
1
1
1
1
1
1
1
1
1
1
1
1
1
1
1
1
1
1
1
1
1
1
1
1
1
1
1
1
1.00017
1.88363
7.69218
8.8501
8.63338
8.40035
8.11412
7.80391
7.47787
7.14978
6.81663
6.46878
6.1006
1
1
1
1
1
1
1
1
1
1
1
1
1
1
1
1
1
1
1
1
1
1
1
1
1
1
1
1
1
1
1
1
1
1
1
1
1.04868
4.7613
8.35192
8.51291
8.31091
8.07229
7.77419
7.45305
7.13298
6.80829
6.47062
6.12316
1
1
1
1
1
1
1
1
1
1
1
1
1
1
1
1
1
1
1
1
1
1
1
1
1
1
1
1
1
1
1
1
1
1
1
1
1.00025
1.75058
7.07651
8.53119
8.29444
8.05165
7.75595
7.43036
7.10953
6.79785
6.48065
6.15512
1
1
1
1
1
1
1
1
1
1
1
1
1
1
1
1
1
1
1
1
1
1
1
1
1
1
1
1
1
1
1
1
1
1
1
1
1
1.03466
3.76649
7.86098
8.24037
8.01212
7.75208
7.44563
7.13023
6.82328
6.5095
6.1857
1
1
1
1
1
1
1
1
1
1
1
1
1
1
1
1
1
1
1
1
1
1
1
1
1
1
1
1
1
1
1
1
1
1
1
1
1
1.00019
1.40843
6.01531
8.11626
7.95967
7.70878
7.43089
7.13735
6.83806
6.52965
6.21735
1
1
1
1
1
1
1
1
1
1
1
1
1
1
1
1
1
1
1
1
1
1
1
1
1
1
1
1
1
1
1
1
1
1
1
1
1
1
1.01062
2.59761
7.18228
7.97697
7.71354
7.47297
7.19172
6.88854
6.56988
6.25274
1
1
1
1
1
1
1
1
1
1
1
1
1
1
1
1
1
1
1
1
1
1
1
1
1
1
1
1
1
1
1
1
1
1
1
1
1
1
1.00004
1.14456
4.40194
7.47633
7.60791
7.38405
7.16449
6.89637
6.6079
6.31185
1
1
1
1
1
1
1
1
1
1
1
1
1
1
1
1
1
1
1
1
1
1
1
1
1
1
1
1
1
1
1
1
1
1
1
1
1
1
1
1.00202
1.6708
5.78933
7.60645
7.39412
7.14951
6.88494
6.61235
6.33555
1
1
1
1
1
1
1
1
1
1
1
1
1
1
1
1
1
1
1
1
1
1
1
1
1
1
1
1
1
1
1
1
1
1
1
1
1
1
1
1.00001
1.02791
2.60774
6.62129
7.44195
7.17192
6.92896
6.67248
6.40274
1
1
1
1
1
1
1
1
1
1
1
1
1
1
1
1
1
1
1
1
1
1
1
1
1
1
1
1
1
1
1
1
1
1
1
1
1
1
1
1
1.00018
1.14871
3.76108
6.89606
7.19938
6.91609
6.69684
6.46693
1
1
1
1
1
1
1
1
1
1
1
1
1
1
1
1
1
1
1
1
1
1
1
1
1
1
1
1
1
1
1
1
1
1
1
1
1
1
1
1
1
1.00227
1.45001
4.81565
6.86678
6.94236
6.70761
6.48185
1
1
1
1
1
1
1
1
1
1
1
1
1
1
1
1
1
1
1
1
1
1
1
1
1
1
1
1
1
1
1
1
1
1
1
1
1
1
1
1
1
1.00001
1.01431
1.95447
5.47383
6.8472
6.74215
6.48389
1
1
1
1
1
1
1
1
1
1
1
1
1
1
1
1
1
1
1
1
1
1
1
1
1
1
1
1
1
1
1
1
1
1
1
1
1
1
1
1
1
1
1.00008
1.05485
2.54117
5.87615
6.7279
6.56655
1
1
1
1
1
1
1
1
1
1
1
1
1
1
1
1
1
1
1
1
1
1
1
1
1
1
1
1
1
1
1
1
1
1
1
1
1
1
1
1
1
1
1
1.00053
1.14294
3.11093
6.0433
6.57299
1
1
1
1
1
1
1
1
1
1
1
1
1
1
1
1
1
1
1
1
1
1
1
1
1
1
1
1
1
1
1
1
1
1
1
1
1
1
1
1
1
1
1
1
1.00233
1.27611
3.56445
6.07326
1
1
1
1
1
1
1
1
1
1
1
1
1
1
1
1
1
1
1
1
1
1
1
1
1
1
1
1
1
1
1
1
1
1
1
1
1
1
1
1
1
1
1
1
1.00001
1.00666
1.43137
3.89258
1
1
1
1
1
1
1
1
1
1
1
1
1
1
1
1
1
1
1
1
1
1
1
1
1
1
1
1
1
1
1
1
1
1
1
1
1
1
1
1
1
1
1
1
1
1.00003
1.01433
1.58268
1
1
1
1
1
1
1
1
1
1
1
1
1
1
1
1
1
1
1
1
1
1
1
1
1
1
1
1
1
1
1
1
1
1
1
1
1
1
1
1
1
1
1
1
1
1
1.00008
1.0246
1
1
1
1
1
1
1
1
1
1
1
1
1
1
1
1
1
1
1
1
1
1
1
1
1
1
1
1
1
1
1
1
1
1
1
1
1
1
1
1
1
1
1
1
1
1
1
1.00018
1
1
1
1
1
1
1
1
1
1
1
1
1
1
1
1
1
1
1
1
1
1
1
1
1
1
1
1
1
1
1
1
1
1
1
1
1
1
1
1
1
1
1
1
1
1
1
1
1
1
1
1
1
1
1
1
1
1
1
1
1
1
1
1
1
1
1
1
1
1
1
1
1
1
1
1
1
1
1
1
1
1
1
1
1
1
1
1
1
1
1
1
1
1
1
1
1
1
1
1
1
1
1
1
1
1
1
1
1
1
1
1
1
1
1
1
1
1
1
1
1
1
1
1
1
1
1
1
1
1
1
1
1
1
1
1
1
1
1
1
1
1
1
1
1
1
1
1
1
1
1
1
1
1
1
1
1
1
1
1
1
1
1
1
1
1
1
1
1
1
1
1
1
1
1
1
1
1
1
1
1
1
1
1
1
1
1
1
1
1
1
1
1
1
1
1
1
1
1
1
1
1
1
1
1
1
1
1
1
1
1
1
1
1
1
1
1
1
1
1
1
1
1
1
1
1
1
1
1
1
1
1
1
1
1
1
1
1
1
1
1
1
1
1
1
1
1
1
1
1
1
1
1
1
1
1
1
1
1
1
1
1
1
1
1
1
1
1
1
1
1
1
1
1
1
1
1
1
1
1
1
1
1
1
1
1
1
1
1
1
1
1
1
1
1
1
1
1
1
1
1
1
1
1
1
1
1
1
1
1
1
1
1
1
1
1
1
1
1
1
1
1
1
1
1
1
1
1
1
1
1
1
1
1
1
1
1
1
1
1
1
1
1
1
1
1
1
1
1
1
1
1
1
1
1
1
1
1
1
1
1
1
1
1
1
1
1
1
1
1
1
1
1
1
1
1
1
1
1
1
1
1
1
1
1
1
1
1
1
1
1
1
1
1
1
1
1
1
1
1
1
1
1
1
1
1
1
1
1
1
1
1
1
1
1
1
1
1
1
1
1
1
1
1
1
1
1
1
1
1
1
1
1
1
1
1
1
1
1
1
1
1
1
1
1
1
1
1
1
1
1
1
1
1
1
1
1
1
1
1
1
1
1
1
1
1
1
1
1
1
1
1
1
1
1
1
1
1
1
1
1
1
1
1
1
1
1
1
1
1
1
1
1
1
1
1
1
1
1
1
1
1
1
1
1
1
1
1
1
1
1
1
1
1
1
1
1
1
1
1
1
1
1
1
1
1
1
1
1
1
1
1
1
1
1
1
1
1
1
1
1
1
1
1
1
1
1
1
1
1
1
1
1
1
1
1
1
1
1
1
1
1
1
1
1
1
1
1
1
1
1
1
1
1
1
1
1
1
1
1
1
1
1
1
1
1
1
1
1
1
1
1
1
1
1
1
1
1
1
1
1
1
1
1
1
1
1
1
1
1
1
1
1
1
1
1
1
1
1
1
1
1
1
1
1
1
1
1
1
1
1
1
1
1
1
1
1
1
1
1
1
1
1
1
1
1
1
1
1
1
1
1
1
1
1
1
1
1
1
1
1
1
1
1
1
1
1
1
1
1
1
1
1
1
1
1
1
1
1
1
1
1
1
1
1
1
1
1
1
1
1
1
1
1
1
1
1
1
1
1
1
1
1
1
1
1
1
1
1
1
1
1
1
1
1
1
1
1
1
1
1
1
1
1
1
1
1
1
1
1
1
1
1
1
1
1
1
1
1
1
1
1
1
1
1
1
1
1
1
1
1
1
1
1
1
1
1
1
1
1
1
1
1
1
1
1
1
1
1
1
1
1
1
1
1
1
1
1
1
1
1
1
1
1
1
1
1
1
1
1
1
1
1
1
1
1
1
1
1
1
1
1
1
1
1
1
1
1
1
1
1
1
1
1
1
1
1
1
1
1
1
1
1
1
1
1
1
1
1
1
1
1
1
1
1
1
1
1
1
1
1
1
1
1
1
1
1
1
1
1
1
1
1
1
1
1
1
1
1
1
1
1
1
1
1
1
1
1
1
1
1
1
1
1
1
1
1
1
1
1
1
1
1
1
1
1
1
1
1
1
1
1
1
1
1
1
1
1
1
1
1
1
1
1
1
1
1
1
1
1
1
1
1
1
1
1
1
1
1
1
1
1
1
1
1
1
1
1
1
1
1
1
1
1
1
1
1
1
1
1
1
1
1
1
1
1
1
1
1
1
1
1
1
1
1
1
1
1
1
1
1
1
1
1
1
1
1
1
1
1
1
1
1
1
1
1
1
1
1
1
1
1
1
1
1
1
1
1
1
1
1
1
1
1
1
1
1
1
1
1
1
1
1
1
1
1
1
1
1
1
1
1
1
1
1
1
1
1
1
1
1
1
1
1
1
1
1
1
1
1
1
1
1
1
1
1
1
1
1
1
1
1
1
1
1
1
1
1
1
1
1
1
1
1
1
1
1
1
1
1
1
1
1
1
1
1
1
1
1
1
1
1
1
1
1
1
1
1
1
1
1
1
1
1
1
1
1
1
1
1
1
1
1
1
1
1
1
1
1
1
1
1
1
1
1
1
1
1
1
1
1
1
1
1
1
1
1
1
1
1
1
1
1
1
1
1
1
1
1
1
1
1
1
1
1
1
1
1
1
1
1
1
1
1
1
1
1
1
1
1
1
1
1
1
1
1
1
1
1
1
1
1
1
1
1
1
1
1
1
1
1
1
1
1
1
1
1
1
1
1
1
1
1
1
1
1
1
1
1
1
1
1
1
1
1
1
1
1
1
1
1
1
1
1
1
1
1
1
1
1
1
1
1
1
1
1
1
1
1
1
1
1
1
1
1
1
1
1
1
1
1
1
1
1
1
1
1
1
1
1
1
1
1
1
1
1
1
1
1
1
1
1
1
1
1
1
1
1
1
1
1
1
1
1
1
1
1
1
1
1
1
1
1
1
1
1
1
1
1
1
1
1
1
1
1
1
1
1
1
1
1
1
1
1
1
1
1
1
1
1
1
1
1
1
1
1
1
1
1
1
1
1
1
1
1
1
1
1
1
1
1
1
1
1
1
1
1
1
1
1
1
1
1
1
1
1
1
1
1
1
1
1
1
1
1
1
1
1
1
1
1
1
1
1
1
1
1
1
1
1
1
1
1
1
1
1
1
1
1
1
1
1
1
1
1
1
1
1
1
1
1
1
1
1
1
1
1
1
1
1
1
1
1
1
1
1
1
1
1
1
1
1
1
1
1
1
1
1
1
1
1
1
1
1
1
1
1
1
1
1
1
1
1
1
1
1
1
1
1
1
1
1
1
1
1
1
1
1
1
1
1
1
1
1
1
1
1
1
1
1
1
1
1
1
1
1
1
1
1
1
1
1
1
1
1
1
1
1
1
1
1
1
1
1
1
1
1
1
1
1
1
1
1
1
1
1
1
1
1.24728
0.289648
0.0638369
0.0301188
0.0509044
0.0792329
0.110172
0.146187
0.196871
0.273266
0.368906
0.453659
0.53609
0.610068
0.677944
0.701693
0.71629
0.747657
0.800922
0.833557
0.856019
0.861992
0.884211
0.897882
0.906019
0.90695
0.904215
0.909816
0.907407
0.900407
0.907429
0.924015
0.942097
0.950701
0.961231
0.968607
0.962341
0.955323
0.947143
0.945346
0.947459
0.955966
0.973332
0.984102
0.984659
0.983748
0.978072
0.970033
0.96862
0.968336
0.969092
0.972647
0.97384
0.972475
0.968784
0.96243
0.960252
0.960961
0.963496
0.968338
0.96721
0.961028
0.94851
0.931358
0.918791
0.913246
0.911714
0.918872
0.925526
0.921554
0.913496
0.89985
0.880859
0.86949
0.866432
0.865478
0.867739
0.870154
0.869162
0.86781
0.862318
0.847076
0.832606
0.828579
0.830033
0.835155
0.845823
0.862977
0.880067
0.88835
0.891541
0.892869
0.886422
0.872541
0.864874
0.865123
0.867384
0.87092
0.879256
0.89326
0.903937
0.906898
0.908039
0.90764
0.903874
0.899656
0.899183
0.899628
0.901176
0.906072
0.914927
0.923909
0.928687
0.929656
0.928574
0.925815
0.920932
0.916263
0.92048
0.934904
0.940628
0.939314
0.935819
0.934904
0.936401
0.939056
0.943444
0.949965
0.956955
0.964377
0.967168
0.963683
0.960234
0.970838
0.991134
0.99239
0.988034
0.984478
0.982588
0.984372
0.997714
1.00571
1.00482
1.00445
1.00556
1.00751
1.00845
1.00815
1.0084
1.01038
1.01691
1.02277
1.02342
1.02284
1.02243
1.02249
1.02249
1.02187
1.02127
1.02106
1.02203
1.02573
1.02988
1.03063
1.03035
1.02992
1.0294
1.02841
1.0261
1.02094
1.0134
1.00928
1.0088
1.00875
1.00872
1.0087
1.00877
1.00933
1.01126
1.01662
1.02728
1.0367
1.03876
1.03883
1.03884
1.03852
1.03706
1.03279
1.02265
1.00806
1.00074
1.00001
2.25215
1.1089
0.620322
0.299515
0.255201
0.248618
0.222755
0.210923
0.219804
0.240184
0.257617
0.281057
0.304989
0.347255
0.421331
0.499966
0.56092
0.605465
0.656973
0.714697
0.75936
0.797825
0.839004
0.85671
0.869505
0.879501
0.892512
0.902563
0.903488
0.904162
0.906094
0.916094
0.928251
0.934267
0.940847
0.950659
0.951185
0.951172
0.952198
0.952909
0.955132
0.962785
0.974945
0.979459
0.979002
0.97747
0.973606
0.967606
0.966055
0.966841
0.969133
0.974003
0.977811
0.978251
0.976812
0.971661
0.961104
0.951529
0.949907
0.951229
0.955974
0.956218
0.952495
0.946826
0.93596
0.923349
0.915886
0.911783
0.911961
0.912384
0.907383
0.900723
0.892523
0.881152
0.86861
0.861115
0.859146
0.859129
0.860837
0.860226
0.85791
0.853876
0.849232
0.84552
0.843376
0.844596
0.850351
0.860864
0.872036
0.876356
0.879386
0.882427
0.882005
0.879549
0.878151
0.875671
0.874614
0.87667
0.881392
0.889172
0.898073
0.904673
0.907423
0.908825
0.909183
0.907509
0.905394
0.905148
0.905503
0.906816
0.910874
0.916256
0.919734
0.921664
0.923115
0.924229
0.923356
0.922653
0.926892
0.936036
0.93845
0.937284
0.936619
0.937502
0.940586
0.944767
0.949411
0.954864
0.960572
0.961134
0.958211
0.957964
0.961657
0.963623
0.978459
0.985253
0.982074
0.979581
0.977808
0.979297
0.991
0.999194
0.999041
0.998941
0.999968
1.00173
1.00381
1.0048
1.0054
1.00737
1.01308
1.01928
1.02157
1.02156
1.02117
1.02112
1.02134
1.02114
1.02069
1.02053
1.02136
1.0244
1.02856
1.02986
1.02967
1.02932
1.02891
1.02806
1.02589
1.02083
1.01329
1.00911
1.00862
1.00859
1.00856
1.00855
1.00862
1.00916
1.01117
1.01678
1.02759
1.03694
1.03894
1.03899
1.03896
1.03865
1.03735
1.03303
1.02238
1.00769
1.00067
1.00001
3.10539
1.85896
1.23112
0.850385
0.621504
0.485439
0.387082
0.33398
0.328338
0.32393
0.307775
0.307869
0.316999
0.338556
0.372543
0.412232
0.45437
0.496116
0.53872
0.590091
0.643598
0.709006
0.772817
0.811897
0.841613
0.859854
0.879835
0.901767
0.923586
0.925929
0.922974
0.935299
0.949707
0.95198
0.947669
0.943686
0.942501
0.942669
0.946386
0.950146
0.956801
0.969463
0.979114
0.981587
0.981957
0.979422
0.973833
0.966258
0.961169
0.960662
0.962014
0.965485
0.969671
0.973998
0.978024
0.979681
0.978135
0.969871
0.955597
0.94323
0.939016
0.938314
0.941021
0.944736
0.943526
0.939321
0.93231
0.920191
0.905571
0.895885
0.891636
0.890181
0.888354
0.885467
0.881655
0.875342
0.865952
0.855289
0.846894
0.842034
0.841707
0.844768
0.848945
0.852894
0.85779
0.864457
0.869251
0.87001
0.867027
0.862069
0.858688
0.859838
0.864531
0.870388
0.876196
0.88069
0.884934
0.889617
0.89289
0.893933
0.893918
0.894415
0.895633
0.897773
0.901102
0.905237
0.908981
0.913249
0.917186
0.918442
0.916561
0.91323
0.909569
0.908218
0.908366
0.909949
0.914739
0.920971
0.930139
0.940573
0.936879
0.931498
0.929825
0.931267
0.935037
0.941107
0.948691
0.956365
0.962187
0.965626
0.966436
0.964505
0.967799
0.976854
0.978532
0.981393
0.983728
0.984281
0.985698
0.992701
1.00388
1.00475
1.00327
1.00329
1.00411
1.00524
1.00645
1.00717
1.00794
1.01047
1.01609
1.02075
1.02246
1.02292
1.02298
1.02291
1.02268
1.02213
1.02164
1.02144
1.02214
1.02499
1.02901
1.03021
1.03001
1.02966
1.02926
1.02848
1.02646
1.02154
1.01385
1.0093
1.00871
1.00867
1.00864
1.00862
1.00869
1.00925
1.01128
1.01692
1.02779
1.03713
1.03913
1.03919
1.0392
1.03891
1.03742
1.03277
1.02179
1.00713
1.00057
1
3.65446
2.55913
1.78104
1.35053
1.09757
0.857255
0.687967
0.596114
0.530399
0.502294
0.471591
0.435813
0.429929
0.420233
0.39775
0.397459
0.407524
0.422801
0.440889
0.466058
0.509816
0.574627
0.651593
0.707493
0.741639
0.765683
0.78654
0.818238
0.870885
0.890975
0.895545
0.918518
0.95134
0.962063
0.959604
0.950562
0.940929
0.938781
0.939894
0.943159
0.95185
0.96241
0.969525
0.974305
0.976823
0.976426
0.973008
0.969399
0.96522
0.961254
0.95913
0.959594
0.961444
0.965009
0.970251
0.973685
0.974401
0.972254
0.96414
0.949673
0.940972
0.9394
0.939124
0.940777
0.941192
0.938107
0.933252
0.925577
0.913473
0.899604
0.888929
0.882331
0.879445
0.878318
0.877293
0.874982
0.870534
0.86364
0.854855
0.847781
0.844898
0.844622
0.846347
0.849862
0.855804
0.8628
0.867447
0.87058
0.871279
0.868054
0.863243
0.86357
0.86733
0.870686
0.873881
0.877836
0.882823
0.887965
0.893002
0.897146
0.899051
0.899508
0.898992
0.896847
0.896474
0.899637
0.903966
0.909225
0.913409
0.915311
0.918384
0.921434
0.919972
0.916811
0.914698
0.914748
0.917229
0.920721
0.927705
0.939655
0.940956
0.932983
0.927942
0.927263
0.930145
0.936233
0.943835
0.949752
0.951921
0.953192
0.957304
0.961443
0.96418
0.976398
0.982971
0.978912
0.977681
0.977786
0.98369
0.999167
1.00669
1.00537
1.00389
1.00362
1.00424
1.00523
1.00625
1.00708
1.00805
1.01103
1.01713
1.02117
1.02214
1.02253
1.02355
1.02383
1.02312
1.02233
1.02182
1.02162
1.02223
1.02502
1.02899
1.03016
1.02996
1.02963
1.02923
1.02844
1.02652
1.02194
1.01439
1.00943
1.00869
1.00865
1.00861
1.00859
1.00865
1.00925
1.01141
1.01724
1.0283
1.03762
1.03955
1.03962
1.03963
1.03926
1.03758
1.03252
1.02094
1.00637
1.00045
1
4.05437
3.12984
2.39741
1.86263
1.516
1.23101
1.02679
0.905655
0.79389
0.715268
0.660515
0.586257
0.547264
0.531889
0.495914
0.470399
0.472312
0.466632
0.461661
0.473014
0.478418
0.481731
0.496605
0.531529
0.572742
0.618365
0.665303
0.720821
0.791539
0.83336
0.845262
0.861297
0.889957
0.915856
0.920809
0.919053
0.928378
0.945446
0.954655
0.963874
0.96731
0.969525
0.969617
0.9663
0.961525
0.961312
0.964859
0.968364
0.969252
0.967308
0.962517
0.958656
0.958323
0.959736
0.962005
0.96579
0.967726
0.967994
0.965437
0.955443
0.943595
0.940715
0.939763
0.93988
0.9397
0.935814
0.930639
0.924006
0.914503
0.902505
0.892165
0.885851
0.881909
0.878408
0.87456
0.869827
0.864606
0.859205
0.854133
0.851413
0.851288
0.852363
0.854009
0.85568
0.856533
0.856537
0.856588
0.856707
0.857829
0.861382
0.865063
0.868787
0.873426
0.877188
0.879715
0.882091
0.883485
0.885559
0.889717
0.895433
0.899225
0.900805
0.901667
0.902591
0.904543
0.906192
0.906279
0.907518
0.907685
0.90605
0.907482
0.913131
0.91709
0.917649
0.918904
0.922155
0.926681
0.929933
0.932131
0.935799
0.937885
0.93445
0.930575
0.930253
0.933799
0.940075
0.947209
0.952798
0.955077
0.953605
0.95239
0.958608
0.971055
0.98321
0.983735
0.970582
0.969305
0.975161
0.988038
1.00447
1.00801
1.00707
1.00582
1.00318
1.0014
1.00259
1.00441
1.00579
1.0068
1.01146
1.01844
1.02132
1.02167
1.02213
1.02358
1.02398
1.0233
1.02247
1.02189
1.02162
1.02201
1.02461
1.02862
1.02991
1.02972
1.0294
1.029
1.02826
1.02651
1.02234
1.01505
1.00963
1.00866
1.0086
1.00857
1.00854
1.00861
1.00923
1.01143
1.01743
1.02879
1.0382
1.04011
1.04019
1.04018
1.03972
1.0378
1.03217
1.0198
1.00543
1.00032
1
4.43965
3.59149
2.89149
2.36299
1.95689
1.63384
1.36883
1.21156
1.06596
0.955498
0.88413
0.802037
0.725213
0.692572
0.642834
0.589267
0.575342
0.560917
0.528106
0.51851
0.512404
0.496637
0.495585
0.498105
0.502421
0.508834
0.525859
0.565361
0.624831
0.693845
0.741685
0.768786
0.798512
0.849793
0.880466
0.887025
0.899634
0.923299
0.945446
0.948477
0.952615
0.957526
0.958922
0.957169
0.954475
0.95589
0.961571
0.965562
0.967206
0.967914
0.964707
0.956424
0.951811
0.952383
0.955595
0.960966
0.965726
0.966859
0.964948
0.957341
0.944138
0.936826
0.934776
0.933274
0.934004
0.932271
0.928897
0.925288
0.919332
0.908444
0.897096
0.889438
0.88302
0.876061
0.868726
0.861987
0.857575
0.855501
0.855255
0.855821
0.856135
0.856152
0.855776
0.854507
0.852111
0.849289
0.847444
0.848689
0.85284
0.860497
0.868915
0.874266
0.877912
0.879676
0.88097
0.882728
0.883006
0.883539
0.88673
0.894058
0.898657
0.899855
0.900536
0.902063
0.904142
0.905246
0.906795
0.909226
0.909908
0.908777
0.909009
0.912364
0.917928
0.921691
0.924219
0.92795
0.931418
0.933094
0.933729
0.934914
0.935773
0.93407
0.931793
0.93205
0.935569
0.941298
0.946706
0.948823
0.948367
0.948486
0.949778
0.955203
0.969198
0.988038
0.989735
0.972991
0.970423
0.978429
0.994825
1.00756
1.0083
1.00696
1.00507
1.00199
0.998401
0.998677
1.00095
1.00279
1.00631
1.015
1.0213
1.02136
1.02065
1.02076
1.02234
1.02362
1.02333
1.02269
1.0223
1.02217
1.02275
1.02521
1.02867
1.02973
1.02957
1.02927
1.02887
1.02816
1.02653
1.02269
1.01571
1.00988
1.00863
1.00856
1.00852
1.0085
1.00857
1.0092
1.01147
1.01771
1.02941
1.03889
1.04075
1.04083
1.04081
1.04026
1.03805
1.0317
1.01832
1.00437
1.0002
1
4.73363
3.96453
3.32484
2.79891
2.36658
1.9984
1.73571
1.53195
1.35364
1.19579
1.10284
0.996063
0.900966
0.84602
0.801156
0.735394
0.695382
0.664365
0.62026
0.599978
0.590135
0.568778
0.534036
0.530731
0.529495
0.523717
0.526086
0.53103
0.540347
0.554687
0.580589
0.610655
0.643293
0.688697
0.752528
0.808394
0.842421
0.885613
0.922725
0.927067
0.935064
0.943757
0.94381
0.93947
0.9422
0.951125
0.963232
0.96551
0.963703
0.963987
0.963933
0.959508
0.953617
0.95152
0.953851
0.957357
0.958478
0.958543
0.956867
0.952796
0.946279
0.940052
0.93692
0.934989
0.934705
0.933915
0.931602
0.928427
0.921142
0.909495
0.898589
0.890134
0.882227
0.874337
0.867716
0.863537
0.860911
0.859228
0.85761
0.856382
0.85555
0.854029
0.851364
0.847545
0.843357
0.840492
0.84066
0.844886
0.855541
0.869796
0.877893
0.881118
0.88278
0.880971
0.878604
0.879207
0.879054
0.878843
0.882139
0.891836
0.898922
0.900276
0.900939
0.902296
0.902953
0.902206
0.902393
0.904366
0.905426
0.906152
0.908606
0.912982
0.920011
0.928158
0.932438
0.932827
0.932087
0.930824
0.930712
0.931915
0.93328
0.933842
0.934219
0.935876
0.939407
0.943161
0.943073
0.938259
0.933914
0.936113
0.946174
0.960339
0.975893
0.989152
0.986306
0.97254
0.971315
0.981358
0.998366
1.00798
1.00766
1.00576
1.00301
0.999001
0.995683
0.996528
0.999761
1.0029
1.0089
1.01921
1.02294
1.02256
1.02174
1.02161
1.02248
1.02327
1.02319
1.02273
1.02253
1.0225
1.02312
1.02554
1.02848
1.02926
1.02913
1.02887
1.0285
1.02785
1.0264
1.02296
1.01637
1.01014
1.00854
1.00846
1.00842
1.0084
1.00848
1.00919
1.01166
1.01828
1.03038
1.03978
1.04151
1.04159
1.04154
1.04087
1.03827
1.03095
1.01645
1.00328
1.00011
1
4.94883
4.25458
3.68435
3.17529
2.71829
2.35592
2.07691
1.8309
1.61453
1.4585
1.33833
1.20972
1.07516
1.00238
0.940312
0.878887
0.838417
0.804809
0.756076
0.717239
0.691855
0.659344
0.609259
0.591333
0.582086
0.565385
0.546567
0.546925
0.550529
0.547328
0.53568
0.525692
0.527319
0.538718
0.572778
0.638672
0.714937
0.785426
0.850434
0.880087
0.900179
0.921298
0.925487
0.916563
0.918679
0.933004
0.946608
0.957029
0.960109
0.960674
0.96238
0.962227
0.960165
0.957147
0.9522
0.946298
0.942585
0.941841
0.943384
0.945618
0.947413
0.949742
0.949647
0.946211
0.941588
0.93687
0.930098
0.919793
0.909428
0.901401
0.895054
0.889431
0.884308
0.880795
0.877872
0.873266
0.863866
0.852894
0.848928
0.847661
0.847301
0.846868
0.845599
0.844606
0.843688
0.84377
0.847249
0.855435
0.866379
0.873055
0.87535
0.876873
0.876922
0.875204
0.875243
0.875959
0.876027
0.877147
0.881631
0.891319
0.898798
0.900038
0.900208
0.901614
0.904152
0.902566
0.901306
0.90248
0.904441
0.906963
0.910612
0.915167
0.922177
0.930983
0.932492
0.930112
0.92832
0.926941
0.926619
0.927055
0.929342
0.933975
0.93972
0.944552
0.946378
0.943187
0.935001
0.926046
0.922495
0.930333
0.953242
0.981308
0.994388
0.989297
0.976515
0.96782
0.969609
0.981832
0.999666
1.00741
1.00684
1.00442
1.00016
0.995071
0.992503
0.993775
0.997305
1.00294
1.01461
1.02276
1.02314
1.02239
1.02181
1.02181
1.02213
1.02263
1.02276
1.02246
1.02217
1.02238
1.02366
1.02609
1.02867
1.02958
1.02953
1.0293
1.02888
1.02813
1.02663
1.02333
1.01697
1.0104
1.00843
1.00831
1.00827
1.00825
1.00834
1.0091
1.01177
1.01893
1.03162
1.04085
1.0424
1.04247
1.04241
1.04159
1.03846
1.02985
1.01419
1.00225
1.00005
1
5.0993
4.50034
3.97766
3.48896
3.04008
2.69167
2.37543
2.11724
1.88072
1.70579
1.54656
1.3965
1.27381
1.1936
1.11543
1.01762
0.961799
0.918961
0.869393
0.83295
0.79985
0.759372
0.700525
0.673759
0.658106
0.636792
0.606289
0.597103
0.58915
0.571957
0.54821
0.533612
0.531505
0.53168
0.530967
0.539698
0.575023
0.626032
0.675984
0.732154
0.779918
0.822012
0.874675
0.889869
0.895203
0.913543
0.928125
0.940153
0.941162
0.947923
0.960662
0.966571
0.965938
0.963684
0.957899
0.943929
0.928945
0.926907
0.929523
0.935851
0.946387
0.958344
0.960949
0.958469
0.950985
0.936872
0.918998
0.906336
0.9004
0.896464
0.893454
0.891917
0.891775
0.890733
0.88772
0.878712
0.859238
0.844941
0.841559
0.839937
0.839169
0.840526
0.844583
0.849105
0.853918
0.858284
0.86134
0.863167
0.863648
0.864134
0.864667
0.865877
0.867717
0.869747
0.871665
0.873818
0.876369
0.879561
0.884177
0.891366
0.897773
0.899025
0.898908
0.899746
0.903051
0.903313
0.901966
0.903181
0.906655
0.910431
0.914275
0.918101
0.922773
0.927304
0.926379
0.923767
0.922343
0.921797
0.921783
0.923749
0.929092
0.937282
0.946056
0.951491
0.949658
0.9404
0.929081
0.921933
0.923373
0.941428
0.984321
1.00666
0.990522
0.975797
0.967508
0.963683
0.968073
0.983054
1.00075
1.00607
1.00509
1.00205
0.998024
0.994973
0.993524
0.994744
0.998287
1.00693
1.01979
1.02307
1.02219
1.02158
1.02172
1.02172
1.02175
1.02186
1.02157
1.02154
1.02217
1.0233
1.02494
1.02677
1.02866
1.02953
1.02945
1.02932
1.02903
1.02838
1.02699
1.02382
1.01743
1.01048
1.00828
1.00814
1.00811
1.00809
1.0082
1.00902
1.01198
1.01989
1.03327
1.0421
1.04338
1.04345
1.04335
1.04231
1.03844
1.02824
1.01163
1.00139
1.00002
1
5.22865
4.69977
4.21269
3.73466
3.33201
2.9836
2.66528
2.37047
2.14234
1.93746
1.75957
1.60498
1.46094
1.3663
1.27368
1.18367
1.12306
1.06629
0.978278
0.922798
0.886251
0.84775
0.795527
0.76982
0.750056
0.726221
0.696488
0.679502
0.661555
0.632099
0.586773
0.556106
0.551937
0.543176
0.536658
0.540469
0.550987
0.55445
0.556933
0.570393
0.602706
0.651099
0.718898
0.795397
0.851193
0.880814
0.911587
0.918437
0.912154
0.91921
0.941797
0.962393
0.966204
0.965992
0.961806
0.945785
0.923738
0.918058
0.920053
0.927172
0.943456
0.958619
0.960847
0.959378
0.952201
0.93442
0.912987
0.902855
0.899404
0.896742
0.895685
0.897403
0.897815
0.895672
0.889421
0.873584
0.851971
0.84155
0.838711
0.837159
0.83654
0.840017
0.850132
0.860354
0.865155
0.865861
0.864541
0.859793
0.855032
0.85482
0.855424
0.857135
0.860971
0.86602
0.870214
0.874272
0.879172
0.882303
0.885503
0.890593
0.897018
0.899191
0.899402
0.89999
0.902894
0.905001
0.905388
0.907734
0.911785
0.914244
0.916046
0.91884
0.921654
0.922526
0.921642
0.920784
0.920567
0.920809
0.922046
0.926315
0.934244
0.943976
0.952949
0.955931
0.949166
0.936995
0.92783
0.927128
0.936665
0.965445
1.00491
0.996351
0.979451
0.970973
0.967573
0.967379
0.973015
0.986056
0.999017
1.00182
1.0008
0.998372
0.995217
0.993429
0.993139
0.994625
1.0002
1.01213
1.02187
1.02304
1.02215
1.02097
1.0209
1.02108
1.02075
1.02035
1.02088
1.02203
1.02347
1.02483
1.02579
1.0268
1.02813
1.02926
1.02968
1.0297
1.02953
1.02894
1.02758
1.02437
1.01774
1.0104
1.008
1.00786
1.00783
1.00781
1.00798
1.009
1.01245
1.02133
1.03536
1.04351
1.0445
1.04457
1.0444
1.04302
1.03815
1.02601
1.00891
1.00076
1.00001
1
5.34927
4.86561
4.39452
3.9486
3.58289
3.23566
2.90797
2.61499
2.38598
2.1582
1.96626
1.79587
1.6713
1.54707
1.43438
1.32467
1.26132
1.19822
1.1148
1.04666
0.994336
0.935693
0.872551
0.853364
0.833525
0.806034
0.776418
0.759089
0.737291
0.700787
0.646764
0.613479
0.605747
0.595477
0.572257
0.562941
0.563543
0.560378
0.553208
0.550412
0.552216
0.560683
0.585695
0.637667
0.70349
0.754781
0.802767
0.85747
0.876128
0.888331
0.917704
0.947024
0.954085
0.95567
0.953511
0.941838
0.922762
0.915766
0.918256
0.925706
0.94263
0.954023
0.954196
0.952312
0.944983
0.930084
0.917106
0.912012
0.90851
0.9067
0.904428
0.901296
0.898591
0.893669
0.88242
0.864492
0.85027
0.843855
0.841123
0.839779
0.840041
0.845934
0.857121
0.863977
0.864621
0.862987
0.859795
0.853732
0.849234
0.850029
0.851564
0.85394
0.858992
0.865401
0.870213
0.873977
0.878977
0.88216
0.885023
0.89026
0.897726
0.900577
0.901019
0.902002
0.904926
0.906829
0.907679
0.910297
0.913285
0.913439
0.913452
0.915884
0.919272
0.920731
0.921236
0.922239
0.923683
0.925535
0.92845
0.933185
0.939803
0.947775
0.953924
0.952068
0.942786
0.934263
0.933652
0.941799
0.95517
0.973535
0.989532
0.985404
0.977985
0.975518
0.975508
0.977457
0.980613
0.98557
0.992645
0.997008
0.997199
0.996488
0.995649
0.994621
0.994666
0.997251
1.0048
1.01617
1.02237