/*--------------------------------*- C++ -*----------------------------------*\
  =========                 |
  \\      /  F ield         | OpenFOAM: The Open Source CFD Toolbox
   \\    /   O peration     | Website:  https://openfoam.org
    \\  /    A nd           | Version:  7
     \\/     M anipulation  |
\*---------------------------------------------------------------------------*/
FoamFile
{
    version     2.0;
    format      ascii;
    class       volScalarField;
    location    "0.6";
    object      T;
}
// * * * * * * * * * * * * * * * * * * * * * * * * * * * * * * * * * * * * * //

dimensions      [0 0 0 1 0 0 0];

internalField   nonuniform List<scalar> 
16128
(
1
1
1
1
1
1
1
1
1
1
1
1
1
1
1
1
1
1
1
1
1
1
1
1
1
1
1
1
1
1.88234
2.80281
2.82095
2.82497
2.84062
2.86159
2.87915
2.89009
2.90078
2.91431
2.93108
2.94663
2.96201
2.9963
3.06892
3.19138
3.33987
3.45226
3.49342
1
1
1
1
1
1
1
1
1
1
1
1
1
1
1
1
1
1
1
1
1
1
1
1
1
1
1
1
1
1.86772
2.79542
2.81953
2.82495
2.84089
2.86138
2.87858
2.88943
2.90033
2.9142
2.93102
2.94646
2.96213
2.99691
3.07029
3.1933
3.34124
3.45229
3.49286
1
1
1
1
1
1
1
1
1
1
1
1
1
1
1
1
1
1
1
1
1
1
1
1
1
1
1
1
1
1.83097
2.78079
2.81849
2.82329
2.83999
2.86033
2.87707
2.88795
2.89942
2.91396
2.93088
2.94618
2.96237
2.99803
3.07326
3.19784
3.3449
3.45308
3.49221
1
1
1
1
1
1
1
1
1
1
1
1
1
1
1
1
1
1
1
1
1
1
1
1
1
1
1
1
1
1.77883
2.75675
2.81652
2.82018
2.83777
2.8582
2.87436
2.8854
2.89779
2.91335
2.93029
2.94513
2.96162
2.99804
3.07493
3.20118
3.34795
3.45366
3.49139
1
1
1
1
1
1
1
1
1
1
1
1
1
1
1
1
1
1
1
1
1
1
1
1
1
1
1
1
1
1.70581
2.71903
2.81431
2.81689
2.83521
2.85554
2.87049
2.88166
2.89522
2.91197
2.9289
2.94294
2.95925
2.99604
3.07393
3.20145
3.34849
3.45287
3.48976
1
1
1
1
1
1
1
1
1
1
1
1
1
1
1
1
1
1
1
1
1
1
1
1
1
1
1
1
1
1.59678
2.66168
2.8132
2.81528
2.83326
2.85233
2.86534
2.87671
2.89162
2.90956
2.92643
2.93947
2.95509
2.99134
3.06956
3.19812
3.3458
3.44985
3.48658
1
1
1
1
1
1
1
1
1
1
1
1
1
1
1
1
1
1
1
1
1
1
1
1
1
1
1
1
1
1.43764
2.57879
2.81275
2.81563
2.83222
2.84847
2.85928
2.87079
2.8869
2.90566
2.92241
2.93463
2.94929
2.98406
3.06098
3.18933
3.3382
3.44378
3.48147
1
1
1
1
1
1
1
1
1
1
1
1
1
1
1
1
1
1
1
1
1
1
1
1
1
1
1
1
1
1.23536
2.47067
2.80971
2.81958
2.8323
2.84297
2.85215
2.86398
2.88115
2.90027
2.91675
2.92846
2.94213
2.97479
3.04871
3.17518
3.32525
3.43403
3.47373
1
1
1
1
1
1
1
1
1
1
1
1
1
1
1
1
1
1
1
1
1
1
1
1
1
1
1
1
1
1.03125
2.35293
2.81439
2.82359
2.82919
2.83515
2.84342
2.85662
2.87483
2.89383
2.90964
2.92077
2.93338
2.96351
3.03328
3.15647
3.30749
3.42054
3.46303
1
1
1
1
1
1
1
1
1
1
1
1
1
1
1
1
1
1
1
1
1
1
1
1
1
1
1
1
1
1.00019
2.2385
2.81634
2.82107
2.82144
2.82467
2.83332
2.84873
2.86802
2.88654
2.9013
2.91162
2.92308
2.95054
3.01552
3.13437
3.28559
3.403
3.44836
1
1
1
1
1
1
1
1
1
1
1
1
1
1
1
1
1
1
1
1
1
1
1
1
1
1
1
1
1
1
2.09553
2.8063
2.81105
2.80889
2.81228
2.82312
2.84112
2.86093
2.87824
2.89154
2.90088
2.91105
2.93544
2.99471
3.1081
3.25907
3.38138
3.43014
1
1
1
1
1
1
1
1
1
1
1
1
1
1
1
1
1
1
1
1
1
1
1
1
1
1
1
1
1
1
1.90596
2.76169
2.78814
2.79149
2.79871
2.81493
2.83504
2.85334
2.86788
2.87949
2.88825
2.89761
2.91912
2.97218
3.07876
3.228
3.35457
3.4058
1
1
1
1
1
1
1
1
1
1
1
1
1
1
1
1
1
1
1
1
1
1
1
1
1
1
1
1
1
1
1.64907
2.67053
2.76089
2.77263
2.78873
2.80915
2.82957
2.8446
2.85522
2.86481
2.8736
2.88284
2.90144
2.94673
3.04322
3.18856
3.31973
3.37596
1
1
1
1
1
1
1
1
1
1
1
1
1
1
1
1
1
1
1
1
1
1
1
1
1
1
1
1
1
1
1.35201
2.54004
2.75085
2.75998
2.77765
2.79804
2.81844
2.83164
2.84021
2.84833
2.85651
2.86581
2.88168
2.91937
3.00501
3.14439
3.27718
3.32948
1
1
1
1
1
1
1
1
1
1
1
1
1
1
1
1
1
1
1
1
1
1
1
1
1
1
1
1
1
1
1.08165
2.40111
2.74074
2.76271
2.77464
2.78822
2.80453
2.81537
2.82259
2.82988
2.83695
2.84645
2.85973
2.88887
2.95851
3.08199
3.21197
3.26884
1
1
1
1
1
1
1
1
1
1
1
1
1
1
1
1
1
1
1
1
1
1
1
1
1
1
1
1
1
1
1.00121
2.2265
2.73664
2.76025
2.76508
2.77187
2.78312
2.79275
2.8012
2.80914
2.81647
2.82502
2.83435
2.85319
2.90456
3.01131
3.14537
3.23125
1
1
1
1
1
1
1
1
1
1
1
1
1
1
1
1
1
1
1
1
1
1
1
1
1
1
1
1
1
1
1
1.94021
2.69403
2.74797
2.74582
2.74849
2.75677
2.76755
2.77887
2.78719
2.79517
2.80232
2.80729
2.81628
2.84688
2.9156
2.97122
2.94305
1
1
1
1
1
1
1
1
1
1
1
1
1
1
1
1
1
1
1
1
1
1
1
1
1
1
1
1
1
1
1
1.48795
2.57091
2.73698
2.73159
2.73112
2.73509
2.74324
2.75391
2.76318
2.77264
2.77892
2.77867
2.77664
2.7821
2.80194
2.82025
2.73086
1
1
1
1
1
1
1
1
1
1
1
1
1
1
1
1
1
1
1
1
1
1
1
1
1
1
1
1
1
1
1
1.07026
2.39116
2.70726
2.70999
2.71341
2.71836
2.72659
2.73636
2.74462
2.75073
2.75261
2.74774
2.73667
2.72164
2.71318
2.67986
2.56402
1
1
1
1
1
1
1
1
1
1
1
1
1
1
1
1
1
1
1
1
1
1
1
1
1
1
1
1
1
1
1
1.00071
2.11472
2.66765
2.70267
2.70158
2.70568
2.71343
2.72212
2.72815
2.72885
2.72581
2.71589
2.69841
2.67119
2.64024
2.57506
2.46772
1
1
1
1
1
1
1
1
1
1
1
1
1
1
1
1
1
1
1
1
1
1
1
1
1
1
1
1
1
1
1
1
1.66716
2.5769
2.69011
2.68397
2.6893
2.69763
2.70495
2.7092
2.70591
2.69785
2.68304
2.6608
2.62854
2.58096
2.50517
2.40852
1
1
1
1
1
1
1
1
1
1
1
1
1
1
1
1
1
1
1
1
1
1
1
1
1
1
1
1
1
1
1
1
1.13289
2.40092
2.66555
2.65895
2.66778
2.67687
2.68362
2.68666
2.68207
2.67029
2.65145
2.62556
2.59103
2.53649
2.46451
2.37931
1
1
1
1
1
1
1
1
1
1
1
1
1
1
1
1
1
1
1
1
1
1
1
1
1
1
1
1
1
1
1
1
1.00248
2.10388
2.61044
2.64692
2.65125
2.65606
2.66169
2.66239
2.65726
2.64317
2.62096
2.59391
2.55567
2.50238
2.43631
2.36024
1
1
1
1
1
1
1
1
1
1
1
1
1
1
1
1
1
1
1
1
1
1
1
1
1
1
1
1
1
1
1
1
1
1.5666
2.49761
2.62988
2.62662
2.62967
2.63311
2.63375
2.62957
2.61729
2.59424
2.56675
2.52673
2.47768
2.41877
2.35336
1
1
1
1
1
1
1
1
1
1
1
1
1
1
1
1
1
1
1
1
1
1
1
1
1
1
1
1
1
1
1
1
1
1.06256
2.30071
2.59408
2.60341
2.60488
2.6048
2.60479
2.60071
2.59072
2.57121
2.54329
2.50509
2.45977
2.40542
2.34661
1
1
1
1
1
1
1
1
1
1
1
1
1
1
1
1
1
1
1
1
1
1
1
1
1
1
1
1
1
1
1
1
1
1.00066
1.87394
2.52049
2.58882
2.58171
2.57906
2.5785
2.57283
2.56199
2.54548
2.52057
2.48721
2.4454
2.39682
2.34321
1
1
1
1
1
1
1
1
1
1
1
1
1
1
1
1
1
1
1
1
1
1
1
1
1
1
1
1
1
1
1
1
1
1
1.20183
2.34246
2.5632
2.55242
2.55481
2.55373
2.54685
2.53515
2.52106
2.50018
2.47145
2.43354
2.38951
2.33933
1
1
1
1
1
1
1
1
1
1
1
1
1
1
1
1
1
1
1
1
1
1
1
1
1
1
1
1
1
1
1
1
1
1
1.00635
2.00978
2.4855
2.5407
2.53673
2.53124
2.52256
2.51046
2.49661
2.47845
2.45325
2.42037
2.38207
2.33671
1
1
1
1
1
1
1
1
1
1
1
1
1
1
1
1
1
1
1
1
1
1
1
1
1
1
1
1
1
1
1
1
1
1
1.00001
1.33175
2.32759
2.52257
2.51665
2.51104
2.5
2.48707
2.47319
2.45604
2.43336
2.4047
2.37111
2.33133
1
1
1
1
1
1
1
1
1
1
1
1
1
1
1
1
1
1
1
1
1
1
1
1
1
1
1
1
1
1
1
1
1
1
1
1.01793
2.01989
2.4497
2.49487
2.48846
2.4785
2.46637
2.45132
2.43277
2.41063
2.38538
2.35683
2.32329
1
1
1
1
1
1
1
1
1
1
1
1
1
1
1
1
1
1
1
1
1
1
1
1
1
1
1
1
1
1
1
1
1
1
1
1.00006
1.33472
2.29415
2.47488
2.46594
2.45752
2.44513
2.42889
2.40924
2.38851
2.36667
2.34203
2.31322
1
1
1
1
1
1
1
1
1
1
1
1
1
1
1
1
1
1
1
1
1
1
1
1
1
1
1
1
1
1
1
1
1
1
1
1
1.0196
1.95884
2.39618
2.44352
2.43216
2.42167
2.40693
2.38928
2.37033
2.34981
2.32692
2.30147
1
1
1
1
1
1
1
1
1
1
1
1
1
1
1
1
1
1
1
1
1
1
1
1
1
1
1
1
1
1
1
1
1
1
1
1
1.00009
1.288
2.22364
2.4224
2.41035
2.39952
2.38493
2.36766
2.34976
2.33146
2.31156
2.28952
1
1
1
1
1
1
1
1
1
1
1
1
1
1
1
1
1
1
1
1
1
1
1
1
1
1
1
1
1
1
1
1
1
1
1
1
1
1.01386
1.77779
2.31484
2.38921
2.3755
2.36347
2.34888
2.33285
2.31604
2.29714
2.27597
1
1
1
1
1
1
1
1
1
1
1
1
1
1
1
1
1
1
1
1
1
1
1
1
1
1
1
1
1
1
1
1
1
1
1
1
1
1.00006
1.16294
2.09582
2.35722
2.34983
2.34008
2.32931
2.3157
2.29949
2.28083
2.26077
1
1
1
1
1
1
1
1
1
1
1
1
1
1
1
1
1
1
1
1
1
1
1
1
1
1
1
1
1
1
1
1
1
1
1
1
1
1
1.00409
1.51984
2.21421
2.33473
2.32117
2.31402
2.30234
2.28553
2.26518
2.24436
1
1
1
1
1
1
1
1
1
1
1
1
1
1
1
1
1
1
1
1
1
1
1
1
1
1
1
1
1
1
1
1
1
1
1
1
1
1
1.00001
1.05796
1.86331
2.25134
2.3015
2.28911
2.27948
2.26469
2.2474
2.2297
1
1
1
1
1
1
1
1
1
1
1
1
1
1
1
1
1
1
1
1
1
1
1
1
1
1
1
1
1
1
1
1
1
1
1
1
1
1
1
1.0007
1.25201
2.03509
2.27806
2.26713
2.25497
2.24188
2.22782
2.21301
1
1
1
1
1
1
1
1
1
1
1
1
1
1
1
1
1
1
1
1
1
1
1
1
1
1
1
1
1
1
1
1
1
1
1
1
1
1
1
1
1.01078
1.50887
2.13037
2.24944
2.23343
2.22494
2.21432
2.20053
1
1
1
1
1
1
1
1
1
1
1
1
1
1
1
1
1
1
1
1
1
1
1
1
1
1
1
1
1
1
1
1
1
1
1
1
1
1
1
1
1.00006
1.05915
1.73316
2.15593
2.2217
2.20289
2.19477
2.18456
1
1
1
1
1
1
1
1
1
1
1
1
1
1
1
1
1
1
1
1
1
1
1
1
1
1
1
1
1
1
1
1
1
1
1
1
1
1
1
1
1
1.00078
1.17195
1.88767
2.15501
2.19045
2.1752
2.16291
1
1
1
1
1
1
1
1
1
1
1
1
1
1
1
1
1
1
1
1
1
1
1
1
1
1
1
1
1
1
1
1
1
1
1
1
1
1
1
1
1
1
1.00531
1.33322
1.96389
2.15539
2.15514
2.14255
1
1
1
1
1
1
1
1
1
1
1
1
1
1
1
1
1
1
1
1
1
1
1
1
1
1
1
1
1
1
1
1
1
1
1
1
1
1
1
1
1
1
1.00002
1.02126
1.4791
2.00564
2.13417
2.12703
1
1
1
1
1
1
1
1
1
1
1
1
1
1
1
1
1
1
1
1
1
1
1
1
1
1
1
1
1
1
1
1
1
1
1
1
1
1
1
1
1
1
1
1.00017
1.05591
1.59117
2.02182
2.10912
1
1
1
1
1
1
1
1
1
1
1
1
1
1
1
1
1
1
1
1
1
1
1
1
1
1
1
1
1
1
1
1
1
1
1
1
1
1
1
1
1
1
1
1
1.00079
1.10634
1.66657
2.01931
1
1
1
1
1
1
1
1
1
1
1
1
1
1
1
1
1
1
1
1
1
1
1
1
1
1
1
1
1
1
1
1
1
1
1
1
1
1
1
1
1
1
1
1
1
1.00236
1.16103
1.71406
1
1
1
1
1
1
1
1
1
1
1
1
1
1
1
1
1
1
1
1
1
1
1
1
1
1
1
1
1
1
1
1
1
1
1
1
1
1
1
1
1
1
1
1
1
1.00001
1.00521
1.2109
1
1
1
1
1
1
1
1
1
1
1
1
1
1
1
1
1
1
1
1
1
1
1
1
1
1
1
1
1
1
1
1
1
1
1
1
1
1
1
1
1
1
1
1
1
1
1.00003
1.00909
1
1
1
1
1
1
1
1
1
1
1
1
1
1
1
1
1
1
1
1
1
1
1
1
1
1
1
1
1
1
1
1
1
1
1
1
1
1
1
1
1
1
1
1
1
1
1
1.00006
1
1
1
1
1
1
1
1
1
1
1
1
1
1
1
1
1
1
1
1
1
1
1
1
1
1
1
1
1
1
1
1
1
1
1
1
1
1
1
1
1
1
1
1
1
1
1
1
1
1
1
1
1
1
1
1
1
1
1
1
1
1
1
1
1
1
1
1
1
1
1
1
1
1
1
1
1
1
1
1
1
1
1
1
1
1
1
1
1
1
1
1
1
1
1
1
1
1
1
1
1
1
1
1
1
1
1
1
1
1
1
1
1
1
1
1
1
1
1
1
1
1
1
1
1
1
1
1
1
1
1
1
1
1
1
1
1
1
1
1
1
1
1
1
1
1
1
1
1
1
1
1
1
1
1
1
1
1
1
1
1
1
1
1
1
1
1
1
1
1
1
1
1
1
1
1
1
1
1
1
1
1
1
1
1
1
1
1
1
1
1
1
1
1
1
1
1
1
1
1
1
1
1
1
1
1
1
1
1
1
1
1
1
1
1
1
1
1
1
1
1
1
1
1
1
1
1
1
1
1
1
1
1
1
1
1
1
1
1
1
1
1
1
1
1
1
1
1
1
1
1
1
1
1
1
1
1
1
1
1
1
1
1
1
1
1
1
1
1
1
1
1
1
1
1
1
1
1
1
1
1
1
1
1
1
1
1
1
1
1
1
1
1
1
1
1
1
1
1
1
1
1
1
1
1
1
1
1
1
1
1
1
1
1
1
1
1
1
1
1
1
1
1
1
1
1
1
1
1
1
1
1
1
1
1
1
1
1
1
1
1
1
1
1
1
1
1
1
1
1
1
1
1
1
1
1
1
1
1
1
1
1
1
1
1
1
1
1
1
1
1
1
1
1
1
1
1
1
1
1
1
1
1
1
1
1
1
1
1
1
1
1
1
1
1
1
1
1
1
1
1
1
1
1
1
1
1
1
1
1
1
1
1
1
1
1
1
1
1
1
1
1
1
1
1
1
1
1
1
1
1
1
1
1
1
1
1
1
1
1
1
1
1
1
1
1
1
1
1
1
1
1
1
1
1
1
1
1
1
1
1
1
1
1
1
1
1
1
1
1
1
1
1
1
1
1
1
1
1
1
1
1
1
1
1
1
1
1
1
1
1
1
1
1
1
1
1
1
1
1
1
1
1
1
1
1
1
1
1
1
1
1
1
1
1
1
1
1
1
1
1
1
1
1
1
1
1
1
1
1
1
1
1
1
1
1
1
1
1
1
1
1
1
1
1
1
1
1
1
1
1
1
1
1
1
1
1
1
1
1
1
1
1
1
1
1
1
1
1
1
1
1
1
1
1
1
1
1
1
1
1
1
1
1
1
1
1
1
1
1
1
1
1
1
1
1
1
1
1
1
1
1
1
1
1
1
1
1
1
1
1
1
1
1
1
1
1
1
1
1
1
1
1
1
1
1
1
1
1
1
1
1
1
1
1
1
1
1
1
1
1
1
1
1
1
1
1
1
1
1
1
1
1
1
1
1
1
1
1
1
1
1
1
1
1
1
1
1
1
1
1
1
1
1
1
1
1
1
1
1
1
1
1
1
1
1
1
1
1
1
1
1
1
1
1
1
1
1
1
1
1
1
1
1
1
1
1
1
1
1
1
1
1
1
1
1
1
1
1
1
1
1
1
1
1
1
1
1
1
1
1
1
1
1
1
1
1
1
1
1
1
1
1
1
1
1
1
1
1
1
1
1
1
1
1
1
1
1
1
1
1
1
1
1
1
1
1
1
1
1
1
1
1
1
1
1
1
1
1
1
1
1
1
1
1
1
1
1
1
1
1
1
1
1
1
1
1
1
1
1
1
1
1
1
1
1
1
1
1
1
1
1
1
1
1
1
1
1
1
1
1
1
1
1
1
1
1
1
1
1
1
1
1
1
1
1
1
1
1
1
1
1
1
1
1
1
1
1
1
1
1
1
1
1
1
1
1
1
1
1
1
1
1
1
1
1
1
1
1
1
1
1
1
1
1
1
1
1
1
1
1
1
1
1
1
1
1
1
1
1
1
1
1
1
1
1
1
1
1
1
1
1
1
1
1
1
1
1
1
1
1
1
1
1
1
1
1
1
1
1
1
1
1
1
1
1
1
1
1
1
1
1
1
1
1
1
1
1
1
1
1
1
1
1
1
1
1
1
1
1
1
1
1
1
1
1
1
1
1
1
1
1
1
1
1
1
1
1
1
1
1
1
1
1
1
1
1
1
1
1
1
1
1
1
1
1
1
1
1
1
1
1
1
1
1
1
1
1
1
1
1
1
1
1
1
1
1
1
1
1
1
1
1
1
1
1
1
1
1
1
1
1
1
1
1
1
1
1
1
1
1
1
1
1
1
1
1
1
1
1
1
1
1
1
1
1
1
1
1
1
1
1
1
1
1
1
1
1
1
1
1
1
1
1
1
1
1
1
1
1
1
1
1
1
1
1
1
1
1
1
1
1
1
1
1
1
1
1
1
1
1
1
1
1
1
1
1
1
1
1
1
1
1
1
1
1
1
1
1
1
1
1
1
1
1
1
1
1
1
1
1
1
1
1
1
1
1
1
1
1
1
1
1
1
1
1
1
1
1
1
1
1
1
1
1
1
1
1
1
1
1
1
1
1
1
1
1
1
1
1
1
1
1
1
1
1
1
1
1
1
1
1
1
1
1
1
1
1
1
1
1
1
1
1
1
1
1
1
1
1
1
1
1
1
1
1
1
1
1
1
1
1
1
1
1
1
1
1
1
1
1
1
1
1
1
1
1
1
1
1
1
1
1
1
1
1
1
1
1
1
1
1
1
1
1
1
1
1
1
1
1
1
1
1
1
1
1
1
1
1
1
1
1
1
1
1
1
1
1
1
1
1
1
1
1
1
1
1
1
1
1
1
1
1
1
1
1
1
1
1
1
1
1
1
1
1
1
1
1
1
1
1
1
1
1
1
1
1
1
1
1
1
1
1
1
1
1
1
1
1
1
1
1
1
1
1
1
1
1
1
1
1
1
1
1
1
1
1
1
1
1
1
1
1
1
1
1
1
1
1
1
1
1
1
1
1
1
1
1
1
1
1
1
1
1
1
1
1
1
1
1
1
1
1
1
1
1
1
1
1
1
1
1
1
1
1
1
1
1
1
1
1
1
1
1
1
1
1
1
1
1
1
1
1
1
1
1
1
1
1
1
1
1
1
1
1
1
1
1
1
1
1
1
1
1
1
1
1
1
1
1
1
1
1
1
1
1
1
1
1
1
1
1
1
1
1
1
1
1
1
1
1
1
1
1
1
1
1
1
1
1
1
1
1
1
1
1
1
1
1
1
1
1
1
1
1
1
1
1
1
1
1
1
1
1
1
1
1
1
1
1
1
1
1
1
1
1
1
1.95357
1.26378
0.886868
0.905983
1.21597
1.28637
1.34048
1.3904
1.46206
1.56048
1.68155
1.78739
1.8866
1.9187
1.91436
1.89255
1.8936
1.94111
2.04056
2.0653
2.04474
1.98698
1.96875
1.97617
2.00366
2.03637
2.04072
2.03564
2.00477
1.97306
1.97139
1.98395
2.00275
2.00484
2.0022
1.99096
1.97075
1.95634
1.94947
1.94912
1.95055
1.95457
1.96101
1.96354
1.96267
1.96178
1.9612
1.96106
1.96193
1.96171
1.96077
1.95997
1.95838
1.95575
1.95257
1.94899
1.94696
1.94601
1.94602
1.94826
1.94762
1.94378
1.93558
1.92279
1.91072
1.90276
1.89897
1.89991
1.90199
1.89893
1.89419
1.8871
1.87601
1.86837
1.86584
1.8651
1.86665
1.86879
1.86936
1.87036
1.86885
1.86037
1.85233
1.851
1.85313
1.85867
1.86737
1.87899
1.88915
1.89272
1.89306
1.89243
1.88512
1.87256
1.86525
1.86469
1.86476
1.86564
1.87038
1.87886
1.88393
1.88405
1.88294
1.87966
1.87267
1.86433
1.85739
1.85078
1.84619
1.84474
1.84538
1.84636
1.84461
1.83696
1.8219
1.79632
1.75645
1.7083
1.67721
1.67248
1.67228
1.67036
1.66623
1.66206
1.6555
1.64263
1.62076
1.58795
1.54266
1.4843
1.40734
1.3033
1.17109
1.04983
0.994808
0.983369
0.980915
0.980807
0.980969
0.98241
0.98833
0.992741
0.993921
0.995319
0.996871
0.998471
0.999502
1.00024
1.00128
1.00303
1.00585
1.00754
1.0077
1.00754
1.00736
1.00729
1.00716
1.00674
1.00633
1.00616
1.00627
1.00706
1.00818
1.0084
1.00832
1.00823
1.00814
1.00795
1.00739
1.00599
1.00385
1.00268
1.00254
1.00253
1.00252
1.00252
1.00253
1.00268
1.00321
1.00472
1.00772
1.01035
1.01092
1.01094
1.01095
1.01086
1.01045
1.00927
1.00643
1.00231
1.00022
1
2.237
1.90996
1.67396
1.34021
1.31809
1.32908
1.30946
1.25849
1.25769
1.29084
1.35006
1.4113
1.44739
1.48794
1.54444
1.59488
1.63734
1.69262
1.76927
1.83833
1.85355
1.84993
1.85356
1.86353
1.88848
1.92053
1.94228
1.94042
1.92198
1.90894
1.90981
1.92265
1.93804
1.93948
1.93673
1.93135
1.92123
1.91648
1.91634
1.91674
1.91844
1.92259
1.92728
1.92823
1.92768
1.92788
1.92944
1.931
1.93249
1.93346
1.93378
1.93444
1.93505
1.93478
1.93357
1.9309
1.9251
1.91883
1.9173
1.9177
1.92053
1.92097
1.91886
1.91418
1.90487
1.89351
1.88506
1.87938
1.87831
1.87816
1.87588
1.87361
1.86982
1.86291
1.85458
1.84972
1.84882
1.84918
1.85162
1.85318
1.85385
1.85319
1.85143
1.85052
1.85056
1.85282
1.85883
1.86662
1.87304
1.8747
1.87573
1.87624
1.87421
1.86941
1.86552
1.8618
1.86032
1.86093
1.86324
1.86768
1.87216
1.87435
1.87421
1.87274
1.86928
1.86321
1.8557
1.849
1.8432
1.83887
1.83669
1.8352
1.8321
1.8258
1.81409
1.79278
1.75748
1.71418
1.68139
1.66928
1.66523
1.66243
1.65995
1.65692
1.65142
1.64005
1.61927
1.58663
1.54097
1.47962
1.40061
1.29954
1.17261
1.04965
0.992031
0.981787
0.979615
0.979457
0.979581
0.980915
0.986327
0.990803
0.99224
0.993709
0.995251
0.996797
0.998247
0.999358
1.00048
1.00221
1.00476
1.00663
1.0072
1.00719
1.00703
1.00691
1.0068
1.00653
1.00617
1.00601
1.00608
1.00669
1.0078
1.00819
1.00814
1.00806
1.008
1.00785
1.00733
1.00596
1.00382
1.00263
1.00249
1.00248
1.00248
1.00247
1.00249
1.00263
1.00319
1.00476
1.00781
1.01042
1.01097
1.01099
1.01098
1.01089
1.01053
1.00933
1.00636
1.00221
1.00019
1
2.28853
2.06101
1.88678
1.73548
1.60891
1.5115
1.41859
1.34754
1.32578
1.31479
1.29822
1.30102
1.31169
1.33235
1.3611
1.38455
1.41161
1.44665
1.49071
1.54594
1.59482
1.64
1.6765
1.69833
1.72079
1.74544
1.7701
1.78589
1.7945
1.7985
1.80289
1.81953
1.82974
1.82848
1.82231
1.82019
1.82173
1.82369
1.82646
1.82796
1.8316
1.83942
1.84578
1.84846
1.85009
1.85192
1.85478
1.85704
1.85767
1.85815
1.85888
1.8604
1.86305
1.8663
1.86937
1.87112
1.87103
1.86781
1.86088
1.8551
1.85421
1.85512
1.85816
1.85995
1.85835
1.85384
1.84703
1.8375
1.82814
1.82409
1.82381
1.82509
1.8258
1.82511
1.82306
1.81903
1.81331
1.8081
1.80547
1.80484
1.8062
1.81067
1.81521
1.81932
1.82427
1.83096
1.83643
1.83806
1.83734
1.83511
1.83319
1.83377
1.83546
1.83623
1.83655
1.83684
1.83811
1.84026
1.84179
1.84184
1.8411
1.8405
1.84037
1.84045
1.84057
1.84013
1.83806
1.83514
1.83152
1.82623
1.81917
1.81182
1.80479
1.79828
1.78874
1.77254
1.7474
1.71466
1.68442
1.66494
1.65028
1.64059
1.63574
1.63212
1.62707
1.618
1.60095
1.57175
1.52816
1.47045
1.39726
1.30315
1.1883
1.07081
0.998657
0.981665
0.980866
0.980939
0.981524
0.984556
0.989879
0.991765
0.992996
0.99463
0.996327
0.99788
0.999294
1.0005
1.00173
1.00351
1.00571
1.00706
1.00748
1.00753
1.00748
1.00736
1.00711
1.00672
1.00637
1.00621
1.00627
1.00684
1.00793
1.0083
1.00825
1.00819
1.00814
1.00799
1.00751
1.00616
1.00397
1.00268
1.00252
1.00251
1.0025
1.00249
1.00251
1.00265
1.00322
1.0048
1.00787
1.01047
1.01103
1.01104
1.01105
1.01097
1.01055
1.00926
1.00619
1.00205
1.00016
1
2.28094
2.12753
1.97305
1.86471
1.79051
1.6933
1.60138
1.53137
1.46905
1.43414
1.40379
1.37727
1.37279
1.36232
1.33321
1.32543
1.32864
1.33761
1.35201
1.37476
1.40991
1.45829
1.51087
1.54232
1.55819
1.57304
1.59045
1.6146
1.64828
1.66962
1.68102
1.70289
1.71976
1.71888
1.71735
1.71755
1.72203
1.72648
1.72672
1.72656
1.73009
1.73803
1.74466
1.74964
1.75383
1.75761
1.76244
1.76762
1.7687
1.7679
1.76707
1.76775
1.77017
1.77411
1.77827
1.78097
1.78235
1.78258
1.78106
1.77659
1.77471
1.77579
1.77739
1.77911
1.77938
1.77775
1.7746
1.76962
1.76344
1.75806
1.75506
1.75422
1.75484
1.75621
1.75651
1.75534
1.75276
1.7503
1.74781
1.7462
1.74647
1.74842
1.7521
1.7572
1.76377
1.77099
1.77659
1.78133
1.78401
1.78406
1.78236
1.78272
1.78461
1.78456
1.78429
1.78468
1.78634
1.78855
1.79078
1.79241
1.79253
1.79243
1.79186
1.79054
1.79046
1.79235
1.79337
1.79323
1.79151
1.78659
1.78087
1.77549
1.76911
1.76192
1.75417
1.74395
1.72866
1.70621
1.68044
1.65736
1.63521
1.61495
1.6012
1.59224
1.58437
1.57443
1.55818
1.53054
1.48897
1.43602
1.37372
1.29667
1.19971
1.09531
1.01506
0.984618
0.979988
0.979364
0.980692
0.98616
0.990335
0.991219
0.992409
0.994054
0.995961
0.997974
0.999885
1.00147
1.00274
1.00437
1.00619
1.00718
1.00736
1.00737
1.0075
1.00749
1.00711
1.00663
1.00629
1.00614
1.00622
1.00684
1.00794
1.00831
1.00827
1.00823
1.00819
1.00804
1.00756
1.00627
1.00412
1.00271
1.00251
1.00249
1.00248
1.00247
1.00249
1.00265
1.00325
1.00489
1.00801
1.01061
1.01114
1.01116
1.01117
1.01106
1.0106
1.00919
1.00596
1.00183
1.00013
1
2.2708
2.16012
2.04972
1.94722
1.86731
1.78099
1.70454
1.65156
1.59613
1.5497
1.51302
1.46219
1.43246
1.41707
1.3847
1.35874
1.35524
1.34577
1.33958
1.34842
1.35096
1.34904
1.35634
1.37792
1.40357
1.43285
1.46364
1.49817
1.5389
1.56705
1.58103
1.59513
1.60984
1.61896
1.62545
1.63095
1.64413
1.65911
1.66191
1.6644
1.66717
1.67091
1.67321
1.67365
1.67448
1.6778
1.68481
1.69183
1.69469
1.6947
1.69302
1.69177
1.69257
1.6952
1.69785
1.70022
1.70195
1.70344
1.70441
1.703
1.69978
1.69996
1.70101
1.70201
1.70217
1.70085
1.69925
1.69696
1.69343
1.68927
1.68675
1.68636
1.68672
1.6869
1.68617
1.68363
1.6807
1.67891
1.67824
1.67865
1.68064
1.68385
1.68743
1.69086
1.6938
1.69665
1.69993
1.70341
1.70703
1.71161
1.71506
1.71839
1.72207
1.7236
1.72354
1.72327
1.72283
1.7232
1.72486
1.72752
1.72807
1.72779
1.7276
1.72802
1.72992
1.73206
1.73239
1.73241
1.7305
1.72497
1.71885
1.71344
1.70767
1.70194
1.69826
1.69553
1.69123
1.68172
1.66459
1.64172
1.61604
1.58971
1.56705
1.54955
1.53484
1.51931
1.4988
1.46922
1.42876
1.37918
1.32466
1.26606
1.19514
1.10943
1.02991
0.98774
0.97952
0.979366
0.981805
0.9879
0.990502
0.9913
0.992375
0.99331
0.994631
0.997145
0.999993
1.00209
1.00335
1.00514
1.00671
1.00723
1.00723
1.00723
1.0074
1.00739
1.007
1.0065
1.00618
1.00604
1.00609
1.00671
1.00786
1.00827
1.00825
1.00822
1.00819
1.00806
1.00759
1.00639
1.0043
1.00276
1.00249
1.00247
1.00246
1.00245
1.00247
1.00264
1.00325
1.00495
1.00815
1.01077
1.0113
1.01132
1.01132
1.01119
1.01066
1.00909
1.00563
1.00156
1.00009
1
2.27426
2.179
2.08496
2.00155
1.92352
1.85066
1.77936
1.7319
1.67618
1.62691
1.59352
1.55548
1.51402
1.49026
1.45319
1.41184
1.39912
1.38772
1.36476
1.35521
1.34755
1.3304
1.32759
1.32919
1.33327
1.33838
1.34996
1.37572
1.4134
1.45681
1.48631
1.5016
1.51624
1.54007
1.55806
1.56837
1.58155
1.59809
1.60879
1.61139
1.61498
1.61947
1.6228
1.62436
1.62633
1.63057
1.63665
1.64044
1.64251
1.64364
1.64282
1.63969
1.63857
1.63986
1.64284
1.64589
1.64849
1.64973
1.65
1.64879
1.64434
1.64199
1.64192
1.64172
1.64249
1.64203
1.64161
1.64142
1.64028
1.6366
1.63296
1.63144
1.63037
1.62866
1.62575
1.62197
1.61971
1.61945
1.62032
1.62226
1.62434
1.62623
1.62769
1.6285
1.62889
1.62947
1.63102
1.6346
1.64039
1.64704
1.65292
1.65728
1.66049
1.66129
1.66113
1.66053
1.65902
1.65851
1.65962
1.6629
1.66338
1.66251
1.6608
1.65996
1.66027
1.66131
1.66332
1.66478
1.66393
1.66021
1.65478
1.64899
1.64331
1.63764
1.6343
1.63401
1.63378
1.63141
1.62419
1.6106
1.59015
1.56421
1.53667
1.51075
1.48644
1.4614
1.43198
1.39488
1.35009
1.30134
1.25271
1.20619
1.15788
1.09974
1.03654
0.993679
0.982451
0.982062
0.984972
0.98972
0.990763
0.991283
0.991998
0.992675
0.993539
0.995918
0.999316
1.00187
1.0041
1.00648
1.00757
1.00744
1.00696
1.00682
1.00695
1.00705
1.00681
1.00638
1.00615
1.0061
1.00622
1.00687
1.00791
1.00827
1.00826
1.00825
1.00824
1.0081
1.00764
1.0065
1.00448
1.00282
1.00247
1.00245
1.00244
1.00243
1.00245
1.00262
1.00326
1.00503
1.00833
1.01097
1.01148
1.0115
1.01149
1.01134
1.01073
1.00897
1.00522
1.00126
1.00006
1
2.27624
2.19207
2.11291
2.03823
1.96833
1.89781
1.8419
1.78994
1.73707
1.68515
1.65273
1.60904
1.56426
1.53467
1.51058
1.47462
1.45138
1.43161
1.40274
1.38681
1.37748
1.36029
1.33451
1.33306
1.33249
1.3286
1.33035
1.3341
1.34052
1.34874
1.3658
1.38534
1.40518
1.43198
1.4682
1.50014
1.52014
1.54314
1.56283
1.56868
1.57581
1.58302
1.58527
1.58586
1.59045
1.59948
1.60751
1.60865
1.60796
1.6086
1.60917
1.60809
1.60687
1.607
1.6094
1.61165
1.61205
1.61201
1.61132
1.61025
1.60855
1.60669
1.60576
1.60516
1.60523
1.60508
1.60474
1.60448
1.60227
1.59765
1.5937
1.59128
1.58909
1.58649
1.58373
1.58158
1.58017
1.5795
1.57932
1.57959
1.5801
1.58017
1.57959
1.57833
1.57728
1.57725
1.5789
1.58395
1.59206
1.60072
1.60578
1.60834
1.60967
1.60877
1.60634
1.60468
1.60218
1.60075
1.60169
1.60587
1.60748
1.6066
1.6044
1.60141
1.5981
1.59639
1.59666
1.59755
1.59679
1.5944
1.59133
1.58761
1.58341
1.57913
1.57502
1.57202
1.57033
1.56855
1.56625
1.56118
1.55041
1.53226
1.50761
1.47879
1.44741
1.41289
1.37285
1.32615
1.27511
1.22431
1.17837
1.13928
1.10465
1.06871
1.02793
0.996441
0.986305
0.985805
0.988297
0.991356
0.991484
0.991534
0.991817
0.992083
0.992707
0.995178
0.99912
1.0024
1.00533
1.00766
1.00818
1.00792
1.00734
1.00697
1.00681
1.0067
1.00649
1.00616
1.00605
1.00604
1.00622
1.00695
1.00789
1.00817
1.00817
1.00818
1.00817
1.00805
1.00763
1.00659
1.00466
1.00289
1.00244
1.00241
1.0024
1.00239
1.00241
1.00261
1.00332
1.0052
1.0086
1.01121
1.01169
1.01171
1.0117
1.01151
1.01079
1.00876
1.00469
1.00094
1.00003
1
2.27799
2.20188
2.13462
2.06769
1.99923
1.93793
1.88524
1.83133
1.77814
1.73753
1.70238
1.65853
1.60608
1.57534
1.54764
1.51967
1.50087
1.48412
1.45783
1.43461
1.41816
1.39757
1.3661
1.35569
1.35009
1.33917
1.32657
1.32712
1.32968
1.32777
1.3195
1.31163
1.31237
1.31973
1.34288
1.38596
1.4318
1.47045
1.50532
1.52364
1.53672
1.549
1.55398
1.55218
1.55588
1.56649
1.57463
1.58079
1.58383
1.58484
1.58592
1.58611
1.58624
1.58659
1.58615
1.58401
1.5815
1.58057
1.58058
1.58133
1.58323
1.58558
1.58579
1.58451
1.58259
1.58055
1.5776
1.57319
1.56874
1.56546
1.56338
1.56195
1.56075
1.55992
1.55888
1.55659
1.55161
1.54594
1.54413
1.5437
1.5437
1.54364
1.54312
1.54305
1.54319
1.54404
1.54749
1.55337
1.5597
1.56312
1.56427
1.56509
1.56502
1.5635
1.56187
1.55911
1.55564
1.55442
1.55543
1.55934
1.56108
1.56023
1.55776
1.5542
1.55009
1.54521
1.54245
1.54175
1.54058
1.53861
1.53633
1.53351
1.53036
1.52703
1.52121
1.51488
1.51095
1.50848
1.50662
1.50395
1.4992
1.49008
1.47371
1.44843
1.41449
1.37272
1.32439
1.27183
1.21777
1.16586
1.12183
1.08844
1.06125
1.03562
1.01178
0.995328
0.98949
0.989248
0.991625
0.993472
0.993119
0.992251
0.991647
0.99144
0.991938
0.994408
0.998497
1.00288
1.00685
1.00847
1.00844
1.00795
1.00737
1.0069
1.00648
1.00626
1.00613
1.00594
1.00583
1.00589
1.0063
1.00713
1.00799
1.00831
1.00831
1.00831
1.00828
1.00814
1.0077
1.00669
1.00482
1.00296
1.0024
1.00237
1.00235
1.00235
1.00237
1.00259
1.00335
1.00538
1.00895
1.01151
1.01194
1.01196
1.01194
1.01171
1.01085
1.00845
1.00406
1.00065
1.00002
1
2.27836
2.21311
2.15257
2.09053
2.02626
1.97232
1.91647
1.86737
1.81658
1.77651
1.73403
1.68827
1.64821
1.62194
1.5951
1.55712
1.53377
1.51391
1.48987
1.47219
1.45596
1.43584
1.40479
1.39096
1.38249
1.37011
1.35133
1.34548
1.34014
1.32893
1.31316
1.30269
1.29974
1.29942
1.29892
1.30513
1.32953
1.36367
1.39672
1.43239
1.46042
1.48328
1.51036
1.52148
1.52655
1.53668
1.54364
1.55061
1.55403
1.56045
1.5684
1.57108
1.57096
1.57083
1.5698
1.56444
1.55644
1.55466
1.55505
1.55698
1.56232
1.56911
1.57072
1.56982
1.56674
1.56018
1.55142
1.5453
1.54263
1.541
1.54036
1.54046
1.54116
1.54118
1.54007
1.53541
1.52511
1.51761
1.51575
1.51475
1.51417
1.51461
1.51625
1.51837
1.52107
1.52397
1.52619
1.52728
1.52731
1.52709
1.52656
1.52649
1.52644
1.52595
1.52451
1.52156
1.51827
1.51742
1.51818
1.52057
1.52168
1.52089
1.51846
1.51479
1.51065
1.50501
1.4996
1.49661
1.49463
1.49231
1.48963
1.48656
1.48332
1.47951
1.47301
1.46581
1.46029
1.45605
1.45246
1.44963
1.44695
1.4422
1.43148
1.41061
1.37759
1.33387
1.28382
1.23115
1.17755
1.12709
1.08811
1.057
1.02974
1.01156
1.00067
0.994044
0.991909
0.99245
0.99505
0.995835
0.994936
0.993193
0.992379
0.992354
0.992852
0.994963
0.998767
1.00387
1.00776
1.00844
1.00815
1.00769
1.00732
1.00677
1.00627
1.00599
1.00574
1.00568
1.00579
1.00611
1.0067
1.00738
1.00804
1.00833
1.00833
1.00833
1.00832
1.00819
1.00779
1.00683
1.00496
1.00298
1.00236
1.00232
1.00231
1.0023
1.00233
1.00257
1.00341
1.00566
1.00941
1.01186
1.01221
1.01223
1.0122
1.01191
1.01084
1.00801
1.00333
1.0004
1.00001
1
2.28014
2.22297
2.1668
2.10615
2.05125
1.99958
1.94821
1.89556
1.8517
1.80752
1.7644
1.72432
1.68446
1.65789
1.62878
1.59785
1.57635
1.55506
1.51804
1.49452
1.47931
1.46297
1.43915
1.42818
1.41908
1.40713
1.39121
1.38192
1.37143
1.35327
1.3242
1.30275
1.2996
1.29333
1.29042
1.29367
1.30227
1.30576
1.30833
1.31939
1.34271
1.37438
1.41527
1.45901
1.48978
1.50412
1.51677
1.52209
1.52182
1.52913
1.54439
1.55487
1.55658
1.5566
1.5552
1.54846
1.53764
1.53402
1.53429
1.5365
1.54414
1.55215
1.55352
1.55304
1.54992
1.54147
1.53087
1.52565
1.52387
1.5227
1.5224
1.52355
1.52399
1.52324
1.52019
1.51167
1.50005
1.49443
1.4927
1.49153
1.49085
1.49191
1.49592
1.50039
1.50255
1.50281
1.50194
1.49878
1.49537
1.4946
1.49373
1.49316
1.49323
1.49312
1.49209
1.48955
1.48673
1.48498
1.48503
1.486
1.48703
1.48653
1.48445
1.48078
1.47637
1.47072
1.4645
1.45989
1.45629
1.45203
1.44755
1.4438
1.44038
1.43615
1.43056
1.42449
1.41855
1.41267
1.40709
1.40269
1.399
1.3938
1.38373
1.36438
1.33293
1.2916
1.24539
1.197
1.14713
1.10086
1.06375
1.03155
1.01151
1.00229
0.997725
0.995133
0.994486
0.995233
0.997041
0.997152
0.996095
0.99437
0.99344
0.993383
0.993781
0.995426
0.999324
1.00464
1.00778
1.00814
1.00794
1.0074
1.00698
1.00655
1.00606
1.00569
1.00568
1.00582
1.00619
1.00666
1.00703
1.00742
1.0079
1.00828
1.00843
1.00845
1.00843
1.0083
1.00792
1.00697
1.00505
1.00296
1.00228
1.00224
1.00223
1.00223
1.00227
1.00256
1.00355
1.00606
1.01
1.01225
1.01252
1.01254
1.01249
1.01211
1.01076
1.00738
1.00256
1.00022
1
1
2.28292
2.23103
2.17661
2.12087
2.07288
2.02353
1.97298
1.92334
1.88205
1.83572
1.79421
1.75444
1.7251
1.69246
1.66015
1.62583
1.60623
1.58528
1.55517
1.53064
1.51171
1.48878
1.46199
1.45556
1.44755
1.43495
1.42061
1.4123
1.40094
1.38042
1.34804
1.32752
1.32339
1.31777
1.30327
1.29877
1.3003
1.2992
1.29656
1.29677
1.29862
1.30505
1.32208
1.35647
1.39754
1.42659
1.45132
1.47878
1.4915
1.50084
1.51804
1.53297
1.53654
1.53757
1.53687
1.53182
1.5221
1.51777
1.51846
1.52129
1.52942
1.53532
1.53558
1.5349
1.53118
1.52341
1.51664
1.5137
1.51171
1.51059
1.50916
1.5075
1.50626
1.50387
1.49764
1.48746
1.47927
1.4754
1.47357
1.47242
1.47211
1.47382
1.47786
1.47988
1.47949
1.47755
1.47489
1.47044
1.46646
1.46602
1.46518
1.46421
1.46407
1.46385
1.46239
1.45907
1.4562
1.45416
1.45366
1.45424
1.45551
1.45513
1.45298
1.44914
1.44436
1.43818
1.43139
1.42559
1.42004
1.41337
1.40708
1.40277
1.3996
1.39604
1.39175
1.38698
1.38151
1.3752
1.36833
1.36137
1.35412
1.34536
1.33237
1.31137
1.28127
1.24547
1.20687
1.16518
1.11975
1.07497
1.03905
1.0159
1.00517
1.00106
0.999001
0.997763
0.996771
0.996471
0.996912
0.99736
0.996987
0.996122
0.995481
0.995252
0.99543
0.996856
1.00042
1.00509
1.00744
1.00763
1.00756
1.00711
1.00644
1.006
1.00575
1.00573
1.00585
1.00634
1.00685
1.00704
1.00714
1.00726
1.00757
1.0081
1.00849
1.00857
1.00856
1.00844
1.00808
1.00711
1.00511
1.00293
1.00222
1.00217
1.00216
1.00215
1.0022
1.00255
1.00373
1.00661
1.01069
1.01266
1.01285
1.01287
1.01279
1.01228
1.01055
1.00656
1.0018
1.0001
1
1
2.28669
2.2375
2.18459
2.13542
2.09045
2.04357
1.9919
1.9507
1.90867
1.86653
1.8209
1.78741
1.7556
1.72073
1.68826
1.66149
1.63866
1.61081
1.57601
1.55556
1.54189
1.5225
1.4974
1.48752
1.47629
1.46013
1.44358
1.4364
1.42414
1.40188
1.37034
1.35513
1.35337
1.34891
1.33585
1.3247
1.32087
1.31485
1.30182
1.29388
1.2942
1.2976
1.29729
1.30015
1.31013
1.32894
1.35009
1.38034
1.42098
1.45146
1.47803
1.50211
1.50783
1.51114
1.51368
1.51191
1.50519
1.50416
1.50613
1.51063
1.51731
1.5184
1.51735
1.5148
1.5101
1.50581
1.50374
1.50276
1.50303
1.50179
1.49763
1.49308
1.48831
1.48127
1.47181
1.4654
1.46217
1.4594
1.45717
1.45634
1.45668
1.45735
1.45724
1.45565
1.45311
1.45032
1.44767
1.44445
1.44102
1.43985
1.43921
1.43839
1.43765
1.43634
1.43312
1.42841
1.42598
1.42492
1.42463
1.4252
1.42613
1.4252
1.42191
1.4175
1.41244
1.40526
1.39761
1.39096
1.3839
1.37563
1.36843
1.36398
1.36124
1.35852
1.35505
1.3508
1.34534
1.33815
1.32953
1.32
1.30963
1.2974
1.28067
1.25769
1.23019
1.20074
1.16908
1.13275
1.0907
1.04913
1.02099
1.00867
1.00384
1.00163
1.00027