/*--------------------------------*- C++ -*----------------------------------*\
  =========                 |
  \\      /  F ield         | OpenFOAM: The Open Source CFD Toolbox
   \\    /   O peration     | Website:  https://openfoam.org
    \\  /    A nd           | Version:  7
     \\/     M anipulation  |
\*---------------------------------------------------------------------------*/
FoamFile
{
    version     2.0;
    format      ascii;
    class       volScalarField;
    location    "1.1";
    object      p;
}
// * * * * * * * * * * * * * * * * * * * * * * * * * * * * * * * * * * * * * //

dimensions      [1 -1 -2 0 0 0 0];

internalField   nonuniform List<scalar> 
4032
(
1
1
1
1
1
1
1
1
1
1
1
1
1
6.18087
10.8329
11.045
11.2359
11.4236
11.5999
11.7594
11.898
11.9876
12.0674
12.1178
1
1
1
1
1
1
1
1
1
1
1
1
1
5.99577
10.7553
11.0066
11.1961
11.3868
11.5572
11.7073
11.8358
11.9203
11.9991
12.0531
1
1
1
1
1
1
1
1
1
1
1
1
1
5.61032
10.6519
10.9419
11.1375
11.3336
11.496
11.6356
11.753
11.8319
11.9051
11.9625
1
1
1
1
1
1
1
1
1
1
1
1
1
5.04714
10.4831
10.8593
11.0557
11.2578
11.4123
11.5404
11.6446
11.7167
11.7744
11.8226
1
1
1
1
1
1
1
1
1
1
1
1
1
4.32388
10.2162
10.7634
10.9521
11.1509
11.2878
11.3945
11.4704
11.5384
11.5839
11.6537
1
1
1
1
1
1
1
1
1
1
1
1
1
3.53166
9.81906
10.6724
10.8511
11.0296
11.1408
11.2275
11.2952
11.3706
11.3885
11.3705
1
1
1
1
1
1
1
1
1
1
1
1
1
2.65398
9.16339
10.5368
10.6982
10.8506
10.94
11.001
11.0239
11.0164
10.9681
10.9295
1
1
1
1
1
1
1
1
1
1
1
1
1
1.75684
8.24149
10.4525
10.5069
10.6131
10.6663
10.6707
10.6511
10.6123
10.5091
10.5249
1
1
1
1
1
1
1
1
1
1
1
1
1
1.07525
6.97114
10.3299
10.2526
10.3133
10.3394
10.2906
10.1746
9.94989
9.19656
7.2822
1
1
1
1
1
1
1
1
1
1
1
1
1
1.00074
5.25877
9.7911
10.0226
10.0969
10.0721
9.94761
9.71006
9.26012
8.43667
6.353
1
1
1
1
1
1
1
1
1
1
1
1
1
0.999997
3.30571
9.01929
9.86713
9.91246
9.83873
9.63519
9.30201
8.72224
7.86328
5.9438
1
1
1
1
1
1
1
1
1
1
1
1
1
1
1.61649
7.88007
9.9148
9.73984
9.56966
9.30832
8.90646
8.33197
7.38732
5.81358
1
1
1
1
1
1
1
1
1
1
1
1
1
1
1.03872
6.0538
9.44856
9.32288
9.19539
8.94948
8.55414
7.97758
7.05439
5.86293
1
1
1
1
1
1
1
1
1
1
1
1
1
1
1.00004
3.42113
8.7148
9.16907
9.04309
8.75874
8.33014
7.73962
6.91835
5.94265
1
1
1
1
1
1
1
1
1
1
1
1
1
1
0.999998
1.37436
7.22204
9.10894
8.85521
8.53915
8.09992
7.5388
6.82507
6.0128
1
1
1
1
1
1
1
1
1
1
1
1
1
1
0.999999
1.01219
4.67617
8.50512
8.57415
8.33007
7.94358
7.41886
6.78668
6.08546
1
1
1
1
1
1
1
1
1
1
1
1
1
1
1
0.999979
1.83412
7.44378
8.55538
8.19364
7.80402
7.30958
6.7448
6.12679
1
1
1
1
1
1
1
1
1
1
1
1
1
1
1
0.999996
1.05268
5.02551
8.12214
7.97291
7.62957
7.20145
6.7046
6.16541
1
1
1
1
1
1
1
1
1
1
1
1
1
1
1
0.999999
1.0002
1.96559
6.93035
8.00466
7.57926
7.16373
6.70257
6.21349
1
1
1
1
1
1
1
1
1
1
1
1
1
1
1
1
1
1.06552
4.33133
7.59908
7.46059
7.07681
6.66379
6.22676
1
1
1
1
1
1
1
1
1
1
1
1
1
1
1
1
1
1.0005
1.68488
6.08461
7.55526
7.11795
6.71037
6.28256
1
1
1
1
1
1
1
1
1
1
1
1
1
1
1
1
1
1
1.03273
3.05763
6.69359
7.10757
6.66944
6.27823
1
1
1
1
1
1
1
1
1
1
1
1
1
1
1
1
1
1
1.00025
1.27261
4.5653
6.97189
6.73168
6.34306
1
1
1
1
1
1
1
1
1
1
1
1
1
1
1
1
1
1
1
1.00643
1.89088
5.55105
6.78551
6.45871
1
1
1
1
1
1
1
1
1
1
1
1
1
1
1
1
1
1
1
1.00003
1.05486
2.74204
5.96251
6.49924
1
1
1
1
1
1
1
1
1
1
1
1
1
1
1
1
1
1
1
1
1.00061
1.20108
3.60266
5.97254
1
1
1
1
1
1
1
1
1
1
1
1
1
1
1
1
1
1
1
1
1
1.00445
1.46786
4.20943
1
1
1
1
1
1
1
1
1
1
1
1
1
1
1
1
1
1
1
1
1
1.00002
1.01822
1.80727
1
1
1
1
1
1
1
1
1
1
1
1
1
1
1
1
1
1
1
1
1
1
1.00014
1.04955
1
1
1
1
1
1
1
1
1
1
1
1
1
1
1
1
1
1
1
1
1
1
1
1.0006
1
1
1
1
1
1
1
1
1
1
1
1
1
1
1
1
1
1
1
1
1
1
1
1
1
1
1
1
1
1
1
1
1
1
1
1
1
1
1
1
1
1
1
1
1
1
1
1
1
1
1
1
1
1
1
1
1
1
1
1
1
1
1
1
1
1
1
1
1
1
1
1
1
1
1
1
1
1
1
1
1
1
1
1
1
1
1
1
1
1
1
1
1
1
1
1
1
1
1
1
1
1
1
1
1
1
1
1
1
1
1
1
1
1
1
1
1
1
1
1
1
1
1
1
1
1
1
1
1
1
1
1
1
1
1
1
1
1
1
1
1
1
1
1
1
1
1
1
1
1
1
1
1
1
1
1
1
1
1
1
1
1
1
1
1
1
1
1
1
1
1
1
1
1
1
1
1
1
1
1
1
1
1
1
1
1
1
1
1
1
1
1
1
1
1
1
1
1
1
1
1
1
1
1
1
1
1
1
1
1
1
1
1
1
1
1
1
1
1
1
1
1
1
1
1
1
1
1
1
1
1
1
1
1
1
1
1
1
1
1
1.60851
0.454312
0.122754
0.114871
0.173973
0.269031
0.379882
0.517397
0.688785
0.82292
0.853789
0.894582
0.967914
1.02334
1.08365
1.16953
1.21085
1.20327
1.18258
1.16243
1.15879
1.15174
1.1446
1.15185
1.15381
1.15164
1.1469
1.14044
1.133
1.12177
1.11332
1.10794
1.10369
1.10272
1.10774
1.10734
1.1012
1.09263
1.08079
1.06548
1.05015
1.04067
1.0333
1.02474
1.01633
1.00941
1.00574
1.00074
0.991533
0.97901
0.969523
0.963932
0.9608
0.957895
0.953674
0.947099
0.937797
0.926135
0.910626
0.893085
0.879343
0.872877
0.872193
0.870033
0.86466
0.856446
0.847438
0.837407
0.826484
0.82142
0.820682
0.82165
0.824049
0.827248
0.82984
0.830523
0.830064
0.82624
0.816614
0.809436
0.808414
0.816067
0.829215
0.845075
0.863408
0.883308
0.902514
0.922745
0.940875
0.951806
0.961603
0.970553
0.975928
0.979279
0.980143
0.987163
2.7061
1.48889
0.900299
0.582398
0.566482
0.544808
0.510338
0.515439
0.524935
0.564192
0.615289
0.679749
0.75542
0.839363
0.920014
0.994145
1.06669
1.1002
1.10901
1.12412
1.14098
1.14631
1.14632
1.14546
1.14195
1.13997
1.13994
1.1383
1.13499
1.13095
1.12566
1.11793
1.11035
1.10439
1.09727
1.09038
1.08457
1.07754
1.06877
1.05862
1.04746
1.03813
1.02928
1.02073
1.01379
1.00737
1.0024
0.996337
0.986592
0.973287
0.961815
0.953284
0.947943
0.945944
0.944758
0.942688
0.938858
0.932013
0.919646
0.900413
0.881896
0.87212
0.870575
0.869033
0.865558
0.861577
0.856747
0.848877
0.837026
0.823473
0.815454
0.812334
0.81185
0.814142
0.817509
0.823608
0.833591
0.843363
0.851743
0.857421
0.866377
0.887572
0.920768
0.966326
1.0214
1.07926
1.13478
1.18962
1.24238
1.27091
1.28394
1.29299
1.29545
1.29031
1.2758
1.28179
3.64005
2.37084
1.72101
1.29335
1.03533
0.860299
0.685498
0.621364
0.590742
0.562075
0.586146
0.65292
0.708848
0.753157
0.799286
0.852962
0.916412
0.989369
1.04046
1.09302
1.14284
1.1756
1.1805
1.17544
1.17593
1.17275
1.16057
1.14349
1.1283
1.12435
1.12189
1.1139
1.10465
1.10108
1.09666
1.08967
1.08317
1.07625
1.0685
1.06049
1.05102
1.04469
1.03913
1.03044
1.01913
1.00893
0.999934
0.993098
0.984516
0.972409
0.960019
0.949635
0.941298
0.936248
0.934645
0.933954
0.933191
0.932295
0.927924
0.913322
0.886026
0.863255
0.858129
0.856425
0.855049
0.854132
0.851097
0.84679
0.839468
0.82725
0.816805
0.815678
0.819178
0.830818
0.853246
0.890839
0.94528
1.01423
1.08928
1.14923
1.19559
1.237
1.27804
1.32155
1.36483
1.4053
1.44374
1.48733
1.53926
1.57339
1.58411
1.59136
1.59104
1.57724
1.54707
1.52744
4.23411
3.17423
2.38227
1.87691
1.55837
1.28477
1.05595
0.919753
0.857733
0.767374
0.696211
0.700468
0.696509
0.681942
0.688755
0.709979
0.754011
0.825796
0.906077
0.972782
1.03037
1.08991
1.10836
1.11702
1.14023
1.16679
1.17251
1.16445
1.14965
1.14213
1.13313
1.1184
1.10392
1.09654
1.08934
1.07838
1.06766
1.06125
1.05712
1.05432
1.04981
1.04424
1.03914
1.03264
1.02232
1.0101
0.998401
0.989521
0.982291
0.972185
0.961576
0.952414
0.943394
0.935461
0.930551
0.929232
0.929616
0.929217
0.926288
0.916957
0.895206
0.872703
0.862185
0.855963
0.851901
0.848792
0.846527
0.845479
0.843763
0.843453
0.853638
0.880676
0.93068
1.00344
1.09245
1.18885
1.2822
1.37679
1.45974
1.52343
1.56087
1.58208
1.5935
1.58821
1.57945
1.57413
1.5765
1.59407
1.62022
1.64121
1.65076
1.65371
1.65038
1.63746
1.62058
1.58792
4.68801
3.7813
3.00466
2.43669
2.03311
1.69246
1.39958
1.24621
1.12778
1.00894
0.883947
0.828302
0.785319
0.727954
0.691206
0.700078
0.713205
0.729078
0.762165
0.816522
0.886853
0.969789
1.01894
1.04818
1.07317
1.1064
1.12247
1.12072
1.12583
1.14265
1.14887
1.14632
1.13709
1.12439
1.10701
1.08318
1.06
1.0481
1.04465
1.04241
1.03939
1.03626
1.03592
1.03505
1.02858
1.01399
1.00047
0.990373
0.981443
0.972286
0.963004
0.953793
0.943683
0.933791
0.927246
0.925686
0.926827
0.927865
0.924908
0.915622
0.897651
0.876834
0.863343
0.859594
0.86065
0.869505
0.890168
0.92728
0.978432
1.0439
1.12296
1.21156
1.3039
1.38992
1.46589
1.53267
1.58015
1.61045
1.64144
1.66716
1.67659
1.67763
1.66335
1.64164
1.61826
1.59956
1.59029
1.59045
1.59654
1.60317
1.60608
1.60289
1.59642
1.58947
1.5857
1.56712
5.00579
4.19748
3.4598
2.90569
2.4644
2.09161
1.76409
1.56161
1.39358
1.24784
1.12432
1.03412
0.96962
0.907252
0.81681
0.787314
0.779823
0.761363
0.746229
0.749403
0.769203
0.802783
0.848419
0.901815
0.950289
1.00521
1.05253
1.06998
1.08286
1.10368
1.11897
1.1194
1.11567
1.11368
1.11207
1.1027
1.08427
1.06774
1.05974
1.05502
1.04813
1.03905
1.0312
1.02589
1.01692
0.997911
0.985712
0.981704
0.980034
0.97864
0.973977
0.966806
0.957275
0.944944
0.932997
0.923278
0.917544
0.91253
0.907434
0.902111
0.897284
0.891957
0.897727
0.916375
0.952675
1.01796
1.11864
1.23408
1.35011
1.45873
1.53585
1.60035
1.6376
1.65466
1.66619
1.66647
1.66439
1.6615
1.66239
1.66086
1.65668
1.64579
1.63593
1.62315
1.60878
1.59811
1.58615
1.5665
1.54849
1.54026
1.53416
1.53021
1.52982
1.53629
1.54677
1.53979
5.22773
4.51354
3.82421
3.2835
2.85555
2.43269
2.09581
1.87808
1.67574
1.49332
1.36095
1.24069
1.12755
1.05642
0.977433
0.897114
0.868192
0.840272
0.794399
0.760792
0.770534
0.768484
0.764441
0.771219
0.797764
0.843961
0.901077
0.960775
1.00265
1.04176
1.08376
1.08477
1.08855
1.09424
1.09472
1.0931
1.08531
1.07933
1.07684
1.07423
1.06608
1.05088
1.03578
1.02236
1.01061
0.992863
0.976489
0.971003
0.970039
0.971803
0.970865
0.967252
0.961896
0.952756
0.938887
0.92275
0.910668
0.901593
0.902292
0.915281
0.948458
1.01501
1.11737
1.23541
1.35645
1.47401
1.57257
1.62955
1.68292
1.72151
1.74151
1.73958
1.73155
1.71776
1.70567
1.6882
1.66626
1.64637
1.62615
1.6143
1.6054
1.59938
1.60914
1.61822
1.61048
1.5942
1.56165
1.51607
1.47593
1.46453
1.46292
1.46506
1.48283
1.51644
1.52982
1.51551
5.38551
4.74161
4.11991
3.59073
3.16085
2.74224
2.40956
2.16475
1.93648
1.70948
1.58469
1.46862
1.32696
1.22644
1.15161
1.04761
0.993771
0.970118
0.927466
0.856752
0.834639
0.813264
0.780521
0.762149
0.757965
0.763451
0.776976
0.807467
0.858251
0.914645
0.981365
1.02581
1.0392
1.04783
1.06083
1.0738
1.07307
1.06888
1.07097
1.07023
1.06259
1.04911
1.03857
1.02681
1.01413
0.998592
0.984132
0.97084
0.962083
0.959799
0.958059
0.955944
0.953661
0.948084
0.93883
0.925588
0.926126
0.948758
1.00927
1.11706
1.27458
1.44955
1.60879
1.71005
1.79062
1.83052
1.81974
1.80298
1.78677
1.7771
1.7661
1.75161
1.73606
1.72039
1.69817
1.66718
1.62668
1.58159
1.55907
1.5546
1.55518
1.58327
1.60229
1.59297
1.57563
1.54694
1.49264
1.43992
1.4195
1.41546
1.41546
1.4286
1.47083
1.50461
1.50584
1.48112
5.50935
4.92762
4.35326
3.86848
3.443
3.01975
2.68821
2.42882
2.19373
1.95035
1.79404
1.66485
1.51307
1.38858
1.3218
1.22627
1.13047
1.08879
1.04057
0.95677
0.901213
0.870177
0.828747
0.779031
0.763719
0.766236
0.771547
0.769802
0.775372
0.795922
0.830962
0.878072
0.921102
0.954249
0.987622
1.01366
1.03684
1.05574
1.05969
1.05864
1.05163
1.03725
1.02731
1.02445
1.01986
1.01075
0.998013
0.984139
0.969467
0.956571
0.948371
0.944682
0.943323
0.946615
0.970832
1.03002
1.13816
1.29573
1.4888
1.64682
1.77175
1.87659
1.90541
1.9169
1.91656
1.89936
1.86569
1.82654
1.78843
1.76845
1.75329
1.73962
1.71978
1.69012
1.64759
1.59701
1.55828
1.52493
1.51056
1.51186
1.53421
1.54079
1.53069
1.52009
1.50793
1.48659
1.4417
1.39167
1.3793
1.37888
1.39045
1.42984
1.47463
1.48552
1.47478
1.44757
5.61697
5.08446
4.55809
4.09537
3.6725
3.26826
2.95328
2.68581
2.41126
2.16142
2.00929
1.86893
1.70739
1.55266
1.47217
1.37998
1.27429
1.22382
1.1779
1.0924
1.01262
0.978661
0.939711
0.867077
0.828569
0.825604
0.808502
0.783247
0.772311
0.77257
0.773905
0.776249
0.787668
0.8172
0.868576
0.91796
0.958526
0.999605
1.03005
1.04004
1.0383
1.02596
1.01024
1.00722
1.00734
1.01223
1.00842
0.999345
0.983881
0.965586
0.950403
0.954641
0.987668
1.08571
1.27563
1.48258
1.68171
1.87604
1.9635
1.99981
2.01096
1.98896
1.95905
1.93613
1.91628
1.88691
1.84868
1.80735
1.76719
1.72138
1.68678
1.66597
1.64309
1.61065
1.57473
1.53597
1.50654
1.48711
1.48113
1.49181
1.49196
1.47972
1.46493
1.45286
1.44445
1.43098
1.404
1.37966
1.37136
1.37295
1.39567
1.42598
1.44077
1.43954
1.42742
1.40415
5.71185
5.20818
4.72407
4.29735
3.88798
3.49778
3.18065
2.90738
2.6357
2.39177
2.20927
2.04385
1.86663
1.73365
1.64446
1.54151
1.40548
1.33827
1.29301
1.21805
1.13526
1.09079
1.04317
0.969334
0.904234
0.88441
0.859462
0.818322
0.781732
0.778382
0.778255
0.770022
0.768723
0.773218
0.786774
0.812082
0.842091
0.879754
0.9201
0.95294
0.97925
0.982736
0.978221
0.980574
0.991469
1.00244
1.00559
1.00338
0.99462
0.997378
1.04471
1.16163
1.37028
1.63056
1.82823
1.96882
2.07221
2.09616
2.09006
2.07008
2.02613
1.96832
1.92817
1.91402
1.88533
1.84885
1.8125
1.76854
1.7133
1.66589
1.63551
1.60723
1.57936
1.5504
1.51546
1.50203
1.49284
1.48383
1.46686
1.4448
1.43396
1.42387
1.41218
1.40104
1.39373
1.39274
1.38811
1.37446
1.37079
1.37685
1.39094
1.39588
1.39341
1.38979
1.38387
1.36476
5.77158
5.30688
4.86682
4.46553
4.06452
3.69448
3.39859
3.12043
2.82122
2.59072
2.40743
2.22838
2.0238
1.89133
1.79959
1.69192
1.55762
1.47829
1.41932
1.33071
1.23214
1.18872
1.14812
1.08507
1.0109
0.982363
0.955586
0.909799
0.848677
0.835052
0.827935
0.805563
0.780716
0.77352
0.775842
0.771321
0.765562
0.771496
0.792171
0.82333
0.85515
0.886977
0.918379
0.941154
0.967329
0.985658
0.999339
1.02006
1.09139
1.27356
1.52318
1.77737
1.96072
2.10015
2.13078
2.1334
2.12546
2.10709
2.08776
2.04883
1.99566
1.91782
1.87626
1.84427
1.80777
1.77246
1.74732
1.72033
1.67471
1.61499
1.58171
1.55842
1.53015
1.50613
1.49525
1.49272
1.47751
1.44274
1.41453
1.39787
1.38637
1.37657
1.36807
1.36324
1.36904
1.37697
1.37434
1.36622
1.36299
1.36208
1.35307
1.34219
1.33435
1.33734
1.34518
1.33269
5.84743
5.4077
4.98997
4.60156
4.22137
3.87051
3.57021
3.29406
3.0091
2.77414
2.58083
2.39393
2.1784
2.04577
1.9472
1.8285
1.68039
1.60163
1.54218
1.45868
1.34551
1.28477
1.2394
1.17463
1.09836
1.06684
1.04143
0.998554
0.937789
0.904757
0.886676
0.857491
0.811533
0.783008
0.781773
0.775766
0.761387
0.758411
0.760904
0.764596
0.771075
0.779682
0.80411
0.841407
0.892052
0.939852
1.04192
1.24277
1.56595
1.9053
2.08291
2.16578
2.21931
2.22311
2.19653
2.15032
2.11824
2.08942
2.03435
1.96817
1.90703
1.84183
1.80017
1.76993
1.73853
1.7133
1.69394
1.67231
1.63188
1.57084
1.5349
1.51792
1.50463
1.49705
1.49105
1.47616
1.44543
1.39886
1.36596
1.35619
1.34963
1.34394
1.34025
1.34442
1.35973
1.36388
1.35622
1.34002
1.3261
1.31548
1.3022
1.29173
1.28607
1.29413
1.3095
1.30265
5.87671
5.47276
5.09128
4.72877
4.36542
4.02684
3.73342
3.46057
3.18241
2.94197
2.73885
2.55057
2.35115
2.2001
2.07955
1.95893
1.82248
1.72868
1.65674
1.56535
1.44969
1.38534
1.34084
1.27509
1.18492
1.15057
1.12511
1.08227
1.02273
0.983153
0.966322
0.938257
0.885259
0.834778
0.827697
0.819154
0.79419
0.768399
0.765202
0.764395
0.751875
0.736901
0.738832
0.757094
0.820833
1.03616
1.3929
1.73315
2.01196
2.12503
2.168
2.1832
2.19445
2.18042
2.14406
2.08757
2.02475
1.99508
1.95435
1.89939
1.84631
1.80391
1.76752
1.72765
1.69212
1.66829
1.64871
1.6267
1.59138
1.54367
1.51516
1.49852
1.48231
1.46417
1.44746
1.43105
1.40374
1.35422
1.33186
1.32437
1.31911
1.31678
1.32123
1.33294
1.34135
1.33331
1.313
1.292
1.27635
1.26685
1.25878
1.25118
1.25239
1.27278
1.28557
1.2766
5.95634
5.57998
5.20375
4.8412
4.5099
4.18566
3.87409
3.59322
3.34471
3.10633
2.89101
2.68762
2.51267
2.35734
2.21558
2.08097
1.93912
1.84695
1.77052
1.68403
1.56692
1.48276
1.43486
1.36681
1.27508
1.23616
1.21311
1.17738
1.11234
1.0537
1.03036
0.999555
0.950346
0.895565
0.880438
0.869467
0.842885
0.801471
0.782801
0.774938
0.756633
0.748497
0.78784
0.937184
1.19817
1.56033
1.78108
1.91384
1.99904
2.01344
2.01147
2.00114
2.00393
2.00155
1.94718
1.88306
1.84169
1.82253
1.82568
1.84719
1.83243
1.80699
1.77121
1.71868
1.66995
1.63875
1.61358
1.58992
1.56832
1.54793
1.52167
1.4915
1.46497
1.43985
1.41603
1.39147
1.36551
1.3346
1.31162
1.30266
1.29885
1.3001
1.30682
1.31037
1.30353
1.28934
1.26591
1.24261
1.23285
1.22763
1.22544
1.22474
1.2337
1.25434
1.2599
1.249
6.05758
5.6886
5.32443
4.97691
4.65863
4.34349
4.02366
3.7477
3.52034
3.28663
3.03621
2.82218
2.67562
2.51725
2.35735
2.21553
2.08482
1.96401
1.8678
1.78307
1.67434
1.59509
1.54131
1.47601
1.37317
1.30511
1.28685
1.2555
1.19718
1.1368
1.10647
1.07345
1.02442
0.961717
0.943902
0.933412
0.907564
0.863915
0.839616
0.834447
0.865568
0.96959
1.22503
1.52867
1.78512
1.92283
1.91643
1.90846
1.9038
1.8618
1.79845
1.73818
1.71731
1.70334
1.65878
1.63289
1.63151
1.64184
1.66588
1.70061
1.73152
1.73605
1.72112
1.69714
1.66272
1.6218
1.58938
1.57009
1.55758
1.54186
1.51256
1.47811
1.44731
1.41784
1.38137
1.35483
1.33932
1.32163
1.29849
1.28323
1.2756
1.27203
1.27288
1.26843
1.2579
1.24808
1.23561
1.21368
1.20108
1.19647
1.20007
1.21191
1.22724
1.23312
1.22755
1.21549
6.15616
5.77496
5.41665
5.0714
4.76461
4.4794
4.17251
3.87808
3.65139
3.44049
3.20486
2.97388
2.80827
2.65147
2.49412
2.3489
2.2332
2.09672
1.97369
1.88967
1.78259
1.68288
1.6366
1.58049
1.49271
1.41141
1.3746
1.33355
1.26049
1.19758
1.1756
1.14831
1.10442
1.0419
1.01504
0.991936
0.965206
0.924051
0.934345
1.02286
1.27313
1.63996
1.9527
2.10603
2.12421
2.04399
1.94437
1.88607
1.83145
1.77002
1.70666
1.65892
1.61759
1.57445
1.51996
1.46882
1.44956
1.4455
1.46012
1.49679
1.5459
1.58477
1.60498
1.6051
1.58901
1.55984
1.54683
1.54048
1.54192
1.52566
1.49905
1.47029
1.43278
1.38148
1.33089
1.31347
1.30683
1.29831
1.28442
1.26511
1.24344
1.23056
1.22065
1.21115
1.20309
1.20645
1.20764
1.1949
1.18033
1.17637
1.18482
1.19087
1.18587
1.17671
1.17082
1.16282
6.25435
5.90213
5.51729
5.19244
4.88684
4.59068
4.2989
4.03039
3.79701
3.56818
3.31241
3.11146
2.95701
2.80116
2.63144
2.48504
2.36838
2.22932
2.08399
1.98873
1.89863
1.78815
1.71826
1.66485
1.59098
1.50589
1.46429
1.42219
1.34702
1.26197
1.23476
1.21071
1.17076
1.11596
1.08847
1.06539
1.06366
1.13854
1.38111
1.76866
2.08952
2.34767
2.41295
2.37317
2.24508
2.05844
1.93425
1.86417
1.80868
1.7556
1.70257
1.65008
1.59948
1.5505
1.49518
1.4441
1.41732
1.39617
1.37828
1.36782
1.36704
1.37373
1.37995
1.39669
1.42147
1.42822
1.42643
1.42842
1.43699
1.46026
1.4657
1.45152
1.41489
1.35757
1.31979
1.29786
1.28433
1.27446
1.26153
1.24234
1.214
1.1893
1.17413
1.16501
1.15978
1.16185
1.17212
1.16986
1.15785
1.14756
1.13688
1.13323
1.13086
1.12705
1.12527
1.12331
5.93449
5.97374
5.64382
5.28838
4.98836
4.71394
4.44263
4.16606
3.91809
3.70444
3.48247
3.27147
3.07844
2.90737
2.74232
2.61864
2.5027
2.37336
2.20502
2.08829
2.01487
1.90516
1.80698
1.75776
1.6917
1.59742
1.54367
1.50054
1.43532
1.34836
1.30887
1.27949
1.23617
1.18625
1.1689
1.23256
1.44258
1.88603
2.30975
2.52876
2.64144
2.63829
2.56589
2.42915
2.25008
2.09357
1.9802
1.90305
1.84361
1.79309
1.75023
1.70624
1.66052
1.61008
1.54986
1.49066
1.43577
1.38907
1.36157
1.34043
1.32648
1.30715
1.28907
1.28203
1.27525
1.26933
1.26499
1.26728
1.28332
1.3038
1.32779
1.34825
1.34839
1.33537
1.32472
1.30501
1.28054
1.25181
1.22804
1.20492
1.17799
1.15821
1.14409
1.13227
1.12972
1.14415
1.15215
1.14163
1.11585
1.09451
1.08186
1.07493
1.07388
1.07507
1.07842
1.09523
4.53265
5.82325
5.78855
5.45535
5.10444
4.8014
4.54629
4.30595
4.06201
3.80909
3.60495
3.42869
3.24031
3.05371
2.86117
2.72668
2.60466
2.48042
2.33585
2.20731
2.1307
2.02422
1.90463
1.84687
1.78805
1.69279
1.62428
1.57471
1.51359
1.42761
1.37564
1.35482
1.33105
1.36629
1.55098
1.94554
2.43273
2.87612
2.86962
2.84804
2.80197
2.69908
2.5751
2.43068
2.29412
2.16958
2.05383
1.95958
1.88512
1.84124
1.80491
1.76516
1.72038
1.66956
1.61292
1.54851
1.48246
1.42401
1.37634
1.33937
1.30666
1.27225
1.24577
1.22921
1.21956
1.21331
1.19352
1.1598
1.14112
1.14209
1.15871
1.18484
1.22898
1.2642
1.26245
1.23681
1.22216
1.21647
1.20603
1.18274
1.15447
1.1404
1.13195
1.11961
1.11512
1.1126
1.10299
1.08912
1.06941
1.0447
1.02877
1.02064
1.01975
1.02888
1.03947
1.05321
2.10285
4.71841
5.65844
5.60724
5.28446
4.93751
4.66538
4.41779
4.17184
3.93914
3.74788
3.56256
3.3736
3.16193
2.98352
2.86361
2.73516
2.59335
2.42161
2.31544
2.24293
2.14532
2.01924
1.94499
1.88086
1.78607
1.71054
1.65494
1.59669
1.52464
1.46055
1.49658
1.68789
2.14663
2.67299
3.12943
3.25016
3.16564
3.04496
2.92907
2.82171
2.69544
2.55144
2.43297
2.33522
2.24767
2.15531
2.05846
1.97787
1.91566
1.86274
1.81185
1.7586
1.7094
1.66466
1.61486
1.55504
1.48704
1.4173
1.35528
1.30934
1.27666
1.2481
1.22283
1.20261
1.18289
1.16394
1.13825
1.09579
1.07494
1.06449
1.06426
1.08336
1.12121
1.13182
1.13177
1.13678
1.14333
1.13591
1.11934
1.11284
1.12018
1.13147
1.12703
1.11415
1.09802
1.08027
1.05897
1.03366
1.00676
0.990967
0.982804
0.978387
0.984407
1.00741
1.02578
1.09227
2.3573
4.77035
5.49212
5.43503
5.12262
4.79319
4.53898
4.31308
4.07105
3.85014
3.67869
3.51285
3.30993
3.11608
2.96738
2.8334
2.70648
2.56093
2.44425
2.35089
2.24279
2.1179
2.04694
1.98993
1.88919
1.79178
1.7308
1.67814
1.68211
1.81808
2.26639
2.89508
3.52826
3.61382
3.6042
3.48284
3.29633
3.14343
2.992
2.83435
2.68688
2.54204
2.46798
2.40914
2.348
2.28106
2.17699
2.05233
1.96609
1.90615
1.85234
1.7985
1.74392
1.6926
1.64651
1.60119
1.54869
1.48404
1.40725
1.34563
1.31133
1.28117
1.25118
1.22463
1.19873
1.17465
1.1402
1.08237
1.04964
1.0388
1.03319
1.03284
1.02597
1.0214
1.01795
1.00912
1.01182
1.02673
1.03919
1.04828
1.0628
1.08156
1.08227
1.06925
1.05309
1.03819
1.0202
0.997038
0.974076
0.964231
0.959905
0.956501
0.958572
0.974606
0.984886
1.00156
1.1413
2.53675
4.70866
5.35915
5.29486
4.99848
4.66995
4.41092
4.20148
4.00289
3.814
3.61891
3.41375
3.25926
3.11612
2.96479
2.78845
2.64764
2.5686
2.47132
2.36135
2.22686
2.12723
2.07217
1.98211
1.89312
1.86071
1.96318
2.37034
3.0508
3.73822
3.97891
4.05391
3.93847
3.7722
3.57612
3.36705
3.16699
2.97303
2.78229
2.66571
2.60709
2.56135
2.51685
2.45549
2.37164
2.24883
2.11801
2.02086
1.94902
1.88926
1.83193
1.77022
1.71472
1.67147
1.63368
1.5916
1.5372
1.4659
1.38972
1.33679
1.30063
1.26992
1.2437
1.21653
1.18293
1.14346
1.09042
1.04188
1.02621
1.01997
1.01083
1.00065
0.99296
0.978129
0.954002
0.937056
0.936225
0.945405
0.966475
0.993727
1.00569
1.00091
0.992318
0.983971
0.97682
0.966644
0.952601
0.941364
0.934077
0.930003
0.932292
0.944042
0.952789
0.950487
1.00001
1.00299
1.18619
2.59935
4.64272
5.24168
5.17355
4.8749
4.56875
4.30739
4.11139
3.94901
3.76091
3.54632
3.36171
3.22061
3.07915
2.90841
2.77569
2.67904
2.57014
2.45624
2.33037
2.23748
2.17432
2.08661
2.15421
2.52826
3.27654
4.09483
4.3796
4.48207
4.40502
4.25297
4.04401
3.8157
3.5939
3.36961
3.15664
2.96056
2.82322
2.7597
2.70184
2.63296
2.56455
2.4873
2.39516
2.29296
2.19434
2.09707
2.00673
1.93475
1.86181
1.78561
1.74625
1.71397
1.67609
1.6276
1.56439
1.49187
1.42485
1.37624
1.34252
1.3129
1.28342
1.25323
1.22064
1.18108
1.12618
1.06116
1.0251
1.0092
0.996715
0.988063
0.98056
0.966716
0.941404
0.912361
0.898555
0.896976
0.90704
0.921809
0.918639
0.912412
0.910329
0.906545
0.9054
0.901256
0.893656
0.891816
0.892255
0.893345
0.900266
0.914634
0.92078
0.914329
1
1.00001
1.00458
1.21337
2.59121
4.59542
5.07207
5.01162
4.76252
4.46024
4.23506
4.06328
3.86817
3.66235
3.49997
3.35579
3.19417
3.00691
2.89758
2.8028
2.68277
2.56091
2.42235
2.35281
2.40716
2.73165
3.55289
4.42471
5.00919
5.11526
4.88324
4.62764
4.38365
4.14331
3.9283
3.74485
3.58735
3.43104
3.27096
3.11811
2.96842
2.85957
2.76965
2.67431
2.57578
2.47588
2.3999
2.3417
2.27547
2.19114
2.07898
1.95995
1.87038
1.81431
1.78285
1.75386
1.71906
1.67193
1.6009
1.50973
1.43837
1.38729
1.34885
1.32431
1.30598
1.28211
1.24344
1.20092
1.15906
1.11408
1.06873
1.03168
1.00523
0.984783
0.968591
0.954564
0.935565
0.90622
0.889586
0.882877
0.882156
0.878876
0.868793
0.863479
0.857773
0.848738
0.839191
0.835944
0.834331
0.836516
0.843103
0.853323
0.866245
0.875939
0.877007
0.86888
1
1
1.00002
1.00589
1.21948
2.57534
4.45468
4.86567
4.88123
4.67519
4.39097
4.18703
3.99032
3.78365
3.62716
3.48691
3.31298
3.13168
3.02485
2.90116
2.79637
2.66722
2.64521
2.91041
3.76283
4.75639
5.61227
5.89295
5.69205
5.32119
4.95251
4.59849
4.30965
4.07418
3.91178
3.78328
3.67112
3.56073
3.42324
3.25
3.07393
2.93508
2.82207
2.71041
2.60256
2.51321
2.44811
2.3902
2.31998
2.23059
2.11217
1.98488
1.89902
1.84959
1.81466
1.78122
1.74518
1.70005
1.63416
1.54228
1.46481
1.43413
1.40691
1.37398
1.34585
1.31838
1.27851
1.22579
1.16826
1.12393
1.0982
1.07276
1.04347
1.01432
0.983411
0.951813
0.921525
0.903862
0.894353
0.884265
0.872805
0.861871
0.852549
0.842298
0.828446
0.811894
0.796539
0.791551
0.788904
0.789685
0.795114
0.801093
0.80915
0.818639
0.821169
0.815397
1
1
1
1.00003
1.00643
1.21523
2.50466
4.17961
4.72135
4.79742
4.60907
4.36771
4.13005
3.90262
3.75689
3.61255
3.42386
3.26572
3.14086
3.02435
2.97751
3.17011
3.98909
5.09978
6.24997
6.41259
6.19726
5.95809
5.59404
5.24682
4.93057
4.62742
4.39076
4.20015
4.0369
3.88682
3.75256
3.62846
3.48407
3.31028
3.12369
2.96633
2.85099
2.74921
2.6596
2.57857
2.49921
2.42185
2.33424
2.23081
2.11289
2.01021
1.93833
1.88564
1.84301
1.79934
1.74928
1.69466
1.63584
1.57006
1.50673
1.4457
1.38778
1.34572
1.31967
1.30771
1.29946
1.27669
1.2309
1.16555
1.10685
1.06802
1.0412
1.01671
0.992374
0.965545
0.928439
0.895217
0.88614
0.882215
0.870868
0.857655
0.847137
0.834432
0.818941
0.799236
0.785032
0.777922
0.76964
0.763761
0.760418
0.755969
0.753394
0.756088
0.758743
0.754465
1
1
1
1
1.00004
1.00635
1.19416
2.31409
3.88104
4.65343
4.71355
4.57571
4.3304
4.05434
3.86839
3.74241
3.52425
3.39113
3.30243
3.44703
4.17641
5.5978
6.78262
7.21655
7.22344
6.93406
6.45067
5.96239
5.57736
5.2624
5.00764
4.74777
4.49087
4.29548
4.12904
3.97583
3.82677
3.67661
3.51832
3.35554
3.18726
3.01944
2.88633
2.78748
2.7012
2.61655
2.53124
2.44387
2.34466
2.24515
2.16015
2.07104
1.9854
1.91868
1.87124
1.82632
1.7718
1.70746
1.65685
1.61678
1.55258
1.47202
1.39057
1.35078
1.33484
1.31842
1.29201
1.25667
1.21877
1.18368
1.13839
1.10077
1.07442
1.0498
1.02358
0.992338
0.95248
0.915942
0.895429
0.888428
0.885449
0.875685
0.861839
0.846199
0.827399
0.804214
0.787112
0.774042
0.761866
0.751413
0.741442
0.735023
0.732046
0.731842
0.731282
0.725308
1
1
1
1
1
1.00004
1.00514
1.15351
2.04839
3.69974
4.56772
4.58667
4.47391
4.27564
4.00064
3.84097
3.66823
3.70529
4.36823
5.91516
7.46364
8.18803
7.84339
7.53312
7.18705
6.79459
6.42082
6.06836
5.73907
5.41485
5.11198
4.81783
4.54796
4.32877
4.16078
4.02266
3.88848
3.76054
3.62875
3.47677
3.30213
3.11084
2.92784
2.80045
2.72613
2.66218
2.5877
2.49919
2.40236
2.28995
2.14856
2.04293
1.99002
1.94972
1.90958
1.86337
1.80845
1.74849
1.68329
1.60227
1.51341
1.44271
1.40709
1.38174
1.35494
1.32541
1.29353
1.26098
1.22474
1.17302
1.11622
1.07542
1.04893
1.02653
1.00326
0.986235
0.97564
0.9606
0.937255
0.909671
0.881029
0.858473
0.838983
0.819745
0.799268
0.778235
0.763289
0.753742
0.745905
0.738538
0.729339
0.72303
0.719561
0.718678
0.717456
0.710174
1
1
1
1
1
1
1.00003
1.00344
1.1068
1.85171
3.55706
4.27468
4.42209
4.3795
4.25214
4.17152
4.5853
6.03045
8.05055
9.40809
9.50282
9.14103
8.4883
7.55709
6.93523
6.57482
6.29502
6.04987
5.78704
5.48284
5.1667
4.85674
4.57598
4.35016
4.18869
4.05571
3.91854
3.78137
3.63973
3.48305
3.31282
3.13014
2.95989
2.83832
2.75259
2.67656
2.59852
2.51368
2.41913
2.30296
2.17513
2.08122
2.01684
1.96451
1.91846
1.87075
1.81759
1.7593
1.69203
1.61204
1.52931
1.46762
1.42566
1.39388
1.36685
1.33829
1.3071
1.27302
1.23125
1.17794
1.12222
1.08027
1.05144
1.02864
1.0132
1.00317
0.989582
0.969583
0.944953
0.914769
0.884321
0.860132
0.839679
0.81942
0.797026
0.775033
0.759546
0.749574
0.742019
0.734484
0.72473
0.717041
0.71334
0.712211
0.710757
0.703564
1
1
1
1
1
1
1
1.00001
1.00222
1.07268
1.72868
3.17141
3.94806
4.46284
5.28922
6.47494
8.05497
9.39144
9.98119
9.89832
9.43749
8.79624
8.05457
7.55981
7.12034
6.76115
6.46007
6.20719
5.94998
5.66971
5.37937
5.09161
4.81964
4.5846
4.39444
4.2244
4.05745
3.89943
3.74549
3.58524
3.40948
3.21903
3.05131
2.93079
2.84094
2.76201
2.68281
2.59798
2.50183
2.38815
2.26579
2.15856
2.08004
2.02373
1.97583
1.92645
1.87284
1.81442
1.74918
1.67244
1.58897
1.51925
1.47133
1.44046
1.41403
1.38384
1.34953
1.31279
1.27068
1.21753
1.15862
1.11406
1.08593
1.06846
1.05625
1.04319
1.02617
1.00372
0.974602
0.941985
0.912845
0.888703
0.86684
0.843398
0.817142
0.794211
0.779122
0.769235
0.760869
0.75122
0.737995
0.727691
0.72296
0.72054
0.71836
0.710679
1
1
1
1
1
1
1
1
1.00001
1.00132
1.05564
1.60129
3.14776
5.71669
8.95794
12.1536
13.7099
13.3624
12.1436
10.429
9.17014
8.38261
7.74969
7.35232
6.97893
6.63976
6.32672
6.05097
5.78697
5.52102
5.2515
4.97579
4.70888
4.482
4.30042
4.13262
3.95884
3.78362
3.6166
3.45979
3.29639
3.11699
2.95205
2.83135
2.74708
2.67376
2.59604
2.51141
2.4192
2.31312
2.1945
2.0859
2.00725
1.95405
1.90965
1.8627
1.8103
1.75433
1.6937
1.62069
1.53646
1.46176
1.41608
1.39276
1.37075
1.34194
1.30623
1.26724
1.22451
1.17108
1.1151
1.07723
1.05276
1.03495
1.02088
1.00744
0.991757
0.971098
0.943947
0.91268
0.882679
0.857158
0.834643
0.811296
0.786246
0.766247
0.752932
0.743171
0.734667
0.7243
0.710286
0.700955
0.696308
0.69381
0.691908
0.684985
)
;

boundaryField
{
    inlet
    {
        type            fixedValue;
        value           uniform 1;
    }
    outlet
    {
        type            zeroGradient;
    }
    bottom
    {
        type            symmetryPlane;
    }
    top
    {
        type            symmetryPlane;
    }
    obstacle
    {
        type            zeroGradient;
    }
    defaultFaces
    {
        type            empty;
    }
}


// ************************************************************************* //
