/*--------------------------------*- C++ -*----------------------------------*\
  =========                 |
  \\      /  F ield         | OpenFOAM: The Open Source CFD Toolbox
   \\    /   O peration     | Website:  https://openfoam.org
    \\  /    A nd           | Version:  7
     \\/     M anipulation  |
\*---------------------------------------------------------------------------*/
FoamFile
{
    version     2.0;
    format      ascii;
    class       volScalarField;
    location    "1.1";
    object      rho;
}
// * * * * * * * * * * * * * * * * * * * * * * * * * * * * * * * * * * * * * //

dimensions      [1 -3 0 0 0 0 0];

internalField   nonuniform List<scalar> 
4032
(
1.40001
1.40001
1.40001
1.40001
1.40001
1.40001
1.40001
1.40001
1.40001
1.40001
1.40001
1.40001
1.40001
3.85622
5.50474
5.52581
5.58331
5.65646
5.72628
5.77444
5.78564
5.74556
5.68969
5.66519
1.40001
1.40001
1.40001
1.40001
1.40001
1.40001
1.40001
1.40001
1.40001
1.40001
1.40001
1.40001
1.40001
3.77412
5.47189
5.51074
5.56982
5.64404
5.7115
5.75553
5.7627
5.72125
5.66585
5.64322
1.40001
1.40001
1.40001
1.40001
1.40001
1.40001
1.40001
1.40001
1.40001
1.40001
1.40001
1.40001
1.40001
3.60871
5.42863
5.48586
5.54998
5.62653
5.69063
5.72966
5.73183
5.68879
5.63248
5.61187
1.40001
1.40001
1.40001
1.40001
1.40001
1.40001
1.40001
1.40001
1.40001
1.40001
1.40001
1.40001
1.40001
3.36699
5.36526
5.45708
5.52435
5.60297
5.66292
5.69667
5.69376
5.64828
5.58745
5.56445
1.40001
1.40001
1.40001
1.40001
1.40001
1.40001
1.40001
1.40001
1.40001
1.40001
1.40001
1.40001
1.40001
3.04951
5.27225
5.43209
5.49789
5.57307
5.62355
5.64863
5.63706
5.59038
5.5257
5.51033
1.40001
1.40001
1.40001
1.40001
1.40001
1.40001
1.40001
1.40001
1.40001
1.40001
1.40001
1.40001
1.40001
2.6886
5.14168
5.42255
5.48122
5.54406
5.58052
5.59706
5.58468
5.54193
5.46777
5.42379
1.40001
1.40001
1.40001
1.40001
1.40001
1.40001
1.40001
1.40001
1.40001
1.40001
1.40001
1.40001
1.40001
2.27463
4.94451
5.41203
5.45294
5.49969
5.52312
5.52851
5.50315
5.43388
5.33391
5.27876
1.40001
1.40001
1.40001
1.40001
1.40001
1.40001
1.40001
1.40001
1.40001
1.40001
1.40001
1.40001
1.40001
1.84216
4.68589
5.42789
5.41719
5.44018
5.44532
5.42852
5.38791
5.30954
5.1737
5.09838
1.40001
1.40001
1.40001
1.40001
1.40001
1.40001
1.40001
1.40001
1.40001
1.40001
1.40001
1.40001
1.40001
1.45967
4.21469
5.39984
5.35262
5.35951
5.35029
5.31035
5.23222
5.09447
4.72994
3.83895
1.40001
1.40001
1.40001
1.40001
1.40001
1.40001
1.40001
1.40001
1.40001
1.40001
1.40001
1.40001
1.40001
1.40069
3.4826
5.20525
5.27495
5.28948
5.26682
5.19986
5.07808
4.86182
4.48151
3.55585
1.40001
1.40001
1.40001
1.40001
1.40001
1.40001
1.40001
1.40001
1.40001
1.40001
1.40001
1.40001
1.40001
1.4
2.6312
4.97537
5.23465
5.22964
5.19247
5.09572
4.93886
4.67661
4.2933
3.46207
1.40001
1.40001
1.40001
1.40001
1.40001
1.40001
1.40001
1.40001
1.40001
1.40001
1.40001
1.40001
1.40001
1.4
1.80455
4.66246
5.2896
5.19947
5.11065
4.98585
4.80217
4.54411
4.132
3.4544
1.40001
1.40001
1.40001
1.40001
1.40001
1.40001
1.40001
1.40001
1.40001
1.40001
1.40001
1.40001
1.40001
1.4
1.43169
3.88512
5.13937
5.0721
4.99448
4.87104
4.68705
4.42767
4.02271
3.49779
1.40001
1.40001
1.40001
1.40001
1.40001
1.40001
1.40001
1.40001
1.40001
1.40001
1.40001
1.40001
1.40001
1.40001
1.40003
2.72888
4.94468
5.02603
4.96324
4.82796
4.62988
4.36289
3.99807
3.56046
1.40001
1.40001
1.40001
1.40001
1.40001
1.40001
1.40001
1.40001
1.40001
1.40001
1.40001
1.40001
1.40001
1.40001
1.4
1.67408
4.46546
5.04651
4.92414
4.77264
4.5698
4.31432
3.99366
3.62393
1.40001
1.40001
1.40001
1.40001
1.40001
1.40001
1.40001
1.40001
1.40001
1.40001
1.40001
1.40001
1.40001
1.40001
1.4
1.41027
3.33928
4.88126
4.83913
4.71864
4.53939
4.3015
4.0137
3.69133
1.40001
1.40001
1.40001
1.40001
1.40001
1.40001
1.40001
1.40001
1.40001
1.40001
1.40001
1.40001
1.40001
1.40001
1.4
1.39998
1.95445
4.61528
4.88152
4.71126
4.52389
4.29494
4.03445
3.74678
1.40001
1.40001
1.40001
1.40001
1.40001
1.40001
1.40001
1.40001
1.40001
1.40001
1.40001
1.40001
1.40001
1.40001
1.40001
1.4
1.44344
3.54023
4.76233
4.67729
4.49971
4.29172
4.05651
3.80145
1.40001
1.40001
1.40001
1.40001
1.40001
1.40001
1.40001
1.40001
1.40001
1.40001
1.40001
1.40001
1.40001
1.40001
1.40001
1.4
1.40017
2.04092
4.41565
4.73449
4.53247
4.32388
4.0977
3.86131
1.40001
1.40001
1.40001
1.40001
1.40001
1.40001
1.40001
1.40001
1.40001
1.40001
1.40001
1.40001
1.40001
1.40001
1.40001
1.40001
1.40001
1.45412
3.25458
4.62843
4.54162
4.33835
4.12602
3.9078
1.40001
1.40001
1.40001
1.40001
1.40001
1.40001
1.40001
1.40001
1.40001
1.40001
1.40001
1.40001
1.40001
1.40001
1.40001
1.40001
1.40001
1.40046
1.87941
4.08723
4.62852
4.41093
4.19695
3.97788
1.40001
1.40001
1.40001
1.40001
1.40001
1.40001
1.40001
1.40001
1.40001
1.40001
1.40001
1.40001
1.40001
1.40001
1.40001
1.40001
1.40001
1.40001
1.42777
2.66631
4.37148
4.44564
4.23054
4.02645
1.40001
1.40001
1.40001
1.40001
1.40001
1.40001
1.40001
1.40001
1.40001
1.40001
1.40001
1.40001
1.40001
1.40001
1.40001
1.40001
1.40001
1.40001
1.40024
1.61167
3.43985
4.44419
4.31649
4.11236
1.40001
1.40001
1.40001
1.40001
1.40001
1.40001
1.40001
1.40001
1.40001
1.40001
1.40001
1.40001
1.40001
1.40001
1.40001
1.40001
1.40001
1.40001
1.40001
1.40575
2.02116
3.91192
4.39716
4.22649
1.40001
1.40001
1.40001
1.40001
1.40001
1.40001
1.40001
1.40001
1.40001
1.40001
1.40001
1.40001
1.40001
1.40001
1.40001
1.40001
1.40001
1.40001
1.40001
1.40003
1.44658
2.5245
4.1296
4.29014
1.40001
1.40001
1.40001
1.40001
1.40001
1.40001
1.40001
1.40001
1.40001
1.40001
1.40001
1.40001
1.40001
1.40001
1.40001
1.40001
1.40001
1.40001
1.40001
1.40001
1.40059
1.56134
3.00807
4.14435
1.40001
1.40001
1.40001
1.40001
1.40001
1.40001
1.40001
1.40001
1.40001
1.40001
1.40001
1.40001
1.40001
1.40001
1.40001
1.40001
1.40001
1.40001
1.40001
1.40001
1.40001
1.4041
1.75323
3.34424
1.40001
1.40001
1.40001
1.40001
1.40001
1.40001
1.40001
1.40001
1.40001
1.40001
1.40001
1.40001
1.40001
1.40001
1.40001
1.40001
1.40001
1.40001
1.40001
1.40001
1.40001
1.40003
1.41621
1.98393
1.40001
1.40001
1.40001
1.40001
1.40001
1.40001
1.40001
1.40001
1.40001
1.40001
1.40001
1.40001
1.40001
1.40001
1.40001
1.40001
1.40001
1.40001
1.40001
1.40001
1.40001
1.40001
1.40014
1.44299
1.40001
1.40001
1.40001
1.40001
1.40001
1.40001
1.40001
1.40001
1.40001
1.40001
1.40001
1.40001
1.40001
1.40001
1.40001
1.40001
1.40001
1.40001
1.40001
1.40001
1.40001
1.40001
1.40001
1.40058
1.40001
1.40001
1.40001
1.40001
1.40001
1.40001
1.40001
1.40001
1.40001
1.40001
1.40001
1.40001
1.40001
1.40001
1.40001
1.40001
1.40001
1.40001
1.40001
1.40001
1.40001
1.40001
1.40001
1.40001
1.40001
1.40001
1.40001
1.40001
1.40001
1.40001
1.40001
1.40001
1.40001
1.40001
1.40001
1.40001
1.40001
1.40001
1.40001
1.40001
1.40001
1.40001
1.40001
1.40001
1.40001
1.40001
1.40001
1.40001
1.40001
1.40001
1.40001
1.40001
1.40001
1.40001
1.40001
1.40001
1.40001
1.40001
1.40001
1.40001
1.40001
1.40001
1.40001
1.40001
1.40001
1.40001
1.40001
1.40001
1.40001
1.40001
1.40001
1.40001
1.40001
1.40001
1.40001
1.40001
1.40001
1.40001
1.40001
1.40001
1.40001
1.40001
1.40001
1.40001
1.40001
1.40001
1.40001
1.40001
1.40001
1.40001
1.40001
1.40001
1.40001
1.40001
1.40001
1.40001
1.40001
1.40001
1.40001
1.40001
1.40001
1.40001
1.40001
1.40001
1.40001
1.40001
1.40001
1.40001
1.40001
1.40001
1.40001
1.40001
1.40001
1.40001
1.40001
1.40001
1.40001
1.40001
1.40001
1.40001
1.40001
1.40001
1.40001
1.40001
1.40001
1.40001
1.40001
1.40001
1.40001
1.40001
1.40001
1.40001
1.40001
1.40001
1.40001
1.40001
1.40001
1.40001
1.40001
1.40001
1.40001
1.40001
1.40001
1.40001
1.40001
1.40001
1.40001
1.40001
1.40001
1.40001
1.40001
1.40001
1.40001
1.40001
1.40001
1.40001
1.40001
1.40001
1.40001
1.40001
1.40001
1.40001
1.40001
1.40001
1.40001
1.40001
1.40001
1.40001
1.40001
1.40001
1.40001
1.40001
1.40001
1.40001
1.40001
1.40001
1.40001
1.40001
1.40001
1.40001
1.40001
1.40001
1.40001
1.40001
1.40001
1.40001
1.40001
1.40001
1.40001
1.40001
1.40001
1.40001
1.40001
1.40001
1.40001
1.40001
1.40001
1.40001
1.40001
1.40001
1.40001
1.40001
1.40001
1.40001
1.40001
1.40001
1.40001
1.40001
1.40001
1.40001
1.40001
1.40001
1.40001
1.40001
1.40001
1.40001
1.40001
1.40001
1.40001
1.40001
1.40001
1.40001
1.40001
1.40001
1.40001
1.40001
1.40001
1.40001
1.40001
1.40001
1.40001
1.40001
1.40001
1.40001
1.40001
1.40001
1.40001
1.40001
1.40001
1.40001
1.24453
0.497356
0.175161
0.158108
0.19965
0.274031
0.354831
0.451611
0.576751
0.680897
0.705249
0.724149
0.750493
0.781548
0.82643
0.891663
0.929234
0.924752
0.904882
0.885008
0.883495
0.886442
0.891693
0.897971
0.897291
0.890725
0.882713
0.877074
0.872828
0.868495
0.865077
0.862292
0.860026
0.859751
0.863242
0.86358
0.861081
0.856944
0.850951
0.84358
0.836841
0.833386
0.830822
0.826754
0.820383
0.813967
0.808767
0.80369
0.796741
0.788185
0.780851
0.775656
0.770563
0.763494
0.754899
0.746962
0.739232
0.730263
0.719164
0.706577
0.695814
0.689467
0.68624
0.683389
0.679233
0.67349
0.668016
0.662557
0.656006
0.652279
0.651159
0.650212
0.649149
0.648532
0.648814
0.649025
0.648775
0.646558
0.64117
0.636493
0.635129
0.636862
0.639922
0.644656
0.652822
0.663614
0.674561
0.685952
0.695785
0.701254
0.705368
0.708719
0.711367
0.713946
0.716121
0.720595
1.86173
1.17702
0.793048
0.587702
0.571211
0.546637
0.509424
0.513627
0.527326
0.562192
0.598804
0.635477
0.676805
0.727967
0.783325
0.838116
0.892187
0.910073
0.903833
0.900675
0.908836
0.917233
0.922649
0.922108
0.917173
0.909606
0.903232
0.899239
0.896614
0.894495
0.891944
0.887764
0.883424
0.879877
0.875726
0.871955
0.869088
0.865714
0.861545
0.856756
0.851435
0.847264
0.843553
0.838969
0.833395
0.827381
0.821438
0.815414
0.807687
0.798071
0.789217
0.781911
0.775542
0.769252
0.762505
0.756382
0.750748
0.744204
0.734341
0.719955
0.705944
0.697515
0.693701
0.690674
0.687385
0.68413
0.680672
0.676023
0.669176
0.660627
0.654794
0.651894
0.649799
0.649196
0.649666
0.652013
0.656581
0.661298
0.664828
0.666459
0.669578
0.677938
0.691032
0.710239
0.736569
0.766982
0.797398
0.827294
0.855067
0.86875
0.873489
0.876226
0.877349
0.874945
0.87068
0.872814
2.39051
1.71857
1.347
1.09063
0.923141
0.803524
0.677665
0.636247
0.620791
0.604127
0.622176
0.669758
0.709994
0.743176
0.776507
0.815122
0.860617
0.909105
0.934083
0.95595
0.980511
0.999268
0.999899
0.994012
0.989945
0.982431
0.970814
0.956508
0.943591
0.939562
0.937687
0.933206
0.928162
0.925119
0.921273
0.915983
0.912216
0.909246
0.905908
0.901718
0.895849
0.891864
0.888792
0.883856
0.876136
0.867482
0.859125
0.851854
0.843972
0.833947
0.823635
0.814473
0.805949
0.79818
0.791481
0.785429
0.780118
0.775102
0.768322
0.755722
0.734632
0.717144
0.711375
0.707596
0.704796
0.703034
0.700605
0.697642
0.693302
0.685916
0.678754
0.677024
0.677096
0.680865
0.690796
0.709287
0.737195
0.773621
0.81272
0.84242
0.863791
0.881469
0.898204
0.916974
0.937988
0.960718
0.983943
1.00974
1.03807
1.05386
1.05596
1.0566
1.05523
1.04689
1.03346
1.02383
2.72564
2.18818
1.76246
1.47433
1.28073
1.11208
0.965413
0.876515
0.837843
0.777312
0.727453
0.732032
0.729889
0.719383
0.725909
0.743635
0.777962
0.831526
0.887122
0.930189
0.965897
1.00218
1.00713
1.00745
1.01809
1.03243
1.03253
1.02442
1.01057
1.00409
0.998272
0.990191
0.982101
0.976648
0.970647
0.962303
0.956078
0.954091
0.95286
0.951464
0.948227
0.943858
0.940133
0.936028
0.929275
0.919854
0.909388
0.900679
0.893042
0.88375
0.873996
0.865053
0.855681
0.846385
0.838325
0.831905
0.826256
0.819994
0.812087
0.800748
0.78179
0.763082
0.753279
0.746528
0.741716
0.738744
0.736358
0.734751
0.732798
0.730924
0.736337
0.751703
0.779585
0.818773
0.866328
0.917981
0.968829
1.01948
1.06306
1.09428
1.10927
1.11474
1.11447
1.10824
1.10373
1.10314
1.10714
1.11914
1.13428
1.1435
1.14521
1.14427
1.14019
1.13076
1.11994
1.1045
2.96263
2.52342
2.12723
1.81949
1.58892
1.389
1.21184
1.11502
1.03895
0.960553
0.875644
0.838585
0.809002
0.767186
0.740546
0.747684
0.758054
0.770201
0.796072
0.836772
0.887486
0.945333
0.976297
0.992346
1.00654
1.02798
1.03638
1.03243
1.03294
1.04152
1.04735
1.04636
1.04093
1.03297
1.02175
1.0062
0.991622
0.985595
0.984644
0.983863
0.982268
0.980055
0.979646
0.979113
0.975154
0.964671
0.953277
0.944067
0.935665
0.92721
0.918811
0.909987
0.900012
0.889801
0.881574
0.875913
0.870934
0.865179
0.85659
0.844422
0.827513
0.809352
0.796985
0.79193
0.790026
0.793321
0.804646
0.826955
0.857855
0.896715
0.943872
0.996714
1.05119
1.10081
1.1417
1.17576
1.19942
1.21487
1.22993
1.24051
1.23981
1.23477
1.2237
1.20864
1.19447
1.18473
1.18044
1.18081
1.1842
1.18643
1.18646
1.18353
1.17798
1.17136
1.16651
1.15648
3.13093
2.74757
2.38354
2.0949
1.85523
1.64596
1.45563
1.33241
1.22805
1.13585
1.05581
0.995927
0.95274
0.910218
0.845017
0.823095
0.817413
0.804173
0.790693
0.792379
0.806935
0.831827
0.864363
0.901113
0.934804
0.973822
1.00723
1.0185
1.02634
1.03953
1.05081
1.0516
1.04926
1.0484
1.04827
1.04327
1.03204
1.02203
1.01753
1.01508
1.01119
1.00564
1.0006
0.997261
0.991572
0.978625
0.968659
0.964483
0.961626
0.958971
0.954669
0.948061
0.939185
0.927943
0.91617
0.905677
0.897192
0.888409
0.879204
0.870126
0.861443
0.852355
0.853356
0.862975
0.884273
0.923484
0.984938
1.05619
1.12844
1.19696
1.2465
1.28617
1.30756
1.31477
1.31671
1.31176
1.30633
1.30213
1.30019
1.29682
1.29152
1.28195
1.27289
1.26311
1.25279
1.24529
1.23748
1.22554
1.21463
1.20913
1.20489
1.20174
1.20049
1.20272
1.20704
1.20412
3.26058
2.92113
2.58474
2.31005
2.08515
1.85664
1.66781
1.54032
1.41905
1.30659
1.22305
1.14538
1.07088
1.02318
0.968274
0.910684
0.888902
0.868093
0.833135
0.806347
0.812864
0.810595
0.805919
0.810913
0.830471
0.8647
0.906828
0.950583
0.981575
1.01032
1.04096
1.04243
1.04541
1.04973
1.05094
1.05055
1.04621
1.04311
1.0419
1.04052
1.03555
1.02581
1.01608
1.0072
0.999367
0.987576
0.976096
0.971216
0.96961
0.969468
0.968177
0.964667
0.959486
0.950997
0.938733
0.923854
0.911294
0.899813
0.895102
0.899843
0.918092
0.957613
1.01944
1.09112
1.16462
1.23752
1.2994
1.33803
1.37386
1.4003
1.41458
1.41351
1.40724
1.39531
1.38198
1.36646
1.34976
1.33632
1.32373
1.31576
1.30885
1.30362
1.30697
1.30972
1.30353
1.29144
1.27096
1.24376
1.21887
1.21022
1.20863
1.20919
1.21945
1.2406
1.24963
1.24401
3.36426
3.05637
2.75275
2.48707
2.26533
2.04393
1.86128
1.7217
1.58864
1.45334
1.3763
1.30316
1.21173
1.14525
1.09478
1.02313
0.984072
0.966343
0.935188
0.883312
0.865531
0.848606
0.823103
0.808413
0.805647
0.810093
0.821439
0.845697
0.884156
0.926612
0.976202
1.00876
1.01923
1.02631
1.03661
1.04679
1.04638
1.04358
1.04539
1.04516
1.04046
1.03173
1.02485
1.01707
1.00893
0.998749
0.988935
0.979787
0.972675
0.970232
0.968558
0.966477
0.964074
0.958349
0.948603
0.935229
0.932972
0.944417
0.980003
1.04642
1.14397
1.25057
1.347
1.40956
1.45985
1.48761
1.484
1.477
1.46932
1.46512
1.45938
1.44987
1.43844
1.42615
1.40956
1.38828
1.36205
1.33425
1.31977
1.31576
1.3154
1.33041
1.34156
1.33564
1.324
1.30509
1.27079
1.23629
1.22123
1.21728
1.21576
1.2232
1.25179
1.27675
1.27995
1.2715
3.45439
3.17493
2.89322
2.64959
2.43138
2.20959
2.02959
1.88448
1.75015
1.60786
1.51302
1.43336
1.3382
1.25782
1.21326
1.14886
1.08262
1.0527
1.01842
0.958631
0.917733
0.89468
0.863852
0.825629
0.815299
0.817757
0.823033
0.82276
0.82783
0.844421
0.871794
0.907445
0.939757
0.964834
0.990084
1.00996
1.02631
1.03954
1.04277
1.04227
1.03794
1.02837
1.02173
1.02034
1.01778
1.01213
1.00397
0.994782
0.98422
0.974568
0.96879
0.965326
0.963063
0.963215
0.976921
1.01381
1.08125
1.17763
1.2952
1.39112
1.4687
1.53359
1.55524
1.56455
1.56633
1.55832
1.54012
1.51766
1.4946
1.482
1.47254
1.46434
1.45298
1.43623
1.41136
1.38021
1.355
1.33198
1.32137
1.32161
1.33486
1.33927
1.33368
1.32735
1.31896
1.30388
1.27311
1.23844
1.22869
1.22757
1.23328
1.25871
1.29166
1.30239
1.30182
1.29451
3.53895
3.2806
3.02129
2.7885
2.57134
2.35917
2.18832
2.03979
1.88492
1.74084
1.64953
1.56429
1.4648
1.3672
1.31457
1.25409
1.18342
1.14825
1.11644
1.05738
1.00124
0.977283
0.949815
0.89667
0.869228
0.868327
0.856536
0.837631
0.830564
0.831349
0.833087
0.835997
0.845382
0.868025
0.906825
0.943773
0.973385
1.00293
1.0242
1.03285
1.032
1.02393
1.01359
1.01223
1.01293
1.01749
1.01551
1.01036
1.00042
0.98698
0.974801
0.97716
0.998441
1.06209
1.18208
1.30813
1.42689
1.54232
1.59944
1.62518
1.63658
1.62599
1.61223
1.6013
1.59023
1.57284
1.55001
1.52567
1.50206
1.47459
1.45361
1.44197
1.43045
1.41418
1.39553
1.37215
1.35272
1.33874
1.33346
1.33943
1.33943
1.33203
1.32305
1.31544
1.30965
1.29978
1.28094
1.26374
1.25717
1.25761
1.27172
1.29356
1.30693
1.31086
1.31056
1.30636
3.61861
3.37191
3.13209
2.91514
2.70318
2.49707
2.32468
2.17328
2.02068
1.88069
1.77287
1.67421
1.56725
1.4843
1.4272
1.36132
1.27341
1.22862
1.19843
1.14827
1.09183
1.06127
1.02859
0.97648
0.930058
0.916782
0.899461
0.869353
0.842281
0.840616
0.841175
0.835627
0.834488
0.837889
0.848303
0.867516
0.890102
0.918177
0.948074
0.972975
0.993108
0.996864
0.994364
0.996687
1.00596
1.01573
1.01917
1.01845
1.01435
1.0151
1.04544
1.12093
1.25339
1.41238
1.52819
1.61035
1.67379
1.69534
1.69577
1.68808
1.66616
1.63587
1.61469
1.60731
1.59046
1.56806
1.54592
1.51993
1.48788
1.46047
1.44297
1.4269
1.41286
1.39999
1.38254
1.37697
1.37202
1.3653
1.35292
1.33731
1.32983
1.32335
1.31613
1.30889
1.30405
1.3037
1.30122
1.29306
1.29087
1.29489
1.30529
1.31041
1.31188
1.31511
1.31745
1.31542
3.68362
3.45359
3.23221
3.02637
2.81661
2.61864
2.45597
2.30135
2.13417
2.00197
1.89467
1.78903
1.66732
1.58582
1.52834
1.46124
1.37658
1.3254
1.28723
1.22948
1.16401
1.13488
1.10767
1.06455
1.01291
0.99369
0.975598
0.943281
0.898643
0.889198
0.884105
0.866987
0.846948
0.840348
0.84217
0.838447
0.834715
0.839647
0.85602
0.880417
0.905497
0.93054
0.954985
0.972947
0.993063
1.00903
1.02041
1.03603
1.08508
1.20254
1.35754
1.51104
1.62157
1.70176
1.71886
1.72371
1.72399
1.71899
1.71276
1.69436
1.66677
1.62268
1.59913
1.58089
1.55962
1.53883
1.52462
1.50982
1.48381
1.44868
1.43038
1.41811
1.40318
1.39365
1.39322
1.39589
1.38872
1.36506
1.34408
1.33212
1.3243
1.31793
1.31275
1.31015
1.31479
1.32164
1.32104
1.3178
1.31802
1.31938
1.31532
1.31034
1.30847
1.31436
1.32483
1.3254
3.75948
3.53885
3.32528
3.12267
2.92077
2.73071
2.56473
2.41009
2.24973
2.1149
2.00238
1.89299
1.76631
1.68592
1.62556
1.55306
1.46184
1.41228
1.37466
1.32106
1.24694
1.20678
1.17696
1.13364
1.08154
1.06054
1.04363
1.01395
0.970603
0.946309
0.932427
0.909837
0.873592
0.85054
0.849577
0.845033
0.834014
0.832266
0.834848
0.838757
0.845215
0.853533
0.874009
0.903838
0.94299
0.979399
1.05096
1.18314
1.3857
1.59113
1.69802
1.7511
1.78195
1.78305
1.7681
1.74475
1.7336
1.72489
1.70027
1.66547
1.63125
1.59348
1.56995
1.5533
1.5362
1.52318
1.51368
1.50274
1.47984
1.4431
1.4235
1.41629
1.41209
1.41286
1.41504
1.41026
1.39252
1.36032
1.33606
1.32914
1.32512
1.32219
1.32091
1.32498
1.33765
1.34147
1.33778
1.32957
1.32382
1.32028
1.31422
1.30961
1.30843
1.31743
1.33292
1.33523
3.8185
3.61019
3.41058
3.21729
3.02156
2.83644
2.67282
2.51855
2.36091
2.22262
2.10463
1.99458
1.87768
1.78785
1.71585
1.64347
1.5604
1.50213
1.45707
1.3992
1.32445
1.28222
1.25314
1.20956
1.14866
1.12622
1.10967
1.08056
1.03891
1.00965
0.996139
0.974301
0.933162
0.893586
0.888325
0.882192
0.86312
0.842738
0.841623
0.842355
0.834288
0.824856
0.826973
0.841736
0.889058
1.03935
1.27216
1.48704
1.66075
1.72963
1.75671
1.77036
1.78314
1.77875
1.7622
1.7363
1.70848
1.69872
1.67961
1.64858
1.6175
1.59314
1.57305
1.55123
1.53236
1.52086
1.51188
1.5008
1.48022
1.45155
1.4375
1.43208
1.42719
1.42048
1.41377
1.40602
1.38934
1.3544
1.33839
1.33385
1.33137
1.3311
1.33633
1.34798
1.35621
1.35201
1.3388
1.3258
1.31865
1.31637
1.31475
1.31273
1.31576
1.33554
1.34808
1.34762
3.90535
3.70382
3.50305
3.30769
3.1262
2.94719
2.77314
2.61398
2.47056
2.33255
2.20713
2.08849
1.9855
1.89404
1.81083
1.73103
1.64548
1.58833
1.54048
1.48572
1.41034
1.35557
1.32466
1.28029
1.21927
1.1939
1.17887
1.15455
1.10919
1.0664
1.04779
1.02394
0.986126
0.943701
0.932191
0.924296
0.90469
0.872984
0.860229
0.85601
0.843223
0.838029
0.867166
0.973975
1.15161
1.38223
1.52621
1.61567
1.67229
1.68625
1.68965
1.68832
1.69836
1.70527
1.68181
1.65272
1.63608
1.63075
1.63491
1.65234
1.64426
1.62934
1.60846
1.57766
1.54909
1.53211
1.51922
1.50678
1.49561
1.48625
1.47385
1.45929
1.44725
1.43507
1.42175
1.40662
1.38994
1.36886
1.3527
1.34726
1.34607
1.34854
1.35671
1.36368
1.36313
1.35514
1.33696
1.31995
1.31664
1.31698
1.32003
1.32476
1.33545
1.35498
1.36069
1.35853
4.00872
3.80399
3.60406
3.41418
3.23847
3.06248
2.88245
2.72435
2.59085
2.4546
2.31027
2.18562
2.09835
2.00529
1.91178
1.82808
1.74937
1.675
1.61467
1.56071
1.49087
1.43945
1.40483
1.36266
1.29523
1.25041
1.23833
1.21683
1.17603
1.13202
1.10831
1.08302
1.04592
0.998279
0.98507
0.977819
0.95942
0.927065
0.909983
0.908852
0.932074
1.00461
1.17458
1.37015
1.53344
1.62608
1.6299
1.63639
1.64052
1.62077
1.58674
1.55418
1.54951
1.54969
1.5299
1.52337
1.53076
1.5412
1.56114
1.58988
1.61597
1.6203
1.61217
1.59777
1.5765
1.55174
1.53271
1.52404
1.5203
1.5147
1.50039
1.48245
1.46645
1.45004
1.42696
1.40976
1.40034
1.38925
1.37325
1.36244
1.35807
1.35799
1.36272
1.36481
1.36263
1.35738
1.34723
1.32898
1.32191
1.32268
1.33044
1.34607
1.36389
1.37107
1.36867
1.36505
4.10966
3.89887
3.69779
3.50573
3.3342
3.17232
2.99687
2.82622
2.69225
2.56776
2.42977
2.29551
2.199
2.10701
2.01361
1.92656
1.85604
1.77216
1.69514
1.64119
1.57241
1.50824
1.47867
1.44297
1.38622
1.33258
1.30749
1.27901
1.22807
1.18234
1.16462
1.1437
1.1107
1.06369
1.04399
1.02775
1.0092
0.979587
0.986569
1.04707
1.21312
1.44346
1.64086
1.73838
1.76423
1.72415
1.67009
1.64229
1.61749
1.58681
1.55201
1.52713
1.50772
1.48772
1.45972
1.43176
1.42715
1.42964
1.44294
1.47339
1.51283
1.54501
1.56452
1.56591
1.55616
1.53733
1.53285
1.53364
1.53973
1.53233
1.5185
1.50504
1.4848
1.45155
1.41596
1.40546
1.40277
1.39872
1.39047
1.37752
1.36256
1.35563
1.35184
1.34927
1.34794
1.35234
1.35401
1.34385
1.33363
1.33446
1.34779
1.35951
1.35998
1.35628
1.35384
1.35237
4.19881
4.01276
3.80092
3.61762
3.44442
3.27444
3.10426
2.94504
2.80513
2.66853
2.51897
2.40139
2.31112
2.21897
2.11705
2.02786
1.95577
1.87001
1.77915
1.71814
1.66012
1.58926
1.54455
1.5104
1.46263
1.40668
1.37832
1.34907
1.29666
1.2361
1.21479
1.19643
1.16669
1.12589
1.10545
1.08914
1.08885
1.13889
1.293
1.53018
1.73075
1.88714
1.94463
1.92866
1.86228
1.75902
1.68918
1.65191
1.62471
1.59901
1.57129
1.54172
1.51276
1.48616
1.45589
1.42822
1.4177
1.40982
1.40332
1.40165
1.40619
1.417
1.42683
1.44212
1.46139
1.46746
1.46854
1.47443
1.48785
1.51313
1.52205
1.51761
1.49712
1.45758
1.43054
1.41549
1.40756
1.40315
1.39654
1.38471
1.3652
1.34839
1.33902
1.33479
1.33383
1.33741
1.34842
1.34835
1.34151
1.33666
1.33351
1.33614
1.33867
1.33929
1.34074
1.34489
4.13601
4.0959
3.91329
3.71778
3.5471
3.38612
3.22425
3.05885
2.90933
2.77969
2.6468
2.52228
2.40884
2.30714
2.20715
2.12956
2.05666
1.97591
1.87116
1.7972
1.74966
1.67902
1.61572
1.58401
1.54128
1.47952
1.44297
1.41291
1.36733
1.30587
1.27623
1.25437
1.22274
1.18599
1.17225
1.21471
1.34795
1.61761
1.8682
2.00151
2.0865
2.09168
2.0594
1.99197
1.89601
1.80848
1.74414
1.70209
1.67218
1.64777
1.6274
1.60509
1.5803
1.55145
1.51612
1.4821
1.45033
1.423
1.40841
1.39785
1.39407
1.38673
1.37865
1.37692
1.37406
1.37059
1.36874
1.37248
1.39033
1.41291
1.4398
1.46268
1.46571
1.4598
1.4541
1.44094
1.42474
1.4056
1.39002
1.37496
1.35658
1.34296
1.3331
1.32536
1.32501
1.34076
1.35094
1.34608
1.328
1.31266
1.30581
1.30446
1.30675
1.31189
1.31921
1.3426
3.53682
4.09512
4.04568
3.85533
3.65538
3.47793
3.32401
3.17798
3.02993
2.87726
2.75258
2.64569
2.53223
2.41886
2.30187
2.21836
2.14225
2.06399
1.9719
1.89
1.84014
1.77141
1.69457
1.6572
1.6188
1.55604
1.50924
1.47468
1.43218
1.3722
1.33396
1.31792
1.29949
1.32056
1.43161
1.66799
1.95245
2.21607
2.2291
2.22995
2.21135
2.15931
2.0953
2.02152
1.95117
1.88428
1.81924
1.76593
1.72509
1.70477
1.68883
1.6699
1.64644
1.61752
1.58391
1.54433
1.50297
1.46706
1.43884
1.41764
1.39913
1.37857
1.36317
1.35442
1.34914
1.34483
1.32916
1.30396
1.29678
1.3034
1.32187
1.34801
1.38886
1.42214
1.4215
1.40213
1.39446
1.39378
1.38926
1.37493
1.35478
1.34444
1.33806
1.32783
1.32623
1.32765
1.3242
1.3165
1.30246
1.2838
1.27392
1.27084
1.27134
1.28204
1.29637
1.31839
2.18329
3.64967
4.0431
3.99147
3.80034
3.59584
3.43212
3.2823
3.13354
2.99197
2.87385
2.75871
2.6416
2.5115
2.40142
2.32602
2.24547
2.15597
2.04748
1.97817
1.9303
1.86691
1.78607
1.73806
1.69612
1.63342
1.58147
1.54238
1.50159
1.45151
1.40478
1.42622
1.54104
1.80781
2.10639
2.36568
2.45839
2.42219
2.37271
2.31663
2.25959
2.19201
2.11596
2.05503
2.0056
1.96077
1.91178
1.85853
1.81403
1.7808
1.75325
1.72656
1.69718
1.66853
1.64136
1.61075
1.57408
1.53154
1.48695
1.44754
1.41898
1.39921
1.38132
1.36419
1.34949
1.33454
1.31992
1.30074
1.27051
1.2612
1.26068
1.26378
1.28365
1.31885
1.32905
1.33065
1.33816
1.34717
1.34378
1.33509
1.3337
1.34169
1.35187
1.3478
1.33766
1.3266
1.31495
1.30008
1.28121
1.26112
1.25129
1.24711
1.2446
1.25117
1.27613
1.30043
1.47877
2.35134
3.69802
3.98468
3.9345
3.74652
3.54927
3.39334
3.25439
3.10776
2.97296
2.86447
2.7588
2.63148
2.5103
2.41636
2.33123
2.2501
2.15635
2.08005
2.01963
1.95096
1.87115
1.82423
1.78589
1.71884
1.65288
1.60978
1.57299
1.57109
1.64936
1.90738
2.25257
2.60018
2.67029
2.68272
2.63247
2.53926
2.46131
2.38625
2.30798
2.23003
2.14795
2.10951
2.08164
2.05288
2.02013
1.96363
1.89188
1.84259
1.80938
1.77957
1.74872
1.71564
1.68318
1.65406
1.62632
1.59482
1.55517
1.50528
1.46496
1.44367
1.42404
1.403
1.38326
1.36359
1.3456
1.31902
1.27318
1.25157
1.24892
1.24904
1.25275
1.25043
1.24782
1.24648
1.24309
1.24736
1.26226
1.27632
1.28843
1.30548
1.32288
1.32309
1.31169
1.29873
1.28783
1.275
1.25786
1.2411
1.23629
1.23512
1.2338
1.23665
1.25454
1.26911
1.40149
1.51877
2.47237
3.68038
3.94121
3.89575
3.71441
3.51421
3.35329
3.22248
3.09866
2.98054
2.858
2.72907
2.63013
2.53762
2.43959
2.32629
2.23493
2.18149
2.11875
2.04888
1.96279
1.89767
1.86009
1.79883
1.73922
1.71132
1.77039
1.99935
2.36622
2.74248
2.88313
2.95232
2.90489
2.82239
2.72298
2.62007
2.52126
2.4218
2.3167
2.25462
2.22598
2.20314
2.18051
2.14897
2.10605
2.03936
1.96466
1.90831
1.86648
1.83161
1.79711
1.7581
1.72185
1.69388
1.67041
1.64511
1.61246
1.56791
1.51763
1.482
1.45713
1.43469
1.41454
1.39318
1.3668
1.33633
1.29543
1.25967
1.25137
1.24896
1.24373
1.23751
1.23302
1.22218
1.2042
1.19396
1.19455
1.20399
1.22581
1.25424
1.26695
1.26326
1.25602
1.24901
1.24365
1.23665
1.22728
1.22067
1.21744
1.21615
1.21955
1.2329
1.24322
1.24394
1.40001
1.40281
1.55499
2.51854
3.65875
3.90876
3.86268
3.67839
3.48762
3.32476
3.20057
3.09709
2.97882
2.84499
2.72752
2.63476
2.54131
2.42931
2.34127
2.2769
2.20642
2.13331
2.05184
1.99024
1.94694
1.88484
1.92161
2.13112
2.5333
2.96802
3.11919
3.19806
3.16591
3.09863
3.00306
2.89414
2.78431
2.67016
2.55829
2.45231
2.37993
2.35119
2.32412
2.28755
2.24879
2.20471
2.15349
2.09786
2.04445
1.98929
1.93522
1.89117
1.84454
1.79354
1.76799
1.74758
1.72399
1.69388
1.654
1.60706
1.56296
1.53121
1.50836
1.48647
1.4631
1.43836
1.41201
1.38166
1.34023
1.28958
1.26238
1.25123
1.2423
1.23647
1.23133
1.22071
1.20064
1.17851
1.17016
1.17009
1.18124
1.19813
1.19697
1.19304
1.19126
1.18807
1.18805
1.18606
1.18247
1.18323
1.18579
1.18935
1.19849
1.21429
1.22103
1.21757
1.40001
1.40002
1.40427
1.57718
2.51867
3.64646
3.85416
3.80258
3.64267
3.45476
3.31305
3.20348
3.08059
2.95118
2.84615
2.75204
2.64631
2.52368
2.44861
2.38439
2.30567
2.22514
2.13351
2.08489
2.11429
2.29278
2.7224
3.18435
3.47529
3.55819
3.45601
3.33556
3.21714
3.09903
2.99438
2.90717
2.83229
2.75454
2.67059
2.58818
2.50888
2.45361
2.40773
2.35564
2.29747
2.23584
2.19089
2.15986
2.12614
2.08151
2.01508
1.93795
1.87751
1.83929
1.81849
1.80004
1.7787
1.7498
1.70354
1.6407
1.59117
1.55625
1.52941
1.51148
1.49723
1.47745
1.4454
1.41175
1.38004
1.34662
1.3125
1.28303
1.26013
1.2418
1.22827
1.21788
1.20295
1.17832
1.16636
1.16389
1.166
1.16574
1.15923
1.15516
1.14962
1.14116
1.13298
1.13222
1.13373
1.13731
1.14567
1.15809
1.1729
1.18386
1.18549
1.18024
1.40001
1.40001
1.40003
1.40548
1.58231
2.51067
3.59506
3.78018
3.75078
3.61961
3.44485
3.31624
3.19058
3.05914
2.95777
2.86708
2.75574
2.6379
2.56393
2.47989
2.40705
2.32016
2.29417
2.43639
2.8844
3.40955
3.81899
3.99256
3.90418
3.73574
3.56166
3.38419
3.23439
3.11473
3.03802
2.98165
2.93264
2.88048
2.80885
2.71338
2.61584
2.5413
2.48176
2.42026
2.35614
2.29987
2.2591
2.22507
2.18635
2.13778
2.06763
1.98348
1.92384
1.88916
1.86492
1.84258
1.81979
1.79185
1.74911
1.68418
1.62751
1.60543
1.58535
1.56079
1.5396
1.5185
1.48754
1.44511
1.39808
1.36363
1.3454
1.3263
1.30218
1.2769
1.24929
1.22099
1.19518
1.18192
1.17646
1.17059
1.16324
1.15574
1.14871
1.13967
1.12639
1.11097
1.09694
1.09338
1.09318
1.09551
1.10282
1.11094
1.12082
1.13178
1.13517
1.13117
1.40001
1.40001
1.40001
1.40004
1.40599
1.57868
2.47323
3.47056
3.72756
3.72447
3.60981
3.46045
3.31014
3.16494
3.06996
2.9785
2.86117
2.75845
2.67329
2.59307
2.54498
2.64118
3.0567
3.61727
4.18371
4.31371
4.22613
4.11489
3.9423
3.77882
3.6239
3.46686
3.34024
3.24219
3.16494
3.097
3.03502
2.97389
2.89676
2.79866
2.69112
2.60203
2.53903
2.48261
2.43035
2.38036
2.32971
2.28109
2.22803
2.16579
2.09276
2.02438
1.97338
1.9355
1.90515
1.87486
1.84123
1.80542
1.76672
1.72151
1.67464
1.62606
1.57959
1.5465
1.5265
1.5178
1.51163
1.49356
1.45738
1.40545
1.35798
1.32743
1.30713
1.28762
1.26621
1.24046
1.2053
1.17738
1.17365
1.17345
1.16589
1.15516
1.14606
1.13417
1.11926
1.10068
1.08803
1.08215
1.07522
1.07144
1.07053
1.06833
1.06788
1.07154
1.07534
1.07301
1.40001
1.40001
1.40001
1.40001
1.40004
1.40591
1.56212
2.35949
3.31787
3.70775
3.70186
3.61646
3.46267
3.28793
3.17091
3.09213
2.95851
2.87285
2.79963
2.87189
3.23895
3.937
4.50509
4.7293
4.75991
4.64792
4.42893
4.19537
4.01172
3.86235
3.73717
3.60079
3.4623
3.36006
3.27787
3.20438
3.1309
3.05286
2.96635
2.87361
2.77457
2.67442
2.59567
2.53719
2.48467
2.43178
2.37771
2.32266
2.26048
2.19758
2.14262
2.08217
2.0214
1.97325
1.93944
1.90832
1.87109
1.82718
1.79314
1.76616
1.71876
1.65585
1.59052
1.55903
1.54677
1.53389
1.51215
1.48328
1.45313
1.42529
1.3886
1.35942
1.34014
1.32137