/*--------------------------------*- C++ -*----------------------------------*\
  =========                 |
  \\      /  F ield         | OpenFOAM: The Open Source CFD Toolbox
   \\    /   O peration     | Website:  https://openfoam.org
    \\  /    A nd           | Version:  7
     \\/     M anipulation  |
\*---------------------------------------------------------------------------*/
FoamFile
{
    version     2.0;
    format      ascii;
    class       volScalarField;
    location    "2.6";
    object      p;
}
// * * * * * * * * * * * * * * * * * * * * * * * * * * * * * * * * * * * * * //

dimensions      [1 -1 -2 0 0 0 0];

internalField   nonuniform List<scalar> 
64512
(
1
1
1
1
1
1
1
1
1
1
1
1
1
1
1
1
1
1
1
1
1
1
1
1
1
1
1
1
1
1
1
1
1
1
1
1
1
1
1
1
1
1
1
1
1
1
1
1
1
3.91327
10.0182
10.4562
10.5039
10.5579
10.6053
10.6554
10.7114
10.7748
10.8408
10.9033
10.9594
11.012
11.0631
11.1139
11.1658
11.2167
11.264
11.3076
11.3495
11.3895
11.4291
11.4698
11.5114
11.5538
11.5966
11.6377
11.6751
11.7079
11.7366
11.7637
11.7917
11.8215
11.8513
11.8777
11.8982
11.9129
11.9244
11.9365
11.9514
11.9698
11.9909
12.0118
12.0293
12.0433
12.053
12.0582
1
1
1
1
1
1
1
1
1
1
1
1
1
1
1
1
1
1
1
1
1
1
1
1
1
1
1
1
1
1
1
1
1
1
1
1
1
1
1
1
1
1
1
1
1
1
1
1
1
3.88667
9.99754
10.4496
10.5019
10.5607
10.6085
10.6577
10.7124
10.7745
10.8395
10.9018
10.9578
11.0101
11.061
11.1119
11.1637
11.215
11.2632
11.3077
11.3496
11.3888
11.4277
11.4678
11.5092
11.5516
11.5943
11.6352
11.6724
11.7052
11.7343
11.7617
11.7898
11.8193
11.8487
11.8749
11.8954
11.9105
11.9225
11.9348
11.9494
11.9673
11.9877
12.0081
12.0254
12.0395
12.0497
12.0551
1
1
1
1
1
1
1
1
1
1
1
1
1
1
1
1
1
1
1
1
1
1
1
1
1
1
1
1
1
1
1
1
1
1
1
1
1
1
1
1
1
1
1
1
1
1
1
1
1
3.81716
9.96229
10.4373
10.4976
10.5636
10.6134
10.6615
10.7138
10.7735
10.8367
10.898
10.9535
11.0059
11.0568
11.1078
11.1596
11.2115
11.2611
11.3064
11.3486
11.387
11.4247
11.464
11.505
11.5474
11.5902
11.6309
11.668
11.7008
11.7303
11.7582
11.7865
11.8157
11.8446
11.8703
11.8908
11.9064
11.919
11.9318
11.9465
11.9637
11.983
12.0023
12.019
12.0333
12.0441
12.05
1
1
1
1
1
1
1
1
1
1
1
1
1
1
1
1
1
1
1
1
1
1
1
1
1
1
1
1
1
1
1
1
1
1
1
1
1
1
1
1
1
1
1
1
1
1
1
1
1
3.69946
9.91137
10.4283
10.4941
10.5652
10.6174
10.6654
10.7157
10.7724
10.8335
10.8928
10.9472
10.9991
11.05
11.101
11.1532
11.2063
11.2575
11.3039
11.3464
11.3838
11.4203
11.4584
11.499
11.5413
11.5841
11.6248
11.6617
11.6946
11.7243
11.7526
11.781
11.81
11.8384
11.8638
11.8844
11.9005
11.914
11.9274
11.9418
11.9581
11.9759
11.9939
12.0099
12.0241
12.0354
12.0418
1
1
1
1
1
1
1
1
1
1
1
1
1
1
1
1
1
1
1
1
1
1
1
1
1
1
1
1
1
1
1
1
1
1
1
1
1
1
1
1
1
1
1
1
1
1
1
1
1
3.54537
9.83988
10.4205
10.4878
10.5624
10.6179
10.6671
10.7167
10.7716
10.8305
10.8874
10.94
10.9908
11.0412
11.0924
11.1449
11.1991
11.2517
11.2989
11.3416
11.3784
11.4139
11.451
11.4909
11.533
11.576
11.6168
11.6539
11.687
11.717
11.7455
11.7738
11.8025
11.8303
11.8554
11.8762
11.893
11.9073
11.9212
11.9355
11.9507
11.9671
11.9836
11.9988
12.0128
12.0244
12.031
1
1
1
1
1
1
1
1
1
1
1
1
1
1
1
1
1
1
1
1
1
1
1
1
1
1
1
1
1
1
1
1
1
1
1
1
1
1
1
1
1
1
1
1
1
1
1
1
1
3.35896
9.74416
10.4193
10.4842
10.5583
10.6147
10.6653
10.7153
10.7702
10.8278
10.8826
10.9327
10.9814
11.0306
11.0814
11.1343
11.1894
11.2431
11.2912
11.3347
11.3718
11.4069
11.4431
11.4821
11.5233
11.5657
11.6064
11.6436
11.6768
11.7069
11.7353
11.7634
11.7918
11.8195
11.8447
11.866
11.8835
11.8986
11.9129
11.9269
11.9413
11.9565
11.9717
11.9862
11.9996
12.0109
12.0176
1
1
1
1
1
1
1
1
1
1
1
1
1
1
1
1
1
1
1
1
1
1
1
1
1
1
1
1
1
1
1
1
1
1
1
1
1
1
1
1
1
1
1
1
1
1
1
1
1
3.14083
9.62112
10.4202
10.4823
10.5535
10.6095
10.6601
10.7098
10.7638
10.8204
10.8743
10.9231
10.9705
11.0189
11.0697
11.1231
11.1792
11.2337
11.2823
11.3262
11.3634
11.3981
11.4334
11.471
11.5109
11.5527
11.5935
11.6314
11.6652
11.6955
11.7238
11.7515
11.7794
11.8069
11.8322
11.854
11.8723
11.8879
11.9023
11.9159
11.9296
11.9439
11.9582
11.9719
11.9846
11.9951
12.0013
1
1
1
1
1
1
1
1
1
1
1
1
1
1
1
1
1
1
1
1
1
1
1
1
1
1
1
1
1
1
1
1
1
1
1
1
1
1
1
1
1
1
1
1
1
1
1
1
1
2.89684
9.46536
10.4205
10.48
10.5485
10.6035
10.6545
10.7034
10.7559
10.8111
10.8641
10.9126
10.9599
11.0079
11.0582
11.1106
11.1655
11.2192
11.2674
11.3123
11.3507
11.3864
11.4217
11.4586
11.4977
11.539
11.5798
11.6181
11.6521
11.6823
11.71
11.737
11.7644
11.7917
11.8173
11.8398
11.8588
11.875
11.8893
11.9025
11.9155
11.9292
11.9429
11.9562
11.9678
11.977
11.9825
1
1
1
1
1
1
1
1
1
1
1
1
1
1
1
1
1
1
1
1
1
1
1
1
1
1
1
1
1
1
1
1
1
1
1
1
1
1
1
1
1
1
1
1
1
1
1
1
1
2.63068
9.27588
10.4219
10.4771
10.5429
10.5963
10.6463
10.6944
10.7456
10.7996
10.8523
10.9011
10.949
10.9971
11.0466
11.0976
11.1506
11.2031
11.251
11.2967
11.3365
11.3732
11.4085
11.4447
11.4827
11.523
11.5633
11.6016
11.6358
11.6661
11.6938
11.7207
11.7479
11.7751
11.8009
11.8238
11.8431
11.8593
11.8732
11.8859
11.8986
11.912
11.9255
11.9386
11.9493
11.9571
11.9617
1
1
1
1
1
1
1
1
1
1
1
1
1
1
1
1
1
1
1
1
1
1
1
1
1
1
1
1
1
1
1
1
1
1
1
1
1
1
1
1
1
1
1
1
1
1
1
1
1
2.35016
9.04364
10.4272
10.4737
10.5356
10.5881
10.6371
10.6841
10.7338
10.7869
10.8394
10.8886
10.937
10.9852
11.034
11.0834
11.1343
11.1851
11.232
11.278
11.3187
11.3565
11.3922
11.4284
11.4659
11.5057
11.5459
11.5842
11.6185
11.6488
11.6759
11.7018
11.728
11.7545
11.7802
11.8035
11.8236
11.8402
11.8542
11.8667
11.8793
11.8926
11.9059
11.9184
11.9281
11.9341
11.9378
1
1
1
1
1
1
1
1
1
1
1
1
1
1
1
1
1
1
1
1
1
1
1
1
1
1
1
1
1
1
1
1
1
1
1
1
1
1
1
1
1
1
1
1
1
1
1
1
1
2.06883
8.75949
10.4305
10.4675
10.5271
10.5777
10.6263
10.6729
10.7218
10.7741
10.8264
10.8754
10.9233
10.9713
11.0196
11.0681
11.1173
11.1665
11.2123
11.2578
11.2986
11.3372
11.3735
11.4099
11.4471
11.4864
11.526
11.5639
11.5982
11.6283
11.6551
11.6803
11.7058
11.732
11.7579
11.7818
11.8023
11.8191
11.8328
11.8449
11.8574
11.8706
11.8838
11.8957
11.9045
11.909
11.912
1
1
1
1
1
1
1
1
1
1
1
1
1
1
1
1
1
1
1
1
1
1
1
1
1
1
1
1
1
1
1
1
1
1
1
1
1
1
1
1
1
1
1
1
1
1
1
1
1
1.80481
8.419
10.435
10.4555
10.5159
10.5647
10.6137
10.6607
10.7097
10.7616
10.8137
10.8619
10.9085
10.9558
11.0038
11.052
11.1002
11.1481
11.1923
11.2364
11.2767
11.3155
11.3525
11.3893
11.4266
11.4656
11.5047
11.5425
11.5768
11.6067
11.6328
11.6568
11.681
11.7065
11.7323
11.7567
11.7777
11.7947
11.8082
11.8201
11.8324
11.8457
11.8589
11.8705
11.8786
11.8823
11.885
1
1
1
1
1
1
1
1
1
1
1
1
1
1
1
1
1
1
1
1
1
1
1
1
1
1
1
1
1
1
1
1
1
1
1
1
1
1
1
1
1
1
1
1
1
1
1
1
1
1.55167
8.00518
10.4396
10.4433
10.5063
10.5524
10.5999
10.6463
10.6948
10.7466
10.7988
10.847
10.893
10.9391
10.9864
11.0342
11.0817
11.1286
11.1717
11.2143
11.2536
11.2922
11.3294
11.3666
11.4041
11.4427
11.4816
11.5192
11.5532
11.5826
11.6076
11.6301
11.653
11.6776
11.7036
11.7285
11.75
11.7673
11.7807
11.7926
11.8049
11.8181
11.8312
11.8422
11.8498
11.8527
11.8553
1
1
1
1
1
1
1
1
1
1
1
1
1
1
1
1
1
1
1
1
1
1
1
1
1
1
1
1
1
1
1
1
1
1
1
1
1
1
1
1
1
1
1
1
1
1
1
1
1
1.32915
7.55805
10.4237
10.4234
10.4876
10.533
10.5811
10.6279
10.6767
10.729
10.7819
10.8306
10.8763
10.9212
10.9671
11.014
11.0608
11.1072
11.1496
11.1909
11.2292
11.2672
11.3041
11.3413
11.3788
11.4174
11.4561
11.4935
11.5271
11.5556
11.5793
11.6003
11.6219
11.646
11.6722
11.6976
11.7196
11.7371
11.7505
11.7623
11.7742
11.7869
11.7995
11.8099
11.817
11.8196
11.8223
1
1
1
1
1
1
1
1
1
1
1
1
1
1
1
1
1
1
1
1
1
1
1
1
1
1
1
1
1
1
1
1
1
1
1
1
1
1
1
1
1
1
1
1
1
1
1
1
1
1.11801
7.04251
10.3805
10.4141
10.4751
10.5214
10.5686
10.6131
10.6596
10.7102
10.762
10.8107
10.8566
10.9011
10.946
10.9918
11.0377
11.0834
11.1255
11.1659
11.2033
11.2405
11.2768
11.3137
11.3512
11.3897
11.4283
11.4653
11.498
11.5253
11.5475
11.5671
11.5879
11.6118
11.6382
11.6639
11.6861
11.7037
11.7168
11.7284
11.7399
11.7519
11.7638
11.7735
11.7803
11.7829
11.7858
1
1
1
1
1
1
1
1
1
1
1
1
1
1
1
1
1
1
1
1
1
1
1
1
1
1
1
1
1
1
1
1
1
1
1
1
1
1
1
1
1
1
1
1
1
1
1
1
1
1.005
6.47981
10.2908
10.3728
10.438
10.4923
10.5432
10.5894
10.6357
10.686
10.7382
10.7878
10.8343
10.8786
10.9223
10.9667
11.0113
11.056
11.0979
11.1379
11.1748
11.2113
11.247
11.2834
11.3207
11.3591
11.3974
11.4335
11.4649
11.4906
11.5114
11.5303
11.5511
11.5753
11.6019
11.6276
11.6495
11.6668
11.6796
11.6907
11.7014
11.7127
11.7236
11.7326
11.7392
11.742
11.7452
1
1
1
1
1
1
1
1
1
1
1
1
1
1
1
1
1
1
1
1
1
1
1
1
1
1
1
1
1
1
1
1
1
1
1
1
1
1
1
1
1
1
1
1
1
1
1
1
1
1.00003
5.79861
10.1777
10.3331
10.4067
10.4688
10.5213
10.5688
10.615
10.6642
10.7157
10.7652
10.8116
10.8554
10.898
10.9409
10.984
11.0273
11.0685
11.1076
11.1438
11.1794
11.2145
11.2505
11.2874
11.3254
11.363
11.3978
11.4275
11.4515
11.4713
11.49
11.5113
11.5361
11.5627
11.5877
11.6088
11.6254
11.6379
11.6485
11.6584
11.6689
11.6788
11.6873
11.6939
11.6971
11.7006
1
1
1
1
1
1
1
1
1
1
1
1
1
1
1
1
1
1
1
1
1
1
1
1
1
1
1
1
1
1
1
1
1
1
1
1
1
1
1
1
1
1
1
1
1
1
1
1
1
1
5.04334
10.0486
10.3123
10.381
10.4458
10.4983
10.5465
10.5932
10.6427
10.6946
10.7444
10.7902
10.8334
10.8746
10.9155
10.9564
10.9975
11.0373
11.0751
11.1103
11.145
11.1799
11.2154
11.2517
11.2887
11.3249
11.3579
11.3858
11.4083
11.4273
11.4462
11.4682
11.4935
11.5199
11.544
11.5639
11.5795
11.5915
11.6017
11.6109
11.6203
11.6292
11.637
11.6434
11.6467
11.6503
1
1
1
1
1
1
1
1
1
1
1
1
1
1
1
1
1
1
1
1
1
1
1
1
1
1
1
1
1
1
1
1
1
1
1
1
1
1
1
1
1
1
1
1
1
1
1
1
1
1
4.25658
9.86428
10.2919
10.3632
10.4273
10.4781
10.5255
10.573
10.6206
10.6708
10.7204
10.7656
10.8083
10.849
10.8892
10.9287
10.968
11.0064
11.0428
11.0767
11.1097
11.1435
11.1777
11.2126
11.248
11.2823
11.3134
11.3397
11.3611
11.3798
11.3989
11.4214
11.4467
11.4724
11.4952
11.5136
11.5279
11.5391
11.5487
11.5572
11.5658
11.5739
11.5811
11.5873
11.5906
11.5944
1
1
1
1
1
1
1
1
1
1
1
1
1
1
1
1
1
1
1
1
1
1
1
1
1
1
1
1
1
1
1
1
1
1
1
1
1
1
1
1
1
1
1
1
1
1
1
1
1
1
3.47615
9.56801
10.2885
10.3567
10.417
10.464
10.5081
10.5543
10.6021
10.651
10.6988
10.7425
10.7834
10.8229
10.8612
10.8984
10.9356
10.9726
11.0081
11.0413
11.0728
11.1055
11.1385
11.1714
11.2043
11.2361
11.265
11.2899
11.3107
11.3292
11.3484
11.3705
11.3951
11.4196
11.4409
11.4578
11.4709
11.4812
11.49
11.4978
11.5055
11.5125
11.5187
11.524
11.5269
11.5303
1
1
1
1
1
1
1
1
1
1
1
1
1
1
1
1
1
1
1
1
1
1
1
1
1
1
1
1
1
1
1
1
1
1
1
1
1
1
1
1
1
1
1
1
1
1
1
1
1
1
2.75154
9.15731
10.3167
10.351
10.4044
10.446
10.4875
10.5331
10.5808
10.6293
10.6766
10.7199
10.7595
10.7976
10.8345
10.8692
10.904
10.9393
10.9735
11.0055
11.0351
11.0656
11.0965
11.1269
11.157
11.1863
11.2132
11.2371
11.2576
11.2759
11.2944
11.3153
11.3382
11.3609
11.3805
11.3958
11.4073
11.4162
11.4239
11.4306
11.4374
11.4435
11.4487
11.4533
11.4557
11.4589
1
1
1
1
1
1
1
1
1
1
1
1
1
1
1
1
1
1
1
1
1
1
1
1
1
1
1
1
1
1
1
1
1
1
1
1
1
1
1
1
1
1
1
1
1
1
1
1
1
1
2.06857
8.58719
10.3627
10.3638
10.4082
10.4425
10.4772
10.5171
10.5617
10.6074
10.6522
10.6947
10.7333
10.7704
10.8063
10.84
10.8732
10.9069
10.9393
10.97
10.9974
11.0252
11.0533
11.0807
11.1077
11.1344
11.1596
11.1825
11.2026
11.2203
11.2374
11.2559
11.2762
11.2964
11.314
11.3276
11.3375
11.345
11.3512
11.3563
11.3618
11.3664
11.37
11.3727
11.3738
11.3759
1
1
1
1
1
1
1
1
1
1
1
1
1
1
1
1
1
1
1
1
1
1
1
1
1
1
1
1
1
1
1
1
1
1
1
1
1
1
1
1
1
1
1
1
1
1
1
1
1
1
1.46897
7.93089
10.4399
10.3466
10.3763
10.4094
10.4474
10.4899
10.5346
10.5798
10.625
10.6678
10.7058
10.7415
10.7764
10.8092
10.8413
10.8735
10.9041
10.9335
10.9591
10.9841
11.0092
11.034
11.0582
11.0825
11.1057
11.1272
11.1461
11.1623
11.1771
11.1925
11.2094
11.2266
11.2417
11.2532
11.261
11.2664
11.2699
11.2726
11.2759
11.2786
11.2807
11.2819
11.2819
11.2832
1
1
1
1
1
1
1
1
1
1
1
1
1
1
1
1
1
1
1
1
1
1
1
1
1
1
1
1
1
1
1
1
1
1
1
1
1
1
1
1
1
1
1
1
1
1
1
1
1
1
1.08313
7.16438
10.3376
10.299
10.3374
10.3772
10.4168
10.4554
10.4987
10.5458
10.5937
10.6374
10.6746
10.7091
10.7434
10.7761
10.8079
10.839
10.8675
10.8952
10.9191
10.9419
10.9645
10.9871
11.009
11.0308
11.0519
11.0712
11.0879
11.1016
11.1134
11.1252
11.1383
11.1519
11.1639
11.1727
11.1781
11.1807
11.1808
11.1808
11.1811
11.1806
11.1795
11.1774
11.1749
11.1742
1
1
1
1
1
1
1
1
1
1
1
1
1
1
1
1
1
1
1
1
1
1
1
1
1
1
1
1
1
1
1
1
1
1
1
1
1
1
1
1
1
1
1
1
1
1
1
1
1
1
1.00168
6.16255
10.1318
10.2071
10.2765
10.3325
10.3825
10.4283
10.4705
10.5132
10.5563
10.5991
10.6385
10.6733
10.7068
10.7396
10.7714
10.8019
10.8288
10.8545
10.877
10.8982
10.9187
10.9396
10.9596
10.979
10.9974
11.0137
11.0272
11.0378
11.046
11.054
11.063
11.0724
11.0806
11.086
11.0881
11.0862
11.0816
11.0768
11.0722
11.0676
11.0629
11.058
11.0535
11.0517
1
1
1
1
1
1
1
1
1
1
1
1
1
1
1
1
1
1
1
1
1
1
1
1
1
1
1
1
1
1
1
1
1
1
1
1
1
1
1
1
1
1
1
1
1
1
1
1
1
1
1
5.14447
9.97648
10.141
10.2344
10.3035
10.3574
10.4022
10.4438
10.4855
10.5269
10.5661
10.5997
10.6334
10.667
10.6998
10.7312
10.7612
10.7873
10.811
10.8325
10.8525
10.8716
10.8909
10.9093
10.9265
10.9418
10.9545
10.9641
10.971
10.975
10.9787
10.9831
10.988
10.9919
10.993
10.9901
10.9829
10.973
10.9627
10.9524
10.942
10.9309
10.9192
10.9093
10.9032
1
1
1
1
1
1
1
1
1
1
1
1
1
1
1
1
1
1
1
1
1
1
1
1
1
1
1
1
1
1
1
1
1
1
1
1
1
1
1
1
1
1
1
1
1
1
1
1
1
1
1
4.0815
9.61228
10.1066
10.2087
10.2798
10.3286
10.3727
10.4129
10.4511
10.4883
10.5271
10.5629
10.5933
10.6231
10.6547
10.6861
10.7164
10.7423
10.7644
10.7851
10.8043
10.8225
10.8402
10.8568
10.8718
10.8841
10.8926
10.898
10.9007
10.9003
10.8994
10.8988
10.8985
10.8972
10.8927
10.8839
10.8701
10.8527
10.8334
10.8132
10.7931
10.7734
10.7552
10.7412
10.7342
1
1
1
1
1
1
1
1
1
1
1
1
1
1
1
1
1
1
1
1
1
1
1
1
1
1
1
1
1
1
1
1
1
1
1
1
1
1
1
1
1
1
1
1
1
1
1
1
1
1
1
3.07259
9.12769
10.0774
10.1829
10.2654
10.3193
10.3572
10.3885
10.4191
10.4515
10.486
10.5197
10.55
10.5804
10.6096
10.6389
10.6666
10.6927
10.7143
10.7344
10.7528
10.7705
10.7866
10.8015
10.8139
10.8234
10.8283
10.8297
10.8277
10.8228
10.8166
10.8104
10.804
10.7962
10.7851
10.7689
10.7467
10.7196
10.6896
10.6587
10.6277
10.5967
10.5637
10.5349
10.5155
1
1
1
1
1
1
1
1
1
1
1
1
1
1
1
1
1
1
1
1
1
1
1
1
1
1
1
1
1
1
1
1
1
1
1
1
1
1
1
1
1
1
1
1
1
1
1
1
1
1
1
2.06194
8.39413
10.2394
10.2132
10.2566
10.2854
10.3169
10.3526
10.3874
10.4187
10.4498
10.4811
10.5099
10.5364
10.5628
10.5885
10.6157
10.64
10.6603
10.6799
10.6971
10.7143
10.729
10.7419
10.7521
10.7584
10.7601
10.758
10.7517
10.742
10.73
10.7174
10.7039
10.6886
10.6694
10.6443
10.6121
10.5731
10.5292
10.4808
10.4282
10.3726
10.3191
10.2758
10.257
1
1
1
1
1
1
1
1
1
1
1
1
1
1
1
1
1
1
1
1
1
1
1
1
1
1
1
1
1
1
1
1
1
1
1
1
1
1
1
1
1
1
1
1
1
1
1
1
1
1
1
1.23923
7.55155
10.343
10.2156
10.2034
10.2356
10.2773
10.3171
10.3515
10.3813
10.4114
10.4416
10.4698
10.4954
10.5195
10.5422
10.5631
10.5856
10.6054
10.6228
10.638
10.6538
10.667
10.678
10.6861
10.6896
10.6883
10.6829
10.6727
10.6584
10.6403
10.6207
10.5991
10.5749
10.5461
10.5103
10.4659
10.4117
10.349
10.2785
10.2024
10.1219
10.0393
9.95114
9.87715
1
1
1
1
1
1
1
1
1
1
1
1
1
1
1
1
1
1
1
1
1
1
1
1
1
1
1
1
1
1
1
1
1
1
1
1
1
1
1
1
1
1
1
1
1
1
1
1
1
1
1
1.00693
6.46955
10.1085
10.0797
10.1604
10.2047
10.2406
10.28
10.3131
10.343
10.3727
10.4009
10.4276
10.4524
10.4754
10.4968
10.5156
10.5332
10.5505
10.5651
10.5771
10.59
10.6013
10.6098
10.6158
10.6164
10.6122
10.6034
10.5895
10.5704
10.5463
10.5193
10.4889
10.4547
10.4148
10.3665
10.3075
10.2356
10.151
10.0528
9.9382
9.79885
9.63342
9.4692
9.35089
1
1
1
1
1
1
1
1
1
1
1
1
1
1
1
1
1
1
1
1
1
1
1
1
1
1
1
1
1
1
1
1
1
1
1
1
1
1
1
1
1
1
1
1
1
1
1
1
1
1
1
0.999987
5.10811
9.75836
10.0271
10.1262
10.1675
10.2012
10.2351
10.2671
10.299
10.33
10.3582
10.384
10.408
10.4299
10.45
10.4677
10.4827
10.4972
10.5085
10.5166
10.5243
10.5325
10.5384
10.5415
10.5395
10.5322
10.5198
10.502
10.4781
10.4482
10.4137
10.3742
10.3292
10.2769
10.2143
10.1386
10.046
9.93407
9.79743
9.6297
9.42544
9.1798
8.9125
8.73842
1
1
1
1
1
1
1
1
1
1
1
1
1
1
1
1
1
1
1
1
1
1
1
1
1
1
1
1
1
1
1
1
1
1
1
1
1
1
1
1
1
1
1
1
1
1
1
1
1
1
1
0.999996
3.85888
9.39525
10.0143
10.09
10.1406
10.1774
10.1958
10.2216
10.2526
10.2842
10.3131
10.3385
10.3618
10.3829
10.4019
10.4186
10.4318
10.4435
10.4524
10.457
10.4593
10.4621
10.4649
10.4646
10.4598
10.4488
10.4323
10.4099
10.381
10.3452
10.3031
10.2545
10.1982
10.1325
10.0542
9.95991
9.8439
9.70119
9.52343
9.29985
9.00159
8.55777
7.72239
5.75906
1
1
1
1
1
1
1
1
1
1
1
1
1
1
1
1
1
1
1
1
1
1
1
1
1
1
1
1
1
1
1
1
1
1
1
1
1
1
1
1
1
1
1
1
1
1
1
1
1
1
1
0.999999
2.60891
8.69856
10.0602
10.0828
10.1117
10.1378
10.1621
10.1868
10.2125
10.2403
10.2674
10.2918
10.314
10.3339
10.3519
10.3675
10.3795
10.3888
10.3954
10.3972
10.3949
10.3918
10.3898
10.386
10.3777
10.3626
10.3417
10.3142
10.2797
10.2377
10.1882
10.1304
10.0628
9.98349
9.88876
9.77463
9.63396
9.45842
9.23513
8.93986
8.52861
7.8842
6.91486
4.69357
1
1
1
1
1
1
1
1
1
1
1
1
1
1
1
1
1
1
1
1
1
1
1
1
1
1
1
1
1
1
1
1
1
1
1
1
1
1
1
1
1
1
1
1
1
1
1
1
1
1
1
1
1.52582
7.93772
10.1848
10.0569
10.0577
10.0889
10.1229
10.1507
10.176
10.2006
10.224
10.2454
10.2652
10.2833
10.2997
10.3143
10.3253
10.333
10.3374
10.3366
10.3308
10.3224
10.3146
10.3066
10.2942
10.2749
10.2488
10.2157
10.1751
10.1266
10.0696
10.0027
9.92375
9.83075
9.71951
9.58533
9.41969
9.21228
8.94492
8.5939
8.09403
7.43195
6.14676
4.33439
1
1
1
1
1
1
1
1
1
1
1
1
1
1
1
1
1
1
1
1
1
1
1
1
1
1
1
1
1
1
1
1
1
1
1
1
1
1
1
1
1
1
1
1
1
1
1
1
1
1
1
1
1.03311
6.725
10.0179
9.97432
10.0089
10.043
10.0828
10.1124
10.138
10.161
10.1818
10.2001
10.2166
10.2317
10.2459
10.2588
10.2686
10.275
10.2771
10.274
10.2653
10.2527
10.2391
10.2258
10.209
10.1856
10.1546
10.1157
10.0687
10.0133
9.94845
9.87241
9.78249
9.67633
9.54922
9.39617
9.20684
8.97173
8.66704
8.27585
7.72982
6.97507
5.73827
4.2456
1
1
1
1
1
1
1
1
1
1
1
1
1
1
1
1
1
1
1
1
1
1
1
1
1
1
1
1
1
1
1
1
1
1
1
1
1
1
1
1
1
1
1
1
1
1
1
1
1
1
1
1
1.00005
5.13806
9.60216
9.8816
9.96605
10.0114
10.0431
10.071
10.0959
10.1178
10.1372
10.1539
10.1682
10.1807
10.1921
10.2031
10.2109
10.2159
10.2156
10.21
10.1987
10.1828
10.1641
10.1451
10.1233
10.0955
10.0597
10.015
9.96154
9.89902
9.82629
9.74137
9.64096
9.52242
9.38045
9.21034
9.00055
8.74189
8.41092
7.98523
7.42374
6.64224
5.55038
4.34939
1
1
1
1
1
1
1
1
1
1
1
1
1
1
1
1
1
1
1
1
1
1
1
1
1
1
1
1
1
1
1
1
1
1
1
1
1
1
1
1
1
1
1
1
1
1
1
1
1
1
1
1
0.999999
3.65609
9.20509
9.88363
9.9429
9.99142
10.0126
10.0296
10.0502
10.0706
10.0891
10.1049
10.1178
10.1282
10.1372
10.1454
10.1509
10.154
10.1516
10.1436
10.13
10.1113
10.0886
10.0639
10.0369
10.0043
9.96393
9.91417
9.85469
9.78545
9.70482
9.61113
9.50073
9.37082
9.2156
9.03052
8.8046
8.52753
8.18055
7.73707
7.17128
6.42627
5.49715
4.49407
1
1
1
1
1
1
1
1
1
1
1
1
1
1
1
1
1
1
1
1
1
1
1
1
1
1
1
1
1
1
1
1
1
1
1
1
1
1
1
1
1
1
1
1
1
1
1
1
1
1
1
1
1
2.22723
8.41696
9.96302
9.93299
9.95127
9.97169
9.9921
10.0103
10.0279
10.0441
10.0579
10.069
10.0774
10.084
10.0891
10.0921
10.0928
10.088
10.0772
10.0607
10.0389
10.0128
9.98312
9.95068
9.91317
9.86795
9.81333
9.74812
9.67253
9.58453
9.4829
9.36354
9.22367
9.05724
8.85957
8.62141
8.33222
7.97731
7.53401
6.97633
6.2976
5.49676
4.62926
1
1
1
1
1
1
1
1
1
1
1
1
1
1
1
1
1
1
1
1
1
1
1
1
1
1
1
1
1
1
1
1
1
1
1
1
1
1
1
1
1
1
1
1
1
1
1
1
1
1
1
1
1
1.16121
7.30603
10.0556
9.94012
9.90708
9.92724
9.95036
9.96746
9.98356
9.99815
10.0103
10.0199
10.0261
10.03
10.0319
10.0321
10.03
10.0227
10.0095
9.99037
9.96576
9.93644
9.90261
9.86509
9.82243
9.77214
9.71272
9.64236
9.56114
9.46666
9.35802
9.23053
9.0821
8.90651
8.69903
8.45234
8.15664
7.80077
7.36802
6.83552
6.21668
5.51738
4.77428
1
1
1
1
1
1
1
1
1
1
1
1
1
1
1
1
1
1
1
1
1
1
1
1
1
1
1
1
1
1
1
1
1
1
1
1
1
1
1
1
1
1
1
1
1
1
1
1
1
1
1
1
1
1.00243
5.7791
9.63936
9.76425
9.83357
9.8709
9.89924
9.91883
9.93597
9.95057
9.9622
9.97114
9.97537
9.97675
9.97588
9.97309
9.96801
9.95807
9.94274
9.92091
9.89315
9.86012
9.82213
9.7798
9.73221
9.67705
9.61307
9.53806
9.45149
9.35101
9.23617
9.10202
8.94678
8.76448
8.55055
8.29885
8.00102
7.65073
7.23008
6.73386
6.17766
5.55465
4.91047
1
1
1
1
1
1
1
1
1
1
1
1
1
1
1
1
1
1
1
1
1
1
1
1
1
1
1
1
1
1
1
1
1
1
1
1
1
1
1
1
1
1
1
1
1
1
1
1
1
1
1
1
1
0.999972
4.06791
9.21668
9.73872
9.81206
9.84855
9.86333
9.87543
9.88949
9.90253
9.91324
9.92107
9.92367
9.92259
9.91898
9.91313
9.90512
9.89278
9.87545
9.85157
9.8212
9.78473
9.74274
9.69584
9.64357
9.58383
9.5154
9.43604
9.34464
9.23905
9.11829
8.979
8.81863
8.63124
8.41362
8.1606
7.86469
7.524
7.11375
6.66178
6.1647
5.59541
5.03096
1
1
1
1
1
1
1
1
1
1
1
1
1
1
1
1
1
1
1
1
1
1
1
1
1
1
1
1
1
1
1
1
1
1
1
1
1
1
1
1
1
1
1
1
1
1
1
1
1
1
1
1
1
0.999993
2.40345
8.49717
9.81919
9.80461
9.81473
9.82455
9.83601
9.84677
9.85701
9.86598
9.87174
9.87277
9.86928
9.86268
9.8535
9.84231
9.82756
9.80824
9.78272
9.75021
9.71045
9.66433
9.61275
9.55585
9.49192
9.41968
9.33668
9.24127
9.1314
9.0053
8.86105
8.69635
8.50644
8.28784
8.03645
7.74632
7.41457
7.02258
6.613
6.15453
5.62917
5.1373
1
1
1
1
1
1
1
1
1
1
1
1
1
1
1
1
1
1
1
1
1
1
1
1
1
1
1
1
1
1
1
1
1
1
1
1
1
1
1
1
1
1
1
1
1
1
1
1
1
1
1
1
1
0.999999
1.19069
7.33113
9.91999
9.79602
9.76754
9.77696
9.78961
9.79927
9.80809
9.81599
9.82033
9.82007
9.81469
9.80542
9.79323
9.77924
9.76245
9.74124
9.71402
9.67973
9.63744
9.5878
9.53194
9.47071
9.40287
9.32708
9.24064
9.14153
9.02786
8.89768
8.7497
8.58155
8.39014
8.17266
7.92503
7.64105
7.32218
6.95611
6.57343
6.13893
5.67014
5.23342
1
1
1
1
1
1
1
1
1
1
1
1
1
1
1
1
1
1
1
1
1
1
1
1
1
1
1
1
1
1
1
1
1
1
1
1
1
1
1
1
1
1
1
1
1
1
1
1
1
1
1
1
1
1
1.00339
5.66466
9.47393
9.64302
9.69994
9.71882
9.73672
9.74925
9.75798
9.76509
9.76831
9.76689
9.76001
9.7483
9.73319
9.71622
9.69697
9.67367
9.64463
9.60883
9.56474
9.51248
9.45293
9.38763
9.31597
9.23682
9.1474
9.04547
8.929
8.79611
8.64564
8.47551
8.28348
8.06783
7.824
7.5501
7.246
6.90171
6.54066
6.13157
5.71944
5.31116
1
1
1
1
1
1
1
1
1
1
1
1
1
1
1
1
1
1
1
1
1
1
1
1
1
1
1
1
1
1
1
1
1
1
1
1
1
1
1
1
1
1
1
1
1
1
1
1
1
1
1
1
1
1
0.999962
3.73852
9.03191
9.63512
9.66681
9.68697
9.70041
9.70801
9.71332
9.71765
9.71865
9.71511
9.70608
9.69197
9.6742
9.65454
9.63293
9.60757
9.57656
9.53903
9.49329
9.43909
9.37671
9.30783
9.23255
9.15008
9.0576
8.95295
8.83403
8.69939
8.54778
8.37733
8.18634
7.97322
7.73451
7.47173
7.17749
6.85624
6.52021
6.1359
5.76187
5.3698
1
1
1
1
1
1
1
1
1
1
1
1
1
1
1
1
1
1
1
1
1
1
1
1
1
1
1
1
1
1
1
1
1
1
1
1
1
1
1
1
1
1
1
1
1
1
1
1
1
1
1
1
1
1
0.999991
2.01884
8.30277
9.68403
9.62657
9.6375
9.66073
9.66767
9.6691
9.6698
9.66796
9.66201
9.65095
9.63506
9.61529
9.59324
9.56918
9.54143
9.50826
9.46893
9.42177
9.36621
9.3019
9.2302
9.15162
9.06592
8.97054
8.86365
8.74309
8.60785
8.45639
8.28696
8.09841
7.88861
7.65779
7.40195
7.11618
6.82163
6.50497
6.14308
5.79501
5.42139
1
1
1
1
1
1
1
1
1
1
1
1
1
1
1
1
1
1
1
1
1
1
1
1
1
1
1
1
1
1
1
1
1
1
1
1
1
1
1
1
1
1
1
1
1
1
1
1
1
1
1
1
1
1
0.999998
1.09947
6.7911
9.66885
9.60262
9.60193
9.61562
9.62187
9.622
9.62087
9.6171
9.60942
9.59687
9.57972
9.55849
9.53446
9.50778
9.47744
9.4421
9.40087
9.35217
9.29531
9.22946
9.15549
9.07391
8.98484
8.88654
8.77763
8.65563
8.52021
8.36965
8.20232
8.01742
7.81175
7.58998
7.33802
7.06568
6.79366
6.48635
6.15047
5.82695
5.47995
1
1
1
1
1
1
1
1
1
1
1
1
1
1
1
1
1
1
1
1
1
1
1
1
1
1
1
1
1
1
1
1
1
1
1
1
1
1
1
1
1
1
1
1
1
1
1
1
1
1
1
1
1
1
1
1.00068
4.78969
9.16142
9.4714
9.54793
9.57784
9.57952
9.57432
9.57023
9.56435
9.55541
9.542
9.5242
9.50208
9.47617
9.44686
9.41397
9.37643
9.33343
9.28333
9.22528
9.15817
9.08247
8.99841
8.90636
8.80533
8.69478
8.57213
8.43727
8.28819
8.12355
7.94283
7.74198
7.52722
7.28131
7.02912
6.76921
6.46455
6.16194
5.86025
5.53886
1
1
1
1
1
1
1
1
1
1
1
1
1
1
1
1
1
1
1
1
1
1
1
1
1
1
1
1
1
1
1
1
1
1
1
1
1
1
1
1
1
1
1
1
1
1
1
1
1
1
1
1
1
1
1
0.999994
2.69016
8.57066
9.57682
9.54685
9.53759
9.53913
9.53342
9.52499
9.51549
9.50445
9.48992
9.47135
9.44827
9.4204
9.38843
9.35283
9.31288
9.268
9.21639
9.15708
9.08882
9.0118
8.92582
8.83127
8.72787
8.61554
8.49255
8.3585
8.21095
8.04896
7.87279
7.67687
7.46724
7.23357
6.99827
6.73895
6.45039
6.17896
5.88868
5.58738
1
1
1
1
1
1
1
1
1
1
1
1
1
1
1
1
1
1
1
1
1
1
1
1
1
1
1
1
1
1
1
1
1
1
1
1
1
1
1
1
1
1
1
1
1
1
1
1
1
1
1
1
1
1
1
0.999999
1.23528
7.33395
9.65009
9.51959
9.49092
9.48737
9.48384
9.47421
9.46339
9.4516
9.43701
9.41843
9.39481
9.36537
9.33115
9.29306
9.25074
9.204
9.15086
9.09034
9.02108
8.94313
8.85589
8.75965
8.65464
8.54106
8.41806
8.28483
8.13932
7.97973
7.80822
7.61669
7.41353
7.19107
6.96578
6.71195
6.44972
6.19353
5.91087
5.63081
1
1
1
1
1
1
1
1
1
1
1
1
1
1
1
1
1
1
1
1
1
1
1
1
1
1
1
1
1
1
1
1
1
1
1
1
1
1
1
1
1
1
1
1
1
1
1
1
1
1
1
1
1
1
1
1
1.00491
5.42074
9.16952
9.35154
9.42193
9.44833
9.43993
9.42594
9.41343
9.40076
9.38597
9.36719
9.34285
9.31207
9.27571
9.23515
9.19038
9.1415
9.08659
9.0248
8.95474
8.87632
8.78847
8.69137
8.5854
8.47104
8.34806
8.21539
8.07173
7.91438
7.74653
7.56036
7.36365
7.151
6.93546
6.69038
6.45075
6.19949
5.92996
5.67005
1
1
1
1
1
1
1
1
1
1
1
1
1
1
1
1
1
1
1
1
1
1
1
1
1
1
1
1
1
1
1
1
1
1
1
1
1
1
1
1
1
1
1
1
1
1
1
1
1
1
1
1
1
1
1
1
0.999955
3.10341
8.65274
9.43598
9.42222
9.40704
9.39826
9.38568
9.37031
9.35463
9.33798
9.31785
9.29225
9.26019
9.22187
9.17897
9.13187
9.08084
9.02411
8.96107
8.89038
8.81177
8.72378
8.62656
8.5204
8.40591
8.28324
8.15116
8.00934
7.8537
7.68918
7.50985
7.31806
7.11726
6.90653
6.67408
6.4483
6.20116
5.95565
5.70802
1
1
1
1
1
1
1
1
1
1
1
1
1
1
1
1
1
1
1
1
1
1
1
1
1
1
1
1
1
1
1
1
1
1
1
1
1
1
1
1
1
1
1
1
1
1
1
1
1
1
1
1
1
1
1
1
0.999989
1.34752
7.56147
9.55095
9.39857
9.35924
9.34353
9.33649
9.32232
9.30664
9.28917
9.26802
9.24136
9.20852
9.16867
9.12363
9.07425
9.02095
8.96241
8.89819
8.82697
8.74839
8.66069
8.56397
8.4583
8.34406
8.22207
8.09048
7.95044
7.79562
7.63549
7.46115
7.27513
7.08539
6.8783
6.6607
6.44162
6.20758
5.97892
5.73865
1
1
1
1
1
1
1
1
1
1
1
1
1
1
1
1
1
1
1
1
1
1
1
1
1
1
1
1
1
1
1
1
1
1
1
1
1
1
1
1
1
1
1
1
1
1
1
1
1
1
1
1
1
1
1
1
0.999998
1.01114
5.65012
9.09094
9.21819
9.27876
9.30356
9.29449
9.27759
9.26046
9.24126
9.21894
9.19113
9.15767
9.11688
9.07023
9.0188
8.96324
8.90296
8.83766
8.76592
8.68728
8.60003
8.50413
8.39948
8.28595
8.16531
8.03406
7.8955
7.74224
7.58721
7.41546
7.23759
7.05629
6.8555
6.64962
6.43676
6.21938
5.99758
5.76672
1
1
1
1
1
1
1
1
1
1
1
1
1
1
1
1
1
1
1
1
1
1
1
1
1
1
1
1
1
1
1
1
1
1
1
1
1
1
1
1
1
1
1
1
1
1
1
1
1
1
1
1
1
1
1
1
1
0.999927
3.17706
8.57253
9.29471
9.28366
9.26548
9.25594
9.24326
9.22249
9.19847
9.1725
9.1424
9.10756
9.06577
9.01772
8.96433
8.90655
8.84461
8.77825
8.70602
8.6272
8.54041
8.44541
8.34215
8.22983
8.11115
7.97977
7.84258
7.69299
7.54166
7.37275
7.20459
7.02787
6.83396
6.63705
6.43367
6.23067
6.0126
5.79004
1
1
1
1
1
1
1
1
1
1
1
1
1
1
1
1
1
1
1
1
1
1
1
1
1
1
1
1
1
1
1
1
1
1
1
1
1
1
1
1
1
1
1
1
1
1
1
1
1
1
1
1
1
1
1
1
1
0.999982
1.33739
7.45538
9.41532
9.26443
9.22892
9.21017
9.20114
9.1784
9.15231
9.12442
9.09326
9.05757
9.01541
8.96687
8.9122
8.85264
8.78909
8.72139
8.64864
8.56944
8.48321
8.38918
8.28729
8.17725
8.05866
7.92902
7.7941
7.64982
7.50009
7.33703
7.17626
7.00045
6.81465
6.62694
6.43423
6.23991
6.02588
5.81295
1
1
1
1
1
1
1
1
1
1
1
1
1
1
1
1
1
1
1
1
1
1
1
1
1
1
1
1
1
1
1
1
1
1
1
1
1
1
1
1
1
1
1
1
1
1
1
1
1
1
1
1
1
1
1
1
1
0.999997
1.01028
5.44096
8.93923
9.07826
9.14237
9.17669
9.16652
9.13791
9.10875
9.0777
9.04431
9.00734
8.96486
8.91618
8.86082
8.80006
8.73507
8.66599
8.59242
8.51326
8.42732
8.33443
8.23297
8.12573
8.00768
7.88124
7.74908
7.60957
7.461
7.30588
7.1479
6.97349
6.79808
6.61873
6.43229
6.24229
6.03573
5.83559
1
1
1
1
1
1
1
1
1
1
1
1
1
1
1
1
1
1
1
1
1
1
1
1
1
1
1
1
1
1
1
1
1
1
1
1
1
1
1
1
1
1
1
1
1
1
1
1
1
1
1
1
1
1
1
1
1
1
0.99993
2.88245
8.35262
9.16154
9.15979
9.16156
9.12998
9.09973
9.06911
9.03459
8.99787
8.95913
8.91573
8.86691
8.81144
8.75001
8.68376
8.61316
8.53862
8.45904
8.37378
8.28225
8.18162
8.07674
7.9606
7.83759
7.70844
7.57218
7.42618
7.27774
7.12072
6.95192
6.78545
6.61074
6.42795
6.24495
6.04999
5.86061
1
1
1
1
1
1
1
1
1
1
1
1
1
1
1
1
1
1
1
1
1
1
1
1
1
1
1
1
1
1
1
1
1
1
1
1
1
1
1
1
1
1
1
1
1
1
1
1
1
1
1
1
1
1
1
1
1
1
0.999982
1.26135
7.00765
9.23401
9.1437
9.09699
9.07315
9.05246
9.02364
8.98712
8.9481
8.90831
8.86477
8.8165
8.76181
8.70078
8.63404
8.56218
8.48688
8.40665
8.32215
8.23181
8.13274
8.02899
7.91615
7.79616
7.66992
7.5358
7.39357
7.24926
7.09456
6.93345
6.77298
6.60067
6.42273
6.25045
6.06587
5.88175
1
1
1
1
1
1
1
1
1
1
1
1
1
1
1
1
1
1
1
1
1
1
1
1
1
1
1
1
1
1
1
1
1
1
1
1
1
1
1
1
1
1
1
1
1
1
1
1
1
1
1
1
1
1
1
1
1
1
0.999997
1.00559
4.71247
8.74918
8.99817
9.02927
9.03488
9.02251
8.99088
8.95013
8.90695
8.86362
8.81817
8.7689
8.71416
8.6534
8.58639
8.51389
8.43785
8.35714
8.27273
8.18333
8.08638
7.98394
7.87473
7.75767
7.63424
7.5023
7.364
7.22271
7.07209
6.91758
6.76099
6.59157
6.42175
6.25819
6.07969
5.89937
1
1
1
1
1
1
1
1
1
1
1
1
1
1
1
1
1
1
1
1
1
1
1
1
1
1
1
1
1
1
1
1
1
1
1
1
1
1
1
1
1
1
1
1
1
1
1
1
1
1
1
1
1
1
1
1
1
1
1
0.999969
2.14467
8.08144
9.13205
9.05025
9.01564
8.98588
8.94951
8.90767
8.86382
8.81865
8.77166
8.72158
8.667
8.60688
8.54068
8.46855
8.39213
8.31115
8.22627
8.13727
8.04204
7.94093
7.83406
7.71981
7.59918
7.46994
7.33521
7.19729
7.05137
6.90136
6.74811
6.58434
6.42307
6.26383
6.08915
5.91372
1
1
1
1
1
1
1
1
1
1
1
1
1
1
1
1
1
1
1
1
1
1
1
1
1
1
1
1
1
1
1
1
1
1
1
1
1
1
1
1
1
1
1
1
1
1
1
1
1
1
1
1
1
1
1
1
1
1
1
0.999992
1.10337
6.34054
8.93577
8.94892
8.95353
8.9293
8.90028
8.86362
8.82113
8.77471
8.7251
8.67376
8.61912
8.55995
8.49537
8.42463
8.34884
8.26806
8.18297
8.09404
7.99959
7.90005
7.79495
7.68362
7.56595
7.43981
7.30866
7.17471
7.0329
6.88606
6.73685
6.58024
6.4246
6.26761
6.09772
5.92819
1
1
1
1
1
1
1
1
1
1
1
1
1
1
1
1
1
1
1
1
1
1
1
1
1
1
1
1
1
1
1
1
1
1
1
1
1
1
1
1
1
1
1
1
1
1
1
1
1
1
1
1
1
1
1
1
1
1
1
0.999999
1.00062
3.58337
8.40416
8.91035
8.91626
8.89107
8.87271
8.83755
8.79124
8.73916
8.6841
8.62964
8.57364
8.51512
8.45207
8.38318
8.30869
8.22841
8.14308
8.05359
7.95911
7.86046
7.75689
7.64822
7.53346
7.41054
7.28311
7.15283
7.01415
6.87094
6.72689
6.57664
6.42372
6.26873
6.10588
5.94364
1
1
1
1
1
1
1
1
1
1
1
1
1
1
1
1
1
1
1
1
1
1
1
1
1
1
1
1
1
1
1
1
1
1
1
1
1
1
1
1
1
1
1
1
1
1
1
1
1
1
1
1
1
1
1
1
1
1
1
1
0.999997
1.42434
7.32188
9.06194
8.9251
8.87477
8.83337
8.79377
8.74338
8.69019
8.63509
8.5812
8.52586
8.469
8.40796
8.34195
8.26954
8.19067
8.1059
8.01627
7.92172
7.82339
7.72095
7.61453
7.5026
7.3831
7.25948
7.13238
6.99675
6.8577
6.71854
6.57288
6.42217
6.27082
6.11562
5.96021
1
1
1
1
1
1
1
1
1
1
1
1
1
1
1
1
1
1
1
1
1
1
1
1
1
1
1
1
1
1
1
1
1
1
1
1
1
1
1
1
1
1
1
1
1
1
1
1
1
1
1
1
1
1
1
1
1
1
1
1