/*--------------------------------*- C++ -*----------------------------------*\
  =========                 |
  \\      /  F ield         | OpenFOAM: The Open Source CFD Toolbox
   \\    /   O peration     | Website:  https://openfoam.org
    \\  /    A nd           | Version:  7
     \\/     M anipulation  |
\*---------------------------------------------------------------------------*/
FoamFile
{
    version     2.0;
    format      ascii;
    class       volVectorField;
    location    "2.6";
    object      U;
}
// * * * * * * * * * * * * * * * * * * * * * * * * * * * * * * * * * * * * * //

dimensions      [0 1 -1 0 0 0 0];

internalField   nonuniform List<vector> 
64512
(
(3 -1.58781e-16 0)
(3 -2.16133e-16 0)
(3 -1.71684e-16 0)
(3 -2.20114e-16 0)
(3 -3.428e-16 0)
(3 -4.17152e-16 0)
(3 -5.19126e-16 0)
(3 -2.66307e-16 0)
(3 -9.84091e-17 0)
(3 2.59018e-16 0)
(3 1.14296e-16 0)
(3 -2.29329e-16 0)
(3 -2.08668e-16 0)
(3 -3.23733e-16 0)
(3 -2.03734e-16 0)
(3 2.33887e-16 0)
(3 8.03184e-16 0)
(3 8.53532e-16 0)
(3 3.94284e-16 0)
(3 -2.103e-16 0)
(3 -2.93104e-16 0)
(3 -2.91781e-18 0)
(3 3.35426e-16 0)
(3 5.23807e-16 0)
(3 1.34592e-15 0)
(3 1.64695e-15 0)
(3 1.89399e-15 0)
(3 1.55437e-15 0)
(3 1.10044e-15 0)
(3 -3.84008e-16 0)
(3 -7.2125e-16 0)
(3 -6.58071e-16 0)
(3 -5.39121e-16 0)
(3 -4.84594e-16 0)
(3 -5.74495e-16 0)
(3 -7.61728e-16 0)
(3 -1.04815e-15 0)
(3 -1.49594e-15 0)
(3 -1.50862e-15 0)
(3 -9.84891e-16 0)
(3 -9.19029e-17 0)
(3 -5.88284e-17 0)
(3 -7.04339e-16 0)
(3 -7.6135e-16 0)
(3 -5.75662e-16 0)
(3 -1.02737e-16 0)
(3 2.37395e-16 0)
(3 4.94235e-16 0)
(3 -7.22695e-17 0)
(1.7643 0.00360535 0)
(0.806403 0.00410511 0)
(0.743323 0.00823599 0)
(0.72626 0.00559586 0)
(0.712443 0.00498882 0)
(0.701019 0.00525673 0)
(0.689502 0.00586331 0)
(0.676547 0.00670872 0)
(0.661232 0.00767446 0)
(0.643672 0.00853112 0)
(0.624745 0.00888444 0)
(0.606085 0.0082709 0)
(0.589767 0.00679694 0)
(0.576179 0.00563976 0)
(0.56371 0.00547846 0)
(0.55049 0.00598161 0)
(0.535381 0.00689939 0)
(0.518111 0.00791839 0)
(0.499579 0.00834836 0)
(0.481707 0.0078837 0)
(0.465661 0.00729739 0)
(0.450903 0.0071554 0)
(0.436224 0.00732272 0)
(0.420828 0.00760615 0)
(0.404562 0.00780261 0)
(0.387867 0.00781151 0)
(0.371241 0.0077881 0)
(0.354854 0.00784198 0)
(0.338738 0.00791719 0)
(0.322855 0.00798242 0)
(0.307023 0.00804408 0)
(0.290978 0.00811407 0)
(0.274404 0.00822885 0)
(0.25708 0.00837899 0)
(0.239023 0.00853119 0)
(0.220465 0.00864453 0)
(0.201801 0.00870394 0)
(0.183358 0.00875043 0)
(0.165302 0.00882566 0)
(0.147633 0.00897534 0)
(0.130188 0.00918551 0)
(0.112571 0.00946573 0)
(0.0941586 0.00973312 0)
(0.0748618 0.010018 0)
(0.0544773 0.0102649 0)
(0.0331389 0.010365 0)
(0.0112872 0.0104528 0)
(3 -1.34046e-16 0)
(3 -4.5342e-16 0)
(3 -6.91209e-16 0)
(3 -4.27861e-16 0)
(3 -2.6919e-16 0)
(3 -1.50051e-16 0)
(3 -3.25897e-16 0)
(3 -1.09105e-16 0)
(3 5.52596e-16 0)
(3 8.03148e-16 0)
(3 3.995e-16 0)
(3 -6.40534e-16 0)
(3 -4.08043e-16 0)
(3 -1.3449e-16 0)
(3 -2.81323e-16 0)
(3 -1.3002e-16 0)
(3 7.1571e-16 0)
(3 7.70603e-16 0)
(3 4.69119e-16 0)
(3 6.44025e-16 0)
(3 3.34187e-16 0)
(3 2.15554e-16 0)
(3 -5.44234e-16 0)
(3 -2.14011e-16 0)
(3 1.71023e-15 0)
(3 2.88912e-15 0)
(3 3.21941e-15 0)
(3 2.07424e-15 0)
(3 1.46635e-16 0)
(3 -8.92639e-16 0)
(3 -1.00928e-15 0)
(3 -8.31019e-16 0)
(3 -8.76428e-16 0)
(3 -9.20797e-16 0)
(3 -1.87173e-15 0)
(3 -2.02387e-15 0)
(3 -1.99123e-15 0)
(3 -1.9215e-15 0)
(3 -1.97189e-15 0)
(3 -6.33172e-16 0)
(3 3.06898e-16 0)
(3 -4.83959e-16 0)
(3 -1.63616e-15 0)
(3 -7.75665e-16 0)
(3 5.45827e-17 0)
(3 5.50685e-16 0)
(3 2.82882e-16 0)
(3 5.04034e-16 0)
(3 5.31096e-16 0)
(1.76993 0.016689 0)
(0.804861 0.0165368 0)
(0.740387 0.0249987 0)
(0.723681 0.0177726 0)
(0.70867 0.0143054 0)
(0.696491 0.0140393 0)
(0.684699 0.0158206 0)
(0.671791 0.0186014 0)
(0.656835 0.0217471 0)
(0.639917 0.024488 0)
(0.621847 0.0256839 0)
(0.60392 0.024323 0)
(0.587768 0.0207214 0)
(0.573531 0.0173929 0)
(0.560123 0.0163231 0)
(0.54632 0.0173728 0)
(0.531116 0.0199063 0)
(0.514188 0.0228285 0)
(0.496183 0.0241219 0)
(0.478786 0.0230471 0)
(0.462827 0.0216512 0)
(0.447838 0.0213388 0)
(0.4329 0.0217839 0)
(0.417359 0.0225317 0)
(0.401065 0.0230608 0)
(0.384387 0.0230959 0)
(0.367755 0.0230717 0)
(0.351334 0.0232657 0)
(0.335197 0.0234828 0)
(0.319342 0.0236432 0)
(0.303588 0.0238118 0)
(0.287636 0.024052 0)
(0.271154 0.0244589 0)
(0.253938 0.0249671 0)
(0.23605 0.0254516 0)
(0.217752 0.0257972 0)
(0.199415 0.0259842 0)
(0.181304 0.0261554 0)
(0.163536 0.0264302 0)
(0.146096 0.0269403 0)
(0.128845 0.0276192 0)
(0.111448 0.0284952 0)
(0.0933173 0.0293132 0)
(0.0743563 0.030189 0)
(0.0542738 0.0309737 0)
(0.033141 0.0313359 0)
(0.0113369 0.0317119 0)
(3 2.2174e-16 0)
(3 -6.96478e-17 0)
(3 -3.22243e-16 0)
(3 -3.73557e-16 0)
(3 8.3607e-17 0)
(3 3.34724e-16 0)
(3 4.98788e-17 0)
(3 -1.43988e-16 0)
(3 -1.43125e-17 0)
(3 3.60834e-16 0)
(3 3.25421e-17 0)
(3 -5.60952e-16 0)
(3 -8.37423e-16 0)
(3 -5.30629e-16 0)
(3 -8.33181e-17 0)
(3 -5.1735e-16 0)
(3 -4.02025e-16 0)
(3 -4.40603e-16 0)
(3 -2.14308e-16 0)
(3 6.44581e-16 0)
(3 6.09316e-16 0)
(3 -1.53072e-17 0)
(3 -5.08568e-16 0)
(3 -3.17784e-16 0)
(3 8.01567e-16 0)
(3 1.66822e-15 0)
(3 1.77694e-15 0)
(3 1.62904e-15 0)
(3 1.3074e-15 0)
(3 7.14184e-16 0)
(3 -1.09989e-17 0)
(3 -1.94723e-16 0)
(3 -7.62802e-16 0)
(3 -1.4924e-15 0)
(3 -2.53777e-15 0)
(3 -2.59992e-15 0)
(3 -2.66454e-15 0)
(3 -2.70079e-15 0)
(3 -2.88559e-15 0)
(3 -2.33185e-15 0)
(3 -2.33768e-15 0)
(3 -2.90831e-15 0)
(3 -2.9472e-15 0)
(3 -1.95815e-15 0)
(3 -1.19438e-15 0)
(3 -3.65658e-16 0)
(3 -3.64954e-16 0)
(3 -6.2542e-16 0)
(3 -5.52902e-16 0)
(1.79399 0.032453 0)
(0.808904 0.029919 0)
(0.743888 0.0404838 0)
(0.727176 0.0309077 0)
(0.709654 0.0257115 0)
(0.695015 0.0245288 0)
(0.681592 0.0265591 0)
(0.668038 0.0305469 0)
(0.653264 0.0353722 0)
(0.637134 0.0397082 0)
(0.620122 0.0416438 0)
(0.603271 0.0398577 0)
(0.587746 0.0349213 0)
(0.573126 0.0301836 0)
(0.558638 0.0284828 0)
(0.543813 0.0298697 0)
(0.528086 0.0335732 0)
(0.511206 0.0378871 0)
(0.493559 0.0396953 0)
(0.47668 0.0380322 0)
(0.46097 0.0360349 0)
(0.445924 0.0357323 0)
(0.430849 0.0365319 0)
(0.415208 0.0377325 0)
(0.398863 0.0385503 0)
(0.38212 0.0385879 0)
(0.365351 0.0385661 0)
(0.34873 0.0389175 0)
(0.332378 0.0392861 0)
(0.316328 0.0395173 0)
(0.300402 0.0397295 0)
(0.284275 0.0400532 0)
(0.267605 0.0406568 0)
(0.250221 0.0414292 0)
(0.232248 0.0421634 0)
(0.214005 0.0426833 0)
(0.195851 0.0429658 0)
(0.17799 0.043237 0)
(0.16048 0.0436667 0)
(0.143282 0.0444708 0)
(0.126263 0.0455355 0)
(0.109156 0.0469709 0)
(0.091404 0.0483664 0)
(0.072953 0.0498905 0)
(0.0533765 0.0512992 0)
(0.0327006 0.0520116 0)
(0.0112391 0.052777 0)
(3 -2.3506e-17 0)
(3 1.01725e-16 0)
(3 2.76251e-16 0)
(3 3.06738e-17 0)
(3 -5.10778e-16 0)
(3 -3.38894e-16 0)
(3 -5.61774e-17 0)
(3 -2.08316e-17 0)
(3 -2.23051e-16 0)
(3 -2.84951e-16 0)
(3 -3.69658e-16 0)
(3 -3.52294e-16 0)
(3 -5.48538e-16 0)
(3 -1.13973e-15 0)
(3 -1.08258e-15 0)
(3 -3.78707e-16 0)
(3 -2.92906e-16 0)
(3 3.03353e-16 0)
(3 1.98464e-16 0)
(3 1.32598e-16 0)
(3 5.39158e-16 0)
(3 7.22471e-16 0)
(3 7.50037e-16 0)
(3 7.78215e-16 0)
(3 9.64286e-16 0)
(3 8.92196e-16 0)
(3 1.20641e-15 0)
(3 1.067e-15 0)
(3 1.62046e-15 0)
(3 1.36254e-15 0)
(3 6.06183e-16 0)
(3 3.05429e-16 0)
(3 3.29971e-16 0)
(3 2.92446e-17 0)
(3 -7.84966e-16 0)
(3 -6.19865e-16 0)
(3 -8.40386e-16 0)
(3 -9.42707e-16 0)
(3 -2.96993e-15 0)
(3 -3.68605e-15 0)
(3 -4.0848e-15 0)
(3 -4.01996e-15 0)
(3 -2.92928e-15 0)
(3 -1.62383e-15 0)
(3 -3.54927e-16 0)
(3 5.8461e-17 0)
(3 -8.47574e-17 0)
(3 -8.59661e-16 0)
(3 -1.48046e-15 0)
(1.83724 0.0462913 0)
(0.815853 0.041578 0)
(0.748568 0.0548862 0)
(0.731453 0.0451489 0)
(0.712536 0.0388422 0)
(0.696225 0.036271 0)
(0.681436 0.0379752 0)
(0.667224 0.04248 0)
(0.652636 0.0483705 0)
(0.637376 0.0537217 0)
(0.621476 0.0562328 0)
(0.605551 0.0543799 0)
(0.590386 0.0489654 0)
(0.575372 0.0435731 0)
(0.560004 0.0415761 0)
(0.544326 0.0432786 0)
(0.528179 0.0478365 0)
(0.511411 0.0530301 0)
(0.49416 0.0549653 0)
(0.477799 0.0527084 0)
(0.462275 0.0503015 0)
(0.44715 0.0501676 0)
(0.431947 0.0514065 0)
(0.416212 0.0530878 0)
(0.399787 0.0542184 0)
(0.382905 0.0543131 0)
(0.365882 0.0543668 0)
(0.348921 0.0549473 0)
(0.332191 0.0555273 0)
(0.315766 0.0558618 0)
(0.299469 0.0561278 0)
(0.282947 0.0565307 0)
(0.26585 0.0573052 0)
(0.248046 0.0582848 0)
(0.229738 0.0591776 0)
(0.211306 0.0597657 0)
(0.193102 0.060046 0)
(0.175265 0.0603334 0)
(0.157788 0.0608297 0)
(0.140605 0.0618288 0)
(0.123601 0.0631553 0)
(0.106612 0.0650505 0)
(0.089112 0.0669777 0)
(0.0711359 0.0691357 0)
(0.0521062 0.0712072 0)
(0.031992 0.072335 0)
(0.0110413 0.0735757 0)
(3 -4.96881e-16 0)
(3 5.12845e-17 0)
(3 1.18786e-16 0)
(3 -1.69636e-16 0)
(3 -4.78928e-16 0)
(3 -5.66544e-16 0)
(3 -6.56273e-17 0)
(3 -2.52371e-16 0)
(3 5.89523e-17 0)
(3 2.34974e-18 0)
(3 1.3425e-16 0)
(3 6.57791e-16 0)
(3 4.91293e-16 0)
(3 1.90293e-16 0)
(3 -1.69253e-16 0)
(3 2.62733e-16 0)
(3 8.89023e-16 0)
(3 1.20947e-15 0)
(3 1.10094e-15 0)
(3 7.2036e-16 0)
(3 1.05271e-15 0)
(3 1.52078e-15 0)
(3 1.52132e-15 0)
(3 1.57389e-15 0)
(3 9.63704e-16 0)
(3 -2.4159e-16 0)
(3 -4.30252e-16 0)
(3 -5.26822e-16 0)
(3 3.84242e-17 0)
(3 1.99467e-16 0)
(3 -6.30354e-17 0)
(3 1.34912e-17 0)
(3 2.41274e-16 0)
(3 4.22279e-16 0)
(3 6.7513e-16 0)
(3 9.46113e-16 0)
(3 9.92035e-16 0)
(3 9.24771e-17 0)
(3 -8.74868e-16 0)
(3 -2.74507e-15 0)
(3 -3.12161e-15 0)
(3 -2.92374e-15 0)
(3 -2.79027e-15 0)
(3 -2.47596e-15 0)
(3 -1.3512e-15 0)
(3 -1.71777e-15 0)
(3 -1.41282e-15 0)
(3 -1.22472e-15 0)
(3 2.93743e-16 0)
(1.89444 0.0580671 0)
(0.821642 0.0534736 0)
(0.74953 0.0694898 0)
(0.732335 0.0604374 0)
(0.713144 0.0533376 0)
(0.696336 0.0491161 0)
(0.681115 0.049753 0)
(0.666911 0.0540049 0)
(0.652856 0.060315 0)
(0.638417 0.0664131 0)
(0.623335 0.0695233 0)
(0.607888 0.0682058 0)
(0.592724 0.0630758 0)
(0.577376 0.0575746 0)
(0.56153 0.0554045 0)
(0.545561 0.0572106 0)
(0.529628 0.0622027 0)
(0.513536 0.0677712 0)
(0.497065 0.0695568 0)
(0.481367 0.0667668 0)
(0.466016 0.0641241 0)
(0.450779 0.0642963 0)
(0.435412 0.0660596 0)
(0.419555 0.0682699 0)
(0.403032 0.0697783 0)
(0.385994 0.0700312 0)
(0.368702 0.0702734 0)
(0.351375 0.0711912 0)
(0.334215 0.0720748 0)
(0.317334 0.0725716 0)
(0.300578 0.0729255 0)
(0.28358 0.0734338 0)
(0.265992 0.0743941 0)
(0.247716 0.0755706 0)
(0.229014 0.0765758 0)
(0.210314 0.0771643 0)
(0.191954 0.0773755 0)
(0.174005 0.0776216 0)
(0.156398 0.0781167 0)
(0.139038 0.0792275 0)
(0.121829 0.0806983 0)
(0.104721 0.0829254 0)
(0.0872664 0.0852938 0)
(0.069541 0.0879984 0)
(0.0509138 0.0907036 0)
(0.0312702 0.0922521 0)
(0.0108282 0.0939994 0)
(3 4.08783e-17 0)
(3 -1.76364e-16 0)
(3 -1.78843e-16 0)
(3 -2.7405e-16 0)
(3 -4.41837e-17 0)
(3 2.91745e-16 0)
(3 3.87152e-16 0)
(3 1.23516e-16 0)
(3 -9.52673e-17 0)
(3 -1.96065e-16 0)
(3 6.67613e-17 0)
(3 4.06837e-16 0)
(3 2.26911e-16 0)
(3 6.98605e-16 0)
(3 9.40938e-16 0)
(3 8.90833e-16 0)
(3 1.20226e-15 0)
(3 7.68736e-16 0)
(3 3.41609e-16 0)
(3 -2.38224e-16 0)
(3 -2.3652e-16 0)
(3 -8.46301e-17 0)
(3 4.0247e-16 0)
(3 7.37234e-16 0)
(3 -3.7716e-17 0)
(3 -8.12972e-16 0)
(3 -2.30978e-15 0)
(3 -1.76115e-15 0)
(3 -1.14453e-15 0)
(3 3.53063e-16 0)
(3 8.10933e-16 0)
(3 3.77261e-16 0)
(3 -2.52921e-16 0)
(3 -8.80203e-17 0)
(3 4.16272e-16 0)
(3 4.49572e-16 0)
(3 7.27404e-16 0)
(3 8.74834e-16 0)
(3 1.16212e-15 0)
(3 -7.94389e-16 0)
(3 -1.47201e-15 0)
(3 -1.84752e-15 0)
(3 -1.93906e-15 0)
(3 -1.52804e-15 0)
(3 -9.07868e-16 0)
(3 -1.30572e-15 0)
(3 -1.7153e-15 0)
(3 -1.24692e-15 0)
(3 -3.36917e-15 0)
(1.96563 0.0699885 0)
(0.827752 0.0664598 0)
(0.749525 0.0832535 0)
(0.732387 0.075207 0)
(0.713566 0.0680469 0)
(0.697059 0.0624594 0)
(0.681764 0.061849 0)
(0.66755 0.0655215 0)
(0.653638 0.0718745 0)
(0.639397 0.0784687 0)
(0.624387 0.0823495 0)
(0.608807 0.0818439 0)
(0.593435 0.0772771 0)
(0.578094 0.0718697 0)
(0.56243 0.0695221 0)
(0.54687 0.0711967 0)
(0.53168 0.0762341 0)
(0.516463 0.0818402 0)
(0.500631 0.0835498 0)
(0.485112 0.0806322 0)
(0.469432 0.0781147 0)
(0.45365 0.0787811 0)
(0.437727 0.0811234 0)
(0.421421 0.0838411 0)
(0.404585 0.0857202 0)
(0.387334 0.0861502 0)
(0.369909 0.0865789 0)
(0.352528 0.0878069 0)
(0.335361 0.0889636 0)
(0.318489 0.0895945 0)
(0.301731 0.090025 0)
(0.284678 0.0906523 0)
(0.266969 0.0918213 0)
(0.248522 0.093204 0)
(0.229641 0.094298 0)
(0.210794 0.0948408 0)
(0.192312 0.0949423 0)
(0.174221 0.0951274 0)
(0.156405 0.0956062 0)
(0.138758 0.0968059 0)
(0.121203 0.0983681 0)
(0.103759 0.100828 0)
(0.0861847 0.103546 0)
(0.0684314 0.10667 0)
(0.049996 0.109939 0)
(0.0306472 0.111878 0)
(0.0106351 0.114129 0)
(3 1.64394e-17 0)
(3 -2.27477e-16 0)
(3 -1.82696e-16 0)
(3 2.25353e-17 0)
(3 2.09931e-16 0)
(3 2.71897e-16 0)
(3 6.81274e-17 0)
(3 2.60749e-16 0)
(3 3.02665e-16 0)
(3 8.41832e-16 0)
(3 1.12949e-15 0)
(3 7.45335e-16 0)
(3 1.64588e-16 0)
(3 1.64116e-16 0)
(3 3.47825e-16 0)
(3 4.50292e-16 0)
(3 -1.57332e-16 0)
(3 -2.68362e-16 0)
(3 -8.64305e-17 0)
(3 -2.38234e-16 0)
(3 -8.08947e-16 0)
(3 -1.35242e-15 0)
(3 -1.02818e-15 0)
(3 -4.18564e-16 0)
(3 -1.55618e-16 0)
(3 -3.75212e-16 0)
(3 -9.02983e-16 0)
(3 -1.13791e-15 0)
(3 1.01073e-16 0)
(3 1.01058e-15 0)
(3 1.26292e-15 0)
(3 8.86186e-16 0)
(3 5.65725e-16 0)
(3 -3.43099e-17 0)
(3 -5.06179e-16 0)
(3 -7.50621e-16 0)
(3 2.16709e-16 0)
(3 1.41579e-15 0)
(3 1.78245e-15 0)
(3 1.28382e-15 0)
(3 -3.44836e-16 0)
(3 -1.30682e-15 0)
(3 -9.84901e-16 0)
(3 8.83115e-18 0)
(3 -1.7193e-16 0)
(3 -8.93409e-16 0)
(3 -2.01876e-15 0)
(3 -1.77956e-15 0)
(3 -3.18618e-15 0)
(2.05424 0.081305 0)
(0.836781 0.0804524 0)
(0.750913 0.0967696 0)
(0.73413 0.089229 0)
(0.715676 0.0825134 0)
(0.699427 0.0759103 0)
(0.6839 0.0741818 0)
(0.669448 0.0772006 0)
(0.655544 0.0834162 0)
(0.641547 0.0903508 0)
(0.626806 0.0948704 0)
(0.611375 0.0951236 0)
(0.596084 0.0910997 0)
(0.580926 0.0858292 0)
(0.565454 0.0833133 0)
(0.550055 0.08479 0)
(0.53504 0.0897882 0)
(0.519915 0.0955578 0)
(0.503854 0.097671 0)
(0.487735 0.0950712 0)
(0.471351 0.0928093 0)
(0.454971 0.0938533 0)
(0.438701 0.0965381 0)
(0.422356 0.0995123 0)
(0.405732 0.101604 0)
(0.388796 0.102151 0)
(0.371688 0.10274 0)
(0.354582 0.104266 0)
(0.337593 0.105709 0)
(0.320795 0.106511 0)
(0.304029 0.107086 0)
(0.286902 0.107934 0)
(0.269076 0.109421 0)
(0.250483 0.111091 0)
(0.231443 0.112304 0)
(0.212442 0.112792 0)
(0.193792 0.112769 0)
(0.175484 0.112897 0)
(0.157373 0.113374 0)
(0.139359 0.114673 0)
(0.121385 0.116315 0)
(0.103511 0.118935 0)
(0.0856714 0.12191 0)
(0.0677242 0.125315 0)
(0.0493212 0.129051 0)
(0.0301141 0.131323 0)
(0.0104618 0.134054 0)
(3 -1.20745e-16 0)
(3 6.06925e-17 0)
(3 -1.80487e-16 0)
(3 -2.44807e-17 0)
(3 -1.2594e-16 0)
(3 -3.91444e-16 0)
(3 -1.09226e-15 0)
(3 -5.26849e-16 0)
(3 2.1788e-16 0)
(3 9.30556e-16 0)
(3 9.48587e-16 0)
(3 2.89917e-16 0)
(3 3.81717e-16 0)
(3 1.53995e-16 0)
(3 1.81025e-16 0)
(3 -2.157e-16 0)
(3 -8.80101e-16 0)
(3 -2.84819e-16 0)
(3 -3.29538e-16 0)
(3 1.41735e-16 0)
(3 3.90144e-16 0)
(3 -2.40845e-16 0)
(3 -4.33999e-16 0)
(3 -4.35131e-16 0)
(3 -2.59527e-16 0)
(3 3.2358e-16 0)
(3 7.03935e-16 0)
(3 7.4944e-16 0)
(3 4.21931e-16 0)
(3 3.7653e-16 0)
(3 -2.96666e-16 0)
(3 6.30113e-17 0)
(3 3.79131e-16 0)
(3 -1.95816e-16 0)
(3 -6.07239e-16 0)
(3 -8.21875e-16 0)
(3 -1.21502e-15 0)
(3 -1.36058e-16 0)
(3 1.58323e-15 0)
(3 1.75571e-15 0)
(3 2.60005e-15 0)
(3 1.87329e-15 0)
(3 2.67994e-16 0)
(3 -1.90056e-15 0)
(3 -2.58737e-15 0)
(3 -1.92177e-15 0)
(3 -1.58248e-15 0)
(3 -1.67028e-15 0)
(3 -3.76143e-15 0)
(2.15998 0.089909 0)
(0.849691 0.0940126 0)
(0.753877 0.109618 0)
(0.737524 0.10251 0)
(0.7191 0.0968002 0)
(0.702683 0.0896452 0)
(0.686598 0.0871402 0)
(0.671451 0.089434 0)
(0.656932 0.0952279 0)
(0.642701 0.10225 0)
(0.628 0.107343 0)
(0.612648 0.108298 0)
(0.597329 0.10484 0)
(0.582075 0.0998593 0)
(0.566431 0.0973559 0)
(0.550763 0.0987574 0)
(0.535488 0.103768 0)
(0.520288 0.109801 0)
(0.504254 0.112398 0)
(0.488237 0.11007 0)
(0.472068 0.107904 0)
(0.455938 0.109105 0)
(0.439935 0.111891 0)
(0.423892 0.114928 0)
(0.407593 0.117187 0)
(0.390933 0.117932 0)
(0.374074 0.118772 0)
(0.357241 0.120651 0)
(0.340531 0.122411 0)
(0.323995 0.12339 0)
(0.307456 0.124123 0)
(0.290473 0.125239 0)
(0.272683 0.127119 0)
(0.254006 0.129162 0)
(0.234781 0.130557 0)
(0.215529 0.131021 0)
(0.196584 0.130892 0)
(0.177929 0.13099 0)
(0.159413 0.131501 0)
(0.140955 0.132927 0)
(0.122506 0.134664 0)
(0.104133 0.137389 0)
(0.0858962 0.140531 0)
(0.0675978 0.144084 0)
(0.0490527 0.148178 0)
(0.0297965 0.150712 0)
(0.0103578 0.15389 0)
(3 1.22704e-16 0)
(3 3.64818e-16 0)
(3 -2.11887e-16 0)
(3 -2.72987e-16 0)
(3 -1.35629e-16 0)
(3 -3.61517e-17 0)
(3 5.9479e-17 0)
(3 -3.34392e-16 0)
(3 -1.12494e-16 0)
(3 -3.23864e-16 0)
(3 -4.99013e-16 0)
(3 -5.42209e-16 0)
(3 -3.23438e-16 0)
(3 -7.00858e-16 0)
(3 -1.32282e-15 0)
(3 -1.62193e-15 0)
(3 -1.33933e-15 0)
(3 -8.14768e-16 0)
(3 1.52911e-16 0)
(3 2.6459e-16 0)
(3 3.99715e-16 0)
(3 9.14435e-16 0)
(3 9.72286e-16 0)
(3 2.15819e-16 0)
(3 -2.29868e-16 0)
(3 1.15451e-16 0)
(3 4.49934e-16 0)
(3 7.87045e-16 0)
(3 1.18371e-16 0)
(3 -5.32406e-17 0)
(3 -6.45717e-16 0)
(3 -5.59214e-16 0)
(3 1.32515e-16 0)
(3 3.08701e-16 0)
(3 8.57799e-17 0)
(3 -5.52821e-16 0)
(3 -9.75813e-16 0)
(3 -1.17492e-15 0)
(3 -8.81549e-16 0)
(3 1.55877e-16 0)
(3 1.4566e-15 0)
(3 1.83423e-15 0)
(3 9.85079e-16 0)
(3 -8.33782e-16 0)
(3 -1.65457e-15 0)
(3 -1.24135e-15 0)
(3 -9.56855e-16 0)
(3 -7.33757e-16 0)
(3 -2.80819e-15 0)
(2.28008 0.0970242 0)
(0.864638 0.107907 0)
(0.755212 0.122374 0)
(0.739338 0.115785 0)
(0.720965 0.111417 0)
(0.70437 0.104272 0)
(0.68809 0.100545 0)
(0.672879 0.102102 0)
(0.658428 0.107401 0)
(0.644315 0.114234 0)
(0.62987 0.11979 0)
(0.614697 0.121451 0)
(0.5994 0.118596 0)
(0.584121 0.113931 0)
(0.568457 0.111455 0)
(0.552755 0.112727 0)
(0.537487 0.117611 0)
(0.522501 0.123795 0)
(0.506735 0.12687 0)
(0.490912 0.124899 0)
(0.474951 0.122849 0)
(0.459 0.124169 0)
(0.443154 0.126991 0)
(0.4273 0.130025 0)
(0.411261 0.132446 0)
(0.394887 0.133407 0)
(0.378358 0.134449 0)
(0.36191 0.136581 0)
(0.345555 0.138577 0)
(0.329254 0.139731 0)
(0.312774 0.140732 0)
(0.295651 0.14234 0)
(0.277546 0.144891 0)
(0.258412 0.147552 0)
(0.238658 0.149271 0)
(0.218911 0.149744 0)
(0.199554 0.149474 0)
(0.180563 0.149495 0)
(0.161742 0.150011 0)
(0.142975 0.15156 0)
(0.124175 0.153412 0)
(0.105398 0.156225 0)
(0.0867338 0.159488 0)
(0.0680105 0.16311 0)
(0.0492017 0.16749 0)
(0.0297337 0.17023 0)
(0.0103421 0.173831 0)
(3 -8.59938e-17 0)
(3 -1.72402e-16 0)
(3 4.36908e-16 0)
(3 4.31121e-16 0)
(3 1.06921e-15 0)
(3 1.0586e-15 0)
(3 1.24114e-15 0)
(3 8.8686e-16 0)
(3 -7.0911e-17 0)
(3 -3.15761e-16 0)
(3 -6.37328e-16 0)
(3 -1.30844e-15 0)
(3 -1.63574e-15 0)
(3 -2.02042e-15 0)
(3 -2.52339e-15 0)
(3 -1.85507e-15 0)
(3 -1.64341e-15 0)
(3 -1.19878e-15 0)
(3 1.71066e-16 0)
(3 1.2094e-16 0)
(3 3.82302e-16 0)
(3 5.61522e-16 0)
(3 2.84752e-16 0)
(3 3.60722e-16 0)
(3 3.89795e-16 0)
(3 6.65427e-16 0)
(3 1.32093e-15 0)
(3 1.60592e-15 0)
(3 1.4114e-15 0)
(3 1.08566e-15 0)
(3 5.24693e-16 0)
(3 -2.85607e-16 0)
(3 -3.29042e-16 0)
(3 2.07883e-16 0)
(3 2.38101e-16 0)
(3 -3.72028e-17 0)
(3 7.806e-17 0)
(3 -9.28102e-16 0)
(3 -1.4467e-15 0)
(3 -1.59685e-15 0)
(3 -1.01899e-15 0)
(3 3.26285e-16 0)
(3 2.83137e-16 0)
(3 4.13632e-17 0)
(3 -5.52437e-16 0)
(3 -4.526e-16 0)
(3 -1.29807e-16 0)
(3 -1.20526e-16 0)
(3 -9.38088e-16 0)
(2.41625 0.100113 0)
(0.886504 0.12118 0)
(0.758355 0.133923 0)
(0.742058 0.128795 0)
(0.723766 0.125867 0)
(0.70762 0.118865 0)
(0.691729 0.114069 0)
(0.676732 0.114398 0)
(0.66246 0.118946 0)
(0.648335 0.125875 0)
(0.633741 0.132098 0)
(0.618357 0.134606 0)
(0.602864 0.132388 0)
(0.587514 0.127975 0)
(0.571858 0.125435 0)
(0.55618 0.126483 0)
(0.540943 0.13116 0)
(0.52614 0.137493 0)
(0.510598 0.141135 0)
(0.494917 0.139635 0)
(0.479153 0.137717 0)
(0.463382 0.139105 0)
(0.447663 0.141894 0)
(0.431895 0.144853 0)
(0.415942 0.147425 0)
(0.399588 0.14866 0)
(0.383015 0.149965 0)
(0.366476 0.152443 0)
(0.349921 0.154852 0)
(0.333254 0.156413 0)
(0.316277 0.157899 0)
(0.298617 0.160142 0)
(0.280054 0.163409 0)
(0.260608 0.166641 0)
(0.240712 0.168558 0)
(0.220979 0.168887 0)
(0.20169 0.168361 0)
(0.182699 0.168265 0)
(0.16374 0.168816 0)
(0.144682 0.170547 0)
(0.125467 0.172592 0)
(0.106193 0.175513 0)
(0.0870371 0.17884 0)
(0.0678927 0.182435 0)
(0.0488993 0.187012 0)
(0.0293738 0.189874 0)
(0.0102057 0.193849 0)
(3 -3.98683e-17 0)
(3 -3.83641e-17 0)
(3 3.32044e-16 0)
(3 4.09231e-16 0)
(3 7.66844e-16 0)
(3 6.00954e-16 0)
(3 8.27896e-16 0)
(3 9.95233e-16 0)
(3 2.14195e-16 0)
(3 -8.01612e-16 0)
(3 -1.80421e-15 0)
(3 -1.93811e-15 0)
(3 -1.80177e-15 0)
(3 -1.71781e-15 0)
(3 -1.22986e-15 0)
(3 -7.24107e-16 0)
(3 -3.52531e-16 0)
(3 -1.47442e-16 0)
(3 -6.76218e-17 0)
(3 3.18214e-16 0)
(3 1.34494e-15 0)
(3 3.76733e-16 0)
(3 -2.56425e-16 0)
(3 2.59401e-16 0)
(3 4.22682e-16 0)
(3 1.26967e-15 0)
(3 2.23823e-15 0)
(3 2.0783e-15 0)
(3 1.61522e-15 0)
(3 1.35382e-15 0)
(3 9.83527e-16 0)
(3 2.57381e-16 0)
(3 -1.08326e-15 0)
(3 -1.75974e-15 0)
(3 -6.21336e-16 0)
(3 -8.00014e-17 0)
(3 -2.79007e-16 0)
(3 -1.06901e-15 0)
(3 -1.41904e-15 0)
(3 -2.48021e-15 0)
(3 -2.38724e-15 0)
(3 -1.56197e-15 0)
(3 -5.6864e-16 0)
(3 4.60386e-16 0)
(3 -6.58296e-17 0)
(3 -4.06327e-16 0)
(3 -3.03429e-16 0)
(3 -9.17094e-17 0)
(3 -2.13466e-15 0)
(2.55783 0.0973147 0)
(0.914051 0.135183 0)
(0.760395 0.145698 0)
(0.74507 0.142109 0)
(0.727928 0.139788 0)
(0.713139 0.13291 0)
(0.697956 0.127321 0)
(0.682754 0.12663 0)
(0.667854 0.13081 0)
(0.653005 0.13797 0)
(0.637742 0.144961 0)
(0.621914 0.148214 0)
(0.606347 0.146445 0)
(0.591198 0.14214 0)
(0.575737 0.139429 0)
(0.560132 0.140169 0)
(0.544836 0.144597 0)
(0.530012 0.151095 0)
(0.514466 0.15538 0)
(0.498666 0.154472 0)
(0.482862 0.152758 0)
(0.46707 0.154262 0)
(0.451281 0.157077 0)
(0.435362 0.160001 0)
(0.419242 0.162773 0)
(0.402673 0.164344 0)
(0.385876 0.165922 0)
(0.369168 0.16872 0)
(0.35247 0.171527 0)
(0.33562 0.173481 0)
(0.318428 0.175403 0)
(0.300564 0.178198 0)
(0.281872 0.182079 0)
(0.262378 0.185777 0)
(0.242502 0.187815 0)
(0.222838 0.187997 0)
(0.20359 0.187301 0)
(0.184556 0.187226 0)
(0.165467 0.18795 0)
(0.146207 0.189965 0)
(0.126714 0.192246 0)
(0.107133 0.195267 0)
(0.087607 0.198591 0)
(0.0681134 0.202046 0)
(0.0489099 0.2067 0)
(0.0292444 0.209576 0)
(0.0101566 0.213842 0)
(3 1.63057e-16 0)
(3 2.21079e-16 0)
(3 -2.73512e-17 0)
(3 -6.87106e-16 0)
(3 -1.1034e-15 0)
(3 -7.96259e-16 0)
(3 -3.25631e-16 0)
(3 -4.02096e-16 0)
(3 -1.12311e-15 0)
(3 -1.83608e-15 0)
(3 -2.35244e-15 0)
(3 -1.30794e-15 0)
(3 -6.38931e-16 0)
(3 -1.28726e-15 0)
(3 -1.38039e-15 0)
(3 -1.66826e-15 0)
(3 -8.91075e-16 0)
(3 -1.98252e-16 0)
(3 7.02693e-17 0)
(3 9.8856e-16 0)
(3 9.18338e-16 0)
(3 9.92288e-16 0)
(3 1.02197e-15 0)
(3 6.46774e-16 0)
(3 4.52713e-16 0)
(3 3.43296e-16 0)
(3 5.38092e-16 0)
(3 9.23584e-16 0)
(3 5.55547e-16 0)
(3 5.84333e-16 0)
(3 7.9491e-16 0)
(3 6.67001e-16 0)
(3 -1.89394e-16 0)
(3 -1.709e-15 0)
(3 -1.82544e-15 0)
(3 -1.1781e-15 0)
(3 -6.79795e-16 0)
(3 -8.57673e-16 0)
(3 -1.48763e-15 0)
(3 -1.68446e-15 0)
(3 -1.63926e-15 0)
(3 -2.04473e-15 0)
(3 -1.58439e-15 0)
(3 -1.90944e-15 0)
(3 -1.47947e-15 0)
(3 -1.19742e-15 0)
(3 -1.21018e-15 0)
(3 -8.90504e-16 0)
(3 -1.24321e-15 0)
(2.69111 0.093441 0)
(0.946525 0.153103 0)
(0.764365 0.155813 0)
(0.752432 0.153798 0)
(0.736406 0.151764 0)
(0.722076 0.145642 0)
(0.706412 0.140643 0)
(0.690075 0.139874 0)
(0.673817 0.143955 0)
(0.657969 0.151211 0)
(0.642428 0.158414 0)
(0.626922 0.161855 0)
(0.611898 0.160248 0)
(0.597058 0.15612 0)
(0.581565 0.153437 0)
(0.565647 0.154024 0)
(0.54986 0.158251 0)
(0.534637 0.164876 0)
(0.51887 0.169747 0)
(0.502826 0.169435 0)
(0.48689 0.16794 0)
(0.471027 0.169592 0)
(0.455141 0.172508 0)
(0.43903 0.175426 0)
(0.422709 0.178386 0)
(0.405914 0.180289 0)
(0.38887 0.182103 0)
(0.371943 0.185171 0)
(0.355026 0.18838 0)
(0.337878 0.190763 0)
(0.320332 0.193141 0)
(0.302152 0.196461 0)
(0.2833 0.200894 0)
(0.263857 0.204983 0)
(0.244251 0.207076 0)
(0.225042 0.207093 0)
(0.206305 0.206253 0)
(0.187715 0.206245 0)
(0.168924 0.207195 0)
(0.149787 0.209558 0)
(0.130177 0.212128 0)
(0.110257 0.215317 0)
(0.0902042 0.218732 0)
(0.0700752 0.222076 0)
(0.0502488 0.226794 0)
(0.0299628 0.229688 0)
(0.0104048 0.234223 0)
(3 -1.96238e-16 0)
(3 -3.13398e-16 0)
(3 -2.98952e-16 0)
(3 -4.85505e-16 0)
(3 -6.51692e-16 0)
(3 -4.73805e-16 0)
(3 -5.13302e-16 0)
(3 -3.91661e-16 0)
(3 -3.93429e-16 0)
(3 -6.67343e-16 0)
(3 -7.95395e-16 0)
(3 -1.10909e-15 0)
(3 -8.65625e-16 0)
(3 -7.59473e-16 0)
(3 -6.97073e-16 0)
(3 -3.341e-16 0)
(3 -2.25799e-16 0)
(3 9.20395e-18 0)
(3 5.65101e-16 0)
(3 7.2613e-16 0)
(3 3.5567e-16 0)
(3 1.37621e-15 0)
(3 1.37116e-15 0)
(3 3.14658e-16 0)
(3 2.17215e-16 0)
(3 -3.49549e-16 0)
(3 -1.27079e-15 0)
(3 -1.13612e-15 0)
(3 -9.1213e-18 0)
(3 5.63897e-16 0)
(3 4.162e-16 0)
(3 -7.4632e-17 0)
(3 -9.85926e-16 0)
(3 -1.39086e-15 0)
(3 -1.42543e-15 0)
(3 -3.59221e-16 0)
(3 2.37958e-16 0)
(3 5.21498e-17 0)
(3 -8.88753e-16 0)
(3 -1.18573e-15 0)
(3 -1.51034e-15 0)
(3 -1.46567e-15 0)
(3 -1.5677e-15 0)
(3 -1.41777e-15 0)
(3 -1.00108e-15 0)
(3 -6.96273e-16 0)
(3 -7.99238e-16 0)
(3 -1.02792e-15 0)
(3 -2.17762e-15 0)
(2.81936 0.0849922 0)
(0.991412 0.167879 0)
(0.773333 0.160571 0)
(0.762903 0.163142 0)
(0.746362 0.163339 0)
(0.731482 0.159352 0)
(0.71531 0.155475 0)
(0.698509 0.154636 0)
(0.681938 0.15811 0)
(0.666187 0.164672 0)
(0.651028 0.171215 0)
(0.635948 0.174375 0)
(0.620951 0.1733 0)
(0.605725 0.169974 0)
(0.589701 0.167834 0)
(0.573175 0.168509 0)
(0.556745 0.172479 0)
(0.541057 0.178998 0)
(0.525082 0.184241 0)
(0.508749 0.184492 0)
(0.492509 0.18327 0)
(0.476384 0.185153 0)
(0.460257 0.188308 0)
(0.443842 0.191295 0)
(0.42725 0.194452 0)
(0.410203 0.196703 0)
(0.392896 0.198749 0)
(0.375733 0.202056 0)
(0.3586 0.205647 0)
(0.341184 0.208445 0)
(0.323353 0.211204 0)
(0.304985 0.214902 0)
(0.286183 0.219688 0)
(0.26708 0.223947 0)
(0.248069 0.225905 0)
(0.229605 0.225654 0)
(0.211537 0.22468 0)
(0.193392 0.224854 0)
(0.174752 0.226227 0)
(0.155484 0.22918 0)
(0.135422 0.232291 0)
(0.114792 0.235868 0)
(0.093862 0.239566 0)
(0.072792 0.242892 0)
(0.0520766 0.247693 0)
(0.0309648 0.250612 0)
(0.0107323 0.255387 0)
(3 -2.62849e-16 0)
(3 -3.53278e-16 0)
(3 2.15786e-17 0)
(3 2.20531e-16 0)
(3 2.91146e-16 0)
(3 -2.87995e-17 0)
(3 -7.48353e-16 0)
(3 -7.49656e-16 0)
(3 2.59767e-16 0)
(3 3.39208e-16 0)
(3 6.68346e-16 0)
(3 3.30709e-16 0)
(3 3.77881e-16 0)
(3 7.72374e-16 0)
(3 6.47472e-16 0)
(3 8.97513e-16 0)
(3 7.67035e-16 0)
(3 1.1315e-15 0)
(3 1.70662e-15 0)
(3 1.80238e-15 0)
(3 7.78061e-16 0)
(3 8.96359e-16 0)
(3 9.58302e-16 0)
(3 7.68239e-16 0)
(3 7.1728e-16 0)
(3 6.51398e-16 0)
(3 -3.05828e-16 0)
(3 -1.29573e-15 0)
(3 -8.77324e-16 0)
(3 -5.65105e-16 0)
(3 -7.84045e-16 0)
(3 -1.13722e-15 0)
(3 -1.19668e-15 0)
(3 -1.06389e-15 0)
(3 -1.49319e-16 0)
(3 7.8017e-16 0)
(3 5.86531e-16 0)
(3 -5.09198e-17 0)
(3 -4.57065e-16 0)
(3 -5.25248e-16 0)
(3 -2.42729e-16 0)
(3 -2.83264e-16 0)
(3 -6.10588e-16 0)
(3 -3.71957e-16 0)
(3 -7.03263e-16 0)
(3 -8.55443e-16 0)
(3 -8.48503e-16 0)
(3 -3.94345e-16 0)
(3 -9.68649e-16 0)
(2.924 0.0522566 0)
(1.03763 0.1819 0)
(0.780534 0.164061 0)
(0.772402 0.172562 0)
(0.756287 0.174035 0)
(0.741874 0.17178 0)
(0.726134 0.169086 0)
(0.709703 0.168347 0)
(0.693204 0.171273 0)
(0.6774 0.177227 0)
(0.662132 0.183405 0)
(0.646852 0.186853 0)
(0.63149 0.186638 0)
(0.615888 0.184254 0)
(0.599599 0.18273 0)
(0.582804 0.183502 0)
(0.565978 0.187088 0)
(0.54987 0.193296 0)
(0.533643 0.1988 0)
(0.516921 0.199684 0)
(0.500252 0.198809 0)
(0.483799 0.200948 0)
(0.467461 0.20442 0)
(0.45082 0.207519 0)
(0.434038 0.210849 0)
(0.416819 0.213454 0)
(0.399291 0.215735 0)
(0.381884 0.219243 0)
(0.364502 0.223184 0)
(0.346787 0.226366 0)
(0.328652 0.229417 0)
(0.310105 0.233319 0)
(0.291376 0.238228 0)
(0.272611 0.242437 0)
(0.254106 0.244141 0)
(0.236129 0.243701 0)
(0.218298 0.242845 0)
(0.200088 0.243533 0)
(0.18109 0.245653 0)
(0.161256 0.249462 0)
(0.140393 0.253312 0)
(0.118879 0.257371 0)
(0.0970156 0.261392 0)
(0.0750516 0.264678 0)
(0.0535542 0.269492 0)
(0.0317631 0.272367 0)
(0.0109915 0.277302 0)
(3 7.77809e-18 0)
(3 1.36242e-16 0)
(3 3.59294e-16 0)
(3 3.99407e-16 0)
(3 4.04407e-17 0)
(3 -7.04686e-16 0)
(3 -1.36632e-15 0)
(3 -1.22483e-15 0)
(3 -1.76757e-16 0)
(3 1.75136e-15 0)
(3 1.91986e-15 0)
(3 1.89816e-15 0)
(3 9.86346e-16 0)
(3 3.51715e-16 0)
(3 2.55985e-16 0)
(3 1.68075e-16 0)
(3 8.29743e-16 0)
(3 1.06666e-15 0)
(3 -1.15368e-17 0)
(3 -3.47292e-16 0)
(3 -8.30625e-16 0)
(3 -6.863e-16 0)
(3 -1.71301e-16 0)
(3 4.91211e-16 0)
(3 7.22585e-16 0)
(3 1.18557e-15 0)
(3 1.13572e-15 0)
(3 2.76114e-16 0)
(3 -1.29668e-15 0)
(3 -2.15725e-15 0)
(3 -1.80826e-15 0)
(3 -5.57073e-16 0)
(3 3.048e-17 0)
(3 -3.39267e-16 0)
(3 -1.03506e-15 0)
(3 -1.11338e-15 0)
(3 -8.51347e-16 0)
(3 -5.79846e-16 0)
(3 5.50345e-17 0)
(3 5.58817e-16 0)
(3 1.23364e-16 0)
(3 -1.80092e-15 0)
(3 -1.81e-15 0)
(3 -1.74567e-15 0)
(3 -1.56507e-15 0)
(3 -1.20621e-15 0)
(3 -1.20558e-15 0)
(3 -1.54341e-16 0)
(3 7.90072e-16 0)
(2.98224 0.0151687 0)
(1.08379 0.194071 0)
(0.783523 0.168771 0)
(0.777043 0.181318 0)
(0.763071 0.185354 0)
(0.749166 0.184821 0)
(0.733955 0.183169 0)
(0.718144 0.182618 0)
(0.702103 0.185079 0)
(0.686612 0.190342 0)
(0.671655 0.196016 0)
(0.656718 0.199476 0)
(0.641682 0.199703 0)
(0.626371 0.198037 0)
(0.610323 0.197224 0)
(0.593609 0.198396 0)
(0.576575 0.201882 0)
(0.560072 0.207886 0)
(0.543626 0.213644 0)
(0.526691 0.215128 0)
(0.509818 0.214521 0)
(0.493231 0.216807 0)
(0.476855 0.220616 0)
(0.460099 0.223925 0)
(0.443168 0.227488 0)
(0.425788 0.230516 0)
(0.408018 0.233093 0)
(0.390309 0.236799 0)
(0.372618 0.241057 0)
(0.354574 0.244584 0)
(0.336138 0.247828 0)
(0.317414 0.251759 0)
(0.298695 0.256591 0)
(0.280072 0.260621 0)
(0.261689 0.262146 0)
(0.243622 0.261811 0)
(0.22539 0.261429 0)
(0.206579 0.262903 0)
(0.186843 0.265932 0)
(0.166238 0.270655 0)
(0.144517 0.275266 0)
(0.122182 0.279757 0)
(0.0995324 0.284067 0)
(0.0768412 0.287273 0)
(0.0547254 0.292044 0)
(0.0324061 0.294812 0)