/*--------------------------------*- C++ -*----------------------------------*\
  =========                 |
  \\      /  F ield         | OpenFOAM: The Open Source CFD Toolbox
   \\    /   O peration     | Website:  https://openfoam.org
    \\  /    A nd           | Version:  7
     \\/     M anipulation  |
\*---------------------------------------------------------------------------*/
FoamFile
{
    version     2.0;
    format      ascii;
    class       volScalarField;
    location    "3.5";
    object      p;
}
// * * * * * * * * * * * * * * * * * * * * * * * * * * * * * * * * * * * * * //

dimensions      [1 -1 -2 0 0 0 0];

internalField   nonuniform List<scalar> 
64512
(
1
1
1
1
1
1
1
1
1
1
1
1
1
1
1
1
1
1
1
1
1
1
1
1
1
1
1
1
1
1
1
1
1
1
1
1
1
1
1
1
1
1
1
1
1
1
1
1
1
6.58623
10.3831
10.4531
10.5056
10.5717
10.6324
10.69
10.7439
10.7957
10.847
10.8987
10.951
11.0029
11.053
11.1007
11.1469
11.1932
11.2402
11.2882
11.3369
11.3853
11.4323
11.4765
11.5164
11.5535
11.5892
11.6229
11.6533
11.6816
11.7099
11.7396
11.7711
11.8034
11.835
11.8644
11.891
11.9151
11.9373
11.9581
11.9777
11.9961
12.0132
12.0282
12.0403
12.0488
12.054
12.0579
1
1
1
1
1
1
1
1
1
1
1
1
1
1
1
1
1
1
1
1
1
1
1
1
1
1
1
1
1
1
1
1
1
1
1
1
1
1
1
1
1
1
1
1
1
1
1
1
1
6.53699
10.3719
10.4515
10.5052
10.5716
10.6321
10.6896
10.7431
10.7947
10.8461
10.8979
10.9503
11.0021
11.0521
11.0997
11.1458
11.192
11.2388
11.2864
11.3347
11.3827
11.4298
11.4743
11.5146
11.5516
11.5868
11.6199
11.6501
11.6789
11.708
11.7384
11.77
11.802
11.833
11.8618
11.8881
11.912
11.9341
11.9548
11.9745
11.993
12.01
12.0249
12.0369
12.0453
12.0503
12.0542
1
1
1
1
1
1
1
1
1
1
1
1
1
1
1
1
1
1
1
1
1
1
1
1
1
1
1
1
1
1
1
1
1
1
1
1
1
1
1
1
1
1
1
1
1
1
1
1
1
6.43802
10.3645
10.4454
10.5027
10.5693
10.63
10.6875
10.7406
10.7919
10.8434
10.8956
10.9481
10.9999
11.0499
11.0974
11.1433
11.1893
11.236
11.2831
11.3309
11.3785
11.4256
11.4704
11.5111
11.5481
11.5827
11.615
11.6451
11.6745
11.7047
11.7361
11.768
11.7997
11.83
11.8581
11.8837
11.907
11.9289
11.9495
11.9692
11.9878
12.0048
12.0196
12.0314
12.0396
12.0446
12.0483
1
1
1
1
1
1
1
1
1
1
1
1
1
1
1
1
1
1
1
1
1
1
1
1
1
1
1
1
1
1
1
1
1
1
1
1
1
1
1
1
1
1
1
1
1
1
1
1
1
6.29606
10.3504
10.4393
10.4997
10.5662
10.6271
10.6849
10.7378
10.7886
10.8399
10.8922
10.9447
10.9965
11.0464
11.094
11.1396
11.1852
11.2314
11.2778
11.325
11.3723
11.4194
11.4644
11.5051
11.5418
11.5757
11.6076
11.6378
11.6683
11.6999
11.7323
11.7645
11.7958
11.8252
11.8523
11.877
11.8998
11.9213
11.9419
11.9616
11.9803
11.9972
12.0116
12.0231
12.031
12.0359
12.0396
1
1
1
1
1
1
1
1
1
1
1
1
1
1
1
1
1
1
1
1
1
1
1
1
1
1
1
1
1
1
1
1
1
1
1
1
1
1
1
1
1
1
1
1
1
1
1
1
1
6.11052
10.3281
10.4325
10.4949
10.5613
10.6227
10.6809
10.7339
10.7845
10.8354
10.8876
10.9401
10.9917
11.0417
11.0893
11.1346
11.1798
11.2253
11.2709
11.3177
11.3647
11.4116
11.4564
11.4967
11.533
11.5664
11.5981
11.6289
11.6605
11.6934
11.7267
11.7592
11.7899
11.8184
11.8444
11.8682
11.8904
11.9116
11.9322
11.9521
11.9708
11.9874
12.0014
12.0123
12.02
12.0248
12.0284
1
1
1
1
1
1
1
1
1
1
1
1
1
1
1
1
1
1
1
1
1
1
1
1
1
1
1
1
1
1
1
1
1
1
1
1
1
1
1
1
1
1
1
1
1
1
1
1
1
5.882
10.2975
10.4247
10.4879
10.554
10.6164
10.6753
10.7288
10.7793
10.8299
10.8819
10.9342
10.9856
11.0357
11.0836
11.1286
11.173
11.2178
11.2626
11.3088
11.3556
11.4019
11.4463
11.4858
11.5216
11.5547
11.5868
11.6186
11.6515
11.6855
11.7194
11.7518
11.7819
11.8094
11.8344
11.8573
11.8789
11.8999
11.9206
11.9405
11.959
11.9753
11.9887
11.9991
12.0064
12.011
12.0146
1
1
1
1
1
1
1
1
1
1
1
1
1
1
1
1
1
1
1
1
1
1
1
1
1
1
1
1
1
1
1
1
1
1
1
1
1
1
1
1
1
1
1
1
1
1
1
1
1
5.61243
10.2597
10.416
10.4781
10.5438
10.6071
10.6669
10.7215
10.7726
10.8232
10.8751
10.9272
10.9783
11.0283
11.0762
11.1209
11.1647
11.2088
11.2527
11.2984
11.3448
11.3902
11.4337
11.4722
11.5077
11.541
11.5739
11.6067
11.6406
11.6755
11.7096
11.7417
11.7711
11.7976
11.8216
11.8438
11.865
11.886
11.9067
11.9267
11.945
11.9608
11.9736
11.9836
11.9908
11.9954
11.9988
1
1
1
1
1
1
1
1
1
1
1
1
1
1
1
1
1
1
1
1
1
1
1
1
1
1
1
1
1
1
1
1
1
1
1
1
1
1
1
1
1
1
1
1
1
1
1
1
1
5.30455
10.2159
10.4051
10.4645
10.5305
10.5946
10.6554
10.7114
10.7637
10.8146
10.8668
10.9189
10.9697
11.0195
11.0672
11.1117
11.1548
11.1982
11.2414
11.2864
11.3321
11.3764
11.419
11.4567
11.4923
11.5261
11.5597
11.5933
11.6279
11.663
11.6969
11.7284
11.757
11.7826
11.8057
11.8273
11.8484
11.8695
11.8904
11.9103
11.9282
11.9436
11.9561
11.9659
11.9732
11.9779
11.9815
1
1
1
1
1
1
1
1
1
1
1
1
1
1
1
1
1
1
1
1
1
1
1
1
1
1
1
1
1
1
1
1
1
1
1
1
1
1
1
1
1
1
1
1
1
1
1
1
1
4.96043
10.1657
10.3905
10.4467
10.5141
10.5792
10.6415
10.699
10.7524
10.804
10.8565
10.9088
10.9593
11.0086
11.0562
11.1005
11.143
11.1859
11.2283
11.2724
11.3173
11.3605
11.4027
11.4401
11.4761
11.5106
11.5451
11.5792
11.614
11.649
11.6824
11.713
11.7405
11.765
11.7874
11.8086
11.8296
11.8508
11.8716
11.8911
11.9085
11.9233
11.9354
11.9451
11.9525
11.9573
11.961
1
1
1
1
1
1
1
1
1
1
1
1
1
1
1
1
1
1
1
1
1
1
1
1
1
1
1
1
1
1
1
1
1
1
1
1
1
1
1
1
1
1
1
1
1
1
1
1
1
4.58103
10.1025
10.3742
10.4277
10.4967
10.5624
10.6255
10.6844
10.7392
10.7916
10.8444
10.8969
10.9472
10.9958
11.0431
11.0873
11.1293
11.1718
11.2135
11.2563
11.3002
11.3426
11.3847
11.422
11.4586
11.4937
11.5287
11.5631
11.5978
11.6324
11.665
11.6946
11.7211
11.7448
11.7667
11.7878
11.809
11.8303
11.8507
11.8696
11.8862
11.9004
11.9123
11.9219
11.9294
11.9342
11.9379
1
1
1
1
1
1
1
1
1
1
1
1
1
1
1
1
1
1
1
1
1
1
1
1
1
1
1
1
1
1
1
1
1
1
1
1
1
1
1
1
1
1
1
1
1
1
1
1
1
4.16761
10.0101
10.3608
10.4128
10.4828
10.5469
10.6092
10.6688
10.7248
10.7781
10.8313
10.8841
10.9338
10.9816
11.0283
11.0723
11.1138
11.1559
11.1969
11.2384
11.2814
11.3231
11.3653
11.4026
11.4397
11.4751
11.5104
11.5446
11.5789
11.6127
11.6443
11.6728
11.6983
11.7216
11.7433
11.7646
11.786
11.8072
11.8271
11.8452
11.8611
11.8748
11.8865
11.896
11.9035
11.9082
11.912
1
1
1
1
1
1
1
1
1
1
1
1
1
1
1
1
1
1
1
1
1
1
1
1
1
1
1
1
1
1
1
1
1
1
1
1
1
1
1
1
1
1
1
1
1
1
1
1
1
3.72621
9.86481
10.3518
10.4035
10.4747
10.5349
10.5946
10.6532
10.7095
10.7635
10.817
10.87
10.9196
10.9665
11.0126
11.0564
11.0975
11.1392
11.1799
11.2203
11.2628
11.3039
11.3462
11.3834
11.4204
11.4556
11.4905
11.5239
11.5572
11.5898
11.6202
11.6474
11.6722
11.6952
11.7171
11.7388
11.7604
11.7813
11.8007
11.818
11.8333
11.8466
11.858
11.8674
11.8748
11.8793
11.8829
1
1
1
1
1
1
1
1
1
1
1
1
1
1
1
1
1
1
1
1
1
1
1
1
1
1
1
1
1
1
1
1
1
1
1
1
1
1
1
1
1
1
1
1
1
1
1
1
1
3.27212
9.65219
10.3455
10.3963
10.4667
10.5247
10.5818
10.6384
10.6931
10.7461
10.7996
10.853
10.903
10.9494
10.9948
11.0383
11.079
11.1202
11.1609
11.2007
11.2429
11.2839
11.3261
11.3634
11.4001
11.4348
11.469
11.5014
11.5333
11.5644
11.5933
11.6193
11.6433
11.6661
11.6883
11.7102
11.7318
11.7523
11.7709
11.7876
11.8023
11.8153
11.8266
11.8358
11.8431
11.8474
11.851
1
1
1
1
1
1
1
1
1
1
1
1
1
1
1
1
1
1
1
1
1
1
1
1
1
1
1
1
1
1
1
1
1
1
1
1
1
1
1
1
1
1
1
1
1
1
1
1
1
2.82299
9.37352
10.339
10.3881
10.4592
10.5153
10.5713
10.6259
10.6794
10.7304
10.7815
10.8341
10.8841
10.93
10.9746
11.0179
11.0584
11.099
11.1399
11.1794
11.2214
11.2624
11.3045
11.3417
11.3778
11.4118
11.4451
11.4763
11.5068
11.5363
11.5638
11.5886
11.6119
11.6345
11.6567
11.6787
11.7001
11.72
11.738
11.754
11.7682
11.781
11.792
11.8008
11.8078
11.8118
11.8152
1
1
1
1
1
1
1
1
1
1
1
1
1
1
1
1
1
1
1
1
1
1
1
1
1
1
1
1
1
1
1
1
1
1
1
1
1
1
1
1
1
1
1
1
1
1
1
1
1
2.38891
9.02021
10.3402
10.3824
10.4508
10.5045
10.5602
10.6142
10.6659
10.7161
10.7653
10.8159
10.8657
10.9115
10.9555
10.9984
11.0384
11.0779
11.1185
11.1574
11.1989
11.2397
11.2811
11.3182
11.3533
11.3862
11.4183
11.4481
11.4771
11.5051
11.5315
11.5555
11.5782
11.6005
11.6225
11.6441
11.665
11.6843
11.7016
11.717
11.7307
11.743
11.7537
11.7621
11.7689
11.7727
11.7761
1
1
1
1
1
1
1
1
1
1
1
1
1
1
1
1
1
1
1
1
1
1
1
1
1
1
1
1
1
1
1
1
1
1
1
1
1
1
1
1
1
1
1
1
1
1
1
1
1
1.97074
8.57638
10.3463
10.3793
10.4433
10.4927
10.5464
10.599
10.6509
10.6995
10.7475
10.7967
10.846
10.8923
10.9362
10.9788
11.0185
11.0566
11.0966
11.1351
11.1756
11.2158
11.2558
11.2924
11.3261
11.3577
11.3883
11.4167
11.4442
11.471
11.4966
11.52
11.5421
11.5638
11.5851
11.6062
11.6265
11.6453
11.662
11.6767
11.6897
11.7013
11.7113
11.7193
11.7257
11.7291
11.7322
1
1
1
1
1
1
1
1
1
1
1
1
1
1
1
1
1
1
1
1
1
1
1
1
1
1
1
1
1
1
1
1
1
1
1
1
1
1
1
1
1
1
1
1
1
1
1
1
1
1.58981
8.05958
10.3731
10.3685
10.4269
10.4724
10.527
10.5798
10.6321
10.6806
10.7276
10.7755
10.8243
10.8711
10.9153
10.958
10.9976
11.0346
11.0736
11.1121
11.1514
11.1907
11.2288
11.2646
11.2966
11.3266
11.3556
11.3824
11.4086
11.4343
11.4591
11.4819
11.5032
11.5239
11.5444
11.5647
11.5844
11.6027
11.6187
11.6325
11.6445
11.6552
11.6644
11.672
11.678
11.6812
11.6842
1
1
1
1
1
1
1
1
1
1
1
1
1
1
1
1
1
1
1
1
1
1
1
1
1
1
1
1
1
1
1
1
1
1
1
1
1
1
1
1
1
1
1
1
1
1
1
1
1
1.25219
7.44767
10.3862
10.3563
10.4111
10.4556
10.5071
10.5575
10.6072
10.6555
10.7034
10.7516
10.8002
10.8474
10.8922
10.9351
10.9747
11.0111
11.0486
11.0869
11.1252
11.1637
11.1997
11.2347
11.2651
11.2935
11.3205
11.3459
11.3706
11.3951
11.4191
11.4409
11.4612
11.4807
11.5002
11.5196
11.5387
11.5564
11.5717
11.5844
11.5951
11.6045
11.6129
11.6197
11.625
11.6278
11.6306
1
1
1
1
1
1
1
1
1
1
1
1
1
1
1
1
1
1
1
1
1
1
1
1
1
1
1
1
1
1
1
1
1
1
1
1
1
1
1
1
1
1
1
1
1
1
1
1
1
1.01376
6.81645
10.3316
10.31
10.3675
10.4206
10.478
10.535
10.5866
10.6333
10.678
10.7238
10.7715
10.8192
10.8647
10.9079
10.9477
10.9841
11.0203
11.0583
11.0958
11.1339
11.1682
11.202
11.2312
11.2582
11.2833
11.3072
11.3304
11.3536
11.3762
11.3969
11.4158
11.4339
11.4521
11.4706
11.4888
11.5057
11.5199
11.5313
11.5406
11.5486
11.5559
11.5619
11.5667
11.5691
11.5717
1
1
1
1
1
1
1
1
1
1
1
1
1
1
1
1
1
1
1
1
1
1
1
1
1
1
1
1
1
1
1
1
1
1
1
1
1
1
1
1
1
1
1
1
1
1
1
1
1
1.00009
6.01917
10.1756
10.2733
10.3346
10.3929
10.4464
10.4991
10.5502
10.6001
10.6473
10.6942
10.7411
10.7881
10.8336
10.8769
10.9169
10.9534
10.9886
11.0261
11.063
11.1008
11.134
11.1665
11.1946
11.2205
11.2439
11.2665
11.2881
11.3097
11.3307
11.3498
11.367
11.3835
11.4002
11.4175
11.4347
11.4505
11.4635
11.4734
11.481
11.4875
11.4932
11.4978
11.5016
11.5034
11.5055
1
1
1
1
1
1
1
1
1
1
1
1
1
1
1
1
1
1
1
1
1
1
1
1
1
1
1
1
1
1
1
1
1
1
1
1
1
1
1
1
1
1
1
1
1
1
1
1
1
1
5.18541
10.021
10.2258
10.2935
10.3635
10.4244
10.4805
10.5315
10.5782
10.6219
10.666
10.7107
10.7555
10.7999
10.8423
10.8823
10.9192
10.9536
10.9901
11.0264
11.0636
11.0966
11.1275
11.155
11.1801
11.2022
11.2234
11.2435
11.2632
11.2821
11.2992
11.3145
11.3291
11.3441
11.3598
11.3755
11.3896
11.401
11.4092
11.415
11.4197
11.4234
11.4267
11.4296
11.4308
11.4326
1
1
1
1
1
1
1
1
1
1
1
1
1
1
1
1
1
1
1
1
1
1
1
1
1
1
1
1
1
1
1
1
1
1
1
1
1
1
1
1
1
1
1
1
1
1
1
1
1
1
4.30032
9.80066
10.1924
10.2716
10.3359
10.3945
10.4508
10.5038
10.5527
10.5978
10.6413
10.684
10.7264
10.7674
10.8069
10.8455
10.8808
10.9149
10.9501
10.9855
11.0218
11.055
11.0849
11.1121
11.1367
11.1578
11.1776
11.1961
11.2137
11.2303
11.2451
11.2583
11.2708
11.2838
11.2974
11.311
11.3232
11.3327
11.3392
11.3432
11.3455
11.3465
11.3475
11.3484
11.3485
11.3495
1
1
1
1
1
1
1
1
1
1
1
1
1
1
1
1
1
1
1
1
1
1
1
1
1
1
1
1
1
1
1
1
1
1
1
1
1
1
1
1
1
1
1
1
1
1
1
1
1
1
3.43768
9.46362
10.1882
10.2517
10.3222
10.3842
10.437
10.4837
10.5274
10.5692
10.611
10.6529
10.6942
10.7342
10.7724
10.8082
10.8439
10.8744
10.9076
10.942
10.9766
11.0098
11.0391
11.0659
11.0899
11.1103
11.1286
11.1453
11.1607
11.1748
11.1872
11.1981
11.2083
11.2187
11.2297
11.2405
11.25
11.2571
11.261
11.2626
11.262
11.26
11.2586
11.2577
11.2569
11.2575
1
1
1
1
1
1
1
1
1
1
1
1
1
1
1
1
1
1
1
1
1
1
1
1
1
1
1
1
1
1
1
1
1
1
1
1
1
1
1
1
1
1
1
1
1
1
1
1
1
1
2.6372
8.96165
10.1994
10.249
10.313
10.3589
10.4078
10.4583
10.5052
10.5468
10.5856
10.6233
10.6607
10.6981
10.7349
10.7697
10.8028
10.8359
10.8638
10.8957
10.9278
10.9607
10.9897
11.016
11.0392
11.0589
11.0757
11.0906
11.1039
11.1156
11.1254
11.1339
11.1413
11.1488
11.1564
11.1637
11.1699
11.1741
11.1756
11.1743
11.1699
11.1643
11.1591
11.1545
11.1513
11.1502
1
1
1
1
1
1
1
1
1
1
1
1
1
1
1
1
1
1
1
1
1
1
1
1
1
1
1
1
1
1
1
1
1
1
1
1
1
1
1
1
1
1
1
1
1
1
1
1
1
1
1.85814
8.31481
10.2986
10.2362
10.2939
10.3417
10.3914
10.4358
10.476
10.5166
10.5559
10.5943
10.6309
10.6659
10.6992
10.7313
10.7614
10.7913
10.8208
10.8488
10.8779
10.908
10.9369
10.9624
10.9846
11.0033
11.0186
11.0317
11.0428
11.0522
11.0594
11.0651
11.0696
11.0735
11.0769
11.08
11.0821
11.0826
11.0798
11.0737
11.0645
11.0542
11.0448
11.0371
11.032
11.0299
1
1
1
1
1
1
1
1
1
1
1
1
1
1
1
1
1
1
1
1
1
1
1
1
1
1
1
1
1
1
1
1
1
1
1
1
1
1
1
1
1
1
1
1
1
1
1
1
1
1
1.21119
7.50199
10.3737
10.2663
10.2704
10.3025
10.3516
10.4015
10.4475
10.4887
10.5262
10.5623
10.5973
10.6318
10.6646
10.6948
10.7228
10.7489
10.7753
10.8008
10.8258
10.8536
10.8809
10.9049
10.9257
10.9431
10.9569
10.9682
10.9773
10.9843
10.9889
10.9917
10.9927
10.9924
10.9913
10.9893
10.9864
10.9816
10.9736
10.9624
10.9481
10.932
10.9158
10.9012
10.8907
10.8844
1
1
1
1
1
1
1
1
1
1
1
1
1
1
1
1
1
1
1
1
1
1
1
1
1
1
1
1
1
1
1
1
1
1
1
1
1
1
1
1
1
1
1
1
1
1
1
1
1
1
1.00636
6.57282
10.1801
10.1326
10.2109
10.2663
10.3187
10.365
10.4122
10.4561
10.494
10.5289
10.563
10.5962
10.6279
10.6568
10.6834
10.7078
10.7315
10.7541
10.7756
10.7974
10.8222
10.845
10.8633
10.8787
10.8907
10.9
10.907
10.9116
10.9133
10.9129
10.91
10.9052
10.8988
10.891
10.8819
10.8703
10.8553
10.8361
10.8126
10.7867
10.7617
10.7404
10.7258
10.7187
1
1
1
1
1
1
1
1
1
1
1
1
1
1
1
1
1
1
1
1
1
1
1
1
1
1
1
1
1
1
1
1
1
1
1
1
1
1
1
1
1
1
1
1
1
1
1
1
1
1
1.00001
5.40635
9.91886
10.0923
10.1802
10.2352
10.2881
10.3381
10.3802
10.4168
10.4545
10.491
10.5255
10.5581
10.5892
10.6176
10.6429
10.6654
10.6866
10.7068
10.7257
10.744
10.7627
10.7823
10.7986
10.8112
10.8208
10.8276
10.8322
10.834
10.8326
10.8286
10.8216
10.8118
10.7996
10.7852
10.768
10.7478
10.7234
10.6943
10.6609
10.6248
10.5883
10.5524
10.5231
10.5036
1
1
1
1
1
1
1
1
1
1
1
1
1
1
1
1
1
1
1
1
1
1
1
1
1
1
1
1
1
1
1
1
1
1
1
1
1
1
1
1
1
1
1
1
1
1
1
1
1
1
1
4.29822
9.63706
10.0348
10.1236
10.2038
10.2596
10.3033
10.342
10.38
10.4165
10.4495
10.4838
10.5167
10.5474
10.5754
10.6
10.6213
10.6406
10.6581
10.6745
10.6898
10.7047
10.7196
10.7322
10.7419
10.7485
10.752
10.7535
10.7515
10.7467
10.7386
10.7268
10.7118
10.6931
10.6706
10.6442
10.6135
10.5775
10.5352
10.4854
10.4284
10.368
10.3115
10.2676
10.2489
1
1
1
1
1
1
1
1
1
1
1
1
1
1
1
1
1
1
1
1
1
1
1
1
1
1
1
1
1
1
1
1
1
1
1
1
1
1
1
1
1
1
1
1
1
1
1
1
1
1
1
3.21716
9.12472
10.0264
10.129
10.1986
10.2432
10.2818
10.3133
10.3448
10.3758
10.4084
10.4403
10.4711
10.5012
10.5291
10.5535
10.5742
10.592
10.6077
10.6216
10.6342
10.6455
10.6563
10.6657
10.6713
10.6743
10.6742
10.6718
10.665
10.6559
10.6432
10.6263
10.6054
10.5793
10.5479
10.5106
10.4671
10.4158
10.3553
10.2844
10.2049
10.1203
10.0351
9.94642
9.87219
1
1
1
1
1
1
1
1
1
1
1
1
1
1
1
1
1
1
1
1
1
1
1
1
1
1
1
1
1
1
1
1
1
1
1
1
1
1
1
1
1
1
1
1
1
1
1
1
1
1
1
2.13506
8.39868
10.156
10.1358
10.1671
10.2017
10.2409
10.2793
10.3128
10.3424
10.3696
10.3966
10.4253
10.4531
10.4796
10.5035
10.5239
10.5407
10.5549
10.5669
10.577
10.5852
10.5919
10.5979
10.6
10.5986
10.5945
10.5874
10.5753
10.5612
10.5429
10.5201
10.4923
10.458
10.4166
10.3669
10.3081
10.2387
10.1569
10.0595
9.94312
9.80037
9.63227
9.46796
9.35011
1
1
1
1
1
1
1
1
1
1
1
1
1
1
1
1
1
1
1
1
1
1
1
1
1
1
1
1
1
1
1
1
1
1
1
1
1
1
1
1
1
1
1
1
1
1
1
1
1
1
1
1.24164
7.5245
10.2868
10.1409
10.1239
10.1564
10.2008
10.2412
10.2752
10.3059
10.3334
10.3585
10.3818
10.4055
10.429
10.4509
10.4702
10.4863
10.4994
10.5094
10.5174
10.5231
10.5266
10.5286
10.5275
10.5219
10.5131
10.5003
10.4836
10.4637
10.4391
10.4094
10.3736
10.3301
10.2775
10.2139
10.1381
10.0474
9.93841
9.80386
9.63581
9.42891
9.18168
8.91789
8.74757
1
1
1
1
1
1
1
1
1
1
1
1
1
1
1
1
1
1
1
1
1
1
1
1
1
1
1
1
1
1
1
1
1
1
1
1
1
1
1
1
1
1
1
1
1
1
1
1
1
1
1
1.00689
6.39769
10.0155
9.99618
10.0644
10.1105
10.1576
10.202
10.2369
10.2676
10.2945
10.3186
10.3407
10.3611
10.3805
10.3992
10.4162
10.4306
10.4423
10.4501
10.4558
10.459
10.4596
10.4582
10.4534
10.4436
10.4296
10.4115
10.3896
10.3636
10.3323
10.2947
10.25
10.1962
10.1313
10.0526
9.95801
9.84325
9.70332
9.52849
9.30654
9.00793
8.56481
7.72972
5.78225
1
1
1
1
1
1
1
1
1
1
1
1
1
1
1
1
1
1
1
1
1
1
1
1
1
1
1
1
1
1
1
1
1
1
1
1
1
1
1
1
1
1
1
1
1
1
1
1
1
1
1
0.99997
4.97174
9.65098
9.93965
10.0346
10.0817
10.1197
10.1602
10.1947
10.2252
10.252
10.2755
10.2963
10.3151
10.3322
10.3477
10.3619
10.3741
10.3836
10.3894
10.3924
10.3927
10.3906
10.3861
10.3779
10.3641
10.3449
10.3215
10.294
10.2617
10.2235
10.1776
10.1229
10.0579
9.97982
9.88526
9.77079
9.63073
9.45759
9.2378
8.94546
8.53592
7.89242
6.93019
4.72145
1
1
1
1
1
1
1
1
1
1
1
1
1
1
1
1
1
1
1
1
1
1
1
1
1
1
1
1
1
1
1
1
1
1
1
1
1
1
1
1
1
1
1
1
1
1
1
1
1
1
1
0.999992
3.65541
9.2407
9.93444
10.0042
10.0584
10.0978
10.1211
10.149
10.1783
10.2055
10.2292
10.2497
10.2674
10.283
10.2963
10.3075
10.3171
10.3242
10.3283
10.3277
10.3248
10.3196
10.3117
10.3003
10.2829
10.2592
10.2304
10.1968
10.1578
10.1123
10.0579
9.99324
9.91635
9.82472
9.71401
9.57954
9.41414
9.20853
8.9447
8.5973
8.10034
7.43947
6.16861
4.34959
1
1
1
1
1
1
1
1
1
1
1
1
1
1
1
1
1
1
1
1
1
1
1
1
1
1
1
1
1
1
1
1
1
1
1
1
1
1
1
1
1
1
1
1
1
1
1
1
1
1
1
0.999999
2.35379
8.49987
10.012
10.0008
10.0298
10.0583
10.0848
10.112
10.1379
10.1625
10.1845
10.2034
10.2193
10.2328
10.2439
10.2527
10.2596
10.2645
10.2665
10.2627
10.2563
10.2474
10.2358
10.221
10.2003
10.1728
10.1386
10.0989
10.053
9.99975
9.93698
9.86261
9.77387
9.6686
9.54193
9.38846
9.19906
8.96503
8.66351
8.27644
7.73316
6.98698
5.74747
4.25008
1
1
1
1
1
1
1
1
1
1
1
1
1
1
1
1
1
1
1
1
1
1
1
1
1
1
1
1
1
1
1
1
1
1
1
1
1
1
1
1
1
1
1
1
1
1
1
1
1
1
1
1
1.28628
7.57414
10.162
10.0292
9.98968
10.0088
10.0427
10.0713
10.0966
10.1193
10.1391
10.156
10.1702
10.1815
10.1903
10.197
10.2013
10.2041
10.2038
10.1973
10.1874
10.1743
10.1586
10.1397
10.1158
10.0849
10.0462
10.0005
9.94742
9.88614
9.81453
9.73091
9.63135
9.51339
9.37171
9.20123
8.99116
8.73326
8.40492
7.98403
7.42697
6.64843
5.55122
4.36841
1
1
1
1
1
1
1
1
1
1
1
1
1
1
1
1
1
1
1
1
1
1
1
1
1
1
1
1
1
1
1
1
1
1
1
1
1
1
1
1
1
1
1
1
1
1
1
1
1
1
1
1
1.00928
6.26641
9.82623
9.85809
9.91425
9.95346
9.99439
10.0256
10.052
10.0744
10.093
10.1083
10.1209
10.1299
10.1361
10.1404
10.1423
10.143
10.1401
10.1316
10.1186
10.1014
10.0813
10.0581
10.0304
9.99601
9.95317
9.90191
9.84183
9.77275
9.6926
9.59985
9.4905
9.36156
9.20624
9.02093
8.79441
8.51774
8.17258
7.73314
7.17079
6.42971
5.49287
4.5101
1
1
1
1
1
1
1
1
1
1
1
1
1
1
1
1
1
1
1
1
1
1
1
1
1
1
1
1
1
1
1
1
1
1
1
1
1
1
1
1
1
1
1
1
1
1
1
1
1
1
1
1
0.999948
4.64218
9.42452
9.81011
9.89036
9.92843
9.95198
9.98031
10.0061
10.0281
10.046
10.0601
10.0713
10.0781
10.0816
10.0833
10.0827
10.0808
10.0755
10.065
10.0492
10.0283
10.0039
9.97614
9.94425
9.90597
9.85932
9.8032
9.73679
9.6603
9.57207
9.47057
9.35179
9.21355
9.04734
8.85004
8.61149
8.32234
7.96811
7.52665
6.9735
6.29684
5.48839
4.6449
1
1
1
1
1
1
1
1
1
1
1
1
1
1
1
1
1
1
1
1
1
1
1
1
1
1
1
1
1
1
1
1
1
1
1
1
1
1
1
1
1
1
1
1
1
1
1
1
1
1
1
1
0.999987
3.09512
8.88282
9.83772
9.87468
9.89441
9.9176
9.93988
9.96141
9.98116
9.99773
10.0106
10.0205
10.0255
10.0267
10.0256
10.0225
10.0179
10.0104
9.99807
9.97974
9.95571
9.92713
9.89489
9.85864
9.81601
9.76518
9.70452
9.63261
9.54948
9.45387
9.34462
9.21775
9.07061
8.89639
8.69031
8.44357
8.14773
7.79287
7.358
6.82861
6.21153
5.50908
4.78827
1
1
1
1
1
1
1
1
1
1
1
1
1
1
1
1
1
1
1
1
1
1
1
1
1
1
1
1
1
1
1
1
1
1
1
1
1
1
1
1
1
1
1
1
1
1
1
1
1
1
1
1
0.999998
1.74912
8.08279
9.90982
9.83242
9.84533
9.87909
9.90191
9.92092
9.93768
9.95186
9.96268
9.97074
9.97358
9.9725
9.96851
9.96232
9.95474
9.94471
9.93029
9.90981
9.88298
9.85051
9.8137
9.77289
9.72614
9.67105
9.60622
9.52977
9.44117
9.33916
9.22296
9.08934
8.93452
8.75379
8.54186
8.29116
7.99349
7.64529
7.21806
6.72398
6.17043
5.54701
4.92192
1
1
1
1
1
1
1
1
1
1
1
1
1
1
1
1
1
1
1
1
1
1
1
1
1
1
1
1
1
1
1
1
1
1
1
1
1
1
1
1
1
1
1
1
1
1
1
1
1
1
1
1
1
1.06328
6.70526
9.8668
9.80385
9.80444
9.83497
9.85765
9.87604
9.89135
9.904
9.91357
9.91983
9.92101
9.91811
9.91165
9.90251
9.89186
9.87911
9.8625
9.84006
9.81078
9.77493
9.73377
9.68809
9.6373
9.57824
9.50928
9.42866
9.3354
9.22802
9.10584
8.96654
8.80615
8.62088
8.40517
8.1535
7.85823
7.51884
7.10596
6.65596
6.15356
5.58547
5.03773
1
1
1
1
1
1
1
1
1
1
1
1
1
1
1
1
1
1
1
1
1
1
1
1
1
1
1
1
1
1
1
1
1
1
1
1
1
1
1
1
1
1
1
1
1
1
1
1
1
1
1
1
1
1.00022
4.92048
9.37856
9.6794
9.76273
9.79957
9.81323
9.82948
9.84357
9.8551
9.86375
9.86815
9.86808
9.86354
9.8549
9.84293
9.8291
9.81321
9.79412
9.76976
9.73844
9.69985
9.65484
9.60426
9.5487
9.48597
9.41374
9.3296
9.23275
9.12131
8.99437
8.85023
8.68578
8.49775
8.28072
8.03019
7.7399
7.41104
7.02094
6.61002
6.13821
5.62207
5.13939
1
1
1
1
1
1
1
1
1
1
1
1
1
1
1
1
1
1
1
1
1
1
1
1
1
1
1
1
1
1
1
1
1
1
1
1
1
1
1
1
1
1
1
1
1
1
1
1
1
1
1
1
1
0.999997
3.13181
8.87823
9.74413
9.75523
9.75857
9.7736
9.78884
9.80034
9.80981
9.81623
9.8185
9.81672
9.81033
9.79956
9.785
9.76791
9.74868
9.72676
9.7001
9.66682
9.62592
9.5777
9.52277
9.46232
9.39545
9.32034
9.23339
9.13344
9.01868
8.88806
8.74007
8.57277
8.38349
8.16743
7.92037
7.63755
7.31919
6.95532
6.57299
6.12664
5.67157
5.23154
1
1
1
1
1
1
1
1
1
1
1
1
1
1
1
1
1
1
1
1
1
1
1
1
1
1
1
1
1
1
1
1
1
1
1
1
1
1
1
1
1
1
1
1
1
1
1
1
1
1
1
1
1
0.999999
1.63911
8.01359
9.83838
9.7167
9.70025
9.72414
9.74198
9.75283
9.76072
9.76588
9.76681
9.76372
9.75593
9.7435
9.72681
9.70674
9.68422
9.65931
9.63022
9.59504
9.55236
9.5018
9.44347
9.37857
9.30717
9.22833
9.13913
9.03734
8.92034
8.7874
8.63689
8.4677
8.27806
8.06429
7.82247
7.54895
7.24185
6.90218
6.5412
6.12859
5.72717
5.30803
1
1
1
1
1
1
1
1
1
1
1
1
1
1
1
1
1
1
1
1
1
1
1
1
1
1
1
1
1
1
1
1
1
1
1
1
1
1
1
1
1
1
1
1
1
1
1
1
1
1
1
1
1
1
1.04225
6.51954
9.62814
9.60303
9.64108
9.67277
9.69264
9.70487
9.71207
9.7165
9.71637
9.71203
9.70287
9.68887
9.67021
9.64743
9.62168
9.59355
9.56173
9.52439
9.47989
9.42738
9.3664
9.29787
9.22226
9.13938
9.04743
8.94412
8.82605
8.69192
8.53999
8.37007
8.1809
7.96998
7.73444
7.47182
7.1769
6.85708
6.51612
6.13959
5.77282
5.36992
1
1
1
1
1
1
1
1
1
1
1
1
1
1
1
1
1
1
1
1
1
1
1
1
1
1
1
1
1
1
1
1
1
1
1
1
1
1
1
1
1
1
1
1
1
1
1
1
1
1
1
1
1
1
1.00005
4.53627
9.15677
9.5302
9.61433
9.64595
9.65745
9.66109
9.66479
9.66691
9.6652
9.65948
9.64904
9.63368
9.61331
9.58831
9.55968
9.52839
9.49368
9.4541
9.40786
9.3539
9.29122
9.22016
9.14109
9.05432
8.95908
8.85353
8.73477
8.60102
8.44944
8.28002
8.09228
7.8841
7.65596
7.4022
7.11938
6.82208
6.4998
6.15085
5.80428
5.42601
1
1
1
1
1
1
1
1
1
1
1
1
1
1
1
1
1
1
1
1
1
1
1
1
1
1
1
1
1
1
1
1
1
1
1
1
1
1
1
1
1
1
1
1
1
1
1
1
1
1
1
1
1
1
0.999999
2.58284
8.54379
9.63722
9.61477
9.61192
9.61801
9.62038
9.62076
9.61962
9.61554
9.60795
9.59599
9.57916
9.55724
9.53034
9.49917
9.46492
9.42722
9.38517
9.33702
9.28165
9.21762
9.14479
9.06311
8.97309
8.87463
8.76666
8.64707
8.5138
8.36414
8.19689
8.01155
7.80647
7.58517
7.33687
7.07251
6.79713
6.48302
6.15729
5.83153
5.48552
1
1
1
1
1
1
1
1
1
1
1
1
1
1
1
1
1
1
1
1
1
1
1
1
1
1
1
1
1
1
1
1
1
1
1
1
1
1
1
1
1
1
1
1
1
1
1
1
1
1
1
1
1
1
1
1.21896
7.32551
9.72158
9.59072
9.56117
9.56791
9.57285
9.57261
9.57011
9.56468
9.5558
9.54267
9.52461
9.50141
9.47294
9.43965
9.40279
9.36218
9.31745
9.26719
9.2104
9.14543
9.07164
8.98845
8.89618
8.79498
8.68457
8.56379
8.43077
8.28303
8.11906
7.93844
7.73586
7.52026
7.27924
7.03492
6.7674
6.46118
6.16913
5.86218
5.54281
1
1
1
1
1
1
1
1
1
1
1
1
1
1
1
1
1
1
1
1
1
1
1
1
1
1
1
1
1
1
1
1
1
1
1
1
1
1
1
1
1
1
1
1
1
1
1
1
1
1
1
1
1
1
1
1.00432
5.49823
9.25062
9.42909
9.50417
9.52926
9.52766
9.52486
9.52036
9.51353
9.5034
9.4892
9.46994
9.44559
9.41582
9.38076
9.34169
9.29849
9.25115
9.19866
9.14026
9.07438
9.00003
8.91605
8.8225
8.71942
8.60706
8.48501
8.35215
8.20625
8.046
7.87004
7.67207
7.46369
7.23062
6.99692
6.7322
6.45254
6.18707
5.8884
5.59092
1
1
1
1
1
1
1
1
1
1
1
1
1
1
1
1
1
1
1
1
1
1
1
1
1
1
1
1
1
1
1
1
1
1
1
1
1
1
1
1
1
1
1
1
1
1
1
1
1
1
1
1
1
1
1
0.999954
3.30144
8.76132
9.4901
9.49336
9.49433
9.49104
9.48482
9.47619
9.46634
9.45382
9.43783
9.41699
9.3912
9.36003
9.32334
9.28233
9.23686
9.18708
9.13228
9.072
9.00492
8.93007
8.84592
8.75209
8.64817
8.53462
8.41143
8.27841
8.134
7.97683
7.80514
7.61442
7.41151
7.18755
6.96187
6.70574
6.45341
6.19319
5.90595
5.6342
1
1
1
1
1
1
1
1
1
1
1
1
1
1
1
1
1
1
1
1
1
1
1
1
1
1
1
1
1
1
1
1
1
1
1
1
1
1
1
1
1
1
1
1
1
1
1
1
1
1
1
1
1
1
1
0.999988
1.52816
7.81828
9.61804
9.48027
9.44105
9.43914
9.43426
9.4257
9.41543
9.4019
9.38492
9.36316
9.33636
9.30407
9.26611
9.22353
9.17622
9.12436
9.06752
9.00536
8.93689
8.86139
8.77727
8.68383
8.58004
8.46635
8.34272
8.20962
8.06644
7.91155
7.74464
7.56068
7.36148
7.15142
6.93462
6.68773
6.44892
6.19293
5.93404
5.67627
1
1
1
1
1
1
1
1
1
1
1
1
1
1
1
1
1
1
1
1
1
1
1
1
1
1
1
1
1
1
1
1
1
1
1
1
1
1
1
1
1
1
1
1
1
1
1
1
1
1
1
1
1
1
1
0.999998
1.0266
6.082
9.24776
9.34028
9.38867
9.39456
9.38452
9.37572
9.36486
9.35047
9.33276
9.31027
9.28263
9.2494
9.21037
9.16646
9.11764
9.06405
9.00543
8.94151
8.87153
8.79506
8.71071
8.61777
8.51482
8.4019
8.27878
8.14593
8.00372
7.85024
7.6881
7.50857
7.31632
7.12084
6.90564
6.67007
6.44517
6.20201
5.95953
5.70526
1
1
1
1
1
1
1
1
1
1
1
1
1
1
1
1
1
1
1
1
1
1
1
1
1
1
1
1
1
1
1
1
1
1
1
1
1
1
1
1
1
1
1
1
1
1
1
1
1
1
1
1
1
1
1
1
0.999928
3.73373
8.79021
9.33698
9.35621
9.354
9.34757
9.33676
9.32168
9.30357
9.28321
9.25905
9.22998
9.19565
9.15557
9.11047
9.06033
9.00523
8.94511
8.87967
8.8083
8.73081
8.64607
8.55346
8.4517
8.34029
8.21904
8.08712
7.94614
7.79346
7.63492
7.45957
7.27767
7.08929
6.87571
6.65977
6.44595
6.21385
5.97858
5.73194
1
1
1
1
1
1
1
1
1
1
1
1
1
1
1
1
1
1
1
1
1
1
1
1
1
1
1
1
1
1
1
1
1
1
1
1
1
1
1
1
1
1
1
1
1
1
1
1
1
1
1
1
1
1
1
1
0.999979
1.73341
7.99655
9.46919
9.34807
9.31266
9.29879
9.28757
9.27158
9.2527
9.23138
9.20662
9.1771
9.14229
9.10169
9.05581
9.00471
8.94849
8.88721
8.82054
8.748
8.66956
8.5843
8.49167
8.39091
8.28097
8.16244
8.03203
7.8928
7.74084
7.58534
7.41436
7.2421
7.05588
6.85206
6.65475
6.44293
6.21877
5.99501
5.76413
1
1
1
1
1
1
1
1
1
1
1
1
1
1
1
1
1
1
1
1
1
1
1
1
1
1
1
1
1
1
1
1
1
1
1
1
1
1
1
1
1
1
1
1
1
1
1
1
1
1
1
1
1
1
1
1
0.999997
1.04893
6.2465
9.14773
9.22241
9.24789
9.25202
9.24011
9.22202
9.20207
9.17979
9.15448
9.12493
9.08981
9.04895
9.00253
8.9506
8.89339
8.83112
8.76346
8.69004
8.61086
8.52518
8.43246
8.3325
8.224
8.1085
7.98003
7.84324
7.69382
7.54088
7.37406
7.20822
7.02579
6.83608
6.64516
6.43612
6.22658
6.01557
5.79836
1
1
1
1
1
1
1
1
1
1
1
1
1
1
1
1
1
1
1
1
1
1
1
1
1
1
1
1
1
1
1
1
1
1
1
1
1
1
1
1
1
1
1
1
1
1
1
1
1
1
1
1
1
1
1
1
1
1.00004
3.76208
8.69499
9.19677
9.21034
9.21134
9.20387
9.18479
9.16111
9.13494
9.10668
9.07537
9.03932
8.99785
8.95089
8.89828
8.84027
8.77719
8.70871
8.63465
8.55487
8.46893
8.37615
8.2768
8.16959
8.05631
7.9296
7.79582
7.65143
7.50017
7.33801
7.1768
6.99992
6.81932
6.63055
6.43331
6.2375
6.03436
5.82313
1
1
1
1
1
1
1
1
1
1
1
1
1
1
1
1
1
1
1
1
1
1
1
1
1
1
1
1
1
1
1
1
1
1
1
1
1
1
1
1
1
1
1
1
1
1
1
1
1
1
1
1
1
1
1
1
1
0.999999
1.64485
7.84516
9.34997
9.21612
9.18071
9.15626
9.13637
9.11217
9.08556
9.05652
9.0245
8.98836
8.9469
8.89991
8.84706
8.78856
8.72489
8.6559
8.58141
8.50147
8.41545
8.32299
8.22394
8.11858
8.0059
7.88155
7.75148
7.61263
7.46326
7.30725
7.14932
6.97716
6.80098
6.6193
6.43556
6.24476
6.04719
5.84251
1
1
1
1
1
1
1
1
1
1
1
1
1
1
1
1
1
1
1
1
1
1
1
1
1
1
1
1
1
1
1
1
1
1
1
1
1
1
1
1
1
1
1
1
1
1
1
1
1
1
1
1
1
1
1
1
1
1
1.03718
6.00002
8.99869
9.07224
9.10758
9.10857
9.09176
9.06628
9.03871
9.00836
8.97534
8.9388
8.89743
8.85048
8.79762
8.7389
8.67482
8.60522
8.53044
8.45036
8.3643
8.27229
8.17372
8.0701
7.9569
7.83573
7.70944
7.57443
7.42855
7.27967
7.12347
6.95494
6.78412
6.61272
6.43608
6.24488
6.05564
5.86297
1
1
1
1
1
1
1
1
1
1
1
1
1
1
1
1
1
1
1
1
1
1
1
1
1
1
1
1
1
1
1
1
1
1
1
1
1
1
1
1
1
1
1
1
1
1
1
1
1
1
1
1
1
1
1
1
1
1
0.999958
3.35509
8.45873
9.10128
9.09091
9.06711
9.05183
9.03057
9.00108
8.96657
8.93036
8.89194
8.84971
8.80244
8.74953
8.69078
8.62651
8.55663
8.4817
8.40173
8.31596
8.2246
8.12689
8.02345
7.91181
7.79345
7.67003
7.53733
7.39694
7.25364
7.09888
6.93604
6.77196
6.60761
6.43261
6.24431
6.06738
5.88574
1
1
1
1
1
1
1
1
1
1
1
1
1
1
1
1
1
1
1
1
1
1
1
1
1
1
1
1
1
1
1
1
1
1
1
1
1
1
1
1
1
1
1
1
1
1
1
1
1
1
1
1
1
1
1
1
1
1
0.999984
1.37573
7.40201
9.24353
9.0871
9.0378
9.00654
8.98688
8.9554
8.91948
8.88278
8.84399
8.80173
8.75485
8.70241
8.64409
8.57989
8.51011
8.43492
8.35498
8.26942
8.17861
8.08153
7.97878
7.86929
7.75332
7.63182
7.50138
7.36694
7.22639
7.07499
6.92052
6.76162
6.59988
6.42684
6.2472
6.08193
5.90573
1
1
1
1
1
1
1
1
1
1
1
1
1
1
1
1
1
1
1
1
1
1
1
1
1
1
1
1
1
1
1
1
1
1
1
1
1
1
1
1
1
1
1
1
1
1
1
1
1
1
1
1
1
1
1
1
1
1
0.999997
1.01248
5.33353
8.77814
8.89612
8.94676
8.9668
8.94819
8.91251
8.87586
8.83852
8.79889
8.75582
8.70889
8.65677
8.59905
8.5353
8.466
8.39083
8.31108
8.22563
8.1354
8.039
7.93718
7.82937
7.71574
7.59583
7.46833
7.33804
7.19917
7.05386
6.90653
6.75034
6.59195
6.42469
6.25467
6.09595
5.92213
1
1
1
1
1
1
1
1
1
1
1
1
1
1
1
1
1
1
1
1
1
1
1
1
1
1
1
1
1
1
1
1
1
1
1
1
1
1
1
1
1
1
1
1
1
1
1
1
1
1
1
1
1
1
1
1
1
1
1
0.99993
2.66903
8.17183
8.95468
8.96299
8.95348
8.91109
8.87197
8.8369
8.79958
8.75771
8.71269
8.6648
8.61255
8.55518
8.49193
8.42312
8.34832
8.26879
8.18364
8.09376
7.9979
7.89689
7.79054
7.67919
7.56118
7.43695
7.3092
7.173
7.03444
6.89095
6.7371
6.58481
6.42595
6.26304
6.1052
5.93335
1
1
1
1
1
1
1
1
1
1
1
1
1
1
1
1
1
1
1
1
1
1
1
1
1
1
1
1
1
1
1
1
1
1
1
1
1
1
1
1
1
1
1
1
1
1
1
1
1
1
1
1
1
1
1
1
1
1
1
0.999982
1.20679
6.63053
8.98333
8.93686
8.90545
8.85873
8.82595
8.79628
8.75898
8.71544
8.66886
8.62057
8.56878
8.51244
8.45045
8.38271
8.30874
8.22949
8.14471
8.05489
7.95951
7.85914
7.754
7.64467
7.52865
7.4074
7.28188
7.1493
7.01564
6.87407
6.72433
6.57944
6.42773
6.26946
6.11197
5.94536
1
1
1
1
1
1
1
1
1
1
1
1
1
1
1
1
1
1
1
1
1
1
1
1
1
1
1
1
1
1
1
1
1
1
1
1
1
1
1
1
1
1
1
1
1
1
1
1
1
1
1
1
1
1
1
1
1
1
1
0.999997
1.0032
4.03674
8.47705
8.84902
8.83416
8.80042
8.7909
8.76769
8.7274
8.68028
8.6308
8.58056
8.52768
8.4712
8.40973
8.34267
8.26946
8.19074
8.10661
8.01724
7.92257
7.82293
7.71903
7.61135
7.49722
7.37881
7.25601
7.12726
6.99659
6.85733
6.7138
6.57465
6.42683
6.27182
6.11778
5.96089
1
1
1
1
1
1
1
1
1
1
1
1
1
1