/*--------------------------------*- C++ -*----------------------------------*\
  =========                 |
  \\      /  F ield         | OpenFOAM: The Open Source CFD Toolbox
   \\    /   O peration     | Website:  https://openfoam.org
    \\  /    A nd           | Version:  7
     \\/     M anipulation  |
\*---------------------------------------------------------------------------*/
FoamFile
{
    version     2.0;
    format      ascii;
    class       volScalarField;
    location    "3.5";
    object      rho;
}
// * * * * * * * * * * * * * * * * * * * * * * * * * * * * * * * * * * * * * //

dimensions      [1 -3 0 0 0 0 0];

internalField   nonuniform List<scalar> 
64512
(
1.40001
1.40001
1.40001
1.40001
1.40001
1.40001
1.40001
1.40001
1.40001
1.40001
1.40001
1.40001
1.40001
1.40001
1.40001
1.40001
1.40001
1.40001
1.40001
1.40001
1.40001
1.40001
1.40001
1.40001
1.40001
1.40001
1.40001
1.40001
1.40001
1.40001
1.40001
1.40001
1.40001
1.40001
1.40001
1.40001
1.40001
1.40001
1.40001
1.40001
1.40001
1.40001
1.40001
1.40001
1.40001
1.40001
1.40001
1.40001
1.40001
4.03612
5.40328
5.43485
5.45681
5.48274
5.50542
5.52567
5.54341
5.5599
5.57635
5.59374
5.61261
5.63273
5.65332
5.67356
5.6929
5.711
5.72747
5.74245
5.75678
5.77152
5.78758
5.80465
5.82148
5.83722
5.85138
5.86305
5.8722
5.88037
5.88942
5.90015
5.91215
5.92419
5.93506
5.94433
5.95243
5.96012
5.96786
5.97567
5.98328
5.99023
5.99599
6.00005
6.00229
6.00308
6.00328
6.00408
1.40001
1.40001
1.40001
1.40001
1.40001
1.40001
1.40001
1.40001
1.40001
1.40001
1.40001
1.40001
1.40001
1.40001
1.40001
1.40001
1.40001
1.40001
1.40001
1.40001
1.40001
1.40001
1.40001
1.40001
1.40001
1.40001
1.40001
1.40001
1.40001
1.40001
1.40001
1.40001
1.40001
1.40001
1.40001
1.40001
1.40001
1.40001
1.40001
1.40001
1.40001
1.40001
1.40001
1.40001
1.40001
1.40001
1.40001
1.40001
1.40001
4.0155
5.39888
5.43429
5.45664
5.48259
5.50513
5.52529
5.54291
5.55934
5.5759
5.59344
5.61237
5.63249
5.65306
5.67326
5.69252
5.71054
5.72691
5.74172
5.75588
5.77052
5.78664
5.80388
5.82084
5.83656
5.85051
5.86195
5.87103
5.87938
5.88874
5.89972
5.91177
5.92367
5.93432
5.9434
5.95138
5.959
5.96671
5.97452
5.98214
5.9891
5.99485
5.99888
6.00107
6.00181
6.00199
6.00276
1.40001
1.40001
1.40001
1.40001
1.40001
1.40001
1.40001
1.40001
1.40001
1.40001
1.40001
1.40001
1.40001
1.40001
1.40001
1.40001
1.40001
1.40001
1.40001
1.40001
1.40001
1.40001
1.40001
1.40001
1.40001
1.40001
1.40001
1.40001
1.40001
1.40001
1.40001
1.40001
1.40001
1.40001
1.40001
1.40001
1.40001
1.40001
1.40001
1.40001
1.40001
1.40001
1.40001
1.40001
1.40001
1.40001
1.40001
1.40001
1.40001
3.97562
5.39624
5.43213
5.45566
5.4814
5.50376
5.52384
5.5414
5.55784
5.57457
5.59241
5.6116
5.63185
5.65247
5.67262
5.69173
5.70957
5.72573
5.74028
5.75425
5.7688
5.78499
5.80243
5.81957
5.83531
5.84901
5.86017
5.86916
5.87773
5.88752
5.89888
5.91107
5.92286
5.93324
5.94202
5.94976
5.95723
5.96486
5.97265
5.98029
5.98727
5.99301
5.99699
5.99909
5.99977
5.99993
6.00069
1.40001
1.40001
1.40001
1.40001
1.40001
1.40001
1.40001
1.40001
1.40001
1.40001
1.40001
1.40001
1.40001
1.40001
1.40001
1.40001
1.40001
1.40001
1.40001
1.40001
1.40001
1.40001
1.40001
1.40001
1.40001
1.40001
1.40001
1.40001
1.40001
1.40001
1.40001
1.40001
1.40001
1.40001
1.40001
1.40001
1.40001
1.40001
1.40001
1.40001
1.40001
1.40001
1.40001
1.40001
1.40001
1.40001
1.40001
1.40001
1.40001
3.91824
5.39164
5.43013
5.4544
5.47973
5.50179
5.52173
5.53922
5.55569
5.57263
5.59085
5.61039
5.63087
5.65159
5.6717
5.69055
5.70804
5.72382
5.73797
5.7517
5.7662
5.7825
5.80015
5.8174
5.83308
5.84652
5.85745
5.86646
5.87539
5.88571
5.8975
5.90983
5.92145
5.93149
5.93989
5.94733
5.95461
5.96216
5.96994
5.9776
5.98459
5.99027
5.99412
5.99609
5.99669
5.99683
5.99756
1.40001
1.40001
1.40001
1.40001
1.40001
1.40001
1.40001
1.40001
1.40001
1.40001
1.40001
1.40001
1.40001
1.40001
1.40001
1.40001
1.40001
1.40001
1.40001
1.40001
1.40001
1.40001
1.40001
1.40001
1.40001
1.40001
1.40001
1.40001
1.40001
1.40001
1.40001
1.40001
1.40001
1.40001
1.40001
1.40001
1.40001
1.40001
1.40001
1.40001
1.40001
1.40001
1.40001
1.40001
1.40001
1.40001
1.40001
1.40001
1.40001
3.84236
5.3845
5.42806
5.45256
5.4773
5.49911
5.51883
5.53626
5.55279
5.57001
5.58869
5.60867
5.62947
5.65039
5.67049
5.68903
5.70603
5.72129
5.73493
5.74841
5.76289
5.77928
5.79706
5.81431
5.82991
5.84317
5.85401
5.86315
5.87247
5.88328
5.89545
5.90788
5.91933
5.92904
5.93705
5.94416
5.95124
5.95872
5.96653
5.97424
5.98121
5.98677
5.99043
5.99223
5.99274
5.99285
5.99356
1.40001
1.40001
1.40001
1.40001
1.40001
1.40001
1.40001
1.40001
1.40001
1.40001
1.40001
1.40001
1.40001
1.40001
1.40001
1.40001
1.40001
1.40001
1.40001
1.40001
1.40001
1.40001
1.40001
1.40001
1.40001
1.40001
1.40001
1.40001
1.40001
1.40001
1.40001
1.40001
1.40001
1.40001
1.40001
1.40001
1.40001
1.40001
1.40001
1.40001
1.40001
1.40001
1.40001
1.40001
1.40001
1.40001
1.40001
1.40001
1.40001
3.74781
5.37429
5.42595
5.45014
5.47418
5.49585
5.51549
5.5328
5.54932
5.56671
5.58585
5.60636
5.62758
5.64881
5.66899
5.68722
5.70363
5.71824
5.73127
5.74444
5.75887
5.77524
5.79304
5.8102
5.82577
5.83902
5.84998
5.85935
5.86906
5.88028
5.89272
5.90519
5.91647
5.92584
5.93345
5.94022
5.9471
5.95454
5.96239
5.97012
5.97703
5.98242
5.98585
5.98744
5.98786
5.98794
5.98862
1.40001
1.40001
1.40001
1.40001
1.40001
1.40001
1.40001
1.40001
1.40001
1.40001
1.40001
1.40001
1.40001
1.40001
1.40001
1.40001
1.40001
1.40001
1.40001
1.40001
1.40001
1.40001
1.40001
1.40001
1.40001
1.40001
1.40001
1.40001
1.40001
1.40001
1.40001
1.40001
1.40001
1.40001
1.40001
1.40001
1.40001
1.40001
1.40001
1.40001
1.40001
1.40001
1.40001
1.40001
1.40001
1.40001
1.40001
1.40001
1.40001
3.63472
5.36089
5.42396
5.44727
5.47056
5.4919
5.51137
5.52877
5.5454
5.56289
5.58239
5.60338
5.62503
5.6466
5.66693
5.68492
5.70076
5.7147
5.72706
5.73982
5.75406
5.77025
5.788
5.80507
5.82076
5.8342
5.84539
5.85501
5.86498
5.87645
5.88904
5.9015
5.9126
5.92166
5.92891
5.93537
5.9421
5.94954
5.95745
5.9652
5.97201
5.97722
5.98043
5.98187
5.98224
5.98232
5.98299
1.40001
1.40001
1.40001
1.40001
1.40001
1.40001
1.40001
1.40001
1.40001
1.40001
1.40001
1.40001
1.40001
1.40001
1.40001
1.40001
1.40001
1.40001
1.40001
1.40001
1.40001
1.40001
1.40001
1.40001
1.40001
1.40001
1.40001
1.40001
1.40001
1.40001
1.40001
1.40001
1.40001
1.40001
1.40001
1.40001
1.40001
1.40001
1.40001
1.40001
1.40001
1.40001
1.40001
1.40001
1.40001
1.40001
1.40001
1.40001
1.40001
3.50327
5.34395
5.42182
5.444
5.46693
5.48778
5.50678
5.5241
5.54079
5.55838
5.57816
5.59963
5.62172
5.64366
5.66423
5.68215
5.69752
5.71085
5.7225
5.73465
5.74851
5.76439
5.7821
5.79921
5.81521
5.82898
5.84046
5.8502
5.86023
5.87173
5.88431
5.89667
5.90757
5.91634
5.92327
5.92948
5.93613
5.94363
5.95161
5.95934
5.96603
5.97106
5.97413
5.97551
5.97593
5.97606
5.97677
1.40001
1.40001
1.40001
1.40001
1.40001
1.40001
1.40001
1.40001
1.40001
1.40001
1.40001
1.40001
1.40001
1.40001
1.40001
1.40001
1.40001
1.40001
1.40001
1.40001
1.40001
1.40001
1.40001
1.40001
1.40001
1.40001
1.40001
1.40001
1.40001
1.40001
1.40001
1.40001
1.40001
1.40001
1.40001
1.40001
1.40001
1.40001
1.40001
1.40001
1.40001
1.40001
1.40001
1.40001
1.40001
1.40001
1.40001
1.40001
1.40001
3.3534
5.32264
5.41925
5.44057
5.4639
5.48443
5.50283
5.51947
5.53573
5.55314
5.57302
5.59488
5.61738
5.63968
5.66063
5.67872
5.69387
5.70673
5.71762
5.72894
5.74218
5.75766
5.77546
5.79283
5.80937
5.82366
5.83544
5.84519
5.85509
5.86643
5.87884
5.891
5.90165
5.91014
5.91678
5.9228
5.9294
5.93694
5.94491
5.95251
5.95898
5.96379
5.96672
5.96805
5.96853
5.96869
5.96944
1.40001
1.40001
1.40001
1.40001
1.40001
1.40001
1.40001
1.40001
1.40001
1.40001
1.40001
1.40001
1.40001
1.40001
1.40001
1.40001
1.40001
1.40001
1.40001
1.40001
1.40001
1.40001
1.40001
1.40001
1.40001
1.40001
1.40001
1.40001
1.40001
1.40001
1.40001
1.40001
1.40001
1.40001
1.40001
1.40001
1.40001
1.40001
1.40001
1.40001
1.40001
1.40001
1.40001
1.40001
1.40001
1.40001
1.40001
1.40001
1.40001
3.18518
5.29519
5.41607
5.43795
5.46256
5.48295
5.50047
5.51593
5.53107
5.54769
5.56724
5.58925
5.61202
5.63464
5.65606
5.67462
5.68986
5.70249
5.71267
5.72291
5.73528
5.75022
5.76814
5.78586
5.80301
5.81784
5.82991
5.83956
5.84915
5.86017
5.87233
5.88427
5.89471
5.90302
5.90949
5.91541
5.92201
5.92955
5.93744
5.94483
5.95104
5.95564
5.95843
5.95972
5.96023
5.96039
5.96116
1.40001
1.40001
1.40001
1.40001
1.40001
1.40001
1.40001
1.40001
1.40001
1.40001
1.40001
1.40001
1.40001
1.40001
1.40001
1.40001
1.40001
1.40001
1.40001
1.40001
1.40001
1.40001
1.40001
1.40001
1.40001
1.40001
1.40001
1.40001
1.40001
1.40001
1.40001
1.40001
1.40001
1.40001
1.40001
1.40001
1.40001
1.40001
1.40001
1.40001
1.40001
1.40001
1.40001
1.40001
1.40001
1.40001
1.40001
1.40001
1.40001
2.99966
5.25867
5.41128
5.43631
5.46388
5.48428
5.50063
5.5145
5.52783
5.54284
5.5614
5.58314
5.60599
5.62877
5.65065
5.66985
5.68548
5.69818
5.70783
5.71688
5.72816
5.74239
5.76034
5.77843
5.79611
5.81145
5.82376
5.83321
5.84231
5.85284
5.86462
5.87628
5.88656
5.89479
5.90124
5.90715
5.91375
5.92125
5.92897
5.93612
5.94208
5.9465
5.94919
5.95044
5.95096
5.95108
5.95185
1.40001
1.40001
1.40001
1.40001
1.40001
1.40001
1.40001
1.40001
1.40001
1.40001
1.40001
1.40001
1.40001
1.40001
1.40001
1.40001
1.40001
1.40001
1.40001
1.40001
1.40001
1.40001
1.40001
1.40001
1.40001
1.40001
1.40001
1.40001
1.40001
1.40001
1.40001
1.40001
1.40001
1.40001
1.40001
1.40001
1.40001
1.40001
1.40001
1.40001
1.40001
1.40001
1.40001
1.40001
1.40001
1.40001
1.40001
1.40001
1.40001
2.79918
5.20859
5.40494
5.4339
5.46572
5.48732
5.50327
5.51549
5.52658
5.53924
5.55594
5.57683
5.59957
5.62244
5.64475
5.66471
5.68103
5.69412
5.70361
5.71163
5.72174
5.73501
5.75272
5.77101
5.789
5.80465
5.81708
5.82619
5.83464
5.84446
5.8557
5.86702
5.87718
5.88545
5.892
5.89798
5.90457
5.91197
5.91949
5.92639
5.93214
5.93642
5.93902
5.94019
5.94067
5.9407
5.94144
1.40001
1.40001
1.40001
1.40001
1.40001
1.40001
1.40001
1.40001
1.40001
1.40001
1.40001
1.40001
1.40001
1.40001
1.40001
1.40001
1.40001
1.40001
1.40001
1.40001
1.40001
1.40001
1.40001
1.40001
1.40001
1.40001
1.40001
1.40001
1.40001
1.40001
1.40001
1.40001
1.40001
1.40001
1.40001
1.40001
1.40001
1.40001
1.40001
1.40001
1.40001
1.40001
1.40001
1.40001
1.40001
1.40001
1.40001
1.40001
1.40001
2.58779
5.14002
5.3993
5.42966
5.46375
5.48852
5.50651
5.51837
5.52721
5.53699
5.55102
5.57032
5.59263
5.61548
5.63803
5.6587
5.67584
5.6896
5.69938
5.70669
5.71568
5.72784
5.745
5.76333
5.78144
5.7973
5.80983
5.81862
5.82633
5.8353
5.84586
5.85675
5.86676
5.87512
5.88179
5.88781
5.89431
5.90152
5.9088
5.91548
5.92107
5.92525
5.92779
5.92889
5.92931
5.92925
5.92996
1.40001
1.40001
1.40001
1.40001
1.40001
1.40001
1.40001
1.40001
1.40001
1.40001
1.40001
1.40001
1.40001
1.40001
1.40001
1.40001
1.40001
1.40001
1.40001
1.40001
1.40001
1.40001
1.40001
1.40001
1.40001
1.40001
1.40001
1.40001
1.40001
1.40001
1.40001
1.40001
1.40001
1.40001
1.40001
1.40001
1.40001
1.40001
1.40001
1.40001
1.40001
1.40001
1.40001
1.40001
1.40001
1.40001
1.40001
1.40001
1.40001
2.37075
5.04899
5.39521
5.42501
5.46011
5.4868
5.50812
5.52179
5.53031
5.53771
5.5485
5.5651
5.58601
5.60829
5.63072
5.65189
5.66989
5.68448
5.69499
5.70202
5.71002
5.72089
5.73705
5.75508
5.77308
5.78902
5.80168
5.81025
5.81727
5.82532
5.83511
5.84555
5.8554
5.86383
5.8706
5.8766
5.88295
5.88994
5.897
5.90348
5.90891
5.91298
5.91541
5.91636
5.91667
5.91651
5.91715
1.40001
1.40001
1.40001
1.40001
1.40001
1.40001
1.40001
1.40001
1.40001
1.40001
1.40001
1.40001
1.40001
1.40001
1.40001
1.40001
1.40001
1.40001
1.40001
1.40001
1.40001
1.40001
1.40001
1.40001
1.40001
1.40001
1.40001
1.40001
1.40001
1.40001
1.40001
1.40001
1.40001
1.40001
1.40001
1.40001
1.40001
1.40001
1.40001
1.40001
1.40001
1.40001
1.40001
1.40001
1.40001
1.40001
1.40001
1.40001
1.40001
2.15441
4.93167
5.39752
5.42314
5.45644
5.4829
5.50666
5.52352
5.53359
5.54072
5.54932
5.56288
5.58153
5.6026
5.62443
5.64559
5.66411
5.67933
5.69075
5.69787
5.70501
5.71445
5.72906
5.74637
5.76396
5.77976
5.79249
5.8009
5.80731
5.81445
5.8235
5.83349
5.84318
5.85161
5.8584
5.86428
5.87039
5.8771
5.88392
5.8902
5.89547
5.89942
5.90171
5.90252
5.90274
5.90251
5.9031
1.40001
1.40001
1.40001
1.40001
1.40001
1.40001
1.40001
1.40001
1.40001
1.40001
1.40001
1.40001
1.40001
1.40001
1.40001
1.40001
1.40001
1.40001
1.40001
1.40001
1.40001
1.40001
1.40001
1.40001
1.40001
1.40001
1.40001
1.40001
1.40001
1.40001
1.40001
1.40001
1.40001
1.40001
1.40001
1.40001
1.40001
1.40001
1.40001
1.40001
1.40001
1.40001
1.40001
1.40001
1.40001
1.40001
1.40001
1.40001
1.40001
1.93967
4.78471
5.40761
5.42565
5.45465
5.4782
5.50198
5.52132
5.53491
5.54343
5.55145
5.56282
5.57886
5.59811
5.61889
5.63964
5.65833
5.67395
5.68634
5.69407
5.70064
5.70865
5.72121
5.73727
5.75404
5.76942
5.78209
5.79045
5.79642
5.8028
5.81112
5.82064
5.83006
5.83835
5.84505
5.85076
5.85663
5.86309
5.86968
5.87575
5.88079
5.88451
5.88656
5.88717
5.88723
5.88689
5.88741
1.40001
1.40001
1.40001
1.40001
1.40001
1.40001
1.40001
1.40001
1.40001
1.40001
1.40001
1.40001
1.40001
1.40001
1.40001
1.40001
1.40001
1.40001
1.40001
1.40001
1.40001
1.40001
1.40001
1.40001
1.40001
1.40001
1.40001
1.40001
1.40001
1.40001
1.40001
1.40001
1.40001
1.40001
1.40001
1.40001
1.40001
1.40001
1.40001
1.40001
1.40001
1.40001
1.40001
1.40001
1.40001
1.40001
1.40001
1.40001
1.40001
1.73997
4.61428
5.4287
5.42667
5.44963
5.46962
5.49326
5.51458
5.53213
5.54405
5.55314
5.56341
5.57734
5.59451
5.61376
5.63371
5.65225
5.66809
5.68134
5.69019
5.69666
5.70352
5.71375
5.72807
5.7436
5.75828
5.77067
5.77904
5.78474
5.79044
5.798
5.80691
5.8159
5.82391
5.83042
5.83595
5.84158
5.84779
5.85411
5.85986
5.86458
5.86799
5.86979
5.87024
5.87017
5.86974
5.87022
1.40001
1.40001
1.40001
1.40001
1.40001
1.40001
1.40001
1.40001
1.40001
1.40001
1.40001
1.40001
1.40001
1.40001
1.40001
1.40001
1.40001
1.40001
1.40001
1.40001
1.40001
1.40001
1.40001
1.40001
1.40001
1.40001
1.40001
1.40001
1.40001
1.40001
1.40001
1.40001
1.40001
1.40001
1.40001
1.40001
1.40001
1.40001
1.40001
1.40001
1.40001
1.40001
1.40001
1.40001
1.40001
1.40001
1.40001
1.40001
1.40001
1.55291
4.39101
5.43616
5.42341
5.4434
5.46092
5.48252
5.50367
5.52279
5.53829
5.55079
5.56256
5.57579
5.59129
5.60879
5.62754
5.64557
5.66142
5.67519
5.68541
5.69231
5.6986
5.70664
5.71891
5.73285
5.74661
5.75847
5.76683
5.77236
5.77749
5.7842
5.7923
5.80065
5.80822
5.81449
5.81984
5.82525
5.83118
5.83719
5.84255
5.84684
5.84982
5.85131
5.85152
5.85119
5.85061
5.851
1.40001
1.40001
1.40001
1.40001
1.40001
1.40001
1.40001
1.40001
1.40001
1.40001
1.40001
1.40001
1.40001
1.40001
1.40001
1.40001
1.40001
1.40001
1.40001
1.40001
1.40001
1.40001
1.40001
1.40001
1.40001
1.40001
1.40001
1.40001
1.40001
1.40001
1.40001
1.40001
1.40001
1.40001
1.40001
1.40001
1.40001
1.40001
1.40001
1.40001
1.40001
1.40001
1.40001
1.40001
1.40001
1.40001
1.40001
1.40001
1.40001
1.41043
4.13327
5.40556
5.39946
5.42202
5.44311
5.46651
5.49015
5.5109
5.52836
5.54355
5.55743
5.57139
5.58637
5.60263
5.62005
5.63734
5.65311
5.66717
5.67881
5.68675
5.69323
5.69966
5.70978
5.72187
5.73449
5.74558
5.75386
5.7593
5.76393
5.76968
5.77677
5.78427
5.79123
5.79717
5.8023
5.80743
5.813
5.81856
5.82343
5.82721
5.82971
5.83085
5.83082
5.83027
5.82954
5.82988
1.40001
1.40001
1.40001
1.40001
1.40001
1.40001
1.40001
1.40001
1.40001
1.40001
1.40001
1.40001
1.40001
1.40001
1.40001
1.40001
1.40001
1.40001
1.40001
1.40001
1.40001
1.40001
1.40001
1.40001
1.40001
1.40001
1.40001
1.40001
1.40001
1.40001
1.40001
1.40001
1.40001
1.40001
1.40001
1.40001
1.40001
1.40001
1.40001
1.40001
1.40001
1.40001
1.40001
1.40001
1.40001
1.40001
1.40001
1.40001
1.40001
1.40009
3.79654
5.32791
5.37519
5.40124
5.42499
5.44701
5.46924
5.49101
5.5117
5.53021
5.54712
5.56288
5.57836
5.59414
5.61061
5.62718
5.64279
5.65706
5.66988
5.6793
5.68666
5.69237
5.7005
5.71064
5.72193
5.73213
5.74022
5.7456
5.74977
5.7545
5.76037
5.7668
5.77299
5.77846
5.78329
5.78807
5.79317
5.79823
5.80255
5.80574
5.80769
5.80832
5.80785
5.8069
5.8059
5.8061
1.40001
1.40001
1.40001
1.40001
1.40001
1.40001
1.40001
1.40001
1.40001
1.40001
1.40001
1.40001
1.40001
1.40001
1.40001
1.40001
1.40001
1.40001
1.40001
1.40001
1.40001
1.40001
1.40001
1.40001
1.40001
1.40001
1.40001
1.40001
1.40001
1.40001
1.40001
1.40001
1.40001
1.40001
1.40001
1.40001
1.40001
1.40001
1.40001
1.40001
1.40001
1.40001
1.40001
1.40001
1.40001
1.40001
1.40001
1.40001
1.40001
1.4
3.44709
5.26432
5.34812
5.37703
5.40571
5.43086
5.45493
5.4776
5.49811
5.51634
5.53375
5.55044
5.56646
5.58234
5.59832
5.61446
5.63011
5.64454
5.65826
5.66929
5.67798
5.68398
5.69065
5.69903
5.70889
5.71817
5.72591
5.73117
5.73487
5.73851
5.74301
5.74819
5.75344
5.75829
5.76264
5.76689
5.77133
5.7757
5.77936
5.78188
5.78318
5.78322
5.78234
5.78102
5.77977
5.77987
1.40001
1.40001
1.40001
1.40001
1.40001
1.40001
1.40001
1.40001
1.40001
1.40001
1.40001
1.40001
1.40001
1.40001
1.40001
1.40001
1.40001
1.40001
1.40001
1.40001
1.40001
1.40001
1.40001
1.40001
1.40001
1.40001
1.40001
1.40001
1.40001
1.40001
1.40001
1.40001
1.40001
1.40001
1.40001
1.40001
1.40001
1.40001
1.40001
1.40001
1.40001
1.40001
1.40001
1.40001
1.40001
1.40001
1.40001
1.40001
1.40001
1.4
3.06915
5.1999
5.3358
5.36676
5.39226
5.41609
5.43984
5.46263
5.48365
5.50272
5.52046
5.53715
5.55319
5.56858
5.58377
5.59937
5.61447
5.62924
5.64357
5.65606
5.66632
5.67353
5.67962
5.68673
5.69525
5.7036
5.71084
5.71588
5.71908
5.72164
5.72472
5.72851
5.73265
5.73666
5.74031
5.7438
5.74744
5.75105
5.75401
5.75579
5.75637
5.75556
5.75386
5.7518
5.75009
5.74988
1.40001
1.40001
1.40001
1.40001
1.40001
1.40001
1.40001
1.40001
1.40001
1.40001
1.40001
1.40001
1.40001
1.40001
1.40001
1.40001
1.40001
1.40001
1.40001
1.40001
1.40001
1.40001
1.40001
1.40001
1.40001
1.40001
1.40001
1.40001
1.40001
1.40001
1.40001
1.40001
1.40001
1.40001
1.40001
1.40001
1.40001
1.40001
1.40001
1.40001
1.40001
1.40001
1.40001
1.40001
1.40001
1.40001
1.40001
1.40001
1.40001
1.40001
2.67862
5.10574
5.35141
5.36738
5.39126
5.41454
5.43506
5.45358
5.47148
5.48878
5.50569
5.52213
5.53805
5.55335
5.56824
5.58284
5.59809
5.6119
5.62634
5.63999
5.65161
5.66045
5.66689
5.67337
5.68074
5.68819
5.69477
5.69949
5.70217
5.70373
5.70538
5.7077
5.71054
5.71346
5.7161
5.71855
5.7211
5.72372
5.72567
5.72649
5.72606
5.72435
5.72186
5.71909
5.717
5.7166
1.40001
1.40001
1.40001
1.40001
1.40001
1.40001
1.40001
1.40001
1.40001
1.40001
1.40001
1.40001
1.40001
1.40001
1.40001
1.40001
1.40001
1.40001
1.40001
1.40001
1.40001
1.40001
1.40001
1.40001
1.40001
1.40001
1.40001
1.40001
1.40001
1.40001
1.40001
1.40001
1.40001
1.40001
1.40001
1.40001
1.40001
1.40001
1.40001
1.40001
1.40001
1.40001
1.40001
1.40001
1.40001
1.40001
1.40001
1.40001
1.40001
1.40001
2.29347
4.95709
5.38589
5.38784
5.40384
5.41679
5.43188
5.44851
5.46508
5.48037
5.49492
5.50914
5.52319
5.53723
5.55134
5.56534
5.5795
5.59431
5.60733
5.62119
5.63359
5.64418
5.65171
5.65818
5.66478
5.67146
5.67739
5.68174
5.68398
5.68466
5.68496
5.68576
5.6871
5.68863
5.68993
5.69105
5.69228
5.69373
5.69458
5.69436
5.69263
5.68966
5.68589
5.68179
5.67877
5.6777
1.40001
1.40001
1.40001
1.40001
1.40001
1.40001
1.40001
1.40001
1.40001
1.40001
1.40001
1.40001
1.40001
1.40001
1.40001
1.40001
1.40001
1.40001
1.40001
1.40001
1.40001
1.40001
1.40001
1.40001
1.40001
1.40001
1.40001
1.40001
1.40001
1.40001
1.40001
1.40001
1.40001
1.40001
1.40001
1.40001
1.40001
1.40001
1.40001
1.40001
1.40001
1.40001
1.40001
1.40001
1.40001
1.40001
1.40001
1.40001
1.40001
1.40001
1.90424
4.76623
5.44706
5.41165
5.42429
5.43239
5.44276
5.45295
5.46316
5.47474
5.48704
5.49971
5.5121
5.52416
5.53606
5.54832
5.56092
5.57432
5.58806
5.60101
5.61349
5.62468
5.63371
5.64067
5.64691
5.65301
5.65837
5.66235
5.6642
5.66419
5.66328
5.66251
5.66217
5.66202
5.66163
5.66109
5.66077
5.66062
5.65972
5.65772
5.65429
5.64958
5.64431
5.63917
5.63543
5.634
1.40001
1.40001
1.40001
1.40001
1.40001
1.40001
1.40001
1.40001
1.40001
1.40001
1.40001
1.40001
1.40001
1.40001
1.40001
1.40001
1.40001
1.40001
1.40001
1.40001
1.40001
1.40001
1.40001
1.40001
1.40001
1.40001
1.40001
1.40001
1.40001
1.40001
1.40001
1.40001
1.40001
1.40001
1.40001
1.40001
1.40001
1.40001
1.40001
1.40001
1.40001
1.40001
1.40001
1.40001
1.40001
1.40001
1.40001
1.40001
1.40001
1.40001
1.54114
4.46217
5.48268
5.43532
5.43133
5.43617
5.44655
5.45719
5.46689
5.47612
5.48514
5.49438
5.50383
5.5136
5.52359
5.53373
5.54445
5.55577
5.56797
5.58009
5.59155
5.60304
5.61285
5.62033
5.62659
5.63233
5.63729
5.64097
5.64262
5.64214
5.64018
5.63785
5.63565
5.63352
5.63122
5.62872
5.62645
5.62407
5.62096
5.61704
5.6118
5.60505
5.59728
5.58961
5.58392
5.58089
1.40001
1.40001
1.40001
1.40001
1.40001
1.40001
1.40001
1.40001
1.40001
1.40001
1.40001
1.40001
1.40001
1.40001
1.40001
1.40001
1.40001
1.40001
1.40001
1.40001
1.40001
1.40001
1.40001
1.40001
1.40001
1.40001
1.40001
1.40001
1.40001
1.40001
1.40001
1.40001
1.40001
1.40001
1.40001
1.40001
1.40001
1.40001
1.40001
1.40001
1.40001
1.40001
1.40001
1.40001
1.40001
1.40001
1.40001
1.40001
1.40001
1.40001
1.40499
4.04413
5.38446
5.37319
5.40502
5.42579
5.44266
5.45542
5.4672
5.47761
5.48587
5.49313
5.50011
5.50704
5.51413
5.5216
5.52995
5.53925
5.54955
5.56008
5.57015
5.57981
5.58966
5.5977
5.60381
5.60924
5.61393
5.61735
5.61887
5.6181
5.6153
5.61147
5.60732
5.60301
5.59848
5.59376
5.58894
5.58361
5.5777
5.57074
5.56215
5.55188
5.54087
5.53073
5.5235
5.52018
1.40001
1.40001
1.40001
1.40001
1.40001
1.40001
1.40001
1.40001
1.40001
1.40001
1.40001
1.40001
1.40001
1.40001
1.40001
1.40001
1.40001
1.40001
1.40001
1.40001
1.40001
1.40001
1.40001
1.40001
1.40001
1.40001
1.40001
1.40001
1.40001
1.40001
1.40001
1.40001
1.40001
1.40001
1.40001
1.40001
1.40001
1.40001
1.40001
1.40001
1.40001
1.40001
1.40001
1.40001
1.40001
1.40001
1.40001
1.40001
1.40001
1.40001
1.40001
3.53265
5.23977
5.33397
5.37805
5.40468
5.42734
5.44676
5.46149
5.47263
5.48272
5.49119
5.49786
5.5032
5.50807
5.51298
5.51847
5.52495
5.53272
5.54118
5.54955
5.5576
5.56539
5.57291
5.57897
5.58402
5.58834
5.59144
5.59282
5.59182
5.58839
5.58321
5.57708
5.57049
5.56358
5.55614
5.5479
5.53901
5.52936
5.51865
5.50636
5.49238
5.47715
5.46159
5.44884
5.44089
1.40001
1.40001
1.40001
1.40001
1.40001
1.40001
1.40001
1.40001
1.40001
1.40001
1.40001
1.40001
1.40001
1.40001
1.40001
1.40001
1.40001
1.40001
1.40001
1.40001
1.40001
1.40001
1.40001
1.40001
1.40001
1.40001
1.40001
1.40001
1.40001
1.40001
1.40001
1.40001
1.40001
1.40001
1.40001
1.40001
1.40001
1.40001
1.40001
1.40001
1.40001
1.40001
1.40001
1.40001
1.40001
1.40001
1.40001
1.40001
1.40001
1.40001
1.40001
3.05759
5.1206
5.29384
5.3416
5.3808
5.40792
5.42798
5.44519
5.46075
5.47414
5.4843
5.49285
5.499
5.50329
5.50661
5.50981
5.51356
5.51838
5.52399
5.52999
5.53595
5.54177
5.54757
5.55272
5.55729
5.56102
5.56351
5.56445
5.56304
5.5591
5.55273
5.54467
5.53585
5.52621
5.51529
5.5032
5.49007
5.47581
5.45999
5.44157
5.41982
5.39577
5.37245
5.35415
5.34643
1.40001
1.40001
1.40001
1.40001
1.40001
1.40001
1.40001
1.40001
1.40001
1.40001
1.40001
1.40001
1.40001
1.40001
1.40001
1.40001
1.40001
1.40001
1.40001
1.40001
1.40001
1.40001
1.40001
1.40001
1.40001
1.40001
1.40001
1.40001
1.40001
1.40001
1.40001
1.40001
1.40001
1.40001
1.40001
1.40001
1.40001
1.40001
1.40001
1.40001
1.40001
1.40001
1.40001
1.40001
1.40001
1.40001
1.40001
1.40001
1.40001
1.40001
1.40001
2.57405
4.97173
5.29598
5.34267
5.37332
5.39425
5.41309
5.42873
5.44388
5.45798
5.4712
5.48215
5.49032
5.49608
5.49978
5.50218
5.50411
5.50634
5.50906
5.51216
5.51545
5.51874
5.52233
5.52624
5.52948
5.53218
5.53385
5.53421
5.53195
5.52722
5.51988
5.51019
5.49902
5.48612
5.47147
5.45497
5.43668
5.41635
5.39343
5.36697
5.3368
5.30362
5.26947
5.23456
5.20629
1.40001
1.40001
1.40001
1.40001
1.40001
1.40001
1.40001
1.40001
1.40001
1.40001
1.40001
1.40001
1.40001
1.40001
1.40001
1.40001
1.40001
1.40001
1.40001
1.40001
1.40001
1.40001
1.40001
1.40001
1.40001
1.40001
1.40001
1.40001
1.40001
1.40001
1.40001
1.40001
1.40001
1.40001
1.40001
1.40001
1.40001
1.40001
1.40001
1.40001
1.40001
1.40001
1.40001
1.40001
1.40001
1.40001
1.40001
1.40001
1.40001
1.40001
1.40001
2.05984
4.79828
5.37976
5.36155
5.36898
5.38039
5.39568
5.4121
5.42752
5.44152
5.45423
5.46583
5.47633
5.4843
5.4898
5.49315
5.49488
5.49565
5.49609
5.49639
5.49675
5.4971
5.4979
5.49978
5.50139
5.50236
5.50277
5.50202
5.49874
5.49316
5.48458
5.47326
5.45958
5.44335
5.42459
5.40305
5.37867
5.35106
5.31967
5.28297
5.23879
5.18367
5.11809
5.05426
5.00911
1.40001
1.40001
1.40001
1.40001
1.40001
1.40001
1.40001
1.40001
1.40001
1.40001
1.40001
1.40001
1.40001
1.40001
1.40001
1.40001
1.40001
1.40001
1.40001
1.40001
1.40001
1.40001
1.40001
1.40001
1.40001
1.40001
1.40001
1.40001
1.40001
1.40001
1.40001
1.40001
1.40001
1.40001
1.40001
1.40001
1.40001
1.40001
1.40001
1.40001
1.40001
1.40001
1.40001
1.40001
1.40001
1.40001
1.40001
1.40001
1.40001
1.40001
1.40001
1.57138
4.51277
5.46555
5.39483
5.37553
5.37859
5.38847
5.40026
5.4125
5.42526
5.43763
5.44895
5.459
5.46793
5.47521
5.48034
5.48329
5.4842
5.48363
5.48198
5.47977
5.47722
5.47496
5.47403
5.47365
5.47236
5.47076
5.46815
5.46376
5.45708
5.44717
5.43403
5.41774
5.39807
5.37489
5.34778
5.31651
5.28034
5.23811
5.18686
5.12289
5.04341
4.94686
4.83865
4.76049
1.40001
1.40001
1.40001
1.40001
1.40001
1.40001
1.40001
1.40001
1.40001
1.40001
1.40001
1.40001
1.40001
1.40001
1.40001
1.40001
1.40001
1.40001
1.40001
1.40001
1.40001
1.40001
1.40001
1.40001
1.40001
1.40001
1.40001
1.40001
1.40001
1.40001
1.40001
1.40001
1.40001
1.40001
1.40001
1.40001
1.40001
1.40001
1.40001
1.40001
1.40001
1.40001
1.40001
1.40001
1.40001
1.40001
1.40001
1.40001
1.40001
1.40001
1.40001
1.4056
3.99567
5.34921
5.34343
5.36586
5.37606
5.38587
5.39561
5.4039
5.41297
5.42253
5.43217
5.44146
5.44998
5.45754
5.46385
5.46839
5.47044
5.4702
5.46782
5.46397
5.45901
5.45379
5.44969
5.44654
5.44264
5.43829
5.43333
5.42723
5.41904
5.40764
5.39251
5.3735
5.35029
5.3225
5.28944
5.25059
5.20465
5.14994
5.08263
4.99751
4.88235
4.70839
4.36127
3.45756
1.40001
1.40001
1.40001
1.40001
1.40001
1.40001
1.40001
1.40001
1.40001
1.40001
1.40001
1.40001
1.40001
1.40001
1.40001
1.40001
1.40001
1.40001
1.40001
1.40001
1.40001
1.40001
1.40001
1.40001
1.40001
1.40001
1.40001
1.40001
1.40001
1.40001
1.40001
1.40001
1.40001
1.40001
1.40001
1.40001
1.40001
1.40001
1.40001
1.40001
1.40001
1.40001
1.40001
1.40001
1.40001
1.40001
1.40001
1.40001
1.40001
1.40001
1.40001
1.39997
3.3563
5.16685
5.30475
5.34767
5.36724
5.37952
5.39015
5.39763
5.40416
5.41055
5.41719
5.42414
5.43126
5.43821
5.44453
5.44986
5.45329
5.45414
5.45223
5.44794
5.44162
5.43419
5.42693
5.42054
5.4139
5.40629
5.3984
5.38982
5.37955
5.36635
5.34906
5.32722
5.30036
5.26785
5.22869
5.18189
5.12565
5.05737
4.97182
4.8585
4.6987
4.44102
4.03133
3.01536
1.40001
1.40001
1.40001
1.40001
1.40001
1.40001
1.40001
1.40001
1.40001
1.40001
1.40001
1.40001
1.40001
1.40001
1.40001
1.40001
1.40001
1.40001
1.40001
1.40001
1.40001
1.40001
1.40001
1.40001
1.40001
1.40001
1.40001
1.40001
1.40001
1.40001
1.40001
1.40001
1.40001
1.40001
1.40001
1.40001
1.40001
1.40001
1.40001
1.40001
1.40001
1.40001
1.40001
1.40001
1.40001
1.40001
1.40001
1.40001
1.40001
1.40001
1.40001
1.4
2.77676
5.01417
5.29014
5.3285
5.35468
5.37152
5.37975
5.38779
5.39476
5.40026
5.4048
5.40917
5.41389
5.41909
5.42434
5.42922
5.43312
5.43495
5.43413
5.43015
5.42364
5.41505
5.40535
5.39586
5.38624
5.37537
5.36397
5.35212
5.33898
5.32332
5.30366
5.27896
5.24846
5.21133
5.16617
5.1115
5.04492
4.96317
4.85932
4.72292
4.52592
4.25702
3.71456
2.87674
1.40001
1.40001
1.40001
1.40001
1.40001
1.40001
1.40001
1.40001
1.40001
1.40001
1.40001
1.40001
1.40001
1.40001
1.40001
1.40001
1.40001
1.40001
1.40001
1.40001
1.40001
1.40001
1.40001
1.40001
1.40001
1.40001
1.40001
1.40001
1.40001
1.40001
1.40001
1.40001
1.40001
1.40001
1.40001
1.40001
1.40001
1.40001
1.40001
1.40001
1.40001
1.40001
1.40001
1.40001
1.40001
1.40001
1.40001
1.40001
1.40001
1.40001
1.40001
1.4
2.17442
4.81704
5.3375
5.33267
5.34387
5.35616
5.3671
5.37713
5.38509
5.39099
5.39483
5.39726
5.39928
5.4017
5.4047
5.40807
5.41126
5.41332
5.41326
5.40996
5.40397
5.39523
5.3843
5.37227
5.35966
5.34596
5.3308
5.31508
5.29829
5.27941
5.25689
5.2293
5.19521
5.15364
5.10281
5.04084
4.96451
4.87078
4.75076
4.59676
4.37811
4.07034
3.53747
2.85089
1.40001
1.40001
1.40001
1.40001
1.40001
1.40001
1.40001
1.40001
1.40001
1.40001
1.40001
1.40001
1.40001
1.40001
1.40001
1.40001
1.40001
1.40001
1.40001
1.40001
1.40001
1.40001
1.40001
1.40001
1.40001
1.40001
1.40001
1.40001
1.40001
1.40001
1.40001
1.40001
1.40001
1.40001
1.40001
1.40001
1.40001
1.40001
1.40001
1.40001
1.40001
1.40001
1.40001
1.40001
1.40001
1.40001
1.40001
1.40001
1.40001
1.40001
1.40001
1.4
1.60409
4.53644
5.42486
5.36328
5.33896
5.34279
5.3537
5.36387
5.37264
5.37944
5.38379
5.38588
5.38644
5.38647
5.38675
5.38777
5.38919
5.39052
5.39033
5.38734
5.38178
5.37341
5.36225
5.34877
5.33387
5.31772
5.2991
5.27926
5.25819
5.23528
5.20911
5.17836
5.14088
5.0953
5.03936
4.9711
4.8865
4.78259
4.65054
4.48092
4.2537
3.92887
3.45356
2.90979
1.40001
1.40001
1.40001
1.40001
1.40001
1.40001
1.40001
1.40001
1.40001
1.40001
1.40001
1.40001
1.40001
1.40001
1.40001
1.40001
1.40001
1.40001
1.40001
1.40001
1.40001
1.40001
1.40001
1.40001
1.40001
1.40001
1.40001
1.40001
1.40001
1.40001
1.40001
1.40001
1.40001
1.40001
1.40001
1.40001
1.40001
1.40001
1.40001
1.40001
1.40001
1.40001
1.40001
1.40001
1.40001
1.40001
1.40001
1.40001
1.40001
1.40001
1.40001
1.40001
1.4076
3.94929
5.28545
5.30059
5.3197
5.32938
5.34061
5.34999
5.3586
5.36577
5.3708
5.37341
5.37392
5.3727
5.37081
5.36924
5.36817
5.36779
5.36659
5.36322
5.35767
5.34941
5.33833
5.32458
5.30839
5.29011
5.26874
5.24508
5.21952
5.19208
5.16167
5.12713
5.08622
5.03713
4.97669
4.90321
4.81224
4.70037
4.56031
4.38117
4.14907
3.83677
3.42851
2.97875
1.40001
1.40001
1.40001
1.40001
1.40001
1.40001
1.40001
1.40001
1.40001
1.40001
1.40001
1.40001
1.40001
1.40001
1.40001
1.40001
1.40001
1.40001
1.40001
1.40001
1.40001
1.40001
1.40001
1.40001
1.40001
1.40001
1.40001
1.40001
1.40001
1.40001
1.40001
1.40001
1.40001
1.40001
1.40001
1.40001
1.40001
1.40001
1.40001
1.40001
1.40001
1.40001