/*--------------------------------*- C++ -*----------------------------------*\
  =========                 |
  \\      /  F ield         | OpenFOAM: The Open Source CFD Toolbox
   \\    /   O peration     | Website:  https://openfoam.org
    \\  /    A nd           | Version:  7
     \\/     M anipulation  |
\*---------------------------------------------------------------------------*/
FoamFile
{
    version     2.0;
    format      ascii;
    class       volScalarField;
    location    "3.5";
    object      T;
}
// * * * * * * * * * * * * * * * * * * * * * * * * * * * * * * * * * * * * * //

dimensions      [0 0 0 1 0 0 0];

internalField   nonuniform List<scalar> 
64512
(
1
1
1
1
1
1
1
1
1
1
1
1
1
1
1
1
1
1
1
1
1
1
1
1
1
1
1
1
1
1
1
1
1
1
1
1
1
1
1
1
1
1
1
1
1
1
1
1
1
2.28456
2.69029
2.69268
2.69533
2.69946
2.70378
2.70847
2.71339
2.71841
2.72327
2.72773
2.7316
2.73474
2.73719
2.7392
2.74126
2.74392
2.74752
2.75206
2.75706
2.76174
2.76546
2.76797
2.76959
2.771
2.77285
2.77536
2.77829
2.78116
2.78361
2.78561
2.78741
2.78938
2.79172
2.79429
2.79675
2.7988
2.80038
2.80159
2.80262
2.80368
2.80496
2.80656
2.80835
2.80996
2.81106
2.8116
1
1
1
1
1
1
1
1
1
1
1
1
1
1
1
1
1
1
1
1
1
1
1
1
1
1
1
1
1
1
1
1
1
1
1
1
1
1
1
1
1
1
1
1
1
1
1
1
1
2.27912
2.68957
2.69256
2.69532
2.69951
2.70385
2.70855
2.71344
2.71841
2.72325
2.72769
2.73154
2.73466
2.73709
2.7391
2.74117
2.74384
2.74745
2.75197
2.75694
2.7616
2.76531
2.76783
2.76946
2.77086
2.77268
2.77516
2.77809
2.78099
2.78349
2.78553
2.78733
2.78929
2.79159
2.79413
2.79656
2.79859
2.80016
2.80137
2.8024
2.80346
2.80475
2.80635
2.80812
2.80973
2.81082
2.81136
1
1
1
1
1
1
1
1
1
1
1
1
1
1
1
1
1
1
1
1
1
1
1
1
1
1
1
1
1
1
1
1
1
1
1
1
1
1
1
1
1
1
1
1
1
1
1
1
1
2.26714
2.68898
2.69206
2.69516
2.6995
2.70397
2.70872
2.71357
2.71845
2.72322
2.7276
2.73137
2.73443
2.73684
2.73885
2.74095
2.74366
2.74732
2.75185
2.7568
2.7614
2.76507
2.76757
2.7692
2.77061
2.7724
2.77485
2.77777
2.78072
2.78329
2.78537
2.78719
2.78913
2.7914
2.79389
2.79628
2.79827
2.79981
2.801
2.80204
2.80311
2.80441
2.806
2.80776
2.80935
2.81044
2.81097
1
1
1
1
1
1
1
1
1
1
1
1
1
1
1
1
1
1
1
1
1
1
1
1
1
1
1
1
1
1
1
1
1
1
1
1
1
1
1
1
1
1
1
1
1
1
1
1
1
2.24961
2.68759
2.69148
2.695
2.69954
2.70422
2.70909
2.71392
2.71868
2.72329
2.72751
2.73112
2.73405
2.7364
2.73844
2.74059
2.74339
2.74712
2.75167
2.7566
2.76115
2.76475
2.76721
2.7688
2.77017
2.77192
2.77436
2.77732
2.78034
2.78299
2.78512
2.78696
2.78887
2.79109
2.79352
2.79585
2.79779
2.79929
2.80047
2.80152
2.8026
2.8039
2.80548
2.80722
2.80879
2.80986
2.81039
1
1
1
1
1
1
1
1
1
1
1
1
1
1
1
1
1
1
1
1
1
1
1
1
1
1
1
1
1
1
1
1
1
1
1
1
1
1
1
1
1
1
1
1
1
1
1
1
1
2.22643
2.68539
2.69074
2.69468
2.69947
2.70441
2.70949
2.71439
2.71905
2.72345
2.72743
2.7308
2.73354
2.73581
2.73787
2.74011
2.74301
2.74684
2.75145
2.75638
2.76088
2.7644
2.76676
2.76826
2.76957
2.77127
2.77372
2.77675
2.77988
2.78261
2.78477
2.7866
2.78847
2.79063
2.79301
2.79528
2.79718
2.79865
2.79982
2.80087
2.80196
2.80326
2.80481
2.80653
2.80807
2.80913
2.80965
1
1
1
1
1
1
1
1
1
1
1
1
1
1
1
1
1
1
1
1
1
1
1
1
1
1
1
1
1
1
1
1
1
1
1
1
1
1
1
1
1
1
1
1
1
1
1
1
1
2.19724
2.68251
2.68979
2.69409
2.69915
2.7044
2.70972
2.71478
2.71945
2.72367
2.72738
2.73045
2.73295
2.7351
2.73718
2.73949
2.74251
2.74648
2.75116
2.75613
2.7606
2.764
2.76622
2.76757
2.76878
2.77044
2.77294
2.77608
2.77934
2.78214
2.78432
2.78612
2.78793
2.79002
2.79234
2.79456
2.79641
2.79786
2.79902
2.80008
2.80118
2.80246
2.80399
2.80566
2.80718
2.80823
2.80874
1
1
1
1
1
1
1
1
1
1
1
1
1
1
1
1
1
1
1
1
1
1
1
1
1
1
1
1
1
1
1
1
1
1
1
1
1
1
1
1
1
1
1
1
1
1
1
1
1
2.16177
2.67933
2.68854
2.69299
2.69833
2.70398
2.70961
2.71491
2.71969
2.72386
2.72737
2.73015
2.73236
2.73433
2.73635
2.73871
2.74185
2.74596
2.75077
2.7558
2.76026
2.76354
2.76558
2.76673
2.76782
2.76944
2.77201
2.77529
2.77868
2.78156
2.78372
2.78546
2.7872
2.78921
2.79146
2.79365
2.79549
2.79692
2.79809
2.79914
2.80023
2.8015
2.803
2.80465
2.80616
2.8072
2.8077
1
1
1
1
1
1
1
1
1
1
1
1
1
1
1
1
1
1
1
1
1
1
1
1
1
1
1
1
1
1
1
1
1
1
1
1
1
1
1
1
1
1
1
1
1
1
1
1
1
2.11985
2.67636
2.68677
2.69111
2.69672
2.70281
2.70896
2.71466
2.71968
2.72391
2.72734
2.72991
2.73184
2.73356
2.73545
2.73778
2.74097
2.74523
2.7502
2.75536
2.75985
2.763
2.76486
2.7658
2.76676
2.76833
2.77096
2.77438
2.7779
2.78083
2.78296
2.7846
2.78623
2.78816
2.79036
2.79253
2.79438
2.79582
2.79698
2.79803
2.79911
2.80035
2.80184
2.80349
2.80501
2.80605
2.80655
1
1
1
1
1
1
1
1
1
1
1
1
1
1
1
1
1
1
1
1
1
1
1
1
1
1
1
1
1
1
1
1
1
1
1
1
1
1
1
1
1
1
1
1
1
1
1
1
1
2.07092
2.67388
2.68427
2.6882
2.69401
2.70054
2.70737
2.71377
2.71932
2.7238
2.72726
2.7297
2.73137
2.7328
2.73446
2.73666
2.73982
2.74418
2.74934
2.75468
2.75927
2.76236
2.76408
2.76482
2.76564
2.76715
2.76983
2.77338
2.77703
2.78
2.78207
2.7836
2.7851
2.78692
2.78908
2.79126
2.79312
2.79457
2.79572
2.79674
2.79778
2.79899
2.80047
2.80212
2.80365
2.80469
2.8052
1
1
1
1
1
1
1
1
1
1
1
1
1
1
1
1
1
1
1
1
1
1
1
1
1
1
1
1
1
1
1
1
1
1
1
1
1
1
1
1
1
1
1
1
1
1
1
1
1
2.01353
2.67102
2.68163
2.68462
2.69021
2.69697
2.70444
2.71181
2.71827
2.72336
2.72707
2.72949
2.73094
2.73206
2.73342
2.73538
2.73839
2.74277
2.74808
2.75364
2.75844
2.76158
2.76322
2.76377
2.76444
2.76584
2.76853
2.77218
2.77596
2.779
2.78101
2.78241
2.78377
2.7855
2.78762
2.78983
2.79174
2.7932
2.79432
2.79529
2.79628
2.79746
2.79893
2.80058
2.80211
2.80316
2.80367
1
1
1
1
1
1
1
1
1
1
1
1
1
1
1
1
1
1
1
1
1
1
1
1
1
1
1
1
1
1
1
1
1
1
1
1
1
1
1
1
1
1
1
1
1
1
1
1
1
1.94512
2.66496
2.68055
2.68158
2.686
2.69238
2.70023
2.70857
2.71623
2.72233
2.72664
2.72924
2.73055
2.73137
2.73236
2.73398
2.73669
2.74093
2.74635
2.75216
2.75727
2.76059
2.76225
2.76265
2.76316
2.76441
2.76705
2.77077
2.77467
2.77776
2.77973
2.781
2.78222
2.78385
2.78598
2.78824
2.79019
2.79165
2.79273
2.79364
2.79458
2.79574
2.7972
2.79886
2.80039
2.80143
2.80195
1
1
1
1
1
1
1
1
1
1
1
1
1
1
1
1
1
1
1
1
1
1
1
1
1
1
1
1
1
1
1
1
1
1
1
1
1
1
1
1
1
1
1
1
1
1
1
1
1
1.86366
2.65154
2.68135
2.68039
2.68301
2.68781
2.69522
2.70412
2.71294
2.72039
2.72571
2.72879
2.73012
2.73069
2.73133
2.73253
2.73482
2.73878
2.74421
2.75026
2.7558
2.75947
2.76125
2.76153
2.76189
2.76294
2.76543
2.76914
2.77312
2.77627
2.77819
2.77934
2.78044
2.782
2.78413
2.78645
2.78846
2.78992
2.79095
2.7918
2.79269
2.79383
2.79529
2.79694
2.79848
2.79951
2.80003
1
1
1
1
1
1
1
1
1
1
1
1
1
1
1
1
1
1
1
1
1
1
1
1
1
1
1
1
1
1
1
1
1
1
1
1
1
1
1
1
1
1
1
1
1
1
1
1
1
1.77023
2.629
2.68252
2.68062
2.68194
2.68464
2.69038
2.69896
2.70849
2.71711
2.72372
2.72771
2.72936
2.72981
2.73016
2.73095
2.73274
2.73627
2.74157
2.74783
2.75385
2.75803
2.76008
2.76036
2.76059
2.76143
2.76371
2.76732
2.77133
2.77454
2.77645
2.7775
2.77848
2.77996
2.78209
2.78446
2.78651
2.78796
2.78895
2.78973
2.79058
2.7917
2.79317
2.79482
2.79635
2.79738
2.79789
1
1
1
1
1
1
1
1
1
1
1
1
1
1
1
1
1
1
1
1
1
1
1
1
1
1
1
1
1
1
1
1
1
1
1
1
1
1
1
1
1
1
1
1
1
1
1
1
1
1.66706
2.59913
2.68288
2.68079
2.68181
2.68307
2.68692
2.6941
2.70351
2.71277
2.72041
2.72552
2.72786
2.72846
2.72868
2.72919
2.73052
2.73352
2.73853
2.74485
2.75132
2.75612
2.75861
2.75903
2.75917
2.75981
2.76182
2.76526
2.76926
2.77253
2.77447
2.77546
2.77635
2.77776
2.77987
2.78226
2.78434
2.78579
2.78673
2.78746
2.78826
2.78936
2.79082
2.79245
2.79397
2.79499
2.7955
1
1
1
1
1
1
1
1
1
1
1
1
1
1
1
1
1
1
1
1
1
1
1
1
1
1
1
1
1
1
1
1
1
1
1
1
1
1
1
1
1
1
1
1
1
1
1
1
1
1.55239
2.56066
2.68204
2.68024
2.68145
2.68223
2.68482
2.69029
2.69849
2.7077
2.71591
2.72202
2.72542
2.72662
2.72699
2.7274
2.72839
2.73079
2.73531
2.74146
2.74821
2.75366
2.75675
2.75748
2.75759
2.75804
2.75973
2.76292
2.76685
2.7702
2.77223
2.77325
2.77409
2.77542
2.77747
2.77985
2.78193
2.78336
2.78426
2.78494
2.7857
2.78676
2.7882
2.78983
2.79134
2.79235
2.79286
1
1
1
1
1
1
1
1
1
1
1
1
1
1
1
1
1
1
1
1
1
1
1
1
1
1
1
1
1
1
1
1
1
1
1
1
1
1
1
1
1
1
1
1
1
1
1
1
1
1.42243
2.50945
2.67862
2.67822
2.68041
2.6815
2.68357
2.68752
2.69404
2.70218
2.71037
2.71722
2.7218
2.724
2.72487
2.72543
2.72625
2.72813
2.73203
2.7378
2.74459
2.75058
2.75435
2.75557
2.75573
2.75605
2.75743
2.76031
2.76411
2.76755
2.76974
2.77084
2.77167
2.77292
2.77487
2.77719
2.77926
2.7807
2.78157
2.7822
2.78289
2.78391
2.78531
2.78691
2.7884
2.78939
2.78988
1
1
1
1
1
1
1
1
1
1
1
1
1
1
1
1
1
1
1
1
1
1
1
1
1
1
1
1
1
1
1
1
1
1
1
1
1
1
1
1
1
1
1
1
1
1
1
1
1
1.27919
2.44533
2.67512
2.67492
2.67868
2.68052
2.68289
2.68594
2.69063
2.69711
2.70454
2.7116
2.71709
2.72044
2.72215
2.72311
2.72399
2.72552
2.72878
2.73399
2.74056
2.7469
2.75132
2.75321
2.75356
2.75383
2.75494
2.75746
2.76107
2.76457
2.76696
2.7682
2.76905
2.77023
2.77205
2.77429
2.77633
2.77777
2.77861
2.77918
2.7798
2.78074
2.78209
2.78368
2.78515
2.78611
2.78661
1
1
1
1
1
1
1
1
1
1
1
1
1
1
1
1
1
1
1
1
1
1
1
1
1
1
1
1
1
1
1
1
1
1
1
1
1
1
1
1
1
1
1
1
1
1
1
1
1
1.12889
2.37457
2.67482
2.67338
2.67766
2.68047
2.68308
2.68559
2.68887
2.69356
2.69958
2.706
2.71178
2.71609
2.71879
2.7204
2.72153
2.72291
2.72557
2.73011
2.73621
2.74264
2.7476
2.75027
2.75101
2.75136
2.75226
2.75443
2.75778
2.76128
2.76386
2.76529
2.76619
2.7673
2.76899
2.77112
2.77314
2.77457
2.77538
2.77588
2.77641
2.77725
2.77854
2.78008
2.7815
2.78245
2.78292
1
1
1
1
1
1
1
1
1
1
1
1
1
1
1
1
1
1
1
1
1
1
1
1
1
1
1
1
1
1
1
1
1
1
1
1
1
1
1
1
1
1
1
1
1
1
1
1
1
1.00626
2.30884
2.67582
2.67324
2.67697
2.68025
2.68348
2.68645
2.68946
2.69277
2.69669
2.70149
2.70671
2.71141
2.71492
2.71726
2.71881
2.72022
2.72242
2.72623
2.73165
2.73791
2.74323
2.74668
2.748
2.74855
2.74937
2.75123
2.75426
2.75768
2.76043
2.76205
2.76304
2.7641
2.76566
2.76767
2.76963
2.77104
2.77181
2.77223
2.77266
2.7734
2.7746
2.77607
2.77747
2.77841
2.77887
1
1
1
1
1
1
1
1
1
1
1
1
1
1
1
1
1
1
1
1
1
1
1
1
1
1
1
1
1
1
1
1
1
1
1
1
1
1
1
1
1
1
1
1
1
1
1
1
1
1.00003
2.21962
2.67383
2.67575
2.67873
2.68205
2.68497
2.68754
2.68991
2.69248
2.69544
2.69905
2.7032
2.70749
2.71124
2.71409
2.71606
2.71759
2.71945
2.72255
2.72714
2.73292
2.73835
2.74241
2.74443
2.74536
2.74619
2.74782
2.75052
2.75379
2.75663
2.75847
2.75957
2.7606
2.76204
2.76392
2.76579
2.76717
2.7679
2.76824
2.76856
2.76919
2.77025
2.77159
2.77295
2.77386
2.77428
1
1
1
1
1
1
1
1
1
1
1
1
1
1
1
1
1
1
1
1
1
1
1
1
1
1
1
1
1
1
1
1
1
1
1
1
1
1
1
1
1
1
1
1
1
1
1
1
1
1
2.10601
2.665
2.67686
2.6801
2.68401
2.68727
2.6898
2.69173
2.69357
2.69576
2.69842
2.70159
2.7051
2.70852
2.7114
2.71358
2.71521
2.71681
2.71924
2.72291
2.72791
2.73316
2.73758
2.7403
2.74172
2.74268
2.74415
2.74654
2.74959
2.75246
2.75447
2.75571
2.75675
2.75808
2.75981
2.76158
2.76289
2.76355
2.7638
2.764
2.76449
2.76538
2.7666
2.76793
2.76881
2.76922
1
1
1
1
1
1
1
1
1
1
1
1
1
1
1
1
1
1
1
1
1
1
1
1
1
1
1
1
1
1
1
1
1
1
1
1
1
1
1
1
1
1
1
1
1
1
1
1
1
1
1.96161
2.6387
2.67427
2.67952
2.68354
2.68687
2.68962
2.69199
2.69417
2.69631
2.69866
2.70133
2.70421
2.70704
2.70958
2.71169
2.7132
2.71456
2.7164
2.71916
2.7232
2.72795
2.73239
2.73566
2.73761
2.7388
2.74018
2.74228
2.74507
2.74788
2.75005
2.75144
2.75251
2.75375
2.75532
2.75695
2.75818
2.75878
2.75894
2.75904
2.75935
2.75996
2.76102
2.76224
2.76307
2.76343
1
1
1
1
1
1
1
1
1
1
1
1
1
1
1
1
1
1
1
1
1
1
1
1
1
1
1
1
1
1
1
1
1
1
1
1
1
1
1
1
1
1
1
1
1
1
1
1
1
1
1.79673
2.59495
2.66537
2.67401
2.68048
2.68498
2.68844
2.69129
2.69367
2.69585
2.69821
2.70078
2.70346
2.7061
2.70848
2.71038
2.71191
2.71285
2.71414
2.71611
2.71911
2.72307
2.7272
2.73072
2.73308
2.73453
2.73586
2.73769
2.74019
2.7429
2.74516
2.74671
2.74784
2.749
2.7504
2.75187
2.75297
2.75345
2.75348
2.75346
2.75352
2.75385
2.75472
2.75583
2.75663
2.75698
1
1
1
1
1
1
1
1
1
1
1
1
1
1
1
1
1
1
1
1
1
1
1
1
1
1
1
1
1
1
1
1
1
1
1
1
1
1
1
1
1
1
1
1
1
1
1
1
1
1
1.60983
2.53099
2.65124
2.66316
2.67186
2.67733
2.68249
2.68727
2.69114
2.69427
2.69702
2.69964
2.70226
2.70486
2.70727
2.70921
2.71063
2.71174
2.7124
2.71366
2.71568
2.71873
2.72229
2.72569
2.72826
2.72991
2.73119
2.73278
2.73497
2.73751
2.73981
2.7415
2.74269
2.74378
2.74502
2.74628
2.74721
2.74755
2.74749
2.74728
2.74704
2.74711
2.74765
2.7485
2.74916
2.7494
1
1
1
1
1
1
1
1
1
1
1
1
1
1
1
1
1
1
1
1
1
1
1
1
1
1
1
1
1
1
1
1
1
1
1
1
1
1
1
1
1
1
1
1
1
1
1
1
1
1
1.36611
2.44234
2.64694
2.64813
2.65686
2.66521
2.67291
2.67932
2.68462
2.68931
2.69332
2.69688
2.70012
2.7031
2.70571
2.70781
2.70927
2.71027
2.711
2.71172
2.71296
2.71503
2.71787
2.72085
2.72334
2.72504
2.72625
2.72757
2.72942
2.73174
2.73397
2.73575
2.73701
2.73805
2.73909
2.74011
2.7408
2.74098
2.74074
2.74019
2.73958
2.7393
2.73953
2.74012
2.74066
2.74085
1
1
1
1
1
1
1
1
1
1
1
1
1
1
1
1
1
1
1
1
1
1
1
1
1
1
1
1
1
1
1
1
1
1
1
1
1
1
1
1
1
1
1
1
1
1
1
1
1
1
1.10027
2.35375
2.64893
2.64435
2.64736
2.65326
2.66083
2.66844
2.67548
2.68149
2.68667
2.69134
2.69564
2.6996
2.70305
2.70573
2.70757
2.70864
2.70932
2.70985
2.71055
2.71194
2.714
2.71636
2.71852
2.72008
2.72112
2.72214
2.72361
2.72559
2.72766
2.72948
2.73079
2.73176
2.7326
2.73332
2.73371
2.73366
2.73319
2.7323
2.73128
2.73054
2.7303
2.73038
2.73052
2.73043
1
1
1
1
1
1
1
1
1
1
1
1
1
1
1
1
1
1
1
1
1
1
1
1
1
1
1
1
1
1
1
1
1
1
1
1
1
1
1
1
1
1
1
1
1
1
1
1
1
1
1.00279
2.27539
2.64691
2.64007
2.64482
2.649
2.65427
2.65992
2.66629
2.67244
2.67808
2.68345
2.68871
2.69378
2.69835
2.70205
2.7047
2.70633
2.70726
2.70783
2.70834
2.70912
2.71058
2.71236
2.71399
2.7152
2.71594
2.7166
2.71761
2.71912
2.72091
2.72265
2.72396
2.72484
2.72545
2.72581
2.72588
2.72556
2.72469
2.72326
2.72155
2.72005
2.71914
2.71874
2.71859
2.71844
1
1
1
1
1
1
1
1
1
1
1
1
1
1
1
1
1
1
1
1
1
1
1
1
1
1
1
1
1
1
1
1
1
1
1
1
1
1
1
1
1
1
1
1
1
1
1
1
1
1
1
2.14256
2.6502
2.64894
2.65008
2.65129
2.65385
2.65726
2.66086
2.66482
2.66953
2.67473
2.68027
2.68596
2.69149
2.69631
2.70004
2.70257
2.70416
2.70512
2.7058
2.70649
2.70743
2.70869
2.70983
2.71054
2.71085
2.71105
2.71154
2.71247
2.71379
2.7153
2.71653
2.71728
2.71759
2.71758
2.7173
2.71654
2.7151
2.713
2.71055
2.70827
2.70645
2.70497
2.70375
2.7027
1
1
1
1
1
1
1
1
1
1
1
1
1
1
1
1
1
1
1
1
1
1
1
1
1
1
1
1
1
1
1
1
1
1
1
1
1
1
1
1
1
1
1
1
1
1
1
1
1
1
1
1.96806
2.63483
2.6538
2.65335
2.65488
2.65602
2.65748
2.65903
2.66119
2.664
2.6675
2.67209
2.67747
2.68321
2.68871
2.69339
2.69697
2.6995
2.7012
2.70241
2.70338
2.7043
2.70524
2.70591
2.70613
2.70596
2.70565
2.70556
2.70575
2.70644
2.70751
2.70848
2.70899
2.70898
2.70864
2.70787
2.70651
2.70435
2.70135
2.69769
2.69377
2.69011
2.68707
2.68477
2.68375
1
1
1
1
1
1
1
1
1
1
1
1
1
1
1
1
1
1
1
1
1
1
1
1
1
1
1
1
1
1
1
1
1
1
1
1
1
1
1
1
1
1
1
1
1
1
1
1
1
1
1
1.74979
2.56946
2.65051
2.65422
2.65721
2.65848
2.65922
2.65967
2.66038
2.66144
2.66336
2.66618
2.67007
2.67494
2.68024
2.68529
2.68961
2.69306
2.6957
2.69772
2.69931
2.70057
2.70154
2.70204
2.70186
2.7013
2.70047
2.69969
2.69906
2.69907
2.69943
2.69989
2.70005
2.69972
2.69893
2.69753
2.69538
2.69225
2.688
2.68276
2.67707
2.67148
2.66614
2.66021
2.6547
1
1
1
1
1
1
1
1
1
1
1
1
1
1
1
1
1
1
1
1
1
1
1
1
1
1
1
1
1
1
1
1
1
1
1
1
1
1
1
1
1
1
1
1
1
1
1
1
1
1
1
1.45113
2.4505
2.64296
2.64665
2.65114
2.65454
2.65719
2.65904
2.66013
2.66092
2.6617
2.66296
2.6652
2.66842
2.67249
2.67696
2.68132
2.68523
2.68863
2.69152
2.69393
2.69583
2.69717
2.69778
2.6975
2.69668
2.69544
2.69399
2.69253
2.69167
2.6912
2.69094
2.69055
2.68975
2.68836
2.6862
2.68309
2.67877
2.67303
2.66581
2.65718
2.64688
2.63481
2.62258
2.61328
1
1
1
1
1
1
1
1
1
1
1
1
1
1
1
1
1
1
1
1
1
1
1
1
1
1
1
1
1
1
1
1
1
1
1
1
1
1
1
1
1
1
1
1
1
1
1
1
1
1
1
1.10622
2.33434
2.63498
2.63166
2.63667
2.64362
2.65033
2.65501
2.65781
2.65947
2.6605
2.66141
2.66251
2.66422
2.66668
2.66978
2.67328
2.67695
2.68057
2.68393
2.68706
2.68976
2.69177
2.69274
2.69264
2.69184
2.69037
2.68838
2.68626
2.68445
2.68301
2.68184
2.68066
2.67914
2.67698
2.67391
2.66968
2.66392
2.65627
2.6462
2.63332
2.61738
2.59849
2.58028
2.57256
1
1
1
1
1
1
1
1
1
1
1
1
1
1
1
1
1
1
1
1
1
1
1
1
1
1
1
1
1
1
1
1
1
1
1
1
1
1
1
1
1
1
1
1
1
1
1
1
1
1
1
1.00289
2.24162
2.62128
2.61905
2.62588
2.63292
2.64037
2.64713
2.6521
2.65559
2.65786
2.65936
2.66051
2.6616
2.66289
2.66458
2.66674
2.66941
2.67253
2.67569
2.67904
2.68228
2.68501
2.68666
2.687
2.68641
2.68495
2.68272
2.68009
2.67744
2.67497
2.67272
2.67051
2.66802
2.66489
2.66072
2.65518
2.64775
2.63784
2.62461
2.60714
2.583
2.54668
2.4813
2.3413
1
1
1
1
1
1
1
1
1
1
1
1
1
1
1
1
1
1
1
1
1
1
1
1
1
1
1
1
1
1
1
1
1
1
1
1
1
1
1
1
1
1
1
1
1
1
1
1
1
1
1
0.999994
2.07385
2.61502
2.62323
2.62704
2.62973
2.63362
2.63895
2.64424
2.64895
2.65275
2.65557
2.65754
2.65889
2.6599
2.6608
2.66185
2.66331
2.66534
2.66776
2.67063
2.67381
2.67693
2.67933
2.68037
2.6801
2.67891
2.67675
2.67386
2.67057
2.66717
2.66377
2.66033
2.65662
2.65228
2.64682
2.6398
2.63051
2.61809
2.60125
2.57769
2.54333
2.48803
2.40672
2.19212
1
1
1
1
1
1
1
1
1
1
1
1
1
1
1
1
1
1
1
1
1
1
1
1
1
1
1
1
1
1
1
1
1
1
1
1
1
1
1
1
1
1
1
1
1
1
1
1
1
1
1
0.999998
1.84301
2.58009
2.62909
2.62849
2.62981
2.63184
2.63387
2.63719
2.6414
2.64575
2.64967
2.65283
2.65511
2.65658
2.65743
2.65795
2.65852
2.65945
2.66089
2.66269
2.66513
2.66801
2.67076
2.67251
2.67276
2.672
2.67014
2.66728
2.66362
2.65947
2.65499
2.65026
2.64515
2.63938
2.63244
2.62377
2.6125
2.59753
2.57703
2.54848
2.50568
2.44662
2.32493
2.11679
1
1
1
1
1
1
1
1
1
1
1
1
1
1
1
1
1
1
1
1
1
1
1
1
1
1
1
1
1
1
1
1
1
1
1
1
1
1
1
1
1
1
1
1
1
1
1
1
1
1
1
1
1.5155
2.47037
2.62611
2.62553
2.62764
2.62905
2.63061
2.63279
2.63562
2.63913
2.64297
2.64667
2.64981
2.65212
2.65352
2.65415
2.65436
2.65462
2.65518
2.65581
2.65711
2.65909
2.66149
2.66357
2.66443
2.66405
2.66265
2.66008
2.65638
2.65175
2.6464
2.64045
2.63386
2.62651
2.61792
2.60748
2.59416
2.57682
2.55306
2.5207
2.47286
2.40319
2.27464
2.08711
1
1
1
1
1
1
1
1
1
1
1
1
1
1
1
1
1
1
1
1
1
1
1
1
1
1
1
1
1
1
1
1
1
1
1
1
1
1
1
1
1
1
1
1
1
1
1
1
1
1
1
1
1.12263
2.33748
2.62252
2.61799
2.61954
2.62266
2.6262
2.62868
2.63097
2.63355
2.63658
2.63996
2.64336
2.64629
2.64843
2.64967
2.65009
2.65018
2.65018
2.64998
2.65013
2.65085
2.65227
2.65401
2.65514
2.65508
2.65416
2.65203
2.64853
2.64373
2.63776
2.63082
2.62289
2.61394
2.60359
2.59133
2.57601
2.55648
2.53023
2.4945
2.44441
2.36909
2.25035
2.1018
1
1
1
1
1
1
1
1
1
1
1
1
1
1
1
1
1
1
1
1
1
1
1
1
1
1
1
1
1
1
1
1
1
1
1
1
1
1
1
1
1
1
1
1
1
1
1
1
1
1
1
1
1.00383
2.22141
2.60276
2.60374
2.60917
2.61473
2.61996
2.62355
2.62623
2.62855
2.63094
2.63364
2.63669
2.63961
2.64217
2.64406
2.64509
2.64545
2.64528
2.64472
2.64407
2.64367
2.64388
2.6446
2.64536
2.6454
2.64475
2.64299
2.63982
2.63515
2.62893
2.62132
2.6123
2.60193
2.58983
2.57573
2.55852
2.53701
2.50896
2.47113
2.41961
2.34614
2.24297
2.11974
1
1
1
1
1
1
1
1
1
1
1
1
1
1
1
1
1
1
1
1
1
1
1
1
1
1
1
1
1
1
1
1
1
1
1
1
1
1
1
1
1
1
1
1
1
1
1
1
1
1
1
1
0.999989
2.01449
2.58383
2.60497
2.60855
2.61139
2.6143
2.61777
2.62086
2.62342
2.62566
2.6279
2.63038
2.63287
2.63529
2.63746
2.63905
2.63993
2.63997
2.63948
2.6385
2.63733
2.63639
2.63591
2.63577
2.63546
2.63468
2.63306
2.63017
2.62577
2.61963
2.61172
2.60196
2.59047
2.57687
2.56105
2.54211
2.51892
2.48956
2.45103
2.39961
2.33158
2.24188
2.13707
1
1
1
1
1
1
1
1
1
1
1
1
1
1
1
1
1
1
1
1
1
1
1
1
1
1
1
1
1
1
1
1
1
1
1
1
1
1
1
1
1
1
1
1
1
1
1
1
1
1
1
1
0.999997
1.70871
2.51826
2.6037
2.60574
2.60716
2.6095
2.61227
2.61517
2.61788
2.62024
2.62235
2.62445
2.62645
2.62842
2.63038
2.63213
2.63347
2.634
2.63375
2.63288
2.63143
2.62974
2.62818
2.62691
2.62575
2.62442
2.62255
2.61971
2.61553
2.60964
2.6018
2.59175
2.5795
2.56481
2.54756
2.5271
2.50253
2.47241
2.43388
2.38411
2.32165
2.24397
2.15565
1
1
1
1
1
1
1
1
1
1
1
1
1
1
1
1
1
1
1
1
1
1
1
1
1
1
1
1
1
1
1
1
1
1
1
1
1
1
1
1
1
1
1
1
1
1
1
1
1
1
1
1
0.999999
1.30613
2.39054
2.598
2.59668
2.59947
2.60381
2.60689
2.60965
2.61229
2.61472
2.61687
2.61885
2.62047
2.62196
2.62344
2.62491
2.6263
2.62722
2.62731
2.62674
2.6254
2.62342
2.62114
2.61887
2.61669
2.61445
2.61195
2.60881
2.60464
2.59895
2.59135
2.5814
2.56885
2.55353
2.53529
2.51371
2.48807
2.45769
2.4191
2.37218
2.31603
2.24759
2.17243
1
1
1
1
1
1
1
1
1
1
1
1
1
1
1
1
1
1
1
1
1
1
1
1
1
1
1
1
1
1
1
1
1
1
1
1
1
1
1
1
1
1
1
1
1
1
1
1
1
1
1
1
1
1.02563
2.25826
2.59662
2.59251
2.59373
2.59758
2.60086
2.60372
2.60635
2.60883
2.61112
2.61311
2.61461
2.61582
2.61684
2.61783
2.61891
2.61987
2.62027
2.61995
2.6189
2.61701
2.61445
2.61151
2.60843
2.60521
2.60179
2.59797
2.59343
2.58769
2.58027
2.57062
2.55823
2.54282
2.52411
2.5019
2.47563
2.44511
2.40698
2.36377
2.31275
2.25084
2.18618
1
1
1
1
1
1
1
1
1
1
1
1
1
1
1
1
1
1
1
1
1
1
1
1
1
1
1
1
1
1
1
1
1
1
1
1
1
1
1
1
1
1
1
1
1
1
1
1
1
1
1
1
1
1.0001
2.04697
2.56703
2.58238
2.58876
2.59255
2.59503
2.59769
2.60024
2.60274
2.60511
2.6071
2.60866
2.60977
2.61051
2.61105
2.61165
2.6123
2.61272
2.61255
2.61176
2.61012
2.60761
2.60439
2.6007
2.59667
2.59235
2.58763
2.58241
2.57629
2.5688
2.55937
2.54737
2.53231
2.51375
2.49147
2.46507
2.43468
2.39781
2.35777
2.30951
2.2535
2.19751
1
1
1
1
1
1
1
1
1
1
1
1
1
1
1
1
1
1
1
1
1
1
1
1
1
1
1
1
1
1
1
1
1
1
1
1
1
1
1
1
1
1
1
1
1
1
1
1
1
1
1
1
1
0.999999
1.70785
2.50007
2.58251
2.58527
2.58667
2.58918
2.59183
2.59434
2.5968
2.59906
2.60102
2.60262
2.60374
2.60436
2.60461
2.60476
2.60494
2.60507
2.60487
2.60417
2.60272
2.6004
2.59719
2.59325
2.58872
2.58369
2.57811
2.57201
2.56517
2.55728
2.5478
2.53613
2.52165
2.50374
2.482
2.4561
2.42613
2.39103
2.3531
2.30693
2.25769
2.20728
1
1
1
1
1
1
1
1
1
1
1
1
1
1
1
1
1
1
1
1
1
1
1
1
1
1
1
1
1
1
1
1
1
1
1
1
1
1
1
1
1
1
1
1
1
1
1
1
1
1
1
1
1
1
1.26139
2.36991
2.57857
2.57454
2.57696
2.58121
2.58478
2.58771
2.59027
2.59259
2.59456
2.59621
2.59739
2.59803
2.59815
2.59803
2.5978
2.59753
2.59709
2.59627
2.59487
2.5927
2.58965
2.58572
2.58098
2.57552
2.56933
2.56244
2.55477
2.54619
2.53634
2.52473
2.51076
2.4937
2.47297
2.44816
2.41912
2.38592
2.34953
2.30665
2.26295
2.21512
1
1
1
1
1
1
1
1
1
1
1
1
1
1
1
1
1
1
1
1
1
1
1
1
1
1
1
1
1
1
1
1
1
1
1
1
1
1
1
1
1
1
1
1
1
1
1
1
1
1
1
1
1
1
1.01723
2.23835
2.56643
2.56363
2.56803
2.57288
2.57706
2.58051
2.58333
2.58583
2.58791
2.58961
2.59085
2.59156
2.59166
2.59142
2.59092
2.59029
2.5895
2.58841
2.58685
2.58468
2.58173
2.57791
2.5732
2.56759
2.56106
2.55364
2.54525
2.5359
2.52541
2.51354
2.49978
2.48346
2.46392
2.44064
2.41305
2.38175
2.34711
2.30748
2.26745
2.22151
1
1
1
1
1
1
1
1
1
1
1
1
1
1
1
1
1
1
1
1
1
1
1
1
1
1
1
1
1
1
1
1
1
1
1
1
1
1
1
1
1
1
1
1
1
1
1
1
1
1
1
1
1
1
1.00003
1.98273
2.53582
2.55904
2.56462
2.56804
2.57108
2.57354
2.57617
2.57869
2.58085
2.58262
2.58394
2.58473
2.5849
2.58464
2.58403
2.58316
2.58205
2.58065
2.57885
2.57653
2.57355
2.56982
2.56521
2.55964
2.55303
2.54533
2.53649
2.52655
2.51541
2.50303
2.48915
2.4732
2.45477
2.43293
2.40702
2.37828
2.34567
2.30886
2.27086
2.22763
1
1
1
1
1
1
1
1
1
1
1
1
1
1
1
1
1
1
1
1
1
1
1
1
1
1
1
1
1
1
1
1
1
1
1
1
1
1
1
1
1
1
1
1
1
1
1
1
1
1
1
1
1
1
1
1.56341
2.4472
2.56296
2.56239
2.56331
2.56525
2.56724
2.56938
2.5716
2.57366
2.57542
2.57677
2.57762
2.5779
2.57766
2.57703
2.57605
2.57473
2.57308
2.57101
2.56846
2.56532
2.56153
2.55696
2.55149
2.54496
2.53725
2.52826
2.51798
2.5064
2.49353
2.4793
2.46335
2.44563
2.4247
2.4011
2.37513
2.34387
2.30971
2.27403
2.23455
1
1
1
1
1
1
1
1
1
1
1
1
1
1
1
1
1
1
1
1
1
1
1
1
1
1
1
1
1
1
1
1
1
1
1
1
1
1
1
1
1
1
1
1
1
1
1
1
1
1
1
1
1
1
1
1.08714
2.29984
2.56362
2.55625
2.55695
2.55882
2.56084
2.56267
2.56458
2.56642
2.56806
2.56937
2.57025
2.57062
2.57042
2.56981
2.5688
2.5674
2.56559
2.5633
2.56052
2.55719
2.55326
2.54864
2.5432
2.53678
2.52919
2.52029
2.50997
2.4982
2.48503
2.47057
2.45428
2.43677
2.41654
2.39525
2.37069
2.34073
2.31059
2.27743
2.24136
1
1
1
1
1
1
1
1
1
1
1
1
1
1
1
1
1
1
1
1
1
1
1
1
1
1
1
1
1
1
1
1
1
1
1
1
1
1
1
1
1
1
1
1
1
1
1
1
1
1
1
1
1
1
1
1.00173
2.11496
2.53487
2.54131
2.5487
2.55308
2.55476
2.55637
2.55794
2.55946
2.56084
2.56197
2.56275
2.56311
2.56292
2.56233
2.56134
2.55992
2.55804
2.55563
2.5527
2.54919
2.5451
2.54035
2.53486
2.52847
2.52101
2.5123
2.50218
2.49052
2.47737
2.46278
2.44628
2.42889
2.40908
2.38883
2.36481
2.33797
2.31127
2.27979
2.24684
1
1
1
1
1
1
1
1
1
1
1
1
1
1
1
1
1
1
1
1
1
1
1
1
1
1
1
1
1
1
1
1
1
1
1
1
1
1
1
1
1
1
1
1
1
1
1
1
1
1
1
1
1
1
1
0.999988
1.73399
2.47108
2.54148
2.54431
2.5469
2.5489
2.55051
2.55185
2.55307
2.55411
2.55495
2.55547
2.55564
2.5554
2.55475
2.55374
2.55231
2.55041
2.54796
2.54494
2.54132
2.5371
2.53222
2.52663
2.5202
2.5128
2.50426
2.49441
2.48307
2.47017
2.4557
2.43938
2.42192
2.40244
2.38262
2.35933
2.3357
2.31028
2.28055
2.25107
1
1
1
1
1
1
1
1
1
1
1
1
1
1
1
1
1
1
1
1
1
1
1
1
1
1
1
1
1
1
1
1
1
1
1
1
1
1
1
1
1
1
1
1
1
1
1
1
1
1
1
1
1
1
1
0.999997
1.21269
2.33476
2.54186
2.53624
2.53768
2.54064
2.54309
2.5449
2.54632
2.54733
2.54803
2.54833
2.54826
2.54788
2.54712
2.54602
2.54454
2.54261
2.54014
2.5371
2.53344
2.52917
2.52421
2.51853
2.51203
2.50464
2.4962
2.48659
2.47562
2.46311
2.44908
2.43317
2.41565
2.39699
2.37753
2.35485
2.33254
2.30777
2.28157
2.25416
1
1
1
1
1
1
1
1
1
1
1
1
1
1
1
1
1
1
1
1
1
1
1
1
1
1
1
1
1
1
1
1
1
1
1
1
1
1
1
1
1
1
1
1
1
1
1
1
1
1
1
1
1
1
1
0.999999
1.01076
2.18035
2.52133
2.52276
2.52806
2.53219
2.53478
2.53719
2.53905
2.54032
2.54113
2.54137
2.54116
2.5406
2.53967
2.53842
2.53681
2.53479
2.53229
2.52924
2.52558
2.52129
2.5163
2.5106
2.50407
2.49666
2.48827
2.47879
2.46813
2.456
2.4426
2.42715
2.41014
2.39254
2.3728
2.35083
2.32957
2.30599
2.2816
2.25503
1
1
1
1
1
1
1
1
1
1
1
1
1
1
1
1
1
1
1
1
1
1
1
1
1
1
1
1
1
1
1
1
1
1
1
1
1
1
1
1
1
1
1
1
1
1
1
1
1
1
1
1
1
1
1
1
0.999998
1.8212
2.4747
2.51705
2.52246
2.52491
2.5274
2.52971
2.53159
2.53302
2.53402
2.53439
2.53416
2.53352
2.53244
2.53101
2.52921
2.52704
2.52443
2.52132
2.51764
2.51336
2.5084
2.50272
2.49623
2.48887
2.48057
2.47117
2.46072
2.44885
2.43602
2.42117
2.40522
2.38823
2.36843
2.34806
2.32753
2.30474
2.28112
2.25556
1
1
1
1
1
1
1
1
1
1
1
1
1
1
1
1
1
1
1
1
1
1
1
1
1
1
1
1
1
1
1
1
1
1
1
1
1
1
1
1
1
1
1
1
1
1
1
1
1
1
1
1
1
1
1
1
0.999996
1.28711
2.35325
2.52191
2.51646
2.51735
2.51918
2.52132
2.5232
2.52483
2.52614
2.52691
2.52686
2.52636
2.52533
2.52382
2.52187
2.51952
2.51675
2.51352
2.50976
2.50546
2.50052
2.49488
2.48849
2.48121
2.47308
2.46376
2.45346
2.44175
2.42936
2.41514
2.40031
2.38368
2.36484
2.34617
2.32562
2.30334
2.28075
2.25677
1
1
1
1
1
1
1
1
1
1
1
1
1
1
1
1
1
1
1
1
1
1
1
1
1
1
1
1
1
1
1
1
1
1
1
1
1
1
1
1
1
1
1
1
1
1
1
1
1
1
1
1
1
1
1
1
0.999999
1.01962
2.19658
2.50537
2.50506
2.50798
2.51117
2.51315
2.51479
2.51635
2.51775
2.51882
2.51921
2.51893
2.5181
2.51669
2.51472
2.51225
2.50931
2.50591
2.50202
2.49763
2.49267
2.48707
2.48078
2.47364
2.46576
2.45657
2.44644
2.43496
2.42288
2.40919
2.39519
2.37914
2.36185
2.3439
2.32359
2.30274
2.28123
2.25856
1
1
1
1
1
1
1
1
1
1
1
1
1
1
1
1
1
1
1
1
1
1
1
1
1
1
1
1
1
1
1
1
1
1
1
1
1
1
1
1
1
1
1
1
1
1
1
1
1
1
1
1
1
1
1
1
1
1.00004
1.82241
2.46012
2.49764
2.50201
2.5046
2.50654
2.50769
2.50869
2.50967
2.51061
2.51124
2.51116
2.5106
2.50943
2.5076
2.50515
2.50214
2.4986
2.49455
2.49001
2.48497
2.47935
2.47313
2.46614
2.45847
2.44944
2.43956
2.42851
2.41659
2.40339
2.38996
2.37464
2.35848
2.34097
2.32202
2.3026
2.28189
2.25975
1
1
1
1
1
1
1
1
1
1
1
1
1
1
1
1
1
1
1
1
1
1
1
1
1
1
1
1
1
1
1
1
1
1
1
1
1
1
1
1
1
1
1
1
1
1
1
1
1
1
1
1
1
1
1
1
1
1
1.2524
2.33133
2.50498
2.49737
2.49813
2.49899
2.5
2.5007
2.50139
2.50211
2.50276
2.50294
2.50263
2.50176
2.50022
2.49798
2.49506
2.4915
2.48735
2.4827
2.47754
2.47185
2.46561
2.45878
2.45119
2.44241
2.43288
2.42233
2.41057
2.39794
2.38487
2.37013
2.35458
2.33795
2.32061
2.30197
2.28195
2.26055
1
1
1
1
1
1
1
1
1
1
1
1
1
1
1
1
1
1
1
1
1
1
1
1
1
1
1
1
1
1
1
1
1
1
1
1
1
1
1
1
1
1
1
1
1
1
1
1
1
1
1
1
1
1
1
1
1
1
1.01483
2.16282
2.48537
2.48523
2.48827
2.49119
2.49252
2.4931
2.49356
2.49395
2.49434
2.49456
2.49437
2.49374
2.49251
2.49057
2.48789
2.48446
2.48036
2.47566
2.4704
2.46463
2.45832
2.45157
2.44393
2.43544
2.42629
2.41612
2.4047
2.39274
2.37984
2.36547
2.35053
2.33511
2.31872
2.30028
2.28135
2.26143
1
1
1
1
1
1
1
1
1
1
1
1
1
1
1
1
1
1
1
1
1
1
1
1
1
1
1
1
1
1
1
1
1
1
1
1
1
1
1
1
1
1
1
1
1
1
1
1
1
1
1
1
1
1
1
1
1
1
1.00001
1.73203
2.42152
2.4856
2.48532
2.48508
2.48596
2.48671
2.48672
2.48657
2.48645
2.48635
2.48608
2.48549
2.48444
2.48279
2.48043
2.47728
2.47338
2.4688
2.46356
2.45776
2.4514
2.44455
2.43697
2.4287
2.41983
2.40991
2.39902
2.38761
2.37485
2.36102
2.34675
2.33214
2.31606
2.29811
2.28072
2.26226
1
1
1
1
1
1
1
1
1
1
1
1
1
1
1
1
1
1
1
1
1
1
1
1
1
1
1
1
1
1
1
1
1
1
1
1
1
1
1
1
1
1
1
1
1
1
1
1
1
1
1
1
1
1
1
1
1
1
0.999997
1.1472
2.27973
2.49077
2.48112
2.47977
2.47969
2.48015
2.4797
2.47911
2.47866
2.47826
2.4778
2.47714
2.47616
2.4747
2.47261
2.4698
2.4662
2.46186
2.45677
2.45105
2.44469
2.4378
2.43029
2.42215
2.41341
2.4037
2.3934
2.38228
2.36985
2.35684
2.34311
2.32877
2.31294
2.29601
2.28008
2.26242
1
1
1
1
1
1
1
1
1
1
1
1
1
1
1
1
1
1
1
1
1
1
1
1
1
1
1
1
1
1
1
1
1
1
1
1
1
1
1
1
1
1
1
1
1
1
1
1
1
1
1
1
1
1
1
1
1
1
0.999999
1.00492
2.06812
2.4586
2.46306
2.46831
2.47365
2.47374
2.47303
2.47226
2.47152
2.47076
2.46995
2.46905
2.46795
2.46651
2.46458
2.46204
2.45876
2.45476
2.44994
2.44443
2.4382
2.43136
2.42392
2.41589
2.40721
2.39772
2.38779
2.37685
2.36503
2.35274
2.33929
2.3253
2.31009
2.29418
2.27909
2.26194
1
1
1
1
1
1
1
1
1
1
1
1
1
1
1
1
1
1
1
1
1
1
1
1
1
1
1
1
1
1
1
1
1
1
1
1
1
1
1
1
1
1
1
1
1
1
1
1
1
1
1
1
1
1
1
1
1
1
1
0.999985
1.56031
2.3677
2.4593
2.46542
2.46854
2.46748
2.46665
2.46602
2.46517
2.46401
2.46273
2.46145
2.46006
2.45846
2.4565
2.45407
2.45101
2.44731
2.44282
2.43761
2.43162
2.42495
2.41765
2.40978
2.40119
2.39193
2.38218
2.37147
2.3603
2.34841
2.3352
2.32184
2.30748
2.29235
2.2774
2.26054
1
1
1
1
1
1
1
1
1
1
1
1
1
1
1
1
1
1
1
1
1
1
1
1
1
1
1
1
1
1
1
1
1
1
1
1
1
1
1
1
1
1
1
1
1
1
1
1
1
1
1
1
1
1
1
1
1
1
1
0.999996
1.08106
2.20557
2.45962
2.45814
2.45939
2.45897
2.45932
2.45944
2.45875
2.45742
2.45583
2.45425
2.45258
2.45077
2.44868
2.44622
2.44325
2.43971
2.43549
2.43057
2.42488
2.41849
2.41143
2.40379
2.39539
2.38634
2.37675
2.36632
2.35559
2.34389
2.33109
2.31849
2.30489
2.29027
2.27536
2.25909
1
1
1
1
1
1
1
1
1
1
1
1
1
1
1
1
1
1
1
1
1
1
1
1
1
1
1
1
1
1
1
1
1
1
1
1
1
1
1
1
1
1
1
1
1
1
1
1
1
1
1
1
1
1
1
1
1
1
1
0.999999
1.00127
1.85305
2.40955
2.44397
2.44711
2.44864
2.45165
2.45304
2.45245
2.45115
2.44947
2.44767
2.44571
2.4436
2.44125
2.43859
2.43552
2.43199
2.42791
2.42321
2.41783
2.41175
2.40503
2.39771
2.38958
2.38083
2.37147
2.36136
2.35088
2.33937
2.32719
2.31517
2.30199
2.28773
2.2732
2.25802
1
1
1
1
1
1
1
1
1
1
1
1
1
1
1
1
1
1
1
1
1
1
1
1
1
1
1
1
1