/*--------------------------------*- C++ -*----------------------------------*\
  =========                 |
  \\      /  F ield         | OpenFOAM: The Open Source CFD Toolbox
   \\    /   O peration     | Website:  https://openfoam.org
    \\  /    A nd           | Version:  7
     \\/     M anipulation  |
\*---------------------------------------------------------------------------*/
FoamFile
{
    version     2.0;
    format      ascii;
    class       volVectorField;
    location    "3.5";
    object      U;
}
// * * * * * * * * * * * * * * * * * * * * * * * * * * * * * * * * * * * * * //

dimensions      [0 1 -1 0 0 0 0];

internalField   nonuniform List<vector> 
64512
(
(3 -1.91776e-17 0)
(3 3.59729e-17 0)
(3 1.62888e-16 0)
(3 5.13724e-16 0)
(3 9.63074e-16 0)
(3 5.7755e-16 0)
(3 4.9635e-16 0)
(3 6.82607e-16 0)
(3 6.02899e-16 0)
(3 5.3538e-16 0)
(3 -3.74797e-16 0)
(3 -5.31519e-16 0)
(3 -4.88291e-16 0)
(3 1.2442e-16 0)
(3 -5.60868e-17 0)
(3 -3.85138e-16 0)
(3 -4.07967e-16 0)
(3 -3.20318e-16 0)
(3 -6.54193e-16 0)
(3 -1.05026e-15 0)
(3 -1.06283e-15 0)
(3 -9.76782e-16 0)
(3 -2.13626e-16 0)
(3 5.68825e-16 0)
(3 8.63543e-16 0)
(3 7.7246e-16 0)
(3 6.57534e-16 0)
(3 5.84664e-16 0)
(3 6.65188e-16 0)
(3 7.53021e-16 0)
(3 5.75689e-16 0)
(3 -1.09113e-16 0)
(3 -2.14323e-16 0)
(3 -2.80089e-16 0)
(3 -1.79083e-16 0)
(3 2.96567e-16 0)
(3 1.36885e-15 0)
(3 1.94206e-15 0)
(3 5.28049e-16 0)
(3 1.28899e-16 0)
(3 -3.52377e-16 0)
(3 -2.64532e-16 0)
(3 -2.28503e-16 0)
(3 -5.22919e-16 0)
(3 -1.44117e-15 0)
(3 -1.94697e-15 0)
(3 -1.41522e-15 0)
(3 -4.7869e-16 0)
(3 -6.44892e-16 0)
(1.11746 0.00457744 0)
(0.766398 0.00457293 0)
(0.7489 0.00510219 0)
(0.735329 0.00567258 0)
(0.720056 0.0060442 0)
(0.704588 0.00652199 0)
(0.688574 0.00689458 0)
(0.672454 0.00694578 0)
(0.656763 0.00660023 0)
(0.641861 0.00615258 0)
(0.627551 0.00591972 0)
(0.613373 0.00597641 0)
(0.598941 0.0062853 0)
(0.583985 0.00675731 0)
(0.568415 0.00719939 0)
(0.552526 0.00731795 0)
(0.53698 0.00701917 0)
(0.522186 0.00665446 0)
(0.507788 0.00662407 0)
(0.492997 0.00698517 0)
(0.477258 0.00745006 0)
(0.46085 0.00755434 0)
(0.444651 0.00730925 0)
(0.428943 0.00725311 0)
(0.413237 0.00751249 0)
(0.397201 0.00771268 0)
(0.380956 0.00772884 0)
(0.364482 0.00775042 0)
(0.347611 0.0078494 0)
(0.330376 0.00796597 0)
(0.313077 0.00809597 0)
(0.296042 0.00825114 0)
(0.279443 0.00840063 0)
(0.263217 0.00851485 0)
(0.247074 0.00860662 0)
(0.230595 0.00870098 0)
(0.213405 0.00881392 0)
(0.195322 0.00895336 0)
(0.176401 0.00913135 0)
(0.156835 0.0093549 0)
(0.136807 0.00961595 0)
(0.116416 0.00989488 0)
(0.0956873 0.0101719 0)
(0.0746495 0.0104268 0)
(0.0533561 0.0106611 0)
(0.0319486 0.01075 0)
(0.010799 0.0108328 0)
(3 -2.44662e-16 0)
(3 -2.60202e-16 0)
(3 4.11052e-16 0)
(3 8.18345e-16 0)
(3 1.48506e-15 0)
(3 1.4434e-15 0)
(3 1.65002e-15 0)
(3 1.45536e-15 0)
(3 6.78348e-16 0)
(3 2.86494e-17 0)
(3 -8.35781e-16 0)
(3 -1.1229e-15 0)
(3 -5.28445e-16 0)
(3 -3.56235e-16 0)
(3 -9.81641e-16 0)
(3 -1.53737e-15 0)
(3 -1.10288e-15 0)
(3 6.14791e-17 0)
(3 2.09876e-16 0)
(3 1.80657e-16 0)
(3 2.46981e-16 0)
(3 -4.03768e-17 0)
(3 7.68815e-16 0)
(3 2.24434e-15 0)
(3 1.97929e-15 0)
(3 1.74077e-15 0)
(3 1.34699e-15 0)
(3 1.54848e-16 0)
(3 1.28862e-16 0)
(3 4.56102e-17 0)
(3 -4.55779e-16 0)
(3 -1.50818e-15 0)
(3 -1.68334e-15 0)
(3 -1.55233e-15 0)
(3 -1.25944e-15 0)
(3 -1.15646e-15 0)
(3 -4.59584e-16 0)
(3 -6.04555e-17 0)
(3 -5.44377e-16 0)
(3 -9.50965e-16 0)
(3 -7.66044e-16 0)
(3 -1.35861e-16 0)
(3 -1.49299e-17 0)
(3 -6.03961e-16 0)
(3 -1.51766e-15 0)
(3 -9.59895e-16 0)
(3 -4.43179e-17 0)
(3 7.33198e-16 0)
(3 7.2362e-16 0)
(1.12341 0.0202128 0)
(0.7643 0.017752 0)
(0.745491 0.0145131 0)
(0.732105 0.0161771 0)
(0.71699 0.0173582 0)
(0.701758 0.0188954 0)
(0.685984 0.0201338 0)
(0.670036 0.0204925 0)
(0.654343 0.0196656 0)
(0.639281 0.0183172 0)
(0.624775 0.0174658 0)
(0.610469 0.0175132 0)
(0.596006 0.0183952 0)
(0.581116 0.0198207 0)
(0.565677 0.0211887 0)
(0.549896 0.0216402 0)
(0.534371 0.0208723 0)
(0.519457 0.0198245 0)
(0.504852 0.0196837 0)
(0.489933 0.0207169 0)
(0.474186 0.0220955 0)
(0.45783 0.0224138 0)
(0.441702 0.0217197 0)
(0.425978 0.0215632 0)
(0.410216 0.0223513 0)
(0.394088 0.0229739 0)
(0.377758 0.0230367 0)
(0.361254 0.0230912 0)
(0.344425 0.0233509 0)
(0.32728 0.023659 0)
(0.310075 0.0240363 0)
(0.293101 0.0245297 0)
(0.276525 0.0250308 0)
(0.260314 0.0254286 0)
(0.244222 0.0257482 0)
(0.22786 0.0260625 0)
(0.210861 0.0264235 0)
(0.193037 0.0268592 0)
(0.174427 0.0274074 0)
(0.155205 0.0280889 0)
(0.135535 0.0288829 0)
(0.115498 0.0297376 0)
(0.0951021 0.0306044 0)
(0.0743493 0.031427 0)
(0.0532684 0.0322047 0)
(0.0319779 0.0325508 0)
(0.0108428 0.032906 0)
(3 -8.8257e-17 0)
(3 -6.37319e-17 0)
(3 5.06686e-16 0)
(3 7.75129e-16 0)
(3 8.70709e-16 0)
(3 1.11878e-15 0)
(3 8.57359e-16 0)
(3 8.97478e-17 0)
(3 -4.2436e-16 0)
(3 -8.51713e-16 0)
(3 -1.5433e-15 0)
(3 -1.01839e-15 0)
(3 -7.54846e-16 0)
(3 -1.22999e-15 0)
(3 -8.65279e-16 0)
(3 -4.74445e-16 0)
(3 -4.3268e-16 0)
(3 6.63714e-16 0)
(3 6.97234e-16 0)
(3 8.06516e-16 0)
(3 1.00019e-15 0)
(3 1.10716e-15 0)
(3 1.14214e-15 0)
(3 5.75836e-16 0)
(3 -6.92577e-16 0)
(3 -9.65851e-16 0)
(3 -9.36125e-16 0)
(3 -4.82152e-16 0)
(3 -7.15616e-16 0)
(3 -7.15193e-16 0)
(3 -9.87821e-16 0)
(3 -1.76272e-15 0)
(3 -1.94533e-15 0)
(3 -1.467e-15 0)
(3 -7.77518e-16 0)
(3 -3.62826e-16 0)
(3 1.05796e-15 0)
(3 1.90398e-15 0)
(3 1.25569e-15 0)
(3 -2.32003e-16 0)
(3 -8.44713e-16 0)
(3 -1.35546e-15 0)
(3 -1.40079e-15 0)
(3 -1.40159e-15 0)
(3 -1.53041e-15 0)
(3 -1.54018e-15 0)
(3 -2.26026e-15 0)
(3 -2.70647e-15 0)
(3 -3.40415e-15 0)
(1.14081 0.0346665 0)
(0.766608 0.0306832 0)
(0.746329 0.0250945 0)
(0.732222 0.0271586 0)
(0.716951 0.0290097 0)
(0.70177 0.0314145 0)
(0.686147 0.0334181 0)
(0.670328 0.0341525 0)
(0.654584 0.033106 0)
(0.639249 0.0310917 0)
(0.624338 0.029666 0)
(0.609666 0.0296064 0)
(0.594972 0.0308994 0)
(0.580031 0.0331164 0)
(0.564674 0.0353026 0)
(0.548985 0.0360942 0)
(0.53349 0.034987 0)
(0.518447 0.0333745 0)
(0.50355 0.0331179 0)
(0.488392 0.0347235 0)
(0.472532 0.0369163 0)
(0.456112 0.0374538 0)
(0.439972 0.0363817 0)
(0.424155 0.0361442 0)
(0.408274 0.037397 0)
(0.391963 0.0383809 0)
(0.375416 0.0384723 0)
(0.358728 0.0385821 0)
(0.341784 0.0390412 0)
(0.324573 0.0395594 0)
(0.3073 0.0401551 0)
(0.290202 0.0409115 0)
(0.273432 0.0416668 0)
(0.256996 0.0422521 0)
(0.240712 0.0427181 0)
(0.224247 0.043187 0)
(0.207261 0.0437397 0)
(0.18957 0.0444148 0)
(0.171202 0.0452725 0)
(0.152311 0.0463545 0)
(0.133042 0.04764 0)
(0.113457 0.0490553 0)
(0.0935368 0.0505304 0)
(0.0732495 0.0519704 0)
(0.0525927 0.0533618 0)
(0.0316424 0.0540436 0)
(0.0107635 0.0547728 0)
(3 1.30301e-16 0)
(3 5.99264e-16 0)
(3 2.90949e-16 0)
(3 5.8048e-17 0)
(3 -4.46847e-16 0)
(3 -3.37559e-16 0)
(3 -3.47175e-16 0)
(3 -3.90932e-16 0)
(3 2.60483e-17 0)
(3 -1.11323e-18 0)
(3 9.6317e-19 0)
(3 -2.20962e-16 0)
(3 -5.48182e-16 0)
(3 -3.51463e-17 0)
(3 5.76257e-16 0)
(3 1.13213e-15 0)
(3 3.0288e-16 0)
(3 -4.06976e-16 0)
(3 -4.13285e-16 0)
(3 -3.21835e-16 0)
(3 2.81333e-17 0)
(3 2.40362e-16 0)
(3 -7.64171e-16 0)
(3 -2.20923e-15 0)
(3 -2.97227e-15 0)
(3 -2.89562e-15 0)
(3 -2.52199e-15 0)
(3 -1.37217e-15 0)
(3 -1.30535e-15 0)
(3 -9.2401e-16 0)
(3 -1.00787e-15 0)
(3 -1.22154e-15 0)
(3 -1.58707e-15 0)
(3 -1.58667e-15 0)
(3 -1.20376e-15 0)
(3 -1.19809e-15 0)
(3 3.59532e-16 0)
(3 2.06984e-15 0)
(3 2.09434e-15 0)
(3 1.55289e-15 0)
(3 -4.07268e-16 0)
(3 -2.88291e-15 0)
(3 -3.08095e-15 0)
(3 -2.3439e-15 0)
(3 -1.40275e-15 0)
(3 -2.60312e-15 0)
(3 -4.50468e-15 0)
(3 -4.57669e-15 0)
(3 -4.52229e-15 0)
(1.16548 0.0485362 0)
(0.768067 0.0439425 0)
(0.746791 0.0359109 0)
(0.732528 0.0379734 0)
(0.71753 0.0403386 0)
(0.702724 0.0434847 0)
(0.687509 0.0462061 0)
(0.672013 0.0474283 0)
(0.656353 0.0464583 0)
(0.640864 0.0440521 0)
(0.625685 0.0420887 0)
(0.610784 0.0418387 0)
(0.595999 0.0434152 0)
(0.581143 0.0462821 0)
(0.565985 0.0491837 0)
(0.550455 0.0503429 0)
(0.535005 0.0490674 0)
(0.519839 0.0470512 0)
(0.504667 0.0467231 0)
(0.48931 0.0488481 0)
(0.473387 0.0517852 0)
(0.456907 0.0525693 0)
(0.440716 0.051208 0)
(0.424742 0.0509303 0)
(0.408706 0.0526282 0)
(0.392192 0.053987 0)
(0.375408 0.0541599 0)
(0.358505 0.0543877 0)
(0.341397 0.055097 0)
(0.324045 0.0558566 0)
(0.306592 0.0566803 0)
(0.289226 0.0576924 0)
(0.27208 0.0586833 0)
(0.255199 0.0594281 0)
(0.238473 0.0600001 0)
(0.221639 0.0605659 0)
(0.204397 0.0612303 0)
(0.186579 0.0620385 0)
(0.16821 0.0630771 0)
(0.149435 0.0644231 0)
(0.130395 0.0660776 0)
(0.111145 0.0679649 0)
(0.0916527 0.07001 0)
(0.0718449 0.0720787 0)
(0.0516787 0.0741356 0)
(0.031152 0.0752281 0)
(0.0106332 0.0764313 0)
(3 -1.12358e-16 0)
(3 -3.94682e-16 0)
(3 -7.4189e-16 0)
(3 -4.11415e-16 0)
(3 -2.13073e-16 0)
(3 -2.2455e-16 0)
(3 -4.90454e-17 0)
(3 -8.43521e-17 0)
(3 6.00085e-17 0)
(3 2.26489e-17 0)
(3 1.79145e-16 0)
(3 2.11168e-16 0)
(3 8.15166e-16 0)
(3 1.16357e-15 0)
(3 7.43448e-16 0)
(3 5.17865e-16 0)
(3 1.40388e-16 0)
(3 -9.49237e-16 0)
(3 -1.35976e-15 0)
(3 -1.22917e-15 0)
(3 -7.14228e-16 0)
(3 -1.3233e-16 0)
(3 -1.91984e-15 0)
(3 -2.53387e-15 0)
(3 -2.46195e-15 0)
(3 -2.44149e-15 0)
(3 -2.43993e-15 0)
(3 -2.15892e-15 0)
(3 -2.24466e-15 0)
(3 -2.09346e-15 0)
(3 -1.86197e-15 0)
(3 -1.32197e-15 0)
(3 -1.31577e-15 0)
(3 -1.14852e-15 0)
(3 -1.56756e-15 0)
(3 -1.3959e-15 0)
(3 -1.32071e-17 0)
(3 9.88764e-16 0)
(3 3.18831e-16 0)
(3 2.40911e-16 0)
(3 -3.65185e-17 0)
(3 -4.65613e-16 0)
(3 -5.97083e-16 0)
(3 -1.31105e-15 0)
(3 -2.4817e-15 0)
(3 -3.18916e-15 0)
(3 -2.68589e-15 0)
(3 -2.11044e-15 0)
(3 -4.71528e-16 0)
(1.19876 0.0628814 0)
(0.769504 0.0575031 0)
(0.746724 0.0471323 0)
(0.732196 0.0487498 0)
(0.717438 0.0514572 0)
(0.702961 0.055267 0)
(0.688097 0.0586948 0)
(0.672867 0.0605385 0)
(0.657223 0.059923 0)
(0.641519 0.0573581 0)
(0.626042 0.0548606 0)
(0.610913 0.0542644 0)
(0.596098 0.0559449 0)
(0.581446 0.0593065 0)
(0.566629 0.0628395 0)
(0.551369 0.0644184 0)
(0.536043 0.0631457 0)
(0.520863 0.0608451 0)
(0.505566 0.060424 0)
(0.490196 0.0629691 0)
(0.474416 0.0665646 0)
(0.45804 0.0676323 0)
(0.441922 0.0660678 0)
(0.425909 0.065757 0)
(0.409869 0.0678535 0)
(0.393335 0.0696009 0)
(0.376498 0.0699232 0)
(0.359548 0.070345 0)
(0.342418 0.0713645 0)
(0.325037 0.0724051 0)
(0.307494 0.0734754 0)
(0.289923 0.0747516 0)
(0.272434 0.0759902 0)
(0.255098 0.0769144 0)
(0.237875 0.0776138 0)
(0.22057 0.0782899 0)
(0.20293 0.0790583 0)
(0.1848 0.079954 0)
(0.166203 0.081078 0)
(0.147284 0.0825452 0)
(0.1282 0.0844013 0)
(0.109038 0.0866008 0)
(0.0897838 0.0891003 0)
(0.0703452 0.0917387 0)
(0.0506424 0.0944626 0)
(0.0305559 0.0960099 0)
(0.0104626 0.0977542 0)
(3 6.02357e-17 0)
(3 -2.77874e-16 0)
(3 1.23132e-16 0)
(3 5.78711e-16 0)
(3 1.03341e-15 0)
(3 6.16643e-16 0)
(3 6.74274e-16 0)
(3 2.76437e-16 0)
(3 -2.6786e-16 0)
(3 -3.50649e-16 0)
(3 1.84918e-16 0)
(3 6.6022e-16 0)
(3 1.62383e-15 0)
(3 1.46775e-15 0)
(3 1.21045e-15 0)
(3 -6.69521e-16 0)
(3 -1.026e-15 0)
(3 -1.19416e-15 0)
(3 -1.38129e-15 0)
(3 -1.61066e-15 0)
(3 -1.24222e-15 0)
(3 -7.66135e-16 0)
(3 -1.0429e-15 0)
(3 -1.49046e-15 0)
(3 -1.8989e-15 0)
(3 -1.07794e-15 0)
(3 -1.62079e-15 0)
(3 -2.2494e-15 0)
(3 -2.23076e-15 0)
(3 -1.77082e-15 0)
(3 -1.15057e-15 0)
(3 -1.35176e-15 0)
(3 -1.38164e-15 0)
(3 -2.01463e-15 0)
(3 -2.51905e-15 0)
(3 -1.90274e-15 0)
(3 -5.17966e-16 0)
(3 6.71741e-16 0)
(3 4.99702e-16 0)
(3 3.50008e-16 0)
(3 5.92122e-17 0)
(3 -2.02609e-16 0)
(3 -4.2332e-16 0)
(3 -8.39546e-16 0)
(3 -7.68717e-16 0)
(3 -2.66032e-16 0)
(3 -3.84154e-16 0)
(3 6.14434e-17 0)
(3 -3.37256e-15 0)
(1.24245 0.0776725 0)
(0.771492 0.0714131 0)
(0.746785 0.058919 0)
(0.731922 0.0596683 0)
(0.717316 0.0625136 0)
(0.703112 0.0668074 0)
(0.68857 0.0710016 0)
(0.673515 0.0735725 0)
(0.657828 0.0734898 0)
(0.641909 0.0709504 0)
(0.626177 0.0679162 0)
(0.610854 0.0668087 0)
(0.596032 0.0684124 0)
(0.581601 0.0721135 0)
(0.567128 0.0762014 0)
(0.552117 0.0782627 0)
(0.536872 0.0771561 0)
(0.521674 0.0746821 0)
(0.506288 0.0741471 0)
(0.490947 0.0770064 0)
(0.475369 0.0811717 0)
(0.459128 0.0825716 0)
(0.443082 0.0808983 0)
(0.427054 0.080566 0)
(0.411088 0.0830278 0)
(0.394661 0.085199 0)
(0.377902 0.0857533 0)
(0.361016 0.0864415 0)
(0.343939 0.0878199 0)
(0.326573 0.0891753 0)
(0.308974 0.0905121 0)
(0.291243 0.0920664 0)
(0.273471 0.0935709 0)
(0.255742 0.0946983 0)
(0.238077 0.095552 0)
(0.220348 0.0963668 0)
(0.202343 0.0972626 0)
(0.183906 0.0982491 0)
(0.16504 0.0994215 0)
(0.145873 0.100919 0)
(0.126582 0.102838 0)
(0.107304 0.105181 0)
(0.088087 0.107974 0)
(0.0688596 0.111053 0)
(0.0495394 0.114377 0)
(0.0298718 0.11637 0)
(0.0102488 0.118663 0)
(3 2.0979e-17 0)
(3 2.31659e-16 0)
(3 8.42146e-16 0)
(3 6.00903e-16 0)
(3 5.60983e-16 0)
(3 6.86933e-16 0)
(3 7.92324e-16 0)
(3 2.37217e-16 0)
(3 1.60832e-16 0)
(3 2.99849e-16 0)
(3 1.00141e-15 0)
(3 9.47779e-16 0)
(3 6.71102e-16 0)
(3 -1.25143e-16 0)
(3 -6.91575e-16 0)
(3 -1.33955e-15 0)
(3 -1.55657e-15 0)
(3 -1.60695e-15 0)
(3 -1.75977e-15 0)
(3 -1.65832e-15 0)
(3 -1.47948e-15 0)
(3 -1.23939e-15 0)
(3 -7.38778e-16 0)
(3 -4.57827e-16 0)
(3 -7.44355e-16 0)
(3 -6.09809e-16 0)
(3 -5.3188e-16 0)
(3 -1.63509e-15 0)
(3 -1.34881e-15 0)
(3 -9.26663e-16 0)
(3 -8.23365e-16 0)
(3 -1.03392e-15 0)
(3 -6.00431e-16 0)
(3 -1.24148e-15 0)
(3 -1.70244e-15 0)
(3 -1.96009e-15 0)
(3 -2.16517e-15 0)
(3 -2.72564e-15 0)
(3 -2.22708e-15 0)
(3 -1.09446e-15 0)
(3 8.93467e-16 0)
(3 2.0981e-16 0)
(3 -2.37254e-16 0)
(3 -5.95459e-16 0)
(3 4.63027e-16 0)
(3 1.20646e-15 0)
(3 9.59687e-16 0)
(3 8.35558e-16 0)
(3 -9.95811e-16 0)
(1.29797 0.0926328 0)
(0.774519 0.0854082 0)
(0.747145 0.0714756 0)
(0.731764 0.0709844 0)
(0.71707 0.0736654 0)
(0.703064 0.0782761 0)
(0.688937 0.0831292 0)
(0.674204 0.0865895 0)
(0.658572 0.087232 0)
(0.642437 0.0848811 0)
(0.626387 0.0813299 0)
(0.610757 0.079524 0)
(0.595806 0.080844 0)
(0.581518 0.0847316 0)
(0.567355 0.0893133 0)
(0.552583 0.0919205 0)
(0.537404 0.0911215 0)
(0.522201 0.0885594 0)
(0.506755 0.0878717 0)
(0.491441 0.0909219 0)
(0.476061 0.0955632 0)
(0.45994 0.0973436 0)
(0.443945 0.0956451 0)
(0.427931 0.0952888 0)
(0.412128 0.0980749 0)
(0.395958 0.100699 0)
(0.379438 0.101561 0)
(0.362774 0.102572 0)
(0.345897 0.104343 0)
(0.328679 0.106037 0)
(0.311158 0.107656 0)
(0.293417 0.109505 0)
(0.275522 0.111304 0)
(0.257561 0.112676 0)
(0.239604 0.113731 0)
(0.221589 0.114736 0)
(0.203336 0.115812 0)
(0.184681 0.116931 0)
(0.16559 0.118167 0)
(0.146155 0.119671 0)
(0.126561 0.121583 0)
(0.106999 0.123951 0)
(0.0875887 0.126894 0)
(0.0683024 0.130253 0)
(0.0490884 0.134054 0)
(0.0295655 0.136427 0)
(0.0101592 0.139213 0)
(3 -2.53428e-16 0)
(3 -3.10859e-16 0)
(3 -3.00905e-16 0)
(3 -3.93265e-16 0)
(3 -4.21729e-16 0)
(3 1.94774e-17 0)
(3 5.34223e-16 0)
(3 5.64648e-16 0)
(3 8.7988e-16 0)
(3 1.14462e-15 0)
(3 8.14543e-16 0)
(3 7.07368e-16 0)
(3 1.33657e-16 0)
(3 -1.27616e-15 0)
(3 -3.04919e-15 0)
(3 -2.81426e-15 0)
(3 -1.96683e-15 0)
(3 -1.55803e-15 0)
(3 -1.51824e-15 0)
(3 -1.4919e-15 0)
(3 -1.71074e-15 0)
(3 -2.03155e-15 0)
(3 -1.14217e-15 0)
(3 -2.41969e-16 0)
(3 -6.00215e-16 0)
(3 -1.68495e-15 0)
(3 -1.6008e-15 0)
(3 -8.47342e-16 0)
(3 -2.2004e-16 0)
(3 -5.11364e-16 0)
(3 -5.8516e-16 0)
(3 -8.81937e-17 0)
(3 8.94084e-16 0)
(3 1.1974e-15 0)
(3 6.36037e-16 0)
(3 2.97322e-16 0)
(3 -1.41126e-16 0)
(3 -1.29432e-15 0)
(3 -2.31284e-15 0)
(3 -2.71077e-15 0)
(3 -7.46555e-16 0)
(3 9.26751e-16 0)
(3 1.64036e-15 0)
(3 1.62478e-15 0)
(3 7.73556e-16 0)
(3 4.86596e-17 0)
(3 4.82554e-16 0)
(3 9.0347e-16 0)
(3 -2.29657e-15 0)
(1.36688 0.107374 0)
(0.779256 0.0990983 0)
(0.74781 0.085095 0)
(0.731773 0.083122 0)
(0.71657 0.0851602 0)
(0.70252 0.0897136 0)
(0.688812 0.0951234 0)
(0.674613 0.0994455 0)
(0.65934 0.100962 0)
(0.643257 0.0990802 0)
(0.627036 0.0951737 0)
(0.611091 0.092561 0)
(0.595861 0.0933615 0)
(0.581537 0.0972323 0)
(0.567571 0.102214 0)
(0.553 0.105406 0)
(0.537878 0.105035 0)
(0.522684 0.102461 0)
(0.5072 0.101589 0)
(0.491877 0.104718 0)
(0.476628 0.109762 0)
(0.460547 0.111989 0)
(0.444495 0.110359 0)
(0.428413 0.109971 0)
(0.412704 0.113022 0)
(0.396767 0.116096 0)
(0.380477 0.117305 0)
(0.364045 0.118663 0)
(0.347399 0.120835 0)
(0.330383 0.122874 0)
(0.313036 0.124771 0)
(0.295433 0.12691 0)
(0.277617 0.129011 0)
(0.259659 0.13065 0)
(0.241659 0.131945 0)
(0.223601 0.133189 0)
(0.205328 0.134502 0)
(0.186652 0.135814 0)
(0.167486 0.137166 0)
(0.147884 0.138707 0)
(0.128028 0.14062 0)
(0.108152 0.14299 0)
(0.088441 0.146032 0)
(0.0689007 0.149591 0)
(0.0495248 0.153797 0)
(0.0298187 0.156514 0)
(0.0102727 0.159757 0)
(3 2.07895e-17 0)
(3 -2.95794e-17 0)
(3 8.28134e-17 0)
(3 1.88404e-16 0)
(3 -3.65198e-16 0)
(3 -8.62906e-16 0)
(3 -3.68903e-16 0)
(3 2.72243e-16 0)
(3 3.22537e-16 0)
(3 1.90922e-16 0)
(3 -9.79743e-19 0)
(3 9.97326e-17 0)
(3 -6.49665e-16 0)
(3 -1.65454e-15 0)
(3 -1.86524e-15 0)
(3 -7.91616e-16 0)
(3 -6.68223e-16 0)
(3 -1.46226e-15 0)
(3 -1.49414e-15 0)
(3 -1.39154e-15 0)
(3 -1.74413e-15 0)
(3 -1.3911e-15 0)
(3 -7.36924e-16 0)
(3 9.53522e-17 0)
(3 -3.74759e-17 0)
(3 -1.36141e-17 0)
(3 2.83182e-16 0)
(3 1.10907e-15 0)
(3 1.30036e-15 0)
(3 6.82016e-16 0)
(3 8.22425e-16 0)
(3 9.52595e-16 0)
(3 2.0347e-15 0)
(3 2.10651e-15 0)
(3 8.67282e-16 0)
(3 1.46156e-16 0)
(3 -2.39754e-16 0)
(3 -5.63457e-16 0)
(3 -8.58174e-16 0)
(3 -1.10059e-15 0)
(3 -1.22291e-15 0)
(3 -1.85652e-16 0)
(3 9.13502e-16 0)
(3 1.16974e-15 0)
(3 1.07482e-15 0)
(3 8.33363e-16 0)
(3 8.37456e-16 0)
(3 1.25386e-15 0)
(3 -1.55071e-15 0)
(1.45129 0.121536 0)
(0.786552 0.112147 0)
(0.748706 0.100075 0)
(0.73195 0.0963902 0)
(0.715904 0.0973114 0)
(0.701472 0.101323 0)
(0.687941 0.106907 0)
(0.674279 0.112017 0)
(0.659559 0.114492 0)
(0.643837 0.113259 0)
(0.627756 0.109278 0)
(0.611743 0.10591 0)
(0.596305 0.106038 0)
(0.581904 0.109698 0)
(0.568112 0.114955 0)
(0.553789 0.118721 0)
(0.538791 0.118857 0)
(0.523681 0.116328 0)
(0.50825 0.115237 0)
(0.492977 0.118365 0)
(0.477909 0.123787 0)
(0.461909 0.126577 0)
(0.445787 0.125157 0)
(0.429614 0.124769 0)
(0.413922 0.128022 0)
(0.39812 0.131512 0)
(0.381932 0.133071 0)
(0.36558 0.134768 0)
(0.348992 0.137328 0)
(0.331994 0.139699 0)
(0.314631 0.141854 0)
(0.296998 0.144263 0)
(0.279126 0.146665 0)
(0.26107 0.148597 0)
(0.242952 0.150175 0)
(0.224799 0.151718 0)
(0.206469 0.153339 0)
(0.187749 0.154915 0)
(0.168509 0.156441 0)
(0.148774 0.158055 0)
(0.12873 0.159985 0)
(0.108647 0.16234 0)
(0.0887608 0.16545 0)
(0.0690904 0.169146 0)
(0.0496758 0.173714 0)
(0.0299036 0.176762 0)
(0.0103361 0.180449 0)
(3 -3.90005e-18 0)
(3 2.22635e-16 0)
(3 7.95197e-16 0)
(3 6.52187e-16 0)
(3 4.36336e-16 0)
(3 -3.03037e-17 0)
(3 -5.24454e-16 0)
(3 -5.53289e-16 0)
(3 -1.20942e-15 0)
(3 -1.56975e-15 0)
(3 -1.68715e-15 0)
(3 -1.56312e-15 0)
(3 -1.77224e-15 0)
(3 -1.54184e-15 0)
(3 -5.02547e-16 0)
(3 3.62493e-16 0)
(3 3.32305e-16 0)
(3 -8.58736e-16 0)
(3 -1.19664e-15 0)
(3 -9.38857e-16 0)
(3 -2.76109e-16 0)
(3 1.84601e-16 0)
(3 -5.74238e-17 0)
(3 1.23158e-16 0)
(3 1.05315e-15 0)
(3 2.06976e-15 0)
(3 3.83479e-15 0)
(3 3.32191e-15 0)
(3 2.91457e-15 0)
(3 2.87926e-15 0)
(3 1.51625e-15 0)
(3 1.35412e-15 0)
(3 6.2572e-16 0)
(3 4.13826e-16 0)
(3 9.11336e-17 0)
(3 -1.38643e-16 0)
(3 -2.7693e-17 0)
(3 4.61879e-19 0)
(3 -7.43757e-17 0)
(3 -1.80556e-16 0)
(3 -6.11378e-16 0)
(3 -9.41075e-16 0)
(3 -1.01734e-15 0)
(3 -3.86513e-16 0)
(3 3.01165e-16 0)
(3 8.56666e-16 0)
(3 9.63673e-16 0)
(3 1.25856e-15 0)
(3 3.2769e-16 0)
(1.55425 0.13491 0)
(0.797 0.124539 0)
(0.749914 0.116442 0)
(0.732345 0.110644 0)
(0.715216 0.110121 0)
(0.700321 0.113309 0)
(0.686654 0.118597 0)
(0.673414 0.124274 0)
(0.65925 0.127662 0)
(0.643934 0.127206 0)
(0.628083 0.123384 0)
(0.612145 0.119402 0)
(0.596578 0.118796 0)
(0.582071 0.122112 0)
(0.568412 0.127541 0)
(0.554346 0.131862 0)
(0.539493 0.132562 0)
(0.524491 0.130117 0)
(0.509185 0.128732 0)
(0.49407 0.13176 0)
(0.479364 0.137548 0)
(0.463674 0.141026 0)
(0.447694 0.139973 0)
(0.431647 0.139624 0)
(0.416145 0.143028 0)
(0.400608 0.146896 0)
(0.384603 0.148814 0)
(0.368366 0.150861 0)
(0.35183 0.15383 0)
(0.334794 0.15656 0)
(0.317319 0.158983 0)
(0.29953 0.161657 0)
(0.28147 0.164368 0)
(0.263184 0.166618 0)
(0.244815 0.168518 0)
(0.226429 0.170402 0)
(0.2079 0.172371 0)
(0.189 0.174247 0)
(0.169568 0.175975 0)
(0.149614 0.17768 0)
(0.129331 0.179629 0)
(0.109012 0.181945 0)
(0.0889339 0.185077 0)
(0.0691221 0.18883 0)
(0.0496779 0.193691 0)
(0.02988 0.19704 0)
(0.0103575 0.20115 0)
(3 -3.51935e-17 0)
(3 -5.47211e-17 0)
(3 -1.82605e-16 0)
(3 1.75092e-16 0)
(3 3.97076e-16 0)
(3 -4.19563e-17 0)
(3 -3.64839e-16 0)
(3 -9.23618e-16 0)
(3 -1.93647e-15 0)
(3 -1.64985e-15 0)
(3 -1.2898e-15 0)
(3 -9.25526e-16 0)
(3 -2.67049e-16 0)
(3 5.84171e-16 0)
(3 9.59574e-16 0)
(3 3.22776e-16 0)
(3 -2.9204e-16 0)
(3 -8.97387e-17 0)
(3 -2.23727e-17 0)
(3 -3.46537e-17 0)
(3 7.35748e-16 0)
(3 1.10264e-15 0)
(3 9.6864e-16 0)
(3 6.50505e-16 0)
(3 1.69663e-15 0)
(3 2.26635e-15 0)
(3 2.57991e-15 0)
(3 3.31998e-15 0)
(3 3.12077e-15 0)
(3 2.33841e-15 0)
(3 9.39496e-16 0)
(3 7.25512e-16 0)
(3 7.76239e-16 0)
(3 1.03706e-15 0)
(3 1.2219e-15 0)
(3 8.82897e-16 0)
(3 3.60297e-16 0)
(3 3.83859e-16 0)
(3 8.03634e-18 0)
(3 -7.26799e-17 0)
(3 1.25487e-16 0)
(3 1.02895e-16 0)
(3 -4.44761e-16 0)
(3 -5.013e-16 0)
(3 -8.98166e-16 0)
(3 -1.03598e-15 0)
(3 -8.94868e-16 0)
(3 -1.10491e-16 0)
(3 -5.05229e-15 0)
(1.67986 0.147045 0)
(0.810734 0.13697 0)
(0.752113 0.133988 0)
(0.733622 0.125395 0)
(0.715258 0.123222 0)
(0.699823 0.12541 0)
(0.686141 0.130605 0)
(0.673072 0.136459 0)
(0.659345 0.14062 0)
(0.644342 0.141 0)
(0.628594 0.137508 0)
(0.612622 0.133053 0)
(0.596808 0.131685 0)
(0.582003 0.134543 0)
(0.568264 0.14004 0)
(0.554309 0.144894 0)
(0.539472 0.146202 0)
(0.524424 0.143886 0)
(0.509108 0.142093 0)
(0.49401 0.144859 0)
(0.479618 0.15098 0)
(0.464302 0.15526 0)
(0.448537 0.15473 0)
(0.432722 0.154448 0)
(0.417538 0.157959 0)
(0.402422 0.162184 0)
(0.386767 0.164471 0)
(0.37083 0.166877 0)
(0.354551 0.170284 0)
(0.337667 0.173426 0)
(0.320238 0.176159 0)
(0.302426 0.179131 0)
(0.284289 0.18219 0)
(0.265858 0.184814 0)
(0.247289 0.187094 0)
(0.228674 0.189365 0)
(0.209909 0.191716 0)
(0.190764 0.193918 0)
(0.171072 0.19587 0)
(0.150841 0.19768 0)
(0.130271 0.199654 0)
(0.109664 0.201903 0)
(0.0893284 0.205005 0)
(0.0692936 0.208709 0)
(0.0497425 0.213767 0)
(0.0298741 0.217358 0)
(0.0103754 0.221844 0)
(3 6.98859e-17 0)
(3 1.80131e-18 0)
(3 -2.46235e-16 0)
(3 -4.91966e-16 0)
(3 -8.58692e-16 0)
(3 -9.92645e-16 0)
(3 -1.18042e-15 0)
(3 -1.1052e-15 0)
(3 -7.7033e-16 0)
(3 -5.21721e-16 0)
(3 -1.4994e-16 0)
(3 6.33895e-17 0)
(3 6.12604e-16 0)
(3 6.77467e-16 0)
(3 9.57622e-16 0)
(3 5.16329e-16 0)
(3 2.07207e-16 0)
(3 1.95511e-16 0)
(3 2.20433e-16 0)
(3 6.44615e-16 0)
(3 8.04749e-16 0)
(3 6.52195e-16 0)
(3 2.82327e-16 0)
(3 3.54171e-16 0)
(3 1.48635e-16 0)
(3 1.84659e-16 0)
(3 2.38865e-16 0)
(3 9.96033e-16 0)
(3 9.64182e-16 0)
(3 1.88682e-16 0)
(3 1.28974e-16 0)
(3 3.42893e-16 0)
(3 9.43448e-16 0)
(3 1.68177e-15 0)
(3 2.47269e-15 0)
(3 2.56026e-15 0)
(3 1.6664e-15 0)
(3 1.17282e-15 0)
(3 1.16591e-15 0)
(3 1.14379e-15 0)
(3 1.71362e-15 0)
(3 1.64186e-15 0)
(3 1.04133e-15 0)
(3 -8.61061e-17 0)
(3 -5.37926e-16 0)
(3 -9.9948e-16 0)
(3 -1.03136e-15 0)
(3 -5.09343e-16 0)
(3 -1.70446e-15 0)
(1.83093 0.156352 0)
(0.827152 0.150613 0)
(0.755471 0.152199 0)
(0.736749 0.140625 0)
(0.717139 0.136243 0)
(0.701025 0.137158 0)
(0.687133 0.1419 0)
(0.674391 0.148385 0)
(0.66102 0.153397 0)
(0.646324 0.154718 0)
(0.630649 0.15177 0)
(0.614604 0.147021 0)
(0.598503 0.144905 0)
(0.583307 0.147241 0)
(0.569349 0.152716 0)
(0.555412 0.158066 0)
(0.540518 0.160038 0)
(0.525286 0.157956 0)
(0.509804 0.155698 0)
(0.494484 0.158007 0)
(0.48014 0.164334 0)
(0.465021 0.169435 0)
(0.449264 0.169527 0)
(0.433458 0.169272 0)
(0.418369 0.172787 0)
(0.403503 0.177297 0)
(0.388095 0.179921 0)
(0.37243 0.182649 0)
(0.356479 0.186496 0)
(0.339899 0.190101 0)
(0.322713 0.193199 0)
(0.305109 0.196522 0)
(0.287147 0.199999 0)
(0.268815 0.203083 0)
(0.250246 0.205828 0)
(0.231539 0.20856 0)
(0.212607 0.21135 0)
(0.193234 0.213929 0)
(0.173271 0.216154 0)
(0.152741 0.218113 0)
(0.13185 0.22014 0)
(0.110894 0.222312 0)
(0.0902078 0.225339 0)
(0.0698267 0.22889 0)
(0.0500338 0.23403 0)
(0.0299896 0.237778 0)
(0.0104181 0.242571 0)
(3 -1.49891e-17 0)
(3 2.38241e-16 0)
(3 -4.45586e-17 0)
(3 -7.68864e-16 0)
(3 -8.3854e-16 0)
(3 -2.99414e-16 0)
(3 -4.64459e-16 0)
(3 -3.95446e-16 0)
(3 1.43545e-17 0)
(3 1.60562e-16 0)
(3 7.44634e-17 0)
(3 1.99314e-16 0)
(3 8.24302e-16 0)
(3 1.03406e-15 0)
(3 5.995e-16 0)
(3 3.93019e-16 0)
(3 2.57778e-16 0)
(3 4.29323e-16 0)
(3 9.85392e-16 0)
(3 9.44474e-16 0)
(3 2.89408e-16 0)
(3 -5.6551e-16 0)
(3 -2.10081e-16 0)
(3 6.07793e-16 0)
(3 9.28554e-16 0)
(3 1.19462e-15 0)
(3 1.61109e-15 0)
(3 1.0867e-15 0)
(3 4.49419e-17 0)
(3 4.78162e-17 0)
(3 5.63815e-16 0)
(3 1.02543e-15 0)
(3 8.68258e-16 0)
(3 9.88992e-16 0)
(3 1.45933e-15 0)
(3 2.2415e-15 0)
(3 1.95952e-15 0)
(3 1.78755e-15 0)
(3 1.43582e-15 0)
(3 1.54649e-15 0)
(3 1.59087e-15 0)
(3 1.84129e-15 0)
(3 1.68389e-15 0)
(3 1.40317e-15 0)
(3 1.24334e-15 0)
(3 8.61886e-16 0)
(3 7.63148e-16 0)
(3 5.40323e-16 0)
(3 -2.44157e-15 0)
(2.00405 0.162115 0)
(0.845309 0.166424 0)
(0.757897 0.170016 0)
(0.739725 0.156694 0)
(0.719751 0.149666 0)
(0.703181 0.148739 0)
(0.688855 0.152799 0)
(0.676169 0.159577 0)
(0.66328 0.165804 0)
(0.649086 0.167977 0)
(0.63385 0.165795 0)
(0.618125 0.161014 0)
(0.602093 0.158167 0)
(0.586757 0.15991 0)
(0.572766 0.165276 0)
(0.55899 0.171083 0)
(0.54416 0.173803 0)
(0.52876 0.172169 0)
(0.51308 0.16952 0)
(0.497412 0.171279 0)
(0.482915 0.17773 0)
(0.46787 0.183685 0)
(0.451945 0.184542 0)
(0.435912 0.184312 0)
(0.420614 0.187732 0)
(0.405679 0.192421 0)
(0.390216 0.195294 0)
(0.374525 0.198231 0)
(0.358653 0.202437 0)
(0.342211 0.206495 0)
(0.325173 0.209975 0)
(0.307762 0.213683 0)
(0.290042 0.217644 0)
(0.271929 0.221281 0)
(0.2535 0.224587 0)
(0.234837 0.227863 0)
(0.21586 0.231167 0)
(0.19637 0.234198 0)
(0.17624 0.236779 0)
(0.155495 0.238965 0)
(0.134328 0.241111 0)
(0.113011 0.243236 0)
(0.091897 0.246185 0)
(0.0710326 0.249515 0)
(0.0508113 0.25464 0)
(0.030401 0.258457 0)
(0.0105507 0.263479 0)
(3 -4.43368e-17 0)
(3 1.36475e-17 0)
(3 -1.53824e-16 0)
(3 -2.44497e-17 0)
(3 -1.50081e-17 0)
(3 -1.68464e-16 0)
(3 -1.40452e-16 0)
(3 -3.28812e-17 0)
(3 -1.827e-17 0)
(3 9.03251e-17 0)
(3 2.689e-16 0)
(3 1.52276e-15 0)
(3 2.3459e-15 0)
(3 1.43526e-15 0)
(3 1.16217e-16 0)
(3 -9.28646e-17 0)
(3 -1.42135e-16 0)
(3 2.76438e-16 0)
(3 4.05422e-16 0)
(3 -4.60969e-18 0)
(3 -5.96326e-16 0)
(3 2.00801e-16 0)
(3 1.5598e-15 0)
(3 2.14278e-15 0)
(3 1.84653e-15 0)
(3 1.25664e-15 0)
(3 9.15291e-16 0)
(3 4.68291e-16 0)
(3 -4.46826e-17 0)
(3 1.67101e-16 0)
(3 3.56676e-16 0)
(3 1.51551e-16 0)
(3 7.67612e-16 0)
(3 2.64788e-16 0)
(3 -2.82922e-17 0)
(3 9.3817e-16 0)
(3 1.37566e-15 0)
(3 1.00647e-15 0)
(3 2.61982e-16 0)
(3 -3.57482e-16 0)
(3 2.18212e-16 0)
(3 1.03206e-15 0)
(3 1.53505e-15 0)
(3 1.47098e-15 0)
(3 1.23831e-15 0)
(3 2.55388e-15 0)
(3 2.11124e-15 0)
(3 1.55524e-15 0)
(3 -2.04936e-15 0)
(2.1933 0.162834 0)
(0.866363 0.184711 0)
(0.756803 0.186461 0)
(0.740816 0.172378 0)
(0.721713 0.164037 0)
(0.705408 0.16113 0)
(0.690948 0.164249 0)
(0.677971 0.170911 0)
(0.664924 0.177851 0)
(0.650523 0.181469 0)
(0.635194 0.179859 0)
(0.619398 0.17526 0)
(0.603375 0.171748 0)
(0.587953 0.17275 0)
(0.574063 0.177874 0)
(0.560723 0.184115 0)
(0.546315 0.187668 0)
(0.531086 0.186699 0)
(0.515574 0.183771 0)
(0.499915 0.184817 0)
(0.485618 0.191196 0)
(0.471106 0.197949 0)
(0.455396 0.199712 0)
(0.439394 0.199563 0)
(0.423993 0.20286 0)
(0.408979 0.207703 0)
(0.393359 0.210815 0)
(0.377455 0.213893 0)
(0.361434 0.218369 0)
(0.344931 0.222835 0)
(0.327874 0.226666 0)
(0.310533 0.230726 0)
(0.292992 0.235167 0)
(0.275091 0.239388 0)
(0.256831 0.243301 0)
(0.238267 0.247176 0)
(0.21932 0.251063 0)
(0.199802 0.254639 0)
(0.179591 0.257691 0)
(0.158699 0.260228 0)
(0.137287 0.262604 0)
(0.115595 0.264759 0)
(0.0939981 0.267663 0)
(0.0725697 0.27074 0)
(0.0518069 0.275763 0)
(0.0309391 0.279557 0)
(0.0107113 0.284723 0)
(3 1.33753e-16 0)
(3 -4.94788e-16 0)
(3 -5.58445e-16 0)
(3 -4.67057e-16 0)
(3 1.02234e-16 0)
(3 2.43539e-16 0)
(3 4.96805e-16 0)
(3 4.4962e-16 0)
(3 3.34555e-16 0)
(3 1.78721e-16 0)
(3 4.3529e-16 0)
(3 1.21477e-15 0)
(3 9.29868e-16 0)
(3 -4.59982e-16 0)
(3 -6.53007e-16 0)
(3 -5.26761e-16 0)
(3 -5.55861e-16 0)
(3 -3.99803e-17 0)
(3 -1.10153e-16 0)
(3 4.34e-16 0)
(3 1.14027e-15 0)
(3 2.2856e-15 0)
(3 2.69283e-15 0)
(3 1.67668e-15 0)
(3 5.24592e-17 0)
(3 3.26671e-17 0)
(3 -1.16844e-15 0)
(3 -4.22665e-16 0)
(3 5.32504e-16 0)
(3 3.96173e-16 0)
(3 -8.15092e-17 0)
(3 -3.97125e-16 0)
(3 2.34217e-16 0)
(3 4.14277e-16 0)
(3 2.9683e-16 0)
(3 1.78565e-16 0)
(3 9.23544e-16 0)
(3 6.38839e-16 0)
(3 3.59337e-16 0)
(3 1.91173e-16 0)
(3 4.47479e-17 0)
(3 9.0354e-18 0)
(3 6.28407e-16 0)
(3 1.53748e-15 0)
(3 1.8852e-15 0)
(3 2.36835e-15 0)
(3 2.67378e-15 0)
(3 2.40308e-15 0)
(3 2.43291e-15 0)
(2.39904 0.162172 0)
(0.897642 0.20683 0)
(0.760361 0.201758 0)
(0.748632 0.187371 0)
(0.731249 0.177953 0)
(0.714867 0.17395 0)
(0.699085 0.176119 0)
(0.6847 0.183007 0)
(0.670336 0.190762 0)
(0.655051 0.195218 0)
(0.638947 0.194701 0)
(0.62281 0.190061 0)
(0.606515 0.185857 0)
(0.590691 0.185877 0)
(0.57642 0.190481 0)
(0.563104 0.196969 0)
(0.548888 0.201339 0)
(0.533661 0.201209 0)
(0.518219 0.198159 0)
(0.502549 0.198321 0)
(0.488404 0.204361 0)
(0.474581 0.211816 0)
(0.459278 0.21468 0)
(0.443458 0.214773 0)
(0.428048 0.218005 0)
(0.413055 0.223061 0)
(0.397363 0.226477 0)
(0.381298 0.229689 0)
(0.365133 0.234379 0)
(0.348551 0.239233 0)
(0.331404 0.243411 0)
(0.313993 0.247792 0)
(0.296459 0.25268 0)
(0.278608 0.257463 0)
(0.260394 0.261973 0)
(0.241869 0.266449 0)
(0.22297 0.270952 0)
(0.203508 0.275149 0)
(0.183335 0.27879 0)
(0.162405 0.281822 0)
(0.140827 0.284573 0)
(0.118788 0.286874 0)
(0.0966891 0.28981 0)
(0.0746301 0.292649 0)
(0.0532005 0.297513 0)
(0.031731 0.301208 0)
(0.0109551 0.306437 0)
(3 6.17242e-17 0)
(3 -1.53852e-16 0)