/*--------------------------------*- C++ -*----------------------------------*\
  =========                 |
  \\      /  F ield         | OpenFOAM: The Open Source CFD Toolbox
   \\    /   O peration     | Website:  https://openfoam.org
    \\  /    A nd           | Version:  7
     \\/     M anipulation  |
\*---------------------------------------------------------------------------*/
FoamFile
{
    version     2.0;
    format      ascii;
    class       volScalarField;
    location    "1.3";
    object      p;
}
// * * * * * * * * * * * * * * * * * * * * * * * * * * * * * * * * * * * * * //

dimensions      [1 -1 -2 0 0 0 0];

internalField   nonuniform List<scalar> 
4032
(
1
1
1
1
1
1
1
1
1
1
1
1
1.69974
8.43589
10.7558
10.9577
11.198
11.4036
11.5705
11.7053
11.8286
11.9507
12.0365
12.1053
1
1
1
1
1
1
1
1
1
1
1
1
1.63674
8.2736
10.7358
10.9535
11.1798
11.3776
11.5434
11.6751
11.7928
11.9006
11.9745
12.0345
1
1
1
1
1
1
1
1
1
1
1
1
1.4895
7.95551
10.7181
10.911
11.1304
11.321
11.4886
11.6239
11.7408
11.832
11.8851
11.9288
1
1
1
1
1
1
1
1
1
1
1
1
1.26384
7.44168
10.6908
10.8655
11.082
11.2586
11.4168
11.5451
11.6514
11.7174
11.7406
11.7579
1
1
1
1
1
1
1
1
1
1
1
1
1.01907
6.68724
10.6427
10.8009
10.9723
11.1136
11.2464
11.3608
11.4598
11.5202
11.5261
11.5487
1
1
1
1
1
1
1
1
1
1
1
1
1.0002
5.7178
10.4278
10.6702
10.8261
10.9628
11.0811
11.1775
11.2506
11.278
11.243
11.1636
1
1
1
1
1
1
1
1
1
1
1
1
1
4.59608
10.0964
10.5429
10.6767
10.789
10.8703
10.9261
10.9327
10.859
10.7391
10.655
1
1
1
1
1
1
1
1
1
1
1
1
1
3.36957
9.53518
10.4215
10.528
10.6146
10.6544
10.6573
10.5984
10.4744
10.2911
10.2316
1
1
1
1
1
1
1
1
1
1
1
1
1
2.1061
8.64693
10.3172
10.3458
10.4213
10.4218
10.3603
10.2016
9.9004
9.08412
7.1814
1
1
1
1
1
1
1
1
1
1
1
1
1
1.12844
7.32072
10.2976
10.1822
10.194
10.1398
10.015
9.75729
9.25548
8.40207
6.31473
1
1
1
1
1
1
1
1
1
1
1
1
1
1.00178
5.46784
9.68792
9.86474
9.90783
9.82102
9.63863
9.32951
8.75553
7.85785
5.95325
1
1
1
1
1
1
1
1
1
1
1
1
1
0.999991
3.27059
8.92485
9.72464
9.73007
9.60425
9.3459
8.9578
8.37774
7.38746
5.88179
1
1
1
1
1
1
1
1
1
1
1
1
1
0.999998
1.50142
7.76037
9.76582
9.56779
9.34697
9.02914
8.6241
8.04556
7.10148
5.94136
1
1
1
1
1
1
1
1
1
1
1
1
1
1
1.02409
5.80147
9.3058
9.15145
8.97658
8.68432
8.3359
7.74501
6.92322
5.98714
1
1
1
1
1
1
1
1
1
1
1
1
1
1
0.999967
3.12897
8.58184
9.00691
8.80575
8.50335
8.11265
7.55533
6.84808
6.05825
1
1
1
1
1
1
1
1
1
1
1
1
1
1
0.999987
1.29605
6.88753
8.89376
8.58309
8.30527
7.90446
7.39796
6.78313
6.09962
1
1
1
1
1
1
1
1
1
1
1
1
1
1
0.999997
1.00714
4.14816
8.21087
8.38935
8.14686
7.7783
7.29653
6.73595
6.1347
1
1
1
1
1
1
1
1
1
1
1
1
1
1
1
0.999994
1.5934
6.91276
8.39761
8.05322
7.67628
7.21527
6.70035
6.16171
1
1
1
1
1
1
1
1
1
1
1
1
1
1
1
0.999999
1.02715
4.27
7.86661
7.88468
7.54664
7.13321
6.66857
6.18238
1
1
1
1
1
1
1
1
1
1
1
1
1
1
1
1
1.00008
1.65147
6.41911
7.89819
7.49202
7.09873
6.67277
6.22408
1
1
1
1
1
1
1
1
1
1
1
1
1
1
1
1
1
1.03103
3.57655
7.29045
7.39486
7.03154
6.65106
6.24311
1
1
1
1
1
1
1
1
1
1
1
1
1
1
1
1
1
1.00018
1.42718
5.5367
7.4607
7.06533
6.69033
6.29276
1
1
1
1
1
1
1
1
1
1
1
1
1
1
1
1
1
1
1.01405
2.54782
6.39854
7.05919
6.65749
6.29134
1
1
1
1
1
1
1
1
1
1
1
1
1
1
1
1
1
1
1.00008
1.16103
4.07592
6.77908
6.6831
6.35106
1
1
1
1
1
1
1
1
1
1
1
1
1
1
1
1
1
1
1
1.00285
1.66077
5.21653
6.69727
6.43138
1
1
1
1
1
1
1
1
1
1
1
1
1
1
1
1
1
1
1
1.00001
1.03318
2.46267
5.7811
6.44546
1
1
1
1
1
1
1
1
1
1
1
1
1
1
1
1
1
1
1
1
1.00033
1.14912
3.36645
5.93022
1
1
1
1
1
1
1
1
1
1
1
1
1
1
1
1
1
1
1
1
1
1.00295
1.39727
4.11116
1
1
1
1
1
1
1
1
1
1
1
1
1
1
1
1
1
1
1
1
1
1.00001
1.01469
1.76449
1
1
1
1
1
1
1
1
1
1
1
1
1
1
1
1
1
1
1
1
1
1
1.00012
1.04691
1
1
1
1
1
1
1
1
1
1
1
1
1
1
1
1
1
1
1
1
1
1
1
1.0006
1
1
1
1
1
1
1
1
1
1
1
1
1
1
1
1
1
1
1
1
1
1
1
1
1
1
1
1
1
1
1
1
1
1
1
1
1
1
1
1
1
1
1
1
1
1
1
1
1
1
1
1
1
1
1
1
1
1
1
1
1
1
1
1
1
1
1
1
1
1
1
1
1
1
1
1
1
1
1
1
1
1
1
1
1
1
1
1
1
1
1
1
1
1
1
1
1
1
1
1
1
1
1
1
1
1
1
1
1
1
1
1
1
1
1
1
1
1
1
1
1
1
1
1
1
1
1
1
1
1
1
1
1
1
1
1
1
1
1
1
1
1
1
1
1
1
1
1
1
1
1
1
1
1
1
1
1
1
1
1
1
1
1
1
1
1
1
1
1
1
1
1
1
1
1
1
1
1
1
1
1
1
1
1
1
1
1
1
1
1
1
1
1
1
1
1
1
1
1
1
1
1
1
1
1
1
1
1
1
1
1
1
1
1
1
1
1.59406
0.486582
0.188033
0.142627
0.171078
0.259294
0.357579
0.463472
0.630412
0.774544
0.866773
0.938386
1.00492
1.07051
1.14998
1.23878
1.25752
1.23231
1.21141
1.20397
1.19666
1.18564
1.18009
1.18243
1.18778
1.19086
1.19374
1.19931
1.20437
1.19903
1.19105
1.17886
1.17009
1.16671
1.16293
1.16235
1.17341
1.17703
1.16928
1.15475
1.13109
1.11297
1.10748
1.10172
1.09485
1.08984
1.08685
1.08593
1.08304
1.07372
1.05901
1.04563
1.03589
1.02649
1.01674
1.00576
0.992846
0.976799
0.970265
0.983367
1.03881
1.17975
1.40831
1.74168
2.14306
2.57007
2.94114
3.25604
3.50413
3.67864
3.78376
3.83548
3.83665
3.80539
3.76828
3.68692
3.57619
3.43756
3.29424
3.16772
3.05635
2.97159
2.90827
2.85834
2.81732
2.78234
2.74704
2.70293
2.63041
2.53321
2.48678
2.45385
2.4279
2.40606
2.38938
2.36114
2.72564
1.46893
1.01492
0.678683
0.559369
0.559009
0.529408
0.498758
0.50821
0.542706
0.585932
0.655845
0.758373
0.857617
0.933867
1.02881
1.13464
1.14549
1.14974
1.16277
1.17291
1.16927
1.16655
1.17223
1.17816
1.1821
1.18983
1.19971
1.20663
1.20181
1.1949
1.18554
1.17768
1.1736
1.16711
1.16197
1.16471
1.16436
1.15772
1.14978
1.13943
1.12371
1.11294
1.10792
1.10264
1.09692
1.09205
1.08935
1.08629
1.07851
1.06538
1.04681
1.02975
1.0177
1.00816
0.999769
0.998459
1.01628
1.08472
1.22313
1.43419
1.64199
1.81711
1.95445
2.03908
2.10779
2.22047
2.38004
2.56969
2.696
2.77772
2.85702
2.93653
3.01763
3.0914
3.15456
3.19332
3.18334
3.16337
3.11781
3.06503
2.9968
2.93345
2.88562
2.84639
2.81265
2.7806
2.74437
2.69072
2.61312
2.5626
2.52112
2.4829
2.45285
2.43978
2.41123
3.66766
2.34643
1.71785
1.29543
0.990497
0.851806
0.763744
0.627573
0.57266
0.575424
0.576909
0.612198
0.680325
0.747892
0.798397
0.855213
0.971826
1.05285
1.09045
1.13488
1.17935
1.18452
1.17716
1.18742
1.20129
1.20431
1.21052
1.21417
1.20965
1.19823
1.18676
1.17521
1.17185
1.1701
1.16517
1.16251
1.1637
1.16099
1.15526
1.14877
1.14228
1.13247
1.11887
1.10932
1.10242
1.09524
1.08842
1.08376
1.08141
1.07681
1.06674
1.04865
1.02698
1.01354
1.02036
1.04736
1.1362
1.29418
1.5207
1.76659
1.91649
1.99068
2.06032
2.06303
2.01987
1.97745
1.96037
1.9512
1.96813
2.00827
2.06657
2.15078
2.27534
2.4329
2.58434
2.71697
2.82072
2.88365
2.91402
2.9323
2.93368
2.90755
2.90158
2.90113
2.89759
2.88824
2.8726
2.8337
2.78317
2.70796
2.63675
2.58245
2.53255
2.49398
2.46462
2.40632
4.28138
3.15617
2.4059
1.88253
1.48776
1.25439
1.09753
0.931118
0.842686
0.798684
0.733825
0.684976
0.688354
0.683875
0.689613
0.71037
0.784311
0.895239
0.967557
1.01308
1.07374
1.09728
1.10428
1.12841
1.17984
1.20765
1.22086
1.23029
1.22867
1.21784
1.19636
1.17598
1.1683
1.16367
1.15642
1.15085
1.14881
1.15042
1.15033
1.14601
1.14123
1.13615
1.12743
1.11516
1.10214
1.08992
1.08062
1.07358
1.07004
1.06527
1.0575
1.0473
1.05398
1.08636
1.19366
1.36835
1.6086
1.84666
1.99776
2.06946
2.10836
2.1174
2.08885
2.04436
1.99443
1.95981
1.93029
1.89943
1.86778
1.83723
1.80895
1.77002
1.74878
1.77471
1.84175
1.94401
2.08137
2.24726
2.3946
2.52954
2.60952
2.64397
2.67007
2.6776
2.67863
2.67961
2.6773
2.69188
2.70528
2.69329
2.67342
2.64831
2.61242
2.57043
2.54359
2.48787
4.71058
3.7365
3.00863
2.40941
1.97965
1.68852
1.44381
1.23711
1.10226
0.995608
0.903466
0.827267
0.796369
0.758854
0.716264
0.721544
0.735284
0.756144
0.79543
0.841191
0.908839
0.977717
1.01991
1.05145
1.10767
1.14716
1.15876
1.17654
1.2033
1.20889
1.20153
1.19728
1.19534
1.18888
1.17542
1.16123
1.14796
1.14068
1.13366
1.12578
1.12378
1.12347
1.12213
1.11955
1.11452
1.10637
1.09505
1.08226
1.07002
1.05936
1.06234
1.09242
1.20461
1.41485
1.68885
1.95613
2.09669
2.16154
2.19239
2.18339
2.14897
2.09441
2.03554
2.00874
1.99479
1.95993
1.92307
1.88582
1.84439
1.80871
1.77815
1.74463
1.69116
1.64781
1.62822
1.61763
1.62534
1.65839
1.72587
1.81827
1.93304
2.04487
2.13431
2.20626
2.26964
2.32989
2.38998
2.46043
2.51649
2.52649
2.51518
2.50507
2.48568
2.44438
2.42236
2.41649
5.00126
4.17353
3.47412
2.8786
2.43082
2.07574
1.78384
1.55389
1.40696
1.26693
1.12474
1.03266
0.97941
0.923367
0.848311
0.821915
0.798207
0.772998
0.753859
0.756774
0.771403
0.805198
0.860793
0.917064
0.984849
1.05159
1.08517
1.11395
1.15743
1.17277
1.16796
1.17171
1.18693
1.1909
1.18556
1.17791
1.16666
1.14869
1.13104
1.1196
1.11517
1.11319
1.11277
1.11434
1.11321
1.10385
1.09085
1.07841
1.07691
1.09999
1.19921
1.4018
1.69404
1.99625
2.13242
2.22073
2.26422
2.26122
2.23044
2.17197
2.09515
2.0452
2.02286
1.99052
1.94153
1.9044
1.88298
1.85626
1.82744
1.806
1.78394
1.75077
1.70027
1.64253
1.60368
1.58337
1.57418
1.56783
1.56152
1.5519
1.54838
1.54709
1.55921
1.58487
1.62838
1.70493
1.81168
1.9219
2.03369
2.13571
2.19215
2.23424
2.25435
2.24573
2.25258
2.27566
5.22909
4.51632
3.84681
3.25104
2.82067
2.4538
2.12744
1.85912
1.67465
1.51244
1.3648
1.25911
1.17825
1.08848
0.987032
0.920093
0.875718
0.826965
0.774492
0.767415
0.770166
0.774117
0.783816
0.805777
0.84042
0.89029
0.944961
0.989546
1.04865
1.10143
1.11827
1.13869
1.16514
1.17576
1.17447
1.17279
1.1652
1.15029
1.13657
1.12824
1.12281
1.11895
1.11358
1.10591
1.09963
1.08923
1.08491
1.10462
1.20011
1.42109
1.74863
2.06997
2.21274
2.27262
2.29753
2.30345
2.29409
2.25734
2.19169
2.12572
2.08069
2.04567
2.00358
1.95614
1.90293
1.86642
1.84713
1.82548
1.80442
1.79056
1.78108
1.75993
1.72642
1.67622
1.61158
1.56703
1.55258
1.54097
1.52545
1.50551
1.4841
1.46452
1.4449
1.4211
1.38209
1.36246
1.37058
1.39992
1.44618
1.50662
1.57622
1.64412
1.71319
1.78368
1.83825
1.94266
5.40017
4.76315
4.13773
3.59907
3.16554
2.77854
2.40581
2.16201
1.95777
1.76607
1.57263
1.46438
1.36942
1.26729
1.16422
1.09055
1.03138
0.963682
0.881255
0.860643
0.842017
0.811802
0.794106
0.795769
0.791398
0.787486
0.795252
0.825494
0.877083
0.950324
1.02116
1.06719
1.11307
1.15165
1.15902
1.15964
1.156
1.14496
1.1383
1.13352
1.12661
1.12099
1.1118
1.09861
1.08654
1.09705
1.17176
1.38406
1.72404
2.10062
2.29081
2.39611
2.4108
2.38469
2.32864
2.26619
2.23031
2.19698
2.15886
2.12878
2.08926
2.03784
1.98381
1.93334
1.87972
1.83469
1.81351
1.79356
1.77667
1.77142
1.76643
1.74516
1.71919
1.68074
1.60931
1.54568
1.52534
1.51094
1.49067
1.46976
1.44963
1.43257
1.42016
1.40753
1.38139
1.32447
1.2874
1.27426
1.26466
1.25926
1.26254
1.27588
1.29255
1.31475
1.34417
1.42902
5.52338
4.95177
4.37818
3.87232
3.45179
3.05688
2.68625
2.42597
2.20218
1.99379
1.7972
1.67734
1.55766
1.43055
1.3056
1.24005
1.17703
1.10246
1.01411
0.967803
0.93112
0.88212
0.825666
0.812934
0.802233
0.784102
0.784904
0.791648
0.802776
0.825942
0.867118
0.921294
0.980296
1.04633
1.08938
1.1081
1.12057
1.13149
1.13347
1.1317
1.12775
1.12327
1.11373
1.11152
1.14886
1.30982
1.6672
2.05922
2.27016
2.41648
2.48933
2.49018
2.45453
2.36758
2.25407
2.19132
2.16061
2.14231
2.1194
2.09574
2.06221
2.01797
1.97434
1.92826
1.86857
1.80751
1.77794
1.76055
1.7455
1.74519
1.74647
1.72217
1.6953
1.66298
1.60634
1.53111
1.49001
1.47217
1.45568
1.43866
1.42389
1.41544
1.40819
1.39802
1.37694
1.32366
1.26747
1.24368
1.22953
1.2203
1.21702
1.21888
1.22317
1.22036
1.21233
1.20102
5.61493
5.09482
4.57198
4.10292
3.70446
3.30255
2.93967
2.6801
2.44903
2.2115
2.01057
1.87306
1.73629
1.60847
1.47881
1.39482
1.31642
1.23273
1.14148
1.0961
1.0569
1.00337
0.928586
0.899145
0.877539
0.841449
0.809354
0.809571
0.812085
0.800811
0.798035
0.806977
0.833213
0.87785
0.941005
0.997534
1.03777
1.08513
1.10913
1.11326
1.11168
1.12077
1.16433
1.32143
1.60387
2.01956
2.33386
2.45642
2.50957
2.52787
2.51093
2.46613
2.40273
2.29902
2.18158
2.14962
2.13285
2.09537
2.06447
2.04454
2.02775
2.00062
1.96517
1.92031
1.85518
1.78571
1.74513
1.7243
1.71469
1.71588
1.70274
1.68066
1.65974
1.63506
1.59759
1.53522
1.46857
1.43915
1.42461
1.41629
1.41455
1.40355
1.39167
1.37982
1.3613
1.3248
1.26826
1.22581
1.20767
1.19752
1.19145
1.19276
1.19611
1.19335
1.18905
1.17199
5.68905
5.21177
4.73508
4.29896
3.90989
3.52184
3.18548
2.91252
2.66227
2.40588
2.223
2.06865
1.91727
1.76208
1.6376
1.54631
1.45773
1.3718
1.26897
1.21171
1.16329
1.10435
1.02914
0.988466
0.95995
0.918559
0.860004
0.841083
0.837327
0.819275
0.799783
0.799128
0.801851
0.806438
0.815355
0.844236
0.892472
0.958312
1.01914
1.05837
1.08675
1.179
1.53547
2.00425
2.28665
2.57257
2.57772
2.55405
2.5258
2.51869
2.46915
2.39031
2.31768
2.24568
2.1551
2.10914
2.08227
2.04619
2.01627
1.99917
1.99125
1.96737
1.93381
1.89424
1.84721
1.79366
1.73453
1.69316
1.67271
1.6589
1.64069
1.62273
1.60911
1.59305
1.57413
1.54381
1.48221
1.42723
1.40611
1.38972
1.37354
1.35927
1.34625
1.33254
1.32054
1.30576
1.28048
1.23999
1.20499
1.1932
1.18956
1.18767
1.183
1.17775
1.17076
1.15069
5.76856
5.31937
4.87334
4.47308
4.09627
3.71599
3.40074
3.13079
2.86502
2.60096
2.42124
2.25042
2.08562
1.92506
1.80656
1.68963
1.58487
1.49955
1.40302
1.33195
1.27817
1.21986
1.13512
1.08515
1.05414
1.01331
0.950297
0.914504
0.905875
0.885098
0.84193
0.815075
0.815693
0.807353
0.79073
0.790191
0.798848
0.828923
0.897701
0.967879
1.15367
1.59191
2.18088
2.42018
2.54403
2.63123
2.61503
2.58519
2.53553
2.46603
2.39236
2.32247
2.26868
2.21175
2.14402
2.08194
2.04316
2.0111
1.9817
1.9637
1.95126
1.92569
1.88939
1.85392
1.82469
1.79494
1.74799
1.6766
1.62755
1.60706
1.58882
1.57195
1.56362
1.56203
1.54998
1.53255
1.50491
1.44556
1.38611
1.35716
1.3382
1.32279
1.30971
1.2956
1.28307
1.27637
1.26932
1.25296
1.21165
1.16814
1.1549
1.14786
1.14032
1.13387
1.13152
1.1204
5.81901
5.39888
4.98996
4.61134
4.24498
3.88746
3.5928
3.32711
3.04057
2.78158
2.60388
2.43079
2.24907
2.0722
1.95893
1.83324
1.71517
1.62558
1.54071
1.44838
1.38063
1.32364
1.24482
1.18089
1.14492
1.10476
1.04036
0.986774
0.969469
0.945454
0.902081
0.852927
0.840669
0.826598
0.80089
0.791283
0.794722
0.806249
0.857973
1.15162
1.61123
2.12207
2.26598
2.34722
2.41153
2.45067
2.45279
2.41422
2.34686
2.2951
2.27837
2.25821
2.22947
2.18901
2.15244
2.11226
2.06235
2.01167
1.9646
1.92913
1.89944
1.86617
1.83538
1.81349
1.80044
1.77733
1.74184
1.67717
1.59601
1.56024
1.54368
1.52869
1.51947
1.52897
1.52506
1.51084
1.49211
1.45929
1.39482
1.33189
1.29982
1.28329
1.27077
1.26266
1.26014
1.25649
1.24768
1.23647
1.21206
1.15631
1.12202
1.11281
1.10502
1.09665
1.09094
1.0863
5.88645
5.47888
5.09821
4.73872
4.37813
4.03535
3.74891
3.48581
3.2092
2.96624
2.77023
2.58621
2.3887
2.22698
2.10746
1.98298
1.84069
1.73222
1.66492
1.57163
1.48896
1.43212
1.35289
1.26796
1.22839
1.19208
1.13753
1.07674
1.05265
1.02768
0.985738
0.923367
0.900147
0.885447
0.856696
0.834154
0.850896
0.956733
1.27588
1.73641
2.07899
2.21958
2.17692
2.133
2.11406
2.10056
2.0973
2.08668
2.07967
2.09743
2.11991
2.13773
2.14417
2.12164
2.09342
2.07947
2.04642
1.98673
1.93255
1.87398
1.83762
1.81472
1.80093
1.79913
1.78864
1.7607
1.72531
1.67171
1.58797
1.5268
1.50679
1.49105
1.47614
1.46788
1.47663
1.47608
1.46048
1.43635
1.39484
1.3317
1.27709
1.25704
1.24577
1.24317
1.24952
1.24057
1.22646
1.21306
1.19233
1.1486
1.09807
1.08154
1.07396
1.06625
1.06071
1.06205
5.91371
5.53485
5.18233
4.83828
4.48564
4.17049
3.89778
3.63155
3.36059
3.1384
2.93395
2.73847
2.53801
2.38
2.24642
2.11795
1.97934
1.86102
1.78803
1.69069
1.58955
1.53294
1.46748
1.37714
1.31936
1.27629
1.21962
1.15348
1.12674
1.10403
1.066
1.00527
0.962866
0.944749
0.918465
0.948886
1.14325
1.5478
2.04569
2.23654
2.25306
2.20098
2.11509
2.03047
1.98216
1.93201
1.89381
1.86504
1.84432
1.84451
1.85494
1.86874
1.88985
1.92289
1.95162
1.96946
1.95116
1.9026
1.82537
1.78362
1.77067
1.76241
1.76526
1.77268
1.76154
1.73855
1.70669
1.65972
1.59451
1.52816
1.48982
1.46148
1.43831
1.42301
1.4116
1.40581
1.40256
1.38725
1.36615
1.33031
1.2807
1.24844
1.23471
1.22322
1.20845
1.19303
1.17903
1.16599
1.15293
1.12923
1.08487
1.05769
1.04939
1.04234
1.04442
1.05683
5.99413
5.63448
5.28885
4.95267
4.62209
4.32439
4.0404
3.76191
3.51298
3.30703
3.09276
2.87673
2.6709
2.53676
2.39749
2.25699
2.09675
1.98975
1.90633
1.80963
1.70532
1.63327
1.56436
1.46761
1.40376
1.3665
1.31947
1.24788
1.20313
1.17227
1.13599
1.08079
1.03712
1.04095
1.12626
1.47368
1.99066
2.38122
2.51897
2.44299
2.32103
2.20713
2.10757
2.02919
1.95682
1.89801
1.86774
1.8411
1.80483
1.75224
1.71736
1.69654
1.68485
1.68958
1.69678
1.70525
1.71693
1.70426
1.66418
1.64182
1.64452
1.6452
1.64274
1.64166
1.6434
1.64857
1.64506
1.625
1.58115
1.52971
1.47751
1.43906
1.41412
1.3897
1.37182
1.36519
1.35491
1.3325
1.31692
1.30345
1.28341
1.25449
1.22474
1.19954
1.17948
1.16261
1.14593
1.1278
1.11056
1.09398
1.07036
1.04592
1.0378
1.03508
1.03879
1.02787
6.07013
5.72715
5.39049
5.05742
4.74649
4.46343
4.18729
3.90249
3.66713
3.45211
3.24034
3.01703
2.82757
2.6846
2.53383
2.38542
2.2325
2.13204
2.0286
1.92039
1.80652
1.73869
1.67057
1.57706
1.49859
1.45035
1.40073
1.3404
1.29253
1.24747
1.20749
1.15071
1.17174
1.36058
1.85311
2.4113
2.74461
2.78143
2.69241
2.49767
2.32013
2.22363
2.1522
2.08704
2.02468
1.97899
1.94107
1.89212
1.83066
1.75843
1.68714
1.64653
1.62759
1.60594
1.58931
1.57891
1.55995
1.53416
1.48906
1.44781
1.42488
1.43051
1.45215
1.4746
1.4897
1.50017
1.51162
1.51678
1.5024
1.47395
1.4315
1.40897
1.39566
1.37564
1.35326
1.33839
1.32039
1.29855
1.28749
1.27842
1.26295
1.24472
1.21382
1.17637
1.15169
1.13442
1.11718
1.09819
1.08138
1.07012
1.05659
1.03114
1.01368
1.00722
1.00378
0.994167
6.14312
5.79741
5.46633
5.14235
4.85184
4.58119
4.30139
4.01995
3.79878
3.59261
3.38136
3.13691
2.96539
2.81797
2.6694
2.50515
2.36143
2.25607
2.13837
2.0298
1.91448
1.8364
1.76165
1.66734
1.59576
1.54993
1.49418
1.42499
1.36171
1.32305
1.30116
1.37735
1.74966
2.33396
2.90014
3.07351
3.00237
2.85531
2.70677
2.55157
2.40703
2.31452
2.25456
2.19501
2.13217
2.07253
2.01204
1.94239
1.865
1.78934
1.71452
1.64982
1.61166
1.58022
1.55471
1.53615
1.51248
1.4864
1.46307
1.40821
1.33079
1.29045
1.27853
1.27878
1.28326
1.29282
1.30496
1.32308
1.34828
1.3555
1.33413
1.31412
1.31319
1.30746
1.28639
1.27378
1.27057
1.27354
1.27408
1.26554
1.24312
1.21343
1.18128
1.14687
1.12588
1.11036
1.09169
1.0751
1.06429
1.0566
1.04488
1.01916
0.98459
0.972517
0.96825
0.959624
6.22344
5.90625
5.55726
5.24992
4.96102
4.69116
4.42432
4.16523
3.92447
3.70619
3.49336
3.27912
3.11202
2.94809
2.78367
2.60864
2.49116
2.38047
2.26067
2.12795
2.01302
1.94476
1.8637
1.76922
1.68254
1.63437
1.57678
1.51334
1.44849
1.46756
1.66467
2.22546
2.9219
3.22045
3.3189
3.24548
3.09545
2.91839
2.76764
2.63297
2.50345
2.39613
2.3384
2.28375
2.22698
2.16915
2.10069
2.01514
1.91981
1.8241
1.7473
1.69978
1.65803
1.61347
1.57158
1.5368
1.5048
1.47698
1.44905
1.41286
1.35187
1.2771
1.23748
1.2176
1.19423
1.17627
1.1713
1.17649
1.18686
1.18686
1.17946
1.15783
1.14618
1.15303
1.15805
1.16603
1.18207
1.20086
1.21612
1.21408
1.19898
1.17053
1.15134
1.13338
1.11268
1.08726
1.06858
1.06034
1.05488
1.04755
1.03222
0.999086
0.957528
0.940499
0.935769
0.929297
5.92104
5.97446
5.67413
5.34182
5.06657
4.80858
4.53305
4.27691
4.05672
3.84154
3.6101
3.40636
3.24168
3.0727
2.90615
2.73299
2.61381
2.48981
2.36619
2.2333
2.12482
2.04948
1.96412
1.85963
1.77793
1.72148
1.66064
1.60872
1.7254
2.16299
2.8927
3.443
3.67408
3.60687
3.46725
3.28171
3.10631
2.94992
2.83061
2.71972
2.59563
2.49514
2.43039
2.36952
2.30708
2.24176
2.16793
2.07887
1.98048
1.88896
1.81382
1.75339
1.70092
1.64963
1.60063
1.55774
1.5187
1.48424
1.45387
1.4208
1.37341
1.30209
1.23111
1.19203
1.16393
1.1433
1.1332
1.12802
1.12292
1.11136
1.09545
1.06963
1.03342
1.02016
1.01911
1.0233
1.03788
1.07251
1.11945
1.14333
1.14269
1.12167
1.08717
1.06637
1.05533
1.04852
1.05189
1.05871
1.05531
1.04468
1.0246
0.985552
0.942693
0.922426
0.915627
0.908655
4.53926
5.83243
5.80308
5.49483
5.16986
4.89963
4.65002
4.40713
4.17369
3.94306
3.71194
3.54047
3.37784
3.20243
2.9947
2.8381
2.73766
2.6129
2.4865
2.33371
2.23646
2.15475
2.06023
1.95927
1.86368
1.8074
1.83222
2.06179
2.81284
3.62941
4.06986
4.02876
3.883
3.64398
3.42718
3.26444
3.12074
2.99962
2.91513
2.83805
2.74021
2.62118
2.5117
2.42363
2.34698
2.27807
2.21013
2.13507
2.05061
1.96624
1.88886
1.81632
1.74866
1.68581
1.62743
1.57736
1.53678
1.50083
1.46911
1.4385
1.404
1.358
1.29014
1.21268
1.16593
1.13786
1.1179
1.10465
1.09168
1.07577
1.05826
1.03781
1.00862
0.977105
0.957887
0.948174
0.946958
0.951291
0.965503
0.990336
1.0079
1.00739
0.988546
0.981951
0.987846
0.99494
1.00108
1.00999
1.00838
1.00194
0.991813
0.973372
0.938216
0.916164
0.908579
0.89554
2.12715
4.79262
5.70179
5.62964
5.3267
5.02223
4.75962
4.51875
4.2963
4.07391
3.83954
3.64573
3.48411
3.32016
3.1242
2.96898
2.84668
2.71552
2.58396
2.4495
2.35833
2.26445
2.15649
2.04929
1.9847
2.09861
2.66717
3.5342
4.3129
4.48112
4.40231
4.1871
3.92577
3.67053
3.47906
3.34972
3.23961
3.13744
3.02716
2.91337
2.80344
2.69269
2.58848
2.4928
2.40058
2.31786
2.24841
2.18302
2.11171
2.02917
1.94267
1.86873
1.80915
1.75286
1.69215
1.63119
1.58002
1.53473
1.4945
1.46021
1.42473
1.38371
1.33033
1.26752
1.22058
1.18532
1.15304
1.12487
1.09923
1.07512
1.05115
1.02259
0.988605
0.95862
0.935178
0.923917
0.91777
0.910366
0.904192
0.900609
0.895409
0.887107
0.875175
0.869445
0.877274
0.894009
0.922621
0.95361
0.96605
0.964721
0.955968
0.933558
0.906177
0.883969
0.875009
0.866818
1.09837
2.45113
4.89618
5.56836
5.47808
5.17544
4.87147
4.6379
4.42086
4.18958
3.96101
3.77701
3.61207
3.4371
3.22571
3.09214
2.96751
2.83725
2.69086
2.5609
2.4675
2.35851
2.26343
2.24463
2.52852
3.43275
4.39455
4.83949
4.88334
4.72986
4.4925
4.23439
3.99018
3.77999
3.59895
3.44952
3.32439
3.21412
3.10238
2.98613
2.86975
2.75764
2.6493
2.54248
2.44379
2.36323
2.29841
2.23777
2.16883
2.08368
1.98135
1.87894
1.81987
1.78413
1.74276
1.69388
1.64375
1.594
1.54187
1.48913
1.43559
1.37981
1.32452
1.27821
1.2423
1.2161
1.19528
1.17451
1.15034
1.1212
1.0822
1.03229
0.981012
0.940465
0.921116
0.908762
0.898223
0.889639
0.883163
0.876459
0.865925
0.847011
0.813946
0.792918
0.790085
0.794201
0.807468
0.838585
0.878268
0.895205
0.893553
0.877081
0.865126
0.857142
0.848953
0.841065
1.00178
1.16342
2.6922
4.90487
5.44101
5.33928
5.038
4.74335
4.52365
4.3172
4.10845
3.9007
3.71726
3.54095
3.35883
3.22134
3.08588
2.93948
2.77635
2.65703
2.57938
2.4815
2.62187
3.33838
4.40605
5.34456
5.51592
5.27841
4.98922
4.74762
4.48455
4.24022
4.04253
3.87745
3.71934
3.56433
3.42321
3.2932
3.16432
3.04187
2.92566
2.81161
2.70251
2.60284
2.5059
2.41024
2.32888
2.26417
2.20271
2.13672
2.06022
1.95039
1.8309
1.7793
1.74591
1.707
1.6693
1.63324
1.59235
1.54649
1.49698
1.43824
1.36149
1.28326
1.23907
1.21789
1.20149
1.18772
1.1753
1.15708
1.12418
1.07435
1.01254
0.958386
0.928172
0.911028
0.896055
0.882632
0.872153
0.864057
0.855132
0.836599
0.799225
0.759708
0.751573
0.749074
0.747081
0.749501
0.762521
0.786602
0.803617
0.804455
0.802712
0.808662
0.812507
0.81292
1.00001
1.00382
1.22928
2.82918
4.89423
5.28537
5.19307
4.92083
4.64952
4.43094
4.22673
4.0284
3.85637
3.66732
3.45411
3.32682
3.20505
3.06619
2.89478
2.74778
2.76697
3.19027
4.31024
5.71079
6.00131
5.90323
5.66384
5.27204
4.94853
4.71365
4.49197
4.301
4.14482
3.99417
3.84251
3.68743
3.52533
3.36698
3.22861
3.10674
2.9922
2.87382
2.74478
2.62537
2.52856
2.44458
2.36708
2.29427
2.22964
2.17011
2.10887
2.02812
1.91157
1.80679
1.7412
1.69485
1.6653
1.63792
1.60694
1.57204
1.53183
1.47752
1.4003
1.32395
1.27618
1.24561
1.22093
1.19665
1.17079
1.14354
1.11793
1.09011
1.0501
1.00419
0.971882
0.949754
0.929056
0.907597
0.887265
0.868479
0.851642
0.833763
0.800178
0.752622
0.733433
0.728526
0.724606
0.72068
0.719185
0.720008
0.724137
0.730306
0.728539
0.729303
0.738562
0.75721
1
1.00002
1.00659
1.27817
2.93082
4.79513
5.13698
5.07788
4.83118
4.56478
4.35204
4.14819
3.96068
3.78789
3.5961
3.45479
3.29807
3.15853
3.03195
3.21071
4.11414
5.57689
6.56487
6.82379
6.61385
6.1885
5.73249
5.33892
5.01445
4.78071
4.59396
4.4157
4.24645
4.08924
3.92903
3.76487
3.60446
3.44158
3.28903
3.15883
3.0425
2.92969
2.80904
2.67822
2.55421
2.45873
2.38712
2.32641
2.26779
2.20653
2.14231
2.06647
1.96139
1.84037
1.75177
1.71197
1.68745
1.66389
1.63536
1.59402
1.53783
1.47072
1.3964
1.34488
1.32306
1.30107
1.27067
1.23926
1.20759
1.17504
1.13841
1.09724
1.05911
1.02076
0.975118
0.936819
0.914137
0.900601
0.891828
0.877764
0.856609
0.834127
0.806271
0.760731
0.730374
0.722923
0.718101
0.711593
0.704987
0.70001
0.695547
0.690793
0.680891
0.665802
0.662859
0.677151
1
1
1.00004
1.00936
1.31322
2.97188
4.59478
5.03188
4.99008
4.75741
4.48062
4.2641
4.08859
3.90441
3.71962
3.56448
3.42193
3.38739
3.87847
5.43977
6.93028
7.51983
7.26303
6.91177
6.51661
6.10907
5.77709
5.47638
5.1805
4.91982
4.70063
4.50256
4.31744
4.14058
3.9665
3.79469
3.63241
3.4845
3.34372
3.21171
3.09356
2.98242
2.86519
2.74187
2.61051
2.48781
2.39932
2.34087
2.29668
2.23952
2.16218
2.07962
1.9799
1.86476
1.78667
1.74597
1.70879
1.66836
1.63589
1.60195
1.55323
1.48432
1.41921
1.36829
1.3276
1.28907
1.25014
1.21858
1.19211
1.16424
1.13938
1.12215
1.09947
1.05878
0.995098
0.941595
0.915454
0.905842
0.898583
0.892741
0.883911
0.866095
0.833148
0.779832
0.737997
0.727762
0.721311
0.712286
0.703329
0.696116
0.688987
0.68141
0.666805
0.638659
0.623037
0.625338
1
1
1
1.00007
1.0114
1.33432
2.84739
4.46506
4.95889
4.91039
4.67368
4.41165
4.20974
4.0003
3.83726
3.691
3.90087
5.08126
7.01032
8.4074
8.34896
7.96926
7.38809
6.84078
6.40795
6.05199
5.79848
5.56923
5.32744
5.0801
4.83284
4.5967
4.38102
4.18131
3.99516
3.82713
3.67498
3.53253
3.39519
3.26311
3.13754
3.02425
2.92384
2.80181
2.65717
2.53087
2.44345
2.36278
2.30497
2.2703
2.22722
2.14944
2.04497
1.92042
1.8042
1.75043
1.73067
1.70676
1.66605
1.60845
1.55989
1.53346
1.49295
1.42733
1.36024
1.30422
1.25571
1.22245
1.19783
1.17656
1.15693
1.13215
1.09357
1.04317
1.00333
0.966391
0.951075
0.942358
0.931486
0.914596
0.890409
0.858931
0.81478
0.76424
0.750036
0.749456
0.746375
0.735103
0.723495
0.714211
0.703873
0.689762
0.665216
0.625431
0.605932
0.603407
1
1
1
1
1.00009
1.01219
1.31395
2.67414
4.41035
4.83721
4.7777
4.58756
4.33119
4.09505
4.001
4.64475
6.78131
8.8382
9.18989
8.87996
8.30441
7.83942
7.38442
6.93691
6.55001
6.21685
5.93051
5.66981
5.41615
5.16288
4.91654
4.68413
4.46315
4.25015
4.05266
3.87861
3.72824
3.60007
3.48047
3.3523
3.21229
3.06413
2.90158
2.75018
2.6546
2.59563
2.52693
2.4409
2.35851
2.2862
2.20465
2.119
2.03717
1.9607
1.8723
1.79282
1.73034
1.68225
1.64181
1.60214
1.56736
1.52671
1.46929
1.38628
1.31429
1.28949
1.27825
1.26352
1.24722
1.22772
1.20177
1.16658
1.11547
1.04385
0.980845
0.946759
0.93438
0.926957
0.919299
0.907654
0.887197
0.85587
0.811953
0.777181
0.761436
0.749902
0.73842
0.726908
0.716383
0.706036
0.692865
0.673686
0.644757
0.608838
0.596998
0.5929
1
1
1
1
1
1.00009
1.01141
1.26581
2.57018
4.24719
4.67693
4.63885
4.47877
4.5659
5.74465
8.52505
10.5336
10.6599
10.1207
9.07857
8.24728
7.73142
7.38488
7.04311
6.6874
6.34125
6.01533
5.71715
5.44622
5.18912
4.94188
4.70779
4.48485
4.27603
4.08939
3.92293
3.77054
3.63006
3.49403
3.35712
3.2206
3.07392
2.91907
2.79189
2.691
2.59306
2.5073
2.43358
2.36248
2.28585
2.20834
2.13879
2.06269
1.96186
1.86366
1.79258
1.73545
1.69032
1.65324
1.61995
1.58371
1.53895
1.47517
1.38503
1.32145
1.29402
1.26902
1.25041
1.23478
1.21538
1.19043
1.15857
1.11103
1.03936
0.980759
0.951444
0.939908
0.932885
0.925802
0.913069
0.893088
0.864467
0.826069
0.79096
0.770847
0.757007
0.744653
0.733091
0.722251
0.711132
0.697696
0.677422
0.646188
0.609067
0.596336
0.590379
1
1
1
1
1
1
1.00009
1.00908
1.23201
2.44589
3.90799
4.47409
5.43978
7.57658
10.0618
11.2252
10.9784
10.3526
9.74117
9.13629
8.51072
7.94509
7.54498
7.18667
6.85539
6.54175
6.23134
5.93045
5.64429
5.36881
5.10828
4.86582
4.63898
4.42887
4.23697
4.05939
3.89332
3.73898
3.59291
3.45176
3.31147
3.16813
3.03037
2.90305
2.77838
2.66231
2.57107
2.49238
2.41663
2.34819
2.28736
2.22105
2.12976
2.0122
1.9017
1.82721
1.78117
1.74455
1.70991
1.67486
1.63573
1.58639
1.51443
1.42463
1.35711
1.31685
1.29163
1.27453
1.25681
1.2357
1.21042
1.17761
1.12731
1.05859
1.00789
0.984109
0.97486
0.967831
0.957571
0.940992
0.919452
0.892847
0.855226
0.813971
0.791968
0.78023
0.769586
0.758945
0.748097
0.73596
0.720533
0.696382
0.660426
0.621992
0.606949
0.598544
1
1
1
1
1
1
1
1.00007
1.00781
1.20979
2.41374
5.14544
9.4205
14.1431
15.7732
13.9106
11.5667
10.0837
9.29956
8.90545
8.45033
7.94135
7.44271
7.0411
6.70618
6.40427
6.11013
5.82363
5.54338
5.26454
4.99517
4.74458
4.51562
4.30902
4.12297
3.95095
3.78652
3.62924
3.48197
3.34596
3.21576
3.08431
2.95108
2.81828
2.6901
2.58066
2.49638
2.42013
2.34413
2.27452
2.21304
2.14803
2.0617
1.94864
1.83769
1.76778
1.72661
1.69104
1.65476
1.61774
1.57948
1.53342
1.46709
1.38341
1.31154
1.26716
1.24621
1.23222
1.21596
1.19582
1.17097
1.13748
1.08697
1.02239
0.97353
0.951769
0.943698
0.938088
0.928927
0.91355
0.892509
0.865422
0.825364
0.784536
0.767166
0.75779
0.747993
0.737301
0.725964
0.713511
0.698165
0.673685
0.637745
0.604132
0.588956
0.578537
)
;

boundaryField
{
    inlet
    {
        type            fixedValue;
        value           uniform 1;
    }
    outlet
    {
        type            zeroGradient;
    }
    bottom
    {
        type            symmetryPlane;
    }
    top
    {
        type            symmetryPlane;
    }
    obstacle
    {
        type            zeroGradient;
    }
    defaultFaces
    {
        type            empty;
    }
}


// ************************************************************************* //
