/*--------------------------------*- C++ -*----------------------------------*\
  =========                 |
  \\      /  F ield         | OpenFOAM: The Open Source CFD Toolbox
   \\    /   O peration     | Website:  https://openfoam.org
    \\  /    A nd           | Version:  7
     \\/     M anipulation  |
\*---------------------------------------------------------------------------*/
FoamFile
{
    version     2.0;
    format      ascii;
    class       volScalarField;
    location    "0.9";
    object      p;
}
// * * * * * * * * * * * * * * * * * * * * * * * * * * * * * * * * * * * * * //

dimensions      [1 -1 -2 0 0 0 0];

internalField   nonuniform List<scalar> 
258048
(
1
1
1
1
1
1
1
1
1
1
1
1
1
1
1
1
1
1
1
1
1
1
1
1
1
1
1
1
1
1
1
1
1
1
1
1
1
1
1
1
1
1
1
1
1
1
1
1
1
1
1
1
1
1
1
1
1
1
1
1
1
1
1
1
1
1
1
1
1
1
1
1
1
1
1
1
1
1
1
1
1
1
1
1
1
1
1
1
1
1
1
1
1
1
1
1
1
1
1
1
1
1
1
1
1
1
1
1
1
1
2.36469
9.38815
10.746
10.7324
10.731
10.744
10.7901
10.8678
10.9612
11.0444
11.0962
11.1356
11.1507
11.1553
11.1587
11.1793
11.232
11.3407
11.4398
11.5001
11.517
11.5037
11.4695
11.4342
11.4148
11.4187
11.4487
11.5023
11.5756
11.6503
11.7029
11.7304
11.741
11.741
11.734
11.7236
11.7079
11.6879
11.6723
11.6634
11.6721
11.7216
11.7934
11.8702
11.9363
11.9876
12.0258
12.052
12.0682
12.0773
12.0784
12.0753
12.0617
12.0382
12.0192
12.0157
12.0269
12.0662
12.124
12.1688
12.1926
12.1964
12.1842
12.1709
12.1669
12.1708
12.1831
12.1979
12.2074
12.2087
12.2049
12.1953
12.1865
12.1848
12.1962
12.2202
12.2504
12.2796
12.3042
12.3241
12.335
12.3435
1
1
1
1
1
1
1
1
1
1
1
1
1
1
1
1
1
1
1
1
1
1
1
1
1
1
1
1
1
1
1
1
1
1
1
1
1
1
1
1
1
1
1
1
1
1
1
1
1
1
1
1
1
1
1
1
1
1
1
1
1
1
1
1
1
1
1
1
1
1
1
1
1
1
1
1
1
1
1
1
1
1
1
1
1
1
1
1
1
1
1
1
1
1
1
1
1
1
1
1
1
1
1
1
1
1
1
1
1
1
2.35363
9.37085
10.7473
10.7168
10.7285
10.7425
10.7906
10.862
10.9604
11.0455
11.1019
11.1414
11.1543
11.1542
11.1577
11.1778
11.232
11.3403
11.4399
11.5002
11.5166
11.5035
11.4697
11.4342
11.4154
11.4197
11.45
11.5033
11.5763
11.6507
11.703
11.7301
11.7404
11.7402
11.7332
11.7233
11.7079
11.6882
11.6728
11.6638
11.6724
11.7219
11.7936
11.8704
11.9364
11.9872
12.0248
12.0504
12.0664
12.0757
12.0775
12.0753
12.0624
12.0391
12.0201
12.0161
12.0267
12.0652
12.1225
12.1673
12.1914
12.1953
12.183
12.1695
12.1655
12.1697
12.1827
12.1979
12.2077
12.2089
12.2047
12.1949
12.1857
12.184
12.1955
12.22
12.2506
12.2798
12.3042
12.323
12.3332
12.3409
1
1
1
1
1
1
1
1
1
1
1
1
1
1
1
1
1
1
1
1
1
1
1
1
1
1
1
1
1
1
1
1
1
1
1
1
1
1
1
1
1
1
1
1
1
1
1
1
1
1
1
1
1
1
1
1
1
1
1
1
1
1
1
1
1
1
1
1
1
1
1
1
1
1
1
1
1
1
1
1
1
1
1
1
1
1
1
1
1
1
1
1
1
1
1
1
1
1
1
1
1
1
1
1
1
1
1
1
1
1
2.32192
9.33745
10.7411
10.7053
10.7252
10.7409
10.7909
10.8583
10.9618
11.0479
11.1087
11.1477
11.1581
11.152
11.155
11.1749
11.2312
11.3394
11.4399
11.5
11.5157
11.5021
11.4686
11.4327
11.4144
11.4192
11.4497
11.5026
11.5753
11.6496
11.7018
11.7285
11.7384
11.738
11.7311
11.7217
11.707
11.6879
11.6727
11.6637
11.6721
11.7216
11.7936
11.8706
11.9367
11.9871
12.0237
12.0484
12.0639
12.0733
12.0758
12.0747
12.0629
12.0402
12.0213
12.0169
12.0265
12.0636
12.1204
12.1651
12.1895
12.1937
12.1814
12.1675
12.1632
12.1677
12.1815
12.1975
12.2079
12.2093
12.2048
12.1945
12.1847
12.1826
12.1941
12.2189
12.25
12.2796
12.3036
12.3215
12.3306
12.3372
1
1
1
1
1
1
1
1
1
1
1
1
1
1
1
1
1
1
1
1
1
1
1
1
1
1
1
1
1
1
1
1
1
1
1
1
1
1
1
1
1
1
1
1
1
1
1
1
1
1
1
1
1
1
1
1
1
1
1
1
1
1
1
1
1
1
1
1
1
1
1
1
1
1
1
1
1
1
1
1
1
1
1
1
1
1
1
1
1
1
1
1
1
1
1
1
1
1
1
1
1
1
1
1
1
1
1
1
1
1
2.27233
9.2836
10.7359
10.6967
10.7196
10.7366
10.7873
10.8569
10.9652
11.0542
11.1188
11.1546
11.1619
11.1495
11.1515
11.1714
11.2299
11.3383
11.4397
11.4994
11.5139
11.4997
11.4669
11.4311
11.4137
11.4193
11.4498
11.5021
11.5744
11.6485
11.7003
11.7265
11.7359
11.7352
11.7286
11.7199
11.706
11.6874
11.6724
11.6631
11.6713
11.7209
11.7933
11.8711
11.9373
11.9873
12.0227
12.0459
12.0605
12.07
12.0732
12.0737
12.0633
12.0414
12.0224
12.0174
12.0259
12.0615
12.1174
12.1618
12.1866
12.1909
12.1786
12.1644
12.16
12.165
12.1796
12.1966
12.2078
12.2097
12.2047
12.1939
12.1833
12.1807
12.1921
12.2172
12.2488
12.2786
12.3024
12.3191
12.3273
12.3328
1
1
1
1
1
1
1
1
1
1
1
1
1
1
1
1
1
1
1
1
1
1
1
1
1
1
1
1
1
1
1
1
1
1
1
1
1
1
1
1
1
1
1
1
1
1
1
1
1
1
1
1
1
1
1
1
1
1
1
1
1
1
1
1
1
1
1
1
1
1
1
1
1
1
1
1
1
1
1
1
1
1
1
1
1
1
1
1
1
1
1
1
1
1
1
1
1
1
1
1
1
1
1
1
1
1
1
1
1
1
2.20421
9.20357
10.7309
10.6908
10.7115
10.7295
10.7798
10.8583
10.9718
11.0646
11.1315
11.1611
11.1648
11.1464
11.1475
11.1676
11.2279
11.3371
11.439
11.4979
11.5111
11.4962
11.4644
11.4289
11.4131
11.4195
11.4499
11.5014
11.5731
11.6466
11.6979
11.7234
11.7325
11.7317
11.7254
11.7175
11.7045
11.6863
11.6714
11.6616
11.6694
11.7192
11.7925
11.8713
11.9382
11.9878
12.0219
12.0432
12.0566
12.066
12.07
12.0719
12.0632
12.042
12.0231
12.0175
12.025
12.0591
12.114
12.158
12.1828
12.1871
12.1749
12.1606
12.1561
12.1616
12.1772
12.1953
12.2075
12.2098
12.2045
12.1932
12.1818
12.1784
12.1895
12.2146
12.2464
12.2764
12.3
12.3161
12.3238
12.3284
1
1
1
1
1
1
1
1
1
1
1
1
1
1
1
1
1
1
1
1
1
1
1
1
1
1
1
1
1
1
1
1
1
1
1
1
1
1
1
1
1
1
1
1
1
1
1
1
1
1
1
1
1
1
1
1
1
1
1
1
1
1
1
1
1
1
1
1
1
1
1
1
1
1
1
1
1
1
1
1
1
1
1
1
1
1
1
1
1
1
1
1
1
1
1
1
1
1
1
1
1
1
1
1
1
1
1
1
1
1
2.11737
9.0954
10.7269
10.6865
10.7013
10.72
10.7699
10.8638
10.9832
11.0799
11.1459
11.1679
11.166
11.142
11.1429
11.1636
11.2256
11.3358
11.4377
11.4954
11.5069
11.4915
11.4612
11.4266
11.4128
11.42
11.4501
11.5005
11.571
11.6437
11.6942
11.7192
11.728
11.7275
11.7219
11.7149
11.7026
11.6847
11.6696
11.6591
11.6663
11.7164
11.7908
11.8712
11.9391
11.9886
12.0213
12.0404
12.0525
12.0618
12.0666
12.0697
12.0625
12.042
12.0228
12.0168
12.0235
12.0561
12.1101
12.1536
12.1781
12.1823
12.1702
12.156
12.1517
12.1579
12.1745
12.1935
12.2065
12.2095
12.2042
12.1924
12.1803
12.176
12.1863
12.2109
12.2424
12.2724
12.2962
12.3125
12.3204
12.3249
1
1
1
1
1
1
1
1
1
1
1
1
1
1
1
1
1
1
1
1
1
1
1
1
1
1
1
1
1
1
1
1
1
1
1
1
1
1
1
1
1
1
1
1
1
1
1
1
1
1
1
1
1
1
1
1
1
1
1
1
1
1
1
1
1
1
1
1
1
1
1
1
1
1
1
1
1
1
1
1
1
1
1
1
1
1
1
1
1
1
1
1
1
1
1
1
1
1
1
1
1
1
1
1
1
1
1
1
1
1
2.01407
8.95626
10.7216
10.6825
10.6904
10.7085
10.762
10.8752
11.0005
11.0991
11.1591
11.175
11.164
11.1365
11.1379
11.1597
11.2237
11.3347
11.436
11.4917
11.501
11.4856
11.4572
11.4239
11.4127
11.4206
11.4503
11.4992
11.5681
11.6396
11.6891
11.7136
11.7225
11.7226
11.718
11.7121
11.7005
11.6826
11.6668
11.6555
11.6622
11.7125
11.7883
11.8708
11.9399
11.9893
12.0205
12.0372
12.0482
12.0576
12.0634
12.0675
12.0612
12.0411
12.0214
12.0147
12.0208
12.0524
12.1056
12.1486
12.1727
12.1768
12.1649
12.1509
12.1471
12.1539
12.1712
12.191
12.2049
12.2086
12.2036
12.1917
12.179
12.1736
12.1826
12.206
12.2368
12.2667
12.291
12.3083
12.3172
12.3224
1
1
1
1
1
1
1
1
1
1
1
1
1
1
1
1
1
1
1
1
1
1
1
1
1
1
1
1
1
1
1
1
1
1
1
1
1
1
1
1
1
1
1
1
1
1
1
1
1
1
1
1
1
1
1
1
1
1
1
1
1
1
1
1
1
1
1
1
1
1
1
1
1
1
1
1
1
1
1
1
1
1
1
1
1
1
1
1
1
1
1
1
1
1
1
1
1
1
1
1
1
1
1
1
1
1
1
1
1
1
1.89768
8.78178
10.713
10.6806
10.6806
10.694
10.7626
10.8939
11.0236
11.1205
11.169
11.1811
11.16
11.1311
11.1332
11.1564
11.2224
11.3334
11.4329
11.486
11.4932
11.4787
11.4531
11.4217
11.4131
11.4216
11.4505
11.4977
11.5643
11.634
11.6821
11.7061
11.7155
11.7168
11.7139
11.7093
11.6983
11.6802
11.6633
11.6511
11.6576
11.7079
11.7855
11.8701
11.9403
11.9894
12.019
12.0335
12.0435
12.0535
12.0606
12.0658
12.0601
12.0396
12.0186
12.011
12.0166
12.0475
12.1002
12.1428
12.1667
12.1708
12.1592
12.1454
12.1421
12.1496
12.1674
12.1877
12.2026
12.2073
12.2028
12.1912
12.178
12.1714
12.1784
12.1999
12.2294
12.2592
12.2844
12.3035
12.3143
12.321
1
1
1
1
1
1
1
1
1
1
1
1
1
1
1
1
1
1
1
1
1
1
1
1
1
1
1
1
1
1
1
1
1
1
1
1
1
1
1
1
1
1
1
1
1
1
1
1
1
1
1
1
1
1
1
1
1
1
1
1
1
1
1
1
1
1
1
1
1
1
1
1
1
1
1
1
1
1
1
1
1
1
1
1
1
1
1
1
1
1
1
1
1
1
1
1
1
1
1
1
1
1
1
1
1
1
1
1
1
1
1.77071
8.56877
10.7045
10.6796
10.6714
10.6811
10.7758
10.9209
11.0502
11.1407
11.175
11.1839
11.1548
11.1258
11.1291
11.1537
11.2212
11.3314
11.4281
11.4785
11.4843
11.4718
11.449
11.42
11.4139
11.4227
11.4505
11.4954
11.5593
11.6267
11.6731
11.6969
11.7071
11.7102
11.7094
11.7065
11.6962
11.6778
11.6593
11.6461
11.6529
11.7032
11.7828
11.8695
11.9402
11.9885
12.0162
12.0285
12.0381
12.0491
12.0581
12.0648
12.0596
12.038
12.0151
12.0059
12.0105
12.0407
12.0933
12.1362
12.1602
12.1646
12.1534
12.1398
12.1368
12.1447
12.1629
12.1836
12.1996
12.2055
12.2019
12.1909
12.1773
12.1692
12.1738
12.1927
12.2205
12.2503
12.2766
12.2982
12.3112
12.32
1
1
1
1
1
1
1
1
1
1
1
1
1
1
1
1
1
1
1
1
1
1
1
1
1
1
1
1
1
1
1
1
1
1
1
1
1
1
1
1
1
1
1
1
1
1
1
1
1
1
1
1
1
1
1
1
1
1
1
1
1
1
1
1
1
1
1
1
1
1
1
1
1
1
1
1
1
1
1
1
1
1
1
1
1
1
1
1
1
1
1
1
1
1
1
1
1
1
1
1
1
1
1
1
1
1
1
1
1
1
1.63606
8.31406
10.6988
10.6778
10.6626
10.6821
10.8029
10.9534
11.0764
11.1553
11.1769
11.1806
11.1493
11.1215
11.1262
11.1519
11.22
11.3285
11.421
11.4686
11.4744
11.465
11.445
11.4189
11.415
11.4239
11.4503
11.4926
11.5532
11.618
11.6625
11.686
11.6974
11.7026
11.7043
11.7033
11.694
11.6754
11.6551
11.6409
11.6486
11.6994
11.781
11.869
11.9397
11.9863
12.0115
12.0218
12.0314
12.0441
12.0559
12.0647
12.06
12.0368
12.0111
11.9994
12.0026
12.0319
12.0848
12.1286
12.1533
12.1584
12.1476
12.1341
12.1311
12.139
12.1574
12.1785
12.196
12.2035
12.2012
12.1908
12.1768
12.167
12.1688
12.1847
12.2106
12.2403
12.2681
12.2924
12.3076
12.3188
1
1
1
1
1
1
1
1
1
1
1
1
1
1
1
1
1
1
1
1
1
1
1
1
1
1
1
1
1
1
1
1
1
1
1
1
1
1
1
1
1
1
1
1
1
1
1
1
1
1
1
1
1
1
1
1
1
1
1
1
1
1
1
1
1
1
1
1
1
1
1
1
1
1
1
1
1
1
1
1
1
1
1
1
1
1
1
1
1
1
1
1
1
1
1
1
1
1
1
1
1
1
1
1
1
1
1
1
1
1
1.49756
8.01124
10.6762
10.6729
10.6655
10.7071
10.8394
10.9872
11.0964
11.1617
11.1742
11.1734
11.1454
11.1198
11.1245
11.1505
11.2175
11.3232
11.4107
11.4563
11.4639
11.4587
11.4408
11.4184
11.4165
11.4253
11.45
11.489
11.5457
11.6074
11.65
11.6734
11.6864
11.6941
11.6986
11.6996
11.6913
11.6726
11.6509
11.6358
11.6451
11.6968
11.7802
11.8691
11.9387
11.9826
12.0049
12.013
12.0231
12.0381
12.0533
12.065
12.0611
12.0363
12.0073
11.9921
11.9931
12.0211
12.0744
12.1198
12.1459
12.1523
12.1421
12.1284
12.1248
12.1324
12.1508
12.1724
12.1917
12.2013
12.2006
12.191
12.1764
12.1644
12.1632
12.1762
12.2002
12.2299
12.259
12.2859
12.3031
12.3166
1
1
1
1
1
1
1
1
1
1
1
1
1
1
1
1
1
1
1
1
1
1
1
1
1
1
1
1
1
1
1
1
1
1
1
1
1
1
1
1
1
1
1
1
1
1
1
1
1
1
1
1
1
1
1
1
1
1
1
1
1
1
1
1
1
1
1
1
1
1
1
1
1
1
1
1
1
1
1
1
1
1
1
1
1
1
1
1
1
1
1
1
1
1
1
1
1
1
1
1
1
1
1
1
1
1
1
1
1
1
1.35819
7.65952
10.6498
10.6802
10.6936
10.754
10.8779
11.0142
11.1063
11.1592
11.1664
11.1629
11.1435
11.1204
11.1237
11.1495
11.2135
11.3155
11.3978
11.4421
11.4532
11.4525
11.4364
11.4186
11.4183
11.4267
11.4491
11.4845
11.5365
11.5951
11.6363
11.6601
11.6747
11.6849
11.692
11.6951
11.6877
11.6691
11.6462
11.6309
11.6424
11.6956
11.7806
11.8699
11.9375
11.978
11.9966
12.0025
12.013
12.0307
12.0501
12.0653
12.0626
12.0363
12.0037
11.9846
11.9826
12.0087
12.0625
12.1097
12.138
12.146
12.1367
12.1225
12.1179
12.1247
12.143
12.1654
12.1869
12.1991
12.2
12.1913
12.1759
12.1615
12.1571
12.1673
12.1897
12.2194
12.2497
12.2787
12.2972
12.3127
1
1
1
1
1
1
1
1
1
1
1
1
1
1
1
1
1
1
1
1
1
1
1
1
1
1
1
1
1
1
1
1
1
1
1
1
1
1
1
1
1
1
1
1
1
1
1
1
1
1
1
1
1
1
1
1
1
1
1
1
1
1
1
1
1
1
1
1
1
1
1
1
1
1
1
1
1
1
1
1
1
1
1
1
1
1
1
1
1
1
1
1
1
1
1
1
1
1
1
1
1
1
1
1
1
1
1
1
1
1
1.21517
7.27805
10.6389
10.7153
10.7477
10.8043
10.9082
11.023
11.1051
11.1506
11.1591
11.154
11.141
11.1224
11.123
11.1475
11.2069
11.3049
11.3827
11.427
11.4425
11.4461
11.4318
11.4199
11.4209
11.4281
11.4476
11.4786
11.5254
11.581
11.6214
11.6463
11.6629
11.6753
11.6848
11.6895
11.6827
11.6644
11.6406
11.626
11.6405
11.6956
11.7821
11.871
11.9362
11.9726
11.9871
11.9905
12.0013
12.0217
12.0456
12.0648
12.0638
12.0363
12.0004
11.9771
11.9718
11.9954
12.0493
12.0984
12.1292
12.1395
12.1312
12.1165
12.1104
12.1161
12.1342
12.1576
12.182
12.197
12.1996
12.1915
12.1749
12.1578
12.1502
12.1578
12.1789
12.2089
12.2402
12.2708
12.2899
12.3068
1
1
1
1
1
1
1
1
1
1
1
1
1
1
1
1
1
1
1
1
1
1
1
1
1
1
1
1
1
1
1
1
1
1
1
1
1
1
1
1
1
1
1
1
1
1
1
1
1
1
1
1
1
1
1
1
1
1
1
1
1
1
1
1
1
1
1
1
1
1
1
1
1
1
1
1
1
1
1
1
1
1
1
1
1
1
1
1
1
1
1
1
1
1
1
1
1
1
1
1
1
1
1
1
1
1
1
1
1
1
1.06707
6.92447
10.6961
10.7592
10.7895
10.8333
10.9177
11.0168
11.0976
11.1405
11.1538
11.148
11.1362
11.1224
11.1212
11.1438
11.1981
11.2917
11.3664
11.4117
11.4318
11.4393
11.4274
11.4227
11.4243
11.4293
11.4451
11.471
11.5122
11.5652
11.6059
11.6329
11.6517
11.6661
11.6773
11.6831
11.6767
11.6583
11.6341
11.6211
11.6392
11.6968
11.7842
11.872
11.9346
11.9667
11.9765
11.9777
11.9884
12.0115
12.0397
12.0629
12.0639
12.0359
11.997
11.9697
11.9612
11.982
12.0355
12.0862
12.1195
12.1321
12.1251
12.11
12.1022
12.1065
12.1247
12.1494
12.177
12.1952
12.1993
12.1915
12.1734
12.1532
12.1422
12.1475
12.1678
12.1984
12.2305
12.2621
12.2811
12.2987
1
1
1
1
1
1
1
1
1
1
1
1
1
1
1
1
1
1
1
1
1
1
1
1
1
1
1
1
1
1
1
1
1
1
1
1
1
1
1
1
1
1
1
1
1
1
1
1
1
1
1
1
1
1
1
1
1
1
1
1
1
1
1
1
1
1
1
1
1
1
1
1
1
1
1
1
1
1
1
1
1
1
1
1
1
1
1
1
1
1
1
1
1
1
1
1
1
1
1
1
1
1
1
1
1
1
1
1
1
1
1.0011
6.59836
10.7254
10.7877
10.8062
10.8405
10.908
11.0021
11.0855
11.1279
11.1468
11.1444
11.1317
11.1188
11.1183
11.1388
11.1875
11.276
11.3492
11.3966
11.4214
11.4328
11.4246
11.4268
11.4285
11.4299
11.441
11.4611
11.4967
11.5479
11.59
11.6198
11.6412
11.6573
11.6699
11.6763
11.6696
11.6509
11.6265
11.616
11.6384
11.6986
11.7865
11.8725
11.932
11.9601
11.9652
11.9642
11.975
12.0008
12.0329
12.0593
12.0623
12.0343
11.9931
11.9624
11.951
11.9691
12.0214
12.0732
12.1088
12.1237
12.1183
12.1027
12.0932
12.0962
12.1146
12.141
12.1722
12.1934
12.199
12.1911
12.1711
12.1477
12.1332
12.1362
12.1562
12.1876
12.2206
12.2526
12.2711
12.2889
1
1
1
1
1
1
1
1
1
1
1
1
1
1
1
1
1
1
1
1
1
1
1
1
1
1
1
1
1
1
1
1
1
1
1
1
1
1
1
1
1
1
1
1
1
1
1
1
1
1
1
1
1
1
1
1
1
1
1
1
1
1
1
1
1
1
1
1
1
1
1
1
1
1
1
1
1
1
1
1
1
1
1
1
1
1
1
1
1
1
1
1
1
1
1
1
1
1
1
1
1
1
1
1
1
1
1
1
1
1
1
6.24048
10.7226
10.8015
10.8005
10.8327
10.893
10.9872
11.0712
11.1142
11.1374
11.142
11.1287
11.1124
11.1148
11.1329
11.1764
11.2581
11.3315
11.3817
11.4114
11.4273
11.4249
11.4319
11.4326
11.4292
11.4347
11.4484
11.4796
11.5299
11.5742
11.6072
11.6311
11.6491
11.6628
11.6695
11.6621
11.6426
11.6183
11.6114
11.6385
11.701
11.7884
11.8719
11.9279
11.9521
11.9528
11.95
11.9616
11.9902
12.0258
12.0545
12.0587
12.0307
11.9879
11.9546
11.9412
11.9566
12.0074
12.0599
12.0971
12.1142
12.1103
12.0945
12.0834
12.0852
12.1042
12.1328
12.1677
12.192
12.1987
12.1903
12.168
12.141
12.1229
12.1236
12.1435
12.1762
12.2104
12.2429
12.2608
12.2784
1
1
1
1
1
1
1
1
1
1
1
1
1
1
1
1
1
1
1
1
1
1
1
1
1
1
1
1
1
1
1
1
1
1
1
1
1
1
1
1
1
1
1
1
1
1
1
1
1
1
1
1
1
1
1
1
1
1
1
1
1
1
1
1
1
1
1
1
1
1
1
1
1
1
1
1
1
1
1
1
1
1
1
1
1
1
1
1
1
1
1
1
1
1
1
1
1
1
1
1
1
1
1
1
1
1
1
1
1
1
1
5.873
10.7071
10.7956
10.7832
10.8202
10.8775
10.9713
11.054
11.1004
11.1266
11.1372
11.1271
11.1062
11.1118
11.1261
11.1643
11.2387
11.3134
11.367
11.4018
11.4236
11.429
11.4377
11.4354
11.4266
11.4256
11.433
11.4618
11.5122
11.5591
11.5946
11.6208
11.6409
11.656
11.6628
11.6545
11.6338
11.6102
11.6081
11.6395
11.7036
11.7895
11.8698
11.9218
11.9418
11.9388
11.9351
11.9484
11.9804
12.019
12.0489
12.0534
12.0251
11.9811
11.946
11.9313
11.9446
11.9933
12.0464
12.0847
12.1036
12.1011
12.0849
12.0725
12.0735
12.0936
12.125
12.1636
12.1907
12.1983
12.1889
12.164
12.1334
12.1113
12.1095
12.1293
12.1634
12.1993
12.2326
12.2506
12.268
1
1
1
1
1
1
1
1
1
1
1
1
1
1
1
1
1
1
1
1
1
1
1
1
1
1
1
1
1
1
1
1
1
1
1
1
1
1
1
1
1
1
1
1
1
1
1
1
1
1
1
1
1
1
1
1
1
1
1
1
1
1
1
1
1
1
1
1
1
1
1
1
1
1
1
1
1
1
1
1
1
1
1
1
1
1
1
1
1
1
1
1
1
1
1
1
1
1
1
1
1
1
1
1
1
1
1
1
1
1
1
5.49897
10.6777
10.7842
10.7659
10.8065
10.8625
10.9539
11.0354
11.0875
11.1177
11.1322
11.1242
11.1043
11.1093
11.1155
11.1503
11.2188
11.2951
11.3536
11.3943
11.421
11.4358
11.4435
11.4359
11.4211
11.4135
11.4159
11.444
11.4952
11.5444
11.5817
11.6101
11.6325
11.6493
11.6562
11.6471
11.6254
11.6035
11.6069
11.642
11.7063
11.7893
11.8657
11.9131
11.9288
11.9229
11.9193
11.9357
11.9717
12.0132
12.0432
12.0469
12.0176
11.9723
11.9359
11.9206
11.9323
11.9791
12.0329
12.0719
12.0922
12.0906
12.0741
12.0605
12.0613
12.0828
12.1175
12.1599
12.1896
12.1978
12.1869
12.1592
12.1247
12.0986
12.0941
12.1136
12.1491
12.1871
12.2219
12.2407
12.2584
1
1
1
1
1
1
1
1
1
1
1
1
1
1
1
1
1
1
1
1
1
1
1
1
1
1
1
1
1
1
1
1
1
1
1
1
1
1
1
1
1
1
1
1
1
1
1
1
1
1
1
1
1
1
1
1
1
1
1
1
1
1
1
1
1
1
1
1
1
1
1
1
1
1
1
1
1
1
1
1
1
1
1
1
1
1
1
1
1
1
1
1
1
1
1
1
1
1
1
1
1
1
1
1
1
1
1
1
1
1
1
5.10717
10.6308
10.7772
10.7503
10.7906
10.8475
10.9336
11.0159
11.076
11.1121
11.1311
11.1179
11.1069
11.1043
11.1012
11.1353
11.1987
11.2771
11.3428
11.3903
11.4203
11.4424
11.4474
11.4323
11.4117
11.3985
11.3986
11.427
11.4791
11.5297
11.5682
11.5987
11.6237
11.6423
11.6493
11.6396
11.6179
11.5993
11.6085
11.6461
11.7086
11.7876
11.8594
11.9016
11.9126
11.9051
11.9029
11.9233
11.964
12.0082
12.0378
12.04
12.0088
11.9618
11.9242
11.9086
11.9193
11.9645
12.0191
12.059
12.0802
12.0792
12.0621
12.0475
12.0482
12.0717
12.1102
12.1564
12.1886
12.1969
12.1842
12.1535
12.1152
12.085
12.0775
12.0965
12.1334
12.1737
12.2105
12.2309
12.2494
1
1
1
1
1
1
1
1
1
1
1
1
1
1
1
1
1
1
1
1
1
1
1
1
1
1
1
1
1
1
1
1
1
1
1
1
1
1
1
1
1
1
1
1
1
1
1
1
1
1
1
1
1
1
1
1
1
1
1
1
1
1
1
1
1
1
1
1
1
1
1
1
1
1
1
1
1
1
1
1
1
1
1
1
1
1
1
1
1
1
1
1
1
1
1
1
1
1
1
1
1
1
1
1
1
1
1
1
1
1
1
4.70035
10.5568
10.7703
10.7375
10.7751
10.8334
10.9138
10.9987
11.0651
11.108
11.1303
11.1096
11.1068
11.0947
11.0873
11.1202
11.18
11.261
11.3355
11.3897
11.4229
11.4464
11.4465
11.4235
11.3979
11.3823
11.3827
11.4111
11.4631
11.5142
11.5539
11.5868
11.6145
11.6346
11.6416
11.632
11.6117
11.599
11.6132
11.6511
11.71
11.7838
11.8506
11.8876
11.8939
11.8858
11.8861
11.9112
11.9569
12.0035
12.0328
12.0332
11.9993
11.95
11.9107
11.8948
11.9048
11.9489
12.0049
12.0459
12.0681
12.0672
12.0493
12.0336
12.0343
12.0601
12.1029
12.1528
12.1872
12.1954
12.1807
12.1469
12.1049
12.0707
12.0602
12.0784
12.1165
12.1592
12.1983
12.2209
12.2406
1
1
1
1
1
1
1
1
1
1
1
1
1
1
1
1
1
1
1
1
1
1
1
1
1
1
1
1
1
1
1
1
1
1
1
1
1
1
1
1
1
1
1
1
1
1
1
1
1
1
1
1
1
1
1
1
1
1
1
1
1
1
1
1
1
1
1
1
1
1
1
1
1
1
1
1
1
1
1
1
1
1
1
1
1
1
1
1
1
1
1
1
1
1
1
1
1
1
1
1
1
1
1
1
1
1
1
1
1
1
1
4.2768
10.4555
10.7709
10.7336
10.7643
10.8155
10.893
10.9837
11.0562
11.1062
11.1209
11.1061
11.0986
11.0789
11.076
11.1048
11.1643
11.2491
11.3324
11.3916
11.428
11.4466
11.4395
11.41
11.3819
11.3661
11.3682
11.3953
11.4461
11.4975
11.5389
11.5746
11.6048
11.6259
11.6327
11.6244
11.6077
11.6029
11.6203
11.6561
11.7099
11.7774
11.8389
11.8714
11.8736
11.8659
11.8695
11.8993
11.9495
11.9982
12.0275
12.0263
11.9898
11.9377
11.896
11.8793
11.8886
11.932
11.9896
12.0327
12.0559
12.055
12.0363
12.0192
12.0198
12.0479
12.095
12.1487
12.1852
12.1931
12.1762
12.1394
12.0938
12.0558
12.0424
12.0598
12.0988
12.1439
12.1851
12.21
12.2311
1
1
1
1
1
1
1
1
1
1
1
1
1
1
1
1
1
1
1
1
1
1
1
1
1
1
1
1
1
1
1
1
1
1
1
1
1
1
1
1
1
1
1
1
1
1
1
1
1
1
1
1
1
1
1
1
1
1
1
1
1
1
1
1
1
1
1
1
1
1
1
1
1
1
1
1
1
1
1
1
1
1
1
1
1
1
1
1
1
1
1
1
1
1
1
1
1
1
1
1
1
1
1
1
1
1
1
1
1
1
1
3.85021
10.322
10.7651
10.7283
10.7542
10.7952
10.8762
10.9713
11.0518
11.1052
11.1049
11.1005
11.0844
11.0639
11.0655
11.0902
11.1517
11.2432
11.3328
11.3945
11.4315
11.4421
11.4272
11.3948
11.3663
11.351
11.354
11.3783
11.4273
11.4796
11.5237
11.5624
11.5942
11.6155
11.6226
11.6175
11.6067
11.6104
11.6287
11.6603
11.7077
11.7679
11.824
11.8529
11.8529
11.8464
11.8539
11.8878
11.9412
11.9915
12.021
12.019
11.9806
11.9257
11.8808
11.8623
11.8706
11.9133
11.9728
12.0188
12.0436
12.0427
12.0233
12.0046
12.005
12.0352
12.0863
12.1435
12.1821
12.1896
12.1706
12.1308
12.0819
12.0407
12.0247
12.0412
12.0809
12.1278
12.1709
12.1977
12.2201
1
1
1
1
1
1
1
1
1
1
1
1
1
1
1
1
1
1
1
1
1
1
1
1
1
1
1
1
1
1
1
1
1
1
1
1
1
1
1
1
1
1
1
1
1
1
1
1
1
1
1
1
1
1
1
1
1
1
1
1
1
1
1
1
1
1
1
1
1
1
1
1
1
1
1
1
1
1
1
1
1
1
1
1
1
1
1
1
1
1
1
1
1
1
1
1
1
1
1
1
1
1
1
1
1
1
1
1
1
1
1
3.43948
10.145
10.7342
10.7186
10.7361
10.7803
10.864
10.9633
11.0473
11.0934
11.0923
11.089
11.0684
11.0533
11.0571
11.0781
11.1408
11.2407
11.3335
11.396
11.4287
11.4327
11.4136
11.3812
11.3527
11.3365
11.3386
11.3592
11.4067
11.4613
11.5089
11.55
11.5821
11.6032
11.6121
11.6129
11.6099
11.6201
11.6372
11.6627
11.7029
11.7551
11.8058
11.8322
11.8322
11.8285
11.8399
11.8766
11.9315
11.9825
12.0126
12.0104
11.9713
11.9143
11.8659
11.8447
11.8513
11.8928
11.9539
12.0037
12.0307
12.0303
12.0103
11.9902
11.9904
12.0223
12.0769
12.1368
12.177
12.1843
12.1635
12.1211
12.0694
12.0255
12.0075
12.0231
12.0632
12.1114
12.1556
12.1836
12.2068
1
1
1
1
1
1
1
1
1
1
1
1
1
1
1
1
1
1
1
1
1
1
1
1
1
1
1
1
1
1
1
1
1
1
1
1
1
1
1
1
1
1
1
1
1
1
1
1
1
1
1
1
1
1
1
1
1
1
1
1
1
1
1
1
1
1
1
1
1
1
1
1
1
1
1
1
1
1
1
1
1
1
1
1
1
1
1
1
1
1
1
1
1
1
1
1
1
1
1
1
1
1
1
1
1
1
1
1
1
1
1
3.05244
9.90255
10.6934
10.7107
10.7253
10.7728
10.8569
10.9571
11.0377
11.0739
11.0817
11.0756
11.0553
11.0465
11.0508
11.0723
11.135
11.2373
11.3292
11.3911
11.4184
11.4193
11.4018
11.3704
11.3413
11.3221
11.3209
11.3382
11.3852
11.4432
11.4944
11.5368
11.5681
11.5891
11.6024
11.6109
11.6173
11.6306
11.6441
11.6627
11.695
11.7387
11.7841
11.8096
11.8119
11.8127
11.8279
11.866
11.9205
11.9713
12.0014
11.9998
11.9613
11.9033
11.8517
11.8271
11.8313
11.8708
11.9329
11.9867
12.0166
12.0173
11.9973
11.9764
11.9768
12.01
12.0669
12.1284
12.1697
12.1768
12.1546
12.1101
12.0564
12.0107
11.991
12.0056
12.0458
12.0946
12.1391
12.1674
12.1908
1
1
1
1
1
1
1
1
1
1
1
1
1
1
1
1
1
1
1
1
1
1
1
1
1
1
1
1
1
1
1
1
1
1
1
1
1
1
1
1
1
1
1
1
1
1
1
1
1
1
1
1
1
1
1
1
1
1
1
1
1
1
1
1
1
1
1
1
1
1
1
1
1
1
1
1
1
1
1
1
1
1
1
1
1
1
1
1
1
1
1
1
1
1
1
1
1
1
1
1
1
1
1
1
1
1
1
1
1
1
1
2.6855
9.59088
10.6696
10.6957
10.7156
10.7642
10.8474
10.9433
11.0251
11.0581
11.0733
11.0647
11.0497
11.043
11.0446
11.0691
11.132
11.2289
11.3181
11.3782
11.4022
11.4044
11.3917
11.3618
11.3302
11.307
11.3022
11.3167
11.3642
11.4258
11.4794
11.5222
11.5527
11.575
11.595
11.6122
11.6271
11.6403
11.6487
11.6607
11.6845
11.7189
11.7592
11.7855
11.7923
11.7987
11.8177
11.856
11.9088
11.9579
11.9876
11.9866
11.9499
11.8923
11.8384
11.81
11.8112
11.8477
11.9101
11.9675
12.0006
12.0029
11.9837
11.9633
11.9647
11.9987
12.0567
12.1183
12.1597
12.1667
12.1436
12.0977
12.0428
11.9961
11.9752
11.9889
12.0287
12.0775
12.1214
12.1492
12.1724
1
1
1
1
1
1
1
1
1
1
1
1
1
1
1
1
1
1
1
1
1
1
1
1
1
1
1
1
1
1
1
1
1
1
1
1
1
1
1
1
1
1
1
1
1
1
1
1
1
1
1
1
1
1
1
1
1
1
1
1
1
1
1
1
1
1
1
1
1
1
1
1
1
1
1
1
1
1
1
1
1
1
1
1
1
1
1
1
1
1
1
1
1
1
1
1
1
1
1
1
1
1
1
1
1
1
1
1
1
1
1
2.33113
9.20662
10.655
10.6681
10.7003
10.7545
10.8357
10.9271
11.01
11.0465
11.0654
11.0576
11.0514
11.0406
11.0407
11.0641
11.1271
11.2123
11.3009
11.3595
11.3839
11.3904
11.3814
11.353
11.3181
11.2907
11.2835
11.2966
11.3451
11.4091
11.4637
11.5061
11.5369
11.563
11.5905
11.616
11.6367
11.6482
11.6505
11.6561
11.6715
11.6964
11.7319
11.7604
11.7732
11.7858
11.8084
11.8462
11.8965
11.9431
11.9712
11.9709
11.9367
11.8806
11.8255
11.7939
11.7918
11.8243
11.8859
11.9462
11.9823
11.9865
11.9692
11.9505
11.9542
11.9889
12.0465
12.1067
12.1471
12.1539
12.1301
12.0837
12.0287
11.9819
11.9602
11.9726
12.0116
12.0597
12.1025
12.1292
12.1517
1
1
1
1
1
1
1
1
1
1
1
1
1
1
1
1
1
1
1
1
1
1
1
1
1
1
1
1
1
1
1
1
1
1
1
1
1
1
1
1
1
1
1
1
1
1
1
1
1
1
1
1
1
1
1
1
1
1
1
1
1
1
1
1
1
1
1
1
1
1
1
1
1
1
1
1
1
1
1
1
1
1
1
1
1
1
1
1
1
1
1
1
1
1
1
1
1
1
1
1
1
1
1
1
1
1
1
1
1
1
1
1.98762
8.75845
10.6504
10.6633
10.694
10.7465
10.8142
10.9126
10.9938
11.04
11.0586
11.0566
11.0513
11.0392
11.0401
11.06
11.1176
11.1908
11.28
11.3387
11.3666
11.3763
11.3687
11.342
11.304
11.2732
11.2652
11.2783
11.3277
11.3927
11.4473
11.4898
11.5226
11.5542
11.5886
11.6199
11.6435
11.6536
11.65
11.6488
11.656
11.6722
11.7033
11.7349
11.7546
11.7735
11.7994
11.8363
11.8835
11.927
11.953
11.9531
11.9219
11.8679
11.8126
11.7782
11.773
11.8008
11.8606
11.9228
11.9615
11.9679
11.9537
11.9382
11.9451
11.9803
12.0364
12.0939
12.1324
12.1385
12.1141
12.0679
12.0139
11.9678
11.9455
11.9565
11.9942
12.0411
12.0824
12.1077
12.1293
1
1
1
1
1
1
1
1
1
1
1
1
1
1
1
1
1
1
1
1
1
1
1
1
1
1
1
1
1
1
1
1
1
1
1
1
1
1
1
1
1
1
1
1
1
1
1
1
1
1
1
1
1
1
1
1
1
1
1
1
1
1
1
1
1
1
1
1
1
1
1
1
1
1
1
1
1
1
1
1
1
1
1
1
1
1
1
1
1
1
1
1
1
1
1
1
1
1
1
1
1
1
1
1
1
1
1
1
1
1
1
1.63221
8.23487
10.6957
10.6906
10.6979
10.7389
10.7996
10.9001
10.9814
11.0347
11.0512
11.0591
11.0475
11.0373
11.032
11.0537
11.101
11.1689
11.2582
11.3182
11.3502
11.3612
11.3534
11.3268
11.2874
11.2545
11.2478
11.2614
11.3113
11.3764
11.4315
11.4754
11.5116
11.5486
11.5876
11.6216
11.6464
11.6555
11.6471
11.639
11.638
11.6467
11.6742
11.7098
11.7367
11.7617
11.7901
11.8258
11.8695
11.9097
11.9335
11.9341
11.9059
11.8543
11.7992
11.7626
11.7546
11.7775
11.8343
11.8976
11.9383
11.9471
11.937
11.9266
11.9374
11.9724
12.026
12.0801
12.1159
12.1207
12.0958
12.0504
11.9983
11.9535
11.9308
11.9402
11.9762
12.0215
12.0612
12.0849
12.1057
1
1
1
1
1
1
1
1
1
1
1
1
1
1
1
1
1
1
1
1
1
1
1
1
1
1
1
1
1
1
1
1
1
1
1
1
1
1
1
1
1
1
1
1
1
1
1
1
1
1
1
1
1
1
1
1
1
1
1
1
1
1
1
1
1
1
1
1
1
1
1
1
1
1
1
1
1
1
1
1
1
1
1
1
1
1
1
1
1
1
1
1
1
1
1
1
1
1
1
1
1
1
1
1
1
1
1
1
1
1
1
1.27305
7.49719
10.7138
10.7277
10.7153
10.7422
10.7887
10.8852
10.9695
11.026
11.0496
11.0569
11.0459
11.0371
11.0242
11.0469
11.082
11.1469
11.2357
11.2982
11.3339
11.3433
11.3357
11.3081
11.2693
11.2353
11.2309
11.2446
11.2947
11.3603
11.418
11.465
11.505
11.5451
11.5859
11.6201
11.6452
11.6536
11.6411
11.6267
11.6181
11.6203
11.6455
11.6855
11.72
11.7505
11.7807
11.8143
11.8539
11.8908
11.9128
11.9141
11.889
11.84
11.7852
11.7464
11.7359
11.7543
11.8069
11.8705
11.9132
11.9247
11.9194
11.9159
11.9305
11.9643
12.0147
12.0649
12.0976
12.101
12.0756
12.0315
11.9818
11.9387
11.9158
11.9235
11.9574
12.001
12.0388
12.0609
12.0811
1
1
1
1
1
1
1
1
1
1
1
1
1
1
1
1
1
1
1
1
1
1
1
1
1
1
1
1
1
1
1
1
1
1
1
1
1
1
1
1
1
1
1
1
1
1
1
1
1
1
1
1
1
1
1
1
1
1
1
1
1
1
1
1
1
1
1
1
1
1
1
1
1
1
1
1
1
1
1
1
1
1
1
1
1
1
1
1
1
1
1
1
1
1
1
1
1
1
1
1
1
1
1
1
1
1
1
1
1
1
1
1.01356
6.64203
10.7093
10.7882
10.7361
10.7404
10.7849
10.8777
10.9647
11.0181
11.0466
11.0505
11.0452
11.0316
11.0207
11.0376
11.0652
11.1259
11.2139
11.2785
11.3159
11.3232
11.3165
11.2889
11.2522
11.219
11.214
11.2264
11.2778
11.3453
11.4077
11.459
11.5019
11.5428
11.5826
11.6155
11.6395
11.647
11.6314
11.6121
11.5969
11.5938
11.6176
11.6625
11.7047
11.7402
11.7712
11.8019
11.8365
11.8699
11.8906
11.8931
11.8715
11.8253
11.7708
11.7298
11.7166
11.7309
11.7787
11.8418
11.8861
11.9013
11.9018
11.9062
11.9239
11.9556
12.0019
12.0479
12.0776
12.0796
12.0542
12.0116
11.9644
11.9233
11.9002
11.9059
11.9377
11.9794
12.0155
12.0359
12.0555
1
1
1
1
1
1
1
1
1
1
1
1
1
1
1
1
1
1
1
1
1
1
1
1
1
1
1
1
1
1
1
1
1
1
1
1
1
1
1
1
1
1
1
1
1
1
1
1
1
1
1
1
1
1
1
1
1
1
1
1
1
1
1
1
1
1
1
1
1
1
1
1
1
1
1
1
1
1
1
1
1
1
1
1
1
1
1
1
1
1
1
1
1
1
1
1
1
1
1
1
1
1
1
1
1
1
1
1
1
1
1
1.00009
5.69914
10.655
10.8019
10.7487
10.7482
10.7878
10.8749
10.9591
11.0134
11.0444
11.0496
11.0468
11.0266
11.0195
11.0259
11.05
11.1055
11.1918
11.2577
11.2941
11.3024
11.2971
11.2728
11.2378
11.2074
11.1983
11.209
11.2622
11.3325
11.4
11.4559
11.5008
11.5408
11.5781
11.6083
11.6299
11.6357
11.6181
11.5949
11.5745
11.5675
11.5907
11.6406
11.6903
11.7303
11.7614
11.7886
11.8177
11.8473
11.8674
11.8714
11.8533
11.81
11.756
11.7128
11.6966
11.7071
11.7493
11.8112
11.857
11.8773
11.8854
11.8977
11.9175
11.9458
11.9869
12.0283
12.0553
12.0566
12.032
11.9914
11.9466
11.9071
11.8839
11.8874
11.9167
11.9566
11.991
12.01
12.0292
1
1
1
1
1
1
1
1
1
1
1
1
1
1
1
1
1
1
1
1
1
1
1
1
1
1
1
1
1
1
1
1
1
1
1
1
1
1
1
1
1
1
1
1
1
1
1
1
1
1
1
1
1
1
1
1
1
1
1
1
1
1
1
1
1
1
1
1
1
1
1
1
1
1
1
1
1
1
1
1
1
1
1
1
1
1
1
1
1
1
1
1
1
1
1
1
1
1
1
1
1
1
1
1
1
1
1
1
1
1
1
1
4.81116
10.5181
10.7817
10.7461
10.751
10.7917
10.8757
10.9565
11.0135
11.0333
11.0472
11.047
11.0235
11.0168
11.0132
11.0335
11.0844
11.1679
11.2345
11.269
11.2809
11.278
11.261
11.2274
11.2005
11.1874
11.1964
11.2491
11.3209
11.3923
11.4522
11.4987
11.5378
11.5726
11.5997
11.6181
11.621
11.6013
11.5751
11.5512
11.5418
11.5654
11.6199
11.6761
11.72
11.7509
11.7747
11.798
11.8236
11.8432
11.8486
11.8338
11.7934
11.7403
11.6954
11.6757
11.6828
11.7192
11.7788
11.8264
11.8537
11.8706
11.8904
11.911
11.9343
11.9692
12.0055
12.0301
12.0316
12.0092
11.9712
11.9287
11.8905
11.8667
11.8676
11.894
11.9322
11.9653
11.9832
12.0021
1
1
1
1
1
1
1
1
1
1
1
1
1
1
1
1
1
1
1
1
1
1
1
1
1
1
1
1
1
1
1
1
1
1
1
1
1
1
1
1
1
1
1
1
1
1
1
1
1
1
1
1
1
1
1
1
1
1
1
1
1
1
1
1
1
1
1
1
1
1
1
1
1
1
1
1
1
1
1
1
1
1
1
1
1
1
1
1
1
1
1
1
1
1
1
1
1
1
1
1
1
1
1
1
1
1
1
1
1
1
1
1
4.01058
10.2689
10.7644
10.7333
10.7464
10.7853
10.8705
10.9546
11.0104
11.0255
11.0397
11.0383
11.0177
11.0072
10.9989
11.0127
11.0613
11.1405
11.207
11.2411
11.2579
11.261
11.251
11.2194
11.197
11.1834
11.1919
11.2398
11.3098
11.3819
11.4439
11.4924
11.5321
11.5659
11.5908
11.6062
11.6048
11.582
11.5531
11.5271
11.5172
11.5423
11.6004
11.6615
11.7081
11.7386
11.7594
11.7772
11.7991
11.8183
11.825
11.813
11.7755
11.724
11.6778
11.6545
11.658
11.6881
11.7444
11.7949
11.8309
11.8576
11.8838
11.9038
11.9205
11.9486
11.9791
12.0013
12.0045
11.9858
11.9515
11.9115
11.874
11.8488
11.8464
11.8692
11.9055
11.9378
11.9557
11.9746
1
1
1
1
1
1
1
1
1
1
1
1
1
1
1
1
1
1
1
1
1
1
1
1
1
1
1
1
1
1
1
1
1
1
1
1
1
1
1
1
1
1
1
1
1
1
1
1
1
1
1
1
1
1
1
1
1
1
1
1
1
1
1
1
1
1
1
1
1
1
1
1
1
1
1
1
1
1
1
1
1
1
1
1
1
1
1
1
1
1
1
1
1
1
1
1
1
1
1
1
1
1
1
1
1
1
1
1
1
1
1
1
3.30078
9.92201
10.7382
10.7113
10.7307
10.7733
10.8583
10.944
10.9981
11.0176
11.0287
11.0239
11.009
10.9897
10.9817
10.9898
11.0346
11.1095
11.1764
11.2142
11.2358
11.2447
11.2398
11.2132
11.1961
11.1855
11.1949
11.2354
11.2991
11.3681
11.4291
11.479
11.5212
11.5567
11.5813
11.5941
11.5883
11.5619
11.5298
11.5028
11.4944
11.5213
11.5819
11.6462
11.694
11.7234
11.7416
11.7554
11.774
11.793
11.8009
11.7909
11.7564
11.7068
11.6597
11.6325
11.6321
11.6555
11.7084
11.7632
11.8098
11.8469
11.8776
11.8954
11.905
11.9248
11.9489
11.969
11.9749
11.9616
11.9322
11.8951
11.858
11.8304
11.8234
11.8418
11.8759