/*--------------------------------*- C++ -*----------------------------------*\
  =========                 |
  \\      /  F ield         | OpenFOAM: The Open Source CFD Toolbox
   \\    /   O peration     | Website:  https://openfoam.org
    \\  /    A nd           | Version:  7
     \\/     M anipulation  |
\*---------------------------------------------------------------------------*/
FoamFile
{
    version     2.0;
    format      ascii;
    class       volScalarField;
    location    "0.9";
    object      rho;
}
// * * * * * * * * * * * * * * * * * * * * * * * * * * * * * * * * * * * * * //

dimensions      [1 -3 0 0 0 0 0];

internalField   nonuniform List<scalar> 
258048
(
1.40001
1.40001
1.40001
1.40001
1.40001
1.40001
1.40001
1.40001
1.40001
1.40001
1.40001
1.40001
1.40001
1.40001
1.40001
1.40001
1.40001
1.40001
1.40001
1.40001
1.40001
1.40001
1.40001
1.40001
1.40001
1.40001
1.40001
1.40001
1.40001
1.40001
1.40001
1.40001
1.40001
1.40001
1.40001
1.40001
1.40001
1.40001
1.40001
1.40001
1.40001
1.40001
1.40001
1.40001
1.40001
1.40001
1.40001
1.40001
1.40001
1.40001
1.40001
1.40001
1.40001
1.40001
1.40001
1.40001
1.40001
1.40001
1.40001
1.40001
1.40001
1.40001
1.40001
1.40001
1.40001
1.40001
1.40001
1.40001
1.40001
1.40001
1.40001
1.40001
1.40001
1.40001
1.40001
1.40001
1.40001
1.40001
1.40001
1.40001
1.40001
1.40001
1.40001
1.40001
1.40001
1.40001
1.40001
1.40001
1.40001
1.40001
1.40001
1.40001
1.40001
1.40001
1.40001
1.40001
1.40001
1.40001
1.40001
1.40001
1.40001
1.40001
1.40001
1.40001
1.40001
1.40001
1.40001
1.40001
1.40001
1.40001
2.09444
4.94089
5.51087
5.51446
5.50333
5.47605
5.45641
5.45858
5.48455
5.5271
5.56255
5.59606
5.61499
5.61949
5.61558
5.61078
5.61565
5.6438
5.67818
5.70566
5.71761
5.71728
5.70576
5.68895
5.67709
5.67507
5.68408
5.7034
5.73046
5.75746
5.77505
5.78212
5.78279
5.78032
5.77614
5.77135
5.76489
5.75669
5.74949
5.74473
5.74662
5.76236
5.78584
5.81113
5.83287
5.84934
5.86101
5.86845
5.87248
5.87404
5.87262
5.86964
5.8634
5.85389
5.84566
5.84272
5.84535
5.85754
5.87574
5.88878
5.89375
5.89201
5.88495
5.87594
5.86885
5.86347
5.85927
5.85312
5.84306
5.82866
5.81031
5.7856
5.75306
5.70928
5.64788
5.56025
5.44235
5.30478
5.1741
5.07895
5.02998
5.01768
1.40001
1.40001
1.40001
1.40001
1.40001
1.40001
1.40001
1.40001
1.40001
1.40001
1.40001
1.40001
1.40001
1.40001
1.40001
1.40001
1.40001
1.40001
1.40001
1.40001
1.40001
1.40001
1.40001
1.40001
1.40001
1.40001
1.40001
1.40001
1.40001
1.40001
1.40001
1.40001
1.40001
1.40001
1.40001
1.40001
1.40001
1.40001
1.40001
1.40001
1.40001
1.40001
1.40001
1.40001
1.40001
1.40001
1.40001
1.40001
1.40001
1.40001
1.40001
1.40001
1.40001
1.40001
1.40001
1.40001
1.40001
1.40001
1.40001
1.40001
1.40001
1.40001
1.40001
1.40001
1.40001
1.40001
1.40001
1.40001
1.40001
1.40001
1.40001
1.40001
1.40001
1.40001
1.40001
1.40001
1.40001
1.40001
1.40001
1.40001
1.40001
1.40001
1.40001
1.40001
1.40001
1.40001
1.40001
1.40001
1.40001
1.40001
1.40001
1.40001
1.40001
1.40001
1.40001
1.40001
1.40001
1.40001
1.40001
1.40001
1.40001
1.40001
1.40001
1.40001
1.40001
1.40001
1.40001
1.40001
1.40001
1.40001
2.08834
4.93448
5.51128
5.50861
5.50183
5.47479
5.45616
5.45628
5.48401
5.52765
5.56482
5.59821
5.61629
5.61912
5.6151
5.61
5.61542
5.6436
5.67823
5.7057
5.71747
5.71718
5.70582
5.68893
5.6773
5.67541
5.68452
5.70373
5.73069
5.75761
5.77509
5.78202
5.78257
5.78005
5.77589
5.77122
5.7649
5.75681
5.74964
5.74486
5.74673
5.76243
5.78591
5.81121
5.83288
5.84919
5.86063
5.86787
5.87185
5.87351
5.87232
5.86964
5.86365
5.85423
5.84596
5.84286
5.84526
5.85718
5.87523
5.88825
5.89332
5.89162
5.88452
5.87545
5.86834
5.86307
5.85905
5.85304
5.84305
5.82859
5.81009
5.78523
5.75252
5.7086
5.64711
5.55947
5.44165
5.3042
5.17358
5.07834
5.02926
5.01675
1.40001
1.40001
1.40001
1.40001
1.40001
1.40001
1.40001
1.40001
1.40001
1.40001
1.40001
1.40001
1.40001
1.40001
1.40001
1.40001
1.40001
1.40001
1.40001
1.40001
1.40001
1.40001
1.40001
1.40001
1.40001
1.40001
1.40001
1.40001
1.40001
1.40001
1.40001
1.40001
1.40001
1.40001
1.40001
1.40001
1.40001
1.40001
1.40001
1.40001
1.40001
1.40001
1.40001
1.40001
1.40001
1.40001
1.40001
1.40001
1.40001
1.40001
1.40001
1.40001
1.40001
1.40001
1.40001
1.40001
1.40001
1.40001
1.40001
1.40001
1.40001
1.40001
1.40001
1.40001
1.40001
1.40001
1.40001
1.40001
1.40001
1.40001
1.40001
1.40001
1.40001
1.40001
1.40001
1.40001
1.40001
1.40001
1.40001
1.40001
1.40001
1.40001
1.40001
1.40001
1.40001
1.40001
1.40001
1.40001
1.40001
1.40001
1.40001
1.40001
1.40001
1.40001
1.40001
1.40001
1.40001
1.40001
1.40001
1.40001
1.40001
1.40001
1.40001
1.40001
1.40001
1.40001
1.40001
1.40001
1.40001
1.40001
2.07316
4.92538
5.50932
5.50422
5.49958
5.47253
5.45488
5.45418
5.48438
5.52894
5.56789
5.6009
5.61781
5.61837
5.61375
5.60829
5.61454
5.64307
5.67824
5.7057
5.71716
5.71667
5.70534
5.68827
5.67686
5.67522
5.68442
5.70351
5.73038
5.75724
5.77465
5.78145
5.78188
5.7793
5.77515
5.77066
5.76459
5.75668
5.74959
5.74478
5.7466
5.76228
5.78583
5.81123
5.83292
5.84909
5.86024
5.86715
5.87096
5.87266
5.8717
5.8694
5.86378
5.8546
5.84635
5.84309
5.84515
5.85663
5.87445
5.88744
5.89265
5.89104
5.88391
5.87467
5.86745
5.86224
5.85842
5.85263
5.84282
5.82839
5.80964
5.78445
5.75123
5.70677
5.64478
5.55681
5.43896
5.30183
5.17172
5.07686
5.02792
5.01523
1.40001
1.40001
1.40001
1.40001
1.40001
1.40001
1.40001
1.40001
1.40001
1.40001
1.40001
1.40001
1.40001
1.40001
1.40001
1.40001
1.40001
1.40001
1.40001
1.40001
1.40001
1.40001
1.40001
1.40001
1.40001
1.40001
1.40001
1.40001
1.40001
1.40001
1.40001
1.40001
1.40001
1.40001
1.40001
1.40001
1.40001
1.40001
1.40001
1.40001
1.40001
1.40001
1.40001
1.40001
1.40001
1.40001
1.40001
1.40001
1.40001
1.40001
1.40001
1.40001
1.40001
1.40001
1.40001
1.40001
1.40001
1.40001
1.40001
1.40001
1.40001
1.40001
1.40001
1.40001
1.40001
1.40001
1.40001
1.40001
1.40001
1.40001
1.40001
1.40001
1.40001
1.40001
1.40001
1.40001
1.40001
1.40001
1.40001
1.40001
1.40001
1.40001
1.40001
1.40001
1.40001
1.40001
1.40001
1.40001
1.40001
1.40001
1.40001
1.40001
1.40001
1.40001
1.40001
1.40001
1.40001
1.40001
1.40001
1.40001
1.40001
1.40001
1.40001
1.40001
1.40001
1.40001
1.40001
1.40001
1.40001
1.40001
2.0495
4.91202
5.50877
5.50125
5.49601
5.46819
5.45127
5.45239
5.48577
5.53194
5.57254
5.60423
5.61956
5.61752
5.61195
5.60607
5.61316
5.64232
5.67818
5.70561
5.71662
5.71586
5.70458
5.68744
5.67641
5.67515
5.68446
5.70338
5.73012
5.75689
5.77413
5.78072
5.78101
5.77838
5.77431
5.77005
5.76423
5.75647
5.74944
5.74454
5.74628
5.76197
5.78567
5.8113
5.83307
5.84908
5.85981
5.86622
5.86974
5.87146
5.87079
5.86899
5.86384
5.85496
5.8467
5.84322
5.8449
5.85586
5.87338
5.88627
5.89158
5.89001
5.88285
5.87347
5.86617
5.86107
5.85747
5.85193
5.84232
5.8279
5.8088
5.78306
5.74902
5.70359
5.6406
5.55182
5.4337
5.29707
5.16801
5.07412
5.02578
5.01306
1.40001
1.40001
1.40001
1.40001
1.40001
1.40001
1.40001
1.40001
1.40001
1.40001
1.40001
1.40001
1.40001
1.40001
1.40001
1.40001
1.40001
1.40001
1.40001
1.40001
1.40001
1.40001
1.40001
1.40001
1.40001
1.40001
1.40001
1.40001
1.40001
1.40001
1.40001
1.40001
1.40001
1.40001
1.40001
1.40001
1.40001
1.40001
1.40001
1.40001
1.40001
1.40001
1.40001
1.40001
1.40001
1.40001
1.40001
1.40001
1.40001
1.40001
1.40001
1.40001
1.40001
1.40001
1.40001
1.40001
1.40001
1.40001
1.40001
1.40001
1.40001
1.40001
1.40001
1.40001
1.40001
1.40001
1.40001
1.40001
1.40001
1.40001
1.40001
1.40001
1.40001
1.40001
1.40001
1.40001
1.40001
1.40001
1.40001
1.40001
1.40001
1.40001
1.40001
1.40001
1.40001
1.40001
1.40001
1.40001
1.40001
1.40001
1.40001
1.40001
1.40001
1.40001
1.40001
1.40001
1.40001
1.40001
1.40001
1.40001
1.40001
1.40001
1.40001
1.40001
1.40001
1.40001
1.40001
1.40001
1.40001
1.40001
2.01677
4.89144
5.50947
5.49955
5.49072
5.46165
5.44558
5.45131
5.48869
5.5368
5.57855
5.60801
5.6213
5.61646
5.60992
5.6036
5.61139
5.64141
5.67797
5.70535
5.71584
5.71473
5.7035
5.68637
5.67588
5.67507
5.68449
5.70322
5.72972
5.75629
5.77331
5.77969
5.77985
5.77723
5.77329
5.76928
5.76372
5.75608
5.74903
5.74397
5.74558
5.76131
5.78526
5.81127
5.83327
5.84917
5.85945
5.86522
5.86835
5.87005
5.86967
5.86835
5.86376
5.85518
5.8469
5.84321
5.84452
5.85495
5.87213
5.88488
5.89021
5.88863
5.88143
5.87197
5.86464
5.8597
5.85634
5.85104
5.84163
5.82723
5.80775
5.7813
5.74615
5.69928
5.63468
5.54449
5.42577
5.28978
5.16233
5.07011
5.02285
5.01029
1.40001
1.40001
1.40001
1.40001
1.40001
1.40001
1.40001
1.40001
1.40001
1.40001
1.40001
1.40001
1.40001
1.40001
1.40001
1.40001
1.40001
1.40001
1.40001
1.40001
1.40001
1.40001
1.40001
1.40001
1.40001
1.40001
1.40001
1.40001
1.40001
1.40001
1.40001
1.40001
1.40001
1.40001
1.40001
1.40001
1.40001
1.40001
1.40001
1.40001
1.40001
1.40001
1.40001
1.40001
1.40001
1.40001
1.40001
1.40001
1.40001
1.40001
1.40001
1.40001
1.40001
1.40001
1.40001
1.40001
1.40001
1.40001
1.40001
1.40001
1.40001
1.40001
1.40001
1.40001
1.40001
1.40001
1.40001
1.40001
1.40001
1.40001
1.40001
1.40001
1.40001
1.40001
1.40001
1.40001
1.40001
1.40001
1.40001
1.40001
1.40001
1.40001
1.40001
1.40001
1.40001
1.40001
1.40001
1.40001
1.40001
1.40001
1.40001
1.40001
1.40001
1.40001
1.40001
1.40001
1.40001
1.40001
1.40001
1.40001
1.40001
1.40001
1.40001
1.40001
1.40001
1.40001
1.40001
1.40001
1.40001
1.40001
1.97505
4.86335
5.51201
5.49841
5.4833
5.45299
5.43862
5.45178
5.49383
5.5439
5.58568
5.6125
5.62285
5.61508
5.60772
5.60102
5.60946
5.64044
5.67763
5.70491
5.71473
5.7133
5.70219
5.68515
5.67538
5.67505
5.68452
5.70295
5.72907
5.75531
5.77204
5.77823
5.77838
5.77589
5.7722
5.76848
5.76315
5.75553
5.74834
5.74303
5.74448
5.76025
5.78456
5.81114
5.83349
5.84934
5.85912
5.86417
5.86687
5.86855
5.86847
5.86753
5.86344
5.85516
5.8468
5.84289
5.8439
5.85386
5.87071
5.88328
5.88853
5.88689
5.87969
5.87023
5.86294
5.85818
5.85508
5.85002
5.8408
5.82645
5.80664
5.77945
5.74303
5.69433
5.62755
5.53535
5.41564
5.28032
5.15491
5.06496
5.01921
5.00708
1.40001
1.40001
1.40001
1.40001
1.40001
1.40001
1.40001
1.40001
1.40001
1.40001
1.40001
1.40001
1.40001
1.40001
1.40001
1.40001
1.40001
1.40001
1.40001
1.40001
1.40001
1.40001
1.40001
1.40001
1.40001
1.40001
1.40001
1.40001
1.40001
1.40001
1.40001
1.40001
1.40001
1.40001
1.40001
1.40001
1.40001
1.40001
1.40001
1.40001
1.40001
1.40001
1.40001
1.40001
1.40001
1.40001
1.40001
1.40001
1.40001
1.40001
1.40001
1.40001
1.40001
1.40001
1.40001
1.40001
1.40001
1.40001
1.40001
1.40001
1.40001
1.40001
1.40001
1.40001
1.40001
1.40001
1.40001
1.40001
1.40001
1.40001
1.40001
1.40001
1.40001
1.40001
1.40001
1.40001
1.40001
1.40001
1.40001
1.40001
1.40001
1.40001
1.40001
1.40001
1.40001
1.40001
1.40001
1.40001
1.40001
1.40001
1.40001
1.40001
1.40001
1.40001
1.40001
1.40001
1.40001
1.40001
1.40001
1.40001
1.40001
1.40001
1.40001
1.40001
1.40001
1.40001
1.40001
1.40001
1.40001
1.40001
1.92521
4.827
5.51576
5.49649
5.47345
5.44232
5.43208
5.45475
5.50185
5.55307
5.59294
5.61771
5.62361
5.61343
5.60548
5.59844
5.60765
5.63958
5.6772
5.70421
5.71322
5.71155
5.70067
5.68383
5.67488
5.67502
5.68452
5.70256
5.72814
5.75392
5.77026
5.77632
5.77656
5.77436
5.77106
5.76767
5.76252
5.75481
5.74732
5.74174
5.74303
5.75882
5.78361
5.8109
5.83368
5.84948
5.85874
5.86302
5.86534
5.86705
5.86732
5.86672
5.86295
5.85485
5.84626
5.84211
5.84291
5.8525
5.86908
5.88147
5.8866
5.88489
5.87772
5.86833
5.86117
5.85658
5.85369
5.84885
5.83988
5.82562
5.80561
5.77778
5.74007
5.68932
5.61991
5.52517
5.40409
5.26937
5.14623
5.05896
5.01507
5.00363
1.40001
1.40001
1.40001
1.40001
1.40001
1.40001
1.40001
1.40001
1.40001
1.40001
1.40001
1.40001
1.40001
1.40001
1.40001
1.40001
1.40001
1.40001
1.40001
1.40001
1.40001
1.40001
1.40001
1.40001
1.40001
1.40001
1.40001
1.40001
1.40001
1.40001
1.40001
1.40001
1.40001
1.40001
1.40001
1.40001
1.40001
1.40001
1.40001
1.40001
1.40001
1.40001
1.40001
1.40001
1.40001
1.40001
1.40001
1.40001
1.40001
1.40001
1.40001
1.40001
1.40001
1.40001
1.40001
1.40001
1.40001
1.40001
1.40001
1.40001
1.40001
1.40001
1.40001
1.40001
1.40001
1.40001
1.40001
1.40001
1.40001
1.40001
1.40001
1.40001
1.40001
1.40001
1.40001
1.40001
1.40001
1.40001
1.40001
1.40001
1.40001
1.40001
1.40001
1.40001
1.40001
1.40001
1.40001
1.40001
1.40001
1.40001
1.40001
1.40001
1.40001
1.40001
1.40001
1.40001
1.40001
1.40001
1.40001
1.40001
1.40001
1.40001
1.40001
1.40001
1.40001
1.40001
1.40001
1.40001
1.40001
1.40001
1.86853
4.78027
5.51907
5.49325
5.46163
5.42982
5.42827
5.46121
5.51292
5.56369
5.5998
5.62313
5.62406
5.61186
5.60327
5.59589
5.60597
5.63869
5.67642
5.70296
5.71132
5.70966
5.69916
5.6827
5.67457
5.6751
5.68455
5.70204
5.72686
5.75198
5.76781
5.77377
5.77428
5.77257
5.76987
5.76691
5.76195
5.75408
5.74611
5.74019
5.74142
5.7572
5.78256
5.81063
5.83378
5.84945
5.85813
5.86167
5.86369
5.86557
5.86632
5.86609
5.86256
5.85432
5.8453
5.8408
5.84139
5.85071
5.86711
5.87941
5.88446
5.88274
5.87565
5.86636
5.85935
5.85491
5.85214
5.84746
5.8388
5.8248
5.80475
5.77647
5.73759
5.68474
5.61245
5.51483
5.39206
5.2578
5.13692
5.05251
5.01065
5.00014
1.40001
1.40001
1.40001
1.40001
1.40001
1.40001
1.40001
1.40001
1.40001
1.40001
1.40001
1.40001
1.40001
1.40001
1.40001
1.40001
1.40001
1.40001
1.40001
1.40001
1.40001
1.40001
1.40001
1.40001
1.40001
1.40001
1.40001
1.40001
1.40001
1.40001
1.40001
1.40001
1.40001
1.40001
1.40001
1.40001
1.40001
1.40001
1.40001
1.40001
1.40001
1.40001
1.40001
1.40001
1.40001
1.40001
1.40001
1.40001
1.40001
1.40001
1.40001
1.40001
1.40001
1.40001
1.40001
1.40001
1.40001
1.40001
1.40001
1.40001
1.40001
1.40001
1.40001
1.40001
1.40001
1.40001
1.40001
1.40001
1.40001
1.40001
1.40001
1.40001
1.40001
1.40001
1.40001
1.40001
1.40001
1.40001
1.40001
1.40001
1.40001
1.40001
1.40001
1.40001
1.40001
1.40001
1.40001
1.40001
1.40001
1.40001
1.40001
1.40001
1.40001
1.40001
1.40001
1.40001
1.40001
1.40001
1.40001
1.40001
1.40001
1.40001
1.40001
1.40001
1.40001
1.40001
1.40001
1.40001
1.40001
1.40001
1.80598
4.72082
5.52145
5.48771
5.44842
5.41779
5.42898
5.47202
5.52626
5.57474
5.60607
5.6276
5.62423
5.61031
5.60099
5.5933
5.60429
5.63771
5.67518
5.70108
5.70932
5.70796
5.69785
5.68177
5.67441
5.67523
5.68447
5.70125
5.72514
5.74945
5.76469
5.77061
5.77157
5.77057
5.76865
5.76624
5.76149
5.75341
5.74478
5.73846
5.73982
5.75558
5.78163
5.81038
5.83372
5.84906
5.85708
5.85991
5.8618
5.86403
5.86547
5.86579
5.8624
5.85379
5.84406
5.83898
5.83925
5.84834
5.86468
5.87708
5.88217
5.88055
5.87358
5.86438
5.85748
5.85314
5.85046
5.8459
5.83759
5.82398
5.8041
5.77558
5.73573
5.6809
5.60574
5.50511
5.38048
5.24647
5.12766
5.04603
5.00619
4.99673
1.40001
1.40001
1.40001
1.40001
1.40001
1.40001
1.40001
1.40001
1.40001
1.40001
1.40001
1.40001
1.40001
1.40001
1.40001
1.40001
1.40001
1.40001
1.40001
1.40001
1.40001
1.40001
1.40001
1.40001
1.40001
1.40001
1.40001
1.40001
1.40001
1.40001
1.40001
1.40001
1.40001
1.40001
1.40001
1.40001
1.40001
1.40001
1.40001
1.40001
1.40001
1.40001
1.40001
1.40001
1.40001
1.40001
1.40001
1.40001
1.40001
1.40001
1.40001
1.40001
1.40001
1.40001
1.40001
1.40001
1.40001
1.40001
1.40001
1.40001
1.40001
1.40001
1.40001
1.40001
1.40001
1.40001
1.40001
1.40001
1.40001
1.40001
1.40001
1.40001
1.40001
1.40001
1.40001
1.40001
1.40001
1.40001
1.40001
1.40001
1.40001
1.40001
1.40001
1.40001
1.40001
1.40001
1.40001
1.40001
1.40001
1.40001
1.40001
1.40001
1.40001
1.40001
1.40001
1.40001
1.40001
1.40001
1.40001
1.40001
1.40001
1.40001
1.40001
1.40001
1.40001
1.40001
1.40001
1.40001
1.40001
1.40001
1.73872
4.64631
5.52322
5.47857
5.43376
5.41127
5.43616
5.48632
5.5406
5.58485
5.61179
5.63001
5.6239
5.60911
5.59856
5.5906
5.60248
5.63646
5.6733
5.69856
5.70716
5.70645
5.69666
5.68103
5.6744
5.67542
5.68434
5.70029
5.72303
5.74638
5.76094
5.76683
5.76838
5.76826
5.76726
5.76552
5.76103
5.75278
5.74346
5.73671
5.73838
5.75429
5.78104
5.81025
5.83352
5.84826
5.85545
5.8576
5.8595
5.86233
5.86473
5.86579
5.86255
5.85342
5.84272
5.83675
5.83647
5.8453
5.8617
5.87441
5.87976
5.8784
5.87161
5.86242
5.85553
5.85121
5.84858
5.84419
5.83633
5.82322
5.8037
5.77513
5.73446
5.67787
5.60007
5.49661
5.37014
5.23619
5.1191
5.03994
5.00189
4.9935
1.40001
1.40001
1.40001
1.40001
1.40001
1.40001
1.40001
1.40001
1.40001
1.40001
1.40001
1.40001
1.40001
1.40001
1.40001
1.40001
1.40001
1.40001
1.40001
1.40001
1.40001
1.40001
1.40001
1.40001
1.40001
1.40001
1.40001
1.40001
1.40001
1.40001
1.40001
1.40001
1.40001
1.40001
1.40001
1.40001
1.40001
1.40001
1.40001
1.40001
1.40001
1.40001
1.40001
1.40001
1.40001
1.40001
1.40001
1.40001
1.40001
1.40001
1.40001
1.40001
1.40001
1.40001
1.40001
1.40001
1.40001
1.40001
1.40001
1.40001
1.40001
1.40001
1.40001
1.40001
1.40001
1.40001
1.40001
1.40001
1.40001
1.40001
1.40001
1.40001
1.40001
1.40001
1.40001
1.40001
1.40001
1.40001
1.40001
1.40001
1.40001
1.40001
1.40001
1.40001
1.40001
1.40001
1.40001
1.40001
1.40001
1.40001
1.40001
1.40001
1.40001
1.40001
1.40001
1.40001
1.40001
1.40001
1.40001
1.40001
1.40001
1.40001
1.40001
1.40001
1.40001
1.40001
1.40001
1.40001
1.40001
1.40001
1.66809
4.55245
5.51566
5.46491
5.42292
5.41472
5.44898
5.50243
5.55377
5.59298
5.61651
5.63094
5.62375
5.60843
5.59587
5.58762
5.60016
5.63445
5.67049
5.69538
5.70497
5.70521
5.69553
5.68056
5.6746
5.67575
5.68418
5.6991
5.72044
5.74268
5.75657
5.76251
5.76473
5.76565
5.76568
5.76466
5.76048
5.75211
5.74215
5.73507
5.73724
5.75349
5.78086
5.81037
5.83325
5.84705
5.85318
5.85463
5.85666
5.8603
5.86393
5.86597
5.86299
5.85328
5.84144
5.83425
5.83317
5.84159
5.85812
5.87136
5.87722
5.87632
5.86977
5.8605
5.85345
5.84905
5.84645
5.84229
5.83505
5.82261
5.80352
5.77505
5.73369
5.67554
5.59549
5.48965
5.36157
5.22757
5.11175
5.03454
4.99786
4.99043
1.40001
1.40001
1.40001
1.40001
1.40001
1.40001
1.40001
1.40001
1.40001
1.40001
1.40001
1.40001
1.40001
1.40001
1.40001
1.40001
1.40001
1.40001
1.40001
1.40001
1.40001
1.40001
1.40001
1.40001
1.40001
1.40001
1.40001
1.40001
1.40001
1.40001
1.40001
1.40001
1.40001
1.40001
1.40001
1.40001
1.40001
1.40001
1.40001
1.40001
1.40001
1.40001
1.40001
1.40001
1.40001
1.40001
1.40001
1.40001
1.40001
1.40001
1.40001
1.40001
1.40001
1.40001
1.40001
1.40001
1.40001
1.40001
1.40001
1.40001
1.40001
1.40001
1.40001
1.40001
1.40001
1.40001
1.40001
1.40001
1.40001
1.40001
1.40001
1.40001
1.40001
1.40001
1.40001
1.40001
1.40001
1.40001
1.40001
1.40001
1.40001
1.40001
1.40001
1.40001
1.40001
1.40001
1.40001
1.40001
1.40001
1.40001
1.40001
1.40001
1.40001
1.40001
1.40001
1.40001
1.40001
1.40001
1.40001
1.40001
1.40001
1.40001
1.40001
1.40001
1.40001
1.40001
1.40001
1.40001
1.40001
1.40001
1.59572
4.43616
5.50322
5.45416
5.4226
5.42772
5.46501
5.5171
5.56345
5.59867
5.61967
5.63042
5.62386
5.60789
5.59255
5.58434
5.59731
5.63175
5.66701
5.69186
5.70287
5.70414
5.69429
5.6803
5.675
5.67614
5.68391
5.69762
5.71731
5.73838
5.75172
5.75788
5.76084
5.7628
5.76387
5.76355
5.75964
5.75122
5.74074
5.73356
5.73648
5.75321
5.78115
5.81075
5.83296
5.84555
5.85041
5.85105
5.85323
5.85781
5.8629
5.86615
5.86358
5.85335
5.84029
5.83167
5.82955
5.83737
5.85399
5.86789
5.8745
5.87424
5.86801
5.85859
5.85121
5.8466
5.84403
5.8402
5.8338
5.82221
5.80361
5.77523
5.73329
5.67379
5.59189
5.48423
5.35496
5.22085
5.10584
5.02992
4.9941
4.9874
1.40001
1.40001
1.40001
1.40001
1.40001
1.40001
1.40001
1.40001
1.40001
1.40001
1.40001
1.40001
1.40001
1.40001
1.40001
1.40001
1.40001
1.40001
1.40001
1.40001
1.40001
1.40001
1.40001
1.40001
1.40001
1.40001
1.40001
1.40001
1.40001
1.40001
1.40001
1.40001
1.40001
1.40001
1.40001
1.40001
1.40001
1.40001
1.40001
1.40001
1.40001
1.40001
1.40001
1.40001
1.40001
1.40001
1.40001
1.40001
1.40001
1.40001
1.40001
1.40001
1.40001
1.40001
1.40001
1.40001
1.40001
1.40001
1.40001
1.40001
1.40001
1.40001
1.40001
1.40001
1.40001
1.40001
1.40001
1.40001
1.40001
1.40001
1.40001
1.40001
1.40001
1.40001
1.40001
1.40001
1.40001
1.40001
1.40001
1.40001
1.40001
1.40001
1.40001
1.40001
1.40001
1.40001
1.40001
1.40001
1.40001
1.40001
1.40001
1.40001
1.40001
1.40001
1.40001
1.40001
1.40001
1.40001
1.40001
1.40001
1.40001
1.40001
1.40001
1.40001
1.40001
1.40001
1.40001
1.40001
1.40001
1.40001
1.51922
4.3008
5.49164
5.45398
5.43466
5.4444
5.47887
5.52543
5.56879
5.60218
5.62249
5.62977
5.62357
5.60682
5.58843
5.58053
5.59372
5.6283
5.66307
5.68826
5.70091
5.70314
5.6929
5.68045
5.67575
5.67661
5.6835
5.69576
5.71355
5.73344
5.74649
5.7531
5.75687
5.75979
5.76182
5.76209
5.75836
5.74993
5.73911
5.73216
5.73602
5.75342
5.7819
5.81133
5.83266
5.84383
5.84723
5.84706
5.84928
5.85481
5.86148
5.86608
5.86409
5.8535
5.83927
5.82915
5.82587
5.83286
5.84948
5.86402
5.87157
5.87209
5.8662
5.85665
5.8488
5.84387
5.84134
5.83795
5.83261
5.82204
5.804
5.77565
5.73305
5.67226
5.58878
5.47977
5.34974
5.21564
5.10112
5.02595
4.99053
4.98429
1.40001
1.40001
1.40001
1.40001
1.40001
1.40001
1.40001
1.40001
1.40001
1.40001
1.40001
1.40001
1.40001
1.40001
1.40001
1.40001
1.40001
1.40001
1.40001
1.40001
1.40001
1.40001
1.40001
1.40001
1.40001
1.40001
1.40001
1.40001
1.40001
1.40001
1.40001
1.40001
1.40001
1.40001
1.40001
1.40001
1.40001
1.40001
1.40001
1.40001
1.40001
1.40001
1.40001
1.40001
1.40001
1.40001
1.40001
1.40001
1.40001
1.40001
1.40001
1.40001
1.40001
1.40001
1.40001
1.40001
1.40001
1.40001
1.40001
1.40001
1.40001
1.40001
1.40001
1.40001
1.40001
1.40001
1.40001
1.40001
1.40001
1.40001
1.40001
1.40001
1.40001
1.40001
1.40001
1.40001
1.40001
1.40001
1.40001
1.40001
1.40001
1.40001
1.40001
1.40001
1.40001
1.40001
1.40001
1.40001
1.40001
1.40001
1.40001
1.40001
1.40001
1.40001
1.40001
1.40001
1.40001
1.40001
1.40001
1.40001
1.40001
1.40001
1.40001
1.40001
1.40001
1.40001
1.40001
1.40001
1.40001
1.40001
1.43631
4.16857
5.50052
5.45919
5.44526
5.45494
5.48516
5.52799
5.5715
5.60442
5.62501
5.62936
5.62195
5.60396
5.58338
5.5763
5.58984
5.62452
5.65915
5.68493
5.69908
5.70198
5.69137
5.6811
5.67687
5.67703
5.68286
5.69343
5.70911
5.72791
5.74101
5.74839
5.75308
5.75686
5.75967
5.76038
5.75669
5.74818
5.73721
5.73082
5.73581
5.7541
5.78295
5.81195
5.83231
5.84195
5.84375
5.84278
5.84496
5.8514
5.8596
5.86554
5.86423
5.8535
5.83823
5.82671
5.82227
5.8283
5.84475
5.85984
5.86833
5.86969
5.86426
5.85459
5.84619
5.84086
5.83842
5.83561
5.83149
5.82205
5.80461
5.77631
5.73296
5.6708
5.58583
5.47571
5.34522
5.2112
5.09699
5.0222
4.98687
4.9809
1.40001
1.40001
1.40001
1.40001
1.40001
1.40001
1.40001
1.40001
1.40001
1.40001
1.40001
1.40001
1.40001
1.40001
1.40001
1.40001
1.40001
1.40001
1.40001
1.40001
1.40001
1.40001
1.40001
1.40001
1.40001
1.40001
1.40001
1.40001
1.40001
1.40001
1.40001
1.40001
1.40001
1.40001
1.40001
1.40001
1.40001
1.40001
1.40001
1.40001
1.40001
1.40001
1.40001
1.40001
1.40001
1.40001
1.40001
1.40001
1.40001
1.40001
1.40001
1.40001
1.40001
1.40001
1.40001
1.40001
1.40001
1.40001
1.40001
1.40001
1.40001
1.40001
1.40001
1.40001
1.40001
1.40001
1.40001
1.40001
1.40001
1.40001
1.40001
1.40001
1.40001
1.40001
1.40001
1.40001
1.40001
1.40001
1.40001
1.40001
1.40001
1.40001
1.40001
1.40001
1.40001
1.40001
1.40001
1.40001
1.40001
1.40001
1.40001
1.40001
1.40001
1.40001
1.40001
1.40001
1.40001
1.40001
1.40001
1.40001
1.40001
1.40001
1.40001
1.40001
1.40001
1.40001
1.40001
1.40001
1.40001
1.40001
1.40071
4.04169
5.49861
5.45984
5.44888
5.4581
5.48449
5.5269
5.57209
5.60501
5.62603
5.62899
5.61933
5.5987
5.57784
5.57221
5.58607
5.62062
5.65552
5.68207
5.69739
5.70069
5.69015
5.68215
5.67825
5.67731
5.68183
5.69048
5.70403
5.72191
5.73539
5.74381
5.74949
5.75406
5.75749
5.75848
5.75469
5.74597
5.735
5.72955
5.73584
5.75509
5.78409
5.8124
5.83165
5.83988
5.84007
5.83827
5.84048
5.84782
5.85741
5.86448
5.86384
5.85312
5.83703
5.82432
5.81887
5.82389
5.83996
5.85546
5.86476
5.86695
5.86204
5.85231
5.84334
5.83762
5.83536
5.83328
5.83049
5.82219
5.80536
5.77708
5.73303
5.66961
5.58322
5.47209
5.34125
5.20732
5.09324
5.01855
4.98309
4.97723
1.40001
1.40001
1.40001
1.40001
1.40001
1.40001
1.40001
1.40001
1.40001
1.40001
1.40001
1.40001
1.40001
1.40001
1.40001
1.40001
1.40001
1.40001
1.40001
1.40001
1.40001
1.40001
1.40001
1.40001
1.40001
1.40001
1.40001
1.40001
1.40001
1.40001
1.40001
1.40001
1.40001
1.40001
1.40001
1.40001
1.40001
1.40001
1.40001
1.40001
1.40001
1.40001
1.40001
1.40001
1.40001
1.40001
1.40001
1.40001
1.40001
1.40001
1.40001
1.40001
1.40001
1.40001
1.40001
1.40001
1.40001
1.40001
1.40001
1.40001
1.40001
1.40001
1.40001
1.40001
1.40001
1.40001
1.40001
1.40001
1.40001
1.40001
1.40001
1.40001
1.40001
1.40001
1.40001
1.40001
1.40001
1.40001
1.40001
1.40001
1.40001
1.40001
1.40001
1.40001
1.40001
1.40001
1.40001
1.40001
1.40001
1.40001
1.40001
1.40001
1.40001
1.40001
1.40001
1.40001
1.40001
1.40001
1.40001
1.40001
1.40001
1.40001
1.40001
1.40001
1.40001
1.40001
1.40001
1.40001
1.40001
1.40001
1.40001
3.89019
5.48437
5.4567
5.44594
5.45619
5.48171
5.52551
5.5717
5.60484
5.62541
5.62839
5.61596
5.59144
5.57231
5.5686
5.58292
5.61683
5.65242
5.67977
5.69582
5.69933
5.68967
5.68345
5.67961
5.67719
5.68015
5.68676
5.69852
5.71577
5.72984
5.73933
5.74602
5.75139
5.75539
5.75658
5.75256
5.74344
5.7326
5.7285
5.73619
5.75633
5.78516
5.81254
5.83045
5.83734
5.83609
5.83354
5.836
5.84432
5.8551
5.86298
5.8628
5.85208
5.83542
5.82182
5.81559
5.81966
5.83517
5.85097
5.86091
5.86382
5.85945
5.84971
5.84021
5.83416
5.83221
5.83103
5.82964
5.82247
5.80618
5.77785
5.73313
5.66859
5.58093
5.4689
5.33777
5.20393
5.08994
5.01522
4.97956
4.97362
1.40001
1.40001
1.40001
1.40001
1.40001
1.40001
1.40001
1.40001
1.40001
1.40001
1.40001
1.40001
1.40001
1.40001
1.40001
1.40001
1.40001
1.40001
1.40001
1.40001
1.40001
1.40001
1.40001
1.40001
1.40001
1.40001
1.40001
1.40001
1.40001
1.40001
1.40001
1.40001
1.40001
1.40001
1.40001
1.40001
1.40001
1.40001
1.40001
1.40001
1.40001
1.40001
1.40001
1.40001
1.40001
1.40001
1.40001
1.40001
1.40001
1.40001
1.40001
1.40001
1.40001
1.40001
1.40001
1.40001
1.40001
1.40001
1.40001
1.40001
1.40001
1.40001
1.40001
1.40001
1.40001
1.40001
1.40001
1.40001
1.40001
1.40001
1.40001
1.40001
1.40001
1.40001
1.40001
1.40001
1.40001
1.40001
1.40001
1.40001
1.40001
1.40001
1.40001
1.40001
1.40001
1.40001
1.40001
1.40001
1.40001
1.40001
1.40001
1.40001
1.40001
1.40001
1.40001
1.40001
1.40001
1.40001
1.40001
1.40001
1.40001
1.40001
1.40001
1.40001
1.40001
1.40001
1.40001
1.40001
1.40001
1.40001
1.40001
3.73055
5.46471
5.44873
5.43972
5.45328
5.47917
5.52433
5.57085
5.60458
5.62375
5.62632
5.61132
5.58347
5.56754
5.5655
5.58014
5.61342
5.64998
5.678
5.69435
5.69794
5.69008
5.68488
5.68054
5.6764
5.67766
5.68225
5.69288
5.70985
5.72454
5.73486
5.74246
5.74869
5.75333
5.75468
5.75038
5.74078
5.73027
5.7279
5.73696
5.75773
5.78595
5.81219
5.82861
5.83404
5.83156
5.8286
5.83162
5.84112
5.85299
5.86127
5.86118
5.85035
5.83325
5.81903
5.8123
5.81557
5.83042
5.84646
5.85684
5.86035
5.85643
5.8467
5.83676
5.83052
5.82901
5.82893
5.82895
5.82284
5.80706
5.77855
5.73317
5.66761
5.57884
5.46601
5.33466
5.20086
5.08694
5.01216
4.97637
4.97036
1.40001
1.40001
1.40001
1.40001
1.40001
1.40001
1.40001
1.40001
1.40001
1.40001
1.40001
1.40001
1.40001
1.40001
1.40001
1.40001
1.40001
1.40001
1.40001
1.40001
1.40001
1.40001
1.40001
1.40001
1.40001
1.40001
1.40001
1.40001
1.40001
1.40001
1.40001
1.40001
1.40001
1.40001
1.40001
1.40001
1.40001
1.40001
1.40001
1.40001
1.40001
1.40001
1.40001
1.40001
1.40001
1.40001
1.40001
1.40001
1.40001
1.40001
1.40001
1.40001
1.40001
1.40001
1.40001
1.40001
1.40001
1.40001
1.40001
1.40001
1.40001
1.40001
1.40001
1.40001
1.40001
1.40001
1.40001
1.40001
1.40001
1.40001
1.40001
1.40001
1.40001
1.40001
1.40001
1.40001
1.40001
1.40001
1.40001
1.40001
1.40001
1.40001
1.40001
1.40001
1.40001
1.40001
1.40001
1.40001
1.40001
1.40001
1.40001
1.40001
1.40001
1.40001
1.40001
1.40001
1.40001
1.40001
1.40001
1.40001
1.40001
1.40001
1.40001
1.40001
1.40001
1.40001
1.40001
1.40001
1.40001
1.40001
1.40001
3.5645
5.43883
5.44201
5.43456
5.45052
5.47773
5.524
5.57086
5.60521
5.62246
5.62266
5.60461
5.57649
5.56365
5.562
5.57748
5.61062
5.64813
5.67689
5.69322
5.69639
5.69112
5.68625
5.68064
5.67464
5.67421
5.67727
5.68738
5.70434
5.71948
5.73029
5.73868
5.74587
5.75123
5.75274
5.74823
5.73828
5.72841
5.72798
5.73834
5.75922
5.78635
5.81118
5.82594
5.82979
5.82637
5.82341
5.82741
5.83835
5.85123
5.85954
5.85916
5.84797
5.83041
5.81576
5.80877
5.81144
5.82566
5.84193
5.85264
5.85661
5.853
5.84325
5.83295
5.82665
5.82575
5.82695
5.8284
5.82331
5.80792
5.77912
5.73308
5.66662
5.57686
5.46335
5.33181
5.19803
5.08414
5.00932
4.97353
4.96754
1.40001
1.40001
1.40001
1.40001
1.40001
1.40001
1.40001
1.40001
1.40001
1.40001
1.40001
1.40001
1.40001
1.40001
1.40001
1.40001
1.40001
1.40001
1.40001
1.40001
1.40001
1.40001
1.40001
1.40001
1.40001
1.40001
1.40001
1.40001
1.40001
1.40001
1.40001
1.40001
1.40001
1.40001
1.40001
1.40001
1.40001
1.40001
1.40001
1.40001
1.40001
1.40001
1.40001
1.40001
1.40001
1.40001
1.40001
1.40001
1.40001
1.40001
1.40001
1.40001
1.40001
1.40001
1.40001
1.40001
1.40001
1.40001
1.40001
1.40001
1.40001
1.40001
1.40001
1.40001
1.40001
1.40001
1.40001
1.40001
1.40001
1.40001
1.40001
1.40001
1.40001
1.40001
1.40001
1.40001
1.40001
1.40001
1.40001
1.40001
1.40001
1.40001
1.40001
1.40001
1.40001
1.40001
1.40001
1.40001
1.40001
1.40001
1.40001
1.40001
1.40001
1.40001
1.40001
1.40001
1.40001
1.40001
1.40001
1.40001
1.40001
1.40001
1.40001
1.40001
1.40001
1.40001
1.40001
1.40001
1.40001
1.40001
1.40001
3.38769
5.4055
5.44028
5.43081
5.44809
5.47805
5.52497
5.57202
5.60665
5.62212
5.61857
5.59496
5.57097
5.55987
5.55798
5.57545
5.60839
5.64655
5.67655
5.69274
5.695
5.69197
5.687
5.6792
5.67176
5.67002
5.67226
5.68229
5.6992
5.71448
5.72552
5.73467
5.7429
5.74901
5.75067
5.74601
5.73613
5.72744
5.72897
5.74036
5.76059
5.78622
5.80943
5.82236
5.82449
5.8205
5.818
5.82333
5.83598
5.8498
5.85796
5.85702
5.84512
5.82697
5.81191
5.80482
5.80708
5.82077
5.83736
5.84841
5.85274
5.84928
5.83941
5.82879
5.82251
5.82235
5.82505
5.82793
5.8238
5.80869
5.77949
5.7328
5.66556
5.57496
5.46085
5.32917
5.1954
5.08152
5.00664
4.97097
4.96511
1.40001
1.40001
1.40001
1.40001
1.40001
1.40001
1.40001
1.40001
1.40001
1.40001
1.40001
1.40001
1.40001
1.40001
1.40001
1.40001
1.40001
1.40001
1.40001
1.40001
1.40001
1.40001
1.40001
1.40001
1.40001
1.40001
1.40001
1.40001
1.40001
1.40001
1.40001
1.40001
1.40001
1.40001
1.40001
1.40001