/*--------------------------------*- C++ -*----------------------------------*\
  =========                 |
  \\      /  F ield         | OpenFOAM: The Open Source CFD Toolbox
   \\    /   O peration     | Website:  https://openfoam.org
    \\  /    A nd           | Version:  7
     \\/     M anipulation  |
\*---------------------------------------------------------------------------*/
FoamFile
{
    version     2.0;
    format      ascii;
    class       volScalarField;
    location    "0.9";
    object      T;
}
// * * * * * * * * * * * * * * * * * * * * * * * * * * * * * * * * * * * * * //

dimensions      [0 0 0 1 0 0 0];

internalField   nonuniform List<scalar> 
258048
(
1
1
1
1
1
1
1
1
1
1
1
1
1
1
1
1
1
1
1
1
1
1
1
1
1
1
1
1
1
1
1
1
1
1
1
1
1
1
1
1
1
1
1
1
1
1
1
1
1
1
1
1
1
1
1
1
1
1
1
1
1
1
1
1
1
1
1
1
1
1
1
1
1
1
1
1
1
1
1
1
1
1
1
1
1
1
1
1
1
1
1
1
1
1
1
1
1
1
1
1
1
1
1
1
1
1
1
1
1
1
1.58065
2.66014
2.72995
2.72474
2.72988
2.74681
2.76852
2.78736
2.79799
2.79753
2.79274
2.78587
2.78025
2.77917
2.78195
2.78946
2.8002
2.81319
2.82059
2.8218
2.82004
2.81695
2.81423
2.81388
2.81496
2.81692
2.81984
2.82346
2.82803
2.83292
2.83706
2.84024
2.84248
2.84369
2.84404
2.8439
2.84326
2.84245
2.84222
2.84241
2.84358
2.84786
2.85366
2.85973
2.86496
2.86917
2.87258
2.87519
2.87707
2.87847
2.87944
2.88015
2.87997
2.87902
2.87854
2.87914
2.88055
2.88394
2.88877
2.89303
2.89625
2.89799
2.89858
2.89983
2.90239
2.90598
2.91102
2.9176
2.9249
2.93245
2.94079
2.95104
2.96557
2.98791
3.02321
3.07691
3.15134
3.24074
3.32927
3.39711
3.43323
3.44402
1
1
1
1
1
1
1
1
1
1
1
1
1
1
1
1
1
1
1
1
1
1
1
1
1
1
1
1
1
1
1
1
1
1
1
1
1
1
1
1
1
1
1
1
1
1
1
1
1
1
1
1
1
1
1
1
1
1
1
1
1
1
1
1
1
1
1
1
1
1
1
1
1
1
1
1
1
1
1
1
1
1
1
1
1
1
1
1
1
1
1
1
1
1
1
1
1
1
1
1
1
1
1
1
1
1
1
1
1
1
1.57785
2.65869
2.73008
2.72366
2.72999
2.74706
2.76879
2.78703
2.79806
2.79753
2.79303
2.78626
2.78049
2.77906
2.78194
2.78949
2.8003
2.81319
2.82059
2.8218
2.82001
2.81694
2.81426
2.81389
2.81501
2.817
2.81994
2.82353
2.82808
2.83295
2.83707
2.84022
2.84244
2.84364
2.84399
2.84388
2.84326
2.84247
2.84226
2.84244
2.84361
2.84788
2.85368
2.85976
2.86498
2.86915
2.87251
2.87508
2.87695
2.87836
2.87938
2.88016
2.88003
2.87909
2.8786
2.87918
2.88053
2.88386
2.88868
2.89293
2.89616
2.89792
2.89851
2.89976
2.90231
2.90594
2.91103
2.91765
2.92498
2.93252
2.94085
2.95111
2.96567
2.98808
3.02346
3.07727
3.15177
3.24118
3.32958
3.39723
3.43321
3.44392
1
1
1
1
1
1
1
1
1
1
1
1
1
1
1
1
1
1
1
1
1
1
1
1
1
1
1
1
1
1
1
1
1
1
1
1
1
1
1
1
1
1
1
1
1
1
1
1
1
1
1
1
1
1
1
1
1
1
1
1
1
1
1
1
1
1
1
1
1
1
1
1
1
1
1
1
1
1
1
1
1
1
1
1
1
1
1
1
1
1
1
1
1
1
1
1
1
1
1
1
1
1
1
1
1
1
1
1
1
1
1.568
2.65411
2.72947
2.7229
2.73026
2.74779
2.76951
2.78716
2.79822
2.79748
2.7932
2.7865
2.78068
2.77889
2.78193
2.7896
2.80054
2.81322
2.82058
2.82176
2.81994
2.81684
2.81423
2.81384
2.81499
2.81698
2.81992
2.82346
2.828
2.83286
2.83698
2.84011
2.84231
2.84347
2.84384
2.84377
2.8432
2.84246
2.84226
2.84244
2.8436
2.84788
2.8537
2.8598
2.86501
2.86916
2.87246
2.87496
2.87679
2.87821
2.87926
2.88013
2.88008
2.87917
2.87869
2.87925
2.88053
2.88376
2.88854
2.89279
2.89605
2.89782
2.89842
2.89967
2.90222
2.90587
2.91104
2.91775
2.92514
2.93274
2.9411
2.95143
2.96609
2.98869
3.02435
3.07848
3.15319
3.24256
3.33064
3.3978
3.43341
3.44394
1
1
1
1
1
1
1
1
1
1
1
1
1
1
1
1
1
1
1
1
1
1
1
1
1
1
1
1
1
1
1
1
1
1
1
1
1
1
1
1
1
1
1
1
1
1
1
1
1
1
1
1
1
1
1
1
1
1
1
1
1
1
1
1
1
1
1
1
1
1
1
1
1
1
1
1
1
1
1
1
1
1
1
1
1
1
1
1
1
1
1
1
1
1
1
1
1
1
1
1
1
1
1
1
1
1
1
1
1
1
1.55222
2.64597
2.72843
2.7222
2.73062
2.74887
2.77042
2.78772
2.79839
2.79756
2.79342
2.78655
2.78077
2.7787
2.78196
2.78982
2.8009
2.81332
2.82055
2.82164
2.81977
2.81666
2.81419
2.81384
2.81503
2.81703
2.81993
2.8234
2.8279
2.83277
2.83687
2.83997
2.84212
2.84326
2.84364
2.84363
2.84313
2.84243
2.84226
2.84242
2.84356
2.84786
2.85373
2.85987
2.8651
2.86921
2.87242
2.87482
2.87658
2.87799
2.87909
2.88008
2.88014
2.87926
2.87878
2.87931
2.88052
2.88364
2.88836
2.8926
2.89587
2.89766
2.89828
2.89952
2.90208
2.90578
2.91106
2.91789
2.92538
2.93306
2.94151
2.95199
2.96689
2.98988
3.02609
3.08082
3.15593
3.24522
3.33269
3.39899
3.43396
3.44419
1
1
1
1
1
1
1
1
1
1
1
1
1
1
1
1
1
1
1
1
1
1
1
1
1
1
1
1
1
1
1
1
1
1
1
1
1
1
1
1
1
1
1
1
1
1
1
1
1
1
1
1
1
1
1
1
1
1
1
1
1
1
1
1
1
1
1
1
1
1
1
1
1
1
1
1
1
1
1
1
1
1
1
1
1
1
1
1
1
1
1
1
1
1
1
1
1
1
1
1
1
1
1
1
1
1
1
1
1
1
1.53012
2.63421
2.72683
2.72152
2.73119
2.75033
2.77137
2.78862
2.7986
2.79774
2.79359
2.78631
2.78063
2.77844
2.78196
2.79011
2.80128
2.81347
2.82049
2.82141
2.81946
2.81636
2.8141
2.81385
2.81514
2.81713
2.81995
2.82332
2.82777
2.83262
2.83669
2.83975
2.84186
2.84296
2.84337
2.84344
2.84301
2.84237
2.84222
2.84235
2.84345
2.84777
2.85372
2.85993
2.8652
2.86929
2.87241
2.87466
2.87634
2.87774
2.87888
2.87999
2.88017
2.87932
2.87885
2.87935
2.88049
2.8835
2.88816
2.89237
2.89564
2.89745
2.89809
2.89934
2.9019
2.90567
2.91106
2.91802
2.92564
2.93343
2.942
2.95272
2.968
2.99158
3.02862
3.08423
3.15992
3.24909
3.33571
3.40084
3.43499
3.44489
1
1
1
1
1
1
1
1
1
1
1
1
1
1
1
1
1
1
1
1
1
1
1
1
1
1
1
1
1
1
1
1
1
1
1
1
1
1
1
1
1
1
1
1
1
1
1
1
1
1
1
1
1
1
1
1
1
1
1
1
1
1
1
1
1
1
1
1
1
1
1
1
1
1
1
1
1
1
1
1
1
1
1
1
1
1
1
1
1
1
1
1
1
1
1
1
1
1
1
1
1
1
1
1
1
1
1
1
1
1
1.50089
2.61828
2.72455
2.72099
2.73227
2.75227
2.77237
2.7898
2.79887
2.79801
2.79364
2.78577
2.78018
2.77803
2.78189
2.7904
2.80167
2.81364
2.82035
2.82103
2.81898
2.81592
2.81396
2.81386
2.81532
2.81726
2.81998
2.82322
2.82759
2.83238
2.83642
2.83944
2.8415
2.8426
2.84306
2.8432
2.84285
2.84225
2.84212
2.8422
2.84324
2.84761
2.85366
2.85998
2.86532
2.8694
2.87242
2.8745
2.87608
2.87748
2.87866
2.87986
2.88014
2.87932
2.87885
2.87932
2.88042
2.88333
2.88794
2.8921
2.89536
2.89717
2.89784
2.89911
2.9017
2.90554
2.91103
2.91809
2.92583
2.93375
2.94248
2.95348
2.96924
2.99359
3.03167
3.08839
3.16481
3.25387
3.33948
3.40329
3.43652
3.4461
1
1
1
1
1
1
1
1
1
1
1
1
1
1
1
1
1
1
1
1
1
1
1
1
1
1
1
1
1
1
1
1
1
1
1
1
1
1
1
1
1
1
1
1
1
1
1
1
1
1
1
1
1
1
1
1
1
1
1
1
1
1
1
1
1
1
1
1
1
1
1
1
1
1
1
1
1
1
1
1
1
1
1
1
1
1
1
1
1
1
1
1
1
1
1
1
1
1
1
1
1
1
1
1
1
1
1
1
1
1
1.46462
2.59764
2.72136
2.72091
2.7344
2.75469
2.77368
2.7912
2.79919
2.79824
2.79329
2.78495
2.77929
2.77748
2.78177
2.79072
2.80211
2.81381
2.82013
2.82045
2.81828
2.81532
2.81374
2.81386
2.81554
2.81742
2.82002
2.82311
2.82735
2.83207
2.83605
2.83902
2.84105
2.84217
2.84268
2.84292
2.84264
2.84208
2.84194
2.84196
2.84295
2.84737
2.85354
2.85999
2.86541
2.8695
2.87242
2.87432
2.8758
2.87722
2.87846
2.87973
2.88007
2.87925
2.87876
2.87921
2.88028
2.88312
2.88767
2.8918
2.89503
2.89684
2.89754
2.89883
2.90146
2.90537
2.91095
2.91809
2.92591
2.93396
2.94286
2.95416
2.97046
2.99564
3.03487
3.09284
3.17011
3.2591
3.3437
3.40616
3.43848
3.44779
1
1
1
1
1
1
1
1
1
1
1
1
1
1
1
1
1
1
1
1
1
1
1
1
1
1
1
1
1
1
1
1
1
1
1
1
1
1
1
1
1
1
1
1
1
1
1
1
1
1
1
1
1
1
1
1
1
1
1
1
1
1
1
1
1
1
1
1
1
1
1
1
1
1
1
1
1
1
1
1
1
1
1
1
1
1
1
1
1
1
1
1
1
1
1
1
1
1
1
1
1
1
1
1
1
1
1
1
1
1
1.42184
2.57193
2.71754
2.72204
2.73781
2.75732
2.77578
2.7927
2.79944
2.79828
2.79236
2.7838
2.77807
2.7769
2.78169
2.79115
2.80261
2.81392
2.81977
2.81967
2.8173
2.81456
2.81345
2.81388
2.8158
2.81762
2.82006
2.82298
2.82705
2.83166
2.83555
2.83847
2.84047
2.84164
2.84226
2.8426
2.84239
2.84186
2.84169
2.84166
2.84262
2.84707
2.85336
2.85997
2.86547
2.86955
2.87237
2.87408
2.87549
2.87694
2.87828
2.87962
2.88001
2.87915
2.87858
2.87898
2.88002
2.88281
2.88733
2.89145
2.89465
2.89647
2.8972
2.89851
2.90118
2.90516
2.91081
2.918
2.9259
2.93405
2.9431
2.9547
2.9715
2.9975
3.03786
3.09709
3.17526
3.26429
3.34796
3.40919
3.44068
3.44979
1
1
1
1
1
1
1
1
1
1
1
1
1
1
1
1
1
1
1
1
1
1
1
1
1
1
1
1
1
1
1
1
1
1
1
1
1
1
1
1
1
1
1
1
1
1
1
1
1
1
1
1
1
1
1
1
1
1
1
1
1
1
1
1
1
1
1
1
1
1
1
1
1
1
1
1
1
1
1
1
1
1
1
1
1
1
1
1
1
1
1
1
1
1
1
1
1
1
1
1
1
1
1
1
1
1
1
1
1
1
1.37266
2.54115
2.71421
2.72453
2.74207
2.7601
2.77883
2.79408
2.79942
2.79781
2.79073
2.78226
2.7767
2.77634
2.78179
2.79178
2.80317
2.81392
2.81919
2.81875
2.8161
2.81371
2.81312
2.81393
2.81607
2.81782
2.8201
2.82281
2.82667
2.83114
2.83493
2.83778
2.83979
2.84103
2.84178
2.84225
2.84211
2.84162
2.84137
2.84129
2.84228
2.84673
2.85317
2.85993
2.86548
2.86952
2.8722
2.87375
2.87511
2.87665
2.87811
2.87955
2.87997
2.87904
2.87834
2.87863
2.87962
2.88237
2.88689
2.89103
2.89423
2.89607
2.89683
2.89815
2.90084
2.90487
2.91056
2.91779
2.92579
2.93404
2.94323
2.95507
2.9723
2.99899
3.04035
3.10073
3.17979
3.26895
3.35189
3.41209
3.44289
3.45187
1
1
1
1
1
1
1
1
1
1
1
1
1
1
1
1
1
1
1
1
1
1
1
1
1
1
1
1
1
1
1
1
1
1
1
1
1
1
1
1
1
1
1
1
1
1
1
1
1
1
1
1
1
1
1
1
1
1
1
1
1
1
1
1
1
1
1
1
1
1
1
1
1
1
1
1
1
1
1
1
1
1
1
1
1
1
1
1
1
1
1
1
1
1
1
1
1
1
1
1
1
1
1
1
1
1
1
1
1
1
1.31734
2.50516
2.7119
2.72862
2.74722
2.76367
2.78213
2.7951
2.79878
2.79641
2.78838
2.78026
2.77548
2.77586
2.78226
2.79267
2.80377
2.81381
2.81837
2.81758
2.81475
2.8128
2.81271
2.81401
2.81634
2.81802
2.82012
2.8226
2.82622
2.83051
2.83418
2.83698
2.839
2.84033
2.84123
2.84184
2.84178
2.84133
2.84101
2.84088
2.84194
2.84643
2.85302
2.85989
2.86544
2.86937
2.87189
2.87328
2.87465
2.8763
2.87793
2.87952
2.87997
2.87894
2.87805
2.87819
2.87908
2.88177
2.88632
2.89052
2.89377
2.89565
2.89644
2.89775
2.90044
2.90447
2.91018
2.91743
2.92554
2.93394
2.94326
2.95529
2.97284
3.00005
3.04217
3.10349
3.18333
3.2727
3.35515
3.41459
3.44484
3.45377
1
1
1
1
1
1
1
1
1
1
1
1
1
1
1
1
1
1
1
1
1
1
1
1
1
1
1
1
1
1
1
1
1
1
1
1
1
1
1
1
1
1
1
1
1
1
1
1
1
1
1
1
1
1
1
1
1
1
1
1
1
1
1
1
1
1
1
1
1
1
1
1
1
1
1
1
1
1
1
1
1
1
1
1
1
1
1
1
1
1
1
1
1
1
1
1
1
1
1
1
1
1
1
1
1
1
1
1
1
1
1.25689
2.46368
2.70987
2.73418
2.75345
2.76838
2.78496
2.79551
2.7972
2.79393
2.78535
2.778
2.7746
2.77577
2.7832
2.79382
2.80432
2.8135
2.81722
2.81611
2.81326
2.81185
2.81225
2.81414
2.8166
2.81821
2.82012
2.82233
2.82566
2.82976
2.83331
2.83607
2.83812
2.83955
2.84061
2.84137
2.8414
2.841
2.84062
2.84044
2.84164
2.84619
2.85292
2.85987
2.86534
2.8691
2.87141
2.87266
2.87406
2.87586
2.87772
2.87951
2.88003
2.87888
2.87776
2.87767
2.87843
2.881
2.88562
2.88992
2.89327
2.89522
2.89603
2.89733
2.89997
2.90396
2.90965
2.91692
2.92515
2.93372
2.94319
2.95538
2.97313
3.00064
3.04327
3.10525
3.18569
3.2753
3.35749
3.41647
3.44635
3.45529
1
1
1
1
1
1
1
1
1
1
1
1
1
1
1
1
1
1
1
1
1
1
1
1
1
1
1
1
1
1
1
1
1
1
1
1
1
1
1
1
1
1
1
1
1
1
1
1
1
1
1
1
1
1
1
1
1
1
1
1
1
1
1
1
1
1
1
1
1
1
1
1
1
1
1
1
1
1
1
1
1
1
1
1
1
1
1
1
1
1
1
1
1
1
1
1
1
1
1
1
1
1
1
1
1
1
1
1
1
1
1.1916
2.41726
2.70929
2.74145
2.76087
2.77385
2.78667
2.79495
2.79483
2.79048
2.78184
2.77567
2.77407
2.7762
2.78463
2.79521
2.80474
2.81295
2.81577
2.81438
2.81167
2.81085
2.81177
2.8143
2.81685
2.81836
2.82004
2.82194
2.82496
2.82889
2.83235
2.8351
2.8372
2.83872
2.83991
2.84082
2.84094
2.84059
2.84017
2.84
2.84137
2.84604
2.85288
2.85985
2.8652
2.86873
2.8708
2.87188
2.87333
2.87531
2.87744
2.87948
2.8801
2.87883
2.87747
2.87713
2.8777
2.88011
2.88478
2.88923
2.8927
2.89476
2.89561
2.89687
2.89943
2.90334
2.90899
2.91627
2.92464
2.93339
2.94301
2.95535
2.97321
3.00084
3.04369
3.10605
3.18687
3.27671
3.35882
3.41761
3.44731
3.45629
1
1
1
1
1
1
1
1
1
1
1
1
1
1
1
1
1
1
1
1
1
1
1
1
1
1
1
1
1
1
1
1
1
1
1
1
1
1
1
1
1
1
1
1
1
1
1
1
1
1
1
1
1
1
1
1
1
1
1
1
1
1
1
1
1
1
1
1
1
1
1
1
1
1
1
1
1
1
1
1
1
1
1
1
1
1
1
1
1
1
1
1
1
1
1
1
1
1
1
1
1
1
1
1
1
1
1
1
1
1
1.11981
2.36916
2.71222
2.75056
2.76867
2.77827
2.78734
2.79295
2.79185
2.78658
2.77863
2.77376
2.77359
2.77722
2.78653
2.79662
2.80489
2.81201
2.81399
2.81243
2.81
2.8098
2.81133
2.81456
2.81712
2.81848
2.81987
2.82142
2.8241
2.82788
2.83131
2.83412
2.83629
2.83787
2.83916
2.84017
2.84037
2.84007
2.83963
2.83951
2.84113
2.84594
2.85286
2.85983
2.86502
2.86828
2.87008
2.87098
2.87247
2.87464
2.87707
2.8794
2.88015
2.87878
2.87719
2.87657
2.87693
2.87915
2.88386
2.88844
2.89207
2.89425
2.89518
2.89638
2.89883
2.90263
2.90823
2.91553
2.92405
2.93298
2.94272
2.95519
2.9731
3.00075
3.04365
3.10615
3.18718
3.27718
3.35933
3.4181
3.44772
3.45678
1
1
1
1
1
1
1
1
1
1
1
1
1
1
1
1
1
1
1
1
1
1
1
1
1
1
1
1
1
1
1
1
1
1
1
1
1
1
1
1
1
1
1
1
1
1
1
1
1
1
1
1
1
1
1
1
1
1
1
1
1
1
1
1
1
1
1
1
1
1
1
1
1
1
1
1
1
1
1
1
1
1
1
1
1
1
1
1
1
1
1
1
1
1
1
1
1
1
1
1
1
1
1
1
1
1
1
1
1
1
1.0401
2.32557
2.72239
2.75919
2.77405
2.78036
2.78657
2.79009
2.78861
2.78293
2.77605
2.77248
2.7732
2.77866
2.78859
2.79781
2.80464
2.81063
2.8119
2.81031
2.80827
2.80869
2.811
2.81493
2.81742
2.81855
2.81956
2.8207
2.82305
2.82673
2.83022
2.83315
2.83542
2.83706
2.8384
2.83947
2.83972
2.83945
2.83898
2.83897
2.8409
2.84589
2.85287
2.85978
2.86481
2.86778
2.86926
2.87002
2.87151
2.87388
2.87659
2.8792
2.8801
2.87868
2.87688
2.87601
2.87615
2.87818
2.88289
2.88757
2.89135
2.89368
2.8947
2.89585
2.89816
2.90183
2.90739
2.91472
2.92341
2.93252
2.94234
2.95486
2.97277
3.00038
3.04327
3.10581
3.18696
3.27712
3.35939
3.41821
3.44777
3.45685
1
1
1
1
1
1
1
1
1
1
1
1
1
1
1
1
1
1
1
1
1
1
1
1
1
1
1
1
1
1
1
1
1
1
1
1
1
1
1
1
1
1
1
1
1
1
1
1
1
1
1
1
1
1
1
1
1
1
1
1
1
1
1
1
1
1
1
1
1
1
1
1
1
1
1
1
1
1
1
1
1
1
1
1
1
1
1
1
1
1
1
1
1
1
1
1
1
1
1
1
1
1
1
1
1
1
1
1
1
1
1.0006
2.28561
2.7308
2.76616
2.77649
2.7806
2.78445
2.78691
2.78527
2.77949
2.77383
2.77176
2.77335
2.78035
2.79064
2.79859
2.80386
2.80867
2.80946
2.808
2.80655
2.80771
2.8109
2.81542
2.81776
2.81856
2.81907
2.81972
2.82177
2.82547
2.82911
2.83224
2.83463
2.83631
2.83767
2.83874
2.83898
2.83874
2.83823
2.83836
2.84071
2.84585
2.85285
2.85967
2.86453
2.86721
2.86834
2.86899
2.8705
2.87306
2.87604
2.87888
2.87991
2.87847
2.87653
2.87542
2.87539
2.87724
2.88188
2.88664
2.89054
2.89304
2.89416
2.89524
2.89742
2.90096
2.9065
2.91388
2.92276
2.93204
2.94189
2.95438
2.97218
2.99964
3.04242
3.10497
3.18628
3.27668
3.35914
3.41807
3.44758
3.45666
1
1
1
1
1
1
1
1
1
1
1
1
1
1
1
1
1
1
1
1
1
1
1
1
1
1
1
1
1
1
1
1
1
1
1
1
1
1
1
1
1
1
1
1
1
1
1
1
1
1
1
1
1
1
1
1
1
1
1
1
1
1
1
1
1
1
1
1
1
1
1
1
1
1
1
1
1
1
1
1
1
1
1
1
1
1
1
1
1
1
1
1
1
1
1
1
1
1
1
1
1
1
1
1
1
1
1
1
1
1
1
2.24583
2.73719
2.77131
2.77651
2.77957
2.78201
2.78384
2.78186
2.77616
2.77177
2.77146
2.77429
2.78236
2.79251
2.79893
2.80267
2.8061
2.80661
2.80547
2.80487
2.80705
2.81121
2.81603
2.81809
2.81845
2.81835
2.81845
2.8203
2.8241
2.828
2.83136
2.83388
2.83562
2.83699
2.83803
2.83821
2.83796
2.83741
2.83775
2.84054
2.84581
2.85279
2.85947
2.86413
2.86654
2.86732
2.86791
2.86948
2.87225
2.87546
2.87845
2.87956
2.87812
2.87608
2.87479
2.87464
2.87634
2.88087
2.88566
2.88965
2.8923
2.89354
2.89455
2.89661
2.90004
2.90557
2.91303
2.92211
2.93154
2.94139
2.95378
2.97137
2.99855
3.04108
3.10357
3.18503
3.27573
3.3585
3.41761
3.44714
3.4562
1
1
1
1
1
1
1
1
1
1
1
1
1
1
1
1
1
1
1
1
1
1
1
1
1
1
1
1
1
1
1
1
1
1
1
1
1
1
1
1
1
1
1
1
1
1
1
1
1
1
1
1
1
1
1
1
1
1
1
1
1
1
1
1
1
1
1
1
1
1
1
1
1
1
1
1
1
1
1
1
1
1
1
1
1
1
1
1
1
1
1
1
1
1
1
1
1
1
1
1
1
1
1
1
1
1
1
1
1
1
1
2.20402
2.74305
2.77383
2.77524
2.77785
2.77936
2.7804
2.77797
2.77283
2.76991
2.77129
2.77617
2.78479
2.79416
2.79878
2.80102
2.80298
2.80335
2.80272
2.80323
2.80682
2.81203
2.81674
2.81832
2.81821
2.81735
2.81689
2.81872
2.82269
2.82691
2.8305
2.83315
2.83496
2.83636
2.83734
2.83743
2.83713
2.83659
2.83724
2.84041
2.84575
2.85266
2.85913
2.86355
2.8657
2.86619
2.86675
2.86848
2.87147
2.87489
2.87796
2.87908
2.87763
2.8755
2.87409
2.87387
2.87546
2.87984
2.88466
2.88871
2.89148
2.89282
2.89377
2.89571
2.89906
2.90462
2.9122
2.92148
2.93104
2.94085
2.95309
2.97038
2.99716
3.03932
3.1016
3.18317
3.27423
3.35743
3.41684
3.44647
3.45555
1
1
1
1
1
1
1
1
1
1
1
1
1
1
1
1
1
1
1
1
1
1
1
1
1
1
1
1
1
1
1
1
1
1
1
1
1
1
1
1
1
1
1
1
1
1
1
1
1
1
1
1
1
1
1
1
1
1
1
1
1
1
1
1
1
1
1
1
1
1
1
1
1
1
1
1
1
1
1
1
1
1
1
1
1
1
1
1
1
1
1
1
1
1
1
1
1
1
1
1
1
1
1
1
1
1
1
1
1
1
1
2.15979
2.74854
2.77433
2.77342
2.77574
2.77625
2.77616
2.7733
2.76932
2.76833
2.77183
2.77876
2.78779
2.79547
2.79787
2.79883
2.79939
2.79972
2.79996
2.80194
2.80694
2.81318
2.81749
2.8184
2.81772
2.81606
2.81515
2.81705
2.82125
2.82582
2.82961
2.83239
2.8343
2.83575
2.83669
2.83669
2.83631
2.83585
2.83691
2.84034
2.84568
2.85243
2.85864
2.86278
2.86465
2.86493
2.86552
2.86749
2.87075
2.87437
2.87744
2.87852
2.87701
2.87479
2.87328
2.87305
2.87455
2.87879
2.88365
2.88772
2.89059
2.89201
2.89288
2.89472
2.89803
2.90367
2.9114
2.92086
2.93055
2.94028
2.95231
2.96925
2.99555
3.03721
3.09916
3.18074
3.27217
3.35591
3.41577
3.44564
3.45478
1
1
1
1
1
1
1
1
1
1
1
1
1
1
1
1
1
1
1
1
1
1
1
1
1
1
1
1
1
1
1
1
1
1
1
1
1
1
1
1
1
1
1
1
1
1
1
1
1
1
1
1
1
1
1
1
1
1
1
1
1
1
1
1
1
1
1
1
1
1
1
1
1
1
1
1
1
1
1
1
1
1
1
1
1
1
1
1
1
1
1
1
1
1
1
1
1
1
1
1
1
1
1
1
1
1
1
1
1
1
1
2.1106
2.75333
2.77342
2.77131
2.77287
2.77226
2.77053
2.76782
2.76573
2.76711
2.7736
2.78199
2.79119
2.79613
2.79628
2.7961
2.79549
2.79604
2.79747
2.80119
2.80746
2.81438
2.81807
2.81823
2.81683
2.81445
2.81337
2.8154
2.81983
2.82469
2.82867
2.83159
2.83363
2.83514
2.83603
2.83597
2.83555
2.8353
2.83681
2.84034
2.84557
2.85207
2.85798
2.86178
2.86339
2.86353
2.86422
2.86651
2.87008
2.87387
2.87694
2.87794
2.87631
2.87397
2.87235
2.87212
2.87356
2.87769
2.88262
2.88671
2.88965
2.89112
2.89191
2.89366
2.89695
2.90269
2.9106
2.92026
2.93005
2.93968
2.95146
2.968
2.99377
3.03483
3.09633
3.17783
3.26959
3.35396
3.41441
3.44465
3.45394
1
1
1
1
1
1
1
1
1
1
1
1
1
1
1
1
1
1
1
1
1
1
1
1
1
1
1
1
1
1
1
1
1
1
1
1
1
1
1
1
1
1
1
1
1
1
1
1
1
1
1
1
1
1
1
1
1
1
1
1
1
1
1
1
1
1
1
1
1
1
1
1
1
1
1
1
1
1
1
1
1
1
1
1
1
1
1
1
1
1
1
1
1
1
1
1
1
1
1
1
1
1
1
1
1
1
1
1
1
1
1
2.05485
2.75559
2.77207
2.76904
2.76903
2.76667
2.76343
2.76187
2.76227
2.76696
2.77647
2.78565
2.79403
2.79594
2.79438
2.79289
2.79162
2.79264
2.79551
2.80102
2.80845
2.81538
2.81828
2.81769
2.8154
2.81263
2.81166
2.81378
2.8184
2.82349
2.82765
2.83075
2.83293
2.83449
2.83533
2.83527
2.83488
2.83502
2.83691
2.84038
2.84539
2.85156
2.85713
2.86058
2.86192
2.86204
2.8629
2.86554
2.86942
2.8734
2.87646
2.87735
2.87558
2.87306
2.8713
2.87104
2.87245
2.87651
2.88154
2.88568
2.88869
2.89017
2.89089
2.89254
2.89581
2.90168
2.90979
2.91965
2.92953
2.93904
2.95054
2.96664
2.99183
3.03224
3.09319
3.17452
3.26658
3.35162
3.41276
3.4435
3.45298
1
1
1
1
1
1
1
1
1
1
1
1
1
1
1
1
1
1
1
1
1
1
1
1
1
1
1
1
1
1
1
1
1
1
1
1
1
1
1
1
1
1
1
1
1
1
1
1
1
1
1
1
1
1
1
1
1
1
1
1
1
1
1
1
1
1
1
1
1
1
1
1
1
1
1
1
1
1
1
1
1
1
1
1
1
1
1
1
1
1
1
1
1
1
1
1
1
1
1
1
1
1
1
1
1
1
1
1
1
1
1
1.98991
2.75457
2.77099
2.76669
2.7638
2.75868
2.75548
2.75598
2.75997
2.76886
2.77998
2.78978
2.79541
2.79501
2.79217
2.78925
2.78814
2.78986
2.79435
2.80141
2.80989
2.81614
2.81795
2.81657
2.81356
2.81069
2.81001
2.81216
2.8169
2.82221
2.82659
2.82987
2.83217
2.83373
2.83453
2.83458
2.83439
2.83502
2.83715
2.84042
2.8451
2.85088
2.85608
2.85921
2.86029
2.8605
2.86159
2.86455
2.86874
2.87288
2.87595
2.87676
2.87484
2.87211
2.87015
2.86982
2.87119
2.87523
2.88038
2.88464
2.8877
2.88919
2.88985
2.89137
2.89463
2.90063
2.90894
2.91899
2.92896
2.93834
2.94955
2.96519
2.98977
3.02947
3.08982
3.17091
3.26323
3.34896
3.41084
3.44213
3.45184
1
1
1
1
1
1
1
1
1
1
1
1
1
1
1
1
1
1
1
1
1
1
1
1
1
1
1
1
1
1
1
1
1
1
1
1
1
1
1
1
1
1
1
1
1
1
1
1
1
1
1
1
1
1
1
1
1
1
1
1
1
1
1
1
1
1
1
1
1
1
1
1
1
1
1
1
1
1
1
1
1
1
1
1
1
1
1
1
1
1
1
1
1
1
1
1
1
1
1
1
1
1
1
1
1
1
1
1
1
1
1
1.91691
2.74989
2.76855
2.76246
2.75616
2.74903
2.74827
2.75157
2.76005
2.77308
2.78416
2.79325
2.79536
2.79345
2.78949
2.78547
2.7852
2.788
2.79401
2.80234
2.81144
2.81658
2.81707
2.81503
2.81148
2.80864
2.80834
2.81045
2.81531
2.8209
2.82552
2.82895
2.83131
2.83283
2.83362
2.83392
2.83413
2.83534
2.83746
2.8404
2.84468
2.84998
2.85479
2.85767
2.8586
2.85899
2.86036
2.86357
2.86799
2.87227
2.87536
2.87612
2.87411
2.87117
2.86896
2.86849
2.8698
2.87381
2.87909
2.88355
2.88669
2.8882
2.88881
2.89019
2.89341
2.89954
2.90803
2.91824
2.92829
2.93755
2.94848
2.96365
2.98761
3.0266
3.0863
3.16709
3.25964
3.34604
3.40868
3.44052
3.45046
1
1
1
1
1
1
1
1
1
1
1
1
1
1
1
1
1
1
1
1
1
1
1
1
1
1
1
1
1
1
1
1
1
1
1
1
1
1
1
1
1
1
1
1
1
1
1
1
1
1
1
1
1
1
1
1
1
1
1
1
1
1
1
1
1
1
1
1
1
1
1
1
1
1
1
1
1
1
1
1
1
1
1
1
1
1
1
1
1
1
1
1
1
1
1
1
1
1
1
1
1
1
1
1
1
1
1
1
1
1
1
1.83866
2.74065
2.76334
2.75549
2.746
2.74027
2.74241
2.75013
2.76291
2.77802
2.78897
2.79503
2.79451
2.79126
2.78639
2.78178
2.78244
2.7869
2.79432
2.80358
2.81241
2.81662
2.81614
2.8133
2.80925
2.80646
2.80655
2.80861
2.81364
2.8196
2.82448
2.82797
2.83027
2.83175
2.83266
2.8334
2.83416
2.83584
2.83775
2.84026
2.84408
2.84883
2.85325
2.85595
2.85692
2.85756
2.85923
2.86262
2.86716
2.87151
2.87463
2.87538
2.87336
2.87026
2.86778
2.86711
2.86832
2.87225
2.87766
2.88235
2.88564
2.88719
2.88776
2.88901
2.8922
2.89842
2.90706
2.91738
2.92749
2.93665
2.94731
2.96203
2.98537
3.02366
3.08271
3.16316
3.25588
3.34293
3.4063
3.43865
3.44879
1
1
1
1
1
1
1
1
1
1
1
1
1
1
1
1
1
1
1
1
1
1
1
1
1
1
1
1
1
1
1
1
1
1
1
1
1
1
1
1
1
1
1
1
1
1
1
1
1
1
1
1
1
1
1
1
1
1
1
1
1
1
1
1
1
1
1
1
1
1
1
1
1
1
1
1
1
1
1
1
1
1
1
1
1
1
1
1
1
1
1
1
1
1
1
1
1
1
1
1
1
1
1
1
1
1
1
1
1
1
1
1.75538
2.72256
2.75596
2.74678
2.73653
2.73443
2.73963
2.75166
2.76818
2.7833
2.79272
2.79495
2.79288
2.78864
2.78291
2.7786
2.78006
2.78613
2.79491
2.80483
2.81287
2.81607
2.8151
2.81156
2.80702
2.80421
2.80456
2.8067
2.81202
2.81838
2.82343
2.82686
2.82903
2.83051
2.83175
2.83308
2.83452
2.83637
2.83794
2.83998
2.84328
2.84743
2.85144
2.85409
2.85527
2.85626
2.85822
2.8617
2.86625
2.87058
2.87371
2.8745
2.87252
2.86936
2.86664
2.86573
2.86679
2.87056
2.87607
2.88102
2.8845
2.88613
2.88668
2.88787
2.89105
2.89733
2.90604
2.91639
2.92651
2.9356
2.94601
2.9603
2.98307
3.02068
3.07909
3.15916
3.25201
3.33965
3.4037
3.43652
3.44682
1
1
1
1
1
1
1
1
1
1
1
1
1
1
1
1
1
1
1
1
1
1
1
1
1
1
1
1
1
1
1
1
1
1
1
1
1
1
1
1
1
1
1
1
1
1
1
1
1
1
1
1
1
1
1
1
1
1
1
1
1
1
1
1
1
1
1
1
1
1
1
1
1
1
1
1
1
1
1
1
1
1
1
1
1
1
1
1
1
1
1
1
1
1
1
1
1
1
1
1
1
1
1
1
1
1
1
1
1
1
1
1.66418
2.69163
2.74774
2.73763
2.7296
2.73111
2.73992
2.75594
2.77463
2.78794
2.79437
2.79381
2.79049
2.78518
2.77899
2.7758
2.7782
2.78545
2.79556
2.80596
2.81296
2.81506
2.81381
2.80976
2.80479
2.80197
2.8025
2.80486
2.81059
2.81723
2.82228
2.82555
2.82759
2.8292
2.83097
2.83298
2.83507
2.83685
2.83798
2.83954
2.84229
2.84578
2.84941
2.85211
2.85363
2.85506
2.85731
2.86082
2.86527
2.8695
2.87259
2.87342
2.87156
2.86844
2.86554
2.8644
2.86528
2.86879
2.87434
2.87953
2.88321
2.88496
2.88556
2.88675
2.89
2.89629
2.90499
2.91527
2.92534
2.93437
2.94456
2.95846
2.98071
3.01769
3.07545
3.15512
3.24805
3.33624
3.40092
3.43415
3.44456
1
1
1
1
1
1
1
1
1
1
1
1
1
1
1
1
1
1
1
1
1
1
1
1
1
1
1
1
1
1
1
1
1
1
1
1
1
1
1
1
1
1
1
1
1
1
1
1
1
1
1
1
1
1
1
1
1
1
1
1
1
1
1
1
1
1
1
1
1
1
1
1
1
1
1
1
1
1
1
1
1
1
1
1
1
1
1
1
1
1
1
1
1
1
1
1
1
1
1
1
1
1
1
1
1
1
1
1
1
1
1
1.56304
2.64651
2.73839
2.72865
2.72581
2.73056
2.74362
2.76224
2.7802
2.79027
2.79373
2.79174
2.78744
2.78071
2.77486
2.77318
2.77674
2.7849
2.79633
2.80694
2.81277
2.81373
2.81218
2.80772
2.80253
2.79984
2.80058
2.80331
2.80941
2.81611
2.82096
2.82404
2.82605
2.82796
2.83037
2.83305
2.83561
2.83722
2.83784
2.83897
2.84113
2.84394
2.84721
2.85004
2.852
2.85392
2.85644
2.85994
2.86425
2.86831
2.87129
2.87217
2.87047
2.86747
2.86447
2.86313
2.86382
2.86698
2.8725
2.87787
2.88174
2.88365
2.88437
2.88567
2.88904
2.89534
2.90393
2.91404
2.92399
2.93294
2.94293
2.9565
2.97829
3.01469
3.07181
3.15104
3.24401
3.33269
3.39796
3.43154
3.44205
1
1
1
1
1
1
1
1
1
1
1
1
1
1
1
1
1
1
1
1
1
1
1
1
1
1
1
1
1
1
1
1
1
1
1
1
1
1
1
1
1
1
1
1
1
1
1
1
1
1
1
1
1
1
1
1
1
1
1
1
1
1
1
1
1
1
1
1
1
1
1
1
1
1
1
1
1
1
1
1
1
1
1
1
1
1
1
1
1
1
1
1
1
1
1
1
1
1
1
1
1
1
1
1
1
1
1
1
1
1
1
1.45034
2.58622
2.72892
2.72346
2.72551
2.73432
2.74969
2.76847
2.78317
2.79056
2.79124
2.78846
2.78295
2.77566
2.77097
2.77112
2.77573
2.78476
2.79731
2.80764
2.8123
2.81214
2.80998
2.80527
2.8002
2.79788
2.79895
2.80214
2.80841
2.81493
2.81947
2.82239
2.82452
2.82689
2.82994
2.83313
2.83594
2.83742
2.83754
2.83824
2.83983
2.84197
2.84489
2.84794
2.8504
2.85279
2.85557
2.85905
2.86316
2.86702
2.86985
2.87076
2.86926
2.86643
2.86339
2.86189
2.8624
2.86518
2.87059
2.87606
2.88008
2.88215
2.88312
2.88461
2.88818
2.89446
2.90288
2.91272
2.92247
2.93134
2.94113
2.9544
2.97581
3.01168
3.06817
3.14692
3.23989
3.32901
3.39484
3.42876
3.43934
1
1
1
1
1
1
1
1
1
1
1
1
1
1
1
1
1
1
1
1
1
1
1
1
1
1
1
1
1
1
1
1
1
1
1
1
1
1
1
1
1
1
1
1
1
1
1
1
1
1
1
1
1
1
1
1
1
1
1
1
1
1
1
1
1
1
1
1
1
1
1
1
1
1
1
1
1
1
1
1
1
1
1
1
1
1
1
1
1
1
1
1
1
1
1
1
1
1
1
1
1
1
1
1
1
1
1
1
1
1
1
1.31191
2.50694
2.72383
2.72539
2.73137
2.74247
2.75614
2.77189
2.78335
2.78902
2.78758
2.78377
2.77715
2.77074
2.76732
2.76919
2.77523
2.7854
2.79851
2.80785
2.81131
2.81031
2.80722
2.80239
2.79786
2.79613
2.79766
2.80127
2.80748
2.81364
2.81789
2.82074
2.8231
2.82598
2.82955
2.83307
2.83598
2.83736
2.8371
2.83735
2.83837
2.83991
2.84252
2.84584
2.84883
2.85167
2.85466
2.85808
2.86198
2.86563
2.8683
2.86925
2.86797
2.86531
2.86227
2.86064
2.86099
2.86342
2.8686
2.8741
2.87824
2.8805
2.88178
2.8836
2.88741
2.89359
2.90179
2.91131
2.9208
2.92957
2.93916
2.95217
2.97325
3.00863
3.06449
3.14274
3.23565
3.32519
3.39156
3.4258
3.43646
1
1
1
1
1
1
1
1
1
1
1
1
1
1
1
1
1
1
1
1
1
1
1
1
1
1
1
1
1
1
1
1
1
1
1
1
1
1
1
1
1
1
1
1
1
1
1
1
1
1
1
1
1
1
1
1
1
1
1
1
1
1
1
1
1
1
1
1
1
1
1
1
1
1
1
1
1
1
1
1
1
1
1
1
1
1
1
1
1
1
1
1
1
1
1
1
1
1
1
1
1
1
1
1
1
1
1
1
1
1
1
1.14468
2.40427
2.72184
2.73627
2.74306
2.75102
2.75985
2.77203
2.78153
2.78513
2.783
2.778
2.77135
2.7669
2.76497
2.76828
2.77543
2.78662
2.79942
2.80741
2.80952
2.80778
2.80406
2.79931
2.79567
2.79466
2.79668
2.80053
2.80652
2.81225
2.81632
2.81923
2.8219
2.82517
2.82906
2.83277
2.83572
2.837
2.83645
2.83625
2.83676
2.83779
2.84015
2.8438
2.84734
2.85058
2.85371
2.85702
2.86068
2.86412
2.86667
2.86767
2.86662
2.86413
2.8611
2.85934
2.85955
2.86168
2.86654
2.872
2.87624
2.87873
2.88039
2.88267
2.88669
2.89268
2.90063
2.9098
2.919
2.92765
2.93704
2.94983
2.97062
3.00554
3.06077
3.13849
3.23131
3.32124
3.38814
3.4227
3.43346
1
1
1
1
1
1
1
1
1
1
1
1
1
1
1
1
1
1
1
1
1
1
1
1
1
1
1
1
1
1
1
1
1
1
1
1
1
1
1
1
1
1
1
1
1
1
1
1
1
1
1
1
1
1
1
1
1
1
1
1
1
1
1
1
1
1
1
1
1
1
1
1
1
1
1
1
1
1
1
1
1
1
1
1
1
1
1
1
1
1
1
1
1
1
1
1
1
1
1
1
1
1
1
1
1
1
1
1
1
1
1
1.00601
2.30017
2.7284
2.75289
2.75194
2.75487
2.76097
2.77086
2.7784
2.77969
2.7773
2.77192
2.76672
2.76412
2.76437
2.76874
2.77679
2.78785
2.79966
2.80603
2.80675
2.80446
2.80062
2.79636
2.79383
2.79373
2.79606
2.79977
2.80546
2.81082
2.81486
2.81796
2.82093
2.82445
2.82847
2.83221
2.8351
2.83628
2.83553
2.83497
2.83501
2.83566
2.83784
2.84185
2.84593
2.84953
2.85273
2.85587
2.85923
2.86245
2.86491
2.86601
2.86522
2.86291
2.85991
2.85802
2.85808
2.85995
2.8644
2.86977
2.87411
2.87688
2.87898
2.8818
2.886
2.8917
2.89933
2.90816
2.91707
2.92559
2.93481
2.94741
2.96792
3.00238
3.05698
3.13416
3.22685
3.31715
3.38459
3.41947
3.43033
1
1
1
1
1
1
1
1
1
1
1
1
1
1
1
1
1
1
1
1
1
1
1
1
1
1
1
1
1
1
1
1
1
1
1
1
1
1
1
1
1
1
1
1
1
1
1
1
1
1
1
1
1
1
1
1
1
1
1
1
1
1
1
1
1
1
1
1
1
1
1
1
1
1
1
1
1
1
1
1
1
1
1
1
1
1
1
1
1
1
1
1
1
1
1
1
1
1
1
1
1
1
1
1
1
1
1
1
1
1
1
1.00003
2.19068
2.73824
2.75908
2.75563
2.75656
2.76053
2.76797
2.77336
2.7738
2.77162
2.76747
2.76471
2.76302
2.7649
2.77046
2.77881
2.78851
2.79877
2.80351
2.80302
2.80044
2.79706
2.79401
2.79258
2.79335
2.79587
2.79899
2.80433
2.80939
2.81351
2.81688
2.82012
2.82381
2.82786
2.83149
2.8342
2.83524
2.83434
2.83348
2.83314
2.83352
2.8356
2.83998
2.84458
2.84849
2.85172
2.85465
2.85765
2.86064
2.86306
2.86427
2.86377
2.86164
2.8587
2.85665
2.85654
2.8582
2.86217
2.86739
2.87184
2.87498
2.87762
2.881
2.88529
2.89063
2.89786
2.90633
2.91498
2.92339
2.9325
2.94495
2.96517
2.99915
3.05313
3.12972
3.22225
3.31292
3.3809
3.41613
3.4271
1
1
1
1
1
1
1
1
1
1
1
1
1
1
1
1
1
1
1
1
1
1
1
1
1
1
1
1
1
1
1
1
1
1
1
1
1
1
1
1
1
1
1
1
1
1
1
1
1
1
1
1
1
1
1
1
1
1
1
1
1
1
1
1
1
1
1
1
1
1
1
1
1
1
1
1
1
1
1
1
1
1
1
1
1
1
1
1
1
1
1
1
1
1
1
1
1
1
1
1
1
1
1
1
1
1
1
1
1
1
1
1
2.07153
2.74075
2.75862
2.7555
2.75523
2.75754
2.76272
2.76704
2.76848
2.76657
2.76504
2.76463
2.76385
2.76695
2.77284
2.78017
2.78803
2.79619
2.79964
2.7985
2.79601
2.79363
2.79236
2.79206
2.79363
2.79598
2.79835
2.80314
2.8079
2.81207
2.81573
2.81931
2.8232
2.82723
2.83066
2.8331
2.83392
2.83285
2.83175
2.83116
2.8314
2.8335
2.83821
2.84325
2.84742
2.85065
2.85338
2.85599
2.85873
2.8611
2.86244
2.86222
2.86028
2.85742
2.85525
2.85494
2.8564
2.85986
2.86489
2.86947
2.8731
2.87636
2.88028
2.88457
2.88943
2.89617
2.90426
2.91269
2.92102
2.93012
2.94247
2.96242
2.99589
3.04919
3.12515
3.21747
3.30849
3.37705
3.41268
3.42379
1
1
1
1
1
1
1
1
1
1
1
1
1
1
1
1
1
1
1
1
1
1
1
1
1
1
1
1
1
1
1
1
1
1
1
1
1
1
1
1
1
1
1
1
1
1
1
1
1
1
1
1
1
1
1
1
1
1
1
1
1
1
1
1
1
1
1
1
1
1
1
1
1
1
1
1
1
1
1
1
1
1
1
1
1
1
1
1
1
1
1
1
1
1
1
1
1
1
1
1
1
1
1
1
1
1
1
1
1
1
1
1
1.94293
2.73003
2.75576
2.75164
2.74995
2.75065
2.75522
2.76085
2.76423
2.76408
2.76451
2.7653
2.76619
2.76982
2.77465
2.77999
2.78594
2.79191
2.79444
2.79323
2.79156
2.79081
2.79123
2.79205
2.79446
2.79641
2.79814
2.80198
2.80626
2.81033
2.81427
2.81828
2.8225
2.82658
2.8298
2.83191
2.83239
2.83116
2.82982
2.8291
2.82935
2.83156
2.83652
2.8419
2.84623
2.84945
2.85199
2.85424
2.85672
2.85906
2.86054
2.86057
2.85883
2.8561
2.85383
2.85329
2.85454
2.85748
2.86226
2.86703
2.87128
2.8752
2.8796
2.8838
2.88805
2.89426
2.90192
2.91014
2.91848
2.92767
2.94
2.95969
2.99263
3.04517
3.12042
3.21246
3.30383
3.37302
3.40915
3.42043
1
1
1
1
1
1
1
1
1
1
1
1
1
1
1
1
1
1
1
1
1
1
1
1
1
1
1
1
1
1
1
1
1
1
1
1
1
1
1
1
1
1
1
1
1
1
1
1
1
1
1
1
1
1
1
1
1
1
1
1
1
1
1
1
1
1
1
1
1
1
1
1
1
1
1
1
1
1
1
1
1
1
1
1
1
1
1
1
1
1
1
1
1
1
1
1
1
1
1
1
1
1
1
1
1
1
1
1
1
1
1
1
1.80421
2.70183
2.74878
2.74322
2.74083
2.74183
2.74773
2.75595
2.76187
2.76429
2.76595
2.76746
2.76924
2.77161
2.77487
2.77807
2.78205
2.7863
2.78842
2.78796
2.78765
2.7886
2.79069
2.79264
2.79545
2.79701
2.79824
2.80092
2.80445
2.80832
2.81245
2.81691
2.82157
2.82582
2.82892
2.83067
2.83072
2.82934
2.82779
2.82701
2.82737
2.82979
2.83493
2.8405
2.84489
2.84805
2.85042
2.85239
2.85465
2.85698
2.85857
2.85881
2.85728
2.85471
2.85235
2.85155
2.85256
2.85497
2.8595
2.86458
2.86957
2.87421
2.87892
2.88291
2.88655
2.89215
2.8993
2.90731
2.91575
2.92514
2.93754
2.95702
2.98939
3.04111
3.11554