/*--------------------------------*- C++ -*----------------------------------*\
  =========                 |
  \\      /  F ield         | OpenFOAM: The Open Source CFD Toolbox
   \\    /   O peration     | Website:  https://openfoam.org
    \\  /    A nd           | Version:  7
     \\/     M anipulation  |
\*---------------------------------------------------------------------------*/
FoamFile
{
    version     2.0;
    format      ascii;
    class       volScalarField;
    location    "1.1";
    object      T;
}
// * * * * * * * * * * * * * * * * * * * * * * * * * * * * * * * * * * * * * //

dimensions      [0 0 0 1 0 0 0];

internalField   nonuniform List<scalar> 
16128
(
1
1
1
1
1
1
1
1
1
1
1
1
1
1
1
1
1
1
1
1
1
1
1
1
1
1
1.79523
2.73372
2.75519
2.74628
2.7476
2.75337
2.76962
2.79335
2.81498
2.82839
2.83331
2.83529
2.83867
2.84527
2.85414
2.86353
2.8738
2.88967
2.92046
2.97119
3.02206
3.04567
1
1
1
1
1
1
1
1
1
1
1
1
1
1
1
1
1
1
1
1
1
1
1
1
1
1
1.77937
2.72689
2.75507
2.74639
2.74734
2.75296
2.76919
2.79299
2.8147
2.82825
2.83322
2.83519
2.83842
2.84477
2.8534
2.8627
2.87313
2.88925
2.92011
2.97073
3.02148
3.04502
1
1
1
1
1
1
1
1
1
1
1
1
1
1
1
1
1
1
1
1
1
1
1
1
1
1
1.7405
2.71187
2.75408
2.74557
2.74616
2.7517
2.76807
2.79211
2.81403
2.82786
2.83295
2.83481
2.83777
2.84385
2.85242
2.86183
2.87259
2.88896
2.9198
2.97037
3.02094
3.04442
1
1
1
1
1
1
1
1
1
1
1
1
1
1
1
1
1
1
1
1
1
1
1
1
1
1
1.68791
2.69126
2.75214
2.74351
2.74367
2.74934
2.76637
2.79078
2.81275
2.8267
2.83192
2.83367
2.83636
2.84215
2.85068
2.86028
2.87146
2.88811
2.91905
2.96984
3.02039
3.04388
1
1
1
1
1
1
1
1
1
1
1
1
1
1
1
1
1
1
1
1
1
1
1
1
1
1
1.61962
2.6651
2.74781
2.73878
2.73859
2.74613
2.76527
2.79009
2.81146
2.8249
2.82998
2.83154
2.83399
2.83956
2.84813
2.85798
2.86952
2.88632
2.91738
2.96865
3.01956
3.0433
1
1
1
1
1
1
1
1
1
1
1
1
1
1
1
1
1
1
1
1
1
1
1
1
1
1
1.53659
2.6317
2.7392
2.72975
2.73135
2.7432
2.76529
2.79018
2.8103
2.82257
2.82703
2.82816
2.83041
2.83596
2.84471
2.85481
2.86655
2.8833
2.91446
2.9664
3.01803
3.04222
1
1
1
1
1
1
1
1
1
1
1
1
1
1
1
1
1
1
1
1
1
1
1
1
1
1
1.43429
2.5798
2.72653
2.7205
2.72549
2.74174
2.766
2.79055
2.80923
2.82001
2.82342
2.82369
2.8255
2.83111
2.84023
2.85065
2.86245
2.87894
2.91015
2.96272
3.01527
3.04005
1
1
1
1
1
1
1
1
1
1
1
1
1
1
1
1
1
1
1
1
1
1
1
1
1
1
1.29771
2.49855
2.71593
2.71535
2.7244
2.74312
2.76772
2.79092
2.80753
2.81629
2.81848
2.81802
2.81949
2.82522
2.8348
2.84556
2.85731
2.8734
2.90447
2.95739
3.01077
3.03605
1
1
1
1
1
1
1
1
1
1
1
1
1
1
1
1
1
1
1
1
1
1
1
1
1
1
1.12309
2.39308
2.70905
2.7152
2.7271
2.74607
2.76924
2.78998
2.80435
2.81127
2.81237
2.81139
2.81252
2.81813
2.82805
2.83912
2.85077
2.86635
2.89716
2.95015
3.00427
3.02998
1
1
1
1
1
1
1
1
1
1
1
1
1
1
1
1
1
1
1
1
1
1
1
1
1
1
1.00489
2.28471
2.70614
2.71457
2.72749
2.74686
2.76974
2.78873
2.79986
2.80382
2.80381
2.80271
2.80401
2.80994
2.8204
2.83177
2.84322
2.85815
2.88826
2.94066
2.99502
3.02067
1
1
1
1
1
1
1
1
1
1
1
1
1
1
1
1
1
1
1
1
1
1
1
1
1
1
1.00002
2.14659
2.70311
2.71561
2.72846
2.74644
2.76679
2.78301
2.79127
2.79367
2.7934
2.7925
2.79427
2.80086
2.8117
2.82315
2.83387
2.84774
2.87656
2.92804
2.98277
3.00873
1
1
1
1
1
1
1
1
1
1
1
1
1
1
1
1
1
1
1
1
1
1
1
1
1
1
1
1.97887
2.6866
2.71202
2.72406
2.73995
2.75775
2.77189
2.77885
2.7812
2.78138
2.78103
2.78332
2.7907
2.80169
2.81318
2.82325
2.83598
2.86277
2.91212
2.96617
2.99134
1
1
1
1
1
1
1
1
1
1
1
1
1
1
1
1
1
1
1
1
1
1
1
1
1
1
1
1.76289
2.63488
2.70326
2.7117
2.72483
2.742
2.75644
2.76419
2.76734
2.76788
2.76828
2.77124
2.77891
2.79005
2.80143
2.81057
2.82104
2.84398
2.88993
2.94304
2.9693
1
1
1
1
1
1
1
1
1
1
1
1
1
1
1
1
1
1
1
1
1
1
1
1
1
1
1
1.48539
2.54004
2.6953
2.69458
2.70428
2.72083
2.73667
2.74662
2.75159
2.75327
2.75498
2.75898
2.76668
2.77778
2.78822
2.79552
2.80331
2.82224
2.86415
2.91357
2.93377
1
1
1
1
1
1
1
1
1
1
1
1
1
1
1
1
1
1
1
1
1
1
1
1
1
1
1
1.17741
2.41561
2.69384
2.68956
2.69475
2.7065
2.72048
2.73118
2.73791
2.74098
2.7436
2.74709
2.75406
2.7639
2.77275
2.77778
2.78209
2.7937
2.8244
2.86686
2.88602
1
1
1
1
1
1
1
1
1
1
1
1
1
1
1
1
1
1
1
1
1
1
1
1
1
1
1
1.00743
2.29064
2.67999
2.67565
2.67913
2.68779
2.70054
2.71196
2.72013
2.72577
2.73034
2.73476
2.7421
2.7507
2.75683
2.7576
2.7564
2.75952
2.78009
2.82028
2.85595
1
1
1
1
1
1
1
1
1
1
1
1
1
1
1
1
1
1
1
1
1
1
1
1
1
1
1
1.00003
2.10864
2.67792
2.6758
2.67776
2.68401
2.69383
2.70307
2.70987
2.71504
2.71866
2.72311
2.72965
2.73604
2.73871
2.73569
2.72852
2.72109
2.71803
2.69798
2.61055
1
1
1
1
1
1
1
1
1
1
1
1
1
1
1
1
1
1
1
1
1
1
1
1
1
1
1
1
1.83231
2.61862
2.66677
2.67168
2.6778
2.68621
2.69404
2.6999
2.70422
2.70653
2.71054
2.71559
2.71957
2.71862
2.71218
2.69841
2.67812
2.64687
2.60337
2.44585
1
1
1
1
1
1
1
1
1
1
1
1
1
1
1
1
1
1
1
1
1
1
1
1
1
1
1
1
1.44494
2.49467
2.65713
2.6583
2.66492
2.67378
2.68185
2.68791
2.69203
2.69384
2.69676
2.69945
2.7008
2.69727
2.68721
2.66797
2.63794
2.59333
2.51598
2.34258
1
1
1
1
1
1
1
1
1
1
1
1
1
1
1
1
1
1
1
1
1
1
1
1
1
1
1
1
1.04933
2.33515
2.65143
2.64427
2.64839
2.65676
2.66539
2.6723
2.67704
2.6792
2.68084
2.68109
2.67984
2.67397
2.66076
2.63781
2.60089
2.54885
2.45141
2.29788
1
1
1
1
1
1
1
1
1
1
1
1
1
1
1
1
1
1
1
1
1
1
1
1
1
1
1
1
1.00054
2.12881
2.61717
2.62577
2.63249
2.63934
2.6476
2.65551
2.6611
2.66348
2.66301
2.66093
2.65687
2.64867
2.6332
2.60802
2.56864
2.51182
2.41298
2.28938
1
1
1
1
1
1
1
1
1
1
1
1
1
1
1
1
1
1
1
1
1
1
1
1
1
1
1
1
0.999999
1.76209
2.54805
2.6116
2.61593
2.62152
2.62854
2.63657
2.64239
2.6446
2.64282
2.63874
2.63232
2.62209
2.60501
2.57842
2.53899
2.48076
2.3915
2.28819
1
1
1
1
1
1
1
1
1
1
1
1
1
1
1
1
1
1
1
1
1
1
1
1
1
1
1
1
1
1.25356
2.40649
2.61392
2.60521
2.60565
2.60934
2.6163
2.62237
2.62457
2.62195
2.61625
2.60769
2.59553
2.57729
2.5502
2.51168
2.45573
2.37824
2.29173
1
1
1
1
1
1
1
1
1
1
1
1
1
1
1
1
1
1
1
1
1
1
1
1
1
1
1
1
1
1.01357
2.2299
2.58653
2.58392
2.58563
2.59001
2.59657
2.60241
2.60504
2.60208
2.59503
2.58439
2.57012
2.55083
2.52353
2.48662
2.43455
2.36841
2.2947
1
1
1
1
1
1
1
1
1
1
1
1
1
1
1
1
1
1
1
1
1
1
1
1
1
1
1
1
1
1.00003
1.84741
2.51986
2.56845
2.57295
2.5772
2.58142
2.58531
2.58716
2.58367
2.57556
2.56308
2.54704
2.52676
2.49936
2.46413
2.41669
2.36115
2.29731
1
1
1
1
1
1
1
1
1
1
1
1
1
1
1
1
1
1
1
1
1
1
1
1
1
1
1
1
1
1
1.27431
2.37373
2.56633
2.56091
2.56258
2.56414
2.56617
2.56804
2.56557
2.55798
2.5446
2.52745
2.50562
2.47833
2.44462
2.40209
2.35472
2.29822
1
1
1
1
1
1
1
1
1
1
1
1
1
1
1
1
1
1
1
1
1
1
1
1
1
1
1
1
1
1
1.01582
2.17475
2.53663
2.54281
2.5441
2.54354
2.54478
2.54704
2.54613
2.54045
2.52818
2.50997
2.48715
2.46031
2.42825
2.39065
2.34882
2.29969
1
1
1
1
1
1
1
1
1
1
1
1
1
1
1
1
1
1
1
1
1
1
1
1
1
1
1
1
1
1
1.00004
1.7217
2.45893
2.52953
2.52751
2.52464
2.52512
2.52677
2.52684
2.52287
2.51258
2.4947
2.47157
2.4452
2.41514
2.38156
2.34345
2.30008
1
1
1
1
1
1
1
1
1
1
1
1
1
1
1
1
1
1
1
1
1
1
1
1
1
1
1
1
1
1
1
1.13139
2.28571
2.51938
2.51045
2.50767
2.50634
2.50683
2.50694
2.50421
2.49585
2.47974
2.4573
2.43126
2.40327
2.3728
2.33799
2.29969
1
1
1
1
1
1
1
1
1
1
1
1
1
1
1
1
1
1
1
1
1
1
1
1
1
1
1
1
1
1
1
1.00344
1.97171
2.46077
2.48973
2.49233
2.49132
2.48972
2.48832
2.48509
2.47796
2.46447
2.44406
2.41887
2.39209
2.36331
2.33146
2.29734
1
1
1
1
1
1
1
1
1
1
1
1
1
1
1
1
1
1
1
1
1
1
1
1
1
1
1
1
1
1
1
1
1.34315
2.32661
2.48689
2.47939
2.47617
2.47164
2.4677
2.4635
2.4569
2.44589
2.42874
2.40608
2.38066
2.35319
2.32415
2.29295
1
1
1
1
1
1
1
1
1
1
1
1
1
1
1
1
1
1
1
1
1
1
1
1
1
1
1
1
1
1
1
1
1.0238
2.10298
2.4474
2.46045
2.4576
2.45343
2.4485
2.44319
2.43627
2.42652
2.41244
2.39312
2.36975
2.34383
2.31635
2.28685
1
1
1
1
1
1
1
1
1
1
1
1
1
1
1
1
1
1
1
1
1
1
1
1
1
1
1
1
1
1
1
1
1.00009
1.52617
2.33945
2.44904
2.44012
2.43561
2.43102
2.42526
2.41738
2.40738
2.39469
2.37816
2.35747
2.33374
2.30774
2.27982
1
1
1
1
1
1
1
1
1
1
1
1
1
1
1
1
1
1
1
1
1
1
1
1
1
1
1
1
1
1
1
1
1
1.06167
2.13813
2.42264
2.41932
2.41673
2.41303
2.40704
2.399
2.38911
2.37717
2.36244
2.34479
2.32388
2.29946
2.27271
1
1
1
1
1
1
1
1
1
1
1
1
1
1
1
1
1
1
1
1
1
1
1
1
1
1
1
1
1
1
1
1
1
1.00066
1.58897
2.31409
2.40897
2.40216
2.39755
2.3913
2.38308
2.37329
2.36171
2.34789
2.33168
2.31259
2.29002
2.26486
1
1
1
1
1
1
1
1
1
1
1
1
1
1
1
1
1
1
1
1
1
1
1
1
1
1
1
1
1
1
1
1
1
1
1.08167
2.11396
2.38789
2.38427
2.38007
2.37474
2.36698
2.35719
2.34577
2.33282
2.31801
2.3006
2.27999
2.25682
1
1
1
1
1
1
1
1
1
1
1
1
1
1
1
1
1
1
1
1
1
1
1
1
1
1
1
1
1
1
1
1
1
1
1.00118
1.54984
2.26983
2.37227
2.3651
2.36021
2.35278
2.34297
2.3315
2.31871
2.30443
2.28814
2.26939
2.24851
1
1
1
1
1
1
1
1
1
1
1
1
1
1
1
1
1
1
1
1
1
1
1
1
1
1
1
1
1
1
1
1
1
1
1
1.07097
2.05654
2.34704
2.3485
2.3439
2.33678
2.32718
2.31617
2.30384
2.28995
2.27427
2.25707
2.2389
1
1
1
1
1
1
1
1
1
1
1
1
1
1
1
1
1
1
1
1
1
1
1
1
1
1
1
1
1
1
1
1
1
1
1
1.00092
1.45591
2.20881
2.33569
2.32759
2.32187
2.31284
2.30179
2.2896
2.2763
2.26179
2.24622
2.22976
1
1
1
1
1
1
1
1
1
1
1
1
1
1
1
1
1
1
1
1
1
1
1
1
1
1
1
1
1
1
1
1
1
1
1
1
1.04671
1.93913
2.29197
2.31375
2.30618
2.29694
2.28588
2.27421
2.26162
2.2481
2.23393
2.21898
1
1
1
1
1
1
1
1
1
1
1
1
1
1
1
1
1
1
1
1
1
1
1
1
1
1
1
1
1
1
1
1
1
1
1
1
1.00048
1.32955
2.12662
2.30015
2.29015
2.28243
2.27198
2.26093
2.24885
2.23611
2.22291
2.20906
1
1
1
1
1
1
1
1
1
1
1
1
1
1
1
1
1
1
1
1
1
1
1
1
1
1
1
1
1
1
1
1
1
1
1
1
1
1.02198
1.72063
2.20999
2.27165
2.26246
2.25471
2.24559
2.2348
2.22309
2.21089
2.19813
1
1
1
1
1
1
1
1
1
1
1
1
1
1
1
1
1
1
1
1
1
1
1
1
1
1
1
1
1
1
1
1
1
1
1
1
1
1.00017
1.16321
1.9971
2.2564
2.24921
2.24276
2.23406
2.22399
2.21274
2.20063
2.18785
1
1
1
1
1
1
1
1
1
1
1
1
1
1
1
1
1
1
1
1
1
1
1
1
1
1
1
1
1
1
1
1
1
1
1
1
1
1
1.0051
1.46626
2.11779
2.23573
2.22304
2.21684
2.20832
2.19847
2.18741
2.17555
1
1
1
1
1
1
1
1
1
1
1
1
1
1
1
1
1
1
1
1
1
1
1
1
1
1
1
1
1
1
1
1
1
1
1
1
1
1
1.00002
1.05249
1.7709
2.16597
2.21075
2.19995
2.19153
2.18261
2.17244
2.16156
1
1
1
1
1
1
1
1
1
1
1
1
1
1
1
1
1
1
1
1
1
1
1
1
1
1
1
1
1
1
1
1
1
1
1
1
1
1
1
1.00072
1.20983
1.95771
2.19376
2.1877
2.17905
2.17038
2.16115
2.1514
1
1
1
1
1
1
1
1
1
1
1
1
1
1
1
1
1
1
1
1
1
1
1
1
1
1
1
1
1
1
1
1
1
1
1
1
1
1
1
1
1.00871
1.4528
2.05894
2.17358
2.16288
2.15475
2.14727
2.13894
1
1
1
1
1
1
1
1
1
1
1
1
1
1
1
1
1
1
1
1
1
1
1
1
1
1
1
1
1
1
1
1
1
1
1
1
1
1
1
1
1.00005
1.05136
1.68937
2.10123
2.15422
2.14069
2.13236
2.12516
1
1
1
1
1
1
1
1
1
1
1
1
1
1
1
1
1
1
1
1
1
1
1
1
1
1
1
1
1
1
1
1
1
1
1
1
1
1
1
1
1
1.00074
1.16251
1.86288
2.11138
2.135
2.12467
2.11407
1
1
1
1
1
1
1
1
1
1
1
1
1
1
1
1
1
1
1
1
1
1
1
1
1
1
1
1
1
1
1
1
1
1
1
1
1
1
1
1
1
1
1.00554
1.34006
1.94491
2.11693
2.11412
2.10325
1
1
1
1
1
1
1
1
1
1
1
1
1
1
1
1
1
1
1
1
1
1
1
1
1
1
1
1
1
1
1
1
1
1
1
1
1
1
1
1
1
1
1.00003
1.02629
1.51244
2.00343
2.09865
2.09115
1
1
1
1
1
1
1
1
1
1
1
1
1
1
1
1
1
1
1
1
1
1
1
1
1
1
1
1
1
1
1
1
1
1
1
1
1
1
1
1
1
1
1
1.00029
1.07748
1.66278
2.0264
2.08139
1
1
1
1
1
1
1
1
1
1
1
1
1
1
1
1
1
1
1
1
1
1
1
1
1
1
1
1
1
1
1
1
1
1
1
1
1
1
1
1
1
1
1
1
1.00157
1.1633
1.77336
2.02582
1
1
1
1
1
1
1
1
1
1
1
1
1
1
1
1
1
1
1
1
1
1
1
1
1
1
1
1
1
1
1
1
1
1
1
1
1
1
1
1
1
1
1
1
1.00001
1.0059
1.27404
1.84552
1
1
1
1
1
1
1
1
1
1
1
1
1
1
1
1
1
1
1
1
1
1
1
1
1
1
1
1
1
1
1
1
1
1
1
1
1
1
1
1
1
1
1
1
1
1.00004
1.01732
1.39154
1
1
1
1
1
1
1
1
1
1
1
1
1
1
1
1
1
1
1
1
1
1
1
1
1
1
1
1
1
1
1
1
1
1
1
1
1
1
1
1
1
1
1
1
1
1
1.00017
1.0413
1
1
1
1
1
1
1
1
1
1
1
1
1
1
1
1
1
1
1
1
1
1
1
1
1
1
1
1
1
1
1
1
1
1
1
1
1
1
1
1
1
1
1
1
1
1
1
1.00062
1
1
1
1
1
1
1
1
1
1
1
1
1
1
1
1
1
1
1
1
1
1
1
1
1
1
1
1
1
1
1
1
1
1
1
1
1
1
1
1
1
1
1
1
1
1
1
1
1
1
1
1
1
1
1
1
1
1
1
1
1
1
1
1
1
1
1
1
1
1
1
1
1
1
1
1
1
1
1
1
1
1
1
1
1
1
1
1
1
1
1
1
1
1
1
1
1
1
1
1
1
1
1
1
1
1
1
1
1
1
1
1
1
1
1
1
1
1
1
1
1
1
1
1
1
1
1
1
1
1
1
1
1
1
1
1
1
1
1
1
1
1
1
1
1
1
1
1
1
1
1
1
1
1
1
1
1
1
1
1
1
1
1
1
1
1
1
1
1
1
1
1
1
1
1
1
1
1
1
1
1
1
1
1
1
1
1
1
1
1
1
1
1
1
1
1
1
1
1
1
1
1
1
1
1
1
1
1
1
1
1
1
1
1
1
1
1
1
1
1
1
1
1
1
1
1
1
1
1
1
1
1
1
1
1
1
1
1
1
1
1
1
1
1
1
1
1
1
1
1
1
1
1
1
1
1
1
1
1
1
1
1
1
1
1
1
1
1
1
1
1
1
1
1
1
1
1
1
1
1
1
1
1
1
1
1
1
1
1
1
1
1
1
1
1
1
1
1
1
1
1
1
1
1
1
1
1
1
1
1
1
1
1
1
1
1
1
1
1
1
1
1
1
1
1
1
1
1
1
1
1
1
1
1
1
1
1
1
1
1
1
1
1
1
1
1
1
1
1
1
1
1
1
1
1
1
1
1
1
1
1
1
1
1
1
1
1
1
1
1
1
1
1
1
1
1
1
1
1
1
1
1
1
1
1
1
1
1
1
1
1
1
1
1
1
1
1
1
1
1
1
1
1
1
1
1
1
1
1
1
1
1
1
1
1
1
1
1
1
1
1
1
1
1
1
1
1
1
1
1
1
1
1
1
1
1
1
1
1
1
1
1
1
1
1
1
1
1
1
1
1
1
1
1
1
1
1
1
1
1
1
1
1
1
1
1
1
1
1
1
1
1
1
1
1
1
1
1
1
1
1
1
1
1
1
1
1
1
1
1
1
1
1
1
1
1
1
1
1
1
1
1
1
1
1
1
1
1
1
1
1
1
1
1
1
1
1
1
1
1
1
1
1
1
1
1
1
1
1
1
1
1
1
1
1
1
1
1
1
1
1
1
1
1
1
1
1
1
1
1
1
1
1
1
1
1
1
1
1
1
1
1
1
1
1
1
1
1
1
1
1
1
1
1
1
1
1
1
1
1
1
1
1
1
1
1
1
1
1
1
1
1
1
1
1
1
1
1
1
1
1
1
1
1
1
1
1
1
1
1
1
1
1
1
1
1
1
1
1
1
1
1
1
1
1
1
1
1
1
1
1
1
1
1
1
1
1
1
1
1
1
1
1
1
1
1
1
1
1
1
1
1
1
1
1
1
1
1
1
1
1
1
1
1
1
1
1
1
1
1
1
1
1
1
1
1
1
1
1
1
1
1
1
1
1
1
1
1
1
1
1
1
1
1
1
1
1
1
1
1
1
1
1
1
1
1
1
1
1
1
1
1
1
1
1
1
1
1
1
1
1
1
1
1
1
1
1
1
1
1
1
1
1
1
1
1
1
1
1
1
1
1
1
1
1
1
1
1
1
1
1
1
1
1
1
1
1
1
1
1
1
1
1
1
1
1
1
1
1
1
1
1
1
1
1
1
1
1
1
1
1
1
1
1
1
1
1
1
1
1
1
1
1
1
1
1
1
1
1
1
1
1
1
1
1
1
1
1
1
1
1
1
1
1
1
1
1
1
1
1
1
1
1
1
1
1
1
1
1
1
1
1
1
1
1
1
1
1
1
1
1
1
1
1
1
1
1
1
1
1
1
1
1
1
1
1
1
1
1
1
1
1
1
1
1
1
1
1
1
1
1
1
1
1
1
1
1
1
1
1
1
1
1
1
1
1
1
1
1
1
1
1
1
1
1
1
1
1
1
1
1
1
1
1
1
1
1
1
1
1
1
1
1
1
1
1
1
1
1
1
1
1
1
1
1
1
1
1
1
1
1
1
1
1
1
1
1
1
1
1
1
1
1
1
1
1
1
1
1
1
1
1
1
1
1
1
1
1
1
1
1
1
1
1
1
1
1
1
1
1
1
1
1
1
1
1
1
1
1
1
1
1
1
1
1
1
1
1
1
1
1
1
1
1
1
1
1
1
1
1
1
1
1
1
1
1
1
1
1
1
1
1
1
1
1
1
1
1
1
1
1
1
1
1
1
1
1
1
1
1
1
1
1
1
1
1
1
1
1
1
1
1
1
1
1
1
1
1
1
1
1
1
1
1
1
1
1
1
1
1
1
1
1
1
1
1
1
1
1
1
1
1
1
1
1
1
1
1
1
1
1
1
1
1
1
1
1
1
1
1
1
1
1
1
1
1
1
1
1
1
1
1
1
1
1.70616
1.06906
0.530226
0.611849
1.0018
1.19965
1.24389
1.31036
1.46254
1.48533
1.46438
1.44893
1.4488
1.48344
1.58796
1.7353
1.82256
1.83946
1.82613
1.80374
1.768
1.75323
1.75604
1.76786
1.7842
1.79296
1.79026
1.77531
1.77222
1.78005
1.80108
1.81499
1.81869
1.81632
1.80408
1.79382
1.79166
1.79498
1.80327
1.81433
1.82223
1.82472
1.82654
1.82537
1.82306
1.82091
1.81853
1.81891
1.82496
1.83385
1.83616
1.83581
1.83342
1.82915
1.82473
1.82205
1.82062
1.81856
1.81743
1.81711
1.81588
1.8146
1.81483
1.81562
1.81646
1.8182
1.81961
1.82132
1.8232
1.82377
1.82319
1.81985
1.81398
1.80858
1.80544
1.80385
1.80321
1.80356
1.80246
1.80101
1.79903
1.79586
1.79306
1.79262
1.79334
1.79526
1.79754
1.79943
1.80024
1.80065
1.80069
1.79965
1.79669
1.79421
1.7931
1.79208
1.79033
1.78703
1.78223
1.77792
1.77593
1.77548
1.77556
1.77642
1.77648
1.77604
1.77474
1.7716
1.76681
1.76367
1.76313
1.76332
1.76453
1.76763
1.77252
1.77771
1.77999
1.78001
1.77932
1.77783
1.77512
1.77133
1.7703
1.77057
1.77128
1.77266
1.77486
1.77646
1.77673
1.77613
1.77304
1.7692
1.76799
1.76752
1.76699
1.76667
1.76671
1.7668
1.76733
1.76932
1.77182
1.77411
1.77632
1.7783
1.77979
1.78062
1.78025
1.77822
1.77815
1.78105
1.78467
1.78616
1.78695
1.78744
1.78744
1.78793
1.79093
1.79217
1.79124
1.78986
1.78893
1.78626
1.78339
1.78306
1.78531
1.79221
1.79976
1.80654
1.81393
1.821
1.82452
1.82581
1.82609
1.82595
1.82163
1.81694
1.81726
1.81834
1.82062
1.82582
1.83293
1.83794
1.84051
1.84183
1.84245
1.84223
1.8421
1.84259
1.84414
1.84727
1.85068
1.86155
1.9533
1.63294
1.41312
1.16974
1.14037
1.16998
1.177
1.18248
1.1823
1.16801
1.17469
1.19025
1.21636
1.26486
1.34123
1.41465
1.47247
1.55537
1.59234
1.60508
1.62156
1.63528
1.64934
1.67123
1.69559
1.71201
1.71897
1.71632
1.71648
1.72307
1.73908
1.75079
1.7551
1.75651
1.75489
1.75524
1.75671
1.76037
1.76613
1.77331
1.77961
1.7831
1.78843
1.79263
1.79217
1.79037
1.78736
1.7874
1.79257
1.7986
1.7993
1.79915
1.79728
1.79367
1.79018
1.789
1.78914
1.78868
1.78859
1.78925
1.78939
1.7892
1.79036
1.79234
1.79415
1.79563
1.79678
1.79799
1.79936
1.80008
1.80007
1.79938
1.79811
1.79625
1.7934
1.78919
1.78477
1.78203
1.78055
1.77923
1.77813
1.77774
1.77777
1.77824
1.77973
1.78159
1.78227
1.78223
1.78203
1.78152
1.78048
1.77851
1.77604
1.77469
1.77449
1.77441
1.77393
1.77208
1.76834
1.7644
1.76188
1.7615
1.76191
1.76359
1.76475
1.7644
1.76312
1.76027
1.75561
1.75195
1.75118
1.75136
1.7525
1.7556
1.76097
1.76707
1.76963
1.76959
1.76834
1.76629
1.76345
1.75955
1.75793
1.75825
1.75915
1.76077
1.76324
1.76554
1.76616
1.76563
1.76188
1.75744
1.75709
1.75721
1.75741
1.75765
1.75823
1.75935
1.76093
1.7627
1.76434
1.7658
1.76741
1.76902
1.7704
1.77143
1.77196
1.77175
1.7714
1.773
1.77669
1.78003
1.78241
1.78323
1.78303
1.78297
1.78429
1.7846
1.78316
1.78127
1.77903
1.77472
1.77232
1.773
1.77811
1.78583
1.79439
1.80304
1.81235
1.82164
1.82927
1.83602
1.84186
1.84706
1.85277
1.8597
1.86768
1.87742
1.8903
1.90655
1.92384
1.94011
1.9537
1.96186
1.96436
1.96475
1.96486
1.96503
1.96607
1.9693
1.97293
1.99357
2.02169
1.79909
1.6718
1.55648
1.42541
1.32936
1.25156
1.16601
1.14599
1.16146
1.16396
1.15253
1.15829
1.18595
1.2149
1.2168
1.2143
1.24811
1.32352
1.3834
1.42564
1.46377
1.49038
1.51888
1.54829
1.56997
1.59725
1.61294
1.62493
1.63757
1.64977
1.65699
1.6556
1.65539
1.65711
1.66201
1.66876
1.67548
1.68137
1.68839
1.69462
1.69981
1.70682
1.71277
1.71391
1.7128
1.71043
1.71113
1.71756
1.72358
1.7257
1.72604
1.72436
1.72041
1.71745
1.71689
1.71691
1.7175
1.71847
1.71923
1.7193
1.71968
1.72254
1.72748
1.73285
1.73718
1.74019
1.74173
1.74185
1.73979
1.73752
1.73789
1.7385
1.73991
1.74084
1.73923
1.73606
1.73244
1.72754
1.72257
1.72074
1.72082
1.722
1.7244
1.72732
1.73043
1.73265
1.73375
1.73391
1.73309
1.73022
1.72637
1.72375
1.72352
1.72445
1.72634
1.72664
1.72534
1.72279
1.72019
1.7173
1.71589
1.7163
1.71783
1.72024
1.72162
1.72131
1.71969
1.71592
1.71174
1.7105
1.71064
1.7118
1.71534
1.72251
1.73243
1.73913
1.74041
1.73958
1.73706
1.73428
1.73086
1.72806
1.72742
1.72759
1.72861
1.73097
1.73422
1.73667
1.73707
1.73516
1.72919
1.72571
1.72515
1.7251
1.72536
1.72606
1.72795
1.73094
1.73384
1.736
1.73757
1.7387
1.73959
1.74033
1.74104
1.74238
1.74477
1.74644
1.74678
1.74752
1.75014
1.75404
1.75794
1.76103
1.76235
1.762
1.76011
1.75831
1.75763
1.75717
1.75501
1.75417
1.75864
1.77001
1.78663
1.80828
1.83446
1.86276
1.88982
1.91491
1.93568
1.95223
1.96621
1.97946
1.99122
2.00102
2.01021
2.01973
2.02901
2.03732
2.04571
2.05446
2.06275
2.06506
2.06478
2.06422
2.06295
2.06116
2.06084
2.06182
2.07336
2.08441
1.92915
1.78715
1.65828
1.56217
1.4937
1.4324
1.32893
1.24922
1.25525
1.25957
1.24618
1.23156
1.22391
1.20061
1.174
1.17227
1.18126
1.20081
1.22508
1.25876
1.30841
1.35201
1.38449
1.41137
1.42875
1.45921
1.4853
1.50617
1.52756
1.54394
1.5567
1.56646
1.5732
1.5791
1.58591
1.58798
1.58916
1.59084
1.59462
1.59937
1.60429
1.61141
1.61812
1.61906
1.61851
1.61813
1.61996
1.62499
1.63022
1.63276
1.63313
1.63194
1.62831
1.62552
1.62557
1.62678
1.62955
1.63262
1.63391
1.63407
1.63476
1.63705
1.64043
1.64532
1.6509
1.65505
1.65826
1.66077
1.66103
1.66041
1.66137
1.66164
1.66115
1.66105
1.65981
1.65677
1.65315
1.64873
1.64568
1.64484
1.64477
1.64547
1.64757
1.64997
1.65178
1.65301
1.65395
1.65419
1.65343
1.65056
1.64763
1.64707
1.64814
1.65156
1.65585
1.65772
1.65717
1.65505
1.6529
1.64985
1.64628
1.64524
1.64557
1.64706
1.64914
1.64968
1.64925
1.64711
1.64341
1.64155
1.64155
1.64238
1.64556
1.65307
1.66508
1.67544
1.67796
1.67743
1.67605
1.67465
1.67256
1.67052
1.67038
1.67085
1.67247
1.67569
1.67988
1.6827
1.68347
1.68302
1.67963
1.67669
1.67589
1.6752
1.67481
1.67493
1.67619
1.67845
1.681
1.68315
1.68456
1.68516
1.68519
1.68499
1.68527
1.6877
1.69297
1.69876
1.70164
1.70183
1.70178
1.70282
1.70635
1.71098
1.71538
1.7195
1.72501
1.7326
1.74412
1.75979
1.777
1.79656
1.82085
1.84904
1.87924
1.91127
1.94232
1.96927
1.99027
2.00564
2.01592
2.02331
2.02954
2.03479
2.03878
2.04156
2.04358
2.04439
2.04428
2.04388
2.04382
2.04496
2.04755
2.04863
2.04853
2.04798
2.04648
2.04479
2.04448
2.04505
2.04808
2.13202
1.99118
1.88343
1.78222
1.6554
1.57366
1.52581
1.46895
1.40666
1.37406
1.34797
1.31245
1.29343
1.28713
1.26947
1.23611
1.22176
1.22495
1.2247
1.22071
1.21516
1.21897
1.22834
1.24261
1.26648
1.29417
1.33452
1.38081
1.41125
1.43875
1.46127
1.47525
1.48944
1.50068
1.50974
1.52199
1.52942
1.53082
1.53143
1.53404
1.53941
1.54492
1.5522
1.55853
1.55928
1.5588
1.55672
1.55458
1.55435
1.55518
1.55634
1.55921
1.5613
1.5608
1.56089
1.56136
1.5609
1.5611
1.56142
1.5606
1.55987
1.5612
1.56465
1.56785
1.57226
1.5775
1.58142
1.58423
1.58662
1.58801
1.58855
1.58883
1.58859
1.58737
1.58504
1.58193
1.57845
1.57488
1.57284
1.57302
1.57327
1.57357
1.57456
1.57579
1.57615
1.576
1.57564
1.57546
1.57542
1.57519
1.57416
1.57321
1.5735
1.57537
1.57837
1.58157
1.58309
1.58255
1.58017
1.57848
1.57615
1.57265
1.57071
1.57074
1.57165
1.57387
1.57594
1.57639
1.57557
1.57264
1.56987
1.56936
1.57004
1.57336
1.58107
1.59242
1.60134
1.60413
1.60447
1.60435
1.60387
1.60325
1.6026
1.60271
1.60349
1.60546
1.6088
1.61272
1.6151
1.61559
1.61473
1.61179
1.61054
1.6104
1.61022
1.60995
1.61039
1.61244
1.61525
1.61767
1.6192
1.61949
1.61854
1.61618
1.61508
1.61552
1.61834
1.62274
1.62777
1.63303
1.63845
1.64418
1.65142
1.6609
1.67293
1.68863
1.70996
1.73711
1.76879
1.80307
1.83623
1.86597
1.8919
1.91457
1.93315
1.95038
1.96578
1.97922
1.98974
1.99486
1.9957
1.9938
1.99183
1.99034
1.98904
1.98858
1.98813
1.98718
1.98491
1.9813
1.97675
1.97211
1.96876
1.9674
1.96719
1.9671
1.96691
1.96697
1.9675
1.9689
1.97208
1.97231
2.16446
2.04438
1.94043
1.85077
1.75492
1.67695
1.61586
1.55004
1.49203
1.45929
1.43936
1.39757
1.36479
1.35457
1.33666
1.30605
1.28469
1.27776
1.26651
1.24588
1.2272
1.21883
1.21739
1.21758
1.21866
1.22581
1.23856
1.26446
1.28934
1.31881
1.35425
1.38246
1.416
1.44394
1.46278
1.47804
1.48885
1.49072
1.4906
1.49267
1.49808
1.50328
1.51098
1.52037
1.52411
1.52408
1.52275
1.51871
1.51528
1.51433
1.51381
1.51618
1.52168
1.52314
1.52296
1.52153
1.51868
1.51655
1.51564
1.51587
1.51778
1.52173
1.52703
1.52987
1.53245
1.53386
1.53388
1.53432
1.53484
1.53494
1.53533
1.53567
1.53543
1.53453
1.53268
1.53003
1.52696
1.52404
1.52207
1.52093
1.51987
1.51892
1.51871
1.51881
1.51909
1.51982
1.52084
1.52167
1.52231
1.52244
1.52193
1.52066
1.51981
1.51972
1.51976
1.52004
1.52028
1.51991
1.51914
1.51879
1.51765
1.51573
1.51397
1.51274
1.51305
1.51418
1.5148
1.51455
1.51295
1.51042
1.5094
1.50955
1.5112
1.51573
1.52358
1.5327
1.53831
1.54093
1.54251
1.54258
1.54239
1.54194
1.54171
1.54186
1.54277
1.54486
1.54783
1.55086
1.55241
1.55241
1.55078
1.54914
1.54908
1.54929
1.54939
1.54947
1.55053
1.55262
1.55464
1.55547
1.55516
1.55318
1.55067
1.54985
1.5509
1.55408
1.55946
1.56748
1.57734
1.59036
1.60806
1.63004
1.65671
1.68821
1.72286
1.75925
1.79393
1.82378
1.84951
1.86966
1.88732
1.90178
1.91431
1.92262
1.92794
1.93178
1.93531
1.9373
1.93626
1.93326
1.92914
1.92544
1.922
1.91973
1.91788
1.9166
1.915
1.91226
1.90793
1.90253
1.89696
1.89109
1.88577
1.88275
1.88238
1.88273
1.88312
1.88368
1.88547
1.88779
1.89122
1.88994
2.18877
2.08654
1.99611
1.90925
1.82556
1.75304
1.69173
1.63605
1.57557
1.52843
1.50025
1.46476
1.43311
1.41547
1.39703
1.36398
1.33551
1.31892
1.3079
1.29667
1.2759
1.25359
1.24523
1.23997
1.23299
1.22838
1.23033
1.22921
1.22387
1.22429
1.23333
1.25638
1.29574
1.35361
1.4013
1.43115
1.45344
1.46028
1.46087
1.46291
1.46747
1.47323
1.48102
1.49158
1.49953
1.50165
1.50137
1.49937
1.49759
1.49536
1.49389
1.49643
1.50055
1.5007
1.49991
1.49754
1.49519
1.49467
1.49497
1.4975
1.50343
1.50807
1.50901
1.50961
1.50933
1.50691
1.50363
1.5021
1.50211
1.50284
1.50455
1.50634
1.50661
1.50637
1.50465
1.49999
1.49425
1.48957
1.48677
1.48568
1.48544
1.48554
1.4858
1.48662
1.48853
1.49038
1.49096
1.49046
1.4888
1.48774
1.48679
1.4859
1.48509
1.48422
1.48335
1.4826
1.48222
1.48236
1.48243
1.48179
1.48037
1.47828
1.47537
1.47293
1.47202
1.47174
1.47147
1.47109
1.47074
1.47108
1.47244
1.47458
1.47737
1.48064
1.48505
1.48935
1.49093
1.49209
1.49366
1.4938
1.49365
1.49363
1.49424
1.49565
1.49764
1.49996
1.50223
1.50403
1.5048
1.5044
1.50335
1.50366
1.5047
1.50606
1.50684
1.50687
1.50619
1.50474
1.50296
1.50099
1.49911
1.49886
1.50092
1.50605
1.51427
1.52594
1.54298
1.56921
1.60453
1.64586
1.68782
1.72552
1.75774
1.78554
1.80817
1.82739
1.84259
1.85263
1.85964
1.86549
1.86951
1.87418
1.8786
1.88231
1.88561
1.88536
1.88283
1.87749
1.87078
1.86703
1.86483
1.8639
1.86282
1.86171
1.86015
1.85779
1.85502
1.85123
1.84674
1.84173
1.83607
1.8301
1.82484
1.82226
1.82194
1.82296
1.82395
1.82406
1.82555
1.82695
1.82833
1.8258
2.20611
2.12162
2.03979
1.95832
1.88749
1.82075
1.75525
1.69607
1.64746
1.60359
1.56719
1.52854
1.49343
1.46725
1.4469
1.4276
1.40464
1.37523
1.34787
1.33626
1.32491
1.30519
1.2808
1.27077
1.26263
1.25198
1.24291
1.23669
1.22927
1.21857
1.21699
1.21847
1.22587
1.2457
1.28188
1.31905
1.35567
1.38842
1.41387
1.42971
1.44341
1.4524
1.46221
1.46913
1.47659
1.48328
1.48388
1.48341
1.48296
1.48148
1.48113
1.4837
1.48559
1.4857
1.48566
1.48341
1.48299
1.4838
1.48586
1.49138
1.49506
1.49505
1.49515
1.49536
1.4945
1.49093
1.48701
1.48631
1.48622
1.48707
1.48985
1.4902
1.48977
1.48838
1.48477
1.47904
1.47293
1.46917
1.46758
1.46739
1.46772
1.46965
1.47174
1.47317
1.47462
1.47494
1.47353
1.47025
1.4672
1.46542
1.46524
1.46563
1.46608
1.46605
1.46607
1.46571
1.46431
1.4621
1.4596
1.45686
1.4544
1.45208
1.44956
1.44767
1.44691
1.44679
1.44694
1.44767
1.44944
1.45177
1.45352
1.45436
1.45492
1.45559
1.45697
1.4587
1.4594
1.46051
1.46218
1.46286
1.46331
1.46416
1.46621
1.4693
1.47193
1.47404
1.47574
1.47638
1.47595
1.47438
1.47356
1.47315
1.47279
1.47266
1.4721
1.47117
1.46936
1.46705
1.46737
1.46833
1.47182
1.48071
1.49666
1.52202
1.55699
1.59878
1.6432
1.68673
1.72684
1.75923
1.78267
1.8007
1.81061
1.81716
1.82495
1.83123
1.83259
1.83257
1.83269
1.8339
1.83557
1.83958
1.84378
1.84379
1.8422
1.83842
1.83312
1.82835
1.82576
1.82455
1.82374
1.82288
1.82151
1.82127
1.82058
1.81711
1.81328
1.80908
1.80385
1.79887
1.79493
1.79162
1.78836
1.78543
1.78455
1.78441
1.78398
1.78207
1.78145
1.78086
1.77929
1.77518
2.22298
2.15126
2.07635
2.00237
1.94035
1.87583
1.81016
1.75966
1.71285
1.66227
1.62127
1.59078
1.56256
1.5306
1.49202
1.46481
1.44655
1.42653
1.39981
1.37467
1.3646
1.35258
1.33011
1.30497
1.29875
1.29312
1.28147
1.26705
1.25516
1.24665
1.2391
1.23253
1.23172
1.23314
1.23602
1.24201
1.25229
1.2723
1.30326
1.34114
1.37768
1.41731
1.44838
1.45637
1.458
1.46219
1.46348
1.46453
1.46735
1.46879
1.47088
1.47359
1.47498
1.47533
1.47496
1.47338
1.47377
1.4751
1.4789
1.48441
1.48583
1.48633
1.4867
1.48597
1.48277
1.47954
1.47896
1.4788
1.47904
1.48078
1.48012
1.47836
1.47657
1.47414
1.46963
1.4641
1.46058
1.45876
1.45831
1.45873
1.46167
1.46453
1.46542
1.46611
1.46605
1.46455
1.46108
1.45641
1.4539
1.45362
1.45405
1.45502
1.45617
1.45654
1.45599
1.45427
1.4511
1.44645
1.4421
1.43954
1.43773
1.43613
1.4348
1.4341
1.43394
1.43406
1.43496
1.43676
1.43859
1.43941
1.43946
1.43891
1.43827
1.43837
1.4391
1.44031
1.44142
1.44334
1.44545
1.44691
1.44816
1.45024
1.45339
1.45506
1.45552
1.45583
1.45544
1.45353
1.45045
1.44841
1.44765
1.44683
1.44592
1.44617
1.4476
1.44964
1.45259
1.45772
1.46979
1.49159
1.52472
1.56626
1.61146
1.65699
1.69854
1.73186
1.7575
1.77684
1.78637
1.79547
1.80204
1.80266
1.80302
1.80669
1.8074
1.80614
1.8042
1.80431
1.80498
1.80842
1.81173
1.81262
1.8121
1.8094
1.80555
1.80448
1.8031
1.80001
1.79723
1.79519
1.79337
1.7922
1.79185
1.79268
1.79159
1.78631
1.78052
1.77654
1.77289
1.7697
1.76786
1.76713
1.76648
1.76552
1.76374
1.76019
1.75557
1.75117
1.74745
1.74471
1.74209
1.73863
2.23545
2.17325
2.1052
2.04275
1.98342
1.92418
1.8622
1.81192
1.76798
1.72712
1.68204
1.64345
1.61274
1.58151
1.55075
1.51854
1.48747
1.46414
1.44137
1.41521
1.40096
1.39348
1.3807
1.35569
1.33137
1.32581
1.31932
1.30516
1.28463
1.2726
1.26494
1.25792
1.25326
1.24871
1.24506
1.2439
1.24031
1.23755
1.2408
1.25316
1.27689
1.31635
1.35603
1.38537
1.40416
1.41854
1.43101
1.43878
1.44893
1.46017
1.4664
1.47046
1.47344
1.47264
1.46764
1.46322
1.46324
1.46603
1.47136
1.47703
1.47929
1.48019
1.47951
1.47496
1.47122
1.47084
1.47075
1.47247
1.47558
1.47556
1.47305
1.46935
1.46513
1.46051
1.45652
1.45403
1.45266
1.45219
1.45328
1.45685
1.4594
1.46009
1.46029
1.45974
1.45812
1.45493
1.45056
1.44834
1.44779
1.44777
1.44799
1.44842
1.44839
1.44731
1.44526
1.44237
1.43861
1.43426
1.43099
1.42943
1.42834
1.42763
1.42746
1.42741
1.42723
1.42714
1.42737
1.42779
1.42817
1.42832
1.42808
1.42769
1.42772
1.42819
1.42922
1.43063
1.43246
1.43446
1.43634
1.43788
1.4391
1.43998
1.44053
1.44058
1.44019
1.43886
1.43694
1.43385
1.43004
1.42796
1.42828
1.4298
1.43234
1.43705
1.44889
1.47138
1.50671
1.55007
1.59718
1.64197
1.68299
1.71576
1.74092
1.75805
1.77048
1.77914
1.78237
1.78503
1.78555
1.78392
1.78122
1.78107
1.78301
1.78311
1.78132
1.78078
1.78146
1.78594
1.78823
1.78928
1.78923
1.78624
1.78199
1.78088
1.78007
1.77768
1.77452
1.77107
1.76994
1.77005
1.77011
1.77009
1.77191
1.77248
1.76959
1.76387
1.75835
1.75461
1.7529
1.75153
1.75008
1.7495
1.74852
1.74543
1.73913
1.73254
1.72718
1.72354
1.72009
1.71674
1.71568
1.71332
2.24668
2.19007
2.1305
2.07589
2.01996
1.96097
1.91
1.86344
1.81681
1.77462
1.73599
1.69602
1.6601
1.62941
1.59473
1.56278
1.53191
1.50822
1.49041
1.46539
1.43458
1.41954
1.41229
1.40088
1.38046
1.35874
1.34803
1.33702
1.32139
1.3084
1.30164
1.29364
1.2864
1.28027
1.27335
1.26666
1.25791
1.24611
1.24414
1.24476
1.24689
1.25259
1.26128
1.27345
1.29246
1.31865
1.35257
1.38335
1.4132
1.44548
1.45529
1.46072
1.46308
1.4621
1.45554
1.45318
1.45545
1.46151
1.46797
1.4722
1.47309
1.47244
1.46883
1.46312
1.46169
1.46147
1.46383
1.46993
1.47224
1.471
1.46745
1.46195
1.45511
1.4502
1.44814
1.44733
1.4473
1.44947
1.45312
1.45407
1.45449
1.45447
1.45368
1.45174
1.44866
1.44566
1.44453
1.44454
1.44465
1.44449
1.4436
1.44166
1.43926
1.43682
1.43384
1.43065
1.42784
1.42564
1.42425
1.42396
1.42388
1.4239
1.42394
1.42354
1.42196
1.42023
1.41927
1.4188
1.41869
1.41869
1.41896
1.41987
1.42092
1.42215
1.42341
1.42455
1.42547
1.42628
1.42718
1.42802
1.42834
1.42831
1.42799
1.42726
1.4257
1.42333
1.42003
1.41784
1.41796
1.41999
1.42614
1.44028
1.46674
1.50661
1.5581
1.61418
1.6665
1.70644
1.73646
1.75351
1.76358
1.76959
1.77266
1.77209
1.77188
1.77108
1.76919
1.76575
1.76177
1.75899
1.75909
1.75966
1.75978
1.76024
1.76022
1.76213
1.76774
1.76948
1.7692
1.76706
1.76199
1.7587
1.75732
1.75582
1.75402
1.75145
1.75048
1.75006
1.75017
1.75047
1.75175