/*--------------------------------*- C++ -*----------------------------------*\
  =========                 |
  \\      /  F ield         | OpenFOAM: The Open Source CFD Toolbox
   \\    /   O peration     | Website:  https://openfoam.org
    \\  /    A nd           | Version:  7
     \\/     M anipulation  |
\*---------------------------------------------------------------------------*/
FoamFile
{
    version     2.0;
    format      ascii;
    class       volVectorField;
    location    "1.1";
    object      U;
}
// * * * * * * * * * * * * * * * * * * * * * * * * * * * * * * * * * * * * * //

dimensions      [0 1 -1 0 0 0 0];

internalField   nonuniform List<vector> 
16128
(
(3 -4.42814e-17 0)
(3 -1.26815e-16 0)
(3 -2.84405e-16 0)
(3 -6.32174e-16 0)
(3 -3.29928e-16 0)
(3 3.04683e-17 0)
(3 1.86618e-16 0)
(3 4.33101e-17 0)
(3 -5.56017e-17 0)
(3 -3.74462e-16 0)
(3 -5.59735e-17 0)
(3 -2.95731e-18 0)
(3 -4.19999e-18 0)
(3 -1.99068e-16 0)
(3 -5.67825e-16 0)
(3 -7.73303e-16 0)
(3 -8.38384e-16 0)
(3 -5.37084e-16 0)
(3 -4.98783e-16 0)
(3 -2.948e-16 0)
(3 -4.86705e-16 0)
(3 -3.69418e-16 0)
(3 -2.30629e-16 0)
(3 1.64767e-16 0)
(3 3.23768e-16 0)
(3 -7.06684e-16 0)
(2.02238 0.00655458 0)
(0.802653 0.00583979 0)
(0.702702 0.0123106 0)
(0.672569 0.0177125 0)
(0.629514 0.0197433 0)
(0.585664 0.0185532 0)
(0.546806 0.0144564 0)
(0.515326 0.0111047 0)
(0.489425 0.0105996 0)
(0.463006 0.0123522 0)
(0.432972 0.0146646 0)
(0.400002 0.0161287 0)
(0.365601 0.0166548 0)
(0.330899 0.0169183 0)
(0.296601 0.0173786 0)
(0.262979 0.017751 0)
(0.228644 0.0184139 0)
(0.191421 0.0189497 0)
(0.151672 0.01966 0)
(0.109612 0.0206829 0)
(0.0659724 0.0216884 0)
(0.0234543 0.0231408 0)
(3 6.50952e-17 0)
(3 -1.02959e-16 0)
(3 -4.61757e-16 0)
(3 -7.64451e-16 0)
(3 -4.08821e-16 0)
(3 -2.46946e-17 0)
(3 5.15444e-17 0)
(3 -2.37629e-16 0)
(3 -7.61113e-17 0)
(3 1.58025e-16 0)
(3 8.58182e-16 0)
(3 6.75574e-16 0)
(3 -7.38052e-17 0)
(3 -7.12476e-16 0)
(3 -9.54047e-16 0)
(3 -9.87239e-16 0)
(3 -6.34944e-16 0)
(3 -3.95604e-16 0)
(3 4.97462e-18 0)
(3 -6.87238e-17 0)
(3 -4.42153e-16 0)
(3 -2.44247e-16 0)
(3 -4.60661e-17 0)
(3 3.0671e-16 0)
(3 6.43735e-16 0)
(3 2.83574e-16 0)
(2.04558 0.0336373 0)
(0.799848 0.0299703 0)
(0.691786 0.0387146 0)
(0.659253 0.0501415 0)
(0.616613 0.0541832 0)
(0.575492 0.0504334 0)
(0.540186 0.0407556 0)
(0.510301 0.0328415 0)
(0.484067 0.0318571 0)
(0.456908 0.0369959 0)
(0.425947 0.043646 0)
(0.392038 0.0475471 0)
(0.357386 0.0488227 0)
(0.323049 0.0498437 0)
(0.289274 0.0517361 0)
(0.255944 0.0532222 0)
(0.22194 0.0552016 0)
(0.185095 0.0567063 0)
(0.146589 0.0587351 0)
(0.106354 0.0621831 0)
(0.0643526 0.0654712 0)
(0.0231485 0.0701886 0)
(3 6.20975e-17 0)
(3 3.47249e-16 0)
(3 1.97557e-16 0)
(3 -2.22725e-16 0)
(3 -6.30669e-16 0)
(3 -6.56172e-16 0)
(3 -5.49897e-16 0)
(3 5.88165e-17 0)
(3 4.11331e-16 0)
(3 5.03534e-16 0)
(3 1.17473e-15 0)
(3 1.29378e-15 0)
(3 7.8511e-16 0)
(3 -7.57817e-17 0)
(3 -2.29645e-16 0)
(3 3.17147e-16 0)
(3 1.51199e-16 0)
(3 -2.04516e-17 0)
(3 1.07492e-16 0)
(3 5.41879e-16 0)
(3 3.66175e-16 0)
(3 -3.71397e-16 0)
(3 4.23517e-18 0)
(3 3.94998e-16 0)
(3 4.48165e-16 0)
(3 4.32392e-16 0)
(2.11408 0.0571342 0)
(0.810128 0.0533575 0)
(0.693647 0.0712748 0)
(0.65702 0.0874772 0)
(0.613387 0.0904493 0)
(0.574134 0.0815711 0)
(0.541755 0.0666231 0)
(0.512783 0.0556263 0)
(0.485533 0.0550533 0)
(0.45694 0.0637018 0)
(0.424308 0.0746516 0)
(0.388547 0.0809574 0)
(0.352713 0.0826434 0)
(0.317662 0.0836648 0)
(0.283195 0.0860371 0)
(0.248829 0.0877711 0)
(0.213924 0.0904223 0)
(0.176668 0.0927427 0)
(0.139252 0.0962057 0)
(0.100879 0.10208 0)
(0.0609602 0.10763 0)
(0.0222724 0.115519 0)
(3 -1.73709e-16 0)
(3 1.67723e-16 0)
(3 2.08575e-16 0)
(3 3.34064e-16 0)
(3 -1.61205e-17 0)
(3 -4.47782e-16 0)
(3 -2.03834e-16 0)
(3 1.41547e-16 0)
(3 3.50677e-16 0)
(3 4.04137e-16 0)
(3 4.37804e-16 0)
(3 1.15742e-15 0)
(3 2.1649e-15 0)
(3 1.44724e-15 0)
(3 1.19264e-15 0)
(3 8.66764e-16 0)
(3 9.853e-16 0)
(3 1.30065e-15 0)
(3 2.71438e-16 0)
(3 3.31777e-16 0)
(3 4.63425e-16 0)
(3 -4.65741e-16 0)
(3 -6.05353e-16 0)
(3 -5.46897e-16 0)
(3 -5.21976e-16 0)
(3 -1.19081e-15 0)
(2.20611 0.0744011 0)
(0.820354 0.0781766 0)
(0.691739 0.108305 0)
(0.652762 0.124741 0)
(0.613637 0.123069 0)
(0.581043 0.108676 0)
(0.552303 0.0900963 0)
(0.523419 0.07806 0)
(0.494441 0.0793338 0)
(0.463934 0.0921533 0)
(0.429515 0.107716 0)
(0.391976 0.1165 0)
(0.354982 0.118301 0)
(0.318968 0.118982 0)
(0.283317 0.121535 0)
(0.247207 0.123362 0)
(0.210464 0.126436 0)
(0.171743 0.129328 0)
(0.134274 0.133635 0)
(0.0966233 0.14119 0)
(0.0579365 0.148384 0)
(0.0214675 0.158901 0)
(3 -2.99015e-17 0)
(3 -1.70231e-16 0)
(3 -4.04244e-17 0)
(3 1.00073e-16 0)
(3 3.54656e-16 0)
(3 9.03276e-16 0)
(3 7.85255e-16 0)
(3 4.71581e-16 0)
(3 4.26524e-17 0)
(3 -1.43194e-17 0)
(3 2.55712e-16 0)
(3 8.21153e-16 0)
(3 1.37813e-15 0)
(3 1.55464e-15 0)
(3 1.69826e-15 0)
(3 4.10287e-17 0)
(3 -3.02132e-16 0)
(3 -1.88773e-16 0)
(3 -3.27367e-18 0)
(3 -4.11664e-16 0)
(3 -3.58037e-16 0)
(3 7.53011e-17 0)
(3 -2.07642e-16 0)
(3 -1.17981e-15 0)
(3 -1.33022e-15 0)
(3 -1.80114e-15 0)
(2.3189 0.0905203 0)
(0.832868 0.110177 0)
(0.685703 0.148146 0)
(0.649207 0.157891 0)
(0.621297 0.149 0)
(0.595184 0.130572 0)
(0.567469 0.111833 0)
(0.536733 0.10187 0)
(0.504579 0.106353 0)
(0.471077 0.123391 0)
(0.434844 0.143042 0)
(0.396297 0.153678 0)
(0.359113 0.155108 0)
(0.32297 0.155104 0)
(0.286842 0.157621 0)
(0.249627 0.159586 0)
(0.211465 0.1632 0)
(0.171494 0.166888 0)
(0.133409 0.171929 0)
(0.0953438 0.180656 0)
(0.0565845 0.188703 0)
(0.0211935 0.201009 0)
(3 3.17819e-17 0)
(3 2.4945e-17 0)
(3 -1.90117e-17 0)
(3 -4.57989e-16 0)
(3 -2.91745e-16 0)
(3 7.784e-17 0)
(3 3.38099e-16 0)
(3 1.99614e-16 0)
(3 -7.24127e-17 0)
(3 -2.00063e-16 0)
(3 4.92587e-16 0)
(3 6.94607e-16 0)
(3 1.14709e-15 0)
(3 1.51245e-15 0)
(3 1.09664e-15 0)
(3 7.94352e-16 0)
(3 5.54791e-17 0)
(3 -7.63144e-16 0)
(3 -2.89565e-16 0)
(3 7.00449e-17 0)
(3 8.4425e-17 0)
(3 6.04452e-16 0)
(3 4.98821e-16 0)
(3 -1.85207e-16 0)
(3 -7.30983e-16 0)
(3 -1.75156e-15 0)
(2.45108 0.104538 0)
(0.856164 0.154188 0)
(0.680274 0.184559 0)
(0.656815 0.18168 0)
(0.637862 0.167542 0)
(0.613145 0.149593 0)
(0.583359 0.135049 0)
(0.549699 0.128786 0)
(0.514154 0.136304 0)
(0.477977 0.156736 0)
(0.440612 0.179626 0)
(0.401691 0.191719 0)
(0.364663 0.192599 0)
(0.328658 0.191726 0)
(0.29244 0.19404 0)
(0.254767 0.196279 0)
(0.215829 0.20071 0)
(0.175147 0.205568 0)
(0.136099 0.211495 0)
(0.0967668 0.221262 0)
(0.0568775 0.229678 0)
(0.0213779 0.243082 0)
(3 4.33032e-19 0)
(3 -6.69781e-17 0)
(3 -2.40278e-16 0)
(3 9.64355e-18 0)
(3 -1.03286e-16 0)
(3 -4.92658e-16 0)
(3 -3.69239e-16 0)
(3 -2.96259e-16 0)
(3 -2.7394e-16 0)
(3 -5.67414e-17 0)
(3 2.55523e-16 0)
(3 4.56152e-16 0)
(3 6.30438e-16 0)
(3 6.8655e-16 0)
(3 6.34604e-16 0)
(3 7.39895e-16 0)
(3 1.19235e-15 0)
(3 1.58137e-15 0)
(3 7.73847e-16 0)
(3 2.72243e-16 0)
(3 8.86971e-17 0)
(3 9.30711e-16 0)
(3 5.39003e-16 0)
(3 -2.36085e-16 0)
(3 -7.65363e-16 0)
(3 -1.96388e-15 0)
(2.60245 0.122114 0)
(0.897139 0.208483 0)
(0.689429 0.210928 0)
(0.676644 0.197383 0)
(0.658176 0.182636 0)
(0.630367 0.170561 0)
(0.596897 0.161673 0)
(0.560342 0.159006 0)
(0.522381 0.168578 0)
(0.484648 0.191175 0)
(0.446633 0.216454 0)
(0.40738 0.229917 0)
(0.370526 0.23033 0)
(0.33511 0.228448 0)
(0.2995 0.23041 0)
(0.262149 0.233159 0)
(0.222996 0.238863 0)
(0.181953 0.245451 0)
(0.141488 0.252644 0)
(0.100232 0.263571 0)
(0.0584892 0.27221 0)
(0.0219007 0.286254 0)
(3 1.643e-17 0)
(3 2.26833e-17 0)
(3 -1.43599e-16 0)
(3 -2.32412e-16 0)
(3 -7.93856e-17 0)
(3 2.80924e-16 0)
(3 1.62052e-16 0)
(3 7.9241e-17 0)
(3 1.57873e-16 0)
(3 3.37365e-16 0)
(3 5.06752e-17 0)
(3 -5.52635e-16 0)
(3 -6.0001e-16 0)
(3 -2.40589e-16 0)
(3 -1.3899e-16 0)
(3 -3.53339e-16 0)
(3 3.60004e-16 0)
(3 9.64848e-16 0)
(3 1.12535e-15 0)
(3 5.57414e-16 0)
(3 2.47729e-16 0)
(3 3.45612e-16 0)
(3 2.04799e-16 0)
(3 -4.71036e-16 0)
(3 -6.95363e-16 0)
(3 -1.14026e-15 0)
(2.78222 0.132487 0)
(0.959517 0.257246 0)
(0.716294 0.227882 0)
(0.701795 0.208316 0)
(0.676299 0.201411 0)
(0.64283 0.19565 0)
(0.60474 0.192188 0)
(0.566425 0.192194 0)
(0.527749 0.202607 0)
(0.489931 0.225988 0)
(0.452521 0.252732 0)
(0.413809 0.267329 0)
(0.377437 0.267374 0)
(0.342692 0.264705 0)
(0.307843 0.266638 0)
(0.271132 0.270488 0)
(0.232066 0.278078 0)
(0.190877 0.287022 0)
(0.14872 0.295871 0)
(0.105197 0.308114 0)
(0.0611711 0.317014 0)
(0.0225781 0.331389 0)
(3 -1.37158e-17 0)
(3 4.77396e-17 0)
(3 -4.71438e-17 0)
(3 -4.51621e-16 0)
(3 -5.12351e-16 0)
(3 -8.57629e-17 0)
(3 7.75063e-16 0)
(3 7.24483e-16 0)
(3 9.55315e-16 0)
(3 1.21005e-15 0)
(3 1.55459e-16 0)
(3 5.79325e-17 0)
(3 -2.31651e-16 0)
(3 -1.96071e-16 0)
(3 -6.00417e-16 0)
(3 -6.74757e-16 0)
(3 -4.48177e-16 0)
(3 2.59939e-16 0)
(3 7.66024e-16 0)
(3 4.01941e-16 0)
(3 5.10913e-16 0)
(3 -7.04353e-18 0)
(3 -4.12238e-16 0)
(3 -6.14962e-16 0)
(3 -3.98801e-16 0)
(3 -6.28154e-16 0)
(2.95805 0.0543583 0)
(1.04506 0.288836 0)
(0.741724 0.248405 0)
(0.720434 0.230455 0)
(0.68834 0.22801 0)
(0.64858 0.225351 0)
(0.60751 0.223289 0)
(0.569955 0.224784 0)
(0.533097 0.23665 0)
(0.496307 0.261304 0)
(0.458392 0.289137 0)
(0.419556 0.304044 0)
(0.384652 0.303254 0)
(0.352345 0.299795 0)
(0.319797 0.302089 0)
(0.284708 0.307779 0)
(0.246192 0.317867 0)
(0.204888 0.32986 0)
(0.160549 0.341065 0)
(0.11404 0.355251 0)
(0.0665327 0.364961 0)
(0.0241051 0.379712 0)
(3 3.15947e-17 0)
(3 5.13021e-18 0)
(3 6.65815e-17 0)
(3 -4.51981e-16 0)
(3 -6.9816e-16 0)
(3 -3.05808e-16 0)
(3 6.5764e-16 0)
(3 1.56612e-15 0)
(3 1.55071e-15 0)
(3 1.1832e-15 0)
(3 9.14893e-16 0)
(3 6.87904e-16 0)
(3 -2.10953e-16 0)
(3 -4.47312e-16 0)
(3 -5.06925e-16 0)
(3 -1.40342e-16 0)
(3 -8.8688e-17 0)
(3 1.55869e-16 0)
(3 6.85308e-19 0)
(3 -3.35238e-16 0)
(3 -6.99041e-16 0)
(3 -1.10268e-15 0)
(3 -1.19086e-15 0)
(3 -1.23602e-15 0)
(3 -6.15283e-16 0)
(3 -1.85291e-16 0)
(3.00628 0.00483451 0)
(1.16679 0.300024 0)
(0.750902 0.271051 0)
(0.719873 0.25795 0)
(0.687249 0.258727 0)
(0.650551 0.257932 0)
(0.611263 0.255728 0)
(0.572063 0.2584 0)
(0.532287 0.271869 0)
(0.494299 0.297781 0)
(0.459626 0.325732 0)
(0.426678 0.338888 0)
(0.398153 0.33562 0)
(0.369448 0.331533 0)
(0.338127 0.335828 0)
(0.302921 0.345454 0)
(0.26303 0.359772 0)
(0.22001 0.376097 0)
(0.172603 0.390348 0)
(0.122964 0.406684 0)
(0.0720886 0.41741 0)
(0.0252433 0.432223 0)
(3 1.39613e-17 0)
(3 -2.54461e-16 0)
(3 -2.89749e-16 0)
(3 -5.92461e-16 0)
(3 -7.36771e-16 0)
(3 -6.44659e-16 0)
(3 -9.66785e-16 0)
(3 -3.60779e-16 0)
(3 2.59238e-16 0)
(3 2.71971e-16 0)
(3 3.40567e-16 0)
(3 -3.45409e-16 0)
(3 -1.5414e-15 0)
(3 -1.43695e-15 0)
(3 -7.5101e-16 0)
(3 -1.50064e-16 0)
(3 3.14791e-16 0)
(3 5.48626e-17 0)
(3 -2.53141e-16 0)
(3 -4.92377e-16 0)
(3 -9.48114e-16 0)
(3 -1.17563e-15 0)
(3 -9.96899e-16 0)
(3 -9.8576e-16 0)
(3 -1.03355e-15 0)
(3 2.27136e-16 0)
(3.00012 2.38132e-05 0)
(1.36736 0.327705 0)
(0.765339 0.291642 0)
(0.7173 0.285628 0)
(0.682841 0.288045 0)
(0.64526 0.289447 0)
(0.606022 0.290237 0)
(0.568403 0.295394 0)
(0.532628 0.309123 0)
(0.50111 0.333394 0)
(0.47342 0.357796 0)
(0.446117 0.367232 0)
(0.420977 0.363415 0)
(0.392736 0.362021 0)
(0.361009 0.370387 0)
(0.324814 0.385435 0)
(0.283978 0.404606 0)
(0.239916 0.425289 0)
(0.190482 0.442851 0)
(0.137897 0.462046 0)
(0.0821121 0.474894 0)
(0.0283687 0.490179 0)
(3 -2.58669e-16 0)
(3 -2.35964e-16 0)
(3 -1.02995e-16 0)
(3 2.28615e-16 0)
(3 7.51117e-17 0)
(3 -3.96609e-16 0)
(3 -1.24844e-15 0)
(3 -1.00934e-15 0)
(3 -4.85407e-16 0)
(3 -3.66619e-16 0)
(3 -6.50601e-16 0)
(3 -8.62486e-16 0)
(3 -8.03694e-16 0)
(3 -4.92366e-16 0)
(3 -3.00658e-16 0)
(3 -1.33538e-16 0)
(3 1.22348e-17 0)
(3 1.09962e-16 0)
(3 1.601e-16 0)
(3 -2.7847e-16 0)
(3 -6.08538e-16 0)
(3 -3.02599e-16 0)
(3 -3.94402e-17 0)
(3 -6.45152e-16 0)
(3 -7.00833e-16 0)
(3 -1.04981e-16 0)
(3 1.24586e-08 0)
(1.65286 0.352331 0)
(0.788073 0.324853 0)
(0.714982 0.32178 0)
(0.684794 0.321937 0)
(0.652568 0.324191 0)
(0.617787 0.325936 0)
(0.584241 0.330851 0)
(0.552432 0.342193 0)
(0.525489 0.363281 0)
(0.50107 0.38479 0)
(0.475797 0.393829 0)
(0.450837 0.391845 0)
(0.421524 0.394083 0)
(0.389395 0.406489 0)
(0.352443 0.427273 0)
(0.30995 0.451919 0)
(0.262738 0.478485 0)
(0.208662 0.50172 0)
(0.151367 0.525284 0)
(0.0908472 0.54123 0)
(0.0297767 0.556049 0)
(3 -3.05091e-17 0)
(3 -1.7148e-17 0)
(3 -1.85081e-16 0)
(3 2.64463e-16 0)
(3 -2.97328e-17 0)
(3 -4.82538e-16 0)
(3 -6.97029e-16 0)
(3 -8.81643e-16 0)
(3 -1.37467e-15 0)
(3 -1.52777e-15 0)
(3 -1.07645e-15 0)
(3 -7.07254e-16 0)
(3 2.58245e-16 0)
(3 4.8855e-16 0)
(3 8.28122e-16 0)
(3 9.54722e-16 0)
(3 7.54706e-16 0)
(3 -1.52649e-16 0)
(3 -6.12127e-16 0)
(3 -8.87732e-16 0)
(3 -9.47345e-16 0)
(3 -6.99574e-16 0)
(3 -3.16818e-16 0)
(3 -3.88978e-16 0)
(3 1.09539e-16 0)
(3 -5.00821e-17 0)
(3 5.52832e-13 0)
(2.05649 0.36345 0)
(0.843723 0.371692 0)
(0.739927 0.355458 0)
(0.71556 0.353314 0)
(0.686815 0.35406 0)
(0.653735 0.355804 0)
(0.621502 0.360074 0)
(0.590555 0.370018 0)
(0.564493 0.390187 0)
(0.540326 0.411318 0)
(0.514864 0.420722 0)
(0.488411 0.420507 0)
(0.45745 0.426222 0)
(0.423355 0.443413 0)
(0.384728 0.47128 0)
(0.339693 0.503171 0)
(0.290196 0.536714 0)
(0.234673 0.565668 0)
(0.175794 0.593617 0)
(0.109289 0.615448 0)
(0.0377985 0.633121 0)
(3 1.45039e-16 0)
(3 -1.37965e-16 0)
(3 -7.82227e-16 0)
(3 -8.00757e-16 0)
(3 -6.26069e-16 0)
(3 1.96948e-16 0)
(3 3.12733e-16 0)
(3 -3.25929e-16 0)
(3 -8.79569e-16 0)
(3 -1.41023e-15 0)
(3 -1.12673e-15 0)
(3 -9.92572e-16 0)
(3 -1.06961e-15 0)
(3 -8.15549e-16 0)
(3 3.32676e-16 0)
(3 3.51859e-16 0)
(3 8.01184e-16 0)
(3 4.33947e-16 0)
(3 -5.63525e-16 0)
(3 -8.48431e-16 0)
(3 -1.46882e-15 0)
(3 -1.85559e-15 0)
(3 -9.79931e-16 0)
(3 2.4433e-17 0)
(3 -3.18072e-16 0)
(3 -2.99457e-16 0)
(3 -1.16937e-14 0)
(2.56935 0.285516 0)
(0.950195 0.404793 0)
(0.792136 0.370497 0)
(0.771445 0.366234 0)
(0.740087 0.371619 0)
(0.704361 0.375532 0)
(0.669859 0.381135 0)
(0.637237 0.391217 0)
(0.609749 0.412245 0)
(0.583746 0.434683 0)
(0.555957 0.446676 0)
(0.525579 0.451723 0)
(0.491931 0.462702 0)
(0.453995 0.486421 0)
(0.412172 0.52179 0)
(0.365362 0.55985 0)
(0.316638 0.599052 0)
(0.260295 0.635744 0)
(0.196287 0.67378 0)
(0.124288 0.710035 0)
(0.0382244 0.73233 0)
(3 9.53542e-17 0)
(3 7.02944e-17 0)
(3 -1.72364e-16 0)
(3 -2.69837e-16 0)
(3 4.54408e-16 0)
(3 1.00927e-15 0)
(3 1.10688e-15 0)
(3 5.73113e-16 0)
(3 3.6772e-16 0)
(3 -5.0649e-17 0)
(3 -6.56387e-16 0)
(3 -5.44638e-16 0)
(3 -5.55247e-16 0)
(3 -5.40037e-16 0)
(3 -4.95849e-16 0)
(3 5.53055e-18 0)
(3 4.22503e-16 0)
(3 1.04943e-15 0)
(3 1.09009e-15 0)
(3 6.48941e-16 0)
(3 -6.17952e-16 0)
(3 -1.29557e-15 0)
(3 -5.5734e-16 0)
(3 7.61219e-18 0)
(3 -3.20349e-18 0)
(3 1.91216e-16 0)
(3 -6.57535e-15 0)
(2.96596 0.0923722 0)
(1.08958 0.402687 0)
(0.821732 0.392314 0)
(0.799222 0.401791 0)
(0.767179 0.408114 0)
(0.732311 0.408267 0)
(0.699494 0.410676 0)
(0.66831 0.419292 0)
(0.641282 0.440286 0)
(0.613894 0.465196 0)
(0.58062 0.481004 0)
(0.545267 0.490631 0)
(0.50739 0.506072 0)
(0.468658 0.534612 0)
(0.431906 0.574964 0)
(0.391652 0.616828 0)
(0.349585 0.661795 0)
(0.302475 0.710549 0)
(0.246937 0.7587 0)
(0.179336 0.809993 0)
(0.069769 0.855924 0)
(3 8.5977e-17 0)
(3 3.31001e-16 0)
(3 8.66813e-16 0)
(3 8.15678e-16 0)
(3 6.89551e-16 0)
(3 3.76628e-16 0)
(3 2.85176e-16 0)
(3 3.8891e-16 0)
(3 3.02217e-16 0)
(3 1.84892e-16 0)
(3 -2.8768e-16 0)
(3 -2.39396e-16 0)
(3 3.58109e-16 0)
(3 7.50068e-16 0)
(3 8.16716e-16 0)
(3 1.23983e-15 0)
(3 1.10695e-15 0)
(3 1.19219e-15 0)
(3 1.93534e-15 0)
(3 1.95479e-15 0)
(3 2.04961e-15 0)
(3 8.16119e-16 0)
(3 -8.30376e-16 0)
(3 -5.2598e-16 0)
(3 -3.49615e-16 0)
(3 2.5764e-17 0)
(3 -1.03419e-15 0)
(3.01616 0.00613176 0)
(1.22444 0.387781 0)
(0.814065 0.418335 0)
(0.784546 0.432543 0)
(0.753385 0.437684 0)
(0.722917 0.436102 0)
(0.693359 0.438987 0)
(0.664976 0.449679 0)
(0.640002 0.471668 0)
(0.616662 0.499003 0)
(0.586784 0.518025 0)
(0.555432 0.529721 0)
(0.521852 0.54736 0)
(0.488579 0.578012 0)
(0.459939 0.62146 0)
(0.42858 0.668567 0)
(0.397055 0.718189 0)
(0.364113 0.774121 0)
(0.313175 0.847268 0)
(0.221331 0.959251 0)
(0.120561 1.09086 0)
(3 -1.12906e-16 0)
(3 6.65419e-17 0)
(3 5.21965e-16 0)
(3 3.11292e-16 0)
(3 -2.97588e-16 0)
(3 -3.20732e-16 0)
(3 -2.53921e-16 0)
(3 -2.33137e-16 0)
(3 -2.20009e-16 0)
(3 -1.02129e-16 0)
(3 6.31594e-16 0)
(3 4.88307e-16 0)
(3 7.08052e-16 0)
(3 8.25298e-16 0)
(3 7.49608e-16 0)
(3 8.1649e-16 0)
(3 7.10491e-16 0)
(3 7.53163e-16 0)
(3 8.62425e-16 0)
(3 1.1485e-15 0)
(3 1.7071e-15 0)
(3 1.87101e-15 0)
(3 1.69151e-15 0)
(3 -1.00156e-16 0)
(3 -4.49791e-16 0)
(3 5.09035e-16 0)
(3 9.72446e-16 0)
(3.00028 1.52789e-05 0)
(1.48878 0.413731 0)
(0.805766 0.440745 0)
(0.761959 0.457282 0)
(0.74176 0.462804 0)
(0.720022 0.46268 0)
(0.694641 0.465583 0)
(0.668595 0.476814 0)
(0.644945 0.499954 0)
(0.623695 0.52975 0)
(0.598776 0.553124 0)
(0.571504 0.567182 0)
(0.543659 0.586089 0)
(0.517788 0.617668 0)
(0.49629 0.662309 0)
(0.476795 0.712237 0)
(0.456328 0.766421 0)
(0.433084 0.839811 0)
(0.410117 0.958607 0)
(0.403764 1.11835 0)
(0.523646 1.39161 0)
(3 6.64649e-17 0)
(3 -1.10495e-16 0)
(3 -3.72936e-16 0)
(3 -3.83181e-16 0)
(3 2.52487e-17 0)
(3 -1.41804e-16 0)
(3 -2.08858e-16 0)
(3 -2.23858e-16 0)
(3 1.09944e-16 0)
(3 2.47495e-16 0)
(3 8.53815e-16 0)
(3 9.89363e-16 0)
(3 8.99244e-16 0)
(3 8.06218e-16 0)
(3 8.29651e-16 0)
(3 5.05311e-16 0)
(3 5.95844e-16 0)
(3 -3.22341e-17 0)
(3 -4.71152e-17 0)
(3 -2.50581e-16 0)
(3 -1.10709e-16 0)
(3 5.11687e-16 0)
(3 9.47714e-16 0)
(3 1.13152e-15 0)
(3 1.43944e-15 0)
(3 1.1016e-15 0)
(3 5.29252e-16 0)
(3 -1.62165e-08 0)
(1.96539 0.454252 0)
(0.858266 0.504089 0)
(0.776015 0.485877 0)
(0.760264 0.486162 0)
(0.741889 0.488659 0)
(0.717353 0.49258 0)
(0.690604 0.504466 0)
(0.665797 0.528395 0)
(0.644747 0.559435 0)
(0.623832 0.585102 0)
(0.600172 0.60035 0)
(0.577448 0.619336 0)
(0.558226 0.651041 0)
(0.543183 0.695663 0)
(0.534664 0.748328 0)
(0.526755 0.809136 0)
(0.526764 0.894896 0)
(0.54036 1.01982 0)
(0.626931 1.17147 0)
(0.938106 1.37452 0)
(3 -2.09222e-17 0)
(3 -2.01569e-16 0)
(3 -1.57825e-16 0)
(3 2.80599e-16 0)
(3 7.33501e-16 0)
(3 2.7577e-16 0)
(3 2.43255e-16 0)
(3 1.24791e-16 0)
(3 4.89236e-16 0)
(3 7.16761e-16 0)
(3 1.13414e-15 0)
(3 9.46932e-16 0)
(3 8.7749e-16 0)
(3 9.07073e-16 0)
(3 6.99245e-16 0)
(3 5.614e-16 0)
(3 -2.92625e-16 0)
(3 -1.03064e-15 0)
(3 -8.5249e-16 0)
(3 -2.56242e-16 0)
(3 -3.13395e-16 0)
(3 -6.70978e-16 0)
(3 -5.00278e-16 0)
(3 3.70623e-16 0)
(3 5.31623e-16 0)
(3 -3.90543e-17 0)
(3 4.15216e-16 0)
(3 -1.67147e-09 0)
(2.65476 0.323772 0)
(1.0131 0.545515 0)
(0.845891 0.497696 0)
(0.817387 0.49839 0)
(0.79017 0.506896 0)
(0.761016 0.514093 0)
(0.730529 0.527946 0)
(0.701995 0.553542 0)
(0.678413 0.586837 0)
(0.658301 0.615871 0)
(0.637444 0.632509 0)
(0.62018 0.65115 0)
(0.607009 0.681437 0)
(0.599891 0.724151 0)
(0.60101 0.777265 0)
(0.607248 0.840483 0)
(0.628236 0.925152 0)
(0.677858 1.03699 0)
(0.827311 1.17378 0)
(1.16682 1.29879 0)
(3 3.5772e-17 0)
(3 1.05626e-16 0)
(3 -2.45112e-17 0)
(3 3.30629e-17 0)
(3 -2.03115e-16 0)
(3 -1.1099e-16 0)
(3 -7.50166e-17 0)
(3 2.15815e-16 0)
(3 7.60534e-16 0)
(3 1.73693e-15 0)
(3 2.36442e-15 0)
(3 2.39747e-15 0)
(3 1.19258e-15 0)
(3 9.81092e-16 0)
(3 4.98054e-16 0)
(3 1.08136e-19 0)
(3 -5.07427e-16 0)
(3 -6.53819e-16 0)
(3 -8.94721e-16 0)
(3 -6.49584e-16 0)
(3 -6.28653e-16 0)
(3 -8.15593e-16 0)
(3 -7.06755e-16 0)
(3 -6.60364e-16 0)
(3 -4.82218e-16 0)
(3 -6.4255e-16 0)
(3 7.56617e-16 0)
(3 -1.74787e-10 0)
(3.0713 0.0416656 0)
(1.23843 0.52141 0)
(0.892907 0.536587 0)
(0.862229 0.54145 0)
(0.829872 0.540238 0)
(0.796126 0.545118 0)
(0.763342 0.559017 0)
(0.73478 0.584408 0)
(0.713438 0.616626 0)
(0.698374 0.644739 0)
(0.68317 0.659654 0)
(0.671759 0.677147 0)
(0.664711 0.705338 0)
(0.664743 0.745952 0)
(0.673388 0.798158 0)
(0.693295 0.860391 0)
(0.729053 0.939639 0)
(0.807759 1.03801 0)
(0.976823 1.14258 0)
(1.26764 1.21682 0)
(3 2.94638e-17 0)
(3 3.34108e-16 0)
(3 -3.80612e-17 0)
(3 -3.0954e-16 0)
(3 -3.91196e-16 0)
(3 -3.75835e-16 0)
(3 -4.35579e-17 0)
(3 8.14667e-16 0)
(3 9.95746e-16 0)
(3 1.60222e-15 0)
(3 1.92314e-15 0)
(3 1.80235e-15 0)
(3 1.06063e-15 0)
(3 7.18148e-16 0)
(3 3.74581e-16 0)
(3 -6.42421e-16 0)
(3 -8.64426e-16 0)
(3 -9.0023e-16 0)
(3 -7.9051e-16 0)
(3 -1.14908e-15 0)
(3 -1.81192e-15 0)
(3 -1.25127e-15 0)
(3 -5.87573e-16 0)
(3 -1.00202e-15 0)
(3 -1.13942e-15 0)
(3 -1.22149e-15 0)
(3 -4.76566e-16 0)
(3 -4.75741e-11 0)
(3.00593 0.000271705 0)
(1.48535 0.520103 0)
(0.872403 0.586127 0)
(0.848423 0.574663 0)
(0.832995 0.574684 0)
(0.813911 0.576334 0)
(0.791494 0.585877 0)
(0.7702 0.607192 0)
(0.753969 0.637286 0)
(0.744591 0.66652 0)
(0.734034 0.683611 0)
(0.727449 0.7018 0)
(0.725788 0.728436 0)
(0.732219 0.766055 0)
(0.747418 0.814828 0)
(0.777959 0.872785 0)
(0.825765 0.943578 0)
(0.920468 1.02714 0)
(1.08332 1.10236 0)
(1.3238 1.14836 0)
(3 -7.77043e-17 0)
(3 2.02465e-17 0)
(3 2.26662e-17 0)
(3 1.54517e-16 0)
(3 8.20402e-17 0)
(3 -1.91026e-16 0)
(3 1.8344e-17 0)
(3 3.49336e-16 0)
(3 2.19557e-16 0)
(3 -8.73635e-17 0)
(3 -8.68685e-16 0)
(3 -1.19323e-15 0)
(3 -1.21829e-15 0)
(3 -9.8819e-16 0)
(3 -4.5965e-16 0)
(3 -8.93024e-16 0)
(3 -1.98274e-15 0)
(3 -2.08689e-15 0)
(3 -1.38094e-15 0)
(3 -9.61427e-16 0)
(3 -4.44075e-16 0)
(3 -1.0589e-15 0)
(3 -1.56249e-15 0)
(3 -1.61792e-15 0)
(3 -1.77051e-15 0)
(3 -2.01526e-15 0)
(3 -1.33328e-15 0)
(3 -8.07916e-12 0)
(3.00002 -1.25543e-06 0)
(2.12176 0.518809 0)
(0.943538 0.627215 0)
(0.869745 0.585512 0)
(0.85977 0.592207 0)
(0.844302 0.596181 0)
(0.827008 0.605416 0)
(0.810619 0.624968 0)
(0.798098 0.653321 0)
(0.792037 0.683098 0)
(0.78533 0.702173 0)
(0.782482 0.720964 0)
(0.785062 0.746088 0)
(0.796785 0.780629 0)
(0.817839 0.825191 0)
(0.855466 0.877713 0)
(0.912245 0.940004 0)
(1.01178 1.00784 0)
(1.15896 1.06239 0)
(1.35153 1.09116 0)
(3 -1.69489e-17 0)
(3 -7.21023e-17 0)
(3 5.19969e-17 0)
(3 9.86268e-17 0)
(3 -1.02228e-16 0)
(3 -4.32622e-16 0)
(3 -5.84859e-16 0)
(3 -8.4507e-16 0)
(3 -4.2898e-16 0)
(3 -1.06351e-15 0)
(3 -2.92527e-15 0)
(3 -2.43237e-15 0)
(3 -1.71005e-15 0)
(3 -7.52769e-16 0)
(3 -5.69528e-16 0)
(3 -5.27111e-16 0)
(3 -4.56237e-16 0)
(3 -4.31759e-16 0)
(3 -7.17961e-16 0)
(3 -7.56179e-16 0)
(3 -2.68928e-16 0)
(3 -5.87268e-16 0)
(3 -1.55818e-15 0)
(3 -2.07614e-15 0)
(3 -1.53925e-15 0)
(3 -9.45929e-16 0)
(3 -4.80638e-17 0)
(3 -8.60129e-14 0)
(3 -4.35751e-07 0)
(2.93949 0.202152 0)
(1.16622 0.62159 0)
(0.926724 0.606821 0)
(0.908184 0.613407 0)
(0.890002 0.616276 0)
(0.870247 0.624001 0)
(0.852246 0.642559 0)
(0.838554 0.670392 0)
(0.83261 0.701011 0)
(0.829191 0.722288 0)
(0.830474 0.741253 0)
(0.837631 0.764101 0)
(0.853638 0.794502 0)
(0.879544 0.833837 0)
(0.922279 0.880004 0)
(0.985178 0.934186 0)
(1.08446 0.989665 0)
(1.21359 1.03016 0)
(1.37683 1.05127 0)
(3 7.94096e-17 0)
(3 -1.52326e-16 0)
(3 -1.01164e-16 0)
(3 -3.20799e-17 0)
(3 -3.69216e-17 0)
(3 2.71263e-16 0)
(3 1.94621e-16 0)
(3 -5.32127e-17 0)
(3 -6.651e-16 0)
(3 -1.08376e-15 0)
(3 -5.2699e-16 0)
(3 -3.89709e-16 0)
(3 -3.21634e-16 0)
(3 -7.88715e-16 0)
(3 -1.44894e-15 0)
(3 -8.55411e-16 0)
(3 -2.0257e-16 0)
(3 -1.21409e-16 0)
(3 -5.16172e-16 0)
(3 -3.76795e-16 0)
(3 -8.13177e-17 0)
(3 -1.07469e-16 0)
(3 -5.28673e-16 0)
(3 -1.13959e-15 0)
(3 -8.57047e-16 0)
(3 -2.86877e-16 0)
(3 -8.3023e-17 0)
(3 -1.41081e-15 0)
(3 -5.60331e-08 0)
(3.04063 0.00955538 0)
(1.3893 0.597248 0)
(0.934173 0.661131 0)
(0.911505 0.653168 0)
(0.900434 0.649004 0)
(0.888101 0.652079 0)
(0.876549 0.667061 0)
(0.867852 0.690808 0)
(0.866515 0.717243 0)
(0.868779 0.737201 0)
(0.874211 0.754375 0)
(0.88443 0.775561 0)
(0.902083 0.802699 0)
(0.930257 0.836588 0)
(0.975115 0.875448 0)
(1.04008 0.922037 0)
(1.13299 0.966325 0)
(1.24889 0.998438 0)
(1.38795 1.01485 0)
(3 -3.28489e-17 0)
(3 -3.31697e-17 0)
(3 -1.80343e-17 0)
(3 -3.18525e-16 0)
(3 -1.05324e-16 0)
(3 1.71936e-16 0)
(3 2.91495e-16 0)
(3 2.93736e-16 0)
(3 1.73789e-16 0)
(3 2.11194e-16 0)
(3 6.65352e-16 0)
(3 5.74484e-16 0)
(3 7.36581e-16 0)
(3 1.41171e-16 0)
(3 -6.14767e-16 0)
(3 -1.33896e-15 0)
(3 -2.10965e-15 0)
(3 -2.12184e-15 0)
(3 -1.20137e-15 0)
(3 -1.02165e-16 0)
(3 -5.24126e-18 0)
(3 8.12597e-17 0)
(3 -1.31763e-16 0)
(3 -2.2863e-16 0)
(3 -4.88384e-16 0)
(3 -1.17374e-15 0)
(3 -1.62263e-15 0)
(3 -1.0386e-15 0)
(3 -2.67522e-09 0)
(3.00072 2.05519e-05 0)
(1.99075 0.597761 0)
(0.984827 0.703587 0)
(0.936329 0.668046 0)
(0.928475 0.664951 0)
(0.917249 0.668159 0)
(0.907046 0.680623 0)
(0.900924 0.702205 0)
(0.902171 0.728045 0)
(0.907249 0.749829 0)
(0.914278 0.768345 0)
(0.925208 0.788866 0)
(0.943488 0.812465 0)
(0.973228 0.840359 0)
(1.01857 0.872466 0)
(1.08357 0.912059 0)
(1.16995 0.947776 0)
(1.27625 0.974895 0)
(1.39512 0.989431 0)
(3 -9.01856e-17 0)
(3 1.59576e-16 0)
(3 -7.39518e-17 0)
(3 -3.21348e-16 0)
(3 -2.05307e-16 0)
(3 -1.96102e-16 0)
(3 -3.87125e-16 0)
(3 1.73085e-16 0)
(3 6.69766e-16 0)
(3 1.36168e-15 0)
(3 1.26847e-15 0)
(3 7.66487e-16 0)
(3 1.00527e-15 0)
(3 1.37156e-15 0)
(3 -2.26654e-16 0)
(3 -1.25589e-15 0)
(3 -1.23614e-15 0)
(3 -8.06543e-16 0)
(3 -5.00898e-16 0)
(3 -7.10517e-16 0)
(3 -1.04075e-15 0)
(3 -5.77714e-16 0)
(3 -2.84391e-16 0)
(3 -2.82362e-16 0)
(3 -3.16916e-16 0)
(3 -5.40394e-16 0)
(3 -8.12015e-16 0)
(3 -4.38628e-16 0)
(3 -1.61183e-11 0)
(3 -2.6894e-07 0)
(2.91991 0.240974 0)
(1.20893 0.693241 0)
(0.991191 0.684213 0)
(0.978637 0.682028 0)
(0.962819 0.684542 0)
(0.948301 0.692683 0)
(0.939799 0.711495 0)
(0.939601 0.736796 0)
(0.944176 0.761187 0)
(0.951539 0.781415 0)
(0.962867 0.798311 0)
(0.9814 0.818743 0)
(1.01091 0.840613 0)
(1.05366 0.866563 0)
(1.11442 0.898221 0)
(1.19312 0.927104 0)
(1.28799 0.950129 0)
(1.39117 0.961744 0)
(3 8.12377e-17 0)
(3 -1.67627e-17 0)
(3 2.41425e-17 0)
(3 1.97692e-16 0)
(3 4.5341e-16 0)
(3 6.97122e-16 0)
(3 1.80521e-16 0)
(3 -3.7317e-17 0)
(3 -1.00645e-16 0)
(3 7.15338e-16 0)
(3 1.31219e-15 0)
(3 1.46476e-15 0)
(3 7.63373e-16 0)
(3 -3.0897e-16 0)
(3 -4.98798e-16 0)
(3 -5.09783e-16 0)
(3 -5.06981e-17 0)
(3 9.55866e-18 0)
(3 -7.82304e-16 0)
(3 -1.4957e-15 0)
(3 -1.52836e-15 0)
(3 -1.57663e-15 0)
(3 -1.18049e-15 0)
(3 -1.18353e-15 0)
(3 -3.49956e-16 0)
(3 7.84211e-17 0)
(3 3.75924e-17 0)
(3 5.14707e-16 0)
(3 -6.48046e-15 0)
(3 -3.47799e-07 0)
(3.04528 0.0103644 0)
(1.48159 0.66253 0)
(1.00031 0.726598 0)
(0.982752 0.719088 0)
(0.977583 0.718386 0)
(0.973883 0.722495 0)
(0.970284 0.735386 0)
(0.971954 0.754634 0)
(0.977439 0.775108 0)
(0.986197 0.794484 0)
(0.998982 0.809475 0)
(1.01775 0.825603 0)
(1.04735 0.844671 0)
(1.08799 0.866057 0)
(1.14391 0.890266 0)
(1.21596 0.913985 0)
(1.29979 0.933207 0)
(1.39323 0.943204 0)
(3 -1.22073e-16 0)
(3 -6.50905e-17 0)
(3 1.13863e-17 0)
(3 -1.97752e-16 0)
(3 -1.8037e-16 0)
(3 -8.07392e-17 0)
(3 3.00251e-16 0)
(3 -1.45189e-16 0)
(3 -4.68894e-16 0)
(3 -3.10693e-16 0)
(3 1.29174e-16 0)
(3 1.0602e-15 0)
(3 1.23146e-15 0)
(3 8.75591e-16 0)
(3 1.02292e-15 0)
(3 1.05417e-15 0)
(3 -2.29439e-16 0)
(3 -1.63058e-15 0)
(3 -2.07683e-15 0)
(3 -2.17014e-15 0)
(3 -2.05207e-15 0)
(3 -1.565e-15 0)
(3 -7.04382e-16 0)
(3 -1.43876e-16 0)
(3 -9.45163e-17 0)
(3 1.83714e-16 0)
(3 1.05669e-15 0)
(3 8.70843e-16 0)
(3 3.98e-15 0)
(3 -7.47377e-08 0)
(3.00081 4.41474e-05 0)
(2.21486 0.577688 0)
(1.07385 0.757382 0)
(1.00941 0.730632 0)
(1.00769 0.729011 0)
(1.00729 0.734005 0)
(1.00603 0.745956 0)
(1.00698 0.764505 0)
(1.01109 0.78671 0)
(1.02007 0.805992 0)
(1.03463 0.819329 0)
(1.05393 0.831993 0)
(1.08274 0.846227 0)
(1.12076 0.862709 0)
(1.1711 0.881244 0)
(1.23564 0.900092 0)
(1.30939 0.915388 0)
(1.39433 0.923607 0)
(3 -2.94872e-16 0)
(3 7.53196e-18 0)
(3 5.23312e-16 0)
(3 4.27927e-16 0)
(3 -5.41067e-16 0)
(3 -6.37787e-16 0)
(3 -4.21235e-16 0)
(3 -3.48723e-16 0)
(3 -4.53757e-16 0)
(3 -7.20353e-16 0)
(3 -6.15514e-16 0)
(3 -2.68419e-16 0)
(3 3.65568e-17 0)
(3 8.51249e-16 0)
(3 9.79928e-16 0)
(3 4.14538e-16 0)
(3 -4.60841e-16 0)
(3 -8.00123e-16 0)
(3 -1.3525e-15 0)
(3 -1.65497e-15 0)
(3 -1.60662e-15 0)
(3 -7.22244e-16 0)
(3 5.77749e-16 0)
(3 1.19737e-15 0)
(3 1.29833e-15 0)
(3 1.29177e-15 0)
(3 1.40808e-15 0)
(3 1.99523e-16 0)
(3 1.04569e-15 0)
(3 -2.58179e-09 0)
(3 -2.47822e-07 0)
(3.05467 0.12388 0)
(1.35266 0.735476 0)
(1.06389 0.751905 0)
(1.05545 0.750484 0)
(1.04274 0.756464 0)
(1.03482 0.765055 0)
(1.0349 0.781315 0)
(1.04116 0.799315 0)
(1.0527 0.814483 0)
(1.06949 0.82675 0)
(1.08954 0.837923 0)
(1.11742 0.849179 0)
(1.15302 0.86185 0)
(1.19896 0.876854 0)
(1.25699 0.892242 0)
(1.32364 0.904712 0)
(1.40025 0.912262 0)
(3 1.01547e-16 0)
(3 6.62511e-17 0)
(3 7.18582e-17 0)
(3 4.79777e-16 0)
(3 3.59235e-16 0)
(3 3.93008e-16 0)
(3 5.26409e-16 0)
(3 4.6335e-16 0)
(3 2.39911e-16 0)
(3 -4.69336e-16 0)
(3 -1.10887e-15 0)
(3 -7.67963e-16 0)
(3 -1.1733e-15 0)
(3 -1.30839e-15 0)
(3 -8.21861e-16 0)
(3 -4.95988e-16 0)
(3 -8.29656e-16 0)
(3 -6.24034e-16 0)
(3 -8.08178e-16 0)
(3 -7.71274e-16 0)
(3 -4.23048e-16 0)
(3 -6.28149e-17 0)
(3 3.01057e-16 0)
(3 1.51669e-16 0)
(3 -6.62786e-17 0)
(3 1.55615e-16 0)
(3 4.75133e-16 0)
(3 7.40828e-16 0)
(3 8.91155e-16 0)
(3 -5.90019e-12 0)
(3 -3.50809e-07 0)
(3.01708 0.00182293 0)
(1.79804 0.705629 0)
(1.08215 0.805942 0)
(1.06339 0.788534 0)
(1.06012 0.789212 0)
(1.05866 0.789267 0)
(1.06265 0.794533 0)
(1.07191 0.807894 0)
(1.08556 0.82266 0)
(1.10329 0.835301 0)
(1.12374 0.845809 0)
(1.15047 0.854336 0)
(1.18411 0.86231 0)
(1.22644 0.871642 0)
(1.27826 0.882385 0)
(1.33899 0.891645 0)
(1.40712 0.898344 0)
(3 3.22507e-16 0)
(3 -1.68341e-16 0)
(3 -5.95038e-16 0)
(3 -3.34293e-16 0)
(3 2.75593e-16 0)
(3 4.82627e-16 0)
(3 8.79792e-16 0)
(3 1.01225e-15 0)
(3 1.03342e-15 0)
(3 6.83078e-16 0)
(3 1.09628e-16 0)
(3 -4.37246e-16 0)
(3 -1.04079e-15 0)
(3 -1.21417e-15 0)
(3 -1.38164e-15 0)
(3 -9.30386e-16 0)
(3 -5.47102e-16 0)
(3 -5.76377e-16 0)
(3 -9.08368e-17 0)
(3 2.53652e-16 0)
(3 1.92055e-16 0)
(3 -3.39986e-16 0)
(3 -1.09737e-15 0)
(3 -1.23799e-15 0)
(3 -1.46559e-15 0)
(3 -1.4078e-15 0)
(3 -6.26875e-16 0)
(3 1.92411e-16 0)
(3 1.73079e-15 0)
(3 -1.30262e-15 0)
(3 -6.73725e-08 0)
(3.00011 9.92156e-06 0)
(2.81974 0.325306 0)
(1.27889 0.785411 0)
(1.10218 0.793861 0)
(1.10255 0.797463 0)