/*--------------------------------*- C++ -*----------------------------------*\
  =========                 |
  \\      /  F ield         | OpenFOAM: The Open Source CFD Toolbox
   \\    /   O peration     | Website:  https://openfoam.org
    \\  /    A nd           | Version:  7
     \\/     M anipulation  |
\*---------------------------------------------------------------------------*/
FoamFile
{
    version     2.0;
    format      ascii;
    class       volScalarField;
    location    "0.5";
    object      p;
}
// * * * * * * * * * * * * * * * * * * * * * * * * * * * * * * * * * * * * * //

dimensions      [1 -1 -2 0 0 0 0];

internalField   nonuniform List<scalar> 
64512
(
1
1
1
1
1
1
1
1
1
1
1
1
1
1
1
1
1
1
1
1
1
1
1
1
1
1
1
1
1
1
1
1
1
1
1
1
1
1
1
1
1
1
1
1
1
1
1
1
1
1
1
1
1
1
1
1
1
1
1
1
1
5.5642
11.2437
11.4084
11.4665
11.5088
11.5402
11.612
11.7249
11.7931
11.7843
11.708
11.6581
11.6861
11.8479
12.0196
12.1479
12.1985
12.174
12.1592
12.2068
12.3082
12.4452
12.561
12.5966
12.5449
12.4373
12.3028
12.1862
12.1416
12.192
12.3126
12.4686
12.6212
12.7282
12.7974
1
1
1
1
1
1
1
1
1
1
1
1
1
1
1
1
1
1
1
1
1
1
1
1
1
1
1
1
1
1
1
1
1
1
1
1
1
1
1
1
1
1
1
1
1
1
1
1
1
1
1
1
1
1
1
1
1
1
1
1
1
5.51445
11.193
11.4217
11.4723
11.5119
11.5398
11.61
11.7217
11.7892
11.7797
11.7035
11.6526
11.6821
11.8467
12.0216
12.152
12.2019
12.1764
12.1591
12.2046
12.3052
12.4421
12.5578
12.594
12.543
12.4357
12.3006
12.1829
12.1384
12.19
12.3121
12.4681
12.6197
12.7252
12.7929
1
1
1
1
1
1
1
1
1
1
1
1
1
1
1
1
1
1
1
1
1
1
1
1
1
1
1
1
1
1
1
1
1
1
1
1
1
1
1
1
1
1
1
1
1
1
1
1
1
1
1
1
1
1
1
1
1
1
1
1
1
5.41236
11.153
11.4227
11.4699
11.5071
11.5312
11.6036
11.7158
11.7837
11.7729
11.696
11.6429
11.6738
11.8436
12.0247
12.1584
12.2071
12.1787
12.1565
12.1983
12.2977
12.4351
12.5518
12.5897
12.5397
12.4321
12.2956
12.176
12.1313
12.1845
12.3089
12.4658
12.6161
12.7196
12.785
1
1
1
1
1
1
1
1
1
1
1
1
1
1
1
1
1
1
1
1
1
1
1
1
1
1
1
1
1
1
1
1
1
1
1
1
1
1
1
1
1
1
1
1
1
1
1
1
1
1
1
1
1
1
1
1
1
1
1
1
1
5.25713
11.1171
11.4209
11.4657
11.4982
11.516
11.5918
11.7059
11.7751
11.7615
11.6841
11.6288
11.6623
11.8403
12.0297
12.1664
12.2125
12.1795
12.1511
12.1886
12.2866
12.4249
12.5433
12.5831
12.5345
12.4268
12.2887
12.1672
12.1225
12.1778
12.305
12.4629
12.6113
12.7118
12.7736
1
1
1
1
1
1
1
1
1
1
1
1
1
1
1
1
1
1
1
1
1
1
1
1
1
1
1
1
1
1
1
1
1
1
1
1
1
1
1
1
1
1
1
1
1
1
1
1
1
1
1
1
1
1
1
1
1
1
1
1
1
5.05652
11.0802
11.4107
11.4529
11.4799
11.4925
11.5749
11.6935
11.7645
11.7474
11.669
11.6119
11.6509
11.838
12.0371
12.1756
12.2175
12.1785
12.1429
12.1753
12.2718
12.4113
12.5321
12.5742
12.5272
12.4192
12.2793
12.1562
12.112
12.17
12.3005
12.4592
12.6054
12.7021
12.7595
1
1
1
1
1
1
1
1
1
1
1
1
1
1
1
1
1
1
1
1
1
1
1
1
1
1
1
1
1
1
1
1
1
1
1
1
1
1
1
1
1
1
1
1
1
1
1
1
1
1
1
1
1
1
1
1
1
1
1
1
1
4.81585
11.0319
11.3911
11.431
11.4532
11.465
11.5559
11.6789
11.7499
11.7289
11.6501
11.5939
11.6417
11.8388
12.0464
12.1847
12.2206
12.1743
12.1313
12.1583
12.2533
12.3939
12.5174
12.5624
12.5166
12.4087
12.2677
12.1432
12.1001
12.1616
12.2956
12.4546
12.5978
12.6899
12.7425
1
1
1
1
1
1
1
1
1
1
1
1
1
1
1
1
1
1
1
1
1
1
1
1
1
1
1
1
1
1
1
1
1
1
1
1
1
1
1
1
1
1
1
1
1
1
1
1
1
1
1
1
1
1
1
1
1
1
1
1
1
4.5436
10.9614
11.3584
11.3959
11.4196
11.4384
11.5366
11.6615
11.7307
11.7068
11.629
11.5778
11.6366
11.8425
12.0554
12.1916
12.2209
12.1675
12.1167
12.1383
12.2313
12.3728
12.4993
12.5476
12.504
12.3965
12.2548
12.1296
12.0877
12.1525
12.2896
12.4483
12.5878
12.6745
12.7221
1
1
1
1
1
1
1
1
1
1
1
1
1
1
1
1
1
1
1
1
1
1
1
1
1
1
1
1
1
1
1
1
1
1
1
1
1
1
1
1
1
1
1
1
1
1
1
1
1
1
1
1
1
1
1
1
1
1
1
1
1
4.24786
10.8514
11.3071
11.3494
11.3881
11.4178
11.5177
11.6404
11.7057
11.6811
11.6072
11.5667
11.6368
11.8478
12.0622
12.195
12.2181
12.1584
12.0998
12.1155
12.206
12.3476
12.4771
12.5291
12.488
12.3816
12.2405
12.1162
12.0754
12.1429
12.2824
12.44
12.5749
12.6557
12.6986
1
1
1
1
1
1
1
1
1
1
1
1
1
1
1
1
1
1
1
1
1
1
1
1
1
1
1
1
1
1
1
1
1
1
1
1
1
1
1
1
1
1
1
1
1
1
1
1
1
1
1
1
1
1
1
1
1
1
1
1
1
3.92215
10.673
11.2516
11.3114
11.3642
11.401
11.4972
11.6147
11.6744
11.6527
11.5877
11.5624
11.6414
11.8523
12.0652
12.1945
12.2122
12.1471
12.0811
12.0906
12.1775
12.3179
12.45
12.5067
12.469
12.3647
12.2253
12.1023
12.0628
12.1318
12.2734
12.4289
12.558
12.6329
12.6719
1
1
1
1
1
1
1
1
1
1
1
1
1
1
1
1
1
1
1
1
1
1
1
1
1
1
1
1
1
1
1
1
1
1
1
1
1
1
1
1
1
1
1
1
1
1
1
1
1
1
1
1
1
1
1
1
1
1
1
1
1
3.55922
10.4148
11.2144
11.287
11.3414
11.3851
11.4743
11.5832
11.6369
11.6234
11.5739
11.5658
11.6487
11.8539
12.0637
12.1895
12.2028
12.134
12.0613
12.0638
12.1458
12.2831
12.4175
12.4799
12.4468
12.3459
12.209
12.0892
12.0515
12.1199
12.2622
12.4145
12.5363
12.6058
12.6415
1
1
1
1
1
1
1
1
1
1
1
1
1
1
1
1
1
1
1
1
1
1
1
1
1
1
1
1
1
1
1
1
1
1
1
1
1
1
1
1
1
1
1
1
1
1
1
1
1
1
1
1
1
1
1
1
1
1
1
1
1
3.14891
10.0715
11.2024
11.2676
11.3215
11.3691
11.4476
11.5459
11.5968
11.5963
11.5678
11.576
11.657
11.8512
12.0563
12.1786
12.1897
12.1197
12.0413
12.0354
12.1105
12.2427
12.3789
12.448
12.421
12.3242
12.1917
12.0773
12.0423
12.1086
12.2477
12.3958
12.5102
12.574
12.6072
1
1
1
1
1
1
1
1
1
1
1
1
1
1
1
1
1
1
1
1
1
1
1
1
1
1
1
1
1
1
1
1
1
1
1
1
1
1
1
1
1
1
1
1
1
1
1
1
1
1
1
1
1
1
1
1
1
1
1
1
1
2.6687
9.64192
11.2321
11.2512
11.3126
11.3562
11.4138
11.4996
11.5572
11.575
11.5705
11.5915
11.6657
11.8436
12.0412
12.1601
12.1727
12.1053
12.022
12.0054
12.0712
12.1968
12.3339
12.4105
12.3907
12.2992
12.1731
12.0664
12.035
12.0978
12.2303
12.3722
12.4796
12.5369
12.5686
1
1
1
1
1
1
1
1
1
1
1
1
1
1
1
1
1
1
1
1
1
1
1
1
1
1
1
1
1
1
1
1
1
1
1
1
1
1
1
1
1
1
1
1
1
1
1
1
1
1
1
1
1
1
1
1
1
1
1
1
1
2.15688
9.10141
11.2972
11.2358
11.3059
11.3346
11.366
11.4445
11.5238
11.5645
11.5836
11.6103
11.6725
11.8288
12.016
12.1331
12.1524
12.0913
12.0031
11.9737
12.0281
12.146
12.283
12.3669
12.3551
12.2703
12.1529
12.0565
12.0291
12.0871
12.2106
12.3436
12.4428
12.4946
12.5263
1
1
1
1
1
1
1
1
1
1
1
1
1
1
1
1
1
1
1
1
1
1
1
1
1
1
1
1
1
1
1
1
1
1
1
1
1
1
1
1
1
1
1
1
1
1
1
1
1
1
1
1
1
1
1
1
1
1
1
1
1
1.65699
8.38055
11.3267
11.2123
11.2669
11.2878
11.3167
11.3956
11.5019
11.5683
11.6053
11.6288
11.6728
11.803
11.9797
12.0987
12.1301
12.0775
11.9836
11.9399
11.9815
12.0913
12.2268
12.3173
12.3138
12.237
12.1312
12.0476
12.0244
12.0757
12.1876
12.3097
12.4001
12.4474
12.4797
1
1
1
1
1
1
1
1
1
1
1
1
1
1
1
1
1
1
1
1
1
1
1
1
1
1
1
1
1
1
1
1
1
1
1
1
1
1
1
1
1
1
1
1
1
1
1
1
1
1
1
1
1
1
1
1
1
1
1
1
1
1.21817
7.44422
11.2646
11.2074
11.2303
11.2379
11.2744
11.362
11.494
11.5849
11.6288
11.6415
11.6641
11.7655
11.9337
12.0599
12.1068
12.0622
11.9622
11.9036
11.932
12.034
12.1664
12.2614
12.2662
12.1995
12.1085
12.0395
12.02
12.0626
12.1601
12.2697
12.3517
12.3956
12.4292
1
1
1
1
1
1
1
1
1
1
1
1
1
1
1
1
1
1
1
1
1
1
1
1
1
1
1
1
1
1
1
1
1
1
1
1
1
1
1
1
1
1
1
1
1
1
1
1
1
1
1
1
1
1
1
1
1
1
1
1
1
1.00639
6.477
11.171
11.1808
11.1976
11.2094
11.251
11.3507
11.4967
11.6025
11.6446
11.6418
11.6435
11.7197
11.8817
12.0195
12.0818
12.043
11.9374
11.865
11.8805
11.9746
12.1019
12.1994
12.2126
12.1585
12.0856
12.0319
12.015
12.0466
12.1271
12.2232
12.2974
12.339
12.3744
1
1
1
1
1
1
1
1
1
1
1
1
1
1
1
1
1
1
1
1
1
1
1
1
1
1
1
1
1
1
1
1
1
1
1
1
1
1
1
1
1
1
1
1
1
1
1
1
1
1
1
1
1
1
1
1
1
1
1
1
1
1.00002
5.53364
10.984
11.1526
11.1828
11.2031
11.2497
11.3504
11.5005
11.6091
11.6456
11.6266
11.6113
11.6698
11.8277
11.977
12.0521
12.018
11.9092
11.8259
11.8283
11.913
12.0328
12.1306
12.1527
12.1148
12.063
12.0241
12.008
12.0266
12.0879
12.1695
12.2369
12.2776
12.3153
1
1
1
1
1
1
1
1
1
1
1
1
1
1
1
1
1
1
1
1
1
1
1
1
1
1
1
1
1
1
1
1
1
1
1
1
1
1
1
1
1
1
1
1
1
1
1
1
1
1
1
1
1
1
1
1
1
1
1
1
1
1
4.66521
10.7369
11.1193
11.1567
11.2073
11.2512
11.3446
11.4893
11.5965
11.6295
11.5995
11.5732
11.6203
11.7727
11.9307
12.0153
11.9863
11.8783
11.7881
11.7765
11.8486
11.9581
12.0538
12.0873
12.0702
12.0413
12.0152
11.9977
12.0014
12.042
12.1084
12.1695
12.2104
12.2507
1
1
1
1
1
1
1
1
1
1
1
1
1
1
1
1
1
1
1
1
1
1
1
1
1
1
1
1
1
1
1
1
1
1
1
1
1
1
1
1
1
1
1
1
1
1
1
1
1
1
1
1
1
1
1
1
1
1
1
1
1
1
3.85856
10.4314
11.0661
11.138
11.1961
11.2392
11.3217
11.459
11.5633
11.598
11.5658
11.535
11.5741
11.7161
11.8778
11.9688
11.9475
11.846
11.7516
11.7256
11.7818
11.8773
11.9689
12.0178
12.0259
12.0192
12.0028
11.9815
11.9699
11.9891
12.0396
12.095
12.137
12.1802
1
1
1
1
1
1
1
1
1
1
1
1
1
1
1
1
1
1
1
1
1
1
1
1
1
1
1
1
1
1
1
1
1
1
1
1
1
1
1
1
1
1
1
1
1
1
1
1
1
1
1
1
1
1
1
1
1
1
1
1
1
1
3.0717
9.9924
11.0072
11.1123
11.1745
11.2126
11.2828
11.4103
11.5184
11.559
11.5331
11.5006
11.5316
11.6559
11.8153
11.9112
11.9034
11.8136
11.716
11.6747
11.7118
11.7903
11.8773
11.947
11.9827
11.9953
11.9856
11.9589
11.9314
11.9292
11.9626
12.0123
12.0557
12.1015
1
1
1
1
1
1
1
1
1
1
1
1
1
1
1
1
1
1
1
1
1
1
1
1
1
1
1
1
1
1
1
1
1
1
1
1
1
1
1
1
1
1
1
1
1
1
1
1
1
1
1
1
1
1
1
1
1
1
1
1
1
1
2.33213
9.37361
10.9781
11.0878
11.1535
11.1797
11.2346
11.3519
11.4681
11.5188
11.5058
11.4712
11.4892
11.5897
11.7426
11.8454
11.8571
11.7813
11.6786
11.6186
11.6338
11.6976
11.7837
11.877
11.9393
11.9659
11.96
11.9271
11.884
11.8613
11.8777
11.9213
11.9665
12.0149
1
1
1
1
1
1
1
1
1
1
1
1
1
1
1
1
1
1
1
1
1
1
1
1
1
1
1
1
1
1
1
1
1
1
1
1
1
1
1
1
1
1
1
1
1
1
1
1
1
1
1
1
1
1
1
1
1
1
1
1
1
1
1.6879
8.53488
10.965
11.056
11.1199
11.149
11.1955
11.2974
11.4159
11.4806
11.4817
11.4452
11.4464
11.5196
11.663
11.7768
11.8106
11.747
11.6352
11.5545
11.5472
11.6006
11.6926
11.8086
11.8932
11.9288
11.9239
11.8842
11.8276
11.7858
11.7848
11.8208
11.8668
11.9166
1
1
1
1
1
1
1
1
1
1
1
1
1
1
1
1
1
1
1
1
1
1
1
1
1
1
1
1
1
1
1
1
1
1
1
1
1
1
1
1
1
1
1
1
1
1
1
1
1
1
1
1
1
1
1
1
1
1
1
1
1
1
1.14097
7.37045
10.9137
11.0617
11.105
11.1338
11.1669
11.2538
11.3674
11.4465
11.4583
11.4178
11.4001
11.4462
11.5778
11.7066
11.7611
11.7078
11.5868
11.4858
11.4567
11.5021
11.6054
11.7398
11.8398
11.8814
11.8751
11.828
11.7595
11.7015
11.6838
11.711
11.7573
11.8077
1
1
1
1
1
1
1
1
1
1
1
1
1
1
1
1
1
1
1
1
1
1
1
1
1
1
1
1
1
1
1
1
1
1
1
1
1
1
1
1
1
1
1
1
1
1
1
1
1
1
1
1
1
1
1
1
1
1
1
1
1
1
1.00233
5.91157
10.7134
11.0433
11.0851
11.13
11.152
11.2172
11.3209
11.4071
11.4293
11.3892
11.3523
11.3746
11.4923
11.63
11.7014
11.6605
11.5342
11.4147
11.3654
11.4054
11.5197
11.6666
11.7763
11.8223
11.8142
11.7607
11.6817
11.6088
11.5743
11.5898
11.6335
11.6817
1
1
1
1
1
1
1
1
1
1
1
1
1
1
1
1
1
1
1
1
1
1
1
1
1
1
1
1
1
1
1
1
1
1
1
1
1
1
1
1
1
1
1
1
1
1
1
1
1
1
1
1
1
1
1
1
1
1
1
1
1
1
1
4.37546
10.3937
11.0639
11.0872
11.1312
11.136
11.1695
11.2584
11.3545
11.3929
11.3606
11.3063
11.3092
11.4072
11.5447
11.6282
11.5988
11.4738
11.3424
11.2799
11.3166
11.4346
11.5848
11.698
11.7454
11.7354
11.6763
11.5887
11.5031
11.4536
11.4566
11.496
11.5406
1
1
1
1
1
1
1
1
1
1
1
1
1
1
1
1
1
1
1
1
1
1
1
1
1
1
1
1
1
1
1
1
1
1
1
1
1
1
1
1
1
1
1
1
1
1
1
1
1
1
1
1
1
1
1
1
1
1
1
1
1
1
1
2.95222
9.89474
11.1514
11.0585
11.0753
11.0777
11.1071
11.1894
11.2998
11.3508
11.3266
11.2606
11.2484
11.3235
11.4501
11.5392
11.523
11.41
11.2762
11.2072
11.2377
11.3474
11.49
11.6007
11.6481
11.6377
11.5777
11.4856
11.3888
11.3224
11.307
11.3354
11.3701
1
1
1
1
1
1
1
1
1
1
1
1
1
1
1
1
1
1
1
1
1
1
1
1
1
1
1
1
1
1
1
1
1
1
1
1
1
1
1
1
1
1
1
1
1
1
1
1
1
1
1
1
1
1
1
1
1
1
1
1
1
1
1
1.8741
8.92014
11.116
10.9864
11.0171
11.0378
11.054
11.1306
11.2467
11.3011
11.2828
11.213
11.1839
11.2339
11.3431
11.4381
11.4415
11.3496
11.2221
11.1468
11.164
11.2556
11.3818
11.4856
11.5307
11.5196
11.4592
11.3624
11.2527
11.1679
11.1348
11.1504
11.1757
1
1
1
1
1
1
1
1
1
1
1
1
1
1
1
1
1
1
1
1
1
1
1
1
1
1
1
1
1
1
1
1
1
1
1
1
1
1
1
1
1
1
1
1
1
1
1
1
1
1
1
1
1
1
1
1
1
1
1
1
1
1
1
1.18369
7.55408
10.9343
10.9415
10.9653
10.984
11.0008
11.0509
11.1698
11.2405
11.2376
11.1636
11.1119
11.1355
11.2252
11.3279
11.3581
11.2947
11.1794
11.0961
11.0892
11.1549
11.2602
11.3533
11.3934
11.3807
11.3208
11.2221
11.102
10.9971
10.9361
10.9248
10.9256
1
1
1
1
1
1
1
1
1
1
1
1
1
1
1
1
1
1
1
1
1
1
1
1
1
1
1
1
1
1
1
1
1
1
1
1
1
1
1
1
1
1
1
1
1
1
1
1
1
1
1
1
1
1
1
1
1
1
1
1
1
1
1
1.00345
5.91619
10.6355
10.8439
10.9067
10.9207
10.9244
10.9686
11.0889
11.1791
11.1821
11.1046
11.0323
11.035
11.1073
11.2165
11.2745
11.2434
11.1432
11.0485
11.0104
11.0431
11.1241
11.2046
11.2396
11.2231
11.1593
11.0522
10.9126
10.7768
10.6835
10.6444
10.6333
1
1
1
1
1
1
1
1
1
1
1
1
1
1
1
1
1
1
1
1
1
1
1
1
1
1
1
1
1
1
1
1
1
1
1
1
1
1
1
1
1
1
1
1
1
1
1
1
1
1
1
1
1
1
1
1
1
1
1
1
1
1
1
1
4.21253
10.1824
10.7739
10.8312
10.859
10.8749
10.909
10.9896
11.0771
11.1024
11.0475
10.9616
10.9439
10.9983
11.107
11.1889
11.1895
11.1054
10.9971
10.9241
10.9209
10.9753
11.0418
11.0702
11.0456
10.9717
10.8527
10.696
10.5318
10.3982
10.2994
10.2121
1
1
1
1
1
1
1
1
1
1
1
1
1
1
1
1
1
1
1
1
1
1
1
1
1
1
1
1
1
1
1
1
1
1
1
1
1
1
1
1
1
1
1
1
1
1
1
1
1
1
1
1
1
1
1
1
1
1
1
1
1
1
1
1
2.62507
9.50226
10.7807
10.8338
10.8577
10.8451
10.8378
10.8966
10.988
11.0288
10.9964
10.9013
10.8624
10.9028
11.0039
11.1011
11.1268
11.0574
10.9366
10.8309
10.792
10.8168
10.8659
10.8848
10.8481
10.7589
10.6211
10.4313
10.2099
9.98356
9.7922
9.65295
1
1
1
1
1
1
1
1
1
1
1
1
1
1
1
1
1
1
1
1
1
1
1
1
1
1
1
1
1
1
1
1
1
1
1
1
1
1
1
1
1
1
1
1
1
1
1
1
1
1
1
1
1
1
1
1
1
1
1
1
1
1
1
1
1.5296
8.29714
10.7584
10.7367
10.7586
10.7686
10.7691
10.8129
10.9056
10.9618
10.9459
10.8528
10.7928
10.8172
10.9037
11.0069
11.0534
10.9969
10.8676
10.7343
10.6594
10.652
10.6793
10.684
10.6306
10.5203
10.3553
10.1248
9.84492
9.53294
9.22091
9.02207
1
1
1
1
1
1
1
1
1
1
1
1
1
1
1
1
1
1
1
1
1
1
1
1
1
1
1
1
1
1
1
1
1
1
1
1
1
1
1
1
1
1
1
1
1
1
1
1
1
1
1
1
1
1
1
1
1
1
1
1
1
1
1
1
1.02723
6.62789
10.4747
10.6545
10.7113
10.7192
10.7048
10.7332
10.8166
10.8912
10.9003
10.8222
10.7326
10.7312
10.7993
10.8988
10.9623
10.9195
10.788
10.6346
10.5274
10.4859
10.4855
10.4704
10.3968
10.2618
10.0673
9.79777
9.41798
8.91031
7.94749
5.92535
1
1
1
1
1
1
1
1
1
1
1
1
1
1
1
1
1
1
1
1
1
1
1
1
1
1
1
1
1
1
1
1
1
1
1
1
1
1
1
1
1
1
1
1
1
1
1
1
1
1
1
1
1
1
1
1
1
1
1
1
1
1
1
1
1.00017
4.72582
10.0608
10.5936
10.6507
10.6599
10.6426
10.6554
10.7276
10.8213
10.8536
10.7832
10.684
10.6494
10.6922
10.7777
10.8478
10.8227
10.6969
10.5338
10.3988
10.3187
10.2858
10.2474
10.1526
9.99076
9.75562
9.42554
8.93724
8.22108
7.033
4.87695
1
1
1
1
1
1
1
1
1
1
1
1
1
1
1
1
1
1
1
1
1
1
1
1
1
1
1
1
1
1
1
1
1
1
1
1
1
1
1
1
1
1
1
1
1
1
1
1
1
1
1
1
1
1
1
1
1
1
1
1
1
1
1
1
1
2.83959
9.47255
10.5808
10.6292
10.6399
10.6156
10.6086
10.6427
10.7307
10.7795
10.7386
10.6567
10.5805
10.5821
10.6456
10.7093
10.7054
10.5951
10.4319
10.2725
10.1538
10.0829
10.0186
9.90322
9.71623
9.43714
9.05254
8.48027
7.69656
6.32905
4.50639
1
1
1
1
1
1
1
1
1
1
1
1
1
1
1
1
1
1
1
1
1
1
1
1
1
1
1
1
1
1
1
1
1
1
1
1
1
1
1
1
1
1
1
1
1
1
1
1
1
1
1
1
1
1
1
1
1
1
1
1
1
1
1
1
1
1.46237
8.15897
10.6139
10.572
10.5899
10.5826
10.5643
10.5756
10.6514
10.7091
10.7004
10.6247
10.5115
10.4712
10.509
10.5611
10.5744
10.4859
10.3297
10.1532
9.99833
9.88126
9.78659
9.6529
9.44243
9.13154
8.69671
8.11806
7.21535
5.95406
4.46396
1
1
1
1
1
1
1
1
1
1
1
1
1
1
1
1
1
1
1
1
1
1
1
1
1
1
1
1
1
1
1
1
1
1
1
1
1
1
1
1
1
1
1
1
1
1
1
1
1
1
1
1
1
1
1
1
1
1
1
1
1
1
1
1
1
1.01815
6.12035
10.2282
10.4986
10.5696
10.5753
10.532
10.5134
10.5598
10.6242
10.6387
10.5729
10.4528
10.3759
10.3765
10.4093
10.432
10.3719
10.2284
10.0424
9.85391
9.69358
9.55934
9.40492
9.17533
8.84573
8.39153
7.76707
6.88581
5.78174
4.52271
1
1
1
1
1
1
1
1
1
1
1
1
1
1
1
1
1
1
1
1
1
1
1
1
1
1
1
1
1
1
1
1
1
1
1
1
1
1
1
1
1
1
1
1
1
1
1
1
1
1
1
1
1
1
1
1
1
1
1
1
1
1
1
1
1
1.00007
3.82598
9.72753
10.5086
10.5216
10.5426
10.4903
10.4499
10.462
10.5245
10.5645
10.5206
10.3986
10.2845
10.245
10.2597
10.2853
10.2486
10.1204
9.93391
9.72288
9.52492
9.34823
9.16593
8.92152
8.57105
8.12525
7.48
6.67061
5.72552
4.68015
1
1
1
1
1
1
1
1
1
1
1
1
1
1
1
1
1
1
1
1
1
1
1
1
1
1
1
1
1
1
1
1
1
1
1
1
1
1
1
1
1
1
1
1
1
1
1
1
1
1
1
1
1
1
1
1
1
1
1
1
1
1
1
1
1
1
1.88219
8.67338
10.5865
10.4552
10.4782
10.4269
10.3714
10.3575
10.4202
10.4825
10.4717
10.3483
10.2079
10.1277
10.1114
10.1289
10.1101
10.0042
9.82331
9.60331
9.37584
9.15998
8.94082
8.67631
8.3246
7.88694
7.25985
6.52818
5.71825
4.82308
1
1
1
1
1
1
1
1
1
1
1
1
1
1
1
1
1
1
1
1
1
1
1
1
1
1
1
1
1
1
1
1
1
1
1
1
1
1
1
1
1
1
1
1
1
1
1
1
1
1
1
1
1
1
1
1
1
1
1
1
1
1
1
1
1
1
1.05927
6.74928
10.2533
10.3605
10.4282
10.4015
10.3327
10.2832
10.3255
10.3922
10.4034
10.2872
10.1396
10.0201
9.9695
9.9657
9.95682
9.87706
9.70966
9.48996
9.24572
8.99603
8.73327
8.44396
8.10121
7.68481
7.09448
6.44178
5.73913
4.95436
1
1
1
1
1
1
1
1
1
1
1
1
1
1
1
1
1
1
1
1
1
1
1
1
1
1
1
1
1
1
1
1
1
1
1
1
1
1
1
1
1
1
1
1
1
1
1
1
1
1
1
1
1
1
1
1
1
1
1
1
1
1
1
1
1
1
1.00042
4.2031
9.83531
10.3254
10.3585
10.3534
10.2814
10.2008
10.2204
10.2842
10.3187
10.2306
10.0812
9.93589
9.83836
9.80582
9.79544
9.73479
9.58847
9.38032
9.13206
8.85602
8.55476
8.23756
7.89219
7.50315
6.9777
6.39644
5.76453
5.07695
1
1
1
1
1
1
1
1
1
1
1
1
1
1
1
1
1
1
1
1
1
1
1
1
1
1
1
1
1
1
1
1
1
1
1
1
1
1
1
1
1
1
1
1
1
1
1
1
1
1
1
1
1
1
1
1
1
1
1
1
1
1
1
1
1
1
1
1.98221
8.70505
10.3717
10.3196
10.3071
10.239
10.143
10.1184
10.1625
10.2144
10.1786
10.0333
9.87365
9.73112
9.66582
9.6287
9.57118
9.45059
9.26549
9.02667
8.7343
8.40676
8.06196
7.70607
7.34013
6.89
6.37607
5.80741
5.21138
1
1
1
1
1
1
1
1
1
1
1
1
1
1
1
1
1
1
1
1
1
1
1
1
1
1
1
1
1
1
1
1
1
1
1
1
1
1
1
1
1
1
1
1
1
1
1
1
1
1
1
1
1
1
1
1
1
1
1
1
1
1
1
1
1
1
1
1.06863
6.70163
10.0434
10.1432
10.1925
10.1898
10.1055
10.0254
10.0409
10.0921
10.1071
9.98115
9.82148
9.65522
9.54453
9.46805
9.394
9.29349
9.13787
8.91972
8.63124
8.29401
7.92937
7.56581
7.19673
6.80956
6.36196
5.85418
5.3253
1
1
1
1
1
1
1
1
1
1
1
1
1
1
1
1
1
1
1
1
1
1
1
1
1
1
1
1
1
1
1
1
1
1
1
1
1
1
1
1
1
1
1
1
1
1
1
1
1
1
1
1
1
1
1
1
1
1
1
1
1
1
1
1
1
1
1
1.00047
4.03613
9.60612
10.0781
10.1276
10.1224
10.0464
9.92724
9.91022
9.94549
9.98736
9.90996
9.7773
9.60793
9.44043
9.33001
9.22767
9.12502
8.99283
8.80368
8.53572
8.20942
7.8449
7.47471
7.09674
6.74168
6.3333
5.87926
5.40466
1
1
1
1
1
1
1
1
1
1
1
1
1
1
1
1
1
1
1
1
1
1
1
1
1
1
1
1
1
1
1
1
1
1
1
1
1
1
1
1
1
1
1
1
1
1
1
1
1
1
1
1
1
1
1
1
1
1
1
1
1
1
1
1
1
1
1
1
1.78599
8.39004
10.0959
10.0764
10.0855
10.0096
9.87345
9.80602
9.80435
9.84247
9.82045
9.7089
9.54669
9.36013
9.21679
9.08461
8.96399
8.83734
8.67034
8.44095
8.14076
7.79387
7.42551
7.05132
6.69378
6.2987
5.89112
5.46159
1
1
1
1
1
1
1
1
1
1
1
1
1
1
1
1
1
1
1
1
1
1
1
1
1
1
1
1
1
1
1
1
1
1
1
1
1
1
1
1
1
1
1
1
1
1
1
1
1
1
1
1
1
1
1
1
1
1
1
1
1
1
1
1
1
1
1
1
1.04419
6.13574
9.70698
9.89929
9.97313
9.95459
9.83977
9.74522
9.70054
9.70934
9.70189
9.60247
9.46489
9.29015
9.12133
8.96781
8.82683
8.69128
8.53039
8.34152
8.07217
7.75213
7.39961
7.04502
6.68143
6.29526
5.91163
5.50936
1
1
1
1
1
1
1
1
1
1
1
1
1
1
1
1
1
1
1
1
1
1
1
1
1
1
1
1
1
1
1
1
1
1
1
1
1
1
1
1
1
1
1
1
1
1
1
1
1
1
1
1
1
1
1
1
1
1
1
1
1
1
1
1
1
1
1
1
1.0002
3.2579
9.25768
9.88337
9.86246
9.84761
9.76649
9.68673
9.62166
9.58955
9.57968
9.51782
9.38989
9.2184
9.0438
8.87046
8.70965
8.55876
8.40327
8.2279
8.00137
7.70764
7.37773
7.04694
6.69211
6.32108
5.94499
5.55725
1
1
1
1
1
1
1
1
1
1
1
1
1
1
1
1
1
1
1
1
1
1
1
1
1
1
1
1
1
1
1
1
1
1
1
1
1
1
1
1
1
1
1
1
1
1
1
1
1
1
1
1
1
1
1
1
1
1
1
1
1
1
1
1
1
1
1
1
1
1.2965
7.66785
9.85871
9.78975
9.77583
9.71978
9.62739
9.54452
9.4775
9.46761
9.44064
9.33537
9.17378
8.98429
8.79493
8.61424
8.4435
8.28708
8.1184
7.92971
7.65878
7.35262
7.04284
6.70728
6.35413
5.98419
5.61062
1
1
1
1
1
1
1
1
1
1
1
1
1
1
1
1
1
1
1
1
1
1
1
1
1
1
1
1
1
1
1
1
1
1
1
1
1
1
1
1
1
1
1
1
1
1
1
1
1
1
1
1
1
1
1
1
1
1
1
1
1
1
1
1
1
1
1
1
1
1.00682
4.75033
9.33931
9.7022
9.76064
9.71988
9.59287
9.4747
9.37194
9.32493
9.31638
9.28105
9.15221
8.96233
8.7516
8.54558
8.35187
8.17927
8.01595
7.84277
7.6056
7.32502
7.03071
6.71743
6.38286
6.02681
5.66883
1
1
1
1
1
1
1
1
1
1
1
1
1
1
1
1
1
1
1
1
1
1
1
1
1
1
1
1
1
1
1
1
1
1
1
1
1
1
1
1
1
1
1
1
1
1
1
1
1
1
1
1
1
1
1
1
1
1
1
1
1
1
1
1
1
1
1
1
1
1
1.95648
8.36399
9.75557
9.70702
9.69822
9.59778
9.45711
9.30674
9.19812
9.17239
9.1664
9.10302
8.94374
8.73746
8.51529
8.29198
8.09174
7.9171
7.74535
7.54341
7.29406
7.0147
6.71731
6.39963
6.06601
5.72774
1
1
1
1
1
1
1
1
1
1
1
1
1
1
1
1
1
1
1
1
1
1
1
1
1
1
1
1
1
1
1
1
1
1
1
1
1
1
1
1
1
1
1
1
1
1
1
1
1
1
1
1
1
1
1
1
1
1
1
1
1
1
1
1
1
1
1
1
1
1
1.05758
5.87513
9.35113
9.50989
9.56914
9.57286
9.4713
9.29872
9.13574
9.03977
9.02148
8.99968
8.89781
8.73009
8.51395
8.27177
8.03948
7.83405
7.64843
7.46585
7.24742
6.98914
6.70618
6.40822
6.10035
5.78482
1
1
1
1
1
1
1
1
1
1
1
1
1
1
1
1
1
1
1
1
1
1
1
1
1
1
1
1
1
1
1
1
1
1
1
1
1
1
1
1
1
1
1
1
1
1
1
1
1
1
1
1
1
1
1
1
1
1
1
1
1
1
1
1
1
1
1
1
1
1
1.00029
2.68966
8.73666
9.54239
9.47371
9.51123
9.46867
9.33199
9.14227
8.96763
8.88536
8.85655
8.8185
8.69076
8.50491
8.27109
8.01992
7.78336
7.57083
7.38628
7.1843
6.94782
6.68401
6.40837
6.12719
5.83802
1
1
1
1
1
1
1
1
1
1
1
1
1
1
1
1
1
1
1
1
1
1
1
1
1
1
1
1
1
1
1
1
1
1
1
1
1
1
1
1
1
1
1
1
1
1
1
1
1
1
1
1
1
1
1
1
1
1
1
1
1
1
1
1
1
1
1
1
1
1
1
1.16296
6.58655
9.2932
9.33947
9.38963
9.4027
9.32268
9.15664
8.95702
8.80646
8.72591
8.69175
8.61759
8.48093
8.27429
8.02265
7.76485
7.52484
7.31992
7.11985
6.89498
6.6518
6.40046
6.14431
5.88129
1
1
1
1
1
1
1
1
1
1
1
1
1
1
1
1
1
1
1
1
1
1
1
1
1
1
1
1
1
1
1
1
1
1
1
1
1
1
1
1
1
1
1
1
1
1
1
1
1
1
1
1
1
1
1
1
1
1
1
1
1
1
1
1
1
1
1
1
1
1
1
1.002
3.22042
8.82753
9.38039
9.29987
9.28743
9.25939
9.1531
8.97755
8.78862
8.64736
8.56586
8.5145
8.4109
8.24604
8.02251
7.76963
7.51473
7.28456
7.07029
6.84752
6.61684
6.38311
6.14532
5.90127
1
1
1
1
1
1
1
1
1
1
1
1
1
1
1
1
1
1
1
1
1
1
1
1
1
1
1
1
1
1
1
1
1
1
1
1
1
1
1
1
1
1
1
1
1
1
1
1
1
1
1
1
1
1
1
1
1
1
1
1
1
1
1
1
1
1
1
1
1
1
1
1
1.25962
6.89448
9.2002
9.16817
9.15353
9.1617
9.11597
8.98541
8.80093
8.62252
8.48292
8.38482
8.30084
8.18235
8.00597
7.77991
7.52886
7.28254
7.05112
6.82301
6.59379
6.36354
6.13362
5.90079
1
1
1
1
1
1
1
1
1
1
1
1
1
1
1
1
1
1
1
1
1
1
1
1
1
1
1
1
1
1
1
1
1
1
1
1
1
1
1
1
1
1
1
1
1
1
1
1
1
1
1
1
1
1
1
1
1
1
1
1
1
1
1
1
1
1
1
1
1
1
1
1
1.00469
3.45312
8.75192
9.19675
9.09602
9.06634
9.04188
8.96246
8.81957
8.63407
8.44408
8.2914
8.18143
8.07956
7.94692
7.7646
7.5413
7.30042
7.05973
6.82681
6.59515
6.35977
6.12399
5.89191
1
1
1
1
1
1
1
1
1
1
1
1
1
1
1
1
1
1
1
1
1
1
1
1
1
1
1
1
1
1
1
1
1
1
1
1
1
1
1
1
1
1
1
1
1
1
1
1
1
1
1
1
1
1
1
1
1
1
1
1
1
1
1
1
1
1
1
1
1
1
1
1
1.00001
1.30642
6.85722
9.04072
8.99404
8.9429
8.92818
8.89614
8.79604
8.63296
8.43244
8.24195
8.08666
7.96951
7.86148
7.71742
7.52633
7.30818
7.08148
6.85218
6.61817
6.37662
6.13095
5.89358
1
1
1
1
1
1
1
1
1
1
1
1
1
1
1
1
1
1
1
1
1
1
1
1
1
1
1
1
1
1
1
1
1
1
1
1
1
1
1
1
1
1
1
1
1
1
1
1
1
1
1
1
1
1
1
1
1
1
1
1
1
1
1
1
1
1
1
1
1
1
1
1
1
1.00621
3.3533
8.57142
9.04679
8.92049
8.85054
8.81442
8.7436
8.61623
8.4298
8.22264
8.03982
7.89534
7.76935
7.63958
7.47794
7.29035
7.09069
6.87955
6.64988
6.4073
6.15739
5.91494
1
1
1
1
1
1
1
1
1
1
1
1
1
1
1
1
1
1
1
1
1
1
1
1
1
1
1
1
1
1
1
1
1
1
1
1
1
1
1
1
1
1
1
1
1
1
1
1
1
1
1
1
1
1
1
1
1
1
1
1
1
1
1
1
1
1
1
1
1
1
1
1
1
1.00001
1.28398
6.55494
8.85203
8.81542
8.74659
8.70062
8.65082
8.55461
8.40373
8.22078
8.03275
7.85767
7.70087
7.55988
7.41406
7.24605
7.06533
6.87564
6.67213
6.44564
6.20143
5.95473
1
1
1
1
1
1
1
1
1
1
1
1
1
1
1
1
1
1
1
1
1
1
1
1
1
1
1
1
1
1
1
1
1
1
1
1
1
1
1
1
1
1
1
1
1
1
1
1
1
1
1
1
1
1
1
1
1
1
1
1
1
1
1
1
1
1
1
1
1
1
1
1
1
1
1.00535
2.96474
8.29149
8.90661
8.76691
8.65741
8.56678
8.46803
8.35393
8.2121
8.04042
7.85445
7.67734
7.51364
7.35334
7.18728
7.01508
6.84456
6.66868
6.4725
6.25047
6.01129
1
1
1
1
1
1
1
1
1
1
1
1
1
1
1
1
1
1
1
1
1
1
1
1
1
1
1
1
1
1
1
1
1
1
1
1
1
1
1
1
1
1
1
1
1
1
1
1
1
1
1
1
1
1
1
1
1
1
1
1
1
1
1
1
1
1
1
1
1
1
1
1
1
1
1.00001
1.20137
5.97856
8.61509
8.64195
8.55863
8.46726
8.38905
8.30001
8.18312
8.03675
7.86854
7.68355
7.49399
7.31378
7.139
6.96418
6.79851
6.64085
6.47529
6.2861
6.06857
1
1
1
1
1
1
1
1
1
1
1
1
1
1
1
1
1
1
1
1
1
1
1
1
1
1
1
1
1
1
1
1
1
1
1
1
1
1
1
1
1
1
1
1
1
1
1
1
1
1
1
1
1
1
1
1
1
1
1
1
1
1
1
1
1
1
1
1
1
1
1
1
1
1
1
1.00281
2.38964
7.86809
8.71473
8.56849
8.4508
8.34055
8.22822
8.11559
7.99559
7.85905
7.69525
7.50678
7.31098
7.11734
6.92738
6.75352
6.60358
6.4576
6.29244
6.09845
1
1
1
1
1
1
1
1
1
1
1
1
1
1
1
1
1
1
1
1
1
1
1
1
1
1
1
1
1
1
1
1
1
1
1
1
1
1
1
1
1
1
1
1
1
1
1
1
1
1
1
1
1
1
1
1
1
1
1
1
1
1
1
1
1
1
1
1
1
1
1
1
1
1
1
1
1.10771
5.04901
8.33735
8.50808
8.41595
8.31443
8.19801
8.07906
7.96048
7.83374
7.69147
7.5221
7.3264
7.12309
6.92515
6.74428
6.58625
6.4368
6.27851
6.1003
1
1
1
1
1
1
1
1
1
1
1
1
1
1
1
1
1
1
1
1
1
1
1
1
1
1
1
1
1
1
1
1
1
1
1
1
1
1
1
1
1
1
1
1
1
1
1
1
1
1
1
1
1
1
1
1
1
1
1
1
1
1
1
1
1
1
1
1
1
1
1
1
1
1
1
1
1.00102
1.86309
7.13949
8.55414
8.44378
8.31275
8.16867
8.02512
7.90355
7.78836
7.66394
7.51955
7.35068
7.16057
6.95963
6.76467
6.58868
6.42707
6.26597
6.09465
1
1
1
1
1
1
1
1
1
1
1
1
1
1
1
1
1
1
1
1
1
1
1
1
1
1
1
1
1
1
1
1
1
1
1
1
1
1
1
1
1
1
1
1
1
1
1
1
1
1
1
1
1
1
1
1
1
1
1
1
1
1
1
1
1
1
1
1
1
1
1
1
1
1
1
1
1
1.04236
3.72892
8.07344
8.47889
8.34992
8.20921
8.05185
7.89988
7.75429
7.61085
7.47739
7.34313
7.18841
7.00955
6.81769
6.62776
6.44516
6.26721
6.09167
1
1
1
1
1
1
1
1
1
1
1
1
1
1
1
1
1
1
1
1
1
1
1
1
1
1
1
1
1
1
1
1
1
1
1
1
1
1
1
1
1
1
1
1
1
1
1
1
1
1
1
1
1
1
1
1
1
1
1
1
1
1
1
1
1
1
1
1
1
1
1
1
1
1
1
1
1
1.00026
1.38289
6.05108
8.26134
8.24813
8.14357
8.0168
7.87139
7.72298
7.57853
7.44944
7.3281
7.19629
7.04449
6.86919
6.67673
6.48204
6.29432
6.11652
1
1
1
1
1
1
1
1
1
1
1
1
1
1
1
1
1
1
1
1
1
1
1
1
1
1
1
1
1
1
1
1
1
1
1
1
1
1
1
1
1
1
1
1
1
1
1
1
1
1
1
1
1
1
1
1
1
1
1
1
1
1
1
1
1
1
1
1
1
1
1
1
1
1
1
1
1
1
1.00917
2.51714
7.39762
8.32106
8.15939
8.0283
7.88017
7.7135
7.55104
7.41719
7.29822
7.17914
7.04744
6.8929
6.71654
6.52909
6.34274
6.16513
1
1
1
1
1
1
1
1
1
1
1
1
1
1
1
1
1
1
1
1
1
1
1
1
1
1
1
1
1
1
1
1
1
1
1
1
1
1
1
1
1
1
1
1
1
1
1
1
1
1
1
1
1
1
1
1
1
1
1
1
1
1
1
1
1
1
1
1
1
1
1
1
1
1
1
1
1
1
1.00003
1.12309
4.35161
7.84271
8.1337
8.02369
7.90416
7.75639
7.60114
7.45615
7.31569
7.17717
7.03437
6.8802
6.7173
6.55336
6.39096
6.22791
1
1
1
1
1
1
1
1
1
1
1
1
1
1
1
1
1
1
1
1
1
1
1
1
1
1
1
1
1
1
1
1
1
1
1
1
1
1
1
1
1
1
1
1
1
1
1
1
1
1
1
1
1
1
1
1
1
1
1
1
1
1
1
1
1
1
1
1
1
1
1
1
1
1
1
1
1
1
1
1.00144
1.59767
6.13577
8.02589
7.96978
7.84734
7.72912
7.60785
7.47674
7.33499
7.18847
7.0362
6.87637
6.71618
6.56644
6.42335
6.27555
1
1
1
1
1
1
1
1
1
1
1
1
1
1
1
1
1
1
1
1
1
1
1
1
1
1
1
1
1
1
1
1
1
1
1
1
1
1
1
1
1
1
1
1
1
1
1
1
1
1
1
1
1
1
1
1
1
1
1
1
1
1
1
1
1
1
1
1
1
1
1
1
1
1
1
1
1
1
1
1
1.02081
2.70382
7.19164
8.04266
7.88024
7.75517
7.62787
7.49152
7.3431
7.17868
7.00897
6.84559
6.69746
6.56603
6.43816
6.30332
1
1
1
1
1
1
1
1
1
1
1
1
1
1
1
1
1
1
1
1
1
1
1
1
1
1
1
1
1
1
1
1
1
1
1
1
1
1
1
1
1
1
1
1
1
1
1
1
1
1
1
1
1
1
1
1
1
1
1
1
1
1
1
1
1
1
1
1
1
1
1
1
1
1
1
1
1
1
1
1
1.0001
1.15555
4.2009
7.58612
7.90863
7.7669
7.66281
7.52526
7.37156
7.20173
7.02117
6.84653
6.6905
6.5514
6.41995
6.28909
1
1
1
1
1
1
1
1
1
1
1
1
1
1
1
1
1
1
1
1
1
1
1
1
1
1
1
1
1
1
1
1
1
1
1
1
1
1
1
1
1
1
1
1
1
1
1
1
1
1
1
1
1
1
1
1
1
1
1
1
1
1
1
1
1
1
1
1
1
1
1
1
1
1
1
1
1
1
1
1
1
1.00219
1.55991
5.68235
7.6975
7.67863
7.57653
7.46498
7.33903
7.19936
7.04613
6.89066
6.73758
6.58628
6.43681
6.28705
1
1
1
1
1
1
1
1
1
1
1
1
1
1
1
1
1
1
1
1
1
1
1
1
1
1
1
1
1
1
1
1
1
1
1
1
1
1
1
1
1
1
1
1
1
1
1
1
1
1
1
1
1
1
1
1
1
1
1
1
1
1
1
1
1
1
1
1
1
1
1
1
1
1
1
1
1
1
1
1
1
1.00001
1.01902
2.39198
6.61801
7.72289
7.57755
7.43782
7.2933
7.15436
7.02207
6.89226
6.76023
6.62209
6.47581
6.32023
1
1
1
1
1
1
1
1
1
1
1
1
1
1
1
1
1
1
1
1
1
1
1
1
1
1
1
1
1
1
1
1
1
1
1
1
1
1
1
1
1
1
1
1
1
1
1
1
1
1
1
1
1
1
1
1
1
1
1
1
1
1
1
1
1
1
1
1
1
1
1
1
1
1
1
1
1
1
1
1
1
1
1.0001
1.1043
3.47157
7.15098
7.61816
7.45726
7.32374
7.17944
7.0406
6.90257
6.76271
6.62315
6.48175
6.33505
1
1
1
1
1
1
1
1
1
1
1
1
1
1
1
1
1
1
1
1
1
1
1
1
1
1
1
1
1
1
1
1
1
1
1
1
1
1
1
1
1
1
1
1
1
1
1
1
1
1
1
1
1
1
1
1
1
1
1
1
1
1
1
1
1
1
1
1
1
1
1
1
1
1
1
1
1
1
1
1
1
1
1
1.00122
1.33536
4.63591
7.29481
7.4874
7.31794
7.20702
7.08325
6.94827
6.80624
6.65818
6.50451
6.34699
1
1
1
1
1
1
1
1
1
1
1
1
1
1
1
1
1
1
1
1
1
1
1
1
1
1
1
1
1
1
1
1
1
1
1
1
1
1
1
1
1
1
1
1
1
1
1
1
1
1
1
1
1
1
1
1
1
1
1
1
1
1
1
1
1
1
1
1
1
1
1
1
1
1
1
1
1
1
1
1
1
1
1
1
1.00805
1.78464
5.64187
7.29602
7.32837
7.19297
7.07542
6.953
6.82885
6.69635
6.5495
6.3921
1
1
1
1
1
1
1
1
1
1
1
1
1
1
1
1
1
1
1
1
1
1
1
1
1
1
1
1
1
1
1
1
1
1
1
1
1
1
1
1
1
1
1
1
1
1
1
1
1
1
1
1
1
1
1
1
1
1
1
1
1
1
1
1
1
1
1
1
1
1
1
1
1
1
1
1
1
1
1
1
1
1
1
1
1.00003
1.03627
2.46214
6.29279
7.32306
7.23103
7.07427
6.93918
6.81045
6.68547
6.55867
6.42299
1
1
1
1
1
1
1
1
1
1
1
1
1
1
1
1
1
1
1
1
1
1
1
1
1
1
1
1
1
1
1
1
1
1
1
1
1
1
1
1
1
1
1
1
1
1
1
1
1
1
1
1
1
1
1
1
1
1
1
1
1
1
1
1
1
1
1
1
1
1
1
1
1
1
1
1
1
1
1
1
1
1
1
1
1
1.00027
1.11655
3.24738
6.68714
7.27081
7.13964
6.97691
6.82701
6.6843
6.54537
6.41178
1
1
1
1
1
1
1
1
1
1
1
1
1
1
1
1
1
1
1
1
1
1
1
1
1
1
1
1
1
1
1
1
1
1
1
1
1
1
1
1
1
1
1
1
1
1
1
1
1
1
1
1
1
1
1
1
1
1
1
1
1
1
1
1
1
1
1
1
1
1
1
1
1
1
1
1
1
1
1
1
1
1
1
1
1
1
1.00151
1.28252
4.01291
6.85015
7.17532
7.03895
6.88348
6.73377
6.57833
6.43056
1
1
1
1
1
1
1
1
1
1
1
1
1
1
1
1
1
1
1
1
1
1
1
1
1
1
1
1
1
1
1
1
1
1
1
1
1
1
1
1
1
1
1
1
1
1
1
1
1
1
1
1
1
1
1
1
1
1
1
1
1
1
1
1
1
1
1
1
1
1
1
1
1
1
1
1
1
1
1
1
1
1
1
1
1
1
1
1.0062
1.53768
4.67326
6.87978
7.05933
6.92787
6.78639
6.65023
6.50811
1
1
1
1
1
1
1
1
1
1
1
1
1
1
1
1
1
1
1
1
1
1
1
1
1
1
1
1
1
1
1
1
1
1
1
1
1
1
1
1
1
1
1
1
1
1
1
1
1
1
1
1
1
1
1
1
1
1
1
1
1
1
1
1
1
1
1
1
1
1
1
1
1
1
1
1
1
1
1
1
1
1
1
1
1
1
1
1.00002
1.01858
1.86503
5.21615
6.8454
6.94333
6.81958
6.68967
6.57519
1
1
1
1
1
1
1
1
1
1
1
1
1
1
1
1
1
1
1
1
1
1
1
1
1
1
1
1
1
1
1
1
1
1
1
1
1
1
1
1
1
1
1
1
1
1
1
1
1
1
1
1
1
1
1
1
1
1
1
1
1
1
1
1
1
1
1
1
1
1
1
1
1
1
1
1
1
1
1
1
1
1
1
1
1
1
1
1
1.00011
1.04401
2.23873
5.66527
6.76821
6.82645
6.70798
6.58179
1
1
1
1
1
1
1
1
1
1
1
1
1
1
1
1
1
1
1
1
1
1
1
1
1
1
1
1
1
1
1
1
1
1
1
1
1
1
1
1
1
1
1
1
1
1
1
1
1
1
1
1
1
1
1
1
1
1
1
1
1
1
1
1
1
1
1
1
1
1
1
1
1
1
1
1
1
1
1
1
1
1
1
1
1
1
1
1
1
1.00037
1.08731
2.67142
5.88662
6.72433
6.74469
6.61328
1
1
1
1
1
1
1
1
1
1
1
1
1
1
1
1
1
1
1
1
1
1
1
1
1
1
1
1
1
1
1
1
1
1
1
1
1
1
1
1
1
1
1
1
1
1
1
1
1
1
1
1
1
1
1
1
1
1
1
1
1
1
1
1
1
1
1
1
1
1
1
1
1
1
1
1
1
1
1
1
1
1
1
1
1
1
1
1
1
1
1.00105
1.15742
3.04483
5.98429
6.68071
6.65738
1
1
1
1
1
1
1
1
1
1
1
1
1
1
1
1
1
1
1
1
1
1
1
1
1
1
1
1
1
1
1
1
1
1
1
1
1
1
1
1
1
1
1
1
1
1
1
1
1
1
1
1
1
1
1
1
1
1
1
1
1
1
1
1
1
1
1
1
1
1
1
1
1
1
1
1
1
1
1