/*--------------------------------*- C++ -*----------------------------------*\
  =========                 |
  \\      /  F ield         | OpenFOAM: The Open Source CFD Toolbox
   \\    /   O peration     | Website:  https://openfoam.org
    \\  /    A nd           | Version:  7
     \\/     M anipulation  |
\*---------------------------------------------------------------------------*/
FoamFile
{
    version     2.0;
    format      ascii;
    class       volScalarField;
    location    "0.5";
    object      T;
}
// * * * * * * * * * * * * * * * * * * * * * * * * * * * * * * * * * * * * * //

dimensions      [0 0 0 1 0 0 0];

internalField   nonuniform List<scalar> 
64512
(
1
1
1
1
1
1
1
1
1
1
1
1
1
1
1
1
1
1
1
1
1
1
1
1
1
1
1
1
1
1
1
1
1
1
1
1
1
1
1
1
1
1
1
1
1
1
1
1
1
1
1
1
1
1
1
1
1
1
1
1
1
2.20993
2.86423
2.85596
2.84757
2.84936
2.85728
2.8712
2.8859
2.89214
2.89148
2.88823
2.88942
2.89623
2.91469
2.93252
2.94781
2.95899
2.96529
2.97476
2.98955
3.00937
3.03492
3.06292
3.09062
3.12187
3.16345
3.21789
3.28245
3.35055
3.41408
3.46706
3.50981
3.54193
3.56083
3.56966
1
1
1
1
1
1
1
1
1
1
1
1
1
1
1
1
1
1
1
1
1
1
1
1
1
1
1
1
1
1
1
1
1
1
1
1
1
1
1
1
1
1
1
1
1
1
1
1
1
1
1
1
1
1
1
1
1
1
1
1
1
2.20517
2.86183
2.85583
2.84785
2.84978
2.85758
2.87124
2.88564
2.89173
2.89107
2.88791
2.88903
2.89593
2.91466
2.93268
2.94813
2.95929
2.96551
2.97484
2.98951
3.00929
3.03488
3.06295
3.09087
3.12251
3.16451
3.2192
3.28365
3.35142
3.41459
3.46736
3.50991
3.54184
3.5606
3.56932
1
1
1
1
1
1
1
1
1
1
1
1
1
1
1
1
1
1
1
1
1
1
1
1
1
1
1
1
1
1
1
1
1
1
1
1
1
1
1
1
1
1
1
1
1
1
1
1
1
1
1
1
1
1
1
1
1
1
1
1
1
2.19317
2.86031
2.8546
2.84739
2.84983
2.8577
2.87126
2.88508
2.89096
2.89029
2.88729
2.88829
2.89529
2.91451
2.93286
2.94856
2.95969
2.96572
2.9748
2.98925
3.00897
3.0347
3.063
3.09137
3.12379
3.16671
3.22205
3.28646
3.35354
3.41582
3.46799
3.51012
3.54164
3.56019
3.56872
1
1
1
1
1
1
1
1
1
1
1
1
1
1
1
1
1
1
1
1
1
1
1
1
1
1
1
1
1
1
1
1
1
1
1
1
1
1
1
1
1
1
1
1
1
1
1
1
1
1
1
1
1
1
1
1
1
1
1
1
1
2.17281
2.8585
2.85286
2.84668
2.84977
2.85758
2.87099
2.88411
2.88974
2.889
2.8862
2.88711
2.89439
2.91426
2.93304
2.94895
2.95999
2.96569
2.97444
2.98862
3.00829
3.03421
3.0628
3.09162
3.12475
3.16862
3.22472
3.28924
3.35576
3.41718
3.46874
3.51036
3.54136
3.55961
3.56787
1
1
1
1
1
1
1
1
1
1
1
1
1
1
1
1
1
1
1
1
1
1
1
1
1
1
1
1
1
1
1
1
1
1
1
1
1
1
1
1
1
1
1
1
1
1
1
1
1
1
1
1
1
1
1
1
1
1
1
1
1
2.14511
2.85636
2.85026
2.84518
2.8489
2.85679
2.8703
2.88287
2.88824
2.88737
2.88468
2.8856
2.8935
2.91394
2.93318
2.94925
2.96011
2.96533
2.97363
2.98746
3.00705
3.03313
3.06203
3.09128
3.12492
3.16932
3.22576
3.29031
3.35662
3.41772
3.46907
3.51042
3.54097
3.55886
3.56679
1
1
1
1
1
1
1
1
1
1
1
1
1
1
1
1
1
1
1
1
1
1
1
1
1
1
1
1
1
1
1
1
1
1
1
1
1
1
1
1
1
1
1
1
1
1
1
1
1
1
1
1
1
1
1
1
1
1
1
1
1
2.11023
2.85322
2.84652
2.84283
2.84715
2.85551
2.86934
2.88138
2.88638
2.88534
2.88275
2.88387
2.89273
2.91369
2.93331
2.94938
2.95988
2.96457
2.97234
2.98576
3.0052
3.03135
3.06044
3.09
3.12399
3.16864
3.22519
3.28972
3.3561
3.41741
3.46895
3.51019
3.54035
3.55788
3.56545
1
1
1
1
1
1
1
1
1
1
1
1
1
1
1
1
1
1
1
1
1
1
1
1
1
1
1
1
1
1
1
1
1
1
1
1
1
1
1
1
1
1
1
1
1
1
1
1
1
1
1
1
1
1
1
1
1
1
1
1
1
2.06872
2.84812
2.84132
2.83948
2.84486
2.85423
2.8682
2.8796
2.88411
2.88297
2.88059
2.88221
2.89222
2.91351
2.93332
2.94924
2.95928
2.9635
2.97068
2.98363
3.00283
3.02893
3.05807
3.08772
3.12171
3.1664
3.22305
3.28776
3.35449
3.41634
3.46834
3.50956
3.53942
3.55659
3.56382
1
1
1
1
1
1
1
1
1
1
1
1
1
1
1
1
1
1
1
1
1
1
1
1
1
1
1
1
1
1
1
1
1
1
1
1
1
1
1
1
1
1
1
1
1
1
1
1
1
1
1
1
1
1
1
1
1
1
1
1
1
2.02117
2.83908
2.83429
2.83525
2.84304
2.85338
2.86687
2.87744
2.88132
2.88026
2.87836
2.88093
2.89203
2.9133
2.93307
2.94873
2.95833
2.96217
2.96873
2.98116
3.00008
3.02599
3.05506
3.08461
3.11821
3.16254
3.21913
3.28416
3.35151
3.41426
3.46704
3.50847
3.53816
3.55499
3.56191
1
1
1
1
1
1
1
1
1
1
1
1
1
1
1
1
1
1
1
1
1
1
1
1
1
1
1
1
1
1
1
1
1
1
1
1
1
1
1
1
1
1
1
1
1
1
1
1
1
1
1
1
1
1
1
1
1
1
1
1
1
1.96385
2.82155
2.82712
2.83215
2.84196
2.85274
2.8653
2.87477
2.87791
2.87726
2.87635
2.88025
2.89208
2.91286
2.93241
2.94782
2.95707
2.96062
2.96656
2.97846
2.99702
3.0226
3.0515
3.08084
3.1138
3.15742
3.21358
3.27877
3.34696
3.41104
3.46503
3.50692
3.53649
3.55303
3.55972
1
1
1
1
1
1
1
1
1
1
1
1
1
1
1
1
1
1
1
1
1
1
1
1
1
1
1
1
1
1
1
1
1
1
1
1
1
1
1
1
1
1
1
1
1
1
1
1
1
1
1
1
1
1
1
1
1
1
1
1
1
1.89269
2.79345
2.82102
2.82975
2.84094
2.85227
2.86344
2.87143
2.87382
2.87404
2.87478
2.88032
2.89221
2.91203
2.93127
2.94647
2.95548
2.95886
2.96422
2.97555
2.99366
3.01876
3.04744
3.07654
3.10872
3.15132
3.2067
3.27198
3.34117
3.40681
3.46241
3.50496
3.53435
3.55069
3.55724
1
1
1
1
1
1
1
1
1
1
1
1
1
1
1
1
1
1
1
1
1
1
1
1
1
1
1
1
1
1
1
1
1
1
1
1
1
1
1
1
1
1
1
1
1
1
1
1
1
1
1
1
1
1
1
1
1
1
1
1
1
1.80221
2.75236
2.81549
2.82725
2.84019
2.85191
2.86105
2.86732
2.86927
2.87083
2.87392
2.88094
2.89224
2.91073
2.92954
2.94457
2.95353
2.95694
2.96176
2.97245
2.99
3.01444
3.04289
3.07178
3.10314
3.14459
3.19907
3.26443
3.33474
3.40194
3.45921
3.50255
3.53173
3.54794
3.55443
1
1
1
1
1
1
1
1
1
1
1
1
1
1
1
1
1
1
1
1
1
1
1
1
1
1
1
1
1
1
1
1
1
1
1
1
1
1
1
1
1
1
1
1
1
1
1
1
1
1
1
1
1
1
1
1
1
1
1
1
1
1.67789
2.69431
2.81198
2.82457
2.84055
2.8518
2.85762
2.86202
2.86437
2.86797
2.87387
2.88187
2.89209
2.90887
2.92708
2.942
2.95125
2.9549
2.9592
2.96913
2.98598
3.00964
3.03784
3.06659
3.0972
3.13749
3.19107
3.25657
3.32798
3.39668
3.45542
3.49958
3.52869
3.54472
3.55123
1
1
1
1
1
1
1
1
1
1
1
1
1
1
1
1
1
1
1
1
1
1
1
1
1
1
1
1
1
1
1
1
1
1
1
1
1
1
1
1
1
1
1
1
1
1
1
1
1
1
1
1
1
1
1
1
1
1
1
1
1
1.51708
2.61576
2.81152
2.82344
2.84225
2.85075
2.85241
2.85531
2.8595
2.86614
2.87465
2.88282
2.89153
2.90627
2.92373
2.93871
2.94866
2.9528
2.95653
2.96555
2.98155
3.00439
3.03232
3.06094
3.09088
3.13009
3.18282
3.24852
3.32099
3.39106
3.45107
3.496
3.52518
3.54106
3.54765
1
1
1
1
1
1
1
1
1
1
1
1
1
1
1
1
1
1
1
1
1
1
1
1
1
1
1
1
1
1
1
1
1
1
1
1
1
1
1
1
1
1
1
1
1
1
1
1
1
1
1
1
1
1
1
1
1
1
1
1
1
1.32439
2.51509
2.81156
2.82596
2.84288
2.8466
2.846
2.8483
2.85543
2.86562
2.87606
2.88341
2.89019
2.90268
2.91946
2.93479
2.94583
2.95058
2.95366
2.96164
2.97671
2.99878
3.02636
3.05478
3.08416
3.12234
3.17438
3.24034
3.31378
3.38504
3.44613
3.49177
3.5211
3.53694
3.54368
1
1
1
1
1
1
1
1
1
1
1
1
1
1
1
1
1
1
1
1
1
1
1
1
1
1
1
1
1
1
1
1
1
1
1
1
1
1
1
1
1
1
1
1
1
1
1
1
1
1
1
1
1
1
1
1
1
1
1
1
1
1.11899
2.40166
2.81339
2.83313
2.84187
2.8405
2.83881
2.84203
2.85289
2.8664
2.87746
2.88325
2.88788
2.89801
2.91443
2.93049
2.94278
2.94812
2.95047
2.95735
2.97149
2.99289
3.01997
3.04807
3.07696
3.11429
3.16578
3.23201
3.30628
3.37852
3.44051
3.48683
3.51645
3.5324
3.53934
1
1
1
1
1
1
1
1
1
1
1
1
1
1
1
1
1
1
1
1
1
1
1
1
1
1
1
1
1
1
1
1
1
1
1
1
1
1
1
1
1
1
1
1
1
1
1
1
1
1
1
1
1
1
1
1
1
1
1
1
1
1.00289
2.29667
2.82124
2.83746
2.83749
2.83348
2.83201
2.8376
2.85202
2.86786
2.87816
2.88167
2.88437
2.89254
2.90897
2.92603
2.93944
2.94523
2.94685
2.95268
2.96594
2.98675
3.01315
3.04076
3.06926
3.10595
3.15707
3.2235
3.29838
3.37138
3.4341
3.48112
3.51119
3.52741
3.5346
1
1
1
1
1
1
1
1
1
1
1
1
1
1
1
1
1
1
1
1
1
1
1
1
1
1
1
1
1
1
1
1
1
1
1
1
1
1
1
1
1
1
1
1
1
1
1
1
1
1
1
1
1
1
1
1
1
1
1
1
1
1.00001
2.1907
2.82377
2.83502
2.83113
2.82613
2.82657
2.83505
2.85243
2.8689
2.87745
2.87834
2.87968
2.88673
2.90342
2.92143
2.93565
2.9417
2.94279
2.94774
2.96018
2.98035
3.00581
3.03277
3.06101
3.09732
3.14824
3.2147
3.28992
3.36346
3.42681
3.47459
3.50531
3.52196
3.52946
1
1
1
1
1
1
1
1
1
1
1
1
1
1
1
1
1
1
1
1
1
1
1
1
1
1
1
1
1
1
1
1
1
1
1
1
1
1
1
1
1
1
1
1
1
1
1
1
1
1
1
1
1
1
1
1
1
1
1
1
1
1
2.07175
2.81492
2.8267
2.82113
2.81939
2.8225
2.83424
2.853
2.86845
2.8746
2.87381
2.87431
2.881
2.89792
2.91657
2.93117
2.93744
2.93833
2.94267
2.95427
2.97364
2.99785
3.02402
3.05223
3.08852
3.1393
3.2055
3.28073
3.35462
3.41853
3.46716
3.49873
3.51596
3.52381
1
1
1
1
1
1
1
1
1
1
1
1
1
1
1
1
1
1
1
1
1
1
1
1
1
1
1
1
1
1
1
1
1
1
1
1
1
1
1
1
1
1
1
1
1
1
1
1
1
1
1
1
1
1
1
1
1
1
1
1
1
1
1.93399
2.78733
2.81286
2.81005
2.81282
2.82062
2.83435
2.8528
2.86574
2.86967
2.86834
2.86878
2.87581
2.89254
2.91122
2.92575
2.93239
2.93352
2.93747
2.94824
2.96657
2.98926
3.0145
3.04303
3.0796
3.13011
3.19563
3.27054
3.34468
3.40919
3.45878
3.4914
3.50938
3.51763
1
1
1
1
1
1
1
1
1
1
1
1
1
1
1
1
1
1
1
1
1
1
1
1
1
1
1
1
1
1
1
1
1
1
1
1
1
1
1
1
1
1
1
1
1
1
1
1
1
1
1
1
1
1
1
1
1
1
1
1
1
1
1.76486
2.73015
2.7934
2.8014
2.81028
2.8206
2.83398
2.85018
2.8605
2.86326
2.86261
2.86373
2.87141
2.88704
2.90508
2.91923
2.92664
2.92844
2.93215
2.94202
2.95908
2.98009
3.00434
3.03359
3.07063
3.12053
3.18495
3.25921
3.3335
3.39868
3.44935
3.48323
3.50207
3.5107
1
1
1
1
1
1
1
1
1
1
1
1
1
1
1
1
1
1
1
1
1
1
1
1
1
1
1
1
1
1
1
1
1
1
1
1
1
1
1
1
1
1
1
1
1
1
1
1
1
1
1
1
1
1
1
1
1
1
1
1
1
1
1.55953
2.64217
2.77664
2.79812
2.81149
2.821
2.83156
2.84435
2.85297
2.85611
2.85757
2.85979
2.86749
2.88103
2.89796
2.91177
2.9204
2.92317
2.92656
2.93528
2.95081
2.9703
2.99384
3.02407
3.0615
3.11031
3.1732
3.24649
3.3208
3.38682
3.43881
3.47415
3.494
3.50304
1
1
1
1
1
1
1
1
1
1
1
1
1
1
1
1
1
1
1
1
1
1
1
1
1
1
1
1
1
1
1
1
1
1
1
1
1
1
1
1
1
1
1
1
1
1
1
1
1
1
1
1
1
1
1
1
1
1
1
1
1
1
1.32752
2.53107
2.77054
2.79827
2.81193
2.81977
2.82684
2.83589
2.84396
2.84932
2.85371
2.85697
2.86371
2.87446
2.88992
2.90375
2.91385
2.91768
2.92051
2.92787
2.94163
2.95993
2.9834
3.01455
3.05209
3.0993
3.16024
3.23226
3.30657
3.37362
3.42708
3.46401
3.48494
3.49431
1
1
1
1
1
1
1
1
1
1
1
1
1
1
1
1
1
1
1
1
1
1
1
1
1
1
1
1
1
1
1
1
1
1
1
1
1
1
1
1
1
1
1
1
1
1
1
1
1
1
1
1
1
1
1
1
1
1
1
1
1
1
1.07622
2.40458
2.77698
2.80202
2.81012
2.81495
2.81881
2.82599
2.83509
2.84401
2.85121
2.85468
2.85938
2.86711
2.88097
2.89535
2.90696
2.91197
2.91411
2.92003
2.93187
2.94921
2.97315
3.00487
3.04207
3.08727
3.14588
3.21626
3.29048
3.35881
3.41407
3.45277
3.47489
3.48458
1
1
1
1
1
1
1
1
1
1
1
1
1
1
1
1
1
1
1
1
1
1
1
1
1
1
1
1
1
1
1
1
1
1
1
1
1
1
1
1
1
1
1
1
1
1
1
1
1
1
1
1
1
1
1
1
1
1
1
1
1
1
1.001
2.24912
2.78359
2.8004
2.80221
2.80532
2.80861
2.81608
2.82758
2.83985
2.84905
2.8521
2.85417
2.85928
2.87147
2.88643
2.89952
2.90588
2.90751
2.91197
2.92187
2.93841
2.96286
2.9947
3.03112
3.07419
3.13018
3.1986
3.27266
3.34239
3.39965
3.44018
3.46343
3.47324
1
1
1
1
1
1
1
1
1
1
1
1
1
1
1
1
1
1
1
1
1
1
1
1
1
1
1
1
1
1
1
1
1
1
1
1
1
1
1
1
1
1
1
1
1
1
1
1
1
1
1
1
1
1
1
1
1
1
1
1
1
1
1
2.02794
2.76593
2.7932
2.79134
2.79427
2.79884
2.80724
2.8208
2.83548
2.84578
2.8483
2.848
2.85136
2.86175
2.87715
2.8915
2.89901
2.9005
2.90365
2.91203
2.92798
2.95236
2.98368
3.01887
3.05972
3.11286
3.17898
3.25259
3.32381
3.38345
3.42607
3.45053
3.46042
1
1
1
1
1
1
1
1
1
1
1
1
1
1
1
1
1
1
1
1
1
1
1
1
1
1
1
1
1
1
1
1
1
1
1
1
1
1
1
1
1
1
1
1
1
1
1
1
1
1
1
1
1
1
1
1
1
1
1
1
1
1
1
1.72569
2.69484
2.78422
2.7791
2.78431
2.79171
2.80164
2.81501
2.83018
2.84009
2.84237
2.84064
2.84322
2.85229
2.86768
2.88275
2.8914
2.89333
2.8955
2.90284
2.91808
2.94145
2.97151
3.00507
3.04368
3.09393
3.15764
3.23064
3.30332
3.36543
3.40999
3.43534
3.44484
1
1
1
1
1
1
1
1
1
1
1
1
1
1
1
1
1
1
1
1
1
1
1
1
1
1
1
1
1
1
1
1
1
1
1
1
1
1
1
1
1
1
1
1
1
1
1
1
1
1
1
1
1
1
1
1
1
1
1
1
1
1
1
1.39146
2.56216
2.77122
2.77274
2.78379
2.79234
2.79907
2.80958
2.8228
2.83129
2.83391
2.83212
2.83449
2.84275
2.85771
2.87336
2.88344
2.88634
2.88798
2.89431
2.90838
2.93002
2.95815
2.9898
3.02613
3.07323
3.13406
3.20587
3.27959
3.34421
3.39117
3.41761
3.42691
1
1
1
1
1
1
1
1
1
1
1
1
1
1
1
1
1
1
1
1
1
1
1
1
1
1
1
1
1
1
1
1
1
1
1
1
1
1
1
1
1
1
1
1
1
1
1
1
1
1
1
1
1
1
1
1
1
1
1
1
1
1
1
1.09726
2.41475
2.76489
2.78024
2.78784
2.79201
2.79524
2.80058
2.81116
2.81964
2.82428
2.82314
2.82534
2.83299
2.84686
2.86318
2.87507
2.8796
2.88119
2.88632
2.89841
2.91786
2.94351
2.97311
3.00702
3.05073
3.10829
3.1785
3.25306
3.3202
3.36917
3.39579
3.40362
1
1
1
1
1
1
1
1
1
1
1
1
1
1
1
1
1
1
1
1
1
1
1
1
1
1
1
1
1
1
1
1
1
1
1
1
1
1
1
1
1
1
1
1
1
1
1
1
1
1
1
1
1
1
1
1
1
1
1
1
1
1
1
1.00154
2.23752
2.76196
2.78232
2.78685
2.7868
2.78613
2.7886
2.79774
2.80784
2.81421
2.81425
2.81599
2.82291
2.83549
2.85227
2.86602
2.87304
2.87488
2.87856
2.88793
2.90451
2.92754
2.95506
2.98653
3.02663
3.08015
3.14742
3.22133
3.28993
3.34099
3.36829
3.37597
1
1
1
1
1
1
1
1
1
1
1
1
1
1
1
1
1
1
1
1
1
1
1
1
1
1
1
1
1
1
1
1
1
1
1
1
1
1
1
1
1
1
1
1
1
1
1
1
1
1
1
1
1
1
1
1
1
1
1
1
1
1
1
1
1.98076
2.72417
2.77361
2.77615
2.7761
2.77568
2.77785
2.78503
2.79568
2.80451
2.8068
2.80718
2.81275
2.82371
2.84043
2.85617
2.86609
2.86854
2.87054
2.87677
2.89002
2.91025
2.93562
2.9647
3.0009
3.0495
3.11264
3.18519
3.25526
3.30821
3.3335
3.33495
1
1
1
1
1
1
1
1
1
1
1
1
1
1
1
1
1
1
1
1
1
1
1
1
1
1
1
1
1
1
1
1
1
1
1
1
1
1
1
1
1
1
1
1
1
1
1
1
1
1
1
1
1
1
1
1
1
1
1
1
1
1
1
1
1.62015
2.62278
2.75732
2.76622
2.76903
2.76866
2.76999
2.77731
2.78869
2.79748
2.80056
2.79883
2.80244
2.81185
2.82811
2.84562
2.85815
2.86157
2.8618
2.86491
2.87464
2.89182
2.91486
2.94152
2.97361
3.01654
3.07395
3.14247
3.21047
3.26013
3.28149
3.28007
1
1
1
1
1
1
1
1
1
1
1
1
1
1
1
1
1
1
1
1
1
1
1
1
1
1
1
1
1
1
1
1
1
1
1
1
1
1
1
1
1
1
1
1
1
1
1
1
1
1
1
1
1
1
1
1
1
1
1
1
1
1
1
1
1.24584
2.4763
2.74245
2.75203
2.75826
2.76243
2.76627
2.77314
2.78399
2.79186
2.79429
2.79097
2.79219
2.80014
2.81556
2.83424
2.84886
2.85341
2.85232
2.85266
2.85873
2.87263
2.89308
2.91709
2.94485
2.98133
3.03119
3.09304
3.15711
3.20437
3.22387
3.2282
1
1
1
1
1
1
1
1
1
1
1
1
1
1
1
1
1
1
1
1
1
1
1
1
1
1
1
1
1
1
1
1
1
1
1
1
1
1
1
1
1
1
1
1
1
1
1
1
1
1
1
1
1
1
1
1
1
1
1
1
1
1
1
1
1.01164
2.31266
2.72609
2.74556
2.75415
2.75931
2.76243
2.76816
2.77767
2.7853
2.78773
2.78408
2.78215
2.78864
2.80286
2.82159
2.8376
2.8435
2.84159
2.83973
2.84298
2.8533
2.87064
2.89162
2.91487
2.94446
2.98572
3.03915
3.09147
3.11999
3.08235
2.9348
1
1
1
1
1
1
1
1
1
1
1
1
1
1
1
1
1
1
1
1
1
1
1
1
1
1
1
1
1
1
1
1
1
1
1
1
1
1
1
1
1
1
1
1
1
1
1
1
1
1
1
1
1
1
1
1
1
1
1
1
1
1
1
1
1.00006
2.0673
2.69978
2.73709
2.7465
2.75161
2.75474
2.75981
2.7683
2.77694
2.78024
2.77679
2.77364
2.77815
2.79048
2.80772
2.82399
2.83145
2.82962
2.82658
2.82733
2.83396
2.84779
2.86536
2.88405
2.90657
2.93787
2.97937
3.01383
3.01742
2.95865
2.75092
1
1
1
1
1
1
1
1
1
1
1
1
1
1
1
1
1
1
1
1
1
1
1
1
1
1
1
1
1
1
1
1
1
1
1
1
1
1
1
1
1
1
1
1
1
1
1
1
1
1
1
1
1
1
1
1
1
1
1
1
1
1
1
1
1
1.67723
2.61949
2.72774
2.73744
2.74224
2.74562
2.75036
2.75662
2.76558
2.77041
2.76978
2.76771
2.76931
2.77835
2.79291
2.80814
2.81725
2.81671
2.81317
2.81139
2.81505
2.82481
2.83855
2.8528
2.86859
2.88934
2.91701
2.93398
2.92526
2.84059
2.63937
1
1
1
1
1
1
1
1
1
1
1
1
1
1
1
1
1
1
1
1
1
1
1
1
1
1
1
1
1
1
1
1
1
1
1
1
1
1
1
1
1
1
1
1
1
1
1
1
1
1
1
1
1
1
1
1
1
1
1
1
1
1
1
1
1
1.21297
2.46037
2.72244
2.72559
2.73222
2.73769
2.74144
2.74627
2.75447
2.76088
2.76369
2.762
2.76064
2.76634
2.77807
2.7915
2.80169
2.80307
2.79951
2.79607
2.79668
2.8018
2.81143
2.82158
2.83108
2.84202
2.85473
2.86155
2.83483
2.75153
2.58307
1
1
1
1
1
1
1
1
1
1
1
1
1
1
1
1
1
1
1
1
1
1
1
1
1
1
1
1
1
1
1
1
1
1
1
1
1
1
1
1
1
1
1
1
1
1
1
1
1
1
1
1
1
1
1
1
1
1
1
1
1
1
1
1
1
1.00758
2.24712
2.69175
2.71578
2.72763
2.73419
2.73468
2.73714
2.74295
2.75041
2.75553
2.75546
2.75295
2.75531
2.76362
2.77465
2.78502
2.7887
2.78585
2.78148
2.77861
2.77984
2.78462
2.79076
2.79486
2.79731
2.79793
2.79081
2.75781
2.68202
2.55085
1
1
1
1
1
1
1
1
1
1
1
1
1
1
1
1
1
1
1
1
1
1
1
1
1
1
1
1
1
1
1
1
1
1
1
1
1
1
1
1
1
1
1
1
1
1
1
1
1
1
1
1
1
1
1
1
1
1
1
1
1
1
1
1
1
1.00002
1.89145
2.63686
2.7108
2.7198
2.72743
2.727
2.72813
2.73164
2.7389
2.7461
2.74882
2.74536
2.74416
2.7491
2.75779
2.76771
2.7732
2.7715
2.76711
2.76178
2.75888
2.75919
2.76077
2.76015
2.75518
2.74804
2.72847
2.69303
2.63132
2.5329
1
1
1
1
1
1
1
1
1
1
1
1
1
1
1
1
1
1
1
1
1
1
1
1
1
1
1
1
1
1
1
1
1
1
1
1
1
1
1
1
1
1
1
1
1
1
1
1
1
1
1
1
1
1
1
1
1
1
1
1
1
1
1
1
1
1
1.37002
2.49961
2.71013
2.70815
2.71541
2.71687
2.71739
2.7196
2.72657
2.73573
2.74157
2.73756
2.73399
2.73528
2.74076
2.74943
2.75615
2.75641
2.75223
2.74598
2.73988
2.73562
2.73224
2.72686
2.71688
2.70342
2.676
2.63797
2.58696
2.50974
1
1
1
1
1
1
1
1
1
1
1
1
1
1
1
1
1
1
1
1
1
1
1
1
1
1
1
1
1
1
1
1
1
1
1
1
1
1
1
1
1
1
1
1
1
1
1
1
1
1
1
1
1
1
1
1
1
1
1
1
1
1
1
1
1
1
1.02475
2.30447
2.68283
2.69758
2.70752
2.71023
2.70882
2.7089
2.71453
2.72454
2.73206
2.72869
2.72432
2.72148
2.72425
2.73056
2.73772
2.74025
2.73679
2.73046
2.72243
2.71435
2.70559
2.69531
2.68202
2.66472
2.63301
2.59554
2.55027
2.48561
1
1
1
1
1
1
1
1
1
1
1
1
1
1
1
1
1
1
1
1
1
1
1
1
1
1
1
1
1
1
1
1
1
1
1
1
1
1
1
1
1
1
1
1
1
1
1
1
1
1
1
1
1
1
1
1
1
1
1
1
1
1
1
1
1
1
1.00014
1.94898
2.63492
2.68716
2.69762
2.70149
2.69883
2.69684
2.70174
2.71177
2.72092
2.71994
2.7151
2.70962
2.70815
2.71199
2.71865
2.72265
2.72062
2.7149
2.70607
2.69508
2.68162
2.66661
2.64974
2.63037
2.59902
2.56273
2.51941
2.4637
1
1
1
1
1
1
1
1
1
1
1
1
1
1
1
1
1
1
1
1
1
1
1
1
1
1
1
1
1
1
1
1
1
1
1
1
1
1
1
1
1
1
1
1
1
1
1
1
1
1
1
1
1
1
1
1
1
1
1
1
1
1
1
1
1
1
1
1.39917
2.49254
2.68299
2.68707
2.6911
2.68923
2.68649
2.68951
2.69723
2.7077
2.7118
2.70611
2.69948
2.69394
2.69508
2.69913
2.70317
2.70299
2.69844
2.69003
2.67709
2.66023
2.64105
2.62068
2.59998
2.57173
2.53733
2.49595
2.44798
1
1
1
1
1
1
1
1
1
1
1
1
1
1
1
1
1
1
1
1
1
1
1
1
1
1
1
1
1
1
1
1
1
1
1
1
1
1
1
1
1
1
1
1
1
1
1
1
1
1
1
1
1
1
1
1
1
1
1
1
1
1
1
1
1
1
1
1.02869
2.29217
2.65608
2.66871
2.67645
2.68051
2.67746
2.67662
2.6825
2.69311
2.70156
2.6965
2.69016
2.68247
2.67926
2.68029
2.6824
2.68344
2.68043
2.67346
2.66025
2.64167
2.61962
2.59688
2.57329
2.54803
2.51646
2.47762
2.43443
1
1
1
1
1
1
1
1
1
1
1
1
1
1
1
1
1
1
1
1
1
1
1
1
1
1
1
1
1
1
1
1
1
1
1
1
1
1
1
1
1
1
1
1
1
1
1
1
1
1
1
1
1
1
1
1
1
1
1
1
1
1
1
1
1
1
1
1.00016
1.91068
2.60459
2.65616
2.66663
2.66976
2.66654
2.66251
2.66717
2.67618
2.68648
2.68568
2.68123
2.67305
2.66524
2.66297
2.66222
2.66245
2.66085
2.65569
2.64353
2.62535
2.6027
2.57837
2.55208
2.52762
2.49721
2.46114
2.42143
1
1
1
1
1
1
1
1
1
1
1
1
1
1
1
1
1
1
1
1
1
1
1
1
1
1
1
1
1
1
1
1
1
1
1
1
1
1
1
1
1
1
1
1
1
1
1
1
1
1
1
1
1
1
1
1
1
1
1
1
1
1
1
1
1
1
1
1
1.32623
2.45173
2.6494
2.65441
2.65907
2.65679
2.65167
2.65321
2.65928
2.66875
2.67347
2.66953
2.6622
2.65302
2.64763
2.64378
2.6419
2.64027
2.636
2.62646
2.6103
2.58882
2.56387
2.53694
2.51081
2.47997
2.44692
2.40993
1
1
1
1
1
1
1
1
1
1
1
1
1
1
1
1
1
1
1
1
1
1
1
1
1
1
1
1
1
1
1
1
1
1
1
1
1
1
1
1
1
1
1
1
1
1
1
1
1
1
1
1
1
1
1
1
1
1
1
1
1
1
1
1
1
1
1
1
1.01835
2.21968
2.61429
2.63363
2.64357
2.64704
2.64263
2.64117
2.64449
2.65182
2.65775
2.6549
2.64954
2.64112
2.63345
2.62748
2.62325
2.62025
2.61561
2.60891
2.59514
2.57603
2.55256
2.52742
2.49991
2.46865
2.43638
2.4005
1
1
1
1
1
1
1
1
1
1
1
1
1
1
1
1
1
1
1
1
1
1
1
1
1
1
1
1
1
1
1
1
1
1
1
1
1
1
1
1
1
1
1
1
1
1
1
1
1
1
1
1
1
1
1
1
1
1
1
1
1
1
1
1
1
1
1
1
1.00007
1.74126
2.54527
2.62517
2.62787
2.63146
2.63033
2.62975
2.63092
2.63531
2.64099
2.64198
2.63702
2.62877
2.62056
2.61264
2.60619
2.60123
2.59652
2.59045
2.5799
2.56299
2.54153
2.51849
2.4916
2.46135
2.42885
2.39341
1
1
1
1
1
1
1
1
1
1
1
1
1
1
1
1
1
1
1
1
1
1
1
1
1
1
1
1
1
1
1
1
1
1
1
1
1
1
1
1
1
1
1
1
1
1
1
1
1
1
1
1
1
1
1
1
1
1
1
1
1
1
1
1
1
1
1
1
1
1.12412
2.36482
2.61501
2.61455
2.61832
2.6202
2.61827
2.61791
2.61932
2.62482
2.62885
2.62574
2.61858
2.60896
2.59956
2.59112
2.58386
2.57857
2.57267
2.56502
2.54977
2.53028
2.50907
2.48386
2.45522
2.42299
2.38859
1
1
1
1
1
1
1
1
1
1
1
1
1
1
1
1
1
1
1
1
1
1
1
1
1
1
1
1
1
1
1
1
1
1
1
1
1
1
1
1
1
1
1
1
1
1
1
1
1
1
1
1
1
1
1
1
1
1
1
1
1
1
1
1
1
1
1
1
1
1.00261
2.01422
2.55839
2.60196
2.61131
2.61246
2.60827
2.60555
2.60395
2.60652
2.61134
2.61455
2.60964
2.60016
2.58909
2.57849
2.56896
2.56166
2.55571
2.54906
2.53636
2.5188
2.49882
2.47568
2.44889
2.4181
2.38523
1
1
1
1
1
1
1
1
1
1
1
1
1
1
1
1
1
1
1
1
1
1
1
1
1
1
1
1
1
1
1
1
1
1
1
1
1
1
1
1
1
1
1
1
1
1
1
1
1
1
1
1
1
1
1
1
1
1
1
1
1
1
1
1
1
1
1
1
1
1
1.378
2.42637
2.59608
2.59771
2.60253
2.60093
2.59691
2.59171
2.58906
2.59258
2.59763
2.59824
2.5917
2.58103
2.56887
2.5569
2.54685
2.53925
2.53213
2.52205
2.50699
2.48817
2.46646
2.4413
2.41288
2.38223
1
1
1
1
1
1
1
1
1
1
1
1
1
1
1
1
1
1
1
1
1
1
1
1
1
1
1
1
1
1
1
1
1
1
1
1
1
1
1
1
1
1
1
1
1
1
1
1
1
1
1
1
1
1
1
1
1
1
1
1
1
1
1
1
1
1
1
1
1
1
1.02388
2.16751
2.55423
2.57448
2.58582
2.59269
2.59008
2.58332
2.57644
2.57434
2.5781
2.58243
2.58021
2.57344
2.56224
2.54829
2.53512
2.52429
2.51513
2.50618
2.49352
2.47648
2.45593
2.43267
2.40702
2.37905
1
1
1
1
1
1
1
1
1
1
1
1
1
1
1
1
1
1
1
1
1
1
1
1
1
1
1
1
1
1
1
1
1
1
1
1
1
1
1
1
1
1
1
1
1
1
1
1
1
1
1
1
1
1
1
1
1
1
1
1
1
1
1
1
1
1
1
1
1
1
1.0001
1.58996
2.46014
2.56917
2.56966
2.57886
2.58139
2.57797
2.56956
2.56037
2.55951
2.56284
2.56629
2.56266
2.55432
2.54125
2.52621
2.51207
2.49989
2.49008
2.47842
2.46301
2.44422
2.4232
2.40042
2.37553
1
1
1
1
1
1
1
1
1
1
1
1
1
1
1
1
1
1
1
1
1
1
1
1
1
1
1
1
1
1
1
1
1
1
1
1
1
1
1
1
1
1
1
1
1
1
1
1
1
1
1
1
1
1
1
1
1
1
1
1
1
1
1
1
1
1
1
1
1
1
1
1.06764
2.24072
2.53974
2.55073
2.56078
2.56884
2.56808
2.56195
2.55164
2.54452
2.54459
2.54803
2.54859
2.54481
2.53417
2.51893
2.50264
2.48733
2.47519
2.46318
2.44846
2.4315
2.41295
2.39298
2.37122
1
1
1
1
1
1
1
1
1
1
1
1
1
1
1
1
1
1
1
1
1
1
1
1
1
1
1
1
1
1
1
1
1
1
1
1
1
1
1
1
1
1
1
1
1
1
1
1
1
1
1
1
1
1
1
1
1
1
1
1
1
1
1
1
1
1
1
1
1
1
1
1.00073
1.71198
2.46539
2.54529
2.54326
2.54912
2.55458
2.5522
2.54481
2.53517
2.52961
2.5301
2.53246
2.53071
2.52394
2.51088
2.49477
2.4781
2.4631
2.44943
2.43466
2.41871
2.40197
2.3841
2.36468
1
1
1
1
1
1
1
1
1
1
1
1
1
1
1
1
1
1
1
1
1
1
1
1
1
1
1
1
1
1
1
1
1
1
1
1
1
1
1
1
1
1
1
1
1
1
1
1
1
1
1
1
1
1
1
1
1
1
1
1
1
1
1
1
1
1
1
1
1
1
1
1
1.10758
2.2617
2.51992
2.5234
2.5294
2.537
2.54012
2.53627
2.52798
2.51955
2.51491
2.51376
2.51329
2.50982
2.50093
2.48694
2.4704
2.45401
2.43872
2.42347
2.40766
2.39108
2.37395
2.35574
1
1
1
1
1
1
1
1
1
1
1
1
1
1
1
1
1
1
1
1
1
1
1
1
1
1
1
1
1
1
1
1
1
1
1
1
1
1
1
1
1
1
1
1
1
1
1
1
1
1
1
1
1
1
1
1
1
1
1
1
1
1
1
1
1
1
1
1
1
1
1
1
1.00178
1.75486
2.4489
2.51787
2.51359
2.5183
2.52433
2.52474
2.52052
2.51249
2.50307
2.49725
2.49471
2.49221
2.48676
2.47669
2.46244
2.44638
2.43021
2.41464
2.3988
2.38186
2.36397
2.34555
1
1
1
1
1
1
1
1
1
1
1
1
1
1
1
1
1
1
1
1
1
1
1
1
1
1
1
1
1
1
1
1
1
1
1
1
1
1
1
1
1
1
1
1
1
1
1
1
1
1
1
1
1
1
1
1
1
1
1
1
1
1
1
1
1
1
1
1
1
1
1
1
1
1.12651
2.24711
2.49438
2.4953
2.4989
2.5051
2.51013
2.50892
2.50336
2.49371
2.48395
2.47751
2.4738
2.47017
2.46325
2.45201
2.43801
2.42308
2.40781
2.39182
2.37441
2.35548
2.3363
1
1
1
1
1
1
1
1
1
1
1
1
1
1
1
1
1
1
1
1
1
1
1
1
1
1
1
1
1
1
1
1
1
1
1
1
1
1
1
1
1
1
1
1
1
1
1
1
1
1
1
1
1
1
1
1
1
1
1
1
1
1
1
1
1
1
1
1
1
1
1
1
1
1.00239
1.72706
2.41801
2.49242
2.48648
2.48838
2.49311
2.49453
2.49191
2.48394
2.47329
2.46399
2.45793
2.45287
2.44701
2.43828
2.42732
2.41502
2.40141
2.38575
2.36817
2.34881
2.32907
1
1
1
1
1
1
1
1
1
1
1
1
1
1
1
1
1
1
1
1
1
1
1
1
1
1
1
1
1
1
1
1
1
1
1
1
1
1
1
1
1
1
1
1
1
1
1
1
1
1
1
1
1
1
1
1
1
1
1
1
1
1
1
1
1
1
1
1
1
1
1
1
1
1
1.11693
2.20442
2.46515
2.47009
2.47042
2.4733
2.47644
2.47605
2.47138
2.46314
2.45395
2.44515
2.43741
2.4307
2.42329
2.41399
2.40374
2.39221
2.37887
2.3627
2.34391
2.32377
1
1
1
1
1
1
1
1
1
1
1
1
1
1
1
1
1
1
1
1
1
1
1
1
1
1
1
1
1
1
1
1
1
1
1
1
1
1
1
1
1
1
1
1
1
1
1
1
1
1
1
1
1
1
1
1
1
1
1
1
1
1
1
1
1
1
1
1
1
1
1
1
1
1
1.00204
1.6352
2.37307
2.4679
2.46139
2.45899
2.45881
2.45808
2.45633
2.45174
2.44413
2.43496
2.4259
2.41727
2.4087
2.39946
2.38968
2.38012
2.36936
2.35607
2.33949
2.32025
1
1
1
1
1
1
1
1
1
1
1
1
1
1
1
1
1
1
1
1
1
1
1
1
1
1
1
1
1
1
1
1
1
1
1
1
1
1
1
1
1
1
1
1
1
1
1
1
1
1
1
1
1
1
1
1
1
1
1
1
1
1
1
1
1
1
1
1
1
1
1
1
1
1
1
1.08301
2.1291
2.42942
2.44485
2.44146
2.43979
2.44047
2.44048
2.43824
2.43291
2.42546
2.41627
2.40608
2.39592
2.38588
2.37571
2.36623
2.35729
2.34703
2.33373
2.31676
1
1
1
1
1
1
1
1
1
1
1
1
1
1
1
1
1
1
1
1
1
1
1
1
1
1
1
1
1
1
1
1
1
1
1
1
1
1
1
1
1
1
1
1
1
1
1
1
1
1
1
1
1
1
1
1
1
1
1
1
1
1
1
1
1
1
1
1
1
1
1
1
1
1
1
1.00104
1.48368
2.31228
2.43809
2.43099
2.42806
2.42558
2.42314
2.42105
2.41826
2.41372
2.40654
2.39693
2.3862
2.37488
2.36311
2.35249
2.34405
2.33563
2.3247
2.31021
1
1
1
1
1
1
1
1
1
1
1
1
1
1
1
1
1
1
1
1
1
1
1
1
1
1
1
1
1
1
1
1
1
1
1
1
1
1
1
1
1
1
1
1
1
1
1
1
1
1
1
1
1
1
1
1
1
1
1
1
1
1
1
1
1
1
1
1
1
1
1
1
1
1
1
1
1.04375
1.99708
2.38665
2.41914
2.41456
2.41219
2.40973
2.40701
2.40408
2.40039
2.3953
2.38759
2.37717
2.36543
2.35349
2.34245
2.33291
2.32362
2.31316
2.3003
1
1
1
1
1
1
1
1
1
1
1
1
1
1
1
1
1
1
1
1
1
1
1
1
1
1
1
1
1
1
1
1
1
1
1
1
1
1
1
1
1
1
1
1
1
1
1
1
1
1
1
1
1
1
1
1
1
1
1
1
1
1
1
1
1
1
1
1
1
1
1
1
1
1
1
1
1.00036
1.32604
2.23511
2.4098
2.40493
2.40077
2.39633
2.39132
2.38782
2.38509
2.38167
2.37633
2.36852
2.35822
2.34622
2.33399
2.3228
2.3124
2.30165
2.28952
1
1
1
1
1
1
1
1
1
1
1
1
1
1
1
1
1
1
1
1
1
1
1
1
1
1
1
1
1
1
1
1
1
1
1
1
1
1
1
1
1
1
1
1
1
1
1
1
1
1
1
1
1
1
1
1
1
1
1
1
1
1
1
1
1
1
1
1
1
1
1
1
1
1
1
1
1
1.01706
1.77552
2.33369
2.39831
2.39262
2.38817
2.38218
2.37627
2.37066
2.36551
2.36145
2.35684
2.34974
2.33976
2.32799
2.31586
2.30377
2.29151
2.27905
1
1
1
1
1
1
1
1
1
1
1
1
1
1
1
1
1
1
1
1
1
1
1
1
1
1
1
1
1
1
1
1
1
1
1
1
1
1
1
1
1
1
1
1
1
1
1
1
1
1
1
1
1
1
1
1
1
1
1
1
1
1
1
1
1
1
1
1
1
1
1
1
1
1
1
1
1
1.00008
1.15441
2.1099
2.36478
2.37643
2.37321
2.36777
2.36154
2.35594
2.35127
2.34771
2.34401
2.33883
2.3314
2.32139
2.30937
2.29658
2.28385
2.27158
1
1
1
1
1
1
1
1
1
1
1
1
1
1
1
1
1
1
1
1
1
1
1
1
1
1
1
1
1
1
1
1
1
1
1
1
1
1
1
1
1
1
1
1
1
1
1
1
1
1
1
1
1
1
1
1
1
1
1
1
1
1
1
1
1
1
1
1
1
1
1
1
1
1
1
1
1
1
1.00351
1.50806
2.24532
2.36971
2.36125
2.3562
2.34995
2.34303
2.33706
2.33307
2.3293
2.32494
2.31935
2.31165
2.30167
2.2901
2.27794
2.26605
1
1
1
1
1
1
1
1
1
1
1
1
1
1
1
1
1
1
1
1
1
1
1
1
1
1
1
1
1
1
1
1
1
1
1
1
1
1
1
1
1
1
1
1
1
1
1
1
1
1
1
1
1
1
1
1
1
1
1
1
1
1
1
1
1
1
1
1
1
1
1
1
1
1
1
1
1
1
1.00001
1.05009
1.86813
2.30166
2.34885
2.34255
2.33915
2.33469
2.33009
2.32501
2.31866
2.31192
2.30537
2.29834
2.29024
2.28122
2.27158
2.2614
1
1
1
1
1
1
1
1
1
1
1
1
1
1
1
1
1
1
1
1
1
1
1
1
1
1
1
1
1
1
1
1
1
1
1
1
1
1
1
1
1
1
1
1
1
1
1
1
1
1
1
1
1
1
1
1
1
1
1
1
1
1
1
1
1
1
1
1
1
1
1
1
1
1
1
1
1
1
1
1.0005
1.23156
2.10307
2.32329
2.32752
2.32537
2.32294
2.31934
2.31377
2.30673
2.29994
2.29355
2.28644
2.27835
2.27039
2.26279
2.25466
1
1
1
1
1
1
1
1
1
1
1
1
1
1
1
1
1
1
1
1
1
1
1
1
1
1
1
1
1
1
1
1
1
1
1
1
1
1
1
1
1
1
1
1
1
1
1
1
1
1
1
1
1
1
1
1
1
1
1
1
1
1
1
1
1
1
1
1
1
1
1
1
1
1
1
1
1
1
1
1
1.00811
1.54651
2.20781
2.32387
2.3165
2.31287
2.30738
2.30131
2.29517
2.28815
2.28028
2.27186
2.26389
2.2574
2.25162
2.24535
1
1
1
1
1
1
1
1
1
1
1
1
1
1
1
1
1
1
1
1
1
1
1
1
1
1
1
1
1
1
1
1
1
1
1
1
1
1
1
1
1
1
1
1
1
1
1
1
1
1
1
1
1
1
1
1
1
1
1
1
1
1
1
1
1
1
1
1
1
1
1
1
1
1
1
1
1
1
1
1
1.00003
1.063
1.82885
2.25908
2.30819
2.29903
2.29618
2.29194
2.28718
2.28007
2.27007
2.25903
2.24975
2.24307
2.2377
2.23205
1
1
1
1
1
1
1
1
1
1
1
1
1
1
1
1
1
1
1
1
1
1
1
1
1
1
1
1
1
1
1
1
1
1
1
1
1
1
1
1
1
1
1
1
1
1
1
1
1
1
1
1
1
1
1
1
1
1
1
1
1
1
1
1
1
1
1
1
1
1
1
1
1
1
1
1
1
1
1
1
1
1.00077
1.21613
2.03509
2.26879
2.28226
2.27969
2.27688
2.27317
2.2673
2.25909
2.25034
2.24241
2.23514
2.22776
2.21944
1
1
1
1
1
1
1
1
1
1
1
1
1
1
1
1
1
1
1
1
1
1
1
1
1
1
1
1
1
1
1
1
1
1
1
1
1
1
1
1
1
1
1
1
1
1
1
1
1
1
1
1
1
1
1
1
1
1
1
1
1
1
1
1
1
1
1
1
1
1
1
1
1
1
1
1
1
1
1
1
1
1
1.00732
1.46383
2.12754
2.27405
2.267
2.26167
2.25579
2.25009
2.24447
2.23884
2.23305
2.22677
2.21943
2.21049
1
1
1
1
1
1
1
1
1
1
1
1
1
1
1
1
1
1
1
1
1
1
1
1
1
1
1
1
1
1
1
1
1
1
1
1
1
1
1
1
1
1
1
1
1
1
1
1
1
1
1
1
1
1
1
1
1
1
1
1
1
1
1
1
1
1
1
1
1
1
1
1
1
1
1
1
1
1
1
1
1
1
1.00003
1.04187
1.69094
2.19142
2.25919
2.24998
2.2463
2.24061
2.23425
2.22806
2.22189
2.21536
2.2079
2.19933
1
1
1
1
1
1
1
1
1
1
1
1
1
1
1
1
1
1
1
1
1
1
1
1
1
1
1
1
1
1
1
1
1
1
1
1
1
1
1
1
1
1
1
1
1
1
1
1
1
1
1
1
1
1
1
1
1
1
1
1
1
1
1
1
1
1
1
1
1
1
1
1
1
1
1
1
1
1
1
1
1
1
1
1.00041
1.13271
1.87724
2.2072
2.24395
2.2326
2.2295
2.22549
2.2206
2.21436
2.20643
2.19739
2.18805
1
1
1
1
1
1
1
1
1
1
1
1
1
1
1
1
1
1
1
1
1
1
1
1
1
1
1
1
1
1
1
1
1
1
1
1
1
1
1
1
1
1
1
1
1
1
1
1
1
1
1
1
1
1
1
1
1
1
1
1
1
1
1
1
1
1
1
1
1
1
1
1
1
1
1
1
1
1
1
1
1
1
1
1
1.00297
1.28655
2.00545
2.20609
2.22511
2.21677
2.21244
2.20831
2.20338
2.19709
2.18939
2.18065
1
1
1
1
1
1
1
1
1
1
1
1
1
1
1
1
1
1
1
1
1
1
1
1
1
1
1
1
1
1
1
1
1
1
1
1
1
1
1
1
1
1
1
1
1
1
1
1
1
1
1
1
1
1
1
1
1
1
1
1
1
1
1
1
1
1
1
1
1
1
1
1
1
1
1
1
1
1
1
1
1
1
1
1
1.00001
1.01407
1.47305
2.07569
2.20959
2.20682
2.20056
2.19459
2.1887
2.18344
2.17799
2.1715
1
1
1
1
1
1
1
1
1
1
1
1
1
1
1
1
1
1
1
1
1
1
1
1
1
1
1
1
1
1
1
1
1
1
1
1
1
1
1
1
1
1
1
1
1
1
1
1
1
1
1
1
1
1
1
1
1
1
1
1
1
1
1
1
1
1
1
1
1
1
1
1
1
1
1
1
1
1
1
1
1
1
1
1
1
1.00009
1.04648
1.63988
2.11806
2.1992
2.1928
2.18466
2.17752
2.17075
2.16419
2.15808
1
1
1
1
1
1
1
1
1
1
1
1
1
1
1
1
1
1
1
1
1
1
1
1
1
1
1
1
1
1
1
1
1
1
1
1
1
1
1
1
1
1
1
1
1
1
1
1
1
1
1
1
1
1
1
1
1
1
1
1
1
1
1
1
1
1
1
1
1
1
1
1
1
1
1
1
1
1
1
1
1
1
1
1
1
1
1.00051
1.112
1.76705
2.1351
2.18465
2.17653
2.16949
2.16295
2.15497
2.14709
1
1
1
1
1
1
1
1
1
1
1
1
1
1
1
1
1
1
1
1
1
1
1
1
1
1
1
1
1
1
1
1
1
1
1
1
1
1
1
1
1
1
1
1
1
1
1
1
1
1
1
1
1
1
1
1
1
1
1
1
1
1
1
1
1
1
1
1
1
1
1
1
1
1
1
1
1
1
1
1
1
1
1
1
1
1
1
1.00224
1.20379
1.85934
2.13388
2.16913
2.16069
2.15396
2.1484
2.14195
1
1
1
1
1
1
1
1
1
1
1
1
1
1
1
1
1
1
1
1
1
1
1
1
1
1
1
1
1
1
1
1
1
1
1
1
1
1
1
1
1
1
1
1
1
1
1
1
1
1
1
1
1
1
1
1
1
1
1
1
1
1
1
1
1
1
1
1
1
1
1
1
1
1
1
1
1
1
1
1
1
1
1
1
1
1
1
1.00001
1.00702
1.30671
1.92708
2.12671
2.1533
2.14491
2.13854
2.13426
1
1
1
1
1
1
1
1
1
1
1
1
1
1
1
1
1
1
1
1
1
1
1
1
1
1
1
1
1
1
1
1
1
1
1
1
1
1
1
1
1
1
1
1
1
1
1
1
1
1
1
1
1
1
1
1
1
1
1
1
1
1
1
1
1
1
1
1
1
1
1
1
1
1
1
1
1
1
1
1
1
1
1
1
1
1
1
1
1.00003
1.01704
1.40921
1.97905
2.11509
2.13618
2.12776
2.12112
1
1
1
1
1
1
1
1
1
1
1
1
1
1
1
1
1
1
1
1
1
1
1
1
1
1
1
1
1
1
1
1
1
1
1
1
1
1
1
1
1
1
1
1
1
1
1
1
1
1
1
1
1
1
1
1
1
1
1
1
1
1
1
1
1
1
1
1
1
1
1
1
1
1
1
1
1
1
1
1
1
1
1
1
1
1
1
1
1
1.00012
1.03436
1.51106
2.00061
2.1036
2.12011
2.1127
1
1
1
1
1
1
1
1
1
1
1
1
1
1
1
1
1
1
1
1
1
1
1
1
1
1
1
1
1
1
1
1
1
1
1
1
1
1
1
1
1
1
1
1
1
1
1
1
1
1
1
1
1
1
1
1
1
1
1
1
1
1
1
1
1
1
1
1
1
1
1
1
1
1
1
1
1
1
1
1
1
1
1
1
1
1
1
1
1
1
1.00034
1.06258
1.58632
2.00152
2.09683
2.10521
1
1
1
1
1
1
1
1
1
1
1
1
1
1
1
1
1
1
1
1
1
1
1
1
1
1
1
1
1
1
1
1
1
1
1
1
1
1
1
1
1
1
1
1
1
1
1
1
1
1
1
1
1
1
1
1
1
1
1
1
1
1
1
1
1
1
1
1
1
1
1
1
1
1
1
1
1
1
1
1
1
1
1
1
1
1
1
1
1
1
1