/*--------------------------------*- C++ -*----------------------------------*\
  =========                 |
  \\      /  F ield         | OpenFOAM: The Open Source CFD Toolbox
   \\    /   O peration     | Website:  https://openfoam.org
    \\  /    A nd           | Version:  7
     \\/     M anipulation  |
\*---------------------------------------------------------------------------*/
FoamFile
{
    version     2.0;
    format      ascii;
    class       volScalarField;
    location    "1.6";
    object      p;
}
// * * * * * * * * * * * * * * * * * * * * * * * * * * * * * * * * * * * * * //

dimensions      [1 -1 -2 0 0 0 0];

internalField   nonuniform List<scalar> 
64512
(
1
1
1
1
1
1
1
1
1
1
1
1
1
1
1
1
1
1
1
1
1
1
1
1
1
1
1
1
1
1
1
1
1
1
1
1
1
1
1
1
1
1
1
1
1
1
1
1
1
1
1
6.32733
10.5466
10.6071
10.6594
10.725
10.7902
10.8516
10.9066
10.9563
11.0056
11.059
11.1173
11.1774
11.2347
11.2879
11.3358
11.3754
11.4095
11.4403
11.4708
11.5078
11.5525
11.6016
11.6496
11.6887
11.7181
11.7437
11.7699
11.7978
11.826
11.8524
11.8782
11.907
11.9407
11.976
12.0061
12.0276
12.0424
12.0546
12.0682
12.0853
12.0992
12.1057
12.1046
12.1015
1
1
1
1
1
1
1
1
1
1
1
1
1
1
1
1
1
1
1
1
1
1
1
1
1
1
1
1
1
1
1
1
1
1
1
1
1
1
1
1
1
1
1
1
1
1
1
1
1
1
1
6.28029
10.5256
10.6099
10.6594
10.7253
10.7905
10.8518
10.9068
10.9566
11.0055
11.058
11.1153
11.1747
11.2316
11.2848
11.3326
11.3723
11.407
11.4387
11.4699
11.5074
11.5514
11.5995
11.6465
11.686
11.7172
11.7445
11.7712
11.7986
11.8258
11.8517
11.8777
11.9065
11.9391
11.9725
12.0011
12.0223
12.038
12.0514
12.0653
12.0819
12.0952
12.1021
12.1026
12.1006
1
1
1
1
1
1
1
1
1
1
1
1
1
1
1
1
1
1
1
1
1
1
1
1
1
1
1
1
1
1
1
1
1
1
1
1
1
1
1
1
1
1
1
1
1
1
1
1
1
1
1
6.18799
10.5085
10.6073
10.6562
10.7227
10.7883
10.8503
10.9059
10.9561
11.0048
11.0559
11.1113
11.1691
11.225
11.2784
11.3265
11.3665
11.402
11.4351
11.4675
11.5056
11.5488
11.5952
11.6407
11.6808
11.7143
11.744
11.7717
11.7985
11.8249
11.8508
11.8771
11.9054
11.9362
11.9668
11.9936
12.0147
12.0318
12.0465
12.0604
12.0757
12.0882
12.0961
12.0993
12.0996
1
1
1
1
1
1
1
1
1
1
1
1
1
1
1
1
1
1
1
1
1
1
1
1
1
1
1
1
1
1
1
1
1
1
1
1
1
1
1
1
1
1
1
1
1
1
1
1
1
1
1
6.05051
10.4855
10.6031
10.6519
10.7189
10.7844
10.8467
10.9031
10.954
11.0026
11.0525
11.1058
11.1616
11.216
11.2692
11.3175
11.3581
11.3946
11.4292
11.4628
11.5017
11.5443
11.5893
11.6334
11.674
11.7095
11.7415
11.7704
11.7973
11.8235
11.8497
11.8759
11.9027
11.9304
11.9578
11.9831
12.0051
12.0239
12.0397
12.0532
12.0667
12.0781
12.0871
12.0936
12.0964
1
1
1
1
1
1
1
1
1
1
1
1
1
1
1
1
1
1
1
1
1
1
1
1
1
1
1
1
1
1
1
1
1
1
1
1
1
1
1
1
1
1
1
1
1
1
1
1
1
1
1
5.86608
10.4582
10.5977
10.6478
10.7148
10.7788
10.84
10.8965
10.9485
10.9982
11.0478
11.0999
11.1538
11.2065
11.2593
11.3078
11.3491
11.3864
11.422
11.4564
11.4959
11.5382
11.5822
11.625
11.6655
11.7023
11.7357
11.7654
11.7931
11.8202
11.8471
11.873
11.8976
11.9219
11.9463
11.9708
11.9943
12.015
12.0314
12.0441
12.0556
12.066
12.0761
12.0854
12.0906
1
1
1
1
1
1
1
1
1
1
1
1
1
1
1
1
1
1
1
1
1
1
1
1
1
1
1
1
1
1
1
1
1
1
1
1
1
1
1
1
1
1
1
1
1
1
1
1
1
1
1
5.63559
10.4242
10.5913
10.6435
10.7097
10.7715
10.8306
10.8866
10.9399
10.9915
11.0425
11.0946
11.1469
11.1978
11.249
11.2968
11.3379
11.3756
11.4118
11.4467
11.4872
11.5301
11.574
11.6159
11.6561
11.6931
11.7269
11.757
11.7853
11.8138
11.8419
11.8676
11.89
11.9111
11.9331
11.9574
11.9825
12.0044
12.0208
12.0328
12.0428
12.0526
12.0634
12.0743
12.0809
1
1
1
1
1
1
1
1
1
1
1
1
1
1
1
1
1
1
1
1
1
1
1
1
1
1
1
1
1
1
1
1
1
1
1
1
1
1
1
1
1
1
1
1
1
1
1
1
1
1
1
5.36284
10.3788
10.5835
10.6382
10.7031
10.7628
10.8198
10.8748
10.929
10.9829
11.0359
11.0887
11.1396
11.1887
11.2381
11.2852
11.3259
11.3638
11.4001
11.4354
11.4768
11.5209
11.5652
11.6066
11.6458
11.6821
11.7153
11.745
11.7737
11.8031
11.8323
11.858
11.8791
11.8985
11.9192
11.9431
11.9688
11.991
12.0071
12.0188
12.0285
12.0384
12.0494
12.0602
12.067
1
1
1
1
1
1
1
1
1
1
1
1
1
1
1
1
1
1
1
1
1
1
1
1
1
1
1
1
1
1
1
1
1
1
1
1
1
1
1
1
1
1
1
1
1
1
1
1
1
1
1
5.04987
10.3195
10.5741
10.6314
10.6944
10.7526
10.8079
10.8617
10.9165
10.9723
11.0273
11.0811
11.1308
11.1786
11.2263
11.2732
11.3141
11.352
11.3876
11.4225
11.4644
11.5097
11.5546
11.5957
11.6337
11.6687
11.701
11.7303
11.7589
11.7883
11.8177
11.8438
11.8652
11.8846
11.9051
11.9284
11.9531
11.9741
11.9895
12.0018
12.0125
12.0233
12.0339
12.0432
12.0487
1
1
1
1
1
1
1
1
1
1
1
1
1
1
1
1
1
1
1
1
1
1
1
1
1
1
1
1
1
1
1
1
1
1
1
1
1
1
1
1
1
1
1
1
1
1
1
1
1
1
1
4.70116
10.2395
10.5631
10.6222
10.6834
10.7415
10.7962
10.849
10.9037
10.9603
11.0166
11.0709
11.1195
11.1661
11.2132
11.2611
11.3027
11.3406
11.3747
11.4082
11.4494
11.4956
11.5414
11.5825
11.6194
11.6531
11.6845
11.7132
11.7414
11.7699
11.7987
11.8253
11.8482
11.8694
11.8907
11.9128
11.9348
11.9534
11.9681
11.9814
11.9943
12.0065
12.0165
12.0231
12.0267
1
1
1
1
1
1
1
1
1
1
1
1
1
1
1
1
1
1
1
1
1
1
1
1
1
1
1
1
1
1
1
1
1
1
1
1
1
1
1
1
1
1
1
1
1
1
1
1
1
1
1
4.32092
10.1323
10.5513
10.6112
10.6721
10.7295
10.7837
10.8354
10.8898
10.947
11.0046
11.0585
11.106
11.1508
11.1979
11.2472
11.2903
11.329
11.3612
11.393
11.4327
11.4791
11.5254
11.5665
11.6027
11.635
11.6652
11.6933
11.7209
11.7485
11.7763
11.8034
11.8285
11.8523
11.8748
11.8956
11.9141
11.9297
11.9434
11.9577
11.973
11.9868
11.9964
12.0003
12.0021
1
1
1
1
1
1
1
1
1
1
1
1
1
1
1
1
1
1
1
1
1
1
1
1
1
1
1
1
1
1
1
1
1
1
1
1
1
1
1
1
1
1
1
1
1
1
1
1
1
1
1
3.91366
9.9917
10.5384
10.5997
10.6609
10.7176
10.7712
10.822
10.8756
10.9328
10.991
11.0438
11.0888
11.1315
11.1787
11.2295
11.2753
11.316
11.3471
11.3772
11.4151
11.4603
11.5064
11.5476
11.5834
11.6145
11.6435
11.6707
11.6977
11.7245
11.7515
11.779
11.8058
11.832
11.8556
11.8749
11.8903
11.9034
11.916
11.9308
11.9479
11.963
11.9727
11.9753
11.9763
1
1
1
1
1
1
1
1
1
1
1
1
1
1
1
1
1
1
1
1
1
1
1
1
1
1
1
1
1
1
1
1
1
1
1
1
1
1
1
1
1
1
1
1
1
1
1
1
1
1
1
3.48594
9.81461
10.5303
10.5859
10.647
10.7014
10.7538
10.8047
10.8582
10.9167
10.9756
11.0275
11.0704
11.1108
11.1563
11.2071
11.256
11.2991
11.3313
11.3604
11.3968
11.4399
11.4853
11.5269
11.5628
11.5927
11.6199
11.6456
11.6718
11.6981
11.7246
11.752
11.7796
11.8075
11.8317
11.8499
11.8637
11.8754
11.8873
11.9017
11.9189
11.9344
11.9447
11.9476
11.9492
1
1
1
1
1
1
1
1
1
1
1
1
1
1
1
1
1
1
1
1
1
1
1
1
1
1
1
1
1
1
1
1
1
1
1
1
1
1
1
1
1
1
1
1
1
1
1
1
1
1
1
3.04466
9.5871
10.5258
10.5722
10.6336
10.6856
10.7355
10.7867
10.8414
10.9012
10.9611
11.0121
11.0527
11.0898
11.1318
11.1805
11.2317
11.2771
11.3118
11.3419
11.3773
11.4182
11.4626
11.5048
11.541
11.5696
11.5947
11.6182
11.6433
11.6692
11.6953
11.7225
11.7501
11.7784
11.8026
11.8207
11.8345
11.846
11.8571
11.8701
11.8855
11.9002
11.9114
11.9163
11.9201
1
1
1
1
1
1
1
1
1
1
1
1
1
1
1
1
1
1
1
1
1
1
1
1
1
1
1
1
1
1
1
1
1
1
1
1
1
1
1
1
1
1
1
1
1
1
1
1
1
1
1
2.60162
9.29067
10.5261
10.5585
10.6177
10.6674
10.7161
10.767
10.8227
10.8849
10.9458
10.9961
11.0352
11.0694
11.1077
11.1539
11.2052
11.2515
11.288
11.3198
11.355
11.3948
11.4385
11.4816
11.5185
11.546
11.5688
11.5896
11.6127
11.6377
11.6633
11.6901
11.7169
11.7442
11.768
11.787
11.8022
11.8144
11.8252
11.8361
11.8484
11.8614
11.8736
11.8815
11.8885
1
1
1
1
1
1
1
1
1
1
1
1
1
1
1
1
1
1
1
1
1
1
1
1
1
1
1
1
1
1
1
1
1
1
1
1
1
1
1
1
1
1
1
1
1
1
1
1
1
1
1
2.1831
8.92048
10.5297
10.5463
10.6044
10.649
10.6953
10.7464
10.8037
10.867
10.9287
10.9788
11.0169
11.0493
11.0852
11.1291
11.1788
11.2238
11.2611
11.294
11.3296
11.3691
11.4122
11.4564
11.4942
11.5211
11.5421
11.5603
11.581
11.6042
11.6286
11.6545
11.6798
11.7054
11.7286
11.7488
11.7661
11.78
11.7907
11.7994
11.8083
11.8195
11.8322
11.8429
11.853
1
1
1
1
1
1
1
1
1
1
1
1
1
1
1
1
1
1
1
1
1
1
1
1
1
1
1
1
1
1
1
1
1
1
1
1
1
1
1
1
1
1
1
1
1
1
1
1
1
1
1
1.80318
8.45795
10.5207
10.5285
10.5868
10.627
10.6714
10.7208
10.7795
10.8447
10.9076
10.9577
10.995
11.0262
11.0606
11.1034
11.1513
11.1964
11.2344
11.2675
11.3028
11.3413
11.3826
11.4277
11.467
11.4948
11.5149
11.5307
11.5483
11.5686
11.5908
11.6152
11.6388
11.6627
11.6856
11.7072
11.7265
11.7422
11.7529
11.7595
11.7655
11.7745
11.7869
11.7988
11.8109
1
1
1
1
1
1
1
1
1
1
1
1
1
1
1
1
1
1
1
1
1
1
1
1
1
1
1
1
1
1
1
1
1
1
1
1
1
1
1
1
1
1
1
1
1
1
1
1
1
1
1
1.48051
7.9072
10.4898
10.5077
10.562
10.6002
10.6473
10.6984
10.758
10.8238
10.8868
10.9368
10.9736
11.0038
11.0365
11.0768
11.1222
11.1666
11.2045
11.2368
11.271
11.3078
11.3471
11.3929
11.4344
11.4647
11.4856
11.5002
11.5147
11.5312
11.5502
11.5725
11.5946
11.6173
11.64
11.6623
11.6827
11.6992
11.7096
11.7151
11.7193
11.7269
11.7384
11.7498
11.7625
1
1
1
1
1
1
1
1
1
1
1
1
1
1
1
1
1
1
1
1
1
1
1
1
1
1
1
1
1
1
1
1
1
1
1
1
1
1
1
1
1
1
1
1
1
1
1
1
1
1
1
1.19839
7.28088
10.4615
10.4895
10.538
10.5784
10.6222
10.6697
10.7251
10.789
10.8526
10.9047
10.9434
10.9743
11.0066
11.0458
11.0903
11.1353
11.1739
11.2056
11.2381
11.2729
11.3104
11.3563
11.3998
11.4326
11.4542
11.4671
11.4775
11.4896
11.5056
11.5265
11.5479
11.5704
11.5926
11.6141
11.6342
11.6506
11.661
11.6663
11.6702
11.6767
11.6862
11.6949
11.7061
1
1
1
1
1
1
1
1
1
1
1
1
1
1
1
1
1
1
1
1
1
1
1
1
1
1
1
1
1
1
1
1
1
1
1
1
1
1
1
1
1
1
1
1
1
1
1
1
1
1
1
1.01015
6.55343
10.3953
10.4494
10.5016
10.5512
10.5992
10.6491
10.7041
10.7661
10.8282
10.8809
10.9204
10.9505
10.9804
11.016
11.0578
11.1025
11.1423
11.1748
11.2059
11.2374
11.2701
11.3124
11.356
11.391
11.4143
11.4273
11.4357
11.445
11.4594
11.4793
11.5001
11.522
11.5426
11.5616
11.5799
11.5956
11.6067
11.6132
11.6177
11.623
11.6294
11.6338
11.6422
1
1
1
1
1
1
1
1
1
1
1
1
1
1
1
1
1
1
1
1
1
1
1
1
1
1
1
1
1
1
1
1
1
1
1
1
1
1
1
1
1
1
1
1
1
1
1
1
1
1
1
1.00007
5.70057
10.2513
10.3986
10.462
10.5238
10.5747
10.624
10.6763
10.7346
10.7946
10.8481
10.8887
10.9186
10.947
10.98
11.0201
11.0653
11.1072
11.1409
11.1713
11.2002
11.2289
11.2674
11.3103
11.3467
11.3711
11.3839
11.3905
11.3976
11.4105
11.4299
11.4503
11.4714
11.4897
11.5049
11.5207
11.5356
11.5477
11.5558
11.5606
11.5639
11.5659
11.5651
11.5697
1
1
1
1
1
1
1
1
1
1
1
1
1
1
1
1
1
1
1
1
1
1
1
1
1
1
1
1
1
1
1
1
1
1
1
1
1
1
1
1
1
1
1
1
1
1
1
1
1
1
1
1
4.7749
10.065
10.3686
10.4353
10.5015
10.5533
10.6024
10.6528
10.7076
10.7651
10.8188
10.8598
10.8894
10.9161
10.9466
10.9843
11.0289
11.0719
11.1063
11.1358
11.1623
11.1875
11.2218
11.2623
11.2984
11.3228
11.3352
11.3407
11.3466
11.3588
11.3779
11.398
11.4181
11.433
11.4431
11.4553
11.4686
11.4817
11.4914
11.4966
11.4976
11.4954
11.4897
11.4911
1
1
1
1
1
1
1
1
1
1
1
1
1
1
1
1
1
1
1
1
1
1
1
1
1
1
1
1
1
1
1
1
1
1
1
1
1
1
1
1
1
1
1
1
1
1
1
1
1
1
1
1
3.84598
9.78904
10.3579
10.4309
10.488
10.5333
10.5793
10.628
10.6813
10.7375
10.7912
10.8321
10.861
10.8862
10.9147
10.9494
10.9923
11.0353
11.0701
11.0987
11.1229
11.1463
11.1765
11.213
11.2472
11.2707
11.2821
11.2868
11.2923
11.3042
11.3227
11.342
11.3602
11.3702
11.3759
11.3841
11.3958
11.4097
11.4205
11.425
11.4228
11.4158
11.4057
11.4037
1
1
1
1
1
1
1
1
1
1
1
1
1
1
1
1
1
1
1
1
1
1
1
1
1
1
1
1
1
1
1
1
1
1
1
1
1
1
1
1
1
1
1
1
1
1
1
1
1
1
1
1
2.98037
9.35993
10.3772
10.4324
10.4816
10.5197
10.5596
10.604
10.6535
10.7067
10.7594
10.801
10.831
10.8561
10.8831
10.9151
10.9555
10.9974
11.0319
11.0593
11.0817
11.1046
11.1305
11.1625
11.1934
11.2151
11.2253
11.2296
11.2349
11.2462
11.263
11.2804
11.2953
11.3007
11.3027
11.307
11.3162
11.3289
11.339
11.3417
11.3366
11.3263
11.3137
11.3096
1
1
1
1
1
1
1
1
1
1
1
1
1
1
1
1
1
1
1
1
1
1
1
1
1
1
1
1
1
1
1
1
1
1
1
1
1
1
1
1
1
1
1
1
1
1
1
1
1
1
1
1
2.17976
8.76116
10.4341
10.4267
10.4595
10.4924
10.5306
10.5748
10.6231
10.6744
10.7257
10.767
10.7975
10.8232
10.849
10.8793
10.917
10.9568
10.9907
11.0169
11.0387
11.0604
11.0826
11.1104
11.1367
11.1562
11.1653
11.1694
11.1748
11.1847
11.1984
11.2126
11.223
11.2238
11.2226
11.2236
11.2298
11.2399
11.2475
11.2469
11.2379
11.2242
11.2097
11.2032
1
1
1
1
1
1
1
1
1
1
1
1
1
1
1
1
1
1
1
1
1
1
1
1
1
1
1
1
1
1
1
1
1
1
1
1
1
1
1
1
1
1
1
1
1
1
1
1
1
1
1
1
1.48681
8.01891
10.5075
10.4097
10.4294
10.4548
10.4869
10.5283
10.5776
10.632
10.6867
10.7306
10.7627
10.7889
10.8139
10.8425
10.8772
10.9141
10.9463
10.9712
10.9921
11.0115
11.0311
11.0546
11.0763
11.0934
11.1016
11.1061
11.1115
11.1193
11.1286
11.1378
11.1418
11.1394
11.1352
11.1329
11.1344
11.1387
11.1404
11.1348
11.1224
11.1071
11.0926
11.0854
1
1
1
1
1
1
1
1
1
1
1
1
1
1
1
1
1
1
1
1
1
1
1
1
1
1
1
1
1
1
1
1
1
1
1
1
1
1
1
1
1
1
1
1
1
1
1
1
1
1
1
1
1.05829
7.1379
10.4074
10.3391
10.3821
10.4193
10.4578
10.4982
10.5453
10.5971
10.6468
10.687
10.7185
10.7457
10.7712
10.799
10.8321
10.868
10.9002
10.9244
10.9431
10.9585
10.9752
10.9939
11.0119
11.0256
11.0334
11.0385
11.0436
11.049
11.0536
11.0557
11.0533
11.0473
11.04
11.0337
11.0294
11.026
11.0202
11.0083
10.9904
10.9708
10.9541
10.9438
1
1
1
1
1
1
1
1
1
1
1
1
1
1
1
1
1
1
1
1
1
1
1
1
1
1
1
1
1
1
1
1
1
1
1
1
1
1
1
1
1
1
1
1
1
1
1
1
1
1
1
1
1.00068
5.97164
10.1385
10.2575
10.3217
10.3716
10.4164
10.4603
10.5099
10.5629
10.6157
10.6588
10.6892
10.7129
10.7332
10.7551
10.7832
10.8162
10.8477
10.8715
10.8887
10.9015
10.9158
10.9296
10.9432
10.9534
10.9599
10.965
10.9696
10.9726
10.9721
10.9663
10.9571
10.9463
10.9353
10.9241
10.9118
10.8974
10.8793
10.857
10.8319
10.8087
10.7911
10.7811
1
1
1
1
1
1
1
1
1
1
1
1
1
1
1
1
1
1
1
1
1
1
1
1
1
1
1
1
1
1
1
1
1
1
1
1
1
1
1
1
1
1
1
1
1
1
1
1
1
1
1
1
1
4.85003
9.90543
10.1774
10.2674
10.3338
10.3863
10.4319
10.4768
10.5228
10.5701
10.6108
10.6419
10.6669
10.688
10.709
10.7349
10.7661
10.7968
10.8187
10.8326
10.8414
10.8512
10.86
10.8698
10.8762
10.8802
10.8842
10.8875
10.8879
10.8824
10.8695
10.8533
10.8366
10.8201
10.8021
10.7795
10.7522
10.7213
10.6882
10.6532
10.618
10.5884
10.5673
1
1
1
1
1
1
1
1
1
1
1
1
1
1
1
1
1
1
1
1
1
1
1
1
1
1
1
1
1
1
1
1
1
1
1
1
1
1
1
1
1
1
1
1
1
1
1
1
1
1
1
1
1
3.7067
9.45276
10.1583
10.2613
10.3331
10.3761
10.4131
10.4504
10.4908
10.5326
10.5703
10.6013
10.6261
10.6461
10.664
10.6848
10.71
10.736
10.7568
10.7708
10.7794
10.7858
10.7889
10.7936
10.7945
10.7947
10.7956
10.7966
10.7938
10.7837
10.7645
10.7411
10.7173
10.6934
10.6664
10.6312
10.5883
10.5391
10.4843
10.4272
10.3737
10.3309
10.3115
1
1
1
1
1
1
1
1
1
1
1
1
1
1
1
1
1
1
1
1
1
1
1
1
1
1
1
1
1
1
1
1
1
1
1
1
1
1
1
1
1
1
1
1
1
1
1
1
1
1
1
1
1
2.54164
8.79465
10.2553
10.2657
10.3078
10.3396
10.3761
10.415
10.4548
10.493
10.5279
10.5578
10.5825
10.6032
10.6207
10.6382
10.6587
10.68
10.6985
10.7109
10.7174
10.719
10.7171
10.7167
10.7116
10.7067
10.7026
10.6987
10.6917
10.6765
10.6516
10.6209
10.5886
10.5552
10.5161
10.4655
10.4032
10.3315
10.2537
10.1744
10.0925
10.0056
9.93042
1
1
1
1
1
1
1
1
1
1
1
1
1
1
1
1
1
1
1
1
1
1
1
1
1
1
1
1
1
1
1
1
1
1
1
1
1
1
1
1
1
1
1
1
1
1
1
1
1
1
1
1
1
1.51665
8.0224
10.3932
10.2552
10.2638
10.2984
10.3411
10.3816
10.4185
10.4519
10.4827
10.5106
10.5348
10.5565
10.5748
10.5906
10.6075
10.6249
10.6408
10.6515
10.6563
10.6533
10.6473
10.6409
10.6307
10.6204
10.6092
10.5985
10.5848
10.5629
10.5319
10.4937
10.4517
10.4061
10.3517
10.2831
10.1991
10.0999
9.98521
9.84684
9.68279
9.51996
9.40158
1
1
1
1
1
1
1
1
1
1
1
1
1
1
1
1
1
1
1
1
1
1
1
1
1
1
1
1
1
1
1
1
1
1
1
1
1
1
1
1
1
1
1
1
1
1
1
1
1
1
1
1
1
1.0311
6.8952
10.2264
10.1678
10.2218
10.263
10.303
10.3402
10.374
10.4055
10.4345
10.4607
10.4837
10.5057
10.5252
10.5414
10.557
10.5718
10.5849
10.5924
10.5944
10.5868
10.5774
10.5658
10.5522
10.5367
10.518
10.4987
10.4762
10.4464
10.4079
10.3613
10.308
10.2477
10.1756
10.0856
9.97455
9.8382
9.67246
9.47097
9.22622
8.95986
8.78779
1
1
1
1
1
1
1
1
1
1
1
1
1
1
1
1
1
1
1
1
1
1
1
1
1
1
1
1
1
1
1
1
1
1
1
1
1
1
1
1
1
1
1
1
1
1
1
1
1
1
1
1
1
1.0001
5.39397
9.84618
10.0987
10.1871
10.227
10.2569
10.2888
10.3215
10.3545
10.3842
10.4097
10.4308
10.4514
10.4708
10.4876
10.5036
10.5173
10.5275
10.5315
10.5297
10.518
10.505
10.4898
10.474
10.4537
10.4284
10.4004
10.368
10.3294
10.2822
10.2257
10.1596
10.0825
9.99019
9.87555
9.73369
9.55723
9.33652
9.04217
8.60187
7.75695
5.79646
1
1
1
1
1
1
1
1
1
1
1
1
1
1
1
1
1
1
1
1
1
1
1
1
1
1
1
1
1
1
1
1
1
1
1
1
1
1
1
1
1
1
1
1
1
1
1
1
1
1
1
1
1
1
4.0228
9.5128
10.0852
10.1565
10.2041
10.232
10.2487
10.2731
10.3035
10.3331
10.3588
10.379
10.3976
10.4153
10.4317
10.4478
10.461
10.469
10.4712
10.4652
10.4495
10.4318
10.4133
10.3948
10.3698
10.3384
10.3018
10.2595
10.2114
10.1549
10.0881
10.0085
9.91375
9.79943
9.6581
9.48263
9.26092
8.96893
8.56227
7.93375
6.90537
4.74678
1
1
1
1
1
1
1
1
1
1
1
1
1
1
1
1
1
1
1
1
1
1
1
1
1
1
1
1
1
1
1
1
1
1
1
1
1
1
1
1
1
1
1
1
1
1
1
1
1
1
1
1
1
1
2.64178
8.79366
10.1371
10.1423
10.1659
10.1865
10.2087
10.2346
10.2622
10.288
10.3109
10.3293
10.3453
10.3601
10.3745
10.3889
10.4008
10.4072
10.4081
10.3987
10.3797
10.3571
10.3348
10.3125
10.283
10.2466
10.203
10.1521
10.0946
10.0286
9.95086
9.8576
9.74483
9.60798
9.43886
9.22912
8.9616
8.61418
8.11714
7.45554
6.16505
4.31532
1
1
1
1
1
1
1
1
1
1
1
1
1
1
1
1
1
1
1
1
1
1
1
1
1
1
1
1
1
1
1
1
1
1
1
1
1
1
1
1
1
1
1
1
1
1
1
1
1
1
1
1
1
1
1.47482
7.93716
10.2811
10.1466
10.1158
10.1343
10.1639
10.1906
10.218
10.2432
10.2655
10.2829
10.2961
10.3069
10.3168
10.3273
10.3373
10.3429
10.3425
10.3313
10.3097
10.2827
10.2554
10.2275
10.1929
10.1519
10.1024
10.0442
9.97788
9.90222
9.81371
9.70761
9.57823
9.42053
9.22495
8.98418
8.67694
8.28654
7.74661
6.98462
5.75274
4.28561
1
1
1
1
1
1
1
1
1
1
1
1
1
1
1
1
1
1
1
1
1
1
1
1
1
1
1
1
1
1
1
1
1
1
1
1
1
1
1
1
1
1
1
1
1
1
1
1
1
1
1
1
1
1
1.02477
6.61301
10.013
10.017
10.0505
10.0755
10.1114
10.1408
10.1705
10.1974
10.221
10.2379
10.2489
10.2561
10.2598
10.2645
10.2708
10.2748
10.2734
10.2619
10.2388
10.2083
10.1749
10.1404
10.1001
10.0544
9.99996
9.93575
9.86136
9.77622
9.6771
9.55921
9.41538
9.24
9.02235
8.75487
8.41832
7.99014
7.4296
6.6428
5.56897
4.41669
1
1
1
1
1
1
1
1
1
1
1
1
1
1
1
1
1
1
1
1
1
1
1
1
1
1
1
1
1
1
1
1
1
1
1
1
1
1
1
1
1
1
1
1
1
1
1
1
1
1
1
1
1
1
1.00003
4.92002
9.6005
9.9498
10.0142
10.0507
10.0689
10.0934
10.1219
10.1496
10.1743
10.1909
10.2004
10.2043
10.203
10.202
10.204
10.2058
10.2032
10.1914
10.1674
10.1335
10.0934
10.0513
10.0051
9.9546
9.89604
9.82677
9.74513
9.65083
9.54126
9.4124
9.25654
9.06729
8.83372
8.54617
8.18961
7.74221
7.17342
6.42879
5.50788
4.55365
1
1
1
1
1
1
1
1
1
1
1
1
1
1
1
1
1
1
1
1
1
1
1
1
1
1
1
1
1
1
1
1
1
1
1
1
1
1
1
1
1
1
1
1
1
1
1
1
1
1
1
1
1
1
0.999999
3.29723
9.08523
9.96424
9.9864
10.0044
10.0258
10.0528
10.0788
10.1048
10.1281
10.143
10.1508
10.1514
10.1465
10.1411
10.1383
10.1367
10.1316
10.1186
10.094
10.0567
10.0112
9.96199
9.91017
9.85494
9.79222
9.71798
9.62927
9.52587
9.40585
9.26644
9.10061
8.90142
8.65831
8.35996
7.99382
7.5387
6.98671
6.29926
5.50392
4.69293
1
1
1
1
1
1
1
1
1
1
1
1
1
1
1
1
1
1
1
1
1
1
1
1
1
1
1
1
1
1
1
1
1
1
1
1
1
1
1
1
1
1
1
1
1
1
1
1
1
1
1
1
1
1
1
1.86558
8.30724
10.0171
9.93942
9.94541
9.98105
10.0105
10.0343
10.0584
10.0793
10.0922
10.0976
10.0958
10.0889
10.0804
10.0737
10.0679
10.0602
10.0456
10.0203
9.9799
9.92877
9.87253
9.81497
9.7551
9.6884
9.60979
9.51497
9.40345
9.27365
9.12401
8.94917
8.74249
8.49431
8.19331
7.8284
7.37738
6.85503
6.22183
5.53302
4.83298
1
1
1
1
1
1
1
1
1
1
1
1
1
1
1
1
1
1
1
1
1
1
1
1
1
1
1
1
1
1
1
1
1
1
1
1
1
1
1
1
1
1
1
1
1
1
1
1
1
1
1
1
1
1
1
1.07728
6.9201
9.96608
9.88973
9.90881
9.9432
9.9705
9.98958
10.0081
10.0251
10.0367
10.0417
10.0396
10.0317
10.0203
10.0088
9.99784
9.98668
9.96996
9.94371
9.90167
9.84609
9.78412
9.72124
9.65675
9.58569
9.50269
9.40232
9.28353
9.14477
8.9857
8.80287
8.59057
8.34034
8.04207
7.68556
7.25487
6.75714
6.17744
5.57966
4.96225
1
1
1
1
1
1
1
1
1
1
1
1
1
1
1
1
1
1
1
1
1
1
1
1
1
1
1
1
1
1
1
1
1
1
1
1
1
1
1
1
1
1
1
1
1
1
1
1
1
1
1
1
1
1
1
1.00051
5.05989
9.48045
9.79859
9.89369
9.93282
9.9427
9.94798
9.95763
9.96853
9.97758
9.98256
9.98159
9.97393
9.96029
9.94378
9.92771
9.91225
9.89307
9.86582
9.82359
9.76551
9.69886
9.63008
9.55981
9.48358
9.39621
9.2915
9.16745
9.02193
8.85547
8.66609
8.4492
8.19791
7.90414
7.55997
7.1553
6.68523
6.16031
5.63393
5.06839
1
1
1
1
1
1
1
1
1
1
1
1
1
1
1
1
1
1
1
1
1
1
1
1
1
1
1
1
1
1
1
1
1
1
1
1
1
1
1
1
1
1
1
1
1
1
1
1
1
1
1
1
1
1
1
0.999997
3.18052
8.96872
9.86884
9.89383
9.90099
9.89989
9.90062
9.90471
9.91053
9.91674
9.92121
9.92118
9.91366
9.89793
9.87663
9.85528
9.83529
9.81318
9.78477
9.74352
9.68594
9.61662
9.54195
9.46503
9.383
9.29114
9.18286
9.05498
8.90464
8.73306
8.53946
8.32007
8.06902
7.77996
7.44794
7.06856
6.63485
6.15679
5.68057
5.1532
1
1
1
1
1
1
1
1
1
1
1
1
1
1
1
1
1
1
1
1
1
1
1
1
1
1
1
1
1
1
1
1
1
1
1
1
1
1
1
1
1
1
1
1
1
1
1
1
1
1
1
1
1
1
1
1
1.62223
8.07618
10.0076
9.87137
9.83887
9.83801
9.84207
9.84696
9.85204
9.85732
9.86093
9.86013
9.85137
9.83347
9.80856
9.78319
9.75893
9.73276
9.70189
9.66134
9.60621
9.53704
9.45785
9.37378
9.28482
9.18766
9.0762
8.94594
8.79358
8.61974
8.42424
8.20459
7.95617
7.67113
7.35139
6.99523
6.59163
6.15768
5.72187
5.23213
1
1
1
1
1
1
1
1
1
1
1
1
1
1
1
1
1
1
1
1
1
1
1
1
1
1
1
1
1
1
1
1
1
1
1
1
1
1
1
1
1
1
1
1
1
1
1
1
1
1
1
1
1
1
1
1
1.0381
6.52482
9.7193
9.74707
9.75793
9.77005
9.78249
9.79078
9.79636
9.80181
9.80434
9.80111
9.78944
9.76838
9.74008
9.71135
9.68277
9.65175
9.61769
9.57728
9.52529
9.45858
9.37751
9.28751
9.19116
9.08735
8.97191
8.83984
8.68759
8.51466
8.31998
8.10173
7.85878
7.57768
7.27093
6.93221
6.55287
6.16349
5.75502
5.30743
1
1
1
1
1
1
1
1
1
1
1
1
1
1
1
1
1
1
1
1
1
1
1
1
1
1
1
1
1
1
1
1
1
1
1
1
1
1
1
1
1
1
1
1
1
1
1
1
1
1
1
1
1
1
1
1
1.00006
4.4812
9.29481
9.67395
9.7145
9.73605
9.74819
9.75107
9.7528
9.75514
9.75448
9.74737
9.73181
9.70737
9.6761
9.6442
9.61104
9.57424
9.53532
9.49273
9.44218
9.37854
9.29852
9.20573
9.10324
8.99189
8.8709
8.73686
8.58592
8.416
8.22488
8.01016
7.77389
7.49727
7.20579
6.88252
6.52374
6.16803
5.78283
5.38142
1
1
1
1
1
1
1
1
1
1
1
1
1
1
1
1
1
1
1
1
1
1
1
1
1
1
1
1
1
1
1
1
1
1
1
1
1
1
1
1
1
1
1
1
1
1
1
1
1
1
1
1
1
1
1
1
0.999998
2.49125
8.62399
9.73742
9.69547
9.69261
9.70973
9.71284
9.71047
9.70657
9.70013
9.68899
9.6711
9.64574
9.61385
9.58004
9.54289
9.50072
9.45655
9.4105
9.35967
9.29858
9.22131
9.12852
9.02189
8.90331
8.77545
8.63858
8.48912
8.32306
8.13676
7.92763
7.69484
7.42833
7.1556
6.84097
6.50325
6.17669
5.81611
5.44831
1
1
1
1
1
1
1
1
1
1
1
1
1
1
1
1
1
1
1
1
1
1
1
1
1
1
1
1
1
1
1
1
1
1
1
1
1
1
1
1
1
1
1
1
1
1
1
1
1
1
1
1
1
1
1
1
0.999999
1.18766
7.25352
9.78282
9.67838
9.66372
9.66158
9.66594
9.66223
9.65551
9.64492
9.62994
9.60969
9.58466
9.55383
9.51954
9.47975
9.43326
9.38385
9.33286
9.27907
9.2184
9.14412
9.05353
8.94544
8.82188
8.68748
8.54638
8.39703
8.23444
8.05381
7.85007
7.62116
7.37139
7.10765
6.80001
6.49724
6.19166
5.84559
5.50215
1
1
1
1
1
1
1
1
1
1
1
1
1
1
1
1
1
1
1
1
1
1
1
1
1
1
1
1
1
1
1
1
1
1
1
1
1
1
1
1
1
1
1
1
1
1
1
1
1
1
1
1
1
1
1
1
1
1.0031
5.27659
9.28982
9.51695
9.58534
9.61581
9.61604
9.60823
9.59864
9.58568
9.5692
9.54835
9.52463
9.49544
9.46157
9.42042
9.37104
9.31703
9.26086
9.2027
9.14057
9.06832
8.98046
8.87281
8.74696
8.60832
8.46266
8.31165
8.15119
7.97604
7.77718
7.55777
7.31933
7.05688
6.77192
6.49968
6.19657
5.8706
5.55409
1
1
1
1
1
1
1
1
1
1
1
1
1
1
1
1
1
1
1
1
1
1
1
1
1
1
1
1
1
1
1
1
1
1
1
1
1
1
1
1
1
1
1
1
1
1
1
1
1
1
1
1
1
1
1
1
1
0.999982
3.00703
8.74744
9.60401
9.58329
9.57141
9.56937
9.56216
9.54985
9.53471
9.51584
9.49213
9.46752
9.43861
9.40515
9.36355
9.31285
9.25546
9.19419
9.13033
9.06432
8.99175
8.90604
8.80065
8.67591
8.53671
8.38809
8.23384
8.07277
7.90123
7.7088
7.4998
7.26635
7.0154
6.75707
6.492
6.19175
5.90107
5.60228
1
1
1
1
1
1
1
1
1
1
1
1
1
1
1
1
1
1
1
1
1
1
1
1
1
1
1
1
1
1
1
1
1
1
1
1
1
1
1
1
1
1
1
1
1
1
1
1
1
1
1
1
1
1
1
1
1
0.999996
1.31929
7.57952
9.69718
9.55246
9.51478
9.51177
9.50724
9.49726
9.484
9.46576
9.44101
9.41501
9.38499
9.35079
9.30876
9.25771
9.19773
9.13168
9.06199
8.99045
8.9148
8.82933
8.72683
8.60646
8.47011
8.32253
8.1654
8.0013
7.8308
7.64456
7.44432
7.22282
6.98395
6.73726
6.47526
6.1988
5.93015
5.64358
1
1
1
1
1
1
1
1
1
1
1
1
1
1
1
1
1
1
1
1
1
1
1
1
1
1
1
1
1
1
1
1
1
1
1
1
1
1
1
1
1
1
1
1
1
1
1
1
1
1
1
1
1
1
1
1
1
0.999999
1.0091
5.63234
9.224
9.38159
9.44707
9.46868
9.46112
9.44972
9.43612
9.41734
9.39138
9.36277
9.33102
9.29535
9.25283
9.20209
9.14093
9.07119
8.99612
8.91821
8.83719
8.74973
8.64963
8.53552
8.40473
8.26304
8.10415
7.93602
7.76433
7.58155
7.39358
7.18328
6.9502
6.71559
6.46655
6.21234
5.95003
5.67573
1
1
1
1
1
1
1
1
1
1
1
1
1
1
1
1
1
1
1
1
1
1
1
1
1
1
1
1
1
1
1
1
1
1
1
1
1
1
1
1
1
1
1
1
1
1
1
1
1
1
1
1
1
1
1
1
1
1
0.999949
3.18544
8.69818
9.45705
9.44446
9.43024
9.42316
9.41133
9.39463
9.37347
9.34558
9.31322
9.27769
9.23858
9.19407
9.14351
9.08203
9.01009
8.93114
8.84799
8.7613
8.67053
8.57152
8.463
8.33928
8.20618
8.04893
7.87934
7.70542
7.52378
7.34608
7.14128
6.92181
6.70183
6.46489
6.21958
5.96057
5.70838
1
1
1
1
1
1
1
1
1
1
1
1
1
1
1
1
1
1
1
1
1
1
1
1
1
1
1
1
1
1
1
1
1
1
1
1
1
1
1
1
1
1
1
1
1
1
1
1
1
1
1
1
1
1
1
1
1
1
0.999988
1.33993
7.55944
9.57192
9.42625
9.37867
9.37143
9.36036
9.34242
9.32064
9.29265
9.25872
9.22017
9.1778
9.13076
9.07988
9.01892
8.94688
8.86663
8.78002
8.68886
8.59444
8.4952
8.38995
8.27249
8.14777
7.99563
7.82983
7.65427
7.47463
7.29803
7.09894
6.89868
6.68753
6.45785
6.21919
5.97281
5.74489
1
1
1
1
1
1
1
1
1
1
1
1
1
1
1
1
1
1
1
1
1
1
1
1
1
1
1
1
1
1
1
1
1
1
1
1
1
1
1
1
1
1
1
1
1
1
1
1
1
1
1
1
1
1
1
1
1
1
0.999998
1.01044
5.52846
9.10739
9.25653
9.31324
9.33259
9.31633
9.29623
9.27384
9.24464
9.20765
9.1648
9.11762
9.06681
9.01447
8.95457
8.88363
8.80393
8.71604
8.62249
8.52491
8.42465
8.32016
8.20669
8.0868
7.94363
7.78587
7.61301
7.43733
7.25588
7.06425
6.87622
6.6692
6.45039
6.224
5.99293
5.7785
1
1
1
1
1
1
1
1
1
1
1
1
1
1
1
1
1
1
1
1
1
1
1
1
1
1
1
1
1
1
1
1
1
1
1
1
1
1
1
1
1
1
1
1
1
1
1
1
1
1
1
1
1
1
1
1
1
1
1
0.999947
2.95824
8.52105
9.33038
9.32302
9.30874
9.2764
9.25364
9.23011
9.19904
9.1583
9.1111
9.05914
9.00419
8.94942
8.89036
8.82179
8.74423
8.65782
8.56325
8.46309
8.36115
8.25535
8.14363
8.02497
7.89156
7.74263
7.57716
7.40663
7.22344
7.0377
6.85199
6.64848
6.44429
6.23084
6.00801
5.80136
1
1
1
1
1
1
1
1
1
1
1
1
1
1
1
1
1
1
1
1
1
1
1
1
1
1
1
1
1
1
1
1
1
1
1
1
1
1
1
1
1
1
1
1
1
1
1
1
1
1
1
1
1
1
1
1
1
1
1
0.999988
1.27207
7.17952
9.38977
9.30345
9.25084
9.22347
9.2035
9.18034
9.14759
9.10514
9.05674
9.00316
8.94623
8.88988
8.83157
8.76493
8.68965
8.60568
8.51213
8.41042
8.30636
8.19803
8.08535
7.96691
7.84005
7.69848
7.54255
7.37869
7.19921
7.01861
6.83276
6.63389
6.44055
6.23424
6.01823
5.8216
1
1
1
1
1
1
1
1
1
1
1
1
1
1
1
1
1
1
1
1
1
1
1
1
1
1
1
1
1
1
1
1
1
1
1
1
1
1
1
1
1
1
1
1
1
1
1
1
1
1
1
1
1
1
1
1
1
1
1
0.999998
1.00617
4.87277
8.92445
9.15849
9.16993
9.16547
9.1604
9.13818
9.10188
9.05692
9.00746
8.95353
8.89561
8.83752
8.77816
8.71209
8.63839
8.55637
8.46533
8.36443
8.25807
8.14839
8.03336
7.91486
7.79002
7.65337
7.50593
7.34861
7.17623
7.00233
6.81926
6.62555
6.43692
6.23401
6.02841
5.84182
1
1
1
1
1
1
1
1
1
1
1
1
1
1
1
1
1
1
1
1
1
1
1
1
1
1
1
1
1
1
1
1
1
1
1
1
1
1
1
1
1
1
1
1
1
1
1
1
1
1
1
1
1
1
1
1
1
1
1
1
0.999977
2.28886
8.31345
9.27277
9.17365
9.145
9.1229
9.08942
9.0473
9.00146
8.95415
8.90373
8.84764
8.78983
8.72934
8.66264
8.58929
8.50874
8.42052
8.32218
8.21434
8.10482
7.98777
7.86812
7.74318
7.60923
7.46728
7.31518
7.15176
6.98675
6.80969
6.62168
6.4367
6.23919
6.04426
5.86239
1
1
1
1
1
1
1
1
1
1
1
1
1
1
1
1
1
1
1
1
1
1
1
1
1
1
1
1
1
1
1
1
1
1
1
1
1
1
1
1
1
1
1
1
1
1
1
1
1
1
1
1
1
1
1
1
1
1
1
1
0.999995
1.123
6.58449
9.06231
9.05236
9.07165
9.06016
9.02779
8.98731
8.94652
8.90436
8.85781
8.80331
8.74484
8.68172
8.61341
8.53981
8.45988
8.3737
8.27876
8.17331
8.06379
7.94727
7.82639
7.70076
7.5683
7.4298
7.28173
7.12674
6.97012
6.79903
6.61826
6.43896
6.2492
6.06134
5.87985
1
1
1
1
1
1
1
1
1
1
1
1
1
1
1
1
1
1
1
1
1
1
1
1
1
1
1
1
1
1
1
1
1
1
1
1
1
1
1
1
1
1
1
1
1
1
1
1
1
1
1
1
1
1
1
1
1
1
1
1
0.999999
1.00102
3.80479
8.54275
9.01845
9.03445
9.02242
8.98618
8.94621
8.90736
8.866
8.8186
8.7635
8.7026
8.63568
8.56407
8.48932
8.4104
8.32569
8.23443
8.13295
8.02496
7.90928
7.78721
7.66038
7.52883
7.39314
7.24885
7.10082
6.95071
6.78631
6.61472
6.44246
6.26094
6.07774
5.89798
1
1
1
1
1
1
1
1
1
1
1
1
1
1
1
1
1
1
1
1
1
1
1
1
1
1
1
1
1
1
1
1
1
1
1
1
1
1
1
1
1
1
1
1
1
1
1
1
1
1
1
1
1
1
1
1
1
1
1
1
1
0.999997
1.48186
7.53259
9.17877
9.0468
8.98163
8.93708
8.90067
8.86496
8.82408
8.7756
8.71937
8.65657
8.5877
8.51469
8.43955
8.36155
8.2781
8.1896
8.09255
7.98706
7.87325
7.7513
7.62362
7.49284
7.36
7.22007
7.07757
6.93211
6.77445
6.61061
6.44361
6.26856
6.0906
5.91683
1
1
1
1
1
1
1
1
1
1
1
1
1
1
1
1
1
1
1
1
1
1
1
1
1
1
1
1
1
1
1
1
1
1
1
1
1
1
1
1
1
1
1
1
1
1
1
1
1
1
1
1
1
1
1
1
1
1
1
1
1
0.999999
1.01976
5.31693
8.75341
8.89506
8.90421
8.88946
8.86749
8.83284
8.78809
8.73571
8.67723
8.61286
8.54288
8.46862
8.39244
8.31406
8.23108
8.14372
8.05055
7.94811
7.83687
7.71671
7.58938
7.45931
7.32865
7.19275
7.05458
6.9132
6.7621
6.60415
6.44193
6.27356
6.103
5.93669
1
1
1
1
1
1
1
1
1
1
1
1
1
1
1
1
1
1
1
1
1
1
1
1
1
1
1
1
1
1
1
1
1
1
1
1
1
1
1
1
1
1
1
1
1
1
1
1
1
1
1
1
1
1
1
1
1
1
1
1
1
1
0.999959
2.45662
8.16423
8.98529
8.90267
8.86385
8.83928
8.79796
8.74704
8.69161
8.63276
8.56874
8.49978
8.42646
8.35019
8.27082
8.18704
8.09976
8.00889
7.90974
7.8017
7.68488
7.55994
7.43147
7.30266
7.17005
7.03517
6.89733
6.75058
6.59591
6.4383
6.27777
6.11625
5.95551
1
1
1
1
1
1
1
1
1
1
1
1
1
1
1
1
1
1
1
1
1
1
1
1
1
1
1
1
1
1
1
1
1
1
1
1
1
1
1
1
1
1
1
1
1
1
1
1
1
1
1
1
1
1
1
1
1
1
1
1
1
1
0.999989
1.14935
6.44865
8.89131
8.8405
8.82329
8.7903
8.74459
8.69558
8.64523
8.58962
8.52737
8.45946
8.38675
8.30992
8.22892
8.14347
8.05559
7.96547
7.86888
7.76444
7.65172
7.53099
7.40586
7.2795
7.14934
7.01641
6.88068
6.73645
6.58538
6.43464
6.28328
6.13003
5.97297
1
1
1
1
1
1
1
1
1
1
1
1
1
1
1
1
1
1
1
1
1
1
1
1
1
1
1
1
1
1
1
1
1
1
1
1
1
1
1
1
1
1
1
1
1
1
1
1
1
1
1
1
1
1
1
1
1
1
1
1
1
1
0.999998
1.00157
3.53504
8.29091
8.79191
8.78188
8.75363
8.7069
8.6603
8.61172
8.55561
8.49385
8.4266
8.35468
8.27734
8.1945
8.10679
8.01746
7.92651
7.83106
7.72979
7.62134
7.5055
7.38468
7.26093
7.13245
7.00057
6.86523
6.7216
6.5749
6.4323
6.28925
6.14192
5.98792
1
1
1
1
1
1
1
1
1
1
1
1
1
1
1
1
1
1
1
1
1
1
1
1
1
1
1
1
1
1
1
1
1
1
1
1
1
1
1
1
1
1
1
1
1
1
1
1
1
1
1
1
1
1
1
1
1
1
1
1
1
1
1
0.999997
1.39783
7.043
8.90752
8.77396
8.70748
8.65646
8.61036
8.56507
8.51118
8.45151
8.38625
8.31605
8.24044
8.15832
8.07061
7.98067
7.88865
7.79342
7.69425
7.58981
7.47909
7.36312
7.24241
7.11557
6.98403
6.84757
6.70431
6.56374
6.42953
6.2937
6.15153
6.00171
1
1
1
1
1
1
1
1
1
1
1
1
1
1
1
1
1
1
1
1
1
1
1
1
1
1
1
1
1
1
1
1
1
1
1
1