/*--------------------------------*- C++ -*----------------------------------*\
  =========                 |
  \\      /  F ield         | OpenFOAM: The Open Source CFD Toolbox
   \\    /   O peration     | Website:  https://openfoam.org
    \\  /    A nd           | Version:  7
     \\/     M anipulation  |
\*---------------------------------------------------------------------------*/
FoamFile
{
    version     2.0;
    format      ascii;
    class       volScalarField;
    location    "1.6";
    object      rho;
}
// * * * * * * * * * * * * * * * * * * * * * * * * * * * * * * * * * * * * * //

dimensions      [1 -3 0 0 0 0 0];

internalField   nonuniform List<scalar> 
64512
(
1.40001
1.40001
1.40001
1.40001
1.40001
1.40001
1.40001
1.40001
1.40001
1.40001
1.40001
1.40001
1.40001
1.40001
1.40001
1.40001
1.40001
1.40001
1.40001
1.40001
1.40001
1.40001
1.40001
1.40001
1.40001
1.40001
1.40001
1.40001
1.40001
1.40001
1.40001
1.40001
1.40001
1.40001
1.40001
1.40001
1.40001
1.40001
1.40001
1.40001
1.40001
1.40001
1.40001
1.40001
1.40001
1.40001
1.40001
1.40001
1.40001
1.40001
1.40001
3.92808
5.45366
5.46931
5.48698
5.51076
5.53485
5.55786
5.57845
5.5965
5.61291
5.62829
5.64212
5.65371
5.66381
5.67632
5.69405
5.71433
5.73468
5.75514
5.77402
5.79245
5.81104
5.82729
5.84058
5.8501
5.85607
5.86003
5.86346
5.86811
5.87544
5.8854
5.89685
5.90901
5.92054
5.92922
5.93383
5.93515
5.9346
5.9325
5.92658
5.91136
5.88061
5.8406
5.80897
5.79671
1.40001
1.40001
1.40001
1.40001
1.40001
1.40001
1.40001
1.40001
1.40001
1.40001
1.40001
1.40001
1.40001
1.40001
1.40001
1.40001
1.40001
1.40001
1.40001
1.40001
1.40001
1.40001
1.40001
1.40001
1.40001
1.40001
1.40001
1.40001
1.40001
1.40001
1.40001
1.40001
1.40001
1.40001
1.40001
1.40001
1.40001
1.40001
1.40001
1.40001
1.40001
1.40001
1.40001
1.40001
1.40001
1.40001
1.40001
1.40001
1.40001
1.40001
1.40001
3.90776
5.44527
5.47004
5.48692
5.51073
5.53482
5.55773
5.57833
5.59645
5.61273
5.62781
5.64129
5.65263
5.66262
5.67519
5.69293
5.71329
5.73388
5.75468
5.77382
5.79235
5.81066
5.82647
5.83938
5.84906
5.8557
5.86026
5.86391
5.86839
5.87539
5.88519
5.89672
5.90885
5.91995
5.92793
5.93201
5.93322
5.93298
5.93129
5.92547
5.91003
5.87907
5.83923
5.80817
5.79627
1.40001
1.40001
1.40001
1.40001
1.40001
1.40001
1.40001
1.40001
1.40001
1.40001
1.40001
1.40001
1.40001
1.40001
1.40001
1.40001
1.40001
1.40001
1.40001
1.40001
1.40001
1.40001
1.40001
1.40001
1.40001
1.40001
1.40001
1.40001
1.40001
1.40001
1.40001
1.40001
1.40001
1.40001
1.40001
1.40001
1.40001
1.40001
1.40001
1.40001
1.40001
1.40001
1.40001
1.40001
1.40001
1.40001
1.40001
1.40001
1.40001
1.40001
1.40001
3.86932
5.43874
5.46853
5.48516
5.50913
5.5333
5.55646
5.57739
5.59582
5.61216
5.62679
5.63962
5.65044
5.66021
5.67295
5.6909
5.71144
5.73236
5.75366
5.7732
5.79191
5.80973
5.82481
5.83709
5.84697
5.85449
5.85997
5.86402
5.86842
5.87524
5.88505
5.89666
5.90854
5.91885
5.92576
5.92915
5.93041
5.93065
5.92937
5.9235
5.90749
5.87613
5.83666
5.80667
5.79563
1.40001
1.40001
1.40001
1.40001
1.40001
1.40001
1.40001
1.40001
1.40001
1.40001
1.40001
1.40001
1.40001
1.40001
1.40001
1.40001
1.40001
1.40001
1.40001
1.40001
1.40001
1.40001
1.40001
1.40001
1.40001
1.40001
1.40001
1.40001
1.40001
1.40001
1.40001
1.40001
1.40001
1.40001
1.40001
1.40001
1.40001
1.40001
1.40001
1.40001
1.40001
1.40001
1.40001
1.40001
1.40001
1.40001
1.40001
1.40001
1.40001
1.40001
1.40001
3.81279
5.43149
5.46605
5.48221
5.50612
5.53027
5.55379
5.57535
5.59437
5.61094
5.62527
5.63745
5.64763
5.657
5.66988
5.68808
5.70892
5.73024
5.75202
5.77194
5.79088
5.80824
5.82257
5.83419
5.8442
5.85253
5.85896
5.86356
5.86811
5.875
5.8849
5.89641
5.90765
5.91676
5.9224
5.92522
5.9268
5.92766
5.9267
5.92058
5.9037
5.87181
5.8328
5.80408
5.79403
1.40001
1.40001
1.40001
1.40001
1.40001
1.40001
1.40001
1.40001
1.40001
1.40001
1.40001
1.40001
1.40001
1.40001
1.40001
1.40001
1.40001
1.40001
1.40001
1.40001
1.40001
1.40001
1.40001
1.40001
1.40001
1.40001
1.40001
1.40001
1.40001
1.40001
1.40001
1.40001
1.40001
1.40001
1.40001
1.40001
1.40001
1.40001
1.40001
1.40001
1.40001
1.40001
1.40001
1.40001
1.40001
1.40001
1.40001
1.40001
1.40001
1.40001
1.40001
3.73703
5.42411
5.46257
5.47825
5.50181
5.52563
5.54932
5.57166
5.59165
5.60897
5.62343
5.63522
5.64486
5.65391
5.66693
5.68538
5.70653
5.72817
5.75024
5.77033
5.78939
5.80633
5.81991
5.83078
5.8407
5.84957
5.85674
5.8619
5.86691
5.87419
5.88437
5.89568
5.90601
5.91374
5.91818
5.92066
5.92276
5.92427
5.92348
5.91692
5.89903
5.86655
5.82797
5.80043
5.79128
1.40001
1.40001
1.40001
1.40001
1.40001
1.40001
1.40001
1.40001
1.40001
1.40001
1.40001
1.40001
1.40001
1.40001
1.40001
1.40001
1.40001
1.40001
1.40001
1.40001
1.40001
1.40001
1.40001
1.40001
1.40001
1.40001
1.40001
1.40001
1.40001
1.40001
1.40001
1.40001
1.40001
1.40001
1.40001
1.40001
1.40001
1.40001
1.40001
1.40001
1.40001
1.40001
1.40001
1.40001
1.40001
1.40001
1.40001
1.40001
1.40001
1.40001
1.40001
3.64146
5.41474
5.45817
5.47342
5.49641
5.51984
5.54361
5.56661
5.58779
5.60639
5.62158
5.63349
5.64269
5.65141
5.66425
5.68269
5.70387
5.72566
5.74778
5.76791
5.78717
5.80391
5.81692
5.82709
5.83671
5.84581
5.85347
5.85912
5.86461
5.87243
5.88299
5.89409
5.90351
5.91002
5.9135
5.9158
5.9184
5.92035
5.91952
5.91246
5.8937
5.86075
5.82241
5.79558
5.78701
1.40001
1.40001
1.40001
1.40001
1.40001
1.40001
1.40001
1.40001
1.40001
1.40001
1.40001
1.40001
1.40001
1.40001
1.40001
1.40001
1.40001
1.40001
1.40001
1.40001
1.40001
1.40001
1.40001
1.40001
1.40001
1.40001
1.40001
1.40001
1.40001
1.40001
1.40001
1.40001
1.40001
1.40001
1.40001
1.40001
1.40001
1.40001
1.40001
1.40001
1.40001
1.40001
1.40001
1.40001
1.40001
1.40001
1.40001
1.40001
1.40001
1.40001
1.40001
3.52631
5.40063
5.45354
5.46862
5.49081
5.51379
5.53746
5.56084
5.58312
5.60313
5.61942
5.63182
5.64079
5.64934
5.66195
5.68036
5.70151
5.72335
5.74527
5.76528
5.7847
5.80138
5.81386
5.82326
5.8323
5.84127
5.84914
5.85513
5.86103
5.86925
5.88009
5.89108
5.89991
5.90568
5.90862
5.91076
5.91352
5.91554
5.91451
5.90712
5.88792
5.85472
5.81637
5.78963
5.78116
1.40001
1.40001
1.40001
1.40001
1.40001
1.40001
1.40001
1.40001
1.40001
1.40001
1.40001
1.40001
1.40001
1.40001
1.40001
1.40001
1.40001
1.40001
1.40001
1.40001
1.40001
1.40001
1.40001
1.40001
1.40001
1.40001
1.40001
1.40001
1.40001
1.40001
1.40001
1.40001
1.40001
1.40001
1.40001
1.40001
1.40001
1.40001
1.40001
1.40001
1.40001
1.40001
1.40001
1.40001
1.40001
1.40001
1.40001
1.40001
1.40001
1.40001
1.40001
3.39155
5.38089
5.44981
5.46462
5.48561
5.50794
5.53112
5.55445
5.5775
5.59889
5.61658
5.62992
5.63901
5.64766
5.66007
5.67856
5.69978
5.72157
5.74297
5.76255
5.78185
5.79835
5.81024
5.8188
5.82711
5.83577
5.84378
5.85013
5.85637
5.86469
5.87552
5.88651
5.89528
5.90097
5.90381
5.90569
5.90803
5.90959
5.90826
5.90082
5.8817
5.8485
5.8099
5.78263
5.77381
1.40001
1.40001
1.40001
1.40001
1.40001
1.40001
1.40001
1.40001
1.40001
1.40001
1.40001
1.40001
1.40001
1.40001
1.40001
1.40001
1.40001
1.40001
1.40001
1.40001
1.40001
1.40001
1.40001
1.40001
1.40001
1.40001
1.40001
1.40001
1.40001
1.40001
1.40001
1.40001
1.40001
1.40001
1.40001
1.40001
1.40001
1.40001
1.40001
1.40001
1.40001
1.40001
1.40001
1.40001
1.40001
1.40001
1.40001
1.40001
1.40001
1.40001
1.40001
3.23822
5.35336
5.4486
5.46231
5.4813
5.50255
5.52501
5.54788
5.57126
5.59369
5.61288
5.62746
5.63711
5.64606
5.6586
5.67737
5.69883
5.72044
5.74096
5.75969
5.7784
5.79451
5.80571
5.81344
5.82102
5.82936
5.83751
5.84425
5.85074
5.8589
5.86943
5.88048
5.88966
5.89586
5.89892
5.90039
5.90175
5.90241
5.9007
5.89345
5.87483
5.84184
5.80285
5.77463
5.76515
1.40001
1.40001
1.40001
1.40001
1.40001
1.40001
1.40001
1.40001
1.40001
1.40001
1.40001
1.40001
1.40001
1.40001
1.40001
1.40001
1.40001
1.40001
1.40001
1.40001
1.40001
1.40001
1.40001
1.40001
1.40001
1.40001
1.40001
1.40001
1.40001
1.40001
1.40001
1.40001
1.40001
1.40001
1.40001
1.40001
1.40001
1.40001
1.40001
1.40001
1.40001
1.40001
1.40001
1.40001
1.40001
1.40001
1.40001
1.40001
1.40001
1.40001
1.40001
3.06713
5.31508
5.45205
5.46323
5.47945
5.49807
5.51891
5.54084
5.56424
5.58763
5.60861
5.62463
5.63526
5.64439
5.65709
5.67616
5.69799
5.71956
5.73906
5.75683
5.77451
5.78984
5.8001
5.80694
5.81387
5.82189
5.83018
5.83731
5.84406
5.85201
5.86217
5.87332
5.88314
5.89018
5.89362
5.89455
5.89469
5.89425
5.89208
5.88507
5.86711
5.83439
5.795
5.76578
5.75564
1.40001
1.40001
1.40001
1.40001
1.40001
1.40001
1.40001
1.40001
1.40001
1.40001
1.40001
1.40001
1.40001
1.40001
1.40001
1.40001
1.40001
1.40001
1.40001
1.40001
1.40001
1.40001
1.40001
1.40001
1.40001
1.40001
1.40001
1.40001
1.40001
1.40001
1.40001
1.40001
1.40001
1.40001
1.40001
1.40001
1.40001
1.40001
1.40001
1.40001
1.40001
1.40001
1.40001
1.40001
1.40001
1.40001
1.40001
1.40001
1.40001
1.40001
1.40001
2.87938
5.26249
5.45895
5.46718
5.48019
5.49517
5.51332
5.53388
5.55688
5.58107
5.60383
5.62131
5.63272
5.64203
5.65489
5.67408
5.69634
5.7184
5.73711
5.75388
5.77034
5.78421
5.7932
5.79918
5.80567
5.8135
5.82187
5.82931
5.83634
5.84424
5.85411
5.86531
5.87567
5.88346
5.88716
5.88758
5.88664
5.88523
5.88258
5.8757
5.85826
5.82578
5.78617
5.75629
5.74582
1.40001
1.40001
1.40001
1.40001
1.40001
1.40001
1.40001
1.40001
1.40001
1.40001
1.40001
1.40001
1.40001
1.40001
1.40001
1.40001
1.40001
1.40001
1.40001
1.40001
1.40001
1.40001
1.40001
1.40001
1.40001
1.40001
1.40001
1.40001
1.40001
1.40001
1.40001
1.40001
1.40001
1.40001
1.40001
1.40001
1.40001
1.40001
1.40001
1.40001
1.40001
1.40001
1.40001
1.40001
1.40001
1.40001
1.40001
1.40001
1.40001
1.40001
1.40001
2.67799
5.19486
5.46686
5.47103
5.48147
5.4927
5.50744
5.5263
5.54894
5.57424
5.59872
5.61783
5.63018
5.63965
5.65207
5.67056
5.69311
5.71577
5.73436
5.75036
5.76567
5.7777
5.78531
5.79061
5.7969
5.8046
5.81289
5.82039
5.82762
5.83558
5.84527
5.85641
5.867
5.87529
5.87912
5.87913
5.8776
5.87565
5.87272
5.86573
5.84827
5.81574
5.77602
5.746
5.73565
1.40001
1.40001
1.40001
1.40001
1.40001
1.40001
1.40001
1.40001
1.40001
1.40001
1.40001
1.40001
1.40001
1.40001
1.40001
1.40001
1.40001
1.40001
1.40001
1.40001
1.40001
1.40001
1.40001
1.40001
1.40001
1.40001
1.40001
1.40001
1.40001
1.40001
1.40001
1.40001
1.40001
1.40001
1.40001
1.40001
1.40001
1.40001
1.40001
1.40001
1.40001
1.40001
1.40001
1.40001
1.40001
1.40001
1.40001
1.40001
1.40001
1.40001
1.40001
2.46562
5.10957
5.46989
5.47301
5.48397
5.49301
5.50451
5.52118
5.54306
5.56888
5.59458
5.6149
5.62802
5.6373
5.64859
5.66551
5.68782
5.71085
5.72979
5.74572
5.76007
5.77023
5.77649
5.78137
5.78763
5.7952
5.80326
5.81059
5.81789
5.82598
5.83563
5.84669
5.85723
5.86555
5.8693
5.86924
5.86767
5.86561
5.86248
5.85502
5.83693
5.80397
5.76426
5.73465
5.72494
1.40001
1.40001
1.40001
1.40001
1.40001
1.40001
1.40001
1.40001
1.40001
1.40001
1.40001
1.40001
1.40001
1.40001
1.40001
1.40001
1.40001
1.40001
1.40001
1.40001
1.40001
1.40001
1.40001
1.40001
1.40001
1.40001
1.40001
1.40001
1.40001
1.40001
1.40001
1.40001
1.40001
1.40001
1.40001
1.40001
1.40001
1.40001
1.40001
1.40001
1.40001
1.40001
1.40001
1.40001
1.40001
1.40001
1.40001
1.40001
1.40001
1.40001
1.40001
2.24968
5.00453
5.46846
5.47309
5.48687
5.49563
5.5054
5.51958
5.53971
5.56517
5.5911
5.61187
5.62553
5.6346
5.64465
5.65991
5.68108
5.70365
5.723
5.73914
5.7528
5.76158
5.76687
5.77169
5.77812
5.78562
5.79338
5.8003
5.80745
5.81551
5.82505
5.83595
5.84616
5.85406
5.85756
5.85773
5.85665
5.85489
5.85167
5.84354
5.82443
5.79082
5.75115
5.72224
5.71349
1.40001
1.40001
1.40001
1.40001
1.40001
1.40001
1.40001
1.40001
1.40001
1.40001
1.40001
1.40001
1.40001
1.40001
1.40001
1.40001
1.40001
1.40001
1.40001
1.40001
1.40001
1.40001
1.40001
1.40001
1.40001
1.40001
1.40001
1.40001
1.40001
1.40001
1.40001
1.40001
1.40001
1.40001
1.40001
1.40001
1.40001
1.40001
1.40001
1.40001
1.40001
1.40001
1.40001
1.40001
1.40001
1.40001
1.40001
1.40001
1.40001
1.40001
1.40001
2.04039
4.87741
5.46588
5.4725
5.491
5.50045
5.50939
5.52164
5.53967
5.56314
5.58799
5.6083
5.6219
5.63071
5.63987
5.65371
5.67337
5.6947
5.71416
5.73047
5.74365
5.75169
5.75631
5.76127
5.76801
5.77564
5.78323
5.78973
5.79652
5.80431
5.81353
5.82409
5.83374
5.84095
5.84419
5.84471
5.84433
5.84323
5.84004
5.83121
5.81106
5.7768
5.73704
5.7087
5.70086
1.40001
1.40001
1.40001
1.40001
1.40001
1.40001
1.40001
1.40001
1.40001
1.40001
1.40001
1.40001
1.40001
1.40001
1.40001
1.40001
1.40001
1.40001
1.40001
1.40001
1.40001
1.40001
1.40001
1.40001
1.40001
1.40001
1.40001
1.40001
1.40001
1.40001
1.40001
1.40001
1.40001
1.40001
1.40001
1.40001
1.40001
1.40001
1.40001
1.40001
1.40001
1.40001
1.40001
1.40001
1.40001
1.40001
1.40001
1.40001
1.40001
1.40001
1.40001
1.84484
4.72076
5.46041
5.46753
5.49044
5.50215
5.51231
5.52352
5.53979
5.56118
5.58417
5.60299
5.61558
5.62374
5.63225
5.64543
5.66403
5.68497
5.70456
5.72077
5.7335
5.74081
5.74457
5.74975
5.75699
5.76515
5.77289
5.77907
5.78528
5.7924
5.80096
5.81097
5.81997
5.82653
5.82959
5.8305
5.83082
5.8304
5.82731
5.8179
5.79689
5.76194
5.72177
5.69345
5.68611
1.40001
1.40001
1.40001
1.40001
1.40001
1.40001
1.40001
1.40001
1.40001
1.40001
1.40001
1.40001
1.40001
1.40001
1.40001
1.40001
1.40001
1.40001
1.40001
1.40001
1.40001
1.40001
1.40001
1.40001
1.40001
1.40001
1.40001
1.40001
1.40001
1.40001
1.40001
1.40001
1.40001
1.40001
1.40001
1.40001
1.40001
1.40001
1.40001
1.40001
1.40001
1.40001
1.40001
1.40001
1.40001
1.40001
1.40001
1.40001
1.40001
1.40001
1.40001
1.67468
4.53122
5.44779
5.45883
5.48189
5.49587
5.51063
5.52465
5.54094
5.56046
5.58065
5.59703
5.60791
5.61495
5.62267
5.63503
5.65283
5.67353
5.69304
5.70901
5.72133
5.72792
5.73091
5.73637
5.74432
5.75346
5.76186
5.7681
5.77369
5.77986
5.78745
5.79672
5.80509
5.81115
5.81404
5.81517
5.81584
5.81573
5.81266
5.80303
5.78173
5.7464
5.70563
5.6767
5.66936
1.40001
1.40001
1.40001
1.40001
1.40001
1.40001
1.40001
1.40001
1.40001
1.40001
1.40001
1.40001
1.40001
1.40001
1.40001
1.40001
1.40001
1.40001
1.40001
1.40001
1.40001
1.40001
1.40001
1.40001
1.40001
1.40001
1.40001
1.40001
1.40001
1.40001
1.40001
1.40001
1.40001
1.40001
1.40001
1.40001
1.40001
1.40001
1.40001
1.40001
1.40001
1.40001
1.40001
1.40001
1.40001
1.40001
1.40001
1.40001
1.40001
1.40001
1.40001
1.51884
4.30233
5.4312
5.44634
5.46795
5.48503
5.50211
5.51793
5.53429
5.55266
5.57098
5.58572
5.59543
5.60172
5.60918
5.62158
5.63959
5.66078
5.68071
5.69674
5.70877
5.71483
5.7173
5.72275
5.73122
5.74118
5.75018
5.75631
5.76092
5.7659
5.77262
5.78137
5.78944
5.79526
5.79786
5.79869
5.79921
5.79909
5.79612
5.78675
5.76569
5.73013
5.68836
5.65806
5.65001
1.40001
1.40001
1.40001
1.40001
1.40001
1.40001
1.40001
1.40001
1.40001
1.40001
1.40001
1.40001
1.40001
1.40001
1.40001
1.40001
1.40001
1.40001
1.40001
1.40001
1.40001
1.40001
1.40001
1.40001
1.40001
1.40001
1.40001
1.40001
1.40001
1.40001
1.40001
1.40001
1.40001
1.40001
1.40001
1.40001
1.40001
1.40001
1.40001
1.40001
1.40001
1.40001
1.40001
1.40001
1.40001
1.40001
1.40001
1.40001
1.40001
1.40001
1.40001
1.40776
4.01196
5.39269
5.42136
5.4461
5.46893
5.4897
5.50893
5.5273
5.54571
5.56277
5.57593
5.5841
5.58919
5.59577
5.60764
5.62547
5.64705
5.66776
5.68443
5.69652
5.7019
5.70294
5.70706
5.71523
5.72582
5.73573
5.74235
5.74664
5.75099
5.75732
5.76569
5.77341
5.77884
5.78076
5.78066
5.78055
5.78021
5.77763
5.769
5.74856
5.71279
5.66968
5.63743
5.62819
1.40001
1.40001
1.40001
1.40001
1.40001
1.40001
1.40001
1.40001
1.40001
1.40001
1.40001
1.40001
1.40001
1.40001
1.40001
1.40001
1.40001
1.40001
1.40001
1.40001
1.40001
1.40001
1.40001
1.40001
1.40001
1.40001
1.40001
1.40001
1.40001
1.40001
1.40001
1.40001
1.40001
1.40001
1.40001
1.40001
1.40001
1.40001
1.40001
1.40001
1.40001
1.40001
1.40001
1.40001
1.40001
1.40001
1.40001
1.40001
1.40001
1.40001
1.40001
1.40007
3.65561
5.32716
5.39309
5.42333
5.45242
5.47636
5.49739
5.51636
5.53421
5.55012
5.56228
5.56939
5.57351
5.57956
5.5913
5.60939
5.63169
5.65351
5.67112
5.68367
5.68897
5.68902
5.6918
5.69927
5.71006
5.72042
5.72726
5.73138
5.73527
5.74115
5.7493
5.75669
5.76158
5.76256
5.76119
5.76014
5.75953
5.7575
5.74976
5.72988
5.69362
5.64876
5.61424
5.6035
1.40001
1.40001
1.40001
1.40001
1.40001
1.40001
1.40001
1.40001
1.40001
1.40001
1.40001
1.40001
1.40001
1.40001
1.40001
1.40001
1.40001
1.40001
1.40001
1.40001
1.40001
1.40001
1.40001
1.40001
1.40001
1.40001
1.40001
1.40001
1.40001
1.40001
1.40001
1.40001
1.40001
1.40001
1.40001
1.40001
1.40001
1.40001
1.40001
1.40001
1.40001
1.40001
1.40001
1.40001
1.40001
1.40001
1.40001
1.40001
1.40001
1.40001
1.40001
1.40001
3.26452
5.26175
5.37648
5.41036
5.44198
5.46678
5.48862
5.50766
5.52452
5.53911
5.55032
5.55636
5.55947
5.5649
5.57648
5.59451
5.61702
5.63954
5.65792
5.67098
5.67654
5.67609
5.67735
5.6834
5.69351
5.70375
5.71065
5.71475
5.71846
5.72409
5.73206
5.73909
5.74336
5.74298
5.73984
5.73747
5.73634
5.73482
5.72806
5.7088
5.67207
5.62553
5.58889
5.57678
1.40001
1.40001
1.40001
1.40001
1.40001
1.40001
1.40001
1.40001
1.40001
1.40001
1.40001
1.40001
1.40001
1.40001
1.40001
1.40001
1.40001
1.40001
1.40001
1.40001
1.40001
1.40001
1.40001
1.40001
1.40001
1.40001
1.40001
1.40001
1.40001
1.40001
1.40001
1.40001
1.40001
1.40001
1.40001
1.40001
1.40001
1.40001
1.40001
1.40001
1.40001
1.40001
1.40001
1.40001
1.40001
1.40001
1.40001
1.40001
1.40001
1.40001
1.40001
1.40001
2.85621
5.18054
5.37423
5.41212
5.44043
5.46271
5.48346
5.50185
5.51772
5.53098
5.54104
5.54574
5.54768
5.55231
5.5636
5.58099
5.60307
5.6258
5.64471
5.65833
5.66449
5.66428
5.66418
5.6683
5.67683
5.68626
5.69285
5.69692
5.70066
5.7062
5.71373
5.7201
5.72344
5.72129
5.71643
5.71265
5.71105
5.71001
5.70404
5.68511
5.64766
5.59931
5.56063
5.54707
1.40001
1.40001
1.40001
1.40001
1.40001
1.40001
1.40001
1.40001
1.40001
1.40001
1.40001
1.40001
1.40001
1.40001
1.40001
1.40001
1.40001
1.40001
1.40001
1.40001
1.40001
1.40001
1.40001
1.40001
1.40001
1.40001
1.40001
1.40001
1.40001
1.40001
1.40001
1.40001
1.40001
1.40001
1.40001
1.40001
1.40001
1.40001
1.40001
1.40001
1.40001
1.40001
1.40001
1.40001
1.40001
1.40001
1.40001
1.40001
1.40001
1.40001
1.40001
1.40001
2.45028
5.05328
5.39582
5.42416
5.44773
5.46648
5.48433
5.50058
5.51438
5.52564
5.53422
5.53801
5.53929
5.54319
5.55341
5.56951
5.59042
5.61262
5.63156
5.64545
5.65249
5.6533
5.65213
5.65424
5.66033
5.66825
5.67423
5.67817
5.68197
5.68723
5.69386
5.69907
5.70095
5.69718
5.69086
5.68567
5.68326
5.682
5.6762
5.65736
5.61943
5.56983
5.52974
5.51515
1.40001
1.40001
1.40001
1.40001
1.40001
1.40001
1.40001
1.40001
1.40001
1.40001
1.40001
1.40001
1.40001
1.40001
1.40001
1.40001
1.40001
1.40001
1.40001
1.40001
1.40001
1.40001
1.40001
1.40001
1.40001
1.40001
1.40001
1.40001
1.40001
1.40001
1.40001
1.40001
1.40001
1.40001
1.40001
1.40001
1.40001
1.40001
1.40001
1.40001
1.40001
1.40001
1.40001
1.40001
1.40001
1.40001
1.40001
1.40001
1.40001
1.40001
1.40001
1.40001
2.05942
4.87971
5.44691
5.44187
5.45432
5.46831
5.48404
5.49973
5.51308
5.5235
5.53109
5.53414
5.53493
5.538
5.54621
5.56011
5.57891
5.59966
5.61806
5.63198
5.64017
5.64221
5.64056
5.64089
5.64406
5.6499
5.65503
5.65869
5.66248
5.66718
5.67232
5.67575
5.67572
5.67038
5.6628
5.65636
5.65297
5.65102
5.64482
5.62561
5.587
5.53616
5.49477
5.47898
1.40001
1.40001
1.40001
1.40001
1.40001
1.40001
1.40001
1.40001
1.40001
1.40001
1.40001
1.40001
1.40001
1.40001
1.40001
1.40001
1.40001
1.40001
1.40001
1.40001
1.40001
1.40001
1.40001
1.40001
1.40001
1.40001
1.40001
1.40001
1.40001
1.40001
1.40001
1.40001
1.40001
1.40001
1.40001
1.40001
1.40001
1.40001
1.40001
1.40001
1.40001
1.40001
1.40001
1.40001
1.40001
1.40001
1.40001
1.40001
1.40001
1.40001
1.40001
1.40001
1.69826
4.6407
5.4958
5.45281
5.45724
5.46518
5.47678
5.49098
5.50527
5.51784
5.52765
5.53245
5.53411
5.53663
5.54248
5.55325
5.56881
5.58699
5.60408
5.61756
5.62651
5.62962
5.62835
5.62722
5.62776
5.6311
5.63502
5.63837
5.64198
5.64572
5.64885
5.65002
5.64748
5.64073
5.63202
5.62437
5.61941
5.61562
5.60783
5.58774
5.54873
5.49736
5.45536
5.43892
1.40001
1.40001
1.40001
1.40001
1.40001
1.40001
1.40001
1.40001
1.40001
1.40001
1.40001
1.40001
1.40001
1.40001
1.40001
1.40001
1.40001
1.40001
1.40001
1.40001
1.40001
1.40001
1.40001
1.40001
1.40001
1.40001
1.40001
1.40001
1.40001
1.40001
1.40001
1.40001
1.40001
1.40001
1.40001
1.40001
1.40001
1.40001
1.40001
1.40001
1.40001
1.40001
1.40001
1.40001
1.40001
1.40001
1.40001
1.40001
1.40001
1.40001
1.40001
1.40001
1.43922
4.27106
5.44602
5.42245
5.43946
5.45367
5.46777
5.48185
5.49668
5.51066
5.5213
5.52716
5.53019
5.53315
5.53776
5.54577
5.55812
5.5738
5.58968
5.60263
5.6115
5.61506
5.61454
5.61224
5.61071
5.61138
5.61372
5.61679
5.61997
5.62247
5.62344
5.62173
5.61659
5.60824
5.59833
5.58927
5.58225
5.57598
5.56607
5.54472
5.50473
5.45192
5.40844
5.39047
1.40001
1.40001
1.40001
1.40001
1.40001
1.40001
1.40001
1.40001
1.40001
1.40001
1.40001
1.40001
1.40001
1.40001
1.40001
1.40001
1.40001
1.40001
1.40001
1.40001
1.40001
1.40001
1.40001
1.40001
1.40001
1.40001
1.40001
1.40001
1.40001
1.40001
1.40001
1.40001
1.40001
1.40001
1.40001
1.40001
1.40001
1.40001
1.40001
1.40001
1.40001
1.40001
1.40001
1.40001
1.40001
1.40001
1.40001
1.40001
1.40001
1.40001
1.40001
1.40001
1.40054
3.76672
5.30849
5.37345
5.40533
5.42806
5.44689
5.4638
5.48109
5.49787
5.51292
5.52318
5.52836
5.53127
5.53371
5.53791
5.54613
5.55853
5.57268
5.58502
5.59377
5.59795
5.59849
5.59568
5.59225
5.59041
5.59096
5.59324
5.59567
5.59689
5.5956
5.59078
5.58286
5.57252
5.56113
5.5503
5.54048
5.53042
5.51667
5.49274
5.45134
5.39745
5.35291
5.33453
1.40001
1.40001
1.40001
1.40001
1.40001
1.40001
1.40001
1.40001
1.40001
1.40001
1.40001
1.40001
1.40001
1.40001
1.40001
1.40001
1.40001
1.40001
1.40001
1.40001
1.40001
1.40001
1.40001
1.40001
1.40001
1.40001
1.40001
1.40001
1.40001
1.40001
1.40001
1.40001
1.40001
1.40001
1.40001
1.40001
1.40001
1.40001
1.40001
1.40001
1.40001
1.40001
1.40001
1.40001
1.40001
1.40001
1.40001
1.40001
1.40001
1.40001
1.40001
1.40001
1.40001
3.28461
5.19235
5.32747
5.37355
5.40535
5.42856
5.44673
5.4629
5.47854
5.49402
5.50631
5.51438
5.5196
5.52304
5.52653
5.53282
5.543
5.55562
5.56673
5.57439
5.57816
5.57897
5.57592
5.57144
5.56743
5.56603
5.567
5.56832
5.56813
5.56477
5.55708
5.54623
5.5335
5.52002
5.5068
5.49334
5.47865
5.46079
5.43426
5.39069
5.33277
5.28321
5.26032
1.40001
1.40001
1.40001
1.40001
1.40001
1.40001
1.40001
1.40001
1.40001
1.40001
1.40001
1.40001
1.40001
1.40001
1.40001
1.40001
1.40001
1.40001
1.40001
1.40001
1.40001
1.40001
1.40001
1.40001
1.40001
1.40001
1.40001
1.40001
1.40001
1.40001
1.40001
1.40001
1.40001
1.40001
1.40001
1.40001
1.40001
1.40001
1.40001
1.40001
1.40001
1.40001
1.40001
1.40001
1.40001
1.40001
1.40001
1.40001
1.40001
1.40001
1.40001
1.40001
1.40001
2.78173
5.03792
5.31837
5.37004
5.4028
5.42058
5.43427
5.44734
5.4612
5.47528
5.48778
5.49752
5.50438
5.50869
5.51172
5.51613
5.52366
5.53388
5.54414
5.55198
5.55625
5.55711
5.55358
5.54818
5.54194
5.53842
5.53763
5.53751
5.53575
5.53037
5.5201
5.50633
5.49079
5.47469
5.45844
5.44047
5.41991
5.39553
5.36235
5.31278
5.249
5.19385
5.17083
1.40001
1.40001
1.40001
1.40001
1.40001
1.40001
1.40001
1.40001
1.40001
1.40001
1.40001
1.40001
1.40001
1.40001
1.40001
1.40001
1.40001
1.40001
1.40001
1.40001
1.40001
1.40001
1.40001
1.40001
1.40001
1.40001
1.40001
1.40001
1.40001
1.40001
1.40001
1.40001
1.40001
1.40001
1.40001
1.40001
1.40001
1.40001
1.40001
1.40001
1.40001
1.40001
1.40001
1.40001
1.40001
1.40001
1.40001
1.40001
1.40001
1.40001
1.40001
1.40001
1.40001
2.2491
4.87854
5.38261
5.38616
5.40176
5.41137
5.42162
5.4329
5.44517
5.45747
5.46904
5.47884
5.4863
5.4915
5.49492
5.49852
5.50445
5.51289
5.52217
5.52939
5.53316
5.53296
5.52885
5.52267
5.5146
5.50902
5.50606
5.50377
5.50007
5.49252
5.47983
5.46314
5.44447
5.42529
5.40476
5.38086
5.35362
5.32089
5.27962
5.22422
5.15124
5.08003
5.03689
1.40001
1.40001
1.40001
1.40001
1.40001
1.40001
1.40001
1.40001
1.40001
1.40001
1.40001
1.40001
1.40001
1.40001
1.40001
1.40001
1.40001
1.40001
1.40001
1.40001
1.40001
1.40001
1.40001
1.40001
1.40001
1.40001
1.40001
1.40001
1.40001
1.40001
1.40001
1.40001
1.40001
1.40001
1.40001
1.40001
1.40001
1.40001
1.40001
1.40001
1.40001
1.40001
1.40001
1.40001
1.40001
1.40001
1.40001
1.40001
1.40001
1.40001
1.40001
1.40001
1.40001
1.72996
4.68069
5.47582
5.41263
5.40778
5.41207
5.41974
5.42786
5.4362
5.44459
5.45302
5.46095
5.46759
5.47297
5.47675
5.47998
5.48486
5.49194
5.50023
5.50662
5.50975
5.50812
5.50312
5.49556
5.48632
5.47909
5.47345
5.46846
5.46216
5.45182
5.43655
5.41698
5.39503
5.37157
5.34524
5.31486
5.28001
5.23782
5.18315
5.10698
5.00591
4.90696
4.84733
1.40001
1.40001
1.40001
1.40001
1.40001
1.40001
1.40001
1.40001
1.40001
1.40001
1.40001
1.40001
1.40001
1.40001
1.40001
1.40001
1.40001
1.40001
1.40001
1.40001
1.40001
1.40001
1.40001
1.40001
1.40001
1.40001
1.40001
1.40001
1.40001
1.40001
1.40001
1.40001
1.40001
1.40001
1.40001
1.40001
1.40001
1.40001
1.40001
1.40001
1.40001
1.40001
1.40001
1.40001
1.40001
1.40001
1.40001
1.40001
1.40001
1.40001
1.40001
1.40001
1.40001
1.42508
4.1976
5.40758
5.38559
5.40337
5.41259
5.41997
5.42599
5.43137
5.43673
5.44193
5.44674
5.45092
5.45516
5.45879
5.46196
5.46635
5.47246
5.47945
5.48433
5.48609
5.48274
5.47645
5.46736
5.45762
5.44904
5.44048
5.43251
5.42301
5.40947
5.39116
5.36849
5.34256
5.31383
5.2811
5.24291
5.19817
5.14312
5.0709
4.97223
4.84192
4.69875
4.60531
1.40001
1.40001
1.40001
1.40001
1.40001
1.40001
1.40001
1.40001
1.40001
1.40001
1.40001
1.40001
1.40001
1.40001
1.40001
1.40001
1.40001
1.40001
1.40001
1.40001
1.40001
1.40001
1.40001
1.40001
1.40001
1.40001
1.40001
1.40001
1.40001
1.40001
1.40001
1.40001
1.40001
1.40001
1.40001
1.40001
1.40001
1.40001
1.40001
1.40001
1.40001
1.40001
1.40001
1.40001
1.40001
1.40001
1.40001
1.40001
1.40001
1.40001
1.40001
1.40001
1.40001
1.40009
3.53125
5.22373
5.34269
5.38304
5.40046
5.41023
5.41795
5.42441
5.43015
5.4341
5.43645
5.43778
5.43975
5.44222
5.44491
5.44891
5.45413
5.45952
5.46242
5.46217
5.45698
5.44896
5.43842
5.42824
5.41814
5.40725
5.39628
5.38329
5.36638
5.34469
5.3184
5.28784
5.25312
5.21314
5.16586
5.10954
5.03978
4.94823
4.81759
4.61691
4.24102
3.33938
1.40001
1.40001
1.40001
1.40001
1.40001
1.40001
1.40001
1.40001
1.40001
1.40001
1.40001
1.40001
1.40001
1.40001
1.40001
1.40001
1.40001
1.40001
1.40001
1.40001
1.40001
1.40001
1.40001
1.40001
1.40001
1.40001
1.40001
1.40001
1.40001
1.40001
1.40001
1.40001
1.40001
1.40001
1.40001
1.40001
1.40001
1.40001
1.40001
1.40001
1.40001
1.40001
1.40001
1.40001
1.40001
1.40001
1.40001
1.40001
1.40001
1.40001
1.40001
1.40001
1.40001
1.4
2.93114
5.08757
5.32265
5.36244
5.38684
5.39992
5.40609
5.41295
5.4198
5.42457
5.4269
5.42721
5.42759
5.42859
5.4303
5.43348
5.43751
5.44104
5.44245
5.43991
5.43242
5.42199
5.40978
5.39841
5.38632
5.37321
5.35931
5.34283
5.32247
5.29732
5.26719
5.23175
5.19067
5.14277
5.08553
5.0163
4.92932
4.81167
4.64071
4.36914
3.91395
2.92666
1.40001
1.40001
1.40001
1.40001
1.40001
1.40001
1.40001
1.40001
1.40001
1.40001
1.40001
1.40001
1.40001
1.40001
1.40001
1.40001
1.40001
1.40001
1.40001
1.40001
1.40001
1.40001
1.40001
1.40001
1.40001
1.40001
1.40001
1.40001
1.40001
1.40001
1.40001
1.40001
1.40001
1.40001
1.40001
1.40001
1.40001
1.40001
1.40001
1.40001
1.40001
1.40001
1.40001
1.40001
1.40001
1.40001
1.40001
1.40001
1.40001
1.40001
1.40001
1.40001
1.40001
1.4
2.30521
4.88337
5.3556
5.36016
5.37126
5.38159
5.39111
5.39988
5.40717
5.41231
5.41537
5.41627
5.41647
5.41664
5.41736
5.41921
5.42167
5.42329
5.42321
5.41877
5.40914
5.39595
5.38154
5.3681
5.3537
5.33842
5.32185
5.3023
5.27864
5.25003
5.21588
5.17544
5.12784
5.07169
5.00397
4.92139
4.81648
4.67788
4.47326
4.18995
3.62701
2.7745
1.40001
1.40001
1.40001
1.40001
1.40001
1.40001
1.40001
1.40001
1.40001
1.40001
1.40001
1.40001
1.40001
1.40001
1.40001
1.40001
1.40001
1.40001
1.40001
1.40001
1.40001
1.40001
1.40001
1.40001
1.40001
1.40001
1.40001
1.40001
1.40001
1.40001
1.40001
1.40001
1.40001
1.40001
1.40001
1.40001
1.40001
1.40001
1.40001
1.40001
1.40001
1.40001
1.40001
1.40001
1.40001
1.40001
1.40001
1.40001
1.40001
1.40001
1.40001
1.40001
1.40001
1.40001
1.71154
4.6545
5.44143
5.38017
5.36127
5.36616
5.3758
5.38362
5.39081
5.39658
5.40108
5.40356
5.40445
5.40437
5.40412
5.40448
5.40548
5.40586
5.40454
5.39881
5.38758
5.37196
5.35471
5.33817
5.32088
5.30308
5.28383
5.26147
5.23471
5.2027
5.16458
5.11937
5.06561
5.00168
4.92384
4.829
4.70812
4.55253
4.3314
4.00863
3.47021
2.79557
1.40001
1.40001
1.40001
1.40001
1.40001
1.40001
1.40001
1.40001
1.40001
1.40001
1.40001
1.40001
1.40001
1.40001
1.40001
1.40001
1.40001
1.40001
1.40001
1.40001
1.40001
1.40001
1.40001
1.40001
1.40001
1.40001
1.40001
1.40001
1.40001
1.40001
1.40001
1.40001
1.40001
1.40001
1.40001
1.40001
1.40001
1.40001
1.40001
1.40001
1.40001
1.40001
1.40001
1.40001
1.40001
1.40001
1.40001
1.40001
1.40001
1.40001
1.40001
1.40001
1.40001
1.40001
1.4201
4.08507
5.33507
5.33729
5.34733
5.35203
5.36088
5.36726
5.37394
5.38003
5.38554
5.3891
5.39062
5.39053
5.38911
5.38779
5.38744
5.38687
5.38482
5.37877
5.36682
5.34964
5.32949
5.30931
5.28871
5.26788
5.24579
5.22073
5.19101
5.15565
5.11365
5.06399
5.00468
4.93395
4.84749
4.74191
4.60885
4.43764
4.20804
3.87564
3.40437
2.87146
1.40001
1.40001
1.40001
1.40001
1.40001
1.40001
1.40001
1.40001
1.40001
1.40001
1.40001
1.40001
1.40001
1.40001
1.40001
1.40001
1.40001
1.40001
1.40001
1.40001
1.40001
1.40001
1.40001
1.40001
1.40001
1.40001
1.40001
1.40001
1.40001
1.40001
1.40001
1.40001
1.40001
1.40001
1.40001
1.40001
1.40001
1.40001
1.40001
1.40001
1.40001
1.40001
1.40001
1.40001
1.40001
1.40001
1.40001
1.40001
1.40001
1.40001
1.40001
1.40001
1.40001
1.40001
1.40003
3.33651
5.15122
5.30845
5.33649
5.34879
5.35091
5.35452
5.35947
5.3648
5.37012
5.37347
5.37482
5.37422
5.37163
5.36882
5.36723
5.36609
5.36374
5.3578
5.34593
5.32796
5.30547
5.28168
5.25758
5.23344
5.20838
5.18057
5.14791
5.10922
5.06338
5.00947
4.94533
4.86899
4.77607
4.66219
4.52046
4.34059
4.10701
3.7924
3.38917
2.94896
1.40001
1.40001
1.40001
1.40001
1.40001
1.40001
1.40001
1.40001
1.40001
1.40001
1.40001
1.40001
1.40001
1.40001
1.40001
1.40001
1.40001
1.40001
1.40001
1.40001
1.40001
1.40001
1.40001
1.40001
1.40001
1.40001
1.40001
1.40001
1.40001
1.40001
1.40001
1.40001
1.40001
1.40001
1.40001
1.40001
1.40001
1.40001