/*--------------------------------*- C++ -*----------------------------------*\
  =========                 |
  \\      /  F ield         | OpenFOAM: The Open Source CFD Toolbox
   \\    /   O peration     | Website:  https://openfoam.org
    \\  /    A nd           | Version:  7
     \\/     M anipulation  |
\*---------------------------------------------------------------------------*/
FoamFile
{
    version     2.0;
    format      ascii;
    class       volVectorField;
    location    "1.6";
    object      U;
}
// * * * * * * * * * * * * * * * * * * * * * * * * * * * * * * * * * * * * * //

dimensions      [0 1 -1 0 0 0 0];

internalField   nonuniform List<vector> 
64512
(
(3 1.31814e-16 0)
(3 8.16948e-17 0)
(3 3.34927e-16 0)
(3 -1.67921e-16 0)
(3 -5.92231e-16 0)
(3 -5.41388e-16 0)
(3 1.85392e-16 0)
(3 5.41517e-16 0)
(3 2.32017e-16 0)
(3 -1.43085e-16 0)
(3 1.99137e-17 0)
(3 6.26932e-16 0)
(3 5.7349e-16 0)
(3 2.6244e-16 0)
(3 1.9333e-16 0)
(3 1.86059e-17 0)
(3 3.74108e-16 0)
(3 4.32041e-16 0)
(3 3.36566e-16 0)
(3 2.52761e-16 0)
(3 1.41407e-16 0)
(3 -5.29188e-16 0)
(3 5.51897e-16 0)
(3 1.38764e-15 0)
(3 1.26076e-15 0)
(3 7.37555e-16 0)
(3 1.61416e-16 0)
(3 -1.45418e-16 0)
(3 -2.4603e-16 0)
(3 -4.79593e-16 0)
(3 -8.41773e-16 0)
(3 -4.77059e-16 0)
(3 -3.09354e-16 0)
(3 -7.10223e-16 0)
(3 -1.21453e-15 0)
(3 -1.17149e-15 0)
(3 -7.479e-16 0)
(3 -3.44085e-16 0)
(3 -1.92677e-16 0)
(3 5.58967e-16 0)
(3 1.19283e-15 0)
(3 2.817e-16 0)
(3 -5.70216e-16 0)
(3 -7.0098e-16 0)
(3 6.58638e-17 0)
(3 4.72326e-17 0)
(3 2.5777e-16 0)
(3 7.7002e-16 0)
(3 3.8966e-16 0)
(3 1.40923e-16 0)
(3 5.94142e-16 0)
(1.15543 0.00381284 0)
(0.753016 0.00257795 0)
(0.733638 0.00708032 0)
(0.716516 0.00782747 0)
(0.697574 0.00803267 0)
(0.678954 0.00747746 0)
(0.662277 0.00631988 0)
(0.648333 0.00537708 0)
(0.63621 0.00519766 0)
(0.624245 0.00557819 0)
(0.610998 0.00628231 0)
(0.595591 0.00728061 0)
(0.577822 0.00837022 0)
(0.55848 0.00898598 0)
(0.539431 0.00850737 0)
(0.522292 0.00740849 0)
(0.506745 0.00678071 0)
(0.492214 0.00707301 0)
(0.476935 0.00792551 0)
(0.460213 0.00856784 0)
(0.443317 0.0083626 0)
(0.426291 0.00785608 0)
(0.409151 0.00769508 0)
(0.39187 0.00772724 0)
(0.374963 0.00772241 0)
(0.358712 0.0075987 0)
(0.34315 0.00735466 0)
(0.328033 0.0072748 0)
(0.312706 0.00758424 0)
(0.296524 0.00813802 0)
(0.279418 0.0085503 0)
(0.261802 0.00869658 0)
(0.24398 0.00872577 0)
(0.225901 0.00872649 0)
(0.207766 0.00871418 0)
(0.189756 0.00876542 0)
(0.171785 0.00888534 0)
(0.153617 0.0091516 0)
(0.135183 0.00943376 0)
(0.116198 0.0097441 0)
(0.096272 0.0100239 0)
(0.0757729 0.0103105 0)
(0.054668 0.0106222 0)
(0.0329471 0.0108306 0)
(0.0109987 0.0110805 0)
(3 7.30107e-17 0)
(3 -3.0659e-16 0)
(3 -4.07383e-16 0)
(3 -6.67266e-16 0)
(3 -8.21631e-16 0)
(3 -4.72146e-16 0)
(3 -2.58187e-17 0)
(3 1.18729e-16 0)
(3 -8.25436e-17 0)
(3 -7.68176e-16 0)
(3 -8.85441e-16 0)
(3 -4.31053e-16 0)
(3 -2.28473e-16 0)
(3 2.39882e-16 0)
(3 4.44492e-16 0)
(3 5.33136e-16 0)
(3 8.02734e-16 0)
(3 9.39657e-16 0)
(3 8.06201e-16 0)
(3 6.50139e-16 0)
(3 7.12226e-16 0)
(3 1.90776e-16 0)
(3 5.34509e-16 0)
(3 1.53392e-15 0)
(3 1.44325e-15 0)
(3 5.84427e-16 0)
(3 -5.35796e-16 0)
(3 -3.68124e-16 0)
(3 1.26882e-16 0)
(3 1.2984e-17 0)
(3 -7.65345e-16 0)
(3 -4.25087e-16 0)
(3 -2.25653e-16 0)
(3 -7.36691e-16 0)
(3 -1.74631e-15 0)
(3 -1.57754e-15 0)
(3 -2.25462e-16 0)
(3 6.41361e-17 0)
(3 6.43865e-16 0)
(3 7.82648e-16 0)
(3 7.82746e-16 0)
(3 4.06351e-16 0)
(3 -6.04439e-16 0)
(3 -9.58365e-16 0)
(3 5.30226e-16 0)
(3 1.00337e-15 0)
(3 1.05896e-15 0)
(3 1.49275e-15 0)
(3 1.41369e-15 0)
(3 6.96974e-16 0)
(3 4.21399e-15 0)
(1.16177 0.0178275 0)
(0.749431 0.0119252 0)
(0.729424 0.0193278 0)
(0.71358 0.0221454 0)
(0.695523 0.0231139 0)
(0.677512 0.0220399 0)
(0.660743 0.0193427 0)
(0.645979 0.0165652 0)
(0.632846 0.0152888 0)
(0.620234 0.0158971 0)
(0.606752 0.0179531 0)
(0.591419 0.0210822 0)
(0.574 0.0244207 0)
(0.555232 0.0262505 0)
(0.536848 0.0250993 0)
(0.520025 0.0223968 0)
(0.50409 0.0207794 0)
(0.488882 0.0214363 0)
(0.473141 0.0236146 0)
(0.456182 0.0251531 0)
(0.439324 0.0243416 0)
(0.422545 0.0228273 0)
(0.405737 0.0224676 0)
(0.388859 0.022779 0)
(0.372289 0.0229071 0)
(0.35624 0.022578 0)
(0.340675 0.0219302 0)
(0.325325 0.0216713 0)
(0.309721 0.0225395 0)
(0.293365 0.0241216 0)
(0.276204 0.0252973 0)
(0.258686 0.0256828 0)
(0.24107 0.0258136 0)
(0.223223 0.0259855 0)
(0.205283 0.0261683 0)
(0.187452 0.0264642 0)
(0.16973 0.0268518 0)
(0.15187 0.0276022 0)
(0.133732 0.028382 0)
(0.115082 0.0292875 0)
(0.0955246 0.0301509 0)
(0.0753981 0.0310605 0)
(0.0545872 0.0320215 0)
(0.0330483 0.032624 0)
(0.0110817 0.0333961 0)
(3 -2.14265e-17 0)
(3 -9.3202e-17 0)
(3 -4.28168e-16 0)
(3 1.36068e-16 0)
(3 1.29115e-15 0)
(3 1.53109e-15 0)
(3 1.11299e-15 0)
(3 5.57503e-16 0)
(3 4.72725e-17 0)
(3 -5.49702e-16 0)
(3 -8.51393e-16 0)
(3 -6.9708e-16 0)
(3 -4.58729e-16 0)
(3 -1.17439e-16 0)
(3 1.66658e-16 0)
(3 9.37793e-16 0)
(3 1.07212e-15 0)
(3 1.09642e-15 0)
(3 1.58913e-15 0)
(3 2.01938e-15 0)
(3 1.7555e-15 0)
(3 1.36837e-15 0)
(3 1.0783e-15 0)
(3 7.49077e-16 0)
(3 8.29089e-16 0)
(3 6.21578e-16 0)
(3 1.61557e-16 0)
(3 -2.03386e-16 0)
(3 -1.37549e-16 0)
(3 -1.32626e-16 0)
(3 -3.18041e-16 0)
(3 -3.28433e-16 0)
(3 -5.80095e-16 0)
(3 -1.35555e-15 0)
(3 -1.68206e-15 0)
(3 -1.34719e-15 0)
(3 -1.531e-15 0)
(3 -1.46754e-15 0)
(3 1.78526e-16 0)
(3 2.71703e-16 0)
(3 4.36381e-16 0)
(3 2.42114e-16 0)
(3 3.30381e-16 0)
(3 7.24139e-16 0)
(3 1.09067e-15 0)
(3 1.74292e-15 0)
(3 2.28503e-15 0)
(3 2.53931e-15 0)
(3 2.24033e-15 0)
(3 1.81657e-15 0)
(3 -1.03264e-15 0)
(1.17938 0.0312281 0)
(0.749319 0.0219125 0)
(0.729067 0.0319524 0)
(0.713918 0.0363926 0)
(0.696493 0.0379069 0)
(0.67914 0.0365252 0)
(0.662511 0.032912 0)
(0.646949 0.0290276 0)
(0.632349 0.0268989 0)
(0.618282 0.0273795 0)
(0.603865 0.0302803 0)
(0.588238 0.0351284 0)
(0.571054 0.0403185 0)
(0.552876 0.0429705 0)
(0.535382 0.0412232 0)
(0.51924 0.0375183 0)
(0.50323 0.0355462 0)
(0.487499 0.0368838 0)
(0.471218 0.0403016 0)
(0.453727 0.0423876 0)
(0.436572 0.0407121 0)
(0.419741 0.0380161 0)
(0.402985 0.0372774 0)
(0.38633 0.0377728 0)
(0.369987 0.0380821 0)
(0.354118 0.0377282 0)
(0.33863 0.0368274 0)
(0.323148 0.0366109 0)
(0.307257 0.0379917 0)
(0.290559 0.0404472 0)
(0.273021 0.0421417 0)
(0.255242 0.0425665 0)
(0.237519 0.0426698 0)
(0.219682 0.0429515 0)
(0.201781 0.043279 0)
(0.184009 0.043757 0)
(0.166433 0.0443487 0)
(0.148894 0.0455685 0)
(0.131023 0.0468534 0)
(0.112799 0.0483772 0)
(0.0937534 0.0498783 0)
(0.0741516 0.0514332 0)
(0.0538212 0.0530433 0)
(0.0327038 0.0540429 0)
(0.0110522 0.0552985 0)
(3 -6.19412e-17 0)
(3 1.93599e-16 0)
(3 5.0642e-16 0)
(3 8.74213e-16 0)
(3 1.75895e-15 0)
(3 1.75944e-15 0)
(3 1.67371e-15 0)
(3 1.61548e-15 0)
(3 9.70135e-16 0)
(3 3.93191e-16 0)
(3 2.39375e-16 0)
(3 3.29439e-16 0)
(3 4.3061e-16 0)
(3 -1.72837e-16 0)
(3 7.27733e-17 0)
(3 3.58092e-16 0)
(3 9.56674e-16 0)
(3 1.05774e-15 0)
(3 1.31809e-15 0)
(3 1.83069e-15 0)
(3 1.74298e-15 0)
(3 2.04153e-15 0)
(3 1.83145e-15 0)
(3 1.56347e-15 0)
(3 1.0446e-15 0)
(3 9.40076e-16 0)
(3 7.8282e-16 0)
(3 -1.92137e-16 0)
(3 -1.3505e-15 0)
(3 -1.89766e-15 0)
(3 -1.50312e-15 0)
(3 -1.36537e-15 0)
(3 -1.08359e-15 0)
(3 -1.13053e-15 0)
(3 -1.56587e-15 0)
(3 -1.5926e-15 0)
(3 -2.05415e-15 0)
(3 -1.76482e-15 0)
(3 -5.28385e-16 0)
(3 1.06521e-15 0)
(3 1.78051e-15 0)
(3 1.6157e-15 0)
(3 1.709e-15 0)
(3 1.49956e-15 0)
(3 1.30413e-15 0)
(3 1.95628e-15 0)
(3 2.29867e-15 0)
(3 2.5355e-15 0)
(3 1.56736e-15 0)
(3 8.01504e-16 0)
(3 -2.90594e-15 0)
(1.20567 0.0446952 0)
(0.749926 0.0322352 0)
(0.729697 0.0437986 0)
(0.715519 0.0497138 0)
(0.698821 0.0517327 0)
(0.682229 0.0503355 0)
(0.665938 0.0465039 0)
(0.650056 0.0421582 0)
(0.634513 0.0394777 0)
(0.619209 0.0397767 0)
(0.603767 0.0432544 0)
(0.58771 0.0494082 0)
(0.570686 0.0559152 0)
(0.553078 0.0588625 0)
(0.536509 0.0565245 0)
(0.521007 0.0523495 0)
(0.505001 0.050584 0)
(0.488998 0.0529007 0)
(0.472403 0.0575503 0)
(0.454489 0.0600163 0)
(0.437043 0.0574631 0)
(0.420027 0.0535808 0)
(0.403106 0.0523196 0)
(0.386458 0.0528489 0)
(0.370139 0.0533002 0)
(0.354263 0.0530333 0)
(0.338704 0.0521257 0)
(0.323006 0.052038 0)
(0.306799 0.054043 0)
(0.289707 0.0572885 0)
(0.271659 0.0593758 0)
(0.253391 0.0597336 0)
(0.23527 0.059755 0)
(0.217134 0.0601065 0)
(0.199003 0.0605335 0)
(0.181094 0.0611164 0)
(0.163495 0.0618024 0)
(0.146076 0.0633757 0)
(0.128274 0.0650793 0)
(0.110288 0.0671277 0)
(0.0916406 0.0692262 0)
(0.0725249 0.0713876 0)
(0.0527352 0.073623 0)
(0.0321548 0.0750217 0)
(0.0109597 0.07674 0)
(3 1.90601e-17 0)
(3 -4.10951e-17 0)
(3 9.48239e-17 0)
(3 5.81902e-16 0)
(3 7.02215e-16 0)
(3 4.42613e-16 0)
(3 4.76633e-16 0)
(3 6.40465e-16 0)
(3 6.38305e-16 0)
(3 5.90955e-16 0)
(3 8.46304e-16 0)
(3 2.97024e-16 0)
(3 -1.40631e-17 0)
(3 -7.27329e-18 0)
(3 7.96283e-17 0)
(3 -2.91804e-16 0)
(3 -3.71662e-16 0)
(3 -4.5877e-16 0)
(3 -8.72186e-17 0)
(3 1.52016e-16 0)
(3 6.90584e-16 0)
(3 1.15594e-15 0)
(3 1.34725e-15 0)
(3 1.24225e-15 0)
(3 8.88743e-16 0)
(3 -2.65348e-18 0)
(3 -6.93192e-16 0)
(3 -1.26199e-15 0)
(3 -1.96744e-15 0)
(3 -2.07618e-15 0)
(3 -1.70779e-15 0)
(3 -1.01337e-15 0)
(3 -1.18896e-16 0)
(3 5.54547e-17 0)
(3 3.49125e-17 0)
(3 -9.77084e-16 0)
(3 -4.05113e-16 0)
(3 5.0612e-16 0)
(3 7.30795e-16 0)
(3 9.79789e-16 0)
(3 1.45264e-15 0)
(3 1.97387e-15 0)
(3 8.84556e-16 0)
(3 6.98118e-16 0)
(3 1.15838e-15 0)
(3 1.95587e-15 0)
(3 1.99195e-15 0)
(3 1.662e-15 0)
(3 1.55481e-15 0)
(3 3.42361e-16 0)
(3 1.31548e-15 0)
(1.24226 0.0582436 0)
(0.75165 0.0424182 0)
(0.730226 0.055346 0)
(0.716153 0.062744 0)
(0.69946 0.065318 0)
(0.683109 0.0641108 0)
(0.667089 0.0603957 0)
(0.651343 0.0559037 0)
(0.635598 0.0528054 0)
(0.619738 0.0528322 0)
(0.60366 0.0565907 0)
(0.587297 0.0636891 0)
(0.57034 0.0710259 0)
(0.553126 0.0738777 0)
(0.537178 0.0711575 0)
(0.521879 0.0671205 0)
(0.505664 0.0660337 0)
(0.489385 0.0694762 0)
(0.472588 0.0751676 0)
(0.454523 0.0776996 0)
(0.437239 0.0742412 0)
(0.420563 0.0692367 0)
(0.404 0.067368 0)
(0.387822 0.0678239 0)
(0.371861 0.0683937 0)
(0.356152 0.0683486 0)
(0.340591 0.0676994 0)
(0.324754 0.0680144 0)
(0.308342 0.070671 0)
(0.290978 0.0746181 0)
(0.27249 0.0769748 0)
(0.253714 0.0771669 0)
(0.235086 0.0770792 0)
(0.21649 0.0775366 0)
(0.197974 0.07812 0)
(0.179789 0.0788213 0)
(0.16199 0.0795325 0)
(0.144424 0.0813038 0)
(0.126443 0.0832789 0)
(0.108388 0.0856899 0)
(0.0898682 0.0882739 0)
(0.0710157 0.0909506 0)
(0.0516374 0.0937462 0)
(0.0315426 0.0954968 0)
(0.0108377 0.0976168 0)
(3 6.18341e-17 0)
(3 3.22006e-18 0)
(3 1.56167e-16 0)
(3 2.86273e-16 0)
(3 -1.5194e-16 0)
(3 -7.26931e-16 0)
(3 -8.24769e-16 0)
(3 -7.15094e-16 0)
(3 -4.54348e-16 0)
(3 -2.50414e-16 0)
(3 -1.07253e-16 0)
(3 -2.38181e-16 0)
(3 -8.30593e-17 0)
(3 -7.76119e-18 0)
(3 -2.94164e-16 0)
(3 -8.67194e-16 0)
(3 -1.62862e-15 0)
(3 -1.62702e-15 0)
(3 -1.10772e-15 0)
(3 -7.1529e-16 0)
(3 -2.36888e-16 0)
(3 1.48951e-16 0)
(3 3.43847e-16 0)
(3 1.89639e-16 0)
(3 1.90961e-16 0)
(3 -4.11014e-16 0)
(3 -1.75208e-15 0)
(3 -2.0668e-15 0)
(3 -1.54222e-15 0)
(3 -1.17642e-15 0)
(3 -3.83492e-16 0)
(3 3.20562e-16 0)
(3 6.92052e-16 0)
(3 7.9059e-16 0)
(3 8.4142e-16 0)
(3 8.73187e-16 0)
(3 1.68004e-15 0)
(3 1.72751e-15 0)
(3 8.09594e-16 0)
(3 2.3113e-16 0)
(3 7.84881e-17 0)
(3 -2.0288e-16 0)
(3 7.72574e-17 0)
(3 1.80539e-16 0)
(3 5.66595e-16 0)
(3 8.94647e-16 0)
(3 1.96107e-15 0)
(3 1.81281e-15 0)
(3 1.25429e-15 0)
(3 1.14514e-15 0)
(3 -1.77682e-15 0)
(1.29052 0.0715372 0)
(0.754325 0.0526602 0)
(0.730373 0.0675432 0)
(0.715543 0.0762176 0)
(0.698569 0.0789328 0)
(0.68262 0.0775092 0)
(0.667405 0.073749 0)
(0.652478 0.0692527 0)
(0.637088 0.0661721 0)
(0.620935 0.0662748 0)
(0.604087 0.0704831 0)
(0.586953 0.0783746 0)
(0.56948 0.0860043 0)
(0.552266 0.0883206 0)
(0.53661 0.0853174 0)
(0.521342 0.0817731 0)
(0.505145 0.0816332 0)
(0.489077 0.0862559 0)
(0.472636 0.092723 0)
(0.455043 0.0949686 0)
(0.438528 0.0905742 0)
(0.422625 0.0845481 0)
(0.406679 0.0820463 0)
(0.391072 0.0823696 0)
(0.375448 0.0830755 0)
(0.359749 0.0834233 0)
(0.343938 0.0833318 0)
(0.327753 0.0843409 0)
(0.311031 0.0878166 0)
(0.293382 0.0924483 0)
(0.274517 0.0949523 0)
(0.255312 0.0948623 0)
(0.236213 0.0946333 0)
(0.217164 0.0952447 0)
(0.198262 0.0960831 0)
(0.179783 0.0969775 0)
(0.161726 0.0977031 0)
(0.143871 0.0995366 0)
(0.125593 0.101626 0)
(0.107262 0.104235 0)
(0.0886321 0.107156 0)
(0.0698165 0.110235 0)
(0.0506734 0.113521 0)
(0.030934 0.115579 0)
(0.0106878 0.118065 0)
(3 -1.3963e-16 0)
(3 4.99119e-17 0)
(3 -2.69699e-18 0)
(3 -2.3721e-16 0)
(3 -5.89276e-16 0)
(3 -9.79763e-16 0)
(3 -1.31342e-15 0)
(3 -1.28887e-15 0)
(3 -9.68614e-16 0)
(3 -7.36403e-16 0)
(3 -9.41776e-16 0)
(3 -8.96772e-16 0)
(3 -9.2864e-16 0)
(3 -1.24134e-15 0)
(3 -1.8263e-15 0)
(3 -1.59882e-15 0)
(3 -1.58135e-15 0)
(3 -1.39747e-15 0)
(3 -1.38752e-15 0)
(3 -1.20594e-15 0)
(3 -1.00474e-15 0)
(3 1.7082e-16 0)
(3 2.15459e-16 0)
(3 9.41372e-17 0)
(3 -2.20473e-16 0)
(3 -4.18011e-16 0)
(3 -7.48691e-16 0)
(3 -8.10445e-16 0)
(3 -6.73897e-16 0)
(3 -4.07843e-16 0)
(3 9.716e-17 0)
(3 6.72226e-16 0)
(3 1.4827e-15 0)
(3 1.86307e-15 0)
(3 2.19675e-15 0)
(3 2.54586e-15 0)
(3 1.89831e-15 0)
(3 -7.28065e-17 0)
(3 -6.44704e-16 0)
(3 -9.87877e-16 0)
(3 -1.22383e-15 0)
(3 -1.49118e-15 0)
(3 -7.94131e-16 0)
(3 -1.36011e-16 0)
(3 1.60126e-16 0)
(3 9.2325e-16 0)
(3 1.51696e-15 0)
(3 1.5318e-15 0)
(3 1.57259e-15 0)
(3 6.58257e-16 0)
(3 -4.24163e-16 0)
(1.35141 0.0848179 0)
(0.757535 0.0635248 0)
(0.730097 0.0809707 0)
(0.714473 0.090376 0)
(0.697742 0.0924702 0)
(0.682727 0.0902602 0)
(0.668575 0.0862278 0)
(0.654347 0.0819677 0)
(0.639028 0.0794523 0)
(0.622327 0.0802913 0)
(0.604522 0.0853529 0)
(0.586493 0.0938573 0)
(0.568556 0.101025 0)
(0.551702 0.102235 0)
(0.536617 0.0988964 0)
(0.521539 0.0960007 0)
(0.505518 0.0969519 0)
(0.489792 0.102761 0)
(0.473712 0.109721 0)
(0.456674 0.111377 0)
(0.440987 0.106099 0)
(0.42577 0.0993019 0)
(0.410302 0.0963445 0)
(0.395077 0.0966488 0)
(0.379595 0.0976071 0)
(0.363698 0.0985114 0)
(0.347405 0.0991969 0)
(0.330674 0.101113 0)
(0.31355 0.105541 0)
(0.295639 0.11084 0)
(0.276555 0.113371 0)
(0.257179 0.11287 0)
(0.237867 0.112441 0)
(0.218587 0.11323 0)
(0.199459 0.11441 0)
(0.180757 0.115586 0)
(0.16245 0.116353 0)
(0.144256 0.118161 0)
(0.125665 0.120219 0)
(0.106985 0.122875 0)
(0.088107 0.125995 0)
(0.0691516 0.129369 0)
(0.0500529 0.133089 0)
(0.0304663 0.135414 0)
(0.0105499 0.138247 0)
(3 1.32277e-17 0)
(3 2.13658e-16 0)
(3 7.22774e-17 0)
(3 -1.40632e-16 0)
(3 -1.49325e-16 0)
(3 -2.48862e-16 0)
(3 -3.44714e-16 0)
(3 -4.14118e-16 0)
(3 -4.33323e-16 0)
(3 -8.66522e-16 0)
(3 -1.09357e-15 0)
(3 -1.16329e-15 0)
(3 -1.42598e-15 0)
(3 -1.67597e-15 0)
(3 -2.45334e-15 0)
(3 -2.66246e-15 0)
(3 -2.04617e-15 0)
(3 -1.18e-15 0)
(3 -1.29247e-15 0)
(3 -1.04155e-15 0)
(3 -8.18246e-16 0)
(3 -2.19222e-16 0)
(3 2.56826e-16 0)
(3 3.33337e-16 0)
(3 1.59164e-16 0)
(3 1.42391e-16 0)
(3 6.15172e-16 0)
(3 6.7128e-16 0)
(3 9.29451e-17 0)
(3 1.34836e-16 0)
(3 2.46032e-16 0)
(3 1.15769e-15 0)
(3 2.37538e-15 0)
(3 2.959e-15 0)
(3 3.01644e-15 0)
(3 1.82992e-15 0)
(3 -4.09668e-16 0)
(3 -8.17269e-16 0)
(3 4.88986e-16 0)
(3 4.5419e-16 0)
(3 -7.97889e-16 0)
(3 -7.93951e-16 0)
(3 -9.73673e-16 0)
(3 -1.16444e-15 0)
(3 -4.6432e-16 0)
(3 1.58386e-16 0)
(3 4.28828e-16 0)
(3 4.35728e-16 0)
(3 7.83185e-16 0)
(3 -4.63851e-16 0)
(3 -3.375e-15 0)
(1.42703 0.0984082 0)
(0.762202 0.0755911 0)
(0.729676 0.0955614 0)
(0.713574 0.104471 0)
(0.697836 0.105305 0)
(0.684053 0.102094 0)
(0.67074 0.0978707 0)
(0.656683 0.0942562 0)
(0.641005 0.0929019 0)
(0.623609 0.0950538 0)
(0.605042 0.101246 0)
(0.586592 0.109927 0)
(0.568866 0.115717 0)
(0.553016 0.115345 0)
(0.538528 0.111741 0)
(0.523348 0.109712 0)
(0.507099 0.111971 0)
(0.491319 0.11904 0)
(0.475248 0.126212 0)
(0.458723 0.126986 0)
(0.443926 0.120876 0)
(0.429376 0.113562 0)
(0.41434 0.110369 0)
(0.399407 0.110808 0)
(0.383972 0.112144 0)
(0.367794 0.113713 0)
(0.350943 0.11528 0)
(0.33358 0.118192 0)
(0.315986 0.123619 0)
(0.29781 0.129557 0)
(0.278619 0.132057 0)
(0.259301 0.131085 0)
(0.240026 0.130429 0)
(0.220727 0.13142 0)
(0.20148 0.133008 0)
(0.182532 0.134544 0)
(0.163879 0.135414 0)
(0.145244 0.137183 0)
(0.12632 0.13912 0)
(0.107281 0.141704 0)
(0.0881131 0.144912 0)
(0.0689299 0.148488 0)
(0.0497447 0.152599 0)
(0.0301397 0.155168 0)
(0.0104254 0.158362 0)
(3 -5.9723e-17 0)
(3 -1.42665e-16 0)
(3 1.21538e-16 0)
(3 -3.36787e-17 0)
(3 3.82459e-16 0)
(3 1.53818e-15 0)
(3 1.53122e-15 0)
(3 1.21401e-15 0)
(3 8.25654e-16 0)
(3 5.8399e-16 0)
(3 7.26402e-17 0)
(3 -2.9613e-16 0)
(3 -6.2708e-16 0)
(3 -7.35828e-16 0)
(3 -7.10685e-16 0)
(3 -1.29297e-15 0)
(3 -1.35906e-15 0)
(3 -1.09117e-15 0)
(3 -4.62967e-16 0)
(3 -9.93003e-16 0)
(3 -4.67782e-16 0)
(3 -2.1491e-16 0)
(3 -3.1069e-16 0)
(3 4.76864e-18 0)
(3 -1.965e-17 0)
(3 3.57154e-16 0)
(3 8.60429e-16 0)
(3 8.66195e-16 0)
(3 6.44153e-16 0)
(3 7.15876e-16 0)
(3 7.57e-16 0)
(3 1.2525e-15 0)
(3 1.41581e-15 0)
(3 1.87666e-15 0)
(3 1.68112e-15 0)
(3 1.45135e-15 0)
(3 3.87179e-16 0)
(3 6.06586e-16 0)
(3 1.34793e-15 0)
(3 1.28433e-15 0)
(3 8.07017e-16 0)
(3 6.41745e-16 0)
(3 3.00585e-16 0)
(3 1.65917e-16 0)
(3 -4.99546e-16 0)
(3 -4.24991e-16 0)
(3 -4.27784e-16 0)
(3 -2.00949e-16 0)
(3 -4.53241e-16 0)
(3 -5.57327e-16 0)
(3 -1.58891e-15 0)
(1.51976 0.112048 0)
(0.769154 0.0890093 0)
(0.731154 0.111438 0)
(0.714954 0.118234 0)
(0.700152 0.117393 0)
(0.686685 0.113376 0)
(0.6731 0.109373 0)
(0.658395 0.106812 0)
(0.641879 0.106891 0)
(0.623699 0.110487 0)
(0.604875 0.117654 0)
(0.586885 0.125745 0)
(0.570374 0.129426 0)
(0.555958 0.127548 0)
(0.541582 0.12427 0)
(0.525756 0.123527 0)
(0.508657 0.127295 0)
(0.492358 0.135462 0)
(0.476166 0.142216 0)
(0.460533 0.141665 0)
(0.447133 0.134713 0)
(0.433446 0.127141 0)
(0.418822 0.124047 0)
(0.404006 0.124944 0)
(0.388387 0.12692 0)
(0.371759 0.129291 0)
(0.354261 0.131765 0)
(0.336208 0.135625 0)
(0.318093 0.141969 0)
(0.299643 0.14847 0)
(0.28042 0.150925 0)
(0.261323 0.149503 0)
(0.242276 0.148641 0)
(0.223129 0.149858 0)
(0.203844 0.151874 0)
(0.1846 0.153803 0)
(0.165474 0.15482 0)
(0.146305 0.156592 0)
(0.127035 0.158398 0)
(0.107682 0.160837 0)
(0.0882568 0.164037 0)
(0.0688536 0.167708 0)
(0.049547 0.172145 0)
(0.0298536 0.174915 0)
(0.0102889 0.178484 0)
(3 -5.41828e-17 0)
(3 -2.16723e-16 0)
(3 -4.55807e-17 0)
(3 4.18735e-16 0)
(3 6.57978e-16 0)
(3 1.6964e-15 0)
(3 2.91991e-15 0)
(3 3.21008e-15 0)
(3 2.69868e-15 0)
(3 2.73485e-15 0)
(3 1.93979e-15 0)
(3 1.29002e-15 0)
(3 3.81689e-16 0)
(3 -3.01849e-16 0)
(3 4.66866e-18 0)
(3 5.2423e-16 0)
(3 -4.49878e-16 0)
(3 -1.45572e-15 0)
(3 -1.07723e-15 0)
(3 -1.29018e-15 0)
(3 -1.36317e-15 0)
(3 -1.01153e-15 0)
(3 -1.17003e-15 0)
(3 -1.17006e-15 0)
(3 -2.69865e-16 0)
(3 6.39216e-16 0)
(3 7.35034e-16 0)
(3 9.0049e-16 0)
(3 1.22329e-15 0)
(3 2.08582e-15 0)
(3 2.25733e-15 0)
(3 1.61408e-15 0)
(3 4.77781e-16 0)
(3 3.0734e-16 0)
(3 6.44863e-16 0)
(3 9.80898e-16 0)
(3 1.21609e-15 0)
(3 1.05093e-15 0)
(3 4.79103e-16 0)
(3 3.77e-16 0)
(3 9.7578e-16 0)
(3 1.68737e-15 0)
(3 1.48042e-15 0)
(3 8.62705e-16 0)
(3 2.64098e-16 0)
(3 -8.45098e-17 0)
(3 -2.18382e-16 0)
(3 -2.38716e-16 0)
(3 -4.98031e-16 0)
(3 -1.78654e-16 0)
(3 -6.85963e-16 0)
(1.63208 0.124968 0)
(0.779297 0.10299 0)
(0.735309 0.126416 0)
(0.719362 0.131412 0)
(0.704179 0.129666 0)
(0.689399 0.125585 0)
(0.674406 0.121755 0)
(0.658579 0.120071 0)
(0.641336 0.121424 0)
(0.622914 0.126172 0)
(0.604675 0.133723 0)
(0.587953 0.140376 0)
(0.573273 0.141901 0)
(0.559921 0.139436 0)
(0.545125 0.137337 0)
(0.528344 0.138247 0)
(0.510141 0.143415 0)
(0.493425 0.151996 0)
(0.477587 0.157264 0)
(0.463565 0.154918 0)
(0.451723 0.147233 0)
(0.438551 0.139878 0)
(0.423949 0.137452 0)
(0.408899 0.139294 0)
(0.392853 0.142202 0)
(0.375737 0.145425 0)
(0.357717 0.148701 0)
(0.339139 0.153343 0)
(0.320617 0.160441 0)
(0.301955 0.167407 0)
(0.282726 0.169852 0)
(0.263851 0.168082 0)
(0.245023 0.16709 0)
(0.226023 0.168564 0)
(0.206687 0.170995 0)
(0.187063 0.173305 0)
(0.167302 0.17449 0)
(0.147576 0.176338 0)
(0.127922 0.178091 0)
(0.108308 0.180372 0)
(0.0886726 0.183497 0)
(0.0690733 0.187151 0)
(0.0496028 0.191808 0)
(0.0297325 0.194691 0)
(0.0102063 0.198611 0)
(3 1.73165e-16 0)
(3 1.4598e-16 0)
(3 -1.65397e-17 0)
(3 -7.78098e-17 0)
(3 -4.98782e-16 0)
(3 -8.66592e-16 0)
(3 -6.22479e-16 0)
(3 -2.45422e-17 0)
(3 9.15851e-16 0)
(3 5.92966e-16 0)
(3 4.32016e-16 0)
(3 4.42794e-16 0)
(3 5.19757e-16 0)
(3 1.36523e-16 0)
(3 -2.57182e-16 0)
(3 1.02889e-15 0)
(3 2.95212e-16 0)
(3 -6.85585e-16 0)
(3 -1.3453e-15 0)
(3 -9.72752e-16 0)
(3 -1.44415e-15 0)
(3 -2.05267e-15 0)
(3 -1.80928e-15 0)
(3 -1.04166e-15 0)
(3 1.62425e-16 0)
(3 9.08449e-16 0)
(3 4.9445e-16 0)
(3 6.85952e-16 0)
(3 1.14707e-15 0)
(3 1.95503e-15 0)
(3 2.06449e-15 0)
(3 5.03146e-16 0)
(3 -6.50223e-16 0)
(3 -6.45036e-16 0)
(3 -4.98981e-16 0)
(3 4.33651e-16 0)
(3 1.37455e-15 0)
(3 8.95242e-16 0)
(3 -2.73178e-16 0)
(3 -4.25877e-16 0)
(3 8.88984e-16 0)
(3 2.43661e-15 0)
(3 2.44621e-15 0)
(3 4.01668e-16 0)
(3 -8.73016e-17 0)
(3 -3.86753e-16 0)
(3 1.48331e-16 0)
(3 3.57436e-16 0)
(3 5.89478e-16 0)
(3 9.77479e-16 0)
(3 -2.91471e-15 0)
(1.76571 0.136037 0)
(0.79249 0.116957 0)
(0.739565 0.139679 0)
(0.723976 0.144118 0)
(0.707545 0.143463 0)
(0.691034 0.139703 0)
(0.674314 0.135654 0)
(0.657299 0.134108 0)
(0.639689 0.136041 0)
(0.621842 0.141318 0)
(0.605199 0.148495 0)
(0.590503 0.153218 0)
(0.577711 0.153294 0)
(0.564732 0.151497 0)
(0.549324 0.151395 0)
(0.531489 0.154192 0)
(0.512593 0.160348 0)
(0.495742 0.168118 0)
(0.480812 0.170826 0)
(0.468638 0.166622 0)
(0.457537 0.158774 0)
(0.44425 0.152227 0)
(0.429252 0.150973 0)
(0.413714 0.154132 0)
(0.397138 0.158134 0)
(0.379594 0.162155 0)
(0.361216 0.166063 0)
(0.342267 0.171304 0)
(0.323411 0.179016 0)
(0.304523 0.186395 0)
(0.285215 0.188916 0)
(0.266441 0.186952 0)
(0.247753 0.185918 0)
(0.228908 0.187628 0)
(0.209648 0.190377 0)
(0.189722 0.192997 0)
(0.169592 0.194333 0)
(0.149499 0.196326 0)
(0.129543 0.19814 0)
(0.109749 0.200327 0)
(0.0899217 0.203388 0)
(0.0700785 0.206968 0)
(0.0502993 0.211753 0)
(0.0300471 0.214664 0)
(0.0103001 0.218883 0)
(3 9.14856e-17 0)
(3 -3.93189e-16 0)
(3 -9.50301e-16 0)
(3 -1.31421e-15 0)
(3 -1.41374e-15 0)
(3 -1.64888e-15 0)
(3 -2.25631e-15 0)
(3 -2.13435e-15 0)
(3 -1.48515e-15 0)
(3 -1.19133e-15 0)
(3 -9.1274e-16 0)
(3 -2.29974e-16 0)
(3 1.88071e-16 0)
(3 4.74574e-16 0)
(3 7.75719e-16 0)
(3 3.25604e-16 0)
(3 2.22402e-16 0)
(3 4.28104e-16 0)
(3 -1.75579e-16 0)
(3 -8.46651e-16 0)
(3 -2.0904e-15 0)
(3 -2.85143e-15 0)
(3 -2.54844e-15 0)
(3 -1.44133e-15 0)
(3 -5.38349e-16 0)
(3 -4.97245e-17 0)
(3 3.60805e-16 0)
(3 1.14724e-15 0)
(3 2.1028e-15 0)
(3 1.0781e-15 0)
(3 2.61799e-16 0)
(3 -8.98565e-16 0)
(3 -1.75876e-15 0)
(3 -1.38594e-15 0)
(3 -1.14013e-15 0)
(3 -1.22751e-16 0)
(3 1.55549e-15 0)
(3 1.92149e-15 0)
(3 2.05344e-15 0)
(3 3.16788e-15 0)
(3 3.28861e-15 0)
(3 3.45734e-15 0)
(3 2.66247e-15 0)
(3 1.14986e-15 0)
(3 8.66221e-16 0)
(3 6.07949e-16 0)
(3 7.87349e-16 0)
(3 1.0867e-15 0)
(3 1.42261e-15 0)
(3 1.68391e-15 0)
(3 3.03281e-16 0)
(1.9211 0.14573 0)
(0.80884 0.132394 0)
(0.740593 0.152641 0)
(0.724169 0.157874 0)
(0.706343 0.158432 0)
(0.6887 0.154861 0)
(0.671418 0.150301 0)
(0.654553 0.148088 0)
(0.638043 0.149935 0)
(0.622207 0.155076 0)
(0.607827 0.161181 0)
(0.594887 0.164178 0)
(0.582645 0.164408 0)
(0.568926 0.164572 0)
(0.552526 0.167006 0)
(0.533717 0.171516 0)
(0.514874 0.177775 0)
(0.498765 0.183256 0)
(0.485734 0.182886 0)
(0.475096 0.1775 0)
(0.463964 0.170143 0)
(0.45016 0.164753 0)
(0.434503 0.164908 0)
(0.418331 0.169585 0)
(0.401183 0.174729 0)
(0.383284 0.179445 0)
(0.364689 0.18382 0)
(0.34553 0.189515 0)
(0.326467 0.197743 0)
(0.307434 0.205501 0)
(0.288098 0.208144 0)
(0.269462 0.206055 0)
(0.250974 0.204959 0)
(0.232346 0.206821 0)
(0.2132 0.209774 0)
(0.193264 0.21265 0)
(0.172856 0.2142 0)
(0.152413 0.216466 0)
(0.13207 0.218521 0)
(0.111909 0.22076 0)
(0.0917034 0.223857 0)
(0.0714478 0.227359 0)
(0.0512237 0.232198 0)
(0.0305155 0.235046 0)
(0.0104698 0.239479 0)
(3 -2.0636e-16 0)
(3 -3.14973e-16 0)
(3 -4.19822e-16 0)
(3 -5.41964e-16 0)
(3 -4.3046e-16 0)
(3 -2.88067e-16 0)
(3 -7.26111e-16 0)
(3 -1.11888e-15 0)
(3 -1.30472e-15 0)
(3 -5.68863e-16 0)
(3 2.65863e-16 0)
(3 7.08442e-16 0)
(3 1.2623e-15 0)
(3 1.30435e-15 0)
(3 1.77014e-15 0)
(3 1.54899e-15 0)
(3 1.06342e-15 0)
(3 1.6349e-16 0)
(3 -6.63446e-16 0)
(3 -2.17368e-15 0)
(3 -2.76344e-15 0)
(3 -3.04647e-15 0)
(3 -2.00439e-15 0)
(3 -2.08574e-15 0)
(3 -2.6427e-15 0)
(3 -2.19959e-15 0)
(3 -6.10672e-16 0)
(3 8.60663e-16 0)
(3 1.37093e-15 0)
(3 1.30558e-15 0)
(3 6.70435e-16 0)
(3 -4.7317e-16 0)
(3 -8.79035e-16 0)
(3 -1.60008e-15 0)
(3 -4.74261e-16 0)
(3 -1.2617e-16 0)
(3 9.86008e-16 0)
(3 1.92478e-15 0)
(3 2.77386e-15 0)
(3 2.88976e-15 0)
(3 2.36951e-15 0)
(3 2.15106e-15 0)
(3 1.68036e-15 0)
(3 1.77992e-15 0)
(3 1.69089e-15 0)
(3 8.92028e-16 0)
(3 -2.87184e-16 0)
(3 -1.65947e-16 0)
(3 3.50613e-16 0)
(3 9.64425e-16 0)
(3 1.28181e-15 0)
(2.09801 0.15264 0)
(0.829045 0.15168 0)
(0.739605 0.165231 0)
(0.723983 0.171837 0)
(0.706458 0.17349 0)
(0.689308 0.17104 0)
(0.672807 0.165782 0)
(0.65662 0.162275 0)
(0.641049 0.163037 0)
(0.626511 0.167222 0)
(0.613024 0.172234 0)
(0.600003 0.174993 0)
(0.586618 0.176706 0)
(0.571447 0.179151 0)
(0.554208 0.183781 0)
(0.535506 0.189214 0)
(0.518223 0.194346 0)
(0.504008 0.196498 0)
(0.492952 0.193709 0)
(0.482697 0.188281 0)
(0.470973 0.181892 0)
(0.456426 0.177804 0)
(0.440024 0.179362 0)
(0.423222 0.185555 0)
(0.405587 0.191744 0)
(0.387487 0.197005 0)
(0.368853 0.20172 0)
(0.349659 0.207791 0)
(0.330513 0.21649 0)
(0.31137 0.224619 0)
(0.291948 0.227414 0)
(0.2733 0.225231 0)
(0.254806 0.224054 0)
(0.236168 0.226049 0)
(0.21695 0.229244 0)
(0.196855 0.232449 0)
(0.1761 0.23435 0)
(0.155224 0.237024 0)
(0.13439 0.239453 0)
(0.113743 0.241833 0)
(0.0931096 0.245009 0)
(0.0724335 0.248399 0)
(0.0518234 0.253194 0)
(0.0308055 0.255875 0)
(0.0106234 0.260396 0)
(3 -1.04859e-17 0)
(3 6.07406e-17 0)
(3 -8.04333e-17 0)
(3 -1.49762e-16 0)
(3 8.3208e-17 0)
(3 3.52589e-16 0)
(3 7.26478e-17 0)
(3 6.63887e-17 0)
(3 1.12493e-16 0)
(3 1.18057e-16 0)
(3 7.19962e-16 0)
(3 4.6614e-16 0)
(3 7.6973e-16 0)
(3 8.64552e-16 0)
(3 1.16464e-15 0)
(3 1.87057e-15 0)
(3 1.75365e-15 0)
(3 1.48183e-15 0)
(3 7.56609e-18 0)
(3 -3.23932e-16 0)
(3 -2.90193e-16 0)
(3 -8.48647e-16 0)
(3 -1.84197e-15 0)
(3 -2.63738e-15 0)
(3 -3.49107e-15 0)
(3 -3.18008e-15 0)
(3 -1.63251e-15 0)
(3 -4.88537e-17 0)
(3 3.32482e-16 0)
(3 7.43973e-16 0)
(3 8.24508e-16 0)
(3 5.49779e-17 0)
(3 8.77061e-17 0)
(3 -6.51131e-16 0)
(3 -6.95662e-16 0)
(3 -4.53148e-17 0)
(3 -5.66128e-16 0)
(3 1.92982e-15 0)
(3 3.33134e-15 0)
(3 2.80459e-15 0)
(3 2.32017e-15 0)
(3 1.82604e-15 0)
(3 1.65899e-15 0)
(3 1.70729e-15 0)
(3 1.54628e-15 0)
(3 1.12704e-15 0)
(3 1.92452e-16 0)
(3 -7.56485e-16 0)
(3 2.93657e-17 0)
(3 2.36441e-16 0)
(3 2.32561e-15 0)
(2.29844 0.153247 0)
(0.859814 0.172043 0)
(0.743496 0.177702 0)
(0.728529 0.185192 0)
(0.711555 0.187698 0)
(0.696201 0.185684 0)
(0.681022 0.180769 0)
(0.665692 0.176046 0)
(0.65012 0.174979 0)
(0.635107 0.178493 0)
(0.620587 0.18348 0)
(0.605949 0.187217 0)
(0.590781 0.190652 0)
(0.574379 0.194888 0)
(0.55715 0.200553 0)
(0.539918 0.205627 0)
(0.524734 0.208484 0)
(0.512343 0.207779 0)
(0.501458 0.20468 0)
(0.490484 0.200094 0)
(0.477757 0.194808 0)
(0.46233 0.191942 0)
(0.445134 0.194659 0)
(0.427635 0.202138 0)
(0.409454 0.209145 0)
(0.391132 0.214796 0)
(0.372477 0.219793 0)
(0.353319 0.226228 0)
(0.334189 0.235385 0)
(0.31499 0.243893 0)
(0.295443 0.246881 0)
(0.276643 0.244658 0)
(0.257975 0.243423 0)
(0.239186 0.245565 0)
(0.21989 0.249073 0)
(0.19972 0.252694 0)
(0.178887 0.25501 0)
(0.157846 0.258083 0)
(0.136727 0.260874 0)
(0.1157 0.263428 0)
(0.0946714 0.266696 0)
(0.0735314 0.269967 0)
(0.0524779 0.274696 0)
(0.0311338 0.277167 0)
(0.0108235 0.281693 0)
(3 3.11472e-18 0)
(3 -1.07161e-16 0)
(3 -1.51132e-16 0)
(3 3.30457e-18 0)
(3 6.275e-17 0)
(3 -1.46785e-16 0)
(3 1.98443e-16 0)
(3 -6.41612e-17 0)
(3 1.59583e-16 0)
(3 -3.17452e-16 0)
(3 -1.05124e-16 0)
(3 -1.65082e-16 0)
(3 -8.23527e-16 0)
(3 -8.70365e-16 0)
(3 -7.13301e-16 0)
(3 -1.54649e-16 0)
(3 -2.43753e-16 0)
(3 -6.5857e-16 0)
(3 -5.0305e-16 0)
(3 -3.5458e-16 0)
(3 3.64305e-17 0)
(3 -3.44624e-16 0)
(3 -1.46406e-15 0)
(3 -1.70397e-15 0)
(3 -1.60429e-15 0)
(3 -8.00116e-16 0)
(3 -9.50855e-16 0)
(3 -1.17779e-15 0)
(3 -5.7422e-16 0)
(3 -2.69429e-16 0)
(3 -6.61665e-16 0)
(3 -6.71699e-16 0)
(3 -4.11258e-16 0)
(3 6.66216e-16 0)
(3 2.46656e-17 0)
(3 -5.90988e-16 0)
(3 -2.50121e-16 0)
(3 1.21323e-15 0)
(3 2.48252e-15 0)
(3 2.31355e-15 0)
(3 1.95773e-15 0)
(3 4.86336e-16 0)
(3 4.76239e-16 0)
(3 1.01712e-15 0)
(3 1.06501e-15 0)
(3 1.34948e-15 0)
(3 3.81079e-17 0)
(3 -4.27935e-16 0)
(3 6.02463e-16 0)
(3 1.79584e-15 0)
(3 8.99794e-16 0)
(2.50569 0.145797 0)
(0.900207 0.192713 0)
(0.750943 0.189508 0)
(0.73758 0.197878 0)
(0.721892 0.200263 0)
(0.708938 0.198181 0)
(0.695362 0.193717 0)
(0.680345 0.189105 0)
(0.66368 0.187959 0)
(0.646792 0.191272 0)
(0.630143 0.19664 0)
(0.613494 0.201506 0)
(0.596798 0.206245 0)
(0.579897 0.211212 0)
(0.563488 0.216275 0)
(0.548116 0.219544 0)
(0.534456 0.220019 0)
(0.522162 0.21889 0)
(0.510103 0.216851 0)
(0.497519 0.213637 0)
(0.483396 0.209475 0)
(0.466974 0.207621 0)
(0.449003 0.211078 0)
(0.430909 0.219372 0)
(0.412384 0.226829 0)
(0.394116 0.232652 0)
(0.375765 0.237856 0)
(0.356998 0.244626 0)
(0.338198 0.25421 0)
(0.319124 0.263102 0)
(0.299484 0.266352 0)
(0.280486 0.264165 0)
(0.261662 0.2629 0)
(0.242858 0.265195 0)
(0.223718 0.26904 0)
(0.203811 0.273134 0)
(0.18315 0.275903 0)
(0.16209 0.279364 0)
(0.140652 0.282561 0)
(0.119059 0.285408 0)
(0.0973347 0.288883 0)
(0.0753964 0.292143 0)
(0.053598 0.296876 0)
(0.0316946 0.299159 0)
(0.0110907 0.30365 0)
(3 2.68177e-16 0)
(3 3.73513e-16 0)
(3 7.00904e-16 0)
(3 6.79434e-16 0)
(3 1.55348e-16 0)
(3 -5.85743e-16 0)
(3 -3.52515e-16 0)
(3 -1.17919e-16 0)
(3 2.17316e-16 0)
(3 4.73703e-18 0)
(3 -2.35412e-16 0)
(3 -4.08412e-16 0)