/*--------------------------------*- C++ -*----------------------------------*\
  =========                 |
  \\      /  F ield         | OpenFOAM: The Open Source CFD Toolbox
   \\    /   O peration     | Website:  https://openfoam.org
    \\  /    A nd           | Version:  7
     \\/     M anipulation  |
\*---------------------------------------------------------------------------*/
FoamFile
{
    version     2.0;
    format      ascii;
    class       volScalarField;
    location    "1.5";
    object      rho;
}
// * * * * * * * * * * * * * * * * * * * * * * * * * * * * * * * * * * * * * //

dimensions      [1 -3 0 0 0 0 0];

internalField   nonuniform List<scalar> 
4032
(
1.40001
1.40001
1.40001
1.40001
1.40001
1.40001
1.40001
1.40001
1.40001
1.40001
1.40001
1.40001
2.44564
5.06575
5.41816
5.49275
5.59516
5.68481
5.76506
5.81876
5.83439
5.81485
5.79316
5.79235
1.40001
1.40001
1.40001
1.40001
1.40001
1.40001
1.40001
1.40001
1.40001
1.40001
1.40001
1.40001
2.38982
5.02132
5.41505
5.4939
5.5931
5.68007
5.7574
5.8078
5.82058
5.79856
5.77321
5.77063
1.40001
1.40001
1.40001
1.40001
1.40001
1.40001
1.40001
1.40001
1.40001
1.40001
1.40001
1.40001
2.25795
4.95118
5.40965
5.48837
5.58485
5.66817
5.74127
5.78763
5.79799
5.77579
5.74759
5.74507
1.40001
1.40001
1.40001
1.40001
1.40001
1.40001
1.40001
1.40001
1.40001
1.40001
1.40001
1.40001
2.07357
4.83834
5.41508
5.48558
5.57335
5.64907
5.7155
5.7579
5.76728
5.74446
5.71106
5.70271
1.40001
1.40001
1.40001
1.40001
1.40001
1.40001
1.40001
1.40001
1.40001
1.40001
1.40001
1.40001
1.85169
4.67001
5.43241
5.4762
5.55002
5.61738
5.67594
5.71063
5.71314
5.68783
5.65145
5.64959
1.40001
1.40001
1.40001
1.40001
1.40001
1.40001
1.40001
1.40001
1.40001
1.40001
1.40001
1.40001
1.61121
4.44411
5.45526
5.46232
5.51841
5.57353
5.61941
5.64555
5.64229
5.6162
5.57527
5.54726
1.40001
1.40001
1.40001
1.40001
1.40001
1.40001
1.40001
1.40001
1.40001
1.40001
1.40001
1.40001
1.41832
4.04422
5.39858
5.41111
5.45709
5.50026
5.53072
5.54179
5.51948
5.46455
5.40345
5.37713
1.40001
1.40001
1.40001
1.40001
1.40001
1.40001
1.40001
1.40001
1.40001
1.40001
1.40001
1.40001
1.40014
3.48389
5.27185
5.35829
5.40082
5.43343
5.44588
5.43481
5.3943
5.32864
5.23199
5.17796
1.40001
1.40001
1.40001
1.40001
1.40001
1.40001
1.40001
1.40001
1.40001
1.40001
1.40001
1.40001
1.4
2.87084
5.0983
5.32588
5.35428
5.3705
5.36271
5.3305
5.25961
5.1274
4.77802
3.90598
1.40001
1.40001
1.40001
1.40001
1.40001
1.40001
1.40001
1.40001
1.40001
1.40001
1.40001
1.40001
1.4
2.19702
4.87679
5.31505
5.3072
5.30771
5.28122
5.22182
5.10888
4.89656
4.53338
3.62111
1.40001
1.40001
1.40001
1.40001
1.40001
1.40001
1.40001
1.40001
1.40001
1.40001
1.40001
1.40001
1.40001
1.56216
4.45785
5.35547
5.27135
5.23056
5.18103
5.09752
4.95927
4.70969
4.3422
3.50226
1.40001
1.40001
1.40001
1.40001
1.40001
1.40001
1.40001
1.40001
1.40001
1.40001
1.40001
1.40001
1.40001
1.40413
3.66082
5.13475
5.14933
5.13083
5.0793
4.97995
4.82264
4.581
4.18082
3.50065
1.40001
1.40001
1.40001
1.40001
1.40001
1.40001
1.40001
1.40001
1.40001
1.40001
1.40001
1.40001
1.40001
1.39998
2.61847
4.90763
5.1142
5.09358
5.03064
4.9158
4.73463
4.48823
4.07748
3.55029
1.40001
1.40001
1.40001
1.40001
1.40001
1.40001
1.40001
1.40001
1.40001
1.40001
1.40001
1.40001
1.40001
1.4
1.66387
4.52974
5.15884
5.06343
4.96876
4.83441
4.65606
4.40055
4.0338
3.60953
1.40001
1.40001
1.40001
1.40001
1.40001
1.40001
1.40001
1.40001
1.40001
1.40001
1.40001
1.40001
1.40001
1.4
1.41036
3.5741
5.01222
4.96654
4.88136
4.74632
4.58184
4.33827
4.02846
3.67755
1.40001
1.40001
1.40001
1.40001
1.40001
1.40001
1.40001
1.40001
1.40001
1.40001
1.40001
1.40001
1.40001
1.40001
1.39993
2.31822
4.82456
4.96634
4.85128
4.70132
4.52467
4.29876
4.02834
3.7236
1.40001
1.40001
1.40001
1.40001
1.40001
1.40001
1.40001
1.40001
1.40001
1.40001
1.40001
1.40001
1.40001
1.40001
1.39999
1.5317
4.05684
4.93416
4.79496
4.65783
4.48123
4.27127
4.03142
3.76089
1.40001
1.40001
1.40001
1.40001
1.40001
1.40001
1.40001
1.40001
1.40001
1.40001
1.40001
1.40001
1.40001
1.40001
1.4
1.40174
2.71474
4.72706
4.79302
4.6576
4.48479
4.2744
4.04409
3.7952
1.40001
1.40001
1.40001
1.40001
1.40001
1.40001
1.40001
1.40001
1.40001
1.40001
1.40001
1.40001
1.40001
1.40001
1.4
1.4
1.64959
4.10525
4.82365
4.65811
4.49159
4.28605
4.06649
3.83253
1.40001
1.40001
1.40001
1.40001
1.40001
1.40001
1.40001
1.40001
1.40001
1.40001
1.40001
1.40001
1.40001
1.40001
1.40001
1.4
1.4072
2.72543
4.62386
4.64946
4.49316
4.30408
4.09999
3.8798
1.40001
1.40001
1.40001
1.40001
1.40001
1.40001
1.40001
1.40001
1.40001
1.40001
1.40001
1.40001
1.40001
1.40001
1.40001
1.40001
1.40002
1.64638
3.91373
4.71033
4.5232
4.33424
4.13178
3.92209
1.40001
1.40001
1.40001
1.40001
1.40001
1.40001
1.40001
1.40001
1.40001
1.40001
1.40001
1.40001
1.40001
1.40001
1.40001
1.40001
1.40001
1.4071
2.4266
4.4094
4.54119
4.36082
4.17181
3.97603
1.40001
1.40001
1.40001
1.40001
1.40001
1.40001
1.40001
1.40001
1.40001
1.40001
1.40001
1.40001
1.40001
1.40001
1.40001
1.40001
1.40001
1.40004
1.54204
3.4445
4.55309
4.41701
4.23752
4.04829
1.40001
1.40001
1.40001
1.40001
1.40001
1.40001
1.40001
1.40001
1.40001
1.40001
1.40001
1.40001
1.40001
1.40001
1.40001
1.40001
1.40001
1.40001
1.40268
2.02656
4.06678
4.48318
4.29653
4.11363
1.40001
1.40001
1.40001
1.40001
1.40001
1.40001
1.40001
1.40001
1.40001
1.40001
1.40001
1.40001
1.40001
1.40001
1.40001
1.40001
1.40001
1.40001
1.40002
1.44929
2.73331
4.27072
4.34592
4.1778
1.40001
1.40001
1.40001
1.40001
1.40001
1.40001
1.40001
1.40001
1.40001
1.40001
1.40001
1.40001
1.40001
1.40001
1.40001
1.40001
1.40001
1.40001
1.40001
1.40064
1.64008
3.38341
4.32551
4.26027
1.40001
1.40001
1.40001
1.40001
1.40001
1.40001
1.40001
1.40001
1.40001
1.40001
1.40001
1.40001
1.40001
1.40001
1.40001
1.40001
1.40001
1.40001
1.40001
1.40001
1.40792
2.00654
3.79114
4.29253
1.40001
1.40001
1.40001
1.40001
1.40001
1.40001
1.40001
1.40001
1.40001
1.40001
1.40001
1.40001
1.40001
1.40001
1.40001
1.40001
1.40001
1.40001
1.40001
1.40001
1.40006
1.44684
2.43181
4.00622
1.40001
1.40001
1.40001
1.40001
1.40001
1.40001
1.40001
1.40001
1.40001
1.40001
1.40001
1.40001
1.40001
1.40001
1.40001
1.40001
1.40001
1.40001
1.40001
1.40001
1.40001
1.40068
1.53892
2.83695
1.40001
1.40001
1.40001
1.40001
1.40001
1.40001
1.40001
1.40001
1.40001
1.40001
1.40001
1.40001
1.40001
1.40001
1.40001
1.40001
1.40001
1.40001
1.40001
1.40001
1.40001
1.40001
1.40348
1.68507
1.40001
1.40001
1.40001
1.40001
1.40001
1.40001
1.40001
1.40001
1.40001
1.40001
1.40001
1.40001
1.40001
1.40001
1.40001
1.40001
1.40001
1.40001
1.40001
1.40001
1.40001
1.40001
1.40002
1.41177
1.40001
1.40001
1.40001
1.40001
1.40001
1.40001
1.40001
1.40001
1.40001
1.40001
1.40001
1.40001
1.40001
1.40001
1.40001
1.40001
1.40001
1.40001
1.40001
1.40001
1.40001
1.40001
1.40001
1.40011
1.40001
1.40001
1.40001
1.40001
1.40001
1.40001
1.40001
1.40001
1.40001
1.40001
1.40001
1.40001
1.40001
1.40001
1.40001
1.40001
1.40001
1.40001
1.40001
1.40001
1.40001
1.40001
1.40001
1.40001
1.40001
1.40001
1.40001
1.40001
1.40001
1.40001
1.40001
1.40001
1.40001
1.40001
1.40001
1.40001
1.40001
1.40001
1.40001
1.40001
1.40001
1.40001
1.40001
1.40001
1.40001
1.40001
1.40001
1.40001
1.40001
1.40001
1.40001
1.40001
1.40001
1.40001
1.40001
1.40001
1.40001
1.40001
1.40001
1.40001
1.40001
1.40001
1.40001
1.40001
1.40001
1.40001
1.40001
1.40001
1.40001
1.40001
1.40001
1.40001
1.40001
1.40001
1.40001
1.40001
1.40001
1.40001
1.40001
1.40001
1.40001
1.40001
1.40001
1.40001
1.40001
1.40001
1.40001
1.40001
1.40001
1.40001
1.40001
1.40001
1.40001
1.40001
1.40001
1.40001
1.40001
1.40001
1.40001
1.40001
1.40001
1.40001
1.40001
1.40001
1.40001
1.40001
1.40001
1.40001
1.40001
1.40001
1.40001
1.40001
1.40001
1.40001
1.40001
1.40001
1.40001
1.40001
1.40001
1.40001
1.40001
1.40001
1.40001
1.40001
1.40001
1.40001
1.40001
1.40001
1.40001
1.40001
1.40001
1.40001
1.40001
1.40001
1.40001
1.40001
1.40001
1.40001
1.40001
1.40001
1.40001
1.40001
1.40001
1.40001
1.40001
1.40001
1.40001
1.40001
1.40001
1.40001
1.40001
1.40001
1.40001
1.40001
1.40001
1.40001
1.40001
1.40001
1.40001
1.40001
1.40001
1.40001
1.40001
1.40001
1.40001
1.40001
1.40001
1.40001
1.40001
1.40001
1.40001
1.40001
1.40001
1.40001
1.40001
1.40001
1.40001
1.40001
1.40001
1.40001
1.40001
1.40001
1.40001
1.40001
1.40001
1.40001
1.40001
1.40001
1.40001
1.40001
1.40001
1.40001
1.25403
0.431121
0.287059
0.218533
0.211487
0.236003
0.325949
0.437322
0.557255
0.656796
0.740733
0.813204
0.855768
0.896878
0.918117
0.916774
0.918211
0.926989
0.941202
0.953616
0.967598
0.973481
0.977686
0.979818
0.980891
0.983677
0.98666
0.988906
0.98845
0.985915
0.98555
0.98559
0.985312
0.983483
0.977403
0.970501
0.966774
0.965462
0.966131
0.967501
0.966129
0.963146
0.958174
0.950411
0.945404
0.942515
0.939264
0.936639
0.936191
0.938035
0.954928
1.02719
1.214
1.49492
1.83855
2.13883
2.38066
2.55329
2.67133
2.70034
2.66732
2.58801
2.49371
2.4202
2.37019
2.32365
2.28008
2.2385
2.20114
2.167
2.13685
2.11112
2.08166
2.04005
2.00818
1.99154
1.97967
1.97276
1.96083
1.94263
1.92077
1.88515
1.83393
1.79817
1.78101
1.76784
1.75817
1.75459
1.74762
1.72988
1.70751
1.67459
1.61817
1.55238
1.52438
1.50951
1.95354
1.13639
0.825279
0.687853
0.547731
0.513583
0.534112
0.538269
0.543647
0.56685
0.607256
0.672426
0.753986
0.822856
0.869914
0.887175
0.895991
0.911053
0.935468
0.959491
0.973836
0.984221
0.997637
1.00584
1.00589
1.00728
1.00972
1.01172
1.01187
1.00807
1.00565
1.00344
1.00064
0.997027
0.992155
0.98614
0.978711
0.975802
0.975318
0.97596
0.976559
0.974945
0.971157
0.964988
0.959271
0.95367
0.948485
0.946688
0.956188
0.998522
1.12133
1.31724
1.49592
1.61233
1.70169
1.85474
2.00236
2.14203
2.25304
2.34675
2.43071
2.44415
2.43802
2.42205
2.4028
2.36992
2.3371
2.30639
2.27361
2.23734
2.20205
2.16961
2.1348
2.09046
2.0491
2.02518
2.00841
1.99247
1.97633
1.95961
1.94033
1.90863
1.86058
1.81659
1.79131
1.77783
1.76753
1.76035
1.75346
1.7417
1.72353
1.69728
1.65969
1.60746
1.55783
1.5299
2.44305
1.79243
1.35056
1.10399
0.894538
0.767697
0.724203
0.695934
0.636626
0.638742
0.657706
0.696942
0.758161
0.805196
0.843935
0.876424
0.903243
0.932541
0.973598
1.00838
1.02686
1.04322
1.06581
1.07612
1.07279
1.06967
1.0705
1.06927
1.06298
1.05496
1.04879
1.04346
1.03738
1.03286
1.02992
1.026
1.02014
1.01399
1.01144
1.01045
1.00922
1.00635
1.00067
0.992992
0.985488
0.979323
0.981976
1.00581
1.10121
1.28689
1.50335
1.64825
1.7442
1.76321
1.7448
1.72862
1.74161
1.79922
1.91589
2.07208
2.2321
2.34858
2.41397
2.44179
2.46657
2.44843
2.43979
2.42949
2.40566
2.36936
2.33053
2.27926
2.21987
2.16153
2.11459
2.07945
2.05221
2.02874
2.01093
1.99593
1.97782
1.95443
1.9287
1.89351
1.85069
1.82471
1.81136
1.80183
1.79042
1.77622
1.75834
1.736
1.71157
1.68237
1.64644
1.5934
2.77426
2.22073
1.80909
1.51431
1.28871
1.10016
0.984463
0.917671
0.839209
0.814223
0.79204
0.757751
0.746635
0.753565
0.770415
0.798467
0.840043
0.885331
0.939238
0.984868
1.00779
1.02312
1.05216
1.08584
1.09423
1.1075
1.12579
1.12946
1.12643
1.11933
1.10669
1.09069
1.07757
1.06979
1.06684
1.06478
1.06034
1.05567
1.05386
1.05213
1.04954
1.04546
1.03946
1.03242
1.02761
1.03664
1.0932
1.25107
1.48465
1.67289
1.81007
1.83742
1.83184
1.81278
1.78694
1.76681
1.75425
1.73621
1.72979
1.75418
1.82179
1.94354
2.09046
2.23017
2.35045
2.40522
2.42167
2.43286
2.41864
2.40973
2.4033
2.37513
2.33462
2.28683
2.24206
2.19696
2.14995
2.11219
2.0896
2.07403
2.05329
2.02896
2.00769
1.98137
1.93909
1.88519
1.85815
1.84667
1.83314
1.81705
1.80226
1.78848
1.77208
1.75208
1.73047
1.68049
3.02621
2.54795
2.16708
1.86037
1.59665
1.40749
1.27187
1.15748
1.04926
0.97554
0.918101
0.862952
0.803972
0.789372
0.785078
0.792607
0.804526
0.823197
0.857926
0.899858
0.932317
0.95431
0.991682
1.0475
1.07314
1.0936
1.12162
1.13802
1.1395
1.13945
1.13497
1.12599
1.11687
1.10823
1.10179
1.09667
1.09072
1.0867
1.08332
1.07978
1.07437
1.0701
1.0692
1.07396
1.10522
1.20986
1.43044
1.67773
1.85202
1.87874
1.88189
1.87108
1.866
1.85275
1.83266
1.80496
1.77153
1.73724
1.70925
1.69283
1.68502
1.68828
1.71748
1.78529
1.89853
2.03987
2.15395
2.25957
2.31298
2.35861
2.38965
2.37696
2.34937
2.32818
2.30484
2.27025
2.22458
2.18374
2.15978
2.14093
2.12083
2.0959
2.06992
2.04215
2.00546
1.95542
1.90117
1.86594
1.84509
1.83147
1.82398
1.82365
1.81752
1.80592
1.79545
1.76325
3.18136
2.77812
2.42553
2.13164
1.87825
1.66753
1.50488
1.37091
1.25573
1.17182
1.0926
1.02531
0.96575
0.912732
0.877418
0.857266
0.844205
0.839961
0.831167
0.827964
0.83249
0.845295
0.871275
0.924107
0.984912
1.03041
1.08317
1.12402
1.13168
1.13486
1.13396
1.12958
1.12477
1.12364
1.12105
1.11804
1.11455
1.11026
1.1044
1.09794
1.08807
1.08582
1.09878
1.17066
1.36336
1.61323
1.85401
1.93577
1.94527
1.92959
1.91854
1.90774
1.88799
1.8621
1.83149
1.79907
1.76607
1.73374
1.71005
1.69188
1.67261
1.66061
1.64869
1.63845
1.63455
1.66239
1.71663
1.80067
1.9203
2.03574
2.14217
2.23076
2.27468
2.29878
2.28517
2.26675
2.23162
2.19601
2.17867
2.16645
2.16622
2.15459
2.13153
2.10358
2.06819
2.02337
1.96667
1.90733
1.86682
1.85259
1.84497
1.83955
1.83665
1.83378
1.82718
1.80162
3.30352
2.952
2.63922
2.34847
2.09739
1.89781
1.72078
1.57286
1.44189
1.34202
1.25289
1.16875
1.11206
1.05696
0.989674
0.950061
0.916784
0.873683
0.851316
0.838923
0.835732
0.836668
0.840978
0.854923
0.881773
0.917812
0.965837
1.02733
1.07499
1.09571
1.11545
1.12612
1.12162
1.1196
1.12008
1.11957
1.11794
1.11428
1.11169
1.10669
1.10548
1.12769
1.25382
1.52545
1.78119
1.92199
1.99649
1.99414
1.98688
1.95532
1.91296
1.88648
1.861
1.8401
1.81657
1.79309
1.77303
1.74752
1.71734
1.68553
1.65961
1.64476
1.63396
1.62371
1.61346
1.59971
1.57989
1.56143
1.5732
1.61616
1.69394
1.80982
1.93671
2.057
2.11824
2.15722
2.18075
2.17925
2.16035
2.13939
2.13406
2.13983
2.1384
2.12183
2.09934
2.06995
2.0298
1.98085
1.92931
1.88809
1.86593
1.85319
1.84749
1.84545
1.83829
1.81336
3.39581
3.09173
2.80286
2.51913
2.29079
2.09119
1.90933
1.74367
1.62471
1.50745
1.40658
1.30958
1.24161
1.1861
1.11673
1.06316
1.03474
0.982388
0.935978
0.916835
0.890038
0.867364
0.863995
0.86174
0.85499
0.858037
0.869705
0.892826
0.933983
0.985734
1.03605
1.0811
1.10866
1.10976
1.11425
1.11643
1.11569
1.11189
1.11062
1.12193
1.18994
1.37067
1.68773
1.90276
1.98467
2.03809
2.03418
2.00478
1.96076
1.90947
1.87629
1.86243
1.84547
1.82705
1.81407
1.80202
1.78472
1.7545
1.7161
1.67826
1.65168
1.63906
1.63168
1.62654
1.61402
1.59612
1.57196
1.54418
1.52563
1.5169
1.5126
1.5258
1.56381
1.62675
1.71584
1.80756
1.89584
1.96794
2.02403
2.05586
2.07561
2.09903
2.10616
2.09792
2.09037
2.07674
2.06392
2.04043
1.99775
1.94564
1.90345
1.88261
1.87151
1.86418
1.85851
1.8327
3.47257
3.20237
2.9338
2.67163
2.4573
2.25936
2.06649
1.90693
1.78425
1.66088
1.54544
1.44724
1.37807
1.30753
1.23567
1.16807
1.13294
1.0857
1.02465
0.993007
0.965457
0.923381
0.903029
0.890005
0.874455
0.862681
0.864035
0.86379
0.865806
0.878214
0.912664
0.967252
1.02344
1.06675
1.08967
1.10383
1.11153
1.10698
1.12866
1.28128
1.56251
1.80319
2.02522
2.06837
2.05756
2.03837
2.01463
1.97004
1.92452
1.882
1.85677
1.848
1.84267
1.82494
1.81036
1.79816
1.78128
1.75256
1.71415
1.67834
1.65505
1.64587
1.6404
1.62859
1.61195
1.59277
1.57002
1.54847
1.52753
1.50967
1.49851
1.49097
1.47953
1.46902
1.47015
1.48538
1.52155
1.58217
1.65879
1.74976
1.82771
1.8969
1.94895
1.98571
2.02451
2.04915
2.04816
2.03275
2.00655
1.97977
1.95079
1.92408
1.89927
1.88317
1.87835
1.85983
3.53518
3.28815
3.03783
2.80042
2.59518
2.40239
2.20625
2.05611
1.92386
1.79879
1.67465
1.58058
1.50059
1.42286
1.34638
1.28228
1.23591
1.18718
1.12271
1.0834
1.05575
1.01076
0.976837
0.961371
0.939793
0.903441
0.892363
0.880977
0.865513
0.860257
0.864017
0.88144
0.913045
0.958049
1.00143
1.04057
1.07922
1.12198
1.31167
1.70239
1.91768
2.03841
2.11548
2.11622
2.09412
2.04742
1.99513
1.95417
1.92033
1.89042
1.86131
1.84258
1.82892
1.81729
1.80217
1.78867
1.77461
1.75477
1.72989
1.70172
1.66856
1.64638
1.6344
1.62183
1.6062
1.59235
1.58306
1.57165
1.55042
1.52152
1.49576
1.47739
1.46411
1.45509
1.44543
1.43714
1.43078
1.4252
1.41941
1.4357
1.47073
1.52709
1.6125
1.6986
1.77504
1.84798
1.92115
1.95543
1.9643
1.96026
1.94828
1.92696
1.9048
1.89254
1.88937
1.8831
3.59329
3.36466
3.13045
2.9113
2.7198
2.52802
2.33635
2.19117
2.05711
1.92677
1.79623
1.7083
1.61926
1.5358
1.4541
1.39071
1.33533
1.27904
1.21832
1.17527
1.14286
1.09641
1.05051
1.0253
0.997511
0.955091
0.929298
0.911104
0.88771
0.867486
0.867225
0.87511
0.878846
0.884486
0.905804
0.933911
1.0023
1.24023
1.65927
1.89467
1.99766
2.06146
2.09387
2.07684
2.04154
2.00465
1.98433
1.96588
1.94305
1.916
1.88478
1.84817
1.82044
1.80618
1.79568
1.78263
1.76624
1.75243
1.74075
1.72181
1.68788
1.6494
1.62758
1.61433
1.60429
1.59933
1.59742
1.58676
1.56969
1.54246
1.49993
1.46625
1.45484
1.448
1.43999
1.43124
1.42223
1.41385
1.40837
1.39424
1.36869
1.3472
1.35393
1.38043
1.4268
1.48675
1.56068
1.64784
1.72528
1.79337
1.82185
1.83275
1.85655
1.86415
1.87091
1.87027
3.65521
3.43622
3.21312
3.00763
2.82501
2.63607
2.45769
2.31419
2.17842
2.03707
1.91877
1.83025
1.73469
1.64188
1.5533
1.4964
1.43275
1.37098
1.30574
1.26142
1.22354
1.17553
1.12894
1.103
1.07517
1.02797
0.994064
0.975268
0.951023
0.912127
0.903351
0.900618
0.888094
0.8852
0.891612
0.985724
1.25253
1.57368
1.81924
1.84952
1.89967
1.94085
1.94651
1.92991
1.92753
1.94001
1.95378
1.96271
1.95689
1.93587
1.90397
1.86446
1.82313
1.79886
1.78804
1.77735
1.76114
1.75012
1.74432
1.73177
1.70666
1.6651
1.62692
1.6112
1.60234
1.60205
1.60188
1.58928
1.57219
1.54905
1.50804
1.46386
1.44791
1.43936
1.43568
1.43441
1.42508
1.41448
1.40552
1.39404
1.377
1.34958
1.3213
1.31135
1.30746
1.30757
1.31644
1.33843
1.37675
1.43191
1.49926
1.54803
1.59112
1.64581
1.68787
1.74547
3.71042
3.50247
3.29192
3.09912
2.92288
2.73818
2.57188
2.432
2.29548
2.14627
2.0378
1.94219
1.84618
1.74464
1.66061
1.5948
1.52216
1.45666
1.39442
1.35014
1.30541
1.25305
1.19702
1.16884
1.14083
1.09732
1.06254
1.04088
1.01428
0.969258
0.944222
0.930319
0.907541
0.917749
1.02682
1.35161
1.62067
1.77369
1.80241
1.78561
1.76471
1.7531
1.75011
1.75811
1.77842
1.8207
1.86456
1.89781
1.91199
1.90358
1.88635
1.85878
1.82751
1.80132
1.77752
1.7624
1.75069
1.74868
1.7489
1.73662
1.71439
1.68137
1.6405
1.61235
1.59945
1.59191
1.58227
1.57051
1.55939
1.5453
1.51371
1.46511
1.44356
1.43567
1.4309
1.43349
1.42916
1.41925
1.40915
1.39708
1.37933
1.35482
1.33033
1.30851
1.29962
1.29606
1.29061
1.2834
1.27607
1.27376
1.2793
1.28454
1.29733
1.32015
1.3523
1.44119
3.77715
3.57969
3.38086
3.19396
3.01807
2.84092
2.68327
2.54478
2.40242
2.25641
2.1507
2.05045
1.95103
1.84049
1.76268
1.68983
1.61518
1.54275
1.47924
1.43237
1.38064
1.32818
1.27562
1.24267
1.20941
1.15752
1.12073
1.10318
1.08066
1.04216
1.01137
0.989597
1.01384
1.15054
1.4848
1.78835
1.85112
1.85614
1.82837
1.77306
1.74008
1.71458
1.68327
1.6622
1.65716
1.66066
1.68792
1.71806
1.751
1.77901
1.79967
1.81367
1.8031
1.77414
1.75608
1.74386
1.73962
1.74826
1.74967
1.73704
1.71606
1.68683
1.65768
1.6316
1.60768
1.58828
1.56916
1.5535
1.54214
1.52921
1.51108
1.47445
1.44336
1.4348
1.43034
1.43232
1.43206
1.42207
1.41006
1.39322
1.36541
1.34318
1.32897
1.31548
1.30908
1.30204
1.29195
1.27951
1.26933
1.25987
1.24539
1.23064
1.22219
1.21561
1.21101
1.22153
3.85144
3.65352
3.46497
3.28583
3.10617
2.93214
2.78598
2.64986
2.50386
2.36381
2.25514
2.15141
2.04373
1.93817
1.86176
1.78102
1.70346
1.62068
1.56387
1.51369
1.45894
1.39929
1.34542
1.31234
1.27601
1.22816
1.18772
1.16414
1.13625
1.10034
1.07556
1.11066
1.30468
1.65166
1.94101
1.98417
1.95393
1.91032
1.85732
1.80945
1.76956
1.73326
1.69466
1.66959
1.65327
1.64699
1.63683
1.62686
1.62435
1.62607
1.63352
1.6572
1.67381
1.68285
1.70025
1.6896
1.67805
1.67881
1.67733
1.68037
1.68414
1.67665
1.6635
1.64557
1.62312
1.59364
1.56515
1.5481
1.53499
1.51814
1.5003
1.47517
1.4462
1.43679
1.43307
1.43495
1.43374
1.42182
1.40736
1.38967
1.36183
1.32867
1.31397
1.31359
1.31398
1.30831
1.29745
1.28617
1.27478
1.26003
1.24137
1.2231
1.2058
1.19319
1.18934
1.18138
3.92329
3.7292
3.54643
3.37214
3.19696
3.03014
2.88442
2.74533
2.60083
2.47115
2.36
2.24999
2.13442
2.03356
1.95584
1.87323
1.79375
1.70846
1.64982
1.59114
1.53376
1.47392
1.4242
1.38541
1.34299
1.29106
1.25434
1.22571
1.2005
1.17984
1.24532
1.53036
1.87553
2.12158
2.13496
2.08175
2.01185
1.95812
1.92238
1.88747
1.85351
1.81971
1.77795
1.73008
1.68833
1.65473
1.62442
1.60807
1.5966
1.58667
1.57925
1.57434
1.56365
1.54648
1.54849
1.55666
1.54993
1.55222
1.56669
1.57953
1.59017
1.60609
1.61843
1.62528
1.61614
1.59475
1.57271
1.55453
1.53063
1.51249
1.49038
1.46449
1.44535
1.43826
1.43418
1.43536
1.43044
1.41653
1.40126
1.38565
1.36254
1.33007
1.3042
1.2899
1.28712
1.28971
1.29164
1.28716
1.2788
1.26503
1.24676
1.22696
1.20672
1.18553
1.17142
1.1658
3.9905
3.80769
3.63037
3.45484
3.28143
3.12898
2.98357
2.83813
2.69408
2.57592
2.45926
2.34419
2.22481
2.13352
2.04896
1.96171
1.87285
1.79218
1.73658
1.67298
1.61139
1.54243
1.49688
1.45472
1.4088
1.3617
1.31818
1.2842
1.29669
1.41275
1.78133
2.16855
2.32128
2.29076
2.21931
2.13788
2.06825
2.0263
2.00224
1.97854
1.94768
1.90479
1.85268
1.79559
1.73959
1.69004
1.65223
1.62816
1.60674
1.5854
1.5696
1.55621
1.5438
1.53735
1.52142
1.49642
1.46024
1.43924
1.43813
1.44104
1.44898
1.46708
1.49797
1.5213
1.5453
1.558
1.55014
1.5201
1.51278
1.50422
1.48818
1.47152
1.45334
1.44339
1.43777
1.42826
1.41516
1.4024
1.39305
1.38349
1.36944
1.34475
1.31028
1.28422
1.26827
1.26124
1.25826
1.26078
1.26845
1.2645
1.25567
1.24391
1.22397
1.19389
1.16794
1.15203
4.07887
3.89811
3.72431
3.54844
3.38265
3.23573
3.08983
2.9328
2.7937
2.68036
2.56225
2.4408
2.32004
2.23312
2.13954
2.05172
1.95777
1.88364
1.82032
1.75156
1.68659
1.61948
1.57632
1.52704
1.47359
1.42566
1.38594
1.42216
1.6246
2.048
2.41579
2.506
2.47276
2.3823
2.28624
2.20715
2.15182
2.11994
2.0904
2.05847
2.02106
1.97778
1.9312
1.88178
1.82768
1.77033
1.72259
1.68663
1.65537
1.62555
1.59812
1.5713
1.54751
1.53315
1.52069
1.50418
1.47934
1.44483
1.40774
1.38492
1.37299
1.36991
1.37978
1.38751
1.39768
1.42328
1.43347
1.43745
1.45023
1.45938
1.46243
1.45397
1.43117
1.40841
1.39663
1.38844
1.38177
1.38046
1.38604
1.38288
1.37209
1.35397
1.33025
1.29679
1.26538
1.2435
1.23498
1.23305
1.23495
1.2512
1.25585
1.24736
1.23381
1.21226
1.17605
1.14251
4.17885
3.99326
3.81518
3.64115
3.47905
3.32977
3.18407
3.03093
2.89845
2.77681
2.6554
2.52362
2.4163
2.3289
2.23307
2.13633
2.03474
1.97095
1.90263
1.83432
1.75982
1.69609
1.65031
1.59297
1.54455
1.50314
1.55945
1.89268
2.32471
2.66867
2.68435
2.62329
2.53799
2.4542
2.37574
2.3068
2.24762
2.20279
2.16366
2.12426
2.08331
2.0404
1.99619
1.95109
1.90264
1.84854
1.7947
1.74801
1.70805
1.67036
1.63422
1.6016
1.57511
1.55344
1.53476
1.51692
1.49554
1.46442
1.42681
1.39287
1.36953
1.35525
1.34349
1.33223
1.32384
1.32415
1.32546
1.32371
1.32629
1.33979
1.3664
1.3856
1.38451
1.36792
1.351
1.34543
1.33896
1.33358
1.3328
1.3395
1.3482
1.34762
1.33819
1.31606
1.28001
1.24368
1.22624
1.22171
1.22019
1.2232
1.23573
1.23759
1.232
1.21722
1.18576
1.14103
4.22922
4.09456
3.90696
3.73018
3.5708
3.42268
3.27367
3.12209
2.99304
2.87152
2.75098
2.61767
2.51441
2.41901
2.32293
2.22179
2.12796
2.06119
1.98489
1.91345
1.833
1.78021
1.7224
1.66781
1.64823
1.76672
2.19686
2.67164
2.86565
2.85934
2.78349
2.68764
2.60096
2.53644
2.48057
2.41932
2.35207
2.29012
2.23731
2.18862
2.14202
2.09725
2.05381
2.0115
1.96795
1.92025
1.86812
1.81539
1.76863
1.72951
1.69508
1.66278
1.63234
1.60277
1.57323
1.54376
1.5156
1.48993
1.46431
1.43824
1.4089
1.36724
1.34124
1.32783
1.31555
1.30518
1.296
1.28291
1.26805
1.26675
1.27336
1.27487
1.27618
1.27764
1.2694
1.25703
1.25867
1.2614
1.26463
1.27355
1.28876
1.3028
1.30608
1.30161
1.28176
1.24814
1.22944
1.22194
1.21735
1.2144
1.21435
1.21342
1.20883
1.20151
1.18808
1.14667
4.08275
4.16538
4.016
3.83218
3.67123
3.51877
3.3636
3.2224
3.09396
2.97123
2.84014
2.7089
2.61076
2.51531
2.41984
2.30486
2.22014
2.14807
2.07016
1.99237
1.90814
1.85509
1.79538
1.83089
2.06712
2.56882
3.04025
3.08705
3.02339
2.9186
2.83401
2.75912
2.69279
2.63889
2.58168
2.51249
2.43921
2.37186
2.31244
2.2577
2.20532
2.15571
2.10955
2.06648
2.02453
1.98107
1.93264
1.87679
1.81878
1.77106
1.73712
1.71019
1.6858
1.66093
1.63236
1.59875
1.5595
1.51611
1.48083
1.45907
1.43531
1.40127
1.37767
1.36053
1.33655
1.3091
1.29146
1.27641
1.25753
1.24534
1.24092
1.23536
1.22661
1.21856
1.2048
1.17819
1.16641
1.16488
1.16695
1.17836
1.19807
1.2226
1.23665
1.23915
1.23441
1.22263
1.21863
1.20954
1.19994
1.19761
1.19889
1.19571
1.18892
1.1774
1.16495
1.14098
3.17385
4.07377
4.09281
3.94768
3.76913
3.61311
3.46596
3.32485
3.19
3.0636
2.93934
2.82025
2.70826
2.6043
2.4994
2.39517
2.31642
2.23774
2.16131
2.05886
1.98559
1.9371
2.02596
2.42586
3.03155
3.37403
3.35524
3.26588
3.12661
2.99799
2.91018
2.85073
2.79438
2.73716
2.6704
2.59426
2.51828
2.45011
2.39003
2.33317
2.27536
2.21711
2.16289
2.11612
2.07475
2.03461
1.99095
1.93945
1.88328
1.83237
1.7903
1.7538
1.72151
1.69555
1.67193
1.64371
1.6108
1.57491
1.53798
1.50438
1.4695
1.433
1.40655
1.38677
1.36608
1.34312
1.32201
1.30036
1.26991
1.24645
1.23681
1.22516
1.21018
1.19468
1.18027
1.16394
1.14489
1.12574
1.11138
1.109
1.11166
1.12531
1.13738
1.14062
1.14001
1.1326
1.1324
1.13759
1.14405
1.15549
1.16729
1.16945
1.16644
1.1576
1.13958
1.11918
1.87173
3.38977
4.05912
4.03567
3.88531
3.71198
3.559
3.42212
3.29536
3.16681
3.02988
2.91011
2.81004
2.70521
2.59063
2.48221
2.40069
2.32225
2.24109
2.15045
2.10964
2.28306
2.85771
3.44413
3.6937
3.62288
3.47423
3.32893
3.21219
3.10896
3.01735
2.94696
2.88271
2.81685
2.74673
2.6715
2.59477
2.52338
2.46099
2.40426
2.34746
2.28797
2.22812
2.17292
2.12345
2.07693
2.02986
1.97924
1.92797
1.88392
1.84906
1.81996
1.79101
1.75678
1.71294
1.66352
1.62722
1.60258
1.57825
1.55352
1.52667
1.49695
1.46231
1.4242
1.38836
1.36061
1.34168
1.32612
1.3078
1.28789
1.26507
1.23811
1.21465
1.19351
1.17113
1.15119
1.13363
1.11905
1.1042
1.09497
1.09014
1.08644
1.08224
1.07606
1.06424
1.04591
1.03768
1.03884
1.04533
1.05894
1.08161
1.10754
1.11868
1.11737
1.10063
1.08275
1.42994
2.05836
3.52512
4.02012
3.99206
3.83951
3.66604
3.52624
3.39543
3.26041
3.1268
3.01412
2.91052
2.79766
2.67847
2.57663
2.49329
2.41414
2.31342
2.3549
2.70668
3.37352
3.86809
3.96845
3.88843
3.73289
3.57197
3.43998
3.31281
3.20958
3.12172
3.04446
2.9712
2.8956
2.82055
2.74622
2.67281
2.60152
2.53154
2.46387
2.40034
2.34147
2.28761
2.23856
2.19173
2.14334
2.09022
2.03044
1.9688
1.91715
1.87975
1.85165
1.82791
1.80335
1.77004
1.72591
1.67713
1.63472
1.59714
1.56815
1.55175
1.53566
1.50971
1.47695
1.44171
1.39895
1.35982
1.33283
1.31903
1.31127
1.2983
1.27242
1.2427
1.21108
1.1785
1.15157
1.12965
1.11195
1.09961
1.09108
1.08515
1.07988
1.07441
1.06484
1.04345
1.00736
0.986769
0.982841
0.982904
0.98485
0.991482
1.00687
1.01965
1.02119
1.01477
1.01598
1.40038
1.45772
2.21601
3.60009
3.98101
3.95014
3.79641
3.63031
3.49193
3.36404
3.23514
3.10917
3.00208
2.89462
2.79006
2.66963
2.57843
2.51421
2.64801
3.22932
3.97687
4.26633
4.21859
4.10177
3.95725
3.80936
3.68047
3.56713
3.44451
3.32378
3.2253
3.14426
3.06738
2.98442
2.898
2.815
2.74076
2.67444
2.60791
2.53657
2.463
2.39504
2.33802
2.28899
2.24251
2.19464
2.14457
2.09286
2.03936
1.985
1.93228
1.88398
1.84041
1.8067
1.78836
1.76507
1.727
1.69049
1.65602
1.61641
1.5774
1.54994
1.52971
1.50484
1.47333
1.43752
1.4007
1.37132
1.34554
1.31872
1.3053
1.29749
1.27846
1.24256
1.19355
1.15969
1.15003
1.13975
1.12608
1.11222
1.09962
1.0879
1.07552
1.06195
1.04019
1.00187
0.971616
0.963461
0.960209
0.958258
0.956713
0.955354
0.952578
0.945975
0.932064
0.92637
1.40001
1.401
1.48949
2.34001
3.63325
3.94111
3.9082
3.76257
3.5979
3.45809
3.32937
3.21755
3.10475
2.99839
2.87285
2.76956
2.74554
3.03762
3.8105
4.52185
4.74181
4.60433
4.37535
4.19741
4.03898
3.90935
3.79386
3.67192
3.5477
3.43319
3.33334
3.24505
3.15954
3.07041
2.97886
2.89213
2.81687
2.74929
2.67998
2.60504
2.52816
2.45781
2.39793
2.34391
2.29045
2.23467
2.17858
2.13024
2.08791
2.04168
1.98953
1.93716
1.88901
1.8417
1.79786
1.76633
1.7427
1.71954
1.69188
1.65664
1.61725
1.5794
1.53855
1.49683
1.46401
1.44679
1.43388
1.41088
1.38129
1.35406
1.32726
1.29999
1.27468
1.25179
1.22756
1.19664
1.16001
1.13419
1.11745
1.10322
1.09059
1.0787
1.06665
1.0521
1.03343
1.00537
0.970799
0.958281
0.954118
0.950031
0.945584
0.940156
0.933355
0.923971
0.907659
0.885507
1.40001
1.40001
1.40195
1.52102
2.43033
3.61991
3.90417
3.87745
3.73025
3.56712
3.44104
3.31386
3.19935
3.10224
2.95947
3.01426
3.54795
4.54587
5.01234
4.98897
4.86121
4.63871
4.46317
4.31161
4.16465
4.03237
3.90288
3.76811
3.64345
3.53339
3.43306
3.33545
3.23598
3.13706
3.04373
2.96133
2.89072
2.82367
2.75121
2.67173
2.59175
2.51955
2.45663
2.39826
2.3399
2.28161
2.22309
2.16564
2.11947
2.07805
2.02634
1.96989
1.92109
1.87609
1.83306
1.79759
1.76353
1.72692
1.69391
1.66611
1.63884
1.59756
1.55105
1.51696
1.49231
1.46681
1.43663
1.40375
1.36933
1.34994
1.33238
1.30868
1.29032
1.27288
1.24462
1.20501
1.16716
1.14262
1.12591
1.11204
1.10044
1.08968
1.07795
1.06408
1.04531
1.01414
0.97846
0.96482
0.958455
0.952331
0.945583
0.937669
0.929021
0.918884
0.904547
0.877911
1.40001
1.40001
1.40001
1.40312
1.54788
2.4624
3.59626
3.87841
3.84954
3.69978
3.55318
3.41272
3.3035
3.18423
3.341
4.24574
5.19168
5.61084
5.5117
5.22703
4.94552
4.71008
4.55729
4.43161
4.30133
4.16177
4.01413
3.86897
3.74142
3.63065
3.52703
3.4216
3.31212
3.20478
3.10971
3.03022
2.96012
2.88997
2.81181
2.72559
2.6421
2.56956
2.50505
2.44307
2.38102
2.3223
2.26746
2.21127
2.15445
2.10504
2.06727
2.02264
1.96721
1.91751
1.87158
1.82661
1.78696
1.75597
1.72618
1.68539
1.64474
1.62282
1.59924
1.56987
1.53622
1.49849
1.46056
1.42346
1.38394
1.35788
1.34751
1.34035
1.32862
1.30818
1.27235
1.22669
1.19214
1.173
1.16
1.14893
1.1383
1.12678
1.11361
1.09831
1.07777
1.04611
1.00953
0.987694
0.976546
0.967401
0.957857
0.948541
0.939669
0.92907
0.914132
0.876427
1.40001
1.40001
1.40001
1.40002
1.40421
1.56336
2.45709
3.58888
3.83032
3.79994
3.68134
3.51827
3.40434
3.75742
5.00097
6.00819
5.95024
5.80276
5.58251
5.34778
5.10691
4.88507
4.69969
4.5495
4.4088
4.26589
4.12132
3.98087
3.84964
3.72877