/*--------------------------------*- C++ -*----------------------------------*\
  =========                 |
  \\      /  F ield         | OpenFOAM: The Open Source CFD Toolbox
   \\    /   O peration     | Website:  https://openfoam.org
    \\  /    A nd           | Version:  7
     \\/     M anipulation  |
\*---------------------------------------------------------------------------*/
FoamFile
{
    version     2.0;
    format      ascii;
    class       volVectorField;
    location    "1.5";
    object      U;
}
// * * * * * * * * * * * * * * * * * * * * * * * * * * * * * * * * * * * * * //

dimensions      [0 1 -1 0 0 0 0];

internalField   nonuniform List<vector> 
4032
(
(3 3.48649e-17 0)
(3 8.53404e-17 0)
(3 8.21433e-17 0)
(3 -1.07224e-16 0)
(3 -6.213e-16 0)
(3 -4.6355e-16 0)
(3 -4.82284e-17 0)
(3 5.90942e-17 0)
(3 4.52729e-17 0)
(3 -8.25838e-17 0)
(3 -2.26131e-16 0)
(3 -4.96294e-16 0)
(2.08041 0.0149673 0)
(0.790474 0.0211279 0)
(0.666592 0.0225182 0)
(0.61368 0.0253582 0)
(0.55021 0.0280227 0)
(0.484929 0.0312478 0)
(0.415856 0.0324873 0)
(0.346942 0.031743 0)
(0.277072 0.0318869 0)
(0.20606 0.0350127 0)
(0.128375 0.037733 0)
(0.0486135 0.0434889 0)
(3 1.39502e-16 0)
(3 1.03234e-16 0)
(3 -1.02109e-17 0)
(3 -3.9227e-17 0)
(3 -6.12521e-16 0)
(3 -4.40663e-16 0)
(3 -2.51823e-16 0)
(3 -3.82118e-16 0)
(3 -2.15305e-16 0)
(3 -1.84654e-16 0)
(3 1.58848e-16 0)
(3 -6.79848e-16 0)
(2.11756 0.0713757 0)
(0.785363 0.0890512 0)
(0.650584 0.0706895 0)
(0.594724 0.0726507 0)
(0.530697 0.0805655 0)
(0.465648 0.0899484 0)
(0.398453 0.0938875 0)
(0.332385 0.0935128 0)
(0.264632 0.0954066 0)
(0.196887 0.106355 0)
(0.121733 0.115682 0)
(0.046472 0.132524 0)
(3 -1.8954e-16 0)
(3 -1.82075e-16 0)
(3 -2.30507e-16 0)
(3 -2.30997e-16 0)
(3 -2.26788e-16 0)
(3 -3.15986e-16 0)
(3 -5.16655e-16 0)
(3 -7.1017e-16 0)
(3 -8.25222e-16 0)
(3 -7.93533e-16 0)
(3 -7.03599e-16 0)
(3 -8.72583e-16 0)
(2.26118 0.12073 0)
(0.820951 0.153355 0)
(0.664867 0.12415 0)
(0.60069 0.128077 0)
(0.530782 0.140258 0)
(0.462985 0.152947 0)
(0.396538 0.156852 0)
(0.332859 0.155703 0)
(0.266014 0.158462 0)
(0.199155 0.176105 0)
(0.12215 0.191113 0)
(0.0476452 0.217416 0)
(3 -1.80733e-16 0)
(3 -1.73258e-16 0)
(3 -1.55796e-16 0)
(3 -2.24349e-16 0)
(3 -2.31804e-16 0)
(3 -4.58056e-16 0)
(3 -4.0468e-16 0)
(3 -1.87139e-16 0)
(3 -5.95062e-16 0)
(3 -8.71463e-16 0)
(3 -7.51885e-16 0)
(3 -6.85747e-16 0)
(2.44088 0.153411 0)
(0.855443 0.217671 0)
(0.67246 0.184058 0)
(0.609935 0.188002 0)
(0.544714 0.202768 0)
(0.48175 0.216605 0)
(0.419084 0.219268 0)
(0.355972 0.218956 0)
(0.285682 0.224852 0)
(0.214899 0.250625 0)
(0.131933 0.272906 0)
(0.0496858 0.30626 0)
(3 3.10632e-16 0)
(3 1.29796e-16 0)
(3 -6.53611e-17 0)
(3 -2.20475e-16 0)
(3 -9.92724e-17 0)
(3 -1.65098e-17 0)
(3 1.55946e-16 0)
(3 1.84115e-16 0)
(3 2.38466e-16 0)
(3 1.19659e-16 0)
(3 -1.25128e-16 0)
(3 -1.0177e-15 0)
(2.67638 0.174107 0)
(0.923399 0.28034 0)
(0.705753 0.2385 0)
(0.650471 0.242262 0)
(0.590421 0.258037 0)
(0.530977 0.272817 0)
(0.469164 0.277906 0)
(0.404075 0.283959 0)
(0.327618 0.29637 0)
(0.251447 0.330965 0)
(0.156777 0.364669 0)
(0.0612597 0.407003 0)
(3 -1.43109e-17 0)
(3 -8.40406e-17 0)
(3 -2.92265e-18 0)
(3 -1.13022e-17 0)
(3 -5.61845e-17 0)
(3 7.33301e-17 0)
(3 1.07055e-16 0)
(3 -3.70498e-16 0)
(3 -9.85891e-17 0)
(3 -4.85002e-17 0)
(3 -1.92017e-16 0)
(3 -3.05088e-16 0)
(2.94274 0.0931106 0)
(1.03603 0.321807 0)
(0.757756 0.274672 0)
(0.707283 0.285626 0)
(0.648448 0.307038 0)
(0.59047 0.326053 0)
(0.529293 0.33689 0)
(0.462656 0.352671 0)
(0.379057 0.379041 0)
(0.286446 0.428702 0)
(0.17902 0.481991 0)
(0.0597871 0.531554 0)
(3 -9.14517e-17 0)
(3 -8.79854e-17 0)
(3 -3.8836e-16 0)
(3 -5.48653e-17 0)
(3 -8.65931e-17 0)
(3 -4.38131e-16 0)
(3 -5.5272e-16 0)
(3 -4.3257e-16 0)
(3 -5.06031e-16 0)
(3 -7.11522e-16 0)
(3 -7.28653e-16 0)
(3 -7.66152e-16 0)
(3.01934 0.00810866 0)
(1.18077 0.333867 0)
(0.779507 0.321355 0)
(0.723255 0.346522 0)
(0.664179 0.370189 0)
(0.606971 0.39099 0)
(0.547198 0.407405 0)
(0.481956 0.433787 0)
(0.411221 0.475748 0)
(0.335698 0.536997 0)
(0.240865 0.606109 0)
(0.103145 0.679411 0)
(3 -4.37069e-17 0)
(3 2.64862e-16 0)
(3 7.91765e-17 0)
(3 1.95195e-17 0)
(3 2.47274e-16 0)
(3 4.74946e-16 0)
(3 4.32639e-16 0)
(3 8.77456e-16 0)
(3 -2.20577e-17 0)
(3 -5.31044e-16 0)
(3 -5.54353e-16 0)
(3 -7.26629e-16 0)
(3.00062 2.24182e-05 0)
(1.41166 0.373702 0)
(0.782214 0.373679 0)
(0.709386 0.395861 0)
(0.659521 0.421035 0)
(0.612182 0.445187 0)
(0.562639 0.467614 0)
(0.512549 0.501507 0)
(0.459265 0.552349 0)
(0.394405 0.639 0)
(0.27567 0.771342 0)
(0.153323 0.947939 0)
(3 -2.29105e-17 0)
(3 -9.93174e-17 0)
(3 4.97183e-16 0)
(3 6.56802e-16 0)
(3 6.57537e-17 0)
(3 3.12139e-16 0)
(3 4.15851e-16 0)
(3 3.76798e-16 0)
(3 -8.45666e-17 0)
(3 -5.51193e-16 0)
(3 -2.44561e-16 0)
(3 -3.24699e-16 0)
(3 -8.10861e-08 0)
(1.8156 0.427344 0)
(0.826763 0.455517 0)
(0.723148 0.453947 0)
(0.680309 0.476073 0)
(0.640507 0.4991 0)
(0.599779 0.522927 0)
(0.562102 0.560006 0)
(0.523041 0.624857 0)
(0.489323 0.749927 0)
(0.463451 0.93725 0)
(0.583038 1.23261 0)
(3 1.20211e-16 0)
(3 1.12259e-16 0)
(3 -2.89024e-17 0)
(3 -1.79165e-16 0)
(3 -1.00426e-15 0)
(3 -8.06902e-16 0)
(3 -6.78626e-16 0)
(3 -6.4683e-16 0)
(3 -9.50385e-16 0)
(3 -9.49475e-16 0)
(3 -1.25953e-15 0)
(3 -1.24897e-15 0)
(3 -2.91684e-08 0)
(2.46383 0.379741 0)
(0.961506 0.54559 0)
(0.80728 0.495075 0)
(0.760406 0.512951 0)
(0.716745 0.539301 0)
(0.677338 0.566456 0)
(0.642631 0.606189 0)
(0.620754 0.679444 0)
(0.617551 0.81238 0)
(0.682935 0.971227 0)
(0.972299 1.15736 0)
(3 -1.25498e-16 0)
(3 -1.98696e-16 0)
(3 -5.31244e-16 0)
(3 -1.2115e-15 0)
(3 -5.73813e-16 0)
(3 -4.69746e-16 0)
(3 -7.40721e-16 0)
(3 -1.18667e-15 0)
(3 -1.60804e-15 0)
(3 -1.23065e-15 0)
(3 -1.25473e-15 0)
(3 -1.63696e-15 0)
(3 -3.89126e-09 0)
(3.06547 0.0776987 0)
(1.21713 0.53911 0)
(0.906406 0.541628 0)
(0.865712 0.563971 0)
(0.820423 0.58664 0)
(0.77882 0.614712 0)
(0.742362 0.653579 0)
(0.730371 0.725751 0)
(0.751268 0.840824 0)
(0.872762 0.971548 0)
(1.18499 1.08947 0)
(3 -1.97325e-16 0)
(3 -3.66544e-16 0)
(3 -5.42282e-16 0)
(3 -3.45993e-16 0)
(3 -3.23376e-16 0)
(3 -9.68181e-16 0)
(3 -1.16744e-15 0)
(3 -9.97606e-16 0)
(3 -1.07948e-15 0)
(3 -1.3229e-15 0)
(3 -1.44283e-15 0)
(3 -1.10293e-15 0)
(3 -2.04968e-10 0)
(3.01426 0.000963044 0)
(1.46205 0.530554 0)
(0.918313 0.615692 0)
(0.87603 0.628519 0)
(0.851793 0.646561 0)
(0.835629 0.674565 0)
(0.822563 0.708729 0)
(0.826197 0.765351 0)
(0.871263 0.845515 0)
(1.00997 0.943273 0)
(1.26963 1.01144 0)
(3 -1.88045e-16 0)
(3 -6.61879e-18 0)
(3 -2.16976e-17 0)
(3 3.84105e-17 0)
(3 -2.73482e-16 0)
(3 -4.92674e-16 0)
(3 -9.66847e-16 0)
(3 -1.07054e-15 0)
(3 -7.03915e-16 0)
(3 -1.22463e-15 0)
(3 -1.8331e-15 0)
(3 -1.24825e-15 0)
(3 -2.76763e-12 0)
(3.00011 -3.90259e-06 0)
(2.15235 0.530749 0)
(1.00192 0.685476 0)
(0.920221 0.653893 0)
(0.900559 0.671736 0)
(0.892597 0.699982 0)
(0.895994 0.738958 0)
(0.914308 0.789071 0)
(0.977427 0.851725 0)
(1.11445 0.920892 0)
(1.33078 0.960788 0)
(3 8.28365e-18 0)
(3 3.71639e-17 0)
(3 1.38491e-16 0)
(3 1.73925e-16 0)
(3 3.27784e-16 0)
(3 4.28929e-16 0)
(3 9.11894e-17 0)
(3 -7.57974e-16 0)
(3 -1.08267e-15 0)
(3 -1.12161e-15 0)
(3 -1.15919e-15 0)
(3 -9.83142e-16 0)
(3 -1.18916e-15 0)
(3.00001 -3.37896e-06 0)
(3.05334 0.143339 0)
(1.28413 0.681447 0)
(1.01695 0.674859 0)
(0.983616 0.688776 0)
(0.965163 0.719658 0)
(0.966439 0.756293 0)
(0.994639 0.797612 0)
(1.0632 0.842693 0)
(1.18468 0.885357 0)
(1.35842 0.905867 0)
(3 1.63226e-16 0)
(3 2.64575e-16 0)
(3 -8.19807e-17 0)
(3 -5.71674e-16 0)
(3 -8.8547e-16 0)
(3 -8.28851e-16 0)
(3 -5.73517e-17 0)
(3 9.45924e-17 0)
(3 -1.27617e-16 0)
(3 -1.15221e-17 0)
(3 1.04892e-16 0)
(3 -1.94879e-16 0)
(3 1.07278e-15 0)
(3 -5.88946e-07 0)
(3.02733 0.0018489 0)
(1.62442 0.64931 0)
(1.04624 0.750174 0)
(1.01847 0.749617 0)
(1.01305 0.771504 0)
(1.02734 0.789598 0)
(1.06514 0.816832 0)
(1.1357 0.848339 0)
(1.24209 0.873886 0)
(1.3837 0.88483 0)
(3 -8.935e-17 0)
(3 -2.33407e-16 0)
(3 -6.54228e-16 0)
(3 -1.30902e-15 0)
(3 -1.56164e-15 0)
(3 -1.11342e-15 0)
(3 -2.48254e-16 0)
(3 4.10113e-16 0)
(3 9.00787e-16 0)
(3 9.48166e-16 0)
(3 1.31896e-15 0)
(3 1.09883e-15 0)
(3 7.23617e-16 0)
(3 -3.69644e-08 0)
(3.00032 1.8472e-06 0)
(2.5131 0.459816 0)
(1.17514 0.778407 0)
(1.06589 0.777062 0)
(1.08013 0.78018 0)
(1.09867 0.796158 0)
(1.1341 0.816331 0)
(1.19801 0.837976 0)
(1.2894 0.853692 0)
(1.40431 0.86045 0)
(3 -3.39214e-17 0)
(3 -4.20703e-16 0)
(3 -3.25675e-16 0)
(3 1.16752e-16 0)
(3 1.8416e-16 0)
(3 -7.06371e-17 0)
(3 -7.45444e-16 0)
(3 -4.00418e-16 0)
(3 -2.78114e-16 0)
(3 2.45031e-16 0)
(3 1.00485e-15 0)
(3 1.61318e-15 0)
(3 1.43133e-15 0)
(3 -1.38935e-10 0)
(3.00002 -8.81343e-06 0)
(3.06792 0.051724 0)
(1.52269 0.752826 0)
(1.12545 0.796568 0)
(1.15007 0.801259 0)
(1.16243 0.81791 0)
(1.19479 0.831633 0)
(1.25022 0.845719 0)
(1.32893 0.856885 0)
(1.42384 0.860015 0)
(3 -4.66622e-17 0)
(3 -1.53813e-16 0)
(3 3.85432e-16 0)
(3 5.62494e-16 0)
(3 1.29115e-16 0)
(3 -8.3724e-17 0)
(3 -1.92598e-16 0)
(3 -3.74761e-16 0)
(3 -4.35701e-16 0)
(3 2.9825e-16 0)
(3 5.86555e-16 0)
(3 3.76249e-16 0)
(3 1.33916e-15 0)
(3 -1.36176e-13 0)
(3 -1.71019e-06 0)
(3.00546 0.000766791 0)
(2.26211 0.625243 0)
(1.21235 0.856406 0)
(1.17729 0.840998 0)
(1.21029 0.840897 0)
(1.24419 0.844072 0)
(1.29529 0.848096 0)
(1.36507 0.85146 0)
(1.44616 0.85101 0)
(3 -2.53913e-17 0)
(3 -1.68575e-16 0)
(3 -1.83769e-16 0)
(3 -1.99053e-16 0)
(3 -3.90915e-17 0)
(3 -1.09773e-17 0)
(3 2.34528e-16 0)
(3 -7.26438e-17 0)
(3 -2.77975e-17 0)
(3 1.12684e-16 0)
(3 3.55551e-16 0)
(3 -2.02482e-16 0)
(3 -2.53161e-16 0)
(3 -2.01955e-16 0)
(3 -1.23391e-07 0)
(3.00001 2.71831e-06 0)
(3.04014 0.117044 0)
(1.57269 0.827405 0)
(1.22572 0.842349 0)
(1.26584 0.845558 0)
(1.29215 0.852598 0)
(1.33617 0.857053 0)
(1.39319 0.86092 0)
(1.46097 0.860867 0)
(3 8.12284e-17 0)
(3 2.29805e-16 0)
(3 5.49611e-17 0)
(3 3.29093e-16 0)
(3 8.45345e-16 0)
(3 5.43198e-16 0)
(3 2.01392e-16 0)
(3 2.62049e-16 0)
(3 3.15715e-16 0)
(3 3.09244e-16 0)
(3 1.06667e-16 0)
(3 1.78086e-16 0)
(3 -3.32488e-16 0)
(3 -6.32261e-17 0)
(3 -6.4935e-10 0)
(3 -1.42134e-07 0)
(3.01045 0.00313026 0)
(2.3205 0.655391 0)
(1.31264 0.901244 0)
(1.28359 0.888532 0)
(1.32209 0.881132 0)
(1.36559 0.87495 0)
(1.41983 0.867441 0)
(1.48106 0.859603 0)
(3 -2.31365e-17 0)
(3 -5.75728e-17 0)
(3 5.46585e-16 0)
(3 7.8838e-16 0)
(3 1.01057e-15 0)
(3 1.22085e-15 0)
(3 1.07277e-15 0)
(3 8.47868e-16 0)
(3 7.78731e-16 0)
(3 4.72914e-16 0)
(3 1.5467e-16 0)
(3 6.89031e-17 0)
(3 -4.72263e-16 0)
(3 -5.52213e-16 0)
(3 -8.95996e-13 0)
(3 -2.50716e-08 0)
(3.00004 2.97353e-05 0)
(3.03156 0.113977 0)
(1.71242 0.851814 0)
(1.3225 0.891755 0)
(1.36819 0.886126 0)
(1.40387 0.883672 0)
(1.45043 0.878507 0)
(1.50158 0.871745 0)
(3 -5.16784e-17 0)
(3 -2.2014e-17 0)
(3 9.32677e-18 0)
(3 -1.15285e-16 0)
(3 3.7111e-17 0)
(3 -5.86075e-17 0)
(3 5.24296e-16 0)
(3 3.68168e-16 0)
(3 1.65606e-16 0)
(3 -4.19018e-16 0)
(3 -9.95985e-16 0)
(3 -1.0213e-15 0)
(3 -6.68232e-16 0)
(3 -3.94798e-16 0)
(3 9.20394e-16 0)
(3 -1.69531e-09 0)
(3 1.12716e-08 0)
(3.00668 0.00430017 0)
(2.58277 0.556479 0)
(1.45929 0.946258 0)
(1.39312 0.919175 0)
(1.43644 0.909309 0)
(1.47575 0.899288 0)
(1.52197 0.885682 0)
(3 -4.15759e-17 0)
(3 -3.24289e-16 0)
(3 -3.06959e-16 0)
(3 -9.58234e-17 0)
(3 -1.9878e-16 0)
(3 -2.54583e-16 0)
(3 -2.79321e-16 0)
(3 -3.93613e-16 0)
(3 -7.0931e-16 0)
(3 -1.32531e-15 0)
(3 -1.42016e-15 0)
(3 -9.14137e-16 0)
(3 -5.33816e-16 0)
(3 2.38721e-16 0)
(3 6.23378e-16 0)
(3 -2.91735e-11 0)
(3 -3.18915e-11 0)
(3.00002 3.74517e-05 0)
(3.03701 0.0584009 0)
(1.97097 0.819756 0)
(1.45067 0.937063 0)
(1.4762 0.924894 0)
(1.508 0.912084 0)
(1.54757 0.896805 0)
(3 -3.96007e-18 0)
(3 -1.6109e-16 0)
(3 9.19458e-17 0)
(3 2.38229e-16 0)
(3 2.58922e-16 0)
(3 3.69385e-16 0)
(3 -1.87167e-16 0)
(3 -4.90252e-16 0)
(3 -3.1409e-16 0)
(3 -6.4327e-16 0)
(3 -3.96675e-16 0)
(3 -2.41537e-16 0)
(3 -6.23487e-17 0)
(3 9.89708e-17 0)
(3 1.22871e-16 0)
(3 -6.86041e-14 0)
(3 -1.49166e-11 0)
(3 2.13649e-08 0)
(3.00185 0.00230949 0)
(2.81891 0.335856 0)
(1.71986 0.92531 0)
(1.49219 0.947648 0)
(1.53889 0.933443 0)
(1.57462 0.917787 0)
(3 -1.06585e-16 0)
(3 4.06143e-16 0)
(3 1.75041e-16 0)
(3 -2.7963e-16 0)
(3 -6.35524e-16 0)
(3 -4.49877e-16 0)
(3 -5.25322e-16 0)
(3 -2.60001e-16 0)
(3 2.91512e-18 0)
(3 4.67637e-16 0)
(3 7.83651e-16 0)
(3 4.77234e-16 0)
(3 4.34602e-16 0)
(3 9.76538e-16 0)
(3 1.13732e-15 0)
(3 2.96668e-16 0)
(3 -2.12521e-12 0)
(3 -4.25354e-12 0)
(3 1.01453e-05 0)
(3.00959 0.0238153 0)
(2.41741 0.659821 0)
(1.59624 0.980075 0)
(1.55328 0.962796 0)
(1.59487 0.94547 0)
(3 -1.59081e-17 0)
(3 -1.52893e-16 0)
(3 -4.96035e-16 0)
(3 -8.7625e-16 0)
(3 -1.61572e-15 0)
(3 -1.59131e-15 0)
(3 -1.21285e-15 0)
(3 -1.13654e-15 0)
(3 -8.35813e-16 0)
(3 -2.85086e-16 0)
(3 -1.20788e-16 0)
(3 -3.57941e-17 0)
(3 -3.25316e-17 0)
(3 3.80144e-17 0)
(3 1.24831e-16 0)
(3 3.38146e-16 0)
(3 -1.8066e-13 0)
(3 -4.29788e-12 0)
(3 4.57271e-09 0)
(3.00008 0.000610283 0)
(2.9858 0.117104 0)
(2.07659 0.825497 0)
(1.62153 0.973261 0)
(1.61971 0.968986 0)
(3 8.70223e-17 0)
(3 -9.70469e-19 0)
(3 -2.27271e-16 0)
(3 -4.7973e-16 0)
(3 -5.7084e-16 0)
(3 -1.05266e-15 0)
(3 -1.49611e-15 0)
(3 -1.2263e-15 0)
(3 -6.62461e-16 0)
(3 -2.30053e-16 0)
(3 -2.804e-16 0)
(3 -1.51349e-16 0)
(3 -6.30756e-19 0)
(3 -6.63428e-16 0)
(3 -8.8957e-16 0)
(3 -3.75729e-16 0)
(3 -6.75685e-15 0)
(3 -1.47996e-12 0)
(3 -1.03768e-12 0)
(3 1.2235e-06 0)
(3.00111 0.0059659 0)
(2.81271 0.325034 0)
(1.90617 0.909021 0)
(1.66308 0.982718 0)
(3 -7.50779e-17 0)
(3 1.42942e-17 0)
(3 1.28642e-16 0)
(3 3.5708e-16 0)
(3 4.88153e-16 0)
(3 1.30836e-17 0)
(3 -6.15295e-16 0)
(3 -3.77466e-16 0)
(3 4.93182e-17 0)
(3 3.48795e-16 0)
(3 9.22821e-16 0)
(3 4.65876e-16 0)
(3 -2.00832e-16 0)
(3 -4.26128e-18 0)
(3 -1.44059e-16 0)
(3 -5.09413e-16 0)
(3 -4.42097e-16 0)
(3 -9.24538e-14 0)
(3 -4.59282e-13 0)
(3 5.86555e-10 0)
(2.99999 4.33017e-05 0)
(2.99972 0.0258243 0)
(2.56413 0.534414 0)
(1.84374 0.952012 0)
(3 -1.27309e-16 0)
(3 -1.92039e-16 0)
(3 2.99137e-16 0)
(3 6.59391e-16 0)
(3 6.9233e-16 0)
(3 7.99614e-16 0)
(3 1.34312e-15 0)
(3 1.24443e-15 0)
(3 4.80555e-16 0)
(3 8.81998e-17 0)
(3 5.86226e-17 0)
(3 -2.61878e-17 0)
(3 -2.09029e-16 0)
(3 -3.35081e-16 0)
(3 -5.02614e-16 0)
(3 -3.0651e-16 0)
(3 -7.17502e-17 0)
(3 -1.16794e-15 0)
(3 -5.52523e-14 0)
(3 1.96467e-14 0)
(3 3.86267e-08 0)
(2.99993 0.000586844 0)
(2.98147 0.0687718 0)
(2.35818 0.684089 0)
(3 1.15826e-16 0)
(3 3.61795e-16 0)
(3 4.40767e-16 0)
(3 5.56027e-16 0)
(3 8.4124e-17 0)
(3 1.80991e-16 0)
(3 8.95983e-16 0)
(3 1.28745e-15 0)
(3 1.61523e-15 0)
(3 7.15299e-16 0)
(3 -3.52165e-17 0)
(3 1.11264e-16 0)
(3 4.23307e-18 0)
(3 -4.22007e-16 0)
(3 -2.08982e-16 0)
(3 8.53401e-18 0)
(3 1.21118e-16 0)
(3 2.68236e-16 0)
(3 -2.3328e-15 0)
(3 -2.57895e-15 0)
(3 1.19954e-11 0)
(3 1.17421e-06 0)
(2.99974 0.00287302 0)
(2.92496 0.148802 0)
(3 1.32594e-16 0)
(3 1.19651e-16 0)
(3 -2.99907e-16 0)
(3 -1.97235e-16 0)
(3 -2.64146e-16 0)
(3 -8.74077e-17 0)
(3 6.56129e-19 0)
(3 2.97207e-16 0)
(3 6.61651e-16 0)
(3 7.99697e-16 0)
(3 8.75166e-16 0)
(3 1.15879e-15 0)
(3 8.86032e-16 0)
(3 4.57801e-16 0)
(3 3.23182e-16 0)
(3 -3.7795e-16 0)
(3 -7.5421e-16 0)
(3 -6.5264e-16 0)
(3 -8.1429e-16 0)
(3 -1.11119e-15 0)
(3 5.53741e-16 0)
(3 7.85263e-10 0)
(3 1.21127e-05 0)
(2.99862 0.00832125 0)
(3 -3.10303e-17 0)
(3 -1.78425e-16 0)
(3 -3.38612e-16 0)
(3 -6.69482e-16 0)
(3 -1.19877e-16 0)
(3 -1.57013e-16 0)
(3 -2.4762e-16 0)
(3 -5.77993e-16 0)
(3 -5.32488e-16 0)
(3 3.7583e-16 0)
(3 8.22226e-16 0)
(3 1.10211e-15 0)
(3 9.07847e-16 0)
(3 3.51793e-16 0)
(3 -3.16238e-16 0)
(3 -9.86037e-16 0)
(3 -1.37966e-15 0)
(3 -1.32181e-15 0)
(3 -6.35273e-16 0)
(3 5.53227e-16 0)
(3 9.75373e-16 0)
(3 7.69658e-14 0)
(3 1.20199e-08 0)
(2.99998 7.04608e-05 0)
(3 1.63804e-16 0)
(3 5.48719e-16 0)
(3 2.41239e-16 0)
(3 -2.4417e-17 0)
(3 -4.66114e-17 0)
(3 -3.54143e-17 0)
(3 4.93932e-17 0)
(3 1.5871e-16 0)
(3 1.26697e-17 0)
(3 -8.10952e-17 0)
(3 7.15195e-16 0)
(3 2.80517e-16 0)
(3 2.07755e-16 0)
(3 8.72042e-18 0)
(3 -5.74105e-16 0)
(3 -1.00933e-15 0)
(3 -1.07538e-15 0)
(3 -1.36787e-15 0)
(3 -7.53837e-16 0)
(3 4.25078e-16 0)
(3 6.15032e-16 0)
(3 4.49029e-16 0)
(3 2.36654e-12 0)
(3 9.75059e-08 0)
(3 6.3616e-17 0)
(3 7.35119e-19 0)
(3 -1.33006e-17 0)
(3 5.19462e-17 0)
(3 -1.35984e-16 0)
(3 1.39952e-16 0)
(3 2.94565e-16 0)
(3 2.35036e-16 0)
(3 -2.30853e-16 0)
(3 -9.34867e-16 0)
(3 -6.88397e-16 0)
(3 1.45858e-16 0)
(3 3.81824e-16 0)
(3 2.4857e-16 0)
(3 -2.0862e-16 0)
(3 -5.80479e-16 0)
(3 -7.18821e-16 0)
(3 -8.36738e-16 0)
(3 -8.87925e-16 0)
(3 -3.12105e-16 0)
(3 1.58309e-16 0)
(3 -2.77262e-17 0)
(3 -5.73364e-16 0)
(3 3.39801e-11 0)
(3 -2.66172e-16 0)
(3 -5.13725e-16 0)
(3 -1.75652e-16 0)
(3 -1.53814e-16 0)
(3 -5.6459e-17 0)
(3 -3.82807e-16 0)
(3 -8.10092e-16 0)
(3 -1.30749e-15 0)
(3 -8.80849e-16 0)
(3 -8.77252e-16 0)
(3 -8.20369e-16 0)
(3 -6.08172e-16 0)
(3 -5.08075e-16 0)
(3 2.45692e-16 0)
(3 3.3957e-16 0)
(3 -7.93711e-16 0)
(3 -5.61271e-16 0)
(3 3.6092e-16 0)
(3 3.52436e-16 0)
(3 4.92251e-16 0)
(3 6.10727e-16 0)
(3 2.65182e-16 0)
(3 -1.18686e-15 0)
(3 2.11713e-15 0)
(3 -2.12058e-17 0)
(3 1.76995e-16 0)
(3 2.4404e-16 0)
(3 5.59418e-16 0)
(3 -6.56789e-17 0)
(3 -5.76839e-16 0)
(3 -9.43254e-16 0)
(3 -4.11598e-17 0)
(3 2.2396e-16 0)
(3 1.65169e-16 0)
(3 1.58489e-16 0)
(3 -9.12937e-16 0)
(3 -1.15996e-15 0)
(3 -9.67007e-16 0)
(3 -7.48565e-16 0)
(3 -9.43063e-16 0)
(3 -4.28941e-16 0)
(3 1.73289e-16 0)
(3 -1.96829e-17 0)
(3 -4.8588e-16 0)
(3 -4.77369e-16 0)
(3 -6.97097e-16 0)
(3 -1.33323e-15 0)
(3 -1.70498e-15 0)
(3 -3.08175e-17 0)
(3 1.13683e-16 0)
(3 -1.21947e-16 0)
(3 -1.6449e-16 0)
(3 1.93455e-16 0)
(3 2.1966e-16 0)
(3 8.12948e-16 0)
(3 1.19902e-15 0)
(3 8.12245e-16 0)
(3 9.59726e-16 0)
(3 8.88553e-16 0)
(3 3.37707e-16 0)
(3 -4.89457e-16 0)
(3 -1.39597e-15 0)
(3 -1.53927e-15 0)
(3 -6.37574e-16 0)
(3 -3.48256e-18 0)
(3 3.35585e-16 0)
(3 6.80081e-16 0)
(3 -1.52127e-16 0)
(3 -6.68418e-16 0)
(3 -3.57206e-16 0)
(3 -2.90302e-16 0)
(3 -7.92822e-16 0)
(3 -2.62798e-17 0)
(3 -4.58172e-16 0)
(3 -6.17298e-16 0)
(3 -3.79455e-16 0)
(3 8.51004e-17 0)
(3 9.42246e-16 0)
(3 1.02731e-15 0)
(3 3.69124e-16 0)
(3 -1.09203e-16 0)
(3 8.63831e-17 0)
(3 3.28993e-16 0)
(3 2.28422e-16 0)
(3 -1.09238e-16 0)
(3 -5.55891e-16 0)
(3 -9.95943e-16 0)
(3 -2.84728e-16 0)
(3 5.8882e-16 0)
(3 5.20192e-16 0)
(3 6.24447e-16 0)
(3 5.88671e-16 0)
(3 9.83673e-16 0)
(3 1.47665e-15 0)
(3 1.39933e-15 0)
(3 4.51933e-16 0)
(3 -7.04256e-18 0)
(3 -1.48395e-17 0)
(3 6.44027e-17 0)
(3 2.17894e-17 0)
(3 5.04791e-16 0)
(3 3.74735e-16 0)
(3 5.32458e-16 0)
(3 8.49321e-16 0)
(3 7.63358e-16 0)
(3 4.75526e-16 0)
(3 2.77941e-16 0)
(3 -4.05844e-16 0)
(3 -4.20352e-16 0)
(3 -5.74607e-16 0)
(3 -4.95111e-16 0)
(3 2.81764e-16 0)
(3 5.63466e-16 0)
(3 7.11764e-16 0)
(3 5.62625e-16 0)
(3 4.67615e-16 0)
(3 9.62837e-16 0)
(3 1.05712e-15 0)
(3 7.82078e-16 0)
(3 4.68035e-16 0)
(3 -6.27141e-17 0)
(3 2.0886e-16 0)
(3 1.53829e-16 0)
(3 -8.21822e-17 0)
(3 3.11585e-16 0)
(3 3.19999e-16 0)
(3 6.87149e-16 0)
(3 1.00883e-15 0)
(3 1.2136e-15 0)
(3 1.19469e-15 0)
(3 4.30236e-16 0)
(3 8.68436e-17 0)
(3 -1.34674e-16 0)
(3 -3.10709e-16 0)
(3 -2.04878e-16 0)
(3 5.70403e-16 0)
(3 6.92111e-16 0)
(3 7.98771e-16 0)
(3 8.86666e-16 0)
(3 8.52214e-16 0)
(3 5.7946e-16 0)
(3 3.85586e-16 0)
(3 2.37201e-16 0)
(3 1.93888e-16 0)
(1.52613 1.30097 0)
(1.80824 1.47949 0)
(2.43137 1.02186 0)
(2.70273 0.89101 0)
(2.60622 0.377886 0)
(2.65112 0.0595813 0)
(2.62578 -0.32734 0)
(2.61255 -0.427639 0)
(2.54091 -0.293293 0)
(2.4828 -0.263685 0)
(2.45602 -0.318097 0)
(2.48215 -0.271332 0)
(2.47577 -0.154287 0)
(2.46177 -0.115225 0)
(2.45796 -0.095847 0)
(2.46044 -0.0730419 0)
(2.46776 -0.0553521 0)
(2.47407 -0.0521182 0)
(2.48639 -0.0507613 0)
(2.50982 -0.0266944 0)
(2.51481 -0.00981749 0)
(2.50681 -0.0113669 0)
(2.50332 -0.0163872 0)
(2.50447 -0.0170482 0)
(2.50261 -0.0124192 0)
(2.49397 -0.0023424 0)
(2.48687 -0.0011442 0)
(2.49269 -0.00452013 0)
(2.50596 -0.00706418 0)
(2.51945 -0.0064936 0)
(2.52735 -0.00528848 0)
(2.53165 -0.00531489 0)
(2.53257 -0.005667 0)
(2.53024 -0.00660836 0)
(2.52799 -0.00672697 0)
(2.52993 -0.00328449 0)
(2.53526 0.000362743 0)
(2.53973 0.00153002 0)
(2.54535 0.00194335 0)
(2.55119 0.000312424 0)
(2.55486 -0.000491101 0)
(2.56002 -0.00024226 0)
(2.56313 0.00068074 0)
(2.56326 0.000450628 0)
(2.56804 -0.0003143 0)
(2.5752 -0.000843475 0)
(2.58384 -0.000654448 0)
(2.59297 1.83143e-05 0)
(2.60061 0.00249645 0)
(2.60434 -0.00135186 0)
(2.595 -0.016843 0)
(2.53957 -0.0741745 0)
(2.41643 -0.177614 0)
(2.28118 -0.263744 0)
(2.15837 -0.324758 0)
(2.10972 -0.316038 0)
(2.0961 -0.316014 0)
(2.0796 -0.257945 0)
(2.06149 -0.195015 0)
(2.05496 -0.133852 0)
(2.07876 -0.0802082 0)
(2.10295 -0.0447499 0)
(2.12742 -0.00882351 0)
(2.16229 0.014761 0)
(2.20242 0.0159072 0)
(2.23655 0.0188641 0)
(2.25811 0.0234884 0)
(2.27868 0.019195 0)
(2.30537 0.0145527 0)
(2.33416 0.0167255 0)
(2.35908 0.0201582 0)
(2.37783 0.0195403 0)
(2.39042 0.0153836 0)
(2.39808 0.0129879 0)
(2.41456 0.0138977 0)
(2.43482 0.0140163 0)
(2.45396 0.0126226 0)
(2.47982 0.00957274 0)
(2.50391 0.0078425 0)
(2.52687 0.00776612 0)
(2.54691 0.00973859 0)
(2.55164 0.0147189 0)
(2.54372 0.0173797 0)
(2.55148 0.0183304 0)
(2.57152 0.018506 0)
(2.59118 0.018281 0)
(2.6107 0.0171152 0)
(2.63447 0.0134906 0)
(2.65803 0.00976417 0)
(2.68463 0.0095134 0)
(2.71264 0.00937121 0)
(2.73149 0.00934896 0)
(2.72799 0.0120648 0)
(2.71398 0.0184035 0)
(2.72151 0.0215417 0)
(2.74789 0.0212666 0)
(1.79385 1.12407 0)
(2.28121 0.980155 0)
(2.64524 0.355537 0)
(2.72919 0.018282 0)
(2.75423 -0.186498 0)
(2.80671 -0.401695 0)
(2.8377 -0.613432 0)
(2.80316 -0.692424 0)
(2.7686 -0.613094 0)
(2.70553 -0.477914 0)
(2.65357 -0.401723 0)
(2.59918 -0.307644 0)
(2.5429 -0.180829 0)
(2.51367 -0.116089 0)
(2.50843 -0.10734 0)
(2.50905 -0.0733507 0)
(2.51305 -0.0393203 0)
(2.51367 -0.0352213 0)
(2.52446 -0.0326835 0)
(2.53182 0.00271598 0)
(2.53161 0.0246379 0)
(2.51785 0.0177249 0)
(2.50654 -0.00634129 0)
(2.51192 -0.0215741 0)
(2.51276 -0.0188307 0)
(2.50725 -0.00719739 0)
(2.50249 -0.00436029 0)
(2.50666 -0.0106462 0)
(2.52235 -0.0155289 0)
(2.53514 -0.0134369 0)
(2.54523 -0.00956061 0)
(2.55031 -0.00683303 0)
(2.55391 -0.00578362 0)
(2.55307 -0.00578924 0)
(2.55064 -0.00591578 0)
(2.55061 -0.00209138 0)
(2.55291 0.00716365 0)
(2.55829 0.0115578 0)
(2.56182 0.0124371 0)
(2.56576 0.0100314 0)
(2.56974 0.00389702 0)
(2.57228 0.00024275 0)
(2.57595 -0.0018651 0)
(2.57822 -0.00253793 0)
(2.58189 -0.00368814 0)
(2.58857 -0.00283085 0)
(2.59759 0.00182509 0)
(2.60557 0.00416618 0)
(2.60385 -0.00748256 0)
(2.58478 -0.0620732 0)
(2.51285 -0.207964 0)
(2.44305 -0.378129 0)
(2.33378 -0.598554 0)
(2.30202 -0.677167 0)
(2.29018 -0.646553 0)
(2.26127 -0.565957 0)
(2.20559 -0.40671 0)
(2.17946 -0.262249 0)
(2.15615 -0.128485 0)
(2.1469 -0.0461043 0)
(2.1455 0.00549835 0)
(2.14542 0.0406148 0)
(2.16077 0.0613367 0)
(2.18542 0.0624335 0)
(2.22195 0.0554906 0)
(2.24811 0.0572512 0)
(2.26909 0.0522424 0)
(2.29335 0.0344377 0)
(2.31894 0.0135703 0)
(2.34545 0.0105304 0)
(2.37073 0.0117493 0)
(2.391 0.00882106 0)
(2.40473 0.00049581 0)
(2.41338 -0.00232434 0)
(2.42678 0.00455078 0)
(2.44769 0.0099041 0)
(2.46853 0.0121616 0)
(2.49179 0.013993 0)
(2.51513 0.0127393 0)
(2.53713 0.00949019 0)
(2.55663 0.00538361 0)
(2.56946 0.00759113 0)
(2.57088 0.0311202 0)
(2.56715 0.0581842 0)
(2.5789 0.0656881 0)
(2.59811 0.0657339 0)
(2.61646 0.0634691 0)
(2.63889 0.0551482 0)
(2.6651 0.038152 0)
(2.68897 0.0219418 0)
(2.71246 0.0090171 0)
(2.73407 -0.00306979 0)
(2.74561 -0.00591986 0)
(2.74313 0.012236 0)
(2.73667 0.0393956 0)
(2.76229 0.0472739 0)
(1.70216 1.05651 0)
(2.13616 0.844597 0)
(2.31292 0.703906 0)
(2.50563 0.441737 0)
(2.65013 0.225567 0)
(2.78503 -0.0496748 0)
(2.78478 -0.278833 0)
(2.78319 -0.269221 0)
(2.81342 -0.30417 0)
(2.81773 -0.353403 0)
(2.82234 -0.466197 0)
(2.79949 -0.484556 0)
(2.72498 -0.407417 0)
(2.69161 -0.333997 0)
(2.68267 -0.29347 0)
(2.64488 -0.224462 0)
(2.61737 -0.154285 0)
(2.60513 -0.127336 0)
(2.60539 -0.110879 0)
(2.59084 -0.0476831 0)
(2.58766 -0.00178541 0)
(2.57489 -0.00371352 0)
(2.56633 -0.0114543 0)
(2.56361 -0.00695297 0)
(2.55871 0.00158678 0)
(2.54783 0.00373726 0)
(2.54551 -0.0039903 0)
(2.55194 -0.0239771 0)
(2.55856 -0.0325961 0)
(2.57147 -0.0296337 0)
(2.58084 -0.0232794 0)
(2.58684 -0.0189322 0)
(2.59135 -0.0141846 0)
(2.59151 -0.00967064 0)
(2.58933 -0.00872473 0)
(2.58786 -0.00627814 0)
(2.58918 0.00263469 0)
(2.59245 0.00940923 0)
(2.59752 0.00935494 0)
(2.6003 0.00750585 0)
(2.60163 0.00376062 0)
(2.6026 0.00177586 0)
(2.60512 3.49261e-05 0)
(2.60918 0.000359571 0)
(2.6135 0.000531271 0)
(2.62152 0.00753642 0)
(2.6219 0.000816774 0)
(2.61447 -0.0300558 0)
(2.56172 -0.137322 0)
(2.48993 -0.303724 0)
(2.36405 -0.536586 0)
(2.30253 -0.661008 0)
(2.31977 -0.658195 0)
(2.3298 -0.68497 0)
(2.33459 -0.704034 0)
(2.33783 -0.695305 0)
(2.3347 -0.656966 0)
(2.33773 -0.592272 0)
(2.34954 -0.497664 0)
(2.3558 -0.384798 0)
(2.348 -0.275383 0)
(2.31688 -0.169197 0)
(2.29348 -0.0815243 0)
(2.27573 -0.0236423 0)
(2.2771 0.00916509 0)
(2.28123 0.0432985 0)
(2.29857 0.0588062 0)
(2.32556 0.0580861 0)
(2.34465 0.0591338 0)
(2.36863 0.0589682 0)
(2.38932 0.0596445 0)
(2.40975 0.0600492 0)
(2.42447 0.0537541 0)
(2.43253 0.0482888 0)
(2.44337 0.0518872 0)
(2.4592 0.0579079 0)
(2.4785 0.0586944 0)
(2.49795 0.0593922 0)
(2.5196 0.0564093 0)
(2.53967 0.0500833 0)
(2.55765 0.0439124 0)
(2.57527 0.0406987 0)
(2.58961 0.0469204 0)
(2.59524 0.0617252 0)
(2.5977 0.0780448 0)
(2.61283 0.0821826 0)
(2.63198 0.0783368 0)
(2.65347 0.0659838 0)
(2.67132 0.0570375 0)
(2.68785 0.048513 0)
(2.7043 0.0366166 0)
(2.72149 0.02452 0)
(2.73907 0.0178627 0)
(2.75491 0.0173957 0)
(2.76443 0.0336195 0)
(2.78022 0.0517418 0)
(1.62593 0.982162 0)
(1.89194 0.911256 0)
(2.13633 0.746639 0)
(2.38748 0.453279 0)
(2.52341 0.300848 0)
(2.54654 0.255488 0)
(2.65496 0.0396226 0)
(2.7106 -0.116861 0)
(2.74102 -0.213637 0)
(2.80022 -0.374689 0)
(2.80815 -0.459174 0)
(2.83287 -0.473044 0)
(2.80692 -0.460844 0)
(2.79329 -0.453999 0)
(2.77778 -0.434972 0)
(2.74057 -0.371266 0)
(2.71373 -0.312072 0)
(2.70275 -0.286634 0)
(2.6953 -0.250912 0)
(2.67656 -0.167946 0)
(2.67515 -0.0973861 0)
(2.66951 -0.0904132 0)
(2.66149 -0.0957483 0)
(2.62845 -0.0747343 0)
(2.59676 -0.0338434 0)
(2.58677 0.00115108 0)
(2.58891 0.0135705 0)
(2.59755 0.00938165 0)
(2.59993 0.00695647 0)
(2.60382 0.00582928 0)
(2.60997 0.000238293 0)
(2.62008 -0.0151383 0)
(2.62659 -0.0238022 0)
(2.62918 -0.0235963 0)
(2.62677 -0.0222353 0)
(2.62347 -0.0181486 0)
(2.62197 -0.00966858 0)
(2.62653 0.00195334 0)
(2.63118 0.0118038 0)
(2.63258 0.0148366 0)
(2.63314 0.0150487 0)
(2.63383 0.013358 0)
(2.63661 0.0121789 0)
(2.64016 0.0167245 0)
(2.64792 0.00965995 0)
(2.64461 -0.0086635 0)
(2.61479 -0.0699902 0)
(2.54496 -0.217244 0)
(2.41973 -0.463052 0)
(2.34252 -0.604583 0)
(2.3421 -0.621134 0)
(2.31887 -0.667651 0)
(2.30756 -0.704047 0)
(2.31676 -0.709568 0)
(2.34318 -0.703352 0)
(2.3615 -0.685899 0)
(2.37537 -0.661988 0)
(2.38826 -0.650135 0)
(2.40633 -0.64002 0)
(2.41485 -0.6116 0)
(2.41198 -0.550404 0)
(2.39568 -0.453126 0)
(2.37915 -0.336239 0)
(2.35764 -0.220189 0)
(2.34915 -0.137366 0)
(2.33745 -0.059696 0)
(2.35427 -0.0231989 0)
(2.36729 0.00415507 0)
(2.37046 0.0272523 0)
(2.3895 0.0486448 0)
(2.40418 0.0657746 0)
(2.4206 0.0805433 0)
(2.43602 0.0911512 0)
(2.44646 0.0941685 0)
(2.45643 0.0910227 0)
(2.47047 0.0884971 0)
(2.48809 0.0858905 0)
(2.50559 0.0757089 0)
(2.52753 0.0619115 0)
(2.5484 0.0454584 0)
(2.56759 0.0320861 0)
(2.58829 0.0294456 0)
(2.60662 0.0365315 0)
(2.61826 0.0494511 0)
(2.62213 0.0602781 0)
(2.62371 0.0745401 0)
(2.6381 0.0845864 0)
(2.6536 0.0860206 0)
(2.67112 0.0812915 0)
(2.68755 0.0674678 0)
(2.69973 0.0568889 0)
(2.71359 0.0546766 0)
(2.73191 0.0550727 0)
(2.75306 0.0536712 0)
(2.77098 0.0571926 0)
(2.79212 0.0682329 0)
(1.57584 0.942383 0)
(1.78816 0.891002 0)
(2.03823 0.735555 0)
(2.20762 0.582308 0)
(2.29271 0.515828 0)
(2.43727 0.3308 0)
(2.54354 0.13042 0)
(2.59602 0.0891007 0)
(2.62619 0.048667 0)
(2.68717 -0.0890649 0)
(2.71733 -0.223721 0)
(2.73173 -0.242295 0)
(2.73727 -0.28837 0)
(2.76752 -0.366621 0)
(2.78336 -0.386093 0)
(2.78317 -0.378114 0)
(2.77917 -0.378879 0)
(2.773 -0.390412 0)
(2.75779 -0.36627 0)
(2.74034 -0.299384 0)
(2.73965 -0.223649 0)
(2.74336 -0.19651 0)
(2.73353 -0.201202 0)
(2.68698 -0.162437 0)
(2.64252 -0.0939309 0)
(2.63596 -0.0601375 0)
(2.64041 -0.0383773 0)
(2.63282 -0.0136901 0)
(2.62416 -0.00534301 0)
(2.61775 -0.000281283 0)
(2.61651 0.000506561 0)
(2.62418 -0.00212139 0)
(2.63495 -0.00418707 0)
(2.64175 -0.00321185 0)
(2.64366 -0.00667008 0)
(2.64241 -0.01354 0)
(2.64194 -0.0139106 0)
(2.64662 -0.00720348 0)
(2.65017 -0.00216625 0)
(2.65209 8.00748e-05 0)
(2.65239 0.00414487 0)
(2.65451 0.00961729 0)
(2.6573 0.0100055 0)
(2.65683 0.00159973 0)
(2.64493 -0.0343024 0)
(2.60751 -0.125123 0)
(2.48167 -0.352591 0)
(2.37334 -0.533379 0)
(2.35347 -0.603795 0)
(2.29909 -0.680104 0)
(2.28926 -0.695544 0)
(2.30409 -0.690583 0)
(2.32504 -0.673728 0)
(2.34024 -0.665483 0)
(2.35999 -0.663439 0)
(2.38009 -0.660985 0)
(2.3963 -0.649119 0)
(2.40309 -0.647496 0)
(2.41224 -0.649291 0)
(2.43137 -0.649214 0)
(2.44918 -0.645844 0)
(2.46226 -0.629495 0)
(2.4694 -0.589801 0)
(2.46436 -0.517454 0)
(2.44886 -0.415696 0)
(2.4219 -0.288006 0)
(2.41741 -0.18618 0)
(2.40832 -0.0985185 0)
(2.3957 -0.0235559 0)
(2.40551 -0.00469488 0)
(2.42648 0.0153948 0)
(2.43974 0.0371133 0)
(2.4509 0.0662331 0)
(2.45614 0.0930449 0)
(2.46071 0.104641 0)
(2.47108 0.112863 0)
(2.48208 0.123166 0)
(2.49666 0.124501 0)
(2.5172 0.119717 0)
(2.53956 0.107931 0)
(2.563 0.0923453 0)
(2.58707 0.0846746 0)
(2.6115 0.0814246 0)
(2.63149 0.0780093 0)
(2.64136 0.0779189 0)
(2.64029 0.0943732 0)
(2.63399 0.111252 0)
(2.64113 0.106979 0)
(2.65546 0.0987029 0)
(2.67137 0.0931452 0)
(2.68759 0.0877534 0)
(2.70883 0.0796902 0)
(2.72686 0.0763404 0)
(2.74768 0.0753264 0)
(2.76354 0.0764579 0)
(2.79026 0.0816282 0)
(1.54521 0.896526 0)
(1.73913 0.847084 0)
(1.93674 0.747226 0)