/*--------------------------------*- C++ -*----------------------------------*\
  =========                 |
  \\      /  F ield         | OpenFOAM: The Open Source CFD Toolbox
   \\    /   O peration     | Website:  https://openfoam.org
    \\  /    A nd           | Version:  7
     \\/     M anipulation  |
\*---------------------------------------------------------------------------*/
FoamFile
{
    version     2.0;
    format      ascii;
    class       volScalarField;
    location    "1";
    object      p;
}
// * * * * * * * * * * * * * * * * * * * * * * * * * * * * * * * * * * * * * //

dimensions      [1 -1 -2 0 0 0 0];

internalField   nonuniform List<scalar> 
64512
(
1
1
1
1
1
1
1
1
1
1
1
1
1
1
1
1
1
1
1
1
1
1
1
1
1
1
1
1
1
1
1
1
1
1
1
1
1
1
1
1
1
1
1
1
1
1
1
1
1
1
1
1
1
1
5.18483
10.5342
10.8542
10.8981
10.985
11.0305
11.0871
11.1498
11.2239
11.2909
11.3325
11.3505
11.355
11.3578
11.385
11.4414
11.5229
11.6034
11.6628
11.702
11.7318
11.7695
11.8212
11.8825
11.9369
11.9705
11.9744
11.9495
11.917
11.8981
11.9105
11.9644
12.0386
12.1105
12.1643
12.1989
12.2228
12.2453
12.2612
12.27
12.2704
12.2722
1
1
1
1
1
1
1
1
1
1
1
1
1
1
1
1
1
1
1
1
1
1
1
1
1
1
1
1
1
1
1
1
1
1
1
1
1
1
1
1
1
1
1
1
1
1
1
1
1
1
1
1
1
1
5.13227
10.5399
10.8454
10.8981
10.9788
11.0277
11.0871
11.1507
11.2237
11.29
11.3305
11.3481
11.3521
11.356
11.3835
11.4403
11.521
11.6013
11.6608
11.7004
11.7312
11.7694
11.8211
11.8816
11.9347
11.9669
11.97
11.9461
11.9156
11.899
11.9124
11.9645
12.0353
12.1045
12.1584
12.1942
12.2176
12.2391
12.2554
12.2663
12.2697
12.2735
1
1
1
1
1
1
1
1
1
1
1
1
1
1
1
1
1
1
1
1
1
1
1
1
1
1
1
1
1
1
1
1
1
1
1
1
1
1
1
1
1
1
1
1
1
1
1
1
1
1
1
1
1
1
5.02555
10.5448
10.8281
10.8884
10.9675
11.0216
11.0837
11.1476
11.2201
11.287
11.3269
11.3436
11.347
11.3522
11.3802
11.4374
11.5173
11.597
11.6563
11.6963
11.7285
11.7679
11.8202
11.8804
11.932
11.9619
11.963
11.9396
11.9119
11.8991
11.9147
11.9651
12.0328
12.0991
12.1521
12.1865
12.2061
12.2258
12.2445
12.2603
12.2686
12.2762
1
1
1
1
1
1
1
1
1
1
1
1
1
1
1
1
1
1
1
1
1
1
1
1
1
1
1
1
1
1
1
1
1
1
1
1
1
1
1
1
1
1
1
1
1
1
1
1
1
1
1
1
1
1
4.89013
10.5258
10.8102
10.8753
10.9551
11.0135
11.0776
11.142
11.2146
11.2826
11.3217
11.3367
11.3386
11.3455
11.3745
11.4324
11.5116
11.5906
11.6492
11.6893
11.7228
11.7638
11.8174
11.8778
11.9283
11.9558
11.9546
11.9311
11.9055
11.8966
11.9151
11.9645
12.0291
12.0928
12.1444
12.1759
12.191
12.2088
12.2299
12.251
12.2651
12.2768
1
1
1
1
1
1
1
1
1
1
1
1
1
1
1
1
1
1
1
1
1
1
1
1
1
1
1
1
1
1
1
1
1
1
1
1
1
1
1
1
1
1
1
1
1
1
1
1
1
1
1
1
1
1
4.72136
10.4927
10.7916
10.8574
10.941
11.0046
11.07
11.1357
11.2082
11.2766
11.313
11.3258
11.3267
11.336
11.3666
11.4255
11.5042
11.5825
11.6404
11.68
11.7141
11.7564
11.8114
11.8728
11.923
11.9492
11.9463
11.922
11.8969
11.8902
11.9118
11.9613
12.0247
12.0868
12.1364
12.1638
12.1744
12.1896
12.2125
12.2384
12.2582
12.2736
1
1
1
1
1
1
1
1
1
1
1
1
1
1
1
1
1
1
1
1
1
1
1
1
1
1
1
1
1
1
1
1
1
1
1
1
1
1
1
1
1
1
1
1
1
1
1
1
1
1
1
1
1
1
4.51536
10.445
10.7702
10.8349
10.9258
10.9954
11.0607
11.1271
11.1985
11.2666
11.2991
11.311
11.3131
11.3256
11.3582
11.4178
11.496
11.5735
11.6304
11.6693
11.7029
11.7454
11.8012
11.8636
11.915
11.9418
11.9386
11.914
11.8882
11.8814
11.904
11.954
12.0176
12.0793
12.1271
12.1509
12.1582
12.1709
12.194
12.2224
12.246
12.2638
1
1
1
1
1
1
1
1
1
1
1
1
1
1
1
1
1
1
1
1
1
1
1
1
1
1
1
1
1
1
1
1
1
1
1
1
1
1
1
1
1
1
1
1
1
1
1
1
1
1
1
1
1
1
4.27239
10.3772
10.7479
10.8103
10.9098
10.9852
11.0495
11.1173
11.1864
11.2526
11.2813
11.2959
11.3013
11.3155
11.3487
11.4076
11.4848
11.5617
11.6185
11.6573
11.6909
11.733
11.7882
11.8506
11.9029
11.9314
11.9302
11.9067
11.881
11.8729
11.8936
11.9425
12.006
12.0678
12.1148
12.1369
12.143
12.1542
12.1758
12.2037
12.2279
12.2464
1
1
1
1
1
1
1
1
1
1
1
1
1
1
1
1
1
1
1
1
1
1
1
1
1
1
1
1
1
1
1
1
1
1
1
1
1
1
1
1
1
1
1
1
1
1
1
1
1
1
1
1
1
1
3.99377
10.2813
10.7279
10.7871
10.8949
10.9731
11.0378
11.1059
11.1721
11.2332
11.2608
11.2813
11.2906
11.3055
11.3374
11.3946
11.4706
11.5473
11.605
11.6449
11.6794
11.7211
11.7744
11.8343
11.8856
11.9155
11.918
11.8985
11.8755
11.8668
11.8835
11.9285
11.9892
12.0501
12.0972
12.1206
12.1285
12.1398
12.1587
12.1831
12.2043
12.2217
1
1
1
1
1
1
1
1
1
1
1
1
1
1
1
1
1
1
1
1
1
1
1
1
1
1
1
1
1
1
1
1
1
1
1
1
1
1
1
1
1
1
1
1
1
1
1
1
1
1
1
1
1
1
3.68046
10.1516
10.7152
10.77
10.8828
10.9563
11.0212
11.088
11.1562
11.2112
11.2409
11.2679
11.28
11.2952
11.3241
11.3787
11.4528
11.5289
11.5879
11.6301
11.6672
11.7097
11.7609
11.8169
11.8644
11.8933
11.8997
11.887
11.8699
11.8627
11.8759
11.914
11.9685
12.026
12.0732
12.1004
12.1131
12.1263
12.1428
12.1617
12.1767
12.1914
1
1
1
1
1
1
1
1
1
1
1
1
1
1
1
1
1
1
1
1
1
1
1
1
1
1
1
1
1
1
1
1
1
1
1
1
1
1
1
1
1
1
1
1
1
1
1
1
1
1
1
1
1
1
3.34397
9.98849
10.7055
10.758
10.8685
10.9359
10.9991
11.0664
11.1374
11.1905
11.2273
11.2579
11.267
11.2836
11.3084
11.3595
11.4311
11.5058
11.5663
11.6116
11.6526
11.6976
11.7479
11.7997
11.8418
11.8668
11.8748
11.8698
11.8611
11.858
11.8696
11.9003
11.946
11.9973
12.0435
12.0756
12.0945
12.1114
12.1265
12.1399
12.1474
12.1587
1
1
1
1
1
1
1
1
1
1
1
1
1
1
1
1
1
1
1
1
1
1
1
1
1
1
1
1
1
1
1
1
1
1
1
1
1
1
1
1
1
1
1
1
1
1
1
1
1
1
1
1
1
1
2.98338
9.76911
10.6919
10.7496
10.8461
10.9132
10.9797
11.0475
11.1177
11.1739
11.2181
11.2483
11.2549
11.2706
11.2901
11.3373
11.407
11.4798
11.5415
11.5895
11.6342
11.6824
11.7332
11.7822
11.8193
11.8398
11.8468
11.8469
11.8471
11.8499
11.8614
11.8862
11.9225
11.9665
12.0106
12.0463
12.0708
12.0926
12.1076
12.117
12.1172
12.125
1
1
1
1
1
1
1
1
1
1
1
1
1
1
1
1
1
1
1
1
1
1
1
1
1
1
1
1
1
1
1
1
1
1
1
1
1
1
1
1
1
1
1
1
1
1
1
1
1
1
1
1
1
1
2.61138
9.48407
10.6784
10.7416
10.8204
10.8925
10.9654
11.0348
11.1
11.1593
11.2103
11.2368
11.2433
11.2557
11.2696
11.312
11.3819
11.4535
11.5166
11.5661
11.6122
11.6622
11.714
11.7619
11.7963
11.8144
11.8206
11.8225
11.8283
11.8359
11.847
11.8684
11.8977
11.9351
11.9769
12.0142
12.0418
12.0676
12.0844
12.0918
12.0864
12.091
1
1
1
1
1
1
1
1
1
1
1
1
1
1
1
1
1
1
1
1
1
1
1
1
1
1
1
1
1
1
1
1
1
1
1
1
1
1
1
1
1
1
1
1
1
1
1
1
1
1
1
1
1
1
2.25033
9.11755
10.6612
10.7234
10.8002
10.8763
10.9501
11.0232
11.0882
11.1476
11.1992
11.2195
11.2293
11.2382
11.2476
11.2836
11.3554
11.4278
11.4934
11.5442
11.5891
11.6374
11.6877
11.7351
11.7703
11.7901
11.7986
11.8023
11.809
11.8157
11.8243
11.8433
11.8691
11.9027
11.9436
11.9805
12.0083
12.0361
12.0551
12.0628
12.055
12.0573
1
1
1
1
1
1
1
1
1
1
1
1
1
1
1
1
1
1
1
1
1
1
1
1
1
1
1
1
1
1
1
1
1
1
1
1
1
1
1
1
1
1
1
1
1
1
1
1
1
1
1
1
1
1
1.90506
8.66256
10.6262
10.7022
10.784
10.8596
10.9322
11.007
11.0744
11.135
11.1847
11.2012
11.2115
11.2141
11.2214
11.2531
11.3237
11.4007
11.4706
11.5241
11.5673
11.6102
11.6544
11.6992
11.7375
11.7644
11.7803
11.7888
11.7933
11.7923
11.7946
11.8095
11.8339
11.868
11.9099
11.9457
11.9717
11.9991
12.0193
12.0286
12.0212
12.022
1
1
1
1
1
1
1
1
1
1
1
1
1
1
1
1
1
1
1
1
1
1
1
1
1
1
1
1
1
1
1
1
1
1
1
1
1
1
1
1
1
1
1
1
1
1
1
1
1
1
1
1
1
1
1.58174
8.12788
10.5982
10.6803
10.769
10.8496
10.9215
10.9931
11.0587
11.1193
11.1657
11.1812
11.1906
11.1864
11.1901
11.22
11.2855
11.3691
11.4456
11.5047
11.5474
11.5827
11.6164
11.6548
11.6959
11.734
11.7626
11.7795
11.7814
11.7687
11.7605
11.7685
11.7918
11.829
11.8733
11.9088
11.9328
11.9578
11.9777
11.9885
11.9838
11.9845
1
1
1
1
1
1
1
1
1
1
1
1
1
1
1
1
1
1
1
1
1
1
1
1
1
1
1
1
1
1
1
1
1
1
1
1
1
1
1
1
1
1
1
1
1
1
1
1
1
1
1
1
1
1
1.25292
7.44805
10.5859
10.673
10.7666
10.8474
10.9155
10.9789
11.0361
11.0986
11.1404
11.1608
11.1679
11.1576
11.1556
11.1846
11.2439
11.3308
11.4156
11.4824
11.5263
11.5541
11.576
11.6059
11.6475
11.6969
11.7411
11.7685
11.7692
11.7455
11.7248
11.7238
11.745
11.7851
11.8321
11.8686
11.891
11.9127
11.9305
11.9423
11.9417
11.9436
1
1
1
1
1
1
1
1
1
1
1
1
1
1
1
1
1
1
1
1
1
1
1
1
1
1
1
1
1
1
1
1
1
1
1
1
1
1
1
1
1
1
1
1
1
1
1
1
1
1
1
1
1
1
1.01341
6.62042
10.5954
10.6284
10.7133
10.8128
10.8952
10.9629
11.0195
11.0791
11.1154
11.1398
11.1425
11.1333
11.1279
11.1503
11.2034
11.2874
11.3797
11.4541
11.5003
11.5231
11.5361
11.5588
11.5992
11.6561
11.7124
11.7485
11.7502
11.7199
11.688
11.6781
11.6959
11.7364
11.7851
11.823
11.8446
11.8627
11.8779
11.8907
11.8953
11.9002
1
1
1
1
1
1
1
1
1
1
1
1
1
1
1
1
1
1
1
1
1
1
1
1
1
1
1
1
1
1
1
1
1
1
1
1
1
1
1
1
1
1
1
1
1
1
1
1
1
1
1
1
1
1
1.0001
5.61415
10.5163
10.6292
10.7089
10.8014
10.8758
10.9388
10.9955
11.0525
11.09
11.117
11.1227
11.114
11.1079
11.1216
11.1662
11.2453
11.3408
11.4186
11.4663
11.4875
11.4968
11.5162
11.5558
11.6156
11.6768
11.7166
11.72
11.6877
11.6494
11.6332
11.6471
11.6851
11.7333
11.7718
11.7926
11.8069
11.8195
11.8333
11.8435
11.8524
1
1
1
1
1
1
1
1
1
1
1
1
1
1
1
1
1
1
1
1
1
1
1
1
1
1
1
1
1
1
1
1
1
1
1
1
1
1
1
1
1
1
1
1
1
1
1
1
1
1
1
1
1
1
1
4.6459
10.3059
10.6295
10.6982
10.7823
10.8502
10.9074
10.9642
11.0209
11.0649
11.0936
11.105
11.0976
11.0906
11.0987
11.1368
11.208
11.3002
11.3743
11.4214
11.4449
11.4574
11.4789
11.5196
11.5789
11.6377
11.6749
11.6775
11.6454
11.6057
11.5862
11.5964
11.6306
11.6762
11.714
11.7336
11.7446
11.7555
11.7709
11.7865
11.8001
1
1
1
1
1
1
1
1
1
1
1
1
1
1
1
1
1
1
1
1
1
1
1
1
1
1
1
1
1
1
1
1
1
1
1
1
1
1
1
1
1
1
1
1
1
1
1
1
1
1
1
1
1
1
1
3.74884
9.98177
10.6254
10.6752
10.7582
10.8215
10.8761
10.9309
10.9813
11.0284
11.0583
11.0764
11.0763
11.0712
11.0785
11.1128
11.1757
11.2594
11.324
11.3685
11.3952
11.4156
11.4445
11.4882
11.5444
11.5958
11.6262
11.6249
11.5941
11.556
11.5353
11.5428
11.573
11.615
11.6513
11.6689
11.6768
11.6863
11.7024
11.7213
11.7387
1
1
1
1
1
1
1
1
1
1
1
1
1
1
1
1
1
1
1
1
1
1
1
1
1
1
1
1
1
1
1
1
1
1
1
1
1
1
1
1
1
1
1
1
1
1
1
1
1
1
1
1
1
1
1
2.92389
9.50821
10.5888
10.6526
10.7338
10.7888
10.8408
10.895
10.9445
10.9893
11.0109
11.0334
11.0469
11.0466
11.0587
11.0888
11.1422
11.2143
11.2677
11.3105
11.3413
11.3713
11.4088
11.4551
11.5068
11.5498
11.5722
11.5671
11.5374
11.5005
11.4784
11.4828
11.5087
11.5464
11.5808
11.597
11.6036
11.6126
11.6285
11.648
11.6675
1
1
1
1
1
1
1
1
1
1
1
1
1
1
1
1
1
1
1
1
1
1
1
1
1
1
1
1
1
1
1
1
1
1
1
1
1
1
1
1
1
1
1
1
1
1
1
1
1
1
1
1
1
1
1
2.17151
8.89311
10.5923
10.6113
10.6913
10.755
10.8165
10.8743
10.9263
10.9692
10.9811
10.9938
11.004
11.0035
11.0246
11.0557
11.1042
11.1686
11.2149
11.2565
11.2895
11.3259
11.3679
11.4136
11.4599
11.4961
11.5129
11.5065
11.4781
11.4413
11.4159
11.4152
11.4358
11.4694
11.5029
11.5196
11.5263
11.5347
11.5477
11.5636
11.5818
1
1
1
1
1
1
1
1
1
1
1
1
1
1
1
1
1
1
1
1
1
1
1
1
1
1
1
1
1
1
1
1
1
1
1
1
1
1
1
1
1
1
1
1
1
1
1
1
1
1
1
1
1
1
1
1.53195
8.11991
10.6265
10.5904
10.6648
10.7224
10.7821
10.8423
10.9013
10.9449
10.954
10.9533
10.9589
10.9593
10.9857
11.0173
11.0621
11.1231
11.1695
11.2108
11.2453
11.2835
11.3233
11.3628
11.4015
11.4325
11.4472
11.4432
11.4175
11.3805
11.3495
11.3394
11.352
11.3802
11.4132
11.4326
11.4418
11.4501
11.4593
11.469
11.4833
1
1
1
1
1
1
1
1
1
1
1
1
1
1
1
1
1
1
1
1
1
1
1
1
1
1
1
1
1
1
1
1
1
1
1
1
1
1
1
1
1
1
1
1
1
1
1
1
1
1
1
1
1
1
1
1.10311
7.21711
10.5509
10.5117
10.5869
10.6548
10.7243
10.795
10.8697
10.9227
10.9351
10.9238
10.9187
10.9149
10.9393
10.9697
11.0135
11.0762
11.1279
11.1719
11.2088
11.2448
11.2767
11.306
11.3337
11.3593
11.3737
11.3754
11.355
11.3181
11.2804
11.2578
11.259
11.2803
11.3127
11.3365
11.3489
11.3564
11.3595
11.3604
11.3671
1
1
1
1
1
1
1
1
1
1
1
1
1
1
1
1
1
1
1
1
1
1
1
1
1
1
1
1
1
1
1
1
1
1
1
1
1
1
1
1
1
1
1
1
1
1
1
1
1
1
1
1
1
1
1
1.00202
6.08201
10.3543
10.4519
10.5373
10.6111
10.6799
10.7522
10.8304
10.8867
10.9103
10.8983
10.8858
10.8755
10.8917
10.914
10.9559
11.0229
11.0829
11.1319
11.1722
11.2057
11.2273
11.2446
11.2598
11.2792
11.2942
11.302
11.2881
11.2524
11.2083
11.1714
11.1575
11.1685
11.1976
11.2246
11.2393
11.2462
11.2448
11.2385
11.2381
1
1
1
1
1
1
1
1
1
1
1
1
1
1
1
1
1
1
1
1
1
1
1
1
1
1
1
1
1
1
1
1
1
1
1
1
1
1
1
1
1
1
1
1
1
1
1
1
1
1
1
1
1
1
1
1
4.94176
10.0622
10.417
10.4892
10.5613
10.6248
10.696
10.7773
10.8421
10.8769
10.8765
10.8623
10.8466
10.8465
10.8554
10.8916
10.9604
11.0286
11.0845
11.1279
11.158
11.1719
11.1776
11.1828
11.1957
11.2104
11.222
11.2134
11.18
11.1306
11.0799
11.0495
11.0481
11.0719
11.0999
11.1144
11.1178
11.1094
11.0951
11.0857
1
1
1
1
1
1
1
1
1
1
1
1
1
1
1
1
1
1
1
1
1
1
1
1
1
1
1
1
1
1
1
1
1
1
1
1
1
1
1
1
1
1
1
1
1
1
1
1
1
1
1
1
1
1
1
1
3.80957
9.60565
10.35
10.4336
10.528
10.5903
10.6508
10.7211
10.7865
10.8305
10.8452
10.8355
10.8167
10.8047
10.8036
10.8331
10.8983
10.9699
11.0293
11.0723
11.0968
11.1051
11.1046
11.1048
11.1119
11.1241
11.1353
11.1288
11.0976
11.0442
10.9823
10.9362
10.9193
10.9325
10.9535
10.9616
10.9591
10.9465
10.9288
10.9157
1
1
1
1
1
1
1
1
1
1
1
1
1
1
1
1
1
1
1
1
1
1
1
1
1
1
1
1
1
1
1
1
1
1
1
1
1
1
1
1
1
1
1
1
1
1
1
1
1
1
1
1
1
1
1
1
2.64167
8.98971
10.4087
10.4068
10.4838
10.5409
10.5971
10.6615
10.727
10.7792
10.8055
10.8084
10.7964
10.7802
10.7716
10.7902
10.8417
10.906
10.9627
11.0033
11.0249
11.0302
11.0279
11.0261
11.0284
11.0355
11.0424
11.0343
11.0031
10.9463
10.8756
10.8156
10.783
10.781
10.7915
10.7915
10.7785
10.7537
10.7235
10.6974
1
1
1
1
1
1
1
1
1
1
1
1
1
1
1
1
1
1
1
1
1
1
1
1
1
1
1
1
1
1
1
1
1
1
1
1
1
1
1
1
1
1
1
1
1
1
1
1
1
1
1
1
1
1
1
1
1.60822
8.2274
10.5616
10.4775
10.5138
10.5601
10.6053
10.6529
10.7051
10.7553
10.7864
10.7918
10.7727
10.7383
10.7191
10.731
10.7759
10.8392
10.896
10.934
10.9513
10.9509
10.9471
10.9445
10.9434
10.9452
10.9442
10.9303
10.8956
10.835
10.7577
10.6863
10.6374
10.616
10.6071
10.5855
10.5474
10.5053
10.4637
10.4396
1
1
1
1
1
1
1
1
1
1
1
1
1
1
1
1
1
1
1
1
1
1
1
1
1
1
1
1
1
1
1
1
1
1
1
1
1
1
1
1
1
1
1
1
1
1
1
1
1
1
1
1
1
1
1
1
1.04503
7.16393
10.4251
10.3408
10.3888
10.4552
10.5162
10.5732
10.6322
10.6903
10.733
10.7514
10.7378
10.6996
10.6737
10.6792
10.7142
10.7706
10.8272
10.864
10.8775
10.8711
10.8661
10.8627
10.8574
10.852
10.8412
10.8179
10.7761
10.7108
10.627
10.5453
10.4785
10.4351
10.4007
10.3559
10.2915
10.2202
10.1371
10.0533
1
1
1
1
1
1
1
1
1
1
1
1
1
1
1
1
1
1
1
1
1
1
1
1
1
1
1
1
1
1
1
1
1
1
1
1
1
1
1
1
1
1
1
1
1
1
1
1
1
1
1
1
1
1
1
1
1.00025
5.68522
10.0542
10.2571
10.3534
10.4402
10.4936
10.5404
10.592
10.6458
10.6874
10.7068
10.6959
10.6566
10.6252
10.6247
10.6511
10.697
10.7513
10.789
10.8013
10.7935
10.7875
10.7801
10.7688
10.7546
10.7325
10.6977
10.6463
10.5746
10.4842
10.3908
10.3055
10.2371
10.1712
10.0875
9.96075
9.80385
9.64415
9.51867
1
1
1
1
1
1
1
1
1
1
1
1
1
1
1
1
1
1
1
1
1
1
1
1
1
1
1
1
1
1
1
1
1
1
1
1
1
1
1
1
1
1
1
1
1
1
1
1
1
1
1
1
1
1
1
1
1
4.30153
9.69947
10.241
10.32
10.3977
10.459
10.5102
10.5558
10.6019
10.6379
10.6546
10.6471
10.6081
10.5729
10.5659
10.5838
10.6183
10.668
10.7086
10.7213
10.7161
10.7079
10.6937
10.6762
10.6531
10.6191
10.5714
10.5099
10.431
10.3329
10.2238
10.1174
10.0178
9.91241
9.77562
9.59127
9.34902
9.07053
8.90264
1
1
1
1
1
1
1
1
1
1
1
1
1
1
1
1
1
1
1
1
1
1
1
1
1
1
1
1
1
1
1
1
1
1
1
1
1
1
1
1
1
1
1
1
1
1
1
1
1
1
1
1
1
1
1
1
1
2.87206
9.05149
10.2732
10.2828
10.3417
10.4137
10.4712
10.5152
10.5544
10.585
10.5987
10.5949
10.5574
10.5188
10.5048
10.5145
10.5391
10.5801
10.6212
10.6338
10.6309
10.6219
10.6022
10.5779
10.5451
10.5002
10.4413
10.3717
10.2855
10.1772
10.0486
9.91488
9.77957
9.62961
9.43622
9.1601
8.71981
7.83596
5.86407
1
1
1
1
1
1
1
1
1
1
1
1
1
1
1
1
1
1
1
1
1
1
1
1
1
1
1
1
1
1
1
1
1
1
1
1
1
1
1
1
1
1
1
1
1
1
1
1
1
1
1
1
1
1
1
1
1
1.62435
8.20296
10.4037
10.2867
10.307
10.3666
10.4185
10.4619
10.4995
10.5298
10.5435
10.5443
10.509
10.4668
10.4441
10.4426
10.4574
10.4856
10.526
10.5423
10.545
10.5339
10.5039
10.4681
10.4251
10.3729
10.3074
10.2327
10.1404
10.0207
9.87173
9.70448
9.52878
9.32759
9.06656
8.66303
8.04373
6.94764
4.80933
1
1
1
1
1
1
1
1
1
1
1
1
1
1
1
1
1
1
1
1
1
1
1
1
1
1
1
1
1
1
1
1
1
1
1
1
1
1
1
1
1
1
1
1
1
1
1
1
1
1
1
1
1
1
1
1
1
1.04069
6.90671
10.1893
10.1531
10.2022
10.2774
10.3405
10.3914
10.4337
10.4691
10.4876
10.4941
10.4633
10.4187
10.386
10.3722
10.3797
10.3989
10.4361
10.4553
10.4592
10.441
10.4002
10.3517
10.2983
10.2391
10.1697
10.0916
9.99479
9.86503
9.69801
9.49565
9.27564
9.0204
8.70281
8.21112
7.53573
6.24322
4.43657
1
1
1
1
1
1
1
1
1
1
1
1
1
1
1
1
1
1
1
1
1
1
1
1
1
1
1
1
1
1
1
1
1
1
1
1
1
1
1
1
1
1
1
1
1
1
1
1
1
1
1
1
1
1
1
1
1
1.00018
5.19292
9.80458
10.1025
10.1731
10.2463
10.3
10.3471
10.3877
10.4223
10.4428
10.4509
10.4216
10.374
10.3319
10.307
10.3072
10.3209
10.352
10.3742
10.3782
10.3504
10.296
10.2327
10.1671
10.1
10.0276
9.9455
9.84518
9.70879
9.52852
9.29676
9.03339
8.72711
8.35603
7.82939
7.08189
5.85569
4.36238
1
1
1
1
1
1
1
1
1
1
1
1
1
1
1
1
1
1
1
1
1
1
1
1
1
1
1
1
1
1
1
1
1
1
1
1
1
1
1
1
1
1
1
1
1
1
1
1
1
1
1
1
1
1
1
1
1
1
3.49249
9.27041
10.086
10.1352
10.1915
10.2472
10.2942
10.3342
10.3695
10.3943
10.4048
10.3805
10.3325
10.283
10.2478
10.2378
10.246
10.2689
10.291
10.2933
10.2602
10.1947
10.1181
10.0391
9.96216
9.88376
9.79501
9.68968
9.54895
9.36063
9.1105
8.81036
8.4626
8.04046
7.50288
6.72964
5.67322
4.50026
1
1
1
1
1
1
1
1
1
1
1
1
1
1
1
1
1
1
1
1
1
1
1
1
1
1
1
1
1
1
1
1
1
1
1
1
1
1
1
1
1
1
1
1
1
1
1
1
1
1
1
1
1
1
1
1
1
1
1.95524
8.51697
10.2023
10.1166
10.1366
10.1901
10.2346
10.2718
10.3055
10.3333
10.3467
10.3298
10.2841
10.2305
10.1859
10.1646
10.1675
10.1838
10.2035
10.2043
10.1696
10.098
10.0113
9.92
9.83147
9.74336
9.6442
9.53011
9.38424
9.1914
8.93429
8.61188
8.23344
7.77926
7.2322
6.49403
5.60803
4.61396
1
1
1
1
1
1
1
1
1
1
1
1
1
1
1
1
1
1
1
1
1
1
1
1
1
1
1
1
1
1
1
1
1
1
1
1
1
1
1
1
1
1
1
1
1
1
1
1
1
1
1
1
1
1
1
1
1
1
1.0865
7.15545
10.1542
10.0675
10.0683
10.1267
10.1725
10.2083
10.237
10.2616
10.275
10.2674
10.2313
10.1805
10.1281
10.0932
10.0834
10.0905
10.1047
10.1048
10.073
10.0039
9.91293
9.81253
9.71133
9.61
9.49739
9.37041
9.21628
9.01996
8.76362
8.43561
8.04167
7.57171
7.02465
6.33883
5.5857
4.7371
1
1
1
1
1
1
1
1
1
1
1
1
1
1
1
1
1
1
1
1
1
1
1
1
1
1
1
1
1
1
1
1
1
1
1
1
1
1
1
1
1
1
1
1
1
1
1
1
1
1
1
1
1
1
1
1
1
1
1.00073
5.24959
9.68037
9.9718
10.0342
10.0937
10.1349
10.1655
10.1893
10.2061
10.2128
10.2053
10.1755
10.1269
10.0698
10.0218
9.99797
9.99151
9.99552
9.99409
9.96876
9.90772
9.81904
9.71421
9.60138
9.48501
9.35753
9.21504
9.0495
8.84836
8.59597
8.27426
7.88425
7.41551
6.87537
6.24889
5.58906
4.84846
1
1
1
1
1
1
1
1
1
1
1
1
1
1
1
1
1
1
1
1
1
1
1
1
1
1
1
1
1
1
1
1
1
1
1
1
1
1
1
1
1
1
1
1
1
1
1
1
1
1
1
1
1
1
1
1
1
1
0.999998
3.29373
9.13201
9.97791
9.99175
10.0353
10.0813
10.1161
10.1409
10.152
10.1536
10.1448
10.1188
10.0724
10.0154
9.95654
9.91654
9.89233
9.88244
9.87669
9.8564
9.80592
9.72482
9.62009
9.49867
9.36763
9.22528
9.06693
8.88828
8.67987
8.4313
8.12174
7.75023
7.29625
6.77483
6.20856
5.61284
4.94951
1
1
1
1
1
1
1
1
1
1
1
1
1
1
1
1
1
1
1
1
1
1
1
1
1
1
1
1
1
1
1
1
1
1
1
1
1
1
1
1
1
1
1
1
1
1
1
1
1
1
1
1
1
1
1
1
1
1
1
1.66107
8.17573
10.0817
9.97546
9.96688
10.0111
10.054
10.0862
10.1012
10.1021
10.0924
10.0647
10.0175
9.96002
9.89365
9.83995
9.80043
9.77596
9.76052
9.73981
9.69856
9.62696
9.52611
9.40053
9.25711
9.10058
8.92791
8.73705
8.52083
8.27413
7.9781
7.63025
7.20098
6.71415
6.20252
5.64881
5.05139
1
1
1
1
1
1
1
1
1
1
1
1
1
1
1
1
1
1
1
1
1
1
1
1
1
1
1
1
1
1
1
1
1
1
1
1
1
1
1
1
1
1
1
1
1
1
1
1
1
1
1
1
1
1
1
1
1
1
1
1.0406
6.53143
9.77055
9.84622
9.8984
9.94525
9.98454
10.0161
10.039
10.0467
10.0447
10.0196
9.97294
9.91203
9.836
9.76726
9.7148
9.67578
9.64974
9.62444
9.58856
9.52572
9.4313
9.30459
9.1519
8.98271
8.79863
8.59837
8.37653
8.1296
7.8449
7.5212
7.11955
6.67359
6.20618
5.68665
5.15834
1
1
1
1
1
1
1
1
1
1
1
1
1
1
1
1
1
1
1
1
1
1
1
1
1
1
1
1
1
1
1
1
1
1
1
1
1
1
1
1
1
1
1
1
1
1
1
1
1
1
1
1
1
1
1
1
1
1
1
1.00014
4.34683
9.36168
9.81594
9.84937
9.88887
9.92943
9.95967
9.98017
9.98465
9.98514
9.96693
9.9265
9.86554
9.78356
9.70315
9.63619
9.58244
9.54273
9.51044
9.47633
9.42119
9.33432
9.20902
9.05151
8.87395
8.68262
8.47666
8.25199
8.00507
7.7275
7.4232
7.046
6.64098
6.21231
5.73482
5.26267
1
1
1
1
1
1
1
1
1
1
1
1
1
1
1
1
1
1
1
1
1
1
1
1
1
1
1
1
1
1
1
1
1
1
1
1
1
1
1
1
1
1
1
1
1
1
1
1
1
1
1
1
1
1
1
1
1
1
1
1
2.32067
8.72935
9.83477
9.79298
9.82177
9.8625
9.8928
9.91244
9.91519
9.91562
9.90409
9.87322
9.81929
9.73776
9.64848
9.56429
9.49625
9.44089
9.39933
9.36258
9.31204
9.23166
9.11026
8.95309
8.77404
8.58055
8.37271
8.14768
7.90226
7.62999
7.3365
6.98084
6.61673
6.2163
5.77666
5.34356
1
1
1
1
1
1
1
1
1
1
1
1
1
1
1
1
1
1
1
1
1
1
1
1
1
1
1
1
1
1
1
1
1
1
1
1
1
1
1
1
1
1
1
1
1
1
1
1
1
1
1
1
1
1
1
1
1
1
1
1
1.138
7.1988
9.82435
9.75146
9.75628
9.78614
9.81806
9.844
9.84755
9.84181
9.82908
9.80554
9.76409
9.6919
9.60101
9.50522
9.42124
9.34967
9.29519
9.25067
9.19919
9.12174
9.00594
8.85428
8.68098
8.49082
8.28445
8.06125
7.81773
7.55361
7.26209
6.93088
6.59644
6.21298
5.81706
5.41463
1
1
1
1
1
1
1
1
1
1
1
1
1
1
1
1
1
1
1
1
1
1
1
1
1
1
1
1
1
1
1
1
1
1
1
1
1
1
1
1
1
1
1
1
1
1
1
1
1
1
1
1
1
1
1
1
1
1
1
1
1.00166
4.93865
9.40179
9.68785
9.70316
9.73472
9.76592
9.79252
9.79432
9.77983
9.75734
9.73194
9.69801
9.63728
9.55135
9.45174
9.35431
9.27118
9.20284
9.14681
9.08797
9.00813
8.89642
8.75301
8.59022
8.40816
8.20646
7.98666
7.74776
7.48986
7.1988
6.89299
6.57224
6.20853
5.85467
5.47655
1
1
1
1
1
1
1
1
1
1
1
1
1
1
1
1
1
1
1
1
1
1
1
1
1
1
1
1
1
1
1
1
1
1
1
1
1
1
1
1
1
1
1
1
1
1
1
1
1
1
1
1
1
1
1
1
1
1
1
1
0.999996
2.62283
8.83746
9.72074
9.66593
9.67314
9.69957
9.72511
9.72928
9.71221
9.68317
9.65656
9.62726
9.57731
9.4992
9.40119
9.29691
9.2032
9.12293
9.0543
8.98449
8.89844
8.78803
8.65261
8.5012
8.3295
8.13527
7.9184
7.68713
7.42854
7.14617
6.85991
6.54681
6.21487
5.89125
5.54131
1
1
1
1
1
1
1
1
1
1
1
1
1
1
1
1
1
1
1
1
1
1
1
1
1
1
1
1
1
1
1
1
1
1
1
1
1
1
1
1
1
1
1
1
1
1
1
1
1
1
1
1
1
1
1
1
1
1
1
1
0.999999
1.19017
7.30874
9.71296
9.62051
9.61468
9.62717
9.64732
9.65832
9.64513
9.61533
9.58801
9.55968
9.51601
9.44439
9.35045
9.24474
9.14091
9.05285
8.97183
8.89039
8.7974
8.68718
8.55803
8.41595
8.25444
8.06921
7.85468
7.62949
7.36931
7.10009
6.82495
6.52461
6.22558
5.92123
5.59871
1
1
1
1
1
1
1
1
1
1
1
1
1
1
1
1
1
1
1
1
1
1
1
1
1
1
1
1
1
1
1
1
1
1
1
1
1
1
1
1
1
1
1
1
1
1
1
1
1
1
1
1
1
1
1
1
1
1
1
1
1
1.00308
4.93288
9.26475
9.54181
9.55058
9.57303
9.59194
9.60364
9.59001
9.55908
9.53006
9.49913
9.45583
9.3895
9.30066
9.19626
9.08781
8.98902
8.89667
8.80407
8.70568
8.59678
8.47367
8.33862
8.18584
8.00767
7.7976
7.57224
7.31489
7.05942
6.79256
6.51191
6.23129
5.94139
5.64505
1
1
1
1
1
1
1
1
1
1
1
1
1
1
1
1
1
1
1
1
1
1
1
1
1
1
1
1
1
1
1
1
1
1
1
1
1
1
1
1
1
1
1
1
1
1
1
1
1
1
1
1
1
1
1
1
1
1
1
1
1
0.999994
2.46411
8.68661
9.61703
9.53951
9.51834
9.52332
9.53368
9.52434
9.49753
9.46808
9.43363
9.38918
9.329
9.24824
9.15073
9.04214
8.9325
8.82952
8.72396
8.6201
8.51332
8.39767
8.27012
8.12636
7.95157
7.7465
7.51819
7.2696
7.02665
6.76666
6.50144
6.22674
5.95378
5.67913
1
1
1
1
1
1
1
1
1
1
1
1
1
1
1
1
1
1
1
1
1
1
1
1
1
1
1
1
1
1
1
1
1
1
1
1
1
1
1
1
1
1
1
1
1
1
1
1
1
1
1
1
1
1
1
1
1
1
1
1
1
0.999999
1.15284
7.04086
9.50274
9.4388
9.42922
9.43796
9.45601
9.46093
9.44446
9.41343
9.37032
9.31844
9.25924
9.1874
9.10089
8.99817
8.88532
8.76859
8.64986
8.53832
8.43197
8.32333
8.20383
8.06753
7.89489
7.69531
7.47107
7.23819
7.00222
6.74909
6.49202
6.22273
5.96975
5.70642
1
1
1
1
1
1
1
1
1
1
1
1
1
1
1
1
1
1
1
1
1
1
1
1
1
1
1
1
1
1
1
1
1
1
1
1
1
1
1
1
1
1
1
1
1
1
1
1
1
1
1
1
1
1
1
1
1
1
1
1
1
1
1.00184
4.40777
9.01815
9.37513
9.36692
9.37699
9.39355
9.40324
9.39673
9.36671
9.31656
9.2528
9.1868
9.11814
9.04152
8.94875
8.83894
8.71508
8.58386
8.46253
8.35243
8.24701
8.13372
8.00256
7.83673
7.64637
7.43372
7.21653
6.98249
6.73701
6.48672
6.22725
5.98636
5.72461
1
1
1
1
1
1
1
1
1
1
1
1
1
1
1
1
1
1
1
1
1
1
1
1
1
1
1
1
1
1
1
1
1
1
1
1
1
1
1
1
1
1
1
1
1
1
1
1
1
1
1
1
1
1
1
1
1
1
1
1
1
1
0.999997
1.93749
8.22122
9.5009
9.37002
9.31548
9.31425
9.325
9.32978
9.31073
9.26391
9.19462
9.12133
9.04967
8.97708
8.89216
8.78798
8.66477
8.52533
8.39498
8.27512
8.16445
8.05337
7.92643
7.77315
7.59559
7.39861
7.19199
6.96238
6.73024
6.48745
6.23951
6.00329
5.74541
1
1
1
1
1
1
1
1
1
1
1
1
1
1
1
1
1
1
1
1
1
1
1
1
1
1
1
1
1
1
1
1
1
1
1
1
1
1
1
1
1
1
1
1
1
1
1
1
1
1
1
1
1
1
1
1
1
1
1
1
1
1
0.999999
1.06655
6.27448
9.21633
9.24929
9.25063
9.25118
9.26144
9.27041
9.26075
9.22006
9.14998
9.07084
8.99231
8.91659
8.83605
8.73689
8.61717
8.47745
8.33947
8.20896
8.0862
7.97042
7.84764
7.70705
7.54354
7.36138
7.16103
6.94071
6.72205
6.48691
6.2511
6.01864
5.77292
1
1
1
1
1
1
1
1
1
1
1
1
1
1
1
1
1
1
1
1
1
1
1
1
1
1
1
1
1
1
1
1
1
1
1
1
1
1
1
1
1
1
1
1
1
1
1
1
1
1
1
1
1
1
1
1
1
1
1
1
1
1
1
1.00031
3.42279
8.71935
9.28946
9.232
9.20722
9.20402
9.20622
9.19593
9.16051
9.09769
9.02105
8.93898
8.85781
8.77623
8.68142
8.56767
8.43513
8.29459
8.15626
8.01958
7.89136
7.76751
7.63481
7.48321
7.31285
7.12015
6.91485
6.70899
6.4869
6.26672
6.04227
5.81054
1
1
1
1
1
1
1
1
1
1
1
1
1
1
1
1
1
1
1
1
1
1
1
1
1
1
1
1
1
1
1
1
1
1
1
1
1
1
1
1
1
1
1
1
1
1
1
1
1
1
1
1
1
1
1
1
1
1
1
1
1
1
1
1
1.35804
7.43324
9.3319
9.21976
9.15973
9.1408
9.12881
9.11397
9.08679
9.03983
8.97202
8.89177
8.80545
8.7183
8.6259
8.5206
8.39805
8.26193
8.12077
7.9729
7.83039
7.69825
7.56477
7.42162
7.26299
7.08066
6.88958
6.69393
6.48709
6.28085
6.06766
5.85109
1
1
1
1
1
1
1
1
1
1
1
1
1
1
1
1
1
1
1
1
1
1
1
1
1
1
1
1
1
1
1
1
1
1
1
1
1
1
1
1
1
1
1
1
1
1
1
1
1
1
1
1
1
1
1
1
1
1
1
1
1
1
1
1
1.01038
4.88633
8.86929
9.08713
9.08964
9.07857
9.06642
9.04643
9.01831
8.97932
8.92089
8.84543
8.75719
8.66363
8.56847
8.469
8.35741
8.22926
8.09134
7.94203
7.79065
7.6467
7.50324
7.3611
7.21041
7.04056
6.8628
6.67748
6.48642
6.29207
6.09166
5.88908
1
1
1
1
1
1
1
1
1
1
1
1
1
1
1
1
1
1
1
1
1
1
1
1
1
1
1
1
1
1
1
1
1
1
1
1
1
1
1
1
1
1
1
1
1
1
1
1
1
1
1
1
1
1
1
1
1
1
1
1
1
1
1
1
0.999994
2.08166
8.14394
9.22636
9.1012
9.03079
8.99457
8.96252
8.93265
8.90144
8.85638
8.7883
8.70403
8.6086
8.50966
8.41147
8.30893
8.19319
8.06603
7.9242
7.77117
7.61716
7.46164
7.31257
7.16348
7.00393
6.83892
6.66536
6.48567
6.29904
6.10742
5.91363
1
1
1
1
1
1
1
1
1
1
1
1
1
1
1
1
1
1
1
1
1
1
1
1
1
1
1
1
1
1
1
1
1
1
1
1
1
1
1
1
1
1
1
1
1
1
1
1
1
1
1
1
1
1
1
1
1
1
1
1
1
1
1
1
0.999998
1.08216
6.11123
8.95072
8.9828
8.96327
8.92439
8.89117
8.86353
8.8385
8.80056
8.7399
8.65889
8.56127
8.45664
8.35543
8.25472
8.15039
8.03634
7.9064
7.75957
7.60203
7.43817
7.28067
7.12813
6.97143
6.81394
6.65085
6.47875
6.29761
6.11321
5.92821
1
1
1
1
1
1
1
1
1
1
1
1
1
1
1
1
1
1
1
1
1
1
1
1
1
1
1
1
1
1
1
1
1
1
1
1
1
1
1
1
1
1
1
1
1
1
1
1
1
1
1
1
1
1
1
1
1
1
1
1
1
1
1
1
1
1.00048
3.03826
8.44486
9.04002
8.96218
8.89273
8.84586
8.8088
8.77986
8.7389
8.68173
8.60557
8.51216
8.40797
8.30359
8.20151
8.10013
7.99708
7.88222
7.74871
7.59683
7.4316
7.2675
7.10836
6.94975
6.7941
6.63695
6.47
6.29361
6.11414
5.93484
1
1
1
1
1
1
1
1
1
1
1
1
1
1
1
1
1
1
1
1
1
1
1
1
1
1
1
1
1
1
1
1
1
1
1
1
1
1
1
1
1
1
1
1
1
1
1
1
1
1
1
1
1
1
1
1
1
1
1
1
1
1
1
1
1
1
1.25248
6.86256
9.02929
8.93119
8.8561
8.79633
8.74917
8.71191
8.67426
8.62579
8.55857
8.47355
8.37412
8.26784
8.16162
8.05673
7.95531
7.84866
7.72733
7.58716
7.42939
7.26438
7.10055
6.93745
6.77759
6.61968
6.45605
6.28615
6.11309
5.93977
1
1
1
1
1
1
1
1
1
1
1
1
1
1
1
1
1
1
1
1
1
1
1
1
1
1
1
1
1
1
1
1
1
1
1
1
1
1
1
1
1
1
1
1
1
1
1
1
1
1
1
1
1
1
1
1
1
1
1
1
1
1
1
1
1
1
1.00473
3.8677
8.46952
8.88461
8.84355
8.78463
8.71809
8.65689
8.6093
8.56206
8.50282
8.42902
8.34058
8.23937
8.13217
8.02299
7.9154
7.80756
7.69305
7.56578
7.42208
7.26561
7.10252
6.93609
6.76988
6.60703
6.44454
6.2817
6.11709
5.94915
1
1
1
1
1
1
1
1
1
1
1
1
1
1
1
1
1
1
1
1
1
1
1
1
1
1
1
1
1
1
1
1
1
1
1
1
1
1
1
1
1
1
1
1
1
1
1
1
1
1
1
1
1
1
1
1
1
1
1
1
1
1
1
1
1
1
1
1.47056
7.24463
8.96632
8.85411
8.76713
8.69638
8.61693
8.54991
8.49664
8.44388
8.38078
8.30599
8.21648
8.11478
8.00579
7.89122
7.77431
7.65595
7.53258
7.39976
7.25549
7.10141
6.93829
6.76965
6.60195
6.43787
6.27873
6.12184
5.95982
1
1
1
1
1
1
1
1
1
1
1
1
1
1
1
1
1
1
1
1
1
1
1
1
1
1
1
1
1
1
1
1
1
1
1
1
1
1
1
1
1
1
1
1
1
1
1
1
1
1
1
1
1
1
1
1
1
1
1
1
1
1
1
1
1
1
1
1.0165
4.45653
8.48121
8.73017
8.70153
8.65369
8.59237
8.52052
8.45196
8.39405
8.33324
8.26521
8.18377
8.08871
7.98397
7.86891
7.74625
7.62155
7.49647
7.3674
7.23363
7.09289
6.94
6.77596
6.60737
6.44069
6.2812
6.12918
5.97361
1
1
1
1
1
1
1
1
1
1
1
1
1
1
1
1
1
1
1
1
1
1
1
1
1
1
1
1
1
1
1
1
1
1
1
1
1
1
1
1
1
1
1
1
1
1
1
1
1
1
1
1
1
1
1
1
1
1
1
1
1
1
1
1
1
1
1
1.00003
1.67242
7.43678
8.87779
8.7197
8.62708
8.5575
8.48804
8.41498
8.34662
8.28411
8.21841
8.14479
8.05894
7.96064
7.84823
7.72701
7.60096
7.4707
7.33779
7.20576
7.07256
6.93152
6.77864
6.61729
6.45296
6.29122
6.1386
5.98742
1
1
1
1
1
1
1
1
1
1
1
1
1
1
1
1
1
1
1
1
1
1
1
1
1
1
1
1
1
1
1
1
1
1
1
1
1
1
1
1
1
1
1
1
1
1
1
1
1
1
1
1
1
1
1
1
1
1
1
1
1
1
1
1
1
1
1
1
1.03265
4.80427
8.43547
8.60205
8.57064
8.51106
8.45119
8.38787
8.31739
8.24509
8.17202
8.1007
8.02022
7.927
7.82048
7.70414
7.57977
7.44841
7.31286
7.17904
7.04958
6.91807
6.77747
6.62785
6.47101
6.30906
6.15327
6.00399
1
1
1
1
1
1
1
1
1
1
1
1
1
1
1
1
1
1
1
1
1
1
1
1
1
1
1
1
1
1
1
1
1
1
1
1
1
1
1
1
1
1
1
1
1
1
1
1
1
1
1
1
1
1
1
1
1
1
1
1
1
1
1
1
1
1
1
1
1.0001
1.81964
7.46483
8.7675
8.61961
8.50645
8.43016
8.35872
8.28553
8.20322
8.1227
8.05275
7.97834
7.89136
7.79132
7.67995
7.55946
7.43135
7.29773
7.1636
7.03343
6.90438
6.77078
6.63153
6.48477
6.32752
6.17087
6.02257
1
1
1
1
1
1
1
1
1
1
1
1
1
1
1
1
1
1
1
1
1
1
1
1
1
1
1
1
1
1
1
1
1
1
1
1
1
1
1
1
1
1
1
1
1
1
1
1
1
1
1
1
1
1
1
1
1
1
1
1
1
1
1
1
1
1
1
1
1
1.04721
4.88962
8.35743
8.49737
8.46037
8.39401
8.32042
8.24792
8.16883
8.08502
8.00772
7.93432
7.85497
7.76165
7.65542
7.54046
7.41752
7.28826
7.15564
7.02349
6.89299
6.76156
6.62898
6.49227
6.34376
6.18973
6.04254
1
1
1
1
1
1
1
1
1
1
1
1
1
1
1
1
1
1
1
1
1
1
1
1
1
1
1
1
1
1
1
1
1
1
1
1
1
1
1
1
1
1
1
1
1
1
1
1
1
1
1
1
1
1
1
1
1
1
1
1
1
1
1
1
1
1
1
1
1
1.00022
1.86402
7.36175
8.64297
8.5114
8.40131
8.31026
8.22499
8.13946
8.05062
7.96488
7.88804
7.81318
7.7292
7.63162
7.52421
7.40771
7.28377
7.1539
7.02057
6.88712
6.75422
6.62336
6.49302
6.35402
6.20634
6.06174
1
1
1
1
1
1
1
1
1
1
1
1
1
1
1
1
1
1
1
1
1
1
1
1
1
1
1
1
1
1
1
1
1
1
1
1
1
1
1
1
1
1
1
1
1
1
1
1
1
1
1
1
1
1
1
1
1
1
1
1
1
1
1
1
1
1
1
1
1
1
1.05118
4.72453
8.23101
8.38738
8.35006
8.28121
8.1979
8.1106
8.02228
7.93526
7.85458
7.77569
7.69506
7.60609
7.50714
7.39902
7.28175
7.1552
7.02115
6.88424
6.74872
6.6178
6.49108
6.36004
6.21965
6.07792
1
1
1
1
1
1
1
1
1
1
1
1
1
1
1
1
1
1
1
1
1
1
1
1
1
1
1
1
1
1
1
1
1
1
1
1
1
1
1
1
1
1
1
1
1
1
1
1
1
1
1
1
1
1
1
1
1
1
1
1
1
1
1
1
1
1