/*--------------------------------*- C++ -*----------------------------------*\
  =========                 |
  \\      /  F ield         | OpenFOAM: The Open Source CFD Toolbox
   \\    /   O peration     | Website:  https://openfoam.org
    \\  /    A nd           | Version:  7
     \\/     M anipulation  |
\*---------------------------------------------------------------------------*/
FoamFile
{
    version     2.0;
    format      ascii;
    class       volScalarField;
    location    "1";
    object      rho;
}
// * * * * * * * * * * * * * * * * * * * * * * * * * * * * * * * * * * * * * //

dimensions      [1 -3 0 0 0 0 0];

internalField   nonuniform List<scalar> 
64512
(
1.40001
1.40001
1.40001
1.40001
1.40001
1.40001
1.40001
1.40001
1.40001
1.40001
1.40001
1.40001
1.40001
1.40001
1.40001
1.40001
1.40001
1.40001
1.40001
1.40001
1.40001
1.40001
1.40001
1.40001
1.40001
1.40001
1.40001
1.40001
1.40001
1.40001
1.40001
1.40001
1.40001
1.40001
1.40001
1.40001
1.40001
1.40001
1.40001
1.40001
1.40001
1.40001
1.40001
1.40001
1.40001
1.40001
1.40001
1.40001
1.40001
1.40001
1.40001
1.40001
1.40001
1.40001
3.42518
5.35796
5.46083
5.48404
5.52535
5.55832
5.60047
5.63913
5.6711
5.68461
5.67557
5.6572
5.64599
5.6472
5.66252
5.69213
5.72883
5.75938
5.77487
5.77862
5.78002
5.7882
5.8053
5.82714
5.84508
5.85265
5.84828
5.83409
5.81731
5.80685
5.80804
5.82301
5.84515
5.86571
5.87688
5.87384
5.84646
5.77431
5.64511
5.4923
5.38004
5.34078
1.40001
1.40001
1.40001
1.40001
1.40001
1.40001
1.40001
1.40001
1.40001
1.40001
1.40001
1.40001
1.40001
1.40001
1.40001
1.40001
1.40001
1.40001
1.40001
1.40001
1.40001
1.40001
1.40001
1.40001
1.40001
1.40001
1.40001
1.40001
1.40001
1.40001
1.40001
1.40001
1.40001
1.40001
1.40001
1.40001
1.40001
1.40001
1.40001
1.40001
1.40001
1.40001
1.40001
1.40001
1.40001
1.40001
1.40001
1.40001
1.40001
1.40001
1.40001
1.40001
1.40001
1.40001
3.40262
5.35999
5.45673
5.4839
5.52371
5.55816
5.60107
5.63963
5.67105
5.68424
5.67483
5.65635
5.64497
5.64657
5.66204
5.69175
5.72812
5.75854
5.77402
5.77795
5.77976
5.78822
5.80531
5.82687
5.8443
5.85136
5.84673
5.83281
5.8168
5.80711
5.80863
5.823
5.84398
5.86364
5.87473
5.87191
5.84415
5.7714
5.64232
5.49041
5.37926
5.3407
1.40001
1.40001
1.40001
1.40001
1.40001
1.40001
1.40001
1.40001
1.40001
1.40001
1.40001
1.40001
1.40001
1.40001
1.40001
1.40001
1.40001
1.40001
1.40001
1.40001
1.40001
1.40001
1.40001
1.40001
1.40001
1.40001
1.40001
1.40001
1.40001
1.40001
1.40001
1.40001
1.40001
1.40001
1.40001
1.40001
1.40001
1.40001
1.40001
1.40001
1.40001
1.40001
1.40001
1.40001
1.40001
1.40001
1.40001
1.40001
1.40001
1.40001
1.40001
1.40001
1.40001
1.40001
3.35727
5.3618
5.44998
5.48073
5.52112
5.55802
5.60103
5.63887
5.66982
5.68319
5.67357
5.65474
5.64316
5.64528
5.66098
5.69074
5.7267
5.7568
5.77211
5.77623
5.77869
5.78777
5.80518
5.82658
5.84336
5.84954
5.84422
5.83038
5.81535
5.807
5.80928
5.82318
5.84302
5.86168
5.87231
5.8685
5.83868
5.76442
5.63574
5.48589
5.377
5.3399
1.40001
1.40001
1.40001
1.40001
1.40001
1.40001
1.40001
1.40001
1.40001
1.40001
1.40001
1.40001
1.40001
1.40001
1.40001
1.40001
1.40001
1.40001
1.40001
1.40001
1.40001
1.40001
1.40001
1.40001
1.40001
1.40001
1.40001
1.40001
1.40001
1.40001
1.40001
1.40001
1.40001
1.40001
1.40001
1.40001
1.40001
1.40001
1.40001
1.40001
1.40001
1.40001
1.40001
1.40001
1.40001
1.40001
1.40001
1.40001
1.40001
1.40001
1.40001
1.40001
1.40001
1.40001
3.29654
5.35189
5.4452
5.47838
5.51928
5.55735
5.60014
5.63743
5.66818
5.68181
5.67169
5.65216
5.64016
5.64297
5.65909
5.68896
5.72445
5.75411
5.76913
5.77338
5.77657
5.78653
5.80452
5.82593
5.84209
5.84735
5.8412
5.82717
5.81295
5.806
5.8093
5.82287
5.84165
5.85935
5.86926
5.86376
5.83103
5.75438
5.62554
5.47801
5.37217
5.33693
1.40001
1.40001
1.40001
1.40001
1.40001
1.40001
1.40001
1.40001
1.40001
1.40001
1.40001
1.40001
1.40001
1.40001
1.40001
1.40001
1.40001
1.40001
1.40001
1.40001
1.40001
1.40001
1.40001
1.40001
1.40001
1.40001
1.40001
1.40001
1.40001
1.40001
1.40001
1.40001
1.40001
1.40001
1.40001
1.40001
1.40001
1.40001
1.40001
1.40001
1.40001
1.40001
1.40001
1.40001
1.40001
1.40001
1.40001
1.40001
1.40001
1.40001
1.40001
1.40001
1.40001
1.40001
3.21888
5.33336
5.44184
5.47602
5.51781
5.5567
5.59894
5.63611
5.66654
5.67974
5.66823
5.64782
5.63579
5.63964
5.65649
5.68655
5.72164
5.75082
5.76547
5.76974
5.77347
5.78422
5.8029
5.82455
5.84041
5.84506
5.83821
5.82378
5.80977
5.80364
5.80804
5.82172
5.83998
5.85704
5.86609
5.85843
5.8224
5.7426
5.6128
5.46716
5.36449
5.33116
1.40001
1.40001
1.40001
1.40001
1.40001
1.40001
1.40001
1.40001
1.40001
1.40001
1.40001
1.40001
1.40001
1.40001
1.40001
1.40001
1.40001
1.40001
1.40001
1.40001
1.40001
1.40001
1.40001
1.40001
1.40001
1.40001
1.40001
1.40001
1.40001
1.40001
1.40001
1.40001
1.40001
1.40001
1.40001
1.40001
1.40001
1.40001
1.40001
1.40001
1.40001
1.40001
1.40001
1.40001
1.40001
1.40001
1.40001
1.40001
1.40001
1.40001
1.40001
1.40001
1.40001
1.40001
3.12409
5.30887
5.43761
5.47204
5.51631
5.55697
5.59819
5.63495
5.66416
5.6757
5.66188
5.64132
5.6307
5.63608
5.65394
5.68409
5.71872
5.74725
5.76142
5.76558
5.76959
5.78078
5.79993
5.82192
5.8379
5.84253
5.83549
5.82082
5.80656
5.80046
5.80528
5.81916
5.83741
5.85421
5.86251
5.85296
5.81413
5.73098
5.59928
5.4543
5.35389
5.32199
1.40001
1.40001
1.40001
1.40001
1.40001
1.40001
1.40001
1.40001
1.40001
1.40001
1.40001
1.40001
1.40001
1.40001
1.40001
1.40001
1.40001
1.40001
1.40001
1.40001
1.40001
1.40001
1.40001
1.40001
1.40001
1.40001
1.40001
1.40001
1.40001
1.40001
1.40001
1.40001
1.40001
1.40001
1.40001
1.40001
1.40001
1.40001
1.40001
1.40001
1.40001
1.40001
1.40001
1.40001
1.40001
1.40001
1.40001
1.40001
1.40001
1.40001
1.40001
1.40001
1.40001
1.40001
3.01305
5.28009
5.43232
5.46675
5.51465
5.55779
5.59835
5.63455
5.66117
5.66908
5.65278
5.63393
5.62624
5.63298
5.65151
5.68118
5.7151
5.74294
5.7568
5.76106
5.76548
5.77697
5.79613
5.81805
5.83415
5.83912
5.83255
5.81823
5.80395
5.79745
5.80169
5.81516
5.83328
5.85004
5.85795
5.84735
5.80669
5.7208
5.58652
5.44066
5.34091
5.30962
1.40001
1.40001
1.40001
1.40001
1.40001
1.40001
1.40001
1.40001
1.40001
1.40001
1.40001
1.40001
1.40001
1.40001
1.40001
1.40001
1.40001
1.40001
1.40001
1.40001
1.40001
1.40001
1.40001
1.40001
1.40001
1.40001
1.40001
1.40001
1.40001
1.40001
1.40001
1.40001
1.40001
1.40001
1.40001
1.40001
1.40001
1.40001
1.40001
1.40001
1.40001
1.40001
1.40001
1.40001
1.40001
1.40001
1.40001
1.40001
1.40001
1.40001
1.40001
1.40001
1.40001
1.40001
2.88641
5.24694
5.42728
5.46166
5.51382
5.55905
5.59981
5.63455
5.65655
5.65874
5.64098
5.62604
5.62245
5.63041
5.64919
5.67798
5.711
5.73812
5.75179
5.75642
5.76156
5.77341
5.79212
5.81316
5.82873
5.8339
5.8284
5.81543
5.80204
5.79533
5.7983
5.81038
5.82746
5.84384
5.8517
5.84117
5.80005
5.71252
5.57546
5.42736
5.3265
5.29495
1.40001
1.40001
1.40001
1.40001
1.40001
1.40001
1.40001
1.40001
1.40001
1.40001
1.40001
1.40001
1.40001
1.40001
1.40001
1.40001
1.40001
1.40001
1.40001
1.40001
1.40001
1.40001
1.40001
1.40001
1.40001
1.40001
1.40001
1.40001
1.40001
1.40001
1.40001
1.40001
1.40001
1.40001
1.40001
1.40001
1.40001
1.40001
1.40001
1.40001
1.40001
1.40001
1.40001
1.40001
1.40001
1.40001
1.40001
1.40001
1.40001
1.40001
1.40001
1.40001
1.40001
1.40001
2.74375
5.20701
5.42516
5.45926
5.51523
5.56023
5.60065
5.63215
5.64938
5.64531
5.62742
5.61819
5.61905
5.62859
5.64712
5.67456
5.70629
5.73235
5.74574
5.75097
5.75734
5.77003
5.78833
5.80795
5.82205
5.82666
5.82228
5.81158
5.80021
5.794
5.79575
5.80551
5.8204
5.83555
5.84338
5.83393
5.79377
5.70562
5.56627
5.41521
5.3119
5.27942
1.40001
1.40001
1.40001
1.40001
1.40001
1.40001
1.40001
1.40001
1.40001
1.40001
1.40001
1.40001
1.40001
1.40001
1.40001
1.40001
1.40001
1.40001
1.40001
1.40001
1.40001
1.40001
1.40001
1.40001
1.40001
1.40001
1.40001
1.40001
1.40001
1.40001
1.40001
1.40001
1.40001
1.40001
1.40001
1.40001
1.40001
1.40001
1.40001
1.40001
1.40001
1.40001
1.40001
1.40001
1.40001
1.40001
1.40001
1.40001
1.40001
1.40001
1.40001
1.40001
1.40001
1.40001
2.58848
5.15841
5.42507
5.45981
5.51825
5.56243
5.59951
5.6264
5.63799
5.62969
5.61537
5.61215
5.61553
5.6273
5.6452
5.6708
5.70083
5.72528
5.7382
5.74415
5.75222
5.76639
5.78473
5.80293
5.81496
5.81803
5.81402
5.80583
5.79744
5.7926
5.79368
5.80088
5.81277
5.8258
5.83325
5.82535
5.78703
5.69919
5.55816
5.40438
5.29817
5.26449
1.40001
1.40001
1.40001
1.40001
1.40001
1.40001
1.40001
1.40001
1.40001
1.40001
1.40001
1.40001
1.40001
1.40001
1.40001
1.40001
1.40001
1.40001
1.40001
1.40001
1.40001
1.40001
1.40001
1.40001
1.40001
1.40001
1.40001
1.40001
1.40001
1.40001
1.40001
1.40001
1.40001
1.40001
1.40001
1.40001
1.40001
1.40001
1.40001
1.40001
1.40001
1.40001
1.40001
1.40001
1.40001
1.40001
1.40001
1.40001
1.40001
1.40001
1.40001
1.40001
1.40001
1.40001
2.41787
5.09051
5.42597
5.46506
5.52108
5.5643
5.59779
5.61817
5.62225
5.61346
5.60566
5.60768
5.61308
5.62683
5.64338
5.66672
5.69508
5.71746
5.72958
5.73594
5.74564
5.76163
5.78057
5.79784
5.80797
5.80932
5.8048
5.79818
5.79298
5.79022
5.79097
5.79601
5.8048
5.81547
5.82218
5.81553
5.77919
5.69247
5.55026
5.39416
5.28515
5.25027
1.40001
1.40001
1.40001
1.40001
1.40001
1.40001
1.40001
1.40001
1.40001
1.40001
1.40001
1.40001
1.40001
1.40001
1.40001
1.40001
1.40001
1.40001
1.40001
1.40001
1.40001
1.40001
1.40001
1.40001
1.40001
1.40001
1.40001
1.40001
1.40001
1.40001
1.40001
1.40001
1.40001
1.40001
1.40001
1.40001
1.40001
1.40001
1.40001
1.40001
1.40001
1.40001
1.40001
1.40001
1.40001
1.40001
1.40001
1.40001
1.40001
1.40001
1.40001
1.40001
1.40001
1.40001
2.23935
4.99985
5.43101
5.47532
5.52476
5.56531
5.59508
5.60743
5.60443
5.59754
5.59812
5.60476
5.6124
5.62681
5.64159
5.6622
5.68937
5.70955
5.72071
5.72707
5.73771
5.7551
5.77482
5.79187
5.80097
5.80128
5.7963
5.79021
5.78698
5.78586
5.78623
5.78984
5.7963
5.80497
5.81104
5.80502
5.77006
5.68469
5.54212
5.38409
5.27259
5.23655
1.40001
1.40001
1.40001
1.40001
1.40001
1.40001
1.40001
1.40001
1.40001
1.40001
1.40001
1.40001
1.40001
1.40001
1.40001
1.40001
1.40001
1.40001
1.40001
1.40001
1.40001
1.40001
1.40001
1.40001
1.40001
1.40001
1.40001
1.40001
1.40001
1.40001
1.40001
1.40001
1.40001
1.40001
1.40001
1.40001
1.40001
1.40001
1.40001
1.40001
1.40001
1.40001
1.40001
1.40001
1.40001
1.40001
1.40001
1.40001
1.40001
1.40001
1.40001
1.40001
1.40001
1.40001
2.06085
4.88025
5.44047
5.4859
5.53033
5.56502
5.58607
5.59165
5.58748
5.58486
5.59175
5.60158
5.61237
5.62699
5.63998
5.65704
5.68328
5.70163
5.71198
5.7184
5.72936
5.74696
5.76663
5.78363
5.79294
5.79374
5.78941
5.78388
5.7809
5.77944
5.77876
5.78126
5.78643
5.79408
5.80011
5.79423
5.75992
5.67561
5.53328
5.37407
5.2607
5.22355
1.40001
1.40001
1.40001
1.40001
1.40001
1.40001
1.40001
1.40001
1.40001
1.40001
1.40001
1.40001
1.40001
1.40001
1.40001
1.40001
1.40001
1.40001
1.40001
1.40001
1.40001
1.40001
1.40001
1.40001
1.40001
1.40001
1.40001
1.40001
1.40001
1.40001
1.40001
1.40001
1.40001
1.40001
1.40001
1.40001
1.40001
1.40001
1.40001
1.40001
1.40001
1.40001
1.40001
1.40001
1.40001
1.40001
1.40001
1.40001
1.40001
1.40001
1.40001
1.40001
1.40001
1.40001
1.88621
4.73537
5.45006
5.49611
5.53291
5.55767
5.56913
5.57166
5.57111
5.57533
5.58756
5.59899
5.61243
5.62557
5.63724
5.65149
5.67498
5.69248
5.7027
5.71018
5.72158
5.73816
5.75607
5.77221
5.78259
5.78572
5.78389
5.78003
5.77621
5.772
5.76893
5.76983
5.7744
5.78234
5.78906
5.78332
5.7492
5.66549
5.52347
5.36356
5.24898
5.21079
1.40001
1.40001
1.40001
1.40001
1.40001
1.40001
1.40001
1.40001
1.40001
1.40001
1.40001
1.40001
1.40001
1.40001
1.40001
1.40001
1.40001
1.40001
1.40001
1.40001
1.40001
1.40001
1.40001
1.40001
1.40001
1.40001
1.40001
1.40001
1.40001
1.40001
1.40001
1.40001
1.40001
1.40001
1.40001
1.40001
1.40001
1.40001
1.40001
1.40001
1.40001
1.40001
1.40001
1.40001
1.40001
1.40001
1.40001
1.40001
1.40001
1.40001
1.40001
1.40001
1.40001
1.40001
1.72079
4.57276
5.46717
5.4975
5.52532
5.54347
5.54992
5.5535
5.55792
5.56842
5.58535
5.59808
5.61264
5.6233
5.63255
5.6447
5.6635
5.68059
5.69192
5.70203
5.71469
5.72952
5.74392
5.75787
5.76906
5.77606
5.77864
5.77766
5.77302
5.76464
5.75764
5.75605
5.76015
5.76906
5.77692
5.77183
5.73808
5.65468
5.51282
5.35236
5.23715
5.19822
1.40001
1.40001
1.40001
1.40001
1.40001
1.40001
1.40001
1.40001
1.40001
1.40001
1.40001
1.40001
1.40001
1.40001
1.40001
1.40001
1.40001
1.40001
1.40001
1.40001
1.40001
1.40001
1.40001
1.40001
1.40001
1.40001
1.40001
1.40001
1.40001
1.40001
1.40001
1.40001
1.40001
1.40001
1.40001
1.40001
1.40001
1.40001
1.40001
1.40001
1.40001
1.40001
1.40001
1.40001
1.40001
1.40001
1.40001
1.40001
1.40001
1.40001
1.40001
1.40001
1.40001
1.40001
1.54802
4.35298
5.47855
5.49303
5.51423
5.52673
5.53295
5.53959
5.54695
5.56368
5.5837
5.59928
5.61355
5.621
5.62605
5.63599
5.64947
5.6651
5.67888
5.693
5.70775
5.72078
5.73111
5.7421
5.7532
5.76394
5.77203
5.77476
5.76982
5.75763
5.74586
5.74112
5.74439
5.75409
5.76318
5.75928
5.72631
5.64317
5.50125
5.34021
5.22481
5.18556
1.40001
1.40001
1.40001
1.40001
1.40001
1.40001
1.40001
1.40001
1.40001
1.40001
1.40001
1.40001
1.40001
1.40001
1.40001
1.40001
1.40001
1.40001
1.40001
1.40001
1.40001
1.40001
1.40001
1.40001
1.40001
1.40001
1.40001
1.40001
1.40001
1.40001
1.40001
1.40001
1.40001
1.40001
1.40001
1.40001
1.40001
1.40001
1.40001
1.40001
1.40001
1.40001
1.40001
1.40001
1.40001
1.40001
1.40001
1.40001
1.40001
1.40001
1.40001
1.40001
1.40001
1.40001
1.41042
4.03971
5.47863
5.46568
5.47881
5.4992
5.51618
5.53021
5.54327
5.56417
5.5842
5.6023
5.61443
5.62016
5.62074
5.62585
5.63401
5.64672
5.66361
5.68257
5.69983
5.71151
5.71874
5.72692
5.73725
5.75038
5.76291
5.76888
5.76448
5.74996
5.73385
5.72588
5.72789
5.73752
5.7474
5.74491
5.7132
5.6306
5.48878
5.32733
5.21209
5.17299
1.40001
1.40001
1.40001
1.40001
1.40001
1.40001
1.40001
1.40001
1.40001
1.40001
1.40001
1.40001
1.40001
1.40001
1.40001
1.40001
1.40001
1.40001
1.40001
1.40001
1.40001
1.40001
1.40001
1.40001
1.40001
1.40001
1.40001
1.40001
1.40001
1.40001
1.40001
1.40001
1.40001
1.40001
1.40001
1.40001
1.40001
1.40001
1.40001
1.40001
1.40001
1.40001
1.40001
1.40001
1.40001
1.40001
1.40001
1.40001
1.40001
1.40001
1.40001
1.40001
1.40001
1.40001
1.4001
3.62128
5.43629
5.44567
5.46171
5.48614
5.50646
5.52394
5.54266
5.56617
5.58707
5.60573
5.61686
5.61947
5.6166
5.61515
5.61756
5.62802
5.64773
5.67046
5.68983
5.70123
5.70704
5.71353
5.72288
5.7368
5.75131
5.7589
5.75531
5.7401
5.72141
5.71094
5.71142
5.72009
5.73004
5.72868
5.69836
5.61658
5.47518
5.31351
5.19851
5.15988
1.40001
1.40001
1.40001
1.40001
1.40001
1.40001
1.40001
1.40001
1.40001
1.40001
1.40001
1.40001
1.40001
1.40001
1.40001
1.40001
1.40001
1.40001
1.40001
1.40001
1.40001
1.40001
1.40001
1.40001
1.40001
1.40001
1.40001
1.40001
1.40001
1.40001
1.40001
1.40001
1.40001
1.40001
1.40001
1.40001
1.40001
1.40001
1.40001
1.40001
1.40001
1.40001
1.40001
1.40001
1.40001
1.40001
1.40001
1.40001
1.40001
1.40001
1.40001
1.40001
1.40001
1.40001
1.40001
3.20101
5.34072
5.43153
5.45121
5.47873
5.50163
5.5227
5.54526
5.56974
5.59141
5.60841
5.61818
5.61723
5.61108
5.60379
5.6023
5.61116
5.63239
5.65637
5.67684
5.6893
5.69579
5.70215
5.71087
5.72435
5.73836
5.74558
5.74186
5.72671
5.70745
5.69545
5.6943
5.70157
5.71091
5.71026
5.68127
5.60077
5.4605
5.29892
5.18408
5.14606
1.40001
1.40001
1.40001
1.40001
1.40001
1.40001
1.40001
1.40001
1.40001
1.40001
1.40001
1.40001
1.40001
1.40001
1.40001
1.40001
1.40001
1.40001
1.40001
1.40001
1.40001
1.40001
1.40001
1.40001
1.40001
1.40001
1.40001
1.40001
1.40001
1.40001
1.40001
1.40001
1.40001
1.40001
1.40001
1.40001
1.40001
1.40001
1.40001
1.40001
1.40001
1.40001
1.40001
1.40001
1.40001
1.40001
1.40001
1.40001
1.40001
1.40001
1.40001
1.40001
1.40001
1.40001
1.40001
2.7923
5.21171
5.42625
5.44604
5.47875
5.50455
5.52767
5.55079
5.57161
5.59097
5.60469
5.61257
5.61025
5.60163
5.59172
5.58873
5.59707
5.61858
5.6416
5.66199
5.67577
5.68436
5.6916
5.70025
5.71247
5.72431
5.72978
5.72499
5.71014
5.69155
5.67882
5.67625
5.68201
5.6904
5.69015
5.66227
5.58339
5.44463
5.28304
5.16773
5.13005
1.40001
1.40001
1.40001
1.40001
1.40001
1.40001
1.40001
1.40001
1.40001
1.40001
1.40001
1.40001
1.40001
1.40001
1.40001
1.40001
1.40001
1.40001
1.40001
1.40001
1.40001
1.40001
1.40001
1.40001
1.40001
1.40001
1.40001
1.40001
1.40001
1.40001
1.40001
1.40001
1.40001
1.40001
1.40001
1.40001
1.40001
1.40001
1.40001
1.40001
1.40001
1.40001
1.40001
1.40001
1.40001
1.40001
1.40001
1.40001
1.40001
1.40001
1.40001
1.40001
1.40001
1.40001
1.40001
2.40316
5.05264
5.42276
5.4527
5.48705
5.51095
5.53289
5.55406
5.57157
5.58626
5.59243
5.59783
5.59703
5.58826
5.57925
5.57592
5.58432
5.60518
5.62634
5.64659
5.66139
5.67206
5.68038
5.68881
5.69935
5.70868
5.71216
5.70637
5.69177
5.67371
5.66015
5.65604
5.66011
5.66726
5.66734
5.64081
5.56433
5.42768
5.26599
5.14943
5.11158
1.40001
1.40001
1.40001
1.40001
1.40001
1.40001
1.40001
1.40001
1.40001
1.40001
1.40001
1.40001
1.40001
1.40001
1.40001
1.40001
1.40001
1.40001
1.40001
1.40001
1.40001
1.40001
1.40001
1.40001
1.40001
1.40001
1.40001
1.40001
1.40001
1.40001
1.40001
1.40001
1.40001
1.40001
1.40001
1.40001
1.40001
1.40001
1.40001
1.40001
1.40001
1.40001
1.40001
1.40001
1.40001
1.40001
1.40001
1.40001
1.40001
1.40001
1.40001
1.40001
1.40001
1.40001
1.40001
2.04058
4.87683
5.45354
5.4597
5.48955
5.5144
5.53743
5.55666
5.57124
5.58142
5.58066
5.58015
5.57674
5.56733
5.5627
5.5621
5.57257
5.59393
5.61394
5.63371
5.64829
5.65927
5.66703
5.67416
5.68282
5.69032
5.69264
5.68688
5.67272
5.65459
5.63954
5.63323
5.63531
5.64126
5.64191
5.6174
5.54408
5.40974
5.24728
5.12816
5.08908
1.40001
1.40001
1.40001
1.40001
1.40001
1.40001
1.40001
1.40001
1.40001
1.40001
1.40001
1.40001
1.40001
1.40001
1.40001
1.40001
1.40001
1.40001
1.40001
1.40001
1.40001
1.40001
1.40001
1.40001
1.40001
1.40001
1.40001
1.40001
1.40001
1.40001
1.40001
1.40001
1.40001
1.40001
1.40001
1.40001
1.40001
1.40001
1.40001
1.40001
1.40001
1.40001
1.40001
1.40001
1.40001
1.40001
1.40001
1.40001
1.40001
1.40001
1.40001
1.40001
1.40001
1.40001
1.40001
1.71468
4.64078
5.49134
5.47008
5.49327
5.51133
5.53009
5.54684
5.56102
5.56927
5.56614
5.55988
5.55467
5.54622
5.54605
5.54978
5.56257
5.58502
5.6055
5.62441
5.63777
5.64697
5.65189
5.65601
5.66215
5.66854
5.67086
5.66646
5.65339
5.63492
5.61753
5.60757
5.60668
5.6111
5.6123
5.59064
5.52158
5.39022
5.22683
5.10427
5.06305
1.40001
1.40001
1.40001
1.40001
1.40001
1.40001
1.40001
1.40001
1.40001
1.40001
1.40001
1.40001
1.40001
1.40001
1.40001
1.40001
1.40001
1.40001
1.40001
1.40001
1.40001
1.40001
1.40001
1.40001
1.40001
1.40001
1.40001
1.40001
1.40001
1.40001
1.40001
1.40001
1.40001
1.40001
1.40001
1.40001
1.40001
1.40001
1.40001
1.40001
1.40001
1.40001
1.40001
1.40001
1.40001
1.40001
1.40001
1.40001
1.40001
1.40001
1.40001
1.40001
1.40001
1.40001
1.40001
1.46471
4.28904
5.45912
5.43956
5.46414
5.48505
5.506
5.52531
5.54452
5.55593
5.55375
5.54376
5.53547
5.52738
5.5304
5.53792
5.55298
5.57718
5.59906
5.61735
5.6292
5.63496
5.63542
5.63554
5.63822
5.64349
5.64644
5.64448
5.63344
5.61478
5.59456
5.57983
5.57487
5.57721
5.57892
5.56076
5.49652
5.36828
5.20344
5.07648
5.03188
1.40001
1.40001
1.40001
1.40001
1.40001
1.40001
1.40001
1.40001
1.40001
1.40001
1.40001
1.40001
1.40001
1.40001
1.40001
1.40001
1.40001
1.40001
1.40001
1.40001
1.40001
1.40001
1.40001
1.40001
1.40001
1.40001
1.40001
1.40001
1.40001
1.40001
1.40001
1.40001
1.40001
1.40001
1.40001
1.40001
1.40001
1.40001
1.40001
1.40001
1.40001
1.40001
1.40001
1.40001
1.40001
1.40001
1.40001
1.40001
1.40001
1.40001
1.40001
1.40001
1.40001
1.40001
1.40001
1.40155
3.8082
5.35734
5.39877
5.43275
5.45976
5.48263
5.50417
5.52568
5.5387
5.54077
5.53147
5.52229
5.51495
5.51872
5.52619
5.54181
5.5676
5.59117
5.60895
5.61903
5.62148
5.61753
5.61338
5.61247
5.61624
5.62006
5.62062
5.61191
5.59346
5.5706
5.55043
5.53998
5.53902
5.54038
5.52538
5.46597
5.34153
5.17606
5.04509
4.99706
1.40001
1.40001
1.40001
1.40001
1.40001
1.40001
1.40001
1.40001
1.40001
1.40001
1.40001
1.40001
1.40001
1.40001
1.40001
1.40001
1.40001
1.40001
1.40001
1.40001
1.40001
1.40001
1.40001
1.40001
1.40001
1.40001
1.40001
1.40001
1.40001
1.40001
1.40001
1.40001
1.40001
1.40001
1.40001
1.40001
1.40001
1.40001
1.40001
1.40001
1.40001
1.40001
1.40001
1.40001
1.40001
1.40001
1.40001
1.40001
1.40001
1.40001
1.40001
1.40001
1.40001
1.40001
1.40001
1.40001
3.31206
5.2172
5.36973
5.40552
5.43662
5.45985
5.48253
5.50638
5.52302
5.52919
5.52474
5.51733
5.51103
5.51135
5.51515
5.52887
5.5543
5.57868
5.59615
5.60451
5.60393
5.59704
5.5894
5.586
5.58837
5.59249
5.59454
5.58756
5.56973
5.54481
5.51928
5.50263
5.49754
5.49806
5.4855
5.43027
5.30916
5.14263
5.0073
4.9551
1.40001
1.40001
1.40001
1.40001
1.40001
1.40001
1.40001
1.40001
1.40001
1.40001
1.40001
1.40001
1.40001
1.40001
1.40001
1.40001
1.40001
1.40001
1.40001
1.40001
1.40001
1.40001
1.40001
1.40001
1.40001
1.40001
1.40001
1.40001
1.40001
1.40001
1.40001
1.40001
1.40001
1.40001
1.40001
1.40001
1.40001
1.40001
1.40001
1.40001
1.40001
1.40001
1.40001
1.40001
1.40001
1.40001
1.40001
1.40001
1.40001
1.40001
1.40001
1.40001
1.40001
1.40001
1.40001
1.40001
2.81059
5.05452
5.34658
5.3891
5.43056
5.45457
5.47405
5.49414
5.51074
5.51941
5.52003
5.51589
5.50978
5.50675
5.50694
5.51739
5.53967
5.5625
5.57829
5.58435
5.58111
5.57257
5.56392
5.55994
5.56102
5.56435
5.5662
5.55967
5.54234
5.51588
5.48618
5.4636
5.45285
5.45056
5.43778
5.38498
5.26717
5.10101
4.96265
4.9077
1.40001
1.40001
1.40001
1.40001
1.40001
1.40001
1.40001
1.40001
1.40001
1.40001
1.40001
1.40001
1.40001
1.40001
1.40001
1.40001
1.40001
1.40001
1.40001
1.40001
1.40001
1.40001
1.40001
1.40001
1.40001
1.40001
1.40001
1.40001
1.40001
1.40001
1.40001
1.40001
1.40001
1.40001
1.40001
1.40001
1.40001
1.40001
1.40001
1.40001
1.40001
1.40001
1.40001
1.40001
1.40001
1.40001
1.40001
1.40001
1.40001
1.40001
1.40001
1.40001
1.40001
1.40001
1.40001
1.40001
2.28359
4.90829
5.39901
5.39942
5.42895
5.44943
5.46727
5.48553
5.50179
5.51254
5.51659
5.51673
5.51333
5.50861
5.50474
5.50983
5.52443
5.54168
5.55411
5.55825
5.55436
5.54596
5.5382
5.53462
5.53448
5.53588
5.53576
5.52819
5.51044
5.48263
5.44991
5.42223
5.40542
5.3983
5.38414
5.33354
5.2181
5.05011
4.9057
4.84481
1.40001
1.40001
1.40001
1.40001
1.40001
1.40001
1.40001
1.40001
1.40001
1.40001
1.40001
1.40001
1.40001
1.40001
1.40001
1.40001
1.40001
1.40001
1.40001
1.40001
1.40001
1.40001
1.40001
1.40001
1.40001
1.40001
1.40001
1.40001
1.40001
1.40001
1.40001
1.40001
1.40001
1.40001
1.40001
1.40001
1.40001
1.40001
1.40001
1.40001
1.40001
1.40001
1.40001
1.40001
1.40001
1.40001
1.40001
1.40001
1.40001
1.40001
1.40001
1.40001
1.40001
1.40001
1.40001
1.40001
1.7742
4.72578
5.4927
5.44957
5.45626
5.46748
5.48084
5.49429
5.50621
5.51581
5.52076
5.52084
5.51431
5.50161
5.49172
5.49273
5.50234
5.51692
5.52821
5.5317
5.52767
5.51908
5.51241
5.50943
5.50813
5.50717
5.50356
5.49311
5.47366
5.44443
5.40939
5.37793
5.35499
5.34065
5.32208
5.26938
5.15236
4.98186
4.83154
4.76912
1.40001
1.40001
1.40001
1.40001
1.40001
1.40001
1.40001
1.40001
1.40001
1.40001
1.40001
1.40001
1.40001
1.40001
1.40001
1.40001
1.40001
1.40001
1.40001
1.40001
1.40001
1.40001
1.40001
1.40001
1.40001
1.40001
1.40001
1.40001
1.40001
1.40001
1.40001
1.40001
1.40001
1.40001
1.40001
1.40001
1.40001
1.40001
1.40001
1.40001
1.40001
1.40001
1.40001
1.40001
1.40001
1.40001
1.40001
1.40001
1.40001
1.40001
1.40001
1.40001
1.40001
1.40001
1.40001
1.40001
1.43492
4.29469
5.43732
5.3984
5.41096
5.43046
5.45086
5.4692
5.48504
5.49874
5.5083
5.5124
5.50698
5.49104
5.47702
5.47396
5.47868
5.48969
5.50103
5.50548
5.50216
5.4935
5.48787
5.48525
5.48214
5.4777
5.46954
5.45493
5.43245
5.40138
5.36415
5.32939
5.29996
5.27723
5.25155
5.19623
5.07808
4.90171
4.73585
4.65197
1.40001
1.40001
1.40001
1.40001
1.40001
1.40001
1.40001
1.40001
1.40001
1.40001
1.40001
1.40001
1.40001
1.40001
1.40001
1.40001
1.40001
1.40001
1.40001
1.40001
1.40001
1.40001
1.40001
1.40001
1.40001
1.40001
1.40001
1.40001
1.40001
1.40001
1.40001
1.40001
1.40001
1.40001
1.40001
1.40001
1.40001
1.40001
1.40001
1.40001
1.40001
1.40001
1.40001
1.40001
1.40001
1.40001
1.40001
1.40001
1.40001
1.40001
1.40001
1.40001
1.40001
1.40001
1.40001
1.40001
1.40023
3.6452
5.26451
5.3454
5.38313
5.41605
5.43576
5.45141
5.46684
5.48179
5.49298
5.49807
5.49316
5.47616
5.45924
5.45264
5.45344
5.46058
5.47205
5.47885
5.4774
5.47023
5.4653
5.46162
5.45571
5.44691
5.43338
5.41377
5.38744
5.35394
5.31438
5.27546
5.24002
5.20837
5.17162
5.10808
4.97799
4.77853
4.58491
4.48373
1.40001
1.40001
1.40001
1.40001
1.40001
1.40001
1.40001
1.40001
1.40001
1.40001
1.40001
1.40001
1.40001
1.40001
1.40001
1.40001
1.40001
1.40001
1.40001
1.40001
1.40001
1.40001
1.40001
1.40001
1.40001
1.40001
1.40001
1.40001
1.40001
1.40001
1.40001
1.40001
1.40001
1.40001
1.40001
1.40001
1.40001
1.40001
1.40001
1.40001
1.40001
1.40001
1.40001
1.40001
1.40001
1.40001
1.40001
1.40001
1.40001
1.40001
1.40001
1.40001
1.40001
1.40001
1.40001
1.40001
1.4
3.04019
5.11666
5.32587
5.36252
5.39447
5.41767
5.43532
5.44961
5.46357
5.47462
5.47958
5.47571
5.45886
5.44014
5.43016
5.42747
5.43118
5.44214
5.45196
5.45293
5.44822
5.44323
5.43696
5.42805
5.41474
5.39543
5.37022
5.33987
5.3037
5.26138
5.21658
5.17406
5.13202
5.08125
5.00288
4.86422
4.6441
4.40111
4.26702
1.40001
1.40001
1.40001
1.40001
1.40001
1.40001
1.40001
1.40001
1.40001
1.40001
1.40001
1.40001
1.40001
1.40001
1.40001
1.40001
1.40001
1.40001
1.40001
1.40001
1.40001
1.40001
1.40001
1.40001
1.40001
1.40001
1.40001
1.40001
1.40001
1.40001
1.40001
1.40001
1.40001
1.40001
1.40001
1.40001
1.40001
1.40001
1.40001
1.40001
1.40001
1.40001
1.40001
1.40001
1.40001
1.40001
1.40001
1.40001
1.40001
1.40001
1.40001
1.40001
1.40001
1.40001
1.40001
1.40001
1.4
2.40235
4.93753
5.35423
5.35624
5.37698
5.40192
5.42064
5.4344
5.44685
5.45702
5.46135
5.45863
5.44226
5.42197
5.40905
5.4034
5.40431
5.41319
5.42457
5.42713
5.42423
5.4192
5.41054
5.39823
5.37998
5.35533
5.32512
5.29141
5.25257
5.20657
5.15444
5.102
5.04835
4.98286
4.88636
4.72515
4.45757
4.00035
3.09657
1.40001
1.40001
1.40001
1.40001
1.40001
1.40001
1.40001
1.40001
1.40001
1.40001
1.40001
1.40001
1.40001
1.40001
1.40001
1.40001
1.40001
1.40001
1.40001
1.40001
1.40001
1.40001
1.40001
1.40001
1.40001
1.40001
1.40001
1.40001
1.40001
1.40001
1.40001
1.40001
1.40001
1.40001
1.40001
1.40001
1.40001
1.40001
1.40001
1.40001
1.40001
1.40001
1.40001
1.40001
1.40001
1.40001
1.40001
1.40001
1.40001
1.40001
1.40001
1.40001
1.40001
1.40001
1.40001
1.40001
1.40001
1.79005
4.72866
5.4391
5.38173
5.38182
5.39556
5.40889
5.42104
5.43269
5.44272
5.44669
5.44503
5.42902
5.40726
5.39124
5.38185
5.37969
5.38471
5.39618
5.40091
5.40047
5.39448
5.38123
5.36355
5.34028
5.31184
5.27843
5.24249
5.20136
5.15131
5.09167
5.02652
4.95837
4.87629
4.75894
4.56176
4.24715
3.71577
2.73333
1.40001
1.40001
1.40001
1.40001
1.40001
1.40001
1.40001
1.40001
1.40001
1.40001
1.40001
1.40001
1.40001
1.40001
1.40001
1.40001
1.40001
1.40001
1.40001
1.40001
1.40001
1.40001
1.40001
1.40001
1.40001
1.40001
1.40001
1.40001
1.40001
1.40001
1.40001
1.40001
1.40001
1.40001
1.40001
1.40001
1.40001
1.40001
1.40001
1.40001
1.40001
1.40001
1.40001
1.40001
1.40001
1.40001
1.40001
1.40001
1.40001
1.40001
1.40001
1.40001
1.40001
1.40001
1.40001
1.40001
1.40001
1.43279
4.19539
5.36141
5.33962
5.35233
5.37398
5.39171
5.40615
5.41874
5.42961
5.43412
5.43348
5.4186
5.39613
5.37678
5.36363
5.35912
5.36096
5.37103
5.37667
5.37641
5.3675
5.34896
5.32525
5.29724
5.26565
5.23024
5.19267
5.1499
5.09637
5.0301
4.95138
4.86622
4.76512
4.63105
4.41057
4.08913
3.49282
2.65541
1.40001
1.40001
1.40001
1.40001
1.40001
1.40001
1.40001
1.40001
1.40001
1.40001
1.40001
1.40001
1.40001
1.40001
1.40001
1.40001
1.40001
1.40001
1.40001
1.40001
1.40001
1.40001
1.40001
1.40001
1.40001
1.40001
1.40001
1.40001
1.40001
1.40001
1.40001
1.40001
1.40001
1.40001
1.40001
1.40001
1.40001
1.40001
1.40001
1.40001
1.40001
1.40001
1.40001
1.40001
1.40001
1.40001
1.40001
1.40001
1.40001
1.40001
1.40001
1.40001
1.40001
1.40001
1.40001
1.40001
1.40001
1.40016
3.44088
5.18765
5.31212
5.33998
5.36742
5.38596
5.4009
5.41262
5.42176
5.42532
5.42409
5.40948
5.38621
5.36411
5.34786
5.34104
5.34048
5.348
5.35386
5.35295
5.34023
5.31523
5.28477
5.25168
5.21704
5.18031
5.1412
5.0972
5.04138
4.97014
4.87981
4.77737
4.65695
4.50561
4.27935
3.94229
3.38443
2.68984
1.40001
1.40001
1.40001
1.40001
1.40001
1.40001
1.40001
1.40001
1.40001
1.40001
1.40001
1.40001
1.40001
1.40001
1.40001
1.40001
1.40001
1.40001
1.40001
1.40001
1.40001
1.40001
1.40001
1.40001
1.40001
1.40001
1.40001
1.40001
1.40001
1.40001
1.40001
1.40001
1.40001
1.40001
1.40001
1.40001
1.40001
1.40001
1.40001
1.40001
1.40001
1.40001
1.40001
1.40001
1.40001
1.40001
1.40001
1.40001
1.40001
1.40001
1.40001
1.40001
1.40001
1.40001
1.40001
1.40001
1.40001
1.4
2.69616
5.00752
5.3102
5.32857
5.35083
5.37244
5.38922
5.40111
5.40944
5.41311
5.41184
5.39862
5.37574
5.35182
5.33249
5.32252
5.31985
5.32402
5.3289
5.32677
5.31138
5.2811
5.24478
5.20649
5.16839
5.12981
5.08844
5.04274
4.98536
4.91087
4.81291
4.69539
4.55827
4.38839
4.163
3.82583
3.34836
2.79346
1.40001
1.40001
1.40001
1.40001
1.40001
1.40001
1.40001
1.40001
1.40001
1.40001
1.40001
1.40001
1.40001
1.40001
1.40001
1.40001
1.40001
1.40001
1.40001
1.40001
1.40001
1.40001
1.40001
1.40001
1.40001
1.40001
1.40001
1.40001
1.40001
1.40001
1.40001
1.40001
1.40001
1.40001
1.40001
1.40001
1.40001
1.40001
1.40001
1.40001
1.40001
1.40001
1.40001
1.40001
1.40001
1.40001
1.40001
1.40001
1.40001
1.40001
1.40001
1.40001
1.40001
1.40001
1.40001
1.40001
1.40001
1.4
1.96989
4.82811
5.37087
5.33222
5.33753
5.35647
5.37271
5.38406
5.39126
5.39483
5.39361
5.38239
5.36062
5.33582
5.31391
5.30006
5.29572
5.29731
5.3007
5.29759
5.28083
5.24757
5.20701
5.16406
5.12206
5.08056
5.0359
4.98721
4.92786
4.85126
4.74986
4.62261
4.47238
4.28967
4.06322
3.74716
3.35163
2.88549
1.40001
1.40001
1.40001
1.40001
1.40001
1.40001
1.40001
1.40001
1.40001
1.40001
1.40001
1.40001
1.40001
1.40001
1.40001
1.40001
1.40001
1.40001
1.40001
1.40001
1.40001
1.40001
1.40001
1.40001
1.40001
1.40001
1.40001
1.40001
1.40001
1.40001
1.40001
1.40001
1.40001
1.40001
1.40001
1.40001
1.40001
1.40001
1.40001
1.40001