/*--------------------------------*- C++ -*----------------------------------*\
  =========                 |
  \\      /  F ield         | OpenFOAM: The Open Source CFD Toolbox
   \\    /   O peration     | Website:  https://openfoam.org
    \\  /    A nd           | Version:  7
     \\/     M anipulation  |
\*---------------------------------------------------------------------------*/
FoamFile
{
    version     2.0;
    format      ascii;
    class       volScalarField;
    location    "1";
    object      T;
}
// * * * * * * * * * * * * * * * * * * * * * * * * * * * * * * * * * * * * * //

dimensions      [0 0 0 1 0 0 0];

internalField   nonuniform List<scalar> 
64512
(
1
1
1
1
1
1
1
1
1
1
1
1
1
1
1
1
1
1
1
1
1
1
1
1
1
1
1
1
1
1
1
1
1
1
1
1
1
1
1
1
1
1
1
1
1
1
1
1
1
1
1
1
1
1
2.11924
2.75254
2.78272
2.78215
2.78337
2.77831
2.77155
2.76812
2.7708
2.78072
2.79542
2.80893
2.81564
2.81574
2.81485
2.81406
2.81594
2.82058
2.82742
2.83508
2.84161
2.8467
2.8508
2.85483
2.85911
2.86346
2.86651
2.86752
2.86796
2.86857
2.87097
2.87656
2.88343
2.89048
2.89781
2.90756
2.9269
2.96893
3.04081
3.12765
3.19303
3.21697
1
1
1
1
1
1
1
1
1
1
1
1
1
1
1
1
1
1
1
1
1
1
1
1
1
1
1
1
1
1
1
1
1
1
1
1
1
1
1
1
1
1
1
1
1
1
1
1
1
1
1
1
1
1
2.11167
2.75297
2.78254
2.78222
2.78263
2.77768
2.77127
2.76809
2.77079
2.78068
2.79529
2.80878
2.81543
2.81559
2.81471
2.81397
2.81583
2.82047
2.82734
2.83503
2.8416
2.84669
2.85076
2.85476
2.85897
2.86322
2.86623
2.86733
2.86789
2.86867
2.87114
2.87658
2.88322
2.89008
2.89745
2.90739
2.92681
2.96891
3.04089
3.12781
3.19331
3.21737
1
1
1
1
1
1
1
1
1
1
1
1
1
1
1
1
1
1
1
1
1
1
1
1
1
1
1
1
1
1
1
1
1
1
1
1
1
1
1
1
1
1
1
1
1
1
1
1
1
1
1
1
1
1
2.09569
2.75332
2.78155
2.78134
2.78106
2.77623
2.77042
2.76769
2.77048
2.78045
2.79503
2.80847
2.81506
2.81529
2.81442
2.81376
2.81564
2.8203
2.82719
2.83488
2.84146
2.84654
2.85061
2.85461
2.85879
2.8629
2.86579
2.86697
2.8677
2.86873
2.87137
2.87665
2.88308
2.88975
2.89716
2.90724
2.92679
2.96928
3.04173
3.12884
3.19437
3.21856
1
1
1
1
1
1
1
1
1
1
1
1
1
1
1
1
1
1
1
1
1
1
1
1
1
1
1
1
1
1
1
1
1
1
1
1
1
1
1
1
1
1
1
1
1
1
1
1
1
1
1
1
1
1
2.07679
2.75347
2.7794
2.77919
2.77883
2.77451
2.76934
2.76703
2.76993
2.78006
2.79465
2.80802
2.81448
2.81479
2.81395
2.81343
2.81534
2.82005
2.82693
2.83457
2.84112
2.84617
2.85027
2.85431
2.8585
2.86251
2.86526
2.86649
2.86735
2.86863
2.87147
2.87664
2.88289
2.8894
2.89682
2.90706
2.92702
2.97032
3.0436
3.13097
3.19634
3.22051
1
1
1
1
1
1
1
1
1
1
1
1
1
1
1
1
1
1
1
1
1
1
1
1
1
1
1
1
1
1
1
1
1
1
1
1
1
1
1
1
1
1
1
1
1
1
1
1
1
1
1
1
1
1
2.05348
2.75432
2.77632
2.77581
2.776
2.77259
2.76805
2.76609
2.76915
2.77959
2.79421
2.80748
2.8137
2.81409
2.81328
2.81292
2.81491
2.8197
2.82658
2.83411
2.84054
2.8455
2.84962
2.85377
2.85806
2.86207
2.86472
2.86598
2.86686
2.86826
2.87129
2.87645
2.88265
2.88909
2.89649
2.90683
2.92735
2.97174
3.04617
3.13394
3.19909
3.22314
1
1
1
1
1
1
1
1
1
1
1
1
1
1
1
1
1
1
1
1
1
1
1
1
1
1
1
1
1
1
1
1
1
1
1
1
1
1
1
1
1
1
1
1
1
1
1
1
1
1
1
1
1
1
2.02348
2.75445
2.77297
2.77207
2.7729
2.77016
2.76607
2.76453
2.76792
2.7791
2.7939
2.80704
2.81287
2.81328
2.81246
2.81224
2.81434
2.81925
2.82615
2.83354
2.83974
2.84452
2.84861
2.85286
2.85736
2.86152
2.86422
2.86551
2.86634
2.8677
2.87078
2.87596
2.88223
2.88869
2.89604
2.90646
2.92761
2.97319
3.04891
3.13724
3.20224
3.22613
1
1
1
1
1
1
1
1
1
1
1
1
1
1
1
1
1
1
1
1
1
1
1
1
1
1
1
1
1
1
1
1
1
1
1
1
1
1
1
1
1
1
1
1
1
1
1
1
1
1
1
1
1
1
1.98515
2.7515
2.76993
2.76845
2.76966
2.76718
2.76321
2.76229
2.7664
2.77888
2.794
2.80698
2.81215
2.81233
2.81133
2.81115
2.81338
2.81849
2.82552
2.83286
2.83886
2.8434
2.84735
2.85162
2.85631
2.86072
2.86363
2.86504
2.86589
2.86714
2.87003
2.87516
2.88147
2.888
2.89534
2.90589
2.9277
2.97439
3.05131
3.14028
3.20528
3.22906
1
1
1
1
1
1
1
1
1
1
1
1
1
1
1
1
1
1
1
1
1
1
1
1
1
1
1
1
1
1
1
1
1
1
1
1
1
1
1
1
1
1
1
1
1
1
1
1
1
1
1
1
1
1
1.93712
2.7433
2.76734
2.76509
2.76632
2.7635
2.75955
2.75947
2.76511
2.77916
2.79476
2.80727
2.8114
2.81113
2.80968
2.80954
2.81192
2.81734
2.82469
2.83213
2.83799
2.84228
2.84597
2.8501
2.85481
2.85945
2.86274
2.86444
2.8655
2.86671
2.86928
2.87415
2.88031
2.88684
2.89423
2.90504
2.92756
2.97519
3.05307
3.14266
3.20775
3.23145
1
1
1
1
1
1
1
1
1
1
1
1
1
1
1
1
1
1
1
1
1
1
1
1
1
1
1
1
1
1
1
1
1
1
1
1
1
1
1
1
1
1
1
1
1
1
1
1
1
1
1
1
1
1
1.87797
2.72945
2.76514
2.76193
2.76254
2.75867
2.75499
2.75619
2.76468
2.78032
2.79654
2.80786
2.81046
2.80948
2.80742
2.80732
2.80988
2.8157
2.82351
2.83122
2.83709
2.84117
2.84458
2.84845
2.85299
2.85768
2.86136
2.86355
2.86504
2.86638
2.86869
2.87308
2.87883
2.88516
2.8926
2.90381
2.92701
2.97547
3.05411
3.14418
3.20929
3.23293
1
1
1
1
1
1
1
1
1
1
1
1
1
1
1
1
1
1
1
1
1
1
1
1
1
1
1
1
1
1
1
1
1
1
1
1
1
1
1
1
1
1
1
1
1
1
1
1
1
1
1
1
1
1
1.80862
2.7109
2.76269
2.75857
2.75739
2.75246
2.75003
2.75364
2.76561
2.78288
2.79915
2.80839
2.80897
2.80723
2.80448
2.80443
2.80724
2.81352
2.82193
2.83006
2.83607
2.84002
2.8432
2.84678
2.85102
2.85553
2.85943
2.86225
2.8643
2.86594
2.86822
2.87207
2.87719
2.88307
2.8905
2.90212
2.9259
2.97516
3.05444
3.14485
3.20987
3.2334
1
1
1
1
1
1
1
1
1
1
1
1
1
1
1
1
1
1
1
1
1
1
1
1
1
1
1
1
1
1
1
1
1
1
1
1
1
1
1
1
1
1
1
1
1
1
1
1
1
1
1
1
1
1
1.72745
2.68672
2.75871
2.75376
2.75029
2.74581
2.74601
2.75295
2.76844
2.78677
2.8017
2.80824
2.80717
2.80423
2.80084
2.80096
2.80415
2.81101
2.82013
2.82872
2.83482
2.83868
2.84169
2.84504
2.84902
2.8533
2.85721
2.86049
2.86312
2.86517
2.86758
2.87107
2.87548
2.88078
2.88807
2.89998
2.92414
2.97405
3.05404
3.14486
3.20976
3.23316
1
1
1
1
1
1
1
1
1
1
1
1
1
1
1
1
1
1
1
1
1
1
1
1
1
1
1
1
1
1
1
1
1
1
1
1
1
1
1
1
1
1
1
1
1
1
1
1
1
1
1
1
1
1
1.63259
2.65563
2.75268
2.74657
2.74196
2.74012
2.74378
2.75506
2.77282
2.79105
2.80352
2.80682
2.80461
2.80053
2.79663
2.79695
2.8008
2.80844
2.81842
2.82739
2.83338
2.837
2.83985
2.84308
2.84693
2.85114
2.85507
2.85854
2.86153
2.86393
2.86644
2.86982
2.87371
2.87843
2.8855
2.89748
2.92173
2.97197
3.05266
3.14419
3.20924
3.23256
1
1
1
1
1
1
1
1
1
1
1
1
1
1
1
1
1
1
1
1
1
1
1
1
1
1
1
1
1
1
1
1
1
1
1
1
1
1
1
1
1
1
1
1
1
1
1
1
1
1
1
1
1
1
1.52872
2.61556
2.74346
2.73661
2.73408
2.73619
2.74436
2.75992
2.77828
2.79447
2.80395
2.80409
2.80114
2.79609
2.79197
2.79246
2.79727
2.80603
2.81704
2.82629
2.83187
2.83495
2.8375
2.84064
2.84457
2.84898
2.85316
2.85678
2.85986
2.86223
2.86465
2.86801
2.87168
2.87601
2.8829
2.89473
2.91873
2.96895
3.05012
3.14251
3.20814
3.23158
1
1
1
1
1
1
1
1
1
1
1
1
1
1
1
1
1
1
1
1
1
1
1
1
1
1
1
1
1
1
1
1
1
1
1
1
1
1
1
1
1
1
1
1
1
1
1
1
1
1
1
1
1
1
1.41399
2.56107
2.72964
2.72613
2.7287
2.7356
2.7482
2.76576
2.78295
2.79608
2.8024
2.80081
2.79668
2.79079
2.78682
2.78765
2.79353
2.80389
2.81602
2.82546
2.83039
2.83266
2.83462
2.83756
2.84174
2.8467
2.85146
2.85542
2.85839
2.86025
2.86232
2.8655
2.86914
2.87344
2.88026
2.89178
2.91527
2.9651
3.04646
3.13971
3.20628
3.23001
1
1
1
1
1
1
1
1
1
1
1
1
1
1
1
1
1
1
1
1
1
1
1
1
1
1
1
1
1
1
1
1
1
1
1
1
1
1
1
1
1
1
1
1
1
1
1
1
1
1
1
1
1
1
1.28687
2.48844
2.71393
2.71987
2.72865
2.74007
2.75502
2.7713
2.78561
2.79561
2.79876
2.79628
2.79137
2.78503
2.78137
2.78279
2.78974
2.80196
2.8152
2.82472
2.82893
2.83022
2.83134
2.83382
2.83829
2.8441
2.84975
2.85434
2.8571
2.85816
2.85964
2.86237
2.86601
2.87059
2.87743
2.88859
2.91141
2.96056
3.04178
3.13582
3.20354
3.2277
1
1
1
1
1
1
1
1
1
1
1
1
1
1
1
1
1
1
1
1
1
1
1
1
1
1
1
1
1
1
1
1
1
1
1
1
1
1
1
1
1
1
1
1
1
1
1
1
1
1
1
1
1
1
1.13312
2.39544
2.70514
2.72021
2.73354
2.74781
2.76196
2.77467
2.78542
2.79277
2.79324
2.79057
2.78524
2.77899
2.776
2.77829
2.78638
2.80015
2.81427
2.82371
2.82718
2.82755
2.82781
2.82969
2.83436
2.84107
2.84779
2.8531
2.8557
2.85599
2.85679
2.85891
2.86246
2.86738
2.87429
2.88511
2.90718
2.9554
3.03618
3.13084
3.19982
3.22455
1
1
1
1
1
1
1
1
1
1
1
1
1
1
1
1
1
1
1
1
1
1
1
1
1
1
1
1
1
1
1
1
1
1
1
1
1
1
1
1
1
1
1
1
1
1
1
1
1
1
1
1
1
1
1.00592
2.29438
2.70755
2.72242
2.73759
2.75276
2.76519
2.77531
2.78307
2.78762
2.78673
2.78383
2.77847
2.77334
2.77172
2.77478
2.78395
2.79851
2.81297
2.82194
2.82473
2.82455
2.82416
2.82566
2.83044
2.83782
2.84534
2.85116
2.85373
2.85357
2.85381
2.85536
2.85871
2.86379
2.87071
2.88121
2.90248
2.94957
3.02967
3.12484
3.19517
3.22063
1
1
1
1
1
1
1
1
1
1
1
1
1
1
1
1
1
1
1
1
1
1
1
1
1
1
1
1
1
1
1
1
1
1
1
1
1
1
1
1
1
1
1
1
1
1
1
1
1
1
1
1
1
1
1.00003
2.17046
2.70827
2.73262
2.74501
2.7564
2.76515
2.77236
2.77732
2.77993
2.77893
2.77643
2.77233
2.76889
2.76878
2.77292
2.78282
2.79734
2.81124
2.81919
2.82133
2.8209
2.82032
2.82186
2.82692
2.83466
2.84242
2.84833
2.85094
2.85062
2.85055
2.85182
2.85497
2.85996
2.86675
2.87686
2.89726
2.94303
3.02224
3.11784
3.18956
3.21587
1
1
1
1
1
1
1
1
1
1
1
1
1
1
1
1
1
1
1
1
1
1
1
1
1
1
1
1
1
1
1
1
1
1
1
1
1
1
1
1
1
1
1
1
1
1
1
1
1
1
1
1
1
1
1
2.03195
2.70156
2.73981
2.74756
2.75524
2.76105
2.76502
2.76811
2.7702
2.77049
2.76926
2.76729
2.76589
2.76718
2.77281
2.78307
2.79644
2.80882
2.81524
2.81671
2.81633
2.81618
2.81833
2.824
2.83186
2.83928
2.84479
2.84726
2.84694
2.84681
2.84803
2.8511
2.85585
2.86236
2.87197
2.89145
2.93575
3.01396
3.10993
3.18305
3.21027
1
1
1
1
1
1
1
1
1
1
1
1
1
1
1
1
1
1
1
1
1
1
1
1
1
1
1
1
1
1
1
1
1
1
1
1
1
1
1
1
1
1
1
1
1
1
1
1
1
1
1
1
1
1
1
1.87959
2.68137
2.74142
2.74425
2.74909
2.75229
2.75461
2.75695
2.75931
2.76156
2.76228
2.7629
2.76403
2.76702
2.77374
2.78382
2.79539
2.80556
2.81013
2.81102
2.81079
2.81156
2.81509
2.82155
2.8293
2.83601
2.84071
2.8428
2.84262
2.84254
2.84382
2.84695
2.8515
2.85764
2.86668
2.88515
2.9279
3.00497
3.10114
3.17546
3.20352
1
1
1
1
1
1
1
1
1
1
1
1
1
1
1
1
1
1
1
1
1
1
1
1
1
1
1
1
1
1
1
1
1
1
1
1
1
1
1
1
1
1
1
1
1
1
1
1
1
1
1
1
1
1
1
1.70337
2.63457
2.73374
2.73511
2.73869
2.74078
2.74308
2.74629
2.7501
2.75409
2.75645
2.75943
2.76321
2.76746
2.77498
2.78418
2.79337
2.80098
2.80374
2.8043
2.80458
2.80671
2.81185
2.81908
2.82658
2.83249
2.83625
2.83787
2.83785
2.83779
2.83911
2.84228
2.84662
2.85234
2.86081
2.87829
2.9195
2.99535
3.09154
3.16682
3.19561
1
1
1
1
1
1
1
1
1
1
1
1
1
1
1
1
1
1
1
1
1
1
1
1
1
1
1
1
1
1
1
1
1
1
1
1
1
1
1
1
1
1
1
1
1
1
1
1
1
1
1
1
1
1
1
1.48983
2.55297
2.7192
2.72101
2.72662
2.73049
2.73468
2.73979
2.7457
2.75144
2.75479
2.75824
2.76248
2.76703
2.77465
2.78277
2.78972
2.79519
2.79678
2.7973
2.79826
2.80184
2.80837
2.81611
2.82324
2.82841
2.8314
2.83268
2.83275
2.83273
2.83397
2.83698
2.84105
2.84638
2.85438
2.87099
2.91066
2.98511
3.081
3.1569
3.18615
1
1
1
1
1
1
1
1
1
1
1
1
1
1
1
1
1
1
1
1
1
1
1
1
1
1
1
1
1
1
1
1
1
1
1
1
1
1
1
1
1
1
1
1
1
1
1
1
1
1
1
1
1
1
1
1.25081
2.44957
2.70921
2.71049
2.71801
2.72374
2.72962
2.73656
2.74445
2.75134
2.75518
2.75808
2.76209
2.7664
2.77314
2.77927
2.78414
2.78826
2.78965
2.79056
2.79249
2.79741
2.80484
2.81258
2.8191
2.82357
2.82604
2.82726
2.82744
2.82749
2.82852
2.83103
2.83462
2.83944
2.84706
2.86293
2.90107
2.97395
3.06937
3.14574
3.17529
1
1
1
1
1
1
1
1
1
1
1
1
1
1
1
1
1
1
1
1
1
1
1
1
1
1
1
1
1
1
1
1
1
1
1
1
1
1
1
1
1
1
1
1
1
1
1
1
1
1
1
1
1
1
1
1.05438
2.35577
2.70581
2.70544
2.71254
2.71953
2.72685
2.73524
2.74461
2.75234
2.75656
2.75867
2.76151
2.76458
2.76925
2.77318
2.77671
2.7804
2.78245
2.78435
2.78768
2.79376
2.80147
2.80868
2.81421
2.81795
2.82005
2.82146
2.8219
2.82209
2.82284
2.82463
2.82745
2.8316
2.83888
2.85414
2.89065
2.96166
3.05631
3.13299
3.16263
1
1
1
1
1
1
1
1
1
1
1
1
1
1
1
1
1
1
1
1
1
1
1
1
1
1
1
1
1
1
1
1
1
1
1
1
1
1
1
1
1
1
1
1
1
1
1
1
1
1
1
1
1
1
1
1.00091
2.23592
2.70583
2.71039
2.71543
2.72093
2.72714
2.73486
2.74401
2.75182
2.75674
2.75834
2.75976
2.76082
2.76304
2.76495
2.76774
2.77178
2.77512
2.77855
2.7836
2.79074
2.79809
2.80445
2.80872
2.81165
2.81348
2.81513
2.81604
2.8164
2.81687
2.81781
2.81961
2.82287
2.82954
2.84405
2.87872
2.94761
3.04146
3.11867
3.14854
1
1
1
1
1
1
1
1
1
1
1
1
1
1
1
1
1
1
1
1
1
1
1
1
1
1
1
1
1
1
1
1
1
1
1
1
1
1
1
1
1
1
1
1
1
1
1
1
1
1
1
1
1
1
1
1
2.08888
2.70013
2.71594
2.71665
2.71968
2.72439
2.7313
2.74014
2.74833
2.75406
2.75617
2.75627
2.75543
2.75525
2.75562
2.75793
2.76266
2.76771
2.77305
2.77975
2.78756
2.79446
2.79971
2.80271
2.80475
2.80639
2.80824
2.80961
2.81019
2.81036
2.81048
2.81126
2.8135
2.81931
2.8329
2.86545
2.93172
3.02438
3.10212
3.13214
1
1
1
1
1
1
1
1
1
1
1
1
1
1
1
1
1
1
1
1
1
1
1
1
1
1
1
1
1
1
1
1
1
1
1
1
1
1
1
1
1
1
1
1
1
1
1
1
1
1
1
1
1
1
1
1
1.89762
2.66058
2.71015
2.71048
2.71414
2.71818
2.72398
2.73192
2.74032
2.74718
2.7506
2.7502
2.74846
2.74693
2.74655
2.74883
2.75427
2.76098
2.76808
2.77584
2.7836
2.78996
2.79416
2.7962
2.79745
2.79884
2.80075
2.80241
2.80327
2.80317
2.80253
2.80231
2.8035
2.80807
2.82008
2.84983
2.9129
3.00434
3.08312
3.1139
1
1
1
1
1
1
1
1
1
1
1
1
1
1
1
1
1
1
1
1
1
1
1
1
1
1
1
1
1
1
1
1
1
1
1
1
1
1
1
1
1
1
1
1
1
1
1
1
1
1
1
1
1
1
1
1
1.61953
2.56416
2.69904
2.69835
2.70354
2.70806
2.7136
2.721
2.72962
2.73756
2.74223
2.74289
2.74154
2.73977
2.73951
2.74171
2.74751
2.7552
2.76333
2.77149
2.77888
2.78442
2.78774
2.78909
2.78974
2.79085
2.79264
2.79442
2.7955
2.79516
2.79379
2.79256
2.79281
2.79596
2.80604
2.83266
2.89183
2.98116
3.06031
3.09122
1
1
1
1
1
1
1
1
1
1
1
1
1
1
1
1
1
1
1
1
1
1
1
1
1
1
1
1
1
1
1
1
1
1
1
1
1
1
1
1
1
1
1
1
1
1
1
1
1
1
1
1
1
1
1
1
1.26903
2.43736
2.692
2.6917
2.6977
2.70402
2.70897
2.71448
2.72189
2.72987
2.73531
2.73663
2.73504
2.73258
2.73262
2.73515
2.7418
2.75062
2.75939
2.76726
2.77366
2.77788
2.78028
2.78112
2.7815
2.78243
2.784
2.78575
2.78678
2.78617
2.7842
2.78189
2.78103
2.78289
2.79026
2.81244
2.86595
2.95222
3.03201
3.06462
1
1
1
1
1
1
1
1
1
1
1
1
1
1
1
1
1
1
1
1
1
1
1
1
1
1
1
1
1
1
1
1
1
1
1
1
1
1
1
1
1
1
1
1
1
1
1
1
1
1
1
1
1
1
1
1
1.0196
2.33533
2.68426
2.68174
2.68795
2.69541
2.70099
2.70652
2.71376
2.7218
2.72794
2.73057
2.72981
2.72799
2.72835
2.73128
2.73787
2.74677
2.75551
2.76263
2.76774
2.77047
2.77205
2.77249
2.77272
2.77359
2.77495
2.7764
2.77712
2.77616
2.77357
2.7702
2.76795
2.76835
2.77271
2.79017
2.83733
2.91906
2.99672
3.02552
1
1
1
1
1
1
1
1
1
1
1
1
1
1
1
1
1
1
1
1
1
1
1
1
1
1
1
1
1
1
1
1
1
1
1
1
1
1
1
1
1
1
1
1
1
1
1
1
1
1
1
1
1
1
1
1
1.00009
2.18351
2.67375
2.68642
2.69263
2.6987
2.70268
2.70694
2.71252
2.71886
2.72391
2.72633
2.72599
2.72442
2.72479
2.72798
2.73434
2.74255
2.75069
2.75692
2.76079
2.7624
2.76335
2.76332
2.76341
2.76422
2.76541
2.76642
2.7666
2.76517
2.76192
2.75752
2.75338
2.75173
2.75343
2.76475
2.80135
2.87231
2.94485
2.97212
1
1
1
1
1
1
1
1
1
1
1
1
1
1
1
1
1
1
1
1
1
1
1
1
1
1
1
1
1
1
1
1
1
1
1
1
1
1
1
1
1
1
1
1
1
1
1
1
1
1
1
1
1
1
1
1
1
1.98085
2.65394
2.69203
2.69427
2.69848
2.70276
2.70717
2.7118
2.71665
2.72039
2.72219
2.7222
2.72061
2.72091
2.72409
2.73007
2.73709
2.74437
2.74984
2.75264
2.75366
2.75408
2.7536
2.7536
2.75441
2.75544
2.75595
2.75548
2.75346
2.74949
2.74382
2.73759
2.73283
2.73111
2.73561
2.76053
2.81835
2.88536
2.92095
1
1
1
1
1
1
1
1
1
1
1
1
1
1
1
1
1
1
1
1
1
1
1
1
1
1
1
1
1
1
1
1
1
1
1
1
1
1
1
1
1
1
1
1
1
1
1
1
1
1
1
1
1
1
1
1
1
1.67374
2.56649
2.6862
2.6877
2.69268
2.6989
2.70442
2.70893
2.71281
2.7156
2.71695
2.71734
2.71587
2.71605
2.71891
2.72427
2.73019
2.73632
2.74119
2.74314
2.74385
2.74407
2.74337
2.74333
2.7441
2.74499
2.74509
2.74416
2.74147
2.73657
2.7293
2.72067
2.71206
2.70557
2.7036
2.71403
2.73866
2.74236
2.65123
1
1
1
1
1
1
1
1
1
1
1
1
1
1
1
1
1
1
1
1
1
1
1
1
1
1
1
1
1
1
1
1
1
1
1
1
1
1
1
1
1
1
1
1
1
1
1
1
1
1
1
1
1
1
1
1
1
1.27041
2.42864
2.67787
2.67599
2.68122
2.68985
2.69667
2.70182
2.70573
2.70853
2.71008
2.71112
2.71001
2.70998
2.71215
2.71648
2.72143
2.72622
2.73089
2.73274
2.73367
2.73382
2.73275
2.73241
2.73304
2.7339
2.73386
2.73265
2.7294
2.72339
2.71433
2.70293
2.69047
2.67799
2.66724
2.65869
2.65149
2.61769
2.46333
1
1
1
1
1
1
1
1
1
1
1
1
1
1
1
1
1
1
1
1
1
1
1
1
1
1
1
1
1
1
1
1
1
1
1
1
1
1
1
1
1
1
1
1
1
1
1
1
1
1
1
1
1
1
1
1
1
1.01688
2.30478
2.6607
2.66206
2.66858
2.67741
2.68501
2.69102
2.69568
2.69941
2.70194
2.70394
2.70341
2.7031
2.70429
2.70734
2.71156
2.71565
2.72026
2.72242
2.72355
2.72333
2.7221
2.72145
2.72175
2.72233
2.72219
2.72081
2.71709
2.70999
2.69921
2.6849
2.66859
2.65022
2.63093
2.60638
2.58002
2.50243
2.33908
1
1
1
1
1
1
1
1
1
1
1
1
1
1
1
1
1
1
1
1
1
1
1
1
1
1
1
1
1
1
1
1
1
1
1
1
1
1
1
1
1
1
1
1
1
1
1
1
1
1
1
1
1
1
1
1
1
1.00007
2.11286
2.64599
2.6625
2.66713
2.67258
2.67733
2.68216
2.68684
2.69125
2.69478
2.69746
2.69717
2.69644
2.69658
2.69826
2.70175
2.70561
2.70996
2.7128
2.71429
2.71349
2.71192
2.71079
2.71037
2.71037
2.71
2.70827
2.70409
2.69616
2.68403
2.66722
2.64723
2.62361
2.59643
2.56141
2.51495
2.42227
2.27053
1
1
1
1
1
1
1
1
1
1
1
1
1
1
1
1
1
1
1
1
1
1
1
1
1
1
1
1
1
1
1
1
1
1
1
1
1
1
1
1
1
1
1
1
1
1
1
1
1
1
1
1
1
1
1
1
1
1
1.81351
2.59183
2.65912
2.66289
2.66652
2.67031
2.67422
2.67869
2.6837
2.68831
2.69165
2.69194
2.6909
2.68997
2.69049
2.6929
2.69641
2.70031
2.70365
2.70534
2.70444
2.70258
2.70086
2.69948
2.69853
2.69743
2.69494
2.69013
2.68157
2.66856
2.65011
2.62695
2.59916
2.5651
2.5232
2.46261
2.37206
2.25541
1
1
1
1
1
1
1
1
1
1
1
1
1
1
1
1
1
1
1
1
1
1
1
1
1
1
1
1
1
1
1
1
1
1
1
1
1
1
1
1
1
1
1
1
1
1
1
1
1
1
1
1
1
1
1
1
1
1
1.38959
2.46966
2.6594
2.65618
2.65877
2.66335
2.66691
2.67095
2.67614
2.68159
2.68567
2.68688
2.68585
2.68426
2.68357
2.68497
2.68792
2.69144
2.69492
2.69671
2.69606
2.69406
2.69173
2.68937
2.68722
2.68489
2.68114
2.67528
2.66606
2.65251
2.63335
2.6082
2.57734
2.53889
2.4919
2.42628
2.34253
2.23864
1
1
1
1
1
1
1
1
1
1
1
1
1
1
1
1
1
1
1
1
1
1
1
1
1
1
1
1
1
1
1
1
1
1
1
1
1
1
1
1
1
1
1
1
1
1
1
1
1
1
1
1
1
1
1
1
1
1
1.03571
2.32685
2.65539
2.65026
2.6507
2.65529
2.65894
2.66298
2.66809
2.67382
2.67856
2.68115
2.68097
2.67956
2.678
2.67821
2.67997
2.68274
2.68581
2.68775
2.68761
2.68589
2.68321
2.68003
2.67655
2.67263
2.66723
2.65992
2.64975
2.63575
2.61653
2.5908
2.55834
2.51755
2.46792
2.40227
2.32632
2.23377
1
1
1
1
1
1
1
1
1
1
1
1
1
1
1
1
1
1
1
1
1
1
1
1
1
1
1
1
1
1
1
1
1
1
1
1
1
1
1
1
1
1
1
1
1
1
1
1
1
1
1
1
1
1
1
1
1
1
1.00027
2.11318
2.62651
2.64258
2.64537
2.64883
2.65195
2.6557
2.66066
2.66615
2.67117
2.67471
2.67569
2.67458
2.67278
2.67175
2.67247
2.67399
2.67609
2.67802
2.67859
2.67731
2.6747
2.671
2.66631
2.6607
2.65352
2.64447
2.63305
2.61844
2.59944
2.57415
2.54193
2.5008
2.45044
2.38812
2.31823
2.23487
1
1
1
1
1
1
1
1
1
1
1
1
1
1
1
1
1
1
1
1
1
1
1
1
1
1
1
1
1
1
1
1
1
1
1
1
1
1
1
1
1
1
1
1
1
1
1
1
1
1
1
1
1
1
1
1
1
1
0.999999
1.76095
2.56072
2.63765
2.63865
2.64103
2.64403
2.64768
2.65256
2.65767
2.66289
2.66723
2.66937
2.66889
2.66745
2.66556
2.66493
2.66504
2.66592
2.66743
2.66846
2.66779
2.66559
2.66167
2.65607
2.64894
2.64008
2.62926
2.6164
2.60095
2.58211
2.55777
2.52717
2.48725
2.43814
2.38098
2.31689
2.23974
1
1
1
1
1
1
1
1
1
1
1
1
1
1
1
1
1
1
1
1
1
1
1
1
1
1
1
1
1
1
1
1
1
1
1
1
1
1
1
1
1
1
1
1
1
1
1
1
1
1
1
1
1
1
1
1
1
1
1
1.27743
2.42161
2.63762
2.63275
2.63217
2.63518
2.63886
2.64368
2.64902
2.65437
2.65926
2.66207
2.66229
2.66102
2.65868
2.65698
2.65587
2.65567
2.65638
2.6573
2.6572
2.65542
2.65156
2.6455
2.63719
2.62687
2.61452
2.60032
2.58394
2.56506
2.5418
2.51329
2.47566
2.42986
2.37808
2.31828
2.24821
1
1
1
1
1
1
1
1
1
1
1
1
1
1
1
1
1
1
1
1
1
1
1
1
1
1
1
1
1
1
1
1
1
1
1
1
1
1
1
1
1
1
1
1
1
1
1
1
1
1
1
1
1
1
1
1
1
1
1
1.01668
2.26348
2.61953
2.62095
2.62367
2.62661
2.62961
2.63373
2.63959
2.64536
2.65113
2.65467
2.65545
2.65405
2.65112
2.64835
2.64628
2.64503
2.64515
2.64554
2.64571
2.64423
2.6407
2.63447
2.62532
2.61383
2.60036
2.58515
2.56806
2.54895
2.52652
2.50014
2.46513
2.4235
2.37667
2.32053
2.25888
1
1
1
1
1
1
1
1
1
1
1
1
1
1
1
1
1
1
1
1
1
1
1
1
1
1
1
1
1
1
1
1
1
1
1
1
1
1
1
1
1
1
1
1
1
1
1
1
1
1
1
1
1
1
1
1
1
1
1
1.00005
1.96304
2.5841
2.61485
2.61661
2.61898
2.62171
2.62518
2.63054
2.63598
2.64214
2.64649
2.64789
2.64653
2.64319
2.63951
2.63645
2.63425
2.63339
2.63341
2.63351
2.63238
2.62926
2.62301
2.61342
2.60125
2.58716
2.57139
2.55391
2.53461
2.51262
2.48788
2.45514
2.41772
2.37527
2.32416
2.26984
1
1
1
1
1
1
1
1
1
1
1
1
1
1
1
1
1
1
1
1
1
1
1
1
1
1
1
1
1
1
1
1
1
1
1
1
1
1
1
1
1
1
1
1
1
1
1
1
1
1
1
1
1
1
1
1
1
1
1
1
1.49901
2.48634
2.6094
2.60774
2.61012
2.61299
2.61608
2.62096
2.6263
2.63259
2.63754
2.63967
2.63873
2.63543
2.63098
2.62664
2.62357
2.62165
2.6211
2.62102
2.62014
2.61731
2.61117
2.60156
2.58934
2.57517
2.55925
2.54167
2.52235
2.50063
2.47668
2.44586
2.41261
2.37343
2.32703
2.27799
1
1
1
1
1
1
1
1
1
1
1
1
1
1
1
1
1
1
1
1
1
1
1
1
1
1
1
1
1
1
1
1
1
1
1
1
1
1
1
1
1
1
1
1
1
1
1
1
1
1
1
1
1
1
1
1
1
1
1
1
1.05675
2.32427
2.60821
2.60213
2.60183
2.60345
2.60641
2.61149
2.61688
2.62267
2.62763
2.6304
2.63024
2.62766
2.62302
2.61774
2.61354
2.61059
2.60924
2.60873
2.60776
2.60499
2.5991
2.58987
2.57819
2.5644
2.54868
2.53123
2.51196
2.49077
2.46674
2.43808
2.40783
2.37061
2.32949
2.28469
1
1
1
1
1
1
1
1
1
1
1
1
1
1
1
1
1
1
1
1
1
1
1
1
1
1
1
1
1
1
1
1
1
1
1
1
1
1
1
1
1
1
1
1
1
1
1
1
1
1
1
1
1
1
1
1
1
1
1
1
1.00062
2.05321
2.57816
2.59249
2.5935
2.59573
2.59874
2.60348
2.60831
2.61327
2.61774
2.62066
2.62122
2.61936
2.61506
2.6094
2.60411
2.60044
2.59827
2.59715
2.59579
2.59278
2.58706
2.57839
2.56756
2.55451
2.53925
2.52209
2.50313
2.4823
2.45802
2.43161
2.40263
2.36749
2.33126
2.28979
1
1
1
1
1
1
1
1
1
1
1
1
1
1
1
1
1
1
1
1
1
1
1
1
1
1
1
1
1
1
1
1
1
1
1
1
1
1
1
1
1
1
1
1
1
1
1
1
1
1
1
1
1
1
1
1
1
1
1
1
0.999999
1.58069
2.49389
2.58903
2.58584
2.58709
2.59012
2.59411
2.59848
2.60302
2.60741
2.61075
2.61196
2.61084
2.6071
2.60139
2.59544
2.59101
2.58817
2.58645
2.58457
2.5812
2.57555
2.56741
2.55745
2.54526
2.53066
2.51373
2.49533
2.47421
2.45047
2.42572
2.39729
2.36542
2.33265
2.29489
1
1
1
1
1
1
1
1
1
1
1
1
1
1
1
1
1
1
1
1
1
1
1
1
1
1
1
1
1
1
1
1
1
1
1
1
1
1
1
1
1
1
1
1
1
1
1
1
1
1
1
1
1
1
1
1
1
1
1
1
1
1.07791
2.32612
2.58709
2.57928
2.57931
2.58063
2.5835
2.58793
2.59254
2.59737
2.60125
2.60287
2.6023
2.59902
2.59339
2.58714
2.58188
2.57865
2.57633
2.57395
2.57034
2.56482
2.55717
2.54789
2.53651
2.52265
2.50586
2.48788
2.46638
2.44363
2.4197
2.39229
2.3637
2.33307
2.29876
1
1
1
1
1
1
1
1
1
1
1
1
1
1
1
1
1
1
1
1
1
1
1
1
1
1
1
1
1
1
1
1
1
1
1
1
1
1
1
1
1
1
1
1
1
1
1
1
1
1
1
1
1
1
1
1
1
1
1
1
1
1.00117
2.04316
2.55316
2.56822
2.56975
2.57184
2.57439
2.57858
2.58298
2.58807
2.59237
2.59413
2.5938
2.59088
2.58541
2.57905
2.57333
2.56934
2.5664
2.56354
2.55989
2.55476
2.54772
2.53902
2.52832
2.51502
2.49854
2.48039
2.45894
2.43725
2.41388
2.38822
2.3615
2.33242
2.30114
1
1
1
1
1
1
1
1
1
1
1
1
1
1
1
1
1
1
1
1
1
1
1
1
1
1
1
1
1
1
1
1
1
1
1
1
1
1
1
1
1
1
1
1
1
1
1
1
1
1
1
1
1
1
1
1
1
1
1
1
1
0.999998
1.52976
2.46285
2.56833
2.56375
2.56329
2.56454
2.5681
2.57263
2.57814
2.58293
2.58481
2.58462
2.58217
2.57718
2.57116
2.56526
2.56032
2.55667
2.55307
2.54936
2.54475
2.53856
2.53061
2.52069
2.50764
2.49152
2.47296
2.45212
2.43143
2.40853
2.38427
2.35805
2.33075
2.30184
1
1
1
1
1
1
1
1
1
1
1
1
1
1
1
1
1
1
1
1
1
1
1
1
1
1
1
1
1
1
1
1
1
1
1
1
1
1
1
1
1
1
1
1
1
1
1
1
1
1
1
1
1
1
1
1
1
1
1
1
1
1
1.06231
2.29571
2.55956
2.55319
2.55249
2.55371
2.55732
2.56249
2.56855
2.57368
2.57529
2.57486
2.57259
2.56829
2.56298
2.55729
2.55187
2.54705
2.54252
2.53846
2.5342
2.5289
2.52183
2.51263
2.49975
2.48406
2.46575
2.44625
2.42608
2.40366
2.38006
2.35428
2.32919
2.30165
1
1
1
1
1
1
1
1
1
1
1
1
1
1
1
1
1
1
1
1
1
1
1
1
1
1
1
1
1
1
1
1
1
1
1
1
1
1
1
1
1
1
1
1
1
1
1
1
1
1
1
1
1
1
1
1
1
1
1
1
1
1
1.0007
1.95181
2.51609
2.54224
2.54269
2.54448
2.54792
2.55293
2.55921
2.56455
2.56604
2.56523
2.5627
2.55876
2.5541
2.54889
2.5434
2.53779
2.5322
2.52745
2.52312
2.51835
2.51204
2.5034
2.49114
2.47626
2.45896
2.44089
2.4208
2.39896
2.37601
2.35122
2.32748
2.30034
1
1
1
1
1
1
1
1
1
1
1
1
1
1
1
1
1
1
1
1
1
1
1
1
1
1
1
1
1
1
1
1
1
1
1
1
1
1
1
1
1
1
1
1
1
1
1
1
1
1
1
1
1
1
1
1
1
1
1
1
1
1
0.999999
1.36263
2.39595
2.54596
2.53727
2.53515
2.53709
2.54175
2.54825
2.55423
2.55666
2.55583
2.55317
2.54924
2.54485
2.53996
2.53453
2.52866
2.5222
2.5167
2.51169
2.50668
2.50072
2.49257
2.48147
2.46777
2.45192
2.43483
2.41506
2.39454
2.37231
2.34877
2.32559
2.29903
1
1
1
1
1
1
1
1
1
1
1
1
1
1
1
1
1
1
1
1
1
1
1
1
1
1
1
1
1
1
1
1
1
1
1
1
1
1
1
1
1
1
1
1
1
1
1
1
1
1
1
1
1
1
1
1
1
1
1
1
1
1
1
1.02697
2.20808
2.52726
2.52436
2.52503
2.52705
2.53164
2.53798
2.5442
2.54766
2.54697
2.54438
2.54039
2.53589
2.53115
2.52572
2.51972
2.51294
2.50669
2.50086
2.495
2.48879
2.48109
2.47117
2.45874
2.44426
2.42774
2.40886
2.38968
2.36827
2.34609
2.32343
2.29848
1
1
1
1
1
1
1
1
1
1
1
1
1
1
1
1
1
1
1
1
1
1
1
1
1
1
1
1
1
1
1
1
1
1
1
1
1
1
1
1
1
1
1
1
1
1
1
1
1
1
1
1
1
1
1
1
1
1
1
1
1
1
1
1.00012
1.75562
2.4648
2.52298
2.51864
2.51911
2.52221
2.52736
2.5329
2.53701
2.53703
2.53528
2.53163
2.52698
2.52203
2.51658
2.51062
2.50409
2.49746
2.491
2.48414
2.47705
2.46935
2.46012
2.44871
2.43524
2.4194
2.40202
2.38421
2.36425
2.34385
2.32229
2.29899
1
1
1
1
1
1
1
1
1
1
1
1
1
1
1
1
1
1
1
1
1
1
1
1
1
1
1
1
1
1
1
1
1
1
1
1
1
1
1
1
1
1
1
1
1
1
1
1
1
1
1
1
1
1
1
1
1
1
1
1
1
1
1
1
1.14387
2.30771
2.521
2.51351
2.51119
2.51283
2.51588
2.52003
2.52444
2.52662
2.5257
2.52285
2.51831
2.51296
2.5074
2.5017
2.49563
2.48918
2.4825
2.47487
2.46682
2.4586
2.44934
2.43858
2.42605
2.41109
2.39513
2.37844
2.36019
2.34143
2.32128
2.29994
1
1
1
1
1
1
1
1
1
1
1
1
1
1
1
1
1
1
1
1
1
1
1
1
1
1
1
1
1
1
1
1
1
1
1
1
1
1
1
1
1
1
1
1
1
1
1
1
1
1
1
1
1
1
1
1
1
1
1
1
1
1
1
1
1.00406
2.01246
2.48195
2.49895
2.50153
2.50303
2.50535
2.50818
2.51183
2.51539
2.51551
2.51377
2.50973
2.50408
2.49804
2.49237
2.48683
2.48087
2.47452
2.46692
2.4584
2.44945
2.43944
2.42868
2.41671
2.40278
2.38805
2.37246
2.356
2.33871
2.32015
2.30064
1
1
1
1
1
1
1
1
1
1
1
1
1
1
1
1
1
1
1
1
1
1
1
1
1
1
1
1
1
1
1
1
1
1
1
1
1
1
1
1
1
1
1
1
1
1
1
1
1
1
1
1
1
1
1
1
1
1
1
1
1
1
1
1
1
1.40256
2.3698
2.50469
2.49673
2.49338
2.49394
2.49521
2.49796
2.50211
2.50437
2.50345
2.50038
2.49501
2.48855
2.48255
2.4773
2.47214
2.46671
2.46002
2.45164
2.44209
2.43122
2.41989
2.40798
2.39488
2.38127
2.36687
2.35173
2.33552
2.31824
2.30001
1
1
1
1
1
1
1
1
1
1
1
1
1
1
1
1
1
1
1
1
1
1
1
1
1
1
1
1
1
1
1
1
1
1
1
1
1
1
1
1
1
1
1
1
1
1
1
1
1
1
1
1
1
1
1
1
1
1
1
1
1
1
1
1
1
1.03309
2.17284
2.48567
2.48305
2.48177
2.48153
2.483
2.48603
2.4905
2.49395
2.49366
2.4913
2.48626
2.47948
2.47291
2.46732
2.46277
2.45837
2.45289
2.44548
2.43603
2.42459
2.41264
2.40039
2.38742
2.37442
2.36098
2.34669
2.3313
2.31511
2.2982
1
1
1
1
1
1
1
1
1
1
1
1
1
1
1
1
1
1
1
1
1
1
1
1
1
1
1
1
1
1
1
1
1
1
1
1
1
1
1
1
1
1
1
1
1
1
1
1
1
1
1
1
1
1
1
1
1
1
1
1
1
1
1
1
1
1.00018
1.65843
2.41261
2.48133
2.47586
2.47264
2.47343
2.47593
2.4798
2.48289
2.48294
2.48116
2.47688
2.47051
2.46366
2.4576
2.45285
2.44911
2.44497
2.43897
2.43055
2.41962
2.40729
2.39438
2.38108
2.36804
2.35502
2.3412
2.32643
2.31106
2.29517
1
1
1
1
1
1
1
1
1
1
1
1
1
1
1
1
1
1
1
1
1
1
1
1
1
1
1
1
1
1
1
1
1
1
1
1
1
1
1
1
1
1
1
1
1
1
1
1
1
1
1
1
1
1
1
1
1
1
1
1
1
1
1
1
1
1
1.10177
2.24403
2.47736
2.46969
2.4652
2.46392
2.4653
2.46817
2.47111
2.47223
2.47106
2.46777
2.46231
2.45564
2.44918
2.44376
2.43973
2.43596
2.43115
2.42411
2.41439
2.40261
2.38966
2.37591
2.36217
2.3488
2.33515
2.32102
2.30646
2.29148
1
1
1
1
1
1
1
1
1
1
1
1
1
1
1
1
1
1
1
1
1
1
1
1
1
1
1
1
1
1
1
1
1
1
1
1
1
1
1
1
1
1
1
1
1
1
1
1
1
1
1
1
1
1
1
1
1
1
1
1
1
1
1
1
1
1
1.00182
1.82578
2.41438
2.46103
2.45958
2.45752
2.45612
2.45686
2.45874
2.46032
2.45985
2.4579
2.45398
2.44828
2.44182
2.43567
2.43059
2.42625
2.42179
2.41616
2.40816
2.39775
2.38542
2.37165
2.35727
2.34316
2.32937
2.31581
2.3021
2.28781
1
1
1
1
1
1
1
1
1
1
1
1
1
1
1
1
1
1
1
1
1
1
1
1
1
1
1
1
1
1
1
1
1
1
1
1
1
1
1
1
1
1
1
1
1
1
1
1
1
1
1
1
1
1
1
1
1
1
1
1
1
1
1
1
1
1
1
1.18547
2.26511
2.46195
2.4551
2.45084
2.44845
2.44628
2.44655
2.44764
2.44834
2.4475
2.4453
2.44123
2.4355
2.42908
2.42274
2.41714
2.41209
2.40679
2.40024
2.39144
2.38042
2.36734
2.35286
2.33815
2.3239
2.31045
2.29742
2.28381
1
1
1
1
1
1
1
1
1
1
1
1
1
1
1
1
1
1
1
1
1
1
1
1
1
1
1
1
1
1
1
1
1
1
1
1
1
1
1
1
1
1
1
1
1
1
1
1
1
1
1
1
1
1
1
1
1
1
1
1
1
1
1
1
1
1
1
1.00645
1.92469
2.41478
2.44039
2.43994
2.43917
2.43775
2.4363
2.43627
2.43705
2.43706
2.43594
2.43302
2.42818
2.42206
2.41524
2.40855
2.40262
2.39712
2.391
2.3837
2.37441
2.36272
2.34892
2.33406
2.31928
2.30548
2.29279
2.27988
1
1
1
1
1
1
1
1
1
1
1
1
1
1
1
1
1
1
1
1
1
1
1
1
1
1
1
1
1
1
1
1
1
1
1
1
1
1
1
1
1
1
1
1
1
1
1
1
1
1
1
1
1
1
1
1
1
1
1
1
1
1
1
1
1
1
1
1.00001
1.25859
2.27394
2.44578
2.43555
2.43106
2.42837
2.42635
2.42533
2.42573
2.42635
2.42579
2.42391
2.42013
2.41463
2.40785
2.401
2.39457
2.38831
2.38195
2.37509
2.36706
2.35694
2.34443
2.3303
2.3156
2.30133
2.28837
2.27582
1
1
1
1
1
1
1
1
1
1
1
1
1
1
1
1
1
1
1
1
1
1
1
1
1
1
1
1
1
1
1
1
1
1
1
1
1
1
1
1
1
1
1
1
1
1
1
1
1
1
1
1
1
1
1
1
1
1
1
1
1
1
1
1
1
1
1
1
1.01287
1.97415
2.40614
2.42082
2.41977
2.41796
2.4166
2.41589
2.41572
2.41571
2.41512
2.41377
2.41078
2.40592
2.39974
2.39314
2.38661
2.38011
2.3734
2.36645
2.35908
2.35028
2.33931
2.3265
2.31256
2.29812
2.28459
2.27205
1
1
1
1
1
1
1
1
1
1
1
1
1
1
1
1
1
1
1
1
1
1
1
1
1
1
1
1
1
1
1
1
1
1
1
1
1
1
1
1
1
1
1
1
1
1
1
1
1
1
1
1
1
1
1
1
1
1
1
1
1
1
1
1
1
1
1
1
1.00004
1.30732
2.27
2.42697
2.41766
2.41162
2.40862
2.40661
2.40558
2.40445
2.40352
2.40266
2.40062
2.39677
2.39142
2.38528
2.37893
2.37252
2.36587
2.35889
2.35151
2.34319
2.33331
2.32187
2.30907
2.29504
2.28121
2.26855
1
1
1
1
1
1
1
1
1
1
1
1
1
1
1
1
1
1
1
1
1
1
1
1
1
1
1
1
1
1
1
1
1
1
1
1
1
1
1
1
1
1
1
1
1
1
1
1
1
1
1
1
1
1
1
1
1
1
1
1
1
1
1
1
1
1
1
1
1
1.01862
1.98054
2.38965
2.4033
2.40161
2.39922
2.39687
2.3952
2.39375
2.39228
2.3912
2.3898
2.38724
2.38299
2.3775
2.3715
2.3652
2.35858
2.35155
2.34404
2.33587
2.32665
2.31633
2.30483
2.29174
2.27804
2.26527
1
1
1
1
1
1
1
1
1
1
1
1
1
1
1
1
1
1
1
1
1
1
1
1
1
1
1
1
1
1
1
1
1
1
1
1
1
1
1
1
1
1
1
1
1
1
1
1
1
1
1
1
1
1
1
1
1
1
1
1
1
1
1
1
1
1
1
1
1
1.00008
1.32046
2.25328
2.40776
2.39989
2.39428
2.39003
2.38636
2.3835
2.38129
2.37964
2.37856
2.37705
2.37419
2.36973
2.36426
2.35812
2.35152
2.34446
2.33686
2.32869
2.31978
2.31014
2.2997
2.28777
2.27469
2.26201
1
1
1
1
1
1
1
1
1
1
1
1
1
1
1
1
1
1
1
1
1
1
1
1
1
1
1
1
1
1
1
1
1
1
1
1
1
1
1
1
1
1
1
1
1
1
1
1
1
1
1
1
1
1
1
1
1
1
1
1
1
1
1
1
1
1
1
1
1
1
1.02017
1.94864
2.36782
2.38578
2.3842
2.38132
2.37731
2.37351
2.37083
2.36918
2.36815
2.36696
2.36497
2.36155
2.35675
2.35099
2.34456
2.33749
2.32977
2.3215
2.31276
2.30364
2.29406
2.28327
2.27103
2.25852
1
1
1
1
1
1
1
1
1
1
1
1
1
1
1
1
1
1
1
1
1
1
1
1
1
1
1
1
1
1
1
1
1
1
1
1
1
1
1
1
1
1
1
1
1
1
1
1
1
1
1
1
1
1
1
1
1
1
1
1
1
1
1
1
1
1