/*--------------------------------*- C++ -*----------------------------------*\
  =========                 |
  \\      /  F ield         | OpenFOAM: The Open Source CFD Toolbox
   \\    /   O peration     | Website:  https://openfoam.org
    \\  /    A nd           | Version:  7
     \\/     M anipulation  |
\*---------------------------------------------------------------------------*/
FoamFile
{
    version     2.0;
    format      ascii;
    class       volVectorField;
    location    "1";
    object      U;
}
// * * * * * * * * * * * * * * * * * * * * * * * * * * * * * * * * * * * * * //

dimensions      [0 1 -1 0 0 0 0];

internalField   nonuniform List<vector> 
64512
(
(3 -1.61069e-17 0)
(3 -1.30287e-16 0)
(3 -2.5457e-16 0)
(3 -2.49787e-16 0)
(3 -1.45099e-17 0)
(3 -3.25706e-16 0)
(3 -5.11268e-16 0)
(3 -2.61773e-16 0)
(3 -1.51691e-16 0)
(3 -3.18176e-16 0)
(3 -8.74235e-16 0)
(3 -5.65155e-16 0)
(3 -2.399e-16 0)
(3 1.44852e-16 0)
(3 7.07213e-18 0)
(3 -1.31987e-16 0)
(3 -6.63361e-16 0)
(3 -6.19302e-16 0)
(3 -7.03533e-16 0)
(3 -7.03899e-16 0)
(3 -6.69224e-16 0)
(3 -4.73344e-16 0)
(3 -5.02302e-16 0)
(3 -3.49623e-16 0)
(3 1.57249e-16 0)
(3 2.46329e-16 0)
(3 1.31175e-16 0)
(3 8.50888e-17 0)
(3 5.45463e-16 0)
(3 2.51377e-16 0)
(3 7.15674e-17 0)
(3 -5.13099e-17 0)
(3 1.39239e-16 0)
(3 8.37478e-17 0)
(3 -3.71994e-16 0)
(3 -2.9169e-16 0)
(3 -4.75991e-16 0)
(3 -8.09442e-16 0)
(3 -1.85229e-15 0)
(3 -1.36244e-15 0)
(3 -1.5091e-16 0)
(3 7.9412e-16 0)
(3 -2.13549e-16 0)
(3 -6.58703e-16 0)
(3 -4.35302e-16 0)
(3 1.61002e-16 0)
(3 1.53927e-15 0)
(3 1.05945e-15 0)
(3 4.65038e-16 0)
(3 -2.5925e-16 0)
(3 -2.93071e-16 0)
(3 -4.79107e-16 0)
(3 9.24166e-17 0)
(3 -3.30971e-15 0)
(1.38507 0.00506208 0)
(0.739591 0.00469213 0)
(0.7137 0.00323802 0)
(0.701064 0.00586244 0)
(0.679984 0.00658474 0)
(0.660731 0.00863202 0)
(0.636873 0.010734 0)
(0.612092 0.0115608 0)
(0.589222 0.0102029 0)
(0.57032 0.00735886 0)
(0.558339 0.00503444 0)
(0.549988 0.00479288 0)
(0.541023 0.00569795 0)
(0.528973 0.00737138 0)
(0.511713 0.0088953 0)
(0.490962 0.0090603 0)
(0.469833 0.00787787 0)
(0.450556 0.0071405 0)
(0.432972 0.00728175 0)
(0.415582 0.00768599 0)
(0.398356 0.00799245 0)
(0.380316 0.00807666 0)
(0.361624 0.00808552 0)
(0.342681 0.00811135 0)
(0.324267 0.00818533 0)
(0.306697 0.00826173 0)
(0.289898 0.00831397 0)
(0.275371 0.00837549 0)
(0.262143 0.00848314 0)
(0.249546 0.00868269 0)
(0.237546 0.00891318 0)
(0.222379 0.00898806 0)
(0.205431 0.00912566 0)
(0.186968 0.00921528 0)
(0.16725 0.009278 0)
(0.145443 0.00928139 0)
(0.123624 0.0094061 0)
(0.100582 0.00977018 0)
(0.0776876 0.0103816 0)
(0.0552198 0.0111745 0)
(0.0326911 0.0117133 0)
(0.0111531 0.0122197 0)
(3 -7.83539e-17 0)
(3 -4.48995e-16 0)
(3 -7.76567e-16 0)
(3 -6.58431e-16 0)
(3 3.3582e-16 0)
(3 -1.9291e-16 0)
(3 -8.67037e-16 0)
(3 -1.8568e-15 0)
(3 -1.75082e-15 0)
(3 -1.56845e-15 0)
(3 -1.64403e-15 0)
(3 -1.12158e-15 0)
(3 -4.78048e-17 0)
(3 8.64006e-16 0)
(3 7.47841e-16 0)
(3 4.72307e-16 0)
(3 -3.92715e-17 0)
(3 -1.37645e-16 0)
(3 -5.71299e-16 0)
(3 -9.92375e-16 0)
(3 -8.59257e-16 0)
(3 -6.91002e-16 0)
(3 -7.92114e-16 0)
(3 -5.66636e-16 0)
(3 5.21255e-16 0)
(3 9.05553e-16 0)
(3 7.8239e-16 0)
(3 9.07891e-16 0)
(3 1.0388e-15 0)
(3 -2.18287e-16 0)
(3 -4.22925e-16 0)
(3 -3.18681e-16 0)
(3 1.89929e-16 0)
(3 3.74519e-16 0)
(3 3.07015e-16 0)
(3 2.14224e-16 0)
(3 2.43778e-16 0)
(3 -3.4819e-16 0)
(3 -1.86888e-15 0)
(3 -1.22411e-15 0)
(3 5.79423e-16 0)
(3 2.32681e-15 0)
(3 1.93922e-15 0)
(3 7.27331e-16 0)
(3 2.20304e-16 0)
(3 8.56669e-16 0)
(3 2.44269e-15 0)
(3 2.99712e-15 0)
(3 2.29314e-15 0)
(3 2.12677e-16 0)
(3 -3.2123e-16 0)
(3 -8.04128e-16 0)
(3 -6.92232e-16 0)
(3 -3.47742e-15 0)
(1.39625 0.0227503 0)
(0.740546 0.018803 0)
(0.709206 0.00956509 0)
(0.695539 0.0150981 0)
(0.674252 0.0186682 0)
(0.65484 0.0251236 0)
(0.631197 0.0309392 0)
(0.607285 0.0326754 0)
(0.585952 0.0288363 0)
(0.568257 0.0216609 0)
(0.556258 0.0154629 0)
(0.547017 0.0143495 0)
(0.537507 0.0168908 0)
(0.525404 0.0216469 0)
(0.508513 0.0259929 0)
(0.488265 0.0265091 0)
(0.467583 0.0236222 0)
(0.448058 0.0216316 0)
(0.430105 0.0219037 0)
(0.412542 0.0228736 0)
(0.395354 0.0235704 0)
(0.377505 0.023795 0)
(0.35895 0.0239307 0)
(0.340002 0.024156 0)
(0.321481 0.024509 0)
(0.30379 0.0248302 0)
(0.287004 0.0250085 0)
(0.272559 0.0251048 0)
(0.25949 0.0252783 0)
(0.247074 0.025741 0)
(0.235116 0.0263969 0)
(0.219984 0.0267825 0)
(0.202945 0.0274975 0)
(0.184252 0.0279909 0)
(0.164429 0.0281785 0)
(0.142586 0.0280078 0)
(0.12136 0.0281956 0)
(0.0992753 0.0292946 0)
(0.0772392 0.0311964 0)
(0.0552812 0.0336038 0)
(0.0329462 0.0351808 0)
(0.0113509 0.0367228 0)
(3 -8.67422e-17 0)
(3 -2.44011e-16 0)
(3 -1.75043e-16 0)
(3 -1.30852e-17 0)
(3 -1.35501e-16 0)
(3 -5.93344e-16 0)
(3 -1.39072e-15 0)
(3 -1.52057e-15 0)
(3 -1.33078e-15 0)
(3 -1.28669e-15 0)
(3 -9.46034e-16 0)
(3 -7.95532e-16 0)
(3 -2.32018e-16 0)
(3 4.47322e-16 0)
(3 3.57358e-16 0)
(3 -1.04267e-17 0)
(3 7.00141e-17 0)
(3 2.54998e-16 0)
(3 9.46192e-16 0)
(3 1.01842e-16 0)
(3 -5.19499e-16 0)
(3 -1.04188e-15 0)
(3 -7.76134e-16 0)
(3 -7.12636e-16 0)
(3 -2.86075e-16 0)
(3 3.81576e-17 0)
(3 -7.733e-17 0)
(3 1.0136e-16 0)
(3 -4.10969e-16 0)
(3 -5.86469e-16 0)
(3 4.97231e-18 0)
(3 7.50018e-17 0)
(3 -1.68729e-16 0)
(3 -6.78465e-16 0)
(3 -5.03582e-16 0)
(3 -1.06295e-15 0)
(3 -1.28098e-15 0)
(3 -1.35192e-15 0)
(3 -1.06062e-16 0)
(3 2.42644e-16 0)
(3 2.90178e-18 0)
(3 6.3951e-16 0)
(3 2.56918e-15 0)
(3 2.43737e-15 0)
(3 2.0993e-15 0)
(3 1.9188e-15 0)
(3 2.20905e-15 0)
(3 2.46247e-15 0)
(3 2.41907e-15 0)
(3 1.38505e-15 0)
(3 2.89264e-16 0)
(3 -1.19979e-15 0)
(3 -1.52118e-15 0)
(3 1.9024e-15 0)
(1.42556 0.0361833 0)
(0.748286 0.0311531 0)
(0.710142 0.0198754 0)
(0.69364 0.0275917 0)
(0.670565 0.0327416 0)
(0.650311 0.0427274 0)
(0.62674 0.0511922 0)
(0.603787 0.0526798 0)
(0.584423 0.0461577 0)
(0.5684 0.0354936 0)
(0.556414 0.0265885 0)
(0.545976 0.0249806 0)
(0.535462 0.028943 0)
(0.523007 0.0363303 0)
(0.506243 0.0429551 0)
(0.486288 0.0436257 0)
(0.466087 0.0393985 0)
(0.446393 0.0365571 0)
(0.428086 0.0370172 0)
(0.410294 0.0384652 0)
(0.393029 0.0394095 0)
(0.375273 0.0396387 0)
(0.356794 0.0398049 0)
(0.337779 0.0401724 0)
(0.319073 0.0407946 0)
(0.30109 0.0414062 0)
(0.284191 0.0418148 0)
(0.269613 0.0420391 0)
(0.256541 0.0422977 0)
(0.244296 0.0429213 0)
(0.232275 0.0438558 0)
(0.217197 0.0443941 0)
(0.1999 0.0454377 0)
(0.180616 0.0461697 0)
(0.160242 0.046539 0)
(0.138228 0.0464903 0)
(0.117669 0.0470175 0)
(0.0966179 0.0487623 0)
(0.0755336 0.0516118 0)
(0.0542921 0.0553088 0)
(0.0324692 0.0579346 0)
(0.0113628 0.0605183 0)
(3 7.4526e-17 0)
(3 2.10219e-16 0)
(3 6.00545e-16 0)
(3 6.48908e-16 0)
(3 3.41248e-16 0)
(3 2.40346e-16 0)
(3 -3.96292e-17 0)
(3 4.41925e-16 0)
(3 7.26645e-16 0)
(3 4.20018e-16 0)
(3 3.73309e-16 0)
(3 2.4563e-17 0)
(3 -3.17549e-16 0)
(3 -3.90716e-16 0)
(3 -5.80722e-16 0)
(3 -5.45109e-16 0)
(3 4.45197e-17 0)
(3 8.94919e-16 0)
(3 8.97289e-16 0)
(3 8.44414e-16 0)
(3 -4.28686e-16 0)
(3 -7.32246e-16 0)
(3 2.81698e-16 0)
(3 1.25936e-15 0)
(3 1.62057e-15 0)
(3 9.7218e-16 0)
(3 5.48433e-17 0)
(3 -8.35581e-16 0)
(3 -1.59225e-15 0)
(3 -2.37607e-16 0)
(3 7.26414e-16 0)
(3 6.2622e-16 0)
(3 1.06648e-16 0)
(3 -3.50655e-16 0)
(3 -7.34473e-16 0)
(3 -5.56234e-16 0)
(3 -7.04848e-16 0)
(3 -4.95027e-16 0)
(3 3.08207e-16 0)
(3 2.25721e-15 0)
(3 2.36565e-15 0)
(3 1.46047e-15 0)
(3 8.79654e-16 0)
(3 1.86405e-15 0)
(3 1.94313e-15 0)
(3 1.97424e-15 0)
(3 1.51792e-15 0)
(3 1.12133e-15 0)
(3 1.19038e-15 0)
(3 -1.99697e-16 0)
(3 -1.1847e-15 0)
(3 -1.8827e-15 0)
(3 -1.90883e-15 0)
(3 -4.08734e-15 0)
(1.46204 0.0475431 0)
(0.75407 0.0444965 0)
(0.71228 0.0318711 0)
(0.694827 0.0410649 0)
(0.670239 0.0480997 0)
(0.649359 0.0611842 0)
(0.62569 0.0710455 0)
(0.603761 0.0708671 0)
(0.586348 0.0616625 0)
(0.571229 0.0485704 0)
(0.558831 0.0381632 0)
(0.547143 0.0365668 0)
(0.535629 0.0418892 0)
(0.522898 0.0514887 0)
(0.506316 0.0598015 0)
(0.486683 0.0604325 0)
(0.466867 0.0552196 0)
(0.446935 0.0518339 0)
(0.428256 0.0525403 0)
(0.410212 0.0544526 0)
(0.3928 0.0555753 0)
(0.375042 0.0557324 0)
(0.356572 0.055864 0)
(0.337446 0.0563476 0)
(0.318506 0.0572544 0)
(0.300116 0.0582044 0)
(0.282981 0.0589077 0)
(0.268072 0.0593385 0)
(0.254825 0.0597479 0)
(0.242694 0.060431 0)
(0.230551 0.0614977 0)
(0.21547 0.0621646 0)
(0.197777 0.0634104 0)
(0.177677 0.0643037 0)
(0.156426 0.0649215 0)
(0.134047 0.0651143 0)
(0.113859 0.0659436 0)
(0.0935974 0.0681117 0)
(0.0733912 0.0716031 0)
(0.0529197 0.0763212 0)
(0.0317295 0.0799221 0)
(0.0112774 0.0835431 0)
(3 -1.47828e-17 0)
(3 1.12924e-16 0)
(3 -5.97145e-17 0)
(3 -1.82243e-16 0)
(3 1.93612e-16 0)
(3 7.3453e-16 0)
(3 6.59029e-16 0)
(3 5.50306e-16 0)
(3 2.11255e-16 0)
(3 -2.2221e-16 0)
(3 -3.84453e-17 0)
(3 4.52036e-17 0)
(3 5.90117e-17 0)
(3 -5.01382e-16 0)
(3 -4.87549e-16 0)
(3 1.70475e-16 0)
(3 1.20183e-15 0)
(3 1.36159e-15 0)
(3 3.11221e-16 0)
(3 -6.82261e-16 0)
(3 -1.2464e-15 0)
(3 -6.74599e-16 0)
(3 3.02709e-16 0)
(3 1.0221e-15 0)
(3 1.4636e-15 0)
(3 1.99816e-15 0)
(3 1.08671e-15 0)
(3 -1.18509e-15 0)
(3 -1.23521e-15 0)
(3 -4.68647e-16 0)
(3 -4.68541e-16 0)
(3 -4.45868e-16 0)
(3 -2.24424e-16 0)
(3 2.38819e-16 0)
(3 -3.08443e-16 0)
(3 6.94217e-16 0)
(3 2.99659e-16 0)
(3 1.08985e-16 0)
(3 6.53383e-16 0)
(3 9.47132e-16 0)
(3 9.87799e-16 0)
(3 1.03203e-16 0)
(3 -2.91895e-16 0)
(3 1.1374e-15 0)
(3 1.09059e-15 0)
(3 5.98729e-16 0)
(3 1.2435e-16 0)
(3 -7.90613e-16 0)
(3 -8.70906e-16 0)
(3 -8.21016e-16 0)
(3 -8.7567e-16 0)
(3 -1.1886e-15 0)
(3 -1.44742e-15 0)
(3 -3.74558e-15 0)
(1.508 0.0597775 0)
(0.760427 0.0562807 0)
(0.71377 0.044408 0)
(0.696013 0.0554035 0)
(0.669878 0.0647196 0)
(0.648416 0.080368 0)
(0.624403 0.0900937 0)
(0.603577 0.0875047 0)
(0.587775 0.076122 0)
(0.573102 0.0615161 0)
(0.560705 0.0502921 0)
(0.548334 0.048838 0)
(0.536668 0.0553508 0)
(0.524293 0.0668022 0)
(0.508037 0.0763381 0)
(0.488695 0.0768695 0)
(0.469039 0.0709945 0)
(0.448789 0.0672736 0)
(0.429734 0.0682475 0)
(0.411457 0.0706261 0)
(0.393912 0.0719395 0)
(0.376163 0.0720287 0)
(0.357775 0.0721008 0)
(0.33869 0.072661 0)
(0.31967 0.0738216 0)
(0.300952 0.0751079 0)
(0.283563 0.076133 0)
(0.268255 0.0768503 0)
(0.254724 0.0775855 0)
(0.242631 0.078437 0)
(0.230336 0.0795023 0)
(0.215244 0.0802333 0)
(0.197148 0.0815494 0)
(0.176218 0.0825274 0)
(0.153962 0.0834569 0)
(0.131131 0.0839945 0)
(0.110896 0.0851479 0)
(0.0909723 0.0876093 0)
(0.0712813 0.0914142 0)
(0.0514177 0.0967804 0)
(0.030875 0.101086 0)
(0.011124 0.105532 0)
(3 -1.68217e-16 0)
(3 -2.19162e-16 0)
(3 -3.03622e-16 0)
(3 -4.19797e-16 0)
(3 -3.04142e-16 0)
(3 -2.71936e-17 0)
(3 4.16821e-16 0)
(3 2.54265e-16 0)
(3 -3.38366e-17 0)
(3 -3.29812e-16 0)
(3 4.11979e-17 0)
(3 6.52819e-16 0)
(3 2.30862e-16 0)
(3 1.6556e-16 0)
(3 1.28276e-16 0)
(3 -2.88694e-16 0)
(3 -2.56207e-18 0)
(3 1.73305e-16 0)
(3 -4.0814e-16 0)
(3 -3.78096e-17 0)
(3 6.15601e-16 0)
(3 -2.39367e-16 0)
(3 -6.68318e-16 0)
(3 -4.44493e-16 0)
(3 -1.06621e-16 0)
(3 9.82361e-16 0)
(3 4.00647e-16 0)
(3 -6.20166e-16 0)
(3 -1.4814e-15 0)
(3 -1.47401e-15 0)
(3 -1.40962e-15 0)
(3 -1.26165e-15 0)
(3 -1.28051e-15 0)
(3 -1.10058e-15 0)
(3 -7.59929e-16 0)
(3 -6.86664e-16 0)
(3 -9.63491e-16 0)
(3 -5.96655e-18 0)
(3 1.70075e-15 0)
(3 8.77544e-16 0)
(3 -1.66971e-16 0)
(3 -6.69895e-16 0)
(3 3.21535e-16 0)
(3 5.65033e-16 0)
(3 4.29155e-16 0)
(3 -2.60003e-16 0)
(3 -1.22683e-15 0)
(3 -2.66604e-15 0)
(3 -3.14471e-15 0)
(3 -1.87398e-15 0)
(3 -7.10537e-16 0)
(3 -8.06318e-16 0)
(3 -5.15482e-16 0)
(3 7.55615e-16 0)
(1.56735 0.0724263 0)
(0.767615 0.0678769 0)
(0.713916 0.0573258 0)
(0.696109 0.070613 0)
(0.66858 0.0829705 0)
(0.646056 0.100401 0)
(0.621797 0.108212 0)
(0.602768 0.102769 0)
(0.589121 0.089381 0)
(0.575546 0.0735643 0)
(0.563877 0.0619949 0)
(0.55127 0.0610398 0)
(0.539786 0.0688766 0)
(0.527444 0.0821939 0)
(0.510861 0.0928369 0)
(0.491232 0.0933252 0)
(0.471256 0.0869998 0)
(0.450556 0.082963 0)
(0.431177 0.0840744 0)
(0.412839 0.0868124 0)
(0.395342 0.0883252 0)
(0.377723 0.0884408 0)
(0.359528 0.0885453 0)
(0.340633 0.0892022 0)
(0.32168 0.0905655 0)
(0.302772 0.0921179 0)
(0.285123 0.0934119 0)
(0.269447 0.0944196 0)
(0.255615 0.0956015 0)
(0.243438 0.0967957 0)
(0.230997 0.0979569 0)
(0.215868 0.0987547 0)
(0.197474 0.100041 0)
(0.175955 0.100999 0)
(0.152895 0.102228 0)
(0.129676 0.103118 0)
(0.109081 0.104562 0)
(0.0890769 0.107269 0)
(0.0694975 0.111195 0)
(0.0499913 0.116932 0)
(0.0300056 0.121635 0)
(0.0109173 0.126659 0)
(3 1.13417e-16 0)
(3 1.52041e-16 0)
(3 -7.84668e-17 0)
(3 4.6998e-17 0)
(3 7.02135e-17 0)
(3 4.15376e-16 0)
(3 1.40368e-15 0)
(3 1.56925e-15 0)
(3 7.38363e-16 0)
(3 1.22336e-16 0)
(3 -3.77303e-16 0)
(3 -5.05285e-16 0)
(3 -2.63003e-16 0)
(3 8.89279e-17 0)
(3 -1.95249e-16 0)
(3 -6.45804e-16 0)
(3 -4.3736e-16 0)
(3 3.03998e-17 0)
(3 6.65418e-16 0)
(3 9.63109e-16 0)
(3 2.64282e-15 0)
(3 3.01121e-15 0)
(3 3.11175e-15 0)
(3 2.50028e-15 0)
(3 8.04625e-16 0)
(3 -2.42236e-16 0)
(3 -3.93523e-16 0)
(3 -7.67403e-16 0)
(3 -1.01745e-15 0)
(3 -1.60343e-15 0)
(3 -2.47502e-15 0)
(3 -2.03729e-15 0)
(3 -1.99617e-15 0)
(3 -2.00648e-15 0)
(3 -1.47428e-15 0)
(3 -7.83822e-16 0)
(3 6.14744e-17 0)
(3 1.60002e-15 0)
(3 1.41736e-15 0)
(3 9.91712e-16 0)
(3 -5.15928e-16 0)
(3 -6.91157e-16 0)
(3 -8.7482e-16 0)
(3 -1.17913e-15 0)
(3 -9.55548e-16 0)
(3 -1.35722e-15 0)
(3 -2.60533e-15 0)
(3 -2.83156e-15 0)
(3 -2.39819e-15 0)
(3 -1.466e-15 0)
(3 -1.23567e-15 0)
(3 -4.78834e-16 0)
(3 2.16923e-16 0)
(3 -6.61866e-16 0)
(1.64193 0.0851385 0)
(0.775508 0.0806205 0)
(0.713353 0.0710708 0)
(0.695108 0.0871107 0)
(0.666358 0.102936 0)
(0.643191 0.12064 0)
(0.619798 0.124769 0)
(0.603895 0.116139 0)
(0.592451 0.100623 0)
(0.579759 0.0840232 0)
(0.56817 0.0731209 0)
(0.555131 0.0736097 0)
(0.543242 0.0831942 0)
(0.530247 0.0985661 0)
(0.512726 0.110022 0)
(0.492685 0.110171 0)
(0.472618 0.103247 0)
(0.451925 0.0986822 0)
(0.432716 0.0996869 0)
(0.414737 0.102635 0)
(0.397493 0.104389 0)
(0.379977 0.104731 0)
(0.361807 0.10513 0)
(0.342914 0.106075 0)
(0.323917 0.107673 0)
(0.304885 0.1094 0)
(0.287014 0.110825 0)
(0.271133 0.112023 0)
(0.257168 0.113604 0)
(0.244859 0.115265 0)
(0.232315 0.116715 0)
(0.217001 0.117709 0)
(0.198331 0.119016 0)
(0.176484 0.119873 0)
(0.152975 0.121284 0)
(0.12949 0.122434 0)
(0.108382 0.124039 0)
(0.087986 0.127031 0)
(0.068223 0.131044 0)
(0.0487806 0.137009 0)
(0.0291466 0.141818 0)
(0.0106529 0.147207 0)
(3 7.2361e-17 0)
(3 -3.96275e-17 0)
(3 -3.55229e-16 0)
(3 -5.70977e-16 0)
(3 -4.71228e-16 0)
(3 -1.53519e-16 0)
(3 3.91706e-16 0)
(3 7.89359e-16 0)
(3 8.84065e-16 0)
(3 1.85655e-16 0)
(3 -6.72083e-16 0)
(3 -1.23021e-15 0)
(3 -6.80681e-16 0)
(3 -9.3367e-16 0)
(3 -7.25697e-16 0)
(3 -4.60196e-17 0)
(3 9.80449e-16 0)
(3 1.70979e-15 0)
(3 1.81352e-15 0)
(3 1.7002e-15 0)
(3 1.80912e-15 0)
(3 2.10058e-15 0)
(3 2.27224e-15 0)
(3 1.90461e-15 0)
(3 1.10587e-15 0)
(3 6.62416e-17 0)
(3 -1.22346e-15 0)
(3 -8.03731e-16 0)
(3 -3.67372e-16 0)
(3 -4.70571e-16 0)
(3 -3.61049e-16 0)
(3 -8.41274e-16 0)
(3 -9.8238e-16 0)
(3 -1.32648e-15 0)
(3 -7.90546e-16 0)
(3 -3.35608e-16 0)
(3 4.82889e-16 0)
(3 1.00684e-15 0)
(3 5.97528e-17 0)
(3 -1.33844e-15 0)
(3 -2.41341e-15 0)
(3 -2.52193e-15 0)
(3 -3.03179e-15 0)
(3 -3.07134e-15 0)
(3 -3.26754e-15 0)
(3 -3.3518e-15 0)
(3 -2.97797e-15 0)
(3 -2.2519e-15 0)
(3 -1.50851e-15 0)
(3 -1.72118e-15 0)
(3 -1.57312e-15 0)
(3 -1.38875e-15 0)
(3 -9.57037e-16 0)
(3 -1.22199e-15 0)
(1.73359 0.0977397 0)
(0.78446 0.093996 0)
(0.712975 0.0863045 0)
(0.693801 0.105662 0)
(0.664155 0.12449 0)
(0.640714 0.139686 0)
(0.619589 0.138773 0)
(0.607127 0.127089 0)
(0.597069 0.109765 0)
(0.585142 0.0933068 0)
(0.572791 0.0842027 0)
(0.559483 0.0871557 0)
(0.546642 0.0989052 0)
(0.532904 0.116178 0)
(0.514473 0.127761 0)
(0.494392 0.127036 0)
(0.474505 0.119321 0)
(0.453973 0.114102 0)
(0.434963 0.114903 0)
(0.417308 0.11807 0)
(0.400195 0.120207 0)
(0.382616 0.120972 0)
(0.364298 0.121897 0)
(0.345233 0.123332 0)
(0.326082 0.125241 0)
(0.307052 0.127072 0)
(0.289104 0.128464 0)
(0.273261 0.129676 0)
(0.259429 0.131536 0)
(0.247021 0.133699 0)
(0.234405 0.13556 0)
(0.218652 0.136916 0)
(0.199552 0.138455 0)
(0.177458 0.139264 0)
(0.153835 0.140709 0)
(0.13021 0.14195 0)
(0.108623 0.14365 0)
(0.0876562 0.146821 0)
(0.0674845 0.150962 0)
(0.0478785 0.157162 0)
(0.0283453 0.161895 0)
(0.0103488 0.167525 0)
(3 -2.21059e-16 0)
(3 -6.51065e-16 0)
(3 -3.0848e-16 0)
(3 -3.52061e-17 0)
(3 1.31773e-16 0)
(3 -2.17406e-16 0)
(3 -6.75209e-16 0)
(3 -3.17187e-16 0)
(3 1.64029e-16 0)
(3 8.54388e-16 0)
(3 1.08254e-15 0)
(3 6.06825e-16 0)
(3 1.92863e-18 0)
(3 -3.0787e-16 0)
(3 2.76881e-16 0)
(3 4.32067e-16 0)
(3 6.15479e-16 0)
(3 1.43984e-15 0)
(3 1.66168e-15 0)
(3 1.58148e-15 0)
(3 1.12126e-15 0)
(3 1.12934e-15 0)
(3 5.49019e-16 0)
(3 1.78285e-16 0)
(3 4.83977e-16 0)
(3 -3.87373e-17 0)
(3 -2.55122e-16 0)
(3 1.55554e-17 0)
(3 1.16635e-16 0)
(3 9.48479e-16 0)
(3 1.80178e-15 0)
(3 1.45559e-15 0)
(3 6.96166e-16 0)
(3 1.42628e-16 0)
(3 -3.1409e-16 0)
(3 -3.55026e-16 0)
(3 2.05297e-16 0)
(3 6.07392e-16 0)
(3 -5.43431e-16 0)
(3 -2.30717e-15 0)
(3 -3.81073e-15 0)
(3 -4.34252e-15 0)
(3 -4.36928e-15 0)
(3 -4.24039e-15 0)
(3 -3.96445e-15 0)
(3 -3.19064e-15 0)
(3 -1.64511e-15 0)
(3 -5.49681e-16 0)
(3 -6.15514e-16 0)
(3 -9.10725e-16 0)
(3 -5.07698e-16 0)
(3 -1.45489e-15 0)
(3 -1.12988e-15 0)
(3 -2.36735e-15 0)
(1.84488 0.108974 0)
(0.795632 0.107503 0)
(0.712848 0.104095 0)
(0.691734 0.126896 0)
(0.661644 0.146614 0)
(0.638586 0.155825 0)
(0.621508 0.149785 0)
(0.612 0.135427 0)
(0.602448 0.117347 0)
(0.591414 0.102139 0)
(0.577556 0.0959494 0)
(0.564554 0.101993 0)
(0.549941 0.116213 0)
(0.535449 0.134942 0)
(0.516293 0.145813 0)
(0.496448 0.143768 0)
(0.476718 0.135229 0)
(0.456265 0.129387 0)
(0.437364 0.130024 0)
(0.42005 0.133476 0)
(0.403144 0.136054 0)
(0.385628 0.137232 0)
(0.367266 0.138686 0)
(0.348009 0.140698 0)
(0.328551 0.143055 0)
(0.309385 0.145089 0)
(0.291354 0.146457 0)
(0.275661 0.14756 0)
(0.26221 0.149559 0)
(0.249946 0.15218 0)
(0.237152 0.154392 0)
(0.220873 0.156174 0)
(0.201185 0.158178 0)
(0.178746 0.159123 0)
(0.155182 0.160565 0)
(0.131472 0.161747 0)
(0.109589 0.163415 0)
(0.0880789 0.166606 0)
(0.0673209 0.170937 0)
(0.0473755 0.177442 0)
(0.027701 0.182068 0)
(0.0100625 0.187935 0)
(3 -2.22366e-17 0)
(3 2.79405e-16 0)
(3 5.07521e-16 0)
(3 8.14543e-16 0)
(3 9.22391e-16 0)
(3 7.59621e-16 0)
(3 -5.68339e-17 0)
(3 -3.51949e-16 0)
(3 -4.29084e-16 0)
(3 -3.62081e-16 0)
(3 2.16129e-16 0)
(3 3.06396e-16 0)
(3 3.78929e-16 0)
(3 4.49577e-16 0)
(3 1.0607e-15 0)
(3 1.07212e-15 0)
(3 8.90026e-16 0)
(3 8.7051e-16 0)
(3 1.40397e-15 0)
(3 2.1503e-15 0)
(3 1.81084e-15 0)
(3 6.34496e-16 0)
(3 3.39717e-16 0)
(3 6.36016e-16 0)
(3 1.02204e-15 0)
(3 1.31017e-15 0)
(3 1.26036e-15 0)
(3 1.06655e-15 0)
(3 1.87592e-15 0)
(3 2.44729e-15 0)
(3 3.09771e-15 0)
(3 2.15267e-15 0)
(3 1.55164e-15 0)
(3 1.14617e-15 0)
(3 -5.92203e-17 0)
(3 -7.91647e-16 0)
(3 -1.02106e-15 0)
(3 -7.65759e-16 0)
(3 -1.04203e-15 0)
(3 -1.10344e-15 0)
(3 -1.68066e-15 0)
(3 -2.05969e-15 0)
(3 -2.62571e-15 0)
(3 -2.80558e-15 0)
(3 -3.17469e-15 0)
(3 -2.84015e-15 0)
(3 -1.40972e-15 0)
(3 -1.08776e-15 0)
(3 -1.53634e-15 0)
(3 -7.83126e-16 0)
(3 -6.84827e-16 0)
(3 -2.46928e-16 0)
(3 -2.54418e-16 0)
(3 -1.17943e-15 0)
(1.9745 0.119325 0)
(0.809125 0.12279 0)
(0.711138 0.125639 0)
(0.688259 0.150399 0)
(0.658925 0.166927 0)
(0.6377 0.168031 0)
(0.626082 0.157786 0)
(0.618689 0.140971 0)
(0.609171 0.123602 0)
(0.597542 0.111627 0)
(0.582496 0.109223 0)
(0.568786 0.11843 0)
(0.552371 0.135237 0)
(0.536991 0.154658 0)
(0.517506 0.163895 0)
(0.498447 0.16016 0)
(0.479024 0.150871 0)
(0.458742 0.144525 0)
(0.43998 0.145151 0)
(0.423089 0.149047 0)
(0.406489 0.152121 0)
(0.389145 0.153596 0)
(0.370832 0.155433 0)
(0.35138 0.157973 0)
(0.331457 0.16088 0)
(0.311813 0.163312 0)
(0.293666 0.164857 0)
(0.278134 0.165949 0)
(0.265245 0.167907 0)
(0.253555 0.170798 0)
(0.240521 0.173246 0)
(0.223802 0.175363 0)
(0.203453 0.177919 0)
(0.180461 0.179246 0)
(0.156886 0.180821 0)
(0.133022 0.181937 0)
(0.111001 0.183477 0)
(0.0890932 0.186656 0)
(0.0677359 0.190976 0)
(0.0472575 0.197881 0)
(0.0272558 0.20244 0)
(0.00983251 0.208619 0)
(3 2.73752e-16 0)
(3 3.03826e-16 0)
(3 1.40839e-16 0)
(3 3.82767e-16 0)
(3 3.64067e-16 0)
(3 1.33307e-16 0)
(3 -8.55369e-17 0)
(3 -6.11938e-16 0)
(3 -1.30701e-15 0)
(3 -1.17673e-15 0)
(3 -8.99721e-16 0)
(3 -6.78876e-16 0)
(3 -5.10713e-16 0)
(3 2.24515e-16 0)
(3 1.12804e-15 0)
(3 1.53371e-15 0)
(3 1.35591e-15 0)
(3 7.1093e-16 0)
(3 5.32778e-18 0)
(3 5.29474e-16 0)
(3 1.28024e-15 0)
(3 7.61973e-16 0)
(3 6.95375e-16 0)
(3 6.78646e-16 0)
(3 4.25321e-16 0)
(3 5.88891e-16 0)
(3 7.32952e-16 0)
(3 1.37869e-15 0)
(3 2.10535e-15 0)
(3 1.86753e-15 0)
(3 8.13034e-16 0)
(3 2.44996e-16 0)
(3 2.38173e-16 0)
(3 2.97707e-16 0)
(3 -1.32905e-15 0)
(3 -2.4387e-15 0)
(3 -3.15592e-15 0)
(3 -2.79358e-15 0)
(3 -1.55151e-15 0)
(3 1.01963e-16 0)
(3 6.59185e-16 0)
(3 -2.64034e-16 0)
(3 -1.4451e-15 0)
(3 -1.08227e-15 0)
(3 -8.77589e-16 0)
(3 -1.34495e-15 0)
(3 -1.44116e-15 0)
(3 -1.52405e-15 0)
(3 -1.34491e-15 0)
(3 -1.14634e-15 0)
(3 -1.19717e-15 0)
(3 -5.4785e-16 0)
(3 -3.84608e-16 0)
(3 8.68381e-16 0)
(2.12276 0.126748 0)
(0.824244 0.140153 0)
(0.70853 0.151279 0)
(0.684201 0.174266 0)
(0.657617 0.182768 0)
(0.641346 0.176694 0)
(0.633563 0.163011 0)
(0.626998 0.145425 0)
(0.616549 0.130413 0)
(0.603137 0.122657 0)
(0.58757 0.124656 0)
(0.57117 0.136553 0)
(0.55428 0.155672 0)
(0.537891 0.174767 0)
(0.518599 0.181437 0)
(0.50108 0.175705 0)
(0.48209 0.165848 0)
(0.462024 0.159233 0)
(0.443298 0.160193 0)
(0.426688 0.164902 0)
(0.410256 0.16867 0)
(0.39304 0.170326 0)
(0.374831 0.172278 0)
(0.355279 0.175115 0)
(0.334939 0.178466 0)
(0.314651 0.181408 0)
(0.296269 0.183411 0)
(0.280848 0.184874 0)
(0.268481 0.186855 0)
(0.257468 0.189709 0)
(0.244407 0.19228 0)
(0.227265 0.194568 0)
(0.206338 0.197569 0)
(0.182662 0.199442 0)
(0.158804 0.201368 0)
(0.134631 0.202576 0)
(0.112537 0.20402 0)
(0.0903772 0.207168 0)
(0.0685527 0.211443 0)
(0.0474977 0.218488 0)
(0.0270101 0.222967 0)
(0.00964887 0.229535 0)
(3 1.21309e-16 0)
(3 -1.20912e-16 0)
(3 -2.27223e-16 0)
(3 -9.91701e-17 0)
(3 1.8436e-16 0)
(3 -1.81878e-17 0)
(3 3.54842e-17 0)
(3 -4.04643e-16 0)
(3 -4.70587e-16 0)
(3 -6.6125e-16 0)
(3 -1.12089e-15 0)
(3 -1.53142e-15 0)
(3 -1.17806e-15 0)
(3 4.87402e-17 0)
(3 5.71497e-16 0)
(3 1.22226e-15 0)
(3 1.30257e-15 0)
(3 2.04352e-16 0)
(3 -5.35944e-16 0)
(3 -4.76454e-16 0)
(3 3.77907e-16 0)
(3 5.35876e-16 0)
(3 6.00855e-16 0)
(3 6.17187e-16 0)
(3 3.06346e-16 0)
(3 9.74601e-17 0)
(3 5.33832e-16 0)
(3 1.78161e-15 0)
(3 2.46844e-15 0)
(3 1.87186e-15 0)
(3 4.30701e-16 0)
(3 2.42739e-16 0)
(3 -1.21363e-16 0)
(3 -7.01107e-17 0)
(3 -1.42375e-15 0)
(3 -1.7575e-15 0)
(3 -1.53394e-15 0)
(3 -1.53971e-15 0)
(3 -5.5332e-16 0)
(3 3.96618e-16 0)
(3 4.36328e-16 0)
(3 -6.59764e-16 0)
(3 -1.5674e-15 0)
(3 -1.55823e-15 0)
(3 -6.17478e-16 0)
(3 -1.02106e-15 0)
(3 -1.31177e-15 0)
(3 -2.52503e-16 0)
(3 5.00751e-16 0)
(3 -1.39705e-17 0)
(3 -4.09614e-16 0)
(3 -8.40474e-16 0)
(3 -5.09687e-16 0)
(3 -4.61715e-15 0)
(2.2914 0.12905 0)
(0.846617 0.159671 0)
(0.706081 0.179667 0)
(0.681805 0.195231 0)
(0.661473 0.193789 0)
(0.650504 0.182797 0)
(0.643975 0.166827 0)
(0.63577 0.15083 0)
(0.623925 0.139354 0)
(0.608166 0.135677 0)
(0.591757 0.142134 0)
(0.572573 0.156417 0)
(0.555343 0.177067 0)
(0.538317 0.194534 0)
(0.519905 0.197904 0)
(0.504594 0.190089 0)
(0.486161 0.179912 0)
(0.466335 0.173348 0)
(0.447505 0.175083 0)
(0.430892 0.181095 0)
(0.414288 0.185898 0)
(0.397002 0.187712 0)
(0.37891 0.189475 0)
(0.359404 0.192245 0)
(0.338864 0.195749 0)
(0.318125 0.199136 0)
(0.299487 0.201791 0)
(0.284083 0.204065 0)
(0.27211 0.206451 0)
(0.261402 0.209185 0)
(0.248551 0.211707 0)
(0.23112 0.213988 0)
(0.209745 0.217243 0)
(0.185411 0.21965 0)
(0.161019 0.222106 0)
(0.136376 0.223627 0)
(0.114151 0.225115 0)
(0.0918248 0.228247 0)
(0.0697348 0.232486 0)
(0.0482555 0.239628 0)
(0.0272368 0.243931 0)
(0.0095713 0.250803 0)
(3 -1.23807e-16 0)
(3 1.33935e-16 0)
(3 9.4143e-17 0)
(3 -1.85802e-16 0)
(3 -4.77107e-16 0)
(3 -5.56097e-16 0)
(3 -7.08958e-16 0)
(3 -6.11977e-16 0)
(3 4.47759e-17 0)
(3 3.1099e-16 0)
(3 -1.55429e-16 0)
(3 -5.77822e-16 0)
(3 -4.69044e-16 0)
(3 1.53381e-17 0)
(3 6.35673e-16 0)
(3 4.64827e-16 0)
(3 -1.45635e-16 0)
(3 -2.84307e-16 0)
(3 -2.91405e-16 0)
(3 -5.73252e-17 0)
(3 -1.85391e-16 0)
(3 2.72244e-16 0)
(3 8.45389e-16 0)
(3 1.38547e-15 0)
(3 1.34213e-15 0)
(3 7.21201e-16 0)
(3 1.10268e-15 0)
(3 1.3765e-15 0)
(3 1.31206e-15 0)
(3 9.03057e-16 0)
(3 2.16056e-16 0)
(3 3.92187e-17 0)
(3 -3.87562e-16 0)
(3 -8.65579e-16 0)
(3 -9.70361e-16 0)
(3 -8.0635e-16 0)
(3 -6.79709e-16 0)
(3 -3.62812e-16 0)
(3 -3.5255e-16 0)
(3 -5.56813e-16 0)
(3 -6.35363e-16 0)
(3 -1.03475e-15 0)
(3 -1.12507e-15 0)
(3 -1.35126e-15 0)
(3 -5.51422e-16 0)
(3 8.16823e-17 0)
(3 3.54908e-16 0)
(3 6.51099e-16 0)
(3 6.9205e-16 0)
(3 -6.72248e-16 0)
(3 -1.30474e-15 0)
(3 -2.02465e-15 0)
(3 -1.86792e-15 0)
(3 -3.50716e-15 0)
(2.46405 0.12911 0)
(0.87323 0.187159 0)
(0.705426 0.206467 0)
(0.687107 0.208817 0)
(0.672423 0.201133 0)
(0.663495 0.186866 0)
(0.656265 0.171168 0)
(0.644847 0.158877 0)
(0.630537 0.151181 0)
(0.612734 0.151042 0)
(0.594425 0.160799 0)
(0.573678 0.177424 0)
(0.556418 0.198775 0)
(0.539036 0.213262 0)
(0.522077 0.21307 0)
(0.509241 0.203259 0)
(0.491446 0.192998 0)
(0.471815 0.186912 0)
(0.452792 0.189821 0)
(0.435929 0.197556 0)
(0.418821 0.203698 0)
(0.401217 0.205743 0)
(0.38318 0.207119 0)
(0.363833 0.209482 0)
(0.343329 0.212803 0)
(0.322593 0.216455 0)
(0.303855 0.219783 0)
(0.288452 0.223128 0)
(0.276452 0.226299 0)
(0.265577 0.229169 0)
(0.252754 0.231629 0)
(0.235213 0.233854 0)
(0.213529 0.237147 0)
(0.188751 0.239916 0)
(0.163777 0.242997 0)
(0.138584 0.245004 0)
(0.116087 0.246692 0)
(0.0935861 0.249908 0)
(0.0713677 0.254136 0)
(0.0496103 0.261291 0)
(0.0281156 0.265372 0)
(0.00971235 0.272401 0)
(3 -1.31293e-16 0)
(3 -2.20882e-16 0)
(3 -2.40753e-17 0)
(3 -3.41895e-17 0)
(3 -1.47059e-16 0)
(3 -2.32254e-16 0)
(3 -4.17607e-16 0)
(3 -1.12899e-15 0)
(3 -1.01095e-15 0)
(3 -1.28157e-16 0)
(3 1.05769e-15 0)
(3 9.4187e-16 0)
(3 -1.18715e-16 0)
(3 -7.64868e-16 0)
(3 -1.0436e-15 0)
(3 -6.43229e-16 0)
(3 -6.09116e-16 0)
(3 -8.33017e-17 0)
(3 3.95082e-16 0)
(3 4.0368e-16 0)
(3 2.67487e-16 0)
(3 8.30306e-16 0)
(3 1.36605e-15 0)
(3 8.13859e-16 0)
(3 4.8246e-16 0)
(3 9.15806e-16 0)
(3 9.30828e-16 0)
(3 3.81791e-16 0)
(3 2.17245e-16 0)
(3 3.66456e-16 0)
(3 -3.91564e-16 0)
(3 -9.4854e-16 0)
(3 -1.38657e-15 0)
(3 -1.73763e-15 0)
(3 -5.66312e-16 0)
(3 7.16191e-16 0)
(3 5.64193e-16 0)
(3 6.90702e-17 0)
(3 -2.93164e-16 0)
(3 -6.8598e-16 0)
(3 -8.29626e-16 0)
(3 -7.09716e-16 0)
(3 1.27665e-16 0)
(3 6.12688e-16 0)
(3 4.59067e-16 0)
(3 1.42167e-15 0)
(3 1.08416e-15 0)
(3 -4.23354e-16 0)
(3 -9.42935e-16 0)
(3 -1.6387e-15 0)
(3 -2.7812e-15 0)
(3 -3.32131e-15 0)
(3 -2.84538e-15 0)
(3 -3.80035e-15 0)
(2.63447 0.127883 0)
(0.913683 0.219652 0)
(0.712489 0.223707 0)
(0.701693 0.214584 0)
(0.688364 0.205188 0)
(0.678376 0.192296 0)
(0.66758 0.179015 0)
(0.652963 0.170333 0)
(0.635899 0.165929 0)
(0.615497 0.168715 0)
(0.595148 0.180935 0)
(0.574255 0.199162 0)
(0.556987 0.220133 0)
(0.539786 0.230494 0)
(0.525313 0.226882 0)
(0.514151 0.215794 0)
(0.497641 0.205292 0)
(0.478136 0.200318 0)
(0.45894 0.204668 0)
(0.441692 0.214347 0)
(0.423867 0.221913 0)
(0.40569 0.224204 0)
(0.387479 0.225147 0)
(0.3682 0.226989 0)
(0.347885 0.22994 0)
(0.327644 0.233708 0)
(0.309102 0.237633 0)
(0.293776 0.242035 0)
(0.281256 0.246112 0)
(0.26987 0.249449 0)
(0.25662 0.252024 0)
(0.238978 0.254297 0)
(0.217245 0.257511 0)
(0.192305 0.26044 0)
(0.166913 0.264135 0)
(0.141145 0.266682 0)
(0.118202 0.268693 0)
(0.0954389 0.272141 0)
(0.0731397 0.276471 0)
(0.0512318 0.283603 0)
(0.0293863 0.287436 0)
(0.00998772 0.294444 0)
(3 6.87938e-17 0)
(3 3.70069e-17 0)
(3 -4.4893e-16 0)
(3 -4.16244e-16 0)
(3 5.49094e-17 0)
(3 2.06829e-16 0)
(3 2.83605e-16 0)
(3 2.10141e-16 0)
(3 -2.06919e-16 0)
(3 -2.94838e-16 0)
(3 7.89689e-16 0)
(3 8.56578e-16 0)
(3 5.87963e-16 0)
(3 1.41607e-16 0)
(3 -1.04202e-15 0)
(3 -1.31359e-15 0)
(3 -1.9269e-16 0)
(3 9.6957e-16 0)
(3 1.27136e-15 0)
(3 1.07654e-15 0)
(3 3.19308e-16 0)
(3 2.13296e-16 0)
(3 4.3688e-16 0)
(3 2.26594e-16 0)
(3 7.54733e-16 0)
(3 2.09931e-15 0)
(3 1.73265e-15 0)
(3 1.41006e-15 0)
(3 1.09774e-15 0)
(3 1.42561e-15 0)
(3 7.64004e-16 0)
(3 3.80786e-16 0)
(3 -6.36623e-16 0)
(3 -7.67695e-16 0)
(3 8.24053e-16 0)
(3 2.39013e-15 0)
(3 2.59131e-15 0)
(3 1.75519e-15 0)
(3 7.78854e-16 0)
(3 4.33765e-16 0)
(3 4.67951e-16 0)
(3 3.09031e-16 0)
(3 3.77893e-16 0)
(3 1.31715e-15 0)
(3 1.06297e-15 0)
(3 4.82999e-16 0)
(3 -4.90601e-17 0)
(3 -8.55508e-16 0)
(3 -9.05148e-16 0)
(3 -8.02698e-16 0)
(3 -1.59196e-15 0)
(3 -1.60995e-15 0)
(3 -2.1367e-15 0)
(3 -3.23305e-15 0)
(2.7993 0.122755 0)
(0.968151 0.251401 0)
(0.726075 0.230158 0)
(0.720125 0.219348 0)
(0.706231 0.209621 0)
(0.692116 0.198558 0)
(0.676123 0.190685 0)
(0.658407 0.185494 0)
(0.638509 0.183462 0)
(0.61643 0.188468 0)
(0.593866 0.20204 0)
(0.573347 0.221275 0)
(0.556517 0.240129 0)
(0.540591 0.245519 0)
(0.528867 0.239527 0)
(0.519261 0.227816 0)
(0.504381 0.21725 0)
(0.484983 0.214081 0)
(0.46556 0.220142 0)
(0.447829 0.231826 0)
(0.429165 0.240591 0)
(0.410261 0.242866 0)
(0.391741 0.243315 0)
(0.372461 0.244739 0)
(0.352542 0.247413 0)
(0.333092 0.251286 0)
(0.315338 0.255675 0)
(0.300046 0.260893 0)
(0.286847 0.265736 0)
(0.274644 0.269709 0)
(0.26071 0.272564 0)
(0.24285 0.275047 0)
(0.221323 0.278311 0)
(0.196425 0.281333 0)
(0.170866 0.285553 0)
(0.144489 0.288634 0)
(0.120922 0.291097 0)
(0.0977443 0.294933 0)
(0.0752508 0.29954 0)
(0.0531625 0.306672 0)
(0.0309938 0.310228 0)
(0.0104075 0.317032 0)
(3 1.18753e-16 0)
(3 3.48361e-16 0)
(3 2.7445e-16 0)
(3 -7.13317e-17 0)
(3 1.5995e-16 0)
(3 4.01139e-16 0)
(3 1.03502e-15 0)
(3 1.65223e-15 0)
(3 1.09918e-15 0)
(3 9.23289e-16 0)
(3 6.35547e-16 0)
(3 3.51392e-17 0)
(3 8.72525e-17 0)
(3 5.71362e-16 0)
(3 5.06536e-16 0)
(3 -1.22519e-16 0)