/*--------------------------------*- C++ -*----------------------------------*\
  =========                 |
  \\      /  F ield         | OpenFOAM: The Open Source CFD Toolbox
   \\    /   O peration     | Website:  https://openfoam.org
    \\  /    A nd           | Version:  7
     \\/     M anipulation  |
\*---------------------------------------------------------------------------*/
FoamFile
{
    version     2.0;
    format      ascii;
    class       volVectorField;
    location    "0.1";
    object      U;
}
// * * * * * * * * * * * * * * * * * * * * * * * * * * * * * * * * * * * * * //

dimensions      [0 1 -1 0 0 0 0];

internalField   nonuniform List<vector> 
4032
(
(3 3.652e-17 0)
(3 1.25398e-17 0)
(3 8.78559e-17 0)
(3 1.39934e-17 0)
(3 -4.63866e-17 0)
(3 1.66885e-16 0)
(3 6.55382e-16 0)
(3 9.96163e-16 0)
(3 1.41768e-15 0)
(3 1.23215e-15 0)
(3 3.59112e-17 0)
(3 -1.2254e-15 0)
(3 -1.45354e-15 0)
(3 3.25065e-16 0)
(3 1.1165e-15 0)
(3 1.04104e-15 0)
(3 4.28537e-16 0)
(3 6.55741e-17 0)
(3 -4.87589e-17 0)
(3 -2.36421e-16 0)
(1.9282 5.15043e-05 0)
(-0.0628384 0.000320468 0)
(-0.490038 0.000725895 0)
(-0.146863 0.00125506 0)
(3 4.85103e-16 0)
(3 1.08466e-15 0)
(3 1.20325e-15 0)
(3 9.76407e-16 0)
(3 8.66083e-16 0)
(3 7.20509e-16 0)
(3 1.34985e-15 0)
(3 1.61612e-15 0)
(3 1.43688e-15 0)
(3 1.05628e-15 0)
(3 -2.12613e-17 0)
(3 -1.28026e-15 0)
(3 -2.08579e-15 0)
(3 -1.05972e-15 0)
(3 1.11922e-15 0)
(3 1.87783e-15 0)
(3 1.38426e-15 0)
(3 7.76413e-16 0)
(3 4.00932e-16 0)
(3 -1.62928e-16 0)
(1.9322 0.00280591 0)
(-0.0573117 0.0100113 0)
(-0.485995 0.0160459 0)
(-0.146058 0.0232809 0)
(3 1.98031e-16 0)
(3 9.7155e-16 0)
(3 7.53354e-16 0)
(3 5.23162e-16 0)
(3 2.11086e-16 0)
(3 -1.34243e-16 0)
(3 1.78675e-16 0)
(3 6.15811e-16 0)
(3 6.03963e-16 0)
(3 7.33318e-16 0)
(3 8.34532e-16 0)
(3 9.79358e-16 0)
(3 -2.12977e-16 0)
(3 -3.70501e-16 0)
(3 -5.87917e-16 0)
(3 -1.73974e-16 0)
(3 9.18262e-16 0)
(3 1.44264e-15 0)
(3 1.23852e-15 0)
(3 1.8582e-17 0)
(1.97797 0.0231267 0)
(-0.0262151 0.0597488 0)
(-0.469933 0.0723196 0)
(-0.142635 0.089487 0)
(3 -4.07567e-16 0)
(3 -1.08094e-15 0)
(3 -1.03494e-15 0)
(3 -9.02569e-16 0)
(3 -6.57657e-16 0)
(3 -5.92659e-16 0)
(3 -4.67312e-16 0)
(3 3.49786e-16 0)
(3 8.48441e-16 0)
(3 5.44651e-16 0)
(3 1.01756e-15 0)
(3 1.04561e-15 0)
(3 1.17834e-15 0)
(3 9.07086e-16 0)
(3 3.85011e-16 0)
(3 -4.73665e-16 0)
(3 -2.79554e-16 0)
(3 -4.51339e-17 0)
(3 -8.8427e-17 0)
(3 -7.54321e-16 0)
(2.13543 0.0635183 0)
(0.0565054 0.166641 0)
(-0.434956 0.168009 0)
(-0.134054 0.185758 0)
(3 1.9466e-16 0)
(3 7.25896e-17 0)
(3 7.58761e-17 0)
(3 -8.58103e-16 0)
(3 -7.67764e-16 0)
(3 -5.83362e-16 0)
(3 -5.96425e-16 0)
(3 -2.93671e-17 0)
(3 2.65422e-16 0)
(3 1.70226e-16 0)
(3 1.6008e-16 0)
(3 1.11389e-16 0)
(3 4.29851e-16 0)
(3 7.07453e-16 0)
(3 1.38968e-15 0)
(3 8.78924e-16 0)
(3 -2.33474e-16 0)
(3 -1.49819e-15 0)
(3 -1.30387e-15 0)
(3 -1.89985e-15 0)
(2.42206 0.0889425 0)
(0.218923 0.305045 0)
(-0.362611 0.279299 0)
(-0.111401 0.288982 0)
(3 3.48171e-16 0)
(3 7.01854e-16 0)
(3 5.73022e-16 0)
(3 -3.46232e-16 0)
(3 -8.41956e-16 0)
(3 -1.72152e-15 0)
(3 -2.18086e-15 0)
(3 -2.47707e-15 0)
(3 -1.88356e-15 0)
(3 -3.68555e-17 0)
(3 4.30363e-16 0)
(3 2.54681e-16 0)
(3 6.19816e-17 0)
(3 -1.78243e-16 0)
(3 -6.96995e-17 0)
(3 -3.23445e-16 0)
(3 -6.43233e-16 0)
(3 -7.80008e-16 0)
(3 -6.97521e-16 0)
(3 -8.20971e-16 0)
(2.75811 0.0609838 0)
(0.485745 0.46755 0)
(-0.250105 0.422844 0)
(-0.0723153 0.419991 0)
(3 -2.5819e-16 0)
(3 6.55103e-17 0)
(3 1.24416e-16 0)
(3 3.54854e-16 0)
(3 6.19579e-17 0)
(3 -8.22547e-16 0)
(3 -1.38653e-15 0)
(3 -1.57905e-15 0)
(3 -1.38128e-15 0)
(3 -6.30548e-16 0)
(3 2.51681e-16 0)
(3 1.60988e-16 0)
(3 -4.46854e-16 0)
(3 -1.03419e-15 0)
(3 -1.40053e-15 0)
(3 -1.46412e-15 0)
(3 -7.48207e-16 0)
(3 -2.84736e-16 0)
(3 1.7794e-16 0)
(3 2.08849e-16 0)
(2.99815 0.0035799 0)
(0.949205 0.629041 0)
(-0.0611541 0.556294 0)
(0.0559706 0.543244 0)
(3 2.31759e-16 0)
(3 3.94642e-16 0)
(3 1.24989e-16 0)
(3 3.89667e-16 0)
(3 7.11644e-16 0)
(3 1.25151e-15 0)
(3 1.58047e-15 0)
(3 8.2354e-16 0)
(3 1.62269e-16 0)
(3 -3.65122e-16 0)
(3 -1.06945e-15 0)
(3 -1.10232e-15 0)
(3 -1.01731e-15 0)
(3 -9.2123e-16 0)
(3 -9.82506e-16 0)
(3 -7.163e-16 0)
(3 -5.29188e-16 0)
(3 -3.60697e-16 0)
(3 -2.07214e-16 0)
(3 -8.67395e-17 0)
(3 1.37021e-06 0)
(1.79436 0.629968 0)
(0.151185 0.758641 0)
(0.155631 0.892659 0)
(3 1.13437e-16 0)
(3 -3.78515e-17 0)
(3 -5.22067e-16 0)
(3 -6.68534e-16 0)
(3 -1.96297e-16 0)
(3 8.78579e-16 0)
(3 1.27812e-15 0)
(3 1.34212e-15 0)
(3 1.10275e-15 0)
(3 1.72579e-17 0)
(3 -6.2498e-16 0)
(3 -3.45903e-16 0)
(3 1.30248e-16 0)
(3 -3.90202e-16 0)
(3 -1.01395e-15 0)
(3 -8.58881e-16 0)
(3 -5.08558e-17 0)
(3 -5.49352e-17 0)
(3 -2.0992e-16 0)
(3 -1.21671e-16 0)
(3 4.09071e-12 0)
(2.90423 0.164637 0)
(0.987684 0.980666 0)
(0.612383 1.42074 0)
(3 -3.06162e-16 0)
(3 -4.30154e-16 0)
(3 -4.80373e-16 0)
(3 -9.98654e-16 0)
(3 -8.94094e-16 0)
(3 -6.46651e-16 0)
(3 -1.54993e-16 0)
(3 4.7652e-16 0)
(3 3.95153e-17 0)
(3 -1.07551e-15 0)
(3 -9.28391e-16 0)
(3 -3.16093e-16 0)
(3 -1.57729e-16 0)
(3 -3.16878e-16 0)
(3 -1.09394e-15 0)
(3 -3.83445e-16 0)
(3 3.31832e-16 0)
(3 9.36603e-16 0)
(3 5.49306e-16 0)
(3 4.5995e-16 0)
(3 2.77556e-16 0)
(3.0032 0.00275169 0)
(2.34606 0.611726 0)
(1.20873 1.34817 0)
(3 -1.38837e-16 0)
(3 -5.64131e-17 0)
(3 3.59948e-16 0)
(3 7.86842e-16 0)
(3 5.97604e-16 0)
(3 -9.66876e-17 0)
(3 -5.80296e-16 0)
(3 -1.43334e-16 0)
(3 -2.32948e-16 0)
(3 -1.07578e-16 0)
(3 -8.68022e-16 0)
(3 -1.1516e-15 0)
(3 -8.26903e-16 0)
(3 3.93506e-17 0)
(3 4.32481e-16 0)
(3 7.96362e-16 0)
(3 1.82979e-15 0)
(3 1.94118e-15 0)
(3 1.65347e-15 0)
(3 7.63253e-16 0)
(3 3.27699e-16 0)
(3 2.48173e-06 0)
(3.02819 0.0580923 0)
(1.90768 1.00089 0)
(3 -8.85427e-17 0)
(3 1.10855e-16 0)
(3 5.36813e-16 0)
(3 1.18864e-15 0)
(3 9.74271e-16 0)
(3 1.98192e-16 0)
(3 1.2307e-16 0)
(3 -1.86933e-16 0)
(3 -5.65787e-17 0)
(3 1.07342e-15 0)
(3 7.92683e-16 0)
(3 3.9484e-16 0)
(3 -2.20704e-16 0)
(3 2.0977e-16 0)
(3 1.15762e-15 0)
(3 1.42775e-15 0)
(3 1.72703e-15 0)
(3 1.4139e-15 0)
(3 1.3012e-15 0)
(3 1.1111e-15 0)
(3 3.88846e-16 0)
(3 4.62567e-11 0)
(3.0011 0.000619154 0)
(2.83523 0.231147 0)
(3 1.1938e-16 0)
(3 2.4332e-17 0)
(3 5.44828e-17 0)
(3 -2.43833e-17 0)
(3 -1.34689e-16 0)
(3 1.28633e-16 0)
(3 4.65954e-16 0)
(3 1.67916e-16 0)
(3 1.14424e-16 0)
(3 2.23748e-16 0)
(3 9.44473e-16 0)
(3 8.90755e-16 0)
(3 8.94658e-16 0)
(3 9.36292e-16 0)
(3 9.68114e-16 0)
(3 4.65019e-16 0)
(3 -3.69537e-16 0)
(3 -4.19578e-16 0)
(3 -2.54182e-16 0)
(3 -2.59316e-17 0)
(3 -2.63618e-16 0)
(3 2.45535e-16 0)
(3 3.71435e-07 0)
(2.99895 0.00662683 0)
(3 2.30727e-16 0)
(3 2.16927e-16 0)
(3 -1.67111e-16 0)
(3 -6.24979e-16 0)
(3 -1.1114e-15 0)
(3 -7.61445e-16 0)
(3 -6.70235e-16 0)
(3 -2.05693e-16 0)
(3 -1.08821e-16 0)
(3 -3.49138e-16 0)
(3 -1.20415e-16 0)
(3 -8.05404e-17 0)
(3 5.27458e-16 0)
(3 5.1716e-16 0)
(3 6.2294e-16 0)
(3 1.7845e-16 0)
(3 -9.09201e-16 0)
(3 -7.94648e-16 0)
(3 -4.09737e-16 0)
(3 -4.26765e-16 0)
(3 -2.74332e-16 0)
(3 -5.50969e-16 0)
(3 9.93123e-12 0)
(3 1.74882e-05 0)
(3 1.85691e-16 0)
(3 3.40039e-16 0)
(3 -6.2242e-16 0)
(3 -9.55285e-16 0)
(3 -7.17987e-16 0)
(3 -8.19071e-16 0)
(3 -1.18976e-15 0)
(3 -1.27864e-15 0)
(3 -1.4011e-15 0)
(3 -1.82079e-15 0)
(3 -1.79033e-15 0)
(3 -7.1238e-16 0)
(3 -4.88333e-16 0)
(3 -7.96471e-17 0)
(3 4.19729e-16 0)
(3 5.19346e-16 0)
(3 2.62426e-16 0)
(3 6.5507e-16 0)
(3 3.00969e-16 0)
(3 3.09358e-17 0)
(3 1.96328e-16 0)
(3 -1.75492e-16 0)
(3 -1.03315e-15 0)
(3 3.01058e-09 0)
(3 -1.67994e-16 0)
(3 -6.69367e-16 0)
(3 -1.34493e-15 0)
(3 -1.26725e-15 0)
(3 -5.66256e-16 0)
(3 -5.14396e-16 0)
(3 -3.19938e-16 0)
(3 -2.10094e-16 0)
(3 -8.05729e-17 0)
(3 -3.70718e-16 0)
(3 -9.45742e-16 0)
(3 -1.39191e-16 0)
(3 6.40127e-16 0)
(3 7.76732e-16 0)
(3 9.87458e-16 0)
(3 1.48187e-15 0)
(3 1.88532e-15 0)
(3 9.89096e-16 0)
(3 6.36221e-16 0)
(3 1.23953e-15 0)
(3 1.21957e-15 0)
(3 9.40208e-16 0)
(3 1.79779e-16 0)
(3 9.00601e-14 0)
(3 -3.0202e-16 0)
(3 -5.40277e-16 0)
(3 -2.14499e-17 0)
(3 2.07446e-16 0)
(3 1.53007e-16 0)
(3 3.21773e-16 0)
(3 3.54895e-16 0)
(3 2.15055e-16 0)
(3 2.69048e-16 0)
(3 9.92625e-16 0)
(3 8.81471e-16 0)
(3 -6.26498e-17 0)
(3 -3.20711e-16 0)
(3 -1.98125e-16 0)
(3 7.98544e-16 0)
(3 1.2133e-15 0)
(3 8.97487e-16 0)
(3 2.2624e-16 0)
(3 9.20506e-16 0)
(3 2.09539e-15 0)
(3 2.63967e-15 0)
(3 2.78852e-15 0)
(3 2.25077e-15 0)
(3 3.9666e-16 0)
(3 -2.51541e-16 0)
(3 1.02247e-16 0)
(3 9.34664e-16 0)
(3 8.45949e-16 0)
(3 7.38157e-16 0)
(3 -1.23875e-17 0)
(3 -1.00822e-15 0)
(3 -7.77702e-16 0)
(3 6.74682e-17 0)
(3 6.02529e-16 0)
(3 1.57404e-16 0)
(3 -1.03429e-15 0)
(3 -1.31111e-15 0)
(3 -1.2781e-15 0)
(3 -1.24655e-15 0)
(3 -8.41361e-16 0)
(3 -1.24973e-15 0)
(3 -9.13521e-16 0)
(3 1.21691e-16 0)
(3 8.41397e-16 0)
(3 1.4371e-15 0)
(3 1.53012e-15 0)
(3 1.19401e-15 0)
(3 5.66907e-16 0)
(3 -4.00186e-17 0)
(3 1.93381e-16 0)
(3 4.37978e-16 0)
(3 4.18408e-16 0)
(3 -7.99193e-17 0)
(3 -1.20366e-15 0)
(3 -1.52303e-15 0)
(3 -6.96556e-16 0)
(3 2.5385e-16 0)
(3 2.87343e-16 0)
(3 -7.33071e-16 0)
(3 -6.90648e-16 0)
(3 -6.95161e-16 0)
(3 -1.14991e-15 0)
(3 -2.45196e-15 0)
(3 -3.03582e-15 0)
(3 -2.53252e-15 0)
(3 -1.1645e-15 0)
(3 -5.77462e-16 0)
(3 -1.99718e-16 0)
(3 2.00395e-18 0)
(3 4.52832e-16 0)
(3 3.28928e-16 0)
(3 5.23085e-16 0)
(3 1.14686e-16 0)
(3 3.39609e-16 0)
(3 2.22979e-16 0)
(3 3.78909e-16 0)
(3 3.75433e-16 0)
(3 3.83707e-16 0)
(3 4.06233e-16 0)
(3 -4.19705e-16 0)
(3 -1.41636e-15 0)
(3 -1.30125e-15 0)
(3 -8.1893e-16 0)
(3 5.4686e-18 0)
(3 -3.94551e-16 0)
(3 -1.77645e-17 0)
(3 2.4867e-16 0)
(3 -2.06385e-16 0)
(3 -1.0278e-15 0)
(3 -1.19912e-15 0)
(3 -1.37333e-15 0)
(3 -1.49893e-15 0)
(3 -1.15372e-15 0)
(3 -7.85203e-16 0)
(3 -2.43647e-16 0)
(3 5.52938e-17 0)
(3 2.55004e-16 0)
(3 1.77573e-16 0)
(3 9.27372e-18 0)
(3 2.08918e-16 0)
(3 5.89642e-16 0)
(3 1.25624e-15 0)
(3 2.22319e-15 0)
(3 1.51621e-15 0)
(3 -5.10188e-16 0)
(3 -1.18073e-15 0)
(3 -9.63474e-16 0)
(3 7.17663e-17 0)
(3 -3.6715e-17 0)
(3 4.49112e-16 0)
(3 1.04273e-15 0)
(3 6.74251e-16 0)
(3 7.86724e-16 0)
(3 -3.85372e-16 0)
(3 -6.81508e-16 0)
(3 -1.67754e-15 0)
(3 -2.33792e-15 0)
(3 -1.79862e-15 0)
(3 -1.05491e-15 0)
(3 -9.9723e-16 0)
(3 6.51387e-18 0)
(3 -1.24096e-16 0)
(3 7.61846e-18 0)
(3 5.34638e-16 0)
(3 3.69699e-16 0)
(3 4.11775e-16 0)
(3 7.45103e-16 0)
(3 1.19945e-15 0)
(3 9.62374e-16 0)
(3 -2.93515e-16 0)
(3 -2.383e-16 0)
(3 -6.79801e-17 0)
(3 7.83735e-17 0)
(3 8.56977e-17 0)
(3 -4.74417e-16 0)
(3 1.80609e-16 0)
(3 5.8056e-16 0)
(3 6.93269e-16 0)
(3 2.04298e-16 0)
(3 -1.61419e-15 0)
(3 -2.05839e-15 0)
(3 -1.61728e-15 0)
(3 -1.37578e-15 0)
(3 -1.12693e-15 0)
(3 -1.25739e-17 0)
(3 5.02501e-17 0)
(3 2.43357e-16 0)
(3 2.73086e-16 0)
(3 4.57166e-16 0)
(3 1.92414e-16 0)
(3 -9.31338e-16 0)
(3 -1.50399e-15 0)
(3 -1.71077e-15 0)
(3 -1.78645e-15 0)
(3 -1.12705e-15 0)
(3 -8.91172e-16 0)
(3 -8.37195e-16 0)
(3 -1.01913e-15 0)
(3 -1.06172e-15 0)
(3 -3.70457e-16 0)
(3 -2.91357e-16 0)
(3 2.92636e-17 0)
(3 -4.30287e-17 0)
(3 -2.51839e-16 0)
(3 -9.60195e-16 0)
(3 -1.07969e-15 0)
(3 -5.05778e-16 0)
(3 -1.28293e-16 0)
(3 -1.09556e-16 0)
(3 1.2199e-16 0)
(3 -6.68674e-17 0)
(3 -4.27185e-16 0)
(3 -2.46727e-16 0)
(3 1.40064e-16 0)
(3 -1.72766e-16 0)
(3 -1.83355e-15 0)
(3 -3.64095e-15 0)
(3 -3.49002e-15 0)
(3 -2.92449e-15 0)
(3 -2.50281e-15 0)
(3 -2.24851e-15 0)
(3 -2.14514e-15 0)
(3 -5.04096e-16 0)
(3 -3.71564e-16 0)
(3 1.79464e-16 0)
(3 1.74463e-16 0)
(3 4.80382e-16 0)
(3 9.17051e-16 0)
(3 9.30645e-16 0)
(3 5.87771e-16 0)
(3 4.41642e-16 0)
(3 5.09202e-16 0)
(3 -3.30627e-16 0)
(3 -4.46915e-16 0)
(3 -1.9136e-16 0)
(3 -2.90601e-16 0)
(3 -6.14802e-16 0)
(3 -4.25571e-16 0)
(3 -4.23481e-16 0)
(3 -4.39453e-16 0)
(3 -1.07387e-15 0)
(3 -9.15946e-16 0)
(3 -8.19961e-16 0)
(3 -1.22397e-15 0)
(3 -1.68102e-15 0)
(3 -4.51768e-16 0)
(3 6.10468e-16 0)
(3 7.91977e-16 0)
(3 8.38517e-17 0)
(3 -2.55722e-16 0)
(3 -2.87752e-16 0)
(3 -2.23465e-16 0)
(3 1.46103e-15 0)
(3 2.40745e-15 0)
(3 1.9315e-15 0)
(3 1.47478e-15 0)
(3 2.01709e-16 0)
(3 1.8111e-16 0)
(3 -1.91488e-16 0)
(3 -8.07501e-17 0)
(3 2.0684e-16 0)
(3 -1.07681e-16 0)
(3 -5.26548e-16 0)
(3 -6.53467e-17 0)
(3 1.4743e-15 0)
(3 1.82659e-15 0)
(3 1.0964e-15 0)
(3 -1.02841e-16 0)
(3 -6.67475e-16 0)
(3 -5.886e-17 0)
(3 7.81555e-18 0)
(3 -4.60626e-16 0)
(3 -8.75809e-16 0)
(3 -6.7482e-16 0)
(3 -6.89225e-16 0)
(3 2.34125e-16 0)
(3 1.38506e-15 0)
(3 1.93392e-15 0)
(3 1.88092e-15 0)
(3 8.00205e-16 0)
(3 3.28775e-16 0)
(3 2.84511e-16 0)
(3 -4.14356e-16 0)
(3 -3.12139e-16 0)
(3 2.35681e-16 0)
(3 -1.19711e-16 0)
(3 5.57444e-19 0)
(3 7.33219e-17 0)
(3 8.68459e-16 0)
(3 1.63164e-15 0)
(3 1.26983e-15 0)
(3 1.29037e-15 0)
(3 1.67547e-15 0)
(3 3.67252e-16 0)
(3 -2.15447e-16 0)
(3 -3.68425e-17 0)
(3 7.43323e-16 0)
(3 9.97687e-16 0)
(3 1.20552e-15 0)
(3 2.03079e-15 0)
(3 1.00802e-15 0)
(3 -4.58537e-16 0)
(3 -9.73186e-16 0)
(3 -1.00148e-15 0)
(3 -4.00669e-17 0)
(3 -1.04517e-16 0)
(3 3.41349e-16 0)
(3 1.93775e-16 0)
(3 -2.82813e-16 0)
(3 -1.93117e-16 0)
(3 2.60517e-16 0)
(3 1.47941e-17 0)
(3 1.16246e-16 0)
(3 1.7274e-17 0)
(3 3.04247e-16 0)
(3 1.38966e-15 0)
(3 2.02509e-15 0)
(3 1.25208e-15 0)
(3 -2.64572e-16 0)
(3 2.11289e-18 0)
(3 1.2531e-15 0)
(3 1.44599e-15 0)
(3 1.49207e-15 0)
(3 1.49156e-15 0)
(3 -1.53189e-16 0)
(3 -2.60249e-15 0)
(3 -3.01506e-15 0)
(3 -2.02339e-15 0)
(3 -1.92026e-16 0)
(3 -2.01053e-16 0)
(3 2.46393e-16 0)
(3 2.64144e-16 0)
(3 3.15551e-16 0)
(3 1.1353e-15 0)
(3 9.70696e-16 0)
(3 6.49477e-16 0)
(3 6.75991e-17 0)
(3 -6.1688e-16 0)
(3 -1.47908e-16 0)
(3 -1.43385e-16 0)
(3 1.01546e-16 0)
(3 -3.18009e-16 0)
(3 -6.88992e-16 0)
(3 -1.61724e-16 0)
(3 4.08986e-16 0)
(3 9.35092e-16 0)
(3 5.4226e-16 0)
(3 -3.58986e-16 0)
(3 -8.11821e-16 0)
(3 -6.38755e-16 0)
(3 -1.56611e-17 0)
(3 -1.74751e-17 0)
(3 6.02085e-17 0)
(3 -2.83856e-17 0)
(3 -2.69253e-16 0)
(3 -3.10504e-16 0)
(3 1.80817e-16 0)
(3 6.51348e-16 0)
(3 1.02482e-15 0)
(3 1.00208e-15 0)
(3 3.19708e-16 0)
(3 -8.15656e-16 0)
(3 -7.84934e-16 0)
(3 -7.05052e-16 0)
(3 -9.76762e-16 0)
(3 -7.67658e-16 0)
(3 1.09615e-16 0)
(3 6.25488e-16 0)
(3 6.56864e-16 0)
(3 6.13874e-16 0)
(3 -4.12437e-16 0)
(3 -4.99619e-16 0)
(3 -1.92018e-16 0)
(3 7.09605e-16 0)
(3 9.94097e-16 0)
(3 6.00387e-16 0)
(3 3.98359e-17 0)
(3 1.9873e-18 0)
(3 -1.116e-16 0)
(3 -5.82048e-16 0)
(3 -4.78615e-16 0)
(3 -4.94185e-16 0)
(3 -1.81638e-16 0)
(3 1.52336e-15 0)
(3 1.44695e-15 0)
(3 1.43245e-15 0)
(3 4.50703e-17 0)
(3 5.57394e-16 0)
(3 1.13177e-15 0)
(3 1.25815e-15 0)
(3 1.52503e-15 0)
(3 1.04951e-15 0)
(3 -1.10563e-16 0)
(3 -1.45203e-15 0)
(3 -1.27597e-15 0)
(3 -5.7981e-16 0)
(3 -1.65308e-16 0)
(3 1.88617e-17 0)
(3 9.8396e-18 0)
(3 -2.42562e-16 0)
(3 -5.70331e-17 0)
(3 -1.45096e-16 0)
(3 1.2937e-16 0)
(3 5.73125e-16 0)
(3 -8.38811e-17 0)
(3 -4.2529e-16 0)
(3 1.22969e-16 0)
(3 5.90128e-16 0)
(3 1.49966e-15 0)
(3 1.82985e-15 0)
(3 1.41316e-15 0)
(3 1.42792e-15 0)
(3 2.56563e-15 0)
(3 1.5556e-15 0)
(3 8.37884e-16 0)
(3 2.74073e-17 0)
(3 9.06868e-17 0)
(3 9.21167e-17 0)
(3 -2.49556e-16 0)
(3 4.92721e-16 0)
(3 -6.54059e-17 0)
(3 1.28664e-16 0)
(3 2.76386e-16 0)
(3 6.62685e-16 0)
(3 7.18683e-17 0)
(3 1.01373e-16 0)
(3 1.73811e-16 0)
(3 -4.0203e-18 0)
(3 -2.94468e-16 0)
(3 -5.15549e-16 0)
(3 -8.12669e-17 0)
(3 -1.45623e-16 0)
(3 -2.77335e-16 0)
(3 -3.17298e-16 0)
(3 2.35139e-16 0)
(3 6.26346e-16 0)
(3 9.42906e-16 0)
(3 1.12438e-15 0)
(3 9.44954e-16 0)
(3 1.35253e-16 0)
(3 2.49074e-16 0)
(3 1.25314e-15 0)
(3 1.49129e-15 0)
(3 1.25971e-15 0)
(3 7.50028e-16 0)
(3 4.75052e-16 0)
(3 3.41143e-16 0)
(3 5.77955e-16 0)
(3 -8.48389e-17 0)
(3 2.01991e-16 0)
(3 5.24948e-17 0)
(3 -1.57356e-16 0)
(3 8.59731e-17 0)
(3 -4.73462e-16 0)
(3 -6.76306e-16 0)
(3 -1.43628e-15 0)
(3 -1.68885e-15 0)
(3 -1.09425e-15 0)
(3 -4.40968e-16 0)
(3 6.07765e-16 0)
(3 4.28038e-16 0)
(3 3.05468e-16 0)
(3 4.39868e-16 0)
(3 3.4045e-16 0)
(3 4.05526e-17 0)
(3 1.34e-15 0)
(3 1.9187e-15 0)
(3 9.72207e-16 0)
(3 7.24977e-16 0)
(3 -1.35344e-16 0)
(3 -3.32665e-16 0)
(3 -4.66318e-16 0)
(3 5.79945e-18 0)
(3 2.11583e-17 0)
(3 3.15569e-17 0)
(3 2.73465e-16 0)
(3 1.80398e-16 0)
(3 -1.15661e-16 0)
(3 -9.05352e-16 0)
(3 -1.88743e-15 0)
(3 -1.47231e-15 0)
(3 -3.39025e-16 0)
(3 3.28123e-16 0)
(3 7.54401e-16 0)
(3 4.0106e-16 0)
(3 -3.51698e-16 0)
(3 -3.43731e-16 0)
(3 2.67513e-18 0)
(3 8.76792e-16 0)
(3 1.61708e-15 0)
(3 1.18312e-15 0)
(3 1.26324e-16 0)
(3 -2.0745e-16 0)
(3 -1.06329e-15 0)
(3 -1.79845e-15 0)
(3 -1.76356e-15 0)
(3 -6.2715e-17 0)
(3 -5.56419e-17 0)
(3 4.16159e-16 0)
(3 6.9443e-16 0)
(3 -2.66051e-16 0)
(3 -4.12122e-16 0)
(3 -6.42173e-16 0)
(3 -6.22846e-16 0)
(3 4.32823e-16 0)
(3 4.20562e-16 0)
(3 5.1876e-16 0)
(3 9.64534e-16 0)
(3 7.58677e-16 0)
(3 5.37479e-16 0)
(3 4.36361e-16 0)
(3 8.99564e-16 0)
(3 1.29887e-15 0)
(3 5.77234e-16 0)
(3 -4.27756e-16 0)
(3 -8.40231e-16 0)
(3 -3.92926e-16 0)
(3 -9.93574e-17 0)
(3 -8.50377e-16 0)
(3 -3.48467e-16 0)
(3 -4.26437e-16 0)
(3 -6.4218e-16 0)
(3 -1.37716e-16 0)
(3 1.10364e-15 0)
(3 1.40189e-15 0)
(3 3.44038e-16 0)
(3 3.29502e-16 0)
(3 2.39731e-16 0)
(3 2.2088e-16 0)
(3 7.48667e-16 0)
(3 9.11677e-16 0)
(3 1.14022e-15 0)
(3 1.26993e-15 0)
(3 1.65284e-15 0)
(3 2.04921e-15 0)
(3 2.14876e-15 0)
(3 9.53851e-16 0)
(3 -8.47857e-17 0)
(3 1.92055e-18 0)
(3 -1.32289e-16 0)
(3 3.99343e-16 0)
(3 1.77545e-15 0)
(3 1.71915e-15 0)
(3 1.53762e-15 0)
(3 7.78403e-17 0)
(3 1.07887e-16 0)
(3 9.5363e-17 0)
(3 5.50477e-16 0)
(3 1.54064e-15 0)
(3 1.85505e-15 0)
(3 1.05211e-15 0)
(3 4.23843e-16 0)
(3 3.30844e-16 0)
(3 1.03873e-15 0)
(3 7.28733e-16 0)
(3 -2.96278e-18 0)
(3 -4.66259e-16 0)
(3 -5.14595e-16 0)
(3 -5.28875e-16 0)
(3 -4.62706e-16 0)
(3 -8.61794e-16 0)
(3 -1.16693e-15 0)
(3 -5.95205e-16 0)
(3 -2.69494e-16 0)
(3 5.89156e-16 0)
(3 1.09449e-15 0)
(3 1.4118e-15 0)
(3 1.28718e-15 0)
(3 1.7121e-16 0)
(3 3.2632e-16 0)
(3 7.21312e-16 0)
(3 7.89595e-16 0)
(3 1.21451e-15 0)
(3 2.4509e-15 0)
(3 2.43871e-15 0)
(3 1.698e-15 0)
(3 1.14376e-15 0)
(3 3.64549e-16 0)
(3 -5.06857e-16 0)
(3 -2.20131e-15 0)
(3 -3.1878e-15 0)
(3 -2.48097e-15 0)
(3 -2.31752e-15 0)
(3 -2.3266e-15 0)
(3 -1.75651e-15 0)
(3 -9.79995e-16 0)
(3 -6.87308e-16 0)
(3 -6.91639e-17 0)
(3 4.74067e-16 0)
(3 1.01956e-15 0)
(3 4.83086e-16 0)
(3 -5.8862e-16 0)
(3 -1.35749e-16 0)
(3 -3.45852e-16 0)
(3 -1.21021e-16 0)
(3 6.86159e-16 0)
(3 1.20832e-15 0)
(3 1.19937e-15 0)
(3 1.81336e-15 0)
(3 1.03848e-15 0)
(3 9.07606e-16 0)
(3 4.54186e-16 0)
(3 -6.12173e-17 0)
(3 -1.26879e-15 0)
(3 -1.65321e-15 0)
(3 -9.93633e-16 0)
(3 -8.1856e-16 0)
(3 -8.00157e-16 0)
(3 -6.57409e-16 0)
(3 -2.13525e-16 0)
(3 3.75972e-16 0)
(3 7.62237e-16 0)
(3 7.0524e-16 0)
(3 9.48748e-16 0)
(3 1.63447e-16 0)
(3 -5.58131e-16 0)
(1.65347 1.18159 0)
(2.02281 1.3128 0)
(2.42096 1.07008 0)
(2.61582 0.800355 0)
(2.80042 0.644834 0)
(2.91909 0.484415 0)
(2.98816 0.325562 0)
(3.01816 0.245643 0)
(3.02256 0.158826 0)
(3.03426 0.0581068 0)
(3.04447 0.0120354 0)
(3.03766 0.00751494 0)
(3.02982 0.00715142 0)
(3.01284 0.00398262 0)
(3.00166 0.000570947 0)
(3.00002 7.22481e-06 0)
(3 -7.25863e-07 0)
(3 -4.71699e-07 0)
(3 -1.16943e-07 0)
(3 -2.60605e-09 0)
(3 1.27564e-10 0)
(3 5.03614e-11 0)
(3 2.50548e-12 0)
(3 -5.2391e-14 0)
(3 -2.03263e-14 0)
(3 -8.77362e-16 0)
(3 5.44069e-16 0)
(3 9.41918e-16 0)
(3 1.11297e-15 0)
(3 7.09258e-16 0)
(3 5.49331e-16 0)
(3 6.99795e-16 0)
(3 2.82148e-16 0)
(3 -7.99694e-16 0)
(3 -9.00643e-16 0)
(3 -1.7568e-16 0)
(3 -3.02675e-16 0)
(3 -1.19613e-15 0)
(3 -1.36297e-15 0)
(3 -1.05125e-15 0)
(3 -1.3258e-15 0)
(3 -1.27999e-15 0)
(3 -6.32797e-16 0)
(3 -6.37391e-16 0)
(3 -4.66762e-16 0)
(3 -3.07761e-16 0)
(3 -6.25369e-16 0)
(3 -5.739e-16 0)
(3 -2.91902e-16 0)
(3 -2.39534e-16 0)
(3 -1.03543e-15 0)
(3 -1.29312e-15 0)
(3 -1.51645e-15 0)
(3 -1.45907e-15 0)
(3 -1.16607e-15 0)
(3 -1.4987e-15 0)
(3 -1.4207e-15 0)
(3 -4.51974e-16 0)
(3 -3.18296e-16 0)
(3 -7.12634e-16 0)
(3 -8.78323e-16 0)
(3 -7.1357e-16 0)
(3 -2.76548e-16 0)
(3 2.87228e-16 0)
(3 -2.34631e-16 0)
(3 -1.09712e-15 0)
(3 -1.65046e-15 0)
(3 -1.32109e-15 0)
(3 -4.29107e-16 0)
(3 1.25025e-16 0)
(3 -7.68582e-17 0)
(3 -5.72617e-16 0)
(3 -2.5986e-16 0)
(3 1.21296e-16 0)
(3 5.9181e-16 0)
(3 1.19593e-15 0)
(3 1.34248e-15 0)
(3 1.14433e-15 0)
(3 -5.36907e-16 0)
(3 -4.09921e-16 0)
(3 7.23965e-16 0)
(3 1.04432e-15 0)
(3 1.47846e-15 0)
(3 1.50589e-15 0)
(3 1.23845e-15 0)
(3 6.99934e-16 0)
(3 1.24096e-17 0)
(3 1.08192e-16 0)
(3 -2.98298e-16 0)
(3 -6.8823e-16 0)
(3 -5.62203e-17 0)
(3 1.2833e-16 0)
(3 2.92038e-16 0)
(3 3.45531e-16 0)
(3 4.84414e-17 0)
(3 1.18315e-16 0)
(1.95736 1.28977 0)
(2.45342 1.05888 0)
(2.68741 0.712258 0)
(2.90269 0.334327 0)
(2.98818 0.160691 0)
(3.04401 0.0473418 0)
(3.10792 -0.00215868 0)
(3.13742 -0.000698227 0)
(3.14365 0.00707981 0)
(3.10467 0.0143732 0)
(3.07241 0.0168622 0)
(3.06053 0.0148362 0)
(3.03802 0.0102253 0)
(3.01049 0.003578 0)
(3.0007 0.000258012 0)
(3 -6.71951e-07 0)
(3 -1.54044e-06 0)
(3 -9.50104e-07 0)
(3 -1.8772e-07 0)
(3 -2.7054e-09 0)
(3 2.40587e-10 0)
(3 9.29439e-11 0)
(3 4.38004e-12 0)
(3 -7.84121e-14 0)
(3 -3.26406e-14 0)
(3 -1.44408e-15 0)
(3 8.17038e-16 0)
(3 1.00506e-15 0)
(3 2.56565e-16 0)
(3 -6.4452e-16 0)
(3 -5.68648e-16 0)
(3 -2.93899e-16 0)
(3 -3.20898e-16 0)
(3 -5.52936e-16 0)
(3 -6.27534e-16 0)
(3 -1.24731e-17 0)
(3 -1.32157e-16 0)
(3 -7.30862e-16 0)
(3 -6.85021e-16 0)
(3 -5.8675e-16 0)
(3 -9.73814e-16 0)
(3 -1.32023e-15 0)
(3 -7.34899e-16 0)
(3 -1.08915e-15 0)
(3 -9.09187e-16 0)
(3 -5.36512e-16 0)
(3 -3.05916e-16 0)
(3 4.15422e-16 0)
(3 -8.08326e-17 0)
(3 -9.70615e-16 0)
(3 -8.71856e-16 0)
(3 -9.50702e-16 0)
(3 -1.25518e-15 0)
(3 -1.24144e-15 0)
(3 -1.12954e-15 0)
(3 -1.05168e-15 0)
(3 -7.10083e-16 0)
(3 -3.97445e-16 0)
(3 -6.74921e-16 0)
(3 -1.84692e-15 0)
(3 -1.90111e-15 0)
(3 -8.84576e-16 0)
(3 1.0567e-18 0)
(3 6.95172e-16 0)
(3 -1.46172e-17 0)
(3 -8.71868e-16 0)
(3 -1.81286e-15 0)
(3 -1.943e-15 0)
(3 -1.49795e-15 0)
(3 -8.36112e-16 0)
(3 -9.34075e-16 0)
(3 -1.1577e-15 0)
(3 -7.03916e-16 0)
(3 6.06643e-16 0)
(3 7.45695e-16 0)
(3 3.12395e-16 0)
(3 1.38354e-16 0)
(3 6.91344e-16 0)
(3 -1.96815e-16 0)
(3 6.30298e-17 0)
(3 1.03568e-15 0)
(3 9.85454e-16 0)
(3 1.02578e-15 0)
(3 1.32787e-15 0)
(3 1.14148e-15 0)
(3 5.15916e-16 0)
(3 -3.62706e-16 0)
(3 2.84473e-16 0)
(3 -6.09749e-16 0)
(3 -1.51219e-15 0)
(3 -6.51331e-16 0)
(3 1.46223e-16 0)
(3 7.5047e-16 0)
(3 1.27085e-15 0)
(3 5.83842e-16 0)
(3 2.24382e-17 0)
(2.26915 1.11053 0)
(2.50965 1.07934 0)
(2.6898 0.939474 0)
(2.88372 0.736602 0)
(2.97947 0.586452 0)
(3.04307 0.471905 0)
(3.12025 0.348411 0)
(3.15489 0.24015 0)
(3.14597 0.161873 0)
(3.11829 0.0995315 0)
(3.08489 0.0588659 0)
(3.05421 0.0352917 0)
(3.02516 0.0160979 0)
(3.00512 0.00290759 0)
(3.00021 9.12436e-05 0)
(3 -1.20507e-07 0)
(3 -2.48856e-07 0)
(3 -1.27479e-07 0)
(3 -1.38718e-08 0)
(3 -6.70494e-11 0)
(3 2.37176e-11 0)
(3 8.73319e-12 0)
(3 3.32361e-13 0)
(3 -4.72152e-15 0)
(3 -2.03848e-15 0)
(3 6.28381e-16 0)
(3 2.70756e-16 0)
(3 -4.84076e-16 0)
(3 -1.95911e-15 0)
(3 -2.6812e-15 0)
(3 -2.44869e-15 0)
(3 -9.32942e-16 0)
(3 -8.46673e-16 0)
(3 1.65996e-16 0)
(3 9.85381e-16 0)
(3 5.37808e-16 0)
(3 -2.64348e-16 0)
(3 -5.15034e-16 0)
(3 -1.35893e-16 0)
(3 1.93642e-16 0)
(3 2.05367e-16 0)
(3 -2.35833e-17 0)
(3 -5.9917e-16 0)
(3 -7.63374e-16 0)
(3 -8.91251e-16 0)
(3 -9.25605e-16 0)
(3 -1.04317e-16 0)
(3 8.01907e-16 0)
(3 5.77802e-16 0)
(3 1.63229e-16 0)
(3 5.0289e-16 0)
(3 2.82771e-16 0)
(3 3.11525e-16 0)
(3 4.85733e-16 0)
(3 1.66351e-16 0)
(3 1.62429e-16 0)
(3 3.13663e-16 0)
(3 -2.99656e-16 0)
(3 -8.76881e-16 0)
(3 -8.53914e-16 0)
(3 -1.01494e-15 0)
(3 -2.35515e-16 0)
(3 2.47297e-16 0)
(3 8.66947e-16 0)
(3 5.76209e-16 0)
(3 4.97117e-16 0)
(3 -6.17162e-18 0)
(3 -9.15397e-16 0)
(3 -1.25559e-15 0)
(3 -1.54054e-15 0)
(3 -1.18284e-15 0)
(3 -6.19508e-16 0)
(3 3.4429e-16 0)
(3 1.14982e-15 0)
(3 8.46724e-16 0)
(3 2.94539e-16 0)
(3 4.0792e-16 0)
(3 8.27604e-16 0)
(3 9.82642e-16 0)
(3 9.49036e-16 0)
(3 9.37576e-16 0)
(3 3.69023e-16 0)
(3 -2.15002e-16 0)
(3 -5.27307e-16 0)
(3 2.17297e-16 0)
(3 4.917e-16 0)
(3 4.96553e-17 0)
(3 -4.94142e-16 0)
(3 -9.49928e-16 0)
(3 -1.00158e-15 0)
(3 -6.2547e-16 0)
(3 -3.01008e-16 0)
(3 3.23509e-16 0)
(3 7.90644e-17 0)
(3 -5.74058e-18 0)
(3 -6.19627e-16 0)
(2.5866 0.64615 0)
(2.68366 0.81259 0)
(2.76698 0.764781 0)
(2.89736 0.653387 0)
(2.96509 0.562292 0)
(3.02107 0.478628 0)
(3.07903 0.370808 0)
(3.10752 0.258205 0)
(3.10437 0.164867 0)
(3.08601 0.0999212 0)
(3.06015 0.0587018 0)
(3.03286 0.0291075 0)
(3.01076 0.00838677 0)
(3.00117 0.000752326 0)
(3.00002 9.63906e-06 0)
(3 -9.1767e-09 0)
(3 -6.21455e-09 0)
(3 -2.23622e-09 0)
(3 -1.14855e-10 0)
(3 3.48365e-13 0)
(3 3.86407e-13 0)
(3 8.63296e-14 0)
(3 3.23798e-15 0)
(3 3.44752e-16 0)
(3 1.4539e-15 0)
(3 8.12041e-16 0)
(3 -6.31636e-16 0)
(3 -1.08006e-15 0)
(3 -1.06065e-15 0)
(3 -5.79079e-16 0)
(3 -5.83642e-16 0)
(3 -6.30979e-16 0)
(3 -3.95074e-16 0)
(3 -1.27497e-16 0)
(3 2.02661e-16 0)
(3 8.03798e-17 0)
(3 1.65193e-16 0)
(3 1.95043e-16 0)
(3 9.40713e-17 0)
(3 3.82306e-16 0)
(3 4.5517e-16 0)
(3 8.35426e-16 0)
(3 1.06806e-15 0)
(3 9.27101e-16 0)
(3 4.23903e-16 0)
(3 -6.79704e-16 0)
(3 -1.07054e-15 0)
(3 -7.06159e-16 0)
(3 8.26962e-16 0)
(3 1.1813e-15 0)
(3 4.14748e-16 0)
(3 6.38073e-16 0)
(3 9.35242e-16 0)
(3 1.2358e-15 0)
(3 1.35065e-15 0)
(3 6.55286e-16 0)
(3 -6.79259e-17 0)
(3 -2.02044e-16 0)
(3 -6.70998e-16 0)
(3 1.68091e-16 0)
(3 3.77185e-16 0)
(3 7.24874e-16 0)
(3 1.63372e-16 0)
(3 4.19387e-16 0)
(3 4.78698e-16 0)
(3 -3.97684e-16 0)
(3 -6.78088e-16 0)
(3 -7.07161e-16 0)
(3 -1.09119e-15 0)
(3 -6.41793e-16 0)
(3 -3.7035e-16 0)
(3 -1.6159e-16 0)
(3 2.92516e-16 0)
(3 -1.96201e-16 0)
(3 2.39159e-16 0)
(3 7.05131e-16 0)
(3 1.23183e-15 0)
(3 1.09367e-15 0)
(3 9.58969e-16 0)
(3 9.10792e-16 0)
(3 3.78674e-16 0)
(3 4.8671e-17 0)
(3 -4.81181e-16 0)
(3 -1.15903e-15 0)
(3 -3.59646e-16 0)
(3 3.59411e-16 0)
(3 4.28799e-16 0)
(3 -3.5704e-16 0)
(3 -3.18927e-16 0)
(3 -1.3448e-16 0)
(3 -3.4742e-17 0)
(3 3.36425e-17 0)
(3 -3.27376e-16 0)
(3 -1.47351e-15 0)
(3 -1.44709e-15 0)
(3 -1.24503e-15 0)
(2.94261 0.106947 0)
(2.85994 0.321812 0)
(2.87475 0.420569 0)
(2.93852 0.40738 0)
(2.96442 0.382885 0)
(3.00267 0.337534 0)
(3.03961 0.271318 0)
(3.05683 0.199014 0)
(3.05308 0.132734 0)
(3.03806 0.0773907 0)
(3.02317 0.0365199 0)
(3.00964 0.0113967 0)
(3.00161 0.00146162 0)
(3.00005 3.88692e-05 0)
(3 9.9342e-08 0)
(3 -9.21332e-12 0)
(3 -1.12717e-11 0)
(3 -2.41225e-12 0)
(3 -1.59717e-13 0)
(3 1.05649e-14 0)
(3 -1.78199e-15 0)
(3 -1.13422e-16 0)
(3 -8.65908e-17 0)
(3 9.50302e-16 0)
(3 5.97167e-16 0)
(3 7.04928e-17 0)
(3 -1.74005e-16 0)
(3 -9.75919e-17 0)
(3 2.72289e-17 0)
(3 2.98102e-16 0)
(3 -4.9846e-17 0)
(3 -9.04083e-16 0)
(3 -4.65791e-16 0)
(3 3.49439e-16 0)
(3 8.99162e-17 0)
(3 -4.46396e-16 0)
(3 4.04318e-16 0)
(3 8.73172e-16 0)
(3 6.69251e-16 0)
(3 4.68511e-17 0)
(3 3.10427e-17 0)
(3 3.19815e-16 0)
(3 6.63282e-16 0)
(3 5.92991e-16 0)
(3 1.36137e-16 0)
(3 -8.82712e-16 0)
(3 -1.63307e-15 0)
(3 -1.57837e-15 0)
(3 -1.09039e-15 0)
(3 -8.05539e-16 0)
(3 -1.09651e-15 0)
(3 -1.0126e-15 0)
(3 -4.36565e-16 0)
(3 -5.93308e-16 0)
(3 -7.16321e-16 0)
(3 -9.17338e-16 0)
(3 -1.23641e-15 0)
(3 -9.46459e-16 0)
(3 -1.04935e-15 0)
(3 -6.31611e-16 0)
(3 3.45143e-16 0)
(3 2.70024e-16 0)
(3 -1.23429e-15 0)
(3 -1.54153e-15 0)
(3 -5.28029e-16 0)
(3 -4.76036e-16 0)
(3 -8.40698e-16 0)
(3 -1.44378e-15 0)
(3 -1.30075e-15 0)
(3 -9.1083e-16 0)
(3 -1.02782e-15 0)
(3 -1.12459e-15 0)
(3 -1.17256e-15 0)
(3 -1.35111e-15 0)
(3 -1.24883e-15 0)
(3 -5.14785e-16 0)
(3 -4.86324e-16 0)
(3 -6.69139e-16 0)
(3 -1.12823e-16 0)
(3 3.40307e-16 0)
(3 1.99684e-16 0)
(3 -2.91973e-16 0)
(3 -1.18442e-15 0)
(3 -1.49311e-15 0)
(3 -8.63271e-16 0)
(3 -1.86261e-16 0)
(3 1.02069e-15 0)
(3 8.20534e-16 0)
(3 9.88697e-16 0)
(3 1.15662e-15 0)
(3 3.90016e-16 0)
(3 -3.58124e-16 0)
(3 -1.12718e-15 0)
(3 -1.22087e-15 0)
(3 -1.12122e-15 0)
(3 -5.02458e-16 0)
(2.99936 0.00202458 0)
(2.99182 0.0210522 0)
(2.97985 0.0615363 0)
(2.9734 0.105491 0)
(2.97942 0.130562 0)
(2.98628 0.126375 0)
(2.99748 0.108403 0)
(3.00599 0.0790076 0)
(3.00861 0.0480054 0)
(3.00729 0.0226456 0)
(3.00387 0.00710256 0)
(3.00085 0.00103441 0)
(3.00004 3.75016e-05 0)
(3 1.58084e-07 0)
(3 3.53849e-11 0)
(3 -8.69708e-15 0)
(3 -8.11884e-15 0)
(3 -3.93095e-15 0)
(3 -3.86561e-15 0)
(3 -5.82735e-15 0)
(3 -2.15634e-15 0)
(3 3.30263e-16 0)
(3 8.3009e-16 0)
(3 9.03224e-16 0)
(3 2.87309e-16 0)
(3 -7.15302e-17 0)
(3 2.30705e-16 0)
(3 1.45467e-17 0)
(3 1.52792e-16 0)
(3 -5.86612e-16 0)
(3 -1.25719e-15 0)
(3 -1.08263e-15 0)
(3 -1.36123e-16 0)
(3 6.12344e-16 0)
(3 5.08296e-16 0)
(3 1.04875e-16 0)
(3 1.82941e-16 0)
(3 2.10844e-16 0)
(3 3.03234e-16 0)
(3 5.8587e-17 0)
(3 -3.16374e-16 0)
(3 -4.37791e-16 0)
(3 -1.22378e-15 0)
(3 -8.15389e-16 0)
(3 -3.16643e-16 0)
(3 -3.66904e-16 0)
(3 -7.06533e-16 0)
(3 -2.44457e-15 0)
(3 -3.20325e-15 0)
(3 -3.00966e-15 0)
(3 -2.24326e-15 0)
(3 -1.86391e-15 0)
(3 -2.45384e-15 0)
(3 -2.91405e-15 0)
(3 -3.02828e-15 0)
(3 -2.01004e-15 0)
(3 -1.77401e-15 0)
(3 -1.29446e-15 0)
(3 -3.57475e-16 0)
(3 -4.17415e-16 0)
(3 -1.42721e-16 0)
(3 -4.55372e-16 0)
(3 -9.62258e-16 0)
(3 -1.06354e-15 0)
(3 -3.80699e-16 0)
(3 -2.04279e-16 0)
(3 -3.33772e-16 0)
(3 -5.35984e-16 0)
(3 -4.34663e-17 0)
(3 -2.45829e-17 0)
(3 -4.11036e-16 0)
(3 -1.02427e-15 0)
(3 -1.57966e-15 0)
(3 -1.17176e-15 0)
(3 -1.39348e-15 0)
(3 -1.06427e-15 0)
(3 -1.01186e-15 0)
(3 -6.78244e-16 0)
(3 -5.20504e-16 0)
(3 -2.49679e-16 0)
(3 -1.51907e-16 0)
(3 -1.84174e-16 0)
(3 -4.0146e-16 0)
(3 -4.09041e-16 0)
(3 -2.92078e-16 0)
(3 -1.53759e-17 0)
(3 3.2301e-17 0)
(3 1.55298e-16 0)
(3 5.49048e-17 0)
(3 -2.36779e-17 0)
(3 -4.03426e-17 0)
(3 -2.65836e-16 0)
(3 -8.35579e-16 0)
(3 -7.38907e-16 0)
(3 -2.40041e-16 0)
(3 1.62954e-16 0)
(3 3.0778e-06 0)
(2.99997 0.000113301 0)
(2.99974 0.000875755 0)
(2.9991 0.00320864 0)
(2.99868 0.00676915 0)
(2.99886 0.00850745 0)
(2.99917 0.00806022 0)
(2.99976 0.00630999 0)
(3.00026 0.00372489 0)
(3.00038 0.00144553 0)
(3.00015 0.000269621 0)
(3.00001 1.36955e-05 0)
(3 8.92485e-08 0)
(3 3.27966e-11 0)
(3 -6.70708e-16 0)
(3 -7.84581e-16 0)
(3 -5.37274e-16 0)
(3 -8.12984e-16 0)
(3 -1.01323e-15 0)
(3 -1.06387e-15 0)
(3 -7.00398e-16 0)
(3 4.71238e-16 0)
(3 1.4543e-15 0)
(3 1.5298e-15 0)
(3 1.81354e-15 0)
(3 3.90707e-16 0)
(3 -6.60027e-16 0)
(3 -4.3318e-16 0)