/*--------------------------------*- C++ -*----------------------------------*\
  =========                 |
  \\      /  F ield         | OpenFOAM: The Open Source CFD Toolbox
   \\    /   O peration     | Website:  https://openfoam.org
    \\  /    A nd           | Version:  7
     \\/     M anipulation  |
\*---------------------------------------------------------------------------*/
FoamFile
{
    version     2.0;
    format      ascii;
    class       volScalarField;
    location    "0.8";
    object      p;
}
// * * * * * * * * * * * * * * * * * * * * * * * * * * * * * * * * * * * * * //

dimensions      [1 -1 -2 0 0 0 0];

internalField   nonuniform List<scalar> 
64512
(
1
1
1
1
1
1
1
1
1
1
1
1
1
1
1
1
1
1
1
1
1
1
1
1
1
1
1
1
1
1
1
1
1
1
1
1
1
1
1
1
1
1
1
1
1
1
1
1
1
1
1
1
1
1
1
1
4.70466
10.6412
10.9315
10.9999
11.1424
11.2955
11.41
11.4484
11.4304
11.3787
11.3353
11.3266
11.3639
11.4474
11.5497
11.6375
11.7145
11.794
11.8786
11.9519
11.9985
12.0089
11.9839
11.9627
11.9642
12.0086
12.0779
12.1524
12.2256
12.2846
12.3214
12.3376
12.3304
12.3129
12.2988
12.2884
12.2715
12.2425
12.2095
12.1712
1
1
1
1
1
1
1
1
1
1
1
1
1
1
1
1
1
1
1
1
1
1
1
1
1
1
1
1
1
1
1
1
1
1
1
1
1
1
1
1
1
1
1
1
1
1
1
1
1
1
1
1
1
1
1
1
4.65745
10.5862
10.9445
11.0067
11.1475
11.2955
11.4084
11.4434
11.425
11.3754
11.3345
11.3274
11.3642
11.4471
11.5473
11.6343
11.712
11.793
11.8791
11.9534
11.9996
12.0084
11.982
11.9597
11.9608
12.0054
12.0748
12.1495
12.2226
12.2814
12.3181
12.3341
12.3267
12.3094
12.2957
12.2855
12.2687
12.2394
12.2057
12.1679
1
1
1
1
1
1
1
1
1
1
1
1
1
1
1
1
1
1
1
1
1
1
1
1
1
1
1
1
1
1
1
1
1
1
1
1
1
1
1
1
1
1
1
1
1
1
1
1
1
1
1
1
1
1
1
1
4.57434
10.5422
10.9451
11.0096
11.1476
11.2913
11.4028
11.4346
11.4164
11.3704
11.333
11.328
11.3636
11.4452
11.5426
11.6291
11.708
11.7913
11.8798
11.9554
12.0012
12.0076
11.979
11.9545
11.9548
11.9993
12.0692
12.1446
12.2182
12.2773
12.3135
12.3285
12.3202
12.3029
12.2899
12.2808
12.2645
12.2348
12.1991
12.1608
1
1
1
1
1
1
1
1
1
1
1
1
1
1
1
1
1
1
1
1
1
1
1
1
1
1
1
1
1
1
1
1
1
1
1
1
1
1
1
1
1
1
1
1
1
1
1
1
1
1
1
1
1
1
1
1
4.43526
10.4893
10.9421
11.0111
11.1471
11.2865
11.3956
11.4224
11.4041
11.3638
11.3311
11.328
11.3611
11.44
11.5344
11.6213
11.7027
11.7896
11.881
11.958
12.0029
12.006
11.9742
11.9469
11.9458
11.9902
12.0605
12.137
12.2112
12.2704
12.3062
12.3199
12.3105
12.2931
12.2811
12.2736
12.2582
12.2283
12.1904
12.1517
1
1
1
1
1
1
1
1
1
1
1
1
1
1
1
1
1
1
1
1
1
1
1
1
1
1
1
1
1
1
1
1
1
1
1
1
1
1
1
1
1
1
1
1
1
1
1
1
1
1
1
1
1
1
1
1
4.25175
10.4367
10.9352
11.009
11.1414
11.2758
11.3818
11.404
11.3879
11.3554
11.3287
11.3272
11.3565
11.4317
11.5234
11.6116
11.6967
11.788
11.8824
11.9604
12.0039
12.0029
11.9676
11.9369
11.9342
11.9783
12.0493
12.1269
12.2017
12.261
12.296
12.3083
12.2978
12.2803
12.27
12.2645
12.2502
12.2205
12.1805
12.1415
1
1
1
1
1
1
1
1
1
1
1
1
1
1
1
1
1
1
1
1
1
1
1
1
1
1
1
1
1
1
1
1
1
1
1
1
1
1
1
1
1
1
1
1
1
1
1
1
1
1
1
1
1
1
1
1
4.03531
10.3715
10.9207
11.0003
11.1313
11.2609
11.3615
11.3811
11.3716
11.3466
11.3247
11.3236
11.3472
11.4188
11.5092
11.6007
11.6907
11.7868
11.8839
11.962
12.0033
11.9974
11.9585
11.9243
11.9202
11.9644
12.0365
12.1149
12.1897
12.2484
12.2821
12.2929
12.2816
12.2648
12.2562
12.2532
12.2403
12.2117
12.1697
12.1314
1
1
1
1
1
1
1
1
1
1
1
1
1
1
1
1
1
1
1
1
1
1
1
1
1
1
1
1
1
1
1
1
1
1
1
1
1
1
1
1
1
1
1
1
1
1
1
1
1
1
1
1
1
1
1
1
3.79066
10.2924
10.9012
10.9844
11.1126
11.237
11.3321
11.3563
11.3556
11.3366
11.3178
11.3163
11.3334
11.4024
11.4936
11.5899
11.6857
11.7865
11.8851
11.9621
12.0002
11.989
11.946
11.9088
11.9038
11.9489
12.023
12.1023
12.176
12.2325
12.2637
12.273
12.2614
12.2462
12.2402
12.2397
12.2283
12.2016
12.1583
12.1221
1
1
1
1
1
1
1
1
1
1
1
1
1
1
1
1
1
1
1
1
1
1
1
1
1
1
1
1
1
1
1
1
1
1
1
1
1
1
1
1
1
1
1
1
1
1
1
1
1
1
1
1
1
1
1
1
3.53584
10.1938
10.8651
10.9479
11.0832
11.2079
11.2993
11.3332
11.3397
11.3253
11.3083
11.3053
11.3165
11.3835
11.4773
11.5795
11.6817
11.7864
11.8854
11.9599
11.9939
11.9773
11.9302
11.8903
11.885
11.9319
12.009
12.0896
12.1613
12.2138
12.2408
12.2483
12.2375
12.2246
12.2217
12.2239
12.2144
12.1898
12.1459
12.1136
1
1
1
1
1
1
1
1
1
1
1
1
1
1
1
1
1
1
1
1
1
1
1
1
1
1
1
1
1
1
1
1
1
1
1
1
1
1
1
1
1
1
1
1
1
1
1
1
1
1
1
1
1
1
1
1
3.27589
10.0392
10.8231
10.9058
11.0528
11.1794
11.2665
11.3098
11.3232
11.3138
11.2971
11.2912
11.2987
11.3629
11.461
11.5701
11.6784
11.7859
11.8839
11.9546
11.9841
11.9626
11.9115
11.8691
11.8638
11.9129
11.9939
12.0765
12.1455
12.1924
12.2137
12.219
12.2101
12.2005
12.2002
12.205
12.1976
12.1757
12.1325
12.1053
1
1
1
1
1
1
1
1
1
1
1
1
1
1
1
1
1
1
1
1
1
1
1
1
1
1
1
1
1
1
1
1
1
1
1
1
1
1
1
1
1
1
1
1
1
1
1
1
1
1
1
1
1
1
1
1
2.9939
9.81806
10.7873
10.8725
11.0231
11.1496
11.2352
11.2871
11.306
11.3014
11.2848
11.275
11.2811
11.3422
11.4456
11.562
11.6753
11.7833
11.8787
11.9451
11.9703
11.9449
11.8911
11.8466
11.841
11.8922
11.9769
12.0619
12.128
12.1682
12.1834
12.1865
12.1799
12.174
12.1763
12.1828
12.1774
12.1588
12.1175
12.096
1
1
1
1
1
1
1
1
1
1
1
1
1
1
1
1
1
1
1
1
1
1
1
1
1
1
1
1
1
1
1
1
1
1
1
1
1
1
1
1
1
1
1
1
1
1
1
1
1
1
1
1
1
1
1
1
2.66302
9.50664
10.7717
10.8484
10.9924
11.1148
11.2103
11.2676
11.2906
11.2868
11.2711
11.2587
11.2639
11.323
11.4322
11.5554
11.6712
11.7771
11.8679
11.9298
11.9516
11.9241
11.8695
11.8238
11.818
11.8704
11.9576
12.044
12.1072
12.1404
12.1499
12.1514
12.1481
12.1456
12.1496
12.1574
12.1543
12.139
12.1008
12.0852
1
1
1
1
1
1
1
1
1
1
1
1
1
1
1
1
1
1
1
1
1
1
1
1
1
1
1
1
1
1
1
1
1
1
1
1
1
1
1
1
1
1
1
1
1
1
1
1
1
1
1
1
1
1
1
1
2.27418
9.09734
10.7863
10.8494
10.9727
11.0854
11.1895
11.2513
11.2775
11.2699
11.2538
11.2429
11.2467
11.307
11.4219
11.5497
11.665
11.7662
11.8511
11.9081
11.9272
11.8998
11.8465
11.8014
11.796
11.8491
11.9367
12.0218
12.0812
12.1079
12.1126
12.1143
12.1152
12.1157
12.1204
12.1283
12.1274
12.1156
12.0816
12.0719
1
1
1
1
1
1
1
1
1
1
1
1
1
1
1
1
1
1
1
1
1
1
1
1
1
1
1
1
1
1
1
1
1
1
1
1
1
1
1
1
1
1
1
1
1
1
1
1
1
1
1
1
1
1
1
1
1.84803
8.54925
10.8216
10.8729
10.9651
11.0725
11.1742
11.2404
11.2638
11.2475
11.2301
11.2293
11.2324
11.2957
11.4144
11.5431
11.6549
11.7498
11.8283
11.8806
11.8975
11.8715
11.8212
11.7787
11.775
11.8282
11.9143
11.9956
12.0495
12.0696
12.0711
12.0747
12.0808
12.0845
12.0887
12.0956
12.0961
12.0883
12.0599
12.0565
1
1
1
1
1
1
1
1
1
1
1
1
1
1
1
1
1
1
1
1
1
1
1
1
1
1
1
1
1
1
1
1
1
1
1
1
1
1
1
1
1
1
1
1
1
1
1
1
1
1
1
1
1
1
1
1
1.42936
7.83915
10.8278
10.8883
10.9587
11.0771
11.1681
11.2219
11.2357
11.2211
11.2083
11.2163
11.2235
11.287
11.4066
11.5321
11.6388
11.7278
11.8005
11.8483
11.8633
11.8399
11.7932
11.7549
11.7538
11.8064
11.89
11.9663
12.0135
12.0266
12.0255
12.032
12.044
12.0508
12.054
12.0587
12.0601
12.0568
12.0355
12.0392
1
1
1
1
1
1
1
1
1
1
1
1
1
1
1
1
1
1
1
1
1
1
1
1
1
1
1
1
1
1
1
1
1
1
1
1
1
1
1
1
1
1
1
1
1
1
1
1
1
1
1
1
1
1
1
1
1.05718
6.95841
10.8328
10.8722
10.9371
11.0527
11.1351
11.1877
11.2027
11.1971
11.1988
11.2042
11.2203
11.2795
11.395
11.5145
11.6155
11.6993
11.767
11.8119
11.8265
11.8067
11.7644
11.7301
11.7309
11.7818
11.8621
11.9331
11.9735
11.9796
11.9763
11.9856
12.0034
12.0133
12.0153
12.0174
12.0193
12.0211
12.0086
12.0202
1
1
1
1
1
1
1
1
1
1
1
1
1
1
1
1
1
1
1
1
1
1
1
1
1
1
1
1
1
1
1
1
1
1
1
1
1
1
1
1
1
1
1
1
1
1
1
1
1
1
1
1
1
1
1
1
1.00054
6.04796
10.7454
10.817
10.8888
11.0058
11.0911
11.1477
11.174
11.183
11.1988
11.1956
11.2205
11.2717
11.3765
11.4885
11.5844
11.6643
11.7286
11.7721
11.7884
11.7741
11.7371
11.7054
11.7054
11.7521
11.8274
11.8935
11.9288
11.9301
11.9255
11.9371
11.9592
11.9713
11.9715
11.9705
11.9731
11.9808
11.9785
11.9986
1
1
1
1
1
1
1
1
1
1
1
1
1
1
1
1
1
1
1
1
1
1
1
1
1
1
1
1
1
1
1
1
1
1
1
1
1
1
1
1
1
1
1
1
1
1
1
1
1
1
1
1
1
1
1
1
1
5.1948
10.6174
10.7681
10.8311
10.9568
11.0493
11.1115
11.1556
11.1817
11.2002
11.194
11.2177
11.2601
11.3496
11.4537
11.5447
11.6221
11.685
11.7293
11.7496
11.7426
11.7121
11.6817
11.6787
11.7176
11.7852
11.846
11.8782
11.8779
11.8736
11.8869
11.9115
11.9237
11.921
11.9167
11.9208
11.9359
11.9455
11.9747
1
1
1
1
1
1
1
1
1
1
1
1
1
1
1
1
1
1
1
1
1
1
1
1
1
1
1
1
1
1
1
1
1
1
1
1
1
1
1
1
1
1
1
1
1
1
1
1
1
1
1
1
1
1
1
1
1
4.39492
10.417
10.7336
10.7879
10.918
11.019
11.0902
11.1456
11.1866
11.1955
11.1951
11.2072
11.2415
11.3146
11.4106
11.4975
11.5734
11.6369
11.6842
11.7101
11.7112
11.6885
11.6591
11.652
11.6806
11.7363
11.7891
11.8187
11.8201
11.8189
11.8352
11.8614
11.8721
11.8649
11.8566
11.8623
11.8856
11.9082
11.9465
1
1
1
1
1
1
1
1
1
1
1
1
1
1
1
1
1
1
1
1
1
1
1
1
1
1
1
1
1
1
1
1
1
1
1
1
1
1
1
1
1
1
1
1
1
1
1
1
1
1
1
1
1
1
1
1
1
3.64346
10.1181
10.7116
10.7525
10.8868
10.9923
11.0751
11.139
11.1824
11.1843
11.1861
11.1881
11.2148
11.2741
11.36
11.4458
11.5199
11.5849
11.637
11.6697
11.6788
11.6636
11.6351
11.6236
11.6416
11.6825
11.7248
11.7509
11.7558
11.7595
11.7799
11.8077
11.8164
11.804
11.7908
11.7975
11.829
11.8649
11.9122
1
1
1
1
1
1
1
1
1
1
1
1
1
1
1
1
1
1
1
1
1
1
1
1
1
1
1
1
1
1
1
1
1
1
1
1
1
1
1
1
1
1
1
1
1
1
1
1
1
1
1
1
1
1
1
1
1
2.92401
9.70495
10.6968
10.7201
10.8556
10.9696
11.0601
11.1293
11.1702
11.1699
11.1643
11.1603
11.1788
11.2291
11.3081
11.3933
11.4648
11.5308
11.5875
11.6273
11.643
11.6342
11.6076
11.5906
11.599
11.626
11.6561
11.6777
11.6854
11.6941
11.7183
11.7482
11.7561
11.7394
11.7216
11.728
11.7655
11.8131
11.8676
1
1
1
1
1
1
1
1
1
1
1
1
1
1
1
1
1
1
1
1
1
1
1
1
1
1
1
1
1
1
1
1
1
1
1
1
1
1
1
1
1
1
1
1
1
1
1
1
1
1
1
1
1
1
1
1
1
2.2392
9.13207
10.7112
10.7012
10.8228
10.9306
11.0336
11.1079
11.145
11.1459
11.1371
11.131
11.1381
11.1828
11.2589
11.3421
11.4122
11.477
11.5357
11.5808
11.6021
11.5998
11.5757
11.5525
11.5507
11.5659
11.5853
11.6019
11.6108
11.6224
11.647
11.6778
11.6868
11.6696
11.6497
11.6558
11.6965
11.7519
11.8107
1
1
1
1
1
1
1
1
1
1
1
1
1
1
1
1
1
1
1
1
1
1
1
1
1
1
1
1
1
1
1
1
1
1
1
1
1
1
1
1
1
1
1
1
1
1
1
1
1
1
1
1
1
1
1
1
1
1.66499
8.37224
10.7081
10.6908
10.7871
10.8926
10.9998
11.0763
11.1139
11.1224
11.1111
11.0999
11.0991
11.1335
11.2092
11.2936
11.3652
11.4266
11.4822
11.5283
11.5544
11.559
11.5378
11.5093
11.4959
11.4997
11.5116
11.524
11.5344
11.5463
11.5674
11.5961
11.607
11.5933
11.5756
11.582
11.6219
11.6787
11.7363
1
1
1
1
1
1
1
1
1
1
1
1
1
1
1
1
1
1
1
1
1
1
1
1
1
1
1
1
1
1
1
1
1
1
1
1
1
1
1
1
1
1
1
1
1
1
1
1
1
1
1
1
1
1
1
1
1
1.22568
7.44848
10.6194
10.6591
10.76
10.8588
10.96
11.0362
11.0804
11.092
11.0851
11.0668
11.0577
11.0853
11.1578
11.2462
11.3214
11.3788
11.4279
11.471
11.5009
11.5125
11.4948
11.4613
11.4349
11.4266
11.4317
11.4429
11.4564
11.4667
11.4803
11.5015
11.5122
11.5053
11.495
11.5048
11.5419
11.5947
11.6457
1
1
1
1
1
1
1
1
1
1
1
1
1
1
1
1
1
1
1
1
1
1
1
1
1
1
1
1
1
1
1
1
1
1
1
1
1
1
1
1
1
1
1
1
1
1
1
1
1
1
1
1
1
1
1
1
1
1.00921
6.39788
10.4584
10.6092
10.6951
10.8103
10.9164
10.9959
11.0419
11.0552
11.0532
11.0331
11.0203
11.0378
11.0988
11.189
11.2715
11.3312
11.3762
11.4134
11.4436
11.459
11.4447
11.4077
11.3688
11.3475
11.3451
11.3566
11.3739
11.3827
11.3873
11.3976
11.406
11.407
11.407
11.4211
11.4527
11.4957
11.5342
1
1
1
1
1
1
1
1
1
1
1
1
1
1
1
1
1
1
1
1
1
1
1
1
1
1
1
1
1
1
1
1
1
1
1
1
1
1
1
1
1
1
1
1
1
1
1
1
1
1
1
1
1
1
1
1
1
1.00005
5.20601
10.21
10.5523
10.6416
10.769
10.8785
10.9542
10.998
11.0157
11.0222
11.0007
10.9826
10.9891
11.0369
11.1275
11.2179
11.2833
11.3273
11.3572
11.3837
11.3989
11.3867
11.3478
11.2984
11.2641
11.2525
11.264
11.2843
11.2919
11.287
11.284
11.2871
11.2947
11.305
11.3238
11.35
11.3818
11.4062
1
1
1
1
1
1
1
1
1
1
1
1
1
1
1
1
1
1
1
1
1
1
1
1
1
1
1
1
1
1
1
1
1
1
1
1
1
1
1
1
1
1
1
1
1
1
1
1
1
1
1
1
1
1
1
1
1
1
3.9344
9.87531
10.5254
10.6025
10.7226
10.8309
10.9188
10.9725
10.9946
10.9938
10.9635
10.938
10.9356
10.9736
11.0604
11.1565
11.2291
11.2757
11.3025
11.3245
11.3358
11.3212
11.2799
11.223
11.1771
11.1576
11.1671
11.1865
11.1908
11.1764
11.1606
11.1598
11.1744
11.1926
11.2111
11.2267
11.2432
11.2506
1
1
1
1
1
1
1
1
1
1
1
1
1
1
1
1
1
1
1
1
1
1
1
1
1
1
1
1
1
1
1
1
1
1
1
1
1
1
1
1
1
1
1
1
1
1
1
1
1
1
1
1
1
1
1
1
1
1
2.69363
9.39476
10.573
10.5799
10.695
10.8043
10.8876
10.9375
10.9534
10.9516
10.9274
10.9013
10.8906
10.9191
10.9953
11.089
11.1626
11.2116
11.2425
11.2637
11.269
11.2514
11.2058
11.1431
11.0879
11.0625
11.067
11.0804
11.0778
11.0527
11.0253
11.0206
11.0382
11.0577
11.0709
11.0753
11.0783
11.073
1
1
1
1
1
1
1
1
1
1
1
1
1
1
1
1
1
1
1
1
1
1
1
1
1
1
1
1
1
1
1
1
1
1
1
1
1
1
1
1
1
1
1
1
1
1
1
1
1
1
1
1
1
1
1
1
1
1
1.70447
8.49494
10.6837
10.6014
10.6484
10.7241
10.8132
10.8764
10.9034
10.9051
10.888
10.8656
10.8532
10.8749
10.9407
11.0244
11.0895
11.1366
11.1703
11.1911
11.1952
11.1758
11.1272
11.0599
10.9972
10.9663
10.9634
10.9681
10.954
10.9159
10.8777
10.8696
10.889
10.9077
10.9103
10.8934
10.8709
10.843
1
1
1
1
1
1
1
1
1
1
1
1
1
1
1
1
1
1
1
1
1
1
1
1
1
1
1
1
1
1
1
1
1
1
1
1
1
1
1
1
1
1
1
1
1
1
1
1
1
1
1
1
1
1
1
1
1
1
1.12238
7.31332
10.5216
10.5213
10.5796
10.6723
10.7685
10.8318
10.8583
10.8523
10.845
10.8273
10.8153
10.8332
10.89
10.965
11.021
11.0598
11.0876
11.1044
11.1096
11.0925
11.0448
10.9748
10.9057
10.8667
10.8547
10.8483
10.8201
10.7689
10.7206
10.7046
10.7155
10.7189
10.6967
10.6538
10.6065
10.571
1
1
1
1
1
1
1
1
1
1
1
1
1
1
1
1
1
1
1
1
1
1
1
1
1
1
1
1
1
1
1
1
1
1
1
1
1
1
1
1
1
1
1
1
1
1
1
1
1
1
1
1
1
1
1
1
1
1
1.00195
5.83201
10.2466
10.469
10.5329
10.633
10.7291
10.7901
10.8211
10.8115
10.7959
10.7815
10.7616
10.7851
10.8398
10.9086
10.9565
10.9837
10.9999
11.0103
11.0161
11.0028
10.9582
10.8879
10.8128
10.7624
10.7378
10.7172
10.6762
10.6144
10.5552
10.5236
10.5153
10.4996
10.4528
10.3749
10.2756
10.1707
1
1
1
1
1
1
1
1
1
1
1
1
1
1
1
1
1
1
1
1
1
1
1
1
1
1
1
1
1
1
1
1
1
1
1
1
1
1
1
1
1
1
1
1
1
1
1
1
1
1
1
1
1
1
1
1
1
1
1
4.27274
9.83253
10.4241
10.4785
10.5804
10.6814
10.7504
10.7892
10.785
10.7591
10.7409
10.7156
10.7394
10.7855
10.8404
10.8795
10.9011
10.9106
10.9157
10.9192
10.9076
10.8676
10.8007
10.7203
10.6544
10.6104
10.5722
10.5216
10.4543
10.3841
10.3292
10.288
10.2323
10.1225
9.95684
9.7738
9.62646
1
1
1
1
1
1
1
1
1
1
1
1
1
1
1
1
1
1
1
1
1
1
1
1
1
1
1
1
1
1
1
1
1
1
1
1
1
1
1
1
1
1
1
1
1
1
1
1
1
1
1
1
1
1
1
1
1
1
1
2.74068
9.2729
10.4689
10.4323
10.5133
10.6202
10.7112
10.7686
10.7788
10.7607
10.7251
10.6798
10.6759
10.7008
10.7472
10.7883
10.8119
10.8205
10.8207
10.8197
10.8084
10.7741
10.7124
10.6276
10.5434
10.4732
10.4144
10.356
10.2878
10.2063
10.1199
10.0287
9.91353
9.74328
9.49678
9.19403
9.00808
1
1
1
1
1
1
1
1
1
1
1
1
1
1
1
1
1
1
1
1
1
1
1
1
1
1
1
1
1
1
1
1
1
1
1
1
1
1
1
1
1
1
1
1
1
1
1
1
1
1
1
1
1
1
1
1
1
1
1
1.52851
8.19626
10.5547
10.4584
10.4917
10.5717
10.6514
10.7044
10.7176
10.7145
10.6894
10.6421
10.6255
10.6334
10.6641
10.6998
10.7219
10.73
10.7254
10.7177
10.7029
10.6728
10.6173
10.5314
10.43
10.3315
10.2489
10.1828
10.1127
10.0192
9.89593
9.74675
9.56388
9.29491
8.84821
7.93552
5.92479
1
1
1
1
1
1
1
1
1
1
1
1
1
1
1
1
1
1
1
1
1
1
1
1
1
1
1
1
1
1
1
1
1
1
1
1
1
1
1
1
1
1
1
1
1
1
1
1
1
1
1
1
1
1
1
1
1
1
1
1.02711
6.68718
10.2449
10.3414
10.4423
10.5359
10.6029
10.6521
10.6729
10.6786
10.6541
10.6027
10.5707
10.5634
10.5828
10.6128
10.6341
10.6415
10.6302
10.6096
10.5873
10.5617
10.5133
10.4287
10.3147
10.1919
10.0865
10.0078
9.92902
9.81945
9.6604
9.4472
9.17543
8.76099
8.14291
7.03408
4.88954
1
1
1
1
1
1
1
1
1
1
1
1
1
1
1
1
1
1
1
1
1
1
1
1
1
1
1
1
1
1
1
1
1
1
1
1
1
1
1
1
1
1
1
1
1
1
1
1
1
1
1
1
1
1
1
1
1
1
1
1.00014
4.90247
9.87895
10.2853
10.3698
10.4662
10.5365
10.5885
10.615
10.6264
10.606
10.5533
10.5087
10.4891
10.5005
10.5264
10.5485
10.5536
10.5342
10.5013
10.4703
10.4433
10.3975
10.3166
10.1986
10.0609
9.93574
9.83592
9.73947
9.60752
9.41733
9.14295
8.79874
8.28647
7.60948
6.3369
4.50894
1
1
1
1
1
1
1
1
1
1
1
1
1
1
1
1
1
1
1
1
1
1
1
1
1
1
1
1
1
1
1
1
1
1
1
1
1
1
1
1
1
1
1
1
1
1
1
1
1
1
1
1
1
1
1
1
1
1
1
1
3.14765
9.286
10.2962
10.3122
10.3858
10.4604
10.5171
10.5504
10.5646
10.5478
10.4946
10.4337
10.4018
10.4069
10.4316
10.4547
10.4611
10.441
10.4001
10.3576
10.3218
10.2736
10.196
10.0806
9.93923
9.79957
9.67342
9.55004
9.39003
9.16988
8.854
8.44992
7.91194
7.12068
5.93116
4.46161
1
1
1
1
1
1
1
1
1
1
1
1
1
1
1
1
1
1
1
1
1
1
1
1
1
1
1
1
1
1
1
1
1
1
1
1
1
1
1
1
1
1
1
1
1
1
1
1
1
1
1
1
1
1
1
1
1
1
1
1
1.67372
8.31114
10.382
10.2932
10.3183
10.383
10.4495
10.4898
10.5055
10.4912
10.4384
10.3617
10.3162
10.3093
10.3288
10.3518
10.3623
10.3452
10.302
10.2526
10.2059
10.1492
10.07
9.9598
9.82275
9.67384
9.52133
9.36463
9.17394
8.92256
8.58245
8.13478
7.58284
6.77344
5.73766
4.54893
1
1
1
1
1
1
1
1
1
1
1
1
1
1
1
1
1
1
1
1
1
1
1
1
1
1
1
1
1
1
1
1
1
1
1
1
1
1
1
1
1
1
1
1
1
1
1
1
1
1
1
1
1
1
1
1
1
1
1
1
1.04239
6.76956
10.0577
10.1259
10.2109
10.3025
10.3782
10.4256
10.4471
10.4417
10.3964
10.3159
10.2544
10.2255
10.2283
10.2425
10.2524
10.2408
10.2032
10.153
10.0976
10.0302
9.94554
9.83925
9.70713
9.55174
9.3766
9.18563
8.96429
8.68658
8.33231
7.87545
7.31623
6.55016
5.66545
4.66393
1
1
1
1
1
1
1
1
1
1
1
1
1
1
1
1
1
1
1
1
1
1
1
1
1
1
1
1
1
1
1
1
1
1
1
1
1
1
1
1
1
1
1
1
1
1
1
1
1
1
1
1
1
1
1
1
1
1
1
1
1.00022
4.77654
9.68596
10.0973
10.1547
10.2349
10.305
10.3486
10.3719
10.3775
10.3452
10.2754
10.2068
10.1585
10.1389
10.1364
10.1383
10.13
10.1
10.0543
9.99422
9.91835
9.82865
9.72405
9.59287
9.43025
9.2359
9.01441
8.76456
8.4685
8.10855
7.66123
7.11123
6.41159
5.65163
4.79057
1
1
1
1
1
1
1
1
1
1
1
1
1
1
1
1
1
1
1
1
1
1
1
1
1
1
1
1
1
1
1
1
1
1
1
1
1
1
1
1
1
1
1
1
1
1
1
1
1
1
1
1
1
1
1
1
1
1
1
1
1
2.83184
9.06222
10.1582
10.1147
10.1576
10.2152
10.2544
10.2793
10.295
10.2814
10.2314
10.165
10.1017
10.06
10.0382
10.0291
10.0212
9.99764
9.9553
9.89067
9.80945
9.71758
9.61274
9.47933
9.30851
9.09825
8.85356
8.58036
8.27082
7.9127
7.48648
6.95316
6.32878
5.66853
4.9113
1
1
1
1
1
1
1
1
1
1
1
1
1
1
1
1
1
1
1
1
1
1
1
1
1
1
1
1
1
1
1
1
1
1
1
1
1
1
1
1
1
1
1
1
1
1
1
1
1
1
1
1
1
1
1
1
1
1
1
1
1
1.37586
7.84676
10.2243
10.1101
10.0953
10.1408
10.1679
10.1827
10.1991
10.2036
10.1763
10.1226
10.054
9.99352
9.95313
9.93053
9.9189
9.89956
9.85704
9.78595
9.70026
9.60789
9.50201
9.36526
9.18652
8.96503
8.70714
8.41873
8.09995
7.74542
7.34078
6.84001
6.28875
5.69252
5.02668
1
1
1
1
1
1
1
1
1
1
1
1
1
1
1
1
1
1
1
1
1
1
1
1
1
1
1
1
1
1
1
1
1
1
1
1
1
1
1
1
1
1
1
1
1
1
1
1
1
1
1
1
1
1
1
1
1
1
1
1
1
1.01273
5.99844
9.79997
9.95989
10.0376
10.0841
10.1092
10.1191
10.1302
10.1391
10.1244
10.0785
10.0063
9.93026
9.87536
9.83914
9.82381
9.8072
9.76192
9.68265
9.5904
9.49492
9.38565
9.24458
9.06026
8.83426
8.57425
8.28145
7.9583
7.60944
7.21849
6.76137
6.2642
5.71123
5.13117
1
1
1
1
1
1
1
1
1
1
1
1
1
1
1
1
1
1
1
1
1
1
1
1
1
1
1
1
1
1
1
1
1
1
1
1
1
1
1
1
1
1
1
1
1
1
1
1
1
1
1
1
1
1
1
1
1
1
1
1
1
1.00002
3.76329
9.33622
9.98044
9.98467
10.0141
10.0426
10.0555
10.0625
10.0692
10.0631
10.0277
9.95874
9.87287
9.8022
9.75597
9.7352
9.71698
9.66821
9.58213
9.48203
9.37995
9.2645
9.11914
8.93228
8.70756
8.45302
8.16818
7.84487
7.50545
7.12114
6.70713
6.251
5.73946
5.23153
1
1
1
1
1
1
1
1
1
1
1
1
1
1
1
1
1
1
1
1
1
1
1
1
1
1
1
1
1
1
1
1
1
1
1
1
1
1
1
1
1
1
1
1
1
1
1
1
1
1
1
1
1
1
1
1
1
1
1
1
1
1
1.82462
8.39044
10.0741
9.95862
9.94008
9.97135
9.99623
10.0069
10.0103
10.003
9.97235
9.90704
9.81791
9.73456
9.68036
9.64935
9.62267
9.57049
9.48131
9.37557
9.26592
9.14287
8.99382
8.80648
8.58619
8.33971
8.06673
7.75258
7.42418
7.04751
6.66882
6.24015
5.77386
5.31631
1
1
1
1
1
1
1
1
1
1
1
1
1
1
1
1
1
1
1
1
1
1
1
1
1
1
1
1
1
1
1
1
1
1
1
1
1
1
1
1
1
1
1
1
1
1
1
1
1
1
1
1
1
1
1
1
1
1
1
1
1
1
1.05608
6.64129
9.79352
9.83
9.86356
9.90242
9.93487
9.95638
9.96196
9.9519
9.92019
9.8564
9.76743
9.67758
9.60679
9.564
9.52472
9.46797
9.37991
9.27342
9.158
9.0278
8.87545
8.6898
8.47544
8.23716
7.97244
7.67905
7.35784
6.99881
6.64174
6.23467
5.81497
5.38657
1
1
1
1
1
1
1
1
1
1
1
1
1
1
1
1
1
1
1
1
1
1
1
1
1
1
1
1
1
1
1
1
1
1
1
1
1
1
1
1
1
1
1
1
1
1
1
1
1
1
1
1
1
1
1
1
1
1
1
1
1
1
1.00029
4.18222
9.33762
9.79471
9.80947
9.8422
9.8733
9.89615
9.89916
9.88426
9.84782
9.79265
9.71535
9.6268
9.53889
9.48181
9.42414
9.35951
9.27578
9.174
9.0562
8.92087
8.76626
8.58547
8.37893
8.14845
7.89298
7.61515
7.29867
6.96635
6.62113
6.23199
5.84593
5.4413
1
1
1
1
1
1
1
1
1
1
1
1
1
1
1
1
1
1
1
1
1
1
1
1
1
1
1
1
1
1
1
1
1
1
1
1
1
1
1
1
1
1
1
1
1
1
1
1
1
1
1
1
1
1
1
1
1
1
1
1
1
1
1
1.98685
8.49252
9.87698
9.77046
9.76828
9.79944
9.82807
9.83549
9.81674
9.77118
9.72521
9.66074
9.57712
9.48099
9.39924
9.32268
9.24787
9.16883
9.0746
8.95764
8.81898
8.66307
8.48959
8.29437
8.07355
7.82971
7.55545
7.25231
6.94428
6.6053
6.2395
5.87402
5.49893
1
1
1
1
1
1
1
1
1
1
1
1
1
1
1
1
1
1
1
1
1
1
1
1
1
1
1
1
1
1
1
1
1
1
1
1
1
1
1
1
1
1
1
1
1
1
1
1
1
1
1
1
1
1
1
1
1
1
1
1
1
1
1
1.07503
6.67376
9.64582
9.67547
9.70287
9.73707
9.76675
9.7774
9.75815
9.70786
9.66517
9.60943
9.52902
9.43018
9.32539
9.23079
9.14198
9.06269
8.9745
8.86007
8.72082
8.56543
8.39853
8.21574
8.00812
7.77598
7.50544
7.22172
6.92728
6.59814
6.25647
5.9028
5.55372
1
1
1
1
1
1
1
1
1
1
1
1
1
1
1
1
1
1
1
1
1
1
1
1
1
1
1
1
1
1
1
1
1
1
1
1
1
1
1
1
1
1
1
1
1
1
1
1
1
1
1
1
1
1
1
1
1
1
1
1
1
1
1
1.00049
4.01248
9.18549
9.67298
9.66919
9.68269
9.69674
9.69746
9.67699
9.6311
9.596
9.55053
9.47825
9.38355
9.26932
9.15386
9.0524
8.9637
8.87447
8.7622
8.62551
8.4732
8.30913
8.1334
7.93971
7.71818
7.45971
7.19574
6.91123
6.5999
6.27752
5.93696
5.6092
1
1
1
1
1
1
1
1
1
1
1
1
1
1
1
1
1
1
1
1
1
1
1
1
1
1
1
1
1
1
1
1
1
1
1
1
1
1
1
1
1
1
1
1
1
1
1
1
1
1
1
1
1
1
1
1
1
1
1
1
1
1
1
1
1.74374
8.182
9.73935
9.64551
9.60946
9.61817
9.61557
9.5916
9.54842
9.5223
9.48573
9.42274
9.33605
9.22304
9.09637
8.98284
8.88043
8.78338
8.67371
8.54281
8.39825
8.23041
8.05172
7.86657
7.65668
7.41787
7.17046
6.89693
6.60496
6.3006
5.97513
5.66328
1
1
1
1
1
1
1
1
1
1
1
1
1
1
1
1
1
1
1
1
1
1
1
1
1
1
1
1
1
1
1
1
1
1
1
1
1
1
1
1
1
1
1
1
1
1
1
1
1
1
1
1
1
1
1
1
1
1
1
1
1
1
1
1
1.04164
6.06763
9.4174
9.50444
9.51902
9.53475
9.54554
9.5264
9.4847
9.45481
9.41632
9.35551
9.27573
9.17065
9.04836
8.92383
8.80721
8.69729
8.58918
8.46914
8.33691
8.16514
7.97815
7.79063
7.58834
7.36557
7.1293
6.87077
6.60178
6.31844
6.01263
5.71855
1
1
1
1
1
1
1
1
1
1
1
1
1
1
1
1
1
1
1
1
1
1
1
1
1
1
1
1
1
1
1
1
1
1
1
1
1
1
1
1
1
1
1
1
1
1
1
1
1
1
1
1
1
1
1
1
1
1
1
1
1
1
1
1
1.00015
3.23274
8.98549
9.54437
9.4879
9.46753
9.4677
9.44988
9.41498
9.38246
9.34194
9.28162
9.20571
9.1087
8.99408
8.86859
8.7375
8.61606
8.50657
8.39887
8.28063
8.11776
7.92778
7.72828
7.5227
7.30895
7.08518
6.84226
6.59365
6.3321
6.04627
5.76483
1
1
1
1
1
1
1
1
1
1
1
1
1
1
1
1
1
1
1
1
1
1
1
1
1
1
1
1
1
1
1
1
1
1
1
1
1
1
1
1
1
1
1
1
1
1
1
1
1
1
1
1
1
1
1
1
1
1
1
1
1
1
1
1
1
1.29798
7.52801
9.58639
9.4678
9.41648
9.39639
9.38666
9.36337
9.33121
9.28634
9.2224
9.14435
9.05068
8.93948
8.81239
8.67251
8.54436
8.42725
8.32147
8.21421
8.06803
7.88688
7.68144
7.46682
7.25596
7.04078
6.81058
6.57836
6.33186
6.06406
5.79534
1
1
1
1
1
1
1
1
1
1
1
1
1
1
1
1
1
1
1
1
1
1
1
1
1
1
1
1
1
1
1
1
1
1
1
1
1
1
1
1
1
1
1
1
1
1
1
1
1
1
1
1
1
1
1
1
1
1
1
1
1
1
1
1
1
1.00712
4.79875
9.12178
9.3857
9.35495
9.34521
9.3436
9.32287
9.28683
9.23725
9.16891
9.08806
8.99479
8.88726
8.75858
8.61554
8.48592
8.35725
8.23937
8.13169
8.00424
7.84199
7.64677
7.43364
7.22262
7.00806
6.78683
6.56392
6.3247
6.06819
5.80967
1
1
1
1
1
1
1
1
1
1
1
1
1
1
1
1
1
1
1
1
1
1
1
1
1
1
1
1
1
1
1
1
1
1
1
1
1
1
1
1
1
1
1
1
1
1
1
1
1
1
1
1
1
1
1
1
1
1
1
1
1
1
1
1
1
1
2.03265
8.29949
9.45963
9.33511
9.28071
9.27256
9.25625
9.22994
9.18924
9.12285
9.04164
8.94661
8.843
8.71925
8.5811
8.44814
8.31054
8.17376
8.05004
7.9234
7.77861
7.6038
7.40783
7.20459
6.98902
6.76827
6.54665
6.3098
6.06269
5.82028
1
1
1
1
1
1
1
1
1
1
1
1
1
1
1
1
1
1
1
1
1
1
1
1
1
1
1
1
1
1
1
1
1
1
1
1
1
1
1
1
1
1
1
1
1
1
1
1
1
1
1
1
1
1
1
1
1
1
1
1
1
1
1
1
1
1
1.07191
6.10274
9.15281
9.20721
9.19515
9.18497
9.17708
9.1668
9.13719
9.07364
8.99293
8.89797
8.79635
8.68147
8.55433
8.42143
8.28092
8.12986
7.98202
7.83925
7.69807
7.5485
7.38043
7.19264
6.98394
6.7641
6.53809
6.3036
6.06585
5.83636
1
1
1
1
1
1
1
1
1
1
1
1
1
1
1
1
1
1
1
1
1
1
1
1
1
1
1
1
1
1
1
1
1
1
1
1
1
1
1
1
1
1
1
1
1
1
1
1
1
1
1
1
1
1
1
1
1
1
1
1
1
1
1
1
1
1
1.00042
2.9922
8.67153
9.28106
9.17976
9.1231
9.09494
9.07871
9.05109
8.99662
8.92561
8.84147
8.74845
8.64435
8.53241
8.40625
8.26445
8.10528
7.93791
7.77444
7.62166
7.48508
7.34059
7.17082
6.97346
6.75816
6.53349
6.30537
6.07575
5.85636
1
1
1
1
1
1
1
1
1
1
1
1
1
1
1
1
1
1
1
1
1
1
1
1
1
1
1
1
1
1
1
1
1
1
1
1
1
1
1
1
1
1
1
1
1
1
1
1
1
1
1
1
1
1
1
1
1
1
1
1
1
1
1
1
1
1
1
1.23288
6.97877
9.21021
9.12462
9.06498
9.02498
9.00184
8.97649
8.92775
8.86315
8.78548
8.69849
8.6048
8.5034
8.3816
8.23848
8.0765
7.9039
7.73113
7.56753
7.42466
7.28947
7.13506
6.95187
6.74682
6.53213
6.31475
6.09476
5.88256
1
1
1
1
1
1
1
1
1
1
1
1
1
1
1
1
1
1
1
1
1
1
1
1
1
1
1
1
1
1
1
1
1
1
1
1
1
1
1
1
1
1
1
1
1
1
1
1
1
1
1
1
1
1
1
1
1
1
1
1
1
1
1
1
1
1
1
1.004
3.87695
8.68811
9.13699
9.06039
8.98754
8.93859
8.90468
8.85845
8.79261
8.72008
8.63693
8.55052
8.45612
8.34091
8.20569
8.0499
7.88119
7.70893
7.54048
7.38649
7.24372
7.09078
6.91362
6.71836
6.52059
6.3209
6.11578
5.91108
1
1
1
1
1
1
1
1
1
1
1
1
1
1
1
1
1
1
1
1
1
1
1
1
1
1
1
1
1
1
1
1
1
1
1
1
1
1
1
1
1
1
1
1
1
1
1
1
1
1
1
1
1
1
1
1
1
1
1
1
1
1
1
1
1
1
1
1
1.45532
7.43176
9.15299
9.05917
8.97161
8.87926
8.81965
8.77769
8.72935
8.66698
8.58795
8.49894
8.40218
8.28831
8.15968
8.01544
7.85772
7.69311
7.52663
7.36499
7.20904
7.04605
6.86676
6.68268
6.50532
6.32568
6.13728
5.94122
1
1
1
1
1
1
1
1
1
1
1
1
1
1
1
1
1
1
1
1
1
1
1
1
1
1
1
1
1
1
1
1
1
1
1
1
1
1
1
1
1
1
1
1
1
1
1
1
1
1
1
1
1
1
1
1
1
1
1
1
1
1
1
1
1
1
1
1
1.01507
4.52239
8.67624
8.95847
8.92538
8.8555
8.77097
8.70602
8.6607
8.60601
8.53166
8.44013
8.33953
8.22764
8.10554
7.97468
7.83229
7.68049
7.52098
7.35712
7.19136
7.01517
6.82733
6.64871
6.48536
6.32174
6.14875
5.96414
1
1
1
1
1
1
1
1
1
1
1
1
1
1
1
1
1
1
1
1
1
1
1
1
1
1
1
1
1
1
1
1
1
1
1
1
1
1
1
1
1
1
1
1
1
1
1
1
1
1
1
1
1
1
1
1
1
1
1
1
1
1
1
1
1
1
1
1
1.00003
1.67142
7.63633
9.04747
8.93294
8.84512
8.74901
8.64626
8.5809
8.53404
8.47328
8.39027
8.28782
8.17444
8.05521
7.93184
7.80096
7.6598
7.50915
7.34958
7.17996
6.99572
6.80222
6.62659
6.47009
6.31605
6.15419
5.97959
1
1
1
1
1
1
1
1
1
1
1
1
1
1
1
1
1
1
1
1
1
1
1
1
1
1
1
1
1
1
1
1
1
1
1
1
1
1
1
1
1
1
1
1
1
1
1
1
1
1
1
1
1
1
1
1
1
1
1
1
1
1
1
1
1
1
1
1
1
1.03169
4.88178
8.61131
8.79751
8.77353
8.70757
8.6174
8.53123
8.46552
8.4077
8.33536
8.23995
8.12882
8.01093
7.89003
7.76652
7.63498
7.49311
7.34037
7.17219
6.98642
6.79611
6.62501
6.47006
6.31797
6.15952
5.98995
1
1
1
1
1
1
1
1
1
1
1
1
1
1
1
1
1
1
1
1
1
1
1
1
1
1
1
1
1
1
1
1
1
1
1
1
1
1
1
1
1
1
1
1
1
1
1
1
1
1
1
1
1
1
1
1
1
1
1
1
1
1
1
1
1
1
1
1
1
1.0001
1.81828
7.6699
8.9282
8.78389
8.68597
8.60003
8.49836
8.4053
8.33622
8.27185
8.19398
8.09447
7.98008
7.85904
7.73513
7.6065
7.46906
7.32105
7.15856
6.98074
6.80184
6.63718
6.48234
6.32876
6.16981
6.00153
1
1
1
1
1
1
1
1
1
1
1
1
1
1
1
1
1
1
1
1
1
1
1
1
1
1
1
1
1
1
1
1
1
1
1
1
1
1
1
1
1
1
1
1
1
1
1
1
1
1
1
1
1
1
1
1
1
1
1
1
1
1
1
1
1
1
1
1
1
1
1.0455
4.98467
8.50706
8.65543
8.62751
8.56457
8.4719
8.36978
8.2849
8.21442
8.14368
8.05767
7.95218
7.83454
7.70975
7.57901
7.44198
7.29691
7.1411
6.97609
6.81315
6.65792
6.50503
6.34957
6.18815
6.01877
1
1
1
1
1
1
1
1
1
1
1
1
1
1
1
1
1
1
1
1
1
1
1
1
1
1
1
1
1
1
1
1
1
1
1
1
1
1
1
1
1
1
1
1
1
1
1
1
1
1
1
1
1
1
1
1
1
1
1
1
1
1
1
1
1
1
1
1
1
1
1.0002
1.87008
7.55066
8.79418
8.66015
8.56117
8.46153
8.3477
8.24059
8.15634
8.08554
8.01376
7.92554
7.81615
7.69302
7.55973
7.41989
7.27465
7.12378
6.97068
6.82236
6.67751
6.52932
6.37413
6.21077
6.03994
1
1
1
1
1
1
1
1
1
1
1
1
1
1
1
1
1
1
1
1
1
1
1
1
1
1
1
1
1
1
1
1
1
1
1
1
1
1
1
1
1
1
1
1
1
1
1
1
1
1
1
1
1
1
1
1
1
1
1
1
1
1
1
1
1
1
1
1
1
1
1
1.04995
4.81589
8.37059
8.54209
8.51018
8.43146
8.32557
8.21647
8.12287
8.04575
7.97179
7.88939
7.79049
7.67635
7.54791
7.40678
7.25913
7.11035
6.96541
6.82689
6.69027
6.54742
6.39415
6.23113
6.06189
1
1
1
1
1
1
1
1
1
1
1
1
1
1
1
1
1
1
1
1
1
1
1
1
1
1
1
1
1
1
1
1
1
1
1
1
1
1
1
1
1
1
1
1
1
1
1
1
1
1
1
1
1
1
1
1
1
1
1
1
1
1
1
1
1
1
1
1
1
1
1
1.00026
1.80442
7.29227
8.64715
8.53728
8.43297
8.3225
8.20447
8.09535
8.00296
7.92217
7.84499
7.7578
7.6524
7.53128
7.39672
7.25405
7.10912
6.96701
6.83057
6.69642
6.55665
6.40618
6.24571
6.08037
1
1
1
1
1
1
1
1
1
1
1
1
1
1
1
1
1
1
1
1
1
1
1
1
1
1
1
1
1
1
1
1
1
1
1
1
1
1
1
1
1
1
1
1
1
1
1
1
1
1
1
1
1
1
1
1
1
1
1
1
1
1
1
1
1
1
1
1
1
1
1
1
1.04212
4.36689
8.17315
8.43933
8.38237
8.30196
8.19483
8.0837
7.98437
7.89797
7.81465
7.72411
7.62009
7.5057
7.38482
7.25472
7.11594
6.97354
6.83427
6.69894
6.56015
6.41158
6.25417
6.09459
1
1
1
1
1
1
1
1
1
1
1
1
1
1
1
1
1
1
1
1
1
1
1
1
1
1
1
1
1
1
1
1
1
1
1
1
1
1
1
1
1
1
1
1
1
1
1
1
1
1
1
1
1
1
1
1
1
1
1
1
1
1
1
1
1
1
1
1
1
1
1
1
1.00023
1.62452
6.87043
8.489
8.40104
8.31099
8.19753
8.07786
7.97042
7.87113
7.77375
7.67822
7.57857
7.47445
7.3663
7.24824
7.11828
6.98042
6.84154
6.7042
6.56305
6.41286
6.25652
6.1031
1
1
1
1
1
1
1
1
1
1
1
1
1
1
1
1
1
1
1
1
1
1
1
1
1
1
1
1
1
1
1
1
1
1
1
1
1
1
1
1
1
1
1
1
1
1
1
1
1
1
1
1
1
1
1
1
1
1
1
1
1
1
1
1
1
1
1
1
1
1
1
1
1
1.02531
3.63772
7.9728
8.37456
8.27949
8.19048
8.082
7.9741
7.86645
7.75928
7.65296
7.54769
7.44447
7.34116
7.23174
7.1113
6.98059
6.84544
6.70943
6.56781
6.41614
6.26072
6.11352
1
1
1
1
1
1
1
1
1
1
1
1
1
1
1
1
1
1
1
1
1
1
1
1
1
1
1
1
1
1
1
1
1
1
1
1
1
1
1
1
1
1
1
1
1
1
1
1
1
1
1
1
1
1
1
1
1
1
1
1
1
1
1
1
1
1
1
1
1
1
1
1
1
1.00012
1.38436
6.26834
8.31412
8.26559
8.17515
8.08037
7.97403
7.85516
7.73277
7.61697
7.51109
7.41281
7.31511
7.21127
7.09697
6.9733
6.84508
6.71416
6.57536
6.42452
6.26926
6.12415
1
1
1
1
1
1
1
1
1
1
1
1
1
1
1
1
1
1
1
1
1
1
1
1
1
1
1
1
1
1
1
1
1
1
1
1
1
1
1
1
1
1
1
1
1
1
1
1
1
1
1
1
1
1
1
1
1
1
1
1
1
1
1
1
1
1
1
1
1
1
1
1
1
1
1.00993
2.80041
7.63144
8.29068
8.1828
8.08851
7.98502
7.86683
7.74151
7.61864
7.5025
7.39243
7.28676
7.18214
7.07308
6.95646
6.83431
6.70852
6.57635
6.43439
6.28745
6.14629
1
1
1
1
1
1
1
1
1
1
1
1
1
1
1
1
1
1
1
1
1
1
1
1
1
1
1
1
1
1
1
1
1
1
1
1
1
1
1
1
1
1
1
1
1
1
1
1
1
1
1
1
1
1
1
1
1
1
1
1
1
1
1
1
1
1
1
1
1
1
1
1
1
1
1.00003
1.18788
5.3343
8.05522
8.11772
8.04914
7.95533
7.84624
7.73199
7.61637
7.50052
7.38263
7.26665
7.15831
7.05364
6.94503
6.82839
6.70384
6.57421
6.4413
6.30676
6.17255
1
1
1
1
1
1
1
1
1
1
1
1
1
1
1
1
1
1
1
1
1
1
1
1
1
1
1
1
1
1
1
1
1
1
1
1
1
1
1
1
1
1
1
1
1
1
1
1
1
1
1
1
1
1
1
1
1
1
1
1
1
1
1
1
1
1
1
1
1
1
1
1
1
1
1
1.00285
2.11976
6.99755
8.19355
8.07513