/*--------------------------------*- C++ -*----------------------------------*\
  =========                 |
  \\      /  F ield         | OpenFOAM: The Open Source CFD Toolbox
   \\    /   O peration     | Website:  https://openfoam.org
    \\  /    A nd           | Version:  7
     \\/     M anipulation  |
\*---------------------------------------------------------------------------*/
FoamFile
{
    version     2.0;
    format      ascii;
    class       volScalarField;
    location    "0.8";
    object      rho;
}
// * * * * * * * * * * * * * * * * * * * * * * * * * * * * * * * * * * * * * //

dimensions      [1 -3 0 0 0 0 0];

internalField   nonuniform List<scalar> 
64512
(
1.40001
1.40001
1.40001
1.40001
1.40001
1.40001
1.40001
1.40001
1.40001
1.40001
1.40001
1.40001
1.40001
1.40001
1.40001
1.40001
1.40001
1.40001
1.40001
1.40001
1.40001
1.40001
1.40001
1.40001
1.40001
1.40001
1.40001
1.40001
1.40001
1.40001
1.40001
1.40001
1.40001
1.40001
1.40001
1.40001
1.40001
1.40001
1.40001
1.40001
1.40001
1.40001
1.40001
1.40001
1.40001
1.40001
1.40001
1.40001
1.40001
1.40001
1.40001
1.40001
1.40001
1.40001
1.40001
1.40001
3.18185
5.311
5.46075
5.52046
5.59788
5.66346
5.68795
5.67156
5.64399
5.6223
5.6145
5.62058
5.63778
5.66741
5.69682
5.71895
5.74046
5.76659
5.79588
5.82043
5.83448
5.83608
5.82529
5.81451
5.81205
5.82409
5.84298
5.86124
5.87639
5.88439
5.88235
5.86799
5.83513
5.77817
5.68427
5.53916
5.35254
5.17299
5.05656
5.01088
1.40001
1.40001
1.40001
1.40001
1.40001
1.40001
1.40001
1.40001
1.40001
1.40001
1.40001
1.40001
1.40001
1.40001
1.40001
1.40001
1.40001
1.40001
1.40001
1.40001
1.40001
1.40001
1.40001
1.40001
1.40001
1.40001
1.40001
1.40001
1.40001
1.40001
1.40001
1.40001
1.40001
1.40001
1.40001
1.40001
1.40001
1.40001
1.40001
1.40001
1.40001
1.40001
1.40001
1.40001
1.40001
1.40001
1.40001
1.40001
1.40001
1.40001
1.40001
1.40001
1.40001
1.40001
1.40001
1.40001
3.15823
5.28755
5.46851
5.52376
5.5997
5.66308
5.68692
5.66936
5.64174
5.62113
5.61433
5.62097
5.63794
5.66726
5.69583
5.71771
5.7395
5.76621
5.79604
5.82091
5.83486
5.83592
5.82459
5.8134
5.81086
5.82293
5.84183
5.86013
5.87523
5.88314
5.881
5.86643
5.83331
5.77601
5.68169
5.53636
5.34995
5.17093
5.05481
5.00948
1.40001
1.40001
1.40001
1.40001
1.40001
1.40001
1.40001
1.40001
1.40001
1.40001
1.40001
1.40001
1.40001
1.40001
1.40001
1.40001
1.40001
1.40001
1.40001
1.40001
1.40001
1.40001
1.40001
1.40001
1.40001
1.40001
1.40001
1.40001
1.40001
1.40001
1.40001
1.40001
1.40001
1.40001
1.40001
1.40001
1.40001
1.40001
1.40001
1.40001
1.40001
1.40001
1.40001
1.40001
1.40001
1.40001
1.40001
1.40001
1.40001
1.40001
1.40001
1.40001
1.40001
1.40001
1.40001
1.40001
3.11783
5.26658
5.47182
5.52756
5.60061
5.66128
5.6838
5.66501
5.63794
5.61933
5.61408
5.62146
5.63793
5.66653
5.69393
5.71558
5.7379
5.76555
5.79617
5.82144
5.83536
5.83572
5.82346
5.81154
5.80871
5.82074
5.83971
5.85824
5.87347
5.88136
5.87891
5.86368
5.82952
5.77094
5.67526
5.52914
5.34325
5.16576
5.05067
5.00582
1.40001
1.40001
1.40001
1.40001
1.40001
1.40001
1.40001
1.40001
1.40001
1.40001
1.40001
1.40001
1.40001
1.40001
1.40001
1.40001
1.40001
1.40001
1.40001
1.40001
1.40001
1.40001
1.40001
1.40001
1.40001
1.40001
1.40001
1.40001
1.40001
1.40001
1.40001
1.40001
1.40001
1.40001
1.40001
1.40001
1.40001
1.40001
1.40001
1.40001
1.40001
1.40001
1.40001
1.40001
1.40001
1.40001
1.40001
1.40001
1.40001
1.40001
1.40001
1.40001
1.40001
1.40001
1.40001
1.40001
3.05471
5.24521
5.47531
5.53233
5.60254
5.65965
5.67938
5.65878
5.6326
5.61701
5.61398
5.62206
5.63742
5.66469
5.6907
5.71241
5.73577
5.76482
5.79648
5.82211
5.83588
5.83526
5.82168
5.80879
5.8055
5.81745
5.83653
5.85537
5.87076
5.87863
5.87579
5.85966
5.82406
5.76337
5.66521
5.51738
5.33196
5.15694
5.04387
4.99999
1.40001
1.40001
1.40001
1.40001
1.40001
1.40001
1.40001
1.40001
1.40001
1.40001
1.40001
1.40001
1.40001
1.40001
1.40001
1.40001
1.40001
1.40001
1.40001
1.40001
1.40001
1.40001
1.40001
1.40001
1.40001
1.40001
1.40001
1.40001
1.40001
1.40001
1.40001
1.40001
1.40001
1.40001
1.40001
1.40001
1.40001
1.40001
1.40001
1.40001
1.40001
1.40001
1.40001
1.40001
1.40001
1.40001
1.40001
1.40001
1.40001
1.40001
1.40001
1.40001
1.40001
1.40001
1.40001
1.40001
2.97267
5.22615
5.47896
5.53711
5.60388
5.65595
5.67194
5.64985
5.62597
5.61446
5.61413
5.62281
5.6364
5.66181
5.68647
5.70858
5.73339
5.76412
5.79687
5.82273
5.83612
5.83426
5.8193
5.80526
5.8014
5.81328
5.83257
5.85176
5.86732
5.87515
5.87187
5.85472
5.81773
5.75469
5.65359
5.50344
5.31811
5.14585
5.03517
4.99249
1.40001
1.40001
1.40001
1.40001
1.40001
1.40001
1.40001
1.40001
1.40001
1.40001
1.40001
1.40001
1.40001
1.40001
1.40001
1.40001
1.40001
1.40001
1.40001
1.40001
1.40001
1.40001
1.40001
1.40001
1.40001
1.40001
1.40001
1.40001
1.40001
1.40001
1.40001
1.40001
1.40001
1.40001
1.40001
1.40001
1.40001
1.40001
1.40001
1.40001
1.40001
1.40001
1.40001
1.40001
1.40001
1.40001
1.40001
1.40001
1.40001
1.40001
1.40001
1.40001
1.40001
1.40001
1.40001
1.40001
2.87525
5.2033
5.48132
5.54024
5.60412
5.65007
5.66138
5.63903
5.61967
5.61238
5.61441
5.62316
5.63404
5.65746
5.68122
5.70437
5.73111
5.7637
5.79737
5.82318
5.83584
5.8324
5.81609
5.80088
5.79649
5.80846
5.82814
5.84767
5.86323
5.87082
5.86698
5.84891
5.8107
5.74616
5.64245
5.49001
5.30433
5.13447
5.02587
4.98454
1.40001
1.40001
1.40001
1.40001
1.40001
1.40001
1.40001
1.40001
1.40001
1.40001
1.40001
1.40001
1.40001
1.40001
1.40001
1.40001
1.40001
1.40001
1.40001
1.40001
1.40001
1.40001
1.40001
1.40001
1.40001
1.40001
1.40001
1.40001
1.40001
1.40001
1.40001
1.40001
1.40001
1.40001
1.40001
1.40001
1.40001
1.40001
1.40001
1.40001
1.40001
1.40001
1.40001
1.40001
1.40001
1.40001
1.40001
1.40001
1.40001
1.40001
1.40001
1.40001
1.40001
1.40001
1.40001
1.40001
2.76466
5.17672
5.48361
5.54052
5.60027
5.6398
5.64672
5.62726
5.61419
5.61066
5.61459
5.62279
5.63039
5.6521
5.67559
5.70032
5.72933
5.7637
5.79792
5.82324
5.83472
5.82946
5.81175
5.79548
5.79082
5.80316
5.82357
5.84351
5.85878
5.8657
5.86097
5.84203
5.803
5.7377
5.63291
5.47889
5.29267
5.12444
5.01714
4.97725
1.40001
1.40001
1.40001
1.40001
1.40001
1.40001
1.40001
1.40001
1.40001
1.40001
1.40001
1.40001
1.40001
1.40001
1.40001
1.40001
1.40001
1.40001
1.40001
1.40001
1.40001
1.40001
1.40001
1.40001
1.40001
1.40001
1.40001
1.40001
1.40001
1.40001
1.40001
1.40001
1.40001
1.40001
1.40001
1.40001
1.40001
1.40001
1.40001
1.40001
1.40001
1.40001
1.40001
1.40001
1.40001
1.40001
1.40001
1.40001
1.40001
1.40001
1.40001
1.40001
1.40001
1.40001
1.40001
1.40001
2.64813
5.14593
5.47922
5.53185
5.59105
5.62628
5.62993
5.616
5.6097
5.60953
5.61481
5.62168
5.62607
5.64598
5.66973
5.69652
5.72813
5.76408
5.79841
5.82271
5.83262
5.82545
5.80626
5.7891
5.78438
5.79741
5.81896
5.8395
5.85419
5.85986
5.85379
5.83403
5.7948
5.72923
5.62431
5.47001
5.28374
5.11632
5.00948
4.97108
1.40001
1.40001
1.40001
1.40001
1.40001
1.40001
1.40001
1.40001
1.40001
1.40001
1.40001
1.40001
1.40001
1.40001
1.40001
1.40001
1.40001
1.40001
1.40001
1.40001
1.40001
1.40001
1.40001
1.40001
1.40001
1.40001
1.40001
1.40001
1.40001
1.40001
1.40001
1.40001
1.40001
1.40001
1.40001
1.40001
1.40001
1.40001
1.40001
1.40001
1.40001
1.40001
1.40001
1.40001
1.40001
1.40001
1.40001
1.40001
1.40001
1.40001
1.40001
1.40001
1.40001
1.40001
1.40001
1.40001
2.52768
5.10154
5.46933
5.5201
5.58068
5.61179
5.61222
5.6048
5.60598
5.6094
5.61512
5.6198
5.6219
5.63938
5.66379
5.69324
5.72757
5.76473
5.79862
5.82137
5.82945
5.82041
5.7998
5.78186
5.7772
5.79106
5.81406
5.83547
5.8494
5.85331
5.8455
5.82496
5.78616
5.7212
5.61615
5.46198
5.27601
5.10938
5.00281
4.96589
1.40001
1.40001
1.40001
1.40001
1.40001
1.40001
1.40001
1.40001
1.40001
1.40001
1.40001
1.40001
1.40001
1.40001
1.40001
1.40001
1.40001
1.40001
1.40001
1.40001
1.40001
1.40001
1.40001
1.40001
1.40001
1.40001
1.40001
1.40001
1.40001
1.40001
1.40001
1.40001
1.40001
1.40001
1.40001
1.40001
1.40001
1.40001
1.40001
1.40001
1.40001
1.40001
1.40001
1.40001
1.40001
1.40001
1.40001
1.40001
1.40001
1.40001
1.40001
1.40001
1.40001
1.40001
1.40001
1.40001
2.3962
5.04109
5.46359
5.51273
5.56948
5.59504
5.59451
5.59438
5.60282
5.60972
5.61549
5.61737
5.61785
5.63266
5.65813
5.6907
5.7275
5.76516
5.79798
5.81881
5.82501
5.81442
5.79274
5.77418
5.76959
5.78424
5.80861
5.83103
5.84414
5.84599
5.83632
5.81513
5.77735
5.71362
5.60898
5.45456
5.26851
5.10259
4.99648
4.9612
1.40001
1.40001
1.40001
1.40001
1.40001
1.40001
1.40001
1.40001
1.40001
1.40001
1.40001
1.40001
1.40001
1.40001
1.40001
1.40001
1.40001
1.40001
1.40001
1.40001
1.40001
1.40001
1.40001
1.40001
1.40001
1.40001
1.40001
1.40001
1.40001
1.40001
1.40001
1.40001
1.40001
1.40001
1.40001
1.40001
1.40001
1.40001
1.40001
1.40001
1.40001
1.40001
1.40001
1.40001
1.40001
1.40001
1.40001
1.40001
1.40001
1.40001
1.40001
1.40001
1.40001
1.40001
1.40001
1.40001
2.23944
4.95764
5.47254
5.50924
5.55483
5.57404
5.57933
5.5864
5.60003
5.60974
5.61567
5.61483
5.61367
5.62614
5.65315
5.689
5.7276
5.76481
5.79582
5.81453
5.81898
5.8074
5.78528
5.76646
5.76197
5.77722
5.80246
5.82544
5.83788
5.83763
5.82612
5.80473
5.76854
5.70648
5.60263
5.44821
5.26194
5.09599
4.99026
4.95664
1.40001
1.40001
1.40001
1.40001
1.40001
1.40001
1.40001
1.40001
1.40001
1.40001
1.40001
1.40001
1.40001
1.40001
1.40001
1.40001
1.40001
1.40001
1.40001
1.40001
1.40001
1.40001
1.40001
1.40001
1.40001
1.40001
1.40001
1.40001
1.40001
1.40001
1.40001
1.40001
1.40001
1.40001
1.40001
1.40001
1.40001
1.40001
1.40001
1.40001
1.40001
1.40001
1.40001
1.40001
1.40001
1.40001
1.40001
1.40001
1.40001
1.40001
1.40001
1.40001
1.40001
1.40001
1.40001
1.40001
2.05414
4.85399
5.49973
5.51318
5.54068
5.55359
5.56612
5.58107
5.59858
5.60907
5.61441
5.61207
5.60888
5.62021
5.64932
5.68808
5.72749
5.76329
5.79191
5.8083
5.81115
5.79917
5.77738
5.75897
5.75483
5.77049
5.7959
5.81846
5.82989
5.82773
5.81474
5.79386
5.75982
5.69977
5.59697
5.44273
5.25617
5.08981
4.98419
4.95193
1.40001
1.40001
1.40001
1.40001
1.40001
1.40001
1.40001
1.40001
1.40001
1.40001
1.40001
1.40001
1.40001
1.40001
1.40001
1.40001
1.40001
1.40001
1.40001
1.40001
1.40001
1.40001
1.40001
1.40001
1.40001
1.40001
1.40001
1.40001
1.40001
1.40001
1.40001
1.40001
1.40001
1.40001
1.40001
1.40001
1.40001
1.40001
1.40001
1.40001
1.40001
1.40001
1.40001
1.40001
1.40001
1.40001
1.40001
1.40001
1.40001
1.40001
1.40001
1.40001
1.40001
1.40001
1.40001
1.40001
1.84925
4.71244
5.53085
5.52206
5.52889
5.53857
5.55644
5.57939
5.59796
5.60665
5.61044
5.60971
5.6042
5.61527
5.64647
5.68716
5.72646
5.76026
5.78625
5.80025
5.80153
5.78959
5.76883
5.75155
5.74816
5.76396
5.78891
5.81019
5.82
5.81591
5.80199
5.78228
5.75097
5.6933
5.59178
5.43786
5.25099
5.08406
4.97855
4.94752
1.40001
1.40001
1.40001
1.40001
1.40001
1.40001
1.40001
1.40001
1.40001
1.40001
1.40001
1.40001
1.40001
1.40001
1.40001
1.40001
1.40001
1.40001
1.40001
1.40001
1.40001
1.40001
1.40001
1.40001
1.40001
1.40001
1.40001
1.40001
1.40001
1.40001
1.40001
1.40001
1.40001
1.40001
1.40001
1.40001
1.40001
1.40001
1.40001
1.40001
1.40001
1.40001
1.40001
1.40001
1.40001
1.40001
1.40001
1.40001
1.40001
1.40001
1.40001
1.40001
1.40001
1.40001
1.40001
1.40001
1.64078
4.50243
5.54098
5.51959
5.51445
5.53156
5.55288
5.57755
5.59419
5.60355
5.60664
5.60704
5.60025
5.61069
5.64351
5.68502
5.72367
5.75557
5.77903
5.79071
5.79051
5.77892
5.75954
5.74389
5.74155
5.75719
5.78135
5.80092
5.80866
5.80249
5.78788
5.76974
5.74153
5.68658
5.58661
5.43315
5.24601
5.07849
4.97325
4.94359
1.40001
1.40001
1.40001
1.40001
1.40001
1.40001
1.40001
1.40001
1.40001
1.40001
1.40001
1.40001
1.40001
1.40001
1.40001
1.40001
1.40001
1.40001
1.40001
1.40001
1.40001
1.40001
1.40001
1.40001
1.40001
1.40001
1.40001
1.40001
1.40001
1.40001
1.40001
1.40001
1.40001
1.40001
1.40001
1.40001
1.40001
1.40001
1.40001
1.40001
1.40001
1.40001
1.40001
1.40001
1.40001
1.40001
1.40001
1.40001
1.40001
1.40001
1.40001
1.40001
1.40001
1.40001
1.40001
1.40001
1.43615
4.18456
5.53235
5.49672
5.49449
5.51783
5.54398
5.57285
5.59172
5.6023
5.60657
5.60321
5.59704
5.60607
5.6394
5.68084
5.7186
5.74877
5.76989
5.77975
5.77869
5.76788
5.7502
5.73609
5.73448
5.74951
5.77257
5.79041
5.79602
5.78777
5.77259
5.75603
5.73094
5.67892
5.58086
5.4282
5.24098
5.07295
4.96822
4.94004
1.40001
1.40001
1.40001
1.40001
1.40001
1.40001
1.40001
1.40001
1.40001
1.40001
1.40001
1.40001
1.40001
1.40001
1.40001
1.40001
1.40001
1.40001
1.40001
1.40001
1.40001
1.40001
1.40001
1.40001
1.40001
1.40001
1.40001
1.40001
1.40001
1.40001
1.40001
1.40001
1.40001
1.40001
1.40001
1.40001
1.40001
1.40001
1.40001
1.40001
1.40001
1.40001
1.40001
1.40001
1.40001
1.40001
1.40001
1.40001
1.40001
1.40001
1.40001
1.40001
1.40001
1.40001
1.40001
1.40001
1.40047
3.80179
5.47525
5.45684
5.46766
5.50248
5.53786
5.57042
5.59303
5.60474
5.60901
5.59822
5.59355
5.60132
5.63332
5.67411
5.71098
5.73975
5.75893
5.76757
5.76658
5.75734
5.7417
5.72849
5.7266
5.74012
5.76149
5.77775
5.78182
5.77222
5.75682
5.74168
5.71928
5.66994
5.57393
5.42237
5.23537
5.06702
4.96303
4.9364
1.40001
1.40001
1.40001
1.40001
1.40001
1.40001
1.40001
1.40001
1.40001
1.40001
1.40001
1.40001
1.40001
1.40001
1.40001
1.40001
1.40001
1.40001
1.40001
1.40001
1.40001
1.40001
1.40001
1.40001
1.40001
1.40001
1.40001
1.40001
1.40001
1.40001
1.40001
1.40001
1.40001
1.40001
1.40001
1.40001
1.40001
1.40001
1.40001
1.40001
1.40001
1.40001
1.40001
1.40001
1.40001
1.40001
1.40001
1.40001
1.40001
1.40001
1.40001
1.40001
1.40001
1.40001
1.40001
1.40001
1.40001
3.42632
5.39935
5.42899
5.44908
5.49661
5.53868
5.57329
5.59929
5.61053
5.60916
5.59314
5.58812
5.59561
5.62514
5.66479
5.70053
5.72811
5.74591
5.75419
5.75431
5.74745
5.73436
5.72148
5.71835
5.72918
5.74782
5.76238
5.76564
5.75573
5.74074
5.72684
5.70643
5.65919
5.56511
5.41505
5.22885
5.06062
4.95769
4.93268
1.40001
1.40001
1.40001
1.40001
1.40001
1.40001
1.40001
1.40001
1.40001
1.40001
1.40001
1.40001
1.40001
1.40001
1.40001
1.40001
1.40001
1.40001
1.40001
1.40001
1.40001
1.40001
1.40001
1.40001
1.40001
1.40001
1.40001
1.40001
1.40001
1.40001
1.40001
1.40001
1.40001
1.40001
1.40001
1.40001
1.40001
1.40001
1.40001
1.40001
1.40001
1.40001
1.40001
1.40001
1.40001
1.40001
1.40001
1.40001
1.40001
1.40001
1.40001
1.40001
1.40001
1.40001
1.40001
1.40001
1.40001
3.06551
5.30244
5.4194
5.44638
5.50101
5.54734
5.58286
5.60647
5.61456
5.60383
5.58728
5.58054
5.58858
5.61518
5.65319
5.68757
5.7139
5.73089
5.73978
5.74189
5.73795
5.72778
5.71515
5.71031
5.71736
5.73183
5.74385
5.74645
5.7373
5.72376
5.71153
5.69283
5.6472
5.55476
5.40632
5.22126
5.05343
4.95171
4.92824
1.40001
1.40001
1.40001
1.40001
1.40001
1.40001
1.40001
1.40001
1.40001
1.40001
1.40001
1.40001
1.40001
1.40001
1.40001
1.40001
1.40001
1.40001
1.40001
1.40001
1.40001
1.40001
1.40001
1.40001
1.40001
1.40001
1.40001
1.40001
1.40001
1.40001
1.40001
1.40001
1.40001
1.40001
1.40001
1.40001
1.40001
1.40001
1.40001
1.40001
1.40001
1.40001
1.40001
1.40001
1.40001
1.40001
1.40001
1.40001
1.40001
1.40001
1.40001
1.40001
1.40001
1.40001
1.40001
1.40001
1.40001
2.71955
5.18814
5.42549
5.45154
5.50998
5.55676
5.59091
5.60872
5.6103
5.59354
5.57868
5.57208
5.58078
5.60468
5.63973
5.67306
5.69736
5.71385
5.72425
5.72926
5.72842
5.72101
5.70873
5.70189
5.70475
5.7141
5.72285
5.72445
5.7166
5.70521
5.69507
5.6781
5.63395
5.54303
5.39625
5.21242
5.04502
4.94451
4.92244
1.40001
1.40001
1.40001
1.40001
1.40001
1.40001
1.40001
1.40001
1.40001
1.40001
1.40001
1.40001
1.40001
1.40001
1.40001
1.40001
1.40001
1.40001
1.40001
1.40001
1.40001
1.40001
1.40001
1.40001
1.40001
1.40001
1.40001
1.40001
1.40001
1.40001
1.40001
1.40001
1.40001
1.40001
1.40001
1.40001
1.40001
1.40001
1.40001
1.40001
1.40001
1.40001
1.40001
1.40001
1.40001
1.40001
1.40001
1.40001
1.40001
1.40001
1.40001
1.40001
1.40001
1.40001
1.40001
1.40001
1.40001
2.38304
5.06432
5.44115
5.46008
5.51685
5.56143
5.59034
5.60283
5.59898
5.58159
5.56823
5.56415
5.57252
5.59427
5.62659
5.65806
5.67943
5.69524
5.70753
5.71605
5.71808
5.71289
5.70146
5.69199
5.69079
5.69544
5.70038
5.70068
5.69389
5.68461
5.67644
5.66138
5.61916
5.53029
5.38545
5.20267
5.03513
4.93522
4.91401
1.40001
1.40001
1.40001
1.40001
1.40001
1.40001
1.40001
1.40001
1.40001
1.40001
1.40001
1.40001
1.40001
1.40001
1.40001
1.40001
1.40001
1.40001
1.40001
1.40001
1.40001
1.40001
1.40001
1.40001
1.40001
1.40001
1.40001
1.40001
1.40001
1.40001
1.40001
1.40001
1.40001
1.40001
1.40001
1.40001
1.40001
1.40001
1.40001
1.40001
1.40001
1.40001
1.40001
1.40001
1.40001
1.40001
1.40001
1.40001
1.40001
1.40001
1.40001
1.40001
1.40001
1.40001
1.40001
1.40001
1.40001
2.05851
4.91201
5.46955
5.46802
5.51323
5.54964
5.5767
5.58691
5.58218
5.56963
5.56101
5.55992
5.56589
5.58516
5.61486
5.64283
5.66126
5.67589
5.68975
5.70156
5.70629
5.70329
5.69277
5.68052
5.67499
5.67542
5.67712
5.67613
5.66984
5.66184
5.65453
5.64101
5.60142
5.51597
5.37421
5.19266
5.02408
4.92353
4.90224
1.40001
1.40001
1.40001
1.40001
1.40001
1.40001
1.40001
1.40001
1.40001
1.40001
1.40001
1.40001
1.40001
1.40001
1.40001
1.40001
1.40001
1.40001
1.40001
1.40001
1.40001
1.40001
1.40001
1.40001
1.40001
1.40001
1.40001
1.40001
1.40001
1.40001
1.40001
1.40001
1.40001
1.40001
1.40001
1.40001
1.40001
1.40001
1.40001
1.40001
1.40001
1.40001
1.40001
1.40001
1.40001
1.40001
1.40001
1.40001
1.40001
1.40001
1.40001
1.40001
1.40001
1.40001
1.40001
1.40001
1.40001
1.77418
4.68742
5.48393
5.46736
5.49553
5.52631
5.55361
5.56603
5.56679
5.56388
5.56015
5.55917
5.56239
5.57618
5.60249
5.62723
5.64394
5.65728
5.67153
5.6853
5.69242
5.69167
5.68191
5.6673
5.65713
5.6533
5.65272
5.65079
5.6453
5.63765
5.62974
5.61672
5.58012
5.49965
5.36261
5.18268
5.01185
4.90864
4.88554
1.40001
1.40001
1.40001
1.40001
1.40001
1.40001
1.40001
1.40001
1.40001
1.40001
1.40001
1.40001
1.40001
1.40001
1.40001
1.40001
1.40001
1.40001
1.40001
1.40001
1.40001
1.40001
1.40001
1.40001
1.40001
1.40001
1.40001
1.40001
1.40001
1.40001
1.40001
1.40001
1.40001
1.40001
1.40001
1.40001
1.40001
1.40001
1.40001
1.40001
1.40001
1.40001
1.40001
1.40001
1.40001
1.40001
1.40001
1.40001
1.40001
1.40001
1.40001
1.40001
1.40001
1.40001
1.40001
1.40001
1.40001
1.53597
4.35573
5.44595
5.44263
5.47134
5.50033
5.52835
5.54682
5.55756
5.56307
5.56321
5.56015
5.55839
5.56715
5.58812
5.61064
5.62718
5.63989
5.65364
5.66787
5.67693
5.67823
5.66901
5.65235
5.63721
5.62893
5.62616
5.62428
5.62021
5.61236
5.60243
5.588
5.55373
5.47951
5.34928
5.17224
4.99853
4.89083
4.86428
1.40001
1.40001
1.40001
1.40001
1.40001
1.40001
1.40001
1.40001
1.40001
1.40001
1.40001
1.40001
1.40001
1.40001
1.40001
1.40001
1.40001
1.40001
1.40001
1.40001
1.40001
1.40001
1.40001
1.40001
1.40001
1.40001
1.40001
1.40001
1.40001
1.40001
1.40001
1.40001
1.40001
1.40001
1.40001
1.40001
1.40001
1.40001
1.40001
1.40001
1.40001
1.40001
1.40001
1.40001
1.40001
1.40001
1.40001
1.40001
1.40001
1.40001
1.40001
1.40001
1.40001
1.40001
1.40001
1.40001
1.40001
1.40713
3.91774
5.35195
5.40418
5.435
5.47537
5.51058
5.53743
5.5555
5.56389
5.56597
5.5602
5.55386
5.55608
5.56889
5.58958
5.60863
5.62369
5.63784
5.65103
5.66035
5.6623
5.65341
5.63531
5.61552
5.60258
5.5973
5.59592
5.59355
5.58568
5.57315
5.55601
5.52334
5.45595
5.33385
5.16036
4.98298
4.86886
4.83697
1.40001
1.40001
1.40001
1.40001
1.40001
1.40001
1.40001
1.40001
1.40001
1.40001
1.40001
1.40001
1.40001
1.40001
1.40001
1.40001
1.40001
1.40001
1.40001
1.40001
1.40001
1.40001
1.40001
1.40001
1.40001
1.40001
1.40001
1.40001
1.40001
1.40001
1.40001
1.40001
1.40001
1.40001
1.40001
1.40001
1.40001
1.40001
1.40001
1.40001
1.40001
1.40001
1.40001
1.40001
1.40001
1.40001
1.40001
1.40001
1.40001
1.40001
1.40001
1.40001
1.40001
1.40001
1.40001
1.40001
1.40001
1.40006
3.40114
5.22677
5.3749
5.41399
5.46464
5.50751
5.53837
5.55692
5.56409
5.56612
5.55723
5.54573
5.54021
5.54654
5.56701
5.59025
5.60934
5.62451
5.63541
5.64297
5.64382
5.63482
5.61587
5.59236
5.57485
5.56641
5.56532
5.56435
5.5566
5.54129
5.52056
5.48853
5.42771
5.31417
5.14487
4.96395
4.84278
4.80491
1.40001
1.40001
1.40001
1.40001
1.40001
1.40001
1.40001
1.40001
1.40001
1.40001
1.40001
1.40001
1.40001
1.40001
1.40001
1.40001
1.40001
1.40001
1.40001
1.40001
1.40001
1.40001
1.40001
1.40001
1.40001
1.40001
1.40001
1.40001
1.40001
1.40001
1.40001
1.40001
1.40001
1.40001
1.40001
1.40001
1.40001
1.40001
1.40001
1.40001
1.40001
1.40001
1.40001
1.40001
1.40001
1.40001
1.40001
1.40001
1.40001
1.40001
1.40001
1.40001
1.40001
1.40001
1.40001
1.40001
1.40001
1.40001
2.8537
5.11534
5.37593
5.41516
5.46574
5.50944
5.54437
5.56337
5.56682
5.56157
5.54615
5.52932
5.51905
5.52295
5.54393
5.57147
5.59498
5.61168
5.62089
5.62573
5.62401
5.61335
5.59333
5.5674
5.54614
5.53475
5.5332
5.53218
5.52384
5.50577
5.48168
5.45075
5.3967
5.29134
5.12515
4.93924
4.80961
4.76469
1.40001
1.40001
1.40001
1.40001
1.40001
1.40001
1.40001
1.40001
1.40001
1.40001
1.40001
1.40001
1.40001
1.40001
1.40001
1.40001
1.40001
1.40001
1.40001
1.40001
1.40001
1.40001
1.40001
1.40001
1.40001
1.40001
1.40001
1.40001
1.40001
1.40001
1.40001
1.40001
1.40001
1.40001
1.40001
1.40001
1.40001
1.40001
1.40001
1.40001
1.40001
1.40001
1.40001
1.40001
1.40001
1.40001
1.40001
1.40001
1.40001
1.40001
1.40001
1.40001
1.40001
1.40001
1.40001
1.40001
1.40001
1.40001
2.29925
5.01961
5.42448
5.43062
5.47622
5.51849
5.54761
5.55913
5.55495
5.54501
5.52897
5.51146
5.49985
5.50359
5.52407
5.55323
5.57827
5.59556
5.60472
5.60763
5.60284
5.59007
5.56839
5.54091
5.51686
5.50327
5.49999
5.49706
5.48666
5.4655
5.43854
5.40871
5.36025
5.26146
5.09752
4.90672
4.76883
4.71789
1.40001
1.40001
1.40001
1.40001
1.40001
1.40001
1.40001
1.40001
1.40001
1.40001
1.40001
1.40001
1.40001
1.40001
1.40001
1.40001
1.40001
1.40001
1.40001
1.40001
1.40001
1.40001
1.40001
1.40001
1.40001
1.40001
1.40001
1.40001
1.40001
1.40001
1.40001
1.40001
1.40001
1.40001
1.40001
1.40001
1.40001
1.40001
1.40001
1.40001
1.40001
1.40001
1.40001
1.40001
1.40001
1.40001
1.40001
1.40001
1.40001
1.40001
1.40001
1.40001
1.40001
1.40001
1.40001
1.40001
1.40001
1.40001
1.81359
4.76637
5.48892
5.45326
5.47009
5.49721
5.52471
5.53585
5.53225
5.52281
5.50971
5.49537
5.48575
5.49046
5.51061
5.53825
5.56061
5.57594
5.58403
5.58502
5.57888
5.56477
5.54199
5.51334
5.48724
5.47176
5.46551
5.45962
5.44552
5.42042
5.39091
5.36231
5.31917
5.22676
5.0641
4.86546
4.71532
4.65506
1.40001
1.40001
1.40001
1.40001
1.40001
1.40001
1.40001
1.40001
1.40001
1.40001
1.40001
1.40001
1.40001
1.40001
1.40001
1.40001
1.40001
1.40001
1.40001
1.40001
1.40001
1.40001
1.40001
1.40001
1.40001
1.40001
1.40001
1.40001
1.40001
1.40001
1.40001
1.40001
1.40001
1.40001
1.40001
1.40001
1.40001
1.40001
1.40001
1.40001
1.40001
1.40001
1.40001
1.40001
1.40001
1.40001
1.40001
1.40001
1.40001
1.40001
1.40001
1.40001
1.40001
1.40001
1.40001
1.40001
1.40001
1.40001
1.47684
4.30282
5.41752
5.41718
5.44011
5.47348
5.50214
5.51305
5.51021
5.49886
5.49065
5.48167
5.47523
5.48107
5.50043
5.52622
5.54475
5.5551
5.55884
5.55702
5.55042
5.537
5.51474
5.48549
5.45748
5.43922
5.42916
5.41941
5.40071
5.37157
5.33966
5.31072
5.26946
5.1793
5.01471
4.80749
4.64472
4.57915
1.40001
1.40001
1.40001
1.40001
1.40001
1.40001
1.40001
1.40001
1.40001
1.40001
1.40001
1.40001
1.40001
1.40001
1.40001
1.40001
1.40001
1.40001
1.40001
1.40001
1.40001
1.40001
1.40001
1.40001
1.40001
1.40001
1.40001
1.40001
1.40001
1.40001
1.40001
1.40001
1.40001
1.40001
1.40001
1.40001
1.40001
1.40001
1.40001
1.40001
1.40001
1.40001
1.40001
1.40001
1.40001
1.40001
1.40001
1.40001
1.40001
1.40001
1.40001
1.40001
1.40001
1.40001
1.40001
1.40001
1.40001
1.40001
1.40151
3.66891
5.27294
5.38746
5.41711
5.45503
5.4842
5.4954
5.49531
5.48416
5.47429
5.46898
5.46267
5.47159
5.49124
5.51479
5.52906
5.53299
5.53068
5.5258
5.51927
5.50758
5.4868
5.4576
5.42741
5.40498
5.38992
5.37513
5.35213
5.31983
5.28513
5.25296
5.21008
5.12162
4.95624
4.73796
4.55396
4.46405
1.40001
1.40001
1.40001
1.40001
1.40001
1.40001
1.40001
1.40001
1.40001
1.40001
1.40001
1.40001
1.40001
1.40001
1.40001
1.40001
1.40001
1.40001
1.40001
1.40001
1.40001
1.40001
1.40001
1.40001
1.40001
1.40001
1.40001
1.40001
1.40001
1.40001
1.40001
1.40001
1.40001
1.40001
1.40001
1.40001
1.40001
1.40001
1.40001
1.40001
1.40001
1.40001
1.40001
1.40001
1.40001
1.40001
1.40001
1.40001
1.40001
1.40001
1.40001
1.40001
1.40001
1.40001
1.40001
1.40001
1.40001
1.40001
1.40001
3.00228
5.11369
5.37168
5.39934
5.43923
5.47214
5.48809
5.49105
5.48197
5.46916
5.46303
5.45591
5.46482
5.48033
5.49724
5.50633
5.50631
5.50073
5.49389
5.48733
5.47706
5.45832
5.43018
5.39756
5.36928
5.34709
5.32591
5.29951
5.26573
5.22802
5.1898
5.14049
5.04744
4.87076
4.62616
4.40973
4.3018
1.40001
1.40001
1.40001
1.40001
1.40001
1.40001
1.40001
1.40001
1.40001
1.40001
1.40001
1.40001
1.40001
1.40001
1.40001
1.40001
1.40001
1.40001
1.40001
1.40001
1.40001
1.40001
1.40001
1.40001
1.40001
1.40001
1.40001
1.40001
1.40001
1.40001
1.40001
1.40001
1.40001
1.40001
1.40001
1.40001
1.40001
1.40001
1.40001
1.40001
1.40001
1.40001
1.40001
1.40001
1.40001
1.40001
1.40001
1.40001
1.40001
1.40001
1.40001
1.40001
1.40001
1.40001
1.40001
1.40001
1.40001
1.40001
1.40001
2.3268
4.9912
5.41005
5.39802
5.42837
5.46546
5.49007
5.49815
5.4922
5.48175
5.46864
5.45337
5.45066
5.4567
5.46795
5.47549
5.47504
5.46935
5.46183
5.45513
5.44607
5.42969
5.403
5.36789
5.3324
5.30085
5.27212
5.24275
5.20897
5.16801
5.12039
5.05826
4.95484
4.77102
4.50442
4.23528
4.0952
1.40001
1.40001
1.40001
1.40001
1.40001
1.40001
1.40001
1.40001
1.40001
1.40001
1.40001
1.40001
1.40001
1.40001
1.40001
1.40001
1.40001
1.40001
1.40001
1.40001
1.40001
1.40001
1.40001
1.40001
1.40001
1.40001
1.40001
1.40001
1.40001
1.40001
1.40001
1.40001
1.40001
1.40001
1.40001
1.40001
1.40001
1.40001
1.40001
1.40001
1.40001
1.40001
1.40001
1.40001
1.40001
1.40001
1.40001
1.40001
1.40001
1.40001
1.40001
1.40001
1.40001
1.40001
1.40001
1.40001
1.40001
1.40001
1.40001
1.72778
4.68227
5.46458
5.42315
5.43408
5.46075
5.4816
5.48772
5.48131
5.47479
5.465
5.44712
5.43758
5.43536
5.43909
5.44322
5.44224
5.4374
5.42999
5.42283
5.41366
5.39885
5.3739
5.33729
5.29463
5.25253
5.21529
5.18318
5.14908
5.10472
5.04502
4.96567
4.84864
4.6462
4.33099
3.85115
2.96932
1.40001
1.40001
1.40001
1.40001
1.40001
1.40001
1.40001
1.40001
1.40001
1.40001
1.40001
1.40001
1.40001
1.40001
1.40001
1.40001
1.40001
1.40001
1.40001
1.40001
1.40001
1.40001
1.40001
1.40001
1.40001
1.40001
1.40001
1.40001
1.40001
1.40001
1.40001
1.40001
1.40001
1.40001
1.40001
1.40001
1.40001
1.40001
1.40001
1.40001
1.40001
1.40001
1.40001
1.40001
1.40001
1.40001
1.40001
1.40001
1.40001
1.40001
1.40001
1.40001
1.40001
1.40001
1.40001
1.40001
1.40001
1.40001
1.40001
1.42185
4.06487
5.3378
5.38009
5.41721
5.44741
5.4643
5.47163
5.46946
5.46678
5.45704
5.43661
5.42035
5.41086
5.40929
5.41094
5.41033
5.40686
5.39915
5.38896
5.37791
5.36469
5.34188
5.30462
5.25627
5.20469
5.15906
5.12268
5.08591
5.03655
4.96608
4.86639
4.72371
4.48794
4.13691
3.59152
2.63361
1.40001
1.40001
1.40001
1.40001
1.40001
1.40001
1.40001
1.40001
1.40001
1.40001
1.40001
1.40001
1.40001
1.40001
1.40001
1.40001
1.40001
1.40001
1.40001
1.40001
1.40001
1.40001
1.40001
1.40001
1.40001
1.40001
1.40001
1.40001
1.40001
1.40001
1.40001
1.40001
1.40001
1.40001
1.40001
1.40001
1.40001
1.40001
1.40001
1.40001
1.40001
1.40001
1.40001
1.40001
1.40001
1.40001
1.40001
1.40001
1.40001
1.40001
1.40001
1.40001
1.40001
1.40001
1.40001
1.40001
1.40001
1.40001
1.40001
1.40014
3.29587
5.18323
5.35452
5.38613
5.41834
5.43717
5.44723
5.44924
5.44979
5.44152
5.42047
5.3996
5.38474
5.37974
5.38007
5.38072
5.37827
5.3693
5.35537
5.34167
5.32778
5.30545
5.26851
5.2177
5.15996
5.10681
5.06297
5.0202
4.96335
4.88274
4.76389
4.60281
4.34936
3.9966
3.39423
2.56614
1.40001
1.40001
1.40001
1.40001
1.40001
1.40001
1.40001
1.40001
1.40001
1.40001
1.40001
1.40001
1.40001
1.40001
1.40001
1.40001
1.40001
1.40001
1.40001
1.40001
1.40001
1.40001
1.40001
1.40001
1.40001
1.40001
1.40001
1.40001
1.40001
1.40001
1.40001
1.40001
1.40001
1.40001
1.40001
1.40001
1.40001
1.40001
1.40001
1.40001
1.40001
1.40001
1.40001
1.40001
1.40001
1.40001
1.40001
1.40001
1.40001
1.40001
1.40001
1.40001
1.40001
1.40001
1.40001
1.40001
1.40001
1.40001
1.40001
1.40001
2.52778
5.0108
5.36763
5.36883
5.39179
5.41184
5.42294
5.42726
5.42891
5.422
5.40106
5.37479
5.35544
5.34865
5.34884
5.35073
5.34992
5.34142
5.32483
5.30683
5.28921
5.26544
5.22907
5.17843
5.11867
5.05991
5.00649
4.95416
4.88746
4.79638
4.66439
4.48748
4.23782
3.86073
3.30136
2.61906
1.40001
1.40001
1.40001
1.40001
1.40001
1.40001
1.40001
1.40001
1.40001
1.40001
1.40001
1.40001
1.40001
1.40001
1.40001
1.40001
1.40001
1.40001
1.40001
1.40001
1.40001
1.40001
1.40001
1.40001
1.40001
1.40001
1.40001
1.40001
1.40001
1.40001
1.40001
1.40001
1.40001
1.40001
1.40001
1.40001
1.40001
1.40001
1.40001
1.40001
1.40001
1.40001
1.40001
1.40001
1.40001
1.40001
1.40001
1.40001
1.40001
1.40001
1.40001
1.40001
1.40001
1.40001
1.40001
1.40001
1.40001
1.40001
1.40001
1.40001
1.81628
4.74838
5.41958
5.37585
5.37831
5.39242
5.40601
5.41126
5.41204
5.40553
5.38463
5.35311
5.32917
5.31907
5.3179
5.31993
5.32063
5.31316
5.29532
5.27416
5.25189
5.22432
5.18711
5.138
5.07938
5.01706
4.95399
4.88947
4.81147
4.70888
4.56902
4.37991
4.13478
3.76646
3.28438
2.71927
1.40001
1.40001
1.40001
1.40001
1.40001
1.40001
1.40001
1.40001
1.40001
1.40001
1.40001
1.40001
1.40001
1.40001
1.40001
1.40001
1.40001
1.40001
1.40001
1.40001
1.40001
1.40001
1.40001
1.40001
1.40001
1.40001
1.40001
1.40001
1.40001
1.40001
1.40001
1.40001
1.40001
1.40001
1.40001
1.40001
1.40001
1.40001
1.40001
1.40001
1.40001
1.40001
1.40001
1.40001
1.40001
1.40001
1.40001
1.40001
1.40001
1.40001
1.40001
1.40001
1.40001
1.40001
1.40001
1.40001
1.40001
1.40001
1.40001
1.40001
1.43421
4.12164
5.29446
5.31912
5.3463
5.37246
5.39043
5.39797
5.3992
5.39443
5.37595
5.34316
5.31447
5.29613
5.28952
5.28827
5.28793
5.28141
5.26496
5.24251
5.21626
5.18422
5.14496
5.09735
5.0405
4.97589
4.90456
4.82719
4.7374
4.6246
4.47975
4.2896
4.04855
3.70914
3.30131
2.82454
1.40001
1.40001
1.40001
1.40001
1.40001
1.40001
1.40001
1.40001
1.40001
1.40001
1.40001
1.40001
1.40001
1.40001
1.40001
1.40001
1.40001
1.40001
1.40001
1.40001
1.40001
1.40001
1.40001
1.40001
1.40001
1.40001
1.40001
1.40001
1.40001
1.40001
1.40001
1.40001
1.40001