/*--------------------------------*- C++ -*----------------------------------*\
  =========                 |
  \\      /  F ield         | OpenFOAM: The Open Source CFD Toolbox
   \\    /   O peration     | Website:  https://openfoam.org
    \\  /    A nd           | Version:  7
     \\/     M anipulation  |
\*---------------------------------------------------------------------------*/
FoamFile
{
    version     2.0;
    format      ascii;
    class       volScalarField;
    location    "0.8";
    object      T;
}
// * * * * * * * * * * * * * * * * * * * * * * * * * * * * * * * * * * * * * //

dimensions      [0 0 0 1 0 0 0];

internalField   nonuniform List<scalar> 
64512
(
1
1
1
1
1
1
1
1
1
1
1
1
1
1
1
1
1
1
1
1
1
1
1
1
1
1
1
1
1
1
1
1
1
1
1
1
1
1
1
1
1
1
1
1
1
1
1
1
1
1
1
1
1
1
1
1
2.07004
2.80508
2.80258
2.7896
2.78667
2.79225
2.80841
2.82601
2.83534
2.8334
2.82652
2.82129
2.82194
2.82783
2.83837
2.84888
2.85697
2.86332
2.86929
2.87481
2.87907
2.8808
2.88012
2.88036
2.88192
2.88664
2.89393
2.90271
2.91265
2.92273
2.93251
2.94355
2.95838
2.98332
3.02914
3.10585
3.20973
3.31328
3.38043
3.40054
1
1
1
1
1
1
1
1
1
1
1
1
1
1
1
1
1
1
1
1
1
1
1
1
1
1
1
1
1
1
1
1
1
1
1
1
1
1
1
1
1
1
1
1
1
1
1
1
1
1
1
1
1
1
1
1
2.06459
2.80294
2.80192
2.78965
2.78704
2.79243
2.80851
2.82587
2.83512
2.83317
2.82641
2.82131
2.82193
2.82781
2.83825
2.84872
2.85684
2.86327
2.86935
2.87495
2.87916
2.88074
2.88002
2.88017
2.8817
2.88645
2.89375
2.90256
2.91251
2.9226
2.9324
2.94349
2.95844
2.9836
3.02973
3.10668
3.21053
3.31377
3.38055
3.40058
1
1
1
1
1
1
1
1
1
1
1
1
1
1
1
1
1
1
1
1
1
1
1
1
1
1
1
1
1
1
1
1
1
1
1
1
1
1
1
1
1
1
1
1
1
1
1
1
1
1
1
1
1
1
1
1
2.05402
2.80241
2.80039
2.78848
2.78661
2.79229
2.80868
2.82586
2.83489
2.83284
2.82616
2.82121
2.82179
2.82771
2.83806
2.84851
2.85666
2.86321
2.86944
2.87517
2.87929
2.88066
2.87985
2.87986
2.88132
2.88608
2.89344
2.90233
2.91235
2.92249
2.93235
2.94354
2.9588
2.98462
3.03173
3.10955
3.21347
3.31584
3.3815
3.40109
1
1
1
1
1
1
1
1
1
1
1
1
1
1
1
1
1
1
1
1
1
1
1
1
1
1
1
1
1
1
1
1
1
1
1
1
1
1
1
1
1
1
1
1
1
1
1
1
1
1
1
1
1
1
1
1
2.03273
2.79971
2.79782
2.78646
2.78551
2.7919
2.80908
2.82595
2.83452
2.83234
2.82574
2.82091
2.82143
2.82736
2.83766
2.84816
2.85643
2.86315
2.86958
2.87546
2.87945
2.88049
2.87958
2.87937
2.88075
2.8855
2.89294
2.90192
2.91201
2.92223
2.93215
2.94351
2.95924
2.98617
3.03496
3.11436
3.21862
3.31973
3.38364
3.4025
1
1
1
1
1
1
1
1
1
1
1
1
1
1
1
1
1
1
1
1
1
1
1
1
1
1
1
1
1
1
1
1
1
1
1
1
1
1
1
1
1
1
1
1
1
1
1
1
1
1
1
1
1
1
1
1
2.0024
2.79582
2.7942
2.78351
2.78344
2.79107
2.80937
2.82585
2.83385
2.83154
2.82506
2.82031
2.82079
2.82674
2.83705
2.8477
2.85615
2.86309
2.86973
2.87573
2.87957
2.88024
2.87916
2.87872
2.87999
2.88472
2.89223
2.90129
2.91145
2.92171
2.93169
2.94321
2.95941
2.98756
3.03843
3.11993
3.22489
3.32477
3.38672
3.40474
1
1
1
1
1
1
1
1
1
1
1
1
1
1
1
1
1
1
1
1
1
1
1
1
1
1
1
1
1
1
1
1
1
1
1
1
1
1
1
1
1
1
1
1
1
1
1
1
1
1
1
1
1
1
1
1
1.96486
2.79056
2.7893
2.77974
2.7808
2.79028
2.8096
2.8256
2.83295
2.83041
2.82393
2.81925
2.81968
2.82571
2.83618
2.84711
2.85583
2.86303
2.86984
2.8759
2.87957
2.87984
2.87856
2.87786
2.87904
2.88377
2.89135
2.90047
2.91061
2.92084
2.93081
2.94245
2.95907
2.98822
3.04101
3.12469
3.23065
3.32973
3.38999
3.40733
1
1
1
1
1
1
1
1
1
1
1
1
1
1
1
1
1
1
1
1
1
1
1
1
1
1
1
1
1
1
1
1
1
1
1
1
1
1
1
1
1
1
1
1
1
1
1
1
1
1
1
1
1
1
1
1
1.91957
2.78351
2.78317
2.7756
2.77804
2.78944
2.8096
2.82534
2.83174
2.82877
2.82211
2.81761
2.81807
2.82434
2.83515
2.84649
2.8555
2.86294
2.86986
2.87589
2.87938
2.87927
2.8777
2.87678
2.8779
2.88267
2.89036
2.8995
2.90955
2.91961
2.92943
2.94114
2.95813
2.98808
3.04219
3.12759
3.2346
3.33348
3.3927
3.40972
1
1
1
1
1
1
1
1
1
1
1
1
1
1
1
1
1
1
1
1
1
1
1
1
1
1
1
1
1
1
1
1
1
1
1
1
1
1
1
1
1
1
1
1
1
1
1
1
1
1
1
1
1
1
1
1
1.86932
2.77334
2.77616
2.77071
2.77525
2.78891
2.80982
2.82523
2.83004
2.82652
2.81963
2.81545
2.81602
2.8227
2.83406
2.84584
2.85511
2.86273
2.86969
2.87562
2.8789
2.87846
2.8766
2.87548
2.87656
2.88142
2.88929
2.89845
2.90832
2.91805
2.92754
2.93924
2.95655
2.98722
3.04223
3.12862
3.23639
3.33555
3.39443
3.41156
1
1
1
1
1
1
1
1
1
1
1
1
1
1
1
1
1
1
1
1
1
1
1
1
1
1
1
1
1
1
1
1
1
1
1
1
1
1
1
1
1
1
1
1
1
1
1
1
1
1
1
1
1
1
1
1
1.81441
2.75505
2.77043
2.76593
2.77277
2.78898
2.81049
2.82503
2.8278
2.82371
2.81667
2.81286
2.81369
2.8209
2.83299
2.84516
2.85459
2.86228
2.86921
2.87501
2.87812
2.8774
2.87531
2.87396
2.87499
2.87998
2.88809
2.89731
2.90693
2.91619
2.92521
2.93679
2.95431
2.98551
3.0413
3.12835
3.23666
3.33623
3.39521
3.41276
1
1
1
1
1
1
1
1
1
1
1
1
1
1
1
1
1
1
1
1
1
1
1
1
1
1
1
1
1
1
1
1
1
1
1
1
1
1
1
1
1
1
1
1
1
1
1
1
1
1
1
1
1
1
1
1
1.74922
2.72666
2.76418
2.76116
2.7709
2.78988
2.81156
2.82462
2.82509
2.82047
2.81342
2.81005
2.81131
2.81913
2.83201
2.84445
2.85386
2.86145
2.86827
2.87398
2.87699
2.87611
2.87388
2.87232
2.87326
2.87836
2.8867
2.89602
2.90535
2.91405
2.92254
2.93392
2.95152
2.98299
3.03921
3.12693
3.23591
3.33602
3.3953
3.41336
1
1
1
1
1
1
1
1
1
1
1
1
1
1
1
1
1
1
1
1
1
1
1
1
1
1
1
1
1
1
1
1
1
1
1
1
1
1
1
1
1
1
1
1
1
1
1
1
1
1
1
1
1
1
1
1
1.66481
2.68461
2.75565
2.75679
2.77045
2.79165
2.81295
2.82377
2.82265
2.81682
2.80992
2.80726
2.80912
2.81761
2.83118
2.84366
2.85281
2.86012
2.86674
2.87241
2.87546
2.87458
2.87235
2.87062
2.87146
2.87659
2.8851
2.89448
2.90348
2.91156
2.91959
2.93072
2.9483
2.97975
3.03598
3.12404
3.23381
3.33491
3.39485
3.41346
1
1
1
1
1
1
1
1
1
1
1
1
1
1
1
1
1
1
1
1
1
1
1
1
1
1
1
1
1
1
1
1
1
1
1
1
1
1
1
1
1
1
1
1
1
1
1
1
1
1
1
1
1
1
1
1
1.54998
2.62389
2.74575
2.75507
2.77256
2.79452
2.8144
2.82238
2.82011
2.81294
2.80624
2.8047
2.80723
2.8166
2.83056
2.84274
2.85135
2.85822
2.8646
2.87028
2.87348
2.87278
2.8707
2.86891
2.86968
2.87477
2.88332
2.89261
2.90122
2.90869
2.91633
2.92726
2.94476
2.97593
3.03174
3.11971
3.23017
3.33252
3.39359
3.41297
1
1
1
1
1
1
1
1
1
1
1
1
1
1
1
1
1
1
1
1
1
1
1
1
1
1
1
1
1
1
1
1
1
1
1
1
1
1
1
1
1
1
1
1
1
1
1
1
1
1
1
1
1
1
1
1
1.39908
2.53987
2.73923
2.75659
2.77653
2.79883
2.81546
2.82048
2.81698
2.80856
2.8023
2.80248
2.80602
2.81626
2.83013
2.84155
2.8494
2.85574
2.8619
2.86762
2.87105
2.87069
2.86882
2.8671
2.86789
2.87294
2.88137
2.89042
2.89853
2.90539
2.91273
2.92353
2.94093
2.97161
3.02662
3.11408
3.22503
3.32878
3.39134
3.41165
1
1
1
1
1
1
1
1
1
1
1
1
1
1
1
1
1
1
1
1
1
1
1
1
1
1
1
1
1
1
1
1
1
1
1
1
1
1
1
1
1
1
1
1
1
1
1
1
1
1
1
1
1
1
1
1
1.21961
2.43754
2.7358
2.76174
2.78218
2.80356
2.81572
2.81679
2.81186
2.8035
2.79875
2.80057
2.80576
2.81639
2.82967
2.83991
2.84686
2.85272
2.85873
2.86454
2.86827
2.86834
2.86665
2.86511
2.86601
2.87102
2.87927
2.88796
2.8955
2.90173
2.90881
2.91952
2.93679
2.96685
3.02074
3.10728
3.21847
3.32373
3.38807
3.40944
1
1
1
1
1
1
1
1
1
1
1
1
1
1
1
1
1
1
1
1
1
1
1
1
1
1
1
1
1
1
1
1
1
1
1
1
1
1
1
1
1
1
1
1
1
1
1
1
1
1
1
1
1
1
1
1
1.03058
2.32804
2.74133
2.76912
2.78678
2.80433
2.81191
2.81055
2.80484
2.79814
2.79643
2.79946
2.80657
2.81682
2.82886
2.83766
2.84367
2.84914
2.85515
2.86114
2.8652
2.86578
2.86428
2.86296
2.86396
2.86887
2.87688
2.88519
2.89215
2.89776
2.90458
2.91518
2.93229
2.96161
3.01414
3.09944
3.21068
3.31753
3.38393
3.40652
1
1
1
1
1
1
1
1
1
1
1
1
1
1
1
1
1
1
1
1
1
1
1
1
1
1
1
1
1
1
1
1
1
1
1
1
1
1
1
1
1
1
1
1
1
1
1
1
1
1
1
1
1
1
1
1
1.0002
2.22716
2.74756
2.7752
2.78809
2.80024
2.8039
2.80174
2.797
2.7934
2.79521
2.7998
2.80837
2.81726
2.8273
2.83463
2.83984
2.84507
2.85124
2.85752
2.86199
2.8631
2.86186
2.86072
2.86168
2.86631
2.87399
2.88192
2.88843
2.89356
2.90018
2.91064
2.92747
2.95592
3.00689
3.09067
3.20176
3.31027
3.37899
3.40291
1
1
1
1
1
1
1
1
1
1
1
1
1
1
1
1
1
1
1
1
1
1
1
1
1
1
1
1
1
1
1
1
1
1
1
1
1
1
1
1
1
1
1
1
1
1
1
1
1
1
1
1
1
1
1
1
1
2.12261
2.753
2.77682
2.78279
2.79074
2.79291
2.79121
2.78926
2.7902
2.7955
2.80195
2.8104
2.81725
2.82474
2.83069
2.8353
2.84055
2.84707
2.85375
2.85865
2.86034
2.85944
2.85843
2.85925
2.86335
2.87054
2.87805
2.88425
2.88914
2.89563
2.90592
2.92235
2.94975
2.99894
3.08095
3.19175
3.30203
3.37331
3.39869
1
1
1
1
1
1
1
1
1
1
1
1
1
1
1
1
1
1
1
1
1
1
1
1
1
1
1
1
1
1
1
1
1
1
1
1
1
1
1
1
1
1
1
1
1
1
1
1
1
1
1
1
1
1
1
1
1
2.00714
2.7504
2.77284
2.77306
2.77862
2.7809
2.78108
2.7832
2.7894
2.79696
2.80516
2.81158
2.81614
2.82101
2.82581
2.83014
2.8357
2.84278
2.84993
2.85519
2.85743
2.85694
2.85605
2.85673
2.86022
2.86661
2.87347
2.87939
2.88432
2.89084
2.90103
2.917
2.94322
2.9904
3.07036
3.18071
3.29279
3.36683
3.39375
1
1
1
1
1
1
1
1
1
1
1
1
1
1
1
1
1
1
1
1
1
1
1
1
1
1
1
1
1
1
1
1
1
1
1
1
1
1
1
1
1
1
1
1
1
1
1
1
1
1
1
1
1
1
1
1
1
1.87563
2.73033
2.76404
2.76133
2.76617
2.76948
2.7733
2.78043
2.79047
2.79932
2.80721
2.81105
2.81336
2.81619
2.82
2.82461
2.83076
2.83852
2.84612
2.85161
2.85425
2.85424
2.85337
2.854
2.85697
2.86232
2.86828
2.87387
2.87901
2.88567
2.89583
2.91134
2.93632
2.98133
3.05902
3.1687
3.28256
3.35948
3.38798
1
1
1
1
1
1
1
1
1
1
1
1
1
1
1
1
1
1
1
1
1
1
1
1
1
1
1
1
1
1
1
1
1
1
1
1
1
1
1
1
1
1
1
1
1
1
1
1
1
1
1
1
1
1
1
1
1
1.71781
2.68288
2.75227
2.7487
2.7548
2.76143
2.76981
2.78093
2.79306
2.80169
2.80702
2.80807
2.8085
2.81016
2.81366
2.8191
2.82613
2.83451
2.84232
2.84783
2.85064
2.85109
2.85027
2.85083
2.85349
2.85781
2.86273
2.86787
2.87318
2.88002
2.89013
2.90521
2.92901
2.97187
3.04714
3.15593
3.27138
3.35109
3.38109
1
1
1
1
1
1
1
1
1
1
1
1
1
1
1
1
1
1
1
1
1
1
1
1
1
1
1
1
1
1
1
1
1
1
1
1
1
1
1
1
1
1
1
1
1
1
1
1
1
1
1
1
1
1
1
1
1
1.52289
2.60279
2.74167
2.73988
2.74828
2.75746
2.76994
2.7835
2.79515
2.80168
2.80381
2.80283
2.8016
2.80313
2.80729
2.81402
2.8222
2.8309
2.83843
2.84364
2.84651
2.84744
2.84678
2.84721
2.84953
2.85306
2.857
2.8616
2.86694
2.87387
2.88369
2.89825
2.92097
2.96186
3.0348
3.14255
3.25933
3.34164
3.37295
1
1
1
1
1
1
1
1
1
1
1
1
1
1
1
1
1
1
1
1
1
1
1
1
1
1
1
1
1
1
1
1
1
1
1
1
1
1
1
1
1
1
1
1
1
1
1
1
1
1
1
1
1
1
1
1
1
1.31384
2.50056
2.7337
2.73755
2.74805
2.75948
2.77292
2.78598
2.79506
2.79866
2.7977
2.79536
2.79354
2.79527
2.80106
2.80973
2.81918
2.82773
2.83436
2.83883
2.8417
2.84321
2.84288
2.84317
2.84496
2.84783
2.85106
2.85511
2.86048
2.86732
2.87658
2.89039
2.91209
2.95123
3.02203
3.12867
3.24645
3.33092
3.36315
1
1
1
1
1
1
1
1
1
1
1
1
1
1
1
1
1
1
1
1
1
1
1
1
1
1
1
1
1
1
1
1
1
1
1
1
1
1
1
1
1
1
1
1
1
1
1
1
1
1
1
1
1
1
1
1
1
1.11718
2.39407
2.72997
2.74183
2.75326
2.76389
2.77551
2.78551
2.79127
2.79142
2.7896
2.78654
2.78512
2.78769
2.79539
2.80622
2.81668
2.8246
2.82988
2.83341
2.83627
2.83848
2.83872
2.83881
2.83987
2.84198
2.84465
2.84837
2.85381
2.86037
2.86883
2.88155
2.90205
2.93958
3.00846
3.11408
3.23268
3.31899
3.35179
1
1
1
1
1
1
1
1
1
1
1
1
1
1
1
1
1
1
1
1
1
1
1
1
1
1
1
1
1
1
1
1
1
1
1
1
1
1
1
1
1
1
1
1
1
1
1
1
1
1
1
1
1
1
1
1
1
1.0041
2.28629
2.73579
2.74842
2.75496
2.76411
2.77339
2.78004
2.78259
2.78174
2.78021
2.77801
2.77798
2.78127
2.79022
2.80248
2.81355
2.82086
2.82497
2.82759
2.8304
2.83325
2.83415
2.83407
2.83435
2.83559
2.83766
2.84123
2.84677
2.85298
2.86056
2.87198
2.89109
2.92704
2.99407
3.09855
3.21773
3.3055
3.33844
1
1
1
1
1
1
1
1
1
1
1
1
1
1
1
1
1
1
1
1
1
1
1
1
1
1
1
1
1
1
1
1
1
1
1
1
1
1
1
1
1
1
1
1
1
1
1
1
1
1
1
1
1
1
1
1
1
1.00002
2.14294
2.73479
2.74856
2.75182
2.75895
2.76532
2.76903
2.77083
2.77171
2.77234
2.77135
2.77252
2.77694
2.78582
2.79836
2.80938
2.81613
2.8195
2.82147
2.82426
2.82762
2.82909
2.82894
2.82848
2.82875
2.83011
2.83355
2.83917
2.84503
2.85166
2.86159
2.8791
2.91331
2.97827
3.08138
3.20108
3.29036
3.32342
1
1
1
1
1
1
1
1
1
1
1
1
1
1
1
1
1
1
1
1
1
1
1
1
1
1
1
1
1
1
1
1
1
1
1
1
1
1
1
1
1
1
1
1
1
1
1
1
1
1
1
1
1
1
1
1
1
1
1.93019
2.70275
2.74104
2.74111
2.74651
2.75225
2.75709
2.7612
2.76504
2.76745
2.7675
2.76945
2.77402
2.78168
2.79308
2.80341
2.8098
2.81306
2.81512
2.81819
2.82186
2.82357
2.82334
2.82219
2.82142
2.8223
2.82549
2.83091
2.83629
2.84193
2.85038
2.86637
2.89884
2.96138
3.06247
3.18216
3.27273
3.30575
1
1
1
1
1
1
1
1
1
1
1
1
1
1
1
1
1
1
1
1
1
1
1
1
1
1
1
1
1
1
1
1
1
1
1
1
1
1
1
1
1
1
1
1
1
1
1
1
1
1
1
1
1
1
1
1
1
1
1.64014
2.62027
2.72879
2.72747
2.73418
2.74099
2.74761
2.7545
2.76056
2.76505
2.76695
2.76911
2.77224
2.7776
2.78662
2.79561
2.80152
2.80514
2.80827
2.8121
2.81582
2.81785
2.81736
2.81551
2.81375
2.81424
2.81707
2.82199
2.82668
2.83119
2.83817
2.85261
2.88299
2.94232
3.04055
3.16005
3.25231
3.28585
1
1
1
1
1
1
1
1
1
1
1
1
1
1
1
1
1
1
1
1
1
1
1
1
1
1
1
1
1
1
1
1
1
1
1
1
1
1
1
1
1
1
1
1
1
1
1
1
1
1
1
1
1
1
1
1
1
1
1.31577
2.49518
2.72499
2.72168
2.72534
2.73115
2.74016
2.75061
2.75923
2.7644
2.76663
2.76814
2.76981
2.77296
2.77954
2.78683
2.79204
2.79617
2.80057
2.8053
2.8094
2.81166
2.81094
2.80844
2.80581
2.80583
2.8083
2.81255
2.81619
2.8194
2.82492
2.83785
2.86598
2.92168
3.01622
3.1345
3.22765
3.26103
1
1
1
1
1
1
1
1
1
1
1
1
1
1
1
1
1
1
1
1
1
1
1
1
1
1
1
1
1
1
1
1
1
1
1
1
1
1
1
1
1
1
1
1
1
1
1
1
1
1
1
1
1
1
1
1
1
1
1.06399
2.37953
2.71902
2.71911
2.72266
2.72975
2.74001
2.75066
2.75882
2.76299
2.76525
2.76528
2.76544
2.76708
2.77179
2.77785
2.78272
2.78731
2.79244
2.79757
2.80221
2.80469
2.80389
2.80098
2.79763
2.79698
2.79908
2.80246
2.80486
2.80672
2.81084
2.82195
2.84692
2.8974
2.98631
3.10252
3.19699
3.23191
1
1
1
1
1
1
1
1
1
1
1
1
1
1
1
1
1
1
1
1
1
1
1
1
1
1
1
1
1
1
1
1
1
1
1
1
1
1
1
1
1
1
1
1
1
1
1
1
1
1
1
1
1
1
1
1
1
1
1.00087
2.22541
2.72055
2.72052
2.72214
2.7289
2.73893
2.74888
2.75682
2.75998
2.76097
2.75995
2.75805
2.75956
2.76364
2.76931
2.77428
2.77919
2.78447
2.78955
2.79432
2.79687
2.79607
2.79302
2.78918
2.7877
2.78909
2.7914
2.79268
2.79337
2.79603
2.80472
2.82558
2.87008
2.95263
3.06565
3.15897
3.1897
1
1
1
1
1
1
1
1
1
1
1
1
1
1
1
1
1
1
1
1
1
1
1
1
1
1
1
1
1
1
1
1
1
1
1
1
1
1
1
1
1
1
1
1
1
1
1
1
1
1
1
1
1
1
1
1
1
1
1
1.99244
2.69191
2.71679
2.717
2.72329
2.73275
2.74241
2.75083
2.75431
2.75415
2.75255
2.74965
2.75128
2.75527
2.76076
2.76615
2.77166
2.77688
2.78163
2.78586
2.78812
2.78742
2.78463
2.78059
2.77806
2.77806
2.77908
2.77956
2.77951
2.78074
2.78642
2.80192
2.83814
2.90953
3.01322
3.103
3.13289
1
1
1
1
1
1
1
1
1
1
1
1
1
1
1
1
1
1
1
1
1
1
1
1
1
1
1
1
1
1
1
1
1
1
1
1
1
1
1
1
1
1
1
1
1
1
1
1
1
1
1
1
1
1
1
1
1
1
1
1.64903
2.601
2.70913
2.70568
2.71143
2.72042
2.73143
2.74203
2.7476
2.74823
2.74568
2.74175
2.74212
2.74545
2.75169
2.75843
2.76468
2.76976
2.77362
2.77676
2.77847
2.77803
2.77575
2.77179
2.76814
2.76608
2.76553
2.76542
2.76503
2.76488
2.76696
2.77569
2.8011
2.85906
2.95166
3.03916
3.07954
1
1
1
1
1
1
1
1
1
1
1
1
1
1
1
1
1
1
1
1
1
1
1
1
1
1
1
1
1
1
1
1
1
1
1
1
1
1
1
1
1
1
1
1
1
1
1
1
1
1
1
1
1
1
1
1
1
1
1
1.23854
2.45069
2.70407
2.69986
2.70302
2.71034
2.72038
2.73086
2.73743
2.73991
2.73838
2.7352
2.73573
2.73887
2.7449
2.752
2.7582
2.76272
2.76531
2.76697
2.76784
2.76763
2.76603
2.76244
2.75789
2.75374
2.75124
2.75043
2.74957
2.74784
2.74614
2.74796
2.76149
2.80077
2.86021
2.88479
2.79348
1
1
1
1
1
1
1
1
1
1
1
1
1
1
1
1
1
1
1
1
1
1
1
1
1
1
1
1
1
1
1
1
1
1
1
1
1
1
1
1
1
1
1
1
1
1
1
1
1
1
1
1
1
1
1
1
1
1
1
1.01133
2.30317
2.68704
2.69104
2.69866
2.70778
2.71657
2.7255
2.73191
2.7347
2.73331
2.73035
2.73028
2.73316
2.739
2.74592
2.75175
2.75541
2.75643
2.75629
2.75615
2.75624
2.75534
2.75237
2.74731
2.7415
2.73716
2.73507
2.73318
2.7295
2.7234
2.71785
2.7194
2.73297
2.75571
2.74195
2.59924
1
1
1
1
1
1
1
1
1
1
1
1
1
1
1
1
1
1
1
1
1
1
1
1
1
1
1
1
1
1
1
1
1
1
1
1
1
1
1
1
1
1
1
1
1
1
1
1
1
1
1
1
1
1
1
1
1
1
1
1.00005
2.08245
2.66833
2.68921
2.69539
2.70429
2.71303
2.72137
2.72718
2.72984
2.72873
2.72571
2.72469
2.7271
2.7326
2.7392
2.7446
2.74719
2.7467
2.74526
2.74418
2.74423
2.7437
2.74143
2.73647
2.72974
2.72383
2.71981
2.71609
2.70998
2.70019
2.68692
2.67625
2.66731
2.6656
2.61376
2.45994
1
1
1
1
1
1
1
1
1
1
1
1
1
1
1
1
1
1
1
1
1
1
1
1
1
1
1
1
1
1
1
1
1
1
1
1
1
1
1
1
1
1
1
1
1
1
1
1
1
1
1
1
1
1
1
1
1
1
1
1
1.74332
2.59449
2.6855
2.68905
2.69673
2.70604
2.71514
2.72156
2.72439
2.72353
2.7203
2.71773
2.71922
2.724
2.73036
2.73545
2.73755
2.73662
2.73439
2.73245
2.73208
2.73162
2.72983
2.72532
2.71847
2.7114
2.70506
2.69876
2.68976
2.67658
2.6575
2.63621
2.61378
2.58215
2.51522
2.38493
1
1
1
1
1
1
1
1
1
1
1
1
1
1
1
1
1
1
1
1
1
1
1
1
1
1
1
1
1
1
1
1
1
1
1
1
1
1
1
1
1
1
1
1
1
1
1
1
1
1
1
1
1
1
1
1
1
1
1
1
1.29012
2.45044
2.6819
2.68062
2.6859
2.69569
2.70613
2.71393
2.71761
2.71716
2.714
2.70992
2.71012
2.71346
2.71918
2.7242
2.72661
2.72593
2.7237
2.72152
2.7206
2.71976
2.7179
2.71385
2.7074
2.69948
2.69074
2.68138
2.66937
2.65278
2.62977
2.60022
2.56749
2.51771
2.44574
2.34199
1
1
1
1
1
1
1
1
1
1
1
1
1
1
1
1
1
1
1
1
1
1
1
1
1
1
1
1
1
1
1
1
1
1
1
1
1
1
1
1
1
1
1
1
1
1
1
1
1
1
1
1
1
1
1
1
1
1
1
1
1.01753
2.29943
2.65955
2.66517
2.67388
2.68473
2.69542
2.70395
2.70892
2.7099
2.70743
2.70294
2.70135
2.70305
2.70719
2.71157
2.71438
2.71466
2.71314
2.71135
2.71013
2.70866
2.7063
2.70239
2.69617
2.68745
2.67655
2.66406
2.64914
2.62969
2.604
2.57033
2.52998
2.47234
2.40258
2.31171
1
1
1
1
1
1
1
1
1
1
1
1
1
1
1
1
1
1
1
1
1
1
1
1
1
1
1
1
1
1
1
1
1
1
1
1
1
1
1
1
1
1
1
1
1
1
1
1
1
1
1
1
1
1
1
1
1
1
1
1
1.00008
2.05034
2.63485
2.66091
2.66708
2.67556
2.68453
2.69229
2.69798
2.70082
2.6996
2.6961
2.69357
2.69381
2.69607
2.69923
2.70187
2.70318
2.70255
2.70165
2.70045
2.69844
2.6955
2.69137
2.68481
2.67508
2.66222
2.64693
2.62933
2.60781
2.58056
2.54541
2.50102
2.44191
2.37598
2.29323
1
1
1
1
1
1
1
1
1
1
1
1
1
1
1
1
1
1
1
1
1
1
1
1
1
1
1
1
1
1
1
1
1
1
1
1
1
1
1
1
1
1
1
1
1
1
1
1
1
1
1
1
1
1
1
1
1
1
1
1
1
1.65536
2.55174
2.66124
2.65991
2.66513
2.67269
2.67957
2.68548
2.68999
2.69115
2.6892
2.68677
2.68571
2.6866
2.68825
2.69018
2.69203
2.69257
2.69215
2.69091
2.68858
2.68525
2.68064
2.67333
2.66238
2.6478
2.63028
2.61042
2.58732
2.5595
2.52475
2.47879
2.42225
2.36054
2.28304
1
1
1
1
1
1
1
1
1
1
1
1
1
1
1
1
1
1
1
1
1
1
1
1
1
1
1
1
1
1
1
1
1
1
1
1
1
1
1
1
1
1
1
1
1
1
1
1
1
1
1
1
1
1
1
1
1
1
1
1
1
1.16582
2.39591
2.66026
2.6554
2.65732
2.66276
2.66775
2.67271
2.67795
2.68172
2.68172
2.68055
2.67915
2.6786
2.6791
2.67997
2.68163
2.68306
2.68271
2.68116
2.67851
2.67494
2.66982
2.66165
2.64948
2.63352
2.61456
2.59309
2.56882
2.54079
2.50709
2.46247
2.41057
2.35159
2.28162
1
1
1
1
1
1
1
1
1
1
1
1
1
1
1
1
1
1
1
1
1
1
1
1
1
1
1
1
1
1
1
1
1
1
1
1
1
1
1
1
1
1
1
1
1
1
1
1
1
1
1
1
1
1
1
1
1
1
1
1
1
1.00515
2.20918
2.63425
2.64257
2.64949
2.65413
2.65813
2.66246
2.66772
2.67282
2.67487
2.6743
2.67289
2.67125
2.67061
2.6707
2.67196
2.67376
2.67326
2.67109
2.66787
2.66391
2.65822
2.64923
2.6361
2.61934
2.59984
2.57765
2.55263
2.5247
2.49169
2.45042
2.4027
2.34604
2.28324
1
1
1
1
1
1
1
1
1
1
1
1
1
1
1
1
1
1
1
1
1
1
1
1
1
1
1
1
1
1
1
1
1
1
1
1
1
1
1
1
1
1
1
1
1
1
1
1
1
1
1
1
1
1
1
1
1
1
1
1
1
1.00001
1.85924
2.5835
2.64009
2.64146
2.64427
2.64799
2.65239
2.65747
2.66308
2.66685
2.66742
2.66638
2.66416
2.66226
2.66168
2.66261
2.66419
2.66346
2.66059
2.65658
2.65202
2.6457
2.6361
2.62246
2.60548
2.58609
2.56424
2.53882
2.5114
2.4786
2.44114
2.39698
2.34395
2.28791
1
1
1
1
1
1
1
1
1
1
1
1
1
1
1
1
1
1
1
1
1
1
1
1
1
1
1
1
1
1
1
1
1
1
1
1
1
1
1
1
1
1
1
1
1
1
1
1
1
1
1
1
1
1
1
1
1
1
1
1
1
1
1.33837
2.44972
2.64033
2.63473
2.63468
2.63789
2.64258
2.64798
2.65371
2.65813
2.65983
2.65894
2.65653
2.65373
2.65256
2.65296
2.65369
2.65273
2.64933
2.64463
2.63941
2.63249
2.62259
2.60885
2.59208
2.57311
2.55196
2.52698
2.50019
2.46774
2.43353
2.39185
2.34336
2.29279
1
1
1
1
1
1
1
1
1
1
1
1
1
1
1
1
1
1
1
1
1
1
1
1
1
1
1
1
1
1
1
1
1
1
1
1
1
1
1
1
1
1
1
1
1
1
1
1
1
1
1
1
1
1
1
1
1
1
1
1
1
1
1.02313
2.27869
2.62347
2.62268
2.62458
2.62788
2.63268
2.63888
2.64477
2.64941
2.65171
2.65097
2.64849
2.64523
2.64295
2.64263
2.64234
2.64095
2.63735
2.6324
2.62667
2.61926
2.60928
2.59586
2.57962
2.56121
2.54049
2.51703
2.4905
2.45932
2.42697
2.38751
2.34413
2.29696
1
1
1
1
1
1
1
1
1
1
1
1
1
1
1
1
1
1
1
1
1
1
1
1
1
1
1
1
1
1
1
1
1
1
1
1
1
1
1
1
1
1
1
1
1
1
1
1
1
1
1
1
1
1
1
1
1
1
1
1
1
1
1.0001
1.93237
2.58024
2.614
2.61581
2.61866
2.62288
2.62891
2.63449
2.63907
2.64151
2.64172
2.63974
2.63647
2.63311
2.63189
2.6303
2.62823
2.62481
2.62011
2.61413
2.60641
2.5965
2.58378
2.5684
2.55068
2.53059
2.50822
2.4817
2.4527
2.42118
2.3834
2.3438
2.29953
1
1
1
1
1
1
1
1
1
1
1
1
1
1
1
1
1
1
1
1
1
1
1
1
1
1
1
1
1
1
1
1
1
1
1
1
1
1
1
1
1
1
1
1
1
1
1
1
1
1
1
1
1
1
1
1
1
1
1
1
1
1
1
1.3913
2.45875
2.61457
2.60787
2.60875
2.61233
2.61816
2.624
2.62854
2.63083
2.63206
2.6305
2.62745
2.62359
2.62066
2.61778
2.615
2.61199
2.60785
2.60191
2.59398
2.58417
2.57235
2.5582
2.54144
2.52232
2.50001
2.47436
2.44737
2.41605
2.38048
2.34304
2.30234
1
1
1
1
1
1
1
1
1
1
1
1
1
1
1
1
1
1
1
1
1
1
1
1
1
1
1
1
1
1
1
1
1
1
1
1
1
1
1
1
1
1
1
1
1
1
1
1
1
1
1
1
1
1
1
1
1
1
1
1
1
1
1
1.03085
2.27901
2.6005
2.59789
2.59903
2.60224
2.60764
2.61358
2.6184
2.62104
2.62281
2.62167
2.61868
2.61451
2.60983
2.60576
2.6021
2.59926
2.5957
2.58999
2.58203
2.57238
2.56132
2.54845
2.533
2.51495
2.49283
2.46873
2.44276
2.41211
2.37877
2.34245
2.30483
1
1
1
1
1
1
1
1
1
1
1
1
1
1
1
1
1
1
1
1
1
1
1
1
1
1
1
1
1
1
1
1
1
1
1
1
1
1
1
1
1
1
1
1
1
1
1
1
1
1
1
1
1
1
1
1
1
1
1
1
1
1
1
1.00018
1.89532
2.55398
2.59161
2.59085
2.59256
2.59629
2.60112
2.60632
2.6101
2.61286
2.61242
2.60995
2.60588
2.60032
2.59473
2.59035
2.58706
2.58364
2.57821
2.57049
2.56114
2.5504
2.53825
2.52411
2.50703
2.48594
2.46358
2.43837
2.40932
2.37773
2.34274
2.30753
1
1
1
1
1
1
1
1
1
1
1
1
1
1
1
1
1
1
1
1
1
1
1
1
1
1
1
1
1
1
1
1
1
1
1
1
1
1
1
1
1
1
1
1
1
1
1
1
1
1
1
1
1
1
1
1
1
1
1
1
1
1
1
1
1.30333
2.41817
2.59033
2.58344
2.5818
2.58452
2.58868
2.59357
2.59818
2.60237
2.60276
2.60102
2.59734
2.59165
2.58507
2.57991
2.57587
2.57221
2.56722
2.56007
2.55138
2.54032
2.52789
2.51449
2.49842
2.4791
2.45828
2.43401
2.40679
2.37705
2.34361
2.31022
1
1
1
1
1
1
1
1
1
1
1
1
1
1
1
1
1
1
1
1
1
1
1
1
1
1
1
1
1
1
1
1
1
1
1
1
1
1
1
1
1
1
1
1
1
1
1
1
1
1
1
1
1
1
1
1
1
1
1
1
1
1
1
1
1.01703
2.20341
2.57042
2.56758
2.5692
2.5725
2.57712
2.58182
2.58692
2.59191
2.59274
2.59123
2.58788
2.58252
2.57612
2.57005
2.56508
2.56077
2.55627
2.55024
2.54266
2.53122
2.51795
2.50423
2.48874
2.47082
2.45099
2.42816
2.40328
2.37576
2.34451
2.31322
1
1
1
1
1
1
1
1
1
1
1
1
1
1
1
1
1
1
1
1
1
1
1
1
1
1
1
1
1
1
1
1
1
1
1
1
1
1
1
1
1
1
1
1
1
1
1
1
1
1
1
1
1
1
1
1
1
1
1
1
1
1
1
1
1.00006
1.72718
2.51026
2.56573
2.56123
2.56193
2.56491
2.56909
2.57478
2.58062
2.58213
2.58085
2.57765
2.57257
2.5665
2.56023
2.55413
2.54912
2.54488
2.54021
2.53401
2.52335
2.5097
2.49475
2.47882
2.46165
2.44295
2.42169
2.39895
2.37381
2.34483
2.3152
1
1
1
1
1
1
1
1
1
1
1
1
1
1
1
1
1
1
1
1
1
1
1
1
1
1
1
1
1
1
1
1
1
1
1
1
1
1
1
1
1
1
1
1
1
1
1
1
1
1
1
1
1
1
1
1
1
1
1
1
1
1
1
1
1
1.12223
2.34299
2.56599
2.55638
2.55259
2.55338
2.55737
2.56383
2.57059
2.57256
2.57134
2.56803
2.56291
2.55673
2.55013
2.5433
2.53786
2.53323
2.529
2.52395
2.51485
2.50196
2.48631
2.46939
2.45237
2.43445
2.41444
2.39357
2.37028
2.34356
2.31537
1
1
1
1
1
1
1
1
1
1
1
1
1
1
1
1
1
1
1
1
1
1
1
1
1
1
1
1
1
1
1
1
1
1
1
1
1
1
1
1
1
1
1
1
1
1
1
1
1
1
1
1
1
1
1
1
1
1
1
1
1
1
1
1
1
1.00274
2.01601
2.52685
2.54453
2.54222
2.54336
2.54758
2.55388
2.56068
2.56309
2.5619
2.55856
2.55333
2.54712
2.54013
2.53295
2.52743
2.52195
2.51687
2.51193
2.50456
2.49341
2.47861
2.46161
2.44443
2.4266
2.40759
2.38782
2.36558
2.34046
2.31385
1
1
1
1
1
1
1
1
1
1
1
1
1
1
1
1
1
1
1
1
1
1
1
1
1
1
1
1
1
1
1
1
1
1
1
1
1
1
1
1
1
1
1
1
1
1
1
1
1
1
1
1
1
1
1
1
1
1
1
1
1
1
1
1
1
1
1.39654
2.41016
2.54323
2.53379
2.53275
2.53616
2.54207
2.54913
2.55314
2.55233
2.54933
2.54411
2.53811
2.53127
2.52427
2.51838
2.51222
2.50572
2.49957
2.49234
2.48276
2.46986
2.45447
2.43796
2.4199
2.40106
2.38162
2.35976
2.33592
2.31147
1
1
1
1
1
1
1
1
1
1
1
1
1
1
1
1
1
1
1
1
1
1
1
1
1
1
1
1
1
1
1
1
1
1
1
1
1
1
1
1
1
1
1
1
1
1
1
1
1
1
1
1
1
1
1
1
1
1
1
1
1
1
1
1
1
1
1.02941
2.19
2.52066
2.51783
2.51972
2.52384
2.52952
2.53658
2.54194
2.54175
2.53946
2.53474
2.52895
2.52259
2.51617
2.51007
2.50366
2.49615
2.48814
2.47965
2.47041
2.45978
2.44704
2.43212
2.4149
2.3962
2.37627
2.35489
2.33233
2.30965
1
1
1
1
1
1
1
1
1
1
1
1
1
1
1
1
1
1
1
1
1
1
1
1
1
1
1
1
1
1
1
1
1
1
1
1
1
1
1
1
1
1
1
1
1
1
1
1
1
1
1
1
1
1
1
1
1
1
1
1
1
1
1
1
1
1
1.00015
1.65772
2.44759
2.51919
2.51283
2.51331
2.51617
2.52147
2.52693
2.52869
2.52764
2.52448
2.51964
2.51388
2.50835
2.50261
2.49612
2.48805
2.47865
2.46858
2.45842
2.44892
2.43826
2.42514
2.40912
2.39093
2.37132
2.35083
2.32935
2.3081
1
1
1
1
1
1
1
1
1
1
1
1
1
1
1
1
1
1
1
1
1
1
1
1
1
1
1
1
1
1
1
1
1
1
1
1
1
1
1
1
1
1
1
1
1
1
1
1
1
1
1
1
1
1
1
1
1
1
1
1
1
1
1
1
1
1
1
1.09509
2.27081
2.51227
2.50537
2.50181
2.50301
2.50736
2.51306
2.51636
2.51603
2.5139
2.50987
2.50484
2.49982
2.49418
2.48759
2.47953
2.46997
2.45927
2.44829
2.4383
2.42844
2.4166
2.40204
2.38501
2.36662
2.34746
2.32727
2.30711
1
1
1
1
1
1
1
1
1
1
1
1
1
1
1
1
1
1
1
1
1
1
1
1
1
1
1
1
1
1
1
1
1
1
1
1
1
1
1
1
1
1
1
1
1
1
1
1
1
1
1
1
1
1
1
1
1
1
1
1
1
1
1
1
1
1
1
1.00153
1.83894
2.45398
2.50073
2.49482
2.49248
2.49494
2.49991
2.50373
2.50368
2.50207
2.49854
2.49419
2.48957
2.48428
2.47833
2.47095
2.46198
2.45166
2.44037
2.42952
2.41908
2.40736
2.39321
2.37724
2.36076
2.34359
2.32522
2.30617
1
1
1
1
1
1
1
1
1
1
1
1
1
1
1
1
1
1
1
1
1
1
1
1
1
1
1
1
1
1
1
1
1
1
1
1
1
1
1
1
1
1
1
1
1
1
1
1
1
1
1
1
1
1
1
1
1
1
1
1
1
1
1
1
1
1
1
1
1.18258
2.30214
2.49499
2.48885
2.48503
2.48339
2.48566
2.48942
2.49159
2.4907
2.48785
2.48364
2.47888
2.47347
2.46782
2.46144
2.4537
2.44448
2.43384
2.42228
2.41064
2.39795
2.38354
2.36864
2.35432
2.33944
2.32307
2.30521
1
1
1
1
1
1
1
1
1
1
1
1
1
1
1
1
1
1
1
1
1
1
1
1
1
1
1
1
1
1
1
1
1
1
1
1
1
1
1
1
1
1
1
1
1
1
1
1
1
1
1
1
1
1
1
1
1
1
1
1
1
1
1
1
1
1
1
1
1.0059
1.94586
2.44426
2.4762
2.47579
2.4743
2.47359
2.47526
2.47824
2.47844
2.4765
2.47243
2.46738
2.46191
2.45652
2.45115
2.44491
2.4372
2.42762
2.41632
2.40367
2.38953
2.37419
2.35986
2.34711
2.33412
2.31966
2.30327
1
1
1
1
1
1
1
1
1
1
1
1
1
1
1
1
1
1
1
1
1
1
1
1
1
1
1
1
1
1
1
1
1
1
1
1
1
1
1
1
1
1
1
1
1
1
1
1
1
1
1
1
1
1
1
1
1
1
1
1
1
1
1
1
1
1
1
1
1.00001
1.26104
2.30368
2.47584
2.46986
2.46659
2.46381
2.46217
2.46351
2.46528
2.4647
2.4618
2.4567
2.45091
2.44548
2.44054
2.43531
2.42882
2.42042
2.40985
2.39711
2.38218
2.36612
2.35206
2.34002
2.32811
2.31508
2.30006
1
1
1
1
1
1
1
1
1
1
1
1
1
1
1
1
1
1
1
1
1
1
1
1
1
1
1
1
1
1
1
1
1
1
1
1
1
1
1
1
1
1
1
1
1
1
1
1
1
1
1
1
1
1
1
1
1
1
1
1
1
1
1
1
1
1
1
1
1
1.01253
1.9941
2.4331
2.45357
2.45436
2.45313
2.45129
2.45083
2.45163
2.45204
2.45049
2.44625
2.44054
2.43494
2.42992
2.42522
2.41968
2.41232
2.4027
2.39046
2.3757
2.36008
2.34629
2.3342
2.32249
2.30997
2.29576
1
1
1
1
1
1
1
1
1
1
1
1
1
1
1
1
1
1
1
1
1
1
1
1
1
1
1
1
1
1
1
1
1
1
1
1
1
1
1
1
1
1
1
1
1
1
1
1
1
1
1
1
1
1
1
1
1
1
1
1
1
1
1
1
1
1
1
1
1
1.00004
1.31084
2.29905
2.45621
2.44808
2.44436
2.442
2.43942
2.43831
2.43856
2.43809
2.4357
2.43104
2.42547
2.42017
2.41526
2.40991
2.40311
2.39428
2.38295
2.36919
2.35472
2.3415
2.32938
2.31754
2.30508
2.29122
1
1
1
1
1
1
1
1
1
1
1
1
1
1
1
1
1
1
1
1
1
1
1
1
1
1
1
1
1
1
1
1
1
1
1
1
1
1
1
1
1
1
1
1
1
1
1
1
1
1
1
1
1
1
1
1
1
1
1
1
1
1
1
1
1
1
1
1
1
1
1.01809
2.002
2.41538
2.43248
2.43299
2.43166
2.42903
2.42669
2.42597
2.4256
2.42437
2.42121
2.41635
2.411
2.40565
2.39996
2.39332
2.38508
2.37478
2.36255
2.34978
2.33751
2.32556
2.31351
2.30087
2.2871
1
1
1
1
1
1
1
1
1
1
1
1
1
1
1
1
1
1
1
1
1
1
1
1
1
1
1
1
1
1
1
1
1
1
1
1
1
1
1
1
1
1
1
1
1
1
1
1
1
1
1
1
1
1
1
1
1
1
1
1
1
1
1
1
1
1
1
1
1
1
1.00007
1.32639
2.28185
2.43573
2.42852
2.42433
2.42043
2.41652
2.41369
2.41273
2.41207
2.41048
2.40719
2.40226
2.39665
2.39051
2.38369
2.37575
2.3663
2.35557
2.34449
2.33335
2.32184
2.30978
2.29698
2.28323
1
1
1
1
1
1
1
1
1
1
1
1
1
1
1
1
1
1
1
1
1
1
1
1
1
1
1
1
1
1
1
1
1
1
1
1
1
1
1
1
1
1
1
1
1
1
1
1
1
1
1
1
1
1
1
1
1
1
1
1
1
1
1
1
1
1
1
1
1
1
1
1.01986
1.9704
2.39237
2.4142
2.41367
2.41052
2.40627
2.40316
2.40157
2.40074
2.3995
2.39692
2.39278
2.3876
2.3816
2.37462
2.36666
2.35777
2.34825
2.33848
2.32833
2.31736
2.30544
2.29268
2.27923
1
1
1
1
1
1
1
1
1
1
1
1
1
1
1
1
1
1
1
1
1
1
1
1
1
1
1
1
1
1
1
1
1
1
1
1
1
1
1
1
1
1
1
1
1
1
1
1
1
1
1
1
1
1
1
1
1
1
1
1
1
1
1
1
1
1
1
1
1
1
1
1.00009
1.30364
2.25193
2.41418
2.40855
2.40323
2.39794
2.39341
2.39057
2.38891
2.38756
2.38568
2.38253
2.37794
2.37231
2.36572
2.35827
2.35005
2.34122
2.33203
2.32236
2.31179
2.30014
2.28762
2.27465
1
1
1
1
1
1
1
1
1
1
1
1
1
1
1
1
1
1
1
1
1
1
1
1
1
1
1
1
1
1
1
1
1
1
1
1
1
1
1
1
1
1
1
1
1
1
1
1
1
1
1
1
1
1
1
1
1
1
1
1
1
1
1
1
1
1
1
1
1
1
1
1
1.01671
1.8925
2.36049
2.39514
2.39201
2.38834
2.38394
2.38075
2.37905
2.37766
2.3755
2.37214
2.36752
2.36228
2.3567
2.35031
2.3428
2.33427
2.32519
2.31573
2.30545
2.29403
2.28178
2.26941
1
1
1
1
1
1
1
1
1
1
1
1
1
1
1
1
1
1
1
1
1
1
1
1
1
1
1
1
1
1
1
1
1
1
1
1
1
1
1
1
1
1
1
1
1
1
1
1
1
1
1
1
1
1
1
1
1
1
1
1
1
1
1
1
1
1
1
1
1
1
1
1
1.00008
1.24142
2.20562
2.39077
2.3862
2.38148
2.37605
2.37175
2.36924
2.36704
2.36408
2.36047
2.3562
2.35173
2.3471
2.34164
2.33493
2.32703
2.31835
2.3091
2.29889
2.28743
2.27527
2.26347
1
1
1
1
1
1
1
1
1
1
1
1
1
1
1
1
1
1
1
1
1
1
1
1
1
1
1
1
1
1
1
1
1
1
1
1
1
1
1
1
1
1
1
1
1
1
1
1
1
1
1
1
1
1
1
1
1
1
1
1
1
1
1
1
1
1
1
1
1
1
1
1
1
1.00995
1.75689
2.32129
2.37691
2.37081
2.36753
2.364
2.36111
2.35823
2.35485
2.35061
2.34596
2.34142
2.33699
2.33211
2.32617
2.31898
2.31091
2.30218
2.29232
2.28094
2.2689
2.25768
1
1
1
1
1
1
1
1
1
1
1
1
1
1
1
1
1
1
1
1
1
1
1
1
1
1
1
1
1
1
1
1
1
1
1
1
1
1
1
1
1
1
1
1
1
1
1
1
1
1
1
1
1
1
1
1
1
1
1
1
1
1
1
1
1
1
1
1
1
1
1
1
1
1.00004
1.153
2.13626
2.36362
2.36252
2.35961
2.35643
2.35279
2.3486
2.34396
2.33923
2.33485
2.33089
2.32691
2.32234
2.31674
2.31011
2.30281
2.29491
2.28574
2.27478
2.2629
2.25185
1
1
1
1
1
1
1
1
1
1
1
1
1
1
1
1
1
1
1
1
1
1
1
1
1
1
1
1
1
1
1
1
1
1
1
1
1
1
1
1
1
1
1
1
1
1
1
1
1
1
1
1
1
1
1
1
1
1
1
1
1
1
1
1
1
1
1
1
1
1
1
1
1
1
1.00381
1.57164
2.26354
2.35724
2.3521
2.34892
2.34519
2.34093
2.3362
2.3312
2.32621
2.32133
2.31663
2.31184
2.30643
2.30027
2.29361
2.28644
2.27823
2.26849
2.25771
2.24715
1
1
1
1
1
1
1
1
1
1
1
1
1
1
1
1
1
1
1
1
1
1
1
1
1
1
1
1
1
1
1
1
1
1
1
1
1
1
1
1
1
1
1
1
1
1
1
1
1
1
1
1
1
1
1
1
1
1
1
1
1
1
1
1
1
1
1
1
1
1
1
1
1
1
1.00001
1.07481
2.01592
2.32838
2.34157
2.33811
2.33441
2.33043
2.32639
2.3222
2.31769
2.31254
2.30708
2.30185
2.29667
2.29111
2.28489
2.27786
2.27009
2.26156
2.25231
2.24261
1
1
1
1
1
1
1
1
1
1
1
1
1
1
1
1
1
1
1
1
1
1
1
1
1
1
1
1
1
1
1
1
1
1
1
1
1
1
1
1
1
1
1
1
1
1
1
1
1
1
1
1
1
1
1
1
1
1
1
1
1
1
1
1
1
1
1
1
1
1
1
1
1
1
1
1.00103
1.39511
2.19449
2.3367