/*--------------------------------*- C++ -*----------------------------------*\
  =========                 |
  \\      /  F ield         | OpenFOAM: The Open Source CFD Toolbox
   \\    /   O peration     | Website:  https://openfoam.org
    \\  /    A nd           | Version:  7
     \\/     M anipulation  |
\*---------------------------------------------------------------------------*/
FoamFile
{
    version     2.0;
    format      ascii;
    class       volScalarField;
    location    "0.4";
    object      rho;
}
// * * * * * * * * * * * * * * * * * * * * * * * * * * * * * * * * * * * * * //

dimensions      [1 -3 0 0 0 0 0];

internalField   nonuniform List<scalar> 
4032
(
1.40001
1.40001
1.40001
1.40001
1.40001
1.40001
1.40001
1.40001
1.40001
1.40001
1.40001
1.40001
1.40001
1.40001
1.40001
2.34556
5.18998
5.70084
5.60527
5.48852
5.21796
5.00266
4.92513
4.92504
1.40001
1.40001
1.40001
1.40001
1.40001
1.40001
1.40001
1.40001
1.40001
1.40001
1.40001
1.40001
1.40001
1.40001
1.40001
2.28747
5.11422
5.68012
5.59956
5.46781
5.19573
4.98262
4.9055
4.90436
1.40001
1.40001
1.40001
1.40001
1.40001
1.40001
1.40001
1.40001
1.40001
1.40001
1.40001
1.40001
1.40001
1.40001
1.40001
2.15391
4.99915
5.67098
5.57734
5.43837
5.16766
4.96052
4.88413
4.88077
1.40001
1.40001
1.40001
1.40001
1.40001
1.40001
1.40001
1.40001
1.40001
1.40001
1.40001
1.40001
1.40001
1.40001
1.40001
1.94421
4.83189
5.6767
5.55289
5.41231
5.14506
4.94043
4.85758
4.84586
1.40001
1.40001
1.40001
1.40001
1.40001
1.40001
1.40001
1.40001
1.40001
1.40001
1.40001
1.40001
1.40001
1.40001
1.40001
1.67137
4.55526
5.68117
5.5252
5.38052
5.11589
4.90625
4.81571
4.80868
1.40001
1.40001
1.40001
1.40001
1.40001
1.40001
1.40001
1.40001
1.40001
1.40001
1.40001
1.40001
1.40001
1.40001
1.40001
1.42746
4.07942
5.63727
5.47651
5.32921
5.09602
4.88336
4.77988
4.74848
1.40001
1.40001
1.40001
1.40001
1.40001
1.40001
1.40001
1.40001
1.40001
1.40001
1.40001
1.40001
1.40001
1.40001
1.40001
1.40035
3.42661
5.4961
5.41778
5.2871
5.08482
4.84579
4.67831
4.64028
1.40001
1.40001
1.40001
1.40001
1.40001
1.40001
1.40001
1.40001
1.40001
1.40001
1.40001
1.40001
1.40001
1.40001
1.40001
1.40001
2.71236
5.26952
5.37955
5.27477
5.10307
4.85067
4.57945
4.48647
1.40001
1.40001
1.40001
1.40001
1.40001
1.40001
1.40001
1.40001
1.40001
1.40001
1.40001
1.40001
1.40001
1.40001
1.40001
1.40001
1.99822
4.89934
5.37628
5.2548
5.09054
4.79037
4.28987
3.37975
1.40001
1.40001
1.40001
1.40001
1.40001
1.40001
1.40001
1.40001
1.40001
1.40001
1.40001
1.40001
1.40001
1.40001
1.40001
1.40001
1.47464
4.19229
5.31508
5.17736
5.00934
4.65053
4.11674
3.23207
1.40001
1.40001
1.40001
1.40001
1.40001
1.40001
1.40001
1.40001
1.40001
1.40001
1.40001
1.40001
1.40001
1.40001
1.40001
1.40001
1.40105
3.08536
5.15269
5.12355
4.9248
4.54492
4.02645
3.2235
1.40001
1.40001
1.40001
1.40001
1.40001
1.40001
1.40001
1.40001
1.40001
1.40001
1.40001
1.40001
1.40001
1.40001
1.40001
1.40001
1.40001
1.89582
4.74441
5.12827
4.86714
4.4924
3.98427
3.28964
1.40001
1.40001
1.40001
1.40001
1.40001
1.40001
1.40001
1.40001
1.40001
1.40001
1.40001
1.40001
1.40001
1.40001
1.40001
1.40001
1.40001
1.43469
3.55654
4.99802
4.80132
4.4827
4.00886
3.41579
1.40001
1.40001
1.40001
1.40001
1.40001
1.40001
1.40001
1.40001
1.40001
1.40001
1.40001
1.40001
1.40001
1.40001
1.40001
1.40001
1.40001
1.40016
2.02185
4.67568
4.82517
4.50246
4.08229
3.56695
1.40001
1.40001
1.40001
1.40001
1.40001
1.40001
1.40001
1.40001
1.40001
1.40001
1.40001
1.40001
1.40001
1.40001
1.40001
1.40001
1.40001
1.40001
1.44636
3.26875
4.73148
4.5397
4.16243
3.72854
1.40001
1.40001
1.40001
1.40001
1.40001
1.40001
1.40001
1.40001
1.40001
1.40001
1.40001
1.40001
1.40001
1.40001
1.40001
1.40001
1.40001
1.40001
1.40033
1.81158
4.08102
4.61394
4.27842
3.85088
1.40001
1.40001
1.40001
1.40001
1.40001
1.40001
1.40001
1.40001
1.40001
1.40001
1.40001
1.40001
1.40001
1.40001
1.40001
1.40001
1.40001
1.40001
1.40001
1.41725
2.42668
4.3866
4.42695
4.03196
1.40001
1.40001
1.40001
1.40001
1.40001
1.40001
1.40001
1.40001
1.40001
1.40001
1.40001
1.40001
1.40001
1.40001
1.40001
1.40001
1.40001
1.40001
1.40001
1.40009
1.51262
3.04299
4.31468
4.21364
1.40001
1.40001
1.40001
1.40001
1.40001
1.40001
1.40001
1.40001
1.40001
1.40001
1.40001
1.40001
1.40001
1.40001
1.40001
1.40001
1.40001
1.40001
1.40001
1.40001
1.4017
1.71634
3.39503
4.11136
1.40001
1.40001
1.40001
1.40001
1.40001
1.40001
1.40001
1.40001
1.40001
1.40001
1.40001
1.40001
1.40001
1.40001
1.40001
1.40001
1.40001
1.40001
1.40001
1.40001
1.40001
1.41055
1.92488
3.43946
1.40001
1.40001
1.40001
1.40001
1.40001
1.40001
1.40001
1.40001
1.40001
1.40001
1.40001
1.40001
1.40001
1.40001
1.40001
1.40001
1.40001
1.40001
1.40001
1.40001
1.40001
1.40005
1.42778
2.02595
1.40001
1.40001
1.40001
1.40001
1.40001
1.40001
1.40001
1.40001
1.40001
1.40001
1.40001
1.40001
1.40001
1.40001
1.40001
1.40001
1.40001
1.40001
1.40001
1.40001
1.40001
1.40001
1.40022
1.44104
1.40001
1.40001
1.40001
1.40001
1.40001
1.40001
1.40001
1.40001
1.40001
1.40001
1.40001
1.40001
1.40001
1.40001
1.40001
1.40001
1.40001
1.40001
1.40001
1.40001
1.40001
1.40001
1.40001
1.40038
1.40001
1.40001
1.40001
1.40001
1.40001
1.40001
1.40001
1.40001
1.40001
1.40001
1.40001
1.40001
1.40001
1.40001
1.40001
1.40001
1.40001
1.40001
1.40001
1.40001
1.40001
1.40001
1.40001
1.40001
1.40001
1.40001
1.40001
1.40001
1.40001
1.40001
1.40001
1.40001
1.40001
1.40001
1.40001
1.40001
1.40001
1.40001
1.40001
1.40001
1.40001
1.40001
1.40001
1.40001
1.40001
1.40001
1.40001
1.40001
1.40001
1.40001
1.40001
1.40001
1.40001
1.40001
1.40001
1.40001
1.40001
1.40001
1.40001
1.40001
1.40001
1.40001
1.40001
1.40001
1.40001
1.40001
1.40001
1.40001
1.40001
1.40001
1.40001
1.40001
1.40001
1.40001
1.40001
1.40001
1.40001
1.40001
1.40001
1.40001
1.40001
1.40001
1.40001
1.40001
1.40001
1.40001
1.40001
1.40001
1.40001
1.40001
1.40001
1.40001
1.40001
1.40001
1.40001
1.40001
1.40001
1.40001
1.40001
1.40001
1.40001
1.40001
1.40001
1.40001
1.40001
1.40001
1.40001
1.40001
1.40001
1.40001
1.40001
1.40001
1.40001
1.40001
1.40001
1.40001
1.40001
1.40001
1.40001
1.40001
1.40001
1.40001
1.40001
1.40001
1.40001
1.40001
1.40001
1.40001
1.40001
1.40001
1.40001
1.40001
1.40001
1.40001
1.40001
1.40001
1.40001
1.40001
1.40001
1.40001
1.40001
1.40001
1.40001
1.40001
1.40001
1.40001
1.40001
1.40001
1.40001
1.40001
1.40001
1.40001
1.40001
1.40001
1.40001
1.40001
1.40001
1.40001
1.40001
1.40001
1.40001
1.40001
1.40001
1.40001
1.40001
1.40001
1.40001
1.40001
1.40001
1.40001
1.40001
1.40001
1.40001
1.40001
1.40001
1.40001
1.40001
1.40001
1.40001
1.40001
1.40001
1.40001
1.40001
1.40001
1.40001
1.40001
1.40001
1.40001
1.40001
1.40001
1.40001
1.40001
1.40001
1.40001
1.40001
1.40001
1.40001
1.40001
1.40001
1.40001
1.40001
1.40001
1.40001
1.40001
1.40001
1.40001
1.40001
1.40001
1.40001
1.40001
1.40001
1.40001
1.40001
1.40001
1.40001
1.40001
1.40001
1.40001
1.40001
1.40001
1.40001
1.40001
1.40001
1.40001
1.40001
1.40001
1.40001
1.40001
1.40001
1.40001
1.40001
1.40001
1.40001
1.40001
1.40001
1.40001
1.40001
1.40001
1.40001
1.40001
1.40001
1.40001
1.40001
1.40001
1.40001
1.40001
1.40001
1.40001
1.40001
1.40001
1.40001
1.40001
1.40001
1.40001
1.40001
1.40001
1.40001
1.40001
1.40001
1.40001
1.40001
1.40001
1.40001
1.40001
1.40001
1.40001
1.40001
1.40001
1.40001
1.40001
1.40001
1.40001
1.40001
1.40001
1.40001
1.40001
1.40001
1.40001
1.40001
1.40001
1.40001
1.40001
1.40001
1.40001
1.40001
1.40001
1.40001
1.40001
1.40001
1.40001
1.40001
1.40001
1.40001
1.40001
1.40001
1.40001
1.40001
1.40001
1.40001
1.40001
1.40001
1.40001
1.40001
1.40001
1.40001
1.40001
1.40001
1.40001
1.40001
1.40001
1.40001
1.40001
1.40001
1.40001
1.40001
1.40001
1.40001
1.40001
1.40001
1.40001
1.40001
1.40001
1.40001
1.40001
1.40001
1.40001
1.40001
1.40001
1.40001
1.40001
1.40001
1.40001
1.40001
1.40001
1.40001
1.40001
1.40001
1.40001
1.40001
1.40001
1.40001
1.40001
1.40001
1.40001
1.40001
1.40001
1.40001
1.40001
1.40001
1.40001
1.40001
1.40001
1.40001
1.40001
1.40001
1.40001
1.40001
1.40001
1.40001
1.40001
1.40001
1.40001
1.40001
1.40001
1.40001
1.40001
1.40001
1.40001
1.40001
1.40001
1.40001
1.40001
1.40001
1.40001
1.40001
1.40001
1.40001
1.40001
1.40001
1.40001
1.40001
1.40001
1.40001
1.40001
1.40001
1.40001
1.40001
1.40001
1.40001
1.40001
1.40001
1.40001
1.40001
1.40001
1.40001
1.40001
1.40001
1.40001
1.40001
1.40001
1.40001
1.40001
1.40001
1.40001
1.40001
1.40001
1.40001
1.40001
1.0813
0.434337
0.232654
0.184213
0.18615
0.231848
0.323031
0.408984
0.483678
0.545796
0.6411
0.716421
0.718446
0.693452
0.656067
0.645673
0.645311
0.656939
0.663642
0.657311
0.650146
0.638548
0.62211
0.615876
0.618169
0.625057
0.638396
0.667267
0.709668
0.726353
0.728841
0.728478
0.726997
0.732783
0.740529
0.752332
0.776469
0.820824
0.884666
0.958851
1.03457
1.10937
1.19562
1.30143
1.38142
1.3945
1.39088
1.38352
1.37992
1.37802
1.37859
1.39018
1.41961
1.44579
1.45082
1.4507
1.45
1.44843
1.44545
1.43961
1.42781
1.41038
1.40101
1.40002
1.4
1.4
1.4
1.4
1.4
1.4
1.40001
1.40001
1.40001
1.40001
1.40001
1.40001
1.40001
1.40001
1.40001
1.40001
1.40001
1.40001
1.40001
1.40001
1.40001
1.40001
1.40001
1.40001
1.40001
1.40001
1.40001
1.40001
1.40001
1.40001
1.40001
1.40001
1.67881
0.988354
0.738702
0.607825
0.489054
0.460377
0.476857
0.466523
0.46202
0.483534
0.531714
0.609171
0.658176
0.662436
0.66134
0.663169
0.66661
0.672329
0.667226
0.657161
0.653977
0.65011
0.643989
0.643895
0.648114
0.6558
0.666904
0.687942
0.715259
0.724123
0.726392
0.726771
0.73123
0.736974
0.74318
0.755327
0.780423
0.82369
0.88502
0.95535
1.02701
1.1081
1.20695
1.31444
1.37666
1.38433
1.3815
1.37719
1.37521
1.37412
1.37627
1.38947
1.41666
1.44347
1.45079
1.45079
1.45018
1.44878
1.44622
1.44088
1.42783
1.4094
1.40077
1.40001
1.4
1.4
1.4
1.4
1.4
1.40001
1.40001
1.40001
1.40001
1.40001
1.40001
1.40001
1.40001
1.40001
1.40001
1.40001
1.40001
1.40001
1.40001
1.40001
1.40001
1.40001
1.40001
1.40001
1.40001
1.40001
1.40001
1.40001
1.40001
1.40001
1.40001
1.40001
2.17459
1.51073
1.14719
0.954641
0.796897
0.679843
0.634184
0.581531
0.51021
0.500337
0.517246
0.547585
0.620833
0.671444
0.69238
0.712041
0.725832
0.72552
0.72022
0.706829
0.694524
0.687401
0.679735
0.677707
0.68199
0.69326
0.708584
0.730177
0.74682
0.750851
0.751266
0.751806
0.760724
0.772973
0.787363
0.808462
0.841307
0.885879
0.938902
0.99758
1.06235
1.14154
1.24575
1.34858
1.38742
1.38907
1.38486
1.38061
1.37919
1.37888
1.38394
1.39827
1.42168
1.44427
1.45077
1.45103
1.45105
1.45048
1.44789
1.44081
1.42571
1.40724
1.40042
1.40001
1.4
1.4
1.4
1.4
1.4
1.40001
1.40001
1.40001
1.40001
1.40001
1.40001
1.40001
1.40001
1.40001
1.40001
1.40001
1.40001
1.40001
1.40001
1.40001
1.40001
1.40001
1.40001
1.40001
1.40001
1.40001
1.40001
1.40001
1.40001
1.40001
1.40001
1.40001
2.52523
1.94838
1.56516
1.30437
1.08362
0.914335
0.840223
0.78244
0.690506
0.605278
0.599794
0.594331
0.597868
0.627364
0.660244
0.693683
0.723269
0.736227
0.740674
0.737893
0.731266
0.728818
0.726462
0.723538
0.727522
0.745765
0.764414
0.776362
0.781237
0.783661
0.78457
0.791917
0.805125
0.822518
0.843679
0.871977
0.910709
0.954866
1.00017
1.05008
1.1125
1.19921
1.30981
1.37799
1.38698
1.38664
1.38168
1.37847
1.37749
1.37878
1.38731
1.40314
1.42547
1.44631
1.45242
1.45287
1.45307
1.45272
1.45
1.44116
1.42244
1.40452
1.40015
1.40001
1.4
1.4
1.4
1.4
1.4
1.40001
1.40001
1.40001
1.40001
1.40001
1.40001
1.40001
1.40001
1.40001
1.40001
1.40001
1.40001
1.40001
1.40001
1.40001
1.40001
1.40001
1.40001
1.40001
1.40001
1.40001
1.40001
1.40001
1.40001
1.40001
1.40001
1.40001
2.80245
2.28852
1.89279
1.61344
1.37778
1.16806
1.03946
0.946283
0.840507
0.728101
0.695406
0.674183
0.630576
0.628921
0.647686
0.673031
0.703699
0.723875
0.730417
0.729284
0.727826
0.730032
0.737286
0.746758
0.766446
0.801299
0.82052
0.82224
0.820409
0.812817
0.814583
0.823903
0.840925
0.870134
0.90894
0.946798
0.981492
1.01508
1.05086
1.09915
1.18025
1.29624
1.37435
1.38663
1.38777
1.38222
1.37667
1.37639
1.37801
1.3827
1.39106
1.40512
1.42814
1.45008
1.45598
1.45646
1.45662
1.45588
1.4515
1.43895
1.41671
1.40204
1.40003
1.4
1.4
1.4
1.4
1.4
1.4
1.40001
1.40001
1.40001
1.40001
1.40001
1.40001
1.40001
1.40001
1.40001
1.40001
1.40001
1.40001
1.40001
1.40001
1.40001
1.40001
1.40001
1.40001
1.40001
1.40001
1.40001
1.40001
1.40001
1.40001
1.40001
1.40001
1.40001
3.03043
2.55357
2.17985
1.8973
1.63925
1.4007
1.24874
1.14724
1.0319
0.878398
0.820741
0.798481
0.752613
0.701146
0.70185
0.710679
0.70606
0.702642
0.706728
0.714492
0.720069
0.725821
0.734815
0.748886
0.776302
0.80941
0.835118
0.842001
0.841735
0.837697
0.840977
0.855266
0.885078
0.935424
0.998206
1.04703
1.07702
1.10584
1.14584
1.20956
1.30652
1.37348
1.38526
1.38764
1.38218
1.37232
1.37118
1.37152
1.37409
1.3821
1.39305
1.40768
1.43159
1.4547
1.46077
1.46145
1.46173
1.46058
1.45362
1.43425
1.40958
1.40054
1.40001
1.4
1.4
1.4
1.4
1.4
1.40001
1.40001
1.40001
1.40001
1.40001
1.40001
1.40001
1.40001
1.40001
1.40001
1.40001
1.40001
1.40001
1.40001
1.40001
1.40001
1.40001
1.40001
1.40001
1.40001
1.40001
1.40001
1.40001
1.40001
1.40001
1.40001
1.40001
1.40001
3.26901
2.82859
2.41709
2.1254
1.8887
1.65261
1.44994
1.32499
1.20245
1.06052
0.974958
0.929655
0.872175
0.789489
0.763925
0.75668
0.73463
0.715142
0.720623
0.730976
0.730803
0.72826
0.729401
0.743479
0.775017
0.8072
0.826552
0.835936
0.8417
0.850053
0.865751
0.893518
0.935303
0.992085
1.06074
1.12554
1.1734
1.2146
1.26206
1.32276
1.36641
1.37801
1.38193
1.37974
1.36728
1.36262
1.36259
1.36307
1.36766
1.38076
1.39805
1.41651
1.44143
1.46215
1.46655
1.46723
1.46747
1.46525
1.45232
1.42471
1.40355
1.40007
1.4
1.4
1.4
1.4
1.4
1.4
1.40001
1.40001
1.40001
1.40001
1.40001
1.40001
1.40001
1.40001
1.40001
1.40001
1.40001
1.40001
1.40001
1.40001
1.40001
1.40001
1.40001
1.40001
1.40001
1.40001
1.40001
1.40001
1.40001
1.40001
1.40001
1.40001
1.40001
1.40001
3.44981
3.05706
2.66855
2.36102
2.11097
1.85842
1.64812
1.51129
1.37938
1.21823
1.12672
1.07711
1.02086
0.931799
0.874613
0.85667
0.825787
0.7912
0.775091
0.773705
0.763676
0.75026
0.749872
0.756779
0.775814
0.796119
0.806443
0.815923
0.828534
0.848254
0.87995
0.924227
0.972794
1.02275
1.07892
1.13975
1.19329
1.24202
1.28973
1.3385
1.36565
1.37027
1.36983
1.35998
1.35039
1.35003
1.35017
1.35191
1.36019
1.37628
1.3981
1.42734
1.45996
1.47479
1.47659
1.47721
1.47671
1.46886
1.44376
1.41176
1.4006
1.40001
1.4
1.4
1.4
1.4
1.4
1.40001
1.40001
1.40001
1.40001
1.40001
1.40001
1.40001
1.40001
1.40001
1.40001
1.40001
1.40001
1.40001
1.40001
1.40001
1.40001
1.40001
1.40001
1.40001
1.40001
1.40001
1.40001
1.40001
1.40001
1.40001
1.40001
1.40001
1.40001
1.40001
3.61971
3.24859
2.86543
2.54006
2.32671
2.10511
1.8544
1.67028
1.5445
1.41189
1.29862
1.225
1.15467
1.06258
1.01466
0.986102
0.942507
0.889941
0.835287
0.816917
0.805999
0.783814
0.778368
0.785125
0.803342
0.811624
0.815085
0.822301
0.836918
0.860862
0.901969
0.950347
0.993862
1.03036
1.07164
1.12427
1.18018
1.23206
1.28658
1.3139
1.31729
1.31863
1.31755
1.31559
1.31819
1.32367
1.33502
1.35188
1.368
1.38054
1.40163
1.44032
1.47809
1.48791
1.48935
1.48997
1.4867
1.46504
1.42549
1.40251
1.40003
1.4
1.4
1.4
1.4
1.4
1.40001
1.40001
1.40001
1.40001
1.40001
1.40001
1.40001
1.40001
1.40001
1.40001
1.40001
1.40001
1.40001
1.40001
1.40001
1.40001
1.40001
1.40001
1.40001
1.40001
1.40001
1.40001
1.40001
1.40001
1.40001
1.40001
1.40001
1.40001
1.40001
1.40001
3.82697
3.43612
3.08901
2.75462
2.4852
2.27599
2.07576
1.89455
1.72035
1.5558
1.46349
1.39541
1.31756
1.20194
1.14368
1.11599
1.06838
1.00259
0.935796
0.907553
0.90115
0.874542
0.856288
0.86099
0.868519
0.868678
0.869502
0.874028
0.88729
0.912295
0.94693
0.977364
1.00061
1.02486
1.05303
1.08777
1.13067
1.18287
1.21962
1.2307
1.24091
1.2554
1.2712
1.28433
1.29527
1.30691
1.32172
1.34064
1.36588
1.396
1.43243
1.47867
1.504
1.50758
1.50878
1.50756
1.48752
1.44248
1.4063
1.40012
1.4
1.4
1.4
1.4
1.4
1.40001
1.40001
1.40001
1.40001
1.40001
1.40001
1.40001
1.40001
1.40001
1.40001
1.40001
1.40001
1.40001
1.40001
1.40001
1.40001
1.40001
1.40001
1.40001
1.40001
1.40001
1.40001
1.40001
1.40001
1.40001
1.40001
1.40001
1.40001
1.40001
1.40001
1.40001
4.00179
3.66442
3.30191
2.96387
2.69488
2.46283
2.24374
2.08972
1.93989
1.75832
1.60744
1.54019
1.46982
1.36413
1.29787
1.25504
1.19558
1.10945
1.02977
1.00912
1.01093
0.99287
0.95885
0.948979
0.943333
0.939434
0.939844
0.94401
0.956557
0.981024
1.00496
1.01866
1.03199
1.05191
1.07664
1.10538
1.13979
1.16179
1.18162
1.20316
1.22667
1.25107
1.27413
1.29381
1.30833
1.31741
1.32566
1.33985
1.36402
1.40631
1.47081
1.5214
1.53245
1.5345
1.53443
1.51346
1.46078
1.41099
1.40029
1.40001
1.4
1.4
1.4
1.4
1.4
1.40001
1.40001
1.40001
1.40001
1.40001
1.40001
1.40001
1.40001
1.40001
1.40001
1.40001
1.40001
1.40001
1.40001
1.40001
1.40001
1.40001
1.40001
1.40001
1.40001
1.40001
1.40001
1.40001
1.40001
1.40001
1.40001
1.40001
1.40001
1.40001
1.40001
1.40001
3.93315
3.85353
3.57682
3.20899
2.90906
2.65655
2.42315
2.27444
2.14865
1.97672
1.80077
1.70679
1.62651
1.51776
1.44776
1.40115
1.33914
1.24221
1.14968
1.13319
1.1365
1.12148
1.08056
1.05939
1.05263
1.05363
1.06105
1.06442
1.07014
1.08192
1.09009
1.09858
1.11439
1.12573
1.12999
1.13667
1.14821
1.1622
1.1764
1.19428
1.21686
1.24091
1.26375
1.28466
1.30566
1.3291
1.35119
1.37584
1.41214
1.47428
1.54299
1.56655
1.56966
1.56934
1.54311
1.47796
1.41467
1.40041
1.40001
1.4
1.4
1.4
1.4
1.40001
1.40001
1.40001
1.40001
1.40001
1.40001
1.40001
1.40001
1.40001
1.40001
1.40001
1.40001
1.40001
1.40001
1.40001
1.40001
1.40001
1.40001
1.40001
1.40001
1.40001
1.40001
1.40001
1.40001
1.40001
1.40001
1.40001
1.40001
1.40001
1.40001
1.40001
1.40001
1.40001
3.3455
3.78588
3.72666
3.50455
3.19003
2.91001
2.63991
2.43099
2.31831
2.18687
2.00624
1.87511
1.79983
1.70369
1.61595
1.55299
1.48716
1.38737
1.29259
1.28052
1.28363
1.26673
1.21677
1.18065
1.17281
1.17645
1.19057
1.1939
1.18907
1.18659
1.18613
1.19166
1.20276
1.2071
1.20537
1.19713
1.18507
1.18523
1.19159
1.20617
1.22651
1.24862
1.26949
1.28847
1.30765
1.33069
1.3662
1.417
1.48857
1.57138
1.61136
1.61607
1.61287
1.57411
1.48995
1.41563
1.4004
1.40001
1.4
1.4
1.4
1.4
1.40001
1.40001
1.40001
1.40001
1.40001
1.40001
1.40001
1.40001
1.40001
1.40001
1.40001
1.40001
1.40001
1.40001
1.40001
1.40001
1.40001
1.40001
1.40001
1.40001
1.40001
1.40001
1.40001
1.40001
1.40001
1.40001
1.40001
1.40001
1.40001
1.40001
1.40001
1.40001
1.40001
1.40001
2.01512
3.15571
3.69642
3.59229
3.46392
3.24266
2.9456
2.67533
2.49309
2.36135
2.21663
2.05731
1.95511
1.87464
1.79331
1.71872
1.64677
1.55002
1.4657
1.44864
1.44103
1.41905
1.36682
1.31723
1.30955
1.3156
1.32937
1.3257
1.30999
1.29604
1.29448
1.3013
1.31009
1.31184
1.30635
1.29447
1.2829
1.28068
1.28389
1.29484
1.31138
1.32979
1.34802
1.36684
1.38904
1.41975
1.46608
1.53538
1.61822
1.66438
1.67066
1.65817
1.6001
1.49359
1.41359
1.40027
1.40001
1.4
1.4
1.4
1.4
1.40001
1.40001
1.40001
1.40001
1.40001
1.40001
1.40001
1.40001
1.40001
1.40001
1.40001
1.40001
1.40001
1.40001
1.40001
1.40001
1.40001
1.40001
1.40001
1.40001
1.40001
1.40001
1.40001
1.40001
1.40001
1.40001
1.40001
1.40001
1.40001
1.40001
1.40001
1.40001
1.40001
1.40001
1.40001
1.44277
1.89623
2.90724
3.49872
3.54141
3.47374
3.27402
3.00009
2.76393
2.58967
2.44357
2.28218
2.13244
2.02145
1.95109
1.89076
1.82197
1.71037
1.65163
1.63571
1.59873
1.56373
1.51977
1.46194
1.44843
1.45495
1.46403
1.45626
1.42653
1.40614
1.40601
1.41285
1.41363
1.40576
1.38942
1.3719
1.36131
1.35959
1.36082
1.36744
1.38166
1.40141
1.42548
1.45532
1.49395
1.54631
1.61598
1.68843
1.72221
1.72178
1.69207
1.61411
1.48666
1.4097
1.40014
1.4
1.4
1.4
1.4
1.4
1.40001
1.40001
1.40001
1.40001
1.40001
1.40001
1.40001
1.40001
1.40001
1.40001
1.40001
1.40001
1.40001
1.40001
1.40001
1.40001
1.40001
1.40001
1.40001
1.40001
1.40001
1.40001
1.40001
1.40001
1.40001
1.40001
1.40001
1.40001
1.40001
1.40001
1.40001
1.40001
1.40001
1.40001
1.40001
1.40001
1.40044
1.42668
1.74966
2.59033
3.27853
3.45603
3.36332
3.28942
3.15438
2.9576
2.75226
2.55379
2.37436
2.2224
2.1256
2.07591
2.01829
1.8931
1.8219
1.80729
1.77019
1.70705
1.66002
1.61659
1.59458
1.59616
1.59764
1.58038
1.53906
1.52464
1.52626
1.52791
1.52152
1.50696
1.49316
1.48628
1.48504
1.48689
1.49386
1.50576
1.52302
1.54639
1.57693
1.61635
1.66648
1.72294
1.76358
1.77094
1.75633
1.70941
1.60846
1.46822
1.40543
1.40005
1.4
1.4
1.4
1.4
1.40001
1.40001
1.40001
1.40001
1.40001
1.40001
1.40001
1.40001
1.40001
1.40001
1.40001
1.40001
1.40001
1.40001
1.40001
1.40001
1.40001
1.40001
1.40001
1.40001
1.40001
1.40001
1.40001
1.40001
1.40001
1.40001
1.40001
1.40001
1.40001
1.40001
1.40001
1.40001
1.40001
1.40001
1.40001
1.40001
1.40001
1.40001
1.40001
1.4002
1.41504
1.59571
2.19835
2.88394
3.23167
3.30419
3.28724
3.19557
3.05169
2.89025
2.72805
2.55868
2.41318
2.32888
2.25746
2.12735
2.01329
1.9857
1.95821
1.88153
1.80189
1.78031
1.76591
1.75257
1.7386
1.70421
1.66654
1.66033
1.65725
1.65177
1.64051
1.62701
1.62186
1.62159
1.62553
1.6346
1.64867
1.66854
1.69487
1.7272
1.76345
1.79658
1.81659
1.81839
1.80292
1.76908
1.70414
1.5736
1.44151
1.40214
1.40002
1.4
1.4
1.4
1.40001
1.40001
1.40001
1.40001
1.40001
1.40001
1.40001
1.40001
1.40001
1.40001
1.40001
1.40001
1.40001
1.40001
1.40001
1.40001
1.40001
1.40001
1.40001
1.40001
1.40001
1.40001
1.40001
1.40001
1.40001
1.40001
1.40001
1.40001
1.40001
1.40001
1.40001
1.40001
1.40001
1.40001
1.40001
1.40001
1.40001
1.40001
1.40001
1.40001
1.40001
1.40001
1.40009
1.40497
1.4731
1.79145
2.39838
2.92316
3.22843
3.20447
3.11231
3.03206
3.00232
2.92355
2.79845
2.68353
2.58101
2.45216
2.30249
2.22455
2.18803
2.11295
2.00547
1.97749
1.96831
1.948
1.91225
1.85746
1.83465
1.83081
1.82407
1.81299
1.8035
1.80074
1.80297
1.81005
1.82043
1.83366
1.84931
1.86561
1.87905
1.88562
1.88278
1.86731
1.84378
1.81485
1.76387
1.66012
1.51162
1.41736
1.40053
1.40001
1.40001
1.40001
1.40001
1.40001
1.40001
1.40001
1.40001
1.40001
1.40001
1.40001
1.40001
1.40001
1.40001
1.40001
1.40001
1.40001
1.40001
1.40001
1.40001
1.40001
1.40001
1.40001
1.40001
1.40001
1.40001
1.40001
1.40001
1.40001
1.40001
1.40001
1.40001
1.40001
1.40001
1.40001
1.40001
1.40001
1.40001
1.40001
1.40001
1.40001
1.40001
1.40001
1.40001
1.40001
1.40001
1.40001
1.40001
1.40002
1.40084
1.41826
1.54675
1.92902
2.44929
2.87397
2.99418
3.03622
3.02794
3.01026
2.95599
2.88511
2.81648
2.74309
2.65001
2.54745
2.47668
2.41016
2.31267
2.25269
2.23155
2.20335
2.14902
2.08816
2.07113
2.06331
2.05273
2.03895
2.02999
2.02743
2.02581
2.0227
2.01638
2.00506
1.9877
1.96531
1.94079
1.9147
1.88784
1.85515
1.80273
1.71031
1.57211
1.4485
1.40432
1.40007
1.40001
1.40001
1.40001
1.40001
1.40001
1.40001
1.40001
1.40001
1.40001
1.40001
1.40001
1.40001
1.40001
1.40001
1.40001
1.40001
1.40001
1.40001
1.40001
1.40001
1.40001
1.40001
1.40001
1.40001
1.40001
1.40001
1.40001
1.40001
1.40001
1.40001
1.40001
1.40001
1.40001
1.40001
1.40001
1.40001
1.40001
1.40001
1.40001
1.40001
1.40001
1.40001
1.40001
1.40001
1.40001
1.40001
1.40001
1.40001
1.40001
1.40001
1.40001
1.40011
1.40304
1.43445
1.56884
1.8808
2.28614
2.60748
2.82613
2.94721
2.94547
2.90356
2.84599
2.80122
2.75975
2.70177
2.63735
2.59754
2.55059
2.49153
2.45013
2.41691
2.37205
2.32576
2.29431
2.27001
2.24625
2.2211
2.19506
2.16714
2.13735
2.1055
2.07156
2.03635
2.00158
1.96761
1.93055
1.88502
1.82104
1.72536
1.59654
1.47316
1.41195
1.40056
1.40001
1.40001
1.40001
1.40001
1.40001
1.40001
1.40001
1.40001
1.40001
1.40001
1.40001
1.40001
1.40001
1.40001
1.40001
1.40001
1.40001
1.40001
1.40001
1.40001
1.40001
1.40001
1.40001
1.40001
1.40001
1.40001
1.40001
1.40001
1.40001
1.40001
1.40001
1.40001
1.40001
1.40001
1.40001
1.40001
1.40001
1.40001
1.40001
1.40001
1.40001
1.40001
1.40001
1.40001
1.40001
1.40001
1.40001
1.40001
1.40001
1.40001
1.40001
1.40001
1.40001
1.40001
1.40001
1.40024
1.40358
1.42858
1.52793
1.7317
2.02929
2.32825
2.54982
2.67578
2.72702
2.74683
2.73985
2.71075
2.6527
2.61388
2.5808
2.53277
2.48811
2.45485
2.41995
2.37975
2.3419
2.30959
2.27907
2.24725
2.21317
2.17759
2.1397
2.09882
2.0544
2.00527
1.94899
1.88117
1.7972
1.69304
1.57518
1.47224
1.41606
1.40139
1.40004
1.40001
1.40001
1.40001
1.40001
1.40001
1.40001
1.40001
1.40001
1.40001
1.40001
1.40001
1.40001
1.40001
1.40001
1.40001
1.40001
1.40001
1.40001
1.40001
1.40001
1.40001
1.40001
1.40001
1.40001
1.40001
1.40001
1.40001
1.40001
1.40001
1.40001
1.40001
1.40001
1.40001
1.40001
1.40001
1.40001
1.40001
1.40001
1.40001
1.40001
1.40001
1.40001
1.40001
1.40001
1.40001
1.40001
1.40001
1.40001
1.40001
1.40001
1.40001
1.40001
1.40001
1.40001
1.40001
1.40001
1.40001
1.40001
1.40019
1.40235
1.41465
1.45906
1.5591
1.7164
1.91166
2.10376
2.26693
2.38475
2.45598
2.48454
2.49615
2.49701
2.47744
2.44091
2.40939
2.37961
2.34468
2.30755
2.27154
2.23451
2.19319
2.1456
2.09077
2.02854
1.95874
1.88032
1.79285
1.69792
1.60092
1.51219
1.44609
1.41168
1.40143
1.40007
1.40001
1.40001
1.40001
1.40001
1.40001
1.40001
1.40001
1.40001
1.40001
1.40001
1.40001
1.40001
1.40001
1.40001
1.40001
1.40001
1.40001
1.40001
1.40001
1.40001
1.40001
1.40001
1.40001
1.40001
1.40001
1.40001
1.40001
1.40001
1.40001
1.40001
1.40001
1.40001
1.40001
1.40001
1.40001
1.40001
1.40001
1.40001
1.40001
1.40001
1.40001
1.40001
1.40001
1.40001
1.40001
1.40001
1.40001
1.40001
1.40001
1.40001
1.40001
1.40001
1.40001
1.40001
1.40001
1.40001
1.40001
1.40001
1.40001
1.40001
1.40001
1.40001
1.40006
1.40058
1.4034
1.41367
1.44126
1.49543
1.5762
1.67409
1.78148
1.88475
1.96983
2.03243
2.06832
2.07621
2.07486
2.06754
2.05132
2.02432
1.98689
1.93952
1.88228
1.81665
1.74585
1.67346
1.60277
1.53771
1.48272
1.44164
1.41613
1.40421
1.40062
1.40004
1.40001
1.40001
1.40001
1.40001
1.40001
1.40001
1.40001
1.40001
1.40001
1.40001
1.40001
1.40001
1.40001
1.40001
1.40001
1.40001
1.40001
1.40001
1.40001
1.40001
1.40001
1.40001
1.40001
1.40001
1.40001
1.40001
1.40001
1.40001
1.40001
1.40001
1.40001
1.40001
1.40001
1.40001
1.40001
1.40001
1.40001
1.40001
1.40001
1.40001
1.40001
1.40001
1.40001
1.40001
1.40001
1.40001
1.40001
1.40001
1.40001
1.40001
1.40001
1.40001
1.40001
1.40001
1.40001
1.40001
1.40001
1.40001
1.40001
1.40001
1.40001
1.40001
1.40001
1.40001
1.40001
1.40001
1.40001
1.40006
1.40034
1.40151
1.40483
1.4122
1.42639
1.44851
1.4758
1.50351
1.52763
1.54566
1.5582
1.56328
1.56151
1.55353
1.53749
1.5151
1.48973
1.46493
1.44333
1.42622
1.414
1.40632
1.40227
1.40059
1.4001
1.40001
1.40001
1.40001
1.40001
1.40001
1.40001
1.40001
1.40001
1.40001
1.40001
1.40001
1.40001
1.40001
1.40001
1.40001
1.40001
1.40001
1.40001
1.40001
1.40001
1.40001
1.40001
1.40001
1.40001
1.40001
1.40001
1.40001
1.40001
1.40001
1.40001
1.40001
1.40001
1.40001
1.40001
1.40001
1.40001
1.40001
1.40001
1.40001
1.40001
1.40001
1.40001
1.40001
1.40001
1.40001
1.40001
1.40001
1.40001
1.40001
1.40001
1.40001
1.40001
1.40001
1.40001
1.40001
1.40001
1.40001
1.40001
1.40001
1.40001
1.40001
1.40001
1.40001
1.40001
1.40001
1.40001
1.40001
1.40001
1.40001
1.40001
1.40001
1.40001
1.40001
1.40002
1.40005
1.40018
1.40052
1.40116
1.40209
1.40324
1.40449
1.40562
1.40614
1.40612
1.40571
1.40475
1.40345
1.40219
1.40123
1.4006
1.40025
1.40009
1.40003
1.40001
1.40001
1.40001
1.40001
1.40001
1.40001
1.40001
1.40001
1.40001
1.40001
1.40001
1.40001
1.40001
1.40001
1.40001
1.40001
1.40001
1.40001
1.40001
1.40001
1.40001
1.40001
1.40001
1.40001
1.40001
1.40001
1.40001
1.40001
1.40001
1.40001
1.40001
1.40001
1.40001
1.40001
1.40001
1.40001
1.40001
1.40001
1.40001
1.40001
1.40001
1.40001
1.40001
1.40001
1.40001
1.40001
1.40001
1.40001
1.40001
1.40001
1.40001
1.40001
1.40001
1.40001
1.40001
1.40001
1.40001
1.40001
1.40001
1.40001
1.40001
1.40001
1.40001
1.40001
1.40001
1.40001
1.40001
1.40001
1.40001
1.40001
1.40001
1.40001
1.40001
1.40001
1.40001
1.40001
1.40001
1.40001
1.40001
1.40001
1.40001
1.40001
1.40001
1.40002
1.40002
1.40002
1.40002
1.40002
1.40002
1.40001
1.40001
1.40001
1.40001
1.40001
1.40001
1.40001
1.40001
1.40001
1.40001
1.40001
1.40001
1.40001
1.40001
1.40001
1.40001
1.40001
1.40001
1.40001
1.40001
1.40001
1.40001
1.40001
1.40001
1.40001
1.40001
1.40001
1.40001
1.40001
1.40001
1.40001
1.40001
1.40001
1.40001
1.40001
1.40001
1.40001
1.40001
1.40001
1.40001
1.40001
1.40001
1.40001
1.40001
1.40001
1.40001
1.40001
1.40001
1.40001
1.40001
1.40001
1.40001
1.40001
1.40001
1.40001
1.40001
1.40001
1.40001
1.40001
1.40001
1.40001
1.40001
1.40001
1.40001
1.40001
1.40001
1.40001
1.40001
1.40001
1.40001
1.40001
1.40001
1.40001
1.40001
1.40001
1.40001
1.40001
1.40001
1.40001
1.40001
1.40001
1.40001
1.40001
1.40001
1.40001
1.40001
1.40001
1.40001
1.40001
1.40001
1.40001
1.40001
1.40001
1.40001
1.40001
1.40001
1.40001
1.40001
1.40001
1.40001
1.40001
1.40001
1.40001
1.40001
1.40001
1.40001
1.40001
1.40001
1.40001
1.40001
1.40001
1.40001
1.40001
1.40001
1.40001
1.40001
1.40001
1.40001
1.40001
1.40001
1.40001
1.40001
1.40001
1.40001
1.40001
1.40001
1.40001
1.40001
1.40001
1.40001
1.40001
1.40001
1.40001
1.40001
1.40001
1.40001
1.40001
1.40001
1.40001
1.40001
1.40001
1.40001
1.40001
1.40001
1.40001
1.40001
1.40001
1.40001
1.40001
1.40001
1.40001
1.40001
1.40001
1.40001
1.40001
1.40001
1.40001
1.40001
1.40001
1.40001
1.40001
1.40001
1.40001
1.40001
1.40001
1.40001
1.40001
1.40001
1.40001
1.40001
1.40001
1.40001
1.40001
1.40001
1.40001
1.40001
1.40001
1.40001
1.40001
1.40001
1.40001
1.40001
1.40001
1.40001
1.40001
1.40001
1.40001
1.40001
1.40001
1.40001
1.40001
1.40001
1.40001
1.40001
1.40001
1.40001
1.40001
1.40001
1.40001
1.40001
1.40001
1.40001
1.40001
1.40001
1.40001
1.40001
1.40001
1.40001
1.40001
1.40001
1.40001
1.40001
1.40001
1.40001
1.40001
1.40001
1.40001
1.40001
1.40001
1.40001
1.40001
1.40001
1.40001
1.40001
1.40001
1.40001
1.40001
1.40001
1.40001
1.40001
1.40001
1.40001
1.40001
1.40001
1.40001
1.40001
1.40001
1.40001
1.40001
1.40001
1.40001
1.40001
1.40001
1.40001
1.40001
1.40001
1.40001
1.40001
1.40001
1.40001
1.40001
1.40001
1.40001
1.40001
1.40001
1.40001
1.40001
1.40001
1.40001
1.40001
1.40001
1.40001
1.40001
1.40001
1.40001
1.40001
1.40001
1.40001
1.40001
1.40001
1.40001
1.40001
1.40001
1.40001
1.40001
1.40001
1.40001
1.40001
1.40001
1.40001
1.40001
1.40001
1.40001
1.40001
1.40001
1.40001
1.40001
1.40001
1.40001
1.40001
1.40001
1.40001
1.40001
1.40001
1.40001
1.40001
1.40001
1.40001
1.40001
1.40001