/*--------------------------------*- C++ -*----------------------------------*\
  =========                 |
  \\      /  F ield         | OpenFOAM: The Open Source CFD Toolbox
   \\    /   O peration     | Website:  https://openfoam.org
    \\  /    A nd           | Version:  7
     \\/     M anipulation  |
\*---------------------------------------------------------------------------*/
FoamFile
{
    version     2.0;
    format      ascii;
    class       volScalarField;
    location    "3.9";
    object      p;
}
// * * * * * * * * * * * * * * * * * * * * * * * * * * * * * * * * * * * * * //

dimensions      [1 -1 -2 0 0 0 0];

internalField   nonuniform List<scalar> 
16128
(
1
1
1
1
1
1
1
1
1
1
1
1
1
1
1
1
1
1
1
1
1
1
1
1
4.65912
10.2339
10.5165
10.6089
10.7246
10.8315
10.9351
11.0343
11.1299
11.2219
11.3099
11.3944
11.4738
11.5471
11.6158
11.6811
11.743
11.8012
11.8548
11.9024
11.9427
11.9737
11.9959
12.0114
1
1
1
1
1
1
1
1
1
1
1
1
1
1
1
1
1
1
1
1
1
1
1
1
4.57877
10.188
10.5125
10.6063
10.7219
10.8284
10.9316
11.0304
11.1254
11.2167
11.304
11.3877
11.4663
11.5391
11.6072
11.6718
11.7327
11.7897
11.8424
11.8891
11.9289
11.9594
11.9815
11.997
1
1
1
1
1
1
1
1
1
1
1
1
1
1
1
1
1
1
1
1
1
1
1
1
4.40544
10.1316
10.5013
10.5954
10.7115
10.8182
10.9215
11.0203
11.1152
11.206
11.2927
11.3757
11.4538
11.5262
11.5941
11.6582
11.718
11.7735
11.8243
11.8692
11.9072
11.9366
11.9576
11.9726
1
1
1
1
1
1
1
1
1
1
1
1
1
1
1
1
1
1
1
1
1
1
1
1
4.1517
10.0456
10.4875
10.582
10.6979
10.8039
10.9065
11.0045
11.0984
11.1882
11.2739
11.3559
11.433
11.5046
11.5719
11.6352
11.6939
11.7481
11.7973
11.8404
11.8767
11.9044
11.9237
11.9376
1
1
1
1
1
1
1
1
1
1
1
1
1
1
1
1
1
1
1
1
1
1
1
1
3.82498
9.91994
10.4728
10.566
10.681
10.7856
10.887
10.9839
11.0763
11.1648
11.2492
11.3299
11.4057
11.4761
11.5423
11.6042
11.6613
11.7136
11.761
11.8023
11.8369
11.8634
11.8812
11.8945
1
1
1
1
1
1
1
1
1
1
1
1
1
1
1
1
1
1
1
1
1
1
1
1
3.43401
9.73888
10.4569
10.5464
10.6609
10.7631
10.8627
10.9579
11.0487
11.1355
11.2184
11.2975
11.372
11.4409
11.5055
11.5657
11.6208
11.671
11.7162
11.7553
11.7874
11.8118
11.8276
11.84
1
1
1
1
1
1
1
1
1
1
1
1
1
1
1
1
1
1
1
1
1
1
1
1
2.99406
9.48077
10.4384
10.5223
10.6342
10.733
10.8306
10.9239
11.013
11.098
11.1792
11.2562
11.3289
11.3956
11.458
11.5159
11.5687
11.6164
11.6594
11.6964
11.7266
11.7499
11.7645
11.7766
1
1
1
1
1
1
1
1
1
1
1
1
1
1
1
1
1
1
1
1
1
1
1
1
2.53629
9.1288
10.4307
10.5006
10.6114
10.7051
10.7991
10.8891
10.9747
11.056
11.1335
11.2067
11.276
11.3395
11.3991
11.4545
11.505
11.5506
11.5914
11.626
11.6534
11.6742
11.6865
11.6972
1
1
1
1
1
1
1
1
1
1
1
1
1
1
1
1
1
1
1
1
1
1
1
1
2.07003
8.65641
10.4274
10.4802
10.5874
10.6734
10.7632
10.8505
10.9337
11.0118
11.0857
11.1543
11.2191
11.278
11.3327
11.3836
11.4298
11.4709
11.5075
11.5386
11.5633
11.5824
11.5938
11.6044
1
1
1
1
1
1
1
1
1
1
1
1
1
1
1
1
1
1
1
1
1
1
1
1
1.60796
8.07055
10.4423
10.4449
10.5493
10.6321
10.7191
10.8026
10.8833
10.9594
11.0308
11.0954
11.1555
11.2092
11.2583
11.3033
11.3439
11.3798
11.4116
11.4382
11.4577
11.4711
11.4778
11.4846
1
1
1
1
1
1
1
1
1
1
1
1
1
1
1
1
1
1
1
1
1
1
1
1
1.19925
7.35215
10.4413
10.4085
10.4955
10.5695
10.6549
10.7401
10.8206
10.8947
10.9638
11.0253
11.0808
11.1297
11.173
11.2114
11.2445
11.272
11.2941
11.3114
11.3236
11.332
11.3366
11.3445
1
1
1
1
1
1
1
1
1
1
1
1
1
1
1
1
1
1
1
1
1
1
1
1
1.00826
6.51297
10.2483
10.3027
10.4064
10.4949
10.5822
10.6627
10.7421
10.8175
10.8859
10.9451
10.996
11.0397
11.0767
11.1069
11.1306
11.1478
11.1603
11.1692
11.1721
11.1668
11.1561
11.1483
1
1
1
1
1
1
1
1
1
1
1
1
1
1
1
1
1
1
1
1
1
1
1
1
1.00003
5.51762
10.0618
10.2224
10.3332
10.4306
10.5172
10.5973
10.669
10.7328
10.794
10.8494
10.8957
10.934
10.9646
10.9863
10.9999
11.0051
11.0016
10.9885
10.9662
10.941
10.9152
10.9152
1
1
1
1
1
1
1
1
1
1
1
1
1
1
1
1
1
1
1
1
1
1
1
1
1
4.4467
9.72404
10.1458
10.2657
10.3701
10.4486
10.514
10.5737
10.6315
10.687
10.7366
10.7777
10.8104
10.8351
10.8469
10.8486
10.8375
10.8128
10.7794
10.7365
10.6904
10.6217
10.5455
1
1
1
1
1
1
1
1
1
1
1
1
1
1
1
1
1
1
1
1
1
1
1
1
1
3.38104
9.26499
10.0917
10.2209
10.3228
10.3938
10.4482
10.4958
10.5393
10.5791
10.6189
10.6524
10.6762
10.6912
10.6904
10.6779
10.6481
10.5997
10.5327
10.4322
10.2914
10.145
10.0386
1
1
1
1
1
1
1
1
1
1
1
1
1
1
1
1
1
1
1
1
1
1
1
1
1
2.27929
8.50278
10.1589
10.2031
10.2661
10.3203
10.3684
10.4118
10.4488
10.4781
10.502
10.5216
10.5341
10.5335
10.5178
10.4871
10.4331
10.3499
10.2317
10.0692
9.867
9.65306
9.55534
1
1
1
1
1
1
1
1
1
1
1
1
1
1
1
1
1
1
1
1
1
1
1
1
1
1.33063
7.66438
10.2796
10.1292
10.1731
10.235
10.2837
10.3228
10.3522
10.3735
10.3852
10.3909
10.3906
10.3713
10.3376
10.2829
10.2005
10.0801
9.91454
9.67084
9.27961
8.41284
6.49526
1
1
1
1
1
1
1
1
1
1
1
1
1
1
1
1
1
1
1
1
1
1
1
1
1
1.01332
6.43971
9.98583
9.9807
10.0677
10.1296
10.1825
10.222
10.2468
10.2626
10.2643
10.2561
10.2386
10.2031
10.1489
10.0683
9.95535
9.79401
9.56309
9.21815
8.61895
7.68243
5.51543
1
1
1
1
1
1
1
1
1
1
1
1
1
1
1
1
1
1
1
1
1
1
1
1
1
0.999965
4.86236
9.56806
9.88054
9.98577
10.0344
10.079
10.1171
10.1361
10.1457
10.1398
10.1189
10.0842
10.0328
9.95836
9.85243
9.70712
9.50584
9.21591
8.79638
8.13298
7.07427
5.15339
1
1
1
1
1
1
1
1
1
1
1
1
1
1
1
1
1
1
1
1
1
1
1
1
1
0.99999
3.33922
9.02353
9.86022
9.92362
9.971
9.99426
10.0168
10.024
10.025
10.0107
9.97899
9.92921
9.85977
9.76503
9.63622
9.4613
9.22409
8.89216
8.41612
7.75297
6.63905
5.12794
1
1
1
1
1
1
1
1
1
1
1
1
1
1
1
1
1
1
1
1
1
1
1
1
1
0.999998
1.94914
8.19536
9.87857
9.85158
9.8916
9.915
9.92789
9.92292
9.91068
9.88339
9.83934
9.77558
9.68875
9.57502
9.42534
9.22724
8.96222
8.60348
8.10533
7.44102
6.40167
5.21803
1
1
1
1
1
1
1
1
1
1
1
1
1
1
1
1
1
1
1
1
1
1
1
1
1
1
1.10198
6.7996
9.87538
9.79579
9.79378
9.819
9.82536
9.81334
9.79115
9.7531
9.69866
9.62337
9.52223
9.3917
9.22342
9.00688
8.72404
8.35154
7.85676
7.19985
6.29602
5.33816
1
1
1
1
1
1
1
1
1
1
1
1
1
1
1
1
1
1
1
1
1
1
1
1
1
1
1.00074
5.02874
9.33879
9.62852
9.69844
9.72041
9.71733
9.70062
9.67035
9.62377
9.55931
9.47304
9.36016
9.21608
9.03322
8.80335
8.51173
8.13739
7.65839
7.03513
6.25715
5.46213
1
1
1
1
1
1
1
1
1
1
1
1
1
1
1
1
1
1
1
1
1
1
1
1
1
1
0.999991
3.05461
8.72214
9.60758
9.61733
9.63727
9.63157
9.60503
9.56248
9.50428
9.42829
9.33055
9.20701
9.0522
8.85857
8.61931
8.3238
7.95575
7.50205
6.92378
6.2496
5.56946
1
1
1
1
1
1
1
1
1
1
1
1
1
1
1
1
1
1
1
1
1
1
1
1
1
1
0.999998
1.46033
7.72597
9.72614
9.5849
9.53432
9.52063
9.49022
9.44304
9.37871
9.29555
9.19034
9.05912
8.89699
8.69729
8.45371
8.15915
7.79883
7.37195
6.84311
6.25959
5.66073
1
1
1
1
1
1
1
1
1
1
1
1
1
1
1
1
1
1
1
1
1
1
1
1
1
1
1
1.02148
5.99636
9.27579
9.37549
9.41825
9.41009
9.37427
9.32428
9.25604
9.16792
9.05675
8.91985
8.75299
8.55036
8.30659
8.01677
7.66579
7.26041
6.78039
6.27309
5.73138
1
1
1
1
1
1
1
1
1
1
1
1
1
1
1
1
1
1
1
1
1
1
1
1
1
1
1
0.999909
3.66373
8.74431
9.31268
9.33612
9.32864
9.29085
9.23211
9.15263
9.05385
8.9339
8.79043
8.61958
8.41718
8.1772
7.89242
7.55519
7.16556
6.73248
6.28538
5.79041
1
1
1
1
1
1
1
1
1
1
1
1
1
1
1
1
1
1
1
1
1
1
1
1
1
1
1
0.999976
1.68501
7.9079
9.45217
9.30699
9.23332
9.18359
9.12026
9.03781
8.93605
8.81243
8.66639
8.49424
8.29182
8.06065
7.77957
7.46038
7.09107
6.69877
6.28913
5.83589
1
1
1
1
1
1
1
1
1
1
1
1
1
1
1
1
1
1
1
1
1
1
1
1
1
1
1
0.999996
1.04383
6.10035
9.05404
9.10543
9.11119
9.0758
9.01224
8.9292
8.82587
8.70051
8.55305
8.38099
8.18264
7.95341
7.68139
7.38164
7.03814
6.67896
6.29318
5.88656
1
1
1
1
1
1
1
1
1
1
1
1
1
1
1
1
1
1
1
1
1
1
1
1
1
1
1
1
0.999984
3.47033
8.47205
9.0639
9.03818
8.9977
8.93548
8.8451
8.73356
8.60216
8.451
8.27819
8.08055
7.85431
7.59574
7.31204
6.99444
6.66121
6.29855
5.92893
1
1
1
1
1
1
1
1
1
1
1
1
1
1
1
1
1
1
1
1
1
1
1
1
1
1
1
1
0.999988
1.40999
7.44832
9.2078
9.01522
8.91461
8.83801
8.74245
8.63114
8.50324
8.355
8.18457
7.98786
7.76847
7.52428
7.25348
6.95886
6.64583
6.31029
5.96819
1
1
1
1
1
1
1
1
1
1
1
1
1
1
1
1
1
1
1
1
1
1
1
1
1
1
1
1
0.999998
1.01522
5.38926
8.71097
8.78098
8.79277
8.73236
8.63976
8.53381
8.41136
8.26742
8.10075
7.90845
7.69384
7.45917
7.2006
6.92549
6.62792
6.31728
5.99831
1
1
1
1
1
1
1
1
1
1
1
1
1
1
1
1
1
1
1
1
1
1
1
1
1
1
1
1
1
0.999917
2.6553
8.03731
8.78133
8.74492
8.66553
8.57181
8.46597
8.34294
8.1979
8.0306
7.84075
7.63107
7.40236
7.15563
6.89541
6.61091
6.32218
6.02471
1
1
1
1
1
1
1
1
1
1
1
1
1
1
1
1
1
1
1
1
1
1
1
1
1
1
1
1
1
0.999979
1.20238
6.40054
8.77247
8.67061
8.58383
8.4912
8.38878
8.26786
8.12385
7.9587
7.77405
7.57277
7.35277
7.11722
6.86794
6.59579
6.32345
6.04503
1
1
1
1
1
1
1
1
1
1
1
1
1
1
1
1
1
1
1
1
1
1
1
1
1
1
1
1
1
0.999996
1.00304
3.68298
8.14649
8.52307
8.48222
8.41943
8.32652
8.20633
8.06164
7.89823
7.71852
7.52431
7.31152
7.08403
6.84449
6.58539
6.32598
6.06238
1
1
1
1
1
1
1
1
1
1
1
1
1
1
1
1
1
1
1
1
1
1
1
1
1
1
1
1
1
1
0.999991
1.46073
6.89677
8.63047
8.47977
8.38923
8.28037
8.14932
8.0015
7.83964
7.66458
7.477
7.27181
7.05223
6.8221
6.57616
6.32811
6.07651
1
1
1
1
1
1
1
1
1
1
1
1
1
1
1
1
1
1
1
1
1
1
1
1
1
1
1
1
1
1
0.999998
1.01733
4.4203
8.16694
8.32673
8.2923
8.20093
8.07836
7.93767
7.7819
7.61333
7.43275
7.23512
7.02343
6.80226
6.56906
6.3307
6.08973
1
1
1
1
1
1
1
1
1
1
1
1
1
1
1
1
1
1
1
1
1
1
1
1
1
1
1
1
1
1
1
1.00001
1.72111
7.11763
8.44679
8.29113
8.16969
8.03936
7.89649
7.74135
7.57416
7.39441
7.20009
6.99433
6.78159
6.5608
6.33299
6.10271
1
1
1
1
1
1
1
1
1
1
1
1
1
1
1
1
1
1
1
1
1
1
1
1
1
1
1
1
1
1
1
1
1.04096
4.8225
8.09161
8.16186
8.08239
7.97156
7.84025
7.69192
7.52824
7.35148
7.163
6.96541
6.76237
6.55314
6.33702
6.1171
1
1
1
1
1
1
1
1
1
1
1
1
1
1
1
1
1
1
1
1
1
1
1
1
1
1
1
1
1
1
1
1
1.00012
1.90587
7.11765
8.23995
8.07044
7.9433
7.80769
7.65845
7.4965
7.32339
7.14072
6.95012
6.75354
6.55096
6.34331
6.13185
1
1
1
1
1
1
1
1
1
1
1
1
1
1
1
1
1
1
1
1
1
1
1
1
1
1
1
1
1
1
1
1
1
1.0619
4.90683
7.95028
7.97346
7.88094
7.7578
7.61515
7.4574
7.28814
7.11044
6.92588
6.73629
6.54277
6.3447
6.14326
1
1
1
1
1
1
1
1
1
1
1
1
1
1
1
1
1
1
1
1
1
1
1
1
1
1
1
1
1
1
1
1
1
1.00033
1.96583
6.91986
8.00217
7.85799
7.72752
7.58292
7.42552
7.26001
7.08904
6.91293
6.73202
6.54763
6.35792
6.16305
1
1
1
1
1
1
1
1
1
1
1
1
1
1
1
1
1
1
1
1
1
1
1
1
1
1
1
1
1
1
1
1
1
1
1.06876
4.6481
7.74909
7.79474
7.67517
7.53917
7.38846
7.23171
7.06955
6.90215
6.72865
6.55
6.36689
6.17834
1
1
1
1
1
1
1
1
1
1
1
1
1
1
1
1
1
1
1
1
1
1
1
1
1
1
1
1
1
1
1
1
1
1
1.00049
1.85847
6.57923
7.79726
7.64853
7.51566
7.36626
7.21418
7.05831
6.89782
6.73088
6.55745
6.3793
6.19698
1
1
1
1
1
1
1
1
1
1
1
1
1
1
1
1
1
1
1
1
1
1
1
1
1
1
1
1
1
1
1
1
1
1
1
1.05449
4.07261
7.46511
7.60086
7.47343
7.33535
7.19434
7.04846
6.89478
6.73284
6.56423
6.38947
6.21048
1
1
1
1
1
1
1
1
1
1
1
1
1
1
1
1
1
1
1
1
1
1
1
1
1
1
1
1
1
1
1
1
1
1
1
1.00042
1.62002
6.04757
7.61205
7.46372
7.33927
7.19996
7.05209
6.89597
6.73397
6.56895
6.39941
6.22511
1
1
1
1
1
1
1
1
1
1
1
1
1
1
1
1
1
1
1
1
1
1
1
1
1
1
1
1
1
1
1
1
1
1
1
1
1.02954
3.18011
7.01814
7.444
7.31918
7.18256
7.03544
6.88381
6.72792
6.5697
6.40869
6.24146
1
1
1
1
1
1
1
1
1
1
1
1
1
1
1
1
1
1
1
1
1
1
1
1
1
1
1
1
1
1
1
1
1
1
1
1
1.00023
1.32573
5.28646
7.47936
7.32801
7.18191
7.03313
6.88763
6.73756
6.58213
6.42415
6.26072
1
1
1
1
1
1
1
1
1
1
1
1
1
1
1
1
1
1
1
1
1
1
1
1
1
1
1
1
1
1
1
1
1
1
1
1
1
1.00908
2.37837
6.51844
7.28568
7.14507
7.0172
6.87907
6.73353
6.58119
6.42566
6.26862
1
1
1
1
1
1
1
1
1
1
1
1
1
1
1
1
1
1
1
1
1
1
1
1
1
1
1
1
1
1
1
1
1
1
1
1
1
1.00005
1.13314
4.16794
7.09727
7.16844
7.04197
6.9016
6.75366
6.60127
6.44657
6.29136
1
1
1
1
1
1
1
1
1
1
1
1
1
1
1
1
1
1
1
1
1
1
1
1
1
1
1
1
1
1
1
1
1
1
1
1
1
1
1.00212
1.69155
5.68826
7.18007
7.03169
6.88866
6.74517
6.59976
6.45234
6.30272
1
1
1
1
1
1
1
1
1
1
1
1
1
1
1
1
1
1
1
1
1
1
1
1
1
1
1
1
1
1
1
1
1
1
1
1
1
1
1.00001
1.03681
2.8708
6.53512
7.01733
6.88924
6.754
6.61576
6.47339
6.32641
1
1
1
1
1
1
1
1
1
1
1
1
1
1
1
1
1
1
1
1
1
1
1
1
1
1
1
1
1
1
1
1
1
1
1
1
1
1
1
1.00038
1.24019
4.46616
6.88854
6.91989
6.78549
6.64408
6.49945
6.35157
1
1
1
1
1
1
1
1
1
1
1
1
1
1
1
1
1
1
1
1
1
1
1
1
1
1
1
1
1
1
1
1
1
1
1
1
1
1
1
1
1.00585
1.86546
5.63924
6.8894
6.78548
6.64501
6.50312
6.36145
1
1
1
1
1
1
1
1
1
1
1
1
1
1
1
1
1
1
1
1
1
1
1
1
1
1
1
1
1
1
1
1
1
1
1
1
1
1
1
1
1.00004
1.05625
2.93596
6.32334
6.78814
6.6611
6.51802
6.38282
1
1
1
1
1
1
1
1
1
1
1
1
1
1
1
1
1
1
1
1
1
1
1
1
1
1
1
1
1
1
1
1
1
1
1
1
1
1
1
1
1
1.00072
1.26068
4.2661
6.59271
6.68786
6.55619
6.41468
1
1
1
1
1
1
1
1
1
1
1
1
1
1
1
1
1
1
1
1
1
1
1
1
1
1
1
1
1
1
1
1
1
1
1
1
1
1
1
1
1
1
1.00711
1.78023
5.27325
6.6341
6.57478
6.43332
1
1
1
1
1
1
1
1
1
1
1
1
1
1
1
1
1
1
1
1
1
1
1
1
1
1
1
1
1
1
1
1
1
1
1
1
1
1
1
1
1
1
1.00005
1.04737
2.61518
5.92686
6.56161
6.4616
1
1
1
1
1
1
1
1
1
1
1
1
1
1
1
1
1
1
1
1
1
1
1
1
1
1
1
1
1
1
1
1
1
1
1
1
1
1
1
1
1
1
1
1.00061
1.18732
3.66153
6.24156
6.49479
1
1
1
1
1
1
1
1
1
1
1
1
1
1
1
1
1
1
1
1
1
1
1
1
1
1
1
1
1
1
1
1
1
1
1
1
1
1
1
1
1
1
1
1
1.0044
1.51463
4.6326
6.33809
1
1
1
1
1
1
1
1
1
1
1
1
1
1
1
1
1
1
1
1
1
1
1
1
1
1
1
1
1
1
1
1
1
1
1
1
1
1
1
1
1
1
1
1
1.00003
1.02348
2.07804
5.29933
1
1
1
1
1
1
1
1
1
1
1
1
1
1
1
1
1
1
1
1
1
1
1
1
1
1
1
1
1
1
1
1
1
1
1
1
1
1
1
1
1
1
1
1
1
1.00025
1.08823
2.8557
1
1
1
1
1
1
1
1
1
1
1
1
1
1
1
1
1
1
1
1
1
1
1
1
1
1
1
1
1
1
1
1
1
1
1
1
1
1
1
1
1
1
1
1
1
1
1.00162
1.25362
1
1
1
1
1
1
1
1
1
1
1
1
1
1
1
1
1
1
1
1
1
1
1
1
1
1
1
1
1
1
1
1
1
1
1
1
1
1
1
1
1
1
1
1
1
1
1.00001
1.00655
1
1
1
1
1
1
1
1
1
1
1
1
1
1
1
1
1
1
1
1
1
1
1
1
1
1
1
1
1
1
1
1
1
1
1
1
1
1
1
1
1
1
1
1
1
1
1
1.00009
1
1
1
1
1
1
1
1
1
1
1
1
1
1
1
1
1
1
1
1
1
1
1
1
1
1
1
1
1
1
1
1
1
1
1
1
1
1
1
1
1
1
1
1
1
1
1
1
1
1
1
1
1
1
1
1
1
1
1
1
1
1
1
1
1
1
1
1
1
1
1
1
1
1
1
1
1
1
1
1
1
1
1
1
1
1
1
1
1
1
1
1
1
1
1
1
1
1
1
1
1
1
1
1
1
1
1
1
1
1
1
1
1
1
1
1
1
1
1
1
1
1
1
1
1
1
1
1
1
1
1
1
1
1
1
1
1
1
1
1
1
1
1
1
1
1
1
1
1
1
1
1
1
1
1
1
1
1
1
1
1
1
1
1
1
1
1
1
1
1
1
1
1
1
1
1
1
1
1
1
1
1
1
1
1
1
1
1
1
1
1
1
1
1
1
1
1
1
1
1
1
1
1
1
1
1
1
1
1
1
1
1
1
1
1
1
1
1
1
1
1
1
1
1
1
1
1
1
1
1
1
1
1
1
1
1
1
1
1
1
1
1
1
1
1
1
1
1
1
1
1
1
1
1
1
1
1
1
1
1
1
1
1
1
1
1
1
1
1
1
1
1
1
1
1
1
1
1
1
1
1
1
1
1
1
1
1
1
1
1
1
1
1
1
1
1
1
1
1
1
1
1
1
1
1
1
1
1
1
1
1
1
1
1
1
1
1
1
1
1
1
1
1
1
1
1
1
1
1
1
1
1
1
1
1
1
1
1
1
1
1
1
1
1
1
1
1
1
1
1
1
1
1
1
1
1
1
1
1
1
1
1
1
1
1
1
1
1
1
1
1
1
1
1
1
1
1
1
1
1
1
1
1
1
1
1
1
1
1
1
1
1
1
1
1
1
1
1
1
1
1
1
1
1
1
1
1
1
1
1
1
1
1
1
1
1
1
1
1
1
1
1
1
1
1
1
1
1
1
1
1
1
1
1
1
1
1
1
1
1
1
1
1
1
1
1
1
1
1
1
1
1
1
1
1
1
1
1
1
1
1
1
1
1
1
1
1
1
1
1
1
1
1
1
1
1
1
1
1
1
1
1
1
1
1
1
1
1
1
1
1
1
1
1
1
1
1
1
1
1
1
1
1
1
1
1
1
1
1
1
1
1
1
1
1
1
1
1
1
1
1
1
1
1
1
1
1
1
1
1
1
1
1
1
1
1
1
1
1
1
1
1
1
1
1
1
1
1
1
1
1
1
1
1
1
1
1
1
1
1
1
1
1
1
1
1
1
1
1
1
1
1
1
1
1
1
1
1
1
1
1
1
1
1
1
1
1
1
1
1
1
1
1
1
1
1
1
1
1
1
1
1
1
1
1
1
1
1
1
1
1
1
1
1
1
1
1
1
1
1
1
1
1
1
1
1
1
1
1
1
1
1
1
1
1
1
1
1
1
1
1
1
1
1
1
1
1
1
1
1
1
1
1
1
1
1
1
1
1
1
1
1
1
1
1
1
1
1
1
1
1
1
1
1
1
1
1
1
1
1
1
1
1
1
1
1
1
1
1
1
1
1
1
1
1
1
1
1
1
1
1
1
1
1
1
1
1
1
1
1
1
1
1
1
1
1
1
1
1
1
1.23664
0.269605
0.0339583
0.0218976
0.0425897
0.10308
0.129476
0.137922
0.181538
0.278864
0.353164
0.423239
0.525173
0.614622
0.687847
0.751108
0.794491
0.828761
0.860425
0.890373
0.929136
0.990054
1.02717
1.04351
1.0425
1.04199
1.03325
1.04444
1.08892
1.15595
1.20252
1.22038
1.21963
1.20944
1.19373
1.19566
1.20557
1.22125
1.24992
1.28544
1.29874
1.30142
1.30327
1.29738
1.29528
1.29748
1.29972
1.30524
1.31804
1.33189
1.34058
1.34418
1.34381
1.3428
1.34424
1.34752
1.34734
2.94489
5.70408
5.98024
6.07536
6.15356
6.19563
6.19462
6.16651
6.12793
6.09532
6.07903
6.07221
6.06034
6.03127
5.99764
5.9734
5.96484
5.96825
5.96661
5.9353
5.87257
5.80216
5.74383
5.70474
5.68178
5.665
5.6443
5.6127
5.56967
5.5203
5.47059
5.42494
5.38519
5.35036
5.31766
5.28587
5.25487
5.21427
5.15201
5.08007
5.00445
4.94136
4.89463
4.86707
4.85865
4.85316
4.83506
4.80647
4.77546
4.74687
4.72237
4.69263
4.64634
4.58783
4.52019
4.45968
4.41723
4.38722
4.37598
4.37116
4.35334
4.31382
4.2636
4.20417
4.14998
4.10973
4.07785
4.0576
4.04488
4.03189
4.01463
3.9912
3.96027
3.92466
3.88436
3.83657
3.78732
3.74402
3.71009
3.68256
3.661
3.64878
3.64002
3.62602
3.60479
3.57746
3.54177
3.49223
3.42544
3.36388
3.31908
3.28503
3.25861
3.23657
3.21864
3.2074
3.20053
3.19398
3.18358
3.16586
3.14163
3.1047
3.05283
3.00392
2.971
2.94908
2.93071
2.91828
2.91679
2.9172
2.90359
2.88273
2.85452
2.80579
2.74628
2.70285
2.6787
2.66275
2.65112
2.64942
2.65848
2.66011
2.64711
2.628
2.59846
2.55305
2.51173
2.48834
2.47353
2.46184
2.4572
2.45951
2.45273
2.43781
2.39667
2.20396
1.08798
0.472868
0.22489
0.221579
0.267034
0.258564
0.221954
0.21653
0.221763
0.24645
0.270845
0.306494
0.375211
0.457043
0.552273
0.646652
0.700002
0.729216
0.779379
0.846535
0.911059
0.954153
0.981307
1.00533
1.03158
1.05379
1.06512
1.09664
1.1285
1.15106
1.17591
1.18532
1.18865
1.19128
1.19579
1.20551
1.21813
1.23964
1.26972
1.28499
1.29021
1.29529
1.29571
1.29692
1.30098
1.3051
1.30842
1.31614
1.32505
1.33117
1.33475
1.33603
1.33767
1.34036
1.33886
1.3354
2.78167
5.64626
6.09872
6.14583
6.16577
6.17833
6.18169
6.16805
6.13771
6.10348
6.0809
6.07344
6.07192
6.05447
6.00759
5.94787
5.89775
5.87246
5.87468
5.88275
5.86573
5.81135
5.74767
5.69358
5.65453
5.63179
5.61798
5.59934
5.56493
5.51545
5.46105
5.4096
5.36524
5.32806
5.29378
5.2599
5.22719
5.1932
5.15712
5.11682
5.07038
5.01943
4.96745
4.92182
4.88455
4.85215
4.81749
4.7761
4.73206
4.69176
4.65927
4.63513
4.6151
4.5919
4.55417
4.50488
4.44701
4.39557
4.3559
4.32727
4.30913
4.29327
4.27007
4.23581
4.1956
4.15026
4.10705
4.07101
4.04137
4.01433
3.98736
3.95826
3.93071
3.90433
3.87505
3.84369
3.81173
3.7762
3.73691
3.70011
3.67094
3.64791
3.62631
3.60273
3.5749
3.54365
3.50691
3.46299
3.42193
3.38614
3.35105
3.31605
3.28282
3.25366
3.2306
3.21287
3.19725
3.18051
3.16176
3.14309
3.12476
3.0999
3.06634
3.02733
2.98739
2.95635
2.93533
2.91869
2.90725
2.89448
2.87953
2.86418
2.84321
2.8136
2.77829
2.73826
2.70025
2.67451
2.65981
2.65088
2.64425
2.63547
2.62683
2.6155
2.59616
2.56865
2.53581
2.50347
2.4804
2.46615
2.45447
2.44251
2.43091
2.42075
2.39031
2.86466
1.75044
1.20028
0.793913
0.54277
0.445393
0.417399
0.390211
0.354149
0.33875
0.329829
0.31829
0.323594
0.352688
0.390064
0.418976
0.469056
0.545608
0.607397
0.656453
0.723803
0.801428
0.865749
0.913173
0.958125
1.01149
1.07741
1.10549
1.13227
1.13733
1.14344
1.16189
1.17309
1.18068
1.191
1.20228
1.2099
1.22062
1.24399
1.26728
1.27739
1.28455
1.289
1.29237
1.29848
1.30274
1.30719
1.3114
1.31916
1.3291
1.33709
1.34305
1.34587
1.34713
1.34493
1.33712
1.34078
2.36094
5.62408
6.32091
6.20851
6.17372
6.15654
6.15591
6.16182
6.15803
6.13395
6.09993
6.07236
6.06662
6.07491
6.07706
6.03696
5.96552
5.8943
5.84074
5.81752
5.81763
5.81159
5.77761
5.72608
5.67384
5.62944
5.59746
5.5774
5.55938
5.5259
5.47533
5.41988
5.36603
5.31947
5.28024
5.23756
5.18792
5.13989
5.10071
5.07505
5.0588
5.04248
5.01878
4.9872
4.95006
4.90965
4.86736
4.82139
4.7675
4.70209
4.6305
4.57408
4.53878
4.53058
4.53484
4.52401
4.49223
4.44781
4.38505
4.31449
4.2642
4.23326
4.22145
4.21823
4.20538
4.18111
4.15116
4.11517
4.07368
4.0295
3.98432
3.93979
3.89745
3.85968
3.82996
3.8097
3.79671
3.78241
3.76164
3.73576
3.70444
3.66549
3.62229
3.58165
3.543
3.50223
3.46032
3.42568
3.40197
3.38034
3.35701
3.33225
3.30843
3.28653
3.2629
3.234
3.19968
3.16556
3.13717
3.11265
3.08892
3.07075
3.05778
3.03974
3.01656
2.98523
2.95124
2.92054
2.89466
2.87289
2.85277
2.83092
2.81208
2.80074
2.78683
2.76966
2.74632
2.7143
2.67794
2.64777
2.62904
2.61502
2.60033
2.58478
2.57425
2.56643
2.55274
2.53398
2.50646
2.47336
2.44626
2.42805
2.41158
2.3948
2.36871
3.48094
2.40511
1.77355
1.36416
1.07369
0.812572
0.651053
0.597787
0.567796
0.54738
0.519597
0.479705
0.43973
0.426552
0.420079
0.41722
0.431938
0.468172
0.500025
0.518636
0.555112
0.6173
0.695149
0.769449
0.832918
0.893273
0.978168
1.02761
1.0595
1.08876
1.1117
1.13898
1.16874
1.17952
1.18999
1.20311
1.21078
1.22459
1.24734
1.2624
1.26846
1.27371
1.27647
1.27961
1.28155
1.28472
1.29035
1.2963
1.30421
1.31393
1.32462
1.33324
1.33439
1.33387
1.33372
1.3463
1.40502
1.94176
5.41256
6.73126
6.4545
6.23957
6.1795
6.15295
6.14695
6.15499
6.15102
6.11978
6.07274
6.02938
5.99957
5.99556
6.00193
5.97814
5.92575
5.86025
5.79956
5.76423
5.74989
5.74634
5.72816
5.68994
5.6434
5.59811
5.56031
5.53795
5.52241
5.48992
5.44258
5.38601
5.3249
5.27674
5.23959
5.20436
5.16441
5.12405
5.08767
5.05653
5.02807
4.99925
4.96646
4.92901
4.88607
4.84068
4.80061
4.76107
4.71563
4.66559
4.61354
4.5667
4.53445
4.51167
4.49226
4.46885
4.43429
4.38936
4.33953
4.2929
4.25489
4.23029
4.21433
4.19402
4.16825
4.13906
4.10209
4.06078
4.02423
3.99189
3.96054
3.92766
3.89158
3.85504
3.82341
3.79771
3.77551
3.75715
3.73419
3.70458
3.66404
3.61351
3.56331
3.52005
3.48321
3.45487
3.43362
3.41575
3.3954
3.37259
3.34706
3.3187
3.28995
3.26266
3.23455
3.20404
3.17237
3.1405
3.10923
3.08279
3.06387
3.04872
3.03421
3.01804
2.9959
2.96527
2.93185
2.89938
2.86663
2.83475
2.81023
2.79407
2.7853
2.78083
2.77445
2.76193
2.74327
2.71287
2.67251
2.63143
2.59703
2.57445
2.56108
2.55422
2.55342
2.55163
2.54156
2.5251
2.49744
2.45768
2.41886
2.38985
2.3704
2.35053
3.97465
3.04811
2.3753
1.83273
1.52074
1.30201
1.09122
0.846121
0.732736
0.738463
0.716613
0.649889
0.578454
0.56352
0.551216
0.514771
0.500089
0.510489
0.530292
0.530431
0.513949
0.512799
0.527249
0.561214
0.620975
0.698318
0.804637
0.903924
0.962476
1.01639
1.05415
1.08589
1.12469
1.13494
1.15201
1.18067
1.19667
1.21377
1.23598
1.25928
1.26806
1.27333
1.28049
1.28339
1.28294
1.28309
1.2876
1.29362
1.29967
1.30713
1.31783
1.3288
1.33347
1.3354
1.3461
1.42805
1.75964
2.20108
4.01324
6.32165
6.67196
6.4139
6.2225
6.12966
6.12548
6.13569
6.15864
6.15058
6.1184
6.05096
5.983
5.95569
5.95065
5.96198
5.94159
5.89821
5.82946
5.75883
5.72782
5.71354
5.7123
5.69763
5.66262
5.61356
5.56344
5.52742
5.50414
5.4863
5.45451
5.41355
5.35592
5.28638
5.237
5.20302
5.17479
5.14772
5.11679
5.08027
5.03949
4.99935
4.96116
4.92167
4.8757
4.81932
4.75941
4.71167
4.6768
4.64797
4.6227
4.59903
4.56838
4.52973
4.48874
4.44558
4.39944
4.35815
4.32561
4.29845
4.27676
4.25575
4.22993
4.20201
4.17136
4.13331
4.08409
4.03039
3.98843
3.96074
3.93834
3.91933
3.90175
3.88061
3.85515
3.82284
3.78739
3.75492
3.72252
3.68527
3.6403
3.58728
3.531
3.48464
3.45736
3.4398
3.4288
3.42261
3.41267
3.39725
3.37613
3.34324
3.29388
3.24153
3.20337
3.17612
3.15331
3.13309
3.11502
3.09748
3.07854
3.05789
3.0366
3.01351
2.98522
2.95267
2.92171
2.89291
2.86455
2.83841
2.81772
2.80177
2.79021
2.78088
2.76897
2.75514
2.73746
2.71236
2.68003
2.64355
2.607
2.57862
2.56267
2.5526
2.54711
2.54117
2.53076
2.51653
2.49464
2.46082
2.42145
2.38878
2.37072
2.35253
4.33173
3.51812
2.90618
2.36407
1.90914
1.65497
1.47968
1.24295
1.0161
0.926961
0.897651
0.845178
0.757557
0.711869
0.697085
0.66306
0.611376
0.600347
0.601819
0.592552
0.562537
0.54002
0.541187
0.548651
0.560567
0.577964
0.611466
0.67122
0.726083
0.784951
0.863054
0.937457
1.02875
1.07879
1.10963
1.15085
1.17742
1.19551
1.21924
1.24221
1.24788
1.25264
1.26224
1.2715
1.27326
1.27304
1.27851
1.28791
1.29673
1.3057
1.31688
1.3253
1.33231
1.35237
1.44688
1.7925
2.46202
2.67882
3.0059
4.73671
6.24242
6.53332
6.38465
6.18629
6.07804
6.07012
6.10999
6.15755
6.14354
6.09031
5.99047
5.93631
5.91956
5.92409
5.93591
5.90823
5.86391
5.79032
5.72616
5.69765
5.68142
5.67246
5.64442
5.60442
5.55192
5.50735
5.47838
5.46102
5.44219
5.41216
5.3711
5.30802
5.23836
5.19551
5.16446
5.13418
5.1013
5.06484
5.0232
4.98172
4.94449
4.90764
4.86565
4.81322
4.75303
4.70312
4.6708
4.64674
4.62912
4.60666
4.57531
4.53288
4.47769
4.42434
4.38372
4.35472
4.33117
4.3131
4.29196
4.26405
4.23086
4.19598
4.16029
4.1201
4.07465
4.02809
3.98662
3.95492
3.93142
3.91307
3.90142
3.88954
3.86989
3.84076
3.79439
3.74314
3.69896
3.65868
3.61892
3.57786
3.53475
3.49174
3.45808
3.43804
3.42594
3.42208
3.41799
3.4061
3.38806
3.35543
3.29954
3.23525
3.18951
3.16399
3.14735
3.1341
3.12191
3.1082
3.09161
3.06952
3.04031
3.00526
2.96866
2.93635
2.9099
2.8873
2.86763
2.8497
2.83192
2.81401
2.79665
2.7801
2.76304
2.74272
2.7186
2.69376
2.67069
2.6489
2.62614
2.59971
2.57179
2.55318
2.54245
2.53155
2.51763
2.499
2.47491
2.4467
2.41836
2.39251
2.37478
2.3558
4.61679
3.88937
3.31721
2.81154
2.34823
2.00984
1.77523
1.58102
1.37282
1.1585
1.08227
1.04061
0.974095
0.873422
0.820653
0.803513
0.767489
0.716096
0.697774
0.689559
0.660149
0.615341
0.602618
0.603251
0.609371
0.608762
0.604223
0.600597
0.60006
0.609119
0.640306
0.702377
0.797344
0.918477
0.992706
1.05933
1.12751
1.16201
1.18862
1.2127
1.2153
1.22149
1.23748
1.2591
1.26844
1.27013
1.27515
1.28401
1.29147
1.29779
1.30661
1.31976
1.34281
1.48241
1.87442
2.46125
2.86601
2.90933
2.93207
3.31155
4.83654
6.23558
6.47646
6.28495
6.09156
6.03638
6.0622
6.14577
6.17502
6.14097
6.04726
5.9332
5.88732
5.86517
5.87986
5.89074
5.86575
5.81996
5.7438
5.69123
5.6648
5.65312
5.64563
5.61702
5.5776
5.52703
5.4864
5.45638
5.43147
5.40017
5.3607
5.3075
5.23981
5.18574
5.15252
5.1235
5.09166
5.05517
5.01245
4.96527
4.92081
4.87981
4.83871
4.79553
4.7524
4.71415
4.68419
4.66234
4.64221
4.61415
4.57789
4.52371
4.45575
4.40275
4.37159
4.34708
4.32973
4.31666
4.29549
4.26742
4.22828
4.17826
4.13014
4.08938
4.05415
4.02309
3.99442
3.96846
3.94864
3.93687
3.92824
3.91125
3.88322
3.83444
3.76672
3.7021
3.6533
3.61593
3.58562
3.56043
3.53813
3.514
3.4873
3.46507
3.45119
3.44176
3.42895
3.40969
3.37767
3.33148
3.27903
3.22899
3.1893
3.16419
3.14932
3.14038
3.13385
3.12304
3.1074
3.0804
3.03374
2.98039
2.94051
2.91688
2.90075
2.88679
2.8756
2.86532
2.85114
2.83263
2.80755
2.7762
2.74449
2.71618
2.69324
2.67647
2.66391
2.65271
2.64062
2.62385
2.59773
2.56282
2.53287
2.51285
2.49474
2.47524
2.45566
2.43831
2.42414
2.40881
2.39178
2.36302
4.83092
4.19791
3.65473
3.14383
2.7363
2.39426
2.07213
1.84161
1.66842
1.46862
1.28905
1.21213
1.16783
1.08019
0.970671
0.939002
0.925309
0.892628
0.835352
0.793321
0.762851
0.719407
0.67873
0.667528
0.667956
0.666675
0.650147
0.626033
0.613442
0.615722
0.619523
0.627286
0.648506
0.69561
0.756616
0.817256
0.908463
0.999535
1.06671
1.12691
1.15616
1.17539
1.19496
1.23198
1.26253
1.2685
1.27173
1.27679
1.27836
1.28127
1.29483
1.33132
1.49813
1.96014
2.503
2.88852
2.93224
2.9292
2.93201
2.96092
3.40756
4.92951
6.21512
6.3268
6.14502
6.07322
6.07093
6.15025
6.20028
6.16678
6.08997
5.96566
5.87667
5.84139
5.83724
5.86054
5.85271
5.82697
5.77268
5.6954
5.65088
5.62837
5.6237
5.60652
5.57286
5.52478
5.46524
5.42438
5.39112
5.35677
5.32304
5.28563
5.23799
5.18447
5.14593
5.11368
5.07859
5.03958
4.99356
4.94107
4.89384
4.85685
4.8258
4.79902
4.7764
4.7512
4.7183
4.68002
4.64353
4.60637
4.56129
4.50767
4.45304
4.40994
4.38034
4.35779
4.34315
4.32923
4.30611
4.27725
4.23074
4.16405
4.10839
4.07574
4.05221
4.03184
4.01457
3.9981
3.9785
3.95328
3.92007
3.87452
3.82412
3.76738
3.71254
3.66591
3.62866
3.60256
3.58426
3.57255
3.56606
3.5556
3.53771
3.50972
3.46998
3.43029
3.39667
3.36402
3.3285
3.29173
3.26046
3.23651
3.21416
3.1919
3.17425
3.16151
3.14829
3.13222
3.10694
3.06639
3.0119
2.96027
2.92629
2.9074
2.8943
2.88487
2.88178
2.8783
2.86571
2.84789
2.81488
2.76586
2.72145
2.69304
2.67693
2.66605
2.65859
2.65569
2.64991
2.63903
2.61943
2.57927
2.52722
2.48898
2.4668
2.45189
2.4417
2.43341
2.42587
2.41604
2.40379
2.37417
5.01846
4.4607
3.93886
3.43866
3.05724
2.71888
2.38476
2.11175
1.91784
1.73945
1.54335
1.405
1.35545
1.28894
1.17263
1.06018
1.03939
1.02917
0.991067
0.925171
0.860711
0.818394
0.793051
0.763974
0.747186
0.746569
0.735367
0.701515
0.669334
0.666928
0.666004
0.656214
0.657911
0.656544
0.652891
0.656725
0.682165
0.737425
0.816365
0.912768
1.01165
1.09833
1.13968
1.17888
1.22575
1.23955
1.2446
1.24972
1.24681
1.26372
1.34028
1.54225
2.01856
2.53741
2.81708
2.92734
2.93052
2.93388
2.95008
2.97181
3.02643
3.46912
4.87911
6.07041
6.17959
6.13748
6.10583
6.1085
6.1509
6.13999
6.09038
6.01793
5.91758
5.85281
5.82193
5.81918
5.84319
5.83264
5.80145
5.73769
5.6621
5.62079
5.59814
5.58008
5.54775
5.50505
5.44624
5.38648
5.34446
5.31293
5.29087
5.26325
5.22996
5.18669
5.13996
5.10308
5.06762
5.02948
4.98482
4.93176
4.88403
4.85095
4.82504
4.80821
4.79276
4.76584
4.73025
4.68025
4.62249
4.57426
4.532
4.4932
4.46062
4.43206
4.40655
4.38504
4.36412
4.34027
4.31406
4.27699
4.22323
4.15965
4.11005
4.08095
4.0584
4.04063
4.02613
4.00605
3.9786
3.93588
3.88001
3.82145
3.7659
3.71977
3.68368
3.65757
3.63786
3.62376
3.61643
3.6126
3.60334
3.58556
3.55851
3.51651
3.46027
3.40215
3.35553
3.31863
3.29155
3.27456
3.26418
3.26172
3.25531
3.23867
3.21094
3.17269
3.13393
3.09786
3.06117
3.02369
2.98612
2.9552
2.93269
2.91531
2.90272
2.89509
2.89104
2.88411
2.87073
2.8445
2.80218
2.75489
2.71739
2.69272
2.67724
2.66723
2.66237
2.66169
2.65556
2.63878
2.61138
2.57147
2.52629
2.48418
2.45638
2.44441
2.43693
2.4312
2.42485
2.41482
2.40418
2.3793
5.16631
4.66718
4.16322
3.71654
3.34693
2.99454
2.65715
2.39481
2.15841
1.9806
1.82524
1.63082
1.51719
1.45947
1.37743
1.27261
1.17243
1.12497
1.09978
1.05471
0.976597
0.915121
0.906429
0.890258
0.85193
0.829893
0.819425
0.79247
0.747648
0.731552
0.728436
0.714588
0.693151
0.682773
0.666036
0.655384
0.657766
0.666831
0.685237
0.71699
0.775019
0.849426
0.938981
1.01309
1.0943
1.13654
1.17467
1.19663
1.21191
1.30365
1.6441
2.07658
2.60152
2.78897
2.80279
2.84199
2.88359
2.93436
2.96171
2.97878
2.97411
3.00738
3.39989
4.71773
5.90863
6.21259
6.18422
6.10639
6.07534
6.05892
6.05826
6.03347
5.98378
5.89974
5.83802
5.81145
5.80704
5.82788
5.81425
5.77299
5.70719
5.63578
5.59322
5.5621
5.52827
5.48863
5.43472
5.36974
5.32413
5.29185
5.26738
5.24496
5.21406
5.17677
5.13055
5.09302
5.0607
5.02765
4.99051
4.94715
4.89986
4.86113
4.83491
4.81699
4.79532
4.76376
4.72663
4.67619
4.60688
4.54543
4.50976
4.48511
4.46627
4.45067
4.4307
4.40323
4.36781
4.32555
4.28204
4.24295
4.2036
4.16276
4.12342
4.08779
4.06022
4.03729
4.01436
3.98861
3.95421
3.906
3.84275
3.78068
3.73262
3.70328
3.68528
3.67452
3.66971
3.66296
3.64953
3.63332
3.60865
3.57336
3.53488
3.49135
3.4427
3.3882
3.3359
3.30399
3.28789
3.281
3.28704
3.29178
3.27928
3.2563
3.21703
3.15969
3.10271
3.0571
3.02125
2.99138
2.97506
2.96348
2.95458
2.94469
2.9315
2.91537
2.89688
2.87161
2.84175
2.81232
2.78087
2.7519
2.73128
2.71426
2.69813
2.6835
2.6701