/*--------------------------------*- C++ -*----------------------------------*\
  =========                 |
  \\      /  F ield         | OpenFOAM: The Open Source CFD Toolbox
   \\    /   O peration     | Website:  https://openfoam.org
    \\  /    A nd           | Version:  7
     \\/     M anipulation  |
\*---------------------------------------------------------------------------*/
FoamFile
{
    version     2.0;
    format      ascii;
    class       volScalarField;
    location    "3.9";
    object      T;
}
// * * * * * * * * * * * * * * * * * * * * * * * * * * * * * * * * * * * * * //

dimensions      [0 0 0 1 0 0 0];

internalField   nonuniform List<scalar> 
16128
(
1
1
1
1
1
1
1
1
1
1
1
1
1
1
1
1
1
1
1
1
1
1
1
1
2.02409
2.67714
2.70501
2.71398
2.72367
2.73168
2.73833
2.74362
2.74809
2.75248
2.75771
2.76445
2.77235
2.77994
2.78577
2.78948
2.79197
2.79449
2.79777
2.80167
2.80546
2.80839
2.81032
2.81149
1
1
1
1
1
1
1
1
1
1
1
1
1
1
1
1
1
1
1
1
1
1
1
1
2.01243
2.67379
2.70476
2.71387
2.72358
2.73155
2.73814
2.74336
2.74773
2.75206
2.75724
2.76396
2.77185
2.77941
2.78518
2.78881
2.79124
2.7937
2.79692
2.80078
2.80452
2.80742
2.80934
2.8105
1
1
1
1
1
1
1
1
1
1
1
1
1
1
1
1
1
1
1
1
1
1
1
1
1.98414
2.66814
2.70342
2.71297
2.72296
2.73105
2.73763
2.74273
2.74695
2.75114
2.75626
2.76299
2.77093
2.77852
2.78425
2.78782
2.79016
2.79255
2.79569
2.79944
2.80307
2.80587
2.80772
2.80884
1
1
1
1
1
1
1
1
1
1
1
1
1
1
1
1
1
1
1
1
1
1
1
1
1.94065
2.65848
2.70049
2.71115
2.72184
2.73029
2.73692
2.74182
2.74571
2.74959
2.75451
2.7612
2.76921
2.7769
2.78267
2.78618
2.78845
2.79077
2.79385
2.79751
2.80102
2.8037
2.80542
2.80647
1
1
1
1
1
1
1
1
1
1
1
1
1
1
1
1
1
1
1
1
1
1
1
1
1.88157
2.64448
2.69562
2.70792
2.71985
2.72904
2.73593
2.74065
2.74409
2.74749
2.75203
2.75858
2.76669
2.77458
2.78049
2.784
2.78618
2.78838
2.79135
2.79491
2.79831
2.80091
2.80254
2.80355
1
1
1
1
1
1
1
1
1
1
1
1
1
1
1
1
1
1
1
1
1
1
1
1
1.8046
2.62506
2.68852
2.70297
2.71667
2.72696
2.73439
2.73903
2.74201
2.74482
2.74884
2.7551
2.76329
2.77149
2.77769
2.7813
2.7834
2.78545
2.78825
2.79166
2.79492
2.79741
2.79891
2.79987
1
1
1
1
1
1
1
1
1
1
1
1
1
1
1
1
1
1
1
1
1
1
1
1
1.70839
2.59946
2.6799
2.69639
2.71166
2.72324
2.73156
2.73644
2.73912
2.74139
2.74481
2.75063
2.75881
2.76733
2.77394
2.77775
2.7798
2.78167
2.78428
2.78755
2.79072
2.79317
2.79463
2.79559
1
1
1
1
1
1
1
1
1
1
1
1
1
1
1
1
1
1
1
1
1
1
1
1
1.59543
2.56688
2.67325
2.68937
2.7055
2.71793
2.72736
2.73286
2.73557
2.7374
2.74017
2.74535
2.75326
2.76201
2.76907
2.77322
2.77533
2.77707
2.77948
2.78258
2.78562
2.78797
2.78932
2.7902
1
1
1
1
1
1
1
1
1
1
1
1
1
1
1
1
1
1
1
1
1
1
1
1
1.45742
2.51774
2.67014
2.68255
2.69784
2.71028
2.72076
2.72755
2.731
2.7329
2.73528
2.73976
2.74714
2.75586
2.76327
2.76775
2.76989
2.77141
2.77351
2.77636
2.77929
2.78162
2.78297
2.78388
1
1
1
1
1
1
1
1
1
1
1
1
1
1
1
1
1
1
1
1
1
1
1
1
1.28519
2.44553
2.67167
2.67597
2.68849
2.70008
2.71123
2.71959
2.72458
2.72728
2.72974
2.73367
2.74036
2.74879
2.7564
2.76122
2.76347
2.76482
2.7666
2.76916
2.77182
2.77386
2.77499
2.77568
1
1
1
1
1
1
1
1
1
1
1
1
1
1
1
1
1
1
1
1
1
1
1
1
1.10079
2.36307
2.6753
2.67336
2.6806
2.68904
2.69954
2.70922
2.71611
2.72017
2.72314
2.72679
2.73269
2.74059
2.74825
2.75339
2.75575
2.75683
2.75808
2.76004
2.76227
2.76407
2.7652
2.76607
1
1
1
1
1
1
1
1
1
1
1
1
1
1
1
1
1
1
1
1
1
1
1
1
1.00368
2.27797
2.67192
2.67108
2.67579
2.68212
2.69043
2.69902
2.70658
2.71199
2.71574
2.7193
2.72436
2.73142
2.73883
2.74415
2.7466
2.74744
2.74828
2.74977
2.7514
2.75235
2.75252
2.75235
1
1
1
1
1
1
1
1
1
1
1
1
1
1
1
1
1
1
1
1
1
1
1
1
1.00001
2.15869
2.67324
2.67352
2.67653
2.68114
2.68672
2.6931
2.69918
2.704
2.70775
2.71106
2.71516
2.72107
2.72792
2.73326
2.73585
2.73642
2.73643
2.73642
2.73635
2.73618
2.73534
2.73554
1
1
1
1
1
1
1
1
1
1
1
1
1
1
1
1
1
1
1
1
1
1
1
1
1
1.99435
2.64781
2.67162
2.67627
2.68112
2.68484
2.68855
2.69256
2.69649
2.69977
2.70241
2.70535
2.70982
2.71572
2.72058
2.72305
2.72305
2.72208
2.7208
2.71936
2.71776
2.71347
2.70737
1
1
1
1
1
1
1
1
1
1
1
1
1
1
1
1
1
1
1
1
1
1
1
1
1
1.78656
2.58444
2.65937
2.67111
2.6788
2.683
2.68601
2.68883
2.69133
2.69314
2.69461
2.69609
2.69865
2.70275
2.7063
2.70822
2.70768
2.70553
2.70204
2.69646
2.6878
2.6774
2.66863
1
1
1
1
1
1
1
1
1
1
1
1
1
1
1
1
1
1
1
1
1
1
1
1
1
1.49749
2.46594
2.64232
2.65785
2.66785
2.67452
2.67947
2.68339
2.68624
2.68756
2.68767
2.68758
2.68808
2.68947
2.69094
2.69147
2.68994
2.68574
2.67861
2.66803
2.65463
2.64378
2.64651
1
1
1
1
1
1
1
1
1
1
1
1
1
1
1
1
1
1
1
1
1
1
1
1
1
1.14534
2.34755
2.63405
2.63297
2.64351
2.65631
2.66615
2.67342
2.6783
2.68063
2.68049
2.6796
2.67847
2.67694
2.67574
2.67391
2.67034
2.66367
2.65311
2.6361
2.60744
2.54608
2.42874
1
1
1
1
1
1
1
1
1
1
1
1
1
1
1
1
1
1
1
1
1
1
1
1
1
1.00557
2.24482
2.61723
2.61642
2.625
2.63576
2.64724
2.65757
2.66534
2.67024
2.6714
2.67052
2.6684
2.66496
2.66099
2.65613
2.64962
2.63965
2.624
2.59872
2.55231
2.48034
2.29451
1
1
1
1
1
1
1
1
1
1
1
1
1
1
1
1
1
1
1
1
1
1
1
1
1
0.999997
2.05514
2.60363
2.61386
2.61813
2.6226
2.63001
2.63954
2.64811
2.65542
2.65908
2.65901
2.65708
2.65295
2.64691
2.63905
2.62898
2.61513
2.5943
2.56241
2.50915
2.41844
2.22182
1
1
1
1
1
1
1
1
1
1
1
1
1
1
1
1
1
1
1
1
1
1
1
1
1
0.999998
1.76865
2.54542
2.61452
2.6146
2.61639
2.61916
2.62444
2.63051
2.63761
2.64298
2.6447
2.64346
2.63952
2.63252
2.62249
2.60911
2.59124
2.56593
2.52826
2.47307
2.37023
2.20399
1
1
1
1
1
1
1
1
1
1
1
1
1
1
1
1
1
1
1
1
1
1
1
1
1
1
1.37765
2.41357
2.607
2.60693
2.60974
2.61155
2.61398
2.61655
2.62072
2.62516
2.62775
2.6272
2.62397
2.61708
2.60606
2.5905
2.56936
2.54044
2.49926
2.44169
2.3418
2.21085
1
1
1
1
1
1
1
1
1
1
1
1
1
1
1
1
1
1
1
1
1
1
1
1
1
1
1.04084
2.26266
2.60108
2.59857
2.60016
2.60313
2.60461
2.60478
2.60584
2.60772
2.60941
2.609
2.60628
2.59992
2.5889
2.57249
2.54958
2.51838
2.47575
2.41645
2.32744
2.22186
1
1
1
1
1
1
1
1
1
1
1
1
1
1
1
1
1
1
1
1
1
1
1
1
1
1
1.00031
2.05707
2.55729
2.58012
2.5891
2.59344
2.59455
2.59412
2.59328
2.59254
2.59191
2.59044
2.5872
2.58098
2.57038
2.55425
2.53124
2.4996
2.45718
2.39907
2.32093
2.23379
1
1
1
1
1
1
1
1
1
1
1
1
1
1
1
1
1
1
1
1
1
1
1
1
1
1
0.999997
1.6843
2.47361
2.56424
2.57471
2.58163
2.5844
2.5841
2.58256
2.58007
2.57705
2.57339
2.56853
2.56151
2.55091
2.53533
2.51323
2.48277
2.44241
2.3876
2.31898
2.24449
1
1
1
1
1
1
1
1
1
1
1
1
1
1
1
1
1
1
1
1
1
1
1
1
1
1
0.999999
1.18808
2.3305
2.56241
2.55959
2.56356
2.56882
2.57073
2.56996
2.56748
2.56341
2.55801
2.55125
2.54269
2.53135
2.51595
2.49498
2.46628
2.42904
2.37908
2.3198
2.25424
1
1
1
1
1
1
1
1
1
1
1
1
1
1
1
1
1
1
1
1
1
1
1
1
1
1
1
1.00874
2.17324
2.53229
2.5358
2.54438
2.55048
2.55413
2.5551
2.55369
2.54999
2.54398
2.53591
2.52577
2.51314
2.49724
2.4769
2.44982
2.41557
2.37122
2.32029
2.26176
1
1
1
1
1
1
1
1
1
1
1
1
1
1
1
1
1
1
1
1
1
1
1
1
1
1
1
0.999988
1.80966
2.47541
2.5196
2.52969
2.53524
2.53859
2.54004
2.53909
2.53598
2.53021
2.52176
2.5107
2.49704
2.48039
2.45982
2.43394
2.40173
2.36289
2.31938
2.2673
1
1
1
1
1
1
1
1
1
1
1
1
1
1
1
1
1
1
1
1
1
1
1
1
1
1
1
0.999995
1.26972
2.34503
2.52471
2.51844
2.51919
2.52119
2.52246
2.52192
2.5197
2.51492
2.50723
2.4964
2.48236
2.46558
2.4443
2.41927
2.38871
2.35427
2.31586
2.26961
1
1
1
1
1
1
1
1
1
1
1
1
1
1
1
1
1
1
1
1
1
1
1
1
1
1
1
0.999999
1.01759
2.17841
2.49904
2.4984
2.50202
2.50388
2.50466
2.50423
2.50241
2.49845
2.49182
2.48202
2.46884
2.45209
2.43093
2.40675
2.37784
2.34637
2.31084
2.2706
1
1
1
1
1
1
1
1
1
1
1
1
1
1
1
1
1
1
1
1
1
1
1
1
1
1
1
1
1.00002
1.7597
2.43233
2.48672
2.48928
2.49055
2.49036
2.4888
2.48599
2.48173
2.47554
2.46674
2.45468
2.43885
2.41898
2.39584
2.36869
2.33915
2.3056
2.26963
1
1
1
1
1
1
1
1
1
1
1
1
1
1
1
1
1
1
1
1
1
1
1
1
1
1
1
1
0.999998
1.16048
2.28509
2.49169
2.48052
2.47794
2.47608
2.47302
2.4693
2.46476
2.45877
2.45068
2.43961
2.42539
2.40757
2.38597
2.36089
2.3329
2.30159
2.26836
1
1
1
1
1
1
1
1
1
1
1
1
1
1
1
1
1
1
1
1
1
1
1
1
1
1
1
1
0.999999
1.00601
2.0746
2.45294
2.45768
2.46326
2.46142
2.458
2.45397
2.44905
2.44276
2.43476
2.42435
2.41129
2.39531
2.37572
2.35306
2.32673
2.29777
2.26674
1
1
1
1
1
1
1
1
1
1
1
1
1
1
1
1
1
1
1
1
1
1
1
1
1
1
1
1
1
0.999984
1.55474
2.34966
2.4483
2.45056
2.44891
2.4459
2.44174
2.43622
2.42908
2.42031
2.40972
2.39718
2.38231
2.36469
2.34435
2.32006
2.29375
2.26511
1
1
1
1
1
1
1
1
1
1
1
1
1
1
1
1
1
1
1
1
1
1
1
1
1
1
1
1
1
0.999995
1.07922
2.17253
2.43992
2.43477
2.43372
2.43183
2.42859
2.4233
2.41584
2.40656
2.3957
2.38342
2.36925
2.353
2.33441
2.31232
2.28852
2.2625
1
1
1
1
1
1
1
1
1
1
1
1
1
1
1
1
1
1
1
1
1
1
1
1
1
1
1
1
1
0.999999
1.00121
1.77579
2.36382
2.41208
2.41479
2.41641
2.41502
2.41075
2.40364
2.39438
2.38345
2.37116
2.35711
2.34142
2.32406
2.30382
2.28217
2.25858
1
1
1
1
1
1
1
1
1
1
1
1
1
1
1
1
1
1
1
1
1
1
1
1
1
1
1
1
1
1
0.999998
1.17681
2.20032
2.40982
2.40159
2.40245
2.40089
2.39687
2.39052
2.38206
2.37171
2.35975
2.34588
2.33043
2.31366
2.29478
2.27473
2.25313
1
1
1
1
1
1
1
1
1
1
1
1
1
1
1
1
1
1
1
1
1
1
1
1
1
1
1
1
1
1
0.999999
1.00674
1.89851
2.36176
2.3782
2.38245
2.38196
2.37965
2.37517
2.3684
2.35947
2.34856
2.33537
2.32033
2.304
2.28606
2.26697
2.24677
1
1
1
1
1
1
1
1
1
1
1
1
1
1
1
1
1
1
1
1
1
1
1
1
1
1
1
1
1
1
1
1.00001
1.26707
2.20925
2.37797
2.37045
2.36792
2.36467
2.36019
2.35425
2.34642
2.33646
2.32425
2.3101
2.29455
2.27762
2.25939
2.24023
1
1
1
1
1
1
1
1
1
1
1
1
1
1
1
1
1
1
1
1
1
1
1
1
1
1
1
1
1
1
1
1
1.01588
1.9545
2.34195
2.35423
2.35095
2.34769
2.3437
2.33841
2.33145
2.32258
2.31174
2.29906
2.2849
2.2693
2.25225
2.23409
1
1
1
1
1
1
1
1
1
1
1
1
1
1
1
1
1
1
1
1
1
1
1
1
1
1
1
1
1
1
1
1
1.00005
1.32554
2.19792
2.34905
2.33963
2.33536
2.33042
2.32446
2.31749
2.30931
2.29966
2.28838
2.27551
2.26107
2.24519
2.22806
1
1
1
1
1
1
1
1
1
1
1
1
1
1
1
1
1
1
1
1
1
1
1
1
1
1
1
1
1
1
1
1
1
1.02399
1.95831
2.31621
2.32618
2.32186
2.31664
2.31043
2.30323
2.29507
2.28595
2.27568
2.26415
2.25128
2.23697
2.22133
1
1
1
1
1
1
1
1
1
1
1
1
1
1
1
1
1
1
1
1
1
1
1
1
1
1
1
1
1
1
1
1
1
1.00013
1.34227
2.16926
2.31682
2.30952
2.30459
2.29812
2.29041
2.28202
2.27314
2.26361
2.2532
2.24178
2.22898
2.21467
1
1
1
1
1
1
1
1
1
1
1
1
1
1
1
1
1
1
1
1
1
1
1
1
1
1
1
1
1
1
1
1
1
1
1.02663
1.90946
2.28191
2.29894
2.29216
2.28536
2.27774
2.26967
2.26109
2.25197
2.24211
2.23139
2.21964
2.20657
1
1
1
1
1
1
1
1
1
1
1
1
1
1
1
1
1
1
1
1
1
1
1
1
1
1
1
1
1
1
1
1
1
1
1.00018
1.30699
2.12336
2.28653
2.27889
2.27369
2.26664
2.25889
2.25054
2.24163
2.23198
2.22153
2.21028
2.1981
1
1
1
1
1
1
1
1
1
1
1
1
1
1
1
1
1
1
1
1
1
1
1
1
1
1
1
1
1
1
1
1
1
1
1
1.021
1.80411
2.23284
2.26978
2.26173
2.25473
2.24787
2.2404
2.23195
2.22248
2.21215
2.20097
2.18904
1
1
1
1
1
1
1
1
1
1
1
1
1
1
1
1
1
1
1
1
1
1
1
1
1
1
1
1
1
1
1
1
1
1
1
1.00014
1.2278
2.05326
2.25537
2.24851
2.24477
2.23896
2.23164
2.22302
2.21343
2.2032
2.19224
2.18051
1
1
1
1
1
1
1
1
1
1
1
1
1
1
1
1
1
1
1
1
1
1
1
1
1
1
1
1
1
1
1
1
1
1
1
1
1.01124
1.62256
2.15816
2.23608
2.23035
2.2257
2.2197
2.21233
2.20372
2.19424
2.18401
2.17278
1
1
1
1
1
1
1
1
1
1
1
1
1
1
1
1
1
1
1
1
1
1
1
1
1
1
1
1
1
1
1
1
1
1
1
1
1.00007
1.12298
1.95522
2.22409
2.21679
2.21181
2.20675
2.20123
2.1943
2.18586
2.17633
2.16563
1
1
1
1
1
1
1
1
1
1
1
1
1
1
1
1
1
1
1
1
1
1
1
1
1
1
1
1
1
1
1
1
1
1
1
1
1
1.00335
1.4383
2.08829
2.20229
2.19451
2.19111
2.18701
2.18164
2.17467
2.16635
2.15694
1
1
1
1
1
1
1
1
1
1
1
1
1
1
1
1
1
1
1
1
1
1
1
1
1
1
1
1
1
1
1
1
1
1
1
1
1
1.00002
1.05082
1.79362
2.16274
2.18976
2.183
2.17685
2.17075
2.16419
2.15682
2.14851
1
1
1
1
1
1
1
1
1
1
1
1
1
1
1
1
1
1
1
1
1
1
1
1
1
1
1
1
1
1
1
1
1
1
1
1
1
1
1.00073
1.24655
1.98401
2.17657
2.16909
2.16339
2.15761
2.15154
2.14503
2.13781
1
1
1
1
1
1
1
1
1
1
1
1
1
1
1
1
1
1
1
1
1
1
1
1
1
1
1
1
1
1
1
1
1
1
1
1
1
1
1
1.01382
1.54399
2.07698
2.15822
2.1511
2.14569
2.14033
2.1344
2.12769
1
1
1
1
1
1
1
1
1
1
1
1
1
1
1
1
1
1
1
1
1
1
1
1
1
1
1
1
1
1
1
1
1
1
1
1
1
1
1
1.00012
1.09063
1.82336
2.12796
2.14552
2.13832
2.1315
2.12477
2.11776
1
1
1
1
1
1
1
1
1
1
1
1
1
1
1
1
1
1
1
1
1
1
1
1
1
1
1
1
1
1
1
1
1
1
1
1
1
1
1
1
1.00207
1.29588
1.96328
2.13033
2.12609
2.11976
2.11335
2.10677
1
1
1
1
1
1
1
1
1
1
1
1
1
1
1
1
1
1
1
1
1
1
1
1
1
1
1
1
1
1
1
1
1
1
1
1
1
1
1
1
1.00001
1.02109
1.55064
2.04094
2.11684
2.10916
2.10227
2.09652
1
1
1
1
1
1
1
1
1
1
1
1
1
1
1
1
1
1
1
1
1
1
1
1
1
1
1
1
1
1
1
1
1
1
1
1
1
1
1
1
1
1.00023
1.09761
1.78251
2.0759
2.10622
2.09713
2.08908
1
1
1
1
1
1
1
1
1
1
1
1
1
1
1
1
1
1
1
1
1
1
1
1
1
1
1
1
1
1
1
1
1
1
1
1
1
1
1
1
1
1
1.0025
1.2688
1.90292
2.08858
2.08764
2.08055
1
1
1
1
1
1
1
1
1
1
1
1
1
1
1
1
1
1
1
1
1
1
1
1
1
1
1
1
1
1
1
1
1
1
1
1
1
1
1
1
1
1
1.00001
1.01759
1.47472
1.98085
2.07603
2.07115
1
1
1
1
1
1
1
1
1
1
1
1
1
1
1
1
1
1
1
1
1
1
1
1
1
1
1
1
1
1
1
1
1
1
1
1
1
1
1
1
1
1
1
1.00019
1.07
1.67419
2.02027
2.06649
1
1
1
1
1
1
1
1
1
1
1
1
1
1
1
1
1
1
1
1
1
1
1
1
1
1
1
1
1
1
1
1
1
1
1
1
1
1
1
1
1
1
1
1
1.0015
1.18398
1.81578
2.03272
1
1
1
1
1
1
1
1
1
1
1
1
1
1
1
1
1
1
1
1
1
1
1
1
1
1
1
1
1
1
1
1
1
1
1
1
1
1
1
1
1
1
1
1
1.00001
1.00846
1.34612
1.88984
1
1
1
1
1
1
1
1
1
1
1
1
1
1
1
1
1
1
1
1
1
1
1
1
1
1
1
1
1
1
1
1
1
1
1
1
1
1
1
1
1
1
1
1
1
1.00008
1.03285
1.51507
1
1
1
1
1
1
1
1
1
1
1
1
1
1
1
1
1
1
1
1
1
1
1
1
1
1
1
1
1
1
1
1
1
1
1
1
1
1
1
1
1
1
1
1
1
1
1.00052
1.09261
1
1
1
1
1
1
1
1
1
1
1
1
1
1
1
1
1
1
1
1
1
1
1
1
1
1
1
1
1
1
1
1
1
1
1
1
1
1
1
1
1
1
1
1
1
1
1
1.00232
1
1
1
1
1
1
1
1
1
1
1
1
1
1
1
1
1
1
1
1
1
1
1
1
1
1
1
1
1
1
1
1
1
1
1
1
1
1
1
1
1
1
1
1
1
1
1
1.00003
1
1
1
1
1
1
1
1
1
1
1
1
1
1
1
1
1
1
1
1
1
1
1
1
1
1
1
1
1
1
1
1
1
1
1
1
1
1
1
1
1
1
1
1
1
1
1
1
1
1
1
1
1
1
1
1
1
1
1
1
1
1
1
1
1
1
1
1
1
1
1
1
1
1
1
1
1
1
1
1
1
1
1
1
1
1
1
1
1
1
1
1
1
1
1
1
1
1
1
1
1
1
1
1
1
1
1
1
1
1
1
1
1
1
1
1
1
1
1
1
1
1
1
1
1
1
1
1
1
1
1
1
1
1
1
1
1
1
1
1
1
1
1
1
1
1
1
1
1
1
1
1
1
1
1
1
1
1
1
1
1
1
1
1
1
1
1
1
1
1
1
1
1
1
1
1
1
1
1
1
1
1
1
1
1
1
1
1
1
1
1
1
1
1
1
1
1
1
1
1
1
1
1
1
1
1
1
1
1
1
1
1
1
1
1
1
1
1
1
1
1
1
1
1
1
1
1
1
1
1
1
1
1
1
1
1
1
1
1
1
1
1
1
1
1
1
1
1
1
1
1
1
1
1
1
1
1
1
1
1
1
1
1
1
1
1
1
1
1
1
1
1
1
1
1
1
1
1
1
1
1
1
1
1
1
1
1
1
1
1
1
1
1
1
1
1
1
1
1
1
1
1
1
1
1
1
1
1
1
1
1
1
1
1
1
1
1
1
1
1
1
1
1
1
1
1
1
1
1
1
1
1
1
1
1
1
1
1
1
1
1
1
1
1
1
1
1
1
1
1
1
1
1
1
1
1
1
1
1
1
1
1
1
1
1
1
1
1
1
1
1
1
1
1
1
1
1
1
1
1
1
1
1
1
1
1
1
1
1
1
1
1
1
1
1
1
1
1
1
1
1
1
1
1
1
1
1
1
1
1
1
1
1
1
1
1
1
1
1
1
1
1
1
1
1
1
1
1
1
1
1
1
1
1
1
1
1
1
1
1
1
1
1
1
1
1
1
1
1
1
1
1
1
1
1
1
1
1
1
1
1
1
1
1
1
1
1
1
1
1
1
1
1
1
1
1
1
1
1
1
1
1
1
1
1
1
1
1
1
1
1
1
1
1
1
1
1
1
1
1
1
1
1
1
1
1
1
1
1
1
1
1
1
1
1
1
1
1
1
1
1
1
1
1
1
1
1
1
1
1
1
1
1
1
1
1
1
1
1
1
1
1
1
1
1
1
1
1
1
1
1
1
1
1
1
1
1
1
1
1
1
1
1
1
1
1
1
1
1
1
1
1
1
1
1
1
1
1
1
1
1
1
1
1
1
1
1
1
1
1
1
1
1
1
1
1
1
1
1
1
1
1
1
1
1
1
1
1
1
1
1
1
1
1
1
1
1
1
1
1
1
1
1
1
1
1
1
1
1
1
1
1
1
1
1
1
1
1
1
1
1
1
1
1
1
1
1
1
1
1
1
1
1
1
1
1
1
1
1
1
1
1
1
1
1
1
1
1
1
1
1
1
1
1
1
1
1
1
1
1
1
1
1
1
1
1
1
1
1
1
1
1
1
1
1
1
1
1
1
1
1
1
1
1
1
1
1
1
1
1
1
1
1
1
1
1
1
1
1
1
1.55901
1.00318
0.542776
0.538112
0.771599
1.03443
1.0854
1.11215
1.21898
1.3416
1.36712
1.3898
1.42962
1.47026
1.51011
1.55708
1.61574
1.66073
1.66131
1.62949
1.59846
1.60679
1.64132
1.66292
1.66072
1.64619
1.61769
1.61029
1.62059
1.64883
1.66692
1.66779
1.66334
1.65177
1.63925
1.63879
1.64165
1.6483
1.65954
1.67108
1.67397
1.6745
1.67638
1.67739
1.67951
1.68026
1.67877
1.67679
1.67699
1.68074
1.68735
1.69115
1.69121
1.69035
1.68934
1.68773
1.6831
2.24816
2.78284
2.78974
2.79616
2.80787
2.8165
2.81706
2.81252
2.80264
2.78982
2.77708
2.76531
2.75551
2.74618
2.73914
2.73492
2.73344
2.73343
2.73182
2.72499
2.71299
2.69938
2.68729
2.67795
2.67101
2.66496
2.65806
2.64924
2.63854
2.62688
2.61546
2.60526
2.59676
2.58992
2.58432
2.57967
2.57571
2.57073
2.5628
2.55343
2.54322
2.53424
2.52685
2.52142
2.5182
2.51496
2.50934
2.50211
2.49432
2.48672
2.47963
2.4717
2.4616
2.45043
2.43848
2.42803
2.42049
2.41498
2.41271
2.41161
2.40827
2.40173
2.3938
2.38449
2.37595
2.36933
2.36353
2.35906
2.35538
2.35124
2.34589
2.33909
2.33089
2.32204
2.31267
2.30238
2.29224
2.28343
2.27647
2.2708
2.26647
2.26412
2.26268
2.26047
2.25693
2.25216
2.24583
2.23679
2.22442
2.21308
2.20487
2.19863
2.19396
2.19021
2.18734
2.18587
2.18523
2.18458
2.18275
2.17878
2.17298
2.16404
2.15158
2.13911
2.12936
2.12179
2.11507
2.10992
2.10779
2.10622
2.10194
2.09705
2.09112
2.08124
2.06927
2.06031
2.05527
2.05198
2.04953
2.04918
2.05104
2.05096
2.04724
2.04235
2.03521
2.02458
2.01452
2.00812
2.00355
1.99947
1.99698
1.99598
1.99222
1.98664
1.97503
1.80851
1.49643
1.23317
1.05086
1.04732
1.09287
1.06682
1.01792
1.02535
1.04113
1.08257
1.10011
1.12353
1.18366
1.25178
1.32557
1.39567
1.44759
1.47378
1.48811
1.4968
1.51254
1.54217
1.57081
1.58542
1.5858
1.58097
1.57633
1.58467
1.5999
1.60966
1.6168
1.6165
1.61396
1.61304
1.61407
1.61801
1.62321
1.63028
1.63942
1.64397
1.6462
1.65033
1.6543
1.65777
1.65874
1.65763
1.65508
1.65483
1.65759
1.66321
1.66706
1.66811
1.66875
1.66857
1.66691
1.66235
2.19669
2.75823
2.78603
2.78352
2.78569
2.78913
2.79026
2.78796
2.78044
2.76878
2.75648
2.74573
2.73741
2.72935
2.71977
2.71062
2.70317
2.69878
2.69781
2.69692
2.69183
2.68111
2.66915
2.65839
2.64962
2.64297
2.63741
2.63086
2.62193
2.6109
2.59937
2.58871
2.57977
2.57269
2.56686
2.56185
2.55759
2.55363
2.54973
2.54525
2.5395
2.53251
2.52475
2.51733
2.51056
2.50391
2.49642
2.48755
2.4779
2.46847
2.46012
2.45349
2.44817
2.44277
2.43514
2.42596
2.41599
2.40738
2.40059
2.39543
2.39223
2.3899
2.38666
2.38139
2.37486
2.36734
2.35992
2.35332
2.34729
2.34111
2.3344
2.32702
2.31992
2.3133
2.30629
2.29905
2.2917
2.28379
2.27554
2.26814
2.26244
2.25807
2.25411
2.24998
2.24525
2.24003
2.23384
2.22631
2.21919
2.21274
2.20624
2.19971
2.1936
2.18846
2.18473
2.18209
2.17978
2.17713
2.17391
2.17035
2.16618
2.15993
2.15121
2.14066
2.12966
2.1204
2.11318
2.10706
2.10246
2.09814
2.09394
2.09009
2.08539
2.07928
2.07202
2.06378
2.05613
2.05104
2.04794
2.04593
2.04441
2.04234
2.04011
2.03705
2.03204
2.02515
2.01692
2.00876
2.00253
1.99791
1.99378
1.9895
1.985
1.98076
1.97096
1.89677
1.67231
1.5428
1.40143
1.25719
1.17327
1.13988
1.11975
1.09909
1.09161
1.07491
1.04916
1.05005
1.07597
1.11237
1.12946
1.16054
1.21261
1.26259
1.30123
1.34231
1.37734
1.40546
1.43251
1.45798
1.48226
1.50946
1.52162
1.53344
1.53573
1.53732
1.54297
1.54665
1.55043
1.55639
1.5631
1.56681
1.56935
1.57471
1.58133
1.58535
1.58986
1.5953
1.6007
1.6052
1.60519
1.60429
1.60342
1.60468
1.60922
1.61501
1.61941
1.62103
1.62232
1.62188
1.61958
1.62132
2.0047
2.66247
2.73243
2.71574
2.70989
2.70818
2.70845
2.7093
2.70768
2.70099
2.69062
2.68025
2.67333
2.66902
2.66541
2.65736
2.6465
2.63625
2.62875
2.62505
2.62413
2.62199
2.61573
2.60687
2.59754
2.58906
2.58215
2.57678
2.57161
2.56434
2.5549
2.54498
2.53561
2.52777
2.52157
2.5155
2.50906
2.50336
2.49932
2.49731
2.49645
2.49534
2.49291
2.48898
2.4838
2.47761
2.4705
2.46225
2.4524
2.44057
2.4277
2.41717
2.4097
2.40627
2.4048
2.40117
2.395
2.38755
2.37734
2.36603
2.35837
2.35384
2.35218
2.35173
2.34965
2.34575
2.34103
2.33526
2.32833
2.32059
2.31243
2.30427
2.29633
2.28884
2.28226
2.27689
2.27255
2.26797
2.26253
2.25665
2.25019
2.24272
2.23477
2.22761
2.2212
2.2147
2.20802
2.20267
2.19913
2.19554
2.19136
2.18692
2.18269
2.17899
2.17519
2.17059
2.1651
2.15964
2.15524
2.15131
2.14685
2.14267
2.13871
2.13299
2.12579
2.11662
2.10683
2.09776
2.08986
2.08333
2.07773
2.07229
2.06798
2.06554
2.06256
2.05923
2.05481
2.04838
2.04089
2.03447
2.0303
2.02733
2.02429
2.02082
2.01826
2.01601
2.01228
2.00738
2.00026
1.99161
1.9839
1.97802
1.97254
1.96704
1.95821
1.97879
1.79635
1.66647
1.5632
1.47732
1.37224
1.27272
1.22884
1.21059
1.20291
1.18912
1.16357
1.13086
1.11502
1.10382
1.09857
1.10744
1.13074
1.15653
1.17457
1.201
1.2383
1.2771
1.31139
1.3391
1.36564
1.40515
1.43301
1.44864
1.4594
1.46695
1.47665
1.4891
1.49709
1.50533
1.51292
1.51451
1.51637
1.52039
1.52438
1.52767
1.53227
1.53695
1.54107
1.54175
1.54163
1.54168
1.54223
1.54465
1.54943
1.5553
1.55966
1.56041
1.56083
1.56176
1.56882
1.59148
1.76372
2.45454
2.65218
2.6205
2.5968
2.59175
2.58945
2.58935
2.59076
2.58976
2.58385
2.57508
2.56701
2.56063
2.55734
2.55541
2.55056
2.54357
2.5359
2.52924
2.52577
2.52451
2.52412
2.52141
2.51559
2.50834
2.50119
2.49512
2.49118
2.48824
2.48319
2.47631
2.46825
2.4597
2.45306
2.44818
2.44386
2.43916
2.43464
2.43104
2.42868
2.42702
2.42536
2.42294
2.41949
2.41483
2.4093
2.40406
2.39854
2.39185
2.38401
2.37498
2.3658
2.35853
2.35316
2.34874
2.34405
2.33797
2.3308
2.32346
2.31666
2.31082
2.30693
2.30466
2.30194
2.29846
2.29445
2.28925
2.28352
2.27878
2.27485
2.27094
2.26628
2.26021
2.25331
2.2466
2.24064
2.2352
2.23037
2.22478
2.21821
2.21014
2.20084
2.19208
2.18496
2.17919
2.17507
2.17216
2.16977
2.16695
2.16364
2.15975
2.15524
2.15058
2.14624
2.14204
2.13781
2.13358
2.1292
2.12459
2.12054
2.11743
2.11438
2.11082
2.10606
2.09933
2.09062
2.08132
2.07219
2.06306
2.05447
2.04801
2.04389
2.04174
2.04091
2.03992
2.03757
2.0339
2.02807
2.02014
2.01176
2.00461
2.00005
1.99758
1.99644
1.99646
1.9962
1.99368
1.98923
1.98223
1.97222
1.96198
1.95373
1.94786
1.94045
2.04641
1.90289
1.78228
1.66605
1.59073
1.52651
1.45096
1.34558
1.28997
1.29523
1.28608
1.25504
1.21498
1.19782
1.18371
1.15618
1.14711
1.15425
1.16713
1.16714
1.15785
1.1576
1.16737
1.18603
1.21789
1.25642
1.30761
1.35522
1.38096
1.40131
1.41432
1.4255
1.4414
1.45006
1.46065
1.47335
1.47708
1.48014
1.48493
1.49199
1.49689
1.50135
1.50665
1.5074
1.50648
1.50548
1.50581
1.50659
1.50831
1.51167
1.51679
1.52117
1.5226
1.52406
1.52923
1.55842
1.66197
1.77825
2.13948
2.46307
2.53434
2.50795
2.4883
2.47871
2.47877
2.48082
2.48382
2.4825
2.47791
2.46972
2.46216
2.45873
2.45764
2.45864
2.45647
2.45229
2.44554
2.43877
2.43648
2.43563
2.43598
2.43449
2.42994
2.4233
2.41671
2.41223
2.4096
2.40781
2.40441
2.3999
2.39319
2.38474
2.37873
2.37463
2.3713
2.36826
2.36508
2.36168
2.3582
2.35517
2.35256
2.34979
2.34599
2.34042
2.3339
2.32861
2.32456
2.32066
2.31653
2.31214
2.30648
2.29955
2.29232
2.28498
2.27757
2.27129
2.26657
2.2628
2.25999
2.25735
2.25397
2.25021
2.24604
2.24088
2.23428
2.22733
2.22254
2.22009
2.21835
2.21684
2.21516
2.2124
2.2083
2.2024
2.19547
2.18871
2.18183
2.17417
2.16539
2.15549
2.14532
2.13716
2.13273
2.13035
2.12945
2.12952
2.1291
2.12769
2.12513
2.12029
2.1123
2.10366
2.09779
2.09417
2.09159
2.08971
2.08835
2.08705
2.08521
2.08249
2.07887
2.0741
2.06757
2.05954
2.05135
2.04333
2.03534
2.02795
2.02195
2.01734
2.0141
2.01176
2.00929
2.00679
2.00376
1.9993
1.99341
1.98676
1.98002
1.97482
1.97219
1.97077
1.97027
1.96961
1.96773
1.96469
1.9596
1.95157
1.94208
1.93374
1.92858
1.92171
2.09411
1.97541
1.87455
1.77197
1.67166
1.60829
1.56014
1.48565
1.40194
1.36715
1.35765
1.33812
1.2976
1.26787
1.25546
1.23484
1.20769
1.20346
1.20428
1.19851
1.18033
1.16531
1.16555
1.17002
1.17699
1.187
1.20555
1.23936
1.26828
1.29575
1.33006
1.35989
1.39546
1.4165
1.42937
1.44518
1.45383
1.45867
1.46535
1.47326
1.47714
1.48067
1.48557
1.48763
1.48722
1.48656
1.48788
1.49038
1.49308
1.49636
1.50091
1.50375
1.50638
1.51338
1.54531
1.64894
1.81333
1.86035
1.9261
2.20855
2.40221
2.45661
2.44205
2.4205
2.4096
2.40911
2.41405
2.41935
2.41754
2.4115
2.40121
2.39681
2.39602
2.39745
2.39964
2.39739
2.39366
2.38639
2.37994
2.37748
2.3762
2.37561
2.37252
2.3676
2.36113
2.35585
2.35277
2.35136
2.34988
2.34716
2.3431
2.33609
2.32785
2.32279
2.31914
2.31556
2.31173
2.30771
2.30342
2.29955
2.29653
2.29373
2.29026
2.28526
2.27893
2.27366
2.27044
2.26794
2.26596
2.26292
2.2582
2.25156
2.24292
2.23463
2.22839
2.22408
2.22088
2.21876
2.21638
2.21303
2.20872
2.20394
2.19896
2.19342
2.18733
2.1814
2.1765
2.17333
2.17148
2.17034
2.16996
2.16925
2.16701
2.16276
2.15517
2.14628
2.13814
2.13047
2.12285
2.11509
2.10713
2.09937
2.09357
2.09057
2.08922
2.08933
2.0896
2.08888
2.08717
2.0828
2.07393
2.06329
2.05604
2.05264
2.05104
2.05032
2.05002
2.04961
2.04867
2.04645
2.04236
2.03643
2.02949
2.02274
2.01656
2.01066
2.00497
1.99946
1.99402
1.98882
1.98412
1.98002
1.97629
1.97233
1.96792
1.96362
1.95989
1.95657
1.95309
1.94879
1.94408
1.94134
1.94015
1.93882
1.93672
1.93339
1.92855
1.92247
1.91603
1.90981
1.90523
1.89906
2.13025
2.02978
1.94102
1.85241
1.76105
1.68704
1.63016
1.57841
1.51858
1.44828
1.42111
1.40543
1.37888
1.33546
1.31026
1.30217
1.28613
1.26197
1.25195
1.24662
1.22985
1.20463
1.19718
1.19781
1.20117
1.20046
1.19732
1.1949
1.19468
1.2002
1.21804
1.25139
1.29767
1.35225
1.38242
1.4077
1.43293
1.44449
1.45251
1.46036
1.46211
1.46488
1.47052
1.47745
1.48048
1.48108
1.48263
1.48519
1.48723
1.48928
1.49254
1.49718
1.50498
1.55125
1.66794
1.808
1.88808
1.90168
1.90815
1.98019
2.21323
2.38895
2.42445
2.40518
2.38598
2.38096
2.38398
2.39347
2.39633
2.39206
2.38162
2.36981
2.36606
2.36498
2.36781
2.36977
2.36771
2.36326
2.35469
2.34899
2.34654
2.34562
2.34509
2.34186
2.33705
2.33092
2.32631
2.32315
2.32061
2.31724
2.31284
2.30677
2.29885
2.29248
2.28862
2.28524
2.28148
2.27716
2.27215
2.26672
2.26181
2.25749
2.25327
2.24881
2.24434
2.24042
2.23746
2.23539
2.23335
2.23003
2.22532
2.21779
2.20799
2.20018
2.19555
2.19204
2.18979
2.18833
2.18584
2.18241
2.1773
2.17032
2.16344
2.15767
2.15286
2.14888
2.14553
2.14285
2.14124
2.14086
2.14091
2.13947
2.13579
2.12868
2.11835
2.10812
2.10009
2.09363
2.08805
2.08318
2.07877
2.07415
2.06935
2.06565
2.06367
2.06265
2.0612
2.05865
2.05396
2.04687
2.0386
2.03067
2.0245
2.02097
2.01935
2.01886
2.01887
2.0185
2.01751
2.01441
2.00738
1.99851
1.99172
1.98761
1.98444
1.98114
1.97786
1.97444
1.97008
1.96493
1.95878
1.95175
1.945
1.93933
1.93506
1.93228
1.93053
1.92921
1.9278
1.92548
1.92129
1.91529
1.91025
1.90728
1.90458
1.90139
1.89799
1.89484
1.89211
1.88885
1.88496
1.87757
2.15594
2.07223
1.99244
1.90855
1.83532
1.76831
1.6981
1.64285
1.59901
1.54305
1.48656
1.46001
1.44439
1.41281
1.37041
1.35726
1.35181
1.33888
1.31431
1.29399
1.27807
1.256
1.23562
1.23007
1.2302
1.22923
1.21999
1.20656
1.19926
1.20034
1.20248
1.20703
1.21931
1.24523
1.27723
1.30631
1.34784
1.38589
1.41066
1.43166
1.44201
1.44875
1.45531
1.4679
1.47868
1.48096
1.48202
1.48331
1.48309
1.48371
1.48815
1.50064
1.55513
1.6906
1.82383
1.89812
1.90504
1.90649
1.90924
1.91619
1.99872
2.23047
2.38843
2.40455
2.38517
2.37883
2.37899
2.38808
2.39298
2.38844
2.37894
2.36533
2.35614
2.35309
2.35338
2.35688
2.35625
2.35366
2.34761
2.33863
2.33353
2.33127
2.33109
2.32932
2.32526
2.31924
2.31181
2.30675
2.30277
2.29869
2.29464
2.29013
2.28442
2.27807
2.27359
2.26985
2.2657
2.26097
2.25524
2.24861
2.24272
2.23821
2.23455
2.23159
2.22925
2.22661
2.22295
2.21856
2.21436
2.20993
2.20417
2.19702
2.18954
2.18348
2.17926
2.17608
2.1741
2.17233
2.1694
2.16563
2.15929
2.14992
2.14198
2.13738
2.13413
2.13141
2.1293
2.12754
2.12552
2.12266
2.11845
2.11215
2.10483
2.09644
2.08845
2.08175
2.07637
2.07248
2.0694
2.06694
2.06512
2.06261
2.05911
2.05406
2.04732
2.04093
2.03566
2.03044
2.02464
2.01879
2.01409
2.01076
2.00756
2.00421
2.00169
2.00014
1.99864
1.99663
1.99311
1.98696
1.97817
1.96972
1.96435
1.96156
1.95956
1.95777
1.95667
1.95515
1.95173
1.94727
1.93989
1.92956
1.92034
1.91465
1.9117
1.90993
1.90893
1.90891
1.90851
1.90715
1.90399
1.89663
1.8867
1.87978
1.87642
1.87435
1.87306
1.87204
1.87106
1.86937
1.86687
1.86012
2.17827
2.10677
2.03355
1.95636
1.89297
1.83148
1.76476
1.70525
1.66009
1.6146
1.56001
1.51817
1.50339
1.48301
1.44477
1.40309
1.39435
1.39038
1.37594
1.34946
1.32112
1.30143
1.29011
1.27711
1.26906
1.2683
1.26214
1.24468
1.22816
1.22694
1.22655
1.22141
1.22216
1.22133
1.21957
1.22184
1.23647
1.26634
1.3049
1.34784
1.38885
1.42205
1.43727
1.45126
1.46781
1.47279
1.47467
1.47639
1.47491
1.47989
1.50547
1.57119
1.70476
1.82988
1.88956
1.90784
1.90829
1.90968
1.9141
1.91876
1.92901
2.01038
2.2284
2.37716
2.38851
2.38404
2.38175
2.38228
2.38643
2.38409
2.37705
2.36863
2.358
2.35106
2.34806
2.34811
2.35101
2.34949
2.34582
2.33849
2.32973
2.32497
2.32255
2.3208
2.3171
2.3116
2.30369
2.29576
2.29037
2.28652
2.28389
2.28046
2.27627
2.27095
2.26536
2.26103
2.25683
2.25224
2.24673
2.24
2.23381
2.22946
2.22597
2.22381
2.22195
2.21866
2.21432
2.20817
2.20091
2.19491
2.18959
2.18462
2.18034
2.17645
2.17292
2.16996
2.16708
2.16384
2.16028
2.15517
2.14764
2.13873
2.13179
2.1277
2.12452
2.1221
2.12026
2.11752
2.11365
2.1075
2.09914
2.09035
2.08225
2.07587
2.07111
2.06796
2.06568
2.06394
2.06293
2.06223
2.06043
2.05687
2.05163
2.044
2.03406
2.02381
2.01589
2.01009
2.00597
2.00344
2.00196
2.00186
2.00121
1.99869
1.99401
1.98753
1.98109
1.97511
1.96907
1.96304
1.95713
1.95246
1.94921
1.94673
1.94492
1.94377
1.94312
1.9416
1.93837
1.93262
1.92385
1.91423
1.90666
1.90171
1.89875
1.89702
1.89639
1.89665
1.89579
1.89288
1.88788
1.88029
1.87165
1.86354
1.85848
1.85692
1.85613
1.85555
1.85472
1.85294
1.85079
1.84545
2.19596
2.13337
2.06492
1.99952
1.94144
1.88117
1.81814
1.76573
1.71436
1.67256
1.63433
1.58284
1.5509
1.53422
1.50959
1.47645
1.44169
1.42412
1.41489
1.39826
1.36822
1.34262
1.33892
1.33223
1.31588
1.30587
1.30067
1.28777
1.26656
1.25919
1.2578
1.25082
1.23953
1.23411
1.22551
1.22
1.22129
1.22613
1.23605
1.25288
1.2827
1.31868
1.35901
1.38957
1.42045
1.43583
1.44983
1.4586
1.46417
1.49528
1.60621
1.72419
1.84321
1.88387
1.88691
1.89388
1.90179
1.91163
1.91655
1.9197
1.9184
1.92387
1.99614
2.20421
2.35681
2.391
2.38774
2.38027
2.37665
2.37362
2.37187
2.3677
2.36207
2.35333
2.34673
2.34386
2.34329
2.34521
2.34303
2.33779
2.33042
2.32252
2.31791
2.3146
2.31076
2.30578
2.29862
2.28991
2.28367
2.27927
2.27595
2.27298
2.26904
2.26434
2.25864
2.2541
2.25018
2.24616
2.24168
2.23638
2.23046
2.22552
2.22202
2.21959
2.21661
2.21239
2.20759
2.20112
2.19217
2.18422
2.17981
2.17674
2.1743
2.17219
2.16942
2.16556
2.1606
2.15471
2.14862
2.14325
2.1378
2.13209
2.12658
2.12154
2.11763
2.11446
2.11132
2.10757
2.10244
2.09525
2.08584
2.07661
2.06964
2.06568
2.06345
2.06232
2.06219
2.06169
2.06001
2.05764
2.05353
2.04739
2.04049
2.03284
2.02452
2.01528
2.00645
2.00109
1.99838
1.99715
1.99846
1.99949
1.99741
1.99339
1.98636
1.97602
1.96571
1.95784
1.952
1.94736
1.94517
1.94377
1.94278
1.94151
1.93956
1.93694
1.93361
1.92877
1.9227
1.91666
1.91031
1.90457
1.90053
1.8972
1.89412
1.89141
1.88904
1.88614
1.88134
1.87673
1.87236
1.86786
1.86373
1.85911
1.85273
1.84689
1.84442
1.84293
1.84133
1.83958
1.83826
1.83433
2.21141
2.15493
2.09242
2.03595
1.98097
1.92108
1.86529
1.81885