/*--------------------------------*- C++ -*----------------------------------*\
  =========                 |
  \\      /  F ield         | OpenFOAM: The Open Source CFD Toolbox
   \\    /   O peration     | Website:  https://openfoam.org
    \\  /    A nd           | Version:  7
     \\/     M anipulation  |
\*---------------------------------------------------------------------------*/
FoamFile
{
    version     2.0;
    format      ascii;
    class       volScalarField;
    location    "2.8";
    object      T;
}
// * * * * * * * * * * * * * * * * * * * * * * * * * * * * * * * * * * * * * //

dimensions      [0 0 0 1 0 0 0];

internalField   nonuniform List<scalar> 
4032
(
1
1
1
1
1
1
1
1
1
1
1
1.00941
2.30277
2.71038
2.72655
2.74429
2.76135
2.77709
2.78968
2.79843
2.80563
2.81405
2.82372
2.83047
1
1
1
1
1
1
1
1
1
1
1
1.00069
2.28258
2.70809
2.72537
2.74257
2.75945
2.77488
2.78704
2.79527
2.80197
2.80993
2.81913
2.8256
1
1
1
1
1
1
1
1
1
1
1
1.00001
2.23869
2.70549
2.72313
2.7396
2.75612
2.77103
2.78262
2.79024
2.79642
2.80411
2.81309
2.81974
1
1
1
1
1
1
1
1
1
1
1
1
2.16916
2.69796
2.71957
2.73552
2.75164
2.76592
2.77695
2.78387
2.78915
2.79581
2.80349
2.80866
1
1
1
1
1
1
1
1
1
1
1
1
2.07061
2.68118
2.71311
2.72858
2.74419
2.75759
2.76752
2.77298
2.77648
2.78179
2.78848
2.79461
1
1
1
1
1
1
1
1
1
1
1
1
1.93637
2.64976
2.69953
2.71617
2.7325
2.74576
2.75507
2.7599
2.76231
2.76623
2.76898
2.76615
1
1
1
1
1
1
1
1
1
1
1
1
1.75626
2.59435
2.67893
2.70029
2.71823
2.73168
2.73996
2.74292
2.74157
2.73787
2.733
2.72891
1
1
1
1
1
1
1
1
1
1
1
1
1.49615
2.49187
2.65186
2.67877
2.69906
2.71316
2.72122
2.72222
2.71704
2.71085
2.70746
2.71975
1
1
1
1
1
1
1
1
1
1
1
1
1.14763
2.35919
2.63631
2.65287
2.67068
2.68511
2.69343
2.69327
2.68465
2.66606
2.6164
2.51727
1
1
1
1
1
1
1
1
1
1
1
1
1.0059
2.23203
2.60604
2.61658
2.63272
2.64793
2.6568
2.65584
2.64426
2.61273
2.55674
2.39445
1
1
1
1
1
1
1
1
1
1
1
1
0.999997
1.99286
2.57908
2.60194
2.61431
2.62064
2.62381
2.61922
2.60383
2.56553
2.50118
2.31963
1
1
1
1
1
1
1
1
1
1
1
1
0.999998
1.59432
2.47039
2.58138
2.59156
2.59633
2.59351
2.58332
2.56248
2.52346
2.4491
2.28957
1
1
1
1
1
1
1
1
1
1
1
1
1
1.09979
2.30503
2.5792
2.57063
2.56877
2.56317
2.54969
2.52502
2.48552
2.40911
2.29104
1
1
1
1
1
1
1
1
1
1
1
1
1
1.00259
2.10198
2.51537
2.53694
2.53648
2.53069
2.51671
2.49291
2.45098
2.38127
2.28963
1
1
1
1
1
1
1
1
1
1
1
1
1
0.999981
1.63524
2.39513
2.51298
2.51127
2.50411
2.48901
2.46559
2.42287
2.36282
2.28856
1
1
1
1
1
1
1
1
1
1
1
1
1
0.999995
1.10968
2.20431
2.48514
2.48137
2.47519
2.45926
2.43729
2.39808
2.34707
2.28461
1
1
1
1
1
1
1
1
1
1
1
1
1
0.999999
1.00264
1.88615
2.39663
2.45169
2.44282
2.43046
2.4093
2.37561
2.33275
2.27944
1
1
1
1
1
1
1
1
1
1
1
1
1
1
0.999994
1.24895
2.21991
2.42708
2.41095
2.40125
2.38107
2.35111
2.31424
2.26913
1
1
1
1
1
1
1
1
1
1
1
1
1
1
0.999998
1.01416
1.98634
2.36944
2.37078
2.36488
2.34903
2.32356
2.29195
2.25444
1
1
1
1
1
1
1
1
1
1
1
1
1
1
1
1.00003
1.36395
2.20614
2.35634
2.33762
2.31973
2.2979
2.27176
2.23998
1
1
1
1
1
1
1
1
1
1
1
1
1
1
1
1
1.03168
1.98186
2.31962
2.30874
2.29045
2.2708
2.24807
2.22091
1
1
1
1
1
1
1
1
1
1
1
1
1
1
1
1
1.0002
1.37718
2.15265
2.29317
2.26932
2.24893
2.22637
2.20174
1
1
1
1
1
1
1
1
1
1
1
1
1
1
1
1
1
1.03396
1.87961
2.25696
2.24682
2.2263
2.2049
2.1821
1
1
1
1
1
1
1
1
1
1
1
1
1
1
1
1
1
1.00029
1.295
2.06615
2.22945
2.20478
2.18748
2.1669
1
1
1
1
1
1
1
1
1
1
1
1
1
1
1
1
1
1
1.01968
1.66557
2.13491
2.19164
2.17262
2.15316
1
1
1
1
1
1
1
1
1
1
1
1
1
1
1
1
1
1
1.00017
1.14886
1.89604
2.16797
2.15361
2.13776
1
1
1
1
1
1
1
1
1
1
1
1
1
1
1
1
1
1
1
1.00503
1.39
1.99825
2.13282
2.1157
1
1
1
1
1
1
1
1
1
1
1
1
1
1
1
1
1
1
1
1.00003
1.04086
1.64056
2.0343
2.10395
1
1
1
1
1
1
1
1
1
1
1
1
1
1
1
1
1
1
1
1
1.00062
1.15208
1.79124
2.05999
1
1
1
1
1
1
1
1
1
1
1
1
1
1
1
1
1
1
1
1
1
1.00571
1.31124
1.8732
1
1
1
1
1
1
1
1
1
1
1
1
1
1
1
1
1
1
1
1
1
1.00004
1.02613
1.46361
1
1
1
1
1
1
1
1
1
1
1
1
1
1
1
1
1
1
1
1
1
1
1.00036
1.07171
1
1
1
1
1
1
1
1
1
1
1
1
1
1
1
1
1
1
1
1
1
1
1
1.0017
1
1
1
1
1
1
1
1
1
1
1
1
1
1
1
1
1
1
1
1
1
1
1
1.00001
1
1
1
1
1
1
1
1
1
1
1
1
1
1
1
1
1
1
1
1
1
1
1
1
1
1
1
1
1
1
1
1
1
1
1
1
1
1
1
1
1
1
1
1
1
1
1
1
1
1
1
1
1
1
1
1
1
1
1
1
1
1
1
1
1
1
1
1
1
1
1
1
1
1
1
1
1
1
1
1
1
1
1
1
1
1
1
1
1
1
1
1
1
1
1
1
1
1
1
1
1
1
1
1
1
1
1
1
1
1
1
1
1
1
1
1
1
1
1
1
1
1
1
1
1
1
1
1
1
1
1
1
1
1
1
1
1
1
1
1
1
1
1
1
1.69478
1.2207
1.01481
1.01648
1.11541
1.24951
1.32851
1.40912
1.5198
1.60608
1.64143
1.67096
1.70623
1.73322
1.73907
1.73564
1.728
1.72696
1.73738
1.74515
1.73911
1.71881
1.70927
1.71075
1.71209
1.71397
1.71729
1.71662
1.71398
1.71081
1.70772
1.70457
1.69743
1.70463
2.34938
2.88722
2.84464
2.78746
2.7561
2.73298
2.7166
2.694
2.66359
2.62427
2.59109
2.56949
2.55652
2.54598
2.53352
2.51638
2.49444
2.4706
2.4472
2.42711
2.40996
2.39469
2.38105
2.36728
2.3534
2.33958
2.32276
2.30526
2.28841
2.2728
2.26008
2.25013
2.24161
2.2344
2.22759
2.21845
2.20687
2.19088
2.16728
2.1445
2.13158
2.12318
2.11585
2.11008
2.1063
2.10062
2.09178
2.08052
2.06244
2.03869
2.02219
2.0121
2.00392
1.99848
1.99503
1.99065
1.98555
1.9757
1.95613
1.93633
1.92834
1.91763
1.91516
1.63454
1.53598
1.40229
1.3141
1.2984
1.2707
1.2761
1.29496
1.33639
1.37927
1.41568
1.46443
1.52093
1.56213
1.58788
1.61198
1.63264
1.65296
1.66996
1.67207
1.66708
1.66651
1.67057
1.67218
1.67151
1.67158
1.67385
1.67766
1.68471
1.68616
1.68095
1.68542
1.73754
2.18185
2.71806
2.75015
2.70861
2.67353
2.66055
2.65127
2.63823
2.61707
2.58527
2.55777
2.53865
2.52516
2.51415
2.50343
2.49039
2.47176
2.44982
2.42819
2.40985
2.39456
2.38124
2.36819
2.35395
2.33913
2.32402
2.30994
2.29522
2.28084
2.26739
2.25472
2.24326
2.23318
2.22436
2.21542
2.20578
2.19525
2.18241
2.16531
2.1463
2.13025
2.11943
2.1119
2.10584
2.10043
2.09288
2.08382
2.07296
2.05871
2.03985
2.02186
2.00971
2.00132
1.99487
1.98939
1.98453
1.9793
1.97147
1.95721
1.93876
1.92665
1.91413
2.03999
1.81921
1.68459
1.57116
1.47892
1.41636
1.35037
1.28547
1.26203
1.24982
1.25879
1.28712
1.31259
1.34342
1.38418
1.41842
1.45754
1.5008
1.53168
1.5544
1.5733
1.58242
1.59349
1.60785
1.61353
1.61221
1.60675
1.60126
1.60239
1.60977
1.61735
1.63133
1.69192
1.86902
2.0368
2.35264
2.53675
2.57337
2.56095
2.5614
2.55284
2.54247
2.52595
2.50752
2.49345
2.47978
2.46469
2.45102
2.44009
2.43137
2.42044
2.40575
2.38837
2.37027
2.35497
2.34277
2.33197
2.32053
2.30633
2.28975
2.27494
2.26167
2.25032
2.24046
2.23182
2.2232
2.21293
2.20094
2.18892
2.17784
2.1664
2.15418
2.14293
2.13181
2.12041
2.1087
2.09846
2.09003
2.08209
2.07386
2.06458
2.05363
2.04173
2.0298
2.01723
2.00377
1.99169
1.9827
1.9759
1.96996
1.96358
1.9561
1.94756
1.93659
1.92395
1.90649
2.09642
1.94651
1.81134
1.68965
1.60645
1.53554
1.47059
1.40671
1.37001
1.33821
1.30477
1.27923
1.26988
1.27525
1.28758
1.30459
1.33742
1.38702
1.42478
1.44363
1.46357
1.48378
1.50277
1.52525
1.54852
1.55467
1.55387
1.5492
1.54518
1.54633
1.55857
1.61473
1.78296
1.99282
2.01415
2.06383
2.2309
2.37779
2.43538
2.47241
2.46272
2.44942
2.43161
2.42035
2.41421
2.40565
2.39357
2.37922
2.36855
2.36019
2.35203
2.34331
2.33266
2.31867
2.30313
2.28944
2.2782
2.26793
2.25692
2.24411
2.23072
2.21875
2.20783
2.19818
2.19031
2.18325
2.17495
2.16395
2.15163
2.13959
2.12791
2.11772
2.10933
2.10171
2.09386
2.08457
2.0734
2.06215
2.05259
2.04382
2.03419
2.02434
2.01657
2.00907
2.00039
1.9897
1.97651
1.96413
1.95508
1.94739
1.93958
1.93294
1.9284
1.92293
1.91552
1.89765
2.14871
2.02588
1.90786
1.79147
1.71684
1.64755
1.56632
1.50105
1.45258
1.41687
1.38818
1.35746
1.32413
1.28745
1.27924
1.28165
1.2906
1.31031
1.33643
1.35605
1.37756
1.41055
1.43638
1.4603
1.48625
1.50246
1.50423
1.50469
1.505
1.51363
1.5743
1.75097
1.92649
2.02156
2.0094
1.99375
2.02025
2.14845
2.29596
2.37557
2.41631
2.40597
2.38438
2.37005
2.36301
2.35548
2.34691
2.33578
2.32339
2.31206
2.30237
2.29462
2.28647
2.27586
2.26226
2.24767
2.23435
2.22267
2.21188
2.20076
2.18965
2.1791
2.16843
2.15863
2.15023
2.14241
2.13334
2.12104
2.10686
2.09579
2.08803
2.08151
2.07512
2.06862
2.06173
2.05342
2.0421
2.02808
2.01503
2.00523
1.99818
1.9934
1.98896
1.98361
1.97637
1.96733
1.9549
1.93944
1.92665
1.91762
1.91085
1.90666
1.90382
1.90041
1.89615
1.88317
2.18232
2.08189
1.97842
1.87785
1.79768
1.72848
1.66061
1.60345
1.54523
1.48341
1.453
1.43585
1.41265
1.37498
1.33307
1.30728
1.30307
1.30566
1.30672
1.30968
1.31632
1.33451
1.36216
1.38525
1.412
1.44627
1.46515
1.47381
1.48406
1.53803
1.74164
1.93502
2.00298
1.99932
1.99098
1.98507
1.98511
2.00356
2.09959
2.24122
2.34906
2.36475
2.3582
2.34778
2.33998
2.33073
2.3199
2.3078
2.29341
2.28151
2.27239
2.26403
2.25526
2.24515
2.23295
2.21931
2.20597
2.1936
2.18166
2.16975
2.15918
2.14884
2.13794
2.12765
2.11878
2.11077
2.10194
2.08957
2.07326
2.06186
2.05594
2.05034
2.04451
2.03814
2.03115
2.02275
2.01136
1.99628
1.98069
1.97088
1.96698
1.96427
1.96145
1.95773
1.95195
1.94447
1.93308
1.91418
1.89558
1.88646
1.88279
1.88046
1.87842
1.87587
1.87257
1.86276
2.20442
2.12153
2.02963
1.94446
1.87164
1.79676
1.72354
1.676
1.62631
1.57446
1.51665
1.48323
1.46395
1.4401
1.40949
1.36986
1.33039
1.31311
1.30967
1.31217
1.32098
1.32636
1.32287
1.31875
1.32714
1.35292
1.39092
1.42761
1.48681
1.68763
1.91446
1.99225
2.00793
1.99643
1.98679
1.9862
1.98332
1.97592
1.98288
2.03995
2.18233
2.2891
2.32476
2.33082
2.33021
2.31902
2.30314
2.28922
2.27262
2.25959
2.25025
2.24151
2.23262
2.22213
2.21069
2.19954
2.18885
2.17769
2.16475
2.14989
2.13709
2.1267
2.11589
2.10529
2.09602
2.0878
2.07938
2.0682
2.05178
2.03772
2.03118
2.0254
2.01901
2.01193
2.00405
1.99496
1.98388
1.97019
1.95622
1.94791
1.94386
1.94072
1.93775
1.9343
1.92964
1.92284
1.91051
1.88993
1.87082
1.86291
1.85928
1.85647
1.8541
1.85189
1.84909
1.84084
2.21496
2.14337
2.0655
1.99255
1.92654
1.85188
1.78195
1.73176
1.684
1.63641
1.59205
1.54751
1.50418
1.48347
1.46811
1.44351
1.40505
1.36404
1.35026
1.34581
1.34147
1.33596
1.32679
1.31525
1.30615
1.30904
1.32301
1.37032
1.5674
1.82039
1.92911
1.96423
1.97016
1.96284
1.95633
1.96492
1.96836
1.96389
1.95317
1.94224
1.97587
2.08984
2.22058
2.2779
2.29817
2.30221
2.28615
2.27138
2.25547
2.24291
2.231
2.21764
2.20537
2.19578
2.18762
2.18116
2.17388
2.16563
2.15458
2.13791
2.11898
2.10594
2.09605
2.08664
2.07788
2.07012
2.06281
2.05369
2.03877
2.01952
2.00915
2.00333
1.99702
1.98977
1.98163
1.97263
1.96291
1.95246
1.94135
1.93138
1.92503
1.92109
1.91789
1.9141
1.90843
1.899
1.88523
1.86905
1.85487
1.84587
1.84065
1.83699
1.83399
1.83188
1.83097
1.82481
2.21944
2.15828
2.09122
2.02403
1.96468
1.9011
1.83652
1.78307
1.73347
1.68444
1.64916
1.61488
1.56722
1.5213
1.50317
1.48848
1.46645
1.44055
1.41089
1.37945
1.35447
1.34178
1.33897
1.33247
1.32483
1.31978
1.34779
1.50577
1.73728
1.82474
1.86782
1.87602
1.87875
1.89007
1.90862
1.92551
1.93323
1.93029
1.92276
1.91405
1.90039
1.91777
2.00501
2.14291
2.2233
2.26179
2.25874
2.24807
2.23588
2.22432
2.21249
2.1942
2.17796
2.16919
2.16195
2.15802
2.15486
2.14811
2.13971
2.12639
2.10542
2.08685
2.0764
2.06786
2.05989
2.05292
2.04607
2.03887
2.02793
2.00896
1.99011
1.98115
1.97501
1.96864
1.96147
1.95391
1.94671
1.93952
1.9307
1.91928
1.91035
1.90611
1.90167
1.89576
1.88716
1.87569
1.86362
1.8534
1.84409
1.83491
1.82805
1.82376
1.82004
1.81628
1.81321
1.80524
2.21763
2.16412
2.10589
2.04888
1.99252
1.9319
1.87787
1.8319
1.78237
1.72563
1.68989
1.66234
1.62778
1.58804
1.54723
1.51519
1.50046
1.48856
1.46935
1.44406
1.40756
1.37271
1.36462
1.35956
1.35082
1.36805
1.50367
1.71456
1.82825
1.82672
1.81712
1.80522
1.79966
1.80146
1.81613
1.83187
1.85069
1.86241
1.87099
1.87034
1.86882
1.86815
1.87785
1.9325
2.04021
2.15414
2.19566
2.20996
2.21373
2.2031
2.19254
2.1731
2.152
2.14094
2.13422
2.13059
2.12869
2.12283
2.11507
2.10551
2.09078
2.0713
2.05583
2.04678
2.03917
2.03213
2.02537
2.01906
2.01156
1.99863
1.97856
1.962
1.95312
1.94652
1.94089
1.93609
1.93125
1.92614
1.91963
1.90937
1.89532
1.88342
1.8759
1.86949
1.86254
1.85453
1.84738
1.84095
1.8333
1.82413
1.81622
1.81092
1.80617
1.80113
1.79551
1.78365
2.21199
2.16499
2.11528
2.0654
2.01438
1.96072
1.90973
1.86482
1.82033
1.77424
1.73524
1.69501
1.66065
1.63459
1.60429
1.57167
1.53544
1.5077
1.49619
1.48503
1.46495
1.43516
1.40038
1.38346
1.39537
1.51381
1.73423
1.8505
1.84726
1.82817
1.80617
1.79095
1.78731
1.78371
1.77207
1.75834
1.75913
1.76667
1.77743
1.79197
1.81159
1.8217
1.82583
1.82651
1.85033
1.93749
2.05224
2.12819
2.16157
2.17309
2.16868
2.1531
2.13286
2.11604
2.10688
2.10114
2.09684
2.09152
2.08403
2.07653
2.0678
2.05559
2.03929
2.02481
2.01565
2.00826
2.00151
1.99546
1.98934
1.98106
1.96743
1.94825
1.93311
1.92572
1.92079
1.91686
1.91425
1.91041
1.90524
1.89644
1.8793
1.86097
1.85094
1.84435
1.83889
1.83529
1.83264
1.82905
1.82278
1.81259
1.80179
1.7943
1.78841
1.78268
1.77625
1.76364
2.20352
2.16205
2.11846
2.07417
2.0271
1.98006
1.93623
1.89223
1.84658
1.80768
1.7739
1.73579
1.69343
1.66086
1.63707
1.61235
1.58435
1.55662
1.52222
1.49925
1.49146
1.47563
1.44825
1.4559
1.56578
1.7745
1.89132
1.88605
1.86056
1.83613
1.81869
1.80519
1.79003
1.77554
1.76226
1.7495
1.73454
1.72077
1.71042
1.71059
1.71826
1.7315
1.7444
1.75174
1.75085
1.76327
1.83156
1.94343
2.05586
2.10679
2.12995
2.13153
2.11819
2.10185
2.08368
2.07117
2.06437
2.05805
2.05165
2.04542
2.03974
2.03316
2.02287
2.00733
1.99273
1.98323
1.97593
1.96963
1.96394
1.95785
1.94924
1.93552
1.91838
1.90634
1.90036
1.89628
1.8934
1.89062
1.88654
1.87923
1.8627
1.83987
1.8267
1.82117
1.81818
1.8166
1.81567
1.81392
1.81038
1.80105
1.7851
1.77426
1.7692
1.76333
1.75669
1.74496
2.18882
2.15322
2.1162
2.077
2.03459
1.99436
1.95539
1.91453
1.87172
1.83497
1.79954
1.76525
1.72809
1.69829
1.66852
1.63264
1.61079
1.59506
1.56976
1.5359
1.50847
1.49346
1.50778
1.6224
1.83023
1.94471
1.93597
1.90757
1.87836
1.85697
1.84117
1.82366
1.80429
1.78509
1.76698
1.74882
1.72868
1.70996
1.69809
1.68879
1.68006
1.67341
1.66883
1.66946
1.66918
1.66476
1.6719
1.71333
1.82263
1.9454
2.04485
2.08315
2.08912
2.08713
2.07072
2.05117
2.03717
2.02897
2.02283
2.01896
2.01385
2.00911
2.00275
1.99078
1.97366
1.96016
1.95137
1.94453
1.93878
1.93338
1.92712
1.91827
1.90562
1.89201
1.88172
1.87465
1.87018
1.86706
1.86373
1.8574
1.84375
1.82356
1.80842
1.8023
1.7992
1.79739
1.79636
1.79511
1.79292
1.78609
1.77037
1.75343
1.74363
1.73764
1.73265
1.72439
2.17321
2.14243
2.11091
2.07594
2.03867
2.00395
1.96769
1.92856
1.89088
1.85763
1.82257
1.78673
1.75305
1.7258
1.69799
1.66789
1.63348
1.61196
1.59617
1.57076
1.54045
1.5501
1.66963
1.87577
1.99034
1.98444
1.95596
1.9269
1.90168
1.8792
1.8592
1.8401
1.82063
1.80063
1.78054
1.75993
1.73791
1.71468
1.69418
1.67824
1.66547
1.65467
1.64547
1.63853
1.62972
1.61587
1.59889
1.59255
1.60889
1.68142
1.81091
1.94026
2.01796
2.05086
2.04857
2.03959
2.02178
2.00934
2.0033
1.99874
1.99245
1.98744
1.98181
1.97193
1.95616
1.94042
1.92985
1.92248
1.91652
1.9111
1.90541
1.89858
1.88939
1.87753
1.86528
1.85549
1.84821
1.84222
1.83654
1.83004
1.82096
1.80905
1.79761
1.78769
1.78061
1.77694
1.77508
1.77416
1.77212
1.76634
1.75383
1.73439
1.7211
1.71425
1.711
1.70676
2.15705
2.13076
2.1024
2.07083
2.03886
2.00732
1.97371
1.9371
1.9056
1.87292
1.83989
1.80441
1.77675
1.74722
1.71671
1.69105
1.66533
1.63935
1.61245
1.58869
1.60098
1.72369
1.9234
2.02816
2.0248
1.99838
1.97154
1.94638
1.91996
1.89543
1.87418
1.85409
1.83383
1.81347
1.79333
1.7733
1.75203
1.72777
1.70239
1.68059
1.66373
1.64922
1.63621
1.62414
1.61223
1.60166
1.58866
1.56833
1.55289
1.54867
1.56946
1.65731
1.79153
1.92399
1.98314
2.00662
2.00061
1.99452
1.99099
1.98292
1.97566
1.96883
1.96087
1.95109
1.93867
1.92482
1.91346
1.90522
1.89845
1.89224
1.88598
1.87921
1.87123
1.86093
1.84891
1.83821
1.82952
1.82145
1.81347
1.80552
1.79824
1.79173
1.7843
1.77566
1.76723
1.75999
1.75363
1.74811
1.74511
1.74261
1.73454
1.71815
1.70221
1.69558
1.69436
1.6911
2.14391
2.11998
2.09367
2.06475
2.03661
2.00702
1.97501
1.9433
1.91422
1.88333
1.85091
1.81894
1.79326
1.76517
1.73711
1.70786
1.68622
1.66159
1.63482
1.65154
1.78682
1.97653
2.06152
2.05648
2.03106
2.00657
1.98579
1.96158
1.93404
1.90677
1.88295
1.86193
1.84184
1.82218
1.803
1.78392
1.76383
1.74094
1.71534
1.69131
1.67147
1.65425
1.63821
1.62189
1.60623
1.59191
1.57731
1.55942
1.54084
1.52936
1.51927
1.51329
1.53708
1.62362
1.75841
1.87902
1.94415
1.94976
1.96022
1.96302
1.95677
1.94822
1.93884
1.92925
1.9192
1.90773
1.89791
1.89063
1.88408
1.87775
1.87115
1.86348
1.85457
1.84469
1.83455
1.82437
1.81373
1.80369
1.79477
1.78694
1.78035
1.7743
1.7682
1.76152
1.75325
1.74431
1.73581
1.72815
1.72146
1.71391
1.70633
1.69775
1.68764
1.68009
1.67841
1.67487
2.13197
2.10861
2.08348
2.05818
2.03186
2.00368
1.97307
1.94596
1.91758
1.88893
1.85699
1.83172
1.80513
1.77905
1.75079
1.72523
1.70208
1.67765
1.70286
1.86114
2.06041
2.10473
2.08377
2.05377
2.03065
2.01393
1.99454
1.97232
1.94686
1.91707
1.88851
1.86562
1.84558
1.82648
1.80797
1.78968
1.7706
1.74916
1.72404
1.69718
1.67382
1.65526
1.63928
1.62367
1.60779
1.59139
1.57388
1.55594
1.53743
1.52059
1.50531
1.49454
1.48607
1.47878
1.50231
1.58341
1.72277
1.82671
1.9029
1.92227
1.92219
1.92403
1.91737
1.90758
1.89795
1.88714
1.87775
1.87169
1.86636
1.86096
1.85515
1.84871
1.84141
1.8323
1.81942
1.80301
1.79043
1.78348
1.77807
1.7729
1.76756
1.76113
1.75262
1.7425
1.73387
1.72697
1.72016
1.71275
1.70368
1.69383
1.6852
1.67867
1.67274
1.66771
1.6646
1.65927
2.11935
2.09728
2.07361
2.05
2.0253
1.99831
1.97166
1.94586
1.91947
1.89137
1.86431
1.84074
1.81499
1.7895
1.76073
1.73822
1.71789
1.74991
1.91773
2.12118
2.15778
2.12906
2.08562
2.05498
2.03608
2.01851
1.99804
1.97708
1.95419
1.92585
1.89395
1.86763
1.84657
1.82726
1.80883
1.79082
1.77249
1.75268
1.73047
1.70621
1.68167
1.65922
1.6397
1.62277
1.60773
1.59282
1.57652
1.55844
1.53961
1.52043
1.50222
1.48655
1.47293
1.46058
1.4518
1.44609
1.4709
1.55243
1.68071
1.78322
1.84616
1.87662
1.88814
1.88783
1.8809
1.87067
1.86165
1.85293
1.84448
1.83815
1.83344
1.82983
1.82593
1.81871
1.80443
1.7861
1.77295
1.76539
1.76014
1.75625
1.75252
1.74717
1.7384
1.7274
1.7173
1.70865
1.70179
1.696
1.6898
1.6824
1.67279
1.66335
1.65748
1.65324
1.64974
1.64337
2.09851
2.08078
2.06152
2.0399
2.01625
1.9921
1.96968
1.94493
1.91961
1.89236
1.87037
1.84553
1.82178
1.7937
1.76961
1.75301
1.79275
1.96845
2.14781
2.18951
2.16852
2.1338
2.09737
2.06426
2.04165
2.01984
1.99832
1.97751
1.95571
1.93036
1.90048
1.87113
1.84757
1.82725
1.808
1.78901
1.76984
1.75007
1.72931
1.70744
1.68502
1.66287
1.64118
1.62061
1.60179
1.58428
1.56773
1.55207
1.53685
1.52024
1.50299
1.48598
1.46979
1.45485
1.44075
1.4289
1.42159
1.41792
1.43773
1.5165
1.62804
1.73773
1.79689
1.83331
1.84681
1.84951
1.8466
1.83644
1.82628
1.8202
1.81557
1.81026
1.80383
1.79559
1.78472
1.77
1.757
1.74976
1.74494
1.74071
1.7364
1.73121
1.72378
1.71186
1.6999
1.69384
1.69062
1.68745
1.68321
1.67649
1.66559
1.6519
1.64079
1.6362
1.63402
1.63034
2.08521
2.06641
2.04978
2.03105
2.00924
1.98828
1.9663
1.94328
1.91777
1.89534
1.87247
1.84928
1.82293
1.79738
1.78716
1.84789
2.04223
2.18869
2.21443
2.19395
2.16303
2.13553
2.10671
2.07462
2.04504
2.01928
1.99672
1.97551
1.9538
1.93017
1.90391
1.87664
1.85077
1.82707
1.8047
1.78287
1.76169
1.74131
1.72162
1.7023
1.68301
1.66315
1.64233
1.62101
1.60032
1.5813
1.56378
1.54722
1.53127
1.51576
1.50097
1.4866
1.47225
1.45711
1.44118
1.42587
1.41101
1.40128
1.39619
1.39289
1.40962
1.48216
1.59697
1.70222
1.75696
1.78942
1.80462
1.81033
1.80941
1.80439
1.79778
1.7903
1.78244
1.77367
1.76267
1.75041
1.74029
1.73339
1.72837
1.72454
1.72174
1.71916
1.71231
1.69856
1.686
1.67927
1.67443
1.67022
1.66539
1.6584
1.64949
1.63803
1.62791
1.62263
1.61881
1.61092
2.06997
2.05408
2.0375
2.0194
2.0002
1.98139
1.96078
1.93838
1.91518
1.89463
1.87238
1.84782
1.82282
1.81706
1.89516
2.11577
2.25535
2.24241
2.20955
2.17836
2.15369
2.13341
2.10718
2.07827
2.04895
2.01993
1.99384
1.97077
1.94838
1.92548
1.90192
1.87801
1.85375
1.82892
1.80313
1.77702
1.75194
1.72919
1.70897
1.69058
1.67315
1.65575
1.63738
1.61748
1.59685
1.57742
1.56001
1.54424
1.52918
1.51396
1.49843
1.48321
1.46888
1.45474
1.44129
1.42709
1.41189
1.39864
1.38629
1.3786
1.37421
1.37075
1.38959
1.45296
1.56585
1.66212
1.73298
1.75178
1.76758
1.77715
1.77445
1.76982
1.76133
1.75053
1.74093
1.73201
1.72361
1.71696
1.71258
1.70916
1.70504
1.69845
1.68923
1.68047
1.67349
1.66586
1.65908
1.65441
1.65004
1.64387
1.63349
1.6225
1.61735
1.61298
1.60763
1.59698
2.04226
2.0364
2.02103
2.00432
1.98845
1.97175
1.953
1.93169
1.91218
1.89283
1.87007
1.84562
1.84889
1.9499
2.1536
2.29174
2.29416
2.25478
2.20634
2.17025
2.14655
2.12771
2.10387
2.07756
2.05119
2.0232
1.99245
1.96293
1.9371
1.9136
1.89146
1.86987
1.84804
1.82488
1.7995
1.7722
1.74491
1.72044
1.69965
1.68114
1.66369
1.64674
1.62957
1.61113
1.59126
1.57192
1.55504
1.54092
1.52807
1.51489
1.50093
1.48581
1.4699
1.4543
1.44034
1.42725
1.41518
1.40284
1.38964
1.37745
1.36602
1.35762
1.35158
1.34895
1.36935
1.42946
1.53598
1.62888
1.69826
1.73685
1.74167
1.73962
1.73448
1.72729
1.7193
1.71203
1.70508
1.70153
1.70004
1.69623
1.68936
1.67968
1.67105
1.66393
1.65452
1.64816
1.64554
1.64212
1.63748
1.63008
1.62015
1.61203
1.60467
1.59512
1.58681
1.57803
1.91461
2.0181
2.00673
1.98812
1.97465
1.95988
1.94316
1.92429
1.90698
1.88831
1.87027
1.88587
2.0189
2.2115
2.30202
2.30329
2.27727
2.2452
2.21016
2.1728
2.14239
2.11856
2.09556
2.06985
2.04353
2.016
1.98552
1.95347
1.92436
1.89948
1.87711
1.85582
1.83478
1.81304
1.7895
1.76371
1.73711
1.71268
1.69239
1.67517
1.65901
1.64282
1.62623
1.60844
1.58883
1.56881
1.55115
1.53699
1.52544
1.51483
1.50304
1.48882
1.47287
1.4573
1.44336
1.43109
1.42015
1.40893
1.39843
1.38747
1.3739
1.35991
1.34661
1.3378
1.3332
1.33209
1.34859
1.41241
1.508
1.6094
1.66728
1.70462
1.71434
1.71415
1.71049
1.70154
1.69296
1.6867
1.67952
1.67149
1.66565
1.66209
1.6582
1.65091
1.64081
1.63171
1.62439
1.61924
1.61448
1.60963
1.60542
1.60079
1.59382
1.58378
1.57439
1.56508
1.59329
1.92904
1.99503
1.97749
1.95958
1.94595
1.93178
1.91276
1.89961
1.89059
1.9289
2.09468
2.28269
2.32368
2.31129
2.2782
2.25271
2.2318
2.20488
2.17005
2.13634
2.10766
2.08099
2.05461
2.02802
2.00052
1.97117
1.94048
1.91175
1.88703
1.86496
1.84382
1.82273
1.80137
1.7792
1.75556
1.73116
1.70785
1.68756
1.67068
1.65583
1.64101
1.62492
1.60762
1.58882
1.56908
1.55138
1.53681
1.52389
1.51169
1.5001
1.48922
1.47725
1.46307
1.44869
1.43502
1.42105
1.40712
1.39597
1.3881
1.38145
1.37254
1.35891
1.34457
1.33173
1.32535
1.32127
1.32226
1.33777
1.39887
1.48846
1.58454
1.6357
1.67709
1.68765
1.68716
1.68499
1.67934
1.66564
1.65467
1.64974
1.64505
1.63861
1.63088
1.62318
1.6158
1.60843
1.60223
1.5975
1.59445
1.5925
1.58986
1.5841
1.57124
1.56221
1.55699
1.14549
1.6845
1.92618
1.97147
1.95461
1.93624
1.91583
1.90282
1.90862
1.98392
2.15968
2.32083
2.34666
2.31301
2.28252
2.2548
2.23234
2.21119
2.18516
2.15252
2.11943
2.09064
2.06351
2.03682
2.0104
1.98396
1.95682
1.92894
1.90199
1.87777
1.85607
1.83565
1.81542
1.79475
1.77348
1.75154
1.7287
1.70634
1.68651
1.6696
1.6546
1.64066
1.62667
1.61113
1.5931
1.5736
1.5547
1.53999
1.52866
1.51744
1.50591
1.49372
1.48015
1.46693
1.45341
1.43787
1.42291
1.4117
1.403
1.3943
1.38458
1.37378
1.36383
1.35325
1.33945
1.3313
1.32463
1.31714
1.31266
1.31252
1.32596
1.37861
1.47703
1.57518
1.62195
1.64379
1.65608
1.65465
1.65006
1.64342
1.63867
1.63303
1.62591
1.61871
1.61108
1.60004
1.5895
1.58624
1.58596
1.58671
1.58629
1.58367
1.57644
1.56159
1.54785
1.5381
1.00594
1.23486
1.73151
1.92166
1.94748
1.92983
1.90968
1.93447
2.05739
2.22856
2.32502
2.34338
2.32358
2.29086
2.26036
2.2366
2.21415
2.18993
2.16353
2.1339
2.10368
2.07579
2.04971
2.02436
1.99932
1.97421
1.94876
1.92311
1.89777
1.87392
1.85221
1.83211
1.81259
1.79288
1.77246
1.75153
1.73134
1.71204
1.69204
1.67382
1.65956
1.64593
1.63104
1.61569
1.60111
1.58539
1.56746
1.55012
1.53665
1.52798
1.51975
1.50763
1.49147
1.4715
1.45483
1.44606
1.43846
1.42888
1.41824
1.40722
1.39649
1.38535
1.37343
1.36104
1.3495
1.33944
1.3301
1.32139
1.3123
1.3075
1.30452
1.30248
1.31879
1.37128
1.46556
1.54581
1.61643
1.62167
1.61527
1.61502
1.61234
1.61002
1.61043
1.60914
1.60295
1.59025
1.57837
1.57556
1.57543
1.57447
1.57126
1.56677
1.56031
1.55068
1.53768
1.52568
1.00005
1.01543
1.3149
1.76577
1.90886
1.914
1.98283
2.14018
2.29017
2.3304
2.32915
2.31963
2.29847
2.27391
2.24626
2.22194
2.19976
2.17605
2.15081
2.12367
2.09582
2.06897
2.04355
2.01911
1.99528
1.97156
1.94739
1.92275
1.89812
1.87441
1.85242
1.8322
1.81316
1.79465
1.77614
1.75754
1.73875
1.72089
1.70794
1.69565
1.68027
1.66478
1.64887
1.63189
1.61345
1.59431
1.57887
1.56597
1.55232
1.53854
1.52251
1.50487
1.4887
1.47595
1.46456
1.45064
1.43625
1.42461
1.4137
1.40361
1.39488
1.38781
1.38192
1.37495
1.36556
1.35336
1.33971
1.32765
1.31617
1.30851
1.30395
1.29827
1.29286
1.28809
1.30619
1.35956
1.45144
1.52113
1.57244
1.59598
1.59847
1.5966
1.59416
1.58918
1.58442
1.58105
1.57817
1.57546
1.57243
1.56809
1.56214
1.55605
1.5492
1.53976
1.5295
1.51872
1
1.00018
1.03159
1.39636
1.72911
1.98704
2.25557
2.33296
2.37033
2.36036
2.34075
2.3227
2.30559
2.28475
2.25817
2.23425
2.21474
2.19402
2.17094
2.14582
2.11904
2.09235
2.06727
2.04356
2.02034
1.99703
1.97326
1.94903
1.92468
1.90086
1.87837
1.85741
1.83781
1.81926
1.80146
1.78379
1.76561
1.74779
1.72968
1.71053
1.69099
1.67517
1.66443
1.65304
1.63674
1.61685
1.59559
1.57857
1.56618
1.55089
1.5329
1.51423
1.49726
1.48335
1.4717
1.45877
1.44231
1.42808
1.41823
1.40928
1.40148
1.39484
1.38616
1.37358
1.36191
1.35321
1.34417
1.33367
1.32449
1.31664
1.30879
1.30094
1.29088
1.27932
1.26638
1.26177
1.27855
1.33646
1.42177
1.49769
1.54572
1.57471
1.58437
1.58377
1.58103
1.57727
1.57159
1.56424
1.55657
1.55021
1.54741
1.54519
1.5418
1.53678
1.52573
1.5301
1
1
1.00061
1.05534
1.49576
2.30776
2.50933
2.46893
2.44152
2.41543
2.38549
2.35885
2.34204
2.32169
2.29393
2.26939
2.25129
2.23024
2.20636
2.18111
2.15364
2.12524
2.09824
2.07274
2.04755
2.02193
1.99556
1.96854
1.94161
1.91595
1.89244
1.87105
1.85119
1.83235
1.81423
1.79641
1.77838
1.76026
1.74335
1.72846
1.71437
1.698
1.67857
1.65754
1.64011
1.62781
1.61472
1.59643
1.5726
1.5501
1.53636
1.52707
1.5148
1.49964
1.48188
1.46414
1.44656
1.4302
1.42315
1.4202
1.41547
1.40768
1.39601
1.38011
1.36448
1.35596
1.35229
1.34708
1.33976
1.33042
1.31863
1.3067
1.29432
1.27945
1.26315
1.25083
1.24148
1.24224
1.26109
1.32647
1.40863
1.49035
1.52492
1.55532
1.57216
1.57293
1.5716
1.56517
1.55402
1.54695
1.54412
1.54357
1.54374
1.55053
1.56643
1.63842
1
1
1
1.0014
1.78493
2.70186
2.69047
2.61463
2.5557
2.52148
2.49463
2.4671
2.44173
2.41422
2.38153
2.35105
2.32728
2.30461
2.27854
2.2497
2.21772
2.18419
2.15191
2.12123
2.09131
2.06145
2.03123
2.00084
1.97137
1.9442
1.91989
1.89808
1.87799
1.85864
1.83909
1.81927
1.80029
1.78265
1.76493
1.74606
1.72714
1.70839
1.68858
1.67006
1.65365
1.63534
1.61515
1.59577
1.57617
1.55855
1.54255
1.52543
1.51021
1.49581
1.48022
1.4628
1.44776
1.43791
1.42962
1.41998
1.41096
1.40262
1.39294
1.38105
1.36952
1.36003
1.35102
1.34314
1.33505
1.3267
1.31782
1.30804
1.29588
1.28048
1.26415
1.25135
1.24083
1.23413
1.22464
1.22695
1.24712
1.31318
1.40096
1.47997
1.52621
1.54058
1.55272
1.55094
1.54999
1.55172
1.55976
1.58081
1.61714
1.66785
1.72032
1.79265
1
1
1
1.00002
2.14884
2.86317
2.82746
2.76733
2.71251
2.66689
2.62812
2.58975
2.55109
2.51094
2.47076
2.43347
2.40253
2.37555
2.34369
2.30837
2.271
2.23337
2.19631
2.16009
2.12478
2.09006
2.05582
2.0229
1.99273
1.96588
1.94186
1.91979
1.89877
1.87804
1.85716
1.83632
1.81597
1.79625
1.77705
1.75817
1.7393
1.7202
1.70124
1.68215
1.66172
1.6405
1.62004
1.60124
1.58391
1.56674
1.54825
1.52968
1.51249
1.49606
1.47997
1.46488
1.4526
1.44199
1.43108
1.41995
1.41059
1.40281
1.39509
1.3859
1.37429
1.36196
1.35228
1.34497
1.33676
1.32807
1.32187
1.31374
1.30255
1.28966
1.27664
1.26361
1.25077
1.23808
1.22374
1.20965
1.20227
1.20829
1.24212
1.30952
1.39912
1.47697
1.52466
1.54256
1.57284
1.61663
1.66951
1.71456
1.75663
1.79404
1.81397
1.83021
1
1
1
1
2.23715
2.89672
2.87497
2.82452
2.77531
2.73344
2.70007
2.66535
2.62606
2.58222
2.53729
2.49472
2.45669
2.41953
2.3791
2.33828
2.29767
2.25737
2.21717
2.17753
2.13895
2.10144
2.06519
2.0313
2.00105
1.97445
1.95056
1.9283
1.90676
1.88531
1.86371
1.84213
1.82091
1.80046
1.7811
1.76287
1.74534
1.72764
1.70845
1.68709
1.66424
1.64155
1.62106
1.60327
1.5867
1.57008
1.55289
1.53456
1.51477
1.49509
1.47825
1.46525
1.45426
1.44379
1.43353
1.42309
1.4112
1.39855
1.38887
1.38295
1.37726
1.3688
1.35588
1.34282
1.33495
1.32836
1.31899
1.30629
1.29285
1.28012
1.26845
1.25674
1.24437
1.2317
1.21839
1.20423
1.19077
1.18191
1.18295
1.1947
1.24454
1.33686
1.4529
1.57456
1.67132
1.74898
1.81785
1.87925
1.92215
1.94162
1.93585
1.90531
)
;

boundaryField
{
    inlet
    {
        type            fixedValue;
        value           uniform 1;
    }
    outlet
    {
        type            inletOutlet;
        inletValue      uniform 1;
        value           nonuniform List<scalar> 
32
(
1.91833
1.91472
1.90638
1.89666
1.88256
1.86273
1.84124
1.82572
1.80518
1.783
1.76298
1.74455
1.72475
1.70776
1.69211
1.67578
1.65988
1.64374
1.63075
1.6107
1.59633
1.57828
1.56541
1.55776
1.53848
1.52571
1.51834
1.52862
1.63515
1.79002
1.8283
1.90461
)
;
    }
    bottom
    {
        type            symmetryPlane;
    }
    top
    {
        type            symmetryPlane;
    }
    obstacle
    {
        type            zeroGradient;
    }
    defaultFaces
    {
        type            empty;
    }
}


// ************************************************************************* //
