/*--------------------------------*- C++ -*----------------------------------*\
  =========                 |
  \\      /  F ield         | OpenFOAM: The Open Source CFD Toolbox
   \\    /   O peration     | Website:  https://openfoam.org
    \\  /    A nd           | Version:  7
     \\/     M anipulation  |
\*---------------------------------------------------------------------------*/
FoamFile
{
    version     2.0;
    format      ascii;
    class       volScalarField;
    location    "1.1";
    object      T;
}
// * * * * * * * * * * * * * * * * * * * * * * * * * * * * * * * * * * * * * //

dimensions      [0 0 0 1 0 0 0];

internalField   nonuniform List<scalar> 
4032
(
1
1
1
1
1
1
1
1
1
1
1
1
1
2.24397
2.7551
2.79832
2.81739
2.8274
2.83603
2.85106
2.87906
2.92099
2.96931
2.99459
1
1
1
1
1
1
1
1
1
1
1
1
1
2.22413
2.7518
2.79622
2.81419
2.8245
2.83292
2.84773
2.87542
2.91693
2.96494
2.99022
1
1
1
1
1
1
1
1
1
1
1
1
1
2.17654
2.74705
2.79241
2.80949
2.82006
2.82823
2.84309
2.87068
2.91182
2.95913
2.98432
1
1
1
1
1
1
1
1
1
1
1
1
1
2.09862
2.73545
2.78595
2.80178
2.81297
2.82138
2.83615
2.86321
2.90415
2.95022
2.97454
1
1
1
1
1
1
1
1
1
1
1
1
1
1.98506
2.71283
2.77404
2.78889
2.8012
2.81014
2.8241
2.84877
2.88959
2.93493
2.96084
1
1
1
1
1
1
1
1
1
1
1
1
1
1.839
2.67359
2.75541
2.77158
2.78524
2.79493
2.80837
2.83155
2.87244
2.91599
2.93499
1
1
1
1
1
1
1
1
1
1
1
1
1
1.63349
2.59455
2.72571
2.74669
2.76213
2.77307
2.78582
2.80448
2.83831
2.87884
2.89868
1
1
1
1
1
1
1
1
1
1
1
1
1
1.33517
2.46231
2.696
2.71539
2.73124
2.74234
2.75195
2.76759
2.79823
2.84376
2.89012
1
1
1
1
1
1
1
1
1
1
1
1
1
1.0313
2.31562
2.67821
2.68162
2.69402
2.70551
2.71298
2.72245
2.73431
2.72207
2.6557
1
1
1
1
1
1
1
1
1
1
1
1
1
1.00026
2.11403
2.63341
2.66006
2.67241
2.67733
2.67828
2.67702
2.66653
2.63558
2.50129
1
1
1
1
1
1
1
1
1
1
1
1
1
0.999999
1.7589
2.53791
2.63896
2.65362
2.65274
2.64719
2.63682
2.61111
2.56414
2.40358
1
1
1
1
1
1
1
1
1
1
1
1
1
1
1.2541
2.36616
2.62416
2.62254
2.6215
2.61374
2.59655
2.56702
2.50297
2.35614
1
1
1
1
1
1
1
1
1
1
1
1
1
1
1.01574
2.18149
2.57386
2.57331
2.57756
2.57221
2.55509
2.52246
2.4551
2.34666
1
1
1
1
1
1
1
1
1
1
1
1
1
1
1.00003
1.75516
2.46745
2.55405
2.55083
2.53985
2.51891
2.48356
2.4226
2.3367
1
1
1
1
1
1
1
1
1
1
1
1
1
1
1
1.14935
2.26424
2.52701
2.51767
2.50487
2.4815
2.44636
2.39258
2.32288
1
1
1
1
1
1
1
1
1
1
1
1
1
1
1
1.00483
1.9605
2.43937
2.48058
2.47151
2.4499
2.41461
2.36724
2.30803
1
1
1
1
1
1
1
1
1
1
1
1
1
1
1
0.999998
1.31381
2.25801
2.45366
2.43483
2.41511
2.38268
2.34053
2.28931
1
1
1
1
1
1
1
1
1
1
1
1
1
1
1
0.999999
1.02101
1.98737
2.3877
2.38645
2.37381
2.34919
2.31393
2.27061
1
1
1
1
1
1
1
1
1
1
1
1
1
1
1
1
1.00008
1.34833
2.1973
2.36701
2.34111
2.3195
2.28998
2.25284
1
1
1
1
1
1
1
1
1
1
1
1
1
1
1
1
1
1.02587
1.86319
2.29856
2.29981
2.28372
2.2611
2.23079
1
1
1
1
1
1
1
1
1
1
1
1
1
1
1
1
1
1.00018
1.25509
2.08417
2.28527
2.2592
2.23842
2.21113
1
1
1
1
1
1
1
1
1
1
1
1
1
1
1
1
1
1
1.01265
1.60548
2.14368
2.23829
2.2071
2.18296
1
1
1
1
1
1
1
1
1
1
1
1
1
1
1
1
1
1
1.00008
1.10547
1.85806
2.19628
2.18334
2.15942
1
1
1
1
1
1
1
1
1
1
1
1
1
1
1
1
1
1
1
1.00231
1.30976
1.98662
2.16043
2.13942
1
1
1
1
1
1
1
1
1
1
1
1
1
1
1
1
1
1
1
1.00001
1.0209
1.52064
2.02139
2.1209
1
1
1
1
1
1
1
1
1
1
1
1
1
1
1
1
1
1
1
1
1.00019
1.07697
1.67674
2.01759
1
1
1
1
1
1
1
1
1
1
1
1
1
1
1
1
1
1
1
1
1
1.00153
1.17213
1.7622
1
1
1
1
1
1
1
1
1
1
1
1
1
1
1
1
1
1
1
1
1
1.00001
1.00657
1.27534
1
1
1
1
1
1
1
1
1
1
1
1
1
1
1
1
1
1
1
1
1
1
1.00004
1.01829
1
1
1
1
1
1
1
1
1
1
1
1
1
1
1
1
1
1
1
1
1
1
1
1.00019
1
1
1
1
1
1
1
1
1
1
1
1
1
1
1
1
1
1
1
1
1
1
1
1
1
1
1
1
1
1
1
1
1
1
1
1
1
1
1
1
1
1
1
1
1
1
1
1
1
1
1
1
1
1
1
1
1
1
1
1
1
1
1
1
1
1
1
1
1
1
1
1
1
1
1
1
1
1
1
1
1
1
1
1
1
1
1
1
1
1
1
1
1
1
1
1
1
1
1
1
1
1
1
1
1
1
1
1
1
1
1
1
1
1
1
1
1
1
1
1
1
1
1
1
1
1
1
1
1
1
1
1
1
1
1
1
1
1
1
1
1
1
1
1
1
1
1
1
1
1
1
1
1
1
1
1
1
1
1
1
1
1
1
1
1
1
1
1
1
1
1
1
1
1
1
1
1
1
1
1
1
1
1
1
1
1
1
1
1
1
1
1
1
1
1
1
1
1
1
1
1
1
1
1
1
1
1
1
1
1
1
1
1
1
1
1
1
1
1
1
1
1
1
1
1
1
1
1
1
1
1
1
1
1
1
1
1
1
1
1
1.80945
1.27884
0.981136
1.01715
1.21995
1.37446
1.49885
1.60394
1.67196
1.69202
1.69487
1.7295
1.80559
1.83314
1.83575
1.83629
1.8243
1.82166
1.82965
1.83886
1.83625
1.819
1.79709
1.79581
1.80025
1.81011
1.81901
1.8204
1.81732
1.80828
1.80176
1.79884
1.79666
1.79565
1.79654
1.79518
1.79041
1.78504
1.77814
1.76827
1.75686
1.74822
1.74119
1.73527
1.7344
1.73617
1.74098
1.74326
1.74229
1.73896
1.73828
1.73983
1.74564
1.75647
1.76865
1.77511
1.77606
1.77552
1.77273
1.76955
1.76927
1.77243
1.77937
1.78237
1.7822
1.78032
1.77603
1.76947
1.76383
1.76304
1.76448
1.76914
1.77721
1.7858
1.79062
1.79151
1.79121
1.78907
1.78309
1.7804
1.78197
1.79395
1.81413
1.83526
1.85162
1.86349
1.8731
1.88329
1.89316
1.90021
1.90858
1.91723
1.92068
1.92031
1.91616
1.9179
2.03496
1.77097
1.58934
1.38737
1.38842
1.39532
1.40252
1.40494
1.39366
1.40498
1.43855
1.49754
1.56262
1.61424
1.64431
1.66064
1.67383
1.69249
1.71782
1.74733
1.75761
1.74966
1.7394
1.73912
1.74311
1.75456
1.76691
1.77219
1.77222
1.77009
1.76684
1.76297
1.75962
1.75724
1.75418
1.75071
1.74712
1.74257
1.73674
1.72987
1.72233
1.71539
1.70825
1.70331
1.70305
1.70457
1.70843
1.71064
1.71011
1.70738
1.70618
1.70685
1.71122
1.72158
1.73463
1.74484
1.7508
1.75331
1.75328
1.75092
1.74895
1.75046
1.75697
1.76154
1.76289
1.76313
1.76216
1.75798
1.75117
1.74511
1.74351
1.74457
1.74915
1.75571
1.7617
1.76845
1.77744
1.78544
1.79361
1.80115
1.81149
1.83292
1.86544
1.9048
1.94138
1.97003
1.99235
2.01315
2.03415
2.04809
2.05786
2.06589
2.06718
2.06463
2.05141
2.05601
2.1318
1.93137
1.78873
1.66022
1.57015
1.49893
1.41619
1.36726
1.33224
1.30255
1.31893
1.36481
1.39774
1.41881
1.44107
1.465
1.49077
1.52361
1.55945
1.60074
1.63179
1.64705
1.65287
1.65553
1.66302
1.67122
1.67365
1.67368
1.67406
1.67535
1.67502
1.67109
1.66622
1.66628
1.66653
1.66548
1.66238
1.65715
1.65128
1.64651
1.6425
1.6399
1.63681
1.63219
1.6285
1.62829
1.62946
1.63214
1.63314
1.63245
1.63183
1.63234
1.63512
1.64218
1.65324
1.66475
1.67471
1.68393
1.69083
1.69196
1.68852
1.68524
1.68882
1.69447
1.69847
1.7009
1.70073
1.69931
1.69516
1.68848
1.68475
1.68672
1.69378
1.70834
1.72924
1.75836
1.79518
1.83543
1.87641
1.90989
1.93778
1.96469
1.99204
2.01769
2.03709
2.04788
2.05422
2.06218
2.07594
2.09017
2.10023
2.10857
2.11087
2.10924
2.0958
2.08866
2.17482
2.03088
1.89235
1.7823
1.7035
1.6174
1.5313
1.46907
1.43324
1.38211
1.33988
1.33964
1.33598
1.32714
1.32835
1.33664
1.3569
1.39036
1.42992
1.46411
1.49346
1.52257
1.54072
1.55228
1.56796
1.5822
1.58981
1.59138
1.59268
1.59247
1.58914
1.58127
1.57366
1.57186
1.5712
1.56888
1.5634
1.55725
1.55319
1.55134
1.54999
1.54891
1.54744
1.54451
1.54018
1.53736
1.53704
1.5381
1.53992
1.5401
1.54029
1.54139
1.54351
1.54735
1.55402
1.5638
1.57514
1.58649
1.59688
1.60318
1.60311
1.60112
1.60241
1.60524
1.60798
1.60856
1.60946
1.61099
1.612
1.61554
1.62303
1.64021
1.67135
1.71577
1.76543
1.8131
1.85284
1.89069
1.92242
1.94904
1.96997
1.98694
2.00176
2.00633
2.00342
1.99774
1.99353
1.99413
1.99979
2.00935
2.01803
2.0233
2.02646
2.02735
2.02584
2.01277
2.21534
2.09788
1.97747
1.87491
1.79138
1.70587
1.6169
1.56473
1.5197
1.47053
1.41328
1.38284
1.35902
1.32841
1.30673
1.31087
1.31718
1.32525
1.34038
1.36612
1.39901
1.43622
1.46116
1.47878
1.49268
1.50681
1.5163
1.51972
1.52591
1.53594
1.53571
1.53374
1.52933
1.52391
1.51682
1.50711
1.49654
1.48879
1.48532
1.48331
1.48142
1.48029
1.48043
1.47998
1.47671
1.47158
1.46932
1.46867
1.4685
1.46807
1.46734
1.4674
1.46794
1.46922
1.47254
1.47956
1.48985
1.50144
1.51166
1.51805
1.51867
1.51673
1.51657
1.51962
1.52516
1.53445
1.5488
1.56985
1.59678
1.6298
1.66565
1.70178
1.73658
1.76769
1.79755
1.82498
1.8444
1.85587
1.86842
1.88151
1.89322
1.90214
1.903
1.90156
1.89672
1.89021
1.88608
1.88569
1.8875
1.89177
1.89515
1.89608
1.89732
1.89972
1.90311
1.89711
2.23835
2.1388
2.03216
1.94185
1.8597
1.77906
1.69667
1.64084
1.58871
1.53804
1.49085
1.4537
1.42481
1.39544
1.35327
1.33915
1.33562
1.32548
1.32128
1.32407
1.33454
1.35112
1.37418
1.4011
1.4232
1.44513
1.46298
1.47078
1.4771
1.4864
1.49082
1.49027
1.48861
1.48718
1.48521
1.47975
1.47086
1.46262
1.45807
1.45509
1.45115
1.44652
1.44282
1.4402
1.43579
1.4276
1.42465
1.425
1.42681
1.42872
1.42832
1.42769
1.42697
1.42566
1.42572
1.42721
1.43176
1.43802
1.44496
1.45147
1.45825
1.46505
1.4728
1.48664
1.5083
1.54323
1.59006
1.6358
1.67503
1.70618
1.72498
1.742
1.75338
1.76194
1.7716
1.77858
1.78375
1.78638
1.79001
1.79301
1.79585
1.79735
1.7993
1.79907
1.79783
1.79666
1.79446
1.78949
1.78482
1.78341
1.78259
1.78267
1.78407
1.7883
1.79405
1.79028
2.24465
2.1632
2.07135
1.98997
1.91726
1.83437
1.75929
1.70699
1.65325
1.60008
1.55785
1.5165
1.47409
1.44549
1.41325
1.37914
1.36739
1.35514
1.33491
1.32091
1.3271
1.32727
1.32795
1.33148
1.34487
1.36643
1.39113
1.41502
1.43007
1.44357
1.45757
1.45687
1.45778
1.45937
1.45833
1.45671
1.45234
1.44861
1.44696
1.44535
1.44128
1.43423
1.42715
1.42108
1.41575
1.4075
1.40057
1.3997
1.40062
1.40338
1.40389
1.40376
1.40352
1.40259
1.40024
1.39833
1.39904
1.40277
1.41125
1.42402
1.44631
1.48392
1.53449
1.58515
1.63061
1.66754
1.69432
1.70503
1.71495
1.72116
1.72356
1.72296
1.72266
1.72354
1.72791
1.72964
1.72828
1.72483
1.71986
1.71765
1.71721
1.71763
1.72369
1.72977
1.72968
1.72822
1.72021
1.70653
1.69527
1.69419
1.69456
1.69626
1.70238
1.71129
1.7139
1.70555
2.24112
2.17195
2.09532
2.02127
1.95345
1.87832
1.81241
1.76027
1.70654
1.64675
1.61198
1.57776
1.53314
1.49926
1.47268
1.43351
1.4138
1.40547
1.38844
1.35791
1.35004
1.3417
1.32758
1.31989
1.31715
1.3194
1.32423
1.33672
1.35899
1.38192
1.40741
1.42367
1.42744
1.42935
1.43271
1.43613
1.43572
1.43394
1.43426
1.43358
1.42978
1.42359
1.41874
1.4134
1.40722
1.39978
1.39321
1.38722
1.38476
1.38495
1.38483
1.38475
1.38488
1.38501
1.38558
1.38557
1.38973
1.40644
1.44182
1.49452
1.55985
1.62276
1.67209
1.69846
1.71722
1.72272
1.71674
1.70899
1.70247
1.69811
1.69425
1.69137
1.68968
1.68885
1.68666
1.68125
1.67201
1.65954
1.65385
1.65414
1.6552
1.66609
1.6721
1.66974
1.66608
1.65945
1.64442
1.6306
1.62729
1.62793
1.62997
1.63509
1.64497
1.64986
1.64708
1.6308
2.23284
2.17286
2.10651
2.04405
1.9825
1.91332
1.85432
1.8044
1.75484
1.69822
1.66004
1.62611
1.58295
1.54555
1.52525
1.49434
1.46187
1.448
1.43047
1.39729
1.3748
1.36166
1.34311
1.32099
1.31143
1.3118
1.31243
1.30989
1.31129
1.3196
1.33443
1.35469
1.37221
1.38465
1.39652
1.40513
1.41437
1.42183
1.42272
1.42199
1.41847
1.4121
1.40765
1.40564
1.40287
1.39809
1.3917
1.38503
1.37902
1.37415
1.3705
1.37006
1.37131
1.37588
1.39128
1.4224
1.4737
1.5404
1.60927
1.65734
1.68889
1.71313
1.71523
1.7153
1.71305
1.7064
1.69596
1.68494
1.67524
1.67061
1.66692
1.66319
1.65708
1.64749
1.63434
1.61991
1.61003
1.60281
1.60046
1.60155
1.60908
1.61067
1.60682
1.60329
1.60059
1.59618
1.5854
1.57322
1.57161
1.57257
1.57842
1.59034
1.59832
1.59687
1.58601
1.56554
2.22207
2.1698
2.11213
2.05614
1.99955
1.93949
1.8894
1.8434
1.79094
1.73824
1.70535
1.67264
1.63187
1.58992
1.56785
1.54054
1.5075
1.49215
1.47708
1.44638
1.41592
1.40198
1.38511
1.3538
1.33452
1.33112
1.32149
1.30911
1.30181
1.30102
1.30055
1.29995
1.30443
1.31803
1.34095
1.36171
1.37863
1.39537
1.408
1.40974
1.40855
1.40277
1.39538
1.39308
1.39228
1.39277
1.39023
1.38474
1.37686
1.36966
1.36496
1.36774
1.3849
1.43114
1.5108
1.58671
1.65002
1.70293
1.71866
1.72273
1.72026
1.71253
1.70117
1.69274
1.68705
1.67956
1.66977
1.65849
1.64712
1.63431
1.62458
1.61749
1.60811
1.59451
1.57978
1.56715
1.5592
1.55516
1.55505
1.55928
1.55943
1.55524
1.55014
1.54626
1.5441
1.54133
1.5345
1.52842
1.52718
1.5284
1.53647
1.54332
1.54338
1.53743
1.52484
1.50481
2.20986
2.16242
2.1116
2.06382
2.01362
1.96106
1.9155
1.8729
1.82611
1.78046
1.74463
1.70911
1.66744
1.63519
1.61312
1.58532
1.54521
1.52495
1.5105
1.48509
1.4557
1.43896
1.41985
1.38976
1.36113
1.35057
1.33775
1.31782
1.29936
1.29636
1.29529
1.29009
1.28967
1.29195
1.29846
1.31055
1.32449
1.34142
1.3587
1.37118
1.38047
1.38016
1.37728
1.37737
1.37983
1.38168
1.38136
1.37928
1.37277
1.37557
1.39903
1.45084
1.53057
1.61627
1.67487
1.71165
1.73325
1.731
1.72552
1.71681
1.70247
1.68451
1.67181
1.66716
1.65957
1.6507
1.64142
1.629
1.61211
1.59693
1.58681
1.57693
1.56499
1.55041
1.5346
1.52716
1.52329
1.52155
1.51791
1.51253
1.50963
1.50635
1.50217
1.49857
1.49629
1.49562
1.49349
1.48814
1.48668
1.48862
1.49187
1.49132
1.48701
1.47951
1.47059
1.45252
2.19356
2.15129
2.10802
2.06576
2.02028
1.97518
1.93734
1.89829
1.8507
1.81173
1.7789
1.74382
1.69933
1.66972
1.64849
1.62102
1.58412
1.56151
1.54366
1.51527
1.48194
1.46642
1.45113
1.42698
1.39723
1.38405
1.37129
1.35031
1.32216
1.31475
1.31106
1.30082
1.29052
1.28867
1.28974
1.28792
1.28402
1.28637
1.29558
1.30923
1.32216
1.33446
1.34634
1.35426
1.36373
1.36757
1.37109
1.37842
1.40815
1.48269
1.57083
1.64677
1.69281
1.72776
1.73551
1.73276
1.72603
1.71609
1.70653
1.69289
1.67626
1.65464
1.64263
1.63325
1.62277
1.61255
1.60451
1.59521
1.58013
1.56073
1.54813
1.53852
1.52669
1.51299
1.50253
1.49712
1.48952
1.47968
1.47339
1.46911
1.46563
1.46229
1.459
1.45673
1.45777
1.45862
1.45649
1.45145
1.44778
1.44532
1.44019
1.43404
1.4277
1.42448
1.42151
1.4077
2.17754
2.13934
2.10087
2.06305
2.02341
1.98437
1.94886
1.9135
1.87256
1.8364
1.80444
1.77049
1.72663
1.69883
1.67702
1.6483
1.60931
1.58771
1.57062
1.54585
1.51067
1.49048
1.47427
1.45063
1.42179
1.40833
1.39706
1.37874
1.35267
1.33853
1.33131
1.31946
1.30055
1.28885
1.28827
1.28525
1.27809
1.27577
1.276
1.27622
1.2772
1.27887
1.28804
1.3033
1.32438
1.34347
1.38797
1.47057
1.58212
1.67644
1.71734
1.73155
1.74363
1.74553
1.73924
1.72544
1.71063
1.69588
1.67508
1.65446
1.6367
1.6182
1.60531
1.59525
1.5844
1.57475
1.56672
1.55798
1.54385
1.52394
1.50957
1.50047
1.49175
1.48343
1.4752
1.46542
1.4532
1.43967
1.43134
1.4285
1.4259
1.42303
1.42051
1.42055
1.42311
1.42339
1.4193
1.411
1.40241
1.39491
1.3872
1.38089
1.37608
1.37525
1.37541
1.36585
2.15462
2.1223
2.08992
2.05772
2.02266
1.98756
1.95554
1.92365
1.88715
1.85311
1.82189
1.79026
1.75302
1.72282
1.69675
1.66873
1.63514
1.61115
1.59185
1.56624
1.53239
1.5126
1.49798
1.47585
1.4442
1.43027
1.41948
1.40223
1.37821
1.36326
1.3581
1.34821
1.32814
1.30787
1.30445
1.29997
1.2882
1.27651
1.27288
1.27043
1.26171
1.25072
1.25079
1.25923
1.29257
1.39571
1.53289
1.6317
1.69608
1.72004
1.72779
1.72648
1.72294
1.71615
1.70338
1.68323
1.65917
1.64425
1.62901
1.613
1.59805
1.58522
1.57308
1.55923
1.54597
1.53572
1.52671
1.51745
1.50515
1.48886
1.47563
1.46496
1.45408
1.44306
1.43337
1.42492
1.41451
1.39982
1.39318
1.39005
1.38711
1.38494
1.38418
1.38438
1.38466
1.38065
1.37303
1.36431
1.35509
1.34734
1.34041
1.33436
1.33258
1.33422
1.33509
1.32623
2.13525
2.10917
2.0797
2.04908
2.01966
1.98831
1.95581
1.92447
1.89536
1.86443
1.8338
1.80162
1.77172
1.74245
1.71293
1.68303
1.64984
1.62797
1.60907
1.58687
1.55544
1.53137
1.51647
1.49461
1.46408
1.44956
1.44067
1.42769
1.40398
1.38334
1.37671
1.36666
1.34921
1.32859
1.32228
1.31696
1.30436
1.28532
1.27399
1.26741
1.25624
1.25043
1.27194
1.34712
1.45661
1.58039
1.6338
1.65837
1.67355
1.67165
1.66665
1.6594
1.6519
1.64325
1.62091
1.59513
1.57595
1.56465
1.56336
1.5651
1.56022
1.55265
1.54166
1.52515
1.50923
1.49745
1.48696
1.47725
1.46806
1.45811
1.44543
1.43091
1.41715
1.40467
1.39438
1.38493
1.3754
1.36496
1.35749
1.35365
1.3509
1.34971
1.34852
1.34528
1.33879
1.33202
1.32561
1.31797
1.31091
1.30502
1.29969
1.2943
1.29333
1.29602
1.29631
1.28713
2.11555
2.09361
2.06828
2.04081
2.01395
1.98561
1.95429
1.92589
1.90227
1.87456
1.83992
1.80775
1.78515
1.75743
1.7263
1.69672
1.66846
1.64157
1.61948
1.59947
1.5723
1.55137
1.53602
1.51646
1.48424
1.46125
1.45486
1.4445
1.42518
1.40591
1.39768
1.38763
1.37122
1.34873
1.34149
1.33643
1.32434
1.30464
1.29175
1.28539
1.30011
1.3512
1.46013
1.56198
1.62979
1.6555
1.64612
1.63277
1.62468
1.60821
1.5868
1.56575
1.55161
1.53881
1.51794
1.50065
1.49215
1.49143
1.49393
1.49751
1.50011
1.50002
1.49462
1.48708
1.47657
1.46321
1.45176
1.44231
1.43434
1.42511
1.41137
1.39591
1.38173
1.36892
1.35528
1.34546
1.339
1.33186
1.32379
1.31861
1.31499
1.31139
1.30771
1.30114
1.2924
1.28727
1.28402
1.27854
1.27203
1.26641
1.26281
1.26047
1.25975
1.25914
1.25566
1.24661
2.09717
2.07367
2.05077
2.02525
2.00062
1.97685
1.94921
1.92106
1.89877
1.87584
1.8466
1.81374
1.7879
1.76177
1.7341
1.70691
1.68449
1.65641
1.63006
1.61197
1.58713
1.5621
1.54954
1.53343
1.50755
1.48283
1.47186
1.45971
1.43697
1.41805
1.4132
1.40565
1.39209
1.37133
1.36118
1.35122
1.33898
1.32063
1.3259
1.36763
1.46925
1.59059
1.66607
1.69609
1.68566
1.65971
1.62993
1.60783
1.5852
1.56165
1.53952
1.52083
1.50203
1.48162
1.45779
1.43624
1.42199
1.41554
1.41668
1.42224
1.43061
1.43604
1.43621
1.43504
1.42955
1.42051
1.41277
1.40624
1.40199
1.39391
1.38207
1.36768
1.35095
1.33242
1.3159
1.30837
1.30426
1.29951
1.29323
1.28576
1.27762
1.27084
1.26415
1.25669
1.24956
1.24897
1.24866
1.24483
1.23908
1.23415
1.23072
1.22634
1.22077
1.21464
1.21075
1.20378
2.08538
2.05918
2.0322
2.00945
1.98628
1.96277
1.93878
1.91596
1.89504
1.87199
1.84099
1.81397
1.79126
1.76733
1.74017
1.71564
1.69536
1.66901
1.63988
1.6205
1.60114
1.57521
1.55746
1.54317
1.52286
1.49874
1.48733
1.47588
1.45438
1.42931
1.42302
1.41672
1.40489
1.38766
1.3785
1.36948
1.36762
1.39958
1.49541
1.61819
1.69021
1.74166
1.73716
1.72267
1.68778
1.63831
1.60312
1.5799
1.55854
1.53711
1.51698
1.49841
1.48026
1.46062
1.43779
1.41557
1.39963
1.38645
1.37503
1.36621
1.36103
1.35726
1.35401
1.35591
1.36176
1.36257
1.35986
1.35632
1.35215
1.35109
1.34817
1.33903
1.3231
1.30394
1.29162
1.28366
1.27743
1.2716
1.26466
1.25607
1.24495
1.23482
1.2276
1.22192
1.21732
1.21622
1.21696
1.21468
1.20834
1.20194
1.19358
1.18739
1.18267
1.17814
1.17501
1.16934
2.00878
2.04186
2.01911
1.99145
1.96885
1.949
1.92904
1.90676
1.88543
1.86575
1.84202
1.81585
1.78917
1.76424
1.73946
1.72153
1.70363
1.68162
1.64979
1.62676
1.61222
1.58856
1.56573
1.55358
1.53664
1.51157
1.49771
1.48684
1.46962
1.44556
1.43581
1.42804
1.41539
1.40031
1.396
1.42057
1.49829
1.63232
1.7309
1.76881
1.77236
1.76586
1.74432
1.70726
1.66145
1.6207
1.58949
1.5653
1.54354
1.52347
1.50567
1.48823
1.47108
1.45292
1.43116
1.40809
1.38595
1.36663
1.35344
1.34249
1.33213
1.31966
1.30904
1.30352
1.29934
1.29656
1.29388
1.29269
1.29226
1.29189
1.29109
1.29048
1.28795
1.28067
1.27544
1.26794
1.25831
1.24682
1.23687
1.22687
1.2157
1.2074
1.20151
1.19604
1.19367
1.19471
1.194
1.18737
1.17635
1.16733
1.15991
1.15366
1.15052
1.14727
1.14447
1.14207
1.79419
1.99081
2.00313
1.98103
1.95499
1.93275
1.9148
1.89691
1.87689
1.85341
1.83353
1.81434
1.79148
1.76745
1.74017
1.72081
1.70221
1.68247
1.6584
1.63505
1.62106
1.59981
1.57355
1.56023
1.54638
1.52304
1.50672
1.49497
1.47959
1.45654
1.44375
1.43921
1.43401
1.44848
1.51674
1.63296
1.74439
1.81699
1.80229
1.78806
1.77393
1.74997
1.72059
1.68337
1.64608
1.61198
1.58054
1.55353
1.52988
1.51208
1.49623
1.47986
1.46288
1.44504
1.42564
1.4038
1.3809
1.35892
1.33919
1.3227
1.30747
1.29203
1.27943
1.27058
1.26553
1.26308
1.25714
1.24523
1.23196
1.22673
1.2272
1.23053
1.23884
1.24452
1.24335
1.23493
1.22702
1.2219
1.21536
1.20431
1.19301
1.18754
1.18435
1.18047
1.17715
1.17324
1.16614
1.1582
1.1495
1.13926
1.13059
1.12438
1.12295
1.12355
1.12256
1.11841
1.34843
1.80997
1.95935
1.96673
1.94674
1.92237
1.90307
1.88433
1.8639
1.84321
1.82579
1.80795
1.78795
1.76258
1.73937
1.72357
1.70532
1.68403
1.65583
1.6387
1.62675
1.60878
1.58277
1.56669
1.55249
1.53084
1.51427
1.50217
1.48867
1.47054
1.45558
1.46907
1.53342
1.6624
1.7766
1.85199
1.85091
1.82971
1.79666
1.77012
1.74828
1.72154
1.68813
1.65748
1.6301
1.60485
1.57834
1.55061
1.52645
1.50603
1.48744
1.46916
1.45067
1.4343
1.41988
1.40358
1.38307
1.35933
1.33443
1.31077
1.29183
1.27738
1.26498
1.25493
1.24763
1.24092
1.23456
1.22512
1.20747
1.19325
1.18213
1.17898
1.18156
1.1902
1.19225
1.19076
1.18932
1.18817
1.18344
1.17377
1.16816
1.16886
1.17175
1.17069
1.16607
1.15878
1.15014
1.14037
1.1295
1.11764
1.10874
1.1033
1.10055
1.10151
1.1052
1.10432
1.03409
1.40356
1.80597
1.92964
1.93393
1.91422
1.89067
1.87267
1.85544
1.83396
1.81308
1.79795
1.78266
1.76095
1.73785
1.71926
1.70158
1.68397
1.66268
1.64513
1.62964
1.60942
1.58463
1.57093
1.55995
1.53875
1.51766
1.50525
1.49359
1.49893
1.54321
1.66352
1.79934
1.8997
1.89468
1.88089
1.85225
1.81741
1.788
1.7554
1.7193
1.68681
1.65687
1.63791
1.62027
1.60127
1.58084
1.55213
1.51874
1.49384
1.47488
1.45726
1.43986
1.42308
1.40784
1.39361
1.37837
1.35951
1.33597
1.30882
1.28597
1.27167
1.25954
1.24851
1.23945
1.23075
1.22214
1.21021
1.19019
1.17412
1.16446
1.15806
1.15425
1.1487
1.14598
1.14333
1.1365
1.13564
1.13878
1.1399
1.13905
1.13975
1.14462
1.14519
1.14124
1.13521
1.12861
1.12022
1.10971
1.09879
1.09192
1.08805
1.08535
1.08519
1.08762
1.08647
1.0005
1.05206
1.43646
1.79116
1.90369
1.9028
1.88398
1.86043
1.84156
1.82533
1.80854
1.7915
1.77274
1.75124
1.73489
1.71917
1.7014
1.67814
1.65853
1.64844
1.63297
1.61352
1.58836
1.56936
1.55963
1.54264
1.52388
1.52222
1.55246
1.65978
1.80505
1.90832
1.9321
1.92239
1.89814
1.87114
1.83864
1.79914
1.75857
1.71867
1.68136
1.65527
1.6397
1.62763
1.61596
1.59969
1.57656
1.5438
1.50928
1.48257
1.46192
1.44407
1.42712
1.40966
1.3942
1.38148
1.36922
1.35447
1.33466
1.30891
1.28202
1.26283
1.24964
1.23923
1.23092
1.22248
1.21167
1.19795
1.17845
1.15795
1.14809
1.14333
1.13784
1.13205
1.12743
1.12044
1.10912
1.09877
1.09725
1.09932
1.10382
1.10921
1.11131
1.10925
1.10607
1.10292
1.09963
1.09433
1.08667
1.07966
1.07414
1.0706
1.07024
1.072
1.07295
1.06974
1
1.00098
1.06796
1.44492
1.77652
1.87742
1.87512
1.8554
1.83399
1.81377
1.79842
1.7851
1.76758
1.74513
1.72552
1.7113
1.6963
1.67611
1.65978
1.64727
1.63079
1.61193
1.59006
1.57392
1.56351
1.54987
1.56946
1.66091
1.81075
1.93152
1.96572
1.9621
1.94796
1.92155
1.88529
1.84579
1.80708
1.76674
1.72744
1.69016
1.66077
1.64325
1.62754
1.6114
1.59658
1.57945
1.55712
1.53021
1.50264
1.47585
1.45173
1.43227
1.41311
1.39381
1.38279
1.37308
1.36111
1.34523
1.32415
1.29966
1.2763
1.25831
1.24607
1.23653
1.22807
1.21981
1.21026
1.19676
1.1764
1.15203
1.13685
1.12919
1.12325
1.11875
1.11488
1.10871
1.09772
1.08383
1.07505
1.07323
1.07503
1.07713
1.07447
1.07069
1.06985
1.06826
1.06693
1.06382
1.05806
1.0552
1.05344
1.05158
1.05164
1.05452
1.05575
1.05133
1
1
1.00153
1.07707
1.44033
1.76435
1.8424
1.84514
1.8304
1.80746
1.78962
1.77576
1.75793
1.73737
1.72162
1.70714
1.68984
1.66808
1.65671
1.64568
1.62898
1.61126
1.58954
1.57991
1.59393
1.66798
1.82709
1.94533
2.01793
2.01265
1.97816
1.94231
1.90763
1.87177
1.83665
1.8034
1.77323
1.74384
1.71473
1.68666
1.65644
1.63164
1.61045
1.5894
1.5696
1.55031
1.53356
1.51787
1.49834
1.47374
1.4444
1.41589
1.39469
1.38099
1.37257
1.36408
1.35306
1.3377
1.31566
1.28825
1.26556
1.24801
1.23472
1.22664
1.22118
1.2149
1.20439
1.19093
1.17582
1.15825
1.13999
1.12574
1.1168
1.11024
1.10402
1.09731
1.08882
1.07672
1.06778
1.06198
1.0592
1.05549
1.04924
1.0465
1.0446
1.04125
1.03698
1.03365
1.03029
1.02974
1.03027
1.03157
1.03398
1.03586
1.0357
1.03067
1
1
1.00001
1.00197
1.07898
1.43607
1.73476
1.80202
1.82195
1.80829
1.78451
1.76762
1.75093
1.73158
1.71685
1.70267
1.6831
1.66207
1.65168
1.63784
1.62644
1.60942
1.61423
1.67239
1.82637
1.95304
2.0574
2.06638
2.04112
1.99417
1.94671
1.90235
1.86543
1.83126
1.80265
1.7764
1.75254
1.73063
1.70623
1.67688
1.64518
1.61694
1.59198
1.56784
1.54643
1.52987
1.51714
1.50391
1.48557
1.46078
1.43017
1.401
1.38194
1.37068
1.36227
1.35338
1.34261
1.32828
1.308
1.28205
1.26004
1.25062
1.24242
1.23243
1.22382
1.2155
1.20328
1.18753
1.16987
1.15391
1.14277
1.13238
1.12186
1.11212
1.10205
1.09137
1.07945
1.07064
1.06429
1.05757
1.05046
1.04402
1.03906
1.03471
1.02969
1.02312
1.01661
1.01353
1.01033
1.00917
1.00938
1.00953
1.0107
1.01265
1.01275
1.00918
1
1
1
1.00001
1.00215
1.07769
1.4178
1.68603
1.77326
1.80332
1.78755
1.76706
1.74678
1.72632
1.71327
1.69803
1.67533
1.65746
1.64487
1.63285
1.63794
1.68037
1.82705
1.97379
2.09144
2.08119
2.05299
2.02712
1.98658
1.94388
1.90481
1.86867
1.84031
1.81366
1.78571
1.75704
1.731
1.70815
1.68385
1.65594
1.62504
1.59601
1.57202
1.55035
1.53207
1.51658
1.50187
1.48639
1.46674
1.44203
1.41348
1.3902
1.37513
1.36394
1.35434
1.34362
1.33009
1.31412
1.29629
1.27684
1.25964
1.24472
1.23
1.21824
1.21032
1.20622
1.2035
1.19672
1.18244
1.16104
1.14111
1.12641
1.11518
1.10544
1.09724
1.08973
1.07842
1.06449
1.05704
1.05254
1.04574
1.03944
1.03485
1.03001
1.02436
1.01658
1.01013
1.00642
1.00212
0.997978
0.994453
0.990671
0.987713
0.987858
0.987817
0.984382
1
1
1
1
1.00001
1.00212
1.07023
1.37307
1.63764
1.75708
1.78261
1.77135
1.75084
1.72634
1.70795
1.69443
1.66772
1.65257
1.65144
1.68038
1.80521
1.99059
2.10777
2.1363
2.12459
2.08862
2.03909
1.98966
1.94638
1.90749
1.87594
1.84596
1.81591
1.78975
1.76355
1.73705
1.71117
1.68605
1.66052
1.6348
1.60824
1.58062
1.55677
1.53811
1.52201
1.50638
1.4904
1.47307
1.45214
1.43031
1.41146
1.39252
1.37507
1.36129
1.35077
1.33985
1.32572
1.30828
1.2936
1.2816
1.26465
1.24458
1.224
1.213
1.20819
1.20335
1.1962
1.18612
1.17421
1.16268
1.14775
1.13363
1.12242
1.11227
1.10269
1.09249
1.07974
1.06653
1.05684
1.05191
1.04907
1.04413
1.03851
1.03286
1.02619
1.0173
1.00989
1.00369
0.997557
0.991456
0.985182
0.980454
0.97732
0.975776
0.974322
0.969823
1
1
1
1
1
1.00001
1.00172
1.05512
1.3111
1.60971
1.7399
1.76114
1.75277
1.73398
1.70379
1.68686
1.67077
1.68144
1.79042
1.98459
2.1248
2.16697
2.13282
2.10505
2.07173
2.03315
1.99535
1.95952
1.92439
1.888
1.85361
1.82067
1.78938
1.76168
1.73795
1.71671
1.69554
1.67514
1.65427
1.63068
1.60415
1.57528
1.54741
1.52758
1.51549
1.50428
1.4897
1.4709
1.45013
1.42774
1.40198
1.38148
1.37032
1.36171
1.35256
1.34119
1.32703
1.31109
1.29412
1.27427
1.25214
1.23331
1.22332
1.21617
1.20873
1.20043
1.1911
1.18119
1.17033
1.15534
1.1375
1.1227
1.11209
1.10325
1.09442
1.08755
1.08306
1.07709
1.06779
1.05662
1.04492
1.03518
1.0269
1.01933
1.01166
1.00355
0.997152
0.992439
0.988054
0.983278
0.97742
0.972726
0.969376
0.967443
0.965718
0.960926
1
1
1
1
1
1
1.00001
1.00113
1.03784
1.26352
1.5883
1.69788
1.73322
1.72879
1.71413
1.71413
1.77259
1.9414
2.11912
2.22969
2.22176
2.18986
2.14132
2.06943
2.01569
1.98079
1.95318
1.92828
1.90128
1.86936
1.83508
1.80039
1.76794
1.7409
1.72067
1.7032
1.68428
1.6642
1.64264
1.61852
1.59269
1.5659
1.54183
1.5249
1.51229
1.49941
1.48353
1.46446
1.44402
1.42193
1.39983
1.38313
1.37067
1.35975
1.34908
1.3371
1.32325
1.30799
1.29094
1.27137
1.25097
1.23502
1.2238
1.21528
1.20764
1.19918
1.18968
1.17948
1.16758
1.15232
1.13505
1.12073
1.1103
1.10196
1.09587
1.09132
1.08557
1.07746
1.06739
1.05523
1.04282
1.03253
1.02387
1.01571
1.00712
0.998677
0.992453
0.988123
0.984276
0.979758
0.973839
0.96859
0.965101
0.963076
0.961329
0.956821
1
1
1
1
1
1
1
1
1.0007
1.02566
1.23415
1.52788
1.64663
1.7136
1.81253
1.93835
2.06402
2.15405
2.19578
2.19364
2.16893
2.12969
2.07921
2.03844
2.0031
1.97396
1.94907
1.92711
1.90356
1.87611
1.84555
1.81373
1.78337
1.75738
1.7363
1.7167
1.69586
1.67406
1.65118
1.62689
1.601
1.57428
1.55169
1.53569
1.52281
1.50936
1.49331
1.4748
1.45495
1.43402
1.41305
1.39482
1.38058
1.36912
1.35812
1.34596
1.33235
1.31751
1.30119
1.28236
1.26216
1.24537
1.2336
1.22553
1.21797
1.20895
1.19871
1.18822
1.17669
1.16177
1.14395
1.1294
1.1197
1.11319
1.10826
1.10297
1.09613
1.08713
1.07565
1.06283
1.0511
1.04122
1.03239
1.0233
1.0134
1.00468
0.998875
0.99488
0.990983
0.985823
0.978601
0.972239
0.96835
0.965792
0.963825
0.959233
1
1
1
1
1
1
1
1
1
1.00041
1.01991
1.1988
1.50751
1.80724
2.07406
2.30549
2.39602
2.3833
2.32403
2.22164
2.13943
2.08451
2.03779
2.00518
1.97562
1.9495
1.92549
1.90393
1.88175
1.85689
1.82873
1.7978
1.76755
1.74259
1.72305
1.70418
1.68257
1.65813
1.63272
1.60826
1.5839
1.55874
1.5364
1.51983
1.50699
1.49374
1.47768
1.45928
1.44025
1.42054
1.39982
1.38068
1.36583
1.35455
1.34404
1.33225
1.31877
1.30422
1.28858
1.27028
1.24968
1.23146
1.21994
1.21346
1.20691
1.19814
1.18735
1.17596
1.16384
1.14837
1.13091
1.11807
1.10932
1.10261
1.09695
1.09134
1.08478
1.0763
1.0654
1.05289
1.04065
1.03003
1.0207
1.01136
1.0016
0.993769
0.988523
0.984527
0.980525
0.975004
0.967316
0.961186
0.957364
0.954777
0.952937
0.948615
)
;

boundaryField
{
    inlet
    {
        type            fixedValue;
        value           uniform 1;
    }
    outlet
    {
        type            inletOutlet;
        inletValue      uniform 1;
        value           nonuniform List<scalar> 
32
(
1.90377
2.04402
2.08525
2.01413
1.90078
1.79355
1.70731
1.63118
1.56553
1.50457
1.45193
1.40716
1.36553
1.32584
1.2869
1.24664
1.20415
1.16976
1.143
1.11872
1.10457
1.08642
1.06936
1.05064
1.02981
1.0084
0.983928
0.96983
0.961061
0.957034
0.959547
0.948957
)
;
    }
    bottom
    {
        type            symmetryPlane;
    }
    top
    {
        type            symmetryPlane;
    }
    obstacle
    {
        type            zeroGradient;
    }
    defaultFaces
    {
        type            empty;
    }
}


// ************************************************************************* //
