/*--------------------------------*- C++ -*----------------------------------*\
  =========                 |
  \\      /  F ield         | OpenFOAM: The Open Source CFD Toolbox
   \\    /   O peration     | Website:  https://openfoam.org
    \\  /    A nd           | Version:  7
     \\/     M anipulation  |
\*---------------------------------------------------------------------------*/
FoamFile
{
    version     2.0;
    format      ascii;
    class       volVectorField;
    location    "1.1";
    object      U;
}
// * * * * * * * * * * * * * * * * * * * * * * * * * * * * * * * * * * * * * //

dimensions      [0 1 -1 0 0 0 0];

internalField   nonuniform List<vector> 
4032
(
(3 -1.7308e-16 0)
(3 -1.90837e-16 0)
(3 -5.40679e-17 0)
(3 -3.03386e-17 0)
(3 3.23005e-16 0)
(3 3.9504e-16 0)
(3 2.51512e-16 0)
(3 -7.50366e-17 0)
(3 -2.53398e-16 0)
(3 -5.19074e-16 0)
(3 2.18718e-16 0)
(3 6.05119e-16 0)
(3 4.56486e-16 0)
(1.14926 0.0154828 0)
(0.691317 0.0147094 0)
(0.638688 0.0222136 0)
(0.580558 0.0268515 0)
(0.515598 0.0312194 0)
(0.445849 0.0339152 0)
(0.373916 0.0355015 0)
(0.296698 0.036601 0)
(0.220301 0.0389782 0)
(0.13714 0.0411692 0)
(0.0500419 0.045686 0)
(3 1.04957e-16 0)
(3 -3.46024e-16 0)
(3 -2.54646e-16 0)
(3 -4.69288e-16 0)
(3 -3.478e-16 0)
(3 -3.08461e-16 0)
(3 -1.67648e-16 0)
(3 1.84546e-16 0)
(3 1.41302e-16 0)
(3 4.39227e-16 0)
(3 1.08057e-15 0)
(3 1.60865e-15 0)
(3 1.3753e-15 0)
(1.17555 0.0731308 0)
(0.685262 0.0616908 0)
(0.624127 0.0703372 0)
(0.563657 0.0827944 0)
(0.496294 0.0941456 0)
(0.425765 0.101034 0)
(0.355199 0.105904 0)
(0.28019 0.110242 0)
(0.207827 0.11879 0)
(0.128659 0.126131 0)
(0.0474089 0.139096 0)
(3 1.35987e-16 0)
(3 1.49938e-16 0)
(3 -3.3384e-17 0)
(3 -1.9077e-16 0)
(3 -5.82167e-16 0)
(3 -6.93112e-16 0)
(3 -6.74317e-16 0)
(3 -6.30686e-16 0)
(3 -3.75094e-16 0)
(3 4.46916e-17 0)
(3 8.80884e-16 0)
(3 1.7916e-15 0)
(3 -3.73487e-17 0)
(1.25863 0.131432 0)
(0.697857 0.111276 0)
(0.627992 0.123466 0)
(0.563509 0.142595 0)
(0.492239 0.160222 0)
(0.418676 0.169978 0)
(0.346346 0.175838 0)
(0.269457 0.181181 0)
(0.19781 0.193758 0)
(0.120165 0.2049 0)
(0.0448197 0.225037 0)
(3 -2.03823e-16 0)
(3 1.31753e-16 0)
(3 3.30869e-16 0)
(3 4.60184e-16 0)
(3 5.20404e-16 0)
(3 6.07205e-16 0)
(3 -3.14728e-16 0)
(3 -1.06435e-15 0)
(3 -8.04504e-16 0)
(3 -4.52471e-16 0)
(3 3.54718e-16 0)
(3 1.60257e-15 0)
(3 5.57154e-16 0)
(1.39653 0.18865 0)
(0.71701 0.165434 0)
(0.637176 0.177406 0)
(0.573384 0.203397 0)
(0.500659 0.227852 0)
(0.424266 0.241555 0)
(0.348153 0.24856 0)
(0.269011 0.254983 0)
(0.196162 0.270419 0)
(0.118277 0.28451 0)
(0.043634 0.30897 0)
(3 -1.40994e-16 0)
(3 -1.34163e-16 0)
(3 4.30147e-16 0)
(3 7.95123e-16 0)
(3 7.83004e-16 0)
(3 3.9121e-16 0)
(3 2.42582e-17 0)
(3 -1.40795e-16 0)
(3 -5.54612e-16 0)
(3 -3.70184e-16 0)
(3 -3.77861e-16 0)
(3 -1.03406e-16 0)
(3 -1.39674e-15 0)
(1.60408 0.238296 0)
(0.743727 0.224905 0)
(0.64155 0.231793 0)
(0.577394 0.264618 0)
(0.505579 0.296626 0)
(0.433712 0.314964 0)
(0.364046 0.322449 0)
(0.293188 0.328136 0)
(0.221444 0.346348 0)
(0.136878 0.367359 0)
(0.0546734 0.40087 0)
(3 1.00688e-16 0)
(3 3.56491e-17 0)
(3 1.21155e-16 0)
(3 9.82931e-17 0)
(3 2.97391e-17 0)
(3 -5.56206e-16 0)
(3 -2.72196e-16 0)
(3 -3.91624e-16 0)
(3 -3.71857e-16 0)
(3 -4.59291e-16 0)
(3 -3.21666e-16 0)
(3 -3.52771e-16 0)
(3 -2.36796e-15 0)
(1.87939 0.287155 0)
(0.775183 0.30036 0)
(0.640508 0.292509 0)
(0.588686 0.328873 0)
(0.532253 0.365087 0)
(0.473423 0.38406 0)
(0.41169 0.389522 0)
(0.342125 0.400355 0)
(0.262753 0.431662 0)
(0.167965 0.472689 0)
(0.0585515 0.51802 0)
(3 5.20904e-17 0)
(3 3.54082e-16 0)
(3 1.77008e-18 0)
(3 -1.98613e-16 0)
(3 -4.42895e-16 0)
(3 -3.5558e-16 0)
(3 -6.39386e-16 0)
(3 -9.1336e-16 0)
(3 -7.21544e-16 0)
(3 -2.98567e-16 0)
(3 -3.24969e-16 0)
(3 -4.93242e-16 0)
(3 -2.57611e-15 0)
(2.26089 0.322054 0)
(0.846734 0.387909 0)
(0.686745 0.347435 0)
(0.648474 0.376748 0)
(0.604937 0.413372 0)
(0.554083 0.43748 0)
(0.494154 0.452586 0)
(0.427218 0.476136 0)
(0.348868 0.518369 0)
(0.253582 0.583119 0)
(0.112578 0.667064 0)
(3 -2.39076e-16 0)
(3 -8.82002e-17 0)
(3 -1.5809e-16 0)
(3 -6.42463e-16 0)
(3 -1.08596e-15 0)
(3 -1.25215e-15 0)
(3 -1.00282e-15 0)
(3 -1.0172e-15 0)
(3 -6.27113e-16 0)
(3 -1.29598e-16 0)
(3 -8.05063e-16 0)
(3 -1.24656e-15 0)
(3 -1.70244e-15 0)
(2.78912 0.231829 0)
(0.994695 0.446166 0)
(0.779095 0.373899 0)
(0.738687 0.409042 0)
(0.694693 0.45824 0)
(0.644489 0.492213 0)
(0.590663 0.513289 0)
(0.527878 0.547432 0)
(0.443425 0.622249 0)
(0.298075 0.755598 0)
(0.16163 0.948629 0)
(3 -2.50388e-17 0)
(3 -2.59553e-16 0)
(3 -2.16931e-16 0)
(3 -1.91688e-16 0)
(3 -2.11716e-16 0)
(3 -3.65269e-16 0)
(3 -3.45353e-16 0)
(3 -8.18912e-17 0)
(3 4.32831e-16 0)
(3 2.66474e-16 0)
(3 -2.25219e-16 0)
(3 -4.51945e-16 0)
(3 -8.15813e-16 0)
(3.05656 0.0263621 0)
(1.20807 0.448501 0)
(0.834155 0.427062 0)
(0.783413 0.477146 0)
(0.728094 0.524712 0)
(0.676727 0.560305 0)
(0.629128 0.589736 0)
(0.573712 0.642383 0)
(0.526684 0.761005 0)
(0.486281 0.945733 0)
(0.596306 1.24563 0)
(3 -4.00368e-18 0)
(3 -1.25497e-16 0)
(3 -2.57498e-16 0)
(3 5.75869e-17 0)
(3 7.19289e-16 0)
(3 7.18907e-16 0)
(3 7.28538e-16 0)
(3 8.50177e-16 0)
(3 7.99138e-16 0)
(3 8.46906e-16 0)
(3 7.80604e-16 0)
(3 9.11503e-17 0)
(3 -6.57861e-16 0)
(3.0035 0.000122337 0)
(1.47161 0.464724 0)
(0.827686 0.490105 0)
(0.768747 0.530424 0)
(0.735495 0.57699 0)
(0.703353 0.612151 0)
(0.674248 0.646368 0)
(0.646125 0.709779 0)
(0.640492 0.836118 0)
(0.699319 0.992728 0)
(0.987338 1.17724 0)
(3 8.28305e-17 0)
(3 -4.67532e-16 0)
(3 -7.85843e-16 0)
(3 -4.65957e-16 0)
(3 -3.74608e-17 0)
(3 5.49975e-16 0)
(3 7.97774e-16 0)
(3 6.48269e-16 0)
(3 -6.02073e-16 0)
(3 -6.10865e-16 0)
(3 -5.60507e-16 0)
(3 -3.44737e-16 0)
(3 -6.46405e-16 0)
(3.00001 -7.03803e-07 0)
(2.08029 0.497561 0)
(0.910111 0.586829 0)
(0.803575 0.568602 0)
(0.783103 0.613542 0)
(0.756742 0.6539 0)
(0.737496 0.690057 0)
(0.73382 0.753567 0)
(0.759961 0.861374 0)
(0.880972 0.989309 0)
(1.20162 1.10854 0)
(3 7.82932e-17 0)
(3 -1.21143e-16 0)
(3 -1.20924e-16 0)
(3 -6.356e-16 0)
(3 -4.02887e-16 0)
(3 -2.44314e-16 0)
(3 -3.14141e-16 0)
(3 -2.242e-16 0)
(3 -6.18799e-16 0)
(3 -1.1198e-15 0)
(3 -1.17327e-15 0)
(3 -1.087e-15 0)
(3 -8.45252e-16 0)
(3 -2.35251e-07 0)
(2.93181 0.220793 0)
(1.14875 0.627259 0)
(0.907268 0.577552 0)
(0.878217 0.638615 0)
(0.845158 0.688005 0)
(0.824068 0.722794 0)
(0.827762 0.77829 0)
(0.875125 0.861555 0)
(1.01533 0.961357 0)
(1.27659 1.03423 0)
(3 -6.82326e-17 0)
(3 2.17826e-16 0)
(3 1.37674e-16 0)
(3 -7.32503e-16 0)
(3 -1.05911e-15 0)
(3 -1.27568e-15 0)
(3 -1.48539e-15 0)
(3 -1.01195e-15 0)
(3 -7.78791e-16 0)
(3 -1.04585e-15 0)
(3 -1.3703e-15 0)
(3 -1.95696e-15 0)
(3 -1.74124e-15 0)
(3 -3.01372e-08 0)
(3.04853 0.00985873 0)
(1.43766 0.5972 0)
(0.958185 0.664538 0)
(0.917729 0.712407 0)
(0.897919 0.751491 0)
(0.895236 0.773381 0)
(0.917009 0.81126 0)
(0.979861 0.86471 0)
(1.11719 0.933585 0)
(1.3286 0.978695 0)
(3 -1.60553e-16 0)
(3 5.72768e-17 0)
(3 2.46696e-16 0)
(3 2.56809e-17 0)
(3 -8.55499e-16 0)
(3 -1.2729e-15 0)
(3 -1.55862e-15 0)
(3 -1.77656e-15 0)
(3 -1.91125e-15 0)
(3 -1.7993e-15 0)
(3 -1.60155e-15 0)
(3 -1.51182e-15 0)
(3 -1.11259e-15 0)
(3 -1.40464e-09 0)
(3.00101 2.32321e-05 0)
(2.10938 0.556922 0)
(1.05569 0.739446 0)
(0.976112 0.753686 0)
(0.96449 0.781854 0)
(0.973355 0.798512 0)
(1.0045 0.822501 0)
(1.07327 0.863081 0)
(1.19522 0.903523 0)
(1.36162 0.924481 0)
(3 1.46041e-16 0)
(3 -9.08945e-20 0)
(3 2.72106e-16 0)
(3 3.55863e-16 0)
(3 -4.74906e-16 0)
(3 -3.00044e-16 0)
(3 -6.18856e-16 0)
(3 -1.08746e-15 0)
(3 -2.09501e-15 0)
(3 -2.04237e-15 0)
(3 -1.78101e-15 0)
(3 -1.42872e-15 0)
(3 -8.36145e-16 0)
(3 -7.28711e-12 0)
(3 -4.30162e-07 0)
(3.03228 0.143919 0)
(1.34091 0.740036 0)
(1.06924 0.774209 0)
(1.05827 0.787813 0)
(1.05966 0.817593 0)
(1.08954 0.83685 0)
(1.1525 0.859706 0)
(1.2556 0.884163 0)
(1.39061 0.896579 0)
(3 1.65521e-16 0)
(3 2.8539e-16 0)
(3 2.852e-16 0)
(3 3.45272e-16 0)
(3 3.50574e-16 0)
(3 2.16189e-16 0)
(3 -2.84855e-16 0)
(3 -1.40527e-15 0)
(3 -1.36911e-15 0)
(3 -1.09512e-15 0)
(3 -1.29826e-15 0)
(3 -1.5409e-15 0)
(3 -1.24553e-15 0)
(3 -4.60559e-15 0)
(3 -4.05259e-07 0)
(3.02245 0.00223987 0)
(1.79975 0.712475 0)
(1.10841 0.841873 0)
(1.10169 0.844142 0)
(1.12545 0.853012 0)
(1.15781 0.865262 0)
(1.21599 0.876623 0)
(1.30638 0.88299 0)
(1.41707 0.880507 0)
(3 -7.56357e-17 0)
(3 -4.01422e-17 0)
(3 -5.27921e-17 0)
(3 -3.23936e-16 0)
(3 -5.13837e-16 0)
(3 -1.33993e-15 0)
(3 -1.24473e-15 0)
(3 -6.82656e-16 0)
(3 -5.49289e-16 0)
(3 -7.42357e-16 0)
(3 -9.71508e-16 0)
(3 -4.83797e-16 0)
(3 -9.92346e-17 0)
(3 4.12241e-16 0)
(3 -5.31457e-08 0)
(3.0002 1.7721e-05 0)
(2.86414 0.321679 0)
(1.33128 0.845452 0)
(1.16514 0.836022 0)
(1.2016 0.849901 0)
(1.22896 0.867833 0)
(1.28083 0.876537 0)
(1.35513 0.87895 0)
(1.44277 0.875793 0)
(3 -2.24906e-16 0)
(3 -6.42737e-16 0)
(3 -1.18261e-15 0)
(3 -1.06656e-15 0)
(3 -1.17541e-15 0)
(3 -1.44416e-15 0)
(3 -1.04022e-15 0)
(3 -6.28655e-16 0)
(3 -3.26384e-16 0)
(3 -7.48296e-16 0)
(3 -5.4999e-16 0)
(3 4.16894e-16 0)
(3 3.83614e-16 0)
(3 6.36651e-16 0)
(3 -5.23532e-10 0)
(3.00001 -2.24942e-06 0)
(3.04586 0.0130038 0)
(1.78051 0.781099 0)
(1.21675 0.897092 0)
(1.22609 0.895739 0)
(1.26901 0.90162 0)
(1.31951 0.906269 0)
(1.38542 0.903567 0)
(1.46127 0.890635 0)
(3 -4.22279e-17 0)
(3 -2.19959e-16 0)
(3 -2.3281e-16 0)
(3 6.95881e-17 0)
(3 5.60595e-16 0)
(3 1.07823e-15 0)
(3 8.55176e-16 0)
(3 5.05299e-16 0)
(3 1.0152e-15 0)
(3 1.40584e-15 0)
(3 1.54483e-15 0)
(3 1.07466e-15 0)
(3 8.09715e-16 0)
(3 6.20687e-16 0)
(3 -9.62268e-13 0)
(3 -3.54147e-07 0)
(3.00082 0.000242989 0)
(2.81139 0.366206 0)
(1.4491 0.919302 0)
(1.27235 0.885728 0)
(1.32388 0.891435 0)
(1.36701 0.899428 0)
(1.42553 0.898389 0)
(1.4918 0.887313 0)
(3 2.67199e-16 0)
(3 4.35862e-16 0)
(3 7.99143e-16 0)
(3 9.52258e-16 0)
(3 8.06763e-16 0)
(3 7.39213e-16 0)
(3 1.18318e-15 0)
(3 1.58292e-15 0)
(3 1.93067e-15 0)
(3 2.53413e-15 0)
(3 1.83719e-15 0)
(3 7.28195e-16 0)
(3 6.34745e-16 0)
(3 1.06632e-15 0)
(3 8.21101e-16 0)
(3 -1.78595e-08 0)
(3 2.60965e-07 0)
(3.03473 0.0195123 0)
(2.01608 0.792679 0)
(1.34508 0.941488 0)
(1.34809 0.93422 0)
(1.39421 0.930408 0)
(1.44645 0.924113 0)
(1.50852 0.90986 0)
(3 9.61988e-17 0)
(3 1.00494e-16 0)
(3 1.88478e-16 0)
(3 8.26964e-16 0)
(3 8.99479e-16 0)
(3 7.75247e-16 0)
(3 9.53987e-16 0)
(3 1.60806e-15 0)
(3 2.12316e-15 0)
(3 2.49047e-15 0)
(3 2.01366e-15 0)
(3 1.57824e-15 0)
(3 9.49156e-16 0)
(3 2.44474e-16 0)
(3 1.49278e-15 0)
(3 -1.8941e-10 0)
(3 -1.23582e-10 0)
(3.0006 0.000493941 0)
(2.90935 0.260555 0)
(1.67477 0.922906 0)
(1.38538 0.938655 0)
(1.44147 0.927691 0)
(1.48309 0.921401 0)
(1.54049 0.907541 0)
(3 -1.10389e-16 0)
(3 -2.7015e-16 0)
(3 -2.44384e-16 0)
(3 6.09167e-16 0)
(3 2.01895e-15 0)
(3 2.11601e-15 0)
(3 1.89962e-15 0)
(3 1.59951e-15 0)
(3 2.03257e-15 0)
(3 1.48027e-15 0)
(3 1.38653e-15 0)
(3 1.00916e-15 0)
(3 8.86973e-16 0)
(3 4.46833e-16 0)
(3 1.4809e-15 0)
(3 -2.68892e-13 0)
(3 -2.33633e-11 0)
(3 8.26474e-07 0)
(3.01139 0.0143387 0)
(2.45047 0.658043 0)
(1.50301 0.991145 0)
(1.457 0.966765 0)
(1.51733 0.944914 0)
(1.56634 0.929653 0)
(3 4.76532e-18 0)
(3 1.28098e-16 0)
(3 -3.7891e-17 0)
(3 2.2852e-16 0)
(3 7.26664e-16 0)
(3 1.53017e-15 0)
(3 1.42256e-15 0)
(3 1.27306e-15 0)
(3 9.90254e-16 0)
(3 -2.61427e-16 0)
(3 -8.21106e-16 0)
(3 -3.8501e-16 0)
(3 1.40611e-17 0)
(3 9.49807e-16 0)
(3 9.07384e-16 0)
(3 1.14195e-15 0)
(3 -1.84898e-12 0)
(3 1.56952e-10 0)
(3.00007 0.00023567 0)
(3.0115 0.102012 0)
(2.01928 0.854956 0)
(1.52856 0.983074 0)
(1.54811 0.970242 0)
(1.59025 0.951838 0)
(3 -3.11684e-18 0)
(3 4.02213e-16 0)
(3 7.15427e-16 0)
(3 1.35273e-16 0)
(3 1.84917e-16 0)
(3 5.39031e-16 0)
(3 -1.68102e-16 0)
(3 -2.78531e-16 0)
(3 -4.58391e-16 0)
(3 -1.09782e-15 0)
(3 -1.38509e-15 0)
(3 -1.54494e-16 0)
(3 7.80251e-17 0)
(3 7.52262e-16 0)
(3 6.43279e-16 0)
(3 8.47398e-16 0)
(3 -1.20637e-13 0)
(3 -5.68848e-13 0)
(3 2.64304e-07 0)
(3.00183 0.00454197 0)
(2.82004 0.34023 0)
(1.82227 0.939179 0)
(1.58009 0.990144 0)
(1.61784 0.971936 0)
(3 -1.16227e-16 0)
(3 -4.0049e-18 0)
(3 2.02384e-16 0)
(3 1.37662e-16 0)
(3 1.39954e-16 0)
(3 5.74949e-17 0)
(3 -9.36598e-16 0)
(3 -1.47883e-15 0)
(3 -1.87451e-15 0)
(3 -1.06426e-15 0)
(3 -2.57972e-16 0)
(3 3.35998e-16 0)
(3 7.13188e-16 0)
(3 -1.48511e-16 0)
(3 -9.58383e-16 0)
(3 -3.67688e-16 0)
(3 -5.82787e-15 0)
(3 -3.36477e-13 0)
(3 5.78367e-11 0)
(3 2.38515e-05 0)
(3.00404 0.0255582 0)
(2.51414 0.586794 0)
(1.75857 0.987106 0)
(1.637 0.997097 0)
(3 -1.45899e-17 0)
(3 -7.68974e-17 0)
(3 -1.88071e-16 0)
(3 1.10775e-16 0)
(3 3.5041e-16 0)
(3 -1.87683e-16 0)
(3 -5.88813e-16 0)
(3 -6.32577e-16 0)
(3 -5.34439e-16 0)
(3 -1.33957e-16 0)
(3 3.52425e-16 0)
(3 7.48015e-16 0)
(3 8.61461e-16 0)
(3 3.0334e-16 0)
(3 -5.8484e-17 0)
(3 1.55998e-16 0)
(3 -3.06865e-16 0)
(3 -7.82291e-14 0)
(3 -1.09192e-13 0)
(3 1.38978e-08 0)
(3 0.000513008 0)
(2.98113 0.082188 0)
(2.2902 0.748641 0)
(1.73556 1.01343 0)
(3 2.27428e-16 0)
(3 1.96818e-16 0)
(3 3.67793e-16 0)
(3 2.67679e-16 0)
(3 3.40527e-17 0)
(3 -7.99749e-16 0)
(3 -6.63073e-16 0)
(3 -1.04558e-16 0)
(3 7.84141e-16 0)
(3 1.19843e-15 0)
(3 1.15134e-15 0)
(3 2.66344e-16 0)
(3 -6.18917e-16 0)
(3 -4.49864e-16 0)
(3 1.37141e-16 0)
(3 2.64004e-16 0)
(3 1.9369e-16 0)
(3 -4.47303e-15 0)
(3 -4.30512e-14 0)
(3 1.96165e-12 0)
(3 8.55801e-07 0)
(2.99997 0.00328188 0)
(2.90303 0.194503 0)
(2.16639 0.830464 0)
(3 -1.95027e-17 0)
(3 1.18626e-16 0)
(3 -7.23497e-17 0)
(3 -1.9257e-16 0)
(3 -5.72171e-16 0)
(3 -4.40745e-16 0)
(3 1.8274e-16 0)
(3 4.91268e-16 0)
(3 7.12538e-16 0)
(3 5.07533e-16 0)
(3 5.01053e-16 0)
(3 2.78875e-16 0)
(3 3.05064e-16 0)
(3 3.15503e-16 0)
(3 2.74103e-16 0)
(3 -4.58002e-16 0)
(3 -5.61756e-16 0)
(3 -7.31166e-16 0)
(3 -6.78892e-15 0)
(3 -6.34632e-15 0)
(3 3.53909e-10 0)
(3 1.36989e-05 0)
(2.99843 0.011033 0)
(2.79314 0.328322 0)
(3 1.19191e-16 0)
(3 -1.35545e-16 0)
(3 -4.80274e-16 0)
(3 -9.65256e-16 0)
(3 -3.36581e-16 0)
(3 5.06703e-16 0)
(3 7.61421e-16 0)
(3 6.07293e-16 0)
(3 2.25874e-16 0)
(3 -2.6196e-17 0)
(3 -3.04215e-16 0)
(3 7.98675e-16 0)
(3 1.68346e-15 0)
(3 1.84207e-15 0)
(3 1.41472e-15 0)
(3 7.30672e-16 0)
(3 3.24636e-16 0)
(3 2.67475e-16 0)
(3 4.08117e-16 0)
(3 -1.22694e-15 0)
(3 2.85642e-14 0)
(3 1.04294e-08 0)
(2.99998 0.000100319 0)
(2.99285 0.0261657 0)
(3 -1.67477e-17 0)
(3 1.33467e-17 0)
(3 -1.94547e-16 0)
(3 -3.93349e-16 0)
(3 -1.44125e-16 0)
(3 3.39125e-16 0)
(3 8.38549e-16 0)
(3 7.99342e-16 0)
(3 1.18531e-15 0)
(3 1.58722e-15 0)
(3 1.00187e-15 0)
(3 7.10002e-16 0)
(3 5.49398e-16 0)
(3 4.59836e-16 0)
(3 7.3165e-16 0)
(3 1.03353e-15 0)
(3 1.20679e-15 0)
(3 1.15698e-15 0)
(3 1.90602e-15 0)
(3 7.5574e-16 0)
(3 1.83778e-16 0)
(3 1.4987e-12 0)
(3 1.21654e-07 0)
(2.9999 0.000443164 0)
(3 -1.43145e-16 0)
(3 -7.08712e-18 0)
(3 1.51162e-16 0)
(3 2.29135e-16 0)
(3 2.47516e-16 0)
(3 3.87582e-17 0)
(3 7.15033e-16 0)
(3 1.80393e-15 0)
(3 2.14783e-15 0)
(3 1.59434e-15 0)
(3 1.69608e-15 0)
(3 6.56172e-16 0)
(3 -1.03691e-16 0)
(3 -1.20574e-17 0)
(3 -2.93584e-16 0)
(3 -3.41014e-18 0)
(3 6.6659e-16 0)
(3 1.17256e-15 0)
(3 8.00089e-16 0)
(3 3.198e-16 0)
(3 -6.77726e-16 0)
(3 -7.37307e-17 0)
(3 3.4244e-11 0)
(3 8.19761e-07 0)
(3 -1.01764e-16 0)
(3 -2.20694e-16 0)
(3 4.80722e-16 0)
(3 4.27597e-16 0)
(3 4.40459e-16 0)
(3 1.56067e-16 0)
(3 4.59299e-16 0)
(3 8.15761e-16 0)
(3 6.46244e-16 0)
(3 3.09316e-16 0)
(3 1.95552e-16 0)
(3 -6.01744e-16 0)
(3 -8.7763e-16 0)
(3 -4.37221e-16 0)
(3 -3.68813e-16 0)
(3 3.54189e-16 0)
(3 1.04838e-15 0)
(3 9.95019e-16 0)
(3 -4.28586e-16 0)
(3 -1.28695e-15 0)
(3 -1.4683e-15 0)
(3 -2.21005e-15 0)
(3 6.0091e-16 0)
(3 3.88516e-10 0)
(3 -4.9915e-18 0)
(3 -3.21501e-16 0)
(3 -4.42698e-17 0)
(3 3.35941e-16 0)
(3 -1.59224e-16 0)
(3 8.07244e-17 0)
(3 -5.90186e-17 0)
(3 -5.11019e-16 0)
(3 -2.58574e-16 0)
(3 1.39345e-16 0)
(3 -2.89733e-17 0)
(3 -1.95567e-16 0)
(3 -7.86912e-16 0)
(3 -1.15022e-15 0)
(3 -8.17848e-16 0)
(3 -5.01993e-16 0)
(3 -7.03854e-16 0)
(3 -1.57657e-15 0)
(3 -1.61761e-15 0)
(3 -1.64339e-15 0)
(3 -1.86082e-15 0)
(3 -2.37725e-15 0)
(3 -2.64681e-15 0)
(3 2.82294e-14 0)
(3 1.47303e-16 0)
(3 -1.50895e-17 0)
(3 -5.18375e-16 0)
(3 -7.23171e-16 0)
(3 -2.14666e-16 0)
(3 -2.97254e-16 0)
(3 -5.80715e-16 0)
(3 -1.02983e-15 0)
(3 -1.08514e-15 0)
(3 -3.88962e-16 0)
(3 -3.99807e-16 0)
(3 -2.11833e-16 0)
(3 -5.8885e-16 0)
(3 -1.05448e-15 0)
(3 -1.74367e-15 0)
(3 -1.76271e-15 0)
(3 -1.52454e-15 0)
(3 -1.20974e-15 0)
(3 -5.10266e-16 0)
(3 -9.98851e-16 0)
(3 -1.66939e-15 0)
(3 -1.40741e-15 0)
(3 -4.6162e-16 0)
(3 -2.35195e-16 0)
(3 4.76435e-17 0)
(3 1.0112e-16 0)
(3 -1.96845e-16 0)
(3 -3.48673e-16 0)
(3 5.73534e-17 0)
(3 -2.84015e-16 0)
(3 -9.61423e-16 0)
(3 -1.20731e-15 0)
(3 -2.13934e-15 0)
(3 -1.80657e-15 0)
(3 -1.9984e-15 0)
(3 -1.81508e-15 0)
(3 -1.37858e-15 0)
(3 -1.2259e-15 0)
(3 -9.19597e-16 0)
(3 -2.07959e-16 0)
(3 2.25687e-16 0)
(3 9.62929e-16 0)
(3 5.97093e-16 0)
(3 -9.07949e-17 0)
(3 -3.35029e-16 0)
(3 4.12735e-16 0)
(3 1.07978e-15 0)
(3 -2.84292e-16 0)
(3 8.88324e-18 0)
(3 2.37367e-16 0)
(3 9.74214e-17 0)
(3 -1.38968e-16 0)
(3 -6.75761e-16 0)
(3 -1.14673e-15 0)
(3 -1.07627e-15 0)
(3 -9.80203e-16 0)
(3 -1.40602e-15 0)
(3 -1.71755e-15 0)
(3 -1.41208e-15 0)
(3 -7.66781e-16 0)
(3 -1.61238e-16 0)
(3 -1.16826e-16 0)
(3 -1.94987e-16 0)
(3 1.10285e-16 0)
(3 2.1398e-16 0)
(3 1.00803e-15 0)
(3 1.77578e-15 0)
(3 2.46408e-15 0)
(3 2.89362e-15 0)
(3 2.89914e-15 0)
(3 1.30901e-15 0)
(3 7.32991e-16 0)
(3 2.10563e-16 0)
(3 7.27829e-16 0)
(3 4.3195e-16 0)
(3 -1.45845e-17 0)
(3 -1.19994e-15 0)
(3 -9.30837e-16 0)
(3 -2.4333e-16 0)
(3 -1.90144e-16 0)
(3 -7.30018e-16 0)
(3 -1.06001e-15 0)
(3 -3.92631e-16 0)
(3 5.64236e-16 0)
(3 1.41329e-15 0)
(3 1.57827e-15 0)
(3 8.44581e-16 0)
(3 9.20777e-17 0)
(3 -3.69081e-16 0)
(3 -4.59755e-16 0)
(3 6.89638e-17 0)
(3 1.49018e-15 0)
(3 2.8883e-15 0)
(3 2.92442e-15 0)
(3 2.40106e-15 0)
(3 1.99408e-15 0)
(3 -1.07702e-16 0)
(3 -9.55956e-17 0)
(3 6.71943e-17 0)
(3 -9.3676e-17 0)
(3 -1.08647e-16 0)
(3 1.29969e-16 0)
(3 2.31503e-16 0)
(3 -1.51921e-16 0)
(3 -4.02644e-16 0)
(3 -6.96751e-16 0)
(3 -1.87926e-16 0)
(3 3.50143e-16 0)
(3 1.38766e-15 0)
(3 1.72297e-15 0)
(3 1.68169e-15 0)
(3 6.04423e-16 0)
(3 -1.00848e-16 0)
(3 -4.00304e-16 0)
(3 -3.33224e-16 0)
(3 -2.89622e-17 0)
(3 1.53011e-15 0)
(3 2.10181e-15 0)
(3 2.26256e-15 0)
(3 1.43688e-15 0)
(3 -3.17663e-16 0)
(3 -3.66077e-16 0)
(3 -1.61905e-16 0)
(3 3.36671e-16 0)
(3 9.63495e-16 0)
(3 9.16656e-16 0)
(3 -4.34012e-16 0)
(3 -4.55905e-16 0)
(3 -5.85889e-16 0)
(3 -6.77068e-16 0)
(3 -8.29676e-16 0)
(3 -2.94365e-16 0)
(3 1.31519e-16 0)
(3 9.82582e-16 0)
(3 1.89249e-15 0)
(3 1.23365e-15 0)
(3 4.67647e-16 0)
(3 8.19683e-16 0)
(3 4.26476e-16 0)
(3 4.9056e-18 0)
(3 3.44957e-16 0)
(3 9.46731e-16 0)
(3 1.14648e-15 0)
(3 8.09411e-16 0)
(3 2.84226e-17 0)
(3 2.45317e-16 0)
(3 3.09757e-16 0)
(3 3.48371e-16 0)
(3 4.36471e-16 0)
(3 5.57214e-16 0)
(3 3.70767e-17 0)
(3 -9.5114e-17 0)
(3 -4.54046e-16 0)
(3 -9.64739e-16 0)
(3 -1.34715e-15 0)
(3 -1.16993e-15 0)
(3 -4.34039e-16 0)
(3 6.35138e-16 0)
(3 1.06797e-15 0)
(3 4.89725e-16 0)
(3 1.85745e-16 0)
(3 3.6663e-16 0)
(3 4.45486e-16 0)
(3 2.90736e-16 0)
(3 3.42191e-16 0)
(3 6.65118e-16 0)
(3 8.21813e-16 0)
(3 7.72658e-16 0)
(1.57723 1.31805 0)
(2.04466 1.4264 0)
(2.22303 1.60219 0)
(2.42827 0.806565 0)
(2.69845 0.434003 0)
(2.71375 0.0474062 0)
(2.66001 -0.202304 0)
(2.57179 -0.330452 0)
(2.53208 -0.482321 0)
(2.59128 -0.409248 0)
(2.58747 -0.231593 0)
(2.58052 -0.151648 0)
(2.56484 -0.161899 0)
(2.58134 -0.141105 0)
(2.58957 -0.118096 0)
(2.56772 -0.103914 0)
(2.53531 -0.0610381 0)
(2.54197 -0.0521337 0)
(2.55496 -0.0398323 0)
(2.56133 -0.0103992 0)
(2.55926 -0.00268067 0)
(2.56023 -0.0040359 0)
(2.5658 -0.00427894 0)
(2.5824 -0.00308756 0)
(2.59125 -0.00341086 0)
(2.60489 -0.00490126 0)
(2.62122 -0.00295137 0)
(2.62867 0.00123478 0)
(2.62787 0.00224799 0)
(2.62452 -0.000921856 0)
(2.62836 -0.00420562 0)
(2.63692 -0.00497032 0)
(2.64653 -0.00504527 0)
(2.65792 -0.0036818 0)
(2.67299 -0.0031635 0)
(2.6808 -0.00465482 0)
(2.68784 -0.00670646 0)
(2.69667 -0.00929136 0)
(2.70628 -0.00966518 0)
(2.71594 -0.00694895 0)
(2.72619 -0.00124621 0)
(2.73674 0.00107784 0)
(2.74634 0.000498463 0)
(2.75884 -0.000812376 0)
(2.77632 -0.0021069 0)
(2.79336 -0.00120891 0)
(2.80602 -0.00158984 0)
(2.81543 -0.00414062 0)
(2.82413 -0.0065442 0)
(2.83423 -0.00617986 0)
(2.84519 -0.00407289 0)
(2.85418 -0.00374065 0)
(2.86202 -0.00494972 0)
(2.87166 -0.00687044 0)
(2.88536 -0.00833112 0)
(2.90005 -0.00749284 0)
(2.91161 -0.00421715 0)
(2.91807 -0.000847387 0)
(2.91851 -0.000354923 0)
(2.91721 -0.00071691 0)
(2.92106 0.000165134 0)
(2.93048 -0.000204174 0)
(2.94229 -0.0016792 0)
(2.95268 -0.0031906 0)
(2.96381 -0.00441775 0)
(2.97577 -0.00267565 0)
(2.98466 0.000844195 0)
(2.98859 0.0028796 0)
(2.98852 0.00459164 0)
(2.9903 0.00550974 0)
(2.99345 0.0044582 0)
(2.99773 0.00287733 0)
(3.00441 0.00188209 0)
(3.01183 0.00211069 0)
(3.01704 0.00319131 0)
(3.01782 0.00405407 0)
(3.01636 0.00547862 0)
(3.00837 0.00727217 0)
(2.99185 0.00911974 0)
(2.97074 0.0106779 0)
(2.95672 0.0112421 0)
(2.95016 0.010754 0)
(2.94068 0.00877585 0)
(2.9331 0.0043061 0)
(2.92859 -0.00361365 0)
(2.92156 -0.0137592 0)
(2.91062 -0.0249618 0)
(2.89838 -0.0379998 0)
(2.88821 -0.050529 0)
(2.87848 -0.0559911 0)
(2.86845 -0.0575281 0)
(2.8576 -0.0571337 0)
(2.84632 -0.0561038 0)
(2.83296 -0.0551528 0)
(2.81598 -0.0573009 0)
(2.81209 -0.0613231 0)
(1.83037 1.1373 0)
(2.36284 0.811555 0)
(2.63539 0.59478 0)
(2.76909 0.158062 0)
(2.82067 -0.355056 0)
(2.79545 -0.451613 0)
(2.81744 -0.588628 0)
(2.83695 -0.646652 0)
(2.80973 -0.613864 0)
(2.75347 -0.539779 0)
(2.66257 -0.373495 0)
(2.63827 -0.237689 0)
(2.64068 -0.202867 0)
(2.64128 -0.177189 0)
(2.63407 -0.133742 0)
(2.60581 -0.079669 0)
(2.58002 -0.054304 0)
(2.58192 -0.0288549 0)
(2.57314 -0.00873853 0)
(2.5696 0.0197214 0)
(2.56349 0.0132579 0)
(2.57128 -0.00599151 0)
(2.58914 -0.00135881 0)
(2.5945 0.0085661 0)
(2.59801 0.0125716 0)
(2.60872 0.00521723 0)
(2.6223 -0.00118318 0)
(2.63085 -0.000437502 0)
(2.63291 -0.00229816 0)
(2.63508 -0.00877342 0)
(2.64022 -0.0146863 0)
(2.65089 -0.0146172 0)
(2.66404 -0.011661 0)
(2.67765 -0.00200287 0)
(2.68664 0.00699383 0)
(2.69548 0.00817467 0)
(2.70427 0.00503267 0)
(2.71177 -0.000829749 0)
(2.71924 -0.00469185 0)
(2.72696 -0.00537357 0)
(2.7346 -0.00120471 0)
(2.74566 0.00607586 0)
(2.75576 0.00927251 0)
(2.76946 0.00853872 0)
(2.78598 0.00462441 0)
(2.80163 0.00266551 0)
(2.81539 0.00134118 0)
(2.827 -0.00207291 0)
(2.83676 -0.00580945 0)
(2.84596 -0.00598141 0)
(2.85639 -0.00119551 0)
(2.86613 0.00350976 0)
(2.87575 0.00210425 0)
(2.88671 -0.00440465 0)
(2.89939 -0.0102739 0)
(2.91328 -0.0139945 0)
(2.9258 -0.0148725 0)
(2.93592 -0.0106812 0)
(2.94011 -0.00174423 0)
(2.93536 0.00132177 0)
(2.92884 -0.00417637 0)
(2.933 -0.00858315 0)
(2.94751 -0.0103147 0)
(2.96095 -0.0123599 0)
(2.97406 -0.0145649 0)
(2.98652 -0.014655 0)
(2.99709 -0.0116023 0)
(3.00513 -0.00581245 0)
(3.00753 0.00404893 0)
(3.00416 0.0162437 0)
(3.00351 0.0228686 0)
(3.00503 0.0229876 0)
(3.01072 0.0224848 0)
(3.01541 0.0227296 0)
(3.01942 0.0215221 0)
(3.02256 0.0166866 0)
(3.02106 0.00568683 0)
(3.01585 -0.0043627 0)
(3.00432 -0.00952611 0)
(2.97863 -0.0199853 0)
(2.96371 -0.0321091 0)
(2.94644 -0.0490269 0)
(2.92979 -0.0760163 0)
(2.91399 -0.114119 0)
(2.90016 -0.162678 0)
(2.89378 -0.213361 0)
(2.89147 -0.260013 0)
(2.89188 -0.307122 0)
(2.89922 -0.350965 0)
(2.89979 -0.366803 0)
(2.89202 -0.370716 0)
(2.88202 -0.36888 0)
(2.87296 -0.364349 0)
(2.85973 -0.356836 0)
(2.84134 -0.351503 0)
(2.86227 -0.352146 0)
(1.68445 1.12249 0)
(2.12621 0.928402 0)
(2.48691 0.559107 0)
(2.56764 0.437821 0)
(2.65933 0.192117 0)
(2.7534 -0.0135951 0)
(2.79194 -0.0703316 0)
(2.84496 -0.271599 0)
(2.84096 -0.357897 0)
(2.84252 -0.399333 0)
(2.82853 -0.402975 0)
(2.78781 -0.432384 0)
(2.7831 -0.444497 0)
(2.77931 -0.387375 0)
(2.76654 -0.315458 0)
(2.74963 -0.249303 0)
(2.73875 -0.207361 0)
(2.69012 -0.149843 0)
(2.63048 -0.0744357 0)
(2.61605 -0.0249937 0)
(2.61537 -0.0239333 0)
(2.63554 -0.00561002 0)
(2.64673 0.0206667 0)
(2.64299 0.0305751 0)
(2.64116 0.0198905 0)
(2.63965 -0.0044722 0)
(2.6449 -0.0120284 0)
(2.65311 -0.00866901 0)
(2.65439 -0.0127893 0)
(2.65991 -0.0186548 0)
(2.66579 -0.026828 0)
(2.67771 -0.02768 0)
(2.69347 -0.0248886 0)
(2.70683 -0.0156888 0)
(2.71496 -0.00528284 0)
(2.72201 -0.000594367 0)
(2.72939 -0.00237873 0)
(2.73482 -0.00505791 0)
(2.73965 -0.0072512 0)
(2.74532 -0.00550236 0)
(2.7508 -0.00322535 0)
(2.76024 -0.00375079 0)
(2.7709 -0.00846549 0)
(2.7822 -0.0150371 0)
(2.79605 -0.016083 0)
(2.81054 -0.0106849 0)
(2.82272 -0.0054888 0)
(2.83398 -0.00711147 0)
(2.84362 -0.0103439 0)
(2.85324 -0.00904285 0)
(2.86446 -0.00359173 0)
(2.87581 0.00166342 0)
(2.88552 0.00463369 0)
(2.89464 0.00230495 0)
(2.90544 -0.00422607 0)
(2.9174 -0.00892031 0)
(2.92969 -0.00983647 0)
(2.94066 -0.0105452 0)
(2.94931 -0.0111707 0)
(2.95135 -0.00602737 0)
(2.94072 0.00529341 0)
(2.93733 0.0113778 0)
(2.9522 0.0112413 0)
(2.96678 0.00781967 0)
(2.98201 0.00188935 0)
(2.99497 -0.000832461 0)
(3.00511 -0.00108626 0)
(3.01548 -0.0015425 0)
(3.02209 -0.00020791 0)
(3.01822 0.00382523 0)
(3.01514 0.011801 0)
(3.01656 0.0116763 0)
(3.02027 0.00936463 0)
(3.01959 -0.000272151 0)
(3.01526 -0.0211945 0)
(3.00785 -0.0558946 0)
(2.99644 -0.108134 0)
(2.98834 -0.171591 0)
(2.98376 -0.23336 0)
(2.97266 -0.286553 0)
(2.95703 -0.323358 0)
(2.93405 -0.355701 0)
(2.91112 -0.385441 0)
(2.89247 -0.413363 0)
(2.87964 -0.446193 0)
(2.87573 -0.478015 0)
(2.87927 -0.507356 0)
(2.88963 -0.533849 0)
(2.90742 -0.558119 0)
(2.91323 -0.566389 0)
(2.90973 -0.565262 0)
(2.90844 -0.561577 0)
(2.90474 -0.556478 0)
(2.89799 -0.547639 0)
(2.87451 -0.532887 0)
(2.90025 -0.528033 0)
(1.62164 1.00887 0)
(1.96281 0.860311 0)
(2.14787 0.768837 0)
(2.33078 0.601087 0)
(2.53389 0.296522 0)
(2.65728 0.0917526 0)
(2.69002 0.0660868 0)
(2.74158 -0.073159 0)
(2.78998 -0.282363 0)
(2.82085 -0.3357 0)
(2.84358 -0.400336 0)
(2.84755 -0.447447 0)
(2.8377 -0.490703 0)
(2.85101 -0.471999 0)
(2.84356 -0.430041 0)
(2.82559 -0.391247 0)
(2.80183 -0.368124 0)
(2.76754 -0.310051 0)
(2.73171 -0.228251 0)
(2.71152 -0.171627 0)
(2.70219 -0.150355 0)
(2.69418 -0.10561 0)
(2.68813 -0.0562617 0)
(2.68866 -0.00845298 0)
(2.68227 -0.00464252 0)
(2.6753 0.000571206 0)
(2.67801 0.00646746 0)
(2.67976 0.0180115 0)
(2.67738 0.0247842 0)
(2.68208 0.0180495 0)
(2.69554 0.00318202 0)
(2.70923 -0.0174602 0)
(2.7228 -0.0218234 0)
(2.73363 -0.0176033 0)
(2.74268 -0.0183867 0)
(2.74819 -0.0229641 0)
(2.75022 -0.0235321 0)
(2.75353 -0.0229011 0)
(2.75714 -0.0221264 0)
(2.76115 -0.0184145 0)
(2.768 -0.00862738 0)
(2.77488 0.000784142 0)
(2.78382 0.000248825 0)
(2.79105 -0.00326417 0)
(2.79997 -0.00194674 0)
(2.80913 0.00463078 0)
(2.81831 0.00591265 0)
(2.83094 -0.00344648 0)
(2.8411 -0.0168523 0)
(2.84932 -0.0252965 0)
(2.86089 -0.0229732 0)
(2.87342 -0.0149398 0)
(2.88378 -0.00980083 0)
(2.89236 -0.010181 0)
(2.90064 -0.0112495 0)
(2.91065 -0.0106713 0)
(2.92195 -0.00871833 0)
(2.93376 -0.00640517 0)
(2.94485 -0.00452843 0)
(2.95094 -0.00413256 0)
(2.94535 -0.00307262 0)
(2.94284 0.00271884 0)
(2.95439 0.00668162 0)
(2.97016 0.00981108 0)
(2.98656 0.0142912 0)
(2.99874 0.0183372 0)
(3.00953 0.0209342 0)
(3.01837 0.0202227 0)
(3.02363 0.0180596 0)
(3.01774 -0.00364794 0)
(3.01026 -0.0222736 0)
(3.00068 -0.0549708 0)
(2.98924 -0.107818 0)
(2.97563 -0.172199 0)
(2.95741 -0.248142 0)
(2.94049 -0.328197 0)
(2.93519 -0.398898 0)
(2.93839 -0.46383 0)
(2.95262 -0.519002 0)
(2.95709 -0.559684 0)
(2.94948 -0.583411 0)
(2.93145 -0.5954 0)
(2.91737 -0.596179 0)
(2.89986 -0.6012 0)
(2.89424 -0.604711 0)
(2.895 -0.604331 0)
(2.90216 -0.599178 0)
(2.91448 -0.595779 0)
(2.926 -0.597601 0)
(2.93341 -0.597557 0)
(2.93635 -0.5964 0)
(2.9384 -0.595854 0)
(2.94017 -0.596744 0)
(2.94249 -0.591447 0)
(2.9325 -0.579626 0)
(2.94765 -0.562736 0)
(1.58605 0.954316 0)
(1.82911 0.866941 0)
(2.00044 0.795737 0)
(2.20453 0.64997 0)
(2.38687 0.425828 0)
(2.47106 0.347247 0)
(2.53244 0.261419 0)
(2.64457 0.0629092 0)
(2.6913 -0.0733926 0)
(2.73285 -0.0882866 0)
(2.74293 -0.10337 0)
(2.78362 -0.226482 0)
(2.78553 -0.325364 0)
(2.80863 -0.321615 0)
(2.81105 -0.355878 0)
(2.80352 -0.37291 0)
(2.80242 -0.410518 0)
(2.80998 -0.403783 0)
(2.80641 -0.356436 0)
(2.78976 -0.310767 0)
(2.76482 -0.272632 0)
(2.73861 -0.214396 0)
(2.71197 -0.13304 0)
(2.71493 -0.0792908 0)
(2.71513 -0.0733323 0)
(2.71023 -0.0677508 0)
(2.7021 -0.0534023 0)
(2.69474 -0.0251802 0)
(2.69658 0.00395642 0)
(2.69978 0.0115221 0)
(2.71449 0.0112944 0)
(2.72541 0.00820348 0)
(2.7334 0.00958952 0)
(2.74285 0.00910728 0)
(2.7534 -0.000402926 0)
(2.76162 -0.0141324 0)
(2.7651 -0.0258407 0)
(2.76473 -0.028805 0)
(2.76661 -0.028527 0)
(2.77022 -0.0265069 0)
(2.77737 -0.021109 0)
(2.78742 -0.0146751 0)
(2.79417 -0.00830991 0)
(2.79639 -0.00607541 0)
(2.79956 -0.00108674 0)
(2.80319 0.0100091 0)
(2.80953 0.011175 0)
(2.82025 0.00257274 0)
(2.83053 -0.0117593 0)
(2.83845 -0.0232528 0)
(2.84918 -0.0264058 0)
(2.86273 -0.0250778 0)
(2.87603 -0.0208962 0)
(2.88568 -0.0160404 0)
(2.89201 -0.0121667 0)
(2.89847 -0.00753384 0)
(2.90602 -0.00235845 0)
(2.91543 0.00319232 0)
(2.92638 0.00690252 0)
(2.9361 0.00775583 0)
(2.93872 0.00923681 0)
(2.94042 0.00751295 0)
(2.9469 0.00774439 0)
(2.96565 0.00641307 0)
(2.97953 0.00457784 0)
(2.98786 -0.00376714 0)
(2.99586 -0.0195266 0)
(2.99408 -0.0572628 0)
(2.98086 -0.118191 0)
(2.96426 -0.190747 0)
(2.94516 -0.264715 0)
(2.92356 -0.342816 0)
(2.90534 -0.413104 0)
(2.89023 -0.47325 0)
(2.87506 -0.530847 0)
(2.87397 -0.573224 0)
(2.88699 -0.601664 0)
(2.90025 -0.63965 0)
(2.92578 -0.648072 0)
(2.93089 -0.655839 0)
(2.93131 -0.652598 0)
(2.92919 -0.647443 0)
(2.92257 -0.642044 0)
(2.91829 -0.627729 0)
(2.91862 -0.613627 0)
(2.92205 -0.599818 0)
(2.92588 -0.583816 0)
(2.93238 -0.567406 0)
(2.93913 -0.555567 0)
(2.94789 -0.55311 0)
(2.95575 -0.555582 0)
(2.96265 -0.559364 0)
(2.96891 -0.565279 0)
(2.9772 -0.563136 0)
(2.98096 -0.552077 0)
(2.98772 -0.528827 0)
(1.56378 0.904044 0)
(1.75226 0.860442 0)