/*--------------------------------*- C++ -*----------------------------------*\
  =========                 |
  \\      /  F ield         | OpenFOAM: The Open Source CFD Toolbox
   \\    /   O peration     | Website:  https://openfoam.org
    \\  /    A nd           | Version:  7
     \\/     M anipulation  |
\*---------------------------------------------------------------------------*/
FoamFile
{
    version     2.0;
    format      ascii;
    class       volVectorField;
    location    "3.2";
    object      U;
}
// * * * * * * * * * * * * * * * * * * * * * * * * * * * * * * * * * * * * * //

dimensions      [0 1 -1 0 0 0 0];

internalField   nonuniform List<vector> 
4032
(
(3 -4.65217e-18 0)
(3 -3.18488e-17 0)
(3 -1.37541e-16 0)
(3 -3.37634e-17 0)
(3 -1.82114e-16 0)
(3 -1.82919e-16 0)
(3 1.36856e-16 0)
(3 6.97163e-17 0)
(3 -2.00548e-16 0)
(3 -4.40371e-16 0)
(3 -3.27196e-16 0)
(2.96535 0.0022468 0)
(1.03444 0.0180865 0)
(0.708592 0.0184289 0)
(0.656839 0.02245 0)
(0.598454 0.0243577 0)
(0.539181 0.025847 0)
(0.478086 0.0269521 0)
(0.415825 0.0279846 0)
(0.351872 0.0296277 0)
(0.28483 0.0322386 0)
(0.212114 0.036292 0)
(0.132477 0.0393368 0)
(0.0494464 0.0446377 0)
(3 -2.63509e-18 0)
(3 -8.92811e-18 0)
(3 -1.81411e-16 0)
(3 -3.43097e-16 0)
(3 -4.37735e-16 0)
(3 -7.95544e-16 0)
(3 -9.11087e-16 0)
(3 -5.73636e-16 0)
(3 -7.48325e-16 0)
(3 -9.77679e-16 0)
(3 -7.23471e-16 0)
(2.97422 0.0155846 0)
(1.04594 0.0791696 0)
(0.704625 0.0661762 0)
(0.652206 0.0704389 0)
(0.595244 0.076216 0)
(0.536494 0.0811601 0)
(0.475161 0.0854073 0)
(0.411595 0.0892736 0)
(0.345692 0.0943918 0)
(0.27696 0.101522 0)
(0.204179 0.112938 0)
(0.125681 0.121611 0)
(0.0464566 0.135766 0)
(3 -1.10325e-16 0)
(3 1.11383e-16 0)
(3 2.16982e-16 0)
(3 1.54135e-16 0)
(3 -1.15295e-16 0)
(3 -1.05764e-15 0)
(3 -1.21479e-15 0)
(3 -1.05583e-15 0)
(3 -9.33836e-16 0)
(3 -7.29349e-16 0)
(3 -8.41591e-16 0)
(3.00233 0.00371747 0)
(1.109 0.130258 0)
(0.72701 0.107833 0)
(0.672644 0.115977 0)
(0.615057 0.125654 0)
(0.555749 0.134208 0)
(0.494073 0.142332 0)
(0.429342 0.150237 0)
(0.361069 0.159981 0)
(0.288686 0.171757 0)
(0.212349 0.189745 0)
(0.129401 0.202791 0)
(0.0478591 0.223238 0)
(3 3.76532e-17 0)
(3 5.56348e-17 0)
(3 3.86467e-16 0)
(3 4.11571e-16 0)
(3 -3.78982e-16 0)
(3 -1.06176e-15 0)
(3 -1.11284e-15 0)
(3 -8.00292e-16 0)
(3 1.24681e-16 0)
(3 5.53696e-16 0)
(3 2.72557e-16 0)
(3.00022 1.95084e-05 0)
(1.20075 0.176627 0)
(0.736808 0.152733 0)
(0.678174 0.164791 0)
(0.621048 0.17776 0)
(0.561823 0.189358 0)
(0.500618 0.201709 0)
(0.435637 0.214695 0)
(0.366178 0.230507 0)
(0.291673 0.247566 0)
(0.214392 0.272393 0)
(0.129986 0.290177 0)
(0.04698 0.31485 0)
(3 -9.64558e-17 0)
(3 -7.59105e-17 0)
(3 -5.04573e-16 0)
(3 -9.65844e-16 0)
(3 -8.57303e-16 0)
(3 -7.99116e-16 0)
(3 -7.42557e-17 0)
(3 3.64655e-16 0)
(3 4.86004e-16 0)
(3 5.33197e-16 0)
(3 1.84013e-17 0)
(3 -4.35389e-08 0)
(1.34585 0.227236 0)
(0.750903 0.201338 0)
(0.682707 0.212745 0)
(0.62848 0.228087 0)
(0.572123 0.242378 0)
(0.514728 0.259173 0)
(0.453532 0.277952 0)
(0.387964 0.300886 0)
(0.315643 0.32347 0)
(0.239283 0.355526 0)
(0.149182 0.381303 0)
(0.0567644 0.413593 0)
(3 -5.18009e-17 0)
(3 -3.96744e-17 0)
(3 -2.66945e-16 0)
(3 -2.38528e-16 0)
(3 -4.37491e-17 0)
(3 3.55549e-17 0)
(3 3.72062e-16 0)
(3 1.31826e-16 0)
(3 3.65345e-16 0)
(3 -3.07368e-16 0)
(3 -1.0221e-16 0)
(3 -1.52915e-08 0)
(1.56415 0.277078 0)
(0.775047 0.258852 0)
(0.686494 0.261228 0)
(0.633242 0.276239 0)
(0.580099 0.292078 0)
(0.528574 0.312795 0)
(0.473775 0.337374 0)
(0.41392 0.369334 0)
(0.341364 0.402652 0)
(0.260804 0.449158 0)
(0.16261 0.492603 0)
(0.0557258 0.533654 0)
(3 1.54035e-16 0)
(3 -1.88994e-16 0)
(3 5.00345e-17 0)
(3 -7.57555e-17 0)
(3 1.91754e-16 0)
(3 2.316e-16 0)
(3 4.41955e-17 0)
(3 -7.01812e-17 0)
(3 -4.15834e-16 0)
(3 -8.30062e-16 0)
(3 -4.06811e-16 0)
(3 -2.65387e-09 0)
(1.87673 0.328391 0)
(0.813346 0.332239 0)
(0.692836 0.318953 0)
(0.637955 0.327699 0)
(0.586374 0.341804 0)
(0.539645 0.364239 0)
(0.491484 0.393898 0)
(0.442773 0.435935 0)
(0.381948 0.483879 0)
(0.315991 0.543222 0)
(0.227565 0.604845 0)
(0.0989426 0.674443 0)
(3 -1.73518e-17 0)
(3 -2.5302e-16 0)
(3 -4.11616e-16 0)
(3 -6.51941e-16 0)
(3 -7.25075e-16 0)
(3 -3.79979e-16 0)
(3 -4.76603e-16 0)
(3 -3.52295e-16 0)
(3 -5.12774e-16 0)
(3 -8.0735e-16 0)
(3 -4.37374e-16 0)
(3 -2.40902e-10 0)
(2.33449 0.342318 0)
(0.895867 0.42074 0)
(0.739796 0.37777 0)
(0.684858 0.383107 0)
(0.628711 0.393074 0)
(0.579306 0.414156 0)
(0.532859 0.446034 0)
(0.489674 0.4932 0)
(0.443091 0.551869 0)
(0.383256 0.638038 0)
(0.269166 0.76456 0)
(0.149206 0.934655 0)
(3 -6.75614e-17 0)
(3 1.11374e-16 0)
(3 9.54497e-17 0)
(3 1.10928e-16 0)
(3 4.77672e-17 0)
(3 4.29792e-16 0)
(3 -2.00211e-16 0)
(3 -9.27764e-16 0)
(3 -5.37233e-16 0)
(3 -7.35087e-16 0)
(3 2.22634e-16 0)
(3 -6.92329e-12 0)
(2.9103 0.178844 0)
(1.07414 0.47156 0)
(0.836019 0.409851 0)
(0.778699 0.425953 0)
(0.71093 0.442938 0)
(0.65141 0.463889 0)
(0.600408 0.4949 0)
(0.557669 0.54375 0)
(0.520108 0.617783 0)
(0.486175 0.743759 0)
(0.457434 0.923735 0)
(0.575736 1.21014 0)
(3 9.31503e-17 0)
(3 3.72432e-16 0)
(3 9.43375e-16 0)
(3 7.51613e-16 0)
(3 7.66996e-16 0)
(3 6.16407e-16 0)
(3 5.51139e-16 0)
(3 2.51729e-16 0)
(3 -6.50573e-16 0)
(3 -8.35854e-16 0)
(3 1.41904e-17 0)
(3 -7.84149e-14 0)
(3.04523 0.0112619 0)
(1.28649 0.449213 0)
(0.877829 0.46788 0)
(0.839322 0.498395 0)
(0.779752 0.510196 0)
(0.72422 0.526274 0)
(0.67637 0.552906 0)
(0.635774 0.598452 0)
(0.615846 0.677386 0)
(0.614538 0.809327 0)
(0.678795 0.959594 0)
(0.964797 1.13584 0)
(3 8.91885e-17 0)
(3 3.8532e-16 0)
(3 9.19501e-16 0)
(3 1.08138e-15 0)
(3 5.94404e-16 0)
(3 6.16126e-16 0)
(3 7.54034e-16 0)
(3 8.12091e-16 0)
(3 5.80545e-16 0)
(3 5.87746e-16 0)
(3 5.5805e-16 0)
(3 -7.81416e-16 0)
(3.00161 -1.03311e-05 0)
(1.57852 0.466646 0)
(0.872094 0.517032 0)
(0.837071 0.544415 0)
(0.808102 0.56726 0)
(0.77868 0.584878 0)
(0.749096 0.609502 0)
(0.721639 0.646789 0)
(0.720251 0.715974 0)
(0.745737 0.828792 0)
(0.868621 0.956766 0)
(1.17554 1.06816 0)
(3 -7.11704e-18 0)
(3 -2.31955e-16 0)
(3 -2.57355e-16 0)
(3 -8.5139e-17 0)
(3 -1.06907e-16 0)
(3 4.17691e-16 0)
(3 7.40514e-16 0)
(3 4.7866e-16 0)
(3 9.20346e-16 0)
(3 1.27222e-15 0)
(3 1.77576e-15 0)
(3 1.20906e-15 0)
(3 -1.95083e-07 0)
(2.21991 0.477069 0)
(0.957292 0.587508 0)
(0.864308 0.55579 0)
(0.858793 0.584221 0)
(0.841588 0.616295 0)
(0.825358 0.650118 0)
(0.812732 0.68622 0)
(0.821669 0.745788 0)
(0.868447 0.830357 0)
(1.00848 0.929955 0)
(1.26844 0.995111 0)
(3 -1.17257e-16 0)
(3 -3.93225e-16 0)
(3 -1.02509e-15 0)
(3 -8.59638e-16 0)
(3 -4.41075e-16 0)
(3 -2.11498e-16 0)
(3 1.49242e-16 0)
(3 8.47085e-16 0)
(3 1.01139e-15 0)
(3 1.15859e-15 0)
(3 1.39539e-15 0)
(3 1.34566e-15 0)
(3 -2.17098e-07 0)
(3.01691 0.161617 0)
(1.2029 0.605658 0)
(0.941547 0.565925 0)
(0.931188 0.613914 0)
(0.912693 0.646329 0)
(0.900886 0.681738 0)
(0.900815 0.718306 0)
(0.916008 0.768247 0)
(0.9765 0.833434 0)
(1.11183 0.904137 0)
(1.32653 0.945226 0)
(3 1.78162e-18 0)
(3 5.04164e-16 0)
(3 3.16632e-16 0)
(3 1.81794e-16 0)
(3 1.12733e-16 0)
(3 1.06565e-16 0)
(3 4.32668e-16 0)
(3 1.23718e-15 0)
(3 1.11029e-15 0)
(3 8.48572e-16 0)
(3 4.88304e-16 0)
(3 1.04757e-15 0)
(3 -4.47909e-08 0)
(3.03821 0.00393177 0)
(1.47401 0.590656 0)
(0.972014 0.649027 0)
(0.943264 0.660032 0)
(0.933266 0.682829 0)
(0.943895 0.714191 0)
(0.963783 0.75043 0)
(0.997596 0.787469 0)
(1.06503 0.831877 0)
(1.18375 0.874914 0)
(1.35227 0.895832 0)
(3 5.30172e-18 0)
(3 3.5294e-16 0)
(3 6.75633e-16 0)
(3 9.20133e-16 0)
(3 1.40475e-15 0)
(3 7.66589e-16 0)
(3 1.94531e-16 0)
(3 8.05103e-17 0)
(3 4.21134e-16 0)
(3 5.31512e-16 0)
(3 -1.80517e-17 0)
(3 3.08242e-16 0)
(3 -3.6688e-09 0)
(3.00073 -8.56133e-06 0)
(2.1634 0.57165 0)
(1.05468 0.721349 0)
(0.986575 0.682915 0)
(0.974619 0.693839 0)
(0.98886 0.718561 0)
(1.01624 0.754796 0)
(1.06293 0.794566 0)
(1.13682 0.833107 0)
(1.24095 0.864254 0)
(1.37648 0.876771 0)
(3 -1.61009e-16 0)
(3 -3.02933e-16 0)
(3 -2.85772e-16 0)
(3 3.4579e-16 0)
(3 8.25859e-16 0)
(3 3.43913e-16 0)
(3 -9.7135e-16 0)
(3 -1.5216e-15 0)
(3 -1.54675e-15 0)
(3 -9.82166e-16 0)
(3 -6.87031e-16 0)
(3 -3.30427e-16 0)
(3 -2.11303e-11 0)
(3.00004 -1.68934e-05 0)
(3.04754 0.144265 0)
(1.35291 0.700043 0)
(1.07227 0.706943 0)
(1.05991 0.708091 0)
(1.05705 0.731959 0)
(1.07483 0.762666 0)
(1.11732 0.793173 0)
(1.18667 0.824582 0)
(1.2784 0.846503 0)
(1.39195 0.855118 0)
(3 -9.2366e-17 0)
(3 1.34788e-17 0)
(3 -7.86559e-17 0)
(3 -1.50131e-16 0)
(3 1.93419e-16 0)
(3 7.40742e-16 0)
(3 2.95107e-16 0)
(3 -7.00341e-16 0)
(3 -1.1964e-15 0)
(3 -1.29445e-15 0)
(3 -1.62042e-15 0)
(3 -9.17803e-16 0)
(3 -3.05455e-14 0)
(3 -3.76771e-06 0)
(3.02573 0.0018265 0)
(1.72368 0.667667 0)
(1.09987 0.767865 0)
(1.08688 0.76572 0)
(1.10082 0.772686 0)
(1.12376 0.788031 0)
(1.16466 0.807401 0)
(1.22839 0.827412 0)
(1.30933 0.842081 0)
(1.40729 0.84736 0)
(3 2.91037e-16 0)
(3 3.17871e-16 0)
(3 3.23104e-16 0)
(3 -8.02345e-16 0)
(3 -7.92866e-16 0)
(3 -6.46591e-17 0)
(3 -8.80831e-17 0)
(3 -1.66743e-16 0)
(3 -3.29879e-16 0)
(3 -7.60885e-16 0)
(3 -7.19719e-16 0)
(3 -2.13883e-16 0)
(3 -2.32423e-16 0)
(3 -3.04096e-07 0)
(3.00031 1.09804e-05 0)
(2.68619 0.400122 0)
(1.25681 0.789206 0)
(1.13117 0.771898 0)
(1.15569 0.774693 0)
(1.17689 0.792038 0)
(1.21212 0.808206 0)
(1.26754 0.822107 0)
(1.33787 0.832786 0)
(1.42325 0.835975 0)
(3 4.0943e-17 0)
(3 1.37941e-16 0)
(3 -9.01786e-17 0)
(3 -7.68897e-16 0)
(3 -2.02596e-15 0)
(3 -2.33601e-15 0)
(3 -1.82932e-15 0)
(3 -9.75661e-16 0)
(3 -3.87774e-17 0)
(3 2.38071e-16 0)
(3 8.23925e-16 0)
(3 1.16076e-15 0)
(3 1.07486e-15 0)
(3 -1.69575e-09 0)
(3.00002 -9.17663e-06 0)
(3.06362 0.0279576 0)
(1.63303 0.746033 0)
(1.17484 0.80727 0)
(1.20103 0.806745 0)
(1.21478 0.818573 0)
(1.2496 0.827495 0)
(1.29806 0.835574 0)
(1.36099 0.840036 0)
(1.43486 0.838832 0)
(3 -7.32916e-17 0)
(3 8.65126e-17 0)
(3 -6.10339e-17 0)
(3 3.04609e-16 0)
(3 -1.31956e-16 0)
(3 -2.18273e-16 0)
(3 1.42218e-17 0)
(3 2.59628e-16 0)
(3 4.86921e-16 0)
(3 6.09953e-16 0)
(3 3.78817e-16 0)
(3 1.21827e-17 0)
(3 -1.18767e-16 0)
(3 -2.61949e-12 0)
(3 -1.99035e-06 0)
(3.00282 0.000497886 0)
(2.50998 0.535038 0)
(1.29654 0.859276 0)
(1.2336 0.836874 0)
(1.25566 0.831187 0)
(1.28733 0.83205 0)
(1.33121 0.833754 0)
(1.38659 0.834041 0)
(1.45018 0.831326 0)
(3 3.31277e-17 0)
(3 -9.55187e-17 0)
(3 -2.9089e-16 0)
(3 3.15343e-16 0)
(3 6.05917e-16 0)
(3 -5.5324e-17 0)
(3 -1.39374e-16 0)
(3 -2.61048e-16 0)
(3 -3.37233e-16 0)
(3 -1.22357e-16 0)
(3 -1.99859e-16 0)
(3 -5.8883e-16 0)
(3 -6.53231e-16 0)
(3 -4.92263e-16 0)
(3 -1.63419e-07 0)
(3.00001 1.06287e-06 0)
(3.05919 0.0590483 0)
(1.71615 0.805789 0)
(1.27741 0.848877 0)
(1.30195 0.845468 0)
(1.32674 0.845308 0)
(1.36446 0.843865 0)
(1.41117 0.842309 0)
(1.46655 0.837892 0)
(3 -1.69356e-16 0)
(3 -5.18947e-16 0)
(3 -4.56518e-16 0)
(3 -2.0248e-16 0)
(3 -1.39709e-16 0)
(3 -4.14042e-16 0)
(3 -4.27299e-16 0)
(3 1.26604e-16 0)
(3 4.20294e-16 0)
(3 1.51782e-16 0)
(3 2.32459e-16 0)
(3 7.08643e-16 0)
(3 8.25027e-16 0)
(3 6.6129e-16 0)
(3 -1.06572e-09 0)
(3 -1.14521e-07 0)
(3.0046 0.00182025 0)
(2.63836 0.516953 0)
(1.40974 0.903455 0)
(1.33417 0.872558 0)
(1.36636 0.864645 0)
(1.39805 0.859658 0)
(1.43773 0.854806 0)
(1.48709 0.846531 0)
(3 -2.46628e-17 0)
(3 -9.51738e-17 0)
(3 1.98106e-16 0)
(3 -1.4771e-16 0)
(3 -2.47073e-16 0)
(3 7.17538e-16 0)
(3 1.20367e-15 0)
(3 1.48296e-15 0)
(3 1.35317e-15 0)
(3 1.24046e-15 0)
(3 1.21716e-15 0)
(3 7.88627e-16 0)
(3 6.87427e-16 0)
(3 3.22136e-16 0)
(3 -2.00487e-12 0)
(3 -2.41257e-08 0)
(3.00001 1.09452e-05 0)
(3.05266 0.0446199 0)
(1.8721 0.798589 0)
(1.38006 0.889608 0)
(1.40998 0.881025 0)
(1.43732 0.875029 0)
(1.47271 0.866367 0)
(1.51519 0.855348 0)
(3 6.74953e-17 0)
(3 1.71368e-16 0)
(3 5.80447e-16 0)
(3 4.70004e-16 0)
(3 5.86507e-16 0)
(3 9.15204e-16 0)
(3 8.04161e-16 0)
(3 1.05028e-15 0)
(3 9.79067e-16 0)
(3 9.53126e-16 0)
(3 9.66028e-16 0)
(3 -3.30013e-16 0)
(3 -7.6694e-16 0)
(3 3.11039e-16 0)
(3 1.25366e-15 0)
(3 -2.17469e-09 0)
(3 1.73455e-09 0)
(3.0024 0.00161911 0)
(2.75843 0.39135 0)
(1.59076 0.917164 0)
(1.42426 0.904015 0)
(1.46379 0.898776 0)
(1.49656 0.889661 0)
(1.53385 0.877147 0)
(3 -3.009e-16 0)
(3 -1.08833e-16 0)
(3 -1.45074e-17 0)
(3 6.15449e-16 0)
(3 9.65393e-16 0)
(3 3.81556e-16 0)
(3 3.73143e-16 0)
(3 1.35935e-16 0)
(3 1.0774e-16 0)
(3 -4.53291e-16 0)
(3 -1.32096e-15 0)
(3 -7.55712e-16 0)
(3 -5.26753e-16 0)
(3 -4.61836e-16 0)
(3 -8.03884e-17 0)
(3 -7.59725e-11 0)
(3 -7.47117e-11 0)
(3 7.56108e-06 0)
(3.02302 0.0264059 0)
(2.17793 0.747226 0)
(1.49023 0.923029 0)
(1.49092 0.914925 0)
(1.52454 0.900317 0)
(1.5563 0.88891 0)
(3 -9.8234e-17 0)
(3 3.45537e-17 0)
(3 -1.81531e-16 0)
(3 6.50136e-17 0)
(3 1.10572e-16 0)
(3 -6.48495e-17 0)
(3 3.70258e-17 0)
(3 -1.15807e-16 0)
(3 -5.59289e-16 0)
(3 -8.70181e-16 0)
(3 -1.34391e-15 0)
(3 -1.23293e-15 0)
(3 -9.70333e-16 0)
(3 -1.21905e-15 0)
(3 -1.95728e-15 0)
(3 -5.69441e-13 0)
(3 -2.28603e-11 0)
(3 2.77846e-09 0)
(3.00049 0.000959902 0)
(2.93869 0.204944 0)
(1.82721 0.871113 0)
(1.51849 0.92976 0)
(1.55302 0.917955 0)
(1.58434 0.904972 0)
(3 2.15305e-16 0)
(3 -1.07938e-16 0)
(3 -2.99131e-16 0)
(3 -8.20958e-16 0)
(3 -1.02353e-15 0)
(3 -6.82198e-16 0)
(3 -1.1687e-15 0)
(3 -1.50258e-15 0)
(3 -1.55291e-15 0)
(3 -1.23948e-15 0)
(3 -4.23941e-16 0)
(3 -5.42216e-16 0)
(3 -7.83116e-16 0)
(3 -5.56403e-16 0)
(3 -7.64797e-16 0)
(3 -1.84318e-15 0)
(3 -2.83238e-12 0)
(3 -2.49687e-12 0)
(3 2.87752e-06 0)
(3.00608 0.0119449 0)
(2.57435 0.528895 0)
(1.6763 0.949646 0)
(1.56022 0.938694 0)
(1.59828 0.926872 0)
(3 4.42649e-18 0)
(3 -2.55993e-17 0)
(3 -1.41297e-16 0)
(3 -2.79205e-16 0)
(3 -2.88954e-16 0)
(3 -7.26484e-17 0)
(3 -1.19832e-16 0)
(3 -7.33035e-16 0)
(3 -8.29936e-16 0)
(3 -4.18477e-16 0)
(3 -1.52194e-16 0)
(3 2.48679e-16 0)
(3 3.36113e-16 0)
(3 -2.91179e-16 0)
(3 -2.36324e-16 0)
(3 2.45507e-16 0)
(3 -7.48453e-14 0)
(3 -8.43077e-13 0)
(3 1.22901e-09 0)
(3.00001 0.000218209 0)
(3.00172 0.0630006 0)
(2.19923 0.760752 0)
(1.62749 0.949858 0)
(1.61889 0.946128 0)
(3 1.35471e-16 0)
(3 2.86858e-16 0)
(3 5.76677e-16 0)
(3 7.4542e-16 0)
(3 8.23022e-16 0)
(3 7.00752e-16 0)
(3 8.36305e-16 0)
(3 1.1751e-15 0)
(3 4.52425e-16 0)
(3 5.98922e-17 0)
(3 3.11893e-16 0)
(3 2.20643e-16 0)
(3 3.51037e-16 0)
(3 1.30436e-16 0)
(3 2.79295e-16 0)
(3 9.01775e-16 0)
(3 2.07305e-16 0)
(3 -1.17584e-13 0)
(3 1.3991e-13 0)
(3 3.16373e-07 0)
(3.00044 0.00292621 0)
(2.89108 0.234378 0)
(1.9607 0.860614 0)
(1.66291 0.954876 0)
(3 1.62881e-16 0)
(3 1.50679e-16 0)
(3 7.72393e-16 0)
(3 7.63007e-16 0)
(3 -4.97063e-17 0)
(3 -4.24322e-16 0)
(3 -4.78601e-16 0)
(3 -5.17528e-16 0)
(3 -6.436e-16 0)
(3 -9.49487e-17 0)
(3 -1.83198e-16 0)
(3 -3.01986e-16 0)
(3 -5.30862e-16 0)
(3 -1.3707e-16 0)
(3 1.14153e-16 0)
(3 -4.24532e-16 0)
(3 -2.69013e-16 0)
(3 -7.739e-15 0)
(3 -7.06179e-15 0)
(3 1.66789e-10 0)
(3 1.57177e-05 0)
(3.00074 0.0161978 0)
(2.645 0.457311 0)
(1.8578 0.92041 0)
(3 -8.141e-17 0)
(3 3.78533e-17 0)
(3 1.9805e-16 0)
(3 -2.10286e-16 0)
(3 -3.45307e-16 0)
(3 -9.10226e-16 0)
(3 -1.17951e-15 0)
(3 -1.39136e-15 0)
(3 -2.223e-16 0)
(3 2.08251e-16 0)
(3 -6.8308e-17 0)
(3 -2.68193e-16 0)
(3 -1.18116e-15 0)
(3 -9.14236e-16 0)
(3 -2.61642e-16 0)
(3 -2.70545e-16 0)
(3 -3.96803e-16 0)
(3 -2.00853e-16 0)
(3 -2.21263e-15 0)
(3 2.13471e-14 0)
(3 1.30988e-08 0)
(2.99995 0.000304912 0)
(2.98984 0.0499398 0)
(2.40286 0.637893 0)
(3 -2.17698e-16 0)
(3 -4.44184e-16 0)
(3 -7.20148e-16 0)
(3 -7.4683e-16 0)
(3 -5.33169e-16 0)
(3 -8.22059e-16 0)
(3 -1.10765e-15 0)
(3 -1.15174e-15 0)
(3 -5.22646e-16 0)
(3 1.51729e-16 0)
(3 6.54575e-16 0)
(3 5.52818e-16 0)
(3 -5.21294e-17 0)
(3 4.4475e-17 0)
(3 -3.66239e-17 0)
(3 1.02109e-18 0)
(3 -5.26821e-16 0)
(3 -5.51353e-16 0)
(3 -6.4866e-16 0)
(3 -6.19483e-16 0)
(3 5.08371e-12 0)
(3 5.41288e-07 0)
(2.9998 0.00197532 0)
(2.93743 0.129042 0)
(3 8.36776e-17 0)
(3 1.16032e-16 0)
(3 -3.46335e-17 0)
(3 3.51868e-16 0)
(3 6.2831e-16 0)
(3 7.54371e-16 0)
(3 1.48278e-16 0)
(3 -6.09682e-17 0)
(3 -1.78519e-17 0)
(3 8.1797e-17 0)
(3 3.46661e-16 0)
(3 9.21167e-16 0)
(3 1.0289e-15 0)
(3 9.74545e-16 0)
(3 7.29416e-16 0)
(3 6.95184e-17 0)
(3 -2.87132e-16 0)
(3 -7.1296e-16 0)
(3 -3.08162e-16 0)
(3 -2.38394e-16 0)
(3 4.9679e-16 0)
(3 4.26149e-10 0)
(3 7.72098e-06 0)
(2.99861 0.00750895 0)
(3 2.20237e-16 0)
(3 4.73206e-16 0)
(3 7.98056e-16 0)
(3 7.52359e-16 0)
(3 1.02444e-15 0)
(3 1.71658e-15 0)
(3 1.55603e-15 0)
(3 2.34719e-15 0)
(3 2.04886e-15 0)
(3 4.52588e-16 0)
(3 2.11545e-16 0)
(3 2.06911e-16 0)
(3 7.58423e-16 0)
(3 6.74598e-16 0)
(3 7.33596e-16 0)
(3 3.47195e-16 0)
(3 -4.64499e-16 0)
(3 -4.99277e-16 0)
(3 -2.70146e-16 0)
(3 -6.37225e-17 0)
(3 -2.47562e-16 0)
(3 5.40207e-14 0)
(3 8.14134e-09 0)
(2.99998 7.24938e-05 0)
(3 -1.9189e-18 0)
(3 1.81252e-16 0)
(3 1.7621e-16 0)
(3 -1.26671e-16 0)
(3 -1.97013e-16 0)
(3 5.23789e-16 0)
(3 1.33458e-15 0)
(3 1.04647e-15 0)
(3 8.19909e-16 0)
(3 2.62615e-16 0)
(3 1.8869e-16 0)
(3 1.27339e-16 0)
(3 1.02078e-15 0)
(3 9.16396e-16 0)
(3 1.97383e-16 0)
(3 -6.76793e-16 0)
(3 -9.20703e-16 0)
(3 -5.31799e-16 0)
(3 -4.50599e-17 0)
(3 2.86643e-16 0)
(3 -2.43704e-16 0)
(3 -8.5399e-16 0)
(3 2.20533e-12 0)
(3 1.18002e-07 0)
(3 -4.4826e-17 0)
(3 -1.58405e-16 0)
(3 -3.08744e-16 0)
(3 1.76485e-17 0)
(3 -1.83211e-16 0)
(3 2.60503e-16 0)
(3 1.57617e-16 0)
(3 -4.24861e-16 0)
(3 -4.3772e-16 0)
(3 -3.37291e-17 0)
(3 1.27864e-16 0)
(3 1.02157e-15 0)
(3 1.53661e-15 0)
(3 9.06764e-16 0)
(3 -1.1242e-16 0)
(3 -2.25776e-16 0)
(3 4.47216e-16 0)
(3 1.00522e-15 0)
(3 2.06049e-16 0)
(3 -3.98455e-16 0)
(3 -6.48569e-16 0)
(3 -2.54676e-16 0)
(3 8.02843e-16 0)
(3 6.11779e-11 0)
(3 -1.82903e-16 0)
(3 -5.47802e-16 0)
(3 -7.4517e-16 0)
(3 -6.6413e-16 0)
(3 -7.06797e-16 0)
(3 -8.31174e-16 0)
(3 -8.85258e-16 0)
(3 -6.08756e-16 0)
(3 -2.57602e-16 0)
(3 2.03221e-16 0)
(3 8.1919e-16 0)
(3 6.96388e-16 0)
(3 4.40187e-16 0)
(3 8.6273e-16 0)
(3 8.17317e-16 0)
(3 8.3779e-16 0)
(3 1.35931e-15 0)
(3 1.57638e-15 0)
(3 -1.25011e-16 0)
(3 -9.85385e-16 0)
(3 2.64951e-16 0)
(3 1.00179e-15 0)
(3 1.07871e-15 0)
(3 5.29624e-15 0)
(3 -3.59624e-16 0)
(3 -8.16019e-16 0)
(3 -9.61138e-16 0)
(3 -1.091e-15 0)
(3 -9.90342e-16 0)
(3 -1.2232e-15 0)
(3 -1.2505e-15 0)
(3 -2.82608e-16 0)
(3 2.70439e-16 0)
(3 6.51595e-16 0)
(3 5.00494e-16 0)
(3 -3.18233e-17 0)
(3 -9.99088e-17 0)
(3 1.57102e-16 0)
(3 9.04214e-16 0)
(3 1.76184e-15 0)
(3 2.04604e-15 0)
(3 2.26591e-15 0)
(3 2.09422e-15 0)
(3 1.0885e-15 0)
(3 1.20885e-15 0)
(3 1.12118e-15 0)
(3 1.11821e-15 0)
(3 5.45225e-16 0)
(3 6.44442e-17 0)
(3 -2.65864e-16 0)
(3 -3.39575e-16 0)
(3 -1.70961e-16 0)
(3 5.20211e-16 0)
(3 4.69115e-16 0)
(3 1.05053e-16 0)
(3 4.68993e-17 0)
(3 3.88298e-16 0)
(3 5.76019e-16 0)
(3 1.39789e-15 0)
(3 9.6008e-16 0)
(3 2.13305e-16 0)
(3 -3.5148e-16 0)
(3 3.3165e-17 0)
(3 1.02384e-15 0)
(3 2.59668e-15 0)
(3 1.9855e-15 0)
(3 1.52267e-15 0)
(3 6.41896e-16 0)
(3 -3.62032e-16 0)
(3 -2.15446e-16 0)
(3 1.6037e-16 0)
(3 3.89008e-16 0)
(3 2.14997e-16 0)
(3 2.30083e-16 0)
(3 1.79994e-16 0)
(3 2.99142e-16 0)
(3 4.31171e-16 0)
(3 4.69164e-16 0)
(3 2.5254e-16 0)
(3 1.23533e-16 0)
(3 8.41032e-17 0)
(3 1.8863e-16 0)
(3 7.87591e-16 0)
(3 8.47333e-16 0)
(3 3.16185e-16 0)
(3 4.84321e-17 0)
(3 -1.31912e-16 0)
(3 1.56592e-16 0)
(3 1.17594e-15 0)
(3 7.47804e-16 0)
(3 4.58644e-16 0)
(3 3.25233e-17 0)
(3 -4.77345e-16 0)
(3 -4.96973e-16 0)
(3 3.83307e-17 0)
(3 9.88193e-16 0)
(1.48451 1.28644 0)
(1.87876 1.35354 0)
(2.39407 1.04707 0)
(2.60708 0.875938 0)
(2.54479 0.329025 0)
(2.60197 0.023834 0)
(2.54081 -0.337168 0)
(2.5099 -0.358457 0)
(2.45603 -0.238285 0)
(2.41769 -0.278171 0)
(2.42045 -0.322289 0)
(2.46511 -0.264312 0)
(2.45885 -0.179195 0)
(2.42748 -0.133278 0)
(2.38849 -0.103738 0)
(2.36515 -0.0699963 0)
(2.34394 -0.0582805 0)
(2.35642 -0.0512878 0)
(2.39762 -0.0290071 0)
(2.41617 -0.00615906 0)
(2.40727 -0.00445932 0)
(2.39974 -0.00942739 0)
(2.39856 -0.0153617 0)
(2.39705 -0.015928 0)
(2.39041 -0.0113504 0)
(2.38479 -0.00281576 0)
(2.37994 -0.00128551 0)
(2.3812 -0.00221644 0)
(2.39115 -0.00461585 0)
(2.40219 -0.00614926 0)
(2.40322 -0.00590958 0)
(1.655 0.0374557 0)
(0.796447 0.0309447 0)
(0.721171 -0.00264584 0)
(0.753588 -0.0241757 0)
(0.807827 -0.0453214 0)
(0.878693 -0.0534303 0)
(0.946472 -0.0538941 0)
(1.00611 -0.0475477 0)
(1.05548 -0.0403393 0)
(1.09929 -0.0352811 0)
(1.1427 -0.0319593 0)
(1.18469 -0.028731 0)
(1.2231 -0.0244306 0)
(1.25917 -0.0200408 0)
(1.29559 -0.0170534 0)
(1.33543 -0.0159652 0)
(1.38052 -0.0147441 0)
(1.42499 -0.0154395 0)
(1.45735 -0.017033 0)
(1.48118 -0.0163123 0)
(1.50149 -0.0113218 0)
(1.51906 -0.00363519 0)
(1.53975 0.000958492 0)
(1.56417 0.00272479 0)
(1.59874 0.00248781 0)
(1.63845 -0.00221855 0)
(1.66911 -0.0080746 0)
(1.69155 -0.00852391 0)
(1.71116 -0.00582726 0)
(1.72295 -2.13809e-05 0)
(1.73606 0.00583029 0)
(1.75536 0.00782317 0)
(1.77799 0.00803125 0)
(1.80763 0.00676666 0)
(1.83702 0.00318523 0)
(1.85986 -0.000435813 0)
(1.88057 -0.00106184 0)
(1.89381 0.000724735 0)
(1.89714 0.00492283 0)
(1.90438 0.00846327 0)
(1.91899 0.00909756 0)
(1.93598 0.00901149 0)
(1.9585 0.0078485 0)
(1.98143 0.00361582 0)
(2.00115 0.000394998 0)
(2.02145 -0.00109477 0)
(2.03437 0.000282024 0)
(2.03638 0.0048621 0)
(2.04297 0.00942417 0)
(2.05798 0.0109009 0)
(2.07469 0.0113672 0)
(2.09333 0.0118882 0)
(2.11758 0.0108471 0)
(2.13587 0.00702586 0)
(2.15276 0.00535343 0)
(2.16874 0.00390768 0)
(2.17349 0.00375861 0)
(2.16743 0.00639836 0)
(2.1741 0.00815351 0)
(2.19014 0.00839335 0)
(2.20613 0.00842101 0)
(2.22447 0.00772582 0)
(2.24146 0.00630099 0)
(2.25589 0.00607487 0)
(2.27306 0.00726196 0)
(1.75765 1.11137 0)
(2.26848 0.899627 0)
(2.57096 0.316259 0)
(2.64965 0.0418919 0)
(2.72388 -0.176038 0)
(2.75535 -0.406674 0)
(2.726 -0.653257 0)
(2.70748 -0.672467 0)
(2.67805 -0.570711 0)
(2.64187 -0.432512 0)
(2.60362 -0.37348 0)
(2.55276 -0.288433 0)
(2.5189 -0.19704 0)
(2.48743 -0.158864 0)
(2.44912 -0.117208 0)
(2.42718 -0.0668484 0)
(2.41412 -0.0311874 0)
(2.42142 -0.0252798 0)
(2.44943 0.000584208 0)
(2.45118 0.0267705 0)
(2.43497 0.0232824 0)
(2.41775 0.00494908 0)
(2.41718 -0.0268756 0)
(2.42387 -0.0353314 0)
(2.41948 -0.0303204 0)
(2.41172 -0.0148027 0)
(2.41136 -0.00552657 0)
(2.41514 0.000510194 0)
(2.42198 0.00739121 0)
(2.42667 0.00984032 0)
(2.42577 0.000719454 0)
(1.89754 0.10118 0)
(0.929573 0.0281684 0)
(0.857063 -0.0671936 0)
(0.928156 -0.0962333 0)
(0.978335 -0.0886199 0)
(1.02878 -0.0733678 0)
(1.07424 -0.0656324 0)
(1.11459 -0.0530407 0)
(1.14776 -0.0424397 0)
(1.17918 -0.0379229 0)
(1.21415 -0.0400783 0)
(1.25327 -0.0438171 0)
(1.29211 -0.0405745 0)
(1.32552 -0.0287594 0)
(1.35611 -0.012995 0)
(1.38522 0.000463522 0)
(1.41335 0.00312817 0)
(1.44687 -0.00725836 0)
(1.4849 -0.0243889 0)
(1.51427 -0.0331246 0)
(1.53546 -0.0329885 0)
(1.55558 -0.0224578 0)
(1.5738 -0.00385103 0)
(1.59426 0.0130446 0)
(1.61673 0.019356 0)
(1.64288 0.014182 0)
(1.67407 0.00120791 0)
(1.70129 -0.0123851 0)
(1.72158 -0.0198895 0)
(1.74068 -0.0187613 0)
(1.75849 -0.00671903 0)
(1.77551 0.00940933 0)
(1.79515 0.0215536 0)
(1.81545 0.0254642 0)
(1.83681 0.0205284 0)
(1.85981 0.0102019 0)
(1.87963 -0.00111118 0)
(1.89628 -0.00844235 0)
(1.91073 -0.00534824 0)
(1.92178 0.00766962 0)
(1.93087 0.0211015 0)
(1.94369 0.0270239 0)
(1.96034 0.02643 0)
(1.98019 0.0196092 0)
(2.00063 0.0104946 0)
(2.019 -0.000219542 0)
(2.03463 -0.0089542 0)
(2.04722 -0.0070414 0)
(2.05837 0.00553295 0)
(2.06885 0.0205022 0)
(2.08172 0.0298021 0)
(2.09653 0.0331523 0)
(2.11344 0.0321536 0)
(2.13331 0.0262124 0)
(2.15093 0.0177497 0)
(2.16627 0.00839314 0)
(2.17766 0.0011733 0)
(2.18191 0.00563753 0)
(2.18405 0.0184754 0)
(2.19203 0.0259783 0)
(2.20706 0.0270258 0)
(2.22291 0.0257735 0)
(2.24091 0.0208518 0)
(2.25528 0.0134766 0)
(2.27617 0.00920586 0)
(1.6981 1.00586 0)
(2.06263 0.868108 0)
(2.23972 0.718239 0)
(2.49664 0.37496 0)
(2.63893 0.143212 0)
(2.71468 -0.0729565 0)
(2.70782 -0.258753 0)
(2.71713 -0.249228 0)
(2.75369 -0.273663 0)
(2.75447 -0.384735 0)
(2.75563 -0.463766 0)
(2.73017 -0.470953 0)
(2.67186 -0.432038 0)
(2.65755 -0.376783 0)
(2.63924 -0.309362 0)
(2.60984 -0.235148 0)
(2.58482 -0.163945 0)
(2.5631 -0.120661 0)
(2.53777 -0.0725265 0)
(2.51463 -0.0128029 0)
(2.49925 0.00182084 0)
(2.48934 -0.0116064 0)
(2.4872 -0.0178442 0)
(2.48033 -0.0123967 0)
(2.47513 0.00799074 0)
(2.47078 0.00705013 0)
(2.47317 -0.011265 0)
(2.47652 -0.0297276 0)
(2.48389 -0.0259145 0)
(2.47957 -0.0170931 0)
(2.46055 -0.0455435 0)
(2.24573 -0.203728 0)
(1.30626 -0.062972 0)
(1.16063 -0.0263404 0)
(1.21474 -0.0613872 0)
(1.24379 -0.107637 0)
(1.27113 -0.114544 0)
(1.28827 -0.102984 0)
(1.30846 -0.0861448 0)
(1.32555 -0.0703264 0)
(1.34355 -0.0614593 0)
(1.36297 -0.0608621 0)
(1.38674 -0.063371 0)
(1.41588 -0.067097 0)
(1.44432 -0.0673741 0)
(1.4681 -0.0631097 0)
(1.48997 -0.0523505 0)
(1.50865 -0.032327 0)
(1.53046 -0.0157379 0)
(1.55249 -0.0130551 0)
(1.57628 -0.0199499 0)
(1.59996 -0.0273405 0)
(1.62 -0.0298904 0)
(1.63917 -0.0267436 0)
(1.65864 -0.0145185 0)
(1.67296 0.00343231 0)
(1.68548 0.0191362 0)
(1.70373 0.0218118 0)
(1.72294 0.0143344 0)
(1.74751 0.00173669 0)
(1.77529 -0.00610506 0)
(1.79758 -0.00565309 0)
(1.81781 0.000860917 0)
(1.83693 0.0128046 0)
(1.84923 0.0259825 0)
(1.85619 0.0327095 0)
(1.86969 0.0274358 0)
(1.88743 0.0186529 0)
(1.90803 0.0109566 0)
(1.9301 0.00719226 0)
(1.94733 0.00887968 0)
(1.96279 0.0191009 0)
(1.97214 0.0327082 0)
(1.97722 0.0389254 0)
(1.98923 0.0343647 0)
(2.00505 0.0254211 0)
(2.02134 0.0159981 0)
(2.04035 0.00933552 0)
(2.06096 0.00569909 0)
(2.07901 0.00827049 0)
(2.09525 0.0216812 0)
(2.10605 0.0397609 0)
(2.11163 0.0509582 0)
(2.12163 0.0498474 0)
(2.13584 0.0428962 0)
(2.15016 0.0334011 0)
(2.16398 0.0236218 0)
(2.17787 0.0162832 0)
(2.19212 0.0141187 0)
(2.20462 0.020423 0)
(2.21231 0.0342852 0)
(2.2169 0.0440526 0)
(2.22722 0.042935 0)
(2.24152 0.0369258 0)
(2.25418 0.0285482 0)
(2.27342 0.0250926 0)
(1.6106 0.966423 0)
(1.86562 0.898295 0)
(2.13521 0.68678 0)
(2.35247 0.436079 0)
(2.44306 0.354861 0)
(2.5002 0.239509 0)
(2.6256 -0.00650241 0)
(2.66167 -0.127028 0)
(2.70336 -0.251758 0)
(2.73733 -0.404984 0)
(2.7635 -0.43009 0)
(2.761 -0.476951 0)
(2.75663 -0.484154 0)
(2.74995 -0.472199 0)
(2.74355 -0.44721 0)
(2.71763 -0.397142 0)
(2.6974 -0.357933 0)
(2.66951 -0.290892 0)
(2.63192 -0.215948 0)
(2.60327 -0.135634 0)
(2.59708 -0.0958601 0)
(2.5961 -0.0933683 0)
(2.5694 -0.0804686 0)
(2.53347 -0.0542619 0)
(2.52122 -0.00415363 0)
(2.52152 0.0179784 0)
(2.52676 0.00899584 0)
(2.53377 0.00773455 0)
(2.53399 -0.000204793 0)
(2.51043 -0.0370313 0)
(2.43545 -0.162729 0)
(2.09899 -0.584824 0)
(1.75492 -0.423121 0)
(1.42395 -0.176946 0)
(1.38337 -0.0642927 0)
(1.4216 -0.0543719 0)
(1.43947 -0.0698168 0)
(1.45528 -0.0907084 0)
(1.47303 -0.0885418 0)
(1.48403 -0.0776197 0)
(1.49461 -0.0593549 0)
(1.50546 -0.0400568 0)
(1.52199 -0.033905 0)
(1.54153 -0.0372446 0)
(1.56348 -0.0440965 0)
(1.58252 -0.0478495 0)
(1.60004 -0.0477409 0)
(1.61726 -0.0400007 0)
(1.6303 -0.0222035 0)
(1.64125 -0.00369491 0)
(1.65722 0.00409316 0)
(1.67461 0.00364488 0)
(1.69385 -0.00251715 0)
(1.71213 -0.0102204 0)
(1.72877 -0.014595 0)
(1.74377 -0.0143049 0)
(1.75474 -0.0061078 0)
(1.76387 0.0071349 0)
(1.77986 0.0170634 0)
(1.79859 0.0210358 0)
(1.82076 0.0198539 0)
(1.84499 0.0131662 0)
(1.86437 0.00739432 0)
(1.88206 0.00409061 0)
(1.89515 0.00339993 0)
(1.90085 0.00987739 0)
(1.90566 0.0209147 0)
(1.92063 0.028269 0)
(1.93847 0.0307013 0)
(1.95811 0.0296973 0)
(1.97865 0.0264425 0)
(1.99576 0.0251333 0)
(2.0098 0.0264922 0)
(2.01368 0.0322087 0)
(2.01324 0.0351632 0)
(2.02314 0.0319712 0)
(2.0406 0.0299833 0)
(2.05877 0.0297054 0)
(2.08093 0.0295915 0)
(2.10301 0.0311209 0)
(2.12096 0.0329653 0)
(2.13765 0.0380757 0)
(2.14581 0.0502393 0)
(2.14358 0.0611834 0)
(2.14567 0.0596108 0)
(2.15692 0.0513211 0)
(2.17161 0.0437817 0)
(2.18772 0.0404721 0)
(2.20529 0.038624 0)
(2.22207 0.0383385 0)
(2.23725 0.0415221 0)
(2.24342 0.0508283 0)
(2.24226 0.056862 0)
(2.24908 0.0516689 0)
(2.26075 0.0442167 0)
(2.28208 0.0417819 0)
(1.56326 0.930477 0)
(1.77715 0.873698 0)
(2.02266 0.705304 0)
(2.16828 0.580735 0)
(2.26223 0.500374 0)
(2.42071 0.279817 0)
(2.50321 0.152132 0)
(2.5272 0.129903 0)
(2.60303 -0.00425727 0)
(2.64578 -0.163379 0)
(2.67401 -0.199695 0)
(2.67996 -0.22773 0)
(2.71016 -0.351613 0)
(2.7229 -0.39088 0)
(2.74303 -0.385226 0)
(2.74545 -0.384654 0)
(2.74137 -0.415327 0)
(2.72933 -0.409713 0)
(2.69966 -0.361858 0)
(2.67124 -0.290298 0)
(2.66546 -0.234869 0)
(2.66908 -0.215587 0)
(2.63862 -0.175113 0)
(2.59078 -0.119646 0)
(2.56973 -0.056422 0)
(2.57106 -0.0358256 0)
(2.5745 -0.0206409 0)
(2.58041 -0.00653037 0)
(2.55131 -0.034416 0)
(2.3869 -0.211289 0)
(2.17959 -0.422017 0)
(1.96848 -0.644721 0)
(1.94194 -0.660723 0)
(1.74715 -0.447287 0)
(1.56379 -0.195686 0)
(1.52535 -0.110999 0)
(1.5008 -0.0734784 0)
(1.51908 -0.0619711 0)
(1.55065 -0.0729825 0)
(1.56982 -0.0767787 0)
(1.58313 -0.0725288 0)
(1.59353 -0.0577311 0)
(1.60417 -0.0397881 0)
(1.62012 -0.0321737 0)
(1.63777 -0.033703 0)
(1.65508 -0.0379416 0)
(1.67066 -0.038961 0)
(1.68643 -0.0361924 0)
(1.70241 -0.0253442 0)
(1.71423 -0.0100215 0)
(1.72229 0.00183959 0)
(1.73548 0.00523696 0)
(1.75271 0.00365316 0)
(1.76907 -0.00202038 0)
(1.78438 -0.00718356 0)
(1.79951 -0.00908404 0)
(1.81405 -0.00581154 0)
(1.8267 0.00521692 0)
(1.83768 0.0202699 0)
(1.85199 0.0305733 0)
(1.87052 0.0329396 0)
(1.88945 0.0300241 0)
(1.90733 0.0227191 0)
(1.92337 0.0161767 0)
(1.93734 0.0118997 0)
(1.94852 0.0137444 0)
(1.95678 0.0245376 0)
(1.96321 0.0389265 0)
(1.97552 0.0471614 0)
(1.99345 0.0487976 0)
(2.01158 0.0473764 0)
(2.02907 0.0424524 0)
(2.04345 0.0362785 0)
(2.05054 0.031734 0)
(2.05103 0.0337749 0)
(2.05712 0.0403567 0)
(2.07217 0.0448094 0)
(2.08894 0.0469718 0)
(2.10906 0.0495541 0)
(2.13037 0.0512466 0)
(2.14791 0.0514282 0)
(2.16436 0.050547 0)
(2.17496 0.0495782 0)
(2.17444 0.0518692 0)
(2.1711 0.0566646 0)
(2.17918 0.0586481 0)
(2.19399 0.0592018 0)
(2.20887 0.0593655 0)
(2.22626 0.0584574 0)
(2.24237 0.0577464 0)
(2.25855 0.0573724 0)
(2.26874 0.0580946 0)
(2.26463 0.0597785 0)
(2.26608 0.0586287 0)