/*--------------------------------*- C++ -*----------------------------------*\
  =========                 |
  \\      /  F ield         | OpenFOAM: The Open Source CFD Toolbox
   \\    /   O peration     | Website:  https://openfoam.org
    \\  /    A nd           | Version:  7
     \\/     M anipulation  |
\*---------------------------------------------------------------------------*/
FoamFile
{
    version     2.0;
    format      ascii;
    class       volScalarField;
    location    "1.2";
    object      T;
}
// * * * * * * * * * * * * * * * * * * * * * * * * * * * * * * * * * * * * * //

dimensions      [0 0 0 1 0 0 0];

internalField   nonuniform List<scalar> 
4032
(
1
1
1
1
1
1
1
1
1
1
1
1
1.13105
2.38642
2.70918
2.76235
2.80128
2.82654
2.84152
2.85201
2.8708
2.90717
2.95148
2.97749
1
1
1
1
1
1
1
1
1
1
1
1
1.10786
2.36603
2.70967
2.76203
2.79975
2.82442
2.83858
2.8483
2.86657
2.90239
2.9461
2.97161
1
1
1
1
1
1
1
1
1
1
1
1
1.02793
2.30986
2.7104
2.76256
2.79811
2.82106
2.8337
2.84299
2.86119
2.89631
2.93863
2.96307
1
1
1
1
1
1
1
1
1
1
1
1
1.00043
2.24189
2.7053
2.75958
2.79293
2.81438
2.82591
2.83516
2.85341
2.88724
2.92754
2.94968
1
1
1
1
1
1
1
1
1
1
1
1
1
2.14527
2.69738
2.75564
2.78445
2.80463
2.81509
2.8242
2.84124
2.872
2.90946
2.93068
1
1
1
1
1
1
1
1
1
1
1
1
1
2.01024
2.6774
2.74363
2.77008
2.79018
2.80027
2.80988
2.82657
2.85512
2.88893
2.90046
1
1
1
1
1
1
1
1
1
1
1
1
1
1.82494
2.63098
2.72176
2.75256
2.77319
2.78276
2.79109
2.80273
2.8228
2.84971
2.86176
1
1
1
1
1
1
1
1
1
1
1
1
1
1.55436
2.53043
2.68915
2.72625
2.75011
2.76082
2.76701
2.77131
2.78567
2.81644
2.85504
1
1
1
1
1
1
1
1
1
1
1
1
1
1.18674
2.38947
2.67181
2.69861
2.71748
2.72708
2.73065
2.72766
2.72468
2.70399
2.63356
1
1
1
1
1
1
1
1
1
1
1
1
1
1.00863
2.24437
2.63009
2.65647
2.67329
2.6831
2.68478
2.67615
2.65335
2.61137
2.4786
1
1
1
1
1
1
1
1
1
1
1
1
1
1.00001
1.98558
2.58543
2.63075
2.64116
2.64694
2.64383
2.6293
2.59356
2.53553
2.37422
1
1
1
1
1
1
1
1
1
1
1
1
1
1
1.55656
2.46356
2.59929
2.60756
2.61097
2.60497
2.58543
2.5475
2.47307
2.33083
1
1
1
1
1
1
1
1
1
1
1
1
1
1
1.08183
2.26521
2.55995
2.57299
2.57379
2.56724
2.54558
2.51088
2.43134
2.31667
1
1
1
1
1
1
1
1
1
1
1
1
1
1
1.00146
1.95206
2.47887
2.54575
2.54238
2.53221
2.51055
2.47534
2.40404
2.31567
1
1
1
1
1
1
1
1
1
1
1
1
1
1
0.999995
1.37106
2.32282
2.51653
2.50536
2.49501
2.47292
2.43828
2.38091
2.31052
1
1
1
1
1
1
1
1
1
1
1
1
1
1
0.999999
1.03115
2.118
2.46513
2.45782
2.4529
2.4367
2.40749
2.36087
2.3028
1
1
1
1
1
1
1
1
1
1
1
1
1
1
1
1.00016
1.61135
2.33852
2.43676
2.42235
2.4043
2.37813
2.33946
2.29154
1
1
1
1
1
1
1
1
1
1
1
1
1
1
1
1
1.09241
2.12004
2.40639
2.38859
2.37259
2.34787
2.31506
2.27626
1
1
1
1
1
1
1
1
1
1
1
1
1
1
1
1
1.00158
1.62109
2.26665
2.36439
2.34313
2.32035
2.29168
2.25826
1
1
1
1
1
1
1
1
1
1
1
1
1
1
1
1
1
1.10387
2.04473
2.33698
2.31438
2.29177
2.2649
2.23516
1
1
1
1
1
1
1
1
1
1
1
1
1
1
1
1
1
1.00209
1.48733
2.16383
2.28964
2.26281
2.24037
2.21441
1
1
1
1
1
1
1
1
1
1
1
1
1
1
1
1
1
1.00001
1.06029
1.87165
2.24709
2.23562
2.21537
2.19154
1
1
1
1
1
1
1
1
1
1
1
1
1
1
1
1
1
1
1.00083
1.30089
2.04094
2.21553
2.1879
2.16736
1
1
1
1
1
1
1
1
1
1
1
1
1
1
1
1
1
1
1
1.01972
1.58949
2.08432
2.17032
2.14239
1
1
1
1
1
1
1
1
1
1
1
1
1
1
1
1
1
1
1
1.00018
1.10444
1.79672
2.10799
2.12264
1
1
1
1
1
1
1
1
1
1
1
1
1
1
1
1
1
1
1
1
1.0025
1.2694
1.88748
2.09248
1
1
1
1
1
1
1
1
1
1
1
1
1
1
1
1
1
1
1
1
1.00001
1.01634
1.42123
1.93095
1
1
1
1
1
1
1
1
1
1
1
1
1
1
1
1
1
1
1
1
1
1.00015
1.0495
1.542
1
1
1
1
1
1
1
1
1
1
1
1
1
1
1
1
1
1
1
1
1
1
1.00082
1.10123
1
1
1
1
1
1
1
1
1
1
1
1
1
1
1
1
1
1
1
1
1
1
1
1.00272
1
1
1
1
1
1
1
1
1
1
1
1
1
1
1
1
1
1
1
1
1
1
1
1.00001
1
1
1
1
1
1
1
1
1
1
1
1
1
1
1
1
1
1
1
1
1
1
1
1
1
1
1
1
1
1
1
1
1
1
1
1
1
1
1
1
1
1
1
1
1
1
1
1
1
1
1
1
1
1
1
1
1
1
1
1
1
1
1
1
1
1
1
1
1
1
1
1
1
1
1
1
1
1
1
1
1
1
1
1
1
1
1
1
1
1
1
1
1
1
1
1
1
1
1
1
1
1
1
1
1
1
1
1
1
1
1
1
1
1
1
1
1
1
1
1
1
1
1
1
1
1
1
1
1
1
1
1
1
1
1
1
1
1
1
1
1
1
1
1
1
1
1
1
1
1
1
1
1
1
1
1
1
1
1
1
1
1
1
1
1
1
1
1
1
1
1
1
1
1
1
1
1
1
1
1
1
1
1
1
1
1
1
1
1
1
1
1
1
1
1
1
1
1
1
1
1
1
1
1
1
1
1
1
1
1
1
1
1
1
1
1
1.79769
1.19212
1.07714
1.15415
1.24211
1.33156
1.44993
1.52093
1.57557
1.6441
1.74299
1.82346
1.82635
1.80792
1.81023
1.82534
1.82908
1.82154
1.80402
1.79253
1.79234
1.80015
1.81222
1.81161
1.80144
1.77692
1.75852
1.75768
1.76301
1.77246
1.77904
1.77928
1.77676
1.77071
1.76781
1.76796
1.76929
1.77172
1.77166
1.76994
1.76691
1.76288
1.75865
1.75518
1.75233
1.74872
1.74348
1.7378
1.73242
1.72719
1.72217
1.71734
1.71022
1.70169
1.69683
1.69507
1.69378
1.6916
1.69015
1.69001
1.69078
1.69241
1.69456
1.69738
1.70227
1.70771
1.71609
1.73407
1.76889
1.81991
1.89028
1.97468
2.06408
2.16398
2.25799
2.33857
2.39518
2.43621
2.46503
2.48465
2.5044
2.52366
2.5423
2.56074
2.58061
2.58301
2.57555
2.56193
2.54879
2.53408
2.51588
2.50979
2.51408
2.53018
2.54223
2.5362
2.05423
1.74071
1.49484
1.44277
1.41691
1.39936
1.37795
1.34001
1.34691
1.39168
1.45173
1.51025
1.56595
1.60594
1.63604
1.6647
1.69241
1.69773
1.69868
1.70191
1.71182
1.72456
1.74304
1.74728
1.74297
1.72705
1.71625
1.71661
1.72288
1.73184
1.73738
1.73808
1.73652
1.73291
1.73005
1.72989
1.73177
1.73789
1.74178
1.7414
1.73874
1.73406
1.72877
1.72465
1.72288
1.72159
1.71868
1.71439
1.70916
1.70356
1.69753
1.69133
1.68398
1.67515
1.67053
1.67046
1.67122
1.67112
1.6696
1.66696
1.66531
1.66432
1.66738
1.67662
1.69583
1.73392
1.79145
1.85517
1.91521
1.96041
2.00207
2.03058
2.05241
2.06161
2.06514
2.06972
2.08475
2.10427
2.12823
2.15005
2.16261
2.17694
2.19133
2.21149
2.23964
2.26203
2.27695
2.29309
2.31106
2.32378
2.33286
2.34794
2.37431
2.40247
2.42148
2.43076
2.10232
1.91369
1.74271
1.62622
1.54046
1.45254
1.3987
1.35841
1.32128
1.32423
1.33681
1.35622
1.39112
1.43044
1.45741
1.4786
1.50736
1.53414
1.5551
1.57627
1.60172
1.61974
1.63834
1.64883
1.64758
1.63992
1.63388
1.63526
1.64007
1.6436
1.64543
1.64845
1.65158
1.65364
1.65352
1.65302
1.65391
1.66
1.66891
1.67127
1.67051
1.66781
1.66291
1.65654
1.65095
1.64872
1.64684
1.64407
1.64004
1.63461
1.6295
1.62486
1.61921
1.61091
1.60464
1.60318
1.60309
1.60332
1.60208
1.60148
1.6059
1.61769
1.64156
1.68612
1.75054
1.81486
1.87074
1.9145
1.94129
1.96666
1.96692
1.95994
1.94882
1.93013
1.90733
1.88693
1.87197
1.86099
1.84949
1.83748
1.8302
1.83271
1.84267
1.85884
1.88599
1.92074
1.96007
1.99792
2.03284
2.0604
2.08292
2.10612
2.13465
2.16203
2.18019
2.20058
2.14859
1.99324
1.8655
1.76283
1.6657
1.58319
1.52212
1.47015
1.41593
1.39238
1.36946
1.3371
1.33649
1.3424
1.34686
1.3549
1.37829
1.40892
1.43748
1.46036
1.48597
1.50485
1.51844
1.53354
1.55076
1.56028
1.56313
1.56967
1.57153
1.56926
1.56577
1.56568
1.5675
1.57093
1.57172
1.57114
1.57199
1.57536
1.58153
1.58559
1.58547
1.58369
1.57983
1.5747
1.56933
1.56524
1.56207
1.55827
1.55405
1.54889
1.54402
1.54031
1.53678
1.53108
1.52405
1.52049
1.51889
1.52188
1.53088
1.54938
1.58574
1.63996
1.70605
1.76274
1.80576
1.83472
1.84308
1.85089
1.85632
1.85603
1.8516
1.84235
1.82812
1.8097
1.78929
1.76707
1.75167
1.74034
1.72832
1.71688
1.70785
1.70086
1.69148
1.68568
1.6862
1.69084
1.70151
1.71975
1.74539
1.77446
1.80355
1.83122
1.85649
1.88113
1.897
1.92965
2.18424
2.05591
1.9483
1.85515
1.7595
1.67821
1.63031
1.57903
1.51407
1.47288
1.43795
1.38537
1.34984
1.34078
1.32728
1.32701
1.33293
1.34454
1.36114
1.37641
1.39502
1.42039
1.43862
1.45297
1.47414
1.49239
1.50042
1.50967
1.51565
1.51739
1.51779
1.5199
1.52449
1.52498
1.52399
1.52174
1.52115
1.52051
1.5191
1.51874
1.51819
1.5165
1.5133
1.50986
1.50663
1.50274
1.49847
1.49473
1.49133
1.48669
1.4807
1.47519
1.46998
1.46412
1.45633
1.45782
1.46543
1.48778
1.53652
1.60511
1.68021
1.7349
1.76376
1.78714
1.78948
1.78813
1.78362
1.77608
1.76968
1.76502
1.75909
1.75022
1.73827
1.72469
1.70927
1.69095
1.67714
1.66789
1.65933
1.65178
1.64606
1.63983
1.63203
1.62644
1.62144
1.62079
1.6222
1.62702
1.6303
1.63223
1.63612
1.64119
1.64643
1.65311
1.66036
1.67976
2.2137
2.10656
2.01294
1.9269
1.84121
1.76428
1.70559
1.65147
1.59
1.54918
1.51937
1.47443
1.41953
1.39908
1.37426
1.3471
1.34213
1.33926
1.33228
1.32498
1.3265
1.33517
1.35025
1.37057
1.39978
1.43665
1.45715
1.46934
1.47695
1.48165
1.48368
1.4866
1.49174
1.50005
1.50574
1.50483
1.50307
1.49951
1.49316
1.48457
1.47751
1.4721
1.46843
1.46589
1.46424
1.46193
1.45882
1.45681
1.45429
1.45034
1.44433
1.43819
1.43354
1.42941
1.43316
1.45454
1.50257
1.58438
1.65222
1.71758
1.75127
1.768
1.76553
1.75938
1.75519
1.74759
1.73815
1.72583
1.71709
1.71138
1.70375
1.69285
1.68301
1.67367
1.65861
1.63903
1.62621
1.62022
1.61425
1.60915
1.60728
1.60338
1.59963
1.5962
1.58837
1.57854
1.57806
1.57962
1.57972
1.57913
1.58049
1.58233
1.58092
1.57926
1.57833
1.57711
2.22866
2.13946
2.06036
1.98238
1.89643
1.83214
1.77438
1.71786
1.65646
1.61382
1.5755
1.53353
1.48936
1.46112
1.43268
1.39322
1.36888
1.35288
1.33091
1.31528
1.31557
1.31694
1.31669
1.31959
1.33291
1.36144
1.39602
1.42018
1.43627
1.45184
1.45785
1.46152
1.46917
1.47982
1.48796
1.49037
1.48972
1.48682
1.48108
1.47186
1.45998
1.4497
1.44547
1.44293
1.44068
1.43854
1.43591
1.43247
1.42756
1.42367
1.42109
1.42004
1.42741
1.45643
1.51491
1.59414
1.66808
1.71303
1.73424
1.75711
1.75603
1.74808
1.74204
1.7357
1.72578
1.71499
1.70645
1.69864
1.68579
1.67715
1.66787
1.65596
1.6435
1.63105
1.61947
1.60472
1.5956
1.59114
1.58764
1.58564
1.58199
1.57797
1.5744
1.56666
1.55262
1.54049
1.53969
1.54028
1.54025
1.54079
1.54327
1.54405
1.54275
1.53887
1.53459
1.53047
2.23486
2.16107
2.09195
2.02136
1.94662
1.88644
1.83097
1.76978
1.71199
1.67385
1.63156
1.58346
1.54168
1.514
1.48394
1.44712
1.42136
1.40403
1.37603
1.34628
1.33944
1.33075
1.31685
1.31234
1.31471
1.31906
1.32575
1.34065
1.36291
1.38986
1.41673
1.43306
1.44568
1.45919
1.46892
1.47137
1.47136
1.47004
1.46731
1.46165
1.45208
1.44099
1.43601
1.43317
1.43023
1.42648
1.42236
1.41884
1.41401
1.41115
1.4207
1.45602
1.53043
1.62027
1.70172
1.74104
1.7649
1.76122
1.74948
1.74051
1.73867
1.73493
1.72664
1.71387
1.70087
1.69126
1.68343
1.67146
1.65657
1.6423
1.62932
1.61728
1.60692
1.59817
1.59019
1.58512
1.57824
1.5699
1.56294
1.55702
1.55165
1.54724
1.54271
1.53447
1.51918
1.50636
1.50228
1.5021
1.50362
1.50841
1.5103
1.5093
1.50414
1.49778
1.49463
1.4906
2.23342
2.17042
2.11048
2.0462
1.98044
1.92542
1.87232
1.81327
1.76128
1.71921
1.67636
1.62936
1.59098
1.56237
1.53056
1.48964
1.46321
1.44359
1.41741
1.38557
1.37093
1.35885
1.33857
1.31748
1.31772
1.31754
1.3143
1.31394
1.31727
1.32712
1.34598
1.37185
1.39536
1.4212
1.43788
1.44218
1.4453
1.44932
1.45024
1.44794
1.44212
1.43504
1.42947
1.42652
1.42372
1.42005
1.41671
1.41477
1.42525
1.46648
1.54207
1.6377
1.71551
1.75317
1.78421
1.78652
1.78077
1.7587
1.73828
1.72923
1.72244
1.71268
1.70032
1.68927
1.68109
1.67355
1.66262
1.64718
1.63044
1.61422
1.5994
1.58804
1.5794
1.5736
1.57246
1.56891
1.55997
1.54648
1.53425
1.52769
1.52295
1.5186
1.51272
1.50292
1.49003
1.47679
1.46839
1.46773
1.47192
1.47468
1.47463
1.472
1.4647
1.45893
1.45774
1.45462
2.22756
2.17376
2.12146
2.06318
2.00497
1.95584
1.90473
1.84385
1.79844
1.7584
1.71645
1.6668
1.63172
1.60154
1.56832
1.53063
1.50534
1.48521
1.45928
1.42484
1.40971
1.39875
1.38027
1.35202
1.34651
1.33939
1.3254
1.31411
1.31365
1.31292
1.31147
1.31451
1.32674
1.35138
1.38098
1.40199
1.41059
1.41686
1.42376
1.42653
1.42612
1.42325
1.42198
1.4191
1.41688
1.4157
1.42557
1.46868
1.55697
1.66276
1.7411
1.76925
1.78538
1.79375
1.79436
1.78435
1.76358
1.73852
1.71729
1.70216
1.69281
1.68435
1.67545
1.66785
1.66068
1.65242
1.63928
1.62211
1.6051
1.58895
1.57353
1.56245
1.55659
1.55559
1.55373
1.54525
1.53456
1.52007
1.50566
1.49762
1.4922
1.48666
1.47961
1.47121
1.46215
1.45164
1.44417
1.44379
1.44343
1.44202
1.43957
1.43305
1.42758
1.42555
1.4246
1.42391
2.2165
2.17073
2.12394
2.0719
2.01955
1.97285
1.92441
1.87112
1.82798
1.78803
1.74555
1.69826
1.66727
1.63746
1.60419
1.56412
1.54095
1.52028
1.4957
1.46547
1.44956
1.43732
1.41753
1.38661
1.37336
1.36325
1.34669
1.32384
1.31565
1.3141
1.30728
1.30532
1.30788
1.31213
1.32088
1.33079
1.34174
1.35585
1.37178
1.38447
1.39328
1.40207
1.40882
1.41244
1.42229
1.46327
1.55515
1.66144
1.7568
1.79532
1.80657
1.80453
1.80099
1.79272
1.7787
1.76035
1.73887
1.71837
1.69629
1.67482
1.6639
1.65693
1.6511
1.64351
1.63552
1.62555
1.61043
1.59509
1.58068
1.56565
1.55159
1.54042
1.53398
1.52988
1.52378
1.51549
1.50581
1.4934
1.47793
1.46616
1.45895
1.45294
1.4467
1.44224
1.4361
1.42505
1.41444
1.40749
1.40469
1.40366
1.40166
1.39867
1.39518
1.39174
1.39044
1.39095
2.19945
2.16144
2.12074
2.07359
2.02757
1.98554
1.93863
1.88861
1.84852
1.8113
1.7709
1.72876
1.69612
1.66462
1.63319
1.5987
1.57566
1.554
1.52763
1.4944
1.48208
1.47259
1.45571
1.42718
1.41034
1.3987
1.38116
1.35164
1.33796
1.335
1.32566
1.31236
1.30789
1.30869
1.3047
1.29522
1.28882
1.29342
1.30574
1.3256
1.34625
1.36718
1.39214
1.43017
1.53801
1.67062
1.75377
1.79945
1.82939
1.82738
1.82195
1.81221
1.79833
1.78052
1.75867
1.73712
1.71839
1.69792
1.67167
1.64748
1.6352
1.62627
1.61811
1.61076
1.60244
1.59111
1.57917
1.56825
1.55516
1.53947
1.52329
1.51062
1.50285
1.49608
1.48929
1.48162
1.47262
1.4623
1.44981
1.43527
1.42611
1.41995
1.41549
1.41176
1.40232
1.39171
1.3816
1.37156
1.36693
1.36602
1.36607
1.36595
1.36417
1.35928
1.35612
1.35189
2.18298
2.14899
2.11326
2.07295
2.03158
1.99071
1.94789
1.90623
1.86802
1.82932
1.78792
1.75344
1.7226
1.69245
1.66082
1.62694
1.60326
1.58291
1.56065
1.52986
1.51289
1.50101
1.48343
1.45758
1.44323
1.43213
1.41407
1.38236
1.3605
1.35398
1.34346
1.32376
1.31031
1.30831
1.30199
1.29032
1.2806
1.27978
1.2797
1.28259
1.29227
1.3235
1.41071
1.57461
1.7307
1.78567
1.80824
1.81672
1.8107
1.80121
1.78911
1.77384
1.74965
1.72813
1.71271
1.69966
1.68694
1.67001
1.64707
1.6227
1.60558
1.59259
1.58269
1.57452
1.56527
1.55628
1.54762
1.53612
1.52243
1.50865
1.4941
1.47955
1.46568
1.45606
1.44977
1.44297
1.43501
1.42773
1.42006
1.40892
1.39645
1.38825
1.38132
1.37221
1.36152
1.3516
1.34377
1.33623
1.33263
1.33212
1.33276
1.33216
1.33015
1.32547
1.31757
1.30696
2.16425
2.13405
2.10153
2.06754
2.03198
1.9948
1.95437
1.91737
1.88145
1.84297
1.80375
1.77367
1.74257
1.71153
1.68366
1.65746
1.63156
1.60826
1.58707
1.5585
1.54076
1.52924
1.51306
1.48454
1.46622
1.45628
1.44044
1.41229
1.38916
1.38098
1.37039
1.34982
1.32962
1.3249
1.31791
1.30245
1.28601
1.28044
1.27799
1.2857
1.33175
1.457
1.59686
1.72621
1.75565
1.76389
1.75911
1.75262
1.73961
1.72356
1.70938
1.69328
1.67361
1.65946
1.65381
1.65176
1.64682
1.63837
1.62483
1.60481
1.58177
1.5616
1.54822
1.53897
1.52851
1.519
1.51304
1.50206
1.48814
1.47518
1.46122
1.44531
1.4273
1.41574
1.4105
1.4062
1.40115
1.39536
1.38998
1.38268
1.37038
1.35318
1.33972
1.32936
1.31965
1.31105
1.30625
1.30475
1.30428
1.30118
1.29787
1.29548
1.29246
1.28753
1.2801
1.26816
2.14492
2.11832
2.08838
2.05968
2.02908
1.99362
1.95745
1.92629
1.89243
1.8538
1.81614
1.78931
1.7603
1.73169
1.70177
1.67965
1.65324
1.62834
1.61147
1.58873
1.56372
1.54887
1.53373
1.51035
1.48839
1.47591
1.45936
1.43374
1.41026
1.40225
1.39336
1.37383
1.3492
1.34066
1.33138
1.31472
1.29728
1.2876
1.30774
1.38927
1.53733
1.6508
1.71258
1.73219
1.72649
1.71012
1.68157
1.65448
1.63799
1.62408
1.6117
1.59919
1.59135
1.58714
1.58654
1.58878
1.59142
1.58987
1.58033
1.5632
1.54419
1.52589
1.51155
1.4994
1.49105
1.48523
1.48098
1.47053
1.45703
1.4431
1.4291
1.41336
1.39548
1.38113
1.37383
1.37012
1.36745
1.36519
1.36149
1.35419
1.34243
1.32348
1.30496
1.29359
1.28422
1.27786
1.2756
1.27728
1.27636
1.26969
1.261
1.25407
1.25108
1.24826
1.24418
1.23539
2.11962
2.09723
2.07193
2.04624
2.01975
1.98821
1.95631
1.92538
1.89284
1.85639
1.82577
1.79958
1.77252
1.74231
1.71622
1.6975
1.67456
1.64634
1.62708
1.61156
1.58796
1.56892
1.55356
1.52803
1.50258
1.48953
1.47583
1.4558
1.43277
1.42361
1.41416
1.39637
1.36916
1.35659
1.34909
1.33617
1.33834
1.38607
1.50087
1.64259
1.71865
1.73778
1.73354
1.71963
1.68948
1.65831
1.63059
1.60811
1.59091
1.57311
1.55497
1.53355
1.51767
1.50739
1.50105
1.5004
1.50488
1.5129
1.5141
1.5126
1.50215
1.48302
1.46185
1.44789
1.44177
1.44209
1.44311
1.43955
1.42815
1.41266
1.40136
1.38884
1.37261
1.35536
1.34144
1.33627
1.33439
1.33439
1.33244
1.32548
1.31502
1.29935
1.27972
1.26571
1.25689
1.25223
1.25287
1.25194
1.24586
1.23763
1.22747
1.21869
1.21489
1.21272
1.21029
1.20525
2.10361
2.08103
2.05798
2.03421
2.00958
1.98117
1.95191
1.92298
1.89349
1.86206
1.83453
1.80642
1.7801
1.75371
1.73015
1.70898
1.68777
1.66199
1.64092
1.6286
1.60663
1.58287
1.56826
1.54818
1.51843
1.50009
1.48658
1.46892
1.44843
1.43966
1.43125
1.41709
1.39083
1.3743
1.36806
1.39695
1.48699
1.62628
1.73226
1.78737
1.77453
1.74647
1.71774
1.68858
1.65905
1.63024
1.60545
1.58664
1.57148
1.55634
1.54049
1.52035
1.49612
1.47773
1.46307
1.4488
1.43767
1.43448
1.43225
1.42726
1.41994
1.4117
1.40234
1.39381
1.38852
1.39
1.3896
1.38793
1.3843
1.38078
1.37327
1.36388
1.35101
1.33446
1.31892
1.30965
1.30741
1.30537
1.29971
1.29363
1.28677
1.27698
1.26083
1.24416
1.23674
1.2323
1.22602
1.22069
1.21493
1.20766
1.19934
1.19052
1.18358
1.18204
1.1838
1.1833
2.08601
2.06536
2.04456
2.0219
1.99726
1.97232
1.94686
1.92
1.88935
1.86145
1.83962
1.81576
1.78786
1.75906
1.74031
1.71863
1.69829
1.67266
1.65363
1.6411
1.62084
1.5953
1.57847
1.56089
1.53236
1.512
1.4999
1.48486
1.4624
1.4497
1.44026
1.42932
1.41202
1.4187
1.47223
1.61179
1.74277
1.81375
1.81254
1.79916
1.77275
1.74223
1.70642
1.66991
1.63694
1.61085
1.59341
1.57997
1.56592
1.55113
1.53481
1.51247
1.48355
1.45719
1.44017
1.425
1.40905
1.39444
1.38428
1.378
1.373
1.36333
1.35039
1.33663
1.32678
1.32225
1.32503
1.3297
1.32995
1.32847
1.32555
1.32426
1.3199
1.30986
1.29994
1.29118
1.28482
1.27701
1.27077
1.26737
1.26213
1.25244
1.24001
1.22613
1.21423
1.20638
1.20106
1.19668
1.19106
1.18342
1.17671
1.16887
1.15791
1.15378
1.15427
1.15371
2.06128
2.04913
2.02645
2.00494
1.98354
1.96115
1.93754
1.91357
1.8879
1.86308
1.83893
1.81509
1.78982
1.76627
1.74667
1.72528
1.70219
1.67487
1.66214
1.64854
1.62978
1.60383
1.58767
1.57136
1.54525
1.52132
1.50987
1.49572
1.47621
1.46222
1.4518
1.44714
1.47977
1.59428
1.74075
1.82441
1.85072
1.84408
1.82669
1.79939
1.76268
1.7253
1.68913
1.65465
1.62446
1.60508
1.58917
1.57555
1.56053
1.54339
1.52441
1.50232
1.47737
1.45354
1.43318
1.41431
1.39478
1.37762
1.36437
1.35314
1.34125
1.32994
1.32332
1.31724
1.3008
1.27786
1.26518
1.25911
1.25728
1.25674
1.25965
1.26511
1.2683
1.26887
1.2667
1.25593
1.24746
1.24744
1.24656
1.24557
1.23991
1.23165
1.22002
1.20544
1.19326
1.18339
1.17784
1.17388
1.1691
1.16356
1.1575
1.14941
1.13817
1.13169
1.13175
1.1305
1.94241
2.03024
2.01378
1.98825
1.96581
1.94679
1.9277
1.90532
1.87972
1.85923
1.83892
1.81706
1.79054
1.76827
1.7482
1.72778
1.70698
1.68377
1.66856
1.65113
1.63101
1.6075
1.59296
1.57926
1.55554
1.53333
1.51983
1.50444
1.48475
1.47513
1.49243
1.56863
1.7268
1.8452
1.8963
1.88817
1.87168
1.8429
1.80326
1.76776
1.73891
1.71146
1.68202
1.65015
1.62561
1.60536
1.58604
1.56895
1.55212
1.53401
1.5151
1.49596
1.47575
1.45436
1.43271
1.41075
1.38964
1.37232
1.35692
1.34113
1.32506
1.31186
1.30275
1.29476
1.28426
1.2678
1.24623
1.23033
1.22165
1.21382
1.20897
1.20687
1.20441
1.20587
1.206
1.2034
1.20327
1.20811
1.21032
1.20958
1.21169
1.21145
1.2056
1.19349
1.17662
1.16129
1.15562
1.15277
1.14923
1.14556
1.1404
1.1335
1.12433
1.1139
1.1098
1.10784
1.61997
1.93217
1.99808
1.97961
1.95322
1.9318
1.91343
1.89465
1.8743
1.85412
1.83325
1.81081
1.78737
1.76911
1.74929
1.72917
1.70442
1.68742
1.67463
1.65597
1.63513
1.60928
1.59581
1.58299
1.5617
1.53867
1.52692
1.51451
1.5115
1.56049
1.70411
1.83701
1.94199
1.93822
1.91485
1.88101
1.84198
1.80403
1.77246
1.74689
1.72676
1.7098
1.68759
1.65432
1.61944
1.59567
1.57614
1.55876
1.54276
1.52632
1.50808
1.48827
1.46863
1.44972
1.42958
1.40328
1.37642
1.36239
1.35044
1.33599
1.31965
1.30393
1.29081
1.27894
1.26631
1.25159
1.23175
1.21308
1.20416
1.19666
1.18883
1.18114
1.17132
1.16151
1.1548
1.15061
1.14746
1.14917
1.15535
1.16585
1.17783
1.18031
1.17805
1.16957
1.1562
1.14557
1.13814
1.13356
1.13224
1.13056
1.12597
1.11923
1.11049
1.09793
1.08927
1.0867
1.15907
1.66221
1.91123
1.96665
1.94726
1.92143
1.90072
1.88218
1.86287
1.84441
1.82668
1.80586
1.78337
1.76491
1.746
1.72763
1.70701
1.69158
1.67499
1.65547
1.63446
1.61265
1.60068
1.58848
1.56735
1.54374
1.53897
1.56598
1.66168
1.82767
1.9616
1.98181
1.96438
1.93236
1.88907
1.84914
1.81366
1.78068
1.76042
1.74485
1.72513
1.70225
1.67685
1.64797
1.61806
1.58959
1.56389
1.54239
1.52511
1.50978
1.49345
1.47592
1.4592
1.44372
1.42776
1.40417
1.37209
1.35306
1.34059
1.32682
1.31128
1.29565
1.2819
1.27008
1.2581
1.2425
1.22068
1.20131
1.19262
1.18603
1.17771
1.16752
1.15701
1.14596
1.13498
1.12503
1.11271
1.1086
1.10904
1.11163
1.12026
1.13183
1.13321
1.13159
1.12546
1.12258
1.11995
1.11243
1.10725
1.10512
1.10153
1.09581
1.08816
1.07839
1.07165
1.0685
1.00636
1.2097
1.68077
1.88892
1.93603
1.91843
1.88992
1.86773
1.85138
1.83525
1.81759
1.79436
1.77611
1.7616
1.74681
1.72642
1.7031
1.69077
1.67496
1.65674
1.63574
1.61518
1.60005
1.58842
1.57096
1.57614
1.64227
1.8105
1.95158
2.0115
2.00275
1.98131
1.94653
1.90537
1.86366
1.82777
1.80128
1.77494
1.74602
1.725
1.70487
1.68385
1.66372
1.64338
1.61918
1.58816
1.5571
1.53224
1.50925
1.491
1.47721
1.46339
1.44879
1.43414
1.41893
1.39836
1.36995
1.34876
1.33451
1.3204
1.30505
1.28926
1.27564
1.26444
1.25398
1.24047
1.21791
1.19474
1.18463
1.1781
1.17061
1.16041
1.14856
1.13615
1.12501
1.11404
1.0992
1.08725
1.08485
1.08309
1.08272
1.08396
1.08737
1.0877
1.08561
1.08346
1.08773
1.08927
1.08692
1.08559
1.08354
1.0786
1.07041
1.06176
1.05671
1.05208
1.00005
1.01135
1.24652
1.68599
1.86426
1.90532
1.88813
1.8614
1.83823
1.82251
1.80792
1.78914
1.76909
1.7533
1.74071
1.72323
1.70475
1.68995
1.67228
1.65346
1.63244
1.6167
1.6049
1.59867
1.6407
1.77597
1.94385
2.03924
2.05403
2.03642
2.00881
1.97155
1.92673
1.88155
1.84103
1.8063
1.77913
1.75659
1.73117
1.70593
1.6853
1.66822
1.65216
1.63445
1.61185
1.58103
1.54551
1.51661
1.49522
1.47885
1.46522
1.45083
1.43499
1.4184
1.40015
1.37915
1.3565
1.34049
1.32926
1.3165
1.30094
1.28344
1.26628
1.25175
1.23942
1.22867
1.21715
1.1982
1.1801
1.16966
1.15961
1.14832
1.13725
1.12761
1.11928
1.10868
1.09357
1.07859
1.07168
1.06887
1.06635
1.06339
1.06093
1.05753
1.05349
1.04863
1.04811
1.05405
1.05876
1.05997
1.0599
1.05706
1.04958
1.04304
1.04087
1.03723
1
1.0001
1.01653
1.27032
1.67572
1.83367
1.87684
1.86262
1.83817
1.81631
1.7982
1.77902
1.76133
1.7496
1.73585
1.71559
1.69793
1.6872
1.67242
1.65317
1.63247
1.61967
1.64006
1.73933
1.93504
2.05662
2.09806
2.07881
2.04742
2.00426
1.96273
1.92561
1.88867
1.8538
1.82236
1.79324
1.7655
1.73956
1.71415
1.68984
1.66837
1.64993
1.6332
1.61546
1.59369
1.56499
1.53015
1.50132
1.48234
1.46741
1.45404
1.43979
1.42359
1.40593
1.38579
1.36292
1.34247
1.32853
1.31902
1.30872
1.29547
1.27933
1.2623
1.24796
1.23703
1.22574
1.21026
1.19143
1.17823
1.17023
1.16136
1.15023
1.13787
1.12632
1.11582
1.10463
1.09119
1.07621
1.06697
1.06184
1.05806
1.05473
1.05135
1.04555
1.03853
1.03053
1.02216
1.02166
1.024
1.02583
1.0294
1.02945
1.02561
1.02121
1.02188
1.02306
1
1
1.00018
1.02085
1.27927
1.64631
1.80748
1.85365
1.84079
1.81601
1.79507
1.7724
1.75308
1.74101
1.72678
1.71057
1.69346
1.68224
1.67045
1.65005
1.65368
1.71705
1.8891
2.03412
2.13814
2.13701
2.10642
2.05248
2.00377
1.96017
1.92212
1.89216
1.8645
1.83921
1.8132
1.78092
1.74771
1.71918
1.69436
1.6726
1.65235
1.63209
1.61217
1.59269
1.57198
1.54733
1.51779
1.4906
1.47083
1.45509
1.44125
1.42724
1.41171
1.39529
1.3783
1.35885
1.33806
1.32024
1.30703
1.29528
1.28311
1.27124
1.25913
1.24589
1.23478
1.22631
1.21405
1.19062
1.17336
1.16588
1.15962
1.1511
1.14045
1.13088
1.12324
1.11589
1.10491
1.08834
1.06996
1.05842
1.05272
1.04841
1.04394
1.03857
1.03211
1.02388
1.01181
1.00348
1.00235
1.00153
1.00251
1.00484
1.00425
0.998858
0.997294
1.00223
1
1
1
1.00026
1.02312
1.26501
1.61749
1.79128
1.8294
1.81716
1.79651
1.76838
1.7464
1.73392
1.71798
1.70332
1.68537
1.67681
1.67657
1.71367
1.86062
2.04644
2.14644
2.14136
2.12603
2.09068
2.05021
2.00554
1.96315
1.92861
1.89976
1.87321
1.84868
1.8239
1.7959
1.76292
1.72747
1.69458
1.66837
1.64903
1.63155
1.61284
1.59362
1.57482
1.55544
1.5344
1.50956
1.4817
1.45787
1.43943
1.42394
1.40984
1.39683
1.38408
1.37189
1.36045
1.34636
1.32659
1.3058
1.2887
1.27496
1.2624
1.25419
1.24886
1.24309
1.23256
1.20863
1.18145
1.16975
1.16282
1.15605
1.14959
1.14197
1.13259
1.12371
1.11344
1.09863
1.08062
1.067
1.05846
1.05189
1.04633
1.04029
1.03391
1.02788
1.01992
1.00824
0.998045
0.995123
0.993716
0.992541
0.991374
0.987743
0.979879
0.976386
0.978803
1
1
1
1
1.00029
1.02186
1.23954
1.61005
1.76401
1.80026
1.79437
1.77067
1.74405
1.72699
1.70954
1.69398
1.68522
1.69746
1.81205
2.03228
2.16386
2.22099
2.19813
2.15518
2.10002
2.04445
1.99947
1.96498
1.93041
1.90004
1.87392
1.84925
1.82587
1.80136
1.77331
1.74203
1.70917
1.67788
1.65134
1.63086
1.61373
1.59616
1.57805
1.56026
1.54177
1.52223
1.50214
1.48017
1.45533
1.43355
1.41576
1.40089
1.389
1.37866
1.36846
1.35701
1.33893
1.31108
1.29392
1.28525
1.27544
1.265
1.25571
1.24765
1.23836
1.22269
1.20027
1.18012
1.16994
1.16214
1.15451
1.14784
1.1423
1.1376
1.13013
1.11867
1.10144
1.07918
1.06446
1.05739
1.0521
1.04735
1.04244
1.03565
1.02831
1.02197
1.01257
1.00008
0.994468
0.992364
0.98826
0.982205
0.976316
0.969869
0.965337
0.964467
1
1
1
1
1
1.00028
1.01887
1.23006
1.58085
1.72201
1.77437
1.76907
1.74593
1.7241
1.70502
1.70237
1.75754
1.95494
2.15415
2.23917
2.21006
2.18428
2.14582
2.10231
2.05435
2.00769
1.96864
1.93657
1.90469
1.87402
1.84692
1.8221
1.79892
1.77613
1.75254
1.72735
1.70072
1.67435
1.64836
1.62382
1.60267
1.58352
1.56623
1.55116
1.53543
1.51685
1.49452
1.46747
1.44309
1.42661
1.41355
1.40205
1.39254
1.38378
1.37377
1.35988
1.33836
1.30909
1.28571
1.27356
1.26532
1.25859
1.25383
1.24941
1.2414
1.22409
1.19909
1.18691
1.17802
1.16883
1.15905
1.14954
1.14067
1.13159
1.12225
1.10912
1.0902
1.07535
1.06685
1.0605
1.05514
1.05034
1.04577
1.03966
1.03165
1.02141
1.0059
0.988834
0.982278
0.979476
0.976341
0.971597
0.966594
0.962346
0.959951
0.957045
1
1
1
1
1
1
1.00025
1.0167
1.21059
1.51281
1.69399
1.75149
1.74586
1.73391
1.74682
1.86782
2.0811
2.24897
2.27816
2.25769
2.21338
2.14741
2.09337
2.05209
2.01601
1.98164
1.94932
1.91678
1.88384
1.85247
1.82428
1.7996
1.7778
1.75723
1.73676
1.71545
1.69219
1.66641
1.63967
1.61572
1.59575
1.57796
1.56157
1.54643
1.53072
1.51248
1.49
1.46463
1.44256
1.42502
1.41056
1.39863
1.38881
1.37955
1.36924
1.35594
1.33499
1.30523
1.28415
1.27352
1.26505
1.25812
1.25254
1.24668
1.23766
1.22139
1.2012
1.18402
1.17362
1.16514
1.15624
1.14718
1.13812
1.12933
1.12035
1.10754
1.08927
1.0741
1.06586
1.06012
1.05514
1.0507
1.04604
1.04
1.0319
1.02118
1.00529
0.987138
0.979507
0.976296
0.972639
0.967718
0.963335
0.96003
0.958516
0.954396
1
1
1
1
1
1
1
1.0002
1.01384
1.16228
1.45735
1.653
1.74101
1.84521
2.00882
2.16543
2.23005
2.24203
2.22321
2.19288
2.1579
2.12095
2.08155
2.04455
2.01295
1.98438
1.95543
1.92477
1.89453
1.8654
1.83779
1.81272
1.79017
1.76893
1.74838
1.72769
1.70466
1.6774
1.64831
1.62358
1.60495
1.58928
1.57457
1.55964
1.54272
1.52304
1.50059
1.47682
1.45505
1.43687
1.42169
1.40894
1.39782
1.38715
1.37618
1.36306
1.34359
1.31881
1.29919
1.28482
1.27367
1.26575
1.25974
1.25358
1.24484
1.23101
1.21036
1.19008
1.17906
1.17064
1.1613
1.152
1.14408
1.13709
1.12856
1.11445
1.09397
1.07891
1.07226
1.06751
1.06301
1.05852
1.05358
1.0477
1.04022
1.02971
1.01233
0.992835
0.985691
0.981913
0.976933
0.972171
0.968492
0.965845
0.963493
0.957892
1
1
1
1
1
1
1
1
1.00015
1.00895
1.12286
1.46553
1.82634
2.14493
2.36917
2.46583
2.41006
2.29541
2.19975
2.14156
2.10824
2.08682
2.05594
2.02104
1.98948
1.96318
1.9364
1.90756
1.87892
1.8509
1.82383
1.79908
1.77649
1.75462
1.733
1.71148
1.6885
1.66182
1.63324
1.6083
1.58866
1.57262
1.55901
1.54581
1.53001
1.51019
1.48686
1.46255
1.4411
1.42336
1.4082
1.39555
1.38479
1.37426
1.36273
1.34858
1.32899
1.30623
1.28772
1.27286
1.26062
1.25217
1.24644
1.2405
1.23154
1.21732
1.19667
1.17757
1.16741
1.15891
1.14915
1.13938
1.13127
1.12462
1.11669
1.10313
1.08269
1.06732
1.06098
1.05672
1.05266
1.04844
1.0437
1.03805
1.03081
1.01978
1.00027
0.980689
0.975002
0.971346
0.966145
0.961314
0.957785
0.955339
0.953199
0.947992
)
;

boundaryField
{
    inlet
    {
        type            fixedValue;
        value           uniform 1;
    }
    outlet
    {
        type            inletOutlet;
        inletValue      uniform 1;
        value           nonuniform List<scalar> 
32
(
2.54308
2.43015
2.19726
1.92272
1.67654
1.57874
1.53196
1.49213
1.45611
1.42588
1.39301
1.35274
1.30692
1.26753
1.235
1.20586
1.18445
1.15459
1.13096
1.10829
1.08722
1.06919
1.05252
1.03745
1.02371
1.00337
0.979438
0.964988
0.957454
0.954622
0.958033
0.948182
)
;
    }
    bottom
    {
        type            symmetryPlane;
    }
    top
    {
        type            symmetryPlane;
    }
    obstacle
    {
        type            zeroGradient;
    }
    defaultFaces
    {
        type            empty;
    }
}


// ************************************************************************* //
