/*--------------------------------*- C++ -*----------------------------------*\
  =========                 |
  \\      /  F ield         | OpenFOAM: The Open Source CFD Toolbox
   \\    /   O peration     | Website:  https://openfoam.org
    \\  /    A nd           | Version:  7
     \\/     M anipulation  |
\*---------------------------------------------------------------------------*/
FoamFile
{
    version     2.0;
    format      ascii;
    class       volVectorField;
    location    "1.2";
    object      U;
}
// * * * * * * * * * * * * * * * * * * * * * * * * * * * * * * * * * * * * * //

dimensions      [0 1 -1 0 0 0 0];

internalField   nonuniform List<vector> 
4032
(
(3 -6.26924e-17 0)
(3 3.00605e-16 0)
(3 -1.54828e-16 0)
(3 -5.8095e-16 0)
(3 -5.50643e-16 0)
(3 -1.43149e-16 0)
(3 -2.26071e-17 0)
(3 -3.83109e-16 0)
(3 -4.02971e-16 0)
(3 -6.65441e-16 0)
(3 -6.85447e-16 0)
(3 -2.09326e-16 0)
(2.92143 0.00353567 0)
(0.978572 0.0206998 0)
(0.658929 0.0198483 0)
(0.612234 0.0184611 0)
(0.560875 0.0213589 0)
(0.507528 0.025675 0)
(0.447877 0.0299528 0)
(0.382285 0.0337309 0)
(0.310527 0.0365202 0)
(0.228193 0.0393295 0)
(0.142008 0.0413574 0)
(0.0521387 0.0452484 0)
(3 2.87963e-17 0)
(3 3.48582e-16 0)
(3 -5.21048e-17 0)
(3 -6.18652e-16 0)
(3 -6.12613e-16 0)
(3 -2.62322e-17 0)
(3 7.9205e-16 0)
(3 1.16915e-16 0)
(3 -7.67602e-16 0)
(3 -2.28148e-15 0)
(3 -1.91315e-15 0)
(3 3.35849e-17 0)
(2.93406 0.0283677 0)
(0.992135 0.088254 0)
(0.65773 0.0690651 0)
(0.607236 0.0613737 0)
(0.551899 0.0693059 0)
(0.494592 0.0804479 0)
(0.432175 0.0918765 0)
(0.365345 0.1027 0)
(0.294013 0.111065 0)
(0.215289 0.120644 0)
(0.133278 0.128093 0)
(0.0492603 0.140009 0)
(3 1.36636e-16 0)
(3 -3.63836e-16 0)
(3 -4.0496e-16 0)
(3 3.12901e-16 0)
(3 6.79274e-16 0)
(3 7.71318e-16 0)
(3 1.5945e-15 0)
(3 1.93645e-15 0)
(3 8.26628e-16 0)
(3 -7.47211e-16 0)
(3 -8.10068e-16 0)
(3 -1.29615e-16 0)
(2.98751 0.0112707 0)
(1.05424 0.141843 0)
(0.686859 0.112295 0)
(0.626469 0.110946 0)
(0.561046 0.124481 0)
(0.495675 0.140972 0)
(0.428214 0.157305 0)
(0.357847 0.172695 0)
(0.283238 0.183786 0)
(0.204981 0.197976 0)
(0.124735 0.209917 0)
(0.0462286 0.229192 0)
(3 -2.56774e-17 0)
(3 -8.95082e-17 0)
(3 -6.69495e-18 0)
(3 -5.98637e-17 0)
(3 8.77765e-16 0)
(3 1.06865e-15 0)
(3 8.06363e-16 0)
(3 3.82456e-16 0)
(3 1.23891e-15 0)
(3 1.66626e-15 0)
(3 1.44437e-15 0)
(3 5.10649e-16 0)
(3.00037 0.00048294 0)
(1.15114 0.190234 0)
(0.699744 0.167881 0)
(0.635541 0.171176 0)
(0.57103 0.185294 0)
(0.505793 0.203632 0)
(0.437262 0.224603 0)
(0.363835 0.246023 0)
(0.283827 0.260617 0)
(0.202915 0.27848 0)
(0.121557 0.293893 0)
(0.0433491 0.317567 0)
(3 2.12507e-16 0)
(3 2.57541e-16 0)
(3 -1.11982e-16 0)
(3 -8.6282e-16 0)
(3 -8.47972e-16 0)
(3 -7.10304e-16 0)
(3 -1.27889e-15 0)
(3 -1.7831e-15 0)
(3 -5.43228e-16 0)
(3 1.52252e-15 0)
(3 2.33321e-15 0)
(3 1.58332e-15 0)
(3 7.18475e-07 0)
(1.30955 0.247308 0)
(0.721934 0.222886 0)
(0.648376 0.228687 0)
(0.58539 0.2444 0)
(0.519356 0.265964 0)
(0.450418 0.29303 0)
(0.376669 0.321592 0)
(0.294426 0.339939 0)
(0.215072 0.36117 0)
(0.130148 0.38081 0)
(0.0487288 0.411018 0)
(3 -4.97982e-17 0)
(3 -5.7604e-16 0)
(3 -1.16614e-15 0)
(3 -1.74094e-15 0)
(3 -2.15624e-15 0)
(3 -2.73803e-15 0)
(3 -2.77684e-15 0)
(3 -1.71288e-15 0)
(3 -6.1971e-16 0)
(3 -1.00888e-16 0)
(3 6.94281e-16 0)
(3 5.04897e-16 0)
(3 2.41233e-11 0)
(1.54991 0.300796 0)
(0.751283 0.285236 0)
(0.654269 0.286231 0)
(0.587115 0.304057 0)
(0.518526 0.328811 0)
(0.45397 0.362334 0)
(0.388687 0.398023 0)
(0.31095 0.422978 0)
(0.232179 0.451614 0)
(0.145589 0.483662 0)
(0.0478188 0.520942 0)
(3 -8.42454e-17 0)
(3 -4.1918e-16 0)
(3 -6.106e-16 0)
(3 -8.66667e-16 0)
(3 -8.4315e-16 0)
(3 -7.24066e-16 0)
(3 -5.1919e-16 0)
(3 -4.40578e-16 0)
(3 -7.06542e-16 0)
(3 -9.08223e-16 0)
(3 -1.26481e-15 0)
(3 -9.30813e-16 0)
(3 -5.05891e-14 0)
(1.89797 0.353956 0)
(0.795322 0.366576 0)
(0.663473 0.356201 0)
(0.602949 0.371743 0)
(0.542986 0.394174 0)
(0.48874 0.428532 0)
(0.433432 0.468125 0)
(0.369094 0.503426 0)
(0.302075 0.53966 0)
(0.218906 0.583441 0)
(0.100354 0.654529 0)
(3 1.83117e-16 0)
(3 3.66939e-16 0)
(3 3.18299e-16 0)
(3 4.49177e-16 0)
(3 3.12894e-16 0)
(3 8.91286e-16 0)
(3 1.24076e-15 0)
(3 6.14352e-16 0)
(3 -4.86515e-16 0)
(3 -1.00413e-15 0)
(3 -7.94574e-16 0)
(3 -1.11129e-16 0)
(3 -2.55942e-15 0)
(2.41671 0.343728 0)
(0.903412 0.460656 0)
(0.734645 0.409321 0)
(0.679726 0.413815 0)
(0.620881 0.440436 0)
(0.568605 0.481307 0)
(0.516919 0.529119 0)
(0.463866 0.571154 0)
(0.399936 0.629672 0)
(0.281485 0.741012 0)
(0.155593 0.922971 0)
(3 -3.04827e-16 0)
(3 -5.01826e-17 0)
(3 1.67337e-16 0)
(3 3.78268e-16 0)
(3 6.91383e-16 0)
(3 6.89715e-16 0)
(3 7.14844e-16 0)
(3 5.88164e-16 0)
(3 1.17151e-15 0)
(3 4.41748e-16 0)
(3 -3.98979e-16 0)
(3 -5.35241e-16 0)
(3 -1.20709e-15 0)
(2.98093 0.127265 0)
(1.10719 0.482522 0)
(0.826932 0.44635 0)
(0.773471 0.459139 0)
(0.719292 0.490688 0)
(0.667476 0.533238 0)
(0.621956 0.586044 0)
(0.574534 0.642337 0)
(0.528287 0.742201 0)
(0.492888 0.907648 0)
(0.603147 1.1968 0)
(3 -4.11399e-17 0)
(3 -3.60277e-16 0)
(3 -5.08621e-16 0)
(3 -3.23337e-16 0)
(3 -1.09677e-16 0)
(3 -9.94068e-16 0)
(3 -1.01962e-15 0)
(3 -4.69691e-16 0)
(3 5.30521e-16 0)
(3 8.48741e-16 0)
(3 5.15834e-16 0)
(3 -7.99115e-16 0)
(3 -1.1317e-15 0)
(3.02837 0.00601417 0)
(1.29982 0.465578 0)
(0.846222 0.51479 0)
(0.781483 0.527578 0)
(0.738276 0.555998 0)
(0.709868 0.599123 0)
(0.689735 0.654284 0)
(0.673351 0.722664 0)
(0.668936 0.832331 0)
(0.729748 0.969725 0)
(1.00271 1.14375 0)
(3 6.28245e-17 0)
(3 -6.76229e-17 0)
(3 1.36386e-16 0)
(3 -8.57394e-16 0)
(3 -1.73116e-15 0)
(3 -1.69537e-15 0)
(3 -1.5996e-15 0)
(3 -1.72145e-15 0)
(3 -1.43243e-15 0)
(3 -8.75331e-16 0)
(3 -3.91364e-16 0)
(3 -3.33355e-16 0)
(3 -7.76951e-16 0)
(3.00048 1.40294e-06 0)
(1.70064 0.501862 0)
(0.872583 0.579019 0)
(0.799435 0.575037 0)
(0.772387 0.594824 0)
(0.759831 0.632353 0)
(0.756685 0.688218 0)
(0.770855 0.763608 0)
(0.801007 0.865132 0)
(0.917575 0.974859 0)
(1.209 1.08058 0)
(3 1.7393e-16 0)
(3 5.0633e-16 0)
(3 6.3264e-16 0)
(3 -1.18428e-16 0)
(3 -7.51463e-16 0)
(3 -3.84597e-16 0)
(3 -4.0169e-16 0)
(3 -6.45712e-16 0)
(3 -1.1896e-15 0)
(3 -1.6395e-15 0)
(3 -1.80883e-15 0)
(3 -1.09111e-15 0)
(3 -9.67086e-16 0)
(3 -1.89785e-07 0)
(2.45306 0.431416 0)
(1.00682 0.654821 0)
(0.867523 0.61338 0)
(0.833549 0.620556 0)
(0.822354 0.654936 0)
(0.828856 0.709314 0)
(0.855131 0.785985 0)
(0.911503 0.875248 0)
(1.0542 0.968654 0)
(1.306 1.03623 0)
(3 3.34721e-17 0)
(3 2.91481e-17 0)
(3 -3.25314e-16 0)
(3 -3.21131e-16 0)
(3 5.50397e-17 0)
(3 2.16993e-16 0)
(3 9.94374e-17 0)
(3 8.69806e-17 0)
(3 -4.32937e-16 0)
(3 -8.73481e-16 0)
(3 -2.45578e-15 0)
(3 -2.42771e-15 0)
(3 -1.32742e-15 0)
(3 -2.18222e-07 0)
(3.08482 0.0730651 0)
(1.34522 0.67351 0)
(0.980079 0.668929 0)
(0.925059 0.653689 0)
(0.894696 0.675473 0)
(0.901528 0.724807 0)
(0.929468 0.794128 0)
(1.00015 0.867902 0)
(1.13713 0.936067 0)
(1.34059 0.976615 0)
(3 5.06794e-17 0)
(3 -1.37601e-16 0)
(3 -7.63966e-16 0)
(3 -3.66752e-16 0)
(3 2.04363e-16 0)
(3 3.0091e-16 0)
(3 5.08975e-17 0)
(3 -2.91028e-16 0)
(3 -5.81829e-16 0)
(3 -6.35461e-16 0)
(3 -6.72757e-16 0)
(3 -1.09845e-15 0)
(3 -1.0429e-15 0)
(3 -4.68543e-08 0)
(3.0123 0.000516341 0)
(1.80902 0.656526 0)
(1.02024 0.740972 0)
(0.982085 0.720037 0)
(0.962498 0.718111 0)
(0.970339 0.749682 0)
(1.00223 0.80512 0)
(1.07725 0.864404 0)
(1.20091 0.917621 0)
(1.36862 0.944091 0)
(3 1.20076e-16 0)
(3 6.63994e-17 0)
(3 -1.97802e-17 0)
(3 -6.2089e-17 0)
(3 -1.57893e-16 0)
(3 -3.26e-16 0)
(3 -1.62899e-16 0)
(3 -6.6601e-16 0)
(3 -9.33172e-16 0)
(3 -1.33508e-15 0)
(3 -6.55651e-16 0)
(3 -8.8841e-16 0)
(3 -1.26556e-15 0)
(3 -2.66584e-09 0)
(3.00007 -2.91084e-07 0)
(2.77978 0.345547 0)
(1.21404 0.750414 0)
(1.05956 0.738658 0)
(1.05143 0.734634 0)
(1.05447 0.768165 0)
(1.07941 0.813203 0)
(1.14523 0.85735 0)
(1.24816 0.893796 0)
(1.38466 0.909795 0)
(3 -1.20302e-16 0)
(3 6.83954e-17 0)
(3 6.5991e-16 0)
(3 3.18336e-16 0)
(3 -5.29486e-17 0)
(3 -7.76242e-16 0)
(3 -1.21122e-15 0)
(3 -1.12736e-15 0)
(3 -9.97136e-16 0)
(3 -8.68579e-16 0)
(3 -3.85691e-16 0)
(3 -7.3836e-16 0)
(3 -1.35047e-15 0)
(3 -9.47561e-12 0)
(3.00001 -2.21886e-06 0)
(3.06047 0.0208994 0)
(1.55421 0.711202 0)
(1.09324 0.789792 0)
(1.09771 0.790857 0)
(1.10557 0.818392 0)
(1.13879 0.845942 0)
(1.20133 0.875836 0)
(1.28923 0.898728 0)
(1.40352 0.905338 0)
(3 9.83595e-19 0)
(3 1.4013e-18 0)
(3 -1.90696e-16 0)
(3 -2.53098e-16 0)
(3 -8.65221e-17 0)
(3 -1.57546e-16 0)
(3 -1.03902e-15 0)
(3 -1.03305e-15 0)
(3 -4.23168e-16 0)
(3 -6.8409e-17 0)
(3 -8.24914e-17 0)
(3 -8.33733e-17 0)
(3 -5.89504e-16 0)
(3 -9.1615e-15 0)
(3 -3.52607e-07 0)
(3.00186 0.000237224 0)
(2.37563 0.543562 0)
(1.21302 0.824485 0)
(1.13593 0.826479 0)
(1.15977 0.831491 0)
(1.19648 0.850776 0)
(1.25482 0.871383 0)
(1.33293 0.887222 0)
(1.43108 0.890154 0)
(3 -5.36511e-17 0)
(3 -2.26677e-16 0)
(3 -4.06402e-16 0)
(3 -3.50054e-16 0)
(3 -2.05613e-16 0)
(3 -3.17686e-16 0)
(3 -6.12836e-16 0)
(3 -1.26627e-15 0)
(3 -6.47527e-16 0)
(3 -4.8462e-17 0)
(3 -1.33548e-16 0)
(3 -1.43333e-16 0)
(3 1.28202e-16 0)
(3 1.08846e-15 0)
(3 -1.97443e-08 0)
(3 2.85879e-07 0)
(3.05262 0.0773724 0)
(1.57455 0.798133 0)
(1.18849 0.83629 0)
(1.21882 0.845259 0)
(1.24607 0.869997 0)
(1.29738 0.89059 0)
(1.3682 0.902578 0)
(1.45428 0.90139 0)
(3 -3.51115e-17 0)
(3 -4.47997e-16 0)
(3 -1.5738e-16 0)
(3 -3.56147e-16 0)
(3 -5.84196e-16 0)
(3 -7.40543e-16 0)
(3 -8.05635e-16 0)
(3 -1.13578e-15 0)
(3 7.20216e-17 0)
(3 6.3284e-16 0)
(3 3.93304e-16 0)
(3 -7.46891e-17 0)
(3 5.63242e-16 0)
(3 1.30308e-15 0)
(3 -9.85769e-11 0)
(3 -7.76286e-08 0)
(3.00667 0.00178338 0)
(2.38474 0.61299 0)
(1.29409 0.894442 0)
(1.25141 0.884428 0)
(1.29298 0.883194 0)
(1.34138 0.886705 0)
(1.40657 0.88918 0)
(1.48366 0.887598 0)
(3 6.28268e-17 0)
(3 -3.5224e-17 0)
(3 -9.04651e-16 0)
(3 -1.1113e-15 0)
(3 -1.06927e-15 0)
(3 -1.10913e-15 0)
(3 -6.27489e-16 0)
(3 -3.03601e-16 0)
(3 6.80666e-16 0)
(3 3.9131e-16 0)
(3 3.92173e-16 0)
(3 4.81393e-16 0)
(3 9.29684e-16 0)
(3 1.41825e-15 0)
(3 -8.73492e-14 0)
(3 -2.82889e-08 0)
(3.00002 1.03955e-05 0)
(3.04533 0.0903364 0)
(1.7069 0.836603 0)
(1.30143 0.897287 0)
(1.34522 0.895087 0)
(1.38348 0.901697 0)
(1.43652 0.904432 0)
(1.49943 0.903926 0)
(3 8.50327e-17 0)
(3 3.20118e-16 0)
(3 2.89535e-16 0)
(3 4.11702e-16 0)
(3 8.97056e-17 0)
(3 -1.16549e-17 0)
(3 5.60578e-16 0)
(3 1.08253e-15 0)
(3 9.89829e-16 0)
(3 8.56042e-16 0)
(3 8.76764e-16 0)
(3 1.14604e-15 0)
(3 1.38617e-15 0)
(3 1.00482e-15 0)
(3 2.92729e-15 0)
(3 -7.20806e-09 0)
(3 -6.87412e-09 0)
(3.00565 0.00312201 0)
(2.60282 0.527875 0)
(1.45929 0.946048 0)
(1.3752 0.926398 0)
(1.42359 0.919351 0)
(1.46793 0.912537 0)
(1.52318 0.903864 0)
(3 -3.00015e-16 0)
(3 4.72922e-18 0)
(3 1.09765e-15 0)
(3 1.31913e-15 0)
(3 9.96995e-16 0)
(3 5.80821e-16 0)
(3 9.16736e-16 0)
(3 9.0693e-16 0)
(3 5.65758e-16 0)
(3 6.23359e-16 0)
(3 7.66657e-16 0)
(3 8.36059e-16 0)
(3 8.9027e-16 0)
(3 8.27358e-16 0)
(3 2.97172e-15 0)
(3 -3.88656e-10 0)
(3 -3.3156e-09 0)
(3.00001 2.15585e-05 0)
(3.03631 0.0501587 0)
(1.97647 0.819676 0)
(1.43966 0.95051 0)
(1.46105 0.939357 0)
(1.49758 0.930743 0)
(1.54305 0.921195 0)
(3 1.42995e-17 0)
(3 -8.32037e-17 0)
(3 6.31853e-16 0)
(3 1.02435e-15 0)
(3 7.78775e-16 0)
(3 5.64389e-16 0)
(3 4.49023e-16 0)
(3 1.827e-16 0)
(3 7.36857e-17 0)
(3 4.77528e-16 0)
(3 3.91145e-16 0)
(3 6.51038e-16 0)
(3 8.55333e-16 0)
(3 1.32992e-15 0)
(3 2.64584e-15 0)
(3 -3.94766e-12 0)
(3 -4.36084e-10 0)
(3 8.99171e-09 0)
(3.00159 0.001879 0)
(2.83419 0.321074 0)
(1.72829 0.928169 0)
(1.48207 0.961759 0)
(1.53435 0.947545 0)
(1.57453 0.9329 0)
(3 2.94517e-16 0)
(3 2.49452e-17 0)
(3 -1.23893e-16 0)
(3 -3.09479e-16 0)
(3 -8.46077e-17 0)
(3 3.21909e-16 0)
(3 2.57228e-16 0)
(3 3.04621e-16 0)
(3 5.81787e-16 0)
(3 8.62323e-16 0)
(3 8.65428e-16 0)
(3 1.32865e-15 0)
(3 1.11733e-15 0)
(3 1.42522e-15 0)
(3 1.80577e-15 0)
(3 -3.60339e-15 0)
(3 -1.16195e-11 0)
(3 -7.24343e-12 0)
(3 7.10037e-06 0)
(3.00902 0.0220337 0)
(2.44285 0.641091 0)
(1.60747 0.993771 0)
(1.55314 0.975811 0)
(1.60273 0.958031 0)
(3 -1.63039e-16 0)
(3 -2.01028e-16 0)
(3 -7.10554e-16 0)
(3 -8.34009e-16 0)
(3 -8.37601e-16 0)
(3 3.24786e-16 0)
(3 7.91141e-16 0)
(3 6.85215e-16 0)
(3 8.26656e-16 0)
(3 8.69836e-16 0)
(3 1.365e-15 0)
(3 1.95207e-15 0)
(3 1.98803e-15 0)
(3 1.11863e-15 0)
(3 6.96989e-16 0)
(3 1.21075e-15 0)
(3 -3.27407e-14 0)
(3 -1.15577e-12 0)
(3 2.92596e-09 0)
(3.00007 0.000494973 0)
(2.98724 0.104911 0)
(2.11506 0.822774 0)
(1.62484 0.992857 0)
(1.62398 0.989637 0)
(3 -2.83625e-17 0)
(3 -1.94809e-16 0)
(3 -1.35113e-16 0)
(3 3.30807e-16 0)
(3 8.78855e-16 0)
(3 1.71051e-15 0)
(3 1.63245e-15 0)
(3 1.33302e-15 0)
(3 8.78892e-16 0)
(3 9.91251e-16 0)
(3 1.20641e-15 0)
(3 1.79639e-15 0)
(3 2.46184e-15 0)
(3 1.64096e-15 0)
(3 1.17058e-15 0)
(3 7.17681e-16 0)
(3 1.13322e-15 0)
(3 -5.27693e-14 0)
(3 3.85532e-13 0)
(3 8.56625e-07 0)
(3.00078 0.0049346 0)
(2.83915 0.298905 0)
(1.94873 0.9063 0)
(1.6767 0.997976 0)
(3 2.01614e-16 0)
(3 1.46731e-16 0)
(3 2.63717e-16 0)
(3 5.9399e-16 0)
(3 2.16182e-15 0)
(3 1.99165e-15 0)
(3 1.53744e-15 0)
(3 1.69798e-15 0)
(3 1.4523e-15 0)
(3 9.5679e-16 0)
(3 5.94517e-16 0)
(3 4.15055e-16 0)
(3 3.4298e-16 0)
(3 5.15631e-16 0)
(3 4.60497e-16 0)
(3 -1.00387e-17 0)
(3 8.25025e-16 0)
(3 -5.79115e-17 0)
(3 -4.21173e-16 0)
(3 3.56978e-10 0)
(3 2.9019e-05 0)
(2.99903 0.0226314 0)
(2.62835 0.492972 0)
(1.87975 0.950161 0)
(3 -3.53488e-18 0)
(3 9.85539e-17 0)
(3 -6.65943e-17 0)
(3 4.87007e-16 0)
(3 9.1826e-16 0)
(3 9.58791e-16 0)
(3 8.75887e-16 0)
(3 1.10594e-15 0)
(3 1.46759e-15 0)
(3 1.1175e-15 0)
(3 4.3914e-16 0)
(3 -2.58445e-16 0)
(3 -8.01952e-16 0)
(3 -1.45718e-16 0)
(3 5.17544e-16 0)
(3 6.42726e-16 0)
(3 5.90954e-16 0)
(3 8.93629e-16 0)
(3 3.43572e-17 0)
(3 3.6827e-14 0)
(3 2.36023e-08 0)
(2.99994 0.000400833 0)
(2.98723 0.0568149 0)
(2.43381 0.639018 0)
(3 1.03503e-16 0)
(3 3.86009e-17 0)
(3 2.60676e-16 0)
(3 1.87469e-16 0)
(3 5.58603e-17 0)
(3 5.55105e-16 0)
(3 3.58762e-16 0)
(3 4.14526e-16 0)
(3 6.63326e-16 0)
(3 4.96773e-16 0)
(3 3.99279e-16 0)
(3 -4.71152e-17 0)
(3 -1.6761e-17 0)
(3 2.1601e-16 0)
(3 2.14829e-16 0)
(3 3.91147e-16 0)
(3 3.29496e-16 0)
(3 5.76119e-16 0)
(3 1.09367e-15 0)
(3 1.12574e-15 0)
(3 5.27448e-12 0)
(3 6.83032e-07 0)
(2.99978 0.00196274 0)
(2.95129 0.112797 0)
(3 -3.74692e-17 0)
(3 -2.00983e-16 0)
(3 -2.18714e-16 0)
(3 -3.1576e-16 0)
(3 -1.07643e-16 0)
(3 -3.12294e-16 0)
(3 -1.86978e-17 0)
(3 2.72779e-16 0)
(3 3.08005e-16 0)
(3 6.58901e-16 0)
(3 1.02911e-15 0)
(3 8.02656e-16 0)
(3 8.70264e-16 0)
(3 2.23146e-16 0)
(3 -3.28791e-16 0)
(3 1.26425e-16 0)
(3 1.78826e-16 0)
(3 2.22079e-16 0)
(3 3.60251e-16 0)
(3 2.41729e-16 0)
(3 5.12447e-16 0)
(3 3.52071e-10 0)
(3 6.10896e-06 0)
(2.99914 0.00564867 0)
(3 -1.53463e-16 0)
(3 -8.56458e-17 0)
(3 1.20972e-16 0)
(3 2.94757e-16 0)
(3 -8.50998e-17 0)
(3 -6.52548e-16 0)
(3 -1.15006e-16 0)
(3 4.08463e-17 0)
(3 4.8947e-17 0)
(3 8.23122e-16 0)
(3 1.53711e-15 0)
(3 1.43097e-15 0)
(3 1.11996e-15 0)
(3 7.39678e-16 0)
(3 3.80362e-16 0)
(3 5.24651e-16 0)
(3 7.94216e-16 0)
(3 5.51967e-16 0)
(3 3.08868e-16 0)
(3 -2.46458e-16 0)
(3 -1.32109e-15 0)
(3 2.62453e-14 0)
(3 5.21261e-09 0)
(2.99999 3.08227e-05 0)
(3 -5.50971e-18 0)
(3 4.55928e-16 0)
(3 8.61637e-16 0)
(3 4.49882e-16 0)
(3 -3.95077e-16 0)
(3 -1.07998e-15 0)
(3 -8.75792e-16 0)
(3 -8.69148e-16 0)
(3 -9.78729e-16 0)
(3 -1.24371e-15 0)
(3 -1.18816e-15 0)
(3 -3.69201e-16 0)
(3 1.64073e-16 0)
(3 1.3878e-16 0)
(3 2.43592e-16 0)
(3 3.59274e-16 0)
(3 7.02264e-16 0)
(3 1.03377e-15 0)
(3 1.05873e-15 0)
(3 1.6496e-16 0)
(3 -4.46596e-16 0)
(3 -1.53228e-15 0)
(3 6.18509e-13 0)
(3 3.76205e-08 0)
(3 -1.76236e-17 0)
(3 1.47473e-16 0)
(3 -4.5403e-16 0)
(3 -1.13276e-15 0)
(3 -1.19319e-15 0)
(3 -1.23747e-15 0)
(3 -1.25789e-15 0)
(3 -2.13097e-15 0)
(3 -2.3375e-15 0)
(3 -2.901e-15 0)
(3 -2.46401e-15 0)
(3 -1.22957e-15 0)
(3 -2.24965e-16 0)
(3 -8.4779e-17 0)
(3 5.70526e-16 0)
(3 6.52572e-16 0)
(3 -5.05888e-17 0)
(3 -1.33405e-16 0)
(3 -4.25122e-16 0)
(3 -2.61949e-16 0)
(3 -1.27626e-16 0)
(3 -6.16264e-16 0)
(3 -6.35402e-16 0)
(3 7.13113e-12 0)
(3 8.83842e-17 0)
(3 -2.47778e-16 0)
(3 -1.10352e-15 0)
(3 -1.35388e-15 0)
(3 -2.21213e-15 0)
(3 -1.96392e-15 0)
(3 -1.87334e-15 0)
(3 -2.32306e-15 0)
(3 -1.90081e-15 0)
(3 -1.96181e-15 0)
(3 -1.17386e-15 0)
(3 -1.01794e-15 0)
(3 -8.86813e-16 0)
(3 -6.42033e-16 0)
(3 -4.75179e-16 0)
(3 -3.79469e-16 0)
(3 -9.09828e-16 0)
(3 -2.16735e-15 0)
(3 -2.24352e-15 0)
(3 -2.21212e-15 0)
(3 -2.05181e-15 0)
(3 -8.74875e-17 0)
(3 8.52018e-16 0)
(3 6.30526e-16 0)
(3 -5.32121e-17 0)
(3 -1.406e-16 0)
(3 -3.98159e-16 0)
(3 -1.97113e-16 0)
(3 1.52867e-16 0)
(3 -2.80738e-17 0)
(3 -4.56309e-16 0)
(3 -7.78463e-16 0)
(3 -1.23122e-15 0)
(3 -7.01111e-16 0)
(3 -9.05971e-16 0)
(3 -2.21423e-15 0)
(3 -2.57594e-15 0)
(3 -1.56137e-15 0)
(3 -1.64388e-15 0)
(3 -2.07253e-15 0)
(3 -2.11506e-15 0)
(3 -2.5387e-15 0)
(3 -2.36359e-15 0)
(3 -2.1411e-15 0)
(3 -1.55413e-15 0)
(3 -7.03834e-16 0)
(3 -2.62577e-16 0)
(3 1.17963e-16 0)
(3 2.19986e-18 0)
(3 5.54655e-17 0)
(3 3.78696e-18 0)
(3 1.54997e-16 0)
(3 6.68761e-16 0)
(3 4.62083e-16 0)
(3 5.11088e-16 0)
(3 6.12134e-16 0)
(3 -1.92057e-16 0)
(3 -3.15591e-16 0)
(3 -1.28621e-15 0)
(3 -1.91285e-15 0)
(3 -1.54699e-15 0)
(3 -1.02035e-15 0)
(3 -1.17113e-15 0)
(3 -3.09423e-15 0)
(3 -2.98353e-15 0)
(3 -2.06879e-15 0)
(3 -1.43678e-15 0)
(3 -5.18773e-16 0)
(3 -2.13906e-16 0)
(3 -1.62552e-16 0)
(3 -2.44557e-16 0)
(3 4.03312e-16 0)
(3 -1.51135e-16 0)
(3 7.90249e-17 0)
(3 7.08611e-16 0)
(3 3.97352e-16 0)
(3 -7.80191e-17 0)
(3 -2.35623e-16 0)
(3 1.60035e-17 0)
(3 4.66865e-16 0)
(3 1.63165e-16 0)
(3 -6.23234e-16 0)
(3 -3.23439e-16 0)
(3 -9.36598e-17 0)
(3 2.86955e-16 0)
(3 4.36638e-16 0)
(3 1.35312e-16 0)
(3 -9.37023e-16 0)
(3 -5.89291e-16 0)
(3 -2.88114e-16 0)
(3 -2.38811e-16 0)
(3 -3.97408e-16 0)
(3 -1.66122e-16 0)
(3 4.55374e-16 0)
(3 5.87934e-16 0)
(3 1.97241e-16 0)
(3 -1.07601e-16 0)
(3 5.29572e-16 0)
(3 7.43443e-16 0)
(3 8.49644e-16 0)
(3 -1.43779e-16 0)
(3 -3.01804e-16 0)
(3 -1.48236e-16 0)
(3 3.14698e-16 0)
(3 2.04036e-16 0)
(3 -4.44559e-16 0)
(3 1.51754e-16 0)
(3 6.91282e-16 0)
(3 2.36508e-16 0)
(3 3.74941e-16 0)
(3 8.62394e-16 0)
(3 9.90886e-16 0)
(3 1.99827e-16 0)
(3 -3.74196e-16 0)
(3 -9.002e-16 0)
(3 -8.9692e-16 0)
(3 -4.00961e-16 0)
(3 -1.41702e-16 0)
(3 4.19052e-17 0)
(3 3.4654e-16 0)
(3 3.0398e-16 0)
(3 -4.91014e-17 0)
(3 -1.9247e-16 0)
(3 -2.01166e-17 0)
(3 2.16276e-16 0)
(3 2.8984e-16 0)
(3 6.46711e-16 0)
(3 4.64831e-16 0)
(3 -4.43982e-17 0)
(3 -2.24277e-16 0)
(3 4.26336e-16 0)
(3 1.44727e-15 0)
(3 1.58828e-15 0)
(3 6.72076e-16 0)
(3 4.46752e-16 0)
(3 -2.82993e-17 0)
(3 -1.01934e-15 0)
(3 -1.64939e-15 0)
(3 -1.74945e-15 0)
(3 -1.00011e-15 0)
(3 6.59159e-16 0)
(3 1.10539e-15 0)
(3 1.7211e-15 0)
(3 8.69913e-16 0)
(3 1.29278e-16 0)
(3 -3.58047e-16 0)
(3 -3.19761e-16 0)
(3 -2.03414e-16 0)
(3 3.71343e-16 0)
(3 6.02026e-16 0)
(3 8.31809e-16 0)
(3 5.14243e-16 0)
(3 1.16942e-16 0)
(3 6.43095e-17 0)
(3 5.80951e-16 0)
(3 1.20351e-15 0)
(3 1.63068e-15 0)
(3 1.01379e-15 0)
(3 4.46566e-16 0)
(3 1.65882e-16 0)
(3 -9.83588e-17 0)
(3 -4.28596e-16 0)
(3 -5.55689e-16 0)
(3 2.32421e-16 0)
(3 7.73967e-16 0)
(3 1.44034e-15 0)
(3 6.99355e-16 0)
(3 2.79483e-16 0)
(1.56714 1.25124 0)
(1.83902 1.53182 0)
(2.44486 1.0387 0)
(2.72665 0.801893 0)
(2.74678 0.450936 0)
(2.75396 0.107529 0)
(2.69523 -0.245099 0)
(2.64078 -0.485155 0)
(2.5775 -0.364693 0)
(2.54376 -0.259338 0)
(2.49372 -0.288726 0)
(2.51987 -0.267555 0)
(2.54284 -0.19228 0)
(2.53087 -0.116202 0)
(2.51539 -0.0889529 0)
(2.50053 -0.0882523 0)
(2.52055 -0.0734485 0)
(2.53577 -0.0472942 0)
(2.54555 -0.0305827 0)
(2.54503 -0.0254041 0)
(2.55712 -0.0158078 0)
(2.5614 -0.0112559 0)
(2.55982 -0.00889943 0)
(2.55249 -0.00593862 0)
(2.555 -0.00526636 0)
(2.55631 -0.00334287 0)
(2.55601 -0.000389464 0)
(2.56118 3.79273e-05 0)
(2.56833 -0.00219348 0)
(2.58228 -0.00420672 0)
(2.59552 -0.00443457 0)
(2.6031 -0.00380704 0)
(2.60731 -0.00589324 0)
(2.60789 -0.00751934 0)
(2.61099 -0.0100638 0)
(2.61855 -0.0130385 0)
(2.62793 -0.0105607 0)
(2.63778 -0.00402775 0)
(2.64612 -0.000545907 0)
(2.65621 0.00150738 0)
(2.66653 0.00178599 0)
(2.67555 0.000746298 0)
(2.68446 -0.00106845 0)
(2.69386 -0.0020556 0)
(2.70282 -0.00256251 0)
(2.71015 -0.00296787 0)
(2.71746 -0.00484583 0)
(2.72824 -0.00579217 0)
(2.7417 -0.00550829 0)
(2.75438 -0.00473572 0)
(2.7649 -0.00368001 0)
(2.77558 -0.0041389 0)
(2.78446 -0.00503004 0)
(2.79578 -0.00540603 0)
(2.80808 -0.00532778 0)
(2.81968 -0.0044427 0)
(2.82758 -0.00422913 0)
(2.83224 -0.00513428 0)
(2.84119 -0.0045345 0)
(2.85399 -0.00252931 0)
(2.8671 -0.000186466 0)
(2.87889 0.00201076 0)
(2.88906 0.00370178 0)
(2.89887 0.00363659 0)
(2.90912 0.00186646 0)
(2.91638 0.0021455 0)
(2.92007 -0.00927448 0)
(2.91514 -0.0230158 0)
(2.90506 -0.0519127 0)
(2.89001 -0.095183 0)
(2.86448 -0.153384 0)
(2.82929 -0.210443 0)
(2.79539 -0.264131 0)
(2.77378 -0.311002 0)
(2.76448 -0.348241 0)
(2.76848 -0.384659 0)
(2.77421 -0.391201 0)
(2.76941 -0.377342 0)
(2.76364 -0.348592 0)
(2.75995 -0.320409 0)
(2.75478 -0.302154 0)
(2.75295 -0.276949 0)
(2.75632 -0.247964 0)
(2.77052 -0.217297 0)
(2.7868 -0.175505 0)
(2.78425 -0.156784 0)
(2.7766 -0.131354 0)
(2.76789 -0.0974077 0)
(2.76154 -0.0693526 0)
(2.76062 -0.0481434 0)
(2.76466 -0.0255041 0)
(2.77919 0.00326418 0)
(2.79717 0.02366 0)
(2.81367 0.0315931 0)
(2.82843 0.0321581 0)
(2.8492 0.0301818 0)
(1.82068 1.09013 0)
(2.30616 0.962135 0)
(2.66532 0.433899 0)
(2.7849 -0.0214748 0)
(2.83219 -0.141697 0)
(2.87456 -0.395238 0)
(2.89905 -0.55686 0)
(2.87877 -0.725475 0)
(2.83264 -0.668726 0)
(2.75063 -0.512656 0)
(2.6912 -0.373693 0)
(2.65302 -0.309535 0)
(2.61253 -0.230242 0)
(2.57715 -0.131248 0)
(2.56257 -0.0830113 0)
(2.55893 -0.0818115 0)
(2.57207 -0.0691792 0)
(2.568 -0.0260598 0)
(2.56639 -0.00292076 0)
(2.56302 0.00436904 0)
(2.56689 0.00903175 0)
(2.56236 0.0133826 0)
(2.55372 0.012284 0)
(2.55015 -0.000564824 0)
(2.55875 -0.0133133 0)
(2.56448 -0.0133755 0)
(2.56781 -0.00542308 0)
(2.57362 -0.000730954 0)
(2.5822 -0.0053325 0)
(2.59622 -0.00800075 0)
(2.61181 -0.00540013 0)
(2.62112 -0.00026722 0)
(2.62528 0.000960613 0)
(2.62826 -0.00208459 0)
(2.63284 -0.00653548 0)
(2.64015 -0.0104206 0)
(2.64526 -0.0105003 0)
(2.65233 -0.00533847 0)
(2.66158 -0.000403374 0)
(2.67048 0.00456767 0)
(2.67994 0.00735067 0)
(2.68872 0.00790019 0)
(2.69599 0.00801176 0)
(2.7021 0.00514086 0)
(2.71007 -0.00140939 0)
(2.7183 -0.00977945 0)
(2.72639 -0.0146632 0)
(2.73878 -0.0160737 0)
(2.75265 -0.0156854 0)
(2.76542 -0.013246 0)
(2.77494 -0.00847624 0)
(2.78455 -0.00556616 0)
(2.79502 -0.00601176 0)
(2.80665 -0.00695821 0)
(2.81857 -0.00857989 0)
(2.82983 -0.011376 0)
(2.83862 -0.0148201 0)
(2.84476 -0.016514 0)
(2.85259 -0.0124698 0)
(2.86377 -0.0054816 0)
(2.87563 0.00209274 0)
(2.88678 0.0119959 0)
(2.89672 0.0111984 0)
(2.90452 0.00206164 0)
(2.90991 -0.0250517 0)
(2.90648 -0.0810548 0)
(2.88946 -0.173414 0)
(2.87325 -0.275831 0)
(2.85888 -0.379632 0)
(2.84886 -0.483212 0)
(2.84714 -0.54146 0)
(2.83714 -0.611638 0)
(2.84181 -0.651185 0)
(2.8361 -0.680611 0)
(2.831 -0.671017 0)
(2.823 -0.643604 0)
(2.80494 -0.60245 0)
(2.79164 -0.548333 0)
(2.78408 -0.490462 0)
(2.7841 -0.414588 0)
(2.79198 -0.334229 0)
(2.8051 -0.260229 0)
(2.80236 -0.172778 0)
(2.80725 -0.0938698 0)
(2.81851 -0.0372189 0)
(2.81425 0.00164475 0)
(2.80419 0.0199781 0)
(2.80574 0.0345669 0)
(2.80578 0.048136 0)
(2.80392 0.0577032 0)
(2.80555 0.0743071 0)
(2.81405 0.0981176 0)
(2.82793 0.120351 0)
(2.84668 0.13268 0)
(2.8609 0.130047 0)
(2.88352 0.119479 0)
(1.72034 1.05289 0)
(2.17928 0.817958 0)
(2.35973 0.710683 0)
(2.53458 0.471697 0)
(2.70431 0.218432 0)
(2.80657 0.0193844 0)
(2.85887 -0.248177 0)
(2.84243 -0.322891 0)
(2.8492 -0.317552 0)
(2.8597 -0.353023 0)
(2.85828 -0.441106 0)
(2.84952 -0.49508 0)
(2.79355 -0.452191 0)
(2.73762 -0.343067 0)
(2.72266 -0.260458 0)
(2.71274 -0.226705 0)
(2.68614 -0.194283 0)
(2.65104 -0.126339 0)
(2.63484 -0.0650201 0)
(2.62257 -0.0520403 0)
(2.61781 -0.0345147 0)
(2.60422 -0.00159186 0)
(2.60134 0.0273454 0)
(2.59291 0.0231859 0)
(2.59295 0.00081829 0)
(2.59754 -0.0050495 0)
(2.60147 -0.00507272 0)
(2.60658 -0.00916198 0)
(2.61727 -0.016452 0)
(2.62607 -0.0289921 0)
(2.63898 -0.0300988 0)
(2.65187 -0.0223215 0)
(2.65716 -0.0147417 0)
(2.6596 -0.0137374 0)
(2.66264 -0.0147324 0)
(2.66612 -0.0128672 0)
(2.66779 2.8698e-05 0)
(2.67372 0.00560227 0)
(2.68379 0.00391496 0)
(2.6942 -0.00257985 0)
(2.70384 -0.00801719 0)
(2.71364 -0.00856531 0)
(2.72187 -0.00709627 0)
(2.72639 -0.00348954 0)
(2.72748 0.00141944 0)
(2.73403 0.00122218 0)
(2.7425 -0.00266019 0)
(2.75478 -0.00824152 0)
(2.76854 -0.00944728 0)
(2.78088 -0.00751572 0)
(2.79133 -0.00377818 0)
(2.79992 -0.00411037 0)
(2.80765 -0.00779696 0)
(2.81601 -0.00984956 0)
(2.82567 -0.00702344 0)
(2.83474 -0.00315997 0)
(2.84389 -0.00379561 0)
(2.85293 -0.00753642 0)
(2.86199 -0.00899074 0)
(2.8742 -0.00307598 0)
(2.88557 -0.000492762 0)
(2.88569 -0.0141185 0)
(2.8831 -0.049239 0)
(2.86843 -0.119893 0)
(2.84021 -0.231456 0)
(2.80664 -0.365393 0)
(2.78461 -0.479905 0)
(2.78515 -0.566114 0)
(2.77429 -0.64894 0)
(2.79873 -0.660108 0)
(2.77664 -0.692907 0)
(2.78923 -0.71109 0)
(2.79646 -0.712235 0)
(2.80709 -0.711364 0)
(2.81374 -0.707891 0)
(2.81569 -0.694263 0)
(2.81919 -0.67894 0)
(2.83211 -0.664698 0)
(2.841 -0.646739 0)
(2.84922 -0.627623 0)
(2.85965 -0.603959 0)
(2.86482 -0.570541 0)
(2.86033 -0.519437 0)
(2.86538 -0.463359 0)
(2.87619 -0.419914 0)
(2.8872 -0.373146 0)
(2.89796 -0.318443 0)
(2.90918 -0.268228 0)
(2.92104 -0.22328 0)
(2.9236 -0.170573 0)
(2.91592 -0.114379 0)
(2.9118 -0.0595918 0)
(2.91546 -0.0152918 0)
(2.92344 0.0162858 0)
(2.9305 0.0309531 0)
(2.94883 0.0376547 0)
(1.66011 0.99965 0)
(1.92639 0.925727 0)
(2.16025 0.779097 0)
(2.41537 0.486431 0)
(2.56657 0.300287 0)
(2.59861 0.252587 0)
(2.68335 0.0674705 0)
(2.75541 -0.123517 0)
(2.77749 -0.216264 0)
(2.82897 -0.356432 0)
(2.84866 -0.448309 0)
(2.86989 -0.480869 0)
(2.86386 -0.480226 0)
(2.83852 -0.457643 0)
(2.82304 -0.411879 0)
(2.81095 -0.372974 0)
(2.77728 -0.340814 0)
(2.74691 -0.28636 0)
(2.72517 -0.211386 0)
(2.71042 -0.171145 0)
(2.70772 -0.147036 0)
(2.68133 -0.090553 0)
(2.67247 -0.0398476 0)
(2.65645 -0.0387031 0)
(2.63899 -0.0337397 0)
(2.63991 -0.0125543 0)
(2.63962 0.0195288 0)
(2.64255 0.0279678 0)
(2.64517 0.0231723 0)
(2.65057 0.00799669 0)
(2.65984 -0.00561235 0)
(2.67184 -0.00599952 0)
(2.67979 -0.00948851 0)
(2.68568 -0.0211371 0)
(2.68704 -0.0317568 0)
(2.68774 -0.0341787 0)
(2.69082 -0.0242986 0)
(2.69728 -0.00885223 0)
(2.7081 -0.000632808 0)
(2.7193 0.00331783 0)
(2.72691 0.00330713 0)
(2.73543 0.0025966 0)
(2.7433 0.00179434 0)
(2.7475 0.00121037 0)
(2.74875 0.00295261 0)
(2.75342 0.00401656 0)
(2.76233 0.00102134 0)
(2.77226 -0.00494125 0)
(2.78338 -0.0107309 0)
(2.79357 -0.010433 0)
(2.80449 -0.00660078 0)
(2.81323 -0.00590586 0)
(2.81775 -0.010537 0)
(2.81946 -0.0125437 0)
(2.82537 -0.00534608 0)
(2.83627 0.00354207 0)
(2.84512 0.00888717 0)
(2.85671 0.00369455 0)
(2.85982 -0.0185395 0)
(2.862 -0.0495425 0)
(2.84893 -0.107768 0)
(2.82588 -0.196162 0)
(2.79088 -0.310697 0)
(2.75483 -0.433095 0)
(2.72154 -0.532843 0)
(2.71611 -0.600629 0)
(2.70241 -0.670228 0)
(2.72198 -0.678789 0)
(2.72878 -0.697728 0)
(2.74025 -0.695259 0)
(2.75256 -0.690936 0)
(2.76726 -0.684113 0)
(2.78307 -0.682356 0)
(2.79599 -0.678465 0)
(2.79886 -0.667941 0)
(2.79457 -0.652554 0)
(2.80715 -0.640802 0)
(2.8218 -0.635365 0)
(2.83547 -0.63821 0)
(2.84741 -0.641104 0)
(2.8539 -0.637247 0)
(2.86353 -0.621889 0)
(2.86751 -0.606306 0)
(2.87499 -0.577867 0)
(2.87517 -0.558177 0)
(2.88536 -0.541485 0)
(2.89165 -0.521394 0)
(2.89998 -0.495321 0)
(2.90805 -0.459298 0)
(2.91296 -0.408307 0)
(2.91473 -0.349778 0)
(2.91444 -0.285982 0)
(2.91817 -0.227128 0)
(2.92915 -0.193432 0)
(2.931 -0.163164 0)
(2.96678 -0.140495 0)
(1.59546 0.958106 0)
(1.80607 0.910398 0)
(2.05134 0.766156 0)
(2.24734 0.576519 0)
(2.32649 0.519849 0)
(2.44571 0.37405 0)
(2.56564 0.131866 0)
(2.62812 0.0687803 0)
(2.65098 0.056516 0)
(2.7137 -0.0875874 0)
(2.74041 -0.196974 0)
(2.75829 -0.206174 0)
(2.79385 -0.311524 0)
(2.80335 -0.356425 0)
(2.82085 -0.36278 0)
(2.8267 -0.366757 0)
(2.82368 -0.390577 0)
(2.81652 -0.385377 0)
(2.79856 -0.34146 0)
(2.78136 -0.289957 0)
(2.76716 -0.256147 0)
(2.74644 -0.208051 0)
(2.7302 -0.138528 0)
(2.7163 -0.119617 0)
(2.70156 -0.11563 0)
(2.67619 -0.0818052 0)
(2.6679 -0.0306054 0)
(2.672 0.00112246 0)
(2.66454 3.51451e-05 0)
(2.66484 -0.00416331 0)
(2.66777 -0.00908657 0)
(2.67499 -0.00122999 0)
(2.67883 0.00566786 0)
(2.6887 -0.00330257 0)
(2.6971 -0.01858 0)
(2.70157 -0.0230983 0)
(2.7079 -0.0166151 0)
(2.71421 -0.0106347 0)
(2.72432 -0.00879936 0)
(2.7355 -0.00810242 0)
(2.7422 -0.00635719 0)
(2.7483 -0.00334177 0)
(2.75339 -0.000383159 0)
(2.75719 0.00227656 0)
(2.7618 0.00683937 0)
(2.76683 0.00958534 0)
(2.77398 0.00796037 0)
(2.78124 0.00570332 0)
(2.78771 0.00541108 0)
(2.79603 0.00600611 0)
(2.80798 0.00828179 0)
(2.81854 0.00882671 0)
(2.82459 0.00187794 0)
(2.8229 -0.0101448 0)
(2.8196 -0.0118481 0)
(2.83206 -0.0155293 0)
(2.83435 -0.0269427 0)
(2.82843 -0.0666342 0)
(2.80736 -0.142012 0)
(2.77428 -0.266569 0)
(2.72842 -0.408293 0)
(2.70971 -0.506023 0)
(2.66642 -0.592732 0)
(2.67198 -0.61963 0)
(2.6535 -0.666311 0)
(2.66669 -0.684047 0)
(2.6764 -0.685807 0)
(2.68711 -0.689222 0)
(2.69764 -0.689058 0)
(2.71699 -0.681321 0)
(2.73754 -0.670468 0)
(2.75674 -0.666316 0)
(2.77416 -0.663475 0)
(2.78969 -0.652938 0)
(2.79579 -0.638712 0)
(2.79108 -0.625678 0)
(2.79734 -0.617369 0)
(2.8115 -0.613508 0)
(2.82913 -0.611841 0)
(2.84486 -0.60854 0)
(2.85632 -0.603312 0)
(2.86491 -0.600727 0)
(2.87521 -0.593776 0)
(2.88143 -0.573885 0)
(2.88418 -0.562834 0)
(2.88866 -0.559778 0)
(2.90145 -0.552791 0)
(2.90933 -0.544029 0)
(2.91423 -0.53726 0)
(2.91934 -0.528305 0)
(2.92269 -0.508441 0)
(2.91862 -0.477963 0)
(2.91669 -0.442396 0)
(2.92426 -0.424381 0)
(2.92881 -0.408019 0)
(2.95302 -0.381901 0)
(1.55552 0.934526 0)
(1.74028 0.886536 0)
(1.94242 0.771913 0)
(2.0979 0.658652 0)