/*--------------------------------*- C++ -*----------------------------------*\
  =========                 |
  \\      /  F ield         | OpenFOAM: The Open Source CFD Toolbox
   \\    /   O peration     | Website:  https://openfoam.org
    \\  /    A nd           | Version:  7
     \\/     M anipulation  |
\*---------------------------------------------------------------------------*/
FoamFile
{
    version     2.0;
    format      ascii;
    class       volScalarField;
    location    "3.8";
    object      rho;
}
// * * * * * * * * * * * * * * * * * * * * * * * * * * * * * * * * * * * * * //

dimensions      [1 -3 0 0 0 0 0];

internalField   nonuniform List<scalar> 
4032
(
1.40001
1.40001
1.40001
1.40001
1.40001
1.40001
1.40001
1.40001
1.40001
1.40001
1.40001
1.55159
4.34138
5.47104
5.5164
5.58858
5.65434
5.71814
5.77796
5.8317
5.87711
5.91091
5.93495
5.95226
1.40001
1.40001
1.40001
1.40001
1.40001
1.40001
1.40001
1.40001
1.40001
1.40001
1.40001
1.52961
4.27255
5.45784
5.51078
5.58062
5.64494
5.70722
5.76574
5.81809
5.86183
5.89339
5.91445
5.92967
1.40001
1.40001
1.40001
1.40001
1.40001
1.40001
1.40001
1.40001
1.40001
1.40001
1.40001
1.47296
4.15861
5.4465
5.49356
5.5621
5.62619
5.68723
5.74402
5.79449
5.83691
5.86802
5.8884
5.90442
1.40001
1.40001
1.40001
1.40001
1.40001
1.40001
1.40001
1.40001
1.40001
1.40001
1.40001
1.40641
3.96317
5.424
5.47141
5.53495
5.59639
5.6541
5.70853
5.75778
5.7997
5.82901
5.84547
5.85655
1.40001
1.40001
1.40001
1.40001
1.40001
1.40001
1.40001
1.40001
1.40001
1.40001
1.40001
1.40008
3.67859
5.36484
5.43061
5.49036
5.55073
5.60558
5.65613
5.69947
5.73407
5.75851
5.77282
5.79086
1.40001
1.40001
1.40001
1.40001
1.40001
1.40001
1.40001
1.40001
1.40001
1.40001
1.40001
1.4
3.31766
5.27763
5.39248
5.44692
5.50241
5.54995
5.59267
5.62957
5.65962
5.68323
5.69281
5.68218
1.40001
1.40001
1.40001
1.40001
1.40001
1.40001
1.40001
1.40001
1.40001
1.40001
1.40001
1.40001
2.89831
5.15442
5.36923
5.4138
5.45788
5.49168
5.51819
5.53846
5.54602
5.53448
5.51676
5.50827
1.40001
1.40001
1.40001
1.40001
1.40001
1.40001
1.40001
1.40001
1.40001
1.40001
1.40001
1.40001
2.4229
4.98523
5.38201
5.39925
5.42278
5.43798
5.44329
5.4412
5.42228
5.39228
5.33715
5.30866
1.40001
1.40001
1.40001
1.40001
1.40001
1.40001
1.40001
1.40001
1.40001
1.40001
1.40001
1.40001
1.91175
4.74155
5.41539
5.38459
5.3948
5.38967
5.37127
5.33985
5.27919
5.17567
4.86105
4.00186
1.40001
1.40001
1.40001
1.40001
1.40001
1.40001
1.40001
1.40001
1.40001
1.40001
1.40001
1.40001
1.47437
4.25753
5.40928
5.35774
5.34625
5.32362
5.28469
5.22302
5.1203
4.93063
4.60175
3.70936
1.40001
1.40001
1.40001
1.40001
1.40001
1.40001
1.40001
1.40001
1.40001
1.40001
1.40001
1.40001
1.40063
3.52339
5.17235
5.25116
5.26634
5.23914
5.18958
5.10334
4.97144
4.73738
4.3922
3.56003
1.40001
1.40001
1.40001
1.40001
1.40001
1.40001
1.40001
1.40001
1.40001
1.40001
1.40001
1.40001
1.39999
2.70035
4.96366
5.20885
5.20919
5.17974
5.11819
5.00957
4.849
4.60306
4.22164
3.54534
1.40001
1.40001
1.40001
1.40001
1.40001
1.40001
1.40001
1.40001
1.40001
1.40001
1.40001
1.40001
1.4
1.89929
4.69427
5.23079
5.16552
5.10499
5.02843
4.90846
4.73379
4.49372
4.10438
3.5703
1.40001
1.40001
1.40001
1.40001
1.40001
1.40001
1.40001
1.40001
1.40001
1.40001
1.40001
1.40001
1.4
1.45285
3.94119
5.09598
5.07074
5.02088
4.94143
4.81966
4.64858
4.40127
4.04331
3.61837
1.40001
1.40001
1.40001
1.40001
1.40001
1.40001
1.40001
1.40001
1.40001
1.40001
1.40001
1.40001
1.40001
1.40009
2.84356
4.90547
5.04674
4.99261
4.8986
4.7567
4.58204
4.33
4.01678
3.66256
1.40001
1.40001
1.40001
1.40001
1.40001
1.40001
1.40001
1.40001
1.40001
1.40001
1.40001
1.40001
1.40001
1.4
1.76942
4.63441
5.10359
4.96623
4.84122
4.68958
4.50755
4.27849
4.01169
3.70918
1.40001
1.40001
1.40001
1.40001
1.40001
1.40001
1.40001
1.40001
1.40001
1.40001
1.40001
1.40001
1.40001
1.4
1.42047
3.69345
4.93621
4.85585
4.76257
4.62776
4.4566
4.25059
4.01285
3.74653
1.40001
1.40001
1.40001
1.40001
1.40001
1.40001
1.40001
1.40001
1.40001
1.40001
1.40001
1.40001
1.40001
1.4
1.39992
2.40505
4.7446
4.84109
4.75804
4.62271
4.45108
4.2502
4.0224
3.78403
1.40001
1.40001
1.40001
1.40001
1.40001
1.40001
1.40001
1.40001
1.40001
1.40001
1.40001
1.40001
1.40001
1.40001
1.39998
1.55791
3.965
4.84428
4.74506
4.60883
4.44158
4.25055
4.03836
3.82172
1.40001
1.40001
1.40001
1.40001
1.40001
1.40001
1.40001
1.40001
1.40001
1.40001
1.40001
1.40001
1.40001
1.40001
1.4
1.40256
2.63104
4.65128
4.71923
4.59202
4.43699
4.25697
4.06311
3.8618
1.40001
1.40001
1.40001
1.40001
1.40001
1.40001
1.40001
1.40001
1.40001
1.40001
1.40001
1.40001
1.40001
1.40001
1.4
1.4
1.62713
3.95045
4.75166
4.60923
4.46046
4.28307
4.09712
3.90237
1.40001
1.40001
1.40001
1.40001
1.40001
1.40001
1.40001
1.40001
1.40001
1.40001
1.40001
1.40001
1.40001
1.40001
1.40001
1.4
1.40595
2.53345
4.54453
4.61968
4.47391
4.30168
4.12117
3.93435
1.40001
1.40001
1.40001
1.40001
1.40001
1.40001
1.40001
1.40001
1.40001
1.40001
1.40001
1.40001
1.40001
1.40001
1.40001
1.40001
1.40002
1.5859
3.7362
4.67336
4.50987
4.33938
4.16302
3.98324
1.40001
1.40001
1.40001
1.40001
1.40001
1.40001
1.40001
1.40001
1.40001
1.40001
1.40001
1.40001
1.40001
1.40001
1.40001
1.40001
1.40001
1.4042
2.26788
4.31655
4.52786
4.37512
4.20896
4.03596
1.40001
1.40001
1.40001
1.40001
1.40001
1.40001
1.40001
1.40001
1.40001
1.40001
1.40001
1.40001
1.40001
1.40001
1.40001
1.40001
1.40001
1.40002
1.50072
3.23811
4.51798
4.4364
4.27684
4.1084
1.40001
1.40001
1.40001
1.40001
1.40001
1.40001
1.40001
1.40001
1.40001
1.40001
1.40001
1.40001
1.40001
1.40001
1.40001
1.40001
1.40001
1.40001
1.40162
1.90276
3.94762
4.47746
4.32999
4.16291
1.40001
1.40001
1.40001
1.40001
1.40001
1.40001
1.40001
1.40001
1.40001
1.40001
1.40001
1.40001
1.40001
1.40001
1.40001
1.40001
1.40001
1.40001
1.40001
1.43239
2.57431
4.24515
4.36863
4.22559
1.40001
1.40001
1.40001
1.40001
1.40001
1.40001
1.40001
1.40001
1.40001
1.40001
1.40001
1.40001
1.40001
1.40001
1.40001
1.40001
1.40001
1.40001
1.40001
1.40038
1.58685
3.28874
4.33403
4.29333
1.40001
1.40001
1.40001
1.40001
1.40001
1.40001
1.40001
1.40001
1.40001
1.40001
1.40001
1.40001
1.40001
1.40001
1.40001
1.40001
1.40001
1.40001
1.40001
1.40001
1.40533
1.94533
3.76694
4.30702
1.40001
1.40001
1.40001
1.40001
1.40001
1.40001
1.40001
1.40001
1.40001
1.40001
1.40001
1.40001
1.40001
1.40001
1.40001
1.40001
1.40001
1.40001
1.40001
1.40001
1.40004
1.43904
2.41253
4.02764
1.40001
1.40001
1.40001
1.40001
1.40001
1.40001
1.40001
1.40001
1.40001
1.40001
1.40001
1.40001
1.40001
1.40001
1.40001
1.40001
1.40001
1.40001
1.40001
1.40001
1.40001
1.40056
1.53781
2.90519
1.40001
1.40001
1.40001
1.40001
1.40001
1.40001
1.40001
1.40001
1.40001
1.40001
1.40001
1.40001
1.40001
1.40001
1.40001
1.40001
1.40001
1.40001
1.40001
1.40001
1.40001
1.40001
1.40365
1.72426
1.40001
1.40001
1.40001
1.40001
1.40001
1.40001
1.40001
1.40001
1.40001
1.40001
1.40001
1.40001
1.40001
1.40001
1.40001
1.40001
1.40001
1.40001
1.40001
1.40001
1.40001
1.40001
1.40003
1.41603
1.40001
1.40001
1.40001
1.40001
1.40001
1.40001
1.40001
1.40001
1.40001
1.40001
1.40001
1.40001
1.40001
1.40001
1.40001
1.40001
1.40001
1.40001
1.40001
1.40001
1.40001
1.40001
1.40001
1.4002
1.40001
1.40001
1.40001
1.40001
1.40001
1.40001
1.40001
1.40001
1.40001
1.40001
1.40001
1.40001
1.40001
1.40001
1.40001
1.40001
1.40001
1.40001
1.40001
1.40001
1.40001
1.40001
1.40001
1.40001
1.40001
1.40001
1.40001
1.40001
1.40001
1.40001
1.40001
1.40001
1.40001
1.40001
1.40001
1.40001
1.40001
1.40001
1.40001
1.40001
1.40001
1.40001
1.40001
1.40001
1.40001
1.40001
1.40001
1.40001
1.40001
1.40001
1.40001
1.40001
1.40001
1.40001
1.40001
1.40001
1.40001
1.40001
1.40001
1.40001
1.40001
1.40001
1.40001
1.40001
1.40001
1.40001
1.40001
1.40001
1.40001
1.40001
1.40001
1.40001
1.40001
1.40001
1.40001
1.40001
1.40001
1.40001
1.40001
1.40001
1.40001
1.40001
1.40001
1.40001
1.40001
1.40001
1.40001
1.40001
1.40001
1.40001
1.40001
1.40001
1.40001
1.40001
1.40001
1.40001
1.40001
1.40001
1.40001
1.40001
1.40001
1.40001
1.40001
1.40001
1.40001
1.40001
1.40001
1.40001
1.40001
1.40001
1.40001
1.40001
1.40001
1.40001
1.40001
1.40001
1.40001
1.40001
1.40001
1.40001
1.40001
1.40001
1.40001
1.40001
1.40001
1.40001
1.40001
1.40001
1.40001
1.40001
1.40001
1.40001
1.40001
1.40001
1.40001
1.40001
1.40001
1.40001
1.40001
1.40001
1.40001
1.40001
1.40001
1.40001
1.29563
0.507891
0.28516
0.219531
0.232031
0.264819
0.341047
0.459605
0.61118
0.727044
0.803954
0.854936
0.887118
0.922019
0.972466
1.02193
1.03528
1.03355
1.03355
1.03593
1.04156
1.04434
1.0545
1.08062
1.09581
1.09816
1.09486
1.08532
2.02069
2.79312
2.88555
2.92838
2.95145
2.96043
2.96506
2.96198
2.95027
2.93081
2.91511
2.9076
2.90507
2.89977
2.88423
2.85826
2.83018
2.80848
2.79615
2.78913
2.77634
2.74712
2.70879
2.67294
2.64566
2.63091
2.62471
2.60659
2.57172
2.53199
2.49384
2.46385
2.44435
2.43439
2.42009
2.39502
2.36353
2.3213
2.27701
2.24649
2.22385
2.20807
2.19906
2.18639
2.16546
2.14098
2.1129
2.08606
2.06466
2.04622
2.03097
2.01459
1.99509
1.96951
1.93253
1.89471
1.87049
1.85477
1.84251
1.83461
1.82179
1.80369
1.7769
1.73975
1.70795
1.68871
1.67787
1.66138
2.01478
1.21864
0.866175
0.698977
0.621199
0.574559
0.538951
0.535803
0.560369
0.617595
0.659063
0.708949
0.779582
0.841781
0.904006
0.971158
0.992469
0.999943
1.01648
1.04513
1.07293
1.08267
1.08883
1.09413
1.09737
1.10455
1.10611
1.10543
1.94968
2.84188
2.97957
2.99355
2.99199
2.9868
2.98595
2.98882
2.99578
2.98865
2.9611
2.93102
2.91011
2.90237
2.90157
2.89484
2.8693
2.83417
2.80261
2.77987
2.76941
2.76216
2.74002
2.703
2.66567
2.63417
2.60926
2.59445
2.58062
2.56055
2.53216
2.49865
2.46411
2.4336
2.40793
2.38713
2.36409
2.33863
2.31203
2.28051
2.24888
2.2231
2.20198
2.18187
2.16469
2.14479
2.12248
2.09723
2.0697
2.04516
2.02566
2.00957
1.99455
1.97414
1.94867
1.9182
1.88565
1.8605
1.84411
1.82914
1.81524
1.8002
1.78026
1.75509
1.72819
1.70205
1.68346
1.66105
2.49909
1.84681
1.39714
1.09798
0.952369
0.862268
0.775981
0.685433
0.637984
0.650581
0.684058
0.723138
0.78186
0.840797
0.876064
0.926235
0.974149
0.998887
1.03302
1.08054
1.14235
1.16705
1.16459
1.15288
1.15105
1.14665
1.13922
1.14867
1.85267
3.06705
3.2155
3.12518
3.10633
3.10064
3.09121
3.08473
3.09498
3.11637
3.115
3.08036
3.03219
2.99484
2.97373
2.97157
2.97492
2.95517
2.91667
2.87491
2.83831
2.81362
2.80106
2.78554
2.75692
2.71694
2.66746
2.62593
2.60089
2.5896
2.58547
2.56946
2.54002
2.49712
2.44028
2.39273
2.36596
2.35158
2.34705
2.33421
2.3114
2.27969
2.2364
2.19889
2.17619
2.16042
2.1457
2.12675
2.10349
2.07264
2.03694
2.00822
1.98808
1.97429
1.96304
1.94744
1.92537
1.89243
1.85695
1.83255
1.81361
1.79506
1.78074
1.76878
1.75447
1.73368
1.70551
1.66663
2.82756
2.27805
1.86398
1.53736
1.27622
1.14665
1.07517
0.986271
0.866032
0.802971
0.791693
0.784102
0.784262
0.793122
0.802964
0.821067
0.868441
0.922588
0.972637
1.03254
1.10679
1.15122
1.16048
1.16443
1.18067
1.18483
1.18868
1.23559
1.72654
3.28426
3.55211
3.37995
3.29977
3.27666
3.2506
3.23106
3.22452
3.23124
3.24192
3.22276
3.18652
3.12991
3.08862
3.0648
3.05723
3.05517
3.03311
3.00017
2.95426
2.90504
2.87347
2.8509
2.83199
2.80454
2.77163
2.72946
2.68655
2.65973
2.64054
2.62341
2.59871
2.56521
2.52222
2.47451
2.43562
2.41274
2.39835
2.38391
2.36332
2.33721
2.30114
2.25918
2.22153
2.1952
2.17592
2.15804
2.13896
2.11521
2.08123
2.04094
2.0136
1.99812
1.98493
1.97291
1.95786
1.93588
1.89846
1.85527
1.82684
1.81082
1.7991
1.7898
1.77923
1.7644
1.74401
1.69054
3.04022
2.58023
2.20578
1.9083
1.62299
1.40247
1.30883
1.23372
1.13805
1.01171
0.903533
0.864903
0.837636
0.835955
0.835232
0.836923
0.841202
0.848374
0.86258
0.904145
0.982199
1.06624
1.11457
1.13645
1.16011
1.17041
1.2339
1.4949
1.85583
2.88505
3.6016
3.62521
3.50513
3.44919
3.38747
3.35237
3.33755
3.32641
3.32886
3.32496
3.30203
3.26129
3.2008
3.15918
3.13321
3.1213
3.11515
3.09288
3.06136
3.011
2.9543
2.91902
2.89224
2.87098
2.85178
2.82746
2.79429
2.74857
2.70528
2.67147
2.63931
2.60787
2.58075
2.5564
2.5279
2.49309
2.46041
2.4335
2.40723
2.37944
2.3505
2.31967
2.28581
2.25188
2.22252
2.19711
2.17302
2.14802
2.11995
2.08923
2.06126
2.03911
2.02144
2.005
1.98742
1.96539
1.93408
1.89479
1.86285
1.84487
1.83222
1.81983
1.80674
1.79124
1.77141
1.72033
3.20444
2.81107
2.4518
2.18264
1.94175
1.70738
1.51019
1.39887
1.33286
1.25088
1.14808
1.02316
0.954713
0.950648
0.943585
0.912029
0.892272
0.878766
0.863246
0.860985
0.8755
0.914992
0.966178
1.01434
1.06782
1.14407
1.41368
1.88985
2.07757
2.32222
3.00219
3.47337
3.58525
3.58893
3.52412
3.44592
3.3869
3.36087
3.35495
3.36516
3.35388
3.32378
3.27195
3.20883
3.17336
3.15338
3.14932
3.13856
3.11305
3.0739
3.01324
2.96205
2.93513
2.91819
2.90546
2.88347
2.85382
2.80429
2.74228
2.69768
2.67044
2.65015
2.63451
2.61726
2.59282
2.55554
2.50704
2.46674
2.43763
2.41273
2.38953
2.3653
2.33582
2.29884
2.26172
2.23267
2.20868
2.186
2.16271
2.13654
2.1063
2.07767
2.05523
2.03492
2.01367
1.99045
1.96584
1.94082
1.91404
1.88651
1.86537
1.84941
1.83309
1.81238
1.78822
1.746
3.31528
2.98104
2.65871
2.38281
2.15444
1.95624
1.77861
1.60331
1.44945
1.38726
1.33059
1.24236
1.1301
1.04882
1.02782
0.999537
0.954496
0.932626
0.917539
0.893743
0.880131
0.879091
0.885848
0.905244
0.960052
1.22078
1.66179
2.01862
2.10417
2.10941
2.27885
2.85131
3.38536
3.58321
3.58924
3.52279
3.43322
3.37856
3.35955
3.36292
3.35972
3.33459
3.30101
3.25295
3.20593
3.1807
3.16858
3.15493
3.12762
3.09761
3.05542
3.00256
2.96806
2.94682
2.92361
2.89601
2.86365
2.82256
2.77116
2.72474
2.6971
2.67818
2.66275
2.64282
2.61815
2.58372
2.53502
2.48737
2.45636
2.43408
2.41337
2.39185
2.36507
2.32788
2.28616
2.25569
2.23543
2.21723
2.19756
2.17272
2.13775
2.0979
2.06804
2.04584
2.02514
2.00596
1.98989
1.97512
1.95683
1.92923
1.89497
1.86759
1.84608
1.82203
1.80053
1.77041
3.40815
3.10678
2.82076
2.5731
2.33479
2.1155
1.96599
1.81608
1.65332
1.51062
1.43206
1.37958
1.31203
1.21747
1.13274
1.10377
1.06822
1.02813
1.00435
0.979357
0.93307
0.903172
0.90585
0.947325
1.13329
1.48839
1.75873
1.89418
1.9322
1.93718
1.9623
2.13693
2.67585
3.27556
3.53174
3.53718
3.47933
3.41069
3.36052
3.33593
3.31692
3.30986
3.30126
3.27852
3.2422
3.19431
3.15857
3.13302
3.11514
3.09829
3.07273
3.03541
2.98195
2.93446
2.90402
2.87816
2.8536
2.83023
2.80395
2.76793
2.72178
2.6862
2.66247
2.63989
2.61529
2.58719
2.55242
2.50965
2.4714
2.44625
2.42493
2.40212
2.37496
2.3396
2.29957
2.26922
2.24937
2.23246
2.21472
2.19284
2.15888
2.11039
2.06907
2.04518
2.02942
2.01612
2.00542
1.99461
1.9813
1.95998
1.92208
1.87743
1.84605
1.82374
1.811
1.78927
3.48055
3.20671
2.94886
2.7189
2.49588
2.28499
2.10817
1.9618
1.83221
1.70281
1.5709
1.46813
1.42405
1.37335
1.28284
1.19727
1.16953
1.13522
1.08714
1.04237
1.00468
0.967948
0.992377
1.16642
1.47066
1.75079
1.80374
1.79887
1.79434
1.79518
1.80104
1.8162
1.94507
2.41717
3.03494
3.3837
3.46789
3.45569
3.39437
3.32014
3.28238
3.26525
3.2717
3.27945
3.25648
3.21237
3.15199
3.11597
3.09486
3.08007
3.06573
3.03842
2.99248
2.93064
2.89063
2.86622
2.85029
2.83814
2.81596
2.78609
2.7421
2.69104
2.65205
2.62335
2.6006
2.58028
2.55895
2.52907
2.48967
2.45052
2.42049
2.39542
2.37018
2.34218
2.31053
2.28289
2.26335
2.2439
2.2227
2.19825
2.16678
2.12578
2.08327
2.05528
2.04119
2.03345
2.02785
2.01431
1.99543
1.96737
1.9271
1.88121
1.85085
1.83503
1.82696
1.80765
3.53995
3.29168
3.06241
2.83913
2.61897
2.43455
2.26575
2.09858
1.94619
1.84399
1.73492
1.61635
1.51586
1.4714
1.41282
1.3218
1.26397
1.23422
1.18748
1.12946
1.09477
1.12382
1.31614
1.61392
1.82698
1.87579
1.85417
1.83067
1.82602
1.8291
1.82573
1.80983
1.8016
1.84084
2.12668
2.70682
3.19367
3.4063
3.41995
3.3394
3.26715
3.24323
3.23942
3.2581
3.24771
3.21837
3.15907
3.1033
3.07785
3.05962
3.04878
3.02873
2.99755
2.94664
2.89183
2.86276
2.84163
2.8238
2.80548
2.78132
2.74911
2.70083
2.65101
2.61764
2.59253
2.57031
2.54969
2.52895
2.49899
2.45668
2.42002
2.39471
2.37252
2.34978
2.32265
2.28704
2.24894
2.22427
2.20474
2.18298
2.16085
2.14017
2.11643
2.08534
2.05453
2.03241
2.01396
1.99554
1.97425
1.94871
1.91862
1.88942
1.86748
1.85328
1.84511
1.82425
3.59254
3.36694
3.15555
2.94027
2.73239
2.55715
2.39275
2.22925
2.08185
1.96061
1.85295
1.75435
1.65132
1.57031
1.50415
1.43971
1.37037
1.31236
1.26749
1.22827
1.26307
1.47824
1.82678
2.00698
2.0064
1.96845
1.9301
1.91723
1.91355
1.90161
1.87979
1.84758
1.81636
1.81362
1.82102
1.94207
2.37488
2.92241
3.27332
3.32501
3.28184
3.2405
3.22735
3.24351
3.23845
3.21633
3.17274
3.10706
3.06913
3.04868
3.03578
3.02273
2.99978
2.96727
2.91544
2.86463
2.8364
2.81415
2.79168
2.76829
2.74396
2.71179
2.66684
2.62146
2.58862
2.56431
2.54231
2.51996
2.49485
2.46179
2.42448
2.39659
2.37609
2.35585
2.33019
2.29137
2.24421
2.21004
2.19112
2.17823
2.16862
2.15586
2.13701
2.10802
2.06559
2.02411
1.99716
1.97628
1.95605
1.93553
1.91934
1.90697
1.89185
1.87284
1.85625
1.81767
3.64586
3.43887
3.23793
3.02965
2.84199
2.6722
2.50562
2.34089
2.21296
2.08955
1.96993
1.85403
1.77188
1.6874
1.60132
1.52959
1.46251
1.40197
1.36225
1.41285
1.6375
2.01682
2.21374
2.19543
2.13403
2.06954
2.04107
2.03501
2.0178
1.99195
1.96468
1.93209
1.89042
1.85152
1.83122
1.83204
1.86707
2.08292
2.55887
3.03636
3.20412
3.24967
3.25808
3.25909
3.24388
3.22018
3.18517
3.12687
3.07639
3.05297
3.03736
3.02627
3.00692
2.98155
2.94328
2.8864
2.83895
2.81017
2.78537
2.76094
2.73702
2.71291
2.68292
2.64076
2.59706
2.56422
2.53852
2.51398
2.4891
2.4631
2.43381
2.40239
2.37515
2.35321
2.32932
2.29597
2.25374
2.21488
2.18617
2.16857
2.15535
2.14446
2.13284
2.11267
2.07204
2.02249
1.98781
1.96623
1.94921
1.93629
1.92731
1.91833
1.90611
1.88542
1.85255
1.80721
3.69858
3.5029
3.30877
3.1125
2.93917
2.77478
2.6068
2.45261
2.32456
2.20079
2.07867
1.96413
1.8751
1.78728
1.70356
1.61335
1.55119
1.52122
1.59869
1.84337
2.15338
2.35675
2.35765
2.31782
2.26815
2.20232
2.15451
2.1361
2.11681
2.09361
2.06755
2.0344
1.98677
1.93141
1.8976
1.86974
1.84978
1.85909
1.92824
2.23563
2.69182
3.06953
3.18909
3.24919
3.26467
3.2372
3.20253
3.15026
3.09568
3.06583
3.04978
3.03764
3.01781
2.9933
2.96128
2.91156
2.85307
2.8173
2.79279
2.7689
2.74493
2.72058
2.69316
2.65784
2.61242
2.56976
2.53891
2.51409
2.49124
2.4687
2.44352
2.41297
2.37827
2.34549
2.31825
2.29329
2.26617
2.23172
2.19327
2.1634
2.14707
2.13435
2.1188
2.09853
2.06929
2.02571
1.98519
1.96371
1.95284
1.94827
1.94426
1.93224
1.911
1.87335
1.83456
1.79689
3.74576
3.56277
3.37555
3.19459
3.03111
2.86838
2.69989
2.5605
2.43009
2.30386
2.17348
2.0729
1.97423
1.88225
1.78554
1.70022
1.69705
1.81816
2.158
2.39049
2.50237
2.5013
2.46445
2.43684
2.40071
2.34574
2.27889
2.23563
2.2116
2.18663
2.1572
2.12602
2.0913
2.04016
1.98345
1.94817
1.91796
1.89094
1.8802
1.8925
2.00254
2.34049
2.77402
3.08645
3.19335
3.2399
3.22717
3.18193
3.1342
3.08664
3.06024
3.04395
3.02495
3.00183
2.97267
2.93074
2.87263
2.8298
2.80637
2.78452
2.7615
2.73668
2.70823
2.67173
2.62313
2.57515
2.54516
2.52386
2.50306
2.48078
2.45534
2.42306
2.38011
2.33749
2.31095
2.29211
2.27307
2.2491
2.21461
2.17329
2.13981
2.11767
2.09916
2.08022
2.0601
2.03636
2.01068
1.98219
1.95961
1.94752
1.93609
1.92114
1.89937
1.86298
1.82322
1.78981
3.80397
3.6279
3.44661
3.27494
3.11598
2.95297
2.79214
2.65848
2.52744
2.39544
2.2728
2.16933
2.06522
1.97067
1.87019
1.89527
2.08177
2.45045
2.73222
2.7417
2.67225
2.59635
2.55676
2.54402
2.51621
2.47203
2.41351
2.34837
2.30925
2.27963
2.24821
2.21392
2.17709
2.13399
2.08301
2.03669
2.00303
1.973
1.93644
1.90735
1.88663
1.90243
2.04989
2.41193
2.81844
3.08961
3.16636
3.20662
3.18536
3.13155
3.07779
3.04328
3.02487
3.00578
2.98258
2.95144
2.90406
2.85167
2.81994
2.79847
2.77733
2.75448
2.72731
2.6897
2.63436
2.5808
2.55371
2.5347
2.51556
2.49484
2.47029
2.43703
2.38765
2.33587
2.30974
2.29347
2.27702
2.25867
2.23348
2.19262
2.14259
2.10712
2.08606
2.06866
2.05463
2.04378
2.031
2.01005
1.97797
1.94823
1.92707
1.90755
1.8851
1.85587
1.82769
1.79889
3.86114
3.68626
3.51263
3.35005
3.19189
3.02909
2.88222
2.74953
2.61727
2.48074
2.36817
2.252
2.15706
2.06437
2.11348
2.37809
2.70883
2.95937
2.97267
2.91611
2.81453
2.71084
2.66269
2.64629
2.62695
2.58983
2.54357
2.47829
2.4138
2.37271
2.33858
2.30281
2.26353
2.21884
2.16819
2.11791
2.07722
2.04676
2.01613
1.97922
1.94305
1.90099
1.88082
1.90787
2.10386
2.48441
2.84784
3.09114
3.14304
3.15883
3.11567
3.05487
3.02931
3.0086
2.98902
2.96868
2.93569
2.88356
2.8353
2.80813
2.78668
2.7647
2.73974
2.70525
2.65139
2.59421
2.56301
2.54314
2.52427
2.50451
2.4817
2.4505
2.40148
2.34308
2.31078
2.29444
2.27902
2.26311
2.24414
2.21313
2.15987
2.10518
2.07877
2.0664
2.05913
2.05389
2.04196
2.02553
1.99626
1.95256
1.9166
1.89281
1.87152
1.85246
1.84249
1.81803
3.93438
3.75836
3.58915
3.42821
3.2688
3.10883
2.97222
2.83837
2.70072
2.57192
2.44744
2.34987
2.28917
2.39567
2.75486
3.03799
3.14509
3.17527
3.11903
3.05476
2.97744
2.8709
2.79321
2.7585
2.73397
2.69704
2.65156
2.59453
2.52692
2.471
2.42752
2.38733
2.34789
2.30589
2.25802
2.20471
2.1546
2.11464
2.08061
2.04959
2.01505
1.97466
1.93627
1.88767
1.87961
1.93118
2.15748
2.54316
2.87129
3.06656
3.09182
3.07463
3.05141
3.01911
2.99819
2.97924
2.95223
2.91051
2.85527
2.81494
2.79178
2.77164
2.74893
2.71806
2.67002
2.60971
2.56969
2.5482
2.53072
2.51341
2.49359
2.4658
2.42088
2.35929
2.31544
2.29471
2.27826
2.26209
2.24487
2.22186
2.1847
2.13333
2.09089
2.07293
2.06174
2.0516
2.04546
2.03372
2.00739
1.95974
1.90859
1.8788
1.86535
1.85656
1.8493
1.82842
3.99292
3.82067
3.65946
3.49983
3.33823
3.18813
3.05674
2.91881
2.77605
2.65081
2.54005
2.54677
2.726
3.16234
3.4435
3.39322
3.33374
3.27912
3.23938
3.1994
3.13661
3.0435
2.94002
2.88244
2.8444
2.80407
2.75671
2.70228
2.63777
2.57214
2.51949
2.47449
2.4321
2.38968
2.34523
2.29508
2.23839
2.18637
2.14324
2.10764
2.07505
2.04275
2.00362
1.95821
1.90524
1.87331
1.87803
1.9525
2.19697
2.57025
2.86557
3.00462
3.02114
3.03129
3.01385
2.98958
2.96508
2.92825
2.87375
2.81822
2.79206
2.77564
2.75719
2.73252
2.69383
2.63474
2.57859
2.55051
2.53376
2.51884
2.50309
2.48198
2.44581
2.38491
2.32416
2.29604
2.27917
2.26263
2.24476
2.22464
2.20098
2.16728
2.12249
2.08705
2.06698
2.05228
2.03621
2.01703
1.99611
1.96535
1.92315
1.88669
1.86762
1.85852
1.85385
1.84002
4.05835
3.89456
3.73744
3.58081
3.42126
3.27823
3.14075
2.99129
2.86505
2.75052
2.82719
3.14355
3.51615
3.80607
3.79044
3.63417
3.47417
3.39236
3.35893
3.33462
3.27419
3.18868
3.08347
3.00665
2.95906
2.91532
2.86645
2.81267
2.75047
2.67812
2.61058
2.55774
2.51335
2.47041
2.42679
2.37987
2.32515
2.26429
2.20825
2.16398
2.12794
2.09749
2.06761
2.03288
1.98486
1.93369
1.8777
1.86124
1.87133
1.96567
2.23327
2.56756
2.84952
2.93956
2.98037
2.99573
2.97563
2.94282
2.89214
2.82069
2.78516
2.77091
2.75566
2.73638
2.70775
2.66132
2.59755
2.55537
2.53681
2.52204
2.50753
2.49004
2.46227
2.41403
2.34968
2.30298
2.27893
2.26269
2.24772
2.2333
2.21657
2.1922
2.15271
2.10482
2.07109
2.04902
2.02862
2.00742
1.9859
1.96617
1.94409
1.91536
1.88736
1.86612
1.85995
1.85544
4.13436
3.97539
3.81787
3.66336
3.50322
3.36737
3.2153
3.08466
3.01308
3.1693
3.62032
3.91844
4.01456
4.02214
3.9306
3.79709
3.64448
3.5482
3.50546
3.4742
3.41111
3.327
3.22605
3.14123
3.0824
3.03115
2.97882
2.92165
2.85775
2.78399
2.70779
2.64371
2.59314
2.54783
2.50345
2.4577
2.40731
2.3496
2.28783
2.23257
2.18692
2.14835
2.11523
2.08238
2.04362
1.99718
1.94343
1.89419
1.85489
1.84397
1.86156
1.9686
2.23709
2.5547
2.79606
2.9261
2.95941
2.95665
2.9172
2.83857
2.78658
2.76747
2.75207
2.73492
2.7127
2.68155
2.63466
2.5794
2.53961
2.51602
2.49839
2.48021
2.4594
2.4275
2.37715
2.32353
2.2866
2.26382
2.25013
2.23826
2.22357
2.20323
2.16883
2.1158
2.06946
2.04053
2.01855
2.00006
1.98492
1.97261
1.95991
1.9389
1.91453
1.88289
1.87676
1.95778
4.20669
4.04655
3.89224
3.73725
3.58195
3.44938
3.30499
3.34839
3.62402
4.12793
4.43684
4.37828
4.26874
4.13833
4.03918
3.94852
3.8289
3.72386
3.66085
3.61511
3.55184
3.466
3.3646
3.27429
3.20412
3.14406
3.08584
3.02464
2.9595
2.88801
2.81086
2.73803
2.67689
2.62391
2.57376
2.52458
2.47433
2.42022
2.36224
2.30583
2.25411
2.2072
2.16364
2.12232
2.08326
2.04439
2.00124
1.95303
1.90435
1.85881
1.8393
1.82221
1.84239
1.96703
2.22817
2.53898
2.7565
2.88037
2.88379
2.86004
2.81587
2.77655
2.7531
2.73468
2.71687
2.69675
2.66663
2.61155
2.55571
2.52807
2.50773
2.4867
2.4605
2.42957
2.3966
2.35586
2.3043
2.27813
2.26911
2.25724
2.23989
2.215
2.18027
2.13342
2.08546
2.04353
2.0094
1.99306
1.98354
1.97549
1.96931
1.96448
1.95115
1.96226
2.02309
2.25814
4.25045
4.12915
3.97432
3.7974
3.67493
3.58113
3.74741
4.20925
4.58828
4.80068
4.74177
4.56627
4.41252
4.29518
4.20536
4.12329
4.02046
3.90361
3.82008
3.76132
3.69558
3.60847
3.5022
3.40051
3.32474
3.25853
3.19352
3.12626
3.05671
2.98455
2.90883
2.83381
2.7655
2.70539
2.64867
2.59334
2.53858
2.48261
2.42519
2.36891
2.31589
2.2663
2.21904
2.17316
2.12808
2.08516
2.04253
1.99862
1.95317
1.90547
1.85779
1.81603
1.80203
1.78219
1.81118
1.95712
2.22183
2.53273
2.70556
2.79152
2.78446
2.75253
2.73348
2.73555
2.73071
2.71373
2.68864
2.63971
2.57798
2.51496
2.46959
2.45062
2.44047
2.43545
2.42046
2.38924
2.34646
2.3001
2.25677
2.22754
2.20819
2.18599
2.15907
2.13311
2.1033
2.06016
2.01925
2.00345
1.9978
1.99667
1.99487
2.02545
2.10974
2.24412
2.41241
2.61487
4.11567
4.19159
4.0615
3.87825
3.92235
4.28328
4.87945
5.15937
5.17496
5.07664
4.89844
4.71545
4.56783
4.48078
4.38718
4.28947
4.1979
4.08511
3.97848
3.905
3.83737
3.75144
3.64857
3.53683
3.4422
3.3692
3.3007
3.22947
3.15451
3.07687
2.99649
2.91687
2.8429
2.77767
2.71818
2.66078
2.60303
2.54262
2.47979
2.41717
2.35886
2.30767
2.26235
2.21915
2.17473
2.12588
2.07323
2.01903
1.96879
1.92362
1.8791
1.83642
1.79778
1.76324
1.739
1.72524
1.7676
1.93938
2.21195
2.5243
2.65742
2.66685
2.67607
2.66031
2.65525
2.65032
2.63703
2.61695
2.57743
2.51035
2.45525
2.42496
2.41058
2.39875
2.38865
2.38182
2.36338
2.31624
2.26264
2.21855
2.1856
2.16848
2.15476
2.13971
2.11964
2.08699
2.05379
2.02493
2.01942
2.04182
2.13173
2.30376
2.49678
2.64085
2.78157
2.81992
3.32955
4.10358
4.09396
4.32871
4.94786
5.56135
5.68969
5.50167
5.36528
5.22657
5.07693
4.92336
4.76974
4.68368
4.58985
4.47294
4.37469
4.27351
4.15509
4.04956
3.96279
3.87723
3.78183
3.67303
3.56241
3.46404
3.38538
3.31431
3.23898
3.1568
3.07317
2.99067
2.9143
2.84506
2.78161
2.72073
2.66074
2.59935
2.53426
2.46592
2.40089
2.34467
2.29664
2.25235
2.2081
2.15896
2.10448
2.04664
1.99245
1.94519
1.90231
1.86182
1.81783
1.77611
1.73437
1.70082
1.67029
1.67162
1.73052
1.9251
2.20533
2.47255
2.6122
2.59787
2.60551
2.59978
2.5814
2.55556
2.52703
2.49293
2.44919
2.41069
2.37921
2.36121
2.3562
2.35099
2.33553
2.30907
2.26519
2.21936
2.18264
2.14524
2.11589
2.10049
2.09213
2.0935
2.08149
2.09571
2.16586
2.32711
2.53373
2.74189
2.84283
2.86496
2.88759
2.86817
2.01576
3.37823
4.52549
5.81278
6.12231
6.13538
5.95835
5.67775
5.46383
5.34369
5.23968
5.10932
4.95184
4.84817
4.75775
4.63727
4.51959
4.42159
4.31403
4.1981
4.0848
3.98499
3.89147
3.78394
3.6748
3.57009
3.46947
3.38665
3.31575
3.23297
3.14047
3.05221
2.96762
2.89757
2.84415
2.79158
2.73154
2.66955
2.60263
2.53099
2.46343
2.40641
2.35798
2.31225
2.26512
2.21205
2.15266
2.09065
2.03302
1.98203
1.93708
1.89491
1.85084
1.80512
1.75564
1.70378
1.65364
1.61425
1.60287
1.6218
1.71841
1.93327
2.21935
2.39914
2.49444
2.51944
2.51389
2.50705
2.49299
2.46374
2.42611
2.39606
2.37143
2.34385
2.31683
2.29984
2.2827
2.26153
2.24125
2.21593
2.17592
2.13606
2.11265
2.10453
2.09916
2.12055
2.20081
2.37878
2.60205
2.81439
2.89092
2.92623
2.93658
2.93615
2.92584
2.89346
1.44685
2.37486
5.57453
6.77806
6.39596
6.17405
5.94275
5.70745
5.53728
5.43039
5.36194
5.25788
5.11263
4.99625
4.91125
4.78247
4.62782
4.52681
4.44085
4.3299
4.21083
4.07784
3.94473
3.85253
3.76117
3.66519
3.55996
3.44441
3.34924
3.28554
3.21075
3.12039
3.03182
2.94142
2.85312
2.77866
2.71327
2.6478
2.57782
2.50441
2.43387
2.37063
2.31647
2.26858
2.22368
2.17627
2.12294
2.06382
2.00495
1.9505
1.90171
1.85763
1.81507
1.77171
1.72421
1.68295
1.63991
1.59893
1.55834
1.534
1.53437
1.5665
1.69093
1.92382
2.16929
2.29866
2.37865
2.40288
2.40474
2.40602
2.40619
2.39124
2.36977
2.33492
2.28521
2.24373
2.21981
2.20211
2.18446
2.16579
2.15237
2.1458
2.12589
2.13531
2.19863
2.38685
2.61821
2.83014
2.93215
3.00453
3.01367
3.00162
2.98565
2.98004
2.9619
2.9171
1.40091
2.17117
5.49689
6.35898
6.01156
5.84218
5.70559
5.58147
5.48994
5.41969
5.37892
5.28062
5.13762
5.01294
4.93346
4.85536
4.71953
4.56074
4.44764
4.36991
4.26961
4.14136
3.9987
3.84571
3.71301
3.61822
3.55073
3.47931
3.38555
3.27835
3.17013
3.06425
2.97658
2.91215
2.84958
2.78185
2.7134
2.64356
2.57145
2.498
2.42593
2.35762
2.29703
2.24525
2.19991
2.15707
2.11283
2.06167
2.00136
1.94074
1.88631
1.83944
1.7996
1.76284
1.7226
1.67875
1.63784
1.5964
1.54823
1.50859
1.4898
1.48478
1.49318
1.53352
1.67479
1.90761
2.16359
2.22317
2.26907
2.30494
2.31754
2.31246
2.30309
2.28361
2.24831
2.2057
2.16923
2.1472
2.13588
2.13791
2.14586
2.16397
2.23381
2.40645
2.63069
2.8338
2.95507
3.02485
3.03928
3.04763
3.04051
3.02146
2.9966
2.96996
2.94201
2.89405
1.40001
2.49313
5.16039
5.74462
5.61518
5.57512
5.51685
5.4528
5.39583
5.33482
5.27038
5.18429
5.07436
4.97348
4.89696
4.81197
4.692
4.54541
4.41191
4.29708
4.18687
4.07206
3.95072
3.82014
3.69153
3.57937
3.48346
3.3967
3.31517
3.22649
3.13456
3.04819
2.96552
2.88476
2.80754
2.73545
2.66486
2.59354
2.52313
2.45499
2.39084
2.32986
2.27207
2.21652
2.16213
2.10766
2.05303
1.99857
1.94576
1.89589
1.84843
1.80222
1.75718
1.71613
1.67944
1.64479
1.61418
1.59142
1.56566
1.52777
1.48373
1.45229
1.42792
1.41573
1.43257
1.51051
1.6957
1.91989
2.12157
2.20497
2.2335
2.24916
2.2374
2.21589
2.19081
2.15585
2.11552
2.10855
2.11167
2.13334
2.21475
2.38719
2.65142
2.84576
2.97852
3.02536
3.03797
3.04162
3.03228
3.00948
2.98848
2.9693
2.95087
2.933
2.91358
2.87119
1.40001
2.64411
5.02876
5.43474
5.4414
5.40567
5.34813
5.28919
5.23318
5.18179
5.12146
5.0437
4.95382
4.86193
4.78564
4.70405
4.58293
4.44221
4.31612
4.19326
4.07523
3.96369
3.853
3.7375
3.61947
3.50577
3.40339
3.31373
3.23086
3.14992
3.07105
2.99405
2.91567
2.83563
2.75765
2.6845
2.61476
2.54795
2.48443
2.42284
2.3624
2.30144
2.23974
2.17835
2.11914
2.06254
2.00875
1.95883
1.91162
1.86584