/*--------------------------------*- C++ -*----------------------------------*\
  =========                 |
  \\      /  F ield         | OpenFOAM: The Open Source CFD Toolbox
   \\    /   O peration     | Website:  https://openfoam.org
    \\  /    A nd           | Version:  7
     \\/     M anipulation  |
\*---------------------------------------------------------------------------*/
FoamFile
{
    version     2.0;
    format      ascii;
    class       volScalarField;
    location    "3.2";
    object      p;
}
// * * * * * * * * * * * * * * * * * * * * * * * * * * * * * * * * * * * * * //

dimensions      [1 -1 -2 0 0 0 0];

internalField   nonuniform List<scalar> 
16128
(
1
1
1
1
1
1
1
1
1
1
1
1
1
1
1
1
1
1
1
1
1
1
1
1
4.2879
10.1076
10.5203
10.6065
10.7303
10.8393
10.9461
11.0469
11.142
11.2308
11.3145
11.3945
11.472
11.546
11.6149
11.6787
11.7379
11.7929
11.8438
11.8903
11.9313
11.9644
11.989
12.0063
1
1
1
1
1
1
1
1
1
1
1
1
1
1
1
1
1
1
1
1
1
1
1
1
4.21474
10.0627
10.514
10.6035
10.7265
10.8352
10.9415
11.0417
11.1364
11.225
11.3084
11.3881
11.465
11.5382
11.6061
11.6689
11.7272
11.7812
11.8312
11.8768
11.9172
11.9498
11.9741
11.9912
1
1
1
1
1
1
1
1
1
1
1
1
1
1
1
1
1
1
1
1
1
1
1
1
4.0486
10.0065
10.4982
10.5914
10.7139
10.8232
10.9297
11.0297
11.1244
11.2131
11.2967
11.3763
11.4528
11.5253
11.5925
11.6545
11.7118
11.7644
11.8126
11.8564
11.8951
11.9265
11.95
11.9667
1
1
1
1
1
1
1
1
1
1
1
1
1
1
1
1
1
1
1
1
1
1
1
1
3.80899
9.91677
10.4812
10.5767
10.6976
10.8066
10.9125
11.0117
11.1058
11.1943
11.2775
11.3567
11.4324
11.5041
11.5702
11.6313
11.6875
11.7388
11.7855
11.8273
11.864
11.8935
11.9153
11.931
1
1
1
1
1
1
1
1
1
1
1
1
1
1
1
1
1
1
1
1
1
1
1
1
3.50425
9.78132
10.4629
10.56
10.6792
10.788
10.8933
10.9917
11.0851
11.1731
11.2557
11.3341
11.4085
11.4788
11.5434
11.603
11.6576
11.7069
11.7514
11.7905
11.8242
11.8508
11.8694
11.8832
1
1
1
1
1
1
1
1
1
1
1
1
1
1
1
1
1
1
1
1
1
1
1
1
3.13986
9.5777
10.4408
10.537
10.6553
10.7634
10.8675
10.9645
11.0564
11.1433
11.2244
11.3013
11.3739
11.4426
11.5055
11.5638
11.6171
11.6651
11.7079
11.7449
11.776
11.7999
11.8154
11.8272
1
1
1
1
1
1
1
1
1
1
1
1
1
1
1
1
1
1
1
1
1
1
1
1
2.73271
9.29579
10.4234
10.513
10.6277
10.732
10.8329
10.9274
11.0168
11.1017
11.1808
11.2562
11.3272
11.3945
11.4559
11.5125
11.5643
11.6105
11.6514
11.6866
11.7157
11.7381
11.7515
11.7628
1
1
1
1
1
1
1
1
1
1
1
1
1
1
1
1
1
1
1
1
1
1
1
1
2.29797
8.91633
10.4212
10.4917
10.6045
10.7041
10.8014
10.8928
10.9788
11.0609
11.1372
11.2096
11.2772
11.3412
11.3996
11.4531
11.5024
11.5463
11.5849
11.6175
11.6438
11.6635
11.6744
11.6842
1
1
1
1
1
1
1
1
1
1
1
1
1
1
1
1
1
1
1
1
1
1
1
1
1.85152
8.40715
10.4355
10.4719
10.5764
10.6681
10.7615
10.8504
10.9342
11.0137
11.0875
11.1569
11.2207
11.2803
11.3342
11.3829
11.4275
11.467
11.5014
11.5307
11.5545
11.5727
11.5826
11.5924
1
1
1
1
1
1
1
1
1
1
1
1
1
1
1
1
1
1
1
1
1
1
1
1
1.43584
7.81044
10.4548
10.423
10.5266
10.6159
10.7107
10.7991
10.8804
10.9572
11.0292
11.0959
11.1562
11.211
11.2599
11.3032
11.3423
11.3771
11.407
11.4317
11.4503
11.4626
11.4678
11.4739
1
1
1
1
1
1
1
1
1
1
1
1
1
1
1
1
1
1
1
1
1
1
1
1
1.08905
7.08111
10.4065
10.3778
10.4745
10.557
10.6458
10.732
10.8151
10.8906
10.96
11.0236
11.0806
11.1303
11.1739
11.211
11.2429
11.2696
11.2904
11.3058
11.317
11.3247
11.3286
11.3361
1
1
1
1
1
1
1
1
1
1
1
1
1
1
1
1
1
1
1
1
1
1
1
1
1.00212
6.15429
10.1882
10.2845
10.3947
10.4926
10.5833
10.6672
10.7395
10.8108
10.879
10.9397
10.9933
11.038
11.0758
11.106
11.129
11.1465
11.1579
11.1647
11.167
11.1609
11.1499
11.1425
1
1
1
1
1
1
1
1
1
1
1
1
1
1
1
1
1
1
1
1
1
1
1
1
1
5.16039
9.97319
10.2082
10.3149
10.4161
10.5051
10.5858
10.6623
10.7274
10.7849
10.8399
10.8888
10.9284
10.9603
10.9831
10.9965
11.0022
10.9986
10.9847
10.9615
10.937
10.9121
10.9125
1
1
1
1
1
1
1
1
1
1
1
1
1
1
1
1
1
1
1
1
1
1
1
1
1
4.09698
9.61672
10.1438
10.2651
10.3657
10.447
10.5148
10.5737
10.6287
10.6804
10.7273
10.7688
10.8027
10.8286
10.8424
10.8435
10.834
10.8107
10.7764
10.734
10.6891
10.6213
10.5433
1
1
1
1
1
1
1
1
1
1
1
1
1
1
1
1
1
1
1
1
1
1
1
1
1
3.04925
9.09735
10.0953
10.2061
10.3101
10.3901
10.4508
10.4997
10.5424
10.5789
10.6115
10.6412
10.6656
10.6817
10.6824
10.669
10.6419
10.595
10.5281
10.4292
10.2905
10.1457
10.0372
1
1
1
1
1
1
1
1
1
1
1
1
1
1
1
1
1
1
1
1
1
1
1
1
1
1.97985
8.3033
10.1894
10.1905
10.2682
10.3293
10.3763
10.4165
10.4514
10.4805
10.5016
10.5149
10.5248
10.5277
10.5105
10.479
10.427
10.3451
10.2287
10.068
9.86531
9.64971
9.55878
1
1
1
1
1
1
1
1
1
1
1
1
1
1
1
1
1
1
1
1
1
1
1
1
1
1.13158
7.31837
10.2677
10.1658
10.1818
10.2387
10.2852
10.3243
10.3532
10.3732
10.3842
10.3848
10.3794
10.3636
10.329
10.274
10.1921
10.0733
9.91007
9.6692
9.28481
8.42643
6.48861
1
1
1
1
1
1
1
1
1
1
1
1
1
1
1
1
1
1
1
1
1
1
1
1
1
1.00177
5.97984
9.88967
9.95118
10.0409
10.1173
10.1747
10.219
10.2468
10.2614
10.2656
10.2548
10.2322
10.1976
10.1448
10.0636
9.94937
9.78877
9.55938
9.21478
8.61993
7.68697
5.51175
1
1
1
1
1
1
1
1
1
1
1
1
1
1
1
1
1
1
1
1
1
1
1
1
1
0.999982
4.4473
9.51381
9.91899
10.0051
10.0458
10.0816
10.1172
10.1391
10.1467
10.1425
10.12
10.0813
10.0261
9.95233
9.84734
9.70149
9.5008
9.2116
8.78963
8.1315
7.05875
5.15827
1
1
1
1
1
1
1
1
1
1
1
1
1
1
1
1
1
1
1
1
1
1
1
1
1
0.999996
2.92535
8.82909
9.86224
9.93125
9.97114
10.0012
10.0228
10.034
10.0306
10.0152
9.9819
9.92955
9.85589
9.76067
9.63324
9.45962
9.22302
8.89252
8.4121
7.74041
6.63758
5.12056
1
1
1
1
1
1
1
1
1
1
1
1
1
1
1
1
1
1
1
1
1
1
1
1
1
0.999999
1.62439
7.94743
9.96205
9.86207
9.87929
9.90787
9.92091
9.92394
9.9105
9.88554
9.84281
9.77911
9.68945
9.57357
9.42279
9.22511
8.95944
8.6069
8.11052
7.43593
6.41174
5.21627
1
1
1
1
1
1
1
1
1
1
1
1
1
1
1
1
1
1
1
1
1
1
1
1
1
1
1.04533
6.51306
9.75787
9.70919
9.74871
9.79513
9.81133
9.81118
9.79013
9.7549
9.70085
9.6253
9.52247
9.39033
9.22101
9.00512
8.7216
8.35326
7.86415
7.21192
6.3144
5.33425
1
1
1
1
1
1
1
1
1
1
1
1
1
1
1
1
1
1
1
1
1
1
1
1
1
1
1.00006
4.62382
9.21838
9.60522
9.68755
9.71704
9.71781
9.70471
9.67452
9.62903
9.56467
9.47796
9.36459
9.21959
9.03542
8.80505
8.51203
8.13713
7.65982
7.05016
6.28187
5.45047
1
1
1
1
1
1
1
1
1
1
1
1
1
1
1
1
1
1
1
1
1
1
1
1
1
1
0.999999
2.69036
8.53663
9.62622
9.61635
9.63088
9.62751
9.60254
9.56203
9.50585
9.43159
9.33407
9.20958
9.05365
8.85921
8.62028
8.32579
7.95596
7.49309
6.93522
6.27175
5.55173
1
1
1
1
1
1
1
1
1
1
1
1
1
1
1
1
1
1
1
1
1
1
1
1
1
1
1
1.25106
7.37716
9.72108
9.56716
9.51977
9.51631
9.48928
9.44512
9.38251
9.30013
9.19561
9.06333
8.90014
8.69993
8.45653
8.16444
7.80511
7.36215
6.8512
6.26594
5.64083
1
1
1
1
1
1
1
1
1
1
1
1
1
1
1
1
1
1
1
1
1
1
1
1
1
1
1
1.00612
5.55828
9.185
9.34919
9.41472
9.41223
9.37737
9.32831
9.26063
9.17216
9.06181
8.92526
8.75729
8.55291
8.30744
8.02098
7.6712
7.25649
6.79088
6.26469
5.72111
1
1
1
1
1
1
1
1
1
1
1
1
1
1
1
1
1
1
1
1
1
1
1
1
1
1
1
0.999931
3.23849
8.59955
9.34032
9.33581
9.32488
9.29058
9.23288
9.15445
9.05656
8.9376
8.79503
8.62432
8.42001
8.17935
7.89461
7.55399
7.17274
6.74885
6.2676
5.79357
1
1
1
1
1
1
1
1
1
1
1
1
1
1
1
1
1
1
1
1
1
1
1
1
1
1
1
0.999983
1.40177
7.55994
9.47832
9.28861
9.21903
9.18301
9.12154
9.04019
8.93948
8.81729
8.67163
8.50019
8.29778
8.06505
7.77977
7.45312
7.10092
6.70921
6.27228
5.84727
1
1
1
1
1
1
1
1
1
1
1
1
1
1
1
1
1
1
1
1
1
1
1
1
1
1
1
0.999997
1.01547
5.66507
8.96765
9.06145
9.10821
9.07851
9.01345
8.93012
8.82772
8.70446
8.55839
8.38621
8.18938
7.95917
7.6843
7.37599
7.0463
6.67872
6.28485
5.89244
1
1
1
1
1
1
1
1
1
1
1
1
1
1
1
1
1
1
1
1
1
1
1
1
1
1
1
1
0.999901
3.09229
8.33135
9.05393
9.04778
9.00659
8.93419
8.84357
8.73381
8.60513
8.45611
8.27986
8.09008
7.85964
7.59704
7.30871
6.99838
6.65251
6.29499
5.92654
1
1
1
1
1
1
1
1
1
1
1
1
1
1
1
1
1
1
1
1
1
1
1
1
1
1
1
1
0.999975
1.31622
7.06999
9.15536
9.00179
8.90911
8.83205
8.73824
8.62973
8.50428
8.35779
8.18696
7.99534
7.77352
7.52439
7.25471
6.96171
6.63968
6.30897
5.96208
1
1
1
1
1
1
1
1
1
1
1
1
1
1
1
1
1
1
1
1
1
1
1
1
1
1
1
1
0.999996
1.00865
4.83606
8.63987
8.81718
8.80105
8.73835
8.64628
8.53928
8.41482
8.26937
8.101
7.9088
7.69551
7.45838
7.20408
6.92621
6.6266
6.31475
5.99037
1
1
1
1
1
1
1
1
1
1
1
1
1
1
1
1
1
1
1
1
1
1
1
1
1
1
1
1
1
0.999952
2.18193
7.89021
8.87873
8.74664
8.65569
8.56441
8.46131
8.33822
8.19368
8.02682
7.83941
7.63115
7.40308
7.15958
6.89566
6.61487
6.3199
6.01839
1
1
1
1
1
1
1
1
1
1
1
1
1
1
1
1
1
1
1
1
1
1
1
1
1
1
1
1
1
0.999988
1.11097
6.09402
8.66494
8.5992
8.54097
8.46703
8.37353
8.2559
8.11412
7.95071
7.76957
7.5696
7.35183
7.11836
6.86678
6.59971
6.3215
6.03891
1
1
1
1
1
1
1
1
1
1
1
1
1
1
1
1
1
1
1
1
1
1
1
1
1
1
1
1
1
0.999998
1.00074
3.21615
7.99741
8.52532
8.48865
8.42664
8.32907
8.20298
8.0565
7.89352
7.71549
7.52095
7.30965
7.0825
6.83977
6.58474
6.3235
6.05703
1
1
1
1
1
1
1
1
1
1
1
1
1
1
1
1
1
1
1
1
1
1
1
1
1
1
1
1
1
1
0.999997
1.32672
6.60656
8.60333
8.47388
8.38231
8.26812
8.13327
7.9873
7.82944
7.65758
7.47029
7.26679
7.04798
6.81666
6.5752
6.32787
6.07535
1
1
1
1
1
1
1
1
1
1
1
1
1
1
1
1
1
1
1
1
1
1
1
1
1
1
1
1
1
1
0.999999
1.00851
3.95195
8.05726
8.32533
8.27854
8.18495
8.0658
7.93023
7.77813
7.61023
7.42682
7.22817
7.01723
6.79759
6.56798
6.33096
6.09228
1
1
1
1
1
1
1
1
1
1
1
1
1
1
1
1
1
1
1
1
1
1
1
1
1
1
1
1
1
1
1
0.999998
1.54658
6.83426
8.44127
8.28094
8.15212
8.02514
7.88659
7.73384
7.56621
7.38524
7.19226
6.98933
6.78068
6.56309
6.33595
6.11005
1
1
1
1
1
1
1
1
1
1
1
1
1
1
1
1
1
1
1
1
1
1
1
1
1
1
1
1
1
1
1
0.999999
1.02385
4.34779
7.99593
8.13999
8.06029
7.95448
7.82751
7.68164
7.51851
7.34277
7.15846
6.96482
6.76604
6.55983
6.34128
6.12394
1
1
1
1
1
1
1
1
1
1
1
1
1
1
1
1
1
1
1
1
1
1
1
1
1
1
1
1
1
1
1
1
1.00005
1.69855
6.83709
8.23075
8.06071
7.93016
7.79669
7.64776
7.48528
7.31452
7.13805
6.9514
6.75792
6.55904
6.34803
6.13639
1
1
1
1
1
1
1
1
1
1
1
1
1
1
1
1
1
1
1
1
1
1
1
1
1
1
1
1
1
1
1
1
1
1.03767
4.4196
7.84134
7.94306
7.86024
7.74185
7.60009
7.44557
7.28289
7.11365
6.93396
6.74567
6.55321
6.35135
6.14664
1
1
1
1
1
1
1
1
1
1
1
1
1
1
1
1
1
1
1
1
1
1
1
1
1
1
1
1
1
1
1
1
1
1.00016
1.73956
6.6246
7.9917
7.85008
7.71801
7.57432
7.42392
7.26633
7.10047
6.92474
6.74024
6.55214
6.35805
6.15995
1
1
1
1
1
1
1
1
1
1
1
1
1
1
1
1
1
1
1
1
1
1
1
1
1
1
1
1
1
1
1
1
1
1
1.04138
4.1167
7.62117
7.77451
7.66625
7.53687
7.39484
7.24215
7.07953
6.90805
6.72907
6.54708
6.36185
6.17164
1
1
1
1
1
1
1
1
1
1
1
1
1
1
1
1
1
1
1
1
1
1
1
1
1
1
1
1
1
1
1
1
1
1
1.00024
1.62953
6.2447
7.78475
7.6597
7.53201
7.38332
7.22605
7.06363
6.89673
6.725
6.55021
6.37314
6.1908
1
1
1
1
1
1
1
1
1
1
1
1
1
1
1
1
1
1
1
1
1
1
1
1
1
1
1
1
1
1
1
1
1
1
1
1.03031
3.46755
7.30797
7.62809
7.49234
7.34472
7.19488
7.04173
6.88457
6.72257
6.55494
6.38334
6.20847
1
1
1
1
1
1
1
1
1
1
1
1
1
1
1
1
1
1
1
1
1
1
1
1
1
1
1
1
1
1
1
1
1
1
1
1.0002
1.4091
5.70634
7.66507
7.47499
7.33079
7.18864
7.04138
6.8882
6.73049
6.56706
6.39851
6.22797
1
1
1
1
1
1
1
1
1
1
1
1
1
1
1
1
1
1
1
1
1
1
1
1
1
1
1
1
1
1
1
1
1
1
1
1
1.01354
2.72345
6.86352
7.42123
7.30018
7.17166
7.02957
6.88072
6.72717
6.5701
6.40768
6.23967
1
1
1
1
1
1
1
1
1
1
1
1
1
1
1
1
1
1
1
1
1
1
1
1
1
1
1
1
1
1
1
1
1
1
1
1
1.00008
1.20422
4.83331
7.40679
7.31927
7.18883
7.04254
6.89524
6.7422
6.58566
6.42556
6.25943
1
1
1
1
1
1
1
1
1
1
1
1
1
1
1
1
1
1
1
1
1
1
1
1
1
1
1
1
1
1
1
1
1
1
1
1
1
1.00395
2.03631
6.26709
7.29486
7.1556
7.02595
6.88325
6.73455
6.5813
6.42561
6.26762
1
1
1
1
1
1
1
1
1
1
1
1
1
1
1
1
1
1
1
1
1
1
1
1
1
1
1
1
1
1
1
1
1
1
1
1
1
1.00002
1.07755
3.63992
6.92055
7.16128
7.03731
6.897
6.7499
6.59858
6.44474
6.28964
1
1
1
1
1
1
1
1
1
1
1
1
1
1
1
1
1
1
1
1
1
1
1
1
1
1
1
1
1
1
1
1
1
1
1
1
1
1
1.00097
1.47172
5.29661
7.17748
7.047
6.90205
6.75598
6.60852
6.45941
6.30801
1
1
1
1
1
1
1
1
1
1
1
1
1
1
1
1
1
1
1
1
1
1
1
1
1
1
1
1
1
1
1
1
1
1
1
1
1
1
1
1.01831
2.45741
6.32666
7.01704
6.8907
6.75329
6.61308
6.46845
6.32174
1
1
1
1
1
1
1
1
1
1
1
1
1
1
1
1
1
1
1
1
1
1
1
1
1
1
1
1
1
1
1
1
1
1
1
1
1
1
1
1.00015
1.14894
3.98113
6.75787
6.91057
6.784
6.64182
6.49694
6.35024
1
1
1
1
1
1
1
1
1
1
1
1
1
1
1
1
1
1
1
1
1
1
1
1
1
1
1
1
1
1
1
1
1
1
1
1
1
1
1
1
1.00276
1.6181
5.27897
6.88374
6.79678
6.65223
6.51015
6.36722
1
1
1
1
1
1
1
1
1
1
1
1
1
1
1
1
1
1
1
1
1
1
1
1
1
1
1
1
1
1
1
1
1
1
1
1
1
1
1
1
1.00001
1.03048
2.52641
6.10441
6.77677
6.66169
6.51883
6.38002
1
1
1
1
1
1
1
1
1
1
1
1
1
1
1
1
1
1
1
1
1
1
1
1
1
1
1
1
1
1
1
1
1
1
1
1
1
1
1
1
1
1.00032
1.16498
3.78177
6.4708
6.6866
6.55477
6.4092
1
1
1
1
1
1
1
1
1
1
1
1
1
1
1
1
1
1
1
1
1
1
1
1
1
1
1
1
1
1
1
1
1
1
1
1
1
1
1
1
1
1
1.00346
1.5479
4.90525
6.59389
6.58007
6.43769
1
1
1
1
1
1
1
1
1
1
1
1
1
1
1
1
1
1
1
1
1
1
1
1
1
1
1
1
1
1
1
1
1
1
1
1
1
1
1
1
1
1
1.00002
1.02529
2.25078
5.65341
6.54663
6.45832
1
1
1
1
1
1
1
1
1
1
1
1
1
1
1
1
1
1
1
1
1
1
1
1
1
1
1
1
1
1
1
1
1
1
1
1
1
1
1
1
1
1
1
1.00026
1.1147
3.18813
6.09952
6.47945
1
1
1
1
1
1
1
1
1
1
1
1
1
1
1
1
1
1
1
1
1
1
1
1
1
1
1
1
1
1
1
1
1
1
1
1
1
1
1
1
1
1
1
1
1.00212
1.34462
4.19502
6.24986
1
1
1
1
1
1
1
1
1
1
1
1
1
1
1
1
1
1
1
1
1
1
1
1
1
1
1
1
1
1
1
1
1
1
1
1
1
1
1
1
1
1
1
1
1.00001
1.01195
1.78384
4.95792
1
1
1
1
1
1
1
1
1
1
1
1
1
1
1
1
1
1
1
1
1
1
1
1
1
1
1
1
1
1
1
1
1
1
1
1
1
1
1
1
1
1
1
1
1
1.0001
1.04942
2.41004
1
1
1
1
1
1
1
1
1
1
1
1
1
1
1
1
1
1
1
1
1
1
1
1
1
1
1
1
1
1
1
1
1
1
1
1
1
1
1
1
1
1
1
1
1
1
1.00069
1.14827
1
1
1
1
1
1
1
1
1
1
1
1
1
1
1
1
1
1
1
1
1
1
1
1
1
1
1
1
1
1
1
1
1
1
1
1
1
1
1
1
1
1
1
1
1
1
1
1.00328
1
1
1
1
1
1
1
1
1
1
1
1
1
1
1
1
1
1
1
1
1
1
1
1
1
1
1
1
1
1
1
1
1
1
1
1
1
1
1
1
1
1
1
1
1
1
1
1.00002
1
1
1
1
1
1
1
1
1
1
1
1
1
1
1
1
1
1
1
1
1
1
1
1
1
1
1
1
1
1
1
1
1
1
1
1
1
1
1
1
1
1
1
1
1
1
1
1
1
1
1
1
1
1
1
1
1
1
1
1
1
1
1
1
1
1
1
1
1
1
1
1
1
1
1
1
1
1
1
1
1
1
1
1
1
1
1
1
1
1
1
1
1
1
1
1
1
1
1
1
1
1
1
1
1
1
1
1
1
1
1
1
1
1
1
1
1
1
1
1
1
1
1
1
1
1
1
1
1
1
1
1
1
1
1
1
1
1
1
1
1
1
1
1
1
1
1
1
1
1
1
1
1
1
1
1
1
1
1
1
1
1
1
1
1
1
1
1
1
1
1
1
1
1
1
1
1
1
1
1
1
1
1
1
1
1
1
1
1
1
1
1
1
1
1
1
1
1
1
1
1
1
1
1
1
1
1
1
1
1
1
1
1
1
1
1
1
1
1
1
1
1
1
1
1
1
1
1
1
1
1
1
1
1
1
1
1
1
1
1
1
1
1
1
1
1
1
1
1
1
1
1
1
1
1
1
1
1
1
1
1
1
1
1
1
1
1
1
1
1
1
1
1
1
1
1
1
1
1
1
1
1
1
1
1
1
1
1
1
1
1
1
1
1
1
1
1
1
1
1
1
1
1
1
1
1
1
1
1
1
1
1
1
1
1
1
1
1
1
1
1
1
1
1
1
1
1
1
1
1
1
1
1
1
1
1
1
1
1
1
1
1
1
1
1
1
1
1
1
1
1
1
1
1
1
1
1
1
1
1
1
1
1
1
1
1
1
1
1
1
1
1
1
1
1
1
1
1
1
1
1
1
1
1
1
1
1
1
1
1
1
1
1
1
1
1
1
1
1
1
1
1
1
1
1
1
1
1
1
1
1
1
1
1
1
1
1
1
1
1
1
1
1
1
1
1
1
1
1
1
1
1
1
1
1
1
1
1
1
1
1
1
1
1
1
1
1
1
1
1
1
1
1
1
1
1
1
1
1
1
1
1
1
1
1
1
1
1
1
1
1
1
1
1
1
1
1
1
1
1
1
1
1
1
1
1
1
1
1
1
1
1
1
1
1
1
1
1
1
1
1
1
1
1
1
1
1
1
1
1
1
1
1
1
1
1
1
1
1
1
1
1
1
1
1
1
1
1
1
1
1
1
1
1
1
1
1
1
1
1
1
1
1
1
1
1
1
1
1
1
1
1
1
1
1
1
1
1
1
1
1
1
1
1
1
1
1
1
1
1
1
1
1
1
1
1
1
1
1
1
1
1
1
1
1
1
1
1
1
1
1
1
1
1
1
1
1
1
1
1
1
1
1
1
1
1
1
1
1
1
1
1
1
1
1
1
1
1
1
1
1
1
1
1
1
1
1
1
1
1
1
1
1
1
1
1
1
1
1
1
1
1
1
1
1
1
1
1
1
1
1
1
1
1
1
1
1
1
1
1
1
1
1
1
1
1
1
1
1
1
1
1
1
1
1
1
1
1
1
1
1
1
1
1
1
1
1
1
1
1
1
1
1
1
1
1
1
1
1
1
1
1
1
1
1
1
1
1
1
1
1
1
1
1
1
1
1
1
1
1
1.22749
0.187579
0.0762386
0.0647464
0.0588222
0.0689077
0.0861194
0.128608
0.208615
0.28845
0.368518
0.428868
0.501246
0.581785
0.665072
0.778158
0.861352
0.873232
0.881002
0.909455
0.929764
0.94737
0.970215
1.02918
1.05569
1.06741
1.07773
1.09656
1.11459
1.12401
1.13579
1.15466
1.17553
1.20118
1.23266
1.25422
1.2568
1.25352
1.2479
1.24233
1.24574
1.25582
1.26461
1.27801
1.30075
1.31477
1.31923
1.32383
1.32838
1.32953
1.32745
1.32424
1.32516
1.33213
1.33828
1.33883
1.33722
1.33721
1.33962
1.34402
1.35171
1.36026
1.36407
1.35718
1.83183
5.06136
6.0959
6.21515
6.30635
6.35642
6.35825
6.32585
6.27297
6.22033
6.17985
6.14851
6.11796
6.08324
6.04872
6.021
6.00087
5.97961
5.94274
5.88358
5.8107
5.74087
5.68701
5.65314
5.63537
5.61808
5.5836
5.53047
5.47068
5.41422
5.36517
5.32128
5.27785
5.2357
5.20126
5.18151
5.17586
5.16848
5.13561
5.06729
4.96998
4.852
4.76098
4.70401
4.67194
4.6741
4.67509
4.65098
4.60634
4.54958
4.4907
4.43934
4.39977
4.37434
4.35676
4.33492
4.30761
4.26936
4.22135
4.14107
4.02628
3.94605
3.9044
3.87585
3.86329
3.86717
3.87181
3.86583
3.8483
3.82064
3.78425
3.73367
3.66985
3.61939
3.58483
3.55646
3.53471
3.51549
3.49339
3.46907
3.4413
3.40497
3.36249
3.32507
3.29348
3.26476
3.23812
3.21426
3.19262
3.17261
3.15511
3.14084
3.13032
3.11989
3.10208
3.07859
3.04167
2.97782
2.91433
2.88303
2.86543
2.85184
2.84398
2.8319
2.81423
2.78861
2.74631
2.698
2.66669
2.64737
2.63098
2.61553
2.5995
2.58284
2.56432
2.54176
2.5208
2.50706
2.49592
2.48696
2.47764
2.46455
2.44417
2.40683
2.35135
2.30624
2.28367
2.26761
2.15751
0.912655
0.536664
0.370954
0.269445
0.215784
0.210382
0.21946
0.244486
0.264942
0.270501
0.294223
0.330808
0.377017
0.444572
0.540743
0.650534
0.712914
0.740536
0.776915
0.825171
0.869178
0.912969
0.977048
1.0263
1.04215
1.06236
1.08609
1.1039
1.11572
1.12532
1.13889
1.15704
1.17911
1.20952
1.23525
1.2406
1.23936
1.23654
1.23505
1.24133
1.25316
1.26835
1.28492
1.30196
1.30773
1.30935
1.30965
1.31244
1.31694
1.31711
1.31512
1.31889
1.32721
1.33818
1.3478
1.3505
1.35023
1.34983
1.34841
1.3463
1.34456
1.34586
1.34488
1.72902
4.90953
6.20418
6.32423
6.3487
6.34313
6.34008
6.32095
6.28395
6.23466
6.18076
6.1318
6.09233
6.0556
6.01534
5.97712
5.94887
5.93173
5.91756
5.88905
5.83196
5.75777
5.6889
5.6387
5.61216
5.6028
5.59069
5.55481
5.49342
5.42225
5.35401
5.29483
5.24376
5.19599
5.15137
5.11457
5.08938
5.06627
5.02988
4.99485
4.95899
4.90818
4.8474
4.77946
4.72142
4.67426
4.63373
4.60722
4.58646
4.56049
4.52465
4.48008
4.43501
4.39143
4.34702
4.30526
4.26392
4.22181
4.1722
4.11656
4.06785
4.0147
3.95911
3.91582
3.88867
3.87567
3.86425
3.83995
3.80857
3.77642
3.74541
3.71249
3.68133
3.65038
3.61663
3.58102
3.54608
3.51324
3.48234
3.45356
3.42742
3.39973
3.37095
3.34198
3.31128
3.27986
3.24874
3.2202
3.19638
3.17552
3.15616
3.13914
3.12392
3.10727
3.08934
3.0684
3.0385
2.99545
2.94208
2.89443
2.86646
2.84928
2.83352
2.81716
2.79934
2.77888
2.75021
2.71597
2.68144
2.65338
2.6337
2.61736
2.60112
2.58428
2.56535
2.54368
2.52332
2.50582
2.48957
2.47568
2.46379
2.45208
2.43617
2.41068
2.37411
2.33374
2.30165
2.27787
2.95164
1.85409
1.19363
0.811609
0.627961
0.488369
0.388853
0.351595
0.342343
0.351663
0.352791
0.349561
0.352938
0.364223
0.391623
0.417397
0.466526
0.533079
0.597414
0.655427
0.719492
0.781092
0.849423
0.921983
0.989375
1.02716
1.05231
1.07846
1.10427
1.11442
1.12695
1.15027
1.17517
1.20055
1.22719
1.23408
1.23664
1.23634
1.23054
1.22827
1.23386
1.24433
1.26545
1.29836
1.3146
1.31634
1.31546
1.31021
1.30846
1.31295
1.31562
1.31779
1.32258
1.3281
1.33413
1.34256
1.35096
1.35479
1.35699
1.35763
1.35587
1.35059
1.34212
1.33628
1.47559
4.57237
6.47435
6.4803
6.37466
6.34184
6.32838
6.31226
6.30595
6.29381
6.25585
6.20133
6.14686
6.10147
6.06091
6.01682
5.97197
5.93201
5.9017
5.88078
5.85434
5.80433
5.73876
5.67523
5.62582
5.59505
5.58058
5.56775
5.53594
5.47993
5.41383
5.34986
5.29411
5.2473
5.20135
5.14122
5.06414
4.98249
4.91949
4.88026
4.87385
4.88343
4.87783
4.84559
4.79602
4.723
4.63665
4.57558
4.53746
4.51834
4.51238
4.50384
4.47815
4.43588
4.38207
4.31367
4.23678
4.1666
4.11358
4.08117
4.0628
4.04393
4.01916
3.99128
3.95534
3.91044
3.85995
3.8106
3.76773
3.72923
3.69169
3.66274
3.64853
3.64933
3.642
3.61759
3.58504
3.54095
3.48463
3.43146
3.39516
3.37185
3.35684
3.34269
3.32225
3.29952
3.27203
3.24008
3.20926
3.18312
3.1606
3.13875
3.11615
3.09321
3.07011
3.04547
3.02145
2.99827
2.97187
2.93411
2.88501
2.84402
2.81953
2.79983
2.77861
2.75545
2.73784
2.72168
2.70274
2.67569
2.64419
2.61996
2.6027
2.58575
2.56724
2.54737
2.5266
2.5048
2.48345
2.46486
2.4479
2.43106
2.41335
2.39487
2.37793
2.35892
2.3367
2.30117
3.51253
2.5432
1.83079
1.31937
1.06516
0.884662
0.725685
0.572457
0.505717
0.513436
0.521491
0.491364
0.450082
0.423942
0.418933
0.428544
0.434709
0.447271
0.47784
0.529571
0.588398
0.648186
0.72692
0.810214
0.878072
0.92883
0.954077
0.981989
1.0367
1.07689
1.11131
1.14309
1.17217
1.20424
1.21775
1.22188
1.22806
1.23125
1.22978
1.22946
1.23122
1.23653
1.25223
1.27883
1.29351
1.29736
1.29881
1.29721
1.30002
1.30827
1.31556
1.32229
1.32791
1.32843
1.32795
1.32941
1.3337
1.34164
1.34659
1.34784
1.34723
1.34602
1.34415
1.35901
1.53848
3.93475
6.76374
6.75744
6.45639
6.34662
6.30218
6.27997
6.26474
6.25659
6.22963
6.18222
6.13075
6.0807
6.04286
6.00906
5.96569
5.91622
5.87056
5.83159
5.79937
5.76551
5.71957
5.66663
5.61441
5.56719
5.52882
5.50144
5.47439
5.42916
5.37642
5.32129
5.26982
5.22755
5.18928
5.14159
5.08244
5.00797
4.9388
4.89039
4.86396
4.86031
4.85465
4.82797
4.78802
4.73321
4.65903
4.58612
4.53653
4.50175
4.48425
4.47808
4.45677
4.41943
4.37176
4.30627
4.22735
4.15768
4.11437
4.08763
4.07139
4.06095
4.04922
4.02742
3.99368
3.9432
3.88014
3.81591
3.75526
3.70312
3.66694
3.64231
3.63128
3.63262
3.62846
3.61096
3.58476
3.55031
3.50512
3.45358
3.40785
3.37632
3.35449
3.33492
3.31526
3.29481
3.27146
3.24315
3.2114
3.18009
3.15306
3.13049
3.1089
3.0854
3.0578
3.0293
3.00926
2.99407
2.97819
2.95716
2.92056
2.86464
2.81285
2.78014
2.75722
2.74034
2.72819
2.71926
2.70688
2.68958
2.66209
2.62459
2.59557
2.57679
2.56012
2.54397
2.52776
2.51022
2.48897
2.46215
2.43388
2.41103
2.3941
2.38294
2.37623
2.37179
2.36286
2.33392
3.95444
3.08322
2.41505
1.87841
1.49202
1.23143
1.06471
0.922539
0.784824
0.681572
0.660579
0.647093
0.612754
0.568207
0.525229
0.504922
0.50336
0.502176
0.504203
0.522171
0.529674
0.534904
0.549373
0.587599
0.640101
0.712089
0.789047
0.854679
0.947413
1.01619
1.06446
1.09278
1.11743
1.15785
1.17334
1.18179
1.19619
1.20837
1.2214
1.2392
1.25037
1.25406
1.25893
1.26878
1.28008
1.29114
1.29571
1.29677
1.30159
1.3102
1.31766
1.32217
1.32434
1.32188
1.3187
1.32055
1.32833
1.34435
1.35491
1.35585
1.35485
1.35095
1.36755
1.52318
2.04798
3.14436
5.94986
6.96142
6.64511
6.38358
6.24229
6.20606
6.21934
6.24049
6.22609
6.1895
6.14737
6.08925
6.02916
5.98235
5.94535
5.9181
5.88915
5.84966
5.80299
5.75613
5.71069
5.6666
5.62314
5.58081
5.54071
5.50514
5.46862
5.42489
5.37796
5.32409
5.26427
5.20956
5.15864
5.10886
5.05945
5.01095
4.96428
4.92423
4.89533
4.87599
4.84876
4.81183
4.76734
4.71763
4.66558
4.61368
4.56517
4.527
4.49763
4.46949
4.43308
4.38776
4.33207
4.26906
4.20691
4.15867
4.12712
4.10527
4.09158
4.08099
4.06362
4.03693
3.99577
3.933
3.86383
3.80273
3.75139
3.71055
3.68027
3.65859
3.64435
3.62922
3.60682
3.58147
3.55295
3.52199
3.49086
3.46197
3.43298
3.40026
3.36734
3.34044
3.31719
3.29377
3.26864
3.24142
3.2118
3.17842
3.14199
3.10918
3.08416
3.06168
3.03918
3.02108
3.0061
2.99215
2.97711
2.95911
2.93107
2.88338
2.82191
2.7743
2.75083
2.73719
2.72742
2.72027
2.70884
2.69468
2.67397
2.6365
2.5921
2.56434
2.5475
2.53312
2.51967
2.50589
2.48989
2.46703
2.43358
2.4046
2.39139
2.38246
2.37632
2.37355
2.37388
2.34945
4.32234
3.5463
2.88133
2.35563
1.96284
1.61563
1.35255
1.23174
1.11776
0.950554
0.837603
0.813147
0.79486
0.760545
0.699174
0.631204
0.609727
0.602898
0.586415
0.56027
0.559715
0.563668
0.559532
0.554217
0.558405
0.573902
0.605856
0.65004
0.722247
0.821101
0.906217
0.976605
1.02747
1.09297
1.12928
1.1474
1.16522
1.18055
1.1952
1.21688
1.24258
1.24647
1.24393
1.24816
1.25954
1.27134
1.2835
1.29278
1.29955
1.30735
1.31301
1.31481
1.31695
1.31803
1.31772
1.32141
1.33259
1.34358
1.34556
1.34527
1.34624
1.36672
1.53075
2.0847
2.86959
3.06699
4.14946
6.11971
6.60548
6.46392
6.30247
6.19502
6.17531
6.19172
6.18473
6.16461
6.12841
6.0773
6.01509
5.96035
5.92865
5.91495
5.88739
5.83994
5.77418
5.70433
5.65315
5.61278
5.58037
5.5492
5.51174
5.46645
5.4182
5.3692
5.31989
5.26706
5.21213
5.16282
5.12082
5.08652
5.06174
5.0417
5.01496
4.97465
4.92155
4.86735
4.81804
4.7695
4.72396
4.68746
4.65782
4.62774
4.58978
4.53933
4.48105
4.42734
4.37646
4.32597
4.27738
4.23559
4.204
4.17794
4.15885
4.14588
4.13093
4.10782
4.07822
4.03366
3.9687
3.89958
3.84237
3.80102
3.77181
3.74687
3.72176
3.69273
3.65908
3.62244
3.58479
3.55048
3.52304
3.50198
3.48448
3.46756
3.44818
3.4222
3.38385
3.34131
3.30851
3.28212
3.25774
3.23426
3.21069
3.18454
3.15255
3.11308
3.0721
3.04095
3.0221
3.00778
2.99476
2.98139
2.96624
2.94771
2.92239
2.88684
2.84283
2.79822
2.76161
2.73843
2.72475
2.71407
2.70327
2.68984
2.67017
2.63819
2.60029
2.57041
2.54814
2.52961
2.51376
2.49923
2.48403
2.46527
2.43942
2.41228
2.39645
2.38666
2.37844
2.37187
2.36855
2.34563
4.6265
3.92884
3.27412
2.76841
2.38087
2.02505
1.68908
1.5187
1.39758
1.26079
1.10827
0.969914
0.937733
0.919064
0.871451
0.798342
0.727026
0.713986
0.709348
0.684054
0.649231
0.638088
0.628285
0.603122
0.585521
0.586351
0.595248
0.604278
0.612618
0.633235
0.67008
0.731432
0.815195
0.906157
1.00889
1.06343
1.09971
1.12254
1.14043
1.17551
1.2217
1.23811
1.23884
1.23619
1.24536
1.25889
1.27278
1.2853
1.29211
1.29631
1.30041
1.30396
1.30728
1.31159
1.3164
1.32354
1.33505
1.33587
1.33636
1.33957
1.35529
1.55659
2.15956
2.76334
3.19205
3.18618
3.30337
4.36705
5.89562
6.35765
6.36365
6.26809
6.20959
6.15635
6.12511
6.10985
6.09236
6.06474
6.0299
5.98752
5.95432
5.92092
5.87547
5.82372
5.76023
5.6922
5.63917
5.6018
5.57296
5.53603
5.4903
5.43466
5.37769
5.32778
5.28289
5.23751
5.19366
5.15744
5.1289
5.10928
5.09522
5.07365
5.038
4.99101
4.92027
4.8301
4.75574
4.70817
4.67479
4.64866
4.63236
4.61156
4.57955
4.53119
4.45734
4.38224
4.32566
4.28446
4.25516
4.23587
4.23141
4.23191
4.222
4.19626
4.15715
4.10137
4.03687
3.96911
3.90601
3.86052
3.83268
3.8132
3.80259
3.78986
3.76619
3.72917
3.67059
3.60421
3.5535
3.52256
3.5023
3.48819
3.48331
3.47583
3.45897
3.43411
3.38843
3.32958
3.28831
3.26233
3.24186
3.22343
3.20541
3.18678
3.16493
3.13093
3.08183
3.03733
3.01028
2.99239
2.97669
2.96121
2.94482
2.92626
2.90512
2.88228
2.85899
2.83332
2.80138
2.76292
2.72711
2.70405
2.68828
2.67137
2.64873
2.62173
2.59719
2.57579
2.55412
2.53178
2.51169
2.49542
2.48121
2.46683
2.44958
2.42808
2.40579
2.38769
2.37549
2.36432
2.35486
2.33158
4.85688
4.21707
3.61771
3.14382
2.73799
2.3664
2.06965
1.84871
1.6348
1.49586
1.38528
1.23908
1.10668
1.05677
1.02146
0.958147
0.868788
0.827109
0.825863
0.815728
0.783058
0.7422
0.715002
0.690637
0.6582
0.630402
0.625375
0.630051
0.629972
0.623145
0.618631
0.623143
0.640848
0.677456
0.744723
0.825945
0.909432
0.988404
1.03765
1.08373
1.14924
1.21833
1.23254
1.23416
1.23792
1.24419
1.2564
1.27256
1.27616
1.27332
1.27142
1.27851
1.28994
1.3023
1.31446
1.32971
1.33245
1.33186
1.3285
1.35202
1.54005
2.23953
2.85812
3.08215
3.21953
3.24918
3.23443
3.36708
4.26872
5.65084
6.19251
6.32392
6.25008
6.15747
6.08726
6.06543
6.05251
6.04725
6.02955
6.0013
5.9515
5.89864
5.85757
5.82251
5.78083
5.72808
5.66608
5.61128
5.56716
5.52144
5.47124
5.41856
5.37125
5.33006
5.29141
5.25234
5.21483
5.18238
5.15423
5.12841
5.09887
5.06014
5.01581
4.96393
4.89607
4.81279
4.73705
4.68674
4.65412
4.63315
4.62156
4.59502
4.55896
4.51066
4.4467
4.37921
4.32795
4.29672
4.27684
4.27062
4.27218
4.26029
4.23077
4.1888
4.13237
4.06659
3.99164
3.92555
3.87893
3.85184
3.83482
3.83044
3.82591
3.80712
3.77884
3.73229
3.66695
3.60366
3.55634
3.52477
3.50437
3.49246
3.48934
3.48028
3.45612
3.41951
3.36847
3.31827
3.28335
3.26
3.24215
3.22848
3.21343
3.19597
3.17303
3.13725
3.09111
3.04613
3.00799
2.9787
2.95693
2.93748
2.91828
2.90131
2.88723
2.87616
2.8647
2.84984
2.82947
2.79926
2.75584
2.70812
2.67214
2.64655
2.62499
2.60722
2.59259
2.57825
2.56244
2.54337
2.52131
2.50045
2.48375
2.4691
2.45276
2.43319
2.41268
2.39282
2.37426
2.35787
2.34598
2.31726
5.04344
4.45469
3.91559
3.47039
3.06398
2.67598
2.39734
2.15781
1.92251
1.71746
1.61116
1.49355
1.32516
1.20212
1.16403
1.11769
1.04633
0.965787
0.921062
0.913864
0.898327
0.862855
0.81465
0.77845
0.755588
0.72911
0.704501
0.699198
0.696542
0.682554
0.656976
0.63532
0.636981
0.645289
0.65514
0.668562
0.697348
0.757886
0.842798
0.930279
1.00601
1.08781
1.15009
1.18344
1.19826
1.21829
1.24657
1.26314
1.26742
1.26363
1.25634
1.26353
1.27499
1.29
1.31093
1.3261
1.32622
1.32437
1.36174
1.60357
2.20856
2.93067
3.13854
3.19904
3.2445
3.22933
3.20352
3.19668
3.31505
4.09728
5.43231
6.13995
6.26908
6.17999
6.06006
6.00935
5.99179
6.00547
6.00781
5.98582
5.93846
5.88162
5.84544
5.82361
5.80569
5.76328
5.70554
5.63213
5.56139
5.50625
5.46045
5.42031
5.38712
5.35606
5.31956
5.27671
5.23125
5.18946
5.15274
5.11636
5.07768
5.03501
4.98828
4.93709
4.87972
4.81873
4.76156
4.7131
4.67039
4.6306
4.59111
4.55535
4.52179
4.48658
4.45051
4.41198
4.37564
4.34559
4.3209
4.29698
4.26931
4.2357
4.19794
4.15399
4.09823
4.03596
3.9786
3.93166
3.89833
3.87409
3.85987
3.84987
3.83171
3.80202
3.76094
3.7118
3.6635
3.62722
3.59719
3.56728
3.53764
3.50988
3.48087
3.44577
3.41194
3.376
3.34142
3.31566
3.29495
3.27476
3.25529
3.23686
3.21983
3.19419
3.16048
3.12391
3.09022
3.05863
3.02192
2.98091
2.94408
2.91915
2.90444
2.89402
2.88591
2.87756
2.86579
2.85082
2.83555
2.81593
2.78408
2.73161
2.67122
2.63004
2.60895
2.5967
2.58643
2.57645
2.56666
2.55513
2.5396
2.51662
2.4887
2.46412
2.44409
2.42675
2.41124
2.39571
2.37692
2.35106
2.32287
2.28783
5.18384
4.64151
4.17141
3.74566
3.32837
2.97175
2.68365
2.42977
2.19588
1.96725
1.81645
1.69266
1.55505
1.39447
1.29814
1.25307
1.20525
1.1423
1.06731
1.018
1.0008
0.976847
0.934945
0.870124
0.835465
0.823068
0.80042
0.769809
0.757864
0.750834
0.735244
0.707338
0.6751
0.667794
0.669908
0.670409
0.671388
0.677611
0.693755
0.725198
0.778531
0.839078
0.920012
1.00522
1.06795
1.13192
1.18881
1.24165
1.263
1.26889
1.26737
1.26142
1.26867
1.28662
1.30752
1.31429
1.31339
1.34958
1.65383
2.27927
2.88343
3.14766
3.19787
3.22422
3.22603
3.20896
3.18055
3.16441
3.16376
3.26857
3.97782
5.2776
6.08091
6.19878
6.07125
5.97742
5.94472
5.95008
5.96771
5.95091
5.90846
5.85285
5.82042
5.80385
5.79617
5.76284
5.71499
5.64674
5.5629
5.49911
5.45596
5.42353
5.40078
5.37525
5.33753
5.28601
5.22377
5.16822
5.12585
5.08565
5.04398
4.99964
4.95212
4.90423
4.86191
4.82232
4.78382
4.7433
4.6954
4.63898
4.58343
4.53735
4.50279
4.47688
4.4577
4.43563
4.41119
4.38053
4.34016
4.29089
4.24122
4.194
4.14876
4.10286
4.05864
4.01956
3.9914
3.97095
3.95386
3.92883
3.89298
3.84862
3.79956
3.7567
3.71747
3.68669
3.66598
3.6494
3.63081
3.60517
3.56873
3.5192
3.46525
3.41402
3.37396
3.34605
3.3284
3.31767
3.31045
3.29546
3.27366
3.24154
3.19803
3.15803
3.1259
3.10317
3.08329
3.06014
3.03323
2.99989
2.9595
2.9209
2.88938
2.86803
2.85319
2.84152
2.83638
2.83969
2.83321
2.8159
2.79077
2.75386
2.69827