/*--------------------------------*- C++ -*----------------------------------*\
  =========                 |
  \\      /  F ield         | OpenFOAM: The Open Source CFD Toolbox
   \\    /   O peration     | Website:  https://openfoam.org
    \\  /    A nd           | Version:  7
     \\/     M anipulation  |
\*---------------------------------------------------------------------------*/
FoamFile
{
    version     2.0;
    format      ascii;
    class       volScalarField;
    location    "3.2";
    object      T;
}
// * * * * * * * * * * * * * * * * * * * * * * * * * * * * * * * * * * * * * //

dimensions      [0 0 0 1 0 0 0];

internalField   nonuniform List<scalar> 
16128
(
1
1
1
1
1
1
1
1
1
1
1
1
1
1
1
1
1
1
1
1
1
1
1
1
1.96384
2.66174
2.69755
2.70988
2.72438
2.73665
2.74644
2.75254
2.75542
2.75666
2.75803
2.76117
2.76737
2.77617
2.78523
2.79234
2.79697
2.80006
2.80276
2.80561
2.80853
2.81105
2.81289
2.81411
1
1
1
1
1
1
1
1
1
1
1
1
1
1
1
1
1
1
1
1
1
1
1
1
1.95286
2.65914
2.6972
2.70975
2.72413
2.73635
2.74608
2.75212
2.75496
2.75618
2.75755
2.76069
2.7669
2.77567
2.78466
2.79168
2.79622
2.79925
2.80189
2.80469
2.80757
2.81005
2.81188
2.81309
1
1
1
1
1
1
1
1
1
1
1
1
1
1
1
1
1
1
1
1
1
1
1
1
1.92425
2.65529
2.69555
2.70832
2.72268
2.73506
2.74495
2.7511
2.75402
2.75528
2.75666
2.7598
2.76601
2.77478
2.78373
2.79068
2.79512
2.79805
2.80059
2.80328
2.80606
2.80846
2.81024
2.81142
1
1
1
1
1
1
1
1
1
1
1
1
1
1
1
1
1
1
1
1
1
1
1
1
1.88106
2.64846
2.69247
2.70532
2.71964
2.7324
2.7428
2.74943
2.75264
2.75398
2.75531
2.75832
2.76438
2.77307
2.782
2.78896
2.79338
2.79625
2.79872
2.80129
2.80392
2.8062
2.80787
2.80899
1
1
1
1
1
1
1
1
1
1
1
1
1
1
1
1
1
1
1
1
1
1
1
1
1.82245
2.63732
2.68807
2.70092
2.71516
2.72842
2.73971
2.74726
2.7511
2.75265
2.75388
2.75657
2.76224
2.77071
2.77966
2.78672
2.7912
2.79403
2.79637
2.79877
2.80119
2.80327
2.80474
2.80575
1
1
1
1
1
1
1
1
1
1
1
1
1
1
1
1
1
1
1
1
1
1
1
1
1.74484
2.6189
2.68328
2.69565
2.70955
2.7231
2.73528
2.74402
2.74878
2.75068
2.75178
2.75403
2.75909
2.76719
2.77617
2.78351
2.78823
2.79111
2.79338
2.79563
2.79787
2.79978
2.80106
2.80195
1
1
1
1
1
1
1
1
1
1
1
1
1
1
1
1
1
1
1
1
1
1
1
1
1.64797
2.5923
2.68069
2.69088
2.70344
2.71651
2.72916
2.73908
2.74499
2.74751
2.7486
2.75047
2.75487
2.7625
2.77149
2.77918
2.78426
2.78726
2.78947
2.79158
2.79368
2.79552
2.79672
2.79759
1
1
1
1
1
1
1
1
1
1
1
1
1
1
1
1
1
1
1
1
1
1
1
1
1.52915
2.55358
2.68084
2.68681
2.69748
2.70944
2.72211
2.73303
2.74026
2.7437
2.74501
2.7466
2.75028
2.75722
2.76601
2.77398
2.77945
2.78265
2.7848
2.78675
2.78866
2.79038
2.79147
2.79227
1
1
1
1
1
1
1
1
1
1
1
1
1
1
1
1
1
1
1
1
1
1
1
1
1.38055
2.49246
2.68073
2.68236
2.69094
2.7014
2.71361
2.72519
2.73383
2.73857
2.74052
2.74207
2.74515
2.75126
2.75963
2.7677
2.77348
2.77681
2.77886
2.78062
2.78239
2.78408
2.78519
2.78604
1
1
1
1
1
1
1
1
1
1
1
1
1
1
1
1
1
1
1
1
1
1
1
1
1.21165
2.41587
2.67965
2.67718
2.68502
2.69362
2.7046
2.71605
2.72565
2.73184
2.73488
2.73671
2.7394
2.74466
2.7524
2.76038
2.76643
2.77
2.77202
2.77355
2.77501
2.77638
2.77729
2.77794
1
1
1
1
1
1
1
1
1
1
1
1
1
1
1
1
1
1
1
1
1
1
1
1
1.04593
2.33673
2.67966
2.67652
2.68258
2.68853
2.69686
2.70679
2.71656
2.72382
2.72799
2.73033
2.73284
2.73726
2.74416
2.75185
2.758
2.76165
2.76342
2.76451
2.76555
2.76667
2.76763
2.76848
1
1
1
1
1
1
1
1
1
1
1
1
1
1
1
1
1
1
1
1
1
1
1
1
1.00095
2.23741
2.67482
2.67497
2.67976
2.68563
2.69236
2.70021
2.70809
2.71521
2.7202
2.72309
2.72552
2.72909
2.73497
2.7421
2.74812
2.75183
2.75346
2.75429
2.75487
2.75504
2.75503
2.7549
1
1
1
1
1
1
1
1
1
1
1
1
1
1
1
1
1
1
1
1
1
1
1
1
1
2.10652
2.66594
2.67515
2.67895
2.68374
2.68902
2.69501
2.70172
2.70765
2.71204
2.71502
2.71722
2.71995
2.72463
2.73086
2.7365
2.74008
2.74119
2.74091
2.73999
2.73906
2.73797
2.73822
1
1
1
1
1
1
1
1
1
1
1
1
1
1
1
1
1
1
1
1
1
1
1
1
1
1.93051
2.6301
2.6697
2.67679
2.68292
2.68776
2.69204
2.69628
2.70055
2.70421
2.70667
2.70831
2.71013
2.71347
2.71828
2.72303
2.72597
2.72626
2.72524
2.72327
2.72093
2.7162
2.70987
1
1
1
1
1
1
1
1
1
1
1
1
1
1
1
1
1
1
1
1
1
1
1
1
1
1.71011
2.55615
2.65063
2.66633
2.6771
2.68383
2.68835
2.69197
2.69517
2.69755
2.6989
2.69954
2.7002
2.70186
2.70452
2.7076
2.70949
2.70884
2.70615
2.7004
2.69108
2.68019
2.67107
1
1
1
1
1
1
1
1
1
1
1
1
1
1
1
1
1
1
1
1
1
1
1
1
1
1.40013
2.43383
2.6352
2.6503
2.66384
2.67309
2.67956
2.68451
2.68838
2.69095
2.69178
2.69134
2.69072
2.69065
2.69048
2.69096
2.69079
2.68839
2.68252
2.67211
2.65795
2.64643
2.64998
1
1
1
1
1
1
1
1
1
1
1
1
1
1
1
1
1
1
1
1
1
1
1
1
1
1.05483
2.32025
2.63423
2.63337
2.64064
2.65253
2.66306
2.67156
2.67782
2.68184
2.68329
2.68269
2.68128
2.67915
2.67651
2.67392
2.67072
2.66545
2.65634
2.64001
2.61144
2.55025
2.4318
1
1
1
1
1
1
1
1
1
1
1
1
1
1
1
1
1
1
1
1
1
1
1
1
1
1.0007
2.19589
2.61679
2.61506
2.62056
2.63092
2.64256
2.65354
2.66237
2.66895
2.67246
2.67247
2.67097
2.66774
2.66313
2.65731
2.65043
2.64112
2.62666
2.60214
2.55598
2.48371
2.29671
1
1
1
1
1
1
1
1
1
1
1
1
1
1
1
1
1
1
1
1
1
1
1
1
1
0.999995
1.98703
2.60054
2.6178
2.62061
2.62293
2.62795
2.63595
2.64442
2.6522
2.65792
2.65968
2.65859
2.65511
2.64925
2.64095
2.63035
2.61661
2.59649
2.56512
2.51246
2.41985
2.22559
1
1
1
1
1
1
1
1
1
1
1
1
1
1
1
1
1
1
1
1
1
1
1
1
1
0.999999
1.67022
2.51868
2.61224
2.61599
2.61711
2.61899
2.62268
2.62799
2.63411
2.64025
2.64371
2.64347
2.64064
2.63452
2.62479
2.61128
2.59332
2.56837
2.53081
2.47513
2.37303
2.20504
1
1
1
1
1
1
1
1
1
1
1
1
1
1
1
1
1
1
1
1
1
1
1
1
1
1
1.26018
2.37861
2.60873
2.60564
2.60793
2.61036
2.612
2.61435
2.61736
2.6217
2.62532
2.62594
2.62385
2.61815
2.60793
2.59273
2.57158
2.54326
2.50251
2.44424
2.34584
2.2136
1
1
1
1
1
1
1
1
1
1
1
1
1
1
1
1
1
1
1
1
1
1
1
1
1
1
1.01845
2.24149
2.59336
2.59114
2.59539
2.60002
2.60199
2.60305
2.60336
2.60467
2.60633
2.60648
2.60466
2.59951
2.58967
2.5742
2.55172
2.52114
2.47928
2.42068
2.33248
2.22462
1
1
1
1
1
1
1
1
1
1
1
1
1
1
1
1
1
1
1
1
1
1
1
1
1
1
1.00004
1.99966
2.55071
2.58037
2.58853
2.59228
2.59345
2.59313
2.59189
2.59054
2.58938
2.58776
2.58491
2.57957
2.5701
2.55512
2.53295
2.50191
2.4601
2.40368
2.3269
2.23574
1
1
1
1
1
1
1
1
1
1
1
1
1
1
1
1
1
1
1
1
1
1
1
1
1
1
1
1.59425
2.45224
2.57075
2.57742
2.58214
2.58415
2.58343
2.58146
2.57845
2.57487
2.57073
2.56572
2.55903
2.54924
2.53481
2.51394
2.4843
2.44389
2.39166
2.32473
2.24588
1
1
1
1
1
1
1
1
1
1
1
1
1
1
1
1
1
1
1
1
1
1
1
1
1
1
1
1.09973
2.29947
2.56724
2.56261
2.56609
2.57085
2.57146
2.57014
2.56689
2.56199
2.55592
2.54864
2.53998
2.52902
2.51443
2.4947
2.46718
2.42948
2.38213
2.32324
2.25524
1
1
1
1
1
1
1
1
1
1
1
1
1
1
1
1
1
1
1
1
1
1
1
1
1
1
1
1.00246
2.11928
2.52693
2.53761
2.54914
2.55538
2.55743
2.55696
2.55445
2.54952
2.54255
2.53376
2.52317
2.51043
2.4948
2.47548
2.44946
2.41534
2.37336
2.32148
2.26356
1
1
1
1
1
1
1
1
1
1
1
1
1
1
1
1
1
1
1
1
1
1
1
1
1
1
1
0.999983
1.71808
2.45135
2.52445
2.53334
2.53987
2.54343
2.54333
2.54135
2.53686
2.52978
2.52028
2.50851
2.49438
2.47774
2.45757
2.43202
2.40139
2.36443
2.31854
2.26972
1
1
1
1
1
1
1
1
1
1
1
1
1
1
1
1
1
1
1
1
1
1
1
1
1
1
1
0.999995
1.15996
2.30348
2.52643
2.5183
2.52124
2.5259
2.52687
2.52571
2.52229
2.51609
2.50698
2.49508
2.48036
2.46319
2.4416
2.41621
2.38782
2.35431
2.31387
2.27123
1
1
1
1
1
1
1
1
1
1
1
1
1
1
1
1
1
1
1
1
1
1
1
1
1
1
1
0.999999
1.00621
2.12256
2.4909
2.49428
2.50323
2.50741
2.50899
2.50852
2.50615
2.50115
2.49315
2.48192
2.46778
2.45029
2.42861
2.40368
2.37637
2.3445
2.30864
2.27048
1
1
1
1
1
1
1
1
1
1
1
1
1
1
1
1
1
1
1
1
1
1
1
1
1
1
1
1
0.99998
1.67386
2.40902
2.48314
2.4904
2.49324
2.49332
2.49247
2.49001
2.48547
2.47837
2.46794
2.45518
2.43796
2.41708
2.39323
2.36676
2.33605
2.3033
2.26802
1
1
1
1
1
1
1
1
1
1
1
1
1
1
1
1
1
1
1
1
1
1
1
1
1
1
1
1
0.999994
1.1242
2.25182
2.48554
2.47714
2.47703
2.47672
2.4752
2.47263
2.46858
2.46237
2.45334
2.44149
2.42585
2.40662
2.38446
2.35922
2.33027
2.29948
2.26597
1
1
1
1
1
1
1
1
1
1
1
1
1
1
1
1
1
1
1
1
1
1
1
1
1
1
1
1
0.999999
1.00344
1.99283
2.44282
2.45462
2.46006
2.4603
2.45891
2.45633
2.45228
2.44631
2.43799
2.42691
2.41297
2.39568
2.37555
2.35198
2.32512
2.29587
2.26416
1
1
1
1
1
1
1
1
1
1
1
1
1
1
1
1
1
1
1
1
1
1
1
1
1
1
1
1
1
0.99999
1.42097
2.31974
2.45025
2.44458
2.44451
2.44358
2.44133
2.43726
2.43121
2.42305
2.41268
2.39983
2.38421
2.36599
2.34448
2.31991
2.29254
2.26313
1
1
1
1
1
1
1
1
1
1
1
1
1
1
1
1
1
1
1
1
1
1
1
1
1
1
1
1
1
0.999997
1.04346
2.14465
2.42941
2.42452
2.42568
2.42611
2.42498
2.42162
2.4158
2.40782
2.39801
2.38611
2.37193
2.35538
2.33586
2.31344
2.2884
2.26142
1
1
1
1
1
1
1
1
1
1
1
1
1
1
1
1
1
1
1
1
1
1
1
1
1
1
1
1
1
0.999999
1.00031
1.68021
2.34442
2.40719
2.41021
2.41216
2.41086
2.4072
2.40139
2.39368
2.38424
2.37291
2.35954
2.34399
2.32601
2.30565
2.28323
2.25874
1
1
1
1
1
1
1
1
1
1
1
1
1
1
1
1
1
1
1
1
1
1
1
1
1
1
1
1
1
1
0.999999
1.12685
2.18183
2.40787
2.39996
2.39889
2.39599
2.39135
2.38565
2.37859
2.36986
2.35929
2.34671
2.33209
2.31561
2.2972
2.277
2.25486
1
1
1
1
1
1
1
1
1
1
1
1
1
1
1
1
1
1
1
1
1
1
1
1
1
1
1
1
1
1
1
1.00331
1.82002
2.34934
2.38004
2.37996
2.3786
2.37555
2.37082
2.36429
2.35598
2.34581
2.33379
2.32011
2.30495
2.28807
2.26947
2.24954
1
1
1
1
1
1
1
1
1
1
1
1
1
1
1
1
1
1
1
1
1
1
1
1
1
1
1
1
1
1
1
1
1.20709
2.18728
2.38049
2.3713
2.36658
2.36232
2.35709
2.35046
2.3422
2.33231
2.32088
2.30802
2.29404
2.27855
2.26131
2.24323
1
1
1
1
1
1
1
1
1
1
1
1
1
1
1
1
1
1
1
1
1
1
1
1
1
1
1
1
1
1
1
1
1.00922
1.87958
2.33231
2.35433
2.35053
2.34681
2.3421
2.33589
2.32796
2.31854
2.30794
2.29599
2.28304
2.2688
2.25265
2.2358
1
1
1
1
1
1
1
1
1
1
1
1
1
1
1
1
1
1
1
1
1
1
1
1
1
1
1
1
1
1
1
1
1.00002
1.25822
2.17274
2.34974
2.34064
2.33581
2.33041
2.32356
2.31541
2.30634
2.29638
2.28505
2.27259
2.25909
2.24381
2.22775
1
1
1
1
1
1
1
1
1
1
1
1
1
1
1
1
1
1
1
1
1
1
1
1
1
1
1
1
1
1
1
1
1
1.01455
1.88185
2.30167
2.32644
2.32213
2.31686
2.31026
2.30258
2.294
2.28456
2.2738
2.26177
2.24887
2.23451
2.21925
1
1
1
1
1
1
1
1
1
1
1
1
1
1
1
1
1
1
1
1
1
1
1
1
1
1
1
1
1
1
1
1
1
1.00006
1.2705
2.13714
2.31634
2.31003
2.30525
2.299
2.29179
2.28354
2.2742
2.26362
2.25183
2.23925
2.2256
2.21102
1
1
1
1
1
1
1
1
1
1
1
1
1
1
1
1
1
1
1
1
1
1
1
1
1
1
1
1
1
1
1
1
1
1
1.01595
1.81899
2.26058
2.2986
2.29232
2.28636
2.27985
2.27222
2.26326
2.25303
2.24165
2.22952
2.21663
2.20278
1
1
1
1
1
1
1
1
1
1
1
1
1
1
1
1
1
1
1
1
1
1
1
1
1
1
1
1
1
1
1
1
1
1
1.00008
1.23202
2.08395
2.28393
2.2792
2.27536
2.26907
2.26137
2.25263
2.24295
2.2323
2.22085
2.20872
2.1956
1
1
1
1
1
1
1
1
1
1
1
1
1
1
1
1
1
1
1
1
1
1
1
1
1
1
1
1
1
1
1
1
1
1
1
1.0116
1.68715
2.20323
2.26756
2.26046
2.25454
2.2482
2.24087
2.23248
2.223
2.2124
2.20088
2.18852
1
1
1
1
1
1
1
1
1
1
1
1
1
1
1
1
1
1
1
1
1
1
1
1
1
1
1
1
1
1
1
1
1
1
1
1.00007
1.15372
2.01393
2.25498
2.24429
2.24032
2.2359
2.2301
2.22281
2.21426
2.20445
2.19349
2.1817
1
1
1
1
1
1
1
1
1
1
1
1
1
1
1
1
1
1
1
1
1
1
1
1
1
1
1
1
1
1
1
1
1
1
1
1
1.00508
1.52343
2.13462
2.22822
2.22314
2.22023
2.21608
2.21042
2.20329
2.19485
2.18504
2.17392
1
1
1
1
1
1
1
1
1
1
1
1
1
1
1
1
1
1
1
1
1
1
1
1
1
1
1
1
1
1
1
1
1
1
1
1
1.00002
1.07797
1.89801
2.21534
2.21264
2.2081
2.20327
2.19837
2.1923
2.18494
2.17628
2.16612
1
1
1
1
1
1
1
1
1
1
1
1
1
1
1
1
1
1
1
1
1
1
1
1
1
1
1
1
1
1
1
1
1
1
1
1
1
1.00142
1.34929
2.0632
2.19989
2.19221
2.18818
2.18349
2.17812
2.17179
2.16443
2.15594
1
1
1
1
1
1
1
1
1
1
1
1
1
1
1
1
1
1
1
1
1
1
1
1
1
1
1
1
1
1
1
1
1
1
1
1
1
1.00001
1.02952
1.70467
2.1383
2.18679
2.17918
2.1727
2.16658
2.16028
2.15344
2.14588
1
1
1
1
1
1
1
1
1
1
1
1
1
1
1
1
1
1
1
1
1
1
1
1
1
1
1
1
1
1
1
1
1
1
1
1
1
1
1.00032
1.17432
1.94058
2.17527
2.16857
2.16163
2.15501
2.14849
2.14183
2.13474
1
1
1
1
1
1
1
1
1
1
1
1
1
1
1
1
1
1
1
1
1
1
1
1
1
1
1
1
1
1
1
1
1
1
1
1
1
1
1
1.00677
1.4518
2.05355
2.15636
2.14893
2.14263
2.13653
2.13002
2.12319
1
1
1
1
1
1
1
1
1
1
1
1
1
1
1
1
1
1
1
1
1
1
1
1
1
1
1
1
1
1
1
1
1
1
1
1
1
1
1
1.00005
1.05646
1.75197
2.10834
2.146
2.13733
2.12923
2.12164
2.1141
1
1
1
1
1
1
1
1
1
1
1
1
1
1
1
1
1
1
1
1
1
1
1
1
1
1
1
1
1
1
1
1
1
1
1
1
1
1
1
1
1.00094
1.22159
1.92072
2.13057
2.12756
2.12019
2.1128
2.10516
1
1
1
1
1
1
1
1
1
1
1
1
1
1
1
1
1
1
1
1
1
1
1
1
1
1
1
1
1
1
1
1
1
1
1
1
1
1
1
1
1
1.0113
1.46143
2.01467
2.1154
2.10924
2.10227
2.09557
1
1
1
1
1
1
1
1
1
1
1
1
1
1
1
1
1
1
1
1
1
1
1
1
1
1
1
1
1
1
1
1
1
1
1
1
1
1
1
1
1
1.0001
1.06209
1.7055
2.06074
2.10469
2.09602
2.08792
1
1
1
1
1
1
1
1
1
1
1
1
1
1
1
1
1
1
1
1
1
1
1
1
1
1
1
1
1
1
1
1
1
1
1
1
1
1
1
1
1
1
1.00118
1.19662
1.86122
2.08097
2.08824
2.08063
1
1
1
1
1
1
1
1
1
1
1
1
1
1
1
1
1
1
1
1
1
1
1
1
1
1
1
1
1
1
1
1
1
1
1
1
1
1
1
1
1
1
1.00001
1.00923
1.3917
1.94725
2.07366
2.07022
1
1
1
1
1
1
1
1
1
1
1
1
1
1
1
1
1
1
1
1
1
1
1
1
1
1
1
1
1
1
1
1
1
1
1
1
1
1
1
1
1
1
1
1.00008
1.04289
1.58969
2.00038
2.06305
1
1
1
1
1
1
1
1
1
1
1
1
1
1
1
1
1
1
1
1
1
1
1
1
1
1
1
1
1
1
1
1
1
1
1
1
1
1
1
1
1
1
1
1
1.0007
1.12661
1.75502
2.01927
1
1
1
1
1
1
1
1
1
1
1
1
1
1
1
1
1
1
1
1
1
1
1
1
1
1
1
1
1
1
1
1
1
1
1
1
1
1
1
1
1
1
1
1
1
1.00422
1.26595
1.84981
1
1
1
1
1
1
1
1
1
1
1
1
1
1
1
1
1
1
1
1
1
1
1
1
1
1
1
1
1
1
1
1
1
1
1
1
1
1
1
1
1
1
1
1
1
1.00003
1.01813
1.42355
1
1
1
1
1
1
1
1
1
1
1
1
1
1
1
1
1
1
1
1
1
1
1
1
1
1
1
1
1
1
1
1
1
1
1
1
1
1
1
1
1
1
1
1
1
1
1.00021
1.05515
1
1
1
1
1
1
1
1
1
1
1
1
1
1
1
1
1
1
1
1
1
1
1
1
1
1
1
1
1
1
1
1
1
1
1
1
1
1
1
1
1
1
1
1
1
1
1
1.00109
1
1
1
1
1
1
1
1
1
1
1
1
1
1
1
1
1
1
1
1
1
1
1
1
1
1
1
1
1
1
1
1
1
1
1
1
1
1
1
1
1
1
1
1
1
1
1
1.00001
1
1
1
1
1
1
1
1
1
1
1
1
1
1
1
1
1
1
1
1
1
1
1
1
1
1
1
1
1
1
1
1
1
1
1
1
1
1
1
1
1
1
1
1
1
1
1
1
1
1
1
1
1
1
1
1
1
1
1
1
1
1
1
1
1
1
1
1
1
1
1
1
1
1
1
1
1
1
1
1
1
1
1
1
1
1
1
1
1
1
1
1
1
1
1
1
1
1
1
1
1
1
1
1
1
1
1
1
1
1
1
1
1
1
1
1
1
1
1
1
1
1
1
1
1
1
1
1
1
1
1
1
1
1
1
1
1
1
1
1
1
1
1
1
1
1
1
1
1
1
1
1
1
1
1
1
1
1
1
1
1
1
1
1
1
1
1
1
1
1
1
1
1
1
1
1
1
1
1
1
1
1
1
1
1
1
1
1
1
1
1
1
1
1
1
1
1
1
1
1
1
1
1
1
1
1
1
1
1
1
1
1
1
1
1
1
1
1
1
1
1
1
1
1
1
1
1
1
1
1
1
1
1
1
1
1
1
1
1
1
1
1
1
1
1
1
1
1
1
1
1
1
1
1
1
1
1
1
1
1
1
1
1
1
1
1
1
1
1
1
1
1
1
1
1
1
1
1
1
1
1
1
1
1
1
1
1
1
1
1
1
1
1
1
1
1
1
1
1
1
1
1
1
1
1
1
1
1
1
1
1
1
1
1
1
1
1
1
1
1
1
1
1
1
1
1
1
1
1
1
1
1
1
1
1
1
1
1
1
1
1
1
1
1
1
1
1
1
1
1
1
1
1
1
1
1
1
1
1
1
1
1
1
1
1
1
1
1
1
1
1
1
1
1
1
1
1
1
1
1
1
1
1
1
1
1
1
1
1
1
1
1
1
1
1
1
1
1
1
1
1
1
1
1
1
1
1
1
1
1
1
1
1
1
1
1
1
1
1
1
1
1
1
1
1
1
1
1
1
1
1
1
1
1
1
1
1
1
1
1
1
1
1
1
1
1
1
1
1
1
1
1
1
1
1
1
1
1
1
1
1
1
1
1
1
1
1
1
1
1
1
1
1
1
1
1
1
1
1
1
1
1
1
1
1
1
1
1
1
1
1
1
1
1
1
1
1
1
1
1
1
1
1
1
1
1
1
1
1
1
1
1
1
1
1
1
1
1
1
1
1
1
1
1
1
1
1
1
1
1
1
1
1
1
1
1
1
1
1
1
1
1
1
1
1
1
1
1
1
1
1
1
1
1
1
1
1
1
1
1
1
1
1
1
1
1
1
1
1
1
1
1
1
1
1
1
1
1
1
1
1
1
1
1
1
1
1
1
1
1
1
1
1
1
1
1
1
1
1
1
1
1
1
1
1
1
1
1
1
1
1
1
1
1
1
1
1
1
1
1
1
1
1
1
1
1
1
1
1
1
1
1
1
1
1
1
1
1
1
1
1
1
1
1
1
1
1
1
1
1
1
1
1
1
1
1
1
1
1
1
1
1
1
1
1
1
1
1
1
1
1
1
1
1
1
1
1
1
1
1
1
1
1
1
1
1
1
1
1
1
1
1
1
1
1
1
1
1
1
1
1
1
1
1
1
1
1
1
1
1
1
1
1
1
1
1
1
1
1
1
1.56081
0.874968
0.747451
0.890406
0.987094
1.06352
1.08461
1.14326
1.21509
1.25314
1.29451
1.35447
1.45908
1.55783
1.59348
1.59773
1.59222
1.58861
1.60708
1.66023
1.67179
1.65033
1.61441
1.61531
1.62424
1.64059
1.65992
1.67063
1.66566
1.64889
1.63746
1.63671
1.64126
1.65245
1.66404
1.66825
1.6666
1.66138
1.65653
1.65597
1.66052
1.67067
1.6752
1.67667
1.68002
1.6824
1.68372
1.68713
1.69097
1.69111
1.68853
1.68261
1.67823
1.67817
1.67911
1.67865
1.67693
1.67584
1.67467
1.67299
1.67222
1.6723
1.6717
1.66551
1.88717
2.63812
2.79926
2.83822
2.85529
2.85886
2.85505
2.84223
2.82434
2.80687
2.7924
2.7805
2.76964
2.75883
2.74826
2.73872
2.73053
2.72251
2.71263
2.70005
2.68579
2.67166
2.65886
2.64773
2.63833
2.62845
2.616
2.60193
2.5881
2.57592
2.56602
2.55796
2.55076
2.54408
2.53836
2.53403
2.53091
2.52677
2.5182
2.50496
2.48814
2.46887
2.45389
2.44372
2.43678
2.43488
2.43259
2.42574
2.41597
2.40436
2.39249
2.3818
2.37295
2.36649
2.36175
2.35711
2.35212
2.34574
2.33803
2.32533
2.30728
2.29448
2.28741
2.28222
2.27947
2.27941
2.2793
2.27706
2.27201
2.26474
2.25562
2.2438
2.2297
2.21816
2.20953
2.20243
2.19703
2.19261
2.18819
2.18359
2.17836
2.17157
2.16366
2.15665
2.15065
2.14508
2.13982
2.13509
2.13083
2.12692
2.12351
2.12069
2.11854
2.11629
2.11235
2.10709
2.09905
2.08563
2.07202
2.06484
2.06075
2.0577
2.05597
2.05339
2.04974
2.04452
2.03573
2.02534
2.0179
2.01263
2.00762
2.00258
1.99739
1.99235
1.98744
1.98238
1.97848
1.97664
1.97554
1.97476
1.97346
1.97069
1.96547
1.95564
1.94139
1.92893
1.92247
1.9162
1.80287
1.44141
1.27163
1.16016
1.06469
1.0446
1.04726
1.05356
1.05297
1.05291
1.068
1.1187
1.17942
1.23249
1.28326
1.33695
1.38195
1.40691
1.43554
1.48127
1.5275
1.5363
1.53346
1.5425
1.56055
1.5768
1.60001
1.61243
1.609
1.60137
1.59839
1.60032
1.60674
1.61625
1.62727
1.63315
1.63239
1.6298
1.62787
1.62825
1.63383
1.64407
1.65191
1.65481
1.65713
1.657
1.65725
1.6587
1.66196
1.66375
1.66244
1.65868
1.65781
1.65884
1.66198
1.66464
1.66478
1.6639
1.66221
1.65965
1.65661
1.65369
1.6518
1.64806
1.82992
2.59573
2.79914
2.83253
2.83663
2.83252
2.82572
2.81431
2.79914
2.78251
2.76629
2.75201
2.74022
2.72983
2.71966
2.70992
2.70121
2.69369
2.68646
2.67728
2.66495
2.65091
2.6374
2.62558
2.61604
2.60835
2.59975
2.58784
2.57355
2.55929
2.54686
2.53704
2.5293
2.52242
2.51572
2.50926
2.50333
2.49702
2.48897
2.4815
2.4742
2.46463
2.4538
2.44233
2.43244
2.42378
2.41546
2.40889
2.40318
2.39656
2.38822
2.37853
2.369
2.36002
2.35126
2.34333
2.33597
2.32919
2.32201
2.31408
2.30692
2.29859
2.28949
2.28214
2.27717
2.27415
2.27112
2.26568
2.25893
2.25173
2.24415
2.23573
2.22743
2.21903
2.21035
2.20196
2.19428
2.18741
2.18114
2.17562
2.17099
2.16619
2.16102
2.15559
2.14977
2.1438
2.1379
2.13247
2.1279
2.12388
2.12015
2.11681
2.11372
2.11025
2.10641
2.10188
2.09539
2.08597
2.07441
2.06427
2.05809
2.05421
2.05087
2.04757
2.04406
2.03997
2.03403
2.02655
2.01863
2.01171
2.00611
2.00096
1.99581
1.9908
1.98585
1.981
1.9771
1.97422
1.97179
1.96989
1.96815
1.96582
1.96163
1.95442
1.94432
1.93326
1.92475
1.91681
1.92127
1.71693
1.53577
1.38314
1.28866
1.21278
1.14821
1.10222
1.07841
1.08479
1.08629
1.0777
1.07903
1.08962
1.1188
1.14041
1.17215
1.21105
1.24819
1.2868
1.33283
1.37282
1.4082
1.43815
1.46413
1.48353
1.50078
1.51395
1.52197
1.5263
1.53382
1.54636
1.5572
1.56505
1.57174
1.57157
1.57189
1.57207
1.57083
1.57077
1.57478
1.58229
1.59273
1.6035
1.60637
1.60624
1.60589
1.60498
1.60544
1.60785
1.60853
1.60905
1.61106
1.61409
1.6175
1.62063
1.6223
1.62248
1.62257
1.62252
1.62159
1.61909
1.61502
1.60954
1.66963
2.46652
2.76702
2.77603
2.76196
2.74914
2.73884
2.72897
2.72036
2.71039
2.69689
2.68239
2.66953
2.65959
2.65179
2.64428
2.63626
2.62759
2.61884
2.61076
2.60212
2.59155
2.58038
2.57
2.56096
2.55326
2.54668
2.53949
2.52927
2.51663
2.5043
2.49425
2.48697
2.48175
2.47667
2.46917
2.4584
2.44596
2.4355
2.42772
2.42475
2.42402
2.42133
2.41537
2.40785
2.39704
2.38361
2.3734
2.36618
2.36131
2.35814
2.35437
2.34814
2.33985
2.33013
2.31846
2.30617
2.29579
2.28885
2.28542
2.28373
2.28158
2.27831
2.27401
2.26785
2.25988
2.25073
2.24164
2.23374
2.22651
2.219
2.21226
2.20743
2.20497
2.20095
2.19419
2.18667
2.17762
2.16688
2.15716
2.15078
2.14685
2.14439
2.14202
2.13845
2.13447
2.1296
2.12385
2.11824
2.11347
2.10933
2.10525
2.10094
2.09647
2.09193
2.08697
2.08193
2.07678
2.07095
2.06301
2.05273
2.04404
2.03881
2.03488
2.03083
2.02635
2.02287
2.01938
2.01514
2.00879
2.00101
1.99444
1.98937
1.98458
1.97984
1.97533
1.97114
1.96709
1.9633
1.96013
1.95718
1.95378
1.94956
1.94442
1.93889
1.93288
1.9264
1.91628
1.9884
1.83257
1.68553
1.53948
1.45447
1.38711
1.32487
1.24518
1.18748
1.18705
1.18534
1.15537
1.12383
1.10956
1.10686
1.11429
1.11937
1.12744
1.1459
1.17513
1.21
1.24669
1.29324
1.33733
1.36578
1.38413
1.39425
1.40564
1.42855
1.45057
1.47244
1.49044
1.5026
1.51052
1.5111
1.51151
1.51452
1.51734
1.51723
1.51707
1.518
1.52098
1.52808
1.53774
1.54172
1.54288
1.54379
1.54359
1.54481
1.5477
1.55019
1.55324
1.5576
1.56079
1.56334
1.56485
1.56561
1.56675
1.56797
1.56902
1.56919
1.56958
1.56934
1.5754
1.636
2.24259
2.68094
2.67902
2.64145
2.62082
2.60853
2.60198
2.5966
2.59069
2.58135
2.56995
2.55921
2.55012
2.54442
2.54076
2.53654
2.53076
2.52351
2.51502
2.50629
2.49782
2.48957
2.48241
2.47624
2.47035
2.46436
2.45814
2.45056
2.44001
2.42941
2.4205
2.41424
2.41065
2.40831
2.40502
2.39992
2.3914
2.38137
2.37261
2.36627
2.3639
2.36187
2.35782
2.35284
2.34612
2.33664
2.32674
2.31925
2.31312
2.30912
2.30671
2.30196
2.29511
2.28706
2.27682
2.26524
2.25567
2.25047
2.2481
2.24758
2.24789
2.24782
2.24542
2.24023
2.23211
2.22191
2.21143
2.2014
2.19261
2.18626
2.18133
2.17807
2.17682
2.17414
2.16868
2.16195
2.15426
2.14544
2.13604
2.12784
2.12239
2.11894
2.11609
2.11326
2.11022
2.10655
2.10192
2.09662
2.09132
2.08673
2.0829
2.07917
2.07491
2.0697
2.0642
2.06035
2.05758
2.05464
2.05033
2.04289
2.03158
2.02089
2.0142
2.00968
2.00646
2.00422
2.00271
2.00036
1.99657
1.99031
1.98157
1.97441
1.96958
1.96545
1.96173
1.95839
1.95517
1.9514
1.94644
1.94094
1.93641
1.93287
1.93008
1.92768
1.92531
1.92159
1.91321
2.04674
1.91302
1.79041
1.67177
1.57387
1.49719
1.44376
1.39112
1.32817
1.26931
1.2519
1.24166
1.2229
1.19976
1.17224
1.15593
1.15509
1.15327
1.15372
1.16301
1.16572
1.16892
1.17954
1.20392
1.23269
1.26726
1.30187
1.32885
1.36627
1.39726
1.42202
1.43684
1.44696
1.4596
1.46303
1.46598
1.47242
1.47862
1.48421
1.48999
1.49228
1.49302
1.49485
1.49876
1.50293
1.5069
1.50845
1.50869
1.51013
1.51243
1.51436
1.51678
1.51951
1.52092
1.52207
1.52384
1.52665
1.53103
1.53469
1.53531
1.53512
1.53556
1.54238
1.59495
1.74701
1.98928
2.43592
2.57495
2.54254
2.51039
2.49299
2.48724
2.48803
2.48854
2.48492
2.47808
2.47082
2.46193
2.45398
2.4496
2.4477
2.44694
2.44508
2.43977
2.43137
2.42237
2.41449
2.40839
2.40392
2.40031
2.39665
2.39239
2.38662
2.3789
2.37063
2.36227
2.35452
2.34868
2.3442
2.34049
2.33686
2.33256
2.3272
2.3214
2.31625
2.31229
2.30778
2.30274
2.29759
2.29232
2.28683
2.281
2.27492
2.26947
2.26463
2.2597
2.25367
2.2465
2.23792
2.22848
2.21955
2.21332
2.21032
2.20922
2.20926
2.20963
2.2089
2.2064
2.20107
2.19183
2.18112
2.17163
2.16381
2.15773
2.15324
2.14986
2.14731
2.14414
2.13916
2.1332
2.1265
2.11947
2.11273
2.10692
2.10173
2.09643
2.09139
2.08747
2.08418
2.08086
2.0772
2.07317
2.06869
2.06348
2.05755
2.05208
2.04787
2.04395
2.03988
2.03668
2.03422
2.03209
2.02979
2.02682
2.02169
2.01244
2.00018
1.99047
1.98576
1.98325
1.98164
1.98064
1.97882
1.97641
1.97249
1.96471
1.95497
1.94855
1.94451
1.94113
1.93823
1.93562
1.93291
1.92903
1.92289
1.91751
1.91525
1.91349
1.91186
1.91049
1.90958
1.90263
2.09586
1.98211
1.86912
1.76838
1.68534
1.59915
1.52324
1.48635
1.44751
1.38001
1.32589
1.31439
1.30765
1.29433
1.26586
1.22667
1.21099
1.20578
1.1957
1.18003
1.17891
1.18019
1.17667
1.17406
1.17679
1.18587
1.20295
1.22623
1.26314
1.31171
1.35005
1.37926
1.39835
1.4213
1.43375
1.44056
1.4478
1.45478
1.46125
1.46927
1.47622
1.47642
1.47525
1.47688
1.48154
1.48608
1.49011
1.49316
1.49541
1.49764
1.49899
1.49999
1.50152
1.50284
1.50358
1.5057
1.50961
1.51298
1.51432
1.51404
1.51501
1.52275
1.57825
1.73409
1.91122
1.9486
2.13436
2.40678
2.46504
2.45382
2.44008
2.42788
2.42499
2.4271
2.42685
2.42467
2.41982
2.41256
2.40425
2.39832
2.39644
2.39702
2.39614
2.39185
2.38351
2.37356
2.3659
2.36014
2.3563
2.35359
2.35072
2.34676
2.34164
2.33553
2.32874
2.32131
2.31392
2.30782
2.30318
2.29997
2.29819
2.29697
2.29466
2.28998
2.28291
2.27521
2.26833
2.26197
2.25653
2.2527
2.24992
2.24696
2.24261
2.2361
2.22796
2.22012
2.21268
2.20529
2.19812
2.19211
2.1879
2.18476
2.18306
2.18263
2.18217
2.18058
2.17765
2.17203
2.16299
2.15297
2.14451
2.13845
2.13435
2.13102
2.12773
2.12376
2.11876
2.11282
2.10632
2.09995
2.09433
2.0896
2.08556
2.08188
2.07819
2.07384
2.06786
2.06123
2.05621
2.05229
2.0487
2.04526
2.04183
2.03797
2.03302
2.02652
2.01951
2.01421
2.01114
2.00883
2.00675
2.00471
2.00249
1.99971
1.99551
1.98908
1.98073
1.97191
1.96447
1.9599
1.95759
1.9561
1.95466
1.95282
1.94974
1.94382
1.9362
1.92982
1.92477
1.92046
1.91689
1.91389
1.91113
1.90801
1.9036
1.89885
1.89637
1.89493
1.89349
1.89207
1.891
1.88529
2.13462
2.03773
1.93432
1.84637
1.77181
1.6943
1.60991
1.56326
1.52711
1.48288
1.43053
1.37717
1.36465
1.35739
1.33681
1.30279
1.26684
1.25982
1.25754
1.24508
1.22649
1.21898
1.2122
1.19744
1.18756
1.18803
1.19283
1.19735
1.20204
1.21387
1.23469
1.26718
1.30779
1.34744
1.38931
1.40984
1.42249
1.43073
1.43779
1.4508
1.46554
1.46972
1.46992
1.46913
1.47265
1.47738
1.48193
1.48646
1.48905
1.4905
1.49159
1.49245
1.49355
1.49528
1.49749
1.50063
1.50447
1.50461
1.50475
1.50596
1.51175
1.57866
1.74927
1.88388
1.9673
1.96707
1.98846
2.1643
2.36288
2.41635
2.42297
2.41328
2.40747
2.40201
2.40049
2.3997
2.39792
2.39425
2.38917
2.3838
2.38059
2.37794
2.37422
2.3695
2.36268
2.3544
2.3472
2.34201
2.33837
2.33433
2.32981
2.32444
2.31879
2.31354
2.30832
2.30253
2.2967
2.29188
2.28825
2.28594
2.28438
2.28188
2.27769
2.27208
2.26328
2.25155
2.2416
2.23562
2.23179
2.229
2.22754
2.22535
2.22149
2.21536
2.20564
2.19549
2.18774
2.18194
2.17773
2.17498
2.1745
2.17499
2.17409
2.17098
2.16609
2.1588
2.15003
2.14026
2.13119
2.12472
2.12093
2.11832
2.11696
2.11531
2.11219
2.10717
2.09847
2.08803
2.07995
2.07502
2.07162
2.06887
2.06752
2.06587
2.06273
2.05833
2.05051
2.04067
2.03398
2.02998
2.02691
2.0241
2.02131
2.01837
2.01493
2.00942
2.00108
1.99339
1.98894
1.9862
1.98377
1.98128
1.97859
1.97559
1.97216
1.96828
1.9641
1.95924
1.95288
1.94503
1.93791
1.93391
1.93173
1.9294
1.92587
1.92125
1.9169
1.91291
1.90847
1.90354
1.89897
1.89538
1.89249
1.8899
1.88704
1.88339
1.87945
1.87629
1.87424
1.87219
1.87021
1.86507
2.16256
2.07753
1.98893
1.91254
1.83974
1.76474
1.69863
1.64599
1.58967
1.55038
1.51845
1.47236
1.42526
1.40567
1.39148
1.36596
1.32814
1.30922
1.30876
1.30428
1.28939
1.2697
1.25548
1.24228
1.2252
1.21043
1.20781
1.21014
1.20954
1.20504
1.20257
1.20528
1.21542
1.23585
1.27193
1.31191
1.34813
1.38008
1.39971
1.41748
1.44208
1.46605
1.46992
1.47029
1.47141
1.47335
1.47707
1.48276
1.48467
1.48392
1.48314
1.48493
1.488
1.49178
1.49619
1.50187
1.50292
1.50284
1.50148
1.50971
1.57264
1.76585
1.90457
1.94903
1.97331
1.97863
1.97697
2.00161
2.15155
2.33653
2.39802
2.41486
2.4073
2.39731
2.39084
2.38958
2.38857
2.38801
2.38544
2.38145
2.37548
2.36981
2.36574
2.36224
2.35795
2.35209
2.34448
2.33747
2.33198
2.32665
2.32111
2.31562
2.31097
2.30686
2.30261
2.29783
2.29297
2.28871
2.28494
2.28136
2.27725
2.27195
2.26606
2.25947
2.25106
2.24075
2.23118
2.22488
2.22091
2.21848
2.21732
2.21405
2.20954
2.20353
2.19551
2.18687
2.18004
2.17566
2.17268
2.17172
2.17187
2.17007
2.16601
2.16023
2.15226
2.1428
2.13208
2.12284
2.11609
2.11196
2.10938
2.10889
2.10852
2.10592
2.10183
2.09505
2.08538
2.07585
2.06855
2.06351
2.06015
2.0581
2.05747
2.05575
2.05152
2.0452
2.03635
2.02775
2.0219
2.01814
2.0154
2.01335
2.01106
2.00829
2.00442
1.99818
1.99012
1.98225
1.97547
1.97036
1.96691
1.96394
1.96075
1.95781
1.95546
1.95364
1.95158
1.94867
1.94453
1.93833
1.92949
1.91994
1.91337
1.90943
1.90629
1.90377
1.90171
1.89952
1.89678
1.89297
1.88815
1.88346
1.87976
1.87673
1.87362
1.86995
1.86611
1.86238
1.85886
1.85568
1.85324
1.84699
2.18488
2.10921
2.03369
1.96578
1.89731
1.82466
1.76881
1.71706
1.66187
1.60979
1.58228
1.54906
1.49641
1.45368
1.44015
1.42408
1.39865
1.3673
1.34788
1.34455
1.33791
1.32287
1.30133
1.28386
1.27254
1.25992
1.24829
1.24548
1.24365
1.23586
1.22217
1.21076
1.21171
1.21621
1.22172
1.2296
1.24542
1.27711
1.31832
1.35684
1.38867
1.42124
1.44387
1.45493
1.46008
1.46774
1.47722
1.48227
1.48394
1.48289
1.48043
1.4825
1.48551
1.48955
1.496
1.50153
1.5019
1.50169
1.51455
1.59549
1.76056
1.91626
1.95991
1.97168
1.97857
1.97543
1.97145
1.97159
1.99371
2.12751
2.31345
2.39784
2.41035
2.4005
2.38763
2.38294
2.38133
2.38291
2.38288
2.37954
2.37318
2.36623
2.36208
2.35982
2.35797
2.35304
2.34617
2.33736
2.32869
2.32207
2.31693
2.31264
2.30925
2.30604
2.30199
2.29689
2.29126
2.28592
2.28108
2.27607
2.27058
2.26455
2.25809
2.25132
2.24405
2.23654
2.22973
2.22395
2.21877
2.21376
2.20875
2.20438
2.20033
2.19601
2.19141
2.18643
2.18167
2.17772
2.17441
2.17095
2.16681
2.16165
2.15616
2.15002
2.14226
2.13355
2.12545
2.11868
2.1135
2.10958
2.10723
2.10561
2.10287
2.09844
2.09225
2.08483
2.07771
2.07254
2.06806
2.06329
2.05842
2.05384
2.04908
2.0431
2.03731
2.03118
2.02527
2.02091
2.0174
2.01391
2.01067
2.00781
2.00516
2.00104
1.99544
1.98918
1.9833
1.97777
1.97122
1.96365
1.95678
1.95234
1.95006
1.94844
1.94713
1.94574
1.94365
1.94066
1.93724
1.93296
1.92651
1.91618
1.90438
1.89666
1.89342
1.89213
1.891
1.88968
1.88825
1.88622
1.88302
1.87796
1.87176
1.86636
1.86223
1.85884
1.85592
1.85306
1.84943
1.84406
1.83793
1.82981
2.20152
2.13361
2.07023
2.008
1.94121
1.87932
1.82602
1.77534
1.72515
1.67224
1.63524
1.60212
1.56313
1.51511
1.4847
1.47026
1.45446
1.43262
1.40477
1.38523
1.37837
1.36898
1.35231
1.325
1.30913
1.30346
1.2934
1.27934
1.27329
1.26948
1.26159
1.24802
1.23209
1.22823
1.22918
1.22928
1.22985
1.23344
1.24245
1.25951
1.28722
1.31657
1.35284
1.38743
1.41211
1.43766
1.45953
1.47759
1.48364
1.48537
1.48506
1.48325
1.48528
1.49001
1.49642
1.49895
1.49922
1.51201
1.61252
1.78296
1.91036
1.95981
1.97094
1.9756
1.97564
1.97228
1.96761
1.96536
1.96534
1.9847
2.10689
2.29385
2.39139
2.40365
2.3896
2.37911
2.37554
2.37614
2.37783
2.37508
2.36888
2.36151
2.35722
2.35527
2.35442
2.35054
2.34493
2.3367
2.32644
2.31864
2.31361
2.30997
2.30758
2.30476
2.3003
2.2941
2.28652
2.27955
2.27409
2.26882
2.2632
2.25707
2.25044
2.24387
2.2383
2.23335
2.22877
2.22406
2.21842
2.21164
2.20478
2.1992
2.19519
2.19211
2.18967
2.18681
2.18363
2.17945
2.17376
2.16651
2.15917
2.15242
2.14604
2.13958
2.13324
2.12753
2.12333
2.11994
2.11712
2.11332
2.10792
2.1011
2.09352
2.08701
2.08109
2.07645
2.07327
2.07085
2.06816
2.06436
2.05879
2.05092
2.04201
2.03359
2.02699
2.02231
2.01918
2.01715
2.01593
2.01339
2.00962
2.00406
1.99655
1.98977
1.98455
1.98106
1.97793
1.974
1.96933
1.96328
1.95557
1.94801
1.94211
1.93849
1.93598
1.93383
1.93278
1.93327
1.93168
1.92789
1.92268
1.91548
1.90503
1.89395
1.88812
1.88601
1.88533
1.88565
1.88569
1.88366
1.88026
1.87452
1.86624
1.85881
1.85418
1.85153
1.84968
1.84751
1.84389
1.83731
1.82955
1.82071
2.21453
2.1557
2.10027
2.04142
1.97908
1.92768
1.87494
1.82285
1.77661
1.73139
1.68619
1.64788
1.61275
1.57712
1.5432