/*--------------------------------*- C++ -*----------------------------------*\
  =========                 |
  \\      /  F ield         | OpenFOAM: The Open Source CFD Toolbox
   \\    /   O peration     | Website:  https://openfoam.org
    \\  /    A nd           | Version:  7
     \\/     M anipulation  |
\*---------------------------------------------------------------------------*/
FoamFile
{
    version     2.0;
    format      ascii;
    class       volScalarField;
    location    "1.2";
    object      p;
}
// * * * * * * * * * * * * * * * * * * * * * * * * * * * * * * * * * * * * * //

dimensions      [1 -1 -2 0 0 0 0];

internalField   nonuniform List<scalar> 
258048
(
1
1
1
1
1
1
1
1
1
1
1
1
1
1
1
1
1
1
1
1
1
1
1
1
1
1
1
1
1
1
1
1
1
1
1
1
1
1
1
1
1
1
1
1
1
1
1
1
1
1
1
1
1
1
1
1
1
1
1
1
1
1
1
1
1
1
1
1
1
1
1
1
1
1
1
1
1
1
1
1
1
1
1
1
1
1
1
1
1
1
1
1
1
1
1
1
1
1
1
1
1
1
1
1
1
1
6.73418
10.6998
10.7373
10.7689
10.7805
10.7769
10.77
10.7707
10.7832
10.8239
10.8915
10.9505
11.0001
11.0353
11.0643
11.0956
11.1262
11.1611
11.1937
11.2179
11.2314
11.2365
11.2423
11.2534
11.2681
11.3011
11.3324
11.3668
11.3993
11.4268
11.4497
11.4714
11.4899
11.5055
11.5264
11.5532
11.5848
11.6208
11.6612
11.6999
11.7281
11.7442
11.7479
11.7381
11.7225
11.7065
11.6977
11.7024
11.7266
11.7632
11.8057
11.8435
11.8696
11.8833
11.8898
11.8981
11.9154
11.9441
11.981
12.0194
12.0512
12.0702
12.0774
12.0764
12.0731
12.0766
12.0907
12.1138
12.1409
12.1602
12.1645
12.1565
12.1416
12.1297
12.1291
12.1382
12.1514
12.1629
12.1663
12.1603
12.1496
12.1413
12.1405
12.146
12.1583
12.1624
1
1
1
1
1
1
1
1
1
1
1
1
1
1
1
1
1
1
1
1
1
1
1
1
1
1
1
1
1
1
1
1
1
1
1
1
1
1
1
1
1
1
1
1
1
1
1
1
1
1
1
1
1
1
1
1
1
1
1
1
1
1
1
1
1
1
1
1
1
1
1
1
1
1
1
1
1
1
1
1
1
1
1
1
1
1
1
1
1
1
1
1
1
1
1
1
1
1
1
1
1
1
1
1
1
1
6.70547
10.6799
10.7453
10.7725
10.7823
10.7775
10.7705
10.771
10.784
10.8251
10.8909
10.95
10.9993
11.0345
11.0636
11.0948
11.1262
11.1614
11.1939
11.2179
11.2309
11.2353
11.2413
11.2523
11.268
11.3013
11.3336
11.3684
11.4011
11.4281
11.4504
11.4711
11.4893
11.5045
11.5255
11.5526
11.5846
11.6208
11.6609
11.6989
11.7264
11.742
11.7458
11.7366
11.7214
11.7056
11.6966
11.7009
11.7247
11.7614
11.804
11.8419
11.868
11.8818
11.8889
11.898
11.916
11.9453
11.9826
12.0209
12.0519
12.07
12.0759
12.0736
12.0702
12.0737
12.0881
12.1114
12.1378
12.1573
12.1643
12.1596
12.1472
12.1355
12.1317
12.1362
12.1458
12.1561
12.1613
12.1589
12.1519
12.1456
12.144
12.1463
12.1541
12.156
1
1
1
1
1
1
1
1
1
1
1
1
1
1
1
1
1
1
1
1
1
1
1
1
1
1
1
1
1
1
1
1
1
1
1
1
1
1
1
1
1
1
1
1
1
1
1
1
1
1
1
1
1
1
1
1
1
1
1
1
1
1
1
1
1
1
1
1
1
1
1
1
1
1
1
1
1
1
1
1
1
1
1
1
1
1
1
1
1
1
1
1
1
1
1
1
1
1
1
1
1
1
1
1
1
1
6.65662
10.6684
10.7462
10.7739
10.7825
10.7767
10.7696
10.7706
10.7836
10.8261
10.8898
10.949
10.9978
11.033
11.0622
11.0935
11.1255
11.161
11.1936
11.2175
11.2303
11.2341
11.2401
11.2509
11.2677
11.301
11.3341
11.3695
11.4025
11.4292
11.4508
11.4706
11.4889
11.5034
11.5242
11.5517
11.5841
11.6204
11.6601
11.6974
11.7243
11.7396
11.7437
11.7354
11.7206
11.7048
11.6955
11.699
11.7219
11.7585
11.8012
11.839
11.865
11.8792
11.8875
11.8978
11.9169
11.9467
11.9839
12.0216
12.0518
12.0693
12.0748
12.0729
12.0702
12.0728
12.0843
12.1043
12.1281
12.1486
12.1614
12.1645
12.1579
12.1469
12.137
12.1328
12.1354
12.1433
12.1516
12.1558
12.156
12.154
12.1512
12.1477
12.1472
12.1444
1
1
1
1
1
1
1
1
1
1
1
1
1
1
1
1
1
1
1
1
1
1
1
1
1
1
1
1
1
1
1
1
1
1
1
1
1
1
1
1
1
1
1
1
1
1
1
1
1
1
1
1
1
1
1
1
1
1
1
1
1
1
1
1
1
1
1
1
1
1
1
1
1
1
1
1
1
1
1
1
1
1
1
1
1
1
1
1
1
1
1
1
1
1
1
1
1
1
1
1
1
1
1
1
1
1
6.58292
10.6588
10.7451
10.7725
10.7818
10.7757
10.7691
10.7702
10.7834
10.8264
10.8883
10.9472
10.9954
11.0308
11.0604
11.092
11.1245
11.1599
11.1925
11.2164
11.2291
11.2328
11.239
11.2494
11.2677
11.3007
11.3344
11.37
11.4031
11.4295
11.4505
11.4696
11.4881
11.5022
11.5229
11.5507
11.5834
11.6194
11.6583
11.6947
11.7212
11.7364
11.7413
11.7345
11.7207
11.7051
11.6956
11.6979
11.7192
11.7549
11.7971
11.8344
11.8604
11.8756
11.8857
11.8982
11.9189
11.9492
11.9857
12.0215
12.0499
12.0661
12.0714
12.0713
12.0704
12.0731
12.0816
12.0968
12.1171
12.1388
12.1574
12.1687
12.1692
12.1591
12.143
12.1294
12.1243
12.1295
12.1411
12.1524
12.1602
12.1624
12.1583
12.1488
12.1394
12.1315
1
1
1
1
1
1
1
1
1
1
1
1
1
1
1
1
1
1
1
1
1
1
1
1
1
1
1
1
1
1
1
1
1
1
1
1
1
1
1
1
1
1
1
1
1
1
1
1
1
1
1
1
1
1
1
1
1
1
1
1
1
1
1
1
1
1
1
1
1
1
1
1
1
1
1
1
1
1
1
1
1
1
1
1
1
1
1
1
1
1
1
1
1
1
1
1
1
1
1
1
1
1
1
1
1
1
6.48718
10.6498
10.7428
10.77
10.7811
10.7743
10.7674
10.7686
10.7817
10.8251
10.8856
10.9444
10.9926
11.0287
11.059
11.0909
11.1235
11.1583
11.1905
11.2143
11.2268
11.231
11.2376
11.2479
11.2677
11.3003
11.3341
11.3693
11.4019
11.4279
11.449
11.4679
11.4868
11.5012
11.5219
11.5499
11.5823
11.6173
11.6551
11.6908
11.7172
11.7328
11.7391
11.7345
11.7222
11.7068
11.6973
11.6983
11.717
11.7513
11.7922
11.8286
11.8543
11.8709
11.8836
11.8991
11.9219
11.9523
11.9867
12.0192
12.0446
12.0596
12.0659
12.0689
12.0715
12.0753
12.0813
12.0912
12.107
12.1282
12.1518
12.1708
12.1778
12.1691
12.1485
12.1268
12.1146
12.1172
12.1313
12.1488
12.1628
12.1682
12.163
12.1488
12.1321
12.1199
1
1
1
1
1
1
1
1
1
1
1
1
1
1
1
1
1
1
1
1
1
1
1
1
1
1
1
1
1
1
1
1
1
1
1
1
1
1
1
1
1
1
1
1
1
1
1
1
1
1
1
1
1
1
1
1
1
1
1
1
1
1
1
1
1
1
1
1
1
1
1
1
1
1
1
1
1
1
1
1
1
1
1
1
1
1
1
1
1
1
1
1
1
1
1
1
1
1
1
1
1
1
1
1
1
1
6.36847
10.6394
10.7431
10.7657
10.7783
10.7719
10.7653
10.7671
10.7801
10.8232
10.8828
10.9413
10.9897
11.0267
11.0577
11.0897
11.1222
11.1558
11.1872
11.2105
11.223
11.228
11.2354
11.2462
11.2676
11.2998
11.3333
11.3678
11.3992
11.4246
11.446
11.4652
11.485
11.5003
11.5213
11.5493
11.5807
11.614
11.6504
11.6855
11.7123
11.7289
11.7372
11.7352
11.7244
11.7094
11.7
11.7
11.7157
11.7483
11.7873
11.8221
11.8475
11.8656
11.8813
11.9002
11.9253
11.9554
11.9866
12.0145
12.0358
12.0495
12.0581
12.0654
12.0729
12.0795
12.0838
12.0895
12.0996
12.1179
12.1443
12.1687
12.1806
12.174
12.1518
12.1253
12.1083
12.109
12.1245
12.145
12.1617
12.1685
12.1626
12.1464
12.1265
12.1127
1
1
1
1
1
1
1
1
1
1
1
1
1
1
1
1
1
1
1
1
1
1
1
1
1
1
1
1
1
1
1
1
1
1
1
1
1
1
1
1
1
1
1
1
1
1
1
1
1
1
1
1
1
1
1
1
1
1
1
1
1
1
1
1
1
1
1
1
1
1
1
1
1
1
1
1
1
1
1
1
1
1
1
1
1
1
1
1
1
1
1
1
1
1
1
1
1
1
1
1
1
1
1
1
1
1
6.23031
10.6243
10.742
10.7607
10.7748
10.7696
10.7633
10.7654
10.7779
10.8203
10.8788
10.9372
10.986
11.0242
11.0563
11.0882
11.1207
11.153
11.1832
11.2061
11.2185
11.2245
11.2324
11.2441
11.2669
11.2986
11.3317
11.3652
11.3951
11.4196
11.4416
11.4614
11.4826
11.4996
11.521
11.5488
11.5786
11.6095
11.6442
11.6788
11.7065
11.7245
11.7351
11.7357
11.7263
11.7117
11.7024
11.7018
11.7151
11.7458
11.783
11.816
11.8407
11.8599
11.8784
11.9007
11.9282
11.9581
11.9861
12.0087
12.0249
12.0369
12.0481
12.061
12.074
12.0835
12.0879
12.0903
12.0953
12.1102
12.1357
12.1619
12.1771
12.1733
12.1523
12.125
12.1062
12.1056
12.1205
12.1404
12.1563
12.1625
12.1566
12.1416
12.123
12.1105
1
1
1
1
1
1
1
1
1
1
1
1
1
1
1
1
1
1
1
1
1
1
1
1
1
1
1
1
1
1
1
1
1
1
1
1
1
1
1
1
1
1
1
1
1
1
1
1
1
1
1
1
1
1
1
1
1
1
1
1
1
1
1
1
1
1
1
1
1
1
1
1
1
1
1
1
1
1
1
1
1
1
1
1
1
1
1
1
1
1
1
1
1
1
1
1
1
1
1
1
1
1
1
1
1
1
6.07154
10.6055
10.7396
10.7561
10.7702
10.7664
10.7607
10.763
10.7752
10.8167
10.8744
10.9326
10.9819
11.0212
11.0546
11.0864
11.119
11.15
11.179
11.2016
11.2138
11.2207
11.2291
11.2415
11.2652
11.2962
11.3289
11.3614
11.3897
11.4133
11.436
11.4569
11.4798
11.4987
11.5207
11.5483
11.5762
11.6042
11.6371
11.6715
11.7002
11.7198
11.7323
11.7344
11.7263
11.7124
11.7034
11.7027
11.7147
11.7435
11.7791
11.8105
11.8344
11.8542
11.8748
11.9
11.9296
11.9597
11.9853
12.0031
12.0144
12.024
12.0371
12.0549
12.0725
12.0853
12.0916
12.0921
12.0948
12.1066
12.1281
12.1523
12.1681
12.1671
12.1493
12.1248
12.1076
12.1066
12.1188
12.135
12.1472
12.1514
12.1464
12.135
12.1213
12.1119
1
1
1
1
1
1
1
1
1
1
1
1
1
1
1
1
1
1
1
1
1
1
1
1
1
1
1
1
1
1
1
1
1
1
1
1
1
1
1
1
1
1
1
1
1
1
1
1
1
1
1
1
1
1
1
1
1
1
1
1
1
1
1
1
1
1
1
1
1
1
1
1
1
1
1
1
1
1
1
1
1
1
1
1
1
1
1
1
1
1
1
1
1
1
1
1
1
1
1
1
1
1
1
1
1
1
5.89281
10.5833
10.7342
10.7515
10.7655
10.7629
10.7578
10.7601
10.772
10.8126
10.8695
10.9273
10.9775
11.0175
11.052
11.084
11.1163
11.1464
11.1745
11.1972
11.2095
11.2175
11.2267
11.2395
11.2629
11.2925
11.3247
11.3564
11.3831
11.4062
11.4298
11.4521
11.4763
11.4976
11.5201
11.5473
11.5731
11.5985
11.6297
11.664
11.694
11.7152
11.7287
11.7311
11.7233
11.7098
11.7015
11.7015
11.7134
11.7409
11.7754
11.8055
11.8286
11.8485
11.8704
11.8978
11.9294
11.9599
11.9841
11.9987
12.0063
12.0138
12.027
12.0465
12.0677
12.0842
12.0923
12.0936
12.0969
12.1064
12.1234
12.1429
12.1564
12.1568
12.1428
12.1238
12.111
12.11
12.1183
12.1286
12.1355
12.1371
12.1336
12.1273
12.1202
12.1149
1
1
1
1
1
1
1
1
1
1
1
1
1
1
1
1
1
1
1
1
1
1
1
1
1
1
1
1
1
1
1
1
1
1
1
1
1
1
1
1
1
1
1
1
1
1
1
1
1
1
1
1
1
1
1
1
1
1
1
1
1
1
1
1
1
1
1
1
1
1
1
1
1
1
1
1
1
1
1
1
1
1
1
1
1
1
1
1
1
1
1
1
1
1
1
1
1
1
1
1
1
1
1
1
1
1
5.69452
10.5563
10.7269
10.7468
10.7607
10.7592
10.7546
10.7566
10.7681
10.8079
10.8643
10.9217
10.973
11.0135
11.0482
11.0805
11.1125
11.1423
11.1699
11.1924
11.2062
11.2153
11.2257
11.2386
11.2604
11.288
11.3193
11.3498
11.3752
11.3984
11.4233
11.447
11.4718
11.4954
11.5186
11.5454
11.5692
11.5928
11.6229
11.6576
11.689
11.7113
11.7251
11.7267
11.7178
11.7039
11.696
11.6972
11.7101
11.7369
11.7709
11.8003
11.8227
11.8428
11.8655
11.8943
11.9276
11.9592
11.9825
11.9955
12.0014
12.0076
12.0197
12.0372
12.0581
12.0769
12.0879
12.0929
12.0991
12.1083
12.1217
12.1358
12.145
12.1443
12.134
12.1219
12.1143
12.1136
12.1178
12.1218
12.1232
12.1223
12.1205
12.119
12.1183
12.1168
1
1
1
1
1
1
1
1
1
1
1
1
1
1
1
1
1
1
1
1
1
1
1
1
1
1
1
1
1
1
1
1
1
1
1
1
1
1
1
1
1
1
1
1
1
1
1
1
1
1
1
1
1
1
1
1
1
1
1
1
1
1
1
1
1
1
1
1
1
1
1
1
1
1
1
1
1
1
1
1
1
1
1
1
1
1
1
1
1
1
1
1
1
1
1
1
1
1
1
1
1
1
1
1
1
1
5.47682
10.5231
10.7184
10.7414
10.756
10.7552
10.7511
10.7526
10.7634
10.8028
10.8583
10.9157
10.9683
11.01
11.0436
11.076
11.1079
11.1371
11.165
11.1874
11.2033
11.2134
11.2255
11.2387
11.2582
11.2835
11.313
11.3418
11.3666
11.3906
11.4167
11.4416
11.4662
11.4916
11.5156
11.5419
11.5643
11.5872
11.6169
11.6522
11.6851
11.7084
11.7218
11.7219
11.7114
11.6965
11.6883
11.6902
11.7043
11.731
11.7647
11.7939
11.8164
11.837
11.8606
11.8907
11.9249
11.9573
11.9805
11.993
11.9991
12.0053
12.0158
12.0291
12.0451
12.0625
12.0769
12.0878
12.0993
12.1111
12.1228
12.1317
12.1351
12.1316
12.1243
12.1182
12.1153
12.1153
12.116
12.1149
12.112
12.1093
12.1087
12.1104
12.1144
12.1156
1
1
1
1
1
1
1
1
1
1
1
1
1
1
1
1
1
1
1
1
1
1
1
1
1
1
1
1
1
1
1
1
1
1
1
1
1
1
1
1
1
1
1
1
1
1
1
1
1
1
1
1
1
1
1
1
1
1
1
1
1
1
1
1
1
1
1
1
1
1
1
1
1
1
1
1
1
1
1
1
1
1
1
1
1
1
1
1
1
1
1
1
1
1
1
1
1
1
1
1
1
1
1
1
1
1
5.24006
10.482
10.7093
10.735
10.7513
10.7509
10.7476
10.7487
10.7584
10.797
10.8509
10.9096
10.9627
11.0061
11.0395
11.0713
11.1027
11.1312
11.1596
11.1823
11.2007
11.2115
11.2248
11.2387
11.2555
11.279
11.3064
11.3335
11.3583
11.3836
11.4105
11.4363
11.4596
11.4861
11.5105
11.536
11.5579
11.5812
11.6113
11.6477
11.6821
11.7062
11.7191
11.7174
11.7055
11.6895
11.6807
11.6826
11.6971
11.7231
11.7563
11.7858
11.8091
11.8311
11.8565
11.8878
11.9219
11.9537
11.977
11.99
11.9978
12.0052
12.0142
12.0231
12.0324
12.045
12.0603
12.0771
12.0958
12.1125
12.1249
12.1301
12.1279
12.1211
12.1149
12.1124
12.1127
12.1135
12.1124
12.1084
12.1031
12.0992
12.099
12.1018
12.1076
12.1101
1
1
1
1
1
1
1
1
1
1
1
1
1
1
1
1
1
1
1
1
1
1
1
1
1
1
1
1
1
1
1
1
1
1
1
1
1
1
1
1
1
1
1
1
1
1
1
1
1
1
1
1
1
1
1
1
1
1
1
1
1
1
1
1
1
1
1
1
1
1
1
1
1
1
1
1
1
1
1
1
1
1
1
1
1
1
1
1
1
1
1
1
1
1
1
1
1
1
1
1
1
1
1
1
1
1
4.98535
10.4314
10.6998
10.7276
10.7465
10.7462
10.7445
10.7454
10.7537
10.7903
10.8427
10.9025
10.9567
11.0007
11.035
11.0676
11.0978
11.1262
11.1545
11.178
11.1981
11.2099
11.2234
11.2364
11.2513
11.2736
11.2996
11.3255
11.3513
11.3783
11.4048
11.4311
11.4527
11.4791
11.5032
11.5279
11.5498
11.574
11.6053
11.643
11.679
11.704
11.7163
11.7135
11.7008
11.6841
11.6747
11.6761
11.6897
11.7141
11.746
11.7757
11.8006
11.8254
11.8539
11.8865
11.9195
11.949
11.971
11.9848
11.9951
12.0046
12.0133
12.0191
12.0226
12.0288
12.0416
12.0621
12.0875
12.1104
12.1255
12.1295
12.1239
12.1143
12.1068
12.1047
12.1062
12.1079
12.1069
12.1026
12.0968
12.0922
12.0913
12.0932
12.098
12.1002
1
1
1
1
1
1
1
1
1
1
1
1
1
1
1
1
1
1
1
1
1
1
1
1
1
1
1
1
1
1
1
1
1
1
1
1
1
1
1
1
1
1
1
1
1
1
1
1
1
1
1
1
1
1
1
1
1
1
1
1
1
1
1
1
1
1
1
1
1
1
1
1
1
1
1
1
1
1
1
1
1
1
1
1
1
1
1
1
1
1
1
1
1
1
1
1
1
1
1
1
1
1
1
1
1
1
4.71405
10.3697
10.6904
10.7192
10.7415
10.7411
10.7414
10.7423
10.7487
10.7831
10.8343
10.8939
10.9503
10.9948
11.0319
11.064
11.0931
11.1219
11.1504
11.1758
11.1965
11.209
11.2213
11.2305
11.2446
11.2664
11.2923
11.3184
11.3456
11.3742
11.4
11.4261
11.4466
11.4718
11.4951
11.5188
11.5403
11.5651
11.5976
11.6368
11.6745
11.7004
11.7128
11.7098
11.6973
11.6806
11.671
11.6717
11.6833
11.7051
11.7346
11.7639
11.7911
11.8201
11.8529
11.8872
11.9184
11.944
11.9627
11.9761
11.9885
12.0008
12.011
12.0162
12.0164
12.0174
12.0257
12.0457
12.0746
12.1028
12.1223
12.1285
12.1225
12.1112
12.1008
12.0962
12.0966
12.099
12.0997
12.0972
12.0924
12.0876
12.0849
12.0842
12.0862
12.0869
1
1
1
1
1
1
1
1
1
1
1
1
1
1
1
1
1
1
1
1
1
1
1
1
1
1
1
1
1
1
1
1
1
1
1
1
1
1
1
1
1
1
1
1
1
1
1
1
1
1
1
1
1
1
1
1
1
1
1
1
1
1
1
1
1
1
1
1
1
1
1
1
1
1
1
1
1
1
1
1
1
1
1
1
1
1
1
1
1
1
1
1
1
1
1
1
1
1
1
1
1
1
1
1
1
1
4.42901
10.2923
10.6816
10.7108
10.7366
10.7356
10.7372
10.7372
10.7423
10.7757
10.8264
10.8839
10.942
10.9884
11.0289
11.059
11.0879
11.1168
11.1474
11.1753
11.1962
11.2088
11.2171
11.2222
11.2352
11.2569
11.284
11.3113
11.3399
11.3702
11.3956
11.4205
11.4413
11.465
11.4879
11.5105
11.5309
11.5549
11.5877
11.628
11.6673
11.6943
11.7073
11.7054
11.6941
11.6783
11.6687
11.6689
11.6784
11.6971
11.7236
11.7516
11.7813
11.815
11.8524
11.8888
11.9185
11.9395
11.9529
11.9634
11.9765
11.9922
12.0058
12.0131
12.0138
12.0122
12.0158
12.0312
12.0586
12.089
12.1132
12.1248
12.1219
12.1108
12.0971
12.0878
12.0852
12.0873
12.0905
12.0914
12.0889
12.0841
12.079
12.0746
12.0727
12.0715
1
1
1
1
1
1
1
1
1
1
1
1
1
1
1
1
1
1
1
1
1
1
1
1
1
1
1
1
1
1
1
1
1
1
1
1
1
1
1
1
1
1
1
1
1
1
1
1
1
1
1
1
1
1
1
1
1
1
1
1
1
1
1
1
1
1
1
1
1
1
1
1
1
1
1
1
1
1
1
1
1
1
1
1
1
1
1
1
1
1
1
1
1
1
1
1
1
1
1
1
1
1
1
1
1
1
4.13515
10.1935
10.6734
10.7033
10.7317
10.7305
10.7313
10.7291
10.7346
10.7676
10.8183
10.8755
10.9333
10.9819
11.022
11.0501
11.0804
11.1107
11.1443
11.1754
11.1963
11.2079
11.211
11.2132
11.2245
11.2461
11.2744
11.3035
11.3331
11.364
11.3903
11.4139
11.436
11.4592
11.4825
11.5044
11.5231
11.5449
11.5766
11.6167
11.6566
11.6846
11.6988
11.6989
11.6898
11.6759
11.6668
11.6667
11.6743
11.6902
11.7138
11.7403
11.7718
11.8095
11.8513
11.8899
11.9188
11.9355
11.9426
11.9483
11.9598
11.9777
11.9964
12.0089
12.0131
12.012
12.0125
12.021
12.042
12.0706
12.0986
12.1168
12.12
12.1111
12.095
12.0803
12.0732
12.0741
12.0799
12.0847
12.0851
12.0803
12.0727
12.0645
12.0585
12.0551
1
1
1
1
1
1
1
1
1
1
1
1
1
1
1
1
1
1
1
1
1
1
1
1
1
1
1
1
1
1
1
1
1
1
1
1
1
1
1
1
1
1
1
1
1
1
1
1
1
1
1
1
1
1
1
1
1
1
1
1
1
1
1
1
1
1
1
1
1
1
1
1
1
1
1
1
1
1
1
1
1
1
1
1
1
1
1
1
1
1
1
1
1
1
1
1
1
1
1
1
1
1
1
1
1
1
3.83653
10.0676
10.6653
10.6969
10.7253
10.7263
10.7256
10.7201
10.7269
10.7584
10.8077
10.8673
10.9257
10.9759
11.0115
11.0386
11.0706
11.1041
11.1405
11.1739
11.1952
11.2049
11.2042
11.2044
11.2144
11.2355
11.2638
11.2942
11.3241
11.3539
11.3814
11.4046
11.4291
11.4533
11.4786
11.5004
11.5177
11.5369
11.5659
11.6042
11.6435
11.672
11.6873
11.6893
11.6829
11.6716
11.6635
11.6635
11.6701
11.684
11.7054
11.731
11.7632
11.8034
11.8483
11.8889
11.9176
11.9313
11.9331
11.9337
11.9412
11.9586
11.9818
12.0018
12.0125
12.0143
12.0131
12.0154
12.0278
12.0512
12.0796
12.1038
12.1151
12.1103
12.0936
12.074
12.0616
12.0606
12.0684
12.0767
12.0798
12.0753
12.0655
12.0539
12.0443
12.0387
1
1
1
1
1
1
1
1
1
1
1
1
1
1
1
1
1
1
1
1
1
1
1
1
1
1
1
1
1
1
1
1
1
1
1
1
1
1
1
1
1
1
1
1
1
1
1
1
1
1
1
1
1
1
1
1
1
1
1
1
1
1
1
1
1
1
1
1
1
1
1
1
1
1
1
1
1
1
1
1
1
1
1
1
1
1
1
1
1
1
1
1
1
1
1
1
1
1
1
1
1
1
1
1
1
1
3.53425
9.91641
10.6583
10.6906
10.7174
10.723
10.7215
10.7124
10.7199
10.7487
10.7974
10.8595
10.921
10.9692
11.0007
11.0282
11.0611
11.0977
11.1363
11.1702
11.1911
11.199
11.1971
11.1971
11.2065
11.2265
11.2538
11.2839
11.3131
11.3406
11.3683
11.3921
11.4196
11.4466
11.4747
11.4971
11.514
11.5312
11.557
11.5924
11.6299
11.6583
11.6744
11.6772
11.673
11.6641
11.6568
11.6577
11.6643
11.6775
11.6982
11.7236
11.7561
11.797
11.8428
11.8848
11.9133
11.9253
11.9246
11.9213
11.9241
11.9384
11.9627
11.9896
12.0085
12.0158
12.0152
12.0129
12.017
12.0333
12.0599
12.088
12.1063
12.1068
12.0911
12.0682
12.0511
12.048
12.0564
12.0673
12.0722
12.0685
12.0572
12.0432
12.0304
12.0226
1
1
1
1
1
1
1
1
1
1
1
1
1
1
1
1
1
1
1
1
1
1
1
1
1
1
1
1
1
1
1
1
1
1
1
1
1
1
1
1
1
1
1
1
1
1
1
1
1
1
1
1
1
1
1
1
1
1
1
1
1
1
1
1
1
1
1
1
1
1
1
1
1
1
1
1
1
1
1
1
1
1
1
1
1
1
1
1
1
1
1
1
1
1
1
1
1
1
1
1
1
1
1
1
1
1
3.22262
9.74516
10.6516
10.682
10.7103
10.7205
10.7166
10.7079
10.7119
10.7374
10.7889
10.8538
10.9169
10.9614
10.9921
11.0205
11.0543
11.0926
11.1317
11.1641
11.1836
11.1908
11.1903
11.1923
11.2009
11.2195
11.2454
11.2743
11.3024
11.3267
11.3533
11.3771
11.407
11.4385
11.4687
11.4928
11.5108
11.5268
11.5498
11.5824
11.6176
11.6456
11.6619
11.665
11.6619
11.654
11.6464
11.6484
11.6554
11.6692
11.6911
11.7175
11.7504
11.791
11.8358
11.8771
11.9053
11.9172
11.9163
11.9114
11.9111
11.9215
11.943
11.9718
11.9978
12.0125
12.0149
12.0113
12.0102
12.0197
12.0427
12.0717
12.0938
12.0992
12.086
12.0619
12.0418
12.0366
12.0446
12.0563
12.0624
12.0593
12.0475
12.032
12.0171
12.0073
1
1
1
1
1
1
1
1
1
1
1
1
1
1
1
1
1
1
1
1
1
1
1
1
1
1
1
1
1
1
1
1
1
1
1
1
1
1
1
1
1
1
1
1
1
1
1
1
1
1
1
1
1
1
1
1
1
1
1
1
1
1
1
1
1
1
1
1
1
1
1
1
1
1
1
1
1
1
1
1
1
1
1
1
1
1
1
1
1
1
1
1
1
1
1
1
1
1
1
1
1
1
1
1
1
1
2.89359
9.55106
10.6445
10.6721
10.7035
10.7127
10.7105
10.7054
10.7039
10.7303
10.782
10.8474
10.9094
10.9523
10.9849
11.0152
11.0501
11.0885
11.1259
11.1557
11.1743
11.1817
11.1841
11.1892
11.1975
11.2139
11.2388
11.2666
11.2931
11.3149
11.3388
11.3629
11.3934
11.4276
11.4596
11.4855
11.5056
11.5218
11.5435
11.574
11.6073
11.6346
11.6511
11.6546
11.6517
11.6431
11.6339
11.6359
11.6429
11.6579
11.6827
11.7119
11.7461
11.786
11.8281
11.8663
11.8935
11.9065
11.9073
11.9037
11.9027
11.9095
11.9262
11.9519
11.9797
12.0003
12.0086
12.0074
12.0053
12.0112
12.03
12.0572
12.0794
12.0876
12.0776
12.0544
12.0338
12.027
12.0332
12.044
12.0504
12.0478
12.0363
12.0204
12.0042
11.993
1
1
1
1
1
1
1
1
1
1
1
1
1
1
1
1
1
1
1
1
1
1
1
1
1
1
1
1
1
1
1
1
1
1
1
1
1
1
1
1
1
1
1
1
1
1
1
1
1
1
1
1
1
1
1
1
1
1
1
1
1
1
1
1
1
1
1
1
1
1
1
1
1
1
1
1
1
1
1
1
1
1
1
1
1
1
1
1
1
1
1
1
1
1
1
1
1
1
1
1
1
1
1
1
1
1
2.56176
9.3287
10.6401
10.663
10.6931
10.7029
10.7072
10.6989
10.701
10.7252
10.7746
10.8382
10.8996
10.9439
10.9786
11.0106
11.0461
11.0833
11.1187
11.147
11.1655
11.1735
11.179
11.1867
11.1953
11.2091
11.2326
11.2596
11.2845
11.3061
11.3275
11.3513
11.3811
11.416
11.4483
11.4746
11.4966
11.5143
11.5362
11.5661
11.5982
11.625
11.6419
11.6463
11.6436
11.6337
11.6217
11.6218
11.627
11.6427
11.6717
11.7055
11.7427
11.7823
11.8206
11.8539
11.8788
11.8927
11.8968
11.8968
11.8971
11.9018
11.9139
11.9333
11.9569
11.9794
11.9938
11.9985
12.0004
12.0067
12.0225
12.0455
12.0647
12.0732
12.0653
12.0451
12.0263
12.0186
12.0221
12.0306
12.0362
12.0339
12.0231
12.0079
11.9916
11.9797
1
1
1
1
1
1
1
1
1
1
1
1
1
1
1
1
1
1
1
1
1
1
1
1
1
1
1
1
1
1
1
1
1
1
1
1
1
1
1
1
1
1
1
1
1
1
1
1
1
1
1
1
1
1
1
1
1
1
1
1
1
1
1
1
1
1
1
1
1
1
1
1
1
1
1
1
1
1
1
1
1
1
1
1
1
1
1
1
1
1
1
1
1
1
1
1
1
1
1
1
1
1
1
1
1
1
2.2378
9.05373
10.6421
10.6565
10.684
10.6972
10.6967
10.6957
10.6983
10.7213
10.7658
10.8293
10.8905
10.9368
10.9732
11.006
11.0405
11.076
11.1102
11.1387
11.1583
11.1666
11.1746
11.1825
11.1916
11.2044
11.2259
11.2524
11.2763
11.2981
11.3186
11.343
11.372
11.4056
11.4369
11.4616
11.4838
11.5032
11.5265
11.557
11.5887
11.6155
11.6332
11.6393
11.6375
11.627
11.6117
11.6078
11.609
11.624
11.6576
11.6975
11.7394
11.7795
11.8143
11.8421
11.8626
11.8761
11.884
11.8885
11.8923
11.8974
11.9057
11.9183
11.9344
11.9526
11.97
11.983
11.9926
12.0034
12.0182
12.0363
12.0509
12.0571
12.0502
12.034
12.0184
12.0106
12.0114
12.0167
12.0203
12.018
12.0081
11.9942
11.9791
11.9675
1
1
1
1
1
1
1
1
1
1
1
1
1
1
1
1
1
1
1
1
1
1
1
1
1
1
1
1
1
1
1
1
1
1
1
1
1
1
1
1
1
1
1
1
1
1
1
1
1
1
1
1
1
1
1
1
1
1
1
1
1
1
1
1
1
1
1
1
1
1
1
1
1
1
1
1
1
1
1
1
1
1
1
1
1
1
1
1
1
1
1
1
1
1
1
1
1
1
1
1
1
1
1
1
1
1
1.94156
8.72146
10.6349
10.6485
10.6785
10.6865
10.6894
10.6892
10.692
10.7134
10.7553
10.8205
10.8827
10.9312
10.9686
11.0009
11.0328
11.0669
11.1002
11.1308
11.1516
11.161
11.1701
11.1763
11.184
11.1975
11.2182
11.2433
11.2669
11.2901
11.311
11.3365
11.3654
11.3976
11.4269
11.4488
11.4693
11.4894
11.5139
11.5449
11.5766
11.6039
11.6232
11.6323
11.6323
11.6221
11.6044
11.5951
11.5908
11.6037
11.6406
11.6877
11.7357
11.7774
11.8095
11.8317
11.8466
11.8576
11.8675
11.8771
11.8858
11.8935
11.9
11.9066
11.9148
11.9259
11.9416
11.9608
11.9803
11.998
12.0142
12.0285
12.0384
12.041
12.0342
12.0218
12.0096
12.002
12.0002
12.0021
12.0033
12.0003
11.9913
11.9794
11.9664
11.9559
1
1
1
1
1
1
1
1
1
1
1
1
1
1
1
1
1
1
1
1
1
1
1
1
1
1
1
1
1
1
1
1
1
1
1
1
1
1
1
1
1
1
1
1
1
1
1
1
1
1
1
1
1
1
1
1
1
1
1
1
1
1
1
1
1
1
1
1
1
1
1
1
1
1
1
1
1
1
1
1
1
1
1
1
1
1
1
1
1
1
1
1
1
1
1
1
1
1
1
1
1
1
1
1
1
1
1.67386
8.31884
10.6202
10.6455
10.6765
10.6831
10.6819
10.6788
10.6832
10.7003
10.7459
10.8102
10.8748
10.9256
10.9639
10.9948
11.0239
11.0564
11.0898
11.1228
11.1438
11.1565
11.1637
11.1683
11.1732
11.186
11.2066
11.2311
11.2554
11.2801
11.3026
11.3295
11.3597
11.3911
11.4182
11.4373
11.4556
11.4756
11.5001
11.5304
11.5617
11.5891
11.6105
11.6237
11.6266
11.6175
11.5986
11.5834
11.5736
11.5843
11.6228
11.6763
11.7307
11.775
11.8055
11.8227
11.8315
11.8383
11.8478
11.8614
11.8759
11.8879
11.8953
11.898
11.8992
11.9036
11.9146
11.9349
11.9616
11.9873
12.0069
12.02
12.0264
12.026
12.0195
12.0098
11.9998
11.992
11.9878
11.9865
11.9853
11.9814
11.9734
11.9637
11.9533
11.9444
1
1
1
1
1
1
1
1
1
1
1
1
1
1
1
1
1
1
1
1
1
1
1
1
1
1
1
1
1
1
1
1
1
1
1
1
1
1
1
1
1
1
1
1
1
1
1
1
1
1
1
1
1
1
1
1
1
1
1
1
1
1
1
1
1
1
1
1
1
1
1
1
1
1
1
1
1
1
1
1
1
1
1
1
1
1
1
1
1
1
1
1
1
1
1
1
1
1
1
1
1
1
1
1
1
1
1.43653
7.85077
10.6001
10.6404
10.6756
10.6848
10.679
10.6725
10.6772
10.6898
10.7352
10.7982
10.8656
10.919
10.9587
10.9887
11.016
11.0466
11.0799
11.1136
11.1359
11.1517
11.1565
11.1586
11.1611
11.1711
11.1915
11.2156
11.2409
11.2668
11.2916
11.3209
11.3533
11.3844
11.4093
11.4268
11.4436
11.4633
11.4872
11.5158
11.5453
11.5719
11.5945
11.6117
11.6184
11.6109
11.5919
11.5715
11.5572
11.5667
11.6061
11.6646
11.7242
11.7712
11.8011
11.8146
11.8177
11.8196
11.8264
11.8412
11.8611
11.8785
11.8891
11.8913
11.8876
11.8862
11.8927
11.9104
11.9386
11.9693
11.9932
12.0075
12.0134
12.0128
12.0074
11.9993
11.9896
11.9803
11.9735
11.9696
11.9664
11.962
11.9549
11.9472
11.9394
11.9325
1
1
1
1
1
1
1
1
1
1
1
1
1
1
1
1
1
1
1
1
1
1
1
1
1
1
1
1
1
1
1
1
1
1
1
1
1
1
1
1
1
1
1
1
1
1
1
1
1
1
1
1
1
1
1
1
1
1
1
1
1
1
1
1
1
1
1
1
1
1
1
1
1
1
1
1
1
1
1
1
1
1
1
1
1
1
1
1
1
1
1
1
1
1
1
1
1
1
1
1
1
1
1
1
1
1
1.21515
7.33624
10.5806
10.6372
10.6754
10.6863
10.6794
10.6737
10.6709
10.6823
10.7242
10.7868
10.8555
10.9107
10.9515
10.982
11.0089
11.0385
11.0716
11.1043
11.1288
11.1443
11.1505
11.1501
11.1499
11.157
11.175
11.1982
11.2239
11.2508
11.2781
11.3101
11.3443
11.3759
11.3994
11.4164
11.4327
11.4529
11.4762
11.5026
11.5299
11.5548
11.5773
11.5961
11.6056
11.6003
11.5824
11.5587
11.5423
11.5521
11.5923
11.6535
11.7163
11.765
11.7948
11.8063
11.8047
11.8014
11.8042
11.8181
11.8409
11.8642
11.8797
11.8841
11.8797
11.8743
11.8768
11.8904
11.9148
11.9451
11.9717
11.9891
11.9981
12.0009
11.9981
11.9906
11.9793
11.9669
11.957
11.9508
11.9467
11.9423
11.9363
11.9301
11.9244
11.919
1
1
1
1
1
1
1
1
1
1
1
1
1
1
1
1
1
1
1
1
1
1
1
1
1
1
1
1
1
1
1
1
1
1
1
1
1
1
1
1
1
1
1
1
1
1
1
1
1
1
1
1
1
1
1
1
1
1
1
1
1
1
1
1
1
1
1
1
1
1
1
1
1
1
1
1
1
1
1
1
1
1
1
1
1
1
1
1
1
1
1
1
1
1
1
1
1
1
1
1
1
1
1
1
1
1
1.01236
6.73444
10.5777
10.6278
10.6644
10.6812
10.6778
10.6721
10.6656
10.6757
10.7148
10.7764
10.8444
10.9005
10.9421
10.9739
11.0022
11.0323
11.0645
11.0955
11.1198
11.1357
11.145
11.1457
11.1426
11.1471
11.1618
11.1826
11.2069
11.2337
11.2621
11.2959
11.3314
11.364
11.3874
11.4048
11.422
11.4436
11.4664
11.4909
11.5163
11.5398
11.5617
11.5789
11.5884
11.5847
11.568
11.5441
11.5291
11.5409
11.5817
11.643
11.7064
11.7557
11.7857
11.7964
11.792
11.7845
11.7831
11.7944
11.8175
11.845
11.8656
11.8744
11.8729
11.8668
11.8663
11.875
11.8928
11.9176
11.9433
11.9644
11.9795
11.9888
11.9905
11.9835
11.9691
11.9522
11.9385
11.9304
11.9262
11.9227
11.9178
11.9127
11.9081
11.9036
1
1
1
1
1
1
1
1
1
1
1
1
1
1
1
1
1
1
1
1
1
1
1
1
1
1
1
1
1
1
1
1
1
1
1
1
1
1
1
1
1
1
1
1
1
1
1
1
1
1
1
1
1
1
1
1
1
1
1
1
1
1
1
1
1
1
1
1
1
1
1
1
1
1
1
1
1
1
1
1
1
1
1
1
1
1
1
1
1
1
1
1
1
1
1
1
1
1
1
1
1
1
1
1
1
1
1.00011
6.02773
10.5057
10.6131
10.6528
10.6771
10.678
10.6692
10.6631
10.6715
10.7079
10.7662
10.8319
10.8878
10.9292
10.9627
10.9936
11.0256
11.0578
11.0874
11.1077
11.128
11.1389
11.142
11.1398
11.1426
11.1533
11.1712
11.1926
11.2175
11.2453
11.2789
11.3146
11.3481
11.3723
11.3905
11.4096
11.4331
11.4557
11.4788
11.504
11.5273
11.5492
11.5623
11.5688
11.5648
11.548
11.527
11.5172
11.5327
11.5736
11.6329
11.6947
11.7435
11.7736
11.7845
11.7793
11.7691
11.7642
11.7718
11.7926
11.8211
11.8458
11.8601
11.8638
11.8608
11.8589
11.8633
11.8738
11.8905
11.9121
11.9356
11.9579
11.9753
11.9827
11.9764
11.9585
11.9363
11.9185
11.9088
11.9051
11.9029
11.8991
11.8946
11.8902
11.8858
1
1
1
1
1
1
1
1
1
1
1
1
1
1
1
1
1
1
1
1
1
1
1
1
1
1
1
1
1
1
1
1
1
1
1
1
1
1
1
1
1
1
1
1
1
1
1
1
1
1
1
1
1
1
1
1
1
1
1
1
1
1
1
1
1
1
1
1
1
1
1
1
1
1
1
1
1
1
1
1
1
1
1
1
1
1
1
1
1
1
1
1
1
1
1
1
1
1
1
1
1
1
1
1
1
1
1
5.30292
10.4168
10.5993
10.6421
10.6688
10.6689
10.665
10.6615
10.6685
10.7015
10.7549
10.8179
10.8738
10.9145
10.9497
10.983
11.0164
11.0489
11.076
11.0947
11.1151
11.1292
11.1348
11.1361
11.1394
11.1483
11.1639
11.1823
11.2041
11.2303
11.2616
11.296
11.3292
11.3546
11.3743
11.395
11.4193
11.4424
11.4654
11.4918
11.5167
11.5396
11.5482
11.5489
11.5422
11.5243
11.5079
11.5058
11.5261
11.5669
11.6225
11.6808
11.728
11.7579
11.7698
11.7657
11.755
11.7477
11.7517
11.7689
11.7951
11.8216
11.8405
11.8506
11.8535
11.8531
11.854
11.8575
11.8657
11.8811
11.9048
11.9333
11.9589
11.9726
11.9678
11.9462
11.9193
11.8979
11.887
11.884
11.8833
11.8805
11.876
11.8709
11.8659
1
1
1
1
1
1
1
1
1
1
1
1
1
1
1
1
1
1
1
1
1
1
1
1
1
1
1
1
1
1
1
1
1
1
1
1
1
1
1
1
1
1
1
1
1
1
1
1
1
1
1
1
1
1
1
1
1
1
1
1
1
1
1
1
1
1
1
1
1
1
1
1
1
1
1
1
1
1
1
1
1
1
1
1
1
1
1
1
1
1
1
1
1
1
1
1
1
1
1
1
1
1
1
1
1
1
1
4.57393
10.2963
10.5964
10.6309
10.6581
10.6615
10.6607
10.6598
10.667
10.694
10.742
10.8029
10.8589
10.9006
10.938
10.9734
11.007
11.0391
11.0636
11.0802
11.0971
11.1122
11.1216
11.1272
11.1337
11.1437
11.159
11.1756
11.1948
11.2182
11.2457
11.2778
11.3095
11.3362
11.3578
11.3794
11.4026
11.4258
11.4498
11.478
11.5058
11.5305
11.5359
11.5303
11.519
11.5006
11.4888
11.4939
11.5191
11.5599
11.6117
11.6653
11.7097
11.739
11.7522
11.7509
11.7419
11.7342
11.7355
11.7483
11.7693
11.7938
11.8156
11.8317
11.8414
11.8452
11.8446
11.842
11.8428
11.8524
11.8751
11.9082
11.9402
11.9595
11.9563
11.932
11.9015
11.8775
11.8655
11.8632
11.8636
11.8612
11.856
11.8495
11.8434
1
1
1
1
1
1
1
1
1
1
1
1
1
1
1
1
1
1
1
1
1
1
1
1
1
1
1
1
1
1
1
1
1
1
1
1
1
1
1
1
1
1
1
1
1
1
1
1
1
1
1
1
1
1
1
1
1
1
1
1
1
1
1
1
1
1
1
1
1
1
1
1
1
1
1
1
1
1
1
1
1
1
1
1
1
1
1
1
1
1
1
1
1
1
1
1
1
1
1
1
1
1
1
1
1
1
1
3.8767
10.0966
10.6065
10.6259
10.6515
10.656
10.6558
10.6562
10.6614
10.6852
10.7307
10.7897
10.846
10.8898
10.9285
10.9631
10.9948
11.0248
11.0498
11.0676
11.0813
11.0939
11.1036
11.1116
11.1219
11.1351
11.1526
11.1697
11.1879
11.2086
11.2324
11.2616
11.2911
11.3184
11.3419
11.3641
11.3858
11.4078
11.433
11.4625
11.493
11.5192
11.5235
11.5141
11.4982
11.4802
11.4718
11.4815
11.5099
11.5506
11.5992
11.6481
11.689
11.717
11.7315
11.7339
11.7283
11.7227
11.7227
11.7308
11.7456
11.7654
11.7871
11.8077
11.8238
11.833
11.8331
11.8269
11.822
11.8271
11.8487
11.884
11.9196
11.9422
11.9402
11.9144
11.8821
11.8567
11.8443
11.8427
11.8439
11.8414
11.8348
11.8263
11.8189
1
1
1
1
1
1
1
1
1
1
1
1
1
1
1
1
1
1
1
1
1
1
1
1
1
1
1
1
1
1
1
1
1
1
1
1
1
1
1
1
1
1
1
1
1
1
1
1
1
1
1
1
1
1
1
1
1
1
1
1
1
1
1
1
1
1
1
1
1
1
1
1
1
1
1
1
1
1
1
1
1
1
1
1
1
1
1
1
1
1
1
1
1
1
1
1
1
1
1
1
1
1
1
1
1
1
1
3.23203
9.80169
10.6191
10.6247
10.6468
10.6524
10.6513
10.652
10.6549
10.6727
10.7173
10.7764
10.8339
10.8794
10.9181
10.951
10.9817
11.0122
11.0379
11.0567
11.0691
11.0776
11.0845
11.092
11.1041
11.1203
11.1413
11.1611
11.1804
11.1999
11.222
11.248
11.2746
11.3012
11.3262
11.3496
11.3705
11.3914
11.4174
11.4468
11.478
11.5039
11.5083
11.4988
11.4815
11.4648
11.4588
11.4702
11.4986
11.5381
11.5841
11.6292
11.667
11.6934
11.7081
11.7141
11.7138
11.7122
11.7124
11.7164
11.7249
11.7388
11.7576
11.7799
11.8012
11.8152
11.8169
11.8096
11.8016
11.8044
11.8252
11.8611
11.8977
11.9214
11.9198
11.8939
11.8616
11.8362
11.8237
11.8223
11.8238
11.8208
11.8125
11.8015
11.7926
1
1
1
1
1
1
1
1
1
1
1
1
1
1
1
1
1
1
1
1
1
1
1
1
1
1
1
1
1
1
1
1
1
1
1
1
1
1
1
1
1
1
1
1
1
1
1
1
1
1
1
1
1
1
1
1
1
1
1
1
1
1
1
1
1
1
1
1
1
1
1
1
1
1
1
1
1
1
1
1
1
1
1
1
1
1
1
1
1
1
1
1
1
1
1
1
1
1
1
1
1
1
1
1
1
1
1
2.64324
9.40793
10.6141
10.6242
10.6448
10.651
10.6475
10.6451
10.6459
10.6595
10.7041
10.7646
10.8237
10.8713
10.9094
10.9408
10.97
11.0004
11.0283
11.0497
11.062
11.0671
11.0693
11.0723
11.0818
11.0995
11.1235
11.1477
11.1705
11.1913
11.2135
11.236
11.2594
11.2842
11.3094
11.3341
11.3559
11.3774
11.404
11.4321
11.4612
11.4847
11.4903
11.4835
11.4688
11.455
11.4495
11.4596
11.4848
11.5217
11.5658
11.6089
11.6443
11.6686
11.6829
11.6912
11.6967
11.7005
11.7023
11.7036
11.7065
11.7141
11.7296
11.7515
11.7752
11.7922
11.7955
11.7887
11.7803
11.7831
11.8045
11.8396
11.8754
11.8979
11.8957
11.871
11.84