/*--------------------------------*- C++ -*----------------------------------*\
  =========                 |
  \\      /  F ield         | OpenFOAM: The Open Source CFD Toolbox
   \\    /   O peration     | Website:  https://openfoam.org
    \\  /    A nd           | Version:  7
     \\/     M anipulation  |
\*---------------------------------------------------------------------------*/
FoamFile
{
    version     2.0;
    format      ascii;
    class       volScalarField;
    location    "1.2";
    object      rho;
}
// * * * * * * * * * * * * * * * * * * * * * * * * * * * * * * * * * * * * * //

dimensions      [1 -3 0 0 0 0 0];

internalField   nonuniform List<scalar> 
258048
(
1.40001
1.40001
1.40001
1.40001
1.40001
1.40001
1.40001
1.40001
1.40001
1.40001
1.40001
1.40001
1.40001
1.40001
1.40001
1.40001
1.40001
1.40001
1.40001
1.40001
1.40001
1.40001
1.40001
1.40001
1.40001
1.40001
1.40001
1.40001
1.40001
1.40001
1.40001
1.40001
1.40001
1.40001
1.40001
1.40001
1.40001
1.40001
1.40001
1.40001
1.40001
1.40001
1.40001
1.40001
1.40001
1.40001
1.40001
1.40001
1.40001
1.40001
1.40001
1.40001
1.40001
1.40001
1.40001
1.40001
1.40001
1.40001
1.40001
1.40001
1.40001
1.40001
1.40001
1.40001
1.40001
1.40001
1.40001
1.40001
1.40001
1.40001
1.40001
1.40001
1.40001
1.40001
1.40001
1.40001
1.40001
1.40001
1.40001
1.40001
1.40001
1.40001
1.40001
1.40001
1.40001
1.40001
1.40001
1.40001
1.40001
1.40001
1.40001
1.40001
1.40001
1.40001
1.40001
1.40001
1.40001
1.40001
1.40001
1.40001
1.40001
1.40001
1.40001
1.40001
1.40001
1.40001
4.09386
5.54066
5.53659
5.53424
5.52386
5.50723
5.4899
5.47822
5.47582
5.48707
5.51105
5.53584
5.56104
5.58251
5.60448
5.62866
5.65076
5.67042
5.68607
5.69327
5.68932
5.67638
5.66071
5.65065
5.64909
5.65946
5.67563
5.69695
5.72056
5.74018
5.7533
5.76143
5.76225
5.7577
5.75414
5.75637
5.76615
5.7817
5.80013
5.81796
5.8305
5.83534
5.83278
5.82499
5.81605
5.80863
5.80532
5.80751
5.81636
5.82872
5.84231
5.85364
5.86053
5.86306
5.8633
5.86427
5.86833
5.87619
5.8867
5.89768
5.90647
5.91071
5.91068
5.90764
5.90352
5.90166
5.90325
5.90781
5.91374
5.91671
5.91426
5.90757
5.89875
5.89141
5.88806
5.8878
5.88844
5.88647
5.8749
5.84381
5.78217
5.68543
5.56824
5.46393
5.40366
5.38472
1.40001
1.40001
1.40001
1.40001
1.40001
1.40001
1.40001
1.40001
1.40001
1.40001
1.40001
1.40001
1.40001
1.40001
1.40001
1.40001
1.40001
1.40001
1.40001
1.40001
1.40001
1.40001
1.40001
1.40001
1.40001
1.40001
1.40001
1.40001
1.40001
1.40001
1.40001
1.40001
1.40001
1.40001
1.40001
1.40001
1.40001
1.40001
1.40001
1.40001
1.40001
1.40001
1.40001
1.40001
1.40001
1.40001
1.40001
1.40001
1.40001
1.40001
1.40001
1.40001
1.40001
1.40001
1.40001
1.40001
1.40001
1.40001
1.40001
1.40001
1.40001
1.40001
1.40001
1.40001
1.40001
1.40001
1.40001
1.40001
1.40001
1.40001
1.40001
1.40001
1.40001
1.40001
1.40001
1.40001
1.40001
1.40001
1.40001
1.40001
1.40001
1.40001
1.40001
1.40001
1.40001
1.40001
1.40001
1.40001
1.40001
1.40001
1.40001
1.40001
1.40001
1.40001
1.40001
1.40001
1.40001
1.40001
1.40001
1.40001
1.40001
1.40001
1.40001
1.40001
1.40001
1.40001
4.0826
5.53418
5.53789
5.53451
5.52419
5.50754
5.49024
5.47835
5.47608
5.48748
5.51087
5.53569
5.56083
5.58233
5.60439
5.62854
5.65086
5.67058
5.68615
5.69319
5.68904
5.67583
5.66024
5.65018
5.64903
5.65958
5.67615
5.69767
5.72133
5.74075
5.75355
5.76125
5.76202
5.75729
5.75374
5.7561
5.76608
5.78174
5.80006
5.81762
5.82991
5.83461
5.83204
5.82443
5.81565
5.80831
5.80498
5.80703
5.81571
5.82808
5.84171
5.85305
5.85992
5.86253
5.86299
5.86422
5.86854
5.87661
5.88726
5.89822
5.90672
5.91062
5.91015
5.90671
5.90252
5.90066
5.90235
5.90696
5.91263
5.91566
5.91419
5.90874
5.90077
5.89344
5.88891
5.88711
5.88654
5.88408
5.87305
5.84318
5.78275
5.68658
5.56906
5.46373
5.40208
5.38251
1.40001
1.40001
1.40001
1.40001
1.40001
1.40001
1.40001
1.40001
1.40001
1.40001
1.40001
1.40001
1.40001
1.40001
1.40001
1.40001
1.40001
1.40001
1.40001
1.40001
1.40001
1.40001
1.40001
1.40001
1.40001
1.40001
1.40001
1.40001
1.40001
1.40001
1.40001
1.40001
1.40001
1.40001
1.40001
1.40001
1.40001
1.40001
1.40001
1.40001
1.40001
1.40001
1.40001
1.40001
1.40001
1.40001
1.40001
1.40001
1.40001
1.40001
1.40001
1.40001
1.40001
1.40001
1.40001
1.40001
1.40001
1.40001
1.40001
1.40001
1.40001
1.40001
1.40001
1.40001
1.40001
1.40001
1.40001
1.40001
1.40001
1.40001
1.40001
1.40001
1.40001
1.40001
1.40001
1.40001
1.40001
1.40001
1.40001
1.40001
1.40001
1.40001
1.40001
1.40001
1.40001
1.40001
1.40001
1.40001
1.40001
1.40001
1.40001
1.40001
1.40001
1.40001
1.40001
1.40001
1.40001
1.40001
1.40001
1.40001
1.40001
1.40001
1.40001
1.40001
1.40001
1.40001
4.06293
5.52963
5.53688
5.53394
5.52388
5.50737
5.49012
5.47825
5.47583
5.48767
5.51049
5.53542
5.56047
5.58216
5.60438
5.62855
5.65097
5.67064
5.68611
5.69292
5.68855
5.67505
5.6595
5.64949
5.64889
5.65963
5.67664
5.6984
5.72213
5.74132
5.75372
5.761
5.76172
5.75673
5.75312
5.75568
5.76594
5.7817
5.79987
5.81717
5.82923
5.83381
5.83126
5.82389
5.81531
5.80801
5.80463
5.8064
5.81472
5.82705
5.84069
5.85198
5.85882
5.86157
5.86243
5.86413
5.86883
5.87707
5.88769
5.89843
5.90664
5.91032
5.90977
5.9065
5.90256
5.90033
5.90099
5.90442
5.90917
5.91261
5.91319
5.91045
5.90462
5.89741
5.89069
5.88594
5.88304
5.87961
5.86941
5.84163
5.78346
5.68851
5.57045
5.46332
5.39916
5.37813
1.40001
1.40001
1.40001
1.40001
1.40001
1.40001
1.40001
1.40001
1.40001
1.40001
1.40001
1.40001
1.40001
1.40001
1.40001
1.40001
1.40001
1.40001
1.40001
1.40001
1.40001
1.40001
1.40001
1.40001
1.40001
1.40001
1.40001
1.40001
1.40001
1.40001
1.40001
1.40001
1.40001
1.40001
1.40001
1.40001
1.40001
1.40001
1.40001
1.40001
1.40001
1.40001
1.40001
1.40001
1.40001
1.40001
1.40001
1.40001
1.40001
1.40001
1.40001
1.40001
1.40001
1.40001
1.40001
1.40001
1.40001
1.40001
1.40001
1.40001
1.40001
1.40001
1.40001
1.40001
1.40001
1.40001
1.40001
1.40001
1.40001
1.40001
1.40001
1.40001
1.40001
1.40001
1.40001
1.40001
1.40001
1.40001
1.40001
1.40001
1.40001
1.40001
1.40001
1.40001
1.40001
1.40001
1.40001
1.40001
1.40001
1.40001
1.40001
1.40001
1.40001
1.40001
1.40001
1.40001
1.40001
1.40001
1.40001
1.40001
1.40001
1.40001
1.40001
1.40001
1.40001
1.40001
4.03275
5.52465
5.53591
5.53297
5.5234
5.50709
5.48996
5.47795
5.47547
5.48759
5.50996
5.535
5.56001
5.58212
5.6047
5.62898
5.65132
5.67066
5.68585
5.69225
5.68754
5.67385
5.65849
5.64862
5.64885
5.65986
5.67719
5.6991
5.72281
5.74167
5.7537
5.76057
5.76122
5.75602
5.7524
5.75522
5.76576
5.78149
5.79939
5.81635
5.82822
5.83275
5.83042
5.8235
5.81531
5.80815
5.80474
5.80614
5.81375
5.82576
5.83917
5.85027
5.85708
5.86019
5.86173
5.86422
5.86949
5.87788
5.88824
5.89837
5.90591
5.90913
5.90855
5.90589
5.90264
5.90039
5.89998
5.90168
5.90518
5.90912
5.91174
5.91186
5.90854
5.90162
5.89271
5.88471
5.8792
5.87473
5.86535
5.8397
5.78373
5.68977
5.57112
5.4622
5.39542
5.37283
1.40001
1.40001
1.40001
1.40001
1.40001
1.40001
1.40001
1.40001
1.40001
1.40001
1.40001
1.40001
1.40001
1.40001
1.40001
1.40001
1.40001
1.40001
1.40001
1.40001
1.40001
1.40001
1.40001
1.40001
1.40001
1.40001
1.40001
1.40001
1.40001
1.40001
1.40001
1.40001
1.40001
1.40001
1.40001
1.40001
1.40001
1.40001
1.40001
1.40001
1.40001
1.40001
1.40001
1.40001
1.40001
1.40001
1.40001
1.40001
1.40001
1.40001
1.40001
1.40001
1.40001
1.40001
1.40001
1.40001
1.40001
1.40001
1.40001
1.40001
1.40001
1.40001
1.40001
1.40001
1.40001
1.40001
1.40001
1.40001
1.40001
1.40001
1.40001
1.40001
1.40001
1.40001
1.40001
1.40001
1.40001
1.40001
1.40001
1.40001
1.40001
1.40001
1.40001
1.40001
1.40001
1.40001
1.40001
1.40001
1.40001
1.40001
1.40001
1.40001
1.40001
1.40001
1.40001
1.40001
1.40001
1.40001
1.40001
1.40001
1.40001
1.40001
1.40001
1.40001
1.40001
1.40001
3.99334
5.51928
5.5346
5.5317
5.52281
5.50629
5.48896
5.47685
5.47444
5.48687
5.50909
5.5344
5.55968
5.58251
5.6057
5.6301
5.65208
5.67073
5.68535
5.69096
5.68568
5.67191
5.657
5.64761
5.64884
5.66023
5.67769
5.69962
5.72312
5.74157
5.75332
5.75993
5.7605
5.75526
5.75169
5.75475
5.76546
5.78095
5.79848
5.81515
5.82696
5.83158
5.82967
5.82343
5.81577
5.80879
5.80544
5.80639
5.813
5.82449
5.83741
5.8481
5.85483
5.85844
5.86092
5.86448
5.87048
5.8789
5.88855
5.8975
5.90395
5.9068
5.90661
5.90503
5.90299
5.9011
5.89978
5.89963
5.90153
5.90529
5.90978
5.91254
5.91135
5.90506
5.89457
5.88371
5.87572
5.8703
5.86156
5.83756
5.78315
5.68973
5.57046
5.46009
5.39127
5.36748
1.40001
1.40001
1.40001
1.40001
1.40001
1.40001
1.40001
1.40001
1.40001
1.40001
1.40001
1.40001
1.40001
1.40001
1.40001
1.40001
1.40001
1.40001
1.40001
1.40001
1.40001
1.40001
1.40001
1.40001
1.40001
1.40001
1.40001
1.40001
1.40001
1.40001
1.40001
1.40001
1.40001
1.40001
1.40001
1.40001
1.40001
1.40001
1.40001
1.40001
1.40001
1.40001
1.40001
1.40001
1.40001
1.40001
1.40001
1.40001
1.40001
1.40001
1.40001
1.40001
1.40001
1.40001
1.40001
1.40001
1.40001
1.40001
1.40001
1.40001
1.40001
1.40001
1.40001
1.40001
1.40001
1.40001
1.40001
1.40001
1.40001
1.40001
1.40001
1.40001
1.40001
1.40001
1.40001
1.40001
1.40001
1.40001
1.40001
1.40001
1.40001
1.40001
1.40001
1.40001
1.40001
1.40001
1.40001
1.40001
1.40001
1.40001
1.40001
1.40001
1.40001
1.40001
1.40001
1.40001
1.40001
1.40001
1.40001
1.40001
1.40001
1.40001
1.40001
1.40001
1.40001
1.40001
3.94438
5.51286
5.5339
5.52958
5.52106
5.50456
5.48718
5.47538
5.47335
5.486
5.50829
5.53397
5.55968
5.58342
5.60733
5.63169
5.65308
5.67068
5.68428
5.68865
5.68265
5.66895
5.65482
5.64645
5.64891
5.66078
5.6783
5.70014
5.72314
5.74098
5.75249
5.75897
5.75952
5.75443
5.75099
5.7543
5.765
5.78002
5.79706
5.81352
5.82544
5.83032
5.82901
5.8236
5.81657
5.80983
5.80657
5.80711
5.81261
5.82344
5.83565
5.84574
5.8523
5.85642
5.85997
5.86477
5.87159
5.87992
5.88845
5.89578
5.90085
5.90328
5.90388
5.9038
5.90344
5.90252
5.90057
5.89895
5.89885
5.90161
5.90709
5.91169
5.91217
5.90668
5.89568
5.8831
5.87339
5.86723
5.85876
5.83529
5.78104
5.68741
5.56755
5.45666
5.38713
5.36303
1.40001
1.40001
1.40001
1.40001
1.40001
1.40001
1.40001
1.40001
1.40001
1.40001
1.40001
1.40001
1.40001
1.40001
1.40001
1.40001
1.40001
1.40001
1.40001
1.40001
1.40001
1.40001
1.40001
1.40001
1.40001
1.40001
1.40001
1.40001
1.40001
1.40001
1.40001
1.40001
1.40001
1.40001
1.40001
1.40001
1.40001
1.40001
1.40001
1.40001
1.40001
1.40001
1.40001
1.40001
1.40001
1.40001
1.40001
1.40001
1.40001
1.40001
1.40001
1.40001
1.40001
1.40001
1.40001
1.40001
1.40001
1.40001
1.40001
1.40001
1.40001
1.40001
1.40001
1.40001
1.40001
1.40001
1.40001
1.40001
1.40001
1.40001
1.40001
1.40001
1.40001
1.40001
1.40001
1.40001
1.40001
1.40001
1.40001
1.40001
1.40001
1.40001
1.40001
1.40001
1.40001
1.40001
1.40001
1.40001
1.40001
1.40001
1.40001
1.40001
1.40001
1.40001
1.40001
1.40001
1.40001
1.40001
1.40001
1.40001
1.40001
1.40001
1.40001
1.40001
1.40001
1.40001
3.88686
5.50407
5.53228
5.52675
5.51858
5.50223
5.48489
5.47364
5.47214
5.48495
5.50737
5.53355
5.55987
5.58476
5.60952
5.63358
5.65424
5.67062
5.68268
5.68553
5.67869
5.66521
5.65209
5.64516
5.64894
5.66132
5.6789
5.70058
5.72285
5.73993
5.75127
5.75763
5.75822
5.75347
5.75027
5.75381
5.76435
5.77869
5.79517
5.8115
5.82365
5.82894
5.8283
5.82371
5.81727
5.81086
5.80769
5.80797
5.81255
5.82261
5.83409
5.8435
5.84978
5.85429
5.85884
5.86483
5.87253
5.8808
5.88823
5.89369
5.89701
5.89889
5.90039
5.90221
5.90377
5.90384
5.90194
5.8991
5.89727
5.89889
5.904
5.90924
5.91085
5.90626
5.8958
5.88293
5.87251
5.86583
5.85687
5.8326
5.77718
5.68248
5.56224
5.4519
5.38312
5.35958
1.40001
1.40001
1.40001
1.40001
1.40001
1.40001
1.40001
1.40001
1.40001
1.40001
1.40001
1.40001
1.40001
1.40001
1.40001
1.40001
1.40001
1.40001
1.40001
1.40001
1.40001
1.40001
1.40001
1.40001
1.40001
1.40001
1.40001
1.40001
1.40001
1.40001
1.40001
1.40001
1.40001
1.40001
1.40001
1.40001
1.40001
1.40001
1.40001
1.40001
1.40001
1.40001
1.40001
1.40001
1.40001
1.40001
1.40001
1.40001
1.40001
1.40001
1.40001
1.40001
1.40001
1.40001
1.40001
1.40001
1.40001
1.40001
1.40001
1.40001
1.40001
1.40001
1.40001
1.40001
1.40001
1.40001
1.40001
1.40001
1.40001
1.40001
1.40001
1.40001
1.40001
1.40001
1.40001
1.40001
1.40001
1.40001
1.40001
1.40001
1.40001
1.40001
1.40001
1.40001
1.40001
1.40001
1.40001
1.40001
1.40001
1.40001
1.40001
1.40001
1.40001
1.40001
1.40001
1.40001
1.40001
1.40001
1.40001
1.40001
1.40001
1.40001
1.40001
1.40001
1.40001
1.40001
3.82011
5.49313
5.52999
5.52375
5.51546
5.49936
5.4823
5.47181
5.47096
5.48396
5.50663
5.53346
5.56054
5.58661
5.61221
5.63569
5.65536
5.67048
5.68057
5.6817
5.67401
5.66096
5.64911
5.64383
5.64887
5.66166
5.67934
5.7009
5.72228
5.73854
5.7498
5.75597
5.75662
5.75235
5.74944
5.75328
5.7636
5.77712
5.79302
5.80929
5.82175
5.82749
5.82736
5.82324
5.8173
5.81126
5.80825
5.8085
5.81254
5.82185
5.83273
5.84153
5.84745
5.85214
5.85743
5.86449
5.87296
5.88132
5.88788
5.89167
5.89332
5.89438
5.89653
5.90006
5.90325
5.9044
5.90311
5.89969
5.89706
5.89757
5.9013
5.90587
5.90761
5.9039
5.89466
5.8828
5.87286
5.8659
5.85563
5.82938
5.77169
5.67535
5.55498
5.44601
5.3791
5.35669
1.40001
1.40001
1.40001
1.40001
1.40001
1.40001
1.40001
1.40001
1.40001
1.40001
1.40001
1.40001
1.40001
1.40001
1.40001
1.40001
1.40001
1.40001
1.40001
1.40001
1.40001
1.40001
1.40001
1.40001
1.40001
1.40001
1.40001
1.40001
1.40001
1.40001
1.40001
1.40001
1.40001
1.40001
1.40001
1.40001
1.40001
1.40001
1.40001
1.40001
1.40001
1.40001
1.40001
1.40001
1.40001
1.40001
1.40001
1.40001
1.40001
1.40001
1.40001
1.40001
1.40001
1.40001
1.40001
1.40001
1.40001
1.40001
1.40001
1.40001
1.40001
1.40001
1.40001
1.40001
1.40001
1.40001
1.40001
1.40001
1.40001
1.40001
1.40001
1.40001
1.40001
1.40001
1.40001
1.40001
1.40001
1.40001
1.40001
1.40001
1.40001
1.40001
1.40001
1.40001
1.40001
1.40001
1.40001
1.40001
1.40001
1.40001
1.40001
1.40001
1.40001
1.40001
1.40001
1.40001
1.40001
1.40001
1.40001
1.40001
1.40001
1.40001
1.40001
1.40001
1.40001
1.40001
3.74416
5.47997
5.52654
5.52066
5.51231
5.49664
5.48
5.47013
5.46994
5.48308
5.50609
5.53371
5.56178
5.58897
5.61519
5.63785
5.65606
5.66989
5.67779
5.67725
5.66889
5.65665
5.64649
5.64296
5.64889
5.66183
5.6796
5.70106
5.72145
5.73692
5.74818
5.75413
5.75465
5.75093
5.74838
5.7526
5.7627
5.77542
5.79086
5.80713
5.81995
5.82605
5.82617
5.82202
5.81624
5.81048
5.80785
5.80838
5.81228
5.82099
5.83145
5.83976
5.84532
5.85002
5.85578
5.86366
5.87286
5.88137
5.88741
5.8901
5.89052
5.89085
5.89296
5.89711
5.90158
5.90398
5.9033
5.90023
5.89772
5.89741
5.89959
5.90252
5.90342
5.90016
5.89226
5.88238
5.87386
5.86666
5.85468
5.82564
5.76502
5.66681
5.54651
5.43929
5.37478
5.35376
1.40001
1.40001
1.40001
1.40001
1.40001
1.40001
1.40001
1.40001
1.40001
1.40001
1.40001
1.40001
1.40001
1.40001
1.40001
1.40001
1.40001
1.40001
1.40001
1.40001
1.40001
1.40001
1.40001
1.40001
1.40001
1.40001
1.40001
1.40001
1.40001
1.40001
1.40001
1.40001
1.40001
1.40001
1.40001
1.40001
1.40001
1.40001
1.40001
1.40001
1.40001
1.40001
1.40001
1.40001
1.40001
1.40001
1.40001
1.40001
1.40001
1.40001
1.40001
1.40001
1.40001
1.40001
1.40001
1.40001
1.40001
1.40001
1.40001
1.40001
1.40001
1.40001
1.40001
1.40001
1.40001
1.40001
1.40001
1.40001
1.40001
1.40001
1.40001
1.40001
1.40001
1.40001
1.40001
1.40001
1.40001
1.40001
1.40001
1.40001
1.40001
1.40001
1.40001
1.40001
1.40001
1.40001
1.40001
1.40001
1.40001
1.40001
1.40001
1.40001
1.40001
1.40001
1.40001
1.40001
1.40001
1.40001
1.40001
1.40001
1.40001
1.40001
1.40001
1.40001
1.40001
1.40001
3.659
5.4642
5.52225
5.5175
5.50934
5.49419
5.47802
5.46864
5.469
5.48232
5.50583
5.53436
5.56374
5.59204
5.61818
5.63973
5.65629
5.66854
5.67413
5.672
5.66359
5.65254
5.64454
5.64284
5.64921
5.66198
5.67971
5.70089
5.72029
5.73513
5.74644
5.75211
5.7522
5.74901
5.74693
5.7516
5.7616
5.77381
5.789
5.80536
5.81855
5.82485
5.8249
5.82048
5.81439
5.80859
5.80627
5.80719
5.81137
5.81972
5.82992
5.83791
5.84319
5.84788
5.85393
5.8624
5.87224
5.88109
5.88681
5.88898
5.88891
5.88876
5.89042
5.89388
5.89827
5.9014
5.90172
5.90002
5.89847
5.89805
5.89895
5.89991
5.89929
5.89574
5.88912
5.88164
5.87481
5.86746
5.85364
5.82162
5.75798
5.65788
5.53765
5.43204
5.36982
5.35011
1.40001
1.40001
1.40001
1.40001
1.40001
1.40001
1.40001
1.40001
1.40001
1.40001
1.40001
1.40001
1.40001
1.40001
1.40001
1.40001
1.40001
1.40001
1.40001
1.40001
1.40001
1.40001
1.40001
1.40001
1.40001
1.40001
1.40001
1.40001
1.40001
1.40001
1.40001
1.40001
1.40001
1.40001
1.40001
1.40001
1.40001
1.40001
1.40001
1.40001
1.40001
1.40001
1.40001
1.40001
1.40001
1.40001
1.40001
1.40001
1.40001
1.40001
1.40001
1.40001
1.40001
1.40001
1.40001
1.40001
1.40001
1.40001
1.40001
1.40001
1.40001
1.40001
1.40001
1.40001
1.40001
1.40001
1.40001
1.40001
1.40001
1.40001
1.40001
1.40001
1.40001
1.40001
1.40001
1.40001
1.40001
1.40001
1.40001
1.40001
1.40001
1.40001
1.40001
1.40001
1.40001
1.40001
1.40001
1.40001
1.40001
1.40001
1.40001
1.40001
1.40001
1.40001
1.40001
1.40001
1.40001
1.40001
1.40001
1.40001
1.40001
1.40001
1.40001
1.40001
1.40001
1.40001
3.5646
5.44562
5.51747
5.51408
5.5065
5.49191
5.47631
5.46747
5.46819
5.48186
5.50579
5.53532
5.56637
5.59589
5.62097
5.641
5.65626
5.66602
5.66931
5.66592
5.65813
5.64863
5.64317
5.64338
5.64993
5.66234
5.67986
5.7005
5.71894
5.73337
5.74464
5.7499
5.74923
5.74645
5.74496
5.75006
5.76015
5.77231
5.78754
5.80407
5.81761
5.82396
5.82371
5.81882
5.81222
5.80617
5.8039
5.80508
5.80966
5.81781
5.82785
5.8357
5.84087
5.84572
5.85217
5.8611
5.8713
5.88039
5.88611
5.88817
5.88818
5.88801
5.88909
5.89105
5.89375
5.89643
5.89791
5.89823
5.89859
5.89897
5.89922
5.8984
5.89582
5.89127
5.88568
5.88031
5.87502
5.86766
5.85218
5.81761
5.75135
5.64952
5.52909
5.42453
5.36394
5.34521
1.40001
1.40001
1.40001
1.40001
1.40001
1.40001
1.40001
1.40001
1.40001
1.40001
1.40001
1.40001
1.40001
1.40001
1.40001
1.40001
1.40001
1.40001
1.40001
1.40001
1.40001
1.40001
1.40001
1.40001
1.40001
1.40001
1.40001
1.40001
1.40001
1.40001
1.40001
1.40001
1.40001
1.40001
1.40001
1.40001
1.40001
1.40001
1.40001
1.40001
1.40001
1.40001
1.40001
1.40001
1.40001
1.40001
1.40001
1.40001
1.40001
1.40001
1.40001
1.40001
1.40001
1.40001
1.40001
1.40001
1.40001
1.40001
1.40001
1.40001
1.40001
1.40001
1.40001
1.40001
1.40001
1.40001
1.40001
1.40001
1.40001
1.40001
1.40001
1.40001
1.40001
1.40001
1.40001
1.40001
1.40001
1.40001
1.40001
1.40001
1.40001
1.40001
1.40001
1.40001
1.40001
1.40001
1.40001
1.40001
1.40001
1.40001
1.40001
1.40001
1.40001
1.40001
1.40001
1.40001
1.40001
1.40001
1.40001
1.40001
1.40001
1.40001
1.40001
1.40001
1.40001
1.40001
3.46096
5.42377
5.5124
5.51023
5.50368
5.48968
5.47497
5.4668
5.46774
5.48169
5.50592
5.53682
5.56937
5.59989
5.62372
5.6418
5.6554
5.66229
5.66333
5.65916
5.6526
5.64496
5.642
5.64404
5.65077
5.66294
5.68022
5.70011
5.7178
5.73196
5.7429
5.74747
5.74574
5.74318
5.74223
5.74776
5.75822
5.77081
5.78631
5.80313
5.81699
5.82333
5.82268
5.8173
5.81027
5.8039
5.80154
5.80278
5.80746
5.81526
5.825
5.83284
5.8382
5.84355
5.85067
5.8601
5.87026
5.87918
5.88493
5.8872
5.88776
5.88801
5.88859
5.889
5.88935
5.8904
5.89218
5.89456
5.8974
5.89944
5.89987
5.89778
5.89326
5.88757
5.88236
5.8782
5.87398
5.86674
5.85019
5.81383
5.74562
5.64225
5.52124
5.41692
5.35706
5.3388
1.40001
1.40001
1.40001
1.40001
1.40001
1.40001
1.40001
1.40001
1.40001
1.40001
1.40001
1.40001
1.40001
1.40001
1.40001
1.40001
1.40001
1.40001
1.40001
1.40001
1.40001
1.40001
1.40001
1.40001
1.40001
1.40001
1.40001
1.40001
1.40001
1.40001
1.40001
1.40001
1.40001
1.40001
1.40001
1.40001
1.40001
1.40001
1.40001
1.40001
1.40001
1.40001
1.40001
1.40001
1.40001
1.40001
1.40001
1.40001
1.40001
1.40001
1.40001
1.40001
1.40001
1.40001
1.40001
1.40001
1.40001
1.40001
1.40001
1.40001
1.40001
1.40001
1.40001
1.40001
1.40001
1.40001
1.40001
1.40001
1.40001
1.40001
1.40001
1.40001
1.40001
1.40001
1.40001
1.40001
1.40001
1.40001
1.40001
1.40001
1.40001
1.40001
1.40001
1.40001
1.40001
1.40001
1.40001
1.40001
1.40001
1.40001
1.40001
1.40001
1.40001
1.40001
1.40001
1.40001
1.40001
1.40001
1.40001
1.40001
1.40001
1.40001
1.40001
1.40001
1.40001
1.40001
3.34849
5.39861
5.50718
5.50591
5.50074
5.48748
5.47407
5.46678
5.46782
5.48179
5.5065
5.53884
5.57283
5.60324
5.62586
5.64243
5.65363
5.65762
5.65665
5.65216
5.64708
5.64168
5.64105
5.64426
5.65115
5.66347
5.68075
5.69996
5.71721
5.73122
5.7412
5.7449
5.742
5.73931
5.73876
5.74477
5.75575
5.76905
5.78502
5.80222
5.81638
5.82269
5.82166
5.81595
5.80879
5.80226
5.79981
5.80092
5.80523
5.81238
5.82149
5.82925
5.83512
5.84146
5.84976
5.85972
5.86948
5.8776
5.88293
5.88549
5.88688
5.88785
5.88832
5.88763
5.88596
5.88484
5.88578
5.88939
5.89458
5.89872
5.9
5.89752
5.89189
5.88515
5.87944
5.87544
5.8716
5.86451
5.84765
5.81042
5.74096
5.63623
5.51422
5.40936
5.34929
5.331
1.40001
1.40001
1.40001
1.40001
1.40001
1.40001
1.40001
1.40001
1.40001
1.40001
1.40001
1.40001
1.40001
1.40001
1.40001
1.40001
1.40001
1.40001
1.40001
1.40001
1.40001
1.40001
1.40001
1.40001
1.40001
1.40001
1.40001
1.40001
1.40001
1.40001
1.40001
1.40001
1.40001
1.40001
1.40001
1.40001
1.40001
1.40001
1.40001
1.40001
1.40001
1.40001
1.40001
1.40001
1.40001
1.40001
1.40001
1.40001
1.40001
1.40001
1.40001
1.40001
1.40001
1.40001
1.40001
1.40001
1.40001
1.40001
1.40001
1.40001
1.40001
1.40001
1.40001
1.40001
1.40001
1.40001
1.40001
1.40001
1.40001
1.40001
1.40001
1.40001
1.40001
1.40001
1.40001
1.40001
1.40001
1.40001
1.40001
1.40001
1.40001
1.40001
1.40001
1.40001
1.40001
1.40001
1.40001
1.40001
1.40001
1.40001
1.40001
1.40001
1.40001
1.40001
1.40001
1.40001
1.40001
1.40001
1.40001
1.40001
1.40001
1.40001
1.40001
1.40001
1.40001
1.40001
3.22775
5.37035
5.50206
5.50119
5.49767
5.48517
5.47337
5.46718
5.46836
5.48234
5.50787
5.5413
5.57665
5.60597
5.62768
5.64255
5.65062
5.65203
5.64972
5.64569
5.64208
5.6391
5.64017
5.64357
5.65076
5.66366
5.68133
5.70013
5.7171
5.73108
5.73959
5.74214
5.73834
5.73523
5.73508
5.74157
5.75293
5.76678
5.78325
5.80091
5.81536
5.82162
5.82037
5.81466
5.80774
5.80136
5.79892
5.79981
5.80337
5.80955
5.81765
5.82508
5.83172
5.83956
5.84945
5.86003
5.86926
5.876
5.88015
5.88258
5.88466
5.88661
5.88759
5.88666
5.88386
5.88102
5.88044
5.88375
5.89015
5.8961
5.89886
5.89713
5.89147
5.88405
5.87724
5.87239
5.8682
5.86119
5.84456
5.80733
5.73724
5.6313
5.50789
5.40184
5.34086
5.32216
1.40001
1.40001
1.40001
1.40001
1.40001
1.40001
1.40001
1.40001
1.40001
1.40001
1.40001
1.40001
1.40001
1.40001
1.40001
1.40001
1.40001
1.40001
1.40001
1.40001
1.40001
1.40001
1.40001
1.40001
1.40001
1.40001
1.40001
1.40001
1.40001
1.40001
1.40001
1.40001
1.40001
1.40001
1.40001
1.40001
1.40001
1.40001
1.40001
1.40001
1.40001
1.40001
1.40001
1.40001
1.40001
1.40001
1.40001
1.40001
1.40001
1.40001
1.40001
1.40001
1.40001
1.40001
1.40001
1.40001
1.40001
1.40001
1.40001
1.40001
1.40001
1.40001
1.40001
1.40001
1.40001
1.40001
1.40001
1.40001
1.40001
1.40001
1.40001
1.40001
1.40001
1.40001
1.40001
1.40001
1.40001
1.40001
1.40001
1.40001
1.40001
1.40001
1.40001
1.40001
1.40001
1.40001
1.40001
1.40001
1.40001
1.40001
1.40001
1.40001
1.40001
1.40001
1.40001
1.40001
1.40001
1.40001
1.40001
1.40001
1.40001
1.40001
1.40001
1.40001
1.40001
1.40001
3.09974
5.33757
5.49715
5.49634
5.49454
5.4827
5.47248
5.46734
5.46898
5.48371
5.51033
5.54424
5.57977
5.60788
5.6288
5.64096
5.64605
5.64526
5.64271
5.63994
5.6379
5.63735
5.63907
5.64202
5.6497
5.6634
5.68177
5.70041
5.71698
5.73089
5.73801
5.73905
5.73486
5.73135
5.73184
5.73891
5.75027
5.76418
5.78085
5.7988
5.81343
5.81966
5.81841
5.81311
5.80682
5.8009
5.79858
5.79927
5.802
5.80706
5.81396
5.82078
5.82822
5.83779
5.84936
5.86077
5.86946
5.87461
5.8769
5.87827
5.88055
5.88368
5.88585
5.88566
5.88304
5.87935
5.87718
5.87889
5.88463
5.89138
5.89571
5.89587
5.89138
5.88396
5.87588
5.86939
5.86419
5.85698
5.84091
5.8043
5.73408
5.62708
5.50202
5.39437
5.33206
5.31275
1.40001
1.40001
1.40001
1.40001
1.40001
1.40001
1.40001
1.40001
1.40001
1.40001
1.40001
1.40001
1.40001
1.40001
1.40001
1.40001
1.40001
1.40001
1.40001
1.40001
1.40001
1.40001
1.40001
1.40001
1.40001
1.40001
1.40001
1.40001
1.40001
1.40001
1.40001
1.40001
1.40001
1.40001
1.40001
1.40001
1.40001
1.40001
1.40001
1.40001
1.40001
1.40001
1.40001
1.40001
1.40001
1.40001
1.40001
1.40001
1.40001
1.40001
1.40001
1.40001
1.40001
1.40001
1.40001
1.40001
1.40001
1.40001
1.40001
1.40001
1.40001
1.40001
1.40001
1.40001
1.40001
1.40001
1.40001
1.40001
1.40001
1.40001
1.40001
1.40001
1.40001
1.40001
1.40001
1.40001
1.40001
1.40001
1.40001
1.40001
1.40001
1.40001
1.40001
1.40001
1.40001
1.40001
1.40001
1.40001
1.40001
1.40001
1.40001
1.40001
1.40001
1.40001
1.40001
1.40001
1.40001
1.40001
1.40001
1.40001
1.40001
1.40001
1.40001
1.40001
1.40001
1.40001
2.96618
5.29802
5.49227
5.49163
5.49136
5.4804
5.4715
5.46719
5.46986
5.48592
5.51389
5.54813
5.582
5.60895
5.62809
5.63667
5.63951
5.63763
5.6357
5.63488
5.63464
5.63591
5.6375
5.64026
5.64845
5.66296
5.6819
5.70051
5.7165
5.72978
5.73591
5.73543
5.73122
5.72782
5.72946
5.73733
5.74839
5.76181
5.77809
5.79585
5.81036
5.81647
5.8154
5.81077
5.80548
5.80041
5.79834
5.79889
5.80092
5.80495
5.8107
5.81684
5.82488
5.83595
5.84914
5.86134
5.86977
5.87343
5.87357
5.87319
5.8748
5.87869
5.88273
5.88433
5.88288
5.8794
5.87619
5.87553
5.87897
5.88507
5.89078
5.89321
5.89074
5.88415
5.87517
5.86674
5.85999
5.85229
5.83684
5.80108
5.7311
5.62318
5.4964
5.38701
5.32323
5.30321
1.40001
1.40001
1.40001
1.40001
1.40001
1.40001
1.40001
1.40001
1.40001
1.40001
1.40001
1.40001
1.40001
1.40001
1.40001
1.40001
1.40001
1.40001
1.40001
1.40001
1.40001
1.40001
1.40001
1.40001
1.40001
1.40001
1.40001
1.40001
1.40001
1.40001
1.40001
1.40001
1.40001
1.40001
1.40001
1.40001
1.40001
1.40001
1.40001
1.40001
1.40001
1.40001
1.40001
1.40001
1.40001
1.40001
1.40001
1.40001
1.40001
1.40001
1.40001
1.40001
1.40001
1.40001
1.40001
1.40001
1.40001
1.40001
1.40001
1.40001
1.40001
1.40001
1.40001
1.40001
1.40001
1.40001
1.40001
1.40001
1.40001
1.40001
1.40001
1.40001
1.40001
1.40001
1.40001
1.40001
1.40001
1.40001
1.40001
1.40001
1.40001
1.40001
1.40001
1.40001
1.40001
1.40001
1.40001
1.40001
1.40001
1.40001
1.40001
1.40001
1.40001
1.40001
1.40001
1.40001
1.40001
1.40001
1.40001
1.40001
1.40001
1.40001
1.40001
1.40001
1.40001
1.40001
2.82848
5.24976
5.48705
5.48715
5.48768
5.47883
5.47164
5.46788
5.47189
5.48905
5.51739
5.55149
5.5836
5.60935
5.6248
5.63049
5.63166
5.62986
5.62898
5.62994
5.63194
5.63447
5.63555
5.63881
5.6477
5.66279
5.68177
5.70008
5.7153
5.72712
5.73228
5.73071
5.72691
5.72436
5.72778
5.73683
5.74763
5.76028
5.77561
5.79253
5.80641
5.81225
5.81134
5.80733
5.80316
5.79924
5.79757
5.79817
5.79978
5.80306
5.80796
5.81361
5.82192
5.83392
5.84827
5.86118
5.86947
5.87216
5.87055
5.86835
5.86848
5.87207
5.87777
5.882
5.88277
5.88035
5.87653
5.87373
5.87423
5.87841
5.88435
5.8888
5.88898
5.88396
5.87478
5.86455
5.85591
5.84754
5.83257
5.79762
5.72797
5.61931
5.49096
5.37991
5.31468
5.29391
1.40001
1.40001
1.40001
1.40001
1.40001
1.40001
1.40001
1.40001
1.40001
1.40001
1.40001
1.40001
1.40001
1.40001
1.40001
1.40001
1.40001
1.40001
1.40001
1.40001
1.40001
1.40001
1.40001
1.40001
1.40001
1.40001
1.40001
1.40001
1.40001
1.40001
1.40001
1.40001
1.40001
1.40001
1.40001
1.40001
1.40001
1.40001
1.40001
1.40001
1.40001
1.40001
1.40001
1.40001
1.40001
1.40001
1.40001
1.40001
1.40001
1.40001
1.40001
1.40001
1.40001
1.40001
1.40001
1.40001
1.40001
1.40001
1.40001
1.40001
1.40001
1.40001
1.40001
1.40001
1.40001
1.40001
1.40001
1.40001
1.40001
1.40001
1.40001
1.40001
1.40001
1.40001
1.40001
1.40001
1.40001
1.40001
1.40001
1.40001
1.40001
1.40001
1.40001
1.40001
1.40001
1.40001
1.40001
1.40001
1.40001
1.40001
1.40001
1.40001
1.40001
1.40001
1.40001
1.40001
1.40001
1.40001
1.40001
1.40001
1.40001
1.40001
1.40001
1.40001
1.40001
1.40001
2.68718
5.19425
5.48189
5.48303
5.48403
5.47864
5.47392
5.47034
5.47594
5.49312
5.52072
5.55364
5.58486
5.60813
5.62001
5.62407
5.62415
5.62284
5.6231
5.62541
5.62899
5.63247
5.63385
5.63819
5.64793
5.6634
5.68183
5.6992
5.71342
5.72306
5.72696
5.72462
5.72172
5.72084
5.72639
5.73679
5.74768
5.75976
5.77387
5.78947
5.80226
5.8076
5.80671
5.80304
5.79981
5.7969
5.79558
5.79654
5.79809
5.80103
5.80557
5.8111
5.81949
5.83185
5.84662
5.86003
5.86821
5.87036
5.86792
5.86428
5.86271
5.86514
5.87119
5.87793
5.88153
5.88096
5.8774
5.87298
5.87066
5.87241
5.87764
5.88349
5.88601
5.8827
5.87399
5.86258
5.85223
5.84312
5.82833
5.79397
5.72448
5.61536
5.48568
5.37317
5.30663
5.28509
1.40001
1.40001
1.40001
1.40001
1.40001
1.40001
1.40001
1.40001
1.40001
1.40001
1.40001
1.40001
1.40001
1.40001
1.40001
1.40001
1.40001
1.40001
1.40001
1.40001
1.40001
1.40001
1.40001
1.40001
1.40001
1.40001
1.40001
1.40001
1.40001
1.40001
1.40001
1.40001
1.40001
1.40001
1.40001
1.40001
1.40001
1.40001
1.40001
1.40001
1.40001
1.40001
1.40001
1.40001
1.40001
1.40001
1.40001
1.40001
1.40001
1.40001
1.40001
1.40001
1.40001
1.40001
1.40001
1.40001
1.40001
1.40001
1.40001
1.40001
1.40001
1.40001
1.40001
1.40001
1.40001
1.40001
1.40001
1.40001
1.40001
1.40001
1.40001
1.40001
1.40001
1.40001
1.40001
1.40001
1.40001
1.40001
1.40001
1.40001
1.40001
1.40001
1.40001
1.40001
1.40001
1.40001
1.40001
1.40001
1.40001
1.40001
1.40001
1.40001
1.40001
1.40001
1.40001
1.40001
1.40001
1.40001
1.40001
1.40001
1.40001
1.40001
1.40001
1.40001
1.40001
1.40001
2.53978
5.13455
5.47732
5.4789
5.48194
5.48033
5.47785
5.47557
5.48077
5.49635
5.52306
5.55487
5.58465
5.60473
5.61513
5.61847
5.61818
5.61738
5.61837
5.62132
5.62551
5.62965
5.6327
5.63879
5.64929
5.66483
5.68241
5.69837
5.71138
5.7185
5.72069
5.71758
5.71551
5.71697
5.72467
5.73646
5.74806
5.75988
5.77285
5.78706
5.79853
5.80317
5.80216
5.79866
5.796
5.79359
5.79228
5.79363
5.79531
5.79837
5.80319
5.80905
5.81761
5.82997
5.84449
5.85766
5.86573
5.86787
5.86535
5.86107
5.8584
5.85941
5.86441
5.87189
5.87799
5.87992
5.87748
5.87261
5.86845
5.86791
5.87186
5.87802
5.88176
5.88003
5.87236
5.86052
5.84903
5.83922
5.82426
5.79006
5.72056
5.61109
5.48055
5.36687
5.29924
5.27696
1.40001
1.40001
1.40001
1.40001
1.40001
1.40001
1.40001
1.40001
1.40001
1.40001
1.40001
1.40001
1.40001
1.40001
1.40001
1.40001
1.40001
1.40001
1.40001
1.40001
1.40001
1.40001
1.40001
1.40001
1.40001
1.40001
1.40001
1.40001
1.40001
1.40001
1.40001
1.40001
1.40001
1.40001
1.40001
1.40001
1.40001
1.40001
1.40001
1.40001
1.40001