/*--------------------------------*- C++ -*----------------------------------*\
  =========                 |
  \\      /  F ield         | OpenFOAM: The Open Source CFD Toolbox
   \\    /   O peration     | Website:  https://openfoam.org
    \\  /    A nd           | Version:  7
     \\/     M anipulation  |
\*---------------------------------------------------------------------------*/
FoamFile
{
    version     2.0;
    format      ascii;
    class       volScalarField;
    location    "2.8";
    object      p;
}
// * * * * * * * * * * * * * * * * * * * * * * * * * * * * * * * * * * * * * //

dimensions      [1 -1 -2 0 0 0 0];

internalField   nonuniform List<scalar> 
258048
(
1
1
1
1
1
1
1
1
1
1
1
1
1
1
1
1
1
1
1
1
1
1
1
1
1
1
1
1
1
1
1
1
1
1
1
1
1
1
1
1
1
1
1
1
1
1
1
1
1
1
1
1
1
1
1
1
1
1
1
1
1
1
1
1
1
1
1
1
1
1
1
1
1
1
1
1
1
1
1
1
1
1
1
1
1
1
1
1
1
1
1
1
1
1
1
1
1
1
1.32381
7.53759
10.3761
10.4106
10.4399
10.4734
10.5088
10.5448
10.5795
10.6122
10.6408
10.6664
10.6912
10.7169
10.7445
10.7736
10.803
10.8315
10.8587
10.8849
10.9105
10.9358
10.9623
10.9911
11.0222
11.0548
11.0882
11.1211
11.1495
11.1709
11.1859
11.1941
11.1993
11.2071
11.2205
11.2433
11.2756
11.3132
11.3517
11.3878
11.4195
11.4453
11.4647
11.4798
11.4927
11.5055
11.5214
11.5409
11.5624
11.5836
11.6023
11.6179
11.6325
11.6488
11.6691
11.6929
11.7173
11.7383
11.7543
11.7667
11.7781
11.7907
11.8042
11.8172
11.8277
11.835
11.8418
11.8526
11.8704
11.8942
11.9193
11.9399
11.9526
11.9599
11.9659
11.9714
11.9755
11.9786
11.9816
11.9846
11.9891
11.9974
12.0086
12.0203
12.0293
12.037
12.0456
12.0535
12.0585
12.0605
12.0567
12.0486
12.0393
12.0348
1
1
1
1
1
1
1
1
1
1
1
1
1
1
1
1
1
1
1
1
1
1
1
1
1
1
1
1
1
1
1
1
1
1
1
1
1
1
1
1
1
1
1
1
1
1
1
1
1
1
1
1
1
1
1
1
1
1
1
1
1
1
1
1
1
1
1
1
1
1
1
1
1
1
1
1
1
1
1
1
1
1
1
1
1
1
1
1
1
1
1
1
1
1
1
1
1
1
1.31949
7.52519
10.3762
10.4088
10.4395
10.4729
10.5088
10.5445
10.5789
10.6109
10.6406
10.6684
10.6942
10.7199
10.7469
10.7751
10.8036
10.8313
10.8577
10.8834
10.9096
10.9363
10.964
10.9932
11.0232
11.0533
11.0838
11.1151
11.1444
11.1681
11.1853
11.1954
11.2015
11.2093
11.2222
11.244
11.2755
11.3132
11.3519
11.388
11.4189
11.4435
11.462
11.4772
11.491
11.5054
11.5225
11.5428
11.5642
11.5844
11.6017
11.6164
11.6309
11.6482
11.6698
11.6947
11.7199
11.7412
11.7568
11.768
11.7782
11.7901
11.8037
11.8172
11.8283
11.8361
11.8431
11.8538
11.8712
11.8947
11.9198
11.9405
11.9534
11.9607
11.9664
11.9715
11.9753
11.9784
11.9815
11.9845
11.9889
11.9969
12.0082
12.02
12.0294
12.0371
12.0454
12.0528
12.0574
12.0592
12.0557
12.048
12.039
12.0347
1
1
1
1
1
1
1
1
1
1
1
1
1
1
1
1
1
1
1
1
1
1
1
1
1
1
1
1
1
1
1
1
1
1
1
1
1
1
1
1
1
1
1
1
1
1
1
1
1
1
1
1
1
1
1
1
1
1
1
1
1
1
1
1
1
1
1
1
1
1
1
1
1
1
1
1
1
1
1
1
1
1
1
1
1
1
1
1
1
1
1
1
1
1
1
1
1
1
1.30965
7.49729
10.3786
10.4051
10.4373
10.4715
10.5075
10.5425
10.576
10.6079
10.6382
10.6668
10.6942
10.7205
10.7474
10.7751
10.803
10.8299
10.8555
10.8806
10.9073
10.9357
10.9653
10.9954
11.0248
11.0526
11.0794
11.1078
11.1372
11.1632
11.1831
11.1958
11.2039
11.2122
11.2249
11.2456
11.2761
11.3133
11.3521
11.3881
11.4184
11.4416
11.4587
11.4734
11.4878
11.5036
11.5225
11.544
11.5655
11.5847
11.6002
11.613
11.6263
11.6435
11.6661
11.6927
11.7195
11.7422
11.758
11.7683
11.7767
11.7864
11.7988
11.8124
11.8245
11.8337
11.8417
11.8526
11.8695
11.8922
11.9169
11.9375
11.9506
11.9581
11.9637
11.9687
11.9726
11.9762
11.9798
11.9831
11.9872
11.9948
12.0061
12.0183
12.0286
12.0371
12.0452
12.0518
12.0557
12.057
12.0536
12.0467
12.0384
12.0344
1
1
1
1
1
1
1
1
1
1
1
1
1
1
1
1
1
1
1
1
1
1
1
1
1
1
1
1
1
1
1
1
1
1
1
1
1
1
1
1
1
1
1
1
1
1
1
1
1
1
1
1
1
1
1
1
1
1
1
1
1
1
1
1
1
1
1
1
1
1
1
1
1
1
1
1
1
1
1
1
1
1
1
1
1
1
1
1
1
1
1
1
1
1
1
1
1
1
1.29555
7.45226
10.3711
10.4024
10.4352
10.4695
10.5056
10.5407
10.5743
10.6066
10.6379
10.6678
10.6963
10.723
10.7488
10.7754
10.8024
10.8284
10.8529
10.8775
10.9049
10.9349
10.9662
10.9971
11.0256
11.051
11.0744
11.0996
11.1284
11.1565
11.1794
11.1954
11.2061
11.2158
11.2287
11.2488
11.2782
11.3144
11.3522
11.387
11.4156
11.4371
11.4535
11.4687
11.4844
11.5022
11.5228
11.5447
11.5655
11.5835
11.5978
11.6099
11.6229
11.6398
11.6626
11.6905
11.7192
11.7432
11.7598
11.7698
11.7767
11.7842
11.7947
11.8077
11.8208
11.8319
11.8418
11.8535
11.8701
11.8919
11.9155
11.9356
11.9487
11.9563
11.9619
11.9668
11.9709
11.9747
11.9786
11.9818
11.9853
11.9925
12.0036
12.0164
12.0279
12.0374
12.045
12.0503
12.053
12.0534
12.0504
12.0445
12.0375
12.0341
1
1
1
1
1
1
1
1
1
1
1
1
1
1
1
1
1
1
1
1
1
1
1
1
1
1
1
1
1
1
1
1
1
1
1
1
1
1
1
1
1
1
1
1
1
1
1
1
1
1
1
1
1
1
1
1
1
1
1
1
1
1
1
1
1
1
1
1
1
1
1
1
1
1
1
1
1
1
1
1
1
1
1
1
1
1
1
1
1
1
1
1
1
1
1
1
1
1
1.27001
7.37038
10.3607
10.4012
10.4346
10.4704
10.5064
10.5403
10.5726
10.6045
10.6361
10.6667
10.6961
10.7233
10.7491
10.7753
10.8018
10.8269
10.8509
10.8753
10.9025
10.9333
10.9657
10.9972
11.0255
11.0497
11.0712
11.0933
11.1198
11.1485
11.1739
11.193
11.207
11.2191
11.2334
11.2534
11.2815
11.316
11.352
11.3846
11.411
11.4312
11.4475
11.4639
11.4816
11.5012
11.5227
11.5442
11.5639
11.5808
11.5948
11.6073
11.6208
11.6378
11.6599
11.6873
11.7166
11.7422
11.7606
11.7714
11.7772
11.7822
11.7897
11.8011
11.8146
11.8281
11.8408
11.8545
11.8712
11.8914
11.9128
11.9315
11.9445
11.9526
11.9588
11.9641
11.9687
11.973
11.9769
11.9799
11.9828
11.9894
12.0005
12.0139
12.0268
12.0375
12.0447
12.0482
12.0492
12.0485
12.0458
12.0415
12.0365
12.0343
1
1
1
1
1
1
1
1
1
1
1
1
1
1
1
1
1
1
1
1
1
1
1
1
1
1
1
1
1
1
1
1
1
1
1
1
1
1
1
1
1
1
1
1
1
1
1
1
1
1
1
1
1
1
1
1
1
1
1
1
1
1
1
1
1
1
1
1
1
1
1
1
1
1
1
1
1
1
1
1
1
1
1
1
1
1
1
1
1
1
1
1
1
1
1
1
1
1
1.23112
7.25517
10.3701
10.4105
10.4404
10.4735
10.5071
10.5401
10.5721
10.6042
10.6361
10.6663
10.6952
10.7225
10.7483
10.7748
10.8015
10.8268
10.8507
10.8742
10.9
10.93
10.9624
10.9943
11.0234
11.0485
11.0697
11.0896
11.1128
11.1402
11.1668
11.1889
11.2066
11.2222
11.2387
11.2592
11.2858
11.3176
11.3508
11.3803
11.4043
11.424
11.4414
11.4597
11.4795
11.5005
11.5219
11.542
11.5598
11.5757
11.5903
11.6047
11.62
11.6375
11.6586
11.6838
11.7119
11.7387
11.7596
11.7722
11.7778
11.7806
11.7852
11.7942
11.8076
11.8234
11.8396
11.8559
11.8731
11.8916
11.9102
11.9265
11.9389
11.9478
11.9549
11.961
11.9665
11.9711
11.9748
11.9774
11.9798
11.9859
11.9969
12.0111
12.0254
12.0372
12.0439
12.0455
12.0444
12.0424
12.04
12.0378
12.0355
12.0351
1
1
1
1
1
1
1
1
1
1
1
1
1
1
1
1
1
1
1
1
1
1
1
1
1
1
1
1
1
1
1
1
1
1
1
1
1
1
1
1
1
1
1
1
1
1
1
1
1
1
1
1
1
1
1
1
1
1
1
1
1
1
1
1
1
1
1
1
1
1
1
1
1
1
1
1
1
1
1
1
1
1
1
1
1
1
1
1
1
1
1
1
1
1
1
1
1
1
1.1851
7.12202
10.3806
10.4113
10.4379
10.4695
10.5031
10.5367
10.5701
10.6036
10.636
10.6657
10.6943
10.7219
10.7477
10.7744
10.8012
10.8269
10.8507
10.8733
10.8967
10.9244
10.956
10.9885
11.0199
11.0474
11.0697
11.0887
11.1084
11.1326
11.1588
11.1832
11.2048
11.2245
11.2439
11.265
11.2896
11.3182
11.3479
11.3744
11.3968
11.4168
11.4356
11.4559
11.4776
11.4996
11.5204
11.5386
11.5543
11.5693
11.5853
11.6026
11.6204
11.6387
11.6583
11.6807
11.7065
11.7331
11.7561
11.7711
11.7775
11.7789
11.7809
11.7875
11.8002
11.818
11.8377
11.8571
11.8752
11.8918
11.9069
11.9204
11.9319
11.9418
11.9504
11.9579
11.9642
11.9689
11.9721
11.9741
11.9765
11.9825
11.9935
12.0082
12.0237
12.0362
12.0423
12.0419
12.0387
12.035
12.0329
12.033
12.0342
12.0362
1
1
1
1
1
1
1
1
1
1
1
1
1
1
1
1
1
1
1
1
1
1
1
1
1
1
1
1
1
1
1
1
1
1
1
1
1
1
1
1
1
1
1
1
1
1
1
1
1
1
1
1
1
1
1
1
1
1
1
1
1
1
1
1
1
1
1
1
1
1
1
1
1
1
1
1
1
1
1
1
1
1
1
1
1
1
1
1
1
1
1
1
1
1
1
1
1
1
1.13271
6.98629
10.3781
10.4153
10.4384
10.4676
10.4994
10.5325
10.5664
10.6012
10.6351
10.6663
10.6948
10.7214
10.7463
10.7722
10.7997
10.8266
10.8512
10.8733
10.8946
10.9192
10.9491
10.982
11.0156
11.0461
11.0704
11.0892
11.1064
11.1269
11.1515
11.1771
11.2023
11.2261
11.2481
11.2691
11.2917
11.3169
11.3434
11.3678
11.3896
11.4104
11.4305
11.452
11.4749
11.4973
11.5174
11.534
11.5484
11.563
11.5804
11.6002
11.6204
11.6394
11.6579
11.6779
11.7012
11.7267
11.7504
11.7674
11.7751
11.7761
11.7767
11.7816
11.7935
11.8128
11.8358
11.8579
11.8765
11.8911
11.9029
11.9136
11.9242
11.9351
11.9457
11.9547
11.9615
11.9658
11.9683
11.9699
11.9727
11.9791
11.9903
12.0055
12.0214
12.0338
12.0392
12.0377
12.0324
12.0271
12.0252
12.0278
12.0326
12.0373
1
1
1
1
1
1
1
1
1
1
1
1
1
1
1
1
1
1
1
1
1
1
1
1
1
1
1
1
1
1
1
1
1
1
1
1
1
1
1
1
1
1
1
1
1
1
1
1
1
1
1
1
1
1
1
1
1
1
1
1
1
1
1
1
1
1
1
1
1
1
1
1
1
1
1
1
1
1
1
1
1
1
1
1
1
1
1
1
1
1
1
1
1
1
1
1
1
1
1.0582
6.82775
10.3807
10.4148
10.4356
10.4638
10.4946
10.5277
10.5637
10.601
10.6362
10.668
10.6958
10.7208
10.744
10.7688
10.7968
10.825
10.8502
10.8723
10.8924
10.9146
10.9426
10.9755
11.011
11.044
11.0705
11.0901
11.1058
11.1236
11.1464
11.1722
11.1996
11.2261
11.2496
11.2703
11.2909
11.3133
11.3376
11.3613
11.3836
11.4055
11.4263
11.4479
11.4708
11.493
11.5126
11.5288
11.5433
11.5584
11.5765
11.5974
11.6188
11.6384
11.6565
11.6752
11.6966
11.7206
11.7437
11.7611
11.7698
11.7715
11.772
11.7765
11.7886
11.809
11.8339
11.8575
11.8759
11.8885
11.8976
11.9061
11.9163
11.9287
11.9412
11.9514
11.958
11.9614
11.963
11.9648
11.9685
11.9761
11.9878
12.0029
12.0183
12.0298
12.0345
12.0323
12.0257
12.0191
12.0174
12.0222
12.0305
12.0377
1
1
1
1
1
1
1
1
1
1
1
1
1
1
1
1
1
1
1
1
1
1
1
1
1
1
1
1
1
1
1
1
1
1
1
1
1
1
1
1
1
1
1
1
1
1
1
1
1
1
1
1
1
1
1
1
1
1
1
1
1
1
1
1
1
1
1
1
1
1
1
1
1
1
1
1
1
1
1
1
1
1
1
1
1
1
1
1
1
1
1
1
1
1
1
1
1
1
1.00275
6.62311
10.3813
10.4158
10.4366
10.465
10.4934
10.5235
10.5585
10.5962
10.6321
10.6648
10.6928
10.7179
10.7411
10.7659
10.7941
10.8231
10.8491
10.8716
10.8915
10.9124
10.9387
10.9706
11.0061
11.0404
11.0688
11.0898
11.1056
11.1223
11.1439
11.1694
11.1973
11.2243
11.2478
11.2678
11.2871
11.3076
11.331
11.3552
11.379
11.402
11.4228
11.4433
11.465
11.4863
11.506
11.5234
11.5396
11.556
11.5742
11.5945
11.6153
11.6349
11.6532
11.6719
11.6927
11.7152
11.7364
11.7527
11.7617
11.7648
11.7668
11.7725
11.7858
11.807
11.832
11.8553
11.8728
11.8836
11.8908
11.8984
11.909
11.9229
11.9372
11.9478
11.9534
11.9555
11.9564
11.9587
11.9644
11.9738
11.986
12.0002
12.014
12.024
12.0282
12.0259
12.0186
12.0113
12.01
12.0163
12.0275
12.0369
1
1
1
1
1
1
1
1
1
1
1
1
1
1
1
1
1
1
1
1
1
1
1
1
1
1
1
1
1
1
1
1
1
1
1
1
1
1
1
1
1
1
1
1
1
1
1
1
1
1
1
1
1
1
1
1
1
1
1
1
1
1
1
1
1
1
1
1
1
1
1
1
1
1
1
1
1
1
1
1
1
1
1
1
1
1
1
1
1
1
1
1
1
1
1
1
1
1
1.00003
6.37365
10.3667
10.4056
10.4256
10.455
10.4834
10.5145
10.5516
10.5913
10.6288
10.6624
10.6912
10.7169
10.7409
10.7659
10.7932
10.8209
10.8464
10.8692
10.8898
10.9109
10.9364
10.9671
11.0015
11.0356
11.0652
11.088
11.1054
11.1224
11.1434
11.1684
11.1955
11.2215
11.2438
11.2626
11.2804
11.3002
11.3237
11.3496
11.3752
11.3993
11.4198
11.4386
11.4581
11.4781
11.4984
11.5183
11.5373
11.5554
11.5733
11.5916
11.6103
11.6289
11.6478
11.6677
11.6889
11.7101
11.729
11.743
11.7516
11.7564
11.7611
11.7697
11.785
11.8063
11.8302
11.8515
11.8668
11.876
11.8827
11.8906
11.9026
11.9183
11.9335
11.9435
11.9474
11.9481
11.9486
11.9522
11.9605
11.972
11.9844
11.9969
12.0083
12.0166
12.0203
12.0184
12.0113
12.0042
12.0033
12.0106
12.0235
12.0341
1
1
1
1
1
1
1
1
1
1
1
1
1
1
1
1
1
1
1
1
1
1
1
1
1
1
1
1
1
1
1
1
1
1
1
1
1
1
1
1
1
1
1
1
1
1
1
1
1
1
1
1
1
1
1
1
1
1
1
1
1
1
1
1
1
1
1
1
1
1
1
1
1
1
1
1
1
1
1
1
1
1
1
1
1
1
1
1
1
1
1
1
1
1
1
1
1
1
1
6.11044
10.3544
10.3994
10.4191
10.4492
10.4776
10.5088
10.545
10.5836
10.621
10.6556
10.6869
10.7154
10.7416
10.7667
10.7921
10.8178
10.8424
10.8657
10.8879
10.9104
10.936
10.9655
10.9979
11.0305
11.0599
11.0841
11.1036
11.1224
11.1436
11.1679
11.1935
11.218
11.2386
11.2559
11.2727
11.2921
11.3159
11.3436
11.3712
11.3964
11.4166
11.4336
11.4508
11.4693
11.4905
11.5133
11.5355
11.5552
11.5725
11.5884
11.6043
11.6214
11.6408
11.6623
11.6842
11.7044
11.7209
11.7327
11.7408
11.7474
11.7555
11.7678
11.7851
11.8061
11.8276
11.8457
11.8582
11.8664
11.8735
11.8831
11.8973
11.9146
11.9295
11.9379
11.94
11.9396
11.9404
11.9459
11.9568
11.9701
11.9823
11.9926
12.0013
12.0079
12.0113
12.01
12.004
11.9977
11.9973
12.0049
12.0183
12.0291
1
1
1
1
1
1
1
1
1
1
1
1
1
1
1
1
1
1
1
1
1
1
1
1
1
1
1
1
1
1
1
1
1
1
1
1
1
1
1
1
1
1
1
1
1
1
1
1
1
1
1
1
1
1
1
1
1
1
1
1
1
1
1
1
1
1
1
1
1
1
1
1
1
1
1
1
1
1
1
1
1
1
1
1
1
1
1
1
1
1
1
1
1
1
1
1
1
1
1
5.83151
10.3356
10.3937
10.4122
10.4418
10.4701
10.5016
10.5372
10.5751
10.6128
10.649
10.683
10.7147
10.7432
10.7679
10.7915
10.8146
10.8382
10.8619
10.8856
10.9097
10.9357
10.964
10.9943
11.025
11.0539
11.0791
11.1008
11.1214
11.1433
11.1667
11.1908
11.2136
11.2329
11.2492
11.2655
11.2844
11.308
11.3367
11.3659
11.3923
11.4126
11.4286
11.4442
11.4617
11.4835
11.5084
11.5331
11.5541
11.5708
11.5845
11.5979
11.6137
11.6332
11.6555
11.6777
11.6969
11.7116
11.7221
11.7305
11.7393
11.751
11.7665
11.7852
11.8053
11.8237
11.838
11.8478
11.8553
11.8638
11.8761
11.8929
11.911
11.9245
11.9304
11.9311
11.9304
11.9325
11.9402
11.9535
11.9676
11.9787
11.9867
11.9931
11.9983
12.0016
12.0011
11.9967
11.9919
11.9921
11.9995
12.0122
12.022
1
1
1
1
1
1
1
1
1
1
1
1
1
1
1
1
1
1
1
1
1
1
1
1
1
1
1
1
1
1
1
1
1
1
1
1
1
1
1
1
1
1
1
1
1
1
1
1
1
1
1
1
1
1
1
1
1
1
1
1
1
1
1
1
1
1
1
1
1
1
1
1
1
1
1
1
1
1
1
1
1
1
1
1
1
1
1
1
1
1
1
1
1
1
1
1
1
1
1
5.53597
10.3078
10.3891
10.4072
10.4359
10.464
10.4948
10.5288
10.5658
10.6046
10.6429
10.6795
10.7134
10.743
10.767
10.7883
10.8096
10.8332
10.858
10.8831
10.9086
10.935
10.9622
10.9905
11.0191
11.0474
11.0736
11.0972
11.1189
11.1409
11.1634
11.1863
11.2081
11.2272
11.2438
11.2599
11.2781
11.3003
11.3285
11.3585
11.3859
11.4072
11.4235
11.4388
11.4559
11.4778
11.5034
11.529
11.5507
11.567
11.5796
11.5919
11.6069
11.626
11.6478
11.6691
11.6871
11.7009
11.7116
11.7216
11.733
11.7475
11.7651
11.7842
11.8026
11.8178
11.8285
11.8361
11.8435
11.8541
11.8696
11.8889
11.9067
11.9178
11.9214
11.9211
11.9213
11.9255
11.9358
11.9502
11.9637
11.973
11.9791
11.984
11.9883
11.9915
11.9919
11.9893
11.9863
11.9871
11.9938
12.0048
12.0128
1
1
1
1
1
1
1
1
1
1
1
1
1
1
1
1
1
1
1
1
1
1
1
1
1
1
1
1
1
1
1
1
1
1
1
1
1
1
1
1
1
1
1
1
1
1
1
1
1
1
1
1
1
1
1
1
1
1
1
1
1
1
1
1
1
1
1
1
1
1
1
1
1
1
1
1
1
1
1
1
1
1
1
1
1
1
1
1
1
1
1
1
1
1
1
1
1
1
1
5.22398
10.2675
10.3859
10.4051
10.4323
10.4582
10.4871
10.5193
10.5569
10.5981
10.6385
10.6763
10.7106
10.7397
10.7629
10.7824
10.8032
10.828
10.8544
10.8808
10.907
10.933
10.959
10.9854
11.0126
11.0409
11.0684
11.0934
11.1155
11.1364
11.1576
11.1795
11.2014
11.2218
11.2396
11.256
11.2736
11.2939
11.3201
11.3493
11.3773
11.4001
11.4181
11.4345
11.452
11.4737
11.4986
11.5234
11.5445
11.5605
11.5734
11.5861
11.6011
11.6192
11.6389
11.6579
11.6746
11.6887
11.7014
11.7143
11.7286
11.7451
11.7633
11.7817
11.7978
11.81
11.818
11.8243
11.8323
11.8452
11.8636
11.8843
11.9007
11.9088
11.9104
11.9103
11.9126
11.9197
11.9322
11.9464
11.9578
11.9649
11.9698
11.9741
11.9781
11.9813
11.9825
11.9817
11.9807
11.9822
11.9879
11.9964
12.0019
1
1
1
1
1
1
1
1
1
1
1
1
1
1
1
1
1
1
1
1
1
1
1
1
1
1
1
1
1
1
1
1
1
1
1
1
1
1
1
1
1
1
1
1
1
1
1
1
1
1
1
1
1
1
1
1
1
1
1
1
1
1
1
1
1
1
1
1
1
1
1
1
1
1
1
1
1
1
1
1
1
1
1
1
1
1
1
1
1
1
1
1
1
1
1
1
1
1
1
4.89878
10.2102
10.385
10.4037
10.4295
10.4527
10.4797
10.5113
10.5503
10.5937
10.6353
10.6727
10.7056
10.7333
10.7552
10.7743
10.7962
10.823
10.8511
10.8782
10.9043
10.9294
10.9538
10.9787
11.0056
11.0348
11.0638
11.0897
11.1113
11.1304
11.1498
11.1708
11.1935
11.216
11.236
11.2534
11.2704
11.2888
11.312
11.3394
11.3669
11.3915
11.412
11.4307
11.4493
11.4705
11.4936
11.5162
11.5358
11.552
11.5662
11.5803
11.5956
11.6121
11.6289
11.6451
11.6606
11.676
11.6919
11.7085
11.7258
11.7434
11.761
11.7774
11.7908
11.8003
11.8067
11.8127
11.8219
11.8371
11.8575
11.8782
11.8921
11.8974
11.8981
11.8993
11.9046
11.9152
11.929
11.9415
11.9499
11.955
11.9594
11.964
11.9683
11.9713
11.9731
11.9739
11.9747
11.9771
11.9814
11.987
11.9899
1
1
1
1
1
1
1
1
1
1
1
1
1
1
1
1
1
1
1
1
1
1
1
1
1
1
1
1
1
1
1
1
1
1
1
1
1
1
1
1
1
1
1
1
1
1
1
1
1
1
1
1
1
1
1
1
1
1
1
1
1
1
1
1
1
1
1
1
1
1
1
1
1
1
1
1
1
1
1
1
1
1
1
1
1
1
1
1
1
1
1
1
1
1
1
1
1
1
1
4.56739
10.127
10.3832
10.4027
10.4269
10.4473
10.4735
10.5055
10.5459
10.5903
10.6315
10.6675
10.6983
10.7244
10.7456
10.7656
10.7893
10.8181
10.8474
10.8745
10.9
10.924
10.947
10.9709
10.9981
11.0289
11.0593
11.0858
11.1068
11.1242
11.1415
11.1614
11.1847
11.2095
11.2323
11.2512
11.268
11.2849
11.305
11.3299
11.3563
11.3822
11.4052
11.4263
11.4462
11.4669
11.4879
11.508
11.5261
11.5425
11.5582
11.5737
11.5891
11.6038
11.6178
11.6317
11.6467
11.6639
11.6833
11.7037
11.7234
11.7415
11.7576
11.7711
11.7815
11.789
11.7948
11.8015
11.8123
11.8294
11.8505
11.8697
11.8809
11.8845
11.8856
11.8892
11.8981
11.9115
11.9253
11.9349
11.9401
11.9437
11.9483
11.9538
11.9585
11.9613
11.9633
11.9654
11.968
11.9711
11.9743
11.9768
11.9772
1
1
1
1
1
1
1
1
1
1
1
1
1
1
1
1
1
1
1
1
1
1
1
1
1
1
1
1
1
1
1
1
1
1
1
1
1
1
1
1
1
1
1
1
1
1
1
1
1
1
1
1
1
1
1
1
1
1
1
1
1
1
1
1
1
1
1
1
1
1
1
1
1
1
1
1
1
1
1
1
1
1
1
1
1
1
1
1
1
1
1
1
1
1
1
1
1
1
1
4.22584
10.0251
10.3796
10.4001
10.4244
10.4431
10.4693
10.5018
10.5426
10.5868
10.6266
10.6605
10.6896
10.7149
10.7364
10.7577
10.7832
10.8133
10.8428
10.8693
10.8938
10.9171
10.9392
10.9629
10.9908
11.0225
11.0537
11.0808
11.1019
11.1183
11.1339
11.1525
11.1754
11.2013
11.2265
11.2474
11.2648
11.2808
11.2984
11.321
11.3462
11.3727
11.3975
11.4204
11.4413
11.4614
11.4809
11.4993
11.5166
11.5333
11.5497
11.5657
11.5805
11.5937
11.606
11.6189
11.6342
11.6532
11.6753
11.6984
11.7199
11.738
11.7523
11.7629
11.7706
11.7768
11.7831
11.7914
11.8042
11.8222
11.8423
11.8587
11.8675
11.8707
11.8735
11.8801
11.8924
11.9072
11.9193
11.9258
11.9284
11.9314
11.937
11.9437
11.9487
11.9511
11.9532
11.9563
11.9603
11.9642
11.9664
11.9661
11.9644
1
1
1
1
1
1
1
1
1
1
1
1
1
1
1
1
1
1
1
1
1
1
1
1
1
1
1
1
1
1
1
1
1
1
1
1
1
1
1
1
1
1
1
1
1
1
1
1
1
1
1
1
1
1
1
1
1
1
1
1
1
1
1
1
1
1
1
1
1
1
1
1
1
1
1
1
1
1
1
1
1
1
1
1
1
1
1
1
1
1
1
1
1
1
1
1
1
1
1
3.87031
9.89905
10.3752
10.3974
10.4229
10.4409
10.4664
10.4987
10.5391
10.582
10.62
10.6523
10.6801
10.7056
10.7285
10.751
10.7777
10.8079
10.8366
10.8621
10.8859
10.9088
10.9311
10.955
10.9835
11.0154
11.0465
11.0741
11.0962
11.1131
11.1281
11.1456
11.1672
11.1927
11.2189
11.2416
11.26
11.2759
11.292
11.3132
11.3373
11.364
11.3894
11.4129
11.434
11.4537
11.4727
11.4909
11.5083
11.525
11.5407
11.5553
11.5687
11.581
11.5933
11.607
11.6237
11.6442
11.6679
11.6925
11.715
11.7329
11.7454
11.7535
11.759
11.7644
11.7716
11.7819
11.7964
11.8141
11.8316
11.8447
11.852
11.8564
11.8622
11.8726
11.8873
11.9017
11.9108
11.9143
11.9158
11.9192
11.9261
11.9339
11.9387
11.9405
11.9424
11.9464
11.9518
11.9561
11.9575
11.9547
11.9513
1
1
1
1
1
1
1
1
1
1
1
1
1
1
1
1
1
1
1
1
1
1
1
1
1
1
1
1
1
1
1
1
1
1
1
1
1
1
1
1
1
1
1
1
1
1
1
1
1
1
1
1
1
1
1
1
1
1
1
1
1
1
1
1
1
1
1
1
1
1
1
1
1
1
1
1
1
1
1
1
1
1
1
1
1
1
1
1
1
1
1
1
1
1
1
1
1
1
1
3.50311
9.74603
10.3695
10.3959
10.423
10.4406
10.4653
10.4965
10.5356
10.5763
10.6125
10.6437
10.6709
10.6964
10.7209
10.745
10.7723
10.802
10.8292
10.8536
10.8768
10.9001
10.9232
10.9477
10.9762
11.0072
11.0374
11.0652
11.0887
11.1071
11.1227
11.1394
11.1596
11.1836
11.2098
11.2335
11.2531
11.2695
11.2853
11.3058
11.3293
11.3558
11.3811
11.4042
11.4247
11.444
11.4635
11.4829
11.501
11.5171
11.531
11.5432
11.5546
11.5667
11.5805
11.5968
11.6156
11.637
11.6608
11.6853
11.7078
11.7251
11.7364
11.7426
11.7466
11.7519
11.7604
11.7729
11.7884
11.8048
11.8189
11.8289
11.836
11.8429
11.8528
11.8665
11.8816
11.8933
11.8992
11.9008
11.9024
11.9072
11.9157
11.9237
11.9278
11.929
11.931
11.936
11.9425
11.9471
11.9475
11.9427
11.9381
1
1
1
1
1
1
1
1
1
1
1
1
1
1
1
1
1
1
1
1
1
1
1
1
1
1
1
1
1
1
1
1
1
1
1
1
1
1
1
1
1
1
1
1
1
1
1
1
1
1
1
1
1
1
1
1
1
1
1
1
1
1
1
1
1
1
1
1
1
1
1
1
1
1
1
1
1
1
1
1
1
1
1
1
1
1
1
1
1
1
1
1
1
1
1
1
1
1
1
3.13046
9.5616
10.3623
10.3948
10.4243
10.4423
10.4644
10.493
10.5306
10.5702
10.6054
10.6358
10.6625
10.6881
10.7138
10.7391
10.7668
10.7959
10.8219
10.8454
10.8683
10.892
10.9162
10.9413
10.9692
10.9988
11.0278
11.0554
11.0803
11.1006
11.1172
11.1338
11.1531
11.1756
11.201
11.2251
11.2453
11.2623
11.2782
11.2982
11.3213
11.3473
11.372
11.3943
11.4142
11.4336
11.454
11.4747
11.4934
11.5084
11.5199
11.5293
11.5391
11.5517
11.5683
11.5878
11.6088
11.6307
11.6536
11.677
11.6985
11.7152
11.7256
11.7309
11.7343
11.7398
11.7497
11.7638
11.7794
11.7934
11.804
11.812
11.8202
11.8309
11.8451
11.8607
11.8739
11.8817
11.8847
11.8859
11.8888
11.8959
11.9056
11.9129
11.9158
11.9167
11.9192
11.9253
11.9328
11.9373
11.9364
11.9298
11.9246
1
1
1
1
1
1
1
1
1
1
1
1
1
1
1
1
1
1
1
1
1
1
1
1
1
1
1
1
1
1
1
1
1
1
1
1
1
1
1
1
1
1
1
1
1
1
1
1
1
1
1
1
1
1
1
1
1
1
1
1
1
1
1
1
1
1
1
1
1
1
1
1
1
1
1
1
1
1
1
1
1
1
1
1
1
1
1
1
1
1
1
1
1
1
1
1
1
1
1
2.76268
9.34026
10.3602
10.3939
10.4241
10.4425
10.4636
10.4901
10.526
10.5646
10.5993
10.6296
10.6557
10.6806
10.7066
10.7328
10.7609
10.7894
10.8149
10.838
10.8606
10.8846
10.9095
10.9348
10.962
10.9904
11.0183
11.0455
11.0712
11.093
11.1106
11.1274
11.1461
11.1674
11.192
11.2162
11.237
11.2547
11.2708
11.2903
11.3128
11.338
11.3621
11.3841
11.4039
11.4238
11.4449
11.4661
11.4843
11.4978
11.5072
11.5148
11.524
11.538
11.5574
11.5799
11.6026
11.6245
11.646
11.6675
11.6874
11.7031
11.7132
11.7184
11.7219
11.728
11.7391
11.7538
11.7684
11.7799
11.7878
11.7951
11.8057
11.8209
11.8386
11.8539
11.8634
11.8672
11.8684
11.8703
11.8757
11.8854
11.8952
11.9008
11.9025
11.9037
11.9074
11.9144
11.9226
11.9264
11.9241
11.9159
11.9108
1
1
1
1
1
1
1
1
1
1
1
1
1
1
1
1
1
1
1
1
1
1
1
1
1
1
1
1
1
1
1
1
1
1
1
1
1
1
1
1
1
1
1
1
1
1
1
1
1
1
1
1
1
1
1
1
1
1
1
1
1
1
1
1
1
1
1
1
1
1
1
1
1
1
1
1
1
1
1
1
1
1
1
1
1
1
1
1
1
1
1
1
1
1
1
1
1
1
1
2.41068
9.07433
10.3638
10.3936
10.4232
10.4412
10.4616
10.4869
10.5208
10.5584
10.593
10.6231
10.6491
10.6732
10.6994
10.726
10.754
10.782
10.8074
10.8306
10.8533
10.8773
10.9025
10.9278
10.9546
10.9823
11.0096
11.0363
11.0621
11.0846
11.1026
11.1195
11.1378
11.1584
11.1825
11.2072
11.2287
11.2473
11.2636
11.282
11.3033
11.3274
11.3513
11.3738
11.3945
11.4149
11.4358
11.4559
11.4725
11.4845
11.4931
11.5007
11.5108
11.5264
11.5478
11.572
11.5956
11.6172
11.6373
11.6567
11.6747
11.6895
11.6995
11.7053
11.7097
11.7167
11.7282
11.7425
11.7553
11.7645
11.771
11.7793
11.7933
11.8127
11.8318
11.8444
11.8493
11.8502
11.851
11.8547
11.8635
11.8748
11.8833
11.8868
11.8879
11.8902
11.8957
11.9038
11.9117
11.9142
11.9102
11.9011
11.8968
1
1
1
1
1
1
1
1
1
1
1
1
1
1
1
1
1
1
1
1
1
1
1
1
1
1
1
1
1
1
1
1
1
1
1
1
1
1
1
1
1
1
1
1
1
1
1
1
1
1
1
1
1
1
1
1
1
1
1
1
1
1
1
1
1
1
1
1
1
1
1
1
1
1
1
1
1
1
1
1
1
1
1
1
1
1
1
1
1
1
1
1
1
1
1
1
1
1
1
2.0864
8.76288
10.3706
10.3938
10.4195
10.4363
10.4566
10.4817
10.5146
10.5508
10.585
10.6148
10.6409
10.6656
10.6925
10.7196
10.7474
10.7743
10.7991
10.8223
10.8455
10.8698
10.8953
10.9207
10.9473
10.9745
11.0014
11.0278
11.0532
11.0758
11.0939
11.1106
11.1284
11.1483
11.1719
11.1973
11.2201
11.24
11.2567
11.2737
11.2934
11.3159
11.3397
11.3632
11.3853
11.4061
11.4259
11.4436
11.458
11.469
11.4783
11.4877
11.4998
11.5169
11.539
11.5635
11.5872
11.6085
11.6274
11.645
11.6612
11.6749
11.685
11.6918
11.6976
11.7054
11.7166
11.7292
11.7398
11.7475
11.7542
11.7651
11.7833
11.8053
11.8231
11.8314
11.8324
11.832
11.8336
11.8403
11.852
11.863
11.8691
11.871
11.8724
11.8768
11.8847
11.8933
11.8999
11.9004
11.8947
11.8853
11.8825
1
1
1
1
1
1
1
1
1
1
1
1
1
1
1
1
1
1
1
1
1
1
1
1
1
1
1
1
1
1
1
1
1
1
1
1
1
1
1
1
1
1
1
1
1
1
1
1
1
1
1
1
1
1
1
1
1
1
1
1
1
1
1
1
1
1
1
1
1
1
1
1
1
1
1
1
1
1
1
1
1
1
1
1
1
1
1
1
1
1
1
1
1
1
1
1
1
1
1
1.79573
8.39857
10.3733
10.395
10.417
10.4324
10.4519
10.4765
10.5083
10.5428
10.5755
10.6045
10.6311
10.6579
10.6859
10.7134
10.7403
10.7655
10.7891
10.8121
10.8362
10.8618
10.8884
10.9144
10.9407
10.9668
10.9927
11.0185
11.0436
11.0666
11.0851
11.1016
11.1186
11.1375
11.1601
11.1862
11.2106
11.2321
11.2497
11.2658
11.2837
11.3042
11.3275
11.3519
11.3755
11.3966
11.4149
11.4299
11.4419
11.4525
11.4635
11.4757
11.4904
11.5088
11.5305
11.5541
11.5772
11.598
11.6161
11.6321
11.6465
11.6593
11.6696
11.6778
11.6853
11.6939
11.7039
11.7141
11.7226
11.7298
11.7383
11.7533
11.7752
11.7972
11.811
11.8146
11.8137
11.8133
11.8172
11.8277
11.8404
11.849
11.852
11.8531
11.856
11.864
11.8745
11.8826
11.8868
11.8848
11.8776
11.8689
11.8681
1
1
1
1
1
1
1
1
1
1
1
1
1
1
1
1
1
1
1
1
1
1
1
1
1
1
1
1
1
1
1
1
1
1
1
1
1
1
1
1
1
1
1
1
1
1
1
1
1
1
1
1
1
1
1
1
1
1
1
1
1
1
1
1
1
1
1
1
1
1
1
1
1
1
1
1
1
1
1
1
1
1
1
1
1
1
1
1
1
1
1
1
1
1
1
1
1
1
1
1.54127
7.98615
10.3817
10.3935
10.4103
10.426
10.4467
10.4721
10.5028
10.5351
10.566
10.594
10.6211
10.6495
10.6789
10.707
10.733
10.756
10.7776
10.7999
10.8251
10.853
10.8817
10.909
10.9349
10.9594
10.9833
11.0076
11.0324
11.0564
11.0765
11.0935
11.11
11.1274
11.1481
11.1737
11.1993
11.2226
11.2419
11.258
11.2746
11.2931
11.3152
11.3396
11.3639
11.3853
11.4024
11.4152
11.4254
11.436
11.4489
11.4642
11.4816
11.5009
11.5217
11.5436
11.5655
11.5857
11.6031
11.6179
11.631
11.643
11.6538
11.6637
11.6729
11.6817
11.6897
11.6973
11.7041
11.7119
11.7238
11.7436
11.7675
11.7866
11.7949
11.795
11.7937
11.795
11.8028
11.8164
11.8278
11.8322
11.8325
11.8333
11.8393
11.8519
11.8648
11.8712
11.8721
11.8673
11.859
11.8519
11.8535
1
1
1
1
1
1
1
1
1
1
1
1
1
1
1
1
1
1
1
1
1
1
1
1
1
1
1
1
1
1
1
1
1
1
1
1
1
1
1
1
1
1
1
1
1
1
1
1
1
1
1
1
1
1
1
1
1
1
1
1
1
1
1
1
1
1
1
1
1
1
1
1
1
1
1
1
1
1
1
1
1
1
1
1
1
1
1
1
1
1
1
1
1
1
1
1
1
1
1
1.31834
7.53054
10.3857
10.3824
10.3984
10.4167
10.4397
10.4662
10.4957
10.5258
10.5547
10.5816
10.6094
10.6395
10.6702
10.699
10.7244
10.7459
10.7658
10.787
10.8129
10.8431
10.8745
10.9038
10.9297
10.9525
10.9738
10.9957
11.0195
11.0446
11.0672
11.0858
11.1025
11.1187
11.1368
11.1605
11.1863
11.2112
11.2329
11.2502
11.2661
11.2825
11.3026
11.3255
11.3497
11.3716
11.3888
11.401
11.4103
11.4208
11.4349
11.4526
11.472
11.4919
11.5119
11.5322
11.5526
11.5719
11.5886
11.6025
11.6145
11.626
11.6377
11.6493
11.6601
11.6684
11.6739
11.6789
11.6851
11.6947
11.7113
11.7352
11.7585
11.7723
11.7753
11.7738
11.7734
11.7781
11.7906
11.8051
11.813
11.8127
11.8105
11.8124
11.8227
11.8404
11.8548
11.8587
11.8556
11.8479
11.8393
11.8345
11.8385
1
1
1
1
1
1
1
1
1
1
1
1
1
1
1
1
1
1
1
1
1
1
1
1
1
1
1
1
1
1
1
1
1
1
1
1
1
1
1
1
1
1
1
1
1
1
1
1
1
1
1
1
1
1
1
1
1
1
1
1
1
1
1
1
1
1
1
1
1
1
1
1
1
1
1
1
1
1
1
1
1
1
1
1
1
1
1
1
1
1
1
1
1
1
1
1
1
1
1
1.11581
7.03658
10.3659
10.3673
10.3829
10.4052
10.4336
10.4656
10.4971
10.5254
10.5512
10.5758
10.6028
10.6327
10.6628
10.6908
10.7148
10.7347
10.7535
10.7738
10.7999
10.8318
10.8657
10.8972
10.9238
10.9455
10.9645
10.9837
11.0059
11.0311
11.0561
11.0772
11.0952
11.1108
11.1269
11.1479
11.1726
11.1982
11.2222
11.2412
11.2571
11.2716
11.289
11.3098
11.3335
11.3564
11.375
11.3879
11.3969
11.4069
11.4212
11.4399
11.4607
11.4813
11.5009
11.52
11.5389
11.5569
11.5726
11.5855
11.5969
11.6085
11.6214
11.6347
11.6465
11.6539
11.6565
11.6595
11.6661
11.6791
11.7004
11.7263
11.7461
11.7538
11.7533
11.7516
11.7536
11.7634
11.7797
11.7924
11.7953
11.7909
11.7868
11.7913
11.8069
11.8288
11.8435
11.8445
11.8373
11.8269
11.8188
11.8168
11.8228
1
1
1
1
1
1
1
1
1
1
1
1
1
1
1
1
1
1
1
1
1
1
1
1
1
1
1
1
1
1
1
1
1
1
1
1
1
1
1
1
1
1
1
1
1
1
1
1
1
1
1
1
1
1
1
1
1
1
1
1
1
1
1
1
1
1
1
1
1
1
1
1
1
1
1
1
1
1
1
1
1
1
1
1
1
1
1
1
1
1
1
1
1
1
1
1
1
1
1
1.00483
6.52407
10.2929
10.3386
10.3632
10.3917
10.4215
10.4531
10.4836
10.5126
10.5395
10.5648
10.5919
10.6216
10.6516
10.6796
10.7032
10.7231
10.7417
10.762
10.788
10.8203
10.8552
10.8881
10.9158
10.9375
10.9555
10.9729
10.9931
11.0174
11.0433
11.0666
11.0862
11.1025
11.1176
11.1361
11.1591
11.1844
11.2099
11.2304
11.2464
11.2594
11.2742
11.2929
11.3163
11.3406
11.3613
11.3757
11.385
11.3941
11.4076
11.4261
11.4476
11.469
11.4886
11.5068
11.5242
11.5406
11.5551
11.5672
11.5784
11.5909
11.6054
11.6199
11.6317
11.6374
11.6379
11.6399
11.648
11.6652
11.6901
11.715
11.7295
11.7317
11.7299
11.7298
11.7359
11.751
11.7679
11.7765
11.7747
11.7673
11.7629
11.771
11.7919
11.8162
11.8298
11.828
11.8172
11.805
11.7981
11.7989
11.8062
1
1
1
1
1
1
1
1
1
1
1
1
1
1
1
1
1
1
1
1
1
1
1
1
1
1
1
1
1
1
1
1
1
1
1
1
1
1
1
1
1
1
1
1
1
1
1
1
1
1
1
1
1
1
1
1
1
1
1
1
1
1
1
1
1
1
1
1
1
1
1
1
1
1
1
1
1
1
1
1
1
1
1
1
1
1
1
1
1
1
1
1
1
1
1
1
1
1
1
1.00003
5.89768
10.2123
10.3099
10.3441
10.3778
10.4118
10.4451
10.4771
10.5077
10.5354
10.5604
10.5858
10.6133
10.6412
10.6679
10.6911
10.7121
10.7318
10.7529
10.779
10.8102
10.8438
10.876
10.9037
10.9263
10.9448
10.9618
10.9809
11.004
11.0296
11.0539
11.0749
11.0924
11.1077
11.1246
11.1461
11.1705
11.1963
11.2175
11.2333
11.2452
11.2581
11.2756
11.2993
11.3253
11.3482
11.3641
11.3735
11.3814
11.3935
11.4112
11.4329
11.455
11.4751
11.4927
11.5086
11.5233
11.5363
11.5479
11.5596
11.5734
11.5895
11.6046
11.6152
11.6189
11.6183
11.6206
11.6314
11.6527
11.6789
11.6997
11.7081
11.7074
11.706
11.7093
11.7213
11.7395
11.7532
11.7566
11.7513
11.7429
11.7401
11.7525
11.7774
11.8014
11.8128
11.8089
11.7957
11.7826
11.7773
11.7806
11.7882
1
1
1
1
1
1
1
1
1
1
1
1
1
1
1
1
1
1
1
1
1
1
1
1
1
1
1
1
1
1
1
1
1
1
1
1
1
1
1
1
1
1
1
1
1
1
1
1
1
1
1
1
1
1
1
1
1
1
1
1
1
1
1
1
1
1
1
1
1
1
1
1
1
1
1
1
1
1
1
1
1
1
1
1
1
1
1
1
1
1
1
1
1
1
1
1
1
1
1
1
5.22167
10.1169
10.297
10.3324
10.3653
10.3991
10.4332
10.4668
10.4995
10.5288
10.5545
10.579
10.6046
10.6304
10.6553
10.6773
10.6993
10.721
10.7438
10.7704
10.8009
10.8331
10.8638
10.8908
10.914
10.9341
10.9522
10.9712
10.9929
11.0167
11.0402
11.0612
11.0797
11.0961
11.1128
11.1335
11.1568
11.1819
11.2026
11.2179
11.2291
11.2412
11.2589
11.2836
11.3111
11.3353
11.3519
11.3611
11.3678
11.3784
11.3953
11.4171
11.44
11.4605
11.4776
11.4919
11.5047
11.5165
11.5281
11.5408
11.5563
11.5734
11.5882
11.5969
11.5989
11.5982
11.6024
11.617
11.6405
11.6648
11.6798
11.6827
11.6814
11.683
11.692
11.7092
11.726
11.7342
11.7329
11.7254
11.7185
11.7196
11.7361
11.7625
11.7836
11.7921
11.787
11.7731
11.7606
11.7569
11.7616
11.7685
1
1
1
1
1
1
1
1
1
1
1
1
1
1
1
1
1
1
1
1
1
1
1
1
1
1
1
1
1
1
1
1
1
1
1
1
1
1
1
1
1
1
1
1
1
1
1
1
1
1
1
1
1
1
1
1
1
1
1
1
1
1
1
1
1
1
1
1
1
1
1
1
1
1
1
1
1
1
1
1
1
1
1
1
1
1
1
1
1
1
1
1
1
1
1
1
1
1
1
1
4.52659
9.98645
10.2872
10.3245
10.358
10.3912
10.4241
10.457
10.4901
10.5201
10.5467
10.5712
10.5953
10.6197
10.6429
10.6644