/*--------------------------------*- C++ -*----------------------------------*\
  =========                 |
  \\      /  F ield         | OpenFOAM: The Open Source CFD Toolbox
   \\    /   O peration     | Website:  https://openfoam.org
    \\  /    A nd           | Version:  7
     \\/     M anipulation  |
\*---------------------------------------------------------------------------*/
FoamFile
{
    version     2.0;
    format      ascii;
    class       volScalarField;
    location    "2.8";
    object      rho;
}
// * * * * * * * * * * * * * * * * * * * * * * * * * * * * * * * * * * * * * //

dimensions      [1 -3 0 0 0 0 0];

internalField   nonuniform List<scalar> 
258048
(
1.40001
1.40001
1.40001
1.40001
1.40001
1.40001
1.40001
1.40001
1.40001
1.40001
1.40001
1.40001
1.40001
1.40001
1.40001
1.40001
1.40001
1.40001
1.40001
1.40001
1.40001
1.40001
1.40001
1.40001
1.40001
1.40001
1.40001
1.40001
1.40001
1.40001
1.40001
1.40001
1.40001
1.40001
1.40001
1.40001
1.40001
1.40001
1.40001
1.40001
1.40001
1.40001
1.40001
1.40001
1.40001
1.40001
1.40001
1.40001
1.40001
1.40001
1.40001
1.40001
1.40001
1.40001
1.40001
1.40001
1.40001
1.40001
1.40001
1.40001
1.40001
1.40001
1.40001
1.40001
1.40001
1.40001
1.40001
1.40001
1.40001
1.40001
1.40001
1.40001
1.40001
1.40001
1.40001
1.40001
1.40001
1.40001
1.40001
1.40001
1.40001
1.40001
1.40001
1.40001
1.40001
1.40001
1.40001
1.40001
1.40001
1.40001
1.40001
1.40001
1.40001
1.40001
1.40001
1.40001
1.40001
1.40001
1.58412
4.39859
5.40387
5.4177
5.42966
5.44335
5.45808
5.47354
5.489
5.50367
5.51608
5.52565
5.53264
5.53808
5.54381
5.55131
5.56101
5.57234
5.58443
5.59667
5.60852
5.6194
5.62913
5.63778
5.64571
5.65391
5.66391
5.6762
5.6888
5.69962
5.70832
5.71426
5.71784
5.7207
5.72304
5.72653
5.73331
5.74378
5.75708
5.77173
5.78607
5.79855
5.80811
5.81513
5.81985
5.82266
5.8251
5.82875
5.83435
5.84164
5.84945
5.85672
5.86345
5.87023
5.87747
5.88508
5.89236
5.89844
5.90314
5.90698
5.91085
5.91526
5.91998
5.92444
5.92791
5.93025
5.93256
5.9365
5.94315
5.95209
5.96154
5.96939
5.9745
5.97766
5.98047
5.98313
5.98512
5.98634
5.98702
5.98728
5.98781
5.98937
5.99185
5.99455
5.99652
5.99802
5.99951
6.00017
5.99873
5.9945
5.98719
5.97896
5.97229
5.96957
1.40001
1.40001
1.40001
1.40001
1.40001
1.40001
1.40001
1.40001
1.40001
1.40001
1.40001
1.40001
1.40001
1.40001
1.40001
1.40001
1.40001
1.40001
1.40001
1.40001
1.40001
1.40001
1.40001
1.40001
1.40001
1.40001
1.40001
1.40001
1.40001
1.40001
1.40001
1.40001
1.40001
1.40001
1.40001
1.40001
1.40001
1.40001
1.40001
1.40001
1.40001
1.40001
1.40001
1.40001
1.40001
1.40001
1.40001
1.40001
1.40001
1.40001
1.40001
1.40001
1.40001
1.40001
1.40001
1.40001
1.40001
1.40001
1.40001
1.40001
1.40001
1.40001
1.40001
1.40001
1.40001
1.40001
1.40001
1.40001
1.40001
1.40001
1.40001
1.40001
1.40001
1.40001
1.40001
1.40001
1.40001
1.40001
1.40001
1.40001
1.40001
1.40001
1.40001
1.40001
1.40001
1.40001
1.40001
1.40001
1.40001
1.40001
1.40001
1.40001
1.40001
1.40001
1.40001
1.40001
1.40001
1.40001
1.5815
4.39286
5.4032
5.41697
5.42968
5.44352
5.45861
5.474
5.48914
5.50314
5.51553
5.52559
5.53277
5.53839
5.54425
5.55174
5.5613
5.57242
5.58423
5.59626
5.60829
5.61964
5.62976
5.63845
5.64595
5.65331
5.66226
5.67397
5.68689
5.69859
5.7081
5.71469
5.71861
5.72148
5.72362
5.72678
5.7333
5.74375
5.75715
5.77177
5.78584
5.79787
5.8071
5.8142
5.81928
5.82261
5.82553
5.82947
5.83503
5.84193
5.84922
5.85613
5.86289
5.87002
5.87771
5.88571
5.89329
5.8995
5.90401
5.90748
5.9109
5.91504
5.91979
5.92443
5.92813
5.93066
5.93302
5.9369
5.94341
5.95225
5.9617
5.96961
5.97478
5.97795
5.98065
5.98316
5.98506
5.98629
5.987
5.98726
5.98773
5.9892
5.99168
5.99446
5.99654
5.99809
5.99946
5.99993
5.99835
5.99406
5.98684
5.97876
5.97221
5.96953
1.40001
1.40001
1.40001
1.40001
1.40001
1.40001
1.40001
1.40001
1.40001
1.40001
1.40001
1.40001
1.40001
1.40001
1.40001
1.40001
1.40001
1.40001
1.40001
1.40001
1.40001
1.40001
1.40001
1.40001
1.40001
1.40001
1.40001
1.40001
1.40001
1.40001
1.40001
1.40001
1.40001
1.40001
1.40001
1.40001
1.40001
1.40001
1.40001
1.40001
1.40001
1.40001
1.40001
1.40001
1.40001
1.40001
1.40001
1.40001
1.40001
1.40001
1.40001
1.40001
1.40001
1.40001
1.40001
1.40001
1.40001
1.40001
1.40001
1.40001
1.40001
1.40001
1.40001
1.40001
1.40001
1.40001
1.40001
1.40001
1.40001
1.40001
1.40001
1.40001
1.40001
1.40001
1.40001
1.40001
1.40001
1.40001
1.40001
1.40001
1.40001
1.40001
1.40001
1.40001
1.40001
1.40001
1.40001
1.40001
1.40001
1.40001
1.40001
1.40001
1.40001
1.40001
1.40001
1.40001
1.40001
1.40001
1.57595
4.38093
5.40315
5.41602
5.42979
5.44418
5.45948
5.47447
5.48858
5.50161
5.51311
5.52256
5.53006
5.5364
5.54319
5.55145
5.56138
5.57249
5.58405
5.59578
5.60786
5.61961
5.63015
5.639
5.64622
5.65278
5.6605
5.67117
5.68415
5.69675
5.70725
5.71474
5.71938
5.72251
5.72457
5.72739
5.73354
5.74382
5.75721
5.77177
5.78558
5.7971
5.80585
5.81284
5.81814
5.82199
5.82558
5.82998
5.83553
5.84206
5.84867
5.85487
5.86118
5.86829
5.87635
5.88496
5.89314
5.89985
5.9045
5.90761
5.91039
5.91377
5.91806
5.92273
5.92678
5.92981
5.93254
5.93647
5.94279
5.95136
5.96065
5.96854
5.97381
5.97705
5.97973
5.98221
5.98415
5.98556
5.98647
5.98681
5.98715
5.98845
5.9909
5.99382
5.99624
5.99808
5.99939
5.99961
5.99778
5.99331
5.98615
5.9783
5.97202
5.96946
1.40001
1.40001
1.40001
1.40001
1.40001
1.40001
1.40001
1.40001
1.40001
1.40001
1.40001
1.40001
1.40001
1.40001
1.40001
1.40001
1.40001
1.40001
1.40001
1.40001
1.40001
1.40001
1.40001
1.40001
1.40001
1.40001
1.40001
1.40001
1.40001
1.40001
1.40001
1.40001
1.40001
1.40001
1.40001
1.40001
1.40001
1.40001
1.40001
1.40001
1.40001
1.40001
1.40001
1.40001
1.40001
1.40001
1.40001
1.40001
1.40001
1.40001
1.40001
1.40001
1.40001
1.40001
1.40001
1.40001
1.40001
1.40001
1.40001
1.40001
1.40001
1.40001
1.40001
1.40001
1.40001
1.40001
1.40001
1.40001
1.40001
1.40001
1.40001
1.40001
1.40001
1.40001
1.40001
1.40001
1.40001
1.40001
1.40001
1.40001
1.40001
1.40001
1.40001
1.40001
1.40001
1.40001
1.40001
1.40001
1.40001
1.40001
1.40001
1.40001
1.40001
1.40001
1.40001
1.40001
1.40001
1.40001
1.56773
4.36183
5.40071
5.41669
5.43095
5.4452
5.46025
5.47468
5.48798
5.49995
5.51036
5.51918
5.527
5.53431
5.54208
5.55128
5.5618
5.57296
5.5842
5.59561
5.60767
5.6196
5.63032
5.63915
5.64596
5.65172
5.65838
5.66796
5.68075
5.69421
5.70589
5.71449
5.72011
5.72374
5.72592
5.72858
5.73434
5.74422
5.75722
5.77131
5.78449
5.7954
5.8039
5.8111
5.81692
5.82149
5.82574
5.83031
5.83561
5.84165
5.84778
5.85369
5.85987
5.86688
5.87505
5.88414
5.89302
5.90024
5.90516
5.90819
5.91045
5.91303
5.91665
5.9211
5.92548
5.92919
5.93257
5.9368
5.94302
5.95122
5.96015
5.96788
5.97317
5.97649
5.97919
5.98164
5.98363
5.98515
5.98615
5.98645
5.98657
5.98766
5.99001
5.99309
5.99597
5.99817
5.99937
5.99914
5.99685
5.99208
5.98502
5.97756
5.97174
5.96944
1.40001
1.40001
1.40001
1.40001
1.40001
1.40001
1.40001
1.40001
1.40001
1.40001
1.40001
1.40001
1.40001
1.40001
1.40001
1.40001
1.40001
1.40001
1.40001
1.40001
1.40001
1.40001
1.40001
1.40001
1.40001
1.40001
1.40001
1.40001
1.40001
1.40001
1.40001
1.40001
1.40001
1.40001
1.40001
1.40001
1.40001
1.40001
1.40001
1.40001
1.40001
1.40001
1.40001
1.40001
1.40001
1.40001
1.40001
1.40001
1.40001
1.40001
1.40001
1.40001
1.40001
1.40001
1.40001
1.40001
1.40001
1.40001
1.40001
1.40001
1.40001
1.40001
1.40001
1.40001
1.40001
1.40001
1.40001
1.40001
1.40001
1.40001
1.40001
1.40001
1.40001
1.40001
1.40001
1.40001
1.40001
1.40001
1.40001
1.40001
1.40001
1.40001
1.40001
1.40001
1.40001
1.40001
1.40001
1.40001
1.40001
1.40001
1.40001
1.40001
1.40001
1.40001
1.40001
1.40001
1.40001
1.40001
1.55331
4.33152
5.39879
5.41833
5.43248
5.44696
5.4614
5.47463
5.48654
5.49709
5.50653
5.51505
5.52343
5.53188
5.5409
5.55118
5.5624
5.5737
5.58484
5.59603
5.60769
5.61938
5.62996
5.63859
5.64514
5.65058
5.65671
5.66537
5.67743
5.69117
5.70377
5.71353
5.7204
5.72487
5.72752
5.73026
5.73561
5.74485
5.75714
5.7704
5.78271
5.79309
5.80165
5.80935
5.81587
5.82116
5.82579
5.83026
5.83516
5.84072
5.84664
5.85266
5.85902
5.86605
5.87401
5.88294
5.89206
5.89988
5.90546
5.90882
5.9107
5.91237
5.91495
5.91877
5.92332
5.92787
5.93227
5.93718
5.94339
5.95101
5.95919
5.96644
5.9717
5.97526
5.97817
5.98077
5.98295
5.98465
5.98568
5.98588
5.98575
5.98659
5.98885
5.99214
5.99555
5.99815
5.99926
5.99846
5.99554
5.99038
5.98345
5.97654
5.97144
5.96959
1.40001
1.40001
1.40001
1.40001
1.40001
1.40001
1.40001
1.40001
1.40001
1.40001
1.40001
1.40001
1.40001
1.40001
1.40001
1.40001
1.40001
1.40001
1.40001
1.40001
1.40001
1.40001
1.40001
1.40001
1.40001
1.40001
1.40001
1.40001
1.40001
1.40001
1.40001
1.40001
1.40001
1.40001
1.40001
1.40001
1.40001
1.40001
1.40001
1.40001
1.40001
1.40001
1.40001
1.40001
1.40001
1.40001
1.40001
1.40001
1.40001
1.40001
1.40001
1.40001
1.40001
1.40001
1.40001
1.40001
1.40001
1.40001
1.40001
1.40001
1.40001
1.40001
1.40001
1.40001
1.40001
1.40001
1.40001
1.40001
1.40001
1.40001
1.40001
1.40001
1.40001
1.40001
1.40001
1.40001
1.40001
1.40001
1.40001
1.40001
1.40001
1.40001
1.40001
1.40001
1.40001
1.40001
1.40001
1.40001
1.40001
1.40001
1.40001
1.40001
1.40001
1.40001
1.40001
1.40001
1.40001
1.40001
1.5323
4.29241
5.40426
5.42263
5.43541
5.44886
5.46195
5.47412
5.48486
5.49464
5.50371
5.51217
5.52078
5.52999
5.53992
5.55113
5.56313
5.57491
5.58615
5.59694
5.60771
5.61855
5.6285
5.63679
5.64349
5.64935
5.65562
5.66373
5.67471
5.68801
5.70107
5.71193
5.72022
5.72588
5.72935
5.73236
5.73724
5.74548
5.75666
5.76878
5.78019
5.79033
5.7993
5.80776
5.81508
5.82092
5.8256
5.82961
5.83378
5.8389
5.845
5.85165
5.85863
5.86587
5.87347
5.88166
5.89036
5.89863
5.90513
5.90915
5.911
5.9119
5.91341
5.91639
5.92088
5.92623
5.93185
5.93772
5.94409
5.95108
5.95823
5.96468
5.96974
5.9736
5.97687
5.97977
5.98226
5.98411
5.98507
5.98513
5.98479
5.98537
5.98757
5.99112
5.99502
5.998
5.99899
5.99756
5.99389
5.98824
5.98145
5.97523
5.97111
5.96992
1.40001
1.40001
1.40001
1.40001
1.40001
1.40001
1.40001
1.40001
1.40001
1.40001
1.40001
1.40001
1.40001
1.40001
1.40001
1.40001
1.40001
1.40001
1.40001
1.40001
1.40001
1.40001
1.40001
1.40001
1.40001
1.40001
1.40001
1.40001
1.40001
1.40001
1.40001
1.40001
1.40001
1.40001
1.40001
1.40001
1.40001
1.40001
1.40001
1.40001
1.40001
1.40001
1.40001
1.40001
1.40001
1.40001
1.40001
1.40001
1.40001
1.40001
1.40001
1.40001
1.40001
1.40001
1.40001
1.40001
1.40001
1.40001
1.40001
1.40001
1.40001
1.40001
1.40001
1.40001
1.40001
1.40001
1.40001
1.40001
1.40001
1.40001
1.40001
1.40001
1.40001
1.40001
1.40001
1.40001
1.40001
1.40001
1.40001
1.40001
1.40001
1.40001
1.40001
1.40001
1.40001
1.40001
1.40001
1.40001
1.40001
1.40001
1.40001
1.40001
1.40001
1.40001
1.40001
1.40001
1.40001
1.40001
1.50741
4.24425
5.40703
5.42226
5.4344
5.44769
5.46062
5.4724
5.48292
5.49266
5.50177
5.51024
5.51911
5.52888
5.53937
5.55124
5.56379
5.57603
5.58739
5.59773
5.60731
5.61679
5.62579
5.63385
5.64116
5.64804
5.65504
5.66307
5.67295
5.68513
5.69809
5.70983
5.71946
5.72653
5.73107
5.73443
5.73873
5.74576
5.7556
5.76656
5.77731
5.78754
5.79706
5.80624
5.81431
5.82059
5.82516
5.8285
5.83188
5.83663
5.84316
5.85085
5.8587
5.86618
5.87329
5.88052
5.8884
5.89662
5.90387
5.9088
5.91095
5.91137
5.91199
5.91409
5.9183
5.92433
5.93123
5.93821
5.94487
5.95116
5.9571
5.96253
5.96731
5.97152
5.97534
5.97874
5.98156
5.98346
5.98426
5.98414
5.98372
5.98418
5.98633
5.99011
5.99437
5.99759
5.9984
5.99634
5.99188
5.98567
5.97897
5.97357
5.97067
5.97035
1.40001
1.40001
1.40001
1.40001
1.40001
1.40001
1.40001
1.40001
1.40001
1.40001
1.40001
1.40001
1.40001
1.40001
1.40001
1.40001
1.40001
1.40001
1.40001
1.40001
1.40001
1.40001
1.40001
1.40001
1.40001
1.40001
1.40001
1.40001
1.40001
1.40001
1.40001
1.40001
1.40001
1.40001
1.40001
1.40001
1.40001
1.40001
1.40001
1.40001
1.40001
1.40001
1.40001
1.40001
1.40001
1.40001
1.40001
1.40001
1.40001
1.40001
1.40001
1.40001
1.40001
1.40001
1.40001
1.40001
1.40001
1.40001
1.40001
1.40001
1.40001
1.40001
1.40001
1.40001
1.40001
1.40001
1.40001
1.40001
1.40001
1.40001
1.40001
1.40001
1.40001
1.40001
1.40001
1.40001
1.40001
1.40001
1.40001
1.40001
1.40001
1.40001
1.40001
1.40001
1.40001
1.40001
1.40001
1.40001
1.40001
1.40001
1.40001
1.40001
1.40001
1.40001
1.40001
1.40001
1.40001
1.40001
1.47675
4.1889
5.40163
5.42197
5.434
5.44724
5.45964
5.47074
5.48103
5.49085
5.50032
5.50938
5.5184
5.52809
5.5386
5.55065
5.56377
5.57672
5.58844
5.59858
5.60713
5.61503
5.6229
5.63067
5.63863
5.64664
5.65466
5.66299
5.67199
5.68291
5.69538
5.7076
5.71842
5.72686
5.73242
5.73593
5.73956
5.74537
5.75395
5.76404
5.77454
5.78507
5.79505
5.80467
5.81319
5.81972
5.82411
5.82695
5.82984
5.8344
5.84135
5.84993
5.8586
5.86635
5.87307
5.87947
5.88649
5.89432
5.90187
5.90751
5.91015
5.91046
5.91058
5.91207
5.91598
5.92255
5.93059
5.93852
5.94537
5.95096
5.9557
5.96012
5.9646
5.96923
5.97373
5.97766
5.98068
5.98248
5.98305
5.98281
5.98245
5.983
5.98522
5.98912
5.99354
5.99671
5.99731
5.99484
5.98966
5.98288
5.97628
5.97177
5.97016
5.97075
1.40001
1.40001
1.40001
1.40001
1.40001
1.40001
1.40001
1.40001
1.40001
1.40001
1.40001
1.40001
1.40001
1.40001
1.40001
1.40001
1.40001
1.40001
1.40001
1.40001
1.40001
1.40001
1.40001
1.40001
1.40001
1.40001
1.40001
1.40001
1.40001
1.40001
1.40001
1.40001
1.40001
1.40001
1.40001
1.40001
1.40001
1.40001
1.40001
1.40001
1.40001
1.40001
1.40001
1.40001
1.40001
1.40001
1.40001
1.40001
1.40001
1.40001
1.40001
1.40001
1.40001
1.40001
1.40001
1.40001
1.40001
1.40001
1.40001
1.40001
1.40001
1.40001
1.40001
1.40001
1.40001
1.40001
1.40001
1.40001
1.40001
1.40001
1.40001
1.40001
1.40001
1.40001
1.40001
1.40001
1.40001
1.40001
1.40001
1.40001
1.40001
1.40001
1.40001
1.40001
1.40001
1.40001
1.40001
1.40001
1.40001
1.40001
1.40001
1.40001
1.40001
1.40001
1.40001
1.40001
1.40001
1.40001
1.43307
4.12572
5.40007
5.42087
5.43327
5.44656
5.45859
5.46937
5.47993
5.49045
5.50022
5.50934
5.51805
5.52727
5.53744
5.54939
5.56296
5.57651
5.58858
5.59872
5.60674
5.61345
5.62025
5.62771
5.63619
5.64514
5.65418
5.66306
5.67155
5.68151
5.69338
5.70576
5.71735
5.72672
5.73285
5.73633
5.73941
5.74418
5.75186
5.76157
5.77222
5.7831
5.79331
5.80293
5.8115
5.81805
5.82237
5.82518
5.82813
5.8328
5.83996
5.84886
5.85794
5.86589
5.87247
5.87842
5.88483
5.89212
5.89947
5.90529
5.90831
5.90892
5.90903
5.91038
5.91429
5.92123
5.92995
5.9384
5.9452
5.95011
5.95385
5.95753
5.96187
5.96698
5.9722
5.97656
5.97951
5.981
5.98133
5.98112
5.98107
5.98197
5.98436
5.98816
5.99237
5.99525
5.99564
5.99294
5.98725
5.98002
5.9735
5.96983
5.96945
5.97088
1.40001
1.40001
1.40001
1.40001
1.40001
1.40001
1.40001
1.40001
1.40001
1.40001
1.40001
1.40001
1.40001
1.40001
1.40001
1.40001
1.40001
1.40001
1.40001
1.40001
1.40001
1.40001
1.40001
1.40001
1.40001
1.40001
1.40001
1.40001
1.40001
1.40001
1.40001
1.40001
1.40001
1.40001
1.40001
1.40001
1.40001
1.40001
1.40001
1.40001
1.40001
1.40001
1.40001
1.40001
1.40001
1.40001
1.40001
1.40001
1.40001
1.40001
1.40001
1.40001
1.40001
1.40001
1.40001
1.40001
1.40001
1.40001
1.40001
1.40001
1.40001
1.40001
1.40001
1.40001
1.40001
1.40001
1.40001
1.40001
1.40001
1.40001
1.40001
1.40001
1.40001
1.40001
1.40001
1.40001
1.40001
1.40001
1.40001
1.40001
1.40001
1.40001
1.40001
1.40001
1.40001
1.40001
1.40001
1.40001
1.40001
1.40001
1.40001
1.40001
1.40001
1.40001
1.40001
1.40001
1.40001
1.40001
1.40195
4.04986
5.4016
5.42274
5.4354
5.44863
5.45935
5.46849
5.47818
5.48852
5.49827
5.50742
5.51618
5.52553
5.53595
5.54811
5.56194
5.57593
5.58837
5.59875
5.60669
5.61277
5.61871
5.62554
5.63392
5.64331
5.65312
5.66263
5.67124
5.68081
5.69224
5.70458
5.71636
5.72592
5.73208
5.73547
5.73816
5.74227
5.74951
5.75932
5.77037
5.78158
5.79177
5.80099
5.80917
5.81552
5.82001
5.82337
5.82699
5.8321
5.8392
5.84778
5.85659
5.8645
5.87118
5.87717
5.88338
5.89019
5.89694
5.90237
5.90551
5.90664
5.90727
5.90908
5.91343
5.92061
5.92936
5.93771
5.94418
5.94842
5.95153
5.95486
5.95934
5.96503
5.97086
5.97536
5.97793
5.97896
5.9791
5.9791
5.97968
5.98123
5.98377
5.9872
5.99081
5.99319
5.99338
5.99062
5.98471
5.97724
5.97085
5.96777
5.9684
5.9706
1.40001
1.40001
1.40001
1.40001
1.40001
1.40001
1.40001
1.40001
1.40001
1.40001
1.40001
1.40001
1.40001
1.40001
1.40001
1.40001
1.40001
1.40001
1.40001
1.40001
1.40001
1.40001
1.40001
1.40001
1.40001
1.40001
1.40001
1.40001
1.40001
1.40001
1.40001
1.40001
1.40001
1.40001
1.40001
1.40001
1.40001
1.40001
1.40001
1.40001
1.40001
1.40001
1.40001
1.40001
1.40001
1.40001
1.40001
1.40001
1.40001
1.40001
1.40001
1.40001
1.40001
1.40001
1.40001
1.40001
1.40001
1.40001
1.40001
1.40001
1.40001
1.40001
1.40001
1.40001
1.40001
1.40001
1.40001
1.40001
1.40001
1.40001
1.40001
1.40001
1.40001
1.40001
1.40001
1.40001
1.40001
1.40001
1.40001
1.40001
1.40001
1.40001
1.40001
1.40001
1.40001
1.40001
1.40001
1.40001
1.40001
1.40001
1.40001
1.40001
1.40001
1.40001
1.40001
1.40001
1.40001
1.40001
1.40003
3.94976
5.39635
5.42017
5.43319
5.44682
5.45724
5.46614
5.47596
5.4864
5.49628
5.50553
5.51449
5.52421
5.53523
5.54768
5.56128
5.57495
5.58734
5.59793
5.6062
5.61238
5.61799
5.62422
5.63198
5.64123
5.65142
5.6616
5.67082
5.68054
5.69173
5.70387
5.71539
5.72462
5.73051
5.73362
5.73597
5.73982
5.74701
5.75724
5.76883
5.78035
5.79034
5.79891
5.80639
5.81239
5.81725
5.82162
5.82635
5.83206
5.83895
5.84673
5.85471
5.86225
5.86913
5.87558
5.88199
5.88842
5.89436
5.89903
5.90203
5.90376
5.90535
5.90818
5.91325
5.92052
5.92882
5.93647
5.94215
5.94583
5.94872
5.95218
5.95715
5.96346
5.96962
5.97388
5.97582
5.97635
5.97643
5.97688
5.97833
5.98062
5.98322
5.98605
5.98877
5.99054
5.99057
5.98792
5.9821
5.97468
5.96848
5.96572
5.96697
5.96965
1.40001
1.40001
1.40001
1.40001
1.40001
1.40001
1.40001
1.40001
1.40001
1.40001
1.40001
1.40001
1.40001
1.40001
1.40001
1.40001
1.40001
1.40001
1.40001
1.40001
1.40001
1.40001
1.40001
1.40001
1.40001
1.40001
1.40001
1.40001
1.40001
1.40001
1.40001
1.40001
1.40001
1.40001
1.40001
1.40001
1.40001
1.40001
1.40001
1.40001
1.40001
1.40001
1.40001
1.40001
1.40001
1.40001
1.40001
1.40001
1.40001
1.40001
1.40001
1.40001
1.40001
1.40001
1.40001
1.40001
1.40001
1.40001
1.40001
1.40001
1.40001
1.40001
1.40001
1.40001
1.40001
1.40001
1.40001
1.40001
1.40001
1.40001
1.40001
1.40001
1.40001
1.40001
1.40001
1.40001
1.40001
1.40001
1.40001
1.40001
1.40001
1.40001
1.40001
1.40001
1.40001
1.40001
1.40001
1.40001
1.40001
1.40001
1.40001
1.40001
1.40001
1.40001
1.40001
1.40001
1.40001
1.40001
1.40001
3.84165
5.38961
5.41716
5.4316
5.44614
5.45678
5.4653
5.47406
5.48336
5.49266
5.50201
5.51172
5.52249
5.53444
5.54716
5.56025
5.5733
5.5855
5.59646
5.60551
5.61242
5.6182
5.62401
5.63088
5.6393
5.6492
5.65975
5.66979
5.68007
5.69134
5.70319
5.71424
5.72302
5.72851
5.73131
5.73346
5.73723
5.74443
5.7551
5.76722
5.77903
5.7888
5.79671
5.80346
5.80909
5.81442
5.81997
5.82592
5.8322
5.83881
5.84558
5.85247
5.85945
5.86651
5.87353
5.88029
5.88643
5.89155
5.89543
5.89826
5.90064
5.90347
5.90761
5.91344
5.92059
5.92807
5.93454
5.93924
5.94251
5.94557
5.94962
5.95537
5.96223
5.96829
5.97191
5.97317
5.97336
5.97356
5.97468
5.97711
5.98002
5.98248
5.98452
5.98627
5.98743
5.98735
5.98491
5.97947
5.97236
5.96634
5.9637
5.96514
5.96788
1.40001
1.40001
1.40001
1.40001
1.40001
1.40001
1.40001
1.40001
1.40001
1.40001
1.40001
1.40001
1.40001
1.40001
1.40001
1.40001
1.40001
1.40001
1.40001
1.40001
1.40001
1.40001
1.40001
1.40001
1.40001
1.40001
1.40001
1.40001
1.40001
1.40001
1.40001
1.40001
1.40001
1.40001
1.40001
1.40001
1.40001
1.40001
1.40001
1.40001
1.40001
1.40001
1.40001
1.40001
1.40001
1.40001
1.40001
1.40001
1.40001
1.40001
1.40001
1.40001
1.40001
1.40001
1.40001
1.40001
1.40001
1.40001
1.40001
1.40001
1.40001
1.40001
1.40001
1.40001
1.40001
1.40001
1.40001
1.40001
1.40001
1.40001
1.40001
1.40001
1.40001
1.40001
1.40001
1.40001
1.40001
1.40001
1.40001
1.40001
1.40001
1.40001
1.40001
1.40001
1.40001
1.40001
1.40001
1.40001
1.40001
1.40001
1.40001
1.40001
1.40001
1.40001
1.40001
1.40001
1.40001
1.40001
1.40001
3.72567
5.37977
5.41384
5.42877
5.44379
5.45514
5.46383
5.47191
5.48033
5.48919
5.49886
5.50952
5.52133
5.53399
5.54659
5.55896
5.57123
5.58319
5.59458
5.60453
5.61246
5.61877
5.62435
5.63038
5.63779
5.64699
5.65752
5.6683
5.67915
5.69054
5.70209
5.71267
5.72108
5.72637
5.72914
5.73128
5.73495
5.74189
5.75266
5.76515
5.77723
5.78696
5.79448
5.80074
5.80614
5.81187
5.81835
5.82528
5.83205
5.83835
5.84419
5.85011
5.85657
5.86366
5.87103
5.87797
5.88382
5.88835
5.89176
5.89468
5.89785
5.90194
5.90726
5.91363
5.92048
5.92687
5.93197
5.93565
5.93868
5.94224
5.94723
5.9539
5.96104
5.96655
5.9693
5.97001
5.97012
5.97075
5.97271
5.97595
5.97915
5.98122
5.98244
5.98335
5.98401
5.98387
5.98172
5.97687
5.97029
5.96445
5.96173
5.96294
5.96536
1.40001
1.40001
1.40001
1.40001
1.40001
1.40001
1.40001
1.40001
1.40001
1.40001
1.40001
1.40001
1.40001
1.40001
1.40001
1.40001
1.40001
1.40001
1.40001
1.40001
1.40001
1.40001
1.40001
1.40001
1.40001
1.40001
1.40001
1.40001
1.40001
1.40001
1.40001
1.40001
1.40001
1.40001
1.40001
1.40001
1.40001
1.40001
1.40001
1.40001
1.40001
1.40001
1.40001
1.40001
1.40001
1.40001
1.40001
1.40001
1.40001
1.40001
1.40001
1.40001
1.40001
1.40001
1.40001
1.40001
1.40001
1.40001
1.40001
1.40001
1.40001
1.40001
1.40001
1.40001
1.40001
1.40001
1.40001
1.40001
1.40001
1.40001
1.40001
1.40001
1.40001
1.40001
1.40001
1.40001
1.40001
1.40001
1.40001
1.40001
1.40001
1.40001
1.40001
1.40001
1.40001
1.40001
1.40001
1.40001
1.40001
1.40001
1.40001
1.40001
1.40001
1.40001
1.40001
1.40001
1.40001
1.40001
1.40001
3.60108
5.36633
5.4115
5.42617
5.44109
5.453
5.46216
5.46983
5.47769
5.4866
5.49669
5.50804
5.52037
5.53318
5.5452
5.55652
5.56808
5.58021
5.59227
5.60318
5.61228
5.61942
5.62511
5.63055
5.63689
5.64517
5.65533
5.66645
5.67759
5.68886
5.70004
5.71031
5.71869
5.72432
5.72754
5.72989
5.73336
5.73962
5.74989
5.76233
5.7746
5.78456
5.79214
5.79836
5.80381
5.80981
5.81673
5.82412
5.83111
5.83715
5.84247
5.84787
5.85401
5.86095
5.86819
5.87489
5.8804
5.88465
5.88815
5.89162
5.89571
5.90082
5.90689
5.91343
5.91973
5.92495
5.92878
5.93164
5.93464
5.93891
5.94502
5.95255
5.95962
5.96423
5.96608
5.9665
5.9669
5.96829
5.97113
5.97482
5.97781
5.97924
5.97975
5.98011
5.98045
5.98026
5.97842
5.97424
5.96832
5.96267
5.95969
5.9603
5.96204
1.40001
1.40001
1.40001
1.40001
1.40001
1.40001
1.40001
1.40001
1.40001
1.40001
1.40001
1.40001
1.40001
1.40001
1.40001
1.40001
1.40001
1.40001
1.40001
1.40001
1.40001
1.40001
1.40001
1.40001
1.40001
1.40001
1.40001
1.40001
1.40001
1.40001
1.40001
1.40001
1.40001
1.40001
1.40001
1.40001
1.40001
1.40001
1.40001
1.40001
1.40001
1.40001
1.40001
1.40001
1.40001
1.40001
1.40001
1.40001
1.40001
1.40001
1.40001
1.40001
1.40001
1.40001
1.40001
1.40001
1.40001
1.40001
1.40001
1.40001
1.40001
1.40001
1.40001
1.40001
1.40001
1.40001
1.40001
1.40001
1.40001
1.40001
1.40001
1.40001
1.40001
1.40001
1.40001
1.40001
1.40001
1.40001
1.40001
1.40001
1.40001
1.40001
1.40001
1.40001
1.40001
1.40001
1.40001
1.40001
1.40001
1.40001
1.40001
1.40001
1.40001
1.40001
1.40001
1.40001
1.40001
1.40001
1.40001
3.46743
5.34849
5.41063
5.42435
5.43847
5.44996
5.45953
5.46758
5.47612
5.48589
5.49644
5.50767
5.51957
5.53158
5.54273
5.55304
5.56416
5.57679
5.58962
5.60151
5.61172
5.61973
5.62573
5.63082
5.63647
5.64403
5.6537
5.66463
5.67554
5.68627
5.69692
5.70703
5.71583
5.72241
5.72656
5.72937
5.73265
5.73799
5.74714
5.75898
5.77116
5.78156
5.78972
5.79639
5.80219
5.80836
5.81524
5.82245
5.82917
5.83502
5.8403
5.84576
5.85182
5.8584
5.86497
5.87096
5.87606
5.88045
5.88465
5.88914
5.89426
5.90007
5.90639
5.91271
5.91823
5.92238
5.92524
5.92761
5.93077
5.93585
5.94301
5.95103
5.95756
5.96106
5.9622
5.96269
5.96382
5.96626
5.96987
5.97349
5.97575
5.97639
5.97645
5.9766
5.97684
5.97662
5.97507
5.97156
5.96637
5.96096
5.95753
5.95724
5.95815
1.40001
1.40001
1.40001
1.40001
1.40001
1.40001
1.40001
1.40001
1.40001
1.40001
1.40001
1.40001
1.40001
1.40001
1.40001
1.40001
1.40001
1.40001
1.40001
1.40001
1.40001
1.40001
1.40001
1.40001
1.40001
1.40001
1.40001
1.40001
1.40001
1.40001
1.40001
1.40001
1.40001
1.40001
1.40001
1.40001
1.40001
1.40001
1.40001
1.40001
1.40001
1.40001
1.40001
1.40001
1.40001
1.40001
1.40001
1.40001
1.40001
1.40001
1.40001
1.40001
1.40001
1.40001
1.40001
1.40001
1.40001
1.40001
1.40001
1.40001
1.40001
1.40001
1.40001
1.40001
1.40001
1.40001
1.40001
1.40001
1.40001
1.40001
1.40001
1.40001
1.40001
1.40001
1.40001
1.40001
1.40001
1.40001
1.40001
1.40001
1.40001
1.40001
1.40001
1.40001
1.40001
1.40001
1.40001
1.40001
1.40001
1.40001
1.40001
1.40001
1.40001
1.40001
1.40001
1.40001
1.40001
1.40001
1.40001
3.32658
5.327
5.41001
5.42167
5.43479
5.44588
5.45615
5.4657
5.47604
5.4872
5.49819
5.50888
5.51951
5.52978
5.53942
5.54898
5.56
5.57313
5.58664
5.59926
5.61038
5.61924
5.62572
5.63087
5.63636
5.64364
5.65283
5.66304
5.67321
5.68302
5.69291
5.70292
5.71245
5.72042
5.72595
5.72949
5.73264
5.73707
5.7447
5.75542
5.76714
5.778
5.78704
5.79458
5.80097
5.80723
5.81367
5.82018
5.82637
5.83214
5.8378
5.84367
5.84978
5.85582
5.86141
5.86647
5.87122
5.87609
5.88143
5.88725
5.89338
5.89961
5.90575
5.91137
5.91592
5.91914
5.92141
5.92365
5.92721
5.93308
5.94094
5.94894
5.95456
5.95705
5.95786
5.95883
5.96105
5.96463
5.9687
5.97175
5.97297
5.9729
5.97279
5.97303
5.97335
5.97307
5.97172
5.9688
5.96429
5.95916
5.95522
5.95386
5.95386
1.40001
1.40001
1.40001
1.40001
1.40001
1.40001
1.40001
1.40001
1.40001
1.40001
1.40001
1.40001
1.40001
1.40001
1.40001
1.40001
1.40001
1.40001
1.40001
1.40001
1.40001
1.40001
1.40001
1.40001
1.40001
1.40001
1.40001
1.40001
1.40001
1.40001
1.40001
1.40001
1.40001
1.40001
1.40001
1.40001
1.40001
1.40001
1.40001
1.40001
1.40001
1.40001
1.40001
1.40001
1.40001
1.40001
1.40001
1.40001
1.40001
1.40001
1.40001
1.40001
1.40001
1.40001
1.40001
1.40001
1.40001
1.40001
1.40001
1.40001
1.40001
1.40001
1.40001
1.40001
1.40001
1.40001
1.40001
1.40001
1.40001
1.40001
1.40001
1.40001
1.40001
1.40001
1.40001
1.40001
1.40001
1.40001
1.40001
1.40001
1.40001
1.40001
1.40001
1.40001
1.40001
1.40001
1.40001
1.40001
1.40001
1.40001
1.40001
1.40001
1.40001
1.40001
1.40001
1.40001
1.40001
1.40001
1.40001
3.18191
5.30169
5.40651
5.41749
5.42977
5.44059
5.45234
5.46397
5.47669
5.48971
5.50126
5.51135
5.52039
5.52876
5.53661
5.54524
5.55619
5.56958
5.58344
5.59635
5.60798
5.61763
5.62484
5.6305
5.63643
5.64385
5.65256
5.66183
5.67091
5.67965
5.68869
5.69853
5.70873
5.71817
5.72536
5.72988
5.73311
5.73676
5.74279
5.7521
5.76307
5.7742
5.7841
5.79262
5.79968
5.80601
5.81189
5.81758
5.82319
5.82896
5.83504
5.84131
5.8474
5.85284
5.85751
5.86182
5.86644
5.87199
5.87857
5.8857
5.89269
5.89908
5.90467
5.90929
5.9128
5.91531
5.91737
5.91985
5.92399
5.93048
5.93854
5.94599
5.95063
5.95248
5.95347
5.95529
5.95872
5.96329
5.96735
5.96937
5.96947
5.96893
5.96888
5.96943
5.96988
5.96952
5.96827
5.96581
5.96191
5.95704
5.95268
5.95022
5.94931
1.40001
1.40001
1.40001
1.40001
1.40001
1.40001
1.40001
1.40001
1.40001
1.40001
1.40001
1.40001
1.40001
1.40001
1.40001
1.40001
1.40001
1.40001
1.40001
1.40001
1.40001
1.40001
1.40001
1.40001
1.40001
1.40001
1.40001
1.40001
1.40001
1.40001
1.40001
1.40001
1.40001
1.40001
1.40001
1.40001
1.40001
1.40001
1.40001
1.40001
1.40001
1.40001
1.40001
1.40001
1.40001
1.40001
1.40001
1.40001
1.40001
1.40001
1.40001
1.40001
1.40001
1.40001
1.40001
1.40001
1.40001
1.40001
1.40001
1.40001
1.40001
1.40001
1.40001
1.40001
1.40001
1.40001
1.40001
1.40001
1.40001
1.40001
1.40001
1.40001
1.40001
1.40001
1.40001
1.40001
1.40001
1.40001
1.40001
1.40001
1.40001
1.40001
1.40001
1.40001
1.40001
1.40001
1.40001
1.40001
1.40001
1.40001
1.40001
1.40001
1.40001
1.40001
1.40001
1.40001
1.40001
1.40001
1.40001
3.03106
5.27456
5.40233
5.41317
5.4252
5.43566
5.44847
5.462
5.47694
5.49187
5.5043
5.5141
5.52202
5.52899
5.53534
5.54284
5.55326
5.5665
5.58012
5.59281
5.60454
5.61485
5.62302
5.62975
5.63658
5.6443
5.65247
5.66078
5.66879
5.67658
5.68482
5.69427
5.70478
5.7153
5.72406
5.72982
5.73342
5.73654
5.74117
5.74912
5.75923
5.77041
5.7809
5.79017
5.79781
5.8042
5.80971
5.81488
5.82017
5.82593
5.83215
5.83847
5.84431
5.84925
5.85337
5.85738
5.86217
5.86838
5.87593
5.88402
5.89163
5.89801
5.90293
5.90652
5.90909
5.91116
5.91336
5.91643
5.92126
5.92808
5.93573
5.94215
5.9459
5.9476
5.94919
5.95208
5.95665
5.9617
5.96516
5.9661
5.96537
5.9646
5.96488
5.96588
5.96644
5.96594
5.9647
5.96261
5.95922
5.95459
5.94988
5.9464
5.9447
1.40001
1.40001
1.40001
1.40001
1.40001
1.40001
1.40001
1.40001
1.40001
1.40001
1.40001
1.40001
1.40001
1.40001
1.40001
1.40001
1.40001
1.40001
1.40001
1.40001
1.40001
1.40001
1.40001
1.40001
1.40001
1.40001
1.40001
1.40001
1.40001
1.40001
1.40001
1.40001
1.40001
1.40001
1.40001
1.40001
1.40001
1.40001
1.40001
1.40001
1.40001
1.40001
1.40001
1.40001
1.40001
1.40001
1.40001
1.40001
1.40001
1.40001
1.40001
1.40001
1.40001
1.40001
1.40001
1.40001
1.40001
1.40001
1.40001
1.40001
1.40001
1.40001
1.40001
1.40001
1.40001
1.40001
1.40001
1.40001
1.40001
1.40001
1.40001
1.40001
1.40001
1.40001
1.40001
1.40001
1.40001
1.40001
1.40001
1.40001
1.40001
1.40001
1.40001
1.40001
1.40001
1.40001
1.40001
1.40001
1.40001
1.40001
1.40001
1.40001
1.40001
1.40001
1.40001
1.40001
1.40001
1.40001
1.40001
2.87089
5.24056
5.40056
5.41115
5.42292
5.43262
5.44508
5.45949
5.47594
5.49233
5.50575
5.51592
5.52361
5.53
5.53567
5.54206
5.55141
5.56372
5.57657
5.58875
5.60032
5.61112
5.62039
5.6285
5.63651
5.64461
5.65229
5.65972
5.6669
5.67404
5.68176
5.6908
5.70123
5.71223
5.72211
5.72913
5.73332
5.73622
5.73985
5.74665
5.75595
5.76695
5.77766
5.78727
5.79518
5.80166
5.80717
5.81234
5.81761
5.82323
5.82907
5.83484
5.84013
5.84475
5.84894
5.85333
5.85868
5.86545
5.87354
5.88215
5.89008
5.89636
5.90067
5.90334
5.90512
5.90691
5.90945
5.91326
5.91869
5.92537
5.93208
5.93727
5.94044
5.94257
5.94521
5.94934
5.95474
5.95963
5.96209
5.96203
5.96091
5.96027
5.96105
5.96241
5.96291
5.96222
5.96093
5.95915
5.9562
5.95175
5.94675
5.94236
5.94004
1.40001
1.40001
1.40001
1.40001
1.40001
1.40001
1.40001
1.40001
1.40001
1.40001
1.40001
1.40001
1.40001
1.40001
1.40001
1.40001
1.40001
1.40001
1.40001
1.40001
1.40001
1.40001
1.40001
1.40001
1.40001
1.40001
1.40001
1.40001
1.40001
1.40001
1.40001
1.40001
1.40001
1.40001
1.40001
1.40001
1.40001
1.40001
1.40001