/*--------------------------------*- C++ -*----------------------------------*\
  =========                 |
  \\      /  F ield         | OpenFOAM: The Open Source CFD Toolbox
   \\    /   O peration     | Website:  https://openfoam.org
    \\  /    A nd           | Version:  7
     \\/     M anipulation  |
\*---------------------------------------------------------------------------*/
FoamFile
{
    version     2.0;
    format      ascii;
    class       volScalarField;
    location    "2.8";
    object      T;
}
// * * * * * * * * * * * * * * * * * * * * * * * * * * * * * * * * * * * * * //

dimensions      [0 0 0 1 0 0 0];

internalField   nonuniform List<scalar> 
258048
(
1
1
1
1
1
1
1
1
1
1
1
1
1
1
1
1
1
1
1
1
1
1
1
1
1
1
1
1
1
1
1
1
1
1
1
1
1
1
1
1
1
1
1
1
1
1
1
1
1
1
1
1
1
1
1
1
1
1
1
1
1
1
1
1
1
1
1
1
1
1
1
1
1
1
1
1
1
1
1
1
1
1
1
1
1
1
1
1
1
1
1
1
1
1
1
1
1
1
1.16995
2.3991
2.68818
2.69023
2.69188
2.69372
2.69553
2.69712
2.69838
2.69949
2.70069
2.70248
2.70536
2.7092
2.71335
2.71703
2.71969
2.72134
2.72225
2.72285
2.72349
2.72452
2.72639
2.72937
2.73325
2.73735
2.74078
2.74295
2.74388
2.74394
2.74342
2.74258
2.74214
2.74266
2.74484
2.74873
2.75336
2.75752
2.7605
2.76225
2.76308
2.76337
2.76349
2.76379
2.76464
2.7664
2.76905
2.772
2.7745
2.77613
2.77689
2.77718
2.77746
2.77815
2.77956
2.78164
2.78399
2.7861
2.78769
2.7888
2.78968
2.79058
2.79156
2.79253
2.79337
2.79398
2.79451
2.79521
2.79628
2.79767
2.79913
2.80027
2.80086
2.80107
2.80118
2.80121
2.80124
2.80138
2.80177
2.80236
2.80317
2.80437
2.80584
2.80729
2.80848
2.80956
2.81087
2.81241
2.81426
2.81671
2.81926
2.82124
2.82221
2.82245
1
1
1
1
1
1
1
1
1
1
1
1
1
1
1
1
1
1
1
1
1
1
1
1
1
1
1
1
1
1
1
1
1
1
1
1
1
1
1
1
1
1
1
1
1
1
1
1
1
1
1
1
1
1
1
1
1
1
1
1
1
1
1
1
1
1
1
1
1
1
1
1
1
1
1
1
1
1
1
1
1
1
1
1
1
1
1
1
1
1
1
1
1
1
1
1
1
1
1.16806
2.39828
2.68855
2.69013
2.69175
2.6935
2.69526
2.69681
2.69815
2.69943
2.7009
2.70303
2.70604
2.70981
2.71376
2.7172
2.7197
2.72124
2.72209
2.72267
2.72337
2.72452
2.72652
2.72956
2.73337
2.73728
2.74049
2.74257
2.74355
2.74373
2.74338
2.74268
2.74231
2.74282
2.74496
2.74877
2.75336
2.75752
2.76052
2.76227
2.76305
2.76326
2.76331
2.7636
2.76451
2.76639
2.76912
2.77211
2.77461
2.77617
2.77685
2.77708
2.77737
2.77812
2.77961
2.78177
2.78417
2.7863
2.78785
2.78888
2.78969
2.79054
2.79152
2.79253
2.79341
2.79406
2.79459
2.79529
2.79633
2.7977
2.79916
2.80031
2.80091
2.80113
2.80121
2.80122
2.80123
2.80136
2.80175
2.80235
2.80315
2.80434
2.80581
2.80728
2.80848
2.80957
2.81086
2.81235
2.81417
2.81662
2.81918
2.8212
2.82219
2.82243
1
1
1
1
1
1
1
1
1
1
1
1
1
1
1
1
1
1
1
1
1
1
1
1
1
1
1
1
1
1
1
1
1
1
1
1
1
1
1
1
1
1
1
1
1
1
1
1
1
1
1
1
1
1
1
1
1
1
1
1
1
1
1
1
1
1
1
1
1
1
1
1
1
1
1
1
1
1
1
1
1
1
1
1
1
1
1
1
1
1
1
1
1
1
1
1
1
1
1.16344
2.39589
2.68918
2.68965
2.69112
2.69281
2.69449
2.69606
2.69768
2.69941
2.70147
2.70411
2.70736
2.71093
2.71441
2.71735
2.71951
2.72086
2.72163
2.72221
2.72301
2.72439
2.72665
2.72985
2.73365
2.73736
2.74025
2.74212
2.74309
2.7434
2.74323
2.74276
2.74251
2.74306
2.74516
2.74888
2.75338
2.75753
2.76055
2.76231
2.76304
2.76314
2.76311
2.76334
2.76428
2.76626
2.76909
2.77215
2.77467
2.77619
2.77676
2.77687
2.77707
2.77781
2.77938
2.78165
2.78415
2.78636
2.78793
2.78889
2.78957
2.79028
2.79118
2.7922
2.79315
2.79389
2.7945
2.7952
2.79621
2.79754
2.79897
2.80011
2.80072
2.80094
2.80101
2.80101
2.80103
2.80119
2.80161
2.80222
2.80302
2.8042
2.80568
2.80718
2.80844
2.80956
2.81084
2.81227
2.81404
2.81646
2.81903
2.8211
2.82213
2.8224
1
1
1
1
1
1
1
1
1
1
1
1
1
1
1
1
1
1
1
1
1
1
1
1
1
1
1
1
1
1
1
1
1
1
1
1
1
1
1
1
1
1
1
1
1
1
1
1
1
1
1
1
1
1
1
1
1
1
1
1
1
1
1
1
1
1
1
1
1
1
1
1
1
1
1
1
1
1
1
1
1
1
1
1
1
1
1
1
1
1
1
1
1
1
1
1
1
1
1.15695
2.39193
2.68845
2.68861
2.69001
2.69179
2.69362
2.6955
2.69755
2.6999
2.70276
2.706
2.7094
2.71257
2.7153
2.71751
2.71916
2.72024
2.72091
2.72151
2.7225
2.72419
2.72679
2.7302
2.73398
2.73747
2.74006
2.74164
2.74255
2.74298
2.743
2.74279
2.74271
2.74334
2.74546
2.7491
2.7535
2.75759
2.76056
2.76225
2.76289
2.76289
2.76279
2.76302
2.76405
2.76615
2.76908
2.77216
2.77464
2.77609
2.77661
2.7767
2.77687
2.77758
2.77916
2.78152
2.78414
2.78643
2.78803
2.78897
2.78954
2.7901
2.79087
2.79186
2.79288
2.79376
2.79449
2.79526
2.79626
2.79753
2.79888
2.79997
2.80057
2.80079
2.80084
2.80084
2.80087
2.80104
2.80148
2.80209
2.80286
2.80403
2.80553
2.80707
2.80841
2.80959
2.81081
2.81214
2.81384
2.8162
2.81879
2.82094
2.82205
2.82235
1
1
1
1
1
1
1
1
1
1
1
1
1
1
1
1
1
1
1
1
1
1
1
1
1
1
1
1
1
1
1
1
1
1
1
1
1
1
1
1
1
1
1
1
1
1
1
1
1
1
1
1
1
1
1
1
1
1
1
1
1
1
1
1
1
1
1
1
1
1
1
1
1
1
1
1
1
1
1
1
1
1
1
1
1
1
1
1
1
1
1
1
1
1
1
1
1
1
1.14467
2.3822
2.68671
2.6875
2.6891
2.69114
2.69328
2.69544
2.69783
2.70075
2.70418
2.70775
2.7111
2.71385
2.71594
2.71754
2.71872
2.71952
2.72011
2.72075
2.7219
2.7239
2.72684
2.73049
2.73433
2.7377
2.74006
2.74133
2.74203
2.74248
2.74266
2.74267
2.7428
2.74361
2.74583
2.74942
2.7537
2.75768
2.76056
2.76211
2.76261
2.76255
2.76243
2.76272
2.76386
2.76607
2.76904
2.77208
2.77449
2.77589
2.77642
2.77656
2.77678
2.77749
2.77901
2.78131
2.78396
2.78636
2.78807
2.78905
2.78954
2.78993
2.7905
2.79138
2.79245
2.79349
2.79442
2.79532
2.79634
2.7975
2.7987
2.79969
2.80027
2.80051
2.80058
2.8006
2.80067
2.80087
2.8013
2.8019
2.80265
2.80381
2.80534
2.80692
2.80835
2.80962
2.81078
2.81197
2.81357
2.81585
2.81847
2.82073
2.82197
2.82233
1
1
1
1
1
1
1
1
1
1
1
1
1
1
1
1
1
1
1
1
1
1
1
1
1
1
1
1
1
1
1
1
1
1
1
1
1
1
1
1
1
1
1
1
1
1
1
1
1
1
1
1
1
1
1
1
1
1
1
1
1
1
1
1
1
1
1
1
1
1
1
1
1
1
1
1
1
1
1
1
1
1
1
1
1
1
1
1
1
1
1
1
1
1
1
1
1
1
1.12483
2.36633
2.68642
2.68776
2.68916
2.69102
2.69318
2.69562
2.69851
2.70188
2.70554
2.70908
2.71217
2.71457
2.71623
2.71743
2.71828
2.7189
2.71941
2.72005
2.72126
2.72348
2.72673
2.73064
2.73463
2.738
2.74021
2.74122
2.74163
2.74196
2.74222
2.74241
2.74278
2.74388
2.74626
2.74982
2.75396
2.75777
2.76048
2.76185
2.76221
2.76213
2.76205
2.76246
2.76375
2.76601
2.76893
2.77186
2.77416
2.77553
2.77613
2.77641
2.77677
2.77753
2.77895
2.78109
2.78365
2.78612
2.788
2.78909
2.78955
2.78978
2.79015
2.79088
2.79194
2.79315
2.79431
2.7954
2.79646
2.79752
2.79853
2.79934
2.79987
2.80015
2.80028
2.80036
2.80047
2.80069
2.80109
2.80167
2.8024
2.80356
2.80511
2.80674
2.80827
2.80962
2.81073
2.81177
2.81323
2.81541
2.81807
2.82047
2.82188
2.82235
1
1
1
1
1
1
1
1
1
1
1
1
1
1
1
1
1
1
1
1
1
1
1
1
1
1
1
1
1
1
1
1
1
1
1
1
1
1
1
1
1
1
1
1
1
1
1
1
1
1
1
1
1
1
1
1
1
1
1
1
1
1
1
1
1
1
1
1
1
1
1
1
1
1
1
1
1
1
1
1
1
1
1
1
1
1
1
1
1
1
1
1
1
1
1
1
1
1
1.10066
2.34926
2.68778
2.68817
2.689
2.69056
2.6928
2.69561
2.69898
2.70272
2.70648
2.70988
2.71277
2.71496
2.71635
2.71727
2.7179
2.71837
2.71881
2.71943
2.72063
2.72296
2.72646
2.73064
2.73487
2.73836
2.7405
2.74131
2.7414
2.74148
2.74169
2.74204
2.7427
2.74414
2.74669
2.75023
2.75418
2.75778
2.76029
2.76149
2.76177
2.76171
2.76172
2.76225
2.76366
2.76595
2.7688
2.77157
2.77374
2.77508
2.77581
2.7763
2.77684
2.77766
2.77897
2.78089
2.78329
2.78574
2.78775
2.789
2.7895
2.78962
2.78981
2.79038
2.79141
2.79275
2.79416
2.79547
2.79659
2.79753
2.7983
2.79892
2.79938
2.79971
2.79994
2.80011
2.80027
2.80048
2.80084
2.80138
2.80214
2.80332
2.80488
2.80656
2.80817
2.80958
2.81063
2.81151
2.81284
2.8149
2.81757
2.82014
2.82178
2.8224
1
1
1
1
1
1
1
1
1
1
1
1
1
1
1
1
1
1
1
1
1
1
1
1
1
1
1
1
1
1
1
1
1
1
1
1
1
1
1
1
1
1
1
1
1
1
1
1
1
1
1
1
1
1
1
1
1
1
1
1
1
1
1
1
1
1
1
1
1
1
1
1
1
1
1
1
1
1
1
1
1
1
1
1
1
1
1
1
1
1
1
1
1
1
1
1
1
1
1.07384
2.33494
2.68981
2.68933
2.68934
2.69028
2.69235
2.69534
2.69896
2.70299
2.70697
2.71045
2.71323
2.71522
2.71635
2.71701
2.71751
2.71797
2.71841
2.71902
2.72019
2.72251
2.72614
2.73056
2.73505
2.73872
2.74084
2.74148
2.74136
2.74115
2.7412
2.74162
2.74258
2.74435
2.74707
2.75053
2.75428
2.75765
2.75999
2.76108
2.76135
2.76136
2.76145
2.76207
2.76353
2.76582
2.76857
2.77121
2.77328
2.77463
2.77548
2.77616
2.77687
2.77775
2.77898
2.78072
2.78293
2.78531
2.78736
2.78873
2.78931
2.78939
2.78947
2.78993
2.79092
2.79238
2.79402
2.79551
2.79666
2.79746
2.79801
2.79844
2.79884
2.79923
2.79959
2.79986
2.80004
2.80022
2.80052
2.80102
2.80183
2.80307
2.80466
2.80638
2.80803
2.80944
2.81043
2.81122
2.81242
2.81436
2.81703
2.81976
2.82166
2.82248
1
1
1
1
1
1
1
1
1
1
1
1
1
1
1
1
1
1
1
1
1
1
1
1
1
1
1
1
1
1
1
1
1
1
1
1
1
1
1
1
1
1
1
1
1
1
1
1
1
1
1
1
1
1
1
1
1
1
1
1
1
1
1
1
1
1
1
1
1
1
1
1
1
1
1
1
1
1
1
1
1
1
1
1
1
1
1
1
1
1
1
1
1
1
1
1
1
1
1.03379
2.3169
2.69126
2.68975
2.68896
2.68965
2.69162
2.6948
2.6988
2.70313
2.7073
2.7109
2.71366
2.71547
2.71636
2.71677
2.71717
2.71765
2.71811
2.7187
2.71983
2.72212
2.7258
2.73038
2.73508
2.73893
2.74112
2.74167
2.74143
2.74101
2.74091
2.74129
2.74244
2.74443
2.74723
2.75061
2.75418
2.75735
2.75958
2.76067
2.76101
2.76111
2.76127
2.76189
2.76334
2.76557
2.76822
2.7708
2.77287
2.77428
2.77522
2.776
2.7768
2.77772
2.77892
2.78055
2.78263
2.78489
2.78689
2.78827
2.78891
2.78903
2.78911
2.78953
2.79054
2.79209
2.79387
2.79545
2.79659
2.79726
2.79763
2.79791
2.79827
2.79876
2.79926
2.7996
2.79976
2.79987
2.80009
2.8006
2.80151
2.80285
2.80447
2.80621
2.80784
2.80918
2.81011
2.81086
2.81198
2.81383
2.81651
2.81936
2.8215
2.82251
1
1
1
1
1
1
1
1
1
1
1
1
1
1
1
1
1
1
1
1
1
1
1
1
1
1
1
1
1
1
1
1
1
1
1
1
1
1
1
1
1
1
1
1
1
1
1
1
1
1
1
1
1
1
1
1
1
1
1
1
1
1
1
1
1
1
1
1
1
1
1
1
1
1
1
1
1
1
1
1
1
1
1
1
1
1
1
1
1
1
1
1
1
1
1
1
1
1
1.00136
2.28956
2.69065
2.68909
2.68818
2.68895
2.69093
2.69416
2.69834
2.70288
2.70723
2.71102
2.71384
2.7156
2.71636
2.71666
2.71701
2.71746
2.71793
2.71852
2.71964
2.7219
2.72558
2.73021
2.73498
2.73892
2.7412
2.7418
2.74155
2.74103
2.74083
2.74118
2.74235
2.74438
2.74715
2.75043
2.75384
2.75687
2.75909
2.76029
2.76077
2.76097
2.76116
2.76173
2.76305
2.76517
2.76777
2.77037
2.77254
2.77404
2.77504
2.77582
2.77661
2.77754
2.77874
2.78037
2.78238
2.78451
2.78637
2.78766
2.78831
2.78852
2.78869
2.7892
2.7903
2.79191
2.7937
2.79527
2.79634
2.79689
2.79713
2.79735
2.79774
2.79834
2.79896
2.79933
2.79944
2.79944
2.79958
2.80013
2.8012
2.80267
2.80434
2.80604
2.80757
2.8088
2.80968
2.81044
2.81151
2.81332
2.81602
2.81896
2.82129
2.82244
1
1
1
1
1
1
1
1
1
1
1
1
1
1
1
1
1
1
1
1
1
1
1
1
1
1
1
1
1
1
1
1
1
1
1
1
1
1
1
1
1
1
1
1
1
1
1
1
1
1
1
1
1
1
1
1
1
1
1
1
1
1
1
1
1
1
1
1
1
1
1
1
1
1
1
1
1
1
1
1
1
1
1
1
1
1
1
1
1
1
1
1
1
1
1
1
1
1
1.00001
2.25916
2.68949
2.68772
2.68643
2.68727
2.68942
2.693
2.69765
2.70265
2.70735
2.71134
2.71426
2.71599
2.71667
2.71687
2.71709
2.7174
2.71775
2.71831
2.71945
2.72171
2.72536
2.72998
2.73476
2.73876
2.74113
2.74186
2.74168
2.74118
2.74095
2.74126
2.74237
2.74432
2.74695
2.75004
2.75327
2.75623
2.75852
2.75991
2.76058
2.76091
2.76112
2.76157
2.76271
2.76467
2.76724
2.76996
2.77228
2.77391
2.77492
2.77563
2.7763
2.77718
2.77842
2.78012
2.78213
2.78415
2.78582
2.78696
2.78757
2.7879
2.78825
2.78895
2.79018
2.79181
2.79352
2.79496
2.79588
2.79633
2.79653
2.79677
2.79726
2.79799
2.79867
2.79902
2.79902
2.79892
2.79902
2.79965
2.8009
2.80252
2.80422
2.80582
2.8072
2.80831
2.80917
2.80995
2.81103
2.81285
2.81557
2.81858
2.82102
2.82225
1
1
1
1
1
1
1
1
1
1
1
1
1
1
1
1
1
1
1
1
1
1
1
1
1
1
1
1
1
1
1
1
1
1
1
1
1
1
1
1
1
1
1
1
1
1
1
1
1
1
1
1
1
1
1
1
1
1
1
1
1
1
1
1
1
1
1
1
1
1
1
1
1
1
1
1
1
1
1
1
1
1
1
1
1
1
1
1
1
1
1
1
1
1
1
1
1
1
1
2.22681
2.68967
2.68761
2.68553
2.68611
2.68817
2.69195
2.69691
2.7022
2.70715
2.71136
2.71452
2.71645
2.71722
2.71731
2.71733
2.71743
2.71765
2.71815
2.7193
2.72156
2.72514
2.72969
2.73442
2.73841
2.74091
2.74179
2.74174
2.7414
2.7412
2.74146
2.74245
2.74422
2.74664
2.74951
2.75258
2.7555
2.75787
2.75949
2.76039
2.76085
2.76107
2.76141
2.76235
2.76414
2.76671
2.76956
2.77206
2.7738
2.77481
2.7754
2.77593
2.77672
2.77801
2.7798
2.78183
2.78373
2.78522
2.7862
2.78678
2.78723
2.78782
2.78876
2.79012
2.79172
2.79327
2.79449
2.79524
2.79561
2.79586
2.79622
2.79686
2.79769
2.79836
2.79862
2.79852
2.79834
2.79845
2.79919
2.80063
2.80238
2.80406
2.80552
2.80673
2.80773
2.80858
2.80941
2.81055
2.81243
2.81518
2.81821
2.82068
2.82191
1
1
1
1
1
1
1
1
1
1
1
1
1
1
1
1
1
1
1
1
1
1
1
1
1
1
1
1
1
1
1
1
1
1
1
1
1
1
1
1
1
1
1
1
1
1
1
1
1
1
1
1
1
1
1
1
1
1
1
1
1
1
1
1
1
1
1
1
1
1
1
1
1
1
1
1
1
1
1
1
1
1
1
1
1
1
1
1
1
1
1
1
1
1
1
1
1
1
1
2.19132
2.68968
2.68779
2.68516
2.68535
2.68706
2.69083
2.69597
2.70152
2.70676
2.71123
2.71463
2.71685
2.71784
2.71791
2.71779
2.71763
2.71771
2.71811
2.71921
2.72139
2.72481
2.72915
2.73375
2.73777
2.74048
2.74163
2.74177
2.74162
2.7415
2.74171
2.74253
2.74407
2.74626
2.74893
2.75186
2.75473
2.75714
2.75897
2.7601
2.76072
2.76099
2.76128
2.76206
2.7637
2.76622
2.76914
2.77177
2.7736
2.77462
2.77512
2.77553
2.77625
2.77755
2.77937
2.78139
2.78318
2.78452
2.78542
2.78603
2.78663
2.78746
2.78862
2.79006
2.79157
2.79292
2.79389
2.79446
2.7948
2.79514
2.79569
2.79651
2.7974
2.79798
2.7981
2.79791
2.79771
2.79789
2.79879
2.80038
2.80219
2.80381
2.80512
2.80618
2.80709
2.80793
2.80883
2.81007
2.81204
2.81484
2.81786
2.82027
2.82144
1
1
1
1
1
1
1
1
1
1
1
1
1
1
1
1
1
1
1
1
1
1
1
1
1
1
1
1
1
1
1
1
1
1
1
1
1
1
1
1
1
1
1
1
1
1
1
1
1
1
1
1
1
1
1
1
1
1
1
1
1
1
1
1
1
1
1
1
1
1
1
1
1
1
1
1
1
1
1
1
1
1
1
1
1
1
1
1
1
1
1
1
1
1
1
1
1
1
1
2.15224
2.68916
2.68777
2.68516
2.68518
2.68653
2.68992
2.69484
2.70045
2.70594
2.71073
2.71447
2.71699
2.7182
2.71837
2.71819
2.7179
2.71791
2.71825
2.71923
2.72119
2.7243
2.72833
2.73273
2.73676
2.73976
2.74133
2.74177
2.74176
2.74172
2.74189
2.74255
2.74388
2.74586
2.74836
2.75117
2.75396
2.75637
2.75832
2.75963
2.76043
2.76082
2.76115
2.76187
2.7634
2.76583
2.7687
2.77134
2.77323
2.77427
2.77476
2.77515
2.77584
2.77711
2.77887
2.78078
2.78246
2.78373
2.78464
2.78537
2.78615
2.78717
2.78847
2.78991
2.7913
2.79241
2.79315
2.79359
2.79394
2.79442
2.79519
2.79619
2.79707
2.79751
2.79747
2.79722
2.79708
2.7974
2.79848
2.80014
2.80191
2.80342
2.80461
2.80557
2.80642
2.80726
2.80822
2.80957
2.81165
2.81451
2.8175
2.81979
2.82084
1
1
1
1
1
1
1
1
1
1
1
1
1
1
1
1
1
1
1
1
1
1
1
1
1
1
1
1
1
1
1
1
1
1
1
1
1
1
1
1
1
1
1
1
1
1
1
1
1
1
1
1
1
1
1
1
1
1
1
1
1
1
1
1
1
1
1
1
1
1
1
1
1
1
1
1
1
1
1
1
1
1
1
1
1
1
1
1
1
1
1
1
1
1
1
1
1
1
1
2.10923
2.6876
2.68737
2.68552
2.68555
2.68654
2.68924
2.69353
2.69894
2.70464
2.70976
2.71384
2.71667
2.71815
2.71853
2.7184
2.71821
2.71829
2.71865
2.71948
2.72106
2.72366
2.72722
2.73132
2.73536
2.7387
2.74083
2.74172
2.7419
2.74187
2.74196
2.74247
2.74362
2.74545
2.7478
2.75048
2.7532
2.75558
2.75757
2.75902
2.75997
2.76054
2.76101
2.76179
2.76325
2.76554
2.76827
2.77081
2.77266
2.77374
2.7743
2.77477
2.77548
2.77668
2.77827
2.77998
2.78154
2.78281
2.78386
2.7848
2.78579
2.78694
2.78827
2.78965
2.79088
2.79178
2.79235
2.79271
2.7931
2.79376
2.79474
2.79584
2.79663
2.79688
2.79672
2.79646
2.79647
2.79701
2.79825
2.79987
2.8015
2.80286
2.80397
2.8049
2.80573
2.80658
2.8076
2.80906
2.81126
2.81418
2.81712
2.81925
2.82013
1
1
1
1
1
1
1
1
1
1
1
1
1
1
1
1
1
1
1
1
1
1
1
1
1
1
1
1
1
1
1
1
1
1
1
1
1
1
1
1
1
1
1
1
1
1
1
1
1
1
1
1
1
1
1
1
1
1
1
1
1
1
1
1
1
1
1
1
1
1
1
1
1
1
1
1
1
1
1
1
1
1
1
1
1
1
1
1
1
1
1
1
1
1
1
1
1
1
1
2.06167
2.68336
2.68743
2.68649
2.68664
2.68715
2.689
2.69239
2.69728
2.70287
2.70807
2.71231
2.71544
2.71741
2.71821
2.71835
2.71848
2.7188
2.71926
2.71991
2.72104
2.72299
2.72594
2.72964
2.73365
2.73737
2.74011
2.74156
2.74199
2.74197
2.74196
2.7423
2.74329
2.74499
2.74723
2.74978
2.75242
2.75479
2.75678
2.75831
2.75939
2.76016
2.76081
2.76172
2.76316
2.7653
2.76781
2.77015
2.77192
2.77305
2.77377
2.77437
2.77514
2.77621
2.77757
2.77905
2.7805
2.78185
2.78312
2.78433
2.78552
2.78676
2.78805
2.78928
2.7903
2.79102
2.79148
2.79183
2.79232
2.79315
2.79427
2.79538
2.79602
2.79609
2.79587
2.7957
2.7959
2.79671
2.79804
2.79954
2.80095
2.80216
2.80325
2.80422
2.80507
2.80591
2.80696
2.80852
2.81085
2.81382
2.8167
2.81865
2.81934
1
1
1
1
1
1
1
1
1
1
1
1
1
1
1
1
1
1
1
1
1
1
1
1
1
1
1
1
1
1
1
1
1
1
1
1
1
1
1
1
1
1
1
1
1
1
1
1
1
1
1
1
1
1
1
1
1
1
1
1
1
1
1
1
1
1
1
1
1
1
1
1
1
1
1
1
1
1
1
1
1
1
1
1
1
1
1
1
1
1
1
1
1
1
1
1
1
1
1
2.0096
2.6742
2.6887
2.68829
2.68845
2.68835
2.68929
2.69178
2.69585
2.70077
2.70559
2.70978
2.71316
2.71564
2.71716
2.71799
2.71861
2.71931
2.7199
2.72042
2.72114
2.72244
2.72467
2.72787
2.73177
2.7358
2.73912
2.74119
2.742
2.74205
2.74195
2.74212
2.74292
2.74447
2.7466
2.74905
2.75162
2.75399
2.75599
2.75759
2.75876
2.75971
2.76056
2.76159
2.76303
2.76501
2.76727
2.7694
2.77108
2.77229
2.77316
2.77391
2.7747
2.77565
2.77678
2.77806
2.77945
2.78092
2.78243
2.7839
2.78529
2.78656
2.78774
2.78877
2.78958
2.79016
2.79057
2.79098
2.79159
2.79256
2.79375
2.79476
2.79523
2.79519
2.79499
2.79499
2.79545
2.79648
2.7978
2.79911
2.80027
2.80138
2.80249
2.80352
2.8044
2.80522
2.8063
2.80793
2.81037
2.81341
2.81622
2.81798
2.81851
1
1
1
1
1
1
1
1
1
1
1
1
1
1
1
1
1
1
1
1
1
1
1
1
1
1
1
1
1
1
1
1
1
1
1
1
1
1
1
1
1
1
1
1
1
1
1
1
1
1
1
1
1
1
1
1
1
1
1
1
1
1
1
1
1
1
1
1
1
1
1
1
1
1
1
1
1
1
1
1
1
1
1
1
1
1
1
1
1
1
1
1
1
1
1
1
1
1
1
1.95186
2.66092
2.68985
2.68976
2.69008
2.68971
2.69013
2.6918
2.69488
2.69884
2.70285
2.70666
2.71015
2.71315
2.71547
2.71718
2.71851
2.71961
2.72036
2.72082
2.72126
2.72206
2.72362
2.72624
2.72987
2.73401
2.73777
2.74047
2.74181
2.74208
2.74196
2.74198
2.74254
2.74385
2.7458
2.74815
2.75067
2.75308
2.75514
2.75686
2.75814
2.75923
2.76022
2.76134
2.76274
2.76456
2.76662
2.7686
2.77025
2.77153
2.77251
2.77333
2.7741
2.77493
2.77591
2.77709
2.77848
2.78007
2.78176
2.78344
2.78496
2.78625
2.7873
2.78812
2.78874
2.78923
2.78968
2.79019
2.79094
2.79199
2.79313
2.79397
2.79429
2.79424
2.79415
2.79436
2.79509
2.79621
2.79742
2.7985
2.79946
2.80053
2.80171
2.80282
2.80373
2.80452
2.80559
2.8073
2.80985
2.81293
2.81568
2.81726
2.81766
1
1
1
1
1
1
1
1
1
1
1
1
1
1
1
1
1
1
1
1
1
1
1
1
1
1
1
1
1
1
1
1
1
1
1
1
1
1
1
1
1
1
1
1
1
1
1
1
1
1
1
1
1
1
1
1
1
1
1
1
1
1
1
1
1
1
1
1
1
1
1
1
1
1
1
1
1
1
1
1
1
1
1
1
1
1
1
1
1
1
1
1
1
1
1
1
1
1
1
1.88737
2.64451
2.68959
2.69009
2.69081
2.69065
2.69104
2.69224
2.69447
2.69738
2.70047
2.70367
2.70696
2.71029
2.71331
2.71586
2.71803
2.71961
2.72053
2.721
2.72133
2.72182
2.72286
2.72488
2.72809
2.7321
2.73608
2.73933
2.74132
2.74203
2.74201
2.74194
2.74223
2.74321
2.74489
2.74707
2.74956
2.75205
2.75424
2.75612
2.75754
2.75875
2.75981
2.76092
2.76224
2.76391
2.76585
2.7678
2.76948
2.7708
2.7718
2.77257
2.77327
2.77402
2.77497
2.77617
2.77764
2.77932
2.78113
2.78292
2.78452
2.7858
2.78674
2.78739
2.78786
2.78829
2.7888
2.78945
2.79031
2.79135
2.79233
2.79297
2.79321
2.79324
2.79337
2.79387
2.79478
2.79587
2.79687
2.79773
2.7986
2.79969
2.80095
2.80213
2.80303
2.80378
2.80484
2.80662
2.80927
2.81238
2.81507
2.8165
2.8168
1
1
1
1
1
1
1
1
1
1
1
1
1
1
1
1
1
1
1
1
1
1
1
1
1
1
1
1
1
1
1
1
1
1
1
1
1
1
1
1
1
1
1
1
1
1
1
1
1
1
1
1
1
1
1
1
1
1
1
1
1
1
1
1
1
1
1
1
1
1
1
1
1
1
1
1
1
1
1
1
1
1
1
1
1
1
1
1
1
1
1
1
1
1
1
1
1
1
1
1.81574
2.62603
2.68786
2.68962
2.69092
2.69108
2.69165
2.69269
2.69442
2.69655
2.69885
2.7014
2.70427
2.70749
2.71085
2.71403
2.71689
2.71913
2.72037
2.72096
2.7213
2.72169
2.72242
2.7239
2.72653
2.73014
2.73411
2.73775
2.74041
2.74173
2.74197
2.74187
2.74196
2.74257
2.74391
2.74586
2.74827
2.75085
2.75323
2.75533
2.75693
2.75824
2.75931
2.76035
2.76154
2.76308
2.76499
2.76698
2.76874
2.77009
2.77102
2.77168
2.77225
2.77298
2.77401
2.77536
2.77694
2.77867
2.7805
2.7823
2.78391
2.78517
2.78602
2.78655
2.78692
2.78734
2.78794
2.78873
2.78967
2.79061
2.79138
2.79184
2.79207
2.79229
2.79273
2.79349
2.79444
2.79536
2.79611
2.79681
2.79769
2.79887
2.80022
2.80141
2.80225
2.80297
2.80404
2.8059
2.80863
2.81176
2.81438
2.81568
2.81591
1
1
1
1
1
1
1
1
1
1
1
1
1
1
1
1
1
1
1
1
1
1
1
1
1
1
1
1
1
1
1
1
1
1
1
1
1
1
1
1
1
1
1
1
1
1
1
1
1
1
1
1
1
1
1
1
1
1
1
1
1
1
1
1
1
1
1
1
1
1
1
1
1
1
1
1
1
1
1
1
1
1
1
1
1
1
1
1
1
1
1
1
1
1
1
1
1
1
1
1.73711
2.6061
2.68464
2.6886
2.69081
2.69124
2.69177
2.69269
2.6943
2.69621
2.69811
2.70013
2.70245
2.70523
2.70844
2.71181
2.71512
2.71794
2.71975
2.72073
2.72125
2.72167
2.72223
2.72329
2.72528
2.72831
2.73204
2.73588
2.73914
2.74112
2.74178
2.74173
2.74169
2.74202
2.74303
2.74471
2.74697
2.74958
2.75213
2.75445
2.75622
2.75762
2.75868
2.75963
2.76069
2.76215
2.76406
2.76615
2.76797
2.76929
2.77013
2.77065
2.77112
2.77187
2.77307
2.77462
2.77632
2.77808
2.77985
2.78158
2.78315
2.78437
2.78518
2.78565
2.78597
2.78641
2.78711
2.78801
2.78895
2.78974
2.79028
2.79062
2.79094
2.79144
2.79221
2.79313
2.79398
2.79462
2.79516
2.7958
2.79678
2.7981
2.79951
2.80064
2.8014
2.8021
2.80321
2.80515
2.80796
2.81108
2.81361
2.81479
2.815
1
1
1
1
1
1
1
1
1
1
1
1
1
1
1
1
1
1
1
1
1
1
1
1
1
1
1
1
1
1
1
1
1
1
1
1
1
1
1
1
1
1
1
1
1
1
1
1
1
1
1
1
1
1
1
1
1
1
1
1
1
1
1
1
1
1
1
1
1
1
1
1
1
1
1
1
1
1
1
1
1
1
1
1
1
1
1
1
1
1
1
1
1
1
1
1
1
1
1
1.65106
2.58393
2.68195
2.68714
2.68997
2.69073
2.69139
2.69235
2.69404
2.69608
2.69798
2.69975
2.70152
2.70364
2.70634
2.70946
2.71289
2.71611
2.71857
2.72017
2.72109
2.72167
2.72216
2.72287
2.72429
2.7267
2.73003
2.73388
2.73754
2.74015
2.74128
2.74139
2.7413
2.74145
2.74219
2.74362
2.7457
2.74828
2.75095
2.75343
2.75536
2.75684
2.75791
2.75881
2.75981
2.76123
2.76314
2.76524
2.76707
2.76834
2.7691
2.76955
2.77
2.77084
2.77221
2.77393
2.77574
2.77748
2.77915
2.78077
2.78224
2.78342
2.78421
2.78467
2.78501
2.78549
2.78626
2.78721
2.7881
2.78873
2.7891
2.7894
2.7899
2.79073
2.79176
2.79269
2.79331
2.79368
2.79407
2.79476
2.7959
2.79737
2.79877
2.79978
2.80045
2.80119
2.80239
2.80439
2.80724
2.81032
2.81274
2.81383
2.81405
1
1
1
1
1
1
1
1
1
1
1
1
1
1
1
1
1
1
1
1
1
1
1
1
1
1
1
1
1
1
1
1
1
1
1
1
1
1
1
1
1
1
1
1
1
1
1
1
1
1
1
1
1
1
1
1
1
1
1
1
1
1
1
1
1
1
1
1
1
1
1
1
1
1
1
1
1
1
1
1
1
1
1
1
1
1
1
1
1
1
1
1
1
1
1
1
1
1
1
1.5583
2.55817
2.68111
2.68548
2.68818
2.68918
2.69014
2.69144
2.69349
2.69585
2.69796
2.69968
2.70112
2.70261
2.70467
2.70727
2.71044
2.71384
2.71686
2.71917
2.72069
2.72157
2.72207
2.72254
2.72351
2.72537
2.72825
2.73192
2.73576
2.73882
2.74043
2.74081
2.74073
2.7408
2.74137
2.74262
2.74452
2.74703
2.74974
2.75229
2.75433
2.75587
2.75698
2.75792
2.75894
2.76033
2.76218
2.76421
2.76595
2.76717
2.76795
2.76844
2.76897
2.76993
2.77142
2.77324
2.77508
2.7768
2.77838
2.77986
2.78123
2.78235
2.78315
2.78366
2.78406
2.7846
2.7854
2.78632
2.7871
2.78759
2.78788
2.78825
2.78901
2.79014
2.7913
2.79207
2.7924
2.79255
2.79291
2.79373
2.79508
2.79664
2.79793
2.79878
2.79942
2.80024
2.80157
2.80364
2.80648
2.80947
2.81177
2.8128
2.81308
1
1
1
1
1
1
1
1
1
1
1
1
1
1
1
1
1
1
1
1
1
1
1
1
1
1
1
1
1
1
1
1
1
1
1
1
1
1
1
1
1
1
1
1
1
1
1
1
1
1
1
1
1
1
1
1
1
1
1
1
1
1
1
1
1
1
1
1
1
1
1
1
1
1
1
1
1
1
1
1
1
1
1
1
1
1
1
1
1
1
1
1
1
1
1
1
1
1
1
1.46192
2.52832
2.68154
2.68378
2.68567
2.68668
2.68802
2.68992
2.69255
2.69538
2.6978
2.69956
2.70082
2.70194
2.70344
2.70549
2.70824
2.7115
2.7148
2.7177
2.71987
2.72119
2.72185
2.72221
2.7229
2.72431
2.72674
2.73011
2.73392
2.73724
2.73926
2.73997
2.73997
2.74002
2.74051
2.74164
2.74342
2.74584
2.74853
2.75107
2.75315
2.75473
2.75592
2.75696
2.75805
2.75943
2.76116
2.76301
2.76463
2.76583
2.76671
2.76736
2.76807
2.76914
2.77067
2.77249
2.77432
2.77601
2.77751
2.77888
2.78013
2.7812
2.78201
2.7826
2.7831
2.7837
2.78448
2.7853
2.78594
2.78634
2.78665
2.78722
2.78828
2.78961
2.7907
2.7912
2.79127
2.79134
2.79177
2.79278
2.79431
2.79583
2.79693
2.79766
2.79833
2.7993
2.80079
2.8029
2.80564
2.8085
2.81069
2.81171
2.81208
1
1
1
1
1
1
1
1
1
1
1
1
1
1
1
1
1
1
1
1
1
1
1
1
1
1
1
1
1
1
1
1
1
1
1
1
1
1
1
1
1
1
1
1
1
1
1
1
1
1
1
1
1
1
1
1
1
1
1
1
1
1
1
1
1
1
1
1
1
1
1
1
1
1
1
1
1
1
1
1
1
1
1
1
1
1
1
1
1
1
1
1
1
1
1
1
1
1
1
1.36349
2.4916
2.68145
2.68238
2.68359
2.6845
2.68602
2.6883
2.69139
2.69464
2.69737
2.69924
2.70047
2.70147
2.70263
2.70418
2.70642
2.70931
2.71258
2.71582
2.71854
2.7204
2.72138
2.72185
2.72242
2.7235
2.72549
2.72847
2.73207
2.73549
2.73782
2.73889
2.73909
2.73916
2.73958
2.74066
2.74237
2.74471
2.74734
2.74981
2.75188
2.75347
2.75474
2.75589
2.75709
2.75846
2.76006
2.7617
2.76316
2.76438
2.76542
2.76632
2.76724
2.76842
2.76992
2.77165
2.77344
2.77509
2.77654
2.77781
2.77896
2.77997
2.78082
2.78151
2.78213
2.78278
2.78348
2.78415
2.78466
2.78503
2.78547
2.78634
2.78767
2.78903
2.78986
2.79006
2.79001
2.7901
2.79069
2.79195
2.79353
2.79486
2.79574
2.79641
2.79718
2.79839
2.80007
2.80214
2.80471
2.80741
2.8095
2.81056
2.81108
1
1
1
1
1
1
1
1
1
1
1
1
1
1
1
1
1
1
1
1
1
1
1
1
1
1
1
1
1
1
1
1
1
1
1
1
1
1
1
1
1
1
1
1
1
1
1
1
1
1
1
1
1
1
1
1
1
1
1
1
1
1
1
1
1
1
1
1
1
1
1
1
1
1
1
1
1
1
1
1
1
1
1
1
1
1
1
1
1
1
1
1
1
1
1
1
1
1
1
1.26367
2.44561
2.68103
2.68119
2.68202
2.68298
2.68462
2.68712
2.69041
2.69385
2.69676
2.69876
2.70004
2.70103
2.70208
2.70338
2.70517
2.70755
2.7105
2.71374
2.71681
2.71918
2.72064
2.72141
2.722
2.72289
2.72447
2.727
2.73027
2.73364
2.73621
2.73762
2.73812
2.73827
2.73863
2.73964
2.74129
2.74356
2.74613
2.74854
2.75057
2.75215
2.75348
2.7547
2.75598
2.75737
2.75885
2.76031
2.76164
2.7629
2.76412
2.76527
2.76642
2.76767
2.76912
2.77074
2.77243
2.77403
2.77544
2.77664
2.77771
2.77869
2.77958
2.7804
2.78115
2.78181
2.78239
2.78289
2.78329
2.78371
2.78439
2.7856
2.78708
2.78826
2.78874
2.78872
2.78866
2.78888
2.78974
2.79121
2.79267
2.79369
2.79438
2.79504
2.79602
2.79754
2.79938
2.80132
2.80368
2.80619
2.80819
2.80936
2.81005
1
1
1
1
1
1
1
1
1
1
1
1
1
1
1
1
1
1
1
1
1
1
1
1
1
1
1
1
1
1
1
1
1
1
1
1
1
1
1
1
1
1
1
1
1
1
1
1
1
1
1
1
1
1
1
1
1
1
1
1
1
1
1
1
1
1
1
1
1
1
1
1
1
1
1
1
1
1
1
1
1
1
1
1
1
1
1
1
1
1
1
1
1
1
1
1
1
1
1
1.16389
2.39233
2.68065
2.68027
2.68118
2.68223
2.68397
2.68658
2.68989
2.69326
2.69606
2.69803
2.69941
2.70058
2.70174
2.70302
2.70454
2.70645
2.70892
2.71184
2.71494
2.71766
2.71962
2.72082
2.72162
2.72244
2.72372
2.72576
2.7286
2.73179
2.7345
2.73623
2.73706
2.73738
2.73773
2.73864
2.74021
2.74239
2.7449
2.74727
2.74926
2.7508
2.75213
2.75336
2.75469
2.7561
2.75756
2.75894
2.7602
2.76147
2.76281
2.76417
2.7655
2.76683
2.76822
2.76973
2.77132
2.77286
2.77422
2.77537
2.77639
2.77735
2.77831
2.77926
2.78013
2.78077
2.78117
2.78151
2.78187
2.78244
2.78344
2.78494
2.7864
2.78724
2.78738
2.78725
2.78727
2.78775
2.78893
2.79046
2.79165
2.79233
2.79286
2.79359
2.79486
2.79673
2.79868
2.80044
2.80253
2.80484
2.80681
2.80814
2.809
1
1
1
1
1
1
1
1
1
1
1
1
1
1
1
1
1
1
1
1
1
1
1
1
1
1
1
1
1
1
1
1
1
1
1
1
1
1
1
1
1
1
1
1
1
1
1
1
1
1
1
1
1
1
1
1
1
1
1
1
1
1
1
1
1
1
1
1
1
1
1
1
1
1
1
1
1
1
1
1
1
1
1
1
1
1
1
1
1
1
1
1
1
1
1
1
1
1
1
1.06319
2.33659
2.68131
2.68067
2.68119
2.68234
2.68441
2.68737
2.69072
2.69379
2.69615
2.69779
2.69916
2.70049
2.70178
2.70307
2.70442
2.70597
2.70795
2.71038
2.71322
2.71605
2.7184
2.72007
2.7212
2.72211
2.7232
2.72483
2.72717
2.73002
2.73275
2.73474
2.73591
2.73647
2.7369
2.73773
2.73917
2.74121
2.74365
2.74597
2.74791
2.74939
2.75067
2.75188
2.75324
2.75473
2.75625
2.75764
2.75886
2.7601
2.76149
2.76296
2.76443
2.76584
2.76723
2.76865
2.77013
2.77159
2.77289
2.77399
2.77498
2.77597
2.77703
2.77809
2.77904
2.77964
2.77985
2.78005
2.78046
2.78125
2.78259
2.78423
2.78548
2.78592
2.78583
2.78571
2.78591
2.78676
2.78822
2.7896
2.79041
2.79083
2.79124
2.79213
2.79374
2.79592
2.7979
2.79943
2.80126
2.80339
2.80537
2.80689
2.8079
1
1
1
1
1
1
1
1
1
1
1
1
1
1
1
1
1
1
1
1
1
1
1
1
1
1
1
1
1
1
1
1
1
1
1
1
1
1
1
1
1
1
1
1
1
1
1
1
1
1
1
1
1
1
1
1
1
1
1
1
1
1
1
1
1
1
1
1
1
1
1
1
1
1
1
1
1
1
1
1
1
1
1
1
1
1
1
1
1
1
1
1
1
1
1
1
1
1
1
1.00228
2.27845
2.68104
2.68092
2.68153
2.68312
2.68535
2.68811
2.691
2.69367
2.69581
2.69739
2.69882
2.70029
2.70175
2.70314
2.70449
2.70593
2.7076
2.70959
2.71201
2.71467
2.71717
2.71921
2.7207
2.72183
2.7229
2.72423
2.72611
2.72853
2.73107
2.73319
2.73466
2.73552
2.7361
2.7369
2.73823
2.74009
2.7424
2.74463
2.74649
2.74789
2.74911
2.75031
2.75172
2.75332
2.75496
2.75641
2.7576
2.75877
2.76013
2.76164
2.7632
2.7647
2.76611
2.76748
2.76886
2.77021
2.77144
2.7725
2.77349
2.77456
2.77574
2.7769
2.77786
2.77836
2.77842
2.77857
2.77909
2.78019
2.78178
2.78336
2.78427
2.78435
2.78418
2.78418
2.78469
2.78592
2.78744
2.78851
2.78898
2.78921
2.78959
2.79073
2.79269
2.79505
2.79695
2.79828
2.79987
2.80186
2.80393
2.80564
2.80674
1
1
1
1
1
1
1
1
1
1
1
1
1
1
1
1
1
1
1
1
1
1
1
1
1
1
1
1
1
1
1
1
1
1
1
1
1
1
1
1
1
1
1
1
1
1
1
1
1
1
1
1
1
1
1
1
1
1
1
1
1
1
1
1
1
1
1
1
1
1
1
1
1
1
1
1
1
1
1
1
1
1
1
1
1
1
1
1
1
1
1
1
1
1
1
1
1
1
1
1.00001
2.2028
2.67929
2.68125
2.68248
2.68438
2.6867
2.68923
2.69177
2.69415
2.69616
2.69774
2.69916
2.7006
2.70205
2.70349
2.70483
2.7062
2.70771
2.70943
2.71147
2.71379
2.71618
2.71834
2.72008
2.72146
2.72264
2.72387
2.72543
2.72742
2.72965
2.73173
2.73336
2.7345
2.7353
2.73615
2.7374
2.73909
2.74121
2.74327
2.74499
2.7463
2.74747
2.7487
2.75023
2.75197
2.75373
2.75522
2.75638
2.75744
2.75871
2.76021
2.76184
2.76343
2.76489
2.76624
2.76752
2.76875
2.76989
2.77093
2.77197
2.77314
2.77444
2.77566
2.77655
2.77693
2.77693
2.7771
2.77782
2.77921
2.7809
2.78221
2.78272
2.78262
2.78249
2.78274
2.78367
2.78514
2.78644
2.78713
2.78738
2.78752
2.78802
2.78945
2.79167
2.79403
2.79578
2.79696
2.79838
2.8003
2.80249
2.80436
2.80547
1
1
1
1
1
1
1
1
1
1
1
1
1
1
1
1
1
1
1
1
1
1
1
1
1
1
1
1
1
1
1
1
1
1
1
1
1
1
1
1
1
1
1
1
1
1
1
1
1
1
1
1
1
1
1
1
1
1
1
1
1
1
1
1
1
1
1
1
1
1
1
1
1
1
1
1
1
1
1
1
1
1
1
1
1
1
1
1
1
1
1
1
1
1
1
1
1
1
1
1
2.10878
2.67058
2.68159
2.68321
2.68504
2.6871
2.68936
2.69176
2.69416
2.69628
2.698
2.69951
2.70102
2.70253
2.70398
2.70525
2.70656
2.70793
2.70947
2.71131
2.71341
2.71564
2.71775
2.71959
2.72116
2.72253
2.72381
2.72518
2.7268
2.72865
2.7305
2.73213
2.73344
2.73447
2.73543
2.73667
2.73822
2.74012
2.74194
2.74348
2.74469
2.74583
2.74717
2.74884
2.75073
2.75253
2.75402
2.75511
2.75604
2.75722
2.7587
2.76038
2.76206
2.76358
2.7649
2.76607
2.76718
2.76825
2.7693
2.77043
2.77173
2.77312
2.77433
2.7751
2.77538
2.77539
2.77571
2.77669
2.77824
2.77981
2.78074
2.78089
2.78076
2.78085
2.78151
2.78282
2.78421
2.78513
2.7855
2.78561
2.78583
2.7866
2.78831
2.79062
2.7928
2.79435
2.79546
2.79681
2.79876
2.80107
2.80304
2.80409
1
1
1
1
1
1
1
1
1
1
1
1
1
1
1
1
1
1
1
1
1
1
1
1
1
1
1
1
1
1
1
1
1
1
1
1
1
1
1
1
1
1
1
1
1
1
1
1
1
1
1
1
1
1
1
1
1
1
1
1
1
1
1
1
1
1
1
1
1
1
1
1
1
1
1
1
1
1
1
1
1
1
1
1
1
1
1
1
1
1
1
1
1
1
1
1
1
1
1
1
1.99878
2.65272
2.68037
2.6826
2.68457
2.68652
2.6886
2.69088
2.69336
2.6957
2.69777
2.69958
2.70126
2.70286
2.70429
2.70552
2.70687
2.70827
2.70977
2.71151