/*--------------------------------*- C++ -*----------------------------------*\
  =========                 |
  \\      /  F ield         | OpenFOAM: The Open Source CFD Toolbox
   \\    /   O peration     | Website:  https://openfoam.org
    \\  /    A nd           | Version:  7
     \\/     M anipulation  |
\*---------------------------------------------------------------------------*/
FoamFile
{
    version     2.0;
    format      ascii;
    class       volScalarField;
    location    "1";
    object      T;
}
// * * * * * * * * * * * * * * * * * * * * * * * * * * * * * * * * * * * * * //

dimensions      [0 0 0 1 0 0 0];

internalField   nonuniform List<scalar> 
4032
(
1
1
1
1
1
1
1
1
1
1
1
1
1
2.09961
2.79814
2.80176
2.80663
2.81995
2.84014
2.8648
2.8962
2.93993
2.99255
3.02279
1
1
1
1
1
1
1
1
1
1
1
1
1
2.07613
2.78953
2.79986
2.80513
2.81817
2.83782
2.86215
2.8932
2.93655
2.98869
3.01861
1
1
1
1
1
1
1
1
1
1
1
1
1
2.018
2.77496
2.79535
2.80124
2.81423
2.83336
2.85753
2.88844
2.93185
2.98373
3.01364
1
1
1
1
1
1
1
1
1
1
1
1
1
1.92178
2.74762
2.78581
2.79288
2.80632
2.82513
2.84986
2.88112
2.92453
2.97574
3.00478
1
1
1
1
1
1
1
1
1
1
1
1
1
1.78947
2.7022
2.7698
2.78068
2.79438
2.81267
2.8375
2.86776
2.90995
2.96071
2.99124
1
1
1
1
1
1
1
1
1
1
1
1
1
1.59376
2.62126
2.74445
2.76074
2.7765
2.79559
2.821
2.85072
2.89142
2.93825
2.95936
1
1
1
1
1
1
1
1
1
1
1
1
1
1.33141
2.50465
2.71788
2.73456
2.75622
2.77863
2.80202
2.82547
2.85616
2.89472
2.91472
1
1
1
1
1
1
1
1
1
1
1
1
1
1.05398
2.36105
2.69479
2.70708
2.73051
2.75323
2.77469
2.79251
2.81744
2.85846
2.90174
1
1
1
1
1
1
1
1
1
1
1
1
1
1.00068
2.17556
2.6656
2.69683
2.71778
2.73375
2.74955
2.7584
2.76145
2.74188
2.6742
1
1
1
1
1
1
1
1
1
1
1
1
1
1
1.87711
2.6021
2.67837
2.69921
2.71065
2.71868
2.7165
2.6972
2.65681
2.51576
1
1
1
1
1
1
1
1
1
1
1
1
1
1
1.42883
2.47252
2.65152
2.66311
2.67423
2.67517
2.66797
2.63746
2.58216
2.41465
1
1
1
1
1
1
1
1
1
1
1
1
1
1
1.04211
2.29311
2.60526
2.61485
2.62563
2.6234
2.61317
2.58357
2.51319
2.3648
1
1
1
1
1
1
1
1
1
1
1
1
1
1
1.00034
1.9413
2.52214
2.59107
2.58967
2.58144
2.56474
2.53232
2.4602
2.34999
1
1
1
1
1
1
1
1
1
1
1
1
1
1
1
1.34812
2.36652
2.55952
2.55037
2.54033
2.51955
2.48327
2.41956
2.33479
1
1
1
1
1
1
1
1
1
1
1
1
1
1
1
1.02447
2.12415
2.49159
2.51044
2.50182
2.47975
2.44305
2.38825
2.32112
1
1
1
1
1
1
1
1
1
1
1
1
1
1
1
1.0001
1.55686
2.34731
2.48267
2.46448
2.44251
2.40828
2.36057
2.30504
1
1
1
1
1
1
1
1
1
1
1
1
1
1
1
1
1.0694
2.11922
2.43444
2.42003
2.40234
2.37451
2.33542
2.28959
1
1
1
1
1
1
1
1
1
1
1
1
1
1
1
1
1.00083
1.55819
2.27483
2.39675
2.37051
2.34517
2.3134
2.27584
1
1
1
1
1
1
1
1
1
1
1
1
1
1
1
1
1
1.07406
2.03658
2.35531
2.33498
2.31045
2.28403
2.25359
1
1
1
1
1
1
1
1
1
1
1
1
1
1
1
1
1
1.00099
1.43839
2.17315
2.31343
2.28383
2.25944
2.23161
1
1
1
1
1
1
1
1
1
1
1
1
1
1
1
1
1
1
1.04432
1.851
2.25644
2.24839
2.22671
2.20408
1
1
1
1
1
1
1
1
1
1
1
1
1
1
1
1
1
1
1.00047
1.26464
2.0365
2.23013
2.19984
2.18091
1
1
1
1
1
1
1
1
1
1
1
1
1
1
1
1
1
1
1
1.01409
1.54829
2.08405
2.18358
2.15417
1
1
1
1
1
1
1
1
1
1
1
1
1
1
1
1
1
1
1
1.0001
1.08321
1.76679
2.09908
2.13522
1
1
1
1
1
1
1
1
1
1
1
1
1
1
1
1
1
1
1
1
1.00164
1.23249
1.85812
2.09802
1
1
1
1
1
1
1
1
1
1
1
1
1
1
1
1
1
1
1
1
1.00001
1.0115
1.37243
1.90988
1
1
1
1
1
1
1
1
1
1
1
1
1
1
1
1
1
1
1
1
1
1.00009
1.0355
1.48342
1
1
1
1
1
1
1
1
1
1
1
1
1
1
1
1
1
1
1
1
1
1
1.00048
1.0725
1
1
1
1
1
1
1
1
1
1
1
1
1
1
1
1
1
1
1
1
1
1
1
1.00152
1
1
1
1
1
1
1
1
1
1
1
1
1
1
1
1
1
1
1
1
1
1
1
1.00001
1
1
1
1
1
1
1
1
1
1
1
1
1
1
1
1
1
1
1
1
1
1
1
1
1
1
1
1
1
1
1
1
1
1
1
1
1
1
1
1
1
1
1
1
1
1
1
1
1
1
1
1
1
1
1
1
1
1
1
1
1
1
1
1
1
1
1
1
1
1
1
1
1
1
1
1
1
1
1
1
1
1
1
1
1
1
1
1
1
1
1
1
1
1
1
1
1
1
1
1
1
1
1
1
1
1
1
1
1
1
1
1
1
1
1
1
1
1
1
1
1
1
1
1
1
1
1
1
1
1
1
1
1
1
1
1
1
1
1
1
1
1
1
1
1
1
1
1
1
1
1
1
1
1
1
1
1
1
1
1
1
1
1
1
1
1
1
1
1
1
1
1
1
1
1
1
1
1
1
1
1
1
1
1
1
1
1
1
1
1
1
1
1
1
1
1
1
1
1
1
1
1
1
1
1
1
1
1
1
1
1
1
1
1
1
1
1
1
1
1
1
1
1
1
1
1
1
1
1
1
1
1
1
1
1
1
1
1
1
1
1.82637
1.31448
1.17438
1.18417
1.21205
1.32833
1.41646
1.49762
1.64471
1.794
1.83731
1.82182
1.81216
1.82963
1.88031
1.89944
1.90021
1.89489
1.88196
1.87477
1.87447
1.87443
1.86596
1.84503
1.82893
1.82446
1.82351
1.82275
1.81871
1.81069
1.79887
1.79206
1.78937
1.78682
1.78693
1.79005
1.79058
1.78893
1.78519
1.78437
1.78584
1.79217
1.80029
1.80093
1.80057
1.80215
1.80469
1.80915
1.8173
1.82734
1.83326
1.83443
1.83323
1.82759
1.82005
1.8133
1.80726
1.80443
1.8042
1.80391
1.80274
1.80064
1.80032
1.79989
1.79833
1.79728
1.79755
1.79954
1.80407
1.81118
1.82199
1.83626
1.84775
1.85486
1.85783
1.85772
1.85652
1.85346
1.84465
1.84298
1.85008
1.85652
1.85923
1.86229
1.86159
1.85456
1.84902
1.84052
1.83305
1.83197
1.82941
1.82181
1.80754
1.78251
1.75205
1.70829
2.05112
1.74437
1.66854
1.57161
1.42384
1.39189
1.36448
1.36683
1.39431
1.44377
1.47266
1.51157
1.55847
1.60858
1.67072
1.72596
1.75362
1.76281
1.76773
1.7715
1.77779
1.7878
1.78627
1.77609
1.77021
1.77069
1.77192
1.77112
1.76656
1.76004
1.75069
1.74764
1.7467
1.74466
1.74416
1.7458
1.74835
1.74826
1.74583
1.74428
1.74548
1.75121
1.76125
1.76836
1.77198
1.77487
1.77757
1.78189
1.78893
1.79658
1.80057
1.80091
1.79879
1.7925
1.78885
1.78641
1.78326
1.78122
1.78125
1.78221
1.78419
1.7846
1.7831
1.78209
1.78221
1.78333
1.7859
1.78984
1.79603
1.80509
1.81589
1.82691
1.83625
1.84065
1.84088
1.8393
1.83881
1.83909
1.83902
1.83992
1.84568
1.8509
1.85165
1.85177
1.84958
1.84456
1.84101
1.83755
1.83234
1.82931
1.82595
1.81818
1.80477
1.78138
1.74812
1.70129
2.14188
1.92705
1.79307
1.67629
1.56021
1.48548
1.4352
1.37559
1.3318
1.33132
1.32974
1.34713
1.38414
1.42059
1.46181
1.51195
1.55143
1.57894
1.60522
1.62713
1.6446
1.6615
1.67339
1.67277
1.6724
1.67622
1.67574
1.66977
1.65801
1.6509
1.64894
1.64737
1.64577
1.64254
1.64174
1.64457
1.6503
1.65728
1.66138
1.66283
1.6645
1.66763
1.67184
1.67633
1.68343
1.69014
1.69558
1.70265
1.71293
1.72357
1.72831
1.72821
1.72382
1.7168
1.7149
1.71415
1.7127
1.71179
1.71217
1.71422
1.71861
1.72147
1.72083
1.71934
1.72064
1.7252
1.73217
1.74058
1.75057
1.7637
1.78028
1.79636
1.80389
1.80452
1.80106
1.79508
1.79237
1.79285
1.79787
1.80787
1.82047
1.82862
1.82929
1.82688
1.82073
1.81297
1.80762
1.80619
1.8059
1.80572
1.80505
1.80163
1.7926
1.77266
1.74133
1.68918
2.17208
2.01929
1.89545
1.7747
1.66698
1.60555
1.54355
1.47247
1.42132
1.40238
1.37359
1.33489
1.3339
1.34154
1.35564
1.37491
1.40657
1.43899
1.4678
1.49116
1.50851
1.52312
1.54228
1.55411
1.56445
1.57815
1.57969
1.57623
1.56857
1.56224
1.55871
1.55385
1.54865
1.54239
1.53958
1.5413
1.54462
1.54979
1.55578
1.55966
1.56271
1.56581
1.56917
1.57199
1.57602
1.58164
1.58819
1.5973
1.60946
1.62203
1.62897
1.62924
1.62378
1.62069
1.62152
1.62167
1.62116
1.62064
1.62086
1.6224
1.62638
1.6316
1.63436
1.63489
1.6371
1.64407
1.65363
1.664
1.67603
1.69087
1.70852
1.72464
1.73395
1.73526
1.73427
1.73413
1.73457
1.73512
1.73797
1.74769
1.76164
1.77353
1.77824
1.7782
1.77621
1.76975
1.76161
1.75611
1.75237
1.75015
1.74987
1.74961
1.74699
1.73795
1.71881
1.67392
2.20514
2.07301
1.96507
1.85711
1.75851
1.69655
1.63115
1.55039
1.49825
1.46785
1.4324
1.38554
1.3645
1.35864
1.34326
1.34369
1.35107
1.36161
1.37369
1.38987
1.41121
1.42912
1.45159
1.46679
1.4788
1.48879
1.49474
1.49383
1.49107
1.49082
1.49451
1.49927
1.49825
1.49469
1.4899
1.48558
1.48124
1.4783
1.47897
1.47987
1.48043
1.48208
1.48558
1.49095
1.49666
1.50269
1.51039
1.51921
1.52846
1.53648
1.53972
1.53887
1.53224
1.52945
1.53056
1.53142
1.5317
1.53254
1.53245
1.53345
1.53755
1.54437
1.54911
1.55057
1.55307
1.56148
1.57364
1.58627
1.60008
1.61536
1.62937
1.63805
1.64007
1.64021
1.64334
1.64912
1.65568
1.66307
1.67076
1.67996
1.68888
1.69409
1.69686
1.69846
1.69825
1.69665
1.69519
1.69347
1.68844
1.68158
1.67713
1.67537
1.67376
1.67115
1.66437
1.64188
2.22419
2.1168
2.02121
1.92071
1.83202
1.76453
1.70239
1.63365
1.58414
1.54487
1.50208
1.45441
1.43126
1.41644
1.39001
1.36052
1.35619
1.35255
1.33956
1.33172
1.33602
1.3467
1.36532
1.38907
1.40824
1.42229
1.43467
1.44206
1.44159
1.44265
1.44743
1.45474
1.45626
1.4562
1.45612
1.45518
1.45209
1.4472
1.44254
1.43953
1.43597
1.43398
1.4356
1.43945
1.44492
1.45137
1.45848
1.46513
1.47118
1.47678
1.4783
1.47744
1.47362
1.46896
1.46738
1.46676
1.46588
1.46613
1.46601
1.4669
1.47142
1.47899
1.48312
1.48338
1.48529
1.49404
1.50595
1.51808
1.53113
1.54335
1.55059
1.55202
1.55204
1.55475
1.56193
1.57075
1.58238
1.59383
1.60221
1.60956
1.61393
1.6136
1.61309
1.61472
1.61656
1.61848
1.62045
1.62024
1.61612
1.60781
1.60075
1.59704
1.59477
1.59326
1.59172
1.58592
2.23615
2.14688
2.06333
1.97438
1.89535
1.83143
1.76414
1.69003
1.64743
1.61077
1.57191
1.52008
1.4909
1.46631
1.43481
1.39273
1.37136
1.35928
1.34065
1.32184
1.32112
1.32527
1.3276
1.32911
1.33492
1.3472
1.36384
1.38171
1.39555
1.40226
1.40819
1.42111
1.42559
1.4274
1.43076
1.43162
1.4298
1.42665
1.425
1.42345
1.4211
1.4161
1.41339
1.41434
1.41725
1.42122
1.42424
1.42681
1.42968
1.43325
1.43746
1.43905
1.43885
1.43701
1.43126
1.42686
1.42411
1.42129
1.42026
1.42093
1.42383
1.42913
1.43381
1.43685
1.44269
1.45218
1.46167
1.46988
1.47659
1.48069
1.48234
1.48345
1.48815
1.49756
1.50849
1.52169
1.53719
1.54881
1.55685
1.56456
1.56902
1.56934
1.57198
1.57584
1.57731
1.57923
1.57881
1.57479
1.5675
1.55774
1.54728
1.5396
1.53467
1.53129
1.52967
1.52741
2.23661
2.16537
2.09415
2.01726
1.94665
1.88633
1.8216
1.75368
1.70645
1.66508
1.62336
1.57679
1.54643
1.52181
1.49295
1.4492
1.41669
1.40129
1.38108
1.35185
1.33665
1.33532
1.32671
1.31473
1.30532
1.30261
1.30581
1.313
1.32481
1.34358
1.3623
1.37866
1.39335
1.40046
1.40587
1.41137
1.41204
1.40949
1.40548
1.40635
1.4078
1.40641
1.40359
1.40362
1.40461
1.40517
1.40363
1.39918
1.39968
1.40247
1.40638
1.41181
1.414
1.41346
1.40983
1.40246
1.39665
1.39189
1.38913
1.38901
1.39013
1.39379
1.39959
1.40705
1.417
1.42479
1.42963
1.43398
1.43794
1.44087
1.44677
1.45813
1.47499
1.49609
1.51852
1.54131
1.56109
1.57516
1.5885
1.60179
1.61287
1.6219
1.62831
1.63385
1.63854
1.63882
1.63286
1.62069
1.60482
1.58819
1.57136
1.55408
1.54009
1.52897
1.51962
1.50717
2.23396
2.17688
2.11717
2.04882
1.98618
1.93174
1.86827
1.80289
1.75801
1.71682
1.6735
1.62839
1.59101
1.56026
1.53475
1.50001
1.46559
1.44514
1.4221
1.38992
1.36141
1.35232
1.33796
1.31788
1.30148
1.2962
1.29703
1.29685
1.29421
1.29628
1.30815
1.32149
1.33434
1.34808
1.35959
1.37249
1.38841
1.39348
1.38989
1.39055
1.39421
1.39512
1.39386
1.39457
1.39576
1.39528
1.39217
1.3849
1.38201
1.3821
1.38325
1.38735
1.39117
1.39139
1.38982
1.38374
1.37532
1.37042
1.368
1.36727
1.36805
1.37146
1.38033
1.39184
1.40327
1.41174
1.41829
1.42502
1.4389
1.46311
1.49457
1.53103
1.57045
1.6095
1.64126
1.66478
1.67833
1.68495
1.68894
1.69241
1.69315
1.68928
1.68401
1.68426
1.69163
1.69545
1.69249
1.68275
1.66788
1.65249
1.63592
1.61692
1.60213
1.59064
1.57984
1.56462
2.2289
2.17929
2.12804
2.07086
2.01479
1.96277
1.90653
1.85058
1.80256
1.75598
1.71019
1.67559
1.63982
1.603
1.57486
1.53976
1.50051
1.47934
1.46198
1.43545
1.40302
1.39027
1.3767
1.3546
1.32412
1.30925
1.30931
1.30365
1.29238
1.28708
1.28774
1.287
1.28118
1.28263
1.29255
1.31036
1.33345
1.35626
1.36815
1.37385
1.3778
1.37947
1.37919
1.38082
1.38262
1.38267
1.38135
1.37808
1.37339
1.36854
1.36783
1.36808
1.36843
1.36774
1.36713
1.36391
1.3565
1.35323
1.35371
1.35499
1.35921
1.36829
1.38615
1.41341
1.44565
1.47674
1.50515
1.53201
1.55872
1.58583
1.61179
1.63621
1.65979
1.68051
1.69907
1.71434
1.71763
1.71693
1.71444
1.70714
1.69712
1.68625
1.67469
1.67002
1.67043
1.67314
1.6738
1.66932
1.65863
1.6467
1.63255
1.61892
1.60829
1.60005
1.5921
1.57715
2.21619
2.17556
2.13122
2.08072
2.03155
1.9836
1.93009
1.88118
1.8373
1.79137
1.74162
1.7084
1.67481
1.63566
1.6076
1.58078
1.54257
1.5121
1.49301
1.46747
1.43298
1.41824
1.40944
1.39258
1.36162
1.3356
1.32906
1.31816
1.30056
1.28741
1.28523
1.28409
1.27489
1.26246
1.25893
1.26213
1.27193
1.29052
1.31678
1.33324
1.34546
1.35294
1.35409
1.35668
1.36142
1.3663
1.36919
1.36863
1.36529
1.36103
1.35682
1.35343
1.35017
1.34704
1.34752
1.34752
1.34483
1.34645
1.35273
1.3682
1.39648
1.43933
1.49091
1.5421
1.58256
1.61194
1.63233
1.64466
1.65196
1.65303
1.65404
1.65749
1.66286
1.66842
1.67511
1.67927
1.67861
1.67632
1.67338
1.66553
1.65369
1.64173
1.62949
1.61774
1.61096
1.60988
1.60845
1.60498
1.59797
1.58588
1.57308
1.56324
1.5545
1.54739
1.54123
1.52444
2.20026
2.16628
2.12792
2.08525
2.04095
1.99415
1.94525
1.90175
1.86014
1.81473
1.76862
1.73852
1.70756
1.66664
1.62973
1.60465
1.57167
1.54217
1.52469
1.50461
1.46958
1.44468
1.43688
1.4234
1.39839
1.37188
1.36196
1.35046
1.33116
1.30848
1.30208
1.29703
1.28338
1.26474
1.25389
1.25109
1.24895
1.24588
1.25136
1.26638
1.28615
1.30642
1.32444
1.33121
1.33723
1.34682
1.35075
1.34947
1.34599
1.34454
1.34252
1.34058
1.33873
1.33802
1.34089
1.35109
1.37337
1.40752
1.45222
1.50289
1.55227
1.59094
1.61521
1.62885
1.63952
1.64524
1.65462
1.65688
1.65419
1.64765
1.63806
1.62955
1.62274
1.61807
1.61544
1.61617
1.61844
1.61892
1.61701
1.60896
1.59697
1.58344
1.57102
1.55639
1.5408
1.5316
1.52944
1.52967
1.52602
1.51221
1.49626
1.48564
1.47845
1.47294
1.46589
1.44656
2.17806
2.14957
2.11677
2.07993
2.04016
1.99678
1.95227
1.9123
1.87442
1.83328
1.7921
1.76133
1.72924
1.68871
1.6567
1.63241
1.59982
1.56219
1.54578
1.52967
1.50389
1.47932
1.46724
1.45261
1.42686
1.39617
1.38458
1.37432
1.35683
1.33154
1.32087
1.31439
1.29968
1.27554
1.25516
1.24917
1.24612
1.23756
1.23492
1.23714
1.24518
1.25393
1.2635
1.27786
1.29165
1.31006
1.32334
1.3211
1.32092
1.32208
1.32479
1.32914
1.33859
1.36104
1.40996
1.47659
1.53612
1.58004
1.61412
1.63708
1.6495
1.6446
1.63578
1.62709
1.62181
1.62363
1.62819
1.62664
1.62209
1.61325
1.59787
1.58096
1.56833
1.55887
1.55459
1.55475
1.55632
1.56028
1.55942
1.55045
1.53639
1.5204
1.50808
1.49509
1.47693
1.46448
1.46055
1.45952
1.45744
1.44366
1.42404
1.41099
1.40233
1.39567
1.388
1.37173
2.15909
2.13338
2.10379
2.07176
2.03671
1.9974
1.95727
1.91964
1.88379
1.84388
1.8105
1.78234
1.75103
1.70986
1.67517
1.65172
1.62158
1.58839
1.57027
1.55442
1.5275
1.4986
1.48939
1.47841
1.45702
1.42709
1.41102
1.3995
1.38202
1.35426
1.34061
1.33647
1.32497
1.30187
1.27688
1.26898
1.26327
1.25009
1.23398
1.23356
1.23536
1.23126
1.22423
1.22546
1.23296
1.24867
1.26758
1.2861
1.30126
1.30962
1.32854
1.37312
1.44042
1.51319
1.58512
1.63507
1.65515
1.66311
1.66501
1.6613
1.65024
1.6299
1.61209
1.59841
1.5934
1.59397
1.59038
1.58366
1.57425
1.56083
1.54438
1.52942
1.51788
1.50811
1.5021
1.50222
1.50649
1.50549
1.49539
1.48416
1.47319
1.4584
1.44575
1.43735
1.42415
1.41031
1.40541
1.40435
1.39981
1.38317
1.36262
1.34767
1.33767
1.32999
1.32403
1.31268
2.13182
2.10953
2.08426
2.05583
2.02365
1.98965
1.95626
1.92451
1.89288
1.85463
1.82111
1.79474
1.76741
1.73016
1.69945
1.6721
1.64161
1.60461
1.58808
1.57755
1.5565
1.52474
1.50752
1.49445
1.47525
1.44986
1.4355
1.42461
1.40755
1.3787
1.3569
1.35059
1.34021
1.32003
1.2957
1.28748
1.28141
1.26879
1.24857
1.23655
1.23306
1.22541
1.21575
1.21376
1.21444
1.21722
1.22392
1.24089
1.2767
1.34849
1.44523
1.54158
1.59932
1.63419
1.66194
1.6738
1.67729
1.67637
1.6715
1.65639
1.62863
1.60009
1.58114
1.56806
1.55729
1.54466
1.5359
1.52821
1.51646
1.50344
1.49179
1.48333
1.47594
1.46719
1.45943
1.45514
1.45051
1.44221
1.43006
1.42151
1.41421
1.40381
1.39334
1.38747
1.37958
1.36891
1.35954
1.34925
1.33808
1.32417
1.30726
1.29413
1.2874
1.28125
1.27794
1.27263
2.11165
2.08629
2.06179
2.03578
2.00885
1.98118
1.94974
1.9182
1.89135
1.86389
1.83112
1.79968
1.77193
1.7408
1.71194
1.68723
1.66135
1.62676
1.60409
1.59109
1.57233
1.54578
1.52857
1.51512
1.49605
1.46629
1.44987
1.4413
1.42628
1.40129
1.37768
1.36919
1.35949
1.34132
1.31585
1.30625
1.3014
1.29045
1.27116
1.25511
1.24729
1.23724
1.22429
1.21576
1.21719
1.22751
1.26321
1.33731
1.42355
1.50436
1.57183
1.60206
1.61923
1.626
1.62403
1.62219
1.62184
1.62052
1.61555
1.59848
1.57708
1.55896
1.54847
1.53788
1.51932
1.50072
1.48903
1.47863
1.46533
1.45386
1.44651
1.44003
1.43027
1.41794
1.40885
1.40234
1.39592
1.38774
1.37682
1.3678
1.36217
1.35484
1.34503
1.34052
1.33648
1.32825
1.31579
1.30044
1.28522
1.27424
1.26457
1.25463
1.24949
1.24788
1.24757
1.23494
2.09254
2.06719
2.04232
2.01835
1.99208
1.96756
1.94317
1.9159
1.88852
1.86348
1.8349
1.80405
1.77623
1.74991
1.72044
1.69407
1.67325
1.64645
1.62338
1.60676
1.58659
1.55607
1.53726
1.52847
1.51379
1.48738
1.46692
1.45486
1.43768
1.4129
1.38975
1.38334
1.37647
1.36127
1.33684
1.32425
1.31731
1.30529
1.28421
1.26667
1.25901
1.25046
1.23904
1.24774
1.28492
1.3597
1.45073
1.51665
1.54841
1.56537
1.57588
1.57094
1.56261
1.55167
1.54018
1.53107
1.52096
1.51643
1.51435
1.50554
1.48866
1.48833
1.4885
1.48017
1.46112
1.44843
1.44008
1.4307
1.41767
1.40877
1.40043
1.39187
1.38197
1.37069
1.35906
1.35162
1.34487
1.33602
1.32669
1.32164
1.3166
1.30943
1.30066
1.29381
1.29188
1.28679
1.27415
1.25784
1.24268
1.23156
1.22671
1.22567
1.22562
1.22258
1.214
1.19537
2.06156
2.05105
2.02592
2.00228
1.98055
1.95849
1.93309
1.90403
1.88069
1.86173
1.83886
1.80741
1.77633
1.75388
1.72753
1.70121
1.67996
1.65754
1.63346
1.61619
1.59953
1.57472
1.55057
1.53847
1.52311
1.49724
1.47812
1.46689
1.45192
1.42796
1.40054
1.39332
1.38789
1.37498
1.35354
1.34077
1.33301
1.32083
1.30033
1.283
1.28058
1.2971
1.34219
1.41912
1.50687
1.56524
1.60564
1.59691
1.57576
1.56318
1.55337
1.54053
1.52378
1.50174
1.47938
1.45414
1.43253
1.41798
1.414
1.41459
1.40729
1.40535
1.4087
1.40517
1.39669
1.39151
1.38967
1.3843
1.37797
1.37158
1.36048
1.3474
1.33721
1.32581
1.31291
1.3048
1.2974
1.28873
1.28261
1.27985
1.27374
1.26525
1.25901
1.25149
1.24431
1.23984
1.23346
1.22203
1.20868
1.19776
1.19635
1.19753
1.19452
1.18724
1.17913
1.16434
1.91911
2.02603
2.01369
1.98679
1.96381
1.94548
1.92557
1.90147
1.87317
1.84997
1.83181
1.80816
1.7816
1.7578
1.73104
1.70116
1.68128
1.66632
1.64395
1.62113
1.60429
1.5832
1.56076
1.54811
1.53445
1.51034
1.48383
1.47179
1.45874
1.43835
1.41313
1.40551
1.39934
1.38638
1.36374
1.35001
1.34238
1.33435
1.32405
1.33645
1.3869
1.4821
1.57242
1.61165
1.64687
1.64522
1.63513
1.60552
1.57049
1.5464
1.5244
1.50154
1.47881
1.45884
1.43924
1.41489
1.39076
1.37414
1.36127
1.35293
1.34507
1.33292
1.3315
1.33052
1.32848
1.32978
1.33403
1.33656
1.33848
1.33557
1.3235
1.3076
1.29154
1.27745
1.27
1.26516
1.25824
1.2501
1.24626
1.24352
1.23484
1.22456
1.21731
1.21048
1.20219
1.19532
1.19214
1.18831
1.18213
1.17674
1.17216
1.16687
1.16133
1.1545
1.14809
1.13807
1.55445
1.91036
1.9924
1.9786
1.951
1.92903
1.91047
1.89062
1.86858
1.84669
1.82548
1.79972
1.77647
1.75627
1.73435
1.70834
1.68215
1.66662
1.64689
1.62528
1.61161
1.59531
1.56682
1.54725
1.53571
1.51767
1.49408
1.48039
1.46765
1.44689
1.41942
1.41269
1.40645
1.39494
1.37486
1.36239
1.35898
1.37512
1.43349
1.52292
1.62344
1.68947
1.68964
1.67912
1.66783
1.65062
1.62156
1.58667
1.55413
1.52323
1.4949
1.47001
1.44999
1.43361
1.41638
1.39571
1.37254
1.35091
1.33427
1.32231
1.3131
1.30203
1.28888
1.27867
1.27011
1.2691
1.27336
1.28501
1.29209
1.29139
1.28341
1.2661
1.2466
1.23874
1.2363
1.23254
1.22601
1.21977
1.21909
1.21661
1.20625
1.19224
1.18242
1.17569
1.16858
1.15954
1.15428
1.15294
1.15136
1.14949
1.14656
1.14155
1.13471
1.12713
1.12124
1.1148
1.11317
1.58963
1.88928
1.95964
1.94582
1.91744
1.89368
1.87744
1.85957
1.83734
1.81553
1.79504
1.77412
1.7514
1.72857
1.705
1.68718
1.67261
1.65205
1.62277
1.60816
1.59921
1.57973
1.55605
1.53962
1.51849
1.49192
1.4814
1.47364
1.4577
1.43285
1.42042
1.41121
1.40026
1.39486
1.41395
1.48163
1.57764
1.66625
1.72268
1.74303
1.72838
1.70207
1.68032
1.65306
1.62143
1.58682
1.55624
1.52949
1.50152
1.47329
1.44918
1.43113
1.41613
1.40297
1.39051
1.37236
1.34817
1.32324
1.30325
1.28957
1.27879
1.26733
1.25711
1.24757
1.23972
1.23316
1.23213
1.23462
1.23637
1.23343
1.22253
1.20987
1.20158
1.19835
1.19686
1.19342
1.19156
1.19136
1.18772
1.17585
1.16273
1.15574
1.1507
1.14417
1.13529
1.12726
1.12507
1.12584
1.12864
1.12758
1.12327
1.11725
1.10864
1.10021
1.09547
1.0033
1.14557
1.59658
1.86325
1.92608
1.91355
1.88503
1.86031
1.84585
1.83066
1.80823
1.78314
1.76583
1.74816
1.72846
1.70282
1.68319
1.67011
1.65202
1.63003
1.61107
1.59862
1.57854
1.55568
1.54194
1.52565
1.50027
1.48416
1.47312
1.4572
1.43802
1.43024
1.42812
1.44957
1.52402
1.64102
1.72572
1.78211
1.78809
1.77523
1.73884
1.70818
1.68484
1.66019
1.6286
1.59051
1.55785
1.53393
1.51192
1.48697
1.46073
1.4375
1.41899
1.40338
1.39212
1.38204
1.36741
1.34564
1.31971
1.29532
1.27575
1.26157
1.25011
1.23966
1.23113
1.22166
1.21066
1.203
1.19776
1.1951
1.19198
1.18515
1.17614
1.16819
1.16228
1.16159
1.16293
1.16537
1.16672
1.16306
1.15197
1.13924
1.13202
1.12862
1.12379
1.11634
1.10961
1.1064
1.10649
1.10858
1.10778
1.10452
1.10104
1.09492
1.08778
1.08404
1.00002
1.00536
1.16305
1.59001
1.83268
1.89148
1.88181
1.85712
1.83141
1.8149
1.79766
1.77837
1.75946
1.74131
1.72176
1.69851
1.68309
1.66679
1.64856
1.62543
1.61008
1.60078
1.58337
1.55596
1.53817
1.52464
1.50469
1.4908
1.47992
1.46588
1.45509
1.47192
1.54486
1.66914
1.76475
1.83536
1.83373
1.8224
1.78838
1.74343
1.7079
1.68129
1.65498
1.62586
1.59344
1.5602
1.53785
1.52073
1.50251
1.48055
1.45333
1.42673
1.4089
1.39638
1.38532
1.37344
1.35854
1.33971
1.31857
1.29758
1.2774
1.25703
1.23907
1.2287
1.22054
1.21043
1.19858
1.18647
1.17641
1.17017
1.16547
1.15812
1.1498
1.14456
1.13909
1.13331
1.13202
1.13265
1.13201
1.12631
1.11735
1.1099
1.10342
1.09979
1.0982
1.09581
1.0936
1.09219
1.09046
1.08846
1.08612
1.0829
1.08185
1.08037
1.07629
1.07389
1
1.00003
1.00692
1.16661
1.57405
1.79122
1.85842
1.85349
1.82974
1.80522
1.78476
1.76748
1.75269
1.73656
1.71509
1.69283
1.67668
1.65923
1.64395
1.62594
1.60911
1.59836
1.58091
1.55619
1.53998
1.52817
1.50445
1.49034
1.49342
1.51814
1.59528
1.7099
1.80096
1.86321
1.87433
1.86441
1.8351
1.79333
1.75474
1.72205
1.69138
1.66009
1.62883
1.59597
1.56359
1.54407
1.52744
1.50939
1.48996
1.46841
1.44385
1.41937
1.40023
1.38567
1.3723
1.36012
1.34689
1.32953
1.30798
1.28454
1.26549
1.25435
1.2443
1.23225
1.21937
1.20669
1.19345
1.17937
1.16554
1.15564
1.14885
1.14
1.13058
1.12591
1.12127
1.11506
1.11017
1.10622
1.1003
1.09385
1.08712
1.08151
1.07626
1.07129
1.07041
1.07089
1.07267
1.07463
1.07239
1.06409
1.06092
1.06034
1.0594
1.05972
1.05964
1.06061
1
1
1.00005
1.00738
1.16134
1.53208
1.75259
1.83189
1.82773
1.80546
1.77938
1.75781
1.74387
1.72823
1.70693
1.6886
1.67161
1.65389
1.63831
1.61929
1.60859
1.59645
1.57784
1.55094
1.5344
1.53145
1.52461
1.54826
1.62634
1.7587
1.86531
1.91301
1.90519
1.88556
1.86168
1.82256
1.78202
1.74646
1.71695
1.69149
1.66487
1.63555
1.60484
1.57538
1.55249
1.5353
1.51798
1.49819
1.47582
1.45184
1.43025
1.41258
1.39647
1.38007
1.36174
1.34498
1.33138
1.31862
1.30323
1.28127
1.25614
1.24081
1.23329
1.22585
1.21661
1.20398
1.18816
1.17241
1.15868
1.14725
1.13742
1.12717
1.11787
1.11128
1.10523
1.1004
1.09379
1.08629
1.07984
1.07469
1.06759
1.05921
1.05419
1.04991
1.04744
1.04774
1.04818
1.04704
1.04238
1.03631
1.03006
1.02947
1.02955
1.03089
1.03411
1.04015
1
1
1
1.00005
1.00693
1.14136
1.47455
1.72914
1.80851
1.80185
1.77949
1.75226
1.73649
1.71914
1.69925
1.6843
1.66704
1.65122
1.63263
1.61417
1.6051
1.58924
1.57191
1.55466
1.54913
1.57714
1.67172
1.80871
1.89596
1.97053
1.96731
1.9363
1.90484
1.86828
1.82811
1.788
1.75125
1.72105
1.69275
1.66528
1.63863
1.61284
1.58833
1.56561
1.54393
1.52247
1.50246
1.48262
1.46082
1.43798
1.41859
1.4035
1.38972
1.37304
1.35289
1.33642
1.3218
1.30722
1.29224
1.27507
1.25632
1.24097
1.22777
1.21661
1.20641
1.19547
1.18389
1.16875
1.14956
1.13315
1.12402
1.11965
1.11473
1.10496
1.09439
1.08795
1.08214
1.0752
1.06846
1.06269
1.05592
1.04603
1.03973
1.036
1.03319
1.03196
1.02938
1.02465
1.02019
1.01572
1.00946
1.00412
1.00364
1.00414
1.00661
1.0108
1
1
1
1
1.00005
1.00553
1.11073
1.42826
1.71258
1.77113
1.76496
1.75209
1.73662
1.71411
1.69321
1.68037
1.66544
1.64975
1.62587
1.61241
1.59974
1.58604
1.58095
1.60752
1.7007
1.84422
1.9578
1.99067
1.98167
1.96399
1.93
1.89199
1.86002
1.82924
1.79451
1.75538
1.72095
1.69267
1.66776
1.64366
1.62114
1.60048
1.57807
1.55363
1.52649
1.49985
1.47938
1.46264
1.44628
1.42912
1.41221
1.3942
1.37415
1.35478
1.33752
1.32463
1.31409
1.30245
1.28603
1.26341
1.24359
1.23206
1.22464
1.21767
1.20813
1.19445
1.18015
1.16468
1.14761
1.13235
1.12135
1.11297
1.10435
1.09523
1.08831
1.08281
1.07703
1.0705
1.06413
1.05808
1.0506
1.04045
1.03375
1.03034
1.02722
1.02531
1.02252
1.01782
1.01318
1.00858
1.00322
0.996765
0.991518
0.987836
0.987049
0.986156
1
1
1
1
1
1.00004
1.00381
1.08404
1.3964
1.66933
1.71806
1.73881
1.73454
1.71583
1.69292
1.67767
1.66296
1.6462
1.61833
1.6133
1.608
1.63373
1.74095
1.88908
2.00956
2.04378
2.0387
2.02159
1.9904
1.94729
1.89952
1.85497
1.81893
1.79034
1.76015
1.72265
1.69573
1.67329
1.64942
1.62604
1.60591
1.58797
1.56777
1.54252
1.51134
1.4831
1.46424
1.44878
1.43482
1.42099
1.40631
1.38846
1.3656
1.34329
1.33635
1.32966
1.31688
1.30044
1.27931
1.25654
1.24314
1.23303
1.22085
1.2092
1.20357
1.19924
1.19046
1.17763
1.16098
1.14422
1.13215
1.12389
1.11709
1.11082
1.10401
1.09599
1.08746
1.07922
1.07148
1.0638
1.05517
1.04415
1.03548
1.03147
1.02819
1.02564
1.02299
1.01838
1.01363
1.00875
1.00228
0.993969
0.98574
0.980535
0.9773
0.973
1
1
1
1
1
1
1.00002
1.00254
1.06463
1.35373
1.58824
1.67784
1.72125
1.71841
1.70035
1.68053
1.66207
1.64129
1.62829
1.65126
1.76036
1.92224
2.05952
2.0952
2.07533
2.03523
1.99833
1.96219
1.92988
1.90197
1.87078
1.83477
1.80048
1.76749
1.73356
1.7007
1.67677
1.65634
1.63594
1.61753
1.59979
1.58024
1.55759
1.53184
1.50601
1.48561
1.4685
1.45102
1.43361
1.41813
1.40513
1.39117
1.37297
1.35154
1.33091
1.31378
1.29879
1.28385
1.27277
1.26636
1.25814
1.24494
1.22747
1.21224
1.20072
1.189
1.17595
1.16079
1.14469
1.13096
1.12124
1.11392
1.10721
1.10004
1.0921
1.08394
1.07616
1.06888
1.06188
1.0545
1.04521
1.0317
1.02205
1.01859
1.01588
1.01342
1.01055
1.00605
1.00142
0.996335
0.988935
0.980594
0.975662
0.972331
0.969027
0.963422
1
1
1
1
1
1
1
1.00001
1.00165
1.04651
1.27143
1.49645
1.65149
1.70801
1.70068
1.68465
1.67812
1.69475
1.77536
1.92054
2.06042
2.15562
2.1543
2.1302
2.08957
2.0251
1.95734
1.91032
1.88147
1.85939
1.83678
1.81091
1.78327
1.75248
1.71841
1.68713
1.66213
1.64033
1.62025
1.60282
1.58672
1.56938
1.54809
1.52284
1.49757
1.47629
1.45863
1.44241
1.42711
1.41351
1.40056
1.38511
1.36568
1.34447
1.32386
1.30662
1.29319
1.2827
1.27366
1.26344
1.25203
1.2378
1.22173
1.20794
1.19572
1.18345
1.17028
1.15502
1.13906
1.12625
1.11768
1.11101
1.10443
1.09682
1.08819
1.07982
1.07233
1.06545
1.0586
1.05136
1.04201
1.02757
1.01774
1.01464
1.01222
1.00989
1.00678
1.00233
0.997878
0.993104
0.98624
0.978231
0.972963
0.969064
0.965426
0.959644
1
1
1
1
1
1
1
1
1.00001
1.00085
1.02603
1.16758
1.42588
1.62582
1.67931
1.74777
1.84322
1.9461
2.03594
2.08966
2.11419
2.12107
2.10229
2.067
2.02611
1.99112
1.95157
1.91181
1.87964
1.85251
1.82988
1.81057
1.78931
1.76273
1.73362
1.7058
1.6802
1.65627
1.63372
1.61393
1.59658
1.57883
1.55752
1.53278
1.50745
1.48492
1.46613
1.44952
1.43488
1.42181
1.40841
1.39278
1.37388
1.35273
1.33318
1.318
1.30575
1.29467
1.28334
1.27114
1.25764
1.24218
1.22667
1.21329
1.20172
1.19033
1.17745
1.1628
1.14869
1.13767
1.1294
1.12212
1.11432
1.10483
1.09489
1.08759
1.08192
1.07621
1.07004
1.06296
1.05201
1.03494
1.02504
1.02213
1.01963
1.01694
1.01321
1.00865
1.0039
0.998624
0.990915
0.981568
0.975651
0.971474
0.967742
0.961865
1
1
1
1
1
1
1
1
1
1
1.00036
1.00944
1.12034
1.42281
1.7391
1.96308
2.15705
2.26731
2.33149
2.29554
2.22796
2.14208
2.06481
2.01228
1.98014
1.95295
1.92176
1.88825
1.85616
1.82604
1.80147
1.7848
1.76832
1.74544
1.7174
1.68917
1.66411
1.64152
1.61953
1.59903
1.5811
1.56342
1.54203
1.51638
1.49006
1.46765
1.44948
1.43313
1.41846
1.40548
1.39236
1.37682
1.35795
1.3376
1.31962
1.30529
1.29259
1.28011
1.26759
1.2554
1.24266
1.22802
1.21249
1.19852
1.1865
1.1748
1.16216
1.14874
1.13577
1.12509
1.11675
1.10925
1.10119
1.09119
1.08145
1.07544
1.07045
1.06491
1.05891
1.05196
1.04059
1.02289
1.0132
1.01045
1.00805
1.0055
1.00173
0.997102
0.992345
0.987074
0.979191
0.969567
0.963759
0.959682
0.956092
0.950439
)
;

boundaryField
{
    inlet
    {
        type            fixedValue;
        value           uniform 1;
    }
    outlet
    {
        type            inletOutlet;
        inletValue      uniform 1;
        value           nonuniform List<scalar> 
32
(
1.70439
1.69747
1.6846
1.66919
1.63936
1.58559
1.52659
1.50049
1.55433
1.57291
1.5243
1.44717
1.37293
1.31425
1.27442
1.23376
1.19402
1.16346
1.13786
1.11531
1.09639
1.08473
1.07462
1.0614
1.04091
1.01097
0.986176
0.97306
0.963515
0.959799
0.962108
0.950691
)
;
    }
    bottom
    {
        type            symmetryPlane;
    }
    top
    {
        type            symmetryPlane;
    }
    obstacle
    {
        type            zeroGradient;
    }
    defaultFaces
    {
        type            empty;
    }
}


// ************************************************************************* //
