/*--------------------------------*- C++ -*----------------------------------*\
  =========                 |
  \\      /  F ield         | OpenFOAM: The Open Source CFD Toolbox
   \\    /   O peration     | Website:  https://openfoam.org
    \\  /    A nd           | Version:  7
     \\/     M anipulation  |
\*---------------------------------------------------------------------------*/
FoamFile
{
    version     2.0;
    format      ascii;
    class       volScalarField;
    location    "3.4";
    object      p;
}
// * * * * * * * * * * * * * * * * * * * * * * * * * * * * * * * * * * * * * //

dimensions      [1 -1 -2 0 0 0 0];

internalField   nonuniform List<scalar> 
4032
(
1
1
1
1
1
1
1
1
1
1
1
1.17075
7.12113
10.5933
10.7411
10.9471
11.1369
11.318
11.4851
11.6353
11.7678
11.8735
11.9543
12.0125
1
1
1
1
1
1
1
1
1
1
1
1.13521
6.9738
10.5703
10.7289
10.9281
11.1145
11.2918
11.4553
11.601
11.7277
11.8255
11.8956
11.946
1
1
1
1
1
1
1
1
1
1
1
1.01342
6.62213
10.5274
10.6813
10.8733
11.0557
11.2268
11.3841
11.5246
11.6496
11.7501
11.8231
11.8825
1
1
1
1
1
1
1
1
1
1
1
1.00021
6.10323
10.4166
10.5959
10.7842
10.966
11.1322
11.285
11.421
11.54
11.6299
11.6862
11.7272
1
1
1
1
1
1
1
1
1
1
1
1
5.41532
10.2501
10.5063
10.6836
10.8594
11.0132
11.1503
11.2659
11.3615
11.4352
11.4813
11.5403
1
1
1
1
1
1
1
1
1
1
1
1
4.58122
9.98615
10.3977
10.5612
10.7224
10.8569
10.9745
11.0739
11.155
11.2178
11.2348
11.1993
1
1
1
1
1
1
1
1
1
1
1
1
3.65022
9.57393
10.3007
10.4528
10.5935
10.6982
10.7751
10.8302
10.8477
10.8126
10.7466
10.7045
1
1
1
1
1
1
1
1
1
1
1
1
2.63851
8.93018
10.2285
10.3472
10.4553
10.5278
10.56
10.5618
10.5101
10.4291
10.2982
10.2808
1
1
1
1
1
1
1
1
1
1
1
1
1.64463
8.02272
10.1977
10.2176
10.3023
10.3382
10.3213
10.2615
10.1131
9.84689
9.07171
7.19674
1
1
1
1
1
1
1
1
1
1
1
1
1.05511
6.73204
10.0827
9.9726
10.041
10.0732
10.0328
9.91457
9.67521
9.20432
8.40513
6.34429
1
1
1
1
1
1
1
1
1
1
1
1
1.0002
4.98262
9.52713
9.79628
9.86077
9.83025
9.74463
9.56392
9.26031
8.6934
7.85905
5.90349
1
1
1
1
1
1
1
1
1
1
1
1
0.999997
3.1028
8.77354
9.64639
9.64795
9.6177
9.49961
9.26131
8.88996
8.31035
7.40729
5.80086
1
1
1
1
1
1
1
1
1
1
1
1
0.999999
1.54457
7.75774
9.70408
9.50807
9.38609
9.22849
8.95491
8.54967
7.99453
7.06789
5.83647
1
1
1
1
1
1
1
1
1
1
1
1
1
1.03248
5.95631
9.11968
9.16553
9.11843
8.95958
8.68222
8.28454
7.70695
6.86859
5.90579
1
1
1
1
1
1
1
1
1
1
1
1
1
0.999912
3.41934
8.39757
9.06491
8.98235
8.78491
8.46902
8.0703
7.48717
6.76516
5.98082
1
1
1
1
1
1
1
1
1
1
1
1
1
0.999973
1.41061
7.31365
9.13368
8.83995
8.57914
8.23299
7.84626
7.31434
6.70399
6.04552
1
1
1
1
1
1
1
1
1
1
1
1
1
0.999996
1.01575
5.18659
8.57689
8.52363
8.31704
8.01961
7.6583
7.19263
6.66579
6.09235
1
1
1
1
1
1
1
1
1
1
1
1
1
1
0.999916
2.42645
7.78621
8.45919
8.19958
7.90209
7.54875
7.11677
6.63862
6.12791
1
1
1
1
1
1
1
1
1
1
1
1
1
1
0.999979
1.15274
5.83783
8.28091
8.0132
7.76964
7.44214
7.04607
6.61349
6.155
1
1
1
1
1
1
1
1
1
1
1
1
1
1
0.999996
1.00167
2.85862
7.43017
7.9309
7.68375
7.36979
7.00274
6.61265
6.19143
1
1
1
1
1
1
1
1
1
1
1
1
1
1
1
0.999999
1.24289
5.63394
7.88223
7.62969
7.34036
6.98596
6.61244
6.21149
1
1
1
1
1
1
1
1
1
1
1
1
1
1
1
1
1.00474
2.5759
6.97034
7.58296
7.28466
6.94956
6.59412
6.22087
1
1
1
1
1
1
1
1
1
1
1
1
1
1
1
1
1.00001
1.18086
5.04765
7.55284
7.25312
6.93117
6.58846
6.24099
1
1
1
1
1
1
1
1
1
1
1
1
1
1
1
1
1
1.00292
2.1599
6.3783
7.21032
6.89394
6.5837
6.26145
1
1
1
1
1
1
1
1
1
1
1
1
1
1
1
1
1
1.00001
1.09724
3.93739
7.00339
6.9069
6.62307
6.31836
1
1
1
1
1
1
1
1
1
1
1
1
1
1
1
1
1
1
1.00125
1.60294
5.45429
6.92607
6.64827
6.33863
1
1
1
1
1
1
1
1
1
1
1
1
1
1
1
1
1
1
1
1.02908
2.66044
6.12332
6.65798
6.37178
1
1
1
1
1
1
1
1
1
1
1
1
1
1
1
1
1
1
1
1.00028
1.19503
3.98717
6.41179
6.42761
1
1
1
1
1
1
1
1
1
1
1
1
1
1
1
1
1
1
1
1
1.00443
1.66284
4.94778
6.37279
1
1
1
1
1
1
1
1
1
1
1
1
1
1
1
1
1
1
1
1
1.00003
1.03613
2.36269
5.49762
1
1
1
1
1
1
1
1
1
1
1
1
1
1
1
1
1
1
1
1
1
1.00043
1.13954
3.18138
1
1
1
1
1
1
1
1
1
1
1
1
1
1
1
1
1
1
1
1
1
1
1.00299
1.35831
1
1
1
1
1
1
1
1
1
1
1
1
1
1
1
1
1
1
1
1
1
1
1.00002
1.01349
1
1
1
1
1
1
1
1
1
1
1
1
1
1
1
1
1
1
1
1
1
1
1
1.00012
1
1
1
1
1
1
1
1
1
1
1
1
1
1
1
1
1
1
1
1
1
1
1
1
1
1
1
1
1
1
1
1
1
1
1
1
1
1
1
1
1
1
1
1
1
1
1
1
1
1
1
1
1
1
1
1
1
1
1
1
1
1
1
1
1
1
1
1
1
1
1
1
1
1
1
1
1
1
1
1
1
1
1
1
1
1
1
1
1
1
1
1
1
1
1
1
1
1
1
1
1
1
1
1
1
1
1
1
1
1
1
1
1
1
1
1
1
1
1
1
1
1
1
1
1
1
1
1
1
1
1
1
1
1
1
1
1
1
1
1
1
1
1
1
1.58103
0.390734
0.163238
0.168956
0.217798
0.258062
0.345149
0.475507
0.630893
0.763045
0.891557
1.02416
1.12375
1.18703
1.22922
1.26805
1.2782
1.2691
1.26813
1.26433
1.26124
1.28174
1.30604
1.321
1.32245
1.31838
1.31099
1.30806
1.30893
1.31013
3.2852
5.77922
6.05039
6.07028
6.05509
6.0291
5.999
5.97497
5.94898
5.9119
5.85276
5.7611
5.63974
5.5144
5.41461
5.35081
5.31951
5.30066
5.23391
5.09811
4.94523
4.80903
4.71216
4.66381
4.65358
4.61548
4.53414
4.43391
4.3232
4.22215
4.14218
4.08524
4.05446
4.01899
3.95495
3.88024
3.78526
3.6803
3.59487
3.53499
3.48769
3.45847
3.44212
3.40252
3.34571
3.26621
3.16615
3.0863
3.03486
2.99654
2.96908
2.94711
2.91542
2.87346
2.80728
2.71871
2.65158
2.6117
2.58128
2.56179
2.54861
2.52166
2.48725
2.42952
2.35255
2.27705
2.79603
1.44196
0.838186
0.661218
0.595189
0.545049
0.51446
0.499827
0.521734
0.573432
0.641544
0.717533
0.82288
0.935884
1.01653
1.08549
1.14379
1.1821
1.20217
1.23028
1.25483
1.27878
1.29352
1.30158
1.30849
1.31189
1.31597
1.31155
1.30658
1.30672
2.9877
5.88232
6.1839
6.12854
6.0462
6.00797
5.97466
5.92858
5.86106
5.79822
5.74984
5.70797
5.65918
5.57395
5.45483
5.33702
5.2348
5.16663
5.13118
5.08444
5.00183
4.89552
4.78529
4.69204
4.60375
4.52432
4.46482
4.41242
4.34189
4.25742
4.16751
4.08777
4.02065
3.96093
3.91512
3.86238
3.79924
3.73101
3.64761
3.55846
3.48939
3.4426
3.39962
3.36395
3.32545
3.26973
3.20644
3.13222
3.05854
3.00087
2.9583
2.91926
2.8837
2.84837
2.80331
2.74705
2.6867
2.63068
2.58933
2.55866
2.52961
2.50266
2.47093
2.42886
2.37917
2.30339
3.63504
2.43543
1.71719
1.22771
0.981255
0.839024
0.738315
0.650985
0.594428
0.612376
0.646472
0.673285
0.722299
0.799627
0.870225
0.927717
1.00134
1.08843
1.15297
1.22054
1.28111
1.31178
1.31363
1.31362
1.31233
1.31008
1.31274
1.30907
1.30936
1.34201
2.53667
5.92608
6.46606
6.14188
5.9522
5.94413
5.97548
5.99872
5.93501
5.81384
5.69568
5.61721
5.58833
5.59332
5.55834
5.45665
5.32001
5.15931
5.0436
4.97641
4.94639
4.92536
4.87426
4.78159
4.65376
4.50753
4.40569
4.34232
4.30491
4.27311
4.22008
4.14517
4.03946
3.91653
3.8332
3.78221
3.7595
3.7397
3.69417
3.63493
3.54686
3.43395
3.35409
3.30525
3.26176
3.23619
3.2138
3.17219
3.11744
3.0387
2.95059
2.8884
2.84301
2.80033
2.76746
2.74555
2.71726
2.67705
2.6185
2.55522
2.5087
2.47107
2.43478
2.403
2.38215
2.33379
4.24568
3.14588
2.4118
1.91963
1.50139
1.2113
1.09686
0.985044
0.844811
0.804505
0.774083
0.712146
0.698374
0.714331
0.737979
0.764252
0.825919
0.924035
1.01728
1.09498
1.17197
1.22428
1.23979
1.26908
1.29171
1.30616
1.31889
1.3185
1.35101
1.5609
2.37395
5.06685
6.60665
6.39262
6.07072
5.9055
5.89016
5.92558
5.91412
5.83954
5.6878
5.56955
5.50527
5.48572
5.4795
5.41924
5.33634
5.21904
5.06812
4.96384
4.90736
4.8743
4.83566
4.76396
4.6763
4.56074
4.41907
4.31661
4.25956
4.22378
4.18747
4.13413
4.06892
3.97248
3.85161
3.77235
3.73091
3.70286
3.67471
3.63226
3.57048
3.47292
3.35932
3.27977
3.23726
3.21122
3.19586
3.17115
3.13268
3.07479
2.97819
2.87043
2.80119
2.76674
2.74506
2.73212
2.72206
2.69707
2.65591
2.58182
2.49242
2.4371
2.40709
2.38706
2.37784
2.33901
4.7039
3.75274
2.97252
2.46501
2.04701
1.64515
1.45277
1.32141
1.16084
1.01676
0.946346
0.862419
0.763566
0.750652
0.755798
0.760699
0.769375
0.793202
0.840094
0.908219
0.999248
1.08716
1.14501
1.19674
1.22946
1.25379
1.26485
1.31501
1.56049
2.3053
2.83481
3.70415
5.36979
6.1373
6.19636
6.0443
5.93084
5.86876
5.86077
5.82841
5.73652
5.59838
5.49714
5.43075
5.39156
5.36115
5.30724
5.23764
5.13201
4.99792
4.89739
4.82881
4.76847
4.7108
4.64638
4.5706
4.46504
4.3401
4.24881
4.19152
4.14061
4.09114
4.04272
3.98676
3.90772
3.8049
3.72557
3.6795
3.63444
3.58322
3.5242
3.45636
3.38065
3.30515
3.24941
3.2143
3.18439
3.15198
3.1105
3.05114
2.96862
2.87786
2.80548
2.76421
2.74121
2.72423
2.70701
2.68379
2.65011
2.59006
2.50353
2.4365
2.40498
2.38308
2.36986
2.33067
4.9993
4.18279
3.4762
2.9093
2.48089
2.09933
1.80975
1.61827
1.45603
1.287
1.17235
1.09905
0.988479
0.907107
0.881494
0.858958
0.828722
0.810797
0.802034
0.807949
0.828664
0.868691
0.937706
1.01812
1.09536
1.15868
1.21771
1.46246
2.14723
2.94902
3.19422
3.29815
3.81666
4.95711
5.82979
5.99093
5.96787
5.85996
5.83258
5.78124
5.72551
5.622
5.48005
5.39409
5.34
5.31205
5.28122
5.22409
5.14881
5.03502
4.89424
4.78384
4.71517
4.66043
4.61334
4.55526
4.47998
4.37565
4.25103
4.1589
4.10479
4.0617
4.02714
3.98713
3.93316
3.84231
3.72536
3.6416
3.5857
3.53325
3.48259
3.43983
3.40169
3.35604
3.29323
3.22126
3.16482
3.11656
3.06255
3.00195
2.94439
2.89643
2.84911
2.79433
2.74557
2.71313
2.68529
2.65366
2.61319
2.5632
2.51173
2.46406
2.41909
2.38055
2.35808
2.31475
5.20751
4.47958
3.86387
3.32059
2.8471
2.48554
2.17143
1.9112
1.72703
1.56982
1.40093
1.28879
1.20158
1.09513
1.00367
0.970371
0.941953
0.899865
0.839124
0.816601
0.819599
0.820263
0.829845
0.858073
0.916894
1.00549
1.23864
1.93842
2.70314
3.00278
3.14946
3.18619
3.25687
3.64798
4.64057
5.59659
5.78814
5.79762
5.79389
5.73407
5.68082
5.62209
5.51755
5.4038
5.32359
5.2666
5.23236
5.17905
5.10944
5.03319
4.92745
4.79718
4.69353
4.63349
4.58149
4.52263
4.4591
4.38709
4.28943
4.1755
4.09937
4.05803
4.01921
3.97279
3.91548
3.84041
3.73563
3.61982
3.54487
3.49993
3.46388
3.43714
3.41371
3.37887
3.32404
3.22856
3.12597
3.05633
3.00483
2.96503
2.93605
2.90995
2.87913
2.83321
2.76521
2.69976
2.65241
2.60969
2.56996
2.53781
2.51129
2.48266
2.44459
2.39357
2.35189
2.29427
5.35982
4.72091
4.16658
3.64091
3.16875
2.82148
2.50417
2.2137
1.98306
1.82346
1.64878
1.48808
1.39674
1.30967
1.18139
1.09681
1.08085
1.05273
0.978996
0.90863
0.880251
0.860419
0.842767
0.844665
0.861372
1.00002
1.60164
2.29266
2.60454
2.68922
2.75986
2.86132
2.97304
3.12999
3.46906
4.34848
5.30158
5.59739
5.67293
5.64102
5.61974
5.56741
5.52454
5.4568
5.34091
5.21923
5.13608
5.07206
5.03862
5.0024
4.93719
4.84638
4.70857
4.57445
4.49799
4.4504
4.42205
4.37439
4.31736
4.23823
4.12483
4.01296
3.94046
3.89412
3.85445
3.8084
3.74281
3.65004
3.55522
3.50058
3.46757
3.44845
3.41717
3.37359
3.31226
3.21633
3.10028
3.01668
2.97526
2.94898
2.93362
2.9163
2.89041
2.85531
2.78616
2.68504
2.61117
2.56968
2.5424
2.52176
2.50298
2.4815
2.45664
2.41267
2.34614
2.25988
5.48274
4.92079
4.40913
3.8965
3.4707
3.11418
2.78335
2.474
2.25997
2.06021
1.8707
1.6843
1.5774
1.49359
1.39998
1.28722
1.18723
1.15031
1.10468
1.02994
0.970126
0.925222
0.885847
0.884069
0.993464
1.4526
2.16609
2.32395
2.34095
2.33465
2.35304
2.46288
2.60244
2.71098
2.82445
3.09856
3.83042
4.8709
5.36027
5.52364
5.53117
5.49633
5.48354
5.44431
5.36453
5.20927
5.05921
4.98638
4.94045
4.94036
4.91574
4.84878
4.74091
4.56581
4.44516
4.39065
4.35048
4.33816
4.30416
4.24674
4.15505
4.01158
3.90035
3.84226
3.7988
3.7597
3.72021
3.6729
3.61035
3.53253
3.46112
3.40333
3.35217
3.3029
3.24979
3.1878
3.11058
3.03794
2.99024
2.96025
2.9357
2.91396
2.88612
2.84072
2.76702
2.66968
2.59581
2.55989
2.5374
2.52015
2.50871
2.49465
2.47167
2.42077
2.33207
2.23534
5.58641
5.08412
4.60371
4.11959
3.72483
3.37581
3.03143
2.72183
2.49478
2.28252
2.08475
1.91089
1.77269
1.63584
1.55113
1.47792
1.36819
1.26297
1.21796
1.17292
1.0996
1.03179
1.01463
1.10287
1.52698
2.18422
2.43317
2.39767
2.34701
2.32789
2.32187
2.29641
2.29122
2.30664
2.34809
2.40834
2.58916
3.18568
4.20185
5.09755
5.2966
5.35633
5.42751
5.40006
5.33625
5.2252
5.0395
4.91701
4.85924
4.83833
4.8568
4.80701
4.72916
4.60615
4.43669
4.34149
4.2938
4.26556
4.25272
4.20843
4.14676
4.0489
3.90795
3.808
3.75716
3.71799
3.68914
3.66147
3.61807
3.55795
3.46853
3.3764
3.30765
3.25054
3.19496
3.14688
3.11061
3.0739
3.02704
2.97338
2.92645
2.88064
2.83067
2.77744
2.71645
2.65505
2.60874
2.57541
2.54948
2.52496
2.49994
2.4686
2.42831
2.37708
2.31368
2.24143
5.67071
5.21373
4.76248
4.32174
3.93751
3.58925
3.24161
2.95968
2.72078
2.49443
2.26472
2.10642
1.97542
1.8281
1.68126
1.61342
1.54098
1.42112
1.32438
1.27335
1.22193
1.17787
1.26862
1.7024
2.37698
2.6287
2.57225
2.49867
2.46031
2.43307
2.40027
2.34347
2.27672
2.26026
2.25263
2.26331
2.26562
2.30446
2.60284
3.42839
4.43792
4.96457
5.19807
5.31028
5.29071
5.20483
5.0775
4.91019
4.81029
4.75959
4.73339
4.72711
4.68392
4.60592
4.48529
4.34141
4.25764
4.20886
4.16886
4.14619
4.10883
4.04737
3.95075
3.82546
3.73328
3.68409
3.64762
3.62095
3.59056
3.54372
3.47126
3.37288
3.27791
3.21137
3.16896
3.14118
3.11917
3.08941
3.04047
2.96967
2.9013
2.84368
2.79247
2.73813
2.68797
2.65483
2.62327
2.58772
2.55513
2.52641
2.48964
2.44279
2.3921
2.33551
2.29739
2.2541
5.74739
5.32203
4.89731
4.48549
4.12558
3.78242
3.43939
3.16506
2.92175
2.69309
2.46345
2.29575
2.14865
2.00803
1.84627
1.74667
1.67444
1.58292
1.4631
1.36821
1.34804
1.47158
2.00481
2.70677
2.92143
2.84745
2.73745
2.66592
2.64015
2.60464
2.54973
2.48219
2.38061
2.29156
2.25867
2.24025
2.22279
2.22911
2.20473
2.27255
2.69712
3.59142
4.45018
4.9086
5.1138
5.14952
5.074
4.97801
4.83303
4.71832
4.66082
4.61212
4.57948
4.5469
4.48736
4.39796
4.27298
4.17239
4.11688
4.07063
4.02957
3.99334
3.94324
3.86661
3.76537
3.67259
3.60874
3.56172
3.52276
3.48563
3.4414
3.37482
3.29403
3.22633
3.17856
3.13876
3.09762
3.04968
2.99845
2.93984
2.87011
2.81055
2.76339
2.72771
2.70117
2.67153
2.63537
2.59607
2.55013
2.49916
2.455
2.41245
2.3655
2.31983
2.29634
2.25746
5.80412
5.40214
4.99598
4.62515
4.2865
3.93937
3.61586
3.36015
3.11438
2.8627
2.64939
2.48172
2.31393
2.16015
2.02134
1.9048
1.79025
1.68541
1.59295
1.5459
1.68801
2.27669
3.07226
3.27711
3.1923
3.05428
2.91099
2.83882
2.80667
2.7613
2.70268
2.64065
2.5502
2.42846
2.347
2.29568
2.25398
2.21987
2.1923
2.17747
2.15015
2.26766
2.78039
3.68571
4.44049
4.84851
4.96544
4.99158
4.90303
4.77778
4.6146
4.53119
4.48395
4.45728
4.4409
4.3956
4.32034
4.20195
4.08267
4.01092
3.9642
3.92327
3.88875
3.85012
3.79134
3.70285
3.60054
3.52474
3.47457
3.43062
3.38577
3.34457
3.30287
3.25417
3.19459
3.13223
3.07621
3.02473
2.96709
2.89417
2.82495
2.78024
2.75394
2.73748
2.71873
2.68943
2.64482
2.57784
2.50325
2.4502
2.413
2.38167
2.35494
2.33637
2.31652
2.26432
5.84758
5.47223
5.09373
4.75078
4.4262
4.08921
3.79184
3.53273
3.28253
3.02417
2.83108
2.65442
2.4803
2.29899
2.17239
2.05855
1.92233
1.80469
1.77044
1.96819
2.57559
3.39708
3.60582
3.50684
3.38888
3.25624
3.10077
3.01209
2.96648
2.92672
2.86722
2.80109
2.71834
2.59971
2.482
2.40886
2.35411
2.29881
2.24633
2.19818
2.15741
2.11062
2.09068
2.26532
2.89008
3.77304
4.4262
4.74787
4.84923
4.82095
4.66214
4.48719
4.41351
4.38057
4.37326
4.35667
4.31131
4.2371
4.10894
3.97824
3.90811
3.86678
3.82991
3.79566
3.76093
3.71056
3.62975
3.52703
3.4429
3.39063
3.35384
3.32269
3.29195
3.25179
3.18746
3.11637
3.05724
3.00346
2.94114
2.86308
2.80489
2.78158
2.77075
2.75518
2.73006
2.69716
2.64415
2.56462
2.4766
2.41739
2.38289
2.36137
2.34731
2.33779
2.3215
2.26684
5.89428
5.54073
5.18988
4.86515
4.54654
4.22394
3.94583
3.69
3.43346
3.18372
2.99078
2.8067
2.62975
2.4523
2.31479
2.17283
2.04363
2.05364
2.33222
3.03668
3.61893
3.88267
3.81028
3.71348
3.61784
3.49454
3.31706
3.18392
3.11833
3.06197
2.99555
2.92293
2.84674
2.75269
2.62363
2.51271
2.45108
2.39759
2.34402
2.28945
2.23196
2.16994
2.08972
2.02914
2.04728
2.31824
3.01292
3.81667
4.44059
4.61231
4.64418
4.51819
4.39183
4.34326
4.31358
4.29606
4.25858
4.20834
4.12627
3.99994
3.88421
3.82338
3.78447
3.74845
3.71154
3.6728
3.62109
3.53668
3.43896
3.37539
3.33402
3.29429
3.24785
3.19067
3.13147
3.07866
3.03104
2.98181
2.93034
2.87932
2.82924
2.77137
2.72176
2.69321
2.67147
2.64951
2.6178
2.55557
2.46172
2.39949
2.37953
2.37112
2.36659
2.35064
2.33062
2.26681
5.93041
5.59862
5.27779
4.96353
4.64635
4.34774
4.08675
3.82975
3.56252
3.33855
3.14413
2.95909
2.75891
2.58638
2.44663
2.29913
2.35228
2.8094
3.68748
4.14306
4.21916
4.08763
3.97837
3.9111
3.82447
3.70567
3.54119
3.36538
3.26525
3.19303
3.12061
3.04427
2.96838
2.88637
2.78034
2.65678
2.55905
2.48658
2.42539
2.36877
2.31205
2.24844
2.17387
2.08858
1.99978
1.97747
2.02738
2.36133
3.09056
3.80459
4.29875
4.37497
4.41339
4.36458
4.2943
4.23977
4.18302
4.1289
4.07783
4.0036
3.89738
3.80761
3.75953
3.71997
3.67859
3.63419
3.5819
3.5126
3.4276
3.35776
3.30881
3.26301
3.21347
3.16005
3.10217
3.03529
2.9767
2.93989
2.91171
2.88641
2.84619
2.77022
2.69698
2.65518
2.62165
2.58883
2.55413
2.51609
2.47152
2.42614
2.38047
2.34683
2.32273
2.30389
2.28657
2.23209
5.99615
5.6755
5.36578
5.05775
4.7481
4.46975
4.20905
3.95548
3.69416
3.48775
3.28803
3.08857
2.87989
2.72228
2.57917
2.68761
3.261
4.29451
4.76339
4.62942
4.44637
4.24111
4.12633
4.07235
3.99452
3.87988
3.73993
3.56304
3.42217
3.33245
3.25082
3.1682
3.08391
2.99451
2.89192
2.7727
2.66371
2.58471
2.51837
2.4534
2.39253
2.33171
2.26625
2.18473
2.09018
1.99672
1.95172
1.94438
2.0285
2.40257
3.11061
3.75182
4.12262
4.22871
4.24733
4.20796
4.1253
4.06929
4.01252
3.95249
3.87323
3.78283
3.73182
3.69498
3.6546
3.60812
3.55164
3.47674
3.38607
3.31104
3.26145
3.22187
3.18519
3.14689
3.09567
3.02089
2.94877
2.9146
2.89739
2.87771
2.83966
2.77038
2.69438
2.63254
2.58645
2.54613
2.51067
2.48433
2.46568
2.44138
2.39317
2.33409
2.29669
2.26854
2.24554
2.19672
6.02897
5.72815
5.42902
5.12346
4.8377
4.58063
4.32217
4.05968
3.826
3.62053
3.41849
3.19259
3.01287
2.89518
3.09596
3.85536
4.67497
5.20238
5.1568
4.92906
4.65921
4.42634
4.31769
4.25322
4.16796
4.0528
3.91899
3.75616
3.59462
3.47613
3.38048
3.28884
3.19682
3.10259
3.00126
2.88512
2.76323
2.66723
2.59537
2.53059
2.46885
2.40736
2.34404
2.27144
2.18319
2.08197
1.99911
1.93592
1.91925
1.9213
2.02561
2.44574
3.07877
3.64471
3.97373
4.04602
4.0706
4.04228
3.99187
3.92085
3.82072
3.72255
3.67229
3.64576
3.61856
3.58671
3.54427
3.47315
3.35585
3.23768
3.18191
3.15386
3.13011
3.10636
3.07726
3.03322
2.97432
2.91153
2.84899
2.78955
2.74882
2.72386
2.68699
2.63918
2.58306
2.52429
2.48971
2.47557
2.46667
2.44363
2.397
2.33697
2.28625
2.24267
2.2066
2.15981
6.0659
5.7817
5.49745
5.20514
4.9415
4.68604
4.43018
4.17258
3.95042
3.74557
3.52108
3.31107
3.27413
3.63875
4.68855
5.34791
5.48343
5.46635
5.30398
5.13706
4.94095
4.71079
4.54082
4.42808
4.32374
4.20313
4.06991
3.92112
3.76176
3.62009
3.50934
3.41046
3.31316
3.21499
3.11246
2.99854
2.86969
2.75034
2.66208
2.59051
2.52683
2.46683
2.40529
2.33865
2.25942
2.16845
2.08272
2.01202
1.95558
1.90679
1.8804
1.88511
1.99486
2.38618
2.96402
3.52011
3.81832
3.93655
3.95997
3.90412
3.79828
3.68441
3.59988
3.5751
3.56511
3.54588
3.51154
3.4508
3.34113
3.20633
3.13955
3.10943
3.08395
3.06024
3.03878
3.01701
2.98214
2.91539
2.82026
2.74185
2.69237
2.65668
2.63595
2.6164
2.58769
2.55135
2.50998
2.46156
2.40981
2.37701
2.35769
2.32778
2.28152
2.23321
2.19481
2.14456
6.14863
5.86243
5.57895
5.29877
5.04307
4.78966
4.53046
4.28442
4.05583
3.85219
3.63944
3.71085
4.29156
5.39342
6.25114
6.1985
5.88939
5.57217
5.41994
5.33451
5.18963
4.98439
4.76469
4.59669
4.46792
4.34459
4.21239
4.06736
3.91044
3.75278
3.62088
3.51466
3.41726
3.32131
3.22226
3.11321
2.98432
2.84715
2.73769
2.65648
2.58761
2.52408
2.4595
2.39042
2.30978
2.22189
2.13516
2.06613
2.01226
1.96057
1.91072
1.86705
1.8188
1.81453
1.9317
2.32168
2.91496
3.42029
3.72915
3.7929
3.78944
3.70814
3.59078
3.51186
3.48384
3.45223
3.4198
3.38165
3.31571
3.21634
3.12832
3.07762
3.04757
3.02439
3.00019
2.97321
2.9428
2.89463
2.81109
2.71108
2.64193
2.61355
2.59895
2.58541
2.57302
2.55754
2.52485
2.45984
2.3846
2.3307
2.29564
2.26772
2.24572
2.22437
2.1989
2.14524
6.21606
5.92868
5.64184
5.38251
5.12967
4.86773
4.62386
4.37156
4.17915
4.02538
4.25424
5.15816
6.10687
6.6713
6.70675
6.46083
6.12006
5.78422
5.61242
5.52119
5.38872
5.2017
4.98145
4.77128
4.61743
4.48237
4.34568
4.20227
4.05037
3.88914
3.73633
3.6111
3.50561
3.4085
3.31177
3.20859
3.09049
2.9575
2.83099
2.72926
2.6483
2.57791
2.50872
2.43755
2.35936
2.27486
2.18472
2.10556
2.04494
1.99432
1.95283
1.9042
1.85251
1.79828
1.73778
1.74456
1.9101
2.31964
2.89511
3.3384
3.60583
3.62087
3.5941
3.51434
3.42492
3.37672
3.34508
3.31185
3.26728
3.21481
3.15145
3.07994
3.02618
2.99491
2.96717
2.94084
2.91001
2.86026
2.78792
2.71068
2.65265
2.60726
2.57213
2.55432
2.543
2.53161
2.50903
2.45811
2.37624
2.29448
2.25037
2.23053
2.21417
2.19919
2.18307
2.14501
6.21455
6.00831
5.70769
5.46999
5.20914
4.94464
4.70685
4.49869
4.50156
5.02238
6.26136
7.12346
7.19474
7.11716
6.87687
6.63701
6.39653
6.10211
5.86546
5.70297
5.55426
5.38015
5.18218
4.97715
4.78838
4.62262
4.47001
4.3192
4.16709
4.01111
3.85501
3.71305
3.58957
3.4797
3.37551
3.26954
3.15812
3.04246
2.92682
2.81752
2.72046
2.63525
2.55589
2.48007
2.40375
2.32609
2.24339
2.16195
2.09017
2.02995
1.97937
1.93275
1.88844
1.82676
1.75893
1.70324
1.67497
1.70489
1.90159
2.33516
2.8882
3.25723
3.40338
3.40552
3.36739
3.31922
3.28207
3.25868
3.23732
3.20979
3.15607
3.073
3.01902
2.98644
2.9488
2.89725
2.8339
2.7868
2.75428
2.7124
2.66859
2.61493
2.56687
2.5387
2.51593
2.49081
2.46575
2.43273
2.36489
2.27873
2.23197
2.21152
2.19577
2.17764
2.17419
2.16297
5.7154
6.06461
5.80991
5.55309
5.26652
5.05119
4.8558
5.11733
6.03906
7.27667
8.03736
7.86473
7.49231
7.26125
7.06158
6.89352
6.68936
6.42337
6.14585
5.93424
5.74976
5.56222
5.36663
5.16056
4.95592
4.76962
4.60058
4.43985
4.28168
4.12562
3.97165
3.82359
3.6838
3.55487
3.43821
3.32882
3.22093
3.1132
3.00569
2.89532
2.78674
2.68716
2.59716
2.51584
2.43845
2.36324
2.28758
2.21273
2.14209
2.07875
2.01979
1.96371
1.90507
1.84167
1.77537
1.71557
1.67164
1.65135
1.63847
1.69187
1.90339
2.34055
2.79601
3.17115
3.22542
3.24482
3.25033
3.21034
3.15585
3.09905
3.03667
3.0215
3.00834
2.97775
2.93004
2.86177
2.79769
2.74116
2.69919
2.68551
2.66305
2.6239
2.57865
2.53809
2.50341
2.4693
2.42752
2.36985
2.30847
2.25738
2.22686
2.20012
2.19155
2.18322
2.19284
2.34169
3.92106
5.78137
5.8987
5.65642
5.36459
5.32682
5.98464
7.3798
8.30852
8.73303
8.60257
8.16731
7.7084
7.43911
7.28048
7.13221
6.92676
6.6612
6.37974
6.14321
5.9424
5.74479
5.53931
5.32478
5.10553
4.90026
4.7183
4.55211
4.39141
4.23422
4.0801
3.92825
3.77636
3.62921
3.49946
3.38942
3.28812
3.18473
3.07491
2.96158
2.8462
2.73535
2.63718
2.55212
2.47469
2.40103
2.32741
2.2545
2.18499
2.12123
2.05892
1.99722
1.93862
1.88873
1.83832
1.79269
1.74131
1.68159
1.62232
1.59491
1.58534
1.66328
1.87213
2.29826
2.6862
3.00917
3.15519
3.17085
3.15283
3.08903
3.01423
2.96545
2.9162
2.86522
2.82776
2.80153
2.76703
2.71598
2.66937
2.62629
2.58726
2.5543
2.51824
2.47532
2.43201
2.3943
2.35898
2.31988
2.28315
2.25362
2.23478
2.2191
2.22322
2.29037
2.47069
2.9496
1.69991
4.46177
5.71666
5.65204
5.96539
7.19017
8.86952
9.41585
9.15453
8.99406
8.74749
8.40846
8.01419
7.71825
7.56684
7.39524
7.15995
6.87889
6.59323
6.34676
6.13243
5.92272
5.70502
5.47748
5.24315
5.02187
4.82723
4.65513
4.49581
4.34003
4.18348
4.02526
3.8648
3.70242
3.54686
3.4154
3.31788
3.24155
3.14983
3.02559
2.90372
2.79185
2.69283
2.60512
2.52278
2.44165
2.36074
2.28367
2.21134
2.14493
2.08201
2.02329
1.96625
1.91019
1.85186
1.79448
1.73876
1.68488
1.63878
1.59607
1.56357
1.54346
1.53329
1.60044
1.84293
2.2746
2.65308
2.95923
3.05849
3.04681
3.02328
2.9732
2.8986
2.82842
2.78502
2.74726
2.70463
2.65987
2.61326
2.57012
2.53966
2.51451
2.48723
2.44827
2.39197
2.33118
2.28713
2.26266
2.25691
2.25716
2.26317
2.32682
2.49235
2.84453
3.23803
3.56098
1.04371
2.14448
4.40931
6.12908
8.91102
10.1212
10.4637
10.0612
9.55042
9.10941
8.85909
8.61314
8.28376
7.97738
7.80227
7.60396
7.34941
7.06413
6.77979
6.51712
6.28407
6.06649
5.8443
5.61331
5.37399
5.13709
4.9222
4.73699
4.57603
4.42631
4.27826
4.12019
3.95187
3.79402
3.64649
3.50468
3.37485
3.25265
3.17839
3.1193
3.029
2.91593
2.80494
2.70575
2.61418
2.52559
2.43969
2.35984
2.28536
2.21582
2.15021
2.08782
2.02329
1.95572
1.88264
1.81514
1.75847
1.71359
1.67725
1.63674
1.59125
1.53304
1.49445
1.45686
1.46678
1.57341
1.88986
2.32698
2.63464
2.7952
2.90317
2.88738
2.84973
2.8091
2.76837
2.724
2.67786
2.62948
2.57769
2.53958
2.51309
2.48717
2.45183
2.40252
2.34053
2.28575
2.25927
2.25628
2.27347
2.37927
2.61249
2.95622
3.31657
3.66316
3.81405
3.8359
1.00071
1.10203
2.52681
8.66418
11.9925
11.314
10.8078
10.2199
9.68246
9.29108
9.0763
8.89692
8.62853
8.31286
8.09919
7.87654
7.60803
7.32508
7.04181
6.76966
6.52055
6.28975
6.05986
5.82414
5.58163
5.33904
5.11469
4.91855
4.74267
4.58387
4.43221
4.27249
4.07891
3.84595
3.69183
3.59774
3.48124
3.34993
3.21987
3.09796
2.98866
2.88247
2.77976
2.68301
2.59321
2.50805
2.42496
2.34553
2.26975
2.19823
2.12954
2.06278
1.99758
1.93784
1.88155
1.82401
1.76909
1.72114
1.67775
1.62551
1.56855
1.51823
1.48508
1.45316
1.43345
1.4115
1.44583
1.58576
1.91356
2.28585
2.62551
2.68047
2.71871
2.73163
2.7126
2.67407
2.6249
2.56848
2.52384
2.4949
2.4707
2.44182
2.40306
2.36617
2.32697
2.28675
2.29577
2.38882
2.63006
3.07475
3.505
3.80971
3.94731
3.90933
3.86639
3.83892
1
1.00191
2.48614
10.5663
12.2921
11.2441
10.5665
10.0984
9.73658
9.45249
9.24796
9.11902
8.84274
8.50529
8.2671
8.03083
7.74847
7.4418
7.13417
6.84598
6.5816
6.34107
6.10626
5.86233
5.61162
5.36485
5.13543
4.9311
4.74665
4.57035
4.3962
4.22649
4.07932
3.95266
3.8003
3.62808
3.467
3.33161
3.20895
3.09532
2.99679
2.90426
2.8108
2.71591
2.62702
2.5468
2.47018
2.39141
2.30912
2.22914
2.15277
2.07991
2.01166
1.9538
1.90547
1.85898
1.80587
1.75024
1.70109
1.64816
1.58937
1.53065
1.49599
1.47405
1.44229
1.40048
1.37714
1.36169
1.41233
1.56918
1.88476
2.22055
2.51327
2.65477
2.67254
2.65489
2.60714
2.54012
2.4781
2.4218
2.3906
2.3664
2.36398
2.36177
2.38271
2.47866
2.70945
3.12099
3.56047
3.94325
4.06639
4.12625
4.1182
4.03331
3.91343
3.82552
1
1.00002
3.48768
10.4198
11.2994
10.8323
10.5638
10.2871
10.0119
9.75346
9.51804
9.30885
8.98904
8.66793
8.4315
8.19591
7.89157
7.54055
7.21862
6.94754
6.68707
6.43781
6.19442
5.94537
5.69019
5.43975
5.20734
4.99884
4.807
4.62095
4.43444
4.25059
4.08535
3.94238
3.81011
3.66194
3.50765
3.36311
3.2333
3.11845
3.01283
2.91118
2.81282
2.71571
2.6211
2.52993
2.44369
2.36455
2.29107
2.22345
2.15838
2.0938
2.02493
1.95151
1.88027
1.82056
1.77201
1.72807
1.69022
1.66127
1.6325
1.58749
1.52345
1.45628
1.4145
1.38664
1.35553
1.3288
1.30752
1.3113
1.36781
1.56643
1.91989
2.23391
2.48187
2.59779
2.58762
2.55859
2.50038
2.42331
2.385
2.37208
2.39892
2.54176
2.84188
3.23157
3.6839
3.99023
4.14727
4.14227
4.13203
4.1319
4.10974
4.05011
3.986
3.89482
1
1
3.95862
10.2192
10.8469
10.7275
10.5866
10.3502
10.0923
9.8489
9.62493
9.38889
9.09705
8.8179
8.6005
8.36268
8.04315
7.67659
7.32608
7.04949
6.78895
6.53188
6.28105
6.02291
5.7536
5.4927
5.25472
5.04016
4.84251
4.65619
4.47753
4.3056
4.14233
3.98681
3.83417
3.68196
3.53396
3.3948
3.2645
3.145
3.03328
2.92534
2.82207
2.72197
2.62762
2.53828
2.45337
2.37446
2.30105
2.23341
2.16695
2.09969
2.02824
1.95352
1.88435
1.82499
1.77732
1.73785
1.70051
1.65843
1.6153
1.5712
1.51435
1.45301
1.41314
1.38685
1.35863
1.33115
1.29962
1.27293
1.23766
1.24662
1.34047
1.61536
1.98667
2.2881
2.40924
2.46404
2.46394
2.44424
2.48248
2.60932
2.89875
3.33711
3.81356
4.0955
4.29443
4.30954
4.26047
4.20493
4.13156
4.07736
4.03066
3.98891
3.94675
3.86826
1
1
3.95489
10.1688
10.7686
10.667
10.5401
10.3308
10.1175
9.89674
9.67096
9.42352
9.15555
8.90386
8.65974
8.34024
7.97403
7.63205
7.33672
7.09089
6.84485
6.56742
6.2902
6.00882
5.74552
5.51337
5.30182
5.10131
4.90471
4.70833
4.51277
4.32455
4.15021
3.98883
3.83724
3.69362
3.55688
3.42466
3.29226
3.16148
3.03494
2.91637
2.811
2.7155
2.62892
2.54653
2.46629
2.38655
2.30598
2.22949
2.15744
2.09013
2.0236
1.95625
1.89392
1.84016
1.79589
1.75354
1.70971
1.66406
1.61635
1.56249
1.50269
1.45209
1.41921
1.39302
1.36492
1.33547
1.30652
1.26929
1.22717
1.18046
1.17413
1.21633
1.3754
1.69751
2.09676
2.34093
2.47234
2.70875
3.05019
3.36468
3.69916
3.97273
4.22528
4.38322
4.38642
4.30454
4.18541
4.11529
4.09258
4.06989
4.03483
4.00824
3.97566
3.87587
1
1
3.86122
10.2309
10.6662
10.5649
10.4558
10.29
10.1187
9.92414
9.71705
9.49344
9.25857
9.00972
8.72598
8.41263
8.08356
7.7658
7.48018
7.20983
6.89762
6.58053
6.27438
5.99739
5.76176
5.54662
5.34217
5.14164
4.93768
4.72798
4.51804
4.32032
4.14357
3.98541
3.84012
3.70332
3.57126
3.43895
3.30133
3.16258
3.02879
2.90659
2.8031
2.71401
2.63519
2.55712
2.47519
2.38837
2.29997
2.21908
2.1454
2.07952
2.01908
1.96441
1.91426
1.86012
1.80605
1.7571
1.7116
1.66341
1.60935
1.54779
1.4891
1.45193
1.42601
1.40051
1.37171
1.34589
1.31942
1.28061
1.22473
1.16837
1.14197
1.1372
1.15271
1.25281
1.54662
2.08035
2.78117
3.42661
3.94458
4.43285
4.75859
4.82585
4.76121
4.6418
4.45935
4.27244
4.1067
4.04368
4.01927
4.00916
4.00249
3.98791
3.95804
3.86171
)
;

boundaryField
{
    inlet
    {
        type            fixedValue;
        value           uniform 1;
    }
    outlet
    {
        type            zeroGradient;
    }
    bottom
    {
        type            symmetryPlane;
    }
    top
    {
        type            symmetryPlane;
    }
    obstacle
    {
        type            zeroGradient;
    }
    defaultFaces
    {
        type            empty;
    }
}


// ************************************************************************* //
