/*--------------------------------*- C++ -*----------------------------------*\
  =========                 |
  \\      /  F ield         | OpenFOAM: The Open Source CFD Toolbox
   \\    /   O peration     | Website:  https://openfoam.org
    \\  /    A nd           | Version:  7
     \\/     M anipulation  |
\*---------------------------------------------------------------------------*/
FoamFile
{
    version     2.0;
    format      ascii;
    class       volScalarField;
    location    "3.4";
    object      T;
}
// * * * * * * * * * * * * * * * * * * * * * * * * * * * * * * * * * * * * * //

dimensions      [0 0 0 1 0 0 0];

internalField   nonuniform List<scalar> 
4032
(
1
1
1
1
1
1
1
1
1
1
1
1.09482
2.36134
2.71646
2.72664
2.7417
2.75636
2.77071
2.78346
2.79381
2.80234
2.80964
2.81602
2.82054
1
1
1
1
1
1
1
1
1
1
1
1.07652
2.34589
2.71515
2.72576
2.74031
2.75479
2.7689
2.78142
2.79146
2.79959
2.80638
2.81205
2.81605
1
1
1
1
1
1
1
1
1
1
1
1.00633
2.29692
2.71009
2.72197
2.7365
2.75076
2.76444
2.77654
2.78625
2.79428
2.80129
2.80727
2.81195
1
1
1
1
1
1
1
1
1
1
1
1.00007
2.23291
2.70024
2.71555
2.7304
2.74473
2.75804
2.76983
2.77928
2.78688
2.79317
2.79803
2.80145
1
1
1
1
1
1
1
1
1
1
1
1
2.14299
2.68708
2.70914
2.72343
2.73743
2.74992
2.76072
2.76885
2.77483
2.77973
2.78346
2.78781
1
1
1
1
1
1
1
1
1
1
1
1
2.0172
2.66308
2.69878
2.71297
2.72669
2.73846
2.74843
2.75587
2.76103
2.76445
2.76434
2.76034
1
1
1
1
1
1
1
1
1
1
1
1
1.84708
2.61668
2.68088
2.69853
2.71353
2.7251
2.73359
2.73852
2.73922
2.73575
2.72871
2.72291
1
1
1
1
1
1
1
1
1
1
1
1
1.60896
2.52975
2.65182
2.67758
2.69502
2.70742
2.71513
2.71754
2.71416
2.70855
2.7035
2.71463
1
1
1
1
1
1
1
1
1
1
1
1
1.27777
2.39898
2.62628
2.64938
2.66866
2.68267
2.69004
2.69046
2.68297
2.66467
2.61331
2.5139
1
1
1
1
1
1
1
1
1
1
1
1
1.02259
2.27512
2.62342
2.61945
2.63227
2.64762
2.65628
2.65535
2.64461
2.61312
2.5564
2.39449
1
1
1
1
1
1
1
1
1
1
1
1
1.00009
2.0661
2.59185
2.60359
2.61177
2.61672
2.62041
2.61663
2.60316
2.56646
2.50336
2.31906
1
1
1
1
1
1
1
1
1
1
1
1
0.999999
1.70478
2.50186
2.58584
2.59035
2.59243
2.58999
2.58072
2.56165
2.52426
2.45321
2.29239
1
1
1
1
1
1
1
1
1
1
1
1
1
1.2227
2.34592
2.57689
2.56901
2.56655
2.56038
2.54596
2.52177
2.48449
2.40934
2.2889
1
1
1
1
1
1
1
1
1
1
1
1
1
1.01317
2.16801
2.52197
2.53658
2.53735
2.53059
2.51456
2.48869
2.44668
2.37692
2.28533
1
1
1
1
1
1
1
1
1
1
1
1
1
1
1.7518
2.42597
2.51556
2.51424
2.50574
2.48721
2.46043
2.41583
2.35456
2.28101
1
1
1
1
1
1
1
1
1
1
1
1
1
0.999995
1.16056
2.25988
2.50112
2.48667
2.47595
2.45652
2.43103
2.39014
2.33809
2.27665
1
1
1
1
1
1
1
1
1
1
1
1
1
0.999999
1.00625
2.03382
2.43909
2.44599
2.43952
2.42502
2.40277
2.3684
2.32421
2.27145
1
1
1
1
1
1
1
1
1
1
1
1
1
1
0.999985
1.48848
2.30365
2.42442
2.41051
2.39659
2.37684
2.34729
2.30974
2.26464
1
1
1
1
1
1
1
1
1
1
1
1
1
1
0.999995
1.05981
2.09203
2.39043
2.37557
2.36634
2.34948
2.32412
2.29258
2.25477
1
1
1
1
1
1
1
1
1
1
1
1
1
1
0.999999
1.00066
1.58235
2.25222
2.35314
2.33914
2.3228
2.30149
2.27552
2.24328
1
1
1
1
1
1
1
1
1
1
1
1
1
1
1
1
1.09379
2.04048
2.32646
2.3136
2.29996
2.28005
2.25648
2.22768
1
1
1
1
1
1
1
1
1
1
1
1
1
1
1
1
1.0018
1.49954
2.16812
2.29036
2.2728
2.25479
2.23387
2.20893
1
1
1
1
1
1
1
1
1
1
1
1
1
1
1
1
1
1.06956
1.94175
2.26472
2.24746
2.2309
2.21161
2.18991
1
1
1
1
1
1
1
1
1
1
1
1
1
1
1
1
1
1.00108
1.38645
2.08704
2.22522
2.20499
2.18848
2.1699
1
1
1
1
1
1
1
1
1
1
1
1
1
1
1
1
1
1
1.03729
1.75642
2.17971
2.18159
2.169
2.15308
1
1
1
1
1
1
1
1
1
1
1
1
1
1
1
1
1
1
1.00043
1.21678
1.96911
2.16434
2.14763
2.13114
1
1
1
1
1
1
1
1
1
1
1
1
1
1
1
1
1
1
1
1.01081
1.49904
2.03511
2.13243
2.11279
1
1
1
1
1
1
1
1
1
1
1
1
1
1
1
1
1
1
1
1.00009
1.07364
1.74449
2.0788
2.10052
1
1
1
1
1
1
1
1
1
1
1
1
1
1
1
1
1
1
1
1
1.00152
1.23305
1.87
2.07498
1
1
1
1
1
1
1
1
1
1
1
1
1
1
1
1
1
1
1
1
1.00001
1.01325
1.41619
1.93131
1
1
1
1
1
1
1
1
1
1
1
1
1
1
1
1
1
1
1
1
1
1.00013
1.0518
1.58247
1
1
1
1
1
1
1
1
1
1
1
1
1
1
1
1
1
1
1
1
1
1
1.00099
1.13003
1
1
1
1
1
1
1
1
1
1
1
1
1
1
1
1
1
1
1
1
1
1
1
1.0047
1
1
1
1
1
1
1
1
1
1
1
1
1
1
1
1
1
1
1
1
1
1
1
1.00004
1
1
1
1
1
1
1
1
1
1
1
1
1
1
1
1
1
1
1
1
1
1
1
1
1
1
1
1
1
1
1
1
1
1
1
1
1
1
1
1
1
1
1
1
1
1
1
1
1
1
1
1
1
1
1
1
1
1
1
1
1
1
1
1
1
1
1
1
1
1
1
1
1
1
1
1
1
1
1
1
1
1
1
1
1
1
1
1
1
1
1
1
1
1
1
1
1
1
1
1
1
1
1
1
1
1
1
1
1
1
1
1
1
1
1
1
1
1
1
1
1
1
1
1
1
1
1
1
1
1
1
1
1
1
1
1
1
1
1
1
1
1
1
1
1.69032
1.13729
0.94248
1.05422
1.22463
1.30422
1.38
1.42478
1.46574
1.52535
1.63078
1.73267
1.74803
1.73287
1.71187
1.711
1.72982
1.74728
1.74653
1.7307
1.70661
1.70476
1.70966
1.71426
1.71326
1.70792
1.70227
1.70057
1.69932
1.69729
2.37527
2.86064
2.85355
2.83715
2.81739
2.79818
2.77992
2.76254
2.74479
2.72615
2.70523
2.68177
2.65613
2.63124
2.61032
2.59503
2.58551
2.5779
2.56253
2.53715
2.5085
2.48191
2.46141
2.44891
2.4435
2.43477
2.42077
2.40439
2.3857
2.36753
2.35157
2.33843
2.3295
2.31962
2.30524
2.2902
2.27265
2.25407
2.23914
2.22831
2.2193
2.21297
2.20821
2.19803
2.18429
2.16616
2.14442
2.12692
2.11574
2.10816
2.10368
2.10058
2.0952
2.0872
2.07316
2.0529
2.0353
2.02263
2.01187
2.00397
1.99832
1.99103
1.98378
1.97225
1.95671
1.93961
1.94635
1.63991
1.39199
1.34464
1.35358
1.34635
1.30433
1.25808
1.26855
1.31347
1.38418
1.44451
1.49569
1.52918
1.54542
1.56631
1.60308
1.64532
1.65883
1.66006
1.65706
1.65848
1.66236
1.6653
1.66753
1.66881
1.67125
1.67045
1.66837
1.66559
2.26968
2.81431
2.80961
2.79098
2.766
2.74719
2.73045
2.71233
2.69144
2.67129
2.65417
2.63944
2.62524
2.60732
2.58569
2.56441
2.5453
2.53093
2.52165
2.51095
2.49467
2.47416
2.45302
2.4348
2.41777
2.40299
2.39249
2.3836
2.37169
2.35703
2.34082
2.32541
2.31106
2.2976
2.28757
2.27706
2.26522
2.25264
2.23783
2.22222
2.20973
2.20036
2.19125
2.18299
2.17347
2.16028
2.14543
2.12894
2.11361
2.1023
2.09462
2.08824
2.08265
2.07646
2.06714
2.05393
2.03829
2.02269
2.00982
1.99957
1.99082
1.98378
1.97671
1.96822
1.95841
1.94231
2.04017
1.84072
1.6774
1.54153
1.46379
1.40495
1.34679
1.28328
1.24503
1.25747
1.28305
1.30356
1.32901
1.3616
1.38809
1.41174
1.44727
1.49529
1.53133
1.55996
1.58185
1.59429
1.5958
1.59579
1.59626
1.59861
1.60418
1.60518
1.60551
1.61879
2.01984
2.65221
2.69978
2.65306
2.62848
2.61965
2.61545
2.61128
2.59624
2.57421
2.55374
2.5392
2.53187
2.52952
2.5216
2.50496
2.48339
2.45904
2.44223
2.43271
2.42784
2.42327
2.41357
2.39749
2.37609
2.35225
2.33574
2.32552
2.3197
2.31493
2.30702
2.29546
2.27823
2.25761
2.24323
2.23394
2.22932
2.2252
2.21681
2.20664
2.19169
2.17199
2.15756
2.14847
2.13947
2.13305
2.12668
2.11668
2.10486
2.08938
2.07292
2.06215
2.05532
2.04873
2.0431
2.03837
2.03113
2.02022
2.00441
1.98731
1.97446
1.96488
1.95671
1.95032
1.94648
1.93775
2.10463
1.94267
1.81144
1.70881
1.60152
1.50787
1.4653
1.41746
1.34983
1.32739
1.31224
1.28302
1.27768
1.28516
1.29545
1.30578
1.33333
1.37663
1.41723
1.44934
1.48126
1.50409
1.51152
1.5218
1.52996
1.53878
1.54893
1.54976
1.5621
1.63328
1.85277
2.34985
2.55323
2.5373
2.50998
2.48855
2.48199
2.48232
2.47778
2.46607
2.44676
2.43193
2.42365
2.42052
2.41848
2.409
2.39687
2.38143
2.36275
2.35063
2.34496
2.34206
2.33732
2.32653
2.31285
2.29519
2.2735
2.25768
2.24949
2.24534
2.24164
2.23581
2.22861
2.21634
2.19817
2.18533
2.1784
2.17374
2.16899
2.16183
2.15182
2.13648
2.11798
2.10459
2.0973
2.09232
2.08892
2.08336
2.07492
2.06334
2.04547
2.02604
2.01485
2.01087
2.00897
2.00836
2.00778
2.00238
1.9917
1.97327
1.95105
1.93697
1.92975
1.92551
1.92423
1.91796
2.15643
2.02592
1.90146
1.8101
1.72193
1.61895
1.56412
1.52271
1.46815
1.41327
1.38219
1.34385
1.29774
1.29182
1.29388
1.29563
1.29897
1.30936
1.32881
1.35696
1.39483
1.42962
1.45126
1.46825
1.47876
1.48916
1.49571
1.51504
1.5964
1.79747
1.91375
2.07299
2.3183
2.41635
2.44079
2.4252
2.40994
2.39948
2.39622
2.39101
2.38024
2.36495
2.35347
2.34544
2.34017
2.33573
2.3284
2.31941
2.30674
2.29129
2.28043
2.27359
2.26704
2.25975
2.25054
2.23908
2.22334
2.20484
2.19158
2.18415
2.17846
2.17383
2.16982
2.1645
2.15502
2.14057
2.1286
2.12141
2.11402
2.10555
2.09614
2.08581
2.07471
2.06365
2.05553
2.05034
2.04535
2.03937
2.03134
2.01977
2.0043
1.98839
1.9769
1.97226
1.97141
1.97147
1.97125
1.96867
1.96207
1.94822
1.92784
1.91128
1.90299
1.89769
1.89513
1.88849
2.18503
2.08041
1.97757
1.88387
1.80207
1.71932
1.65082
1.60066
1.55366
1.50049
1.46036
1.43227
1.38876
1.35491
1.3433
1.33332
1.31978
1.3108
1.30606
1.30862
1.31759
1.33544
1.36502
1.39634
1.42394
1.44533
1.46657
1.55248
1.75128
1.92745
1.97489
1.9928
2.08059
2.24415
2.35606
2.37892
2.37531
2.36264
2.35744
2.34988
2.34296
2.33131
2.31509
2.30495
2.2986
2.29518
2.29095
2.28299
2.27292
2.25905
2.24247
2.22969
2.22207
2.21544
2.20877
2.19971
2.18808
2.17269
2.1546
2.14171
2.13517
2.13073
2.12797
2.12449
2.11875
2.10682
2.08942
2.07624
2.06732
2.05869
2.05047
2.04414
2.03913
2.03315
2.02417
2.01306
2.00392
1.99561
1.98562
1.97406
1.96346
1.95562
1.94884
1.94145
1.93581
1.93337
1.93158
1.9285
1.92218
1.91217
1.90067
1.88935
1.87844
1.86934
1.86432
1.85628
2.19928
2.11197
2.02923
1.94655
1.86449
1.79532
1.72977
1.66864
1.62154
1.57967
1.5297
1.49227
1.46166
1.42366
1.3889
1.3756
1.36406
1.34646
1.31902
1.30769
1.30884
1.30918
1.31391
1.32596
1.35071
1.38705
1.47786
1.70205
1.88282
1.93974
1.96529
1.96876
1.97878
2.0438
2.19254
2.31287
2.33448
2.33538
2.33461
2.32743
2.32078
2.31349
2.30081
2.28737
2.2779
2.27095
2.2663
2.25912
2.24986
2.23969
2.2264
2.21034
2.19754
2.1902
2.1831
2.17432
2.16426
2.15283
2.13845
2.12227
2.11195
2.10726
2.10309
2.09793
2.09109
2.08094
2.06557
2.04749
2.03534
2.02804
2.02207
2.01805
2.0149
2.00996
2.00161
1.98604
1.96853
1.95651
1.94735
1.94001
1.93478
1.93061
1.9263
1.92001
1.91014
1.9008
1.89482
1.88944
1.88381
1.8787
1.87388
1.86788
1.85935
1.84778
1.83839
1.82656
2.20601
2.1332
2.06331
1.98895
1.91383
1.85394
1.7937
1.73304
1.68023
1.64179
1.59525
1.54876
1.52115
1.4941
1.45134
1.41993
1.41331
1.40234
1.37368
1.34449
1.33152
1.32249
1.31468
1.31559
1.3233
1.38714
1.61576
1.79356
1.85767
1.87282
1.88342
1.89889
1.9167
1.94219
1.99932
2.13645
2.26365
2.29688
2.30732
2.30429
2.30243
2.29592
2.28996
2.28146
2.26742
2.25241
2.24208
2.23393
2.22949
2.2243
2.21503
2.203
2.18539
2.16796
2.15805
2.15122
2.1464
2.13855
2.12946
2.11774
2.10166
2.08609
2.07687
2.07139
2.06671
2.06057
2.05092
2.03651
2.02119
2.01217
2.0067
2.00365
1.99865
1.9918
1.982
1.9661
1.9462
1.93141
1.92407
1.91935
1.91673
1.91407
1.91032
1.90528
1.89409
1.8768
1.86477
1.859
1.85574
1.85329
1.85061
1.8469
1.84209
1.83281
1.81822
1.79906
2.20989
2.14811
2.08654
2.01797
1.9556
1.89889
1.84123
1.78162
1.73772
1.69347
1.64777
1.59905
1.56993
1.54607
1.51832
1.48266
1.44767
1.43402
1.41753
1.39007
1.36616
1.34691
1.32884
1.32947
1.38026
1.55971
1.76242
1.78508
1.79011
1.78695
1.78893
1.80875
1.83486
1.85293
1.87117
1.92059
2.04692
2.19736
2.25846
2.27955
2.28153
2.27742
2.27569
2.27029
2.26029
2.24143
2.22309
2.21421
2.20773
2.20698
2.20277
2.19291
2.1786
2.15584
2.13991
2.13269
2.12663
2.12414
2.11835
2.10935
2.09598
2.0757
2.06029
2.05301
2.04751
2.04228
2.03641
2.02863
2.0182
2.0053
1.99362
1.98404
1.97554
1.96755
1.95907
1.94898
1.93622
1.92337
1.91462
1.90921
1.90493
1.90124
1.89676
1.8894
1.87682
1.85967
1.84688
1.84136
1.83855
1.83684
1.83606
1.83449
1.83071
1.82061
1.80188
1.77965
2.2115
2.1582
2.10251
2.04079
1.98656
1.93471
1.87855
1.82322
1.78021
1.73671
1.69306
1.65218
1.61798
1.58146
1.55758
1.53647
1.50317
1.46869
1.45322
1.43786
1.41186
1.38546
1.37893
1.41591
1.5723
1.75719
1.80598
1.79593
1.78067
1.77586
1.77548
1.76618
1.75702
1.75692
1.76208
1.77197
1.80862
1.92808
2.09519
2.21818
2.24331
2.25107
2.25931
2.25593
2.24788
2.23379
2.21053
2.1951
2.18779
2.18448
2.18587
2.17809
2.1669
2.15059
2.12817
2.11539
2.10909
2.10474
2.10231
2.09544
2.0862
2.07211
2.0519
2.03785
2.0313
2.02625
2.02211
2.01751
2.00971
1.99907
1.98409
1.9688
1.95758
1.94841
1.93936
1.93135
1.92522
1.91908
1.91103
1.90146
1.89278
1.88417
1.87504
1.86581
1.85569
1.8455
1.83766
1.83217
1.8283
1.82503
1.82176
1.81682
1.80959
1.79972
1.78691
1.7707
2.20967
2.16321
2.11321
2.05985
2.00968
1.96039
1.90653
1.85975
1.81766
1.77457
1.72699
1.69272
1.66302
1.62719
1.58855
1.5702
1.55014
1.51501
1.48428
1.46732
1.45019
1.43603
1.47208
1.6193
1.79532
1.84253
1.82851
1.80932
1.7976
1.78934
1.7798
1.76457
1.7467
1.739
1.73236
1.72987
1.72623
1.73351
1.80054
1.96334
2.12109
2.19113
2.21988
2.23414
2.23203
2.22111
2.20394
2.18257
2.16976
2.16347
2.15943
2.15725
2.15016
2.13932
2.12355
2.10434
2.09289
2.0863
2.08059
2.07703
2.07148
2.06243
2.0485
2.0304
2.01728
2.01053
2.00551
2.00137
1.99598
1.98741
1.97492
1.95861
1.94309
1.93223
1.9255
1.92134
1.91801
1.91325
1.9047
1.89183
1.87895
1.86815
1.85876
1.84916
1.84058
1.8352
1.82991
1.82388
1.81858
1.81395
1.80776
1.79945
1.79011
1.7794
1.77211
1.76306
2.2048
2.16339
2.11884
2.07168
2.02726
1.98116
1.93085
1.88812
1.84763
1.80673
1.76249
1.7288
1.69739
1.66537
1.62611
1.60097
1.58216
1.55743
1.52299
1.49315
1.48818
1.53138
1.6906
1.85154
1.89085
1.87579
1.85211
1.83378
1.82513
1.81504
1.80095
1.78376
1.75892
1.73543
1.72532
1.71828
1.70901
1.70507
1.69461
1.71023
1.80814
1.97507
2.10429
2.16725
2.19557
2.20039
2.19097
2.17742
2.15831
2.14451
2.13729
2.13015
2.12442
2.11933
2.11121
2.09985
2.08301
2.06901
2.06145
2.05515
2.04932
2.04436
2.03695
2.02581
2.01117
1.99752
1.98809
1.98107
1.97469
1.96826
1.96049
1.94915
1.93575
1.92463
1.91713
1.91125
1.9052
1.89751
1.88862
1.87792
1.86488
1.85364
1.84501
1.83876
1.83407
1.82868
1.82239
1.81559
1.80736
1.79789
1.78994
1.7825
1.77396
1.76559
1.76147
1.7539
2.19496
2.15905
2.11801
2.07789
2.03849
1.9942
1.94954
1.91232
1.87386
1.83127
1.79281
1.76125
1.72738
1.69444
1.66328
1.63608
1.60777
1.58045
1.55493
1.54345
1.58869
1.75147
1.9159
1.94506
1.92915
1.90348
1.87478
1.85686
1.84721
1.83525
1.82055
1.80468
1.78257
1.75342
1.73236
1.71708
1.70363
1.69235
1.68211
1.67532
1.66496
1.69231
1.80666
1.96967
2.0843
2.14199
2.15865
2.16156
2.15096
2.13488
2.11485
2.10388
2.09704
2.0929
2.0906
2.08465
2.07523
2.0595
2.04286
2.03305
2.02711
2.02175
2.01721
2.01152
2.00283
1.99006
1.97482
1.96343
1.95572
1.94853
1.94071
1.93319
1.92555
1.91738
1.90807
1.89868
1.89033
1.88253
1.87325
1.86056
1.84813
1.83964
1.8346
1.8313
1.82758
1.82214
1.81412
1.80173
1.78749
1.77766
1.77107
1.76596
1.76197
1.75926
1.75572
1.74625
2.18118
2.15027
2.11509
2.08012
2.0445
2.00412
1.96598
1.93052
1.89354
1.85207
1.81962
1.78828
1.75536
1.71858
1.69202
1.6671
1.63565
1.60548
1.59981
1.65542
1.80385
1.96726
1.991
1.97272
1.95108
1.92698
1.89709
1.87702
1.86502
1.85403
1.83907
1.82255
1.80261
1.77548
1.74775
1.72834
1.71274
1.69682
1.681
1.66631
1.65437
1.64322
1.63218
1.67437
1.80975
1.96384
2.06124
2.10721
2.1221
2.11899
2.10007
2.07806
2.06899
2.06457
2.06398
2.06243
2.05694
2.04735
2.03032
2.01238
2.00323
1.99827
1.99384
1.9896
1.98486
1.97761
1.96611
1.95084
1.93802
1.92985
1.92362
1.9179
1.91212
1.90504
1.89469
1.88405
1.87566
1.86802
1.85861
1.84571
1.83581
1.8317
1.82926
1.82564
1.82042
1.81405
1.80405
1.78887
1.77206
1.76125
1.75512
1.75165
1.74989
1.74892
1.74613
1.73696
2.16592
2.13873
2.10884
2.07835
2.04527
2.00912
1.97609
1.94328
1.90748
1.86983
1.83948
1.80868
1.77723
1.74364
1.7163
1.68699
1.65784
1.66196
1.73425
1.88303
1.98981
2.02547
2.0115
1.99295
1.97498
1.9526
1.92024
1.89359
1.8784
1.86464
1.84867
1.83124
1.813
1.79141
1.76274
1.73657
1.71982
1.70459
1.68921
1.6738
1.65815
1.64108
1.62272
1.60417
1.60622
1.67045
1.81428
1.94932
2.04017
2.06619
2.07198
2.05829
2.04325
2.03755
2.03516
2.03405
2.02984
2.02358
2.0132
1.99683
1.98145
1.97403
1.96979
1.96589
1.96145
1.95635
1.9491
1.93706
1.92278
1.91329
1.90673
1.89978
1.89138
1.88148
1.87212
1.86489
1.85889
1.85257
1.8457
1.83832
1.83015
1.81996
1.81059
1.80472
1.80015
1.7957
1.78953
1.77772
1.75989
1.74878
1.74588
1.74491
1.74445
1.74158
1.73795
1.72772
2.14847
2.12459
2.09934
2.07224
2.0419
2.01039
1.98119
1.94999
1.91478
1.88385
1.85549
1.82662
1.79279
1.76193
1.73583
1.70791
1.72134
1.82585
1.98375
2.05495
2.05992
2.0392
2.02052
2.00766
1.99158
1.96998
1.94068
1.90863
1.88817
1.8721
1.85553
1.83795
1.82029
1.80143
1.778
1.75077
1.72774
1.70942
1.69321
1.67788
1.66259
1.64579
1.62723
1.60491
1.58514
1.57291
1.58419
1.6628
1.80781
1.9249
1.99608
2.01176
2.01979
2.0146
2.00808
2.00254
1.99598
1.98983
1.98418
1.97554
1.96223
1.95097
1.94582
1.94178
1.93723
1.93185
1.92506
1.91562
1.90388
1.89416
1.88694
1.87947
1.87088
1.86194
1.85287
1.84298
1.8354
1.83173
1.82906
1.82655
1.8208
1.80763
1.79428
1.78666
1.78043
1.77396
1.76709
1.76026
1.75281
1.74474
1.73628
1.7302
1.7257
1.72219
1.7192
1.71047
2.13351
2.11167
2.08859
2.06357
2.03592
2.00891
1.98105
1.95229
1.92039
1.89424
1.86688
1.83742
1.80407
1.77782
1.75444
1.77887
1.89342
2.06555
2.12396
2.10359
2.07401
2.04225
2.02394
2.01371
1.99918
1.97869
1.95409
1.92331
1.89719
1.87876
1.86126
1.8433
1.82492
1.80555
1.78359
1.75806
1.73363
1.71455
1.69793
1.68157
1.66587
1.65007
1.63329
1.61303
1.58993
1.56601
1.55416
1.54583
1.56512
1.65184
1.7884
1.89444
1.9519
1.96627
1.97401
1.97005
1.96173
1.95638
1.95077
1.94441
1.93485
1.92371
1.91844
1.91506
1.91125
1.90631
1.89953
1.88987
1.87774
1.86788
1.86134
1.85582
1.85039
1.84445
1.83643
1.82493
1.81497
1.81221
1.81202
1.81123
1.80645
1.79522
1.78205
1.77102
1.76231
1.75441
1.74798
1.74348
1.74054
1.73629
1.72741
1.71619
1.70936
1.70442
1.70039
1.69184
2.11371
2.09506
2.0744
2.05082
2.02693
2.00406
1.97876
1.9506
1.92409
1.89923
1.87304
1.84133
1.81478
1.80026
1.84109
1.97193
2.09636
2.16028
2.15186
2.12065
2.08337
2.04931
2.03126
2.01896
2.00336
1.98384
1.96172
1.93463
1.90653
1.88432
1.86528
1.84662
1.82769
1.8082
1.78726
1.76334
1.73757
1.71594
1.69879
1.68287
1.66731
1.65154
1.63524
1.61706
1.59559
1.57103
1.54966
1.53366
1.52616
1.52118
1.54584
1.64345
1.76588
1.85659
1.90521
1.91612
1.92765
1.9267
1.92266
1.9145
1.90231
1.89006
1.88536
1.88373
1.88187
1.87936
1.87525
1.86679
1.85086
1.83428
1.8276
1.8248
1.82228
1.8193
1.8154
1.80961
1.80208
1.79406
1.78625
1.77898
1.77471
1.77271
1.7678
1.76012
1.74962
1.73842
1.73265
1.73068
1.72947
1.72541
1.71698
1.70593
1.69648
1.68844
1.68164
1.67246
2.09429
2.07771
2.05973
2.0388
2.01854
1.99709
1.97401
1.94817
1.92429
1.90082
1.87346
1.84438
1.84745
1.91466
2.07176
2.15894
2.17142
2.1669
2.14449
2.12271
2.09771
2.0665
2.04067
2.02181
2.00422
1.98458
1.96318
1.93915
1.91272
1.88798
1.86752
1.84844
1.82918
1.80952
1.78906
1.76663
1.74113
1.71635
1.69664
1.67975
1.66413
1.64901
1.63341
1.61663
1.59718
1.57509
1.55369
1.53565
1.52041
1.50751
1.50011
1.49726
1.52457
1.61547
1.72598
1.81583
1.86302
1.88612
1.89292
1.88672
1.87421
1.85956
1.85026
1.84974
1.85025
1.84938
1.84653
1.84005
1.82593
1.80671
1.7983
1.79563
1.79348
1.79142
1.78951
1.78749
1.78373
1.77511
1.76165
1.75135
1.7464
1.74333
1.74214
1.74026
1.73643
1.73116
1.72403
1.71517
1.70576
1.70038
1.69781
1.69283
1.68438
1.67543
1.66846
1.65938
2.08328
2.06551
2.04731
2.02796
2.0093
1.98924
1.96697
1.94398
1.92114
1.89931
1.87802
1.89229
1.98583
2.13459
2.23259
2.22643
2.1913
2.155
2.13485
2.12277
2.10408
2.0777
2.04755
2.02265
2.00275
1.98336
1.96245
1.93934
1.91414
1.88856
1.86607
1.84661
1.82789
1.80894
1.78923
1.76786
1.74326
1.71677
1.69406
1.67605
1.66011
1.64476
1.62886
1.61184
1.59244
1.57161
1.55109
1.53422
1.52053
1.50764
1.49454
1.48333
1.47218
1.46793
1.4981
1.58831
1.70206
1.78816
1.83447
1.84931
1.85009
1.84101
1.82661
1.8179
1.81616
1.81344
1.81078
1.80751
1.79976
1.78615
1.77395
1.76819
1.76594
1.7647
1.76312
1.76094
1.75798
1.75211
1.74082
1.7266
1.71807
1.71647
1.7166
1.71672
1.71692
1.71624
1.71154
1.7
1.68635
1.67725
1.6716
1.66736
1.66422
1.66139
1.65791
1.64927
2.0681
2.05109
2.03311
2.01629
1.99855
1.97867
1.95847
1.93591
1.91879
1.90974
1.94892
2.07345
2.18572
2.24497
2.24761
2.22292
2.18919
2.15356
2.13247
2.12005
2.10282
2.07905
2.05045
2.02213
2.00015
1.98001
1.9591
1.93685
1.91316
1.88783
1.86305
1.84158
1.82239
1.80394
1.78518
1.76527
1.74288
1.71771
1.69304
1.67212
1.65456
1.63865
1.62267
1.60611
1.58829
1.56939
1.54939
1.53164
1.51748
1.50516
1.49453
1.48265
1.46958
1.45674
1.44077
1.44215
1.4854
1.58023
1.68882
1.76304
1.80454
1.81164
1.80839
1.79843
1.78815
1.78379
1.7811
1.778
1.77288
1.76593
1.75741
1.74797
1.74201
1.73956
1.73747
1.73564
1.73313
1.72745
1.71774
1.70771
1.70092
1.69564
1.69279
1.69299
1.69381
1.69414
1.69222
1.68429
1.6696
1.65458
1.64726
1.6451
1.64378
1.6429
1.64156
1.6366
2.04917
2.03681
2.01745
2.00381
1.98663
1.96724
1.94864
1.93329
1.94206
2.02042
2.16998
2.25758
2.26562
2.25805
2.23589
2.21308
2.19005
2.15996
2.13357
2.11429
2.09586
2.07398
2.04897
2.0226
1.99725
1.97392
1.9515
1.92875
1.90546
1.88131
1.85692
1.83421
1.81367
1.79449
1.77555
1.75597
1.73545
1.71421
1.69249
1.67118
1.65162
1.63406
1.61753
1.6015
1.58534
1.56886
1.5512
1.53381
1.51836
1.50522
1.49381
1.48285
1.47185
1.45714
1.4401
1.42651
1.41968
1.42793
1.47933
1.578
1.68319
1.74578
1.7666
1.7681
1.76537
1.76138
1.75735
1.75481
1.75256
1.74941
1.74249
1.73133
1.7249
1.72153
1.7172
1.71064
1.70258
1.69749
1.69455
1.6899
1.68477
1.67819
1.67345
1.67205
1.67104
1.66942
1.66738
1.66336
1.65194
1.63642
1.6288
1.62648
1.62533
1.62337
1.62424
1.62605
1.9553
2.02548
2.00668
1.99036
1.97138
1.95712
1.95132
1.98857
2.10066
2.23057
2.30161
2.28754
2.25768
2.24071
2.22337
2.2079
2.18878
2.16264
2.13339
2.10963
2.08822
2.06597
2.0422
2.01641
1.98996
1.96501
1.94145
1.91829
1.89508
1.87207
1.8493
1.82718
1.80603
1.786
1.7669
1.74804
1.72895
1.70994
1.69091
1.67081
1.65048
1.63151
1.61437
1.59884
1.58352
1.5682
1.55282
1.53767
1.52332
1.51027
1.49785
1.48567
1.47229
1.45714
1.44129
1.42754
1.41736
1.41089
1.41114
1.42656
1.48249
1.58211
1.6682
1.73078
1.73996
1.74335
1.7443
1.73805
1.72992
1.72173
1.71339
1.71288
1.712
1.70871
1.70317
1.69401
1.68525
1.67726
1.67197
1.67131
1.66889
1.6642
1.65936
1.65551
1.65247
1.64913
1.64391
1.63515
1.62503
1.6169
1.61306
1.60881
1.60893
1.60913
1.61262
1.6527
1.70278
1.95934
2.00144
1.98287
1.96104
1.97002
2.05349
2.19374
2.2779
2.31622
2.3059
2.27422
2.24165
2.22213
2.20928
2.19649
2.17806
2.15262
2.12398
2.0988
2.07691
2.05483
2.03113
2.00563
1.97893
1.95322
1.92966
1.90761
1.88603
1.86489
1.84398
1.82281
1.80117
1.78013
1.76125
1.74425
1.7271
1.70842
1.68969
1.671
1.65107
1.6313
1.61372
1.59858
1.58476
1.57148
1.55807
1.54456
1.53146
1.51922
1.5069
1.49422
1.4818
1.47106
1.46028
1.45035
1.43881
1.42479
1.41065
1.40423
1.40555
1.42759
1.48366
1.58207
1.65648
1.71344
1.73242
1.73251
1.72912
1.71833
1.70724
1.69981
1.69237
1.68587
1.68221
1.68001
1.67558
1.66744
1.65924
1.65122
1.64493
1.64073
1.6363
1.63058
1.62476
1.62025
1.61636
1.6113
1.60587
1.6017
1.60024
1.5985
1.60069
1.61808
1.65823
1.75641
1.23867
1.76429
1.9604
1.96359
2.00373
2.12718
2.2696
2.3166
2.29896
2.29327
2.28029
2.25797
2.23175
2.21078
2.19882
2.18445
2.16415
2.13878
2.11178
2.08773
2.06632
2.04481
2.02175
1.99687
1.97043
1.94464
1.9214
1.90078
1.88177
1.86274
1.84307
1.82257
1.80065
1.77784
1.75681
1.739
1.72444
1.71109
1.69437
1.67391
1.65455
1.6365
1.62044
1.60648
1.5937
1.58107
1.568
1.55498
1.54233
1.5304
1.51871
1.50729
1.49569
1.48387
1.47109
1.45814
1.44557
1.43376
1.42352
1.41428
1.40761
1.40161
1.40285
1.42379
1.48976
1.58869
1.65868
1.71025
1.72243
1.71992
1.71554
1.70706
1.69594
1.68605
1.67939
1.67298
1.66561
1.65763
1.64869
1.64018
1.63412
1.62933
1.62442
1.61746
1.60778
1.59791
1.5911
1.58827
1.58905
1.59058
1.59354
1.60922
1.64474
1.7129
1.78015
1.83219
1.01575
1.34656
1.76365
1.97988
2.2331
2.32022
2.35998
2.3378
2.30778
2.27997
2.26365
2.24692
2.22419
2.20223
2.18911
2.1735
2.15266
2.12852
2.10377
2.08042
2.05924
2.03875
2.0169
1.99328
1.96797
1.94223
1.91846
1.89794
1.88032
1.86397
1.84746
1.8291
1.80863
1.78828
1.7675
1.7473
1.7294
1.71259
1.70172
1.69307
1.6804
1.66448
1.64875
1.63492
1.62229
1.60977
1.5968
1.58371
1.5706
1.55774
1.54513
1.53272
1.51957
1.50536
1.48904
1.47316
1.45986
1.44981
1.44212
1.43343
1.42307
1.40963
1.40161
1.39222
1.39582
1.42732
1.51074
1.6081
1.66744
1.69416
1.70794
1.70454
1.69881
1.69237
1.68561
1.67814
1.66995
1.66053
1.64958
1.6403
1.63291
1.62591
1.61735
1.60679
1.59478
1.58486
1.58046
1.5805
1.58513
1.60836
1.65559
1.71821
1.77686
1.83036
1.85271
1.85831
1.00022
1.03778
1.43371
2.21603
2.48062
2.44167
2.41336
2.37409
2.335
2.30345
2.28451
2.26895
2.24741
2.22335
2.20744
2.19079
2.17072
2.14935
2.12722
2.10517
2.08438
2.06443
2.04355
2.02103
1.99693
1.9722
1.94894
1.92835
1.90981
1.89328
1.87725
1.85949
1.83665
1.80666
1.78476
1.77105
1.75512
1.73785
1.72069
1.70389
1.68909
1.67545
1.66259
1.65048
1.63902
1.62749
1.61498
1.60146
1.58713
1.57248
1.55762
1.54281
1.5285
1.51567
1.50319
1.48933
1.47539
1.463
1.45175
1.43861
1.42544
1.4159
1.40985
1.4026
1.39597
1.38775
1.3984
1.44105
1.53032
1.61582
1.68042
1.68717
1.69151
1.69358
1.69071
1.68406
1.67401
1.66118
1.64926
1.63979
1.63203
1.62403
1.61409
1.60481
1.59564
1.58599
1.58777
1.60689
1.6538
1.73203
1.7998
1.84405
1.86255
1.85823
1.85584
1.85704
1
1.00063
1.54514
2.60585
2.65824
2.56846
2.49372
2.44073
2.40033
2.3679
2.34312
2.32578
2.29831
2.26875
2.24892
2.23053
2.21019
2.18897
2.16706
2.14525
2.12403
2.1038
2.08291
2.05978
2.03483
2.00961
1.98577
1.9641
1.94396
1.92404
1.90362
1.88296
1.86404
1.84682
1.82597
1.80178
1.77852
1.75935
1.7428
1.7281
1.71606
1.7054
1.69467
1.68324
1.67187
1.66079
1.649
1.6353
1.61927
1.60197
1.58412
1.56633
1.54948
1.5352
1.52328
1.51169
1.49822
1.484
1.47148
1.45872
1.44472
1.43047
1.42174
1.41608
1.40618
1.39291
1.38696
1.38479
1.40134
1.45103
1.53737
1.61375
1.67365
1.70141
1.70211
1.69739
1.68521
1.66864
1.65186
1.63676
1.62716
1.61937
1.61481
1.60865
1.61085
1.62819
1.67111
1.74263
1.81094
1.86479
1.88225
1.89216
1.89255
1.88405
1.87086
1.86198
1
1.00001
1.88772
2.77433
2.73918
2.67294
2.62281
2.57551
2.5308
2.48944
2.45246
2.41971
2.3822
2.35012
2.32886
2.31024
2.28818
2.26331
2.24006
2.21917
2.19711
2.17441
2.15088
2.12543
2.09825
2.07109
2.04567
2.02237
2.00002
1.97719
1.95324
1.9287
1.90564
1.88519
1.86591
1.84405
1.82118
1.80036
1.78263
1.76788
1.75482
1.74229
1.72983
1.71672
1.70269
1.68774
1.67221
1.65661
1.64064
1.62431
1.60733
1.58979
1.57116
1.55161
1.53289
1.51744
1.50492
1.49366
1.48407
1.47678
1.46912
1.45642
1.43777
1.41783
1.40569
1.39831
1.38969
1.38239
1.37535
1.37777
1.39876
1.46257
1.55982
1.63375
1.68975
1.70238
1.69755
1.68713
1.66988
1.65016
1.63754
1.62734
1.6297
1.65445
1.70837
1.77125
1.83694
1.87959
1.9015
1.90179
1.90178
1.90425
1.90306
1.89759
1.89081
1.88163
1
1
1.98197
2.79479
2.77656
2.74732
2.71877
2.68241
2.64308
2.60414
2.56765
2.53235
2.49659
2.46681
2.44623
2.42668
2.40197
2.37237
2.34158
2.315
2.28779
2.25963
2.23127
2.20145
2.16974
2.13841
2.10929
2.08239
2.05673
2.03152
2.00632
1.98123
1.95685
1.93327
1.90983
1.88644
1.86405
1.84353
1.82497
1.80856
1.79344
1.77858
1.76367
1.74813
1.73207
1.71527
1.69774
1.67991
1.66188
1.64394
1.6256
1.60676
1.58696
1.5665
1.54774
1.53204
1.5194
1.50881
1.49873
1.48701
1.47468
1.46174
1.44496
1.4264
1.41441
1.40688
1.39821
1.38917
1.37944
1.37212
1.36431
1.3693
1.40435
1.49141
1.59342
1.65716
1.68079
1.68095
1.67899
1.66707
1.67028
1.68814
1.73583
1.80636
1.8751
1.90903
1.93159
1.93408
1.92751
1.9203
1.91127
1.9057
1.90163
1.89768
1.89358
1.8877
1
1
1.94912
2.75949
2.78124
2.7691
2.75172
2.7266
2.70067
2.67426
2.64798
2.62079
2.59316
2.56828
2.54507
2.51578
2.48166
2.44769
2.41554
2.38613
2.35548
2.32099
2.28613
2.25049
2.21638
2.18541
2.15656
2.12874
2.10091
2.07245
2.04334
2.01458
1.98736
1.9618
1.93768
1.91498
1.89375
1.87369
1.85399
1.8347
1.81584
1.79767
1.78075
1.76433
1.74806
1.73104
1.71288
1.69344
1.67271
1.65209
1.6321
1.61308
1.59433
1.57557
1.55827
1.54342
1.53118
1.51959
1.50767
1.49511
1.48175
1.46632
1.44874
1.43331
1.4229
1.41448
1.4054
1.39584
1.38682
1.37606
1.36464
1.35183
1.35204
1.36856
1.42469
1.52195
1.62478
1.6734
1.69614
1.73754
1.79309
1.83474
1.8758
1.90744
1.9377
1.95541
1.95497
1.94371
1.92659
1.91671
1.9148
1.91322
1.91042
1.90875
1.90651
1.89816
1
1
1.91216
2.73638
2.77431
2.76488
2.75151
2.73304
2.71474
2.69598
2.67748
2.65812
2.63764
2.6154
2.58905
2.55818
2.52393
2.48928
2.4558
2.42212
2.38349
2.34353
2.30417
2.26749
2.23511
2.20505
2.17615
2.14743
2.11782
2.08687
2.05521
2.0246
1.99651
1.97097
1.94745
1.92555
1.90483
1.88453
1.86368
1.84262
1.82195
1.80246
1.78518
1.76926
1.75386
1.7372
1.71825
1.69692
1.67422
1.65249
1.63202
1.61324
1.59587
1.58014
1.56568
1.55043
1.53564
1.52243
1.51009
1.4969
1.48193
1.46452
1.44721
1.4356
1.42713
1.41868
1.40931
1.40115
1.39317
1.38185
1.3656
1.34906
1.34174
1.3423
1.34878
1.38575
1.48258
1.62237
1.76149
1.86504
1.93523
1.99265
2.02914
2.02653
2.01584
1.99731
1.97124
1.94454
1.92137
1.91288
1.91039
1.91019
1.91084
1.9108
1.90904
1.90031
)
;

boundaryField
{
    inlet
    {
        type            fixedValue;
        value           uniform 1;
    }
    outlet
    {
        type            inletOutlet;
        inletValue      uniform 1;
        value           nonuniform List<scalar> 
32
(
1.93966
1.94195
1.93808
1.91881
1.88937
1.8568
1.82648
1.79838
1.77909
1.77069
1.76363
1.75463
1.74621
1.73648
1.72669
1.71009
1.69159
1.67302
1.65985
1.64914
1.6363
1.62552
1.651
1.75438
1.83134
1.85817
1.85781
1.86334
1.88234
1.88808
1.89745
1.89923
)
;
    }
    bottom
    {
        type            symmetryPlane;
    }
    top
    {
        type            symmetryPlane;
    }
    obstacle
    {
        type            zeroGradient;
    }
    defaultFaces
    {
        type            empty;
    }
}


// ************************************************************************* //
