/*--------------------------------*- C++ -*----------------------------------*\
  =========                 |
  \\      /  F ield         | OpenFOAM: The Open Source CFD Toolbox
   \\    /   O peration     | Website:  https://openfoam.org
    \\  /    A nd           | Version:  7
     \\/     M anipulation  |
\*---------------------------------------------------------------------------*/
FoamFile
{
    version     2.0;
    format      ascii;
    class       volVectorField;
    location    "3.4";
    object      U;
}
// * * * * * * * * * * * * * * * * * * * * * * * * * * * * * * * * * * * * * //

dimensions      [0 1 -1 0 0 0 0];

internalField   nonuniform List<vector> 
4032
(
(3 2.21912e-16 0)
(3 1.4518e-16 0)
(3 -3.84304e-16 0)
(3 -4.34765e-16 0)
(3 1.50677e-16 0)
(3 -8.0212e-17 0)
(3 -4.52438e-17 0)
(3 2.20756e-18 0)
(3 1.05893e-17 0)
(3 9.0942e-17 0)
(3 4.11045e-17 0)
(2.95558 0.0025556 0)
(1.02525 0.0180178 0)
(0.707406 0.0189044 0)
(0.654836 0.0228107 0)
(0.595852 0.0243599 0)
(0.536679 0.0257758 0)
(0.475269 0.0274459 0)
(0.411339 0.0293324 0)
(0.344606 0.0311585 0)
(0.275539 0.0327649 0)
(0.203253 0.0353598 0)
(0.126443 0.0374878 0)
(0.0471683 0.0426875 0)
(3 2.00262e-16 0)
(3 8.49128e-17 0)
(3 -4.2227e-16 0)
(3 -3.64798e-16 0)
(3 4.83805e-17 0)
(3 -2.73446e-16 0)
(3 -2.46283e-16 0)
(3 2.31575e-16 0)
(3 9.97486e-17 0)
(3 -5.88674e-16 0)
(3 -4.60545e-16 0)
(2.96343 0.0245032 0)
(1.03506 0.0797385 0)
(0.701788 0.0670204 0)
(0.648978 0.0711481 0)
(0.591267 0.076262 0)
(0.532168 0.081029 0)
(0.470423 0.0864816 0)
(0.405957 0.0924542 0)
(0.338582 0.0983237 0)
(0.268812 0.103209 0)
(0.196433 0.110772 0)
(0.120131 0.116507 0)
(0.0439291 0.129183 0)
(3 -1.04994e-16 0)
(3 -2.27545e-16 0)
(3 -2.43938e-16 0)
(3 5.36827e-17 0)
(3 3.04817e-17 0)
(3 -6.77484e-17 0)
(3 1.57955e-17 0)
(3 1.82212e-16 0)
(3 -2.1592e-16 0)
(3 -5.61357e-16 0)
(3 -1.98752e-16 0)
(3.00409 0.00538637 0)
(1.09517 0.132325 0)
(0.728326 0.108387 0)
(0.673396 0.117439 0)
(0.613706 0.126669 0)
(0.552809 0.135092 0)
(0.490094 0.144454 0)
(0.425074 0.154538 0)
(0.356985 0.164696 0)
(0.285289 0.173185 0)
(0.209914 0.186154 0)
(0.128231 0.195452 0)
(0.0474873 0.213811 0)
(3 4.96598e-18 0)
(3 2.20768e-17 0)
(3 1.32872e-16 0)
(3 6.60011e-19 0)
(3 -5.33719e-17 0)
(3 1.42928e-16 0)
(3 1.81443e-16 0)
(3 3.80543e-17 0)
(3 -9.39939e-17 0)
(3 1.79567e-16 0)
(3 8.56711e-17 0)
(3.00043 3.24218e-05 0)
(1.18142 0.176196 0)
(0.737872 0.15256 0)
(0.681294 0.16729 0)
(0.623597 0.179754 0)
(0.564346 0.190731 0)
(0.503566 0.203506 0)
(0.439674 0.217998 0)
(0.371197 0.234042 0)
(0.296911 0.248092 0)
(0.218739 0.268279 0)
(0.133077 0.282777 0)
(0.0482209 0.306289 0)
(3 -1.37931e-17 0)
(3 4.60952e-16 0)
(3 2.90931e-16 0)
(3 1.90673e-16 0)
(3 1.57918e-17 0)
(3 -5.0928e-17 0)
(3 -2.66715e-17 0)
(3 -4.30055e-16 0)
(3 2.59023e-16 0)
(3 5.52532e-16 0)
(3 9.44263e-17 0)
(3 -1.03253e-07 0)
(1.32027 0.226361 0)
(0.75013 0.199114 0)
(0.685161 0.214316 0)
(0.631414 0.229612 0)
(0.57574 0.243327 0)
(0.518998 0.260267 0)
(0.458841 0.280324 0)
(0.394189 0.303806 0)
(0.321936 0.324309 0)
(0.244346 0.352504 0)
(0.152548 0.375394 0)
(0.0581483 0.406998 0)
(3 -1.19565e-17 0)
(3 1.72176e-16 0)
(3 2.64258e-16 0)
(3 -6.99044e-17 0)
(3 -2.0666e-16 0)
(3 -3.48965e-16 0)
(3 -5.66306e-16 0)
(3 -7.88206e-16 0)
(3 -2.05168e-16 0)
(3 2.25445e-16 0)
(3 3.31925e-16 0)
(3 -6.00524e-08 0)
(1.5326 0.276595 0)
(0.773009 0.254997 0)
(0.687751 0.261706 0)
(0.635536 0.27672 0)
(0.583863 0.292128 0)
(0.533692 0.31292 0)
(0.480409 0.338608 0)
(0.421676 0.371398 0)
(0.349093 0.403848 0)
(0.266774 0.447264 0)
(0.166468 0.488187 0)
(0.0570784 0.528999 0)
(3 7.6033e-17 0)
(3 -5.85298e-17 0)
(3 -3.55404e-17 0)
(3 -2.06442e-16 0)
(3 -2.33319e-16 0)
(3 -3.61534e-16 0)
(3 -6.03418e-16 0)
(3 -7.91527e-16 0)
(3 -8.01296e-16 0)
(3 -1.32738e-15 0)
(3 -8.79607e-16 0)
(3 -1.15039e-08 0)
(1.83919 0.328396 0)
(0.810369 0.326788 0)
(0.693365 0.317356 0)
(0.638887 0.326101 0)
(0.588487 0.339831 0)
(0.543151 0.362466 0)
(0.496617 0.393493 0)
(0.449457 0.437145 0)
(0.389353 0.485506 0)
(0.321558 0.542949 0)
(0.231084 0.602524 0)
(0.100323 0.671567 0)
(3 2.75471e-17 0)
(3 -3.3195e-16 0)
(3 -6.07014e-16 0)
(3 -1.93394e-16 0)
(3 -1.72809e-16 0)
(3 -2.72659e-16 0)
(3 -2.17986e-16 0)
(3 -2.79825e-16 0)
(3 -6.32824e-16 0)
(3 -7.27213e-16 0)
(3 6.76827e-16 0)
(3 -1.13288e-09 0)
(2.28836 0.347294 0)
(0.887896 0.414216 0)
(0.734642 0.377246 0)
(0.679978 0.381607 0)
(0.625623 0.390302 0)
(0.578097 0.410973 0)
(0.533546 0.444164 0)
(0.493381 0.493151 0)
(0.447884 0.553562 0)
(0.386911 0.639189 0)
(0.2706 0.763427 0)
(0.150213 0.932563 0)
(3 -9.72221e-17 0)
(3 -1.83637e-16 0)
(3 -6.05925e-16 0)
(3 -8.24517e-16 0)
(3 -6.27766e-16 0)
(3 -6.79934e-16 0)
(3 -5.79951e-16 0)
(3 -3.34461e-16 0)
(3 -1.23289e-16 0)
(3 5.97583e-16 0)
(3 2.42952e-15 0)
(3 -4.13171e-11 0)
(2.86988 0.201437 0)
(1.05786 0.472797 0)
(0.829301 0.409915 0)
(0.771391 0.423785 0)
(0.704422 0.439786 0)
(0.6456 0.459169 0)
(0.597161 0.491268 0)
(0.556695 0.542048 0)
(0.52151 0.618753 0)
(0.487934 0.745844 0)
(0.458061 0.924379 0)
(0.573727 1.20704 0)
(3 -1.6001e-16 0)
(3 -6.80532e-17 0)
(3 8.10715e-17 0)
(3 -2.66105e-16 0)
(3 -2.42512e-16 0)
(3 -4.74095e-16 0)
(3 -3.69493e-16 0)
(3 -2.03166e-16 0)
(3 4.59991e-16 0)
(3 9.69805e-16 0)
(3 1.37289e-15 0)
(3 -7.58208e-13 0)
(3.05113 0.0149241 0)
(1.27659 0.453674 0)
(0.879179 0.465799 0)
(0.839385 0.494839 0)
(0.779382 0.50621 0)
(0.721106 0.519582 0)
(0.672972 0.546656 0)
(0.632329 0.594077 0)
(0.614423 0.676169 0)
(0.614421 0.810987 0)
(0.678811 0.962362 0)
(0.963936 1.13882 0)
(3 -1.06822e-17 0)
(3 -1.90533e-17 0)
(3 5.2935e-16 0)
(3 8.53153e-16 0)
(3 3.30157e-16 0)
(3 1.71843e-16 0)
(3 -1.92154e-16 0)
(3 -2.54284e-16 0)
(3 1.29032e-16 0)
(3 6.06525e-16 0)
(3 6.43008e-16 0)
(3 -6.45116e-15 0)
(3.00228 -4.80777e-06 0)
(1.55036 0.464012 0)
(0.874328 0.517549 0)
(0.836873 0.543628 0)
(0.807108 0.567093 0)
(0.775383 0.581369 0)
(0.744605 0.604888 0)
(0.716433 0.642328 0)
(0.716332 0.712998 0)
(0.742938 0.828333 0)
(0.866497 0.956421 0)
(1.17584 1.0679 0)
(3 1.54622e-16 0)
(3 2.71551e-16 0)
(3 5.62831e-16 0)
(3 6.98661e-16 0)
(3 7.00259e-17 0)
(3 1.68794e-16 0)
(3 -5.29059e-16 0)
(3 -1.95311e-16 0)
(3 -3.12355e-16 0)
(3 -8.08797e-16 0)
(3 -7.54255e-16 0)
(3 -1.21538e-15 0)
(3.00001 -3.33804e-07 0)
(2.16661 0.48205 0)
(0.949559 0.582895 0)
(0.863866 0.557453 0)
(0.857538 0.585893 0)
(0.838645 0.615005 0)
(0.821429 0.646616 0)
(0.807736 0.681539 0)
(0.817107 0.741738 0)
(0.864475 0.829036 0)
(1.00658 0.931326 0)
(1.26749 1.00105 0)
(3 9.16791e-17 0)
(3 8.29551e-17 0)
(3 -2.59008e-17 0)
(3 -2.5233e-16 0)
(3 -1.84484e-16 0)
(3 -2.90873e-16 0)
(3 5.45741e-16 0)
(3 4.68018e-16 0)
(3 -4.16828e-16 0)
(3 -2.31874e-15 0)
(3 -2.7129e-15 0)
(3 -2.09674e-15 0)
(3 -3.78226e-07 0)
(2.96998 0.193177 0)
(1.17766 0.60923 0)
(0.937624 0.565511 0)
(0.929195 0.613059 0)
(0.910566 0.644184 0)
(0.898782 0.67868 0)
(0.897685 0.713794 0)
(0.912341 0.763429 0)
(0.971972 0.828646 0)
(1.10795 0.901192 0)
(1.31825 0.944984 0)
(3 -5.62852e-17 0)
(3 -4.60016e-17 0)
(3 -2.02444e-16 0)
(3 -2.01893e-16 0)
(3 -2.60745e-16 0)
(3 -5.70347e-16 0)
(3 -2.14153e-16 0)
(3 -2.31912e-16 0)
(3 -5.52137e-16 0)
(3 -1.74977e-15 0)
(3 -2.39639e-15 0)
(3 -2.30869e-15 0)
(3 -7.83089e-08 0)
(3.04654 0.00676901 0)
(1.45625 0.59542 0)
(0.971945 0.644242 0)
(0.942247 0.65725 0)
(0.933031 0.681276 0)
(0.943866 0.712863 0)
(0.963285 0.748393 0)
(0.995659 0.786005 0)
(1.06278 0.831869 0)
(1.18266 0.877917 0)
(1.34978 0.900251 0)
(3 -9.5629e-17 0)
(3 2.86823e-16 0)
(3 2.52643e-16 0)
(3 2.961e-16 0)
(3 1.38353e-16 0)
(3 -3.77553e-16 0)
(3 -1.37032e-15 0)
(3 -9.83851e-16 0)
(3 -7.70372e-16 0)
(3 -6.84638e-16 0)
(3 -1.84017e-15 0)
(3 -1.58914e-15 0)
(3 -6.56665e-09 0)
(3.00109 -6.07209e-06 0)
(2.11272 0.583887 0)
(1.04765 0.716693 0)
(0.985867 0.679991 0)
(0.977367 0.691622 0)
(0.993085 0.717385 0)
(1.01966 0.754055 0)
(1.0648 0.791958 0)
(1.13612 0.830462 0)
(1.23915 0.861682 0)
(1.37509 0.873594 0)
(3 -9.22228e-17 0)
(3 -2.74992e-16 0)
(3 -2.18548e-16 0)
(3 -1.82576e-16 0)
(3 7.1719e-18 0)
(3 3.55446e-17 0)
(3 -6.93874e-17 0)
(3 -4.18466e-16 0)
(3 2.02939e-18 0)
(3 1.88829e-15 0)
(3 1.61321e-15 0)
(3 7.83842e-16 0)
(3 -5.22361e-11 0)
(3.00004 -1.27226e-05 0)
(3.03523 0.161405 0)
(1.32541 0.690663 0)
(1.06811 0.700552 0)
(1.06298 0.706145 0)
(1.06474 0.734038 0)
(1.08126 0.766396 0)
(1.12354 0.799139 0)
(1.19177 0.830724 0)
(1.28103 0.851895 0)
(1.3953 0.858312 0)
(3 2.20865e-17 0)
(3 -2.02394e-16 0)
(3 -6.15332e-16 0)
(3 -6.47066e-16 0)
(3 -4.39539e-16 0)
(3 1.94962e-16 0)
(3 4.00331e-16 0)
(3 2.57987e-16 0)
(3 1.04159e-15 0)
(3 1.26432e-15 0)
(3 2.32748e-15 0)
(3 2.06615e-15 0)
(3 -6.06192e-14 0)
(3 -3.25305e-06 0)
(3.02966 0.002249 0)
(1.65475 0.660319 0)
(1.09207 0.756741 0)
(1.08871 0.757873 0)
(1.10243 0.773092 0)
(1.12807 0.789704 0)
(1.16961 0.809205 0)
(1.23267 0.828706 0)
(1.31215 0.842888 0)
(1.41089 0.84759 0)
(3 2.34024e-16 0)
(3 2.1263e-16 0)
(3 1.46258e-16 0)
(3 3.49502e-16 0)
(3 5.63042e-16 0)
(3 7.84973e-16 0)
(3 1.0795e-15 0)
(3 1.05593e-15 0)
(3 3.3551e-16 0)
(3 5.52244e-17 0)
(3 7.33469e-16 0)
(3 9.80677e-16 0)
(3 1.14348e-15 0)
(3 -2.61563e-07 0)
(3.00041 9.62151e-06 0)
(2.56147 0.450025 0)
(1.22978 0.785883 0)
(1.12238 0.776486 0)
(1.14623 0.781943 0)
(1.17064 0.797924 0)
(1.20908 0.8137 0)
(1.26583 0.827518 0)
(1.33842 0.837417 0)
(1.42396 0.840069 0)
(3 -2.97033e-17 0)
(3 1.97304e-16 0)
(3 5.33964e-16 0)
(3 8.63038e-16 0)
(3 7.8735e-16 0)
(3 5.24963e-16 0)
(3 1.67561e-16 0)
(3 1.39963e-16 0)
(3 -1.99248e-16 0)
(3 -4.32722e-16 0)
(3 -6.22326e-16 0)
(3 -4.24661e-16 0)
(3 2.34801e-16 0)
(3 -1.63018e-09 0)
(3.00003 -1.13472e-05 0)
(3.06625 0.0436847 0)
(1.60721 0.761278 0)
(1.17593 0.796242 0)
(1.20051 0.798388 0)
(1.21473 0.809884 0)
(1.24877 0.819326 0)
(1.29675 0.828778 0)
(1.36098 0.834529 0)
(1.43572 0.834543 0)
(3 -1.01148e-16 0)
(3 -2.04716e-17 0)
(3 -1.95783e-16 0)
(3 -4.26901e-16 0)
(3 -6.33986e-16 0)
(3 -7.10615e-16 0)
(3 -8.79881e-16 0)
(3 -1.14224e-15 0)
(3 -7.58066e-16 0)
(3 -6.25818e-16 0)
(3 -1.00616e-15 0)
(3 -7.92623e-16 0)
(3 3.2787e-16 0)
(3 -3.14049e-12 0)
(3 -2.45588e-06 0)
(3.00463 0.000818214 0)
(2.43468 0.577748 0)
(1.28731 0.860424 0)
(1.23063 0.839985 0)
(1.25231 0.834352 0)
(1.28171 0.83559 0)
(1.32541 0.837233 0)
(1.38153 0.837092 0)
(1.447 0.834175 0)
(3 1.2487e-17 0)
(3 -5.60241e-17 0)
(3 -9.01572e-17 0)
(3 -3.7723e-16 0)
(3 -8.58754e-16 0)
(3 -1.52085e-15 0)
(3 -7.67793e-16 0)
(3 -5.76069e-16 0)
(3 -2.09258e-16 0)
(3 -2.03909e-16 0)
(3 -8.11361e-16 0)
(3 -9.53073e-16 0)
(3 -9.26362e-17 0)
(3 -1.27234e-15 0)
(3 -2.09205e-07 0)
(3.00001 2.99123e-06 0)
(3.0566 0.0779901 0)
(1.69898 0.820981 0)
(1.27924 0.845519 0)
(1.30263 0.841134 0)
(1.32352 0.840285 0)
(1.36122 0.83786 0)
(1.40843 0.836034 0)
(1.46434 0.832748 0)
(3 -3.7982e-17 0)
(3 3.02203e-17 0)
(3 1.62977e-16 0)
(3 1.22395e-16 0)
(3 -5.09562e-16 0)
(3 -5.41899e-16 0)
(3 -3.8433e-16 0)
(3 1.79293e-17 0)
(3 -3.07216e-16 0)
(3 -7.12908e-16 0)
(3 -6.83454e-16 0)
(3 -6.00313e-16 0)
(3 -2.0073e-15 0)
(3 -2.39624e-15 0)
(3 -2.26722e-09 0)
(3 -1.37988e-07 0)
(3.00625 0.00250587 0)
(2.58959 0.553392 0)
(1.40382 0.904095 0)
(1.3354 0.875357 0)
(1.36397 0.864753 0)
(1.39451 0.859109 0)
(1.43307 0.854553 0)
(1.48149 0.846973 0)
(3 4.51922e-17 0)
(3 -1.65393e-17 0)
(3 4.20415e-17 0)
(3 1.94057e-16 0)
(3 1.6998e-16 0)
(3 -7.95507e-17 0)
(3 -6.00839e-16 0)
(3 -5.86541e-16 0)
(3 -7.57136e-16 0)
(3 -1.18197e-15 0)
(3 -5.6246e-16 0)
(3 -1.73276e-16 0)
(3 -1.34401e-15 0)
(3 -1.76703e-15 0)
(3 -4.41704e-12 0)
(3 -3.3896e-08 0)
(3.00002 1.99326e-05 0)
(3.05323 0.05532 0)
(1.85294 0.808388 0)
(1.37963 0.891256 0)
(1.41217 0.881584 0)
(1.43806 0.87392 0)
(1.47045 0.864595 0)
(1.51136 0.852469 0)
(3 -7.63462e-17 0)
(3 -2.08935e-16 0)
(3 -2.24094e-17 0)
(3 -1.03491e-16 0)
(3 1.95355e-16 0)
(3 9.55996e-17 0)
(3 -9.13398e-17 0)
(3 -2.57602e-16 0)
(3 -3.65511e-16 0)
(3 -4.20251e-16 0)
(3 -3.07114e-16 0)
(3 -4.77046e-17 0)
(3 6.18146e-17 0)
(3 6.9591e-16 0)
(3 -3.25857e-17 0)
(3 -3.14477e-09 0)
(3 6.232e-09 0)
(3.00301 0.00209082 0)
(2.73091 0.419208 0)
(1.57824 0.92451 0)
(1.42686 0.906507 0)
(1.46506 0.900654 0)
(1.49618 0.890402 0)
(1.53289 0.87544 0)
(3 -1.61548e-16 0)
(3 -4.14513e-16 0)
(3 -5.18366e-16 0)
(3 -2.7355e-16 0)
(3 1.77179e-16 0)
(3 6.88878e-16 0)
(3 1.02333e-15 0)
(3 9.79386e-16 0)
(3 3.38668e-16 0)
(3 5.97622e-17 0)
(3 -2.0424e-16 0)
(3 -4.50224e-16 0)
(3 -2.92351e-16 0)
(3 2.68978e-16 0)
(3 6.60808e-16 0)
(3 -1.20983e-10 0)
(3 -1.19403e-10 0)
(3.00001 1.18956e-05 0)
(3.02509 0.0303294 0)
(2.14446 0.760844 0)
(1.49202 0.922674 0)
(1.49438 0.91496 0)
(1.527 0.89998 0)
(1.55898 0.886899 0)
(3 -1.07425e-17 0)
(3 7.62175e-18 0)
(3 -1.15768e-16 0)
(3 2.43413e-16 0)
(3 7.00197e-16 0)
(3 5.48572e-16 0)
(3 5.79258e-16 0)
(3 9.88512e-16 0)
(3 8.4077e-16 0)
(3 8.50596e-18 0)
(3 4.82365e-17 0)
(3 -1.84382e-16 0)
(3 -2.68741e-16 0)
(3 -1.08271e-15 0)
(3 -8.00785e-16 0)
(3 -1.0076e-12 0)
(3 -3.71043e-11 0)
(3 5.24321e-09 0)
(3.00062 0.00116087 0)
(2.92208 0.224337 0)
(1.81031 0.878429 0)
(1.52064 0.931179 0)
(1.55485 0.91899 0)
(1.58639 0.906081 0)
(3 -6.18143e-17 0)
(3 6.12392e-16 0)
(3 6.5298e-16 0)
(3 2.14959e-16 0)
(3 -7.25147e-17 0)
(3 -1.90975e-16 0)
(3 -1.09095e-16 0)
(3 2.2198e-16 0)
(3 4.20837e-16 0)
(3 3.48939e-16 0)
(3 1.86079e-16 0)
(3 9.73366e-16 0)
(3 1.37992e-15 0)
(3 1.00539e-16 0)
(3 9.05645e-16 0)
(3 -1.57272e-16 0)
(3 -4.7071e-12 0)
(3 -4.00609e-12 0)
(3 3.88143e-06 0)
(3.00671 0.013379 0)
(2.54448 0.550987 0)
(1.665 0.952356 0)
(1.56148 0.938714 0)
(1.59913 0.927202 0)
(3 1.11485e-16 0)
(3 1.36647e-16 0)
(3 1.50966e-16 0)
(3 -2.91074e-17 0)
(3 -6.15659e-16 0)
(3 -4.37134e-16 0)
(3 -4.6842e-16 0)
(3 -7.15175e-16 0)
(3 -6.21036e-16 0)
(3 4.28967e-16 0)
(3 4.29537e-16 0)
(3 5.08015e-16 0)
(3 1.45858e-15 0)
(3 1.91368e-15 0)
(3 2.62182e-15 0)
(3 1.99139e-15 0)
(3 -1.29084e-13 0)
(3 -1.36151e-12 0)
(3 1.72813e-09 0)
(3.00001 0.000270266 0)
(3.00006 0.0699645 0)
(2.16837 0.772634 0)
(1.62536 0.94827 0)
(1.61852 0.944536 0)
(3 1.67773e-16 0)
(3 -1.50427e-16 0)
(3 -1.01765e-16 0)
(3 -4.69201e-16 0)
(3 -2.50863e-16 0)
(3 -2.38722e-16 0)
(3 -4.13194e-16 0)
(3 -9.36964e-16 0)
(3 -1.37872e-15 0)
(3 -7.57656e-16 0)
(3 -1.41359e-16 0)
(3 5.11489e-17 0)
(3 4.20057e-16 0)
(3 5.43416e-16 0)
(3 3.60722e-16 0)
(3 1.20638e-16 0)
(3 -7.76594e-16 0)
(3 -2.00926e-13 0)
(3 1.73496e-13 0)
(3 4.26991e-07 0)
(3.00056 0.00337068 0)
(2.87418 0.252728 0)
(1.93965 0.868883 0)
(1.6593 0.954743 0)
(3 -2.72794e-17 0)
(3 -5.74644e-17 0)
(3 -1.32112e-16 0)
(3 -5.97616e-17 0)
(3 7.29461e-17 0)
(3 2.50223e-16 0)
(3 4.24554e-16 0)
(3 2.23275e-16 0)
(3 2.96325e-16 0)
(3 -2.31157e-16 0)
(3 -3.81809e-16 0)
(3 -2.38128e-16 0)
(3 -4.69599e-16 0)
(3 -2.82313e-16 0)
(3 -8.23071e-16 0)
(3 -8.5682e-16 0)
(3 -3.11313e-16 0)
(3 -1.37349e-14 0)
(3 -1.36178e-14 0)
(3 2.30037e-10 0)
(3 2.00532e-05 0)
(3.00085 0.017866 0)
(2.61497 0.480592 0)
(1.84324 0.925997 0)
(3 -2.88192e-17 0)
(3 -5.91753e-17 0)
(3 -3.18509e-16 0)
(3 1.4676e-16 0)
(3 9.50597e-17 0)
(3 3.65944e-16 0)
(3 9.77632e-16 0)
(3 7.61295e-16 0)
(3 6.60016e-16 0)
(3 5.31406e-16 0)
(3 4.30561e-16 0)
(3 3.86814e-16 0)
(3 8.11676e-17 0)
(3 6.8992e-17 0)
(3 6.75029e-17 0)
(3 -2.60982e-16 0)
(3 -1.46749e-16 0)
(3 -7.22159e-16 0)
(3 -5.20768e-15 0)
(3 2.94148e-14 0)
(3 1.71746e-08 0)
(2.99995 0.000369992 0)
(2.9869 0.0558432 0)
(2.37601 0.657895 0)
(3 -1.18857e-16 0)
(3 -6.50673e-17 0)
(3 -3.36701e-16 0)
(3 -4.09119e-16 0)
(3 -3.57872e-16 0)
(3 -1.08596e-16 0)
(3 -2.1915e-16 0)
(3 2.53711e-16 0)
(3 5.08948e-16 0)
(3 1.03405e-15 0)
(3 1.10422e-15 0)
(3 7.57428e-16 0)
(3 4.90194e-16 0)
(3 -1.4135e-16 0)
(3 1.54096e-16 0)
(3 3.42374e-16 0)
(3 5.11049e-16 0)
(3 3.82876e-16 0)
(3 -1.78743e-16 0)
(3 -4.09805e-16 0)
(3 7.17595e-12 0)
(3 6.98131e-07 0)
(2.99977 0.00234974 0)
(2.92983 0.1435 0)
(3 -1.7382e-17 0)
(3 3.11699e-17 0)
(3 1.16948e-16 0)
(3 9.60114e-17 0)
(3 3.27835e-16 0)
(3 -1.04678e-16 0)
(3 -5.54947e-16 0)
(3 -2.81894e-16 0)
(3 5.27314e-16 0)
(3 1.612e-15 0)
(3 1.55846e-15 0)
(3 8.13616e-16 0)
(3 6.64344e-16 0)
(3 5.24357e-16 0)
(3 9.85831e-16 0)
(3 1.29587e-15 0)
(3 6.15408e-16 0)
(3 6.23946e-16 0)
(3 4.17913e-16 0)
(3 -3.31227e-16 0)
(3 2.77924e-16 0)
(3 5.60923e-10 0)
(3 1.04685e-05 0)
(2.99861 0.00843824 0)
(3 9.10948e-17 0)
(3 2.53674e-16 0)
(3 6.89443e-16 0)
(3 8.52652e-16 0)
(3 7.3554e-16 0)
(3 4.77626e-16 0)
(3 3.47901e-16 0)
(3 1.59387e-16 0)
(3 3.91369e-16 0)
(3 4.74111e-16 0)
(3 6.2616e-16 0)
(3 1.42248e-15 0)
(3 1.742e-15 0)
(3 2.24112e-15 0)
(3 2.22151e-15 0)
(3 1.48418e-15 0)
(3 3.80226e-17 0)
(3 -6.20495e-16 0)
(3 -7.79566e-16 0)
(3 -9.03409e-16 0)
(3 -1.49384e-15 0)
(3 7.00039e-14 0)
(3 1.30063e-08 0)
(2.99998 7.61259e-05 0)
(3 5.26317e-18 0)
(3 4.49487e-17 0)
(3 4.89569e-16 0)
(3 2.80914e-16 0)
(3 2.11218e-16 0)
(3 5.48459e-16 0)
(3 1.04402e-15 0)
(3 1.03048e-15 0)
(3 7.35117e-16 0)
(3 3.13183e-16 0)
(3 2.87967e-16 0)
(3 4.79853e-16 0)
(3 7.86807e-16 0)
(3 1.12242e-15 0)
(3 1.07108e-15 0)
(3 3.79354e-16 0)
(3 -1.7413e-16 0)
(3 -5.23903e-16 0)
(3 -1.79672e-16 0)
(3 -3.61312e-17 0)
(3 -4.73624e-16 0)
(3 -1.18008e-16 0)
(3 4.39714e-12 0)
(3 1.032e-07 0)
(3 2.89379e-18 0)
(3 -1.51574e-16 0)
(3 -2.83244e-16 0)
(3 -2.3945e-16 0)
(3 -1.8058e-16 0)
(3 -2.83892e-16 0)
(3 1.61364e-16 0)
(3 9.97329e-16 0)
(3 1.30066e-15 0)
(3 7.57088e-16 0)
(3 8.11023e-17 0)
(3 -4.24627e-16 0)
(3 -7.11522e-16 0)
(3 -7.32977e-16 0)
(3 -1.16888e-15 0)
(3 -1.89847e-15 0)
(3 -1.42067e-15 0)
(3 2.87755e-16 0)
(3 1.36047e-15 0)
(3 1.28998e-15 0)
(3 1.4405e-15 0)
(3 7.30295e-16 0)
(3 6.63215e-16 0)
(3 8.90716e-11 0)
(3 8.6975e-19 0)
(3 -4.43322e-16 0)
(3 -8.50117e-16 0)
(3 -4.80369e-16 0)
(3 -4.5647e-16 0)
(3 -3.61191e-16 0)
(3 -6.52347e-16 0)
(3 -3.47503e-16 0)
(3 -2.20057e-16 0)
(3 -8.62165e-17 0)
(3 1.61991e-16 0)
(3 -2.77148e-16 0)
(3 -6.7276e-16 0)
(3 -1.55803e-15 0)
(3 -2.26734e-15 0)
(3 -2.71051e-15 0)
(3 -1.80379e-15 0)
(3 4.13307e-16 0)
(3 1.36194e-15 0)
(3 1.23179e-15 0)
(3 1.23767e-15 0)
(3 9.31041e-16 0)
(3 1.10251e-15 0)
(3 1.12729e-14 0)
(3 1.38007e-17 0)
(3 -2.44e-17 0)
(3 1.09173e-16 0)
(3 1.39794e-16 0)
(3 1.85102e-16 0)
(3 4.21758e-16 0)
(3 2.70857e-16 0)
(3 -4.19721e-16 0)
(3 -1.07938e-15 0)
(3 -5.47801e-16 0)
(3 -2.02254e-16 0)
(3 -2.85047e-16 0)
(3 -9.16594e-16 0)
(3 -1.4609e-15 0)
(3 -9.22999e-16 0)
(3 -5.00103e-16 0)
(3 -5.45803e-17 0)
(3 -3.99016e-16 0)
(3 -3.16908e-16 0)
(3 3.25204e-17 0)
(3 7.67215e-16 0)
(3 1.47218e-15 0)
(3 2.18422e-15 0)
(3 2.32306e-15 0)
(3 3.57541e-16 0)
(3 7.48629e-16 0)
(3 6.35577e-16 0)
(3 6.69906e-17 0)
(3 -1.08203e-16 0)
(3 -3.77803e-16 0)
(3 2.64049e-16 0)
(3 3.87135e-17 0)
(3 -4.44812e-16 0)
(3 -4.81144e-16 0)
(3 -7.47525e-16 0)
(3 -1.03789e-15 0)
(3 -1.56051e-15 0)
(3 -1.23143e-15 0)
(3 -6.48569e-16 0)
(3 1.11229e-15 0)
(3 1.02536e-15 0)
(3 -1.27151e-16 0)
(3 -6.64897e-16 0)
(3 2.39009e-16 0)
(3 2.76045e-16 0)
(3 5.68707e-16 0)
(3 2.15179e-15 0)
(3 2.37759e-15 0)
(3 2.0895e-16 0)
(3 2.84416e-16 0)
(3 7.50382e-17 0)
(3 -2.19195e-16 0)
(3 -3.33398e-16 0)
(3 -3.5167e-16 0)
(3 -6.50162e-17 0)
(3 -8.14575e-17 0)
(3 -2.06878e-16 0)
(3 -2.8296e-16 0)
(3 -4.79271e-16 0)
(3 -4.84279e-16 0)
(3 -8.12124e-16 0)
(3 -1.08004e-15 0)
(3 -9.62838e-16 0)
(3 -3.74547e-17 0)
(3 1.26846e-17 0)
(3 -9.10056e-17 0)
(3 -1.96407e-17 0)
(3 3.28443e-16 0)
(3 -1.83006e-16 0)
(3 2.78952e-16 0)
(3 4.14173e-16 0)
(3 1.88609e-15 0)
(1.50589 1.25566 0)
(1.86398 1.39961 0)
(2.23924 1.24757 0)
(2.65199 0.825069 0)
(2.62548 0.335529 0)
(2.60628 -0.012376 0)
(2.55045 -0.257571 0)
(2.46488 -0.451164 0)
(2.42537 -0.399031 0)
(2.44503 -0.242419 0)
(2.43334 -0.20487 0)
(2.43296 -0.226171 0)
(2.44009 -0.205132 0)
(2.42471 -0.143795 0)
(2.39544 -0.104164 0)
(2.36646 -0.0767246 0)
(2.36611 -0.0686538 0)
(2.3806 -0.0395617 0)
(2.38566 -0.0246082 0)
(2.39298 -0.0132523 0)
(2.39475 0.000577792 0)
(2.39204 0.00114153 0)
(2.39181 -0.00927891 0)
(2.39937 -0.01522 0)
(2.40424 -0.0143936 0)
(2.40245 -0.0112276 0)
(2.39131 -0.00566686 0)
(2.38207 -0.00419518 0)
(2.379 -0.00386758 0)
(2.39578 -0.003834 0)
(1.32978 0.0373694 0)
(0.757364 0.0404068 0)
(0.70792 0.00436391 0)
(0.71906 -0.0174877 0)
(0.749748 -0.0362745 0)
(0.799497 -0.0490083 0)
(0.858455 -0.0512181 0)
(0.917154 -0.0486672 0)
(0.971965 -0.045054 0)
(1.02213 -0.0415239 0)
(1.06822 -0.0384023 0)
(1.11044 -0.0349677 0)
(1.1471 -0.0301132 0)
(1.18056 -0.0246878 0)
(1.21491 -0.0208473 0)
(1.25354 -0.0192945 0)
(1.29865 -0.0193328 0)
(1.34505 -0.0202774 0)
(1.38216 -0.0214266 0)
(1.40874 -0.0206093 0)
(1.43037 -0.0144798 0)
(1.45006 -0.00522723 0)
(1.47208 0.000117802 0)
(1.50188 0.0024592 0)
(1.54025 0.00061742 0)
(1.57113 -0.00569647 0)
(1.59447 -0.00982864 0)
(1.61807 -0.0096936 0)
(1.63933 -0.00666123 0)
(1.65975 -0.00193681 0)
(1.68095 0.000952165 0)
(1.70469 0.00290105 0)
(1.73391 0.00249738 0)
(1.75936 -0.00159783 0)
(1.7795 -0.00396646 0)
(1.79995 -0.00390512 0)
(1.8159 -0.00147154 0)
(1.82717 0.00269627 0)
(1.84033 0.00641507 0)
(1.85808 0.00755944 0)
(1.87744 0.007674 0)
(1.90024 0.00715116 0)
(1.92502 0.00397364 0)
(1.94406 0.000749522 0)
(1.96213 0.00015841 0)
(1.97401 0.00195823 0)
(1.97799 0.00537386 0)
(1.98607 0.00812005 0)
(2.00162 0.0085572 0)
(2.01991 0.00854817 0)
(2.04024 0.0080762 0)
(2.06141 0.00587103 0)
(2.07974 0.00382693 0)
(2.09732 0.00258558 0)
(2.1073 0.00348848 0)
(2.10772 0.00699199 0)
(2.11323 0.00987591 0)
(2.1266 0.0104744 0)
(2.14112 0.0107057 0)
(2.15869 0.0103482 0)
(2.17768 0.00761406 0)
(2.1939 0.00604135 0)
(2.21087 0.00506814 0)
(2.22083 0.00475005 0)
(2.21899 0.00779103 0)
(2.23334 0.00993914 0)
(1.76508 1.09528 0)
(2.26128 0.884835 0)
(2.54996 0.462903 0)
(2.67878 0.0130555 0)
(2.70299 -0.226891 0)
(2.75823 -0.413478 0)
(2.73651 -0.632442 0)
(2.74939 -0.699319 0)
(2.69736 -0.644838 0)
(2.60697 -0.496034 0)
(2.56938 -0.31866 0)
(2.56622 -0.250919 0)
(2.54045 -0.224582 0)
(2.49224 -0.163649 0)
(2.45343 -0.0897204 0)
(2.43642 -0.0701133 0)
(2.4255 -0.0487466 0)
(2.42318 -0.0164595 0)
(2.42662 0.0104455 0)
(2.4247 0.00732272 0)
(2.42631 0.0157859 0)
(2.42054 0.016318 0)
(2.40994 0.00301065 0)
(2.41643 -0.0193759 0)
(2.4305 -0.0311095 0)
(2.43026 -0.0295926 0)
(2.42317 -0.0213308 0)
(2.41149 -0.0107451 0)
(2.40956 -0.00054511 0)
(2.41607 -0.00257719 0)
(1.53333 0.148709 0)
(0.838093 0.0557761 0)
(0.807786 -0.0290951 0)
(0.858224 -0.0694397 0)
(0.906887 -0.0725843 0)
(0.952207 -0.078115 0)
(0.998084 -0.0685526 0)
(1.03926 -0.0530726 0)
(1.07558 -0.0398108 0)
(1.10911 -0.0378577 0)
(1.14559 -0.0448737 0)
(1.18499 -0.0516709 0)
(1.22451 -0.0514919 0)
(1.25947 -0.041237 0)
(1.28902 -0.0241004 0)
(1.31737 -0.00842906 0)
(1.3446 -0.00273764 0)
(1.37465 -0.0105678 0)
(1.4114 -0.0284934 0)
(1.44426 -0.0393395 0)
(1.46879 -0.0380991 0)
(1.49033 -0.0263398 0)
(1.51296 -0.00574239 0)
(1.53766 0.0116343 0)
(1.55982 0.0160669 0)
(1.58181 0.00982124 0)
(1.60818 -0.00282734 0)
(1.63655 -0.0137802 0)
(1.66065 -0.0160003 0)
(1.68293 -0.0108657 0)
(1.70382 0.0019492 0)
(1.72417 0.0133087 0)
(1.74316 0.015951 0)
(1.76266 0.0110488 0)
(1.78567 0.00105661 0)
(1.80546 -0.00901145 0)
(1.82435 -0.0141593 0)
(1.84354 -0.0107453 0)
(1.85981 0.00218465 0)
(1.87241 0.0171199 0)
(1.8858 0.0257381 0)
(1.90274 0.02646 0)
(1.92203 0.0207661 0)
(1.94277 0.0114002 0)
(1.96061 0.000142745 0)
(1.97661 -0.00675985 0)
(1.99129 -0.00362685 0)
(2.00283 0.00843811 0)
(2.01237 0.0213938 0)
(2.02366 0.0274375 0)
(2.03936 0.0265739 0)
(2.0572 0.0220655 0)
(2.07563 0.0154128 0)
(2.09255 0.00671884 0)
(2.10682 -0.000539014 0)
(2.11759 0.0013601 0)
(2.12613 0.012942 0)
(2.13374 0.0249191 0)
(2.1442 0.0304818 0)
(2.15819 0.0309981 0)
(2.17484 0.0272706 0)
(2.19215 0.0192561 0)
(2.20814 0.0100972 0)
(2.22202 0.00199337 0)
(2.23052 0.00567486 0)
(2.24341 0.0192245 0)
(1.66604 1.04713 0)
(2.11865 0.789564 0)
(2.30656 0.654198 0)
(2.40533 0.494109 0)
(2.61178 0.152752 0)
(2.69798 -0.0614894 0)
(2.73928 -0.220686 0)
(2.73994 -0.282233 0)
(2.7315 -0.354268 0)
(2.73604 -0.383083 0)
(2.73774 -0.433235 0)
(2.73804 -0.456228 0)
(2.71184 -0.454652 0)
(2.67093 -0.393765 0)
(2.64698 -0.305699 0)
(2.64043 -0.242402 0)
(2.59073 -0.174884 0)
(2.53052 -0.11505 0)
(2.50885 -0.0629898 0)
(2.50367 -0.052618 0)
(2.50166 -0.0165339 0)
(2.48966 0.0119805 0)
(2.4812 0.0122065 0)
(2.47678 0.00311676 0)
(2.47695 -0.00536142 0)
(2.47784 -0.00624854 0)
(2.47749 -0.0116442 0)
(2.47144 -0.018386 0)
(2.46944 -0.0213504 0)
(2.46036 -0.0546558 0)
(2.026 0.0274296 0)
(1.12163 0.0507688 0)
(1.06292 -0.0310988 0)
(1.13951 -0.0971029 0)
(1.18428 -0.107382 0)
(1.20552 -0.104063 0)
(1.23368 -0.10104 0)
(1.2619 -0.0955044 0)
(1.28308 -0.0855731 0)
(1.29624 -0.0748769 0)
(1.3119 -0.0644654 0)
(1.33227 -0.0617458 0)
(1.36066 -0.0655299 0)
(1.39541 -0.0710503 0)
(1.42458 -0.0696066 0)
(1.44459 -0.0628159 0)
(1.46118 -0.0481742 0)
(1.47523 -0.0300765 0)
(1.49344 -0.0227019 0)
(1.51389 -0.0262237 0)
(1.53994 -0.0334038 0)
(1.56782 -0.0338049 0)
(1.59193 -0.0266902 0)
(1.61199 -0.0181243 0)
(1.62749 -0.00758119 0)
(1.63985 0.00121464 0)
(1.65799 0.00196033 0)
(1.67828 -0.00458204 0)
(1.70306 -0.0136693 0)
(1.72885 -0.0157101 0)
(1.7512 -0.0107011 0)
(1.77172 -0.000623958 0)
(1.78603 0.014342 0)
(1.79346 0.0259922 0)
(1.80557 0.0241909 0)
(1.82264 0.0162815 0)
(1.84617 0.00533645 0)
(1.87007 -0.000420218 0)
(1.8883 0.000128999 0)
(1.90613 0.00832116 0)
(1.91852 0.0236054 0)
(1.92274 0.0359498 0)
(1.9323 0.0360478 0)
(1.94847 0.0289798 0)
(1.96551 0.0205547 0)
(1.98618 0.0125558 0)
(2.00732 0.00775258 0)
(2.02401 0.0089693 0)
(2.03917 0.0178789 0)
(2.04818 0.0316042 0)
(2.05223 0.0405127 0)
(2.06166 0.0386476 0)
(2.07625 0.0317877 0)
(2.09127 0.0242702 0)
(2.10765 0.0192801 0)
(2.12593 0.0165399 0)
(2.1421 0.0184133 0)
(2.15585 0.0294599 0)
(2.16359 0.0434468 0)
(2.16771 0.0488083 0)
(2.17744 0.0434502 0)
(2.1906 0.0348078 0)
(2.20476 0.0265554 0)
(2.22023 0.0201025 0)
(2.23599 0.0193841 0)
(2.26011 0.0250064 0)
(1.61886 0.960442 0)
(1.88637 0.871245 0)
(2.10131 0.735029 0)
(2.32588 0.469578 0)
(2.46732 0.3052 0)
(2.52241 0.194311 0)
(2.61612 -0.00567094 0)
(2.6548 -0.0931026 0)
(2.70331 -0.217789 0)
(2.73209 -0.398572 0)
(2.73978 -0.43776 0)
(2.77135 -0.466929 0)
(2.77509 -0.485924 0)
(2.75738 -0.482983 0)
(2.73715 -0.456145 0)
(2.72336 -0.410253 0)
(2.69459 -0.343011 0)
(2.64875 -0.286096 0)
(2.61386 -0.226796 0)
(2.60953 -0.189692 0)
(2.59218 -0.122888 0)
(2.576 -0.0647757 0)
(2.56086 -0.0320475 0)
(2.54157 -0.0361733 0)
(2.52089 -0.0284297 0)
(2.51318 -0.0125229 0)
(2.51946 0.0137429 0)
(2.52508 0.0157971 0)
(2.51488 -0.00841775 0)
(2.45393 -0.109333 0)
(2.2234 -0.444981 0)
(1.54635 -0.180641 0)
(1.30369 -0.0599191 0)
(1.35162 -0.0438459 0)
(1.39413 -0.0719731 0)
(1.416 -0.104384 0)
(1.43311 -0.110045 0)
(1.45219 -0.102815 0)
(1.46457 -0.0907927 0)
(1.47075 -0.0770072 0)
(1.47587 -0.0585873 0)
(1.48719 -0.0480746 0)
(1.50436 -0.0445463 0)
(1.52882 -0.0444304 0)
(1.55582 -0.0499191 0)
(1.57251 -0.0533201 0)
(1.58631 -0.0525111 0)
(1.59625 -0.0430016 0)
(1.60027 -0.0241447 0)
(1.61178 -0.0087335 0)
(1.63074 -0.00258629 0)
(1.65529 -0.00164846 0)
(1.68035 -0.00716448 0)
(1.69982 -0.0121932 0)
(1.71756 -0.0140679 0)
(1.72987 -0.0092584 0)
(1.73466 0.00160846 0)
(1.74561 0.00857232 0)
(1.76371 0.00926568 0)
(1.78585 0.00542707 0)
(1.80786 -0.000721227 0)
(1.82644 -0.00422121 0)
(1.84381 -0.00462446 0)
(1.85523 0.00297107 0)
(1.85953 0.0175751 0)
(1.87151 0.0269536 0)
(1.88813 0.0286103 0)
(1.90742 0.0239751 0)
(1.9261 0.0171536 0)
(1.94172 0.0133794 0)
(1.95486 0.0115955 0)
(1.96107 0.0161899 0)
(1.96409 0.0259073 0)
(1.97462 0.0318293 0)
(1.99215 0.0336615 0)
(2.01026 0.0346295 0)
(2.03201 0.0316752 0)
(2.05054 0.0288786 0)
(2.06679 0.0279849 0)
(2.07944 0.0295094 0)
(2.08177 0.0356368 0)
(2.08017 0.0413788 0)
(2.08815 0.0415222 0)
(2.10439 0.0405065 0)
(2.12094 0.0412459 0)
(2.14019 0.0415448 0)
(2.161 0.0416611 0)
(2.17752 0.0424566 0)
(2.19191 0.046536 0)
(2.1954 0.0552226 0)
(2.19105 0.0584556 0)
(2.19822 0.0515875 0)
(2.21281 0.0456258 0)
(2.22895 0.0429623 0)
(2.24637 0.0425489 0)
(2.27377 0.0435299 0)
(1.57201 0.917596 0)
(1.77479 0.869402 0)
(1.99009 0.756075 0)
(2.19855 0.546211 0)
(2.29828 0.456198 0)
(2.36999 0.366142 0)
(2.50566 0.157646 0)
(2.56651 0.0110027 0)
(2.60062 0.0115029 0)
(2.63446 -0.0825296 0)
(2.658 -0.223139 0)
(2.67499 -0.24163 0)
(2.6907 -0.293563 0)
(2.71198 -0.366719 0)
(2.73081 -0.410974 0)
(2.73576 -0.407282 0)
(2.73523 -0.396051 0)
(2.71636 -0.392211 0)
(2.68962 -0.369551 0)
(2.67677 -0.330054 0)
(2.65413 -0.236189 0)
(2.65142 -0.184079 0)
(2.62563 -0.114402 0)
(2.60951 -0.110697 0)
(2.56674 -0.0826116 0)
(2.55244 -0.0618136 0)
(2.55885 -0.019852 0)
(2.56559 -0.00882513 0)
(2.46753 -0.12382 0)
(2.27735 -0.34446 0)
(2.04764 -0.659843 0)
(1.84505 -0.535159 0)
(1.53509 -0.245517 0)
(1.47033 -0.132273 0)
(1.47614 -0.0678807 0)
(1.507 -0.0616124 0)
(1.52832 -0.0819472 0)
(1.5555 -0.0970975 0)
(1.56794 -0.0951341 0)
(1.57426 -0.0855951 0)
(1.58012 -0.066301 0)
(1.58419 -0.0463683 0)
(1.59686 -0.0420721 0)
(1.61373 -0.0445529 0)
(1.63454 -0.0488415 0)
(1.65475 -0.049829 0)
(1.66883 -0.0480324 0)
(1.68069 -0.0432785 0)
(1.6893 -0.0323146 0)
(1.69552 -0.0167402 0)
(1.70903 -0.0067513 0)
(1.7285 -0.00497812 0)
(1.74884 -0.00675956 0)
(1.76826 -0.010966 0)
(1.78512 -0.0135228 0)
(1.79978 -0.0136785 0)
(1.8087 -0.00754745 0)
(1.81344 0.00420958 0)
(1.82495 0.0117182 0)
(1.84263 0.0130966 0)
(1.86035 0.0122505 0)
(1.87799 0.011031 0)
(1.89546 0.0107728 0)
(1.91115 0.0133899 0)
(1.92172 0.0233262 0)
(1.92602 0.0373138 0)
(1.93497 0.0432268 0)
(1.95095 0.0424369 0)
(1.96625 0.038017 0)
(1.98001 0.0307919 0)
(1.99177 0.0233147 0)
(2.00148 0.0195117 0)
(2.01 0.0238681 0)
(2.01875 0.0356419 0)
(2.03162 0.0464526 0)
(2.04827 0.051136 0)
(2.065 0.0520166 0)
(2.08174 0.0492017 0)
(2.09715 0.0434647 0)
(2.10768 0.0355673 0)
(2.11119 0.030431 0)
(2.11245 0.034491 0)
(2.11849 0.0456291 0)
(2.13176 0.0552334 0)
(2.14842 0.060036 0)
(2.16625 0.0630547 0)
(2.18427 0.0628967 0)
(2.2011 0.0600111 0)
(2.21549 0.0553972 0)
(2.22154 0.0512635 0)
(2.21856 0.0525625 0)
(2.22172 0.0575607 0)