/*--------------------------------*- C++ -*----------------------------------*\
  =========                 |
  \\      /  F ield         | OpenFOAM: The Open Source CFD Toolbox
   \\    /   O peration     | Website:  https://openfoam.org
    \\  /    A nd           | Version:  7
     \\/     M anipulation  |
\*---------------------------------------------------------------------------*/
FoamFile
{
    version     2.0;
    format      ascii;
    class       volScalarField;
    location    "3.3";
    object      p;
}
// * * * * * * * * * * * * * * * * * * * * * * * * * * * * * * * * * * * * * //

dimensions      [1 -1 -2 0 0 0 0];

internalField   nonuniform List<scalar> 
4032
(
1
1
1
1
1
1
1
1
1
1
1
1.15371
7.06052
10.5864
10.7433
10.9495
11.1377
11.3156
11.4803
11.6293
11.7622
11.8702
11.9545
12.016
1
1
1
1
1
1
1
1
1
1
1
1.11808
6.9149
10.5598
10.7284
10.9286
11.1142
11.289
11.4505
11.5948
11.7213
11.8209
11.8939
11.9475
1
1
1
1
1
1
1
1
1
1
1
1.01097
6.56474
10.5126
10.6789
10.8722
11.0545
11.2238
11.3797
11.5195
11.6444
11.7463
11.8208
11.881
1
1
1
1
1
1
1
1
1
1
1
1.00016
6.0448
10.4042
10.5966
10.7853
10.9667
11.1312
11.2821
11.4159
11.533
11.6227
11.679
11.7188
1
1
1
1
1
1
1
1
1
1
1
1
5.3583
10.2364
10.5071
10.6852
10.8605
11.0126
11.1472
11.2599
11.3537
11.4273
11.4732
11.5304
1
1
1
1
1
1
1
1
1
1
1
1
4.52792
9.96768
10.3977
10.5629
10.7237
10.8567
10.9717
11.0689
11.1483
11.2097
11.2243
11.1858
1
1
1
1
1
1
1
1
1
1
1
1
3.60088
9.54836
10.3027
10.4564
10.5964
10.6995
10.774
10.8271
10.8428
10.8046
10.734
10.6896
1
1
1
1
1
1
1
1
1
1
1
1
2.59312
8.89318
10.231
10.3508
10.4594
10.5297
10.5598
10.5609
10.5043
10.4189
10.2863
10.272
1
1
1
1
1
1
1
1
1
1
1
1
1.60545
7.97778
10.2024
10.2196
10.3048
10.3376
10.3205
10.2594
10.1084
9.83846
9.06555
7.20647
1
1
1
1
1
1
1
1
1
1
1
1
1.04875
6.68287
10.0661
9.95759
10.0354
10.0684
10.0296
9.91138
9.67124
9.20137
8.40661
6.32426
1
1
1
1
1
1
1
1
1
1
1
1
1.00014
4.91764
9.50342
9.79601
9.86567
9.83268
9.74537
9.56478
9.26044
8.69541
7.84965
5.92795
1
1
1
1
1
1
1
1
1
1
1
1
0.999998
3.03331
8.73964
9.64572
9.64753
9.61686
9.49851
9.26029
8.88912
8.31364
7.39371
5.8107
1
1
1
1
1
1
1
1
1
1
1
1
0.999999
1.48724
7.69926
9.73166
9.50844
9.38324
9.22858
8.95683
8.55271
7.99405
7.07151
5.85507
1
1
1
1
1
1
1
1
1
1
1
1
1
1.02597
5.88712
9.10036
9.15682
9.11718
8.9602
8.68594
8.2891
7.70587
6.87515
5.91768
1
1
1
1
1
1
1
1
1
1
1
1
1
0.999888
3.3438
8.3558
9.05443
8.98075
8.78812
8.47543
8.08484
7.49845
6.78297
5.98999
1
1
1
1
1
1
1
1
1
1
1
1
1
0.999969
1.39051
7.22209
9.11673
8.8419
8.58865
8.24361
7.86023
7.32529
6.71708
6.03858
1
1
1
1
1
1
1
1
1
1
1
1
1
0.999995
1.01411
5.05039
8.55179
8.54876
8.34219
8.04147
7.67125
7.20371
6.67661
6.08503
1
1
1
1
1
1
1
1
1
1
1
1
1
1
0.999926
2.30048
7.73004
8.50195
8.22191
7.91642
7.55347
7.12214
6.64074
6.1191
1
1
1
1
1
1
1
1
1
1
1
1
1
1
0.999981
1.12956
5.7674
8.29512
8.0108
7.76958
7.43883
7.04717
6.60845
6.14758
1
1
1
1
1
1
1
1
1
1
1
1
1
1
0.999997
1.00115
2.76433
7.41655
7.94143
7.69462
7.3782
7.01583
6.61402
6.19343
1
1
1
1
1
1
1
1
1
1
1
1
1
1
1
0.999999
1.21988
5.5835
7.88987
7.63519
7.33826
6.9862
6.60579
6.21038
1
1
1
1
1
1
1
1
1
1
1
1
1
1
1
1
1.00388
2.51269
6.9407
7.58783
7.2858
6.95367
6.59823
6.2271
1
1
1
1
1
1
1
1
1
1
1
1
1
1
1
1
1.00001
1.16699
4.99015
7.54513
7.25477
6.93337
6.59257
6.24235
1
1
1
1
1
1
1
1
1
1
1
1
1
1
1
1
1
1.00252
2.1187
6.35304
7.21342
6.89495
6.58464
6.25957
1
1
1
1
1
1
1
1
1
1
1
1
1
1
1
1
1
1.00001
1.09076
3.87929
6.97947
6.90978
6.62191
6.31443
1
1
1
1
1
1
1
1
1
1
1
1
1
1
1
1
1
1
1.00113
1.5781
5.40842
6.93159
6.64753
6.34177
1
1
1
1
1
1
1
1
1
1
1
1
1
1
1
1
1
1
1
1.02693
2.61448
6.09839
6.65715
6.37219
1
1
1
1
1
1
1
1
1
1
1
1
1
1
1
1
1
1
1
1.00025
1.18489
3.93555
6.3897
6.42749
1
1
1
1
1
1
1
1
1
1
1
1
1
1
1
1
1
1
1
1
1.00408
1.63826
4.90215
6.36751
1
1
1
1
1
1
1
1
1
1
1
1
1
1
1
1
1
1
1
1
1.00002
1.03376
2.3232
5.46231
1
1
1
1
1
1
1
1
1
1
1
1
1
1
1
1
1
1
1
1
1
1.00039
1.1321
3.12324
1
1
1
1
1
1
1
1
1
1
1
1
1
1
1
1
1
1
1
1
1
1
1.00276
1.33951
1
1
1
1
1
1
1
1
1
1
1
1
1
1
1
1
1
1
1
1
1
1
1.00001
1.01245
1
1
1
1
1
1
1
1
1
1
1
1
1
1
1
1
1
1
1
1
1
1
1
1.00011
1
1
1
1
1
1
1
1
1
1
1
1
1
1
1
1
1
1
1
1
1
1
1
1
1
1
1
1
1
1
1
1
1
1
1
1
1
1
1
1
1
1
1
1
1
1
1
1
1
1
1
1
1
1
1
1
1
1
1
1
1
1
1
1
1
1
1
1
1
1
1
1
1
1
1
1
1
1
1
1
1
1
1
1
1
1
1
1
1
1
1
1
1
1
1
1
1
1
1
1
1
1
1
1
1
1
1
1
1
1
1
1
1
1
1
1
1
1
1
1
1
1
1
1
1
1
1
1
1
1
1
1
1
1
1
1
1
1
1
1
1
1
1
1
1.61829
0.455623
0.124745
0.114667
0.170503
0.261206
0.358077
0.493637
0.685683
0.850336
0.937915
0.997537
1.05507
1.1348
1.212
1.28332
1.30764
1.28822
1.27794
1.28092
1.2786
1.26199
1.26714
1.28556
1.30213
1.31872
1.33552
1.34138
1.33958
1.32431
1.63215
4.61537
6.03212
6.12961
6.20378
6.20612
6.1318
6.03058
5.95647
5.91385
5.89668
5.87434
5.7989
5.66762
5.5196
5.39009
5.29253
5.2296
5.18363
5.11879
5.01702
4.90343
4.80102
4.72145
4.67463
4.63543
4.55228
4.44883
4.33058
4.21805
4.13531
4.07111
4.03025
3.99969
3.96167
3.89884
3.81844
3.70017
3.5787
3.50593
3.45549
3.41939
3.40147
3.38167
3.34336
3.29123
3.21438
3.11282
3.03583
2.9883
2.95151
2.9298
2.90956
2.87452
2.82507
2.7428
2.64709
2.58829
2.55505
2.52953
2.5154
2.50993
2.48702
2.45254
2.39954
2.28729
2.67463
1.49922
0.922296
0.588566
0.572784
0.549574
0.500852
0.505434
0.524482
0.577661
0.661346
0.729918
0.810858
0.905243
0.998635
1.09688
1.18785
1.20284
1.21084
1.23443
1.25965
1.26557
1.27273
1.28445
1.29105
1.30125
1.32052
1.33045
1.33052
1.31993
1.45282
4.34411
6.19735
6.21241
6.20256
6.19849
6.1501
6.0193
5.89089
5.79669
5.7431
5.72485
5.71381
5.655
5.52934
5.38866
5.26864
5.17973
5.12571
5.08919
5.03037
4.93065
4.81711
4.70915
4.6164
4.54071
4.48554
4.42643
4.35587
4.27862
4.19234
4.10532
4.02795
3.96248
3.89756
3.84055
3.77979
3.70866
3.63978
3.56139
3.49087
3.43537
3.39011
3.3435
3.30076
3.26072
3.20757
3.14353
3.07384
3.00816
2.95852
2.92034
2.88319
2.8486
2.80836
2.75203
2.68608
2.621
2.56933
2.53521
2.5078
2.4803
2.45696
2.42702
2.38966
2.30964
3.60534
2.36776
1.7379
1.26263
1.01167
0.894374
0.729706
0.615043
0.600946
0.584544
0.60091
0.6635
0.734743
0.791052
0.851662
0.927777
1.03187
1.10997
1.16067
1.21112
1.26604
1.28811
1.29136
1.30481
1.31539
1.32223
1.32603
1.32086
1.31059
1.32238
1.47899
3.91053
6.48953
6.43228
6.1447
6.07034
6.1051
6.07546
6.0019
5.89724
5.78322
5.69068
5.64438
5.61087
5.54834
5.45161
5.33273
5.21352
5.11543
5.04616
5.00178
4.95161
4.8792
4.7867
4.66058
4.50828
4.39716
4.33237
4.2982
4.28471
4.25126
4.18771
4.09706
3.96534
3.83152
3.74695
3.69056
3.65985
3.64801
3.61486
3.5633
3.49268
3.39507
3.30565
3.2467
3.19779
3.16152
3.1397
3.10674
3.05861
2.98973
2.91252
2.85424
2.80601
2.76128
2.72966
2.70052
2.66678
2.61829
2.55608
2.4978
2.45226
2.41298
2.37841
2.35071
2.3113
4.22597
3.15614
2.43043
1.8787
1.51865
1.30614
1.10964
0.93145
0.866493
0.813032
0.738918
0.720327
0.714474
0.717498
0.733281
0.769231
0.841102
0.946427
1.03144
1.084
1.14314
1.19834
1.22122
1.25514
1.30848
1.34088
1.34472
1.33176
1.32504
1.43841
1.92537
3.14631
5.84434
6.54373
6.32481
6.10403
5.99468
5.97326
5.93519
5.88721
5.78963
5.65781
5.57546
5.51096
5.4615
5.41108
5.33566
5.23757
5.1169
5.00245
4.92298
4.86431
4.81489
4.75057
4.67279
4.56792
4.43364
4.32945
4.27504
4.24394
4.22026
4.17088
4.10036
3.99778
3.85997
3.73496
3.67088
3.63693
3.62491
3.61082
3.57088
3.51591
3.42981
3.31322
3.21248
3.16141
3.13375
3.11873
3.10625
3.07503
3.02534
2.93908
2.83297
2.76434
2.7295
2.70685
2.69266
2.67417
2.64529
2.59801
2.51587
2.42976
2.3764
2.34263
2.32482
2.30091
4.66723
3.76156
3.04417
2.42287
2.03318
1.72807
1.46398
1.26938
1.11632
1.01661
0.940951
0.87597
0.829769
0.78712
0.752955
0.750426
0.758838
0.78949
0.847697
0.902097
0.968361
1.06262
1.13096
1.18027
1.23027
1.28494
1.29124
1.30691
1.41349
1.9528
2.80394
3.12323
4.17414
5.55533
6.11628
6.1182
6.01473
5.93359
5.88466
5.84641
5.79565
5.67092
5.53205
5.44501
5.37982
5.34367
5.31635
5.24778
5.15232
5.02288
4.89178
4.81249
4.75315
4.70065
4.64305
4.57827
4.49298
4.38048
4.2768
4.21566
4.16195
4.10162
4.03312
3.95868
3.87858
3.78913
3.70273
3.65087
3.61388
3.57703
3.53119
3.47378
3.40353
3.32367
3.24189
3.17315
3.13395
3.10842
3.08466
3.05475
3.01128
2.94143
2.84789
2.77116
2.72888
2.70127
2.67999
2.65945
2.63548
2.60034
2.53133
2.43721
2.36573
2.33246
2.31817
2.29387
4.97633
4.17475
3.50353
2.93007
2.47029
2.11491
1.81769
1.61396
1.43974
1.2514
1.15644
1.07814
1.01252
0.967343
0.904767
0.834834
0.803765
0.80555
0.800207
0.802751
0.822516
0.873051
0.951775
1.01768
1.08628
1.18158
1.21734
1.33172
1.8938
2.66816
3.26259
3.30409
3.42848
4.02587
5.12328
5.78641
5.89835
5.9232
5.87531
5.82072
5.75531
5.65486
5.50235
5.38192
5.31013
5.26824
5.25766
5.21597
5.13895
5.03361
4.88717
4.76173
4.69487
4.64498
4.60773
4.56625
4.50576
4.41733
4.2913
4.17333
4.10011
4.0445
3.9927
3.94512
3.899
3.84435
3.76534
3.6625
3.58248
3.52937
3.47691
3.42121
3.37002
3.32796
3.28526
3.22769
3.15315
3.0909
3.05146
3.01319
2.96674
2.91309
2.85991
2.80769
2.7502
2.69924
2.66789
2.64368
2.61301
2.56585
2.50628
2.44802
2.39561
2.34682
2.32043
2.28604
5.21609
4.50559
3.84755
3.32156
2.87648
2.4926
2.14614
1.90849
1.72631
1.5474
1.40949
1.29928
1.17229
1.10186
1.05192
0.980808
0.890325
0.846895
0.836595
0.826974
0.827062
0.834845
0.848814
0.862518
0.898585
0.977904
1.12175
1.62848
2.49953
2.95475
3.22532
3.27594
3.26536
3.33816
3.78012
4.75519
5.52174
5.7422
5.83339
5.79014
5.69877
5.62187
5.52091
5.39757
5.29042
5.22404
5.19323
5.17346
5.11051
5.02954
4.91596
4.76351
4.64925
4.59135
4.55664
4.53032
4.47878
4.41392
4.31441
4.17533
4.0667
4.00989
3.96713
3.93544
3.90057
3.85408
3.79284
3.69032
3.56148
3.47513
3.42526
3.38711
3.35578
3.33409
3.30748
3.26837
3.1957
3.08735
3.00602
2.95873
2.92088
2.8891
2.86114
2.83117
2.78907
2.72646
2.65699
2.59874
2.54952
2.5074
2.4759
2.45155
2.42532
2.38738
2.34149
2.28709
5.38158
4.73637
4.13742
3.64916
3.20221
2.79402
2.47899
2.21906
1.98231
1.78264
1.64915
1.52994
1.38993
1.26257
1.20659
1.15825
1.07098
0.969298
0.944173
0.929746
0.898156
0.878334
0.863438
0.838968
0.838684
0.886955
1.26767
2.12918
2.5392
2.76171
2.86708
2.95265
3.01814
3.09788
3.20546
3.55456
4.43582
5.25871
5.65319
5.70505
5.63521
5.56343
5.50492
5.44374
5.34151
5.21776
5.13987
5.08405
5.05385
4.99497
4.9178
4.81082
4.67077
4.56365
4.50575
4.46296
4.43468
4.38725
4.3233
4.22842
4.09977
3.99702
3.94161
3.90182
3.87278
3.83015
3.77607
3.70055
3.5885
3.47154
3.41066
3.3786
3.36372
3.35124
3.31616
3.27239
3.20236
3.09398
2.98229
2.92297
2.8938
2.87152
2.85285
2.83042
2.80179
2.74911
2.6524
2.55709
2.50388
2.47692
2.45864
2.44476
2.42904
2.40718
2.37569
2.29649
5.50852
4.91887
4.38152
3.9235
3.48508
3.06671
2.77119
2.50211
2.25267
2.02675
1.87193
1.72561
1.59947
1.46301
1.35603
1.294
1.23672
1.15577
1.05555
1.00943
0.985322
0.943561
0.902743
0.870513
0.908994
1.21321
1.8807
2.38137
2.426
2.40168
2.41246
2.48676
2.61199
2.73758
2.82971
2.96404
3.28544
4.01211
5.00697
5.39748
5.48687
5.48199
5.46589
5.4468
5.384
5.26877
5.10647
5.01034
4.95376
4.91978
4.88306
4.82127
4.73338
4.60304
4.48575
4.42291
4.37359
4.33619
4.29745
4.23864
4.15224
4.02937
3.92346
3.85874
3.80774
3.76478
3.72335
3.6781
3.61779
3.52917
3.43509
3.37556
3.33424
3.29252
3.25213
3.21129
3.16722
3.10321
3.01574
2.93047
2.88507
2.86137
2.84832
2.82983
2.79645
2.74125
2.64488
2.54248
2.4916
2.46871
2.45457
2.44986
2.44208
2.42611
2.39936
2.30242
5.60128
5.07307
4.5844
4.15063
3.71696
3.33224
3.02768
2.75552
2.48081
2.26854
2.09022
1.91472
1.77666
1.67146
1.55047
1.41604
1.35584
1.31286
1.23162
1.13307
1.08914
1.0496
1.00995
1.03809
1.29542
1.93959
2.46328
2.44664
2.39687
2.33331
2.30268
2.29512
2.31016
2.34886
2.41426
2.48964
2.58684
2.80084
3.4108
4.36793
5.05073
5.26753
5.41154
5.45543
5.39413
5.30328
5.14547
4.96373
4.87879
4.83182
4.81608
4.79629
4.74154
4.65667
4.52058
4.39199
4.32687
4.28108
4.2448
4.20283
4.14522
4.05901
3.93502
3.8255
3.76285
3.71776
3.67855
3.64253
3.60368
3.55443
3.47628
3.37684
3.3013
3.24893
3.20453
3.16135
3.12114
3.08513
3.0416
2.97811
2.90326
2.84785
2.8078
2.77147
2.73369
2.68878
2.63273
2.57637
2.5282
2.48836
2.46076
2.43826
2.41745
2.39435
2.36629
2.28302
5.68293
5.2059
4.75511
4.34363
3.93149
3.56705
3.25578
2.9705
2.69544
2.48936
2.30453
2.11621
1.93488
1.83241
1.73378
1.60042
1.47237
1.42161
1.37251
1.29273
1.20246
1.14464
1.17333
1.4486
2.07116
2.62644
2.64535
2.57565
2.49783
2.44388
2.37723
2.3156
2.29062
2.2785
2.27469
2.28265
2.29523
2.29035
2.34994
2.70171
3.54526
4.49587
5.03116
5.28371
5.3564
5.30015
5.18511
4.9999
4.83219
4.76672
4.72769
4.73455
4.70845
4.64854
4.55933
4.41993
4.29547
4.2283
4.17895
4.13733
4.0933
4.03689
3.95477
3.84643
3.74793
3.68666
3.64537
3.6107
3.58081
3.54265
3.48007
3.38552
3.28673
3.21662
3.1654
3.12371
3.0912
3.06387
3.0364
2.99357
2.92367
2.84257
2.77961
2.73379
2.69118
2.64687
2.61709
2.59535
2.56607
2.52122
2.47021
2.42832
2.39167
2.35092
2.31039
2.24309
5.76001
5.31196
4.90085
4.50558
4.10638
3.76878
3.47017
3.1723
2.89747
2.68883
2.49511
2.31026
2.12416
1.98992
1.87411
1.76605
1.64679
1.54096
1.47583
1.41117
1.33607
1.37009
1.70323
2.37307
2.87309
2.89578
2.80333
2.71584
2.66902
2.62285
2.55551
2.46384
2.37267
2.30947
2.27542
2.25421
2.23715
2.2355
2.21119
2.18487
2.28909
2.79686
3.75235
4.55259
5.0387
5.16719
5.15866
5.05065
4.87851
4.73072
4.66913
4.62958
4.62241
4.59895
4.53954
4.4472
4.30945
4.19031
4.12356
4.07385
4.02836
3.9836
3.93384
3.86604
3.77315
3.68659
3.62625
3.57769
3.52796
3.47539
3.42569
3.36817
3.28733
3.2079
3.15493
3.1165
3.07962
3.04008
2.9998
2.96269
2.91713
2.84685
2.76817
2.70527
2.66165
2.63393
2.6149
2.5948
2.57007
2.53104
2.47325
2.41235
2.36216
2.3149
2.27207
2.21399
5.80265
5.39182
5.00782
4.6294
4.26148
3.94773
3.64645
3.338
3.09448
2.88484
2.67642
2.45959
2.30037
2.16391
2.02135
1.89377
1.79561
1.69527
1.59592
1.51357
1.56671
1.97705
2.76683
3.22897
3.20139
3.07574
2.95077
2.88512
2.83855
2.77845
2.71095
2.62615
2.5094
2.42613
2.37064
2.31785
2.26813
2.2324
2.20403
2.18426
2.14126
2.11444
2.28038
2.90437
3.83524
4.53869
4.91201
4.99744
4.94406
4.79482
4.6477
4.57137
4.52756
4.49598
4.46894
4.4158
4.32837
4.20377
4.09384
4.02785
3.9808
3.93904
3.8961
3.84797
3.78085
3.69285
3.61265
3.54867
3.49172
3.43952
3.3883
3.3326
3.27083
3.20611
3.15388
3.11184
3.07039
3.0263
2.9799
2.92989
2.87545
2.82051
2.75635
2.69789
2.66521
2.64185
2.61652
2.58663
2.55289
2.5167
2.46516
2.39793
2.33535
2.28374
2.24763
2.20875
5.84426
5.47062
5.11043
4.74641
4.40829
4.10679
3.80899
3.5079
3.27116
3.05202
2.83957
2.62291
2.46555
2.31977
2.17589
2.02822
1.91799
1.82658
1.73327
1.79461
2.2402
3.07012
3.57633
3.54441
3.40475
3.24777
3.11919
3.05522
2.99469
2.93202
2.8692
2.79739
2.70156
2.58051
2.48244
2.4143
2.35762
2.30297
2.25435
2.21416
2.17201
2.12062
2.04258
2.04909
2.29181
3.00542
3.84771
4.55712
4.74604
4.79479
4.70198
4.56285
4.47334
4.41481
4.36368
4.32497
4.28067
4.21025
4.1149
4.02687
3.96076
3.90936
3.86179
3.8117
3.75243
3.67373
3.58888
3.52354
3.47424
3.4284
3.37891
3.32415
3.26256
3.19708
3.13952
3.09164
3.05029
3.01069
2.96589
2.91232
2.85434
2.79269
2.73255
2.69057
2.66518
2.64017
2.61039
2.57425
2.53199
2.47893
2.41317
2.34772
2.29657
2.26403
2.24934
2.21843
5.88613
5.54076
5.19794
4.85015
4.5384
4.24596
3.94541
3.66103
3.43355
3.21093
2.98278
2.78011
2.62256
2.46642
2.3203
2.16351
2.04624
1.96433
2.06721
2.60596
3.38855
3.8668
3.85634
3.734
3.60664
3.46756
3.31413
3.21637
3.14263
3.07412
3.00404
2.92862
2.84653
2.74742
2.62753
2.52126
2.45062
2.39306
2.3383
2.28433
2.23319
2.17899
2.1121
2.01885
1.97115
2.01042
2.34369
3.11839
3.90708
4.44143
4.55954
4.58456
4.50042
4.36931
4.28258
4.23254
4.18987
4.15233
4.10901
4.04476
3.96672
3.89673
3.8373
3.77891
3.71272
3.63078
3.54354
3.48642
3.4511
3.41834
3.38246
3.33798
3.27624
3.18522
3.09432
3.05204
3.02153
2.98793
2.95026
2.90904
2.86046
2.79437
2.7237
2.68414
2.65808
2.62915
2.59524
2.55422
2.5113
2.45823
2.38556
2.30778
2.26938
2.25349
2.24579
2.21769
5.93134
5.60365
5.27205
4.95185
4.65563
4.36368
4.06778
3.81097
3.57954
3.35403
3.11913
2.94057
2.77378
2.6156
2.42925
2.29458
2.2223
2.40819
3.14541
3.96485
4.18082
4.11528
3.97288
3.88017
3.80476
3.69789
3.54705
3.38463
3.28547
3.20905
3.13429
3.05796
2.97944
2.89178
2.78195
2.65779
2.55823
2.48704
2.42522
2.36768
2.30978
2.25035
2.18483
2.10455
2.00577
1.94362
1.92936
2.00868
2.41864
3.15335
3.88315
4.28706
4.40934
4.36556
4.22523
4.17491
4.13854
4.09968
4.05985
4.01204
3.94806
3.88032
3.81935
3.75951
3.69133
3.60353
3.50421
3.44245
3.41351
3.38887
3.36294
3.33148
3.28342
3.19269
3.07764
3.00427
2.96525
2.93612
2.9124
2.88942
2.85945
2.81072
2.73304
2.64622
2.58759
2.55852
2.53859
2.52064
2.49303
2.44653
2.37326
2.29522
2.26318
2.24598
2.23344
2.20275
5.99954
5.67865
5.35499
5.0519
4.76213
4.47197
4.19006
3.95017
3.71602
3.4846
3.26298
3.08685
2.91357
2.72948
2.5619
2.50595
2.77458
3.65103
4.58774
4.72087
4.50833
4.25695
4.12408
4.06326
4.00394
3.8995
3.765
3.58964
3.43664
3.33961
3.25638
3.17576
3.09362
3.00691
2.90926
2.79068
2.66562
2.57248
2.50308
2.44069
2.38105
2.32561
2.26815
2.20354
2.11993
2.02016
1.92795
1.90321
1.89989
2.00595
2.45627
3.14945
3.85072
4.12811
4.12712
4.152
4.11902
4.06294
4.0204
3.96248
3.8953
3.83043
3.77199
3.71815
3.65875
3.58651
3.50501
3.4276
3.3686
3.33435
3.31037
3.29031
3.25886
3.1909
3.08031
2.97508
2.92508
2.89712
2.87256
2.8486
2.82267
2.79275
2.73269
2.62639
2.54871
2.51575
2.49398
2.47097
2.44511
2.41572
2.37299
2.30975
2.26602
2.25053
2.23994
2.208
6.03496
5.72036
5.41965
5.13452
4.85002
4.56085
4.31066
4.07552
3.84316
3.60585
3.39858
3.22002
3.0322
2.84647
2.85235
3.27306
4.15418
5.00556
5.20985
5.04465
4.76326
4.48831
4.33739
4.25412
4.16927
4.05573
3.93006
3.78545
3.61899
3.47716
3.37244
3.28126
3.19254
3.10467
3.01672
2.91953
2.80088
2.67672
2.58063
2.50798
2.44332
2.38402
2.3277
2.27168
2.20683
2.12698
2.0331
1.95116
1.88239
1.85816
1.86657
2.00198
2.45153
3.11825
3.65751
3.93652
3.99237
4.02658
3.99767
3.93542
3.87253
3.79196
3.70557
3.64286
3.59083
3.5405
3.4862
3.42428
3.36217
3.30614
3.25494
3.21028
3.17603
3.14118
3.07266
2.98812
2.91535
2.86589
2.83323
2.80923
2.79242
2.76948
2.72197
2.63372
2.54127
2.48768
2.45722
2.43323
2.41384
2.39654
2.37507
2.3405
2.28944
2.23018
2.19864
2.16293
6.06836
5.7736
5.49275
5.21827
4.93871
4.66615
4.43206
4.1941
3.95774
3.72766
3.52134
3.3387
3.16225
3.25842
3.93671
4.91553
5.42731
5.52285
5.39704
5.19667
5.00285
4.78176
4.56818
4.42911
4.31639
4.20343
4.08633
3.96063
3.80842
3.63256
3.48631
3.37989
3.28766
3.19876
3.11229
3.02243
2.91818
2.7952
2.67515
2.58008
2.50272
2.43414
2.37149
2.31362
2.25922
2.19955
2.12508
2.03908
1.95443
1.88858
1.83271
1.80882
1.82508
1.98917
2.4274
3.06521
3.48724
3.77911
3.87806
3.89741
3.86557
3.77652
3.66829
3.57876
3.51871
3.47498
3.43816
3.40109
3.35881
3.30459
3.23618
3.16378
3.10072
3.04953
3.01472
2.97203
2.92044
2.87337
2.82848
2.78005
2.72455
2.67646
2.64279
2.60893
2.55571
2.49281
2.44218
2.41117
2.39161
2.37787
2.36377
2.34281
2.30037
2.22589
2.17517
2.13248
6.1481
5.85453
5.58159
5.31138
5.03121
4.77829
4.53953
4.30295
4.06287
3.82614
3.6509
3.50792
3.74539
4.65703
5.87865
6.05564
5.91092
5.67761
5.50836
5.39926
5.25009
5.04224
4.78569
4.59955
4.47745
4.36458
4.24453
4.11424
3.96324
3.78181
3.60615
3.47846
3.37893
3.28574
3.19499
3.10335
3.00526
2.89445
2.77758
2.67346
2.58635
2.50933
2.43775
2.36953
2.30387
2.23819
2.17364
2.10216
2.02937
1.95968
1.89489
1.83624
1.78733
1.75846
1.78028
1.94876
2.3772
2.93231
3.39934
3.6362
3.72607
3.71556
3.65397
3.55782
3.46638
3.40067
3.37602
3.35624
3.32337
3.2823
3.23509
3.16754
3.0724
2.98833
2.93867
2.90854
2.88514
2.86167
2.83104
2.77524
2.69262
2.6242
2.58452
2.55927
2.53553
2.50216
2.46076
2.4236
2.39294
2.36509
2.34389
2.32687
2.29229
2.22892
2.17043
2.11342
6.21396
5.92598
5.65465
5.38265
5.11262
4.88098
4.63095
4.38885
4.14284
3.95577
3.92676
4.36881
5.41268
6.47308
6.77603
6.51133
6.12087
5.86029
5.73322
5.64711
5.49126
5.27282
5.00212
4.78354
4.64857
4.52531
4.39327
4.25139
4.09597
3.92135
3.74222
3.59468
3.48103
3.37909
3.27889
3.1782
3.07544
2.96622
2.85247
2.74769
2.6606
2.58637
2.51576
2.44287
2.36356
2.27765
2.19398
2.11979
2.06235
2.00932
1.9578
1.90388
1.84366
1.7856
1.74252
1.69848
1.72355
1.88389
2.3303
2.85233
3.33269
3.52198
3.56777
3.53882
3.45842
3.37602
3.30822
3.27137
3.25991
3.25361
3.22331
3.16666
3.07151
2.95932
2.88858
2.86779
2.85967
2.85051
2.82647
2.77735
2.68736
2.5948
2.54365
2.5229
2.50799
2.48997
2.46515
2.43393
2.3985
2.36121
2.32099
2.27388
2.2271
2.19088
2.15529
2.10138
6.21158
6.00552
5.72458
5.44898
5.2043
4.96962
4.70431
4.47774
4.27599
4.45226
5.26641
6.43558
7.02547
7.208
7.034
6.72751
6.40778
6.14492
5.9875
5.84774
5.6706
5.45426
5.21163
4.97478
4.8014
4.65875
4.51381
4.36431
4.21192
4.05109
3.87939
3.71453
3.58045
3.46906
3.36339
3.25823
3.15277
3.04142
2.92241
2.80812
2.71437
2.63895
2.57123
2.50516
2.43319
2.35167
2.26087
2.16456
2.07835
2.01454
1.96863
1.92854
1.88782
1.84121
1.77922
1.71845
1.66942
1.62591
1.66313
1.85168
2.28787
2.78441
3.20341
3.40067
3.42869
3.39293
3.31743
3.24574
3.19921
3.1637
3.12359
3.08372
3.03896
2.9671
2.90308
2.85515
2.81142
2.76905
2.7346
2.69672
2.64881
2.59708
2.54849
2.50391
2.4782
2.46079
2.44665
2.43323
2.4086
2.35932
2.29385
2.23199
2.18642
2.15219
2.12203
2.08867
5.69873
6.06407
5.82626
5.52379
5.30472
5.028
4.80008
4.68207
5.09942
6.26561
7.55408
7.87007
7.60654
7.38418
7.16086
6.95688
6.72307
6.46427
6.23501
6.0274
5.82312
5.61522
5.39738
5.16433
4.95243
4.78046
4.6239
4.47274
4.32438
4.17008
4.00226
3.82789
3.67503
3.55317
3.44322
3.33702
3.23259
3.12243
3.0012
2.87654
2.76606
2.67614
2.59984
2.53319
2.46918
2.39849
2.31392
2.21791
2.12929
2.0575
1.99839
1.94655
1.89798
1.8515
1.80689
1.7578
1.69081
1.62683
1.58873
1.56903
1.61961
1.83761
2.26645
2.75032
3.09711
3.28516
3.28101
3.24556
3.1902
3.12782
3.07554
3.02367
2.97062
2.93318
2.89861
2.85264
2.78732
2.72548
2.67972
2.64703
2.62517
2.59668
2.54961
2.48803
2.46011
2.45499
2.43748
2.40148
2.35562
2.30889
2.25178
2.19151
2.14919
2.12171
2.1116
2.12668
3.87186
5.75722
5.88701
5.65188
5.3756
5.1077
5.2054
6.0295
7.36297
8.30168
8.61171
8.32388
7.88538
7.53134
7.33534
7.19242
6.97955
6.71707
6.44823
6.20852
5.99859
5.79578
5.58345
5.35473
5.12479
4.92204
4.7468
4.58647
4.43261
4.27429
4.10468
3.93007
3.7703
3.6366
3.51583
3.40393
3.29619
3.18395
3.0627
2.93814
2.82456
2.72954
2.64653
2.57013
2.49514
2.41969
2.34091
2.25186
2.16072
2.08474
2.029
1.98307
1.93913
1.89441
1.84842
1.7906
1.72631
1.66644
1.60268
1.55066
1.52704
1.51844
1.58585
1.84435
2.24713
2.72236
2.95981
3.11116
3.11288
3.08205
3.02362
2.99843
2.97182
2.93382
2.88851
2.83046
2.76222
2.70107
2.65531
2.61806
2.58152
2.54832
2.51909
2.48745
2.45334
2.41058
2.37401
2.33864
2.30182
2.26102
2.21991
2.17424
2.13999
2.13126
2.15536
2.3911
1.67362
4.34872
5.77408
5.68404
5.46849
5.88139
7.30932
8.80513
9.03187
8.90205
8.82302
8.54832
8.18941
7.83405
7.61394
7.441
7.21777
6.94783
6.68093
6.43816
6.20803
5.98356
5.75768
5.52557
5.29075
5.06951
4.86971
4.6868
4.51491
4.3484
4.18206
4.01895
3.8653
3.72247
3.58894
3.46587
3.34729
3.22638
3.10337
2.98255
2.87082
2.77385
2.69001
2.61548
2.54224
2.46512
2.37865
2.28357
2.19462
2.12063
2.06045
2.00725
1.95908
1.91273
1.86263
1.80702
1.74852
1.68476
1.62273
1.57454
1.53521
1.50971
1.49136
1.4893
1.56377
1.81825
2.23081
2.66962
2.91544
2.94265
2.95286
2.93403
2.89881
2.85508
2.80283
2.74889
2.70036
2.65081
2.60805
2.57581
2.54718
2.52571
2.50354
2.4652
2.39709
2.32766
2.28642
2.25984
2.2372
2.21463
2.20958
2.20688
2.23108
2.33457
2.56106
3.08601
1.0394
2.0526
4.78075
5.44259
6.71172
8.77141
10.097
10.1094
9.56368
9.15878
8.95093
8.76756
8.45908
8.10559
7.85341
7.64809
7.41631
7.14295
6.86068
6.60797
6.36769
6.13114
5.90079
5.67432
5.43958
5.20662
4.98985
4.79306
4.61086
4.43894
4.27531
4.1173
3.96308
3.81615
3.69982
3.58687
3.46842
3.34678
3.22349
3.10107
2.98571
2.88333
2.79296
2.71075
2.6304
2.54817
2.4597
2.36729
2.28035
2.2032
2.136
2.07421
2.01694
1.96274
1.90448
1.83844
1.7648
1.69847
1.64813
1.61486
1.58321
1.55116
1.49737
1.45957
1.42161
1.43148
1.53037
1.79466
2.21477
2.57873
2.83588
2.87646
2.85389
2.81288
2.76095
2.70588
2.65
2.58469
2.53954
2.52604
2.52395
2.51518
2.49238
2.44869
2.37325
2.28457
2.23545
2.22183
2.22053
2.22172
2.27448
2.44279
2.72998
3.10289
3.41515
3.67955
1.00053
1.09295
2.38578
5.73029
10.4356
11.1427
10.9527
10.4437
9.86046
9.47059
9.24137
9.04389
8.72552
8.37412
8.12316
7.9114
7.67661
7.40725
7.10526
6.78956
6.52382
6.30468
6.09212
5.85889
5.5986
5.33172
5.09787
4.88904
4.69792
4.51802
4.34705
4.17697
4.00811
3.84819
3.70015
3.565
3.43761
3.31435
3.19467
3.07759
2.96581
2.86278
2.76652
2.67564
2.58963
2.51041
2.43309
2.35333
2.27231
2.19428
2.12352
2.05946
1.9945
1.92827
1.86903
1.8173
1.76292
1.71225
1.67136
1.63362
1.59087
1.54778
1.50226
1.46044
1.41786
1.38855
1.37163
1.39017
1.52552
1.82176
2.24083
2.52807
2.72728
2.75394
2.74285
2.71382
2.65021
2.57631
2.52671
2.4806
2.44765
2.42944
2.40625
2.37125
2.32518
2.26666
2.23188
2.23308
2.27609
2.46026
2.82912
3.27087
3.61894
3.84648
3.85258
3.79184
1
1.00144
1.20799
7.62662
12.7789
11.6936
10.9491
10.4438
10.0034
9.70066
9.49495
9.27557
8.92305
8.55925
8.3
8.06532
7.80492
7.5228
7.21956
6.90938
6.61361
6.34493
6.09587
5.88088
5.70121
5.5087
5.28689
5.06551
4.85858
4.66656
4.4848
4.30433
4.11788
3.93711
3.76678
3.61502
3.47998
3.3541
3.23433
3.11902
3.00743
2.90009
2.79801
2.70074
2.60907
2.52774
2.45679
2.39096
2.3198
2.24095
2.16255
2.08718
2.01652
1.93989
1.87033
1.82334
1.78956
1.75295
1.7138
1.67139
1.62364
1.57217
1.5215
1.47301
1.42968
1.39017
1.35527
1.33428
1.33152
1.36918
1.54473
1.86029
2.24764
2.42145
2.56955
2.62261
2.61278
2.58878
2.53756
2.46883
2.41288
2.37613
2.34738
2.33055
2.30421
2.29012
2.33064
2.50727
2.85323
3.33858
3.75185
4.01175
4.08382
4.06063
3.97471
3.82439
1
1.00001
1.66892
8.71637
11.7955
10.9706
10.6081
10.3585
10.142
9.94284
9.7369
9.41711
9.02722
8.69238
8.43944
8.20645
7.94073
7.63952
7.32123
7.0168
6.72619
6.44875
6.18284
5.93761
5.70518
5.47719
5.2507
5.0276
4.81819
4.62476
4.44216
4.26931
4.10468
3.94413
3.78623
3.63487
3.49274
3.35811
3.2319
3.11473
3.00709
2.90865
2.81791
2.72935
2.63646
2.53761
2.43663
2.34458
2.26818
2.20185
2.14138
2.08238
2.0285
1.97391
1.90789
1.8303
1.76216
1.71301
1.67245
1.63509
1.59813
1.5627
1.52394
1.47923
1.42757
1.37793
1.34141
1.3114
1.29062
1.27481
1.27907
1.34096
1.53359
1.89064
2.22962
2.40574
2.46416
2.48985
2.47302
2.43116
2.38232
2.33875
2.32945
2.34383
2.41321
2.60968
2.96563
3.40353
3.79479
4.08965
4.15012
4.14062
4.10579
4.03652
3.93522
3.8543
1
1
2.42372
9.14479
11.0316
10.794
10.6783
10.5257
10.3348
10.136
9.90282
9.57924
9.22227
8.90642
8.63706
8.37465
8.07749
7.75235
7.42019
7.10904
6.83189
6.57153
6.31272
6.06284
5.81565
5.56561
5.32114
5.09157
4.88093
4.68717
4.5049
4.33041
4.16049
3.99334
3.82909
3.67193
3.52344
3.38393
3.25539
3.1377
3.03041
2.93159
2.83802
2.74412
2.64622
2.54455
2.44112
2.34729
2.269
2.20451
2.1505
2.0994
2.0446
1.97848
1.90397
1.82725
1.76201
1.71201
1.67045
1.63475
1.60056
1.56722
1.53007
1.48466
1.43139
1.3804
1.34093
1.30786
1.28435
1.26113
1.24566
1.22805
1.23736
1.33462
1.56854
1.90378
2.19715
2.40751
2.4276
2.41012
2.37704
2.38648
2.46991
2.67469
3.05479
3.5139
3.93037
4.15908
4.27651
4.27792
4.24357
4.15441
4.05519
3.95949
3.88682
3.82526
1
1
2.55698
9.28347
10.7733
10.7353
10.6684
10.5433
10.3742
10.1706
9.8979
9.57022
9.24516
8.94824
8.65888
8.35714
8.04415
7.72684
7.4239
7.13552
6.86645
6.61169
6.34099
6.07224
5.8101
5.55816
5.32285
5.10528
4.90246
4.70962
4.5222
4.33893
4.16166
3.9935
3.83636
3.69029
3.5511
3.41557
3.28299
3.15598
3.04021
2.93643
2.84111
2.7473
2.65148
2.55266
2.45101
2.35791
2.27942
2.21415
2.15671
2.10019
2.04119
1.9744
1.90033
1.82512
1.76214
1.71498
1.67613
1.64376
1.61216
1.57846
1.53772
1.48337
1.42053
1.36987
1.33799
1.31182
1.28931
1.26608
1.24411
1.21679
1.18479
1.15473
1.18
1.33265
1.63621
1.99345
2.23315
2.41182
2.65794
2.93554
3.23371
3.53719
3.87244
4.07823
4.27039
4.37092
4.31343
4.22978
4.14362
4.07384
4.01003
3.94468
3.90314
3.85508
1
1
2.51781
9.37997
10.6786
10.6775
10.6263
10.5319
10.3832
10.1845
9.93118
9.64975
9.36388
9.07031
8.75785
8.43667
8.11382
7.8041
7.51159
7.23088
6.96452
6.67984
6.38886
6.10377
5.83673
5.58772
5.35364
5.13401
4.92659
4.72712
4.53229
4.34223
4.16121
3.99466
3.84343
3.70317
3.56653
3.42887
3.28997
3.15629
3.03735
2.93424
2.84175
2.75186
2.66136
2.56649
2.46411
2.36604
2.28233
2.21334
2.15304
2.09435
2.03445
1.96773
1.89558
1.82456
1.76645
1.72378
1.68748
1.65496
1.61951
1.58099
1.53765
1.4815
1.4117
1.35362
1.32868
1.3116
1.29544
1.27912
1.2575
1.22312
1.16744
1.12098
1.10391
1.11688
1.2015
1.4683
1.96368
2.61603
3.22868
3.81205
4.29878
4.68694
4.89069
4.80941
4.67741
4.50213
4.29501
4.16017
4.05437
4.00148
3.95352
3.90743
3.88188
3.83928
)
;

boundaryField
{
    inlet
    {
        type            fixedValue;
        value           uniform 1;
    }
    outlet
    {
        type            zeroGradient;
    }
    bottom
    {
        type            symmetryPlane;
    }
    top
    {
        type            symmetryPlane;
    }
    obstacle
    {
        type            zeroGradient;
    }
    defaultFaces
    {
        type            empty;
    }
}


// ************************************************************************* //
