/*--------------------------------*- C++ -*----------------------------------*\
  =========                 |
  \\      /  F ield         | OpenFOAM: The Open Source CFD Toolbox
   \\    /   O peration     | Website:  https://openfoam.org
    \\  /    A nd           | Version:  7
     \\/     M anipulation  |
\*---------------------------------------------------------------------------*/
FoamFile
{
    version     2.0;
    format      ascii;
    class       volScalarField;
    location    "3.3";
    object      T;
}
// * * * * * * * * * * * * * * * * * * * * * * * * * * * * * * * * * * * * * //

dimensions      [0 0 0 1 0 0 0];

internalField   nonuniform List<scalar> 
4032
(
1
1
1
1
1
1
1
1
1
1
1
1.08568
2.35208
2.71257
2.7274
2.74435
2.75931
2.77258
2.78342
2.79215
2.80036
2.80881
2.81683
2.82227
1
1
1
1
1
1
1
1
1
1
1
1.06701
2.33655
2.71102
2.72633
2.74278
2.75764
2.77074
2.7814
2.78982
2.79758
2.80546
2.81273
2.81764
1
1
1
1
1
1
1
1
1
1
1
1.00522
2.28914
2.70612
2.72247
2.73878
2.7535
2.7663
2.77667
2.7848
2.79242
2.80046
2.80791
2.81333
1
1
1
1
1
1
1
1
1
1
1
1.00005
2.22462
2.69678
2.71637
2.73274
2.74755
2.76013
2.77024
2.778
2.78501
2.79213
2.79832
2.80233
1
1
1
1
1
1
1
1
1
1
1
1
2.13384
2.6834
2.70994
2.72567
2.74022
2.75211
2.7613
2.7677
2.77301
2.77866
2.78368
2.78855
1
1
1
1
1
1
1
1
1
1
1
1
2.00747
2.65877
2.69906
2.71492
2.72939
2.74076
2.74923
2.75496
2.75934
2.76349
2.76452
2.76076
1
1
1
1
1
1
1
1
1
1
1
1
1.83644
2.61142
2.6805
2.7003
2.71634
2.72763
2.73467
2.73795
2.73791
2.73478
2.72855
2.7232
1
1
1
1
1
1
1
1
1
1
1
1
1.59622
2.52283
2.65081
2.67913
2.69793
2.71014
2.7164
2.71744
2.71311
2.70741
2.70306
2.71441
1
1
1
1
1
1
1
1
1
1
1
1
1.26217
2.39171
2.62528
2.65015
2.67074
2.6849
2.69159
2.69091
2.68234
2.66356
2.61272
2.51209
1
1
1
1
1
1
1
1
1
1
1
1
1.02001
2.27019
2.62148
2.61823
2.63267
2.64897
2.65774
2.65625
2.6445
2.61243
2.5562
2.39171
1
1
1
1
1
1
1
1
1
1
1
1
1.00006
2.05658
2.58918
2.60274
2.61255
2.61811
2.62197
2.61801
2.6038
2.56641
2.50205
2.32085
1
1
1
1
1
1
1
1
1
1
1
1
0.999999
1.68827
2.49667
2.58364
2.58999
2.59314
2.59104
2.58186
2.56242
2.52466
2.45147
2.29271
1
1
1
1
1
1
1
1
1
1
1
1
1
1.19985
2.33896
2.57779
2.5682
2.56656
2.5612
2.54715
2.52286
2.48479
2.40933
2.29034
1
1
1
1
1
1
1
1
1
1
1
1
1
1.01056
2.15976
2.52015
2.53539
2.53722
2.5309
2.5155
2.48978
2.44701
2.37752
2.28619
1
1
1
1
1
1
1
1
1
1
1
1
1
0.999987
1.73505
2.42025
2.51383
2.5134
2.5058
2.48808
2.46229
2.41739
2.35642
2.28177
1
1
1
1
1
1
1
1
1
1
1
1
1
0.999994
1.15282
2.25196
2.49879
2.48598
2.47625
2.45747
2.43274
2.39181
2.33997
2.27617
1
1
1
1
1
1
1
1
1
1
1
1
1
0.999999
1.00561
2.01375
2.43254
2.44871
2.4415
2.42673
2.40418
2.37001
2.32598
2.27121
1
1
1
1
1
1
1
1
1
1
1
1
1
1
0.999986
1.45254
2.29015
2.42656
2.41167
2.39769
2.37758
2.34848
2.31081
2.26459
1
1
1
1
1
1
1
1
1
1
1
1
1
1
0.999995
1.05074
2.08274
2.38997
2.37388
2.36555
2.34903
2.32462
2.29292
2.25498
1
1
1
1
1
1
1
1
1
1
1
1
1
1
0.999999
1.00046
1.56045
2.24834
2.35217
2.33873
2.32292
2.30272
2.27628
2.24427
1
1
1
1
1
1
1
1
1
1
1
1
1
1
1
1
1.08514
2.03617
2.32642
2.31296
2.29861
2.27927
2.25564
2.2278
1
1
1
1
1
1
1
1
1
1
1
1
1
1
1
1
1.00147
1.48489
2.16553
2.29002
2.27194
2.25416
2.23341
2.20905
1
1
1
1
1
1
1
1
1
1
1
1
1
1
1
1
1
1.06436
1.93614
2.26458
2.24771
2.23062
2.21118
2.18922
1
1
1
1
1
1
1
1
1
1
1
1
1
1
1
1
1
1.00093
1.37591
2.08568
2.22597
2.20533
2.18841
2.16923
1
1
1
1
1
1
1
1
1
1
1
1
1
1
1
1
1
1
1.03481
1.74778
2.17551
2.18353
2.16987
2.15306
1
1
1
1
1
1
1
1
1
1
1
1
1
1
1
1
1
1
1.00038
1.20896
1.96254
2.16551
2.14843
2.1322
1
1
1
1
1
1
1
1
1
1
1
1
1
1
1
1
1
1
1
1.00999
1.48818
2.03162
2.13255
2.11326
1
1
1
1
1
1
1
1
1
1
1
1
1
1
1
1
1
1
1
1.00008
1.06982
1.73613
2.07446
2.10154
1
1
1
1
1
1
1
1
1
1
1
1
1
1
1
1
1
1
1
1
1.0014
1.22547
1.86268
2.07454
1
1
1
1
1
1
1
1
1
1
1
1
1
1
1
1
1
1
1
1
1.00001
1.01237
1.40642
1.92634
1
1
1
1
1
1
1
1
1
1
1
1
1
1
1
1
1
1
1
1
1
1.00012
1.049
1.57119
1
1
1
1
1
1
1
1
1
1
1
1
1
1
1
1
1
1
1
1
1
1
1.00091
1.12354
1
1
1
1
1
1
1
1
1
1
1
1
1
1
1
1
1
1
1
1
1
1
1
1.00432
1
1
1
1
1
1
1
1
1
1
1
1
1
1
1
1
1
1
1
1
1
1
1
1.00003
1
1
1
1
1
1
1
1
1
1
1
1
1
1
1
1
1
1
1
1
1
1
1
1
1
1
1
1
1
1
1
1
1
1
1
1
1
1
1
1
1
1
1
1
1
1
1
1
1
1
1
1
1
1
1
1
1
1
1
1
1
1
1
1
1
1
1
1
1
1
1
1
1
1
1
1
1
1
1
1
1
1
1
1
1
1
1
1
1
1
1
1
1
1
1
1
1
1
1
1
1
1
1
1
1
1
1
1
1
1
1
1
1
1
1
1
1
1
1
1
1
1
1
1
1
1
1
1
1
1
1
1
1
1
1
1
1
1
1
1
1
1
1
1
1.68713
1.2113
0.937037
0.948374
1.10525
1.21887
1.32079
1.45765
1.61209
1.66045
1.64943
1.64501
1.66134
1.7131
1.75011
1.74901
1.73919
1.72792
1.72959
1.73122
1.72406
1.70038
1.69356
1.69629
1.70545
1.7151
1.71887
1.71664
1.7105
1.69787
1.85708
2.63027
2.85168
2.8452
2.83673
2.81599
2.78572
2.75633
2.73417
2.71846
2.70807
2.69714
2.67875
2.65149
2.61976
2.59001
2.56647
2.55072
2.53993
2.52806
2.51171
2.49325
2.47503
2.45877
2.44672
2.43518
2.41678
2.39667
2.37557
2.35647
2.34252
2.33144
2.32387
2.31761
2.30886
2.29454
2.27674
2.25237
2.22804
2.21274
2.20231
2.19568
2.19334
2.19096
2.18448
2.1744
2.15833
2.13594
2.11675
2.1028
2.09132
2.08403
2.07819
2.07092
2.06206
2.04685
2.02817
2.01594
2.00831
2.00134
1.99578
1.99159
1.9833
1.97329
1.96026
1.93469
1.90612
1.6619
1.51561
1.33399
1.29625
1.26877
1.26642
1.29361
1.3222
1.35202
1.38457
1.41243
1.4577
1.51595
1.56464
1.59842
1.6218
1.63435
1.64637
1.66181
1.66356
1.65627
1.65235
1.65526
1.66296
1.67133
1.67829
1.67853
1.67637
1.66809
1.73406
2.52111
2.80881
2.799
2.77922
2.76042
2.73844
2.70887
2.68251
2.66094
2.64548
2.63632
2.62884
2.61431
2.59012
2.56261
2.53793
2.51912
2.50718
2.49926
2.48913
2.47361
2.4555
2.43691
2.41913
2.40288
2.39034
2.37829
2.36518
2.35142
2.3369
2.32269
2.30972
2.29773
2.28515
2.27353
2.26032
2.24491
2.22963
2.21329
2.19957
2.18964
2.18219
2.17502
2.16849
2.1615
2.15062
2.13593
2.11866
2.10159
2.0878
2.07714
2.06827
2.06127
2.05389
2.04363
2.031
2.01782
2.0066
1.9979
1.9899
1.98149
1.97384
1.96494
1.95511
1.93653
2.03038
1.83161
1.70411
1.55708
1.45576
1.40675
1.33972
1.28365
1.26906
1.24754
1.25477
1.29101
1.32623
1.3542
1.38596
1.42295
1.46654
1.50206
1.53035
1.55511
1.57505
1.58351
1.58639
1.59445
1.60159
1.60495
1.60767
1.6071
1.60555
1.6118
1.66705
2.29826
2.70286
2.68638
2.6335
2.61478
2.61304
2.6047
2.59068
2.5713
2.55057
2.53474
2.52682
2.522
2.51345
2.49875
2.47923
2.45896
2.44195
2.43011
2.42297
2.41585
2.40607
2.39325
2.37457
2.35127
2.33375
2.32287
2.31637
2.31302
2.30689
2.29691
2.28308
2.26238
2.24077
2.22661
2.21621
2.20928
2.20487
2.19676
2.18643
2.17388
2.15754
2.14316
2.13469
2.12756
2.12155
2.11674
2.10837
2.09592
2.07899
2.0607
2.0472
2.03717
2.02879
2.02347
2.01842
2.01241
2.00265
1.98883
1.97468
1.96296
1.95278
1.94368
1.93678
1.92746
2.09981
1.94703
1.82009
1.6974
1.60212
1.53729
1.46696
1.3954
1.36496
1.33767
1.30149
1.28857
1.28323
1.2848
1.29324
1.31015
1.34335
1.3894
1.42577
1.44626
1.4681
1.49081
1.50507
1.52148
1.54021
1.54872
1.55343
1.55101
1.55438
1.59644
1.74614
2.01929
2.44699
2.54161
2.51878
2.49179
2.47761
2.47581
2.47017
2.46074
2.4453
2.42798
2.41878
2.4133
2.40991
2.40525
2.39569
2.38162
2.36387
2.34705
2.3357
2.32808
2.32247
2.31554
2.30737
2.29564
2.27838
2.26367
2.25563
2.25096
2.24721
2.23961
2.22941
2.21536
2.19574
2.17677
2.16697
2.16127
2.1588
2.15555
2.14757
2.13768
2.1238
2.10548
2.09015
2.08391
2.08135
2.08033
2.07894
2.0722
2.06041
2.04117
2.01793
2.00301
1.99611
1.9923
1.99078
1.98849
1.98363
1.97462
1.95739
1.93792
1.92564
1.91806
1.91438
1.90915
2.1508
2.02815
1.91472
1.79779
1.71674
1.6435
1.56834
1.5053
1.45049
1.41115
1.38044
1.35188
1.33211
1.31237
1.29289
1.29053
1.29436
1.30923
1.33498
1.35678
1.38261
1.41878
1.44616
1.46527
1.48245
1.49838
1.50232
1.51023
1.55073
1.71631
1.9168
1.97214
2.14769
2.34219
2.41139
2.41767
2.40921
2.40195
2.39561
2.38877
2.38064
2.36517
2.34963
2.34135
2.33567
2.33282
2.3303
2.32152
2.30826
2.29027
2.27215
2.26167
2.25461
2.24935
2.24432
2.23863
2.22976
2.21601
2.20216
2.19371
2.18576
2.17653
2.16647
2.15633
2.14608
2.13463
2.12296
2.11587
2.11036
2.10411
2.09589
2.08586
2.07445
2.06269
2.05159
2.04314
2.04002
2.03875
2.03702
2.03291
2.0246
2.00989
1.99018
1.97367
1.9646
1.95935
1.95602
1.95337
1.9506
1.94563
1.93327
1.91461
1.8999
1.89343
1.89074
1.88522
2.18173
2.07921
1.98035
1.88486
1.80044
1.72502
1.65199
1.59817
1.54911
1.48881
1.45477
1.42551
1.40019
1.3816
1.35418
1.32255
1.30826
1.30896
1.30656
1.30782
1.31634
1.33765
1.37064
1.39684
1.42233
1.45465
1.4663
1.50667
1.68583
1.8754
1.99475
1.9983
2.01731
2.11591
2.26835
2.34756
2.36365
2.36839
2.36299
2.35531
2.34607
2.3333
2.31546
2.30177
2.29425
2.29013
2.28918
2.28333
2.27206
2.25738
2.23762
2.22058
2.21229
2.20688
2.20349
2.19974
2.19352
2.1832
2.16655
2.14978
2.13918
2.13073
2.12272
2.11595
2.1103
2.10381
2.09347
2.07852
2.0662
2.05779
2.04895
2.03936
2.03119
2.02564
2.02095
2.01449
2.00528
1.99792
1.99397
1.98925
1.98177
1.97172
1.96109
1.95038
1.93867
1.92864
1.92303
1.91935
1.91497
1.90769
1.898
1.88851
1.87976
1.87089
1.86598
1.85877
2.20014
2.11512
2.02516
1.94535
1.87047
1.79745
1.72295
1.66798
1.62187
1.57234
1.53182
1.49751
1.45402
1.42772
1.4082
1.38024
1.34297
1.32264
1.31804
1.31462
1.31339
1.31665
1.32296
1.32844
1.34397
1.37699
1.4321
1.6077
1.83836
1.935
1.98723
1.98886
1.98487
1.99597
2.06905
2.21025
2.30402
2.33002
2.3412
2.33616
2.32479
2.31459
2.30195
2.28704
2.27447
2.26688
2.26311
2.25987
2.2506
2.23868
2.22298
2.20256
2.18722
2.18034
2.17691
2.17448
2.16861
2.16045
2.14715
2.12757
2.11155
2.10312
2.09677
2.09221
2.08725
2.08057
2.07175
2.05663
2.03657
2.02272
2.01463
2.00814
2.00309
2.00045
1.99762
1.99336
1.98391
1.96784
1.95602
1.94988
1.9446
1.93982
1.93524
1.92979
1.92167
1.90933
1.89562
1.88441
1.87534
1.86848
1.86446
1.86238
1.86002
1.85494
1.84681
1.83615
2.20843
2.13452
2.05798
1.98944
1.9197
1.84819
1.7877
1.7338
1.67964
1.6298
1.59533
1.56239
1.52002
1.47818
1.45903
1.44238
1.41121
1.37134
1.35966
1.35306
1.33965
1.33184
1.32524
1.31379
1.31369
1.33728
1.49799
1.76118
1.8518
1.89448
1.91122
1.92246
1.93039
1.94183
1.95842
2.01632
2.14999
2.25812
2.30551
2.31279
2.30498
2.29625
2.28791
2.27998
2.26763
2.25288
2.24342
2.23614
2.23126
2.22228
2.21103
2.19653
2.17794
2.1638
2.15686
2.15229
2.14938
2.1433
2.13435
2.12062
2.10174
2.08651
2.07845
2.07265
2.06811
2.06143
2.05311
2.04157
2.02431
2.00563
1.99563
1.99038
1.98814
1.98651
1.98158
1.97575
1.96578
1.94913
1.93123
1.92249
1.91908
1.91646
1.91421
1.91084
1.90572
1.89543
1.87588
1.85635
1.84627
1.84204
1.83989
1.83921
1.83865
1.83718
1.83332
1.81958
2.21305
2.14755
2.08224
2.02164
1.95754
1.88937
1.83775
1.78672
1.73531
1.68443
1.64797
1.61064
1.57639
1.53691
1.50381
1.48382
1.46514
1.43795
1.40072
1.38175
1.372
1.35555
1.33865
1.3246
1.34297
1.4728
1.69206
1.81574
1.8146
1.80494
1.80519
1.81769
1.84039
1.86262
1.87766
1.89923
1.95414
2.07282
2.21239
2.26101
2.27419
2.27424
2.27219
2.26846
2.25995
2.24649
2.22716
2.21516
2.2073
2.202
2.19624
2.18713
2.17534
2.15839
2.14323
2.13583
2.13007
2.12552
2.12007
2.11095
2.09766
2.07932
2.06338
2.05363
2.04613
2.0397
2.03342
2.02628
2.01674
2.00262
1.98726
1.97762
1.97105
1.96426
1.9581
1.95235
1.94624
1.93669
1.92283
1.90887
1.90224
1.89942
1.89844
1.89627
1.89082
1.88057
1.8616
1.84078
1.83047
1.8263
1.82464
1.82523
1.8257
1.82525
1.82252
1.80554
2.21363
2.15707
2.10006
2.04512
1.98467
1.92617
1.87673
1.82903
1.77625
1.73267
1.69395
1.65273
1.61802
1.59069
1.55756
1.51768
1.49881
1.48533
1.45893
1.42435
1.40777
1.3929
1.37808
1.39047
1.49303
1.69594
1.82297
1.81711
1.80151
1.78394
1.77466
1.76697
1.76584
1.77024
1.78112
1.79352
1.81023
1.85048
1.96403
2.11411
2.20655
2.2358
2.25402
2.25813
2.25014
2.23823
2.21915
2.1968
2.18635
2.18014
2.17734
2.17396
2.16596
2.15451
2.13708
2.12058
2.11261
2.10691
2.10196
2.09564
2.08623
2.07267
2.05404
2.03753
2.02816
2.0217
2.01605
2.01076
2.00466
1.9963
1.9833
1.96692
1.95435
1.9459
1.939
1.9325
1.92663
1.92137
1.91465
1.90465
1.89249
1.88374
1.87781
1.87232
1.86626
1.85843
1.84806
1.83706
1.82708
1.81926
1.81453
1.81138
1.80901
1.80648
1.80269
1.78799
2.21192
2.16315
2.11288
2.06296
2.00824
1.95606
1.90832
1.86091
1.81134
1.77233
1.7351
1.6941
1.65156
1.62704
1.60241
1.56674
1.52952
1.51426
1.49956
1.47472
1.44446
1.42425
1.43637
1.53833
1.72308
1.84915
1.84886
1.83355
1.81401
1.79794
1.779
1.76208
1.7543
1.7475
1.74092
1.73753
1.73657
1.73125
1.74353
1.82057
1.97737
2.1225
2.19531
2.22659
2.23358
2.22632
2.21151
2.1886
2.16791
2.15986
2.15484
2.15536
2.15133
2.1427
2.1306
2.11233
2.09591
2.08732
2.08079
2.07462
2.06775
2.05855
2.04574
2.02941
2.01456
2.00565
1.99994
1.99527
1.99116
1.9852
1.97463
1.95874
1.94211
1.9304
1.92208
1.91558
1.91079
1.9069
1.90288
1.89595
1.88427
1.87067
1.86026
1.8529
1.84601
1.83846
1.83321
1.82913
1.82352
1.81518
1.80565
1.79807
1.7918
1.78484
1.77788
1.76587
2.20704
2.16314
2.11998
2.07456
2.0242
1.97862
1.93532
1.88851
1.8419
1.8048
1.76787
1.73037
1.69022
1.6601
1.63254
1.6055
1.57426
1.54489
1.52615
1.5071
1.48474
1.4981
1.60915
1.78377
1.89074
1.88711
1.86773
1.84981
1.83768
1.82451
1.80663
1.78404
1.76101
1.74314
1.73271
1.72521
1.71621
1.71068
1.70122
1.69109
1.71468
1.82668
1.99905
2.11688
2.18092
2.19613
2.19525
2.18221
2.15978
2.14171
2.13405
2.12917
2.12816
2.12463
2.11605
2.10316
2.08461
2.06867
2.05974
2.05301
2.04624
2.03902
2.03065
2.01989
2.00622
1.99358
1.98501
1.97835
1.97144
1.9639
1.95631
1.94675
1.93309
1.91937
1.91036
1.9041
1.89821
1.89194
1.88562
1.87981
1.87226
1.86039
1.8468
1.83607
1.82888
1.82462
1.82172
1.81855
1.81431
1.80697
1.79575
1.78386
1.77422
1.76545
1.75781
1.74698
2.19547
2.15864
2.11994
2.07866
2.0352
1.99551
1.95413
1.90793
1.86929
1.83423
1.79695
1.75512
1.72311
1.69446
1.66265
1.63241
1.60846
1.58284
1.55617
1.53377
1.55179
1.67483
1.85797
1.94437
1.93717
1.90993
1.88439
1.87019
1.85845
1.84319
1.82615
1.80565
1.77796
1.7561
1.74047
1.72496
1.7101
1.69872
1.68857
1.68065
1.66924
1.65623
1.69594
1.83251
1.99401
2.0954
2.14761
2.15943
2.1528
2.13371
2.11457
2.10589
2.10113
2.09746
2.09363
2.08572
2.07345
2.05667
2.04203
2.03317
2.02645
2.01994
2.01277
2.0046
1.994
1.98121
1.97013
1.96158
1.95413
1.9472
1.9399
1.93109
1.9206
1.90936
1.90022
1.8928
1.88561
1.8782
1.87058
1.86246
1.85362
1.84462
1.83382
1.82388
1.81857
1.81493
1.81111
1.80645
1.80073
1.79392
1.78362
1.77015
1.75773
1.74778
1.74131
1.7344
2.18077
2.15021
2.11723
2.07991
2.04259
2.00687
1.96836
1.9259
1.89074
1.85611
1.82021
1.78086
1.7512
1.72226
1.69202
1.65906
1.63353
1.61166
1.58918
1.60781
1.72793
1.90944
1.99406
1.98566
1.95887
1.92872
1.90289
1.88811
1.87369
1.85829
1.84255
1.82501
1.80263
1.7746
1.7504
1.7322
1.71661
1.70147
1.68719
1.67469
1.66132
1.64793
1.62576
1.62448
1.68249
1.83184
1.97522
2.082
2.10664
2.11304
2.10224
2.08517
2.07524
2.06953
2.06341
2.05802
2.05175
2.04231
2.03001
2.01838
2.00938
2.00186
1.99429
1.98591
1.9762
1.96451
1.95298
1.94486
1.93917
1.93372
1.92713
1.91898
1.90894
1.8977
1.88754
1.87876
1.87126
1.86435
1.85687
1.84816
1.8388
1.82871
1.81857
1.81145
1.80734
1.80333
1.79854
1.79254
1.78513
1.77518
1.76224
1.74903
1.73887
1.7329
1.73065
1.72515
2.16441
2.13818
2.10952
2.07678
2.04446
2.01186
1.97534
1.93815
1.90691
1.87393
1.83738
1.80284
1.77498
1.7456
1.71676
1.68391
1.65819
1.64104
1.6695
1.79709
1.95164
2.02938
2.02449
2.00098
1.97763
1.95208
1.9226
1.90149
1.88465
1.86869
1.85229
1.83474
1.81563
1.79289
1.7657
1.74084
1.72289
1.70741
1.69229
1.67724
1.66262
1.6476
1.62898
1.60711
1.58893
1.59711
1.67725
1.83547
1.96509
2.04209
2.05871
2.06542
2.05628
2.04092
2.03182
2.02609
2.02065
2.01605
2.01088
2.00333
1.99355
1.98403
1.97515
1.9658
1.95526
1.94292
1.93086
1.92441
1.92124
1.91822
1.91441
1.90875
1.8995
1.88433
1.86833
1.86072
1.85522
1.8493
1.84306
1.83662
1.82899
1.8181
1.80589
1.79915
1.79471
1.78977
1.78417
1.7774
1.77
1.76021
1.74618
1.73043
1.72264
1.71972
1.71864
1.7138
2.14782
2.12431
2.09814
2.07043
2.04229
2.01155
1.97794
1.94714
1.91729
1.88583
1.85033
1.82235
1.79469
1.76695
1.73174
1.70495
1.69256
1.7385
1.89439
2.03006
2.06062
2.04942
2.02474
2.00714
1.99267
1.97297
1.94507
1.91382
1.89271
1.87581
1.85925
1.84217
1.82442
1.80477
1.78082
1.75377
1.7308
1.71292
1.69671
1.68124
1.66571
1.64992
1.63272
1.61216
1.58645
1.57129
1.56021
1.57932
1.67694
1.82071
1.93864
1.99817
2.017
2.01272
1.9982
1.99466
1.99109
1.98673
1.98253
1.97761
1.97049
1.96222
1.95387
1.94497
1.93461
1.92167
1.90775
1.90058
1.89871
1.89757
1.89604
1.89318
1.88681
1.87234
1.85263
1.83984
1.83321
1.82846
1.8249
1.82149
1.8169
1.80907
1.79556
1.77974
1.7692
1.76442
1.76176
1.75978
1.75586
1.74783
1.73371
1.71776
1.71128
1.70787
1.70573
1.70013
2.13364
2.11161
2.08704
2.06227
2.03668
2.0086
1.97859
1.95156
1.92294
1.8926
1.86169
1.83623
1.80917
1.77884
1.74758
1.7425
1.80151
1.96714
2.10966
2.11867
2.08856
2.05078
2.02826
2.01612
2.00427
1.98553
1.96154
1.92995
1.90082
1.88083
1.86326
1.84583
1.82799
1.80949
1.78911
1.76454
1.7378
1.71624
1.69887
1.68261
1.66682
1.65182
1.63637
1.61963
1.59917
1.57417
1.55132
1.54204
1.53528
1.56065
1.66592
1.80034
1.91089
1.95035
1.95518
1.96427
1.96155
1.95611
1.95175
1.94585
1.93904
1.93195
1.92484
1.91774
1.90951
1.89959
1.88874
1.87866
1.8721
1.87009
1.86966
1.86943
1.86669
1.85682
1.83854
1.82072
1.81261
1.80847
1.80511
1.80192
1.79829
1.79344
1.78289
1.7637
1.74983
1.74471
1.74177
1.73858
1.73503
1.73071
1.7232
1.71064
1.70202
1.6995
1.69778
1.69154
2.11488
2.09472
2.07348
2.05164
2.02796
2.00151
1.97706
1.95182
1.92521
1.89599
1.86929
1.84492
1.81743
1.78903
1.79305
1.87617
2.02259
2.14419
2.16209
2.14037
2.10209
2.0624
2.0383
2.0234
2.00834
1.9892
1.96769
1.94233
1.91258
1.88604
1.86534
1.84674
1.82833
1.81002
1.7918
1.77201
1.74805
1.72195
1.70016
1.68247
1.66601
1.65033
1.63519
1.62012
1.60319
1.58327
1.56078
1.53943
1.52243
1.51159
1.51073
1.54308
1.64662
1.7724
1.85932
1.90287
1.913
1.92309
1.92148
1.91585
1.90931
1.90047
1.89047
1.88302
1.87674
1.8704
1.86364
1.85641
1.84974
1.84409
1.83936
1.83588
1.83392
1.83078
1.82073
1.80745
1.79589
1.78844
1.78387
1.78085
1.77912
1.77597
1.76821
1.75299
1.73643
1.72732
1.72255
1.71917
1.71688
1.71494
1.71181
1.70594
1.6964
1.68474
1.67857
1.67149
2.09529
2.07776
2.05977
2.04043
2.0186
1.9952
1.97405
1.95028
1.92482
1.89818
1.87284
1.84894
1.82759
1.84792
1.96552
2.10296
2.16963
2.17565
2.15969
2.13485
2.10961
2.07977
2.04907
2.02705
2.00864
1.99014
1.97043
1.94885
1.92299
1.89287
1.86648
1.84604
1.82764
1.80957
1.79175
1.77317
1.75192
1.7271
1.70204
1.68082
1.66246
1.64543
1.62932
1.61417
1.59989
1.58455
1.56574
1.54447
1.52384
1.50656
1.4927
1.48207
1.48451
1.52496
1.62491
1.74411
1.81205
1.85687
1.8779
1.88467
1.88128
1.87159
1.85939
1.84921
1.84224
1.83747
1.83371
1.83028
1.82662
1.82156
1.81406
1.80593
1.79955
1.79464
1.79178
1.78666
1.78
1.77361
1.76673
1.75911
1.75052
1.74367
1.73938
1.73469
1.7265
1.7159
1.70715
1.70247
1.7001
1.69878
1.69741
1.69458
1.68663
1.67145
1.66158
1.65376
2.08398
2.06546
2.04824
2.03008
2.00913
1.98895
1.96827
1.94642
1.92183
1.8958
1.8762
1.86293
1.90532
2.04548
2.1962
2.21357
2.19611
2.16849
2.14877
2.13459
2.11552
2.08933
2.05567
2.02866
2.00932
1.99111
1.97169
1.95037
1.92579
1.89653
1.86717
1.84414
1.82505
1.80669
1.78844
1.76975
1.7497
1.72719
1.70316
1.68089
1.66141
1.64368
1.62678
1.61033
1.59438
1.57849
1.56285
1.54552
1.52691
1.50921
1.49337
1.47805
1.46586
1.4563
1.46081
1.50378
1.60181
1.70516
1.7835
1.82072
1.83742
1.8379
1.83297
1.82296
1.81192
1.80431
1.8031
1.80241
1.79994
1.79636
1.79201
1.78448
1.77224
1.76218
1.75784
1.75613
1.75459
1.75246
1.74881
1.74043
1.72707
1.71683
1.71209
1.70976
1.70731
1.703
1.69708
1.69143
1.68683
1.68293
1.68047
1.67832
1.67193
1.65944
1.64816
1.63795
2.0681
2.05112
2.03495
2.01742
1.9982
1.98109
1.96034
1.93885
1.91523
1.8965
1.90155
1.97183
2.11153
2.23532
2.25908
2.23244
2.19255
2.16453
2.14939
2.13782
2.11866
2.09223
2.0587
2.02984
2.01007
1.99113
1.97058
1.94832
1.92391
1.89654
1.86788
1.84278
1.82197
1.80252
1.78302
1.76318
1.74268
1.72075
1.69781
1.67632
1.65791
1.64174
1.62605
1.6098
1.59238
1.57355
1.55484
1.53745
1.5234
1.51031
1.49711
1.48327
1.46875
1.45395
1.4433
1.4317
1.43788
1.47958
1.58209
1.68169
1.76091
1.78934
1.80173
1.79945
1.79146
1.78207
1.77401
1.77083
1.7713
1.77247
1.77043
1.76446
1.75223
1.73664
1.72914
1.72914
1.73036
1.73122
1.72975
1.72352
1.70924
1.69376
1.6868
1.6856
1.68508
1.68407
1.68146
1.67714
1.67205
1.66661
1.66012
1.65175
1.64353
1.6377
1.63165
1.62288
2.04835
2.03623
2.01944
2.00249
1.98709
1.97069
1.94975
1.93062
1.91835
1.94637
2.05791
2.19281
2.25671
2.27226
2.25467
2.2254
2.19543
2.16871
2.15077
2.1341
2.11323
2.08776
2.05851
2.02865
2.00502
1.98431
1.96273
1.94018
1.91702
1.8924
1.86568
1.83894
1.81571
1.79534
1.77557
1.75572
1.7357
1.71459
1.69207
1.67016
1.65167
1.63638
1.62242
1.60861
1.59327
1.57601
1.55699
1.53673
1.5182
1.50346
1.49205
1.48196
1.4719
1.4604
1.44559
1.43043
1.41807
1.40691
1.41727
1.46812
1.56851
1.66317
1.73472
1.76768
1.77559
1.77155
1.76278
1.75381
1.74802
1.74403
1.7398
1.73582
1.73095
1.72211
1.71438
1.7088
1.70419
1.69983
1.69674
1.69258
1.68579
1.67812
1.6709
1.66468
1.66241
1.66138
1.66074
1.66006
1.65731
1.64924
1.6375
1.62652
1.61918
1.61453
1.61039
1.60675
1.95168
2.02491
2.00832
1.98736
1.97515
1.95625
1.93829
1.94061
1.99996
2.14038
2.26703
2.297
2.27405
2.25509
2.23578
2.21757
2.19663
2.17161
2.14736
2.12439
2.10157
2.07788
2.052
2.02303
1.99565
1.97246
1.95064
1.92891
1.90708
1.88424
1.85919
1.83249
1.80781
1.78694
1.76763
1.7489
1.73054
1.71139
1.69042
1.66852
1.64851
1.63168
1.61696
1.6036
1.59044
1.576
1.55893
1.5398
1.52189
1.50645
1.49301
1.48104
1.46971
1.45896
1.44878
1.43741
1.42144
1.40586
1.39407
1.39322
1.40836
1.46833
1.56736
1.66104
1.72019
1.75435
1.75504
1.75046
1.74174
1.73204
1.72444
1.71701
1.70983
1.70561
1.70131
1.69536
1.68622
1.67756
1.67163
1.66791
1.66595
1.66258
1.65538
1.64565
1.64328
1.64424
1.64317
1.63848
1.63083
1.62251
1.6125
1.60264
1.59685
1.59389
1.5948
1.60174
1.69412
1.95541
2.00032
1.98255
1.96194
1.94782
1.96579
2.06806
2.20528
2.29542
2.31873
2.2947
2.2616
2.23352
2.21693
2.20475
2.18639
2.16201
2.13485
2.10977
2.08768
2.06589
2.04215
2.01558
1.98804
1.96292
1.94033
1.91876
1.89734
1.87506
1.85116
1.82622
1.80252
1.78147
1.76196
1.7438
1.72646
1.70865
1.68944
1.66909
1.64973
1.63292
1.61764
1.60312
1.58867
1.5741
1.55894
1.54173
1.52389
1.509
1.49818
1.48927
1.48043
1.47098
1.46086
1.44755
1.43229
1.41838
1.40302
1.39143
1.3853
1.38705
1.40892
1.48025
1.57363
1.6697
1.71125
1.73469
1.73343
1.72719
1.71646
1.7122
1.70765
1.70115
1.6941
1.68519
1.67409
1.6638
1.65642
1.65088
1.64567
1.64104
1.63671
1.63229
1.62817
1.62238
1.61751
1.61243
1.60635
1.59914
1.5927
1.58642
1.58321
1.58413
1.5909
1.64626
1.23003
1.74835
1.96565
1.9636
1.95565
2.00807
2.15162
2.27368
2.30255
2.29338
2.29082
2.27321
2.24843
2.22288
2.20536
2.19087
2.17191
2.14785
2.12241
2.09853
2.07618
2.05463
2.03258
2.00899
1.98383
1.9587
1.93488
1.91225
1.89024
1.868
1.84512
1.82244
1.80097
1.78027
1.76045
1.74217
1.72458
1.70658
1.68804
1.6695
1.65196
1.63629
1.62228
1.60931
1.59606
1.58176
1.56566
1.5479
1.53142
1.51823
1.50809
1.49948
1.49154
1.48293
1.47188
1.45825
1.4439
1.42899
1.41488
1.40399
1.39555
1.39146
1.38879
1.39225
1.41803
1.49037
1.58813
1.67584
1.71534
1.71584
1.71181
1.70591
1.69808
1.68926
1.67994
1.67051
1.66105
1.65132
1.64357
1.63824
1.63325
1.62924
1.62535
1.61891
1.60758
1.59696
1.59139
1.58797
1.58472
1.58128
1.58253
1.5859
1.59323
1.61682
1.6618
1.76159
1.01424
1.32651
1.81311
1.90713
2.05271
2.231
2.33306
2.33525
2.30296
2.28134
2.26917
2.25809
2.23833
2.21452
2.19614
2.17982
2.16035
2.13689
2.11239
2.08978
2.06787
2.0465
2.02576
2.00505
1.98285
1.9589
1.93488
1.91209
1.89022
1.86882
1.84787
1.82751
1.80782
1.78944
1.77549
1.76157
1.7463
1.72998
1.71279
1.69513
1.67784
1.66185
1.64731
1.63379
1.62037
1.60645
1.59104
1.57422
1.55811
1.54408
1.53222
1.52156
1.51168
1.50172
1.48997
1.47554
1.45817
1.44186
1.43013
1.4231
1.41701
1.41092
1.39924
1.39321
1.38795
1.3932
1.42535
1.49928
1.59654
1.66817
1.71215
1.70941
1.7011
1.68998
1.67851
1.667
1.65456
1.64121
1.63236
1.62908
1.62814
1.62612
1.62189
1.61413
1.60055
1.5849
1.57674
1.57661
1.57707
1.57855
1.59143
1.62729
1.683
1.74845
1.79604
1.83727
1.00016
1.03348
1.40792
1.92279
2.3407
2.40951
2.39953
2.36785
2.32776
2.3012
2.28593
2.27305
2.2521
2.22831
2.21086
2.19532
2.17688
2.15487
2.12994
2.1035
2.08063
2.06155
2.04267
2.02091
1.99497
1.96711
1.94188
1.91857
1.89667
1.87597
1.85651
1.83732
1.81849
1.80153
1.78604
1.77128
1.75652
1.74126
1.72529
1.70836
1.69092
1.6739
1.65757
1.6422
1.62789
1.61481
1.60166
1.58695
1.57097
1.55538
1.54148
1.52905
1.51638
1.50345
1.49205
1.48211
1.47083
1.45874
1.44827
1.4387
1.42844
1.41922
1.41083
1.40389
1.39674
1.39239
1.38734
1.39273
1.43316
1.51367
1.61215
1.66402
1.69529
1.69069
1.68486
1.67564
1.66076
1.64546
1.63443
1.6231
1.61538
1.61151
1.60716
1.60115
1.5929
1.58252
1.57745
1.57843
1.58863
1.62751
1.69746
1.7715
1.82396
1.85772
1.8585
1.8495
1
1.00047
1.08057
2.23629
2.62509
2.55399
2.48672
2.43482
2.39058
2.35995
2.34071
2.32327
2.29765
2.27106
2.25154
2.23326
2.21228
2.18883
2.16328
2.1373
2.1122
2.0884
2.0651
2.04377
2.0248
2.00433
1.98056
1.9563
1.93345
1.91262
1.89361
1.87514
1.85606
1.83772
1.82017
1.80426
1.7894
1.77416
1.75793
1.74057
1.72234
1.70379
1.68557
1.66797
1.65123
1.63613
1.6228
1.61036
1.59672
1.58153
1.56638
1.55144
1.53674
1.52033
1.505
1.49458
1.48746
1.47924
1.46988
1.4599
1.44919
1.43829
1.42811
1.41826
1.40932
1.40001
1.39037
1.38485
1.38183
1.39282
1.4448
1.52807
1.61316
1.64091
1.66531
1.66566
1.66227
1.65506
1.64175
1.62643
1.61456
1.60663
1.6004
1.59764
1.59282
1.59076
1.60024
1.63762
1.70405
1.7871
1.85053
1.88726
1.89753
1.89479
1.88394
1.86273
1
1
1.31439
2.52014
2.72075
2.64293
2.58929
2.54489
2.50663
2.47541
2.44957
2.41918
2.38588
2.3567
2.33305
2.31049
2.28514
2.25732
2.22866
2.20154
2.17535
2.14919
2.12278
2.09746
2.07294
2.04807
2.02241
1.9968
1.97302
1.95177
1.93254
1.91504
1.89867
1.8823
1.86542
1.84831
1.83079
1.81227
1.79284
1.77304
1.75353
1.73472
1.71664
1.69864
1.67973
1.65962
1.63918
1.62099
1.60635
1.59361
1.58157
1.56911
1.5567
1.54346
1.52739
1.5083
1.49137
1.47995
1.47135
1.46395
1.45683
1.45004
1.44187
1.43126
1.41762
1.40344
1.39321
1.38474
1.37738
1.37063
1.36777
1.38427
1.44036
1.53285
1.60586
1.63678
1.6432
1.64109
1.63534
1.62644
1.61606
1.60741
1.60336
1.60542
1.61949
1.66104
1.72941
1.80302
1.86452
1.91024
1.92016
1.91894
1.91369
1.90398
1.89068
1.87665
1
1
1.61174
2.65684
2.76428
2.7331
2.70424
2.67495
2.64498
2.61681
2.58828
2.55465
2.51857
2.48458
2.45375
2.42357
2.39095
2.35682
2.32263
2.29051
2.26134
2.23312
2.20438
2.17593
2.14714
2.11742
2.08793
2.06027
2.0354
2.01332
1.99331
1.97463
1.95631
1.93738
1.91731
1.89633
1.87454
1.85201
1.8293
1.80687
1.78518
1.76434
1.7441
1.72378
1.70291
1.68165
1.66039
1.64123
1.62517
1.61155
1.59949
1.58745
1.57407
1.55777
1.53946
1.52047
1.50409
1.49208
1.48286
1.47556
1.4688
1.46206
1.4538
1.44246
1.42785
1.41295
1.40107
1.39019
1.38086
1.37061
1.36175
1.35083
1.35153
1.38104
1.44964
1.53438
1.59725
1.63554
1.63523
1.63136
1.62361
1.6247
1.64071
1.68006
1.74888
1.82598
1.89047
1.92658
1.94794
1.95036
1.94569
1.93247
1.91746
1.90376
1.89345
1.87961
1
1
1.64352
2.66787
2.766
2.75987
2.75343
2.74365
2.72967
2.71088
2.68429
2.65078
2.61479
2.57903
2.5429
2.50546
2.46742
2.42958
2.39356
2.35912
2.32645
2.29495
2.26145
2.22765
2.19432
2.16218
2.13214
2.10462
2.07954
2.05635
2.03426
2.01267
1.99121
1.96972
1.94805
1.92602
1.90302
1.87871
1.85327
1.82753
1.80292
1.78004
1.75867
1.73782
1.71699
1.69597
1.6746
1.65483
1.63772
1.62299
1.60952
1.59589
1.58151
1.56521
1.54703
1.52837
1.51259
1.50087
1.49154
1.48428
1.47759
1.47047
1.46129
1.44781
1.43087
1.41603
1.40558
1.39596
1.38636
1.37523
1.36395
1.35095
1.33736
1.32195
1.32913
1.37871
1.4666
1.55483
1.60536
1.63953
1.68715
1.73856
1.78881
1.83512
1.88519
1.9173
1.94711
1.9687
1.96431
1.95478
1.94238
1.93092
1.92047
1.90987
1.90169
1.88923
1
1
1.62047
2.66083
2.75885
2.75951
2.76087
2.76037
2.75512
2.74218
2.72012
2.69129
2.65864
2.62305
2.58424
2.54383
2.50336
2.46458
2.42801
2.39287
2.35907
2.32333
2.28641
2.24962
2.21478
2.18226
2.15189
2.12376
2.09772
2.07319
2.04949
2.02614
2.00312
1.9807
1.95875
1.93657
1.91306
1.88761
1.86044
1.83298
1.80734
1.78422
1.76312
1.74286
1.72295
1.70255
1.6808
1.65975
1.64129
1.62554
1.61136
1.59729
1.58269
1.56633
1.54852
1.5308
1.51615
1.50547
1.49662
1.48909
1.48116
1.47269
1.46285
1.44917
1.43047
1.41303
1.40423
1.39733
1.38965
1.3808
1.36958
1.35424
1.33247
1.31307
1.3016
1.30517
1.33392
1.41983
1.54988
1.68474
1.78859
1.87779
1.94742
2.00013
2.03191
2.02406
2.00994
1.99168
1.96842
1.95184
1.9365
1.92696
1.9179
1.90899
1.90195
1.88983
)
;

boundaryField
{
    inlet
    {
        type            fixedValue;
        value           uniform 1;
    }
    outlet
    {
        type            inletOutlet;
        inletValue      uniform 1;
        value           nonuniform List<scalar> 
32
(
1.93273
1.93551
1.92816
1.91055
1.88639
1.85954
1.83655
1.81843
1.80335
1.78622
1.76547
1.74723
1.7352
1.72585
1.71465
1.70089
1.69206
1.67197
1.65413
1.63804
1.62288
1.60696
1.60183
1.64588
1.76064
1.83646
1.84882
1.86253
1.87684
1.87931
1.88896
1.8896
)
;
    }
    bottom
    {
        type            symmetryPlane;
    }
    top
    {
        type            symmetryPlane;
    }
    obstacle
    {
        type            zeroGradient;
    }
    defaultFaces
    {
        type            empty;
    }
}


// ************************************************************************* //
