/*--------------------------------*- C++ -*----------------------------------*\
  =========                 |
  \\      /  F ield         | OpenFOAM: The Open Source CFD Toolbox
   \\    /   O peration     | Website:  https://openfoam.org
    \\  /    A nd           | Version:  7
     \\/     M anipulation  |
\*---------------------------------------------------------------------------*/
FoamFile
{
    version     2.0;
    format      ascii;
    class       volScalarField;
    location    "2.4";
    object      p;
}
// * * * * * * * * * * * * * * * * * * * * * * * * * * * * * * * * * * * * * //

dimensions      [1 -1 -2 0 0 0 0];

internalField   nonuniform List<scalar> 
64512
(
1
1
1
1
1
1
1
1
1
1
1
1
1
1
1
1
1
1
1
1
1
1
1
1
1
1
1
1
1
1
1
1
1
1
1
1
1
1
1
1
1
1
1
1
1
1
1
1
1
2.88806
9.47364
10.4711
10.5069
10.5685
10.6275
10.69
10.7509
10.8083
10.8615
10.9117
10.9615
11.0131
11.0669
11.122
11.1756
11.2245
11.268
11.3067
11.3443
11.3866
11.4347
11.4841
11.5293
11.5684
11.6022
11.6324
11.6614
11.6925
11.727
11.7628
11.7966
11.8265
11.8527
11.8764
11.8984
11.9191
11.9387
11.9564
11.9729
11.9887
12.0051
12.0235
12.0417
12.0574
12.0703
12.0808
1
1
1
1
1
1
1
1
1
1
1
1
1
1
1
1
1
1
1
1
1
1
1
1
1
1
1
1
1
1
1
1
1
1
1
1
1
1
1
1
1
1
1
1
1
1
1
1
1
2.86443
9.4471
10.4673
10.5077
10.5695
10.6283
10.69
10.7506
10.8081
10.8614
10.9112
10.9605
11.0119
11.0657
11.1205
11.1735
11.2218
11.265
11.304
11.3425
11.3853
11.4336
11.4826
11.5277
11.5667
11.6007
11.6313
11.6605
11.6915
11.7255
11.7606
11.7939
11.8235
11.8495
11.873
11.895
11.9159
11.9358
11.9538
11.9704
11.9862
12.0024
12.0205
12.0384
12.054
12.0666
12.0769
1
1
1
1
1
1
1
1
1
1
1
1
1
1
1
1
1
1
1
1
1
1
1
1
1
1
1
1
1
1
1
1
1
1
1
1
1
1
1
1
1
1
1
1
1
1
1
1
1
2.80073
9.40376
10.4627
10.5021
10.5665
10.6257
10.6871
10.7479
10.806
10.8595
10.909
10.9579
11.0091
11.0628
11.1175
11.17
11.2175
11.2604
11.2994
11.3386
11.3821
11.4307
11.4796
11.5246
11.5636
11.598
11.629
11.6585
11.6892
11.7225
11.7568
11.7895
11.8189
11.8449
11.8684
11.8902
11.9112
11.9312
11.9495
11.9663
11.982
11.998
12.0157
12.033
12.0483
12.0607
12.0708
1
1
1
1
1
1
1
1
1
1
1
1
1
1
1
1
1
1
1
1
1
1
1
1
1
1
1
1
1
1
1
1
1
1
1
1
1
1
1
1
1
1
1
1
1
1
1
1
1
2.6998
9.34342
10.4584
10.4981
10.564
10.6226
10.6834
10.7442
10.8026
10.8561
10.9052
10.9536
11.0046
11.058
11.1123
11.1643
11.2112
11.2539
11.2928
11.3327
11.3768
11.426
11.475
11.5201
11.5593
11.5939
11.6252
11.6549
11.6853
11.7178
11.751
11.783
11.8121
11.838
11.8614
11.8833
11.9043
11.9245
11.9432
11.9601
11.9757
11.9913
12.0085
12.025
12.0399
12.0518
12.0615
1
1
1
1
1
1
1
1
1
1
1
1
1
1
1
1
1
1
1
1
1
1
1
1
1
1
1
1
1
1
1
1
1
1
1
1
1
1
1
1
1
1
1
1
1
1
1
1
1
2.5761
9.25572
10.4495
10.4893
10.5564
10.6152
10.6765
10.7378
10.7966
10.8504
10.8998
10.9484
10.9992
11.052
11.1058
11.1574
11.2038
11.2461
11.2848
11.3251
11.3695
11.4193
11.4684
11.514
11.5534
11.588
11.6194
11.6492
11.6794
11.711
11.7432
11.7744
11.8031
11.829
11.8525
11.8744
11.8955
11.916
11.9348
11.9519
11.9675
11.983
11.9995
12.0151
12.0292
12.0403
12.0494
1
1
1
1
1
1
1
1
1
1
1
1
1
1
1
1
1
1
1
1
1
1
1
1
1
1
1
1
1
1
1
1
1
1
1
1
1
1
1
1
1
1
1
1
1
1
1
1
1
2.42804
9.13452
10.4421
10.482
10.55
10.6092
10.6712
10.7327
10.7911
10.8446
10.8938
10.9422
10.9926
11.0446
11.0979
11.1493
11.1955
11.2377
11.2761
11.3163
11.3606
11.4107
11.4599
11.5058
11.5452
11.5798
11.6112
11.6412
11.6714
11.7026
11.7339
11.7643
11.7925
11.8183
11.8418
11.8639
11.885
11.9053
11.9239
11.941
11.9567
11.9722
11.9882
12.0029
12.0163
12.0264
12.0347
1
1
1
1
1
1
1
1
1
1
1
1
1
1
1
1
1
1
1
1
1
1
1
1
1
1
1
1
1
1
1
1
1
1
1
1
1
1
1
1
1
1
1
1
1
1
1
1
1
2.25524
8.97383
10.4367
10.4761
10.5442
10.6028
10.665
10.7266
10.7847
10.8377
10.8866
10.9346
10.9846
11.036
11.0889
11.1401
11.1862
11.2282
11.2663
11.3066
11.3508
11.4009
11.4499
11.4955
11.5345
11.5686
11.5999
11.6302
11.6606
11.6917
11.7225
11.7521
11.7796
11.805
11.8287
11.851
11.8722
11.8923
11.9106
11.9276
11.9433
11.9592
11.975
11.9888
12.0013
12.01
12.0175
1
1
1
1
1
1
1
1
1
1
1
1
1
1
1
1
1
1
1
1
1
1
1
1
1
1
1
1
1
1
1
1
1
1
1
1
1
1
1
1
1
1
1
1
1
1
1
1
1
2.06293
8.76811
10.4315
10.4709
10.5387
10.596
10.6576
10.7189
10.7767
10.8293
10.8777
10.9255
10.9752
11.0266
11.0797
11.131
11.1766
11.2179
11.2551
11.2948
11.3383
11.388
11.4364
11.4816
11.5201
11.5541
11.5856
11.6168
11.6481
11.6795
11.7099
11.7385
11.7649
11.7897
11.8133
11.8358
11.8572
11.8772
11.895
11.9117
11.9274
11.9436
11.9593
11.9723
11.9838
11.9911
11.9978
1
1
1
1
1
1
1
1
1
1
1
1
1
1
1
1
1
1
1
1
1
1
1
1
1
1
1
1
1
1
1
1
1
1
1
1
1
1
1
1
1
1
1
1
1
1
1
1
1
1.85856
8.50848
10.4264
10.4667
10.5334
10.5896
10.6501
10.7109
10.7686
10.8208
10.8685
10.9152
10.9639
11.0147
11.0678
11.1191
11.1643
11.2051
11.2418
11.2812
11.3243
11.3733
11.421
11.4659
11.5041
11.5383
11.5703
11.6022
11.6341
11.6654
11.6951
11.7224
11.7475
11.7714
11.7947
11.8174
11.8392
11.8593
11.8769
11.8934
11.909
11.9256
11.9411
11.9534
11.9641
11.97
11.976
1
1
1
1
1
1
1
1
1
1
1
1
1
1
1
1
1
1
1
1
1
1
1
1
1
1
1
1
1
1
1
1
1
1
1
1
1
1
1
1
1
1
1
1
1
1
1
1
1
1.65831
8.19852
10.423
10.4632
10.5271
10.5818
10.6416
10.7025
10.7603
10.8122
10.8589
10.9043
10.9517
11.0018
11.0547
11.1059
11.1507
11.1911
11.2274
11.2666
11.3092
11.3571
11.4041
11.4487
11.4867
11.521
11.5532
11.5852
11.617
11.6481
11.6773
11.7038
11.7282
11.7515
11.7744
11.797
11.8187
11.8388
11.8565
11.8729
11.8883
11.9047
11.9197
11.9312
11.941
11.9459
11.9514
1
1
1
1
1
1
1
1
1
1
1
1
1
1
1
1
1
1
1
1
1
1
1
1
1
1
1
1
1
1
1
1
1
1
1
1
1
1
1
1
1
1
1
1
1
1
1
1
1
1.46416
7.83162
10.421
10.4638
10.522
10.5742
10.6325
10.6926
10.7503
10.8021
10.8481
10.8925
10.9386
10.988
11.0404
11.0913
11.1356
11.1755
11.2112
11.2497
11.2914
11.3376
11.3836
11.4279
11.4665
11.5016
11.5347
11.5672
11.599
11.6294
11.6574
11.6826
11.7058
11.7282
11.7503
11.7724
11.794
11.8145
11.8329
11.8501
11.8657
11.8814
11.8953
11.9057
11.9147
11.9188
11.9242
1
1
1
1
1
1
1
1
1
1
1
1
1
1
1
1
1
1
1
1
1
1
1
1
1
1
1
1
1
1
1
1
1
1
1
1
1
1
1
1
1
1
1
1
1
1
1
1
1
1.28096
7.42771
10.414
10.4539
10.5103
10.5622
10.6191
10.6782
10.7355
10.7873
10.8338
10.8782
10.9235
10.9718
11.0233
11.0736
11.1173
11.157
11.1923
11.2304
11.2717
11.317
11.3628
11.4069
11.4457
11.4807
11.5135
11.5452
11.5759
11.6054
11.6327
11.6575
11.6805
11.7026
11.7241
11.7453
11.7665
11.7872
11.8067
11.825
11.841
11.8559
11.8681
11.877
11.8851
11.889
11.8944
1
1
1
1
1
1
1
1
1
1
1
1
1
1
1
1
1
1
1
1
1
1
1
1
1
1
1
1
1
1
1
1
1
1
1
1
1
1
1
1
1
1
1
1
1
1
1
1
1
1.09796
6.97437
10.4201
10.4475
10.4994
10.553
10.6095
10.6681
10.7248
10.7757
10.821
10.864
10.9076
10.954
11.0035
11.0525
11.0954
11.1347
11.1698
11.2074
11.2486
11.2932
11.3389
11.3827
11.4221
11.4573
11.4902
11.5211
11.5508
11.579
11.6052
11.6295
11.6525
11.6744
11.6953
11.7156
11.7359
11.7569
11.7776
11.7972
11.8137
11.8277
11.8378
11.8446
11.8517
11.8556
11.8613
1
1
1
1
1
1
1
1
1
1
1
1
1
1
1
1
1
1
1
1
1
1
1
1
1
1
1
1
1
1
1
1
1
1
1
1
1
1
1
1
1
1
1
1
1
1
1
1
1
1.00383
6.43893
10.3407
10.4096
10.4658
10.5253
10.5848
10.646
10.7049
10.757
10.8034
10.8472
10.8908
10.9365
10.9853
11.034
11.0766
11.1159
11.1507
11.1874
11.2277
11.2707
11.3158
11.3586
11.3976
11.4322
11.4644
11.4943
11.5229
11.55
11.5753
11.599
11.6217
11.6434
11.6634
11.6823
11.7016
11.7223
11.7441
11.7651
11.7823
11.7955
11.8037
11.8085
11.8145
11.8185
11.8243
1
1
1
1
1
1
1
1
1
1
1
1
1
1
1
1
1
1
1
1
1
1
1
1
1
1
1
1
1
1
1
1
1
1
1
1
1
1
1
1
1
1
1
1
1
1
1
1
1
1.00002
5.80552
10.254
10.3898
10.446
10.5059
10.5652
10.6268
10.6861
10.7387
10.7855
10.8294
10.8725
10.917
10.9643
11.0116
11.0529
11.0914
11.1256
11.1614
11.2012
11.2435
11.2881
11.3299
11.3685
11.4026
11.4343
11.4634
11.4912
11.5174
11.5419
11.5651
11.5875
11.6087
11.6281
11.6459
11.6641
11.6846
11.7069
11.7289
11.7466
11.7594
11.7663
11.7693
11.7743
11.778
11.7836
1
1
1
1
1
1
1
1
1
1
1
1
1
1
1
1
1
1
1
1
1
1
1
1
1
1
1
1
1
1
1
1
1
1
1
1
1
1
1
1
1
1
1
1
1
1
1
1
1
1
5.13046
10.1364
10.3644
10.425
10.487
10.5467
10.6079
10.6668
10.7189
10.7656
10.8096
10.8526
10.8966
10.9432
10.9896
11.0301
11.0679
11.102
11.1369
11.1758
11.2169
11.2604
11.3006
11.3382
11.3715
11.4024
11.4306
11.4575
11.4828
11.5065
11.5289
11.5507
11.5713
11.5899
11.6068
11.6242
11.644
11.6662
11.6883
11.7063
11.7189
11.725
11.7267
11.7305
11.7333
11.738
1
1
1
1
1
1
1
1
1
1
1
1
1
1
1
1
1
1
1
1
1
1
1
1
1
1
1
1
1
1
1
1
1
1
1
1
1
1
1
1
1
1
1
1
1
1
1
1
1
1
4.43299
9.97366
10.344
10.4021
10.4659
10.5256
10.5867
10.6456
10.6978
10.7442
10.7879
10.8305
10.8737
10.9193
10.9645
11.004
11.0413
11.0756
11.11
11.1484
11.1884
11.2306
11.269
11.3056
11.3381
11.3681
11.3954
11.4214
11.4457
11.4685
11.4902
11.5112
11.531
11.5488
11.5651
11.5816
11.6004
11.6214
11.6426
11.6603
11.673
11.6793
11.6805
11.6832
11.685
11.6884
1
1
1
1
1
1
1
1
1
1
1
1
1
1
1
1
1
1
1
1
1
1
1
1
1
1
1
1
1
1
1
1
1
1
1
1
1
1
1
1
1
1
1
1
1
1
1
1
1
1
3.7287
9.73521
10.3314
10.3846
10.4505
10.5097
10.5695
10.6267
10.6774
10.7228
10.7658
10.8081
10.8508
10.8956
10.9401
10.9791
11.0154
11.0495
11.0827
11.1197
11.1581
11.1984
11.2351
11.2706
11.3025
11.3318
11.3581
11.3829
11.406
11.4277
11.4482
11.4682
11.4872
11.5044
11.5203
11.5363
11.5538
11.5729
11.5923
11.6091
11.6219
11.6288
11.6299
11.6316
11.6317
11.6337
1
1
1
1
1
1
1
1
1
1
1
1
1
1
1
1
1
1
1
1
1
1
1
1
1
1
1
1
1
1
1
1
1
1
1
1
1
1
1
1
1
1
1
1
1
1
1
1
1
1
3.06303
9.39923
10.3327
10.3686
10.4328
10.4891
10.5485
10.6054
10.6567
10.702
10.7443
10.7864
10.8287
10.8722
10.9154
10.9535
10.9882
11.0218
11.0538
11.0891
11.1259
11.1641
11.1994
11.2335
11.2647
11.2929
11.3179
11.3412
11.3629
11.3833
11.4026
11.4215
11.4396
11.4566
11.4724
11.4877
11.5034
11.5198
11.5366
11.5518
11.5645
11.5722
11.5738
11.575
11.5738
11.5745
1
1
1
1
1
1
1
1
1
1
1
1
1
1
1
1
1
1
1
1
1
1
1
1
1
1
1
1
1
1
1
1
1
1
1
1
1
1
1
1
1
1
1
1
1
1
1
1
1
1
2.42388
8.92964
10.3426
10.3666
10.4304
10.4795
10.5338
10.5877
10.6379
10.6827
10.7236
10.7641
10.8049
10.8469
10.8892
10.9271
10.9605
10.9937
11.0246
11.0582
11.093
11.1287
11.1623
11.1947
11.2248
11.2519
11.2755
11.297
11.3171
11.3357
11.3534
11.3708
11.388
11.4046
11.4202
11.4348
11.4487
11.4622
11.476
11.4892
11.5013
11.5094
11.5112
11.5119
11.5094
11.5091
1
1
1
1
1
1
1
1
1
1
1
1
1
1
1
1
1
1
1
1
1
1
1
1
1
1
1
1
1
1
1
1
1
1
1
1
1
1
1
1
1
1
1
1
1
1
1
1
1
1
1.82298
8.36861
10.3979
10.3565
10.4115
10.454
10.5062
10.5607
10.6122
10.6577
10.6987
10.7384
10.7784
10.8193
10.8608
10.8986
10.9316
10.9643
10.9947
11.0267
11.0591
11.0921
11.1239
11.1545
11.1833
11.2091
11.2312
11.2507
11.2686
11.2852
11.3008
11.3164
11.3324
11.3483
11.3635
11.377
11.3886
11.3989
11.4094
11.4199
11.4308
11.4386
11.4409
11.4415
11.4385
11.438
1
1
1
1
1
1
1
1
1
1
1
1
1
1
1
1
1
1
1
1
1
1
1
1
1
1
1
1
1
1
1
1
1
1
1
1
1
1
1
1
1
1
1
1
1
1
1
1
1
1
1.31043
7.64224
10.4459
10.3652
10.3939
10.429
10.4748
10.5241
10.5756
10.6251
10.6693
10.7093
10.7483
10.7882
10.8288
10.8668
10.8999
10.9323
10.9629
10.9936
11.024
11.0542
11.0842
11.1127
11.14
11.1644
11.1849
11.2023
11.2179
11.2321
11.2452
11.2586
11.2728
11.2874
11.3012
11.3131
11.3226
11.33
11.3375
11.345
11.3537
11.3599
11.3616
11.3617
11.3583
11.3576
1
1
1
1
1
1
1
1
1
1
1
1
1
1
1
1
1
1
1
1
1
1
1
1
1
1
1
1
1
1
1
1
1
1
1
1
1
1
1
1
1
1
1
1
1
1
1
1
1
1
1.01594
6.88143
10.325
10.2856
10.3369
10.3831
10.436
10.491
10.5442
10.5921
10.6355
10.676
10.7156
10.755
10.794
10.831
10.8644
10.8965
10.9279
10.958
10.9872
11.0146
11.0424
11.0688
11.0945
11.1175
11.1365
11.1517
11.1648
11.1764
11.1869
11.1977
11.2096
11.2219
11.2334
11.2429
11.2497
11.2542
11.2581
11.262
11.267
11.2706
11.2718
11.2717
11.2685
11.2684
1
1
1
1
1
1
1
1
1
1
1
1
1
1
1
1
1
1
1
1
1
1
1
1
1
1
1
1
1
1
1
1
1
1
1
1
1
1
1
1
1
1
1
1
1
1
1
1
1
1
1.00008
5.89164
10.1289
10.2472
10.3111
10.3641
10.4132
10.4638
10.5143
10.5617
10.6037
10.642
10.6788
10.7167
10.755
10.7922
10.8254
10.8563
10.8883
10.9182
10.9471
10.9725
10.9979
11.0223
11.0465
11.068
11.0854
11.0985
11.109
11.1177
11.1256
11.1336
11.1426
11.1515
11.1593
11.1655
11.1696
11.1713
11.1717
11.1716
11.172
11.1719
11.1706
11.1687
11.1648
11.1644
1
1
1
1
1
1
1
1
1
1
1
1
1
1
1
1
1
1
1
1
1
1
1
1
1
1
1
1
1
1
1
1
1
1
1
1
1
1
1
1
1
1
1
1
1
1
1
1
1
1
1
4.89349
9.93595
10.1841
10.2586
10.3238
10.3771
10.4309
10.4831
10.5307
10.5726
10.6107
10.6468
10.681
10.7156
10.7494
10.7823
10.8132
10.8448
10.874
10.9024
10.9267
10.95
10.9728
10.9955
11.0155
11.0314
11.0423
11.0499
11.0558
11.0611
11.066
11.0715
11.0761
11.0793
11.0815
11.0819
11.0799
11.0757
11.0697
11.0637
11.0586
11.0541
11.0507
11.0467
11.0469
1
1
1
1
1
1
1
1
1
1
1
1
1
1
1
1
1
1
1
1
1
1
1
1
1
1
1
1
1
1
1
1
1
1
1
1
1
1
1
1
1
1
1
1
1
1
1
1
1
1
1
3.89425
9.57655
10.1662
10.2518
10.3133
10.3612
10.4063
10.4527
10.4974
10.5384
10.5745
10.6082
10.6417
10.675
10.708
10.7393
10.7664
10.7971
10.8257
10.8533
10.8768
10.8982
10.9194
10.9406
10.9593
10.9738
10.9826
10.9872
10.9905
10.9925
10.9941
10.9955
10.9952
10.9931
10.9902
10.9859
10.9791
10.9695
10.9574
10.9452
10.9334
10.9231
10.9143
10.9066
10.9039
1
1
1
1
1
1
1
1
1
1
1
1
1
1
1
1
1
1
1
1
1
1
1
1
1
1
1
1
1
1
1
1
1
1
1
1
1
1
1
1
1
1
1
1
1
1
1
1
1
1
1
2.94002
9.06314
10.1591
10.2152
10.2747
10.326
10.3777
10.4266
10.4707
10.5085
10.5416
10.5727
10.6029
10.6331
10.6628
10.6929
10.7224
10.7477
10.774
10.7992
10.8225
10.8424
10.8618
10.8811
10.8986
10.9117
10.9188
10.921
10.9214
10.9196
10.9176
10.9142
10.9085
10.9006
10.8917
10.8815
10.8686
10.8516
10.8309
10.808
10.7854
10.7667
10.7523
10.7421
10.7397
1
1
1
1
1
1
1
1
1
1
1
1
1
1
1
1
1
1
1
1
1
1
1
1
1
1
1
1
1
1
1
1
1
1
1
1
1
1
1
1
1
1
1
1
1
1
1
1
1
1
1
1.98413
8.35497
10.2773
10.2225
10.2703
10.3105
10.3499
10.3912
10.4347
10.4742
10.5084
10.5385
10.5671
10.5946
10.6216
10.6474
10.6729
10.6969
10.7201
10.7426
10.764
10.7826
10.8001
10.817
10.8327
10.8443
10.85
10.8507
10.8479
10.842
10.8356
10.827
10.8156
10.8012
10.7853
10.7679
10.7466
10.7203
10.6892
10.6554
10.622
10.5913
10.5631
10.5394
10.5252
1
1
1
1
1
1
1
1
1
1
1
1
1
1
1
1
1
1
1
1
1
1
1
1
1
1
1
1
1
1
1
1
1
1
1
1
1
1
1
1
1
1
1
1
1
1
1
1
1
1
1
1.20468
7.48474
10.3681
10.2482
10.2346
10.2601
10.3054
10.3557
10.4016
10.4406
10.4729
10.5015
10.5293
10.556
10.5809
10.6042
10.6267
10.648
10.6671
10.6847
10.7035
10.7212
10.7356
10.7493
10.7619
10.7713
10.776
10.7754
10.7695
10.7598
10.7485
10.7342
10.7165
10.6952
10.6712
10.6447
10.6134
10.5755
10.531
10.4801
10.4245
10.369
10.3204
10.2831
10.2701
1
1
1
1
1
1
1
1
1
1
1
1
1
1
1
1
1
1
1
1
1
1
1
1
1
1
1
1
1
1
1
1
1
1
1
1
1
1
1
1
1
1
1
1
1
1
1
1
1
1
1
1.00522
6.42079
10.1245
10.0968
10.1839
10.2303
10.2763
10.3199
10.3647
10.4037
10.4356
10.4633
10.4899
10.5153
10.5385
10.5596
10.5795
10.5985
10.6151
10.6299
10.6438
10.6578
10.6699
10.6796
10.6875
10.6941
10.6969
10.6945
10.6857
10.6721
10.6554
10.635
10.6107
10.5819
10.5487
10.5114
10.4678
10.4151
10.3524
10.28
10.2011
10.1204
10.0423
9.961
9.89186
1
1
1
1
1
1
1
1
1
1
1
1
1
1
1
1
1
1
1
1
1
1
1
1
1
1
1
1
1
1
1
1
1
1
1
1
1
1
1
1
1
1
1
1
1
1
1
1
1
1
1
0.999993
5.10031
9.79659
10.0533
10.1598
10.2014
10.2365
10.2783
10.3201
10.3582
10.3923
10.4216
10.4478
10.4724
10.4947
10.5142
10.5315
10.5477
10.5619
10.5745
10.5858
10.5957
10.604
10.6097
10.6119
10.6142
10.6141
10.6091
10.5972
10.5794
10.5571
10.5302
10.4989
10.4618
10.4185
10.3687
10.3103
10.2399
10.1559
10.0568
9.94006
9.80008
9.63792
9.48012
9.36675
1
1
1
1
1
1
1
1
1
1
1
1
1
1
1
1
1
1
1
1
1
1
1
1
1
1
1
1
1
1
1
1
1
1
1
1
1
1
1
1
1
1
1
1
1
1
1
1
1
1
1
0.999998
3.86881
9.41442
10.0462
10.1223
10.1749
10.2164
10.2459
10.2767
10.3127
10.3468
10.3763
10.4024
10.4263
10.4476
10.4659
10.4813
10.4948
10.5065
10.5169
10.5259
10.5326
10.5381
10.5401
10.5367
10.5333
10.5291
10.5203
10.5046
10.4818
10.4534
10.4197
10.3808
10.3349
10.2805
10.2166
10.1413
10.0502
9.93957
9.80327
9.63437
9.42929
9.18637
8.92652
8.76056
1
1
1
1
1
1
1
1
1
1
1
1
1
1
1
1
1
1
1
1
1
1
1
1
1
1
1
1
1
1
1
1
1
1
1
1
1
1
1
1
1
1
1
1
1
1
1
1
1
1
1
1
2.64053
8.73275
10.0962
10.1191
10.1489
10.1785
10.2101
10.244
10.276
10.3049
10.3315
10.3556
10.3777
10.3976
10.4146
10.4288
10.4403
10.4496
10.4576
10.4645
10.4684
10.4709
10.4696
10.4619
10.4528
10.4431
10.4294
10.4091
10.3807
10.3457
10.3047
10.2577
10.2024
10.1362
10.057
9.9628
9.84802
9.70705
9.53071
9.30741
9.00889
8.56808
7.73678
5.78682
1
1
1
1
1
1
1
1
1
1
1
1
1
1
1
1
1
1
1
1
1
1
1
1
1
1
1
1
1
1
1
1
1
1
1
1
1
1
1
1
1
1
1
1
1
1
1
1
1
1
1
1
1.56531
7.99
10.2024
10.0891
10.0961
10.1314
10.1699
10.2054
10.2382
10.2668
10.2906
10.311
10.3295
10.3466
10.3618
10.3745
10.3842
10.3914
10.3973
10.4019
10.403
10.4022
10.3974
10.387
10.3729
10.3571
10.3377
10.3119
10.2774
10.2352
10.1862
10.1304
10.065
9.98635
9.89116
9.77687
9.63709
9.46348
9.24252
8.94921
8.53828
7.8965
6.93336
4.72086
1
1
1
1
1
1
1
1
1
1
1
1
1
1
1
1
1
1
1
1
1
1
1
1
1
1
1
1
1
1
1
1
1
1
1
1
1
1
1
1
1
1
1
1
1
1
1
1
1
1
1
1
1.03845
6.81417
10.0956
10.0304
10.0581
10.0894
10.1299
10.165
10.1973
10.2256
10.2491
10.2682
10.2838
10.2971
10.3087
10.3189
10.3263
10.3317
10.3354
10.3375
10.3362
10.3319
10.3238
10.3108
10.2921
10.2704
10.2447
10.2129
10.1723
10.1232
10.066
10.0007
9.92448
9.83299
9.72162
9.58697
9.42184
9.21633
8.95174
8.60372
8.10534
7.44432
6.16753
4.36152
1
1
1
1
1
1
1
1
1
1
1
1
1
1
1
1
1
1
1
1
1
1
1
1
1
1
1
1
1
1
1
1
1
1
1
1
1
1
1
1
1
1
1
1
1
1
1
1
1
1
1
1
1.00009
5.26762
9.68374
9.93028
10.0114
10.0552
10.0884
10.1207
10.1513
10.1791
10.2025
10.2216
10.2364
10.2477
10.2563
10.2636
10.2686
10.2719
10.2733
10.2728
10.2689
10.2613
10.2503
10.2339
10.2112
10.1835
10.1511
10.1129
10.0663
10.0107
9.94537
9.87032
9.7827
9.67819
9.55113
9.39724
9.20799
8.97451
8.67306
8.28525
7.74196
6.99101
5.757
4.26604
1
1
1
1
1
1
1
1
1
1
1
1
1
1
1
1
1
1
1
1
1
1
1
1
1
1
1
1
1
1
1
1
1
1
1
1
1
1
1
1
1
1
1
1
1
1
1
1
1
1
1
1
0.999999
3.81878
9.31054
9.924
9.98803
10.0343
10.0584
10.077
10.1022
10.1285
10.1521
10.1717
10.1867
10.1969
10.2036
10.2078
10.21
10.2109
10.2099
10.2064
10.1997
10.1892
10.1754
10.1559
10.1297
10.0962
10.057
10.012
9.95922
9.89731
9.82464
9.7403
9.64131
9.52406
9.38205
9.21095
9.00083
8.7435
8.41571
7.99421
7.43667
6.65729
5.56664
4.37042
1
1
1
1
1
1
1
1
1
1
1
1
1
1
1
1
1
1
1
1
1
1
1
1
1
1
1
1
1
1
1
1
1
1
1
1
1
1
1
1
1
1
1
1
1
1
1
1
1
1
1
1
1
2.39003
8.54187
9.98904
9.97229
9.99308
10.0166
10.0395
10.0617
10.0842
10.1057
10.1241
10.1382
10.1473
10.1524
10.1542
10.1533
10.1516
10.1479
10.1411
10.131
10.1171
10.1
10.0774
10.0477
10.0093
9.96362
9.91152
9.8523
9.78418
9.70447
9.61163
9.50188
9.37292
9.21751
9.03176
8.80523
8.52913
8.18468
7.74519
7.18234
6.43854
5.51295
4.51356
1
1
1
1
1
1
1
1
1
1
1
1
1
1
1
1
1
1
1
1
1
1
1
1
1
1
1
1
1
1
1
1
1
1
1
1
1
1
1
1
1
1
1
1
1
1
1
1
1
1
1
1
1
1.26114
7.53868
10.1117
9.98805
9.95401
9.97266
9.99836
10.0186
10.0386
10.058
10.075
10.0878
10.0959
10.0999
10.0994
10.0959
10.0914
10.0851
10.0751
10.0614
10.0439
10.0229
9.99744
9.96455
9.9223
9.87132
9.81264
9.74646
9.67167
9.58478
9.48388
9.36466
9.22558
9.05873
8.86101
8.62248
8.33379
7.9807
7.5391
6.984
6.30763
5.51101
4.64601
1
1
1
1
1
1
1
1
1
1
1
1
1
1
1
1
1
1
1
1
1
1
1
1
1
1
1
1
1
1
1
1
1
1
1
1
1
1
1
1
1
1
1
1
1
1
1
1
1
1
1
1
1
1.00727
6.10104
9.73978
9.80901
9.87686
9.91396
9.94609
9.96863
9.98932
10.0086
10.0252
10.0377
10.0458
10.0481
10.0457
10.0398
10.0324
10.0233
10.0106
9.99338
9.97169
9.94617
9.91689
9.88043
9.83491
9.77963
9.71531
9.64235
9.56066
9.46691
9.35842
9.23103
9.08319
8.90808
8.70148
8.455
8.15969
7.80525
7.37182
6.84019
6.22359
5.52699
4.78557
1
1
1
1
1
1
1
1
1
1
1
1
1
1
1
1
1
1
1
1
1
1
1
1
1
1
1
1
1
1
1
1
1
1
1
1
1
1
1
1
1
1
1
1
1
1
1
1
1
1
1
1
1
0.999959
4.38743
9.32731
9.77183
9.85468
9.89259
9.91007
9.92503
9.94243
9.95972
9.97515
9.98718
9.99464
9.9955
9.99123
9.98289
9.97232
9.96016
9.94462
9.92443
9.89917
9.86915
9.83545
9.79553
9.74708
9.6885
9.61971
9.54091
9.45245
9.35177
9.23602
9.10162
8.94599
8.76486
8.5529
8.30233
8.00462
7.65629
7.23325
6.73508
6.1809
5.55999
4.91914
1
1
1
1
1
1
1
1
1
1
1
1
1
1
1
1
1
1
1
1
1
1
1
1
1
1
1
1
1
1
1
1
1
1
1
1
1
1
1
1
1
1
1
1
1
1
1
1
1
1
1
1
1
0.99999
2.69469
8.68508
9.84055
9.8482
9.85624
9.86743
9.88281
9.89702
9.91156
9.92527
9.9365
9.94344
9.94359
9.9379
9.92698
9.91299
9.89727
9.87847
9.85543
9.82719
9.79322
9.75463
9.71079
9.65915
9.59739
9.5249
9.44132
9.34693
9.23987
9.11787
8.97793
8.81659
8.63099
8.41598
8.16507
7.8691
7.53069
7.1187
6.66314
6.16711
5.60008
5.0392
1
1
1
1
1
1
1
1
1
1
1
1
1
1
1
1
1
1
1
1
1
1
1
1
1
1
1
1
1
1
1
1
1
1
1
1
1
1
1
1
1
1
1
1
1
1
1
1
1
1
1
1
1
0.999998
1.35828
7.67638
9.98426
9.84747
9.80166
9.81691
9.83646
9.85026
9.86305
9.87495
9.88479
9.89057
9.89017
9.88351
9.87055
9.85357
9.83404
9.8116
9.78549
9.75456
9.71741
9.67435
9.62592
9.57125
9.50677
9.43142
9.34416
9.24496
9.13232
9.00475
8.86004
8.69466
8.50618
8.29002
8.04084
7.75081
7.42325
7.02742
6.61586
6.15839
5.63457
5.1411
1
1
1
1
1
1
1
1
1
1
1
1
1
1
1
1
1
1
1
1
1
1
1
1
1
1
1
1
1
1
1
1
1
1
1
1
1
1
1
1
1
1
1
1
1
1
1
1
1
1
1
1
1
1
1.01341
6.13962
9.60335
9.67343
9.73041
9.76153
9.78596
9.80151
9.81372
9.82428
9.83271
9.83709
9.83586
9.82838
9.81386
9.79438
9.77118
9.74474
9.71513
9.68133
9.64138
9.59476
9.54184
9.48365
9.41683
9.33926
9.24907
9.14602
9.02889
8.8969
8.74855
8.58079
8.39104
8.17542
7.92969
7.64873
7.3304
6.96018
6.58214
6.14561
5.6754
5.23493
1
1
1
1
1
1
1
1
1
1
1
1
1
1
1
1
1
1
1
1
1
1
1
1
1
1
1
1
1
1
1
1
1
1
1
1
1
1
1
1
1
1
1
1
1
1
1
1
1
1
1
1
1
1
0.999941
4.24184
9.18056
9.62756
9.69901
9.73617
9.75169
9.75963
9.76761
9.77495
9.78061
9.78268
9.77977
9.77118
9.7556
9.73463
9.70903
9.67921
9.64616
9.6093
9.5666
9.51693
9.45997
9.39738
9.32783
9.24859
9.1564
9.05061
8.93016
8.79491
8.64369
8.47446
8.28466
8.0709
7.83003
7.55856
7.25254
6.90948
6.55152
6.13978
5.72808
5.31528
1
1
1
1
1
1
1
1
1
1
1
1
1
1
1
1
1
1
1
1
1
1
1
1
1
1
1
1
1
1
1
1
1
1
1
1
1
1
1
1
1
1
1
1
1
1
1
1
1
1
1
1
1
1
0.999985
2.41088
8.46929
9.70956
9.68902
9.69965
9.71372
9.72061
9.72457
9.72771
9.72997
9.72934
9.72418
9.71388
9.69702
9.67455
9.64703
9.61421
9.57762
9.5373
9.49173
9.43952
9.37961
9.31334
9.24068
9.15953
9.06604
8.95869
8.83608
8.6987
8.54564
8.37583
8.1872
7.97624
7.74056
7.47881
7.18756
6.86606
6.52735
6.14785
5.77676
5.38136
1
1
1
1
1
1
1
1
1
1
1
1
1
1
1
1
1
1
1
1
1
1
1
1
1
1
1
1
1
1
1
1
1
1
1
1
1
1
1
1
1
1
1
1
1
1
1
1
1
1
1
1
1
1
0.999997
1.18404
7.19484
9.77933
9.67127
9.64984
9.66548
9.67522
9.67814
9.67914
9.67883
9.67573
9.66851
9.65664
9.63877
9.61521
9.58604
9.55105
9.51138
9.46764
9.41912
9.36458
9.30242
9.23311
9.15692
9.0728
8.97763
8.86939
8.74617
8.60808
8.45428
8.2845
8.09787
7.88992
7.66104
7.40784
7.12766
6.82895
6.5124
6.15974
5.8134
5.43521
1
1
1
1
1
1
1
1
1
1
1
1
1
1
1
1
1
1
1
1
1
1
1
1
1
1
1
1
1
1
1
1
1
1
1
1
1
1
1
1
1
1
1
1
1
1
1
1
1
1
1
1
1
1
1
1.00295
5.35788
9.30216
9.51595
9.59686
9.62552
9.6326
9.6329
9.631
9.628
9.62249
9.61329
9.59969
9.58058
9.55571
9.5249
9.48814
9.44576
9.39864
9.34701
9.29026
9.22654
9.15536
9.07637
8.98911
8.89176
8.78266
8.65998
8.52257
8.36951
8.20003
8.01586
7.81161
7.59053
7.34184
7.07491
6.80286
6.49807
6.16681
5.84038
5.48949
1
1
1
1
1
1
1
1
1
1
1
1
1
1
1
1
1
1
1
1
1
1
1
1
1
1
1
1
1
1
1
1
1
1
1
1
1
1
1
1
1
1
1
1
1
1
1
1
1
1
1
1
1
1
1
0.99997
3.22266
8.79692
9.57548
9.58114
9.59035
9.59893
9.59555
9.58887
9.58136
9.57209
9.56013
9.54435
9.52381
9.49767
9.46527
9.42691
9.38225
9.33204
9.27717
9.21801
9.1529
9.08039
8.99925
8.90897
8.80895
8.6986
8.57665
8.44074
8.28976
8.12196
7.94092
7.73976
7.52497
7.28313
7.03511
6.77604
6.4716
6.17203
5.8697
5.54556
1
1
1
1
1
1
1
1
1
1
1
1
1
1
1
1
1
1
1
1
1
1
1
1
1
1
1
1
1
1
1
1
1
1
1
1
1
1
1
1
1
1
1
1
1
1
1
1
1
1
1
1
1
1
1
0.999993
1.50919
7.8256
9.69949
9.57074
9.54171
9.549
9.54728
9.5403
9.53131
9.51995
9.50601
9.48824
9.46617
9.43881
9.40503
9.36536
9.31904
9.2664
9.20863
9.14704
9.08047
9.007
8.92451
8.83215
8.72981
8.61814
8.49663
8.36283
8.21475
8.05071
7.87271
7.67354
7.46662
7.23445
6.9997
6.7397
6.45315
6.18789
5.89575
5.59193
1
1
1
1
1
1
1
1
1
1
1
1
1
1
1
1
1
1
1
1
1
1
1
1
1
1
1
1
1
1
1
1
1
1
1
1
1
1
1
1
1
1
1
1
1
1
1
1
1
1
1
1
1
1
1
0.999999
1.02475
6.10206
9.32924
9.43592
9.49319
9.50615
9.49984
9.49254
9.48197
9.46865
9.45282
9.43324
9.40968
9.38111
9.34605
9.30511
9.25739
9.20289
9.14266
9.07859
9.01014
8.93543
8.85191
8.75831
8.65442
8.54182
8.4205
8.28877
8.14399
7.98469
7.80886
7.61544
7.41473
7.19013
6.96432
6.71009
6.45207
6.19678
5.90633
5.63165
1
1
1
1
1
1
1
1
1
1
1
1
1
1
1
1
1
1
1
1
1
1
1
1
1
1
1
1
1
1
1
1
1
1
1
1
1
1
1
1
1
1
1
1
1
1
1
1
1
1
1
1
1
1
1
1
0.999944
3.80618
8.88193
9.43095
9.45797
9.46664
9.46366
9.45456
9.4396
9.42172
9.40214
9.37976
9.35415
9.32406
9.28771
9.2455
9.19658
9.14079
9.07889
9.01276
8.94222
8.86593
8.78148
8.68743
8.58309
8.47038
8.34923
8.21889
8.0772
7.92202
7.75106
7.56454
7.36439
7.15028
6.93675
6.69258
6.44868
6.19305
5.92759
5.67707
1
1
1
1
1
1
1
1
1
1
1
1
1
1
1
1
1
1
1
1
1
1
1
1
1
1
1
1
1
1
1
1
1
1
1
1
1
1
1
1
1
1
1
1
1
1
1
1
1
1
1
1
1
1
1
1
0.999983
1.8238
8.1287
9.55359
9.45096
9.42037
9.41362
9.40459
9.38919
9.36997
9.34875
9.32495
9.29806
9.26704
9.2298
9.18668
9.13692
9.08046
9.01781
8.95024
8.87757
8.79918
8.71343
8.61917
8.51544
8.40362
8.28333
8.15389
8.01451
7.86225
7.69854
7.51561
7.31773
7.11897
6.91109
6.67203
6.44105
6.2012
5.95894
5.71221
1
1
1
1
1
1
1
1
1
1
1
1
1
1
1
1
1
1
1
1
1
1
1
1
1
1
1
1
1
1
1
1
1
1
1
1
1
1
1
1
1
1
1
1
1
1
1
1
1
1
1
1
1
1
1
1
0.999997
1.06089
6.42387
9.27274
9.32283
9.35457
9.36172
9.35342
9.33796
9.31784
9.29535
9.27065
9.24279
9.21078
9.17274
9.12889
9.07852
9.02179
8.95909
8.8908
8.81642
8.73589
8.64866
8.55414
8.45185
8.34166
8.22319
8.09409
7.95585
7.80524
7.64747
7.46821
7.27971
7.09122
6.88014
6.65528
6.44385
6.21871
5.98203
5.73609
1
1
1
1
1
1
1
1
1
1
1
1
1
1
1
1
1
1
1
1
1
1
1
1
1
1
1
1
1
1
1
1
1
1
1
1
1
1
1
1
1
1
1
1
1
1
1
1
1
1
1
1
1
1
1
1
1
1.00015
4.01834
8.83912
9.28562
9.30938
9.32475
9.31702
9.29969
9.27561
9.24917
9.22119
9.19049
9.15594
9.11644
9.07169
9.02105
8.96453
8.90237
8.83405
8.75859
8.67629
8.58768
8.49239
8.39185
8.28335
8.16797
8.03857
7.9011
7.75148
7.59762
7.4246
7.24715
7.06066
6.85347
6.65181
6.44805
6.22534
5.99357
5.76139
1
1
1
1
1
1
1
1
1
1
1
1
1
1
1
1
1
1
1
1
1
1
1
1
1
1
1
1
1
1
1
1
1
1
1
1
1
1
1
1
1
1
1
1
1
1
1
1
1
1
1
1
1
1
1
1
1
0.999999
1.85832
8.09146
9.42776
9.31856
9.2871
9.2663
9.2487
9.22602
9.19996
9.1706
9.13783
9.10112
9.06034
9.01501
8.9645
8.90855
8.84708
8.77907
8.70339
8.62016
8.53067
8.43478
8.33541
8.22855
8.1158
7.98663
7.85006
7.70202
7.55106
7.38442
7.2149
7.03254
6.83986
6.64893
6.44177
6.22798
6.0108
5.795
1
1
1
1
1
1
1
1
1
1
1
1
1
1
1
1
1
1
1
1
1
1
1
1
1
1
1
1
1
1
1
1
1
1
1
1
1
1
1
1
1
1
1
1
1
1
1
1
1
1
1
1
1
1
1
1
1
1
1.06392
6.33664
9.1375
9.20175
9.22106
9.21502
9.20027
9.17874
9.15296
9.12205
9.08711
9.04839
9.00609
8.96016
8.90982
8.85442
8.79343
8.72562
8.65023
8.56713
8.4772
8.3813
8.282
8.1769
8.06362
7.93708
7.80227
7.65793
7.50884
7.34678
7.18418
7.01003
6.82854
6.63741
6.43402
6.23971
6.03346
5.82327
1
1
1
1
1
1
1
1
1
1
1
1
1
1
1
1
1
1
1
1
1
1
1
1
1
1
1
1
1
1
1
1
1
1
1
1
1
1
1
1
1
1
1
1
1
1
1
1
1
1
1
1
1
1
1
1
1
1
1.00016
3.76811
8.67788
9.18291
9.17958
9.16698
9.16084
9.14316
9.11459
9.07912
9.04054
8.99941
8.95538
8.90833
8.85765
8.80216
8.74112
8.67313
8.59822
8.51646
8.42669
8.33151
8.23234
8.12753
8.01213
7.88923
7.75742
7.61815
7.47007
7.31264
7.15647
6.98844
6.8118
6.62449
6.43448
6.25261
6.04997
5.84225
1
1
1
1
1
1
1
1
1
1
1
1
1
1
1
1
1
1
1
1
1
1
1
1
1
1
1
1
1
1
1
1
1
1
1
1
1
1
1
1
1
1
1
1
1
1
1
1
1
1
1
1
1
1
1
1
1
1
0.999999
1.59748
7.78829
9.33086
9.17892
9.14135
9.11684
9.09808
9.06618
9.02985
8.99163
8.95065
8.90634
8.85877
8.8077
8.75203
8.69064
8.62223
8.54778
8.46735
8.37843
8.28481
8.18571
8.07849
7.96357
7.843
7.71483
7.58022
7.43421
7.28338
7.13141
6.96523
6.7938
6.61606
6.43817
6.25942
6.05673
5.85873
1
1
1
1
1
1
1
1
1
1
1
1
1
1
1
1
1
1
1
1
1
1
1
1
1
1
1
1
1
1
1
1
1
1
1
1
1
1
1
1
1
1
1
1
1
1
1
1
1
1
1
1
1
1
1
1
1
1
1
1.03112
5.86612
8.9363
9.01097
9.05605
9.0771
9.05493
9.01867
8.98269
8.94553
8.90499
8.8606
8.81257
8.76064
8.70428
8.64203
8.57356
8.49894
8.41927
8.33187
8.23978
8.13986
8.03264
7.91859
7.79899
7.67405
7.54275
7.40077
7.25688
7.10598
6.94173
6.7787
6.60959
6.4372
6.25826
6.06122
5.88049
1
1
1
1
1
1
1
1
1
1
1
1
1
1
1
1
1
1
1
1
1
1
1
1
1
1
1
1
1
1
1
1
1
1
1
1
1
1
1
1
1
1
1
1
1
1
1
1
1
1
1
1
1
1
1
1
1
1
1
0.999961
3.17225
8.37095
9.05804
9.06205
9.05503
9.01123
8.97472
8.94082
8.90382
8.8626
8.8175
8.76862
8.71565
8.65838
8.59526
8.52693
8.45183
8.37217
8.28647
8.19493
8.09581
7.98922
7.8762
7.75764
7.63532
7.50638
7.36981
7.23112
7.08058
6.92211
6.76785
6.60246
6.4316
6.25604
6.07337
5.90544
1
1
1
1
1
1
1
1
1
1
1
1
1
1
1
1
1
1
1
1
1
1
1
1
1
1
1
1
1
1
1
1
1
1
1
1
1
1
1
1
1
1
1
1
1
1
1
1
1
1
1
1
1
1
1
1
1
1
1
0.999986
1.32495
7.13598
9.16472
9.05383
8.98906
8.94875
8.92376
8.89518
8.85945
8.81846
8.77351
8.72468
8.67133
8.61353
8.55024
8.48206
8.40702
8.32746
8.24175
8.15097
8.05274
7.94758
7.83598
7.71885
7.59832
7.47119
7.33922
7.20352
7.05535
6.90535
6.75581
6.5913
6.42519
6.25867
6.09079
5.92575
1
1
1
1
1
1
1
1
1
1
1
1
1
1
1
1
1
1
1
1
1
1
1
1
1
1
1
1
1
1
1
1
1
1
1
1
1
1
1
1
1
1
1
1
1
1
1
1
1
1
1
1
1
1
1
1
1
1
1
0.999998
1.00892
4.85161
8.69745
8.90151
8.91196
8.90236
8.88979
8.86083
8.82279
8.78052
8.73489
8.68486
8.63006
8.57082
8.50676
8.43819
8.36346
8.28374
8.19817
8.10779
8.01069
7.90742
7.79776
7.68275
7.56406
7.43872
7.30993
7.17664
7.03351
6.89094
6.74233
6.58056
6.42365
6.26694
6.10683
5.93939
1
1
1
1
1
1
1
1
1
1
1
1
1
1
1
1
1
1
1
1
1
1
1
1
1
1
1
1
1
1
1
1
1
1
1
1
1
1
1
1
1
1
1
1
1
1
1
1
1
1
1
1
1
1
1
1
1
1
1
1
0.99996
2.1776
8.03097
9.02376
8.92529
8.8828
8.85621
8.82098
8.78211
8.74158
8.6968
8.64646
8.59063
8.53021
8.46535
8.3963
8.32171
8.2417
8.1564
8.06586
7.9696
7.86816
7.7606
7.64814
7.53149
7.40788
7.2814
7.15081
7.01332
6.87481
6.7271
6.57253
6.42447
6.27354
6.11542
5.94857
1
1
1
1
1
1
1
1
1
1
1
1
1
1
1
1
1
1
1
1
1
1
1
1
1
1
1
1
1
1
1
1
1
1
1
1
1
1
1
1
1
1
1
1
1
1
1
1
1
1
1
1
1
1
1
1
1
1
1
1
0.99999
1.10657
6.26115
8.82843
8.82547
8.82311
8.79717
8.76519
8.73352
8.69943
8.65743
8.60775
8.55129
8.48995
8.42411
8.35449
8.27985
8.19999
8.1153
8.02535
7.93044
7.83103
7.7259
7.61636
7.50204
7.38052
7.25645
7.12894
6.99602
6.85931
6.71431
6.5689
6.42545
6.27588
6.11947
5.96015
1
1
1
1
1
1
1
1
1
1
1
1
1
1
1
1
1
1
1
1
1
1
1
1
1
1
1
1
1
1
1
1
1
1
1
1
1
1
1
1
1
1
1
1
1
1
1
1
1
1
1
1
1
1
1
1
1
1
1
1
0.999998
1.00069
3.41911
8.24228
8.77863
8.78713
8.76939
8.74106
8.70886