/*--------------------------------*- C++ -*----------------------------------*\
  =========                 |
  \\      /  F ield         | OpenFOAM: The Open Source CFD Toolbox
   \\    /   O peration     | Website:  https://openfoam.org
    \\  /    A nd           | Version:  7
     \\/     M anipulation  |
\*---------------------------------------------------------------------------*/
FoamFile
{
    version     2.0;
    format      ascii;
    class       volVectorField;
    location    "2.4";
    object      U;
}
// * * * * * * * * * * * * * * * * * * * * * * * * * * * * * * * * * * * * * //

dimensions      [0 1 -1 0 0 0 0];

internalField   nonuniform List<vector> 
64512
(
(3 6.60554e-17 0)
(3 1.27715e-17 0)
(3 -3.96429e-17 0)
(3 -1.60699e-16 0)
(3 -2.11968e-19 0)
(3 5.65996e-16 0)
(3 7.81458e-16 0)
(3 7.49819e-16 0)
(3 5.27694e-16 0)
(3 5.94288e-16 0)
(3 9.0913e-16 0)
(3 4.75256e-16 0)
(3 -4.42221e-17 0)
(3 -2.25174e-16 0)
(3 -3.15189e-16 0)
(3 -4.98645e-16 0)
(3 -1.17132e-16 0)
(3 -8.37214e-18 0)
(3 1.0872e-15 0)
(3 1.45529e-15 0)
(3 1.27017e-15 0)
(3 1.41683e-15 0)
(3 1.34193e-15 0)
(3 1.06685e-15 0)
(3 4.79787e-16 0)
(3 -7.31877e-16 0)
(3 -1.09922e-17 0)
(3 1.65655e-16 0)
(3 1.42139e-16 0)
(3 7.46451e-16 0)
(3 1.34851e-15 0)
(3 1.37411e-15 0)
(3 1.01166e-15 0)
(3 1.06854e-15 0)
(3 1.12608e-15 0)
(3 8.7057e-16 0)
(3 8.11392e-16 0)
(3 1.53709e-15 0)
(3 1.81554e-15 0)
(3 1.09905e-15 0)
(3 6.43828e-16 0)
(3 3.47259e-16 0)
(3 -8.8014e-18 0)
(3 1.58664e-16 0)
(3 -4.5307e-16 0)
(3 -3.61007e-16 0)
(3 -1.6529e-16 0)
(3 1.13238e-16 0)
(3 7.56577e-17 0)
(2.16064 0.00415919 0)
(0.840048 0.00698063 0)
(0.74184 0.00584651 0)
(0.729985 0.00534043 0)
(0.716887 0.00548472 0)
(0.703674 0.00584059 0)
(0.688961 0.00633845 0)
(0.673104 0.00699309 0)
(0.656391 0.00764505 0)
(0.639248 0.00802202 0)
(0.622074 0.0078879 0)
(0.605562 0.00716257 0)
(0.590242 0.00631154 0)
(0.575686 0.00602854 0)
(0.561008 0.00640446 0)
(0.545705 0.0070758 0)
(0.530029 0.00747366 0)
(0.514758 0.00731049 0)
(0.500096 0.00704388 0)
(0.485228 0.00711584 0)
(0.469355 0.00729095 0)
(0.452693 0.00724033 0)
(0.435993 0.0071728 0)
(0.419471 0.00740875 0)
(0.403004 0.0077835 0)
(0.386738 0.00796781 0)
(0.37083 0.00802004 0)
(0.354922 0.00812077 0)
(0.338557 0.00814706 0)
(0.321787 0.00797095 0)
(0.305014 0.00775885 0)
(0.288563 0.007694 0)
(0.272612 0.00776204 0)
(0.25716 0.00788894 0)
(0.241973 0.00807014 0)
(0.226595 0.00830171 0)
(0.210506 0.00853415 0)
(0.19339 0.00873501 0)
(0.175155 0.00898206 0)
(0.155907 0.00924348 0)
(0.135933 0.00951804 0)
(0.115414 0.00981662 0)
(0.094426 0.0100982 0)
(0.0732611 0.0103585 0)
(0.0522428 0.0106223 0)
(0.0311598 0.0107231 0)
(0.0107689 0.0108246 0)
(3 1.87538e-17 0)
(3 -7.12515e-17 0)
(3 2.47658e-17 0)
(3 2.63221e-16 0)
(3 4.14621e-16 0)
(3 7.18675e-16 0)
(3 6.41337e-16 0)
(3 1.64495e-16 0)
(3 -5.27648e-17 0)
(3 3.15357e-16 0)
(3 7.40259e-16 0)
(3 1.89273e-16 0)
(3 -5.67931e-16 0)
(3 -5.53782e-16 0)
(3 -3.93375e-16 0)
(3 -7.45817e-16 0)
(3 -1.3671e-15 0)
(3 -1.23217e-15 0)
(3 7.48617e-16 0)
(3 2.55037e-15 0)
(3 2.13237e-15 0)
(3 1.58457e-15 0)
(3 1.83025e-15 0)
(3 1.15597e-15 0)
(3 7.3282e-16 0)
(3 -3.57012e-16 0)
(3 -3.45988e-16 0)
(3 6.24848e-16 0)
(3 9.5835e-16 0)
(3 2.16378e-15 0)
(3 3.21494e-15 0)
(3 2.26027e-15 0)
(3 1.02212e-15 0)
(3 9.99327e-16 0)
(3 7.9111e-16 0)
(3 4.72136e-16 0)
(3 1.52936e-16 0)
(3 4.46105e-16 0)
(3 6.22889e-16 0)
(3 5.48211e-16 0)
(3 1.91959e-16 0)
(3 -7.59898e-17 0)
(3 -2.03267e-16 0)
(3 -1.32202e-16 0)
(3 -3.18936e-16 0)
(3 -1.60959e-16 0)
(3 -6.3783e-17 0)
(3 -4.54929e-17 0)
(3 6.03599e-16 0)
(2.16757 0.0184982 0)
(0.838349 0.0257271 0)
(0.73799 0.0190901 0)
(0.726003 0.0150679 0)
(0.71286 0.0153571 0)
(0.699427 0.0162389 0)
(0.684571 0.0177929 0)
(0.668729 0.0197902 0)
(0.65231 0.0217271 0)
(0.635697 0.0229383 0)
(0.619076 0.0228155 0)
(0.602903 0.021112 0)
(0.587506 0.0188806 0)
(0.572508 0.0179138 0)
(0.557435 0.0188187 0)
(0.541962 0.0206875 0)
(0.526301 0.0218145 0)
(0.511205 0.0214006 0)
(0.496685 0.020735 0)
(0.481858 0.0209781 0)
(0.465992 0.021455 0)
(0.449335 0.0212716 0)
(0.432617 0.0211045 0)
(0.416064 0.0218594 0)
(0.399577 0.0230223 0)
(0.38329 0.0235455 0)
(0.367429 0.0236163 0)
(0.351681 0.0238624 0)
(0.335561 0.0239836 0)
(0.319038 0.0236025 0)
(0.302412 0.0231563 0)
(0.285976 0.0230978 0)
(0.269955 0.0233538 0)
(0.254418 0.0237244 0)
(0.2392 0.0242342 0)
(0.223886 0.0248963 0)
(0.207959 0.0255711 0)
(0.191084 0.0261613 0)
(0.173148 0.0269006 0)
(0.15423 0.027693 0)
(0.134599 0.0285355 0)
(0.114431 0.0294562 0)
(0.0937741 0.030346 0)
(0.0729238 0.0311969 0)
(0.0521393 0.0320667 0)
(0.0311852 0.0324627 0)
(0.0108164 0.0328991 0)
(3 -2.82584e-16 0)
(3 -5.95858e-16 0)
(3 -6.52666e-16 0)
(3 -3.32746e-16 0)
(3 1.46067e-17 0)
(3 2.83746e-16 0)
(3 8.37758e-16 0)
(3 6.73512e-16 0)
(3 8.35978e-16 0)
(3 5.23274e-16 0)
(3 8.89405e-17 0)
(3 1.31821e-16 0)
(3 -7.52385e-17 0)
(3 4.04158e-16 0)
(3 2.08603e-16 0)
(3 1.58826e-16 0)
(3 -3.71922e-16 0)
(3 -4.16563e-16 0)
(3 -4.07399e-16 0)
(3 3.62447e-16 0)
(3 7.06001e-16 0)
(3 1.03764e-16 0)
(3 4.30972e-16 0)
(3 1.46073e-15 0)
(3 1.3975e-15 0)
(3 -1.58679e-16 0)
(3 -3.4969e-16 0)
(3 6.08063e-16 0)
(3 1.16014e-15 0)
(3 2.74902e-15 0)
(3 3.78789e-15 0)
(3 3.47096e-15 0)
(3 3.04086e-15 0)
(3 2.35462e-15 0)
(3 2.31221e-15 0)
(3 1.84981e-15 0)
(3 6.66197e-16 0)
(3 -9.33936e-16 0)
(3 -2.4687e-15 0)
(3 -2.01066e-15 0)
(3 -8.54393e-16 0)
(3 2.72653e-17 0)
(3 -1.86427e-16 0)
(3 -3.69369e-16 0)
(3 -4.41398e-16 0)
(3 -2.65676e-16 0)
(3 -2.89136e-17 0)
(3 -4.58288e-17 0)
(3 3.07874e-16 0)
(2.19759 0.0339654 0)
(0.844745 0.0430039 0)
(0.742284 0.0327836 0)
(0.728555 0.0267988 0)
(0.713548 0.0270449 0)
(0.69879 0.0282618 0)
(0.683128 0.0304298 0)
(0.666989 0.0332945 0)
(0.650755 0.0360665 0)
(0.634688 0.0377512 0)
(0.618735 0.0375468 0)
(0.603074 0.0351828 0)
(0.587703 0.0320745 0)
(0.572187 0.030724 0)
(0.556488 0.0320875 0)
(0.540578 0.0348595 0)
(0.524659 0.0364387 0)
(0.509523 0.0357239 0)
(0.494998 0.0347754 0)
(0.480143 0.0352885 0)
(0.464237 0.0360822 0)
(0.447508 0.0357607 0)
(0.430633 0.0354892 0)
(0.413866 0.0367316 0)
(0.397154 0.0386211 0)
(0.380602 0.0393898 0)
(0.364555 0.0393095 0)
(0.34878 0.0395125 0)
(0.332804 0.0396263 0)
(0.316504 0.0390656 0)
(0.300044 0.038481 0)
(0.283628 0.0385106 0)
(0.267478 0.0389837 0)
(0.251712 0.0395799 0)
(0.236237 0.0403636 0)
(0.22071 0.0413811 0)
(0.204663 0.0424203 0)
(0.187785 0.0433235 0)
(0.169982 0.0444845 0)
(0.151317 0.0457453 0)
(0.132034 0.0471013 0)
(0.11229 0.0486094 0)
(0.0920822 0.0500996 0)
(0.0717259 0.051575 0)
(0.051387 0.0531044 0)
(0.0307981 0.0538611 0)
(0.0107205 0.0547326 0)
(3 1.06443e-16 0)
(3 2.52927e-17 0)
(3 -4.33803e-17 0)
(3 -2.27156e-16 0)
(3 -1.67119e-16 0)
(3 6.41517e-16 0)
(3 1.24011e-15 0)
(3 1.75773e-15 0)
(3 1.10151e-15 0)
(3 9.20237e-16 0)
(3 7.47356e-16 0)
(3 9.88774e-16 0)
(3 1.23425e-15 0)
(3 1.20615e-15 0)
(3 1.253e-15 0)
(3 1.29522e-15 0)
(3 1.47189e-15 0)
(3 1.29635e-15 0)
(3 -1.77161e-16 0)
(3 -1.43343e-15 0)
(3 -1.74377e-15 0)
(3 -1.50121e-15 0)
(3 -1.11815e-15 0)
(3 7.2854e-16 0)
(3 9.56694e-16 0)
(3 8.51367e-16 0)
(3 7.51177e-17 0)
(3 3.74618e-17 0)
(3 2.77727e-16 0)
(3 8.22698e-16 0)
(3 2.29133e-15 0)
(3 3.72309e-15 0)
(3 3.52846e-15 0)
(3 3.0667e-15 0)
(3 2.46537e-15 0)
(3 1.86168e-15 0)
(3 1.06616e-15 0)
(3 -5.44244e-16 0)
(3 -1.36104e-15 0)
(3 -1.54303e-15 0)
(3 -1.40352e-15 0)
(3 -4.67416e-16 0)
(3 2.28795e-16 0)
(3 -1.52078e-15 0)
(3 -1.64489e-15 0)
(3 -1.41736e-15 0)
(3 -1.27554e-15 0)
(3 -1.16301e-15 0)
(3 -1.3565e-15 0)
(2.24687 0.0445216 0)
(0.855242 0.0553126 0)
(0.74712 0.0474081 0)
(0.733009 0.0392692 0)
(0.717059 0.039203 0)
(0.701565 0.0406006 0)
(0.685384 0.0431812 0)
(0.669083 0.0466159 0)
(0.653049 0.0498089 0)
(0.637445 0.0516179 0)
(0.622009 0.0512969 0)
(0.606662 0.0486426 0)
(0.591202 0.04517 0)
(0.57522 0.0437557 0)
(0.559007 0.0456299 0)
(0.542751 0.049161 0)
(0.526598 0.051041 0)
(0.511356 0.0500376 0)
(0.496685 0.0489208 0)
(0.481695 0.0497718 0)
(0.465682 0.0509206 0)
(0.448822 0.050534 0)
(0.431709 0.0502586 0)
(0.414621 0.0520394 0)
(0.397543 0.0546559 0)
(0.380543 0.0556347 0)
(0.364125 0.0552712 0)
(0.348163 0.0552409 0)
(0.332222 0.0552227 0)
(0.316082 0.0544933 0)
(0.299745 0.0538758 0)
(0.283311 0.0541231 0)
(0.266974 0.0549324 0)
(0.250859 0.0558456 0)
(0.234927 0.0569456 0)
(0.21891 0.0583002 0)
(0.202407 0.0596325 0)
(0.185171 0.0607286 0)
(0.16717 0.0621552 0)
(0.148479 0.0637167 0)
(0.129335 0.0654279 0)
(0.109879 0.0673981 0)
(0.0900417 0.0694101 0)
(0.0701909 0.0715025 0)
(0.0503523 0.0737206 0)
(0.0302101 0.0748961 0)
(0.0105536 0.0762957 0)
(3 4.12022e-16 0)
(3 5.01042e-16 0)
(3 2.65267e-16 0)
(3 5.47188e-16 0)
(3 7.9932e-16 0)
(3 6.92361e-16 0)
(3 6.35201e-16 0)
(3 7.81381e-16 0)
(3 6.4572e-16 0)
(3 8.83069e-16 0)
(3 1.69638e-15 0)
(3 1.99517e-15 0)
(3 2.65639e-15 0)
(3 2.41273e-15 0)
(3 2.03888e-15 0)
(3 1.48289e-15 0)
(3 1.67677e-15 0)
(3 1.56245e-15 0)
(3 8.48014e-16 0)
(3 -9.95379e-16 0)
(3 -1.92371e-15 0)
(3 -1.02844e-15 0)
(3 -4.80835e-16 0)
(3 -5.57634e-16 0)
(3 -1.70353e-16 0)
(3 4.09339e-16 0)
(3 -1.27734e-16 0)
(3 -2.1119e-16 0)
(3 9.6296e-16 0)
(3 7.78731e-16 0)
(3 5.86324e-16 0)
(3 1.20798e-15 0)
(3 2.1702e-15 0)
(3 2.3976e-15 0)
(3 2.03727e-15 0)
(3 1.92765e-15 0)
(3 1.39814e-15 0)
(3 9.43565e-16 0)
(3 6.77538e-16 0)
(3 8.60103e-16 0)
(3 7.18752e-16 0)
(3 3.37846e-16 0)
(3 -3.429e-17 0)
(3 -1.21387e-15 0)
(3 -1.01426e-15 0)
(3 -1.69647e-15 0)
(3 -2.40832e-15 0)
(3 -2.59228e-15 0)
(3 -1.68321e-15 0)
(2.3036 0.0525147 0)
(0.863753 0.0670868 0)
(0.747254 0.0629389 0)
(0.733074 0.0530197 0)
(0.716632 0.0522671 0)
(0.701028 0.0534587 0)
(0.684965 0.0560989 0)
(0.669078 0.0597185 0)
(0.653707 0.0630709 0)
(0.638813 0.0649376 0)
(0.623931 0.0647472 0)
(0.608783 0.0622441 0)
(0.593173 0.0587801 0)
(0.576834 0.0573803 0)
(0.560359 0.0595826 0)
(0.54416 0.0635855 0)
(0.528243 0.0655769 0)
(0.513319 0.0643084 0)
(0.498841 0.0631041 0)
(0.484028 0.0643176 0)
(0.468186 0.0658654 0)
(0.451418 0.0655103 0)
(0.434253 0.0653291 0)
(0.417011 0.0676737 0)
(0.3997 0.0709733 0)
(0.382356 0.072087 0)
(0.365676 0.0712984 0)
(0.349616 0.0708561 0)
(0.333783 0.0706048 0)
(0.317852 0.0697373 0)
(0.301653 0.069198 0)
(0.285201 0.0697945 0)
(0.268649 0.0710769 0)
(0.252121 0.0724407 0)
(0.235628 0.0739646 0)
(0.218974 0.0757226 0)
(0.201824 0.077369 0)
(0.183997 0.0786223 0)
(0.165537 0.080212 0)
(0.146548 0.081914 0)
(0.127274 0.0837865 0)
(0.107857 0.086025 0)
(0.0881639 0.0883871 0)
(0.068672 0.0909979 0)
(0.0492526 0.0938649 0)
(0.0295255 0.0954674 0)
(0.0103437 0.0974415 0)
(3 3.91356e-17 0)
(3 8.00189e-17 0)
(3 -5.60268e-17 0)
(3 1.11382e-16 0)
(3 6.25153e-17 0)
(3 -2.91547e-16 0)
(3 -3.71729e-16 0)
(3 -3.85294e-16 0)
(3 -2.02998e-16 0)
(3 9.6943e-18 0)
(3 7.34282e-16 0)
(3 1.6712e-15 0)
(3 1.89826e-15 0)
(3 1.8835e-15 0)
(3 1.49668e-15 0)
(3 9.67282e-16 0)
(3 1.03718e-15 0)
(3 9.49505e-16 0)
(3 1.03773e-15 0)
(3 7.53372e-16 0)
(3 5.52094e-16 0)
(3 5.39671e-16 0)
(3 4.42452e-16 0)
(3 -2.08264e-16 0)
(3 -1.01017e-15 0)
(3 -5.33675e-16 0)
(3 -5.58538e-16 0)
(3 1.97809e-16 0)
(3 4.03498e-16 0)
(3 7.98102e-16 0)
(3 8.9014e-16 0)
(3 7.48615e-16 0)
(3 1.00476e-15 0)
(3 1.78801e-15 0)
(3 2.42798e-15 0)
(3 2.09296e-15 0)
(3 2.17822e-15 0)
(3 2.03604e-15 0)
(3 2.03378e-15 0)
(3 7.64674e-16 0)
(3 6.32476e-16 0)
(3 3.58694e-16 0)
(3 -6.8514e-16 0)
(3 -5.91354e-16 0)
(3 -6.5528e-16 0)
(3 -1.84844e-15 0)
(3 -2.01687e-15 0)
(3 -1.6162e-15 0)
(3 -3.04508e-15 0)
(2.37397 0.0610048 0)
(0.874948 0.0795382 0)
(0.747846 0.0779224 0)
(0.73419 0.0666054 0)
(0.717555 0.0651995 0)
(0.701906 0.0662761 0)
(0.685753 0.0689115 0)
(0.669868 0.072511 0)
(0.654634 0.0758029 0)
(0.639954 0.0778034 0)
(0.625294 0.0779315 0)
(0.61031 0.075779 0)
(0.594858 0.0724582 0)
(0.578659 0.0710743 0)
(0.562411 0.0734462 0)
(0.546616 0.0776894 0)
(0.531087 0.0797064 0)
(0.516417 0.0782837 0)
(0.501957 0.0771242 0)
(0.487136 0.0787713 0)
(0.471285 0.0808458 0)
(0.454433 0.0806969 0)
(0.437118 0.0807277 0)
(0.41973 0.083632 0)
(0.402275 0.087509 0)
(0.384747 0.0886266 0)
(0.368009 0.0872735 0)
(0.352023 0.0862815 0)
(0.336416 0.0857605 0)
(0.32073 0.084853 0)
(0.304629 0.0845546 0)
(0.288068 0.0856683 0)
(0.271183 0.0875815 0)
(0.254125 0.0895206 0)
(0.236994 0.0915364 0)
(0.21967 0.0937113 0)
(0.201878 0.0956542 0)
(0.183485 0.0970283 0)
(0.164585 0.0987186 0)
(0.145298 0.100461 0)
(0.125853 0.102357 0)
(0.106393 0.104698 0)
(0.0867125 0.107225 0)
(0.0674326 0.110205 0)
(0.0483077 0.113627 0)
(0.0288895 0.115619 0)
(0.0101445 0.118163 0)
(3 -2.95968e-16 0)
(3 -9.96221e-17 0)
(3 -2.46123e-17 0)
(3 1.67922e-17 0)
(3 -4.01683e-16 0)
(3 -4.11166e-16 0)
(3 -6.33639e-16 0)
(3 -6.86422e-16 0)
(3 -6.59727e-16 0)
(3 -3.65028e-16 0)
(3 -6.97326e-16 0)
(3 -5.18659e-16 0)
(3 -1.00593e-15 0)
(3 -1.03853e-15 0)
(3 -7.72883e-16 0)
(3 -4.32935e-16 0)
(3 -3.0382e-16 0)
(3 6.11753e-17 0)
(3 6.63145e-16 0)
(3 1.10584e-15 0)
(3 1.43608e-15 0)
(3 6.26225e-16 0)
(3 3.5939e-16 0)
(3 3.40161e-16 0)
(3 -7.6309e-16 0)
(3 -7.21715e-16 0)
(3 -7.05078e-16 0)
(3 6.13891e-16 0)
(3 9.49795e-16 0)
(3 1.53808e-15 0)
(3 1.9396e-15 0)
(3 1.54066e-15 0)
(3 1.80554e-15 0)
(3 2.40633e-15 0)
(3 3.06369e-15 0)
(3 2.88436e-15 0)
(3 3.11675e-15 0)
(3 2.10891e-15 0)
(3 1.78344e-15 0)
(3 1.1059e-15 0)
(3 1.36562e-16 0)
(3 -1.00757e-15 0)
(3 -1.33964e-15 0)
(3 -1.36619e-15 0)
(3 -2.04906e-15 0)
(3 -2.17544e-15 0)
(3 -1.91899e-15 0)
(3 -1.23869e-15 0)
(3 -1.94144e-15 0)
(2.45875 0.0680829 0)
(0.890284 0.0924515 0)
(0.750174 0.0922883 0)
(0.736394 0.0800336 0)
(0.719223 0.078209 0)
(0.703471 0.0792986 0)
(0.68733 0.0817805 0)
(0.671547 0.0851056 0)
(0.656438 0.0883016 0)
(0.641873 0.0904999 0)
(0.627337 0.0909969 0)
(0.612536 0.089168 0)
(0.597336 0.0859746 0)
(0.581354 0.0845779 0)
(0.565305 0.0870224 0)
(0.549741 0.0914309 0)
(0.534315 0.0935967 0)
(0.519533 0.0922656 0)
(0.504793 0.091314 0)
(0.489728 0.0934663 0)
(0.47365 0.0961944 0)
(0.456471 0.0963943 0)
(0.438825 0.0966431 0)
(0.421246 0.0999486 0)
(0.403811 0.104137 0)
(0.386523 0.105011 0)
(0.370341 0.102953 0)
(0.354998 0.101343 0)
(0.339981 0.100613 0)
(0.324642 0.0998615 0)
(0.30856 0.100039 0)
(0.291757 0.101869 0)
(0.274434 0.104555 0)
(0.256819 0.107143 0)
(0.239108 0.109654 0)
(0.221231 0.112208 0)
(0.202922 0.114404 0)
(0.184053 0.115872 0)
(0.164745 0.117641 0)
(0.14513 0.119387 0)
(0.125433 0.121238 0)
(0.105802 0.123568 0)
(0.0859614 0.126106 0)
(0.0666928 0.129289 0)
(0.0476717 0.133147 0)
(0.0284013 0.135461 0)
(0.00998249 0.138534 0)
(3 1.8904e-18 0)
(3 1.50798e-17 0)
(3 2.74825e-17 0)
(3 -5.5273e-17 0)
(3 4.28182e-16 0)
(3 1.0823e-15 0)
(3 4.58902e-16 0)
(3 -2.7548e-16 0)
(3 -5.73681e-16 0)
(3 -7.55058e-16 0)
(3 -1.3413e-15 0)
(3 -1.6889e-15 0)
(3 -1.64397e-15 0)
(3 -1.10876e-15 0)
(3 -6.45232e-16 0)
(3 -6.46654e-16 0)
(3 -9.46499e-16 0)
(3 -8.45034e-16 0)
(3 -5.09789e-16 0)
(3 2.05778e-16 0)
(3 7.92074e-16 0)
(3 5.08022e-16 0)
(3 4.1682e-16 0)
(3 3.18053e-16 0)
(3 2.14168e-16 0)
(3 5.86005e-17 0)
(3 9.72355e-18 0)
(3 5.50811e-16 0)
(3 1.24913e-15 0)
(3 1.41041e-15 0)
(3 1.47513e-15 0)
(3 1.53295e-15 0)
(3 1.59611e-15 0)
(3 1.98636e-15 0)
(3 2.23504e-15 0)
(3 2.04322e-15 0)
(3 1.55606e-15 0)
(3 1.6498e-15 0)
(3 1.13841e-15 0)
(3 3.89333e-16 0)
(3 8.11779e-17 0)
(3 -7.87102e-16 0)
(3 -6.70451e-16 0)
(3 -9.81463e-16 0)
(3 -9.49438e-16 0)
(3 -1.07057e-16 0)
(3 7.52456e-16 0)
(3 2.97176e-16 0)
(3 -1.57963e-15 0)
(2.55577 0.0723271 0)
(0.910373 0.10528 0)
(0.753864 0.106187 0)
(0.739801 0.0934114 0)
(0.722067 0.0912533 0)
(0.706248 0.0921849 0)
(0.690253 0.094365 0)
(0.674621 0.0973302 0)
(0.659558 0.100458 0)
(0.644932 0.102958 0)
(0.630323 0.103862 0)
(0.615544 0.10236 0)
(0.600392 0.0993954 0)
(0.584335 0.0981543 0)
(0.568036 0.100781 0)
(0.552077 0.105452 0)
(0.536085 0.107923 0)
(0.520621 0.106783 0)
(0.50528 0.105975 0)
(0.489893 0.108513 0)
(0.473788 0.111869 0)
(0.456679 0.112424 0)
(0.439298 0.11273 0)
(0.42231 0.116124 0)
(0.405791 0.120231 0)
(0.389609 0.120559 0)
(0.374556 0.11772 0)
(0.35991 0.115645 0)
(0.345133 0.115087 0)
(0.329597 0.114968 0)
(0.313013 0.115976 0)
(0.295592 0.118682 0)
(0.277646 0.122158 0)
(0.259478 0.125329 0)
(0.241325 0.128244 0)
(0.223093 0.131094 0)
(0.204465 0.133496 0)
(0.185274 0.135057 0)
(0.165648 0.136932 0)
(0.145737 0.138703 0)
(0.125777 0.140508 0)
(0.105933 0.142776 0)
(0.0858399 0.145209 0)
(0.0664435 0.148428 0)
(0.047368 0.152589 0)
(0.0281044 0.155136 0)
(0.0098727 0.158666 0)
(3 1.9447e-16 0)
(3 1.13562e-16 0)
(3 2.50161e-16 0)
(3 1.94478e-16 0)
(3 6.93783e-16 0)
(3 6.55439e-16 0)
(3 7.60286e-16 0)
(3 2.86192e-16 0)
(3 -1.10823e-16 0)
(3 -1.57526e-15 0)
(3 -1.38161e-15 0)
(3 -1.0884e-15 0)
(3 -9.91568e-16 0)
(3 -7.79026e-16 0)
(3 -7.89806e-16 0)
(3 -2.94085e-16 0)
(3 -2.43707e-16 0)
(3 -3.30508e-16 0)
(3 -1.91922e-16 0)
(3 3.70697e-16 0)
(3 1.32845e-15 0)
(3 1.50094e-15 0)
(3 9.65369e-16 0)
(3 7.53347e-16 0)
(3 1.02017e-15 0)
(3 1.30147e-15 0)
(3 1.71708e-15 0)
(3 1.4874e-15 0)
(3 8.89083e-16 0)
(3 6.10138e-16 0)
(3 5.52266e-17 0)
(3 7.67325e-17 0)
(3 -9.66313e-17 0)
(3 9.96438e-17 0)
(3 -2.76676e-16 0)
(3 1.59714e-16 0)
(3 3.1686e-16 0)
(3 4.9982e-16 0)
(3 -1.11246e-16 0)
(3 -3.0925e-16 0)
(3 9.25865e-17 0)
(3 -3.48807e-16 0)
(3 -4.94387e-16 0)
(3 -9.68863e-16 0)
(3 -6.53915e-16 0)
(3 -4.83831e-16 0)
(3 -4.05685e-16 0)
(3 -4.85134e-16 0)
(3 -2.10762e-15 0)
(2.65963 0.0720557 0)
(0.935537 0.117635 0)
(0.757022 0.119545 0)
(0.742646 0.106918 0)
(0.724834 0.104503 0)
(0.708944 0.105083 0)
(0.693018 0.106911 0)
(0.67734 0.109679 0)
(0.661915 0.112971 0)
(0.646675 0.115902 0)
(0.631454 0.117151 0)
(0.616322 0.115883 0)
(0.601114 0.113176 0)
(0.585181 0.1122 0)
(0.569075 0.115051 0)
(0.553309 0.119954 0)
(0.537416 0.122681 0)
(0.521987 0.121656 0)
(0.506725 0.120836 0)
(0.491567 0.123566 0)
(0.475889 0.12743 0)
(0.459187 0.12829 0)
(0.44233 0.128407 0)
(0.426124 0.131495 0)
(0.410623 0.135168 0)
(0.395448 0.134918 0)
(0.380992 0.131711 0)
(0.36628 0.129811 0)
(0.351039 0.129998 0)
(0.334812 0.130859 0)
(0.317515 0.132762 0)
(0.299506 0.13621 0)
(0.281138 0.140264 0)
(0.262686 0.143823 0)
(0.244351 0.14701 0)
(0.225978 0.150097 0)
(0.207191 0.15271 0)
(0.187777 0.154418 0)
(0.167873 0.156475 0)
(0.14765 0.15835 0)
(0.127368 0.160163 0)
(0.107227 0.162385 0)
(0.0867493 0.16468 0)
(0.0670411 0.167796 0)
(0.0476944 0.172158 0)
(0.0281981 0.174855 0)
(0.00989688 0.178767 0)
(3 -2.37257e-16 0)
(3 -4.6317e-16 0)
(3 4.0311e-17 0)
(3 3.62238e-16 0)
(3 3.70779e-16 0)
(3 3.5723e-16 0)
(3 5.12384e-16 0)
(3 8.18164e-16 0)
(3 4.16792e-17 0)
(3 -5.54941e-16 0)
(3 -8.92999e-16 0)
(3 -6.96458e-16 0)
(3 -3.27177e-16 0)
(3 -4.90826e-16 0)
(3 -3.3121e-17 0)
(3 1.10853e-15 0)
(3 1.34388e-15 0)
(3 1.2284e-15 0)
(3 1.1529e-15 0)
(3 1.1195e-15 0)
(3 1.11584e-15 0)
(3 8.85935e-16 0)
(3 1.11733e-16 0)
(3 -8.04639e-17 0)
(3 5.1603e-17 0)
(3 3.69835e-16 0)
(3 1.32192e-15 0)
(3 1.57984e-15 0)
(3 1.91592e-15 0)
(3 1.55912e-15 0)
(3 -7.85447e-18 0)
(3 -2.82266e-16 0)
(3 -4.89974e-16 0)
(3 -8.64327e-16 0)
(3 -7.78236e-16 0)
(3 7.18776e-16 0)
(3 1.12081e-15 0)
(3 -1.00403e-16 0)
(3 -3.06207e-16 0)
(3 4.99353e-16 0)
(3 6.6881e-17 0)
(3 -3.93022e-16 0)
(3 -8.18632e-16 0)
(3 -1.13444e-15 0)
(3 -1.39357e-15 0)
(3 -2.14548e-15 0)
(3 -3.60388e-15 0)
(3 -3.08267e-15 0)
(3 -2.51431e-15 0)
(2.75911 0.0695681 0)
(0.964006 0.132753 0)
(0.757159 0.132185 0)
(0.743612 0.120297 0)
(0.727237 0.117774 0)
(0.712495 0.117896 0)
(0.697325 0.119417 0)
(0.681809 0.122219 0)
(0.666046 0.126068 0)
(0.650241 0.12948 0)
(0.634726 0.130822 0)
(0.619867 0.129452 0)
(0.605216 0.126821 0)
(0.589789 0.126074 0)
(0.574001 0.129143 0)
(0.558321 0.134301 0)
(0.54233 0.137321 0)
(0.526769 0.136437 0)
(0.511491 0.135545 0)
(0.496486 0.138352 0)
(0.481217 0.14264 0)
(0.464943 0.143784 0)
(0.448637 0.14349 0)
(0.433113 0.145915 0)
(0.418391 0.14899 0)
(0.403735 0.148518 0)
(0.389135 0.145581 0)
(0.37378 0.144353 0)
(0.357703 0.145539 0)
(0.340601 0.147448 0)
(0.322547 0.150157 0)
(0.303962 0.154185 0)
(0.285156 0.158669 0)
(0.26632 0.162528 0)
(0.247614 0.165966 0)
(0.228888 0.169304 0)
(0.209776 0.17216 0)
(0.190046 0.174058 0)
(0.169843 0.176346 0)
(0.149318 0.178382 0)
(0.128741 0.180267 0)
(0.108338 0.182459 0)
(0.0875458 0.184609 0)
(0.0675565 0.187521 0)
(0.0479674 0.191993 0)
(0.028265 0.194763 0)
(0.00991655 0.198991 0)
(3 -2.22187e-16 0)
(3 1.7722e-16 0)
(3 1.24674e-16 0)
(3 -8.22579e-17 0)
(3 -5.6258e-16 0)
(3 -1.89446e-16 0)
(3 8.45644e-17 0)
(3 9.13838e-16 0)
(3 9.2637e-16 0)
(3 9.70817e-16 0)
(3 1.49812e-16 0)
(3 -1.21993e-15 0)
(3 -8.28882e-16 0)
(3 1.69716e-17 0)
(3 5.45222e-16 0)
(3 1.11656e-15 0)
(3 1.62607e-15 0)
(3 2.25664e-15 0)
(3 1.93027e-15 0)
(3 1.32716e-15 0)
(3 2.19468e-17 0)
(3 8.32593e-17 0)
(3 -1.40039e-16 0)
(3 -4.38947e-16 0)
(3 -7.36391e-16 0)
(3 -7.52378e-16 0)
(3 -3.51879e-16 0)
(3 5.79913e-16 0)
(3 4.95533e-16 0)
(3 5.60159e-16 0)
(3 4.22733e-16 0)
(3 3.80529e-16 0)
(3 6.48979e-17 0)
(3 -4.36064e-16 0)
(3 1.61146e-16 0)
(3 6.38478e-17 0)
(3 4.13833e-16 0)
(3 9.31462e-16 0)
(3 1.34698e-15 0)
(3 1.24303e-15 0)
(3 4.717e-16 0)
(3 -7.79768e-17 0)
(3 -2.38966e-16 0)
(3 -3.53275e-16 0)
(3 -4.49248e-16 0)
(3 -1.17105e-15 0)
(3 -1.44354e-15 0)
(3 -1.39404e-15 0)
(3 -2.27312e-15 0)
(2.85369 0.0660581 0)
(1.00078 0.148778 0)
(0.76093 0.143169 0)
(0.749053 0.131963 0)
(0.734475 0.129533 0)
(0.720456 0.129507 0)
(0.70545 0.131281 0)
(0.689703 0.134711 0)
(0.673573 0.139191 0)
(0.657482 0.142928 0)
(0.642114 0.143909 0)
(0.62783 0.142029 0)
(0.613663 0.139478 0)
(0.598482 0.13924 0)
(0.582682 0.142871 0)
(0.566747 0.148545 0)
(0.550444 0.15191 0)
(0.53475 0.151062 0)
(0.519561 0.149915 0)
(0.504757 0.152578 0)
(0.489905 0.157085 0)
(0.47399 0.158434 0)
(0.457962 0.157612 0)
(0.44252 0.159264 0)
(0.427776 0.162032 0)
(0.412728 0.162082 0)
(0.397189 0.160088 0)
(0.380649 0.159951 0)
(0.363266 0.16235 0)
(0.344829 0.165334 0)
(0.325609 0.16869 0)
(0.306185 0.173037 0)
(0.286911 0.177693 0)
(0.267886 0.181668 0)
(0.249161 0.185241 0)
(0.230512 0.188765 0)
(0.211517 0.191833 0)
(0.191865 0.193915 0)
(0.171673 0.196456 0)
(0.151051 0.198706 0)
(0.130286 0.200744 0)
(0.109603 0.20292 0)
(0.0885826 0.204934 0)
(0.0682562 0.207593 0)
(0.0483904 0.212094 0)
(0.0284468 0.214865 0)
(0.00998453 0.219341 0)
(3 -3.62882e-17 0)
(3 3.15967e-16 0)
(3 2.84527e-16 0)
(3 -6.49358e-17 0)
(3 -2.90541e-16 0)
(3 -1.35058e-16 0)
(3 -2.62917e-16 0)
(3 6.03723e-16 0)
(3 1.81307e-15 0)
(3 1.55531e-15 0)
(3 4.62954e-16 0)
(3 -2.38452e-16 0)
(3 -4.65129e-16 0)
(3 -1.50804e-16 0)
(3 -4.91454e-16 0)
(3 -7.96202e-16 0)
(3 -2.18393e-16 0)
(3 4.36246e-17 0)
(3 -7.7171e-17 0)
(3 1.45018e-16 0)
(3 2.20425e-16 0)
(3 5.16049e-16 0)
(3 4.3658e-16 0)
(3 -2.21834e-16 0)
(3 -3.31623e-16 0)
(3 8.03006e-16 0)
(3 9.10086e-16 0)
(3 6.90613e-16 0)
(3 3.79958e-16 0)
(3 4.77528e-16 0)
(3 4.65627e-16 0)
(3 2.34428e-16 0)
(3 1.12612e-15 0)
(3 1.72551e-15 0)
(3 1.52416e-15 0)
(3 8.44614e-16 0)
(3 4.22665e-16 0)
(3 6.54837e-16 0)
(3 9.68123e-16 0)
(3 7.44677e-16 0)
(3 1.65447e-16 0)
(3 2.25595e-16 0)
(3 3.16283e-17 0)
(3 -1.57344e-16 0)
(3 -2.58512e-16 0)
(3 -1.36051e-17 0)
(3 7.94043e-16 0)
(3 1.04146e-15 0)
(3 5.50077e-16 0)
(2.935 0.0411122 0)
(1.04077 0.164692 0)
(0.768826 0.150395 0)
(0.758156 0.139986 0)
(0.744509 0.139505 0)
(0.730363 0.140229 0)
(0.714985 0.142817 0)
(0.698836 0.147131 0)
(0.682483 0.152277 0)
(0.666442 0.1558 0)
(0.651439 0.155857 0)
(0.637522 0.1535 0)
(0.623495 0.151349 0)
(0.608379 0.151976 0)
(0.59255 0.156442 0)
(0.57647 0.162698 0)
(0.560038 0.166228 0)
(0.54439 0.165224 0)
(0.5293 0.163754 0)
(0.514494 0.166267 0)
(0.499669 0.171116 0)
(0.483489 0.173118 0)
(0.466781 0.172403 0)
(0.450258 0.173853 0)
(0.434216 0.176902 0)
(0.417677 0.177802 0)
(0.40059 0.176667 0)
(0.382827 0.177277 0)
(0.364703 0.18048 0)
(0.346038 0.184156 0)
(0.327019 0.187805 0)
(0.308086 0.192142 0)
(0.289409 0.196704 0)
(0.270907 0.200626 0)
(0.252525 0.204269 0)
(0.234055 0.207998 0)
(0.215118 0.211364 0)
(0.195404 0.213748 0)
(0.175058 0.216664 0)
(0.15416 0.219254 0)
(0.133019 0.221559 0)
(0.111853 0.223801 0)
(0.0904284 0.225721 0)
(0.0696044 0.228104 0)
(0.0492916 0.232596 0)
(0.0289438 0.235324 0)
(0.0101611 0.239993 0)
(3 -2.53237e-17 0)
(3 -3.08036e-16 0)
(3 -1.96428e-16 0)
(3 1.42649e-16 0)
(3 8.12125e-16 0)
(3 3.90811e-16 0)
(3 -3.67062e-16 0)
(3 -1.0293e-15 0)
(3 -5.40378e-16 0)
(3 1.4638e-16 0)
(3 7.04e-16 0)
(3 5.8667e-16 0)
(3 4.93372e-16 0)
(3 -3.093e-16 0)
(3 -3.21113e-16 0)
(3 -9.67242e-16 0)
(3 -1.15985e-15 0)
(3 -1.67762e-15 0)
(3 -1.48655e-15 0)
(3 -7.67116e-16 0)
(3 -5.08988e-16 0)
(3 -7.25513e-16 0)
(3 -1.12403e-15 0)
(3 -1.03639e-15 0)
(3 -4.25369e-16 0)
(3 -1.90227e-16 0)
(3 -4.18828e-16 0)
(3 -2.72006e-16 0)
(3 2.39593e-16 0)
(3 8.2324e-16 0)
(3 1.02147e-15 0)
(3 8.73489e-16 0)
(3 1.54631e-15 0)
(3 2.21999e-15 0)
(3 1.86758e-15 0)
(3 1.46816e-15 0)
(3 1.5412e-15 0)
(3 1.29381e-15 0)
(3 1.00495e-15 0)
(3 3.8539e-16 0)
(3 4.92227e-17 0)
(3 -1.6686e-16 0)
(3 -3.66781e-16 0)
(3 -5.47751e-17 0)
(3 -2.28349e-16 0)
(3 3.86422e-16 0)
(3 1.52417e-15 0)
(3 2.22472e-15 0)
(3 2.04555e-15 0)
(2.98263 0.0123732 0)
(1.08089 0.177778 0)
(0.775726 0.15524 0)
(0.762824 0.150333 0)
(0.7493 0.152302 0)
(0.734989 0.153582 0)
(0.719717 0.156434 0)
(0.703655 0.16107 0)
(0.687433 0.166371 0)
(0.67149 0.169482 0)
(0.656568 0.168908 0)
(0.642671 0.166237 0)
(0.628634 0.164356 0)
(0.613636 0.165651 0)
(0.598035 0.170785 0)
(0.582226 0.177425 0)
(0.566124 0.180929 0)
(0.550907 0.179718 0)
(0.536156 0.178023 0)
(0.521476 0.180476 0)
(0.506763 0.185776 0)
(0.490483 0.188637 0)
(0.473437 0.188185 0)
(0.45645 0.189345 0)
(0.439999 0.192469 0)
(0.423125 0.193998 0)
(0.405684 0.193504 0)
(0.387661 0.194584 0)
(0.369444 0.198295 0)
(0.350887 0.202426 0)
(0.332113 0.206233 0)
(0.313477 0.210522 0)
(0.295046 0.215056 0)
(0.276628 0.219092 0)
(0.25811 0.223024 0)
(0.23933 0.227183 0)
(0.219997 0.231055 0)
(0.19982 0.233906 0)
(0.179001 0.237308 0)
(0.157588 0.240319 0)
(0.135893 0.242938 0)
(0.114112 0.245274 0)
(0.092228 0.247105 0)
(0.0709109 0.249179 0)
(0.050174 0.253617 0)
(0.0294705 0.25627 0)
(0.0103426 0.261079 0)
(3 1.59478e-16 0)
(3 -1.07454e-16 0)
(3 -1.36678e-16 0)
(3 4.6035e-16 0)
(3 7.82779e-16 0)
(3 -1.64341e-17 0)
(3 -6.92902e-16 0)
(3 -9.33415e-16 0)
(3 -8.27828e-16 0)
(3 2.03657e-16 0)
(3 1.25185e-15 0)
(3 1.28575e-15 0)
(3 7.91123e-16 0)
(3 -3.17978e-16 0)
(3 -4.97627e-16 0)
(3 -1.06488e-15 0)
(3 -1.71812e-15 0)
(3 -1.71603e-15 0)
(3 -1.31108e-15 0)
(3 -1.73468e-15 0)
(3 -1.95616e-15 0)
(3 -1.52003e-15 0)
(3 -1.04941e-15 0)
(3 -5.08246e-16 0)
(3 -1.98453e-16 0)
(3 -9.18504e-16 0)
(3 -7.26096e-16 0)
(3 -6.75261e-16 0)
(3 -4.29562e-16 0)
(3 -6.044e-17 0)
(3 6.1537e-16 0)
(3 8.85691e-16 0)
(3 6.4507e-16 0)
(3 2.30365e-16 0)
(3 4.85507e-16 0)
(3 4.91478e-16 0)
(3 1.27667e-15 0)
(3 1.34203e-15 0)
(3 1.0568e-15 0)
(3 5.61615e-16 0)
(3 1.32369e-17 0)
(3 -8.89091e-16 0)
(3 -9.41549e-16 0)
(3 -6.13137e-16 0)
(3 -6.30947e-17 0)
(3 3.71965e-16 0)
(3 9.58775e-16 0)
(3 1.14444e-15 0)
(3 7.461e-16 0)
(3.00117 0.00154614 0)
(1.14946 0.184355 0)
(0.776308 0.164999 0)
(0.756207 0.162099 0)
(0.742443 0.164705 0)
(0.728401 0.166453 0)
(0.713917 0.169663 0)
(0.698767 0.174703 0)
(0.683503 0.180164 0)
(0.668424 0.182933 0)
(0.654265 0.181865 0)
(0.640957 0.178919 0)
(0.627419 0.177212 0)
(0.613089 0.179038 0)
(0.598419 0.184748 0)
(0.583632 0.191692 0)
(0.568464 0.195167 0)
(0.554066 0.193851 0)
(0.539929 0.192083 0)
(0.525658 0.194567 0)
(0.5114 0.200339 0)
(0.495479 0.204141 0)
(0.478559 0.204102 0)
(0.461525 0.205077 0)
(0.444943 0.208338 0)
(0.427954 0.210554 0)
(0.410359 0.210692 0)
(0.392263 0.212111 0)
(0.374082 0.21614 0)
(0.355658 0.22062 0)
(0.337001 0.224622 0)
(0.318395 0.229002 0)
(0.299867 0.233696 0)
(0.281192 0.238033 0)
(0.262262 0.242394 0)
(0.242994 0.247061 0)
(0.223204 0.251474 0)
(0.202616 0.254789 0)
(0.181477 0.258634 0)
(0.15977 0.262013 0)
(0.137772 0.26488 0)
(0.115628 0.267267 0)
(0.0934888 0.268988 0)
(0.0718826 0.270734 0)
(0.0508731 0.275091 0)
(0.0299308 0.277648 0)
(0.0104994 0.282565 0)
(3 4.41498e-17 0)
(3 1.95746e-16 0)
(3 1.72946e-16 0)
(3 -3.10616e-17 0)
(3 -1.18105e-16 0)
(3 1.89945e-16 0)
(3 7.34954e-16 0)
(3 6.75299e-16 0)
(3 3.08237e-16 0)
(3 3.31779e-16 0)
(3 7.41082e-16 0)
(3 1.06941e-15 0)
(3 7.27394e-16 0)
(3 3.95546e-16 0)
(3 1.9711e-16 0)
(3 3.81716e-16 0)
(3 7.16514e-18 0)
(3 -5.65398e-16 0)
(3 -5.64287e-16 0)
(3 -7.65737e-16 0)
(3 -1.24567e-15 0)
(3 -1.04171e-15 0)
(3 -5.26091e-16 0)
(3 -2.34273e-16 0)
(3 -7.03115e-17 0)
(3 -7.3139e-16 0)
(3 -3.50141e-16 0)
(3 1.70149e-16 0)
(3 6.48621e-16 0)
(3 4.16474e-16 0)
(3 3.34402e-16 0)
(3 1.77359e-16 0)
(3 -1.26456e-16 0)
(3 -3.13313e-16 0)
(3 -8.31778e-17 0)
(3 1.9842e-16 0)
(3 -8.50266e-17 0)
(3 -3.25886e-17 0)
(3 -2.13833e-16 0)
(3 2.41257e-16 0)
(3 -7.75889e-16 0)
(3 -1.42903e-15 0)
(3 -1.49854e-15 0)
(3 -1.82624e-15 0)
(3 -1.46709e-15 0)
(3 -5.34838e-16 0)
(3 2.89891e-16 0)
(3 9.19649e-17 0)
(3 -2.0151e-16 0)
(3.00003 4.09515e-06 0)
(1.25704 0.203745 0)
(0.775766 0.179642 0)
(0.74698 0.173283 0)
(0.732372 0.17425 0)
(0.718299 0.176046 0)
(0.704314 0.179886 0)
(0.689946 0.18569 0)
(0.675545 0.191559 0)
(0.661262 0.19435 0)
(0.647735 0.193243 0)
(0.634816 0.190326 0)
(0.62153 0.188832 0)
(0.607555 0.191075 0)
(0.593499 0.197296 0)
(0.57948 0.204605 0)
(0.565025 0.208294 0)
(0.551206 0.207187 0)
(0.53758 0.205597 0)
(0.523809 0.208287 0)
(0.510266 0.214643 0)
(0.495096 0.219498 0)
(0.478716 0.220067 0)
(0.462047 0.221017 0)
(0.445687 0.224443 0)
(0.42894 0.227317 0)
(0.411548 0.228056 0)
(0.393699 0.229741 0)
(0.375815 0.233998 0)
(0.357725 0.238814 0)
(0.339335 0.243093 0)
(0.32089 0.247667 0)
(0.302429 0.252608 0)
(0.283731 0.2573 0)
(0.26471 0.262102 0)
(0.24533 0.267263 0)
(0.225484 0.272196 0)
(0.204874 0.275946 0)
(0.183765 0.280194 0)
(0.16206 0.283924 0)
(0.139979 0.287038 0)
(0.11762 0.289522 0)
(0.095235 0.291214 0)
(0.0733179 0.292714 0)
(0.051957 0.29704 0)
(0.0306446 0.299507 0)
(0.0107294 0.30453 0)
(3 -3.94106e-17 0)
(3 -3.26109e-16 0)
(3 -5.16003e-16 0)
(3 -4.86965e-16 0)
(3 -4.43093e-16 0)