/*--------------------------------*- C++ -*----------------------------------*\
  =========                 |
  \\      /  F ield         | OpenFOAM: The Open Source CFD Toolbox
   \\    /   O peration     | Website:  https://openfoam.org
    \\  /    A nd           | Version:  7
     \\/     M anipulation  |
\*---------------------------------------------------------------------------*/
FoamFile
{
    version     2.0;
    format      ascii;
    class       volScalarField;
    location    "2";
    object      p;
}
// * * * * * * * * * * * * * * * * * * * * * * * * * * * * * * * * * * * * * //

dimensions      [1 -1 -2 0 0 0 0];

internalField   nonuniform List<scalar> 
4032
(
1
1
1
1
1
1
1
1
1
1
1
1
5.31643
10.515
10.7599
10.9248
11.1093
11.2766
11.4347
11.5845
11.7233
11.8402
11.9309
11.9974
1
1
1
1
1
1
1
1
1
1
1
1
5.15274
10.4332
10.7323
10.8971
11.0815
11.2457
11.3991
11.5417
11.6718
11.7791
11.8604
11.9215
1
1
1
1
1
1
1
1
1
1
1
1
4.80732
10.3225
10.6844
10.8483
11.0351
11.198
11.3473
11.4815
11.5991
11.6932
11.7608
11.8162
1
1
1
1
1
1
1
1
1
1
1
1
4.30863
10.1322
10.6183
10.774
10.9577
11.114
11.2575
11.3846
11.4915
11.5715
11.6186
11.6545
1
1
1
1
1
1
1
1
1
1
1
1
3.67547
9.81142
10.5276
10.676
10.86
11.0088
11.138
11.2427
11.3179
11.3731
11.3998
11.4445
1
1
1
1
1
1
1
1
1
1
1
1
2.96828
9.3453
10.4615
10.6001
10.7644
10.8899
10.9961
11.0793
11.137
11.1768
11.1679
11.1172
1
1
1
1
1
1
1
1
1
1
1
1
2.16873
8.61239
10.373
10.4849
10.6394
10.7504
10.8345
10.8803
10.8733
10.8068
10.7024
10.6368
1
1
1
1
1
1
1
1
1
1
1
1
1.38195
7.69052
10.3779
10.39
10.4941
10.554
10.5941
10.5879
10.5318
10.4264
10.2617
10.2238
1
1
1
1
1
1
1
1
1
1
1
1
1.02131
6.43386
10.0443
10.0852
10.191
10.2571
10.2796
10.2392
10.1078
9.83406
9.06303
7.18624
1
1
1
1
1
1
1
1
1
1
1
1
1.00002
4.78927
9.61847
9.95823
10.0266
10.0573
10.0119
9.91022
9.67676
9.20185
8.37192
6.34108
1
1
1
1
1
1
1
1
1
1
1
1
1
3.06378
8.82145
9.78448
9.83475
9.84882
9.75029
9.56909
9.2553
8.67469
7.81199
5.92185
1
1
1
1
1
1
1
1
1
1
1
1
1
1.56933
7.78192
9.82243
9.69816
9.60429
9.46427
9.23293
8.86857
8.29596
7.36158
5.85874
1
1
1
1
1
1
1
1
1
1
1
1
1
1.0362
6.03146
9.28134
9.33389
9.30081
9.16996
8.92401
8.54223
7.98656
7.078
5.88672
1
1
1
1
1
1
1
1
1
1
1
1
1
0.999967
3.54251
8.60485
9.20994
9.17171
9.00705
8.71418
8.29614
7.7345
6.89681
5.95433
1
1
1
1
1
1
1
1
1
1
1
1
1
0.999984
1.48425
7.54747
9.27662
9.04081
8.79884
8.46608
8.05637
7.51306
6.7932
6.02256
1
1
1
1
1
1
1
1
1
1
1
1
1
0.999997
1.02138
5.48309
8.8077
8.70849
8.49766
8.20518
7.83178
7.33809
6.72839
6.07125
1
1
1
1
1
1
1
1
1
1
1
1
1
1
0.999928
2.70859
8.06895
8.6106
8.37608
8.08191
7.70301
7.23238
6.68612
6.10873
1
1
1
1
1
1
1
1
1
1
1
1
1
1
0.999979
1.20436
6.21982
8.47635
8.1981
7.93248
7.57511
7.13862
6.64653
6.12909
1
1
1
1
1
1
1
1
1
1
1
1
1
1
0.999996
1.00315
3.30775
7.71393
8.0729
7.81861
7.48676
7.0819
6.63717
6.16416
1
1
1
1
1
1
1
1
1
1
1
1
1
1
1
0.999999
1.34902
6.11027
8.05686
7.75055
7.42317
7.03262
6.61733
6.18172
1
1
1
1
1
1
1
1
1
1
1
1
1
1
1
1
1.00954
3.18849
7.32933
7.65357
7.33393
6.97639
6.59647
6.20046
1
1
1
1
1
1
1
1
1
1
1
1
1
1
1
1
1.00003
1.32072
5.5859
7.66842
7.30389
6.97036
6.60692
6.2352
1
1
1
1
1
1
1
1
1
1
1
1
1
1
1
1
1
1.0083
2.57992
6.64824
7.25712
6.94183
6.60319
6.25582
1
1
1
1
1
1
1
1
1
1
1
1
1
1
1
1
1
1.00004
1.1762
4.53713
7.19977
6.95666
6.64334
6.30665
1
1
1
1
1
1
1
1
1
1
1
1
1
1
1
1
1
1
1.00307
1.89075
5.86879
6.96651
6.6327
6.31075
1
1
1
1
1
1
1
1
1
1
1
1
1
1
1
1
1
1
1.00001
1.05888
3.16781
6.33328
6.64177
6.35851
1
1
1
1
1
1
1
1
1
1
1
1
1
1
1
1
1
1
1
1.00071
1.32744
4.43316
6.5388
6.4344
1
1
1
1
1
1
1
1
1
1
1
1
1
1
1
1
1
1
1
1
1.01009
1.90808
5.2681
6.39567
1
1
1
1
1
1
1
1
1
1
1
1
1
1
1
1
1
1
1
1
1.00007
1.06305
2.678
5.68168
1
1
1
1
1
1
1
1
1
1
1
1
1
1
1
1
1
1
1
1
1
1.00089
1.20517
3.49864
1
1
1
1
1
1
1
1
1
1
1
1
1
1
1
1
1
1
1
1
1
1
1.00527
1.46982
1
1
1
1
1
1
1
1
1
1
1
1
1
1
1
1
1
1
1
1
1
1
1.00003
1.02071
1
1
1
1
1
1
1
1
1
1
1
1
1
1
1
1
1
1
1
1
1
1
1
1.00021
1
1
1
1
1
1
1
1
1
1
1
1
1
1
1
1
1
1
1
1
1
1
1
1
1
1
1
1
1
1
1
1
1
1
1
1
1
1
1
1
1
1
1
1
1
1
1
1
1
1
1
1
1
1
1
1
1
1
1
1
1
1
1
1
1
1
1
1
1
1
1
1
1
1
1
1
1
1
1
1
1
1
1
1
1
1
1
1
1
1
1
1
1
1
1
1
1
1
1
1
1
1
1
1
1
1
1
1
1
1
1
1
1
1
1
1
1
1
1
1
1
1
1
1
1
1
1
1
1
1
1
1
1
1
1
1
1
1
1
1
1
1
1
1
1
1
1
1
1
1
1
1
1
1
1
1
1
1
1
1
1
1
1
1
1
1
1
1
1.62493
0.472296
0.144599
0.147903
0.199886
0.306214
0.425269
0.542458
0.652475
0.728468
0.812379
0.932378
1.11801
1.2448
1.25454
1.23073
1.19347
1.1955
1.18847
1.21073
1.2802
1.31586
1.31731
1.30047
1.26218
1.25315
1.25741
1.27943
1.30813
1.31018
1.3024
1.28397
1.27663
1.27961
1.28685
1.29934
1.30114
1.29266
1.27453
1.26836
1.34645
1.72903
2.78593
4.44088
6.07965
6.64683
6.38595
5.89186
5.64041
5.51819
5.43117
5.30631
5.18772
5.05309
4.89085
4.73612
4.62492
4.53627
4.47582
4.43025
4.36117
4.27471
4.17853
4.0562
3.91082
3.79232
3.71872
3.66332
3.627
3.61858
3.60041
3.55647
3.5039
3.42287
3.27067
3.10896
3.03509
2.9987
2.96957
2.95527
2.94954
2.92009
2.88286
2.82713
2.71411
2.58939
2.53465
2.50437
2.47749
2.46011
2.45679
2.4496
2.43044
2.4045
2.36477
2.24046
2.78903
1.55573
0.899505
0.630835
0.570103
0.559942
0.560361
0.538882
0.541534
0.56914
0.623187
0.707201
0.819188
0.972075
1.04563
1.06987
1.0822
1.09882
1.12063
1.17061
1.24878
1.28469
1.29163
1.28702
1.25953
1.24727
1.24986
1.26973
1.30123
1.3089
1.30646
1.29217
1.27589
1.27497
1.27753
1.28591
1.28863
1.28144
1.2868
1.36099
1.77481
2.40308
2.85495
3.38711
4.37215
5.27471
5.69764
5.67047
5.58269
5.48933
5.37662
5.25529
5.15209
5.04179
4.92201
4.78041
4.63898
4.53887
4.46242
4.40419
4.35304
4.28214
4.19348
4.09241
3.97705
3.8495
3.73868
3.67307
3.62939
3.59988
3.56445
3.52058
3.46931
3.4013
3.30258
3.17953
3.06535
3.00562
2.97346
2.94792
2.92602
2.89756
2.86175
2.81313
2.7386
2.64198
2.56025
2.51664
2.48816
2.46797
2.45945
2.43731
2.40782
2.37531
2.338
2.2454
3.60523
2.42841
1.77083
1.27279
0.947912
0.784956
0.724667
0.692042
0.628355
0.602729
0.629877
0.684105
0.720998
0.769654
0.862453
0.93752
0.988175
1.03595
1.09079
1.15819
1.22731
1.27701
1.28555
1.29038
1.2784
1.27075
1.27383
1.28381
1.29579
1.29808
1.29791
1.28905
1.27829
1.27741
1.27821
1.28032
1.28178
1.30118
1.40594
1.82834
2.58089
2.88789
2.92846
2.96008
3.19465
3.86549
4.83936
5.44134
5.66419
5.56723
5.36848
5.21249
5.08528
4.97658
4.88915
4.80501
4.70306
4.58113
4.46352
4.37765
4.30235
4.22936
4.15565
4.07791
4.00409
3.92745
3.82856
3.7084
3.62739
3.57792
3.52933
3.47412
3.40941
3.3408
3.28339
3.22406
3.14505
3.04477
2.97866
2.94281
2.90754
2.86767
2.81993
2.76679
2.72241
2.67963
2.62584
2.56125
2.51351
2.48113
2.4507
2.41784
2.38046
2.33504
2.28778
2.22055
4.27032
3.11098
2.41647
1.94515
1.56102
1.19039
0.983142
0.964447
0.927963
0.838889
0.773589
0.728049
0.698623
0.698835
0.722619
0.787192
0.860235
0.915577
0.983572
1.05839
1.11664
1.16841
1.1906
1.21995
1.25842
1.28539
1.30738
1.30811
1.30524
1.30346
1.29783
1.28712
1.27705
1.26806
1.26532
1.2697
1.29988
1.47435
1.90553
2.65641
3.00086
3.04589
3.02248
2.95832
2.90516
2.97428
3.40812
4.25861
4.98115
5.20761
5.23121
5.19379
5.09853
5.01261
4.92587
4.83022
4.73274
4.61224
4.46239
4.34286
4.26794
4.20188
4.14015
4.07611
4.0139
3.95475
3.8819
3.76836
3.63062
3.54244
3.48388
3.42357
3.36098
3.31057
3.27059
3.23089
3.1807
3.09721
2.99261
2.9277
2.88287
2.834
2.77916
2.7361
2.70881
2.68328
2.65339
2.61186
2.5555
2.49748
2.45025
2.4072
2.35735
2.2974
2.24828
2.20384
4.70742
3.74696
2.94905
2.42157
2.08964
1.7709
1.41131
1.17739
1.14046
1.07942
0.974633
0.875985
0.793937
0.735252
0.73411
0.759892
0.794057
0.820008
0.851268
0.890352
0.929742
0.98674
1.05509
1.12215
1.18557
1.23311
1.25558
1.26509
1.26876
1.27748
1.29064
1.29931
1.29829
1.28876
1.27582
1.29645
1.50528
2.12419
2.69306
3.12701
3.12661
3.06922
2.99961
2.93309
2.88594
2.8611
2.87077
3.06311
3.62104
4.31875
4.79064
4.95191
4.93697
4.95625
4.98026
4.89581
4.79426
4.65633
4.49058
4.31633
4.21669
4.15604
4.10685
4.06914
4.0209
3.9652
3.90191
3.80749
3.65154
3.4951
3.41134
3.36132
3.32594
3.30343
3.28129
3.24617
3.20299
3.13588
3.01883
2.9007
2.83546
2.79204
2.75853
2.73397
2.71533
2.69285
2.66502
2.63127
2.58021
2.5043
2.43114
2.37466
2.32207
2.27236
2.2471
2.21091
5.00843
4.19603
3.51714
2.88993
2.41863
2.16232
1.89207
1.57417
1.35924
1.29442
1.20501
1.09539
1.01089
0.929922
0.854245
0.833067
0.83514
0.829632
0.805563
0.793954
0.797387
0.813524
0.867975
0.946896
1.04666
1.14176
1.1858
1.2158
1.23403
1.24502
1.26122
1.27803
1.27767
1.28175
1.30966
1.52299
2.2468
2.87891
3.12296
3.17726
3.13858
3.08641
3.00369
2.91404
2.87065
2.84534
2.82681
2.80226
2.84213
3.09284
3.60915
4.21147
4.53857
4.74471
4.82349
4.87229
4.8194
4.69792
4.55107
4.36145
4.19607
4.11691
4.06057
4.02814
4.00046
3.95207
3.89474
3.81156
3.67178
3.49122
3.3818
3.3369
3.30307
3.27935
3.27144
3.24486
3.20403
3.14665
3.03677
2.89313
2.81553
2.77954
2.75081
2.72971
2.71773
2.69568
2.66625
2.63304
2.58047
2.49096
2.39425
2.32847
2.29105
2.26912
2.25443
2.22148
5.22798
4.49176
3.89295
3.34132
2.82181
2.42837
2.19436
1.9621
1.69018
1.50973
1.40685
1.30138
1.20172
1.11397
1.02195
0.949653
0.91267
0.873441
0.831478
0.806498
0.808733
0.809451
0.811489
0.830836
0.880027
0.946629
1.01684
1.08513
1.1497
1.17598
1.21307
1.25337
1.25708
1.30975
1.60846
2.26847
2.98426
3.16749
3.20388
3.1964
3.12474
3.0359
2.94977
2.86945
2.82607
2.80319
2.79277
2.75543
2.73859
2.70569
2.76244
3.01393
3.52504
4.07431
4.41578
4.6344
4.6781
4.65287
4.58141
4.43488
4.2448
4.11789
4.04644
3.99562
3.94931
3.90323
3.8512
3.7828
3.67629
3.52629
3.39759
3.33739
3.30059
3.26831
3.24285
3.21786
3.17991
3.12684
3.03766
2.91659
2.83753
2.79636
2.7627
2.73412
2.71124
2.68951
2.66321
2.62794
2.55844
2.44633
2.35026
2.3096
2.29216
2.27877
2.27149
2.24074
5.38725
4.74835
4.16164
3.64388
3.19434
2.78735
2.43983
2.21309
2.01803
1.79522
1.61413
1.49113
1.39782
1.31119
1.21453
1.12435
1.05578
0.997063
0.948028
0.908036
0.88706
0.859442
0.833183
0.829836
0.832532
0.840539
0.857392
0.891461
0.95436
1.02884
1.1056
1.17095
1.24188
1.66649
2.36766
2.94912
3.23495
3.28808
3.25845
3.19157
3.09362
2.99238
2.90909
2.84168
2.78908
2.75683
2.73918
2.72299
2.69291
2.66042
2.62128
2.56367
2.63318
2.91246
3.42039
3.92704
4.29585
4.45644
4.48747
4.44904
4.3146
4.15328
4.04052
3.96855
3.90316
3.85238
3.80351
3.74208
3.66358
3.56812
3.4597
3.35767
3.29553
3.25558
3.21912
3.18088
3.13768
3.08723
3.02504
2.9521
2.88122
2.82378
2.77777
2.73697
2.70058
2.66867
2.63391
2.5835
2.50924
2.40746
2.33314
2.30594
2.29083
2.27746
2.27659
2.25084
5.5011
4.93748
4.40415
3.89625
3.46409
3.10599
2.76818
2.46688
2.25064
2.05086
1.86867
1.70447
1.57484
1.46608
1.37592
1.2985
1.2204
1.13757
1.05685
1.0023
0.963332
0.923218
0.887963
0.85696
0.849811
0.844089
0.841952
0.842472
0.84819
0.876618
0.936406
1.00922
1.42447
2.30015
2.80265
3.06749
3.18667
3.17712
3.16468
3.1087
3.03938
2.97217
2.91328
2.85229
2.78167
2.72352
2.69092
2.67338
2.64937
2.61769
2.58111
2.54566
2.46685
2.41933
2.50588
2.78126
3.25928
3.74173
4.15517
4.27538
4.26448
4.18234
4.06208
3.96319
3.86508
3.79262
3.74119
3.68769
3.63081
3.57713
3.50995
3.42133
3.32564
3.24775
3.19195
3.14414
3.09223
3.04136
2.99833
2.95796
2.91337
2.8601
2.79979
2.74061
2.6884
2.64065
2.59065
2.53554
2.47164
2.41593
2.36892
2.32327
2.29965
2.28877
2.29157
2.26284
5.59598
5.08645
4.58744
4.12779
3.73004
3.34546
2.99764
2.73184
2.49494
2.26021
2.05502
1.91136
1.77728
1.64731
1.51958
1.44095
1.36761
1.29136
1.20941
1.13824
1.08446
1.03073
0.988476
0.953773
0.927318
0.897876
0.875693
0.856735
0.842907
0.843591
0.876289
1.17975
2.02521
2.49439
2.66766
2.79454
2.81053
2.83107
2.8958
2.94125
2.95534
2.95509
2.9234
2.85502
2.76438
2.68537
2.64318
2.61865
2.60744
2.58636
2.55776
2.51974
2.46115
2.36997
2.29606
2.28804
2.3795
2.66047
3.15163
3.62035
3.94448
4.03508
4.02258
3.96528
3.8553
3.74806
3.69676
3.6535
3.60429
3.55821
3.50504
3.43924
3.35811
3.2638
3.17521
3.11182
3.0603
3.01217
2.97103
2.93739
2.90492
2.86482
2.81112
2.74665
2.68046
2.61723
2.55564
2.49542
2.45422
2.43137
2.40547
2.37106
2.32588
2.2754
2.25003
2.21448
5.68564
5.21134
4.74252
4.32366
3.93751
3.562
3.22214
2.9528
2.70125
2.4688
2.26021
2.09903
1.9462
1.81601
1.69091
1.59061
1.49441
1.40445
1.32958
1.26702
1.20557
1.1522
1.09199
1.04696
1.00249
0.962052
0.921284
0.887783
0.862452
0.899045
1.17519
1.82834
2.42274
2.43922
2.41179
2.3735
2.37948
2.43327
2.51588
2.63526
2.74308
2.80971
2.80288
2.76439
2.69248
2.62833
2.59655
2.57932
2.56585
2.55025
2.5256
2.48809
2.43072
2.34882
2.25821
2.22
2.20024
2.20381
2.30518
2.58401
3.01356
3.43672
3.68892
3.79952
3.76975
3.6954
3.67159
3.64481
3.61009
3.56553
3.5034
3.42283
3.3405
3.25075
3.15942
3.0923
3.04655
3.00526
2.96435
2.92197
2.8789
2.8354
2.78645
2.72896
2.66441
2.59977
2.53897
2.49266
2.46549
2.44188
2.41801
2.38767
2.34032
2.27211
2.22622
2.17823
5.74415
5.29582
4.86456
4.48256
4.11025
3.73888
3.43542
3.16156
2.90268
2.65033
2.45948
2.28575
2.12107
1.96675
1.843
1.73901
1.63217
1.53941
1.45254
1.38521
1.31707
1.25895
1.20599
1.15748
1.10909
1.06284
1.01266
0.972131
1.00517
1.30305
1.93163
2.50775
2.53735
2.46883
2.35025
2.28858
2.26083
2.24157
2.22588
2.25011
2.30487
2.37364
2.43896
2.46695
2.49256
2.4836
2.46317
2.45714
2.48311
2.49737
2.47931
2.44432
2.38446
2.31842
2.26359
2.21297
2.17389
2.14242
2.11894
2.13061
2.21126
2.44272
2.76797
3.1494
3.38156
3.4945
3.52737
3.55334
3.59177
3.56956
3.50841
3.43294
3.34101
3.22956
3.11517
3.05888
3.02308
2.99081
2.9604
2.92305
2.87688
2.82338
2.75925
2.68631
2.62235
2.57292
2.53508
2.50774
2.48182
2.45331
2.42067
2.37978
2.32921
2.27015
2.21758
2.15003
5.79535
5.37548
4.98246
4.62359
4.26031
3.91096
3.62617
3.34913
3.07672
2.83079
2.64626
2.45457
2.28595
2.1195
2.00057
1.87656
1.76413
1.66223
1.58129
1.5086
1.43211
1.36411
1.3052
1.25426
1.19789
1.1474
1.10251
1.137
1.47773
2.18
2.71027
2.74872
2.64284
2.51541
2.42963
2.37156
2.3096
2.24907
2.20442
2.16615
2.13453
2.12194
2.12351
2.12224
2.14939
2.18215
2.21761
2.25905
2.29001
2.31069
2.33105
2.33227
2.3172
2.28619
2.25617
2.21866
2.16841
2.1142
2.07454
2.0565
2.03949
2.02835
2.07863
2.23221
2.53655
2.85831
3.10299
3.25966
3.39898
3.43476
3.43716
3.41607
3.35214
3.2478
3.12958
3.03274
2.98257
2.95172
2.92953
2.90051
2.86658
2.82369
2.7612
2.67633
2.59451
2.54589
2.52099
2.50081
2.47978
2.45423
2.41869
2.36911
2.3088
2.25088
2.19912
2.12923
5.85172
5.45997
5.09758
4.75076
4.39225
4.07477
3.7931
3.51758
3.23246
3.01436
2.814
2.61996
2.43063
2.27696
2.15216
2.01635
1.90046
1.78759
1.70959
1.62543
1.54619
1.47084
1.41145
1.35291
1.29662
1.24082
1.28696
1.69479
2.49886
2.99752
3.00653
2.88399
2.74794
2.65677
2.58798
2.51251
2.41988
2.32328
2.24099
2.16388
2.10711
2.07721
2.05958
2.05638
2.0183
1.96146
1.92962
1.93448
1.9644
1.99482
2.04561
2.10203
2.14619
2.17068
2.15828
2.14563
2.12174
2.08387
2.05803
2.013
1.9766
1.95711
1.949
1.94122
1.97299
2.06975
2.29598
2.59352
2.87866
3.07862
3.23716
3.26133
3.24492
3.21756
3.15931
3.05915
2.98456
2.93459
2.89234
2.85553
2.8271
2.79347
2.75048
2.69068
2.61624
2.54933
2.50185
2.47452
2.45542
2.43489
2.40803
2.36851
2.30223
2.20254
2.13825
2.10199
5.8998
5.53755
5.19606
4.86172
4.51703
4.21825
3.94347
3.66329
3.38938
3.18292
2.97294
2.77639
2.5727
2.43755
2.2953
2.15964
2.03011
1.92266
1.83871
1.74142
1.65964
1.57883
1.50561
1.44335
1.39652
1.47001
1.95102
2.80527
3.2828
3.27869
3.15853
3.01661
2.90992
2.82093
2.72658
2.62076
2.50658
2.39511
2.30247
2.2378
2.18451
2.13278
2.0864
2.04372
2.0034
1.95952
1.89023
1.82073
1.78693
1.77467
1.78579
1.81564
1.84805
1.89896
1.92916
1.93917
1.95959
1.97008
1.95773
1.93549
1.92695
1.92935
1.92139
1.89769
1.87338
1.82818
1.83233
1.89658
2.0639
2.33321
2.64475
2.87507
2.99543
3.06901
3.05706
3.01435
2.98766
2.94962
2.88165
2.83645
2.80081
2.75674
2.71198
2.66872
2.61581
2.55799
2.50635
2.4617
2.42848
2.40668
2.38647
2.35672
2.2947
2.17633
2.10622
2.08266
5.96467
5.62148
5.28456
4.95657
4.6388
4.34807
4.07573
3.78901
3.54208
3.33654
3.13523
2.91322
2.72165
2.58696
2.43653
2.29931
2.15138
2.05922
1.96057
1.85844
1.76591
1.67263
1.60452
1.55153
1.65608
2.27788
3.1949
3.60829
3.55045
3.40371
3.26305
3.15269
3.0592
2.96149
2.85472
2.73965
2.62239
2.51039
2.41472
2.34133
2.27849
2.21727
2.15546
2.09344
2.03528
1.97553
1.90018
1.81723
1.76462
1.74155
1.72337
1.69767
1.67884
1.67491
1.67113
1.67275
1.67708
1.68777
1.71426
1.77451
1.80687
1.81877
1.82236
1.81647
1.80017
1.77953
1.75226
1.72072
1.7096
1.75142
1.87036
2.10879
2.37063
2.6684
2.7979
2.85211
2.88558
2.87031
2.84292
2.82991
2.79619
2.75136
2.70311
2.64154
2.57492
2.53001
2.49495
2.46132
2.42699
2.39013
2.35802
2.32536
2.27349
2.20437
2.14345
2.07737
5.98759
5.66795
5.35262
5.03479
4.73521
4.46222
4.19495
3.92195
3.68545
3.47725
3.27388
3.04943
2.87556
2.72837
2.57958
2.42034
2.27915
2.18728
2.07659
1.97736
1.86417
1.77272
1.7248
1.88618
2.62563
3.71405
4.00133
3.8245
3.60687
3.47633
3.37179
3.28535
3.19671
3.10114
2.99213
2.86584
2.72996
2.6066
2.51018
2.43317
2.36485
2.29829
2.23236
2.16511
2.09575
2.0262
1.95907
1.88771
1.81678
1.75829
1.7159
1.67769
1.65059
1.63063
1.60836
1.58347
1.54948
1.51022
1.49492
1.50382
1.54106
1.58381
1.63824
1.67835
1.69363
1.68782
1.67187
1.65934
1.64173
1.62173
1.61994
1.64244
1.72012
1.89521
2.15688
2.39144
2.59238
2.6552
2.7151
2.72189
2.71977
2.71925
2.70578
2.65278
2.5777
2.50646
2.46218
2.44113
2.41817
2.38701
2.34285
2.28556
2.23705
2.20619
2.17493
2.1026
6.0421
5.73983
5.43779
5.13054
4.84824
4.58795
4.31933
4.04919
3.8249
3.61701
3.40496
3.18224
3.01612
2.85983
2.70685
2.53796
2.41114
2.30446
2.19198
2.07315
1.96146
1.90484
2.14063
3.05782
4.0805
4.36597
4.25103
4.01351
3.76939
3.60474
3.51498
3.42192
3.32457
3.22326
3.1132
2.98803
2.84485
2.70685
2.60221
2.52217
2.45202
2.3842
2.31493
2.24331
2.17086
2.09811
2.0238
1.94552
1.87038
1.80846
1.75652
1.70974
1.66919
1.62867
1.58873
1.5533
1.51989
1.48492
1.4388
1.39746
1.38186
1.38754
1.40867
1.43773
1.48328
1.51808
1.51931
1.51303
1.52094
1.53722
1.54926
1.53432
1.52146
1.53122
1.58112
1.69804
1.89492
2.12688
2.35125
2.4359
2.49324
2.56357
2.5936
2.5931
2.57606
2.5272
2.46472
2.41846
2.38978
2.36341
2.32546
2.26687
2.20689
2.17284
2.15335
2.10454
6.12795
5.82508
5.52843
5.23323
4.95905
4.69707
4.42876
4.17332
3.95484
3.74296
3.51802
3.30701
3.14982
2.98962
2.82639
2.65389
2.53857
2.42277
2.29633
2.16898
2.12704
2.43352
3.53081
4.59627
4.77273
4.62652
4.38751
4.16299
3.93009
3.756
3.63575
3.52155
3.41169
3.30768
3.20456
3.0956
2.97317
2.83403
2.70117
2.60073
2.52269
2.4513
2.37994
2.30756
2.23429
2.15965
2.08188
2.00188
1.92619
1.86186
1.80654
1.75713
1.71178
1.66493
1.62041
1.58126
1.54031
1.48842
1.43201
1.38308
1.35072
1.33291
1.32765
1.32248
1.32271
1.33013
1.34063
1.33591
1.33397
1.35477
1.37877
1.41172
1.43662
1.42844
1.40874
1.41148
1.43752
1.51545
1.67343
1.89102
2.08486
2.20656
2.28723
2.38062
2.45642
2.47045
2.45041
2.39349
2.36175
2.33595
2.29732
2.25303
2.205
2.15819
2.11975
2.06918
6.19053
5.88719
5.59517
5.31345
5.04939
4.78831
4.52406
4.28393
4.0642
3.84942
3.6304
3.43591
3.2734
3.10876
2.9323
2.77104
2.66081
2.52489
2.39368
2.37006
2.80701
4.03327
5.11956
5.17089
4.97192
4.71057
4.47859
4.30116
4.1123
3.92354
3.76185
3.62123
3.49402
3.38155
3.28018
3.18345
3.08176
2.96105
2.8165
2.67778
2.57601
2.50013
2.43456
2.37234
2.30772
2.23533
2.15037
2.05332
1.96509
1.9044
1.8584
1.81587
1.77171
1.72205
1.66661
1.60991
1.55562
1.50489
1.45524
1.40245
1.34916
1.31513
1.29748
1.28459
1.27226
1.26683
1.25934
1.23381
1.20427
1.19906
1.20481
1.22609
1.25733
1.29135
1.3036
1.28989
1.28188
1.29703
1.33486
1.41608
1.5268
1.6681
1.81668
1.94488
2.08524
2.24555
2.32697
2.31326
2.29546
2.28092
2.25913
2.24245
2.22021
2.17417
2.12646
2.05734
6.22138
5.97889
5.66773
5.39869
5.14125
4.8786
4.61829
4.3989
4.18041
3.96
3.73763
3.56482
3.39688
3.22722
3.04391
2.89612
2.76209
2.61876
2.67084
3.29423
4.73523
5.54929
5.50282
5.27552
5.03438
4.82698
4.64928
4.48339
4.30289
4.09814
3.89733
3.73018
3.59076
3.46778
3.35851
3.25931
3.16143
3.05388
2.92234
2.77159
2.64097
2.54668
2.4726
2.40865
2.35073
2.29148
2.21801
2.12446
2.02502
1.94282
1.8816
1.83276
1.7899
1.7487
1.70453
1.6525
1.59429
1.5415
1.49647
1.4502
1.39791
1.34485
1.3064
1.27894
1.25328
1.2318
1.21868
1.20453
1.1847
1.15466
1.12853
1.11831
1.11873
1.12339
1.13714
1.14518
1.1546
1.17027
1.18572
1.20861
1.25033
1.30277
1.35166
1.43035
1.55685
1.73446
1.91082
2.00986
2.12979
2.17364
2.15576
2.1498
2.14604
2.13992
2.12547
2.07304
5.78134
6.04688
5.77808
5.48344
5.23182
4.96788
4.72312
4.50904
4.29442
4.06329
3.85339
3.68792
3.50969
3.33464
3.14781
3.01184
2.85773
2.9556
3.88544
5.4892
6.22838
6.09947
5.74912
5.42768
5.20086
5.01723
4.83279
4.63684
4.43222
4.22177
4.01838
3.8421
3.6934
3.56185
3.44154
3.32929
3.22075
3.11016
2.98871
2.85412
2.72543
2.61994
2.5319
2.45138
2.3751
2.30643
2.24176
2.16954
2.09116
2.01653
1.94935
1.88929
1.8339
1.77938
1.72191
1.66348
1.61307
1.57308
1.53651
1.49642
1.45111
1.40576
1.36528
1.32284
1.27677
1.23479
1.20325
1.18519
1.17284
1.14834
1.11986
1.1026
1.08069
1.06046
1.04496
1.03143
1.02825
1.03214
1.04276
1.06004
1.08396
1.11767
1.14414
1.15417
1.1737
1.24203
1.3882
1.52017
1.65357
1.82162
1.96322
1.99343
2.00753
2.03032
2.04941
2.03191
4.12616
5.80488
5.86573
5.60686
5.3218
5.06111
4.83165
4.61368
4.39494
4.16174
3.97111
3.80068
3.61995
3.42484
3.26239
3.11464
3.29863
4.46583
6.32558
6.80892
6.5289
6.17174
5.85899
5.59134
5.38303
5.181
4.96587
4.74811
4.53514
4.32218
4.11302
3.92721
3.77347
3.64185
3.52056
3.40202
3.28222
3.16099
3.03991
2.92075
2.80593
2.69872
2.60035
2.50825
2.41856
2.33044
2.24852
2.17678
2.11409
2.05228
1.98706
1.92334
1.86597
1.81359
1.76321
1.71362
1.66277
1.60794
1.55269
1.50017
1.45625
1.42486
1.39733
1.36414
1.32565
1.28105
1.22848
1.18109
1.15252
1.14111
1.13037
1.10778
1.07658
1.05256
1.0296
1.00239
0.977135
0.961618
0.956302
0.957303
0.962501
0.979923
1.00839
1.01831
1.01203
1.01363
1.05241
1.12665
1.19668
1.31536
1.47872
1.61554
1.73089
1.79099
1.86289
1.91573
1.8233
4.54714
5.7202
5.71505
5.45174
5.15494
4.92782
4.71856
4.49885
4.26932
4.08475
3.90489
3.71703
3.53259
3.39162
3.73434
5.29847
6.95958
7.58219
7.29429
6.78955
6.32274
5.98729
5.73407
5.50684
5.28591
5.06751
4.85546
4.6489
4.43857
4.22382
4.02482
3.85752
3.71484
3.58626
3.46285
3.338
3.21276
3.09271
2.98006
2.872
2.7658
2.66133
2.55964
2.46123
2.36667
2.28177
2.2108
2.14957
2.09123
2.02908
1.95749
1.87698
1.80626
1.76184
1.73106
1.69721
1.6529
1.60373
1.54882
1.48105
1.42378
1.38852
1.36741
1.34901
1.32029
1.27539
1.22041
1.1706
1.13549
1.11381
1.10069
1.08782
1.06642
1.03326
0.998404
0.968048
0.940068
0.921925
0.91645
0.91503
0.9184
0.921402
0.921001
0.917885
0.901781
0.899452
0.922543
0.948142
0.97955
1.05264
1.1568
1.2607
1.37264
1.47956
1.64926
1.0564
2.19539
4.77668
5.63749
5.57226
5.29327
5.03626
4.81216
4.5889
4.37489
4.20621
4.00483
3.80331
3.70417
4.22705
6.30242
7.84068
7.94793
7.71792
7.32094
6.93194
6.53072
6.17419
5.87909
5.62094
5.38945
5.17399
4.96564
4.75742
4.54201
4.32472
4.12507
3.95184
3.79635
3.65119
3.51374
3.38092
3.25275
3.13202
3.0197
2.91383
2.81117
2.70846
2.60485
2.50375
2.40827
2.31898
2.23748
2.16707
2.10855
2.05536
1.99665
1.92704
1.85263
1.78109
1.72439
1.68588
1.65782
1.63017
1.58675
1.52412
1.46256
1.41
1.36703
1.3329
1.31077
1.29096
1.25797
1.21576
1.17368
1.13438
1.10039
1.07626
1.06208
1.04674
1.01808
0.977132
0.941307
0.918376
0.90426
0.897654
0.892435
0.885552
0.881083
0.873203
0.848121
0.821023
0.819896
0.827651
0.837964
0.860533
0.902559
0.951847
1.00233
1.05159
1.22344
1.00084
1.11457
2.53062
4.92047
5.52631
5.42856
5.17338
4.92107
4.68171
4.50164
4.28735
4.09804
4.05172
4.90614
7.1334
8.86949
8.96083
8.43008
7.81251
7.36196
7.03096
6.69563
6.35768
6.04508
5.76292
5.50882
5.27642
5.05567
4.83772
4.62016
4.41244
4.22517
4.0545
3.88982
3.72691
3.56949
3.42225
3.28723
3.16355
3.04999
2.94556
2.84737
2.75022
2.64912
2.54589
2.44798
2.35921
2.2794
2.20486
2.12873
2.05166
1.9868
1.93629
1.88331
1.82309
1.76672
1.71586
1.66353
1.61037
1.56899
1.53879
1.49776
1.44415
1.3929
1.35203
1.31796
1.28916
1.2703
1.24647
1.209
1.16489
1.1268
1.09845
1.07092
1.04062
1.01433
0.990548
0.960361
0.931062
0.908189
0.896245
0.886185
0.87411
0.861604
0.849683
0.830912
0.798666
0.78363
0.778302
0.776023
0.779537
0.790095
0.805224
0.820938
0.829515
0.882095
1
1.00238
1.18959
2.81996
4.97621
5.40377
5.30348
5.05132
4.79876
4.58507
4.36577
4.45992
5.70678
8.44035
9.4123
9.27422
8.9705
8.54213
8.01719
7.544
7.16874
6.83311
6.51103
6.20036
5.90609
5.63012
5.37133
5.12571
4.89003
4.6681
4.46926
4.29311
4.12809
3.96379
3.79608
3.62745
3.46426
3.31475
3.18402
3.07074
2.97072
2.8784
2.78812
2.69159
2.58227
2.46949
2.37135
2.29454
2.23113
2.16643
2.09144
2.00882
1.93298
1.88029
1.83783
1.78846
1.73626
1.68473
1.63361
1.57912
1.52242
1.48431
1.45804
1.42207
1.37692
1.33967
1.30403
1.26039
1.22483
1.19816
1.17107
1.14544
1.11814
1.08991
1.06044
1.02042
0.9766
0.956449
0.940083
0.91976
0.904188
0.891749
0.877229
0.858209
0.834902
0.813866
0.790111
0.778489
0.77128
0.760767
0.751687
0.748251
0.746205
0.741514
0.73348
0.734858
1
1.00001
1.00517
1.27493
3.04653
4.95464
5.30534
5.18916
4.9448
4.64956
4.80731
6.73643
9.52807
10.7012
10.413
9.46887
8.92373
8.56853
8.18222
7.75581
7.33512
6.95128
6.61285
6.30557
6.01545
5.73539
5.46197
5.19455
4.94003
4.71102
4.51315
4.33848
4.17455
4.01326
3.84966
3.68224
3.51292
3.35149
3.21276
3.09911
3.00176
2.9099
2.81685
2.72121
2.61654
2.50162
2.39177
2.30054
2.22872
2.17167
2.11656
2.04902
1.96978
1.89783
1.8527
1.82171
1.78209
1.72798
1.66605
1.60221
1.54795
1.50002
1.45668
1.43271
1.41309
1.37894
1.33168
1.27092
1.22959
1.21835
1.20788
1.18677
1.15882
1.12696
1.09048
1.04429
0.99218
0.964461
0.955375
0.94943
0.938687
0.921714
0.897824
0.862251
0.825544
0.806966
0.802673
0.793795
0.779072
0.75907
0.740286
0.729303
0.722131
0.713306
0.705401
0.693338
1
1
1.00003
1.00935
1.36064
3.17113
4.93217
5.19179
5.03021
5.2124
7.60059
10.8843
11.3226
10.9368
10.5148
9.78813
9.11766
8.67037
8.28732
7.89071
7.4807
7.08131
6.71479
6.38871
6.09327
5.81371
5.53817
5.26358
5.00049
4.76432
4.55914
4.37718
4.20819
4.04555
3.88466
3.72046
3.55024
3.38211
3.23642
3.12418
3.03352
2.94738
2.85078
2.73906
2.61799
2.50123
2.4067
2.33012
2.25786
2.18802
2.12445
2.06513
2.00222
1.93811
1.87773
1.81535
1.75319
1.69349
1.63624
1.59193
1.55726
1.52163
1.4845
1.44508
1.39966
1.35377
1.3073
1.27306
1.25128
1.22772
1.19633
1.16296
1.12869
1.09373
1.05849
1.02659
1.00497
0.989748
0.974658
0.951886
0.92486
0.898693
0.874266
0.85036
0.829254
0.816858
0.803698
0.78545
0.761291
0.742277
0.729442
0.718207
0.709138
0.70117
0.693534
0.67321
1
1
1
1.00008
1.01428
1.42817
3.36578
4.6415
5.27383
8.33136
11.9713
12.5979
11.9412
11.1149
10.5679
9.99012
9.35775
8.81269
8.36116
7.94995
7.54906
7.15744
6.78958
6.45588
6.15306
5.8693
5.59144
5.31458
5.0479
4.80719
4.5965
4.40883
4.23399
4.06417
3.89866
3.73819
3.57325
3.41187
3.26425
3.14113
3.04364
2.95585
2.86562
2.75608
2.63761
2.53398
2.43901
2.34597
2.26378
2.19366
2.12885
2.06695
2.00887
1.9525
1.89021
1.82125
1.75479
1.69728
1.65173
1.61167
1.56952
1.52736
1.48623
1.44256
1.39659
1.35177
1.31583
1.29119
1.26534
1.23384
1.19909
1.16291
1.12637
1.09099
1.05875
1.03556
1.01978
1.00362
0.983407
0.9572
0.927389
0.897839
0.871675
0.851857
0.839723
0.828304
0.813482
0.791701
0.762285
0.74003
0.726228
0.715011
0.705064
0.696334
0.689439
0.667794
1
1
1
1
1.00012
1.02202
1.50966
2.99836
7.84963
12.9613
13.232
12.5992
12.0378
11.2527
10.6115
10.0501
9.49165
8.94147
8.43305
7.97951
7.57127
7.19589
6.84663
6.51998
6.21233
5.91829
5.63215
5.35328
5.08811
4.84635
4.62897
4.43034
4.2527
4.10107
3.95797
3.79274
3.61007
3.43902
3.32144
3.2234
3.11518
3.00587
2.89358
2.79493
2.71666
2.6287
2.52227
2.40515
2.3065
2.23462
2.17623
2.12393
2.07345
2.01825
1.95386
1.88318
1.81523
1.75788
1.70842
1.66021
1.61202
1.56507
1.5191
1.47515
1.43475
1.39972
1.37009
1.33945
1.304
1.26556
1.22491
1.18231
1.14236
1.11133
1.09033
1.074
1.05696
1.03723
1.01353
0.982947
0.944665
0.910637
0.891378
0.880725
0.87131
0.8606
0.845758
0.81866
0.779015
0.75199
0.738197
0.727338
0.717712
0.709374
0.701847
0.675319
1
1
1
1
1
1.00029
1.02396
2.07403
12.0976
15.7544
14.2783
13.2126
12.5147
11.5455
10.7182
10.1101
9.5555
9.01487
8.48449
7.9959
7.56692
7.1955
6.86447
6.55454
6.25235
5.95078
5.64731
5.34957
5.07681
4.84346
4.64469
4.46515
4.28905
4.09976
3.902
3.72906
3.58841
3.4636
3.32744
3.17684
3.04013
2.92501
2.83462
2.75915
2.67881
2.58541
2.46931
2.34319
2.24345
2.1765
2.12334
2.07422
2.02464
1.96966
1.90555
1.83508
1.76762
1.70952
1.65888
1.61217
1.56716
1.52227
1.47715
1.43329
1.39398
1.36151
1.33275
1.30286
1.26966
1.23221
1.19054
1.14574
1.10557
1.07956
1.06273
1.04732
1.03065
1.01143
0.987588
0.954875
0.912829
0.882313
0.868978
0.859494
0.849718
0.839137
0.824225
0.796575
0.756833
0.731659
0.719037
0.708222
0.697353
0.687775
0.67985
0.653612
)
;

boundaryField
{
    inlet
    {
        type            fixedValue;
        value           uniform 1;
    }
    outlet
    {
        type            zeroGradient;
    }
    bottom
    {
        type            symmetryPlane;
    }
    top
    {
        type            symmetryPlane;
    }
    obstacle
    {
        type            zeroGradient;
    }
    defaultFaces
    {
        type            empty;
    }
}


// ************************************************************************* //
