/*--------------------------------*- C++ -*----------------------------------*\
  =========                 |
  \\      /  F ield         | OpenFOAM: The Open Source CFD Toolbox
   \\    /   O peration     | Website:  https://openfoam.org
    \\  /    A nd           | Version:  7
     \\/     M anipulation  |
\*---------------------------------------------------------------------------*/
FoamFile
{
    version     2.0;
    format      ascii;
    class       volScalarField;
    location    "2";
    object      rho;
}
// * * * * * * * * * * * * * * * * * * * * * * * * * * * * * * * * * * * * * //

dimensions      [1 -3 0 0 0 0 0];

internalField   nonuniform List<scalar> 
4032
(
1.40001
1.40001
1.40001
1.40001
1.40001
1.40001
1.40001
1.40001
1.40001
1.40001
1.40001
1.40001
3.49163
5.40539
5.48287
5.54354
5.61526
5.68082
5.73833
5.78503
5.82094
5.84673
5.86695
5.88585
1.40001
1.40001
1.40001
1.40001
1.40001
1.40001
1.40001
1.40001
1.40001
1.40001
1.40001
1.40001
3.41777
5.37347
5.47177
5.53316
5.60513
5.66974
5.72556
5.76971
5.80259
5.82518
5.84221
5.85928
1.40001
1.40001
1.40001
1.40001
1.40001
1.40001
1.40001
1.40001
1.40001
1.40001
1.40001
1.40001
3.26816
5.33434
5.45266
5.51455
5.5881
5.65269
5.70729
5.74841
5.77682
5.79483
5.80699
5.82198
1.40001
1.40001
1.40001
1.40001
1.40001
1.40001
1.40001
1.40001
1.40001
1.40001
1.40001
1.40001
3.05136
5.2738
5.42857
5.48812
5.56102
5.62365
5.67637
5.71491
5.73934
5.75213
5.75665
5.7647
1.40001
1.40001
1.40001
1.40001
1.40001
1.40001
1.40001
1.40001
1.40001
1.40001
1.40001
1.40001
2.76786
5.17303
5.40496
5.45895
5.52994
5.58907
5.63646
5.66657
5.67899
5.68316
5.68072
5.69207
1.40001
1.40001
1.40001
1.40001
1.40001
1.40001
1.40001
1.40001
1.40001
1.40001
1.40001
1.40001
2.43512
5.02636
5.40604
5.44507
5.5032
5.55191
5.59028
5.61178
5.61637
5.61522
5.60373
5.58494
1.40001
1.40001
1.40001
1.40001
1.40001
1.40001
1.40001
1.40001
1.40001
1.40001
1.40001
1.40001
2.04972
4.81004
5.41155
5.42273
5.46915
5.5099
5.53848
5.54527
5.52721
5.48675
5.43976
5.41666
1.40001
1.40001
1.40001
1.40001
1.40001
1.40001
1.40001
1.40001
1.40001
1.40001
1.40001
1.40001
1.64677
4.53057
5.45072
5.41681
5.43662
5.45151
5.46035
5.44867
5.41352
5.3542
5.26582
5.2193
1.40001
1.40001
1.40001
1.40001
1.40001
1.40001
1.40001
1.40001
1.40001
1.40001
1.40001
1.40001
1.41729
4.00033
5.33381
5.32185
5.34346
5.35702
5.35675
5.33453
5.2722
5.14867
4.81681
3.95937
1.40001
1.40001
1.40001
1.40001
1.40001
1.40001
1.40001
1.40001
1.40001
1.40001
1.40001
1.40001
1.40002
3.28523
5.1666
5.27921
5.28908
5.29233
5.27099
5.22583
5.12624
4.9262
4.56986
3.67751
1.40001
1.40001
1.40001
1.40001
1.40001
1.40001
1.40001
1.40001
1.40001
1.40001
1.40001
1.40001
1.4
2.52176
4.92136
5.23466
5.22725
5.22305
5.18223
5.10816
4.97959
4.73942
4.37301
3.55685
1.40001
1.40001
1.40001
1.40001
1.40001
1.40001
1.40001
1.40001
1.40001
1.40001
1.40001
1.40001
1.4
1.77902
4.63854
5.29065
5.20945
5.14903
5.08338
4.98706
4.83957
4.60435
4.21253
3.56621
1.40001
1.40001
1.40001
1.40001
1.40001
1.40001
1.40001
1.40001
1.40001
1.40001
1.40001
1.40001
1.40001
1.42968
3.88308
5.11603
5.09638
5.05501
4.98813
4.87905
4.72047
4.49136
4.11107
3.59536
1.40001
1.40001
1.40001
1.40001
1.40001
1.40001
1.40001
1.40001
1.40001
1.40001
1.40001
1.40001
1.40001
1.39994
2.78733
4.9238
5.086
5.03766
4.9526
4.81736
4.63679
4.4005
4.04687
3.63654
1.40001
1.40001
1.40001
1.40001
1.40001
1.40001
1.40001
1.40001
1.40001
1.40001
1.40001
1.40001
1.40001
1.39999
1.74312
4.62495
5.15453
5.03362
4.90602
4.7453
4.55993
4.3242
4.015
3.67789
1.40001
1.40001
1.40001
1.40001
1.40001
1.40001
1.40001
1.40001
1.40001
1.40001
1.40001
1.40001
1.40001
1.4
1.4178
3.69331
4.99971
4.93996
4.82456
4.67446
4.49608
4.27287
4.00416
3.71253
1.40001
1.40001
1.40001
1.40001
1.40001
1.40001
1.40001
1.40001
1.40001
1.40001
1.40001
1.40001
1.40001
1.4
1.39992
2.41695
4.81457
4.92726
4.8159
4.66825
4.48297
4.26181
4.01153
3.74824
1.40001
1.40001
1.40001
1.40001
1.40001
1.40001
1.40001
1.40001
1.40001
1.40001
1.40001
1.40001
1.40001
1.40001
1.39998
1.56003
4.06575
4.90925
4.78071
4.64699
4.47037
4.26025
4.02698
3.78353
1.40001
1.40001
1.40001
1.40001
1.40001
1.40001
1.40001
1.40001
1.40001
1.40001
1.40001
1.40001
1.40001
1.40001
1.4
1.40269
2.74116
4.6957
4.75419
4.63512
4.47351
4.27538
4.05901
3.83063
1.40001
1.40001
1.40001
1.40001
1.40001
1.40001
1.40001
1.40001
1.40001
1.40001
1.40001
1.40001
1.40001
1.40001
1.4
1.4
1.66385
4.07023
4.79256
4.64601
4.48446
4.29248
4.08754
3.87278
1.40001
1.40001
1.40001
1.40001
1.40001
1.40001
1.40001
1.40001
1.40001
1.40001
1.40001
1.40001
1.40001
1.40001
1.40001
1.4
1.40819
2.7106
4.60027
4.63327
4.48175
4.30494
4.11479
3.91603
1.40001
1.40001
1.40001
1.40001
1.40001
1.40001
1.40001
1.40001
1.40001
1.40001
1.40001
1.40001
1.40001
1.40001
1.40001
1.4
1.40003
1.64609
3.87779
4.68846
4.50969
4.33873
4.15414
3.96544
1.40001
1.40001
1.40001
1.40001
1.40001
1.40001
1.40001
1.40001
1.40001
1.40001
1.40001
1.40001
1.40001
1.40001
1.40001
1.40001
1.40001
1.40723
2.41622
4.37992
4.52399
4.36613
4.19024
4.0098
1.40001
1.40001
1.40001
1.40001
1.40001
1.40001
1.40001
1.40001
1.40001
1.40001
1.40001
1.40001
1.40001
1.40001
1.40001
1.40001
1.40001
1.40004
1.54207
3.42419
4.55061
4.41959
4.25105
4.07178
1.40001
1.40001
1.40001
1.40001
1.40001
1.40001
1.40001
1.40001
1.40001
1.40001
1.40001
1.40001
1.40001
1.40001
1.40001
1.40001
1.40001
1.40001
1.40277
2.02553
4.06604
4.46707
4.29477
4.11856
1.40001
1.40001
1.40001
1.40001
1.40001
1.40001
1.40001
1.40001
1.40001
1.40001
1.40001
1.40001
1.40001
1.40001
1.40001
1.40001
1.40001
1.40001
1.40002
1.45013
2.75631
4.28553
4.32986
4.18291
1.40001
1.40001
1.40001
1.40001
1.40001
1.40001
1.40001
1.40001
1.40001
1.40001
1.40001
1.40001
1.40001
1.40001
1.40001
1.40001
1.40001
1.40001
1.40001
1.40068
1.65493
3.43212
4.33517
4.26849
1.40001
1.40001
1.40001
1.40001
1.40001
1.40001
1.40001
1.40001
1.40001
1.40001
1.40001
1.40001
1.40001
1.40001
1.40001
1.40001
1.40001
1.40001
1.40001
1.40001
1.40905
2.04896
3.84729
4.29345
1.40001
1.40001
1.40001
1.40001
1.40001
1.40001
1.40001
1.40001
1.40001
1.40001
1.40001
1.40001
1.40001
1.40001
1.40001
1.40001
1.40001
1.40001
1.40001
1.40001
1.40008
1.45424
2.51814
4.05972
1.40001
1.40001
1.40001
1.40001
1.40001
1.40001
1.40001
1.40001
1.40001
1.40001
1.40001
1.40001
1.40001
1.40001
1.40001
1.40001
1.40001
1.40001
1.40001
1.40001
1.40001
1.40085
1.56759
2.98527
1.40001
1.40001
1.40001
1.40001
1.40001
1.40001
1.40001
1.40001
1.40001
1.40001
1.40001
1.40001
1.40001
1.40001
1.40001
1.40001
1.40001
1.40001
1.40001
1.40001
1.40001
1.40001
1.40488
1.76159
1.40001
1.40001
1.40001
1.40001
1.40001
1.40001
1.40001
1.40001
1.40001
1.40001
1.40001
1.40001
1.40001
1.40001
1.40001
1.40001
1.40001
1.40001
1.40001
1.40001
1.40001
1.40001
1.40004
1.41859
1.40001
1.40001
1.40001
1.40001
1.40001
1.40001
1.40001
1.40001
1.40001
1.40001
1.40001
1.40001
1.40001
1.40001
1.40001
1.40001
1.40001
1.40001
1.40001
1.40001
1.40001
1.40001
1.40001
1.40021
1.40001
1.40001
1.40001
1.40001
1.40001
1.40001
1.40001
1.40001
1.40001
1.40001
1.40001
1.40001
1.40001
1.40001
1.40001
1.40001
1.40001
1.40001
1.40001
1.40001
1.40001
1.40001
1.40001
1.40001
1.40001
1.40001
1.40001
1.40001
1.40001
1.40001
1.40001
1.40001
1.40001
1.40001
1.40001
1.40001
1.40001
1.40001
1.40001
1.40001
1.40001
1.40001
1.40001
1.40001
1.40001
1.40001
1.40001
1.40001
1.40001
1.40001
1.40001
1.40001
1.40001
1.40001
1.40001
1.40001
1.40001
1.40001
1.40001
1.40001
1.40001
1.40001
1.40001
1.40001
1.40001
1.40001
1.40001
1.40001
1.40001
1.40001
1.40001
1.40001
1.40001
1.40001
1.40001
1.40001
1.40001
1.40001
1.40001
1.40001
1.40001
1.40001
1.40001
1.40001
1.40001
1.40001
1.40001
1.40001
1.40001
1.40001
1.40001
1.40001
1.40001
1.40001
1.40001
1.40001
1.40001
1.40001
1.40001
1.40001
1.40001
1.40001
1.40001
1.40001
1.40001
1.40001
1.40001
1.40001
1.40001
1.40001
1.40001
1.40001
1.40001
1.40001
1.40001
1.40001
1.40001
1.40001
1.40001
1.40001
1.40001
1.40001
1.40001
1.40001
1.40001
1.40001
1.40001
1.40001
1.40001
1.40001
1.40001
1.40001
1.40001
1.40001
1.40001
1.40001
1.40001
1.40001
1.40001
1.40001
1.40001
1.40001
1.40001
1.40001
1.40001
1.40001
1.40001
1.40001
1.40001
1.40001
1.40001
1.40001
1.40001
1.40001
1.40001
1.40001
1.40001
1.40001
1.40001
1.40001
1.40001
1.40001
1.40001
1.40001
1.40001
1.40001
1.40001
1.40001
1.32014
0.534184
0.211932
0.207109
0.243891
0.324991
0.418788
0.511191
0.59848
0.653476
0.704858
0.779723
0.910747
1.00485
1.00961
0.986206
0.953542
0.95805
0.971019
0.999113
1.04829
1.06719
1.06688
1.0554
1.03228
1.02905
1.03464
1.05243
1.07194
1.07303
1.06701
1.05306
1.04728
1.04869
1.05458
1.06445
1.06674
1.06346
1.05301
1.04709
1.08939
1.28961
1.80864
2.53158
3.18362
3.39722
3.29972
3.11233
3.02937
2.9983
2.9725
2.92628
2.88038
2.82859
2.76625
2.70701
2.66548
2.63251
2.61025
2.5938
2.56814
2.53595
2.49939
2.44992
2.38796
2.33668
2.30578
2.2836
2.27039
2.26914
2.26275
2.24305
2.21818
2.17938
2.10664
2.02812
1.99063
1.97114
1.95507
1.94619
1.94135
1.92468
1.90378
1.87349
1.81614
1.75429
1.72731
1.71282
1.70057
1.6933
1.69268
1.68995
1.68101
1.66916
1.65073
1.58893
1.98859
1.27648
0.849671
0.656975
0.598206
0.587374
0.591669
0.578084
0.575116
0.591953
0.627606
0.685828
0.769665
0.884547
0.933053
0.935555
0.929243
0.938187
0.961438
1.00447
1.0599
1.07926
1.08057
1.07624
1.05678
1.04946
1.05233
1.06775
1.0891
1.09276
1.08918
1.07695
1.06441
1.06334
1.06551
1.07248
1.0751
1.07273
1.07446
1.11535
1.33856
1.66367
1.89998
2.16228
2.59394
2.96368
3.11785
3.09197
3.06217
3.03696
2.99688
2.9474
2.90425
2.85868
2.80975
2.753
2.69706
2.65761
2.62713
2.60419
2.585
2.55826
2.52368
2.48216
2.43263
2.37682
2.3287
2.3015
2.28418
2.27269
2.25757
2.23731
2.21256
2.17906
2.13056
2.07013
2.01312
1.98192
1.96443
1.95036
1.9379
1.92185
1.90154
1.87443
1.83524
1.78668
1.7462
1.72514
1.71214
1.70345
1.70031
1.69008
1.67567
1.6598
1.64199
1.59617
2.46353
1.82641
1.44032
1.12603
0.907785
0.797249
0.757044
0.731838
0.678029
0.659961
0.682148
0.724695
0.755263
0.794869
0.86476
0.913854
0.941035
0.968642
1.00368
1.05038
1.09961
1.13229
1.13282
1.13033
1.11957
1.11332
1.11533
1.12289
1.13117
1.13132
1.12854
1.11875
1.1087
1.10657
1.10642
1.10809
1.10968
1.11982
1.18113
1.41815
1.81644
1.98329
2.0246
2.05529
2.17536
2.4838
2.90117
3.13804
3.21475
3.1733
3.08715
3.01603
2.95789
2.90759
2.86723
2.83063
2.78767
2.73567
2.68448
2.64717
2.61542
2.58552
2.55488
2.52093
2.48759
2.45275
2.40817
2.3545
2.31817
2.29542
2.2722
2.24507
2.21302
2.17849
2.1485
2.11711
2.0755
2.02411
1.98999
1.97096
1.9523
1.93089
1.90475
1.87507
1.84983
1.82643
1.79866
1.76701
1.74449
1.72954
1.71518
1.69893
1.67979
1.65631
1.63208
1.59819
2.82881
2.23661
1.85071
1.5713
1.3359
1.1016
0.965459
0.95201
0.925403
0.860495
0.814251
0.782371
0.760199
0.76011
0.779077
0.82962
0.884688
0.924831
0.971956
1.02339
1.06578
1.10335
1.11572
1.13101
1.15261
1.16814
1.18278
1.18281
1.18011
1.17756
1.1724
1.16311
1.15438
1.14682
1.14371
1.14555
1.1627
1.26642
1.51556
1.91532
2.0976
2.13584
2.12924
2.10066
2.07897
2.11463
2.32699
2.72279
3.03506
3.12419
3.12321
3.09639
3.04452
2.99896
2.95872
2.91684
2.87434
2.82114
2.7537
2.6993
2.66574
2.63712
2.6101
2.58062
2.55061
2.52164
2.48683
2.43351
2.36814
2.32444
2.29417
2.26307
2.23124
2.20526
2.18341
2.16048
2.13193
2.08741
2.03386
2.00064
1.97744
1.95191
1.9225
1.89787
1.88077
1.86476
1.84783
1.82679
1.79931
1.77087
1.74705
1.72442
1.69758
1.6652
1.63842
1.61462
3.05658
2.58679
2.16892
1.87482
1.68132
1.49018
1.26466
1.11172
1.0864
1.04428
0.970665
0.900282
0.840294
0.796105
0.795411
0.815501
0.842467
0.863007
0.887507
0.916789
0.946623
0.989143
1.0388
1.08623
1.12892
1.15961
1.1747
1.18082
1.1821
1.18649
1.19419
1.19819
1.19693
1.19046
1.17942
1.19176
1.31855
1.67149
1.97769
2.19984
2.2011
2.17561
2.142
2.10867
2.08448
2.07201
2.07997
2.17906
2.4517
2.77629
2.98709
3.05366
3.03264
3.02832
3.03524
2.9985
2.95537
2.8958
2.82149
2.74196
2.69653
2.66927
2.6467
2.62852
2.60461
2.57648
2.54455
2.49789
2.42173
2.34411
2.3005
2.27367
2.25437
2.24158
2.22886
2.20917
2.1847
2.14801
2.08753
2.02784
1.99467
1.97218
1.954
1.93952
1.92752
1.91339
1.89709
1.8789
1.85297
1.81429
1.77583
1.74494
1.7151
1.6861
1.67045
1.64893
3.20803
2.82111
2.48056
2.14947
1.88852
1.73919
1.57734
1.38032
1.24296
1.20003
1.13956
1.06416
1.00551
0.948401
0.893064
0.876998
0.878776
0.875265
0.857818
0.848564
0.851073
0.863855
0.905455
0.964835
1.0378
1.10528
1.13647
1.15769
1.16998
1.17669
1.18722
1.19714
1.19661
1.19872
1.21588
1.3479
1.7596
2.0876
2.21171
2.23829
2.21844
2.19163
2.15131
2.10739
2.08536
2.07221
2.0631
2.05299
2.07525
2.20333
2.45497
2.73887
2.88632
2.97147
3.00153
3.02323
3.00102
2.94873
2.88512
2.79941
2.72331
2.68643
2.65968
2.64333
2.62846
2.60316
2.57348
2.53143
2.46192
2.37205
2.31579
2.29111
2.27241
2.25926
2.25438
2.24028
2.21869
2.18815
2.13139
2.05841
2.01908
2.00087
1.98612
1.97474
1.96766
1.95505
1.93858
1.92038
1.89238
1.84502
1.79264
1.75519
1.73213
1.71717
1.70651
1.6847
3.3186
2.97256
2.67892
2.3977
2.12118
1.90209
1.76625
1.62805
1.46179
1.3478
1.28081
1.21064
1.14316
1.08316
1.01858
0.966867
0.939954
0.91123
0.879852
0.860797
0.863028
0.863787
0.865311
0.880382
0.917825
0.967506
1.01859
1.06754
1.113
1.13169
1.15794
1.1859
1.18839
1.22202
1.40332
1.77905
2.14838
2.23407
2.25137
2.24821
2.21281
2.16861
2.12802
2.09071
2.06986
2.05845
2.0534
2.03454
2.02789
2.01503
2.04535
2.17343
2.42514
2.68651
2.84517
2.94619
2.9669
2.95567
2.92439
2.85959
2.77307
2.71283
2.67805
2.6519
2.62699
2.60213
2.57482
2.53981
2.48601
2.41037
2.34462
2.31249
2.29234
2.27523
2.26224
2.24993
2.23104
2.20417
2.15874
2.09708
2.05732
2.03708
2.02057
2.0064
1.99471
1.9832
1.969
1.95
1.91278
1.8521
1.79798
1.77245
1.7599
1.74952
1.74244
1.72097
3.40208
3.10312
2.81937
2.56005
2.32642
2.10717
1.91362
1.78301
1.6669
1.53112
1.41866
1.34048
1.27905
1.22095
1.15577
1.09417
1.04622
1.00445
0.969033
0.939837
0.924741
0.904212
0.883964
0.881769
0.883898
0.890168
0.903234
0.92879
0.974778
1.02859
1.08364
1.1301
1.17833
1.43866
1.82815
2.12984
2.26833
2.29229
2.27786
2.24593
2.19993
2.15274
2.11473
2.08536
2.06212
2.04669
2.03736
2.02865
2.01343
1.99895
1.98265
1.95803
1.99599
2.14161
2.3976
2.64478
2.82207
2.89818
2.90929
2.8921
2.83048
2.7547
2.6991
2.66141
2.62655
2.59885
2.57262
2.54058
2.49999
2.45073
2.39474
2.34179
2.3092
2.28856
2.2703
2.25156
2.23045
2.20551
2.17441
2.13797
2.1028
2.0745
2.052
2.0319
2.0135
1.99684
1.97824
1.95115
1.91086
1.85437
1.81103
1.79233
1.78074
1.7702
1.76654
1.7481
3.46977
3.20487
2.94782
2.69616
2.47468
2.28536
2.10172
1.93318
1.80816
1.69037
1.58048
1.47884
1.39643
1.3262
1.26733
1.21557
1.16231
1.10525
1.04903
1.01039
0.982142
0.95272
0.926618
0.9035
0.898427
0.894309
0.893441
0.893976
0.898707
0.920294
0.964639
1.01649
1.28506
1.78745
2.05331
2.18674
2.24111
2.23794
2.23528
2.21197
2.18304
2.15484
2.13058
2.10488
2.07303
2.0448
2.02728
2.01775
2.00562
1.99045
1.97463
1.96148
1.92431
1.905
1.95281
2.09995
2.34784
2.59039
2.79123
2.84406
2.83733
2.79618
2.73592
2.68596
2.63491
2.59487
2.56605
2.53724
2.50709
2.47827
2.44251
2.39592
2.34641
2.30649
2.27834
2.25457
2.22868
2.20315
2.18179
2.16237
2.14128
2.11561
2.08574
2.05583
2.02898
2.0039
1.97704
1.94659
1.91031
1.8781
1.85024
1.82108
1.80338
1.79402
1.79208
1.77159
3.53362
3.2918
3.05045
2.82266
2.62018
2.4197
2.23372
2.08701
1.9533
1.81801
1.69723
1.6099
1.52686
1.44522
1.3642
1.31298
1.2643
1.21317
1.15742
1.10837
1.07068
1.03265
1.00261
0.977737
0.958555
0.936974
0.920639
0.906551
0.896708
0.897357
0.92112
1.12681
1.62683
1.88899
1.98327
2.04878
2.05948
2.07418
2.11323
2.14357
2.15746
2.16412
2.15356
2.12337
2.08005
2.04053
2.0188
2.00634
2.00164
1.9922
1.97981
1.96392
1.93801
1.89362
1.85547
1.856
1.90779
2.06207
2.32377
2.56261
2.72057
2.75794
2.75014
2.72043
2.66302
2.60399
2.57353
2.54928
2.52263
2.4974
2.46843
2.43327
2.39032
2.34094
2.29514
2.26261
2.23628
2.21169
2.19085
2.17435
2.15926
2.14065
2.1145
2.08157
2.04648
2.01213
1.97793
1.94367
1.9196
1.90564
1.88907
1.86631
1.8367
1.80358
1.78543
1.76001
3.60024
3.37216
3.14276
2.93381
2.73762
2.54317
2.36318
2.21651
2.07679
1.94488
1.82397
1.72799
1.63563
1.55576
1.47768
1.41344
1.3509
1.2919
1.24227
1.20001
1.15785
1.12082
1.07889
1.04726
1.01553
0.986412
0.956742
0.932202
0.91348
0.939678
1.12577
1.51904
1.8512
1.86555
1.85564
1.83888
1.84424
1.87834
1.9291
1.9988
2.06119
2.10698
2.10614
2.09022
2.05515
2.02393
2.01197
2.00589
2.00051
1.9939
1.98324
1.96626
1.93895
1.89769
1.8498
1.83225
1.82539
1.82848
1.8886
2.04567
2.27706
2.49535
2.62144
2.67415
2.65731
2.6149
2.59661
2.5792
2.55897
2.535
2.50188
2.4584
2.41383
2.36552
2.31659
2.28098
2.25713
2.23558
2.21413
2.19206
2.17026
2.14909
2.12518
2.09564
2.06065
2.02437
1.98934
1.96208
1.9456
1.93073
1.9152
1.89549
1.86515
1.82173
1.79129
1.75796
3.65673
3.43537
3.22206
3.02997
2.84025
2.64816
2.48736
2.33958
2.19736
2.05628
1.94666
1.84508
1.74734
1.65416
1.57775
1.51202
1.44399
1.38422
1.32758
1.28282
1.23707
1.19786
1.16185
1.12833
1.09452
1.06205
1.0264
0.997431
1.02006
1.21472
1.58534
1.90138
1.92497
1.8913
1.83073
1.79832
1.78809
1.78441
1.78332
1.8002
1.83639
1.88025
1.91946
1.94025
1.95884
1.95686
1.95235
1.95592
1.97559
1.98701
1.98028
1.96402
1.9324
1.89728
1.86987
1.84448
1.82471
1.80914
1.79773
1.80603
1.85476
1.98665
2.16653
2.37202
2.49422
2.55069
2.5633
2.57083
2.58703
2.57452
2.54074
2.49966
2.44997
2.38863
2.32558
2.29475
2.27525
2.25777
2.24143
2.22136
2.19681
2.16891
2.13548
2.09672
2.06159
2.0331
2.01032
1.9931
1.97647
1.95832
1.93791
1.91257
1.88056
1.84202
1.8069
1.76185
3.71227
3.50086
3.30253
3.12008
2.93378
2.7522
2.60121
2.45258
2.30427
2.1678
2.0627
1.95224
1.85312
1.75377
1.68083
1.60395
1.53341
1.4687
1.41647
1.36886
1.31846
1.27315
1.23367
1.19908
1.16052
1.12569
1.09422
1.11638
1.32844
1.73001
2.01215
2.0446
1.99217
1.92841
1.88784
1.86218
1.83156
1.80028
1.7797
1.76519
1.75333
1.7497
1.75297
1.75609
1.77422
1.79822
1.82633
1.8562
1.8791
1.8975
1.91623
1.91939
1.91306
1.89789
1.88334
1.86418
1.83771
1.80846
1.78647
1.77716
1.76825
1.7628
1.79352
1.88494
2.06017
2.24027
2.37387
2.45598
2.52864
2.54106
2.54048
2.52825
2.49199
2.43294
2.36685
2.31268
2.28394
2.26655
2.2544
2.23862
2.22004
2.19659
2.16262
2.11621
2.07047
2.04203
2.02628
2.01276
1.99861
1.982
1.95989
1.92961
1.8918
1.85341
1.81832
1.77192
3.77056
3.57101
3.38501
3.20668
3.0212
2.85464
2.70521
2.55748
2.40281
2.28157
2.16848
2.05731
1.94711
1.85573
1.77999
1.6971
1.62525
1.55451
1.5045
1.45018
1.39869
1.34937
1.31007
1.27093
1.23288
1.19458
1.22343
1.46956
1.91615
2.17398
2.18673
2.12863
2.06065
2.01766
1.98838
1.95531
1.91036
1.8607
1.81844
1.77788
1.74668
1.73166
1.72556
1.72782
1.70866
1.67873
1.66921
1.6758
1.69885
1.72292
1.75905
1.79804
1.82871
1.84847
1.84254
1.83755
1.82627
1.8064
1.79296
1.76685
1.74501
1.73308
1.72955
1.72761
1.74844
1.80803
1.94245
2.11453
2.27594
2.38412
2.47305
2.48102
2.46986
2.45175
2.4166
2.35838
2.31548
2.28691
2.26295
2.2423
2.2265
2.20777
2.18362
2.14981
2.10746
2.06856
2.03972
2.02194
2.0089
1.99514
1.978
1.95332
1.91216
1.84934
1.80572
1.78058
3.82573
3.63885
3.46154
3.28728
3.10802
2.95049
2.80377
2.65301
2.50381
2.38867
2.27052
2.15808
2.04028
1.95989
1.87483
1.79277
1.71328
1.6463
1.59306
1.53132
1.47886
1.4265
1.37851
1.33726
1.30547
1.35051
1.63133
2.09296
2.33631
2.33895
2.28277
2.21242
2.1605
2.12046
2.07907
2.03071
1.97532
1.91898
1.87131
1.8379
1.81006
1.78238
1.75685
1.73397
1.71294
1.68951
1.65263
1.61688
1.60089
1.59972
1.6097
1.63352
1.65828
1.69379
1.71595
1.72571
1.74125
1.75136
1.74532
1.73337
1.72907
1.73179
1.72788
1.71452
1.701
1.67389
1.67875
1.71903
1.8213
1.98259
2.16573
2.29822
2.36695
2.40366
2.39432
2.36668
2.34908
2.32545
2.28553
2.25986
2.23988
2.21459
2.18833
2.16322
2.13252
2.09822
2.06697
2.03927
2.01777
2.0032
1.98981
1.9707
1.93202
1.85786
1.81052
1.79345
3.89138
3.71151
3.53498
3.3626
3.19524
3.04114
2.89516
2.74022
2.6043
2.48921
2.37539
2.24913
2.13832
2.05847
1.96908
1.88623
1.79632
1.73886
1.67726
1.61314
1.55427
1.4944
1.44995
1.41422
1.476
1.82316
2.3051
2.51943
2.49378
2.42426
2.3554
2.30063
2.25629
2.21239
2.16529
2.11282
2.05657
2.00073
1.95208
1.91459
1.88192
1.84903
1.81486
1.77997
1.7478
1.71495
1.6716
1.62223
1.5935
1.58546
1.58041
1.56924
1.56084
1.56161
1.56218
1.56777
1.57308
1.58205
1.60185
1.64352
1.66525
1.67489
1.6786
1.67564
1.66695
1.65612
1.64037
1.62096
1.61553
1.64257
1.71779
1.86613
2.02664
2.20345
2.27859
2.3089
2.32316
2.31219
2.29389
2.28566
2.26549
2.23862
2.21012
2.17374
2.13349
2.1063
2.08471
2.06333
2.04134
2.01792
1.99732
1.9764
1.94337
1.8984
1.85819
1.81321
3.94214
3.76952
3.60069
3.4314
3.27124
3.12445
2.98035
2.83183
2.70106
2.58427
2.46918
2.34146
2.24029
2.15334
2.06491
1.96963
1.88405
1.82702
1.75856
1.69635
1.62504
1.56677
1.5339
1.62737
2.0261
2.57396
2.73043
2.64826
2.54525
2.48358
2.43269
2.39092
2.34988
2.30731
2.25842
2.19951
2.13321
2.0716
2.02335
1.98441
1.94874
1.91279
1.87657
1.83929
1.80071
1.76188
1.72399
1.68287
1.64173
1.60786
1.58404
1.56321
1.55015
1.5418
1.53131
1.51795
1.49767
1.47392
1.46704
1.47397
1.50031
1.53004
1.56714
1.59489
1.60949
1.60763
1.59917
1.59289
1.58323
1.57104
1.5714
1.5863
1.63675
1.74938
1.91453
2.06062
2.18278
2.21885
2.25192
2.25299
2.24917
2.24777
2.23962
2.20738
2.16147
2.11764
2.08922
2.07537
2.06061
2.04079
2.01319
1.97737
1.94609
1.92497
1.90304
1.85154
4.01101
3.8443
3.67872
3.51189
3.35847
3.21657
3.07008
2.92222
2.79723
2.68022
2.55989
2.43272
2.33548
2.24337
2.15261
2.05189
1.97475
1.90911
1.83966
1.76577
1.69599
1.65699
1.78992
2.26732
2.76581
2.9266
2.87667
2.76685
2.65081
2.57239
2.53027
2.48601
2.44081
2.39516
2.34517
2.28549
2.21452
2.14505
2.09276
2.05301
2.01717
1.98082
1.94273
1.90311
1.86282
1.82199
1.77983
1.73465
1.69075
1.6546
1.62435
1.5975
1.57475
1.55146
1.52718
1.50511
1.48456
1.46398
1.43618
1.40984
1.40037
1.40473
1.41995
1.44075
1.47341
1.50131
1.50455
1.50327
1.51108
1.52602
1.53621
1.52615
1.51762
1.52421
1.55747
1.63602
1.76716
1.91746
2.05979
2.11083
2.14387
2.18475
2.20073
2.19946
2.18826
2.15665
2.11635
2.0864
2.06765
2.05084
2.02739
1.99095
1.95282
1.92941
1.91486
1.87808
4.09766
3.92831
3.76274
3.59931
3.44779
3.30297
3.15471
3.0132
2.89064
2.77079
2.64278
2.5211
2.42827
2.33375
2.23696
2.1343
2.06373
1.99286
1.91473
1.83726
1.80486
1.9737
2.5341
3.02463
3.14418
3.08085
2.97319
2.86871
2.75818
2.67603
2.61971
2.5657
2.51399
2.46566
2.41771
2.36598
2.30551
2.23484
2.16688
2.11563
2.0756
2.03826
1.99988
1.96009
1.91902
1.87642
1.83127
1.78431
1.73991
1.70286
1.67116
1.64277
1.61663
1.58876
1.56152
1.5374
1.51154
1.47711
1.4385
1.40591
1.3864
1.37528
1.37195
1.36832
1.36896
1.37535
1.38574
1.38564
1.38697
1.40521
1.42538
1.45185
1.47081
1.46446
1.44999
1.45201
1.47082
1.52673
1.63841
1.78619
1.91287
1.98987
2.04036
2.09808
2.14296
2.14894
2.1358
2.0981
2.07624
2.05895
2.03435
2.00695
1.97694
1.94679
1.92012
1.88196
4.17726
4.00608
3.83934
3.67933
3.53007
3.38316
3.23476
3.09892
2.97394
2.85148
2.72578
2.61268
2.51699
2.41996
2.31557
2.21882
2.151
2.06728
1.98912
1.96595
2.19607
2.81251
3.30997
3.35163
3.27027
3.15435
3.04864
2.96791
2.88031
2.7917
2.71515
2.64827
2.58718
2.53282
2.48376
2.43714
2.38787
2.32755
2.25249
2.17934
2.12598
2.08609
2.05095
2.01706
1.98162
1.94091
1.89092
1.83215
1.77882
1.74331
1.71724
1.69323
1.66805
1.63917
1.60562
1.56973
1.53449
1.50106
1.4673
1.4303
1.39212
1.36882
1.35776
1.34966
1.34106
1.33788
1.33408
1.31746
1.29926
1.29902
1.305
1.32385
1.34947
1.37538
1.38437
1.37386
1.36828
1.38061
1.41139
1.4743
1.5555
1.65336
1.75333
1.83955
1.93239
2.03622
2.08554
2.07508
2.06129
2.05049
2.03551
2.02531
2.01218
1.98297
1.95097
1.90118
4.23274
4.09889
3.92324
3.76706
3.61779
3.46661
3.3175
3.19036
3.06418
2.93655
2.80789
2.70608
2.60737
2.50728
2.39833
2.30883
2.22661
2.13674
2.16362
2.48176
3.17453
3.5542
3.541
3.44516
3.33702
3.24499
3.16652
3.09244
3.00932
2.91297
2.81771
2.73774
2.66982
2.60855
2.5534
2.50346
2.4548
2.40136
2.33428
2.25451
2.18403
2.13306
2.0927
2.05734
2.02496
1.99156
1.94943
1.89389
1.83297
1.78251
1.746
1.71765
1.69292
1.66872
1.64214
1.60982
1.57261
1.53874
1.50956
1.47807
1.4404
1.40094
1.37186
1.35135
1.3335
1.32026
1.31267
1.30363
1.29102
1.27167
1.25472
1.249
1.25126
1.2556
1.26662
1.27253
1.28008
1.29308
1.30702
1.32776
1.36344
1.40509
1.44121
1.49763
1.58798
1.71387
1.83566
1.90145
1.97806
2.00533
1.9939
1.99101
1.98898
1.98523
1.97596
1.93708
4.10886
4.16811
4.0225
3.85606
3.70827
3.55381
3.41006
3.28336
3.15683
3.02111
2.89777
2.79939
2.69433
2.59004
2.47811
2.3944
2.29725
2.34656
2.81245
3.56799
3.90666
3.85235
3.69858
3.55612
3.45564
3.37562
3.29438
3.2057
3.11069
3.01135
2.91451
2.82948
2.75615
2.68955
2.62755
2.56957
2.51408
2.45808
2.39595
2.32494
2.25519
2.19718
2.14814
2.10245
2.05839
2.01851
1.98094
1.93832
1.89148
1.84651
1.80613
1.77051
1.73758
1.70394
1.66707
1.62911
1.59644
1.57077
1.54746
1.52144
1.49087
1.45888
1.42828
1.395
1.3594
1.32841
1.30737
1.29741
1.29096
1.27441
1.25373
1.24207
1.22728
1.21283
1.20101
1.1897
1.18796
1.19153
1.20117
1.21694
1.23865
1.26853
1.2915
1.29937
1.31422
1.36692
1.47772
1.57523
1.67112
1.78799
1.88439
1.90765
1.91915
1.93631
1.94798
1.93228
3.3331
4.12503
4.10432
3.9588
3.79596
3.64343
3.50681
3.37661
3.24574
3.10728
2.99243
2.88962
2.78129
2.66398
2.56509
2.47026
2.56245
3.13621
3.97696
4.21868
4.10211
3.94219
3.79958
3.6788
3.58669
3.49779
3.40153
3.30179
3.20196
3.10026
2.99888
2.90751
2.83054
2.76326
2.70041
2.63886
2.57684
2.5141
2.45097
2.38776
2.32546
2.26593
2.21021
2.15708
2.1044
2.05189
2.00283
1.96025
1.92354
1.88696
1.84756
1.80889
1.77397
1.74124
1.70922
1.67781
1.64444
1.60683
1.56884
1.53365
1.50464
1.48286
1.46259
1.43803
1.40901
1.37409
1.33373
1.29974
1.28164
1.27574
1.26946
1.25359
1.22968
1.21087
1.19352
1.17266
1.1525
1.14016
1.13652
1.13841
1.14371
1.1599
1.18578
1.19503
1.18994
1.19117
1.22291
1.28332
1.33961
1.43179
1.55509
1.65639
1.74078
1.78492
1.8378
1.87139
2.00425
3.57343
4.09221
4.05659
3.90381
3.73259
3.59708
3.47103
3.33869
3.2011
3.08833
2.97875
2.86435
2.75147
2.65704
2.82728
3.57439
4.31399
4.5992
4.4822
4.26843
4.064
3.91219
3.79673
3.69388
3.59454
3.49572
3.39792
3.3003
3.19854
3.09248
2.99249
2.90707
2.83317
2.76612
2.70179
2.6367
2.57107
2.50756
2.44711
2.38799
2.32859
2.26878
2.2093
2.15067
2.09356
2.04216
1.99968
1.96348
1.92911
1.89196
1.84734
1.79527
1.74979
1.72233
1.70299
1.68087
1.65191
1.61934
1.58134
1.53296
1.49219
1.46743
1.45198
1.43754
1.41519
1.38099
1.33869
1.30114
1.27565
1.2613
1.25361
1.24492
1.22889
1.20253
1.17355
1.14881
1.12673
1.1125
1.10851
1.10798
1.11158
1.11511
1.11574
1.11376
1.09997
1.09792
1.11775
1.14042
1.16834
1.23107
1.31737
1.40023
1.48562
1.56778
1.6889
1.44923
2.2515
3.70931
4.05874
4.01346
3.84972
3.6963
3.56012
3.42475
3.29494
3.19061
3.06725
2.94794
2.86872
3.12382
4.09165
4.74598
4.82702
4.73349
4.56081
4.39217
4.21535
4.05327
3.91717
3.79825
3.69225
3.59326
3.49596
3.39636
3.29067
3.18159
3.07946
2.98947
2.90785
2.83138
2.75908
2.68917
2.62128
2.55657
2.49544
2.43681
2.37882
2.3195
2.25838
2.19771
2.13967
2.08488
2.03463
1.99163
1.95663
1.92471
1.8882
1.84397
1.79579
1.74801
1.70969
1.68467
1.66733
1.6498
1.62058
1.57718
1.53303
1.49429
1.46184
1.43556
1.41866
1.40329
1.37792
1.34496
1.3118
1.2815
1.25638
1.23937
1.23008
1.21883
1.19571
1.16172
1.13125
1.11205
1.10099
1.09633
1.09241
1.08671
1.08313
1.07672
1.05505
1.03136
1.03051
1.03788
1.04846
1.07048
1.10968
1.15389
1.19637
1.23619
1.36666
1.40082
1.49761
2.46958
3.78652
4.025
3.96406
3.81263
3.65985
3.51422
3.40207
3.27082
3.15558
3.10912
3.51475
4.53448
5.269
5.32306
5.10105
4.8376
4.64302
4.49872
4.34862
4.19371
4.04848
3.91686
3.79821
3.68903
3.58382
3.47778
3.36946
3.26366
3.16643
3.07658
2.98918
2.90246
2.81863
2.74003
2.66743
2.60014
2.53742
2.47879
2.42272
2.36629
2.30652
2.24441
2.18463
2.12976
2.07998
2.03325
1.98514
1.93642
1.89621
1.86476
1.83033
1.79017
1.75204
1.71734
1.68098
1.64445
1.61738
1.59769
1.56907
1.53033
1.49155
1.45973
1.43279
1.40969
1.39421
1.37518
1.34584
1.31122
1.28192
1.26099
1.24048
1.21705
1.19675
1.17756
1.15205
1.12695
1.10753
1.09742
1.08877
1.07844
1.0677
1.05751
1.04122
1.01261
0.99982
0.995392
0.995098
0.999235
1.01058
1.02617
1.04145
1.0485
1.08994
1.40001
1.40226
1.55808
2.65018
3.8273
3.98185
3.92
3.77073
3.61865
3.48799
3.34601
3.38474
3.97376
5.17754
5.60134
5.54912
5.41892
5.2286
4.99633
4.78564
4.61785
4.46563
4.31719
4.17249
4.0344
3.9037
3.77964
3.66011
3.54337
3.43113
3.32837
3.23558
3.14752
3.05933
2.96911
2.87815
2.78954
2.70751
2.63495
2.57134
2.51444
2.46115
2.40838
2.35137
2.28577
2.21661
2.15573
2.10749
2.06664
2.02462
1.97636
1.92292
1.87333
1.83933
1.81183
1.77881
1.74252
1.70612
1.67024
1.63191
1.59179
1.56612
1.54845
1.52218
1.48737
1.45713
1.42741
1.39103
1.36258
1.34239
1.32198
1.30224
1.28126
1.25971
1.23707
1.20498
1.16871
1.15265
1.13932
1.1218
1.1076
1.09616
1.08316
1.0664
1.04587
1.02715
1.00598
0.996003
0.990095
0.981403
0.974533
0.973069
0.972607
0.969533
0.962348
0.961902
1.40001
1.40002
1.40483
1.62468
2.79306
3.82643
3.9506
3.88066
3.73663
3.55481
3.62249
4.53323
5.75167
6.22552
6.10805
5.70915
5.46968
5.31048
5.13473
4.93903
4.74518
4.56744
4.40992
4.26623
4.12942
3.99573
3.8632
3.73135
3.60366
3.48656
3.38323
3.29025
3.20174
3.11396
3.02469
2.93315
2.83988
2.74971
2.67114
2.60616
2.55
2.49629
2.44115
2.38415
2.3214
2.25136
2.18291
2.12502
2.07854
2.04118
2.00491
1.96018
1.90728
1.8591
1.82875
1.80767
1.78034
1.74293
1.6998
1.65477
1.61691
1.5836
1.55233
1.53426
1.51852
1.491
1.45284
1.40369
1.37043
1.36165
1.3537
1.33736
1.31598
1.29191
1.26425
1.22786
1.18537
1.16266
1.15502
1.14955
1.13943
1.1238
1.10244
1.07112
1.03837
1.02169
1.018
1.01032
0.99752
0.980295
0.964569
0.956072
0.950859
0.9439
0.937066
0.924492
1.40001
1.40001
1.40004
1.40862
1.69037
2.87281
3.829
3.90731
3.80899
3.8882
5.00858
6.39004
6.56215
6.39622
6.20416
5.88746
5.59327
5.39566
5.22368
5.04226
4.85246
4.66607
4.49392
4.33983
4.19915
4.06492
3.93096
3.79515
3.66253
3.54103
3.43319
3.33574
3.24403
3.15463
3.06539
2.97402
2.87876
2.78344
2.69956
2.63436
2.5814
2.53079
2.47334
2.40569
2.33146