/*--------------------------------*- C++ -*----------------------------------*\
  =========                 |
  \\      /  F ield         | OpenFOAM: The Open Source CFD Toolbox
   \\    /   O peration     | Website:  https://openfoam.org
    \\  /    A nd           | Version:  7
     \\/     M anipulation  |
\*---------------------------------------------------------------------------*/
FoamFile
{
    version     2.0;
    format      ascii;
    class       volVectorField;
    location    "2";
    object      U;
}
// * * * * * * * * * * * * * * * * * * * * * * * * * * * * * * * * * * * * * //

dimensions      [0 1 -1 0 0 0 0];

internalField   nonuniform List<vector> 
4032
(
(3 -1.71442e-17 0)
(3 8.10999e-17 0)
(3 6.60596e-17 0)
(3 -4.41289e-17 0)
(3 -4.8232e-17 0)
(3 6.80658e-16 0)
(3 8.03308e-16 0)
(3 3.96718e-16 0)
(3 2.57293e-16 0)
(3 3.40864e-16 0)
(3 2.63487e-16 0)
(3 -3.19708e-16 0)
(1.33909 0.0154147 0)
(0.731124 0.0155308 0)
(0.667731 0.0228836 0)
(0.612998 0.0253315 0)
(0.55472 0.0267148 0)
(0.49587 0.0282313 0)
(0.434051 0.0303223 0)
(0.36778 0.0326076 0)
(0.296387 0.0350869 0)
(0.218807 0.0384211 0)
(0.135107 0.0406904 0)
(0.0496072 0.0446364 0)
(3 6.9479e-17 0)
(3 3.90095e-16 0)
(3 3.19305e-16 0)
(3 1.42739e-16 0)
(3 4.03706e-16 0)
(3 8.79368e-16 0)
(3 6.73391e-16 0)
(3 1.0638e-16 0)
(3 5.44392e-16 0)
(3 4.71505e-16 0)
(3 2.37725e-16 0)
(3 -1.11272e-15 0)
(1.36855 0.0725886 0)
(0.724234 0.0647877 0)
(0.65283 0.0710065 0)
(0.596305 0.0760418 0)
(0.536659 0.0789798 0)
(0.477174 0.0830388 0)
(0.415716 0.0892914 0)
(0.35115 0.096766 0)
(0.28283 0.105444 0)
(0.209392 0.11727 0)
(0.129288 0.12585 0)
(0.0476741 0.138046 0)
(3 -2.31851e-18 0)
(3 2.00546e-16 0)
(3 3.30406e-17 0)
(3 3.7986e-16 0)
(3 4.54612e-16 0)
(3 3.21092e-16 0)
(3 -3.39238e-16 0)
(3 3.64218e-16 0)
(3 1.07579e-15 0)
(3 1.01605e-15 0)
(3 8.08134e-16 0)
(3 4.07225e-16 0)
(1.46044 0.129284 0)
(0.736348 0.116349 0)
(0.656139 0.123497 0)
(0.596636 0.131154 0)
(0.533793 0.135506 0)
(0.471761 0.141408 0)
(0.408413 0.150297 0)
(0.342829 0.160809 0)
(0.274567 0.173169 0)
(0.203176 0.191925 0)
(0.124818 0.206312 0)
(0.0463586 0.225916 0)
(3 -9.27523e-17 0)
(3 -3.43185e-16 0)
(3 -4.22581e-16 0)
(3 -4.16139e-16 0)
(3 -1.42862e-16 0)
(3 1.50424e-17 0)
(3 1.33539e-16 0)
(3 6.39276e-16 0)
(3 6.05699e-16 0)
(3 6.76807e-16 0)
(3 9.72151e-16 0)
(3 1.57852e-15 0)
(1.6097 0.182044 0)
(0.756391 0.171804 0)
(0.667057 0.176937 0)
(0.608807 0.186886 0)
(0.546162 0.192628 0)
(0.484067 0.200798 0)
(0.419722 0.213171 0)
(0.351894 0.227782 0)
(0.280433 0.243829 0)
(0.207288 0.268832 0)
(0.126892 0.289227 0)
(0.0461795 0.314253 0)
(3 1.54417e-16 0)
(3 -5.36562e-17 0)
(3 2.2338e-16 0)
(3 -2.17661e-16 0)
(3 1.75723e-16 0)
(3 7.326e-17 0)
(3 1.25616e-16 0)
(3 2.74214e-16 0)
(3 2.79925e-16 0)
(3 1.454e-16 0)
(3 7.94813e-16 0)
(3 1.65932e-15 0)
(1.82672 0.226068 0)
(0.787042 0.230477 0)
(0.679612 0.228061 0)
(0.622464 0.241162 0)
(0.558673 0.249866 0)
(0.495292 0.26148 0)
(0.430364 0.278015 0)
(0.363908 0.297144 0)
(0.294384 0.316348 0)
(0.223706 0.347109 0)
(0.141092 0.376226 0)
(0.0537191 0.409786 0)
(3 -7.4081e-17 0)
(3 2.71142e-16 0)
(3 1.55076e-16 0)
(3 3.22101e-16 0)
(3 2.59573e-16 0)
(3 3.52838e-17 0)
(3 1.52332e-16 0)
(3 2.766e-16 0)
(3 2.77809e-16 0)
(3 3.0713e-16 0)
(3 9.87172e-16 0)
(3 -1.34084e-15 0)
(2.107 0.266295 0)
(0.821197 0.303055 0)
(0.682001 0.286372 0)
(0.631216 0.300541 0)
(0.573662 0.311893 0)
(0.514848 0.326157 0)
(0.453454 0.345241 0)
(0.389267 0.367631 0)
(0.31778 0.39259 0)
(0.241681 0.433821 0)
(0.154144 0.480131 0)
(0.0526782 0.522965 0)
(3 -4.97757e-17 0)
(3 -1.51388e-16 0)
(3 -1.69761e-16 0)
(3 6.24322e-16 0)
(3 7.49317e-16 0)
(3 1.15062e-15 0)
(3 5.27879e-16 0)
(3 2.3744e-16 0)
(3 1.87688e-16 0)
(3 3.01234e-16 0)
(3 2.29759e-16 0)
(3 -1.42634e-15 0)
(2.51215 0.286801 0)
(0.915234 0.386745 0)
(0.737109 0.335886 0)
(0.69057 0.346605 0)
(0.634109 0.364563 0)
(0.574507 0.385553 0)
(0.511998 0.410055 0)
(0.4457 0.440231 0)
(0.376373 0.47358 0)
(0.306169 0.522809 0)
(0.222154 0.584646 0)
(0.0990888 0.658438 0)
(3 1.07564e-16 0)
(3 2.6866e-16 0)
(3 4.83634e-16 0)
(3 6.68693e-16 0)
(3 9.80046e-16 0)
(3 5.54318e-16 0)
(3 1.7885e-16 0)
(3 1.14543e-16 0)
(3 3.73418e-16 0)
(3 3.11589e-17 0)
(3 -1.5211e-16 0)
(3 -6.6933e-16 0)
(2.98196 0.114659 0)
(1.09091 0.42294 0)
(0.821475 0.366053 0)
(0.772799 0.386163 0)
(0.715882 0.412424 0)
(0.658147 0.44051 0)
(0.5961 0.470704 0)
(0.533127 0.508825 0)
(0.465173 0.546884 0)
(0.392773 0.617776 0)
(0.274964 0.742642 0)
(0.151493 0.918736 0)
(3 -1.80487e-17 0)
(3 4.64699e-17 0)
(3 -2.69456e-17 0)
(3 -3.13366e-16 0)
(3 -3.81911e-16 0)
(3 -4.26708e-16 0)
(3 1.64017e-16 0)
(3 6.8717e-16 0)
(3 9.53623e-16 0)
(3 6.06631e-16 0)
(3 7.94318e-16 0)
(3 5.59174e-16 0)
(3.02783 0.0057483 0)
(1.27149 0.406625 0)
(0.844872 0.428299 0)
(0.79049 0.454384 0)
(0.73491 0.477034 0)
(0.690357 0.507079 0)
(0.644816 0.542113 0)
(0.603969 0.58616 0)
(0.551879 0.634246 0)
(0.505359 0.736476 0)
(0.472926 0.905528 0)
(0.584948 1.1873 0)
(3 -1.79382e-16 0)
(3 -7.2985e-16 0)
(3 -4.83614e-16 0)
(3 -2.45518e-16 0)
(3 -2.36765e-16 0)
(3 2.88591e-16 0)
(3 1.20144e-15 0)
(3 1.20668e-15 0)
(3 1.33692e-15 0)
(3 1.58377e-15 0)
(3 1.30768e-15 0)
(3 6.53466e-16 0)
(3.00059 -5.64705e-06 0)
(1.57386 0.441653 0)
(0.83915 0.474738 0)
(0.78296 0.49956 0)
(0.750057 0.523742 0)
(0.720904 0.550653 0)
(0.695891 0.586356 0)
(0.676742 0.63555 0)
(0.655144 0.700198 0)
(0.645345 0.811677 0)
(0.703348 0.952238 0)
(0.981079 1.12407 0)
(3 -2.19949e-16 0)
(3 -3.11326e-17 0)
(3 7.57405e-17 0)
(3 3.72896e-16 0)
(3 2.54459e-16 0)
(3 4.24881e-16 0)
(3 1.058e-15 0)
(3 1.40746e-15 0)
(3 1.66808e-15 0)
(3 1.942e-15 0)
(3 1.24516e-15 0)
(3 1.02142e-15 0)
(3 -5.20844e-08 0)
(2.1664 0.466736 0)
(0.921081 0.565207 0)
(0.819368 0.527458 0)
(0.800793 0.550852 0)
(0.774013 0.58082 0)
(0.757999 0.619391 0)
(0.749362 0.672008 0)
(0.75825 0.744612 0)
(0.783514 0.844139 0)
(0.895411 0.952897 0)
(1.19198 1.05201 0)
(3 -8.14269e-17 0)
(3 4.38998e-16 0)
(3 2.52266e-16 0)
(3 2.21367e-16 0)
(3 7.47749e-17 0)
(3 2.69708e-16 0)
(3 7.50337e-16 0)
(3 1.14032e-15 0)
(3 2.27466e-15 0)
(3 2.94557e-15 0)
(3 2.86614e-15 0)
(3 2.88909e-15 0)
(3 -3.77187e-08 0)
(2.95328 0.202502 0)
(1.14905 0.60012 0)
(0.915521 0.543505 0)
(0.88635 0.579586 0)
(0.854235 0.612464 0)
(0.831724 0.649178 0)
(0.824183 0.698566 0)
(0.846509 0.766257 0)
(0.900441 0.852834 0)
(1.03877 0.942319 0)
(1.29274 1.00194 0)
(3 7.24157e-17 0)
(3 -3.72827e-17 0)
(3 -1.4574e-17 0)
(3 -4.44984e-16 0)
(3 -1.26585e-16 0)
(3 9.30254e-17 0)
(3 1.02608e-15 0)
(3 8.56552e-16 0)
(3 1.68628e-15 0)
(3 2.76208e-15 0)
(3 3.25965e-15 0)
(3 2.90992e-15 0)
(3 -7.2064e-09 0)
(3.04808 0.00827845 0)
(1.43401 0.580014 0)
(0.952758 0.63286 0)
(0.901814 0.640727 0)
(0.883795 0.663645 0)
(0.877297 0.691155 0)
(0.88722 0.727679 0)
(0.920063 0.778222 0)
(0.989479 0.845657 0)
(1.12924 0.912266 0)
(1.33538 0.950318 0)
(3 2.03281e-16 0)
(3 -1.5894e-16 0)
(3 -1.22745e-16 0)
(3 -2.03427e-16 0)
(3 3.19934e-16 0)
(3 7.17677e-16 0)
(3 1.25742e-15 0)
(3 1.66754e-15 0)
(3 1.2696e-15 0)
(3 1.41881e-15 0)
(3 2.05334e-15 0)
(3 1.9622e-15 0)
(3 -6.67443e-10 0)
(3.00114 1.14919e-06 0)
(2.05784 0.57307 0)
(1.02834 0.710954 0)
(0.952328 0.677805 0)
(0.937359 0.682692 0)
(0.93499 0.703025 0)
(0.952043 0.736233 0)
(0.99043 0.780612 0)
(1.06462 0.835611 0)
(1.19163 0.885072 0)
(1.36092 0.911169 0)
(3 9.25739e-17 0)
(3 2.71067e-16 0)
(3 2.09657e-16 0)
(3 6.07857e-16 0)
(3 6.06729e-16 0)
(3 7.61719e-16 0)
(3 6.45373e-16 0)
(3 8.66906e-16 0)
(3 8.22942e-16 0)
(3 3.40169e-16 0)
(3 8.21475e-16 0)
(3 1.39023e-15 0)
(3 -8.21178e-12 0)
(3.00002 -7.59851e-06 0)
(2.99773 0.18257 0)
(1.28085 0.689089 0)
(1.04362 0.697736 0)
(1.0301 0.698059 0)
(1.02061 0.723748 0)
(1.02809 0.752026 0)
(1.06068 0.789915 0)
(1.12871 0.829273 0)
(1.23559 0.861816 0)
(1.37366 0.876325 0)
(3 -3.03983e-16 0)
(3 -3.4271e-16 0)
(3 -1.7893e-16 0)
(3 -1.41481e-16 0)
(3 -4.13669e-16 0)
(3 -7.03076e-16 0)
(3 -7.56395e-16 0)
(3 -3.88556e-16 0)
(3 2.11866e-16 0)
(3 4.30149e-16 0)
(3 2.90317e-16 0)
(3 1.27002e-15 0)
(3 -1.79901e-14 0)
(3 -2.18465e-06 0)
(3.03434 0.00386561 0)
(1.58375 0.654676 0)
(1.06907 0.752849 0)
(1.0582 0.754814 0)
(1.06452 0.772234 0)
(1.0847 0.786809 0)
(1.11878 0.804642 0)
(1.18228 0.827517 0)
(1.2731 0.846929 0)
(1.38719 0.855747 0)
(3 4.31323e-18 0)
(3 5.66353e-17 0)
(3 3.28821e-18 0)
(3 -2.87024e-16 0)
(3 -1.00827e-15 0)
(3 -1.13622e-15 0)
(3 -4.04284e-16 0)
(3 -9.4704e-17 0)
(3 -4.99742e-16 0)
(3 -4.77071e-16 0)
(3 -7.34626e-16 0)
(3 -1.71558e-16 0)
(3 -7.40803e-16 0)
(3 -1.8956e-07 0)
(3.00053 1.4449e-05 0)
(2.43044 0.493376 0)
(1.18471 0.784092 0)
(1.09308 0.782728 0)
(1.11461 0.788513 0)
(1.13759 0.80077 0)
(1.17219 0.815336 0)
(1.22905 0.829341 0)
(1.30865 0.840457 0)
(1.40395 0.844381 0)
(3 1.26139e-16 0)
(3 1.50609e-16 0)
(3 5.35146e-16 0)
(3 3.68712e-16 0)
(3 5.82775e-16 0)
(3 9.25049e-16 0)
(3 9.10731e-16 0)
(3 -3.68223e-16 0)
(3 -1.51062e-15 0)
(3 -1.78426e-15 0)
(3 -1.40982e-15 0)
(3 -1.64278e-15 0)
(3 -1.54156e-15 0)
(3 -1.40722e-09 0)
(3.00003 -1.05371e-05 0)
(3.06301 0.0650448 0)
(1.53642 0.766877 0)
(1.15352 0.790271 0)
(1.17752 0.798603 0)
(1.19234 0.813939 0)
(1.22668 0.823796 0)
(1.27575 0.833231 0)
(1.34414 0.839205 0)
(1.42322 0.840246 0)
(3 -1.40033e-17 0)
(3 -3.44309e-17 0)
(3 4.07743e-16 0)
(3 6.41418e-16 0)
(3 1.49478e-15 0)
(3 1.77242e-15 0)
(3 5.99162e-16 0)
(3 2.87188e-17 0)
(3 1.2855e-16 0)
(3 -9.84795e-16 0)
(3 -9.68175e-16 0)
(3 -1.09681e-15 0)
(3 -1.18423e-15 0)
(3 -2.65467e-12 0)
(3 -2.52847e-06 0)
(3.00715 0.00109656 0)
(2.26032 0.636612 0)
(1.23735 0.855457 0)
(1.2051 0.840792 0)
(1.23408 0.840097 0)
(1.26817 0.843842 0)
(1.31711 0.846756 0)
(1.37646 0.847517 0)
(1.44483 0.843444 0)
(3 3.07443e-17 0)
(3 -1.0031e-16 0)
(3 -3.9928e-16 0)
(3 -1.15188e-16 0)
(3 -1.83556e-16 0)
(3 -1.5967e-16 0)
(3 4.20623e-16 0)
(3 9.43024e-16 0)
(3 1.09753e-15 0)
(3 2.65354e-16 0)
(3 -5.59021e-16 0)
(3 -8.73183e-16 0)
(3 -7.44437e-16 0)
(3 -1.0055e-15 0)
(3 -2.2387e-07 0)
(3.00002 5.57061e-06 0)
(3.03618 0.123166 0)
(1.60188 0.8313 0)
(1.25289 0.834815 0)
(1.28651 0.838387 0)
(1.31489 0.84445 0)
(1.36006 0.84734 0)
(1.41154 0.84836 0)
(1.47282 0.843454 0)
(3 -1.76105e-16 0)
(3 -1.6265e-16 0)
(3 -1.99607e-16 0)
(3 -1.95549e-16 0)
(3 -8.96424e-16 0)
(3 -1.10688e-15 0)
(3 -3.60175e-16 0)
(3 9.12029e-16 0)
(3 1.18958e-15 0)
(3 1.29224e-15 0)
(3 3.1954e-16 0)
(3 -6.68486e-16 0)
(3 -4.83953e-16 0)
(3 5.60685e-16 0)
(3 -2.39182e-09 0)
(3 -1.73566e-07 0)
(3.01098 0.00352395 0)
(2.34499 0.649495 0)
(1.33763 0.891709 0)
(1.30597 0.878789 0)
(1.34289 0.872614 0)
(1.3833 0.870941 0)
(1.43109 0.868154 0)
(1.48774 0.860807 0)
(3 -2.53985e-17 0)
(3 -7.7055e-17 0)
(3 4.61056e-17 0)
(3 -7.69482e-16 0)
(3 -1.04071e-15 0)
(3 -1.33816e-15 0)
(3 -1.22037e-15 0)
(3 -9.02549e-16 0)
(3 1.89598e-16 0)
(3 4.0262e-16 0)
(3 2.85958e-17 0)
(3 -2.14966e-16 0)
(3 -3.13291e-16 0)
(3 2.36969e-16 0)
(3 -4.73396e-12 0)
(3 -3.73088e-08 0)
(3.00005 3.9459e-05 0)
(3.03176 0.110899 0)
(1.73728 0.844844 0)
(1.34236 0.882133 0)
(1.38549 0.876826 0)
(1.41715 0.873898 0)
(1.45981 0.868578 0)
(1.5104 0.861147 0)
(3 3.3829e-17 0)
(3 2.92064e-16 0)
(3 -4.84637e-16 0)
(3 -1.20187e-15 0)
(3 -8.42372e-16 0)
(3 -1.0314e-15 0)
(3 -1.39715e-15 0)
(3 -1.30651e-15 0)
(3 -8.82398e-16 0)
(3 -3.17027e-16 0)
(3 6.21041e-16 0)
(3 7.06694e-16 0)
(3 1.66316e-16 0)
(3 -1.38698e-16 0)
(3 -2.77995e-15 0)
(3 -2.95916e-09 0)
(3 1.88121e-08 0)
(3.00654 0.00434913 0)
(2.59645 0.548038 0)
(1.47832 0.937388 0)
(1.40879 0.90849 0)
(1.44429 0.899311 0)
(1.48007 0.890735 0)
(1.52343 0.880855 0)
(3 5.7083e-17 0)
(3 7.99542e-17 0)
(3 -3.61634e-16 0)
(3 -2.02522e-16 0)
(3 -2.21266e-16 0)
(3 -5.98491e-16 0)
(3 -7.21198e-16 0)
(3 -6.3688e-16 0)
(3 -9.73017e-16 0)
(3 -3.8914e-16 0)
(3 1.39608e-16 0)
(3 2.19966e-16 0)
(3 1.32561e-15 0)
(3 -1.7794e-16 0)
(3 -2.24438e-15 0)
(3 -9.0437e-11 0)
(3 -8.68702e-11 0)
(3.00002 4.26483e-05 0)
(3.03693 0.0571622 0)
(1.98821 0.808751 0)
(1.46215 0.922518 0)
(1.4859 0.911778 0)
(1.51457 0.89946 0)
(1.55023 0.887139 0)
(3 -1.57317e-16 0)
(3 -3.01114e-16 0)
(3 -7.66811e-17 0)
(3 1.2153e-16 0)
(3 2.65696e-16 0)
(3 6.08398e-16 0)
(3 7.65017e-16 0)
(3 -1.56477e-17 0)
(3 -7.12183e-16 0)
(3 -7.72993e-16 0)
(3 1.60727e-16 0)
(3 8.73587e-16 0)
(3 5.98985e-16 0)
(3 -7.38268e-16 0)
(3 -1.37751e-15 0)
(3 -5.94145e-13 0)
(3 -2.57203e-11 0)
(3 2.87489e-08 0)
(3.00185 0.00240328 0)
(2.82188 0.331325 0)
(1.72326 0.914313 0)
(1.50328 0.935531 0)
(1.54502 0.923642 0)
(1.57731 0.910458 0)
(3 -1.03965e-16 0)
(3 6.90376e-17 0)
(3 2.23982e-16 0)
(3 5.0924e-16 0)
(3 6.61388e-16 0)
(3 5.47344e-16 0)
(3 1.41925e-16 0)
(3 -3.03088e-16 0)
(3 -4.86683e-16 0)
(3 -5.63242e-16 0)
(3 2.58855e-16 0)
(3 9.65345e-16 0)
(3 2.27676e-17 0)
(3 -9.2041e-16 0)
(3 4.75864e-17 0)
(3 -7.89925e-16 0)
(3 -2.95819e-12 0)
(3 1.64807e-12 0)
(3 1.19713e-05 0)
(3.01006 0.0232377 0)
(2.40531 0.661619 0)
(1.59282 0.961661 0)
(1.56046 0.952089 0)
(1.59509 0.934272 0)
(3 2.31409e-16 0)
(3 1.02143e-15 0)
(3 6.98649e-16 0)
(3 6.22503e-16 0)
(3 -6.256e-16 0)
(3 -1.04005e-15 0)
(3 -1.57161e-15 0)
(3 -1.30815e-15 0)
(3 -9.42882e-16 0)
(3 -5.54906e-16 0)
(3 2.22505e-16 0)
(3 8.85239e-16 0)
(3 5.48397e-16 0)
(3 5.209e-16 0)
(3 5.5045e-16 0)
(3 2.85555e-17 0)
(3 -1.48689e-13 0)
(3 -1.42067e-13 0)
(3 6.07359e-09 0)
(3.00008 0.000658315 0)
(2.98579 0.121995 0)
(2.04555 0.821363 0)
(1.62149 0.954598 0)
(1.62188 0.948628 0)
(3 -7.54037e-17 0)
(3 -2.55114e-16 0)
(3 -1.03361e-16 0)
(3 7.87005e-17 0)
(3 -3.00379e-16 0)
(3 -8.70949e-16 0)
(3 -8.64028e-16 0)
(3 -6.70234e-16 0)
(3 -5.7633e-16 0)
(3 -6.22467e-16 0)
(3 4.41483e-19 0)
(3 4.38642e-16 0)
(3 5.31576e-16 0)
(3 1.21911e-15 0)
(3 1.24924e-15 0)
(3 2.83928e-16 0)
(3 -1.9426e-15 0)
(3 -4.30735e-14 0)
(3 1.38068e-12 0)
(3 1.47249e-06 0)
(3.00142 0.00668807 0)
(2.78907 0.341309 0)
(1.87656 0.901438 0)
(1.65484 0.96728 0)
(3 -1.85334e-16 0)
(3 -6.52018e-16 0)
(3 -4.3315e-16 0)
(3 -1.40101e-16 0)
(3 4.71297e-16 0)
(3 3.06091e-16 0)
(3 -6.64222e-17 0)
(3 -2.02195e-16 0)
(3 -2.85008e-16 0)
(3 -4.9901e-16 0)
(3 -3.67073e-16 0)
(3 -1.17124e-15 0)
(3 -3.67361e-16 0)
(3 2.47867e-16 0)
(3 6.17579e-16 0)
(3 1.25339e-15 0)
(3 2.99651e-16 0)
(3 -4.96271e-15 0)
(3 -4.05722e-15 0)
(3 7.97662e-10 0)
(2.99999 5.94733e-05 0)
(3.00037 0.0278582 0)
(2.51115 0.561626 0)
(1.8124 0.949487 0)
(3 1.42479e-16 0)
(3 -6.21548e-18 0)
(3 -9.9134e-17 0)
(3 -1.98263e-17 0)
(3 2.1461e-16 0)
(3 1.03444e-16 0)
(3 -5.04695e-16 0)
(3 -5.68736e-16 0)
(3 -4.99276e-16 0)
(3 -6.80216e-16 0)
(3 -9.50638e-16 0)
(3 -2.03333e-15 0)
(3 -1.76456e-15 0)
(3 -1.1165e-15 0)
(3 -7.84615e-16 0)
(3 -1.15062e-16 0)
(3 -6.98189e-17 0)
(3 -5.2958e-17 0)
(3 -1.46771e-15 0)
(3 1.34766e-13 0)
(3 6.04573e-08 0)
(2.99994 0.000755736 0)
(2.97251 0.0819611 0)
(2.30474 0.713776 0)
(3 1.95123e-16 0)
(3 1.19688e-17 0)
(3 -7.24639e-17 0)
(3 3.84102e-16 0)
(3 3.61391e-16 0)
(3 2.84687e-16 0)
(3 -2.44365e-17 0)
(3 -1.13957e-15 0)
(3 -1.25256e-15 0)
(3 -1.40387e-15 0)
(3 -1.67437e-15 0)
(3 -1.54827e-15 0)
(3 -5.63623e-16 0)
(3 -5.48156e-16 0)
(3 -1.47979e-15 0)
(3 -1.82528e-15 0)
(3 2.89441e-16 0)
(3 9.4967e-16 0)
(3 3.42447e-17 0)
(3 -9.32337e-16 0)
(3 2.63939e-11 0)
(3 1.79528e-06 0)
(2.99963 0.00385605 0)
(2.89721 0.190364 0)
(3 1.09558e-18 0)
(3 8.791e-17 0)
(3 3.94365e-16 0)
(3 4.36828e-17 0)
(3 4.52161e-16 0)
(3 9.24309e-16 0)
(3 1.59628e-15 0)
(3 6.15152e-16 0)
(3 -2.54416e-16 0)
(3 -4.94862e-16 0)
(3 -3.73218e-16 0)
(3 5.45185e-16 0)
(3 1.00489e-15 0)
(3 3.08548e-16 0)
(3 -6.43264e-16 0)
(3 -9.33907e-16 0)
(3 -4.56608e-16 0)
(3 1.29794e-15 0)
(3 1.30229e-15 0)
(3 6.28006e-16 0)
(3 2.63602e-15 0)
(3 1.44188e-09 0)
(2.99999 2.16937e-05 0)
(2.99759 0.0122477 0)
(3 -2.91026e-16 0)
(3 9.60848e-18 0)
(3 1.32674e-16 0)
(3 -3.66542e-16 0)
(3 -3.08828e-16 0)
(3 5.29432e-16 0)
(3 1.00277e-15 0)
(3 1.24087e-15 0)
(3 1.14211e-15 0)
(3 1.19223e-15 0)
(3 1.01086e-15 0)
(3 1.29388e-15 0)
(3 1.48734e-15 0)
(3 9.37621e-16 0)
(3 -2.66731e-17 0)
(3 -1.23823e-16 0)
(3 9.57542e-17 0)
(3 7.96225e-16 0)
(3 1.44431e-15 0)
(3 1.36396e-15 0)
(3 6.72855e-16 0)
(3 2.17543e-13 0)
(3 2.49811e-08 0)
(2.99996 0.000151769 0)
(3 -1.58578e-17 0)
(3 -3.77184e-17 0)
(3 -3.43195e-16 0)
(3 -2.66916e-16 0)
(3 -1.15277e-16 0)
(3 4.41071e-16 0)
(3 4.37477e-16 0)
(3 1.06619e-15 0)
(3 1.40943e-15 0)
(3 1.07197e-15 0)
(3 7.76625e-16 0)
(3 1.06016e-15 0)
(3 1.19692e-15 0)
(3 9.29369e-16 0)
(3 7.10153e-16 0)
(3 1.30514e-15 0)
(3 1.90591e-15 0)
(3 1.91431e-15 0)
(3 1.81107e-15 0)
(3 9.2435e-16 0)
(3 -5.93058e-17 0)
(3 3.00161e-16 0)
(3 7.8988e-12 0)
(3 2.56516e-07 0)
(3 2.44959e-17 0)
(3 -5.4573e-17 0)
(3 -2.21257e-16 0)
(3 2.39639e-17 0)
(3 1.35818e-16 0)
(3 1.06076e-16 0)
(3 4.64356e-16 0)
(3 4.41049e-16 0)
(3 1.79041e-16 0)
(3 -1.92997e-16 0)
(3 -1.67873e-16 0)
(3 1.84496e-16 0)
(3 1.31186e-15 0)
(3 1.92237e-15 0)
(3 2.0802e-15 0)
(3 2.08613e-15 0)
(3 2.00207e-15 0)
(3 1.11133e-15 0)
(3 8.44131e-16 0)
(3 1.54406e-16 0)
(3 -1.36241e-16 0)
(3 -5.15663e-16 0)
(3 8.10524e-17 0)
(3 1.50545e-10 0)
(3 5.07168e-17 0)
(3 -5.88242e-17 0)
(3 -3.11018e-16 0)
(3 -3.73625e-16 0)
(3 -4.56123e-17 0)
(3 -2.8556e-16 0)
(3 -2.37577e-16 0)
(3 -2.58572e-16 0)
(3 -7.55368e-16 0)
(3 -9.23313e-16 0)
(3 -3.8009e-16 0)
(3 -8.55175e-17 0)
(3 6.38347e-16 0)
(3 1.62961e-15 0)
(3 1.51519e-15 0)
(3 7.38874e-16 0)
(3 1.96643e-16 0)
(3 -8.05731e-16 0)
(3 -1.25196e-15 0)
(3 -8.33163e-16 0)
(3 -4.58544e-16 0)
(3 -8.32843e-16 0)
(3 -7.11875e-16 0)
(3 1.18921e-14 0)
(3 4.55024e-17 0)
(3 4.996e-17 0)
(3 -9.61403e-17 0)
(3 -8.00047e-16 0)
(3 -1.19778e-15 0)
(3 -1.25982e-15 0)
(3 -1.32629e-15 0)
(3 -1.00472e-15 0)
(3 -8.18238e-16 0)
(3 -1.26672e-16 0)
(3 -5.06546e-17 0)
(3 -1.82275e-16 0)
(3 -3.60682e-16 0)
(3 -5.66249e-16 0)
(3 -4.8029e-16 0)
(3 -1.21013e-15 0)
(3 -1.34075e-15 0)
(3 -1.83715e-15 0)
(3 -2.19288e-15 0)
(3 -1.74041e-15 0)
(3 -1.27954e-15 0)
(3 -5.79487e-16 0)
(3 6.68652e-17 0)
(3 3.19835e-16 0)
(3 -2.14192e-16 0)
(3 4.48383e-17 0)
(3 3.64489e-16 0)
(3 5.02234e-16 0)
(3 -3.35473e-16 0)
(3 -1.14996e-15 0)
(3 -1.68289e-15 0)
(3 -1.35054e-15 0)
(3 2.10047e-16 0)
(3 4.85148e-16 0)
(3 5.88886e-16 0)
(3 7.08495e-17 0)
(3 -6.1666e-16 0)
(3 -8.60025e-16 0)
(3 -9.21335e-16 0)
(3 -1.58336e-15 0)
(3 -1.84741e-15 0)
(3 -1.66736e-15 0)
(3 -1.0111e-15 0)
(3 -5.97202e-16 0)
(3 -1.20251e-16 0)
(3 6.8725e-16 0)
(3 1.31834e-15 0)
(3 1.24619e-15 0)
(3 7.74555e-17 0)
(3 1.98206e-16 0)
(3 8.78962e-16 0)
(3 9.22993e-16 0)
(3 6.81724e-16 0)
(3 -3.5144e-16 0)
(3 -9.39009e-16 0)
(3 -5.91949e-16 0)
(3 -4.7677e-16 0)
(3 -7.70507e-17 0)
(3 5.59225e-17 0)
(3 -1.0428e-15 0)
(3 -1.52727e-15 0)
(3 -1.52363e-15 0)
(3 -1.51305e-15 0)
(3 -1.85004e-15 0)
(3 -2.0117e-15 0)
(3 -2.05432e-15 0)
(3 4.4658e-16 0)
(3 9.33841e-16 0)
(3 5.80113e-16 0)
(3 9.34683e-16 0)
(3 1.57987e-15 0)
(3 7.54764e-16 0)
(3 1.33603e-16 0)
(3 2.93059e-16 0)
(3 6.14454e-16 0)
(3 2.48753e-16 0)
(3 -4.89402e-18 0)
(3 -7.83883e-16 0)
(3 -1.44115e-15 0)
(3 -4.68481e-16 0)
(3 -3.93561e-16 0)
(3 2.22585e-16 0)
(3 -2.13252e-16 0)
(3 -1.55464e-15 0)
(3 -1.61205e-15 0)
(3 -1.06266e-15 0)
(3 -1.10988e-15 0)
(3 -1.11223e-15 0)
(3 -7.7708e-16 0)
(3 -8.43115e-16 0)
(3 3.35429e-17 0)
(3 3.22966e-16 0)
(3 3.99987e-16 0)
(3 5.78962e-16 0)
(3 5.05998e-16 0)
(3 -8.22836e-17 0)
(1.53316 1.23296 0)
(2.02374 1.36754 0)
(2.19913 1.5179 0)
(2.27174 0.728167 0)
(2.52778 0.380925 0)
(2.65584 -0.0279 0)
(2.69021 -0.23604 0)
(2.60162 -0.352198 0)
(2.42764 -0.302302 0)
(2.34986 -0.269419 0)
(2.35422 -0.249218 0)
(2.39765 -0.162866 0)
(2.44468 -0.133829 0)
(2.47484 -0.148378 0)
(2.4752 -0.144745 0)
(2.47193 -0.104131 0)
(2.41769 -0.0432645 0)
(2.38694 -0.0317283 0)
(2.3729 -0.0276134 0)
(2.39706 -0.0218485 0)
(2.45142 -0.0184605 0)
(2.47671 -0.0159235 0)
(2.47443 -0.0148177 0)
(2.45703 -0.0115116 0)
(2.42728 -0.00604308 0)
(2.41769 -0.00388117 0)
(2.4172 -0.00397469 0)
(2.43322 -0.00630768 0)
(2.45709 -0.0085293 0)
(2.46122 -0.00827436 0)
(2.46039 -0.00600607 0)
(2.44914 -0.00132597 0)
(2.44104 0.0003455 0)
(2.44051 -0.000428832 0)
(2.44536 -0.00212461 0)
(2.45704 -0.00325518 0)
(2.46234 -0.00311121 0)
(2.46421 -0.00178523 0)
(2.462 0.0028578 0)
(2.46341 -0.0028816 0)
(2.42749 -0.0295533 0)
(2.2801 -0.145147 0)
(1.99031 -0.257323 0)
(1.69379 -0.305706 0)
(1.49042 -0.225976 0)
(1.45326 -0.132153 0)
(1.51279 -0.0599439 0)
(1.58744 -0.00696175 0)
(1.64526 0.0024422 0)
(1.67887 -0.00276027 0)
(1.70522 -0.00732063 0)
(1.73324 -0.00686152 0)
(1.75915 -0.00559167 0)
(1.78082 -0.00406413 0)
(1.7967 -0.000485841 0)
(1.81344 0.00568466 0)
(1.83652 0.00849566 0)
(1.86228 0.00877412 0)
(1.89288 0.00772185 0)
(1.92568 0.00558107 0)
(1.95306 0.00330857 0)
(1.97791 0.0027053 0)
(2.00097 0.00296442 0)
(2.01736 0.00483288 0)
(2.026 0.00867862 0)
(2.03775 0.0119553 0)
(2.05833 0.0129804 0)
(2.07979 0.0134978 0)
(2.10402 0.013589 0)
(2.1352 0.0117947 0)
(2.16254 0.00807141 0)
(2.18559 0.00554958 0)
(2.20826 0.00426269 0)
(2.22448 0.00350836 0)
(2.21875 0.0062097 0)
(2.20633 0.0108217 0)
(2.21782 0.0120393 0)
(2.23831 0.0120015 0)
(2.25937 0.0114732 0)
(2.28573 0.00967427 0)
(2.31547 0.0061742 0)
(2.33898 0.00457432 0)
(2.36325 0.00433544 0)
(2.38187 0.00457089 0)
(2.37983 0.00773733 0)
(2.37063 0.0124713 0)
(2.38413 0.0138596 0)
(2.40346 0.0140015 0)
(2.42293 0.0139684 0)
(2.4456 0.0135993 0)
(2.47446 0.0130857 0)
(2.49895 0.012505 0)
(2.51834 0.0110356 0)
(2.53606 0.00970599 0)
(2.54878 0.00817361 0)
(2.54775 0.0103333 0)
(1.77344 1.07203 0)
(2.30051 0.743643 0)
(2.5071 0.561899 0)
(2.64078 0.101256 0)
(2.65688 -0.235765 0)
(2.73393 -0.433791 0)
(2.77563 -0.614131 0)
(2.77919 -0.675562 0)
(2.7475 -0.622789 0)
(2.66037 -0.506959 0)
(2.55451 -0.349356 0)
(2.50032 -0.203254 0)
(2.52439 -0.124691 0)
(2.54972 -0.105636 0)
(2.51142 -0.133344 0)
(2.49393 -0.122458 0)
(2.46335 -0.0636555 0)
(2.45626 -0.0144244 0)
(2.44776 0.0140059 0)
(2.45429 0.0193262 0)
(2.47791 0.0083485 0)
(2.48441 -0.000454866 0)
(2.48283 -0.00654691 0)
(2.47155 -0.0160472 0)
(2.4498 -0.0135593 0)
(2.43962 -0.00691808 0)
(2.44097 -0.00495247 0)
(2.45499 -0.00713347 0)
(2.47821 -0.0124845 0)
(2.48529 -0.0138319 0)
(2.48573 -0.0112909 0)
(2.47687 -0.00108844 0)
(2.46354 0.0080726 0)
(2.4615 0.00914746 0)
(2.4639 0.00863997 0)
(2.47279 0.00433676 0)
(2.48025 0.00150284 0)
(2.48275 0.00501942 0)
(2.47986 -0.00389258 0)
(2.45639 -0.0455297 0)
(2.27991 -0.276937 0)
(2.17026 -0.498054 0)
(2.03155 -0.656569 0)
(1.91325 -0.547753 0)
(1.70986 -0.294779 0)
(1.5933 -0.0864414 0)
(1.55789 0.0164207 0)
(1.60805 0.044237 0)
(1.64667 0.0332642 0)
(1.67665 0.0123972 0)
(1.70983 -0.00587823 0)
(1.74415 -0.0153184 0)
(1.77025 -0.0186066 0)
(1.79536 -0.0193542 0)
(1.81737 -0.014315 0)
(1.83644 0.00015343 0)
(1.85587 0.0175365 0)
(1.87937 0.0250879 0)
(1.90361 0.0252372 0)
(1.93046 0.0170538 0)
(1.95898 0.00488133 0)
(1.98375 -0.00315858 0)
(2.00765 -0.00759746 0)
(2.02984 -0.00883432 0)
(2.04786 -0.000887073 0)
(2.06049 0.0171334 0)
(2.07125 0.0346321 0)
(2.08867 0.0416665 0)
(2.10839 0.043883 0)
(2.13356 0.0413415 0)
(2.15929 0.0325944 0)
(2.18324 0.0225758 0)
(2.20558 0.0113401 0)
(2.22438 -0.0014973 0)
(2.23347 -0.00611859 0)
(2.23244 0.00828281 0)
(2.23199 0.0276038 0)
(2.2456 0.0347061 0)
(2.26555 0.035619 0)
(2.28785 0.0345587 0)
(2.31445 0.0277447 0)
(2.33833 0.019853 0)
(2.36042 0.0117629 0)
(2.38007 0.00141299 0)
(2.39025 -0.00247683 0)
(2.39022 0.011318 0)
(2.39506 0.0281525 0)
(2.41139 0.0352185 0)
(2.42972 0.0374262 0)
(2.44891 0.0395528 0)
(2.47249 0.0396542 0)
(2.49118 0.03703 0)
(2.51128 0.0322971 0)
(2.53016 0.0247559 0)
(2.54281 0.012741 0)
(2.55438 0.00988114 0)
(1.67204 1.03281 0)
(2.09395 0.816115 0)
(2.33921 0.609562 0)
(2.50355 0.429664 0)
(2.60622 0.207093 0)
(2.66963 -0.00836024 0)
(2.71859 -0.194535 0)
(2.75148 -0.280966 0)
(2.82338 -0.288484 0)
(2.81604 -0.395769 0)
(2.76932 -0.42841 0)
(2.70897 -0.40638 0)
(2.70603 -0.387889 0)
(2.70595 -0.376888 0)
(2.68509 -0.334858 0)
(2.60711 -0.249302 0)
(2.58585 -0.172223 0)
(2.58903 -0.119804 0)
(2.57854 -0.0596199 0)
(2.55643 -0.0259088 0)
(2.53066 -0.0276491 0)
(2.52245 -0.0206577 0)
(2.52362 -0.0136034 0)
(2.51937 -0.00608027 0)
(2.50582 -0.002051 0)
(2.49835 -0.00281463 0)
(2.50029 -0.00657512 0)
(2.51184 -0.0150185 0)
(2.52277 -0.0252622 0)
(2.52431 -0.0273354 0)
(2.52332 -0.0270753 0)
(2.51643 -0.0201725 0)
(2.50806 -0.00920466 0)
(2.50654 -0.00518299 0)
(2.5082 -0.00301793 0)
(2.5141 0.00338583 0)
(2.51692 0.00976961 0)
(2.51078 -0.00541827 0)
(2.47626 -0.0663934 0)
(2.34551 -0.256748 0)
(2.12867 -0.515637 0)
(2.00913 -0.708733 0)
(2.02136 -0.691646 0)
(2.05575 -0.668039 0)
(2.04634 -0.586624 0)
(1.95157 -0.410515 0)
(1.80683 -0.197605 0)
(1.71922 -0.0586826 0)
(1.71198 0.0116234 0)
(1.72496 0.0216003 0)
(1.749 0.0226702 0)
(1.77357 0.00999284 0)
(1.80357 -0.00304415 0)
(1.83309 -0.00489173 0)
(1.85777 -0.00532079 0)
(1.87868 -0.00391219 0)
(1.89917 0.00704395 0)
(1.91631 0.0233736 0)
(1.93233 0.0325884 0)
(1.95328 0.0335134 0)
(1.97599 0.0302671 0)
(2.0006 0.0207388 0)
(2.02543 0.011242 0)
(2.04965 0.00633423 0)
(2.07362 0.00587381 0)
(2.09441 0.013743 0)
(2.10744 0.0332706 0)
(2.11216 0.0530684 0)
(2.12567 0.0592715 0)
(2.14658 0.0578753 0)
(2.16752 0.0516827 0)
(2.18768 0.0426483 0)
(2.20603 0.0307867 0)
(2.22196 0.0184782 0)
(2.2389 0.010432 0)
(2.25449 0.0115622 0)
(2.26401 0.0259724 0)
(2.26593 0.0443964 0)
(2.27807 0.0494934 0)
(2.29884 0.0481166 0)
(2.3192 0.045318 0)
(2.33915 0.0401419 0)
(2.35719 0.0320624 0)
(2.37226 0.0222769 0)
(2.38846 0.015093 0)
(2.40505 0.0159696 0)
(2.41865 0.0278834 0)
(2.42843 0.0451921 0)
(2.44297 0.0567871 0)
(2.46125 0.062003 0)
(2.48059 0.0628837 0)
(2.49861 0.0602061 0)
(2.51339 0.0554587 0)
(2.52588 0.0454589 0)
(2.53418 0.0329142 0)
(2.54893 0.0306548 0)
(1.62107 0.97736 0)
(1.9002 0.884389 0)
(2.16439 0.701006 0)
(2.35908 0.494225 0)
(2.48512 0.34924 0)
(2.53765 0.249555 0)
(2.63212 0.049223 0)
(2.71027 -0.164117 0)
(2.73186 -0.26175 0)
(2.79229 -0.333811 0)
(2.81809 -0.435404 0)
(2.78151 -0.483729 0)
(2.76291 -0.470809 0)
(2.7607 -0.45875 0)
(2.75061 -0.436098 0)
(2.71321 -0.364217 0)
(2.6976 -0.330958 0)
(2.70512 -0.30292 0)
(2.68669 -0.234173 0)
(2.6514 -0.147045 0)
(2.62544 -0.119179 0)
(2.61458 -0.100947 0)
(2.58844 -0.0724358 0)
(2.57625 -0.0589577 0)
(2.5616 -0.0275097 0)
(2.56046 -0.00199505 0)
(2.55967 0.0028704 0)
(2.56028 0.0052597 0)
(2.55959 0.00839784 0)
(2.55876 0.00625953 0)
(2.55848 -0.00215296 0)
(2.55726 -0.00915474 0)
(2.55608 -0.0132905 0)
(2.55644 -0.0126586 0)
(2.55709 -0.00752586 0)
(2.55603 -0.00661042 0)
(2.54575 -0.0232699 0)
(2.49631 -0.100714 0)
(2.34119 -0.322159 0)
(2.17352 -0.50274 0)
(2.05766 -0.670861 0)
(2.03661 -0.687727 0)
(2.05481 -0.674072 0)
(2.08513 -0.664078 0)
(2.11199 -0.658968 0)
(2.11112 -0.624439 0)
(2.04708 -0.507864 0)
(1.90842 -0.295037 0)
(1.85213 -0.121523 0)
(1.81731 -0.0133141 0)
(1.80084 0.0164201 0)
(1.80618 0.01777 0)
(1.83242 0.0238672 0)
(1.86932 0.0240324 0)
(1.90208 0.0170071 0)
(1.92643 0.00975167 0)
(1.94699 0.00978452 0)
(1.96352 0.0208589 0)
(1.97242 0.0361188 0)
(1.98391 0.0422581 0)
(2.00417 0.0403701 0)
(2.02596 0.0363925 0)
(2.05057 0.0293974 0)
(2.07558 0.0262643 0)
(2.10061 0.0277599 0)
(2.12444 0.0328083 0)
(2.14339 0.0409488 0)
(2.15056 0.0547677 0)
(2.14955 0.0661494 0)
(2.16078 0.0635468 0)
(2.17915 0.0555678 0)
(2.19724 0.0458216 0)
(2.2139 0.0369887 0)
(2.2321 0.0343355 0)
(2.25194 0.0360764 0)
(2.27225 0.0390658 0)
(2.28987 0.0443607 0)
(2.297 0.0556015 0)
(2.29646 0.0644241 0)
(2.30804 0.0605845 0)
(2.32542 0.0535868 0)
(2.34282 0.0466864 0)
(2.35844 0.0408583 0)
(2.37612 0.039315 0)
(2.39691 0.0406695 0)
(2.41762 0.0423691 0)
(2.43764 0.0445278 0)
(2.45405 0.0526068 0)
(2.46518 0.0644439 0)
(2.47563 0.0715533 0)
(2.48927 0.0728619 0)
(2.50342 0.0714972 0)
(2.51533 0.0686083 0)
(2.5229 0.0625562 0)
(2.53103 0.0576075 0)
(2.55275 0.0585283 0)
(1.58559 0.924937 0)
(1.80736 0.859821 0)
(1.99849 0.772279 0)
(2.21235 0.605512 0)
(2.36187 0.412686 0)
(2.44376 0.303295 0)
(2.48161 0.259284 0)
(2.55682 0.124837 0)
(2.64281 -0.053665 0)
(2.67709 -0.138361 0)
(2.72459 -0.179999 0)
(2.73162 -0.23989 0)
(2.69912 -0.29219 0)
(2.71792 -0.355285 0)
(2.726 -0.3566 0)
(2.74082 -0.353049 0)
(2.75179 -0.395938 0)
(2.76626 -0.41253 0)
(2.74978 -0.374202 0)
(2.7227 -0.305763 0)
(2.70106 -0.247049 0)
(2.67983 -0.217626 0)
(2.64467 -0.151553 0)
(2.63565 -0.132866 0)
(2.62297 -0.0936571 0)
(2.62044 -0.0676136 0)
(2.6075 -0.0391198 0)
(2.58976 -0.0214257 0)
(2.58176 -0.00686197 0)
(2.57535 -0.00497094 0)
(2.57197 -0.00438516 0)
(2.57932 0.00311915 0)
(2.58238 0.00531278 0)
(2.58469 0.0112882 0)
(2.58546 0.00291622 0)
(2.57447 -0.0142649 0)
(2.50978 -0.114472 0)
(2.29597 -0.399188 0)
(2.13455 -0.592122 0)
(2.08573 -0.604636 0)
(2.07932 -0.663555 0)
(2.06487 -0.696433 0)
(2.06881 -0.692817 0)
(2.08748 -0.677541 0)
(2.11509 -0.661122 0)
(2.14358 -0.651927 0)
(2.15192 -0.633107 0)
(2.12759 -0.573448 0)
(2.04967 -0.409137 0)
(1.96319 -0.2037 0)
(1.9042 -0.0747388 0)
(1.8635 -0.0184634 0)
(1.86485 0.0261728 0)
(1.88503 0.0319514 0)
(1.92487 0.0445795 0)
(1.95338 0.0431834 0)
(1.97725 0.0343838 0)
(1.9979 0.0311607 0)
(2.00811 0.0399412 0)
(2.01048 0.0512099 0)
(2.02658 0.0523024 0)
(2.04724 0.0495535 0)
(2.07086 0.0447692 0)
(2.09763 0.04166 0)
(2.12165 0.0425135 0)
(2.14511 0.0454165 0)
(2.16695 0.050967 0)
(2.18082 0.0598868 0)
(2.17836 0.0718596 0)
(2.17352 0.0757789 0)
(2.18673 0.068624 0)
(2.2062 0.0609043 0)
(2.22617 0.0560342 0)
(2.24719 0.0538942 0)
(2.26876 0.055863 0)
(2.28947 0.0598228 0)
(2.31013 0.0650023 0)
(2.32428 0.0712421 0)
(2.32172 0.0783179 0)
(2.31733 0.0760779 0)
(2.32996 0.0660592 0)
(2.34775 0.057882 0)
(2.36668 0.0549119 0)
(2.38658 0.0563735 0)
(2.40918 0.0620937 0)
(2.43101 0.0683631 0)
(2.45176 0.0720672 0)
(2.47108 0.0750067 0)
(2.48398 0.0797813 0)
(2.4872 0.0845868 0)
(2.49093 0.0828335 0)
(2.50021 0.0761304 0)
(2.51022 0.0680862 0)
(2.52235 0.0644047 0)
(2.54067 0.0678089 0)
(2.56533 0.0774869 0)
(1.54974 0.902807 0)
(1.74312 0.845724 0)
(1.92378 0.755065 0)
(2.05744 0.686585 0)
(2.19893 0.565075 0)
(2.33213 0.40206 0)
(2.41102 0.286402 0)