/*--------------------------------*- C++ -*----------------------------------*\
  =========                 |
  \\      /  F ield         | OpenFOAM: The Open Source CFD Toolbox
   \\    /   O peration     | Website:  https://openfoam.org
    \\  /    A nd           | Version:  7
     \\/     M anipulation  |
\*---------------------------------------------------------------------------*/
FoamFile
{
    version     2.0;
    format      ascii;
    class       volScalarField;
    location    "2.7";
    object      p;
}
// * * * * * * * * * * * * * * * * * * * * * * * * * * * * * * * * * * * * * //

dimensions      [1 -1 -2 0 0 0 0];

internalField   nonuniform List<scalar> 
258048
(
1
1
1
1
1
1
1
1
1
1
1
1
1
1
1
1
1
1
1
1
1
1
1
1
1
1
1
1
1
1
1
1
1
1
1
1
1
1
1
1
1
1
1
1
1
1
1
1
1
1
1
1
1
1
1
1
1
1
1
1
1
1
1
1
1
1
1
1
1
1
1
1
1
1
1
1
1
1
1
1
1
1
1
1
1
1
1
1
1
1
1
1
1
1
1
1
1
1
1
6.64067
10.3828
10.4358
10.4601
10.4922
10.5203
10.5487
10.577
10.6046
10.6308
10.6561
10.6824
10.7108
10.7438
10.7829
10.826
10.8669
10.8988
10.9183
10.9265
10.9298
10.9386
10.9603
10.9962
11.0423
11.0901
11.1303
11.1584
11.1751
11.1844
11.1924
11.2066
11.231
11.2648
11.3015
11.3329
11.3526
11.3618
11.3683
11.3813
11.4072
11.4458
11.4876
11.5195
11.5334
11.5348
11.5367
11.5476
11.5749
11.6137
11.6493
11.6685
11.6685
11.6641
11.6673
11.6851
11.719
11.7561
11.7808
11.7874
11.7852
11.7874
11.8047
11.839
11.8768
11.8994
11.9011
11.8917
11.884
11.8883
11.9082
11.9377
11.9618
11.9713
11.9695
11.9682
11.9739
11.9864
11.9997
12.0079
12.0106
12.0123
12.0177
12.029
12.0422
12.0524
12.0581
12.0586
12.0547
12.0504
12.0478
12.0467
12.0391
1
1
1
1
1
1
1
1
1
1
1
1
1
1
1
1
1
1
1
1
1
1
1
1
1
1
1
1
1
1
1
1
1
1
1
1
1
1
1
1
1
1
1
1
1
1
1
1
1
1
1
1
1
1
1
1
1
1
1
1
1
1
1
1
1
1
1
1
1
1
1
1
1
1
1
1
1
1
1
1
1
1
1
1
1
1
1
1
1
1
1
1
1
1
1
1
1
1
1
6.61721
10.3761
10.4362
10.4592
10.4914
10.5181
10.5454
10.5739
10.603
10.6318
10.6597
10.6874
10.7158
10.7464
10.7805
10.8184
10.8572
10.8914
10.9162
10.9307
10.939
10.9492
10.9686
10.9993
11.039
11.0819
11.1217
11.1534
11.1748
11.1876
11.1978
11.2124
11.236
11.2678
11.3022
11.3325
11.3527
11.363
11.3711
11.3853
11.4115
11.4482
11.4868
11.5163
11.5307
11.5345
11.5384
11.5517
11.5798
11.6168
11.6496
11.6669
11.6676
11.6647
11.6691
11.688
11.7213
11.7569
11.7806
11.7877
11.7862
11.7891
11.8065
11.8395
11.8756
11.8974
11.9
11.8918
11.8854
11.8906
11.9104
11.9379
11.9595
11.9679
11.9668
11.9671
11.9745
11.9875
12
12.0067
12.0087
12.0107
12.0174
12.0297
12.0428
12.0519
12.0566
12.0568
12.0537
12.0503
12.0482
12.047
12.0392
1
1
1
1
1
1
1
1
1
1
1
1
1
1
1
1
1
1
1
1
1
1
1
1
1
1
1
1
1
1
1
1
1
1
1
1
1
1
1
1
1
1
1
1
1
1
1
1
1
1
1
1
1
1
1
1
1
1
1
1
1
1
1
1
1
1
1
1
1
1
1
1
1
1
1
1
1
1
1
1
1
1
1
1
1
1
1
1
1
1
1
1
1
1
1
1
1
1
1
6.57085
10.3705
10.4333
10.458
10.4912
10.5167
10.5415
10.5681
10.5985
10.6304
10.662
10.6928
10.7223
10.751
10.7803
10.8114
10.8452
10.8794
10.9088
10.9308
10.9472
10.9619
10.9806
11.0061
11.038
11.0732
11.1084
11.1397
11.1646
11.1828
11.1985
11.2168
11.2411
11.2705
11.3009
11.3275
11.3465
11.3586
11.3697
11.3872
11.4155
11.451
11.485
11.5089
11.5205
11.5259
11.5336
11.5521
11.5837
11.6199
11.6483
11.6612
11.6613
11.6601
11.6669
11.6884
11.7221
11.7554
11.7768
11.7836
11.7839
11.7887
11.8071
11.8389
11.872
11.8919
11.8949
11.8888
11.8848
11.8924
11.9133
11.9388
11.9565
11.9624
11.9616
11.9639
11.9739
11.9886
12.0005
12.0055
12.0063
12.0081
12.016
12.0298
12.0431
12.051
12.0543
12.0539
12.0514
12.0491
12.0478
12.0465
12.0381
1
1
1
1
1
1
1
1
1
1
1
1
1
1
1
1
1
1
1
1
1
1
1
1
1
1
1
1
1
1
1
1
1
1
1
1
1
1
1
1
1
1
1
1
1
1
1
1
1
1
1
1
1
1
1
1
1
1
1
1
1
1
1
1
1
1
1
1
1
1
1
1
1
1
1
1
1
1
1
1
1
1
1
1
1
1
1
1
1
1
1
1
1
1
1
1
1
1
1
6.50328
10.3611
10.4298
10.4568
10.4919
10.5167
10.5394
10.5625
10.5912
10.6261
10.6627
10.6973
10.7286
10.7559
10.7806
10.8057
10.8339
10.8667
10.9011
10.9316
10.9558
10.9746
10.9916
11.0107
11.0347
11.0629
11.0944
11.1268
11.1563
11.1813
11.2029
11.2241
11.2479
11.2742
11.3002
11.3232
11.3414
11.3558
11.3708
11.3919
11.4213
11.4537
11.4822
11.5011
11.511
11.5184
11.5314
11.5556
11.5894
11.6228
11.6465
11.6559
11.6561
11.6574
11.6674
11.6914
11.7239
11.7541
11.7732
11.7805
11.7834
11.7908
11.8099
11.8392
11.8683
11.8858
11.889
11.8854
11.8851
11.8956
11.917
11.9395
11.9526
11.9556
11.9553
11.9604
11.9736
11.9899
12.0007
12.0034
12.003
12.005
12.0145
12.03
12.043
12.0493
12.0511
12.0502
12.0487
12.0478
12.0475
12.0461
12.0374
1
1
1
1
1
1
1
1
1
1
1
1
1
1
1
1
1
1
1
1
1
1
1
1
1
1
1
1
1
1
1
1
1
1
1
1
1
1
1
1
1
1
1
1
1
1
1
1
1
1
1
1
1
1
1
1
1
1
1
1
1
1
1
1
1
1
1
1
1
1
1
1
1
1
1
1
1
1
1
1
1
1
1
1
1
1
1
1
1
1
1
1
1
1
1
1
1
1
1
6.41201
10.3515
10.425
10.4548
10.492
10.5174
10.5398
10.5605
10.5849
10.618
10.658
10.6972
10.7315
10.7598
10.7829
10.8044
10.8285
10.8575
10.8924
10.929
10.9599
10.9822
10.9986
11.0133
11.0318
11.0553
11.0836
11.1156
11.1482
11.1786
11.2056
11.2299
11.2536
11.2771
11.2984
11.3172
11.3346
11.352
11.3716
11.3974
11.4273
11.4554
11.4772
11.4909
11.4998
11.5109
11.5306
11.5603
11.5943
11.6235
11.6418
11.6487
11.6506
11.6557
11.6702
11.6951
11.7243
11.7499
11.7668
11.7759
11.7826
11.7937
11.8133
11.8391
11.863
11.8774
11.8813
11.881
11.8852
11.8993
11.9206
11.9392
11.9478
11.9483
11.9486
11.9567
11.9732
11.9901
11.9996
12.0007
11.9993
12.0019
12.0128
12.0296
12.042
12.0466
12.047
12.0457
12.0455
12.0461
12.0468
12.0453
12.0366
1
1
1
1
1
1
1
1
1
1
1
1
1
1
1
1
1
1
1
1
1
1
1
1
1
1
1
1
1
1
1
1
1
1
1
1
1
1
1
1
1
1
1
1
1
1
1
1
1
1
1
1
1
1
1
1
1
1
1
1
1
1
1
1
1
1
1
1
1
1
1
1
1
1
1
1
1
1
1
1
1
1
1
1
1
1
1
1
1
1
1
1
1
1
1
1
1
1
1
6.29516
10.3444
10.4202
10.4521
10.4898
10.5171
10.5414
10.5621
10.5837
10.6112
10.6487
10.6905
10.7288
10.7607
10.7861
10.8078
10.83
10.8555
10.886
10.9223
10.9569
10.983
11.0008
11.0148
11.0307
11.0515
11.0771
11.1078
11.1418
11.1759
11.2069
11.2342
11.2581
11.2789
11.2957
11.3103
11.3274
11.3483
11.3735
11.4034
11.4324
11.4551
11.4699
11.479
11.4887
11.506
11.533
11.5662
11.5974
11.6208
11.6337
11.6398
11.6457
11.6569
11.6757
11.6993
11.723
11.7429
11.758
11.77
11.7821
11.7977
11.8173
11.8385
11.8564
11.8674
11.8724
11.8765
11.8859
11.9031
11.9232
11.9376
11.9422
11.9411
11.9427
11.9539
11.9725
11.9891
11.997
11.997
11.9955
11.9992
12.0114
12.0285
12.0399
12.0426
12.0418
12.0406
12.0418
12.044
12.0453
12.0438
12.0356
1
1
1
1
1
1
1
1
1
1
1
1
1
1
1
1
1
1
1
1
1
1
1
1
1
1
1
1
1
1
1
1
1
1
1
1
1
1
1
1
1
1
1
1
1
1
1
1
1
1
1
1
1
1
1
1
1
1
1
1
1
1
1
1
1
1
1
1
1
1
1
1
1
1
1
1
1
1
1
1
1
1
1
1
1
1
1
1
1
1
1
1
1
1
1
1
1
1
1
6.15193
10.3377
10.4181
10.4493
10.4849
10.5144
10.5424
10.5659
10.5873
10.6105
10.6405
10.6789
10.7193
10.7562
10.7874
10.8134
10.836
10.8586
10.8838
10.9141
10.9475
10.9767
10.9985
11.0156
11.0322
11.0516
11.075
11.1034
11.1365
11.1721
11.2063
11.2363
11.2608
11.2791
11.2916
11.303
11.3203
11.3452
11.3761
11.409
11.4353
11.4519
11.4603
11.4666
11.4797
11.5046
11.5381
11.5715
11.5975
11.6135
11.622
11.6297
11.642
11.6606
11.6827
11.7031
11.7198
11.7336
11.7474
11.7633
11.7819
11.8022
11.8213
11.8371
11.8488
11.8566
11.8631
11.8721
11.887
11.9063
11.9242
11.9345
11.936
11.9344
11.9381
11.952
11.9712
11.9864
11.9926
11.9921
11.9916
11.997
12.0106
12.0269
12.0364
12.0372
12.0355
12.035
12.0378
12.0414
12.0432
12.0415
12.0343
1
1
1
1
1
1
1
1
1
1
1
1
1
1
1
1
1
1
1
1
1
1
1
1
1
1
1
1
1
1
1
1
1
1
1
1
1
1
1
1
1
1
1
1
1
1
1
1
1
1
1
1
1
1
1
1
1
1
1
1
1
1
1
1
1
1
1
1
1
1
1
1
1
1
1
1
1
1
1
1
1
1
1
1
1
1
1
1
1
1
1
1
1
1
1
1
1
1
1
5.98382
10.3252
10.4195
10.4479
10.4791
10.509
10.5405
10.5686
10.5929
10.6142
10.6379
10.6689
10.7066
10.7465
10.7843
10.8165
10.8424
10.8637
10.8841
10.9076
10.9367
10.967
10.9935
11.0153
11.0348
11.0545
11.0758
11.1013
11.1323
11.1674
11.2035
11.2356
11.2607
11.2765
11.2855
11.2955
11.3149
11.3443
11.3795
11.4123
11.4348
11.4453
11.4488
11.4553
11.475
11.5078
11.545
11.5752
11.5939
11.6023
11.6081
11.6195
11.6401
11.6663
11.69
11.7055
11.7146
11.723
11.736
11.7564
11.7819
11.8063
11.8239
11.8343
11.8403
11.8455
11.8539
11.8684
11.8882
11.9082
11.9231
11.9296
11.9291
11.928
11.9347
11.9507
11.9693
11.9822
11.9866
11.9863
11.9875
11.9953
12.01
12.0249
12.032
12.0308
12.0286
12.0289
12.0332
12.0382
12.0405
12.0387
12.0329
1
1
1
1
1
1
1
1
1
1
1
1
1
1
1
1
1
1
1
1
1
1
1
1
1
1
1
1
1
1
1
1
1
1
1
1
1
1
1
1
1
1
1
1
1
1
1
1
1
1
1
1
1
1
1
1
1
1
1
1
1
1
1
1
1
1
1
1
1
1
1
1
1
1
1
1
1
1
1
1
1
1
1
1
1
1
1
1
1
1
1
1
1
1
1
1
1
1
1
5.7954
10.3037
10.4215
10.4473
10.4739
10.5019
10.5349
10.5676
10.5966
10.6197
10.6403
10.6643
10.6959
10.7344
10.7757
10.8142
10.8453
10.8678
10.8854
10.904
10.9277
10.957
10.9871
11.0141
11.037
11.0573
11.0773
11.1007
11.1299
11.1639
11.1995
11.2321
11.2566
11.27
11.2778
11.2903
11.3133
11.346
11.3817
11.4116
11.4288
11.4343
11.4368
11.4484
11.4762
11.5148
11.551
11.5753
11.5857
11.588
11.5934
11.6108
11.6405
11.6727
11.6953
11.7048
11.7073
11.7122
11.7255
11.7508
11.7821
11.8089
11.8243
11.8296
11.8313
11.8349
11.8457
11.8656
11.8891
11.9084
11.9197
11.9233
11.922
11.9224
11.9323
11.95
11.9665
11.9765
11.9793
11.9796
11.9833
11.9938
12.0092
12.0221
12.0266
12.0238
12.0209
12.0221
12.0278
12.034
12.0369
12.035
12.0312
1
1
1
1
1
1
1
1
1
1
1
1
1
1
1
1
1
1
1
1
1
1
1
1
1
1
1
1
1
1
1
1
1
1
1
1
1
1
1
1
1
1
1
1
1
1
1
1
1
1
1
1
1
1
1
1
1
1
1
1
1
1
1
1
1
1
1
1
1
1
1
1
1
1
1
1
1
1
1
1
1
1
1
1
1
1
1
1
1
1
1
1
1
1
1
1
1
1
1
5.59088
10.2732
10.4219
10.4462
10.4701
10.495
10.5268
10.5618
10.5957
10.6234
10.6445
10.6645
10.6899
10.7236
10.764
10.8057
10.8419
10.8687
10.8872
10.9034
10.9235
10.9499
10.9806
11.0108
11.0366
11.0578
11.0779
11.1012
11.1297
11.1621
11.1955
11.2259
11.2481
11.26
11.2709
11.2891
11.3158
11.3489
11.3815
11.4057
11.4169
11.4208
11.4275
11.4477
11.483
11.5226
11.5538
11.5701
11.5728
11.5721
11.5804
11.6063
11.6434
11.6774
11.6963
11.6997
11.6982
11.702
11.7173
11.7471
11.782
11.8091
11.8216
11.8228
11.8218
11.8252
11.8392
11.8638
11.8893
11.9066
11.9142
11.916
11.9147
11.9173
11.9304
11.9487
11.9627
11.9694
11.9709
11.9726
11.9788
11.992
12.0078
12.0186
12.0208
12.0166
12.0131
12.0148
12.0216
12.0289
12.0326
12.031
12.0295
1
1
1
1
1
1
1
1
1
1
1
1
1
1
1
1
1
1
1
1
1
1
1
1
1
1
1
1
1
1
1
1
1
1
1
1
1
1
1
1
1
1
1
1
1
1
1
1
1
1
1
1
1
1
1
1
1
1
1
1
1
1
1
1
1
1
1
1
1
1
1
1
1
1
1
1
1
1
1
1
1
1
1
1
1
1
1
1
1
1
1
1
1
1
1
1
1
1
1
5.37203
10.233
10.4184
10.4434
10.4674
10.4901
10.5198
10.554
10.5901
10.6222
10.647
10.6669
10.688
10.7163
10.753
10.7941
10.8333
10.8648
10.8876
10.905
10.9234
10.9469
10.9753
11.0052
11.0324
11.0555
11.0775
11.1026
11.1315
11.1618
11.191
11.2169
11.2361
11.2492
11.2666
11.2914
11.3207
11.3511
11.3772
11.3933
11.4006
11.4076
11.4233
11.4532
11.4926
11.5282
11.5511
11.5582
11.556
11.5567
11.5731
11.6072
11.6471
11.678
11.6919
11.6908
11.6878
11.6929
11.7121
11.7455
11.7813
11.8065
11.8154
11.8141
11.8124
11.8171
11.8348
11.8624
11.8879
11.9021
11.907
11.9079
11.9078
11.9131
11.9286
11.9462
11.9575
11.9613
11.9619
11.9653
11.9742
11.9897
12.0056
12.0143
12.0144
12.0094
12.0054
12.0072
12.0146
12.0227
12.027
12.0264
12.0274
1
1
1
1
1
1
1
1
1
1
1
1
1
1
1
1
1
1
1
1
1
1
1
1
1
1
1
1
1
1
1
1
1
1
1
1
1
1
1
1
1
1
1
1
1
1
1
1
1
1
1
1
1
1
1
1
1
1
1
1
1
1
1
1
1
1
1
1
1
1
1
1
1
1
1
1
1
1
1
1
1
1
1
1
1
1
1
1
1
1
1
1
1
1
1
1
1
1
1
5.13725
10.185
10.4123
10.4384
10.4643
10.4867
10.5154
10.5482
10.5835
10.617
10.6449
10.667
10.6874
10.7121
10.7447
10.7834
10.8231
10.858
10.8851
10.906
10.925
10.9463
10.9716
10.9991
11.0262
11.0513
11.0765
11.1043
11.1332
11.1606
11.1845
11.2052
11.223
11.2402
11.2654
11.2959
11.3251
11.3502
11.3673
11.3762
11.3832
11.3982
11.425
11.4631
11.5013
11.5293
11.5416
11.5409
11.5379
11.5458
11.5727
11.6118
11.6497
11.6745
11.6817
11.6785
11.6765
11.6852
11.7097
11.7458
11.7801
11.801
11.8061
11.8038
11.803
11.8107
11.8323
11.8611
11.8845
11.8951
11.898
11.8994
11.9013
11.9099
11.9267
11.9424
11.9505
11.9522
11.9526
11.9581
11.9697
11.9869
12.0023
12.0089
12.0075
12.0022
11.9979
11.9995
12.007
12.0155
12.0204
12.0212
12.0244
1
1
1
1
1
1
1
1
1
1
1
1
1
1
1
1
1
1
1
1
1
1
1
1
1
1
1
1
1
1
1
1
1
1
1
1
1
1
1
1
1
1
1
1
1
1
1
1
1
1
1
1
1
1
1
1
1
1
1
1
1
1
1
1
1
1
1
1
1
1
1
1
1
1
1
1
1
1
1
1
1
1
1
1
1
1
1
1
1
1
1
1
1
1
1
1
1
1
1
4.88466
10.1294
10.4048
10.4332
10.4614
10.4839
10.5124
10.544
10.5782
10.6112
10.6397
10.6637
10.6854
10.7091
10.7389
10.7752
10.8144
10.8509
10.8812
10.9053
10.9258
10.9461
10.9685
10.9933
11.0196
11.0468
11.0751
11.1044
11.1322
11.1557
11.1746
11.1924
11.2118
11.2354
11.2673
11.3
11.326
11.3435
11.3521
11.3574
11.3693
11.3949
11.4321
11.473
11.5057
11.5233
11.5256
11.5217
11.5227
11.5413
11.5769
11.6171
11.65
11.6669
11.6676
11.6638
11.6649
11.6794
11.7097
11.7466
11.7773
11.7929
11.7949
11.7926
11.794
11.806
11.831
11.8593
11.8788
11.8856
11.8874
11.8903
11.8954
11.9078
11.9247
11.937
11.9415
11.9416
11.9431
11.9512
11.9655
11.9837
11.9975
12.0019
11.9995
11.9946
11.9907
11.9918
11.999
12.0076
12.0131
12.0154
12.0204
1
1
1
1
1
1
1
1
1
1
1
1
1
1
1
1
1
1
1
1
1
1
1
1
1
1
1
1
1
1
1
1
1
1
1
1
1
1
1
1
1
1
1
1
1
1
1
1
1
1
1
1
1
1
1
1
1
1
1
1
1
1
1
1
1
1
1
1
1
1
1
1
1
1
1
1
1
1
1
1
1
1
1
1
1
1
1
1
1
1
1
1
1
1
1
1
1
1
1
4.61057
10.0666
10.3975
10.4295
10.4601
10.4825
10.5107
10.5406
10.5732
10.6052
10.6336
10.6582
10.6813
10.7059
10.7349
10.7694
10.8075
10.8446
10.8766
10.9024
10.9237
10.9436
10.9645
10.988
11.0142
11.0429
11.0728
11.1016
11.1264
11.146
11.1628
11.1815
11.2054
11.2352
11.2702
11.3009
11.3209
11.3307
11.3348
11.3419
11.363
11.3984
11.4407
11.4784
11.5027
11.5104
11.5075
11.5044
11.5138
11.5426
11.5825
11.6202
11.6458
11.655
11.6522
11.6488
11.6545
11.6758
11.7102
11.7461
11.7721
11.7828
11.7827
11.7812
11.7856
11.8025
11.8303
11.8563
11.8708
11.8743
11.8758
11.8807
11.8901
11.9066
11.9226
11.9303
11.9305
11.9295
11.9334
11.9448
11.9619
11.9801
11.9912
11.9932
11.9906
11.9866
11.9836
11.9845
11.9909
11.9992
12.005
12.0087
12.0154
1
1
1
1
1
1
1
1
1
1
1
1
1
1
1
1
1
1
1
1
1
1
1
1
1
1
1
1
1
1
1
1
1
1
1
1
1
1
1
1
1
1
1
1
1
1
1
1
1
1
1
1
1
1
1
1
1
1
1
1
1
1
1
1
1
1
1
1
1
1
1
1
1
1
1
1
1
1
1
1
1
1
1
1
1
1
1
1
1
1
1
1
1
1
1
1
1
1
1
4.31546
9.99178
10.392
10.4284
10.4602
10.4829
10.5097
10.5374
10.5681
10.5995
10.628
10.6526
10.6765
10.7022
10.7316
10.7655
10.8022
10.8386
10.871
10.897
10.9185
10.9385
10.9596
10.9836
11.0106
11.0401
11.0697
11.0963
11.1173
11.1346
11.1524
11.175
11.204
11.2373
11.2712
11.2966
11.3093
11.315
11.3196
11.3338
11.3643
11.4052
11.4455
11.4767
11.4919
11.4932
11.4903
11.4937
11.5128
11.5472
11.5856
11.6179
11.6357
11.6394
11.6364
11.6358
11.647
11.6736
11.7093
11.7428
11.7643
11.7715
11.7704
11.7701
11.7778
11.7994
11.829
11.8519
11.8609
11.8617
11.8635
11.871
11.8853
11.9055
11.92
11.9222
11.918
11.9159
11.9232
11.9388
11.9588
11.9757
11.9833
11.983
11.9804
11.978
11.9767
11.9776
11.9828
11.9902
11.9961
12.0012
12.0096
1
1
1
1
1
1
1
1
1
1
1
1
1
1
1
1
1
1
1
1
1
1
1
1
1
1
1
1
1
1
1
1
1
1
1
1
1
1
1
1
1
1
1
1
1
1
1
1
1
1
1
1
1
1
1
1
1
1
1
1
1
1
1
1
1
1
1
1
1
1
1
1
1
1
1
1
1
1
1
1
1
1
1
1
1
1
1
1
1
1
1
1
1
1
1
1
1
1
1
4.00764
9.8969
10.3877
10.4274
10.46
10.4848
10.5094
10.5345
10.5631
10.5937
10.6221
10.6472
10.6718
10.6986
10.7291
10.7629
10.7982
10.8326
10.8639
10.8898
10.911
10.9314
10.9537
10.9791
11.0072
11.0368
11.0654
11.0891
11.1072
11.1242
11.1448
11.1712
11.2034
11.2376
11.2681
11.2867
11.2945
11.3006
11.3108
11.3342
11.3706
11.41
11.4442
11.4664
11.4742
11.4748
11.4776
11.4908
11.5172
11.5511
11.5839
11.6085
11.6204
11.6225
11.6218
11.6264
11.6431
11.6719
11.7064
11.7364
11.7544
11.7596
11.7586
11.7597
11.7708
11.7962
11.8263
11.8455
11.8492
11.8478
11.8505
11.8616
11.8813
11.9039
11.9159
11.9126
11.9042
11.9017
11.9129
11.9332
11.9559
11.9703
11.9734
11.9712
11.9689
11.9691
11.97
11.971
11.9746
11.9805
11.9863
11.9928
12.0029
1
1
1
1
1
1
1
1
1
1
1
1
1
1
1
1
1
1
1
1
1
1
1
1
1
1
1
1
1
1
1
1
1
1
1
1
1
1
1
1
1
1
1
1
1
1
1
1
1
1
1
1
1
1
1
1
1
1
1
1
1
1
1
1
1
1
1
1
1
1
1
1
1
1
1
1
1
1
1
1
1
1
1
1
1
1
1
1
1
1
1
1
1
1
1
1
1
1
1
3.6944
9.7815
10.3857
10.4218
10.4557
10.4843
10.5099
10.533
10.5584
10.5866
10.6149
10.6406
10.6664
10.6949
10.7267
10.7608
10.7951
10.8277
10.8573
10.8823
10.9032
10.9238
10.9471
10.9735
11.0025
11.0322
11.0599
11.0821
11.0995
11.1178
11.1408
11.1687
11.2012
11.2333
11.258
11.2716
11.2796
11.2909
11.3091
11.3395
11.3757
11.4095
11.4348
11.4478
11.4528
11.4584
11.4713
11.4939
11.5234
11.5529
11.5775
11.5936
11.6018
11.6059
11.6106
11.6215
11.6416
11.6697
11.7005
11.7266
11.7418
11.7465
11.7466
11.75
11.7652
11.7934
11.8217
11.8367
11.8364
11.8332
11.8374
11.8529
11.8782
11.9013
11.9094
11.9012
11.8897
11.8878
11.903
11.928
11.9521
11.9635
11.9619
11.9579
11.9566
11.9599
11.9637
11.9646
11.9661
11.9698
11.9757
11.9838
11.9959
1
1
1
1
1
1
1
1
1
1
1
1
1
1
1
1
1
1
1
1
1
1
1
1
1
1
1
1
1
1
1
1
1
1
1
1
1
1
1
1
1
1
1
1
1
1
1
1
1
1
1
1
1
1
1
1
1
1
1
1
1
1
1
1
1
1
1
1
1
1
1
1
1
1
1
1
1
1
1
1
1
1
1
1
1
1
1
1
1
1
1
1
1
1
1
1
1
1
1
3.38469
9.63516
10.3843
10.4169
10.4514
10.4816
10.5073
10.5294
10.5528
10.5786
10.6068
10.6346
10.6621
10.6919
10.7247
10.7587
10.7919
10.8231
10.8514
10.876
10.8969
10.9169
10.9392
10.9648
10.9934
11.0234
11.052
11.0756
11.095
11.1153
11.1389
11.165
11.1945
11.2222
11.2424
11.2562
11.2694
11.2875
11.3119
11.3441
11.3766
11.4027
11.4185
11.4264
11.434
11.4478
11.4704
11.4986
11.5266
11.5497
11.5655
11.5755
11.5831
11.5912
11.6023
11.6187
11.6407
11.6667
11.6929
11.7144
11.727
11.7318
11.734
11.741
11.7608
11.7905
11.8152
11.8252
11.8223
11.8187
11.825
11.8453
11.8755
11.8975
11.9003
11.8879
11.8747
11.8749
11.8942
11.9234
11.9466
11.954
11.9486
11.9434
11.9439
11.9508
11.9574
11.9581
11.9568
11.9577
11.9639
11.9743
11.9889
1
1
1
1
1
1
1
1
1
1
1
1
1
1
1
1
1
1
1
1
1
1
1
1
1
1
1
1
1
1
1
1
1
1
1
1
1
1
1
1
1
1
1
1
1
1
1
1
1
1
1
1
1
1
1
1
1
1
1
1
1
1
1
1
1
1
1
1
1
1
1
1
1
1
1
1
1
1
1
1
1
1
1
1
1
1
1
1
1
1
1
1
1
1
1
1
1
1
1
3.07816
9.46704
10.3791
10.4098
10.4477
10.4785
10.5045
10.5262
10.5478
10.5714
10.5989
10.6282
10.6578
10.6893
10.7228
10.7567
10.7891
10.8193
10.8468
10.8714
10.8926
10.9117
10.9313
10.954
10.9812
11.0121
11.0435
11.0708
11.0935
11.1147
11.1364
11.1582
11.1828
11.2068
11.2266
11.2454
11.2651
11.2876
11.3141
11.3435
11.3698
11.388
11.3992
11.4079
11.421
11.4425
11.4706
11.4998
11.5244
11.5411
11.5508
11.5581
11.5667
11.5787
11.5951
11.6155
11.6387
11.6625
11.6843
11.7009
11.7108
11.7158
11.7211
11.7338
11.7582
11.7872
11.8065
11.8104
11.8062
11.804
11.8139
11.8394
11.8717
11.8909
11.8883
11.8727
11.8598
11.8636
11.887
11.9186
11.939
11.9415
11.9334
11.9278
11.9312
11.9424
11.9514
11.9509
11.9464
11.9444
11.951
11.9645
11.9821
1
1
1
1
1
1
1
1
1
1
1
1
1
1
1
1
1
1
1
1
1
1
1
1
1
1
1
1
1
1
1
1
1
1
1
1
1
1
1
1
1
1
1
1
1
1
1
1
1
1
1
1
1
1
1
1
1
1
1
1
1
1
1
1
1
1
1
1
1
1
1
1
1
1
1
1
1
1
1
1
1
1
1
1
1
1
1
1
1
1
1
1
1
1
1
1
1
1
1
2.76757
9.26844
10.3756
10.4016
10.4438
10.475
10.5008
10.5217
10.5423
10.5651
10.5916
10.6216
10.653
10.6859
10.7196
10.7533
10.7853
10.8154
10.8431
10.8683
10.8898
10.9073
10.9231
10.9421
10.9677
10.9997
11.0344
11.066
11.0916
11.1125
11.1304
11.1474
11.1681
11.1915
11.2149
11.2397
11.2638
11.2873
11.3116
11.3355
11.3551
11.3696
11.3822
11.3959
11.4148
11.4396
11.4679
11.4948
11.5157
11.5288
11.537
11.5444
11.5544
11.5686
11.5876
11.6106
11.6349
11.6572
11.6749
11.6865
11.6932
11.6985
11.7084
11.7284
11.7566
11.7822
11.7945
11.793
11.7882
11.7897
11.8052
11.8358
11.8669
11.8809
11.8735
11.8566
11.8459
11.8546
11.8815
11.9124
11.9285
11.926
11.9163
11.9121
11.9194
11.9347
11.9449
11.9425
11.9344
11.9296
11.9371
11.9543
11.9751
1
1
1
1
1
1
1
1
1
1
1
1
1
1
1
1
1
1
1
1
1
1
1
1
1
1
1
1
1
1
1
1
1
1
1
1
1
1
1
1
1
1
1
1
1
1
1
1
1
1
1
1
1
1
1
1
1
1
1
1
1
1
1
1
1
1
1
1
1
1
1
1
1
1
1
1
1
1
1
1
1
1
1
1
1
1
1
1
1
1
1
1
1
1
1
1
1
1
1
2.44958
9.03896
10.3792
10.3961
10.4393
10.4692
10.4949
10.5162
10.5366
10.5594
10.5862
10.6164
10.6487
10.6819
10.7148
10.7473
10.7791
10.8097
10.8387
10.8649
10.8867
10.9028
10.9148
10.9308
10.9556
10.9883
11.0249
11.0593
11.0867
11.1064
11.1209
11.1351
11.155
11.1805
11.2084
11.2372
11.2627
11.2837
11.3031
11.3202
11.3361
11.3526
11.3709
11.3907
11.4126
11.4364
11.4609
11.4834
11.5017
11.5152
11.5253
11.5344
11.545
11.5592
11.5788
11.6032
11.6287
11.6501
11.664
11.6709
11.675
11.6815
11.6977
11.7251
11.7552
11.7746
11.7786
11.7736
11.7696
11.7765
11.7995
11.833
11.859
11.8661
11.8557
11.8396
11.8338
11.8482
11.8769
11.9039
11.9145
11.9081
11.898
11.897
11.9091
11.9275
11.9373
11.9325
11.9207
11.9138
11.9229
11.9439
11.9674
1
1
1
1
1
1
1
1
1
1
1
1
1
1
1
1
1
1
1
1
1
1
1
1
1
1
1
1
1
1
1
1
1
1
1
1
1
1
1
1
1
1
1
1
1
1
1
1
1
1
1
1
1
1
1
1
1
1
1
1
1
1
1
1
1
1
1
1
1
1
1
1
1
1
1
1
1
1
1
1
1
1
1
1
1
1
1
1
1
1
1
1
1
1
1
1
1
1
1
2.13733
8.76684
10.3884
10.3952
10.4344
10.4621
10.487
10.5085
10.5301
10.5541
10.5817
10.6121
10.6444
10.6772
10.7083
10.7387
10.77
10.8016
10.8326
10.8603
10.8826
10.8977
10.9072
10.9219
10.9466
10.9789
11.0154
11.0505
11.0781
11.0964
11.1099
11.1249
11.1463
11.1744
11.2049
11.2347
11.2585
11.2749
11.2884
11.3008
11.3175
11.3394
11.3643
11.3883
11.4102
11.4301
11.4491
11.4676
11.4858
11.5025
11.5159
11.5266
11.537
11.5502
11.5693
11.5945
11.6207
11.6407
11.6505
11.6537
11.6565
11.6665
11.6907
11.7233
11.7507
11.7623
11.7588
11.7519
11.7516
11.7663
11.7966
11.8292
11.8476
11.8475
11.8356
11.8229
11.8244
11.844
11.8721
11.8924
11.8969
11.8888
11.8795
11.8832
11.9006
11.92
11.9278
11.9203
11.9052
11.8976
11.9087
11.9332
11.9583
1
1
1
1
1
1
1
1
1
1
1
1
1
1
1
1
1
1
1
1
1
1
1
1
1
1
1
1
1
1
1
1
1
1
1
1
1
1
1
1
1
1
1
1
1
1
1
1
1
1
1
1
1
1
1
1
1
1
1
1
1
1
1
1
1
1
1
1
1
1
1
1
1
1
1
1
1
1
1
1
1
1
1
1
1
1
1
1
1
1
1
1
1
1
1
1
1
1
1
1.85056
8.44491
10.4019
10.3978
10.4291
10.4536
10.4779
10.5009
10.524
10.5495
10.5779
10.6087
10.6408
10.673
10.7026
10.731
10.761
10.7923
10.8235
10.8521
10.8751
10.8909
10.9009
10.9159
10.9408
10.9716
11.0056
11.0388
11.0656
11.0838
11.0998
11.1185
11.142
11.1708
11.2014
11.2295
11.2495
11.2613
11.2714
11.2832
11.3037
11.3307
11.3593
11.3842
11.4037
11.4191
11.4339
11.4512
11.4715
11.4914
11.5071
11.5184
11.5281
11.5404
11.5596
11.5851
11.6106
11.6276
11.6337
11.6349
11.6392
11.6563
11.6879
11.7219
11.7423
11.7444
11.7364
11.7295
11.7361
11.7607
11.7948
11.8215
11.8309
11.826
11.8149
11.8077
11.8178
11.8409
11.8646
11.8771
11.8764
11.8684
11.8623
11.8716
11.893
11.9111
11.9158
11.9055
11.8885
11.8816
11.895
11.9219
11.9474
1
1
1
1
1
1
1
1
1
1
1
1
1
1
1
1
1
1
1
1
1
1
1
1
1
1
1
1
1
1
1
1
1
1
1
1
1
1
1
1
1
1
1
1
1
1
1
1
1
1
1
1
1
1
1
1
1
1
1
1
1
1
1
1
1
1
1
1
1
1
1
1
1
1
1
1
1
1
1
1
1
1
1
1
1
1
1
1
1
1
1
1
1
1
1
1
1
1
1
1.60119
8.07206
10.4003
10.3989
10.4221
10.4455
10.4696
10.4939
10.5187
10.545
10.5734
10.6039
10.6358
10.6676
10.6969
10.7247
10.7534
10.783
10.8126
10.8407
10.8649
10.8834
10.897
10.9142
10.9381
10.9653
10.9943
11.0239
11.05
11.0708
11.0922
11.1158
11.1404
11.1677
11.195
11.2183
11.2341
11.2446
11.256
11.2714
11.2958
11.3244
11.3525
11.3754
11.3917
11.4046
11.4191
11.4383
11.4608
11.4818
11.4974
11.5079
11.5176
11.5308
11.5511
11.5761
11.5983
11.6103
11.6133
11.6151
11.6252
11.6519
11.6876
11.7165
11.7274
11.7213
11.7109
11.709
11.7258
11.7588
11.7913
11.8087
11.8094
11.8023
11.7944
11.7962
11.8143
11.8369
11.8529
11.8576
11.8535
11.8475
11.8476
11.863
11.8854
11.9
11.9009
11.8882
11.8712
11.8666
11.8817
11.9096
11.934
1
1
1
1
1
1
1
1
1
1
1
1
1
1
1
1
1
1
1
1
1
1
1
1
1
1
1
1
1
1
1
1
1
1
1
1
1
1
1
1
1
1
1
1
1
1
1
1
1
1
1
1
1
1
1
1
1
1
1
1
1
1
1
1
1
1
1
1
1
1
1
1
1
1
1
1
1
1
1
1
1
1
1
1
1
1
1
1
1
1
1
1
1
1
1
1
1
1
1
1.38931
7.65614
10.389
10.3918
10.4086
10.4343
10.4605
10.4863
10.5125
10.5392
10.5669
10.5962
10.6271
10.6588
10.6898
10.7193
10.7476
10.7748
10.801
10.8268
10.8518
10.8743
10.8932
10.9135
10.9359
10.9587
10.982
11.0079
11.0341
11.059
11.0865
11.1138
11.1383
11.1618
11.1837
11.2016
11.2158
11.2293
11.2459
11.2661
11.2917
11.3177
11.3412
11.36
11.3746
11.3893
11.4077
11.43
11.4528
11.4716
11.4845
11.4942
11.5055
11.5221
11.5441
11.5666
11.5825
11.5887
11.5902
11.5961
11.6172
11.652
11.6867
11.7059
11.7058
11.6946
11.685
11.6931
11.7219
11.7581
11.783
11.7894
11.7843
11.7775
11.7755
11.7891
11.8125
11.83
11.8367
11.8346
11.8295
11.8274
11.8362
11.8567
11.8766
11.8859
11.8828
11.8687
11.854
11.8529
11.8689
11.896
11.9176
1
1
1
1
1
1
1
1
1
1
1
1
1
1
1
1
1
1
1
1
1
1
1
1
1
1
1
1
1
1
1
1
1
1
1
1
1
1
1
1
1
1
1
1
1
1
1
1
1
1
1
1
1
1
1
1
1
1
1
1
1
1
1
1
1
1
1
1
1
1
1
1
1
1
1
1
1
1
1
1
1
1
1
1
1
1
1
1
1
1
1
1
1
1
1
1
1
1
1
1.1918
7.20816
10.3831
10.3883
10.4005
10.427
10.4545
10.4834
10.5113
10.5377
10.5629
10.589
10.6174
10.6486
10.6813
10.7129
10.7413
10.7665
10.7897
10.8129
10.8379
10.8641
10.8889
10.9121
10.9332
10.9516
10.9698
10.9924
11.0192
11.0483
11.0803
11.1098
11.133
11.1519
11.1683
11.1822
11.1982
11.2178
11.2405
11.2639
11.2873
11.3075
11.3246
11.3399
11.3559
11.376
11.4001
11.4245
11.445
11.4593
11.4688
11.4786
11.4937
11.5148
11.5374
11.5552
11.5633
11.5642
11.5667
11.5819
11.6148
11.6529
11.6803
11.6881
11.6791
11.6654
11.663
11.6844
11.7217
11.7542
11.7685
11.7651
11.7566
11.7527
11.7609
11.7861
11.8099
11.8192
11.8165
11.8087
11.805
11.8094
11.8282
11.8508
11.8656
11.8689
11.8615
11.8476
11.8375
11.8404
11.8565
11.8811
11.8979
1
1
1
1
1
1
1
1
1
1
1
1
1
1
1
1
1
1
1
1
1
1
1
1
1
1
1
1
1
1
1
1
1
1
1
1
1
1
1
1
1
1
1
1
1
1
1
1
1
1
1
1
1
1
1
1
1
1
1
1
1
1
1
1
1
1
1
1
1
1
1
1
1
1
1
1
1
1
1
1
1
1
1
1
1
1
1
1
1
1
1
1
1
1
1
1
1
1
1
1.02032
6.76321
10.3319
10.3539
10.3754
10.4087
10.4397
10.4714
10.5019
10.5297
10.555
10.58
10.6072
10.6379
10.6716
10.7051
10.7344
10.7582
10.7788
10.7999
10.8245
10.8526
10.8812
10.9066
10.9271
10.9428
10.958
10.9788
11.0065
11.0387
11.0731
11.1025
11.1232
11.138
11.1507
11.164
11.1842
11.21
11.2367
11.2606
11.2798
11.2934
11.3049
11.319
11.339
11.3655
11.3939
11.4181
11.4346
11.444
11.4513
11.4632
11.4831
11.5075
11.5287
11.5399
11.5411
11.5394
11.5471
11.5746
11.6145
11.6497
11.6665
11.6636
11.6496
11.6374
11.648
11.6823
11.721
11.7446
11.7473
11.7375
11.7279
11.7305
11.7515
11.784
11.8042
11.804
11.7925
11.7812
11.7815
11.7944
11.8223
11.844
11.8515
11.8488
11.8374
11.8258
11.8219
11.8289
11.8442
11.8645
11.8749
1
1
1
1
1
1
1
1
1
1
1
1
1
1
1
1
1
1
1
1
1
1
1
1
1
1
1
1
1
1
1
1
1
1
1
1
1
1
1
1
1
1
1
1
1
1
1
1
1
1
1
1
1
1
1
1
1
1
1
1
1
1
1
1
1
1
1
1
1
1
1
1
1
1
1
1
1
1
1
1
1
1
1
1
1
1
1
1
1
1
1
1
1
1
1
1
1
1
1
1.00026
6.20273
10.2505
10.3289
10.363
10.4011
10.4328
10.4648
10.4953
10.523
10.5471
10.5705
10.5963
10.6258
10.6588
10.6925
10.7224
10.7467
10.768
10.7899
10.8148
10.844
10.874
10.9002
10.9198
10.9337
10.9472
10.967
10.9952
11.0288
11.0631
11.0909
11.1095
11.1223
11.1345
11.15
11.1745
11.2035
11.2307
11.2527
11.2671
11.2761
11.2856
11.3013
11.3257
11.3564
11.3859
11.4079
11.4205
11.427
11.4346
11.45
11.4735
11.4983
11.5153
11.5206
11.5177
11.5177
11.535
11.5718
11.612
11.6384
11.6443
11.6343
11.6191
11.616
11.6416
11.6821
11.715
11.7279
11.7214
11.708
11.7006
11.713
11.7466
11.7803
11.7931
11.7846
11.7662
11.7538
11.7602
11.7831
11.8163
11.8349
11.8344
11.8253
11.8114
11.8037
11.8071
11.8181
11.8318
11.8463
11.8491
1
1
1
1
1
1
1
1
1
1
1
1
1
1
1
1
1
1
1
1
1
1
1
1
1
1
1
1
1
1
1
1
1
1
1
1
1
1
1
1
1
1
1
1
1
1
1
1
1
1
1
1
1
1
1
1
1
1
1
1
1
1
1
1
1
1
1
1
1
1
1
1
1
1
1
1
1
1
1
1
1
1
1
1
1
1
1
1
1
1
1
1
1
1
1
1
1
1
1
1
5.58429
10.1595
10.3082
10.3457
10.3885
10.4227
10.4556
10.4862
10.5144
10.5393
10.5625
10.5869
10.615
10.6471
10.6813
10.7129
10.7387
10.7604
10.7819
10.8058
10.834
10.8635
10.8894
10.9082
10.922
10.9359
10.9562
10.9845
11.0177
11.0505
11.0765
11.0944
11.1079
11.1218
11.1403
11.1667
11.1954
11.2204
11.2393
11.2506
11.2587
11.2696
11.2884
11.3153
11.3461
11.3736
11.3926
11.4033
11.4102
11.4207
11.4391
11.4632
11.485
11.4968
11.498
11.4952
11.5024
11.5304
11.5698
11.6031
11.6183
11.6152
11.6026
11.5912
11.6039
11.641
11.6796
11.7019
11.704
11.6919
11.6785
11.6776
11.7018
11.7426
11.7723
11.7761
11.7608
11.7386
11.7284
11.7419
11.7744
11.8085
11.8219
11.8144
11.7988
11.7842
11.782
11.7926
11.8074
11.8188
11.8261
11.8211
1
1
1
1
1
1
1
1
1
1
1
1
1
1
1
1
1
1
1
1
1
1
1
1
1
1
1
1
1
1
1
1
1
1
1
1
1
1
1
1
1
1
1
1
1
1
1
1
1
1
1
1
1
1
1
1
1
1
1
1
1
1
1
1
1
1
1
1
1
1
1
1
1
1
1
1
1
1
1
1
1
1
1
1
1
1
1
1
1
1
1
1
1
1
1
1
1
1
1
1
4.94679
10.0418
10.2951
10.3394
10.3823
10.4172
10.4496
10.4787
10.5064
10.531
10.5529
10.5756
10.6028
10.6352
10.6705
10.704
10.732
10.7543
10.7749
10.7971
10.8233
10.8516
10.8769
10.8959
10.911
10.9264
10.947
10.9743
11.0054
11.0354
11.0601
11.079
11.0953
11.1122
11.1328
11.1583
11.1839
11.205
11.2214
11.2324
11.2431
11.2577
11.2788
11.3051
11.3326
11.3561
11.3732
11.385
11.3956
11.4099
11.4294
11.4502
11.4662
11.4734
11.4738
11.4767
11.4955
11.5295
11.5645
11.586
11.5898
11.5815
11.5708
11.5715
11.6007
11.6411
11.6705
11.6809
11.6749
11.6608
11.6512
11.6609
11.6956
11.7357
11.7579
11.754
11.7338
11.7118
11.7063
11.7273
11.7664
11.7979
11.8045
11.7914
11.7702
11.7567
11.7608
11.778
11.7959
11.8044
11.8042
11.7918
1
1
1
1
1
1
1
1
1
1
1
1
1
1
1
1
1
1
1
1
1
1
1
1
1
1
1
1
1
1
1
1
1
1
1
1
1
1
1
1
1
1
1
1
1
1
1
1
1
1
1
1
1
1
1
1
1
1
1
1
1
1
1
1
1
1
1
1
1
1
1
1
1
1
1
1
1
1
1
1
1
1
1
1
1
1
1
1
1
1
1
1
1
1
1
1
1
1
1
1
4.31336
9.8715
10.288
10.3318
10.3742
10.411
10.4435
10.4722
10.4987
10.5229
10.5434
10.5653
10.5921
10.6248
10.6604
10.6952
10.7246
10.7476
10.7673
10.7881
10.8126
10.8398
10.865
10.8848
10.9012
10.9175
10.9372
10.9622
10.9906
11.0182
11.0436
11.0657
11.0857
11.1054
11.1264
11.1488
11.1693
11.1863
11.2016
11.2149
11.2301
11.2482
11.2693
11.2923
11.3149
11.3349
11.3523
11.368
11.3837
11.4007
11.4181
11.4329
11.4424
11.447
11.4512
11.4651
11.4937
11.5274
11.5521
11.561
11.556
11.5465
11.5434
11.5616
11.6016
11.6372
11.6539
11.653
11.6416
11.6305
11.6291
11.6513
11.6907
11.7234
11.736
11.7272
11.7054
11.6873
11.6884
11.7155
11.7564
11.7832
11.783
11.7652
11.7403
11.7296
11.7399
11.763
11.783
11.7882
11.7804
11.7621
1
1
1
1
1
1
1
1
1
1
1
1
1
1
1
1
1
1
1
1
1
1
1
1
1
1
1
1
1
1
1
1
1
1
1
1
1
1
1
1
1
1
1
1
1
1
1
1
1
1
1
1
1
1
1
1
1
1
1
1
1
1
1
1
1
1
1
1
1
1
1
1
1
1
1
1
1
1
1
1
1
1
1
1
1
1
1
1
1
1
1
1
1
1
1
1
1
1
1
1
3.68866
9.65407
10.29
10.3329
10.3734
10.4061
10.4375
10.4658
10.4911
10.5155
10.5364
10.558
10.5843
10.6165
10.6517
10.6857
10.7152
10.7372
10.7566
10.7775
10.8018
10.8284
10.8539
10.8745
10.8917
10.9081
10.9268
10.95
10.9762
11.0031
11.0301
11.0553