/*--------------------------------*- C++ -*----------------------------------*\
  =========                 |
  \\      /  F ield         | OpenFOAM: The Open Source CFD Toolbox
   \\    /   O peration     | Website:  https://openfoam.org
    \\  /    A nd           | Version:  7
     \\/     M anipulation  |
\*---------------------------------------------------------------------------*/
FoamFile
{
    version     2.0;
    format      ascii;
    class       volScalarField;
    location    "2.7";
    object      rho;
}
// * * * * * * * * * * * * * * * * * * * * * * * * * * * * * * * * * * * * * //

dimensions      [1 -3 0 0 0 0 0];

internalField   nonuniform List<scalar> 
258048
(
1.40001
1.40001
1.40001
1.40001
1.40001
1.40001
1.40001
1.40001
1.40001
1.40001
1.40001
1.40001
1.40001
1.40001
1.40001
1.40001
1.40001
1.40001
1.40001
1.40001
1.40001
1.40001
1.40001
1.40001
1.40001
1.40001
1.40001
1.40001
1.40001
1.40001
1.40001
1.40001
1.40001
1.40001
1.40001
1.40001
1.40001
1.40001
1.40001
1.40001
1.40001
1.40001
1.40001
1.40001
1.40001
1.40001
1.40001
1.40001
1.40001
1.40001
1.40001
1.40001
1.40001
1.40001
1.40001
1.40001
1.40001
1.40001
1.40001
1.40001
1.40001
1.40001
1.40001
1.40001
1.40001
1.40001
1.40001
1.40001
1.40001
1.40001
1.40001
1.40001
1.40001
1.40001
1.40001
1.40001
1.40001
1.40001
1.40001
1.40001
1.40001
1.40001
1.40001
1.40001
1.40001
1.40001
1.40001
1.40001
1.40001
1.40001
1.40001
1.40001
1.40001
1.40001
1.40001
1.40001
1.40001
1.40001
1.40001
4.06575
5.42505
5.42899
5.43355
5.44326
5.45337
5.46535
5.47899
5.49303
5.50658
5.51942
5.5316
5.54247
5.55238
5.56248
5.57326
5.58361
5.5919
5.59748
5.60075
5.60341
5.60906
5.62007
5.63635
5.65585
5.67522
5.6907
5.70006
5.70355
5.70327
5.70226
5.70418
5.71167
5.72454
5.73979
5.75349
5.76256
5.76721
5.77029
5.77483
5.78296
5.79515
5.80857
5.81892
5.82348
5.8239
5.82467
5.82873
5.8385
5.85217
5.86459
5.87117
5.87091
5.86913
5.87013
5.87644
5.88862
5.90205
5.91112
5.91369
5.91309
5.91422
5.92086
5.93357
5.94758
5.95609
5.95712
5.95437
5.95207
5.95394
5.96137
5.97197
5.98025
5.98312
5.98172
5.98009
5.98065
5.98352
5.98687
5.98854
5.98861
5.98857
5.99012
5.99382
5.99802
6.00054
6.0003
5.9962
5.98844
5.97963
5.97223
5.96763
5.96338
1.40001
1.40001
1.40001
1.40001
1.40001
1.40001
1.40001
1.40001
1.40001
1.40001
1.40001
1.40001
1.40001
1.40001
1.40001
1.40001
1.40001
1.40001
1.40001
1.40001
1.40001
1.40001
1.40001
1.40001
1.40001
1.40001
1.40001
1.40001
1.40001
1.40001
1.40001
1.40001
1.40001
1.40001
1.40001
1.40001
1.40001
1.40001
1.40001
1.40001
1.40001
1.40001
1.40001
1.40001
1.40001
1.40001
1.40001
1.40001
1.40001
1.40001
1.40001
1.40001
1.40001
1.40001
1.40001
1.40001
1.40001
1.40001
1.40001
1.40001
1.40001
1.40001
1.40001
1.40001
1.40001
1.40001
1.40001
1.40001
1.40001
1.40001
1.40001
1.40001
1.40001
1.40001
1.40001
1.40001
1.40001
1.40001
1.40001
1.40001
1.40001
1.40001
1.40001
1.40001
1.40001
1.40001
1.40001
1.40001
1.40001
1.40001
1.40001
1.40001
1.40001
1.40001
1.40001
1.40001
1.40001
1.40001
1.40001
4.05605
5.42241
5.42898
5.43323
5.44298
5.45265
5.46413
5.4777
5.4923
5.50676
5.52059
5.53332
5.54423
5.55334
5.56171
5.57056
5.58012
5.58921
5.59663
5.60219
5.60678
5.6129
5.62299
5.63745
5.65463
5.67225
5.68759
5.69833
5.70351
5.70446
5.70423
5.70631
5.71347
5.72556
5.73998
5.75328
5.76257
5.76773
5.77143
5.77637
5.78452
5.79601
5.80827
5.81775
5.82245
5.82375
5.82531
5.83028
5.84033
5.8533
5.86467
5.87058
5.87059
5.86935
5.87079
5.87748
5.88945
5.9023
5.91101
5.91377
5.91345
5.91487
5.92152
5.93377
5.94717
5.95541
5.95671
5.9544
5.95256
5.95481
5.96219
5.97207
5.97947
5.98192
5.98078
5.97971
5.98082
5.98392
5.98694
5.9881
5.98792
5.988
5.98998
5.99407
5.9982
6.00037
5.99978
5.9956
5.9881
5.97961
5.97239
5.96774
5.96343
1.40001
1.40001
1.40001
1.40001
1.40001
1.40001
1.40001
1.40001
1.40001
1.40001
1.40001
1.40001
1.40001
1.40001
1.40001
1.40001
1.40001
1.40001
1.40001
1.40001
1.40001
1.40001
1.40001
1.40001
1.40001
1.40001
1.40001
1.40001
1.40001
1.40001
1.40001
1.40001
1.40001
1.40001
1.40001
1.40001
1.40001
1.40001
1.40001
1.40001
1.40001
1.40001
1.40001
1.40001
1.40001
1.40001
1.40001
1.40001
1.40001
1.40001
1.40001
1.40001
1.40001
1.40001
1.40001
1.40001
1.40001
1.40001
1.40001
1.40001
1.40001
1.40001
1.40001
1.40001
1.40001
1.40001
1.40001
1.40001
1.40001
1.40001
1.40001
1.40001
1.40001
1.40001
1.40001
1.40001
1.40001
1.40001
1.40001
1.40001
1.40001
1.40001
1.40001
1.40001
1.40001
1.40001
1.40001
1.40001
1.40001
1.40001
1.40001
1.40001
1.40001
1.40001
1.40001
1.40001
1.40001
1.40001
1.40001
4.03755
5.42047
5.42752
5.43254
5.44286
5.45219
5.4627
5.47533
5.49022
5.50583
5.52098
5.53488
5.54638
5.55505
5.56184
5.56825
5.57592
5.58493
5.59385
5.60202
5.60969
5.61748
5.62723
5.6397
5.65421
5.66912
5.68277
5.6934
5.69991
5.70285
5.70459
5.70799
5.71527
5.72641
5.73936
5.75136
5.76031
5.76623
5.77116
5.77723
5.78599
5.7969
5.80748
5.81498
5.8187
5.82064
5.82367
5.83055
5.84187
5.85449
5.86422
5.86852
5.86833
5.86769
5.86996
5.87763
5.88974
5.90177
5.90957
5.91228
5.91265
5.91477
5.92178
5.93357
5.94592
5.95349
5.95495
5.95333
5.95239
5.95552
5.9633
5.97249
5.97854
5.98004
5.979
5.97861
5.9806
5.98433
5.9871
5.98762
5.98699
5.98702
5.98946
5.99414
5.99833
6.00009
5.99905
5.99463
5.98733
5.9792
5.97224
5.96756
5.96308
1.40001
1.40001
1.40001
1.40001
1.40001
1.40001
1.40001
1.40001
1.40001
1.40001
1.40001
1.40001
1.40001
1.40001
1.40001
1.40001
1.40001
1.40001
1.40001
1.40001
1.40001
1.40001
1.40001
1.40001
1.40001
1.40001
1.40001
1.40001
1.40001
1.40001
1.40001
1.40001
1.40001
1.40001
1.40001
1.40001
1.40001
1.40001
1.40001
1.40001
1.40001
1.40001
1.40001
1.40001
1.40001
1.40001
1.40001
1.40001
1.40001
1.40001
1.40001
1.40001
1.40001
1.40001
1.40001
1.40001
1.40001
1.40001
1.40001
1.40001
1.40001
1.40001
1.40001
1.40001
1.40001
1.40001
1.40001
1.40001
1.40001
1.40001
1.40001
1.40001
1.40001
1.40001
1.40001
1.40001
1.40001
1.40001
1.40001
1.40001
1.40001
1.40001
1.40001
1.40001
1.40001
1.40001
1.40001
1.40001
1.40001
1.40001
1.40001
1.40001
1.40001
1.40001
1.40001
1.40001
1.40001
1.40001
1.40001
4.0105
5.41714
5.42561
5.43166
5.44289
5.45217
5.46194
5.47301
5.48705
5.50375
5.52067
5.53593
5.5483
5.55679
5.56211
5.56649
5.57202
5.58037
5.591
5.60215
5.61268
5.62197
5.63098
5.64099
5.65276
5.66533
5.6777
5.68875
5.69706
5.70249
5.70634
5.7108
5.71776
5.7276
5.73886
5.74962
5.75843
5.76537
5.77172
5.77903
5.78807
5.79775
5.80624
5.81198
5.81517
5.81793
5.82299
5.83201
5.84407
5.8557
5.8637
5.86666
5.86647
5.86669
5.87016
5.87872
5.89041
5.9013
5.90827
5.91113
5.91246
5.91555
5.92283
5.93376
5.94465
5.95138
5.95298
5.95216
5.95254
5.9568
5.96476
5.97285
5.97729
5.97779
5.97687
5.97738
5.98051
5.98471
5.98708
5.98684
5.98577
5.98586
5.98891
5.99422
5.99831
5.99954
5.998
5.99339
5.98645
5.97877
5.97213
5.96747
5.96289
1.40001
1.40001
1.40001
1.40001
1.40001
1.40001
1.40001
1.40001
1.40001
1.40001
1.40001
1.40001
1.40001
1.40001
1.40001
1.40001
1.40001
1.40001
1.40001
1.40001
1.40001
1.40001
1.40001
1.40001
1.40001
1.40001
1.40001
1.40001
1.40001
1.40001
1.40001
1.40001
1.40001
1.40001
1.40001
1.40001
1.40001
1.40001
1.40001
1.40001
1.40001
1.40001
1.40001
1.40001
1.40001
1.40001
1.40001
1.40001
1.40001
1.40001
1.40001
1.40001
1.40001
1.40001
1.40001
1.40001
1.40001
1.40001
1.40001
1.40001
1.40001
1.40001
1.40001
1.40001
1.40001
1.40001
1.40001
1.40001
1.40001
1.40001
1.40001
1.40001
1.40001
1.40001
1.40001
1.40001
1.40001
1.40001
1.40001
1.40001
1.40001
1.40001
1.40001
1.40001
1.40001
1.40001
1.40001
1.40001
1.40001
1.40001
1.40001
1.40001
1.40001
1.40001
1.40001
1.40001
1.40001
1.40001
1.40001
3.97358
5.41319
5.42297
5.43033
5.44266
5.4524
5.46216
5.47225
5.48444
5.50033
5.51855
5.53546
5.54896
5.558
5.56302
5.56623
5.57032
5.57714
5.58779
5.60108
5.61403
5.62459
5.6333
5.64164
5.65123
5.66232
5.67372
5.6847
5.69423
5.70168
5.70754
5.71312
5.71997
5.72862
5.73806
5.74725
5.75585
5.76402
5.77206
5.78094
5.79014
5.79823
5.80428
5.80814
5.81103
5.81526
5.82282
5.83385
5.846
5.85611
5.86215
5.86415
5.86448
5.86611
5.87121
5.88013
5.89058
5.89981
5.906
5.90947
5.91221
5.91663
5.92412
5.93379
5.9428
5.94844
5.95033
5.95068
5.95272
5.95825
5.96615
5.97289
5.97576
5.97539
5.97459
5.97612
5.98039
5.98475
5.98663
5.98579
5.98437
5.98467
5.98831
5.99409
5.99802
5.99864
5.99661
5.99189
5.98539
5.97817
5.97181
5.96717
5.96264
1.40001
1.40001
1.40001
1.40001
1.40001
1.40001
1.40001
1.40001
1.40001
1.40001
1.40001
1.40001
1.40001
1.40001
1.40001
1.40001
1.40001
1.40001
1.40001
1.40001
1.40001
1.40001
1.40001
1.40001
1.40001
1.40001
1.40001
1.40001
1.40001
1.40001
1.40001
1.40001
1.40001
1.40001
1.40001
1.40001
1.40001
1.40001
1.40001
1.40001
1.40001
1.40001
1.40001
1.40001
1.40001
1.40001
1.40001
1.40001
1.40001
1.40001
1.40001
1.40001
1.40001
1.40001
1.40001
1.40001
1.40001
1.40001
1.40001
1.40001
1.40001
1.40001
1.40001
1.40001
1.40001
1.40001
1.40001
1.40001
1.40001
1.40001
1.40001
1.40001
1.40001
1.40001
1.40001
1.40001
1.40001
1.40001
1.40001
1.40001
1.40001
1.40001
1.40001
1.40001
1.40001
1.40001
1.40001
1.40001
1.40001
1.40001
1.40001
1.40001
1.40001
1.40001
1.40001
1.40001
1.40001
1.40001
1.40001
3.92601
5.40958
5.42004
5.42845
5.44146
5.45226
5.46288
5.47297
5.48399
5.4976
5.51479
5.53266
5.54757
5.55801
5.5641
5.56755
5.57106
5.57662
5.58556
5.5986
5.61279
5.6247
5.63391
5.64194
5.65053
5.66058
5.67116
5.68181
5.69194
5.70084
5.70827
5.71495
5.72185
5.72939
5.73703
5.74457
5.75305
5.76251
5.77252
5.78292
5.79186
5.79803
5.80158
5.80378
5.80695
5.8135
5.82378
5.83606
5.84723
5.85524
5.85934
5.86106
5.86283
5.86663
5.87332
5.88175
5.89019
5.89736
5.9029
5.90743
5.91214
5.91816
5.92568
5.93371
5.94055
5.94496
5.94723
5.94919
5.95309
5.95969
5.96718
5.97246
5.97394
5.97305
5.97264
5.97517
5.98016
5.98434
5.98562
5.98439
5.9829
5.98363
5.98781
5.99372
5.9973
5.99728
5.99481
5.99016
5.98417
5.9774
5.97121
5.96661
5.96233
1.40001
1.40001
1.40001
1.40001
1.40001
1.40001
1.40001
1.40001
1.40001
1.40001
1.40001
1.40001
1.40001
1.40001
1.40001
1.40001
1.40001
1.40001
1.40001
1.40001
1.40001
1.40001
1.40001
1.40001
1.40001
1.40001
1.40001
1.40001
1.40001
1.40001
1.40001
1.40001
1.40001
1.40001
1.40001
1.40001
1.40001
1.40001
1.40001
1.40001
1.40001
1.40001
1.40001
1.40001
1.40001
1.40001
1.40001
1.40001
1.40001
1.40001
1.40001
1.40001
1.40001
1.40001
1.40001
1.40001
1.40001
1.40001
1.40001
1.40001
1.40001
1.40001
1.40001
1.40001
1.40001
1.40001
1.40001
1.40001
1.40001
1.40001
1.40001
1.40001
1.40001
1.40001
1.40001
1.40001
1.40001
1.40001
1.40001
1.40001
1.40001
1.40001
1.40001
1.40001
1.40001
1.40001
1.40001
1.40001
1.40001
1.40001
1.40001
1.40001
1.40001
1.40001
1.40001
1.40001
1.40001
1.40001
1.40001
3.86756
5.40611
5.41784
5.42633
5.4391
5.4512
5.46343
5.47468
5.48554
5.49732
5.51157
5.52806
5.54364
5.55595
5.56427
5.56956
5.57343
5.57805
5.58499
5.59563
5.60917
5.62226
5.63292
5.64197
5.6508
5.6603
5.67008
5.68004
5.69
5.69955
5.70821
5.71597
5.72309
5.7297
5.73559
5.74174
5.75028
5.76114
5.77313
5.78465
5.79282
5.79688
5.79814
5.79928
5.80368
5.81306
5.82569
5.83808
5.84737
5.85275
5.8553
5.85757
5.86165
5.86816
5.87601
5.88325
5.88916
5.89414
5.89921
5.90514
5.91222
5.91992
5.92722
5.93334
5.93794
5.9412
5.944
5.94776
5.95357
5.96091
5.96765
5.97147
5.97189
5.97082
5.97114
5.97458
5.97972
5.98337
5.98398
5.98257
5.98139
5.98282
5.98751
5.99319
5.99613
5.99543
5.99263
5.98823
5.98278
5.97644
5.97033
5.96576
5.96193
1.40001
1.40001
1.40001
1.40001
1.40001
1.40001
1.40001
1.40001
1.40001
1.40001
1.40001
1.40001
1.40001
1.40001
1.40001
1.40001
1.40001
1.40001
1.40001
1.40001
1.40001
1.40001
1.40001
1.40001
1.40001
1.40001
1.40001
1.40001
1.40001
1.40001
1.40001
1.40001
1.40001
1.40001
1.40001
1.40001
1.40001
1.40001
1.40001
1.40001
1.40001
1.40001
1.40001
1.40001
1.40001
1.40001
1.40001
1.40001
1.40001
1.40001
1.40001
1.40001
1.40001
1.40001
1.40001
1.40001
1.40001
1.40001
1.40001
1.40001
1.40001
1.40001
1.40001
1.40001
1.40001
1.40001
1.40001
1.40001
1.40001
1.40001
1.40001
1.40001
1.40001
1.40001
1.40001
1.40001
1.40001
1.40001
1.40001
1.40001
1.40001
1.40001
1.40001
1.40001
1.40001
1.40001
1.40001
1.40001
1.40001
1.40001
1.40001
1.40001
1.40001
1.40001
1.40001
1.40001
1.40001
1.40001
1.40001
3.79869
5.40068
5.41689
5.4248
5.43637
5.44905
5.46289
5.47597
5.48793
5.49882
5.51049
5.52409
5.53851
5.55185
5.56277
5.57061
5.57599
5.58029
5.58549
5.59343
5.60514
5.6185
5.63084
5.64151
5.65132
5.66089
5.66998
5.67895
5.6883
5.69791
5.70736
5.71598
5.72337
5.72906
5.73345
5.73894
5.74817
5.76056
5.77402
5.78565
5.79249
5.79447
5.79406
5.79524
5.80205
5.81429
5.82822
5.83944
5.84617
5.84884
5.85044
5.85404
5.86113
5.87039
5.87879
5.88424
5.88747
5.89048
5.89527
5.90283
5.91237
5.92153
5.92827
5.93245
5.93502
5.93736
5.94085
5.94652
5.95408
5.96166
5.96736
5.96985
5.96961
5.96873
5.97003
5.97423
5.97905
5.98185
5.98178
5.98037
5.97985
5.98217
5.98732
5.99249
5.99459
5.99323
5.99018
5.98609
5.98119
5.97529
5.96929
5.96467
5.96139
1.40001
1.40001
1.40001
1.40001
1.40001
1.40001
1.40001
1.40001
1.40001
1.40001
1.40001
1.40001
1.40001
1.40001
1.40001
1.40001
1.40001
1.40001
1.40001
1.40001
1.40001
1.40001
1.40001
1.40001
1.40001
1.40001
1.40001
1.40001
1.40001
1.40001
1.40001
1.40001
1.40001
1.40001
1.40001
1.40001
1.40001
1.40001
1.40001
1.40001
1.40001
1.40001
1.40001
1.40001
1.40001
1.40001
1.40001
1.40001
1.40001
1.40001
1.40001
1.40001
1.40001
1.40001
1.40001
1.40001
1.40001
1.40001
1.40001
1.40001
1.40001
1.40001
1.40001
1.40001
1.40001
1.40001
1.40001
1.40001
1.40001
1.40001
1.40001
1.40001
1.40001
1.40001
1.40001
1.40001
1.40001
1.40001
1.40001
1.40001
1.40001
1.40001
1.40001
1.40001
1.40001
1.40001
1.40001
1.40001
1.40001
1.40001
1.40001
1.40001
1.40001
1.40001
1.40001
1.40001
1.40001
1.40001
1.40001
3.72087
5.39263
5.41644
5.42386
5.43396
5.44615
5.46086
5.47576
5.48942
5.50087
5.51111
5.52196
5.53412
5.54691
5.55927
5.5697
5.57725
5.58223
5.58646
5.59249
5.60196
5.61468
5.62825
5.64071
5.65161
5.66128
5.66994
5.67829
5.68716
5.69661
5.70618
5.71512
5.72237
5.72699
5.7308
5.73708
5.74748
5.7609
5.77455
5.78515
5.79015
5.79056
5.78985
5.79289
5.80266
5.8169
5.83042
5.83951
5.84323
5.84383
5.84532
5.85111
5.86146
5.87289
5.88087
5.88418
5.88504
5.88677
5.89166
5.90097
5.91258
5.92259
5.92855
5.93089
5.93189
5.93366
5.93803
5.94563
5.9545
5.96185
5.96626
5.96773
5.96722
5.96687
5.96928
5.97402
5.97811
5.9798
5.97913
5.97788
5.97823
5.9816
5.98706
5.99152
5.99274
5.99076
5.98746
5.98367
5.97929
5.9738
5.968
5.9633
5.96068
1.40001
1.40001
1.40001
1.40001
1.40001
1.40001
1.40001
1.40001
1.40001
1.40001
1.40001
1.40001
1.40001
1.40001
1.40001
1.40001
1.40001
1.40001
1.40001
1.40001
1.40001
1.40001
1.40001
1.40001
1.40001
1.40001
1.40001
1.40001
1.40001
1.40001
1.40001
1.40001
1.40001
1.40001
1.40001
1.40001
1.40001
1.40001
1.40001
1.40001
1.40001
1.40001
1.40001
1.40001
1.40001
1.40001
1.40001
1.40001
1.40001
1.40001
1.40001
1.40001
1.40001
1.40001
1.40001
1.40001
1.40001
1.40001
1.40001
1.40001
1.40001
1.40001
1.40001
1.40001
1.40001
1.40001
1.40001
1.40001
1.40001
1.40001
1.40001
1.40001
1.40001
1.40001
1.40001
1.40001
1.40001
1.40001
1.40001
1.40001
1.40001
1.40001
1.40001
1.40001
1.40001
1.40001
1.40001
1.40001
1.40001
1.40001
1.40001
1.40001
1.40001
1.40001
1.40001
1.40001
1.40001
1.40001
1.40001
3.63534
5.38222
5.41604
5.42302
5.43207
5.44311
5.45749
5.47337
5.48883
5.50187
5.51214
5.52141
5.53134
5.54255
5.5548
5.56667
5.5763
5.58301
5.58767
5.59278
5.60066
5.61202
5.62563
5.63918
5.65099
5.66083
5.66943
5.67786
5.68671
5.6959
5.70498
5.71333
5.71975
5.72372
5.72846
5.73671
5.74826
5.76169
5.77419
5.78271
5.78577
5.78571
5.78663
5.79291
5.80537
5.8199
5.83148
5.83761
5.8386
5.83817
5.84077
5.84965
5.86273
5.87475
5.88142
5.88256
5.88199
5.88333
5.88892
5.89981
5.91268
5.92286
5.92777
5.92853
5.92859
5.93027
5.93579
5.94503
5.95462
5.9613
5.9644
5.96521
5.96475
5.96517
5.96868
5.97361
5.97679
5.97728
5.97614
5.97527
5.97654
5.98094
5.98659
5.9903
5.99071
5.98826
5.98468
5.98108
5.9771
5.97197
5.96642
5.9618
5.96
1.40001
1.40001
1.40001
1.40001
1.40001
1.40001
1.40001
1.40001
1.40001
1.40001
1.40001
1.40001
1.40001
1.40001
1.40001
1.40001
1.40001
1.40001
1.40001
1.40001
1.40001
1.40001
1.40001
1.40001
1.40001
1.40001
1.40001
1.40001
1.40001
1.40001
1.40001
1.40001
1.40001
1.40001
1.40001
1.40001
1.40001
1.40001
1.40001
1.40001
1.40001
1.40001
1.40001
1.40001
1.40001
1.40001
1.40001
1.40001
1.40001
1.40001
1.40001
1.40001
1.40001
1.40001
1.40001
1.40001
1.40001
1.40001
1.40001
1.40001
1.40001
1.40001
1.40001
1.40001
1.40001
1.40001
1.40001
1.40001
1.40001
1.40001
1.40001
1.40001
1.40001
1.40001
1.40001
1.40001
1.40001
1.40001
1.40001
1.40001
1.40001
1.40001
1.40001
1.40001
1.40001
1.40001
1.40001
1.40001
1.40001
1.40001
1.40001
1.40001
1.40001
1.40001
1.40001
1.40001
1.40001
1.40001
1.40001
3.54247
5.36911
5.41509
5.42184
5.43063
5.4406
5.45408
5.46964
5.48591
5.50049
5.51208
5.52133
5.52996
5.53962
5.55083
5.56277
5.57369
5.58224
5.5885
5.59393
5.60099
5.61094
5.62346
5.63673
5.64893
5.65925
5.66846
5.67765
5.68693
5.69573
5.7036
5.7105
5.71588
5.72017
5.72717
5.73766
5.74997
5.76227
5.77233
5.77801
5.77979
5.78103
5.78533
5.79527
5.80918
5.8221
5.83065
5.83337
5.8326
5.83272
5.83827
5.85015
5.86428
5.87517
5.88007
5.87958
5.87846
5.8803
5.88731
5.8995
5.91268
5.92215
5.92569
5.92553
5.92532
5.92748
5.93429
5.94461
5.95422
5.95978
5.96186
5.9624
5.96234
5.96372
5.96807
5.97277
5.97497
5.97445
5.9729
5.97263
5.97485
5.9801
5.98577
5.98881
5.98854
5.98573
5.98192
5.97836
5.9746
5.96975
5.96444
5.96012
5.95916
1.40001
1.40001
1.40001
1.40001
1.40001
1.40001
1.40001
1.40001
1.40001
1.40001
1.40001
1.40001
1.40001
1.40001
1.40001
1.40001
1.40001
1.40001
1.40001
1.40001
1.40001
1.40001
1.40001
1.40001
1.40001
1.40001
1.40001
1.40001
1.40001
1.40001
1.40001
1.40001
1.40001
1.40001
1.40001
1.40001
1.40001
1.40001
1.40001
1.40001
1.40001
1.40001
1.40001
1.40001
1.40001
1.40001
1.40001
1.40001
1.40001
1.40001
1.40001
1.40001
1.40001
1.40001
1.40001
1.40001
1.40001
1.40001
1.40001
1.40001
1.40001
1.40001
1.40001
1.40001
1.40001
1.40001
1.40001
1.40001
1.40001
1.40001
1.40001
1.40001
1.40001
1.40001
1.40001
1.40001
1.40001
1.40001
1.40001
1.40001
1.40001
1.40001
1.40001
1.40001
1.40001
1.40001
1.40001
1.40001
1.40001
1.40001
1.40001
1.40001
1.40001
1.40001
1.40001
1.40001
1.40001
1.40001
1.40001
3.44126
5.35336
5.41464
5.42075
5.42947
5.43871
5.45135
5.46609
5.48197
5.4971
5.5099
5.52016
5.52897
5.53794
5.54821
5.55964
5.57096
5.58075
5.58848
5.59502
5.60198
5.61082
5.62185
5.63403
5.64605
5.65699
5.66733
5.67762
5.68725
5.69529
5.70152
5.70674
5.71162
5.71736
5.72706
5.73949
5.75155
5.7618
5.76856
5.77171
5.77348
5.77767
5.78618
5.79922
5.8127
5.82277
5.82738
5.82725
5.8262
5.8289
5.83828
5.85206
5.86544
5.87417
5.87663
5.87538
5.87463
5.8778
5.88674
5.89984
5.91249
5.92038
5.92254
5.92202
5.92213
5.92535
5.9335
5.94426
5.9531
5.95732
5.95869
5.95937
5.96005
5.96259
5.96741
5.97142
5.9725
5.97124
5.9696
5.97003
5.97326
5.97913
5.98457
5.9869
5.98612
5.98317
5.97926
5.97559
5.97185
5.9672
5.96213
5.95824
5.95796
1.40001
1.40001
1.40001
1.40001
1.40001
1.40001
1.40001
1.40001
1.40001
1.40001
1.40001
1.40001
1.40001
1.40001
1.40001
1.40001
1.40001
1.40001
1.40001
1.40001
1.40001
1.40001
1.40001
1.40001
1.40001
1.40001
1.40001
1.40001
1.40001
1.40001
1.40001
1.40001
1.40001
1.40001
1.40001
1.40001
1.40001
1.40001
1.40001
1.40001
1.40001
1.40001
1.40001
1.40001
1.40001
1.40001
1.40001
1.40001
1.40001
1.40001
1.40001
1.40001
1.40001
1.40001
1.40001
1.40001
1.40001
1.40001
1.40001
1.40001
1.40001
1.40001
1.40001
1.40001
1.40001
1.40001
1.40001
1.40001
1.40001
1.40001
1.40001
1.40001
1.40001
1.40001
1.40001
1.40001
1.40001
1.40001
1.40001
1.40001
1.40001
1.40001
1.40001
1.40001
1.40001
1.40001
1.40001
1.40001
1.40001
1.40001
1.40001
1.40001
1.40001
1.40001
1.40001
1.40001
1.40001
1.40001
1.40001
3.3305
5.33423
5.4156
5.42094
5.42926
5.43752
5.44925
5.46292
5.47805
5.49299
5.5062
5.51743
5.5273
5.53675
5.5468
5.5579
5.56926
5.57961
5.58825
5.5956
5.60273
5.61082
5.62048
5.63147
5.64311
5.65477
5.6663
5.67727
5.68665
5.69356
5.6983
5.7026
5.70809
5.71608
5.72813
5.74115
5.75189
5.75927
5.76299
5.76488
5.76844
5.77657
5.78904
5.80318
5.81465
5.821
5.82187
5.82051
5.82089
5.82745
5.84002
5.85426
5.86579
5.8717
5.87183
5.87033
5.87073
5.87598
5.88696
5.90037
5.91171
5.91766
5.91867
5.91819
5.91907
5.9238
5.93318
5.94369
5.95111
5.95396
5.9549
5.9561
5.95789
5.96176
5.96663
5.96955
5.96934
5.96751
5.96626
5.96758
5.97182
5.97806
5.98292
5.98443
5.98333
5.98049
5.97667
5.97284
5.96896
5.96438
5.95957
5.95614
5.95644
1.40001
1.40001
1.40001
1.40001
1.40001
1.40001
1.40001
1.40001
1.40001
1.40001
1.40001
1.40001
1.40001
1.40001
1.40001
1.40001
1.40001
1.40001
1.40001
1.40001
1.40001
1.40001
1.40001
1.40001
1.40001
1.40001
1.40001
1.40001
1.40001
1.40001
1.40001
1.40001
1.40001
1.40001
1.40001
1.40001
1.40001
1.40001
1.40001
1.40001
1.40001
1.40001
1.40001
1.40001
1.40001
1.40001
1.40001
1.40001
1.40001
1.40001
1.40001
1.40001
1.40001
1.40001
1.40001
1.40001
1.40001
1.40001
1.40001
1.40001
1.40001
1.40001
1.40001
1.40001
1.40001
1.40001
1.40001
1.40001
1.40001
1.40001
1.40001
1.40001
1.40001
1.40001
1.40001
1.40001
1.40001
1.40001
1.40001
1.40001
1.40001
1.40001
1.40001
1.40001
1.40001
1.40001
1.40001
1.40001
1.40001
1.40001
1.40001
1.40001
1.40001
1.40001
1.40001
1.40001
1.40001
1.40001
1.40001
3.20829
5.31089
5.41867
5.42336
5.43098
5.43777
5.44821
5.46043
5.47439
5.4887
5.50196
5.51379
5.52481
5.53546
5.54619
5.55737
5.56867
5.57921
5.58813
5.59559
5.60254
5.61006
5.61885
5.62915
5.64064
5.65287
5.665
5.67591
5.68444
5.69025
5.69442
5.6992
5.70633
5.71649
5.72958
5.74171
5.75014
5.75463
5.75669
5.75927
5.76616
5.77799
5.79246
5.80548
5.81402
5.81671
5.81564
5.81456
5.81789
5.82812
5.84232
5.85561
5.86456
5.86764
5.86651
5.86521
5.86724
5.87495
5.88739
5.90047
5.91011
5.91428
5.91449
5.91429
5.91624
5.92271
5.93303
5.94273
5.94831
5.94991
5.95069
5.95267
5.95595
5.96122
5.96578
5.96717
5.96549
5.96325
5.96287
5.96534
5.97062
5.97683
5.98075
5.98138
5.98016
5.97763
5.97411
5.97021
5.96605
5.96134
5.95672
5.95376
5.95461
1.40001
1.40001
1.40001
1.40001
1.40001
1.40001
1.40001
1.40001
1.40001
1.40001
1.40001
1.40001
1.40001
1.40001
1.40001
1.40001
1.40001
1.40001
1.40001
1.40001
1.40001
1.40001
1.40001
1.40001
1.40001
1.40001
1.40001
1.40001
1.40001
1.40001
1.40001
1.40001
1.40001
1.40001
1.40001
1.40001
1.40001
1.40001
1.40001
1.40001
1.40001
1.40001
1.40001
1.40001
1.40001
1.40001
1.40001
1.40001
1.40001
1.40001
1.40001
1.40001
1.40001
1.40001
1.40001
1.40001
1.40001
1.40001
1.40001
1.40001
1.40001
1.40001
1.40001
1.40001
1.40001
1.40001
1.40001
1.40001
1.40001
1.40001
1.40001
1.40001
1.40001
1.40001
1.40001
1.40001
1.40001
1.40001
1.40001
1.40001
1.40001
1.40001
1.40001
1.40001
1.40001
1.40001
1.40001
1.40001
1.40001
1.40001
1.40001
1.40001
1.40001
1.40001
1.40001
1.40001
1.40001
1.40001
1.40001
3.07438
5.28089
5.42356
5.42848
5.43496
5.44007
5.44845
5.45872
5.47123
5.48484
5.49801
5.51014
5.52194
5.53384
5.54579
5.55763
5.56894
5.57923
5.58795
5.59498
5.60139
5.60839
5.61688
5.62714
5.63883
5.65135
5.6635
5.67377
5.68119
5.68641
5.69114
5.69742
5.70639
5.71778
5.73033
5.74044
5.74606
5.74899
5.7512
5.75631
5.7667
5.78067
5.7945
5.80529
5.81056
5.81091
5.80982
5.81098
5.81777
5.83002
5.84367
5.85505
5.86122
5.86232
5.86108
5.8608
5.86477
5.87441
5.88734
5.89954
5.90753
5.91044
5.9103
5.91052
5.91368
5.92177
5.93272
5.94129
5.94484
5.94539
5.94625
5.94917
5.95414
5.96064
5.96476
5.9643
5.96105
5.95848
5.95927
5.96333
5.96963
5.97535
5.97798
5.97779
5.97655
5.97458
5.97163
5.96773
5.96317
5.95814
5.95358
5.95109
5.95249
1.40001
1.40001
1.40001
1.40001
1.40001
1.40001
1.40001
1.40001
1.40001
1.40001
1.40001
1.40001
1.40001
1.40001
1.40001
1.40001
1.40001
1.40001
1.40001
1.40001
1.40001
1.40001
1.40001
1.40001
1.40001
1.40001
1.40001
1.40001
1.40001
1.40001
1.40001
1.40001
1.40001
1.40001
1.40001
1.40001
1.40001
1.40001
1.40001
1.40001
1.40001
1.40001
1.40001
1.40001
1.40001
1.40001
1.40001
1.40001
1.40001
1.40001
1.40001
1.40001
1.40001
1.40001
1.40001
1.40001
1.40001
1.40001
1.40001
1.40001
1.40001
1.40001
1.40001
1.40001
1.40001
1.40001
1.40001
1.40001
1.40001
1.40001
1.40001
1.40001
1.40001
1.40001
1.40001
1.40001
1.40001
1.40001
1.40001
1.40001
1.40001
1.40001
1.40001
1.40001
1.40001
1.40001
1.40001
1.40001
1.40001
1.40001
1.40001
1.40001
1.40001
1.40001
1.40001
1.40001
1.40001
1.40001
1.40001
2.93207
5.24148
5.42763
5.4341
5.44024
5.44465
5.45049
5.45824
5.46885
5.48147
5.49436
5.5067
5.51909
5.53207
5.54537
5.55822
5.56977
5.57959
5.58763
5.59395
5.59956
5.60613
5.61464
5.62521
5.63722
5.64987
5.66176
5.67124
5.67783
5.68309
5.68897
5.69668
5.70684
5.71852
5.7297
5.73715
5.74086
5.7439
5.7481
5.75649
5.76911
5.78266
5.79443
5.80206
5.8046
5.80468
5.8056
5.81028
5.81967
5.83172
5.84334
5.85201
5.85602
5.85658
5.85617
5.85771
5.86368
5.8741
5.8866
5.89753
5.90423
5.90641
5.90627
5.90699
5.91137
5.92081
5.93189
5.93908
5.94073
5.94047
5.9416
5.94574
5.9526
5.95988
5.9632
5.96084
5.95614
5.95355
5.95567
5.96146
5.96871
5.97352
5.97451
5.97363
5.97247
5.97135
5.96922
5.96536
5.96023
5.95468
5.95014
5.94813
5.95012
1.40001
1.40001
1.40001
1.40001
1.40001
1.40001
1.40001
1.40001
1.40001
1.40001
1.40001
1.40001
1.40001
1.40001
1.40001
1.40001
1.40001
1.40001
1.40001
1.40001
1.40001
1.40001
1.40001
1.40001
1.40001
1.40001
1.40001
1.40001
1.40001
1.40001
1.40001
1.40001
1.40001
1.40001
1.40001
1.40001
1.40001
1.40001
1.40001
1.40001
1.40001
1.40001
1.40001
1.40001
1.40001
1.40001
1.40001
1.40001
1.40001
1.40001
1.40001
1.40001
1.40001
1.40001
1.40001
1.40001
1.40001
1.40001
1.40001
1.40001
1.40001
1.40001
1.40001
1.40001
1.40001
1.40001
1.40001
1.40001
1.40001
1.40001
1.40001
1.40001
1.40001
1.40001
1.40001
1.40001
1.40001
1.40001
1.40001
1.40001
1.40001
1.40001
1.40001
1.40001
1.40001
1.40001
1.40001
1.40001
1.40001
1.40001
1.40001
1.40001
1.40001
1.40001
1.40001
1.40001
1.40001
1.40001
1.40001
2.78519
5.19412
5.42896
5.43669
5.44418
5.44953
5.45442
5.45975
5.46754
5.47824
5.49064
5.50317
5.5161
5.53013
5.54472
5.55862
5.57072
5.58033
5.58766
5.59315
5.5979
5.60389
5.6123
5.62307
5.63542
5.64823
5.65998
5.6691
5.67559
5.68147
5.68823
5.69649
5.70676
5.71764
5.72659
5.73204
5.73572
5.74059
5.74761
5.75851
5.77114
5.78279
5.79148
5.79577
5.79736
5.79923
5.80379
5.81182
5.82227
5.8327
5.84139
5.84695
5.8497
5.85096
5.85247
5.85627
5.86347
5.87361
5.8848
5.89428
5.89996
5.90193
5.90225
5.9038
5.90956
5.91997
5.93042
5.93606
5.93618
5.93532
5.93693
5.94255
5.95137
5.95887
5.96083
5.95664
5.9509
5.94869
5.95223
5.95974
5.96749
5.9712
5.97047
5.9689
5.96809
5.96802
5.96691
5.96312
5.95721
5.95089
5.94641
5.94498
5.94766
1.40001
1.40001
1.40001
1.40001
1.40001
1.40001
1.40001
1.40001
1.40001
1.40001
1.40001
1.40001
1.40001
1.40001
1.40001
1.40001
1.40001
1.40001
1.40001
1.40001
1.40001
1.40001
1.40001
1.40001
1.40001
1.40001
1.40001
1.40001
1.40001
1.40001
1.40001
1.40001
1.40001
1.40001
1.40001
1.40001
1.40001
1.40001
1.40001
1.40001
1.40001
1.40001
1.40001
1.40001
1.40001
1.40001
1.40001
1.40001
1.40001
1.40001
1.40001
1.40001
1.40001
1.40001
1.40001
1.40001
1.40001
1.40001
1.40001
1.40001
1.40001
1.40001
1.40001
1.40001
1.40001
1.40001
1.40001
1.40001
1.40001
1.40001
1.40001
1.40001
1.40001
1.40001
1.40001
1.40001
1.40001
1.40001
1.40001
1.40001
1.40001
1.40001
1.40001
1.40001
1.40001
1.40001
1.40001
1.40001
1.40001
1.40001
1.40001
1.40001
1.40001
1.40001
1.40001
1.40001
1.40001
1.40001
1.40001
2.63767
5.13617
5.42707
5.43755
5.44724
5.45366
5.45796
5.46159
5.46708
5.47554
5.4871
5.50015
5.51379
5.52845
5.54385
5.55852
5.57112
5.58093
5.58798
5.59303
5.59718
5.60228
5.60985
5.62007
5.6323
5.64537
5.65762
5.66741
5.67474
5.68137
5.68831
5.69593
5.70509
5.71425
5.72143
5.72689
5.73239
5.73965
5.74884
5.76038
5.77173
5.78067
5.78596
5.78851
5.79102
5.79592
5.80394
5.81392
5.82379
5.83194
5.83741
5.8408
5.84333
5.84601
5.84983
5.85561
5.86349
5.87287
5.88238
5.89022
5.89496
5.89693
5.89799
5.90083
5.9082
5.91909
5.92824
5.93206
5.93123
5.93015
5.93253
5.93977
5.95019
5.95744
5.95762
5.95174
5.94551
5.94415
5.94918
5.95823
5.96572
5.96796
5.96577
5.9637
5.96356
5.96473
5.96469
5.96084
5.95391
5.94664
5.94227
5.94163
5.94521
1.40001
1.40001
1.40001
1.40001
1.40001
1.40001
1.40001
1.40001
1.40001
1.40001
1.40001
1.40001
1.40001
1.40001
1.40001
1.40001
1.40001
1.40001
1.40001
1.40001
1.40001
1.40001
1.40001
1.40001
1.40001
1.40001
1.40001
1.40001
1.40001
1.40001
1.40001
1.40001
1.40001
1.40001
1.40001
1.40001
1.40001
1.40001
1.40001
1.40001
1.40001
1.40001
1.40001
1.40001
1.40001
1.40001
1.40001
1.40001
1.40001
1.40001
1.40001
1.40001
1.40001
1.40001
1.40001
1.40001
1.40001
1.40001
1.40001
1.40001
1.40001
1.40001
1.40001
1.40001
1.40001
1.40001
1.40001
1.40001
1.40001
1.40001
1.40001
1.40001
1.40001
1.40001
1.40001
1.40001
1.40001
1.40001
1.40001
1.40001
1.40001
1.40001
1.40001
1.40001
1.40001
1.40001
1.40001
1.40001
1.40001
1.40001
1.40001
1.40001
1.40001
1.40001
1.40001
1.40001
1.40001
1.40001
1.40001
2.48932
5.07223
5.42148
5.43603
5.44927
5.45669
5.46107
5.46385
5.46762
5.4741
5.48435
5.49746
5.51175
5.52703
5.54286
5.55802
5.57108
5.5813
5.58856
5.59361
5.59749
5.60166
5.6077
5.61661
5.62832
5.64182
5.65523
5.66647
5.67501
5.68198
5.68825
5.69424
5.70152
5.70931
5.71635
5.72351
5.73132
5.74005
5.74993
5.76049
5.76966
5.77579
5.77944
5.78232
5.78688
5.7945
5.80445
5.81479
5.82344
5.82924
5.83252
5.83493
5.8378
5.84192
5.8476
5.85481
5.8631
5.87169
5.87959
5.88572
5.88947
5.89151
5.89367
5.89848
5.9075
5.91815
5.92527
5.92689
5.92558
5.92496
5.92858
5.93761
5.9487
5.95501
5.95331
5.94621
5.94017
5.94011
5.94669
5.95667
5.96318
5.96363
5.96038
5.95814
5.95901
5.96172
5.96254
5.9583
5.95023
5.94199
5.93772
5.93814
5.94286
1.40001
1.40001
1.40001
1.40001
1.40001
1.40001
1.40001
1.40001
1.40001
1.40001
1.40001
1.40001
1.40001
1.40001
1.40001
1.40001
1.40001
1.40001
1.40001
1.40001
1.40001
1.40001
1.40001
1.40001
1.40001
1.40001
1.40001
1.40001
1.40001
1.40001
1.40001
1.40001
1.40001
1.40001
1.40001
1.40001
1.40001
1.40001
1.40001