/*--------------------------------*- C++ -*----------------------------------*\
  =========                 |
  \\      /  F ield         | OpenFOAM: The Open Source CFD Toolbox
   \\    /   O peration     | Website:  https://openfoam.org
    \\  /    A nd           | Version:  7
     \\/     M anipulation  |
\*---------------------------------------------------------------------------*/
FoamFile
{
    version     2.0;
    format      ascii;
    class       volScalarField;
    location    "2.7";
    object      T;
}
// * * * * * * * * * * * * * * * * * * * * * * * * * * * * * * * * * * * * * //

dimensions      [0 0 0 1 0 0 0];

internalField   nonuniform List<scalar> 
258048
(
1
1
1
1
1
1
1
1
1
1
1
1
1
1
1
1
1
1
1
1
1
1
1
1
1
1
1
1
1
1
1
1
1
1
1
1
1
1
1
1
1
1
1
1
1
1
1
1
1
1
1
1
1
1
1
1
1
1
1
1
1
1
1
1
1
1
1
1
1
1
1
1
1
1
1
1
1
1
1
1
1
1
1
1
1
1
1
1
1
1
1
1
1
1
1
1
1
1
1
2.28665
2.67941
2.69113
2.69514
2.69859
2.70079
2.70215
2.70266
2.70278
2.70279
2.70294
2.70362
2.70551
2.709
2.71391
2.71949
2.72472
2.72866
2.73081
2.73125
2.73081
2.73025
2.73031
2.73132
2.73334
2.73579
2.73824
2.74063
2.74306
2.74547
2.74793
2.75049
2.75287
2.75494
2.75658
2.75766
2.7581
2.7581
2.75822
2.75919
2.76159
2.76509
2.76878
2.77153
2.77271
2.77284
2.77294
2.77363
2.77553
2.77833
2.78094
2.78239
2.78251
2.78233
2.7826
2.78386
2.78616
2.78863
2.79021
2.79055
2.7903
2.79029
2.79124
2.79337
2.79568
2.797
2.79692
2.79601
2.79528
2.7954
2.79658
2.79856
2.80032
2.8012
2.80142
2.80188
2.80296
2.80453
2.80609
2.80721
2.80782
2.80822
2.80878
2.80968
2.81079
2.81199
2.81344
2.81547
2.8182
2.82134
2.82424
2.82616
2.82638
1
1
1
1
1
1
1
1
1
1
1
1
1
1
1
1
1
1
1
1
1
1
1
1
1
1
1
1
1
1
1
1
1
1
1
1
1
1
1
1
1
1
1
1
1
1
1
1
1
1
1
1
1
1
1
1
1
1
1
1
1
1
1
1
1
1
1
1
1
1
1
1
1
1
1
1
1
1
1
1
1
1
1
1
1
1
1
1
1
1
1
1
1
1
1
1
1
1
1
2.28403
2.679
2.69126
2.69508
2.69852
2.70061
2.7019
2.70249
2.70275
2.70296
2.70327
2.70406
2.70591
2.70918
2.7137
2.7189
2.72398
2.7281
2.73069
2.73163
2.73145
2.73101
2.73094
2.73157
2.7331
2.7352
2.73762
2.74025
2.743
2.74569
2.7483
2.75089
2.75323
2.75518
2.75666
2.75765
2.7581
2.75816
2.75835
2.75943
2.76188
2.76527
2.76873
2.77132
2.77254
2.77284
2.77305
2.77388
2.77584
2.77853
2.78096
2.78229
2.78246
2.78237
2.78273
2.78406
2.78632
2.78869
2.7902
2.79057
2.79037
2.7904
2.79136
2.7934
2.7956
2.79686
2.79684
2.79602
2.79536
2.79554
2.79672
2.79855
2.80013
2.80096
2.80123
2.80181
2.80301
2.80461
2.80611
2.80714
2.80771
2.80813
2.80875
2.80972
2.81083
2.81194
2.81331
2.81534
2.81812
2.82133
2.82426
2.82618
2.82638
1
1
1
1
1
1
1
1
1
1
1
1
1
1
1
1
1
1
1
1
1
1
1
1
1
1
1
1
1
1
1
1
1
1
1
1
1
1
1
1
1
1
1
1
1
1
1
1
1
1
1
1
1
1
1
1
1
1
1
1
1
1
1
1
1
1
1
1
1
1
1
1
1
1
1
1
1
1
1
1
1
1
1
1
1
1
1
1
1
1
1
1
1
1
1
1
1
1
1
2.27842
2.67851
2.69123
2.6951
2.69854
2.70047
2.70162
2.70219
2.70261
2.70307
2.70367
2.70465
2.7065
2.70952
2.71358
2.71827
2.72303
2.72721
2.7302
2.73174
2.73208
2.73197
2.73189
2.73217
2.73305
2.73457
2.73665
2.73925
2.74223
2.7453
2.74831
2.75115
2.7536
2.75544
2.75665
2.75736
2.75769
2.7578
2.75815
2.75949
2.76215
2.76551
2.76868
2.77087
2.77188
2.77226
2.77268
2.77383
2.77604
2.7787
2.78087
2.78192
2.78203
2.78205
2.78259
2.78408
2.78637
2.7886
2.78997
2.79031
2.7902
2.79035
2.79139
2.79334
2.79534
2.79647
2.79648
2.79581
2.79531
2.79563
2.79688
2.79856
2.79988
2.80054
2.80085
2.80158
2.80298
2.80469
2.80617
2.80708
2.80756
2.80798
2.80867
2.80972
2.81085
2.81187
2.81312
2.81511
2.81795
2.82124
2.82423
2.82613
2.8263
1
1
1
1
1
1
1
1
1
1
1
1
1
1
1
1
1
1
1
1
1
1
1
1
1
1
1
1
1
1
1
1
1
1
1
1
1
1
1
1
1
1
1
1
1
1
1
1
1
1
1
1
1
1
1
1
1
1
1
1
1
1
1
1
1
1
1
1
1
1
1
1
1
1
1
1
1
1
1
1
1
1
1
1
1
1
1
1
1
1
1
1
1
1
1
1
1
1
1
2.2702
2.67771
2.69127
2.69522
2.6987
2.70047
2.70145
2.70189
2.7023
2.703
2.70398
2.70527
2.70715
2.7099
2.71351
2.7177
2.72208
2.72625
2.72968
2.73187
2.73278
2.73293
2.73279
2.73268
2.73294
2.73385
2.73565
2.7383
2.74158
2.74511
2.74854
2.7516
2.75407
2.75577
2.7567
2.75714
2.75735
2.75754
2.75812
2.75977
2.76257
2.76578
2.76859
2.77042
2.77128
2.77174
2.77246
2.77399
2.77635
2.77884
2.78071
2.78154
2.78168
2.78187
2.78263
2.78427
2.78648
2.78851
2.78974
2.79012
2.79017
2.79048
2.79156
2.79334
2.79507
2.79603
2.79603
2.79556
2.7953
2.79578
2.79708
2.79855
2.79954
2.80001
2.80038
2.80132
2.80295
2.80479
2.80621
2.80697
2.80738
2.8078
2.80857
2.80972
2.81083
2.81173
2.81287
2.81482
2.81773
2.82116
2.82422
2.8261
2.82623
1
1
1
1
1
1
1
1
1
1
1
1
1
1
1
1
1
1
1
1
1
1
1
1
1
1
1
1
1
1
1
1
1
1
1
1
1
1
1
1
1
1
1
1
1
1
1
1
1
1
1
1
1
1
1
1
1
1
1
1
1
1
1
1
1
1
1
1
1
1
1
1
1
1
1
1
1
1
1
1
1
1
1
1
1
1
1
1
1
1
1
1
1
1
1
1
1
1
1
2.25914
2.67721
2.69133
2.69538
2.69885
2.70053
2.70146
2.70177
2.70199
2.70262
2.70385
2.7055
2.70757
2.71027
2.71365
2.7175
2.72157
2.7255
2.72905
2.73172
2.73315
2.73357
2.73342
2.73301
2.73295
2.73342
2.7349
2.7375
2.74095
2.74482
2.74861
2.75191
2.75441
2.75598
2.75666
2.75682
2.75693
2.75725
2.75818
2.76018
2.76302
2.76596
2.76833
2.76978
2.77055
2.77122
2.77235
2.77424
2.77661
2.77881
2.78032
2.78101
2.78129
2.78176
2.78278
2.78449
2.78649
2.78821
2.7893
2.7898
2.7901
2.79065
2.79175
2.79328
2.79469
2.79543
2.79545
2.79522
2.79526
2.79598
2.79727
2.79847
2.79914
2.79942
2.79987
2.80105
2.80291
2.80483
2.80617
2.80681
2.80717
2.80762
2.80847
2.80968
2.81075
2.81153
2.81256
2.81447
2.81748
2.82104
2.82419
2.82604
2.82614
1
1
1
1
1
1
1
1
1
1
1
1
1
1
1
1
1
1
1
1
1
1
1
1
1
1
1
1
1
1
1
1
1
1
1
1
1
1
1
1
1
1
1
1
1
1
1
1
1
1
1
1
1
1
1
1
1
1
1
1
1
1
1
1
1
1
1
1
1
1
1
1
1
1
1
1
1
1
1
1
1
1
1
1
1
1
1
1
1
1
1
1
1
1
1
1
1
1
1
2.24484
2.67715
2.69156
2.69561
2.69887
2.70053
2.70151
2.70183
2.70191
2.70223
2.70333
2.70518
2.70757
2.7105
2.71394
2.71771
2.72157
2.72525
2.72855
2.73128
2.733
2.73369
2.73366
2.73325
2.73302
2.73331
2.73454
2.73697
2.74047
2.74456
2.7486
2.75207
2.75461
2.75606
2.75649
2.75643
2.75651
2.75707
2.75841
2.76069
2.76343
2.76597
2.76785
2.769
2.76983
2.77086
2.77246
2.77459
2.77677
2.77856
2.77969
2.78035
2.78092
2.78178
2.7831
2.78473
2.78636
2.78771
2.78868
2.78938
2.79003
2.79087
2.79197
2.79319
2.79419
2.79472
2.79482
2.79485
2.79524
2.79619
2.7974
2.7983
2.79869
2.79885
2.79941
2.80083
2.80286
2.80478
2.80603
2.8066
2.80696
2.80747
2.80838
2.8096
2.81057
2.81122
2.81219
2.8141
2.81721
2.8209
2.82413
2.82595
2.82605
1
1
1
1
1
1
1
1
1
1
1
1
1
1
1
1
1
1
1
1
1
1
1
1
1
1
1
1
1
1
1
1
1
1
1
1
1
1
1
1
1
1
1
1
1
1
1
1
1
1
1
1
1
1
1
1
1
1
1
1
1
1
1
1
1
1
1
1
1
1
1
1
1
1
1
1
1
1
1
1
1
1
1
1
1
1
1
1
1
1
1
1
1
1
1
1
1
1
1
2.22692
2.67713
2.6921
2.69593
2.69877
2.70037
2.70148
2.70196
2.70207
2.70217
2.7028
2.70448
2.70708
2.71039
2.71419
2.71813
2.72191
2.72535
2.72827
2.73068
2.73241
2.73333
2.73357
2.73344
2.73327
2.73348
2.73453
2.73675
2.7401
2.74424
2.74848
2.7521
2.75466
2.75596
2.75618
2.756
2.75612
2.75698
2.75874
2.7612
2.76369
2.76576
2.76718
2.76816
2.76921
2.77075
2.77278
2.77492
2.77673
2.778
2.77883
2.77959
2.7806
2.78196
2.78351
2.78493
2.78609
2.78703
2.78791
2.78886
2.78995
2.7911
2.79218
2.79304
2.79362
2.79394
2.79415
2.79451
2.79526
2.79636
2.79742
2.79803
2.79819
2.79831
2.79904
2.80067
2.80276
2.80462
2.80577
2.80633
2.80674
2.80736
2.80832
2.80949
2.81032
2.81082
2.81175
2.81371
2.81691
2.82074
2.82404
2.82582
2.82594
1
1
1
1
1
1
1
1
1
1
1
1
1
1
1
1
1
1
1
1
1
1
1
1
1
1
1
1
1
1
1
1
1
1
1
1
1
1
1
1
1
1
1
1
1
1
1
1
1
1
1
1
1
1
1
1
1
1
1
1
1
1
1
1
1
1
1
1
1
1
1
1
1
1
1
1
1
1
1
1
1
1
1
1
1
1
1
1
1
1
1
1
1
1
1
1
1
1
1
2.20533
2.67658
2.69293
2.69634
2.69863
2.70005
2.70126
2.70199
2.70232
2.7024
2.70268
2.70388
2.70637
2.70993
2.71413
2.71841
2.72228
2.72553
2.72811
2.73011
2.73166
2.73273
2.73333
2.73356
2.73367
2.73392
2.73479
2.73676
2.73987
2.7439
2.74819
2.75192
2.75449
2.75564
2.7557
2.75551
2.75581
2.75705
2.75914
2.76155
2.76371
2.7653
2.76634
2.76735
2.76886
2.77093
2.77323
2.77516
2.77645
2.77717
2.7778
2.77882
2.78039
2.78226
2.78392
2.78502
2.78567
2.78624
2.78707
2.78832
2.78987
2.79131
2.79229
2.79279
2.79299
2.79313
2.79347
2.7942
2.7953
2.79645
2.79729
2.79763
2.79764
2.7978
2.79875
2.80054
2.80262
2.80434
2.8054
2.80599
2.80652
2.80726
2.80827
2.80934
2.81
2.81037
2.81128
2.81329
2.81659
2.82053
2.8239
2.82567
2.82587
1
1
1
1
1
1
1
1
1
1
1
1
1
1
1
1
1
1
1
1
1
1
1
1
1
1
1
1
1
1
1
1
1
1
1
1
1
1
1
1
1
1
1
1
1
1
1
1
1
1
1
1
1
1
1
1
1
1
1
1
1
1
1
1
1
1
1
1
1
1
1
1
1
1
1
1
1
1
1
1
1
1
1
1
1
1
1
1
1
1
1
1
1
1
1
1
1
1
1
2.18057
2.675
2.69367
2.69666
2.6985
2.69966
2.70085
2.70186
2.70251
2.70278
2.70298
2.70376
2.70582
2.70929
2.71366
2.71826
2.72238
2.72561
2.72796
2.72966
2.73099
2.73209
2.73299
2.73365
2.73407
2.73441
2.73518
2.73693
2.73985
2.74365
2.74779
2.75147
2.75398
2.75502
2.75512
2.75515
2.75576
2.7573
2.75943
2.76161
2.76337
2.76452
2.76545
2.7668
2.76886
2.77136
2.77363
2.77516
2.77586
2.77614
2.77673
2.77814
2.78032
2.78259
2.7842
2.78488
2.78508
2.78542
2.78627
2.78787
2.78982
2.79143
2.79226
2.79242
2.79234
2.79235
2.79285
2.79398
2.79534
2.79643
2.79701
2.79715
2.79708
2.79734
2.79854
2.80046
2.80243
2.80396
2.80493
2.8056
2.80629
2.80717
2.8082
2.80914
2.80963
2.80988
2.81076
2.81282
2.81621
2.82026
2.82368
2.82547
2.8258
1
1
1
1
1
1
1
1
1
1
1
1
1
1
1
1
1
1
1
1
1
1
1
1
1
1
1
1
1
1
1
1
1
1
1
1
1
1
1
1
1
1
1
1
1
1
1
1
1
1
1
1
1
1
1
1
1
1
1
1
1
1
1
1
1
1
1
1
1
1
1
1
1
1
1
1
1
1
1
1
1
1
1
1
1
1
1
1
1
1
1
1
1
1
1
1
1
1
1
2.1531
2.67222
2.69397
2.6968
2.69846
2.69939
2.70043
2.70156
2.70259
2.70323
2.70356
2.7041
2.70567
2.7087
2.71291
2.71762
2.722
2.72545
2.72781
2.72939
2.73056
2.73161
2.73265
2.73359
2.73427
2.73476
2.73557
2.73725
2.74
2.74356
2.74739
2.75083
2.75317
2.75416
2.75455
2.75504
2.756
2.75762
2.75955
2.76134
2.7626
2.76355
2.76474
2.76663
2.76919
2.77182
2.7738
2.77479
2.77496
2.775
2.77577
2.77775
2.78042
2.78283
2.78418
2.78443
2.78436
2.78462
2.78562
2.78754
2.78973
2.79135
2.792
2.79192
2.79166
2.79166
2.79237
2.79382
2.79532
2.79626
2.7966
2.79662
2.79654
2.79695
2.79837
2.80035
2.80216
2.80348
2.80438
2.80517
2.80603
2.80706
2.80811
2.80889
2.80921
2.80939
2.81024
2.81233
2.8158
2.81992
2.82341
2.82523
2.82573
1
1
1
1
1
1
1
1
1
1
1
1
1
1
1
1
1
1
1
1
1
1
1
1
1
1
1
1
1
1
1
1
1
1
1
1
1
1
1
1
1
1
1
1
1
1
1
1
1
1
1
1
1
1
1
1
1
1
1
1
1
1
1
1
1
1
1
1
1
1
1
1
1
1
1
1
1
1
1
1
1
1
1
1
1
1
1
1
1
1
1
1
1
1
1
1
1
1
1
2.12306
2.66827
2.69354
2.69664
2.69847
2.69937
2.70033
2.7014
2.70259
2.70359
2.70421
2.70472
2.70585
2.70829
2.71207
2.71661
2.72111
2.72486
2.72752
2.72923
2.73039
2.73139
2.7324
2.73339
2.73422
2.73496
2.73595
2.7377
2.74034
2.74356
2.74694
2.74997
2.75209
2.75322
2.75412
2.75513
2.75638
2.75786
2.75939
2.76058
2.76149
2.76262
2.76436
2.76684
2.7697
2.77211
2.77356
2.77396
2.77379
2.77391
2.77521
2.77772
2.78057
2.78277
2.78376
2.78372
2.78355
2.78388
2.78514
2.78732
2.78958
2.79107
2.79151
2.79128
2.79097
2.79107
2.79203
2.79369
2.79518
2.79592
2.79608
2.79605
2.79603
2.79664
2.79823
2.80017
2.80179
2.80292
2.80378
2.80471
2.80574
2.80691
2.80798
2.80858
2.80875
2.80889
2.80973
2.81183
2.81534
2.81951
2.82304
2.82495
2.82563
1
1
1
1
1
1
1
1
1
1
1
1
1
1
1
1
1
1
1
1
1
1
1
1
1
1
1
1
1
1
1
1
1
1
1
1
1
1
1
1
1
1
1
1
1
1
1
1
1
1
1
1
1
1
1
1
1
1
1
1
1
1
1
1
1
1
1
1
1
1
1
1
1
1
1
1
1
1
1
1
1
1
1
1
1
1
1
1
1
1
1
1
1
1
1
1
1
1
1
2.08998
2.66356
2.69221
2.69589
2.69825
2.69944
2.70056
2.70166
2.70285
2.70394
2.70475
2.70534
2.7062
2.70805
2.71125
2.71544
2.71989
2.72387
2.72689
2.72894
2.7303
2.73131
2.73224
2.73317
2.73408
2.73501
2.73625
2.73812
2.74062
2.74348
2.74634
2.74891
2.75092
2.75237
2.75387
2.75536
2.75669
2.75788
2.75878
2.75944
2.76029
2.76193
2.76436
2.76734
2.77013
2.77205
2.77281
2.77273
2.7725
2.7731
2.7751
2.77792
2.78063
2.78241
2.78296
2.78278
2.78267
2.78324
2.78485
2.78722
2.78938
2.79061
2.79081
2.7905
2.79026
2.79057
2.79182
2.79356
2.79492
2.79542
2.79547
2.79547
2.79559
2.79643
2.79811
2.7999
2.8013
2.80229
2.80315
2.80424
2.80543
2.80671
2.80776
2.80821
2.80825
2.80839
2.80924
2.81133
2.81485
2.81904
2.82259
2.82463
2.8255
1
1
1
1
1
1
1
1
1
1
1
1
1
1
1
1
1
1
1
1
1
1
1
1
1
1
1
1
1
1
1
1
1
1
1
1
1
1
1
1
1
1
1
1
1
1
1
1
1
1
1
1
1
1
1
1
1
1
1
1
1
1
1
1
1
1
1
1
1
1
1
1
1
1
1
1
1
1
1
1
1
1
1
1
1
1
1
1
1
1
1
1
1
1
1
1
1
1
1
2.05331
2.65854
2.68977
2.69445
2.69761
2.6993
2.70083
2.70215
2.70342
2.70449
2.70526
2.70582
2.70649
2.70787
2.71047
2.71423
2.71853
2.72264
2.72602
2.72848
2.73012
2.73124
2.73213
2.73297
2.73388
2.73496
2.7364
2.73833
2.74064
2.7431
2.74547
2.74776
2.74988
2.75181
2.75382
2.75554
2.75673
2.75745
2.75778
2.75815
2.75933
2.76166
2.76471
2.76784
2.77024
2.77147
2.7716
2.77131
2.77137
2.77272
2.77528
2.77816
2.78053
2.78178
2.78189
2.78168
2.78176
2.78272
2.78473
2.78715
2.78908
2.78996
2.78996
2.78965
2.78957
2.79017
2.79168
2.79338
2.7945
2.79477
2.79476
2.79486
2.79521
2.79632
2.798
2.79953
2.80067
2.80156
2.8025
2.80377
2.80513
2.80648
2.80742
2.80773
2.8077
2.80788
2.80876
2.81083
2.81433
2.81853
2.82209
2.82425
2.82528
1
1
1
1
1
1
1
1
1
1
1
1
1
1
1
1
1
1
1
1
1
1
1
1
1
1
1
1
1
1
1
1
1
1
1
1
1
1
1
1
1
1
1
1
1
1
1
1
1
1
1
1
1
1
1
1
1
1
1
1
1
1
1
1
1
1
1
1
1
1
1
1
1
1
1
1
1
1
1
1
1
1
1
1
1
1
1
1
1
1
1
1
1
1
1
1
1
1
1
2.01192
2.65367
2.68637
2.6923
2.69642
2.69881
2.7009
2.70252
2.70397
2.70508
2.70578
2.70621
2.70669
2.70769
2.70976
2.71302
2.71708
2.72127
2.72495
2.72776
2.7297
2.731
2.73195
2.7328
2.73373
2.73491
2.73644
2.73828
2.7403
2.74233
2.74444
2.74674
2.74917
2.75157
2.75385
2.7555
2.75634
2.75657
2.75659
2.75707
2.75889
2.76184
2.76516
2.76803
2.76983
2.77039
2.7702
2.76999
2.77065
2.77271
2.77555
2.77824
2.78012
2.78086
2.78072
2.78054
2.78093
2.78235
2.78464
2.78701
2.78862
2.78918
2.78906
2.78879
2.7889
2.78986
2.79156
2.79313
2.79392
2.79401
2.79399
2.79422
2.79488
2.7963
2.79789
2.79906
2.79991
2.80072
2.80182
2.80332
2.80485
2.8062
2.80697
2.80713
2.80709
2.80734
2.8083
2.81035
2.8138
2.81797
2.82153
2.82381
2.82498
1
1
1
1
1
1
1
1
1
1
1
1
1
1
1
1
1
1
1
1
1
1
1
1
1
1
1
1
1
1
1
1
1
1
1
1
1
1
1
1
1
1
1
1
1
1
1
1
1
1
1
1
1
1
1
1
1
1
1
1
1
1
1
1
1
1
1
1
1
1
1
1
1
1
1
1
1
1
1
1
1
1
1
1
1
1
1
1
1
1
1
1
1
1
1
1
1
1
1
1.96517
2.6489
2.68252
2.68949
2.69448
2.69779
2.70053
2.70254
2.70423
2.70553
2.70629
2.7066
2.70687
2.70754
2.70915
2.71191
2.71561
2.71973
2.72361
2.72671
2.72897
2.73054
2.73169
2.73267
2.73371
2.73495
2.73642
2.73801
2.73961
2.74136
2.74347
2.746
2.74878
2.75146
2.75372
2.75506
2.75546
2.75545
2.7555
2.75651
2.75896
2.76219
2.76534
2.76773
2.76887
2.76902
2.76885
2.7691
2.77048
2.7729
2.77564
2.77796
2.7793
2.77966
2.77951
2.77953
2.7803
2.78208
2.78446
2.78666
2.78798
2.78831
2.78813
2.78795
2.78828
2.78958
2.79141
2.79279
2.79322
2.79316
2.79318
2.79359
2.7946
2.7963
2.79777
2.79851
2.79905
2.79976
2.8011
2.80287
2.80459
2.80587
2.80641
2.80643
2.8064
2.80678
2.80785
2.8099
2.81328
2.81738
2.82092
2.8233
2.82461
1
1
1
1
1
1
1
1
1
1
1
1
1
1
1
1
1
1
1
1
1
1
1
1
1
1
1
1
1
1
1
1
1
1
1
1
1
1
1
1
1
1
1
1
1
1
1
1
1
1
1
1
1
1
1
1
1
1
1
1
1
1
1
1
1
1
1
1
1
1
1
1
1
1
1
1
1
1
1
1
1
1
1
1
1
1
1
1
1
1
1
1
1
1
1
1
1
1
1
1.91357
2.64347
2.6794
2.68644
2.69181
2.696
2.69944
2.70204
2.70413
2.7057
2.70658
2.70691
2.70707
2.70751
2.7087
2.71096
2.71421
2.71808
2.72201
2.7254
2.72798
2.72988
2.7313
2.73249
2.73363
2.73486
2.73618
2.73746
2.73876
2.74039
2.74264
2.74542
2.74843
2.75119
2.75326
2.75423
2.75435
2.75438
2.75485
2.75654
2.75933
2.7624
2.76506
2.76678
2.76744
2.76756
2.76779
2.76875
2.77063
2.77304
2.77539
2.77717
2.77809
2.77835
2.77838
2.77875
2.77989
2.78183
2.78412
2.78609
2.78719
2.7874
2.78721
2.78713
2.78771
2.78928
2.79115
2.79231
2.79242
2.7922
2.7923
2.79298
2.79439
2.79628
2.79754
2.79788
2.79812
2.79875
2.80037
2.80243
2.80434
2.80547
2.80572
2.80563
2.80563
2.80619
2.80742
2.80946
2.81273
2.81673
2.82025
2.82273
2.82417
1
1
1
1
1
1
1
1
1
1
1
1
1
1
1
1
1
1
1
1
1
1
1
1
1
1
1
1
1
1
1
1
1
1
1
1
1
1
1
1
1
1
1
1
1
1
1
1
1
1
1
1
1
1
1
1
1
1
1
1
1
1
1
1
1
1
1
1
1
1
1
1
1
1
1
1
1
1
1
1
1
1
1
1
1
1
1
1
1
1
1
1
1
1
1
1
1
1
1
1.85703
2.63647
2.67824
2.68372
2.68874
2.69345
2.69761
2.70089
2.70355
2.70548
2.70658
2.70698
2.70716
2.70752
2.70843
2.71023
2.71297
2.71648
2.72033
2.72391
2.72682
2.72906
2.73077
2.73214
2.73334
2.73452
2.73568
2.73677
2.73793
2.73961
2.74201
2.74489
2.74792
2.75056
2.75231
2.75301
2.75319
2.7536
2.75469
2.75684
2.7596
2.76223
2.76421
2.76529
2.76575
2.7662
2.76713
2.76876
2.77088
2.77301
2.77479
2.77599
2.77666
2.77704
2.77744
2.77824
2.77963
2.78152
2.78358
2.78528
2.78621
2.7864
2.78628
2.78636
2.78724
2.78901
2.79078
2.79167
2.79152
2.79119
2.79141
2.79242
2.79425
2.79616
2.79713
2.79717
2.79715
2.79776
2.79967
2.80201
2.80401
2.80495
2.80492
2.80473
2.80479
2.8056
2.80701
2.80901
2.81216
2.81601
2.81952
2.82211
2.82369
1
1
1
1
1
1
1
1
1
1
1
1
1
1
1
1
1
1
1
1
1
1
1
1
1
1
1
1
1
1
1
1
1
1
1
1
1
1
1
1
1
1
1
1
1
1
1
1
1
1
1
1
1
1
1
1
1
1
1
1
1
1
1
1
1
1
1
1
1
1
1
1
1
1
1
1
1
1
1
1
1
1
1
1
1
1
1
1
1
1
1
1
1
1
1
1
1
1
1
1.7965
2.62633
2.67881
2.68203
2.68614
2.69072
2.69519
2.69907
2.70235
2.70479
2.70628
2.70692
2.70721
2.70757
2.70834
2.70975
2.71198
2.71504
2.71869
2.7224
2.7256
2.72813
2.73002
2.73142
2.73259
2.73372
2.73487
2.73598
2.73723
2.73904
2.74149
2.74425
2.7471
2.74947
2.75095
2.75171
2.75229
2.75323
2.75477
2.75707
2.75954
2.76158
2.76289
2.76359
2.76421
2.76523
2.76686
2.76888
2.77092
2.77261
2.77378
2.77457
2.7752
2.77585
2.7767
2.77788
2.77941
2.78117
2.78292
2.78431
2.78507
2.78527
2.78529
2.78563
2.78684
2.78872
2.79027
2.79083
2.79052
2.79019
2.79056
2.79195
2.79415
2.79592
2.79651
2.79634
2.79616
2.79686
2.79904
2.80163
2.80357
2.80425
2.80402
2.80376
2.80395
2.80501
2.80659
2.80856
2.81152
2.81518
2.81871
2.82147
2.82321
1
1
1
1
1
1
1
1
1
1
1
1
1
1
1
1
1
1
1
1
1
1
1
1
1
1
1
1
1
1
1
1
1
1
1
1
1
1
1
1
1
1
1
1
1
1
1
1
1
1
1
1
1
1
1
1
1
1
1
1
1
1
1
1
1
1
1
1
1
1
1
1
1
1
1
1
1
1
1
1
1
1
1
1
1
1
1
1
1
1
1
1
1
1
1
1
1
1
1
1.73118
2.61304
2.68022
2.68096
2.68417
2.68843
2.69293
2.69714
2.7008
2.70366
2.7056
2.70663
2.70713
2.7076
2.70833
2.7095
2.71129
2.71391
2.71726
2.72096
2.72439
2.72712
2.72907
2.73042
2.7315
2.73264
2.73391
2.73524
2.73672
2.7386
2.74091
2.74339
2.74592
2.74806
2.74954
2.75068
2.75176
2.75307
2.75477
2.75688
2.75888
2.76036
2.76133
2.76207
2.76306
2.76461
2.76664
2.76877
2.77057
2.77181
2.77259
2.77319
2.77388
2.77482
2.77604
2.7775
2.77911
2.78073
2.78218
2.78324
2.78382
2.78404
2.78428
2.78502
2.78656
2.7884
2.7896
2.78976
2.78938
2.78917
2.7898
2.79157
2.79397
2.79551
2.79569
2.79537
2.79516
2.79609
2.79851
2.80125
2.80298
2.80334
2.80298
2.80271
2.80311
2.80446
2.80618
2.80806
2.81081
2.81424
2.81782
2.8208
2.82272
1
1
1
1
1
1
1
1
1
1
1
1
1
1
1
1
1
1
1
1
1
1
1
1
1
1
1
1
1
1
1
1
1
1
1
1
1
1
1
1
1
1
1
1
1
1
1
1
1
1
1
1
1
1
1
1
1
1
1
1
1
1
1
1
1
1
1
1
1
1
1
1
1
1
1
1
1
1
1
1
1
1
1
1
1
1
1
1
1
1
1
1
1
1
1
1
1
1
1
1.65741
2.59377
2.68164
2.68056
2.68298
2.68681
2.69116
2.69529
2.69906
2.70218
2.70447
2.70593
2.70681
2.7075
2.70827
2.7093
2.7108
2.71304
2.71608
2.71967
2.72317
2.72599
2.72791
2.72919
2.73022
2.73141
2.73288
2.73448
2.73614
2.738
2.74006
2.74221
2.74449
2.74661
2.74836
2.74995
2.75139
2.75279
2.75438
2.75609
2.75762
2.75884
2.75988
2.76095
2.76234
2.76414
2.7662
2.76817
2.76974
2.77076
2.77143
2.77205
2.77284
2.77393
2.77534
2.77699
2.77868
2.7802
2.78137
2.78209
2.78246
2.78272
2.78327
2.78452
2.78633
2.78795
2.7887
2.78851
2.78811
2.78817
2.7892
2.79134
2.79367
2.79488
2.79475
2.79429
2.79423
2.79551
2.79809
2.80077
2.8022
2.80225
2.80182
2.80165
2.80233
2.80396
2.80575
2.80749
2.81
2.81321
2.81686
2.82012
2.82222
1
1
1
1
1
1
1
1
1
1
1
1
1
1
1
1
1
1
1
1
1
1
1
1
1
1
1
1
1
1
1
1
1
1
1
1
1
1
1
1
1
1
1
1
1
1
1
1
1
1
1
1
1
1
1
1
1
1
1
1
1
1
1
1
1
1
1
1
1
1
1
1
1
1
1
1
1
1
1
1
1
1
1
1
1
1
1
1
1
1
1
1
1
1
1
1
1
1
1
1.57244
2.56732
2.68225
2.68068
2.68273
2.68587
2.68979
2.69365
2.69725
2.70042
2.70296
2.70482
2.70615
2.70719
2.70807
2.70903
2.71035
2.71231
2.7151
2.71847
2.72188
2.72465
2.72652
2.72782
2.72892
2.7302
2.73182
2.73359
2.73536
2.73711
2.73892
2.74087
2.74309
2.74538
2.74747
2.74939
2.75096
2.75223
2.7535
2.75475
2.75603
2.75738
2.75881
2.7603
2.76191
2.76364
2.76544
2.76713
2.76854
2.7696
2.77041
2.77115
2.77199
2.77309
2.77454
2.77629
2.77807
2.77953
2.78044
2.78086
2.78106
2.7814
2.7824
2.78416
2.78611
2.78734
2.78753
2.78712
2.78679
2.78723
2.7888
2.79117
2.79315
2.79389
2.79361
2.79315
2.7934
2.79511
2.79774
2.80013
2.8012
2.80102
2.80057
2.80062
2.80166
2.8035
2.80525
2.80682
2.80907
2.8121
2.81587
2.81941
2.82167
1
1
1
1
1
1
1
1
1
1
1
1
1
1
1
1
1
1
1
1
1
1
1
1
1
1
1
1
1
1
1
1
1
1
1
1
1
1
1
1
1
1
1
1
1
1
1
1
1
1
1
1
1
1
1
1
1
1
1
1
1
1
1
1
1
1
1
1
1
1
1
1
1
1
1
1
1
1
1
1
1
1
1
1
1
1
1
1
1
1
1
1
1
1
1
1
1
1
1
1.47899
2.53466
2.68256
2.68119
2.68309
2.68555
2.68875
2.69214
2.69541
2.69844
2.70108
2.70327
2.70506
2.7065
2.70759
2.70859
2.70986
2.71169
2.71424
2.71735
2.72053
2.72316
2.72495
2.72639
2.72772
2.72912
2.73079
2.73262
2.73439
2.736
2.73767
2.73962
2.74193
2.74441
2.74674
2.74878
2.75028
2.75128
2.75217
2.7531
2.75442
2.75615
2.75805
2.75984
2.76145
2.76293
2.76436
2.76579
2.7672
2.76848
2.76954
2.77039
2.77123
2.77225
2.77367
2.77548
2.77731
2.77868
2.77932
2.77949
2.77961
2.7802
2.78177
2.78389
2.78567
2.78639
2.78609
2.78557
2.78551
2.78649
2.78859
2.79094
2.79237
2.79262
2.79231
2.79203
2.79276
2.79484
2.79738
2.79929
2.79996
2.79969
2.79931
2.79968
2.80109
2.80302
2.80462
2.80601
2.80803
2.81097
2.8149
2.81868
2.82103
1
1
1
1
1
1
1
1
1
1
1
1
1
1
1
1
1
1
1
1
1
1
1
1
1
1
1
1
1
1
1
1
1
1
1
1
1
1
1
1
1
1
1
1
1
1
1
1
1
1
1
1
1
1
1
1
1
1
1
1
1
1
1
1
1
1
1
1
1
1
1
1
1
1
1
1
1
1
1
1
1
1
1
1
1
1
1
1
1
1
1
1
1
1
1
1
1
1
1
1.38298
2.49783
2.68321
2.68209
2.68374
2.68552
2.68803
2.69088
2.69372
2.69645
2.69904
2.70147
2.70367
2.70555
2.70699
2.70818
2.70951
2.71122
2.71348
2.71622
2.71909
2.7216
2.72341
2.72505
2.72665
2.72816
2.72979
2.73154
2.73321
2.73474
2.73648
2.73862
2.74104
2.74359
2.74596
2.74794
2.74924
2.74997
2.75064
2.75153
2.75312
2.7552
2.75736
2.75923
2.7607
2.76188
2.76304
2.76439
2.76594
2.76746
2.76869
2.76959
2.77039
2.77136
2.77278
2.77462
2.7764
2.77757
2.77796
2.77801
2.77823
2.77931
2.7814
2.78364
2.78496
2.78506
2.78446
2.78396
2.78439
2.78607
2.78845
2.79042
2.79124
2.79118
2.79091
2.79101
2.79236
2.79461
2.79685
2.7982
2.79851
2.7983
2.79814
2.7989
2.8006
2.80244
2.80382
2.80502
2.80689
2.80987
2.81396
2.8179
2.82027
1
1
1
1
1
1
1
1
1
1
1
1
1
1
1
1
1
1
1
1
1
1
1
1
1
1
1
1
1
1
1
1
1
1
1
1
1
1
1
1
1
1
1
1
1
1
1
1
1
1
1
1
1
1
1
1
1
1
1
1
1
1
1
1
1
1
1
1
1
1
1
1
1
1
1
1
1
1
1
1
1
1
1
1
1
1
1
1
1
1
1
1
1
1
1
1
1
1
1
1.28901
2.45659
2.68325
2.68267
2.68396
2.68559
2.68766
2.68996
2.69232
2.6947
2.69716
2.69966
2.70214
2.70443
2.70632
2.70785
2.70931
2.71091
2.71285
2.71518
2.71773
2.72013
2.72211
2.72399
2.72574
2.72726
2.72871
2.73029
2.73189
2.7335
2.73551
2.73789
2.74033
2.74275
2.74493
2.74664
2.74773
2.7484
2.74919
2.75033
2.75218
2.75437
2.75651
2.75826
2.75954
2.76057
2.76172
2.7632
2.76492
2.76653
2.76775
2.76862
2.76943
2.77047
2.77198
2.77378
2.77534
2.77616
2.77635
2.77643
2.77706
2.77882
2.7812
2.78311
2.78381
2.78335
2.78262
2.78247
2.78361
2.78589
2.78819
2.78952
2.78977
2.78962
2.78954
2.79026
2.79214
2.7943
2.79604
2.79685
2.79694
2.79688
2.79713
2.79831
2.8001
2.80171
2.80282
2.80386
2.8057
2.80886
2.81306
2.81704
2.81933
1
1
1
1
1
1
1
1
1
1
1
1
1
1
1
1
1
1
1
1
1
1
1
1
1
1
1
1
1
1
1
1
1
1
1
1
1
1
1
1
1
1
1
1
1
1
1
1
1
1
1
1
1
1
1
1
1
1
1
1
1
1
1
1
1
1
1
1
1
1
1
1
1
1
1
1
1
1
1
1
1
1
1
1
1
1
1
1
1
1
1
1
1
1
1
1
1
1
1
1.19746
2.40778
2.68196
2.68236
2.68363
2.68552
2.68749
2.68948
2.69153
2.69364
2.69585
2.69822
2.70075
2.70331
2.70565
2.70761
2.70925
2.71076
2.71235
2.71423
2.71644
2.71878
2.72095
2.72302
2.72487
2.72634
2.7276
2.72901
2.7306
2.7324
2.7347
2.73722
2.73956
2.7417
2.74355
2.74495
2.74598
2.74691
2.74808
2.74956
2.75149
2.75348
2.75531
2.7568
2.75799
2.75917
2.76061
2.76233
2.76407
2.76553
2.76657
2.7674
2.76834
2.76964
2.77127
2.7729
2.77403
2.77446
2.77454
2.77491
2.77631
2.77865
2.78097
2.78223
2.7822
2.7814
2.78073
2.78129
2.78327
2.78579
2.7876
2.78819
2.78808
2.78794
2.78828
2.78983
2.792
2.79381
2.79491
2.79527
2.79528
2.79552
2.79636
2.79786
2.79951
2.80078
2.80162
2.80252
2.8045
2.80794
2.81219
2.81609
2.81819
1
1
1
1
1
1
1
1
1
1
1
1
1
1
1
1
1
1
1
1
1
1
1
1
1
1
1
1
1
1
1
1
1
1
1
1
1
1
1
1
1
1
1
1
1
1
1
1
1
1
1
1
1
1
1
1
1
1
1
1
1
1
1
1
1
1
1
1
1
1
1
1
1
1
1
1
1
1
1
1
1
1
1
1
1
1
1
1
1
1
1
1
1
1
1
1
1
1
1
1.10188
2.35402
2.68099
2.68262
2.68391
2.68587
2.68777
2.68979
2.69178
2.6937
2.69556
2.6976
2.69994
2.70252
2.7051
2.70738
2.70921
2.71067
2.712
2.71349
2.71538
2.71764
2.71999
2.72221
2.72407
2.72544
2.72654
2.72783
2.72946
2.73146
2.73394
2.73646
2.73862
2.74042
2.74192
2.74311
2.74431
2.74571
2.74731
2.74901
2.75077
2.75235
2.75374
2.75501
2.75632
2.7579
2.75976
2.76163
2.76322
2.76437
2.76519
2.76605
2.76726
2.76889
2.77058
2.77189
2.77249
2.77256
2.77272
2.77373
2.77595
2.77852
2.78035
2.78086
2.78022
2.77928
2.77911
2.78059
2.78318
2.78549
2.78657
2.78651
2.78621
2.78627
2.78733
2.78963
2.79182
2.79303
2.79352
2.79351
2.79361
2.7943
2.79581
2.79745
2.79875
2.79964
2.80021
2.80106
2.80336
2.80711
2.81135
2.81503
2.81684
1
1
1
1
1
1
1
1
1
1
1
1
1
1
1
1
1
1
1
1
1
1
1
1
1
1
1
1
1
1
1
1
1
1
1
1
1
1
1
1
1
1
1
1
1
1
1
1
1
1
1
1
1
1
1
1
1
1
1
1
1
1
1
1
1
1
1
1
1
1
1
1
1
1
1
1
1
1
1
1
1
1
1
1
1
1
1
1
1
1
1
1
1
1
1
1
1
1
1
1.0106
2.30289
2.6795
2.68173
2.68341
2.68568
2.68766
2.68973
2.69176
2.69368
2.69551
2.69743
2.6996
2.70207
2.70471
2.70719
2.7092
2.71066
2.71182
2.71307
2.71473
2.71685
2.71922
2.72146
2.72328
2.72457
2.7256
2.72686
2.72857
2.73072
2.73323
2.73561
2.73751
2.73899
2.74024
2.74142
2.74295
2.74479
2.74668
2.7484
2.74985
2.75095
2.75195
2.75316
2.75477
2.75682
2.759
2.76086
2.76217
2.76299
2.76367
2.76468
2.76625
2.76812
2.76974
2.77061
2.77073
2.77063
2.77114
2.773
2.77572
2.7781
2.77924
2.77903
2.77806
2.77722
2.77797
2.78035
2.78307
2.78477
2.78508
2.78464
2.78425
2.78477
2.78673
2.7895
2.7914
2.79196
2.79192
2.79163
2.79201
2.79331
2.79539
2.79698
2.79777
2.7983
2.7986
2.79953
2.80229
2.80635
2.8105
2.81387
2.81527
1
1
1
1
1
1
1
1
1
1
1
1
1
1
1
1
1
1
1
1
1
1
1
1
1
1
1
1
1
1
1
1
1
1
1
1
1
1
1
1
1
1
1
1
1
1
1
1
1
1
1
1
1
1
1
1
1
1
1
1
1
1
1
1
1
1
1
1
1
1
1
1
1
1
1
1
1
1
1
1
1
1
1
1
1
1
1
1
1
1
1
1
1
1
1
1
1
1
1
1.00011
2.23849
2.67764
2.68246
2.68453
2.68683
2.68867
2.69059
2.69248
2.69424
2.69587
2.69757
2.69949
2.70175
2.70427
2.70679
2.70891
2.71048
2.71175
2.71306
2.71467
2.71672
2.71897
2.72107
2.72272
2.72388
2.72485
2.72611
2.72788
2.73008
2.73249
2.73465
2.73631
2.7376
2.7388
2.74014
2.74197
2.74403
2.74593
2.74751
2.74861
2.74937
2.75022
2.75155
2.75349
2.75584
2.7581
2.75982
2.76085
2.76146
2.76216
2.76343
2.76527
2.76719
2.76855
2.76903
2.76887
2.76888
2.77006
2.77258
2.77533
2.77713
2.77754
2.77686
2.77582
2.77562
2.7774
2.78024
2.78257
2.78357
2.78328
2.78261
2.78239
2.78361
2.7864
2.78924
2.79062
2.79064
2.79013
2.78975
2.79058
2.79253
2.79497
2.79634
2.79658
2.79674
2.79682
2.79798
2.80129
2.80562
2.80962
2.81259
2.81352
1
1
1
1
1
1
1
1
1
1
1
1
1
1
1
1
1
1
1
1
1
1
1
1
1
1
1
1
1
1
1
1
1
1
1
1
1
1
1
1
1
1
1
1
1
1
1
1
1
1
1
1
1
1
1
1
1
1
1
1
1
1
1
1
1
1
1
1
1
1
1
1
1
1
1
1
1
1
1
1
1
1
1
1
1
1
1
1
1
1
1
1
1
1
1
1
1
1
1
1
2.15849
2.67192
2.68259
2.68486
2.68758
2.68971
2.69169
2.69344
2.69504
2.69647
2.6979
2.69957
2.7016
2.70398
2.7065
2.70879
2.71058
2.71196
2.71329
2.71481
2.71671
2.71879
2.7207
2.72216
2.72323
2.72421
2.72551
2.72731
2.72948
2.73174
2.73372
2.73525
2.73654
2.73782
2.73933
2.74126
2.74325
2.74496
2.7463
2.74716
2.74785
2.7488
2.75034
2.75245
2.75482
2.75693
2.75843
2.75931
2.75993
2.76083
2.76232
2.76423
2.76597
2.76698
2.76718
2.76704
2.76755
2.76948
2.7722
2.7745
2.77556
2.77537
2.77453
2.77376
2.77464
2.77724
2.77994
2.78158
2.78187
2.78126
2.78058
2.78081
2.78289
2.78614
2.78866
2.78944
2.78908
2.78823
2.788
2.78937
2.79193
2.79442
2.79544
2.79521
2.79494
2.79494
2.79647
2.80033
2.80488
2.80866
2.81118
2.81162
1
1
1
1
1
1
1
1
1
1
1
1
1
1
1
1
1
1
1
1
1
1
1
1
1
1
1
1
1
1
1
1
1
1
1
1
1
1
1
1
1
1
1
1
1
1
1
1
1
1
1
1
1
1
1
1
1
1
1
1
1
1
1
1
1
1
1
1
1
1
1
1
1
1
1
1
1
1
1
1
1
1
1
1
1
1
1
1
1
1
1
1
1
1
1
1
1
1
1
1
2.06558
2.65849
2.68065
2.68442
2.68789
2.6905
2.69261
2.69423
2.69564
2.69684
2.69797
2.69935
2.70118
2.70352
2.70614
2.70865
2.71071
2.71228
2.71365
2.7151
2.71683
2.71874
2.72049
2.7218
2.72282
2.7238
2.72509
2.72682
2.72887
2.73095
2.73283
2.73443
2.73589
2.73731
2.73887
2.74065
2.74235
2.74374
2.74486
2.74568
2.74655
2.74776
2.74946
2.75152
2.75365
2.75547
2.75679
2.75772
2.75856
2.75971
2.76128
2.76299
2.76436
2.76506
2.76523
2.7655
2.76681
2.76917
2.7716
2.77312
2.77342
2.77289
2.77218
2.77224
2.77428
2.7771
2.77921
2.78006
2.77982
2.7791
2.77871
2.7797
2.78247
2.78568
2.78767
2.78792
2.78729
2.78636
2.78647
2.7884
2.79136
2.79367
2.79425
2.79366
2.79296
2.79301
2.79501
2.79937
2.80408
2.80759
2.80965
2.80965
1
1
1
1
1
1
1
1
1
1
1
1
1
1
1
1
1
1
1
1
1
1
1
1
1
1
1
1
1
1
1
1
1
1
1
1
1
1
1
1
1
1
1
1
1
1
1
1
1
1
1
1
1
1
1
1
1
1
1
1
1
1
1
1
1
1
1
1
1
1
1
1
1
1
1
1
1
1
1
1
1
1
1
1
1
1
1
1
1
1
1
1
1
1
1
1
1
1
1
1
1.96346
2.63712
2.67481
2.68179
2.68684
2.69029
2.69269
2.69437
2.69564
2.69669
2.69755
2.69867
2.70039
2.70277
2.70553
2.70829
2.71062
2.71242
2.7139
2.71534
2.71698
2.71879
2.72042
2.72163
2.72256
2.72347
2.72462
2.7262
2.7281
2.7301
2.73209
2.73397
2.73568
2.73721
2.73868
2.74012
2.74136
2.74238
2.74337
2.74434
2.74554
2.74701
2.74872
2.75054
2.7523
2.75383
2.75511
2.75625
2.75742
2.75874
2.76016
2.76147
2.76241
2.76296
2.7634
2.76443
2.76644
2.76879
2.77054
2.77121
2.77091
2.7703
2.77011
2.77139
2.77418
2.77669
2.77795
2.77806
2.77751
2.77697
2.77719
2.77909
2.78213
2.78483
2.78619
2.78612
2.78535
2.78467
2.78524
2.7876
2.79066
2.79264
2.79278
2.7919
2.79087
2.79109
2.79358
2.79835
2.80318
2.8064
2.80799
2.80765
1
1
1
1
1
1
1
1
1
1
1
1
1
1
1
1
1
1
1
1
1
1
1
1
1
1
1
1
1
1
1
1
1
1
1
1
1
1
1
1
1
1
1
1
1
1
1
1
1
1
1
1
1
1
1
1
1
1
1
1
1
1
1
1
1
1
1
1
1
1
1
1
1
1
1
1
1
1
1
1
1
1
1
1
1
1
1
1
1
1
1
1
1
1
1
1
1
1
1
1
1.85056
2.61149
2.66673
2.67775
2.68477
2.689
2.69183
2.69359
2.69472
2.69565
2.69639
2.69739
2.69905
2.70147
2.70435
2.70729
2.70988
2.71188
2.71358
2.71525
2.71702
2.71882
2.72039
2.7215
2.7223
2.72305
2.72403
2.72547
2.72732
2.72941
2.73167
2.73385