/*--------------------------------*- C++ -*----------------------------------*\
  =========                 |
  \\      /  F ield         | OpenFOAM: The Open Source CFD Toolbox
   \\    /   O peration     | Website:  https://openfoam.org
    \\  /    A nd           | Version:  7
     \\/     M anipulation  |
\*---------------------------------------------------------------------------*/
FoamFile
{
    version     2.0;
    format      ascii;
    class       volScalarField;
    location    "4";
    object      p;
}
// * * * * * * * * * * * * * * * * * * * * * * * * * * * * * * * * * * * * * //

dimensions      [1 -1 -2 0 0 0 0];

internalField   nonuniform List<scalar> 
16128
(
1
1
1
1
1
1
1
1
1
1
1
1
1
1
1
1
1
1
1
1
1
1
1
1
4.64861
10.2103
10.5319
10.6175
10.7343
10.8401
10.9445
11.0448
11.1408
11.2319
11.3175
11.3974
11.4733
11.5468
11.6171
11.6829
11.7445
11.8018
11.8543
11.9014
11.9421
11.9741
11.9974
12.0138
1
1
1
1
1
1
1
1
1
1
1
1
1
1
1
1
1
1
1
1
1
1
1
1
4.57399
10.1704
10.5252
10.6134
10.7299
10.8357
10.9399
11.04
11.1354
11.226
11.3112
11.3906
11.4659
11.5387
11.6081
11.673
11.7335
11.7899
11.8416
11.8879
11.9281
11.9598
11.9829
11.9993
1
1
1
1
1
1
1
1
1
1
1
1
1
1
1
1
1
1
1
1
1
1
1
1
4.40669
10.1218
10.5094
10.6003
10.7174
10.8241
10.9287
11.0289
11.1242
11.2146
11.2995
11.3787
11.4537
11.526
11.5947
11.6585
11.7179
11.7729
11.823
11.8676
11.9063
11.9368
11.9591
11.9751
1
1
1
1
1
1
1
1
1
1
1
1
1
1
1
1
1
1
1
1
1
1
1
1
4.1632
10.0438
10.4917
10.5845
10.7014
10.8081
10.9121
11.0116
11.1061
11.1957
11.2799
11.3585
11.4328
11.5043
11.572
11.6347
11.693
11.7469
11.7957
11.8387
11.8756
11.9044
11.9249
11.9398
1
1
1
1
1
1
1
1
1
1
1
1
1
1
1
1
1
1
1
1
1
1
1
1
3.85064
9.92546
10.4713
10.5648
10.6816
10.7877
10.8908
10.9893
11.0827
11.1712
11.2544
11.3319
11.405
11.4751
11.5413
11.6025
11.6592
11.7115
11.7588
11.8003
11.8356
11.8632
11.8824
11.8965
1
1
1
1
1
1
1
1
1
1
1
1
1
1
1
1
1
1
1
1
1
1
1
1
3.47389
9.75054
10.4498
10.5421
10.6585
10.7634
10.8651
10.9622
11.0542
11.1412
11.2233
11.2995
11.3712
11.4396
11.5041
11.5635
11.6183
11.6685
11.7137
11.7528
11.7857
11.8113
11.8283
11.8412
1
1
1
1
1
1
1
1
1
1
1
1
1
1
1
1
1
1
1
1
1
1
1
1
3.04839
9.49667
10.4265
10.5137
10.6295
10.7324
10.8324
10.928
11.0185
11.1035
11.184
11.2582
11.3276
11.3935
11.4558
11.513
11.5656
11.6137
11.6568
11.694
11.7249
11.7491
11.7644
11.7768
1
1
1
1
1
1
1
1
1
1
1
1
1
1
1
1
1
1
1
1
1
1
1
1
2.58903
9.15334
10.4171
10.4889
10.6038
10.703
10.7995
10.8911
10.9778
11.059
11.1363
11.2075
11.2742
11.3371
11.3968
11.4516
11.5019
11.5478
11.5886
11.6231
11.6512
11.6727
11.6856
11.6964
1
1
1
1
1
1
1
1
1
1
1
1
1
1
1
1
1
1
1
1
1
1
1
1
2.10659
8.68823
10.424
10.4681
10.5774
10.6701
10.7635
10.8523
10.936
11.0136
11.0873
11.155
11.2175
11.2754
11.3303
11.3804
11.426
11.4674
11.5041
11.5353
11.5607
11.5805
11.5924
11.6034
1
1
1
1
1
1
1
1
1
1
1
1
1
1
1
1
1
1
1
1
1
1
1
1
1.63472
8.11427
10.4463
10.4337
10.5433
10.6302
10.7204
10.8056
10.8865
10.9616
11.0317
11.096
11.1543
11.2066
11.2555
11.2996
11.3395
11.3758
11.4079
11.4344
11.4546
11.4685
11.4758
11.4831
1
1
1
1
1
1
1
1
1
1
1
1
1
1
1
1
1
1
1
1
1
1
1
1
1.2139
7.39425
10.447
10.3964
10.4927
10.5709
10.6586
10.7442
10.8243
10.8974
10.9643
11.0256
11.0802
11.1277
11.1702
11.2077
11.24
11.2675
11.2902
11.307
11.3198
11.329
11.3347
11.3432
1
1
1
1
1
1
1
1
1
1
1
1
1
1
1
1
1
1
1
1
1
1
1
1
1.00913
6.5716
10.2605
10.2954
10.4053
10.4957
10.5846
10.6668
10.7462
10.8219
10.8875
10.9454
10.9959
11.0383
11.0736
11.1032
11.1258
11.143
11.1561
11.1643
11.1683
11.1636
11.1542
11.1476
1
1
1
1
1
1
1
1
1
1
1
1
1
1
1
1
1
1
1
1
1
1
1
1
1.00003
5.56871
10.0661
10.2201
10.3341
10.4318
10.5204
10.6012
10.6749
10.7372
10.797
10.8503
10.8959
10.9332
10.9616
10.9829
10.9952
11
10.997
10.9839
10.9619
10.9379
10.9136
10.9144
1
1
1
1
1
1
1
1
1
1
1
1
1
1
1
1
1
1
1
1
1
1
1
1
1
4.49554
9.73491
10.1404
10.2647
10.3693
10.4485
10.5162
10.5769
10.6375
10.6917
10.7385
10.7785
10.8101
10.8325
10.8449
10.8434
10.832
10.8083
10.7746
10.7326
10.6875
10.6198
10.5438
1
1
1
1
1
1
1
1
1
1
1
1
1
1
1
1
1
1
1
1
1
1
1
1
1
3.42372
9.28169
10.0899
10.223
10.3228
10.3941
10.4496
10.4976
10.5417
10.5838
10.6225
10.6534
10.6758
10.6896
10.6892
10.6725
10.6428
10.5946
10.5273
10.4279
10.288
10.143
10.0364
1
1
1
1
1
1
1
1
1
1
1
1
1
1
1
1
1
1
1
1
1
1
1
1
1
2.31906
8.52407
10.1503
10.1986
10.2626
10.3194
10.3698
10.4137
10.45
10.4813
10.5055
10.5225
10.5317
10.5332
10.5158
10.4819
10.428
10.3442
10.2261
10.0639
9.86173
9.64841
9.55293
1
1
1
1
1
1
1
1
1
1
1
1
1
1
1
1
1
1
1
1
1
1
1
1
1
1.35924
7.70632
10.2736
10.1206
10.1705
10.2352
10.2859
10.3258
10.3545
10.3756
10.3893
10.3936
10.3877
10.3702
10.3355
10.2785
10.1951
10.0739
9.9085
9.6666
9.28053
8.41615
6.49665
1
1
1
1
1
1
1
1
1
1
1
1
1
1
1
1
1
1
1
1
1
1
1
1
1
1.01584
6.48549
9.99116
9.97848
10.066
10.1315
10.186
10.2254
10.2505
10.2641
10.2682
10.2596
10.2369
10.2005
10.1472
10.0651
9.95008
9.78761
9.55685
9.21368
8.6182
7.68556
5.50638
1
1
1
1
1
1
1
1
1
1
1
1
1
1
1
1
1
1
1
1
1
1
1
1
1
0.999967
4.90099
9.57159
9.87229
9.98161
10.0361
10.0818
10.12
10.1408
10.1478
10.1435
10.1225
10.0847
10.0301
9.95623
9.85031
9.70287
9.4997
9.20879
8.79069
8.13133
7.06724
5.13574
1
1
1
1
1
1
1
1
1
1
1
1
1
1
1
1
1
1
1
1
1
1
1
1
1
0.99999
3.3752
9.04409
9.84908
9.92427
9.97081
9.99467
10.0182
10.0287
10.0279
10.0146
9.98235
9.93114
9.85847
9.76267
9.63446
9.45872
9.21957
8.88554
8.40938
7.74137
6.63641
5.13086
1
1
1
1
1
1
1
1
1
1
1
1
1
1
1
1
1
1
1
1
1
1
1
1
1
0.999998
1.97298
8.20837
9.87628
9.85065
9.8887
9.91469
9.92883
9.92731
9.91366
9.88725
9.84246
9.77791
9.68877
9.57346
9.42364
9.22547
8.95926
8.59856
8.09906
7.43011
6.39899
5.20827
1
1
1
1
1
1
1
1
1
1
1
1
1
1
1
1
1
1
1
1
1
1
1
1
1
1
1.10669
6.8335
9.87767
9.79309
9.79181
9.81879
9.82641
9.8175
9.79446
9.75744
9.70211
9.62616
9.52356
9.39156
9.22268
9.00542
8.72135
8.34764
7.85315
7.19568
6.29357
5.33071
1
1
1
1
1
1
1
1
1
1
1
1
1
1
1
1
1
1
1
1
1
1
1
1
1
1
1.00082
5.06913
9.34288
9.62285
9.69504
9.71933
9.71825
9.70408
9.67383
9.62792
9.5631
9.47598
9.36208
9.21672
9.03342
8.803
8.5098
8.1333
7.6542
7.0332
6.26064
5.44859
1
1
1
1
1
1
1
1
1
1
1
1
1
1
1
1
1
1
1
1
1
1
1
1
1
1
0.999989
3.09453
8.73324
9.59688
9.61436
9.63649
9.63275
9.60838
9.56669
9.50878
9.43257
9.33411
9.20967
9.05374
8.8596
8.62022
8.32354
7.95294
7.49196
6.92413
6.25387
5.55799
1
1
1
1
1
1
1
1
1
1
1
1
1
1
1
1
1
1
1
1
1
1
1
1
1
1
0.999997
1.48703
7.7587
9.71935
9.58426
9.53358
9.5213
9.49258
9.44679
9.38294
9.29961
9.19414
9.06219
8.89876
8.69857
8.45538
8.16045
7.80045
7.35933
6.84533
6.25278
5.65536
1
1
1
1
1
1
1
1
1
1
1
1
1
1
1
1
1
1
1
1
1
1
1
1
1
1
1
1.02412
6.03906
9.27908
9.37521
9.41598
9.40926
9.37507
9.32694
9.25981
9.17193
9.0606
8.92329
8.75516
8.55155
8.3085
8.01939
7.66902
7.25253
6.78477
6.25728
5.73598
1
1
1
1
1
1
1
1
1
1
1
1
1
1
1
1
1
1
1
1
1
1
1
1
1
1
1
0.999909
3.72158
8.76727
9.30558
9.33504
9.32801
9.29082
9.23404
9.15603
9.05795
8.93803
8.79374
8.62266
8.41825
8.17883
7.89514
7.55465
7.171
6.73662
6.26827
5.80185
1
1
1
1
1
1
1
1
1
1
1
1
1
1
1
1
1
1
1
1
1
1
1
1
1
1
1
0.999975
1.7301
7.94158
9.43306
9.30221
9.22912
9.18156
9.12102
9.04028
8.93968
8.81701
8.66968
8.4982
8.29363
8.06212
7.78017
7.45716
7.10436
6.69855
6.28061
5.84818
1
1
1
1
1
1
1
1
1
1
1
1
1
1
1
1
1
1
1
1
1
1
1
1
1
1
1
0.999996
1.04965
6.13744
9.05482
9.10677
9.10664
9.07436
9.01362
8.93186
8.82906
8.70512
8.55677
8.38585
8.18723
7.95428
7.67987
7.37792
7.04871
6.67502
6.29626
5.89212
1
1
1
1
1
1
1
1
1
1
1
1
1
1
1
1
1
1
1
1
1
1
1
1
1
1
1
1
1.00002
3.51284
8.49021
9.0632
9.03426
8.99691
8.9367
8.84713
8.73589
8.60566
8.45532
8.28207
8.08631
7.85647
7.59438
7.31098
6.99805
6.6552
6.30489
5.92863
1
1
1
1
1
1
1
1
1
1
1
1
1
1
1
1
1
1
1
1
1
1
1
1
1
1
1
1
0.999996
1.42129
7.48876
9.20374
9.00963
8.91215
8.83726
8.74265
8.63198
8.50526
8.35823
8.18794
7.99344
7.77294
7.52416
7.25591
6.95776
6.6409
6.31133
5.96539
1
1
1
1
1
1
1
1
1
1
1
1
1
1
1
1
1
1
1
1
1
1
1
1
1
1
1
1
0.999999
1.01611
5.44618
8.70846
8.77146
8.78993
8.73054
8.63867
8.53375
8.4126
8.26996
8.10425
7.91313
7.69799
7.46084
7.20499
6.92381
6.62613
6.31378
5.9957
1
1
1
1
1
1
1
1
1
1
1
1
1
1
1
1
1
1
1
1
1
1
1
1
1
1
1
1
1
0.999912
2.70918
8.03757
8.77458
8.743
8.6623
8.5696
8.46509
8.34353
8.19992
8.03373
7.8447
7.63384
7.40528
7.15984
6.89535
6.6121
6.3183
6.02361
1
1
1
1
1
1
1
1
1
1
1
1
1
1
1
1
1
1
1
1
1
1
1
1
1
1
1
1
1
0.999977
1.21503
6.44032
8.77685
8.66602
8.57837
8.48768
8.38698
8.26764
8.12494
7.96121
7.77747
7.57537
7.35607
7.12022
6.86924
6.59839
6.32146
6.04556
1
1
1
1
1
1
1
1
1
1
1
1
1
1
1
1
1
1
1
1
1
1
1
1
1
1
1
1
1
0.999996
1.00349
3.75257
8.15875
8.51338
8.47581
8.41557
8.32452
8.20584
8.06225
7.90018
7.72118
7.52681
7.31481
7.08635
6.84645
6.58784
6.32486
6.06422
1
1
1
1
1
1
1
1
1
1
1
1
1
1
1
1
1
1
1
1
1
1
1
1
1
1
1
1
1
1
0.999989
1.4833
6.93463
8.62539
8.47576
8.38517
8.27791
8.14804
8.00133
7.84082
7.6665
7.47932
7.2747
7.05426
6.82439
6.57841
6.32714
6.07896
1
1
1
1
1
1
1
1
1
1
1
1
1
1
1
1
1
1
1
1
1
1
1
1
1
1
1
1
1
1
0.999997
1.01914
4.49257
8.17378
8.32423
8.28808
8.19776
8.07618
7.9371
7.78289
7.61492
7.43428
7.23712
7.02522
6.80437
6.57085
6.33068
6.09137
1
1
1
1
1
1
1
1
1
1
1
1
1
1
1
1
1
1
1
1
1
1
1
1
1
1
1
1
1
1
1
1.00001
1.75203
7.15578
8.43945
8.28633
8.16661
8.03703
7.89566
7.74153
7.57411
7.3944
7.20112
6.99565
6.78305
6.56199
6.33389
6.10339
1
1
1
1
1
1
1
1
1
1
1
1
1
1
1
1
1
1
1
1
1
1
1
1
1
1
1
1
1
1
1
1
1.04447
4.89595
8.09638
8.16158
8.08091
7.96942
7.83833
7.69047
7.52727
7.35109
7.1631
6.96545
6.76293
6.554
6.33749
6.11767
1
1
1
1
1
1
1
1
1
1
1
1
1
1
1
1
1
1
1
1
1
1
1
1
1
1
1
1
1
1
1
1
1.00014
1.94298
7.15277
8.23536
8.06628
7.94049
7.8045
7.65604
7.49524
7.32272
7.14046
6.9497
6.75373
6.55193
6.3433
6.13231
1
1
1
1
1
1
1
1
1
1
1
1
1
1
1
1
1
1
1
1
1
1
1
1
1
1
1
1
1
1
1
1
1
1.06684
4.97634
7.96285
7.97502
7.87905
7.75456
7.61186
7.45474
7.28625
7.10932
6.92519
6.73569
6.54253
6.34487
6.14317
1
1
1
1
1
1
1
1
1
1
1
1
1
1
1
1
1
1
1
1
1
1
1
1
1
1
1
1
1
1
1
1
1
1.00037
2.00373
6.96053
7.99908
7.85388
7.72314
7.57822
7.42147
7.25742
7.08754
6.91239
6.73172
6.54669
6.35783
6.16303
1
1
1
1
1
1
1
1
1
1
1
1
1
1
1
1
1
1
1
1
1
1
1
1
1
1
1
1
1
1
1
1
1
1
1.07404
4.72594
7.76186
7.79286
7.67071
7.53403
7.38378
7.22856
7.0676
6.90087
6.72816
6.54921
6.36505
6.17714
1
1
1
1
1
1
1
1
1
1
1
1
1
1
1
1
1
1
1
1
1
1
1
1
1
1
1
1
1
1
1
1
1
1
1.00055
1.89718
6.62504
7.79311
7.64167
7.5094
7.36087
7.21044
7.05589
6.8956
6.72918
6.55637
6.37715
6.19457
1
1
1
1
1
1
1
1
1
1
1
1
1
1
1
1
1
1
1
1
1
1
1
1
1
1
1
1
1
1
1
1
1
1
1
1.05926
4.16065
7.48103
7.59619
7.4685
7.33093
7.19062
7.04526
6.89169
6.72955
6.56122
6.38784
6.20922
1
1
1
1
1
1
1
1
1
1
1
1
1
1
1
1
1
1
1
1
1
1
1
1
1
1
1
1
1
1
1
1
1
1
1
1.00048
1.65554
6.09374
7.60291
7.45749
7.33522
7.19524
7.04682
6.89132
6.72957
6.56441
6.39733
6.22528
1
1
1
1
1
1
1
1
1
1
1
1
1
1
1
1
1
1
1
1
1
1
1
1
1
1
1
1
1
1
1
1
1
1
1
1
1.03282
3.2526
7.05506
7.4443
7.31768
7.17805
7.02983
6.87846
6.72432
6.56634
6.40545
6.24091
1
1
1
1
1
1
1
1
1
1
1
1
1
1
1
1
1
1
1
1
1
1
1
1
1
1
1
1
1
1
1
1
1
1
1
1
1.00026
1.34712
5.35221
7.48337
7.322
7.17381
7.02635
6.88135
6.73383
6.58004
6.42035
6.2585
1
1
1
1
1
1
1
1
1
1
1
1
1
1
1
1
1
1
1
1
1
1
1
1
1
1
1
1
1
1
1
1
1
1
1
1
1
1.0102
2.43338
6.55323
7.27846
7.14132
7.01388
6.87573
6.73007
6.57999
6.42426
6.26558
1
1
1
1
1
1
1
1
1
1
1
1
1
1
1
1
1
1
1
1
1
1
1
1
1
1
1
1
1
1
1
1
1
1
1
1
1
1.00006
1.14345
4.24529
7.11818
7.1677
7.0409
6.89953
6.74995
6.59813
6.44421
6.28846
1
1
1
1
1
1
1
1
1
1
1
1
1
1
1
1
1
1
1
1
1
1
1
1
1
1
1
1
1
1
1
1
1
1
1
1
1
1
1.00237
1.72861
5.74392
7.17595
7.02672
6.88336
6.7398
6.59472
6.44785
6.30008
1
1
1
1
1
1
1
1
1
1
1
1
1
1
1
1
1
1
1
1
1
1
1
1
1
1
1
1
1
1
1
1
1
1
1
1
1
1
1.00001
1.04053
2.94016
6.56289
7.01329
6.88645
6.7512
6.61301
6.47094
6.32525
1
1
1
1
1
1
1
1
1
1
1
1
1
1
1
1
1
1
1
1
1
1
1
1
1
1
1
1
1
1
1
1
1
1
1
1
1
1
1
1.00043
1.25777
4.53667
6.90204
6.91872
6.78354
6.64153
6.49709
6.35056
1
1
1
1
1
1
1
1
1
1
1
1
1
1
1
1
1
1
1
1
1
1
1
1
1
1
1
1
1
1
1
1
1
1
1
1
1
1
1
1
1.00656
1.90761
5.68863
6.88837
6.78311
6.64322
6.50093
6.35751
1
1
1
1
1
1
1
1
1
1
1
1
1
1
1
1
1
1
1
1
1
1
1
1
1
1
1
1
1
1
1
1
1
1
1
1
1
1
1
1
1.00004
1.06142
3.00189
6.34991
6.7904
6.66132
6.51722
6.37989
1
1
1
1
1
1
1
1
1
1
1
1
1
1
1
1
1
1
1
1
1
1
1
1
1
1
1
1
1
1
1
1
1
1
1
1
1
1
1
1
1
1.00081
1.27824
4.33288
6.60728
6.68927
6.5542
6.41261
1
1
1
1
1
1
1
1
1
1
1
1
1
1
1
1
1
1
1
1
1
1
1
1
1
1
1
1
1
1
1
1
1
1
1
1
1
1
1
1
1
1
1.0079
1.81763
5.32197
6.63946
6.57287
6.4327
1
1
1
1
1
1
1
1
1
1
1
1
1
1
1
1
1
1
1
1
1
1
1
1
1
1
1
1
1
1
1
1
1
1
1
1
1
1
1
1
1
1
1.00006
1.05154
2.66978
5.96438
6.5629
6.46478
1
1
1
1
1
1
1
1
1
1
1
1
1
1
1
1
1
1
1
1
1
1
1
1
1
1
1
1
1
1
1
1
1
1
1
1
1
1
1
1
1
1
1
1.00068
1.19969
3.73478
6.24186
6.49166
1
1
1
1
1
1
1
1
1
1
1
1
1
1
1
1
1
1
1
1
1
1
1
1
1
1
1
1
1
1
1
1
1
1
1
1
1
1
1
1
1
1
1
1
1.00489
1.5438
4.64682
6.41221
1
1
1
1
1
1
1
1
1
1
1
1
1
1
1
1
1
1
1
1
1
1
1
1
1
1
1
1
1
1
1
1
1
1
1
1
1
1
1
1
1
1
1
1
1.00003
1.02535
2.10656
5.48813
1
1
1
1
1
1
1
1
1
1
1
1
1
1
1
1
1
1
1
1
1
1
1
1
1
1
1
1
1
1
1
1
1
1
1
1
1
1
1
1
1
1
1
1
1
1.00026
1.09564
2.94718
1
1
1
1
1
1
1
1
1
1
1
1
1
1
1
1
1
1
1
1
1
1
1
1
1
1
1
1
1
1
1
1
1
1
1
1
1
1
1
1
1
1
1
1
1
1
1.00181
1.25892
1
1
1
1
1
1
1
1
1
1
1
1
1
1
1
1
1
1
1
1
1
1
1
1
1
1
1
1
1
1
1
1
1
1
1
1
1
1
1
1
1
1
1
1
1
1
1.00001
1.0089
1
1
1
1
1
1
1
1
1
1
1
1
1
1
1
1
1
1
1
1
1
1
1
1
1
1
1
1
1
1
1
1
1
1
1
1
1
1
1
1
1
1
1
1
1
1
1
1.00013
1
1
1
1
1
1
1
1
1
1
1
1
1
1
1
1
1
1
1
1
1
1
1
1
1
1
1
1
1
1
1
1
1
1
1
1
1
1
1
1
1
1
1
1
1
1
1
1
1
1
1
1
1
1
1
1
1
1
1
1
1
1
1
1
1
1
1
1
1
1
1
1
1
1
1
1
1
1
1
1
1
1
1
1
1
1
1
1
1
1
1
1
1
1
1
1
1
1
1
1
1
1
1
1
1
1
1
1
1
1
1
1
1
1
1
1
1
1
1
1
1
1
1
1
1
1
1
1
1
1
1
1
1
1
1
1
1
1
1
1
1
1
1
1
1
1
1
1
1
1
1
1
1
1
1
1
1
1
1
1
1
1
1
1
1
1
1
1
1
1
1
1
1
1
1
1
1
1
1
1
1
1
1
1
1
1
1
1
1
1
1
1
1
1
1
1
1
1
1
1
1
1
1
1
1
1
1
1
1
1
1
1
1
1
1
1
1
1
1
1
1
1
1
1
1
1
1
1
1
1
1
1
1
1
1
1
1
1
1
1
1
1
1
1
1
1
1
1
1
1
1
1
1
1
1
1
1
1
1
1
1
1
1
1
1
1
1
1
1
1
1
1
1
1
1
1
1
1
1
1
1
1
1
1
1
1
1
1
1
1
1
1
1
1
1
1
1
1
1
1
1
1
1
1
1
1
1
1
1
1
1
1
1
1
1
1
1
1
1
1
1
1
1
1
1
1
1
1
1
1
1
1
1
1
1
1
1
1
1
1
1
1
1
1
1
1
1
1
1
1
1
1
1
1
1
1
1
1
1
1
1
1
1
1
1
1
1
1
1
1
1
1
1
1
1
1
1
1
1
1
1
1
1
1
1
1
1
1
1
1
1
1
1
1
1
1
1
1
1
1
1
1
1
1
1
1
1
1
1
1
1
1
1
1
1
1
1
1
1
1
1
1
1
1
1
1
1
1
1
1
1
1
1
1
1
1
1
1
1
1
1
1
1
1
1
1
1
1
1
1
1
1
1
1
1
1
1
1
1
1
1
1
1
1
1
1
1
1
1
1
1
1
1
1
1
1
1
1
1
1
1
1
1
1
1
1
1
1
1
1
1
1
1
1
1
1
1
1
1
1
1
1
1
1
1
1
1
1
1
1
1
1
1
1
1
1
1
1
1
1
1
1
1
1
1
1
1
1
1
1
1
1
1
1
1
1
1
1
1
1
1
1
1
1
1
1
1
1
1
1
1
1
1
1
1
1
1
1
1
1
1
1
1
1
1
1
1
1
1
1
1
1
1
1
1
1
1
1
1
1
1
1
1
1
1
1
1
1
1
1
1
1
1
1
1
1
1
1
1
1
1
1
1
1
1
1
1
1
1
1
1
1
1
1
1
1
1
1
1
1
1
1
1
1
1
1
1
1
1
1
1
1
1
1
1
1
1
1
1
1
1
1
1
1
1
1
1
1
1
1
1
1
1
1
1
1
1
1
1
1
1
1
1
1
1
1
1
1
1
1
1
1
1
1
1
1
1
1
1
1
1
1
1
1
1
1
1
1
1
1
1
1
1
1
1
1
1
1
1
1
1
1
1
1
1
1
1
1
1
1
1
1
1
1
1
1
1
1
1
1
1.25972
0.209391
0.0418929
0.0665099
0.0877063
0.0821788
0.094688
0.142874
0.204936
0.259849
0.328059
0.422123
0.503947
0.567904
0.645354
0.734395
0.822335
0.898079
0.941882
0.933242
0.932943
0.95332
0.984738
1.01411
1.05371
1.0702
1.07994
1.09425
1.11203
1.14129
1.18455
1.20411
1.2017
1.19392
1.18756
1.19183
1.2068
1.23338
1.26722
1.28199
1.28244
1.28027
1.28023
1.28315
1.29147
1.30951
1.32567
1.32864
1.32695
1.32547
1.32612
1.33217
1.34199
1.34454
1.34176
1.33436
2.6551
5.54701
6.00662
6.10368
6.15207
6.15273
6.14183
6.12827
6.12528
6.136
6.14576
6.13598
6.10519
6.06161
6.01694
5.98254
5.96254
5.95231
5.93781
5.90395
5.84995
5.7929
5.74861
5.72457
5.7191
5.71924
5.70441
5.66462
5.61011
5.55657
5.51329
5.48166
5.45599
5.42612
5.3824
5.32941
5.27641
5.22948
5.1914
5.16257
5.14216
5.12267
5.09727
5.06494
5.02195
4.96562
4.90368
4.83618
4.75993
4.68303
4.62041
4.57505
4.546
4.53435
4.52589
4.51104
4.48918
4.46271
4.43333
4.40182
4.36555
4.3246
4.27981
4.22848
4.17654
4.13048
4.09168
4.05738
4.02784
4.00543
3.98921
3.9741
3.95372
3.92562
3.89237
3.85404
3.80803
3.75983
3.72026
3.68926
3.66345
3.64451
3.6291
3.61272
3.59267
3.56547
3.53201
3.48663
3.44612
3.41601
3.38859
3.36183
3.33447
3.30581
3.27883
3.25609
3.23631
3.22044
3.20152
3.17903
3.15346
3.12186
3.089
3.06429
3.04539
3.03042
3.02229
3.01165
2.99119
2.9622
2.91595
2.86575
2.83219
2.8118
2.79696
2.78595
2.77963
2.76859
2.75133
2.72863
2.69187
2.63892
2.59793
2.57759
2.56156
2.54665
2.53097
2.51361
2.49377
2.47177
2.45031
2.43096
2.41395
2.4
2.39028
2.36707
2.19483
0.893382
0.367319
0.34684
0.320814
0.253856
0.200952
0.196965
0.207165
0.228483
0.251128
0.278307
0.32258
0.377578
0.441896
0.53203
0.611104
0.671644
0.752584
0.814934
0.855544
0.889686
0.920868
0.959919
1.00931
1.0504
1.08094
1.10822
1.12103
1.1324
1.14966
1.16405
1.17261
1.17882
1.18653
1.19385
1.2073
1.22945
1.25669
1.27095
1.27436
1.27633
1.2799
1.2845
1.29207
1.30665
1.31974
1.32198
1.32067
1.31814
1.31727
1.32236
1.33429
1.33995
1.3393
1.33671
2.53038
5.47918
6.13613
6.18331
6.16243
6.14287
6.14007
6.14768
6.15365
6.14656
6.12636
6.0986
6.0758
6.05677
6.03206
5.99625
5.95618
5.9237
5.90488
5.89456
5.87399
5.82741
5.76679
5.71105
5.66721
5.6451
5.64332
5.64318
5.62037
5.5678
5.50645
5.4498
5.40298
5.37406
5.35408
5.3268
5.28213
5.22536
5.16788
5.11438
5.07388
5.05179
5.03982
5.02585
4.99501
4.94896
4.89974
4.8503
4.80252
4.75474
4.70517
4.65359
4.60494
4.56249
4.52653
4.49247
4.45782
4.42192
4.38538
4.34993
4.31893
4.29247
4.26637
4.23483
4.19881
4.15879
4.11823
4.08113
4.04768
4.01845
3.99244
3.96331
3.93139
3.90115
3.87199
3.83957
3.80624
3.77575
3.74515
3.71314
3.68087
3.65007
3.62162
3.59481
3.56748
3.54232
3.51607
3.48931
3.46325
3.43542
3.40593
3.37582
3.34528
3.31435
3.28349
3.25467
3.23056
3.20989
3.19291
3.17451
3.1527
3.12856
3.1006
3.07107
3.04597
3.02711
3.00998
2.99249
2.97537
2.95279
2.92152
2.88697
2.85066
2.81748
2.79442
2.77949
2.7672
2.75964
2.74879
2.72952
2.70073
2.6576
2.60905
2.57658
2.55724
2.5424
2.53026
2.51558
2.49891
2.48058
2.46013
2.43909
2.41872
2.39862
2.37999
2.35199
2.86427
1.81366
1.15631
0.757973
0.574728
0.499241
0.425383
0.3538
0.321016
0.307624
0.315884
0.328188
0.340779
0.368193
0.391772
0.404465
0.441494
0.501156
0.584061
0.675479
0.738355
0.795708
0.847542
0.905705
0.980129
1.03609
1.07705
1.1195
1.13985
1.14585
1.15297
1.16029
1.16247
1.1689
1.18199
1.1998
1.21899
1.23742
1.25253
1.25968
1.26493
1.27223
1.28147
1.29108
1.30226
1.31354
1.31709
1.31775
1.31753
1.3188
1.32128
1.32712
1.33377
1.33487
1.33438
1.34425
2.13671
5.41132
6.38283
6.25183
6.16669
6.122
6.10589
6.13178
6.17758
6.20875
6.1824
6.11758
6.0616
6.03039
6.03022
6.03098
6.00299
5.95114
5.90204
5.86944
5.85804
5.85469
5.83617
5.78841
5.72329
5.66016
5.61214
5.59326
5.59628
5.59039
5.54973
5.48682
5.41809
5.36053
5.31909
5.29948
5.28926
5.26471
5.2151
5.15107
5.08376
5.0268
4.98347
4.96023
4.9336
4.89199
4.84883
4.81026
4.77901
4.75584
4.73893
4.72084
4.69162
4.64914
4.59331
4.53145
4.47419
4.42025
4.36567
4.31153
4.26457
4.22909
4.2049
4.19289
4.17821
4.15226
4.12164
4.0912
4.06251
4.03749
4.01441
3.98388
3.94696
3.90269
3.85244
3.80794
3.77862
3.75801
3.74546
3.73405
3.71471
3.68545
3.64418
3.59028
3.53732
3.4996
3.47506
3.46014
3.45252
3.43543
3.41177
3.3861
3.35744
3.32839
3.30057
3.27235
3.2415
3.20821
3.17868
3.15636
3.13955
3.12647
3.1098
3.09
3.06517
3.03331
2.99779
2.96804
2.94305
2.92354
2.91121
2.89644
2.87765
2.84899
2.80834
2.77005
2.74834
2.73491
2.72586
2.71554
2.69811
2.67339
2.64015
2.60025
2.56208
2.53359
2.51449
2.50108
2.4943
2.48532
2.47152
2.45482
2.43174
2.39865
2.36803
2.33456
3.49874
2.45459
1.83707
1.39214
1.005
0.798617
0.71003
0.635841
0.548994
0.487355
0.48612
0.48489
0.459737
0.431197
0.41033
0.407087
0.418003
0.433458
0.45712
0.505362
0.566535
0.634225
0.709052
0.780031
0.861835
0.949065
0.996644
1.03845
1.08266
1.09354
1.10602
1.12812
1.14275
1.15801
1.18622
1.22148
1.23776
1.24515
1.25153
1.25365
1.2542
1.26132
1.27151
1.28135
1.29093
1.29413
1.29433
1.29591
1.301
1.30955
1.32075
1.32816
1.3306
1.3278
1.33826
1.39457
1.85216
4.96978
6.70025
6.46091
6.25121
6.17678
6.12914
6.12361
6.13677
6.17849
6.19119
6.14907
6.07872
6.012
5.97954
5.96858
5.96878
5.94805
5.90636
5.8606
5.82219
5.79298
5.77945
5.76829
5.74033
5.69387
5.6392
5.59186
5.55416
5.52888
5.50423
5.46654
5.42064
5.36369
5.30417
5.25921
5.22545
5.20456
5.18086
5.14571
5.10142
5.05235
5.00685
4.96961
4.92892
4.88821
4.84798
4.8099
4.77632
4.74992
4.73137
4.71467
4.68759
4.65234
4.60261
4.53731
4.47433
4.42539
4.38287
4.34088
4.2983
4.25812
4.22549
4.2017
4.17884
4.15167
4.12147
4.08727
4.04989
4.01691
3.98828
3.96278
3.93464
3.90136
3.86454
3.82716
3.79243
3.76386
3.74193
3.72191
3.70257
3.67869
3.64602
3.60182
3.55185
3.51085
3.48349
3.46523
3.45175
3.4326
3.4102
3.3845
3.35182
3.31607
3.28697
3.26326
3.23976
3.21477
3.18869
3.1639
3.14227
3.12322
3.10571
3.08849
3.068
3.03817
2.99684
2.95491
2.92612
2.90884
2.89722
2.89039
2.8812
2.86604
2.84125
2.79891
2.74915
2.71356
2.69474
2.6812
2.67111
2.65985
2.64347
2.62123
2.59047
2.55287
2.51947
2.49898
2.48582
2.47758
2.46955
2.45655
2.43927
2.40853
2.36698
2.3223
4.00562
3.07145
2.35901
1.8954
1.54482
1.25572
1.04072
0.917387
0.799554
0.691167
0.637131
0.629717
0.617776
0.587912
0.544434
0.504911
0.490516
0.492853
0.492823
0.495495
0.50875
0.528441
0.551419
0.583985
0.632939
0.723978
0.81774
0.897853
0.989666
1.02934
1.04644
1.06944
1.09501
1.11425
1.14925
1.20096
1.22012
1.22416
1.23289
1.24259
1.25283
1.27125
1.28397
1.28584
1.28453
1.28256
1.2826
1.28734
1.30474
1.32209
1.32831
1.32644
1.32083
1.33035
1.41668
1.75444
2.1947
3.65241
6.03142
6.6221
6.37627
6.24664
6.14788
6.11789
6.1173
6.12873
6.16198
6.1576
6.12587
6.06468
5.99514
5.95979
5.9385
5.93243
5.91733
5.88725
5.84549
5.79539
5.76163
5.73472
5.71394
5.69478
5.66405
5.62446
5.57354
5.52355
5.48493
5.45119
5.41711
5.37938
5.33245
5.27291
5.21409
5.17012
5.13374
5.10533
5.08026
5.05057
5.0159
4.97543
4.93016
4.88582
4.84785
4.81662
4.78978
4.76669
4.74281
4.71351
4.68005
4.64011
4.58889
4.52266
4.44908
4.39172
4.35589
4.32799
4.30209
4.27588
4.24682
4.21537
4.18624
4.15938
4.13058
4.09813
4.06172
4.02122
3.97694
3.93483
3.90039
3.87372
3.85288
3.83389
3.81499
3.79322
3.7639
3.72621
3.68473
3.64501
3.60779
3.57301
3.54299
3.51916
3.49938
3.48199
3.46379
3.44429
3.42323
3.39768
3.36381
3.32285
3.28082
3.24387
3.217
3.19747
3.18176
3.16698
3.15013
3.13177
3.11144
3.0879
3.05906
3.02261
2.9803
2.94259
2.91848
2.90361
2.89226
2.88443
2.87571
2.86464
2.8514
2.82796
2.7859
2.73417
2.6912
2.66297
2.64551
2.63229
2.62097
2.60801
2.59129
2.57237
2.54804
2.51781
2.49051
2.47286
2.45896
2.44351
2.42372
2.39613
2.36471
2.32815
4.34075
3.51517
2.88602
2.39386
1.9616
1.61631
1.40605
1.25998
1.12767
0.956073
0.808066
0.77879
0.778913
0.761416
0.72907
0.678165
0.617348
0.59184
0.582282
0.559155
0.535267
0.536077
0.555571
0.55603
0.556489
0.567937
0.602608
0.65215
0.726119
0.820206
0.890847
0.947463
1.01478
1.06291
1.10735
1.16991
1.19798
1.20093
1.20881
1.2223
1.2373
1.25902
1.26751
1.26745
1.26359
1.26579
1.27236
1.28808
1.3117
1.31879
1.31914
1.31584
1.3238
1.43041
1.78563
2.4338
2.74454
2.9642
4.30736
5.95406
6.42499
6.37048
6.26868
6.15561
6.11001
6.10275
6.1267
6.15589
6.14264
6.10252
6.02754
5.95149
5.90896
5.88256
5.87499
5.8574
5.82949
5.7859
5.731
5.69431
5.66724
5.65583
5.64927
5.62391
5.58645
5.52968
5.47384
5.43681
5.40291
5.36775
5.32786
5.27589
5.21226
5.1579
5.12093
5.09242
5.07272
5.04929
5.01844
4.98333
4.93988
4.89192
4.85015
4.81666
4.78668
4.75765
4.72851
4.69682
4.66189
4.62337
4.57986
4.52821
4.46584
4.40561
4.36798
4.3432
4.32095
4.29637
4.26495
4.2234
4.17816
4.14111
4.11055
4.08164
4.05127
4.01628
3.97391
3.92757
3.89085
3.8664
3.84746
3.83413
3.8197
3.80016
3.77192
3.72623
3.67142
3.62577
3.59316
3.57004
3.55172
3.53379
3.51333
3.48928
3.46337
3.43858
3.41393
3.38714
3.35766
3.32615
3.29263
3.257
3.22209
3.19442
3.17525
3.15904
3.14394
3.12747
3.10793
3.08181
3.04907
3.0138
2.98163
2.95425
2.92793
2.90314
2.88651
2.87494
2.86463
2.85427
2.84287
2.82426
2.78995
2.7424
2.69523
2.65937
2.63673
2.62125
2.60802
2.59641
2.58731
2.57674
2.56177
2.54124
2.51183
2.47844
2.44959
2.4244
2.39952
2.37565
2.35921
2.34011
4.63024
3.90827
3.27154
2.77917
2.41246
2.05775
1.67907
1.49594
1.40247
1.27132
1.14131
1.00409
0.887471
0.866113
0.867316
0.840598
0.784868
0.717431
0.692158
0.675483
0.644678
0.61873
0.611861
0.611399
0.600618
0.586217
0.585681
0.591377
0.605912
0.631054
0.673143
0.731764
0.812145
0.909416
0.987174
1.06289
1.13707
1.15316
1.16269
1.1821
1.20937
1.24196
1.25368
1.25298
1.24995
1.25735
1.27011
1.2886
1.30634
1.31004
1.31225
1.32721
1.43643
1.85934
2.40254
2.86609
2.96837
2.9345
3.11378
4.35946
5.91905
6.37534
6.36632
6.25224
6.13201
6.09248
6.0941
6.11358
6.12464
6.09596
6.046
5.96682
5.8963
5.85791
5.83975
5.83362
5.81718
5.79322
5.75128
5.70756
5.68093
5.66755
5.66218
5.63671
5.59304
5.53072
5.45821
5.40528
5.36956
5.33672
5.30216
5.26245
5.21276
5.16123
5.12228
5.09285
5.0687
5.04144
5.011
4.97655
4.93535
4.89136
4.85153
4.81398
4.77461
4.73262
4.69148
4.65374
4.61815
4.58314
4.54783
4.51074
4.46926
4.42514
4.38999
4.36748
4.34996
4.32711
4.29613
4.24696
4.18033
4.12686
4.09148
4.06081
4.02988
3.99653
3.95959
3.92112
3.88868
3.86566
3.84928
3.837
3.81941
3.79588
3.75849
3.70513
3.65143
3.61464
3.59308
3.57774
3.56632
3.55215
3.53123
3.50001
3.46084
3.42374
3.39208
3.36373
3.33775
3.31365
3.29024
3.2657
3.2382
3.20857
3.18136
3.15968
3.14061
3.11937
3.09225
3.06041
3.02989
3.00498
2.98468
2.96475
2.94169
2.91432
2.88748
2.87007
2.85927
2.84929
2.83648
2.8118
2.77381
2.73269
2.69393
2.65798
2.62876
2.61122
2.59992
2.59019
2.58304
2.5767
2.56568
2.55093
2.52685
2.48646
2.4408
2.40571
2.38374
2.37036
2.3626
2.34743
4.8403
4.2034
3.64909
3.11275
2.7107
2.41649
2.08365
1.81227
1.59249
1.46391
1.39494
1.2908
1.14267
1.02077
0.986645
0.970863
0.934297
0.868851
0.802415
0.778584
0.760747
0.732202
0.70488
0.694388
0.685892
0.660619
0.621311
0.614016
0.620645
0.631437
0.631743
0.636916
0.652429
0.6877
0.744503
0.813865
0.906387
0.996064
1.05294
1.09892
1.14183
1.19854
1.2343
1.24508
1.24678
1.25246
1.2678
1.28875
1.29706
1.29705
1.32514
1.48001
1.8757
2.43565
2.73519
2.93073
2.98949
2.97041
2.92817
3.15687
4.43291
5.8955
6.33285
6.31523
6.21647
6.12448
6.09207
6.06997
6.0751
6.06882
6.03295
5.98468
5.91071
5.85175
5.82095
5.80873
5.81003
5.80329
5.78212
5.73752
5.68329
5.64703
5.61667
5.59134
5.5568
5.51294
5.45494
5.38995
5.34361
5.30905
5.27872
5.24982
5.2156
5.17938
5.14185
5.10285
5.06404
5.027
4.99053
4.95267
4.91343
4.87542
4.83955
4.80363
4.76434
4.71932
4.67231
4.63261
4.60122
4.57382
4.547
4.52044
4.49504
4.4693
4.44013
4.40859
4.37697
4.34208
4.29749
4.23655
4.162
4.10055
4.06262
4.03369
4.00632
3.97956
3.95444
3.93104
3.90749
3.88343
3.85989
3.83693
3.80967
3.77352
3.73226
3.69158
3.65799
3.63338
3.61483
3.60061
3.58538
3.56566
3.53617
3.49059
3.44096
3.40032
3.3696
3.34526
3.32474
3.30646
3.28896
3.27138
3.25203
3.22841
3.19801
3.16346
3.13039
3.09823
3.0657
3.03627
3.01401
2.99733
2.98227
2.96666
2.94978
2.93054
2.90763
2.88168
2.8576
2.83681
2.81033
2.77935
2.74893
2.72203
2.69705
2.67081
2.64099
2.61188
2.59402
2.58366
2.57651
2.57267
2.56524
2.55196
2.52739
2.4867
2.43872
2.40026
2.3802
2.36913
2.36419
2.35049
5.02891
4.44106
3.94531
3.45011
3.01733
2.69359
2.39364
2.14002
1.92071
1.69671
1.56411
1.48963
1.38573
1.24597
1.14695
1.1009
1.06687
1.01741
0.938845
0.865836
0.85254
0.843027
0.822119
0.790621
0.774888
0.75429
0.710708
0.687275
0.682307
0.671818
0.659239
0.654512
0.654505
0.652579
0.655706
0.669029
0.700524
0.756499
0.826773
0.911225
0.998838
1.07851
1.13938
1.1952
1.22008
1.22612
1.25179
1.27101
1.27986
1.31367
1.54735
1.99491
2.42795
2.71243
2.87749
2.97002
2.98789
2.97068
2.93028
2.9153
3.18807
4.43617
5.81799
6.276
6.28064
6.22257
6.11674
6.02845
6.00692
5.99886
6.00719
5.98263
5.93974
5.87447
5.82276
5.79756
5.7918
5.79527
5.77613
5.73757
5.67114
5.60632
5.56866
5.54165
5.52681
5.49589
5.45532
5.39992
5.33977
5.2994
5.26812
5.24529
5.22521
5.19682
5.16153
5.12029
5.07329
5.02504
4.97834
4.93409
4.89481
4.86068
4.82955
4.79882
4.76566
4.72718
4.68378
4.64428
4.61198
4.58437
4.55906
4.53515
4.51272
4.48759
4.45628
4.41345
4.35986
4.30876
4.25723
4.20085
4.14283
4.08585
4.0425
4.01443
3.99236
3.97414
3.96236
3.95067
3.93179
3.90538
3.86729
3.82179
3.77939
3.74194
3.71314
3.69315
3.67627
3.65909
3.63852
3.61346
3.58339
3.54667
3.50515
3.46244
3.4223
3.38674
3.35757
3.33634
3.32043
3.30768
3.29726
3.28486
3.26863
3.24493
3.208
3.16081
3.11455
3.0746
3.04239
3.01996
3.00504
2.99298
2.98463
2.97893
2.97017
2.95669
2.93425
2.89511
2.84245
2.79621
2.76612
2.74261
2.72265
2.7057
2.69045
2.67537
2.65724
2.63327
2.60705
2.59029
2.58107
2.57391
2.56091
2.53887
2.50946
2.47823
2.44792
2.41887
2.39288
2.37453
2.36803
2.35359
5.16753
4.64073
4.18637
3.71644
3.30489
2.99494
2.67353
2.38154
2.20606
1.99571
1.7816
1.66144
1.5747
1.46754
1.34401
1.23204
1.17968
1.14843
1.09203
1.00875
0.951898
0.940431
0.931393
0.911054
0.882105
0.848786
0.795522
0.770292
0.757466
0.741915
0.724139
0.71117
0.697987
0.67813
0.667855
0.671944
0.676293
0.679908
0.688015
0.709771
0.759573
0.831706
0.918081
1.00484
1.09996
1.15016
1.19246
1.23192
1.30351
1.53034
2.10387
2.46849
2.69158
2.84557
2.9172
2.93603
2.92965
2.93461
2.94304
2.9419
2.94685
3.2154
4.3973
5.73686
6.23492
6.29416
6.21642
6.05599
5.97004
5.93945
5.93492
5.96394
5.94704
5.90701
5.84423
5.79574
5.7741
5.76345
5.7488
5.7152
5.66433
5.59191
5.53919
5.50744
5.48941
5.48041
5.45194
5.41317
5.35693
5.30168
5.26497
5.23808
5.22155
5.19553
5.16221
5.12479
5.08274
5.03777
4.98987
4.93875
4.8877
4.84661
4.81707
4.79112
4.76496
4.73622
4.70297
4.66409
4.61965
4.58047
4.54966
4.52158
4.49343
4.46347
4.42942
4.38514
4.32895
4.27074
4.22372
4.18351
4.14327
4.09877
4.053
4.0188
3.99785
3.9853
3.97924
3.96663
3.9455
3.91051
3.85237
3.79041
3.74759
3.72337
3.70611
3.69482
3.68536
3.66798
3.6445
3.61089
3.56223
3.51435
3.47661
3.44592
3.41937
3.39396
3.369
3.34727
3.331
3.31912
3.30868
3.29345
3.26727
3.22969
3.18728
3.14576
3.10627
3.07037
3.04182
3.02184
3.00771
2.99834
2.99525
2.99445
2.98554
2.9652
2.93094
2.87963
2.81843
2.76643
2.73306
2.71423
2.70213
2.69366