/*--------------------------------*- C++ -*----------------------------------*\
  =========                 |
  \\      /  F ield         | OpenFOAM: The Open Source CFD Toolbox
   \\    /   O peration     | Website:  https://openfoam.org
    \\  /    A nd           | Version:  7
     \\/     M anipulation  |
\*---------------------------------------------------------------------------*/
FoamFile
{
    version     2.0;
    format      ascii;
    class       volScalarField;
    location    "4";
    object      T;
}
// * * * * * * * * * * * * * * * * * * * * * * * * * * * * * * * * * * * * * //

dimensions      [0 0 0 1 0 0 0];

internalField   nonuniform List<scalar> 
16128
(
1
1
1
1
1
1
1
1
1
1
1
1
1
1
1
1
1
1
1
1
1
1
1
1
2.02418
2.67949
2.70293
2.70921
2.71808
2.72667
2.73563
2.74452
2.75282
2.75983
2.76508
2.76882
2.77203
2.77582
2.78082
2.78672
2.79235
2.7967
2.79972
2.80218
2.8048
2.80754
2.80985
2.81129
1
1
1
1
1
1
1
1
1
1
1
1
1
1
1
1
1
1
1
1
1
1
1
1
2.0137
2.67715
2.70261
2.70894
2.71773
2.72631
2.73526
2.74417
2.75246
2.75944
2.76465
2.76833
2.77149
2.77524
2.78021
2.78605
2.7916
2.79587
2.79884
2.80126
2.80384
2.80656
2.80887
2.8103
1
1
1
1
1
1
1
1
1
1
1
1
1
1
1
1
1
1
1
1
1
1
1
1
1.9867
2.67368
2.70146
2.70777
2.71646
2.72508
2.73413
2.74318
2.75161
2.75868
2.76388
2.76752
2.7706
2.7743
2.77924
2.78505
2.79053
2.79469
2.79753
2.79985
2.80235
2.80501
2.80725
2.80866
1
1
1
1
1
1
1
1
1
1
1
1
1
1
1
1
1
1
1
1
1
1
1
1
1.94548
2.66735
2.69974
2.70575
2.71418
2.72275
2.73193
2.74128
2.75005
2.75736
2.76264
2.76619
2.76913
2.77269
2.77755
2.78332
2.78877
2.79286
2.79563
2.79786
2.80027
2.80282
2.80495
2.80628
1
1
1
1
1
1
1
1
1
1
1
1
1
1
1
1
1
1
1
1
1
1
1
1
1.8895
2.65714
2.69784
2.70286
2.71068
2.71907
2.72844
2.73828
2.74767
2.7555
2.76102
2.76451
2.76721
2.77049
2.77515
2.78084
2.78629
2.79036
2.79307
2.79523
2.79756
2.80004
2.80208
2.80336
1
1
1
1
1
1
1
1
1
1
1
1
1
1
1
1
1
1
1
1
1
1
1
1
1.8154
2.64036
2.69656
2.69955
2.70621
2.71412
2.7236
2.73404
2.7443
2.75294
2.75893
2.76244
2.76487
2.76777
2.77211
2.7777
2.78318
2.78729
2.78996
2.792
2.79418
2.79653
2.79842
2.79962
1
1
1
1
1
1
1
1
1
1
1
1
1
1
1
1
1
1
1
1
1
1
1
1
1.72194
2.61406
2.69543
2.69609
2.70121
2.70823
2.71749
2.72839
2.7396
2.74926
2.75596
2.75961
2.76176
2.76419
2.76812
2.77354
2.77909
2.78333
2.78603
2.788
2.79005
2.7923
2.79409
2.79526
1
1
1
1
1
1
1
1
1
1
1
1
1
1
1
1
1
1
1
1
1
1
1
1
1.60856
2.5772
2.69385
2.69302
2.6972
2.70293
2.71124
2.72187
2.73357
2.74415
2.75173
2.75572
2.75773
2.75973
2.7632
2.76839
2.77404
2.77849
2.78127
2.78315
2.78501
2.78707
2.78871
2.78979
1
1
1
1
1
1
1
1
1
1
1
1
1
1
1
1
1
1
1
1
1
1
1
1
1.46683
2.52232
2.68964
2.689
2.69359
2.69834
2.70533
2.71496
2.72652
2.73777
2.74637
2.75104
2.75308
2.75468
2.75759
2.76236
2.76794
2.77249
2.77531
2.77708
2.77877
2.78072
2.78232
2.78343
1
1
1
1
1
1
1
1
1
1
1
1
1
1
1
1
1
1
1
1
1
1
1
1
1.29444
2.44733
2.68281
2.68229
2.68929
2.69379
2.69961
2.70767
2.71829
2.72974
2.7393
2.745
2.74746
2.74886
2.75123
2.7555
2.76088
2.76552
2.7684
2.77001
2.77138
2.77295
2.77429
2.77518
1
1
1
1
1
1
1
1
1
1
1
1
1
1
1
1
1
1
1
1
1
1
1
1
1.10743
2.36391
2.67806
2.67575
2.68289
2.68775
2.69326
2.70017
2.70938
2.72021
2.73026
2.73713
2.74042
2.74195
2.74396
2.74768
2.75271
2.75718
2.75982
2.76099
2.76192
2.76317
2.76448
2.76554
1
1
1
1
1
1
1
1
1
1
1
1
1
1
1
1
1
1
1
1
1
1
1
1
1.00408
2.2827
2.67059
2.67065
2.67704
2.68267
2.68806
2.69364
2.70098
2.71043
2.7201
2.72767
2.73191
2.73385
2.73562
2.7388
2.7433
2.74744
2.74987
2.75076
2.75124
2.75153
2.75177
2.75178
1
1
1
1
1
1
1
1
1
1
1
1
1
1
1
1
1
1
1
1
1
1
1
1
1.00001
2.16464
2.6707
2.67274
2.67727
2.68201
2.68635
2.69052
2.6955
2.70179
2.70961
2.71688
2.72172
2.72418
2.72593
2.72867
2.73249
2.73601
2.73772
2.7375
2.73647
2.7355
2.73452
2.73486
1
1
1
1
1
1
1
1
1
1
1
1
1
1
1
1
1
1
1
1
1
1
1
1
1
2.00184
2.64654
2.67066
2.67671
2.68182
2.68496
2.68746
2.69019
2.69436
2.69983
2.70566
2.71029
2.71297
2.71484
2.71714
2.71976
2.72221
2.72289
2.72193
2.71981
2.71727
2.71256
2.70649
1
1
1
1
1
1
1
1
1
1
1
1
1
1
1
1
1
1
1
1
1
1
1
1
1
1.79507
2.58482
2.65902
2.67204
2.67997
2.68392
2.68598
2.68747
2.68926
2.69208
2.69579
2.69912
2.70128
2.70279
2.70405
2.70526
2.70634
2.70573
2.70308
2.69713
2.68747
2.67651
2.66762
1
1
1
1
1
1
1
1
1
1
1
1
1
1
1
1
1
1
1
1
1
1
1
1
1
1.50912
2.46775
2.6417
2.65866
2.66938
2.67634
2.68065
2.68311
2.68455
2.68595
2.68746
2.68885
2.68973
2.69019
2.68961
2.68904
2.68813
2.68536
2.67944
2.66881
2.65437
2.6428
2.64563
1
1
1
1
1
1
1
1
1
1
1
1
1
1
1
1
1
1
1
1
1
1
1
1
1
1.1575
2.34984
2.63335
2.63309
2.64482
2.65853
2.66832
2.67434
2.67747
2.67905
2.67973
2.6797
2.67911
2.67766
2.67524
2.67214
2.66841
2.66273
2.65348
2.63701
2.60807
2.54606
2.42736
1
1
1
1
1
1
1
1
1
1
1
1
1
1
1
1
1
1
1
1
1
1
1
1
1
1.00662
2.24826
2.6169
2.6162
2.62548
2.63752
2.64964
2.65929
2.66566
2.66924
2.67056
2.67001
2.66828
2.66527
2.66096
2.65507
2.64792
2.63836
2.62383
2.59944
2.55313
2.48081
2.29251
1
1
1
1
1
1
1
1
1
1
1
1
1
1
1
1
1
1
1
1
1
1
1
1
1
1
2.06014
2.60264
2.61208
2.61744
2.62338
2.6318
2.6414
2.64934
2.65527
2.65849
2.65842
2.6567
2.65289
2.64698
2.63859
2.62777
2.61378
2.59361
2.56268
2.50999
2.41824
2.21959
1
1
1
1
1
1
1
1
1
1
1
1
1
1
1
1
1
1
1
1
1
1
1
1
1
0.999998
1.77609
2.54607
2.61209
2.61414
2.61686
2.62031
2.62595
2.63206
2.63819
2.64285
2.64426
2.6431
2.63934
2.63256
2.62242
2.60848
2.59018
2.565
2.52799
2.47286
2.37071
2.20472
1
1
1
1
1
1
1
1
1
1
1
1
1
1
1
1
1
1
1
1
1
1
1
1
1
0.999999
1.38553
2.4144
2.60534
2.60628
2.60979
2.61234
2.61517
2.61803
2.62164
2.62547
2.62756
2.62697
2.62382
2.61714
2.60619
2.59034
2.56873
2.53959
2.49866
2.44117
2.34236
2.21019
1
1
1
1
1
1
1
1
1
1
1
1
1
1
1
1
1
1
1
1
1
1
1
1
1
1
1.04269
2.26511
2.59988
2.59745
2.59977
2.60357
2.60556
2.60613
2.60694
2.60838
2.60949
2.60894
2.6062
2.60003
2.5892
2.57267
2.54933
2.51776
2.4752
2.41619
2.32779
2.22186
1
1
1
1
1
1
1
1
1
1
1
1
1
1
1
1
1
1
1
1
1
1
1
1
1
1
1.00034
2.06269
2.55702
2.57826
2.58804
2.59353
2.5954
2.59528
2.59442
2.59338
2.59226
2.59044
2.5871
2.58103
2.57073
2.55469
2.53139
2.49923
2.45659
2.39877
2.32155
2.23288
1
1
1
1
1
1
1
1
1
1
1
1
1
1
1
1
1
1
1
1
1
1
1
1
1
1
0.999997
1.6936
2.47528
2.5615
2.57335
2.58133
2.58505
2.58514
2.58376
2.58109
2.57762
2.5735
2.56843
2.56147
2.55117
2.53588
2.51373
2.48282
2.44149
2.3875
2.31931
2.2433
1
1
1
1
1
1
1
1
1
1
1
1
1
1
1
1
1
1
1
1
1
1
1
1
1
1
0.999999
1.19856
2.33331
2.56057
2.55829
2.56273
2.56893
2.57158
2.57105
2.56855
2.56412
2.55826
2.55115
2.54249
2.53139
2.5164
2.49565
2.46696
2.42816
2.37933
2.31884
2.2535
1
1
1
1
1
1
1
1
1
1
1
1
1
1
1
1
1
1
1
1
1
1
1
1
1
1
1
1.00981
2.17728
2.53149
2.5347
2.5434
2.55014
2.55459
2.55608
2.55471
2.5508
2.54437
2.53587
2.52547
2.51291
2.49744
2.47754
2.45073
2.41535
2.37191
2.31875
2.26226
1
1
1
1
1
1
1
1
1
1
1
1
1
1
1
1
1
1
1
1
1
1
1
1
1
1
1
0.999991
1.82082
2.47743
2.51858
2.52933
2.53502
2.53883
2.54086
2.54003
2.53684
2.53075
2.52182
2.51044
2.4966
2.48025
2.4602
2.43439
2.40286
2.36389
2.31799
2.26864
1
1
1
1
1
1
1
1
1
1
1
1
1
1
1
1
1
1
1
1
1
1
1
1
1
1
1
0.999995
1.28584
2.34847
2.52291
2.51787
2.51873
2.52121
2.52311
2.52273
2.52055
2.5156
2.50743
2.49627
2.48188
2.46516
2.44414
2.41919
2.39057
2.35507
2.31557
2.27125
1
1
1
1
1
1
1
1
1
1
1
1
1
1
1
1
1
1
1
1
1
1
1
1
1
1
1
0.999999
1.01989
2.18144
2.49844
2.49813
2.50141
2.50401
2.5054
2.50508
2.50328
2.49925
2.49222
2.48211
2.46861
2.45146
2.43028
2.40628
2.37922
2.34663
2.31189
2.27186
1
1
1
1
1
1
1
1
1
1
1
1
1
1
1
1
1
1
1
1
1
1
1
1
1
1
1
1
1.00003
1.76791
2.43353
2.48667
2.48876
2.4906
2.49095
2.48963
2.48689
2.48259
2.47618
2.46697
2.45468
2.43832
2.41814
2.39529
2.36903
2.33895
2.30699
2.27053
1
1
1
1
1
1
1
1
1
1
1
1
1
1
1
1
1
1
1
1
1
1
1
1
1
1
1
1
0.999999
1.16468
2.28693
2.49087
2.47973
2.47779
2.47635
2.47362
2.47007
2.4656
2.45951
2.45111
2.43984
2.42518
2.40679
2.3855
2.3604
2.33246
2.3022
2.26888
1
1
1
1
1
1
1
1
1
1
1
1
1
1
1
1
1
1
1
1
1
1
1
1
1
1
1
1
1
1.00636
2.08152
2.45207
2.45672
2.46321
2.46147
2.45831
2.45456
2.44983
2.44358
2.43543
2.42479
2.41132
2.3948
2.37535
2.35224
2.32623
2.29753
2.26697
1
1
1
1
1
1
1
1
1
1
1
1
1
1
1
1
1
1
1
1
1
1
1
1
1
1
1
1
1
0.999983
1.56863
2.35071
2.44746
2.45086
2.44908
2.44619
2.44224
2.43692
2.42991
2.42112
2.41035
2.39737
2.38215
2.36441
2.34357
2.31956
2.29306
2.26509
1
1
1
1
1
1
1
1
1
1
1
1
1
1
1
1
1
1
1
1
1
1
1
1
1
1
1
1
1
0.999995
1.08413
2.17588
2.43979
2.43437
2.43375
2.43219
2.42914
2.424
2.41663
2.40741
2.39647
2.38385
2.36941
2.35284
2.33389
2.31184
2.28772
2.26226
1
1
1
1
1
1
1
1
1
1
1
1
1
1
1
1
1
1
1
1
1
1
1
1
1
1
1
1
1
0.999999
1.00138
1.78935
2.36593
2.41115
2.41473
2.41688
2.41565
2.41152
2.40448
2.39528
2.38429
2.37177
2.35751
2.34141
2.32372
2.30335
2.28132
2.25817
1
1
1
1
1
1
1
1
1
1
1
1
1
1
1
1
1
1
1
1
1
1
1
1
1
1
1
1
1
1
0.999998
1.18502
2.20271
2.40911
2.40175
2.40293
2.40158
2.39771
2.39144
2.38301
2.37261
2.3605
2.34644
2.33061
2.31356
2.29442
2.2739
2.25263
1
1
1
1
1
1
1
1
1
1
1
1
1
1
1
1
1
1
1
1
1
1
1
1
1
1
1
1
1
1
0.999999
1.00744
1.90993
2.36136
2.3797
2.38334
2.38285
2.38059
2.3762
2.36949
2.36049
2.34938
2.33601
2.32068
2.30408
2.28583
2.26634
2.24619
1
1
1
1
1
1
1
1
1
1
1
1
1
1
1
1
1
1
1
1
1
1
1
1
1
1
1
1
1
1
1
1.00001
1.27727
2.21011
2.37762
2.37077
2.36871
2.36565
2.36132
2.35536
2.34738
2.33729
2.32497
2.31057
2.29476
2.27753
2.25903
2.23966
1
1
1
1
1
1
1
1
1
1
1
1
1
1
1
1
1
1
1
1
1
1
1
1
1
1
1
1
1
1
1
1
1.01724
1.96419
2.34045
2.35505
2.35178
2.34861
2.34471
2.33946
2.33242
2.32344
2.31244
2.29953
2.28517
2.26935
2.25202
2.23366
1
1
1
1
1
1
1
1
1
1
1
1
1
1
1
1
1
1
1
1
1
1
1
1
1
1
1
1
1
1
1
1
1.00006
1.33695
2.19808
2.34858
2.33948
2.33574
2.33104
2.32534
2.31849
2.31025
2.30046
2.28896
2.27591
2.26129
2.24508
2.22779
1
1
1
1
1
1
1
1
1
1
1
1
1
1
1
1
1
1
1
1
1
1
1
1
1
1
1
1
1
1
1
1
1
1.02592
1.96643
2.31687
2.3255
2.32161
2.31678
2.3109
2.30394
2.29589
2.28675
2.27635
2.26461
2.25154
2.23704
2.22116
1
1
1
1
1
1
1
1
1
1
1
1
1
1
1
1
1
1
1
1
1
1
1
1
1
1
1
1
1
1
1
1
1
1.00014
1.35334
2.17234
2.31593
2.30868
2.30412
2.29798
2.29065
2.28259
2.27385
2.26434
2.25381
2.24213
2.22918
2.21468
1
1
1
1
1
1
1
1
1
1
1
1
1
1
1
1
1
1
1
1
1
1
1
1
1
1
1
1
1
1
1
1
1
1
1.02869
1.92101
2.2838
2.29783
2.29128
2.28479
2.27754
2.26985
2.26154
2.25254
2.2427
2.23183
2.21981
2.20662
1
1
1
1
1
1
1
1
1
1
1
1
1
1
1
1
1
1
1
1
1
1
1
1
1
1
1
1
1
1
1
1
1
1
1.0002
1.31893
2.12865
2.28587
2.27791
2.2729
2.26611
2.25871
2.25068
2.2419
2.23235
2.22192
2.21048
2.19814
1
1
1
1
1
1
1
1
1
1
1
1
1
1
1
1
1
1
1
1
1
1
1
1
1
1
1
1
1
1
1
1
1
1
1
1.02285
1.81998
2.23588
2.26962
2.26141
2.25439
2.24761
2.24029
2.23196
2.22254
2.21226
2.20119
2.18922
1
1
1
1
1
1
1
1
1
1
1
1
1
1
1
1
1
1
1
1
1
1
1
1
1
1
1
1
1
1
1
1
1
1
1
1.00016
1.23977
2.05852
2.25525
2.24854
2.24483
2.23884
2.23139
2.22282
2.21329
2.20307
2.19234
2.18081
1
1
1
1
1
1
1
1
1
1
1
1
1
1
1
1
1
1
1
1
1
1
1
1
1
1
1
1
1
1
1
1
1
1
1
1
1.0125
1.63752
2.16318
2.23731
2.23123
2.22607
2.21974
2.21224
2.2037
2.1942
2.18395
2.17296
1
1
1
1
1
1
1
1
1
1
1
1
1
1
1
1
1
1
1
1
1
1
1
1
1
1
1
1
1
1
1
1
1
1
1
1
1.00008
1.13073
1.96261
2.22506
2.21707
2.21212
2.20711
2.20144
2.19453
2.18609
2.1763
2.16565
1
1
1
1
1
1
1
1
1
1
1
1
1
1
1
1
1
1
1
1
1
1
1
1
1
1
1
1
1
1
1
1
1
1
1
1
1
1.00377
1.45153
2.09173
2.20243
2.19515
2.19189
2.18774
2.18221
2.17527
2.16675
2.15701
1
1
1
1
1
1
1
1
1
1
1
1
1
1
1
1
1
1
1
1
1
1
1
1
1
1
1
1
1
1
1
1
1
1
1
1
1
1.00002
1.05473
1.80505
2.16678
2.18958
2.18342
2.17747
2.17133
2.16475
2.15731
2.1488
1
1
1
1
1
1
1
1
1
1
1
1
1
1
1
1
1
1
1
1
1
1
1
1
1
1
1
1
1
1
1
1
1
1
1
1
1
1
1.00082
1.25789
1.99099
2.17631
2.16881
2.16336
2.1578
2.15186
2.1454
2.13828
1
1
1
1
1
1
1
1
1
1
1
1
1
1
1
1
1
1
1
1
1
1
1
1
1
1
1
1
1
1
1
1
1
1
1
1
1
1
1
1.01524
1.55899
2.08081
2.15833
2.15133
2.146
2.14075
2.13492
2.12832
1
1
1
1
1
1
1
1
1
1
1
1
1
1
1
1
1
1
1
1
1
1
1
1
1
1
1
1
1
1
1
1
1
1
1
1
1
1
1
1.00013
1.09715
1.83317
2.13088
2.14527
2.13833
2.13167
2.12509
2.11828
1
1
1
1
1
1
1
1
1
1
1
1
1
1
1
1
1
1
1
1
1
1
1
1
1
1
1
1
1
1
1
1
1
1
1
1
1
1
1
1
1.00233
1.30779
1.96973
2.13043
2.12599
2.11978
2.11345
2.10683
1
1
1
1
1
1
1
1
1
1
1
1
1
1
1
1
1
1
1
1
1
1
1
1
1
1
1
1
1
1
1
1
1
1
1
1
1
1
1
1
1.00001
1.02306
1.56445
2.04489
2.11743
2.10957
2.10257
2.09661
1
1
1
1
1
1
1
1
1
1
1
1
1
1
1
1
1
1
1
1
1
1
1
1
1
1
1
1
1
1
1
1
1
1
1
1
1
1
1
1
1
1.00026
1.10404
1.7924
2.07893
2.10628
2.09715
2.08918
1
1
1
1
1
1
1
1
1
1
1
1
1
1
1
1
1
1
1
1
1
1
1
1
1
1
1
1
1
1
1
1
1
1
1
1
1
1
1
1
1
1
1.00279
1.2797
1.90974
2.08917
2.08761
2.08061
1
1
1
1
1
1
1
1
1
1
1
1
1
1
1
1
1
1
1
1
1
1
1
1
1
1
1
1
1
1
1
1
1
1
1
1
1
1
1
1
1
1
1.00002
1.01916
1.48705
1.98576
2.07655
2.07175
1
1
1
1
1
1
1
1
1
1
1
1
1
1
1
1
1
1
1
1
1
1
1
1
1
1
1
1
1
1
1
1
1
1
1
1
1
1
1
1
1
1
1
1.00021
1.07463
1.68681
2.02135
2.06687
1
1
1
1
1
1
1
1
1
1
1
1
1
1
1
1
1
1
1
1
1
1
1
1
1
1
1
1
1
1
1
1
1
1
1
1
1
1
1
1
1
1
1
1
1.00167
1.19342
1.81494
2.04688
1
1
1
1
1
1
1
1
1
1
1
1
1
1
1
1
1
1
1
1
1
1
1
1
1
1
1
1
1
1
1
1
1
1
1
1
1
1
1
1
1
1
1
1
1.00001
1.00919
1.35191
1.92206
1
1
1
1
1
1
1
1
1
1
1
1
1
1
1
1
1
1
1
1
1
1
1
1
1
1
1
1
1
1
1
1
1
1
1
1
1
1
1
1
1
1
1
1
1
1.00008
1.03525
1.54514
1
1
1
1
1
1
1
1
1
1
1
1
1
1
1
1
1
1
1
1
1
1
1
1
1
1
1
1
1
1
1
1
1
1
1
1
1
1
1
1
1
1
1
1
1
1
1.00058
1.09722
1
1
1
1
1
1
1
1
1
1
1
1
1
1
1
1
1
1
1
1
1
1
1
1
1
1
1
1
1
1
1
1
1
1
1
1
1
1
1
1
1
1
1
1
1
1
1
1.00302
1
1
1
1
1
1
1
1
1
1
1
1
1
1
1
1
1
1
1
1
1
1
1
1
1
1
1
1
1
1
1
1
1
1
1
1
1
1
1
1
1
1
1
1
1
1
1
1.00004
1
1
1
1
1
1
1
1
1
1
1
1
1
1
1
1
1
1
1
1
1
1
1
1
1
1
1
1
1
1
1
1
1
1
1
1
1
1
1
1
1
1
1
1
1
1
1
1
1
1
1
1
1
1
1
1
1
1
1
1
1
1
1
1
1
1
1
1
1
1
1
1
1
1
1
1
1
1
1
1
1
1
1
1
1
1
1
1
1
1
1
1
1
1
1
1
1
1
1
1
1
1
1
1
1
1
1
1
1
1
1
1
1
1
1
1
1
1
1
1
1
1
1
1
1
1
1
1
1
1
1
1
1
1
1
1
1
1
1
1
1
1
1
1
1
1
1
1
1
1
1
1
1
1
1
1
1
1
1
1
1
1
1
1
1
1
1
1
1
1
1
1
1
1
1
1
1
1
1
1
1
1
1
1
1
1
1
1
1
1
1
1
1
1
1
1
1
1
1
1
1
1
1
1
1
1
1
1
1
1
1
1
1
1
1
1
1
1
1
1
1
1
1
1
1
1
1
1
1
1
1
1
1
1
1
1
1
1
1
1
1
1
1
1
1
1
1
1
1
1
1
1
1
1
1
1
1
1
1
1
1
1
1
1
1
1
1
1
1
1
1
1
1
1
1
1
1
1
1
1
1
1
1
1
1
1
1
1
1
1
1
1
1
1
1
1
1
1
1
1
1
1
1
1
1
1
1
1
1
1
1
1
1
1
1
1
1
1
1
1
1
1
1
1
1
1
1
1
1
1
1
1
1
1
1
1
1
1
1
1
1
1
1
1
1
1
1
1
1
1
1
1
1
1
1
1
1
1
1
1
1
1
1
1
1
1
1
1
1
1
1
1
1
1
1
1
1
1
1
1
1
1
1
1
1
1
1
1
1
1
1
1
1
1
1
1
1
1
1
1
1
1
1
1
1
1
1
1
1
1
1
1
1
1
1
1
1
1
1
1
1
1
1
1
1
1
1
1
1
1
1
1
1
1
1
1
1
1
1
1
1
1
1
1
1
1
1
1
1
1
1
1
1
1
1
1
1
1
1
1
1
1
1
1
1
1
1
1
1
1
1
1
1
1
1
1
1
1
1
1
1
1
1
1
1
1
1
1
1
1
1
1
1
1
1
1
1
1
1
1
1
1
1
1
1
1
1
1
1
1
1
1
1
1
1
1
1
1
1
1
1
1
1
1
1
1
1
1
1
1
1
1
1
1
1
1
1
1
1
1
1
1
1
1
1
1
1
1
1
1
1
1
1
1
1
1
1
1
1
1
1
1
1
1
1
1
1
1
1
1
1
1
1
1
1
1
1
1
1
1
1
1
1
1
1
1
1
1
1
1
1
1
1
1
1
1
1
1
1
1
1
1
1
1
1
1
1
1
1
1
1
1
1
1
1
1
1
1
1
1
1
1
1
1
1
1
1
1
1
1
1
1
1
1
1
1
1
1
1
1
1
1
1
1
1
1
1
1
1
1
1
1
1
1
1
1
1
1
1
1
1
1
1
1
1
1
1
1
1
1
1
1
1
1
1
1
1
1
1
1
1
1
1
1
1
1
1
1
1
1
1
1
1
1
1
1
1
1
1
1
1
1
1
1
1
1
1
1
1
1
1
1
1
1
1
1
1
1
1
1
1.56056
0.934471
0.596643
0.841448
0.996445
1.03714
1.10782
1.21691
1.26056
1.2661
1.28821
1.34032
1.39445
1.44978
1.52321
1.5936
1.63477
1.63559
1.61744
1.59064
1.59035
1.61727
1.65266
1.65529
1.64861
1.62689
1.61643
1.61964
1.63378
1.658
1.67643
1.67689
1.66897
1.65678
1.65213
1.65608
1.66961
1.68693
1.69664
1.69646
1.69042
1.68255
1.67844
1.67716
1.67718
1.67955
1.68075
1.678
1.67268
1.6683
1.66582
1.66562
1.66738
1.6676
1.66532
1.66014
2.15685
2.75275
2.82018
2.82223
2.82058
2.81402
2.80566
2.79596
2.78632
2.77861
2.7733
2.76835
2.76269
2.75683
2.75052
2.74442
2.73876
2.73299
2.72507
2.71341
2.69934
2.68594
2.67552
2.66915
2.66665
2.66551
2.66253
2.65652
2.64809
2.63923
2.63126
2.62466
2.61886
2.61217
2.60337
2.59302
2.58247
2.57264
2.56409
2.557
2.55095
2.54489
2.53808
2.53067
2.52226
2.51253
2.50262
2.49246
2.48163
2.47136
2.4633
2.45758
2.45411
2.45297
2.45204
2.4497
2.44569
2.44038
2.43409
2.427
2.41876
2.40962
2.39989
2.38919
2.37839
2.36864
2.36018
2.35265
2.34618
2.34121
2.3376
2.33449
2.3308
2.32587
2.32007
2.31344
2.30548
2.29722
2.29055
2.28524
2.28059
2.27688
2.27357
2.26977
2.26472
2.25788
2.24973
2.23939
2.23003
2.22258
2.2156
2.20878
2.202
2.1952
2.18901
2.18393
2.17978
2.17668
2.1732
2.16922
2.1647
2.15902
2.15304
2.14856
2.14509
2.14231
2.14082
2.13863
2.1344
2.1287
2.11965
2.11
2.10376
2.10014
2.09759
2.09566
2.0943
2.09132
2.08634
2.07955
2.06916
2.05478
2.04249
2.03509
2.029
2.0234
2.01813
2.01316
2.00811
2.0029
1.99808
1.9939
1.99033
1.9875
1.98555
1.98049
1.79722
1.43314
1.11041
1.14093
1.14082
1.08504
1.01591
1.00588
1.01764
1.0397
1.06398
1.09534
1.14469
1.20081
1.25685
1.32608
1.37784
1.40345
1.4321
1.45642
1.48186
1.51525
1.54779
1.56941
1.57665
1.57697
1.57891
1.58516
1.59561
1.60904
1.62161
1.62527
1.62353
1.62001
1.62011
1.62407
1.63578
1.65072
1.66066
1.66219
1.66037
1.65726
1.65559
1.65468
1.6544
1.65594
1.6573
1.65584
1.65241
1.64841
1.64588
1.64594
1.64858
1.6501
1.64946
1.64701
2.11114
2.72102
2.80806
2.80519
2.79573
2.78697
2.7812
2.77555
2.76809
2.75883
2.74962
2.74164
2.73693
2.73384
2.73004
2.72416
2.71654
2.70836
2.70061
2.69334
2.6845
2.67286
2.66079
2.65053
2.64261
2.63809
2.63685
2.636
2.63189
2.62368
2.61411
2.6048
2.5964
2.59018
2.58509
2.57879
2.56986
2.55914
2.54815
2.53746
2.52842
2.52208
2.51762
2.51331
2.50702
2.49923
2.49161
2.48449
2.47801
2.47174
2.46525
2.45851
2.45228
2.44687
2.44205
2.43691
2.43108
2.42453
2.41736
2.41003
2.40336
2.3974
2.39133
2.38426
2.37616
2.36728
2.3584
2.35027
2.34304
2.33687
2.33162
2.32618
2.32048
2.31512
2.30998
2.30449
2.29898
2.29388
2.28861
2.28299
2.2773
2.27174
2.26623
2.2605
2.2544
2.24866
2.24247
2.23605
2.22953
2.22249
2.21511
2.20766
2.20026
2.19301
2.18608
2.17983
2.17473
2.17049
2.16728
2.1641
2.16039
2.15618
2.15113
2.14572
2.14108
2.1375
2.1341
2.1307
2.12749
2.12325
2.11737
2.11082
2.104
2.09793
2.0937
2.09091
2.08844
2.08651
2.08319
2.0773
2.06867
2.05641
2.04294
2.03304
2.02604
2.02045
2.01602
2.01147
2.00694
2.00238
1.99767
1.99305
1.98867
1.9843
1.98026
1.97403
1.89856
1.70221
1.52269
1.36699
1.25965
1.20743
1.1593
1.1068
1.07908
1.05064
1.05364
1.05803
1.0644
1.08727
1.10843
1.11576
1.14274
1.18607
1.23933
1.29531
1.33171
1.36518
1.39882
1.43281
1.46818
1.49516
1.51232
1.52536
1.53306
1.53826
1.5448
1.55119
1.5517
1.55216
1.5538
1.55981
1.57025
1.58008
1.58703
1.5912
1.59496
1.599
1.60182
1.60297
1.60391
1.60544
1.60621
1.60651
1.60616
1.60565
1.60523
1.60573
1.60735
1.60906
1.6089
1.61275
1.91378
2.61118
2.73894
2.72212
2.70933
2.70209
2.69803
2.69817
2.69867
2.69725
2.6885
2.67612
2.66752
2.6629
2.66235
2.66164
2.65653
2.64773
2.6386
2.63103
2.626
2.62206
2.61638
2.60759
2.59703
2.58712
2.57962
2.57616
2.57604
2.5749
2.56927
2.56068
2.55084
2.5423
2.53567
2.53179
2.52896
2.52373
2.51454
2.50285
2.49078
2.48049
2.47244
2.46757
2.46264
2.45626
2.45024
2.44528
2.44156
2.43889
2.43723
2.43563
2.43251
2.42752
2.42035
2.41187
2.40367
2.39571
2.38738
2.37884
2.37116
2.36485
2.35973
2.35611
2.35175
2.34537
2.33824
2.33124
2.32474
2.31916
2.31423
2.30835
2.30164
2.29403
2.28567
2.27839
2.27372
2.27042
2.26837
2.26654
2.26337
2.25842
2.25119
2.24151
2.23196
2.22499
2.22006
2.21647
2.21386
2.20922
2.20331
2.19697
2.19008
2.1832
2.17671
2.17031
2.16359
2.15669
2.15083
2.14662
2.14369
2.1416
2.13887
2.13552
2.13109
2.1251
2.11825
2.1127
2.10816
2.10475
2.10289
2.10053
2.09755
2.09273
2.0853
2.07795
2.07376
2.07111
2.06895
2.06597
2.06065
2.05292
2.04311
2.03165
2.02061
2.01186
2.00545
2.00071
1.99798
1.99516
1.99167
1.98779
1.98264
1.97527
1.96849
1.96098
1.98378
1.8092
1.68688
1.57887
1.44476
1.34365
1.29368
1.25763
1.21964
1.17855
1.16744
1.15799
1.13169
1.10666
1.08949
1.08703
1.09699
1.1113
1.1311
1.16392
1.20043
1.23672
1.2764
1.31371
1.35371
1.3985
1.42386
1.4396
1.45287
1.45668
1.46299
1.4752
1.48435
1.49147
1.50108
1.51103
1.5155
1.51775
1.52065
1.52396
1.52807
1.53514
1.54019
1.54228
1.54337
1.54365
1.54427
1.54617
1.54965
1.55282
1.55561
1.55717
1.55889
1.55882
1.56485
1.58633
1.72974
2.37988
2.6344
2.60943
2.58717
2.58248
2.57926
2.57902
2.57992
2.58267
2.5819
2.57494
2.56656
2.55917
2.55537
2.55371
2.5532
2.55008
2.54465
2.53868
2.53333
2.52856
2.52518
2.52197
2.51677
2.50977
2.50207
2.49551
2.49052
2.48748
2.48478
2.48075
2.47591
2.46965
2.46273
2.45724
2.45263
2.44898
2.44437
2.43799
2.43053
2.42261
2.41531
2.40937
2.40342
2.39797
2.39289
2.38834
2.38459
2.38204
2.3808
2.37986
2.37737
2.37364
2.36794
2.36012
2.35269
2.34734
2.34279
2.33796
2.33232
2.32622
2.32067
2.31602
2.31136
2.30586
2.29969
2.29273
2.28514
2.27824
2.27211
2.26672
2.26133
2.25565
2.2498
2.24396
2.23859
2.23436
2.23131
2.22854
2.22571
2.22203
2.21699
2.21024
2.20241
2.19573
2.19124
2.18805
2.18553
2.18179
2.17715
2.17161
2.1645
2.15656
2.14965
2.14381
2.13821
2.13259
2.12696
2.12175
2.11751
2.11417
2.11138
2.10872
2.10538
2.10024
2.09283
2.08511
2.07991
2.07709
2.07556
2.07529
2.07474
2.07307
2.06965
2.06259
2.05353
2.047
2.04364
2.04091
2.03831
2.03484
2.02939
2.02205
2.01283
2.00195
1.99197
1.98517
1.98053
1.9775
1.97488
1.97151
1.96754
1.96078
1.95172
1.94152
2.05148
1.90762
1.78004
1.68192
1.59021
1.50238
1.4267
1.37926
1.32914
1.27633
1.24341
1.23541
1.2263
1.20781
1.18009
1.15264
1.14358
1.14518
1.14465
1.14621
1.15331
1.16334
1.17682
1.1959
1.22385
1.27348
1.32095
1.35503
1.38835
1.40163
1.40889
1.41977
1.43279
1.44243
1.45573
1.47203
1.47666
1.47746
1.48037
1.48507
1.49162
1.50219
1.50797
1.50813
1.50704
1.50583
1.50604
1.50889
1.51651
1.52246
1.5238
1.52278
1.52181
1.52651
1.55809
1.66345
1.77626
2.06834
2.4166
2.51185
2.4888
2.47768
2.47173
2.47076
2.47135
2.47285
2.47668
2.47656
2.47437
2.46938
2.46291
2.45957
2.45751
2.45734
2.45634
2.45368
2.44956
2.44404
2.4399
2.43621
2.43304
2.43003
2.42574
2.42072
2.41472
2.40914
2.40535
2.40258
2.4001
2.39726
2.39308
2.38677
2.37983
2.37423
2.36921
2.36494
2.36097
2.35642
2.35142
2.34599
2.34028
2.33497
2.33072
2.32752
2.32497
2.32293
2.32074
2.31781
2.31441
2.3103
2.30483
2.29738
2.28889
2.28276
2.27968
2.2775
2.27531
2.27275
2.2694
2.26526
2.26104
2.25677
2.25184
2.24597
2.23916
2.23144
2.22302
2.21506
2.20865
2.20394
2.20064
2.19804
2.19578
2.19319
2.18927
2.18375
2.17744
2.17143
2.16595
2.16103
2.15707
2.15435
2.15235
2.15065
2.14859
2.14594
2.14261
2.13805
2.13154
2.12328
2.11448
2.10642
2.10012
2.0952
2.09111
2.08748
2.08382
2.08027
2.07668
2.07278
2.06809
2.062
2.05469
2.0482
2.04437
2.0424
2.04126
2.04099
2.04071
2.04023
2.0396
2.03712
2.03072
2.02185
2.01425
2.00921
2.00599
2.00319
2.00014
1.99597
1.99029
1.98385
1.9762
1.96728
1.95915
1.95349
1.94911
1.9448
1.93996
1.93371
1.927
1.91924
2.09611
1.97499
1.86993
1.77715
1.68233
1.59337
1.53375
1.49103
1.44998
1.38794
1.31917
1.29968
1.29831
1.28948
1.27457
1.25039
1.21715
1.19966
1.19232
1.17779
1.16163
1.16159
1.17232
1.17218
1.17263
1.18028
1.20102
1.22863
1.26633
1.31066
1.34106
1.36367
1.39051
1.40956
1.42532
1.44643
1.45604
1.45731
1.46023
1.46532
1.47198
1.48186
1.48553
1.48539
1.48392
1.4847
1.48718
1.49336
1.50229
1.5049
1.50465
1.50392
1.50698
1.5438
1.65276
1.81326
1.87315
1.91422
2.14169
2.36612
2.43359
2.43064
2.42247
2.41309
2.40865
2.40824
2.41199
2.41646
2.41582
2.4131
2.4068
2.39977
2.39594
2.39376
2.3937
2.39252
2.3902
2.38612
2.38038
2.37631
2.37296
2.37112
2.36989
2.36661
2.36254
2.35661
2.35097
2.3478
2.34512
2.34236
2.33892
2.3337
2.32656
2.32016
2.31568
2.31201
2.30932
2.3061
2.30201
2.29758
2.29233
2.28671
2.28207
2.27858
2.2755
2.27243
2.26923
2.26567
2.26179
2.25758
2.25286
2.24711
2.23987
2.23295
2.2294
2.22765
2.22621
2.22437
2.22133
2.21652
2.21072
2.20572
2.20134
2.19686
2.19182
2.18575
2.17831
2.17016
2.16362
2.15933
2.15633
2.15465
2.15313
2.15097
2.14739
2.14074
2.13233
2.1254
2.12069
2.11775
2.1159
2.11441
2.11266
2.11029
2.10741
2.10446
2.10121
2.09717
2.09224
2.08657
2.0802
2.0731
2.06579
2.05962
2.05501
2.05099
2.04732
2.04367
2.03983
2.03515
2.02957
2.02374
2.01866
2.01455
2.01064
2.00699
2.00496
2.00392
2.00322
2.00268
2.00218
2.00056
1.99572
1.98796
1.98017
1.97448
1.97119
1.96889
1.96649
1.96379
1.96105
1.9575
1.95248
1.94599
1.9375
1.92822
1.92019
1.9134
1.90714
1.90157
1.89817
1.89466
2.13282
2.03286
1.933
1.84604
1.77425
1.69797
1.60457
1.5545
1.52836
1.48775
1.44313
1.39032
1.34001
1.33115
1.33238
1.32137
1.29648
1.26235
1.24698
1.23722
1.2209
1.20713
1.20224
1.20128
1.19422
1.18523
1.18502
1.18823
1.19652
1.21127
1.23511
1.26545
1.30413
1.34767
1.37893
1.40714
1.43449
1.44078
1.44395
1.44993
1.45862
1.47008
1.47465
1.47463
1.47387
1.47671
1.48153
1.48835
1.49454
1.49561
1.49655
1.50196
1.53809
1.66309
1.79947
1.89662
1.9134
1.90685
1.94133
2.14863
2.35409
2.41083
2.41108
2.40012
2.38856
2.38441
2.38479
2.38777
2.38961
2.38712
2.38268
2.37514
2.36804
2.3645
2.36301
2.36267
2.36113
2.35897
2.35482
2.35025
2.34739
2.34574
2.34471
2.34128
2.33596
2.329
2.32117
2.31576
2.31242
2.30936
2.30603
2.30193
2.29636
2.29031
2.28569
2.28216
2.27921
2.27575
2.2718
2.26733
2.26208
2.25666
2.25197
2.24766
2.24309
2.23806
2.23303
2.22841
2.22412
2.21997
2.21585
2.21154
2.20667
2.2015
2.19767
2.19563
2.19427
2.19227
2.18906
2.18305
2.17429
2.16719
2.16254
2.15835
2.15388
2.1488
2.14294
2.13667
2.13126
2.12739
2.12472
2.12292
2.12065
2.1178
2.11277
2.10493
2.09682
2.09138
2.0884
2.08649
2.08535
2.08396
2.08178
2.07808
2.07285
2.06779
2.06349
2.05951
2.05568
2.0519
2.04798
2.04363
2.03854
2.0328
2.02719
2.02235
2.01792
2.01322
2.00768
2.00154
1.99598
1.99182
1.98879
1.98601
1.98275
1.97868
1.97464
1.97234
1.9712
1.97036
1.96903
1.96541
1.95933
1.95275
1.94672
1.9412
1.93692
1.93484
1.9337
1.9324
1.93112
1.92951
1.92624
1.92164
1.9148
1.90434
1.89271
1.88375
1.87818
1.87486
1.87317
1.87027
2.15751
2.07325
1.99191
1.90399
1.83093
1.77327
1.70148
1.63635
1.57708
1.539
1.51846
1.4858
1.43582
1.39022
1.37682
1.37062
1.35555
1.32709
1.29594
1.28416
1.27591
1.26286
1.24938
1.2432
1.23801
1.22409
1.20311
1.19941
1.20317
1.20863
1.20872
1.21173
1.22067
1.24053
1.27075
1.30411
1.34559
1.38315
1.40578
1.42228
1.43636
1.45528
1.46817
1.47258
1.47344
1.47553
1.48066
1.48742
1.48998
1.48988
1.49996
1.5526
1.66627
1.80096
1.86853
1.91017
1.91991
1.9157
1.90801
1.95202
2.16391
2.35569
2.40488
2.40254
2.39251
2.38251
2.3784
2.37589
2.37669
2.37622
2.37278
2.36812
2.36051
2.35422
2.3509
2.34935
2.34939
2.34863
2.34648
2.34167
2.33566
2.33154
2.32771
2.32428
2.31976
2.31454
2.30819
2.30106
2.29604
2.29232
2.28893
2.28561
2.28155
2.27728
2.27291
2.26838
2.26376
2.25917
2.25447
2.24947
2.2442
2.2391
2.2344
2.22987
2.22503
2.21945
2.21354
2.20853
2.2046
2.20122
2.19795
2.19473
2.19175
2.18876
2.18528
2.18151
2.17774
2.17338
2.16756
2.1593
2.14896
2.14051
2.13557
2.13187
2.12823
2.12455
2.121
2.11755
2.11389
2.11002
2.10629
2.10284
2.09876
2.09349
2.08759
2.08181
2.07709
2.07365
2.07109
2.0692
2.0672
2.06455
2.06029
2.05345
2.04597
2.04
2.03571
2.03244
2.02969
2.02718
2.02468
2.022
2.01879
2.01466
2.00916
2.00255
1.9958
1.98912
1.98251
1.97668
1.97242
1.96943
1.96697
1.96463
1.96217
1.9593
1.95571
1.95158
1.94776
1.94437
1.93982
1.93435
1.92916
1.92498
1.92138
1.91762
1.91305
1.90852
1.9063
1.9053
1.90449
1.9041
1.90257
1.89912
1.89291
1.88304
1.87144
1.86192
1.85676
1.85398
1.85286
1.84991
2.17959
2.10426
2.03511
1.95917
1.88626
1.82713
1.7668
1.71136
1.65963
1.60151
1.56505
1.54394
1.51296
1.46842
1.43385
1.41668
1.40371
1.38465
1.35342
1.32225
1.31657
1.31266
1.30372
1.28918
1.28105
1.27033
1.24861
1.23736
1.23507
1.22953
1.22231
1.21948
1.21948
1.21869
1.22061
1.22823
1.24503
1.27424
1.30928
1.34727
1.38309
1.41348
1.43636
1.45707
1.46641
1.46858
1.47679
1.4818
1.48469
1.49654
1.57606
1.70554
1.8044
1.8635
1.89896
1.91812
1.92169
1.91784
1.90958
1.90672
1.95901
2.16701
2.34895
2.39982
2.39937
2.39216
2.38015
2.36931
2.36687
2.36595
2.36697
2.36445
2.36008
2.35288
2.34672
2.3433
2.34234
2.34259
2.34044
2.33617
2.32848
2.32067
2.31604
2.31245
2.3103
2.30638
2.30177
2.29563
2.28878
2.28412
2.28035
2.27738
2.27466
2.27108
2.26691
2.26225
2.2569
2.25119
2.24535
2.23948
2.23403
2.22919
2.22469
2.22033
2.21586
2.21096
2.2055
2.20056
2.19651
2.19305
2.18994
2.18707
2.18434
2.18118
2.1771
2.17144
2.16425
2.15724
2.15004
2.1422
2.13402
2.12591
2.11988
2.11631
2.11353
2.11117
2.10964
2.10804
2.10527
2.10127
2.09532
2.08822
2.08161
2.0759
2.07178
2.06918
2.06708
2.06489
2.06203
2.05836
2.05382
2.04811
2.0415
2.03474
2.02858
2.02321
2.01891
2.01601
2.01399
2.01242
2.01122
2.00979
2.00755
2.00371
1.99722
1.98861
1.97981
1.97191
1.96541
1.96087
1.95791
1.95563
1.95413
1.95321
1.95196
1.94987
1.94596
1.93878
1.92902
1.92036
1.91489
1.91074
1.90725
1.90448
1.90226
1.90041
1.89805
1.89435
1.8901
1.8878
1.88679
1.88591
1.88347
1.8787
1.87206
1.8649
1.85785
1.8509
1.84461
1.84026
1.83879
1.83586
2.19596
2.12991
2.06861
1.99979
1.93454
1.8816
1.82164
1.7624
1.7247
1.67621
1.623
1.59113
1.56725
1.53664
1.49848
1.46061
1.44207
1.43135
1.41158
1.38046
1.35731
1.35237
1.34857
1.34026
1.32818
1.3134
1.28881
1.27709
1.27122
1.26373
1.25471
1.24802
1.24134
1.23147
1.22631
1.2284
1.23046
1.23233
1.23669
1.24852
1.27479
1.30998
1.34842
1.38438
1.4224
1.4419
1.45626
1.46875
1.49336
1.56893
1.73323
1.81957
1.86467
1.89387
1.90805
1.91172
1.91059
1.91068
1.91126
1.91043
1.91062
1.96091
2.15737
2.33703
2.39382
2.39868
2.38892
2.37066
2.36063
2.35734
2.35685
2.36005
2.35801
2.35323
2.34548
2.33907
2.33607
2.33492
2.3334
2.32983
2.32406
2.31532
2.30844
2.30416
2.30162
2.30017
2.29646
2.29186
2.28537
2.27886
2.27429
2.27075
2.26847
2.26514
2.26109
2.25675
2.25198
2.2469
2.24125
2.23473
2.22777
2.22183
2.21739
2.21351
2.20972
2.20572
2.20129
2.19626
2.19058
2.18556
2.18171
2.17833
2.17486
2.17103
2.1665
2.1604
2.15256
2.14449
2.13806
2.13255
2.12701
2.12087
2.11443
2.10967
2.10689
2.10529
2.10464
2.10298
2.09976
2.09424
2.08503
2.0751
2.06852
2.06496
2.06258
2.06123
2.06021
2.05794
2.05459
2.04935
2.04144
2.03365
2.02778
2.02318
2.01929
2.0156
2.01193
2.00874
2.00648
2.00498
2.00379
2.00174
1.9978
1.99168
1.98435
1.97697
1.96985
1.9631
1.95747
1.95337
1.95046
1.94857
1.94802
1.94796
1.94632
1.9426
1.93619
1.92632
1.91443
1.90454
1.89848
1.89524
1.89324
1.89193
1.89143
1.89126
1.89045
1.88873
1.88526
1.87929
1.87266
1.86703
1.86278
1.85888
1.85471
1.85084
1.84787
1.84471
1.84042
1.83505
1.83042
1.82468
2.20977
2.15324
2.09699
2.03336
1.97638
1.92524
1.86995
1.81527
1.77356
1.73121
1.68517