/*--------------------------------*- C++ -*----------------------------------*\
  =========                 |
  \\      /  F ield         | OpenFOAM: The Open Source CFD Toolbox
   \\    /   O peration     | Website:  https://openfoam.org
    \\  /    A nd           | Version:  7
     \\/     M anipulation  |
\*---------------------------------------------------------------------------*/
FoamFile
{
    version     2.0;
    format      ascii;
    class       volVectorField;
    location    "4";
    object      U;
}
// * * * * * * * * * * * * * * * * * * * * * * * * * * * * * * * * * * * * * //

dimensions      [0 1 -1 0 0 0 0];

internalField   nonuniform List<vector> 
16128
(
(3 5.59029e-17 0)
(3 -1.75459e-16 0)
(3 2.57376e-16 0)
(3 2.35245e-16 0)
(3 2.54356e-16 0)
(3 1.07231e-16 0)
(3 1.2349e-16 0)
(3 -1.08435e-16 0)
(3 -7.26023e-16 0)
(3 -9.94244e-16 0)
(3 -9.83688e-16 0)
(3 -6.06732e-16 0)
(3 1.19664e-16 0)
(3 8.90187e-17 0)
(3 -2.09454e-16 0)
(3 3.14611e-16 0)
(3 3.7212e-16 0)
(3 4.91073e-16 0)
(3 5.57985e-16 0)
(3 3.37538e-16 0)
(3 -1.99101e-17 0)
(3 -7.18346e-17 0)
(3 -9.83656e-17 0)
(3 -9.11995e-17 0)
(1.52714 0.00831389 0)
(0.774415 0.00923361 0)
(0.722684 0.0112377 0)
(0.696365 0.0120277 0)
(0.666727 0.0124886 0)
(0.637585 0.0130271 0)
(0.607456 0.0135862 0)
(0.576664 0.0139972 0)
(0.545658 0.0141294 0)
(0.515101 0.0139847 0)
(0.485288 0.0138637 0)
(0.455669 0.0141404 0)
(0.425386 0.0147063 0)
(0.394192 0.0151645 0)
(0.362373 0.0154633 0)
(0.330022 0.0158238 0)
(0.296902 0.0163281 0)
(0.262667 0.0169425 0)
(0.227038 0.0176745 0)
(0.189794 0.0185349 0)
(0.150732 0.0195238 0)
(0.109574 0.0206436 0)
(0.0665912 0.0212626 0)
(0.0231692 0.0220119 0)
(3 -7.37686e-17 0)
(3 -1.55801e-16 0)
(3 -4.87379e-17 0)
(3 -1.07679e-17 0)
(3 3.33476e-17 0)
(3 -2.28264e-17 0)
(3 4.44662e-18 0)
(3 -1.24662e-16 0)
(3 -5.72158e-16 0)
(3 -1.19322e-15 0)
(3 -4.55059e-16 0)
(3 2.44583e-16 0)
(3 4.60499e-16 0)
(3 3.53878e-16 0)
(3 1.53607e-16 0)
(3 4.50096e-16 0)
(3 6.12e-16 0)
(3 1.1621e-15 0)
(3 1.01097e-15 0)
(3 8.74247e-16 0)
(3 6.19405e-16 0)
(3 3.61272e-16 0)
(3 2.29338e-16 0)
(3 6.06998e-16 0)
(1.54252 0.0386794 0)
(0.770202 0.0373022 0)
(0.71478 0.033273 0)
(0.688051 0.0343186 0)
(0.658495 0.0356707 0)
(0.629446 0.0374145 0)
(0.599436 0.0392834 0)
(0.568714 0.0406994 0)
(0.53768 0.0412426 0)
(0.507013 0.0408361 0)
(0.477082 0.0404253 0)
(0.447426 0.0412844 0)
(0.41722 0.0431211 0)
(0.386155 0.0446525 0)
(0.354534 0.0457111 0)
(0.322495 0.0469734 0)
(0.289863 0.0486738 0)
(0.256349 0.0506961 0)
(0.221715 0.0530548 0)
(0.185704 0.055798 0)
(0.147991 0.0589237 0)
(0.108134 0.0625056 0)
(0.0660769 0.0646836 0)
(0.0231982 0.0673771 0)
(3 1.00493e-17 0)
(3 -3.51356e-17 0)
(3 -3.70712e-16 0)
(3 -3.83709e-16 0)
(3 -4.31284e-16 0)
(3 -3.2398e-16 0)
(3 -5.62559e-16 0)
(3 -7.52475e-16 0)
(3 -5.4803e-16 0)
(3 -2.27286e-16 0)
(3 1.63554e-16 0)
(3 4.00916e-16 0)
(3 -3.54661e-16 0)
(3 -6.4329e-16 0)
(3 -5.76434e-16 0)
(3 -6.67722e-16 0)
(3 -2.10542e-16 0)
(3 2.78025e-17 0)
(3 -1.87297e-16 0)
(3 -1.46936e-16 0)
(3 -1.25293e-16 0)
(3 1.26393e-17 0)
(3 3.15378e-16 0)
(3 -4.03241e-16 0)
(1.59311 0.0686736 0)
(0.777357 0.065127 0)
(0.716867 0.0578962 0)
(0.688243 0.0589034 0)
(0.657528 0.0607543 0)
(0.627698 0.0633541 0)
(0.59725 0.0662811 0)
(0.566229 0.0685856 0)
(0.534846 0.0695671 0)
(0.503661 0.0689737 0)
(0.473059 0.0682191 0)
(0.442717 0.069456 0)
(0.411934 0.072321 0)
(0.380303 0.0747075 0)
(0.348112 0.0762855 0)
(0.315539 0.0781435 0)
(0.282483 0.080654 0)
(0.248763 0.0836291 0)
(0.214286 0.0871455 0)
(0.178905 0.0913975 0)
(0.142318 0.0964377 0)
(0.104071 0.102504 0)
(0.0636462 0.10647 0)
(0.0225122 0.111461 0)
(3 -1.15558e-16 0)
(3 -1.58641e-16 0)
(3 -8.08616e-18 0)
(3 8.59445e-17 0)
(3 -4.09138e-17 0)
(3 -3.93463e-16 0)
(3 -2.28622e-16 0)
(3 -4.52434e-16 0)
(3 -3.90224e-16 0)
(3 -3.84228e-16 0)
(3 -1.54299e-15 0)
(3 -2.06539e-15 0)
(3 -2.10465e-15 0)
(3 -2.1571e-15 0)
(3 -1.77349e-15 0)
(3 -1.09274e-15 0)
(3 -7.64515e-16 0)
(3 -5.62691e-16 0)
(3 -8.31365e-16 0)
(3 -1.00212e-15 0)
(3 -4.4753e-16 0)
(3 -6.33462e-17 0)
(3 -1.20506e-16 0)
(3 1.38228e-15 0)
(1.67026 0.0952486 0)
(0.786792 0.0925899 0)
(0.720457 0.0836136 0)
(0.690941 0.0838245 0)
(0.659964 0.0858478 0)
(0.630157 0.0890788 0)
(0.599997 0.0929378 0)
(0.569333 0.0961621 0)
(0.538161 0.0978244 0)
(0.506865 0.0974132 0)
(0.475827 0.0965901 0)
(0.444902 0.0983512 0)
(0.413563 0.102368 0)
(0.381268 0.105785 0)
(0.348271 0.10806 0)
(0.314788 0.110636 0)
(0.280764 0.113972 0)
(0.246085 0.117744 0)
(0.210797 0.12203 0)
(0.174935 0.127214 0)
(0.138347 0.133453 0)
(0.100822 0.141444 0)
(0.0614109 0.146942 0)
(0.0217991 0.154117 0)
(3 -1.09138e-16 0)
(3 1.49438e-16 0)
(3 -1.30013e-16 0)
(3 -1.12779e-16 0)
(3 -3.59335e-16 0)
(3 -4.83712e-16 0)
(3 -2.82765e-16 0)
(3 2.60403e-16 0)
(3 -3.18651e-16 0)
(3 -8.64251e-16 0)
(3 -1.4143e-15 0)
(3 -1.44608e-15 0)
(3 -1.24476e-15 0)
(3 -1.1128e-15 0)
(3 -1.19483e-15 0)
(3 -1.12817e-15 0)
(3 -1.49019e-15 0)
(3 -1.36414e-15 0)
(3 -1.06977e-15 0)
(3 -1.23274e-15 0)
(3 -1.04574e-15 0)
(3 -8.58689e-16 0)
(3 -9.14076e-16 0)
(3 -2.35633e-15 0)
(1.77536 0.120886 0)
(0.798566 0.120352 0)
(0.723117 0.110969 0)
(0.692426 0.109479 0)
(0.661074 0.111219 0)
(0.63136 0.114739 0)
(0.601645 0.119306 0)
(0.571584 0.123394 0)
(0.540965 0.125896 0)
(0.509948 0.125972 0)
(0.478902 0.125227 0)
(0.447884 0.127476 0)
(0.416579 0.132619 0)
(0.38425 0.137146 0)
(0.35106 0.140233 0)
(0.317238 0.14365 0)
(0.282736 0.147955 0)
(0.247422 0.152652 0)
(0.211394 0.157735 0)
(0.174805 0.163731 0)
(0.137615 0.17076 0)
(0.0999768 0.180182 0)
(0.0606033 0.186819 0)
(0.0215877 0.195809 0)
(3 1.95916e-17 0)
(3 -9.56635e-17 0)
(3 -2.70058e-16 0)
(3 -2.43065e-16 0)
(3 -2.48861e-16 0)
(3 -1.24468e-16 0)
(3 -4.80788e-16 0)
(3 -5.92353e-16 0)
(3 -6.06773e-16 0)
(3 4.34299e-17 0)
(3 2.72215e-16 0)
(3 9.3897e-18 0)
(3 5.63389e-17 0)
(3 -2.26744e-16 0)
(3 -3.97748e-16 0)
(3 -6.21122e-16 0)
(3 -9.50111e-16 0)
(3 -1.80754e-15 0)
(3 -1.57298e-15 0)
(3 -1.44995e-15 0)
(3 -1.65559e-15 0)
(3 -1.6452e-15 0)
(3 -1.70554e-15 0)
(3 -3.80035e-15 0)
(1.91497 0.143851 0)
(0.815681 0.148732 0)
(0.727827 0.139896 0)
(0.696106 0.135722 0)
(0.664309 0.136692 0)
(0.634717 0.140188 0)
(0.605409 0.145266 0)
(0.575866 0.150146 0)
(0.545752 0.153615 0)
(0.515003 0.154519 0)
(0.483935 0.154072 0)
(0.452807 0.156805 0)
(0.421577 0.163082 0)
(0.389284 0.168875 0)
(0.35592 0.172961 0)
(0.321737 0.177388 0)
(0.286693 0.182832 0)
(0.250635 0.188611 0)
(0.213701 0.194552 0)
(0.176183 0.201322 0)
(0.138101 0.208868 0)
(0.0999988 0.219381 0)
(0.0602993 0.226854 0)
(0.0215114 0.237321 0)
(3 -9.87142e-17 0)
(3 -3.52101e-16 0)
(3 1.3548e-16 0)
(3 4.27577e-16 0)
(3 2.05745e-16 0)
(3 -8.41211e-18 0)
(3 -2.05885e-16 0)
(3 -9.15569e-17 0)
(3 1.20766e-16 0)
(3 5.91716e-16 0)
(3 6.87864e-16 0)
(3 6.28904e-16 0)
(3 3.26609e-16 0)
(3 -9.29827e-17 0)
(3 5.97304e-17 0)
(3 -1.11e-16 0)
(3 -5.37267e-16 0)
(3 -8.81908e-16 0)
(3 -1.35687e-15 0)
(3 -8.52024e-16 0)
(3 -7.70961e-16 0)
(3 -9.91012e-16 0)
(3 -1.06852e-15 0)
(3 -1.97752e-15 0)
(2.08767 0.161403 0)
(0.837997 0.178173 0)
(0.732894 0.16913 0)
(0.701136 0.162166 0)
(0.668832 0.162037 0)
(0.639353 0.165206 0)
(0.610462 0.17064 0)
(0.581476 0.176274 0)
(0.552012 0.180769 0)
(0.521843 0.182753 0)
(0.491185 0.182734 0)
(0.460467 0.185795 0)
(0.42993 0.193073 0)
(0.398312 0.200266 0)
(0.365267 0.205606 0)
(0.331062 0.211329 0)
(0.295663 0.218254 0)
(0.258862 0.225482 0)
(0.220794 0.232563 0)
(0.181901 0.24029 0)
(0.142241 0.248289 0)
(0.10277 0.259678 0)
(0.0617235 0.267749 0)
(0.0220289 0.279387 0)
(3 1.62014e-17 0)
(3 -2.23761e-16 0)
(3 -4.04659e-16 0)
(3 -3.16577e-16 0)
(3 -2.94596e-16 0)
(3 -6.34536e-16 0)
(3 1.40733e-16 0)
(3 1.94488e-16 0)
(3 8.32918e-17 0)
(3 -2.36923e-16 0)
(3 -2.35083e-16 0)
(3 3.78739e-16 0)
(3 5.02138e-16 0)
(3 3.42463e-16 0)
(3 4.60398e-16 0)
(3 6.56357e-16 0)
(3 3.14267e-16 0)
(3 2.05473e-16 0)
(3 -3.52298e-16 0)
(3 -6.74552e-16 0)
(3 -9.02375e-17 0)
(3 -6.40828e-16 0)
(3 -5.62414e-16 0)
(3 -6.89412e-16 0)
(2.29252 0.17582 0)
(0.865542 0.212292 0)
(0.735513 0.199616 0)
(0.705146 0.189839 0)
(0.671967 0.188943 0)
(0.641749 0.191446 0)
(0.612365 0.196861 0)
(0.583289 0.202911 0)
(0.554139 0.208131 0)
(0.524568 0.211129 0)
(0.494551 0.211534 0)
(0.464551 0.214624 0)
(0.435195 0.222687 0)
(0.404996 0.231436 0)
(0.373041 0.238351 0)
(0.33957 0.245706 0)
(0.304514 0.254526 0)
(0.267535 0.2637 0)
(0.228693 0.272347 0)
(0.188618 0.281334 0)
(0.147392 0.289854 0)
(0.106372 0.301986 0)
(0.063714 0.31048 0)
(0.0226659 0.323017 0)
(3 -1.418e-16 0)
(3 -2.9451e-16 0)
(3 -3.12663e-16 0)
(3 -5.66169e-16 0)
(3 -4.55438e-16 0)
(3 -1.03022e-16 0)
(3 3.67347e-17 0)
(3 1.89624e-18 0)
(3 1.27221e-16 0)
(3 -3.87792e-16 0)
(3 -4.07955e-16 0)
(3 -5.70143e-16 0)
(3 -4.94311e-17 0)
(3 9.26658e-16 0)
(3 1.54681e-15 0)
(3 1.73906e-15 0)
(3 1.84253e-15 0)
(3 1.54387e-15 0)
(3 9.87364e-16 0)
(3 3.30302e-16 0)
(3 4.21619e-16 0)
(3 -8.31966e-17 0)
(3 1.36421e-16 0)
(3 8.66203e-17 0)
(2.53798 0.18318 0)
(0.915879 0.249176 0)
(0.754068 0.22645 0)
(0.725092 0.218709 0)
(0.690045 0.21773 0)
(0.657814 0.21968 0)
(0.626346 0.224649 0)
(0.595643 0.230661 0)
(0.565234 0.236251 0)
(0.534634 0.240057 0)
(0.503584 0.240848 0)
(0.472601 0.243505 0)
(0.442816 0.251752 0)
(0.413064 0.261847 0)
(0.381801 0.270438 0)
(0.349167 0.279585 0)
(0.315047 0.290582 0)
(0.278811 0.302168 0)
(0.240082 0.312914 0)
(0.199404 0.32373 0)
(0.156627 0.333332 0)
(0.113448 0.34661 0)
(0.0680426 0.355792 0)
(0.0242111 0.369272 0)
(3 2.91339e-17 0)
(3 3.7249e-16 0)
(3 7.47073e-16 0)
(3 4.15987e-16 0)
(3 4.30118e-18 0)
(3 3.54184e-16 0)
(3 5.35294e-16 0)
(3 5.31985e-16 0)
(3 -9.436e-18 0)
(3 -7.13872e-17 0)
(3 -2.77785e-16 0)
(3 -4.10168e-16 0)
(3 -3.29853e-16 0)
(3 2.22393e-16 0)
(3 9.91282e-16 0)
(3 1.10575e-15 0)
(3 1.31968e-15 0)
(3 9.85927e-16 0)
(3 1.44365e-15 0)
(3 1.12729e-15 0)
(3 3.1953e-16 0)
(3 8.53879e-16 0)
(3 1.20181e-15 0)
(3 1.01138e-15 0)
(2.80535 0.154816 0)
(0.997445 0.275616 0)
(0.788211 0.242461 0)
(0.763465 0.241729 0)
(0.725478 0.244655 0)
(0.690646 0.247683 0)
(0.656105 0.252662 0)
(0.622494 0.258678 0)
(0.589201 0.264966 0)
(0.555724 0.270231 0)
(0.521831 0.272094 0)
(0.488111 0.274266 0)
(0.456032 0.282045 0)
(0.425165 0.292834 0)
(0.393542 0.302695 0)
(0.360986 0.313312 0)
(0.327319 0.326439 0)
(0.291541 0.340949 0)
(0.252544 0.354755 0)
(0.210803 0.368498 0)
(0.166099 0.380128 0)
(0.120538 0.395037 0)
(0.0722982 0.405133 0)
(0.0254248 0.419341 0)
(3 5.12125e-17 0)
(3 7.57548e-16 0)
(3 7.76693e-16 0)
(3 7.08338e-16 0)
(3 4.54001e-16 0)
(3 6.20943e-16 0)
(3 5.4879e-16 0)
(3 -2.65225e-16 0)
(3 -8.91842e-16 0)
(3 -9.81258e-16 0)
(3 -1.26243e-15 0)
(3 -1.16391e-15 0)
(3 -1.20872e-15 0)
(3 -1.11668e-15 0)
(3 -1.29258e-15 0)
(3 -1.93693e-16 0)
(3 3.57978e-16 0)
(3 5.20242e-16 0)
(3 9.25202e-16 0)
(3 1.21231e-16 0)
(3 -6.13965e-16 0)
(3 4.31736e-16 0)
(3 5.081e-16 0)
(3 2.62954e-16 0)
(2.9883 0.0401087 0)
(1.09077 0.282452 0)
(0.807116 0.254179 0)
(0.792797 0.266906 0)
(0.759653 0.272719 0)
(0.72648 0.276549 0)
(0.691355 0.282029 0)
(0.656114 0.288892 0)
(0.620848 0.296253 0)
(0.585183 0.302828 0)
(0.548719 0.306007 0)
(0.512054 0.307782 0)
(0.476871 0.314515 0)
(0.443645 0.325319 0)
(0.410504 0.336002 0)
(0.376957 0.347668 0)
(0.342933 0.362625 0)
(0.307563 0.380177 0)
(0.269063 0.39745 0)
(0.22746 0.414642 0)
(0.181677 0.429096 0)
(0.133511 0.446846 0)
(0.0807989 0.459113 0)
(0.0285245 0.474672 0)
(3 9.57642e-17 0)
(3 3.10379e-17 0)
(3 2.25106e-16 0)
(3 1.21628e-16 0)
(3 -4.99874e-16 0)
(3 -3.57051e-16 0)
(3 -5.18643e-16 0)
(3 -7.35374e-16 0)
(3 -1.40334e-15 0)
(3 -1.86318e-15 0)
(3 -2.10044e-15 0)
(3 -1.85391e-15 0)
(3 -1.15492e-15 0)
(3 -2.90674e-16 0)
(3 -9.47753e-17 0)
(3 -7.50339e-17 0)
(3 1.18268e-16 0)
(3 8.81989e-16 0)
(3 2.60441e-16 0)
(3 -1.47466e-16 0)
(3 -9.03136e-17 0)
(3 2.24033e-16 0)
(3 -2.00725e-16 0)
(3 -1.10907e-15 0)
(3.00811 0.00316342 0)
(1.17917 0.28321 0)
(0.801372 0.265271 0)
(0.79159 0.292858 0)
(0.764229 0.302947 0)
(0.737994 0.307966 0)
(0.710459 0.312956 0)
(0.68134 0.319199 0)
(0.649923 0.327628 0)
(0.616048 0.336633 0)
(0.579857 0.342262 0)
(0.54213 0.3446 0)
(0.504659 0.350321 0)
(0.468851 0.36066 0)
(0.433578 0.371719 0)
(0.398382 0.383778 0)
(0.363327 0.399782 0)
(0.327889 0.419899 0)
(0.289223 0.441082 0)
(0.246495 0.463471 0)
(0.197514 0.48326 0)
(0.145557 0.505757 0)
(0.0882484 0.521424 0)
(0.0300465 0.537762 0)
(3 9.5331e-17 0)
(3 -2.47568e-16 0)
(3 -1.9748e-16 0)
(3 -1.96476e-16 0)
(3 1.00112e-16 0)
(3 6.06558e-18 0)
(3 -1.50121e-16 0)
(3 6.53509e-17 0)
(3 -1.00438e-16 0)
(3 -4.16482e-17 0)
(3 -3.72986e-16 0)
(3 -3.91301e-16 0)
(3 -5.811e-18 0)
(3 4.92063e-16 0)
(3 1.03498e-15 0)
(3 4.00491e-16 0)
(3 -1.95218e-17 0)
(3 2.38879e-16 0)
(3 -4.05746e-16 0)
(3 -7.92299e-17 0)
(3 7.57182e-17 0)
(3 -4.6019e-16 0)
(3 -7.04127e-16 0)
(3 -9.19688e-16 0)
(3.00016 4.88897e-06 0)
(1.32769 0.308493 0)
(0.795814 0.274906 0)
(0.771647 0.305958 0)
(0.748725 0.322598 0)
(0.727068 0.330097 0)
(0.706881 0.33727 0)
(0.686813 0.34547 0)
(0.665798 0.355568 0)
(0.640881 0.366716 0)
(0.610393 0.375844 0)
(0.575566 0.380915 0)
(0.538546 0.387272 0)
(0.501456 0.397827 0)
(0.46435 0.409571 0)
(0.426986 0.421833 0)
(0.389953 0.438525 0)
(0.353574 0.461073 0)
(0.314782 0.486717 0)
(0.272642 0.515089 0)
(0.224173 0.540293 0)
(0.171229 0.568431 0)
(0.106952 0.591349 0)
(0.0385687 0.612138 0)
(3 -8.96021e-17 0)
(3 -6.2641e-16 0)
(3 -3.299e-16 0)
(3 9.52688e-17 0)
(3 4.38777e-16 0)
(3 1.46746e-16 0)
(3 2.22494e-16 0)
(3 5.80096e-16 0)
(3 1.76332e-15 0)
(3 1.68988e-15 0)
(3 8.86087e-16 0)
(3 8.65489e-16 0)
(3 4.48591e-16 0)
(3 1.6781e-16 0)
(3 1.42124e-17 0)
(3 6.40816e-16 0)
(3 5.50046e-16 0)
(3 1.34343e-16 0)
(3 -3.58003e-16 0)
(3 -5.62231e-17 0)
(3 -7.95917e-16 0)
(3 -1.62207e-15 0)
(3 -1.05844e-15 0)
(3 -3.42036e-16 0)
(3 -1.07928e-08 0)
(1.57371 0.343522 0)
(0.810734 0.315981 0)
(0.745291 0.321798 0)
(0.727159 0.333063 0)
(0.709666 0.339696 0)
(0.694317 0.348048 0)
(0.679478 0.359579 0)
(0.663641 0.373895 0)
(0.648115 0.390877 0)
(0.627317 0.405388 0)
(0.600447 0.415382 0)
(0.568936 0.424687 0)
(0.534776 0.436867 0)
(0.498746 0.450072 0)
(0.460475 0.463264 0)
(0.422546 0.480005 0)
(0.385857 0.504131 0)
(0.347481 0.533083 0)
(0.306548 0.567601 0)
(0.255499 0.602911 0)
(0.195137 0.643807 0)
(0.123151 0.682683 0)
(0.0389438 0.708447 0)
(3 -7.33668e-18 0)
(3 2.37745e-16 0)
(3 -2.14876e-16 0)
(3 -2.60453e-16 0)
(3 -3.51744e-16 0)
(3 -3.52703e-16 0)
(3 5.68463e-16 0)
(3 1.07463e-15 0)
(3 1.7329e-15 0)
(3 2.0082e-15 0)
(3 1.92989e-15 0)
(3 1.53821e-15 0)
(3 4.84541e-16 0)
(3 -1.04614e-16 0)
(3 -3.92309e-16 0)
(3 -4.56483e-16 0)
(3 -1.65762e-16 0)
(3 -1.73047e-16 0)
(3 -2.41255e-16 0)
(3 -1.37195e-16 0)
(3 -4.56934e-16 0)
(3 -7.90512e-16 0)
(3 -7.38785e-16 0)
(3 -3.6806e-16 0)
(3 -1.37744e-08 0)
(1.93943 0.379404 0)
(0.848247 0.381777 0)
(0.747887 0.358039 0)
(0.726297 0.352258 0)
(0.708884 0.356956 0)
(0.692426 0.364192 0)
(0.677089 0.374639 0)
(0.662142 0.388462 0)
(0.648147 0.406139 0)
(0.63504 0.425657 0)
(0.616649 0.441881 0)
(0.593223 0.456231 0)
(0.565838 0.472481 0)
(0.53429 0.489186 0)
(0.498728 0.505472 0)
(0.461388 0.522841 0)
(0.424897 0.548363 0)
(0.386862 0.581299 0)
(0.34742 0.624628 0)
(0.301192 0.673994 0)
(0.246494 0.726328 0)
(0.17807 0.780058 0)
(0.069451 0.827577 0)
(3 1.37368e-16 0)
(3 1.40714e-16 0)
(3 -4.36409e-16 0)
(3 -5.32076e-16 0)
(3 -1.88354e-16 0)
(3 3.72346e-16 0)
(3 3.55385e-16 0)
(3 2.68867e-16 0)
(3 6.34623e-16 0)
(3 1.40245e-15 0)
(3 2.76873e-15 0)
(3 3.04519e-15 0)
(3 2.008e-15 0)
(3 3.74604e-16 0)
(3 -3.52824e-16 0)
(3 -1.30399e-15 0)
(3 -1.64985e-15 0)
(3 -1.28204e-15 0)
(3 -1.05032e-16 0)
(3 1.16369e-17 0)
(3 1.87342e-16 0)
(3 1.27504e-16 0)
(3 4.5266e-17 0)
(3 5.30565e-17 0)
(3 -2.95859e-09 0)
(2.47651 0.354588 0)
(0.940544 0.439954 0)
(0.809514 0.375033 0)
(0.775024 0.37026 0)
(0.741303 0.376891 0)
(0.712626 0.383472 0)
(0.689314 0.393496 0)
(0.66979 0.406273 0)
(0.653456 0.422388 0)
(0.640433 0.441902 0)
(0.627156 0.462087 0)
(0.610259 0.481437 0)
(0.590818 0.50276 0)
(0.566182 0.524994 0)
(0.537451 0.54637 0)
(0.50378 0.566454 0)
(0.469629 0.594114 0)
(0.435046 0.630513 0)
(0.40225 0.678783 0)
(0.365889 0.736775 0)
(0.313849 0.814913 0)
(0.218606 0.925813 0)
(0.11958 1.05205 0)
(3 -1.58142e-16 0)
(3 -3.57234e-16 0)
(3 -1.41743e-16 0)
(3 1.61653e-16 0)
(3 5.76488e-17 0)
(3 -3.77367e-16 0)
(3 -5.45956e-16 0)
(3 -8.32713e-16 0)
(3 -2.77555e-16 0)
(3 3.31006e-16 0)
(3 5.7512e-16 0)
(3 7.16045e-16 0)
(3 8.75764e-16 0)
(3 7.31152e-16 0)
(3 -3.07853e-16 0)
(3 -8.82103e-16 0)
(3 -1.10135e-15 0)
(3 -2.07129e-16 0)
(3 4.26496e-16 0)
(3 9.04319e-16 0)
(3 1.252e-15 0)
(3 1.34302e-15 0)
(3 7.62731e-16 0)
(3 5.14085e-16 0)
(3 -3.08348e-10 0)
(3.01149 0.104076 0)
(1.1367 0.433764 0)
(0.874615 0.40608 0)
(0.846417 0.405047 0)
(0.799614 0.409452 0)
(0.755863 0.412869 0)
(0.720336 0.41783 0)
(0.692152 0.427042 0)
(0.669927 0.440634 0)
(0.653 0.4587 0)
(0.63988 0.479674 0)
(0.625833 0.501748 0)
(0.611471 0.526879 0)
(0.594945 0.554448 0)
(0.574623 0.582296 0)
(0.547994 0.607871 0)
(0.519698 0.638623 0)
(0.490976 0.677025 0)
(0.465334 0.729749 0)
(0.43721 0.806368 0)
(0.410004 0.930167 0)
(0.396897 1.08543 0)
(0.504097 1.34187 0)
(3 -1.94973e-17 0)
(3 2.68789e-18 0)
(3 2.08168e-16 0)
(3 4.6469e-16 0)
(3 6.22196e-16 0)
(3 -6.65731e-17 0)
(3 -1.1202e-15 0)
(3 -1.25754e-15 0)
(3 -1.06679e-15 0)
(3 -1.04632e-15 0)
(3 -1.22873e-15 0)
(3 -1.20638e-15 0)
(3 -4.92745e-16 0)
(3 2.15294e-17 0)
(3 -3.11675e-16 0)
(3 -3.3352e-16 0)
(3 7.16504e-17 0)
(3 5.14306e-19 0)
(3 1.55466e-16 0)
(3 8.78297e-16 0)
(3 7.85049e-16 0)
(3 7.93699e-16 0)
(3 3.04789e-16 0)
(3 1.10955e-15 0)
(3 -1.27724e-11 0)
(3.02502 0.00367973 0)
(1.28828 0.407997 0)
(0.875902 0.436743 0)
(0.853916 0.454988 0)
(0.823148 0.454828 0)
(0.791637 0.451218 0)
(0.757544 0.451329 0)
(0.725274 0.455218 0)
(0.697438 0.464027 0)
(0.674937 0.478097 0)
(0.658647 0.497506 0)
(0.644645 0.519858 0)
(0.632985 0.546638 0)
(0.621709 0.577643 0)
(0.609834 0.611156 0)
(0.592722 0.643627 0)
(0.573158 0.678764 0)
(0.55309 0.720211 0)
(0.536672 0.77774 0)
(0.530912 0.866037 0)
(0.538201 0.996854 0)
(0.616211 1.14717 0)
(0.911703 1.3352 0)
(3 6.07973e-17 0)
(3 5.47967e-17 0)
(3 -3.79451e-16 0)
(3 -5.95762e-16 0)
(3 -5.42075e-16 0)
(3 -6.08174e-16 0)
(3 -1.0136e-15 0)
(3 -5.33668e-16 0)
(3 -7.67437e-16 0)
(3 -1.03073e-15 0)
(3 2.27596e-17 0)
(3 -1.51435e-16 0)
(3 -3.94344e-16 0)
(3 -4.4343e-16 0)
(3 -8.75223e-16 0)
(3 -9.52175e-16 0)
(3 -1.10716e-16 0)
(3 -4.54606e-16 0)
(3 -4.02169e-16 0)
(3 6.23756e-17 0)
(3 6.8133e-16 0)
(3 4.32784e-16 0)
(3 5.87758e-16 0)
(3 1.37572e-15 0)
(3 -2.10021e-13 0)
(3.00044 -7.11208e-06 0)
(1.54642 0.422312 0)
(0.854083 0.451032 0)
(0.835262 0.465243 0)
(0.818031 0.472735 0)
(0.801346 0.477334 0)
(0.780283 0.48185 0)
(0.754677 0.486353 0)
(0.728449 0.493113 0)
(0.70355 0.502841 0)
(0.683995 0.51878 0)
(0.667835 0.539189 0)
(0.656797 0.565186 0)
(0.648442 0.597037 0)
(0.64279 0.633975 0)
(0.635797 0.672599 0)
(0.626931 0.712947 0)
(0.618646 0.758302 0)
(0.614602 0.817003 0)
(0.630444 0.903594 0)
(0.673307 1.02139 0)
(0.814823 1.15609 0)
(1.14266 1.27717 0)
(3 -1.37619e-16 0)
(3 7.89761e-17 0)
(3 9.20215e-17 0)
(3 -1.66896e-16 0)
(3 -8.8322e-16 0)
(3 -9.14938e-16 0)
(3 4.45684e-17 0)
(3 4.41494e-17 0)
(3 -6.81725e-16 0)
(3 -1.72351e-15 0)
(3 -1.62241e-15 0)
(3 -1.28398e-15 0)
(3 -1.39309e-15 0)
(3 -1.58107e-15 0)
(3 -1.45769e-15 0)
(3 -1.27086e-15 0)
(3 -7.50755e-16 0)
(3 -1.20001e-16 0)
(3 5.39199e-16 0)
(3 1.25197e-15 0)
(3 1.64104e-15 0)
(3 1.53237e-15 0)
(3 1.4485e-15 0)
(3 1.18661e-15 0)
(3 1.0671e-15 0)
(3.00001 -4.64049e-06 0)
(2.02658 0.452544 0)
(0.898878 0.491177 0)
(0.825942 0.473367 0)
(0.820604 0.484012 0)
(0.808637 0.49357 0)
(0.794891 0.502694 0)
(0.777074 0.511026 0)
(0.7573 0.51998 0)
(0.735395 0.528936 0)
(0.715253 0.54218 0)
(0.697877 0.559523 0)
(0.685484 0.582925 0)
(0.678338 0.613267 0)
(0.67609 0.650687 0)
(0.677038 0.693069 0)
(0.679174 0.738255 0)
(0.684 0.787032 0)
(0.694929 0.844386 0)
(0.725704 0.92251 0)
(0.797876 1.02445 0)
(0.963357 1.13247 0)
(1.2445 1.20356 0)
(3 -6.81878e-17 0)
(3 4.86249e-16 0)
(3 9.60571e-16 0)
(3 7.76575e-16 0)
(3 4.93259e-16 0)
(3 7.36065e-16 0)
(3 5.68199e-16 0)
(3 4.74498e-16 0)
(3 2.8437e-17 0)
(3 -8.26473e-16 0)
(3 -1.01144e-15 0)
(3 -1.03974e-15 0)
(3 -1.00368e-15 0)
(3 -8.99097e-16 0)
(3 -3.99531e-16 0)
(3 -8.40117e-17 0)
(3 -4.19792e-16 0)
(3 -4.55404e-16 0)
(3 -3.35401e-16 0)
(3 -3.36651e-16 0)
(3 -5.57284e-16 0)
(3 -1.77756e-16 0)
(3 1.77939e-17 0)
(3 9.45042e-17 0)
(3 3.83911e-16 0)
(3 -1.15884e-06 0)
(2.72483 0.312334 0)
(1.04618 0.546657 0)
(0.878154 0.484085 0)
(0.852742 0.493726 0)
(0.831095 0.508065 0)
(0.814092 0.520094 0)
(0.79797 0.531325 0)
(0.782717 0.543331 0)
(0.765578 0.554637 0)
(0.748097 0.567681 0)
(0.731973 0.583249 0)
(0.718534 0.603371 0)
(0.711538 0.630627 0)
(0.710996 0.665557 0)
(0.716886 0.70772 0)
(0.72813 0.755313 0)
(0.745017 0.806805 0)
(0.770892 0.863103 0)
(0.814688 0.931515 0)
(0.904076 1.01523 0)
(1.06448 1.09371 0)
(1.29619 1.14124 0)
(3 2.18391e-16 0)
(3 1.20779e-16 0)
(3 5.47863e-17 0)
(3 2.16506e-16 0)
(3 1.08523e-15 0)
(3 1.10874e-15 0)
(3 7.87896e-16 0)
(3 9.0857e-16 0)
(3 1.36582e-15 0)
(3 9.29902e-16 0)
(3 1.76912e-16 0)
(3 7.00153e-18 0)
(3 1.54073e-17 0)
(3 -3.75918e-16 0)
(3 -3.34244e-16 0)
(3 -1.28334e-16 0)
(3 -1.19238e-16 0)
(3 -7.78954e-17 0)
(3 -8.40851e-16 0)
(3 -1.32996e-15 0)
(3 -1.74465e-15 0)
(3 -1.4982e-15 0)
(3 -1.34308e-15 0)
(3 -7.31917e-16 0)
(3 2.12667e-17 0)
(3 -1.09293e-07 0)
(3.07471 0.0312588 0)
(1.30804 0.524296 0)
(0.932581 0.519812 0)
(0.896901 0.528289 0)
(0.867292 0.531141 0)
(0.842804 0.537927 0)
(0.82425 0.548366 0)
(0.809805 0.561197 0)
(0.796027 0.574865 0)
(0.782003 0.589302 0)
(0.768839 0.605434 0)
(0.756465 0.623493 0)
(0.749214 0.647329 0)
(0.74905 0.678584 0)
(0.757116 0.717542 0)
(0.77372 0.763553 0)
(0.799534 0.814937 0)
(0.836976 0.870148 0)
(0.892594 0.931486 0)
(0.988664 0.997237 0)
(1.13306 1.05143 0)
(1.32456 1.08111 0)
(3 -3.27743e-17 0)
(3 -2.0661e-17 0)
(3 -1.39663e-16 0)
(3 4.85404e-17 0)
(3 2.49267e-16 0)
(3 -1.4364e-16 0)
(3 4.74858e-16 0)
(3 4.48487e-16 0)
(3 1.02751e-15 0)
(3 3.43673e-16 0)
(3 -1.89703e-16 0)
(3 -3.42436e-16 0)
(3 -6.41291e-16 0)
(3 -6.70904e-16 0)
(3 -2.54918e-16 0)
(3 4.02127e-17 0)
(3 4.56284e-16 0)
(3 7.89646e-16 0)
(3 1.82002e-16 0)
(3 -5.27987e-16 0)
(3 -6.64946e-16 0)
(3 -5.04275e-16 0)
(3 7.74336e-17 0)
(3 2.93185e-16 0)
(3 6.07218e-16 0)
(3 -4.32958e-09 0)
(3.0056 3.18168e-05 0)
(1.56954 0.508716 0)
(0.918688 0.575463 0)
(0.890898 0.55966 0)
(0.876032 0.561699 0)
(0.859553 0.565186 0)
(0.844412 0.571728 0)
(0.831345 0.582323 0)
(0.820974 0.595902 0)
(0.811188 0.610907 0)
(0.802665 0.627904 0)
(0.79443 0.645692 0)
(0.788831 0.666607 0)
(0.789351 0.693747 0)
(0.7986 0.728042 0)
(0.81787 0.769396 0)
(0.848711 0.816941 0)
(0.893624 0.868902 0)
(0.958072 0.925261 0)
(1.05554 0.977993 0)
(1.18445 1.01711 0)
(1.34268 1.03633 0)
(3 -6.67801e-17 0)
(3 1.24882e-16 0)
(3 1.80337e-16 0)
(3 5.01469e-17 0)
(3 1.76679e-16 0)
(3 1.94756e-16 0)
(3 4.74753e-16 0)
(3 4.79694e-16 0)
(3 2.1639e-16 0)
(3 4.93169e-16 0)
(3 -1.89546e-17 0)
(3 -1.63907e-17 0)
(3 6.46225e-17 0)
(3 3.72612e-16 0)
(3 4.72099e-16 0)
(3 2.24814e-16 0)
(3 -3.93995e-16 0)
(3 -4.93699e-16 0)
(3 -7.36475e-16 0)
(3 -1.40938e-15 0)
(3 -1.23032e-15 0)
(3 -8.6908e-16 0)
(3 -6.30621e-16 0)
(3 2.55851e-16 0)
(3 5.24783e-16 0)
(3 -7.02182e-11 0)
(3.00003 -1.12519e-06 0)
(2.20009 0.49751 0)
(0.979919 0.604828 0)
(0.911844 0.561945 0)
(0.904696 0.569327 0)
(0.889942 0.579996 0)
(0.874297 0.588761 0)
(0.859916 0.598906 0)
(0.849625 0.612024 0)
(0.841609 0.627171 0)
(0.836212 0.644749 0)
(0.832322 0.663621 0)
(0.829895 0.683538 0)
(0.83174 0.707325 0)
(0.841516 0.737025 0)
(0.861506 0.772779 0)
(0.893629 0.814204 0)
(0.940964 0.860054 0)
(1.00817 0.909073 0)
(1.1035 0.954155 0)
(1.21818 0.984381 0)
(1.35484 0.996666 0)
(3 3.66611e-17 0)
(3 -2.13118e-16 0)
(3 -6.23608e-18 0)
(3 5.73309e-16 0)
(3 3.82572e-16 0)
(3 1.70813e-16 0)
(3 -2.24896e-16 0)
(3 -1.49604e-16 0)
(3 4.1388e-16 0)
(3 6.37825e-16 0)
(3 8.11654e-16 0)
(3 1.05008e-15 0)
(3 1.71233e-15 0)
(3 1.83538e-15 0)
(3 8.55648e-16 0)
(3 -3.50542e-16 0)
(3 -1.03045e-15 0)
(3 -1.16454e-15 0)
(3 -1.52941e-15 0)
(3 -9.24957e-16 0)
(3 -1.01049e-15 0)
(3 -1.11297e-15 0)
(3 -8.50175e-16 0)
(3 -2.83798e-17 0)
(3 4.12149e-16 0)
(3 -9.40322e-14 0)
(3 -1.47522e-06 0)
(2.99572 0.167642 0)
(1.20582 0.598221 0)
(0.966255 0.574691 0)
(0.948464 0.589764 0)
(0.930001 0.600641 0)
(0.910567 0.608636 0)
(0.894194 0.617583 0)
(0.88141 0.62952 0)
(0.872749 0.643795 0)
(0.868249 0.660887 0)
(0.867419 0.6802 0)
(0.868979 0.700489 0)
(0.873588 0.722267 0)
(0.884515 0.748123 0)
(0.904907 0.778841 0)
(0.937262 0.813845 0)
(0.984831 0.852579 0)
(1.05086 0.892594 0)
(1.14035 0.93116 0)
(1.24381 0.956299 0)
(1.36682 0.966614 0)
(3 1.19428e-16 0)
(3 -1.70268e-17 0)
(3 -3.38532e-17 0)
(3 1.88514e-16 0)
(3 -8.93925e-17 0)
(3 -3.28605e-16 0)
(3 -3.32221e-16 0)
(3 -2.67103e-16 0)
(3 -4.08776e-17 0)
(3 7.99775e-17 0)
(3 8.94868e-16 0)
(3 1.08809e-15 0)
(3 1.06554e-15 0)
(3 8.84824e-16 0)
(3 9.78407e-18 0)
(3 -1.05596e-16 0)
(3 9.85785e-17 0)
(3 -3.76536e-16 0)
(3 -7.92404e-16 0)
(3 1.02217e-16 0)
(3 5.8391e-16 0)
(3 2.63641e-16 0)
(3 -2.70611e-16 0)
(3 -8.34479e-16 0)
(3 -4.74642e-16 0)
(3 -1.20385e-15 0)
(3 -3.1614e-07 0)
(3.03803 0.00472335 0)
(1.43485 0.570551 0)
(0.975869 0.629044 0)
(0.949925 0.620251 0)
(0.93682 0.628358 0)
(0.926512 0.634847 0)
(0.917303 0.641729 0)
(0.908533 0.650693 0)
(0.90188 0.661847 0)
(0.898895 0.676218 0)
(0.900284 0.693827 0)
(0.905414 0.713582 0)
(0.913694 0.734353 0)
(0.926607 0.756909 0)
(0.947181 0.782939 0)
(0.979036 0.811961 0)
(1.02463 0.843116 0)
(1.08621 0.875356 0)
(1.16578 0.906195 0)
(1.25878 0.926746 0)
(1.36861 0.936241 0)
(3 8.87046e-17 0)
(3 1.4225e-16 0)
(3 1.41316e-16 0)
(3 3.3452e-16 0)
(3 4.6071e-16 0)
(3 6.40202e-16 0)
(3 4.12447e-16 0)
(3 -5.27579e-17 0)
(3 -9.91593e-16 0)
(3 -5.1599e-16 0)
(3 -1.38302e-16 0)
(3 -3.6242e-16 0)
(3 -5.17002e-16 0)
(3 -6.39422e-16 0)
(3 -4.7113e-16 0)
(3 1.44123e-16 0)
(3 -8.17277e-17 0)
(3 -1.98829e-16 0)
(3 3.33121e-16 0)
(3 4.03337e-16 0)
(3 9.53472e-16 0)
(3 1.76245e-15 0)
(3 1.29843e-15 0)
(3 -2.8908e-16 0)
(3 -1.11488e-15 0)
(3 -4.51159e-16 0)
(3 -2.69543e-08 0)
(3.00075 -9.31589e-06 0)
(1.99661 0.562982 0)
(1.01447 0.664433 0)
(0.965421 0.630287 0)
(0.959607 0.635284 0)
(0.952305 0.645613 0)
(0.944842 0.655456 0)
(0.938222 0.665992 0)
(0.932942 0.677137 0)
(0.930603 0.690101 0)
(0.932689 0.706245 0)
(0.939418 0.725031 0)
(0.950749 0.745323 0)
(0.965858 0.766694 0)
(0.987682 0.78964 0)
(1.01987 0.814282 0)
(1.06317 0.839409 0)
(1.12056 0.865918 0)
(1.19087 0.888208 0)
(1.27485 0.904484 0)
(1.37204 0.913537 0)
(3 -2.68513e-16 0)
(3 -2.42216e-16 0)
(3 -3.28473e-17 0)
(3 1.7525e-16 0)
(3 3.47567e-16 0)
(3 2.08756e-17 0)
(3 -1.62681e-16 0)
(3 1.77556e-17 0)
(3 -3.67696e-16 0)
(3 -8.36239e-16 0)
(3 -7.4138e-16 0)
(3 -8.77603e-16 0)
(3 -1.15629e-15 0)
(3 -1.20896e-15 0)
(3 -4.43749e-16 0)
(3 4.46725e-17 0)
(3 2.64037e-16 0)
(3 2.55901e-16 0)
(3 5.3341e-16 0)
(3 4.72202e-16 0)
(3 1.09176e-15 0)
(3 1.22097e-15 0)
(3 9.24363e-16 0)
(3 8.45935e-16 0)
(3 -2.83892e-17 0)
(3 -1.67635e-17 0)
(3 -1.82492e-10 0)
(3.00003 -1.25122e-05 0)
(2.88759 0.249018 0)
(1.20196 0.660258 0)
(1.01167 0.63395 0)
(0.999669 0.648346 0)
(0.989095 0.660536 0)
(0.977869 0.670114 0)
(0.970218 0.680608 0)
(0.96515 0.691969 0)
(0.963068 0.703879 0)
(0.965269 0.718004 0)
(0.971938 0.734631 0)
(0.985099 0.75338 0)
(1.00164 0.772671 0)
(1.02538 0.7927 0)
(1.05744 0.813304 0)
(1.09818 0.834041 0)
(1.15051 0.854763 0)
(1.21232 0.870414 0)
(1.28768 0.883283 0)
(1.37132 0.890556 0)
(3 2.73666e-17 0)
(3 -8.08351e-17 0)
(3 -6.25536e-16 0)
(3 -6.86781e-16 0)
(3 -5.9868e-16 0)
(3 -1.75731e-16 0)
(3 -3.54244e-17 0)
(3 -1.03395e-16 0)
(3 -2.04128e-16 0)
(3 -3.21326e-16 0)
(3 -2.66699e-16 0)
(3 -2.82686e-16 0)
(3 -1.04006e-16 0)
(3 5.97418e-17 0)
(3 1.76589e-17 0)
(3 2.39317e-16 0)
(3 9.38865e-16 0)
(3 9.70373e-16 0)
(3 1.10344e-15 0)
(3 1.13418e-15 0)
(3 1.15287e-15 0)
(3 7.90262e-16 0)
(3 7.88039e-16 0)
(3 1.16285e-15 0)
(3 7.77982e-16 0)
(3 -5.54387e-17 0)
(3 -2.72175e-13 0)
(3 -2.88626e-06 0)
(3.05437 0.0110249 0)
(1.46183 0.628738 0)
(1.02799 0.684726 0)
(1.00579 0.675813 0)
(0.998831 0.684441 0)
(0.993649 0.69231 0)
(0.991086 0.700068 0)
(0.990301 0.709803 0)
(0.991475 0.719778 0)
(0.995611 0.731938 0)
(1.003 0.745282 0)
(1.01635 0.762087 0)
(1.0348 0.780031 0)
(1.06005 0.797975 0)
(1.09191 0.816049 0)
(1.13128 0.833771 0)
(1.17936 0.850016 0)
(1.23509 0.862071 0)
(1.30308 0.872164 0)
(1.37624 0.87618 0)
(3 -5.77926e-17 0)
(3 -1.50051e-16 0)
(3 3.5961e-17 0)
(3 -7.12624e-17 0)
(3 1.38708e-16 0)
(3 6.80003e-16 0)
(3 5.46571e-16 0)
(3 3.07476e-16 0)
(3 1.06937e-16 0)
(3 3.71019e-16 0)
(3 3.99932e-16 0)
(3 5.18504e-16 0)
(3 5.95438e-16 0)
(3 -3.78862e-17 0)
(3 -4.39957e-16 0)
(3 6.02274e-18 0)
(3 1.72282e-16 0)
(3 2.7887e-16 0)
(3 6.40926e-16 0)
(3 9.78703e-16 0)
(3 7.16161e-16 0)
(3 8.36267e-16 0)
(3 6.9916e-16 0)
(3 6.55568e-16 0)
(3 4.87189e-16 0)
(3 -1.59333e-16 0)
(3 -3.826e-16 0)
(3 -2.40326e-07 0)
(3.0015 9.25368e-06 0)
(2.09727 0.59646 0)
(1.07897 0.729438 0)
(1.02648 0.688778 0)
(1.02294 0.690056 0)
(1.01984 0.699444 0)
(1.01704 0.708783 0)
(1.01768 0.71946 0)
(1.02053 0.730155 0)
(1.02594 0.742183 0)
(1.03423 0.753926 0)
(1.04701 0.767683 0)
(1.06558 0.783207 0)
(1.09098 0.799184 0)
(1.122 0.814468 0)
(1.16006 0.829137 0)
(1.2042 0.841697 0)
(1.25588 0.851342 0)
(1.31644 0.858932 0)
(1.38228 0.860772 0)
(3 4.47397e-17 0)
(3 3.41688e-16 0)
(3 7.64272e-16 0)
(3 5.24164e-16 0)
(3 1.0723e-16 0)
(3 4.98692e-17 0)
(3 -9.98836e-17 0)
(3 4.53367e-16 0)
(3 1.14829e-15 0)
(3 7.19764e-16 0)
(3 2.74969e-16 0)
(3 1.73471e-16 0)
(3 -4.28531e-16 0)
(3 -1.25603e-15 0)
(3 -1.27623e-15 0)
(3 -9.00635e-16 0)
(3 -1.03582e-15 0)
(3 -6.82598e-16 0)
(3 -7.43753e-16 0)
(3 -5.41109e-16 0)
(3 -2.74274e-17 0)
(3 -6.07486e-16 0)
(3 -9.67841e-16 0)