/*--------------------------------*- C++ -*----------------------------------*\
  =========                 |
  \\      /  F ield         | OpenFOAM: The Open Source CFD Toolbox
   \\    /   O peration     | Website:  https://openfoam.org
    \\  /    A nd           | Version:  7
     \\/     M anipulation  |
\*---------------------------------------------------------------------------*/
FoamFile
{
    version     2.0;
    format      ascii;
    class       volScalarField;
    location    "2.1";
    object      rho;
}
// * * * * * * * * * * * * * * * * * * * * * * * * * * * * * * * * * * * * * //

dimensions      [1 -3 0 0 0 0 0];

internalField   nonuniform List<scalar> 
4032
(
1.40001
1.40001
1.40001
1.40001
1.40001
1.40001
1.40001
1.40001
1.40001
1.40001
1.40001
1.40001
3.59371
5.4265
5.47966
5.53541
5.60392
5.67075
5.73412
5.78969
5.83279
5.85858
5.87379
5.88908
1.40001
1.40001
1.40001
1.40001
1.40001
1.40001
1.40001
1.40001
1.40001
1.40001
1.40001
1.40001
3.51899
5.39819
5.47014
5.52593
5.59389
5.65922
5.72064
5.77359
5.81384
5.83703
5.85003
5.86448
1.40001
1.40001
1.40001
1.40001
1.40001
1.40001
1.40001
1.40001
1.40001
1.40001
1.40001
1.40001
3.36841
5.36415
5.45275
5.50791
5.57583
5.64045
5.7006
5.75107
5.78771
5.80709
5.81583
5.82857
1.40001
1.40001
1.40001
1.40001
1.40001
1.40001
1.40001
1.40001
1.40001
1.40001
1.40001
1.40001
3.14981
5.31017
5.43135
5.48341
5.54899
5.61067
5.66818
5.716
5.74928
5.76426
5.76652
5.77357
1.40001
1.40001
1.40001
1.40001
1.40001
1.40001
1.40001
1.40001
1.40001
1.40001
1.40001
1.40001
2.86246
5.2182
5.40829
5.45394
5.51443
5.57108
5.62319
5.6639
5.68797
5.69651
5.69267
5.70388
1.40001
1.40001
1.40001
1.40001
1.40001
1.40001
1.40001
1.40001
1.40001
1.40001
1.40001
1.40001
2.52281
5.08282
5.4084
5.43795
5.4844
5.52939
5.57122
5.60316
5.61964
5.62267
5.61026
5.59202
1.40001
1.40001
1.40001
1.40001
1.40001
1.40001
1.40001
1.40001
1.40001
1.40001
1.40001
1.40001
2.1232
4.88027
5.4299
5.43135
5.45998
5.4899
5.51656
5.53192
5.52642
5.49049
5.44522
5.42173
1.40001
1.40001
1.40001
1.40001
1.40001
1.40001
1.40001
1.40001
1.40001
1.40001
1.40001
1.40001
1.70558
4.61131
5.46577
5.42017
5.43113
5.44149
5.44572
5.44032
5.41184
5.35686
5.27242
5.22301
1.40001
1.40001
1.40001
1.40001
1.40001
1.40001
1.40001
1.40001
1.40001
1.40001
1.40001
1.40001
1.42667
4.09494
5.40678
5.37105
5.37744
5.37211
5.35808
5.33475
5.27193
5.153
4.82302
3.95713
1.40001
1.40001
1.40001
1.40001
1.40001
1.40001
1.40001
1.40001
1.40001
1.40001
1.40001
1.40001
1.40005
3.38559
5.20447
5.2927
5.30521
5.29081
5.26057
5.21218
5.11442
4.92215
4.57514
3.67877
1.40001
1.40001
1.40001
1.40001
1.40001
1.40001
1.40001
1.40001
1.40001
1.40001
1.40001
1.40001
1.4
2.63368
4.98178
5.25748
5.25105
5.22718
5.18059
5.09868
4.96937
4.73407
4.37464
3.55806
1.40001
1.40001
1.40001
1.40001
1.40001
1.40001
1.40001
1.40001
1.40001
1.40001
1.40001
1.40001
1.4
1.89812
4.70634
5.2788
5.21298
5.1581
5.08986
4.98333
4.82975
4.59527
4.2068
3.55532
1.40001
1.40001
1.40001
1.40001
1.40001
1.40001
1.40001
1.40001
1.40001
1.40001
1.40001
1.40001
1.40001
1.4559
3.97848
5.15733
5.12733
5.07781
5.00012
4.88009
4.71102
4.47951
4.09814
3.58863
1.40001
1.40001
1.40001
1.40001
1.40001
1.40001
1.40001
1.40001
1.40001
1.40001
1.40001
1.40001
1.40001
1.40015
2.94204
4.98262
5.10686
5.05502
4.95693
4.81416
4.62652
4.38665
4.0331
3.62593
1.40001
1.40001
1.40001
1.40001
1.40001
1.40001
1.40001
1.40001
1.40001
1.40001
1.40001
1.40001
1.40001
1.4
1.88602
4.74332
5.15658
5.03092
4.90277
4.74356
4.55218
4.30928
4.00196
3.66589
1.40001
1.40001
1.40001
1.40001
1.40001
1.40001
1.40001
1.40001
1.40001
1.40001
1.40001
1.40001
1.40001
1.4
1.43816
3.8745
5.02228
4.91764
4.82268
4.67617
4.49621
4.26644
3.99604
3.6982
1.40001
1.40001
1.40001
1.40001
1.40001
1.40001
1.40001
1.40001
1.40001
1.40001
1.40001
1.40001
1.40001
1.4
1.40003
2.62017
4.80915
4.87086
4.80279
4.67072
4.48833
4.26341
4.00729
3.73671
1.40001
1.40001
1.40001
1.40001
1.40001
1.40001
1.40001
1.40001
1.40001
1.40001
1.40001
1.40001
1.40001
1.40001
1.4
1.62824
4.1715
4.90161
4.79008
4.65006
4.47391
4.26409
4.02695
3.77916
1.40001
1.40001
1.40001
1.40001
1.40001
1.40001
1.40001
1.40001
1.40001
1.40001
1.40001
1.40001
1.40001
1.40001
1.4
1.40617
2.9452
4.72662
4.73809
4.61898
4.46258
4.26986
4.05318
3.82681
1.40001
1.40001
1.40001
1.40001
1.40001
1.40001
1.40001
1.40001
1.40001
1.40001
1.40001
1.40001
1.40001
1.40001
1.4
1.4
1.75263
4.20235
4.78204
4.63083
4.47132
4.28308
4.08132
3.87256
1.40001
1.40001
1.40001
1.40001
1.40001
1.40001
1.40001
1.40001
1.40001
1.40001
1.40001
1.40001
1.40001
1.40001
1.40001
1.4
1.41568
2.94493
4.63713
4.61659
4.46364
4.28835
4.10416
3.91147
1.40001
1.40001
1.40001
1.40001
1.40001
1.40001
1.40001
1.40001
1.40001
1.40001
1.40001
1.40001
1.40001
1.40001
1.40001
1.4
1.40006
1.74458
4.01318
4.67704
4.49489
4.32705
4.15064
3.96417
1.40001
1.40001
1.40001
1.40001
1.40001
1.40001
1.40001
1.40001
1.40001
1.40001
1.40001
1.40001
1.40001
1.40001
1.40001
1.40001
1.40001
1.41468
2.59314
4.4683
4.51948
4.36198
4.19104
4.01012
1.40001
1.40001
1.40001
1.40001
1.40001
1.40001
1.40001
1.40001
1.40001
1.40001
1.40001
1.40001
1.40001
1.40001
1.40001
1.40001
1.40001
1.4001
1.59937
3.60849
4.5883
4.42706
4.25411
4.07091
1.40001
1.40001
1.40001
1.40001
1.40001
1.40001
1.40001
1.40001
1.40001
1.40001
1.40001
1.40001
1.40001
1.40001
1.40001
1.40001
1.40001
1.40001
1.4051
2.15947
4.1679
4.47222
4.29039
4.11595
1.40001
1.40001
1.40001
1.40001
1.40001
1.40001
1.40001
1.40001
1.40001
1.40001
1.40001
1.40001
1.40001
1.40001
1.40001
1.40001
1.40001
1.40001
1.40003
1.474
2.93748
4.3572
4.33427
4.18521
1.40001
1.40001
1.40001
1.40001
1.40001
1.40001
1.40001
1.40001
1.40001
1.40001
1.40001
1.40001
1.40001
1.40001
1.40001
1.40001
1.40001
1.40001
1.40001
1.40116
1.73473
3.59712
4.36692
4.27033
1.40001
1.40001
1.40001
1.40001
1.40001
1.40001
1.40001
1.40001
1.40001
1.40001
1.40001
1.40001
1.40001
1.40001
1.40001
1.40001
1.40001
1.40001
1.40001
1.40001
1.4149
2.18405
3.96519
4.30475
1.40001
1.40001
1.40001
1.40001
1.40001
1.40001
1.40001
1.40001
1.40001
1.40001
1.40001
1.40001
1.40001
1.40001
1.40001
1.40001
1.40001
1.40001
1.40001
1.40001
1.40014
1.4793
2.69656
4.12387
1.40001
1.40001
1.40001
1.40001
1.40001
1.40001
1.40001
1.40001
1.40001
1.40001
1.40001
1.40001
1.40001
1.40001
1.40001
1.40001
1.40001
1.40001
1.40001
1.40001
1.40001
1.40148
1.62899
3.17225
1.40001
1.40001
1.40001
1.40001
1.40001
1.40001
1.40001
1.40001
1.40001
1.40001
1.40001
1.40001
1.40001
1.40001
1.40001
1.40001
1.40001
1.40001
1.40001
1.40001
1.40001
1.40001
1.40822
1.87376
1.40001
1.40001
1.40001
1.40001
1.40001
1.40001
1.40001
1.40001
1.40001
1.40001
1.40001
1.40001
1.40001
1.40001
1.40001
1.40001
1.40001
1.40001
1.40001
1.40001
1.40001
1.40001
1.40007
1.43062
1.40001
1.40001
1.40001
1.40001
1.40001
1.40001
1.40001
1.40001
1.40001
1.40001
1.40001
1.40001
1.40001
1.40001
1.40001
1.40001
1.40001
1.40001
1.40001
1.40001
1.40001
1.40001
1.40001
1.40042
1.40001
1.40001
1.40001
1.40001
1.40001
1.40001
1.40001
1.40001
1.40001
1.40001
1.40001
1.40001
1.40001
1.40001
1.40001
1.40001
1.40001
1.40001
1.40001
1.40001
1.40001
1.40001
1.40001
1.40001
1.40001
1.40001
1.40001
1.40001
1.40001
1.40001
1.40001
1.40001
1.40001
1.40001
1.40001
1.40001
1.40001
1.40001
1.40001
1.40001
1.40001
1.40001
1.40001
1.40001
1.40001
1.40001
1.40001
1.40001
1.40001
1.40001
1.40001
1.40001
1.40001
1.40001
1.40001
1.40001
1.40001
1.40001
1.40001
1.40001
1.40001
1.40001
1.40001
1.40001
1.40001
1.40001
1.40001
1.40001
1.40001
1.40001
1.40001
1.40001
1.40001
1.40001
1.40001
1.40001
1.40001
1.40001
1.40001
1.40001
1.40001
1.40001
1.40001
1.40001
1.40001
1.40001
1.40001
1.40001
1.40001
1.40001
1.40001
1.40001
1.40001
1.40001
1.40001
1.40001
1.40001
1.40001
1.40001
1.40001
1.40001
1.40001
1.40001
1.40001
1.40001
1.40001
1.40001
1.40001
1.40001
1.40001
1.40001
1.40001
1.40001
1.40001
1.40001
1.40001
1.40001
1.40001
1.40001
1.40001
1.40001
1.40001
1.40001
1.40001
1.40001
1.40001
1.40001
1.40001
1.40001
1.40001
1.40001
1.40001
1.40001
1.40001
1.40001
1.40001
1.40001
1.40001
1.40001
1.40001
1.40001
1.40001
1.40001
1.40001
1.40001
1.40001
1.40001
1.40001
1.40001
1.40001
1.40001
1.40001
1.40001
1.40001
1.40001
1.40001
1.40001
1.40001
1.40001
1.40001
1.40001
1.40001
1.40001
1.40001
1.40001
1.40001
1.40001
1.40001
1.27952
0.550794
0.294507
0.212945
0.219197
0.26966
0.380539
0.530062
0.669821
0.731106
0.759432
0.781388
0.832779
0.934187
1.01191
1.01925
1.01115
0.996107
0.985585
0.982687
1.00269
1.04352
1.05684
1.05796
1.04287
1.02613
1.02707
1.04086
1.07136
1.08887
1.08986
1.08053
1.06101
1.05577
1.05743
1.07069
1.08697
1.08651
1.08761
1.14037
1.42044
2.12909
2.97824
3.48788
3.46739
3.26253
3.12041
3.08041
3.05199
3.02091
2.98221
2.93342
2.87634
2.80957
2.76047
2.7263
2.70129
2.67753
2.64188
2.60158
2.55278
2.49375
2.44231
2.41102
2.38752
2.37442
2.36651
2.34384
2.31575
2.27589
2.21288
2.16008
2.13276
2.11235
2.09672
2.09073
2.0851
2.06996
2.05135
2.02109
1.95862
1.88735
1.85545
1.83897
1.82456
1.81511
1.8125
1.804
1.78844
1.76964
1.73292
1.66378
1.61235
1.59208
1.58078
1.5659
1.99187
1.22175
0.899366
0.725552
0.600853
0.541275
0.550945
0.587564
0.596322
0.614226
0.646093
0.693904
0.749663
0.824439
0.916049
0.958601
0.966079
0.976314
0.989788
1.00308
1.02918
1.05522
1.06562
1.06788
1.06293
1.05432
1.05206
1.0588
1.07895
1.09802
1.10162
1.099
1.08707
1.07713
1.0754
1.07867
1.08792
1.10035
1.17657
1.42706
1.77677
2.02661
2.44278
2.98226
3.21373
3.20558
3.15122
3.12003
3.08165
3.0394
3.0073
2.95925
2.90635
2.84242
2.77852
2.73755
2.70779
2.68827
2.66074
2.6245
2.58465
2.53779
2.48224
2.4325
2.40288
2.38048
2.36157
2.34391
2.31982
2.28632
2.24355
2.19538
2.1527
2.12593
2.10792
2.09624
2.08318
2.06514
2.04389
2.01595
1.97183
1.91442
1.86892
1.84713
1.83307
1.82217
1.81419
1.80266
1.7868
1.766
1.73444
1.68474
1.63193
1.6011
1.58768
1.5716
2.51629
1.82611
1.3801
1.14977
0.977884
0.82021
0.72087
0.693227
0.685262
0.679524
0.693698
0.736324
0.775492
0.793975
0.834575
0.905438
0.949018
0.987838
1.04137
1.07616
1.10245
1.11138
1.10989
1.10932
1.11297
1.11789
1.12362
1.12755
1.12689
1.12721
1.12761
1.12497
1.12133
1.11782
1.11642
1.11974
1.13607
1.21675
1.54234
1.8827
2.09601
2.0836
2.13261
2.41552
2.86762
3.21961
3.29137
3.24608
3.18537
3.13056
3.08933
3.03128
2.98162
2.92392
2.85456
2.79059
2.7491
2.71598
2.68602
2.65571
2.62363
2.59286
2.55873
2.51146
2.45635
2.41474
2.38371
2.35352
2.32223
2.29536
2.27068
2.24482
2.21061
2.16813
2.13545
2.11332
2.09248
2.06987
2.04313
2.01129
1.9805
1.9499
1.91268
1.87471
1.85361
1.83943
1.82505
1.80921
1.78955
1.7645
1.73451
1.70314
1.67129
1.63744
1.61216
1.58717
2.83453
2.27481
1.83035
1.52626
1.33922
1.18349
0.999002
0.888166
0.881069
0.862996
0.823916
0.795869
0.777517
0.760502
0.767207
0.803739
0.867725
0.927696
1.00144
1.05747
1.08017
1.09608
1.10282
1.11408
1.13775
1.17208
1.18846
1.18872
1.18381
1.17028
1.15958
1.15826
1.15894
1.15725
1.15922
1.17723
1.26164
1.58128
2.01684
2.16045
2.1867
2.16601
2.14253
2.14929
2.28937
2.69791
3.06439
3.17188
3.22919
3.21797
3.18077
3.12335
3.0656
3.00181
2.93538
2.8625
2.8099
2.77607
2.74582
2.71729
2.68665
2.65648
2.62576
2.58754
2.52746
2.46203
2.41924
2.38607
2.35862
2.33576
2.31535
2.2932
2.26662
2.22641
2.17493
2.13704
2.11021
2.08254
2.05148
2.02338
2.00404
1.98619
1.96418
1.93047
1.88901
1.86178
1.84447
1.82621
1.80291
1.77375
1.74576
1.72573
1.70806
1.68602
1.65926
1.61938
3.05617
2.60118
2.20018
1.85038
1.63066
1.49045
1.34171
1.16307
1.01447
0.985992
0.959927
0.912773
0.866235
0.818818
0.798658
0.804376
0.815315
0.841908
0.898232
0.963746
0.994339
1.0231
1.05584
1.08296
1.11437
1.15205
1.1817
1.19067
1.19036
1.18173
1.18295
1.18955
1.20023
1.20186
1.21864
1.34478
1.63254
2.05635
2.2167
2.23661
2.21827
2.20214
2.16978
2.13875
2.11566
2.17629
2.43169
2.78546
3.07103
3.15917
3.17628
3.17753
3.13748
3.08159
3.01038
2.93077
2.85795
2.81478
2.78611
2.76284
2.74338
2.71546
2.68261
2.64457
2.58483
2.49961
2.44318
2.41611
2.39546
2.38217
2.36951
2.34761
2.32212
2.28552
2.22344
2.15774
2.1189
2.0911
2.06845
2.05211
2.03914
2.0251
2.00849
1.98571
1.94568
1.89465
1.85971
1.83575
1.81093
1.78726
1.77224
1.76002
1.74657
1.73007
1.70846
1.65924
3.19578
2.81085
2.47829
2.16972
1.88151
1.69312
1.5827
1.45594
1.28796
1.13196
1.09394
1.06603
1.02167
0.968907
0.928088
0.889813
0.854953
0.853131
0.860077
0.870479
0.878218
0.894882
0.937227
0.987978
1.04027
1.08902
1.13187
1.16776
1.17705
1.17372
1.17788
1.18702
1.2045
1.23334
1.40338
1.80092
2.06666
2.23418
2.27295
2.26935
2.24171
2.19987
2.16747
2.1347
2.10148
2.07664
2.08253
2.19875
2.49816
2.82049
3.03808
3.1278
3.12516
3.11781
3.06527
2.99462
2.91004
2.83747
2.80166
2.77606
2.76011
2.73879
2.70863
2.67298
2.62176
2.54331
2.47349
2.44249
2.42126
2.40805
2.40052
2.38059
2.35613
2.3246
2.26811
2.18571
2.13158
2.1076
2.09049
2.07634
2.06775
2.0579
2.04316
2.02607
1.99681
1.93969
1.87973
1.84132
1.81681
1.80275
1.79465
1.79051
1.78054
1.76702
1.75152
1.70125
3.31351
2.97356
2.66237
2.40506
2.15655
1.91017
1.73176
1.63688
1.52662
1.37705
1.25148
1.18626
1.13285
1.08798
1.04507
0.998322
0.945933
0.890307
0.879247
0.876542
0.872807
0.875948
0.887455
0.908841
0.934614
0.969359
1.0071
1.05636
1.10664
1.13551
1.15908
1.17072
1.21524
1.39132
1.87664
2.13862
2.24404
2.27159
2.26981
2.25194
2.22438
2.18026
2.14834
2.12722
2.10264
2.07652
2.05947
2.02693
2.05797
2.22555
2.53193
2.82756
2.99804
3.07373
3.05951
3.0261
2.95418
2.87032
2.81996
2.78815
2.76127
2.73693
2.71105
2.68022
2.6404
2.58426
2.51604
2.46685
2.44147
2.42166
2.40883
2.3925
2.36906
2.34058
2.29595
2.22496
2.16083
2.1332
2.11562
2.10025
2.09001
2.08329
2.07203
2.05504
2.02238
1.95978
1.88979
1.85298
1.83777
1.82627
1.81694
1.81148
1.80467
1.79364
1.78125
1.7292
3.39541
3.10323
2.8122
2.55679
2.34874
2.13725
1.93288
1.76867
1.66549
1.56495
1.44465
1.34597
1.26268
1.19577
1.15556
1.11767
1.07293
1.01227
0.972283
0.942867
0.917263
0.904594
0.905624
0.899202
0.887182
0.887836
0.89954
0.926391
0.972859
1.03785
1.09269
1.15842
1.38985
1.79247
2.19922
2.25278
2.2813
2.26739
2.23981
2.20983
2.18701
2.16043
2.13461
2.12006
2.10508
2.08125
2.05522
2.0287
1.99079
1.97782
2.03863
2.25018
2.54832
2.84247
2.97513
2.99575
2.96982
2.90586
2.84618
2.79876
2.7647
2.73431
2.7084
2.68214
2.65134
2.6134
2.56481
2.50729
2.45995
2.43385
2.41429
2.39325
2.36862
2.34256
2.31174
2.26861
2.21122
2.16402
2.14119
2.1244
2.10789
2.08999
2.07074
2.04616
2.01265
1.96218
1.90397
1.87458
1.86208
1.85096
1.84114
1.83116
1.81841
1.80419
1.78295
1.73022
3.46522
3.19941
2.94116
2.70329
2.47829
2.28567
2.1149
1.9451
1.79343
1.68579
1.59297
1.49616
1.40353
1.32303
1.26457
1.2161
1.16578
1.11456
1.06801
1.02293
0.983971
0.952221
0.934899
0.918446
0.901148
0.894665
0.894984
0.894008
0.899783
0.930018
0.981023
1.24458
1.68863
2.0183
2.16926
2.2206
2.2298
2.20676
2.19373
2.19162
2.18074
2.15749
2.13423
2.1215
2.10585
2.08021
2.05337
2.02937
2.00221
1.96525
1.9372
1.94957
2.04292
2.27458
2.56747
2.80959
2.91608
2.895
2.86507
2.82063
2.76896
2.73695
2.71077
2.68544
2.65896
2.63051
2.59858
2.5557
2.49789
2.44789
2.42142
2.398
2.37133
2.34414
2.31917
2.29437
2.26042
2.21136
2.16554
2.13776
2.11594
2.09359
2.06821
2.03811
2.00227
1.96363
1.93215
1.90506
1.88344
1.87115
1.86049
1.84811
1.83174
1.81007
1.77865
1.73119
3.52966
3.27966
3.04313
2.82719
2.61281
2.411
2.24566
2.09858
1.95442
1.82264
1.71521
1.61381
1.52759
1.45089
1.38253
1.31617
1.25961
1.21121
1.16814
1.12175
1.07461
1.0373
1.00746
0.982831
0.958515
0.937893
0.92135
0.904175
0.905607
0.926259
1.1184
1.5569
1.80409
1.91968
2.00189
2.04726
2.07083
2.09592
2.12896
2.14401
2.14322
2.13463
2.12943
2.12743
2.10677
2.08473
2.0678
2.04654
2.01621
1.97959
1.93618
1.91093
1.90192
1.92695
2.03854
2.27186
2.56074
2.75064
2.82743
2.81871
2.787
2.76403
2.72823
2.70376
2.68336
2.65377
2.62315
2.59075
2.54362
2.47907
2.43024
2.40416
2.37943
2.35422
2.33236
2.31141
2.28733
2.25113
2.19617
2.14545
2.11565
2.09241
2.06621
2.03522
2.00173
1.97834
1.95968
1.93682
1.9093
1.88673
1.87132
1.85712
1.83938
1.81186
1.77712
1.74315
3.58917
3.35674
3.14142
2.92932
2.72167
2.54116
2.37765
2.21457
2.06872
1.95788
1.84608
1.73383
1.63182
1.56164
1.4942
1.42738
1.35726
1.30154
1.25396
1.20942
1.16532
1.12463
1.08604
1.04794
1.01361
0.984333
0.958136
0.934822
0.953349
1.11717
1.55474
1.80185
1.83666
1.8376
1.84838
1.86777
1.88876
1.91981
1.9486
1.96776
1.99678
2.03371
2.06615
2.0766
2.08564
2.09115
2.08622
2.06782
2.03438
1.9942
1.95094
1.91076
1.88469
1.87375
1.87312
1.91006
2.03897
2.26364
2.50068
2.66138
2.75016
2.75083
2.73458
2.73589
2.71865
2.69191
2.66249
2.62571
2.57814
2.51477
2.44661
2.4089
2.387
2.36875
2.3492
2.32806
2.30554
2.27763
2.23275
2.16692
2.11329
2.08349
2.06014
2.03633
2.02051
2.00865
1.99298
1.9713
1.93994
1.90489
1.88094
1.85974
1.83642
1.80867
1.79007
1.77106
3.64964
3.43165
3.22832
3.02296
2.82473
2.6552
2.49267
2.33194
2.18985
2.07052
1.95626
1.85153
1.75128
1.67004
1.58846
1.52101
1.45975
1.40047
1.33983
1.28408
1.24226
1.2075
1.1737
1.13549
1.09592
1.05255
1.02136
1.03801
1.20078
1.60547
1.91739
1.9307
1.89969
1.85591
1.83987
1.83648
1.82583
1.81303
1.79919
1.78653
1.78426
1.81271
1.86228
1.9198
1.97532
2.02117
2.04197
2.04299
2.02758
1.99984
1.96278
1.9185
1.88364
1.86411
1.85389
1.85577
1.86021
1.89271
1.99164
2.18273
2.40833
2.58251
2.65542
2.70001
2.70671
2.71419
2.70039
2.66505
2.6105
2.54996
2.48035
2.42203
2.39521
2.37734
2.35991
2.34009
2.32001
2.29836
2.26618
2.20707
2.13067
2.08355
2.05899
2.04344
2.03482
2.03248
2.02136
2.00467
1.98046
1.93965
1.88993
1.85078
1.82557
1.81136
1.80688
1.79278
3.7067
3.50713
3.30916
3.10974
2.93069
2.76488
2.60103
2.43839
2.30928
2.18453
2.06654
1.94852
1.85947
1.77499
1.69166
1.61055
1.5427
1.48857
1.42749
1.37451
1.32209
1.2843
1.24352
1.20563
1.16775
1.1235
1.13345
1.30809
1.70899
2.03951
2.07131
2.02405
1.9724
1.92874
1.89358
1.86648
1.84194
1.81887
1.80127
1.78881
1.75887
1.72059
1.71453
1.72682
1.75968
1.7971
1.84924
1.90999
1.95549
1.95309
1.92801
1.89974
1.88299
1.8681
1.85723
1.84774
1.83381
1.82532
1.81903
1.84127
1.92295
2.10079
2.31113
2.5034
2.5923
2.66345
2.67351
2.65964
2.62957
2.58148
2.51845
2.45857
2.41954
2.39609
2.37271
2.34981
2.32793
2.30797
2.28349
2.24108
2.17199
2.10719
2.07871
2.06451
2.05279
2.04536
2.03853
2.02506
2.00666
1.97093
1.90386
1.85258
1.83681
1.82801
1.82358
1.8082
3.76975
3.58218
3.39011
3.19683
3.02877
2.86585
2.69895
2.54679
2.41682
2.28761
2.16401
2.0506
1.96409
1.86942
1.78543
1.69873
1.63586
1.57077
1.50875
1.45187
1.4076
1.3673
1.32217
1.2746
1.22644
1.24376
1.44723
1.8866
2.19568
2.23151
2.17412
2.11116
2.06827
2.0286
1.98233
1.93616
1.89719
1.86599
1.8393
1.8148
1.78628
1.73998
1.69694
1.67974
1.66967
1.66753
1.67862
1.70739
1.74905
1.7931
1.80893
1.80868
1.82048
1.82514
1.81033
1.80064
1.80252
1.81154
1.80762
1.78712
1.76707
1.78775
1.85989
2.01203
2.21296
2.39781
2.55795
2.58568
2.58988
2.57681
2.54618
2.49783
2.45099
2.42017
2.39635
2.37311
2.34464
2.31545
2.28631
2.25124
2.20705
2.16087
2.11931
2.09058
2.07404
2.05967
2.04663
2.03363
2.01683
1.98462
1.92956
1.88466
1.86497
1.85203
1.84307
1.82262
3.82531
3.64317
3.45888
3.28142
3.11593
2.95336
2.78657
2.64932
2.51679
2.38869
2.25429
2.15531
2.06108
1.96606
1.87332
1.78915
1.72628
1.65549
1.59475
1.53286
1.48555
1.43835
1.39246
1.3423
1.36164
1.59308
2.06207
2.37935
2.3903
2.32579
2.25657
2.20623
2.16546
2.11772
2.0632
2.00926
1.96681
1.93575
1.90719
1.87706
1.84524
1.8039
1.73921
1.68238
1.66146
1.65301
1.64836
1.64611
1.64665
1.64825
1.64734
1.65265
1.64817
1.65651
1.6806
1.70129
1.73023
1.76452
1.76611
1.75158
1.73152
1.72411
1.72427
1.73346
1.78389
1.90511
2.10945
2.3019
2.46243
2.53669
2.52579
2.49504
2.46221
2.442
2.42378
2.39626
2.3669
2.33329
2.29547
2.25742
2.22837
2.20017
2.16442
2.1269
2.09665
2.07536
2.05624
2.03576
2.01052
1.97937
1.94635
1.91567
1.89147
1.87493
1.86257
1.83718
3.88955
3.70922
3.53114
3.36429
3.20326
3.03628
2.87746
2.74595
2.61901
2.48281
2.35073
2.25688
2.15626
2.06163
1.95715
1.8866
1.81485
1.74199
1.67548
1.61368
1.56335
1.51144
1.45625
1.48582
1.76126
2.26753
2.54893
2.55896
2.49568
2.42287
2.36458
2.31676
2.26549
2.20835
2.14856
2.09191
2.04618
2.01206
1.98119
1.94803
1.91044
1.86608
1.80986
1.74894
1.71077
1.68232
1.65816
1.64303
1.63272
1.62128
1.614
1.60161
1.56993
1.54135
1.53813
1.54703
1.5727
1.61089
1.65721
1.69205
1.68869
1.67347
1.66558
1.65582
1.65275
1.66694
1.71947
1.84344
2.03053
2.24744
2.38196
2.44397
2.42567
2.41172
2.40869
2.39609
2.37856
2.34944
2.31246
2.27537
2.24657
2.22072
2.19499
2.16358
2.12322
2.08663
2.06004
2.0358
2.00965
1.98463
1.96314
1.93861
1.90951
1.88664
1.87367
1.84709
3.94439
3.77118
3.59877
3.43651
3.28185
3.12198
2.96973
2.83529
2.70889
2.57141
2.45198
2.35147
2.2505
2.14283
2.04392
1.97867
1.90179
1.83144
1.75312
1.69176
1.63784
1.58394
1.6343
1.98777
2.50423
2.75409
2.72814
2.65151
2.57778
2.52221
2.47206
2.41817
2.35599
2.28744
2.22137
2.16617
2.12196
2.08347
2.047
2.01108
1.97404
1.93359
1.88652
1.82821
1.77262
1.73314
1.70367
1.67894
1.65641
1.63388
1.61131
1.59183
1.57425
1.54713
1.50995
1.48509
1.47599
1.47944
1.49237
1.51936
1.54984
1.55986
1.5582
1.56841
1.57335
1.57708
1.59757
1.63254
1.68078
1.78759
1.95632
2.14173
2.24662
2.31904
2.35444
2.36023
2.36347
2.35584
2.3301
2.29872
2.26656
2.23839
2.21423
2.18788
2.15641
2.11732
2.07237
2.02925
2.00296
1.98911
1.97626
1.96065
1.93856
1.90581
1.87997
1.85089
4.01868
3.85026
3.68286
3.52327
3.36751
3.20974
3.06282
2.93022
2.79933
2.66112
2.54734
2.443
2.34036
2.22743
2.13882
2.06622
1.98888
1.91059
1.82995
1.77034
1.71608
1.79287
2.20647
2.81867
2.99154
2.90496
2.81126
2.7377
2.67557
2.62208
2.56959
2.51357
2.44857
2.37326
2.30005
2.2423
2.19628
2.15471
2.11417
2.07381
2.03434
1.99578
1.95529
1.90812
1.85383
1.79892
1.75119
1.71464
1.68794
1.66303
1.639
1.61968
1.60091
1.57379
1.53272
1.48524
1.46025
1.44699
1.43843
1.4365
1.43838
1.43544
1.4377
1.43968
1.44849
1.46154
1.4835
1.51802
1.53355
1.55058
1.60581
1.70579
1.8333
1.97393
2.10754
2.19969
2.27132
2.31785
2.32217
2.31731
2.29139
2.2549
2.2255
2.20259
2.17632
2.14426
2.10188
2.05174
2.00913
1.98462
1.97405
1.96994
1.95751
1.93554
1.9096
1.85984
4.09776
3.9269
3.76118
3.60154
3.44343
3.28991
3.14938
3.0151
2.87672
2.74328
2.63812
2.53475
2.42614
2.30975
2.23232
2.15225
2.07474
1.98462
1.90729
1.85621
1.97228
2.45663
3.05648
3.23321
3.15515
3.0047
2.89158
2.83114
2.78084
2.72761
2.67086
2.6094
2.54005
2.46063
2.38001
2.3157
2.26689
2.22401
2.18229
2.13914
2.09339
2.04642
2.0017
1.95996
1.91738
1.87126
1.82561
1.78409
1.74555
1.70777
1.6769
1.65392
1.63353
1.61318
1.58301
1.53261
1.47466
1.44251
1.42598
1.41359
1.4035
1.39809
1.39546
1.38168
1.36214
1.35845
1.36298
1.37557
1.39538
1.41239
1.43642
1.47529
1.50996
1.56042
1.67839
1.83856
1.98067
2.09915
2.22107
2.27398
2.26868
2.25704
2.23524
2.19302
2.16754
2.14831
2.12217
2.08794
2.04961
2.00938
1.97452
1.95401
1.94878
1.94779
1.93401
1.87956
4.17657
3.99973
3.83588
3.67758
3.51895
3.3686
3.23131
3.09708
2.96015
2.8328
2.72527
2.62228
2.50776
2.40145
2.32229
2.24172
2.14986
2.0598
2.00836
2.17624
2.75008
3.30063
3.46969
3.3893
3.25849
3.12676
3.01416
2.93955
2.87586
2.81471
2.75336
2.69106
2.62622
2.55316
2.47031
2.39278
2.33334
2.28572
2.24298
2.20196
2.16014
2.11552
2.06758
2.01704
1.96562
1.91505
1.86896
1.82977
1.79454
1.75983
1.72664
1.6945
1.66395
1.63911
1.61407
1.57885
1.53573
1.49182
1.45005
1.41889
1.4001
1.38405
1.37074
1.36084
1.35163
1.34048
1.32517
1.30686
1.30278
1.30569
1.31166
1.33074
1.34994
1.35718
1.37752
1.43738
1.56037
1.71293
1.8987
2.03237
2.12004
2.19466
2.20709
2.1842
2.1488
2.13907
2.1256
2.11097
2.08722
2.05037
2.00341
1.96393
1.94122
1.93032
1.925
1.89395
4.23869
4.08985
3.91903
3.76315
3.60519
3.45809
3.32277
3.18563
3.04591
2.92523
2.81774
2.70959
2.59294
2.49272
2.41007
2.3161
2.22718
2.17944
2.39248
3.09921
3.57568
3.6563
3.57162
3.45324
3.35031
3.25506
3.14862
3.0546
2.97695
2.90422
2.83434
2.76723
2.70179
2.63357
2.55805
2.47888
2.40839
2.35088
2.3017
2.25727
2.21571
2.17471
2.1314
2.0829
2.02701
1.96439
1.90566
1.86305
1.83233
1.80516
1.77611
1.74064
1.69821
1.65851
1.63111
1.60993
1.58528
1.5528
1.51408
1.47002
1.42692
1.39317
1.37357
1.36082
1.3523
1.34206
1.32141
1.3002
1.28693
1.27349
1.26064
1.25642
1.25569
1.25696
1.25795
1.25983
1.27864
1.33245
1.43731
1.60298
1.76669
1.89372
2.00487
2.09895
2.09836
2.10289
2.10856
2.10067
2.08735
2.07148
2.04248
1.99527
1.95431
1.93137
1.92064
1.89575
4.16746
4.15576
4.01527
3.84797
3.69058
3.5504
3.41307
3.2721
3.13255
3.02164
2.90595
2.79278
2.67323
2.58495
2.48813
2.39352
2.36796
2.65646
3.42089
3.93152
3.95942
3.84126
3.68792
3.55941
3.46038
3.36879
3.26798
3.16726
3.07924
3.00049
2.92609
2.85469
2.78473
2.71378
2.63958
2.56191
2.48559
2.41708
2.35769
2.30562
2.25931
2.21745
2.17746
2.13541
2.08652
2.02768
1.96514
1.91322
1.87545
1.84598
1.81828
1.78693
1.74816
1.70148
1.65666
1.62422
1.60141
1.58087
1.55629
1.52415
1.48545
1.4451
1.40837
1.37867
1.35687
1.34066
1.325
1.30716
1.28652
1.26592
1.24994
1.24093
1.2351
1.22819
1.21662
1.19812
1.18773
1.18701
1.19525
1.23281
1.31499
1.44609
1.58204
1.74471
1.85912
1.94435
2.0378
2.06706
2.05982
2.04018
2.01894
2.00703
1.98886
1.95655
1.93503
1.9045
3.51042
4.13969
4.10454
3.94882
3.78118
3.63907
3.50227
3.35768
3.22706
3.113
2.99808
2.87182
2.76473
2.66686
2.55501
2.57745
2.97028
3.82004
4.237
4.15571
4.04049
3.92313
3.80885
3.69936
3.58952
3.47465
3.3632
3.26337
3.17599
3.0963
3.01949
2.9425
2.86502
2.78837
2.71327
2.63913
2.56535
2.4931
2.42493
2.36259
2.30558
2.25341
2.20609
2.16287
2.12048
2.0734
2.02222
1.97227
1.92466
1.8801
1.84141
1.80962
1.78032
1.7452
1.70396
1.66418
1.62798
1.59538
1.56825
1.54567
1.52131
1.49017
1.45498
1.42269
1.39604
1.37135
1.34381
1.31503
1.28899
1.26583
1.24516
1.2315
1.22374
1.21514
1.20219
1.18985
1.17466
1.15004
1.13345
1.13046
1.13362
1.15483
1.20436
1.29421
1.42618
1.5657
1.71374
1.84635
1.97718
1.99436
1.96611
1.9646
1.959
1.95638
1.95114
1.92368
2.1582
3.70853
4.10806
4.05183
3.88749
3.7337
3.59168
3.44748
3.32155
3.20453
3.08708
2.95974
2.85346
2.73092
2.79
3.35205
4.23187
4.6273
4.55175
4.3269
4.12893
4.023
3.93548
3.83517
3.72029
3.59318
3.46503
3.35469
3.26475
3.18387
3.1054
3.02617
2.94458
2.86179
2.78134
2.70542
2.63278
2.56161
2.49271
2.42797
2.36625
2.30613
2.24788
2.19264
2.14325
2.10102
2.0623
2.02333
1.98215
1.93761
1.88978
1.83852
1.78873
1.75212
1.72519
1.6983
1.67004
1.64255
1.61318
1.57555
1.53113
1.49171
1.46512
1.44506
1.42586
1.40502
1.38106
1.35456
1.32481
1.28921
1.25688
1.23681
1.22353
1.21406
1.20628
1.19402
1.1709
1.14442
1.1291
1.11613
1.10244
1.09644
1.09328
1.0984
1.11981
1.17327
1.27571
1.40676
1.56968
1.73607
1.81572
1.85774
1.8805
1.8936
1.91202
1.91162
1.47644
2.43134
3.82604
4.07345
3.99554
3.84224
3.68422
3.53818
3.41995
3.29948
3.17237
3.05209
2.93235
3.03289
3.75004
4.71443
4.96453
4.80987
4.639
4.47048
4.30864
4.18554
4.07481
3.95904
3.83518
3.70408
3.57262
3.45444
3.35402
3.26443
3.1783
3.09277
3.00891
2.9275
2.84836
2.77089
2.69489
2.62161
2.55287
2.48885
2.42641
2.36313
2.29874
2.2343
2.17392
2.12385
2.08522
2.0522
2.01819
1.9788
1.93227
1.87947
1.82615
1.77975
1.74191
1.71297
1.69022
1.6696
1.6453
1.60976
1.56471
1.5234
1.48966
1.4621
1.44012
1.4192
1.39773
1.37592
1.35027
1.31988
1.2936
1.27365
1.25304
1.22881
1.2032
1.18061
1.15984
1.14463
1.13222
1.11645
1.10116
1.08402
1.06467
1.05695
1.05521
1.05274
1.05949
1.08626
1.14596
1.2539
1.39857
1.5257
1.67166
1.74883
1.79836
1.84028
1.40156
1.54516
2.67283
3.88792
4.02832
3.9472
3.78846
3.63793
3.51685
3.38968
3.26743
3.14867
3.34197
4.23616
5.12956
5.41384
5.22917
4.96252
4.73687
4.59165
4.46724
4.34365
4.2142
4.08091
3.946
3.81077
3.67843
3.55421
3.44172
3.34062
3.2473
3.15834
3.07301
2.99109
2.91081
2.83017
2.74961
2.67291
2.60308
2.53939
2.47717
2.41287
2.34663
2.27943
2.21417
2.15751
2.11277
2.07585
2.04063
2.00216
1.95666
1.90379
1.85061
1.80703
1.77409
1.74702
1.72176
1.69409
1.66056
1.62071
1.57972
1.54235
1.50953
1.4818
1.46417
1.44912
1.42729
1.39044
1.34941
1.32539
1.31254
1.29998
1.28212
1.25538
1.21937
1.18874
1.1764
1.16599
1.14964
1.12868
1.10661
1.08148
1.06039
1.04958
1.03978
1.03163
1.02609
1.021
1.0151
1.02406
1.05224
1.11154
1.21597
1.3594
1.48442
1.64376
1.40001
1.40417
1.63114
2.87303
3.89892
3.99095
3.89865
3.74927
3.60414
3.48121
3.38775
3.70541
4.86634
5.61405
5.70404
5.57608
5.38761
5.14776
4.9043
4.73139
4.59068
4.45644
4.32316
4.18585
4.04679
3.90937
3.77475
3.64438
3.52184
3.41013
3.30948
3.21777
3.13211
3.04911
2.9655
2.88047
2.79625
2.71673
2.64419
2.57866
2.51652
2.45268
2.38569
2.31723
2.25028
2.1903
2.14112
2.10067
2.06429
2.02765
1.98668
1.93788
1.88272
1.83045
1.78677
1.75351
1.73006
1.71015
1.68696
1.65451
1.60967
1.55283
1.51835
1.5061
1.49068
1.47066
1.4428
1.40587
1.37453
1.35095
1.32872
1.30605
1.28339
1.26251
1.24175
1.21663
1.18404
1.15698
1.14049
1.12351
1.10323
1.08416
1.06937
1.05479
1.04051
1.02941
1.01951
1.01109
1.0031
0.997275
0.981735
0.968804
0.97579
1.008
1.06547
1.24844
1.40001
1.40003
1.40896
1.72491
3.01517
3.8872
3.95607
3.86813
3.70889
3.61714
4.1507
5.43185
6.26234
6.22841
5.93282
5.65851
5.48528
5.2915
5.0697
4.86565
4.68931
4.53198
4.38856
4.25116
4.11556
3.98149
3.84896
3.71864
3.59272
3.47519
3.36934
3.27401
3.18496
3.09764
3.00831
2.9174
2.83044
2.75208
2.68093
2.61404
2.55076
2.48808
2.4205
2.34896
2.27983
2.21959
2.1694
2.12595
2.08589
2.04639
2.00457
1.95783
1.90659
1.85648
1.81317
1.77943
1.7492
1.71801
1.69125
1.66973
1.64087
1.59531
1.55083
1.50868
1.47294
1.4479
1.43429
1.42342
1.40488
1.38192
1.35853
1.33576
1.31451
1.29456
1.27226
1.24167
1.19682
1.15838
1.14246
1.13545
1.12782
1.11539
1.0991
1.07802
1.05786
1.04261
1.02948
1.01758
1.00677
0.989991
0.969401
0.951041
0.937933
0.931403
0.934317
0.9745
1.40001
1.40001
1.40008
1.41622
1.81412
3.09684
3.90317
3.8842
3.88433
4.63835
6.1394
6.61289
6.58522
6.37358
6.08592
5.7634
5.55362
5.37623
5.18057
4.97703
4.7791
4.59577
4.43433
4.29171
4.15969
4.03224
3.90615
3.78026
3.6557
3.53544
3.42278
3.31883
3.222
3.12932
3.03761
2.94702
2.86248
2.78738
2.71834
2.64853
2.57642
2.50576
2.43418