/*--------------------------------*- C++ -*----------------------------------*\
  =========                 |
  \\      /  F ield         | OpenFOAM: The Open Source CFD Toolbox
   \\    /   O peration     | Website:  https://openfoam.org
    \\  /    A nd           | Version:  7
     \\/     M anipulation  |
\*---------------------------------------------------------------------------*/
FoamFile
{
    version     2.0;
    format      ascii;
    class       volScalarField;
    location    "2.1";
    object      T;
}
// * * * * * * * * * * * * * * * * * * * * * * * * * * * * * * * * * * * * * //

dimensions      [0 0 0 1 0 0 0];

internalField   nonuniform List<scalar> 
4032
(
1
1
1
1
1
1
1
1
1
1
1
1
2.15277
2.7004
2.73678
2.75714
2.77359
2.78474
2.79307
2.8017
2.81372
2.82888
2.84284
2.85078
1
1
1
1
1
1
1
1
1
1
1
1
2.13209
2.69637
2.73554
2.75541
2.77168
2.78246
2.79036
2.79851
2.81006
2.82473
2.83824
2.84601
1
1
1
1
1
1
1
1
1
1
1
1
2.08224
2.68922
2.73286
2.75232
2.76842
2.77885
2.78634
2.79399
2.8049
2.81896
2.83178
2.83927
1
1
1
1
1
1
1
1
1
1
1
1
2.00304
2.67336
2.72789
2.74719
2.76305
2.77286
2.77972
2.78674
2.79698
2.81038
2.8223
2.82875
1
1
1
1
1
1
1
1
1
1
1
1
1.89019
2.64422
2.71593
2.73717
2.75401
2.76378
2.76991
2.7757
2.78435
2.7963
2.80667
2.81378
1
1
1
1
1
1
1
1
1
1
1
1
1.74038
2.59732
2.69758
2.7233
2.74193
2.75192
2.75739
2.76242
2.77043
2.7809
2.78661
2.78494
1
1
1
1
1
1
1
1
1
1
1
1
1.52038
2.51036
2.67109
2.70357
2.72554
2.73693
2.7425
2.74644
2.75025
2.75157
2.75048
2.74719
1
1
1
1
1
1
1
1
1
1
1
1
1.21684
2.38693
2.64791
2.67541
2.69957
2.71495
2.72188
2.7237
2.72249
2.7217
2.72374
2.73829
1
1
1
1
1
1
1
1
1
1
1
1
1.01377
2.27124
2.6355
2.6486
2.66838
2.6853
2.69361
2.69416
2.68754
2.67305
2.62978
2.53684
1
1
1
1
1
1
1
1
1
1
1
1
1.00003
2.07462
2.60332
2.62798
2.64405
2.65613
2.6615
2.6592
2.64679
2.61642
2.56336
2.41015
1
1
1
1
1
1
1
1
1
1
1
1
1
1.75658
2.52474
2.60799
2.62548
2.63403
2.63387
2.62658
2.60773
2.56682
2.50243
2.32811
1
1
1
1
1
1
1
1
1
1
1
1
1
1.31681
2.37772
2.58551
2.59765
2.60731
2.60524
2.59407
2.57011
2.52735
2.44921
2.29459
1
1
1
1
1
1
1
1
1
1
1
1
1
1.02763
2.20164
2.53913
2.56136
2.57398
2.57216
2.56092
2.5356
2.49294
2.41257
2.29476
1
1
1
1
1
1
1
1
1
1
1
1
1
1.0001
1.84584
2.46297
2.53516
2.54452
2.54112
2.52898
2.50383
2.46189
2.38798
2.29422
1
1
1
1
1
1
1
1
1
1
1
1
1
0.999999
1.2831
2.31696
2.51667
2.50682
2.50224
2.49104
2.46947
2.43106
2.37035
2.29478
1
1
1
1
1
1
1
1
1
1
1
1
1
1
1.01847
2.13376
2.47269
2.45771
2.45813
2.45058
2.43395
2.40232
2.35379
2.29156
1
1
1
1
1
1
1
1
1
1
1
1
1
1
1.00004
1.67155
2.36929
2.43897
2.43296
2.4211
2.40228
2.37349
2.3339
2.28397
1
1
1
1
1
1
1
1
1
1
1
1
1
1
1
1.11855
2.16627
2.42113
2.40971
2.39458
2.37332
2.34551
2.3111
2.27059
1
1
1
1
1
1
1
1
1
1
1
1
1
1
1
1.00285
1.77657
2.32461
2.38669
2.36931
2.34815
2.321
2.2893
2.25439
1
1
1
1
1
1
1
1
1
1
1
1
1
1
1
1
1.18367
2.12619
2.36053
2.34268
2.3247
2.29905
2.26931
2.23732
1
1
1
1
1
1
1
1
1
1
1
1
1
1
1
1
1.00714
1.74134
2.2577
2.31637
2.29714
2.27424
2.24835
2.2194
1
1
1
1
1
1
1
1
1
1
1
1
1
1
1
1
1.00002
1.17583
2.04379
2.28974
2.26883
2.25308
2.23181
2.20514
1
1
1
1
1
1
1
1
1
1
1
1
1
1
1
1
1
1.00648
1.56608
2.14417
2.2469
2.22738
2.20907
2.18649
1
1
1
1
1
1
1
1
1
1
1
1
1
1
1
1
1
1.00003
1.09642
1.90046
2.21983
2.20324
2.18711
2.16701
1
1
1
1
1
1
1
1
1
1
1
1
1
1
1
1
1
1
1.00209
1.36623
2.03961
2.18214
2.15855
2.14137
1
1
1
1
1
1
1
1
1
1
1
1
1
1
1
1
1
1
1.00001
1.03354
1.67527
2.09214
2.14466
2.12757
1
1
1
1
1
1
1
1
1
1
1
1
1
1
1
1
1
1
1
1.00041
1.16351
1.85389
2.11494
2.10953
1
1
1
1
1
1
1
1
1
1
1
1
1
1
1
1
1
1
1
1
1.00614
1.3615
1.94283
2.08684
1
1
1
1
1
1
1
1
1
1
1
1
1
1
1
1
1
1
1
1
1.00004
1.03494
1.5527
1.97674
1
1
1
1
1
1
1
1
1
1
1
1
1
1
1
1
1
1
1
1
1
1.00051
1.10606
1.69959
1
1
1
1
1
1
1
1
1
1
1
1
1
1
1
1
1
1
1
1
1
1
1.00311
1.22032
1
1
1
1
1
1
1
1
1
1
1
1
1
1
1
1
1
1
1
1
1
1
1.00002
1.01253
1
1
1
1
1
1
1
1
1
1
1
1
1
1
1
1
1
1
1
1
1
1
1
1.00013
1
1
1
1
1
1
1
1
1
1
1
1
1
1
1
1
1
1
1
1
1
1
1
1
1
1
1
1
1
1
1
1
1
1
1
1
1
1
1
1
1
1
1
1
1
1
1
1
1
1
1
1
1
1
1
1
1
1
1
1
1
1
1
1
1
1
1
1
1
1
1
1
1
1
1
1
1
1
1
1
1
1
1
1
1
1
1
1
1
1
1
1
1
1
1
1
1
1
1
1
1
1
1
1
1
1
1
1
1
1
1
1
1
1
1
1
1
1
1
1
1
1
1
1
1
1
1
1
1
1
1
1
1
1
1
1
1
1
1
1
1
1
1
1
1
1
1
1
1
1
1
1
1
1
1
1
1
1
1
1
1
1
1
1
1
1
1
1
1.71866
1.22192
1.09327
1.14667
1.18887
1.27188
1.38059
1.46813
1.5381
1.58996
1.63857
1.66476
1.68941
1.71985
1.74502
1.75272
1.75055
1.73531
1.7159
1.71269
1.7252
1.73804
1.73214
1.71584
1.70306
1.70205
1.70931
1.71536
1.71704
1.71348
1.69956
1.68643
1.68082
1.68132
1.68577
1.6936
1.69751
1.6918
1.69085
1.72863
1.90931
2.25511
2.58453
2.7384
2.7215
2.64526
2.59608
2.58391
2.57402
2.56095
2.54267
2.52207
2.50309
2.48311
2.46646
2.45034
2.43387
2.41788
2.40098
2.38624
2.36993
2.34913
2.32878
2.31415
2.30204
2.29408
2.28853
2.27724
2.26328
2.24362
2.21468
2.19078
2.17767
2.16795
2.16047
2.15676
2.15277
2.14399
2.13346
2.11895
2.09303
2.06488
2.05406
2.05025
2.04792
2.04751
2.05003
2.05021
2.04754
2.04202
2.02781
1.9993
1.97968
1.97478
1.9729
1.967
1.96657
1.63968
1.50658
1.45293
1.39238
1.3127
1.29581
1.30414
1.31944
1.35504
1.40086
1.44887
1.48674
1.52128
1.5653
1.60336
1.62595
1.63653
1.64105
1.65016
1.67104
1.67827
1.67376
1.66406
1.66173
1.66545
1.67454
1.68001
1.67964
1.67664
1.66788
1.66224
1.66001
1.65998
1.66261
1.66494
1.66476
1.67078
1.7177
1.86706
2.02214
2.1156
2.28309
2.47631
2.54349
2.56442
2.5449
2.53792
2.52933
2.51807
2.50636
2.48942
2.47446
2.45783
2.43862
2.42215
2.40614
2.39382
2.38162
2.37018
2.35902
2.34433
2.3239
2.30318
2.28909
2.27807
2.26891
2.2604
2.24909
2.23329
2.21292
2.19073
2.17204
2.1604
2.15234
2.1466
2.1398
2.13044
2.12
2.1077
2.09002
2.06749
2.05076
2.04493
2.04267
2.04199
2.04249
2.04182
2.03863
2.0322
2.02054
2.00092
1.98059
1.97122
1.9684
1.96241
2.06342
1.84985
1.68349
1.59451
1.51482
1.41427
1.32433
1.28834
1.28773
1.28885
1.30151
1.33556
1.35672
1.36249
1.3828
1.43077
1.46843
1.50005
1.53802
1.56575
1.58708
1.59109
1.58856
1.58731
1.59056
1.60123
1.61527
1.61853
1.61546
1.60784
1.60112
1.59929
1.60034
1.60366
1.60808
1.61034
1.62027
1.66649
1.84008
1.98558
2.0434
2.02182
2.03023
2.13647
2.29845
2.42683
2.46243
2.46774
2.4579
2.44712
2.43707
2.42258
2.41158
2.39937
2.38258
2.36312
2.34746
2.33419
2.32446
2.31799
2.31286
2.30723
2.2977
2.28035
2.25803
2.24099
2.22888
2.2177
2.2058
2.19461
2.18295
2.17022
2.15564
2.13912
2.12651
2.11765
2.10897
2.09973
2.08942
2.07787
2.06699
2.05597
2.04277
2.03
2.02525
2.02341
2.02155
2.01902
2.01422
2.00608
1.99529
1.98403
1.97351
1.96278
1.95497
1.94614
2.11024
1.9542
1.81221
1.70348
1.63072
1.56023
1.45823
1.38002
1.37005
1.35613
1.33094
1.31363
1.30081
1.28811
1.29175
1.31217
1.35091
1.3876
1.43254
1.46783
1.48111
1.49027
1.49684
1.5066
1.52308
1.54514
1.5603
1.562
1.5596
1.55148
1.54399
1.54289
1.54367
1.5455
1.54982
1.56356
1.6131
1.77629
1.95499
2.0054
1.99924
1.98496
1.96975
1.96606
2.02227
2.17498
2.30077
2.34891
2.36963
2.38031
2.37564
2.36279
2.34769
2.33281
2.31773
2.29892
2.28335
2.27266
2.26451
2.25979
2.25664
2.25378
2.24857
2.23708
2.21479
2.19019
2.17515
2.16416
2.1549
2.1465
2.13843
2.1295
2.11931
2.10508
2.08708
2.07405
2.06522
2.05634
2.04653
2.03813
2.03308
2.02859
2.02222
2.01135
1.99772
1.99075
1.98773
1.98403
1.97756
1.96721
1.95683
1.95072
1.94632
1.94071
1.93282
1.91901
2.1555
2.02928
1.90919
1.79197
1.71211
1.65912
1.59778
1.51325
1.42678
1.40623
1.39025
1.36477
1.33966
1.30915
1.29074
1.29382
1.30118
1.31652
1.34843
1.38565
1.40171
1.41666
1.43461
1.44974
1.46757
1.48843
1.50441
1.51233
1.51313
1.51023
1.51194
1.5167
1.52035
1.52208
1.53214
1.60651
1.74976
1.9296
1.98374
1.98757
1.98015
1.97326
1.95997
1.94725
1.94072
1.96654
2.06697
2.19
2.27498
2.30088
2.31577
2.31852
2.30951
2.296
2.27718
2.25657
2.23609
2.22333
2.21594
2.2128
2.21207
2.20936
2.20388
2.19394
2.1735
2.14261
2.12228
2.11297
2.10605
2.10169
2.09759
2.09035
2.08229
2.07105
2.0509
2.02897
2.01722
2.00967
2.00443
2.00158
1.99985
1.99751
1.99368
1.98717
1.97398
1.95658
1.94565
1.93854
1.93058
1.92241
1.91735
1.91353
1.90981
1.90583
1.89995
1.88406
2.18465
2.0789
1.98137
1.88406
1.78454
1.71532
1.67498
1.62423
1.5494
1.46909
1.44874
1.43522
1.4124
1.38196
1.35508
1.33201
1.31278
1.31206
1.31656
1.32185
1.32568
1.33538
1.36004
1.38815
1.41547
1.44004
1.46088
1.47828
1.48443
1.48453
1.48913
1.49511
1.50297
1.5166
1.61064
1.80922
1.91717
1.98182
1.99593
1.99369
1.98198
1.96515
1.95364
1.94311
1.93273
1.92507
1.92694
1.97214
2.08064
2.18079
2.24411
2.26162
2.26975
2.26974
2.25743
2.2383
2.21437
2.19368
2.18409
2.17866
2.17718
2.17457
2.16861
2.15895
2.14179
2.11406
2.08868
2.07711
2.06932
2.06461
2.06226
2.05645
2.0501
2.04207
2.02564
1.99898
1.98232
1.97659
1.97326
1.97137
1.97127
1.97039
1.96709
1.9625
1.95308
1.93266
1.91046
1.89661
1.88795
1.88298
1.87991
1.87824
1.87423
1.8696
1.86502
1.85007
2.20838
2.11782
2.02856
1.95026
1.86986
1.7844
1.71802
1.68241
1.63892
1.57523
1.51623
1.48433
1.45771
1.43495
1.41285
1.38766
1.35851
1.32583
1.31919
1.31754
1.31514
1.31714
1.32459
1.33718
1.35238
1.37248
1.39335
1.41887
1.44459
1.45968
1.4728
1.47851
1.50159
1.59743
1.83744
1.95181
1.99201
1.99834
1.99688
1.98935
1.97695
1.9574
1.9447
1.93775
1.92973
1.91989
1.91032
1.88958
1.89962
1.96179
2.06721
2.15364
2.20125
2.22919
2.22797
2.22156
2.2032
2.17987
2.16539
2.1565
2.15005
2.14471
2.13818
2.12876
2.11507
2.09546
2.07172
2.05391
2.0442
2.03687
2.03266
2.02834
2.02313
2.01711
2.00595
1.98502
1.96486
1.95755
1.95386
1.95136
1.95082
1.95099
1.94894
1.94368
1.93193
1.90821
1.88127
1.86739
1.86138
1.85631
1.85171
1.84846
1.84468
1.83973
1.83506
1.81772
2.22101
2.14667
2.06633
1.99115
1.92663
1.85707
1.78576
1.72496
1.68565
1.64564
1.59543
1.55254
1.51394
1.48145
1.46246
1.44374
1.42063
1.38809
1.36581
1.34962
1.33499
1.32814
1.32959
1.32655
1.32035
1.32113
1.32801
1.34364
1.37089
1.40751
1.43676
1.471
1.60357
1.80501
1.97531
1.99954
2.00736
2.00027
1.98639
1.97225
1.96001
1.94514
1.93187
1.92515
1.91892
1.90819
1.89362
1.87647
1.85511
1.83871
1.86087
1.94079
2.04107
2.13442
2.17158
2.18749
2.18302
2.16692
2.14955
2.13549
2.12603
2.11731
2.10925
2.10011
2.08909
2.07609
2.06017
2.04117
2.02471
2.01532
2.00891
2.00324
1.99799
1.99342
1.9876
1.97701
1.95986
1.94561
1.94012
1.93684
1.93395
1.93034
1.92497
1.91627
1.90331
1.88349
1.86078
1.84867
1.84282
1.83716
1.83156
1.82571
1.81892
1.81198
1.80272
1.78198
2.22568
2.1629
2.09606
2.02963
1.96216
1.90104
1.84461
1.78548
1.72927
1.68751
1.65143
1.61239
1.57209
1.53554
1.50926
1.48706
1.46272
1.43726
1.41393
1.39063
1.36956
1.35195
1.34277
1.33436
1.32477
1.32055
1.32063
1.3204
1.32403
1.34199
1.37375
1.53271
1.7682
1.91128
1.96831
1.98583
1.98391
1.97017
1.95947
1.95366
1.94482
1.93045
1.91614
1.90694
1.89727
1.88431
1.87015
1.85531
1.83763
1.81652
1.7973
1.80096
1.83583
1.92212
2.02039
2.09779
2.13412
2.13053
2.12418
2.11235
2.09691
2.08748
2.07944
2.0707
2.06117
2.05153
2.04178
2.02929
2.01158
1.99538
1.98714
1.98076
1.97482
1.97025
1.96684
1.96277
1.95446
1.93982
1.92569
1.91831
1.91313
1.90733
1.89961
1.88909
1.87553
1.86063
1.84806
1.83654
1.82661
1.81983
1.81324
1.80559
1.7966
1.78595
1.77233
1.75282
2.2228
2.16875
2.11259
2.05664
1.99602
1.93474
1.88245
1.83355
1.78341
1.73525
1.69493
1.65494
1.61962
1.5877
1.55903
1.52988
1.50374
1.48112
1.46114
1.43862
1.41458
1.39486
1.37906
1.3658
1.35228
1.34035
1.33112
1.32185
1.3229
1.33717
1.46516
1.7114
1.82162
1.86069
1.8891
1.90309
1.90691
1.9111
1.91762
1.91561
1.911
1.90368
1.89404
1.88517
1.87006
1.85814
1.84784
1.83514
1.81856
1.80008
1.77897
1.76625
1.75809
1.76644
1.80786
1.89212
1.98768
2.04694
2.07261
2.07106
2.06314
2.05813
2.04968
2.04284
2.03598
2.02642
2.01748
2.00896
1.99652
1.97822
1.96397
1.95716
1.95142
1.94685
1.94432
1.94205
1.93787
1.92795
1.91052
1.89463
1.88675
1.88074
1.87307
1.86288
1.85092
1.84191
1.83409
1.82431
1.81229
1.80161
1.79316
1.78479
1.77496
1.76201
1.74774
1.73337
2.21367
2.16748
2.12098
2.07031
2.01583
1.96535
1.91662
1.8649
1.81597
1.77811
1.7383
1.69639
1.65619
1.6288
1.60215
1.57462
1.54377
1.51867
1.49723
1.4767
1.4557
1.43566
1.41612
1.39621
1.37771
1.3618
1.34765
1.33502
1.34778
1.45944
1.70932
1.81366
1.82056
1.81267
1.80886
1.81165
1.81664
1.82657
1.83395
1.83431
1.83873
1.85099
1.85052
1.84552
1.83936
1.83374
1.82651
1.81555
1.79989
1.78213
1.76364
1.74639
1.73353
1.72574
1.71884
1.73079
1.77663
1.85496
1.93174
1.98099
2.00967
2.01061
2.00961
2.01487
2.01149
2.00445
1.99556
1.98502
1.97339
1.95795
1.94013
1.93011
1.92478
1.92137
1.91855
1.91586
1.91254
1.90648
1.89362
1.8726
1.85567
1.84773
1.8419
1.8353
1.83029
1.82576
1.81949
1.81069
1.79802
1.78331
1.77206
1.76152
1.74977
1.73721
1.7294
1.72107
2.20077
2.16174
2.12057
2.07532
2.02776
1.98417
1.93911
1.89133
1.84672
1.80801
1.76915
1.73223
1.69565
1.66574
1.63433
1.60718
1.58192
1.55728
1.53119
1.50587
1.48621
1.46999
1.45415
1.43555
1.41553
1.39293
1.37701
1.3881
1.49124
1.7197
1.85736
1.84567
1.82429
1.80594
1.79552
1.78637
1.77485
1.76439
1.75617
1.74647
1.74006
1.74787
1.75883
1.77224
1.78399
1.78725
1.78562
1.78238
1.77202
1.75923
1.74471
1.72725
1.712
1.70103
1.69311
1.6887
1.68368
1.69305
1.72687
1.79437
1.86876
1.9193
1.94307
1.95973
1.96923
1.97418
1.97053
1.96175
1.94851
1.93426
1.91814
1.90327
1.8963
1.89194
1.88837
1.88524
1.88273
1.87943
1.87202
1.85477
1.83016
1.81583
1.80975
1.80621
1.80437
1.8042
1.80049
1.79417
1.78497
1.76913
1.74869
1.73183
1.72045
1.7134
1.71087
1.70488
2.18643
2.15285
2.1165
2.07528
2.03609
1.99679
1.95459
1.90941
1.87234
1.83446
1.79691
1.75721
1.72703
1.69747
1.66683
1.63564
1.60872
1.58742
1.56205
1.53935
1.51596
1.49905
1.48041
1.46255
1.44465
1.42379
1.43142
1.53883
1.75277
1.89833
1.89248
1.86424
1.83572
1.81302
1.79451
1.77922
1.7646
1.75069
1.73988
1.7328
1.71853
1.69594
1.67972
1.67936
1.68333
1.68839
1.70021
1.71678
1.72348
1.72026
1.70895
1.69693
1.6885
1.68057
1.67267
1.66442
1.65466
1.64695
1.63792
1.64393
1.67159
1.73354
1.80348
1.86299
1.89384
1.91489
1.92467
1.92278
1.91789
1.9087
1.89543
1.88111
1.8707
1.86452
1.85862
1.85399
1.85063
1.84798
1.84366
1.8328
1.8121
1.79198
1.7842
1.78104
1.77871
1.77758
1.77622
1.77194
1.76539
1.75219
1.72698
1.70653
1.69918
1.69431
1.69192
1.6858
2.17432
2.14333
2.10971
2.07269
2.038
2.00231
1.96261
1.92412
1.88961
1.85306
1.81625
1.78075
1.75336
1.72145
1.69207
1.66022
1.637
1.61212
1.58736
1.56368
1.54512
1.52822
1.50873
1.48752
1.46627
1.47779
1.59273
1.80564
1.93974
1.93589
1.90832
1.87724
1.85305
1.83136
1.80866
1.78652
1.76668
1.74974
1.73528
1.72275
1.70953
1.68952
1.66305
1.6425
1.62899
1.61821
1.61748
1.62119
1.6304
1.64293
1.64612
1.64332
1.64451
1.64365
1.63607
1.62728
1.62388
1.62269
1.61691
1.60346
1.58974
1.59554
1.61979
1.67406
1.74379
1.80217
1.85197
1.85991
1.8692
1.87041
1.86702
1.8574
1.84644
1.839
1.83314
1.8276
1.82162
1.81632
1.81084
1.80241
1.79003
1.7769
1.76509
1.75775
1.75433
1.75134
1.74859
1.74535
1.74019
1.72895
1.70938
1.69201
1.68317
1.67731
1.67342
1.66591
2.15981
2.13112
2.09987
2.06796
2.03629
2.00256
1.96557
1.93422
1.90155
1.86808
1.83019
1.80189
1.77348
1.74315
1.71224
1.68304
1.66109
1.63484
1.61157
1.58707
1.56847
1.54944
1.53045
1.51027
1.52292
1.6488
1.86079
1.98194
1.97682
1.94742
1.9162
1.89002
1.86711
1.84307
1.81797
1.79332
1.77254
1.75603
1.74092
1.72566
1.7097
1.68935
1.65889
1.63109
1.61552
1.60283
1.59023
1.58053
1.57473
1.5709
1.56771
1.5661
1.56057
1.56108
1.5671
1.57231
1.57972
1.58574
1.58362
1.57369
1.56129
1.55391
1.54859
1.54937
1.56647
1.61172
1.68325
1.74376
1.79415
1.82176
1.82266
1.82034
1.81575
1.81208
1.80807
1.80158
1.79541
1.78873
1.78062
1.77157
1.76449
1.75727
1.74795
1.73836
1.73075
1.72582
1.72158
1.71651
1.70887
1.69841
1.68665
1.67522
1.66588
1.65951
1.65468
1.64631
2.14419
2.11843
2.09025
2.06227
2.03374
2.00135
1.96837
1.94038
1.91166
1.87801
1.84306
1.81818
1.78941
1.76132
1.72795
1.70523
1.68092
1.65508
1.63098
1.60811
1.58943
1.56949
1.54894
1.56714
1.7087
1.9165
2.01667
2.01182
1.98549
1.95689
1.93057
1.90532
1.87884
1.85196
1.82571
1.80087
1.77944
1.76197
1.74581
1.72903
1.71097
1.69043
1.66493
1.63631
1.61461
1.59682
1.58123
1.56897
1.55804
1.5469
1.53862
1.53005
1.51538
1.49737
1.49112
1.49322
1.501
1.51384
1.52777
1.53435
1.53025
1.51943
1.51243
1.50522
1.49831
1.50202
1.51968
1.56451
1.62995
1.70121
1.74615
1.77076
1.76879
1.76762
1.76971
1.76943
1.76647
1.76046
1.75332
1.74593
1.73949
1.73305
1.72681
1.71941
1.70917
1.69961
1.69279
1.68662
1.67926
1.67149
1.66433
1.65601
1.64573
1.6375
1.63295
1.62521
2.12343
2.10228
2.07812
2.05345
2.02833
1.99967
1.97016
1.94281
1.91572
1.88394
1.85513
1.82988
1.80274
1.77169
1.74172
1.72202
1.69721
1.67404
1.64697
1.62559
1.60652
1.58868
1.61624
1.78731
1.98261
2.05461
2.042
2.01303
1.98627
1.96434
1.94144
1.91513
1.88573
1.85567
1.82783
1.80384
1.78329
1.76462
1.74687
1.72946
1.71134
1.69197
1.67099
1.64561
1.6193
1.5986
1.58185
1.5658
1.55013
1.53494
1.52147
1.51071
1.50206
1.48926
1.46845
1.45219
1.44431
1.44427
1.44725
1.45582
1.46308
1.46269
1.45716
1.45772
1.45558
1.4532
1.45662
1.46583
1.4822
1.52226
1.58403
1.64756
1.68465
1.70977
1.7238
1.72578
1.72887
1.72972
1.72663
1.72139
1.71457
1.70825
1.70314
1.69736
1.69016
1.68051
1.66797
1.65548
1.64854
1.64551
1.64218
1.63729
1.62978
1.61884
1.61039
1.60196
2.10911
2.08961
2.06839
2.04643
2.02305
1.99695
1.97061
1.9455
1.91908
1.889
1.86347
1.83841
1.81208
1.78096
1.75591
1.73495
1.71136
1.68676
1.66041
1.64103
1.62524
1.6632
1.8522
2.06871
2.10159
2.07144
2.03769
2.01108
1.98875
1.96825
1.94585
1.92027
1.89131
1.85998
1.83041
1.80598
1.78533
1.76612
1.74715
1.7282
1.70964
1.6916
1.67301
1.6521
1.62885
1.6046
1.58193
1.5626
1.54613
1.53021
1.51533
1.50358
1.49333
1.48147
1.4653
1.44397
1.42654
1.41599
1.40992
1.40669
1.40475
1.40037
1.39555
1.39245
1.39349
1.39452
1.39971
1.4097
1.41229
1.41643
1.43546
1.47325
1.52443
1.57654
1.62144
1.64968
1.67289
1.68695
1.69433
1.69434
1.6893
1.68185
1.67609
1.67225
1.66767
1.6608
1.65013
1.63601
1.62372
1.6177
1.61593
1.61549
1.61186
1.60508
1.59655
1.58161
2.09298
2.07519
2.0561
2.03594
2.01394
1.99068
1.96795
1.9443
1.91767
1.89
1.86801
1.84456
1.81797
1.78724
1.7673
1.74531
1.7233
1.69626
1.67215
1.66016
1.71262
1.91303
2.12009
2.1418
2.11544
2.06882
2.03207
2.00974
1.99098
1.97101
1.94848
1.92264
1.89385
1.863
1.83219
1.80644
1.78538
1.76577
1.74621
1.72627
1.70607
1.68608
1.66702
1.64918
1.63099
1.61069
1.58969
1.56965
1.55034
1.53097
1.51405
1.50072
1.48925
1.47873
1.46562
1.44573
1.42234
1.40649
1.39432
1.38303
1.37496
1.37036
1.36683
1.35776
1.34593
1.3385
1.33846
1.34125
1.34632
1.35037
1.3569
1.36979
1.38436
1.40695
1.45602
1.51482
1.56085
1.59606
1.63401
1.6503
1.65112
1.65007
1.64623
1.63823
1.63583
1.63363
1.6284
1.62024
1.61033
1.59916
1.58964
1.58537
1.58501
1.58499
1.58016
1.56487
2.07409
2.05607
2.03971
2.02224
2.00235
1.98175
1.96176
1.9403
1.91593
1.89142
1.86968
1.84748
1.82077
1.79486
1.77587
1.75551
1.7305
1.70367
1.6944
1.76584
1.98095
2.16022
2.17948
2.15206
2.11036
2.07018
2.03535
2.00993
1.98761
1.96573
1.94294
1.91881
1.89326
1.86508
1.83431
1.80521
1.78106
1.76032
1.74111
1.72257
1.70412
1.68534
1.66627
1.64703
1.62725
1.60676
1.58681
1.56837
1.55056
1.53268
1.516
1.50039
1.48579
1.47367
1.46143
1.4456
1.42842
1.41044
1.3919
1.37628
1.36336
1.3512
1.34219
1.33633
1.33066
1.32264
1.31176
1.30169
1.2956
1.29507
1.29564
1.30097
1.30768
1.31163
1.32224
1.34924
1.39909
1.45419
1.51357
1.55193
1.57837
1.60149
1.60953
1.60476
1.5986
1.60117
1.601
1.59922
1.59391
1.58487
1.57249
1.56206
1.55652
1.55409
1.55282
1.54464
2.06027
2.04131
2.02263
2.00731
1.98982
1.972
1.95436
1.93446
1.91189
1.89086
1.87075
1.84875
1.82353
1.8012
1.78228
1.75935
1.73465
1.72992
1.81527
2.05605
2.20122
2.19665
2.1694
2.13467
2.10203
2.07153
2.03858
2.00906
1.9834
1.95884
1.93483
1.91106
1.88696
1.86142
1.83363
1.80449
1.77766
1.7548
1.73467
1.71616
1.69872
1.68178
1.6646
1.64634
1.62598
1.60293
1.57951
1.56013
1.54457
1.53019
1.51548
1.49955
1.48228
1.46592
1.45376
1.44382
1.43166
1.41633
1.40011
1.38172
1.3618
1.34454
1.33217
1.32273
1.31632
1.31052
1.30098
1.28963
1.2801
1.27114
1.26324
1.25978
1.25823
1.25882
1.26017
1.2621
1.27116
1.29399
1.33572
1.39759
1.44993
1.48804
1.52403
1.55448
1.55751
1.56144
1.56806
1.56893
1.56756
1.56429
1.55747
1.54597
1.53453
1.52812
1.52585
1.52018
1.98613
2.03157
2.01422
1.99411
1.97614
1.96058
1.94412
1.92551
1.9049
1.8884
1.86852
1.84767
1.82328
1.8053
1.78398
1.75896
1.76249
1.87505
2.10639
2.24518
2.24095
2.20774
2.16671
2.12926
2.09743
2.06823
2.03719
2.00575
1.9773
1.9516
1.92752
1.90433
1.88095
1.8562
1.82947
1.80122
1.77365
1.74875
1.72674
1.70712
1.68955
1.67369
1.65863
1.6428
1.6244
1.60233
1.57836
1.55698
1.53982
1.52574
1.51284
1.49869
1.48209
1.46438
1.44809
1.4349
1.4239
1.4138
1.40201
1.38628
1.36788
1.34983
1.33282
1.31821
1.30704
1.29845
1.2902
1.28088
1.26982
1.25854
1.24938
1.2436
1.23988
1.23625
1.23109
1.224
1.2201
1.21993
1.22372
1.23977
1.27287
1.32283
1.37119
1.42745
1.46461
1.49247
1.52605
1.53587
1.5331
1.52814
1.52529
1.52452
1.52096
1.51232
1.50621
1.49877
1.7741
1.98294
2.00319
1.98529
1.96475
1.94883
1.93327
1.9149
1.89757
1.88199
1.8644
1.84297
1.82319
1.80389
1.78286
1.79325
1.93244
2.18087
2.26847
2.24487
2.21697
2.18934
2.15954
2.12761
2.0941
2.06014
2.02724
1.99642
1.96853
1.94315
1.91931
1.8959
1.87199
1.84712
1.82145
1.7955
1.76982
1.74499
1.72182
1.70072
1.6814
1.66353
1.64699
1.63138
1.61539
1.59701
1.57668
1.5566
1.53758
1.51963
1.5034
1.48958
1.47751
1.46418
1.44841
1.43305
1.41915
1.40584
1.39293
1.38109
1.36896
1.35443
1.33819
1.32272
1.30983
1.29816
1.28605
1.27368
1.26199
1.25043
1.23878
1.22992
1.2243
1.21977
1.21477
1.21062
1.20504
1.19503
1.18854
1.18617
1.18707
1.19458
1.21353
1.25085
1.30518
1.35601
1.40782
1.45448
1.49518
1.49786
1.48885
1.49015
1.49054
1.49061
1.48903
1.48273
1.33296
1.81302
1.97309
1.97165
1.95383
1.93742
1.92235
1.90513
1.88963
1.87416
1.85762
1.83734
1.81989
1.80057
1.82443
2.00275
2.2305
2.31389
2.29494
2.24446
2.19886
2.17225
2.14793
2.11937
2.08683
2.05177
2.01647
1.9847
1.95743
1.93272
1.90932
1.88618
1.86218
1.83698
1.81144
1.78655
1.76248
1.73913
1.71698
1.69654
1.67724
1.6583
1.63947
1.62087
1.60323
1.58699
1.5712
1.55501
1.53819
1.5205
1.50197
1.48298
1.46479
1.45008
1.43871
1.42832
1.41767
1.40626
1.39327
1.37778
1.36006
1.34281
1.33
1.32018
1.31078
1.30091
1.28997
1.27794
1.26506
1.2503
1.23542
1.22473
1.21718
1.21124
1.20691
1.2018
1.1936
1.18497
1.17931
1.17364
1.16719
1.16253
1.15846
1.15939
1.16716
1.19067
1.23684
1.29166
1.35452
1.41094
1.43387
1.44627
1.45311
1.45516
1.45858
1.46275
1.03257
1.42628
1.84029
1.94984
1.94352
1.92725
1.91042
1.89421
1.88136
1.86641
1.84901
1.83108
1.81738
1.85476
2.06312
2.29679
2.32924
2.29656
2.26263
2.22834
2.19371
2.16403
2.13499
2.10429
2.07205
2.03868
2.00529
1.97428
1.94675
1.92159
1.8974
1.87344
1.84957
1.82568
1.80173
1.77784
1.75428
1.73165
1.71066
1.69143
1.67299
1.65429
1.63477
1.61436
1.59408
1.57595
1.56075
1.54704
1.53289
1.51719
1.49949
1.48035
1.46121
1.44387
1.42919
1.41774
1.4085
1.3997
1.3897
1.37639
1.35932
1.34234
1.32829
1.31692
1.30723
1.29768
1.28809
1.27836
1.26704
1.25378
1.24156
1.23157
1.22183
1.21112
1.19968
1.18965
1.18137
1.17663
1.1732
1.16796
1.16149
1.15266
1.14238
1.1368
1.13405
1.13015
1.13234
1.144
1.1723
1.22352
1.2853
1.33274
1.38508
1.40742
1.41826
1.43112
1.00052
1.06328
1.50304
1.84776
1.92705
1.91919
1.90051
1.88354
1.8714
1.85663
1.84055
1.83241
1.89573
2.13054
2.32495
2.36816
2.32946
2.27645
2.23189
2.20311
2.17748
2.1499
2.11948
2.08766
2.05582
2.02444
1.99382
1.96451
1.93701
1.91129
1.88676
1.86279
1.83922
1.81598
1.7927
1.76906
1.74542
1.72297
1.7027
1.68447
1.66689
1.64873
1.62963
1.60939
1.58857
1.5692
1.55277
1.53854
1.52486
1.51029
1.49374
1.47502
1.45596
1.43984
1.42726
1.41641
1.40626
1.3955
1.38348
1.36983
1.3551
1.34041
1.32692
1.31485
1.307
1.3005
1.29214
1.2785
1.26147
1.24956
1.24264
1.23587
1.22702
1.21501
1.19936
1.18715
1.18363
1.18083
1.17541
1.16789
1.15924
1.14861
1.13839
1.13144
1.12439
1.11797
1.1129
1.10851
1.10365
1.10806
1.12398
1.15739
1.20983
1.27308
1.31598
1.37432
1
1.00148
1.10216
1.55827
1.84393
1.90627
1.89548
1.87628
1.86007
1.84237
1.84539
1.93993
2.20812
2.36481
2.36054
2.33763
2.3057
2.26196
2.21797
2.18548
2.15771
2.13048
2.10247
2.07289
2.04274
2.01303
1.98404
1.95574
1.92837
1.90225
1.87749
1.85386
1.83098
1.80827
1.78507
1.76119
1.7373
1.71467
1.69427
1.67623
1.65932
1.64193
1.62345
1.60392
1.58373
1.56444
1.54752
1.53294
1.51967
1.50657
1.49243
1.47565
1.45617
1.43735
1.42173
1.40928
1.39972
1.39182
1.38364
1.3722
1.35666
1.33668
1.3234
1.31844
1.31193
1.30336
1.29188
1.27742
1.26459
1.25389
1.24391
1.23368
1.22245
1.21144
1.20169
1.19193
1.181
1.17246
1.16778
1.1619
1.15385
1.14599
1.13897
1.13087
1.12228
1.11498
1.10825
1.10228
1.09671
1.09253
1.08382
1.08181
1.08693
1.10682
1.13805
1.23661
1
1.00001
1.00332
1.14333
1.59309
1.83393
1.88608
1.87463
1.84926
1.85327
1.99257
2.25651
2.40248
2.39701
2.35203
2.30982
2.28161
2.24929
2.21209
2.17707
2.14626
2.11759
2.08977
2.06175
2.03328
2.00482
1.97679
1.94927
1.92215
1.89593
1.87129
1.84809
1.82552
1.80271
1.77902
1.7546
1.73068
1.70862
1.68858
1.67029
1.65347
1.63702
1.61907
1.59957
1.57988
1.56164
1.54536
1.53057
1.51685
1.50356
1.48984
1.47453
1.45759
1.44018
1.42447
1.4115
1.39953
1.38788
1.37862
1.37165
1.36182
1.34571
1.32927
1.31386
1.30045
1.29051
1.28476
1.27993
1.27205
1.26228
1.25224
1.24212
1.23167
1.22134
1.21097
1.19833
1.18178
1.16902
1.16521
1.16403
1.16223
1.15757
1.14997
1.13923
1.12848
1.11961
1.1115
1.10407
1.09724
1.08755
1.0775
1.07019
1.06546
1.0642
1.06623
1.09267
1
1
1.00002
1.00619
1.18071
1.6105
1.82783
1.85592
1.86716
2.04968
2.32671
2.41203
2.40938
2.38509
2.3493
2.30517
2.27327
2.24488
2.21392
2.18127
2.14839
2.11635
2.0862
2.05755
2.02943
2.00152
1.97367
1.94614
1.91904
1.89278
1.86791
1.8443
1.82137
1.79836
1.77468
1.75069
1.72776
1.70681
1.6874
1.66848
1.64993
1.63171
1.61288
1.59393
1.57598
1.55941
1.54402
1.52938
1.51524
1.50164
1.48814
1.47372
1.45666
1.43732
1.41952
1.4072
1.39831
1.38976
1.38027
1.36866
1.35381
1.33814
1.32283
1.30781
1.296
1.28743
1.27953
1.27166
1.26411
1.25597
1.24656
1.23526
1.22269
1.21042
1.19882
1.18719
1.17729
1.1719
1.16863
1.16434
1.15802
1.15072
1.14248
1.13348
1.12471
1.11615
1.10694
1.09711
1.08671
1.07552
1.06732
1.06257
1.06044
1.05902
1.0576
1.05346
1
1
1
1.00006
1.0097
1.20961
1.6503
1.75702
2.06204
2.41196
2.4992
2.4737
2.42732
2.39471
2.36255
2.32287
2.28637
2.25483
2.22425
2.19314
2.1604
2.12734
2.09543
2.06465
2.03416
2.00367
1.97345
1.94424
1.91676
1.89106
1.86678
1.84305
1.81903
1.79456
1.77016
1.74654
1.72463
1.70478
1.6868
1.66916
1.65008
1.63101
1.6119
1.59217
1.57337
1.55699
1.54271
1.5294
1.51619
1.50253
1.48779
1.47143
1.45367
1.43653
1.42209
1.41031
1.39927
1.38827
1.37658
1.36347
1.35038
1.33731
1.32228
1.307
1.29492
1.28524
1.27656
1.2691
1.26232
1.25501
1.24589
1.234
1.22036
1.20735
1.19573
1.18564
1.17904
1.17492
1.17055
1.16481
1.15761
1.1493
1.14053
1.13205
1.12429
1.11625
1.10691
1.09638
1.08476
1.0733
1.06476
1.0604
1.05838
1.05672
1.05458
1.04973
1
1
1
1
1.0001
1.01418
1.23645
1.77649
2.52001
2.64088
2.58823
2.53339
2.46623
2.42021
2.38536
2.34714
2.30916
2.27208
2.23723
2.20484
2.17342
2.14146
2.10832
2.07428
2.03969
2.00507
1.97191
1.94176
1.91521
1.89112
1.86763
1.84341
1.81811
1.79274
1.76878
1.74695
1.72715
1.70841
1.68995
1.67275
1.65774
1.64029
1.62039
1.6001
1.58208
1.56734
1.55439
1.54176
1.52842
1.5137
1.49757
1.48067
1.46435
1.44975
1.43644
1.42297
1.40918
1.39587
1.38316
1.37105
1.35923
1.34637
1.33125
1.31557
1.30314
1.29439
1.28739
1.28081
1.27393
1.26589
1.25537
1.24154
1.22616
1.21285
1.20319
1.1967
1.19189
1.18687
1.18068
1.17296
1.16409
1.15547
1.14821
1.14191
1.13539
1.12739
1.117
1.10405
1.08953
1.07718
1.07018
1.06705
1.06479
1.06272
1.06018
1.05304
1
1
1
1
1
1.00016
1.02014
2.12893
2.82307
2.77643
2.67124
2.59139
2.51045
2.45018
2.40634
2.36508
2.3251
2.28395
2.24575
2.21179
2.18059
2.14956
2.11631
2.08031
2.04289
2.00633
1.97255
1.94213
1.91498
1.89039
1.86683
1.84309
1.81868
1.79416
1.7705
1.74813
1.72689
1.70715
1.68932
1.67244
1.65369
1.63277
1.61026
1.58857
1.57118
1.55748
1.54499
1.53219
1.51831
1.50288
1.48603
1.46892
1.45316
1.43896
1.42541
1.41173
1.39789
1.38447
1.37201
1.36045
1.34913
1.3366
1.32157
1.30539
1.29226
1.28356
1.2769
1.27045
1.26354
1.25547
1.24496
1.23123
1.21573
1.20235
1.19321
1.18728
1.18251
1.17753
1.17137
1.1633
1.15398
1.14569
1.13926
1.13385
1.12791
1.12008
1.10969
1.0958
1.07928
1.06627
1.06106
1.05875
1.05669
1.05464
1.05193
1.04434
)
;

boundaryField
{
    inlet
    {
        type            fixedValue;
        value           uniform 1;
    }
    outlet
    {
        type            inletOutlet;
        inletValue      uniform 1;
        value           nonuniform List<scalar> 
32
(
1.96844
1.96376
1.94701
1.91878
1.8826
1.84817
1.81509
1.78008
1.75213
1.73385
1.72188
1.70592
1.68674
1.66649
1.64665
1.62548
1.60231
1.5804
1.56316
1.54425
1.52073
1.49904
1.48253
1.46304
1.43095
1.37247
1.23361
1.09154
1.05327
1.04951
1.05265
1.04384
)
;
    }
    bottom
    {
        type            symmetryPlane;
    }
    top
    {
        type            symmetryPlane;
    }
    obstacle
    {
        type            zeroGradient;
    }
    defaultFaces
    {
        type            empty;
    }
}


// ************************************************************************* //
