/*--------------------------------*- C++ -*----------------------------------*\
  =========                 |
  \\      /  F ield         | OpenFOAM: The Open Source CFD Toolbox
   \\    /   O peration     | Website:  https://openfoam.org
    \\  /    A nd           | Version:  7
     \\/     M anipulation  |
\*---------------------------------------------------------------------------*/
FoamFile
{
    version     2.0;
    format      ascii;
    class       volScalarField;
    location    "1.7";
    object      p;
}
// * * * * * * * * * * * * * * * * * * * * * * * * * * * * * * * * * * * * * //

dimensions      [1 -1 -2 0 0 0 0];

internalField   nonuniform List<scalar> 
258048
(
1
1
1
1
1
1
1
1
1
1
1
1
1
1
1
1
1
1
1
1
1
1
1
1
1
1
1
1
1
1
1
1
1
1
1
1
1
1
1
1
1
1
1
1
1
1
1
1
1
1
1
1
1
1
1
1
1
1
1
1
1
1
1
1
1
1
1
1
1
1
1
1
1
1
1
1
1
1
1
1
1
1
1
1
1
1
1
1
1
1
1
1
1
1
1
1
1
1
1
1
1
1.42464
7.81459
10.4615
10.4815
10.521
10.5661
10.6048
10.6312
10.6494
10.66
10.6765
10.7109
10.7629
10.8217
10.8745
10.9137
10.9386
10.9536
10.9656
10.9806
11.0033
11.0361
11.0783
11.1221
11.1568
11.1805
11.1928
11.2002
11.2099
11.2281
11.2572
11.2944
11.3341
11.3693
11.3965
11.4154
11.4304
11.4462
11.4659
11.4899
11.5148
11.5376
11.5565
11.5719
11.5864
11.6045
11.6284
11.6559
11.6821
11.702
11.718
11.731
11.7463
11.7663
11.788
11.8073
11.8218
11.8324
11.842
11.8533
11.8666
11.8823
11.8992
11.9165
11.9356
11.956
11.9719
11.98
11.983
11.9827
11.9818
11.9854
11.994
12.0064
12.0167
12.0219
12.0263
12.0325
12.0425
12.0553
12.0663
12.0728
12.0751
12.0777
12.0844
12.0947
12.1049
12.1117
12.1138
12.1117
12.1084
1
1
1
1
1
1
1
1
1
1
1
1
1
1
1
1
1
1
1
1
1
1
1
1
1
1
1
1
1
1
1
1
1
1
1
1
1
1
1
1
1
1
1
1
1
1
1
1
1
1
1
1
1
1
1
1
1
1
1
1
1
1
1
1
1
1
1
1
1
1
1
1
1
1
1
1
1
1
1
1
1
1
1
1
1
1
1
1
1
1
1
1
1
1
1
1
1
1
1
1
1
1.42003
7.80084
10.4582
10.4761
10.5179
10.5638
10.6034
10.6313
10.651
10.6633
10.6818
10.717
10.768
10.8249
10.875
10.9116
10.9355
10.9514
10.965
10.9812
11.0042
11.0372
11.0789
11.1215
11.1554
11.1786
11.1916
11.2003
11.2111
11.2302
11.2595
11.2964
11.3353
11.3695
11.3959
11.4147
11.4302
11.4469
11.4672
11.4908
11.5145
11.5363
11.5549
11.5708
11.5863
11.6051
11.6288
11.6555
11.6802
11.6991
11.7149
11.7286
11.745
11.7662
11.7888
11.8082
11.8223
11.832
11.8406
11.8512
11.8643
11.8807
11.8987
11.9171
11.9368
11.9569
11.9723
11.9806
11.9838
11.9833
11.9817
11.9841
11.9916
12.003
12.013
12.0193
12.0251
12.0327
12.0435
12.056
12.0661
12.0716
12.0732
12.0752
12.0813
12.0913
12.1019
12.11
12.1142
12.1144
12.1128
1
1
1
1
1
1
1
1
1
1
1
1
1
1
1
1
1
1
1
1
1
1
1
1
1
1
1
1
1
1
1
1
1
1
1
1
1
1
1
1
1
1
1
1
1
1
1
1
1
1
1
1
1
1
1
1
1
1
1
1
1
1
1
1
1
1
1
1
1
1
1
1
1
1
1
1
1
1
1
1
1
1
1
1
1
1
1
1
1
1
1
1
1
1
1
1
1
1
1
1
1
1.40885
7.77039
10.4515
10.4699
10.5143
10.5604
10.6006
10.6297
10.6518
10.6679
10.6902
10.7268
10.7769
10.8302
10.8762
10.9094
10.9313
10.9471
10.9614
10.9787
11.0033
11.0369
11.0783
11.1192
11.1519
11.1742
11.1879
11.1982
11.2109
11.2315
11.2614
11.2978
11.3354
11.3681
11.3937
11.4128
11.4294
11.4477
11.4692
11.4924
11.5146
11.5348
11.5525
11.5684
11.5851
11.6052
11.6292
11.6552
11.6783
11.6957
11.711
11.7252
11.743
11.7657
11.7893
11.8089
11.8225
11.831
11.8384
11.8484
11.8618
11.8791
11.8984
11.9179
11.9376
11.9567
11.9718
11.9812
11.9859
11.9859
11.9831
11.9828
11.9872
11.9963
12.006
12.0147
12.0239
12.0343
12.0458
12.0573
12.0658
12.0695
12.0699
12.0711
12.0764
12.0861
12.0975
12.1078
12.1152
12.1185
12.1195
1
1
1
1
1
1
1
1
1
1
1
1
1
1
1
1
1
1
1
1
1
1
1
1
1
1
1
1
1
1
1
1
1
1
1
1
1
1
1
1
1
1
1
1
1
1
1
1
1
1
1
1
1
1
1
1
1
1
1
1
1
1
1
1
1
1
1
1
1
1
1
1
1
1
1
1
1
1
1
1
1
1
1
1
1
1
1
1
1
1
1
1
1
1
1
1
1
1
1
1
1
1.39035
7.71771
10.4379
10.4614
10.5095
10.5552
10.5962
10.6263
10.65
10.6712
10.6998
10.7396
10.7884
10.8377
10.8783
10.9073
10.9269
10.9415
10.9566
10.9757
11.0023
11.0366
11.0775
11.1167
11.1477
11.1688
11.1833
11.1963
11.2119
11.2346
11.2646
11.2995
11.3345
11.3647
11.3895
11.4095
11.428
11.4485
11.4712
11.4941
11.5146
11.5332
11.5499
11.5658
11.5833
11.604
11.6278
11.6528
11.6744
11.6911
11.7065
11.7219
11.7413
11.765
11.7891
11.8087
11.8216
11.829
11.8355
11.8454
11.8594
11.8775
11.8977
11.9181
11.9377
11.9563
11.9716
11.9825
11.9885
11.9886
11.9845
11.9809
11.9816
11.9876
11.997
12.0085
12.0218
12.0353
12.0479
12.0585
12.0651
12.0669
12.0656
12.0656
12.0699
12.0794
12.092
12.1052
12.1162
12.1231
12.1271
1
1
1
1
1
1
1
1
1
1
1
1
1
1
1
1
1
1
1
1
1
1
1
1
1
1
1
1
1
1
1
1
1
1
1
1
1
1
1
1
1
1
1
1
1
1
1
1
1
1
1
1
1
1
1
1
1
1
1
1
1
1
1
1
1
1
1
1
1
1
1
1
1
1
1
1
1
1
1
1
1
1
1
1
1
1
1
1
1
1
1
1
1
1
1
1
1
1
1
1
1
1.36068
7.6305
10.4257
10.4581
10.5094
10.5531
10.5929
10.6219
10.6453
10.6709
10.7061
10.7507
10.7999
10.8462
10.8821
10.9072
10.9241
10.9367
10.9515
10.9718
11.0003
11.0359
11.0762
11.1136
11.1428
11.1628
11.1785
11.1943
11.2133
11.2383
11.2684
11.301
11.3323
11.3594
11.3831
11.4044
11.4252
11.4483
11.4722
11.4949
11.5143
11.5317
11.5476
11.5634
11.581
11.6015
11.6243
11.6483
11.6692
11.686
11.7024
11.7196
11.7402
11.7642
11.7877
11.8065
11.8188
11.8257
11.8323
11.8426
11.8575
11.8763
11.8968
11.9174
11.9368
11.9551
11.9713
11.9842
11.9913
11.9912
11.9858
11.9788
11.9753
11.978
11.9869
12.0014
12.0186
12.0353
12.049
12.0588
12.0637
12.0636
12.0607
12.0593
12.0628
12.0723
12.0863
12.1022
12.1168
12.1272
12.1339
1
1
1
1
1
1
1
1
1
1
1
1
1
1
1
1
1
1
1
1
1
1
1
1
1
1
1
1
1
1
1
1
1
1
1
1
1
1
1
1
1
1
1
1
1
1
1
1
1
1
1
1
1
1
1
1
1
1
1
1
1
1
1
1
1
1
1
1
1
1
1
1
1
1
1
1
1
1
1
1
1
1
1
1
1
1
1
1
1
1
1
1
1
1
1
1
1
1
1
1
1
1.31762
7.50109
10.4183
10.4674
10.5149
10.5555
10.5916
10.618
10.6414
10.6698
10.709
10.757
10.8076
10.8532
10.887
10.9093
10.9237
10.9336
10.9469
10.9673
10.9971
11.0339
11.0738
11.11
11.1379
11.1573
11.1745
11.1932
11.2155
11.2423
11.272
11.3017
11.3288
11.3526
11.3752
11.3977
11.4206
11.4457
11.4706
11.4934
11.5126
11.5298
11.5456
11.5612
11.5786
11.598
11.6193
11.6421
11.6629
11.6809
11.6992
11.7184
11.7399
11.7634
11.7853
11.8025
11.8139
11.821
11.8286
11.8401
11.8561
11.8752
11.8956
11.9157
11.9351
11.9536
11.971
11.9855
11.9933
11.993
11.9862
11.9765
11.9693
11.9689
11.9773
11.9938
12.0141
12.0332
12.0478
12.0573
12.0609
12.0597
12.0556
12.0533
12.0564
12.066
12.0811
12.0991
12.1165
12.1296
12.1384
1
1
1
1
1
1
1
1
1
1
1
1
1
1
1
1
1
1
1
1
1
1
1
1
1
1
1
1
1
1
1
1
1
1
1
1
1
1
1
1
1
1
1
1
1
1
1
1
1
1
1
1
1
1
1
1
1
1
1
1
1
1
1
1
1
1
1
1
1
1
1
1
1
1
1
1
1
1
1
1
1
1
1
1
1
1
1
1
1
1
1
1
1
1
1
1
1
1
1
1
1
1.25898
7.33027
10.4213
10.4852
10.519
10.5596
10.5919
10.6172
10.6422
10.6717
10.7109
10.7589
10.81
10.8563
10.8909
10.9126
10.9253
10.9327
10.9435
10.9628
10.9928
11.0306
11.0702
11.1059
11.1334
11.1532
11.172
11.1929
11.2175
11.2451
11.2739
11.3008
11.3244
11.3456
11.3674
11.3906
11.4149
11.4409
11.4661
11.4891
11.5089
11.5269
11.5433
11.5591
11.5763
11.5946
11.6141
11.6356
11.6563
11.6756
11.6958
11.7168
11.7389
11.7614
11.7817
11.797
11.8072
11.8149
11.8242
11.8372
11.8543
11.8734
11.8935
11.9134
11.9327
11.9519
11.9708
11.986
11.9937
11.9932
11.9852
11.9737
11.9641
11.9617
11.9694
11.9865
12.0081
12.0284
12.0438
12.0534
12.0569
12.0552
12.0508
12.0485
12.0517
12.0616
12.0772
12.0962
12.1149
12.1296
12.1396
1
1
1
1
1
1
1
1
1
1
1
1
1
1
1
1
1
1
1
1
1
1
1
1
1
1
1
1
1
1
1
1
1
1
1
1
1
1
1
1
1
1
1
1
1
1
1
1
1
1
1
1
1
1
1
1
1
1
1
1
1
1
1
1
1
1
1
1
1
1
1
1
1
1
1
1
1
1
1
1
1
1
1
1
1
1
1
1
1
1
1
1
1
1
1
1
1
1
1
1
1
1.17764
7.10514
10.4396
10.5055
10.5284
10.5602
10.5892
10.6185
10.6481
10.6779
10.7131
10.7573
10.8066
10.8537
10.8911
10.915
10.9278
10.9337
10.9421
10.959
10.9876
11.0251
11.0646
11.1006
11.1292
11.1507
11.1709
11.1931
11.2183
11.2457
11.2733
11.2982
11.3195
11.3395
11.3612
11.3849
11.4096
11.4353
11.4598
11.4825
11.5029
11.5218
11.5391
11.556
11.5737
11.5916
11.61
11.6307
11.6509
11.6706
11.6917
11.714
11.7365
11.7583
11.7774
11.7915
11.8009
11.8089
11.8192
11.8335
11.8514
11.8705
11.8906
11.9107
11.9303
11.9502
11.9699
11.985
11.9921
11.991
11.9824
11.9703
11.96
11.9568
11.9637
11.9799
12.0009
12.0213
12.0371
12.0472
12.0515
12.0503
12.0466
12.0452
12.0491
12.0591
12.0744
12.0931
12.1118
12.1267
12.137
1
1
1
1
1
1
1
1
1
1
1
1
1
1
1
1
1
1
1
1
1
1
1
1
1
1
1
1
1
1
1
1
1
1
1
1
1
1
1
1
1
1
1
1
1
1
1
1
1
1
1
1
1
1
1
1
1
1
1
1
1
1
1
1
1
1
1
1
1
1
1
1
1
1
1
1
1
1
1
1
1
1
1
1
1
1
1
1
1
1
1
1
1
1
1
1
1
1
1
1
1
1.07205
6.89336
10.4793
10.5083
10.5283
10.5549
10.5872
10.6234
10.658
10.6881
10.718
10.7555
10.8001
10.8463
10.8862
10.9138
10.9291
10.9353
10.9419
10.9563
10.982
11.0178
11.0568
11.0938
11.1247
11.1491
11.1708
11.1934
11.2176
11.2438
11.2704
11.2943
11.3151
11.3349
11.3568
11.3806
11.4051
11.4297
11.4531
11.4751
11.4954
11.5147
11.5331
11.5519
11.571
11.5893
11.6076
11.6284
11.648
11.6668
11.6872
11.7094
11.732
11.7535
11.7724
11.7865
11.796
11.8041
11.8143
11.8285
11.8462
11.8653
11.8858
11.907
11.928
11.9486
11.9681
11.9824
11.9883
11.9862
11.9774
11.9658
11.9566
11.954
11.9602
11.9745
11.9933
12.0124
12.0282
12.0389
12.0445
12.0449
12.0432
12.0436
12.0485
12.0582
12.0723
12.0894
12.1069
12.1211
12.131
1
1
1
1
1
1
1
1
1
1
1
1
1
1
1
1
1
1
1
1
1
1
1
1
1
1
1
1
1
1
1
1
1
1
1
1
1
1
1
1
1
1
1
1
1
1
1
1
1
1
1
1
1
1
1
1
1
1
1
1
1
1
1
1
1
1
1
1
1
1
1
1
1
1
1
1
1
1
1
1
1
1
1
1
1
1
1
1
1
1
1
1
1
1
1
1
1
1
1
1
1
1.00244
6.65321
10.5007
10.5046
10.5224
10.5559
10.5935
10.6317
10.667
10.6971
10.724
10.7566
10.7959
10.8388
10.8784
10.9091
10.9281
10.9365
10.9426
10.9547
10.9768
11.0094
11.0472
11.0854
11.1193
11.147
11.1706
11.193
11.2159
11.2406
11.2661
11.2898
11.311
11.3313
11.3534
11.3769
11.4006
11.4243
11.4469
11.4682
11.4882
11.5071
11.5262
11.5467
11.5679
11.5875
11.6066
11.6281
11.6472
11.6644
11.6827
11.7032
11.7253
11.7471
11.7668
11.782
11.7926
11.801
11.8105
11.8232
11.8391
11.8575
11.8787
11.9019
11.9254
11.9475
11.9665
11.9789
11.9827
11.979
11.9702
11.9602
11.9535
11.9529
11.9587
11.9704
11.9861
12.0028
12.0179
12.0292
12.0365
12.0393
12.0405
12.0432
12.049
12.058
12.0701
12.0848
12.1001
12.1132
12.1221
1
1
1
1
1
1
1
1
1
1
1
1
1
1
1
1
1
1
1
1
1
1
1
1
1
1
1
1
1
1
1
1
1
1
1
1
1
1
1
1
1
1
1
1
1
1
1
1
1
1
1
1
1
1
1
1
1
1
1
1
1
1
1
1
1
1
1
1
1
1
1
1
1
1
1
1
1
1
1
1
1
1
1
1
1
1
1
1
1
1
1
1
1
1
1
1
1
1
1
1
1
1.00001
6.38398
10.4888
10.5089
10.5256
10.5632
10.6003
10.6365
10.6709
10.7014
10.7282
10.7584
10.7945
10.8334
10.8707
10.9029
10.925
10.9364
10.9431
10.9536
10.9726
11.0014
11.0373
11.0763
11.1128
11.1436
11.1688
11.1911
11.2128
11.2362
11.2611
11.2853
11.3071
11.3278
11.3495
11.3723
11.3951
11.4183
11.4411
11.4628
11.4827
11.501
11.5197
11.5409
11.5637
11.5852
11.6061
11.6286
11.6472
11.6629
11.6789
11.6968
11.7174
11.7392
11.7601
11.7772
11.7898
11.7993
11.8083
11.8186
11.8314
11.8478
11.869
11.8945
11.9214
11.9459
11.9645
11.9749
11.976
11.9702
11.9611
11.9531
11.9499
11.9519
11.9579
11.9674
11.9796
11.9933
12.0071
12.0191
12.0283
12.0338
12.0381
12.0431
12.0497
12.0576
12.0673
12.079
12.0918
12.1036
12.1117
1
1
1
1
1
1
1
1
1
1
1
1
1
1
1
1
1
1
1
1
1
1
1
1
1
1
1
1
1
1
1
1
1
1
1
1
1
1
1
1
1
1
1
1
1
1
1
1
1
1
1
1
1
1
1
1
1
1
1
1
1
1
1
1
1
1
1
1
1
1
1
1
1
1
1
1
1
1
1
1
1
1
1
1
1
1
1
1
1
1
1
1
1
1
1
1
1
1
1
1
1
1
6.10612
10.4659
10.5146
10.5295
10.5674
10.6016
10.6359
10.6696
10.7011
10.7292
10.7594
10.7941
10.8298
10.8645
10.8961
10.9199
10.9341
10.9425
10.9524
10.9691
10.9949
11.029
11.0681
11.1059
11.1384
11.1647
11.1868
11.2077
11.2309
11.2563
11.2815
11.304
11.3246
11.3451
11.3662
11.388
11.4114
11.4356
11.4589
11.4796
11.4975
11.5153
11.5356
11.5585
11.5813
11.6042
11.6279
11.6469
11.6619
11.6765
11.6919
11.7098
11.7302
11.7515
11.7705
11.786
11.7976
11.8071
11.8154
11.8247
11.8375
11.8573
11.8842
11.9147
11.9425
11.9616
11.9705
11.9691
11.9609
11.951
11.945
11.945
11.9497
11.9565
11.9646
11.9739
11.9847
11.9971
12.0098
12.0207
12.0286
12.0354
12.0421
12.0491
12.0558
12.063
12.072
12.0825
12.0933
12.1005
1
1
1
1
1
1
1
1
1
1
1
1
1
1
1
1
1
1
1
1
1
1
1
1
1
1
1
1
1
1
1
1
1
1
1
1
1
1
1
1
1
1
1
1
1
1
1
1
1
1
1
1
1
1
1
1
1
1
1
1
1
1
1
1
1
1
1
1
1
1
1
1
1
1
1
1
1
1
1
1
1
1
1
1
1
1
1
1
1
1
1
1
1
1
1
1
1
1
1
1
1
1
5.81867
10.4369
10.5147
10.5274
10.5649
10.5974
10.6301
10.6639
10.6976
10.7283
10.7598
10.7939
10.8275
10.8601
10.8892
10.9134
10.9296
10.9399
10.9501
10.9657
10.9897
11.0229
11.0617
11.0996
11.1319
11.158
11.1797
11.2006
11.225
11.2518
11.2785
11.3019
11.3219
11.3403
11.3591
11.3794
11.403
11.4292
11.4549
11.4773
11.4957
11.5131
11.532
11.5534
11.5758
11.5998
11.6246
11.6452
11.6614
11.6758
11.6895
11.7039
11.7211
11.741
11.7613
11.7798
11.7948
11.8061
11.8138
11.8202
11.8286
11.8452
11.8716
11.9045
11.9359
11.957
11.9656
11.9627
11.9524
11.9415
11.9363
11.9385
11.9453
11.9534
11.9611
11.9686
11.9775
11.9889
12.002
12.0141
12.0237
12.032
12.0394
12.046
12.0516
12.0569
12.0639
12.0728
12.0827
12.0893
1
1
1
1
1
1
1
1
1
1
1
1
1
1
1
1
1
1
1
1
1
1
1
1
1
1
1
1
1
1
1
1
1
1
1
1
1
1
1
1
1
1
1
1
1
1
1
1
1
1
1
1
1
1
1
1
1
1
1
1
1
1
1
1
1
1
1
1
1
1
1
1
1
1
1
1
1
1
1
1
1
1
1
1
1
1
1
1
1
1
1
1
1
1
1
1
1
1
1
1
1
1
5.52192
10.4018
10.5075
10.5191
10.5577
10.59
10.6229
10.6568
10.6921
10.7252
10.7585
10.7929
10.8259
10.8568
10.8829
10.9062
10.9234
10.9353
10.9463
10.9619
10.9857
11.0189
11.0572
11.0938
11.1244
11.1492
11.1701
11.1918
11.2186
11.2477
11.276
11.3002
11.3195
11.3358
11.3521
11.3703
11.394
11.4219
11.45
11.4748
11.4949
11.5128
11.5306
11.55
11.5702
11.593
11.618
11.6411
11.66
11.676
11.6888
11.6997
11.7124
11.729
11.7489
11.7702
11.7898
11.8048
11.8134
11.8179
11.8223
11.8342
11.8579
11.8912
11.9255
11.9495
11.9594
11.9564
11.945
11.933
11.9276
11.9304
11.9385
11.9479
11.956
11.9633
11.9718
11.983
11.9962
12.0086
12.019
12.0276
12.0345
12.0401
12.0446
12.0491
12.0552
12.0633
12.0724
12.0785
1
1
1
1
1
1
1
1
1
1
1
1
1
1
1
1
1
1
1
1
1
1
1
1
1
1
1
1
1
1
1
1
1
1
1
1
1
1
1
1
1
1
1
1
1
1
1
1
1
1
1
1
1
1
1
1
1
1
1
1
1
1
1
1
1
1
1
1
1
1
1
1
1
1
1
1
1
1
1
1
1
1
1
1
1
1
1
1
1
1
1
1
1
1
1
1
1
1
1
1
1
1
5.21216
10.3561
10.5011
10.5113
10.5498
10.5813
10.6145
10.6488
10.6856
10.7205
10.7555
10.7907
10.8242
10.8538
10.8777
10.8992
10.9166
10.9293
10.9415
10.9578
10.9824
11.0159
11.0533
11.0879
11.1164
11.1394
11.1593
11.1826
11.2113
11.243
11.2728
11.2978
11.3166
11.3313
11.3458
11.3626
11.3861
11.4144
11.4438
11.4706
11.4927
11.5119
11.5295
11.5472
11.5647
11.5852
11.6098
11.635
11.6572
11.6755
11.6885
11.6966
11.7046
11.7171
11.7351
11.7582
11.7825
11.802
11.8129
11.8166
11.818
11.8253
11.845
11.8764
11.9117
11.9386
11.9513
11.95
11.939
11.9265
11.9198
11.9216
11.9296
11.9398
11.9491
11.9577
11.9673
11.9791
11.992
12.0041
12.0142
12.0217
12.027
12.0312
12.0349
12.0393
12.0457
12.0537
12.062
12.0678
1
1
1
1
1
1
1
1
1
1
1
1
1
1
1
1
1
1
1
1
1
1
1
1
1
1
1
1
1
1
1
1
1
1
1
1
1
1
1
1
1
1
1
1
1
1
1
1
1
1
1
1
1
1
1
1
1
1
1
1
1
1
1
1
1
1
1
1
1
1
1
1
1
1
1
1
1
1
1
1
1
1
1
1
1
1
1
1
1
1
1
1
1
1
1
1
1
1
1
1
1
1
4.89098
10.3053
10.4837
10.4998
10.5392
10.5712
10.6063
10.6418
10.6796
10.7158
10.7519
10.7873
10.8213
10.8502
10.8729
10.8931
10.9101
10.9234
10.9365
10.9536
10.9792
11.0126
11.0486
11.0811
11.1077
11.129
11.1487
11.1736
11.2035
11.2369
11.2679
11.2933
11.312
11.3264
11.3402
11.3567
11.3801
11.4081
11.4372
11.4646
11.4882
11.5089
11.5273
11.5443
11.5595
11.5778
11.6014
11.6273
11.6521
11.6728
11.6864
11.6927
11.697
11.7061
11.7221
11.7458
11.7732
11.7967
11.8103
11.8144
11.8147
11.8187
11.8342
11.862
11.896
11.9245
11.9403
11.9423
11.9336
11.9216
11.9134
11.9129
11.9191
11.9292
11.9401
11.9511
11.9631
11.9762
11.989
12.0003
12.0091
12.0145
12.0176
12.02
12.0231
12.0282
12.0355
12.044
12.0518
12.0576
1
1
1
1
1
1
1
1
1
1
1
1
1
1
1
1
1
1
1
1
1
1
1
1
1
1
1
1
1
1
1
1
1
1
1
1
1
1
1
1
1
1
1
1
1
1
1
1
1
1
1
1
1
1
1
1
1
1
1
1
1
1
1
1
1
1
1
1
1
1
1
1
1
1
1
1
1
1
1
1
1
1
1
1
1
1
1
1
1
1
1
1
1
1
1
1
1
1
1
1
1
1
4.56896
10.2307
10.468
10.4869
10.5291
10.5628
10.5997
10.6358
10.6737
10.7109
10.7477
10.7832
10.8173
10.8457
10.868
10.8877
10.9042
10.9176
10.931
10.9488
10.9747
11.0075
11.0419
11.0728
11.0982
11.119
11.1401
11.1655
11.1964
11.2301
11.2613
11.2864
11.305
11.3201
11.3348
11.3522
11.3762
11.4037
11.4316
11.4579
11.4816
11.5032
11.5227
11.5398
11.5541
11.5713
11.5939
11.6191
11.6441
11.6658
11.6801
11.686
11.6891
11.6969
11.7124
11.7362
11.7643
11.7888
11.804
11.8093
11.8106
11.8135
11.8258
11.8493
11.88
11.908
11.9261
11.9324
11.9278
11.9177
11.9083
11.905
11.9082
11.9169
11.9294
11.9434
11.9584
11.9733
11.9863
11.9964
12.0033
12.0063
12.0069
12.0075
12.0101
12.016
12.0246
12.034
12.0413
12.0473
1
1
1
1
1
1
1
1
1
1
1
1
1
1
1
1
1
1
1
1
1
1
1
1
1
1
1
1
1
1
1
1
1
1
1
1
1
1
1
1
1
1
1
1
1
1
1
1
1
1
1
1
1
1
1
1
1
1
1
1
1
1
1
1
1
1
1
1
1
1
1
1
1
1
1
1
1
1
1
1
1
1
1
1
1
1
1
1
1
1
1
1
1
1
1
1
1
1
1
1
1
1
4.23798
10.1322
10.462
10.4777
10.5206
10.5548
10.5925
10.6295
10.6681
10.7063
10.7429
10.7778
10.8112
10.8397
10.8625
10.8824
10.8989
10.9125
10.926
10.9439
10.9692
11.0005
11.0331
11.063
11.0882
11.11
11.1328
11.1582
11.1895
11.2231
11.2535
11.2775
11.2959
11.3117
11.3282
11.3477
11.373
11.4007
11.4275
11.4521
11.4745
11.4958
11.5156
11.5329
11.5479
11.5652
11.5874
11.6111
11.634
11.6544
11.6686
11.6752
11.68
11.6896
11.7068
11.7308
11.7571
11.7792
11.7934
11.8
11.8039
11.8083
11.8193
11.8392
11.8652
11.8906
11.9096
11.9199
11.9206
11.9136
11.9042
11.898
11.8976
11.9043
11.9177
11.9345
11.9523
11.9692
11.9825
11.9912
11.9963
11.9974
11.9958
11.9947
11.9968
12.0033
12.0129
12.023
12.03
12.0365
1
1
1
1
1
1
1
1
1
1
1
1
1
1
1
1
1
1
1
1
1
1
1
1
1
1
1
1
1
1
1
1
1
1
1
1
1
1
1
1
1
1
1
1
1
1
1
1
1
1
1
1
1
1
1
1
1
1
1
1
1
1
1
1
1
1
1
1
1
1
1
1
1
1
1
1
1
1
1
1
1
1
1
1
1
1
1
1
1
1
1
1
1
1
1
1
1
1
1
1
1
1
3.89105
10.0081
10.4626
10.4726
10.5149
10.5499
10.5875
10.6239
10.6619
10.7001
10.7358
10.7703
10.8037
10.8331
10.8568
10.8772
10.8939
10.9075
10.9209
10.9386
10.9627
10.9921
11.0232
11.0527
11.0784
11.102
11.1253
11.1513
11.183
11.2162
11.2457
11.2691
11.287
11.3029
11.3202
11.3413
11.3678
11.396
11.4226
11.4462
11.4672
11.4872
11.5063
11.5238
11.5403
11.559
11.5815
11.603
11.622
11.6388
11.6515
11.6599
11.6692
11.6836
11.705
11.7296
11.7525
11.7696
11.7802
11.787
11.794
11.8021
11.814
11.8312
11.8522
11.8734
11.8917
11.9049
11.9108
11.9081
11.8998
11.8916
11.8881
11.8924
11.9056
11.9244
11.9446
11.963
11.9763
11.984
11.9877
11.9875
11.9848
11.9826
11.9841
11.9906
12.0005
12.0111
12.0179
12.0249
1
1
1
1
1
1
1
1
1
1
1
1
1
1
1
1
1
1
1
1
1
1
1
1
1
1
1
1
1
1
1
1
1
1
1
1
1
1
1
1
1
1
1
1
1
1
1
1
1
1
1
1
1
1
1
1
1
1
1
1
1
1
1
1
1
1
1
1
1
1
1
1
1
1
1
1
1
1
1
1
1
1
1
1
1
1
1
1
1
1
1
1
1
1
1
1
1
1
1
1
1
1
3.53467
9.85338
10.4655
10.4708
10.5097
10.5456
10.5827
10.6183
10.6554
10.6926
10.7274
10.7619
10.7958
10.8262
10.8507
10.8714
10.888
10.9017
10.9153
10.9327
10.9556
10.9835
11.0136
11.0429
11.0695
11.0942
11.1178
11.1444
11.1759
11.2085
11.2377
11.2613
11.2794
11.2953
11.3124
11.3337
11.3604
11.3891
11.4164
11.4403
11.4606
11.4792
11.4969
11.514
11.5316
11.552
11.5749
11.5942
11.6089
11.6208
11.6306
11.6405
11.6563
11.678
11.7048
11.7304
11.7495
11.7604
11.7659
11.7717
11.7814
11.794
11.8083
11.8241
11.8407
11.8572
11.8736
11.8882
11.8982
11.9003
11.8942
11.8852
11.8794
11.8815
11.8939
11.9139
11.9354
11.9542
11.9675
11.9747
11.9774
11.9768
11.9741
11.9716
11.9725
11.9782
11.9876
11.998
12.0045
12.0118
1
1
1
1
1
1
1
1
1
1
1
1
1
1
1
1
1
1
1
1
1
1
1
1
1
1
1
1
1
1
1
1
1
1
1
1
1
1
1
1
1
1
1
1
1
1
1
1
1
1
1
1
1
1
1
1
1
1
1
1
1
1
1
1
1
1
1
1
1
1
1
1
1
1
1
1
1
1
1
1
1
1
1
1
1
1
1
1
1
1
1
1
1
1
1
1
1
1
1
1
1
1
3.18037
9.66511
10.4674
10.4702
10.5055
10.5417
10.5769
10.6119
10.6485
10.6841
10.7184
10.753
10.7875
10.8184
10.8434
10.8639
10.8807
10.895
10.9094
10.9268
10.949
10.9757
11.0052
11.0346
11.0623
11.0873
11.1104
11.1363
11.1669
11.199
11.2286
11.2532
11.2725
11.2887
11.3049
11.3248
11.3503
11.3788
11.4072
11.4326
11.4536
11.4714
11.4879
11.5044
11.5225
11.5443
11.5671
11.5845
11.5956
11.6021
11.6082
11.6191
11.6406
11.6703
11.7036
11.7307
11.7463
11.7519
11.7527
11.7565
11.7678
11.7845
11.8018
11.817
11.8302
11.8424
11.8561
11.8707
11.8833
11.8894
11.8864
11.8778
11.871
11.8717
11.8829
11.9028
11.9244
11.943
11.9559
11.9626
11.9647
11.9647
11.9631
11.9614
11.962
11.9665
11.9745
11.9839
11.9899
11.997
1
1
1
1
1
1
1
1
1
1
1
1
1
1
1
1
1
1
1
1
1
1
1
1
1
1
1
1
1
1
1
1
1
1
1
1
1
1
1
1
1
1
1
1
1
1
1
1
1
1
1
1
1
1
1
1
1
1
1
1
1
1
1
1
1
1
1
1
1
1
1
1
1
1
1
1
1
1
1
1
1
1
1
1
1
1
1
1
1
1
1
1
1
1
1
1
1
1
1
1
1
1
2.82826
9.44075
10.4677
10.468
10.502
10.5363
10.5713
10.6062
10.6414
10.675
10.709
10.7438
10.779
10.8105
10.8357
10.8556
10.872
10.8867
10.9019
10.9199
10.9419
10.968
10.9969
11.027
11.0562
11.0816
11.1039
11.1282
11.1566
11.1875
11.2176
11.2438
11.2651
11.282
11.2974
11.3151
11.338
11.365
11.3941
11.4215
11.4446
11.4632
11.4795
11.4956
11.5138
11.5361
11.5578
11.5731
11.5813
11.5838
11.587
11.5986
11.6236
11.6592
11.6977
11.727
11.7409
11.7431
11.7407
11.743
11.7549
11.7741
11.7937
11.809
11.8199
11.8288
11.8399
11.8537
11.8671
11.8757
11.8759
11.8686
11.8621
11.8623
11.8725
11.8915
11.9123
11.93
11.9421
11.9481
11.9502
11.9514
11.9518
11.9518
11.9525
11.9556
11.9615
11.9691
11.9744
11.9809
1
1
1
1
1
1
1
1
1
1
1
1
1
1
1
1
1
1
1
1
1
1
1
1
1
1
1
1
1
1
1
1
1
1
1
1
1
1
1
1
1
1
1
1
1
1
1
1
1
1
1
1
1
1
1
1
1
1
1
1
1
1
1
1
1
1
1
1
1
1
1
1
1
1
1
1
1
1
1
1
1
1
1
1
1
1
1
1
1
1
1
1
1
1
1
1
1
1
1
1
1
1
2.48097
9.17619
10.4691
10.4681
10.5006
10.5331
10.5666
10.6002
10.6336
10.6661
10.6997
10.7347
10.7708
10.8029
10.8279
10.8471
10.863
10.8783
10.895
10.9138
10.9354
10.9604
10.989
11.0205
11.0512
11.0771
11.099
11.1211
11.1463
11.1749
11.2048
11.2327
11.2561
11.2745
11.2897
11.3055
11.3256
11.3501
11.3784
11.407
11.4323
11.4529
11.4705
11.4876
11.5063
11.5281
11.5477
11.5603
11.5662
11.5666
11.5687
11.5809
11.6071
11.6452
11.6864
11.7175
11.7316
11.7329
11.7301
11.7322
11.7442
11.7638
11.7839
11.799
11.8086
11.8157
11.8249
11.8373
11.8503
11.8601
11.8625
11.8572
11.8519
11.8526
11.8622
11.88
11.8994
11.9157
11.9264
11.9314
11.9338
11.9367
11.9396
11.9418
11.9432
11.945
11.9485
11.9538
11.9582
11.9638
1
1
1
1
1
1
1
1
1
1
1
1
1
1
1
1
1
1
1
1
1
1
1
1
1
1
1
1
1
1
1
1
1
1
1
1
1
1
1
1
1
1
1
1
1
1
1
1
1
1
1
1
1
1
1
1
1
1
1
1
1
1
1
1
1
1
1
1
1
1
1
1
1
1
1
1
1
1
1
1
1
1
1
1
1
1
1
1
1
1
1
1
1
1
1
1
1
1
1
1
1
1
2.15188
8.86488
10.4621
10.4643
10.4958
10.5293
10.5626
10.5948
10.6256
10.6565
10.6893
10.7249
10.7619
10.7945
10.8193
10.838
10.8538
10.8701
10.8884
10.9076
10.9283
10.9521
10.9803
11.013
11.0458
11.0732
11.0948
11.1149
11.1371
11.1632
11.1919
11.2205
11.2451
11.2649
11.2804
11.2955
11.3136
11.3359
11.3623
11.3901
11.4164
11.4394
11.4598
11.4795
11.4996
11.5205
11.5371
11.5466
11.5505
11.5506
11.5539
11.5674
11.5936
11.6306
11.6707
11.7013
11.7165
11.7199
11.7198
11.7234
11.7355
11.7538
11.7727
11.787
11.7961
11.8024
11.8109
11.8226
11.8344
11.8438
11.8469
11.8433
11.8399
11.8418
11.8515
11.8682
11.8858
11.9004
11.9092
11.913
11.9161
11.9208
11.9264
11.9309
11.9331
11.9338
11.9352
11.9384
11.9418
11.9464
1
1
1
1
1
1
1
1
1
1
1
1
1
1
1
1
1
1
1
1
1
1
1
1
1
1
1
1
1
1
1
1
1
1
1
1
1
1
1
1
1
1
1
1
1
1
1
1
1
1
1
1
1
1
1
1
1
1
1
1
1
1
1
1
1
1
1
1
1
1
1
1
1
1
1
1
1
1
1
1
1
1
1
1
1
1
1
1
1
1
1
1
1
1
1
1
1
1
1
1
1
1
1.85685
8.50569
10.4597
10.4651
10.4918
10.5253
10.5578
10.5888
10.6179
10.6471
10.6788
10.7146
10.7517
10.7849
10.8104
10.8292
10.8454
10.8627
10.8815
10.9007
10.9204
10.9434
10.9712
11.0048
11.0384
11.0669
11.0887
11.1076
11.1282
11.1528
11.1806
11.2084
11.2326
11.2527
11.2692
11.2849
11.3029
11.3238
11.3479
11.3731
11.3982
11.4223
11.4462
11.4699
11.4925
11.5128
11.5261
11.5322
11.5342
11.5353
11.5412
11.5567
11.5826
11.6164
11.6524
11.6806
11.6969
11.7038
11.7082
11.7154
11.7281
11.7444
11.7609
11.7737
11.7823
11.7888
11.7977
11.8092
11.8196
11.8272
11.8297
11.8271
11.8257
11.8297
11.8403
11.856
11.8717
11.8839
11.8905
11.8936
11.8975
11.9041
11.912
11.9184
11.9212
11.9213
11.9211
11.9227
11.9258
11.9296
1
1
1
1
1
1
1
1
1
1
1
1
1
1
1
1
1
1
1
1
1
1
1
1
1
1
1
1
1
1
1
1
1
1
1
1
1
1
1
1
1
1
1
1
1
1
1
1
1
1
1
1
1
1
1
1
1
1
1
1
1
1
1
1
1
1
1
1
1
1
1
1
1
1
1
1
1
1
1
1
1
1
1
1
1
1
1
1
1
1
1
1
1
1
1
1
1
1
1
1
1
1
1.59064
8.08989
10.4551
10.4629
10.486
10.5167
10.5494
10.58
10.6086
10.6373
10.6684
10.7037
10.7412
10.7752
10.8019
10.8216
10.8387
10.8571
10.8755
10.8935
10.9119
10.9345
10.9632
10.9976
11.0307
11.058
11.08
11.0994
11.1202
11.1451
11.1727
11.1991
11.2209
11.2389
11.2554
11.2724
11.2918
11.3133
11.3359
11.3581
11.3806
11.4043
11.4306
11.4584
11.484
11.5038
11.5141
11.5168
11.5174
11.5201
11.5297
11.5479
11.5735
11.6037
11.634
11.6585
11.6746
11.6852
11.6952
11.7065
11.7203
11.7343
11.7476
11.7581
11.7662
11.7738
11.7846
11.7969
11.8063
11.8114
11.8121
11.8094
11.8097
11.816
11.8281
11.8429
11.8566
11.866
11.8703
11.8734
11.8785
11.8869
11.8966
11.904
11.907
11.9066
11.9058
11.907
11.9103
11.914
1
1
1
1
1
1
1
1
1
1
1
1
1
1
1
1
1
1
1
1
1
1
1
1
1
1
1
1
1
1
1
1
1
1
1
1
1
1
1
1
1
1
1
1
1
1
1
1
1
1
1
1
1
1
1
1
1
1
1
1
1
1
1
1
1
1
1
1
1
1
1
1
1
1
1
1
1
1
1
1
1
1
1
1
1
1
1
1
1
1
1
1
1
1
1
1
1
1
1
1
1
1
1.36143
7.63854
10.4453
10.4541
10.4771
10.505
10.5364
10.5677
10.5983
10.6295
10.6627
10.6974
10.7326
10.7653
10.792
10.8129
10.8317
10.8499
10.866
10.8826
10.9015
10.926
10.9573
10.9924
11.0229
11.0469
11.0682
11.0891
11.1122
11.1391
11.1671
11.1915
11.2099
11.2247
11.2401
11.2584
11.2805
11.3039
11.3261
11.346
11.3655
11.3877
11.4149
11.4451
11.4726
11.4918
11.5
11.5005
11.5004
11.5052
11.5185
11.5393
11.5647
11.5918
11.6167
11.6373
11.6522
11.6655
11.6804
11.6956
11.7106
11.7229
11.733
11.7411
11.7488
11.7584
11.7719
11.7855
11.7943
11.7969
11.7946
11.7908
11.7918
11.8004
11.8141
11.8283
11.8398
11.8464
11.8495
11.8529
11.8597
11.8698
11.8802
11.8875
11.89
11.8894
11.8889
11.8909
11.8953
11.8996
1
1
1
1
1
1
1
1
1
1
1
1
1
1
1
1
1
1
1
1
1
1
1
1
1
1
1
1
1
1
1
1
1
1
1
1
1
1
1
1
1
1
1
1
1
1
1
1
1
1
1
1
1
1
1
1
1
1
1
1
1
1
1
1
1
1
1
1
1
1
1
1
1
1
1
1
1
1
1
1
1
1
1
1
1
1
1
1
1
1
1
1
1
1
1
1
1
1
1
1
1
1
1.14681
7.1325
10.4371
10.4452
10.4707
10.5022
10.5325
10.5623
10.592
10.623
10.6551
10.6881
10.7218
10.7545
10.7828
10.806
10.825
10.8403
10.8533
10.8696
10.8906
10.9189
10.9531
10.9875
11.0144
11.0346
11.0544
11.0768
11.1031
11.1328
11.1616
11.1845
11.1995
11.211
11.2247
11.2435
11.2682
11.2941
11.317
11.336
11.3537
11.3745
11.4012
11.4313
11.4583
11.4762
11.4833
11.4833
11.484
11.491
11.507
11.5296
11.5549
11.5797
11.6006
11.6179
11.6318
11.6465
11.6646
11.6822
11.6979
11.709
11.7165
11.7225
11.7301
11.742
11.7586
11.7739
11.7822
11.7826
11.7775
11.7722
11.7735
11.7835
11.7983
11.8118
11.8211
11.8257
11.8282
11.8326
11.8412
11.8525
11.8626
11.8687
11.8703
11.8698
11.8706
11.8744
11.8804
11.886
1
1
1
1
1
1
1
1
1
1
1
1
1
1
1
1
1
1
1
1
1
1
1
1
1
1
1
1
1
1
1
1
1
1
1
1
1
1
1
1
1
1
1
1
1
1
1
1
1
1
1
1
1
1
1
1
1
1
1
1
1
1
1
1
1
1
1
1
1
1
1
1
1
1
1
1
1
1
1
1
1
1
1
1
1
1
1
1
1
1
1
1
1
1
1
1
1
1
1
1
1
1
1.00686
6.57501
10.3758
10.4211
10.4504
10.4862
10.5209
10.5546
10.5867
10.6186
10.6489
10.6794
10.7114
10.744
10.7737
10.7974
10.8149
10.8276
10.8392
10.8565
10.8805
10.9127
10.9485
10.9814
11.0053
11.0227
11.0414
11.0647
11.0931
11.1242
11.1528
11.1742
11.1868
11.1968
11.2102
11.2298
11.2562
11.2838
11.3076
11.3265
11.3436
11.3638
11.3895
11.4178
11.4422
11.4579
11.4648
11.4659
11.4691
11.478
11.4951
11.5182
11.5428
11.566
11.5848
11.6005
11.6139
11.6293
11.6485
11.6665
11.6822
11.6922
11.6979
11.7028
11.7107
11.725
11.7443
11.7613
11.7697
11.7685
11.7612
11.7547
11.7555
11.7656
11.7801
11.7926
11.8002
11.8037
11.8065
11.8126
11.8229
11.8346
11.8435
11.8478
11.8486
11.8487
11.8514
11.8576
11.8652
11.8723
1
1
1
1
1
1
1
1
1
1
1
1
1
1
1
1
1
1
1
1
1
1
1
1
1
1
1
1
1
1
1
1
1
1
1
1
1
1
1
1
1
1
1
1
1
1
1
1
1
1
1
1
1
1
1
1
1
1
1
1
1
1
1
1
1
1
1
1
1
1
1
1
1
1
1
1
1
1
1
1
1
1
1
1
1
1
1
1
1
1
1
1
1
1
1
1
1
1
1
1
1
1
1.00005
5.93093
10.2738
10.4063
10.4373
10.4764
10.5132
10.5482
10.5813
10.6118
10.6394
10.6679
10.6993
10.7323
10.7629
10.7859
10.8018
10.813
10.8243
10.8438
10.8713
10.9065
10.942
10.9714
10.9925
11.0099
11.0296
11.0537
11.082
11.1118
11.1384
11.1584
11.1714
11.1826
11.1978
11.2192
11.2459
11.2727
11.296
11.3152
11.3331
11.354
11.379
11.4047
11.4257
11.4391
11.4461
11.4497
11.4557
11.4664
11.483
11.5048
11.528
11.5502
11.5687
11.5846
11.5984
11.6142
11.6326
11.6488
11.663
11.6718
11.6768
11.6819
11.6908
11.7073
11.7286
11.7468
11.7556
11.754
11.7457
11.7385
11.7383
11.7468
11.7596
11.7705
11.7772
11.7808
11.785
11.7931
11.8048
11.8159
11.8228
11.8252
11.8254
11.8267
11.8316
11.84
11.8488
11.8572
1
1
1
1
1
1
1
1
1
1
1
1
1
1
1
1
1
1
1
1
1
1
1
1
1
1
1
1
1
1
1
1
1
1
1
1
1
1
1
1
1
1
1
1
1
1
1
1
1
1
1
1
1
1
1
1
1
1
1
1
1
1
1
1
1
1
1
1
1
1
1
1
1
1
1
1
1
1
1
1
1
1
1
1
1
1
1
1
1
1
1
1
1
1
1
1
1
1
1
1
1
1
1
5.24563
10.1618
10.3937
10.4264
10.4675
10.5068
10.544
10.5768
10.6045
10.6296
10.6549
10.6847
10.7178
10.7493
10.7728
10.7897
10.8019
10.8141
10.833
10.8597
10.8933
10.9266
10.955
10.9784
10.9994
11.0212
11.0452
11.0711
11.0966
11.1196
11.1382
11.1538
11.169
11.1881
11.2118
11.2375
11.2613
11.2822
11.3012
11.3207
11.3433
11.368
11.3915
11.4093
11.4207
11.4283
11.4349
11.4438
11.4557
11.4708
11.49
11.511
11.5324
11.5518
11.5692
11.5844
11.6002
11.6163
11.6291
11.6407
11.6484
11.654
11.6607
11.6714
11.6895
11.7114
11.7297
11.739
11.7381
11.7305
11.7233
11.7216
11.7274
11.7372
11.7462
11.7525
11.7572
11.7636
11.7738
11.7859
11.7957
11.8004
11.8014
11.8017
11.8046
11.8116
11.8216
11.8306
11.8398
1
1
1
1
1
1
1
1
1
1
1
1
1
1
1
1
1
1
1
1
1
1
1
1
1
1
1
1
1
1
1
1
1
1
1
1
1
1
1
1
1
1
1
1
1
1
1
1
1
1
1
1
1
1
1
1
1
1
1
1
1
1
1
1
1
1
1
1
1
1
1
1
1
1
1
1
1
1
1
1
1
1
1
1
1
1
1
1
1
1
1
1
1
1
1
1
1
1
1
1
1
1
1
4.54194
10.0256
10.389
10.4196
10.4614
10.5005
10.5368
10.5692
10.5937
10.6152
10.639
10.668
10.7015
10.7341
10.7599
10.7797
10.7935
10.8058
10.8229
10.847
10.8771
10.9076
10.9368
10.9654
10.9916
11.0156
11.0383
11.0597
11.0791
11.0968
11.1144
11.1337
11.1557
11.181
11.2073
11.2312
11.2505
11.2673
11.2848
11.3053
11.3296
11.3548
11.3772
11.3932
11.4039
11.4126
11.4221
11.4332
11.4456
11.4583
11.4741
11.4922
11.5127
11.5334
11.5533
11.5703
11.5858
11.5988
11.6077
11.6163
11.6233
11.6305
11.6398
11.6528
11.6715
11.6923
11.7098
11.7192
11.7201
11.7148
11.7085
11.7051
11.7075
11.7137
11.7206
11.7269
11.7333
11.7421
11.7538
11.7657
11.774
11.7769
11.7771
11.7782
11.7827
11.7912
11.8017
11.8098
11.8192
1
1