/*--------------------------------*- C++ -*----------------------------------*\
  =========                 |
  \\      /  F ield         | OpenFOAM: The Open Source CFD Toolbox
   \\    /   O peration     | Website:  https://openfoam.org
    \\  /    A nd           | Version:  7
     \\/     M anipulation  |
\*---------------------------------------------------------------------------*/
FoamFile
{
    version     2.0;
    format      ascii;
    class       volScalarField;
    location    "1.7";
    object      rho;
}
// * * * * * * * * * * * * * * * * * * * * * * * * * * * * * * * * * * * * * //

dimensions      [1 -3 0 0 0 0 0];

internalField   nonuniform List<scalar> 
258048
(
1.40001
1.40001
1.40001
1.40001
1.40001
1.40001
1.40001
1.40001
1.40001
1.40001
1.40001
1.40001
1.40001
1.40001
1.40001
1.40001
1.40001
1.40001
1.40001
1.40001
1.40001
1.40001
1.40001
1.40001
1.40001
1.40001
1.40001
1.40001
1.40001
1.40001
1.40001
1.40001
1.40001
1.40001
1.40001
1.40001
1.40001
1.40001
1.40001
1.40001
1.40001
1.40001
1.40001
1.40001
1.40001
1.40001
1.40001
1.40001
1.40001
1.40001
1.40001
1.40001
1.40001
1.40001
1.40001
1.40001
1.40001
1.40001
1.40001
1.40001
1.40001
1.40001
1.40001
1.40001
1.40001
1.40001
1.40001
1.40001
1.40001
1.40001
1.40001
1.40001
1.40001
1.40001
1.40001
1.40001
1.40001
1.40001
1.40001
1.40001
1.40001
1.40001
1.40001
1.40001
1.40001
1.40001
1.40001
1.40001
1.40001
1.40001
1.40001
1.40001
1.40001
1.40001
1.40001
1.40001
1.40001
1.40001
1.40001
1.40001
1.40001
1.63737
4.48855
5.42113
5.43485
5.45472
5.47695
5.49563
5.50587
5.50725
5.50239
5.49935
5.50551
5.52225
5.54429
5.56555
5.58264
5.59469
5.60242
5.60788
5.61265
5.61769
5.62439
5.63372
5.64409
5.65293
5.66051
5.66642
5.6714
5.67818
5.68818
5.70212
5.71872
5.73582
5.7508
5.7619
5.76877
5.77333
5.77814
5.78516
5.79443
5.80411
5.81247
5.81792
5.81937
5.81771
5.81612
5.81824
5.82588
5.83677
5.84737
5.85824
5.86857
5.87834
5.88814
5.8965
5.90106
5.90191
5.90076
5.89977
5.9013
5.90599
5.91303
5.9206
5.92782
5.935
5.94151
5.94503
5.94504
5.94356
5.94202
5.94101
5.94143
5.9436
5.94699
5.94895
5.94835
5.94707
5.94639
5.94707
5.94846
5.94892
5.94733
5.9431
5.93617
5.92497
5.90562
5.87534
5.83776
5.80343
5.78196
5.77438
1.40001
1.40001
1.40001
1.40001
1.40001
1.40001
1.40001
1.40001
1.40001
1.40001
1.40001
1.40001
1.40001
1.40001
1.40001
1.40001
1.40001
1.40001
1.40001
1.40001
1.40001
1.40001
1.40001
1.40001
1.40001
1.40001
1.40001
1.40001
1.40001
1.40001
1.40001
1.40001
1.40001
1.40001
1.40001
1.40001
1.40001
1.40001
1.40001
1.40001
1.40001
1.40001
1.40001
1.40001
1.40001
1.40001
1.40001
1.40001
1.40001
1.40001
1.40001
1.40001
1.40001
1.40001
1.40001
1.40001
1.40001
1.40001
1.40001
1.40001
1.40001
1.40001
1.40001
1.40001
1.40001
1.40001
1.40001
1.40001
1.40001
1.40001
1.40001
1.40001
1.40001
1.40001
1.40001
1.40001
1.40001
1.40001
1.40001
1.40001
1.40001
1.40001
1.40001
1.40001
1.40001
1.40001
1.40001
1.40001
1.40001
1.40001
1.40001
1.40001
1.40001
1.40001
1.40001
1.40001
1.40001
1.40001
1.40001
1.40001
1.40001
1.63465
4.4819
5.41906
5.43237
5.45355
5.47642
5.49543
5.50595
5.50761
5.50331
5.50108
5.50758
5.52403
5.54539
5.56569
5.58188
5.59357
5.60163
5.6077
5.61284
5.618
5.62476
5.63392
5.64383
5.65235
5.65979
5.66594
5.67146
5.67867
5.68896
5.70301
5.7195
5.73632
5.75091
5.76172
5.76853
5.77323
5.77833
5.78554
5.79467
5.80393
5.81197
5.81738
5.81903
5.81769
5.81636
5.81841
5.82575
5.83615
5.84638
5.85721
5.86775
5.87793
5.88815
5.89677
5.90139
5.90207
5.90058
5.89924
5.90054
5.9052
5.91245
5.92042
5.9281
5.9355
5.94185
5.94517
5.94521
5.94382
5.94224
5.94096
5.94098
5.94279
5.9458
5.94762
5.9474
5.94665
5.94647
5.9474
5.94865
5.94881
5.9469
5.94239
5.93528
5.92389
5.90445
5.87432
5.83723
5.80362
5.78291
5.77593
1.40001
1.40001
1.40001
1.40001
1.40001
1.40001
1.40001
1.40001
1.40001
1.40001
1.40001
1.40001
1.40001
1.40001
1.40001
1.40001
1.40001
1.40001
1.40001
1.40001
1.40001
1.40001
1.40001
1.40001
1.40001
1.40001
1.40001
1.40001
1.40001
1.40001
1.40001
1.40001
1.40001
1.40001
1.40001
1.40001
1.40001
1.40001
1.40001
1.40001
1.40001
1.40001
1.40001
1.40001
1.40001
1.40001
1.40001
1.40001
1.40001
1.40001
1.40001
1.40001
1.40001
1.40001
1.40001
1.40001
1.40001
1.40001
1.40001
1.40001
1.40001
1.40001
1.40001
1.40001
1.40001
1.40001
1.40001
1.40001
1.40001
1.40001
1.40001
1.40001
1.40001
1.40001
1.40001
1.40001
1.40001
1.40001
1.40001
1.40001
1.40001
1.40001
1.40001
1.40001
1.40001
1.40001
1.40001
1.40001
1.40001
1.40001
1.40001
1.40001
1.40001
1.40001
1.40001
1.40001
1.40001
1.40001
1.40001
1.40001
1.40001
1.62846
4.46836
5.41521
5.4294
5.45258
5.4761
5.49519
5.50544
5.50727
5.50408
5.50345
5.51072
5.52698
5.54709
5.56598
5.58101
5.59204
5.60003
5.60638
5.61184
5.61753
5.62454
5.63353
5.64285
5.65095
5.6581
5.66453
5.6708
5.67875
5.68958
5.70384
5.72018
5.73653
5.75056
5.76106
5.7679
5.77285
5.77843
5.786
5.79502
5.8038
5.81138
5.81655
5.81826
5.81735
5.81643
5.81859
5.82569
5.83553
5.84524
5.85592
5.86662
5.87728
5.88803
5.89695
5.90164
5.90211
5.90012
5.89836
5.89953
5.9043
5.91188
5.92033
5.92846
5.93589
5.94185
5.94501
5.94541
5.94455
5.94317
5.94143
5.94054
5.94134
5.9434
5.94511
5.94577
5.94622
5.94701
5.94812
5.94902
5.94863
5.94611
5.94117
5.93378
5.92215
5.90267
5.8729
5.83662
5.80408
5.7844
5.77829
1.40001
1.40001
1.40001
1.40001
1.40001
1.40001
1.40001
1.40001
1.40001
1.40001
1.40001
1.40001
1.40001
1.40001
1.40001
1.40001
1.40001
1.40001
1.40001
1.40001
1.40001
1.40001
1.40001
1.40001
1.40001
1.40001
1.40001
1.40001
1.40001
1.40001
1.40001
1.40001
1.40001
1.40001
1.40001
1.40001
1.40001
1.40001
1.40001
1.40001
1.40001
1.40001
1.40001
1.40001
1.40001
1.40001
1.40001
1.40001
1.40001
1.40001
1.40001
1.40001
1.40001
1.40001
1.40001
1.40001
1.40001
1.40001
1.40001
1.40001
1.40001
1.40001
1.40001
1.40001
1.40001
1.40001
1.40001
1.40001
1.40001
1.40001
1.40001
1.40001
1.40001
1.40001
1.40001
1.40001
1.40001
1.40001
1.40001
1.40001
1.40001
1.40001
1.40001
1.40001
1.40001
1.40001
1.40001
1.40001
1.40001
1.40001
1.40001
1.40001
1.40001
1.40001
1.40001
1.40001
1.40001
1.40001
1.40001
1.40001
1.40001
1.61813
4.44602
5.40892
5.42669
5.45219
5.47566
5.49443
5.50395
5.50564
5.50405
5.50591
5.51486
5.53077
5.54942
5.56641
5.57998
5.59019
5.59782
5.60446
5.61057
5.61694
5.62419
5.63301
5.64167
5.64925
5.65603
5.66285
5.67031
5.67936
5.69095
5.7053
5.72107
5.73647
5.74964
5.75977
5.7668
5.77221
5.77839
5.7863
5.79522
5.80351
5.81065
5.81562
5.81746
5.81686
5.81616
5.81818
5.8249
5.83429
5.84373
5.85448
5.86558
5.87678
5.88789
5.89692
5.90154
5.90173
5.89927
5.89723
5.89842
5.90345
5.91134
5.92017
5.92868
5.93608
5.94175
5.9449
5.94581
5.94544
5.94417
5.94193
5.93989
5.93942
5.94035
5.94182
5.9435
5.94542
5.94731
5.9487
5.9493
5.94834
5.94511
5.93956
5.93174
5.91985
5.90041
5.87115
5.83588
5.8046
5.78613
5.78099
1.40001
1.40001
1.40001
1.40001
1.40001
1.40001
1.40001
1.40001
1.40001
1.40001
1.40001
1.40001
1.40001
1.40001
1.40001
1.40001
1.40001
1.40001
1.40001
1.40001
1.40001
1.40001
1.40001
1.40001
1.40001
1.40001
1.40001
1.40001
1.40001
1.40001
1.40001
1.40001
1.40001
1.40001
1.40001
1.40001
1.40001
1.40001
1.40001
1.40001
1.40001
1.40001
1.40001
1.40001
1.40001
1.40001
1.40001
1.40001
1.40001
1.40001
1.40001
1.40001
1.40001
1.40001
1.40001
1.40001
1.40001
1.40001
1.40001
1.40001
1.40001
1.40001
1.40001
1.40001
1.40001
1.40001
1.40001
1.40001
1.40001
1.40001
1.40001
1.40001
1.40001
1.40001
1.40001
1.40001
1.40001
1.40001
1.40001
1.40001
1.40001
1.40001
1.40001
1.40001
1.40001
1.40001
1.40001
1.40001
1.40001
1.40001
1.40001
1.40001
1.40001
1.40001
1.40001
1.40001
1.40001
1.40001
1.40001
1.40001
1.40001
1.60164
4.41239
5.40463
5.42734
5.45402
5.47606
5.4935
5.50169
5.50283
5.50285
5.50743
5.5185
5.53449
5.55196
5.56729
5.57945
5.58862
5.59555
5.60216
5.60876
5.61585
5.62358
5.63223
5.64031
5.64739
5.65388
5.66123
5.66992
5.68025
5.69275
5.7071
5.72204
5.73617
5.7482
5.75786
5.76511
5.77109
5.77791
5.78609
5.79494
5.80294
5.80986
5.81474
5.8167
5.81623
5.81549
5.81713
5.8234
5.83257
5.8421
5.8532
5.86489
5.87652
5.88767
5.89648
5.90082
5.90065
5.89792
5.89593
5.89741
5.90287
5.91101
5.91999
5.92861
5.9359
5.94139
5.94475
5.94633
5.94645
5.94517
5.94244
5.9392
5.93724
5.93697
5.93817
5.94091
5.94426
5.9472
5.94894
5.9493
5.94777
5.94386
5.93771
5.92941
5.91728
5.89795
5.86929
5.83504
5.80498
5.78769
5.78346
1.40001
1.40001
1.40001
1.40001
1.40001
1.40001
1.40001
1.40001
1.40001
1.40001
1.40001
1.40001
1.40001
1.40001
1.40001
1.40001
1.40001
1.40001
1.40001
1.40001
1.40001
1.40001
1.40001
1.40001
1.40001
1.40001
1.40001
1.40001
1.40001
1.40001
1.40001
1.40001
1.40001
1.40001
1.40001
1.40001
1.40001
1.40001
1.40001
1.40001
1.40001
1.40001
1.40001
1.40001
1.40001
1.40001
1.40001
1.40001
1.40001
1.40001
1.40001
1.40001
1.40001
1.40001
1.40001
1.40001
1.40001
1.40001
1.40001
1.40001
1.40001
1.40001
1.40001
1.40001
1.40001
1.40001
1.40001
1.40001
1.40001
1.40001
1.40001
1.40001
1.40001
1.40001
1.40001
1.40001
1.40001
1.40001
1.40001
1.40001
1.40001
1.40001
1.40001
1.40001
1.40001
1.40001
1.40001
1.40001
1.40001
1.40001
1.40001
1.40001
1.40001
1.40001
1.40001
1.40001
1.40001
1.40001
1.40001
1.40001
1.40001
1.5779
4.36658
5.40422
5.43327
5.4574
5.47731
5.49272
5.49965
5.50075
5.50204
5.50842
5.52071
5.53687
5.55381
5.5683
5.57948
5.58764
5.59363
5.59969
5.60646
5.61414
5.6225
5.63108
5.63885
5.64563
5.65204
5.66
5.66991
5.68152
5.69477
5.70898
5.72294
5.73563
5.74643
5.75553
5.76288
5.76928
5.77655
5.78489
5.79372
5.80175
5.80882
5.81388
5.81597
5.81555
5.81455
5.81559
5.82135
5.83049
5.84052
5.85227
5.86467
5.87659
5.88746
5.89569
5.89942
5.8988
5.89603
5.89449
5.89652
5.90248
5.91074
5.91968
5.92818
5.9354
5.94088
5.94462
5.94677
5.94718
5.94585
5.94262
5.93843
5.93508
5.93372
5.93475
5.93817
5.94258
5.94632
5.94843
5.94868
5.94673
5.9424
5.93584
5.9272
5.91497
5.89579
5.86763
5.83417
5.80504
5.78867
5.78518
1.40001
1.40001
1.40001
1.40001
1.40001
1.40001
1.40001
1.40001
1.40001
1.40001
1.40001
1.40001
1.40001
1.40001
1.40001
1.40001
1.40001
1.40001
1.40001
1.40001
1.40001
1.40001
1.40001
1.40001
1.40001
1.40001
1.40001
1.40001
1.40001
1.40001
1.40001
1.40001
1.40001
1.40001
1.40001
1.40001
1.40001
1.40001
1.40001
1.40001
1.40001
1.40001
1.40001
1.40001
1.40001
1.40001
1.40001
1.40001
1.40001
1.40001
1.40001
1.40001
1.40001
1.40001
1.40001
1.40001
1.40001
1.40001
1.40001
1.40001
1.40001
1.40001
1.40001
1.40001
1.40001
1.40001
1.40001
1.40001
1.40001
1.40001
1.40001
1.40001
1.40001
1.40001
1.40001
1.40001
1.40001
1.40001
1.40001
1.40001
1.40001
1.40001
1.40001
1.40001
1.40001
1.40001
1.40001
1.40001
1.40001
1.40001
1.40001
1.40001
1.40001
1.40001
1.40001
1.40001
1.40001
1.40001
1.40001
1.40001
1.40001
1.5461
4.30913
5.4083
5.44153
5.45869
5.47809
5.49219
5.49906
5.50104
5.503
5.50951
5.52155
5.5375
5.5542
5.56872
5.57963
5.58709
5.59219
5.59739
5.60394
5.61192
5.62086
5.62956
5.63734
5.64418
5.65085
5.65943
5.67027
5.68277
5.69641
5.71046
5.72353
5.73491
5.74475
5.75339
5.76065
5.76708
5.77428
5.78251
5.79138
5.79978
5.80731
5.81283
5.8152
5.81487
5.81364
5.81409
5.81926
5.82834
5.83895
5.85135
5.86437
5.87646
5.88688
5.89446
5.89748
5.89636
5.89371
5.89278
5.89553
5.90201
5.91029
5.91911
5.92749
5.93464
5.94033
5.94455
5.94696
5.94743
5.94595
5.9423
5.93749
5.93325
5.93117
5.93199
5.93557
5.94041
5.94459
5.94697
5.94722
5.94519
5.94072
5.93404
5.9254
5.91329
5.89427
5.86638
5.83331
5.80468
5.78881
5.78572
1.40001
1.40001
1.40001
1.40001
1.40001
1.40001
1.40001
1.40001
1.40001
1.40001
1.40001
1.40001
1.40001
1.40001
1.40001
1.40001
1.40001
1.40001
1.40001
1.40001
1.40001
1.40001
1.40001
1.40001
1.40001
1.40001
1.40001
1.40001
1.40001
1.40001
1.40001
1.40001
1.40001
1.40001
1.40001
1.40001
1.40001
1.40001
1.40001
1.40001
1.40001
1.40001
1.40001
1.40001
1.40001
1.40001
1.40001
1.40001
1.40001
1.40001
1.40001
1.40001
1.40001
1.40001
1.40001
1.40001
1.40001
1.40001
1.40001
1.40001
1.40001
1.40001
1.40001
1.40001
1.40001
1.40001
1.40001
1.40001
1.40001
1.40001
1.40001
1.40001
1.40001
1.40001
1.40001
1.40001
1.40001
1.40001
1.40001
1.40001
1.40001
1.40001
1.40001
1.40001
1.40001
1.40001
1.40001
1.40001
1.40001
1.40001
1.40001
1.40001
1.40001
1.40001
1.40001
1.40001
1.40001
1.40001
1.40001
1.40001
1.40001
1.50157
4.23016
5.41726
5.44712
5.45984
5.47628
5.49027
5.49959
5.50396
5.50629
5.51117
5.52135
5.53616
5.5526
5.56759
5.57905
5.5865
5.59103
5.59539
5.60142
5.60926
5.61845
5.62742
5.63559
5.64297
5.65034
5.65953
5.67092
5.6837
5.69739
5.71125
5.72371
5.73427
5.74363
5.75205
5.75908
5.76513
5.77174
5.7794
5.78809
5.79684
5.80492
5.81104
5.81399
5.81404
5.81286
5.81298
5.81781
5.82674
5.83757
5.8503
5.86374
5.8759
5.88592
5.89301
5.89552
5.89401
5.89142
5.8909
5.89428
5.90119
5.90946
5.91822
5.92665
5.93388
5.93977
5.94423
5.94663
5.94693
5.94524
5.94133
5.93633
5.93182
5.92946
5.93
5.93324
5.93783
5.94204
5.94457
5.94494
5.94312
5.93885
5.93246
5.92418
5.91233
5.89341
5.86548
5.83237
5.80374
5.78795
5.78493
1.40001
1.40001
1.40001
1.40001
1.40001
1.40001
1.40001
1.40001
1.40001
1.40001
1.40001
1.40001
1.40001
1.40001
1.40001
1.40001
1.40001
1.40001
1.40001
1.40001
1.40001
1.40001
1.40001
1.40001
1.40001
1.40001
1.40001
1.40001
1.40001
1.40001
1.40001
1.40001
1.40001
1.40001
1.40001
1.40001
1.40001
1.40001
1.40001
1.40001
1.40001
1.40001
1.40001
1.40001
1.40001
1.40001
1.40001
1.40001
1.40001
1.40001
1.40001
1.40001
1.40001
1.40001
1.40001
1.40001
1.40001
1.40001
1.40001
1.40001
1.40001
1.40001
1.40001
1.40001
1.40001
1.40001
1.40001
1.40001
1.40001
1.40001
1.40001
1.40001
1.40001
1.40001
1.40001
1.40001
1.40001
1.40001
1.40001
1.40001
1.40001
1.40001
1.40001
1.40001
1.40001
1.40001
1.40001
1.40001
1.40001
1.40001
1.40001
1.40001
1.40001
1.40001
1.40001
1.40001
1.40001
1.40001
1.40001
1.40001
1.40001
1.44066
4.14986
5.43078
5.44432
5.45654
5.47223
5.4884
5.5017
5.50908
5.51194
5.51464
5.52161
5.53372
5.54912
5.56443
5.5769
5.58529
5.5899
5.59374
5.59916
5.60645
5.61542
5.62461
5.63346
5.64187
5.65041
5.66028
5.67186
5.68435
5.69776
5.71138
5.7236
5.73396
5.74326
5.75155
5.75817
5.76354
5.76927
5.77618
5.78443
5.79326
5.80171
5.80847
5.81236
5.81316
5.81232
5.81255
5.81741
5.82617
5.83665
5.84915
5.86253
5.87464
5.88451
5.89141
5.89375
5.89214
5.88952
5.88906
5.89256
5.8995
5.90779
5.91669
5.92549
5.93318
5.93932
5.94368
5.94575
5.94562
5.94355
5.9396
5.93483
5.93069
5.92857
5.92885
5.93135
5.93515
5.93891
5.94138
5.94192
5.94052
5.93684
5.93119
5.92356
5.91204
5.89307
5.86478
5.83119
5.80215
5.78614
5.78298
1.40001
1.40001
1.40001
1.40001
1.40001
1.40001
1.40001
1.40001
1.40001
1.40001
1.40001
1.40001
1.40001
1.40001
1.40001
1.40001
1.40001
1.40001
1.40001
1.40001
1.40001
1.40001
1.40001
1.40001
1.40001
1.40001
1.40001
1.40001
1.40001
1.40001
1.40001
1.40001
1.40001
1.40001
1.40001
1.40001
1.40001
1.40001
1.40001
1.40001
1.40001
1.40001
1.40001
1.40001
1.40001
1.40001
1.40001
1.40001
1.40001
1.40001
1.40001
1.40001
1.40001
1.40001
1.40001
1.40001
1.40001
1.40001
1.40001
1.40001
1.40001
1.40001
1.40001
1.40001
1.40001
1.40001
1.40001
1.40001
1.40001
1.40001
1.40001
1.40001
1.40001
1.40001
1.40001
1.40001
1.40001
1.40001
1.40001
1.40001
1.40001
1.40001
1.40001
1.40001
1.40001
1.40001
1.40001
1.40001
1.40001
1.40001
1.40001
1.40001
1.40001
1.40001
1.40001
1.40001
1.40001
1.40001
1.40001
1.40001
1.40001
1.40168
4.06029
5.4351
5.43937
5.45202
5.47063
5.48947
5.50506
5.51433
5.51783
5.51907
5.52318
5.53225
5.54559
5.56022
5.57347
5.58331
5.5887
5.59252
5.59734
5.60386
5.61212
5.62129
5.63094
5.64067
5.65054
5.6612
5.67275
5.68482
5.6978
5.71116
5.72337
5.73391
5.74334
5.75147
5.75752
5.76205
5.76686
5.77307
5.78093
5.78967
5.79822
5.80547
5.81029
5.81206
5.81188
5.81263
5.81784
5.82643
5.83631
5.84808
5.86082
5.87268
5.88262
5.88963
5.89215
5.89075
5.88824
5.88763
5.89069
5.8971
5.9052
5.91437
5.92387
5.93244
5.93909
5.94323
5.94458
5.94368
5.94107
5.93712
5.9329
5.92969
5.92827
5.92837
5.92997
5.93264
5.93551
5.93767
5.93839
5.93757
5.93477
5.93016
5.92334
5.91216
5.89296
5.86401
5.82961
5.79985
5.78343
5.77998
1.40001
1.40001
1.40001
1.40001
1.40001
1.40001
1.40001
1.40001
1.40001
1.40001
1.40001
1.40001
1.40001
1.40001
1.40001
1.40001
1.40001
1.40001
1.40001
1.40001
1.40001
1.40001
1.40001
1.40001
1.40001
1.40001
1.40001
1.40001
1.40001
1.40001
1.40001
1.40001
1.40001
1.40001
1.40001
1.40001
1.40001
1.40001
1.40001
1.40001
1.40001
1.40001
1.40001
1.40001
1.40001
1.40001
1.40001
1.40001
1.40001
1.40001
1.40001
1.40001
1.40001
1.40001
1.40001
1.40001
1.40001
1.40001
1.40001
1.40001
1.40001
1.40001
1.40001
1.40001
1.40001
1.40001
1.40001
1.40001
1.40001
1.40001
1.40001
1.40001
1.40001
1.40001
1.40001
1.40001
1.40001
1.40001
1.40001
1.40001
1.40001
1.40001
1.40001
1.40001
1.40001
1.40001
1.40001
1.40001
1.40001
1.40001
1.40001
1.40001
1.40001
1.40001
1.40001
1.40001
1.40001
1.40001
1.40001
1.40001
1.40001
1.40002
3.95065
5.42496
5.43819
5.45163
5.47162
5.49084
5.50702
5.51755
5.52191
5.5227
5.52513
5.53197
5.54301
5.5563
5.56986
5.58084
5.58733
5.59148
5.59594
5.60176
5.60914
5.61803
5.62833
5.63928
5.65043
5.66172
5.67319
5.68488
5.69756
5.71082
5.72325
5.73408
5.74358
5.75129
5.75657
5.76016
5.76421
5.7701
5.77798
5.78678
5.79525
5.80262
5.80794
5.81054
5.81126
5.81284
5.81859
5.82708
5.83639
5.84737
5.85909
5.87036
5.88026
5.88751
5.89041
5.88954
5.88738
5.88668
5.88903
5.89443
5.90191
5.91118
5.92148
5.93124
5.9387
5.94267
5.94324
5.94137
5.93799
5.93392
5.93045
5.92852
5.92801
5.92815
5.92898
5.9304
5.93215
5.93383
5.93474
5.93459
5.93277
5.92922
5.92321
5.91229
5.89273
5.86293
5.82754
5.79697
5.78014
5.77636
1.40001
1.40001
1.40001
1.40001
1.40001
1.40001
1.40001
1.40001
1.40001
1.40001
1.40001
1.40001
1.40001
1.40001
1.40001
1.40001
1.40001
1.40001
1.40001
1.40001
1.40001
1.40001
1.40001
1.40001
1.40001
1.40001
1.40001
1.40001
1.40001
1.40001
1.40001
1.40001
1.40001
1.40001
1.40001
1.40001
1.40001
1.40001
1.40001
1.40001
1.40001
1.40001
1.40001
1.40001
1.40001
1.40001
1.40001
1.40001
1.40001
1.40001
1.40001
1.40001
1.40001
1.40001
1.40001
1.40001
1.40001
1.40001
1.40001
1.40001
1.40001
1.40001
1.40001
1.40001
1.40001
1.40001
1.40001
1.40001
1.40001
1.40001
1.40001
1.40001
1.40001
1.40001
1.40001
1.40001
1.40001
1.40001
1.40001
1.40001
1.40001
1.40001
1.40001
1.40001
1.40001
1.40001
1.40001
1.40001
1.40001
1.40001
1.40001
1.40001
1.40001
1.40001
1.40001
1.40001
1.40001
1.40001
1.40001
1.40001
1.40001
1.40001
3.83487
5.41041
5.43841
5.45195
5.47223
5.49068
5.50684
5.51822
5.52341
5.52456
5.52659
5.53223
5.54139
5.55326
5.56645
5.57801
5.58557
5.59035
5.59472
5.60009
5.60682
5.61547
5.6262
5.63795
5.64989
5.66159
5.67299
5.68444
5.69712
5.71059
5.72345
5.73457
5.7439
5.75086
5.75505
5.75763
5.76115
5.76718
5.77557
5.78478
5.79326
5.8005
5.80577
5.80866
5.81006
5.81265
5.81902
5.82768
5.83677
5.84725
5.85806
5.86824
5.87756
5.88478
5.88807
5.88796
5.88651
5.88605
5.88785
5.89212
5.89844
5.90731
5.91809
5.92906
5.93766
5.94176
5.94175
5.939
5.93474
5.93041
5.92762
5.92688
5.92728
5.92775
5.9281
5.92845
5.92912
5.93026
5.93143
5.93189
5.93087
5.92819
5.92277
5.91195
5.89194
5.86129
5.82497
5.79368
5.7765
5.77246
1.40001
1.40001
1.40001
1.40001
1.40001
1.40001
1.40001
1.40001
1.40001
1.40001
1.40001
1.40001
1.40001
1.40001
1.40001
1.40001
1.40001
1.40001
1.40001
1.40001
1.40001
1.40001
1.40001
1.40001
1.40001
1.40001
1.40001
1.40001
1.40001
1.40001
1.40001
1.40001
1.40001
1.40001
1.40001
1.40001
1.40001
1.40001
1.40001
1.40001
1.40001
1.40001
1.40001
1.40001
1.40001
1.40001
1.40001
1.40001
1.40001
1.40001
1.40001
1.40001
1.40001
1.40001
1.40001
1.40001
1.40001
1.40001
1.40001
1.40001
1.40001
1.40001
1.40001
1.40001
1.40001
1.40001
1.40001
1.40001
1.40001
1.40001
1.40001
1.40001
1.40001
1.40001
1.40001
1.40001
1.40001
1.40001
1.40001
1.40001
1.40001
1.40001
1.40001
1.40001
1.40001
1.40001
1.40001
1.40001
1.40001
1.40001
1.40001
1.40001
1.40001
1.40001
1.40001
1.40001
1.40001
1.40001
1.40001
1.40001
1.40001
1.40001
3.7139
5.39448
5.43719
5.45043
5.4709
5.48881
5.50468
5.51658
5.52286
5.52504
5.52756
5.53273
5.54069
5.55135
5.5633
5.57486
5.58323
5.58874
5.59332
5.59857
5.60512
5.61394
5.62504
5.63711
5.64913
5.66082
5.67202
5.68349
5.69661
5.71057
5.724
5.7354
5.74433
5.75018
5.75299
5.75439
5.75749
5.76391
5.77307
5.78303
5.7919
5.7992
5.80415
5.8068
5.80832
5.81156
5.81854
5.82783
5.83739
5.84779
5.85796
5.8668
5.87478
5.88134
5.88477
5.88551
5.88512
5.88544
5.88731
5.89071
5.89549
5.90325
5.9139
5.92569
5.93552
5.94024
5.94011
5.93682
5.9318
5.92707
5.92464
5.92463
5.92578
5.92678
5.92698
5.92667
5.92662
5.92737
5.92871
5.92956
5.92908
5.92692
5.9217
5.91073
5.89025
5.85894
5.82196
5.79014
5.7727
5.76847
1.40001
1.40001
1.40001
1.40001
1.40001
1.40001
1.40001
1.40001
1.40001
1.40001
1.40001
1.40001
1.40001
1.40001
1.40001
1.40001
1.40001
1.40001
1.40001
1.40001
1.40001
1.40001
1.40001
1.40001
1.40001
1.40001
1.40001
1.40001
1.40001
1.40001
1.40001
1.40001
1.40001
1.40001
1.40001
1.40001
1.40001
1.40001
1.40001
1.40001
1.40001
1.40001
1.40001
1.40001
1.40001
1.40001
1.40001
1.40001
1.40001
1.40001
1.40001
1.40001
1.40001
1.40001
1.40001
1.40001
1.40001
1.40001
1.40001
1.40001
1.40001
1.40001
1.40001
1.40001
1.40001
1.40001
1.40001
1.40001
1.40001
1.40001
1.40001
1.40001
1.40001
1.40001
1.40001
1.40001
1.40001
1.40001
1.40001
1.40001
1.40001
1.40001
1.40001
1.40001
1.40001
1.40001
1.40001
1.40001
1.40001
1.40001
1.40001
1.40001
1.40001
1.40001
1.40001
1.40001
1.40001
1.40001
1.40001
1.40001
1.40001
1.40001
3.58743
5.37655
5.43377
5.44711
5.46807
5.48593
5.50168
5.51353
5.52084
5.52431
5.52784
5.53322
5.54069
5.55033
5.56076
5.5716
5.58037
5.58647
5.59152
5.59706
5.60401
5.61342
5.62484
5.6368
5.64835
5.65951
5.67034
5.68211
5.696
5.71071
5.72468
5.73627
5.74464
5.74923
5.75061
5.75085
5.75355
5.76035
5.77033
5.7812
5.7908
5.79846
5.80327
5.80548
5.80651
5.80958
5.81688
5.82713
5.83777
5.8487
5.85854
5.866
5.87208
5.87729
5.88027
5.88179
5.88298
5.88479
5.88723
5.89007
5.89345
5.89953
5.90935
5.92124
5.93201
5.93774
5.93805
5.9347
5.92928
5.92415
5.92164
5.92184
5.92344
5.92492
5.92528
5.92487
5.92463
5.92528
5.92665
5.92762
5.92738
5.92526
5.91983
5.90847
5.88758
5.85591
5.81866
5.78658
5.76892
5.76454
1.40001
1.40001
1.40001
1.40001
1.40001
1.40001
1.40001
1.40001
1.40001
1.40001
1.40001
1.40001
1.40001
1.40001
1.40001
1.40001
1.40001
1.40001
1.40001
1.40001
1.40001
1.40001
1.40001
1.40001
1.40001
1.40001
1.40001
1.40001
1.40001
1.40001
1.40001
1.40001
1.40001
1.40001
1.40001
1.40001
1.40001
1.40001
1.40001
1.40001
1.40001
1.40001
1.40001
1.40001
1.40001
1.40001
1.40001
1.40001
1.40001
1.40001
1.40001
1.40001
1.40001
1.40001
1.40001
1.40001
1.40001
1.40001
1.40001
1.40001
1.40001
1.40001
1.40001
1.40001
1.40001
1.40001
1.40001
1.40001
1.40001
1.40001
1.40001
1.40001
1.40001
1.40001
1.40001
1.40001
1.40001
1.40001
1.40001
1.40001
1.40001
1.40001
1.40001
1.40001
1.40001
1.40001
1.40001
1.40001
1.40001
1.40001
1.40001
1.40001
1.40001
1.40001
1.40001
1.40001
1.40001
1.40001
1.40001
1.40001
1.40001
1.40001
3.45369
5.35511
5.43198
5.44455
5.46509
5.48223
5.49768
5.50945
5.51779
5.52276
5.52758
5.53362
5.54115
5.54993
5.55897
5.56868
5.57736
5.58383
5.58945
5.59556
5.60335
5.61354
5.62521
5.63684
5.64774
5.65815
5.66849
5.68069
5.69519
5.71064
5.72495
5.73661
5.74436
5.74777
5.74804
5.74756
5.74996
5.75682
5.76727
5.77886
5.78922
5.79739
5.80238
5.80435
5.80477
5.80731
5.81462
5.82574
5.83771
5.84941
5.85925
5.86556
5.86967
5.87321
5.87525
5.87719
5.88002
5.88367
5.8871
5.88967
5.89214
5.89661
5.90498
5.91624
5.92733
5.93408
5.9353
5.9325
5.92726
5.92193
5.91896
5.91882
5.92041
5.92218
5.92296
5.92296
5.92306
5.9239
5.92521
5.92605
5.92565
5.92309
5.91707
5.90513
5.88388
5.85216
5.81497
5.7829
5.76503
5.76056
1.40001
1.40001
1.40001
1.40001
1.40001
1.40001
1.40001
1.40001
1.40001
1.40001
1.40001
1.40001
1.40001
1.40001
1.40001
1.40001
1.40001
1.40001
1.40001
1.40001
1.40001
1.40001
1.40001
1.40001
1.40001
1.40001
1.40001
1.40001
1.40001
1.40001
1.40001
1.40001
1.40001
1.40001
1.40001
1.40001
1.40001
1.40001
1.40001
1.40001
1.40001
1.40001
1.40001
1.40001
1.40001
1.40001
1.40001
1.40001
1.40001
1.40001
1.40001
1.40001
1.40001
1.40001
1.40001
1.40001
1.40001
1.40001
1.40001
1.40001
1.40001
1.40001
1.40001
1.40001
1.40001
1.40001
1.40001
1.40001
1.40001
1.40001
1.40001
1.40001
1.40001
1.40001
1.40001
1.40001
1.40001
1.40001
1.40001
1.40001
1.40001
1.40001
1.40001
1.40001
1.40001
1.40001
1.40001
1.40001
1.40001
1.40001
1.40001
1.40001
1.40001
1.40001
1.40001
1.40001
1.40001
1.40001
1.40001
1.40001
1.40001
1.40001
3.31334
5.33349
5.42616
5.43981
5.46029
5.47718
5.49303
5.50526
5.51461
5.52112
5.52727
5.53393
5.54165
5.54973
5.5577
5.56635
5.5746
5.58131
5.58742
5.5942
5.60297
5.61384
5.62565
5.63691
5.64718
5.65686
5.66691
5.6795
5.69421
5.71001
5.72443
5.73582
5.7429
5.74558
5.74534
5.7447
5.74711
5.7538
5.76414
5.77596
5.78689
5.79563
5.80104
5.80306
5.80317
5.80531
5.81243
5.82393
5.83693
5.84937
5.85936
5.86486
5.86739
5.86943
5.87049
5.87242
5.87638
5.8816
5.88618
5.88894
5.89117
5.89456
5.90136
5.91141
5.92201
5.92931
5.93156
5.92983
5.92545
5.92033
5.91675
5.91579
5.91687
5.91857
5.9199
5.92074
5.92165
5.92291
5.92417
5.92471
5.92381
5.92049
5.91363
5.901
5.87946
5.84788
5.81102
5.77915
5.7611
5.75663
1.40001
1.40001
1.40001
1.40001
1.40001
1.40001
1.40001
1.40001
1.40001
1.40001
1.40001
1.40001
1.40001
1.40001
1.40001
1.40001
1.40001
1.40001
1.40001
1.40001
1.40001
1.40001
1.40001
1.40001
1.40001
1.40001
1.40001
1.40001
1.40001
1.40001
1.40001
1.40001
1.40001
1.40001
1.40001
1.40001
1.40001
1.40001
1.40001
1.40001
1.40001
1.40001
1.40001
1.40001
1.40001
1.40001
1.40001
1.40001
1.40001
1.40001
1.40001
1.40001
1.40001
1.40001
1.40001
1.40001
1.40001
1.40001
1.40001
1.40001
1.40001
1.40001
1.40001
1.40001
1.40001
1.40001
1.40001
1.40001
1.40001
1.40001
1.40001
1.40001
1.40001
1.40001
1.40001
1.40001
1.40001
1.40001
1.40001
1.40001
1.40001
1.40001
1.40001
1.40001
1.40001
1.40001
1.40001
1.40001
1.40001
1.40001
1.40001
1.40001
1.40001
1.40001
1.40001
1.40001
1.40001
1.40001
1.40001
1.40001
1.40001
1.40001
3.17098
5.30742
5.41934
5.43301
5.45429
5.47177
5.4883
5.50114
5.51152
5.51957
5.52689
5.53416
5.54197
5.54951
5.55673
5.56459
5.57235
5.57911
5.5855
5.59292
5.60246
5.61381
5.62563
5.63665
5.64661
5.65597
5.66623
5.67871
5.69341
5.70896
5.723
5.73368
5.74002
5.74247
5.74246
5.74228
5.74507
5.7517
5.76153
5.77286
5.78378
5.79289
5.79879
5.80116
5.80146
5.80366
5.81073
5.82209
5.83517
5.8479
5.85801
5.86316
5.86499
5.86631
5.8669
5.86865
5.87287
5.87862
5.88389
5.88721
5.88987
5.89296
5.89859
5.90722
5.9166
5.92369
5.92671
5.92633
5.92344
5.9191
5.91504
5.91307
5.91317
5.91439
5.91624
5.91814
5.9201
5.92195
5.92321
5.92332
5.92178
5.91759
5.90982
5.89644
5.87462
5.84326
5.80679
5.77521
5.75704
5.75266
1.40001
1.40001
1.40001
1.40001
1.40001
1.40001
1.40001
1.40001
1.40001
1.40001
1.40001
1.40001
1.40001
1.40001
1.40001
1.40001
1.40001
1.40001
1.40001
1.40001
1.40001
1.40001
1.40001
1.40001
1.40001
1.40001
1.40001
1.40001
1.40001
1.40001
1.40001
1.40001
1.40001
1.40001
1.40001
1.40001
1.40001
1.40001
1.40001
1.40001
1.40001
1.40001
1.40001
1.40001
1.40001
1.40001
1.40001
1.40001
1.40001
1.40001
1.40001
1.40001
1.40001
1.40001
1.40001
1.40001
1.40001
1.40001
1.40001
1.40001
1.40001
1.40001
1.40001
1.40001
1.40001
1.40001
1.40001
1.40001
1.40001
1.40001
1.40001
1.40001
1.40001
1.40001
1.40001
1.40001
1.40001
1.40001
1.40001
1.40001
1.40001
1.40001
1.40001
1.40001
1.40001
1.40001
1.40001
1.40001
1.40001
1.40001
1.40001
1.40001
1.40001
1.40001
1.40001
1.40001
1.40001
1.40001
1.40001
1.40001
1.40001
1.40001
3.02392
5.27866
5.415
5.42673
5.44793
5.46568
5.48298
5.49706
5.50881
5.51836
5.52645
5.53395
5.54159
5.54886
5.55576
5.56329
5.57083
5.57767
5.58427
5.59215
5.60201
5.61336
5.62496
5.63589
5.64588
5.65544
5.66614
5.67822
5.69261
5.70756
5.72065
5.7302
5.73579
5.73819
5.73885
5.73977
5.74343
5.75026
5.75965
5.77021
5.78047
5.78938
5.79555
5.79843
5.79945
5.8022
5.80949
5.82041
5.83268
5.84488
5.85474
5.86002
5.86228
5.86384
5.86472
5.86638
5.86993
5.87492
5.88002
5.88395
5.88766
5.89134
5.89653
5.90389
5.91162
5.91774
5.92111
5.922
5.92088
5.91782
5.91376
5.91074
5.90956
5.91012
5.91225
5.91511
5.9181
5.92058
5.92185
5.92152
5.91935
5.91444
5.90587
5.89183
5.86971
5.83844
5.80226
5.77095
5.75269
5.74848
1.40001
1.40001
1.40001
1.40001
1.40001
1.40001
1.40001
1.40001
1.40001
1.40001
1.40001
1.40001
1.40001
1.40001
1.40001
1.40001
1.40001
1.40001
1.40001
1.40001
1.40001
1.40001
1.40001
1.40001
1.40001
1.40001
1.40001
1.40001
1.40001
1.40001
1.40001
1.40001
1.40001
1.40001
1.40001
1.40001
1.40001
1.40001
1.40001
1.40001
1.40001
1.40001
1.40001
1.40001
1.40001
1.40001
1.40001
1.40001
1.40001
1.40001
1.40001
1.40001
1.40001
1.40001
1.40001
1.40001
1.40001
1.40001
1.40001
1.40001
1.40001
1.40001
1.40001
1.40001
1.40001
1.40001
1.40001
1.40001
1.40001
1.40001
1.40001
1.40001
1.40001
1.40001
1.40001
1.40001
1.40001
1.40001
1.40001
1.40001
1.40001
1.40001
1.40001
1.40001
1.40001
1.40001
1.40001
1.40001
1.40001
1.40001
1.40001
1.40001
1.40001
1.40001
1.40001
1.40001
1.40001
1.40001
1.40001
1.40001
1.40001
1.40001
2.86787
5.24362
5.4138
5.42243
5.44295
5.46109
5.47884
5.49366
5.50637
5.51693
5.5254
5.53307
5.54072
5.54811
5.5551
5.56267
5.57022
5.5771
5.5838
5.59184
5.60153
5.61249
5.62379
5.63478
5.64501
5.65518
5.66584
5.6778
5.69178
5.70587
5.71781
5.72626
5.73105
5.73321
5.73437
5.73642
5.74111
5.74845
5.75771
5.76766
5.77716
5.78546
5.79151
5.79487
5.79696
5.80072
5.80854
5.81877
5.82946
5.84031
5.84941
5.85516
5.859
5.86181
5.86384
5.86563
5.86794
5.8712
5.87517
5.87935
5.88434
5.88935
5.89489
5.90132
5.90731
5.91189
5.91497
5.91679
5.91741
5.91595
5.9124
5.90868
5.90629
5.90606
5.90812
5.91173
5.91554
5.91847
5.91972
5.91906
5.9164
5.91103
5.90199
5.8875
5.86506
5.83369
5.79755
5.76635
5.74802
5.74399
1.40001
1.40001
1.40001
1.40001
1.40001
1.40001
1.40001
1.40001
1.40001
1.40001
1.40001
1.40001
1.40001
1.40001
1.40001
1.40001
1.40001
1.40001
1.40001
1.40001
1.40001
1.40001
1.40001
1.40001
1.40001
1.40001
1.40001
1.40001
1.40001
1.40001
1.40001
1.40001
1.40001
1.40001
1.40001
1.40001
1.40001
1.40001