/*--------------------------------*- C++ -*----------------------------------*\
  =========                 |
  \\      /  F ield         | OpenFOAM: The Open Source CFD Toolbox
   \\    /   O peration     | Website:  https://openfoam.org
    \\  /    A nd           | Version:  7
     \\/     M anipulation  |
\*---------------------------------------------------------------------------*/
FoamFile
{
    version     2.0;
    format      ascii;
    class       volScalarField;
    location    "1.7";
    object      T;
}
// * * * * * * * * * * * * * * * * * * * * * * * * * * * * * * * * * * * * * //

dimensions      [0 0 0 1 0 0 0];

internalField   nonuniform List<scalar> 
258048
(
1
1
1
1
1
1
1
1
1
1
1
1
1
1
1
1
1
1
1
1
1
1
1
1
1
1
1
1
1
1
1
1
1
1
1
1
1
1
1
1
1
1
1
1
1
1
1
1
1
1
1
1
1
1
1
1
1
1
1
1
1
1
1
1
1
1
1
1
1
1
1
1
1
1
1
1
1
1
1
1
1
1
1
1
1
1
1
1
1
1
1
1
1
1
1
1
1
1
1
1
1
1.21812
2.43741
2.70169
2.7
2.7003
2.70089
2.70156
2.70325
2.70719
2.71228
2.71798
2.72369
2.72861
2.73261
2.73547
2.73692
2.73725
2.73724
2.73755
2.73898
2.74217
2.74706
2.75301
2.75881
2.7631
2.76526
2.76542
2.7648
2.76389
2.76353
2.76391
2.765
2.76643
2.7678
2.76907
2.77036
2.77181
2.77333
2.77475
2.7761
2.77748
2.77898
2.78092
2.78392
2.78821
2.79334
2.79805
2.80101
2.80205
2.80175
2.80037
2.79855
2.79753
2.79764
2.79883
2.80123
2.80427
2.80734
2.81009
2.81205
2.81295
2.81333
2.81372
2.81437
2.81548
2.8172
2.81928
2.8212
2.82261
2.82325
2.82352
2.82417
2.82516
2.82647
2.82796
2.82948
2.83113
2.8329
2.83492
2.83728
2.83966
2.84194
2.84451
2.84845
2.85541
2.86721
2.88442
2.9046
2.9223
2.93264
2.93568
1
1
1
1
1
1
1
1
1
1
1
1
1
1
1
1
1
1
1
1
1
1
1
1
1
1
1
1
1
1
1
1
1
1
1
1
1
1
1
1
1
1
1
1
1
1
1
1
1
1
1
1
1
1
1
1
1
1
1
1
1
1
1
1
1
1
1
1
1
1
1
1
1
1
1
1
1
1
1
1
1
1
1
1
1
1
1
1
1
1
1
1
1
1
1
1
1
1
1
1
1
1.21619
2.43674
2.70185
2.69984
2.70009
2.70056
2.70131
2.70323
2.70742
2.71268
2.71849
2.72422
2.72903
2.73288
2.73552
2.73677
2.73702
2.73707
2.7375
2.73903
2.74226
2.74716
2.75307
2.75879
2.76302
2.76515
2.76536
2.7648
2.76396
2.76365
2.76405
2.7651
2.76648
2.76779
2.76902
2.77031
2.77181
2.77341
2.77488
2.7762
2.77748
2.77889
2.78079
2.78382
2.7882
2.79337
2.79808
2.80097
2.80191
2.80154
2.80013
2.79836
2.79743
2.79761
2.79888
2.8013
2.80431
2.80733
2.81001
2.8119
2.8128
2.81323
2.81369
2.8144
2.81553
2.81725
2.81931
2.82124
2.82266
2.82329
2.82352
2.82407
2.82498
2.82624
2.82772
2.82931
2.83105
2.83291
2.83501
2.83735
2.83966
2.84187
2.84439
2.84828
2.8552
2.86697
2.8842
2.90446
2.92231
2.93282
2.93598
1
1
1
1
1
1
1
1
1
1
1
1
1
1
1
1
1
1
1
1
1
1
1
1
1
1
1
1
1
1
1
1
1
1
1
1
1
1
1
1
1
1
1
1
1
1
1
1
1
1
1
1
1
1
1
1
1
1
1
1
1
1
1
1
1
1
1
1
1
1
1
1
1
1
1
1
1
1
1
1
1
1
1
1
1
1
1
1
1
1
1
1
1
1
1
1
1
1
1
1
1
1.21121
2.43458
2.70205
2.69973
2.69965
2.69984
2.70071
2.70309
2.7078
2.71345
2.71944
2.72515
2.72982
2.73338
2.73568
2.73664
2.73673
2.73676
2.73725
2.73888
2.74224
2.7472
2.75309
2.75871
2.76284
2.76489
2.76513
2.76461
2.76388
2.76368
2.7641
2.76512
2.76642
2.76763
2.76881
2.77016
2.7718
2.77357
2.77514
2.77643
2.77757
2.77881
2.7806
2.78361
2.78808
2.79335
2.7981
2.80094
2.80174
2.80126
2.7998
2.79808
2.79725
2.79754
2.79891
2.80136
2.80435
2.8073
2.80989
2.81172
2.81263
2.81312
2.81366
2.8144
2.81552
2.81721
2.81928
2.8213
2.82282
2.82347
2.82363
2.82397
2.82465
2.82579
2.82728
2.82902
2.83097
2.83303
2.83521
2.83749
2.83967
2.84176
2.8442
2.84803
2.85487
2.86659
2.88385
2.90425
2.92231
2.93306
2.93641
1
1
1
1
1
1
1
1
1
1
1
1
1
1
1
1
1
1
1
1
1
1
1
1
1
1
1
1
1
1
1
1
1
1
1
1
1
1
1
1
1
1
1
1
1
1
1
1
1
1
1
1
1
1
1
1
1
1
1
1
1
1
1
1
1
1
1
1
1
1
1
1
1
1
1
1
1
1
1
1
1
1
1
1
1
1
1
1
1
1
1
1
1
1
1
1
1
1
1
1
1
1.20293
2.43023
2.70167
2.69887
2.69861
2.69873
2.69995
2.70295
2.70814
2.71432
2.72067
2.72635
2.73088
2.73413
2.73599
2.73662
2.73653
2.73646
2.73697
2.73877
2.74228
2.74729
2.75316
2.75865
2.76263
2.76454
2.76481
2.76438
2.76383
2.76377
2.76419
2.76512
2.76621
2.76724
2.76839
2.76989
2.77176
2.77379
2.77549
2.77674
2.77772
2.77878
2.78042
2.78337
2.78788
2.7932
2.79796
2.80074
2.80142
2.80088
2.79942
2.7978
2.79709
2.79746
2.79888
2.80133
2.80431
2.80723
2.80976
2.81153
2.81246
2.81299
2.81357
2.81436
2.81547
2.81715
2.81928
2.82142
2.823
2.82363
2.82373
2.82383
2.82423
2.82521
2.82671
2.82863
2.83084
2.83314
2.83542
2.83763
2.83966
2.84162
2.84396
2.84771
2.85446
2.86611
2.88341
2.90398
2.9223
2.9333
2.93687
1
1
1
1
1
1
1
1
1
1
1
1
1
1
1
1
1
1
1
1
1
1
1
1
1
1
1
1
1
1
1
1
1
1
1
1
1
1
1
1
1
1
1
1
1
1
1
1
1
1
1
1
1
1
1
1
1
1
1
1
1
1
1
1
1
1
1
1
1
1
1
1
1
1
1
1
1
1
1
1
1
1
1
1
1
1
1
1
1
1
1
1
1
1
1
1
1
1
1
1
1
1.18939
2.42108
2.70064
2.69772
2.69769
2.698
2.69958
2.70294
2.70833
2.71483
2.72152
2.72739
2.73195
2.73502
2.73653
2.73685
2.73661
2.73636
2.73683
2.73869
2.74233
2.74741
2.75321
2.75855
2.76234
2.76411
2.76442
2.76408
2.76373
2.76381
2.76425
2.76501
2.76582
2.76663
2.76777
2.76947
2.77164
2.77395
2.77581
2.77706
2.77791
2.77881
2.78029
2.78316
2.78763
2.79291
2.79762
2.80037
2.80099
2.80044
2.79906
2.79757
2.79695
2.79736
2.79877
2.80117
2.80417
2.8071
2.80962
2.81135
2.81229
2.81286
2.81346
2.81423
2.81535
2.81705
2.81927
2.82156
2.82318
2.82377
2.8238
2.82369
2.82379
2.82455
2.82607
2.82818
2.83066
2.83319
2.83557
2.8377
2.83959
2.84143
2.84369
2.84735
2.85401
2.86561
2.88294
2.90368
2.92225
2.93349
2.93725
1
1
1
1
1
1
1
1
1
1
1
1
1
1
1
1
1
1
1
1
1
1
1
1
1
1
1
1
1
1
1
1
1
1
1
1
1
1
1
1
1
1
1
1
1
1
1
1
1
1
1
1
1
1
1
1
1
1
1
1
1
1
1
1
1
1
1
1
1
1
1
1
1
1
1
1
1
1
1
1
1
1
1
1
1
1
1
1
1
1
1
1
1
1
1
1
1
1
1
1
1
1.16907
2.40499
2.69895
2.69715
2.69741
2.698
2.69962
2.70294
2.70837
2.71496
2.72177
2.72789
2.73272
2.73587
2.73725
2.73736
2.73697
2.73653
2.73687
2.73867
2.74235
2.74745
2.75318
2.75837
2.76198
2.76365
2.76401
2.76379
2.76364
2.76381
2.76422
2.76474
2.76525
2.76584
2.76697
2.76889
2.77139
2.77398
2.776
2.77728
2.77807
2.77885
2.78022
2.78299
2.78737
2.79253
2.79714
2.79986
2.80047
2.79997
2.79873
2.79739
2.79684
2.79726
2.79858
2.80088
2.80387
2.80687
2.80943
2.81118
2.81213
2.81272
2.8133
2.81403
2.81518
2.81694
2.81926
2.82166
2.82329
2.82387
2.8238
2.82351
2.82339
2.82394
2.82543
2.8277
2.83039
2.83309
2.83554
2.83765
2.83944
2.84121
2.8434
2.847
2.85361
2.86517
2.88253
2.90339
2.92214
2.93358
2.93747
1
1
1
1
1
1
1
1
1
1
1
1
1
1
1
1
1
1
1
1
1
1
1
1
1
1
1
1
1
1
1
1
1
1
1
1
1
1
1
1
1
1
1
1
1
1
1
1
1
1
1
1
1
1
1
1
1
1
1
1
1
1
1
1
1
1
1
1
1
1
1
1
1
1
1
1
1
1
1
1
1
1
1
1
1
1
1
1
1
1
1
1
1
1
1
1
1
1
1
1
1
1.14002
2.38155
2.69767
2.69765
2.69784
2.69867
2.69997
2.70303
2.70842
2.71496
2.72173
2.72796
2.73301
2.73645
2.73802
2.73812
2.73765
2.73701
2.73717
2.73879
2.74237
2.74742
2.75302
2.75808
2.76158
2.76323
2.76367
2.76357
2.76354
2.76371
2.76397
2.76423
2.7645
2.76494
2.76609
2.76824
2.77106
2.77391
2.77606
2.77737
2.77814
2.77886
2.78016
2.78285
2.78714
2.79215
2.79663
2.79931
2.79991
2.79945
2.79835
2.79715
2.79667
2.79708
2.7983
2.8005
2.80346
2.80654
2.80918
2.81097
2.81193
2.81252
2.81309
2.81382
2.81497
2.81681
2.81926
2.82169
2.82329
2.82386
2.82372
2.82329
2.82303
2.82346
2.8249
2.82722
2.83001
2.8328
2.8353
2.83743
2.83923
2.84097
2.84312
2.84671
2.85332
2.86486
2.88221
2.9031
2.92194
2.93351
2.93748
1
1
1
1
1
1
1
1
1
1
1
1
1
1
1
1
1
1
1
1
1
1
1
1
1
1
1
1
1
1
1
1
1
1
1
1
1
1
1
1
1
1
1
1
1
1
1
1
1
1
1
1
1
1
1
1
1
1
1
1
1
1
1
1
1
1
1
1
1
1
1
1
1
1
1
1
1
1
1
1
1
1
1
1
1
1
1
1
1
1
1
1
1
1
1
1
1
1
1
1
1
1.09798
2.3515
2.69794
2.70009
2.69967
2.69969
2.70022
2.70309
2.70849
2.71492
2.72146
2.72763
2.73282
2.73661
2.73863
2.739
2.73856
2.73782
2.73778
2.73907
2.74237
2.74724
2.75268
2.75763
2.76112
2.76284
2.76335
2.7633
2.76328
2.76336
2.76344
2.76351
2.76363
2.76398
2.76522
2.76761
2.77071
2.77378
2.77603
2.77735
2.77809
2.77877
2.78003
2.78268
2.78691
2.7918
2.79616
2.79883
2.79939
2.79893
2.79789
2.79678
2.79637
2.79678
2.79796
2.80011
2.80307
2.8062
2.80889
2.81069
2.81164
2.81224
2.81282
2.81357
2.81477
2.81666
2.81919
2.82161
2.82314
2.82369
2.82351
2.82303
2.82274
2.82311
2.82448
2.82678
2.82954
2.83233
2.83486
2.83706
2.83894
2.84069
2.84288
2.84653
2.85317
2.86468
2.88198
2.90283
2.92165
2.93323
2.93725
1
1
1
1
1
1
1
1
1
1
1
1
1
1
1
1
1
1
1
1
1
1
1
1
1
1
1
1
1
1
1
1
1
1
1
1
1
1
1
1
1
1
1
1
1
1
1
1
1
1
1
1
1
1
1
1
1
1
1
1
1
1
1
1
1
1
1
1
1
1
1
1
1
1
1
1
1
1
1
1
1
1
1
1
1
1
1
1
1
1
1
1
1
1
1
1
1
1
1
1
1
1.0418
2.32556
2.70146
2.70219
2.70128
2.70033
2.70063
2.70331
2.70848
2.71473
2.72099
2.72707
2.73238
2.73644
2.73894
2.73976
2.73948
2.73877
2.73855
2.73949
2.74235
2.74689
2.75211
2.75698
2.76054
2.76242
2.76297
2.7629
2.7628
2.76274
2.76266
2.76262
2.7627
2.76305
2.7644
2.76701
2.77037
2.77361
2.77596
2.7773
2.778
2.77861
2.77981
2.78247
2.78669
2.79151
2.79579
2.79846
2.79898
2.79845
2.79735
2.79626
2.79589
2.79632
2.79754
2.79978
2.8028
2.80596
2.8086
2.81033
2.81121
2.8118
2.81242
2.81325
2.81455
2.8165
2.81903
2.82141
2.82286
2.82334
2.82315
2.8227
2.82248
2.82289
2.82422
2.8264
2.82902
2.83175
2.83429
2.83655
2.83853
2.84038
2.8427
2.84646
2.85315
2.86463
2.88182
2.90254
2.92127
2.93281
2.93679
1
1
1
1
1
1
1
1
1
1
1
1
1
1
1
1
1
1
1
1
1
1
1
1
1
1
1
1
1
1
1
1
1
1
1
1
1
1
1
1
1
1
1
1
1
1
1
1
1
1
1
1
1
1
1
1
1
1
1
1
1
1
1
1
1
1
1
1
1
1
1
1
1
1
1
1
1
1
1
1
1
1
1
1
1
1
1
1
1
1
1
1
1
1
1
1
1
1
1
1
1
1.00124
2.29405
2.70483
2.70372
2.70202
2.70139
2.7017
2.70377
2.70818
2.7141
2.72033
2.72656
2.73204
2.73629
2.73906
2.74026
2.74021
2.73967
2.73932
2.73998
2.74233
2.74641
2.75134
2.75613
2.75979
2.76184
2.76247
2.76238
2.76216
2.76192
2.76171
2.76163
2.76171
2.76213
2.7636
2.76642
2.77001
2.77344
2.77593
2.77732
2.77796
2.77844
2.77956
2.78221
2.78647
2.79128
2.79553
2.79819
2.79865
2.79803
2.79678
2.79561
2.79523
2.79569
2.79705
2.79948
2.80265
2.80585
2.8084
2.80996
2.81068
2.81119
2.81184
2.81281
2.81429
2.81635
2.81886
2.82114
2.82246
2.82284
2.82264
2.8223
2.82223
2.82276
2.82408
2.8261
2.82852
2.8311
2.83362
2.83594
2.83805
2.84005
2.84255
2.84647
2.85323
2.86465
2.88168
2.90221
2.92079
2.93225
2.93618
1
1
1
1
1
1
1
1
1
1
1
1
1
1
1
1
1
1
1
1
1
1
1
1
1
1
1
1
1
1
1
1
1
1
1
1
1
1
1
1
1
1
1
1
1
1
1
1
1
1
1
1
1
1
1
1
1
1
1
1
1
1
1
1
1
1
1
1
1
1
1
1
1
1
1
1
1
1
1
1
1
1
1
1
1
1
1
1
1
1
1
1
1
1
1
1
1
1
1
1
1
1
2.26231
2.70683
2.7054
2.70303
2.70277
2.70277
2.70404
2.70759
2.71319
2.71959
2.72605
2.73182
2.73621
2.73906
2.74048
2.74063
2.74032
2.73995
2.7404
2.7423
2.74588
2.75049
2.75515
2.75887
2.76106
2.76178
2.76169
2.76136
2.76096
2.76066
2.76057
2.76068
2.76117
2.76276
2.76576
2.76958
2.77326
2.77597
2.77745
2.77804
2.77839
2.77938
2.78194
2.78618
2.79103
2.79529
2.79794
2.79834
2.79763
2.79622
2.79489
2.79444
2.79493
2.79645
2.79914
2.80255
2.80584
2.80832
2.80965
2.81012
2.81044
2.81106
2.8122
2.81393
2.81616
2.81866
2.82084
2.82199
2.82223
2.82201
2.82178
2.82194
2.82265
2.82399
2.82584
2.82805
2.83046
2.83292
2.83529
2.83754
2.83972
2.84242
2.84649
2.85331
2.86468
2.88153
2.90185
2.92025
2.93162
2.93548
1
1
1
1
1
1
1
1
1
1
1
1
1
1
1
1
1
1
1
1
1
1
1
1
1
1
1
1
1
1
1
1
1
1
1
1
1
1
1
1
1
1
1
1
1
1
1
1
1
1
1
1
1
1
1
1
1
1
1
1
1
1
1
1
1
1
1
1
1
1
1
1
1
1
1
1
1
1
1
1
1
1
1
1
1
1
1
1
1
1
1
1
1
1
1
1
1
1
1
1
1
1
2.22918
2.70817
2.70676
2.70387
2.70353
2.70319
2.70396
2.70693
2.71237
2.71894
2.72558
2.7316
2.7361
2.73899
2.74046
2.74076
2.74061
2.74036
2.7407
2.74224
2.74539
2.74967
2.75414
2.7578
2.76003
2.76081
2.76073
2.76032
2.75986
2.75958
2.75954
2.75968
2.76023
2.76188
2.76502
2.76908
2.77305
2.77604
2.77766
2.77825
2.77849
2.77933
2.7817
2.78584
2.79065
2.79494
2.79757
2.79797
2.79723
2.7957
2.79423
2.79365
2.79408
2.79571
2.79868
2.80241
2.80586
2.80834
2.80945
2.80962
2.80965
2.81013
2.81137
2.81336
2.81584
2.81841
2.8205
2.82149
2.82157
2.82131
2.8212
2.82157
2.82248
2.82386
2.8256
2.82763
2.82987
2.83225
2.83468
2.83705
2.8394
2.84228
2.84648
2.85333
2.86463
2.88132
2.90144
2.91967
2.93095
2.93476
1
1
1
1
1
1
1
1
1
1
1
1
1
1
1
1
1
1
1
1
1
1
1
1
1
1
1
1
1
1
1
1
1
1
1
1
1
1
1
1
1
1
1
1
1
1
1
1
1
1
1
1
1
1
1
1
1
1
1
1
1
1
1
1
1
1
1
1
1
1
1
1
1
1
1
1
1
1
1
1
1
1
1
1
1
1
1
1
1
1
1
1
1
1
1
1
1
1
1
1
1
1
2.19343
2.70863
2.70739
2.70408
2.70356
2.70303
2.70356
2.7063
2.71175
2.71848
2.7252
2.73129
2.73587
2.73883
2.74027
2.74067
2.74062
2.74051
2.7408
2.74213
2.74493
2.74889
2.75313
2.75663
2.75877
2.75955
2.75946
2.75903
2.75867
2.7585
2.75856
2.75877
2.75937
2.76105
2.76428
2.76852
2.77278
2.77606
2.77788
2.77853
2.77872
2.77943
2.78159
2.7855
2.79017
2.7944
2.79701
2.7975
2.79681
2.79527
2.79369
2.79293
2.79323
2.79485
2.79805
2.80211
2.80585
2.80839
2.80934
2.80922
2.80895
2.8092
2.81037
2.81256
2.81532
2.81803
2.82013
2.82101
2.82096
2.82064
2.82057
2.82109
2.82216
2.8236
2.82532
2.82724
2.82937
2.83171
2.83416
2.8366
2.83909
2.8421
2.84636
2.8532
2.86444
2.88102
2.901
2.9191
2.93031
2.93407
1
1
1
1
1
1
1
1
1
1
1
1
1
1
1
1
1
1
1
1
1
1
1
1
1
1
1
1
1
1
1
1
1
1
1
1
1
1
1
1
1
1
1
1
1
1
1
1
1
1
1
1
1
1
1
1
1
1
1
1
1
1
1
1
1
1
1
1
1
1
1
1
1
1
1
1
1
1
1
1
1
1
1
1
1
1
1
1
1
1
1
1
1
1
1
1
1
1
1
1
1
1
2.15495
2.70854
2.70725
2.70359
2.7031
2.70256
2.7032
2.706
2.71136
2.71805
2.72475
2.73079
2.73545
2.7385
2.73994
2.74046
2.74047
2.74044
2.74074
2.74193
2.74447
2.74815
2.7521
2.75534
2.7573
2.75801
2.75788
2.75754
2.75739
2.75742
2.75762
2.75796
2.75865
2.76039
2.7637
2.76803
2.77249
2.776
2.778
2.7788
2.77905
2.7797
2.78168
2.7853
2.78968
2.7937
2.79622
2.79685
2.79629
2.79488
2.79325
2.79231
2.79244
2.79391
2.79722
2.80159
2.80568
2.80838
2.80928
2.80899
2.80842
2.80836
2.8093
2.81153
2.81452
2.81746
2.81966
2.82054
2.82042
2.82003
2.81994
2.82051
2.82166
2.82318
2.82492
2.82684
2.82897
2.83131
2.83375
2.83622
2.8388
2.84185
2.84609
2.85289
2.86409
2.88063
2.90056
2.91859
2.92973
2.93345
1
1
1
1
1
1
1
1
1
1
1
1
1
1
1
1
1
1
1
1
1
1
1
1
1
1
1
1
1
1
1
1
1
1
1
1
1
1
1
1
1
1
1
1
1
1
1
1
1
1
1
1
1
1
1
1
1
1
1
1
1
1
1
1
1
1
1
1
1
1
1
1
1
1
1
1
1
1
1
1
1
1
1
1
1
1
1
1
1
1
1
1
1
1
1
1
1
1
1
1
1
1
2.11283
2.70744
2.7065
2.70286
2.70256
2.70217
2.70303
2.70597
2.71122
2.71762
2.72412
2.73003
2.73479
2.73794
2.73951
2.74014
2.74023
2.74025
2.74055
2.74163
2.74396
2.74735
2.75095
2.75387
2.75563
2.75625
2.75613
2.75595
2.756
2.75629
2.7567
2.75721
2.75808
2.76001
2.76341
2.76773
2.77228
2.77588
2.77799
2.77891
2.77928
2.77999
2.78185
2.78518
2.78919
2.79291
2.79532
2.79604
2.79565
2.79444
2.79284
2.79176
2.79172
2.79301
2.79633
2.80093
2.80535
2.80827
2.80922
2.80886
2.80803
2.80762
2.80831
2.81039
2.81348
2.81663
2.81904
2.82007
2.81997
2.81954
2.81938
2.81988
2.821
2.82257
2.8244
2.82642
2.82865
2.83103
2.83347
2.83592
2.8385
2.8415
2.84564
2.85238
2.86357
2.88015
2.9001
2.91811
2.92919
2.93288
1
1
1
1
1
1
1
1
1
1
1
1
1
1
1
1
1
1
1
1
1
1
1
1
1
1
1
1
1
1
1
1
1
1
1
1
1
1
1
1
1
1
1
1
1
1
1
1
1
1
1
1
1
1
1
1
1
1
1
1
1
1
1
1
1
1
1
1
1
1
1
1
1
1
1
1
1
1
1
1
1
1
1
1
1
1
1
1
1
1
1
1
1
1
1
1
1
1
1
1
1
1
2.06661
2.70507
2.70491
2.70225
2.70222
2.70207
2.70321
2.70624
2.71125
2.71722
2.72336
2.72903
2.73382
2.73713
2.73892
2.73974
2.73995
2.74
2.74028
2.74125
2.74335
2.74638
2.74957
2.75215
2.75372
2.7543
2.75428
2.75431
2.75454
2.7551
2.75575
2.75648
2.75764
2.75986
2.76335
2.76766
2.7722
2.77579
2.7779
2.77885
2.77932
2.78011
2.78197
2.7851
2.78871
2.7921
2.79435
2.79507
2.7948
2.7938
2.7923
2.79117
2.791
2.7922
2.7955
2.80024
2.80489
2.80798
2.80903
2.80868
2.80771
2.80704
2.80747
2.80928
2.8123
2.81557
2.81822
2.81953
2.81955
2.81915
2.81891
2.81926
2.82021
2.82178
2.82373
2.82593
2.82833
2.83082
2.83326
2.83566
2.83817
2.84104
2.84506
2.85172
2.86292
2.87959
2.89962
2.91767
2.9287
2.93238
1
1
1
1
1
1
1
1
1
1
1
1
1
1
1
1
1
1
1
1
1
1
1
1
1
1
1
1
1
1
1
1
1
1
1
1
1
1
1
1
1
1
1
1
1
1
1
1
1
1
1
1
1
1
1
1
1
1
1
1
1
1
1
1
1
1
1
1
1
1
1
1
1
1
1
1
1
1
1
1
1
1
1
1
1
1
1
1
1
1
1
1
1
1
1
1
1
1
1
1
1
1
2.01722
2.69868
2.70425
2.70233
2.7026
2.7026
2.70386
2.70673
2.71128
2.71676
2.72247
2.72789
2.73265
2.73612
2.73818
2.73924
2.73958
2.73964
2.73986
2.74067
2.74247
2.74511
2.74791
2.75021
2.75165
2.75226
2.75247
2.7527
2.75317
2.75395
2.75483
2.75582
2.75732
2.75981
2.76341
2.76773
2.77224
2.77575
2.7778
2.77871
2.7792
2.78005
2.78194
2.78491
2.78822
2.79131
2.79337
2.79398
2.79371
2.79282
2.79143
2.79037
2.79024
2.7915
2.7949
2.79974
2.80445
2.80754
2.80862
2.80831
2.80734
2.80656
2.8068
2.80828
2.81109
2.81433
2.81717
2.81884
2.81913
2.81881
2.81852
2.81868
2.81938
2.82086
2.82295
2.82535
2.82796
2.8306
2.83308
2.8354
2.83778
2.8405
2.84438
2.85096
2.86219
2.87896
2.89911
2.91723
2.92822
2.93191
1
1
1
1
1
1
1
1
1
1
1
1
1
1
1
1
1
1
1
1
1
1
1
1
1
1
1
1
1
1
1
1
1
1
1
1
1
1
1
1
1
1
1
1
1
1
1
1
1
1
1
1
1
1
1
1
1
1
1
1
1
1
1
1
1
1
1
1
1
1
1
1
1
1
1
1
1
1
1
1
1
1
1
1
1
1
1
1
1
1
1
1
1
1
1
1
1
1
1
1
1
1
1.96209
2.68727
2.70487
2.70307
2.70358
2.70356
2.70465
2.70716
2.71119
2.71619
2.72147
2.72661
2.73129
2.73492
2.73726
2.73855
2.739
2.73905
2.7392
2.73983
2.74133
2.74358
2.74604
2.74814
2.74954
2.75027
2.75073
2.75113
2.75187
2.75291
2.75404
2.75533
2.75713
2.75984
2.76354
2.76786
2.77227
2.7757
2.7777
2.77859
2.77907
2.77994
2.78177
2.78457
2.78769
2.79056
2.7924
2.79286
2.79249
2.79154
2.79023
2.7893
2.78937
2.7909
2.79462
2.79954
2.80412
2.807
2.80794
2.80765
2.8068
2.80609
2.80624
2.80745
2.80994
2.81304
2.81595
2.81796
2.81865
2.81846
2.81816
2.81814
2.8186
2.81992
2.82209
2.82468
2.82749
2.8303
2.83282
2.83503
2.83729
2.83989
2.84365
2.85016
2.8614
2.87828
2.89855
2.91673
2.9277
2.93141
1
1
1
1
1
1
1
1
1
1
1
1
1
1
1
1
1
1
1
1
1
1
1
1
1
1
1
1
1
1
1
1
1
1
1
1
1
1
1
1
1
1
1
1
1
1
1
1
1
1
1
1
1
1
1
1
1
1
1
1
1
1
1
1
1
1
1
1
1
1
1
1
1
1
1
1
1
1
1
1
1
1
1
1
1
1
1
1
1
1
1
1
1
1
1
1
1
1
1
1
1
1
1.89949
2.67209
2.70563
2.70389
2.70458
2.70457
2.70541
2.70739
2.71082
2.71531
2.72021
2.72516
2.72983
2.73362
2.73615
2.73757
2.73804
2.73807
2.73816
2.73866
2.73994
2.74192
2.74415
2.74613
2.74753
2.74843
2.74901
2.74964
2.75068
2.75202
2.7535
2.75516
2.75724
2.76009
2.76375
2.76792
2.77211
2.77543
2.77745
2.77838
2.7789
2.77974
2.78146
2.78407
2.78705
2.78977
2.79143
2.7917
2.79115
2.78999
2.78869
2.78795
2.78836
2.79045
2.79459
2.79961
2.80398
2.80648
2.80711
2.80675
2.80604
2.80556
2.80575
2.80678
2.80893
2.81177
2.81463
2.81689
2.81799
2.81804
2.81778
2.81761
2.8179
2.81904
2.82119
2.82392
2.82689
2.82982
2.83238
2.83453
2.83667
2.8392
2.84291
2.84938
2.86063
2.87757
2.89792
2.91617
2.92712
2.93087
1
1
1
1
1
1
1
1
1
1
1
1
1
1
1
1
1
1
1
1
1
1
1
1
1
1
1
1
1
1
1
1
1
1
1
1
1
1
1
1
1
1
1
1
1
1
1
1
1
1
1
1
1
1
1
1
1
1
1
1
1
1
1
1
1
1
1
1
1
1
1
1
1
1
1
1
1
1
1
1
1
1
1
1
1
1
1
1
1
1
1
1
1
1
1
1
1
1
1
1
1
1
1.83043
2.65468
2.7059
2.70426
2.70495
2.70505
2.70576
2.70732
2.71009
2.71405
2.71866
2.72358
2.7283
2.73218
2.73477
2.73616
2.73656
2.73658
2.73666
2.73715
2.73838
2.74028
2.74243
2.74436
2.74579
2.74676
2.74744
2.74827
2.74955
2.75123
2.75314
2.75527
2.75771
2.76066
2.76412
2.76794
2.77177
2.77491
2.77698
2.77807
2.7787
2.77954
2.78111
2.78351
2.78631
2.78889
2.79038
2.79048
2.78975
2.78829
2.78693
2.78638
2.78724
2.79004
2.79467
2.7998
2.80392
2.80598
2.80621
2.80571
2.80511
2.80491
2.80523
2.80618
2.80801
2.81055
2.81331
2.81566
2.81712
2.81754
2.81729
2.81706
2.81726
2.81824
2.82029
2.82311
2.82617
2.82916
2.83174
2.83386
2.83592
2.83842
2.84215
2.84865
2.8599
2.87685
2.89722
2.91551
2.92645
2.93022
1
1
1
1
1
1
1
1
1
1
1
1
1
1
1
1
1
1
1
1
1
1
1
1
1
1
1
1
1
1
1
1
1
1
1
1
1
1
1
1
1
1
1
1
1
1
1
1
1
1
1
1
1
1
1
1
1
1
1
1
1
1
1
1
1
1
1
1
1
1
1
1
1
1
1
1
1
1
1
1
1
1
1
1
1
1
1
1
1
1
1
1
1
1
1
1
1
1
1
1
1
1
1.75641
2.6352
2.70561
2.70418
2.70488
2.70509
2.70557
2.7067
2.7089
2.71236
2.71683
2.72181
2.72664
2.73051
2.73298
2.7342
2.73453
2.73458
2.73477
2.73542
2.73681
2.73885
2.74112
2.74311
2.74458
2.7455
2.74613
2.747
2.74844
2.75043
2.75284
2.75554
2.75842
2.76145
2.7646
2.7679
2.7712
2.77408
2.77621
2.77754
2.77839
2.77929
2.78074
2.78289
2.78548
2.78788
2.78922
2.78923
2.7883
2.78656
2.7851
2.78471
2.78601
2.78954
2.79471
2.79996
2.80382
2.80548
2.80536
2.80467
2.80413
2.80418
2.80465
2.80559
2.80717
2.80943
2.81203
2.81441
2.81608
2.81678
2.8167
2.81646
2.81662
2.81749
2.81944
2.82227
2.82534
2.82832
2.8309
2.83299
2.835
2.83754
2.84137
2.84794
2.85922
2.87614
2.89648
2.91474
2.92569
2.92946
1
1
1
1
1
1
1
1
1
1
1
1
1
1
1
1
1
1
1
1
1
1
1
1
1
1
1
1
1
1
1
1
1
1
1
1
1
1
1
1
1
1
1
1
1
1
1
1
1
1
1
1
1
1
1
1
1
1
1
1
1
1
1
1
1
1
1
1
1
1
1
1
1
1
1
1
1
1
1
1
1
1
1
1
1
1
1
1
1
1
1
1
1
1
1
1
1
1
1
1
1
1
1.67494
2.61179
2.70472
2.70365
2.70451
2.70457
2.70485
2.70561
2.70731
2.71033
2.71472
2.71982
2.72478
2.72859
2.73085
2.73179
2.73201
2.73212
2.73251
2.73353
2.73533
2.73773
2.74029
2.74252
2.74405
2.74482
2.74527
2.74601
2.74741
2.7496
2.75246
2.75574
2.75911
2.76223
2.76505
2.76776
2.77046
2.77295
2.77509
2.7767
2.77786
2.77893
2.78032
2.78227
2.7846
2.78678
2.78793
2.78785
2.78678
2.78487
2.78337
2.78313
2.78477
2.78887
2.79445
2.79984
2.80353
2.80492
2.80458
2.80376
2.80322
2.80337
2.80398
2.80493
2.80636
2.80839
2.81085
2.8132
2.81492
2.81583
2.81596
2.81574
2.81592
2.81676
2.81862
2.8214
2.82443
2.82735
2.82989
2.83194
2.83394
2.83656
2.84053
2.84724
2.85856
2.87544
2.8957
2.9139
2.92484
2.92858
1
1
1
1
1
1
1
1
1
1
1
1
1
1
1
1
1
1
1
1
1
1
1
1
1
1
1
1
1
1
1
1
1
1
1
1
1
1
1
1
1
1
1
1
1
1
1
1
1
1
1
1
1
1
1
1
1
1
1
1
1
1
1
1
1
1
1
1
1
1
1
1
1
1
1
1
1
1
1
1
1
1
1
1
1
1
1
1
1
1
1
1
1
1
1
1
1
1
1
1
1
1
1.5838
2.58298
2.70374
2.70295
2.70388
2.70371
2.70376
2.70419
2.70548
2.70817
2.71247
2.71769
2.72276
2.72649
2.72848
2.72918
2.72931
2.72955
2.73031
2.73183
2.73415
2.73703
2.73999
2.74247
2.74402
2.74466
2.74494
2.74542
2.74658
2.74878
2.75196
2.75572
2.7595
2.76277
2.76536
2.76757
2.76968
2.77173
2.77375
2.77554
2.77701
2.77831
2.77976
2.7816
2.78371
2.78562
2.78654
2.78635
2.78519
2.78329
2.78186
2.78178
2.78365
2.78803
2.79383
2.79933
2.80297
2.80425
2.80388
2.80302
2.80246
2.80259
2.8032
2.80414
2.80549
2.80736
2.80973
2.81204
2.81374
2.81473
2.815
2.81488
2.81512
2.816
2.81782
2.82052
2.82345
2.82629
2.82873
2.83071
2.83275
2.83547
2.83961
2.84648
2.85787
2.87471
2.89487
2.91298
2.92391
2.92761
1
1
1
1
1
1
1
1
1
1
1
1
1
1
1
1
1
1
1
1
1
1
1
1
1
1
1
1
1
1
1
1
1
1
1
1
1
1
1
1
1
1
1
1
1
1
1
1
1
1
1
1
1
1
1
1
1
1
1
1
1
1
1
1
1
1
1
1
1
1
1
1
1
1
1
1
1
1
1
1
1
1
1
1
1
1
1
1
1
1
1
1
1
1
1
1
1
1
1
1
1
1
1.48625
2.5494
2.70242
2.70166
2.70238
2.70243
2.70249
2.70275
2.70368
2.70609
2.71028
2.71554
2.72063
2.72427
2.72606
2.7266
2.72675
2.7272
2.7284
2.73048
2.73334
2.7367
2.73994
2.74257
2.74418
2.7448
2.74495
2.74518
2.74602
2.74807
2.7514
2.7555
2.75955
2.76294
2.76542
2.76729
2.76892
2.77056
2.77234
2.77414
2.77581
2.77734
2.77896
2.78081
2.78278
2.78444
2.78511
2.7848
2.78358
2.78184
2.78064
2.78075
2.78279
2.78715
2.79289
2.79834
2.80204
2.80342
2.80319
2.80242
2.80184
2.80185
2.80232
2.80322
2.80453
2.80633
2.80867
2.81099
2.81262
2.81357
2.81388
2.81386
2.8142
2.81516
2.817
2.81962
2.82242
2.82515
2.82746
2.82936
2.83146
2.8343
2.8386
2.84563
2.85709
2.8739
2.89398
2.91201
2.92294
2.92659
1
1
1
1
1
1
1
1
1
1
1
1
1
1
1
1
1
1
1
1
1
1
1
1
1
1
1
1
1
1
1
1
1
1
1
1
1
1
1
1
1
1
1
1
1
1
1
1
1
1
1
1
1
1
1
1
1
1
1
1
1
1
1
1
1
1
1
1
1
1
1
1
1
1
1
1
1
1
1
1
1
1
1
1
1
1
1
1
1
1
1
1
1
1
1
1
1
1
1
1
1
1
1.3877
2.51077
2.701
2.70004
2.70033
2.70075
2.701
2.70133
2.70229
2.7047
2.70876
2.71384
2.71873
2.72222
2.72392
2.72441
2.72466
2.72537
2.72697
2.72956
2.73293
2.73667
2.74014
2.74289
2.74446
2.74496
2.745
2.74505
2.74564
2.74748
2.75083
2.75511
2.75934
2.76281
2.76525
2.7669
2.76823
2.76954
2.77104
2.77266
2.77431
2.77597
2.77777
2.77976
2.78173
2.7832
2.78367
2.78323
2.78201
2.78051
2.77964
2.77997
2.7821
2.78631
2.79176
2.79703
2.8008
2.80239
2.80243
2.80187
2.80131
2.80114
2.80143
2.80219
2.80347
2.80528
2.80767
2.81002
2.81157
2.81238
2.81266
2.81269
2.81312
2.81422
2.81614
2.81868
2.82137
2.82392
2.82605
2.82795
2.83011
2.83306
2.8375
2.84464
2.85616
2.87295
2.89299
2.911
2.92195
2.92557
1
1
1
1
1
1
1
1
1
1
1
1
1
1
1
1
1
1
1
1
1
1
1
1
1
1
1
1
1
1
1
1
1
1
1
1
1
1
1
1
1
1
1
1
1
1
1
1
1
1
1
1
1
1
1
1
1
1
1
1
1
1
1
1
1
1
1
1
1
1
1
1
1
1
1
1
1
1
1
1
1
1
1
1
1
1
1
1
1
1
1
1
1
1
1
1
1
1
1
1
1
1
1.28536
2.46278
2.69783
2.69744
2.69785
2.69858
2.69929
2.70014
2.7016
2.70425
2.70825
2.71305
2.71756
2.72074
2.72232
2.72283
2.72322
2.7242
2.72615
2.72911
2.73281
2.73687
2.74066
2.74353
2.74491
2.74512
2.74502
2.74494
2.7454
2.74709
2.75035
2.75464
2.75891
2.76238
2.76478
2.76633
2.76751
2.76864
2.76989
2.77124
2.77271
2.77434
2.77625
2.77839
2.78045
2.78184
2.78218
2.78166
2.78049
2.7793
2.7788
2.77937
2.78158
2.78557
2.79065
2.79565
2.79936
2.80119
2.80154
2.80122
2.80073
2.8004
2.80047
2.801
2.80222
2.80415
2.8067
2.80912
2.81061
2.81125
2.8114
2.81142
2.81192
2.81317
2.81521
2.81768
2.82025
2.82258
2.82454
2.82648
2.82873
2.83178
2.83632
2.84351
2.85503
2.87182
2.89188
2.90994
2.92097
2.92461
1
1
1
1
1
1
1
1
1
1
1
1
1
1
1
1
1
1
1
1
1
1
1
1
1
1
1
1
1
1
1
1
1
1
1
1
1
1
1
1
1
1
1
1
1
1
1
1
1
1
1
1
1
1
1
1
1
1
1
1
1
1
1
1
1
1
1
1
1
1
1
1
1
1
1
1
1
1
1
1
1
1
1
1
1
1
1
1
1
1
1
1
1
1
1
1
1
1
1
1
1
1
1.18476
2.40846
2.6944
2.69492
2.69581
2.69668
2.69788
2.6995
2.70177
2.70493
2.70904
2.71349
2.71736
2.71998
2.72129
2.7218
2.72231
2.72344
2.72551
2.7287
2.73275
2.73727
2.74146
2.74438
2.74545
2.7453
2.74492
2.74472
2.74515
2.74676
2.74986
2.754
2.75819
2.76162
2.76404
2.76557
2.76674
2.7678
2.76886
2.76993
2.77112
2.77258
2.77449
2.77671
2.77883
2.78024
2.78059
2.78008
2.77907
2.77822
2.77808
2.77888
2.78114
2.7849
2.7896
2.7943
2.7979
2.79988
2.80049
2.8004
2.80004
2.79957
2.79941
2.79974
2.80089
2.80301
2.80577
2.80827
2.80973
2.81018
2.81013
2.81008
2.8106
2.812
2.81414
2.81659
2.81899
2.82109
2.823
2.82498
2.82734
2.8305
2.83506
2.84221
2.8537
2.87048
2.89062
2.90882
2.92
2.92371
1
1
1
1
1
1
1
1
1
1
1
1
1
1
1
1
1
1
1
1
1
1
1
1
1
1
1
1
1
1
1
1
1
1
1
1
1
1
1
1
1
1
1
1
1
1
1
1
1
1
1
1
1
1
1
1
1
1
1
1
1
1
1
1
1
1
1
1
1
1
1
1
1
1
1
1
1
1
1
1
1
1
1
1
1
1
1
1
1
1
1
1
1
1
1
1
1
1
1
1
1
1
1.07938
2.35001
2.69431
2.694
2.69477
2.69606
2.69786
2.70024
2.70322
2.70682
2.7107
2.71443
2.71757
2.71974
2.72089
2.72143
2.72194
2.72296
2.72494
2.72829
2.73274
2.73774
2.74227
2.74515
2.74588
2.74542
2.7447
2.74436
2.74479
2.74636
2.74926
2.75314
2.75714
2.76054
2.76304
2.76463
2.76584
2.7669
2.76783
2.76867
2.76959
2.77086
2.77266
2.77483
2.77691
2.77836
2.77885
2.7785
2.77781
2.77728
2.7774
2.77843
2.78069
2.78423
2.78862
2.79304
2.79652
2.79857
2.79935
2.7994
2.79914
2.79858
2.79822
2.79841
2.79952
2.80182
2.80479
2.80739
2.80884
2.80914
2.80889
2.80873
2.80924
2.81074
2.81294
2.81536
2.81759
2.81953
2.82143
2.82347
2.82597
2.8292
2.83371
2.84076
2.85216
2.86896
2.88924
2.90765
2.91901
2.92283
1
1
1
1
1
1
1
1
1
1
1
1
1
1
1
1
1
1
1
1
1
1
1
1
1
1
1
1
1
1
1
1
1
1
1
1
1
1
1
1
1
1
1
1
1
1
1
1
1
1
1
1
1
1
1
1
1
1
1
1
1
1
1
1
1
1
1
1
1
1
1
1
1
1
1
1
1
1
1
1
1
1
1
1
1
1
1
1
1
1
1
1
1
1
1
1
1
1
1
1
1
1
1.0032
2.28721
2.69397
2.69277
2.69292
2.6945
2.69743
2.70129
2.70544
2.7095
2.71301
2.71591
2.71819
2.71985
2.72081
2.72124
2.7216
2.72243
2.72434
2.72786
2.73263
2.73797
2.74271
2.74558
2.74613
2.74546
2.74446
2.74396
2.74434
2.74575
2.74831
2.7518
2.75553
2.759
2.76173
2.76353
2.76483
2.76588
2.7667
2.76736
2.76806
2.76916
2.7708
2.77281
2.77477
2.77626
2.77701
2.777
2.77674
2.77651
2.77681
2.77795
2.78013
2.78348
2.78763
2.79184
2.79522
2.79731
2.79817
2.79825
2.798
2.79737
2.7969
2.79701
2.79813
2.80061
2.80374
2.80644
2.80791
2.8081
2.80771
2.80744
2.80791
2.8094
2.81159
2.81392
2.81602
2.81791
2.81983
2.82198
2.8246
2.82786
2.83226
2.83915
2.85046
2.86729
2.88775
2.90642
2.91796
2.92191
1
1
1
1
1
1
1
1
1
1
1
1
1
1
1
1
1
1
1
1
1
1
1
1
1
1
1
1
1
1
1
1
1
1
1
1
1
1
1
1
1
1
1
1
1
1
1
1
1
1
1
1
1
1
1
1
1
1
1
1
1
1
1
1
1
1
1
1
1
1
1
1
1
1
1
1
1
1
1
1
1
1
1
1
1
1
1
1
1
1
1
1
1
1
1
1
1
1
1
1
1
1
1.00002
2.21276
2.6933
2.69152
2.69101
2.69309
2.69707
2.70199
2.70696
2.71128
2.71455
2.7169
2.71866
2.71996
2.72076
2.72101
2.72119
2.72184
2.72367
2.72734
2.73237
2.73793
2.74271
2.74546
2.74589
2.74518
2.74414
2.74353
2.74373
2.74478
2.7468
2.74977
2.75334
2.75698
2.76009
2.76229
2.76374
2.7647
2.76535
2.76585
2.76644
2.76743
2.76892
2.77074
2.77253
2.77407
2.77516
2.77568
2.77585
2.77592
2.77633
2.77741
2.77943
2.78259
2.78658
2.7907
2.79404
2.79613
2.79696
2.79696
2.79661
2.79591
2.7954
2.79552
2.79673
2.79936
2.8026
2.80537
2.80687
2.80704
2.80657
2.80624
2.80663
2.80799
2.81006
2.81228
2.81432
2.81624
2.81821
2.82051
2.82325
2.82645
2.83068
2.83741
2.84864
2.86554
2.88621
2.90512
2.91681
2.92088
1
1
1
1
1
1
1
1
1
1
1
1
1
1
1
1
1
1
1
1
1
1
1
1
1
1
1
1
1
1
1
1
1
1
1
1
1
1
1
1
1
1
1
1
1
1
1
1
1
1
1
1
1
1
1
1
1
1
1
1
1
1
1
1
1
1
1
1
1
1
1
1
1
1
1
1
1
1
1
1
1
1
1
1
1
1
1
1
1
1
1
1
1
1
1
1
1
1
1
1
1
1
1
2.12232
2.68977
2.68876
2.68846
2.69118
2.69611
2.70179
2.70723
2.71172
2.71497
2.71704
2.71854
2.71972
2.72048
2.72068
2.72087
2.72152
2.72328
2.72673
2.73156
2.73695
2.74159
2.74442
2.74514
2.74465
2.74383
2.74314
2.74297
2.7435
2.74483
2.74722
2.75067
2.75458
2.7582
2.76089
2.76254
2.76336
2.76377
2.7641
2.76463
2.7656
2.76698
2.7686
2.77027
2.77192
2.77342
2.77453
2.77516
2.77548
2.7759
2.77682
2.77858
2.78154
2.78544
2.78956
2.79293
2.79497
2.79568
2.79552
2.79498
2.79422
2.79376
2.79398
2.79535
2.79811
2.80137
2.80413
2.80566
2.80589
2.80545
2.80511
2.80539
2.80654
2.80839
2.81047
2.81251
2.81449
2.81661
2.81906
2.82184
2.82494
2.82898
2.83557
2.84676
2.86376
2.88461
2.90373
2.9155
2.91965
1
1
1
1
1
1
1
1
1
1
1
1
1
1
1
1
1
1
1
1
1
1
1
1
1
1
1
1
1
1
1
1
1
1
1
1
1
1
1
1
1
1
1
1
1
1
1
1
1
1
1
1
1
1
1
1
1
1
1
1
1
1
1
1
1
1
1
1
1
1
1
1
1
1
1
1
1
1
1
1
1
1
1
1
1
1
1
1
1
1
1
1
1
1
1
1
1
1
1
1
1
1
1
2.0144
2.6783
2.68706
2.68638
2.68895
2.69395
2.70002
2.70587
2.71051
2.71385
2.71615
2.71773
2.71899
2.71985
2.72024
2.72062
2.72129
2.72282
2.72575
2.73001
2.73492
2.73937
2.7425
2.74388
2.74386
2.74343
2.74266
2.74199
2.74191
2.74253
2.74435
2.74768
2.75194
2.75613
2.75935
2.76122
2.76192
2.76203
2.76216
2.76262
2.76359
2.76491
2.76641
2.76805
2.7699
2.77187
2.77358
2.77465
2.77515
2.7755
2.77618
2.77763
2.78035
2.78417
2.78835
2.79177
2.79374
2.79428
2.79394
2.79318
2.79239
2.79204
2.79243
2.79403
2.79683
2.80002
2.8027
2.80425
2.8046
2.80428
2.80399
2.80415
2.80504
2.80663
2.80857
2.81063
2.81272
2.815
2.81758
2.82033
2.82331
2.82719
2.83368
2.84487
2.86196
2.88297
2.90223
2.914
2.91818
1
1
1
1
1
1
1
1
1
1
1
1
1
1
1
1
1
1
1
1
1
1
1