/*--------------------------------*- C++ -*----------------------------------*\
  =========                 |
  \\      /  F ield         | OpenFOAM: The Open Source CFD Toolbox
   \\    /   O peration     | Website:  https://openfoam.org
    \\  /    A nd           | Version:  7
     \\/     M anipulation  |
\*---------------------------------------------------------------------------*/
FoamFile
{
    version     2.0;
    format      ascii;
    class       volScalarField;
    location    "2.3";
    object      p;
}
// * * * * * * * * * * * * * * * * * * * * * * * * * * * * * * * * * * * * * //

dimensions      [1 -1 -2 0 0 0 0];

internalField   nonuniform List<scalar> 
16128
(
1
1
1
1
1
1
1
1
1
1
1
1
1
1
1
1
1
1
1
1
1
1
1
1
2.44887
9.20303
10.5409
10.6211
10.7451
10.8578
10.9662
11.0673
11.163
11.2538
11.3409
11.4248
11.5044
11.5788
11.6493
11.7155
11.7764
11.8313
11.8822
11.9293
11.9719
12.003
12.0285
12.0454
1
1
1
1
1
1
1
1
1
1
1
1
1
1
1
1
1
1
1
1
1
1
1
1
2.40289
9.14002
10.5359
10.6198
10.7423
10.8538
10.9617
11.0624
11.1578
11.2484
11.335
11.4181
11.4967
11.5704
11.6404
11.7062
11.7666
11.8211
11.8713
11.9174
11.9588
11.9891
12.014
12.0307
1
1
1
1
1
1
1
1
1
1
1
1
1
1
1
1
1
1
1
1
1
1
1
1
2.27787
9.01985
10.5236
10.6048
10.7295
10.8424
10.9511
11.0521
11.1476
11.2381
11.3244
11.4069
11.4846
11.5576
11.6268
11.6919
11.752
11.8062
11.8555
11.9003
11.9394
11.9681
11.9917
12.0078
1
1
1
1
1
1
1
1
1
1
1
1
1
1
1
1
1
1
1
1
1
1
1
1
2.10861
8.84068
10.5117
10.5894
10.7136
10.8249
10.9326
11.033
11.1281
11.2183
11.3041
11.386
11.4631
11.5357
11.6043
11.6687
11.7285
11.7825
11.8314
11.8751
11.9117
11.9388
11.9602
11.9752
1
1
1
1
1
1
1
1
1
1
1
1
1
1
1
1
1
1
1
1
1
1
1
1
1.90898
8.58372
10.5004
10.5716
10.6928
10.8014
10.9077
11.0072
11.1017
11.1914
11.2762
11.3571
11.4331
11.5048
11.5722
11.6353
11.6942
11.7479
11.7966
11.8404
11.8757
11.9021
11.9216
11.9358
1
1
1
1
1
1
1
1
1
1
1
1
1
1
1
1
1
1
1
1
1
1
1
1
1.68916
8.2457
10.4959
10.5564
10.6717
10.7758
10.8796
10.9775
11.0706
11.1587
11.2417
11.3206
11.3949
11.4652
11.5313
11.5933
11.6516
11.7055
11.7546
11.7984
11.8319
11.8566
11.8727
11.8845
1
1
1
1
1
1
1
1
1
1
1
1
1
1
1
1
1
1
1
1
1
1
1
1
1.45077
7.80263
10.4917
10.5354
10.6446
10.7448
10.8461
10.9422
11.0337
11.1201
11.2012
11.278
11.3505
11.4194
11.4842
11.5448
11.6014
11.654
11.7018
11.7445
11.7765
11.8002
11.8145
11.8254
1
1
1
1
1
1
1
1
1
1
1
1
1
1
1
1
1
1
1
1
1
1
1
1
1.21391
7.30255
10.4816
10.509
10.6074
10.7025
10.7996
10.8938
10.9834
11.0674
11.1455
11.2191
11.2887
11.3555
11.419
11.4789
11.5346
11.5869
11.6342
11.6766
11.708
11.7304
11.7435
11.7527
1
1
1
1
1
1
1
1
1
1
1
1
1
1
1
1
1
1
1
1
1
1
1
1
1.01276
6.66551
10.4094
10.4606
10.5526
10.6485
10.7423
10.8346
10.9231
11.0059
11.0819
11.1528
11.2194
11.2832
11.3438
11.4002
11.4516
11.4994
11.5421
11.5814
11.6116
11.6351
11.6497
11.6613
1
1
1
1
1
1
1
1
1
1
1
1
1
1
1
1
1
1
1
1
1
1
1
1
1.0001
5.88489
10.264
10.3918
10.487
10.5884
10.6842
10.7772
10.8635
10.943
11.015
11.082
11.1451
11.2054
11.2627
11.3156
11.3633
11.4071
11.4454
11.4805
11.505
11.5228
11.5331
11.5414
1
1
1
1
1
1
1
1
1
1
1
1
1
1
1
1
1
1
1
1
1
1
1
1
1
5.02445
10.0647
10.3223
10.4298
10.5324
10.6242
10.7126
10.7951
10.8711
10.9393
11.0016
11.0592
11.1137
11.1656
11.213
11.2543
11.2901
11.32
11.3459
11.3627
11.3771
11.3856
11.3965
1
1
1
1
1
1
1
1
1
1
1
1
1
1
1
1
1
1
1
1
1
1
1
1
1
4.10452
9.76719
10.2651
10.3793
10.4848
10.5756
10.6587
10.734
10.8019
10.8609
10.9145
10.9644
11.0115
11.0562
11.0963
11.1297
11.1562
11.1791
11.1974
11.205
11.2059
11.1987
11.1936
1
1
1
1
1
1
1
1
1
1
1
1
1
1
1
1
1
1
1
1
1
1
1
1
1
3.19568
9.32251
10.2499
10.336
10.4338
10.5237
10.6053
10.6757
10.7366
10.7877
10.8321
10.8713
10.9066
10.9396
10.9684
10.9894
11.0032
11.0113
11.0063
10.9911
10.9721
10.9498
10.9508
1
1
1
1
1
1
1
1
1
1
1
1
1
1
1
1
1
1
1
1
1
1
1
1
1
2.26766
8.61411
10.2688
10.3062
10.4022
10.4777
10.5475
10.6096
10.6628
10.7066
10.7427
10.7719
10.7952
10.8152
10.83
10.8343
10.8305
10.8156
10.7901
10.7554
10.7138
10.6474
10.5695
1
1
1
1
1
1
1
1
1
1
1
1
1
1
1
1
1
1
1
1
1
1
1
1
1
1.42486
7.84861
10.3784
10.2453
10.3185
10.3939
10.4724
10.5348
10.5832
10.6203
10.6482
10.6685
10.6792
10.6853
10.6834
10.668
10.6416
10.5985
10.5383
10.4437
10.307
10.1609
10.0492
1
1
1
1
1
1
1
1
1
1
1
1
1
1
1
1
1
1
1
1
1
1
1
1
1
1.02372
6.74772
10.1566
10.1239
10.2327
10.3071
10.383
10.4424
10.486
10.5176
10.5393
10.5488
10.5484
10.5401
10.5203
10.484
10.431
10.3508
10.2373
10.0774
9.87355
9.65356
9.55571
1
1
1
1
1
1
1
1
1
1
1
1
1
1
1
1
1
1
1
1
1
1
1
1
1
1.00004
5.2871
9.78617
10.0194
10.1467
10.2184
10.2817
10.3328
10.3732
10.4027
10.4185
10.4198
10.4093
10.3872
10.3492
10.2891
10.2058
10.0856
9.92124
9.67897
9.28703
8.42871
6.47526
1
1
1
1
1
1
1
1
1
1
1
1
1
1
1
1
1
1
1
1
1
1
1
1
1
1
3.90936
9.35955
9.98392
10.0924
10.1723
10.2054
10.2333
10.2603
10.2817
10.2888
10.2814
10.2602
10.224
10.1671
10.082
9.96667
9.80469
9.57404
9.22925
8.62198
7.68412
5.48162
1
1
1
1
1
1
1
1
1
1
1
1
1
1
1
1
1
1
1
1
1
1
1
1
1
1
2.50056
8.59726
9.98821
10.0273
10.0835
10.1138
10.1427
10.1616
10.1714
10.1652
10.1451
10.1091
10.0562
9.97902
9.86969
9.72191
9.51976
9.23102
8.81268
8.14383
7.05673
5.13136
1
1
1
1
1
1
1
1
1
1
1
1
1
1
1
1
1
1
1
1
1
1
1
1
1
1
1.33124
7.63088
10.1134
9.98936
9.99898
10.0208
10.041
10.0517
10.0515
10.0333
10.0025
9.9537
9.88542
9.78947
9.65803
9.48076
9.24198
8.91215
8.43607
7.76385
6.64361
5.10804
1
1
1
1
1
1
1
1
1
1
1
1
1
1
1
1
1
1
1
1
1
1
1
1
1
1
1.0122
6.16881
9.71037
9.75284
9.83044
9.88644
9.91823
9.93284
9.92773
9.90119
9.86041
9.7993
9.71517
9.60047
9.44798
9.24601
8.97795
8.62188
8.12809
7.46501
6.42115
5.20639
1
1
1
1
1
1
1
1
1
1
1
1
1
1
1
1
1
1
1
1
1
1
1
1
1
1
0.999944
4.33016
9.26883
9.7161
9.78303
9.8139
9.82777
9.83167
9.81463
9.77733
9.72276
9.64758
9.54855
9.41781
9.2478
9.02758
8.74012
8.36768
7.87802
7.23242
6.31932
5.33216
1
1
1
1
1
1
1
1
1
1
1
1
1
1
1
1
1
1
1
1
1
1
1
1
1
1
0.999985
2.50808
8.51339
9.71104
9.70032
9.73282
9.74275
9.73223
9.70185
9.65312
9.585
9.49664
9.38458
9.24134
9.0577
8.82458
8.52583
8.14883
7.6695
7.05846
6.27567
5.44636
1
1
1
1
1
1
1
1
1
1
1
1
1
1
1
1
1
1
1
1
1
1
1
1
1
1
0.999997
1.20939
7.26748
9.8036
9.66909
9.63378
9.63651
9.62138
9.58647
9.53142
9.45297
9.35233
9.22708
9.07257
8.87918
8.63959
8.33842
7.96903
7.49676
6.93223
6.26034
5.54428
1
1
1
1
1
1
1
1
1
1
1
1
1
1
1
1
1
1
1
1
1
1
1
1
1
1
1
1.00408
5.44985
9.27131
9.45364
9.52474
9.53377
9.5067
9.46745
9.40689
9.32181
9.2121
9.07623
8.91284
8.71383
8.47149
8.17397
7.81918
7.35866
6.84566
6.25447
5.62861
1
1
1
1
1
1
1
1
1
1
1
1
1
1
1
1
1
1
1
1
1
1
1
1
1
1
1
0.999956
3.18819
8.66063
9.44038
9.44723
9.44602
9.41981
9.37016
9.29757
9.20275
9.08394
8.93836
8.76675
8.56372
8.32119
8.03007
7.68681
7.25261
6.78964
6.25948
5.71511
1
1
1
1
1
1
1
1
1
1
1
1
1
1
1
1
1
1
1
1
1
1
1
1
1
1
1
0.999989
1.41068
7.62035
9.5681
9.40142
9.33929
9.30903
9.25221
9.17643
9.07829
8.95601
8.807
8.63128
8.4269
8.18653
7.90262
7.56999
7.16991
6.7487
6.26881
5.7893
1
1
1
1
1
1
1
1
1
1
1
1
1
1
1
1
1
1
1
1
1
1
1
1
1
1
1
0.999998
1.01617
5.73508
9.07558
9.1817
9.22802
9.20144
9.13682
9.05887
8.95749
8.83357
8.68528
8.50942
8.30641
8.0685
7.78975
7.46924
7.1043
6.71578
6.28338
5.85216
1
1
1
1
1
1
1
1
1
1
1
1
1
1
1
1
1
1
1
1
1
1
1
1
1
1
1
1
0.999914
3.19184
8.45916
9.17097
9.16324
9.12579
9.05396
8.96565
8.85619
8.72535
8.57405
8.39691
8.19618
7.95934
7.68658
7.38311
7.04865
6.68495
6.29503
5.89891
1
1
1
1
1
1
1
1
1
1
1
1
1
1
1
1
1
1
1
1
1
1
1
1
1
1
1
1
0.999978
1.34184
7.26585
9.28925
9.12547
9.02548
8.94667
8.85284
8.74243
8.61356
8.46459
8.29388
8.09382
7.86548
7.60233
7.3156
7.00363
6.66174
6.30531
5.93499
1
1
1
1
1
1
1
1
1
1
1
1
1
1
1
1
1
1
1
1
1
1
1
1
1
1
1
1
0.999996
1.01043
5.11164
8.78396
8.92539
8.91516
8.84546
8.74878
8.63977
8.51319
8.36699
8.19843
8.00036
7.77912
7.52773
7.25701
6.96149
6.64024
6.30968
5.96103
1
1
1
1
1
1
1
1
1
1
1
1
1
1
1
1
1
1
1
1
1
1
1
1
1
1
1
1
1
0.999943
2.44393
8.11294
8.93494
8.84677
8.75665
8.66388
8.55566
8.42955
8.28437
8.11835
7.92616
7.70879
7.46724
7.21014
6.92833
6.62665
6.31517
5.98785
1
1
1
1
1
1
1
1
1
1
1
1
1
1
1
1
1
1
1
1
1
1
1
1
1
1
1
1
1
0.999986
1.15631
6.38627
8.82792
8.72485
8.6551
8.56884
8.46915
8.34495
8.20134
8.03734
7.85115
7.64123
7.4102
7.16492
6.89751
6.6139
6.31771
6.01194
1
1
1
1
1
1
1
1
1
1
1
1
1
1
1
1
1
1
1
1
1
1
1
1
1
1
1
1
1
0.999998
1.00171
3.59174
8.19438
8.6059
8.57091
8.5093
8.41125
8.28252
8.13572
7.97241
7.78967
7.5861
7.36314
7.12611
6.87147
6.60292
6.32262
6.03574
1
1
1
1
1
1
1
1
1
1
1
1
1
1
1
1
1
1
1
1
1
1
1
1
1
1
1
1
1
1
0.999995
1.4269
6.93936
8.71946
8.56447
8.46126
8.34668
8.21016
8.06024
7.90094
7.7256
7.5314
7.31821
7.08926
6.84463
6.58889
6.32448
6.05354
1
1
1
1
1
1
1
1
1
1
1
1
1
1
1
1
1
1
1
1
1
1
1
1
1
1
1
1
1
1
0.999999
1.01485
4.43495
8.2183
8.39353
8.3557
8.26836
8.15017
8.00621
7.84884
7.67556
7.48629
7.27976
7.05687
6.8207
6.57761
6.32799
6.07155
1
1
1
1
1
1
1
1
1
1
1
1
1
1
1
1
1
1
1
1
1
1
1
1
1
1
1
1
1
1
1
0.999997
1.72014
7.18767
8.52377
8.35701
8.22941
8.10095
7.95544
7.79817
7.62636
7.44149
7.24144
7.0273
6.80232
6.57199
6.335
6.09037
1
1
1
1
1
1
1
1
1
1
1
1
1
1
1
1
1
1
1
1
1
1
1
1
1
1
1
1
1
1
1
0.999998
1.04103
4.89941
8.14328
8.21269
8.13996
8.03231
7.89822
7.74853
7.58159
7.40121
7.20718
7.00223
6.78813
6.56713
6.33858
6.10452
1
1
1
1
1
1
1
1
1
1
1
1
1
1
1
1
1
1
1
1
1
1
1
1
1
1
1
1
1
1
1
1
1.00011
1.93593
7.19832
8.27814
8.12783
8.00273
7.86337
7.71123
7.54479
7.36686
7.17789
6.98095
6.77628
6.5643
6.34477
6.12125
1
1
1
1
1
1
1
1
1
1
1
1
1
1
1
1
1
1
1
1
1
1
1
1
1
1
1
1
1
1
1
1
1
1.06583
4.99661
8.00719
8.03438
7.93556
7.80754
7.66112
7.5002
7.32918
7.14921
6.96088
6.76406
6.55991
6.34912
6.13302
1
1
1
1
1
1
1
1
1
1
1
1
1
1
1
1
1
1
1
1
1
1
1
1
1
1
1
1
1
1
1
1
1
1.00036
2.00497
7.00205
8.05421
7.9115
7.7796
7.63162
7.47261
7.30646
7.13191
6.94782
6.75545
6.55699
6.35441
6.1468
1
1
1
1
1
1
1
1
1
1
1
1
1
1
1
1
1
1
1
1
1
1
1
1
1
1
1
1
1
1
1
1
1
1
1.07377
4.742
7.80485
7.85021
7.72864
7.58851
7.43603
7.27581
7.10675
6.92827
6.74306
6.55298
6.35896
6.16188
1
1
1
1
1
1
1
1
1
1
1
1
1
1
1
1
1
1
1
1
1
1
1
1
1
1
1
1
1
1
1
1
1
1
1.00055
1.89592
6.65536
7.84674
7.7043
7.56985
7.41798
7.25899
7.09351
6.92022
6.74111
6.55798
6.37065
6.18065
1
1
1
1
1
1
1
1
1
1
1
1
1
1
1
1
1
1
1
1
1
1
1
1
1
1
1
1
1
1
1
1
1
1
1
1.05835
4.14677
7.51747
7.66552
7.53138
7.38366
7.23037
7.07241
6.90775
6.73649
6.56043
6.3814
6.19846
1
1
1
1
1
1
1
1
1
1
1
1
1
1
1
1
1
1
1
1
1
1
1
1
1
1
1
1
1
1
1
1
1
1
1
1.00047
1.64257
6.11842
7.68409
7.51678
7.37557
7.22685
7.07134
6.90958
6.74277
6.5706
6.39566
6.21769
1
1
1
1
1
1
1
1
1
1
1
1
1
1
1
1
1
1
1
1
1
1
1
1
1
1
1
1
1
1
1
1
1
1
1
1
1.03108
3.22636
7.09847
7.48444
7.3496
7.21037
7.0557
6.89626
6.73551
6.57113
6.40018
6.22596
1
1
1
1
1
1
1
1
1
1
1
1
1
1
1
1
1
1
1
1
1
1
1
1
1
1
1
1
1
1
1
1
1
1
1
1
1.00024
1.33483
5.36362
7.52134
7.36434
7.21753
7.05553
6.89946
6.74258
6.58309
6.41591
6.24382
1
1
1
1
1
1
1
1
1
1
1
1
1
1
1
1
1
1
1
1
1
1
1
1
1
1
1
1
1
1
1
1
1
1
1
1
1
1.00936
2.41361
6.56831
7.3176
7.17225
7.03444
6.88921
6.73663
6.57983
6.4202
6.25631
1
1
1
1
1
1
1
1
1
1
1
1
1
1
1
1
1
1
1
1
1
1
1
1
1
1
1
1
1
1
1
1
1
1
1
1
1
1.00005
1.13762
4.19573
7.1166
7.18891
7.05662
6.91339
6.76063
6.60303
6.44476
6.28535
1
1
1
1
1
1
1
1
1
1
1
1
1
1
1
1
1
1
1
1
1
1
1
1
1
1
1
1
1
1
1
1
1
1
1
1
1
1
1.00221
1.69602
5.69521
7.21187
7.05542
6.90871
6.75817
6.60739
6.45571
6.30149
1
1
1
1
1
1
1
1
1
1
1
1
1
1
1
1
1
1
1
1
1
1
1
1
1
1
1
1
1
1
1
1
1
1
1
1
1
1
1.00001
1.03672
2.85226
6.54013
7.0429
6.90152
6.76085
6.61859
6.47233
6.32253
1
1
1
1
1
1
1
1
1
1
1
1
1
1
1
1
1
1
1
1
1
1
1
1
1
1
1
1
1
1
1
1
1
1
1
1
1
1
1
1.00037
1.23281
4.42056
6.88369
6.9294
6.79456
6.65109
6.50278
6.35216
1
1
1
1
1
1
1
1
1
1
1
1
1
1
1
1
1
1
1
1
1
1
1
1
1
1
1
1
1
1
1
1
1
1
1
1
1
1
1
1
1.0055
1.83052
5.5874
6.90885
6.80129
6.65772
6.51347
6.36542
1
1
1
1
1
1
1
1
1
1
1
1
1
1
1
1
1
1
1
1
1
1
1
1
1
1
1
1
1
1
1
1
1
1
1
1
1
1
1
1
1.00003
1.05141
2.84806
6.28752
6.79881
6.66984
6.52261
6.38082
1
1
1
1
1
1
1
1
1
1
1
1
1
1
1
1
1
1
1
1
1
1
1
1
1
1
1
1
1
1
1
1
1
1
1
1
1
1
1
1
1
1.00062
1.23561
4.1384
6.54732
6.69504
6.56194
6.41365
1
1
1
1
1
1
1
1
1
1
1
1
1
1
1
1
1
1
1
1
1
1
1
1
1
1
1
1
1
1
1
1
1
1
1
1
1
1
1
1
1
1
1.00599
1.70515
5.14399
6.63423
6.58991
6.44411
1
1
1
1
1
1
1
1
1
1
1
1
1
1
1
1
1
1
1
1
1
1
1
1
1
1
1
1
1
1
1
1
1
1
1
1
1
1
1
1
1
1
1.00004
1.03892
2.4675
5.82277
6.56609
6.46672
1
1
1
1
1
1
1
1
1
1
1
1
1
1
1
1
1
1
1
1
1
1
1
1
1
1
1
1
1
1
1
1
1
1
1
1
1
1
1
1
1
1
1
1.00046
1.15398
3.43533
6.19477
6.49334
1
1
1
1
1
1
1
1
1
1
1
1
1
1
1
1
1
1
1
1
1
1
1
1
1
1
1
1
1
1
1
1
1
1
1
1
1
1
1
1
1
1
1
1
1.00321
1.42448
4.40629
6.29188
1
1
1
1
1
1
1
1
1
1
1
1
1
1
1
1
1
1
1
1
1
1
1
1
1
1
1
1
1
1
1
1
1
1
1
1
1
1
1
1
1
1
1
1
1.00002
1.01667
1.90493
5.08976
1
1
1
1
1
1
1
1
1
1
1
1
1
1
1
1
1
1
1
1
1
1
1
1
1
1
1
1
1
1
1
1
1
1
1
1
1
1
1
1
1
1
1
1
1
1.00015
1.06312
2.53945
1
1
1
1
1
1
1
1
1
1
1
1
1
1
1
1
1
1
1
1
1
1
1
1
1
1
1
1
1
1
1
1
1
1
1
1
1
1
1
1
1
1
1
1
1
1
1.00095
1.17396
1
1
1
1
1
1
1
1
1
1
1
1
1
1
1
1
1
1
1
1
1
1
1
1
1
1
1
1
1
1
1
1
1
1
1
1
1
1
1
1
1
1
1
1
1
1
1
1.00411
1
1
1
1
1
1
1
1
1
1
1
1
1
1
1
1
1
1
1
1
1
1
1
1
1
1
1
1
1
1
1
1
1
1
1
1
1
1
1
1
1
1
1
1
1
1
1
1.00002
1
1
1
1
1
1
1
1
1
1
1
1
1
1
1
1
1
1
1
1
1
1
1
1
1
1
1
1
1
1
1
1
1
1
1
1
1
1
1
1
1
1
1
1
1
1
1
1
1
1
1
1
1
1
1
1
1
1
1
1
1
1
1
1
1
1
1
1
1
1
1
1
1
1
1
1
1
1
1
1
1
1
1
1
1
1
1
1
1
1
1
1
1
1
1
1
1
1
1
1
1
1
1
1
1
1
1
1
1
1
1
1
1
1
1
1
1
1
1
1
1
1
1
1
1
1
1
1
1
1
1
1
1
1
1
1
1
1
1
1
1
1
1
1
1
1
1
1
1
1
1
1
1
1
1
1
1
1
1
1
1
1
1
1
1
1
1
1
1
1
1
1
1
1
1
1
1
1
1
1
1
1
1
1
1
1
1
1
1
1
1
1
1
1
1
1
1
1
1
1
1
1
1
1
1
1
1
1
1
1
1
1
1
1
1
1
1
1
1
1
1
1
1
1
1
1
1
1
1
1
1
1
1
1
1
1
1
1
1
1
1
1
1
1
1
1
1
1
1
1
1
1
1
1
1
1
1
1
1
1
1
1
1
1
1
1
1
1
1
1
1
1
1
1
1
1
1
1
1
1
1
1
1
1
1
1
1
1
1
1
1
1
1
1
1
1
1
1
1
1
1
1
1
1
1
1
1
1
1
1
1
1
1
1
1
1
1
1
1
1
1
1
1
1
1
1
1
1
1
1
1
1
1
1
1
1
1
1
1
1
1
1
1
1
1
1
1
1
1
1
1
1
1
1
1
1
1
1
1
1
1
1
1
1
1
1
1
1
1
1
1
1
1
1
1
1
1
1
1
1
1
1
1
1
1
1
1
1
1
1
1
1
1
1
1
1
1
1
1
1
1
1
1
1
1
1
1
1
1
1
1
1
1
1
1
1
1
1
1
1
1
1
1
1
1
1
1
1
1
1
1
1
1
1
1
1
1
1
1
1
1
1
1
1
1
1
1
1
1
1
1
1
1
1
1
1
1
1
1
1
1
1
1
1
1
1
1
1
1
1
1
1
1
1
1
1
1
1
1
1
1
1
1
1
1
1
1
1
1
1
1
1
1
1
1
1
1
1
1
1
1
1
1
1
1
1
1
1
1
1
1
1
1
1
1
1
1
1
1
1
1
1
1
1
1
1
1
1
1
1
1
1
1
1
1
1
1
1
1
1
1
1
1
1
1
1
1
1
1
1
1
1
1
1
1
1
1
1
1
1
1
1
1
1
1
1
1
1
1
1
1
1
1
1
1
1
1
1
1
1
1
1
1
1
1
1
1
1
1
1
1
1
1
1
1
1
1
1
1
1
1
1
1
1
1
1
1
1
1
1
1
1
1
1
1
1
1
1
1
1
1
1
1
1
1
1
1
1
1
1
1
1
1
1
1
1
1
1
1
1
1
1
1
1
1
1
1
1
1
1
1
1
1
1
1
1
1
1
1
1
1
1
1
1
1
1
1
1
1
1
1
1
1
1
1
1
1
1
1
1
1
1
1
1
1
1
1
1
1
1
1
1
1
1
1
1
1
1
1
1
1
1
1
1
1
1
1
1
1
1
1
1
1
1
1
1
1
1
1
1
1
1
1
1
1
1
1
1
1
1
1
1
1
1
1
1
1
1
1
1
1
1
1
1
1
1
1
1
1
1
1
1
1
1
1
1
1
1
1
1
1
1
1
1
1
1
1
1
1.22683
0.163816
0.0786928
0.0748481
0.0552766
0.0632067
0.0897952
0.142854
0.208102
0.267254
0.346363
0.42045
0.485628
0.559541
0.648888
0.756789
0.867569
0.892231
0.884184
0.887646
0.921316
0.952653
0.979242
1.02473
1.05222
1.05115
1.06033
1.07793
1.10728
1.14093
1.16658
1.17127
1.16424
1.16689
1.18232
1.20741
1.23765
1.25354
1.25441
1.25116
1.24456
1.24434
1.24581
1.25099
1.26681
1.28458
1.29272
1.29638
1.2998
1.30613
1.31241
1.312
1.30845
1.29954
1.2914
1.2912
1.29509
1.30557
1.32078
1.32599
1.32278
1.31779
1.31379
1.31216
1.31348
1.31406
1.31074
1.30729
1.30673
1.3086
1.3146
1.31742
1.31642
1.31272
1.30409
1.30312
1.34434
1.68668
3.52422
6.86001
7.3296
7.07124
6.84611
6.64474
6.40306
6.32414
6.30247
6.26654
6.18274
6.07299
5.95909
5.85901
5.78259
5.73459
5.6921
5.63211
5.56519
5.49702
5.42781
5.36465
5.31436
5.26303
5.20563
5.14978
5.09712
5.04828
5.00402
4.96071
4.91041
4.85366
4.78913
4.71315
4.63609
4.57434
4.52606
4.48145
4.43598
4.38865
4.3422
4.30102
4.26452
4.23412
4.21196
4.19439
4.1704
4.13527
4.09088
4.0247
3.94097
3.8818
3.84554
3.81493
3.79279
3.7808
3.76498
3.73932
3.70771
3.66159
3.60044
3.55077
3.51615
3.48829
3.46476
3.44835
3.44196
3.43166
3.40961
3.37773
3.3274
3.25413
3.18006
3.12773
3.09259
3.06739
3.04877
3.03338
3.01994
3.00928
2.99748
2.98237
2.96344
2.94039
2.91532
2.88386
2.83866
2.78748
2.75141
2.73054
2.7141
2.69976
2.69292
2.70146
2.70579
2.68914
2.66665
2.63261
2.57305
2.51037
2.4754
2.45717
2.44429
2.43509
2.4333
2.43341
2.42011
2.40056
2.37201
2.33017
2.29245
2.26511
2.24805
2.23035
2.12298
0.775252
0.481323
0.406911
0.280264
0.186804
0.183943
0.210439
0.225734
0.23707
0.254027
0.283733
0.32501
0.37841
0.43393
0.503905
0.619306
0.704988
0.734911
0.762441
0.806792
0.863165
0.918574
0.965665
1.01011
1.04171
1.06846
1.09629
1.11114
1.11516
1.12225
1.13992
1.14968
1.1559
1.17492
1.19913
1.21962
1.23952
1.24749
1.24881
1.24742
1.24381
1.24537
1.25062
1.26384
1.27984
1.28385
1.28383
1.28398
1.28571
1.29223
1.30127
1.30571
1.30644
1.30168
1.29615
1.29644
1.30228
1.31497
1.3252
1.32615
1.32217
1.31494
1.30959
1.30899
1.3112
1.31369
1.3131
1.31227
1.31274
1.31457
1.31536
1.31356
1.30979
1.30707
1.34047
1.65173
2.35959
3.07665
5.12439
6.49279
6.73056
6.69477
6.53069
6.34444
6.28373
6.27315
6.25625
6.17279
6.06973
5.9597
5.86242
5.78115
5.71878
5.67145
5.61534
5.55342
5.491
5.42829
5.36869
5.31236
5.2516
5.18967
5.12566
5.06525
5.01356
4.969
4.93392
4.89962
4.85486
4.8038
4.74566
4.67651
4.60251
4.54007
4.49099
4.44535
4.3995
4.35378
4.31031
4.27172
4.2383
4.20885
4.17877
4.1438
4.10656
4.06725
4.019
3.96632
3.91502
3.86774
3.83081
3.80319
3.77895
3.75053
3.72141
3.69151
3.65605
3.61414
3.5736
3.53581
3.50173
3.47355
3.45098
3.42755
3.4008
3.37518
3.34581
3.30774
3.26135
3.21458
3.16694
3.12104
3.0847
3.0586
3.03812
3.01966
3.00014
2.97952
2.96111
2.9453
2.93037
2.91209
2.88747
2.85386
2.81355
2.7732
2.74205
2.72098
2.70551
2.69427
2.68618
2.6778
2.66686
2.64976
2.62361
2.58431
2.53909
2.49752
2.467
2.44859
2.43623
2.42477
2.41457
2.40539
2.39087
2.37006
2.34167
2.31099
2.28314
2.26232
2.23662
2.91721
1.7424
1.10223
0.82212
0.648195
0.438557
0.34483
0.360251
0.355078
0.330744
0.311485
0.314693
0.337034
0.371031
0.394644
0.397181
0.42221
0.4945
0.584867
0.644795
0.690524
0.749221
0.821594
0.892434
0.963571
1.02417
1.07343
1.11379
1.11797
1.1136
1.11424
1.12708
1.14402
1.16885
1.20473
1.22214
1.22634
1.22885
1.23096
1.23428
1.23976
1.24666
1.25335
1.2606
1.27001
1.28384
1.29204
1.29372
1.29305
1.2878
1.28439
1.28742
1.2933
1.30279
1.3086
1.30799
1.30416
1.30285
1.30555
1.31318
1.32113
1.32305
1.32227
1.31748
1.31053
1.30896
1.31017
1.31376
1.31766
1.31831
1.31654
1.31159
1.30544
1.30953
1.36604
1.65321
2.42398
3.09591
3.04327
3.50224
5.04502
6.50136
6.76569
6.64826
6.5046
6.37405
6.28196
6.22509
6.15262
6.07766
5.98748
5.89137
5.80422
5.72834
5.66716
5.60326
5.53892
5.47793
5.42308
5.3744
5.32061
5.26263
5.20238
5.13563
5.06615
5.0018
4.94457
4.89604
4.854
4.82072
4.78656
4.74535
4.70126
4.6469
4.58172
4.52012
4.46871
4.42319
4.38056
4.33973
4.29941
4.25745
4.212
4.16319
4.11508
4.0685
4.0208
3.984
3.95942
3.93422
3.90419
3.87037
3.82944
3.78258
3.737
3.6961
3.65691
3.62537
3.60372
3.58297
3.55949
3.53201
3.49681
3.45439
3.41265
3.37558
3.33837
3.30281
3.26878
3.24461
3.22484
3.20234
3.17138
3.13054
3.0862
3.04734
3.01523
2.98712
2.96248
2.94156
2.92204
2.90243
2.88313
2.86576
2.84923
2.82976
2.80587
2.77714
2.74527
2.71487
2.6923
2.67539
2.65793
2.6369
2.6161
2.59578
2.57607
2.55572
2.53289
2.50282
2.46559
2.43287
2.41323
2.39775
2.38159
2.36551
2.35091
2.33805
2.32283
2.30611
2.2866
2.24701
3.53258
2.50696
1.76534
1.31167
1.08381
0.863011
0.669689
0.559984
0.534355
0.525069
0.501924
0.467662
0.435156
0.421349
0.419083
0.405808
0.406929
0.42335
0.462602
0.514065
0.557923
0.60442
0.670704
0.751773
0.844183
0.932246
0.982405
1.02141
1.04937
1.06047
1.07639
1.10032
1.13123
1.18335
1.2241
1.22826
1.22899
1.22768
1.22474
1.22518
1.23162
1.23689
1.23901
1.24312
1.24895
1.25785
1.27392
1.28798
1.29139
1.29131
1.2837
1.28036
1.28381
1.29138
1.30412
1.30909
1.30734
1.30374
1.30372
1.30667
1.31391
1.32085
1.32264
1.32088
1.31425
1.31053
1.31083
1.31382
1.31821
1.31849
1.31536
1.30599
1.3069
1.36034
1.71414
2.40115
3.07164
3.2564
3.1677
3.15908
3.49827
4.89105
6.07732
6.47295
6.5837
6.43316
6.28681
6.17534
6.10412
6.0481
5.97636
5.88397
5.80041
5.72602
5.65934
5.59664
5.53543
5.47697
5.41935
5.35985
5.29798
5.23604
5.17623
5.11653
5.05935
5.00618
4.95379
4.89861
4.84344
4.79942
4.76018
4.72193
4.6819
4.63664
4.58162
4.52585
4.47769
4.43398
4.39258
4.35214
4.3107
4.2655
4.21415
4.15722
4.09889
4.04483
4.00384
3.97467
3.95436
3.93959
3.91885
3.88922
3.85132
3.79717
3.73424
3.67933
3.64098
3.61546
3.59531
3.5803
3.56563
3.54482
3.51717
3.47346
3.41118
3.34973
3.30268
3.26577
3.24237
3.2288
3.22045
3.20936
3.19343
3.16975
3.13046
3.07839
3.02595
2.98209
2.94847
2.92236
2.90027
2.88068
2.8639
2.84953
2.83661
2.82525
2.81257
2.79587
2.77456
2.74515
2.70793
2.67019
2.63989
2.61436
2.59022
2.57182
2.56175
2.55553
2.54383
2.52746
2.50132
2.45667
2.40819
2.37908
2.36123
2.34716
2.33746
2.33543
2.32932
2.31567
2.30217
2.26147
3.99999
3.08334
2.35063
1.85441
1.51568
1.27596
1.07675
0.868362
0.734569
0.694911
0.675374
0.653078
0.604907
0.543487
0.529565
0.514618
0.483933
0.475905
0.483421
0.508503
0.516563
0.517157
0.524748
0.55028
0.604059
0.695372
0.78832
0.867083
0.939479
0.987788
1.01874
1.04254
1.07644
1.13622
1.18367
1.19669
1.2012
1.20444
1.2123
1.22712
1.24623
1.24968
1.24759
1.2412
1.24302
1.24965
1.26548
1.28871
1.29779
1.29989
1.2965
1.28168
1.27525
1.276
1.28223
1.29633
1.30434
1.30937
1.3161
1.31822
1.31923
1.31979
1.31802
1.31473
1.31009
1.30768
1.30814
1.31088
1.31506
1.3151
1.31253
1.31663
1.36629
1.72891
2.51464
3.04989
3.26416
3.24602
3.21014
3.17511
3.17236
3.44899
4.50877
5.69777
6.41997
6.42968
6.35126
6.21448
6.07645
6.00057
5.92659
5.86115
5.80774
5.75298
5.68404
5.61582
5.54957
5.48755
5.42772
5.36494
5.29744
5.22429
5.15282
5.09251
5.04283
4.99623
4.94951
4.90047
4.84721
4.7944
4.74883
4.70603
4.66102
4.61125
4.55987
4.51711
4.48019
4.44399
4.40607
4.36551
4.32053
4.26743
4.2034
4.13397
4.07345
4.03145
4.00141
3.97731
3.96096
3.94695
3.92346
3.89383
3.85335
3.79157
3.72243
3.67215
3.64043
3.61589
3.59569
3.58055
3.56432
3.54396
3.51758
3.47197
3.40602
3.33663
3.28433
3.25599
3.2392
3.22701
3.21943
3.2091
3.19492
3.17647
3.14487
3.09669
3.04293
2.99369
2.95202
2.91877
2.89364
2.87406
2.85677
2.84102
2.8274
2.81572
2.80601
2.79582
2.78105
2.76217
2.73276
2.68367
2.62754
2.59061
2.57061
2.55871
2.55242
2.54927
2.54012
2.52668
2.50977
2.48035
2.4292
2.37721
2.35186
2.33927
2.33024
2.32848
2.32527
2.31329
2.30209
2.26679
4.35515
3.54538
2.87548
2.3685
1.92388
1.6138
1.44272
1.27322
1.06765
0.874669
0.821897
0.827526
0.806798
0.744971
0.687456
0.659506
0.624429
0.579021
0.558628
0.556849
0.55619
0.544913
0.534631
0.533689
0.539544
0.557048
0.58888
0.633766
0.690611
0.766921
0.847727
0.918973
0.984821
1.06587
1.13205
1.16688
1.17822
1.18069
1.18889
1.20884
1.23373
1.23829
1.23617
1.23014
1.23162
1.23709
1.24967
1.27458
1.29303
1.2959
1.29512
1.28243
1.26474
1.26282
1.26768
1.28626
1.31132
1.32143
1.32338
1.32165
1.3143
1.31097
1.30979
1.30802
1.30571
1.30293
1.30246
1.30372
1.30773
1.31172
1.32007
1.38497
1.73047
2.61692
3.09632
3.26587
3.28328
3.25142
3.21363
3.19623
3.16668
3.14356
3.30435
4.08888
5.50372
6.12994
6.30923
6.24255
6.09389
5.9884
5.89411
5.83382
5.79524
5.75884
5.70435
5.63791
5.56183
5.48666
5.41478
5.34625
5.28134
5.21198
5.14285
5.08945
5.04105
4.9936
4.94758
4.90007
4.84749
4.78892
4.73232
4.68168
4.63238
4.58301
4.54072
4.50544
4.47404
4.44256
4.40667
4.36828
4.32363
4.2681
4.20237
4.13641
4.0834
4.04357
4.01142
3.98532
3.96463
3.94415
3.91884
3.88486
3.83505
3.77495
3.72252
3.68293
3.64999
3.62321
3.60186
3.58149
3.56062
3.53293
3.49116
3.4381
3.38331
3.33344
3.2929
3.26335
3.24309
3.22789
3.21508
3.20202
3.18701
3.16556
3.13279
3.09388
3.05614
3.02012
2.98242
2.94149
2.90099
2.86803
2.84545
2.82982
2.81681
2.80593
2.7979
2.79013
2.77766
2.76083
2.73805
2.69662
2.62999
2.57972
2.5612
2.54927
2.54075
2.53649
2.52914
2.51668
2.50116
2.48011
2.44799
2.40457
2.36383
2.34116
2.3296
2.31979
2.31073
2.30452
2.29677
2.26022
4.64307
3.9225
3.26017
2.79486
2.39341
1.97877
1.70541
1.55617
1.39181
1.23114
1.08252
0.964921
0.943329
0.919816
0.858435
0.795614
0.754661
0.722618
0.682245
0.653493
0.64943
0.639697
0.612332
0.579239
0.569178
0.57522
0.593747
0.592555
0.59373
0.605209
0.638324
0.700285
0.782943
0.87565
0.966034
1.0446
1.10925
1.12995
1.14616
1.17897
1.21669
1.22764
1.2283
1.22697
1.22954
1.23162
1.23925
1.26001
1.28011
1.28391
1.28294
1.27511
1.26309
1.25931
1.26224
1.27741
1.30202
1.31222
1.31388
1.31207
1.30352
1.30011
1.30004
1.30196
1.30513
1.3052
1.30525
1.30665
1.30949
1.31786
1.40079
1.79934
2.54341
3.22424
3.26685
3.27307
3.26415
3.26285
3.22763
3.19548
3.16988
3.12591
3.09984
3.18904
3.8421
5.07846
5.91609
6.19495
6.09937
6.00234
5.8834
5.80361
5.75741
5.72229
5.67916
5.62001
5.54387
5.46457
5.39208
5.32607
5.26529
5.20226
5.13644
5.08353
5.03588
4.9905
4.94433
4.89767
4.84913
4.79317
4.72605
4.66088
4.60822
4.56579
4.52928
4.49557
4.46377
4.42955
4.39282
4.35358
4.30934
4.25853
4.20519
4.15591
4.11358
4.07556
4.03848
4.00167
3.96732
3.93527
3.89885
3.85544
3.80478
3.76119
3.73068
3.7037
3.67514
3.64382
3.61067
3.57615
3.53596
3.49252
3.44845
3.40596
3.37244
3.34695
3.32243
3.29437
3.26403
3.23744
3.2169
3.19431
3.16691
3.13792
3.1092
3.08535
3.06571
3.04607
3.02155
2.9861
2.93316
2.87155
2.83193
2.81352
2.79983
2.78887
2.78205
2.77683
2.7672
2.75244
2.7333
2.70204
2.64941
2.59407
2.55862
2.53917
2.52623
2.51672
2.51089
2.5009
2.48695
2.47127
2.45375
2.43182
2.40121
2.36274
2.33156
2.31724
2.30801
2.29153
2.26833
2.23253
4.86066
4.23241
3.62372
3.13173
2.74363
2.35917
2.07745
1.84343
1.61045
1.48493
1.37818
1.21836
1.11533
1.08448
1.03469
0.94082
0.860993
0.847824
0.829569
0.791526
0.752134
0.731148
0.712383
0.688453
0.65981
0.63546
0.6293
0.626266
0.615152
0.60795
0.609064
0.617124
0.634325
0.664065
0.712865
0.779924
0.864516
0.96539
1.04298
1.10046
1.14701
1.18393
1.20771
1.21946
1.2303
1.24029
1.24076
1.24546
1.2527
1.25967
1.26261
1.2638
1.265
1.2657
1.26701
1.27549
1.29244
1.30039
1.30189
1.30125
1.294
1.29167
1.29394
1.29716
1.303
1.30929
1.31044
1.31031
1.31575
1.40003
1.91018
2.63449
3.13206
3.29623
3.30042
3.29729
3.28574
3.2709
3.23766
3.1934
3.15293
3.11252
3.08369
3.06535
3.11619
3.55772
4.58085
5.66903
5.9929
6.03163
5.90546
5.78872
5.73054
5.68999
5.64631
5.58929
5.51936
5.44376
5.37478
5.31452
5.25742
5.19865
5.13435
5.07753
5.02984
4.98614
4.94391
4.89787
4.85176
4.80045
4.73265
4.65796
4.60236
4.56043
4.52278
4.48672
4.4502
4.41343
4.37618
4.33637
4.29352
4.25093
4.21171
4.1753
4.13965
4.1022
4.06105
4.01455
3.96128
3.90232
3.85147
3.81438
3.78751
3.76289
3.74257
3.722
3.69542
3.65884
3.6064
3.54547
3.49026
3.44695
3.41445
3.39342
3.3771
3.36526
3.3498
3.32673
3.29335
3.24758
3.19764
3.15649
3.12448
3.1011
3.08784
3.08052
3.07298
3.05907
3.04088
3.016
2.97093
2.9018
2.84077
2.80648
2.78686
2.7729
2.76349
2.76424
2.7621
2.74783
2.7269
2.69533
2.6535
2.61348
2.57525
2.53954
2.51439
2.49851
2.48559
2.47649
2.47161
2.46619
2.45618
2.44364
2.42766
2.40079
2.35867
2.31369
2.27969
2.25646
2.2351
2.21048
5.03442
4.45429
3.91566
3.4662
3.04934
2.66996
2.39795
2.15902
1.91446
1.71305
1.59998
1.46015
1.3186
1.24617
1.1979
1.12463
1.01418
0.945883
0.932892
0.917132
0.88703
0.832625
0.790153
0.777228
0.764136
0.742412
0.713403
0.696091
0.680727
0.654741
0.638239
0.639229
0.643684
0.642088
0.644627
0.653261
0.672003
0.720384
0.805504
0.911459
0.994242
1.05733
1.10857
1.15085
1.19625
1.22647
1.23819
1.23992
1.23388
1.23053
1.23327
1.2427
1.25572
1.26677
1.27132
1.2748
1.28004
1.28411
1.28647
1.28897
1.29023
1.29048
1.29246
1.2942
1.29926
1.30835
1.31197
1.31886
1.40997
1.92799
2.82063
3.16884
3.26741
3.29376
3.31287
3.31142
3.29205
3.26701
3.23235
3.18425
3.13864
3.10129
3.07728
3.05669
3.03829
3.05502
3.30046
4.17255
5.24911
5.81133
5.8667
5.79623
5.74002
5.67324
5.61639
5.56011
5.49985
5.43633
5.37168
5.31013
5.25224
5.19531
5.13389
5.07731
5.02813
4.98456
4.94267
4.89678
4.85373
4.80215
4.73717
4.66969
4.61396
4.56646
4.52212
4.48132
4.44325
4.40519
4.36522
4.32259
4.28028
4.24469
4.21454
4.18368
4.15027
4.11489
4.07465
4.02492
3.96274
3.89325
3.83376
3.80074
3.77949
3.77015
3.7571
3.73038
3.69932
3.65487
3.58991
3.51768
3.46295
3.42554
3.40443
3.39243
3.39255
3.38725
3.36896
3.34496
3.30528
3.24215
3.17946
3.13489
3.10661
3.08884
3.07736
3.07845
3.07905
3.0645
3.0458
3.02365
2.98532
2.9277
2.86985
2.82342
2.79101
2.77177
2.7588
2.74519
2.72819
2.71089
2.68991
2.66509
2.64314
2.62283
2.59932
2.56584
2.52323
2.49072
2.47454
2.46442
2.46053
2.4659
2.46015
2.44937
2.4373
2.4197
2.38395
2.32034
2.26035
2.22648
2.21362
2.20253
5.17969
4.6446
4.16689
3.73212
3.31494
2.97422
2.68648
2.42948
2.1689
1.97103
1.81979
1.68223
1.54559
1.42015
1.32715
1.26771
1.20532
1.11432
1.02904
1.01297
1.00461
0.972672
0.914901
0.862387
0.850609
0.839013
0.814377
0.778054
0.746795
0.725768
0.703413
0.689567
0.681277
0.668213
0.663051
0.658834
0.659048
0.661162
0.672737
0.702256
0.755858
0.827325
0.907933
0.981964
1.05645
1.14374
1.21043
1.22689
1.22803
1.20897
1.20692
1.21531
1.23339
1.259
1.268
1.26957
1.27139
1.26997
1.27197
1.27689
1.2814
1.28487
1.28654
1.28761
1.29261
1.30396
1.32209
1.43946
1.93454
2.89656
3.2712
3.31744
3.30185
3.27079
3.27112
3.27824
3.27053
3.25026
3.21417
3.17608
3.13339
3.09745
3.0763
3.05667
3.03078
3.01238
3.00557
3.13721
3.76464
4.7328
5.56743
5.696
5.71914
5.66035
5.598
5.54752
5.48971
5.44011
5.38436
5.32326
5.25246
5.1821
5.12688
5.07891
5.03412
4.99106
4.94139
4.88445
4.82296
4.7708
4.72469
4.67694
4.6319
4.58755
4.54029
4.49106
4.44333
4.39776
4.35449
4.31335
4.27189
4.22773
4.19271
4.16785
4.14588
4.11648
4.07952
4.03554
3.97657
3.89918
3.83346
3.79904
3.77461
3.75183
3.73344
3.70986
3.68035
3.63822
3.57591
3.50489
3.45291
3.42762
3.41093
3.40296
3.40338
3.39586
3.37467
3.34394
3.296
3.22977
3.16862
3.13334
3.11303
3.09694
3.08456
3.07663
3.07245
3.06448
3.04636
3.01753
2.97747
2.93363
2.89701
2.86237
2.82393
2.78534
2.75191
2.72381
2.69791
2.6729
2.65382
2.64219
2.63449
2.62378
2.60948
2.58901
2.5511
2.5026
2.47305
2.45816
2.44676
2.43955
2.44987
2.45347
2.43933
2.42064
2.38839
2.33019
2.26257
2.22365
2.20736
2.19356