/*--------------------------------*- C++ -*----------------------------------*\
  =========                 |
  \\      /  F ield         | OpenFOAM: The Open Source CFD Toolbox
   \\    /   O peration     | Website:  https://openfoam.org
    \\  /    A nd           | Version:  7
     \\/     M anipulation  |
\*---------------------------------------------------------------------------*/
FoamFile
{
    version     2.0;
    format      ascii;
    class       volScalarField;
    location    "2.3";
    object      T;
}
// * * * * * * * * * * * * * * * * * * * * * * * * * * * * * * * * * * * * * //

dimensions      [0 0 0 1 0 0 0];

internalField   nonuniform List<scalar> 
16128
(
1
1
1
1
1
1
1
1
1
1
1
1
1
1
1
1
1
1
1
1
1
1
1
1
1.57843
2.59456
2.70705
2.70929
2.71772
2.72831
2.73987
2.75046
2.75884
2.76484
2.76952
2.77419
2.77946
2.78494
2.78968
2.79311
2.79563
2.79834
2.80266
2.80971
2.819
2.82835
2.83582
2.83918
1
1
1
1
1
1
1
1
1
1
1
1
1
1
1
1
1
1
1
1
1
1
1
1
1.56665
2.5894
2.70678
2.70919
2.71756
2.72807
2.73956
2.75006
2.75837
2.76434
2.76901
2.77366
2.77891
2.78436
2.78906
2.79244
2.79494
2.79763
2.80194
2.80897
2.81819
2.82746
2.83485
2.83818
1
1
1
1
1
1
1
1
1
1
1
1
1
1
1
1
1
1
1
1
1
1
1
1
1.52823
2.57466
2.70487
2.70779
2.71663
2.72726
2.73867
2.74903
2.75723
2.7632
2.76793
2.77268
2.778
2.78348
2.78813
2.79143
2.79388
2.79658
2.8009
2.80794
2.81706
2.82617
2.8334
2.83665
1
1
1
1
1
1
1
1
1
1
1
1
1
1
1
1
1
1
1
1
1
1
1
1
1.47489
2.55293
2.70212
2.70597
2.71528
2.72577
2.73686
2.74689
2.75494
2.76093
2.7658
2.77077
2.77631
2.78193
2.7866
2.78984
2.79224
2.79493
2.79927
2.80633
2.81536
2.82437
2.83136
2.83447
1
1
1
1
1
1
1
1
1
1
1
1
1
1
1
1
1
1
1
1
1
1
1
1
1.40796
2.52474
2.69986
2.70376
2.71313
2.72341
2.73413
2.74378
2.7516
2.7576
2.76267
2.76794
2.7738
2.77969
2.78444
2.78761
2.78993
2.79255
2.79689
2.80399
2.81301
2.82205
2.82884
2.83184
1
1
1
1
1
1
1
1
1
1
1
1
1
1
1
1
1
1
1
1
1
1
1
1
1.32708
2.48752
2.69795
2.70139
2.71057
2.72057
2.73089
2.74007
2.74753
2.75341
2.7586
2.76417
2.77044
2.7767
2.78168
2.78491
2.78716
2.7897
2.79397
2.80105
2.81004
2.81906
2.82559
2.82836
1
1
1
1
1
1
1
1
1
1
1
1
1
1
1
1
1
1
1
1
1
1
1
1
1.22625
2.43299
2.69401
2.69796
2.7076
2.71745
2.72735
2.73597
2.74295
2.74857
2.75377
2.7596
2.76633
2.77312
2.77848
2.78185
2.78398
2.7863
2.79031
2.7972
2.80613
2.81521
2.82165
2.82434
1
1
1
1
1
1
1
1
1
1
1
1
1
1
1
1
1
1
1
1
1
1
1
1
1.11266
2.36884
2.68892
2.69422
2.70442
2.71405
2.72333
2.7313
2.73764
2.74281
2.7478
2.75372
2.7608
2.76812
2.77399
2.77763
2.77975
2.7819
2.78564
2.79232
2.80117
2.81028
2.81675
2.81937
1
1
1
1
1
1
1
1
1
1
1
1
1
1
1
1
1
1
1
1
1
1
1
1
1.0058
2.29467
2.68444
2.69166
2.70128
2.71082
2.71942
2.72664
2.7323
2.73696
2.74166
2.74753
2.75481
2.7625
2.76874
2.77248
2.77437
2.7761
2.77928
2.7855
2.7942
2.80349
2.81021
2.81306
1
1
1
1
1
1
1
1
1
1
1
1
1
1
1
1
1
1
1
1
1
1
1
1
1.00003
2.20269
2.67904
2.69075
2.6995
2.70854
2.71645
2.72294
2.7278
2.73179
2.73598
2.74156
2.74881
2.75666
2.76312
2.7669
2.76858
2.76994
2.77266
2.77832
2.78642
2.79541
2.80202
2.80473
1
1
1
1
1
1
1
1
1
1
1
1
1
1
1
1
1
1
1
1
1
1
1
1
1
2.08347
2.66617
2.68915
2.69842
2.70665
2.71347
2.71902
2.72316
2.72661
2.73037
2.73557
2.74249
2.75013
2.75648
2.76003
2.76127
2.76201
2.76403
2.7688
2.77605
2.78488
2.79159
2.79459
1
1
1
1
1
1
1
1
1
1
1
1
1
1
1
1
1
1
1
1
1
1
1
1
1
1.93101
2.63681
2.68274
2.69368
2.70277
2.70989
2.71516
2.71884
2.72179
2.72498
2.72959
2.73599
2.74316
2.74908
2.75214
2.75279
2.75285
2.75428
2.75826
2.76449
2.7724
2.77824
2.78026
1
1
1
1
1
1
1
1
1
1
1
1
1
1
1
1
1
1
1
1
1
1
1
1
1
1.74971
2.58501
2.66947
2.68263
2.69362
2.70238
2.70892
2.71335
2.71658
2.71969
2.72389
2.72966
2.73604
2.74109
2.74324
2.74304
2.74241
2.74272
2.74447
2.74872
2.75514
2.76009
2.76268
1
1
1
1
1
1
1
1
1
1
1
1
1
1
1
1
1
1
1
1
1
1
1
1
1
1.50272
2.48964
2.65227
2.66639
2.67985
2.68976
2.69821
2.70453
2.70897
2.71263
2.71686
2.72228
2.72801
2.7321
2.73328
2.73233
2.73047
2.72889
2.72887
2.73116
2.7354
2.73699
2.73369
1
1
1
1
1
1
1
1
1
1
1
1
1
1
1
1
1
1
1
1
1
1
1
1
1
1.19143
2.38307
2.64976
2.64649
2.65762
2.67017
2.68224
2.69156
2.69815
2.70308
2.70787
2.71332
2.7185
2.72188
2.72225
2.7206
2.71729
2.71332
2.7102
2.70746
2.7041
2.69958
2.69359
1
1
1
1
1
1
1
1
1
1
1
1
1
1
1
1
1
1
1
1
1
1
1
1
1
1.00998
2.28728
2.64031
2.63629
2.64475
2.65365
2.66471
2.67515
2.68346
2.68993
2.69568
2.70103
2.70616
2.7093
2.70929
2.70705
2.70224
2.69532
2.68742
2.67858
2.66979
2.66393
2.6694
1
1
1
1
1
1
1
1
1
1
1
1
1
1
1
1
1
1
1
1
1
1
1
1
1
1.00002
2.12326
2.63319
2.63642
2.64086
2.64526
2.65192
2.65975
2.66752
2.67451
2.68049
2.68592
2.69114
2.69443
2.69437
2.69168
2.6855
2.67571
2.66322
2.6466
2.62113
2.56513
2.4469
1
1
1
1
1
1
1
1
1
1
1
1
1
1
1
1
1
1
1
1
1
1
1
1
1
1
1.8951
2.59794
2.63736
2.64173
2.64602
2.64798
2.65074
2.65489
2.65986
2.66443
2.66896
2.67366
2.67691
2.67684
2.6739
2.66668
2.65429
2.63619
2.60992
2.56415
2.49548
2.30851
1
1
1
1
1
1
1
1
1
1
1
1
1
1
1
1
1
1
1
1
1
1
1
1
1
1
1.55846
2.48537
2.62667
2.63619
2.64227
2.64398
2.64574
2.64735
2.64931
2.65088
2.65287
2.65544
2.65753
2.65712
2.65384
2.64578
2.63137
2.60873
2.57524
2.52128
2.42928
2.23323
1
1
1
1
1
1
1
1
1
1
1
1
1
1
1
1
1
1
1
1
1
1
1
1
1
1
1.14135
2.34204
2.61889
2.62121
2.63038
2.6368
2.64012
2.64078
2.64067
2.63953
2.63857
2.63806
2.63777
2.63627
2.63209
2.62316
2.60728
2.58193
2.54292
2.48591
2.38224
2.21339
1
1
1
1
1
1
1
1
1
1
1
1
1
1
1
1
1
1
1
1
1
1
1
1
1
1
1.00501
2.20678
2.58539
2.59553
2.60977
2.62201
2.62965
2.6326
2.63218
2.62992
2.62679
2.62321
2.61963
2.61545
2.60934
2.59915
2.58215
2.55561
2.515
2.45686
2.35575
2.22126
1
1
1
1
1
1
1
1
1
1
1
1
1
1
1
1
1
1
1
1
1
1
1
1
1
1
0.999989
1.95526
2.55132
2.58309
2.59666
2.60744
2.61632
2.6219
2.62254
2.62059
2.61648
2.61069
2.60403
2.59657
2.58762
2.57546
2.55731
2.53021
2.49029
2.4328
2.34275
2.23345
1
1
1
1
1
1
1
1
1
1
1
1
1
1
1
1
1
1
1
1
1
1
1
1
1
1
0.999996
1.54834
2.45079
2.57228
2.58097
2.59134
2.60028
2.60711
2.60982
2.60884
2.60516
2.59875
2.59022
2.58004
2.56806
2.55334
2.53357
2.50615
2.46739
2.41287
2.33557
2.24453
1
1
1
1
1
1
1
1
1
1
1
1
1
1
1
1
1
1
1
1
1
1
1
1
1
1
0.999999
1.08362
2.30034
2.57634
2.57087
2.57434
2.58171
2.58881
2.59356
2.59421
2.59183
2.58605
2.57702
2.5653
2.55102
2.53398
2.51252
2.48493
2.4465
2.39623
2.33004
2.25269
1
1
1
1
1
1
1
1
1
1
1
1
1
1
1
1
1
1
1
1
1
1
1
1
1
1
1
1.00164
2.11258
2.54233
2.54915
2.55811
2.56491
2.57001
2.57505
2.5771
2.57577
2.57122
2.56287
2.55101
2.53582
2.5173
2.4946
2.46695
2.42863
2.38284
2.32522
2.25863
1
1
1
1
1
1
1
1
1
1
1
1
1
1
1
1
1
1
1
1
1
1
1
1
1
1
1
0.999989
1.711
2.46628
2.53795
2.54561
2.55091
2.55489
2.55833
2.55988
2.55881
2.55499
2.54748
2.53626
2.5213
2.50248
2.47939
2.45155
2.4145
2.3728
2.32148
2.26449
1
1
1
1
1
1
1
1
1
1
1
1
1
1
1
1
1
1
1
1
1
1
1
1
1
1
1
0.999997
1.16539
2.31898
2.54062
2.53308
2.53478
2.53841
2.54072
2.54175
2.54075
2.53735
2.53063
2.52029
2.50623
2.48811
2.46554
2.43807
2.40341
2.36514
2.31866
2.26898
1
1
1
1
1
1
1
1
1
1
1
1
1
1
1
1
1
1
1
1
1
1
1
1
1
1
1
0.999999
1.00651
2.13776
2.50754
2.51033
2.51823
2.52182
2.52345
2.52417
2.523
2.51964
2.51341
2.50375
2.49064
2.47349
2.45185
2.42558
2.39407
2.35882
2.31704
2.27273
1
1
1
1
1
1
1
1
1
1
1
1
1
1
1
1
1
1
1
1
1
1
1
1
1
1
1
1
0.999984
1.70141
2.43025
2.49871
2.50544
2.50855
2.50904
2.50873
2.50695
2.50304
2.49663
2.4871
2.47457
2.45803
2.43745
2.41316
2.38488
2.35238
2.31517
2.275
1
1
1
1
1
1
1
1
1
1
1
1
1
1
1
1
1
1
1
1
1
1
1
1
1
1
1
1
0.999995
1.13464
2.27509
2.50172
2.49306
2.49242
2.49258
2.49172
2.48971
2.48596
2.47984
2.47094
2.45859
2.44294
2.42344
2.40102
2.37532
2.34536
2.31228
2.27557
1
1
1
1
1
1
1
1
1
1
1
1
1
1
1
1
1
1
1
1
1
1
1
1
1
1
1
1
0.999999
1.00414
2.03901
2.46292
2.47064
2.4755
2.47518
2.47412
2.47238
2.46906
2.4635
2.45511
2.44317
2.42824
2.40983
2.38894
2.36498
2.3374
2.30761
2.27411
1
1
1
1
1
1
1
1
1
1
1
1
1
1
1
1
1
1
1
1
1
1
1
1
1
1
1
1
1
0.999988
1.50058
2.35684
2.46282
2.45972
2.45834
2.45746
2.4557
2.45259
2.44756
2.43998
2.4291
2.41492
2.39755
2.37786
2.35506
2.32954
2.30197
2.27138
1
1
1
1
1
1
1
1
1
1
1
1
1
1
1
1
1
1
1
1
1
1
1
1
1
1
1
1
1
0.999997
1.06158
2.1819
2.4497
2.44175
2.44107
2.43995
2.43842
2.43538
2.43074
2.42392
2.41431
2.4015
2.38558
2.36719
2.34571
2.32174
2.29561
2.26748
1
1
1
1
1
1
1
1
1
1
1
1
1
1
1
1
1
1
1
1
1
1
1
1
1
1
1
1
1
0.999999
1.00068
1.76429
2.37617
2.42352
2.42498
2.42529
2.42348
2.41961
2.4145
2.40795
2.39928
2.38793
2.37368
2.35683
2.33695
2.31453
2.28986
2.26353
1
1
1
1
1
1
1
1
1
1
1
1
1
1
1
1
1
1
1
1
1
1
1
1
1
1
1
1
1
1
0.999999
1.16537
2.21612
2.42537
2.4159
2.41307
2.40921
2.40366
2.39741
2.39081
2.38293
2.37302
2.36062
2.34562
2.32767
2.30714
2.28429
2.2595
1
1
1
1
1
1
1
1
1
1
1
1
1
1
1
1
1
1
1
1
1
1
1
1
1
1
1
1
1
1
1
1.00579
1.90841
2.37615
2.39485
2.39563
2.39392
2.38959
2.38295
2.3755
2.36719
2.35779
2.3467
2.33338
2.31757
2.29939
2.27878
2.25582
1
1
1
1
1
1
1
1
1
1
1
1
1
1
1
1
1
1
1
1
1
1
1
1
1
1
1
1
1
1
1
1
1.26819
2.22289
2.39549
2.38672
2.38217
2.37696
2.36984
2.3616
2.35248
2.34281
2.33219
2.32023
2.30652
2.29087
2.2727
2.25179
1
1
1
1
1
1
1
1
1
1
1
1
1
1
1
1
1
1
1
1
1
1
1
1
1
1
1
1
1
1
1
1
1.01594
1.97011
2.35592
2.37041
2.36688
2.36248
2.35629
2.34857
2.33933
2.32924
2.3185
2.30714
2.29478
2.28089
2.26474
2.24608
1
1
1
1
1
1
1
1
1
1
1
1
1
1
1
1
1
1
1
1
1
1
1
1
1
1
1
1
1
1
1
1
1.00005
1.33596
2.21015
2.36245
2.35508
2.35067
2.3445
2.33674
2.32745
2.31711
2.30613
2.29483
2.283
2.27015
2.25558
2.23901
1
1
1
1
1
1
1
1
1
1
1
1
1
1
1
1
1
1
1
1
1
1
1
1
1
1
1
1
1
1
1
1
1
1.02556
1.97327
2.32722
2.34077
2.3365
2.33073
2.32349
2.31481
2.30506
2.29451
2.28339
2.27166
2.25915
2.24545
2.23014
1
1
1
1
1
1
1
1
1
1
1
1
1
1
1
1
1
1
1
1
1
1
1
1
1
1
1
1
1
1
1
1
1
1.00014
1.35488
2.17841
2.32874
2.32241
2.31805
2.31161
2.3036
2.29452
2.28436
2.27323
2.26133
2.24874
2.23542
2.22093
1
1
1
1
1
1
1
1
1
1
1
1
1
1
1
1
1
1
1
1
1
1
1
1
1
1
1
1
1
1
1
1
1
1
1.02865
1.92361
2.29065
2.31014
2.30427
2.29804
2.29087
2.28269
2.27329
2.26266
2.2511
2.23882
2.22583
2.21206
1
1
1
1
1
1
1
1
1
1
1
1
1
1
1
1
1
1
1
1
1
1
1
1
1
1
1
1
1
1
1
1
1
1
1.0002
1.31924
2.13136
2.29551
2.28916
2.28519
2.27913
2.27167
2.26298
2.25302
2.242
2.23015
2.21748
2.20408
1
1
1
1
1
1
1
1
1
1
1
1
1
1
1
1
1
1
1
1
1
1
1
1
1
1
1
1
1
1
1
1
1
1
1
1.02257
1.81696
2.23969
2.27972
2.27178
2.26527
2.25862
2.25111
2.24233
2.23228
2.22117
2.20923
2.1964
1
1
1
1
1
1
1
1
1
1
1
1
1
1
1
1
1
1
1
1
1
1
1
1
1
1
1
1
1
1
1
1
1
1
1
1.00016
1.23603
2.06165
2.26479
2.25647
2.25223
2.2469
2.24027
2.23229
2.22308
2.21262
2.20122
2.18896
1
1
1
1
1
1
1
1
1
1
1
1
1
1
1
1
1
1
1
1
1
1
1
1
1
1
1
1
1
1
1
1
1
1
1
1
1.01188
1.63305
2.16841
2.24243
2.23584
2.23165
2.22618
2.21946
2.21162
2.20248
2.19187
2.18026
1
1
1
1
1
1
1
1
1
1
1
1
1
1
1
1
1
1
1
1
1
1
1
1
1
1
1
1
1
1
1
1
1
1
1
1
1.00008
1.12672
1.96739
2.23106
2.22294
2.21768
2.2118
2.20621
2.19972
2.19198
2.18258
2.1718
1
1
1
1
1
1
1
1
1
1
1
1
1
1
1
1
1
1
1
1
1
1
1
1
1
1
1
1
1
1
1
1
1
1
1
1
1
1.00347
1.44893
2.09746
2.20884
2.20045
2.1956
2.19073
2.18506
2.17842
2.17068
2.16159
1
1
1
1
1
1
1
1
1
1
1
1
1
1
1
1
1
1
1
1
1
1
1
1
1
1
1
1
1
1
1
1
1
1
1
1
1
1.00002
1.05273
1.80082
2.16768
2.19527
2.18786
2.18107
2.17425
2.16724
2.15991
2.15188
1
1
1
1
1
1
1
1
1
1
1
1
1
1
1
1
1
1
1
1
1
1
1
1
1
1
1
1
1
1
1
1
1
1
1
1
1
1
1.00077
1.2491
1.98728
2.18259
2.17465
2.16865
2.16202
2.15513
2.14803
2.14051
1
1
1
1
1
1
1
1
1
1
1
1
1
1
1
1
1
1
1
1
1
1
1
1
1
1
1
1
1
1
1
1
1
1
1
1
1
1
1
1.01383
1.54123
2.07963
2.16369
2.15556
2.14971
2.14371
2.137
2.1297
1
1
1
1
1
1
1
1
1
1
1
1
1
1
1
1
1
1
1
1
1
1
1
1
1
1
1
1
1
1
1
1
1
1
1
1
1
1
1
1.00012
1.08816
1.81844
2.12835
2.15029
2.14307
2.13586
2.12833
2.12048
1
1
1
1
1
1
1
1
1
1
1
1
1
1
1
1
1
1
1
1
1
1
1
1
1
1
1
1
1
1
1
1
1
1
1
1
1
1
1
1
1.00194
1.28679
1.95821
2.13489
2.1309
2.1247
2.11801
2.11046
1
1
1
1
1
1
1
1
1
1
1
1
1
1
1
1
1
1
1
1
1
1
1
1
1
1
1
1
1
1
1
1
1
1
1
1
1
1
1
1
1.00001
1.01931
1.53293
2.03767
2.12033
2.11296
2.10618
2.09997
1
1
1
1
1
1
1
1
1
1
1
1
1
1
1
1
1
1
1
1
1
1
1
1
1
1
1
1
1
1
1
1
1
1
1
1
1
1
1
1
1
1.0002
1.08865
1.76337
2.07183
2.10892
2.10011
2.09204
1
1
1
1
1
1
1
1
1
1
1
1
1
1
1
1
1
1
1
1
1
1
1
1
1
1
1
1
1
1
1
1
1
1
1
1
1
1
1
1
1
1
1.00209
1.2468
1.88903
2.08945
2.09078
2.08386
1
1
1
1
1
1
1
1
1
1
1
1
1
1
1
1
1
1
1
1
1
1
1
1
1
1
1
1
1
1
1
1
1
1
1
1
1
1
1
1
1
1
1.00001
1.01441
1.44271
1.96936
2.07767
2.07325
1
1
1
1
1
1
1
1
1
1
1
1
1
1
1
1
1
1
1
1
1
1
1
1
1
1
1
1
1
1
1
1
1
1
1
1
1
1
1
1
1
1
1
1.00014
1.05776
1.63562
2.01397
2.06714
1
1
1
1
1
1
1
1
1
1
1
1
1
1
1
1
1
1
1
1
1
1
1
1
1
1
1
1
1
1
1
1
1
1
1
1
1
1
1
1
1
1
1
1
1.00108
1.15444
1.78603
2.02565
1
1
1
1
1
1
1
1
1
1
1
1
1
1
1
1
1
1
1
1
1
1
1
1
1
1
1
1
1
1
1
1
1
1
1
1
1
1
1
1
1
1
1
1
1
1.00596
1.30089
1.86546
1
1
1
1
1
1
1
1
1
1
1
1
1
1
1
1
1
1
1
1
1
1
1
1
1
1
1
1
1
1
1
1
1
1
1
1
1
1
1
1
1
1
1
1
1
1.00005
1.02336
1.45247
1
1
1
1
1
1
1
1
1
1
1
1
1
1
1
1
1
1
1
1
1
1
1
1
1
1
1
1
1
1
1
1
1
1
1
1
1
1
1
1
1
1
1
1
1
1
1.0003
1.06477
1
1
1
1
1
1
1
1
1
1
1
1
1
1
1
1
1
1
1
1
1
1
1
1
1
1
1
1
1
1
1
1
1
1
1
1
1
1
1
1
1
1
1
1
1
1
1
1.00138
1
1
1
1
1
1
1
1
1
1
1
1
1
1
1
1
1
1
1
1
1
1
1
1
1
1
1
1
1
1
1
1
1
1
1
1
1
1
1
1
1
1
1
1
1
1
1
1.00001
1
1
1
1
1
1
1
1
1
1
1
1
1
1
1
1
1
1
1
1
1
1
1
1
1
1
1
1
1
1
1
1
1
1
1
1
1
1
1
1
1
1
1
1
1
1
1
1
1
1
1
1
1
1
1
1
1
1
1
1
1
1
1
1
1
1
1
1
1
1
1
1
1
1
1
1
1
1
1
1
1
1
1
1
1
1
1
1
1
1
1
1
1
1
1
1
1
1
1
1
1
1
1
1
1
1
1
1
1
1
1
1
1
1
1
1
1
1
1
1
1
1
1
1
1
1
1
1
1
1
1
1
1
1
1
1
1
1
1
1
1
1
1
1
1
1
1
1
1
1
1
1
1
1
1
1
1
1
1
1
1
1
1
1
1
1
1
1
1
1
1
1
1
1
1
1
1
1
1
1
1
1
1
1
1
1
1
1
1
1
1
1
1
1
1
1
1
1
1
1
1
1
1
1
1
1
1
1
1
1
1
1
1
1
1
1
1
1
1
1
1
1
1
1
1
1
1
1
1
1
1
1
1
1
1
1
1
1
1
1
1
1
1
1
1
1
1
1
1
1
1
1
1
1
1
1
1
1
1
1
1
1
1
1
1
1
1
1
1
1
1
1
1
1
1
1
1
1
1
1
1
1
1
1
1
1
1
1
1
1
1
1
1
1
1
1
1
1
1
1
1
1
1
1
1
1
1
1
1
1
1
1
1
1
1
1
1
1
1
1
1
1
1
1
1
1
1
1
1
1
1
1
1
1
1
1
1
1
1
1
1
1
1
1
1
1
1
1
1
1
1
1
1
1
1
1
1
1
1
1
1
1
1
1
1
1
1
1
1
1
1
1
1
1
1
1
1
1
1
1
1
1
1
1
1
1
1
1
1
1
1
1
1
1
1
1
1
1
1
1
1
1
1
1
1
1
1
1
1
1
1
1
1
1
1
1
1
1
1
1
1
1
1
1
1
1
1
1
1
1
1
1
1
1
1
1
1
1
1
1
1
1
1
1
1
1
1
1
1
1
1
1
1
1
1
1
1
1
1
1
1
1
1
1
1
1
1
1
1
1
1
1
1
1
1
1
1
1
1
1
1
1
1
1
1
1
1
1
1
1
1
1
1
1
1
1
1
1
1
1
1
1
1
1
1
1
1
1
1
1
1
1
1
1
1
1
1
1
1
1
1
1
1
1
1
1
1
1
1
1
1
1
1
1
1
1
1
1
1
1
1
1
1
1
1
1
1
1
1
1
1
1
1
1
1
1
1
1
1
1
1
1
1
1
1
1
1
1
1
1
1
1
1
1
1
1
1
1
1
1
1
1
1
1
1
1
1
1
1
1
1
1
1
1
1
1
1
1
1
1
1
1
1
1
1
1
1
1
1
1
1
1
1
1
1
1
1
1
1
1
1
1
1
1
1
1
1
1
1
1
1
1
1
1
1
1
1
1
1
1
1
1
1
1
1
1
1
1
1
1
1
1
1
1
1
1
1
1
1
1
1
1
1
1
1
1
1
1
1
1
1
1
1
1
1
1
1
1
1
1
1
1
1
1
1
1
1
1
1
1
1
1
1
1
1
1
1
1
1
1
1
1
1
1
1
1
1
1
1
1
1
1
1
1
1
1
1
1
1
1
1
1
1
1
1
1
1
1
1
1
1
1
1
1
1
1
1
1
1
1
1
1
1
1
1
1
1
1
1
1
1
1
1
1
1
1
1
1
1
1
1
1
1
1
1
1
1
1
1.56669
0.850378
0.76466
0.910194
0.961101
1.05749
1.13471
1.2295
1.27184
1.27719
1.30466
1.34525
1.40668
1.4971
1.59079
1.62875
1.6286
1.60958
1.5938
1.5985
1.63374
1.66082
1.65933
1.65574
1.64373
1.62898
1.63116
1.64362
1.66331
1.67261
1.67186
1.66515
1.6557
1.65596
1.66487
1.68134
1.69546
1.69885
1.69649
1.69152
1.68704
1.68614
1.68511
1.68485
1.68733
1.68947
1.68875
1.6877
1.68823
1.69212
1.69712
1.69787
1.69736
1.69364
1.6884
1.68652
1.68586
1.68643
1.68799
1.68672
1.68124
1.67484
1.67006
1.66713
1.6655
1.66373
1.66036
1.65798
1.65769
1.65857
1.66209
1.66508
1.66589
1.66581
1.66331
1.66317
1.67899
1.80218
2.26914
2.76231
2.78641
2.75965
2.72983
2.69987
2.66358
2.64616
2.6404
2.63479
2.62338
2.60674
2.58748
2.56962
2.55659
2.54949
2.54441
2.53735
2.52822
2.51746
2.50594
2.4955
2.48752
2.48013
2.47242
2.46502
2.4581
2.45161
2.44548
2.43908
2.43111
2.42176
2.41122
2.39938
2.38771
2.37801
2.36965
2.36109
2.35179
2.34208
2.33298
2.32534
2.31891
2.31353
2.30926
2.30545
2.30025
2.29296
2.28418
2.27219
2.25764
2.24712
2.24014
2.23404
2.2296
2.22724
2.22464
2.22073
2.21591
2.20858
2.19848
2.19014
2.18412
2.17898
2.17438
2.17088
2.16909
2.16631
2.16135
2.15527
2.14682
2.13525
2.12431
2.11735
2.11348
2.1114
2.11036
2.10962
2.10889
2.10828
2.10696
2.10458
2.10134
2.0974
2.09307
2.08746
2.07897
2.06887
2.06135
2.05661
2.0522
2.04758
2.04465
2.04496
2.04376
2.03696
2.02964
2.02064
2.00694
1.99307
1.98538
1.98167
1.97912
1.97687
1.97571
1.97423
1.96837
1.96061
1.95066
1.93806
1.92692
1.91881
1.91466
1.9113
1.80151
1.37379
1.24838
1.22415
1.11238
1.00926
1.00484
1.04775
1.05582
1.06463
1.08221
1.1169
1.16748
1.22996
1.2816
1.32198
1.37913
1.41213
1.42873
1.45304
1.49192
1.53313
1.55988
1.56994
1.57631
1.58209
1.59233
1.61008
1.61995
1.6193
1.61747
1.61821
1.61835
1.62066
1.63277
1.64788
1.6567
1.66181
1.66239
1.66251
1.66232
1.66077
1.66045
1.66025
1.66189
1.6648
1.66452
1.66324
1.66303
1.66436
1.66847
1.67348
1.67613
1.67651
1.67437
1.67107
1.6696
1.66907
1.66993
1.6704
1.66825
1.66338
1.65788
1.65401
1.65218
1.65105
1.65021
1.64917
1.64877
1.64919
1.65098
1.6529
1.65333
1.65305
1.65338
1.66612
1.77683
1.97455
2.12066
2.47666
2.63847
2.67888
2.6717
2.64878
2.62429
2.61436
2.61244
2.61034
2.60001
2.58535
2.56797
2.55186
2.53923
2.53083
2.5255
2.51924
2.51123
2.50183
2.49182
2.48258
2.47452
2.46655
2.45877
2.45072
2.44303
2.43639
2.43051
2.42559
2.42032
2.41313
2.40484
2.39571
2.38526
2.37411
2.3641
2.35528
2.34634
2.3372
2.3284
2.32051
2.31382
2.30801
2.30259
2.2967
2.28972
2.28225
2.27467
2.26595
2.25649
2.24711
2.23834
2.23137
2.22611
2.22164
2.21684
2.21227
2.20781
2.20252
2.19586
2.18909
2.18257
2.17653
2.17127
2.16676
2.16197
2.15657
2.15155
2.14615
2.13982
2.13299
2.12675
2.12073
2.11528
2.11145
2.10902
2.10719
2.10533
2.1028
2.09967
2.09683
2.09453
2.09236
2.08944
2.08516
2.07883
2.07083
2.06259
2.05589
2.05066
2.04607
2.04206
2.03841
2.0344
2.02962
2.02366
2.01616
2.00654
1.99624
1.98728
1.98108
1.9772
1.97428
1.97107
1.96731
1.96288
1.9564
1.94816
1.93845
1.92883
1.92085
1.91588
1.911
1.92635
1.69565
1.51898
1.40754
1.31489
1.18696
1.11238
1.12582
1.11637
1.09142
1.0641
1.06158
1.07489
1.09999
1.12133
1.12396
1.14318
1.19558
1.2524
1.29135
1.32142
1.358
1.39863
1.43356
1.46806
1.49936
1.52378
1.54272
1.54484
1.54303
1.54284
1.54663
1.55249
1.56365
1.58211
1.5895
1.58922
1.58907
1.59031
1.59444
1.60024
1.60455
1.60614
1.60653
1.60755
1.61169
1.61637
1.61794
1.61787
1.6163
1.61551
1.61736
1.62099
1.62656
1.63003
1.63005
1.62829
1.62597
1.62486
1.62544
1.62694
1.62683
1.62578
1.62326
1.61985
1.61814
1.6178
1.61832
1.61988
1.62052
1.62049
1.61968
1.61836
1.62061
1.64274
1.74034
1.95132
2.07021
2.04377
2.12363
2.36247
2.55043
2.59234
2.58361
2.57406
2.56373
2.55521
2.54995
2.54243
2.53341
2.52162
2.50882
2.49744
2.4882
2.48167
2.47521
2.46812
2.46037
2.45285
2.44647
2.44019
2.43397
2.42758
2.4202
2.41217
2.40469
2.39803
2.39218
2.3867
2.38195
2.37681
2.37065
2.36422
2.35646
2.34692
2.33725
2.3285
2.32033
2.31266
2.30557
2.29886
2.29196
2.28431
2.27572
2.26692
2.25836
2.24977
2.24304
2.23827
2.23327
2.22764
2.22151
2.21424
2.20613
2.19847
2.19191
2.18594
2.18133
2.17827
2.17517
2.17154
2.16717
2.1613
2.1539
2.14628
2.1395
2.13292
2.12686
2.12167
2.11893
2.11739
2.11609
2.11367
2.10912
2.10332
2.09795
2.09324
2.08883
2.08493
2.08175
2.07884
2.07579
2.07275
2.06997
2.06713
2.06351
2.05886
2.05278
2.04555
2.03804
2.03151
2.02586
2.0202
2.01371
2.00731
2.0015
1.99626
1.9913
1.98647
1.98023
1.97224
1.96473
1.95952
1.95492
1.94941
1.94306
1.93669
1.93065
1.92462
1.91939
1.91459
1.90694
2.00243
1.83612
1.68398
1.55845
1.47788
1.38612
1.2937
1.23247
1.21522
1.20824
1.191
1.16004
1.1236
1.10773
1.1062
1.10069
1.10491
1.12118
1.1502
1.18052
1.20352
1.22897
1.26631
1.31023
1.3579
1.40407
1.42845
1.44276
1.45241
1.45797
1.46647
1.47834
1.49293
1.51587
1.52956
1.52908
1.52717
1.52615
1.52669
1.5307
1.53764
1.54096
1.54093
1.54114
1.54211
1.54552
1.55338
1.56046
1.56221
1.56218
1.55939
1.55829
1.56015
1.5649
1.57195
1.57482
1.57447
1.57279
1.57202
1.57223
1.57457
1.57791
1.57926
1.5791
1.57717
1.57546
1.57534
1.57614
1.57806
1.57839
1.57765
1.57436
1.57588
1.59642
1.71482
1.89178
2.02906
2.0369
2.01583
2.00409
2.06387
2.28208
2.43769
2.48467
2.51833
2.50662
2.49321
2.48215
2.47446
2.46897
2.46194
2.45202
2.44237
2.43369
2.42668
2.42095
2.41532
2.40922
2.40257
2.39579
2.38942
2.38365
2.3782
2.3725
2.36689
2.36176
2.35668
2.35095
2.34462
2.33917
2.33398
2.32881
2.32355
2.3177
2.31041
2.30273
2.29574
2.28901
2.28241
2.27599
2.26955
2.26257
2.25445
2.2451
2.23518
2.22572
2.21819
2.21262
2.20884
2.20622
2.20274
2.19774
2.19131
2.18227
2.1719
2.1631
2.15723
2.15353
2.15095
2.14942
2.14801
2.14556
2.14192
2.1355
2.12546
2.11502
2.10693
2.10086
2.09768
2.09679
2.09727
2.0978
2.09772
2.09621
2.09148
2.08371
2.07515
2.06773
2.06198
2.05749
2.05366
2.05035
2.04778
2.04576
2.04408
2.04262
2.0405
2.03703
2.03225
2.0254
2.01639
2.00679
1.99852
1.99135
1.98484
1.97999
1.97727
1.97577
1.97324
1.9697
1.96423
1.95449
1.94312
1.93546
1.93
1.92485
1.92024
1.91752
1.91395
1.90937
1.90577
1.89815
2.06275
1.92308
1.78986
1.68069
1.59204
1.5214
1.45669
1.37403
1.30696
1.28512
1.27467
1.26164
1.23281
1.1922
1.18058
1.17058
1.15337
1.14888
1.15271
1.16383
1.16462
1.16354
1.16877
1.18495
1.21818
1.27039
1.31663
1.35008
1.37799
1.39707
1.41103
1.42294
1.43915
1.46457
1.48012
1.48275
1.48314
1.48389
1.48827
1.49767
1.50727
1.50853
1.50745
1.50463
1.50514
1.50796
1.515
1.52408
1.52708
1.52757
1.526
1.52031
1.51841
1.51939
1.52331
1.52937
1.53244
1.53432
1.53643
1.53725
1.53845
1.53957
1.53967
1.53964
1.5389
1.53808
1.53821
1.53919
1.54092
1.54102
1.54027
1.54294
1.56141
1.68033
1.88298
1.98514
2.0141
2.00795
1.99848
1.99039
1.98792
2.03906
2.21035
2.36277
2.4514
2.46565
2.46155
2.44724
2.43048
2.42249
2.41568
2.40919
2.40313
2.39674
2.38928
2.38289
2.37684
2.3706
2.36387
2.35667
2.34952
2.34236
2.33554
2.3298
2.32508
2.32062
2.31623
2.31156
2.30604
2.29996
2.29428
2.2887
2.28288
2.27662
2.27031
2.26518
2.2606
2.25575
2.25036
2.24445
2.23792
2.23013
2.22041
2.20939
2.19933
2.19197
2.18656
2.18236
2.17963
2.17737
2.17362
2.1689
2.16247
2.15246
2.14119
2.13325
2.12865
2.12551
2.12329
2.12201
2.12062
2.11882
2.11612
2.11005
2.10005
2.08896
2.08047
2.07604
2.07368
2.07247
2.07249
2.07242
2.07208
2.07125
2.06782
2.06064
2.05183
2.04334
2.03577
2.02954
2.0249
2.02149
2.01871
2.01647
2.01478
2.0134
2.01219
2.01058
2.00759
2.0033
1.99648
1.98517
1.97208
1.96324
1.9582
1.95495
1.95312
1.95223
1.95032
1.94772
1.94435
1.93818
1.92696
1.9148
1.90819
1.90425
1.90066
1.89871
1.89636
1.8922
1.88923
1.88313
2.10927
1.99092
1.87854
1.78265
1.68446
1.60512
1.55975
1.5105
1.44128
1.36073
1.33242
1.33414
1.32397
1.29473
1.26559
1.24958
1.23049
1.20521
1.18987
1.18627
1.18375
1.17412
1.16818
1.16826
1.17228
1.1828
1.20194
1.22714
1.2573
1.29539
1.33261
1.36349
1.39059
1.42223
1.44597
1.45737
1.46077
1.46205
1.46639
1.47645
1.48705
1.48833
1.48707
1.48439
1.48489
1.48714
1.49253
1.502
1.50807
1.50862
1.50803
1.50293
1.49658
1.49612
1.49848
1.50585
1.5146
1.518
1.51876
1.51838
1.51663
1.51636
1.51643
1.51623
1.51582
1.5151
1.51503
1.51557
1.51696
1.51836
1.52169
1.54489
1.6558
1.8832
1.97887
2.00474
2.00411
1.99827
1.99147
1.98898
1.98455
1.98115
2.01134
2.14401
2.33576
2.41322
2.43908
2.4321
2.41527
2.40392
2.39411
2.38735
2.38238
2.37789
2.37212
2.36576
2.35824
2.35004
2.34139
2.33291
2.3254
2.31807
2.311
2.30558
2.30035
2.29505
2.2901
2.28522
2.27968
2.27293
2.26588
2.2593
2.25284
2.24652
2.24139
2.2373
2.23362
2.2297
2.22489
2.21955
2.21324
2.20525
2.1955
2.18532
2.17671
2.16995
2.1645
2.16022
2.15705
2.15411
2.15023
2.14468
2.13651
2.1268
2.11845
2.11239
2.10775
2.10444
2.10221
2.1003
2.09822
2.09488
2.08926
2.08171
2.07379
2.06649
2.06032
2.05564
2.05247
2.05023
2.04863
2.04742
2.04611
2.04379
2.03944
2.03366
2.0277
2.02162
2.01473
2.00679
1.99878
1.99257
1.98882
1.98661
1.98499
1.98382
1.98314
1.98233
1.98017
1.9766
1.97142
1.96219
1.94763
1.93638
1.93209
1.92937
1.92737
1.9263
1.92468
1.9222
1.91912
1.91478
1.90801
1.89858
1.8893
1.88384
1.88085
1.87799
1.87521
1.87324
1.87112
1.86433
2.14573
2.04553
1.94132
1.86061
1.78279
1.69098
1.62358
1.58453
1.53716
1.48527
1.43082
1.38295
1.37485
1.36609
1.34055
1.31107
1.28984
1.27338
1.25258
1.23656
1.23321
1.22702
1.21172
1.19294
1.18642
1.18959
1.19858
1.19747
1.19835
1.20597
1.22575
1.25994
1.30118
1.34334
1.38127
1.41197
1.43584
1.44295
1.4487
1.46082
1.47447
1.47819
1.47839
1.47795
1.4788
1.4793
1.48182
1.48931
1.49666
1.49802
1.49762
1.49466
1.49014
1.48872
1.4896
1.49481
1.50351
1.50711
1.50773
1.50718
1.50457
1.50387
1.50413
1.50506
1.5061
1.50619
1.50634
1.5069
1.50789
1.51081
1.53984
1.66556
1.85103
1.9938
2.00189
2.00108
1.99919
1.99898
1.99282
1.98782
1.98464
1.97806
1.97375
1.99048
2.10605
2.2872
2.39097
2.4227
2.41199
2.40157
2.3884
2.37859
2.37219
2.3676
2.36299
2.35695
2.34879
2.33968
2.33085
2.32257
2.31515
2.30793
2.30054
2.29444
2.28862
2.28295
2.27737
2.27209
2.26674
2.26022
2.2517
2.24297
2.23591
2.23042
2.22595
2.22194
2.21812
2.21375
2.20881
2.20331
2.19695
2.18957
2.18172
2.17423
2.16749
2.16118
2.15496
2.14894
2.14359
2.13883
2.1334
2.12661
2.1183
2.11106
2.10618
2.10208
2.09799
2.09382
2.0896
2.08506
2.0795
2.07315
2.06665
2.06046
2.05599
2.05293
2.04969
2.04531
2.04009
2.03536
2.03177
2.02801
2.02373
2.01929
2.01496
2.01149
2.00859
2.00534
2.00077
1.9938
1.98328
1.97115
1.96384
1.96111
1.9594
1.95822
1.95778
1.95754
1.95629
1.95347
1.9493
1.94241
1.93116
1.91917
1.91136
1.90735
1.9049
1.90294
1.90161
1.89937
1.89621
1.89272
1.88903
1.88461
1.87834
1.87014
1.86346
1.86049
1.85851
1.85474
1.84928
1.84184
2.17122
2.0882
1.99877
1.91904
1.84903
1.77188
1.71115
1.65564
1.59256
1.55566
1.52349
1.47238
1.43655
1.42554
1.40682
1.36962
1.3339
1.32695
1.31847
1.30136
1.28288
1.27217
1.26215
1.24982
1.23501
1.22153
1.21702
1.21475
1.2083
1.20478
1.2056
1.21022
1.22008
1.23666
1.26329
1.29762
1.33789
1.38117
1.41177
1.43243
1.44893
1.46272
1.47213
1.47641
1.47935
1.48164
1.48112
1.48236
1.48518
1.48799
1.48912
1.48948
1.48967
1.48938
1.48928
1.49135
1.49721
1.50046
1.5011
1.50093
1.49858
1.49782
1.49868
1.49988
1.50185
1.50392
1.50427
1.50432
1.50618
1.5356
1.69733
1.87166
1.96832
2.00358
2.00625
2.00576
2.004
2.00133
1.99551
1.98815
1.98192
1.97578
1.97129
1.96782
1.97726
2.0589
2.2206
2.36484
2.4061
2.40601
2.39117
2.37682
2.3688
2.36355
2.35859
2.35216
2.34402
2.33491
2.32649
2.3191
2.3122
2.30523
2.29751
2.29028
2.28386
2.27807
2.27273
2.26722
2.26189
2.25577
2.24706
2.23694
2.22919
2.22354
2.21882
2.21453
2.21008
2.20533
2.20019
2.1945
2.18828
2.18203
2.17613
2.17054
2.16495
2.15895
2.15228
2.1448
2.13633
2.12715
2.11947
2.11388
2.10956
2.10521
2.10173
2.09853
2.09462
2.08935
2.08163
2.07239
2.06401
2.05756
2.05282
2.04996
2.0479
2.04669
2.04477
2.04117
2.0354
2.02702
2.01765
2.00984
2.00414
2.0004
1.99851
1.99758
1.99654
1.99409
1.99041
1.98525
1.97637
1.96297
1.95111
1.94483
1.94187
1.94026
1.93928
1.94001
1.94017
1.93795
1.93386
1.92735
1.91868
1.91034
1.90218
1.89439
1.88891
1.88574
1.88307
1.88083
1.87939
1.87776
1.87531
1.87272
1.86969
1.8645
1.85583
1.84629
1.83904
1.83408
1.8295
1.82407
2.18972
2.11601
2.04112
1.9728
1.9028
1.83252
1.7788
1.72661
1.66832
1.61695
1.5871
1.54681
1.50262
1.47881
1.46253
1.43692
1.39492
1.36603
1.36054
1.35455
1.34306
1.31984
1.29893
1.29176
1.28526
1.27503
1.26079
1.25156
1.24309
1.2292
1.22045
1.221
1.22308
1.22198
1.22333
1.22841
1.23903
1.26564
1.30938
1.35691
1.39041
1.4157
1.43663
1.45368
1.4695
1.47766
1.48039
1.48083
1.47877
1.47794
1.47908
1.48242
1.48648
1.48923
1.49012
1.49095
1.49282
1.49473
1.49573
1.49658
1.49691
1.49687
1.4973
1.49771
1.49935
1.50232
1.50347
1.50579
1.5376
1.70162
1.9173
1.97891
1.99544
2.00272
2.0079
2.00822
2.00588
2.00242
1.99662
1.98799
1.97996
1.97381
1.97
1.96649
1.9625
1.9653
2.01124
2.16057
2.31631
2.38599
2.38847
2.37928
2.37107
2.3626
2.35598
2.34919
2.3417
2.33375
2.32575
2.31823
2.31135
2.30451
2.2967
2.28911
2.2822
2.27615
2.27069
2.26514
2.26003
2.2536
2.24504
2.23578
2.228
2.22149
2.21573
2.21065
2.20594
2.20105
2.19561
2.18957
2.18355
2.17841
2.17387
2.16915
2.16393
2.15832
2.15205
2.14445
2.13488
2.1241
2.11478
2.10952
2.10588
2.10401
2.10155
2.0972
2.09254
2.08596
2.0761
2.06504
2.05676
2.05109
2.04796
2.04632
2.04658
2.04598
2.04326
2.03933
2.03229
2.02069
2.00901
2.00073
1.99539
1.99202
1.98985
1.99003
1.99008
1.98719
1.98336
1.97868
1.97086
1.95972
1.94869
1.93988
1.93407
1.9311
1.92942
1.92751
1.92478
1.92182
1.91792
1.91314
1.90876
1.90473
1.90006
1.89292
1.88345
1.87614
1.87243
1.86995
1.86881
1.86966
1.86806
1.8654
1.86294
1.8596
1.85251
1.83914
1.82609
1.81903
1.81692
1.81449
2.2038
2.13795
2.07441
2.01157
1.94545
1.88718
1.83436
1.78309
1.72631
1.68099
1.64405
1.60805
1.57018
1.53282
1.50307
1.48348
1.46269
1.43075
1.39834
1.3924
1.38945
1.37714
1.35337
1.32957
1.32372
1.31851
1.3078
1.29128
1.27589
1.26493
1.25349
1.24666
1.24252
1.23573
1.23275
1.22984
1.22977
1.23083
1.23709
1.25303
1.28112
1.31661
1.35325
1.38492
1.41541
1.44946
1.47159
1.47535
1.47557
1.46932
1.46897
1.47247
1.47861
1.48631
1.48877
1.48925
1.49003
1.48984
1.49064
1.4923
1.4936
1.49442
1.49467
1.49491
1.4966
1.50045
1.50655
1.54701
1.70013
1.93207
2.0036
2.00693
2.00365
1.99863
1.99932
2.00229
2.00214
2.00064
1.99517
1.98801
1.97974
1.97311
1.96938
1.96577
1.96064
1.95651
1.95377
1.97872
2.09324
2.24305
2.35323
2.36773
2.36894
2.36174
2.35367
2.34715
2.33973
2.33344
2.32658
2.31923
2.31072
2.30202
2.29482
2.28819
2.28171
2.27545
2.2687
2.26148
2.25392
2.24734
2.24105
2.23418
2.22782
2.22173
2.21546
2.20913
2.20302
2.19709
2.19138
2.18584
2.18012
2.17397
2.16911
2.16546
2.16197
2.1573
2.15161
2.145
2.13636
2.12462
2.11393
2.10804
2.10383
2.09982
2.09639
2.09238
2.08791
2.08182
2.07262
2.06177
2.0537
2.04982
2.04711
2.04598
2.04636
2.04513
2.04148
2.03625
2.02784
2.01599
2.00479
1.99795
1.99359
1.98995
1.98707
1.98518
1.98399
1.98197
1.97811
1.97223
1.96412
1.95541
1.9485
1.94231
1.93539
1.92846
1.92298
1.91851
1.91424
1.90986
1.9064
1.9042
1.90264
1.9004
1.89745
1.89326
1.88549
1.8747
1.86759
1.86383
1.86103
1.85919
1.86105
1.86158
1.85849
1.85493
1.84869
1.8368
1.82251
1.81424
1.81135
1.80826
2.21352
2.15533
2.09988
2.04034
1.98194
1.93208
1.87923
1.82622
1.77854
1.73771
1.69561
1.65241
1.62136
1.59339
1.55399
1.51773
1.50514
1.48626
1.45706
1.43196
1.42395
1.41706
1.40281
1.37958
1.35471
1.34521
1.34027
1.33247
1.3179
1.30107
1.29092
1.28215
1.27718
1.27208