/*--------------------------------*- C++ -*----------------------------------*\
  =========                 |
  \\      /  F ield         | OpenFOAM: The Open Source CFD Toolbox
   \\    /   O peration     | Website:  https://openfoam.org
    \\  /    A nd           | Version:  7
     \\/     M anipulation  |
\*---------------------------------------------------------------------------*/
FoamFile
{
    version     2.0;
    format      ascii;
    class       volVectorField;
    location    "2.3";
    object      U;
}
// * * * * * * * * * * * * * * * * * * * * * * * * * * * * * * * * * * * * * //

dimensions      [0 1 -1 0 0 0 0];

internalField   nonuniform List<vector> 
16128
(
(3 1.71095e-16 0)
(3 4.86879e-16 0)
(3 1.63187e-16 0)
(3 -2.74599e-16 0)
(3 -4.34185e-16 0)
(3 -4.89183e-16 0)
(3 -4.98136e-16 0)
(3 -6.2584e-16 0)
(3 -2.54306e-16 0)
(3 2.75602e-16 0)
(3 4.97327e-16 0)
(3 -3.0694e-16 0)
(3 -4.42411e-16 0)
(3 -4.30004e-16 0)
(3 5.29599e-16 0)
(3 6.83615e-16 0)
(3 6.12982e-17 0)
(3 -2.72617e-16 0)
(3 -7.95158e-16 0)
(3 -4.47568e-16 0)
(3 8.71793e-17 0)
(3 4.67716e-17 0)
(3 6.64102e-16 0)
(3 1.07071e-15 0)
(2.35958 0.00564908 0)
(0.861173 0.00818575 0)
(0.726044 0.0132853 0)
(0.695894 0.0131867 0)
(0.663147 0.0132977 0)
(0.632035 0.0135054 0)
(0.601126 0.013621 0)
(0.570729 0.0136674 0)
(0.540571 0.0137957 0)
(0.51026 0.0141227 0)
(0.47961 0.0144168 0)
(0.448981 0.0144244 0)
(0.418562 0.0144913 0)
(0.387657 0.015078 0)
(0.355326 0.0159887 0)
(0.321467 0.0166913 0)
(0.286895 0.0169257 0)
(0.25235 0.0169379 0)
(0.217884 0.0170015 0)
(0.182829 0.0175816 0)
(0.145803 0.0185188 0)
(0.106854 0.0199567 0)
(0.0652607 0.0207506 0)
(0.0228294 0.021678 0)
(3 2.3729e-17 0)
(3 1.84098e-16 0)
(3 -4.80588e-17 0)
(3 -1.03184e-15 0)
(3 -1.76152e-15 0)
(3 -1.484e-15 0)
(3 -1.10593e-15 0)
(3 -8.71254e-16 0)
(3 -7.03536e-16 0)
(3 -2.36795e-16 0)
(3 -9.66346e-17 0)
(3 -1.80142e-16 0)
(3 -4.01169e-16 0)
(3 -6.46721e-16 0)
(3 1.64781e-16 0)
(3 5.88154e-16 0)
(3 -2.33439e-16 0)
(3 -1.06166e-15 0)
(3 -1.40724e-15 0)
(3 -1.54434e-15 0)
(3 -1.07563e-16 0)
(3 1.27559e-15 0)
(3 1.51184e-15 0)
(3 1.63332e-15 0)
(2.37492 0.0285063 0)
(0.857809 0.0375192 0)
(0.716724 0.0404139 0)
(0.686583 0.036803 0)
(0.654453 0.0373091 0)
(0.623818 0.0384309 0)
(0.593246 0.0391961 0)
(0.563018 0.0396861 0)
(0.532832 0.0402601 0)
(0.502443 0.0412342 0)
(0.471816 0.0420847 0)
(0.441275 0.042227 0)
(0.410854 0.0426679 0)
(0.379878 0.0446123 0)
(0.347592 0.0473977 0)
(0.314026 0.0494917 0)
(0.280027 0.0502718 0)
(0.246187 0.0505411 0)
(0.212436 0.0509688 0)
(0.178196 0.0528666 0)
(0.142134 0.0557531 0)
(0.104524 0.0601467 0)
(0.0641054 0.0628201 0)
(0.0226295 0.0660267 0)
(3 -3.52391e-17 0)
(3 7.18539e-18 0)
(3 -8.0467e-17 0)
(3 -5.21069e-16 0)
(3 -6.74706e-16 0)
(3 -6.15554e-16 0)
(3 -1.13366e-16 0)
(3 1.50834e-16 0)
(3 -1.71617e-16 0)
(3 -7.15072e-16 0)
(3 -8.32237e-16 0)
(3 -7.27267e-16 0)
(3 -3.13315e-16 0)
(3 -1.64643e-16 0)
(3 -1.23291e-17 0)
(3 5.01062e-16 0)
(3 5.83411e-17 0)
(3 -9.91685e-16 0)
(3 -1.37178e-15 0)
(3 -1.28827e-15 0)
(3 -4.12939e-16 0)
(3 1.53645e-15 0)
(3 1.75854e-15 0)
(3 6.20188e-16 0)
(2.44189 0.0528462 0)
(0.874715 0.0676852 0)
(0.723683 0.0690609 0)
(0.691354 0.0638694 0)
(0.657114 0.0641189 0)
(0.625214 0.0654199 0)
(0.59389 0.0664434 0)
(0.563101 0.0673001 0)
(0.532307 0.0683617 0)
(0.50127 0.0698987 0)
(0.470017 0.0711005 0)
(0.438802 0.0712425 0)
(0.407509 0.0719981 0)
(0.375566 0.0751577 0)
(0.342422 0.0794744 0)
(0.308243 0.0824541 0)
(0.273993 0.0832854 0)
(0.240175 0.0834726 0)
(0.20659 0.0839897 0)
(0.1728 0.0869279 0)
(0.137324 0.0914224 0)
(0.101096 0.0985704 0)
(0.0620256 0.103241 0)
(0.0220967 0.109006 0)
(3 1.97012e-16 0)
(3 2.19785e-16 0)
(3 1.47583e-16 0)
(3 9.72667e-17 0)
(3 3.58955e-16 0)
(3 2.02207e-16 0)
(3 4.16129e-16 0)
(3 7.17172e-16 0)
(3 4.08141e-16 0)
(3 -4.26539e-16 0)
(3 -7.88041e-16 0)
(3 -6.59637e-16 0)
(3 -3.98634e-16 0)
(3 3.52703e-16 0)
(3 5.05519e-16 0)
(3 3.49214e-16 0)
(3 -6.0523e-17 0)
(3 3.1599e-16 0)
(3 2.91883e-16 0)
(3 2.63003e-16 0)
(3 5.00748e-16 0)
(3 6.74431e-16 0)
(3 8.63584e-16 0)
(3 9.66339e-16 0)
(2.52747 0.0662921 0)
(0.894103 0.0941693 0)
(0.730683 0.0969127 0)
(0.699862 0.0900954 0)
(0.666086 0.0900692 0)
(0.634431 0.091405 0)
(0.603101 0.0927511 0)
(0.572058 0.0942698 0)
(0.540748 0.0961944 0)
(0.509028 0.0985735 0)
(0.476961 0.100381 0)
(0.444694 0.100916 0)
(0.412019 0.102442 0)
(0.378566 0.107119 0)
(0.343976 0.112979 0)
(0.308558 0.116601 0)
(0.273458 0.117175 0)
(0.239084 0.117084 0)
(0.205039 0.117521 0)
(0.170877 0.121207 0)
(0.135304 0.126891 0)
(0.0994238 0.136276 0)
(0.0607973 0.142786 0)
(0.0218368 0.15108 0)
(3 -1.18851e-16 0)
(3 -3.72348e-16 0)
(3 -4.54294e-16 0)
(3 -6.33828e-16 0)
(3 -8.05053e-16 0)
(3 -8.26699e-16 0)
(3 -8.2135e-16 0)
(3 -6.98606e-16 0)
(3 -7.89607e-16 0)
(3 -1.31149e-15 0)
(3 -7.89796e-16 0)
(3 -2.8054e-16 0)
(3 -3.38136e-16 0)
(3 -2.13518e-16 0)
(3 3.06707e-16 0)
(3 8.36179e-16 0)
(3 1.23302e-15 0)
(3 1.02659e-15 0)
(3 5.94303e-16 0)
(3 1.30554e-16 0)
(3 -5.85293e-16 0)
(3 -1.03752e-15 0)
(3 -7.38811e-16 0)
(3 -7.23696e-16 0)
(2.62871 0.0752979 0)
(0.917528 0.121334 0)
(0.73364 0.123045 0)
(0.703793 0.116087 0)
(0.670689 0.116541 0)
(0.639642 0.118164 0)
(0.608693 0.119981 0)
(0.577783 0.122341 0)
(0.546374 0.125238 0)
(0.514463 0.128433 0)
(0.482149 0.130849 0)
(0.44944 0.1319 0)
(0.416107 0.134258 0)
(0.3821 0.140332 0)
(0.347236 0.147436 0)
(0.311841 0.151326 0)
(0.277037 0.151384 0)
(0.242861 0.151002 0)
(0.208553 0.151506 0)
(0.173685 0.156053 0)
(0.137181 0.162853 0)
(0.100531 0.174204 0)
(0.0611373 0.182349 0)
(0.0220976 0.192977 0)
(3 -8.87672e-17 0)
(3 -1.37394e-16 0)
(3 -4.68905e-16 0)
(3 -9.63301e-16 0)
(3 -1.00338e-15 0)
(3 -9.54223e-16 0)
(3 -1.41156e-15 0)
(3 -1.4741e-15 0)
(3 -1.39515e-15 0)
(3 -1.1215e-15 0)
(3 -8.03486e-16 0)
(3 -1.09487e-15 0)
(3 -9.16466e-16 0)
(3 -2.93782e-17 0)
(3 2.15879e-16 0)
(3 1.34114e-15 0)
(3 1.60137e-15 0)
(3 1.29229e-15 0)
(3 -3.82765e-17 0)
(3 -1.36961e-15 0)
(3 -1.65493e-15 0)
(3 -1.8484e-15 0)
(3 -1.61893e-15 0)
(3 -1.52767e-15 0)
(2.7396 0.0825282 0)
(0.949168 0.152662 0)
(0.736918 0.148064 0)
(0.709757 0.14132 0)
(0.678883 0.142434 0)
(0.649372 0.144445 0)
(0.619104 0.146914 0)
(0.588239 0.150379 0)
(0.556511 0.15446 0)
(0.524219 0.158548 0)
(0.491584 0.161703 0)
(0.458478 0.163529 0)
(0.424693 0.166819 0)
(0.390548 0.174075 0)
(0.355978 0.182009 0)
(0.321108 0.185861 0)
(0.286657 0.185506 0)
(0.252092 0.185412 0)
(0.216454 0.186755 0)
(0.179609 0.192664 0)
(0.14093 0.200637 0)
(0.102467 0.213567 0)
(0.0615898 0.222828 0)
(0.0222015 0.235232 0)
(3 1.3513e-16 0)
(3 2.58273e-16 0)
(3 -1.05564e-16 0)
(3 -4.73263e-16 0)
(3 -4.53944e-16 0)
(3 -1.10505e-16 0)
(3 -3.4707e-16 0)
(3 -4.24558e-16 0)
(3 -4.1304e-16 0)
(3 -3.05754e-16 0)
(3 -6.80194e-16 0)
(3 -6.10314e-16 0)
(3 -3.26177e-16 0)
(3 -3.25528e-16 0)
(3 -3.7166e-16 0)
(3 -9.07226e-17 0)
(3 1.44073e-16 0)
(3 2.76545e-17 0)
(3 -5.71018e-17 0)
(3 -2.82727e-17 0)
(3 -6.99342e-16 0)
(3 -9.43173e-16 0)
(3 -6.32004e-16 0)
(3 -3.67893e-16 0)
(2.86051 0.0847109 0)
(0.998931 0.182702 0)
(0.750586 0.168559 0)
(0.72632 0.163038 0)
(0.69686 0.165874 0)
(0.667792 0.169392 0)
(0.637161 0.173559 0)
(0.605478 0.178836 0)
(0.572841 0.184398 0)
(0.539899 0.189342 0)
(0.506998 0.193194 0)
(0.473801 0.195862 0)
(0.440051 0.199942 0)
(0.406342 0.20789 0)
(0.372592 0.21611 0)
(0.338481 0.21987 0)
(0.304003 0.219802 0)
(0.268299 0.221136 0)
(0.230482 0.224374 0)
(0.190802 0.232149 0)
(0.149046 0.241269 0)
(0.107697 0.255297 0)
(0.0642389 0.265002 0)
(0.022991 0.278407 0)
(3 -7.75094e-17 0)
(3 -7.94329e-17 0)
(3 -1.11724e-16 0)
(3 1.18468e-16 0)
(3 -6.20986e-17 0)
(3 1.24947e-16 0)
(3 4.88608e-16 0)
(3 3.61706e-16 0)
(3 4.74215e-16 0)
(3 4.39213e-16 0)
(3 4.24524e-16 0)
(3 8.19479e-16 0)
(3 8.43875e-16 0)
(3 1.03115e-17 0)
(3 4.07132e-17 0)
(3 -1.96508e-16 0)
(3 -5.15595e-16 0)
(3 -8.77005e-16 0)
(3 -6.6961e-16 0)
(3 1.52134e-16 0)
(3 6.20211e-16 0)
(3 2.57624e-16 0)
(3 -1.30599e-16 0)
(3 -5.52277e-16 0)
(2.96323 0.0377945 0)
(1.05541 0.209733 0)
(0.768232 0.181725 0)
(0.745943 0.181627 0)
(0.717725 0.187929 0)
(0.689071 0.19363 0)
(0.658617 0.199885 0)
(0.626845 0.207044 0)
(0.59414 0.213808 0)
(0.561337 0.219074 0)
(0.528873 0.223176 0)
(0.496218 0.226457 0)
(0.463004 0.231021 0)
(0.429908 0.239177 0)
(0.396767 0.247456 0)
(0.362873 0.251781 0)
(0.327663 0.253376 0)
(0.290377 0.257638 0)
(0.250034 0.2642 0)
(0.207065 0.274767 0)
(0.161411 0.28552 0)
(0.116148 0.300553 0)
(0.0690528 0.310398 0)
(0.0243493 0.324254 0)
(3 -8.31523e-17 0)
(3 -7.62886e-17 0)
(3 5.34119e-17 0)
(3 5.22242e-16 0)
(3 5.58666e-16 0)
(3 1.41939e-16 0)
(3 -1.16068e-16 0)
(3 1.68198e-16 0)
(3 4.20948e-16 0)
(3 3.32167e-16 0)
(3 -4.33647e-17 0)
(3 -2.06927e-16 0)
(3 1.12751e-16 0)
(3 7.48073e-16 0)
(3 6.51634e-16 0)
(3 -4.0013e-16 0)
(3 -1.17323e-15 0)
(3 -1.43638e-15 0)
(3 -1.62044e-15 0)
(3 -1.16516e-15 0)
(3 -2.18949e-16 0)
(3 -1.16116e-17 0)
(3 -2.97661e-16 0)
(3 -1.41128e-15 0)
(3.00713 0.00489596 0)
(1.12937 0.222408 0)
(0.775457 0.198355 0)
(0.748971 0.206331 0)
(0.722359 0.214246 0)
(0.69602 0.220695 0)
(0.668833 0.228024 0)
(0.639786 0.23639 0)
(0.608912 0.244139 0)
(0.577182 0.249836 0)
(0.545456 0.254519 0)
(0.513315 0.258891 0)
(0.480299 0.264439 0)
(0.447047 0.273254 0)
(0.413383 0.282241 0)
(0.378489 0.287947 0)
(0.341751 0.291633 0)
(0.303074 0.298784 0)
(0.261583 0.308505 0)
(0.217632 0.321532 0)
(0.170748 0.333787 0)
(0.123661 0.349727 0)
(0.0738617 0.359689 0)
(0.0262797 0.374021 0)
(3 1.59527e-16 0)
(3 4.42243e-16 0)
(3 6.44423e-16 0)
(3 6.91566e-16 0)
(3 3.0609e-16 0)
(3 9.27765e-17 0)
(3 2.28757e-16 0)
(3 -1.6181e-16 0)
(3 -7.87285e-16 0)
(3 -7.71556e-16 0)
(3 -7.68821e-16 0)
(3 -4.69747e-16 0)
(3 2.43307e-16 0)
(3 2.11068e-16 0)
(3 -5.96949e-16 0)
(3 -1.46098e-15 0)
(3 -2.28278e-15 0)
(3 -2.39005e-15 0)
(3 -1.07771e-15 0)
(3 -8.01812e-16 0)
(3 -7.19309e-16 0)
(3 -1.25699e-15 0)
(3 -1.7811e-15 0)
(3 -2.27399e-15 0)
(3.00027 1.7272e-05 0)
(1.24367 0.248189 0)
(0.77399 0.219193 0)
(0.737357 0.226812 0)
(0.711743 0.234513 0)
(0.687359 0.242316 0)
(0.664111 0.252286 0)
(0.640113 0.26308 0)
(0.614447 0.272332 0)
(0.587257 0.27845 0)
(0.559214 0.283483 0)
(0.529792 0.288952 0)
(0.498486 0.295821 0)
(0.466032 0.30564 0)
(0.432446 0.31569 0)
(0.397014 0.323238 0)
(0.359043 0.329434 0)
(0.318929 0.339754 0)
(0.275793 0.35318 0)
(0.229747 0.369321 0)
(0.180743 0.384109 0)
(0.131139 0.401893 0)
(0.0785327 0.412831 0)
(0.0276594 0.428007 0)
(3 3.24091e-17 0)
(3 3.17463e-17 0)
(3 2.4706e-16 0)
(3 -6.02691e-17 0)
(3 -4.98835e-16 0)
(3 -8.51474e-16 0)
(3 -6.70676e-16 0)
(3 -9.2579e-16 0)
(3 -1.03318e-15 0)
(3 -3.20591e-16 0)
(3 -7.94236e-18 0)
(3 4.37875e-16 0)
(3 1.94558e-16 0)
(3 -7.1459e-16 0)
(3 -1.05026e-15 0)
(3 -1.21094e-15 0)
(3 -2.12648e-15 0)
(3 -1.63335e-15 0)
(3 -1.04377e-15 0)
(3 -1.07633e-15 0)
(3 -1.24599e-15 0)
(3 -1.91892e-15 0)
(3 -2.47976e-15 0)
(3 -2.3769e-15 0)
(3 -3.1204e-08 0)
(1.42825 0.279873 0)
(0.785919 0.251106 0)
(0.730289 0.253957 0)
(0.699532 0.255319 0)
(0.673039 0.260092 0)
(0.650233 0.269713 0)
(0.629172 0.282485 0)
(0.607924 0.294664 0)
(0.585345 0.303098 0)
(0.562017 0.3101 0)
(0.537095 0.317809 0)
(0.509449 0.326963 0)
(0.479401 0.338722 0)
(0.446892 0.3508 0)
(0.411463 0.361122 0)
(0.372679 0.370393 0)
(0.331835 0.383862 0)
(0.288605 0.400794 0)
(0.242284 0.419752 0)
(0.193089 0.437107 0)
(0.141852 0.457584 0)
(0.0855164 0.47055 0)
(0.0305879 0.487271 0)
(3 3.09693e-17 0)
(3 -1.31314e-16 0)
(3 -2.8522e-16 0)
(3 -4.4222e-16 0)
(3 3.56567e-16 0)
(3 2.97325e-16 0)
(3 -5.85335e-16 0)
(3 -3.23709e-16 0)
(3 2.99418e-16 0)
(3 2.32327e-16 0)
(3 1.0587e-16 0)
(3 -1.13806e-15 0)
(3 -1.03857e-15 0)
(3 -8.40162e-16 0)
(3 -1.08907e-15 0)
(3 -2.26463e-16 0)
(3 -8.4985e-17 0)
(3 -1.10892e-16 0)
(3 -1.57526e-15 0)
(3 -2.47193e-15 0)
(3 -2.09247e-15 0)
(3 -1.76759e-15 0)
(3 -1.16169e-15 0)
(3 -6.68602e-16 0)
(3 -1.99824e-08 0)
(1.69082 0.307296 0)
(0.811179 0.292111 0)
(0.728771 0.288284 0)
(0.693381 0.281998 0)
(0.663907 0.28304 0)
(0.639643 0.289336 0)
(0.618694 0.300407 0)
(0.598812 0.312801 0)
(0.578041 0.322416 0)
(0.557021 0.331215 0)
(0.535327 0.341852 0)
(0.511571 0.354453 0)
(0.485529 0.369412 0)
(0.456435 0.384624 0)
(0.423657 0.398587 0)
(0.38665 0.411467 0)
(0.347059 0.428102 0)
(0.304628 0.448665 0)
(0.257333 0.471947 0)
(0.206099 0.493673 0)
(0.151986 0.518807 0)
(0.0920444 0.535601 0)
(0.0315281 0.553558 0)
(3 -3.00997e-16 0)
(3 -4.96971e-16 0)
(3 -7.31731e-16 0)
(3 -1.44673e-16 0)
(3 3.1096e-16 0)
(3 7.63552e-16 0)
(3 7.58521e-16 0)
(3 1.33994e-16 0)
(3 1.27017e-16 0)
(3 -2.34311e-16 0)
(3 -4.54079e-16 0)
(3 -1.13444e-15 0)
(3 -8.88922e-16 0)
(3 -5.33861e-16 0)
(3 -1.45908e-16 0)
(3 4.20761e-16 0)
(3 9.05432e-16 0)
(3 1.6416e-16 0)
(3 -1.63522e-15 0)
(3 -1.9269e-15 0)
(3 -2.45407e-15 0)
(3 -1.55816e-15 0)
(3 -7.27212e-16 0)
(3 -4.07664e-16 0)
(3 -3.77225e-09 0)
(2.02601 0.333639 0)
(0.844192 0.349379 0)
(0.739263 0.327394 0)
(0.708678 0.316949 0)
(0.676896 0.312618 0)
(0.647986 0.314113 0)
(0.62324 0.323474 0)
(0.600957 0.335284 0)
(0.578711 0.344704 0)
(0.556769 0.353411 0)
(0.53521 0.364864 0)
(0.512887 0.379348 0)
(0.489628 0.397065 0)
(0.464148 0.415788 0)
(0.435356 0.434046 0)
(0.401912 0.451363 0)
(0.365234 0.472285 0)
(0.324528 0.497489 0)
(0.280221 0.526329 0)
(0.22977 0.552804 0)
(0.175222 0.583735 0)
(0.109106 0.607914 0)
(0.039258 0.630177 0)
(3 -2.45807e-16 0)
(3 -1.36709e-16 0)
(3 1.36518e-16 0)
(3 8.69089e-17 0)
(3 2.38629e-16 0)
(3 4.85249e-16 0)
(3 1.00039e-15 0)
(3 5.86891e-16 0)
(3 3.18003e-16 0)
(3 4.07335e-17 0)
(3 4.47153e-16 0)
(3 5.45972e-16 0)
(3 -9.67071e-18 0)
(3 -4.26356e-16 0)
(3 3.6441e-17 0)
(3 4.8732e-16 0)
(3 6.70382e-16 0)
(3 -2.10799e-16 0)
(3 -7.0149e-16 0)
(3 -4.53007e-16 0)
(3 -6.25136e-16 0)
(3 -5.94129e-16 0)
(3 -5.41303e-16 0)
(3 -5.07215e-16 0)
(3 -3.34645e-10 0)
(2.48887 0.320102 0)
(0.931881 0.402682 0)
(0.79372 0.342227 0)
(0.765344 0.337359 0)
(0.72603 0.339773 0)
(0.687424 0.340393 0)
(0.652819 0.347544 0)
(0.623081 0.358973 0)
(0.595564 0.368929 0)
(0.569586 0.377906 0)
(0.545413 0.389712 0)
(0.5221 0.404634 0)
(0.499572 0.423479 0)
(0.47655 0.44452 0)
(0.451174 0.466424 0)
(0.421948 0.488502 0)
(0.389103 0.514559 0)
(0.351603 0.544974 0)
(0.310316 0.580669 0)
(0.25751 0.616963 0)
(0.196593 0.660333 0)
(0.123307 0.7004 0)
(0.0390501 0.727473 0)
(3 3.62413e-16 0)
(3 5.91247e-16 0)
(3 7.93479e-16 0)
(3 7.69239e-16 0)
(3 2.09605e-16 0)
(3 4.95e-16 0)
(3 5.96755e-16 0)
(3 9.97554e-16 0)
(3 9.5824e-16 0)
(3 5.52229e-16 0)
(3 2.76163e-16 0)
(3 6.55356e-16 0)
(3 5.88546e-16 0)
(3 2.22842e-16 0)
(3 -7.89435e-17 0)
(3 -3.06542e-16 0)
(3 -2.59657e-16 0)
(3 -4.29366e-16 0)
(3 6.02423e-17 0)
(3 5.8311e-16 0)
(3 8.81617e-16 0)
(3 9.26043e-16 0)
(3 1.11378e-15 0)
(3 1.49786e-16 0)
(3 -9.73462e-12 0)
(2.97095 0.118704 0)
(1.09637 0.406643 0)
(0.850139 0.366416 0)
(0.829163 0.366028 0)
(0.78755 0.371042 0)
(0.743602 0.375409 0)
(0.700212 0.380874 0)
(0.662065 0.389779 0)
(0.627945 0.398277 0)
(0.596716 0.406165 0)
(0.568474 0.417162 0)
(0.542026 0.431465 0)
(0.518385 0.450098 0)
(0.495997 0.472282 0)
(0.472583 0.496911 0)
(0.446999 0.52351 0)
(0.418349 0.554947 0)
(0.384754 0.592206 0)
(0.346709 0.638222 0)
(0.299871 0.688878 0)
(0.245203 0.743764 0)
(0.176209 0.799021 0)
(0.0679384 0.846862 0)
(3 7.70562e-17 0)
(3 2.72136e-16 0)
(3 2.10319e-16 0)
(3 -2.78984e-18 0)
(3 -1.55397e-16 0)
(3 -3.12511e-17 0)
(3 2.57877e-17 0)
(3 5.22027e-16 0)
(3 6.9325e-16 0)
(3 9.06531e-16 0)
(3 6.43097e-16 0)
(3 6.66061e-16 0)
(3 4.61109e-16 0)
(3 7.59409e-17 0)
(3 -2.58071e-16 0)
(3 -6.78218e-16 0)
(3 -8.232e-16 0)
(3 -4.4689e-16 0)
(3 3.74989e-16 0)
(3 1.3481e-15 0)
(3 2.22677e-15 0)
(3 2.71243e-15 0)
(3 2.24588e-15 0)
(3 1.72544e-15 0)
(3 -1.11555e-13 0)
(3.02814 0.00651621 0)
(1.23403 0.381368 0)
(0.851707 0.390019 0)
(0.835039 0.408751 0)
(0.803992 0.412951 0)
(0.775225 0.414936 0)
(0.741247 0.417548 0)
(0.705854 0.424123 0)
(0.670671 0.431202 0)
(0.636636 0.437571 0)
(0.604442 0.447489 0)
(0.574886 0.460057 0)
(0.54844 0.477328 0)
(0.524945 0.499419 0)
(0.502065 0.525529 0)
(0.479122 0.555913 0)
(0.454598 0.592791 0)
(0.426697 0.637192 0)
(0.397398 0.69118 0)
(0.361426 0.752228 0)
(0.309895 0.832688 0)
(0.217101 0.944794 0)
(0.118168 1.0691 0)
(3 -1.54495e-17 0)
(3 8.79377e-17 0)
(3 3.23616e-17 0)
(3 2.64616e-17 0)
(3 1.1699e-16 0)
(3 -1.16049e-16 0)
(3 -7.79805e-17 0)
(3 3.21042e-16 0)
(3 7.62712e-16 0)
(3 9.65599e-16 0)
(3 9.82999e-16 0)
(3 3.89031e-16 0)
(3 -2.35894e-16 0)
(3 -1.07074e-16 0)
(3 4.6845e-16 0)
(3 9.3267e-16 0)
(3 7.18354e-16 0)
(3 9.70094e-16 0)
(3 1.8974e-15 0)
(3 1.95519e-15 0)
(3 2.19958e-15 0)
(3 8.34247e-16 0)
(3 5.68966e-16 0)
(3 1.03705e-15 0)
(3 1.5117e-16 0)
(3.00064 8.47456e-07 0)
(1.44265 0.393579 0)
(0.830786 0.402284 0)
(0.810142 0.420958 0)
(0.791264 0.431257 0)
(0.773837 0.438611 0)
(0.754129 0.446936 0)
(0.731005 0.457015 0)
(0.703886 0.466081 0)
(0.673775 0.473109 0)
(0.643262 0.483061 0)
(0.613267 0.494487 0)
(0.585176 0.509697 0)
(0.560506 0.530282 0)
(0.537557 0.556211 0)
(0.516821 0.588599 0)
(0.497031 0.629071 0)
(0.476275 0.677963 0)
(0.45666 0.739122 0)
(0.430841 0.820685 0)
(0.404709 0.946957 0)
(0.392783 1.10428 0)
(0.503283 1.36228 0)
(3 -2.70624e-18 0)
(3 -2.97384e-16 0)
(3 -8.65773e-17 0)
(3 -4.8026e-17 0)
(3 -6.70847e-17 0)
(3 -4.77417e-16 0)
(3 -5.05809e-16 0)
(3 -3.03155e-16 0)
(3 -2.12594e-16 0)
(3 -5.90615e-16 0)
(3 -9.35853e-17 0)
(3 3.66827e-17 0)
(3 1.21595e-18 0)
(3 4.23494e-16 0)
(3 6.40105e-16 0)
(3 1.1219e-15 0)
(3 1.03673e-15 0)
(3 9.16216e-16 0)
(3 1.05756e-15 0)
(3 7.30793e-16 0)
(3 2.20381e-17 0)
(3 -2.41285e-16 0)
(3 -5.07846e-16 0)
(3 3.37466e-16 0)
(3 -2.46387e-16 0)
(3 -5.63593e-08 0)
(1.81051 0.4329 0)
(0.852843 0.44511 0)
(0.787795 0.430448 0)
(0.779613 0.438442 0)
(0.771755 0.45069 0)
(0.760156 0.465107 0)
(0.745209 0.479603 0)
(0.72667 0.492526 0)
(0.704214 0.502438 0)
(0.680563 0.51423 0)
(0.655212 0.526417 0)
(0.629185 0.540687 0)
(0.605041 0.559899 0)
(0.582242 0.58507 0)
(0.563024 0.618066 0)
(0.547134 0.660471 0)
(0.533767 0.71314 0)
(0.524338 0.781757 0)
(0.52296 0.877858 0)
(0.532186 1.01216 0)
(0.612386 1.16461 0)
(0.916099 1.35862 0)
(3 -4.66998e-17 0)
(3 -5.70206e-16 0)
(3 -3.94585e-16 0)
(3 -2.27587e-16 0)
(3 -2.48187e-16 0)
(3 -2.78129e-16 0)
(3 -5.9661e-16 0)
(3 -6.24111e-16 0)
(3 -6.98455e-16 0)
(3 -7.97251e-16 0)
(3 -9.63233e-16 0)
(3 -4.67208e-16 0)
(3 -8.62732e-17 0)
(3 1.43565e-16 0)
(3 -5.07623e-17 0)
(3 3.65234e-16 0)
(3 5.95535e-16 0)
(3 -1.81793e-16 0)
(3 -9.80334e-16 0)
(3 -1.18238e-15 0)
(3 -1.16738e-15 0)
(3 -4.50003e-16 0)
(3 -3.41422e-16 0)
(3 -4.69162e-16 0)
(3 2.70726e-16 0)
(3 -4.6746e-08 0)
(2.41594 0.407281 0)
(0.949595 0.50726 0)
(0.832087 0.445331 0)
(0.810335 0.448393 0)
(0.790724 0.462406 0)
(0.776659 0.481123 0)
(0.761056 0.498606 0)
(0.745535 0.514514 0)
(0.727707 0.527376 0)
(0.710611 0.541997 0)
(0.691962 0.557273 0)
(0.67129 0.573512 0)
(0.65049 0.593157 0)
(0.630174 0.61789 0)
(0.613464 0.650182 0)
(0.601621 0.692075 0)
(0.596489 0.745248 0)
(0.598765 0.814645 0)
(0.620184 0.910395 0)
(0.666216 1.03347 0)
(0.811654 1.17092 0)
(1.14417 1.29415 0)
(3 3.22175e-17 0)
(3 2.86947e-16 0)
(3 4.38742e-16 0)
(3 7.84293e-16 0)
(3 9.67475e-16 0)
(3 6.25719e-16 0)
(3 -1.43132e-16 0)
(3 -5.37138e-16 0)
(3 -9.07e-16 0)
(3 -1.02391e-15 0)
(3 -1.95444e-15 0)
(3 -2.18804e-15 0)
(3 -9.10983e-16 0)
(3 2.2668e-16 0)
(3 7.84735e-16 0)
(3 9.06526e-16 0)
(3 6.43682e-16 0)
(3 -1.6574e-16 0)
(3 -1.44585e-15 0)
(3 -1.74875e-15 0)
(3 -1.46352e-15 0)
(3 -6.95035e-16 0)
(3 -7.17872e-16 0)
(3 -1.45514e-15 0)
(3 -4.00668e-16 0)
(3 -8.58068e-09 0)
(3.03808 0.107104 0)
(1.17841 0.495568 0)
(0.900825 0.473372 0)
(0.86991 0.47605 0)
(0.833349 0.485508 0)
(0.80693 0.499523 0)
(0.786525 0.515624 0)
(0.770204 0.531816 0)
(0.75343 0.545613 0)
(0.739899 0.561544 0)
(0.726503 0.579346 0)
(0.712198 0.598757 0)
(0.696837 0.620445 0)
(0.681644 0.645837 0)
(0.668987 0.677495 0)
(0.661373 0.717899 0)
(0.662885 0.769452 0)
(0.676679 0.835282 0)
(0.712778 0.923452 0)
(0.789788 1.03409 0)
(0.96145 1.14408 0)
(1.24255 1.21936 0)
(3 -1.83236e-18 0)
(3 4.5892e-16 0)
(3 6.24232e-16 0)
(3 3.49978e-16 0)
(3 8.67657e-16 0)
(3 6.98184e-16 0)
(3 4.0075e-16 0)
(3 -1.76135e-16 0)
(3 -1.01224e-15 0)
(3 -1.52738e-15 0)
(3 -1.34983e-15 0)
(3 -6.44686e-16 0)
(3 -2.35963e-17 0)
(3 4.09751e-16 0)
(3 -2.38358e-16 0)
(3 -7.64079e-16 0)
(3 -7.71613e-16 0)
(3 -1.53698e-15 0)
(3 -2.07245e-15 0)
(3 -2.07514e-15 0)
(3 -1.46493e-15 0)
(3 -1.26364e-15 0)
(3 -7.35412e-16 0)
(3 -6.86448e-16 0)
(3 -4.59307e-16 0)
(3 -7.31464e-10 0)
(3.0242 0.00252149 0)
(1.35793 0.468858 0)
(0.907826 0.522181 0)
(0.875419 0.521407 0)
(0.843794 0.521784 0)
(0.818259 0.527917 0)
(0.799053 0.539611 0)
(0.785231 0.554004 0)
(0.771366 0.566969 0)
(0.761495 0.582494 0)
(0.75287 0.601017 0)
(0.745143 0.622561 0)
(0.73696 0.646665 0)
(0.728878 0.673845 0)
(0.722785 0.705755 0)
(0.721522 0.744315 0)
(0.729581 0.791872 0)
(0.753094 0.850433 0)
(0.799208 0.925412 0)
(0.892415 1.01792 0)
(1.06089 1.10009 0)
(1.29564 1.15074 0)
(3 -8.29727e-17 0)
(3 -2.49001e-16 0)
(3 -5.22496e-16 0)
(3 -6.96916e-16 0)
(3 -8.39687e-16 0)
(3 -5.46415e-16 0)
(3 -4.49992e-16 0)
(3 -8.75452e-16 0)
(3 -1.25535e-15 0)
(3 -1.13622e-15 0)
(3 8.32706e-16 0)
(3 1.3347e-15 0)
(3 8.54762e-16 0)
(3 -7.85974e-16 0)
(3 -1.90084e-15 0)
(3 -2.19495e-15 0)
(3 -2.32651e-15 0)
(3 -2.35891e-15 0)
(3 -1.87004e-15 0)
(3 -9.81115e-16 0)
(3 -8.17791e-16 0)
(3 -1.17443e-15 0)
(3 -9.11095e-16 0)
(3 -1.85072e-16 0)
(3 2.67603e-16 0)
(3 -1.90926e-11 0)
(3.00034 -7.63488e-06 0)
(1.73655 0.490515 0)
(0.896989 0.539851 0)
(0.866706 0.539648 0)
(0.852802 0.546684 0)
(0.835211 0.550708 0)
(0.818323 0.557262 0)
(0.806286 0.569243 0)
(0.79447 0.581512 0)
(0.78597 0.596559 0)
(0.779739 0.615445 0)
(0.775885 0.638398 0)
(0.77344 0.664651 0)
(0.772376 0.693666 0)
(0.773757 0.726126 0)
(0.780015 0.763348 0)
(0.794746 0.807025 0)
(0.824729 0.858715 0)
(0.877841 0.920838 0)
(0.975405 0.99484 0)
(1.12871 1.05511 0)
(1.3206 1.08861 0)
(3 -7.89878e-17 0)
(3 -1.45037e-16 0)
(3 -5.21461e-16 0)
(3 -5.70471e-16 0)
(3 -6.42237e-16 0)
(3 -6.09277e-16 0)
(3 -2.11937e-16 0)
(3 -3.73969e-16 0)
(3 -3.87322e-17 0)
(3 9.57413e-16 0)
(3 1.49788e-15 0)
(3 1.37985e-15 0)
(3 4.87099e-16 0)
(3 -6.17588e-16 0)
(3 -1.81616e-15 0)
(3 -1.51031e-15 0)
(3 -1.73969e-15 0)
(3 -1.27694e-15 0)
(3 -7.64481e-17 0)
(3 3.57236e-16 0)
(3 3.64176e-16 0)
(3 -3.40526e-16 0)
(3 -4.84587e-16 0)
(3 -5.2212e-16 0)
(3 1.47574e-16 0)
(3 -3.98576e-14 0)
(3.00002 -7.8161e-06 0)
(2.4548 0.429937 0)
(1.00214 0.594524 0)
(0.892474 0.539326 0)
(0.884849 0.554139 0)
(0.86576 0.568011 0)
(0.846162 0.575736 0)
(0.831942 0.587046 0)
(0.82047 0.599201 0)
(0.811233 0.613471 0)
(0.805753 0.63178 0)
(0.803953 0.654447 0)
(0.805405 0.680997 0)
(0.810237 0.710712 0)
(0.818724 0.743519 0)
(0.833026 0.779866 0)
(0.855167 0.820244 0)
(0.890733 0.865134 0)
(0.948204 0.914651 0)
(1.04261 0.971169 0)
(1.17559 1.01377 0)
(1.33416 1.03626 0)
(3 9.31918e-17 0)
(3 5.29205e-16 0)
(3 4.69312e-16 0)
(3 9.20438e-16 0)
(3 9.83636e-16 0)
(3 8.16742e-16 0)
(3 6.32969e-16 0)
(3 6.19833e-16 0)
(3 5.65444e-16 0)
(3 7.41887e-16 0)
(3 5.5438e-16 0)
(3 4.19461e-17 0)
(3 2.79481e-17 0)
(3 1.87024e-16 0)
(3 -1.00718e-17 0)
(3 -5.39101e-16 0)
(3 -1.26433e-16 0)
(3 2.08534e-16 0)
(3 -1.85112e-19 0)
(3 -7.12843e-16 0)
(3 -6.8713e-16 0)
(3 -3.2161e-16 0)
(3 -1.86159e-16 0)
(3 -4.64464e-16 0)
(3 -6.01272e-16 0)
(3 -1.03707e-15 0)
(3 -1.71423e-06 0)
(3.08763 0.0759512 0)
(1.27222 0.579323 0)
(0.952082 0.555958 0)
(0.928589 0.580244 0)
(0.906058 0.591733 0)
(0.882384 0.596086 0)
(0.864486 0.604185 0)
(0.851651 0.615479 0)
(0.840975 0.628845 0)
(0.834649 0.645826 0)
(0.833251 0.667215 0)
(0.836466 0.692588 0)
(0.844909 0.721339 0)
(0.858385 0.753137 0)
(0.879156 0.787972 0)
(0.907882 0.826364 0)
(0.949577 0.867551 0)
(1.00953 0.907136 0)
(1.09767 0.950057 0)
(1.21193 0.980842 0)
(1.3452 0.995007 0)
(3 6.68985e-18 0)
(3 3.279e-17 0)
(3 4.58868e-16 0)
(3 8.68066e-16 0)
(3 9.29481e-16 0)
(3 3.54203e-16 0)
(3 1.47574e-16 0)
(3 1.90734e-16 0)
(3 -1.91358e-17 0)
(3 -2.21066e-16 0)
(3 -3.46802e-16 0)
(3 -6.329e-17 0)
(3 5.70977e-16 0)
(3 6.85185e-16 0)
(3 1.26047e-15 0)
(3 5.12802e-16 0)
(3 3.7295e-16 0)
(3 -7.71729e-17 0)
(3 -1.20529e-15 0)
(3 -1.47605e-15 0)
(3 -1.39902e-15 0)
(3 -4.46217e-16 0)
(3 -1.8879e-16 0)
(3 -3.1773e-16 0)
(3 -1.04851e-15 0)
(3 -1.05417e-15 0)
(3 -1.69499e-07 0)
(3.01511 0.000405267 0)
(1.52075 0.558604 0)
(0.951621 0.623836 0)
(0.924536 0.611366 0)
(0.913452 0.618812 0)
(0.900574 0.624605 0)
(0.888877 0.628736 0)
(0.878592 0.637453 0)
(0.869973 0.649015 0)
(0.863824 0.663499 0)
(0.862805 0.682447 0)
(0.86722 0.705358 0)
(0.877936 0.731601 0)
(0.894638 0.760918 0)
(0.919502 0.79285 0)
(0.952983 0.827944 0)
(0.999831 0.866432 0)
(1.06108 0.89909 0)
(1.14317 0.931827 0)
(1.24186 0.953726 0)
(1.35623 0.960927 0)
(3 -1.50028e-17 0)
(3 -2.01849e-16 0)
(3 3.13101e-17 0)
(3 1.47704e-16 0)
(3 1.91827e-16 0)
(3 -3.24942e-16 0)
(3 8.11519e-17 0)
(3 2.7577e-16 0)
(3 9.42746e-17 0)
(3 -4.05371e-16 0)
(3 -5.02156e-16 0)
(3 -4.89275e-16 0)
(3 -4.36042e-16 0)
(3 2.13238e-16 0)
(3 8.98127e-16 0)
(3 8.61109e-16 0)
(3 -3.02884e-16 0)
(3 -9.2188e-16 0)
(3 -8.97243e-16 0)
(3 -1.12031e-15 0)
(3 -9.17534e-16 0)
(3 -5.30596e-16 0)
(3 -5.13992e-16 0)
(3 -2.79809e-16 0)
(3 -9.62388e-16 0)
(3 -1.4277e-15 0)
(3 -5.28578e-09 0)
(3.00013 -4.71544e-06 0)
(2.18724 0.536548 0)
(1.01351 0.660267 0)
(0.946123 0.615106 0)
(0.940367 0.622988 0)
(0.930454 0.63599 0)
(0.919238 0.643785 0)
(0.910001 0.653398 0)
(0.902795 0.665904 0)
(0.897079 0.6792 0)
(0.895653 0.695497 0)
(0.900043 0.715498 0)
(0.911322 0.738686 0)
(0.929196 0.764683 0)
(0.955422 0.793163 0)
(0.991043 0.82431 0)
(1.04004 0.859742 0)
(1.10218 0.888788 0)
(1.18004 0.916071 0)
(1.26761 0.932967 0)
(1.36978 0.938361 0)
(3 1.74473e-17 0)
(3 -4.36361e-17 0)
(3 -1.05584e-16 0)
(3 -3.40871e-16 0)
(3 -3.15931e-16 0)
(3 -2.5145e-16 0)
(3 -1.91382e-16 0)
(3 -1.52688e-16 0)
(3 -4.75696e-16 0)
(3 -7.13655e-16 0)
(3 -7.69436e-16 0)
(3 -8.89968e-16 0)
(3 -1.02197e-15 0)
(3 -8.50795e-16 0)
(3 -5.3919e-16 0)
(3 -5.3469e-16 0)
(3 -6.28009e-16 0)
(3 -5.72065e-16 0)
(3 -2.2624e-16 0)
(3 -5.02439e-16 0)
(3 -7.48304e-16 0)
(3 -7.51032e-16 0)
(3 -7.83824e-16 0)
(3 -2.96308e-16 0)
(3 -7.09138e-16 0)
(3 -1.09076e-15 0)
(3 -1.24304e-11 0)
(3.00001 -5.86868e-06 0)
(3.03279 0.151823 0)
(1.25766 0.638098 0)
(1.00229 0.624756 0)
(0.985531 0.643401 0)
(0.969946 0.655152 0)
(0.954298 0.661382 0)
(0.943824 0.670671 0)
(0.936822 0.684155 0)
(0.931703 0.697665 0)
(0.930138 0.711548 0)
(0.934123 0.728225 0)
(0.945349 0.74821 0)
(0.963761 0.770571 0)
(0.990297 0.79474 0)
(1.02599 0.820913 0)
(1.07371 0.850441 0)
(1.13379 0.875968 0)
(1.2059 0.89861 0)
(1.28555 0.911878 0)
(1.37876 0.91684 0)
(3 2.04025e-17 0)
(3 4.28866e-17 0)
(3 -1.01838e-16 0)
(3 -3.55662e-16 0)
(3 -3.39704e-16 0)
(3 -4.10209e-16 0)
(3 -3.29617e-16 0)
(3 -3.09616e-16 0)
(3 2.75258e-16 0)
(3 7.57599e-16 0)
(3 2.19136e-16 0)
(3 -6.64564e-16 0)
(3 -6.11741e-16 0)
(3 -1.07454e-15 0)
(3 -1.92444e-15 0)
(3 -1.49755e-15 0)
(3 1.39181e-16 0)
(3 5.04651e-16 0)
(3 3.23057e-16 0)
(3 9.53287e-17 0)
(3 -3.62578e-16 0)
(3 -1.58056e-15 0)
(3 -1.6995e-15 0)
(3 -1.15625e-15 0)
(3 -5.46907e-16 0)
(3 1.36564e-16 0)
(3 -1.23107e-14 0)
(3 -1.21893e-06 0)
(3.03096 0.00277152 0)
(1.5053 0.611352 0)
(1.00515 0.685819 0)
(0.98756 0.675594 0)
(0.977935 0.68017 0)
(0.97204 0.684316 0)
(0.968304 0.691168 0)
(0.965871 0.703221 0)
(0.964509 0.715522 0)
(0.965097 0.727129 0)
(0.969643 0.739287 0)
(0.980383 0.755449 0)
(0.998617 0.774313 0)
(1.02466 0.795271 0)
(1.05943 0.817868 0)
(1.10476 0.842733 0)
(1.16145 0.865315 0)
(1.22719 0.883942 0)
(1.3013 0.895408 0)
(1.38626 0.901208 0)
(3 2.44343e-16 0)
(3 4.23598e-16 0)
(3 3.28109e-16 0)
(3 3.26758e-16 0)
(3 2.70683e-16 0)
(3 1.39009e-16 0)
(3 2.10134e-16 0)
(3 1.8555e-17 0)
(3 4.1522e-16 0)
(3 5.15588e-16 0)
(3 2.58449e-16 0)
(3 9.71293e-17 0)
(3 -6.63095e-16 0)
(3 -1.20538e-15 0)
(3 -1.45564e-15 0)
(3 -8.6089e-16 0)
(3 -1.19721e-16 0)
(3 3.31538e-16 0)
(3 -5.15828e-17 0)
(3 -9.55422e-17 0)
(3 -2.25323e-16 0)
(3 -1.71719e-16 0)
(3 -4.08254e-16 0)
(3 -5.55423e-16 0)
(3 1.17442e-16 0)
(3 1.43644e-15 0)
(3 1.65214e-15 0)
(3 -9.89232e-08 0)
(3.00046 -5.3641e-06 0)
(2.21338 0.563383 0)
(1.06717 0.721748 0)
(1.00471 0.677176 0)
(1.00127 0.683121 0)
(0.997399 0.693139 0)
(0.994727 0.702704 0)
(0.994432 0.716239 0)
(0.995864 0.730036 0)
(0.99886 0.742227 0)
(1.00471 0.752845 0)
(1.01549 0.764869 0)
(1.03348 0.781039 0)
(1.05897 0.798141 0)
(1.09177 0.816154 0)
(1.13357 0.835907 0)
(1.18566 0.854323 0)
(1.24394 0.868241 0)
(1.3121 0.877852 0)
(1.38789 0.883209 0)
(3 6.08248e-18 0)
(3 5.78255e-17 0)
(3 2.63856e-16 0)
(3 1.83845e-16 0)
(3 1.55071e-16 0)
(3 2.04269e-16 0)
(3 5.80305e-17 0)
(3 -4.33409e-16 0)
(3 -6.37282e-16 0)
(3 -6.98329e-16 0)
(3 -7.78173e-16 0)
(3 -3.92616e-16 0)
(3 -8.9371e-16 0)
(3 -1.01743e-15 0)
(3 3.21109e-16 0)
(3 8.00523e-16 0)
(3 -5.29828e-17 0)
(3 -2.3683e-16 0)
(3 5.18726e-17 0)
(3 5.57351e-17 0)
(3 6.96599e-17 0)
(3 3.80918e-16 0)
(3 5.52014e-16 0)
(3 2.84432e-16 0)
(3 3.43911e-16 0)
(3 4.20678e-16 0)
(3 5.42253e-16 0)
(3 -5.29534e-10 0)
(3.00003 -1.16028e-05 0)
(3.0577 0.129505 0)
(1.34305 0.695051 0)
(1.05893 0.684805 0)
(1.04499 0.700396 0)
(1.03535 0.708225 0)
(1.02721 0.71588 0)
(1.02488 0.728112 0)
(1.02656 0.741307 0)
(1.03096 0.753545 0)
(1.03801 0.764081 0)
(1.04956 0.773336 0)
(1.06665 0.785758 0)
(1.09164 0.801328 0)
(1.12278 0.817003 0)
(1.16179 0.833371 0)
(1.20971 0.848431 0)
(1.26259 0.859549 0)
(1.32515 0.867947 0)
(1.39277 0.871845 0)
(3 -2.56706e-16 0)
(3 -1.10483e-16 0)
(3 -2.46318e-16 0)
(3 -2.57474e-16 0)
(3 -2.24488e-16 0)
(3 -3.8067e-16 0)
(3 -4.00545e-16 0)
(3 6.5191e-16 0)
(3 6.94721e-16 0)
(3 4.83978e-16 0)
(3 7.47762e-16 0)
(3 6.04314e-16 0)
(3 1.18901e-16 0)
(3 -6.71024e-17 0)
(3 2.04935e-16 0)
(3 3.91176e-16 0)
(3 -1.48236e-16 0)
(3 -5.08957e-16 0)
(3 -2.46558e-16 0)
(3 5.6874e-16 0)
(3 6.55512e-16 0)
(3 3.93407e-16 0)