/*--------------------------------*- C++ -*----------------------------------*\
  =========                 |
  \\      /  F ield         | OpenFOAM: The Open Source CFD Toolbox
   \\    /   O peration     | Website:  https://openfoam.org
    \\  /    A nd           | Version:  7
     \\/     M anipulation  |
\*---------------------------------------------------------------------------*/
FoamFile
{
    version     2.0;
    format      ascii;
    class       volScalarField;
    location    "1.6";
    object      p;
}
// * * * * * * * * * * * * * * * * * * * * * * * * * * * * * * * * * * * * * //

dimensions      [1 -1 -2 0 0 0 0];

internalField   nonuniform List<scalar> 
258048
(
1
1
1
1
1
1
1
1
1
1
1
1
1
1
1
1
1
1
1
1
1
1
1
1
1
1
1
1
1
1
1
1
1
1
1
1
1
1
1
1
1
1
1
1
1
1
1
1
1
1
1
1
1
1
1
1
1
1
1
1
1
1
1
1
1
1
1
1
1
1
1
1
1
1
1
1
1
1
1
1
1
1
1
1
1
1
1
1
1
1
1
1
1
1
1
1
1
1
1
1
1
1
3.50379
9.81528
10.5378
10.5353
10.5812
10.6134
10.649
10.6863
10.7244
10.761
10.795
10.8253
10.8514
10.8731
10.8919
10.91
10.9295
10.9502
10.9699
10.9885
11.0076
11.0305
11.0599
11.0978
11.1388
11.1783
11.2142
11.2475
11.2797
11.3102
11.3381
11.3606
11.3759
11.3872
11.4002
11.4182
11.4416
11.4671
11.4932
11.5161
11.5341
11.5496
11.5647
11.5812
11.5991
11.6181
11.6376
11.6564
11.6748
11.693
11.713
11.7352
11.7601
11.7858
11.8097
11.8267
11.8356
11.8425
11.8488
11.8599
11.8784
11.8959
11.9116
11.9256
11.94
11.956
11.9738
11.9926
12.0105
12.025
12.0349
12.0409
12.0433
12.0448
12.0497
12.0561
12.0616
12.0651
12.0683
12.0743
12.0861
12.103
12.1193
12.1285
12.1291
12.1247
12.1206
12.1202
12.1239
12.1284
1
1
1
1
1
1
1
1
1
1
1
1
1
1
1
1
1
1
1
1
1
1
1
1
1
1
1
1
1
1
1
1
1
1
1
1
1
1
1
1
1
1
1
1
1
1
1
1
1
1
1
1
1
1
1
1
1
1
1
1
1
1
1
1
1
1
1
1
1
1
1
1
1
1
1
1
1
1
1
1
1
1
1
1
1
1
1
1
1
1
1
1
1
1
1
1
1
1
1
1
1
1
3.4858
9.80598
10.5252
10.5321
10.5823
10.6155
10.6514
10.6877
10.7243
10.7599
10.7933
10.8236
10.8502
10.8727
10.892
10.9096
10.9276
10.9473
10.9673
10.9867
11.0072
11.0312
11.0614
11.0993
11.1397
11.1781
11.2129
11.2456
11.2781
11.3099
11.3391
11.3627
11.3785
11.3893
11.4012
11.4174
11.4393
11.464
11.4908
11.5149
11.5343
11.5504
11.5653
11.5807
11.5975
11.6161
11.6359
11.6555
11.6745
11.6929
11.7126
11.7343
11.7588
11.7844
11.8085
11.8256
11.8342
11.841
11.8475
11.8593
11.8779
11.8961
11.9123
11.9265
11.9401
11.9546
11.9709
11.9888
12.0067
12.0218
12.0326
12.0392
12.0421
12.044
12.0487
12.0552
12.0612
12.0658
12.07
12.0763
12.0872
12.1023
12.1168
12.1251
12.126
12.1226
12.1199
12.1204
12.1244
12.129
1
1
1
1
1
1
1
1
1
1
1
1
1
1
1
1
1
1
1
1
1
1
1
1
1
1
1
1
1
1
1
1
1
1
1
1
1
1
1
1
1
1
1
1
1
1
1
1
1
1
1
1
1
1
1
1
1
1
1
1
1
1
1
1
1
1
1
1
1
1
1
1
1
1
1
1
1
1
1
1
1
1
1
1
1
1
1
1
1
1
1
1
1
1
1
1
1
1
1
1
1
1
3.44965
9.80022
10.5087
10.5319
10.5813
10.6157
10.6527
10.6889
10.7244
10.7584
10.7906
10.8204
10.8473
10.8704
10.8902
10.908
10.9256
10.945
10.9652
10.9852
11.007
11.0321
11.063
11.101
11.141
11.1789
11.2125
11.2439
11.2755
11.3079
11.3383
11.3637
11.381
11.392
11.4029
11.4172
11.4367
11.46
11.4872
11.5131
11.5344
11.5516
11.5661
11.5801
11.5954
11.6133
11.6335
11.6543
11.6746
11.6937
11.7128
11.7331
11.7565
11.7818
11.8065
11.8243
11.8329
11.8394
11.8455
11.8576
11.8762
11.8956
11.9134
11.9285
11.9415
11.9538
11.9671
11.9828
12
12.0162
12.0288
12.0371
12.0412
12.0432
12.0474
12.0535
12.0601
12.0662
12.0721
12.0788
12.0883
12.1007
12.1127
12.1201
12.1217
12.1202
12.1193
12.121
12.1254
12.1299
1
1
1
1
1
1
1
1
1
1
1
1
1
1
1
1
1
1
1
1
1
1
1
1
1
1
1
1
1
1
1
1
1
1
1
1
1
1
1
1
1
1
1
1
1
1
1
1
1
1
1
1
1
1
1
1
1
1
1
1
1
1
1
1
1
1
1
1
1
1
1
1
1
1
1
1
1
1
1
1
1
1
1
1
1
1
1
1
1
1
1
1
1
1
1
1
1
1
1
1
1
1
3.38749
9.7909
10.4994
10.5305
10.577
10.6128
10.652
10.6896
10.7252
10.7581
10.789
10.818
10.8447
10.8679
10.8876
10.9055
10.9236
10.9435
10.9642
10.9849
11.0077
11.0333
11.0643
11.1019
11.1415
11.1789
11.2119
11.2424
11.2732
11.3053
11.3366
11.3639
11.3828
11.3942
11.4044
11.4166
11.4335
11.455
11.4829
11.5108
11.5343
11.5529
11.5669
11.5788
11.592
11.6088
11.6296
11.6522
11.6743
11.6943
11.7129
11.7316
11.7534
11.7781
11.8034
11.822
11.831
11.8374
11.8435
11.8556
11.874
11.8946
11.914
11.9302
11.9428
11.9529
11.9629
11.9755
11.9913
12.0081
12.0226
12.0332
12.039
12.0418
12.0456
12.0514
12.059
12.0671
12.0751
12.0822
12.0896
12.0982
12.1067
12.1129
12.1157
12.1168
12.1184
12.1217
12.1261
12.1302
1
1
1
1
1
1
1
1
1
1
1
1
1
1
1
1
1
1
1
1
1
1
1
1
1
1
1
1
1
1
1
1
1
1
1
1
1
1
1
1
1
1
1
1
1
1
1
1
1
1
1
1
1
1
1
1
1
1
1
1
1
1
1
1
1
1
1
1
1
1
1
1
1
1
1
1
1
1
1
1
1
1
1
1
1
1
1
1
1
1
1
1
1
1
1
1
1
1
1
1
1
1
3.30533
9.77138
10.4992
10.5272
10.5743
10.6102
10.6493
10.6869
10.7225
10.7553
10.7859
10.8147
10.8412
10.8642
10.884
10.9025
10.9221
10.9436
10.9653
10.9869
11.0099
11.0351
11.065
11.1013
11.1405
11.1782
11.2116
11.2423
11.2726
11.3034
11.3339
11.362
11.3824
11.395
11.4053
11.4165
11.4314
11.4512
11.4793
11.5088
11.5343
11.554
11.567
11.5768
11.5878
11.6033
11.6245
11.649
11.6732
11.6945
11.7126
11.73
11.7501
11.7739
11.7993
11.8187
11.8287
11.8356
11.8418
11.8537
11.8714
11.8926
11.9135
11.931
11.9437
11.9521
11.9592
11.9684
11.9816
11.9979
12.0141
12.0274
12.0356
12.0398
12.0436
12.0493
12.0578
12.0682
12.0781
12.0856
12.0907
12.0949
12.0996
12.1044
12.1088
12.113
12.1176
12.1223
12.1265
12.1297
1
1
1
1
1
1
1
1
1
1
1
1
1
1
1
1
1
1
1
1
1
1
1
1
1
1
1
1
1
1
1
1
1
1
1
1
1
1
1
1
1
1
1
1
1
1
1
1
1
1
1
1
1
1
1
1
1
1
1
1
1
1
1
1
1
1
1
1
1
1
1
1
1
1
1
1
1
1
1
1
1
1
1
1
1
1
1
1
1
1
1
1
1
1
1
1
1
1
1
1
1
1
3.20993
9.73349
10.5034
10.5252
10.5716
10.6067
10.6449
10.6824
10.7184
10.7516
10.7832
10.8127
10.8399
10.8623
10.8812
10.8998
10.921
10.9443
10.9674
10.9901
11.0133
11.0375
11.0656
11.0999
11.138
11.1764
11.2114
11.2434
11.274
11.3035
11.3313
11.3577
11.3783
11.3919
11.4033
11.4149
11.4291
11.448
11.4762
11.5067
11.5335
11.554
11.5656
11.5736
11.5825
11.5971
11.6187
11.6448
11.6712
11.6937
11.7121
11.7285
11.7471
11.7696
11.7944
11.8145
11.8258
11.8338
11.8407
11.8521
11.8685
11.8894
11.9111
11.9299
11.9433
11.9513
11.9566
11.9627
11.9726
11.9871
12.0039
12.0193
12.0304
12.037
12.0416
12.0477
12.057
12.069
12.0806
12.0881
12.0909
12.0911
12.0918
12.0953
12.1014
12.1089
12.1164
12.1223
12.1261
12.128
1
1
1
1
1
1
1
1
1
1
1
1
1
1
1
1
1
1
1
1
1
1
1
1
1
1
1
1
1
1
1
1
1
1
1
1
1
1
1
1
1
1
1
1
1
1
1
1
1
1
1
1
1
1
1
1
1
1
1
1
1
1
1
1
1
1
1
1
1
1
1
1
1
1
1
1
1
1
1
1
1
1
1
1
1
1
1
1
1
1
1
1
1
1
1
1
1
1
1
1
1
1
3.09876
9.67987
10.5063
10.5243
10.5693
10.6038
10.6406
10.6772
10.7126
10.7461
10.7787
10.8099
10.8385
10.8605
10.8784
10.8967
10.9194
10.9446
10.9693
10.9938
11.0176
11.041
11.0669
11.0981
11.134
11.1722
11.2093
11.2439
11.2757
11.3044
11.3293
11.3527
11.3715
11.3854
11.3985
11.412
11.4272
11.4461
11.4742
11.505
11.5323
11.5529
11.563
11.5695
11.5769
11.591
11.6129
11.6403
11.6684
11.6923
11.7112
11.7274
11.745
11.7661
11.7896
11.8097
11.8225
11.832
11.84
11.8509
11.8659
11.8855
11.9069
11.9266
11.9412
11.95
11.9547
11.9588
11.9654
11.9769
11.9926
12.0093
12.0234
12.0333
12.0399
12.0467
12.0565
12.0693
12.0815
12.0887
12.09
12.0868
12.0844
12.0866
12.0941
12.1046
12.1145
12.1214
12.1246
12.1253
1
1
1
1
1
1
1
1
1
1
1
1
1
1
1
1
1
1
1
1
1
1
1
1
1
1
1
1
1
1
1
1
1
1
1
1
1
1
1
1
1
1
1
1
1
1
1
1
1
1
1
1
1
1
1
1
1
1
1
1
1
1
1
1
1
1
1
1
1
1
1
1
1
1
1
1
1
1
1
1
1
1
1
1
1
1
1
1
1
1
1
1
1
1
1
1
1
1
1
1
1
1
2.97218
9.61168
10.5067
10.5236
10.5671
10.6014
10.6368
10.6718
10.7059
10.7394
10.7729
10.8062
10.8365
10.859
10.8763
10.8939
10.9171
10.9427
10.9692
10.9958
11.0209
11.0441
11.0684
11.0964
11.1295
11.1669
11.2055
11.2428
11.2767
11.3056
11.3282
11.3484
11.3644
11.3772
11.3915
11.4075
11.4252
11.4453
11.4732
11.5033
11.53
11.5499
11.5591
11.5649
11.5716
11.5856
11.6077
11.6357
11.6648
11.6897
11.7095
11.7264
11.7436
11.7634
11.7852
11.8048
11.8186
11.8297
11.839
11.8497
11.8635
11.8812
11.9016
11.9215
11.9374
11.9477
11.9531
11.9562
11.9602
11.9682
11.9814
11.9984
12.0153
12.0287
12.0381
12.0463
12.0563
12.0684
12.0798
12.0868
12.0873
12.0825
12.0783
12.0796
12.0876
12.0997
12.1112
12.1188
12.1216
12.1215
1
1
1
1
1
1
1
1
1
1
1
1
1
1
1
1
1
1
1
1
1
1
1
1
1
1
1
1
1
1
1
1
1
1
1
1
1
1
1
1
1
1
1
1
1
1
1
1
1
1
1
1
1
1
1
1
1
1
1
1
1
1
1
1
1
1
1
1
1
1
1
1
1
1
1
1
1
1
1
1
1
1
1
1
1
1
1
1
1
1
1
1
1
1
1
1
1
1
1
1
1
1
2.8338
9.52193
10.5045
10.5253
10.5653
10.6001
10.6343
10.6679
10.7009
10.7345
10.7677
10.8028
10.8334
10.8572
10.8747
10.8919
10.9137
10.9383
10.966
10.9948
11.0219
11.0463
11.0699
11.0953
11.1255
11.1613
11.2003
11.2396
11.2759
11.3058
11.3271
11.3447
11.3578
11.369
11.3839
11.4019
11.422
11.4439
11.4718
11.5011
11.5264
11.5454
11.5541
11.5602
11.5671
11.5812
11.6032
11.6314
11.6608
11.6863
11.707
11.7249
11.7425
11.7615
11.7818
11.8004
11.8145
11.8267
11.837
11.8477
11.8607
11.8769
11.8959
11.9154
11.9322
11.944
11.9508
11.9541
11.9566
11.9614
11.9715
11.9876
12.0063
12.0234
12.0361
12.0459
12.0556
12.0656
12.0754
12.0819
12.0827
12.0784
12.074
12.0747
12.0823
12.0942
12.106
12.1141
12.117
12.117
1
1
1
1
1
1
1
1
1
1
1
1
1
1
1
1
1
1
1
1
1
1
1
1
1
1
1
1
1
1
1
1
1
1
1
1
1
1
1
1
1
1
1
1
1
1
1
1
1
1
1
1
1
1
1
1
1
1
1
1
1
1
1
1
1
1
1
1
1
1
1
1
1
1
1
1
1
1
1
1
1
1
1
1
1
1
1
1
1
1
1
1
1
1
1
1
1
1
1
1
1
1
2.68737
9.41116
10.5033
10.5271
10.564
10.5983
10.6327
10.6656
10.6986
10.7314
10.7642
10.799
10.8298
10.8547
10.8735
10.8899
10.9094
10.932
10.9602
10.9904
11.0195
11.0458
11.0698
11.0941
11.1222
11.1563
11.1949
11.235
11.2726
11.3036
11.3247
11.3409
11.3522
11.3625
11.3775
11.3963
11.418
11.4414
11.4693
11.4978
11.5215
11.5398
11.5487
11.5556
11.5632
11.5775
11.5994
11.6274
11.6567
11.6824
11.7039
11.7229
11.7413
11.7601
11.7792
11.7967
11.8102
11.8227
11.8333
11.8441
11.8569
11.8724
11.8906
11.9095
11.9264
11.9392
11.9474
11.9515
11.9536
11.9565
11.9637
11.9782
11.9975
12.0174
12.0335
12.0452
12.0541
12.0613
12.0685
12.0743
12.0764
12.0745
12.0715
12.0719
12.0779
12.0881
12.0991
12.1073
12.1108
12.1119
1
1
1
1
1
1
1
1
1
1
1
1
1
1
1
1
1
1
1
1
1
1
1
1
1
1
1
1
1
1
1
1
1
1
1
1
1
1
1
1
1
1
1
1
1
1
1
1
1
1
1
1
1
1
1
1
1
1
1
1
1
1
1
1
1
1
1
1
1
1
1
1
1
1
1
1
1
1
1
1
1
1
1
1
1
1
1
1
1
1
1
1
1
1
1
1
1
1
1
1
1
1
2.53896
9.28365
10.4988
10.522
10.5601
10.5951
10.6304
10.664
10.6974
10.7294
10.7629
10.7952
10.8259
10.8522
10.8718
10.8871
10.9046
10.9257
10.9533
10.9835
11.0137
11.0416
11.0665
11.0912
11.1187
11.1521
11.1902
11.2302
11.2677
11.2985
11.32
11.3364
11.3469
11.3578
11.3728
11.3914
11.4133
11.4375
11.4652
11.493
11.5159
11.5341
11.5436
11.5514
11.5597
11.5742
11.5958
11.6235
11.6526
11.6783
11.7002
11.7202
11.7394
11.7585
11.7769
11.7934
11.8058
11.8175
11.8275
11.8382
11.8513
11.8674
11.8858
11.9044
11.9208
11.9335
11.9424
11.9478
11.9506
11.9532
11.9585
11.9709
11.9896
12.0108
12.0294
12.0429
12.0511
12.0557
12.0601
12.0651
12.0691
12.0706
12.0699
12.0702
12.0741
12.0817
12.0909
12.0988
12.1031
12.1059
1
1
1
1
1
1
1
1
1
1
1
1
1
1
1
1
1
1
1
1
1
1
1
1
1
1
1
1
1
1
1
1
1
1
1
1
1
1
1
1
1
1
1
1
1
1
1
1
1
1
1
1
1
1
1
1
1
1
1
1
1
1
1
1
1
1
1
1
1
1
1
1
1
1
1
1
1
1
1
1
1
1
1
1
1
1
1
1
1
1
1
1
1
1
1
1
1
1
1
1
1
1
2.38683
9.1457
10.4854
10.5155
10.5549
10.5912
10.6277
10.6617
10.6941
10.7273
10.7612
10.7919
10.8226
10.8485
10.8669
10.8818
10.8986
10.9191
10.946
10.9756
11.0059
11.0344
11.0602
11.0859
11.1142
11.1482
11.1868
11.2266
11.263
11.2927
11.3137
11.3306
11.342
11.3544
11.3697
11.3874
11.4077
11.4318
11.4592
11.4869
11.5101
11.5289
11.5392
11.5475
11.5562
11.5706
11.5918
11.6193
11.6485
11.6742
11.6962
11.7166
11.7365
11.7564
11.7744
11.79
11.8014
11.8113
11.8198
11.8301
11.8439
11.8615
11.8812
11.9001
11.9158
11.9277
11.9363
11.9425
11.947
11.9507
11.9557
11.966
11.9828
12.0035
12.0232
12.0379
12.046
12.0491
12.0513
12.0557
12.0615
12.0662
12.0679
12.0686
12.0706
12.0752
12.0821
12.0892
12.0941
12.0989
1
1
1
1
1
1
1
1
1
1
1
1
1
1
1
1
1
1
1
1
1
1
1
1
1
1
1
1
1
1
1
1
1
1
1
1
1
1
1
1
1
1
1
1
1
1
1
1
1
1
1
1
1
1
1
1
1
1
1
1
1
1
1
1
1
1
1
1
1
1
1
1
1
1
1
1
1
1
1
1
1
1
1
1
1
1
1
1
1
1
1
1
1
1
1
1
1
1
1
1
1
1
2.22844
8.98844
10.4727
10.5108
10.5528
10.5885
10.624
10.6562
10.6885
10.7246
10.7577
10.7907
10.8202
10.8427
10.8588
10.8737
10.8906
10.9115
10.9383
10.9677
10.9977
11.0257
11.0516
11.0776
11.1071
11.1426
11.1827
11.2233
11.2589
11.2869
11.307
11.324
11.3368
11.3513
11.3671
11.3839
11.4021
11.4249
11.4521
11.48
11.5046
11.5247
11.5358
11.5443
11.5526
11.5664
11.5868
11.6142
11.6437
11.6699
11.692
11.7124
11.7325
11.753
11.7708
11.7856
11.7963
11.8042
11.8109
11.8207
11.835
11.8546
11.8762
11.896
11.9111
11.9218
11.9295
11.9362
11.9426
11.9486
11.9547
11.9633
11.9771
11.9954
12.0145
12.0297
12.0385
12.0417
12.0433
12.0472
12.054
12.0606
12.0644
12.0657
12.0665
12.0687
12.0734
12.0794
12.0843
12.0907
1
1
1
1
1
1
1
1
1
1
1
1
1
1
1
1
1
1
1
1
1
1
1
1
1
1
1
1
1
1
1
1
1
1
1
1
1
1
1
1
1
1
1
1
1
1
1
1
1
1
1
1
1
1
1
1
1
1
1
1
1
1
1
1
1
1
1
1
1
1
1
1
1
1
1
1
1
1
1
1
1
1
1
1
1
1
1
1
1
1
1
1
1
1
1
1
1
1
1
1
1
1
2.05979
8.80315
10.4733
10.5065
10.5502
10.5849
10.6195
10.6507
10.6847
10.7188
10.7553
10.7892
10.8173
10.8377
10.8525
10.8666
10.8827
10.9033
10.9304
10.9597
10.9896
11.0171
11.0423
11.068
11.0978
11.1347
11.177
11.2194
11.2556
11.2825
11.3017
11.3181
11.3318
11.3479
11.3641
11.3802
11.3962
11.4173
11.4441
11.4725
11.4989
11.5209
11.5333
11.5416
11.549
11.5614
11.5803
11.6069
11.6369
11.6644
11.6876
11.7085
11.7282
11.7484
11.7657
11.7795
11.7899
11.7963
11.8021
11.8116
11.8259
11.8466
11.8698
11.8907
11.9059
11.9157
11.9225
11.9295
11.9377
11.9466
11.9545
11.9621
11.9722
11.9866
12.0034
12.0184
12.0287
12.034
12.0364
12.0401
12.0468
12.0539
12.0586
12.0605
12.0611
12.0622
12.0652
12.07
12.0741
12.0812
1
1
1
1
1
1
1
1
1
1
1
1
1
1
1
1
1
1
1
1
1
1
1
1
1
1
1
1
1
1
1
1
1
1
1
1
1
1
1
1
1
1
1
1
1
1
1
1
1
1
1
1
1
1
1
1
1
1
1
1
1
1
1
1
1
1
1
1
1
1
1
1
1
1
1
1
1
1
1
1
1
1
1
1
1
1
1
1
1
1
1
1
1
1
1
1
1
1
1
1
1
1
1.88749
8.58768
10.4751
10.5026
10.5483
10.5812
10.6146
10.6466
10.6784
10.7143
10.751
10.7853
10.8131
10.8342
10.8494
10.8626
10.8767
10.8958
10.9223
10.952
10.9824
11.0105
11.0359
11.0609
11.0899
11.1266
11.1699
11.2142
11.2519
11.2789
11.2974
11.3129
11.3268
11.3435
11.3602
11.3754
11.3898
11.4092
11.4353
11.4642
11.4925
11.5166
11.531
11.5396
11.5459
11.5562
11.5723
11.5972
11.6273
11.657
11.6828
11.7052
11.7245
11.743
11.7586
11.7706
11.781
11.7874
11.7939
11.8041
11.818
11.8383
11.8616
11.8831
11.899
11.9089
11.9155
11.9229
11.933
11.9445
11.9542
11.9613
11.968
11.9775
11.9907
12.0048
12.0172
12.0256
12.0301
12.0342
12.0399
12.0459
12.0505
12.053
12.0541
12.0553
12.0577
12.0612
12.064
12.0707
1
1
1
1
1
1
1
1
1
1
1
1
1
1
1
1
1
1
1
1
1
1
1
1
1
1
1
1
1
1
1
1
1
1
1
1
1
1
1
1
1
1
1
1
1
1
1
1
1
1
1
1
1
1
1
1
1
1
1
1
1
1
1
1
1
1
1
1
1
1
1
1
1
1
1
1
1
1
1
1
1
1
1
1
1
1
1
1
1
1
1
1
1
1
1
1
1
1
1
1
1
1
1.72047
8.33703
10.4715
10.4945
10.5422
10.5757
10.6093
10.642
10.6744
10.7078
10.7439
10.7788
10.8084
10.832
10.8499
10.8634
10.8753
10.8909
10.9144
10.9432
10.9743
11.0037
11.0301
11.0553
11.0834
11.1189
11.1619
11.2073
11.2468
11.2747
11.2935
11.3083
11.3222
11.3385
11.3555
11.3705
11.3839
11.4012
11.426
11.4546
11.4845
11.5106
11.5277
11.5375
11.5435
11.5513
11.5632
11.5846
11.6144
11.647
11.6772
11.7026
11.7218
11.7373
11.7497
11.7588
11.7691
11.7773
11.7865
11.7986
11.8124
11.8307
11.8521
11.8729
11.8893
11.9003
11.9078
11.9163
11.928
11.9415
11.9528
11.9598
11.9639
11.9689
11.9776
11.9904
12.0041
12.0158
12.0234
12.0283
12.0327
12.037
12.0406
12.0434
12.0457
12.0479
12.0504
12.053
12.0541
12.0593
1
1
1
1
1
1
1
1
1
1
1
1
1
1
1
1
1
1
1
1
1
1
1
1
1
1
1
1
1
1
1
1
1
1
1
1
1
1
1
1
1
1
1
1
1
1
1
1
1
1
1
1
1
1
1
1
1
1
1
1
1
1
1
1
1
1
1
1
1
1
1
1
1
1
1
1
1
1
1
1
1
1
1
1
1
1
1
1
1
1
1
1
1
1
1
1
1
1
1
1
1
1
1.56189
8.04651
10.4631
10.4888
10.5368
10.571
10.6048
10.6371
10.668
10.7009
10.7361
10.7698
10.8008
10.8277
10.8493
10.8647
10.8758
10.8884
10.9081
10.9349
10.9661
10.9972
11.0256
11.0518
11.0795
11.1134
11.1548
11.1999
11.2403
11.2693
11.2888
11.3035
11.3173
11.333
11.3504
11.3657
11.3788
11.3938
11.4162
11.4434
11.4739
11.502
11.5228
11.5349
11.5418
11.5473
11.554
11.5705
11.5985
11.6344
11.6706
11.7004
11.72
11.7319
11.7398
11.7449
11.7549
11.7655
11.7794
11.7948
11.8091
11.8247
11.8424
11.8606
11.8767
11.8893
11.899
11.9093
11.9224
11.9371
11.9496
11.9569
11.9593
11.9612
11.9662
11.9766
11.9903
12.0041
12.0146
12.0207
12.0245
12.0272
12.0297
12.0327
12.0362
12.0398
12.0427
12.0447
12.0444
12.0476
1
1
1
1
1
1
1
1
1
1
1
1
1
1
1
1
1
1
1
1
1
1
1
1
1
1
1
1
1
1
1
1
1
1
1
1
1
1
1
1
1
1
1
1
1
1
1
1
1
1
1
1
1
1
1
1
1
1
1
1
1
1
1
1
1
1
1
1
1
1
1
1
1
1
1
1
1
1
1
1
1
1
1
1
1
1
1
1
1
1
1
1
1
1
1
1
1
1
1
1
1
1
1.40647
7.70917
10.4556
10.4869
10.5305
10.5661
10.5997
10.6303
10.6614
10.6945
10.7286
10.7629
10.7959
10.8256
10.8497
10.8663
10.8771
10.8875
10.9036
10.9276
10.958
10.9903
11.0208
11.0485
11.0763
11.1088
11.1484
11.1923
11.2327
11.2624
11.2827
11.2978
11.3114
11.3267
11.3444
11.3609
11.3745
11.3877
11.4068
11.4314
11.4611
11.4905
11.5156
11.5316
11.5402
11.5432
11.545
11.5557
11.5814
11.6206
11.663
11.6979
11.7185
11.727
11.7298
11.7303
11.7393
11.7522
11.7713
11.7908
11.8067
11.8199
11.8333
11.8477
11.8622
11.8761
11.8886
11.9012
11.9154
11.9303
11.9435
11.9514
11.9539
11.9548
11.9572
11.9646
11.9768
11.9907
12.0027
12.0101
12.0144
12.0167
12.0189
12.0221
12.0265
12.0309
12.0343
12.0359
12.0347
12.0361
1
1
1
1
1
1
1
1
1
1
1
1
1
1
1
1
1
1
1
1
1
1
1
1
1
1
1
1
1
1
1
1
1
1
1
1
1
1
1
1
1
1
1
1
1
1
1
1
1
1
1
1
1
1
1
1
1
1
1
1
1
1
1
1
1
1
1
1
1
1
1
1
1
1
1
1
1
1
1
1
1
1
1
1
1
1
1
1
1
1
1
1
1
1
1
1
1
1
1
1
1
1
1.24795
7.33764
10.4761
10.491
10.5306
10.5641
10.5949
10.6243
10.6548
10.6879
10.722
10.7569
10.7915
10.8233
10.8493
10.8671
10.878
10.8872
10.9009
10.9222
10.9512
10.9838
11.0156
11.0448
11.0733
11.105
11.1428
11.1851
11.2245
11.2541
11.2745
11.2903
11.3037
11.3189
11.3371
11.3553
11.3701
11.3823
11.398
11.4192
11.4468
11.4773
11.5061
11.5268
11.5371
11.5383
11.5356
11.541
11.5651
11.607
11.6545
11.6939
11.716
11.7227
11.7211
11.7175
11.7239
11.7378
11.7611
11.7846
11.803
11.815
11.8249
11.8357
11.8478
11.862
11.8764
11.891
11.9059
11.9206
11.9338
11.9432
11.9479
11.9496
11.9512
11.9556
11.9643
11.9759
11.9872
11.9958
12.0016
12.0052
12.0084
12.0122
12.0168
12.0213
12.0246
12.026
12.0247
12.0249
1
1
1
1
1
1
1
1
1
1
1
1
1
1
1
1
1
1
1
1
1
1
1
1
1
1
1
1
1
1
1
1
1
1
1
1
1
1
1
1
1
1
1
1
1
1
1
1
1
1
1
1
1
1
1
1
1
1
1
1
1
1
1
1
1
1
1
1
1
1
1
1
1
1
1
1
1
1
1
1
1
1
1
1
1
1
1
1
1
1
1
1
1
1
1
1
1
1
1
1
1
1
1.06794
6.88752
10.5028
10.5066
10.5267
10.5585
10.5873
10.6165
10.6486
10.6827
10.717
10.7525
10.7881
10.8206
10.8472
10.8657
10.8772
10.8867
10.8993
10.9187
10.9458
10.9776
11.0095
11.0394
11.0684
11.0997
11.1364
11.1775
11.2157
11.2448
11.2651
11.2808
11.2943
11.3094
11.3283
11.3482
11.364
11.3763
11.3895
11.4075
11.433
11.4642
11.4958
11.5201
11.532
11.5316
11.5254
11.5276
11.5517
11.5954
11.6453
11.6874
11.711
11.7175
11.714
11.7078
11.7109
11.724
11.7483
11.7746
11.7956
11.8083
11.8167
11.8251
11.8351
11.8483
11.8633
11.8786
11.8933
11.9075
11.9207
11.9322
11.9407
11.9453
11.9473
11.9492
11.9532
11.9602
11.9691
11.9782
11.9862
11.9927
11.9982
12.0031
12.0075
12.0111
12.0137
12.015
12.0143
12.014
1
1
1
1
1
1
1
1
1
1
1
1
1
1
1
1
1
1
1
1
1
1
1
1
1
1
1
1
1
1
1
1
1
1
1
1
1
1
1
1
1
1
1
1
1
1
1
1
1
1
1
1
1
1
1
1
1
1
1
1
1
1
1
1
1
1
1
1
1
1
1
1
1
1
1
1
1
1
1
1
1
1
1
1
1
1
1
1
1
1
1
1
1
1
1
1
1
1
1
1
1
1
1.00171
6.37368
10.4597
10.495
10.5172
10.5534
10.5845
10.6152
10.6476
10.6799
10.7123
10.7466
10.7817
10.8148
10.8421
10.8618
10.8746
10.8849
10.8973
10.9153
10.9405
10.9708
11.0022
11.0322
11.0617
11.0929
11.1293
11.1695
11.2067
11.2351
11.2553
11.2702
11.2839
11.2992
11.3186
11.3392
11.3557
11.3684
11.3803
11.3966
11.421
11.453
11.4863
11.5119
11.5238
11.522
11.5137
11.5161
11.542
11.5862
11.6359
11.6785
11.703
11.7107
11.708
11.7012
11.7016
11.7123
11.7338
11.7603
11.783
11.7983
11.8075
11.8157
11.8246
11.8363
11.8501
11.8642
11.8779
11.8912
11.905
11.919
11.9319
11.9406
11.944
11.9441
11.9433
11.9447
11.9498
11.9584
11.9686
11.9788
11.9876
11.9941
11.9981
12.0004
12.0018
12.0027
12.0029
12.0026
1
1
1
1
1
1
1
1
1
1
1
1
1
1
1
1
1
1
1
1
1
1
1
1
1
1
1
1
1
1
1
1
1
1
1
1
1
1
1
1
1
1
1
1
1
1
1
1
1
1
1
1
1
1
1
1
1
1
1
1
1
1
1
1
1
1
1
1
1
1
1
1
1
1
1
1
1
1
1
1
1
1
1
1
1
1
1
1
1
1
1
1
1
1
1
1
1
1
1
1
1
1
1.00001
5.80617
10.4088
10.4895
10.5112
10.5504
10.5835
10.6142
10.6464
10.6773
10.7081
10.7406
10.7746
10.808
10.836
10.8569
10.8709
10.8817
10.8938
10.9106
10.9341
10.9629
10.9935
11.0233
11.0531
11.0848
11.1213
11.1608
11.197
11.2246
11.2447
11.2581
11.2727
11.2894
11.3091
11.3292
11.3453
11.3578
11.3694
11.3855
11.4107
11.4441
11.4781
11.5028
11.5129
11.5097
11.5011
11.5075
11.5363
11.5792
11.6259
11.6668
11.6919
11.7018
11.7024
11.6969
11.6962
11.7032
11.719
11.7429
11.7654
11.784
11.7966
11.8068
11.816
11.8261
11.8372
11.8485
11.8602
11.8729
11.8878
11.9046
11.9213
11.9339
11.9392
11.9381
11.9334
11.9298
11.9309
11.9382
11.9501
11.9637
11.9759
11.9843
11.9883
11.9894
11.9895
11.9898
11.9906
11.9904
1
1
1
1
1
1
1
1
1
1
1
1
1
1
1
1
1
1
1
1
1
1
1
1
1
1
1
1
1
1
1
1
1
1
1
1
1
1
1
1
1
1
1
1
1
1
1
1
1
1
1
1
1
1
1
1
1
1
1
1
1
1
1
1
1
1
1
1
1
1
1
1
1
1
1
1
1
1
1
1
1
1
1
1
1
1
1
1
1
1
1
1
1
1
1
1
1
1
1
1
1
1
1
5.22868
10.3257
10.4853
10.508
10.5473
10.5819
10.613
10.6446
10.6744
10.7035
10.7338
10.7668
10.8002
10.8288
10.851
10.8659
10.8768
10.8879
10.9035
10.9253
10.9528
10.9827
11.013
11.0436
11.0764
11.1131
11.1516
11.1859
11.2125
11.2317
11.2452
11.2617
11.2811
11.3012
11.3202
11.3344
11.3455
11.357
11.3744
11.4019
11.437
11.4705
11.4928
11.4999
11.4951
11.4892
11.5023
11.5334
11.5733
11.6151
11.6529
11.6781
11.6905
11.6957
11.6939
11.6927
11.6961
11.7056
11.724
11.7448
11.7661
11.7833
11.7972
11.808
11.8167
11.8244
11.8322
11.8416
11.854
11.8705
11.8898
11.9091
11.9241
11.9311
11.9294
11.9225
11.9155
11.9138
11.9196
11.9319
11.9476
11.9625
11.9729
11.9775
11.978
11.9771
11.9765
11.9771
11.9767
1
1
1
1
1
1
1
1
1
1
1
1
1
1
1
1
1
1
1
1
1
1
1
1
1
1
1
1
1
1
1
1
1
1
1
1
1
1
1
1
1
1
1
1
1
1
1
1
1
1
1
1
1
1
1
1
1
1
1
1
1
1
1
1
1
1
1
1
1
1
1
1
1
1
1
1
1
1
1
1
1
1
1
1
1
1
1
1
1
1
1
1
1
1
1
1
1
1
1
1
1
1
1
4.65966
10.2099
10.4838
10.5063
10.5441
10.5779
10.6089
10.6403
10.6701
10.6982
10.7269
10.7595
10.7926
10.8215
10.8445
10.8602
10.871
10.8815
10.896
10.9163
10.9426
10.9719
11.0022
11.0333
11.067
11.1034
11.1404
11.1727
11.1983
11.2165
11.2316
11.2508
11.2729
11.2937
11.3117
11.3236
11.3324
11.3437
11.3627
11.393
11.4299
11.4625
11.4817
11.4863
11.4804
11.4798
11.4998
11.5314
11.5672
11.6032
11.6369
11.6618
11.6771
11.6871
11.6896
11.6888
11.689
11.6933
11.7056
11.7242
11.7467
11.7678
11.7856
11.7985
11.8066
11.8111
11.8158
11.8235
11.836
11.8541
11.8754
11.8955
11.9111
11.9184
11.9164
11.9094
11.9019
11.899
11.9035
11.915
11.9311
11.9472
11.9591
11.965
11.966
11.9646
11.9628
11.9624
11.9611
1
1
1
1
1
1
1
1
1
1
1
1
1
1
1
1
1
1
1
1
1
1
1
1
1
1
1
1
1
1
1
1
1
1
1
1
1
1
1
1
1
1
1
1
1
1
1
1
1
1
1
1
1
1
1
1
1
1
1
1
1
1
1
1
1
1
1
1
1
1
1
1
1
1
1
1
1
1
1
1
1
1
1
1
1
1
1
1
1
1
1
1
1
1
1
1
1
1
1
1
1
1
1
4.1103
10.0522
10.4819
10.5048
10.54
10.5721
10.6027
10.6338
10.6645
10.6927
10.7209
10.7537
10.7865
10.8146
10.8373
10.8538
10.8649
10.8752
10.8888
10.9076
10.9323
10.9604
10.9905
11.0227
11.0574
11.0938
11.129
11.1593
11.1833
11.2009
11.2172
11.2392
11.2641
11.2863
11.3036
11.3134
11.32
11.331
11.3516
11.3836
11.4205
11.4512
11.4675
11.4708
11.4667
11.4734
11.4985
11.5287
11.5597
11.5898
11.6194
11.6442
11.6619
11.676
11.6824
11.6827
11.6811
11.682
11.6893
11.7059
11.7281
11.7511
11.7716
11.7865
11.7946
11.797
11.7996
11.8062
11.8193
11.839
11.8614
11.8809
11.8947
11.901
11.8994
11.8938
11.8882
11.8863
11.8901
11.8999
11.9145
11.9302
11.943
11.9507
11.953
11.9517
11.9487
11.9466
11.9438
1
1
1
1
1
1
1
1
1
1
1
1
1
1
1
1
1
1
1
1
1
1
1
1
1
1
1
1
1
1
1
1
1
1
1
1
1
1
1
1
1
1
1
1
1
1
1
1
1
1
1
1
1
1
1
1
1
1
1
1
1
1
1
1
1
1
1
1
1
1
1
1
1
1
1
1
1
1
1
1
1
1
1
1
1
1
1
1
1
1
1
1
1
1
1
1
1
1
1
1
1
1
1
3.58606
9.854
10.4756
10.5015
10.534
10.5642
10.5941
10.625
10.6571
10.6866
10.7158
10.7493
10.7812
10.8086
10.8305
10.8463
10.8574
10.8677
10.8807
10.8988
10.9227
10.9499
10.9798
11.0128
11.0482
11.0845
11.1184
11.1473
11.1698
11.1865
11.2036
11.2275
11.2541
11.2771
11.2936
11.3022
11.3079
11.3201
11.3424
11.375
11.4102
11.4378
11.452
11.4554
11.4562
11.4704
11.4975
11.5246
11.5504
11.5749
11.6006
11.6257
11.6455
11.6622
11.6712
11.6728
11.6711
11.6703
11.6748
11.6904
11.7116
11.7348
11.7561
11.7718
11.7801
11.7816
11.7833
11.7898
11.8036
11.8245
11.8471
11.8649
11.8761
11.8806
11.8792
11.876
11.8739
11.8746
11.8786
11.8864
11.8983
11.9123
11.9253
11.9346
11.9387
11.9379
11.9338
11.9297
11.9252
1
1
1
1
1
1
1
1
1
1
1
1
1
1
1
1
1
1
1
1
1
1
1
1
1
1
1
1
1
1
1
1
1
1
1
1
1
1
1
1
1
1
1
1
1
1
1
1
1
1
1
1
1
1
1
1
1
1
1
1
1
1
1
1
1
1
1
1
1
1
1
1
1
1
1
1
1
1
1
1
1
1
1
1
1
1
1
1
1
1
1
1
1
1
1
1
1
1
1
1
1
1
1
3.09283
9.60455
10.4687
10.4972
10.5266
10.5544
10.583
10.6141
10.6475
10.6792
10.7108
10.7456
10.7776
10.8036
10.824
10.8381
10.8483
10.8584
10.8714
10.8902
10.9139
10.9402
10.9696
11.0031
11.0391
11.0754
11.1082
11.136
11.1574
11.1741
11.1921
11.2165
11.2434
11.2663
11.2817
11.29
11.2969
11.3114
11.3348
11.3659
11.3971
11.4208
11.4344
11.4409
11.4491
11.469
11.495
11.5176
11.5383
11.5582
11.5811
11.6069
11.6286
11.6463
11.6564
11.6593
11.6583
11.6577
11.6618
11.6772
11.6976
11.7197
11.7398
11.7549
11.7632
11.7648
11.7668
11.7736
11.7881
11.8094
11.8315
11.8476
11.8562
11.8588
11.8577
11.8569
11.8587
11.8626
11.8674
11.8735
11.8825
11.8941
11.9065
11.9169
11.9225
11.9225
11.9177
11.912
11.9061
1
1
1
1
1
1
1
1
1
1
1
1
1
1
1
1
1
1
1
1
1
1
1
1
1
1
1
1
1
1
1
1
1
1
1
1
1
1
1
1
1
1
1
1
1
1
1
1
1
1
1
1
1
1
1
1
1
1
1
1
1
1
1
1
1
1
1
1
1
1
1
1
1
1
1
1
1
1
1
1
1
1
1
1
1
1
1
1
1
1
1
1
1
1
1
1
1
1
1
1
1
1
1
2.6333
9.2934
10.4657
10.491
10.5214
10.5462
10.5738
10.6035
10.6373
10.6712
10.7065
10.7423
10.7736
10.7984
10.8169
10.8292
10.8382
10.8478
10.8613
10.8811
10.905
10.9305
10.9595
10.9932
11.0299
11.0661
11.0981
11.1251
11.1465
11.1638
11.1825
11.2057
11.2308
11.2517
11.2661
11.2762
11.287
11.3043
11.3274
11.3552
11.3811
11.4016
11.4164
11.4283
11.4446
11.4678
11.4906
11.5083
11.5244
11.5409
11.5621
11.5887
11.6121
11.6297
11.6394
11.6422
11.6418
11.6428
11.6487
11.6644
11.6847
11.706
11.7243
11.7376
11.7452
11.7477
11.7503
11.7574
11.7719
11.7925
11.8137
11.8286
11.8357
11.8372
11.8363
11.8374
11.8423
11.8488
11.8548
11.8602
11.8669
11.8763
11.8875
11.8981
11.9044
11.9049
11.9001
11.8934
11.8869
1
1
1
1
1
1
1
1
1
1
1
1
1
1
1
1
1
1
1
1
1
1
1
1
1
1
1
1
1
1
1
1
1
1
1
1
1
1
1
1
1
1
1
1
1
1
1
1
1
1
1
1
1
1
1
1
1
1
1
1
1
1
1
1
1
1
1
1
1
1
1
1
1
1
1
1
1
1
1
1
1
1
1
1
1
1
1
1
1
1
1
1
1
1
1
1
1
1
1
1
1
1
1
2.2111
8.91893
10.4676
10.4916
10.5219
10.5436
10.5671
10.5936
10.6263
10.6617
10.6997
10.7369
10.7675
10.7906
10.8073
10.8184
10.827
10.8368
10.8512
10.8714
10.895
10.9198
10.9484
10.9824
11.02
11.0563
11.0882
11.1152
11.1373
11.1548
11.1732
11.1949
11.217
11.2356
11.25
11.2634
11.2788
11.2978
11.319
11.3419
11.3626
11.3811
11.3988
11.418
11.4411
11.4649
11.4836
11.4967
11.5086
11.5226
11.5433
11.5708
11.5958
11.613
11.6219
11.6233
11.6228
11.6254
11.6343
11.6513
11.6723
11.6934
11.7099
11.7209
11.7276
11.7307
11.7335
11.7402
11.7539
11.7729
11.793
11.8076
11.815
11.8169
11.8165
11.8186
11.8249
11.8328
11.8398
11.8454
11.8513
11.8591
11.8688
11.8782
11.8842
11.885
11.8806
11.8741
11.868
1
1
1
1
1
1
1
1
1
1
1
1
1
1
1
1
1
1
1
1
1
1
1
1
1
1
1
1
1
1
1
1
1
1
1
1
1
1
1
1
1
1
1
1
1
1
1
1
1
1
1
1
1
1
1
1
1
1
1
1
1
1
1
1
1
1
1
1
1
1
1
1
1
1
1
1
1
1
1
1
1
1
1
1
1
1
1
1
1
1
1
1
1
1
1
1
1
1
1
1
1
1
1
1.8289
8.48074
10.4838
10.4873
10.5168
10.5401
10.5615
10.5852
10.6156
10.6514
10.6902
10.7268
10.7563
10.7786
10.7947
10.8063
10.8163
10.8279
10.8437
10.8636
10.8853
10.9082
10.9357
10.9697
11.0083
11.0454
11.0776
11.1048
11.1272
11.1437
11.1611
11.1811
11.201
11.2186
11.2348
11.2523
11.271
11.2897
11.3077
11.3249
11.3418
11.3604
11.3825
11.4091
11.4368
11.4595
11.4739
11.4824
11.4912
11.5041
11.525
11.5535
11.5799
11.5972
11.6048
11.6041
11.6021
11.6053
11.6169
11.6358
11.6587
11.6806
11.696
11.7055
11.7112
11.7142
11.7165
11.7221
11.7337
11.7507
11.7694
11.785
11.7944
11.798
11.7986
11.8007
11.8064
11.8143
11.822
11.8287
11.8351
11.842
11.8499
11.8573
11.862
11.8626
11.8593
11.854
11.8495
1
1
1
1
1
1
1
1
1
1
1
1
1
1
1
1
1
1
1
1
1
1
1
1
1
1
1
1
1
1
1
1
1
1
1
1
1
1
1
1
1
1
1
1
1
1
1
1
1
1
1
1
1
1
1
1
1
1
1
1
1
1
1
1
1
1
1
1
1
1
1
1
1
1
1
1
1
1
1
1
1
1
1
1
1
1
1
1
1
1
1
1
1
1
1
1
1
1
1
1
1
1
1
1.5002
7.96202
10.5065
10.4818
10.5124
10.5356
10.5573
10.5801
10.6088
10.6433
10.6808
10.7159
10.7434
10.7635
10.7788
10.7915
10.8041
10.8186
10.8353
10.8539
10.8738
10.8957
10.9228
10.9571
10.9969
11.0349
11.0675
11.0941
11.1154
11.131
11.1473
11.1659
11.1847
11.203
11.2223
11.2431
11.2627
11.2793
11.2933
11.3062
11.321
11.3411
11.3677
11.3995
11.4291
11.4501
11.4613
11.4666
11.4733
11.486
11.5072
11.5364
11.564
11.582
11.5882
11.5852
11.5809
11.5838
11.5966
11.6176
11.6431
11.6668
11.6824
11.6914
11.6962
11.6981
11.6993
11.703
11.7118
11.7262
11.7438
11.7609
11.7735
11.7801
11.782
11.7834
11.7872
11.7935
11.8014
11.81
11.8177
11.8243
11.8302
11.835
11.8378
11.8382
11.8365
11.8334
11.8316
1
1
1
1
1
1
1
1
1
1
1
1
1
1
1
1
1
1
1
1
1
1
1
1
1
1
1
1
1
1
1
1
1
1
1
1
1
1
1
1
1
1
1
1
1
1
1
1
1
1
1
1
1
1
1
1
1
1
1
1
1
1
1
1
1
1
1
1
1
1
1
1
1
1
1
1
1
1
1
1
1
1
1
1
1
1
1
1
1
1
1
1
1
1
1
1
1
1
1
1
1
1
1
1.22449
7.37711
10.5032
10.468
10.4965
10.5199
10.5441
10.5697
10.5997
10.6339
10.6695
10.7016
10.7263
10.7455
10.7619
10.7776
10.7944
10.8123
10.8299
10.8469
10.8645
10.8846
10.9107
10.9447
10.9849
11.0235
11.056
11.0816
11.1017
11.1165
11.132
11.1504
11.1699
11.1901
11.2116
11.233
11.2512
11.2651
11.2767
11.2883
11.3031
11.3246
11.3534
11.3867
11.4163
11.4365
11.4466
11.4507
11.4562
11.4685
11.4896
11.5189
11.5474
11.5662
11.5716
11.567
11.5608
11.5625
11.5747
11.5968
11.6247
11.6507
11.6676
11.6773
11.6814
11.6815
11.6813
11.683
11.6891
11.7011
11.7175
11.736
11.752
11.762
11.7655
11.7661
11.7672
11.7712
11.7789
11.7895
11.799
11.8052
11.8092
11.8111
11.8118
11.8122
11.8125
11.8125
11.8139
1
1
1
1
1
1
1
1
1
1
1
1
1
1
1
1
1
1
1
1
1
1
1
1
1
1
1
1
1
1
1
1
1
1
1
1
1
1
1
1
1
1
1
1
1
1
1
1
1
1
1
1
1
1
1