/*--------------------------------*- C++ -*----------------------------------*\
  =========                 |
  \\      /  F ield         | OpenFOAM: The Open Source CFD Toolbox
   \\    /   O peration     | Website:  https://openfoam.org
    \\  /    A nd           | Version:  7
     \\/     M anipulation  |
\*---------------------------------------------------------------------------*/
FoamFile
{
    version     2.0;
    format      ascii;
    class       volScalarField;
    location    "1.6";
    object      rho;
}
// * * * * * * * * * * * * * * * * * * * * * * * * * * * * * * * * * * * * * //

dimensions      [1 -3 0 0 0 0 0];

internalField   nonuniform List<scalar> 
258048
(
1.40001
1.40001
1.40001
1.40001
1.40001
1.40001
1.40001
1.40001
1.40001
1.40001
1.40001
1.40001
1.40001
1.40001
1.40001
1.40001
1.40001
1.40001
1.40001
1.40001
1.40001
1.40001
1.40001
1.40001
1.40001
1.40001
1.40001
1.40001
1.40001
1.40001
1.40001
1.40001
1.40001
1.40001
1.40001
1.40001
1.40001
1.40001
1.40001
1.40001
1.40001
1.40001
1.40001
1.40001
1.40001
1.40001
1.40001
1.40001
1.40001
1.40001
1.40001
1.40001
1.40001
1.40001
1.40001
1.40001
1.40001
1.40001
1.40001
1.40001
1.40001
1.40001
1.40001
1.40001
1.40001
1.40001
1.40001
1.40001
1.40001
1.40001
1.40001
1.40001
1.40001
1.40001
1.40001
1.40001
1.40001
1.40001
1.40001
1.40001
1.40001
1.40001
1.40001
1.40001
1.40001
1.40001
1.40001
1.40001
1.40001
1.40001
1.40001
1.40001
1.40001
1.40001
1.40001
1.40001
1.40001
1.40001
1.40001
1.40001
1.40001
1.40001
2.68779
5.18739
5.4286
5.42654
5.44328
5.45691
5.4723
5.48837
5.50445
5.51966
5.53376
5.54678
5.55887
5.56982
5.57934
5.5879
5.59533
5.60099
5.60478
5.60852
5.61466
5.6246
5.63813
5.65522
5.67284
5.68804
5.69873
5.70466
5.70719
5.70809
5.70905
5.71184
5.71722
5.72444
5.7344
5.74814
5.76475
5.78049
5.79377
5.80418
5.81006
5.81223
5.81289
5.81423
5.81716
5.82142
5.82619
5.83092
5.83603
5.84236
5.85089
5.86157
5.87377
5.88568
5.89491
5.89889
5.89787
5.89529
5.89383
5.89623
5.90281
5.91038
5.9174
5.923
5.92735
5.93095
5.93458
5.93877
5.94335
5.94739
5.94987
5.9505
5.94937
5.94737
5.94587
5.9446
5.94303
5.94068
5.938
5.93622
5.93607
5.93642
5.93341
5.92123
5.89497
5.85403
5.80583
5.76429
5.74092
5.73475
1.40001
1.40001
1.40001
1.40001
1.40001
1.40001
1.40001
1.40001
1.40001
1.40001
1.40001
1.40001
1.40001
1.40001
1.40001
1.40001
1.40001
1.40001
1.40001
1.40001
1.40001
1.40001
1.40001
1.40001
1.40001
1.40001
1.40001
1.40001
1.40001
1.40001
1.40001
1.40001
1.40001
1.40001
1.40001
1.40001
1.40001
1.40001
1.40001
1.40001
1.40001
1.40001
1.40001
1.40001
1.40001
1.40001
1.40001
1.40001
1.40001
1.40001
1.40001
1.40001
1.40001
1.40001
1.40001
1.40001
1.40001
1.40001
1.40001
1.40001
1.40001
1.40001
1.40001
1.40001
1.40001
1.40001
1.40001
1.40001
1.40001
1.40001
1.40001
1.40001
1.40001
1.40001
1.40001
1.40001
1.40001
1.40001
1.40001
1.40001
1.40001
1.40001
1.40001
1.40001
1.40001
1.40001
1.40001
1.40001
1.40001
1.40001
1.40001
1.40001
1.40001
1.40001
1.40001
1.40001
1.40001
1.40001
1.40001
1.40001
1.40001
1.40001
2.67883
5.18267
5.42374
5.42501
5.44341
5.45756
5.47314
5.4889
5.50451
5.51936
5.53323
5.54626
5.55858
5.56981
5.57948
5.5878
5.59463
5.5999
5.60368
5.6077
5.61438
5.62476
5.6386
5.65568
5.67308
5.68794
5.69828
5.70407
5.7067
5.70802
5.7094
5.71261
5.71824
5.72523
5.73476
5.74793
5.76401
5.77946
5.79294
5.80382
5.81011
5.81248
5.81301
5.81399
5.81655
5.82067
5.82557
5.83059
5.83596
5.84238
5.85082
5.86129
5.87333
5.8852
5.89451
5.8985
5.89738
5.89476
5.89334
5.89595
5.90265
5.91046
5.91768
5.92331
5.9274
5.93049
5.93358
5.93744
5.94199
5.94626
5.94905
5.94993
5.94895
5.94705
5.94551
5.94426
5.94286
5.94088
5.93858
5.93691
5.93646
5.9362
5.93254
5.92005
5.89391
5.8534
5.80567
5.76443
5.74111
5.73495
1.40001
1.40001
1.40001
1.40001
1.40001
1.40001
1.40001
1.40001
1.40001
1.40001
1.40001
1.40001
1.40001
1.40001
1.40001
1.40001
1.40001
1.40001
1.40001
1.40001
1.40001
1.40001
1.40001
1.40001
1.40001
1.40001
1.40001
1.40001
1.40001
1.40001
1.40001
1.40001
1.40001
1.40001
1.40001
1.40001
1.40001
1.40001
1.40001
1.40001
1.40001
1.40001
1.40001
1.40001
1.40001
1.40001
1.40001
1.40001
1.40001
1.40001
1.40001
1.40001
1.40001
1.40001
1.40001
1.40001
1.40001
1.40001
1.40001
1.40001
1.40001
1.40001
1.40001
1.40001
1.40001
1.40001
1.40001
1.40001
1.40001
1.40001
1.40001
1.40001
1.40001
1.40001
1.40001
1.40001
1.40001
1.40001
1.40001
1.40001
1.40001
1.40001
1.40001
1.40001
1.40001
1.40001
1.40001
1.40001
1.40001
1.40001
1.40001
1.40001
1.40001
1.40001
1.40001
1.40001
1.40001
1.40001
1.40001
1.40001
1.40001
1.40001
2.66122
5.17848
5.41652
5.42449
5.44299
5.45759
5.47363
5.48944
5.50475
5.51913
5.53264
5.54556
5.558
5.56944
5.57924
5.58746
5.59395
5.59884
5.60252
5.60673
5.6139
5.62475
5.63891
5.65602
5.67336
5.6881
5.69816
5.70359
5.70598
5.70744
5.70921
5.7131
5.71932
5.7263
5.73548
5.748
5.76325
5.77815
5.79186
5.8033
5.81018
5.81284
5.81319
5.81363
5.81562
5.81951
5.82464
5.83017
5.83605
5.84272
5.851
5.86099
5.87261
5.88437
5.89386
5.89803
5.89691
5.8942
5.89261
5.89527
5.90205
5.91033
5.9181
5.92409
5.92797
5.93024
5.93223
5.93528
5.93964
5.94426
5.94771
5.94917
5.94858
5.94676
5.945
5.94364
5.94243
5.94097
5.93927
5.93776
5.93684
5.93564
5.93112
5.91834
5.89256
5.85273
5.80565
5.76477
5.74148
5.73527
1.40001
1.40001
1.40001
1.40001
1.40001
1.40001
1.40001
1.40001
1.40001
1.40001
1.40001
1.40001
1.40001
1.40001
1.40001
1.40001
1.40001
1.40001
1.40001
1.40001
1.40001
1.40001
1.40001
1.40001
1.40001
1.40001
1.40001
1.40001
1.40001
1.40001
1.40001
1.40001
1.40001
1.40001
1.40001
1.40001
1.40001
1.40001
1.40001
1.40001
1.40001
1.40001
1.40001
1.40001
1.40001
1.40001
1.40001
1.40001
1.40001
1.40001
1.40001
1.40001
1.40001
1.40001
1.40001
1.40001
1.40001
1.40001
1.40001
1.40001
1.40001
1.40001
1.40001
1.40001
1.40001
1.40001
1.40001
1.40001
1.40001
1.40001
1.40001
1.40001
1.40001
1.40001
1.40001
1.40001
1.40001
1.40001
1.40001
1.40001
1.40001
1.40001
1.40001
1.40001
1.40001
1.40001
1.40001
1.40001
1.40001
1.40001
1.40001
1.40001
1.40001
1.40001
1.40001
1.40001
1.40001
1.40001
1.40001
1.40001
1.40001
1.40001
2.63194
5.17498
5.41249
5.42381
5.4416
5.45667
5.47349
5.48987
5.50532
5.5195
5.5328
5.54563
5.55807
5.56948
5.57914
5.58712
5.59339
5.59802
5.60155
5.60585
5.61343
5.62463
5.63893
5.65594
5.6732
5.68793
5.69793
5.70326
5.70548
5.70675
5.70875
5.71332
5.72017
5.72729
5.7362
5.74807
5.7624
5.77666
5.7906
5.80272
5.81028
5.81323
5.81324
5.81292
5.81412
5.81769
5.82314
5.8294
5.83602
5.8431
5.85121
5.86064
5.87169
5.88323
5.89283
5.8972
5.8962
5.8935
5.89185
5.89452
5.9013
5.91001
5.91838
5.92479
5.92852
5.92996
5.93075
5.93271
5.93656
5.94138
5.94551
5.94774
5.94777
5.94621
5.9443
5.94286
5.94196
5.9412
5.94024
5.9389
5.9373
5.93476
5.92905
5.9159
5.89064
5.85181
5.80561
5.76515
5.7418
5.73539
1.40001
1.40001
1.40001
1.40001
1.40001
1.40001
1.40001
1.40001
1.40001
1.40001
1.40001
1.40001
1.40001
1.40001
1.40001
1.40001
1.40001
1.40001
1.40001
1.40001
1.40001
1.40001
1.40001
1.40001
1.40001
1.40001
1.40001
1.40001
1.40001
1.40001
1.40001
1.40001
1.40001
1.40001
1.40001
1.40001
1.40001
1.40001
1.40001
1.40001
1.40001
1.40001
1.40001
1.40001
1.40001
1.40001
1.40001
1.40001
1.40001
1.40001
1.40001
1.40001
1.40001
1.40001
1.40001
1.40001
1.40001
1.40001
1.40001
1.40001
1.40001
1.40001
1.40001
1.40001
1.40001
1.40001
1.40001
1.40001
1.40001
1.40001
1.40001
1.40001
1.40001
1.40001
1.40001
1.40001
1.40001
1.40001
1.40001
1.40001
1.40001
1.40001
1.40001
1.40001
1.40001
1.40001
1.40001
1.40001
1.40001
1.40001
1.40001
1.40001
1.40001
1.40001
1.40001
1.40001
1.40001
1.40001
1.40001
1.40001
1.40001
1.40001
2.59334
5.17014
5.4129
5.42294
5.44105
5.45611
5.47286
5.4893
5.50492
5.51926
5.53275
5.54568
5.55819
5.56949
5.57904
5.58697
5.59325
5.59778
5.60107
5.60537
5.61315
5.62442
5.63853
5.65524
5.67243
5.6874
5.69776
5.70335
5.70549
5.70634
5.70797
5.71282
5.7203
5.72782
5.73681
5.74842
5.76208
5.77572
5.78973
5.80234
5.81038
5.81357
5.81307
5.81193
5.8123
5.81541
5.82116
5.82826
5.83579
5.84339
5.85142
5.86035
5.87077
5.88193
5.89148
5.89608
5.89534
5.89284
5.89126
5.89382
5.90038
5.90936
5.91827
5.92517
5.92893
5.92978
5.92946
5.93019
5.93311
5.93775
5.94245
5.94567
5.94657
5.94542
5.94354
5.94204
5.94147
5.94145
5.94121
5.94004
5.9376
5.93358
5.92653
5.913
5.8884
5.85075
5.80554
5.76551
5.742
5.73526
1.40001
1.40001
1.40001
1.40001
1.40001
1.40001
1.40001
1.40001
1.40001
1.40001
1.40001
1.40001
1.40001
1.40001
1.40001
1.40001
1.40001
1.40001
1.40001
1.40001
1.40001
1.40001
1.40001
1.40001
1.40001
1.40001
1.40001
1.40001
1.40001
1.40001
1.40001
1.40001
1.40001
1.40001
1.40001
1.40001
1.40001
1.40001
1.40001
1.40001
1.40001
1.40001
1.40001
1.40001
1.40001
1.40001
1.40001
1.40001
1.40001
1.40001
1.40001
1.40001
1.40001
1.40001
1.40001
1.40001
1.40001
1.40001
1.40001
1.40001
1.40001
1.40001
1.40001
1.40001
1.40001
1.40001
1.40001
1.40001
1.40001
1.40001
1.40001
1.40001
1.40001
1.40001
1.40001
1.40001
1.40001
1.40001
1.40001
1.40001
1.40001
1.40001
1.40001
1.40001
1.40001
1.40001
1.40001
1.40001
1.40001
1.40001
1.40001
1.40001
1.40001
1.40001
1.40001
1.40001
1.40001
1.40001
1.40001
1.40001
1.40001
1.40001
2.54764
5.15926
5.41549
5.42286
5.44053
5.45537
5.47184
5.4884
5.50433
5.51905
5.53301
5.54641
5.55929
5.57043
5.57959
5.58727
5.59349
5.59775
5.60075
5.6051
5.61306
5.62429
5.63793
5.65405
5.67103
5.6864
5.69753
5.70379
5.70616
5.70658
5.70726
5.71155
5.71914
5.72709
5.73654
5.74844
5.76189
5.77517
5.78918
5.80204
5.81031
5.81351
5.81235
5.8104
5.81001
5.81279
5.81886
5.82679
5.83525
5.84344
5.85157
5.86016
5.87
5.8806
5.88987
5.89461
5.89429
5.89219
5.89087
5.89326
5.89945
5.90833
5.91754
5.92493
5.92892
5.92955
5.9286
5.92822
5.92992
5.93388
5.93879
5.94283
5.94472
5.94439
5.9428
5.94141
5.94109
5.9416
5.94195
5.94081
5.93759
5.93213
5.9238
5.90989
5.88598
5.84955
5.80534
5.76566
5.74193
5.73475
1.40001
1.40001
1.40001
1.40001
1.40001
1.40001
1.40001
1.40001
1.40001
1.40001
1.40001
1.40001
1.40001
1.40001
1.40001
1.40001
1.40001
1.40001
1.40001
1.40001
1.40001
1.40001
1.40001
1.40001
1.40001
1.40001
1.40001
1.40001
1.40001
1.40001
1.40001
1.40001
1.40001
1.40001
1.40001
1.40001
1.40001
1.40001
1.40001
1.40001
1.40001
1.40001
1.40001
1.40001
1.40001
1.40001
1.40001
1.40001
1.40001
1.40001
1.40001
1.40001
1.40001
1.40001
1.40001
1.40001
1.40001
1.40001
1.40001
1.40001
1.40001
1.40001
1.40001
1.40001
1.40001
1.40001
1.40001
1.40001
1.40001
1.40001
1.40001
1.40001
1.40001
1.40001
1.40001
1.40001
1.40001
1.40001
1.40001
1.40001
1.40001
1.40001
1.40001
1.40001
1.40001
1.40001
1.40001
1.40001
1.40001
1.40001
1.40001
1.40001
1.40001
1.40001
1.40001
1.40001
1.40001
1.40001
1.40001
1.40001
1.40001
1.40001
2.49402
5.14261
5.41755
5.42317
5.44024
5.45497
5.47114
5.4875
5.50338
5.51831
5.53272
5.5468
5.56041
5.57162
5.58047
5.58779
5.59375
5.59756
5.60029
5.60488
5.61323
5.62445
5.63747
5.65259
5.66892
5.68444
5.69652
5.70389
5.70684
5.70705
5.70682
5.71011
5.71719
5.72532
5.73547
5.74814
5.76203
5.77528
5.78921
5.80204
5.81022
5.8131
5.81119
5.80843
5.80743
5.81015
5.81653
5.82518
5.83448
5.84327
5.85167
5.8602
5.86959
5.87956
5.88829
5.89298
5.89309
5.89155
5.89065
5.89291
5.89862
5.90702
5.91616
5.92389
5.92832
5.92918
5.92798
5.92688
5.92741
5.93023
5.93475
5.93929
5.94227
5.94305
5.94212
5.94101
5.94082
5.94161
5.94216
5.94092
5.93711
5.93053
5.92115
5.90693
5.88358
5.84818
5.80481
5.76542
5.74145
5.73382
1.40001
1.40001
1.40001
1.40001
1.40001
1.40001
1.40001
1.40001
1.40001
1.40001
1.40001
1.40001
1.40001
1.40001
1.40001
1.40001
1.40001
1.40001
1.40001
1.40001
1.40001
1.40001
1.40001
1.40001
1.40001
1.40001
1.40001
1.40001
1.40001
1.40001
1.40001
1.40001
1.40001
1.40001
1.40001
1.40001
1.40001
1.40001
1.40001
1.40001
1.40001
1.40001
1.40001
1.40001
1.40001
1.40001
1.40001
1.40001
1.40001
1.40001
1.40001
1.40001
1.40001
1.40001
1.40001
1.40001
1.40001
1.40001
1.40001
1.40001
1.40001
1.40001
1.40001
1.40001
1.40001
1.40001
1.40001
1.40001
1.40001
1.40001
1.40001
1.40001
1.40001
1.40001
1.40001
1.40001
1.40001
1.40001
1.40001
1.40001
1.40001
1.40001
1.40001
1.40001
1.40001
1.40001
1.40001
1.40001
1.40001
1.40001
1.40001
1.40001
1.40001
1.40001
1.40001
1.40001
1.40001
1.40001
1.40001
1.40001
1.40001
1.40001
2.43288
5.12053
5.41814
5.42356
5.44025
5.45512
5.47094
5.48685
5.50221
5.51711
5.53184
5.54692
5.56151
5.5731
5.58178
5.5886
5.59381
5.59657
5.59901
5.60408
5.61308
5.62451
5.63706
5.65106
5.66653
5.68192
5.69476
5.70333
5.70714
5.70749
5.70667
5.70905
5.71522
5.72304
5.7338
5.74745
5.76227
5.77593
5.7897
5.80219
5.80986
5.81212
5.80948
5.80619
5.80489
5.80762
5.81432
5.82354
5.83346
5.84279
5.85154
5.86028
5.86945
5.87885
5.8869
5.89133
5.89175
5.89075
5.89032
5.89255
5.89783
5.9056
5.91438
5.92221
5.92711
5.92846
5.92745
5.92603
5.92562
5.92717
5.93076
5.93538
5.93938
5.9414
5.94143
5.94081
5.94066
5.94118
5.94147
5.94012
5.936
5.92889
5.91895
5.90447
5.88135
5.84652
5.80368
5.7645
5.74036
5.73247
1.40001
1.40001
1.40001
1.40001
1.40001
1.40001
1.40001
1.40001
1.40001
1.40001
1.40001
1.40001
1.40001
1.40001
1.40001
1.40001
1.40001
1.40001
1.40001
1.40001
1.40001
1.40001
1.40001
1.40001
1.40001
1.40001
1.40001
1.40001
1.40001
1.40001
1.40001
1.40001
1.40001
1.40001
1.40001
1.40001
1.40001
1.40001
1.40001
1.40001
1.40001
1.40001
1.40001
1.40001
1.40001
1.40001
1.40001
1.40001
1.40001
1.40001
1.40001
1.40001
1.40001
1.40001
1.40001
1.40001
1.40001
1.40001
1.40001
1.40001
1.40001
1.40001
1.40001
1.40001
1.40001
1.40001
1.40001
1.40001
1.40001
1.40001
1.40001
1.40001
1.40001
1.40001
1.40001
1.40001
1.40001
1.40001
1.40001
1.40001
1.40001
1.40001
1.40001
1.40001
1.40001
1.40001
1.40001
1.40001
1.40001
1.40001
1.40001
1.40001
1.40001
1.40001
1.40001
1.40001
1.40001
1.40001
1.40001
1.40001
1.40001
1.40001
2.3654
5.08991
5.41726
5.42501
5.44092
5.45614
5.47164
5.48691
5.5017
5.51648
5.53124
5.54733
5.56249
5.57478
5.58345
5.5895
5.5931
5.59442
5.59662
5.6023
5.61223
5.62428
5.63664
5.64978
5.66427
5.67924
5.69241
5.70188
5.70669
5.70755
5.70648
5.7083
5.71368
5.72096
5.73212
5.74659
5.76231
5.77658
5.79022
5.80225
5.8091
5.81058
5.80736
5.80384
5.80256
5.80539
5.81234
5.82194
5.83229
5.84203
5.85118
5.86027
5.86948
5.87847
5.88583
5.88987
5.89034
5.88971
5.88964
5.89191
5.89692
5.90415
5.9125
5.92021
5.9254
5.92728
5.92675
5.92534
5.9244
5.92484
5.92725
5.93152
5.93618
5.93951
5.94073
5.94062
5.94033
5.94012
5.9398
5.93823
5.93421
5.92732
5.91734
5.90268
5.87939
5.84453
5.80179
5.76274
5.73865
5.7308
1.40001
1.40001
1.40001
1.40001
1.40001
1.40001
1.40001
1.40001
1.40001
1.40001
1.40001
1.40001
1.40001
1.40001
1.40001
1.40001
1.40001
1.40001
1.40001
1.40001
1.40001
1.40001
1.40001
1.40001
1.40001
1.40001
1.40001
1.40001
1.40001
1.40001
1.40001
1.40001
1.40001
1.40001
1.40001
1.40001
1.40001
1.40001
1.40001
1.40001
1.40001
1.40001
1.40001
1.40001
1.40001
1.40001
1.40001
1.40001
1.40001
1.40001
1.40001
1.40001
1.40001
1.40001
1.40001
1.40001
1.40001
1.40001
1.40001
1.40001
1.40001
1.40001
1.40001
1.40001
1.40001
1.40001
1.40001
1.40001
1.40001
1.40001
1.40001
1.40001
1.40001
1.40001
1.40001
1.40001
1.40001
1.40001
1.40001
1.40001
1.40001
1.40001
1.40001
1.40001
1.40001
1.40001
1.40001
1.40001
1.40001
1.40001
1.40001
1.40001
1.40001
1.40001
1.40001
1.40001
1.40001
1.40001
1.40001
1.40001
1.40001
1.40001
2.29329
5.05062
5.41648
5.42673
5.44229
5.45754
5.47295
5.48761
5.50214
5.51665
5.53166
5.54817
5.5637
5.57637
5.5851
5.5898
5.59142
5.59132
5.59333
5.59961
5.61041
5.62322
5.63576
5.64855
5.6622
5.67667
5.68985
5.69979
5.7053
5.70672
5.70587
5.70764
5.71262
5.71965
5.73105
5.74594
5.76219
5.77691
5.79042
5.80193
5.8079
5.80862
5.80499
5.80139
5.80026
5.80336
5.81053
5.82042
5.83107
5.8411
5.85061
5.8601
5.86951
5.87828
5.88509
5.88867
5.8889
5.88832
5.88837
5.89067
5.89562
5.90265
5.91074
5.91824
5.92346
5.92569
5.92566
5.92456
5.92344
5.92316
5.92452
5.92818
5.93303
5.93737
5.93978
5.94029
5.9397
5.93853
5.93728
5.93539
5.93185
5.9258
5.91629
5.90148
5.87765
5.84219
5.79915
5.76015
5.73628
5.72879
1.40001
1.40001
1.40001
1.40001
1.40001
1.40001
1.40001
1.40001
1.40001
1.40001
1.40001
1.40001
1.40001
1.40001
1.40001
1.40001
1.40001
1.40001
1.40001
1.40001
1.40001
1.40001
1.40001
1.40001
1.40001
1.40001
1.40001
1.40001
1.40001
1.40001
1.40001
1.40001
1.40001
1.40001
1.40001
1.40001
1.40001
1.40001
1.40001
1.40001
1.40001
1.40001
1.40001
1.40001
1.40001
1.40001
1.40001
1.40001
1.40001
1.40001
1.40001
1.40001
1.40001
1.40001
1.40001
1.40001
1.40001
1.40001
1.40001
1.40001
1.40001
1.40001
1.40001
1.40001
1.40001
1.40001
1.40001
1.40001
1.40001
1.40001
1.40001
1.40001
1.40001
1.40001
1.40001
1.40001
1.40001
1.40001
1.40001
1.40001
1.40001
1.40001
1.40001
1.40001
1.40001
1.40001
1.40001
1.40001
1.40001
1.40001
1.40001
1.40001
1.40001
1.40001
1.40001
1.40001
1.40001
1.40001
1.40001
1.40001
1.40001
1.40001
2.21914
5.00408
5.41499
5.42666
5.44335
5.45863
5.47388
5.4884
5.503
5.51759
5.5335
5.54963
5.56509
5.57784
5.58592
5.58897
5.58894
5.58799
5.58983
5.59624
5.6075
5.62091
5.63381
5.64666
5.66005
5.67432
5.68746
5.69751
5.70318
5.70488
5.70455
5.70681
5.71186
5.71922
5.73082
5.7457
5.76189
5.77675
5.79008
5.8011
5.8064
5.80656
5.8026
5.79893
5.79797
5.80133
5.80874
5.81893
5.82987
5.84013
5.84988
5.85968
5.86933
5.87806
5.88445
5.88761
5.88744
5.88652
5.88635
5.88862
5.89372
5.90097
5.90915
5.91654
5.92158
5.92385
5.92407
5.92335
5.92247
5.92203
5.92273
5.9256
5.9302
5.93501
5.93834
5.93944
5.9386
5.93648
5.9342
5.93203
5.92917
5.92429
5.91555
5.90064
5.876
5.83957
5.79591
5.75683
5.73326
5.72638
1.40001
1.40001
1.40001
1.40001
1.40001
1.40001
1.40001
1.40001
1.40001
1.40001
1.40001
1.40001
1.40001
1.40001
1.40001
1.40001
1.40001
1.40001
1.40001
1.40001
1.40001
1.40001
1.40001
1.40001
1.40001
1.40001
1.40001
1.40001
1.40001
1.40001
1.40001
1.40001
1.40001
1.40001
1.40001
1.40001
1.40001
1.40001
1.40001
1.40001
1.40001
1.40001
1.40001
1.40001
1.40001
1.40001
1.40001
1.40001
1.40001
1.40001
1.40001
1.40001
1.40001
1.40001
1.40001
1.40001
1.40001
1.40001
1.40001
1.40001
1.40001
1.40001
1.40001
1.40001
1.40001
1.40001
1.40001
1.40001
1.40001
1.40001
1.40001
1.40001
1.40001
1.40001
1.40001
1.40001
1.40001
1.40001
1.40001
1.40001
1.40001
1.40001
1.40001
1.40001
1.40001
1.40001
1.40001
1.40001
1.40001
1.40001
1.40001
1.40001
1.40001
1.40001
1.40001
1.40001
1.40001
1.40001
1.40001
1.40001
1.40001
1.40001
2.14227
4.9544
5.41273
5.42728
5.44413
5.45927
5.47442
5.48891
5.50347
5.51923
5.5359
5.55156
5.56654
5.5783
5.58472
5.58646
5.58564
5.5844
5.58626
5.59266
5.60392
5.61744
5.63072
5.6438
5.65743
5.67193
5.68536
5.69556
5.70114
5.70277
5.70281
5.70579
5.71137
5.71949
5.73131
5.74587
5.76134
5.77591
5.78903
5.79971
5.80475
5.80464
5.8004
5.79658
5.79566
5.79917
5.8068
5.81729
5.82863
5.83919
5.84906
5.85898
5.86882
5.87767
5.88376
5.88653
5.88596
5.8844
5.8837
5.88581
5.89115
5.899
5.90766
5.91514
5.91993
5.92191
5.92206
5.92164
5.92131
5.92124
5.92177
5.9239
5.92779
5.93239
5.93613
5.93765
5.93675
5.93408
5.931
5.9286
5.92638
5.92258
5.91467
5.89976
5.87433
5.83681
5.79235
5.75305
5.7297
5.72352
1.40001
1.40001
1.40001
1.40001
1.40001
1.40001
1.40001
1.40001
1.40001
1.40001
1.40001
1.40001
1.40001
1.40001
1.40001
1.40001
1.40001
1.40001
1.40001
1.40001
1.40001
1.40001
1.40001
1.40001
1.40001
1.40001
1.40001
1.40001
1.40001
1.40001
1.40001
1.40001
1.40001
1.40001
1.40001
1.40001
1.40001
1.40001
1.40001
1.40001
1.40001
1.40001
1.40001
1.40001
1.40001
1.40001
1.40001
1.40001
1.40001
1.40001
1.40001
1.40001
1.40001
1.40001
1.40001
1.40001
1.40001
1.40001
1.40001
1.40001
1.40001
1.40001
1.40001
1.40001
1.40001
1.40001
1.40001
1.40001
1.40001
1.40001
1.40001
1.40001
1.40001
1.40001
1.40001
1.40001
1.40001
1.40001
1.40001
1.40001
1.40001
1.40001
1.40001
1.40001
1.40001
1.40001
1.40001
1.40001
1.40001
1.40001
1.40001
1.40001
1.40001
1.40001
1.40001
1.40001
1.40001
1.40001
1.40001
1.40001
1.40001
1.40001
2.06154
4.9001
5.41303
5.42903
5.44583
5.46014
5.47463
5.48871
5.50388
5.52128
5.53778
5.5537
5.56727
5.57665
5.58128
5.58225
5.58118
5.5804
5.58281
5.58947
5.60042
5.61343
5.62663
5.63978
5.65376
5.66873
5.68287
5.69363
5.69931
5.70082
5.70118
5.70473
5.71103
5.72003
5.73211
5.74632
5.76075
5.7746
5.78749
5.79798
5.80307
5.80295
5.79857
5.79445
5.79335
5.79684
5.80451
5.81529
5.82713
5.83815
5.84821
5.85814
5.86795
5.87688
5.88272
5.8851
5.88425
5.88191
5.8806
5.8825
5.88803
5.89661
5.906
5.91379
5.91842
5.91998
5.91984
5.91957
5.91987
5.9206
5.92149
5.92303
5.9258
5.92953
5.93306
5.93478
5.93409
5.93145
5.9281
5.92553
5.92365
5.92051
5.91321
5.8984
5.87242
5.83399
5.78874
5.74909
5.72579
5.72018
1.40001
1.40001
1.40001
1.40001
1.40001
1.40001
1.40001
1.40001
1.40001
1.40001
1.40001
1.40001
1.40001
1.40001
1.40001
1.40001
1.40001
1.40001
1.40001
1.40001
1.40001
1.40001
1.40001
1.40001
1.40001
1.40001
1.40001
1.40001
1.40001
1.40001
1.40001
1.40001
1.40001
1.40001
1.40001
1.40001
1.40001
1.40001
1.40001
1.40001
1.40001
1.40001
1.40001
1.40001
1.40001
1.40001
1.40001
1.40001
1.40001
1.40001
1.40001
1.40001
1.40001
1.40001
1.40001
1.40001
1.40001
1.40001
1.40001
1.40001
1.40001
1.40001
1.40001
1.40001
1.40001
1.40001
1.40001
1.40001
1.40001
1.40001
1.40001
1.40001
1.40001
1.40001
1.40001
1.40001
1.40001
1.40001
1.40001
1.40001
1.40001
1.40001
1.40001
1.40001
1.40001
1.40001
1.40001
1.40001
1.40001
1.40001
1.40001
1.40001
1.40001
1.40001
1.40001
1.40001
1.40001
1.40001
1.40001
1.40001
1.40001
1.40001
1.97506
4.83736
5.41798
5.4307
5.44732
5.46099
5.47536
5.48962
5.50583
5.52232
5.53926
5.55436
5.56632
5.57399
5.57734
5.57756
5.57644
5.57632
5.57958
5.58666
5.59731
5.60964
5.62225
5.63508
5.64906
5.66447
5.67956
5.69147
5.69791
5.69968
5.70035
5.70421
5.71099
5.72066
5.73292
5.74669
5.76
5.77292
5.78548
5.79585
5.80113
5.80124
5.79699
5.79256
5.79107
5.79429
5.80167
5.81253
5.8249
5.83666
5.84726
5.85737
5.867
5.8757
5.88118
5.88307
5.88206
5.87915
5.87751
5.87932
5.88485
5.89387
5.90384
5.91207
5.91674
5.91802
5.91758
5.91736
5.91827
5.92002
5.92153
5.92266
5.92415
5.92647
5.92918
5.93083
5.93067
5.92872
5.92566
5.92301
5.92108
5.91803
5.91096
5.89624
5.87004
5.83109
5.78524
5.74518
5.72169
5.71635
1.40001
1.40001
1.40001
1.40001
1.40001
1.40001
1.40001
1.40001
1.40001
1.40001
1.40001
1.40001
1.40001
1.40001
1.40001
1.40001
1.40001
1.40001
1.40001
1.40001
1.40001
1.40001
1.40001
1.40001
1.40001
1.40001
1.40001
1.40001
1.40001
1.40001
1.40001
1.40001
1.40001
1.40001
1.40001
1.40001
1.40001
1.40001
1.40001
1.40001
1.40001
1.40001
1.40001
1.40001
1.40001
1.40001
1.40001
1.40001
1.40001
1.40001
1.40001
1.40001
1.40001
1.40001
1.40001
1.40001
1.40001
1.40001
1.40001
1.40001
1.40001
1.40001
1.40001
1.40001
1.40001
1.40001
1.40001
1.40001
1.40001
1.40001
1.40001
1.40001
1.40001
1.40001
1.40001
1.40001
1.40001
1.40001
1.40001
1.40001
1.40001
1.40001
1.40001
1.40001
1.40001
1.40001
1.40001
1.40001
1.40001
1.40001
1.40001
1.40001
1.40001
1.40001
1.40001
1.40001
1.40001
1.40001
1.40001
1.40001
1.40001
1.40001
1.88555
4.7624
5.42124
5.43201
5.44946
5.46294
5.47742
5.49226
5.50723
5.52322
5.53869
5.55258
5.56336
5.57042
5.57328
5.57325
5.57227
5.57275
5.57685
5.58446
5.595
5.60688
5.61898
5.63126
5.6447
5.65996
5.67564
5.68881
5.69662
5.69917
5.70028
5.70421
5.71117
5.72109
5.73342
5.74667
5.75895
5.77088
5.78306
5.79322
5.79878
5.79929
5.79543
5.79089
5.78904
5.79171
5.79832
5.80883
5.82165
5.83448
5.84616
5.85683
5.86625
5.87424
5.87897
5.88009
5.87895
5.87603
5.87466
5.87668
5.88209
5.89099
5.90104
5.90954
5.91446
5.9158
5.91531
5.91521
5.91671
5.9194
5.92155
5.92248
5.92275
5.92335
5.92472
5.92611
5.92667
5.92576
5.92348
5.92096
5.91864
5.91517
5.90794
5.89327
5.86714
5.82811
5.78195
5.7415
5.7176
5.71212
1.40001
1.40001
1.40001
1.40001
1.40001
1.40001
1.40001
1.40001
1.40001
1.40001
1.40001
1.40001
1.40001
1.40001
1.40001
1.40001
1.40001
1.40001
1.40001
1.40001
1.40001
1.40001
1.40001
1.40001
1.40001
1.40001
1.40001
1.40001
1.40001
1.40001
1.40001
1.40001
1.40001
1.40001
1.40001
1.40001
1.40001
1.40001
1.40001
1.40001
1.40001
1.40001
1.40001
1.40001
1.40001
1.40001
1.40001
1.40001
1.40001
1.40001
1.40001
1.40001
1.40001
1.40001
1.40001
1.40001
1.40001
1.40001
1.40001
1.40001
1.40001
1.40001
1.40001
1.40001
1.40001
1.40001
1.40001
1.40001
1.40001
1.40001
1.40001
1.40001
1.40001
1.40001
1.40001
1.40001
1.40001
1.40001
1.40001
1.40001
1.40001
1.40001
1.40001
1.40001
1.40001
1.40001
1.40001
1.40001
1.40001
1.40001
1.40001
1.40001
1.40001
1.40001
1.40001
1.40001
1.40001
1.40001
1.40001
1.40001
1.40001
1.40001
1.79714
4.67158
5.42058
5.43151
5.45094
5.46531
5.48029
5.49499
5.50891
5.52225
5.53563
5.54813
5.55817
5.56525
5.56904
5.57008
5.56978
5.57057
5.57477
5.5824
5.59274
5.60433
5.61612
5.62796
5.64081
5.65558
5.67144
5.68565
5.69507
5.69886
5.70073
5.70473
5.7117
5.72142
5.73369
5.74642
5.75786
5.76871
5.7802
5.7899
5.79564
5.79662
5.79349
5.78921
5.78729
5.78934
5.79463
5.80415
5.81717
5.83133
5.84469
5.85649
5.86581
5.87263
5.87616
5.87614
5.87478
5.87246
5.87207
5.87474
5.88015
5.88839
5.89779
5.90608
5.91125
5.91299
5.91279
5.91304
5.91508
5.91849
5.92119
5.92204
5.92141
5.92043
5.92024
5.9211
5.92214
5.92238
5.92121
5.91897
5.91616
5.91199
5.90431
5.88963
5.86379
5.825
5.77879
5.738
5.71356
5.7076
1.40001
1.40001
1.40001
1.40001
1.40001
1.40001
1.40001
1.40001
1.40001
1.40001
1.40001
1.40001
1.40001
1.40001
1.40001
1.40001
1.40001
1.40001
1.40001
1.40001
1.40001
1.40001
1.40001
1.40001
1.40001
1.40001
1.40001
1.40001
1.40001
1.40001
1.40001
1.40001
1.40001
1.40001
1.40001
1.40001
1.40001
1.40001
1.40001
1.40001
1.40001
1.40001
1.40001
1.40001
1.40001
1.40001
1.40001
1.40001
1.40001
1.40001
1.40001
1.40001
1.40001
1.40001
1.40001
1.40001
1.40001
1.40001
1.40001
1.40001
1.40001
1.40001
1.40001
1.40001
1.40001
1.40001
1.40001
1.40001
1.40001
1.40001
1.40001
1.40001
1.40001
1.40001
1.40001
1.40001
1.40001
1.40001
1.40001
1.40001
1.40001
1.40001
1.40001
1.40001
1.40001
1.40001
1.40001
1.40001
1.40001
1.40001
1.40001
1.40001
1.40001
1.40001
1.40001
1.40001
1.40001
1.40001
1.40001
1.40001
1.40001
1.40001
1.71171
4.56523
5.41899
5.4323
5.4526
5.46748
5.4825
5.4964
5.50851
5.51988
5.5309
5.54086
5.54989
5.5577
5.56353
5.5668
5.56814
5.56971
5.5738
5.58101
5.59093
5.60223
5.61391
5.62557
5.63795
5.65208
5.66768
5.68253
5.69335
5.69856
5.70132
5.70547
5.71232
5.72162
5.73369
5.74602
5.75685
5.76655
5.77689
5.78577
5.79142
5.79288
5.7909
5.7874
5.78593
5.78745
5.79094
5.79888
5.81167
5.82725
5.8428
5.85625
5.8657
5.87106
5.87295
5.87144
5.86977
5.86826
5.86951
5.87344
5.8791
5.88635
5.89447
5.90191
5.907
5.90934
5.90989
5.91076
5.9133
5.91709
5.9202
5.92115
5.91994
5.9178
5.91631
5.91634
5.9174
5.91837
5.91818
5.91643
5.91333
5.90851
5.90037
5.88569
5.86016
5.82172
5.77559
5.73453
5.70958
5.70294
1.40001
1.40001
1.40001
1.40001
1.40001
1.40001
1.40001
1.40001
1.40001
1.40001
1.40001
1.40001
1.40001
1.40001
1.40001
1.40001
1.40001
1.40001
1.40001
1.40001
1.40001
1.40001
1.40001
1.40001
1.40001
1.40001
1.40001
1.40001
1.40001
1.40001
1.40001
1.40001
1.40001
1.40001
1.40001
1.40001
1.40001
1.40001
1.40001
1.40001
1.40001
1.40001
1.40001
1.40001
1.40001
1.40001
1.40001
1.40001
1.40001
1.40001
1.40001
1.40001
1.40001
1.40001
1.40001
1.40001
1.40001
1.40001
1.40001
1.40001
1.40001
1.40001
1.40001
1.40001
1.40001
1.40001
1.40001
1.40001
1.40001
1.40001
1.40001
1.40001
1.40001
1.40001
1.40001
1.40001
1.40001
1.40001
1.40001
1.40001
1.40001
1.40001
1.40001
1.40001
1.40001
1.40001
1.40001
1.40001
1.40001
1.40001
1.40001
1.40001
1.40001
1.40001
1.40001
1.40001
1.40001
1.40001
1.40001
1.40001
1.40001
1.40001
1.62816
4.44673
5.41928
5.43392
5.45209
5.46735
5.48219
5.49531
5.50696
5.51707
5.52571
5.53381
5.54215
5.55075
5.55847
5.56388
5.56694
5.56945
5.57356
5.58024
5.58951
5.60036
5.61187
5.62346
5.63553
5.64917
5.66444
5.67964
5.69155
5.69808
5.70165
5.70603
5.7127
5.72155
5.73323
5.74537
5.75587
5.76456
5.77342
5.78113
5.78627
5.78809
5.78749
5.78549
5.78477
5.78567
5.78741
5.79346
5.80564
5.82269
5.84053
5.85584
5.86564
5.86961
5.86966
5.8665
5.86431
5.86348
5.86655
5.87208
5.8784
5.88479
5.89135
5.89753
5.90212
5.90495
5.90644
5.90809
5.911
5.91486
5.91819
5.91939
5.91819
5.91571
5.91327
5.91226
5.91275
5.91377
5.91412
5.91284
5.90985
5.90481
5.8965
5.88187
5.85655
5.8183
5.7722
5.73093
5.70563
5.69835
1.40001
1.40001
1.40001
1.40001
1.40001
1.40001
1.40001
1.40001
1.40001
1.40001
1.40001
1.40001
1.40001
1.40001
1.40001
1.40001
1.40001
1.40001
1.40001
1.40001
1.40001
1.40001
1.40001
1.40001
1.40001
1.40001
1.40001
1.40001
1.40001
1.40001
1.40001
1.40001
1.40001
1.40001
1.40001
1.40001
1.40001
1.40001
1.40001
1.40001
1.40001
1.40001
1.40001
1.40001
1.40001
1.40001
1.40001
1.40001
1.40001
1.40001
1.40001
1.40001
1.40001
1.40001
1.40001
1.40001
1.40001
1.40001
1.40001
1.40001
1.40001
1.40001
1.40001
1.40001
1.40001
1.40001
1.40001
1.40001
1.40001
1.40001
1.40001
1.40001
1.40001
1.40001
1.40001
1.40001
1.40001
1.40001
1.40001
1.40001
1.40001
1.40001
1.40001
1.40001
1.40001
1.40001
1.40001
1.40001
1.40001
1.40001
1.40001
1.40001
1.40001
1.40001
1.40001
1.40001
1.40001
1.40001
1.40001
1.40001
1.40001
1.40001
1.54237
4.31921
5.42998
5.43552
5.45127
5.46598
5.48007
5.49319
5.50477
5.51436
5.52174
5.52836
5.53595
5.54494
5.55401
5.56115
5.56572
5.56919
5.5736
5.57998
5.58867
5.59899
5.61009
5.62157
5.63358
5.64688
5.66184
5.67723
5.68985
5.69738
5.70147
5.70602
5.71243
5.72083
5.73202
5.74414
5.75452
5.76253
5.76987
5.77618
5.78049
5.78263
5.78335
5.78311
5.78322
5.78359
5.78385
5.78815
5.79989
5.81821
5.83794
5.85483
5.86508
5.86838
5.86686
5.86206
5.8589
5.85836
5.86281
5.86996
5.87723
5.88322
5.88851
5.89344
5.89729
5.90022
5.90241
5.90473
5.90785
5.91157
5.91493
5.91664
5.91621
5.91408
5.91129
5.90924
5.90852
5.90872
5.90883
5.90792
5.90544
5.90082
5.89281
5.87836
5.85306
5.81471
5.76844
5.727
5.7016
5.69387
1.40001
1.40001
1.40001
1.40001
1.40001
1.40001
1.40001
1.40001
1.40001
1.40001
1.40001
1.40001
1.40001
1.40001
1.40001
1.40001
1.40001
1.40001
1.40001
1.40001
1.40001
1.40001
1.40001
1.40001
1.40001
1.40001
1.40001
1.40001
1.40001
1.40001
1.40001
1.40001
1.40001
1.40001
1.40001
1.40001
1.40001
1.40001
1.40001
1.40001
1.40001
1.40001
1.40001