/*--------------------------------*- C++ -*----------------------------------*\
  =========                 |
  \\      /  F ield         | OpenFOAM: The Open Source CFD Toolbox
   \\    /   O peration     | Website:  https://openfoam.org
    \\  /    A nd           | Version:  7
     \\/     M anipulation  |
\*---------------------------------------------------------------------------*/
FoamFile
{
    version     2.0;
    format      ascii;
    class       volScalarField;
    location    "1.6";
    object      T;
}
// * * * * * * * * * * * * * * * * * * * * * * * * * * * * * * * * * * * * * //

dimensions      [0 0 0 1 0 0 0];

internalField   nonuniform List<scalar> 
258048
(
1
1
1
1
1
1
1
1
1
1
1
1
1
1
1
1
1
1
1
1
1
1
1
1
1
1
1
1
1
1
1
1
1
1
1
1
1
1
1
1
1
1
1
1
1
1
1
1
1
1
1
1
1
1
1
1
1
1
1
1
1
1
1
1
1
1
1
1
1
1
1
1
1
1
1
1
1
1
1
1
1
1
1
1
1
1
1
1
1
1
1
1
1
1
1
1
1
1
1
1
1
1
1.82503
2.64901
2.71763
2.71803
2.72147
2.72294
2.72438
2.72592
2.72765
2.72942
2.73106
2.7323
2.73292
2.73301
2.73307
2.73343
2.73466
2.73707
2.74016
2.74296
2.74473
2.74557
2.74628
2.74738
2.74896
2.75132
2.75498
2.76029
2.76696
2.77402
2.7804
2.78456
2.78567
2.78493
2.78327
2.78099
2.77866
2.77727
2.77722
2.77775
2.77929
2.78198
2.78531
2.78862
2.79153
2.79407
2.79645
2.79871
2.80066
2.80199
2.80268
2.80289
2.80301
2.80344
2.80473
2.80687
2.80948
2.81234
2.81453
2.81603
2.81726
2.81781
2.81818
2.81883
2.82016
2.82221
2.82469
2.82713
2.82917
2.83067
2.83181
2.83291
2.83403
2.83534
2.83719
2.83931
2.84137
2.84332
2.84534
2.84762
2.85048
2.85429
2.85958
2.86764
2.88057
2.89964
2.92273
2.94369
2.95659
2.96087
1
1
1
1
1
1
1
1
1
1
1
1
1
1
1
1
1
1
1
1
1
1
1
1
1
1
1
1
1
1
1
1
1
1
1
1
1
1
1
1
1
1
1
1
1
1
1
1
1
1
1
1
1
1
1
1
1
1
1
1
1
1
1
1
1
1
1
1
1
1
1
1
1
1
1
1
1
1
1
1
1
1
1
1
1
1
1
1
1
1
1
1
1
1
1
1
1
1
1
1
1
1
1.82174
2.64891
2.71683
2.71796
2.72169
2.72315
2.72458
2.72601
2.7276
2.72929
2.73089
2.73212
2.73278
2.73293
2.73302
2.73338
2.73453
2.7369
2.74003
2.7429
2.74476
2.74567
2.74643
2.74753
2.74906
2.75133
2.75488
2.76013
2.7668
2.77398
2.78046
2.78469
2.78582
2.78507
2.78332
2.7809
2.77846
2.77703
2.77703
2.77764
2.7793
2.78205
2.78537
2.78861
2.79145
2.79395
2.79635
2.79865
2.80063
2.80197
2.80264
2.80281
2.8029
2.80333
2.80464
2.8068
2.80938
2.81223
2.81445
2.81601
2.81723
2.81782
2.81822
2.81888
2.82016
2.82212
2.8245
2.82688
2.82891
2.83045
2.83165
2.83281
2.83395
2.83529
2.83713
2.83926
2.84135
2.84337
2.84546
2.84776
2.85055
2.85424
2.85941
2.86741
2.88033
2.89947
2.92264
2.94368
2.95662
2.96091
1
1
1
1
1
1
1
1
1
1
1
1
1
1
1
1
1
1
1
1
1
1
1
1
1
1
1
1
1
1
1
1
1
1
1
1
1
1
1
1
1
1
1
1
1
1
1
1
1
1
1
1
1
1
1
1
1
1
1
1
1
1
1
1
1
1
1
1
1
1
1
1
1
1
1
1
1
1
1
1
1
1
1
1
1
1
1
1
1
1
1
1
1
1
1
1
1
1
1
1
1
1
1.81478
2.6495
2.71617
2.71817
2.72163
2.72319
2.72467
2.72605
2.72751
2.72903
2.73049
2.73166
2.73232
2.73253
2.7327
2.73314
2.73438
2.73684
2.74007
2.74301
2.74493
2.74589
2.74668
2.74777
2.74926
2.75144
2.75484
2.75993
2.76652
2.77376
2.78037
2.7847
2.78591
2.7852
2.7834
2.78081
2.77819
2.77666
2.77669
2.77745
2.77929
2.78217
2.78551
2.78865
2.79138
2.79382
2.79621
2.79857
2.80061
2.80198
2.8026
2.80268
2.80269
2.80311
2.80448
2.80671
2.8093
2.81212
2.81434
2.81593
2.81711
2.81777
2.81827
2.81899
2.82023
2.82204
2.82424
2.82648
2.82847
2.83008
2.83141
2.83267
2.8339
2.83526
2.83707
2.83916
2.8413
2.84343
2.84563
2.84793
2.85062
2.85411
2.85913
2.86705
2.87999
2.89921
2.9225
2.94366
2.95666
2.96096
1
1
1
1
1
1
1
1
1
1
1
1
1
1
1
1
1
1
1
1
1
1
1
1
1
1
1
1
1
1
1
1
1
1
1
1
1
1
1
1
1
1
1
1
1
1
1
1
1
1
1
1
1
1
1
1
1
1
1
1
1
1
1
1
1
1
1
1
1
1
1
1
1
1
1
1
1
1
1
1
1
1
1
1
1
1
1
1
1
1
1
1
1
1
1
1
1
1
1
1
1
1
1.80191
2.64877
2.71579
2.71815
2.72123
2.72289
2.72455
2.72601
2.72742
2.72875
2.73001
2.73103
2.73163
2.73186
2.73209
2.73267
2.73412
2.73685
2.7403
2.74338
2.74535
2.74626
2.747
2.74803
2.74945
2.75154
2.75481
2.75973
2.76621
2.77346
2.78018
2.78463
2.78591
2.78526
2.78342
2.78064
2.77783
2.77619
2.77624
2.77717
2.77924
2.7823
2.78565
2.78867
2.79128
2.79362
2.796
2.79842
2.80054
2.80195
2.80251
2.80247
2.8024
2.80278
2.80423
2.80655
2.80918
2.81199
2.81421
2.81583
2.81696
2.81768
2.81829
2.81906
2.82027
2.82195
2.82394
2.82599
2.82788
2.82954
2.831
2.83242
2.83377
2.83518
2.83698
2.83905
2.84125
2.84354
2.84587
2.84818
2.85071
2.85395
2.85872
2.86653
2.8795
2.89885
2.92232
2.94362
2.95668
2.96097
1
1
1
1
1
1
1
1
1
1
1
1
1
1
1
1
1
1
1
1
1
1
1
1
1
1
1
1
1
1
1
1
1
1
1
1
1
1
1
1
1
1
1
1
1
1
1
1
1
1
1
1
1
1
1
1
1
1
1
1
1
1
1
1
1
1
1
1
1
1
1
1
1
1
1
1
1
1
1
1
1
1
1
1
1
1
1
1
1
1
1
1
1
1
1
1
1
1
1
1
1
1
1.78437
2.64596
2.71553
2.71773
2.72082
2.7225
2.72418
2.72562
2.72695
2.72816
2.72927
2.73016
2.7307
2.73093
2.73122
2.73199
2.73382
2.73699
2.74081
2.74409
2.74604
2.7468
2.74736
2.74824
2.74957
2.75162
2.75482
2.75966
2.76604
2.7732
2.7799
2.78441
2.78577
2.78519
2.78334
2.78044
2.77747
2.77573
2.77579
2.77687
2.77917
2.78241
2.78576
2.78868
2.79114
2.79339
2.79573
2.7982
2.80041
2.80185
2.80236
2.80223
2.80206
2.80241
2.8039
2.80632
2.80905
2.81187
2.81411
2.81571
2.81676
2.81751
2.81821
2.81906
2.82027
2.82187
2.82368
2.8255
2.82723
2.82887
2.83046
2.83204
2.83356
2.83508
2.83687
2.83893
2.84122
2.84367
2.84612
2.84845
2.85082
2.85375
2.85824
2.86592
2.87894
2.89847
2.92214
2.94358
2.95667
2.96091
1
1
1
1
1
1
1
1
1
1
1
1
1
1
1
1
1
1
1
1
1
1
1
1
1
1
1
1
1
1
1
1
1
1
1
1
1
1
1
1
1
1
1
1
1
1
1
1
1
1
1
1
1
1
1
1
1
1
1
1
1
1
1
1
1
1
1
1
1
1
1
1
1
1
1
1
1
1
1
1
1
1
1
1
1
1
1
1
1
1
1
1
1
1
1
1
1
1
1
1
1
1
1.76396
2.64126
2.71533
2.71725
2.72038
2.72199
2.72356
2.72493
2.72618
2.72734
2.72844
2.72931
2.72984
2.73
2.73025
2.73116
2.73345
2.7372
2.74149
2.74503
2.74693
2.74747
2.74781
2.74846
2.74964
2.75165
2.75487
2.75972
2.76607
2.7731
2.77959
2.78399
2.78532
2.78478
2.78298
2.78006
2.777
2.7752
2.77529
2.7765
2.77902
2.78242
2.78577
2.78864
2.79097
2.79314
2.79543
2.79791
2.80018
2.80166
2.80214
2.80195
2.80171
2.80202
2.8035
2.80601
2.80886
2.81175
2.81403
2.81558
2.81653
2.81726
2.81801
2.81893
2.82019
2.82178
2.82348
2.8251
2.82663
2.82817
2.8298
2.83149
2.8332
2.83493
2.83677
2.83885
2.84121
2.84379
2.84635
2.84867
2.85088
2.85354
2.85773
2.86527
2.87836
2.8981
2.92197
2.94352
2.9566
2.96078
1
1
1
1
1
1
1
1
1
1
1
1
1
1
1
1
1
1
1
1
1
1
1
1
1
1
1
1
1
1
1
1
1
1
1
1
1
1
1
1
1
1
1
1
1
1
1
1
1
1
1
1
1
1
1
1
1
1
1
1
1
1
1
1
1
1
1
1
1
1
1
1
1
1
1
1
1
1
1
1
1
1
1
1
1
1
1
1
1
1
1
1
1
1
1
1
1
1
1
1
1
1
1.73947
2.63521
2.71504
2.71687
2.71993
2.72143
2.72283
2.72404
2.72517
2.7263
2.72746
2.72839
2.72893
2.72897
2.72913
2.73013
2.73292
2.73734
2.7422
2.74606
2.74793
2.74825
2.74835
2.74872
2.74967
2.75158
2.75484
2.75978
2.76616
2.7731
2.77932
2.78346
2.78462
2.78406
2.78232
2.77948
2.77648
2.77469
2.77481
2.77609
2.77877
2.78235
2.78571
2.7886
2.79085
2.79295
2.79516
2.79759
2.79987
2.80138
2.80189
2.80169
2.80141
2.80167
2.8031
2.80565
2.80864
2.81162
2.81397
2.81548
2.81631
2.81694
2.81767
2.81864
2.81998
2.82165
2.82333
2.82482
2.82614
2.82749
2.82906
2.83083
2.83273
2.83469
2.83668
2.83882
2.84123
2.84386
2.84646
2.84877
2.85088
2.85331
2.85724
2.86465
2.87782
2.89774
2.92178
2.94342
2.95649
2.96058
1
1
1
1
1
1
1
1
1
1
1
1
1
1
1
1
1
1
1
1
1
1
1
1
1
1
1
1
1
1
1
1
1
1
1
1
1
1
1
1
1
1
1
1
1
1
1
1
1
1
1
1
1
1
1
1
1
1
1
1
1
1
1
1
1
1
1
1
1
1
1
1
1
1
1
1
1
1
1
1
1
1
1
1
1
1
1
1
1
1
1
1
1
1
1
1
1
1
1
1
1
1
1.71035
2.62793
2.71484
2.7165
2.71935
2.72076
2.72195
2.72299
2.72404
2.72521
2.72642
2.72742
2.72789
2.72786
2.72795
2.72904
2.73232
2.73737
2.74279
2.74696
2.74882
2.749
2.74892
2.74905
2.74972
2.75148
2.75476
2.75979
2.76627
2.77317
2.77912
2.78293
2.78383
2.78315
2.78142
2.77871
2.77586
2.77418
2.77432
2.77563
2.77839
2.78211
2.78558
2.78855
2.7908
2.79286
2.79496
2.79729
2.79951
2.801
2.80154
2.80139
2.80113
2.80136
2.80273
2.80527
2.80836
2.81146
2.81388
2.81537
2.8161
2.81661
2.81725
2.81823
2.81966
2.82144
2.82319
2.82461
2.82576
2.82691
2.82832
2.83011
2.83219
2.83439
2.83658
2.83882
2.84125
2.84384
2.84639
2.8487
2.85078
2.85309
2.85686
2.86417
2.87736
2.89738
2.92155
2.94326
2.95631
2.96035
1
1
1
1
1
1
1
1
1
1
1
1
1
1
1
1
1
1
1
1
1
1
1
1
1
1
1
1
1
1
1
1
1
1
1
1
1
1
1
1
1
1
1
1
1
1
1
1
1
1
1
1
1
1
1
1
1
1
1
1
1
1
1
1
1
1
1
1
1
1
1
1
1
1
1
1
1
1
1
1
1
1
1
1
1
1
1
1
1
1
1
1
1
1
1
1
1
1
1
1
1
1
1.67724
2.61906
2.71472
2.71622
2.71857
2.71991
2.72096
2.72195
2.72303
2.72426
2.72539
2.72634
2.72661
2.72659
2.72674
2.72811
2.7318
2.73731
2.74316
2.74758
2.74948
2.74965
2.74948
2.74939
2.74984
2.75141
2.75463
2.75971
2.76628
2.77321
2.77893
2.78239
2.78298
2.78218
2.7804
2.77777
2.77507
2.77353
2.77373
2.77507
2.77788
2.78176
2.7854
2.78855
2.79085
2.79287
2.79484
2.79702
2.7991
2.80055
2.80112
2.80105
2.80086
2.8011
2.80242
2.80491
2.80804
2.81124
2.81373
2.8152
2.81588
2.81628
2.8168
2.81775
2.81924
2.82114
2.823
2.82443
2.82548
2.82642
2.82765
2.8294
2.8316
2.83404
2.83646
2.83882
2.84124
2.8437
2.84615
2.84845
2.85055
2.85287
2.85663
2.8639
2.87704
2.89705
2.92126
2.94301
2.95607
2.96012
1
1
1
1
1
1
1
1
1
1
1
1
1
1
1
1
1
1
1
1
1
1
1
1
1
1
1
1
1
1
1
1
1
1
1
1
1
1
1
1
1
1
1
1
1
1
1
1
1
1
1
1
1
1
1
1
1
1
1
1
1
1
1
1
1
1
1
1
1
1
1
1
1
1
1
1
1
1
1
1
1
1
1
1
1
1
1
1
1
1
1
1
1
1
1
1
1
1
1
1
1
1
1.64058
2.60872
2.71481
2.71582
2.71753
2.71875
2.7199
2.72103
2.72224
2.72339
2.72431
2.72498
2.72513
2.72518
2.72563
2.72746
2.73154
2.73726
2.74332
2.7478
2.74978
2.75006
2.74989
2.7497
2.75001
2.75142
2.75454
2.75959
2.76615
2.77306
2.77864
2.78178
2.7821
2.7812
2.77934
2.77673
2.77417
2.77277
2.77303
2.77441
2.77728
2.78134
2.78524
2.78862
2.79101
2.79297
2.7948
2.79678
2.7987
2.80005
2.80064
2.80066
2.80056
2.80086
2.80216
2.80461
2.80771
2.81095
2.81345
2.81492
2.81559
2.81592
2.81638
2.81729
2.8188
2.82075
2.8227
2.82421
2.82524
2.82606
2.82711
2.82878
2.83103
2.83365
2.83629
2.8388
2.84118
2.84345
2.84575
2.84801
2.8502
2.85268
2.85654
2.8638
2.87684
2.89676
2.92091
2.94268
2.95578
2.95991
1
1
1
1
1
1
1
1
1
1
1
1
1
1
1
1
1
1
1
1
1
1
1
1
1
1
1
1
1
1
1
1
1
1
1
1
1
1
1
1
1
1
1
1
1
1
1
1
1
1
1
1
1
1
1
1
1
1
1
1
1
1
1
1
1
1
1
1
1
1
1
1
1
1
1
1
1
1
1
1
1
1
1
1
1
1
1
1
1
1
1
1
1
1
1
1
1
1
1
1
1
1
1.60178
2.59731
2.71438
2.71453
2.716
2.71738
2.71884
2.72023
2.72151
2.72242
2.72307
2.72331
2.72347
2.72383
2.7248
2.72716
2.73156
2.73731
2.74332
2.74774
2.74975
2.75014
2.75003
2.74991
2.75021
2.75152
2.75455
2.75952
2.76596
2.77271
2.77814
2.78106
2.78119
2.78026
2.77831
2.77566
2.77316
2.77191
2.77221
2.77366
2.77665
2.78095
2.78515
2.78878
2.79126
2.79314
2.79478
2.79657
2.7983
2.79953
2.80011
2.80021
2.8002
2.80059
2.80192
2.80433
2.80737
2.81058
2.81303
2.8145
2.81519
2.81553
2.81599
2.81688
2.81836
2.8203
2.82229
2.8239
2.82499
2.8258
2.82674
2.82828
2.83051
2.83322
2.83602
2.83867
2.84102
2.84311
2.84524
2.84746
2.84978
2.85249
2.85652
2.86382
2.87676
2.89652
2.92056
2.9423
2.95545
2.95969
1
1
1
1
1
1
1
1
1
1
1
1
1
1
1
1
1
1
1
1
1
1
1
1
1
1
1
1
1
1
1
1
1
1
1
1
1
1
1
1
1
1
1
1
1
1
1
1
1
1
1
1
1
1
1
1
1
1
1
1
1
1
1
1
1
1
1
1
1
1
1
1
1
1
1
1
1
1
1
1
1
1
1
1
1
1
1
1
1
1
1
1
1
1
1
1
1
1
1
1
1
1
1.55983
2.58437
2.71205
2.71254
2.71429
2.71607
2.71789
2.71939
2.72043
2.72109
2.72146
2.72154
2.72194
2.7227
2.72417
2.72706
2.73167
2.73741
2.74323
2.7475
2.74956
2.75003
2.74999
2.74997
2.75035
2.75171
2.75471
2.75957
2.76582
2.7723
2.77744
2.78015
2.78023
2.77932
2.77731
2.77458
2.77207
2.77091
2.77127
2.77284
2.77605
2.78063
2.78513
2.78899
2.79153
2.79331
2.79476
2.79634
2.7979
2.79901
2.79955
2.79968
2.79974
2.80025
2.80165
2.80404
2.80702
2.81013
2.81249
2.81393
2.81466
2.81509
2.81562
2.81654
2.81796
2.81983
2.82179
2.82347
2.82469
2.82559
2.82652
2.82794
2.83006
2.83273
2.83561
2.83835
2.84069
2.84269
2.8447
2.84688
2.84932
2.85225
2.85649
2.86386
2.87673
2.89633
2.92023
2.94191
2.95508
2.95946
1
1
1
1
1
1
1
1
1
1
1
1
1
1
1
1
1
1
1
1
1
1
1
1
1
1
1
1
1
1
1
1
1
1
1
1
1
1
1
1
1
1
1
1
1
1
1
1
1
1
1
1
1
1
1
1
1
1
1
1
1
1
1
1
1
1
1
1
1
1
1
1
1
1
1
1
1
1
1
1
1
1
1
1
1
1
1
1
1
1
1
1
1
1
1
1
1
1
1
1
1
1
1.51335
2.56808
2.70862
2.71046
2.71291
2.71494
2.71683
2.71808
2.7188
2.71938
2.71964
2.72017
2.72097
2.72202
2.72383
2.72709
2.73184
2.73746
2.74301
2.74709
2.74924
2.74985
2.74983
2.74988
2.75038
2.75188
2.75493
2.75969
2.76569
2.77183
2.7766
2.77905
2.77912
2.77829
2.77628
2.77352
2.77098
2.76988
2.77029
2.77202
2.77552
2.78043
2.78521
2.78923
2.79177
2.79342
2.79466
2.79606
2.79746
2.79847
2.79896
2.79909
2.7992
2.79982
2.80129
2.80368
2.80663
2.80962
2.81185
2.81326
2.81403
2.81458
2.81523
2.8162
2.81758
2.81936
2.82125
2.82296
2.82433
2.8254
2.82641
2.82772
2.82965
2.83219
2.83502
2.83779
2.84019
2.84221
2.8442
2.84635
2.84886
2.85194
2.85635
2.86383
2.87669
2.89619
2.91996
2.94156
2.95471
2.95918
1
1
1
1
1
1
1
1
1
1
1
1
1
1
1
1
1
1
1
1
1
1
1
1
1
1
1
1
1
1
1
1
1
1
1
1
1
1
1
1
1
1
1
1
1
1
1
1
1
1
1
1
1
1
1
1
1
1
1
1
1
1
1
1
1
1
1
1
1
1
1
1
1
1
1
1
1
1
1
1
1
1
1
1
1
1
1
1
1
1
1
1
1
1
1
1
1
1
1
1
1
1
1.46006
2.54776
2.7063
2.70851
2.7115
2.71359
2.71532
2.71622
2.71688
2.7174
2.71831
2.71948
2.72068
2.72209
2.72417
2.72758
2.73217
2.73741
2.7426
2.74647
2.74872
2.74955
2.74966
2.74977
2.75036
2.752
2.75512
2.75979
2.76554
2.77131
2.77569
2.77785
2.77791
2.77715
2.77517
2.77242
2.76991
2.76884
2.7693
2.77122
2.77506
2.78031
2.78536
2.7895
2.79199
2.79344
2.79445
2.79565
2.79691
2.79786
2.79836
2.79851
2.79863
2.79929
2.80081
2.80318
2.80615
2.80906
2.81122
2.81262
2.81339
2.814
2.81474
2.81578
2.81716
2.81886
2.82068
2.82243
2.82394
2.82522
2.82637
2.82761
2.82929
2.83158
2.83427
2.83701
2.83952
2.8417
2.84374
2.84589
2.8484
2.85154
2.85607
2.86366
2.87658
2.89605
2.91974
2.94125
2.95433
2.95884
1
1
1
1
1
1
1
1
1
1
1
1
1
1
1
1
1
1
1
1
1
1
1
1
1
1
1
1
1
1
1
1
1
1
1
1
1
1
1
1
1
1
1
1
1
1
1
1
1
1
1
1
1
1
1
1
1
1
1
1
1
1
1
1
1
1
1
1
1
1
1
1
1
1
1
1
1
1
1
1
1
1
1
1
1
1
1
1
1
1
1
1
1
1
1
1
1
1
1
1
1
1
1.40145
2.52453
2.70514
2.70687
2.70992
2.71169
2.71304
2.71387
2.71459
2.71581
2.7175
2.71936
2.72108
2.72295
2.72537
2.72868
2.73272
2.73729
2.74192
2.74562
2.74807
2.74926
2.74967
2.74989
2.75053
2.75219
2.75526
2.75979
2.76528
2.77067
2.77467
2.77656
2.77659
2.77586
2.77396
2.77129
2.76887
2.76785
2.76835
2.77046
2.77465
2.78022
2.78555
2.78981
2.79223
2.79343
2.79413
2.79507
2.79617
2.79714
2.79774
2.79799
2.7981
2.79871
2.80017
2.80248
2.8055
2.80843
2.81064
2.8121
2.81283
2.8134
2.81413
2.81519
2.8166
2.8183
2.8201
2.8219
2.82357
2.82501
2.82628
2.82752
2.82897
2.83093
2.83339
2.83606
2.83871
2.84113
2.84329
2.84547
2.84793
2.85104
2.85561
2.86331
2.87633
2.89588
2.91957
2.94101
2.95398
2.95845
1
1
1
1
1
1
1
1
1
1
1
1
1
1
1
1
1
1
1
1
1
1
1
1
1
1
1
1
1
1
1
1
1
1
1
1
1
1
1
1
1
1
1
1
1
1
1
1
1
1
1
1
1
1
1
1
1
1
1
1
1
1
1
1
1
1
1
1
1
1
1
1
1
1
1
1
1
1
1
1
1
1
1
1
1
1
1
1
1
1
1
1
1
1
1
1
1
1
1
1
1
1
1.34028
2.49849
2.70454
2.70501
2.70764
2.70908
2.71027
2.71137
2.71274
2.71465
2.71721
2.71989
2.72244
2.72493
2.72755
2.73044
2.73358
2.73712
2.74096
2.74443
2.74714
2.74881
2.74963
2.75009
2.75082
2.75242
2.75533
2.75962
2.76478
2.76978
2.77349
2.77517
2.7752
2.77448
2.7727
2.7702
2.76795
2.76695
2.76746
2.76973
2.77422
2.78006
2.78569
2.79011
2.7925
2.7934
2.79371
2.7943
2.7952
2.79624
2.7971
2.79753
2.79765
2.79812
2.79939
2.80157
2.80467
2.80773
2.81011
2.81171
2.8124
2.81284
2.81343
2.81441
2.81584
2.8176
2.81948
2.82137
2.82316
2.82473
2.82612
2.82736
2.82865
2.83029
2.83245
2.83506
2.83779
2.84044
2.8428
2.84503
2.84744
2.85047
2.85502
2.86279
2.87596
2.89565
2.9194
2.94079
2.95364
2.95801
1
1
1
1
1
1
1
1
1
1
1
1
1
1
1
1
1
1
1
1
1
1
1
1
1
1
1
1
1
1
1
1
1
1
1
1
1
1
1
1
1
1
1
1
1
1
1
1
1
1
1
1
1
1
1
1
1
1
1
1
1
1
1
1
1
1
1
1
1
1
1
1
1
1
1
1
1
1
1
1
1
1
1
1
1
1
1
1
1
1
1
1
1
1
1
1
1
1
1
1
1
1
1.27746
2.4676
2.70315
2.70316
2.70541
2.7068
2.70804
2.70941
2.7113
2.71407
2.71758
2.7212
2.72458
2.72755
2.73011
2.73237
2.73452
2.73692
2.73986
2.74304
2.74598
2.74821
2.74959
2.7504
2.75125
2.75275
2.7554
2.75931
2.76402
2.7686
2.77206
2.77364
2.7737
2.77303
2.77145
2.76922
2.7672
2.7662
2.76668
2.769
2.77368
2.77976
2.78574
2.79035
2.79274
2.79333
2.79326
2.79343
2.79403
2.79519
2.79642
2.79713
2.79729
2.79757
2.79855
2.80048
2.80367
2.80693
2.80963
2.81143
2.81213
2.81238
2.81271
2.81349
2.81486
2.81673
2.81878
2.82081
2.8227
2.82436
2.82584
2.8271
2.82826
2.82971
2.83162
2.83405
2.8368
2.8396
2.84217
2.84446
2.84685
2.84982
2.85435
2.86216
2.87547
2.89532
2.91917
2.94054
2.95332
2.95755
1
1
1
1
1
1
1
1
1
1
1
1
1
1
1
1
1
1
1
1
1
1
1
1
1
1
1
1
1
1
1
1
1
1
1
1
1
1
1
1
1
1
1
1
1
1
1
1
1
1
1
1
1
1
1
1
1
1
1
1
1
1
1
1
1
1
1
1
1
1
1
1
1
1
1
1
1
1
1
1
1
1
1
1
1
1
1
1
1
1
1
1
1
1
1
1
1
1
1
1
1
1
1.20938
2.42715
2.70108
2.70186
2.70405
2.70563
2.70689
2.70821
2.7104
2.71383
2.71822
2.72293
2.72717
2.73043
2.73269
2.73422
2.73543
2.73681
2.73884
2.7416
2.74466
2.7474
2.74938
2.7506
2.75162
2.75305
2.7554
2.75885
2.76301
2.76714
2.77039
2.77198
2.77208
2.77153
2.77021
2.76836
2.76663
2.76567
2.76606
2.76833
2.77304
2.77929
2.78564
2.79048
2.7929
2.79321
2.79279
2.79246
2.79281
2.79406
2.79568
2.79673
2.79697
2.79709
2.79773
2.79937
2.80255
2.80603
2.80913
2.81112
2.8119
2.81198
2.81203
2.81252
2.81376
2.81571
2.81796
2.82015
2.82213
2.82383
2.82535
2.82665
2.82782
2.82921
2.83095
2.83317
2.83582
2.83863
2.8413
2.84369
2.84614
2.84911
2.85364
2.86151
2.87492
2.8949
2.91884
2.94024
2.95299
2.95711
1
1
1
1
1
1
1
1
1
1
1
1
1
1
1
1
1
1
1
1
1
1
1
1
1
1
1
1
1
1
1
1
1
1
1
1
1
1
1
1
1
1
1
1
1
1
1
1
1
1
1
1
1
1
1
1
1
1
1
1
1
1
1
1
1
1
1
1
1
1
1
1
1
1
1
1
1
1
1
1
1
1
1
1
1
1
1
1
1
1
1
1
1
1
1
1
1
1
1
1
1
1
1.13276
2.37838
2.70104
2.70212
2.70448
2.7058
2.7067
2.70774
2.70978
2.71348
2.71851
2.72407
2.72909
2.73271
2.7348
2.73577
2.73626
2.73687
2.73813
2.74037
2.74337
2.74646
2.74896
2.75062
2.75183
2.75322
2.75529
2.75825
2.76181
2.76544
2.76848
2.77013
2.77032
2.76996
2.769
2.76761
2.7662
2.76534
2.76563
2.76774
2.77237
2.77872
2.78533
2.79047
2.79291
2.79302
2.79223
2.79147
2.79163
2.79294
2.79488
2.79624
2.79662
2.79665
2.79701
2.79843
2.80147
2.80505
2.80848
2.81066
2.81158
2.81156
2.81139
2.81161
2.81265
2.81461
2.817
2.81934
2.82139
2.8231
2.82461
2.82601
2.82734
2.82877
2.83047
2.8325
2.8349
2.83755
2.84017
2.84266
2.84523
2.84832
2.85293
2.86085
2.87432
2.89436
2.91837
2.93984
2.95263
2.95667
1
1
1
1
1
1
1
1
1
1
1
1
1
1
1
1
1
1
1
1
1
1
1
1
1
1
1
1
1
1
1
1
1
1
1
1
1
1
1
1
1
1
1
1
1
1
1
1
1
1
1
1
1
1
1
1
1
1
1
1
1
1
1
1
1
1
1
1
1
1
1
1
1
1
1
1
1
1
1
1
1
1
1
1
1
1
1
1
1
1
1
1
1
1
1
1
1
1
1
1
1
1
1.03792
2.32269
2.70359
2.70454
2.70559
2.7065
2.70681
2.70737
2.70912
2.71284
2.71829
2.72445
2.73
2.73399
2.73616
2.73687
2.73696
2.7371
2.73779
2.7395
2.74224
2.74541
2.74824
2.75028
2.75167
2.75304
2.75487
2.75738
2.7604
2.76357
2.76639
2.76813
2.76854
2.76841
2.76787
2.76692
2.76581
2.7651
2.76533
2.76728
2.77178
2.77818
2.78495
2.79025
2.79275
2.79271
2.79159
2.7905
2.7906
2.79194
2.79402
2.7956
2.79613
2.79617
2.79642
2.79772
2.80057
2.80412
2.80761
2.80995
2.811
2.81102
2.81077
2.81081
2.81164
2.81353
2.81597
2.81838
2.82045
2.82214
2.82365
2.82517
2.82677
2.82839
2.83011
2.83199
2.83408
2.83639
2.83886
2.84142
2.84415
2.84742
2.8522
2.86021
2.8737
2.89374
2.91779
2.93932
2.95221
2.95624
1
1
1
1
1
1
1
1
1
1
1
1
1
1
1
1
1
1
1
1
1
1
1
1
1
1
1
1
1
1
1
1
1
1
1
1
1
1
1
1
1
1
1
1
1
1
1
1
1
1
1
1
1
1
1
1
1
1
1
1
1
1
1
1
1
1
1
1
1
1
1
1
1
1
1
1
1
1
1
1
1
1
1
1
1
1
1
1
1
1
1
1
1
1
1
1
1
1
1
1
1
1
1.00079
2.26257
2.70478
2.70621
2.7066
2.70743
2.70736
2.70748
2.70865
2.71195
2.71745
2.72394
2.72986
2.73426
2.73669
2.7375
2.73749
2.7374
2.73769
2.73889
2.74123
2.74424
2.74717
2.74944
2.75104
2.75238
2.75402
2.7562
2.7588
2.7616
2.76427
2.76612
2.7669
2.76702
2.76687
2.76629
2.76543
2.76485
2.76507
2.76694
2.77136
2.77778
2.78459
2.78988
2.79232
2.79214
2.79077
2.7896
2.78974
2.7911
2.79314
2.79478
2.79544
2.79559
2.79594
2.79723
2.79997
2.80334
2.8066
2.80897
2.8101
2.81026
2.81005
2.81007
2.8108
2.81255
2.81492
2.81728
2.8193
2.82098
2.82252
2.82418
2.82609
2.82801
2.82977
2.83154
2.83333
2.83526
2.83748
2.84002
2.84291
2.84643
2.85142
2.85955
2.87303
2.89304
2.91709
2.9387
2.95171
2.95576
1
1
1
1
1
1
1
1
1
1
1
1
1
1
1
1
1
1
1
1
1
1
1
1
1
1
1
1
1
1
1
1
1
1
1
1
1
1
1
1
1
1
1
1
1
1
1
1
1
1
1
1
1
1
1
1
1
1
1
1
1
1
1
1
1
1
1
1
1
1
1
1
1
1
1
1
1
1
1
1
1
1
1
1
1
1
1
1
1
1
1
1
1
1
1
1
1
1
1
1
1
1
1
2.19362
2.70693
2.70825
2.70772
2.70828
2.7079
2.70746
2.70814
2.7108
2.71599
2.72261
2.72905
2.73397
2.73676
2.73778
2.73778
2.73757
2.73762
2.73836
2.74021
2.7429
2.74573
2.74804
2.74974
2.75109
2.75266
2.75466
2.757
2.75955
2.76216
2.76418
2.76548
2.766
2.76608
2.76576
2.76503
2.7645
2.76472
2.76661
2.77107
2.77752
2.78427
2.7894
2.79165
2.79131
2.78983
2.78884
2.78909
2.7904
2.79222
2.79378
2.7945
2.79486
2.79554
2.79697
2.79968
2.80276
2.80553
2.80777
2.80888
2.80923
2.80918
2.80934
2.8101
2.81172
2.81389
2.81609
2.81801
2.81966
2.82129
2.82313
2.82527
2.82747
2.82937
2.83102
2.83256
2.83418
2.83613
2.83858
2.84158
2.84533
2.85054
2.85879
2.87229
2.89227
2.91633
2.938
2.95112
2.95521
1
1
1
1
1
1
1
1
1
1
1
1
1
1
1
1
1
1
1
1
1
1
1
1
1
1
1
1
1
1
1
1
1
1
1
1
1
1
1
1
1
1
1
1
1
1
1
1
1
1
1
1
1
1
1
1
1
1
1
1
1
1
1
1
1
1
1
1
1
1
1
1
1
1
1
1
1
1
1
1
1
1
1
1
1
1
1
1
1
1
1
1
1
1
1
1
1
1
1
1
1
1
1
2.11583
2.70413
2.7099
2.70876
2.70883
2.70812
2.70731
2.70765
2.70966
2.71422
2.72066
2.72744
2.733
2.73639
2.73774
2.7378
2.73754
2.73735
2.73771
2.73905
2.74133
2.74389
2.74614
2.74785
2.7493
2.75089
2.75281
2.75499
2.75743
2.76007
2.76243
2.76434
2.76536
2.76564
2.76542
2.76469
2.76407
2.76428
2.76625
2.77085
2.77734
2.78396
2.78881
2.79076
2.79027
2.78885
2.78821
2.78858
2.78975
2.79125
2.79261
2.79339
2.79398
2.7951
2.79686
2.79955
2.8023
2.80456
2.80645
2.80741
2.80791
2.80815
2.80857
2.80945
2.81095
2.81287
2.81485
2.81665
2.8183
2.82004
2.82205
2.82433
2.82672
2.82875
2.83031
2.8317
2.83313
2.8349
2.83723
2.84026
2.84416
2.84953
2.85789
2.87144
2.89143
2.91552
2.93723
2.95042
2.95452
1
1
1
1
1
1
1
1
1
1
1
1
1
1
1
1
1
1
1
1
1
1
1
1
1
1
1
1
1
1
1
1
1
1
1
1
1
1
1
1
1
1
1
1
1
1
1
1
1
1
1
1
1
1
1
1
1
1
1
1
1
1
1
1
1
1
1
1
1
1
1
1
1
1
1
1
1
1
1
1
1
1
1
1
1
1
1
1
1
1
1
1
1
1
1
1
1
1
1
1
1
1
1
2.03008
2.69439
2.71138
2.70982
2.70932
2.70819
2.70715
2.7073
2.70877
2.71252
2.71844
2.7253
2.73134
2.73536
2.73724
2.7375
2.73719
2.7368
2.73691
2.73783
2.73967
2.74188
2.74389
2.74555
2.74706
2.74869
2.75058
2.75273
2.75527
2.7581
2.76095
2.76346
2.76496
2.76542
2.76523
2.76441
2.76362
2.76379
2.76584
2.7706
2.77713
2.78355
2.78805
2.78973
2.78912
2.78794
2.78766
2.78809
2.78904
2.79017
2.7913
2.79213
2.79298
2.79456
2.79675
2.79939
2.80189
2.80372
2.80507
2.8059
2.80646
2.80696
2.80766
2.80873
2.81017
2.81182
2.81359
2.8153
2.81699
2.81886
2.82099
2.82331
2.82574
2.82781
2.82931
2.83069
2.83211
2.83382
2.83606
2.83902
2.84293
2.84837
2.85682
2.87045
2.89052
2.91466
2.93642
2.94962
2.95368
1
1
1
1
1
1
1
1
1
1
1
1
1
1
1
1
1
1
1
1
1
1
1
1
1
1
1
1
1
1
1
1
1
1
1
1
1
1
1
1
1
1
1
1
1
1
1
1
1
1
1
1
1
1
1
1
1
1
1
1
1
1
1
1
1
1
1
1
1
1
1
1
1
1
1
1
1
1
1
1
1
1
1
1
1
1
1
1
1
1
1
1
1
1
1
1
1
1
1
1
1
1
1
1.93764
2.67726
2.71216
2.71053
2.70979
2.70849
2.70731
2.70723
2.70819
2.71108
2.71621
2.72289
2.72917
2.73357
2.73586
2.73643
2.7362
2.73581
2.73584
2.73652
2.73799
2.73977
2.74147
2.74303
2.74457
2.74625
2.74819
2.75044
2.75321
2.75639
2.75972
2.7628
2.76469
2.76534
2.76516
2.76422
2.76324
2.76337
2.76548
2.7703
2.7767
2.78283
2.78696
2.78847
2.78789
2.78709
2.78708
2.78749
2.78816
2.78893
2.78987
2.7908
2.7919
2.79393
2.79652
2.79912
2.80144
2.80292
2.80379
2.80452
2.80506
2.80568
2.80657
2.8078
2.80925
2.81072
2.81235
2.814
2.81576
2.81774
2.81996
2.82223
2.82452
2.82652
2.82806
2.82951
2.83106
2.83287
2.83507
2.83789
2.84167
2.84707
2.85557
2.86931
2.88951
2.91376
2.93555
2.94872
2.95271
1
1
1
1
1
1
1
1
1
1
1
1
1
1
1
1
1
1
1
1
1
1
1
1
1
1
1
1
1
1
1
1
1
1
1
1
1
1
1
1
1
1
1
1
1
1
1
1
1
1
1
1
1
1
1
1
1
1
1
1
1
1
1
1
1
1
1
1
1
1
1
1
1
1
1
1
1
1
1
1
1
1
1
1
1
1
1
1
1
1
1
1
1
1
1
1
1
1
1
1
1
1
1
1.83901
2.6548
2.71168
2.71054
2.71
2.70883
2.70757
2.70712
2.70774
2.70982
2.71409
2.72032
2.72654
2.73115
2.73365
2.73445
2.73439
2.73424
2.73438
2.73513
2.7364
2.73781
2.73919
2.74059
2.7421
2.74383
2.74585
2.74836
2.75148
2.75508
2.75887
2.76237
2.7645
2.76522
2.76501
2.76397
2.76291
2.76307
2.76525
2.76999
2.77611
2.78184
2.78565
2.78708
2.78673
2.78631
2.78642
2.78669
2.78706
2.78753
2.78834
2.78943
2.79081
2.79316
2.79602
2.79863
2.80084
2.80207
2.80261
2.80331
2.80381
2.80443
2.80538
2.80668
2.80816
2.80956
2.81112
2.81276
2.81459
2.81665
2.81889
2.82107
2.82314
2.825
2.82659
2.82818
2.82996
2.83197
2.8342
2.83686
2.84043
2.8457
2.85418
2.86802
2.88837
2.91276
2.9346
2.94773
2.95162
1
1
1
1
1
1
1
1
1
1
1
1
1
1
1
1
1
1
1
1
1
1
1
1
1
1
1
1
1
1
1
1
1
1
1
1
1
1
1
1
1
1
1
1
1
1
1
1
1
1
1
1
1
1
1
1
1
1
1
1
1
1
1
1
1
1
1
1
1
1
1
1
1
1
1
1
1
1
1
1
1
1
1
1
1
1
1
1
1
1
1
1
1
1
1
1
1
1
1
1
1
1
1
1.73491
2.62792
2.71008
2.70964
2.7094
2.70854
2.70735
2.70667
2.70701
2.70851
2.71208
2.71779
2.72374
2.72822
2.73077
2.73173
2.73194
2.73213
2.73268
2.73375
2.735
2.73612
2.73721
2.73844
2.73989
2.74165
2.74379
2.7466
2.75015
2.75424
2.75846
2.7622
2.7644
2.76508
2.76476
2.76365
2.76264
2.76291
2.76509
2.76959
2.77523
2.78047
2.78408
2.78559
2.7856
2.78549
2.78557
2.7856
2.78568
2.78596
2.78672
2.78804
2.78976
2.79229
2.79525
2.79792
2.80005
2.80113
2.80155
2.80223
2.80272
2.80327
2.80412
2.8054
2.80689
2.80831
2.80988
2.81154
2.81342
2.81551
2.81772
2.81981
2.82168
2.82339
2.82501
2.82675
2.82879
2.83103
2.83333
2.83586
2.8392
2.84429
2.8527
2.8666
2.88708
2.91162
2.93355
2.94665
2.95049
1
1
1
1
1
1
1
1
1
1
1
1
1
1
1
1
1
1
1
1
1
1
1
1
1
1
1
1
1
1
1
1
1
1
1
1
1
1
1
1
1
1
1
1
1
1
1
1
1
1
1
1
1
1
1
1
1
1
1
1
1
1
1
1
1
1
1
1
1
1
1
1
1
1
1
1
1
1
1
1
1
1
1
1
1
1
1
1
1
1
1
1
1
1
1
1
1
1
1
1
1
1
1
1.62361
2.59522
2.70727
2.70726
2.7077
2.7072
2.70631
2.70561
2.70583
2.7071
2.71042
2.71562
2.72101
2.7251
2.72749
2.72858
2.72915
2.72981
2.73094
2.73248
2.73383
2.73477
2.73565
2.73674
2.73813
2.73987
2.74213
2.74527
2.74933
2.75388
2.7584
2.76217
2.76427
2.76471
2.76424
2.76319
2.76241
2.76279
2.76489
2.76898
2.77403
2.77882
2.78234
2.78406
2.78448
2.78454
2.78449
2.78426
2.7841
2.78429
2.78509
2.7867
2.78878
2.79142
2.79434
2.79696
2.79896
2.80001
2.80051
2.80119
2.80169
2.80219
2.80293
2.80408
2.80555
2.80705
2.80865
2.81032
2.81219
2.81424
2.8164
2.81841
2.82018
2.82178
2.82343
2.8253
2.82754
2.82996
2.83234
2.83481
2.83799
2.8429
2.8512
2.86508
2.88564
2.91031
2.93236
2.94551
2.94934
1
1
1
1
1
1
1
1
1
1
1
1
1
1
1
1
1
1
1
1
1
1
1
1
1
1
1
1
1
1
1
1
1
1
1
1
1
1
1
1
1
1
1
1
1
1
1
1
1
1
1
1
1
1
1
1
1
1
1
1
1
1
1
1
1
1
1
1
1
1
1
1
1
1
1
1
1
1
1
1
1
1
1
1
1
1
1
1
1
1
1
1
1
1
1
1
1
1
1
1
1
1
1
1.50447
2.5548
2.70271
2.70386
2.70517
2.70491
2.70432
2.70389
2.70425
2.70573
2.70906
2.71384
2.71859
2.72212
2.72424
2.72543
2.72639
2.72767
2.7295
2.7315
2.73293
2.73373
2.73449
2.73549
2.73685
2.73859
2.74096
2.74443
2.749
2.75384
2.75847
2.76222
2.76408
2.76422
2.76364
2.76274
2.76225
2.76268
2.76453
2.76806
2.7725
2.77695
2.78049
2.78247
2.78324
2.78337
2.78315
2.78265
2.78232
2.78252
2.78347
2.78541
2.78786
2.79059
2.7934
2.79583
2.79766
2.79869
2.79938
2.80009
2.80066
2.80119
2.80182
2.80282
2.80424
2.80581
2.8074
2.80901
2.81083
2.81279
2.81487
2.81687
2.81865
2.82026
2.82193
2.82388
2.82621
2.82872
2.83117
2.83366
2.83677
2.84153
2.84969
2.86348
2.88404
2.90881
2.93103
2.9443
2.94819
1
1
1
1
1
1
1
1
1
1
1
1
1
1
1
1
1
1
1
1
1
1
1
1
1
1
1
1
1
1
1
1
1
1
1
1
1
1
1
1
1
1
1
1
1
1
1
1
1
1
1
1
1
1
1
1
1
1
1
1
1
1
1
1
1
1
1
1
1
1
1
1
1
1
1
1
1
1
1
1
1
1
1
1
1
1
1
1
1
1
1
1
1
1
1
1
1
1
1
1
1
1
1
1.37686
2.50434
2.69791
2.69909
2.70147
2.70216
2.7022
2.70223
2.70296
2.70489
2.70821
2.71243
2.71644
2.71942
2.72135
2.72274
2.7242
2.72622
2.72877
2.73108
2.73242
2.73303
2.73365
2.73457
2.73591
2.73768
2.74017
2.74393
2.74884
2.7538
2.75845
2.76205
2.76369
2.76364
2.76305
2.76236
2.76208
2.76246
2.76391
2.76676
2.77068
2.77491
2.77848
2.78079
2.78181
2.78192
2.78154
2.78078
2.78037
2.78066
2.78188
2.78422
2.78703
2.78987
2.79251
2.79465
2.7962
2.79717
2.79802
2.79879
2.79951
2.80015
2.80075
2.80166
2.80302
2.80458
2.80613
2.80765
2.80933
2.81116
2.81315
2.81518
2.81711
2.81885
2.82056
2.82252
2.82482
2.82731
2.82979
2.83237
2.8355
2.84017
2.84817
2.86179
2.88227
2.90712
2.92955
2.94301
2.94707
1
1
1
1
1
1
1
1
1
1
1
1
1
1
1
1
1
1
1
1
1
1
1
1
1
1
1
1
1
1
1
1
1
1
1
1
1
1
1
1
1
1
1
1
1
1
1
1
1
1
1
1
1
1
1
1
1
1
1
1
1
1
1
1
1
1
1
1
1
1
1
1
1
1
1
1
1
1
1
1
1
1
1
1
1
1
1
1
1
1
1
1
1
1
1
1
1
1
1
1
1
1
1
1.24581
2.4429
2.69624
2.6956
2.69847
2.70015
2.70098
2.70157
2.70272
2.70492
2.70815
2.71177
2.71493
2.71725
2.71903
2.72073
2.72285
2.72555
2.72851
2.73092
2.73215
2.73261
2.73312
2.73399
2.73535
2.73716
2.73975
2.74365
2.74872
2.75374
2.75835
2.76173
2.76317
2.76308
2.76257
2.76204
2.76179
2.76201
2.76299
2.76522
2.76869
2.77274
2.77636
2.77889
2.78005
2.78015
2.77965
2.77877
2.77837
2.7788
2.78037
2.7831
2.78623
2.7892
2.79166
2.79345
2.79467
2.79554
2.79642
2.79728
2.79819
2.79902
2.79968
2.8006
2.80192
2.80338
2.80485
2.80622
2.80768
2.80937
2.81127
2.81338
2.81554
2.8175
2.81928
2.8212
2.82337
2.82572
2.82821
2.83094
2.83416
2.83876
2.84658
2.85999
2.88034
2.90527
2.92795
2.94168
2.94596
1
1
1
1
1
1
1
1
1
1
1
1
1
1
1
1
1
1
1
1
1
1
1
1
1
1
1
1
1
1
1
1
1
1
1
1
1
1
1
1
1
1
1
1
1
1
1
1
1
1
1
1
1
1
1
1
1
1
1
1
1
1
1
1
1
1
1
1
1
1
1
1
1
1
1
1
1
1
1
1
1
1
1
1
1
1
1
1
1
1
1
1
1
1
1
1
1
1
1
1
1
1
1
1.11813
2.37574
2.69675
2.69505
2.69748
2.6991
2.70034
2.70151
2.70309
2.70545
2.70846
2.71148
2.7139
2.71582
2.71764
2.71981
2.72258
2.72582
2.72898
2.73128
2.73225
2.73248
2.73282
2.73358
2.73494
2.7368
2.73944
2.74338
2.74849
2.75356
2.75808
2.76129
2.76259
2.76252
2.7621
2.76156
2.76114
2.76112
2.76175
2.76358
2.76671
2.77054
2.77409
2.77667
2.77789
2.77807
2.77759
2.77676
2.77642
2.77703
2.77893
2.78199
2.7854
2.7885
2.79081
2.79228
2.79318
2.79388
2.79466
2.79557
2.79666
2.7977
2.79851
2.79953
2.80083
2.80215
2.80352
2.80473
2.80598
2.80752
2.80934
2.81153
2.81393
2.81614
2.818
2.81988
2.82186
2.82402
2.82649
2.82939
2.83272
2.83725
2.84488
2.85805
2.87825
2.90325
2.92622
2.94029
2.94485
1
1
1
1
1
1
1
1
1
1
1
1
1
1
1
1
1
1
1
1
1
1
1
1
1
1
1
1
1
1
1
1
1
1
1
1
1
1
1
1
1
1
1
1
1
1
1
1
1
1
1
1
1
1
1
1
1
1
1
1
1
1
1
1
1