/*--------------------------------*- C++ -*----------------------------------*\
  =========                 |
  \\      /  F ield         | OpenFOAM: The Open Source CFD Toolbox
   \\    /   O peration     | Website:  https://openfoam.org
    \\  /    A nd           | Version:  7
     \\/     M anipulation  |
\*---------------------------------------------------------------------------*/
FoamFile
{
    version     2.0;
    format      ascii;
    class       volScalarField;
    location    "2";
    object      p;
}
// * * * * * * * * * * * * * * * * * * * * * * * * * * * * * * * * * * * * * //

dimensions      [1 -1 -2 0 0 0 0];

internalField   nonuniform List<scalar> 
258048
(
1
1
1
1
1
1
1
1
1
1
1
1
1
1
1
1
1
1
1
1
1
1
1
1
1
1
1
1
1
1
1
1
1
1
1
1
1
1
1
1
1
1
1
1
1
1
1
1
1
1
1
1
1
1
1
1
1
1
1
1
1
1
1
1
1
1
1
1
1
1
1
1
1
1
1
1
1
1
1
1
1
1
1
1
1
1
1
1
1
1
1
1
1
1
1
1
1
1
1
1
3.0044
9.53788
10.4743
10.489
10.5323
10.5568
10.5698
10.5974
10.637
10.6776
10.7161
10.7474
10.7719
10.7919
10.8108
10.8312
10.8534
10.8785
10.9066
10.9388
10.9723
11.0034
11.0303
11.0542
11.0788
11.1049
11.1336
11.1639
11.1917
11.214
11.2316
11.2487
11.2703
11.2997
11.3353
11.3703
11.3966
11.4114
11.4166
11.4184
11.4261
11.4476
11.4832
11.5263
11.5659
11.5934
11.6089
11.6192
11.6341
11.6568
11.6821
11.7041
11.7178
11.7203
11.7154
11.7135
11.7221
11.7431
11.7708
11.7964
11.8164
11.8353
11.8592
11.8837
11.9084
11.9271
11.9353
11.9348
11.9336
11.9402
11.9563
11.9789
11.9986
12.0094
12.012
12.0112
12.0124
12.0148
12.0202
12.0238
12.0242
12.0262
12.0332
12.0471
12.0655
12.0827
12.0931
12.0958
12.0926
12.0876
12.0858
12.083
1
1
1
1
1
1
1
1
1
1
1
1
1
1
1
1
1
1
1
1
1
1
1
1
1
1
1
1
1
1
1
1
1
1
1
1
1
1
1
1
1
1
1
1
1
1
1
1
1
1
1
1
1
1
1
1
1
1
1
1
1
1
1
1
1
1
1
1
1
1
1
1
1
1
1
1
1
1
1
1
1
1
1
1
1
1
1
1
1
1
1
1
1
1
1
1
1
1
1
1
2.99022
9.51771
10.4753
10.4849
10.5308
10.5586
10.5774
10.6043
10.6405
10.6776
10.7128
10.7433
10.7694
10.7916
10.8121
10.8327
10.8543
10.8781
10.9053
10.9375
10.972
11.004
11.031
11.0541
11.0769
11.1009
11.1286
11.1598
11.1896
11.214
11.2336
11.252
11.2731
11.3003
11.3332
11.3668
11.3937
11.4101
11.4176
11.422
11.4308
11.4507
11.4833
11.5237
11.5625
11.5914
11.6095
11.6222
11.6372
11.6577
11.6801
11.7011
11.7159
11.7207
11.7184
11.7177
11.7257
11.7446
11.7701
11.7945
11.8145
11.8343
11.8587
11.8833
11.9074
11.9257
11.9337
11.9331
11.9314
11.9373
11.9534
11.9769
11.9985
12.0111
12.0146
12.0138
12.0136
12.0148
12.0191
12.0224
12.0228
12.0245
12.0311
12.0451
12.0642
12.0821
12.0929
12.096
12.0929
12.0875
12.0848
12.0818
1
1
1
1
1
1
1
1
1
1
1
1
1
1
1
1
1
1
1
1
1
1
1
1
1
1
1
1
1
1
1
1
1
1
1
1
1
1
1
1
1
1
1
1
1
1
1
1
1
1
1
1
1
1
1
1
1
1
1
1
1
1
1
1
1
1
1
1
1
1
1
1
1
1
1
1
1
1
1
1
1
1
1
1
1
1
1
1
1
1
1
1
1
1
1
1
1
1
1
1
2.9694
9.50678
10.4624
10.4757
10.5264
10.5559
10.5819
10.6116
10.6448
10.6778
10.7085
10.7374
10.7649
10.7899
10.8128
10.8341
10.8548
10.8771
10.9035
10.9359
10.9718
11.0053
11.0327
11.0549
11.0752
11.096
11.1217
11.1536
11.1854
11.2127
11.2351
11.2558
11.2769
11.3019
11.3316
11.3626
11.3886
11.4063
11.4167
11.4252
11.4365
11.4555
11.4848
11.5208
11.5565
11.5858
11.6073
11.624
11.6408
11.659
11.6771
11.6954
11.7103
11.7183
11.7203
11.7228
11.7311
11.7475
11.7694
11.7914
11.8115
11.8327
11.8582
11.8833
11.9065
11.9236
11.9309
11.9302
11.9283
11.9337
11.9495
11.9735
11.9969
12.0113
12.0166
12.0166
12.0157
12.0161
12.0185
12.0205
12.0206
12.0219
12.0283
12.0423
12.0619
12.0804
12.0917
12.0958
12.0935
12.0879
12.0837
12.08
1
1
1
1
1
1
1
1
1
1
1
1
1
1
1
1
1
1
1
1
1
1
1
1
1
1
1
1
1
1
1
1
1
1
1
1
1
1
1
1
1
1
1
1
1
1
1
1
1
1
1
1
1
1
1
1
1
1
1
1
1
1
1
1
1
1
1
1
1
1
1
1
1
1
1
1
1
1
1
1
1
1
1
1
1
1
1
1
1
1
1
1
1
1
1
1
1
1
1
1
2.92279
9.48375
10.4419
10.4648
10.5218
10.5571
10.5894
10.6199
10.6501
10.6777
10.7036
10.7312
10.7601
10.7882
10.8134
10.835
10.8541
10.8745
10.9002
10.9335
10.9714
11.0068
11.0348
11.0558
11.0733
11.0905
11.1136
11.1456
11.1796
11.2103
11.2363
11.259
11.2796
11.3021
11.3287
11.3574
11.3833
11.4032
11.418
11.4306
11.4435
11.4597
11.4842
11.5158
11.5494
11.5804
11.6068
11.6279
11.6451
11.6591
11.672
11.6876
11.7034
11.7162
11.7244
11.7309
11.7388
11.7512
11.7682
11.7873
11.8073
11.8306
11.8576
11.883
11.9046
11.9197
11.9262
11.926
11.9249
11.93
11.9453
11.9688
11.9936
12.011
12.0187
12.0198
12.0185
12.0177
12.0177
12.0178
12.0171
12.0182
12.0248
12.039
12.0592
12.0779
12.0895
12.0946
12.0933
12.0877
12.0823
12.0782
1
1
1
1
1
1
1
1
1
1
1
1
1
1
1
1
1
1
1
1
1
1
1
1
1
1
1
1
1
1
1
1
1
1
1
1
1
1
1
1
1
1
1
1
1
1
1
1
1
1
1
1
1
1
1
1
1
1
1
1
1
1
1
1
1
1
1
1
1
1
1
1
1
1
1
1
1
1
1
1
1
1
1
1
1
1
1
1
1
1
1
1
1
1
1
1
1
1
1
1
2.85739
9.4569
10.4252
10.4584
10.5165
10.5549
10.5909
10.6224
10.6509
10.6744
10.6974
10.7251
10.7562
10.7872
10.8142
10.8354
10.8526
10.8709
10.8962
10.9306
10.9706
11.008
11.0368
11.0569
11.0716
11.0858
11.106
11.1375
11.1729
11.2064
11.2354
11.2598
11.2799
11.3008
11.3252
11.3525
11.3788
11.4015
11.4206
11.4366
11.4492
11.4623
11.482
11.5097
11.5419
11.5754
11.6067
11.632
11.6482
11.6571
11.6652
11.6779
11.6952
11.7138
11.7293
11.74
11.7473
11.7552
11.7665
11.7821
11.8023
11.8279
11.8569
11.8827
11.9021
11.9144
11.9199
11.9209
11.9214
11.9271
11.9416
11.9637
11.9883
12.0086
12.0192
12.0221
12.0213
12.0192
12.017
12.0147
12.013
12.014
12.0212
12.0362
12.0565
12.0746
12.086
12.0918
12.0915
12.0865
12.0809
12.0769
1
1
1
1
1
1
1
1
1
1
1
1
1
1
1
1
1
1
1
1
1
1
1
1
1
1
1
1
1
1
1
1
1
1
1
1
1
1
1
1
1
1
1
1
1
1
1
1
1
1
1
1
1
1
1
1
1
1
1
1
1
1
1
1
1
1
1
1
1
1
1
1
1
1
1
1
1
1
1
1
1
1
1
1
1
1
1
1
1
1
1
1
1
1
1
1
1
1
1
1
2.77322
9.41144
10.4173
10.4543
10.5116
10.5528
10.5913
10.6233
10.6496
10.6703
10.6924
10.7212
10.7544
10.7871
10.8143
10.8344
10.8495
10.8662
10.8914
10.9272
10.9693
11.0087
11.0384
11.0576
11.07
11.0819
11.0998
11.1305
11.1669
11.202
11.2327
11.2577
11.2772
11.297
11.3209
11.3485
11.3762
11.4022
11.4246
11.4411
11.4516
11.4614
11.4776
11.5029
11.5356
11.5728
11.6079
11.6347
11.6486
11.6523
11.6565
11.6672
11.6871
11.7121
11.7343
11.7484
11.7551
11.7582
11.7638
11.7761
11.7966
11.8248
11.8563
11.8825
11.8992
11.9082
11.9126
11.9151
11.9181
11.925
11.939
11.9589
11.9816
12.0032
12.0174
12.023
12.0233
12.0202
12.0159
12.0112
12.0084
12.0098
12.0186
12.0347
12.0544
12.071
12.0814
12.0869
12.0875
12.0839
12.0795
12.0764
1
1
1
1
1
1
1
1
1
1
1
1
1
1
1
1
1
1
1
1
1
1
1
1
1
1
1
1
1
1
1
1
1
1
1
1
1
1
1
1
1
1
1
1
1
1
1
1
1
1
1
1
1
1
1
1
1
1
1
1
1
1
1
1
1
1
1
1
1
1
1
1
1
1
1
1
1
1
1
1
1
1
1
1
1
1
1
1
1
1
1
1
1
1
1
1
1
1
1
1
2.67193
9.34646
10.4158
10.452
10.5084
10.551
10.5898
10.6213
10.6464
10.6665
10.6889
10.7189
10.7536
10.7868
10.8135
10.8324
10.846
10.8617
10.8867
10.9236
10.9674
11.0086
11.0391
11.0577
11.0688
11.0788
11.095
11.1249
11.1617
11.1976
11.2289
11.2535
11.2722
11.2917
11.3164
11.3456
11.3757
11.4042
11.4271
11.4421
11.4502
11.4578
11.4722
11.4975
11.5322
11.572
11.608
11.6338
11.6451
11.6448
11.6465
11.6569
11.68
11.7105
11.7382
11.7552
11.7607
11.7593
11.7598
11.7694
11.7908
11.8217
11.8557
11.8823
11.8966
11.9022
11.9048
11.9087
11.915
11.9237
11.937
11.9544
11.9744
11.995
12.0123
12.0219
12.0236
12.0201
12.0137
12.0072
12.0038
12.0065
12.0174
12.0343
12.0526
12.0668
12.0756
12.0802
12.0814
12.0801
12.078
12.0765
1
1
1
1
1
1
1
1
1
1
1
1
1
1
1
1
1
1
1
1
1
1
1
1
1
1
1
1
1
1
1
1
1
1
1
1
1
1
1
1
1
1
1
1
1
1
1
1
1
1
1
1
1
1
1
1
1
1
1
1
1
1
1
1
1
1
1
1
1
1
1
1
1
1
1
1
1
1
1
1
1
1
1
1
1
1
1
1
1
1
1
1
1
1
1
1
1
1
1
1
2.55697
9.26203
10.4175
10.4524
10.5064
10.549
10.5865
10.6169
10.6413
10.6624
10.6864
10.718
10.7533
10.7864
10.8125
10.8303
10.8431
10.8579
10.8824
10.9193
10.9642
11.0071
11.0384
11.0568
11.0675
11.0764
11.0913
11.1204
11.1571
11.1934
11.2246
11.2483
11.2668
11.2867
11.3126
11.3438
11.3757
11.4046
11.4259
11.4389
11.445
11.4523
11.4681
11.4955
11.532
11.5716
11.6058
11.6289
11.6372
11.6353
11.6366
11.6487
11.6756
11.7101
11.7407
11.7586
11.7625
11.7573
11.7542
11.7623
11.785
11.8184
11.8547
11.8815
11.8938
11.8966
11.8976
11.9025
11.9116
11.9222
11.9347
11.95
11.9672
11.9862
12.0049
12.0178
12.0213
12.0175
12.0098
12.0026
11.9998
12.0049
12.0176
12.0347
12.0508
12.0621
12.0686
12.0719
12.0739
12.0752
12.076
12.0764
1
1
1
1
1
1
1
1
1
1
1
1
1
1
1
1
1
1
1
1
1
1
1
1
1
1
1
1
1
1
1
1
1
1
1
1
1
1
1
1
1
1
1
1
1
1
1
1
1
1
1
1
1
1
1
1
1
1
1
1
1
1
1
1
1
1
1
1
1
1
1
1
1
1
1
1
1
1
1
1
1
1
1
1
1
1
1
1
1
1
1
1
1
1
1
1
1
1
1
1
2.43101
9.15741
10.4219
10.4566
10.5053
10.5464
10.5824
10.6119
10.6363
10.6588
10.6847
10.7173
10.7526
10.785
10.8104
10.8278
10.8405
10.8553
10.8792
10.9148
10.9598
11.0038
11.0361
11.0547
11.0656
11.0745
11.0888
11.1168
11.1528
11.1892
11.2198
11.2432
11.2625
11.2834
11.3107
11.3428
11.3748
11.402
11.4206
11.4313
11.4374
11.4471
11.467
11.4969
11.5334
11.5702
11.6002
11.619
11.625
11.624
11.6276
11.6435
11.6734
11.7098
11.741
11.7578
11.7599
11.7523
11.7473
11.7553
11.7795
11.815
11.8526
11.8792
11.8903
11.8917
11.8921
11.8977
11.9082
11.9195
11.9311
11.9448
11.9602
11.978
11.997
12.0111
12.0157
12.0117
12.0037
11.9973
11.9966
12.0048
12.0197
12.0357
12.0484
12.0565
12.0605
12.0628
12.0658
12.0697
12.0733
12.0754
1
1
1
1
1
1
1
1
1
1
1
1
1
1
1
1
1
1
1
1
1
1
1
1
1
1
1
1
1
1
1
1
1
1
1
1
1
1
1
1
1
1
1
1
1
1
1
1
1
1
1
1
1
1
1
1
1
1
1
1
1
1
1
1
1
1
1
1
1
1
1
1
1
1
1
1
1
1
1
1
1
1
1
1
1
1
1
1
1
1
1
1
1
1
1
1
1
1
1
1
2.29808
9.03257
10.4291
10.4623
10.5048
10.5442
10.5785
10.6066
10.6311
10.655
10.6826
10.7158
10.751
10.7828
10.8078
10.8251
10.8382
10.854
10.877
10.9108
10.9553
10.9995
11.0317
11.0512
11.0632
11.0733
11.088
11.115
11.1498
11.1853
11.2151
11.2388
11.2597
11.2821
11.3104
11.342
11.3722
11.3962
11.4114
11.4211
11.4295
11.4441
11.4682
11.5002
11.5349
11.5669
11.5911
11.6055
11.6108
11.6133
11.6216
11.6419
11.6733
11.7088
11.7383
11.7534
11.7539
11.7453
11.7401
11.7491
11.7744
11.8108
11.8485
11.8745
11.8855
11.8873
11.8886
11.8947
11.905
11.9155
11.9257
11.938
11.9528
11.9706
11.9896
12.0037
12.0079
12.0031
11.9952
11.9908
11.9938
12.0058
12.0226
12.0366
12.0454
12.0501
12.0519
12.0541
12.0583
12.064
12.0694
12.0728
1
1
1
1
1
1
1
1
1
1
1
1
1
1
1
1
1
1
1
1
1
1
1
1
1
1
1
1
1
1
1
1
1
1
1
1
1
1
1
1
1
1
1
1
1
1
1
1
1
1
1
1
1
1
1
1
1
1
1
1
1
1
1
1
1
1
1
1
1
1
1
1
1
1
1
1
1
1
1
1
1
1
1
1
1
1
1
1
1
1
1
1
1
1
1
1
1
1
1
1
2.16216
8.89233
10.4344
10.4647
10.5058
10.5425
10.5743
10.6011
10.6257
10.6507
10.6796
10.7135
10.7485
10.7799
10.8044
10.8213
10.8353
10.8527
10.875
10.9083
10.952
10.9942
11.0257
11.0463
11.0605
11.073
11.0891
11.115
11.1476
11.1813
11.2102
11.2346
11.2576
11.2817
11.3103
11.3405
11.3677
11.3881
11.4011
11.4113
11.4235
11.443
11.4704
11.5027
11.5344
11.5606
11.579
11.5905
11.5973
11.605
11.6187
11.6421
11.6734
11.7069
11.7333
11.7461
11.7455
11.7377
11.7343
11.7446
11.7701
11.8056
11.8414
11.8667
11.879
11.8834
11.8871
11.8936
11.9023
11.9104
11.9186
11.9299
11.945
11.9639
11.9831
11.996
11.9983
11.9923
11.985
11.9832
11.991
12.0072
12.0248
12.0364
12.0415
12.0428
12.0433
12.046
12.0514
12.0583
12.0639
12.0677
1
1
1
1
1
1
1
1
1
1
1
1
1
1
1
1
1
1
1
1
1
1
1
1
1
1
1
1
1
1
1
1
1
1
1
1
1
1
1
1
1
1
1
1
1
1
1
1
1
1
1
1
1
1
1
1
1
1
1
1
1
1
1
1
1
1
1
1
1
1
1
1
1
1
1
1
1
1
1
1
1
1
1
1
1
1
1
1
1
1
1
1
1
1
1
1
1
1
1
1
2.02466
8.73556
10.437
10.4663
10.5055
10.5397
10.5694
10.5944
10.6181
10.6438
10.6746
10.7103
10.7457
10.7764
10.7997
10.8166
10.8326
10.8504
10.8738
10.9072
10.9487
10.9884
11.0192
11.041
11.0576
11.0729
11.0907
11.1156
11.1461
11.1776
11.2055
11.2309
11.2558
11.2811
11.3092
11.3372
11.3614
11.3795
11.3923
11.4043
11.4198
11.4424
11.4711
11.5021
11.53
11.5509
11.5656
11.5764
11.5868
11.6001
11.6181
11.643
11.6727
11.7029
11.7255
11.7362
11.7362
11.731
11.7306
11.7418
11.7662
11.7987
11.831
11.8554
11.8703
11.8791
11.8864
11.8933
11.8997
11.9047
11.9104
11.9207
11.9368
11.9573
11.977
11.9884
11.9882
11.9807
11.974
11.9751
11.9875
12.0077
12.0254
12.0349
12.0368
12.0353
12.0352
12.0388
12.0454
12.0525
12.0571
12.0603
1
1
1
1
1
1
1
1
1
1
1
1
1
1
1
1
1
1
1
1
1
1
1
1
1
1
1
1
1
1
1
1
1
1
1
1
1
1
1
1
1
1
1
1
1
1
1
1
1
1
1
1
1
1
1
1
1
1
1
1
1
1
1
1
1
1
1
1
1
1
1
1
1
1
1
1
1
1
1
1
1
1
1
1
1
1
1
1
1
1
1
1
1
1
1
1
1
1
1
1
1.8852
8.56192
10.4355
10.4636
10.5032
10.5362
10.5642
10.5872
10.6109
10.638
10.6694
10.705
10.7401
10.7705
10.7937
10.8122
10.8294
10.8479
10.8716
10.9047
10.9441
10.9822
11.0131
11.0367
11.0563
11.0741
11.0931
11.1165
11.1444
11.1733
11.2001
11.2262
11.2526
11.2784
11.3055
11.3316
11.3541
11.3721
11.3868
11.4011
11.4186
11.4417
11.4692
11.4973
11.5211
11.5388
11.5528
11.5654
11.5802
11.5979
11.6184
11.6428
11.6697
11.6959
11.7154
11.725
11.7269
11.7262
11.7288
11.7403
11.7624
11.7904
11.8184
11.842
11.86
11.8741
11.8853
11.893
11.8971
11.8988
11.902
11.9112
11.928
11.9501
11.9701
11.9801
11.9781
11.9696
11.9632
11.9667
11.9827
12.0055
12.0235
12.0315
12.0315
12.0283
12.0279
12.0325
12.0398
12.0464
12.0492
12.0514
1
1
1
1
1
1
1
1
1
1
1
1
1
1
1
1
1
1
1
1
1
1
1
1
1
1
1
1
1
1
1
1
1
1
1
1
1
1
1
1
1
1
1
1
1
1
1
1
1
1
1
1
1
1
1
1
1
1
1
1
1
1
1
1
1
1
1
1
1
1
1
1
1
1
1
1
1
1
1
1
1
1
1
1
1
1
1
1
1
1
1
1
1
1
1
1
1
1
1
1
1.74656
8.36398
10.43
10.4595
10.499
10.5308
10.5571
10.5798
10.6058
10.634
10.664
10.6976
10.7318
10.7622
10.7872
10.809
10.8275
10.8446
10.8672
10.8991
10.9373
10.9747
11.0067
11.033
11.0557
11.0755
11.0947
11.1164
11.1417
11.1682
11.1941
11.2208
11.2481
11.274
11.2998
11.3244
11.3467
11.3664
11.3841
11.4009
11.4191
11.4403
11.464
11.4879
11.5087
11.526
11.5421
11.5583
11.577
11.5974
11.6182
11.6406
11.6642
11.6866
11.7042
11.7143
11.7193
11.7231
11.7282
11.7392
11.7573
11.7807
11.8048
11.828
11.849
11.8676
11.882
11.8907
11.8933
11.8927
11.8943
11.9024
11.9194
11.9421
11.9617
11.9708
11.9685
11.9601
11.9541
11.959
11.9768
12.0002
12.0182
12.0263
12.0259
12.0221
12.0215
12.0263
12.0335
12.0391
12.0401
12.0413
1
1
1
1
1
1
1
1
1
1
1
1
1
1
1
1
1
1
1
1
1
1
1
1
1
1
1
1
1
1
1
1
1
1
1
1
1
1
1
1
1
1
1
1
1
1
1
1
1
1
1
1
1
1
1
1
1
1
1
1
1
1
1
1
1
1
1
1
1
1
1
1
1
1
1
1
1
1
1
1
1
1
1
1
1
1
1
1
1
1
1
1
1
1
1
1
1
1
1
1
1.61185
8.13744
10.4206
10.4538
10.4928
10.5238
10.5499
10.5746
10.6035
10.6316
10.6586
10.6889
10.7215
10.7527
10.781
10.8062
10.8258
10.8425
10.8632
10.8924
10.9286
10.9659
11
11.0297
11.0555
11.0768
11.0954
11.1151
11.1376
11.1617
11.1869
11.214
11.2421
11.2679
11.2926
11.3165
11.3396
11.3618
11.3825
11.4013
11.4189
11.4369
11.4561
11.4761
11.4957
11.5148
11.5345
11.5546
11.5758
11.5969
11.6162
11.6358
11.656
11.6758
11.6928
11.7048
11.7137
11.7211
11.7273
11.7366
11.7504
11.7696
11.7915
11.8153
11.8389
11.8601
11.876
11.8852
11.8876
11.8866
11.8878
11.8953
11.9115
11.9328
11.9512
11.9601
11.959
11.9521
11.9471
11.9525
11.9697
11.9918
12.0097
12.0188
12.0196
12.0163
12.0155
12.0196
12.026
12.0306
12.0306
12.0312
1
1
1
1
1
1
1
1
1
1
1
1
1
1
1
1
1
1
1
1
1
1
1
1
1
1
1
1
1
1
1
1
1
1
1
1
1
1
1
1
1
1
1
1
1
1
1
1
1
1
1
1
1
1
1
1
1
1
1
1
1
1
1
1
1
1
1
1
1
1
1
1
1
1
1
1
1
1
1
1
1
1
1
1
1
1
1
1
1
1
1
1
1
1
1
1
1
1
1
1
1.48012
7.87564
10.4105
10.4486
10.4869
10.5174
10.5452
10.573
10.6031
10.6294
10.6538
10.6807
10.7111
10.7426
10.774
10.8021
10.8236
10.8407
10.8596
10.8862
10.9204
10.9575
10.9936
11.0264
11.0544
11.0763
11.094
11.1117
11.1317
11.154
11.1789
11.207
11.2359
11.262
11.2859
11.3093
11.3331
11.3572
11.38
11.3996
11.4159
11.4305
11.4461
11.4642
11.4846
11.5066
11.5298
11.5524
11.5747
11.5948
11.6119
11.6283
11.6459
11.6645
11.6824
11.6971
11.7095
11.719
11.7246
11.7311
11.7413
11.7579
11.7797
11.8052
11.8308
11.8521
11.8671
11.8762
11.8794
11.8801
11.8824
11.89
11.9044
11.9225
11.9386
11.9476
11.9489
11.9449
11.9419
11.9474
11.9623
11.9816
11.9989
12.0096
12.0125
12.0104
12.0094
12.0122
12.0172
12.0208
12.021
12.0215
1
1
1
1
1
1
1
1
1
1
1
1
1
1
1
1
1
1
1
1
1
1
1
1
1
1
1
1
1
1
1
1
1
1
1
1
1
1
1
1
1
1
1
1
1
1
1
1
1
1
1
1
1
1
1
1
1
1
1
1
1
1
1
1
1
1
1
1
1
1
1
1
1
1
1
1
1
1
1
1
1
1
1
1
1
1
1
1
1
1
1
1
1
1
1
1
1
1
1
1
1.34925
7.57232
10.3967
10.4466
10.4792
10.5101
10.5412
10.573
10.6033
10.6279
10.6504
10.6758
10.7051
10.7369
10.7693
10.7976
10.8194
10.8365
10.8546
10.88
10.9132
10.95
10.9874
11.0224
11.0517
11.0742
11.091
11.1069
11.1244
11.1453
11.1703
11.1995
11.2296
11.2564
11.2801
11.3031
11.327
11.3515
11.3747
11.3939
11.4086
11.4213
11.4358
11.4543
11.4766
11.5013
11.5265
11.5501
11.5718
11.5901
11.6046
11.6184
11.6343
11.6533
11.6732
11.6908
11.7055
11.7154
11.7192
11.7228
11.7306
11.7465
11.7702
11.798
11.8242
11.8434
11.8558
11.8637
11.8685
11.8728
11.878
11.8862
11.898
11.9114
11.9243
11.9334
11.9375
11.9377
11.9379
11.9434
11.9552
11.9709
11.9867
11.9986
12.0039
12.0036
12.0024
12.0036
12.007
12.0102
12.0115
12.0123
1
1
1
1
1
1
1
1
1
1
1
1
1
1
1
1
1
1
1
1
1
1
1
1
1
1
1
1
1
1
1
1
1
1
1
1
1
1
1
1
1
1
1
1
1
1
1
1
1
1
1
1
1
1
1
1
1
1
1
1
1
1
1
1
1
1
1
1
1
1
1
1
1
1
1
1
1
1
1
1
1
1
1
1
1
1
1
1
1
1
1
1
1
1
1
1
1
1
1
1
1.21557
7.24148
10.3863
10.4489
10.4757
10.5078
10.5412
10.5757
10.6058
10.6282
10.6484
10.6722
10.7003
10.7312
10.7622
10.7888
10.8098
10.8278
10.8479
10.8749
10.9088
10.9454
10.9828
11.018
11.0469
11.0694
11.0855
11.0999
11.116
11.136
11.1614
11.1916
11.223
11.2509
11.2748
11.2974
11.3205
11.344
11.3661
11.3842
11.3981
11.411
11.4267
11.4471
11.4717
11.4981
11.5238
11.5467
11.5666
11.5823
11.5945
11.6069
11.6227
11.6433
11.6654
11.6852
11.7003
11.7089
11.7105
11.7121
11.7194
11.7366
11.7632
11.7931
11.8182
11.8338
11.8431
11.8495
11.8563
11.8649
11.8741
11.8833
11.8917
11.8999
11.9087
11.9176
11.9249
11.93
11.9343
11.9401
11.9488
11.9606
11.9742
11.9862
11.9934
11.9949
11.9938
11.9938
11.9959
11.999
12.0019
12.0032
1
1
1
1
1
1
1
1
1
1
1
1
1
1
1
1
1
1
1
1
1
1
1
1
1
1
1
1
1
1
1
1
1
1
1
1
1
1
1
1
1
1
1
1
1
1
1
1
1
1
1
1
1
1
1
1
1
1
1
1
1
1
1
1
1
1
1
1
1
1
1
1
1
1
1
1
1
1
1
1
1
1
1
1
1
1
1
1
1
1
1
1
1
1
1
1
1
1
1
1
1.06235
6.86068
10.3982
10.4512
10.4737
10.5058
10.5377
10.5695
10.5975
10.6211
10.6439
10.67
10.6992
10.7294
10.7579
10.7818
10.8013
10.82
10.8419
10.8709
10.9058
10.9419
10.9782
11.0121
11.0401
11.0625
11.079
11.0928
11.108
11.1274
11.1529
11.1835
11.2155
11.244
11.2684
11.2904
11.3124
11.3344
11.3549
11.372
11.3863
11.4009
11.419
11.4419
11.4682
11.4953
11.5203
11.5413
11.5581
11.5709
11.5818
11.5947
11.612
11.6343
11.6579
11.6783
11.6921
11.6986
11.6986
11.6998
11.7087
11.7284
11.7577
11.7884
11.8112
11.8231
11.8296
11.8351
11.8443
11.8571
11.8699
11.8795
11.8848
11.888
11.8927
11.901
11.9112
11.9215
11.9302
11.9366
11.9428
11.9511
11.9619
11.9729
11.9809
11.9837
11.9832
11.9827
11.9843
11.9878
11.9924
11.9941
1
1
1
1
1
1
1
1
1
1
1
1
1
1
1
1
1
1
1
1
1
1
1
1
1
1
1
1
1
1
1
1
1
1
1
1
1
1
1
1
1
1
1
1
1
1
1
1
1
1
1
1
1
1
1
1
1
1
1
1
1
1
1
1
1
1
1
1
1
1
1
1
1
1
1
1
1
1
1
1
1
1
1
1
1
1
1
1
1
1
1
1
1
1
1
1
1
1
1
1
1.00188
6.42287
10.3495
10.4346
10.4673
10.5019
10.5329
10.5629
10.5904
10.616
10.6418
10.6702
10.6998
10.7278
10.7523
10.7733
10.7921
10.8119
10.8356
10.8664
10.9024
10.9381
10.9728
11.0052
11.032
11.0544
11.0715
11.0855
11.1002
11.1191
11.1447
11.1751
11.2072
11.2359
11.2603
11.2818
11.3025
11.3232
11.343
11.3603
11.3757
11.3921
11.4122
11.4367
11.4642
11.4913
11.515
11.5331
11.5464
11.5569
11.568
11.5826
11.6023
11.6262
11.6498
11.6688
11.6803
11.6847
11.6847
11.6882
11.7003
11.7226
11.7531
11.7825
11.8023
11.8113
11.8159
11.8217
11.8335
11.8496
11.8644
11.8734
11.8756
11.8744
11.876
11.8843
11.8975
11.9127
11.9249
11.9319
11.9368
11.9425
11.9504
11.9595
11.9664
11.9698
11.9703
11.9704
11.9726
11.9768
11.9828
11.9846
1
1
1
1
1
1
1
1
1
1
1
1
1
1
1
1
1
1
1
1
1
1
1
1
1
1
1
1
1
1
1
1
1
1
1
1
1
1
1
1
1
1
1
1
1
1
1
1
1
1
1
1
1
1
1
1
1
1
1
1
1
1
1
1
1
1
1
1
1
1
1
1
1
1
1
1
1
1
1
1
1
1
1
1
1
1
1
1
1
1
1
1
1
1
1
1
1
1
1
1
1.00001
5.91705
10.2991
10.4276
10.4641
10.4979
10.5247
10.5524
10.5814
10.6115
10.6412
10.6716
10.7006
10.7258
10.7458
10.7644
10.7838
10.8053
10.8307
10.8624
10.8986
10.9335
10.9663
10.997
11.0229
11.0452
11.0631
11.0775
11.0922
11.1112
11.1371
11.1672
11.1983
11.226
11.2493
11.2694
11.2892
11.3101
11.3311
11.3502
11.3678
11.3857
11.4064
11.4311
11.4583
11.4846
11.5064
11.5217
11.5323
11.5419
11.5541
11.5712
11.5935
11.6181
11.6404
11.6565
11.665
11.6682
11.6703
11.6775
11.6935
11.7181
11.7479
11.7742
11.791
11.7983
11.8027
11.81
11.8242
11.8426
11.8578
11.8645
11.8635
11.8591
11.8594
11.8686
11.8845
11.9036
11.9182
11.9256
11.9299
11.9342
11.9399
11.9461
11.9505
11.9534
11.9551
11.957
11.9607
11.9661
11.9727
11.9746
1
1
1
1
1
1
1
1
1
1
1
1
1
1
1
1
1
1
1
1
1
1
1
1
1
1
1
1
1
1
1
1
1
1
1
1
1
1
1
1
1
1
1
1
1
1
1
1
1
1
1
1
1
1
1
1
1
1
1
1
1
1
1
1
1
1
1
1
1
1
1
1
1
1
1
1
1
1
1
1
1
1
1
1
1
1
1
1
1
1
1
1
1
1
1
1
1
1
1
1
1
5.39916
10.2263
10.4247
10.4628
10.4919
10.5136
10.5409
10.5733
10.608
10.6415
10.6722
10.6993
10.7209
10.7371
10.755
10.7765
10.7999
10.8268
10.8583
10.8935
10.9271
10.9582
10.9878
11.0137
11.0358
11.0542
11.0691
11.0835
11.1024
11.1287
11.1589
11.1895
11.2159
11.2373
11.2555
11.2745
11.2965
11.32
11.3422
11.3626
11.3817
11.4017
11.4246
11.4498
11.4742
11.494
11.5077
11.5174
11.5272
11.5409
11.56
11.5839
11.6084
11.6286
11.6416
11.6477
11.6507
11.6563
11.6682
11.6882
11.714
11.7414
11.7639
11.7778
11.7844
11.7902
11.8
11.8161
11.835
11.8487
11.8519
11.8478
11.8421
11.8433
11.8544
11.873
11.8943
11.9097
11.9169
11.9213
11.9251
11.9294
11.9326
11.9338
11.9353
11.9381
11.9425
11.9485
11.9553
11.9622
11.964
1
1
1
1
1
1
1
1
1
1
1
1
1
1
1
1
1
1
1
1
1
1
1
1
1
1
1
1
1
1
1
1
1
1
1
1
1
1
1
1
1
1
1
1
1
1
1
1
1
1
1
1
1
1
1
1
1
1
1
1
1
1
1
1
1
1
1
1
1
1
1
1
1
1
1
1
1
1
1
1
1
1
1
1
1
1
1
1
1
1
1
1
1
1
1
1
1
1
1
1
1
4.88613
10.118
10.4237
10.4586
10.4831
10.5027
10.5322
10.5682
10.6055
10.6406
10.6707
10.6956
10.715
10.7283
10.7462
10.7704
10.7958
10.8236
10.8545
10.888
10.9199
10.949
10.9777
11.0037
11.0257
11.0437
11.0583
11.0722
11.0914
11.119
11.1505
11.1813
11.2068
11.2259
11.2417
11.2594
11.2821
11.3085
11.3347
11.3585
11.379
11.3981
11.418
11.4393
11.4603
11.4785
11.4922
11.5029
11.5138
11.5284
11.5484
11.5726
11.5963
11.6147
11.6256
11.6308
11.6349
11.6437
11.6598
11.6825
11.7083
11.7327
11.7516
11.7631
11.7701
11.7783
11.7911
11.8085
11.8262
11.8368
11.836
11.8293
11.824
11.8279
11.8421
11.8633
11.885
11.8995
11.906
11.9105
11.9145
11.9181
11.9188
11.9169
11.9164
11.9201
11.927
11.9357
11.944
11.951
11.9528
1
1
1
1
1
1
1
1
1
1
1
1
1
1
1
1
1
1
1
1
1
1
1
1
1
1
1
1
1
1
1
1
1
1
1
1
1
1
1
1
1
1
1
1
1
1
1
1
1
1
1
1
1
1
1
1
1
1
1
1
1
1
1
1
1
1
1
1
1
1
1
1
1
1
1
1
1
1
1
1
1
1
1
1
1
1
1
1
1
1
1
1
1
1
1
1
1
1
1
1
1
4.38388
9.97289
10.4199
10.4485
10.4724
10.4952
10.5287
10.5666
10.6036
10.6373
10.6658
10.6894
10.708
10.7217
10.7403
10.7656
10.7923
10.8196
10.849
10.8799
10.9105
10.9388
10.9675
10.9941
11.0162
11.0328
11.0461
11.059
11.0783
11.1074
11.1408
11.1731
11.1988
11.2169
11.2308
11.2466
11.2686
11.2963
11.3257
11.3529
11.3751
11.3932
11.4094
11.4262
11.4437
11.4612
11.4768
11.4899
11.5021
11.5165
11.5355
11.5583
11.581
11.5986
11.6095
11.6157
11.6217
11.6328
11.6512
11.6751
11.7001
11.7221
11.7383
11.7483
11.7563
11.7672
11.7825
11.8
11.8151
11.8216
11.8172
11.8089
11.8053
11.8134
11.8314
11.8545
11.8753
11.8876
11.893
11.8975
11.902
11.9054
11.9044
11.9
11.8977
11.9017
11.9108
11.9219
11.9317
11.9387
11.941
1
1
1
1
1
1
1
1
1
1
1
1
1
1
1
1
1
1
1
1
1
1
1
1
1
1
1
1
1
1
1
1
1
1
1
1
1
1
1
1
1
1
1
1
1
1
1
1
1
1
1
1
1
1
1
1
1
1
1
1
1
1
1
1
1
1
1
1
1
1
1
1
1
1
1
1
1
1
1
1
1
1
1
1
1
1
1
1
1
1
1
1
1
1
1
1
1
1
1
1
1
3.88918
9.79201
10.4113
10.4346
10.4616
10.4902
10.5287
10.5671
10.6015
10.6321
10.6586
10.6818
10.7013
10.7174
10.7363
10.7615
10.7881
10.8139
10.8415
10.8706
10.9004
10.9288
10.9581
10.9851
11.0075
11.0222
11.0332
11.0452
11.0639
11.0942
11.1301
11.1651
11.1925
11.2108
11.2234
11.2365
11.2557
11.2824
11.3136
11.3441
11.3688
11.3866
11.4001
11.4127
11.4271
11.4446
11.4625
11.4785
11.4917
11.5049
11.5211
11.5412
11.5627
11.5812
11.5944
11.6034
11.6117
11.6237
11.6418
11.6647
11.6884
11.7089
11.7239
11.7339
11.7435
11.7563
11.7728
11.7894
11.8009
11.8035
11.7966
11.788
11.7871
11.7997
11.8213
11.8456
11.8649
11.8746
11.8785
11.8827
11.8874
11.8908
11.8891
11.8833
11.8798
11.8836
11.894
11.9068
11.9179
11.9252
11.928
1
1
1
1
1
1
1
1
1
1
1
1
1
1
1
1
1
1
1
1
1
1
1
1
1
1
1
1
1
1
1
1
1
1
1
1
1
1
1
1
1
1
1
1
1
1
1
1
1
1
1
1
1
1
1
1
1
1
1
1
1
1
1
1
1
1
1
1
1
1
1
1
1
1
1
1
1
1
1
1
1
1
1
1
1
1
1
1
1
1
1
1
1
1
1
1
1
1
1
1
1
3.39732
9.58496
10.3986
10.4178
10.4532
10.4889
10.5292
10.5656
10.5963
10.6239
10.6499
10.6743
10.6956
10.7142
10.7335
10.7575
10.7826
10.8066
10.8323
10.8602
10.8899
10.9193
10.9492
10.9767
10.9988
11.0122
11.0221
11.0328
11.0505
11.0803
11.1175
11.155
11.1854
11.2056
11.2183
11.2293
11.2451
11.2693
11.3001
11.3322
11.3592
11.3778
11.3899
11.3997
11.4118
11.4293
11.4491
11.4674
11.4815
11.4933
11.5061
11.5228
11.543
11.5632
11.5803
11.5932
11.6037
11.6155
11.6314
11.6515
11.6735
11.6936
11.7091
11.7206
11.7318
11.7453
11.7611
11.7756
11.7837
11.7833
11.7752
11.7676
11.7698
11.7861
11.8106
11.8355
11.853
11.8608
11.8633
11.8667
11.8712
11.8745
11.8727
11.8667
11.8626
11.866
11.8768
11.8906
11.9025
11.9101
11.9136
1
1
1
1
1
1
1
1
1
1
1
1
1
1
1
1
1
1
1
1
1
1
1
1
1
1
1
1
1
1
1
1
1
1
1
1
1
1
1
1
1
1
1
1
1
1
1
1
1
1
1
1
1
1
1
1
1
1
1
1
1
1
1
1
1
1
1
1
1
1
1
1
1
1
1
1
1
1
1
1
1
1
1
1
1
1
1
1
1
1
1
1
1
1
1
1
1
1
1
1
1
2.90892
9.34267
10.3911
10.4088
10.4493
10.4875
10.5275
10.5608
10.5878
10.6138
10.64
10.6661
10.69
10.7114
10.7311
10.7534
10.7765
10.7987
10.8227
10.8498
10.8796
10.9099
10.9403
10.9683
10.9903
11.0037
11.0136
11.0229
11.0396
11.0678
11.1045
11.1433
11.1768
11.1999
11.2139
11.2237
11.2363
11.2566
11.2849
11.3171
11.3458
11.3663
11.379
11.3877
11.3986
11.4158
11.436
11.4555
11.4704
11.4813
11.4915
11.5052
11.5239
11.5456
11.5666
11.5836
11.5963
11.6072
11.62
11.6363
11.6561
11.6764
11.6939
11.7083
11.7206
11.7331
11.7465
11.7579
11.7634
11.7617
11.7541
11.7488
11.7536
11.7719
11.798
11.8231
11.8396
11.8463
11.848
11.8503
11.8538
11.8567
11.855
11.8495
11.8457
11.8488
11.8593
11.8733
11.8855
11.8935
11.8974
1
1
1
1
1
1
1
1
1
1
1
1
1
1
1
1
1
1
1
1
1
1
1
1
1
1
1
1
1
1
1
1
1
1
1
1
1
1
1
1
1
1
1
1
1
1
1
1
1
1
1
1
1
1
1
1
1
1
1
1
1
1
1
1
1
1
1
1
1
1
1
1
1
1
1
1
1
1
1
1
1
1
1
1
1
1
1
1
1
1
1
1
1
1
1
1
1
1
1
1
1
2.44879
9.03568
10.3947
10.4069
10.448
10.4844
10.521
10.5515
10.5773
10.6033
10.6307
10.6585
10.6849
10.7083
10.7283
10.7493
10.7701
10.791
10.8136
10.8396
10.8691
10.9
10.9305
10.9582
10.98
10.995
11.0066
11.0165
11.0321
11.0581
11.0927
11.1304
11.1651
11.191
11.2073
11.2175
11.2279
11.2448
11.2699
11.3004
11.3297
11.3524
11.3672
11.3766
11.3874
11.4036
11.4228
11.4422
11.4577
11.4686
11.4778
11.4898
11.5072
11.5292
11.5524
11.5726
11.5873
11.5975
11.6073
11.6198
11.6373
11.6581
11.6787
11.6961
11.7087
11.719
11.7288
11.7368
11.7408
11.7401
11.7346
11.732
11.7382
11.7567
11.7827
11.8078
11.8243
11.8312
11.8326
11.8335
11.8359
11.8378
11.8362
11.8316
11.8287
11.8318
11.8417
11.8552
11.8671
11.875
11.879
1
1
1
1
1
1
1
1
1
1
1
1
1
1
1
1
1
1
1
1
1
1
1
1
1
1
1
1
1
1
1
1
1
1
1
1
1
1
1
1
1
1
1
1
1
1
1
1
1
1
1
1
1
1
1
1
1
1
1
1
1
1
1
1
1
1
1
1
1
1
1
1
1
1
1
1
1
1
1
1
1
1
1
1
1
1
1
1
1
1
1
1
1
1
1
1
1
1
1
1
1
2.02803
8.65646
10.4088
10.4115
10.4489
10.4824
10.5145
10.5414
10.5662
10.5925
10.6212
10.6507
10.679
10.7035
10.7239
10.7441
10.7635
10.7839
10.8063
10.8316
10.8601
10.8902
10.9194
10.9457
10.9676
10.9851
10.9982
11.0106
11.0268
11.0509
11.0827
11.1175
11.1512
11.1782
11.1968
11.2088
11.2194
11.2345
11.2564
11.2842
11.3126
11.3363
11.3537
11.3653
11.377
11.392
11.4092
11.4272
11.443
11.4551
11.4654
11.4773
11.4937
11.5146
11.5378
11.5591
11.575
11.585
11.5928
11.6026
11.6181
11.6396
11.6632
11.683
11.6949
11.7022
11.708
11.7135
11.7176
11.7192
11.7173
11.7168
11.723
11.7402
11.7647
11.7897
11.8071
11.8152
11.8169
11.8167
11.8175
11.8182
11.8165
11.8128
11.811
11.8144
11.8238
11.8364
11.8474
11.8549
11.8583
1
1
1
1
1
1
1
1
1
1
1
1
1
1
1
1
1
1
1
1
1
1
1
1
1
1
1
1
1
1
1
1
1
1
1
1
1
1
1
1
1
1
1
1
1
1
1
1
1
1
1
1
1
1
1
1
1
1
1
1
1
1
1
1
1
1
1
1
1
1
1
1
1
1
1
1
1
1
1
1
1
1
1
1
1
1
1
1
1
1
1
1
1
1
1
1
1
1
1
1
1
1.66795
8.21439
10.4403
10.4143
10.4433
10.4721
10.5004
10.5275
10.5541
10.5814
10.6104
10.6405
10.6692
10.6942
10.7153
10.7355
10.7542
10.775
10.7985
10.8243
10.852
10.8805
10.9077
10.9321
10.9528
10.972
10.9889
11.0044
11.0216
11.0453
11.0749
11.106
11.1364
11.162
11.1813
11.1958
11.2087
11.2243
11.2443
11.2692
11.2953
11.3189
11.3382
11.3524
11.3657
11.3801
11.3951
11.4113
11.427
11.441
11.4537
11.4671
11.4829
11.5017
11.5227
11.5428
11.5587
11.5689
11.5762
11.5849
11.5996
11.6219
11.6474
11.6677
11.6781
11.6825
11.6851
11.6892
11.6949
11.6997
11.7014
11.7023
11.7076
11.7222
11.7445
11.7693
11.7881
11.7978
11.8002
11.7994
11.7988
11.7982
11.7962
11.7933
11.7924
11.7962
11.8051
11.8167
11.8265
11.8331
11.8355
1
1
1
1
1
1
1
1
1
1
1
1
1
1
1
1
1
1
1
1
1
1
1
1
1
1
1
1
1
1
1
1
1
1
1
1
1
1
1
1
1
1
1
1
1
1
1
1
1
1
1
1
1
1
1
1
1
1
1
1
1
1
1
1
1
1
1
1
1
1
1
1
1
1
1
1
1
1
1
1
1
1
1
1
1
1
1
1
1
1
1
1
1
1
1
1
1
1
1
1
1
1.37272
7.6819
10.4389
10.4104
10.4318
10.4593
10.4868
10.5163
10.546
10.5761
10.606
10.635
10.6619
10.6853
10.7059
10.7253
10.7433
10.7645
10.7899
10.8174
10.8453
10.8724
10.8971
10.9192
10.9385
10.9567
10.9758
10.9945
11.0141
11.0386
11.0671
11.0952
11.1214
11.1438
11.1622
11.1788
11.1954
11.2134
11.2333
11.2556
11.2789
11.3009
11.3209
11.3374
11.3526
11.3672
11.3806
11.395
11.4104
11.4263
11.4422
11.4577
11.4734
11.4899
11.5074
11.5245
11.539
11.5496
11.5578
11.5673
11.5823
11.6048
11.6301
11.6491
11.6576
11.6602
11.6612
11.6654
11.6734
11.6814
11.686
11.6875
11.6913
11.7029
11.7232
11.7476
11.7677
11.7788
11.7821
11.7811
11.7795
11.7779
11.7757
11.7732
11.7727
11.7766
11.7852
11.7959
11.8045
11.8099
11.8111
1
1
1
1
1
1
1
1
1
1
1
1
1
1
1
1
1
1
1
1
1
1
1
1
1
1
1
1
1
1
1
1
1
1
1
1
1
1
1
1
1
1
1
1
1
1
1
1
1
1
1
1
1
1
1
1
1
1
1
1
1
1
1
1
1
1
1
1
1
1
1
1
1
1
1
1
1
1
1
1
1
1
1
1
1
1
1
1
1
1
1
1
1
1
1
1
1
1
1
1
1
1.13478
7.13162
10.4149
10.396
10.4083
10.438
10.4682
10.5
10.5298
10.5595
10.5904
10.6217
10.6512
10.6763
10.6976
10.7155
10.7316
10.7502
10.7752
10.804
10.8333
10.8605
10.8852
10.9084
10.9278
10.9444
10.9618
10.9803
11.0015
11.0288
11.0586
11.0851
11.1075
11.1255
11.1412
11.1589
11.1792
11.2008
11.2218
11.2425
11.2631
11.2832
11.3031
11.3212
11.3384
11.3535
11.3662
11.3792
11.3941
11.4115
11.4301
11.4479
11.4637
11.4779
11.4915
11.5047
11.517