/*--------------------------------*- C++ -*----------------------------------*\
  =========                 |
  \\      /  F ield         | OpenFOAM: The Open Source CFD Toolbox
   \\    /   O peration     | Website:  https://openfoam.org
    \\  /    A nd           | Version:  7
     \\/     M anipulation  |
\*---------------------------------------------------------------------------*/
FoamFile
{
    version     2.0;
    format      ascii;
    class       volScalarField;
    location    "2";
    object      rho;
}
// * * * * * * * * * * * * * * * * * * * * * * * * * * * * * * * * * * * * * //

dimensions      [1 -3 0 0 0 0 0];

internalField   nonuniform List<scalar> 
258048
(
1.40001
1.40001
1.40001
1.40001
1.40001
1.40001
1.40001
1.40001
1.40001
1.40001
1.40001
1.40001
1.40001
1.40001
1.40001
1.40001
1.40001
1.40001
1.40001
1.40001
1.40001
1.40001
1.40001
1.40001
1.40001
1.40001
1.40001
1.40001
1.40001
1.40001
1.40001
1.40001
1.40001
1.40001
1.40001
1.40001
1.40001
1.40001
1.40001
1.40001
1.40001
1.40001
1.40001
1.40001
1.40001
1.40001
1.40001
1.40001
1.40001
1.40001
1.40001
1.40001
1.40001
1.40001
1.40001
1.40001
1.40001
1.40001
1.40001
1.40001
1.40001
1.40001
1.40001
1.40001
1.40001
1.40001
1.40001
1.40001
1.40001
1.40001
1.40001
1.40001
1.40001
1.40001
1.40001
1.40001
1.40001
1.40001
1.40001
1.40001
1.40001
1.40001
1.40001
1.40001
1.40001
1.40001
1.40001
1.40001
1.40001
1.40001
1.40001
1.40001
1.40001
1.40001
1.40001
1.40001
1.40001
1.40001
1.40001
1.40001
2.45483
5.11445
5.43672
5.43212
5.44204
5.44829
5.45243
5.46383
5.48141
5.49998
5.51781
5.53269
5.54426
5.55221
5.55691
5.56035
5.56538
5.57425
5.58668
5.60186
5.61834
5.63396
5.6471
5.65733
5.66517
5.67115
5.67719
5.68453
5.69298
5.70195
5.71081
5.71981
5.72991
5.74132
5.75269
5.76154
5.76581
5.76596
5.76457
5.76441
5.76826
5.77805
5.79268
5.80899
5.82255
5.83012
5.83246
5.83357
5.83793
5.84697
5.85836
5.86964
5.87863
5.88313
5.88417
5.88538
5.88885
5.89441
5.90048
5.90518
5.90807
5.91097
5.91637
5.92361
5.93261
5.94057
5.94513
5.94695
5.94823
5.9515
5.95711
5.96335
5.96768
5.96887
5.9676
5.96576
5.9653
5.96573
5.96702
5.96734
5.9662
5.96521
5.96561
5.96769
5.96961
5.96767
5.95762
5.93761
5.9114
5.88748
5.87372
5.86867
1.40001
1.40001
1.40001
1.40001
1.40001
1.40001
1.40001
1.40001
1.40001
1.40001
1.40001
1.40001
1.40001
1.40001
1.40001
1.40001
1.40001
1.40001
1.40001
1.40001
1.40001
1.40001
1.40001
1.40001
1.40001
1.40001
1.40001
1.40001
1.40001
1.40001
1.40001
1.40001
1.40001
1.40001
1.40001
1.40001
1.40001
1.40001
1.40001
1.40001
1.40001
1.40001
1.40001
1.40001
1.40001
1.40001
1.40001
1.40001
1.40001
1.40001
1.40001
1.40001
1.40001
1.40001
1.40001
1.40001
1.40001
1.40001
1.40001
1.40001
1.40001
1.40001
1.40001
1.40001
1.40001
1.40001
1.40001
1.40001
1.40001
1.40001
1.40001
1.40001
1.40001
1.40001
1.40001
1.40001
1.40001
1.40001
1.40001
1.40001
1.40001
1.40001
1.40001
1.40001
1.40001
1.40001
1.40001
1.40001
1.40001
1.40001
1.40001
1.40001
1.40001
1.40001
1.40001
1.40001
1.40001
1.40001
1.40001
1.40001
2.44743
5.10498
5.43659
5.4309
5.44188
5.44924
5.4554
5.46646
5.48268
5.49997
5.5166
5.53115
5.54335
5.55213
5.55738
5.56096
5.56578
5.57418
5.58628
5.60147
5.61828
5.63423
5.64742
5.65733
5.66454
5.66972
5.67535
5.68292
5.69207
5.70179
5.71137
5.72089
5.73083
5.74147
5.75194
5.76035
5.76481
5.76551
5.76484
5.76561
5.76995
5.77911
5.79271
5.80812
5.82139
5.82942
5.83266
5.83458
5.83902
5.84731
5.85766
5.86861
5.87801
5.88335
5.88531
5.88696
5.89016
5.89495
5.90023
5.90449
5.90741
5.91062
5.91621
5.92346
5.93225
5.94007
5.94458
5.94639
5.94747
5.95047
5.95608
5.96265
5.96763
5.96945
5.96853
5.96667
5.96575
5.96575
5.96666
5.96688
5.96573
5.9646
5.96487
5.967
5.96912
5.96741
5.95749
5.93764
5.91147
5.88741
5.87334
5.86825
1.40001
1.40001
1.40001
1.40001
1.40001
1.40001
1.40001
1.40001
1.40001
1.40001
1.40001
1.40001
1.40001
1.40001
1.40001
1.40001
1.40001
1.40001
1.40001
1.40001
1.40001
1.40001
1.40001
1.40001
1.40001
1.40001
1.40001
1.40001
1.40001
1.40001
1.40001
1.40001
1.40001
1.40001
1.40001
1.40001
1.40001
1.40001
1.40001
1.40001
1.40001
1.40001
1.40001
1.40001
1.40001
1.40001
1.40001
1.40001
1.40001
1.40001
1.40001
1.40001
1.40001
1.40001
1.40001
1.40001
1.40001
1.40001
1.40001
1.40001
1.40001
1.40001
1.40001
1.40001
1.40001
1.40001
1.40001
1.40001
1.40001
1.40001
1.40001
1.40001
1.40001
1.40001
1.40001
1.40001
1.40001
1.40001
1.40001
1.40001
1.40001
1.40001
1.40001
1.40001
1.40001
1.40001
1.40001
1.40001
1.40001
1.40001
1.40001
1.40001
1.40001
1.40001
1.40001
1.40001
1.40001
1.40001
1.40001
1.40001
2.43585
5.0974
5.43155
5.42792
5.44081
5.44884
5.45749
5.46938
5.48434
5.50006
5.51495
5.52899
5.54169
5.5515
5.55776
5.56173
5.56628
5.57409
5.58584
5.60112
5.61841
5.63484
5.64817
5.65777
5.66411
5.66809
5.67284
5.6804
5.69017
5.70086
5.7115
5.72191
5.73186
5.74187
5.75139
5.75898
5.76316
5.76423
5.76445
5.76658
5.77189
5.7807
5.79316
5.80714
5.81936
5.82745
5.83178
5.83503
5.8402
5.84779
5.85659
5.86666
5.87616
5.8826
5.88614
5.88893
5.89216
5.89597
5.89995
5.9034
5.90628
5.90999
5.91602
5.92342
5.93187
5.93927
5.94357
5.9454
5.94642
5.94918
5.9547
5.96142
5.96702
5.96945
5.96919
5.96767
5.96651
5.96619
5.96646
5.96626
5.96494
5.96364
5.96386
5.96602
5.96828
5.96671
5.95698
5.9375
5.91164
5.8875
5.87293
5.86758
1.40001
1.40001
1.40001
1.40001
1.40001
1.40001
1.40001
1.40001
1.40001
1.40001
1.40001
1.40001
1.40001
1.40001
1.40001
1.40001
1.40001
1.40001
1.40001
1.40001
1.40001
1.40001
1.40001
1.40001
1.40001
1.40001
1.40001
1.40001
1.40001
1.40001
1.40001
1.40001
1.40001
1.40001
1.40001
1.40001
1.40001
1.40001
1.40001
1.40001
1.40001
1.40001
1.40001
1.40001
1.40001
1.40001
1.40001
1.40001
1.40001
1.40001
1.40001
1.40001
1.40001
1.40001
1.40001
1.40001
1.40001
1.40001
1.40001
1.40001
1.40001
1.40001
1.40001
1.40001
1.40001
1.40001
1.40001
1.40001
1.40001
1.40001
1.40001
1.40001
1.40001
1.40001
1.40001
1.40001
1.40001
1.40001
1.40001
1.40001
1.40001
1.40001
1.40001
1.40001
1.40001
1.40001
1.40001
1.40001
1.40001
1.40001
1.40001
1.40001
1.40001
1.40001
1.40001
1.40001
1.40001
1.40001
1.40001
1.40001
2.4127
5.08785
5.42447
5.42412
5.43942
5.44988
5.46087
5.47285
5.48643
5.50004
5.51306
5.5266
5.53979
5.55074
5.55813
5.56253
5.56667
5.5737
5.5851
5.60066
5.61862
5.63566
5.64922
5.65842
5.66373
5.66638
5.66991
5.67722
5.68751
5.69932
5.71128
5.72251
5.73233
5.74167
5.75031
5.75729
5.76149
5.76331
5.76483
5.7684
5.77425
5.78198
5.79279
5.80534
5.81689
5.82557
5.83155
5.83628
5.8417
5.84786
5.85484
5.86408
5.8739
5.88203
5.8878
5.89198
5.895
5.89732
5.89951
5.90188
5.90473
5.90914
5.91576
5.92327
5.93112
5.93785
5.94195
5.94402
5.94527
5.9479
5.95318
5.95975
5.96585
5.96925
5.96984
5.96881
5.96748
5.96673
5.96623
5.96536
5.96373
5.96234
5.9626
5.96486
5.96727
5.96573
5.95611
5.93697
5.91143
5.88731
5.87235
5.86685
1.40001
1.40001
1.40001
1.40001
1.40001
1.40001
1.40001
1.40001
1.40001
1.40001
1.40001
1.40001
1.40001
1.40001
1.40001
1.40001
1.40001
1.40001
1.40001
1.40001
1.40001
1.40001
1.40001
1.40001
1.40001
1.40001
1.40001
1.40001
1.40001
1.40001
1.40001
1.40001
1.40001
1.40001
1.40001
1.40001
1.40001
1.40001
1.40001
1.40001
1.40001
1.40001
1.40001
1.40001
1.40001
1.40001
1.40001
1.40001
1.40001
1.40001
1.40001
1.40001
1.40001
1.40001
1.40001
1.40001
1.40001
1.40001
1.40001
1.40001
1.40001
1.40001
1.40001
1.40001
1.40001
1.40001
1.40001
1.40001
1.40001
1.40001
1.40001
1.40001
1.40001
1.40001
1.40001
1.40001
1.40001
1.40001
1.40001
1.40001
1.40001
1.40001
1.40001
1.40001
1.40001
1.40001
1.40001
1.40001
1.40001
1.40001
1.40001
1.40001
1.40001
1.40001
1.40001
1.40001
1.40001
1.40001
1.40001
1.40001
2.38095
5.07911
5.41801
5.42153
5.43789
5.44985
5.46243
5.47465
5.48721
5.49901
5.51075
5.5242
5.53806
5.55016
5.55861
5.56344
5.56714
5.57332
5.58431
5.60013
5.61875
5.6365
5.65039
5.65927
5.6636
5.6651
5.66732
5.674
5.6845
5.69717
5.71023
5.72217
5.73193
5.74083
5.74899
5.75572
5.76013
5.7629
5.76586
5.77053
5.77618
5.78263
5.79166
5.803
5.81419
5.82382
5.83154
5.83783
5.84291
5.84723
5.85256
5.86085
5.8711
5.88132
5.88974
5.89536
5.89803
5.89869
5.89892
5.90001
5.90281
5.90808
5.91551
5.92315
5.93015
5.93592
5.93977
5.94231
5.94408
5.94684
5.95181
5.95788
5.96394
5.96836
5.96996
5.96964
5.96855
5.96731
5.96604
5.96433
5.96227
5.96086
5.96132
5.96378
5.96623
5.96447
5.95472
5.93577
5.91061
5.88674
5.8717
5.86626
1.40001
1.40001
1.40001
1.40001
1.40001
1.40001
1.40001
1.40001
1.40001
1.40001
1.40001
1.40001
1.40001
1.40001
1.40001
1.40001
1.40001
1.40001
1.40001
1.40001
1.40001
1.40001
1.40001
1.40001
1.40001
1.40001
1.40001
1.40001
1.40001
1.40001
1.40001
1.40001
1.40001
1.40001
1.40001
1.40001
1.40001
1.40001
1.40001
1.40001
1.40001
1.40001
1.40001
1.40001
1.40001
1.40001
1.40001
1.40001
1.40001
1.40001
1.40001
1.40001
1.40001
1.40001
1.40001
1.40001
1.40001
1.40001
1.40001
1.40001
1.40001
1.40001
1.40001
1.40001
1.40001
1.40001
1.40001
1.40001
1.40001
1.40001
1.40001
1.40001
1.40001
1.40001
1.40001
1.40001
1.40001
1.40001
1.40001
1.40001
1.40001
1.40001
1.40001
1.40001
1.40001
1.40001
1.40001
1.40001
1.40001
1.40001
1.40001
1.40001
1.40001
1.40001
1.40001
1.40001
1.40001
1.40001
1.40001
1.40001
2.33982
5.06431
5.41352
5.41945
5.43673
5.45042
5.46423
5.47659
5.48795
5.49811
5.50907
5.52255
5.53705
5.54992
5.55897
5.564
5.5673
5.57277
5.58341
5.59953
5.61878
5.63722
5.65145
5.6601
5.66363
5.66424
5.66543
5.67135
5.68175
5.69477
5.70838
5.72067
5.73031
5.73902
5.74727
5.75435
5.75942
5.76339
5.76748
5.77219
5.77691
5.78205
5.78969
5.80036
5.81185
5.82289
5.83204
5.83899
5.84335
5.84569
5.8497
5.85722
5.86826
5.88086
5.89173
5.89838
5.90065
5.89967
5.89798
5.89785
5.90063
5.90688
5.9153
5.92307
5.92912
5.93373
5.93723
5.94031
5.94292
5.94608
5.9508
5.95613
5.96152
5.96639
5.96927
5.96995
5.96932
5.96774
5.9657
5.96314
5.96068
5.95938
5.96032
5.96314
5.96537
5.96305
5.95285
5.9338
5.90898
5.88565
5.87102
5.86591
1.40001
1.40001
1.40001
1.40001
1.40001
1.40001
1.40001
1.40001
1.40001
1.40001
1.40001
1.40001
1.40001
1.40001
1.40001
1.40001
1.40001
1.40001
1.40001
1.40001
1.40001
1.40001
1.40001
1.40001
1.40001
1.40001
1.40001
1.40001
1.40001
1.40001
1.40001
1.40001
1.40001
1.40001
1.40001
1.40001
1.40001
1.40001
1.40001
1.40001
1.40001
1.40001
1.40001
1.40001
1.40001
1.40001
1.40001
1.40001
1.40001
1.40001
1.40001
1.40001
1.40001
1.40001
1.40001
1.40001
1.40001
1.40001
1.40001
1.40001
1.40001
1.40001
1.40001
1.40001
1.40001
1.40001
1.40001
1.40001
1.40001
1.40001
1.40001
1.40001
1.40001
1.40001
1.40001
1.40001
1.40001
1.40001
1.40001
1.40001
1.40001
1.40001
1.40001
1.40001
1.40001
1.40001
1.40001
1.40001
1.40001
1.40001
1.40001
1.40001
1.40001
1.40001
1.40001
1.40001
1.40001
1.40001
1.40001
1.40001
2.29011
5.04299
5.41082
5.41805
5.43632
5.4515
5.46602
5.47833
5.4887
5.49777
5.50814
5.52155
5.53637
5.54966
5.5591
5.56434
5.56746
5.57244
5.58267
5.59886
5.61856
5.63758
5.65211
5.6606
5.66376
5.66381
5.66417
5.66931
5.67935
5.69227
5.70599
5.71818
5.72762
5.73646
5.74532
5.75327
5.7594
5.7643
5.76852
5.77258
5.77627
5.78048
5.78751
5.79823
5.81055
5.82259
5.83218
5.83898
5.84257
5.84332
5.8464
5.85365
5.86583
5.88054
5.89319
5.90063
5.90239
5.90002
5.89658
5.89542
5.89844
5.9057
5.91512
5.92304
5.9282
5.93157
5.93452
5.93809
5.94181
5.94558
5.95001
5.95453
5.95896
5.96348
5.96743
5.96958
5.96951
5.96774
5.96495
5.96178
5.95912
5.95821
5.95982
5.96289
5.96464
5.96148
5.95055
5.93113
5.90661
5.8841
5.8703
5.86571
1.40001
1.40001
1.40001
1.40001
1.40001
1.40001
1.40001
1.40001
1.40001
1.40001
1.40001
1.40001
1.40001
1.40001
1.40001
1.40001
1.40001
1.40001
1.40001
1.40001
1.40001
1.40001
1.40001
1.40001
1.40001
1.40001
1.40001
1.40001
1.40001
1.40001
1.40001
1.40001
1.40001
1.40001
1.40001
1.40001
1.40001
1.40001
1.40001
1.40001
1.40001
1.40001
1.40001
1.40001
1.40001
1.40001
1.40001
1.40001
1.40001
1.40001
1.40001
1.40001
1.40001
1.40001
1.40001
1.40001
1.40001
1.40001
1.40001
1.40001
1.40001
1.40001
1.40001
1.40001
1.40001
1.40001
1.40001
1.40001
1.40001
1.40001
1.40001
1.40001
1.40001
1.40001
1.40001
1.40001
1.40001
1.40001
1.40001
1.40001
1.40001
1.40001
1.40001
1.40001
1.40001
1.40001
1.40001
1.40001
1.40001
1.40001
1.40001
1.40001
1.40001
1.40001
1.40001
1.40001
1.40001
1.40001
1.40001
1.40001
2.23303
5.01472
5.40896
5.41769
5.43659
5.45291
5.46773
5.47977
5.48933
5.49778
5.5078
5.52114
5.53599
5.54946
5.55923
5.56474
5.56785
5.57243
5.58209
5.59798
5.61785
5.63733
5.65214
5.66057
5.6637
5.66352
5.66336
5.66782
5.67732
5.68995
5.70331
5.71512
5.72456
5.73375
5.74344
5.75241
5.75949
5.76463
5.76824
5.77147
5.77431
5.77832
5.78594
5.79736
5.81033
5.82243
5.83155
5.83758
5.84016
5.84031
5.84313
5.85087
5.86444
5.88055
5.89413
5.90172
5.90283
5.89925
5.89457
5.89284
5.89625
5.90451
5.91479
5.92283
5.92724
5.92954
5.93196
5.93589
5.94062
5.94502
5.94913
5.95293
5.95643
5.96034
5.9648
5.96814
5.96874
5.96691
5.9636
5.96016
5.95778
5.95763
5.95982
5.96287
5.96386
5.95966
5.9478
5.92789
5.90368
5.88215
5.8694
5.86546
1.40001
1.40001
1.40001
1.40001
1.40001
1.40001
1.40001
1.40001
1.40001
1.40001
1.40001
1.40001
1.40001
1.40001
1.40001
1.40001
1.40001
1.40001
1.40001
1.40001
1.40001
1.40001
1.40001
1.40001
1.40001
1.40001
1.40001
1.40001
1.40001
1.40001
1.40001
1.40001
1.40001
1.40001
1.40001
1.40001
1.40001
1.40001
1.40001
1.40001
1.40001
1.40001
1.40001
1.40001
1.40001
1.40001
1.40001
1.40001
1.40001
1.40001
1.40001
1.40001
1.40001
1.40001
1.40001
1.40001
1.40001
1.40001
1.40001
1.40001
1.40001
1.40001
1.40001
1.40001
1.40001
1.40001
1.40001
1.40001
1.40001
1.40001
1.40001
1.40001
1.40001
1.40001
1.40001
1.40001
1.40001
1.40001
1.40001
1.40001
1.40001
1.40001
1.40001
1.40001
1.40001
1.40001
1.40001
1.40001
1.40001
1.40001
1.40001
1.40001
1.40001
1.40001
1.40001
1.40001
1.40001
1.40001
1.40001
1.40001
2.16985
4.97889
5.40863
5.41928
5.43758
5.45435
5.46927
5.48106
5.49009
5.49814
5.50791
5.52101
5.53568
5.54912
5.55916
5.56502
5.5683
5.5727
5.58183
5.59694
5.6166
5.63632
5.65133
5.65983
5.66315
5.66314
5.66293
5.66689
5.6757
5.68782
5.70052
5.71194
5.72171
5.73143
5.74188
5.75164
5.75917
5.76401
5.76663
5.76887
5.77149
5.77634
5.78546
5.79767
5.81066
5.82196
5.82977
5.83435
5.83615
5.83665
5.84021
5.84929
5.86397
5.88056
5.89426
5.90138
5.90182
5.89743
5.89206
5.89027
5.89418
5.90323
5.91405
5.92209
5.92605
5.92778
5.93002
5.93419
5.93939
5.94405
5.94781
5.95108
5.95395
5.95748
5.96205
5.96583
5.96688
5.96495
5.96147
5.95831
5.95662
5.95753
5.9605
5.9631
5.96288
5.9575
5.94464
5.9244
5.90056
5.87999
5.86825
5.86495
1.40001
1.40001
1.40001
1.40001
1.40001
1.40001
1.40001
1.40001
1.40001
1.40001
1.40001
1.40001
1.40001
1.40001
1.40001
1.40001
1.40001
1.40001
1.40001
1.40001
1.40001
1.40001
1.40001
1.40001
1.40001
1.40001
1.40001
1.40001
1.40001
1.40001
1.40001
1.40001
1.40001
1.40001
1.40001
1.40001
1.40001
1.40001
1.40001
1.40001
1.40001
1.40001
1.40001
1.40001
1.40001
1.40001
1.40001
1.40001
1.40001
1.40001
1.40001
1.40001
1.40001
1.40001
1.40001
1.40001
1.40001
1.40001
1.40001
1.40001
1.40001
1.40001
1.40001
1.40001
1.40001
1.40001
1.40001
1.40001
1.40001
1.40001
1.40001
1.40001
1.40001
1.40001
1.40001
1.40001
1.40001
1.40001
1.40001
1.40001
1.40001
1.40001
1.40001
1.40001
1.40001
1.40001
1.40001
1.40001
1.40001
1.40001
1.40001
1.40001
1.40001
1.40001
1.40001
1.40001
1.40001
1.40001
1.40001
1.40001
2.10239
4.93516
5.41051
5.42222
5.43914
5.45588
5.47044
5.48161
5.49033
5.49829
5.50807
5.52102
5.53554
5.54898
5.55919
5.56525
5.56873
5.57335
5.58187
5.59591
5.61505
5.6346
5.64945
5.65826
5.66213
5.66278
5.66298
5.66674
5.67487
5.68613
5.69797
5.70899
5.71918
5.72944
5.74047
5.75058
5.75808
5.7622
5.76378
5.76542
5.76865
5.77519
5.78571
5.79857
5.81105
5.82083
5.82675
5.82977
5.83129
5.83325
5.83856
5.84911
5.86425
5.8804
5.89336
5.89987
5.89972
5.89488
5.88946
5.88796
5.89224
5.90162
5.91248
5.92038
5.92435
5.92624
5.9288
5.93312
5.93826
5.94264
5.94592
5.94875
5.95141
5.95493
5.95948
5.96324
5.96415
5.96195
5.95848
5.95606
5.95562
5.95784
5.96146
5.96335
5.96175
5.955
5.94135
5.92102
5.89762
5.87778
5.86672
5.86388
1.40001
1.40001
1.40001
1.40001
1.40001
1.40001
1.40001
1.40001
1.40001
1.40001
1.40001
1.40001
1.40001
1.40001
1.40001
1.40001
1.40001
1.40001
1.40001
1.40001
1.40001
1.40001
1.40001
1.40001
1.40001
1.40001
1.40001
1.40001
1.40001
1.40001
1.40001
1.40001
1.40001
1.40001
1.40001
1.40001
1.40001
1.40001
1.40001
1.40001
1.40001
1.40001
1.40001
1.40001
1.40001
1.40001
1.40001
1.40001
1.40001
1.40001
1.40001
1.40001
1.40001
1.40001
1.40001
1.40001
1.40001
1.40001
1.40001
1.40001
1.40001
1.40001
1.40001
1.40001
1.40001
1.40001
1.40001
1.40001
1.40001
1.40001
1.40001
1.40001
1.40001
1.40001
1.40001
1.40001
1.40001
1.40001
1.40001
1.40001
1.40001
1.40001
1.40001
1.40001
1.40001
1.40001
1.40001
1.40001
1.40001
1.40001
1.40001
1.40001
1.40001
1.40001
1.40001
1.40001
1.40001
1.40001
1.40001
1.40001
2.03247
4.8853
5.41289
5.42445
5.4413
5.4572
5.47078
5.48129
5.48983
5.498
5.50815
5.52129
5.53578
5.54908
5.55912
5.56504
5.56887
5.5739
5.58178
5.59515
5.61358
5.63212
5.64659
5.65584
5.66067
5.66248
5.66362
5.66746
5.67479
5.68485
5.6956
5.7062
5.71677
5.72746
5.73879
5.7489
5.75608
5.75954
5.7606
5.76228
5.76657
5.77478
5.78634
5.79929
5.81078
5.81866
5.82272
5.82471
5.82676
5.83079
5.83806
5.84966
5.86463
5.87997
5.89178
5.89742
5.89685
5.89218
5.88732
5.88625
5.8906
5.8996
5.90982
5.91747
5.92199
5.92491
5.92829
5.93272
5.93733
5.94088
5.94347
5.94595
5.94873
5.95264
5.95727
5.96056
5.96075
5.95813
5.95493
5.95341
5.95457
5.95836
5.96217
5.96321
5.96028
5.95225
5.93807
5.91791
5.89496
5.87556
5.86466
5.86197
1.40001
1.40001
1.40001
1.40001
1.40001
1.40001
1.40001
1.40001
1.40001
1.40001
1.40001
1.40001
1.40001
1.40001
1.40001
1.40001
1.40001
1.40001
1.40001
1.40001
1.40001
1.40001
1.40001
1.40001
1.40001
1.40001
1.40001
1.40001
1.40001
1.40001
1.40001
1.40001
1.40001
1.40001
1.40001
1.40001
1.40001
1.40001
1.40001
1.40001
1.40001
1.40001
1.40001
1.40001
1.40001
1.40001
1.40001
1.40001
1.40001
1.40001
1.40001
1.40001
1.40001
1.40001
1.40001
1.40001
1.40001
1.40001
1.40001
1.40001
1.40001
1.40001
1.40001
1.40001
1.40001
1.40001
1.40001
1.40001
1.40001
1.40001
1.40001
1.40001
1.40001
1.40001
1.40001
1.40001
1.40001
1.40001
1.40001
1.40001
1.40001
1.40001
1.40001
1.40001
1.40001
1.40001
1.40001
1.40001
1.40001
1.40001
1.40001
1.40001
1.40001
1.40001
1.40001
1.40001
1.40001
1.40001
1.40001
1.40001
1.9609
4.82926
5.41471
5.4265
5.44282
5.45761
5.47013
5.47981
5.48802
5.49669
5.5078
5.52175
5.53639
5.5493
5.55873
5.56447
5.56891
5.57394
5.58187
5.59479
5.6119
5.62909
5.64301
5.65262
5.65852
5.66184
5.66441
5.66871
5.67543
5.68422
5.69368
5.70375
5.71444
5.72528
5.73653
5.74641
5.75331
5.75671
5.75809
5.76038
5.76557
5.77464
5.7865
5.79891
5.8091
5.81534
5.81829
5.82015
5.82346
5.82956
5.83836
5.85041
5.86464
5.87873
5.88923
5.89411
5.89367
5.88985
5.88595
5.88517
5.8891
5.89694
5.90585
5.91326
5.91882
5.92346
5.92808
5.93265
5.93648
5.93894
5.94068
5.94279
5.94588
5.9504
5.95516
5.9579
5.95721
5.954
5.95113
5.95058
5.95332
5.95854
5.96238
5.96262
5.95854
5.94949
5.93505
5.9152
5.89265
5.87336
5.86216
5.85934
1.40001
1.40001
1.40001
1.40001
1.40001
1.40001
1.40001
1.40001
1.40001
1.40001
1.40001
1.40001
1.40001
1.40001
1.40001
1.40001
1.40001
1.40001
1.40001
1.40001
1.40001
1.40001
1.40001
1.40001
1.40001
1.40001
1.40001
1.40001
1.40001
1.40001
1.40001
1.40001
1.40001
1.40001
1.40001
1.40001
1.40001
1.40001
1.40001
1.40001
1.40001
1.40001
1.40001
1.40001
1.40001
1.40001
1.40001
1.40001
1.40001
1.40001
1.40001
1.40001
1.40001
1.40001
1.40001
1.40001
1.40001
1.40001
1.40001
1.40001
1.40001
1.40001
1.40001
1.40001
1.40001
1.40001
1.40001
1.40001
1.40001
1.40001
1.40001
1.40001
1.40001
1.40001
1.40001
1.40001
1.40001
1.40001
1.40001
1.40001
1.40001
1.40001
1.40001
1.40001
1.40001
1.40001
1.40001
1.40001
1.40001
1.40001
1.40001
1.40001
1.40001
1.40001
1.40001
1.40001
1.40001
1.40001
1.40001
1.40001
1.88767
4.76683
5.41519
5.42705
5.44356
5.45752
5.46894
5.47769
5.48614
5.49583
5.50762
5.5217
5.53612
5.54861
5.55768
5.56385
5.56863
5.57384
5.58165
5.5939
5.60961
5.62553
5.63891
5.64897
5.6562
5.66124
5.66535
5.67018
5.67645
5.6839
5.69196
5.7013
5.71172
5.72239
5.7333
5.74299
5.75008
5.7543
5.75689
5.76006
5.76571
5.77459
5.78573
5.797
5.80586
5.81122
5.81421
5.81687
5.82178
5.82939
5.83903
5.85075
5.86382
5.87638
5.88577
5.89031
5.89056
5.88819
5.8853
5.88462
5.88766
5.89376
5.90105
5.90829
5.91506
5.92169
5.92776
5.93257
5.93565
5.93699
5.93786
5.93954
5.94286
5.9479
5.95271
5.95496
5.95365
5.95011
5.94736
5.94761
5.95166
5.95779
5.96172
5.96144
5.95661
5.94696
5.9324
5.91283
5.89052
5.87109
5.8593
5.85615
1.40001
1.40001
1.40001
1.40001
1.40001
1.40001
1.40001
1.40001
1.40001
1.40001
1.40001
1.40001
1.40001
1.40001
1.40001
1.40001
1.40001
1.40001
1.40001
1.40001
1.40001
1.40001
1.40001
1.40001
1.40001
1.40001
1.40001
1.40001
1.40001
1.40001
1.40001
1.40001
1.40001
1.40001
1.40001
1.40001
1.40001
1.40001
1.40001
1.40001
1.40001
1.40001
1.40001
1.40001
1.40001
1.40001
1.40001
1.40001
1.40001
1.40001
1.40001
1.40001
1.40001
1.40001
1.40001
1.40001
1.40001
1.40001
1.40001
1.40001
1.40001
1.40001
1.40001
1.40001
1.40001
1.40001
1.40001
1.40001
1.40001
1.40001
1.40001
1.40001
1.40001
1.40001
1.40001
1.40001
1.40001
1.40001
1.40001
1.40001
1.40001
1.40001
1.40001
1.40001
1.40001
1.40001
1.40001
1.40001
1.40001
1.40001
1.40001
1.40001
1.40001
1.40001
1.40001
1.40001
1.40001
1.40001
1.40001
1.40001
1.81391
4.69417
5.41426
5.42771
5.44422
5.45714
5.46731
5.47567
5.48508
5.49555
5.50715
5.52053
5.53431
5.54646
5.55589
5.56329
5.56872
5.57351
5.58071
5.59203
5.60645
5.62118
5.63417
5.6449
5.65361
5.66028
5.66575
5.67121
5.67727
5.68367
5.69054
5.69893
5.70881
5.71902
5.72942
5.739
5.74677
5.75249
5.75675
5.76092
5.7666
5.77448
5.78394
5.79352
5.80141
5.80689
5.81094
5.81512
5.82145
5.82993
5.83954
5.85044
5.86208
5.87311
5.88179
5.88664
5.88798
5.88706
5.88505
5.88423
5.88585
5.89005
5.89592
5.9031
5.91108
5.91941
5.92666
5.93177
5.93439
5.93498
5.93526
5.93655
5.93986
5.94505
5.94976
5.95171
5.95029
5.94683
5.94421
5.94495
5.94963
5.95598
5.95992
5.9596
5.95461
5.94473
5.93011
5.9106
5.88826
5.86848
5.85609
5.85259
1.40001
1.40001
1.40001
1.40001
1.40001
1.40001
1.40001
1.40001
1.40001
1.40001
1.40001
1.40001
1.40001
1.40001
1.40001
1.40001
1.40001
1.40001
1.40001
1.40001
1.40001
1.40001
1.40001
1.40001
1.40001
1.40001
1.40001
1.40001
1.40001
1.40001
1.40001
1.40001
1.40001
1.40001
1.40001
1.40001
1.40001
1.40001
1.40001
1.40001
1.40001
1.40001
1.40001
1.40001
1.40001
1.40001
1.40001
1.40001
1.40001
1.40001
1.40001
1.40001
1.40001
1.40001
1.40001
1.40001
1.40001
1.40001
1.40001
1.40001
1.40001
1.40001
1.40001
1.40001
1.40001
1.40001
1.40001
1.40001
1.40001
1.40001
1.40001
1.40001
1.40001
1.40001
1.40001
1.40001
1.40001
1.40001
1.40001
1.40001
1.40001
1.40001
1.40001
1.40001
1.40001
1.40001
1.40001
1.40001
1.40001
1.40001
1.40001
1.40001
1.40001
1.40001
1.40001
1.40001
1.40001
1.40001
1.40001
1.40001
1.74113
4.60934
5.41278
5.42914
5.44543
5.45712
5.46629
5.47478
5.48502
5.49541
5.50588
5.51783
5.53074
5.54289
5.55352
5.56238
5.56858
5.57353
5.58003
5.58992
5.6028
5.61649
5.62926
5.64078
5.65095
5.65904
5.66552
5.67154
5.67746
5.68305
5.68892
5.6964
5.7057
5.71538
5.72527
5.73488
5.7436
5.75099
5.75693
5.76203
5.76739
5.77379
5.78125
5.78931
5.79686
5.80326
5.80895
5.81472
5.82199
5.8306
5.8395
5.84918
5.85939
5.86926
5.87772
5.88327
5.88592
5.88624
5.88473
5.88336
5.88336
5.8859
5.89096
5.89844
5.90749
5.91677
5.92453
5.92986
5.93248
5.933
5.93315
5.93417
5.93709
5.94179
5.9461
5.94795
5.94691
5.94407
5.9418
5.94271
5.9472
5.9531
5.95694
5.95699
5.95242
5.9427
5.92801
5.90829
5.88564
5.86549
5.85272
5.849
1.40001
1.40001
1.40001
1.40001
1.40001
1.40001
1.40001
1.40001
1.40001
1.40001
1.40001
1.40001
1.40001
1.40001
1.40001
1.40001
1.40001
1.40001
1.40001
1.40001
1.40001
1.40001
1.40001
1.40001
1.40001
1.40001
1.40001
1.40001
1.40001
1.40001
1.40001
1.40001
1.40001
1.40001
1.40001
1.40001
1.40001
1.40001
1.40001
1.40001
1.40001
1.40001
1.40001
1.40001
1.40001
1.40001
1.40001
1.40001
1.40001
1.40001
1.40001
1.40001
1.40001
1.40001
1.40001
1.40001
1.40001
1.40001
1.40001
1.40001
1.40001
1.40001
1.40001
1.40001
1.40001
1.40001
1.40001
1.40001
1.40001
1.40001
1.40001
1.40001
1.40001
1.40001
1.40001
1.40001
1.40001
1.40001
1.40001
1.40001
1.40001
1.40001
1.40001
1.40001
1.40001
1.40001
1.40001
1.40001
1.40001
1.40001
1.40001
1.40001
1.40001
1.40001
1.40001
1.40001
1.40001
1.40001
1.40001
1.40001
1.66917
4.51215
5.41309
5.43217
5.44754
5.45793
5.46662
5.47527
5.48523
5.49457
5.50372
5.51419
5.5261
5.53834
5.55019
5.56041
5.5679
5.57349
5.57956
5.58825
5.59968
5.61237
5.62501
5.63705
5.64811
5.65713
5.66419
5.67058
5.67647
5.68171
5.68711
5.69411
5.70288
5.71215
5.72161
5.73127
5.74073
5.74944
5.75671
5.76241
5.7672
5.77208
5.77798
5.78523
5.7931
5.80079
5.80807
5.81499
5.82266
5.83085
5.83873
5.84698
5.85597
5.86525
5.87393
5.88036
5.88426
5.88538
5.88377
5.8814
5.88006
5.88163
5.88659
5.89475
5.9046
5.91396
5.92139
5.92672
5.92971
5.93088
5.93147
5.9324
5.93462
5.93817
5.94168
5.94352
5.94332
5.94161
5.94008
5.94097
5.94466
5.94956
5.95318
5.95375
5.94994
5.9407
5.92593
5.90576
5.88263
5.86214
5.84938
5.8456
1.40001
1.40001
1.40001
1.40001
1.40001
1.40001
1.40001
1.40001
1.40001
1.40001
1.40001
1.40001
1.40001
1.40001
1.40001
1.40001
1.40001
1.40001
1.40001
1.40001
1.40001
1.40001
1.40001
1.40001
1.40001
1.40001
1.40001
1.40001
1.40001
1.40001
1.40001
1.40001
1.40001
1.40001
1.40001
1.40001
1.40001
1.40001
1.40001
1.40001
1.40001
1.40001
1.40001
1.40001
1.40001
1.40001
1.40001
1.40001
1.40001
1.40001
1.40001
1.40001
1.40001
1.40001
1.40001
1.40001
1.40001
1.40001
1.40001
1.40001
1.40001
1.40001
1.40001
1.40001
1.40001
1.40001
1.40001
1.40001
1.40001
1.40001
1.40001
1.40001
1.40001
1.40001
1.40001
1.40001
1.40001
1.40001
1.40001
1.40001
1.40001
1.40001
1.40001
1.40001
1.40001
1.40001
1.40001
1.40001
1.40001
1.40001
1.40001
1.40001
1.40001
1.40001
1.40001
1.40001
1.40001
1.40001
1.40001
1.40001
1.5984
4.40423
5.41306
5.43563
5.44786
5.45783
5.46687
5.47603
5.48515
5.49323
5.50122
5.51078
5.52208
5.53444
5.54695
5.55776
5.56606
5.57233
5.57853
5.58686
5.59748
5.60924
5.62164
5.63393
5.64526
5.65476
5.662
5.66836
5.67423
5.67956
5.685
5.69189
5.70036
5.70943
5.71865
5.72822
5.738
5.74741
5.7554
5.76128
5.76552
5.7695
5.77478
5.78202
5.79061
5.79949
5.8078
5.81529
5.82284
5.83024
5.83693
5.84391
5.85201
5.86128
5.8705
5.87786
5.88256
5.88392
5.88183
5.87844
5.87624
5.8775
5.88309
5.89217
5.90232
5.91092
5.91738
5.92243
5.926
5.92851
5.9301
5.93111
5.93238
5.93429
5.9366
5.93849
5.93936
5.93913
5.93873
5.93962
5.94221
5.94579
5.94896
5.94993
5.94696
5.93838
5.92358
5.90288
5.8792
5.85851
5.84609
5.84239
1.40001
1.40001
1.40001
1.40001
1.40001
1.40001
1.40001
1.40001
1.40001
1.40001
1.40001
1.40001
1.40001
1.40001
1.40001
1.40001
1.40001
1.40001
1.40001
1.40001
1.40001
1.40001
1.40001
1.40001
1.40001
1.40001
1.40001
1.40001
1.40001
1.40001
1.40001
1.40001
1.40001
1.40001
1.40001
1.40001
1.40001
1.40001
1.40001
1.40001
1.40001
1.40001
1.40001
1.40001
1.40001
1.40001
1.40001
1.40001
1.40001
1.40001
1.40001
1.40001
1.40001
1.40001
1.40001
1.40001
1.40001
1.40001
1.40001
1.40001
1.40001
1.40001
1.40001
1.40001
1.40001
1.40001
1.40001
1.40001
1.40001
1.40001
1.40001
1.40001
1.40001
1.40001
1.40001
1.40001
1.40001
1.40001
1.40001
1.40001
1.40001
1.40001
1.40001
1.40001
1.40001
1.40001
1.40001
1.40001
1.40001
1.40001
1.40001
1.40001
1.40001
1.40001
1.40001
1.40001
1.40001
1.40001
1.40001
1.40001
1.5251
4.28683
5.41147
5.43794
5.44786
5.4583
5.46787
5.47738
5.48571
5.4921
5.4984
5.50669
5.51718
5.52927
5.54179
5.55283
5.56166
5.56907
5.57665
5.58599
5.59682
5.60801
5.61962
5.63138
5.64223
5.65157
5.65872
5.66488
5.67084
5.67658
5.68257
5.68976
5.69821
5.70709
5.71613
5.72547
5.73518
5.74466
5.75272
5.75854
5.7626
5.76661
5.77218
5.78001
5.78941
5.79907
5.80784
5.81531
5.82221
5.82849
5.83416
5.84033
5.84805
5.85768
5.86745
5.8755
5.88036
5.88141
5.87866
5.87462
5.87226
5.87394
5.88061
5.89049
5.9003
5.90758
5.91293
5.9175
5.92181
5.92595
5.92883
5.93005
5.93021
5.93029
5.93113
5.93289
5.93494
5.93653
5.9375
5.93849
5.94002
5.94221
5.94458
5.94563
5.94333
5.93543
5.92073
5.89959
5.87548
5.85474
5.84287
5.83931
1.40001
1.40001
1.40001
1.40001
1.40001
1.40001
1.40001
1.40001
1.40001
1.40001
1.40001
1.40001
1.40001
1.40001
1.40001
1.40001
1.40001
1.40001
1.40001
1.40001
1.40001
1.40001
1.40001
1.40001
1.40001
1.40001
1.40001
1.40001
1.40001
1.40001
1.40001
1.40001
1.40001
1.40001
1.40001
1.40001
1.40001
1.40001
1.40001
1.40001
1.40001
1.40001
1.40001
1.40001
1.40001
1.40001
1.40001
1.40001
1.40001
1.40001
1.40001
1.40001
1.40001
1.40001
1.40001
1.40001
1.40001
1.40001
1.40001
1.40001
1.40001
1.40001
1.40001
1.40001
1.40001
1.40001
1.40001
1.40001
1.40001
1.40001
1.40001
1.40001
1.40001
1.40001
1.40001
1.40001
1.40001
1.40001
1.40001
1.40001
1.40001
1.40001
1.40001
1.40001
1.40001
1.40001
1.40001
1.40001
1.40001
1.40001
1.40001
1.40001
1.40001
1.40001
1.40001
1.40001
1.40001
1.40001
1.40001
1.40001
1.43721
4.14144
5.41341
5.43827
5.44732
5.45816
5.4671
5.47518
5.48209
5.48789
5.49416
5.5025
5.51288
5.52469
5.53679
5.54775
5.557
5.56553
5.57467
5.58549
5.59711
5.608
5.61858
5.6291
5.63892
5.64784
5.65492
5.66098
5.667
5.67324
5.68005
5.68772
5.69624
5.70483
5.71354
5.72254
5.73192
5.74108
5.74898
5.75485
5.75927
5.7639
5.77026
5.77883
5.78886
5.7989
5.8077
5.81468
5.82042
5.82547
5.83047
5.83651
5.84448
5.85435
5.86436
5.87256
5.87704
5.87748
5.8743
5.87027
5.86851
5.87108
5.87878
5.88899
5.89798
5.90386
5.90826
5.91252
5.91774
5.92333
5.9273
5.92874
5.92788
5.92616
5.92551
5.92703
5.93017
5.93362
5.93611
5.93728
5.93795
5.93894
5.94029
5.94103
5.939
5.93165
5.91719
5.89592
5.87162
5.851
5.8397
5.83629
1.40001
1.40001
1.40001
1.40001
1.40001
1.40001
1.40001
1.40001
1.40001
1.40001
1.40001
1.40001
1.40001
1.40001
1.40001
1.40001
1.40001
1.40001
1.40001
1.40001
1.40001
1.40001
1.40001
1.40001
1.40001
1.40001
1.40001
1.40001
1.40001
1.40001
1.40001
1.40001
1.40001
1.40001
1.40001
1.40001
1.40001
1.40001
1.40001
1.40001
1.40001