/*--------------------------------*- C++ -*----------------------------------*\
  =========                 |
  \\      /  F ield         | OpenFOAM: The Open Source CFD Toolbox
   \\    /   O peration     | Website:  https://openfoam.org
    \\  /    A nd           | Version:  7
     \\/     M anipulation  |
\*---------------------------------------------------------------------------*/
FoamFile
{
    version     2.0;
    format      ascii;
    class       volScalarField;
    location    "2";
    object      T;
}
// * * * * * * * * * * * * * * * * * * * * * * * * * * * * * * * * * * * * * //

dimensions      [0 0 0 1 0 0 0];

internalField   nonuniform List<scalar> 
258048
(
1
1
1
1
1
1
1
1
1
1
1
1
1
1
1
1
1
1
1
1
1
1
1
1
1
1
1
1
1
1
1
1
1
1
1
1
1
1
1
1
1
1
1
1
1
1
1
1
1
1
1
1
1
1
1
1
1
1
1
1
1
1
1
1
1
1
1
1
1
1
1
1
1
1
1
1
1
1
1
1
1
1
1
1
1
1
1
1
1
1
1
1
1
1
1
1
1
1
1
1
1.71343
2.61085
2.69723
2.70331
2.7095
2.71269
2.71397
2.7154
2.7168
2.71795
2.71893
2.71955
2.72007
2.7212
2.72367
2.72712
2.73024
2.73221
2.73316
2.73379
2.73414
2.73428
2.73457
2.73556
2.73785
2.74141
2.74558
2.74949
2.75222
2.75339
2.75344
2.75329
2.7537
2.7554
2.75863
2.76287
2.76723
2.77076
2.77268
2.7732
2.77322
2.77372
2.77532
2.77791
2.78096
2.78397
2.78656
2.78851
2.78999
2.79111
2.79173
2.79161
2.79061
2.78907
2.78743
2.78639
2.7868
2.78916
2.79286
2.7967
2.80006
2.80317
2.80626
2.80862
2.81019
2.81084
2.81061
2.80964
2.80876
2.80876
2.8099
2.81227
2.81484
2.81681
2.81802
2.8187
2.8192
2.81956
2.82022
2.82092
2.82155
2.82249
2.82394
2.82622
2.82963
2.83458
2.84182
2.85201
2.8639
2.87436
2.88067
2.88247
1
1
1
1
1
1
1
1
1
1
1
1
1
1
1
1
1
1
1
1
1
1
1
1
1
1
1
1
1
1
1
1
1
1
1
1
1
1
1
1
1
1
1
1
1
1
1
1
1
1
1
1
1
1
1
1
1
1
1
1
1
1
1
1
1
1
1
1
1
1
1
1
1
1
1
1
1
1
1
1
1
1
1
1
1
1
1
1
1
1
1
1
1
1
1
1
1
1
1
1
1.7105
2.61017
2.69756
2.70284
2.7092
2.71268
2.71444
2.71585
2.71706
2.71795
2.7187
2.71925
2.71987
2.72117
2.72375
2.72719
2.73026
2.73213
2.73303
2.73366
2.73408
2.7343
2.73461
2.73553
2.73769
2.7411
2.74523
2.74925
2.75215
2.75347
2.75364
2.75357
2.75395
2.75548
2.75847
2.7626
2.76699
2.77064
2.77278
2.7735
2.77355
2.77396
2.77534
2.77771
2.7807
2.78382
2.78662
2.78875
2.79023
2.79117
2.7916
2.7914
2.79046
2.78907
2.7876
2.78665
2.78703
2.78926
2.79282
2.79657
2.79994
2.80311
2.80623
2.8086
2.81014
2.81076
2.8105
2.80952
2.8086
2.80857
2.8097
2.81213
2.81484
2.81694
2.8182
2.81888
2.81928
2.81957
2.82014
2.82081
2.82145
2.82238
2.82381
2.82608
2.82955
2.83456
2.84182
2.85204
2.86393
2.87436
2.8806
2.88239
1
1
1
1
1
1
1
1
1
1
1
1
1
1
1
1
1
1
1
1
1
1
1
1
1
1
1
1
1
1
1
1
1
1
1
1
1
1
1
1
1
1
1
1
1
1
1
1
1
1
1
1
1
1
1
1
1
1
1
1
1
1
1
1
1
1
1
1
1
1
1
1
1
1
1
1
1
1
1
1
1
1
1
1
1
1
1
1
1
1
1
1
1
1
1
1
1
1
1
1
1.70666
2.61105
2.69672
2.70197
2.7086
2.71219
2.71456
2.71627
2.71734
2.71797
2.71841
2.71884
2.71954
2.72106
2.72377
2.72718
2.73015
2.73193
2.73279
2.73343
2.73397
2.73431
2.73466
2.7355
2.73748
2.74068
2.74475
2.74893
2.75205
2.75359
2.75395
2.754
2.75438
2.75568
2.75835
2.76223
2.76656
2.77033
2.77277
2.77379
2.774
2.77436
2.77547
2.77748
2.78023
2.78341
2.7865
2.78896
2.79052
2.79126
2.79137
2.79096
2.79
2.78884
2.78765
2.78693
2.78736
2.78945
2.79277
2.79637
2.79975
2.80303
2.80621
2.80862
2.8101
2.81063
2.81031
2.80928
2.80836
2.80832
2.80944
2.8119
2.81475
2.81699
2.81836
2.81907
2.81942
2.81966
2.82008
2.82065
2.82129
2.82221
2.82362
2.82588
2.82941
2.83449
2.84177
2.85207
2.86402
2.87442
2.88056
2.8823
1
1
1
1
1
1
1
1
1
1
1
1
1
1
1
1
1
1
1
1
1
1
1
1
1
1
1
1
1
1
1
1
1
1
1
1
1
1
1
1
1
1
1
1
1
1
1
1
1
1
1
1
1
1
1
1
1
1
1
1
1
1
1
1
1
1
1
1
1
1
1
1
1
1
1
1
1
1
1
1
1
1
1
1
1
1
1
1
1
1
1
1
1
1
1
1
1
1
1
1
1.69599
2.60961
2.69495
2.70105
2.70811
2.71199
2.71481
2.71666
2.71765
2.71796
2.7181
2.71843
2.71927
2.72099
2.72373
2.72701
2.72978
2.73146
2.73234
2.73307
2.73378
2.73429
2.73467
2.73542
2.73718
2.74016
2.74414
2.74852
2.7519
2.75374
2.75434
2.75451
2.7548
2.75583
2.75814
2.76178
2.76606
2.77004
2.77288
2.77424
2.77454
2.77477
2.77551
2.77714
2.7797
2.78301
2.78649
2.7893
2.79082
2.79124
2.79101
2.79032
2.78944
2.78862
2.78784
2.7874
2.78785
2.78971
2.79269
2.7961
2.79951
2.80292
2.80618
2.80862
2.81001
2.8104
2.80998
2.80896
2.8081
2.80807
2.80917
2.8116
2.81455
2.817
2.81853
2.81928
2.8196
2.81976
2.82001
2.82044
2.82106
2.82197
2.82339
2.82567
2.82926
2.83438
2.84168
2.85205
2.86406
2.87445
2.88051
2.88222
1
1
1
1
1
1
1
1
1
1
1
1
1
1
1
1
1
1
1
1
1
1
1
1
1
1
1
1
1
1
1
1
1
1
1
1
1
1
1
1
1
1
1
1
1
1
1
1
1
1
1
1
1
1
1
1
1
1
1
1
1
1
1
1
1
1
1
1
1
1
1
1
1
1
1
1
1
1
1
1
1
1
1
1
1
1
1
1
1
1
1
1
1
1
1
1
1
1
1
1
1.68015
2.6067
2.69386
2.70069
2.70751
2.71142
2.71443
2.71642
2.71746
2.71762
2.71768
2.71807
2.71913
2.72102
2.72368
2.72667
2.72917
2.73076
2.73172
2.7326
2.73351
2.73419
2.73461
2.73527
2.73683
2.73962
2.74352
2.74806
2.75171
2.75383
2.75464
2.75487
2.75509
2.7559
2.75793
2.76136
2.76562
2.76981
2.77303
2.77468
2.77501
2.77507
2.77552
2.77678
2.77918
2.78264
2.78648
2.78955
2.79099
2.79106
2.79047
2.78954
2.78881
2.78839
2.78808
2.78796
2.78843
2.79
2.79258
2.79576
2.79922
2.80279
2.80614
2.80862
2.80987
2.81005
2.80953
2.80856
2.80783
2.80787
2.80894
2.81127
2.81421
2.81688
2.8186
2.81944
2.81977
2.81985
2.81994
2.82021
2.82077
2.82168
2.82316
2.82552
2.82912
2.83421
2.84152
2.85195
2.86403
2.87445
2.88048
2.8822
1
1
1
1
1
1
1
1
1
1
1
1
1
1
1
1
1
1
1
1
1
1
1
1
1
1
1
1
1
1
1
1
1
1
1
1
1
1
1
1
1
1
1
1
1
1
1
1
1
1
1
1
1
1
1
1
1
1
1
1
1
1
1
1
1
1
1
1
1
1
1
1
1
1
1
1
1
1
1
1
1
1
1
1
1
1
1
1
1
1
1
1
1
1
1
1
1
1
1
1
1.65933
2.60175
2.69403
2.70065
2.70684
2.71061
2.71363
2.71567
2.71677
2.71703
2.71724
2.71789
2.71918
2.72111
2.72354
2.72613
2.72831
2.72983
2.73096
2.73205
2.73318
2.73402
2.73448
2.73506
2.73643
2.73905
2.74292
2.74764
2.75156
2.75392
2.75486
2.75508
2.7552
2.75586
2.75771
2.76104
2.76534
2.76975
2.77323
2.77497
2.77523
2.77515
2.77539
2.7764
2.77878
2.78246
2.78653
2.78963
2.79088
2.79065
2.78974
2.78872
2.78822
2.7882
2.78834
2.78854
2.78905
2.79025
2.79237
2.79535
2.79891
2.80263
2.80609
2.8086
2.80969
2.80963
2.809
2.80813
2.8076
2.80775
2.8088
2.81096
2.81376
2.81653
2.8185
2.8195
2.81986
2.8199
2.81984
2.81995
2.82044
2.8214
2.82301
2.82546
2.82902
2.83402
2.84132
2.85175
2.86387
2.87437
2.88048
2.88225
1
1
1
1
1
1
1
1
1
1
1
1
1
1
1
1
1
1
1
1
1
1
1
1
1
1
1
1
1
1
1
1
1
1
1
1
1
1
1
1
1
1
1
1
1
1
1
1
1
1
1
1
1
1
1
1
1
1
1
1
1
1
1
1
1
1
1
1
1
1
1
1
1
1
1
1
1
1
1
1
1
1
1
1
1
1
1
1
1
1
1
1
1
1
1
1
1
1
1
1
1.63343
2.59471
2.69499
2.70077
2.70621
2.7096
2.71235
2.71432
2.71558
2.71621
2.7168
2.71781
2.7193
2.72116
2.72328
2.72546
2.72735
2.72885
2.73015
2.73145
2.7328
2.73382
2.73433
2.73484
2.73605
2.73851
2.74233
2.74724
2.75144
2.75404
2.75509
2.75525
2.75527
2.75579
2.75755
2.76086
2.76523
2.76979
2.77333
2.77502
2.7752
2.77503
2.77513
2.77611
2.77859
2.78241
2.78649
2.78942
2.79041
2.78998
2.78892
2.78797
2.78769
2.78798
2.78856
2.78907
2.78955
2.79034
2.79209
2.79492
2.79857
2.80244
2.80604
2.80856
2.80951
2.80923
2.80845
2.80768
2.8074
2.80768
2.80871
2.81068
2.81328
2.81599
2.81818
2.81942
2.81985
2.81985
2.81968
2.81966
2.8201
2.82118
2.82298
2.8255
2.82896
2.8338
2.84106
2.85144
2.86359
2.87422
2.88047
2.88236
1
1
1
1
1
1
1
1
1
1
1
1
1
1
1
1
1
1
1
1
1
1
1
1
1
1
1
1
1
1
1
1
1
1
1
1
1
1
1
1
1
1
1
1
1
1
1
1
1
1
1
1
1
1
1
1
1
1
1
1
1
1
1
1
1
1
1
1
1
1
1
1
1
1
1
1
1
1
1
1
1
1
1
1
1
1
1
1
1
1
1
1
1
1
1
1
1
1
1
1
1.6031
2.58577
2.69638
2.70104
2.70556
2.70839
2.71066
2.71248
2.71397
2.71517
2.71634
2.71777
2.71942
2.72117
2.72296
2.72475
2.72642
2.72793
2.72935
2.73082
2.73234
2.73355
2.73416
2.73463
2.73575
2.73806
2.74181
2.74684
2.75129
2.75413
2.75532
2.75545
2.75541
2.75585
2.75754
2.76081
2.76518
2.76972
2.77316
2.77476
2.77489
2.77472
2.7749
2.77604
2.77865
2.78239
2.78625
2.78891
2.78966
2.78914
2.78811
2.78733
2.78729
2.78788
2.78872
2.78937
2.78977
2.79023
2.79171
2.79446
2.79823
2.80225
2.80596
2.80847
2.8093
2.80887
2.80795
2.80725
2.80718
2.80758
2.80859
2.81039
2.81279
2.81539
2.81767
2.81913
2.81966
2.81964
2.81941
2.81934
2.81981
2.82108
2.82303
2.8256
2.82891
2.83355
2.84073
2.85104
2.86321
2.874
2.88045
2.88246
1
1
1
1
1
1
1
1
1
1
1
1
1
1
1
1
1
1
1
1
1
1
1
1
1
1
1
1
1
1
1
1
1
1
1
1
1
1
1
1
1
1
1
1
1
1
1
1
1
1
1
1
1
1
1
1
1
1
1
1
1
1
1
1
1
1
1
1
1
1
1
1
1
1
1
1
1
1
1
1
1
1
1
1
1
1
1
1
1
1
1
1
1
1
1
1
1
1
1
1
1.5685
2.57495
2.69768
2.70133
2.70479
2.70701
2.70884
2.71055
2.71231
2.71407
2.71584
2.71766
2.71939
2.72098
2.72246
2.72398
2.72556
2.72713
2.72866
2.7302
2.73186
2.73324
2.73397
2.73447
2.73556
2.73777
2.7414
2.74641
2.75103
2.75411
2.7555
2.75573
2.75574
2.75617
2.75781
2.76094
2.76512
2.76941
2.77265
2.77419
2.77439
2.77441
2.77485
2.77624
2.77883
2.78229
2.78577
2.78808
2.78867
2.78818
2.78734
2.78683
2.787
2.7878
2.78873
2.78933
2.78963
2.78992
2.79125
2.79401
2.7979
2.80205
2.80582
2.8083
2.80904
2.80854
2.80758
2.80693
2.80695
2.80741
2.80837
2.81003
2.8123
2.81482
2.81712
2.81866
2.81924
2.81922
2.81899
2.81896
2.8196
2.8211
2.8232
2.82572
2.8288
2.83327
2.84033
2.85059
2.86281
2.87374
2.88036
2.88248
1
1
1
1
1
1
1
1
1
1
1
1
1
1
1
1
1
1
1
1
1
1
1
1
1
1
1
1
1
1
1
1
1
1
1
1
1
1
1
1
1
1
1
1
1
1
1
1
1
1
1
1
1
1
1
1
1
1
1
1
1
1
1
1
1
1
1
1
1
1
1
1
1
1
1
1
1
1
1
1
1
1
1
1
1
1
1
1
1
1
1
1
1
1
1
1
1
1
1
1
1.53032
2.56236
2.69859
2.70134
2.70388
2.70568
2.70726
2.70892
2.71088
2.71305
2.71522
2.71729
2.71906
2.7205
2.7218
2.7232
2.72477
2.72648
2.7281
2.72972
2.7315
2.733
2.73379
2.73435
2.73546
2.73765
2.74117
2.74604
2.75069
2.75398
2.75558
2.75607
2.75627
2.75682
2.75841
2.76126
2.76502
2.76887
2.77181
2.77335
2.77386
2.77424
2.77503
2.7766
2.779
2.78203
2.78502
2.78703
2.78757
2.78724
2.7867
2.78653
2.78682
2.78762
2.7885
2.78902
2.7892
2.78945
2.79079
2.79363
2.79761
2.8018
2.80557
2.80799
2.80871
2.80823
2.80734
2.80673
2.80673
2.80713
2.80799
2.80955
2.81176
2.81428
2.81659
2.81813
2.81869
2.81861
2.81839
2.8185
2.81942
2.82118
2.82343
2.82582
2.82865
2.83294
2.83989
2.85014
2.86245
2.87348
2.88019
2.88238
1
1
1
1
1
1
1
1
1
1
1
1
1
1
1
1
1
1
1
1
1
1
1
1
1
1
1
1
1
1
1
1
1
1
1
1
1
1
1
1
1
1
1
1
1
1
1
1
1
1
1
1
1
1
1
1
1
1
1
1
1
1
1
1
1
1
1
1
1
1
1
1
1
1
1
1
1
1
1
1
1
1
1
1
1
1
1
1
1
1
1
1
1
1
1
1
1
1
1
1
1.48934
2.54832
2.69878
2.70087
2.70306
2.70459
2.70602
2.70767
2.70975
2.71208
2.71442
2.71656
2.71832
2.71971
2.72096
2.72232
2.72398
2.72589
2.72763
2.72945
2.73138
2.73288
2.7337
2.73433
2.7355
2.73772
2.74114
2.74568
2.75019
2.75362
2.75552
2.7564
2.75692
2.75767
2.75921
2.76169
2.76488
2.76818
2.77083
2.7725
2.77339
2.77417
2.77527
2.77687
2.77901
2.78154
2.78404
2.78584
2.78649
2.78642
2.78625
2.78633
2.78668
2.78738
2.78806
2.78844
2.78857
2.78892
2.79043
2.79337
2.79738
2.80152
2.80517
2.80752
2.80829
2.80794
2.80722
2.80664
2.80652
2.80677
2.80747
2.80896
2.8112
2.81379
2.81613
2.81761
2.81805
2.81789
2.81767
2.81798
2.81925
2.82128
2.8236
2.82584
2.82843
2.83253
2.83941
2.84973
2.86212
2.8732
2.87989
2.8821
1
1
1
1
1
1
1
1
1
1
1
1
1
1
1
1
1
1
1
1
1
1
1
1
1
1
1
1
1
1
1
1
1
1
1
1
1
1
1
1
1
1
1
1
1
1
1
1
1
1
1
1
1
1
1
1
1
1
1
1
1
1
1
1
1
1
1
1
1
1
1
1
1
1
1
1
1
1
1
1
1
1
1
1
1
1
1
1
1
1
1
1
1
1
1
1
1
1
1
1
1.44552
2.53244
2.69854
2.70024
2.70224
2.70368
2.70508
2.70671
2.7087
2.71097
2.71332
2.71552
2.7173
2.71872
2.71999
2.72142
2.72327
2.7253
2.72729
2.72935
2.73137
2.73291
2.73382
2.73457
2.73583
2.738
2.74115
2.74523
2.74949
2.75301
2.7553
2.75665
2.75761
2.75857
2.76002
2.76209
2.76468
2.76745
2.76989
2.77171
2.77298
2.77409
2.77537
2.77691
2.77874
2.7808
2.78292
2.78464
2.78555
2.78583
2.78595
2.78616
2.7865
2.78701
2.78741
2.78765
2.78785
2.78843
2.79019
2.79322
2.79716
2.80115
2.80458
2.80685
2.80773
2.80762
2.80715
2.80662
2.80632
2.80634
2.80684
2.80828
2.8106
2.81331
2.8157
2.81708
2.81735
2.8171
2.8169
2.81742
2.81902
2.8213
2.82364
2.82576
2.82815
2.83209
2.83894
2.84934
2.86182
2.8729
2.87949
2.88165
1
1
1
1
1
1
1
1
1
1
1
1
1
1
1
1
1
1
1
1
1
1
1
1
1
1
1
1
1
1
1
1
1
1
1
1
1
1
1
1
1
1
1
1
1
1
1
1
1
1
1
1
1
1
1
1
1
1
1
1
1
1
1
1
1
1
1
1
1
1
1
1
1
1
1
1
1
1
1
1
1
1
1
1
1
1
1
1
1
1
1
1
1
1
1
1
1
1
1
1
1.39818
2.51461
2.69792
2.69926
2.70128
2.70282
2.70434
2.70591
2.70779
2.70993
2.71211
2.7142
2.71602
2.71756
2.71899
2.72063
2.7226
2.7247
2.72685
2.72915
2.73135
2.7331
2.73428
2.73527
2.73661
2.73859
2.74129
2.74474
2.74858
2.7521
2.75479
2.75669
2.75813
2.75931
2.76067
2.76237
2.76445
2.7668
2.76912
2.77109
2.77262
2.77394
2.77525
2.77666
2.77815
2.77987
2.78181
2.78357
2.78478
2.78539
2.78571
2.78595
2.78618
2.78647
2.78666
2.78679
2.78714
2.78808
2.79008
2.79312
2.79693
2.8007
2.80387
2.80604
2.80708
2.80727
2.80704
2.8066
2.80611
2.80587
2.80622
2.80758
2.80998
2.8128
2.81521
2.8165
2.81665
2.81633
2.81614
2.81683
2.81868
2.82114
2.8235
2.82553
2.82781
2.83166
2.8385
2.84897
2.8615
2.87254
2.87899
2.88108
1
1
1
1
1
1
1
1
1
1
1
1
1
1
1
1
1
1
1
1
1
1
1
1
1
1
1
1
1
1
1
1
1
1
1
1
1
1
1
1
1
1
1
1
1
1
1
1
1
1
1
1
1
1
1
1
1
1
1
1
1
1
1
1
1
1
1
1
1
1
1
1
1
1
1
1
1
1
1
1
1
1
1
1
1
1
1
1
1
1
1
1
1
1
1
1
1
1
1
1
1.34802
2.4945
2.69696
2.69789
2.69986
2.70162
2.70333
2.70501
2.707
2.70904
2.71096
2.7129
2.7148
2.71654
2.71821
2.72009
2.72209
2.72404
2.7262
2.72867
2.73118
2.73335
2.735
2.73633
2.73772
2.73939
2.7415
2.74421
2.74752
2.75095
2.75401
2.75652
2.75844
2.75984
2.76114
2.76254
2.76423
2.76629
2.76855
2.77062
2.7723
2.77366
2.77488
2.77604
2.77729
2.77885
2.78078
2.7827
2.78417
2.78502
2.78542
2.78559
2.78569
2.78581
2.78586
2.78599
2.78655
2.78788
2.79004
2.79305
2.79659
2.80015
2.80308
2.80517
2.80636
2.80682
2.80679
2.80643
2.8058
2.80538
2.80561
2.80692
2.80937
2.81224
2.81463
2.81586
2.81599
2.81565
2.81548
2.81628
2.81825
2.82075
2.82313
2.82516
2.82744
2.83125
2.83809
2.84858
2.86111
2.87209
2.87842
2.88043
1
1
1
1
1
1
1
1
1
1
1
1
1
1
1
1
1
1
1
1
1
1
1
1
1
1
1
1
1
1
1
1
1
1
1
1
1
1
1
1
1
1
1
1
1
1
1
1
1
1
1
1
1
1
1
1
1
1
1
1
1
1
1
1
1
1
1
1
1
1
1
1
1
1
1
1
1
1
1
1
1
1
1
1
1
1
1
1
1
1
1
1
1
1
1
1
1
1
1
1
1.29605
2.4716
2.69527
2.6957
2.69768
2.69985
2.702
2.70413
2.70647
2.7085
2.71022
2.71203
2.71395
2.71587
2.71782
2.71984
2.72173
2.72351
2.72553
2.72802
2.7308
2.73344
2.73572
2.73751
2.73897
2.74031
2.74178
2.74374
2.74643
2.74967
2.75302
2.75607
2.75846
2.76012
2.76139
2.7626
2.76403
2.76589
2.76807
2.77017
2.77188
2.77318
2.77423
2.77521
2.77634
2.77789
2.77992
2.78199
2.78363
2.78458
2.78495
2.78504
2.78502
2.78505
2.78509
2.78533
2.78618
2.78778
2.78998
2.79285
2.79612
2.79949
2.80229
2.80437
2.80569
2.8063
2.80638
2.80603
2.80535
2.80488
2.80508
2.80638
2.80881
2.81161
2.8139
2.81513
2.81534
2.81507
2.81496
2.81581
2.81774
2.82015
2.82252
2.82465
2.827
2.83085
2.83768
2.84813
2.8606
2.87152
2.87779
2.87976
1
1
1
1
1
1
1
1
1
1
1
1
1
1
1
1
1
1
1
1
1
1
1
1
1
1
1
1
1
1
1
1
1
1
1
1
1
1
1
1
1
1
1
1
1
1
1
1
1
1
1
1
1
1
1
1
1
1
1
1
1
1
1
1
1
1
1
1
1
1
1
1
1
1
1
1
1
1
1
1
1
1
1
1
1
1
1
1
1
1
1
1
1
1
1
1
1
1
1
1
1.24144
2.44361
2.69251
2.69286
2.6951
2.69781
2.70063
2.70348
2.70626
2.70836
2.71005
2.71174
2.71359
2.71556
2.71768
2.71975
2.72152
2.72308
2.72486
2.72729
2.73027
2.73335
2.73619
2.73848
2.74006
2.74112
2.74207
2.74337
2.74544
2.7484
2.75193
2.75545
2.75832
2.76022
2.7615
2.76258
2.76384
2.76551
2.76756
2.76959
2.77123
2.77244
2.77338
2.7743
2.77545
2.77708
2.77919
2.78134
2.78302
2.78396
2.78429
2.7843
2.78423
2.78425
2.7844
2.78486
2.78597
2.7877
2.78979
2.79246
2.79552
2.79874
2.80157
2.80373
2.80513
2.80574
2.80577
2.80538
2.80473
2.80433
2.80461
2.80596
2.80831
2.8109
2.81303
2.81428
2.81467
2.81454
2.81457
2.81543
2.8172
2.81943
2.82177
2.82401
2.82651
2.83042
2.83723
2.84759
2.85996
2.87084
2.87714
2.87912
1
1
1
1
1
1
1
1
1
1
1
1
1
1
1
1
1
1
1
1
1
1
1
1
1
1
1
1
1
1
1
1
1
1
1
1
1
1
1
1
1
1
1
1
1
1
1
1
1
1
1
1
1
1
1
1
1
1
1
1
1
1
1
1
1
1
1
1
1
1
1
1
1
1
1
1
1
1
1
1
1
1
1
1
1
1
1
1
1
1
1
1
1
1
1
1
1
1
1
1
1.18178
2.40707
2.68895
2.69063
2.69296
2.69599
2.69947
2.70309
2.70632
2.70862
2.71041
2.71218
2.71406
2.71604
2.71809
2.71993
2.72135
2.72259
2.7241
2.72642
2.72955
2.73301
2.7363
2.73901
2.74078
2.74175
2.74241
2.74324
2.74472
2.7473
2.75083
2.75468
2.75798
2.76017
2.76152
2.76254
2.76365
2.7651
2.7669
2.76875
2.77029
2.77145
2.77242
2.77344
2.77471
2.77642
2.77853
2.78063
2.78226
2.78312
2.78339
2.78338
2.78334
2.78346
2.78384
2.78455
2.78582
2.78753
2.78944
2.79189
2.7948
2.798
2.80096
2.80326
2.80465
2.80512
2.80499
2.80446
2.80391
2.80373
2.80421
2.80568
2.80785
2.81013
2.81205
2.81331
2.81388
2.81401
2.81426
2.81514
2.81669
2.81868
2.82091
2.82324
2.8259
2.82991
2.8367
2.84694
2.85921
2.87006
2.87647
2.87848
1
1
1
1
1
1
1
1
1
1
1
1
1
1
1
1
1
1
1
1
1
1
1
1
1
1
1
1
1
1
1
1
1
1
1
1
1
1
1
1
1
1
1
1
1
1
1
1
1
1
1
1
1
1
1
1
1
1
1
1
1
1
1
1
1
1
1
1
1
1
1
1
1
1
1
1
1
1
1
1
1
1
1
1
1
1
1
1
1
1
1
1
1
1
1
1
1
1
1
1
1.11587
2.36494
2.68704
2.69009
2.69208
2.69516
2.69899
2.70313
2.70669
2.70927
2.71129
2.71326
2.71523
2.71713
2.71883
2.72013
2.72108
2.722
2.72333
2.72555
2.72874
2.73246
2.73613
2.73915
2.74107
2.7421
2.74264
2.74321
2.74429
2.74646
2.74981
2.75378
2.7574
2.75995
2.76146
2.76247
2.76342
2.7646
2.7661
2.76769
2.76912
2.77033
2.77146
2.77267
2.77411
2.77586
2.77786
2.77981
2.78131
2.78206
2.78228
2.78234
2.78244
2.78279
2.78343
2.78434
2.78562
2.78718
2.78886
2.79115
2.79403
2.79732
2.80048
2.80289
2.80418
2.80443
2.80409
2.80343
2.80299
2.80308
2.8039
2.80548
2.80739
2.8093
2.81098
2.81224
2.81299
2.81344
2.81398
2.81489
2.81622
2.81795
2.82003
2.82237
2.82516
2.82926
2.83603
2.84618
2.85838
2.86924
2.87577
2.87782
1
1
1
1
1
1
1
1
1
1
1
1
1
1
1
1
1
1
1
1
1
1
1
1
1
1
1
1
1
1
1
1
1
1
1
1
1
1
1
1
1
1
1
1
1
1
1
1
1
1
1
1
1
1
1
1
1
1
1
1
1
1
1
1
1
1
1
1
1
1
1
1
1
1
1
1
1
1
1
1
1
1
1
1
1
1
1
1
1
1
1
1
1
1
1
1
1
1
1
1
1.03485
2.31924
2.68916
2.69052
2.69184
2.69472
2.69848
2.70262
2.70636
2.70952
2.71224
2.71479
2.71707
2.71893
2.72018
2.72083
2.72124
2.72178
2.72279
2.72479
2.72786
2.73158
2.73547
2.7388
2.74099
2.74222
2.74286
2.74335
2.74419
2.74594
2.74895
2.75277
2.75652
2.75936
2.76112
2.76218
2.76302
2.76397
2.76517
2.76652
2.76787
2.76919
2.77053
2.77196
2.77354
2.77527
2.7771
2.77881
2.7801
2.78076
2.78101
2.78122
2.78158
2.78223
2.7831
2.78408
2.78524
2.78658
2.78809
2.7903
2.79327
2.79673
2.80005
2.80249
2.80363
2.80366
2.8031
2.80239
2.80211
2.80247
2.80363
2.80522
2.80686
2.80843
2.80985
2.8111
2.81202
2.81282
2.81369
2.81464
2.81578
2.81727
2.81916
2.82143
2.82426
2.82843
2.83522
2.84532
2.85749
2.8684
2.87506
2.87714
1
1
1
1
1
1
1
1
1
1
1
1
1
1
1
1
1
1
1
1
1
1
1
1
1
1
1
1
1
1
1
1
1
1
1
1
1
1
1
1
1
1
1
1
1
1
1
1
1
1
1
1
1
1
1
1
1
1
1
1
1
1
1
1
1
1
1
1
1
1
1
1
1
1
1
1
1
1
1
1
1
1
1
1
1
1
1
1
1
1
1
1
1
1
1
1
1
1
1
1
1.00088
2.26819
2.68875
2.6901
2.69164
2.69446
2.69802
2.70209
2.70609
2.70973
2.71308
2.71619
2.71878
2.7206
2.72153
2.72171
2.7216
2.72174
2.72246
2.72414
2.72688
2.73033
2.73418
2.73781
2.74048
2.74212
2.74302
2.7436
2.74429
2.74567
2.74822
2.7517
2.75537
2.75838
2.76039
2.76158
2.76241
2.76323
2.76423
2.7654
2.76669
2.76808
2.76958
2.77117
2.77284
2.77453
2.77617
2.77759
2.77863
2.77924
2.77964
2.78011
2.78082
2.78177
2.78277
2.78369
2.78464
2.78576
2.78719
2.78949
2.79264
2.79626
2.79963
2.80198
2.80294
2.8028
2.80208
2.80139
2.80129
2.80193
2.80327
2.80477
2.80617
2.80747
2.80868
2.80993
2.81105
2.81219
2.81332
2.81429
2.81533
2.81665
2.81835
2.82046
2.82321
2.82741
2.83424
2.84438
2.85658
2.86756
2.87432
2.87641
1
1
1
1
1
1
1
1
1
1
1
1
1
1
1
1
1
1
1
1
1
1
1
1
1
1
1
1
1
1
1
1
1
1
1
1
1
1
1
1
1
1
1
1
1
1
1
1
1
1
1
1
1
1
1
1
1
1
1
1
1
1
1
1
1
1
1
1
1
1
1
1
1
1
1
1
1
1
1
1
1
1
1
1
1
1
1
1
1
1
1
1
1
1
1
1
1
1
1
1
1
2.20629
2.68929
2.69075
2.69211
2.69455
2.69747
2.70121
2.70541
2.70955
2.7134
2.71689
2.71969
2.72154
2.72234
2.72243
2.72216
2.72204
2.72249
2.72375
2.72594
2.72886
2.73239
2.73615
2.73938
2.74168
2.74302
2.74382
2.74448
2.74558
2.74766
2.75066
2.75404
2.75703
2.75918
2.76052
2.76144
2.76231
2.76329
2.76442
2.76568
2.76708
2.7686
2.77024
2.77193
2.77356
2.77499
2.77612
2.77695
2.77759
2.77823
2.77905
2.78015
2.78135
2.78238
2.78315
2.78385
2.78477
2.78625
2.78873
2.79212
2.79583
2.79917
2.80132
2.80208
2.80183
2.80108
2.8005
2.80057
2.80143
2.80281
2.80411
2.80529
2.80639
2.80751
2.80883
2.81013
2.81155
2.81284
2.81382
2.81481
2.81603
2.81757
2.8195
2.82208
2.82623
2.83311
2.84334
2.85566
2.86673
2.87355
2.87565
1
1
1
1
1
1
1
1
1
1
1
1
1
1
1
1
1
1
1
1
1
1
1
1
1
1
1
1
1
1
1
1
1
1
1
1
1
1
1
1
1
1
1
1
1
1
1
1
1
1
1
1
1
1
1
1
1
1
1
1
1
1
1
1
1
1
1
1
1
1
1
1
1
1
1
1
1
1
1
1
1
1
1
1
1
1
1
1
1
1
1
1
1
1
1
1
1
1
1
1
1
2.13696
2.68599
2.6918
2.69308
2.69485
2.69696
2.70026
2.70449
2.70899
2.71319
2.71683
2.7197
2.72157
2.72242
2.72274
2.72265
2.72252
2.72279
2.72363
2.72518
2.72738
2.73036
2.73405
2.73779
2.74085
2.74283
2.7439
2.74459
2.74547
2.74713
2.74963
2.75264
2.75549
2.75769
2.75918
2.76026
2.76127
2.76238
2.76358
2.76485
2.7662
2.76763
2.76917
2.77076
2.77228
2.77354
2.77448
2.7752
2.77591
2.77682
2.77801
2.77944
2.78083
2.78186
2.78247
2.78295
2.78373
2.78533
2.78805
2.79164
2.79542
2.79864
2.80054
2.80108
2.80077
2.80011
2.7997
2.79991
2.80087
2.80214
2.80318
2.80419
2.80518
2.80636
2.80783
2.80931
2.81089
2.81222
2.81318
2.81416
2.81533
2.81679
2.81852
2.8209
2.82494
2.83186
2.84224
2.85472
2.8659
2.87274
2.87484
1
1
1
1
1
1
1
1
1
1
1
1
1
1
1
1
1
1
1
1
1
1
1
1
1
1
1
1
1
1
1
1
1
1
1
1
1
1
1
1
1
1
1
1
1
1
1
1
1
1
1
1
1
1
1
1
1
1
1
1
1
1
1
1
1
1
1
1
1
1
1
1
1
1
1
1
1
1
1
1
1
1
1
1
1
1
1
1
1
1
1
1
1
1
1
1
1
1
1
1
1
2.06202
2.67661
2.69316
2.694
2.69518
2.69673
2.69971
2.70369
2.70805
2.71226
2.71592
2.71881
2.72082
2.72184
2.72255
2.72295
2.72298
2.72319
2.72371
2.7247
2.72616
2.72839
2.73175
2.73579
2.73956
2.74222
2.74366
2.74442
2.74519
2.74656
2.74866
2.75128
2.75391
2.75607
2.75764
2.75888
2.76009
2.76139
2.76274
2.76409
2.76539
2.76668
2.76803
2.76941
2.77073
2.77186
2.77275
2.7735
2.77433
2.77544
2.77691
2.77861
2.78016
2.78122
2.78176
2.78211
2.78282
2.78451
2.78741
2.79113
2.79491
2.79797
2.79964
2.8
2.79967
2.79916
2.79896
2.79927
2.8002
2.80124
2.802
2.80288
2.80391
2.80528
2.80695
2.8086
2.81023
2.81148
2.81238
2.81335
2.81454
2.81596
2.81754
2.81971
2.82361
2.83055
2.84107
2.85372
2.86502
2.87189
2.87401
1
1
1
1
1
1
1
1
1
1
1
1
1
1
1
1
1
1
1
1
1
1
1
1
1
1
1
1
1
1
1
1
1
1
1
1
1
1
1
1
1
1
1
1
1
1
1
1
1
1
1
1
1
1
1
1
1
1
1
1
1
1
1
1
1
1
1
1
1
1
1
1
1
1
1
1
1
1
1
1
1
1
1
1
1
1
1
1
1
1
1
1
1
1
1
1
1
1
1
1
1
1.98189
2.66169
2.69393
2.69441
2.69546
2.69698
2.69981
2.70332
2.70702
2.71064
2.71395
2.71681
2.71907
2.72064
2.722
2.72294
2.72324
2.72341
2.7237
2.72424
2.72511
2.72664
2.72952
2.73358
2.73786
2.74111
2.74301
2.74395
2.74469
2.74587
2.74766
2.74997
2.75236
2.75446
2.75612
2.75749
2.75883
2.76026
2.76175
2.7632
2.76448
2.76561
2.76671
2.76784
2.76898
2.77008
2.77106
2.77195
2.7729
2.77412
2.77573
2.77757
2.77928
2.78046
2.78104
2.7814
2.7821
2.78381
2.78674
2.79049
2.79424
2.79716
2.79866
2.7989
2.7986
2.79825
2.79821
2.79856
2.79935
2.8001
2.80061
2.80142
2.8026
2.80427
2.80615
2.80794
2.80953
2.81064
2.81144
2.8124
2.81362
2.81503
2.8165
2.81851
2.82227
2.8292
2.83984
2.85265
2.86408
2.87098
2.87312
1
1
1
1
1
1
1
1
1
1
1
1
1
1
1
1
1
1
1
1
1
1
1
1
1
1
1
1
1
1
1
1
1
1
1
1
1
1
1
1
1
1
1
1
1
1
1
1
1
1
1
1
1
1
1
1
1
1
1
1
1
1
1
1
1
1
1
1
1
1
1
1
1
1
1
1
1
1
1
1
1
1
1
1
1
1
1
1
1
1
1
1
1
1
1
1
1
1
1
1
1
1.89493
2.64257
2.69346
2.6941
2.69558
2.69757
2.70042
2.70336
2.70614
2.70883
2.71143
2.71401
2.71651
2.71877
2.72088
2.72255
2.72322
2.7234
2.72355
2.72379
2.72426
2.72526
2.72759
2.73137
2.73584
2.73948
2.7418
2.74311
2.74391
2.745
2.74663
2.74874
2.75097
2.75299
2.75467
2.75609
2.75745
2.7589
2.76049
2.76205
2.76338
2.76442
2.76531
2.76621
2.76722
2.76837
2.76951
2.77059
2.77163
2.77287
2.77446
2.77635
2.77821
2.77959
2.78038
2.78088
2.78162
2.78323
2.78602
2.78965
2.79332
2.79616
2.79761
2.79783
2.79759
2.79736
2.79738
2.79769
2.79826
2.79873
2.79909
2.79991
2.80131
2.80333
2.8054
2.80727
2.80876
2.80971
2.8104
2.81133
2.81257
2.81399
2.81541
2.81732
2.82096
2.82785
2.83856
2.8515
2.86303
2.86997
2.87217
1
1
1
1
1
1
1
1
1
1
1
1
1
1
1
1
1
1
1
1
1
1
1
1
1
1
1
1
1
1
1
1
1
1
1
1
1
1
1
1
1
1
1
1
1
1
1
1
1
1
1
1
1
1
1
1
1
1
1
1
1
1
1
1
1
1
1
1
1
1
1
1
1
1
1
1
1
1
1
1
1
1
1
1
1
1
1
1
1
1
1
1
1
1
1
1
1
1
1
1
1
1.7983
2.62036
2.69119
2.69273
2.69547
2.69819
2.70104
2.7034
2.70528
2.70702
2.70886
2.71094
2.71335
2.71609
2.719
2.7215
2.7228
2.72312
2.7232
2.72324
2.72351
2.72419
2.72599
2.7293
2.73359
2.73737
2.74014
2.74183
2.74288
2.74397
2.74548
2.74747
2.74962
2.75162
2.75331
2.75472
2.75606
2.75747
2.75905
2.76067
2.76206
2.76308
2.76387
2.76463
2.76558
2.76681
2.76811
2.76935
2.77048
2.77169
2.77319
2.77506
2.77705
2.77868
2.77977
2.78048
2.78127
2.78272
2.78523
2.78861
2.79215
2.79498
2.79648
2.79681
2.79665
2.79645
2.79641
2.79661
2.79693
2.79718
2.79752
2.79844
2.80009
2.80238
2.80461
2.80651
2.80789
2.8087
2.8093
2.8102
2.81143
2.81283
2.81423
2.81611
2.81969
2.82652
2.83725
2.85027
2.86188
2.86886
2.87111
1
1
1
1
1
1
1
1
1
1
1
1
1
1
1
1
1
1
1
1
1
1
1
1
1
1
1
1
1
1
1
1
1
1
1
1
1
1
1
1
1
1
1
1
1
1
1
1
1
1
1
1
1
1
1
1
1
1
1
1
1
1
1
1
1
1
1
1
1
1
1
1
1
1
1
1
1
1
1
1
1
1
1
1
1
1
1
1
1
1
1
1
1
1
1
1
1
1
1
1
1
1.68922
2.59386
2.6878
2.69096
2.69501
2.69818
2.70113
2.70309
2.70425
2.70528
2.70647
2.708
2.71012
2.713
2.71639
2.71967
2.72171
2.72239
2.72254
2.72259
2.7228
2.72331
2.72467
2.72742
2.7313
2.73509
2.73817
2.74017
2.7416
2.7428
2.74426
2.74615
2.74825
2.75026
2.75198
2.75337
2.75465
2.75596
2.75744
2.75906
2.76051
2.7616
2.76242
2.76316
2.76412
2.76544
2.76683
2.76817
2.76938
2.77059
2.77201
2.77386
2.77593
2.7778
2.77918
2.78012
2.78096
2.78222
2.78437
2.78741
2.7908
2.79365
2.79531
2.79582
2.79574
2.79549
2.79525
2.79525
2.79537
2.79552
2.79595
2.79707
2.79894
2.80138
2.8037
2.80561
2.8069
2.80764
2.8082
2.80903
2.8102
2.81156
2.81297
2.81486
2.81843
2.82522
2.83592
2.84897
2.86062
2.86764
2.86993
1
1
1
1
1
1
1
1
1
1
1
1
1
1
1
1
1
1
1
1
1
1
1
1
1
1
1
1
1
1
1
1
1
1
1
1
1
1
1
1
1
1
1
1
1
1
1
1
1
1
1
1
1
1
1
1
1
1
1
1
1
1
1
1
1
1
1
1
1
1
1
1
1
1
1
1
1
1
1
1
1
1
1
1
1
1
1
1
1
1
1
1
1
1
1
1
1
1
1
1
1
1.57036
2.56032
2.68484
2.68866
2.69346
2.69698
2.70005
2.7019
2.70285
2.70357
2.7044
2.7056
2.70742
2.71013
2.71359
2.71728
2.71996
2.72118
2.72157
2.72175
2.72201
2.72247
2.72353
2.72571
2.72904
2.73279
2.73607
2.7384
2.74015
2.74156
2.74302
2.74477
2.74676
2.74873
2.75051
2.75195
2.75319
2.75445
2.75582
2.75736
2.75882
2.76001
2.76097
2.76182
2.76288
2.76425
2.76566
2.76704
2.7683
2.76955
2.77098
2.77284
2.77498
2.77699
2.77856
2.77966
2.78054
2.78163
2.78343
2.78612
2.78934
2.79223
2.7941
2.79483
2.79479
2.7944
2.79388
2.79363
2.79365
2.79386
2.79448
2.79584
2.79784
2.80029
2.80261
2.80452
2.80579
2.80653
2.80708
2.80783
2.80891
2.81022
2.81163
2.81356
2.81715
2.82392
2.83457
2.84759
2.85925
2.8663
2.8686
1
1
1
1
1
1
1
1
1
1
1
1
1
1
1
1
1
1
1
1
1
1
1
1
1
1
1
1
1
1
1
1
1
1
1
1
1
1
1
1
1
1
1
1
1
1
1
1
1
1
1
1
1
1
1
1
1
1
1
1
1
1
1
1
1
1
1
1
1
1
1
1
1
1
1
1
1
1
1
1
1
1
1
1
1
1
1
1
1
1
1
1
1
1
1
1
1
1
1
1
1
1.4428
2.51821
2.68326
2.68581
2.69043
2.69452
2.69795
2.70007
2.70115
2.70185
2.7026
2.7037
2.7054
2.70791
2.71118
2.71487
2.7179
2.71963
2.72039
2.7208
2.72118
2.72165
2.72252
2.72421
2.727
2.73057
2.73388
2.73654
2.73861
2.74026
2.74179
2.74339
2.74521
2.74706
2.74884
2.7504
2.75173
2.75303
2.75434
2.75575
2.75713
2.75836
2.75948
2.76054
2.76177
2.7632
2.76459
2.76594
2.76725
2.76858
2.77013
2.77206
2.77424
2.77628
2.77789
2.77903
2.7799
2.78086
2.78239
2.78477
2.78784
2.79078
2.79284
2.79375
2.7937
2.7931
2.7923
2.79185
2.79185
2.79223
2.79317
2.79472
2.79674
2.7991
2.80134
2.80324
2.80455
2.80537
2.80595
2.80661
2.8076
2.80882
2.81021
2.81219
2.81583
2.82259
2.83319
2.84616
2.85779
2.86485
2.86712
1
1
1
1
1
1
1
1
1
1
1
1
1
1
1
1
1
1
1
1
1
1
1
1
1
1
1
1
1
1
1
1
1
1
1
1
1
1
1
1
1
1
1
1
1
1
1
1
1
1
1
1
1
1
1
1
1
1
1
1
1
1
1
1
1
1
1
1
1
1
1
1
1
1
1
1
1
1
1
1
1
1
1
1
1
1
1
1
1
1
1
1
1
1
1
1
1
1
1
1
1
1.31299
2.46725
2.68426
2.68344
2.6869
2.69132
2.69524
2.69785
2.69933
2.70027
2.70118
2.7024
2.70413
2.70648
2.70944
2.71283
2.71579
2.71787
2.71904
2.71975
2.72031
2.72086
2.72166
2.72308
2.72537
2.72855
2.73191
2.73478
2.73707
2.73896
2.74061
2.74211
2.74368
2.74532
2.74701
2.7487
2.75027
2.75172
2.75303
2.75431
2.75554
2.75672
2.75796
2.75925
2.76071
2.76225
2.76363
2.76493
2.76625
2.7677
2.76943
2.77149
2.77369
2.77567
2.77716
2.77819
2.77897
2.77984
2.78121
2.78341
2.78635
2.78934
2.79153
2.79251
2.7924
2.7916
2.79058
2.79003
2.79007
2.79071
2.79197
2.79364
2.79561
2.79779
2.79991
2.8018
2.80319
2.80411
2.80475
2.80535
2.80625
2.80739
2.80875
2.81076
2.81444
2.82119
2.83174
2.84464
2.85623
2.86327
2.86549
1
1
1
1
1
1
1
1
1
1
1
1
1
1
1
1
1
1
1
1
1
1
1
1
1
1
1
1
1
1
1
1
1
1
1
1
1
1
1
1
1
1
1
1
1
1
1
1
1
1
1
1
1
1
1
1
1
1
1
1
1
1
1
1
1
1
1
1
1
1
1
1
1
1
1
1
1
1
1
1
1
1
1
1
1
1
1
1
1
1
1
1
1
1
1
1
1
1
1
1
1
1.18779
2.4067
2.68375
2.68256
2.68533
2.68957
2.69335
2.69605
2.69785
2.69932
2.70072
2.70225
2.70401
2.70615
2.70874
2.71157
2.71409
2.71617
2.71765
2.71869
2.71951
2.72024
2.72108
2.72239
2.72438
2.72705
2.73017
2.7331
2.73556
2.73766
2.73943
2.74088
2.74222
2.74359
2.74514
2.74696
2.74886
2.75057
2.75195
2.75311
2.75414
2.75518
2.75643
2.75792
2.75965
2.76135
2.76276
2.76403
2.76534
2.7669
2.76883
2.77103
2.77324
2.77509
2.77637
2.77719
2.77781
2.77859
2.7799
2.78205
2.78493
2.78792
2.79011
2.79103
2.79082
2.78988
2.78878
2.78825
2.78839
2.78929
2.79081
2.79253
2.7944
2.79638
2.7984
2.80027
2.80173
2.80275
2.80344
2.80403
2.80486
2.80593
2.80727
2.80928
2.81296
2.8197
2.8302
2.84304
2.85459
2.86158
2.86374
1
1
1
1
1
1
1
1
1
1
1
1
1
1
1
1
1
1
1
1
1
1
1
1
1
1
1
1
1
1
1
1
1
1
1
1
1
1
1
1
1
1
1
1
1
1
1
1
1
1
1
1
1
1
1
1
1
1
1
1
1
1
1
1
1
1
1
1
1
1
1
1
1
1
1
1
1
1
1
1
1
1
1
1
1
1
1
1
1
1
1
1
1
1
1
1
1
1
1
1
1
1.073
2.34733
2.68463
2.68348
2.68527
2.689
2.69222
2.6947
2.69651
2.69817
2.69996
2.70195
2.70412
2.70646
2.70897
2.71131
2.71319
2.7147
2.71608
2.71732
2.71843
2.71944
2.72056
2.72215
2.72413
2.72644
2.72905
2.73164
2.73404
2.73633
2.7383
2.73975
2.74091
2.74201
2.74337
2.74529
2.74753
2.74957
2.75105
2.7521
2.75293
2.75377
2.75498
2.75663
2.75862
2.76052
2.76202
2.76327
2.76456
2.76618
2.76824
2.77056
2.77277
2.77448
2.77551
2.77606
2.77648
2.77718
2.77852
2.78072
2.78358
2.78647
2.78852