/*--------------------------------*- C++ -*----------------------------------*\
  =========                 |
  \\      /  F ield         | OpenFOAM: The Open Source CFD Toolbox
   \\    /   O peration     | Website:  https://openfoam.org
    \\  /    A nd           | Version:  7
     \\/     M anipulation  |
\*---------------------------------------------------------------------------*/
FoamFile
{
    version     2.0;
    format      ascii;
    class       volScalarField;
    location    "3";
    object      p;
}
// * * * * * * * * * * * * * * * * * * * * * * * * * * * * * * * * * * * * * //

dimensions      [1 -1 -2 0 0 0 0];

internalField   nonuniform List<scalar> 
16128
(
1
1
1
1
1
1
1
1
1
1
1
1
1
1
1
1
1
1
1
1
1
1
1
1
4.07903
10.0586
10.5199
10.6085
10.7333
10.8436
10.9501
11.051
11.1471
11.2385
11.3249
11.4068
11.4849
11.5579
11.6246
11.6857
11.7433
11.7969
11.8454
11.8881
11.9237
11.9501
11.9684
11.9808
1
1
1
1
1
1
1
1
1
1
1
1
1
1
1
1
1
1
1
1
1
1
1
1
4.00545
10.0081
10.5169
10.6069
10.731
10.8405
10.9462
11.0463
11.1419
11.233
11.3189
11.4003
11.4777
11.55
11.616
11.6765
11.7335
11.7863
11.8338
11.8755
11.9103
11.9361
11.9542
11.9666
1
1
1
1
1
1
1
1
1
1
1
1
1
1
1
1
1
1
1
1
1
1
1
1
3.8399
9.94439
10.5044
10.5958
10.7197
10.8293
10.9347
11.0345
11.1301
11.2213
11.3072
11.3883
11.4654
11.5373
11.6028
11.6628
11.7188
11.7699
11.8153
11.855
11.8881
11.913
11.9305
11.9429
1
1
1
1
1
1
1
1
1
1
1
1
1
1
1
1
1
1
1
1
1
1
1
1
3.60308
9.84229
10.4923
10.5839
10.7052
10.8131
10.9172
11.0161
11.1114
11.2024
11.2881
11.3689
11.4454
11.5169
11.582
11.6414
11.6965
11.746
11.7892
11.8264
11.8571
11.88
11.8957
11.9071
1
1
1
1
1
1
1
1
1
1
1
1
1
1
1
1
1
1
1
1
1
1
1
1
3.3057
9.69019
10.4784
10.5698
10.6879
10.7941
10.8971
10.995
11.0894
11.18
11.2649
11.3447
11.42
11.4905
11.5548
11.6132
11.6668
11.7143
11.7551
11.7898
11.8183
11.8398
11.8538
11.8645
1
1
1
1
1
1
1
1
1
1
1
1
1
1
1
1
1
1
1
1
1
1
1
1
2.95531
9.46659
10.4601
10.5478
10.6631
10.7675
10.8692
10.9658
11.0589
11.1482
11.2315
11.3093
11.3826
11.4516
11.5148
11.5725
11.6255
11.6722
11.712
11.7453
11.772
11.792
11.804
11.8133
1
1
1
1
1
1
1
1
1
1
1
1
1
1
1
1
1
1
1
1
1
1
1
1
2.56379
9.15931
10.4427
10.5232
10.6364
10.7372
10.8358
10.9298
11.0203
11.1073
11.1883
11.2641
11.3355
11.4033
11.4658
11.5225
11.5738
11.6185
11.656
11.6871
11.712
11.7307
11.7414
11.7506
1
1
1
1
1
1
1
1
1
1
1
1
1
1
1
1
1
1
1
1
1
1
1
1
2.15234
8.75923
10.4424
10.4984
10.611
10.7085
10.8045
10.895
10.9817
11.0656
11.1439
11.217
11.2852
11.35
11.4096
11.4634
11.5119
11.5542
11.5896
11.6185
11.6415
11.6585
11.6674
11.6758
1
1
1
1
1
1
1
1
1
1
1
1
1
1
1
1
1
1
1
1
1
1
1
1
1.72989
8.22797
10.4495
10.4733
10.5801
10.671
10.7636
10.8517
10.936
11.0173
11.0932
11.1637
11.2286
11.2892
11.3446
11.394
11.4379
11.4759
11.5074
11.5329
11.5536
11.5691
11.5773
11.586
1
1
1
1
1
1
1
1
1
1
1
1
1
1
1
1
1
1
1
1
1
1
1
1
1.3384
7.62246
10.473
10.4295
10.5298
10.6162
10.7091
10.7973
10.8796
10.9581
11.0321
11.1004
11.1623
11.2185
11.2693
11.3136
11.3523
11.3858
11.4133
11.4346
11.451
11.4613
11.4654
11.4709
1
1
1
1
1
1
1
1
1
1
1
1
1
1
1
1
1
1
1
1
1
1
1
1
1.02951
6.89108
10.3557
10.369
10.4641
10.5509
10.6404
10.7268
10.8108
10.8889
10.9606
11.0262
11.0851
11.1367
11.1819
11.2203
11.2524
11.2783
11.2973
11.3099
11.3197
11.3253
11.3278
11.3347
1
1
1
1
1
1
1
1
1
1
1
1
1
1
1
1
1
1
1
1
1
1
1
1
1.00027
5.95254
10.1579
10.2852
10.3907
10.4905
10.5814
10.6647
10.7371
10.8082
10.8776
10.9401
10.9954
11.0422
11.0816
11.1135
11.1374
11.1544
11.1649
11.17
11.1714
11.1637
11.1513
11.1431
1
1
1
1
1
1
1
1
1
1
1
1
1
1
1
1
1
1
1
1
1
1
1
1
0.999999
4.9543
9.90801
10.2029
10.3093
10.4136
10.5026
10.5836
10.6579
10.7244
10.7831
10.8385
10.8889
10.9307
10.9636
10.9886
11.0034
11.0096
11.0052
10.9902
10.9666
10.9409
10.9148
10.9147
1
1
1
1
1
1
1
1
1
1
1
1
1
1
1
1
1
1
1
1
1
1
1
1
1
3.91068
9.5353
10.1426
10.2651
10.3652
10.4462
10.5155
10.5744
10.6275
10.6781
10.7252
10.7673
10.8025
10.8291
10.8462
10.8489
10.8404
10.8164
10.7825
10.739
10.6933
10.6255
10.548
1
1
1
1
1
1
1
1
1
1
1
1
1
1
1
1
1
1
1
1
1
1
1
1
1
2.8741
8.97308
10.1033
10.2062
10.3054
10.3871
10.4509
10.501
10.543
10.579
10.6101
10.639
10.6634
10.68
10.6837
10.6724
10.6462
10.5994
10.5332
10.4338
10.2949
10.1509
10.0453
1
1
1
1
1
1
1
1
1
1
1
1
1
1
1
1
1
1
1
1
1
1
1
1
1
1.83939
8.1871
10.193
10.1824
10.267
10.3304
10.3773
10.4174
10.4524
10.4813
10.5014
10.5147
10.5231
10.5262
10.511
10.4815
10.43
10.349
10.2321
10.0713
9.87096
9.66019
9.57039
1
1
1
1
1
1
1
1
1
1
1
1
1
1
1
1
1
1
1
1
1
1
1
1
1
1.0912
7.12428
10.2486
10.1604
10.1812
10.241
10.2864
10.3248
10.3546
10.3752
10.3852
10.3854
10.3781
10.3614
10.3283
10.2752
10.1943
10.0765
9.91344
9.67275
9.28619
8.41632
6.49955
1
1
1
1
1
1
1
1
1
1
1
1
1
1
1
1
1
1
1
1
1
1
1
1
1
1.00072
5.73266
9.84483
9.9494
10.043
10.1176
10.1731
10.2173
10.248
10.2639
10.2672
10.256
10.2328
10.1958
10.1434
10.0639
9.95131
9.79205
9.5633
9.21786
8.62183
7.68357
5.51211
1
1
1
1
1
1
1
1
1
1
1
1
1
1
1
1
1
1
1
1
1
1
1
1
1
0.999991
4.2313
9.47245
9.92111
10.0076
10.056
10.0859
10.1169
10.1396
10.1487
10.1435
10.1221
10.0833
10.0257
9.95093
9.84632
9.70171
9.50209
9.21449
8.79302
8.13727
7.06139
5.18087
1
1
1
1
1
1
1
1
1
1
1
1
1
1
1
1
1
1
1
1
1
1
1
1
1
0.999998
2.72152
8.73311
9.88124
9.93591
9.97085
10.0019
10.0262
10.0417
10.0382
10.0208
9.98713
9.9334
9.8575
9.76007
9.63142
9.45836
9.22172
8.89312
8.41185
7.75508
6.6275
5.1342
1
1
1
1
1
1
1
1
1
1
1
1
1
1
1
1
1
1
1
1
1
1
1
1
1
1
1.46413
7.81499
10.0325
9.88442
9.88955
9.91407
9.92592
9.92937
9.91453
9.88883
9.84583
9.7813
9.69093
9.57347
9.42141
9.22426
8.95794
8.60504
8.10555
7.44482
6.39842
5.22918
1
1
1
1
1
1
1
1
1
1
1
1
1
1
1
1
1
1
1
1
1
1
1
1
1
1
1.02445
6.35149
9.66923
9.67012
9.73526
9.78789
9.80654
9.80806
9.78805
9.75435
9.70084
9.62514
9.5224
9.38955
9.2188
9.00301
8.72042
8.35247
7.8601
7.21166
6.29858
5.35113
1
1
1
1
1
1
1
1
1
1
1
1
1
1
1
1
1
1
1
1
1
1
1
1
1
1
0.99995
4.44361
9.1876
9.6121
9.68371
9.7144
9.71635
9.70304
9.67364
9.62966
9.56507
9.47798
9.36425
9.21873
9.03323
8.80197
8.50967
8.1375
7.66538
7.04645
6.26293
5.47349
1
1
1
1
1
1
1
1
1
1
1
1
1
1
1
1
1
1
1
1
1
1
1
1
1
1
0.999985
2.54944
8.46067
9.62542
9.61556
9.6318
9.62615
9.59964
9.55923
9.50491
9.43052
9.33265
9.2076
9.05115
8.85595
8.61589
8.32062
7.95189
7.50443
6.93173
6.25962
5.57237
1
1
1
1
1
1
1
1
1
1
1
1
1
1
1
1
1
1
1
1
1
1
1
1
1
1
0.999997
1.21892
7.21788
9.71398
9.56809
9.52096
9.51547
9.48765
9.44286
9.38149
9.29917
9.19431
9.06104
8.8973
8.69653
8.45278
8.15938
7.79651
7.3674
6.84836
6.26614
5.65286
1
1
1
1
1
1
1
1
1
1
1
1
1
1
1
1
1
1
1
1
1
1
1
1
1
1
1
1.00441
5.37633
9.16469
9.35027
9.41524
9.41241
9.37711
9.32643
9.25923
9.17022
9.05946
8.92216
8.75379
8.55079
8.30431
8.01768
7.66441
7.24889
6.78075
6.27466
5.72
1
1
1
1
1
1
1
1
1
1
1
1
1
1
1
1
1
1
1
1
1
1
1
1
1
1
1
0.99995
3.06956
8.53884
9.35127
9.33944
9.32656
9.29244
9.23249
9.15329
9.05404
8.9345
8.79193
8.62004
8.41822
8.17736
7.89318
7.55354
7.15857
6.73561
6.28068
5.78277
1
1
1
1
1
1
1
1
1
1
1
1
1
1
1
1
1
1
1
1
1
1
1
1
1
1
1
0.999987
1.32506
7.41548
9.47789
9.29284
9.22538
9.18688
9.11964
9.03739
8.93564
8.81327
8.66879
8.49623
8.29479
8.06105
7.78139
7.45948
7.09105
6.70256
6.278
5.83462
1
1
1
1
1
1
1
1
1
1
1
1
1
1
1
1
1
1
1
1
1
1
1
1
1
1
1
0.999998
1.00996
5.46755
8.93996
9.06193
9.11639
9.08103
9.01128
8.92622
8.82374
8.70132
8.55576
8.38397
8.18565
7.95455
7.68417
7.38042
7.04211
6.68273
6.28573
5.88556
1
1
1
1
1
1
1
1
1
1
1
1
1
1
1
1
1
1
1
1
1
1
1
1
1
1
1
1
0.999918
2.92611
8.28014
9.06201
9.06752
9.00776
8.92856
8.83802
8.73029
8.60379
8.45518
8.27892
8.08706
7.85606
7.59603
7.30779
6.99657
6.66191
6.29539
5.92731
1
1
1
1
1
1
1
1
1
1
1
1
1
1
1
1
1
1
1
1
1
1
1
1
1
1
1
1
0.999979
1.27641
6.92407
9.11953
8.98747
8.91112
8.82748
8.73591
8.6298
8.50444
8.35784
8.18657
7.99313
7.77172
7.52317
7.2487
6.95815
6.64359
6.30781
5.965
1
1
1
1
1
1
1
1
1
1
1
1
1
1
1
1
1
1
1
1
1
1
1
1
1
1
1
1
0.999997
1.00638
4.58663
8.60918
8.81675
8.79136
8.73234
8.65178
8.54657
8.4188
8.27093
8.10083
7.90802
7.6944
7.45665
7.19666
6.92155
6.62461
6.31341
5.99047
1
1
1
1
1
1
1
1
1
1
1
1
1
1
1
1
1
1
1
1
1
1
1
1
1
1
1
1
1
0.999965
1.97993
7.84213
8.93143
8.7699
8.66847
8.57663
8.46773
8.33873
8.1924
8.02497
7.8372
7.62996
7.40139
7.15449
6.89107
6.60948
6.31694
6.01363
1
1
1
1
1
1
1
1
1
1
1
1
1
1
1
1
1
1
1
1
1
1
1
1
1
1
1
1
1
0.999991
1.07736
5.96636
8.67576
8.58713
8.54755
8.46981
8.36957
8.24876
8.10894
7.94755
7.76686
7.56773
7.3495
7.11472
6.86265
6.59501
6.31802
6.03399
1
1
1
1
1
1
1
1
1
1
1
1
1
1
1
1
1
1
1
1
1
1
1
1
1
1
1
1
1
0.999999
1.00029
3.06682
7.98864
8.5008
8.49186
8.42355
8.32181
8.19635
8.05383
7.89253
7.71404
7.51882
7.30671
7.07917
6.83672
6.58237
6.32054
6.05351
1
1
1
1
1
1
1
1
1
1
1
1
1
1
1
1
1
1
1
1
1
1
1
1
1
1
1
1
1
1
0.999999
1.28695
6.48684
8.59611
8.47465
8.37503
8.25733
8.1265
7.98535
7.82968
7.65797
7.46973
7.26488
7.04519
6.81374
6.5716
6.32403
6.07141
1
1
1
1
1
1
1
1
1
1
1
1
1
1
1
1
1
1
1
1
1
1
1
1
1
1
1
1
1
1
1
1.00648
3.77302
8.01448
8.32364
8.26854
8.1784
8.06549
7.93316
7.78161
7.61267
7.42803
7.22836
7.01619
6.79513
6.56336
6.32697
6.0872
1
1
1
1
1
1
1
1
1
1
1
1
1
1
1
1
1
1
1
1
1
1
1
1
1
1
1
1
1
1
1
0.999997
1.48865
6.72164
8.43146
8.27143
8.14959
8.02649
7.88845
7.73493
7.56738
7.38647
7.19296
6.989
6.77805
6.5574
6.33108
6.10345
1
1
1
1
1
1
1
1
1
1
1
1
1
1
1
1
1
1
1
1
1
1
1
1
1
1
1
1
1
1
1
0.999999
1.01909
4.16547
7.95024
8.12904
8.05886
7.95674
7.8288
7.68236
7.52068
7.34545
7.16004
6.96537
6.76439
6.55455
6.33778
6.11993
1
1
1
1
1
1
1
1
1
1
1
1
1
1
1
1
1
1
1
1
1
1
1
1
1
1
1
1
1
1
1
1
1.00004
1.62891
6.7172
8.216
8.05825
7.93486
7.79964
7.64943
7.48689
7.3146
7.13548
6.94833
6.75519
6.55437
6.34599
6.13589
1
1
1
1
1
1
1
1
1
1
1
1
1
1
1
1
1
1
1
1
1
1
1
1
1
1
1
1
1
1
1
1
1
1.03075
4.21216
7.79206
7.94683
7.86463
7.74325
7.59997
7.44482
7.28108
7.11058
6.93179
6.74606
6.55376
6.3533
6.14924
1
1
1
1
1
1
1
1
1
1
1
1
1
1
1
1
1
1
1
1
1
1
1
1
1
1
1
1
1
1
1
1
1
1.00012
1.6566
6.49919
7.98931
7.85289
7.71883
7.57466
7.42441
7.26703
7.10087
6.92549
6.74274
6.55503
6.36091
6.16232
1
1
1
1
1
1
1
1
1
1
1
1
1
1
1
1
1
1
1
1
1
1
1
1
1
1
1
1
1
1
1
1
1
1
1.03298
3.89417
7.56868
7.7748
7.66338
7.53659
7.39647
7.24499
7.08224
6.91083
6.73305
6.55078
6.36428
6.17425
1
1
1
1
1
1
1
1
1
1
1
1
1
1
1
1
1
1
1
1
1
1
1
1
1
1
1
1
1
1
1
1
1
1
1.00018
1.5467
6.11117
7.78189
7.66003
7.53822
7.39124
7.23429
7.07061
6.90241
6.73038
6.55394
6.37333
6.1897
1
1
1
1
1
1
1
1
1
1
1
1
1
1
1
1
1
1
1
1
1
1
1
1
1
1
1
1
1
1
1
1
1
1
1
1.02318
3.22454
7.22719
7.63454
7.50097
7.35406
7.20242
7.04739
6.88787
6.72362
6.55481
6.3805
6.20086
1
1
1
1
1
1
1
1
1
1
1
1
1
1
1
1
1
1
1
1
1
1
1
1
1
1
1
1
1
1
1
1
1
1
1
1.00014
1.33675
5.55262
7.67031
7.48654
7.33669
7.19113
7.04406
6.89038
6.72954
6.56406
6.39438
6.21856
1
1
1
1
1
1
1
1
1
1
1
1
1
1
1
1
1
1
1
1
1
1
1
1
1
1
1
1
1
1
1
1
1
1
1
1
1.00938
2.55672
6.7987
7.42644
7.30189
7.17165
7.02934
6.8796
6.72288
6.56061
6.3967
6.23068
1
1
1
1
1
1
1
1
1
1
1
1
1
1
1
1
1
1
1
1
1
1
1
1
1
1
1
1
1
1
1
1
1
1
1
1
1.00005
1.1672
4.64269
7.37147
7.31596
7.18908
7.04235
6.89186
6.73651
6.57646
6.41473
6.25374
1
1
1
1
1
1
1
1
1
1
1
1
1
1
1
1
1
1
1
1
1
1
1
1
1
1
1
1
1
1
1
1
1
1
1
1
1
1.00281
1.91767
6.1517
7.29415
7.15963
7.0237
6.87762
6.72806
6.57583
6.42036
6.26306
1
1
1
1
1
1
1
1
1
1
1
1
1
1
1
1
1
1
1
1
1
1
1
1
1
1
1
1
1
1
1
1
1
1
1
1
1
1.00001
1.06172
3.43611
6.8498
7.15203
7.02907
6.88921
6.7433
6.59305
6.44016
6.28549
1
1
1
1
1
1
1
1
1
1
1
1
1
1
1
1
1
1
1
1
1
1
1
1
1
1
1
1
1
1
1
1
1
1
1
1
1
1
1.00071
1.40125
5.13783
7.1568
7.04332
6.90018
6.75393
6.60486
6.45364
6.302
1
1
1
1
1
1
1
1
1
1
1
1
1
1
1
1
1
1
1
1
1
1
1
1
1
1
1
1
1
1
1
1
1
1
1
1
1
1
1
1.01367
2.31701
6.22058
7.00748
6.88581
6.74396
6.60182
6.45881
6.31373
1
1
1
1
1
1
1
1
1
1
1
1
1
1
1
1
1
1
1
1
1
1
1
1
1
1
1
1
1
1
1
1
1
1
1
1
1
1
1
1.0001
1.12281
3.77122
6.67898
6.89549
6.77091
6.62993
6.48992
6.34773
1
1
1
1
1
1
1
1
1
1
1
1
1
1
1
1
1
1
1
1
1
1
1
1
1
1
1
1
1
1
1
1
1
1
1
1
1
1
1
1
1.00208
1.52949
5.10269
6.85789
6.79075
6.65002
6.51169
6.36938
1
1
1
1
1
1
1
1
1
1
1
1
1
1
1
1
1
1
1
1
1
1
1
1
1
1
1
1
1
1
1
1
1
1
1
1
1
1
1
1
1.00001
1.02308
2.36138
5.97535
6.76333
6.66154
6.51978
6.38162
1
1
1
1
1
1
1
1
1
1
1
1
1
1
1
1
1
1
1
1
1
1
1
1
1
1
1
1
1
1
1
1
1
1
1
1
1
1
1
1
1
1.00022
1.13247
3.5382
6.39559
6.68676
6.55047
6.40663
1
1
1
1
1
1
1
1
1
1
1
1
1
1
1
1
1
1
1
1
1
1
1
1
1
1
1
1
1
1
1
1
1
1
1
1
1
1
1
1
1
1
1.00248
1.4521
4.69555
6.5525
6.57754
6.4416
1
1
1
1
1
1
1
1
1
1
1
1
1
1
1
1
1
1
1
1
1
1
1
1
1
1
1
1
1
1
1
1
1
1
1
1
1
1
1
1
1
1
1.00001
1.01814
2.07919
5.48543
6.53934
6.46548
1
1
1
1
1
1
1
1
1
1
1
1
1
1
1
1
1
1
1
1
1
1
1
1
1
1
1
1
1
1
1
1
1
1
1
1
1
1
1
1
1
1
1
1.00017
1.08662
2.94271
5.99402
6.47349
1
1
1
1
1
1
1
1
1
1
1
1
1
1
1
1
1
1
1
1
1
1
1
1
1
1
1
1
1
1
1
1
1
1
1
1
1
1
1
1
1
1
1
1
1.00142
1.27144
3.92432
6.19439
1
1
1
1
1
1
1
1
1
1
1
1
1
1
1
1
1
1
1
1
1
1
1
1
1
1
1
1
1
1
1
1
1
1
1
1
1
1
1
1
1
1
1
1
1.00001
1.00805
1.63971
4.74327
1
1
1
1
1
1
1
1
1
1
1
1
1
1
1
1
1
1
1
1
1
1
1
1
1
1
1
1
1
1
1
1
1
1
1
1
1
1
1
1
1
1
1
1
1
1.00006
1.03446
2.20125
1
1
1
1
1
1
1
1
1
1
1
1
1
1
1
1
1
1
1
1
1
1
1
1
1
1
1
1
1
1
1
1
1
1
1
1
1
1
1
1
1
1
1
1
1
1
1.00042
1.10907
1
1
1
1
1
1
1
1
1
1
1
1
1
1
1
1
1
1
1
1
1
1
1
1
1
1
1
1
1
1
1
1
1
1
1
1
1
1
1
1
1
1
1
1
1
1
1
1.00211
1
1
1
1
1
1
1
1
1
1
1
1
1
1
1
1
1
1
1
1
1
1
1
1
1
1
1
1
1
1
1
1
1
1
1
1
1
1
1
1
1
1
1
1
1
1
1
1.00001
1
1
1
1
1
1
1
1
1
1
1
1
1
1
1
1
1
1
1
1
1
1
1
1
1
1
1
1
1
1
1
1
1
1
1
1
1
1
1
1
1
1
1
1
1
1
1
1
1
1
1
1
1
1
1
1
1
1
1
1
1
1
1
1
1
1
1
1
1
1
1
1
1
1
1
1
1
1
1
1
1
1
1
1
1
1
1
1
1
1
1
1
1
1
1
1
1
1
1
1
1
1
1
1
1
1
1
1
1
1
1
1
1
1
1
1
1
1
1
1
1
1
1
1
1
1
1
1
1
1
1
1
1
1
1
1
1
1
1
1
1
1
1
1
1
1
1
1
1
1
1
1
1
1
1
1
1
1
1
1
1
1
1
1
1
1
1
1
1
1
1
1
1
1
1
1
1
1
1
1
1
1
1
1
1
1
1
1
1
1
1
1
1
1
1
1
1
1
1
1
1
1
1
1
1
1
1
1
1
1
1
1
1
1
1
1
1
1
1
1
1
1
1
1
1
1
1
1
1
1
1
1
1
1
1
1
1
1
1
1
1
1
1
1
1
1
1
1
1
1
1
1
1
1
1
1
1
1
1
1
1
1
1
1
1
1
1
1
1
1
1
1
1
1
1
1
1
1
1
1
1
1
1
1
1
1
1
1
1
1
1
1
1
1
1
1
1
1
1
1
1
1
1
1
1
1
1
1
1
1
1
1
1
1
1
1
1
1
1
1
1
1
1
1
1
1
1
1
1
1
1
1
1
1
1
1
1
1
1
1
1
1
1
1
1
1
1
1
1
1
1
1
1
1
1
1
1
1
1
1
1
1
1
1
1
1
1
1
1
1
1
1
1
1
1
1
1
1
1
1
1
1
1
1
1
1
1
1
1
1
1
1
1
1
1
1
1
1
1
1
1
1
1
1
1
1
1
1
1
1
1
1
1
1
1
1
1
1
1
1
1
1
1
1
1
1
1
1
1
1
1
1
1
1
1
1
1
1
1
1
1
1
1
1
1
1
1
1
1
1
1
1
1
1
1
1
1
1
1
1
1
1
1
1
1
1
1
1
1
1
1
1
1
1
1
1
1
1
1
1
1
1
1
1
1
1
1
1
1
1
1
1
1
1
1
1
1
1
1
1
1
1
1
1
1
1
1
1
1
1
1
1
1
1
1
1
1
1
1
1
1
1
1
1
1
1
1
1
1
1
1
1
1
1
1
1
1
1
1
1
1
1
1
1
1
1
1
1
1
1
1
1
1
1
1
1
1
1
1
1
1
1
1
1
1
1
1
1
1
1
1
1
1
1
1
1
1
1
1
1
1
1
1
1
1
1
1
1
1
1
1
1
1
1
1
1
1
1
1
1
1
1
1
1
1
1
1
1
1
1
1
1
1
1
1
1
1
1
1
1
1
1
1
1
1
1
1
1
1
1
1
1
1
1
1
1
1
1
1
1
1
1
1
1
1
1
1
1
1
1
1
1
1
1
1
1
1
1
1
1
1
1
1
1
1
1
1
1
1
1
1
1
1
1
1
1
1
1
1
1
1
1
1
1
1
1
1
1
1
1
1
1
1
1
1
1
1
1
1
1
1
1
1
1
1
1
1
1
1
1
1
1
1
1
1
1
1
1
1
1
1.25696
0.278206
0.0343919
0.0151175
0.0295108
0.0854735
0.150418
0.176423
0.242431
0.337058
0.408552
0.468967
0.504941
0.538877
0.595125
0.663793
0.754038
0.837146
0.923691
0.98385
0.991624
0.987026
0.970489
0.981947
1.00376
1.01865
1.03358
1.07046
1.1246
1.16853
1.19213
1.2003
1.20111
1.19514
1.19109
1.19749
1.21541
1.24399
1.26799
1.28042
1.27965
1.27602
1.27774
1.28136
1.28706
1.29222
1.29779
1.30304
1.30772
1.31275
1.3177
1.32186
1.3253
1.32912
1.33516
1.34208
1.34439
1.34223
1.33834
1.33147
1.32698
1.32678
1.33134
1.3426
1.35146
1.35069
1.34593
3.74744
6.1096
6.30982
6.35229
6.38389
6.39091
6.3751
6.3417
6.30772
6.28238
6.26552
6.2455
6.21347
6.1678
6.11307
6.05492
5.99732
5.94152
5.89047
5.84846
5.81801
5.79388
5.75948
5.69676
5.60144
5.49913
5.41085
5.34872
5.31613
5.2965
5.24611
5.17341
5.10428
5.04711
5.008
4.99429
4.99748
5.00131
4.9743
4.91559
4.83277
4.72228
4.62726
4.56515
4.52149
4.50707
4.52439
4.53381
4.50607
4.4592
4.40058
4.33573
4.28759
4.24756
4.21518
4.19486
4.16547
4.12536
4.08066
4.02951
3.98222
3.94653
3.91627
3.8957
3.88634
3.87401
3.84992
3.81811
3.77626
3.71509
3.63312
3.55762
3.50551
3.46492
3.4306
3.40188
3.37721
3.35981
3.34994
3.33978
3.32651
3.31234
3.29819
3.28276
3.26318
3.23653
3.19861
3.14316
3.07869
3.02675
2.99104
2.96594
2.94556
2.92714
2.91327
2.90449
2.89736
2.88886
2.87895
2.86625
2.84885
2.8294
2.80883
2.7873
2.76313
2.72917
2.67449
2.60235
2.54425
2.51572
2.5009
2.48997
2.48452
2.49403
2.51259
2.51309
2.49821
2.47694
2.44147
2.38383
2.31975
2.2773
2.25448
2.24332
2.23946
2.17467
1.05008
0.560529
0.291477
0.201589
0.218646
0.257805
0.25114
0.23702
0.240232
0.258823
0.30278
0.348471
0.393849
0.453099
0.519296
0.586756
0.648646
0.726401
0.804901
0.85596
0.892838
0.912207
0.934111
0.967934
1.01312
1.04655
1.08074
1.11864
1.14452
1.15822
1.16539
1.17371
1.18191
1.18492
1.19154
1.20771
1.23078
1.24902
1.26341
1.27074
1.27215
1.2732
1.27722
1.28467
1.29238
1.29949
1.30529
1.30888
1.31269
1.3168
1.31887
1.32022
1.32218
1.32519
1.32947
1.33453
1.33687
1.33561
1.33397
1.33085
1.32935
1.33222
1.33804
1.34138
1.34002
1.33824
3.4726
6.14654
6.40632
6.40701
6.39651
6.38418
6.36624
6.33009
6.28646
6.24455
6.21266
6.18482
6.1523
6.10899
6.05969
6.01068
5.96339
5.91107
5.84878
5.78628
5.73391
5.69844
5.67198
5.64121
5.59418
5.51914
5.4359
5.36321
5.31016
5.28094
5.25839
5.21541
5.1518
5.07967
5.01594
4.96615
4.93692
4.92517
4.90347
4.8674
4.82209
4.76921
4.70779
4.63971
4.58215
4.54214
4.51942
4.50061
4.46686
4.42539
4.37774
4.32682
4.27413
4.23002
4.19365
4.16604
4.14431
4.11757
4.08312
4.0448
4.00085
3.95864
3.9248
3.89844
3.87726
3.85124
3.8186
3.78075
3.73555
3.68268
3.62802
3.58429
3.54419
3.50532
3.46682
3.42956
3.39808
3.37445
3.35616
3.33877
3.32124
3.30343
3.28398
3.26159
3.23631
3.20999
3.18045
3.14359
3.10393
3.06429
3.02464
2.98923
2.96244
2.94242
2.92586
2.9088
2.88927
2.86922
2.85143
2.83734
2.82513
2.80981
2.79316
2.77569
2.75481
2.72804
2.69078
2.64149
2.58612
2.53986
2.51294
2.49956
2.49223
2.48948
2.48351
2.4758
2.46657
2.45067
2.42575
2.39267
2.35828
2.32346
2.29185
2.2699
2.26005
2.89337
1.66684
1.21929
0.890839
0.603667
0.446215
0.43139
0.390755
0.319528
0.305875
0.316572
0.323851
0.343469
0.388066
0.433711
0.466658
0.491342
0.522305
0.572064
0.640278
0.712858
0.783385
0.846054
0.895181
0.946404
1.01487
1.06668
1.10276
1.12819
1.14276
1.15584
1.16006
1.16569
1.18438
1.19522
1.19802
1.20811
1.22309
1.24066
1.25398
1.26108
1.26669
1.2734
1.28172
1.29061
1.29889
1.304
1.30728
1.31047
1.31568
1.32708
1.33796
1.33985
1.33941
1.33681
1.33113
1.32528
1.32358
1.32438
1.32658
1.32942
1.33458
1.34254
1.34713
1.34576
1.34244
1.36618
3.02068
6.3809
6.69938
6.45234
6.37351
6.37887
6.38992
6.37986
6.34429
6.28582
6.23403
6.19687
6.16328
6.12014
6.0695
6.01868
5.97439
5.93894
5.89714
5.83083
5.75101
5.67196
5.60212
5.5547
5.53065
5.50833
5.45737
5.38843
5.31313
5.25521
5.21648
5.19727
5.17916
5.14305
5.08811
5.01363
4.92706
4.85483
4.80443
4.76877
4.75208
4.74665
4.72877
4.69747
4.66061
4.61493
4.55735
4.49561
4.44087
4.39436
4.35443
4.31675
4.27984
4.24185
4.19813
4.15223
4.11505
4.08267
4.05647
4.03538
4.00962
3.98006
3.94781
3.91093
3.87015
3.82769
3.78432
3.7378
3.68614
3.63666
3.60604
3.58051
3.55252
3.525
3.49958
3.47427
3.44633
3.41348
3.37632
3.34009
3.3107
3.28656
3.26279
3.23732
3.20971
3.17879
3.14649
3.12213
3.10132
3.07983
3.05562
3.02879
3.00182
2.97369
2.94225
2.90821
2.87722
2.85176
2.83004
2.81185
2.79772
2.78602
2.77129
2.75397
2.73475
2.71324
2.69046
2.66531
2.6364
2.59971
2.55624
2.5181
2.49501
2.47774
2.45916
2.44096
2.42395
2.40846
2.3938
2.38111
2.36918
2.35477
2.33836
2.322
2.29341
3.51108
2.42061
1.79136
1.36968
1.03365
0.837191
0.747781
0.645218
0.520078
0.482484
0.485313
0.46748
0.449192
0.452194
0.447419
0.44427
0.440581
0.439848
0.44784
0.470566
0.528607
0.613998
0.704772
0.77809
0.827737
0.89885
0.976303
1.02829
1.05856
1.08841
1.13186
1.15178
1.15756
1.17295
1.18908
1.19903
1.21307
1.22752
1.23853
1.24692
1.25282
1.25935
1.26715
1.27345
1.27809
1.28355
1.288
1.29025
1.2917
1.29494
1.30646
1.32165
1.32853
1.33328
1.33625
1.33525
1.32872
1.32331
1.32199
1.32317
1.32617
1.33121
1.33566
1.33761
1.33949
1.36298
1.51791
2.53346
6.04937
7.01735
6.63768
6.39944
6.31818
6.3215
6.33339
6.32508
6.27448
6.21272
6.17533
6.14344
6.10286
6.05463
6.00359
5.95255
5.90843
5.87172
5.8237
5.76165
5.68712
5.61179
5.5536
5.51201
5.48898
5.4606
5.41403
5.35694
5.28243
5.22244
5.18593
5.16136
5.13488
5.09207
5.0389
4.96875
4.88158
4.81038
4.76369
4.73533
4.72526
4.72007
4.70327
4.66936
4.62334
4.56196
4.49478
4.44084
4.39696
4.3564
4.31799
4.28254
4.24849
4.21133
4.17059
4.13035
4.09302
4.06093
4.03409
4.00752
3.97835
3.94623
3.90617
3.85665
3.80563
3.75625
3.70729
3.66414
3.63512
3.61252
3.58844
3.56304
3.53981
3.52
3.50073
3.47659
3.44727
3.40938
3.36109
3.3093
3.26708
3.23533
3.20568
3.17505
3.14698
3.12589
3.11004
3.09742
3.08543
3.07149
3.05468
3.03386
3.00624
2.97051
2.92784
2.88249
2.84119
2.80885
2.78618
2.76942
2.75657
2.74471
2.73055
2.71497
2.69893
2.6859
2.67489
2.66169
2.64439
2.61591
2.5674
2.50666
2.46137
2.43278
2.40957
2.39037
2.37653
2.37016
2.37351
2.38066
2.38338
2.38047
2.37313
2.33405
3.99239
3.03189
2.37294
1.89572
1.49705
1.24694
1.06778
0.924639
0.783371
0.698072
0.662589
0.622035
0.579125
0.572291
0.56565
0.536385
0.49841
0.491607
0.497678
0.504669
0.505225
0.516425
0.542987
0.586102
0.624664
0.68249
0.783064
0.880458
0.959521
1.0147
1.07482
1.1067
1.11151
1.12442
1.15105
1.17664
1.19649
1.21353
1.23061
1.24833
1.26161
1.27267
1.28042
1.28188
1.27965
1.27945
1.2815
1.28275
1.284
1.28982
1.30637
1.32322
1.32811
1.3301
1.32956
1.32558
1.31904
1.31378
1.3139
1.3182
1.32718
1.33613
1.3391
1.34193
1.35995
1.53159
2.16693
2.71517
4.37474
6.24428
6.71755
6.59611
6.39933
6.26545
6.2497
6.25404
6.24094
6.19208
6.14504
6.09768
6.04979
6.00667
5.96714
5.92246
5.87884
5.84138
5.7985
5.74696
5.68839
5.62093
5.55542
5.50684
5.46877
5.44238
5.41392
5.37622
5.32431
5.25135
5.18746
5.1417
5.10042
5.06036
5.01637
4.96439
4.89823
4.82916
4.78103
4.75286
4.74094
4.73204
4.70234
4.65704
4.59399
4.52402
4.46717
4.42782
4.39342
4.35805
4.32113
4.28208
4.2412
4.19869
4.16147
4.13159
4.10332
4.07722
4.05092
4.02073
3.98594
3.94345
3.88711
3.81942
3.75727
3.70981
3.67567
3.65152
3.63415
3.62027
3.60312
3.58414
3.56188
3.53594
3.51042
3.48505
3.45756
3.42545
3.38352
3.32627
3.25935
3.20475
3.17025
3.1467
3.12971
3.11749
3.11023
3.10406
3.09254
3.0767
3.05933
3.0381
3.00733
2.96977
2.93212
2.89586
2.85969
2.82249
2.78593
2.75547
2.73586
2.72283
2.71096
2.69894
2.68838
2.68021
2.67362
2.66677
2.6556
2.63888
2.60874
2.54961
2.46981
2.41238
2.3846
2.36906
2.35926
2.35527
2.36643
2.38978
2.40528
2.40388
2.39818
2.35753
4.34907
3.52027
2.87529
2.35466
1.95309
1.67446
1.41846
1.21294
1.05784
0.943295
0.87616
0.813344
0.733693
0.707774
0.705709
0.684252
0.627355
0.588364
0.580612
0.574292
0.550395
0.54173
0.556073
0.56245
0.556944
0.557725
0.581149
0.632736
0.708172
0.79166
0.881169
0.973126
1.02444
1.05666
1.10286
1.15087
1.17363
1.18979
1.20946
1.22773
1.24049
1.25482
1.26392
1.2647
1.26128
1.26381
1.27016
1.2771
1.28788
1.30299
1.31262
1.31163
1.30966
1.30893
1.30752
1.30417
1.30505
1.30829
1.3145
1.32743
1.34255
1.34594
1.34616
1.3656
1.52996
2.1287
2.95127
3.11214
3.3718
4.53267
5.99897
6.54602
6.47139
6.30399
6.22969
6.22442
6.23694
6.20624
6.149
6.09185
6.04121
6.00143
5.96483
5.91836
5.8631
5.81659
5.77894
5.74827
5.71054
5.65809
5.58931
5.52478
5.48345
5.45476
5.43475
5.39769
5.34778
5.2773
5.19353
5.1361
5.09549
5.06385
5.03611
4.99971
4.96062
4.91003
4.84574
4.7939
4.75524
4.7143
4.66318
4.60448
4.54496
4.49406
4.45705
4.42684
4.39931
4.37015
4.33773
4.29967
4.25277
4.20239
4.16555
4.13755
4.11211
4.08678
4.05814
4.02538
3.98398
3.93044
3.86351
3.79019
3.73034
3.69384
3.66987
3.65094
3.6401
3.63287
3.61906
3.59938
3.57449
3.53818
3.50114
3.47292
3.44642
3.41766
3.38353
3.33858
3.27688
3.20769
3.16122
3.13988
3.12498
3.1136
3.109
3.10644
3.09565
3.07926
3.06108
3.03385
2.99144
2.95072
2.92104
2.89633
2.87176
2.8442
2.81078
2.77177
2.73662
2.71278
2.69535
2.68072
2.67131
2.66544
2.66204
2.6584
2.6494
2.63541
2.61359
2.57289
2.50823
2.43551
2.38622
2.36591
2.3571
2.35568
2.37898
2.4135
2.41599
2.40466
2.39288
2.34773
4.61719
3.90323
3.30598
2.76044
2.36155
2.04626
1.77167
1.5371
1.33649
1.17463
1.08525
1.03389
0.96381
0.860484
0.81821
0.805833
0.774709
0.712702
0.674424
0.672604
0.657145
0.623076
0.615852
0.619158
0.609942
0.583016
0.576275
0.579688
0.589997
0.612414
0.650857
0.719588
0.813741
0.896668
0.9689
1.06127
1.11891
1.14527
1.17148
1.18864
1.20549
1.23176
1.24495
1.2481
1.24773
1.2543
1.26215
1.26938
1.28643
1.30777
1.31107
1.30622
1.29792
1.29175
1.28997
1.29255
1.29766
1.30551
1.32099
1.33545
1.33793
1.34186
1.36089
1.56291
2.17965
2.90285
3.17995
3.24561
3.29165
3.47682
4.42765
5.82608
6.34635
6.28864
6.25294
6.25588
6.27107
6.23619
6.18001
6.11729
6.06109
6.01852
5.97792
5.92556
5.86822
5.82344
5.78943
5.76605
5.73201
5.68474
5.62252
5.54026
5.4763
5.43509
5.39786
5.36744
5.32833
5.27965
5.21403
5.14634
5.10136
5.06975
5.04731
5.01917
4.98111
4.93632
4.87297
4.78769
4.70759
4.64604
4.59363
4.54626
4.50747
4.47609
4.44976
4.42706
4.40293
4.37601
4.34494
4.30619
4.25867
4.20856
4.16286
4.12613
4.09542
4.06569
4.03313
3.99519
3.94867
3.89431
3.83599
3.77906
3.73424
3.70655
3.68737
3.67579
3.67033
3.65748
3.63637
3.60937
3.56904
3.51745
3.47345
3.44305
3.41757
3.39184
3.36345
3.33073
3.29032
3.23942
3.18673
3.15025
3.13046
3.11723
3.10934
3.10312
3.09118
3.07522
3.04954
3.00656
2.96169
2.93215
2.91285
2.89628
2.88084
2.86425
2.8431
2.81341
2.77164
2.7233
2.68344
2.66149
2.65152
2.64774
2.64838
2.64439
2.63477
2.61901
2.59587
2.56468
2.52543
2.47972
2.43129
2.39348
2.37709
2.37402
2.37867
2.38091
2.37827
2.36757
2.35734
2.31868
4.83473
4.21281
3.63777
3.11353
2.73845
2.3932
2.07655
1.81876
1.63654
1.45708
1.27926
1.21857
1.17738
1.08847
0.973245
0.934822
0.919735
0.877281
0.805249
0.773051
0.765965
0.738622
0.695897
0.685933
0.679754
0.655322
0.620414
0.612554
0.615918
0.620227
0.619651
0.624177
0.642118
0.677893
0.732495
0.806958
0.905584
0.989738
1.06241
1.10664
1.14068
1.18138
1.21515
1.23389
1.24373
1.24679
1.24927
1.25649
1.27817
1.30217
1.30667
1.30577
1.29796
1.28314
1.28201
1.28551
1.29084
1.30148
1.32038
1.33044
1.33273
1.34847
1.54127
2.25655
2.93938
3.16034
3.2339
3.29195
3.3131
3.33196
3.46591
4.25335
5.57377
6.10263
6.22542
6.2622
6.27481
6.22599
6.17652
6.12643
6.06462
6.00846
5.95703
5.90193
5.85422
5.81354
5.78269
5.76468
5.73396
5.68571
5.62641
5.54246
5.45233
5.39726
5.356
5.32276
5.29883
5.26275
5.21547
5.15256
5.09015
5.04737
5.00968
4.97442
4.93926
4.89834
4.8489
4.77266
4.67987
4.61052
4.56355
4.52802
4.49937
4.4773
4.45479
4.42698
4.39574
4.36123
4.32305
4.28176
4.23942
4.19621
4.14953
4.10583
4.06856
4.0344
3.99893
3.96067
3.91839
3.87318
3.83203
3.79767
3.76708
3.74214
3.72433
3.70912
3.68917
3.66265
3.62583
3.58046
3.53113
3.48536
3.4468
3.41603
3.3917
3.3696
3.34713
3.32389
3.2987
3.26844
3.23
3.18659
3.15127
3.13054
3.11656
3.10308
3.0839
3.05245
3.00679
2.96226
2.9356
2.91985
2.90616
2.8964
2.89364
2.88809
2.87431
2.85328
2.81391
2.74824
2.68568
2.65128
2.63131
2.61528
2.60269
2.59474
2.58885
2.58084
2.56713
2.54893
2.53167
2.51568
2.49488
2.46426
2.42559
2.39345
2.37234
2.35526
2.34043
2.3255
2.31104
2.28068
5.0215
4.47678
3.92017
3.43888
3.05422
2.70797
2.36688
2.10503
1.89659
1.72778
1.54886
1.41598
1.35613
1.29289
1.18599
1.06815
1.03707
1.01549
0.963058
0.889555
0.860508
0.844921
0.808832
0.763878
0.755196
0.745811
0.71366
0.682293
0.681236
0.680292
0.667108
0.64397
0.639529
0.642234
0.647255
0.657971
0.686573
0.739334
0.814874
0.917535
1.00528
1.08712
1.1455
1.18669
1.21937
1.22425
1.2234
1.23733
1.26192
1.289
1.29929
1.30112
1.29777
1.28596
1.27487
1.27567
1.27981
1.29221
1.31078
1.32148
1.35084
1.53768
2.238
2.96954
3.17732
3.21975
3.25441
3.31008
3.32783
3.3223
3.28764
3.36974
4.03232
5.30448
5.98723
6.23939
6.25254
6.1957
6.15232
6.12281
6.06955
6.00355
5.92728
5.86182
5.82455
5.78831
5.76222
5.74877
5.71859
5.66996
5.61355
5.53658
5.43939
5.36889
5.3241
5.29011
5.27513
5.24996
5.20858
5.15711
5.0863
5.01703
4.96993
4.9316
4.89785
4.86126
4.8193
4.763
4.68657
4.61315
4.57244
4.54431
4.52333
4.50031
4.46837
4.42857
4.37505
4.31794
4.27865
4.25013
4.22122
4.18599
4.14568
4.0981
4.04709
4.00029
3.96222
3.92706
3.89657
3.87215
3.85322
3.83625
3.8142
3.78625
3.75286
3.71567
3.67639
3.63572
3.59213
3.54705
3.50662
3.47097
3.43796
3.40462
3.37279
3.34803
3.33033
3.31718
3.30173
3.28398
3.26427
3.23717
3.19964
3.1556
3.11571
3.08054
3.04631
3.00699
2.96695
2.93851
2.92434
2.91242
2.90625
2.91444
2.92118
2.90914
2.8915
2.86621
2.82303
2.76322
2.70186
2.65419
2.62032
2.59328
2.57402
2.55964
2.54813
2.54133
2.54067
2.54415
2.54933
2.54929
2.53999
2.51961
2.47829
2.41383
2.35842
2.32352
2.29728
2.2802
2.26903
2.25163
5.17456
4.66738
4.15432
3.72823
3.33968
2.97151
2.64787
2.39416
2.16188
1.96707
1.82137
1.66632
1.52772
1.45977
1.39512
1.27687
1.15834
1.1238
1.09283
1.03038
0.963782
0.948654
0.928176
0.878868
0.837193
0.83027
0.817908
0.784442
0.745965
0.738614
0.732315
0.711452
0.679758
0.669497
0.666932
0.662659
0.663076
0.668788
0.684582
0.71932
0.773142
0.83803
0.921905
0.994299
1.07205
1.12704
1.16368
1.2029
1.23772
1.26686
1.27861
1.28252
1.28273
1.27433
1.25988
1.25987
1.26862
1.28412
1.30033
1.34583
1.59947
2.21154
2.9965
3.16389
3.23783
3.25327
3.27386
3.29337
3.29214
3.28342
3.2545
3.23052
3.29264
3.8638
5.04527
5.97321
6.14042
6.14057
6.10524
6.10723
6.07437
6.01237
5.91719
5.82833
5.7798
5.74319
5.72444
5.7197
5.68925
5.64208
5.59033
5.5226
5.43778
5.36162
5.31168
5.27574
5.25387
5.23141
5.19536
5.14998
5.08963
5.01402
4.95116
4.90885
4.87138
4.83434
4.79624
4.75838
4.71122
4.6493
4.60168
4.57276
4.54684
4.5156
4.47903
4.43135
4.36648
4.30104
4.25528
4.22244
4.19353
4.16937
4.14076
4.10075
4.04493
3.98842
3.94738
3.92011
3.9009
3.89324
3.88564
3.86617
3.83924
3.79976
3.74747
3.69653
3.65027
3.60373
3.55944
3.52305
3.49349
3.46916
3.44473
3.41631
3.38348
3.35217
3.32972
3.31433
3.30732
3.30235
3.28549
3.26151
3.22637
3.17773
3.11795
3.06368
3.01898
2.98092
2.94929
2.93369
2.9226
2.9164
2.91356
2.90599
2.89547
2.88413
2.86781
2.84313
2.80621
2.76412
2.72444
2.6797
2.6289
2.58747