/*--------------------------------*- C++ -*----------------------------------*\
  =========                 |
  \\      /  F ield         | OpenFOAM: The Open Source CFD Toolbox
   \\    /   O peration     | Website:  https://openfoam.org
    \\  /    A nd           | Version:  7
     \\/     M anipulation  |
\*---------------------------------------------------------------------------*/
FoamFile
{
    version     2.0;
    format      ascii;
    class       volScalarField;
    location    "3";
    object      T;
}
// * * * * * * * * * * * * * * * * * * * * * * * * * * * * * * * * * * * * * //

dimensions      [0 0 0 1 0 0 0];

internalField   nonuniform List<scalar> 
16128
(
1
1
1
1
1
1
1
1
1
1
1
1
1
1
1
1
1
1
1
1
1
1
1
1
1.93174
2.66925
2.69739
2.70382
2.71441
2.72605
2.7387
2.75067
2.76009
2.76598
2.76906
2.77122
2.77437
2.77985
2.78727
2.79438
2.79908
2.8012
2.8022
2.80356
2.80617
2.80967
2.81271
2.8143
1
1
1
1
1
1
1
1
1
1
1
1
1
1
1
1
1
1
1
1
1
1
1
1
1.92
2.66594
2.69736
2.70377
2.71426
2.72584
2.73844
2.75035
2.75972
2.76555
2.76857
2.77069
2.77384
2.77932
2.78673
2.79377
2.79838
2.80042
2.80135
2.80268
2.80526
2.80873
2.81175
2.81334
1
1
1
1
1
1
1
1
1
1
1
1
1
1
1
1
1
1
1
1
1
1
1
1
1.88989
2.66098
2.6961
2.70243
2.71288
2.72454
2.73727
2.74931
2.75878
2.76463
2.76762
2.76972
2.77288
2.77842
2.78585
2.79283
2.79728
2.79914
2.79997
2.80122
2.80376
2.80719
2.81017
2.81175
1
1
1
1
1
1
1
1
1
1
1
1
1
1
1
1
1
1
1
1
1
1
1
1
1.8447
2.65237
2.69388
2.69986
2.71002
2.72174
2.73475
2.7472
2.75706
2.76314
2.76616
2.76821
2.77131
2.77684
2.7843
2.79125
2.79559
2.79731
2.79803
2.7992
2.80166
2.805
2.80785
2.80937
1
1
1
1
1
1
1
1
1
1
1
1
1
1
1
1
1
1
1
1
1
1
1
1
1.78387
2.63858
2.69142
2.69638
2.70588
2.71756
2.73096
2.74409
2.75468
2.76125
2.76441
2.76638
2.76928
2.77462
2.782
2.78898
2.79331
2.79495
2.79557
2.79665
2.79902
2.8023
2.80508
2.80656
1
1
1
1
1
1
1
1
1
1
1
1
1
1
1
1
1
1
1
1
1
1
1
1
1.70378
2.61648
2.69029
2.6926
2.70066
2.712
2.72571
2.73957
2.75106
2.75837
2.76182
2.7637
2.76629
2.77127
2.77847
2.78555
2.79011
2.79189
2.79253
2.79356
2.79583
2.79905
2.80176
2.80318
1
1
1
1
1
1
1
1
1
1
1
1
1
1
1
1
1
1
1
1
1
1
1
1
1.6054
2.58585
2.69059
2.68977
2.69573
2.70599
2.71943
2.73361
2.74589
2.75409
2.75809
2.76008
2.76245
2.76703
2.77399
2.78117
2.78602
2.78799
2.78861
2.78953
2.79168
2.79485
2.79754
2.79899
1
1
1
1
1
1
1
1
1
1
1
1
1
1
1
1
1
1
1
1
1
1
1
1
1.48531
2.54139
2.6904
2.68772
2.69244
2.7008
2.71298
2.72674
2.73939
2.74856
2.75347
2.75587
2.75815
2.76228
2.76878
2.77589
2.78101
2.78324
2.78392
2.78476
2.78679
2.78987
2.79247
2.79391
1
1
1
1
1
1
1
1
1
1
1
1
1
1
1
1
1
1
1
1
1
1
1
1
1.33568
2.47357
2.68736
2.6848
2.68959
2.69604
2.7061
2.71855
2.73107
2.74117
2.74737
2.75063
2.75309
2.75684
2.76279
2.76966
2.77492
2.77736
2.77805
2.77876
2.78065
2.78365
2.78624
2.78773
1
1
1
1
1
1
1
1
1
1
1
1
1
1
1
1
1
1
1
1
1
1
1
1
1.16801
2.39511
2.68411
2.68031
2.68629
2.69148
2.6994
2.7098
2.72133
2.73185
2.73944
2.74394
2.74695
2.75054
2.75594
2.76242
2.76775
2.77044
2.77122
2.77181
2.77348
2.77615
2.77842
2.7797
1
1
1
1
1
1
1
1
1
1
1
1
1
1
1
1
1
1
1
1
1
1
1
1
1.01395
2.31669
2.67896
2.67831
2.68353
2.68826
2.69424
2.70207
2.71177
2.72179
2.73014
2.73584
2.73963
2.74322
2.7481
2.75409
2.75932
2.76206
2.76269
2.76296
2.76419
2.7665
2.76875
2.77015
1
1
1
1
1
1
1
1
1
1
1
1
1
1
1
1
1
1
1
1
1
1
1
1
1.0001
2.21282
2.67516
2.67803
2.68278
2.68778
2.69253
2.69797
2.70447
2.71242
2.72046
2.72678
2.7312
2.73485
2.73922
2.74464
2.74959
2.75226
2.75279
2.75289
2.7536
2.75493
2.75621
2.75658
1
1
1
1
1
1
1
1
1
1
1
1
1
1
1
1
1
1
1
1
1
1
1
1
1
2.07485
2.66067
2.67729
2.68157
2.68633
2.69028
2.69436
2.69931
2.70521
2.71145
2.71724
2.72176
2.7253
2.72908
2.73382
2.73828
2.74064
2.74062
2.73967
2.73877
2.73897
2.73912
2.73988
1
1
1
1
1
1
1
1
1
1
1
1
1
1
1
1
1
1
1
1
1
1
1
1
1
1.89449
2.61889
2.66996
2.67826
2.68467
2.689
2.69224
2.69531
2.69901
2.70353
2.70812
2.71194
2.71494
2.71805
2.72187
2.72513
2.72683
2.72611
2.72423
2.72204
2.72063
2.71729
2.71172
1
1
1
1
1
1
1
1
1
1
1
1
1
1
1
1
1
1
1
1
1
1
1
1
1
1.66664
2.5377
2.64826
2.66562
2.67701
2.68415
2.68845
2.69145
2.69427
2.69725
2.70016
2.70268
2.70462
2.70654
2.70866
2.71027
2.71077
2.7092
2.70545
2.69919
2.69055
2.68116
2.67312
1
1
1
1
1
1
1
1
1
1
1
1
1
1
1
1
1
1
1
1
1
1
1
1
1
1.34974
2.41473
2.63172
2.64773
2.66277
2.67265
2.67914
2.68379
2.68748
2.69065
2.69304
2.69442
2.69504
2.69545
2.69507
2.69458
2.69305
2.68927
2.6821
2.67096
2.6575
2.6476
2.65175
1
1
1
1
1
1
1
1
1
1
1
1
1
1
1
1
1
1
1
1
1
1
1
1
1
1.03702
2.30325
2.63395
2.63307
2.64003
2.65186
2.66212
2.6703
2.67651
2.68121
2.68428
2.68546
2.68519
2.68397
2.68157
2.67837
2.67395
2.66717
2.65658
2.63924
2.61049
2.54908
2.43251
1
1
1
1
1
1
1
1
1
1
1
1
1
1
1
1
1
1
1
1
1
1
1
1
1
1.00028
2.16644
2.61633
2.61522
2.62041
2.63033
2.6415
2.65198
2.66075
2.66766
2.67268
2.67484
2.6744
2.67227
2.66835
2.66242
2.65463
2.64392
2.62788
2.60191
2.55504
2.48264
2.2966
1
1
1
1
1
1
1
1
1
1
1
1
1
1
1
1
1
1
1
1
1
1
1
1
1
0.999997
1.94912
2.59603
2.61583
2.62019
2.62361
2.6282
2.6352
2.6431
2.65069
2.65732
2.66116
2.66121
2.65907
2.65423
2.64627
2.63521
2.62032
2.59872
2.5658
2.51223
2.41905
2.22651
1
1
1
1
1
1
1
1
1
1
1
1
1
1
1
1
1
1
1
1
1
1
1
1
1
0.999999
1.61721
2.50261
2.60861
2.61566
2.61736
2.61952
2.62309
2.6282
2.63356
2.63957
2.6443
2.6455
2.64375
2.63878
2.62978
2.61635
2.59765
2.57155
2.53235
2.47656
2.37115
2.2058
1
1
1
1
1
1
1
1
1
1
1
1
1
1
1
1
1
1
1
1
1
1
1
1
1
1
1.19667
2.36203
2.61127
2.60611
2.60864
2.61162
2.61322
2.61527
2.61743
2.62113
2.62516
2.62713
2.62592
2.62137
2.61214
2.59755
2.57624
2.54711
2.50484
2.44638
2.34436
2.2146
1
1
1
1
1
1
1
1
1
1
1
1
1
1
1
1
1
1
1
1
1
1
1
1
1
1
1.01005
2.22666
2.58634
2.58716
2.59413
2.60005
2.60258
2.60373
2.6036
2.60439
2.60595
2.607
2.60583
2.60162
2.59272
2.57808
2.55609
2.5254
2.48257
2.42323
2.33206
2.2266
1
1
1
1
1
1
1
1
1
1
1
1
1
1
1
1
1
1
1
1
1
1
1
1
1
1
1
1.97174
2.54818
2.57788
2.58685
2.59177
2.59361
2.59345
2.59224
2.59073
2.58938
2.58807
2.58571
2.58098
2.57215
2.55784
2.53635
2.50588
2.46449
2.40673
2.32752
2.23979
1
1
1
1
1
1
1
1
1
1
1
1
1
1
1
1
1
1
1
1
1
1
1
1
1
1
0.999997
1.55612
2.44391
2.56809
2.57585
2.58135
2.58346
2.58279
2.58097
2.57821
2.57476
2.5709
2.56628
2.56001
2.55059
2.53651
2.51607
2.48701
2.44834
2.3948
2.32664
2.25092
1
1
1
1
1
1
1
1
1
1
1
1
1
1
1
1
1
1
1
1
1
1
1
1
1
1
0.999999
1.08693
2.28883
2.56813
2.56305
2.56602
2.57011
2.57019
2.56883
2.56586
2.56136
2.5558
2.54907
2.54088
2.53019
2.51575
2.49607
2.46852
2.43248
2.38475
2.32643
2.25977
1
1
1
1
1
1
1
1
1
1
1
1
1
1
1
1
1
1
1
1
1
1
1
1
1
1
1
1.00178
2.09624
2.52813
2.53915
2.5501
2.55549
2.55627
2.55537
2.55274
2.54804
2.54168
2.53368
2.52385
2.51174
2.49619
2.47679
2.45039
2.41633
2.37443
2.32503
2.26615
1
1
1
1
1
1
1
1
1
1
1
1
1
1
1
1
1
1
1
1
1
1
1
1
1
1
1
0.999987
1.67835
2.4437
2.52705
2.53499
2.54082
2.54322
2.54236
2.53967
2.53488
2.52813
2.51947
2.50862
2.49556
2.47937
2.45928
2.43361
2.40146
2.36448
2.32152
2.27047
1
1
1
1
1
1
1
1
1
1
1
1
1
1
1
1
1
1
1
1
1
1
1
1
1
1
1
0.999997
1.12825
2.29066
2.52816
2.52031
2.52327
2.5271
2.52658
2.52458
2.52044
2.51407
2.50552
2.49446
2.4809
2.46449
2.44384
2.41888
2.38864
2.355
2.31571
2.27138
1
1
1
1
1
1
1
1
1
1
1
1
1
1
1
1
1
1
1
1
1
1
1
1
1
1
1
0.999999
1.00397
2.09578
2.48853
2.49535
2.50613
2.50949
2.50951
2.50835
2.50514
2.49956
2.49148
2.48078
2.46747
2.45097
2.43056
2.40651
2.37837
2.34704
2.31051
2.27121
1
1
1
1
1
1
1
1
1
1
1
1
1
1
1
1
1
1
1
1
1
1
1
1
1
1
1
1
0.999981
1.63285
2.39833
2.48329
2.49369
2.49463
2.4942
2.49297
2.49001
2.48488
2.47725
2.46673
2.45429
2.43793
2.41833
2.39537
2.36931
2.33987
2.30593
2.27016
1
1
1
1
1
1
1
1
1
1
1
1
1
1
1
1
1
1
1
1
1
1
1
1
1
1
1
1
0.999995
1.1086
2.23771
2.48241
2.47593
2.47719
2.47702
2.47599
2.47351
2.469
2.46213
2.45256
2.44049
2.42533
2.40701
2.38542
2.36128
2.33362
2.30249
2.2692
1
1
1
1
1
1
1
1
1
1
1
1
1
1
1
1
1
1
1
1
1
1
1
1
1
1
1
1
0.999999
1.00254
1.95175
2.43711
2.45187
2.45693
2.4596
2.45951
2.45761
2.45338
2.44688
2.43789
2.42634
2.4123
2.39538
2.3755
2.35315
2.32738
2.29882
2.26759
1
1
1
1
1
1
1
1
1
1
1
1
1
1
1
1
1
1
1
1
1
1
1
1
1
1
1
1
1
0.999992
1.35869
2.30874
2.45212
2.4442
2.4443
2.44394
2.44192
2.43786
2.4318
2.42338
2.41259
2.39948
2.38376
2.36553
2.34472
2.32096
2.29468
2.26576
1
1
1
1
1
1
1
1
1
1
1
1
1
1
1
1
1
1
1
1
1
1
1
1
1
1
1
1
1
0.999998
1.03033
2.13138
2.43065
2.423
2.42531
2.42519
2.42401
2.42099
2.41581
2.4082
2.39831
2.38619
2.37172
2.35496
2.33558
2.31365
2.28948
2.26312
1
1
1
1
1
1
1
1
1
1
1
1
1
1
1
1
1
1
1
1
1
1
1
1
1
1
1
1
1
1
1.00013
1.64823
2.34324
2.40355
2.41151
2.41132
2.40955
2.40604
2.40091
2.39375
2.38454
2.37321
2.35964
2.34388
2.32583
2.30561
2.28347
2.25948
1
1
1
1
1
1
1
1
1
1
1
1
1
1
1
1
1
1
1
1
1
1
1
1
1
1
1
1
1
1
1
1.1119
2.17372
2.40781
2.40122
2.39857
2.39473
2.39009
2.3848
2.37821
2.36989
2.35954
2.34699
2.33227
2.31563
2.29699
2.2767
2.25473
1
1
1
1
1
1
1
1
1
1
1
1
1
1
1
1
1
1
1
1
1
1
1
1
1
1
1
1
1
1
1
1.00252
1.78744
2.34348
2.38081
2.38006
2.37854
2.37546
2.3706
2.36395
2.35568
2.34577
2.33405
2.32047
2.3052
2.28794
2.26917
2.24896
1
1
1
1
1
1
1
1
1
1
1
1
1
1
1
1
1
1
1
1
1
1
1
1
1
1
1
1
1
1
1
1
1.18632
2.17783
2.38085
2.37168
2.36746
2.36317
2.35755
2.3504
2.34188
2.33202
2.32081
2.30818
2.2942
2.27843
2.2611
2.24257
1
1
1
1
1
1
1
1
1
1
1
1
1
1
1
1
1
1
1
1
1
1
1
1
1
1
1
1
1
1
1
1
1.00738
1.84839
2.32671
2.35463
2.35172
2.34819
2.34314
2.33651
2.32829
2.31865
2.30791
2.29603
2.2831
2.26865
2.25266
2.23558
1
1
1
1
1
1
1
1
1
1
1
1
1
1
1
1
1
1
1
1
1
1
1
1
1
1
1
1
1
1
1
1
1.00001
1.23452
2.16144
2.34938
2.34148
2.33738
2.33185
2.32473
2.31624
2.30667
2.29622
2.28477
2.27243
2.25888
2.24393
2.22799
1
1
1
1
1
1
1
1
1
1
1
1
1
1
1
1
1
1
1
1
1
1
1
1
1
1
1
1
1
1
1
1
1
1.01186
1.84612
2.29468
2.32735
2.32336
2.31806
2.31141
2.30356
2.29464
2.28482
2.27394
2.26208
2.24919
2.23501
2.21983
1
1
1
1
1
1
1
1
1
1
1
1
1
1
1
1
1
1
1
1
1
1
1
1
1
1
1
1
1
1
1
1
1
1.00004
1.24261
2.12402
2.31625
2.31063
2.30597
2.29992
2.2929
2.28471
2.27526
2.26454
2.25275
2.24008
2.22635
2.21167
1
1
1
1
1
1
1
1
1
1
1
1
1
1
1
1
1
1
1
1
1
1
1
1
1
1
1
1
1
1
1
1
1
1
1.01268
1.7783
2.25164
2.29807
2.29194
2.28665
2.28067
2.27341
2.26461
2.25444
2.24311
2.23084
2.21769
2.20372
1
1
1
1
1
1
1
1
1
1
1
1
1
1
1
1
1
1
1
1
1
1
1
1
1
1
1
1
1
1
1
1
1
1
1.00006
1.20347
2.06973
2.28271
2.27858
2.27563
2.26995
2.26266
2.25414
2.24458
2.23403
2.22245
2.20989
2.1965
1
1
1
1
1
1
1
1
1
1
1
1
1
1
1
1
1
1
1
1
1
1
1
1
1
1
1
1
1
1
1
1
1
1
1
1.00884
1.63722
2.1891
2.26578
2.25958
2.25453
2.24872
2.24173
2.23351
2.22411
2.21357
2.20185
2.189
1
1
1
1
1
1
1
1
1
1
1
1
1
1
1
1
1
1
1
1
1
1
1
1
1
1
1
1
1
1
1
1
1
1
1
1.00005
1.12741
1.99709
2.25389
2.24368
2.23926
2.23496
2.22972
2.22294
2.21456
2.20489
2.19406
2.18196
1
1
1
1
1
1
1
1
1
1
1
1
1
1
1
1
1
1
1
1
1
1
1
1
1
1
1
1
1
1
1
1
1
1
1
1
1.0035
1.48552
2.12701
2.22762
2.22198
2.2188
2.21475
2.20937
2.20238
2.19389
2.18433
2.17375
1
1
1
1
1
1
1
1
1
1
1
1
1
1
1
1
1
1
1
1
1
1
1
1
1
1
1
1
1
1
1
1
1
1
1
1
1.00002
1.06403
1.87255
2.21223
2.21183
2.20742
2.20224
2.19689
2.1907
2.18333
2.17487
2.16557
1
1
1
1
1
1
1
1
1
1
1
1
1
1
1
1
1
1
1
1
1
1
1
1
1
1
1
1
1
1
1
1
1
1
1
1
1
1.001
1.31598
2.05264
2.19965
2.19249
2.18755
2.1822
2.17652
2.17024
2.16302
2.15485
1
1
1
1
1
1
1
1
1
1
1
1
1
1
1
1
1
1
1
1
1
1
1
1
1
1
1
1
1
1
1
1
1
1
1
1
1
1
1.02346
1.66728
2.12974
2.18516
2.17776
2.17136
2.16527
2.15891
2.15207
2.14457
1
1
1
1
1
1
1
1
1
1
1
1
1
1
1
1
1
1
1
1
1
1
1
1
1
1
1
1
1
1
1
1
1
1
1
1
1
1
1.00023
1.14979
1.9231
2.17367
2.16807
2.1611
2.15436
2.1476
2.14064
2.13341
1
1
1
1
1
1
1
1
1
1
1
1
1
1
1
1
1
1
1
1
1
1
1
1
1
1
1
1
1
1
1
1
1
1
1
1
1
1
1
1.00502
1.41847
2.0431
2.15552
2.1486
2.14178
2.13536
2.12886
2.12203
1
1
1
1
1
1
1
1
1
1
1
1
1
1
1
1
1
1
1
1
1
1
1
1
1
1
1
1
1
1
1
1
1
1
1
1
1
1
1
1.00003
1.04657
1.71706
2.09939
2.14399
2.13574
2.12796
2.12093
2.11387
1
1
1
1
1
1
1
1
1
1
1
1
1
1
1
1
1
1
1
1
1
1
1
1
1
1
1
1
1
1
1
1
1
1
1
1
1
1
1
1
1.0007
1.19269
1.90055
2.12795
2.12643
2.11954
2.11269
2.10534
1
1
1
1
1
1
1
1
1
1
1
1
1
1
1
1
1
1
1
1
1
1
1
1
1
1
1
1
1
1
1
1
1
1
1
1
1
1
1
1
1
1.0085
1.42311
2.00036
2.1134
2.10859
2.10185
2.09539
1
1
1
1
1
1
1
1
1
1
1
1
1
1
1
1
1
1
1
1
1
1
1
1
1
1
1
1
1
1
1
1
1
1
1
1
1
1
1
1
1
1.00007
1.04987
1.66332
2.05091
2.10304
2.09416
2.08653
1
1
1
1
1
1
1
1
1
1
1
1
1
1
1
1
1
1
1
1
1
1
1
1
1
1
1
1
1
1
1
1
1
1
1
1
1
1
1
1
1
1
1.00083
1.1648
1.83609
2.07266
2.08826
2.08037
1
1
1
1
1
1
1
1
1
1
1
1
1
1
1
1
1
1
1
1
1
1
1
1
1
1
1
1
1
1
1
1
1
1
1
1
1
1
1
1
1
1
1
1.00654
1.34951
1.92557
2.07249
2.07047
1
1
1
1
1
1
1
1
1
1
1
1
1
1
1
1
1
1
1
1
1
1
1
1
1
1
1
1
1
1
1
1
1
1
1
1
1
1
1
1
1
1
1
1.00005
1.03235
1.54145
1.98617
2.06148
1
1
1
1
1
1
1
1
1
1
1
1
1
1
1
1
1
1
1
1
1
1
1
1
1
1
1
1
1
1
1
1
1
1
1
1
1
1
1
1
1
1
1
1
1.00046
1.10061
1.71314
2.01196
1
1
1
1
1
1
1
1
1
1
1
1
1
1
1
1
1
1
1
1
1
1
1
1
1
1
1
1
1
1
1
1
1
1
1
1
1
1
1
1
1
1
1
1
1
1.0028
1.22298
1.82468
1
1
1
1
1
1
1
1
1
1
1
1
1
1
1
1
1
1
1
1
1
1
1
1
1
1
1
1
1
1
1
1
1
1
1
1
1
1
1
1
1
1
1
1
1
1.00002
1.01252
1.37508
1
1
1
1
1
1
1
1
1
1
1
1
1
1
1
1
1
1
1
1
1
1
1
1
1
1
1
1
1
1
1
1
1
1
1
1
1
1
1
1
1
1
1
1
1
1
1.00013
1.04052
1
1
1
1
1
1
1
1
1
1
1
1
1
1
1
1
1
1
1
1
1
1
1
1
1
1
1
1
1
1
1
1
1
1
1
1
1
1
1
1
1
1
1
1
1
1
1
1.00069
1
1
1
1
1
1
1
1
1
1
1
1
1
1
1
1
1
1
1
1
1
1
1
1
1
1
1
1
1
1
1
1
1
1
1
1
1
1
1
1
1
1
1
1
1
1
1
1
1
1
1
1
1
1
1
1
1
1
1
1
1
1
1
1
1
1
1
1
1
1
1
1
1
1
1
1
1
1
1
1
1
1
1
1
1
1
1
1
1
1
1
1
1
1
1
1
1
1
1
1
1
1
1
1
1
1
1
1
1
1
1
1
1
1
1
1
1
1
1
1
1
1
1
1
1
1
1
1
1
1
1
1
1
1
1
1
1
1
1
1
1
1
1
1
1
1
1
1
1
1
1
1
1
1
1
1
1
1
1
1
1
1
1
1
1
1
1
1
1
1
1
1
1
1
1
1
1
1
1
1
1
1
1
1
1
1
1
1
1
1
1
1
1
1
1
1
1
1
1
1
1
1
1
1
1
1
1
1
1
1
1
1
1
1
1
1
1
1
1
1
1
1
1
1
1
1
1
1
1
1
1
1
1
1
1
1
1
1
1
1
1
1
1
1
1
1
1
1
1
1
1
1
1
1
1
1
1
1
1
1
1
1
1
1
1
1
1
1
1
1
1
1
1
1
1
1
1
1
1
1
1
1
1
1
1
1
1
1
1
1
1
1
1
1
1
1
1
1
1
1
1
1
1
1
1
1
1
1
1
1
1
1
1
1
1
1
1
1
1
1
1
1
1
1
1
1
1
1
1
1
1
1
1
1
1
1
1
1
1
1
1
1
1
1
1
1
1
1
1
1
1
1
1
1
1
1
1
1
1
1
1
1
1
1
1
1
1
1
1
1
1
1
1
1
1
1
1
1
1
1
1
1
1
1
1
1
1
1
1
1
1
1
1
1
1
1
1
1
1
1
1
1
1
1
1
1
1
1
1
1
1
1
1
1
1
1
1
1
1
1
1
1
1
1
1
1
1
1
1
1
1
1
1
1
1
1
1
1
1
1
1
1
1
1
1
1
1
1
1
1
1
1
1
1
1
1
1
1
1
1
1
1
1
1
1
1
1
1
1
1
1
1
1
1
1
1
1
1
1
1
1
1
1
1
1
1
1
1
1
1
1
1
1
1
1
1
1
1
1
1
1
1
1
1
1
1
1
1
1
1
1
1
1
1
1
1
1
1
1
1
1
1
1
1
1
1
1
1
1
1
1
1
1
1
1
1
1
1
1
1
1
1
1
1
1
1
1
1
1
1
1
1
1
1
1
1
1
1
1
1
1
1
1
1
1
1
1
1
1
1
1
1
1
1
1
1
1
1
1
1
1
1
1
1
1
1
1
1
1
1
1
1
1
1
1
1
1
1
1
1
1
1
1
1
1
1
1
1
1
1
1
1
1
1
1
1
1
1
1
1
1
1
1
1
1
1
1
1
1
1
1
1
1
1
1
1
1
1
1
1
1
1
1
1
1
1
1
1
1
1
1
1
1
1
1
1
1
1
1
1
1
1
1
1
1
1
1
1
1
1
1
1
1
1
1
1
1
1
1
1
1
1
1
1
1
1
1
1
1
1
1
1
1
1
1
1
1
1
1
1
1
1
1
1
1
1
1
1
1
1
1
1
1
1
1
1
1
1
1
1
1
1
1
1
1
1
1
1
1
1
1
1
1
1
1
1
1
1
1
1
1
1
1
1
1
1
1
1
1
1
1
1
1
1
1
1
1
1
1
1
1
1
1
1
1
1
1
1
1.57097
1.00976
0.558248
0.49242
0.706154
1.01705
1.148
1.20735
1.37301
1.45225
1.43682
1.40672
1.38649
1.39636
1.4611
1.55447
1.62832
1.63838
1.63372
1.62617
1.61887
1.61904
1.61912
1.62716
1.62597
1.61237
1.60349
1.6094
1.62856
1.65004
1.66099
1.66174
1.66022
1.65386
1.64884
1.6506
1.66124
1.67968
1.68899
1.68923
1.68469
1.67831
1.67783
1.68086
1.6873
1.68981
1.68924
1.68638
1.68283
1.68134
1.68089
1.68048
1.67967
1.67837
1.67727
1.67602
1.67291
1.66846
1.66433
1.66055
1.65815
1.65744
1.65801
1.66151
1.66528
1.66526
1.66436
2.43017
2.87457
2.87035
2.86155
2.85148
2.83752
2.82159
2.80569
2.79193
2.78106
2.77238
2.76371
2.75369
2.74208
2.72886
2.71454
2.69981
2.68513
2.6712
2.65906
2.64911
2.63996
2.62918
2.61475
2.59628
2.57733
2.56087
2.54863
2.5411
2.53593
2.5269
2.51552
2.5048
2.49568
2.48897
2.48561
2.48436
2.48177
2.47298
2.4592
2.44209
2.42161
2.40434
2.39257
2.38418
2.38064
2.38173
2.38195
2.37609
2.36731
2.35697
2.34567
2.33686
2.32954
2.3239
2.32035
2.31535
2.30862
2.3009
2.2918
2.28298
2.27575
2.26927
2.26447
2.2618
2.25893
2.25432
2.24861
2.24134
2.23074
2.21612
2.20213
2.19163
2.18252
2.17412
2.1667
2.16049
2.15639
2.15453
2.15332
2.15206
2.15065
2.1488
2.14589
2.14119
2.13436
2.12512
2.11268
2.09903
2.08799
2.08019
2.0746
2.06995
2.06545
2.06143
2.05797
2.05446
2.05038
2.0461
2.04177
2.03726
2.03312
2.02922
2.02535
2.02093
2.01428
2.00301
1.98745
1.97428
1.96784
1.96461
1.96225
1.96108
1.96321
1.96689
1.96644
1.96209
1.95638
1.94759
1.93406
1.91916
1.90896
1.90356
1.90172
1.89988
1.80201
1.4819
1.32731
1.15045
0.993948
1.00652
1.06479
1.07951
1.104
1.11983
1.13446
1.14554
1.16256
1.19599
1.2588
1.33225
1.38939
1.41578
1.43872
1.46115
1.48047
1.50512
1.52878
1.54711
1.55745
1.56282
1.56629
1.57621
1.59326
1.60451
1.6096
1.61196
1.61511
1.61779
1.61837
1.62131
1.63116
1.64502
1.6517
1.65352
1.65254
1.65034
1.65047
1.6539
1.6607
1.66465
1.66482
1.66376
1.66174
1.66109
1.66125
1.6609
1.65986
1.65835
1.65663
1.6552
1.65409
1.65251
1.65024
1.64814
1.64583
1.64477
1.64545
1.64764
1.64955
1.6492
1.64782
2.35496
2.84894
2.84282
2.83131
2.81643
2.80129
2.78684
2.77187
2.75731
2.74441
2.73385
2.72438
2.71481
2.70418
2.69252
2.68041
2.66831
2.6556
2.64186
2.62831
2.61607
2.60586
2.59681
2.58728
2.57574
2.56085
2.54569
2.53289
2.52353
2.51798
2.51371
2.50678
2.49696
2.48598
2.47622
2.46809
2.46191
2.45739
2.45091
2.44188
2.43117
2.41919
2.40635
2.3934
2.38284
2.37546
2.37081
2.36679
2.3605
2.35322
2.34501
2.33622
2.32714
2.31952
2.31327
2.30851
2.30479
2.30032
2.29443
2.28752
2.27933
2.27122
2.26439
2.2588
2.25416
2.24892
2.24292
2.23642
2.22884
2.21994
2.21052
2.20228
2.19399
2.18532
2.17634
2.16758
2.16032
2.15518
2.15173
2.14916
2.14704
2.14486
2.142
2.13794
2.13256
2.12619
2.11867
2.10973
2.10053
2.09165
2.08317
2.07577
2.07001
2.06528
2.06075
2.05563
2.04971
2.04366
2.0383
2.03408
2.0307
2.02727
2.02406
2.02083
2.0168
2.01136
2.00341
1.99275
1.98095
1.97089
1.96484
1.96196
1.9604
1.95971
1.95802
1.9556
1.95264
1.94807
1.94151
1.93331
1.92518
1.91734
1.91046
1.90611
1.9033
1.90324
1.6473
1.5521
1.43685
1.29288
1.18052
1.16824
1.13728
1.08546
1.07754
1.08339
1.07727
1.08276
1.11027
1.14151
1.16604
1.18661
1.20992
1.24258
1.28114
1.32054
1.35888
1.39686
1.42845
1.45319
1.47909
1.50119
1.52196
1.53581
1.53862
1.53988
1.54101
1.54482
1.55545
1.56201
1.565
1.57094
1.57775
1.5832
1.58567
1.58667
1.58843
1.59222
1.5981
1.6041
1.60741
1.60828
1.60905
1.61038
1.61283
1.61723
1.62005
1.61981
1.61859
1.61629
1.61322
1.61135
1.61076
1.61055
1.61007
1.60995
1.61085
1.61367
1.61691
1.61684
1.61519
1.62498
2.16323
2.76571
2.76002
2.72787
2.70538
2.69935
2.69433
2.68733
2.67619
2.66241
2.65034
2.64075
2.63235
2.62347
2.61398
2.60438
2.59562
2.58824
2.58034
2.56937
2.55628
2.54298
2.53055
2.52055
2.51341
2.50667
2.49704
2.48665
2.47665
2.46951
2.46484
2.46219
2.45921
2.45358
2.44551
2.43483
2.4223
2.41168
2.40374
2.39676
2.39144
2.38727
2.38071
2.37278
2.36477
2.35632
2.34696
2.33726
2.32887
2.3218
2.31562
2.30974
2.30414
2.29842
2.29166
2.2845
2.27866
2.27338
2.26892
2.26511
2.26041
2.25505
2.24915
2.24238
2.2349
2.22724
2.21977
2.21211
2.20378
2.19589
2.19108
2.18658
2.18104
2.1751
2.16917
2.16312
2.15671
2.14988
2.14294
2.13682
2.13236
2.12899
2.12549
2.12125
2.11608
2.10959
2.10213
2.09581
2.09003
2.08448
2.07897
2.07328
2.06758
2.06149
2.05438
2.04623
2.03824
2.03139
2.02571
2.02121
2.0179
2.01535
2.01242
2.00907
2.00522
2.0007
1.99561
1.98999
1.98387
1.97598
1.96672
1.95846
1.95309
1.94907
1.94471
1.94007
1.93538
1.93094
1.92684
1.9233
1.92007
1.91698
1.91397
1.91112
1.90579
1.98424
1.8006
1.67606
1.56757
1.45559
1.37076
1.32385
1.26425
1.19087
1.17446
1.17683
1.16459
1.14486
1.13721
1.12155
1.11469
1.11533
1.11664
1.12472
1.14372
1.18223
1.23107
1.27749
1.31538
1.33884
1.36994
1.40761
1.43693
1.45192
1.46197
1.4743
1.48149
1.48639
1.496
1.50531
1.5099
1.51502
1.51931
1.52108
1.52234
1.52394
1.52718
1.5324
1.53701
1.53948
1.54067
1.54176
1.54359
1.54612
1.54988
1.55563
1.55985
1.56105
1.56215
1.56355
1.56382
1.56366
1.56381
1.56378
1.56391
1.56412
1.56503
1.56671
1.56859
1.56986
1.57961
1.63325
1.9245
2.52478
2.65175
2.60694
2.57138
2.56409
2.56481
2.56533
2.56179
2.55143
2.54003
2.53214
2.52578
2.51936
2.51279
2.50607
2.49937
2.49352
2.48858
2.48238
2.47465
2.46531
2.45523
2.44635
2.43893
2.43394
2.42892
2.42299
2.41722
2.40991
2.40403
2.40032
2.39742
2.39364
2.38746
2.38052
2.37234
2.36227
2.35353
2.347
2.34182
2.33836
2.33513
2.32978
2.32235
2.31395
2.30418
2.29437
2.2869
2.281
2.27567
2.2708
2.26647
2.26233
2.25754
2.25193
2.24601
2.2402
2.23511
2.23099
2.22709
2.2228
2.21794
2.21162
2.20359
2.1952
2.18707
2.17902
2.17211
2.16775
2.16451
2.16116
2.15746
2.15372
2.15004
2.14596
2.1407
2.13459
2.12741
2.1189
2.1102
2.10356
2.09901
2.09464
2.08952
2.08423
2.0797
2.07566
2.07201
2.06859
2.06496
2.061
2.0565
2.05084
2.04355
2.03459
2.02468
2.01527
2.00765
2.00228
1.99858
1.99593
1.9936
1.99091
1.98799
1.98495
1.98251
1.98036
1.97738
1.97351
1.96745
1.95687
1.94325
1.93261
1.92594
1.92046
1.91561
1.91189
1.91007
1.91067
1.91237
1.91317
1.9128
1.9119
1.90577
2.0506
1.90181
1.78459
1.68394
1.5786
1.50104
1.43682
1.3783
1.317
1.27921
1.26221
1.24051
1.21445
1.2046
1.19552
1.17334
1.14882
1.14492
1.1489
1.1527
1.15312
1.15972
1.17527
1.19889
1.21962
1.24988
1.30232
1.34891
1.38259
1.40234
1.422
1.43423
1.43919
1.44687
1.45931
1.46922
1.47545
1.4803
1.48495
1.49017
1.49486
1.49977
1.50451
1.50569
1.50464
1.50352
1.50333
1.50386
1.50577
1.51053
1.51812
1.52357
1.52488
1.52548
1.52542
1.52484
1.52444
1.52434
1.52519
1.52739
1.52994
1.53249
1.5336
1.53523
1.54256
1.60085
1.78084
1.90211
2.19351
2.45308
2.50782
2.49661
2.48027
2.47019
2.46956
2.46901
2.4656
2.45747
2.45036
2.44422
2.43891
2.43463
2.43072
2.42596
2.42103
2.41674
2.41202
2.4067
2.4008
2.3936
2.38591
2.37959
2.37424
2.3706
2.36747
2.36442
2.36034
2.35343
2.34679
2.34164
2.33639
2.3311
2.32561
2.31968
2.31245
2.30502
2.29993
2.29662
2.29471
2.29251
2.28652
2.27817
2.26787
2.25726
2.24905
2.24377
2.23952
2.23546
2.23139
2.22707
2.22235
2.21711
2.21228
2.20823
2.20425
2.20057
2.19695
2.19289
2.18834
2.1827
2.17469
2.16442
2.1546
2.14691
2.1413
2.13745
2.13503
2.13355
2.13191
2.13016
2.12771
2.1242
2.12014
2.11558
2.11036
2.1043
2.09677
2.08692
2.07564
2.06691
2.062
2.05881
2.05635
2.0543
2.05271
2.05094
2.0478
2.04382
2.03977
2.03531
2.02939
2.02218
2.01482
2.00764
2.00026
1.99239
1.98448
1.97793
1.97397
1.97156
1.96945
1.96747
1.96599
1.96503
1.96429
1.96341
1.96146
1.95783
1.95116
1.93843
1.92061
1.90718
1.90078
1.89729
1.89494
1.8939
1.89617
1.90187
1.90633
1.90658
1.90589
1.89921
2.09847
1.97738
1.87045
1.76955
1.67876
1.61153
1.54052
1.47374
1.41816
1.37613
1.35074
1.32352
1.28369
1.26632
1.26296
1.25004
1.21951
1.1976
1.19218
1.18772
1.17307
1.16655
1.17424
1.17717
1.17378
1.17465
1.18936
1.2198
1.2604
1.29992
1.33804
1.37539
1.39667
1.40946
1.42664
1.44403
1.45182
1.45717
1.4639
1.47053
1.47541
1.48085
1.48464
1.48492
1.48342
1.484
1.48554
1.48754
1.49159
1.49806
1.50252
1.50243
1.50205
1.50189
1.50152
1.50112
1.50193
1.50399
1.50713
1.51199
1.51683
1.51752
1.51814
1.52507
1.58045
1.74897
1.93174
1.96258
2.00956
2.19646
2.38358
2.44563
2.44342
2.43257
2.42564
2.42449
2.42502
2.42023
2.41318
2.40726
2.40269
2.39952
2.39634
2.39151
2.3852
2.37984
2.3757
2.37273
2.36923
2.36412
2.35682
2.34958
2.34491
2.34175
2.33998
2.33641
2.33146
2.32408
2.3148
2.30832
2.30355
2.29969
2.2963
2.292
2.28779
2.28229
2.27485
2.2688
2.26402
2.25827
2.25059
2.24159
2.23255
2.22505
2.21983
2.21578
2.21226
2.20869
2.20495
2.20055
2.19483
2.18842
2.18383
2.18038
2.17714
2.17372
2.16975
2.16525
2.15961
2.15225
2.14275
2.13194
2.12291
2.11727
2.11344
2.11041
2.10884
2.10808
2.10664
2.10481
2.10233
2.09768
2.09246
2.08824
2.08388
2.07881
2.07272
2.06492
2.05445
2.04282
2.03554
2.03296
2.03133
2.02998
2.02944
2.02891
2.02623
2.02223
2.01824
2.01262
2.0043
1.99659
1.99111
1.98659
1.982
1.9767
1.97014
1.96236
1.95539
1.95085
1.94775
1.94543
1.94436
1.94413
1.94435
1.94453
1.94352
1.94116
1.93696
1.92858
1.91492
1.89872
1.88731
1.88276
1.8811
1.88088
1.88638
1.89467
1.89569
1.89404
1.89208
1.88444
2.13354
2.0343
1.94063
1.84247
1.76341
1.69656
1.63026
1.56703
1.50706
1.45376
1.42215
1.40335
1.37618
1.33148
1.31071
1.30438
1.28998
1.26093
1.24027
1.2378
1.22832
1.20918
1.20479
1.20676
1.2014
1.18544
1.18133
1.18322
1.18916
1.20251
1.22411
1.26118
1.30797
1.34453
1.37354
1.40952
1.43088
1.4396
1.44843
1.45477
1.46075
1.46917
1.47324
1.4745
1.4746
1.47709
1.47971
1.48176
1.48719
1.49477
1.49616
1.49495
1.4926
1.49073
1.49035
1.49159
1.49388
1.49705
1.50251
1.50713
1.5078
1.50907
1.51549
1.58342
1.75813
1.91404
1.96899
1.98521
1.99438
2.02697
2.17834
2.35776
2.41636
2.4146
2.41404
2.41453
2.41582
2.41148
2.40517
2.39877
2.39359
2.39002
2.38632
2.38085
2.37458
2.36966
2.36594
2.36346
2.35983
2.35472
2.3478
2.33838
2.33118
2.32679
2.32295
2.31984
2.31564
2.31026
2.30266
2.29457
2.28921
2.28529
2.28248
2.27921
2.27491
2.26975
2.26196
2.25091
2.24031
2.23193
2.22466
2.21813
2.21276
2.20837
2.20473
2.20167
2.19852
2.19491
2.19068
2.18555
2.1793
2.17264
2.16665
2.16199
2.15802
2.15386
2.1491
2.14357
2.13685
2.12901
2.12066
2.11252
2.10586
2.10155
2.09847
2.09647
2.09558
2.09372
2.09083
2.08723
2.0817
2.0743
2.068
2.06381
2.06011
2.05593
2.05101
2.04535
2.03856
2.03016
2.02141
2.01572
2.0132
2.01175
2.01084
2.00998
2.00762
2.004
1.9985
1.99001
1.98122
1.97553
1.97193
1.96905
1.96663
1.96382
1.95987
1.95414
1.94596
1.93641
1.92877
1.92523
1.92428
1.92435
1.92549
1.92568
1.92489
1.9225
1.91826
1.9121
1.90403
1.89443
1.88381
1.87534
1.87186
1.87146
1.87311
1.87399
1.87368
1.87219
1.87091
1.86501
2.16162
2.07853
1.99268
1.90494
1.83798
1.7704
1.70087
1.63812
1.59074
1.53963
1.48356
1.46335
1.44934
1.41769
1.37302
1.35643
1.34995
1.33238
1.30093
1.28435
1.27987
1.26589
1.24482
1.24009
1.23674
1.22328
1.20377
1.19931
1.20119
1.20363
1.20373
1.20655
1.21687
1.23716
1.26635
1.30345
1.34893
1.38349
1.41059
1.42716
1.43975
1.45382
1.46466
1.47081
1.47463
1.47631
1.47718
1.47883
1.48487
1.49264
1.49444
1.49466
1.49323
1.48868
1.48817
1.48913
1.49072
1.49425
1.50045
1.50361
1.50406
1.50937
1.57402
1.77771
1.92612
1.96593
1.98135
1.99408
1.99854
2.002
2.02577
2.15526
2.3323
2.39315
2.40864
2.41255
2.41375
2.40833
2.40316
2.39824
2.39213
2.3866
2.38129
2.37535
2.37027
2.36595
2.36265
2.36071
2.35721
2.35159
2.34462
2.33472
2.32413
2.31791
2.31324
2.30959
2.30718
2.30312
2.29737
2.28948
2.28144
2.27583
2.27099
2.26683
2.26295
2.25842
2.25259
2.24282
2.23034
2.22093
2.2146
2.20978
2.20579
2.20265
2.19936
2.19527
2.19075
2.18585
2.18048
2.17484
2.1691
2.16317
2.15668
2.15058
2.14537
2.14034
2.13501
2.12932
2.12316
2.1168
2.11091
2.10578
2.10103
2.09692
2.09393
2.09134
2.08791
2.08368
2.07818
2.07144
2.06409
2.05722
2.05141
2.04689
2.04345
2.04013
2.03639
2.03234
2.02804
2.02317
2.01707
2.00997
2.00425
2.00109
1.999
1.9968
1.99333
1.98738
1.97864
1.97029
1.96539
1.96242
1.9598
1.95803
1.95796
1.95729
1.95467
1.95047
1.94264
1.9297
1.91739
1.91103
1.90797
1.90569
1.90407
1.90341
1.90308
1.90214
1.8997
1.89628
1.89303
1.88973
1.88522
1.87844
1.8696
1.86252
1.85829
1.85505
1.85254
1.85043
1.84852
1.84398
2.18507
2.11475
2.03553
1.96071
1.89635
1.83269
1.76299
1.70548
1.65583
1.61205
1.5625
1.52333
1.50538
1.48544
1.4497
1.40639
1.39412
1.38587
1.36553
1.33474
1.3213
1.3141
1.29834
1.27803
1.27343
1.26823
1.25153
1.23546
1.23516
1.23485
1.22858
1.21652
1.21376
1.2152
1.21815
1.22467
1.24118
1.26955
1.30642
1.35273
1.38968
1.42194
1.44336
1.45755
1.4689
1.47173
1.47196
1.47636
1.48275
1.49036
1.49387
1.49485
1.4943
1.49124
1.48739
1.48728
1.48789
1.49139
1.49768
1.50123
1.51124
1.57386
1.7693
1.93203
1.97231
1.98064
1.98726
1.99757
2.0012
2.00044
1.99439
2.00922
2.12261
2.30239
2.38502
2.41168
2.41242
2.40575
2.4013
2.39845
2.39291
2.38603
2.37795
2.37091
2.36676
2.36273
2.35989
2.35845
2.35491
2.34902
2.34223
2.33306
2.3215
2.31313
2.30797
2.3041
2.30243
2.29931
2.29412
2.28752
2.27821
2.26893
2.26292
2.25826
2.2543
2.25006
2.24524
2.2386
2.22868
2.2187
2.21315
2.2092
2.20621
2.20296
2.19835
2.19246
2.18447
2.17623
2.17078
2.16691
2.16303
2.15826
2.15264
2.14574
2.13797
2.13092
2.12528
2.12012
2.11569
2.11206
2.1092
2.1065
2.10299
2.09854
2.09289
2.08653
2.07992
2.07336
2.06677
2.0603
2.05457
2.04954
2.0447
2.03942
2.03408
2.02984
2.02678
2.02434
2.02147
2.01844
2.01543
2.01121
2.00503
1.99731
1.99023
1.98406
1.97799
1.97109
1.96421
1.95951
1.95735
1.9555
1.95466
1.95652
1.95774
1.95531
1.95183
1.94678
1.93814
1.92632
1.91436
1.90495
1.89841
1.89373
1.89094
1.88887
1.88719
1.88631
1.88641
1.88732
1.88842
1.88828
1.8859
1.8809
1.87164
1.85761
1.8455
1.83854
1.8335
1.83091
1.82968
1.82711
2.20333
2.13984
2.06988
2.00738
1.94562
1.88133
1.8199
1.76867
1.71758
1.67141
1.63546
1.59506
1.55587
1.53548
1.51603
1.47884
1.4378
1.42489
1.41335
1.39006
1.36395
1.35773
1.34935
1.32898
1.31051
1.30682
1.30079
1.28525
1.26725
1.26409
1.26118
1.25091
1.23464
1.22948
1.22849
1.22669
1.22704
1.23018
1.23866
1.25719
1.28515
1.31715
1.35555
1.38573
1.41603
1.43732
1.45195
1.46629
1.47691
1.48533
1.48898
1.49045
1.49075
1.48858
1.48366
1.48317
1.48506
1.48962
1.49521
1.51097
1.59724
1.76586
1.93144
1.96741
1.98384
1.98762
1.99142
1.99437
1.99415
1.99278
1.98783
1.98246
1.99347
2.09327
2.26724
2.38272
2.39982
2.39988
2.39628
2.39653
2.3927
2.38583
2.37578
2.3664
2.36142
2.35737
2.35525
2.35471
2.351
2.34505
2.33848
2.33008
2.31974
2.31067
2.30494
2.30072
2.29798
2.29507
2.29035
2.28441
2.27662
2.26694
2.25895
2.2534
2.24851
2.24375
2.23888
2.23406
2.22807
2.22026
2.21428
2.21068
2.20737
2.20308
2.19781
2.19086
2.1815
2.17211
2.16567
2.16108
2.15707
2.15385
2.14992
2.14407
2.13572
2.12742
2.12135
2.11731
2.11443
2.11315
2.1119
2.10881
2.10433
2.0977
2.08877
2.08007
2.07254
2.06529
2.05861
2.05337
2.04941
2.04636
2.04306
2.03856
2.0327
2.02694
2.02284
2.02018
2.01909
2.01833
2.01551
2.01144
2.00518
1.99636
1.98563
1.97588
1.96818
1.9619
1.95677
1.95457
1.9531
1.95244
1.95234
1.95135
1.94899
1.94635
1.94296
1.93803
1.93082
1.9226
1.91501
1.90663
1.89664
1.8886
1.88362
1.881
1.87956
1.87868
1.88065
1.88781
1.89112
1.88952
1.88552
1.88013
1.87164
1.85745
1.84022
1.82811
1.82143
1.81833
1.81712
1.81539
2.2173
2.1592
2.09977
2.04381
1.98577
1.92376
1.87251
1.82316
1.77565
1.72691
1.69302
1.65813
1.6183
1.57868
1.56056
1.53698
1.49996
1.46443
1.45243
1.43777