/*--------------------------------*- C++ -*----------------------------------*\
  =========                 |
  \\      /  F ield         | OpenFOAM: The Open Source CFD Toolbox
   \\    /   O peration     | Website:  https://openfoam.org
    \\  /    A nd           | Version:  7
     \\/     M anipulation  |
\*---------------------------------------------------------------------------*/
FoamFile
{
    version     2.0;
    format      ascii;
    class       volVectorField;
    location    "3";
    object      U;
}
// * * * * * * * * * * * * * * * * * * * * * * * * * * * * * * * * * * * * * //

dimensions      [0 1 -1 0 0 0 0];

internalField   nonuniform List<vector> 
16128
(
(3 2.25646e-17 0)
(3 1.6345e-16 0)
(3 -2.2182e-17 0)
(3 -3.20767e-16 0)
(3 -1.38967e-16 0)
(3 -2.07928e-16 0)
(3 -5.26541e-16 0)
(3 -5.50818e-16 0)
(3 -1.04638e-15 0)
(3 -7.92986e-16 0)
(3 -5.44759e-16 0)
(3 -4.93551e-17 0)
(3 -1.50122e-16 0)
(3 3.92033e-16 0)
(3 7.5605e-16 0)
(3 7.83317e-16 0)
(3 3.47527e-16 0)
(3 -2.02486e-16 0)
(3 -5.55932e-16 0)
(3 -1.36154e-15 0)
(3 -1.3703e-15 0)
(3 -9.19652e-16 0)
(3 -5.71569e-16 0)
(3 -4.29072e-17 0)
(1.70034 0.00794859 0)
(0.790125 0.00848967 0)
(0.726182 0.0118483 0)
(0.698447 0.0129951 0)
(0.66642 0.0135497 0)
(0.634985 0.0140145 0)
(0.603179 0.0141298 0)
(0.571952 0.0138854 0)
(0.54166 0.0135833 0)
(0.512032 0.0135061 0)
(0.482408 0.0137962 0)
(0.452273 0.0143509 0)
(0.421464 0.0148474 0)
(0.390221 0.0151509 0)
(0.358735 0.015449 0)
(0.326782 0.0159144 0)
(0.293715 0.016487 0)
(0.259224 0.0170863 0)
(0.223403 0.0177425 0)
(0.186266 0.0184416 0)
(0.147673 0.0192337 0)
(0.10729 0.0201844 0)
(0.0652935 0.0207682 0)
(0.0226062 0.0215232 0)
(3 -2.9746e-17 0)
(3 -1.7762e-16 0)
(3 -7.9351e-16 0)
(3 -1.14465e-15 0)
(3 -7.7145e-16 0)
(3 -9.87244e-16 0)
(3 -1.71097e-15 0)
(3 -1.66392e-15 0)
(3 -1.46696e-15 0)
(3 -1.12571e-15 0)
(3 -1.0932e-15 0)
(3 -7.37137e-16 0)
(3 -5.94307e-16 0)
(3 -2.85287e-16 0)
(3 2.37125e-16 0)
(3 8.24785e-16 0)
(3 6.74503e-16 0)
(3 -7.07985e-16 0)
(3 -3.23773e-15 0)
(3 -4.08395e-15 0)
(3 -3.89316e-15 0)
(3 -2.27189e-15 0)
(3 -1.18587e-15 0)
(3 4.89608e-16 0)
(1.7182 0.0383518 0)
(0.785204 0.0369016 0)
(0.716796 0.0334993 0)
(0.689151 0.0362414 0)
(0.657419 0.0381639 0)
(0.626251 0.0399385 0)
(0.594605 0.0406308 0)
(0.563381 0.0400972 0)
(0.533 0.0391839 0)
(0.503305 0.0389328 0)
(0.473668 0.0399337 0)
(0.443534 0.0418202 0)
(0.412677 0.0434908 0)
(0.381395 0.0445023 0)
(0.349996 0.0454921 0)
(0.318366 0.0470274 0)
(0.285938 0.0489149 0)
(0.252446 0.0509124 0)
(0.217955 0.0531064 0)
(0.182325 0.0554494 0)
(0.14522 0.0580579 0)
(0.106137 0.0611833 0)
(0.0649818 0.063281 0)
(0.0227043 0.065986 0)
(3 -2.88395e-16 0)
(3 -6.74074e-16 0)
(3 -6.68917e-16 0)
(3 -7.84378e-16 0)
(3 -7.87287e-16 0)
(3 -1.31161e-15 0)
(3 -1.69858e-15 0)
(3 -1.95975e-15 0)
(3 -1.50477e-15 0)
(3 -1.26397e-15 0)
(3 -9.62131e-16 0)
(3 -1.37748e-15 0)
(3 -1.36132e-15 0)
(3 -1.51173e-15 0)
(3 -1.43431e-15 0)
(3 -1.32109e-15 0)
(3 -1.22836e-15 0)
(3 -1.29711e-15 0)
(3 -2.45871e-15 0)
(3 -2.79707e-15 0)
(3 -2.40861e-15 0)
(3 -1.38314e-15 0)
(3 -2.27701e-16 0)
(3 -6.53904e-16 0)
(1.77633 0.0684257 0)
(0.792891 0.0659918 0)
(0.717509 0.0582078 0)
(0.688495 0.0618647 0)
(0.656025 0.0648451 0)
(0.624412 0.0676281 0)
(0.592411 0.0688086 0)
(0.560688 0.0680619 0)
(0.529599 0.0665544 0)
(0.499084 0.0659707 0)
(0.468648 0.0674638 0)
(0.437749 0.0705004 0)
(0.406006 0.0731714 0)
(0.373715 0.074618 0)
(0.341325 0.0758826 0)
(0.308896 0.0779734 0)
(0.276023 0.0806102 0)
(0.242572 0.0834376 0)
(0.208699 0.0866976 0)
(0.174229 0.0904101 0)
(0.138741 0.0947601 0)
(0.101651 0.100223 0)
(0.0623959 0.104147 0)
(0.0220209 0.109215 0)
(3 -3.40398e-16 0)
(3 -4.90557e-16 0)
(3 -1.11346e-17 0)
(3 -1.06788e-16 0)
(3 -6.65427e-16 0)
(3 -8.57276e-16 0)
(3 -5.93112e-16 0)
(3 -9.40674e-16 0)
(3 -1.38692e-15 0)
(3 -8.29931e-16 0)
(3 -5.77193e-16 0)
(3 -9.02592e-16 0)
(3 -9.26532e-16 0)
(3 -7.81202e-16 0)
(3 -8.16336e-16 0)
(3 -1.14299e-15 0)
(3 -1.12105e-15 0)
(3 -7.83855e-16 0)
(3 -8.41195e-16 0)
(3 -4.82418e-16 0)
(3 -3.69546e-16 0)
(3 -1.08219e-15 0)
(3 -1.59868e-15 0)
(3 1.99558e-16 0)
(1.86358 0.0945586 0)
(0.803566 0.0958322 0)
(0.720084 0.0836102 0)
(0.690879 0.0871922 0)
(0.658952 0.0909393 0)
(0.627939 0.094723 0)
(0.596339 0.0966397 0)
(0.564608 0.0961312 0)
(0.533046 0.0944522 0)
(0.501721 0.093786 0)
(0.470365 0.0959558 0)
(0.438534 0.100382 0)
(0.405645 0.104351 0)
(0.371968 0.106458 0)
(0.338121 0.108056 0)
(0.304337 0.110595 0)
(0.270327 0.113694 0)
(0.236037 0.116859 0)
(0.201725 0.12051 0)
(0.16729 0.124856 0)
(0.132401 0.130216 0)
(0.0966886 0.137574 0)
(0.0591357 0.143202 0)
(0.0209985 0.15066 0)
(3 -1.49016e-17 0)
(3 4.89882e-17 0)
(3 7.29601e-17 0)
(3 2.01345e-16 0)
(3 8.82904e-18 0)
(3 -2.33679e-16 0)
(3 -4.9385e-16 0)
(3 -7.25746e-16 0)
(3 -7.09751e-16 0)
(3 -7.55344e-16 0)
(3 -4.11279e-16 0)
(3 -5.37241e-16 0)
(3 -2.82848e-16 0)
(3 -9.74649e-17 0)
(3 -1.62534e-17 0)
(3 3.65904e-17 0)
(3 2.07811e-18 0)
(3 4.60128e-16 0)
(3 1.32643e-15 0)
(3 9.88899e-16 0)
(3 3.68797e-16 0)
(3 -4.79375e-16 0)
(3 -1.25406e-15 0)
(3 -3.02137e-15 0)
(1.97989 0.11885 0)
(0.818091 0.126623 0)
(0.723078 0.110127 0)
(0.69335 0.112501 0)
(0.662039 0.116839 0)
(0.63174 0.121628 0)
(0.60067 0.124525 0)
(0.569099 0.124687 0)
(0.537278 0.123211 0)
(0.505453 0.122527 0)
(0.473701 0.125255 0)
(0.441825 0.131035 0)
(0.408973 0.136427 0)
(0.375197 0.139353 0)
(0.341122 0.141393 0)
(0.306985 0.144475 0)
(0.272436 0.148139 0)
(0.237347 0.151678 0)
(0.202041 0.15559 0)
(0.166572 0.160232 0)
(0.130824 0.165906 0)
(0.0949286 0.174382 0)
(0.0576129 0.181092 0)
(0.0205066 0.190432 0)
(3 1.45531e-16 0)
(3 5.49465e-16 0)
(3 3.22941e-16 0)
(3 2.98177e-16 0)
(3 3.98835e-16 0)
(3 -8.30931e-17 0)
(3 -6.90438e-16 0)
(3 -6.37361e-16 0)
(3 -6.41381e-16 0)
(3 -1.18446e-15 0)
(3 -1.06051e-15 0)
(3 -1.1031e-15 0)
(3 -1.47039e-15 0)
(3 -1.37409e-15 0)
(3 -1.58783e-15 0)
(3 -1.36871e-15 0)
(3 -8.57929e-16 0)
(3 -2.71619e-16 0)
(3 1.46274e-16 0)
(3 5.33007e-16 0)
(3 9.32769e-16 0)
(3 4.58897e-16 0)
(3 1.33982e-17 0)
(3 -2.22306e-15 0)
(2.12922 0.137674 0)
(0.840505 0.157005 0)
(0.729703 0.138016 0)
(0.699158 0.137694 0)
(0.668396 0.141864 0)
(0.63911 0.14737 0)
(0.608953 0.151387 0)
(0.577935 0.152637 0)
(0.546283 0.151798 0)
(0.514433 0.151147 0)
(0.482803 0.154105 0)
(0.451543 0.160878 0)
(0.419526 0.16757 0)
(0.386383 0.171355 0)
(0.352634 0.173937 0)
(0.31846 0.177818 0)
(0.28337 0.182531 0)
(0.247081 0.187065 0)
(0.209968 0.191805 0)
(0.172331 0.197109 0)
(0.134331 0.202984 0)
(0.0967115 0.212115 0)
(0.0581462 0.219369 0)
(0.0205383 0.229932 0)
(3 2.58519e-16 0)
(3 2.71212e-16 0)
(3 3.81408e-16 0)
(3 -1.32566e-16 0)
(3 -5.4143e-16 0)
(3 -6.27151e-16 0)
(3 -6.87291e-16 0)
(3 -6.50393e-16 0)
(3 -1.22626e-15 0)
(3 -1.39012e-15 0)
(3 -1.2976e-15 0)
(3 -1.07695e-15 0)
(3 -1.03221e-15 0)
(3 -9.02522e-16 0)
(3 -1.15093e-15 0)
(3 -2.58188e-15 0)
(3 -2.2564e-15 0)
(3 -1.71051e-15 0)
(3 -7.89484e-16 0)
(3 7.41758e-16 0)
(3 7.87948e-16 0)
(3 -2.37138e-16 0)
(3 -2.25214e-16 0)
(3 -2.79287e-16 0)
(2.3051 0.152459 0)
(0.865636 0.189277 0)
(0.732559 0.16727 0)
(0.701524 0.163855 0)
(0.670213 0.167096 0)
(0.641274 0.173275 0)
(0.611608 0.178614 0)
(0.580947 0.181236 0)
(0.549545 0.181263 0)
(0.518016 0.180537 0)
(0.486981 0.183207 0)
(0.456967 0.190521 0)
(0.42657 0.198481 0)
(0.394685 0.203461 0)
(0.36161 0.207038 0)
(0.327578 0.212238 0)
(0.292167 0.218586 0)
(0.255072 0.224614 0)
(0.216803 0.230442 0)
(0.177851 0.236466 0)
(0.138344 0.242313 0)
(0.0992932 0.251652 0)
(0.0594533 0.258988 0)
(0.0209662 0.27024 0)
(3 3.03902e-17 0)
(3 -2.41005e-16 0)
(3 -3.26933e-16 0)
(3 -2.27868e-16 0)
(3 -1.4088e-16 0)
(3 -2.87631e-16 0)
(3 6.94572e-17 0)
(3 -2.59453e-16 0)
(3 1.07469e-16 0)
(3 -2.64898e-17 0)
(3 -1.02677e-17 0)
(3 1.29432e-16 0)
(3 2.15387e-16 0)
(3 2.49569e-16 0)
(3 3.30855e-17 0)
(3 -7.78533e-16 0)
(3 -1.9649e-15 0)
(3 -2.22965e-15 0)
(3 -1.4844e-15 0)
(3 -9.4414e-16 0)
(3 -5.65898e-16 0)
(3 -5.7483e-16 0)
(3 -5.67568e-16 0)
(3 -7.58692e-16 0)
(2.51045 0.161705 0)
(0.904885 0.224157 0)
(0.742703 0.197703 0)
(0.713979 0.191279 0)
(0.682071 0.193359 0)
(0.652635 0.199707 0)
(0.622396 0.206268 0)
(0.591215 0.210303 0)
(0.559293 0.211168 0)
(0.5272 0.210203 0)
(0.495586 0.212022 0)
(0.465372 0.219258 0)
(0.435408 0.228347 0)
(0.403957 0.234877 0)
(0.37114 0.239827 0)
(0.33736 0.246612 0)
(0.302213 0.254901 0)
(0.26511 0.262788 0)
(0.22639 0.270071 0)
(0.186546 0.277237 0)
(0.145522 0.283456 0)
(0.104461 0.293168 0)
(0.0624763 0.30058 0)
(0.02197 0.312381 0)
(3 -1.18088e-17 0)
(3 -3.75174e-17 0)
(3 -4.59516e-17 0)
(3 -1.5294e-17 0)
(3 3.50167e-16 0)
(3 4.49263e-16 0)
(3 2.23066e-16 0)
(3 1.50458e-16 0)
(3 -1.52692e-17 0)
(3 -2.3514e-16 0)
(3 -5.46248e-16 0)
(3 -5.26359e-17 0)
(3 3.08506e-16 0)
(3 -1.51174e-16 0)
(3 -3.61119e-16 0)
(3 -2.52775e-16 0)
(3 -4.62015e-16 0)
(3 -4.89805e-16 0)
(3 -1.71819e-16 0)
(3 -6.40959e-16 0)
(3 -8.75102e-16 0)
(3 -8.86205e-16 0)
(3 -7.86663e-16 0)
(3 -1.16338e-15 0)
(2.73902 0.155939 0)
(0.970004 0.252891 0)
(0.770381 0.217718 0)
(0.743552 0.216307 0)
(0.709569 0.218925 0)
(0.678435 0.225903 0)
(0.646473 0.233565 0)
(0.613624 0.239173 0)
(0.579819 0.241567 0)
(0.54563 0.241116 0)
(0.511777 0.24224 0)
(0.479462 0.249075 0)
(0.448203 0.258972 0)
(0.415966 0.266974 0)
(0.382583 0.273167 0)
(0.348613 0.281302 0)
(0.313777 0.291468 0)
(0.277082 0.301416 0)
(0.238438 0.310541 0)
(0.198124 0.319463 0)
(0.155651 0.326839 0)
(0.112227 0.337541 0)
(0.0672734 0.345381 0)
(0.023644 0.357844 0)
(3 1.75401e-16 0)
(3 4.5389e-16 0)
(3 7.39985e-16 0)
(3 8.60837e-16 0)
(3 7.8685e-16 0)
(3 8.30874e-16 0)
(3 3.49223e-16 0)
(3 -2.44186e-16 0)
(3 -1.01129e-15 0)
(3 -1.57124e-15 0)
(3 -8.95931e-16 0)
(3 4.40109e-16 0)
(3 7.61299e-16 0)
(3 4.66637e-16 0)
(3 5.8283e-16 0)
(3 1.28531e-15 0)
(3 1.07649e-15 0)
(3 9.98677e-16 0)
(3 2.63814e-16 0)
(3 -5.98568e-16 0)
(3 -8.07241e-16 0)
(3 -7.54607e-16 0)
(3 -4.7672e-16 0)
(3 -5.91571e-16 0)
(2.94486 0.0757362 0)
(1.04979 0.269661 0)
(0.795061 0.230956 0)
(0.777261 0.238163 0)
(0.74307 0.243938 0)
(0.710739 0.252562 0)
(0.677163 0.26197 0)
(0.642959 0.269389 0)
(0.607897 0.273453 0)
(0.571995 0.274036 0)
(0.535817 0.274796 0)
(0.500787 0.280926 0)
(0.467266 0.291143 0)
(0.433403 0.300338 0)
(0.398704 0.307504 0)
(0.363826 0.316519 0)
(0.328711 0.32826 0)
(0.29191 0.340471 0)
(0.252718 0.352117 0)
(0.211264 0.36382 0)
(0.166794 0.373445 0)
(0.120499 0.385934 0)
(0.0721956 0.394469 0)
(0.0251874 0.407489 0)
(3 -1.05287e-16 0)
(3 -2.66386e-17 0)
(3 3.38622e-16 0)
(3 8.09216e-16 0)
(3 7.71248e-16 0)
(3 6.5974e-16 0)
(3 6.99794e-16 0)
(3 9.32131e-16 0)
(3 3.16898e-16 0)
(3 4.10533e-16 0)
(3 8.40413e-16 0)
(3 8.54881e-16 0)
(3 7.32037e-16 0)
(3 1.48347e-15 0)
(3 1.45602e-15 0)
(3 1.42428e-15 0)
(3 1.43287e-15 0)
(3 4.54074e-16 0)
(3 -2.50971e-16 0)
(3 5.6205e-17 0)
(3 5.51005e-16 0)
(3 6.10737e-17 0)
(3 -1.34682e-17 0)
(3 -5.59012e-16 0)
(3.01418 0.00844224 0)
(1.13197 0.270129 0)
(0.798003 0.245229 0)
(0.785457 0.265188 0)
(0.757675 0.273624 0)
(0.729973 0.281919 0)
(0.70072 0.29083 0)
(0.669745 0.298913 0)
(0.636686 0.305224 0)
(0.601593 0.308151 0)
(0.564971 0.309641 0)
(0.528173 0.315374 0)
(0.49243 0.325667 0)
(0.456667 0.335794 0)
(0.420264 0.343707 0)
(0.383861 0.353151 0)
(0.347804 0.366106 0)
(0.310659 0.380604 0)
(0.271203 0.394952 0)
(0.229375 0.409857 0)
(0.183244 0.422526 0)
(0.134271 0.438124 0)
(0.0809932 0.448682 0)
(0.0284055 0.462898 0)
(3 -7.32689e-18 0)
(3 -3.80722e-16 0)
(3 -6.79431e-16 0)
(3 -4.2522e-16 0)
(3 2.38537e-17 0)
(3 2.95226e-16 0)
(3 1.26292e-15 0)
(3 1.65804e-15 0)
(3 1.69138e-15 0)
(3 1.58052e-15 0)
(3 1.08978e-15 0)
(3 2.58484e-16 0)
(3 1.7039e-16 0)
(3 6.15364e-16 0)
(3 7.18418e-16 0)
(3 2.76251e-16 0)
(3 -6.67715e-17 0)
(3 -5.66142e-16 0)
(3 -8.23359e-16 0)
(3 3.59502e-16 0)
(3 8.93513e-16 0)
(3 1.06936e-15 0)
(3 9.63738e-16 0)
(3 -6.27297e-16 0)
(3.00074 7.09589e-05 0)
(1.25049 0.28765 0)
(0.789536 0.254684 0)
(0.77045 0.281594 0)
(0.748296 0.297575 0)
(0.725408 0.308151 0)
(0.703506 0.318008 0)
(0.681371 0.326646 0)
(0.656925 0.333868 0)
(0.627879 0.339551 0)
(0.594484 0.343968 0)
(0.558822 0.350962 0)
(0.522739 0.361874 0)
(0.486026 0.373083 0)
(0.448174 0.382004 0)
(0.409949 0.391817 0)
(0.372287 0.405612 0)
(0.334136 0.422211 0)
(0.293398 0.439638 0)
(0.249496 0.459326 0)
(0.199625 0.477229 0)
(0.146895 0.497602 0)
(0.0889351 0.511481 0)
(0.0299896 0.526199 0)
(3 -1.26275e-17 0)
(3 -9.48702e-17 0)
(3 -3.96897e-16 0)
(3 -1.48662e-16 0)
(3 4.01169e-16 0)
(3 6.20336e-16 0)
(3 9.14094e-16 0)
(3 9.63797e-16 0)
(3 1.30956e-15 0)
(3 1.12448e-15 0)
(3 4.27133e-16 0)
(3 -5.20394e-16 0)
(3 -4.95666e-16 0)
(3 -2.5459e-16 0)
(3 2.35592e-16 0)
(3 7.39571e-17 0)
(3 -6.32867e-17 0)
(3 3.41672e-16 0)
(3 1.5012e-16 0)
(3 3.38894e-16 0)
(3 2.43288e-16 0)
(3 1.90306e-15 0)
(3 1.79396e-15 0)
(3 7.84699e-16 0)
(3 -6.84315e-08 0)
(1.44989 0.318817 0)
(0.798344 0.286347 0)
(0.745295 0.293181 0)
(0.725755 0.307362 0)
(0.706142 0.319301 0)
(0.690043 0.332423 0)
(0.673939 0.344874 0)
(0.657788 0.356837 0)
(0.639076 0.366799 0)
(0.615078 0.374867 0)
(0.585975 0.384465 0)
(0.553694 0.397349 0)
(0.518804 0.410802 0)
(0.481251 0.42187 0)
(0.442004 0.432526 0)
(0.402749 0.447249 0)
(0.363317 0.466181 0)
(0.32116 0.487372 0)
(0.277127 0.512122 0)
(0.227458 0.534899 0)
(0.173497 0.560764 0)
(0.10851 0.582002 0)
(0.0387353 0.601014 0)
(3 -9.32801e-18 0)
(3 -1.25924e-16 0)
(3 3.65283e-16 0)
(3 2.40193e-16 0)
(3 3.81013e-16 0)
(3 6.3013e-16 0)
(3 6.56944e-16 0)
(3 7.12283e-16 0)
(3 3.52749e-16 0)
(3 1.72371e-16 0)
(3 -2.81504e-17 0)
(3 -2.97961e-16 0)
(3 -7.55809e-16 0)
(3 -6.59942e-16 0)
(3 -4.70439e-16 0)
(3 -1.01762e-16 0)
(3 2.95381e-16 0)
(3 3.31153e-16 0)
(3 1.19568e-16 0)
(3 -3.7639e-16 0)
(3 -7.00117e-16 0)
(3 -1.46224e-16 0)
(3 7.40205e-16 0)
(3 1.55512e-15 0)
(3 -8.23836e-08 0)
(1.75397 0.353949 0)
(0.825021 0.339894 0)
(0.736105 0.323824 0)
(0.711062 0.327147 0)
(0.692407 0.334225 0)
(0.677395 0.343756 0)
(0.663433 0.35504 0)
(0.650229 0.368417 0)
(0.636695 0.383534 0)
(0.620601 0.39835 0)
(0.600308 0.413053 0)
(0.576104 0.429811 0)
(0.547518 0.447086 0)
(0.514227 0.461982 0)
(0.476534 0.475237 0)
(0.437739 0.491517 0)
(0.39818 0.512672 0)
(0.356363 0.536899 0)
(0.312311 0.566772 0)
(0.259577 0.598785 0)
(0.197886 0.637114 0)
(0.124911 0.674263 0)
(0.0393489 0.698229 0)
(3 3.16962e-17 0)
(3 -2.79291e-16 0)
(3 -3.72034e-16 0)
(3 -9.75835e-16 0)
(3 -9.65133e-16 0)
(3 -3.5341e-16 0)
(3 -1.1873e-16 0)
(3 -2.89456e-16 0)
(3 -2.90685e-16 0)
(3 -5.68529e-16 0)
(3 -5.89523e-16 0)
(3 -3.89152e-16 0)
(3 -3.24394e-16 0)
(3 -1.77689e-16 0)
(3 -5.6569e-16 0)
(3 -6.0184e-16 0)
(3 -3.13724e-16 0)
(3 -3.59769e-16 0)
(3 -7.61106e-16 0)
(3 -1.78911e-15 0)
(3 -2.22189e-15 0)
(3 -1.58744e-15 0)
(3 -1.30598e-15 0)
(3 1.41362e-15 0)
(3 -1.82155e-08 0)
(2.18188 0.371212 0)
(0.882747 0.409702 0)
(0.761739 0.361575 0)
(0.72996 0.355411 0)
(0.702686 0.355653 0)
(0.681607 0.362036 0)
(0.664408 0.371846 0)
(0.649269 0.383785 0)
(0.635391 0.39821 0)
(0.621621 0.414893 0)
(0.606465 0.433622 0)
(0.589816 0.454874 0)
(0.569673 0.477265 0)
(0.543922 0.497673 0)
(0.512056 0.516034 0)
(0.476682 0.535426 0)
(0.438998 0.559616 0)
(0.398437 0.588262 0)
(0.355396 0.626224 0)
(0.30675 0.671179 0)
(0.250507 0.720285 0)
(0.181039 0.772073 0)
(0.0709543 0.818449 0)
(3 -8.93464e-17 0)
(3 4.62085e-17 0)
(3 -2.54455e-16 0)
(3 -4.6665e-16 0)
(3 -9.23769e-16 0)
(3 -1.28093e-15 0)
(3 -1.77709e-15 0)
(3 -1.998e-15 0)
(3 -1.6916e-15 0)
(3 -1.53501e-15 0)
(3 -1.61732e-15 0)
(3 -6.88049e-16 0)
(3 1.19225e-16 0)
(3 6.90953e-16 0)
(3 4.8211e-16 0)
(3 5.46991e-16 0)
(3 -1.51008e-16 0)
(3 -9.30067e-18 0)
(3 -9.9709e-17 0)
(3 -5.94364e-17 0)
(3 -8.7939e-16 0)
(3 -1.31205e-15 0)
(3 -1.33409e-15 0)
(3 -5.78736e-17 0)
(3 -1.90768e-09 0)
(2.76243 0.263476 0)
(1.01549 0.454697 0)
(0.834752 0.386155 0)
(0.799391 0.371641 0)
(0.754975 0.377343 0)
(0.717198 0.382487 0)
(0.687656 0.390942 0)
(0.663963 0.402241 0)
(0.644585 0.416145 0)
(0.628195 0.432415 0)
(0.613647 0.451729 0)
(0.599599 0.474761 0)
(0.585893 0.501279 0)
(0.567491 0.527899 0)
(0.544318 0.553182 0)
(0.515166 0.577998 0)
(0.482977 0.607061 0)
(0.447417 0.640863 0)
(0.41162 0.68402 0)
(0.372327 0.736426 0)
(0.318253 0.810225 0)
(0.221835 0.919113 0)
(0.12094 1.04508 0)
(3 1.94977e-16 0)
(3 5.37878e-16 0)
(3 4.95711e-16 0)
(3 9.56515e-16 0)
(3 4.53439e-16 0)
(3 -1.97976e-16 0)
(3 -4.90838e-16 0)
(3 -1.15838e-15 0)
(3 -2.05254e-15 0)
(3 -1.04845e-15 0)
(3 -5.22252e-16 0)
(3 -4.17748e-16 0)
(3 -3.68274e-16 0)
(3 1.46116e-16 0)
(3 9.05243e-16 0)
(3 9.70188e-16 0)
(3 2.27668e-16 0)
(3 -6.11648e-16 0)
(3 9.00948e-17 0)
(3 5.24864e-16 0)
(3 2.04747e-16 0)
(3 -9.30104e-16 0)
(3 -5.62764e-16 0)
(3 -2.10475e-16 0)
(3 -7.51537e-11 0)
(3.06484 0.0273889 0)
(1.21864 0.424502 0)
(0.884494 0.410001 0)
(0.853448 0.419425 0)
(0.813969 0.419274 0)
(0.769547 0.418869 0)
(0.729459 0.421423 0)
(0.695307 0.427205 0)
(0.667797 0.437233 0)
(0.645778 0.451164 0)
(0.628708 0.469503 0)
(0.614271 0.492295 0)
(0.602584 0.520282 0)
(0.590262 0.551169 0)
(0.575361 0.582746 0)
(0.554645 0.614316 0)
(0.531039 0.649456 0)
(0.503693 0.688153 0)
(0.476312 0.737099 0)
(0.444962 0.807811 0)
(0.4156 0.926824 0)
(0.401697 1.08002 0)
(0.507028 1.33547 0)
(3 2.44091e-16 0)
(3 4.26735e-16 0)
(3 8.22722e-16 0)
(3 6.61855e-16 0)
(3 5.24581e-16 0)
(3 2.59284e-16 0)
(3 4.10646e-16 0)
(3 -9.39837e-18 0)
(3 -5.58168e-16 0)
(3 1.79979e-16 0)
(3 5.1172e-16 0)
(3 4.74149e-16 0)
(3 -3.03844e-17 0)
(3 -6.69645e-16 0)
(3 -3.32898e-16 0)
(3 -4.46455e-16 0)
(3 -5.29346e-16 0)
(3 -8.09924e-16 0)
(3 -8.05563e-16 0)
(3 -1.58766e-16 0)
(3 -7.93956e-18 0)
(3 1.27598e-16 0)
(3 7.03379e-16 0)
(3 1.53031e-15 0)
(3 -1.40845e-12 0)
(3.00486 3.22675e-05 0)
(1.38876 0.405726 0)
(0.867879 0.444921 0)
(0.843415 0.455985 0)
(0.818145 0.457344 0)
(0.79163 0.457574 0)
(0.761579 0.459285 0)
(0.729098 0.461606 0)
(0.698197 0.467139 0)
(0.671423 0.476121 0)
(0.650248 0.490876 0)
(0.633907 0.511408 0)
(0.621758 0.538478 0)
(0.612638 0.571201 0)
(0.603985 0.607314 0)
(0.592374 0.645218 0)
(0.579135 0.686478 0)
(0.56324 0.731634 0)
(0.54748 0.78799 0)
(0.539388 0.871641 0)
(0.545111 0.996732 0)
(0.621731 1.14358 0)
(0.913496 1.33219 0)
(3 -1.53922e-16 0)
(3 -4.60084e-16 0)
(3 -5.92269e-16 0)
(3 -8.93374e-16 0)
(3 -4.80814e-16 0)
(3 3.50603e-16 0)
(3 5.03795e-16 0)
(3 1.02711e-15 0)
(3 1.36251e-15 0)
(3 1.57175e-16 0)
(3 -2.91341e-16 0)
(3 4.32304e-16 0)
(3 7.108e-16 0)
(3 -6.7295e-16 0)
(3 -1.36922e-15 0)
(3 -1.88325e-15 0)
(3 -1.046e-15 0)
(3 -2.26473e-16 0)
(3 -3.27774e-16 0)
(3 -4.73332e-16 0)
(3 9.11007e-16 0)
(3 1.39445e-15 0)
(3 1.63789e-15 0)
(3 1.621e-15 0)
(3 -1.05238e-14 0)
(3.00002 -1.04026e-06 0)
(1.72916 0.430909 0)
(0.864355 0.459116 0)
(0.820135 0.462274 0)
(0.814155 0.471797 0)
(0.800907 0.479809 0)
(0.783123 0.486942 0)
(0.759334 0.492273 0)
(0.732532 0.497385 0)
(0.705567 0.503705 0)
(0.681334 0.514323 0)
(0.662328 0.531464 0)
(0.647678 0.555794 0)
(0.639376 0.587536 0)
(0.634314 0.625316 0)
(0.630347 0.667482 0)
(0.627156 0.713918 0)
(0.624991 0.765255 0)
(0.624521 0.82622 0)
(0.639184 0.910828 0)
(0.680656 1.0225 0)
(0.81948 1.15427 0)
(1.15089 1.26773 0)
(3 -4.89449e-17 0)
(3 -1.49146e-16 0)
(3 -2.97058e-16 0)
(3 -2.39023e-16 0)
(3 1.52731e-16 0)
(3 7.04666e-17 0)
(3 -1.02537e-16 0)
(3 7.99966e-16 0)
(3 2.23444e-15 0)
(3 1.88216e-15 0)
(3 1.2672e-15 0)
(3 7.33972e-16 0)
(3 8.8685e-16 0)
(3 1.39021e-16 0)
(3 -9.0883e-16 0)
(3 -1.76995e-15 0)
(3 -1.464e-15 0)
(3 -9.06323e-17 0)
(3 8.15521e-16 0)
(3 9.08111e-16 0)
(3 1.47925e-15 0)
(3 1.43487e-15 0)
(3 -2.71941e-16 0)
(3 -6.89726e-16 0)
(3 -2.60312e-16 0)
(3 -1.27285e-06 0)
(2.31736 0.423138 0)
(0.946213 0.520992 0)
(0.84312 0.470139 0)
(0.833848 0.479262 0)
(0.822193 0.493325 0)
(0.806775 0.506381 0)
(0.787921 0.51752 0)
(0.765682 0.52688 0)
(0.742042 0.534958 0)
(0.717923 0.543832 0)
(0.696951 0.557613 0)
(0.680004 0.577789 0)
(0.67036 0.606268 0)
(0.666976 0.642479 0)
(0.668289 0.685453 0)
(0.673885 0.734553 0)
(0.684261 0.789824 0)
(0.701959 0.852669 0)
(0.734005 0.932682 0)
(0.807234 1.03103 0)
(0.967892 1.13353 0)
(1.24971 1.19945 0)
(3 1.35208e-16 0)
(3 3.8769e-16 0)
(3 3.06334e-16 0)
(3 6.26833e-16 0)
(3 7.52679e-16 0)
(3 -1.31404e-16 0)
(3 2.45343e-16 0)
(3 6.50451e-16 0)
(3 1.29779e-15 0)
(3 2.01639e-15 0)
(3 2.25968e-15 0)
(3 1.38775e-15 0)
(3 1.47736e-16 0)
(3 2.70053e-16 0)
(3 -2.07473e-16 0)
(3 -4.07292e-16 0)
(3 -1.26123e-16 0)
(3 1.54828e-16 0)
(3 4.46547e-16 0)
(3 6.0333e-16 0)
(3 7.15711e-16 0)
(3 5.94709e-16 0)
(3 -5.54262e-17 0)
(3 -7.3708e-16 0)
(3 -1.86645e-16 0)
(3 -2.64894e-07 0)
(2.98961 0.150367 0)
(1.15407 0.525832 0)
(0.909938 0.482771 0)
(0.883768 0.495897 0)
(0.857801 0.510941 0)
(0.836451 0.523783 0)
(0.818919 0.536335 0)
(0.800674 0.548247 0)
(0.781578 0.559588 0)
(0.760176 0.57 0)
(0.73952 0.582744 0)
(0.721427 0.599581 0)
(0.709066 0.623939 0)
(0.705137 0.656753 0)
(0.708461 0.69748 0)
(0.719949 0.745763 0)
(0.739129 0.801618 0)
(0.771851 0.864087 0)
(0.819554 0.938175 0)
(0.912241 1.02226 0)
(1.06911 1.09614 0)
(1.30462 1.13775 0)
(3 -4.33593e-17 0)
(3 3.62479e-18 0)
(3 -2.4872e-16 0)
(3 -1.2054e-16 0)
(3 1.0168e-16 0)
(3 2.98968e-16 0)
(3 7.0007e-16 0)
(3 5.84866e-16 0)
(3 3.83202e-16 0)
(3 9.63128e-16 0)
(3 1.05145e-15 0)
(3 1.21744e-16 0)
(3 -1.94359e-16 0)
(3 -2.61556e-16 0)
(3 2.22261e-16 0)
(3 5.83921e-16 0)
(3 7.34642e-16 0)
(3 1.03205e-16 0)
(3 3.23568e-17 0)
(3 3.72659e-17 0)
(3 -3.94648e-16 0)
(3 -5.76627e-16 0)
(3 4.8571e-16 0)
(3 3.94238e-16 0)
(3 6.71181e-16 0)
(3 -2.62917e-08 0)
(3.03567 0.00536234 0)
(1.35076 0.488759 0)
(0.926596 0.536008 0)
(0.896739 0.540655 0)
(0.867226 0.541961 0)
(0.845276 0.547674 0)
(0.830936 0.558843 0)
(0.81839 0.572141 0)
(0.806789 0.586243 0)
(0.79263 0.599299 0)
(0.777563 0.612831 0)
(0.7629 0.628168 0)
(0.751059 0.648031 0)
(0.746945 0.676 0)
(0.751317 0.71199 0)
(0.766399 0.755801 0)
(0.791171 0.807628 0)
(0.832729 0.86571 0)
(0.892416 0.93345 0)
(0.994481 1.00408 0)
(1.13938 1.05737 0)
(1.33227 1.08497 0)
(3 -6.41462e-17 0)
(3 -1.04616e-16 0)
(3 -1.07929e-16 0)
(3 -2.41991e-16 0)
(3 -2.20358e-16 0)
(3 2.83064e-17 0)
(3 9.6479e-17 0)
(3 6.8731e-16 0)
(3 7.00252e-16 0)
(3 3.13642e-16 0)
(3 -1.45666e-16 0)
(3 -4.0382e-16 0)
(3 2.07972e-16 0)
(3 4.74385e-16 0)
(3 3.63745e-16 0)
(3 1.34102e-15 0)
(3 1.39146e-15 0)
(3 4.83296e-16 0)
(3 5.45916e-17 0)
(3 -1.95483e-16 0)
(3 -5.94004e-16 0)
(3 -9.20596e-16 0)
(3 -9.86737e-16 0)
(3 -5.84351e-16 0)
(3 -4.16672e-18 0)
(3 -8.63069e-10 0)
(3.00075 -1.17048e-05 0)
(1.71042 0.502676 0)
(0.911614 0.561894 0)
(0.884248 0.556254 0)
(0.873883 0.562074 0)
(0.859948 0.565851 0)
(0.848231 0.574063 0)
(0.838519 0.586286 0)
(0.831408 0.601339 0)
(0.823459 0.617216 0)
(0.814695 0.633283 0)
(0.805606 0.650213 0)
(0.797084 0.668328 0)
(0.793678 0.692295 0)
(0.798013 0.723403 0)
(0.814016 0.761882 0)
(0.841042 0.807914 0)
(0.885706 0.859423 0)
(0.950754 0.919171 0)
(1.05365 0.978345 0)
(1.1875 1.01975 0)
(1.35032 1.04136 0)
(3 -8.28389e-17 0)
(3 -2.37483e-16 0)
(3 1.3737e-16 0)
(3 6.1171e-16 0)
(3 5.17881e-16 0)
(3 2.91171e-16 0)
(3 -8.92041e-17 0)
(3 1.86894e-16 0)
(3 -2.90759e-16 0)
(3 -6.51343e-16 0)
(3 -1.12195e-15 0)
(3 -8.86739e-16 0)
(3 -2.98567e-16 0)
(3 5.07354e-17 0)
(3 4.8873e-16 0)
(3 8.56608e-16 0)
(3 8.70831e-16 0)
(3 8.33833e-16 0)
(3 5.37476e-16 0)
(3 -6.87791e-17 0)
(3 1.02281e-16 0)
(3 -1.73464e-16 0)
(3 -6.20196e-16 0)
(3 -5.01869e-16 0)
(3 1.61853e-16 0)
(3 -4.45186e-12 0)
(3.00002 -7.34696e-06 0)
(2.43842 0.443639 0)
(1.0093 0.607182 0)
(0.910145 0.553588 0)
(0.90311 0.566087 0)
(0.887865 0.578987 0)
(0.873099 0.58958 0)
(0.861613 0.601581 0)
(0.85447 0.616752 0)
(0.849707 0.634137 0)
(0.845767 0.652404 0)
(0.842875 0.671688 0)
(0.839965 0.690703 0)
(0.840225 0.712605 0)
(0.845963 0.739181 0)
(0.86253 0.771897 0)
(0.890643 0.810665 0)
(0.935491 0.853065 0)
(0.99994 0.901845 0)
(1.09623 0.950112 0)
(1.21875 0.984547 0)
(1.35702 1.00214 0)
(3 2.6449e-17 0)
(3 1.68557e-16 0)
(3 7.16747e-16 0)
(3 1.12146e-15 0)
(3 7.41809e-16 0)
(3 1.17061e-16 0)
(3 -2.78829e-16 0)
(3 -8.94649e-16 0)
(3 -1.57123e-15 0)
(3 -1.4006e-15 0)
(3 -1.35907e-15 0)
(3 -1.11944e-15 0)
(3 -1.09774e-15 0)
(3 -1.06192e-15 0)
(3 1.03242e-17 0)
(3 2.53002e-16 0)
(3 8.52639e-18 0)
(3 1.79361e-16 0)
(3 2.18049e-16 0)
(3 2.15482e-16 0)
(3 5.30381e-16 0)
(3 2.5803e-16 0)
(3 3.35068e-16 0)
(3 2.70416e-16 0)
(3 8.05279e-16 0)
(3 -2.71967e-15 0)
(3 -1.85333e-06 0)
(3.08793 0.0791891 0)
(1.28628 0.58906 0)
(0.968113 0.570423 0)
(0.946147 0.59249 0)
(0.925475 0.601707 0)
(0.905589 0.608417 0)
(0.890356 0.617437 0)
(0.880644 0.630282 0)
(0.87625 0.646848 0)
(0.874597 0.66544 0)
(0.87632 0.685874 0)
(0.879042 0.706202 0)
(0.884591 0.727875 0)
(0.893674 0.751192 0)
(0.910714 0.779258 0)
(0.939068 0.811907 0)
(0.983151 0.847286 0)
(1.04438 0.885197 0)
(1.13017 0.923782 0)
(1.23987 0.952649 0)
(1.35917 0.967092 0)
(3 1.08507e-16 0)
(3 3.35299e-16 0)
(3 1.27648e-16 0)
(3 -8.49537e-17 0)
(3 -2.90751e-16 0)
(3 -4.439e-16 0)
(3 -3.41967e-16 0)
(3 -4.24383e-16 0)
(3 -3.05789e-16 0)
(3 -2.96068e-16 0)
(3 -2.7409e-16 0)
(3 -4.66698e-16 0)
(3 -7.60102e-16 0)
(3 -4.91852e-16 0)
(3 -7.37332e-16 0)
(3 -1.35251e-15 0)
(3 -6.34395e-16 0)
(3 7.93045e-17 0)
(3 5.73812e-16 0)
(3 1.05571e-15 0)
(3 1.11907e-15 0)
(3 1.30163e-15 0)
(3 1.36329e-15 0)
(3 7.32813e-16 0)
(3 2.16866e-16 0)
(3 -1.03988e-15 0)
(3 -1.78449e-07 0)
(3.01595 0.000406326 0)
(1.54361 0.568897 0)
(0.965836 0.636843 0)
(0.943835 0.62358 0)
(0.933424 0.628231 0)
(0.923546 0.634171 0)
(0.913536 0.639799 0)
(0.905039 0.648294 0)
(0.90134 0.661851 0)
(0.901244 0.678612 0)
(0.905551 0.698276 0)
(0.91265 0.719239 0)
(0.922923 0.741268 0)
(0.937319 0.764149 0)
(0.956372 0.788695 0)
(0.98583 0.816009 0)
(1.02918 0.844726 0)
(1.08551 0.872357 0)
(1.1605 0.901537 0)
(1.2552 0.924333 0)
(1.35815 0.933938 0)
(3 -1.21311e-16 0)
(3 2.85803e-17 0)
(3 -1.0082e-16 0)
(3 -3.19532e-16 0)
(3 -3.56103e-16 0)
(3 -8.19018e-17 0)
(3 -3.64246e-16 0)
(3 -6.97386e-16 0)
(3 -2.58923e-17 0)
(3 -3.52448e-16 0)
(3 -4.53126e-16 0)
(3 -3.87965e-16 0)
(3 -1.47186e-17 0)
(3 -3.95857e-16 0)
(3 -1.11251e-15 0)
(3 -1.40464e-15 0)
(3 -5.95982e-16 0)
(3 -3.66722e-17 0)
(3 5.79859e-16 0)
(3 1.1526e-15 0)
(3 1.17568e-15 0)
(3 1.37555e-15 0)
(3 1.63451e-15 0)
(3 1.72876e-15 0)
(3 -7.28469e-16 0)
(3 -1.92039e-15 0)
(3 -5.74625e-09 0)
(3.00015 -4.68768e-06 0)
(2.23962 0.53314 0)
(1.03282 0.672482 0)
(0.964925 0.62483 0)
(0.960462 0.632167 0)
(0.952421 0.644655 0)
(0.942948 0.65434 0)
(0.934607 0.662782 0)
(0.930173 0.674561 0)
(0.929903 0.689497 0)
(0.934327 0.70744 0)
(0.943509 0.727378 0)
(0.956239 0.748766 0)
(0.974645 0.771299 0)
(0.997211 0.794639 0)
(1.02876 0.818403 0)
(1.07145 0.842704 0)
(1.12322 0.864248 0)
(1.19122 0.887038 0)
(1.27205 0.903491 0)
(1.36281 0.909243 0)
(3 3.79878e-17 0)
(3 -2.5029e-17 0)
(3 -2.62264e-18 0)
(3 6.12813e-17 0)
(3 4.67455e-16 0)
(3 7.10459e-16 0)
(3 4.81628e-16 0)
(3 5.08373e-16 0)
(3 2.31794e-16 0)
(3 2.67572e-16 0)
(3 5.70509e-16 0)
(3 8.67274e-16 0)
(3 7.47438e-16 0)
(3 9.80975e-17 0)
(3 -3.34072e-16 0)
(3 -3.57357e-16 0)
(3 -3.99223e-16 0)
(3 -8.01206e-16 0)
(3 -4.00371e-16 0)
(3 5.39292e-17 0)
(3 3.99942e-16 0)
(3 4.35759e-16 0)
(3 1.27416e-16 0)
(3 -2.88722e-16 0)
(3 -5.01079e-16 0)
(3 -4.32525e-16 0)
(3 -1.48464e-11 0)
(3.00001 -6.84602e-06 0)
(3.06562 0.125107 0)
(1.29545 0.64548 0)
(1.02101 0.634279 0)
(1.006 0.652354 0)
(0.991046 0.663159 0)
(0.977618 0.671268 0)
(0.968119 0.679155 0)
(0.962084 0.689464 0)
(0.960542 0.702495 0)
(0.963593 0.718087 0)
(0.972916 0.736256 0)
(0.98669 0.75571 0)
(1.0066 0.776428 0)
(1.03222 0.798397 0)
(1.06614 0.820243 0)
(1.10832 0.841097 0)
(1.15709 0.858453 0)
(1.21954 0.874577 0)
(1.28923 0.884891 0)
(1.36992 0.887459 0)
(3 -5.54713e-19 0)
(3 -1.64555e-16 0)
(3 -2.91297e-16 0)
(3 -2.11938e-16 0)
(3 6.8952e-16 0)
(3 5.4386e-16 0)
(3 6.19764e-16 0)
(3 9.52724e-16 0)
(3 4.05307e-16 0)
(3 5.37816e-16 0)
(3 1.23234e-15 0)
(3 1.9566e-15 0)
(3 1.14632e-15 0)
(3 8.72582e-16 0)
(3 5.88251e-16 0)
(3 -2.26472e-16 0)
(3 -3.98784e-16 0)
(3 -8.15587e-16 0)
(3 -7.19392e-16 0)
(3 -8.21913e-16 0)
(3 -7.43769e-16 0)
(3 -2.54412e-16 0)
(3 -6.41732e-16 0)
(3 -9.26014e-16 0)
(3 2.1666e-17 0)
(3 9.5126e-17 0)
(3 -1.80127e-14 0)
(3 -1.46523e-06 0)
(3.02427 0.00123496 0)
(1.56234 0.617294 0)
(1.02102 0.696862 0)
(1.00669 0.68634 0)
(0.997253 0.686963 0)
(0.994377 0.692583 0)
(0.991906 0.699778 0)
(0.98992 0.707363 0)
(0.990138 0.717346 0)
(0.993451 0.729124 0)
(1.0023 0.743918 0)
(1.01587 0.761113 0)
(1.03589 0.77917 0)
(1.06253 0.798843 0)
(1.0973 0.819315 0)
(1.13884 0.838329 0)
(1.18682 0.854493 0)
(1.24502 0.867966 0)
(1.30816 0.875081 0)
(1.38038 0.876438 0)
(3 -1.09264e-16 0)
(3 -1.53503e-16 0)
(3 -1.66221e-16 0)
(3 6.77922e-17 0)
(3 -2.06218e-16 0)
(3 -1.03941e-15 0)
(3 -9.47597e-16 0)
(3 -3.89109e-16 0)
(3 5.43517e-17 0)
(3 -1.45985e-16 0)
(3 -5.91002e-16 0)
(3 -3.00282e-16 0)
(3 -2.2015e-17 0)
(3 4.14555e-16 0)
(3 6.2136e-16 0)
(3 7.38567e-16 0)
(3 -5.4135e-17 0)
(3 -4.24438e-16 0)
(3 -1.09177e-15 0)
(3 -1.01979e-15 0)
(3 -7.58834e-16 0)
(3 2.34602e-16 0)
(3 3.10743e-16 0)
(3 -1.84959e-16 0)
(3 -4.60962e-16 0)
(3 -9.74312e-16 0)
(3 -1.78146e-15 0)
(3 -1.22775e-07 0)
(3.0003 -4.89743e-06 0)
(2.32747 0.533901 0)
(1.09542 0.729696 0)
(1.02534 0.686696 0)
(1.01898 0.691625 0)
(1.0173 0.70015 0)
(1.01692 0.709784 0)
(1.01694 0.719326 0)
(1.01881 0.729912 0)
(1.02307 0.740407 0)
(1.03188 0.753657 0)
(1.0449 0.767895 0)
(1.06455 0.783379 0)
(1.09071 0.799864 0)
(1.1241 0.816993 0)
(1.16332 0.832641 0)
(1.20991 0.846986 0)
(1.26387 0.85841 0)
(1.3235 0.864103 0)
(1.38958 0.865354 0)
(3 8.03044e-17 0)
(3 -1.0403e-16 0)
(3 5.13858e-17 0)
(3 -2.70816e-16 0)
(3 -1.13178e-15 0)
(3 -1.80734e-15 0)
(3 -2.2237e-15 0)
(3 -1.47157e-15 0)
(3 -1.34768e-15 0)
(3 -1.17601e-15 0)
(3 -1.99361e-15 0)
(3 -2.43928e-15 0)
(3 -1.52758e-15 0)
(3 -4.59029e-17 0)
(3 8.81976e-17 0)
(3 5.09024e-16 0)
(3 6.07562e-16 0)
(3 2.12636e-17 0)
(3 -2.87085e-16 0)
(3 -3.21839e-16 0)
(3 -4.04918e-16 0)
(3 -1.35077e-16 0)