/*--------------------------------*- C++ -*----------------------------------*\
  =========                 |
  \\      /  F ield         | OpenFOAM: The Open Source CFD Toolbox
   \\    /   O peration     | Website:  https://openfoam.org
    \\  /    A nd           | Version:  7
     \\/     M anipulation  |
\*---------------------------------------------------------------------------*/
FoamFile
{
    version     2.0;
    format      ascii;
    class       volScalarField;
    location    "3.3";
    object      p;
}
// * * * * * * * * * * * * * * * * * * * * * * * * * * * * * * * * * * * * * //

dimensions      [1 -1 -2 0 0 0 0];

internalField   nonuniform List<scalar> 
16128
(
1
1
1
1
1
1
1
1
1
1
1
1
1
1
1
1
1
1
1
1
1
1
1
1
4.34874
10.1795
10.5188
10.6126
10.7292
10.8354
10.9368
11.0339
11.1281
11.2196
11.309
11.395
11.4738
11.546
11.6144
11.6785
11.7376
11.7919
11.8421
11.8875
11.9271
11.9587
11.9821
11.9984
1
1
1
1
1
1
1
1
1
1
1
1
1
1
1
1
1
1
1
1
1
1
1
1
4.27086
10.1274
10.5155
10.6109
10.7268
10.8323
10.9331
11.0296
11.1233
11.2141
11.3028
11.3882
11.4665
11.5382
11.6059
11.6692
11.7273
11.7805
11.8296
11.8741
11.913
11.9442
11.9674
11.9837
1
1
1
1
1
1
1
1
1
1
1
1
1
1
1
1
1
1
1
1
1
1
1
1
4.10164
10.0607
10.5057
10.6005
10.7161
10.8217
10.9226
11.019
11.1122
11.2026
11.2906
11.3756
11.4536
11.5251
11.5926
11.6553
11.7123
11.7641
11.8115
11.854
11.8912
11.9211
11.9435
11.9594
1
1
1
1
1
1
1
1
1
1
1
1
1
1
1
1
1
1
1
1
1
1
1
1
3.85562
9.95858
10.4951
10.5882
10.7028
10.8076
10.908
11.0034
11.0956
11.185
11.2717
11.3558
11.4329
11.5037
11.5703
11.632
11.6878
11.7381
11.7839
11.8247
11.8601
11.8886
11.9097
11.9251
1
1
1
1
1
1
1
1
1
1
1
1
1
1
1
1
1
1
1
1
1
1
1
1
3.54254
9.80939
10.4833
10.5727
10.6863
10.7902
10.89
10.9848
11.076
11.1646
11.2499
11.3331
11.4093
11.4791
11.5442
11.6043
11.6582
11.7063
11.7497
11.7875
11.8198
11.8457
11.8645
11.8788
1
1
1
1
1
1
1
1
1
1
1
1
1
1
1
1
1
1
1
1
1
1
1
1
3.17237
9.59952
10.4685
10.5512
10.6635
10.7652
10.8636
10.9572
11.047
11.1341
11.2176
11.2993
11.3742
11.4428
11.5063
11.5651
11.6178
11.6647
11.7064
11.7421
11.7715
11.7946
11.8102
11.8226
1
1
1
1
1
1
1
1
1
1
1
1
1
1
1
1
1
1
1
1
1
1
1
1
2.7556
9.31213
10.4561
10.5279
10.6383
10.7361
10.8321
10.9238
11.0112
11.096
11.177
11.2564
11.3295
11.3964
11.4578
11.5146
11.5655
11.6105
11.6503
11.6839
11.7109
11.7319
11.7451
11.7563
1
1
1
1
1
1
1
1
1
1
1
1
1
1
1
1
1
1
1
1
1
1
1
1
2.31824
8.93242
10.455
10.5047
10.6146
10.7075
10.8009
10.8902
10.9751
11.0569
11.1344
11.2097
11.2795
11.3431
11.4012
11.4552
11.5036
11.5465
11.5839
11.615
11.639
11.6569
11.667
11.6761
1
1
1
1
1
1
1
1
1
1
1
1
1
1
1
1
1
1
1
1
1
1
1
1
1.8717
8.43082
10.4568
10.4812
10.5885
10.6722
10.7619
10.8492
10.9327
11.0122
11.0867
11.1574
11.2233
11.2827
11.3362
11.3853
11.4291
11.4675
11.5006
11.5283
11.5496
11.5656
11.5743
11.583
1
1
1
1
1
1
1
1
1
1
1
1
1
1
1
1
1
1
1
1
1
1
1
1
1.45984
7.83852
10.4505
10.437
10.5422
10.6233
10.7137
10.7991
10.8806
10.9582
11.0308
11.0973
11.1592
11.2142
11.2626
11.306
11.3444
11.3776
11.406
11.4292
11.4455
11.4554
11.4591
11.4638
1
1
1
1
1
1
1
1
1
1
1
1
1
1
1
1
1
1
1
1
1
1
1
1
1.1084
7.10797
10.3988
10.4018
10.4903
10.5644
10.6491
10.7341
10.8166
10.8927
10.9629
11.0259
11.0838
11.1344
11.1775
11.2139
11.2452
11.27
11.2889
11.3029
11.312
11.3172
11.3193
11.3253
1
1
1
1
1
1
1
1
1
1
1
1
1
1
1
1
1
1
1
1
1
1
1
1
1.00306
6.20896
10.1955
10.2926
10.4016
10.4952
10.5848
10.6623
10.738
10.8117
10.882
10.9433
10.9971
11.0431
11.0805
11.1091
11.1317
11.1466
11.1561
11.1614
11.1615
11.1533
11.1403
11.1315
1
1
1
1
1
1
1
1
1
1
1
1
1
1
1
1
1
1
1
1
1
1
1
1
1.00001
5.22052
9.98205
10.2066
10.3192
10.4214
10.5092
10.5892
10.6613
10.7277
10.7879
10.8446
10.8937
10.9347
10.9656
10.987
11.0002
11.0022
10.996
10.9807
10.9559
10.9291
10.9027
10.9023
1
1
1
1
1
1
1
1
1
1
1
1
1
1
1
1
1
1
1
1
1
1
1
1
1
4.16289
9.63533
10.1422
10.2643
10.3679
10.4489
10.5158
10.573
10.626
10.68
10.7313
10.774
10.809
10.8334
10.847
10.8478
10.8336
10.8072
10.7722
10.7275
10.6808
10.6121
10.5344
1
1
1
1
1
1
1
1
1
1
1
1
1
1
1
1
1
1
1
1
1
1
1
1
1
3.11708
9.12922
10.0855
10.2064
10.3155
10.393
10.4517
10.499
10.5392
10.5762
10.613
10.6474
10.6715
10.6854
10.6881
10.6731
10.6418
10.5922
10.5239
10.4226
10.2825
10.1368
10.0293
1
1
1
1
1
1
1
1
1
1
1
1
1
1
1
1
1
1
1
1
1
1
1
1
1
2.03907
8.33058
10.1815
10.1985
10.2734
10.3283
10.3737
10.4149
10.4497
10.4772
10.5006
10.5192
10.5302
10.5311
10.5153
10.4824
10.427
10.3427
10.2241
10.0618
9.85886
9.64421
9.55039
1
1
1
1
1
1
1
1
1
1
1
1
1
1
1
1
1
1
1
1
1
1
1
1
1
1.16704
7.38042
10.2721
10.1622
10.1826
10.2372
10.2836
10.3231
10.3523
10.3715
10.3823
10.3876
10.3852
10.3664
10.332
10.2768
10.1926
10.0714
9.90581
9.66222
9.27493
8.41562
6.46939
1
1
1
1
1
1
1
1
1
1
1
1
1
1
1
1
1
1
1
1
1
1
1
1
1
1.00308
6.07995
9.90882
9.95288
10.0471
10.1195
10.1761
10.2187
10.2454
10.2604
10.2628
10.2551
10.2365
10.1998
10.145
10.0647
9.9495
9.78671
9.55482
9.20787
8.61126
7.67535
5.50832
1
1
1
1
1
1
1
1
1
1
1
1
1
1
1
1
1
1
1
1
1
1
1
1
1
0.999975
4.54506
9.51303
9.91394
10.0013
10.042
10.0807
10.1165
10.1364
10.1449
10.139
10.1187
10.0835
10.0284
9.95224
9.84704
9.70105
9.49869
9.20801
8.78507
8.12303
7.05794
5.14349
1
1
1
1
1
1
1
1
1
1
1
1
1
1
1
1
1
1
1
1
1
1
1
1
1
0.999994
3.02546
8.86559
9.85439
9.9291
9.97413
10
10.0204
10.0284
10.0265
10.011
9.97965
9.92993
9.85715
9.7606
9.6317
9.45771
9.22035
8.88764
8.40704
7.74585
6.62194
5.12185
1
1
1
1
1
1
1
1
1
1
1
1
1
1
1
1
1
1
1
1
1
1
1
1
1
0.999999
1.70112
7.99552
9.93746
9.86364
9.88705
9.91184
9.9236
9.92205
9.90879
9.88265
9.84042
9.77764
9.68914
9.57318
9.42145
9.22279
8.9571
8.6015
8.1034
7.4398
6.3948
5.21134
1
1
1
1
1
1
1
1
1
1
1
1
1
1
1
1
1
1
1
1
1
1
1
1
1
1
1.05752
6.56593
9.80049
9.73937
9.76241
9.80374
9.8168
9.81121
9.79017
9.75376
9.69998
9.62475
9.52287
9.39051
9.22018
9.00293
8.71917
8.34896
7.85562
7.20745
6.30085
5.33953
1
1
1
1
1
1
1
1
1
1
1
1
1
1
1
1
1
1
1
1
1
1
1
1
1
1
1.00015
4.69853
9.24795
9.6164
9.69236
9.72088
9.71848
9.70315
9.67313
9.62709
9.56267
9.47623
9.36343
9.21859
9.03402
8.80273
8.50918
8.1339
7.65544
7.0421
6.26901
5.47093
1
1
1
1
1
1
1
1
1
1
1
1
1
1
1
1
1
1
1
1
1
1
1
1
1
1
0.999998
2.75385
8.58429
9.63029
9.61909
9.6351
9.62999
9.60369
9.56239
9.50569
9.43063
9.3333
9.20936
9.05373
8.85893
8.61878
8.32269
7.95208
7.49522
6.92373
6.26181
5.57691
1
1
1
1
1
1
1
1
1
1
1
1
1
1
1
1
1
1
1
1
1
1
1
1
1
1
0.999999
1.27854
7.45451
9.72337
9.57152
9.52472
9.51921
9.49042
9.44484
9.38166
9.29894
9.19402
9.06232
8.89931
8.69887
8.45529
8.16189
7.79903
7.36443
6.83998
6.26547
5.65922
1
1
1
1
1
1
1
1
1
1
1
1
1
1
1
1
1
1
1
1
1
1
1
1
1
1
1
1.00764
5.64585
9.20761
9.35505
9.4195
9.41604
9.37886
9.32856
9.26011
9.17155
9.0604
8.92347
8.75562
8.55142
8.30608
8.01903
7.66629
7.25493
6.77602
6.27184
5.72685
1
1
1
1
1
1
1
1
1
1
1
1
1
1
1
1
1
1
1
1
1
1
1
1
1
1
1
0.999925
3.32585
8.63711
9.33833
9.34068
9.32988
9.29268
9.23401
9.15422
9.05588
8.93643
8.79269
8.62216
8.41762
8.17758
7.89218
7.5537
7.1656
6.73459
6.28167
5.7859
1
1
1
1
1
1
1
1
1
1
1
1
1
1
1
1
1
1
1
1
1
1
1
1
1
1
1
0.999981
1.45892
7.6405
9.47603
9.29213
9.22348
9.18521
9.12307
9.04025
8.93864
8.81567
8.66849
8.49691
8.29408
8.06196
7.77543
7.45515
7.09135
6.70335
6.28226
5.83516
1
1
1
1
1
1
1
1
1
1
1
1
1
1
1
1
1
1
1
1
1
1
1
1
1
1
1
0.999997
1.02016
5.76847
8.99168
9.07471
9.11374
9.08234
9.01599
8.93121
8.82754
8.70321
8.55531
8.38308
8.18619
7.95413
7.67912
7.37704
7.03725
6.68064
6.28647
5.88541
1
1
1
1
1
1
1
1
1
1
1
1
1
1
1
1
1
1
1
1
1
1
1
1
1
1
1
1
0.9999
3.18031
8.36609
9.06065
9.04837
9.00678
8.9366
8.84479
8.73285
8.60275
8.453
8.27655
8.0871
7.8536
7.59268
7.30626
6.99079
6.65769
6.29128
5.92581
1
1
1
1
1
1
1
1
1
1
1
1
1
1
1
1
1
1
1
1
1
1
1
1
1
1
1
1
0.999974
1.33757
7.15988
9.17829
9.01235
8.90936
8.83455
8.73956
8.62912
8.50307
8.35604
8.18516
7.9925
7.76877
7.52221
7.24947
6.95602
6.64233
6.3049
5.96317
1
1
1
1
1
1
1
1
1
1
1
1
1
1
1
1
1
1
1
1
1
1
1
1
1
1
1
1
0.999996
1.01
4.97741
8.66588
8.81209
8.80238
8.7382
8.64249
8.53441
8.41227
8.26807
8.10037
7.90706
7.69273
7.45756
7.19801
6.92216
6.62514
6.31256
5.98981
1
1
1
1
1
1
1
1
1
1
1
1
1
1
1
1
1
1
1
1
1
1
1
1
1
1
1
1
1
0.999945
2.2995
7.94738
8.83771
8.7481
8.65774
8.56338
8.46168
8.34098
8.19581
8.02844
7.83867
7.62962
7.4017
7.15492
6.89305
6.61204
6.31915
6.01491
1
1
1
1
1
1
1
1
1
1
1
1
1
1
1
1
1
1
1
1
1
1
1
1
1
1
1
1
1
0.999986
1.13092
6.15082
8.69416
8.62871
8.55254
8.47276
8.38183
8.26414
8.11973
7.95493
7.77109
7.57005
7.35124
7.11583
6.86467
6.59765
6.32025
6.03475
1
1
1
1
1
1
1
1
1
1
1
1
1
1
1
1
1
1
1
1
1
1
1
1
1
1
1
1
1
0.999998
1.00111
3.30176
8.0348
8.52655
8.48429
8.42586
8.33029
8.20493
8.05856
7.89618
7.71736
7.52211
7.30989
7.08105
6.8379
6.58434
6.32243
6.05484
1
1
1
1
1
1
1
1
1
1
1
1
1
1
1
1
1
1
1
1
1
1
1
1
1
1
1
1
1
1
0.999996
1.34931
6.66777
8.61035
8.4749
8.38728
8.27364
8.13896
7.99307
7.83486
7.66166
7.47292
7.26817
7.04778
6.81599
6.57556
6.32761
6.07465
1
1
1
1
1
1
1
1
1
1
1
1
1
1
1
1
1
1
1
1
1
1
1
1
1
1
1
1
1
1
0.999999
1.00978
4.03652
8.07938
8.32819
8.28761
8.19164
8.06978
7.93286
7.7802
7.61152
7.42831
7.23044
7.01871
6.79808
6.56917
6.33213
6.09153
1
1
1
1
1
1
1
1
1
1
1
1
1
1
1
1
1
1
1
1
1
1
1
1
1
1
1
1
1
1
1
0.999999
1.57487
6.88889
8.44878
8.28589
8.1556
8.02774
7.88929
7.73687
7.56862
7.3878
7.19609
6.99283
6.78254
6.56528
6.33801
6.10833
1
1
1
1
1
1
1
1
1
1
1
1
1
1
1
1
1
1
1
1
1
1
1
1
1
1
1
1
1
1
1
0.999999
1.0263
4.4333
8.0169
8.14371
8.06425
7.95849
7.83216
7.68621
7.52177
7.34594
7.16211
6.96795
6.76765
6.56163
6.34344
6.12307
1
1
1
1
1
1
1
1
1
1
1
1
1
1
1
1
1
1
1
1
1
1
1
1
1
1
1
1
1
1
1
1
1.00006
1.73213
6.89187
8.23534
8.06354
7.93304
7.80053
7.65159
7.48922
7.31917
7.1424
6.95498
6.76013
6.56101
6.35002
6.13658
1
1
1
1
1
1
1
1
1
1
1
1
1
1
1
1
1
1
1
1
1
1
1
1
1
1
1
1
1
1
1
1
1
1.04119
4.50937
7.86234
7.94621
7.86303
7.74653
7.60605
7.4521
7.28876
7.11751
6.93596
6.74586
6.55371
6.35187
6.1456
1
1
1
1
1
1
1
1
1
1
1
1
1
1
1
1
1
1
1
1
1
1
1
1
1
1
1
1
1
1
1
1
1
1.00018
1.77711
6.67958
7.99401
7.85248
7.72293
7.58003
7.4287
7.26905
7.10113
6.92458
6.73936
6.5525
6.35939
6.15956
1
1
1
1
1
1
1
1
1
1
1
1
1
1
1
1
1
1
1
1
1
1
1
1
1
1
1
1
1
1
1
1
1
1
1.04546
4.21211
7.64444
7.77822
7.67185
7.5405
7.39747
7.24382
7.08019
6.90901
6.7301
6.54801
6.36368
6.17313
1
1
1
1
1
1
1
1
1
1
1
1
1
1
1
1
1
1
1
1
1
1
1
1
1
1
1
1
1
1
1
1
1
1
1.00028
1.66692
6.30357
7.78884
7.66183
7.53042
7.38248
7.22595
7.06356
6.89759
6.72689
6.5518
6.37487
6.19322
1
1
1
1
1
1
1
1
1
1
1
1
1
1
1
1
1
1
1
1
1
1
1
1
1
1
1
1
1
1
1
1
1
1
1
1.0338
3.57301
7.34058
7.62513
7.48835
7.34322
7.19504
7.04365
6.88773
6.72656
6.55965
6.38736
6.21042
1
1
1
1
1
1
1
1
1
1
1
1
1
1
1
1
1
1
1
1
1
1
1
1
1
1
1
1
1
1
1
1
1
1
1
1.00023
1.44245
5.76984
7.65867
7.4723
7.33226
7.19184
7.04648
6.89334
6.73427
6.57104
6.40246
6.22904
1
1
1
1
1
1
1
1
1
1
1
1
1
1
1
1
1
1
1
1
1
1
1
1
1
1
1
1
1
1
1
1
1
1
1
1
1.01568
2.79878
6.88699
7.42309
7.30166
7.17602
7.03404
6.88537
6.73056
6.57156
6.41009
6.24391
1
1
1
1
1
1
1
1
1
1
1
1
1
1
1
1
1
1
1
1
1
1
1
1
1
1
1
1
1
1
1
1
1
1
1
1
1.0001
1.22226
4.915
7.4217
7.32294
7.19305
7.04261
6.89481
6.74236
6.5845
6.42503
6.26338
1
1
1
1
1
1
1
1
1
1
1
1
1
1
1
1
1
1
1
1
1
1
1
1
1
1
1
1
1
1
1
1
1
1
1
1
1
1.00458
2.09182
6.31327
7.30107
7.15114
7.02099
6.87888
6.73206
6.5808
6.42544
6.26863
1
1
1
1
1
1
1
1
1
1
1
1
1
1
1
1
1
1
1
1
1
1
1
1
1
1
1
1
1
1
1
1
1
1
1
1
1
1.00002
1.08555
3.73236
6.9546
7.15797
7.03283
6.89461
6.74932
6.60021
6.44797
6.2934
1
1
1
1
1
1
1
1
1
1
1
1
1
1
1
1
1
1
1
1
1
1
1
1
1
1
1
1
1
1
1
1
1
1
1
1
1
1
1.00111
1.50638
5.36475
7.17708
7.0422
6.89963
6.75502
6.60891
6.46075
6.31086
1
1
1
1
1
1
1
1
1
1
1
1
1
1
1
1
1
1
1
1
1
1
1
1
1
1
1
1
1
1
1
1
1
1
1
1
1
1
1
1.02083
2.52171
6.36067
7.01872
6.88826
6.75265
6.61453
6.47176
6.32499
1
1
1
1
1
1
1
1
1
1
1
1
1
1
1
1
1
1
1
1
1
1
1
1
1
1
1
1
1
1
1
1
1
1
1
1
1
1
1
1.00018
1.16168
4.06003
6.78339
6.9113
6.78427
6.64335
6.49988
6.35288
1
1
1
1
1
1
1
1
1
1
1
1
1
1
1
1
1
1
1
1
1
1
1
1
1
1
1
1
1
1
1
1
1
1
1
1
1
1
1
1
1.00313
1.65432
5.33856
6.88513
6.79473
6.65229
6.51061
6.36749
1
1
1
1
1
1
1
1
1
1
1
1
1
1
1
1
1
1
1
1
1
1
1
1
1
1
1
1
1
1
1
1
1
1
1
1
1
1
1
1
1.00002
1.03378
2.58672
6.14194
6.77955
6.66361
6.52019
6.38181
1
1
1
1
1
1
1
1
1
1
1
1
1
1
1
1
1
1
1
1
1
1
1
1
1
1
1
1
1
1
1
1
1
1
1
1
1
1
1
1
1
1.00036
1.17763
3.86044
6.49202
6.68829
6.55609
6.4128
1
1
1
1
1
1
1
1
1
1
1
1
1
1
1
1
1
1
1
1
1
1
1
1
1
1
1
1
1
1
1
1
1
1
1
1
1
1
1
1
1
1
1.00387
1.58141
4.96879
6.60493
6.5803
6.44032
1
1
1
1
1
1
1
1
1
1
1
1
1
1
1
1
1
1
1
1
1
1
1
1
1
1
1
1
1
1
1
1
1
1
1
1
1
1
1
1
1
1
1.00002
1.02804
2.30711
5.70429
6.55009
6.46152
1
1
1
1
1
1
1
1
1
1
1
1
1
1
1
1
1
1
1
1
1
1
1
1
1
1
1
1
1
1
1
1
1
1
1
1
1
1
1
1
1
1
1
1.0003
1.12467
3.26745
6.13267
6.4822
1
1
1
1
1
1
1
1
1
1
1
1
1
1
1
1
1
1
1
1
1
1
1
1
1
1
1
1
1
1
1
1
1
1
1
1
1
1
1
1
1
1
1
1
1.00238
1.37031
4.27919
6.27009
1
1
1
1
1
1
1
1
1
1
1
1
1
1
1
1
1
1
1
1
1
1
1
1
1
1
1
1
1
1
1
1
1
1
1
1
1
1
1
1
1
1
1
1
1.00001
1.01348
1.83376
5.02587
1
1
1
1
1
1
1
1
1
1
1
1
1
1
1
1
1
1
1
1
1
1
1
1
1
1
1
1
1
1
1
1
1
1
1
1
1
1
1
1
1
1
1
1
1
1.00012
1.05524
2.48388
1
1
1
1
1
1
1
1
1
1
1
1
1
1
1
1
1
1
1
1
1
1
1
1
1
1
1
1
1
1
1
1
1
1
1
1
1
1
1
1
1
1
1
1
1
1
1.0008
1.16393
1
1
1
1
1
1
1
1
1
1
1
1
1
1
1
1
1
1
1
1
1
1
1
1
1
1
1
1
1
1
1
1
1
1
1
1
1
1
1
1
1
1
1
1
1
1
1
1.00381
1
1
1
1
1
1
1
1
1
1
1
1
1
1
1
1
1
1
1
1
1
1
1
1
1
1
1
1
1
1
1
1
1
1
1
1
1
1
1
1
1
1
1
1
1
1
1
1.00002
1
1
1
1
1
1
1
1
1
1
1
1
1
1
1
1
1
1
1
1
1
1
1
1
1
1
1
1
1
1
1
1
1
1
1
1
1
1
1
1
1
1
1
1
1
1
1
1
1
1
1
1
1
1
1
1
1
1
1
1
1
1
1
1
1
1
1
1
1
1
1
1
1
1
1
1
1
1
1
1
1
1
1
1
1
1
1
1
1
1
1
1
1
1
1
1
1
1
1
1
1
1
1
1
1
1
1
1
1
1
1
1
1
1
1
1
1
1
1
1
1
1
1
1
1
1
1
1
1
1
1
1
1
1
1
1
1
1
1
1
1
1
1
1
1
1
1
1
1
1
1
1
1
1
1
1
1
1
1
1
1
1
1
1
1
1
1
1
1
1
1
1
1
1
1
1
1
1
1
1
1
1
1
1
1
1
1
1
1
1
1
1
1
1
1
1
1
1
1
1
1
1
1
1
1
1
1
1
1
1
1
1
1
1
1
1
1
1
1
1
1
1
1
1
1
1
1
1
1
1
1
1
1
1
1
1
1
1
1
1
1
1
1
1
1
1
1
1
1
1
1
1
1
1
1
1
1
1
1
1
1
1
1
1
1
1
1
1
1
1
1
1
1
1
1
1
1
1
1
1
1
1
1
1
1
1
1
1
1
1
1
1
1
1
1
1
1
1
1
1
1
1
1
1
1
1
1
1
1
1
1
1
1
1
1
1
1
1
1
1
1
1
1
1
1
1
1
1
1
1
1
1
1
1
1
1
1
1
1
1
1
1
1
1
1
1
1
1
1
1
1
1
1
1
1
1
1
1
1
1
1
1
1
1
1
1
1
1
1
1
1
1
1
1
1
1
1
1
1
1
1
1
1
1
1
1
1
1
1
1
1
1
1
1
1
1
1
1
1
1
1
1
1
1
1
1
1
1
1
1
1
1
1
1
1
1
1
1
1
1
1
1
1
1
1
1
1
1
1
1
1
1
1
1
1
1
1
1
1
1
1
1
1
1
1
1
1
1
1
1
1
1
1
1
1
1
1
1
1
1
1
1
1
1
1
1
1
1
1
1
1
1
1
1
1
1
1
1
1
1
1
1
1
1
1
1
1
1
1
1
1
1
1
1
1
1
1
1
1
1
1
1
1
1
1
1
1
1
1
1
1
1
1
1
1
1
1
1
1
1
1
1
1
1
1
1
1
1
1
1
1
1
1
1
1
1
1
1
1
1
1
1
1
1
1
1
1
1
1
1
1
1
1
1
1
1
1
1
1
1
1
1
1
1
1
1
1
1
1
1
1
1
1
1
1
1
1
1
1
1
1
1
1
1
1
1
1
1
1
1
1
1
1
1
1
1
1
1
1
1
1
1
1
1
1
1
1
1
1
1
1
1
1
1
1
1
1
1
1
1
1
1
1
1
1
1
1
1
1
1
1
1
1
1
1
1
1
1
1
1
1
1
1
1
1
1
1
1
1
1
1
1
1
1
1
1
1
1
1
1
1
1
1
1
1
1
1
1
1
1
1
1
1
1
1
1
1
1
1
1
1
1
1
1
1
1
1
1
1
1
1
1
1
1
1
1
1
1
1
1
1
1
1
1
1
1
1
1
1
1
1
1
1
1
1
1
1
1
1
1
1.17296
0.251375
0.117158
0.0405873
0.0279184
0.0412867
0.0884764
0.154306
0.216518
0.292403
0.389483
0.480495
0.569008
0.635626
0.665152
0.693161
0.735671
0.793197
0.882683
0.974397
1.01931
1.01021
0.999383
1.00631
1.01985
1.04355
1.06894
1.08865
1.10707
1.12669
1.14821
1.17029
1.19377
1.21161
1.2184
1.22023
1.2246
1.23365
1.24569
1.26212
1.27336
1.27743
1.27927
1.28523
1.29689
1.31509
1.3275
1.32844
1.32531
1.31637
1.30695
1.3045
1.30562
1.31481
1.33602
1.352
1.35466
1.35532
1.35505
1.35056
1.34437
1.34338
1.34306
2.27156
5.43359
6.13553
6.21524
6.25874
6.27186
6.28544
6.30973
6.32857
6.31815
6.27494
6.20947
6.14291
6.09199
6.06032
6.03846
6.01338
5.97549
5.92613
5.87383
5.82696
5.78932
5.75858
5.73061
5.7049
5.67957
5.64681
5.58433
5.49253
5.39768
5.31634
5.25771
5.22466
5.20921
5.19312
5.16195
5.11774
5.06895
5.02129
4.97974
4.94814
4.93036
4.92489
4.89629
4.83586
4.77086
4.70014
4.62476
4.56296
4.50881
4.46325
4.43625
4.41426
4.36886
4.31807
4.26478
4.21872
4.18117
4.15311
4.1396
4.13687
4.1343
4.11505
4.07743
4.02524
3.94578
3.87762
3.83788
3.80907
3.79451
3.78698
3.77253
3.74739
3.71484
3.66942
3.60823
3.56314
3.53565
3.51285
3.49746
3.4903
3.48424
3.47066
3.44793
3.41912
3.38008
3.3303
3.28216
3.23876
3.20034
3.16973
3.14598
3.12665
3.1143
3.10305
3.08432
3.05983
3.02533
2.97346
2.91432
2.87186
2.84573
2.82728
2.81206
2.80377
2.80105
2.79232
2.77739
2.75502
2.71657
2.67759
2.65584
2.64084
2.62851
2.62128
2.61144
2.59535
2.57254
2.53456
2.48343
2.44273
2.41908
2.40426
2.39265
2.38482
2.38687
2.40187
2.41577
2.39625
2.12601
0.99231
0.628153
0.399509
0.25336
0.215542
0.218866
0.234734
0.239481
0.243066
0.256987
0.291075
0.328896
0.383925
0.46081
0.521434
0.580317
0.642639
0.705099
0.780116
0.871975
0.955465
0.985386
0.988781
1.00245
1.02553
1.04558
1.07181
1.10071
1.11791
1.13408
1.1507
1.16626
1.18379
1.20561
1.21797
1.22316
1.22839
1.23396
1.24417
1.25924
1.26907
1.27363
1.2789
1.28712
1.30037
1.31445
1.31938
1.31974
1.31848
1.31423
1.31311
1.31561
1.32172
1.33121
1.33907
1.3416
1.34188
1.34196
1.34177
1.34375
1.34653
1.34495
2.16341
5.35714
6.25711
6.33891
6.3364
6.30108
6.26862
6.25735
6.25927
6.26241
6.24879
6.20531
6.14081
6.07541
6.02494
5.9959
5.97998
5.96133
5.93167
5.88947
5.83418
5.76975
5.70436
5.64542
5.60127
5.57499
5.55503
5.53366
5.50933
5.4736
5.42288
5.36305
5.30053
5.23955
5.18108
5.12545
5.07173
5.01927
4.96936
4.92486
4.88933
4.86849
4.8669
4.85216
4.80252
4.74383
4.68042
4.61169
4.55276
4.50694
4.47189
4.45711
4.44815
4.41212
4.36399
4.30985
4.25294
4.20351
4.16527
4.13671
4.11614
4.09542
4.0689
4.03801
4.00209
3.9644
3.92262
3.87487
3.83501
3.80491
3.77719
3.7479
3.71956
3.69174
3.65796
3.62554
3.59212
3.55676
3.52806
3.50653
3.48818
3.46653
3.44269
3.42084
3.4001
3.37375
3.34235
3.30753
3.26795
3.22531
3.18392
3.14937
3.12308
3.09906
3.07357
3.04991
3.02732
3.00267
2.97187
2.93963
2.90614
2.87193
2.8437
2.82463
2.8106
2.79565
2.77963
2.76376
2.74536
2.71989
2.68973
2.66193
2.64092
2.6255
2.61081
2.59669
2.58241
2.56435
2.53842
2.50579
2.47148
2.43981
2.41709
2.4034
2.39569
2.396
2.39734
2.39017
2.36994
2.98815
1.82291
1.12845
0.789911
0.613455
0.527974
0.449012
0.381401
0.332099
0.304662
0.302608
0.310087
0.327454
0.364122
0.41112
0.457272
0.490377
0.525594
0.566551
0.620581
0.707335
0.823024
0.910582
0.951683
0.988329
1.03017
1.04768
1.06493
1.09476
1.12542
1.15206
1.17299
1.18187
1.18754
1.19972
1.21387
1.22018
1.22512
1.23155
1.24144
1.25427
1.26455
1.27305
1.28302
1.29195
1.29936
1.3063
1.30906
1.31057
1.31193
1.31449
1.31891
1.32685
1.33998
1.34889
1.34979
1.34783
1.34155
1.33102
1.32592
1.32799
1.33241
1.34416
1.83533
5.13172
6.52576
6.42796
6.34979
6.32409
6.29255
6.25598
6.23027
6.22238
6.22668
6.21909
6.1842
6.12846
6.06394
6.01186
5.97588
5.94912
5.92974
5.91482
5.89485
5.84864
5.77667
5.6935
5.6026
5.51539
5.44829
5.41065
5.41598
5.43817
5.45043
5.43872
5.39925
5.34008
5.26925
5.19603
5.12872
5.06651
5.0076
4.95188
4.90193
4.86302
4.84163
4.81648
4.76874
4.71726
4.66178
4.59735
4.52914
4.47914
4.44568
4.43159
4.42885
4.4109
4.37705
4.33742
4.29544
4.2527
4.21094
4.16601
4.11452
4.05992
4.01079
3.9727
3.94778
3.94091
3.93667
3.91648
3.88636
3.84543
3.78986
3.72886
3.67875
3.64234
3.61945
3.60954
3.60243
3.58692
3.56515
3.53482
3.49324
3.44843
3.41385
3.38584
3.35925
3.33855
3.32642
3.31154
3.28954
3.26227
3.22373
3.17455
3.12391
3.08105
3.04845
3.02042
2.99201
2.96467
2.94722
2.93714
2.92301
2.90563
2.8836
2.8547
2.81995
2.78846
2.76518
2.74391
2.72425
2.70934
2.69395
2.67566
2.65131
2.62354
2.59956
2.58005
2.56047
2.54003
2.52202
2.50657
2.4905
2.47016
2.44605
2.42481
2.41041
2.39924
2.38696
2.37118
2.34072
3.54005
2.49918
1.83061
1.31315
0.950987
0.836084
0.745633
0.636076
0.561972
0.51494
0.464542
0.42963
0.427066
0.435242
0.432198
0.436792
0.440231
0.444063
0.45141
0.468322
0.517821
0.615989
0.735634
0.832237
0.884463
0.928945
0.964186
0.994044
1.04126
1.09366
1.12798
1.16162
1.1755
1.17954
1.18787
1.20709
1.21857
1.2227
1.22965
1.23616
1.24532
1.25431
1.26445
1.27993
1.28856
1.28988
1.29152
1.29226
1.29429
1.29648
1.29921
1.30518
1.31543
1.32892
1.33944
1.34439
1.34718
1.34771
1.34135
1.32851
1.32308
1.32763
1.35541
1.64126
4.58268
6.90956
6.71036
6.41205
6.37088
6.32961
6.28584
6.22946
6.18018
6.16002
6.152
6.12825
6.09425
6.05066
5.99805
5.95127
5.9074
5.87314
5.85256
5.83988
5.8095
5.75703
5.69726
5.6337
5.55656
5.48193
5.43207
5.40949
5.4085
5.41217
5.39823
5.36213
5.31263
5.25698
5.19196
5.12622
5.0683
5.01294
4.95749
4.90475
4.85719
4.81954
4.78897
4.75438
4.71537
4.67683
4.63462
4.58242
4.52602
4.48059
4.44873
4.42311
4.39786
4.3687
4.33468
4.29883
4.25773
4.20902
4.15952
4.11088
4.06113
4.01427
3.97635
3.94852
3.93574
3.92859
3.91291
3.88689
3.85184
3.80216
3.74482
3.69061
3.64744
3.61931
3.6025
3.59263
3.58225
3.56478
3.54111
3.50655
3.46133
3.41403
3.37264
3.34333
3.3233
3.30826
3.2966
3.28327
3.26342
3.23594
3.19832
3.15132
3.09732
3.04044
2.99086
2.95826
2.9398
2.92872
2.92409
2.92184
2.91598
2.90216
2.88203
2.84967
2.80464
2.75865
2.72649
2.70879
2.69635
2.68628
2.67376
2.65746
2.63298
2.59845
2.56438
2.53842
2.52025
2.50833
2.50093
2.49799
2.49136
2.47942
2.46264
2.43682
2.40283
2.37205
2.34842
2.31489
3.98173
3.02979
2.38245
1.87824
1.43113
1.17945
1.03852
0.913069
0.821552
0.758808
0.676993
0.573205
0.54433
0.544732
0.538472
0.528175
0.518761
0.507042
0.497091
0.50116
0.498482
0.503701
0.529036
0.582647
0.648175
0.717769
0.80828
0.888451
0.957943
1.03473
1.07719
1.1076
1.12606
1.13142
1.14471
1.17282
1.19623
1.21282
1.22704
1.23639
1.24548
1.25759
1.27921
1.29694
1.29889
1.29599
1.28664
1.28103
1.28165
1.28523
1.29363
1.30885
1.32562
1.3319
1.33447
1.33641
1.33873
1.34076
1.34113
1.33449
1.3317
1.3617
1.54737
2.04966
3.53138
6.32739
6.94248
6.53616
6.36042
6.29302
6.26013
6.22791
6.19176
6.16086
6.141
6.11446
6.0811
6.03346
5.97797
5.94039
5.91009
5.88329
5.85078
5.80834
5.7582
5.70631
5.65832
5.61077
5.55839
5.50478
5.45501
5.41568
5.39123
5.3771
5.36112
5.33425
5.29604
5.2488
5.18859
5.12454
5.06791
5.01564
4.96423
4.91241
4.85646
4.80071
4.75709
4.72159
4.69053
4.66231
4.63376
4.60436
4.57105
4.52825
4.47713
4.43384
4.40218
4.37777
4.35087
4.31576
4.26392
4.18966
4.11561
4.06364
4.02878
4.00286
3.98503
3.97618
3.9627
3.93717
3.90545
3.86569
3.81723
3.76885
3.72934
3.69993
3.67435
3.64845
3.62162
3.59607
3.5721
3.5471
3.51827
3.48563
3.45069
3.41552
3.38232
3.35172
3.32455
3.30308
3.28541
3.26503
3.23998
3.21214
3.1819
3.14811
3.10913
3.06262
3.01066
2.96756
2.94353
2.93001
2.92206
2.9163
2.90652
2.89301
2.87555
2.85044
2.81489
2.7727
2.73516
2.7102
2.69422
2.68082
2.66733
2.65176
2.62955
2.59668
2.56052
2.53468
2.5197
2.50843
2.50033
2.49776
2.49804
2.49207
2.47942
2.46015
2.42379
2.3693
2.32358
2.28857
4.32379
3.50293
2.86618
2.32162
1.9044
1.63742
1.40462
1.16995
1.04723
0.994945
0.929421
0.842037
0.743721
0.67417
0.663846
0.664131
0.644913
0.611209
0.58191
0.559542
0.544826
0.538038
0.538312
0.54394
0.553867
0.570215
0.606248
0.667219
0.735407
0.82825
0.921497
0.988583
1.04402
1.07371
1.10181
1.13692
1.16723
1.19371
1.20991
1.21543
1.22386
1.23787
1.26097
1.28168
1.286
1.28627
1.27903
1.27794
1.28059
1.28686
1.30532
1.32371
1.32756
1.32466
1.31486
1.31329
1.31635
1.32441
1.33223
1.33873
1.37061
1.5847
2.19662
2.83235
3.08589
4.46728
6.25993
6.54928
6.44633
6.32224
6.24744
6.21998
6.20773
6.17511
6.13599
6.097
6.05472
6.01292
5.97408
5.94689
5.91828
5.87625
5.82474
5.76804
5.71443
5.67114
5.63638
5.60707
5.58336
5.55413
5.50903
5.45002
5.39821
5.35976
5.3258
5.29013
5.24715
5.19404
5.13588
5.08154
5.03705
5.00008
4.96463
4.92399
4.87312
4.80884
4.7456
4.70352
4.67241
4.64543
4.62613
4.61284
4.59356
4.56335
4.51967
4.46144
4.41415
4.38039
4.34429
4.29659
4.23301
4.15768
4.08989
4.04794
4.02323
4.01014
4.00938
4.00431
3.98326
3.94896
3.89167
3.8278
3.77813
3.74624
3.72399
3.70901
3.69631
3.67611
3.64583
3.60356
3.56066
3.52451
3.49258
3.46422
3.44091
3.42036
3.39891
3.37329
3.34106
3.30459
3.26854
3.23321
3.2018
3.17568
3.15223
3.12906
3.10574
3.08093
3.0508
3.01205
2.96915
2.93896
2.92264
2.90796
2.8913
2.87308
2.85341
2.83146
2.80748
2.78281
2.75588
2.72492
2.69547
2.67423
2.65722
2.6384
2.61458
2.58666
2.56098
2.54125
2.52581
2.51388
2.50468
2.49921
2.49678
2.48996
2.4783
2.46268
2.43281
2.37796
2.31949
2.27849
4.60722
3.89136
3.31077
2.75439
2.31452
2.02946
1.77616
1.54214
1.35895
1.19825
1.10356
1.05577
0.994279
0.891756
0.790392
0.769301
0.75459
0.729799
0.704105
0.665405
0.633268
0.628375
0.621943
0.609308
0.59166
0.587803
0.587536
0.590203
0.598132
0.622419
0.67964
0.755219
0.836796
0.922339
0.986378
1.04004
1.08779
1.13795
1.18271
1.19086
1.19872
1.21288
1.23555
1.26396
1.27631
1.27911
1.27743
1.27562
1.27741
1.28256
1.30272
1.32074
1.32309
1.31942
1.30331
1.29766
1.29958
1.30408
1.3199
1.36557
1.60312
2.28048
2.8685
3.16588
3.14696
3.32922
4.58672
6.1282
6.38005
6.38844
6.29465
6.22183
6.19544
6.14206
6.08482
6.05335
6.02927
6.00372
5.97628
5.94883
5.90986
5.86089
5.80869
5.75775
5.7122
5.67471
5.64742
5.63172
5.62404
5.60342
5.56138
5.50127
5.41343
5.32761
5.27592
5.23664
5.19792
5.15731
5.1183
5.08364
5.05502
5.02842
4.99468
4.95625
4.90971
4.84764
4.77203
4.70799
4.67119
4.64637
4.63261
4.62646
4.61118
4.58024
4.53842
4.47563
4.39849
4.33013
4.27605
4.22778
4.17887
4.13228
4.09835
4.07648
4.06635
4.06358
4.05175
4.02687
3.9895
3.9291
3.85417
3.79503
3.76274
3.74283
3.7325
3.73028
3.71766
3.69426
3.65599
3.59665
3.53947
3.5009
3.47675
3.45951
3.45026
3.44499
3.42986
3.40344
3.35385
3.28188
3.21994
3.18159
3.15659
3.1383
3.12519
3.1169
3.11102
3.10049
3.08467
3.06132
3.02042
2.96297
2.91541
2.88621
2.86445
2.84519
2.82863
2.81462
2.80176
2.78862
2.77293
2.74931
2.71288
2.6723
2.64164
2.6186
2.59798
2.58027
2.56618
2.5526
2.5372
2.52082
2.50735
2.49625
2.48644
2.47678
2.46548
2.44825
2.41787
2.37339
2.33229
2.29026
4.83353
4.20606
3.65645
3.12954
2.73079
2.39874
2.08022
1.83329
1.6821
1.51515
1.31149
1.21492
1.17744
1.10435
1.00445
0.920816
0.87302
0.846619
0.832061
0.808081
0.767429
0.721162
0.709435
0.700013
0.67782
0.645607
0.625609
0.619258
0.616308
0.618437
0.625887
0.642661
0.665368
0.699236
0.743267
0.806584
0.887758
0.96355
1.05697
1.13769
1.16539
1.18385
1.20081
1.22531
1.25532
1.26642
1.2685
1.26679
1.26666
1.2729
1.29408
1.31314
1.31657
1.3164
1.30679
1.28875
1.28682
1.29092
1.34835
1.59931
2.26784
2.96684
3.12892
3.19426
3.16569
3.15495
3.38029
4.61137
5.9235
6.29653
6.33184
6.24063
6.18962
6.11103
6.04145
6.0101
5.9907
5.97025
5.94005
5.90321
5.86081
5.81678
5.78368
5.7521
5.71208
5.66697
5.63381
5.60526
5.5838
5.56842
5.53657
5.48905
5.4143
5.31274
5.23958
5.19754
5.16262
5.14126
5.12244
5.09541
5.06514
5.03327
4.99465
4.95517
4.91412
4.86645
4.80778
4.73933
4.68243
4.64966
4.62393
4.59929
4.57267
4.53899
4.49721
4.44597
4.37976
4.30587
4.24283
4.1979
4.16975
4.15407
4.14998
4.1433
4.12333
4.09327
4.0519
4.00103
3.94631
3.89011
3.83832
3.80303
3.77943
3.76308
3.75241
3.73778
3.71079
3.67376
3.62827
3.58012
3.53813
3.50748
3.48668
3.47375
3.46546
3.45115
3.42622
3.38472
3.32366
3.24878
3.18767
3.15082
3.12886
3.11356
3.10626
3.11387
3.12547
3.12473
3.113
3.09362
3.05625
2.99316
2.92473
2.8738
2.84313
2.82439
2.81122
2.80223
2.79906
2.79202
2.77917
2.76077
2.72828
2.68012
2.63315
2.60465
2.58966
2.57839
2.56764
2.55648
2.5443
2.53001
2.51213
2.49304
2.47888
2.46853
2.45232
2.4271
2.39488
2.36388
2.34574
2.31554
5.02094
4.46917
3.94121
3.45291
3.06428
2.72755
2.39596
2.1203
1.93551
1.77118
1.5892
1.44294
1.3392
1.24928
1.18186
1.11639
1.03602
0.95952
0.938582
0.923271
0.891753
0.838294
0.792368
0.780989
0.76928
0.745108
0.707952
0.690609
0.685231
0.673559
0.657344
0.656551
0.663127
0.661694
0.658393
0.663689
0.688307
0.737372
0.816911
0.921312
1.02625
1.1307
1.15876
1.17862
1.20471
1.22541
1.23979
1.24468
1.24702
1.25351
1.26957
1.29365
1.30608
1.3077
1.30255
1.28796
1.28204
1.33425
1.67108
2.27008
2.94258
3.15741
3.16252
3.1597
3.14526
3.14003
3.1517
3.40672
4.52965
5.78963
6.2593
6.25753
6.19383
6.09559
6.02653
5.9941
5.97693
5.94668
5.90861
5.86811
5.82819
5.79281
5.77393
5.74946
5.71013
5.65084
5.58603
5.5454
5.51723
5.50967
5.49743
5.45831
5.4111
5.3337
5.24275
5.18675
5.15144
5.13351
5.11457
5.08196
5.04421
4.99552
4.95699
4.92447
4.89104
4.85721
4.82052
4.77216
4.70481
4.63273
4.58186
4.54554
4.51513
4.49128
4.46336
4.42598
4.38078
4.32436
4.26707
4.22818
4.20877
4.20405
4.19667
4.17315
4.13531
4.08058
4.01971
3.96126
3.9101
3.87247
3.84975
3.83255
3.81276
3.78547
3.74922
3.70372
3.66365
3.62743
3.59561
3.57266
3.55392
3.53743
3.51816
3.49373
3.46564
3.43011
3.3901
3.34262
3.28507
3.23312
3.19021
3.1565
3.13279
3.11826
3.11456
3.12942
3.1433
3.1331
3.11311
3.08414
3.04371
2.99718
2.9482
2.8965
2.85184
2.82623
2.81333
2.8076
2.80191
2.79003
2.77344
2.75087
2.7208
2.6851
2.64439
2.60799
2.5872
2.57463
2.56389
2.55392
2.54486
2.53402
2.52077
2.50288
2.4785
2.44665
2.41393
2.38747
2.36957
2.3581
2.35282
2.33301
5.17235
4.66356
4.16551
3.73315
3.34989
3.00251
2.66462
2.40968
2.19301
1.99091
1.80124
1.67708
1.55262
1.41639
1.3247
1.28186
1.21356
1.11067
1.05445
1.03644
1.01539
0.972802
0.904136
0.858886
0.84897
0.835028
0.810407
0.777185
0.759019
0.74838
0.732036
0.711118
0.690006
0.68174
0.677394
0.673176
0.67204
0.67397
0.684994
0.716801
0.775518
0.858284
0.945941
1.01768
1.07788
1.12367
1.16887
1.21272
1.24699
1.25647
1.26059
1.26585
1.27723
1.28542
1.28497
1.29294
1.34988
1.67979
2.38838
2.86151
3.13512
3.1923
3.18572
3.1404
3.12324
3.12688
3.13104
3.15273
3.39507
4.37654
5.6794
6.1523
6.15721
6.08956
6.04226
6.01477
5.98695
5.93988
5.8908
5.84735
5.81037
5.78241
5.77021
5.74543
5.70681
5.64086
5.55618
5.50007
5.46161
5.4354
5.43178
5.42537
5.39171
5.34269
5.27701
5.21456
5.17203
5.13633
5.09779
5.05795
5.01109
4.95768
4.91331
4.87851
4.84945
4.83117
4.80825
4.77331
4.72421
4.64701
4.56794
4.51902
4.48328
4.45219
4.42856
4.41339
4.39114
4.36456
4.33488
4.29781
4.25483
4.21665
4.18291
4.14681
4.105
4.04835
3.9819
3.92852
3.89451
3.87514
3.8652
3.85117
3.82699
3.78976
3.73161
3.67065
3.6286
3.60037
3.58243
3.57582
3.57673
3.56414
3.5406
3.50343
3.44878
3.39094
3.33469
3.28659
3.25157
3.22615
3.2066
3.18764
3.17193
3.16048
3.15045
3.13611
3.11323
3.08925
3.06587
3.04044
3.0148
2.99027
2.9661
2.9386
2.90273
2.85837
2.8177
2.78659
2.76604
2.75078
2.7363