/*--------------------------------*- C++ -*----------------------------------*\
  =========                 |
  \\      /  F ield         | OpenFOAM: The Open Source CFD Toolbox
   \\    /   O peration     | Website:  https://openfoam.org
    \\  /    A nd           | Version:  7
     \\/     M anipulation  |
\*---------------------------------------------------------------------------*/
FoamFile
{
    version     2.0;
    format      ascii;
    class       volScalarField;
    location    "3.3";
    object      T;
}
// * * * * * * * * * * * * * * * * * * * * * * * * * * * * * * * * * * * * * //

dimensions      [0 0 0 1 0 0 0];

internalField   nonuniform List<scalar> 
16128
(
1
1
1
1
1
1
1
1
1
1
1
1
1
1
1
1
1
1
1
1
1
1
1
1
1.98011
2.68995
2.7071
2.70906
2.71407
2.72006
2.72781
2.73769
2.74932
2.76098
2.77023
2.77535
2.77699
2.77756
2.77915
2.78326
2.78983
2.79694
2.80265
2.80642
2.80892
2.81079
2.81229
2.81339
1
1
1
1
1
1
1
1
1
1
1
1
1
1
1
1
1
1
1
1
1
1
1
1
1.96794
2.68588
2.70724
2.70905
2.71392
2.71985
2.72756
2.7374
2.74899
2.7606
2.76976
2.77481
2.77639
2.77695
2.77853
2.78264
2.78918
2.7962
2.80181
2.8055
2.80794
2.80979
2.81129
2.81239
1
1
1
1
1
1
1
1
1
1
1
1
1
1
1
1
1
1
1
1
1
1
1
1
1.93801
2.67876
2.7072
2.70852
2.71316
2.71901
2.72666
2.73645
2.748
2.75959
2.76873
2.77377
2.77534
2.77592
2.77756
2.78172
2.78826
2.79517
2.8006
2.80411
2.80643
2.8082
2.80965
2.81074
1
1
1
1
1
1
1
1
1
1
1
1
1
1
1
1
1
1
1
1
1
1
1
1
1.89196
2.66635
2.70702
2.70775
2.71202
2.71764
2.72506
2.73462
2.74603
2.75763
2.76689
2.7721
2.77376
2.77437
2.77599
2.78014
2.78662
2.79343
2.79872
2.80208
2.80428
2.80597
2.80735
2.80841
1
1
1
1
1
1
1
1
1
1
1
1
1
1
1
1
1
1
1
1
1
1
1
1
1.82979
2.64789
2.70638
2.7065
2.71039
2.71568
2.72271
2.73187
2.74306
2.75476
2.76439
2.77007
2.77201
2.77268
2.77421
2.77818
2.7845
2.79117
2.79631
2.7995
2.80151
2.80304
2.80427
2.80526
1
1
1
1
1
1
1
1
1
1
1
1
1
1
1
1
1
1
1
1
1
1
1
1
1.74984
2.62248
2.70443
2.7044
2.70811
2.71292
2.71934
2.72788
2.73865
2.75041
2.76057
2.767
2.76943
2.77022
2.77162
2.77532
2.78143
2.78806
2.79321
2.79633
2.79819
2.79955
2.80058
2.80144
1
1
1
1
1
1
1
1
1
1
1
1
1
1
1
1
1
1
1
1
1
1
1
1
1.65059
2.58994
2.70119
2.70148
2.70543
2.70975
2.71545
2.72313
2.73319
2.74479
2.75545
2.76279
2.76593
2.76694
2.76822
2.77154
2.77733
2.78389
2.7891
2.79225
2.79402
2.79528
2.79614
2.79692
1
1
1
1
1
1
1
1
1
1
1
1
1
1
1
1
1
1
1
1
1
1
1
1
1.53277
2.54875
2.69648
2.69715
2.70221
2.70645
2.71161
2.71835
2.72743
2.73851
2.74945
2.75763
2.76161
2.76295
2.76411
2.767
2.77238
2.77883
2.78415
2.78738
2.78906
2.79015
2.79081
2.79145
1
1
1
1
1
1
1
1
1
1
1
1
1
1
1
1
1
1
1
1
1
1
1
1
1.38723
2.48968
2.68871
2.69066
2.69779
2.70229
2.70729
2.71327
2.72126
2.7315
2.74241
2.75131
2.75629
2.75811
2.75918
2.76158
2.76638
2.77254
2.77787
2.78118
2.78285
2.78387
2.78446
2.78507
1
1
1
1
1
1
1
1
1
1
1
1
1
1
1
1
1
1
1
1
1
1
1
1
1.2226
2.41694
2.68192
2.68283
2.69136
2.69689
2.70247
2.70798
2.71484
2.72389
2.73434
2.74371
2.74974
2.75225
2.75337
2.75533
2.7595
2.76532
2.77064
2.77402
2.77554
2.77623
2.77652
2.77687
1
1
1
1
1
1
1
1
1
1
1
1
1
1
1
1
1
1
1
1
1
1
1
1
1.05602
2.33878
2.67947
2.68007
2.68669
2.69177
2.69715
2.70242
2.70843
2.71608
2.72549
2.73483
2.74174
2.74511
2.74643
2.74798
2.75145
2.75671
2.76166
2.76478
2.76606
2.76655
2.76683
2.76732
1
1
1
1
1
1
1
1
1
1
1
1
1
1
1
1
1
1
1
1
1
1
1
1
1.00137
2.24368
2.67406
2.67594
2.68191
2.68781
2.69328
2.69767
2.70239
2.70848
2.7165
2.72523
2.7325
2.73665
2.7383
2.73957
2.74235
2.74677
2.75129
2.75423
2.7552
2.75494
2.75429
2.75377
1
1
1
1
1
1
1
1
1
1
1
1
1
1
1
1
1
1
1
1
1
1
1
1
1
2.11499
2.66554
2.67508
2.68014
2.68551
2.69018
2.69432
2.69808
2.70237
2.70801
2.7152
2.72208
2.72665
2.72859
2.72979
2.73189
2.73505
2.73858
2.74045
2.74014
2.73894
2.7373
2.73727
1
1
1
1
1
1
1
1
1
1
1
1
1
1
1
1
1
1
1
1
1
1
1
1
1
1.94222
2.63161
2.66928
2.67726
2.6841
2.68865
2.6917
2.69396
2.69642
2.70019
2.70548
2.71113
2.71546
2.71752
2.71856
2.7197
2.72129
2.72324
2.72418
2.72322
2.7209
2.71566
2.70908
1
1
1
1
1
1
1
1
1
1
1
1
1
1
1
1
1
1
1
1
1
1
1
1
1
1.72632
2.56044
2.65057
2.66711
2.67853
2.68505
2.68868
2.69074
2.69219
2.69398
2.69693
2.70082
2.70397
2.70554
2.70594
2.70557
2.70549
2.70545
2.70444
2.70016
2.6912
2.6798
2.6704
1
1
1
1
1
1
1
1
1
1
1
1
1
1
1
1
1
1
1
1
1
1
1
1
1
1.42023
2.43797
2.63533
2.65209
2.66553
2.67449
2.68052
2.68441
2.68666
2.68808
2.68967
2.69156
2.69306
2.69344
2.69237
2.69038
2.68792
2.68485
2.6801
2.6714
2.65808
2.64632
2.64919
1
1
1
1
1
1
1
1
1
1
1
1
1
1
1
1
1
1
1
1
1
1
1
1
1
1.07151
2.32395
2.63295
2.63271
2.64114
2.65373
2.66458
2.67254
2.67739
2.68002
2.68148
2.68233
2.68237
2.68109
2.6784
2.67429
2.66895
2.66235
2.65354
2.63851
2.61094
2.54985
2.43061
1
1
1
1
1
1
1
1
1
1
1
1
1
1
1
1
1
1
1
1
1
1
1
1
1
1.00126
2.20692
2.61585
2.61428
2.62098
2.63205
2.64427
2.65512
2.66299
2.66822
2.67104
2.67192
2.67126
2.66884
2.66451
2.65808
2.64956
2.6387
2.62378
2.60002
2.55502
2.48317
2.29792
1
1
1
1
1
1
1
1
1
1
1
1
1
1
1
1
1
1
1
1
1
1
1
1
1
0.999994
2.0042
2.60005
2.61736
2.62051
2.62331
2.62916
2.63757
2.64555
2.65243
2.65713
2.65906
2.65841
2.65559
2.65015
2.64174
2.63014
2.61495
2.59396
2.56281
2.51088
2.41998
2.22477
1
1
1
1
1
1
1
1
1
1
1
1
1
1
1
1
1
1
1
1
1
1
1
1
1
0.999998
1.69506
2.52356
2.61221
2.6162
2.61812
2.62023
2.62417
2.62917
2.6349
2.64015
2.64324
2.6431
2.64065
2.63498
2.62539
2.61139
2.59234
2.56625
2.52841
2.47428
2.37117
2.20568
1
1
1
1
1
1
1
1
1
1
1
1
1
1
1
1
1
1
1
1
1
1
1
1
1
1
1.28878
2.38371
2.6071
2.60611
2.6092
2.61185
2.61389
2.61594
2.61876
2.62234
2.62523
2.62554
2.62358
2.61823
2.60832
2.593
2.57121
2.54171
2.50017
2.44297
2.34312
2.21266
1
1
1
1
1
1
1
1
1
1
1
1
1
1
1
1
1
1
1
1
1
1
1
1
1
1
1.02327
2.24368
2.59534
2.5931
2.59659
2.60161
2.60402
2.60468
2.60505
2.60586
2.60678
2.60648
2.60445
2.5994
2.58984
2.57448
2.55173
2.5203
2.47727
2.41861
2.32955
2.22438
1
1
1
1
1
1
1
1
1
1
1
1
1
1
1
1
1
1
1
1
1
1
1
1
1
1
1.00007
2.00938
2.55083
2.58025
2.58863
2.59313
2.59463
2.59444
2.5934
2.59183
2.59011
2.58793
2.5847
2.57927
2.57
2.55526
2.5331
2.50164
2.45903
2.40157
2.32389
2.23672
1
1
1
1
1
1
1
1
1
1
1
1
1
1
1
1
1
1
1
1
1
1
1
1
1
1
0.999999
1.61034
2.45562
2.56956
2.57661
2.58223
2.58481
2.58443
2.58279
2.57984
2.57591
2.57126
2.56578
2.55883
2.54906
2.53482
2.51405
2.48426
2.44394
2.38972
2.32229
2.24722
1
1
1
1
1
1
1
1
1
1
1
1
1
1
1
1
1
1
1
1
1
1
1
1
1
1
1
1.11184
2.30536
2.56559
2.56142
2.56525
2.57056
2.57191
2.5709
2.56794
2.56304
2.55661
2.54889
2.53983
2.52871
2.51425
2.49469
2.46701
2.42991
2.38076
2.32238
2.256
1
1
1
1
1
1
1
1
1
1
1
1
1
1
1
1
1
1
1
1
1
1
1
1
1
1
1
1.00308
2.1305
2.52764
2.53664
2.5478
2.55434
2.55713
2.55708
2.55509
2.55048
2.54339
2.53422
2.52319
2.51015
2.49448
2.47531
2.44926
2.41555
2.37207
2.32189
2.26317
1
1
1
1
1
1
1
1
1
1
1
1
1
1
1
1
1
1
1
1
1
1
1
1
1
1
1
0.999982
1.738
2.45693
2.52321
2.53234
2.53869
2.54242
2.54305
2.5415
2.53748
2.5306
2.52092
2.5088
2.49425
2.47743
2.4572
2.43204
2.40099
2.36327
2.31998
2.26833
1
1
1
1
1
1
1
1
1
1
1
1
1
1
1
1
1
1
1
1
1
1
1
1
1
1
1
0.999995
1.18334
2.31284
2.5257
2.51758
2.52012
2.5245
2.52614
2.52534
2.52245
2.51666
2.50762
2.49557
2.48047
2.46299
2.44108
2.4163
2.38698
2.35386
2.31513
2.27014
1
1
1
1
1
1
1
1
1
1
1
1
1
1
1
1
1
1
1
1
1
1
1
1
1
1
1
0.999999
1.00811
2.13698
2.49326
2.49492
2.50236
2.50605
2.50793
2.50773
2.50585
2.50136
2.49365
2.48257
2.46827
2.4503
2.42826
2.40372
2.37542
2.34479
2.30908
2.26989
1
1
1
1
1
1
1
1
1
1
1
1
1
1
1
1
1
1
1
1
1
1
1
1
1
1
1
1
0.999984
1.69511
2.41539
2.48464
2.48991
2.49189
2.49223
2.49144
2.4892
2.4851
2.47852
2.46849
2.45587
2.43824
2.41717
2.39316
2.36599
2.33656
2.30296
2.26799
1
1
1
1
1
1
1
1
1
1
1
1
1
1
1
1
1
1
1
1
1
1
1
1
1
1
1
1
0.999994
1.13256
2.26042
2.48833
2.47917
2.47669
2.47608
2.47425
2.47163
2.46791
2.46219
2.4537
2.44214
2.42643
2.40724
2.38448
2.35884
2.33047
2.29892
2.26597
1
1
1
1
1
1
1
1
1
1
1
1
1
1
1
1
1
1
1
1
1
1
1
1
1
1
1
1
0.999999
1.00397
2.01486
2.44646
2.45728
2.46173
2.46074
2.45822
2.45519
2.45136
2.44584
2.43808
2.4274
2.41366
2.39659
2.37577
2.35202
2.32504
2.29548
2.26388
1
1
1
1
1
1
1
1
1
1
1
1
1
1
1
1
1
1
1
1
1
1
1
1
1
1
1
1
1
0.999988
1.45584
2.32878
2.44961
2.44705
2.44566
2.44374
2.44111
2.43697
2.43094
2.42305
2.41292
2.40038
2.38501
2.36643
2.34484
2.31989
2.29241
2.26253
1
1
1
1
1
1
1
1
1
1
1
1
1
1
1
1
1
1
1
1
1
1
1
1
1
1
1
1
1
0.999996
1.05125
2.14817
2.43213
2.42837
2.42765
2.42738
2.42606
2.42228
2.41607
2.40804
2.39824
2.38656
2.37256
2.35591
2.3363
2.3136
2.28832
2.26073
1
1
1
1
1
1
1
1
1
1
1
1
1
1
1
1
1
1
1
1
1
1
1
1
1
1
1
1
1
0.999999
1.00045
1.69756
2.34722
2.40972
2.41119
2.41299
2.41165
2.40789
2.40192
2.39416
2.38467
2.37339
2.36008
2.34443
2.32637
2.30597
2.28319
2.25826
1
1
1
1
1
1
1
1
1
1
1
1
1
1
1
1
1
1
1
1
1
1
1
1
1
1
1
1
1
1
0.999999
1.13534
2.18435
2.40851
2.40024
2.39979
2.39713
2.3926
2.38687
2.37971
2.37081
2.36008
2.34741
2.33267
2.31606
2.29757
2.27704
2.25456
1
1
1
1
1
1
1
1
1
1
1
1
1
1
1
1
1
1
1
1
1
1
1
1
1
1
1
1
1
1
1
1.0038
1.83407
2.35132
2.37923
2.38096
2.37953
2.37642
2.37174
2.36528
2.35697
2.34684
2.33484
2.321
2.30562
2.2886
2.26973
2.24928
1
1
1
1
1
1
1
1
1
1
1
1
1
1
1
1
1
1
1
1
1
1
1
1
1
1
1
1
1
1
1
1
1.21706
2.19119
2.37998
2.37099
2.36658
2.36256
2.35761
2.35124
2.34312
2.33343
2.32222
2.30931
2.29506
2.27938
2.26184
2.24302
1
1
1
1
1
1
1
1
1
1
1
1
1
1
1
1
1
1
1
1
1
1
1
1
1
1
1
1
1
1
1
1
1.01018
1.89357
2.3344
2.35359
2.35001
2.34664
2.34232
2.33641
2.32865
2.31949
2.30915
2.29729
2.28418
2.26981
2.25344
2.23592
1
1
1
1
1
1
1
1
1
1
1
1
1
1
1
1
1
1
1
1
1
1
1
1
1
1
1
1
1
1
1
1
1.00002
1.2695
2.17795
2.34947
2.34014
2.3354
2.33025
2.32361
2.31581
2.30708
2.29737
2.28621
2.27376
2.26023
2.2448
2.22827
1
1
1
1
1
1
1
1
1
1
1
1
1
1
1
1
1
1
1
1
1
1
1
1
1
1
1
1
1
1
1
1
1
1.01592
1.8969
2.30458
2.32624
2.32182
2.31669
2.31026
2.30281
2.29443
2.28509
2.27445
2.26251
2.24978
2.23544
2.21986
1
1
1
1
1
1
1
1
1
1
1
1
1
1
1
1
1
1
1
1
1
1
1
1
1
1
1
1
1
1
1
1
1
1.00007
1.2829
2.14324
2.31652
2.31003
2.30531
2.29901
2.29163
2.28329
2.27399
2.26363
2.25207
2.23986
2.22649
2.21174
1
1
1
1
1
1
1
1
1
1
1
1
1
1
1
1
1
1
1
1
1
1
1
1
1
1
1
1
1
1
1
1
1
1
1.01754
1.83612
2.26448
2.29908
2.29277
2.28643
2.27965
2.27183
2.26283
2.25279
2.24167
2.22982
2.21727
2.20353
1
1
1
1
1
1
1
1
1
1
1
1
1
1
1
1
1
1
1
1
1
1
1
1
1
1
1
1
1
1
1
1
1
1
1.0001
1.24471
2.09052
2.28474
2.27958
2.27523
2.26882
2.26102
2.2522
2.24261
2.23218
2.22091
2.20901
2.19615
1
1
1
1
1
1
1
1
1
1
1
1
1
1
1
1
1
1
1
1
1
1
1
1
1
1
1
1
1
1
1
1
1
1
1
1.01295
1.70828
2.20906
2.26826
2.26075
2.2547
2.24824
2.24088
2.2325
2.22309
2.21263
2.20116
2.18875
1
1
1
1
1
1
1
1
1
1
1
1
1
1
1
1
1
1
1
1
1
1
1
1
1
1
1
1
1
1
1
1
1
1
1
1.00008
1.16571
2.02094
2.25533
2.24506
2.24127
2.23676
2.23087
2.22339
2.21456
2.20468
2.19371
2.1817
1
1
1
1
1
1
1
1
1
1
1
1
1
1
1
1
1
1
1
1
1
1
1
1
1
1
1
1
1
1
1
1
1
1
1
1
1.0059
1.54018
2.13792
2.22918
2.22413
2.22146
2.21722
2.21141
2.20396
2.19515
2.18528
2.17425
1
1
1
1
1
1
1
1
1
1
1
1
1
1
1
1
1
1
1
1
1
1
1
1
1
1
1
1
1
1
1
1
1
1
1
1
1.00003
1.08473
1.90873
2.21684
2.21341
2.20901
2.20393
2.199
2.19292
2.18532
2.17652
2.16659
1
1
1
1
1
1
1
1
1
1
1
1
1
1
1
1
1
1
1
1
1
1
1
1
1
1
1
1
1
1
1
1
1
1
1
1
1
1.00166
1.36443
2.06777
2.2006
2.19197
2.1881
2.18359
2.17847
2.17232
2.16489
2.15638
1
1
1
1
1
1
1
1
1
1
1
1
1
1
1
1
1
1
1
1
1
1
1
1
1
1
1
1
1
1
1
1
1
1
1
1
1
1.00001
1.03259
1.72137
2.14241
2.18711
2.17931
2.173
2.16708
2.161
2.15433
2.14678
1
1
1
1
1
1
1
1
1
1
1
1
1
1
1
1
1
1
1
1
1
1
1
1
1
1
1
1
1
1
1
1
1
1
1
1
1
1
1.00037
1.18621
1.94788
2.1754
2.16848
2.16182
2.15537
2.14903
2.14253
2.13561
1
1
1
1
1
1
1
1
1
1
1
1
1
1
1
1
1
1
1
1
1
1
1
1
1
1
1
1
1
1
1
1
1
1
1
1
1
1
1
1.00773
1.46662
2.05714
2.15656
2.14875
2.14275
2.13698
2.13076
2.12402
1
1
1
1
1
1
1
1
1
1
1
1
1
1
1
1
1
1
1
1
1
1
1
1
1
1
1
1
1
1
1
1
1
1
1
1
1
1
1
1.00005
1.06126
1.76444
2.11095
2.14633
2.13757
2.12958
2.12218
2.11473
1
1
1
1
1
1
1
1
1
1
1
1
1
1
1
1
1
1
1
1
1
1
1
1
1
1
1
1
1
1
1
1
1
1
1
1
1
1
1
1
1.00108
1.23307
1.92676
2.13071
2.1275
2.12035
2.11304
2.10546
1
1
1
1
1
1
1
1
1
1
1
1
1
1
1
1
1
1
1
1
1
1
1
1
1
1
1
1
1
1
1
1
1
1
1
1
1
1
1
1
1
1.01256
1.47476
2.01858
2.11569
2.10947
2.10249
2.09589
1
1
1
1
1
1
1
1
1
1
1
1
1
1
1
1
1
1
1
1
1
1
1
1
1
1
1
1
1
1
1
1
1
1
1
1
1
1
1
1
1
1.00011
1.06682
1.71828
2.06317
2.10509
2.09634
2.08844
1
1
1
1
1
1
1
1
1
1
1
1
1
1
1
1
1
1
1
1
1
1
1
1
1
1
1
1
1
1
1
1
1
1
1
1
1
1
1
1
1
1
1.00133
1.20742
1.86827
2.0829
2.08803
2.0809
1
1
1
1
1
1
1
1
1
1
1
1
1
1
1
1
1
1
1
1
1
1
1
1
1
1
1
1
1
1
1
1
1
1
1
1
1
1
1
1
1
1
1.00001
1.01026
1.40498
1.95353
2.07407
2.07056
1
1
1
1
1
1
1
1
1
1
1
1
1
1
1
1
1
1
1
1
1
1
1
1
1
1
1
1
1
1
1
1
1
1
1
1
1
1
1
1
1
1
1
1.00009
1.04663
1.60464
2.00486
2.06378
1
1
1
1
1
1
1
1
1
1
1
1
1
1
1
1
1
1
1
1
1
1
1
1
1
1
1
1
1
1
1
1
1
1
1
1
1
1
1
1
1
1
1
1
1.00079
1.13554
1.76775
2.02191
1
1
1
1
1
1
1
1
1
1
1
1
1
1
1
1
1
1
1
1
1
1
1
1
1
1
1
1
1
1
1
1
1
1
1
1
1
1
1
1
1
1
1
1
1
1.00477
1.28038
1.85757
1
1
1
1
1
1
1
1
1
1
1
1
1
1
1
1
1
1
1
1
1
1
1
1
1
1
1
1
1
1
1
1
1
1
1
1
1
1
1
1
1
1
1
1
1
1.00004
1.02033
1.43978
1
1
1
1
1
1
1
1
1
1
1
1
1
1
1
1
1
1
1
1
1
1
1
1
1
1
1
1
1
1
1
1
1
1
1
1
1
1
1
1
1
1
1
1
1
1
1.00025
1.06092
1
1
1
1
1
1
1
1
1
1
1
1
1
1
1
1
1
1
1
1
1
1
1
1
1
1
1
1
1
1
1
1
1
1
1
1
1
1
1
1
1
1
1
1
1
1
1
1.00128
1
1
1
1
1
1
1
1
1
1
1
1
1
1
1
1
1
1
1
1
1
1
1
1
1
1
1
1
1
1
1
1
1
1
1
1
1
1
1
1
1
1
1
1
1
1
1
1.00001
1
1
1
1
1
1
1
1
1
1
1
1
1
1
1
1
1
1
1
1
1
1
1
1
1
1
1
1
1
1
1
1
1
1
1
1
1
1
1
1
1
1
1
1
1
1
1
1
1
1
1
1
1
1
1
1
1
1
1
1
1
1
1
1
1
1
1
1
1
1
1
1
1
1
1
1
1
1
1
1
1
1
1
1
1
1
1
1
1
1
1
1
1
1
1
1
1
1
1
1
1
1
1
1
1
1
1
1
1
1
1
1
1
1
1
1
1
1
1
1
1
1
1
1
1
1
1
1
1
1
1
1
1
1
1
1
1
1
1
1
1
1
1
1
1
1
1
1
1
1
1
1
1
1
1
1
1
1
1
1
1
1
1
1
1
1
1
1
1
1
1
1
1
1
1
1
1
1
1
1
1
1
1
1
1
1
1
1
1
1
1
1
1
1
1
1
1
1
1
1
1
1
1
1
1
1
1
1
1
1
1
1
1
1
1
1
1
1
1
1
1
1
1
1
1
1
1
1
1
1
1
1
1
1
1
1
1
1
1
1
1
1
1
1
1
1
1
1
1
1
1
1
1
1
1
1
1
1
1
1
1
1
1
1
1
1
1
1
1
1
1
1
1
1
1
1
1
1
1
1
1
1
1
1
1
1
1
1
1
1
1
1
1
1
1
1
1
1
1
1
1
1
1
1
1
1
1
1
1
1
1
1
1
1
1
1
1
1
1
1
1
1
1
1
1
1
1
1
1
1
1
1
1
1
1
1
1
1
1
1
1
1
1
1
1
1
1
1
1
1
1
1
1
1
1
1
1
1
1
1
1
1
1
1
1
1
1
1
1
1
1
1
1
1
1
1
1
1
1
1
1
1
1
1
1
1
1
1
1
1
1
1
1
1
1
1
1
1
1
1
1
1
1
1
1
1
1
1
1
1
1
1
1
1
1
1
1
1
1
1
1
1
1
1
1
1
1
1
1
1
1
1
1
1
1
1
1
1
1
1
1
1
1
1
1
1
1
1
1
1
1
1
1
1
1
1
1
1
1
1
1
1
1
1
1
1
1
1
1
1
1
1
1
1
1
1
1
1
1
1
1
1
1
1
1
1
1
1
1
1
1
1
1
1
1
1
1
1
1
1
1
1
1
1
1
1
1
1
1
1
1
1
1
1
1
1
1
1
1
1
1
1
1
1
1
1
1
1
1
1
1
1
1
1
1
1
1
1
1
1
1
1
1
1
1
1
1
1
1
1
1
1
1
1
1
1
1
1
1
1
1
1
1
1
1
1
1
1
1
1
1
1
1
1
1
1
1
1
1
1
1
1
1
1
1
1
1
1
1
1
1
1
1
1
1
1
1
1
1
1
1
1
1
1
1
1
1
1
1
1
1
1
1
1
1
1
1
1
1
1
1
1
1
1
1
1
1
1
1
1
1
1
1
1
1
1
1
1
1
1
1
1
1
1
1
1
1
1
1
1
1
1
1
1
1
1
1
1
1
1
1
1
1
1
1
1
1
1
1
1
1
1
1
1
1
1
1
1
1
1
1
1
1
1
1
1
1
1
1
1
1
1
1
1
1
1
1
1
1
1
1
1
1
1
1
1
1
1
1
1
1
1
1
1
1
1
1
1
1
1
1.55063
0.977846
0.91394
0.857187
0.807099
0.87273
1.03597
1.12253
1.17558
1.24895
1.36835
1.4531
1.49266
1.49466
1.48568
1.48631
1.50273
1.54155
1.61052
1.65143
1.65117
1.62708
1.60151
1.59983
1.60483
1.61961
1.63215
1.6376
1.63902
1.63661
1.63615
1.64645
1.66859
1.68321
1.68395
1.67949
1.67483
1.67481
1.67876
1.68622
1.68794
1.6852
1.67869
1.67544
1.67627
1.68236
1.6873
1.6869
1.68289
1.67415
1.66498
1.65986
1.65751
1.65823
1.66376
1.66837
1.66849
1.66842
1.66893
1.66925
1.66934
1.67074
1.67113
2.06229
2.75132
2.84474
2.84057
2.83668
2.82958
2.82055
2.8129
2.80818
2.80411
2.79904
2.79273
2.78515
2.77752
2.77009
2.76162
2.75062
2.73653
2.72096
2.70579
2.69234
2.68123
2.67234
2.66495
2.65832
2.6519
2.64441
2.63283
2.61707
2.60071
2.58602
2.57419
2.5656
2.55927
2.55278
2.54436
2.53402
2.52246
2.51062
2.49951
2.48995
2.48277
2.47819
2.47104
2.46139
2.45194
2.44165
2.43045
2.42078
2.41156
2.40288
2.3965
2.39068
2.38121
2.37112
2.36088
2.35202
2.34473
2.3391
2.3357
2.33405
2.33205
2.32651
2.31783
2.30661
2.29095
2.27742
2.26867
2.26178
2.25756
2.25513
2.25215
2.24779
2.24253
2.23527
2.22542
2.21848
2.21427
2.21044
2.20756
2.2059
2.20426
2.20082
2.19541
2.1888
2.18008
2.16912
2.15814
2.14756
2.13759
2.12911
2.12223
2.11667
2.11294
2.10965
2.10517
2.09995
2.09308
2.08296
2.07149
2.06304
2.05761
2.05372
2.05052
2.04878
2.04821
2.04633
2.04307
2.03832
2.03022
2.02197
2.01719
2.01367
2.01061
2.00849
2.00554
2.0012
1.99556
1.98679
1.97538
1.96605
1.96049
1.9571
1.95459
1.95297
1.95358
1.95704
1.9595
1.95396
1.80153
1.4662
1.31803
1.22634
1.14696
1.0791
1.05965
1.05024
1.04501
1.0545
1.08635
1.14076
1.16921
1.20036
1.24705
1.28578
1.32458
1.36995
1.41601
1.4592
1.50311
1.53815
1.54925
1.54872
1.55351
1.56402
1.57362
1.58565
1.59474
1.59482
1.59676
1.60556
1.61991
1.63421
1.6438
1.6443
1.64287
1.64291
1.64501
1.65002
1.65433
1.6543
1.65194
1.65078
1.65159
1.65568
1.6602
1.66061
1.65887
1.65515
1.65019
1.64749
1.64639
1.6464
1.64805
1.64931
1.64903
1.64897
1.64964
1.65139
1.65464
1.65788
1.6571
2.01245
2.71842
2.83759
2.83486
2.82839
2.81537
2.79949
2.78545
2.77593
2.7715
2.76865
2.76433
2.7577
2.74954
2.74101
2.73268
2.72415
2.71378
2.70134
2.68761
2.67301
2.6583
2.64457
2.63263
2.6234
2.61713
2.61221
2.60747
2.60216
2.59457
2.58429
2.57239
2.56006
2.54794
2.53614
2.52472
2.51337
2.50182
2.49023
2.47914
2.46922
2.46163
2.45778
2.45268
2.44417
2.43562
2.42669
2.417
2.40846
2.40135
2.39509
2.39114
2.38767
2.37957
2.36968
2.35905
2.34836
2.33926
2.33219
2.32668
2.32219
2.31733
2.31143
2.30456
2.29654
2.28803
2.27852
2.26821
2.25963
2.25302
2.24711
2.24143
2.23669
2.23261
2.2278
2.22317
2.21811
2.21252
2.20787
2.2041
2.20041
2.19582
2.19079
2.18605
2.18123
2.17506
2.16758
2.15893
2.14903
2.13844
2.12813
2.11913
2.11194
2.10577
2.09996
2.09488
2.09022
2.08527
2.07924
2.07295
2.06628
2.05945
2.05391
2.05011
2.04716
2.04408
2.04086
2.03771
2.03396
2.02866
2.02221
2.01613
2.01134
2.0075
2.00373
2.00009
1.99635
1.99169
1.98536
1.97769
1.96978
1.96272
1.95781
1.95489
1.95324
1.95336
1.95362
1.95161
1.94562
1.93059
1.70248
1.49837
1.37393
1.30143
1.25726
1.195
1.13001
1.07834
1.04941
1.03749
1.04137
1.05472
1.08607
1.12673
1.15748
1.17809
1.20263
1.22965
1.26239
1.31386
1.38157
1.4326
1.45451
1.46968
1.48437
1.49275
1.50451
1.52154
1.53295
1.54123
1.54848
1.55411
1.55929
1.56583
1.57171
1.57506
1.57777
1.58081
1.58441
1.58778
1.59037
1.59357
1.59853
1.60272
1.60476
1.60501
1.60448
1.60435
1.60478
1.60634
1.60907
1.61201
1.6148
1.61581
1.6149
1.6129
1.61038
1.60832
1.60827
1.61099
1.61459
1.61815
1.823
2.58565
2.78286
2.77087
2.75943
2.74796
2.73328
2.71569
2.70028
2.69118
2.68839
2.68701
2.68423
2.67945
2.67236
2.66459
2.65659
2.64781
2.63878
2.62979
2.62016
2.60771
2.59338
2.57871
2.56442
2.55182
2.54254
2.53734
2.53773
2.53953
2.53949
2.53547
2.527
2.51593
2.50324
2.49021
2.47811
2.46676
2.45565
2.44464
2.43404
2.42483
2.41835
2.41182
2.40333
2.39566
2.38839
2.38049
2.37219
2.36616
2.36179
2.35929
2.35775
2.35296
2.34528
2.33676
2.32835
2.32048
2.31329
2.30591
2.29754
2.28863
2.2805
2.27349
2.26789
2.26478
2.26167
2.25582
2.24894
2.24073
2.23054
2.21988
2.21169
2.20625
2.20355
2.20312
2.20291
2.2012
2.19819
2.19326
2.18588
2.17753
2.17094
2.16549
2.16006
2.15543
2.15197
2.14752
2.14142
2.13412
2.12452
2.11291
2.10109
2.09094
2.0833
2.07729
2.07181
2.06674
2.06365
2.06182
2.05926
2.05623
2.05217
2.04657
2.03969
2.03336
2.02876
2.02478
2.0211
2.01823
2.01499
2.01099
2.00556
1.99914
1.99334
1.98858
1.98381
1.97887
1.97441
1.97034
1.96645
1.96199
1.9568
1.95224
1.94909
1.94646
1.9435
1.93975
1.93172
1.99327
1.81762
1.67717
1.54016
1.41237
1.37235
1.33381
1.27811
1.22915
1.18516
1.13745
1.11206
1.11215
1.1207
1.11964
1.12146
1.11909
1.11949
1.12337
1.13564
1.16945
1.23258
1.30103
1.34965
1.36999
1.38479
1.3995
1.41626
1.44132
1.46483
1.47687
1.4871
1.49141
1.49346
1.49758
1.50636
1.51338
1.51674
1.51979
1.52083
1.52224
1.52482
1.53067
1.54076
1.54609
1.54612
1.54516
1.54362
1.54386
1.54565
1.54956
1.55565
1.56103
1.5641
1.56528
1.56539
1.56555
1.566
1.56499
1.56251
1.56186
1.56442
1.57584
1.66938
2.34678
2.69528
2.67308
2.63988
2.62978
2.61932
2.6065
2.5913
2.57855
2.57245
2.57022
2.56824
2.56669
2.56419
2.55957
2.55376
2.54635
2.53832
2.53077
2.5239
2.5149
2.5045
2.4946
2.48551
2.47576
2.46675
2.46082
2.45844
2.45879
2.4598
2.45804
2.45235
2.44374
2.43376
2.42267
2.41202
2.40293
2.39448
2.38595
2.37741
2.36899
2.36147
2.35492
2.34834
2.34222
2.33746
2.33328
2.32834
2.32277
2.3182
2.31467
2.31103
2.30641
2.30049
2.29357
2.28657
2.27932
2.27157
2.2643
2.25773
2.25121
2.24459
2.23867
2.23354
2.23011
2.22742
2.22311
2.21719
2.21017
2.20138
2.19188
2.1831
2.17646
2.1728
2.1715
2.17154
2.17146
2.16981
2.1666
2.16122
2.1536
2.14515
2.13745
2.13188
2.12794
2.12481
2.12224
2.11908
2.11418
2.10736
2.0985
2.08794
2.07595
2.06341
2.05267
2.0459
2.04243
2.0407
2.04048
2.04082
2.04049
2.03825
2.03461
2.02865
2.01999
2.01091
2.00461
2.00135
1.99908
1.99726
1.99479
1.99134
1.98608
1.97845
1.97067
1.96468
1.96051
1.95769
1.95587
1.95513
1.95349
1.95069
1.947
1.94136
1.93382
1.92678
1.92136
1.9131
2.04995
1.90094
1.78414
1.67509
1.55581
1.48158
1.43458
1.38624
1.34544
1.31126
1.26468
1.20399
1.18592
1.18596
1.1819
1.17584
1.16797
1.15626
1.14674
1.14844
1.14664
1.15062
1.16794
1.20054
1.23586
1.26945
1.31249
1.34921
1.37841
1.40899
1.42472
1.43521
1.44181
1.44418
1.44956
1.46066
1.47124
1.47913
1.48461
1.48673
1.48837
1.49209
1.50224
1.51211
1.51358
1.51278
1.50869
1.50501
1.50494
1.50677
1.51237
1.52111
1.52819
1.52949
1.52948
1.52926
1.52932
1.52978
1.53011
1.52878
1.52955
1.54088
1.60322
1.748
2.06004
2.47319
2.57143
2.53174
2.51082
2.5019
2.49621
2.49043
2.48414
2.47914
2.47631
2.47393
2.47182
2.46862
2.46437
2.46115
2.45748
2.45286
2.44654
2.43871
2.43034
2.42243
2.4156
2.40932
2.40287
2.39654
2.39091
2.38692
2.38509
2.38454
2.3837
2.38099
2.37593
2.36873
2.35926
2.34941
2.34118
2.33425
2.3279
2.32144
2.31394
2.30582
2.29893
2.29307
2.28815
2.2844
2.28153
2.27933
2.277
2.27332
2.26792
2.26269
2.25812
2.25394
2.2492
2.24316
2.2349
2.22379
2.21323
2.20643
2.20234
2.19962
2.19797
2.19725
2.19513
2.19017
2.18395
2.17653
2.16785
2.15941
2.15267
2.14806
2.14464
2.14169
2.13896
2.13656
2.1344
2.13185
2.12828
2.12357
2.118
2.11214
2.10654
2.10135
2.09675
2.09316
2.09033
2.08694
2.08232
2.0767
2.07019
2.06266
2.05403
2.04401
2.03291
2.02361
2.01865
2.01633
2.01544
2.01515
2.01421
2.01245
2.00976
2.00537
1.99884
1.99092
1.98372
1.979
1.97617
1.97387
1.97148
1.9686
1.9642
1.95739
1.9498
1.94436
1.94118
1.93878
1.93707
1.93655
1.93661
1.93525
1.93238
1.92822
1.92053
1.9086
1.89864
1.89047
2.0952
1.97529
1.86945
1.76285
1.6693
1.60664
1.54373
1.4664
1.41926
1.39778
1.37105
1.33447
1.28892
1.25132
1.24376
1.24305
1.23145
1.21101
1.19292
1.17879
1.1697
1.16526
1.16443
1.16751
1.1731
1.18284
1.20377
1.2383
1.27258
1.31578
1.35535
1.38114
1.40185
1.41296
1.42287
1.43482
1.44623
1.45733
1.46426
1.46579
1.46785
1.47242
1.4823
1.49129
1.49296
1.49307
1.49028
1.4896
1.49017
1.49259
1.50029
1.50782
1.50949
1.50862
1.50534
1.50462
1.50527
1.50752
1.51007
1.513
1.52433
1.59505
1.76353
1.90111
1.94698
2.17534
2.41331
2.46285
2.45419
2.44051
2.43139
2.42911
2.42868
2.42595
2.42231
2.41858
2.4146
2.41099
2.40801
2.40608
2.40341
2.39835
2.39163
2.38437
2.37765
2.37226
2.36798
2.36454
2.36187
2.35844
2.35307
2.34624
2.34069
2.33722
2.33434
2.33087
2.32596
2.31919
2.3111
2.3032
2.29676
2.29178
2.28757
2.28304
2.27717
2.26922
2.26096
2.25534
2.25106
2.24735
2.24501
2.24396
2.24254
2.23978
2.23503
2.22785
2.22166
2.21697
2.21165
2.20442
2.19489
2.18393
2.17454
2.16945
2.16701
2.1661
2.16682
2.16689
2.16441
2.15897
2.14944
2.13882
2.13054
2.12518
2.12152
2.11923
2.11759
2.11522
2.11181
2.10662
2.10114
2.09669
2.09269
2.08891
2.08565
2.08254
2.07904
2.07481
2.06969
2.06395
2.05821
2.05248
2.04726
2.04271
2.0383
2.03354
2.02836
2.02264
2.01592
2.00776
1.99918
1.99347
1.99085
1.98878
1.98643
1.98375
1.98066
1.977
1.97285
1.96856
1.9638
1.95817
1.95278
1.94905
1.94616
1.9428
1.93826
1.93278
1.92775
1.92395
1.92103
1.91885
1.91721
1.9163
1.91597
1.91458
1.91197
1.90857
1.90233
1.89074
1.87841
1.86916
2.13098
2.0325
1.94236
1.84351
1.75658
1.6961
1.63454
1.57115
1.51659
1.46296
1.42867
1.41194
1.38978
1.34871
1.301
1.28888
1.28081
1.26843
1.25627
1.23684
1.2178
1.21315
1.2083
1.20086
1.19108
1.18814
1.18781
1.18923
1.19408
1.2082
1.2402
1.27846
1.31675
1.35458
1.38029
1.39971
1.41652
1.43495
1.45169
1.45416
1.45628
1.46062
1.46859
1.47912
1.48407
1.48545
1.48511
1.48462
1.48524
1.48693
1.49383
1.50019
1.50121
1.50023
1.49488
1.49267
1.49315
1.49463
1.50026
1.51552
1.59023
1.77545
1.90629
1.96063
1.95695
1.98971
2.19026
2.38831
2.4216
2.42382
2.41324
2.4059
2.40459
2.40007
2.3943
2.39119
2.38905
2.38681
2.38437
2.382
2.37829
2.37319
2.3674
2.36159
2.35642
2.35235
2.34954
2.34807
2.34753
2.34532
2.34009
2.33227
2.3212
2.31105
2.30567
2.30165
2.29745
2.29275
2.2879
2.28332
2.27944
2.27582
2.27138
2.26661
2.26104
2.25363
2.24431
2.23632
2.23188
2.22887
2.22729
2.22665
2.22484
2.22105
2.21581
2.20748
2.19686
2.18717
2.17938
2.17256
2.16588
2.15972
2.15547
2.15297
2.15224
2.15251
2.15156
2.1484
2.14308
2.13401
2.12241
2.11315
2.10816
2.10506
2.10348
2.1034
2.10168
2.09832
2.09282
2.08424
2.0761
2.07104
2.06827
2.06639
2.06553
2.06515
2.06288
2.05833
2.04968
2.03727
2.02677
2.02058
2.01676
2.01407
2.01213
2.01075
2.00938
2.00668
2.00277
1.99767
1.98975
1.97882
1.96974
1.96463
1.96121
1.95828
1.95576
1.95367
1.95169
1.94958
1.94696
1.94283
1.93616
1.92853
1.92291
1.91885
1.91509
1.91185
1.90937
1.907
1.90423
1.90121
1.89874
1.89673
1.89488
1.89293
1.8905
1.88659
1.87985
1.87044
1.8621
1.85363
2.15818
2.07548
1.99488
1.90835
1.83753
1.77268
1.70224
1.64188
1.60369
1.55807
1.49561
1.46338
1.45091
1.425
1.38701
1.35205
1.33054
1.31871
1.31263
1.30189
1.28235
1.2582
1.25128
1.24619
1.23507
1.21853
1.20737
1.20303
1.20111
1.20248
1.20704
1.21657
1.229
1.24774
1.27128
1.30196
1.33834
1.37007
1.40779
1.43811
1.44713
1.45242
1.45751
1.46605
1.47696
1.48133
1.48259
1.48216
1.48204
1.48358
1.48986
1.49635
1.49804
1.49829
1.49558
1.48933
1.48845
1.48956
1.50901
1.58991
1.76563
1.92187
1.95719
1.96687
1.96111
1.96046
2.00178
2.19878
2.36738
2.40985
2.41302
2.40338
2.399
2.39124
2.38328
2.37962
2.37769
2.37574
2.37264
2.36894
2.3648
2.3605
2.35713
2.35349
2.34868
2.34348
2.33998
2.33712
2.33511
2.33369
2.32987
2.32358
2.31376
2.30076
2.29147
2.2867
2.28317
2.28108
2.27902
2.27562
2.27154
2.26724
2.26218
2.2572
2.25222
2.24641
2.23919
2.23056
2.22321
2.21917
2.21607
2.21289
2.20935
2.20499
2.19954
2.19266
2.18357
2.1732
2.16426
2.15791
2.15404
2.15216
2.15217
2.15178
2.14913
2.14505
2.13936
2.13216
2.12421
2.11604
2.10851
2.1033
2.09968
2.09716
2.09553
2.09323
2.08909
2.08346
2.07649
2.06931
2.0634
2.05934
2.05674
2.0553
2.05454
2.05258
2.04847
2.04132
2.0306
2.01748
2.00689
2.00076
1.99744
1.99539
1.99465
1.99649
1.99887
1.99874
1.99634
1.99226
1.9848
1.97275
1.95963
1.94978
1.94399
1.94084
1.93887
1.93767
1.93753
1.93654
1.93432
1.93105
1.92508
1.91594
1.90682
1.90156
1.89903
1.89711
1.89523
1.89329
1.89117
1.88859
1.88516
1.88131
1.87833
1.876
1.87225
1.86643
1.85912
1.85253
1.8493
1.84438
2.18054
2.1099
2.03592
1.96103
1.89671
1.83536
1.76834
1.70804
1.66566
1.62426
1.57515
1.53323
1.50131
1.47113
1.44756
1.42434
1.3947
1.36438
1.35589
1.34937
1.33554
1.3114
1.2898
1.28453
1.27931
1.26829
1.25001
1.2402
1.23687
1.23079
1.22295
1.22271
1.22595
1.22489
1.22345
1.22679
1.24082
1.26684
1.30607
1.35395
1.39786
1.43673
1.44564
1.45211
1.46155
1.4693
1.47483
1.4767
1.47728
1.47884
1.48328
1.49099
1.49541
1.49616
1.49485
1.49019
1.48793
1.50557
1.61558
1.77575
1.91274
1.9609
1.96398
1.96316
1.95995
1.95936
1.96156
2.00831
2.18976
2.35636
2.40808
2.4071
2.3999
2.38941
2.38127
2.37693
2.37458
2.37096
2.36686
2.36273
2.35877
2.35527
2.35336
2.35038
2.34536
2.33809
2.33065
2.32628
2.32333
2.32268
2.32135
2.31666
2.31071
2.30075
2.28886
2.28148
2.27706
2.27498
2.27284
2.26874
2.26367
2.25711
2.25207
2.24808
2.24423
2.2403
2.23585
2.22963
2.22063
2.21077
2.20389
2.19927
2.19538
2.19228
2.1885
2.18343
2.17754
2.17013
2.16223
2.15676
2.154
2.15363
2.15298
2.14986
2.14446
2.13645
2.1275
2.11921
2.11215
2.10708
2.10403
2.10164
2.09863
2.09432
2.08847
2.08099
2.07459
2.06898
2.06424
2.06111
2.05861
2.05639
2.05364
2.05003
2.04565
2.0397
2.03283
2.02487
2.01543
2.00699
1.99983
1.99411
1.99014
1.98791
1.98753
1.99076
1.99355
1.99198
1.98858
1.98322
1.97542
1.96654
1.95735
1.9473
1.93838
1.93325
1.93078
1.92987
1.92895
1.92688
1.92402
1.92014
1.91483
1.90837
1.90061
1.89335
1.88927
1.88704
1.88509
1.88326
1.88166
1.87971
1.87721
1.87354
1.86818
1.86092
1.85332
1.84728
1.84332
1.84074
1.83998
1.8373
2.1987
2.1349
2.06732
2.00429
1.94402
1.88442
1.82097
1.77029
1.72405
1.67731
1.62996
1.59816
1.56358
1.52228
1.49304
1.47964
1.45727
1.4209
1.39936
1.39227
1.38411
1.36744
1.33932
1.31939
1.31487
1.3087
1.2977
1.28217
1.27327
1.26808
1.26033
1.25029
1.23966
1.23519
1.2328
1.23083
1.23054
1.23169
1.23789
1.25496
1.28538
1.32561
1.36426
1.39286
1.41557
1.4332
1.45062
1.46676
1.47846
1.48082
1.48164
1.48333
1.48745
1.4904
1.49029
1.49283
1.51195
1.616
1.80372
1.90649
1.95595
1.96907
1.96862
1.96147
1.95784
1.95806
1.958
1.96108
2.00484
2.16641
2.34296
2.39719
2.39643
2.38837
2.38192
2.37831
2.37468
2.36877
2.363
2.3584
2.35469
2.35194
2.35068
2.34759
2.34262
2.33446
2.32421
2.31777
2.31357
2.31078
2.31052
2.30964
2.30524
2.29865
2.28996
2.2816
2.27577
2.27109
2.26644
2.26169
2.25575
2.24865
2.24263
2.23805
2.23454
2.23273
2.23026
2.22595
2.21958
2.20925
2.19849
2.19173
2.1869
2.1826
2.17907
2.17653
2.17304
2.16939
2.1655
2.16097
2.15591
2.15124
2.14674
2.14158
2.13565
2.12758
2.11801
2.11041
2.10595
2.1036
2.1025
2.1008
2.09727
2.09131
2.08174
2.07182
2.06522
2.06096
2.05826
2.05735
2.05784
2.05604
2.05222
2.04593
2.03654
2.02664
2.01717
2.00907
2.00334
1.99953
1.99662
1.99361
1.99118
1.98941
1.98792
1.98578
1.98178
1.97744
1.97323
1.96863
1.96408
1.95979
1.95544
1.95022
1.94335
1.93454
1.92631
1.92028
1.91646
1.91373
1.91123
1.90872
1.90603
1.90295
1.89884
1.89256
1.88573
1.88173
1.87972
1.87851
1.87766
1.87569
1.8729
1.86875
1.86148
1.85131
1.84262
1.83781
1.83613
1.8366
1.83804
1.83454
2.21364
2.15519
2.09519
2.03985
1.98235
1.92388
1.86961
1.81972
1.77522
1.72796
1.68397
1.64908
1.61547
1.5787