/*--------------------------------*- C++ -*----------------------------------*\
  =========                 |
  \\      /  F ield         | OpenFOAM: The Open Source CFD Toolbox
   \\    /   O peration     | Website:  https://openfoam.org
    \\  /    A nd           | Version:  7
     \\/     M anipulation  |
\*---------------------------------------------------------------------------*/
FoamFile
{
    version     2.0;
    format      ascii;
    class       volScalarField;
    location    "0.5";
    object      p;
}
// * * * * * * * * * * * * * * * * * * * * * * * * * * * * * * * * * * * * * //

dimensions      [1 -1 -2 0 0 0 0];

internalField   nonuniform List<scalar> 
258048
(
1
1
1
1
1
1
1
1
1
1
1
1
1
1
1
1
1
1
1
1
1
1
1
1
1
1
1
1
1
1
1
1
1
1
1
1
1
1
1
1
1
1
1
1
1
1
1
1
1
1
1
1
1
1
1
1
1
1
1
1
1
1
1
1
1
1
1
1
1
1
1
1
1
1
1
1
1
1
1
1
1
1
1
1
1
1
1
1
1
1
1
1
1
1
1
1
1
1
1
1
1
1
1
1
1
1
1
1
1
1
1
1
1
1
1
1
1
1
1
1
1
1
1.84985
8.833
10.9937
11.0576
11.1672
11.2951
11.4084
11.4974
11.5527
11.5839
11.6139
11.6503
11.6846
11.713
11.7323
11.7443
11.7477
11.7522
11.7548
11.7481
11.7281
11.7018
11.7137
11.7673
11.8487
11.98
12.1097
12.1953
12.2202
12.1806
12.1326
12.1219
12.1645
12.2431
12.3009
12.2879
12.2004
12.0857
12.0052
12.0017
12.0938
12.2705
12.4364
12.5506
12.5797
12.5403
12.4666
12.3872
12.3401
12.3524
12.4142
12.479
12.4987
12.4708
12.4292
12.4027
12.3952
12.3941
12.3995
12.4429
12.5156
12.6126
12.7001
12.7419
12.7145
12.6346
12.5341
12.4323
12.3691
12.3396
1
1
1
1
1
1
1
1
1
1
1
1
1
1
1
1
1
1
1
1
1
1
1
1
1
1
1
1
1
1
1
1
1
1
1
1
1
1
1
1
1
1
1
1
1
1
1
1
1
1
1
1
1
1
1
1
1
1
1
1
1
1
1
1
1
1
1
1
1
1
1
1
1
1
1
1
1
1
1
1
1
1
1
1
1
1
1
1
1
1
1
1
1
1
1
1
1
1
1
1
1
1
1
1
1
1
1
1
1
1
1
1
1
1
1
1
1
1
1
1
1
1
1.83768
8.80464
10.9911
11.0585
11.1714
11.2998
11.4062
11.4933
11.5493
11.5829
11.6146
11.651
11.6848
11.7128
11.7316
11.743
11.7455
11.7492
11.7515
11.745
11.7262
11.7015
11.7152
11.7696
11.8512
11.9814
12.1105
12.1953
12.2193
12.1796
12.1319
12.1214
12.1639
12.2422
12.2996
12.2865
12.1992
12.085
12.0051
12.0023
12.0946
12.2714
12.4369
12.551
12.5802
12.5408
12.4669
12.3875
12.3402
12.3525
12.4138
12.4778
12.4968
12.4686
12.4274
12.4035
12.3951
12.3939
12.401
12.4427
12.5146
12.6112
12.6985
12.7402
12.713
12.6334
12.5333
12.4314
12.3696
12.3398
1
1
1
1
1
1
1
1
1
1
1
1
1
1
1
1
1
1
1
1
1
1
1
1
1
1
1
1
1
1
1
1
1
1
1
1
1
1
1
1
1
1
1
1
1
1
1
1
1
1
1
1
1
1
1
1
1
1
1
1
1
1
1
1
1
1
1
1
1
1
1
1
1
1
1
1
1
1
1
1
1
1
1
1
1
1
1
1
1
1
1
1
1
1
1
1
1
1
1
1
1
1
1
1
1
1
1
1
1
1
1
1
1
1
1
1
1
1
1
1
1
1
1.80944
8.75184
10.9917
11.0642
11.1794
11.3066
11.4053
11.4893
11.5437
11.5796
11.6142
11.6513
11.685
11.7127
11.7308
11.7411
11.7423
11.7447
11.7463
11.7403
11.7231
11.7003
11.7173
11.7728
11.8541
11.9833
12.1115
12.195
12.2176
12.1779
12.1303
12.12
12.1624
12.2404
12.2976
12.2842
12.1969
12.0833
12.0043
12.0022
12.0951
12.2719
12.4373
12.5515
12.5808
12.5413
12.467
12.3871
12.3394
12.3513
12.412
12.4752
12.4935
12.4655
12.4252
12.4041
12.3953
12.394
12.4027
12.442
12.5127
12.6088
12.6959
12.7377
12.7108
12.6316
12.5318
12.4295
12.3698
12.3395
1
1
1
1
1
1
1
1
1
1
1
1
1
1
1
1
1
1
1
1
1
1
1
1
1
1
1
1
1
1
1
1
1
1
1
1
1
1
1
1
1
1
1
1
1
1
1
1
1
1
1
1
1
1
1
1
1
1
1
1
1
1
1
1
1
1
1
1
1
1
1
1
1
1
1
1
1
1
1
1
1
1
1
1
1
1
1
1
1
1
1
1
1
1
1
1
1
1
1
1
1
1
1
1
1
1
1
1
1
1
1
1
1
1
1
1
1
1
1
1
1
1
1.76195
8.66461
10.9981
11.0769
11.1914
11.3139
11.4047
11.4856
11.5382
11.5766
11.6139
11.6517
11.685
11.7117
11.7287
11.7376
11.737
11.7378
11.7386
11.7333
11.7187
11.6985
11.7208
11.7776
11.8585
11.9864
12.1129
12.194
12.2148
12.1753
12.1279
12.1178
12.16
12.2374
12.2942
12.2805
12.1935
12.0808
12.0032
12.0023
12.0958
12.2729
12.438
12.5523
12.5819
12.5419
12.4672
12.3868
12.3383
12.3496
12.4093
12.4713
12.489
12.4616
12.4228
12.4045
12.3962
12.3951
12.4047
12.4411
12.5102
12.6051
12.6917
12.7336
12.7072
12.6287
12.5295
12.4273
12.3702
12.3394
1
1
1
1
1
1
1
1
1
1
1
1
1
1
1
1
1
1
1
1
1
1
1
1
1
1
1
1
1
1
1
1
1
1
1
1
1
1
1
1
1
1
1
1
1
1
1
1
1
1
1
1
1
1
1
1
1
1
1
1
1
1
1
1
1
1
1
1
1
1
1
1
1
1
1
1
1
1
1
1
1
1
1
1
1
1
1
1
1
1
1
1
1
1
1
1
1
1
1
1
1
1
1
1
1
1
1
1
1
1
1
1
1
1
1
1
1
1
1
1
1
1
1.69451
8.53913
11.0047
11.0927
11.2078
11.3253
11.4091
11.4822
11.5323
11.5736
11.6134
11.6517
11.6843
11.7098
11.7257
11.7333
11.7307
11.7296
11.7291
11.7243
11.7128
11.6965
11.7256
11.7839
11.8645
11.99
12.1142
12.1926
12.2111
12.172
12.1248
12.1148
12.1567
12.2333
12.2897
12.2757
12.1889
12.0773
12.0018
12.0025
12.0963
12.2737
12.4388
12.5532
12.583
12.5424
12.467
12.3857
12.3361
12.3463
12.4047
12.4657
12.4836
12.4574
12.4208
12.405
12.3979
12.397
12.4065
12.4402
12.5073
12.6004
12.6863
12.7284
12.7026
12.6247
12.5263
12.4249
12.3705
12.3397
1
1
1
1
1
1
1
1
1
1
1
1
1
1
1
1
1
1
1
1
1
1
1
1
1
1
1
1
1
1
1
1
1
1
1
1
1
1
1
1
1
1
1
1
1
1
1
1
1
1
1
1
1
1
1
1
1
1
1
1
1
1
1
1
1
1
1
1
1
1
1
1
1
1
1
1
1
1
1
1
1
1
1
1
1
1
1
1
1
1
1
1
1
1
1
1
1
1
1
1
1
1
1
1
1
1
1
1
1
1
1
1
1
1
1
1
1
1
1
1
1
1
1.61044
8.37543
11.0123
11.1105
11.2279
11.339
11.4142
11.4793
11.528
11.5721
11.6139
11.6517
11.6827
11.7063
11.7209
11.7273
11.7229
11.7195
11.7175
11.7135
11.7059
11.6955
11.7324
11.7919
11.8721
11.994
12.1149
12.1901
12.2065
12.1681
12.1212
12.1111
12.1521
12.2275
12.2835
12.2694
12.1831
12.0727
12.0001
12.0027
12.0966
12.2741
12.4393
12.554
12.5839
12.5425
12.4661
12.3837
12.3326
12.3411
12.398
12.4582
12.4767
12.4527
12.4189
12.4056
12.4
12.3993
12.4079
12.4391
12.504
12.5946
12.6796
12.7219
12.6968
12.6197
12.5224
12.4226
12.3708
12.3405
1
1
1
1
1
1
1
1
1
1
1
1
1
1
1
1
1
1
1
1
1
1
1
1
1
1
1
1
1
1
1
1
1
1
1
1
1
1
1
1
1
1
1
1
1
1
1
1
1
1
1
1
1
1
1
1
1
1
1
1
1
1
1
1
1
1
1
1
1
1
1
1
1
1
1
1
1
1
1
1
1
1
1
1
1
1
1
1
1
1
1
1
1
1
1
1
1
1
1
1
1
1
1
1
1
1
1
1
1
1
1
1
1
1
1
1
1
1
1
1
1
1
1.5147
8.17333
11.023
11.1361
11.2565
11.355
11.4195
11.4774
11.5252
11.5718
11.6145
11.6509
11.6792
11.7006
11.7142
11.7201
11.7142
11.708
11.7039
11.7008
11.6981
11.6969
11.7413
11.8019
11.8805
11.9976
12.1146
12.1866
12.2013
12.1642
12.1175
12.1067
12.1464
12.22
12.2756
12.2617
12.1762
12.0674
11.9984
12.0033
12.0966
12.2743
12.4396
12.5546
12.5845
12.5423
12.4647
12.3808
12.3278
12.3342
12.3892
12.4485
12.4684
12.4478
12.4182
12.4076
12.4037
12.4028
12.4095
12.4381
12.5004
12.5879
12.6716
12.7142
12.69
12.6136
12.5175
12.42
12.3713
12.3416
1
1
1
1
1
1
1
1
1
1
1
1
1
1
1
1
1
1
1
1
1
1
1
1
1
1
1
1
1
1
1
1
1
1
1
1
1
1
1
1
1
1
1
1
1
1
1
1
1
1
1
1
1
1
1
1
1
1
1
1
1
1
1
1
1
1
1
1
1
1
1
1
1
1
1
1
1
1
1
1
1
1
1
1
1
1
1
1
1
1
1
1
1
1
1
1
1
1
1
1
1
1
1
1
1
1
1
1
1
1
1
1
1
1
1
1
1
1
1
1
1
1
1.412
7.93559
11.0395
11.1753
11.2895
11.3684
11.4218
11.4754
11.5236
11.5726
11.6153
11.649
11.6734
11.6927
11.7057
11.7115
11.7042
11.6944
11.6879
11.6869
11.6904
11.7022
11.7525
11.8133
11.889
12.0003
12.1129
12.182
12.1959
12.1605
12.1136
12.1016
12.1391
12.2106
12.2659
12.2524
12.1681
12.0616
11.9972
12.0045
12.0967
12.274
12.4393
12.5546
12.5844
12.5414
12.4624
12.377
12.3216
12.3253
12.378
12.4368
12.4591
12.443
12.4188
12.411
12.409
12.4076
12.4113
12.437
12.4959
12.5797
12.662
12.7051
12.6818
12.6063
12.5117
12.4171
12.372
12.3434
1
1
1
1
1
1
1
1
1
1
1
1
1
1
1
1
1
1
1
1
1
1
1
1
1
1
1
1
1
1
1
1
1
1
1
1
1
1
1
1
1
1
1
1
1
1
1
1
1
1
1
1
1
1
1
1
1
1
1
1
1
1
1
1
1
1
1
1
1
1
1
1
1
1
1
1
1
1
1
1
1
1
1
1
1
1
1
1
1
1
1
1
1
1
1
1
1
1
1
1
1
1
1
1
1
1
1
1
1
1
1
1
1
1
1
1
1
1
1
1
1
1
1.30687
7.66898
11.069
11.2276
11.317
11.3752
11.4213
11.474
11.5228
11.5738
11.6153
11.6446
11.6645
11.6822
11.6953
11.7015
11.6931
11.679
11.6699
11.6723
11.684
11.7118
11.7658
11.8251
11.8968
12.0015
12.1096
12.1763
12.1904
12.157
12.1097
12.0956
12.1303
12.1991
12.2542
12.2417
12.1591
12.0557
11.9966
12.0066
12.0973
12.2736
12.4382
12.5536
12.5836
12.54
12.4597
12.3723
12.314
12.3144
12.3644
12.4229
12.4483
12.438
12.4195
12.415
12.4148
12.413
12.4134
12.4357
12.4907
12.5701
12.6509
12.6944
12.6723
12.598
12.5052
12.4141
12.373
12.3459
1
1
1
1
1
1
1
1
1
1
1
1
1
1
1
1
1
1
1
1
1
1
1
1
1
1
1
1
1
1
1
1
1
1
1
1
1
1
1
1
1
1
1
1
1
1
1
1
1
1
1
1
1
1
1
1
1
1
1
1
1
1
1
1
1
1
1
1
1
1
1
1
1
1
1
1
1
1
1
1
1
1
1
1
1
1
1
1
1
1
1
1
1
1
1
1
1
1
1
1
1
1
1
1
1
1
1
1
1
1
1
1
1
1
1
1
1
1
1
1
1
1
1.20298
7.38328
11.1197
11.2809
11.33
11.3753
11.4198
11.4733
11.5225
11.5747
11.6135
11.6371
11.6522
11.6691
11.6834
11.6903
11.6804
11.6619
11.6498
11.6576
11.6807
11.7244
11.7813
11.837
11.9034
12.001
12.105
12.1701
12.1851
12.1538
12.1056
12.0885
12.1196
12.1855
12.2407
12.2296
12.1494
12.05
11.997
12.0096
12.0986
12.273
12.4363
12.5517
12.5821
12.5383
12.4565
12.3671
12.3053
12.3015
12.3484
12.4066
12.4359
12.4325
12.4208
12.4198
12.4214
12.4187
12.4157
12.4343
12.4843
12.5593
12.6381
12.6822
12.6614
12.5887
12.498
12.411
12.3745
12.3493
1
1
1
1
1
1
1
1
1
1
1
1
1
1
1
1
1
1
1
1
1
1
1
1
1
1
1
1
1
1
1
1
1
1
1
1
1
1
1
1
1
1
1
1
1
1
1
1
1
1
1
1
1
1
1
1
1
1
1
1
1
1
1
1
1
1
1
1
1
1
1
1
1
1
1
1
1
1
1
1
1
1
1
1
1
1
1
1
1
1
1
1
1
1
1
1
1
1
1
1
1
1
1
1
1
1
1
1
1
1
1
1
1
1
1
1
1
1
1
1
1
1
1.10295
7.09199
11.1975
11.3024
11.3326
11.372
11.4183
11.473
11.5221
11.5745
11.6089
11.6256
11.6365
11.6535
11.6703
11.6778
11.6656
11.6431
11.6291
11.6442
11.6815
11.7392
11.7981
11.8485
11.9082
11.999
12.0991
12.1634
12.1799
12.1505
12.1011
12.0804
12.1073
12.17
12.225
12.2162
12.1392
12.0452
11.9988
12.0137
12.1006
12.272
12.4336
12.5487
12.5799
12.5362
12.4531
12.3614
12.2958
12.287
12.3298
12.3878
12.4221
12.4265
12.4227
12.4258
12.4289
12.4249
12.4183
12.4325
12.4767
12.5469
12.6235
12.6682
12.649
12.5783
12.4901
12.4078
12.3765
12.3536
1
1
1
1
1
1
1
1
1
1
1
1
1
1
1
1
1
1
1
1
1
1
1
1
1
1
1
1
1
1
1
1
1
1
1
1
1
1
1
1
1
1
1
1
1
1
1
1
1
1
1
1
1
1
1
1
1
1
1
1
1
1
1
1
1
1
1
1
1
1
1
1
1
1
1
1
1
1
1
1
1
1
1
1
1
1
1
1
1
1
1
1
1
1
1
1
1
1
1
1
1
1
1
1
1
1
1
1
1
1
1
1
1
1
1
1
1
1
1
1
1
1
1.01719
6.82541
11.2221
11.3008
11.3324
11.3688
11.4165
11.4725
11.5213
11.5722
11.6004
11.6098
11.6178
11.6363
11.6563
11.6636
11.6484
11.6227
11.6093
11.6339
11.6872
11.7556
11.8141
11.859
11.9116
11.9955
12.0921
12.1563
12.1749
12.1469
12.0961
12.0709
12.0931
12.1524
12.2073
12.2015
12.129
12.0419
12.0024
12.019
12.1033
12.2701
12.4297
12.5446
12.5769
12.5338
12.4497
12.3557
12.2856
12.271
12.309
12.3666
12.4069
12.4203
12.425
12.4328
12.4371
12.4315
12.4214
12.43
12.4677
12.533
12.607
12.6522
12.6352
12.5669
12.4815
12.4049
12.379
12.3588
1
1
1
1
1
1
1
1
1
1
1
1
1
1
1
1
1
1
1
1
1
1
1
1
1
1
1
1
1
1
1
1
1
1
1
1
1
1
1
1
1
1
1
1
1
1
1
1
1
1
1
1
1
1
1
1
1
1
1
1
1
1
1
1
1
1
1
1
1
1
1
1
1
1
1
1
1
1
1
1
1
1
1
1
1
1
1
1
1
1
1
1
1
1
1
1
1
1
1
1
1
1
1
1
1
1
1
1
1
1
1
1
1
1
1
1
1
1
1
1
1
1
1.00004
6.52821
11.1803
11.296
11.3332
11.3655
11.4139
11.471
11.5201
11.5669
11.5868
11.5899
11.597
11.6183
11.6417
11.6478
11.6284
11.601
11.5917
11.628
11.6977
11.7725
11.8286
11.8683
11.9137
11.9905
12.0841
12.149
12.1698
12.1428
12.0903
12.0602
12.077
12.1326
12.1873
12.1856
12.1191
12.0412
12.0075
12.0259
12.1065
12.267
12.4245
12.5392
12.5732
12.5312
12.4463
12.3499
12.275
12.2537
12.2861
12.3432
12.3905
12.4141
12.4279
12.4404
12.4458
12.4387
12.4248
12.4265
12.4575
12.5175
12.5883
12.6342
12.6198
12.5546
12.4725
12.4021
12.3819
12.3648
1
1
1
1
1
1
1
1
1
1
1
1
1
1
1
1
1
1
1
1
1
1
1
1
1
1
1
1
1
1
1
1
1
1
1
1
1
1
1
1
1
1
1
1
1
1
1
1
1
1
1
1
1
1
1
1
1
1
1
1
1
1
1
1
1
1
1
1
1
1
1
1
1
1
1
1
1
1
1
1
1
1
1
1
1
1
1
1
1
1
1
1
1
1
1
1
1
1
1
1
1
1
1
1
1
1
1
1
1
1
1
1
1
1
1
1
1
1
1
1
1
1
1
6.19923
11.1255
11.2925
11.3322
11.3616
11.4108
11.4682
11.5177
11.5571
11.567
11.5666
11.5757
11.6007
11.6265
11.6297
11.6058
11.5788
11.5779
11.6274
11.7113
11.7891
11.8418
11.8766
11.9143
11.984
12.0749
12.1412
12.1644
12.1381
12.0835
12.0482
12.0591
12.1107
12.1654
12.1686
12.109
12.0445
12.014
12.0341
12.1101
12.2627
12.4177
12.5325
12.5686
12.5282
12.4428
12.3442
12.2642
12.2354
12.2616
12.318
12.373
12.4081
12.4312
12.4484
12.4548
12.446
12.4285
12.4225
12.4463
12.5003
12.5674
12.6139
12.6026
12.5412
12.4629
12.3997
12.3851
12.3714
1
1
1
1
1
1
1
1
1
1
1
1
1
1
1
1
1
1
1
1
1
1
1
1
1
1
1
1
1
1
1
1
1
1
1
1
1
1
1
1
1
1
1
1
1
1
1
1
1
1
1
1
1
1
1
1
1
1
1
1
1
1
1
1
1
1
1
1
1
1
1
1
1
1
1
1
1
1
1
1
1
1
1
1
1
1
1
1
1
1
1
1
1
1
1
1
1
1
1
1
1
1
1
1
1
1
1
1
1
1
1
1
1
1
1
1
1
1
1
1
1
1
1
5.85038
11.0709
11.2911
11.3246
11.3578
11.4093
11.4642
11.5112
11.54
11.5419
11.5419
11.5562
11.5843
11.6091
11.6082
11.5823
11.5573
11.5689
11.6331
11.7266
11.8049
11.8541
11.8838
11.9135
11.976
12.0646
12.1326
12.1585
12.1324
12.0754
12.0346
12.0392
12.0866
12.1418
12.151
12.0991
12.0512
12.023
12.0431
12.1135
12.257
12.4094
12.5243
12.5628
12.5246
12.4391
12.3384
12.2531
12.2163
12.2356
12.2914
12.355
12.4022
12.4349
12.4567
12.4641
12.4533
12.4319
12.4183
12.434
12.4813
12.5443
12.5911
12.5835
12.5268
12.453
12.3977
12.3885
12.3788
1
1
1
1
1
1
1
1
1
1
1
1
1
1
1
1
1
1
1
1
1
1
1
1
1
1
1
1
1
1
1
1
1
1
1
1
1
1
1
1
1
1
1
1
1
1
1
1
1
1
1
1
1
1
1
1
1
1
1
1
1
1
1
1
1
1
1
1
1
1
1
1
1
1
1
1
1
1
1
1
1
1
1
1
1
1
1
1
1
1
1
1
1
1
1
1
1
1
1
1
1
1
1
1
1
1
1
1
1
1
1
1
1
1
1
1
1
1
1
1
1
1
1
5.48172
11.0137
11.2907
11.312
11.3564
11.4095
11.4572
11.4954
11.5133
11.5139
11.5199
11.5397
11.5677
11.5876
11.5827
11.5589
11.5406
11.5662
11.644
11.7425
11.8198
11.8654
11.8897
11.9112
11.9666
12.0532
12.1233
12.1518
12.1255
12.0656
12.0192
12.0174
12.0605
12.1168
12.1333
12.0905
12.0603
12.0349
12.0524
12.1163
12.2498
12.3996
12.5145
12.5556
12.5199
12.4347
12.3324
12.2417
12.1964
12.2086
12.2639
12.3368
12.3967
12.439
12.465
12.4733
12.4604
12.4351
12.414
12.4207
12.4606
12.5193
12.5659
12.5624
12.5112
12.4425
12.396
12.3921
12.3868
1
1
1
1
1
1
1
1
1
1
1
1
1
1
1
1
1
1
1
1
1
1
1
1
1
1
1
1
1
1
1
1
1
1
1
1
1
1
1
1
1
1
1
1
1
1
1
1
1
1
1
1
1
1
1
1
1
1
1
1
1
1
1
1
1
1
1
1
1
1
1
1
1
1
1
1
1
1
1
1
1
1
1
1
1
1
1
1
1
1
1
1
1
1
1
1
1
1
1
1
1
1
1
1
1
1
1
1
1
1
1
1
1
1
1
1
1
1
1
1
1
1
1
5.09778
10.9487
11.2867
11.3002
11.3527
11.4058
11.4431
11.467
11.4807
11.4889
11.5028
11.524
11.5484
11.561
11.5545
11.5373
11.5313
11.5715
11.6585
11.7584
11.8339
11.875
11.8933
11.9075
11.9561
12.0409
12.113
12.1438
12.1169
12.0539
12.002
11.994
12.0324
12.0907
12.1156
12.0843
12.0717
12.0491
12.0616
12.118
12.2411
12.3883
12.5031
12.5469
12.5141
12.4295
12.3257
12.2297
12.1757
12.1806
12.236
12.3187
12.3918
12.4435
12.4735
12.4824
12.4673
12.4378
12.4094
12.4066
12.4386
12.4925
12.5382
12.5391
12.4943
12.4317
12.3947
12.3958
12.3955
1
1
1
1
1
1
1
1
1
1
1
1
1
1
1
1
1
1
1
1
1
1
1
1
1
1
1
1
1
1
1
1
1
1
1
1
1
1
1
1
1
1
1
1
1
1
1
1
1
1
1
1
1
1
1
1
1
1
1
1
1
1
1
1
1
1
1
1
1
1
1
1
1
1
1
1
1
1
1
1
1
1
1
1
1
1
1
1
1
1
1
1
1
1
1
1
1
1
1
1
1
1
1
1
1
1
1
1
1
1
1
1
1
1
1
1
1
1
1
1
1
1
1
4.71734
10.8662
11.2654
11.2923
11.3494
11.3905
11.4136
11.4327
11.4514
11.4704
11.4883
11.5051
11.5226
11.5306
11.5283
11.5203
11.5306
11.5847
11.6751
11.7736
11.8463
11.8825
11.8939
11.9026
11.9452
12.0279
12.1014
12.1339
12.1063
12.0403
11.9832
11.9691
12.0023
12.0635
12.0984
12.0818
12.085
12.0649
12.0703
12.1183
12.2309
12.3752
12.4896
12.5364
12.507
12.4232
12.3181
12.2169
12.1541
12.1519
12.2079
12.3011
12.3877
12.4486
12.4821
12.4912
12.4736
12.4399
12.4046
12.3921
12.4156
12.4638
12.508
12.5136
12.4759
12.4205
12.3936
12.3996
12.4048
1
1
1
1
1
1
1
1
1
1
1
1
1
1
1
1
1
1
1
1
1
1
1
1
1
1
1
1
1
1
1
1
1
1
1
1
1
1
1
1
1
1
1
1
1
1
1
1
1
1
1
1
1
1
1
1
1
1
1
1
1
1
1
1
1
1
1
1
1
1
1
1
1
1
1
1
1
1
1
1
1
1
1
1
1
1
1
1
1
1
1
1
1
1
1
1
1
1
1
1
1
1
1
1
1
1
1
1
1
1
1
1
1
1
1
1
1
1
1
1
1
1
1
4.34969
10.7591
11.234
11.2802
11.3334
11.3575
11.3745
11.4053
11.4301
11.4553
11.4714
11.4801
11.4913
11.5002
11.5073
11.5114
11.5402
11.6031
11.6923
11.7872
11.8556
11.8863
11.8917
11.8968
11.9346
12.0143
12.088
12.1212
12.0933
12.0251
11.9635
11.9433
11.9706
12.0352
12.0817
12.0842
12.0996
12.0821
12.078
12.1169
12.2195
12.3599
12.4739
12.5243
12.4987
12.4158
12.3094
12.2031
12.1316
12.1226
12.1801
12.2842
12.3844
12.454
12.4907
12.4995
12.4793
12.4413
12.3995
12.3773
12.3918
12.4334
12.4754
12.4858
12.4558
12.409
12.3931
12.4035
12.4146
1
1
1
1
1
1
1
1
1
1
1
1
1
1
1
1
1
1
1
1
1
1
1
1
1
1
1
1
1
1
1
1
1
1
1
1
1
1
1
1
1
1
1
1
1
1
1
1
1
1
1
1
1
1
1
1
1
1
1
1
1
1
1
1
1
1
1
1
1
1
1
1
1
1
1
1
1
1
1
1
1
1
1
1
1
1
1
1
1
1
1
1
1
1
1
1
1
1
1
1
1
1
1
1
1
1
1
1
1
1
1
1
1
1
1
1
1
1
1
1
1
1
1
3.98081
10.6129
11.2053
11.2476
11.3036
11.3176
11.3456
11.3873
11.4139
11.4375
11.4492
11.45
11.4587
11.4751
11.4939
11.514
11.5587
11.6242
11.7088
11.7979
11.8604
11.8857
11.8872
11.8906
11.9248
12
12.072
12.1051
12.0778
12.0088
11.9435
11.9168
11.9373
12.0058
12.0665
12.0918
12.1155
12.0998
12.0848
12.114
12.2067
12.3419
12.4557
12.5104
12.489
12.4071
12.2995
12.1883
12.1082
12.0929
12.1526
12.268
12.3815
12.4594
12.4992
12.5073
12.4844
12.442
12.394
12.3624
12.3673
12.4013
12.4406
12.4556
12.4342
12.3974
12.3932
12.4073
12.4247
1
1
1
1
1
1
1
1
1
1
1
1
1
1
1
1
1
1
1
1
1
1
1
1
1
1
1
1
1
1
1
1
1
1
1
1
1
1
1
1
1
1
1
1
1
1
1
1
1
1
1
1
1
1
1
1
1
1
1
1
1
1
1
1
1
1
1
1
1
1
1
1
1
1
1
1
1
1
1
1
1
1
1
1
1
1
1
1
1
1
1
1
1
1
1
1
1
1
1
1
1
1
1
1
1
1
1
1
1
1
1
1
1
1
1
1
1
1
1
1
1
1
1
3.57196
10.3826
11.1984
11.2261
11.2741
11.2852
11.3291
11.3742
11.3987
11.4146
11.4206
11.419
11.4299
11.4582
11.4903
11.5293
11.5825
11.6456
11.7223
11.8035
11.8599
11.8812
11.8815
11.8847
11.9154
11.9842
12.0527
12.0852
12.0599
11.9917
11.9236
11.89
11.9031
11.9761
12.0544
12.1034
12.1322
12.1166
12.0906
12.1098
12.1926
12.3213
12.4349
12.4944
12.4775
12.3971
12.2885
12.1726
12.0845
12.0632
12.1257
12.2524
12.3785
12.4642
12.507
12.5144
12.4886
12.4419
12.388
12.3476
12.3421
12.3675
12.4036
12.4228
12.4112
12.3858
12.3937
12.411
12.4349
1
1
1
1
1
1
1
1
1
1
1
1
1
1
1
1
1
1
1
1
1
1
1
1
1
1
1
1
1
1
1
1
1
1
1
1
1
1
1
1
1
1
1
1
1
1
1
1
1
1
1
1
1
1
1
1
1
1
1
1
1
1
1
1
1
1
1
1
1
1
1
1
1
1
1
1
1
1
1
1
1
1
1
1
1
1
1
1
1
1
1
1
1
1
1
1
1
1
1
1
1
1
1
1
1
1
1
1
1
1
1
1
1
1
1
1
1
1
1
1
1
1
1
3.11027
10.0495
11.1999
11.2211
11.2498
11.2713
11.3209
11.359
11.3797
11.3865
11.3884
11.3902
11.4105
11.4511
11.4993
11.5538
11.6081
11.6644
11.73
11.8027
11.8538
11.8744
11.8766
11.8791
11.9053
11.9656
12.0296
12.0618
12.0403
11.9743
11.904
11.8627
11.8683
11.9486
12.0466
12.1168
12.1492
12.1321
12.0958
12.1048
12.1775
12.298
12.4114
12.4761
12.4641
12.3856
12.2764
12.1561
12.0606
12.0348
12.1003
12.2366
12.3743
12.4679
12.5139
12.5206
12.492
12.441
12.3814
12.3326
12.3165
12.3322
12.3643
12.3876
12.3871
12.3746
12.3947
12.4148
12.4445
1
1
1
1
1
1
1
1
1
1
1
1
1
1
1
1
1
1
1
1
1
1
1
1
1
1
1
1
1
1
1
1
1
1
1
1
1
1
1
1
1
1
1
1
1
1
1
1
1
1
1
1
1
1
1
1
1
1
1
1
1
1
1
1
1
1
1
1
1
1
1
1
1
1
1
1
1
1
1
1
1
1
1
1
1
1
1
1
1
1
1
1
1
1
1
1
1
1
1
1
1
1
1
1
1
1
1
1
1
1
1
1
1
1
1
1
1
1
1
1
1
1
1
2.62301
9.61093
11.2077
11.2199
11.2346
11.2717
11.3137
11.335
11.3505
11.3559
11.3594
11.3682
11.4018
11.4565
11.521
11.5813
11.6311
11.6767
11.7302
11.7946
11.8434
11.868
11.8736
11.873
11.8925
11.9425
12.0024
12.0359
12.0199
11.9572
11.8846
11.8347
11.8347
11.9253
12.0429
12.1301
12.1653
12.1459
12.1005
12.099
12.1612
12.2723
12.3854
12.4553
12.4485
12.3726
12.263
12.1391
12.0371
12.0079
12.0767
12.2207
12.3688
12.4702
12.5194
12.5255
12.4943
12.4392
12.3742
12.3173
12.2904
12.2956
12.3224
12.35
12.3625
12.3639
12.3958
12.4189
12.4531
1
1
1
1
1
1
1
1
1
1
1
1
1
1
1
1
1
1
1
1
1
1
1
1
1
1
1
1
1
1
1
1
1
1
1
1
1
1
1
1
1
1
1
1
1
1
1
1
1
1
1
1
1
1
1
1
1
1
1
1
1
1
1
1
1
1
1
1
1
1
1
1
1
1
1
1
1
1
1
1
1
1
1
1
1
1
1
1
1
1
1
1
1
1
1
1
1
1
1
1
1
1
1
1
1
1
1
1
1
1
1
1
1
1
1
1
1
1
1
1
1
1
1
2.13243
9.05946
11.2273
11.1985
11.2334
11.2638
11.2867
11.2998
11.3153
11.3287
11.3389
11.3592
11.406
11.4762
11.5484
11.6058
11.6469
11.6804
11.7227
11.7808
11.8316
11.8635
11.8721
11.8649
11.8751
11.9143
11.9714
12.0089
11.9996
11.9402
11.8646
11.8063
11.8051
11.9078
12.0424
12.1417
12.1801
12.1576
12.1051
12.0924
12.1435
12.2444
12.3569
12.4319
12.4309
12.3578
12.2483
12.1216
12.0144
11.9831
12.055
12.2047
12.3618
12.4705
12.523
12.5287
12.4952
12.4363
12.3661
12.3017
12.2639
12.2576
12.278
12.3107
12.3375
12.3537
12.3969
12.4224
12.461
1
1
1
1
1
1
1
1
1
1
1
1
1
1
1
1
1
1
1
1
1
1
1
1
1
1
1
1
1
1
1
1
1
1
1
1
1
1
1
1
1
1
1
1
1
1
1
1
1
1
1
1
1
1
1
1
1
1
1
1
1
1
1
1
1
1
1
1
1
1
1
1
1
1
1
1
1
1
1
1
1
1
1
1
1
1
1
1
1
1
1
1
1
1
1
1
1
1
1
1
1
1
1
1
1
1
1
1
1
1
1
1
1
1
1
1
1
1
1
1
1
1
1
1.66457
8.36712
11.2497
11.176
11.2044
11.2343
11.2434
11.2614
11.2874
11.3115
11.331
11.366
11.426
11.5029
11.5718
11.6219
11.653
11.6759
11.7093
11.765
11.8211
11.8601
11.8699
11.8533
11.8524
11.8816
11.9379
11.9817
11.9792
11.922
11.8432
11.7793
11.7827
11.897
12.0435
12.1507
12.1933
12.1665
12.11
12.0845
12.1238
12.2151
12.3263
12.4059
12.4109
12.3413
12.2322
12.1037
11.9933
11.9611
12.0358
12.1888
12.353
12.4685
12.524
12.5299
12.4947
12.4323
12.3572
12.2855
12.2371
12.2183
12.2318
12.27
12.3113
12.3443
12.3982
12.4254
12.468
1
1
1
1
1
1
1
1
1
1
1
1
1
1
1
1
1
1
1
1
1
1
1
1
1
1
1
1
1
1
1
1
1
1
1
1
1
1
1
1
1
1
1
1
1
1
1
1
1
1
1
1
1
1
1
1
1
1
1
1
1
1
1
1
1
1
1
1
1
1
1
1
1
1
1
1
1
1
1
1
1
1
1
1
1
1
1
1
1
1
1
1
1
1
1
1
1
1
1
1
1
1
1
1
1
1
1
1
1
1
1
1
1
1
1
1
1
1
1
1
1
1
1
1.25137
7.50282
11.1925
11.1677
11.1689
11.1939
11.2046
11.2335
11.2733
11.3076
11.3408
11.3897
11.4536
11.5243
11.5849
11.6268
11.6499
11.665
11.6948
11.7508
11.8125
11.8552
11.8633
11.8374
11.8258
11.8469
11.9033
11.9543
11.9576
11.9012
11.8195
11.7573
11.7695
11.8919
12.0447
12.1567
12.2029
12.1741
12.1141
12.0746
12.1023
12.1848
12.2934
12.377
12.3886
12.3232
12.215
12.0858
11.9745
11.9427
12.0186
12.1733
12.3423
12.4634
12.5222
12.5287
12.4922
12.4269
12.3473
12.2688
12.21
12.1779
12.1844
12.2283
12.2843
12.3352
12.3992
12.4278
12.4738
1
1
1
1
1
1
1
1
1
1
1
1
1
1
1
1
1
1
1
1
1
1
1
1
1
1
1
1
1
1
1
1
1
1
1
1
1
1
1
1
1
1
1
1
1
1
1
1
1
1
1
1
1
1
1
1
1
1
1
1
1
1
1
1
1
1
1
1
1
1
1
1
1
1
1
1
1
1
1
1
1
1
1
1
1
1
1
1
1
1
1
1
1
1
1
1
1
1
1
1
1
1
1
1
1
1
1
1
1
1
1
1
1
1
1
1
1
1
1
1
1
1
1
1.00879
6.67467
11.1606
11.1511
11.1431
11.1673
11.187
11.2277
11.2763
11.3196
11.3655
11.4189
11.4748
11.5328
11.5857
11.6212
11.6398
11.6527
11.6827
11.7394
11.8037
11.8456
11.8493
11.8169
11.7977
11.8132
11.869
11.9257
11.9333
11.8774
11.7939
11.7443
11.7666
11.8906
12.0442
12.1595
12.2087
12.1797
12.116
12.0639
12.08
12.1535
12.2583
12.345
12.3636
12.3032
12.1965
12.0681
11.9589
11.9283
12.0038
12.1577
12.3295
12.4553
12.5173
12.5246
12.4874
12.4199
12.3363
12.2514
12.1825
12.137
12.1363
12.1864
12.257
12.3256
12.3992
12.4293
12.4783
1
1
1
1
1
1
1
1
1
1
1
1
1
1
1
1
1
1
1
1
1
1
1
1
1
1
1
1
1
1
1
1
1
1
1
1
1
1
1
1
1
1
1
1
1
1
1
1
1
1
1
1
1
1
1
1
1
1
1
1
1
1
1
1
1
1
1
1
1
1
1
1
1
1
1
1
1
1
1
1
1
1
1
1
1
1
1
1
1
1
1
1
1
1
1
1
1
1
1
1
1
1
1
1
1
1
1
1
1
1
1
1
1
1
1
1
1
1
1
1
1
1
1
1.00003
5.92413
11.0519
11.1303
11.1412
11.1604
11.1917
11.2433
11.2924
11.3423
11.3904
11.4365
11.4822
11.5281
11.5759
11.6089
11.6275
11.6432
11.6738
11.7286
11.7913
11.8291
11.8281
11.793
11.7703
11.782
11.835
11.8939
11.9049
11.8515
11.7723
11.7428
11.7721
11.8902
12.0411
12.1585
12.2104
12.1821
12.1159
12.0532
12.057
12.1211
12.2207
12.3097
12.3354
12.2812
12.1766
12.0509
11.9473
11.9183
11.9913
12.1419
12.3145
12.4443
12.5094
12.5175
12.4801
12.4111
12.3242
12.2333
12.1548
12.0961
12.0882
12.1447
12.2297
12.3149
12.3978
12.4299
12.4812
1
1
1
1
1
1
1
1
1
1
1
1
1
1
1
1
1
1
1
1
1
1
1
1
1
1
1
1
1
1
1
1
1
1
1
1
1
1
1
1
1
1
1
1
1
1
1
1
1
1
1
1
1
1
1
1
1
1
1
1
1
1
1
1
1
1
1
1
1
1
1
1
1
1
1
1
1
1
1
1
1
1
1
1
1
1
1
1
1
1
1
1
1
1
1
1
1
1
1
1
1
1
1
1
1
1
1
1
1
1
1
1
1
1
1
1
1
1
1
1
1
1
1
1
5.24357
10.9117
11.1135
11.134
11.1723
11.214
11.2625
11.3079
11.3576
11.403
11.4381
11.4756
11.5152
11.5607
11.5954
11.6174
11.6367
11.6658
11.7147
11.7721
11.8053
11.8023
11.7686
11.7446
11.7524
11.8002
11.8578
11.8726
11.8249
11.7635
11.7511
11.7821
11.8887
12.0344
12.1529
12.2076
12.1814
12.1142
12.0432
12.0332
12.0874
12.1806
12.2708
12.3038
12.2568
12.1556
12.0348
11.9405
11.913
11.9806
12.1254
12.2969
12.4302
12.4981
12.5072
12.47
12.4003
12.3108
12.2144
12.1266
12.056
12.0413
12.1038
12.2025
12.3027
12.3941
12.4292
12.4824
1
1
1
1
1
1
1
1
1
1
1
1
1
1
1
1
1
1
1
1
1
1
1
1
1
1
1
1
1
1
1
1
1
1
1
1
1
1
1
1
1
1
1
1
1
1
1
1
1
1
1
1
1
1
1
1
1
1
1
1
1
1
1
1
1
1
1
1
1
1
1
1
1
1
1
1
1
1
1
1
1
1
1
1
1
1
1
1
1
1
1
1
1
1
1
1
1
1
1
1
1
1
1
1
1
1
1
1
1
1
1
1
1
1
1
1
1
1
1
1
1
1
1
1
4.60445
10.7116
11.0809
11.1184
11.1701
11.2216
11.2617
11.3098
11.3596
11.4021
11.4296
11.4608
11.4997
11.5455
11.5843
11.6102
11.6305
11.6546
11.6945
11.7452
11.7761
11.7759
11.7465
11.7203
11.7218
11.7616
11.8176
11.8387
11.8033
11.7713
11.7655
11.7939
11.885
12.023
12.1417
12.1999
12.1779
12.1116
12.0342
12.0086
12.0521
12.1385
12.2287
12.2686
12.2299
12.1337
12.0208
11.9392
11.9121
11.9715
12.1081
12.2764
12.4126
12.4836
12.4937
12.4569
12.3871
12.296
12.1947
12.0979
12.0172
11.9965
12.0641
12.1756
12.2884
12.3874
12.4266
12.4817
1
1
1
1
1
1
1
1
1
1
1
1
1
1
1
1
1
1
1
1
1
1
1
1
1
1
1
1
1
1
1
1
1
1
1
1
1
1
1
1
1
1
1
1
1
1
1
1
1
1
1
1
1
1
1
1
1
1
1
1
1
1
1
1
1
1
1
1
1
1
1
1
1
1
1
1
1
1
1
1
1
1
1
1
1
1
1
1
1
1
1
1
1
1
1
1
1
1
1
1
1
1
1
1
1
1
1
1
1
1
1
1
1
1
1
1
1
1
1
1
1
1
1
1
4.02076
10.4375
11.0404
11.0847
11.1526
11.2037
11.2471
11.3009
11.3525
11.388
11.4172
11.4455
11.4851
11.5328
11.5755
11.6033
11.6209
11.6372
11.6678
11.713
11.7452
11.7512
11.7269
11.6964
11.6883
11.7177
11.7747
11.8071
11.7948
11.7889
11.7846
11.805
11.8785
12.0059
12.1242
12.1867
12.1719
12.1081
12.0259
11.9835
12.0152
12.0944
12.1833
12.2297
12.2001
12.1118
12.01
11.9432
11.9153
11.9636
12.0896
12.2527
12.3913
12.4654
12.4771
12.441
12.3715
12.2795
12.1741
12.069
11.9799
11.9544
12.0263
12.1492
12.2719
12.3766
12.4216
12.4787
1
1
1
1
1
1
1
1
1
1
1
1
1
1
1
1
1
1
1
1
1
1
1
1
1
1
1
1
1
1
1
1
1
1
1
1
1
1
1
1
1
1
1
1
1
1
1
1
1
1
1
1
1
1
1
1
1
1
1
1
1
1
1
1
1
1
1
1
1
1
1
1
1
1
1
1
1
1
1
1
1
1
1
1
1
1
1
1
1
1
1
1
1
1
1
1
1
1
1
1
1
1
1
1
1
1
1
1
1
1
1
1
1
1
1
1
1
1
1
1
1
1
1
1
3.46587
10.0961
11.0025
11.0527
11.1277
11.1745
11.2341
11.2878
11.3398
11.371
11.4049
11.433
11.4727
11.5216
11.5657
11.5929
11.6054
11.6134
11.6369
11.6795
11.7157
11.7283
11.7068
11.6713
11.6522
11.6699
11.7322
11.7842
11.804
11.8123
11.803
11.813
11.8688
11.9828
12.1008
12.1688
12.1634
12.1037
12.0173
11.9585
11.977
12.048
12.135
12.1873
12.1674
12.091
12.0043
11.9513
11.9219
11.9567
12.0694
12.2256
12.3658
12.4432
12.4572
12.4223
12.3533
12.2611
12.1525
12.0401
11.9445
11.9158
11.9911
12.1231
12.2533
12.3622
12.4135
12.4721
1
1
1
1
1
1
1
1
1
1
1
1
1
1
1
1
1
1
1
1
1
1
1
1
1
1
1
1
1
1
1
1
1
1
1
1
1
1
1
1
1
1
1
1
1
1
1
1
1
1
1
1
1
1
1
1
1
1
1
1
1
1
1
1
1
1
1
1
1
1
1
1
1
1
1
1
1
1
1
1
1
1
1
1
1
1
1
1
1
1
1
1
1
1
1
1
1
1
1
1
1
1
1
1
1
1
1
1
1
1
1
1
1
1
1
1
1
1
1
1
1
1
1
1
2.85474
9.65937
11.0092
11.0552
11.117
11.1676
11.2224
11.2791
11.324
11.3609
11.3945
11.423
11.4608
11.5091
11.5517
11.5764
11.5838
11.5867
11.6058
11.6477
11.6884
11.7048
11.683
11.6436
11.6147
11.6235
11.697
11.7746
11.8242
11.8374
11.8189
11.8162
11.8552
11.9537
12.0723
12.147
12.1526
12.0977
12.0077
11.9338
11.9376
11.9993
12.0838
12.1416
12.1321
12.0724
12.0064
11.9613
11.9313
11.9505
12.0477
12.1951
12.3353
12.4166
12.4338
12.4008
12.3327
12.2405
12.1295
12.0111
11.9113
11.8816
11.959
12.097
12.2324
12.3445
12.4019
12.4612
1
1
1
1
1
1
1
1
1
1
1
1
1
1
1
1
1
1
1
1
1
1
1
1
1
1
1
1
1
1
1
1
1
1
1
1
1
1
1
1
1
1
1
1
1
1
1
1
1
1
1
1
1
1
1
1
1
1
1
1
1
1
1
1
1
1
1
1
1
1
1
1
1
1
1
1
1
1
1
1
1
1
1
1
1
1
1
1
1
1
1
1
1
1
1
1
1
1
1
1
1
1
1
1
1
1
1
1
1
1
1
1
1
1
1
1
1
1
1
1
1
1
1
1
2.20696
9.10257
11.0987
11.109
11.135
11.18
11.2303
11.2791
11.3126
11.3539
11.3845
11.4133
11.4472
11.4931
11.5328
11.5546
11.5595
11.5606
11.5766
11.6169
11.6604
11.6773
11.6543
11.6129
11.5791
11.5869
11.6761
11.7772
11.8452
11.8599
11.8325
11.8136
11.8371
11.9205
12.0403
12.1224
12.1394
12.0894
11.9958
11.9096
11.8973
11.9486
12.0294
12.0927
12.0954
12.058
12.014
11.9744
11.9417
11.9451
12.0248
12.1608
12.2995
12.3854
12.4068
12.3765
12.3097
12.2174
12.1045
11.9819
11.8809
11.8527
11.9301
12.0705
12.2089
12.3235
12.3863
12.446
1
1
1
1
1
1
1
1
1
1
1
1
1
1
1
1
1
1
1
1
1
1
1
1
1
1
1
1
1
1
1
1
1
1
1
1
1
1
1
1
1
1
1
1
1
1
1
1
1
1
1
1
1
1
1
1
1
1
1
1
1
1
1
1
1
1
1
1
1
1
1
1
1
1
1
1
1
1
1
1
1
1
1
1
1
1
1
1
1
1
1
1
1
1
1
1
1
1
1
1
1
1
1
1
1
1
1
1
1
1
1
1
1
1
1
1
1
1
1
1
1
1
1
1
1.58992
8.2711
11.1493
11.1634
11.1853
11.2164
11.2453
11.2695
11.307
11.3469
11.3758
11.4012
11.4314
11.4732
11.5107
11.5305
11.5356
11.5358
11.5488
11.5847
11.6276
11.6441
11.623
11.5823
11.5508
11.5679
11.6694
11.7856
11.8616
11.8765
11.8416
11.8062
11.8154
11.886
12.0058
12.0954
12.1234
12.0774
11.981
11.8858
11.8568
11.8961
11.972
12.041
12.0591
12.0495
12.0248
11.9901
11.9521
11.9401
12.0009
12.123
12.2586
12.3491
12.3758
12.3492
12.2842
12.1919
12.0773
11.9525
11.8541
11.8293
11.9039
12.0433
12.1829
12.2993
12.3666
12.4262
1
1
1
1
1
1
1
1
1
1
1
1
1
1
1
1
1
1
1
1
1
1
1
1
1
1
1
1
1
1
1
1
1
1
1
1
1
1
1
1
1
1
1
1
1
1
1
1
1
1
1
1
1
1
1
1
1
1
1
1
1
1
1
1
1
1
1
1
1
1
1
1
1
1
1
1
1
1
1
1
1
1
1
1
1
1
1
1
1
1
1
1
1
1
1
1
1
1
1
1
1
1
1
1
1
1
1
1
1
1
1
1
1
1
1
1
1
1
1
1
1
1
1
1
1.07252
7.15642
11.225
11.197
11.1941
11.2213
11.2415
11.268
11.3044
11.3388
11.3664
11.3873
11.4149
11.4508
11.4856
11.5059
11.5126
11.5106
11.5196
11.5484
11.5885
11.6067
11.5926
11.5587
11.5365
11.5656
11.671
11.792
11.8705
11.8851
11.8439
11.7957
11.7924
11.8521
11.9693
12.066
12.1034
12.0611
11.9634
11.8618
11.8176
11.8429
11.9111
11.9876
12.0259
12.047
12.0375
12.0063
11.9617
11.9354
11.9758
12.082
12.213
12.3081
12.341
12.3188
12.2561
12.1639
12.0483
11.9235
11.8312
11.8108
11.88
12.0153
12.1545
12.2719
12.3424
12.4017
1
1
1
1
1
1
1
1
1
1
1
1
1
1
1
1
1
1
1
1
1
1
1
1
1
1
1
1
1
1
1
1
1
1
1
1
1
1
1
1
1
1
1
1
1
1
1
1
1
1
1
1
1
1
1
1
1
1
1
1
1
1
1
1
1
1
1
1
1
1
1
1
1
1
1
1
1
1
1
1
1
1
1
1
1
1
1
1
1
1
1
1
1
1
1
1
1
1
1
1
1
1
1
1
1
1
1
1
1
1
1
1
1
1
1
1
1
1
1
1
1
1
1
1
1.00066
5.8825
11.1297
11.1866
11.1821
11.2177
11.2366
11.2648
11.2988
11.3295
11.3534
11.3722
11.3959
11.4274
11.4579
11.4801
11.488
11.4825
11.4859
11.5067
11.5461
11.5707
11.5679
11.5472
11.54
11.5741
11.6725
11.7917
11.8702
11.8851
11.8404
11.7834
11.7699
11.82
11.9312
12.0329
12.078
12.0406
11.9438
11.838
11.7796
11.7887
11.8468
11.9351
11.9988
12.0478
12.0507
12.0201
11.9704
11.9309
11.9494
12.038
12.1629
12.2622
12.302
12.2853
12.225
12.1329
12.0174
11.8959
11.8122
11.7963
11.8585
11.9868
12.1237
12.241
12.3135
12.3723
1
1
1
1
1
1
1
1
1
1
1
1
1
1
1
1
1
1
1
1
1
1
1
1
1
1
1
1
1
1
1
1
1