/*--------------------------------*- C++ -*----------------------------------*\
  =========                 |
  \\      /  F ield         | OpenFOAM: The Open Source CFD Toolbox
   \\    /   O peration     | Website:  https://openfoam.org
    \\  /    A nd           | Version:  7
     \\/     M anipulation  |
\*---------------------------------------------------------------------------*/
FoamFile
{
    version     2.0;
    format      ascii;
    class       volScalarField;
    location    "0.5";
    object      rho;
}
// * * * * * * * * * * * * * * * * * * * * * * * * * * * * * * * * * * * * * //

dimensions      [1 -3 0 0 0 0 0];

internalField   nonuniform List<scalar> 
258048
(
1.40001
1.40001
1.40001
1.40001
1.40001
1.40001
1.40001
1.40001
1.40001
1.40001
1.40001
1.40001
1.40001
1.40001
1.40001
1.40001
1.40001
1.40001
1.40001
1.40001
1.40001
1.40001
1.40001
1.40001
1.40001
1.40001
1.40001
1.40001
1.40001
1.40001
1.40001
1.40001
1.40001
1.40001
1.40001
1.40001
1.40001
1.40001
1.40001
1.40001
1.40001
1.40001
1.40001
1.40001
1.40001
1.40001
1.40001
1.40001
1.40001
1.40001
1.40001
1.40001
1.40001
1.40001
1.40001
1.40001
1.40001
1.40001
1.40001
1.40001
1.40001
1.40001
1.40001
1.40001
1.40001
1.40001
1.40001
1.40001
1.40001
1.40001
1.40001
1.40001
1.40001
1.40001
1.40001
1.40001
1.40001
1.40001
1.40001
1.40001
1.40001
1.40001
1.40001
1.40001
1.40001
1.40001
1.40001
1.40001
1.40001
1.40001
1.40001
1.40001
1.40001
1.40001
1.40001
1.40001
1.40001
1.40001
1.40001
1.40001
1.40001
1.40001
1.40001
1.40001
1.40001
1.40001
1.40001
1.40001
1.40001
1.40001
1.40001
1.40001
1.40001
1.40001
1.40001
1.40001
1.40001
1.40001
1.40001
1.40001
1.40001
1.40001
1.83778
4.80536
5.51684
5.48327
5.50632
5.56059
5.61283
5.65125
5.66986
5.67265
5.6745
5.6839
5.69683
5.70794
5.71345
5.71398
5.71126
5.70851
5.70559
5.7005
5.69033
5.6769
5.67644
5.68979
5.71277
5.75306
5.79305
5.81581
5.81722
5.79855
5.77467
5.76445
5.77232
5.78995
5.7995
5.78625
5.74779
5.69683
5.65744
5.64464
5.66209
5.70631
5.74519
5.76288
5.75146
5.71856
5.67206
5.62177
5.58024
5.55587
5.54366
5.52584
5.48273
5.40957
5.31778
5.22322
5.13893
5.07283
5.03002
5.01643
5.02163
5.03903
5.05768
5.06588
5.05458
5.02489
4.98558
4.94545
4.91955
4.90816
1.40001
1.40001
1.40001
1.40001
1.40001
1.40001
1.40001
1.40001
1.40001
1.40001
1.40001
1.40001
1.40001
1.40001
1.40001
1.40001
1.40001
1.40001
1.40001
1.40001
1.40001
1.40001
1.40001
1.40001
1.40001
1.40001
1.40001
1.40001
1.40001
1.40001
1.40001
1.40001
1.40001
1.40001
1.40001
1.40001
1.40001
1.40001
1.40001
1.40001
1.40001
1.40001
1.40001
1.40001
1.40001
1.40001
1.40001
1.40001
1.40001
1.40001
1.40001
1.40001
1.40001
1.40001
1.40001
1.40001
1.40001
1.40001
1.40001
1.40001
1.40001
1.40001
1.40001
1.40001
1.40001
1.40001
1.40001
1.40001
1.40001
1.40001
1.40001
1.40001
1.40001
1.40001
1.40001
1.40001
1.40001
1.40001
1.40001
1.40001
1.40001
1.40001
1.40001
1.40001
1.40001
1.40001
1.40001
1.40001
1.40001
1.40001
1.40001
1.40001
1.40001
1.40001
1.40001
1.40001
1.40001
1.40001
1.40001
1.40001
1.40001
1.40001
1.40001
1.40001
1.40001
1.40001
1.40001
1.40001
1.40001
1.40001
1.40001
1.40001
1.40001
1.40001
1.40001
1.40001
1.40001
1.40001
1.40001
1.40001
1.40001
1.40001
1.83125
4.79357
5.51386
5.48294
5.5081
5.56287
5.61224
5.64976
5.66843
5.67201
5.67461
5.68416
5.69692
5.70786
5.71318
5.71345
5.71047
5.70744
5.70441
5.69947
5.68971
5.67681
5.67692
5.69058
5.71362
5.75356
5.79333
5.81581
5.81687
5.7982
5.77441
5.76427
5.77209
5.7896
5.79906
5.78574
5.74731
5.69652
5.65739
5.64475
5.66227
5.70647
5.74523
5.76288
5.75147
5.71854
5.67199
5.62165
5.58006
5.55561
5.54317
5.52497
5.4814
5.40792
5.3161
5.22232
5.138
5.0722
5.03012
5.0162
5.02127
5.0386
5.05721
5.06538
5.05413
5.02453
4.98532
4.94517
4.91969
4.9082
1.40001
1.40001
1.40001
1.40001
1.40001
1.40001
1.40001
1.40001
1.40001
1.40001
1.40001
1.40001
1.40001
1.40001
1.40001
1.40001
1.40001
1.40001
1.40001
1.40001
1.40001
1.40001
1.40001
1.40001
1.40001
1.40001
1.40001
1.40001
1.40001
1.40001
1.40001
1.40001
1.40001
1.40001
1.40001
1.40001
1.40001
1.40001
1.40001
1.40001
1.40001
1.40001
1.40001
1.40001
1.40001
1.40001
1.40001
1.40001
1.40001
1.40001
1.40001
1.40001
1.40001
1.40001
1.40001
1.40001
1.40001
1.40001
1.40001
1.40001
1.40001
1.40001
1.40001
1.40001
1.40001
1.40001
1.40001
1.40001
1.40001
1.40001
1.40001
1.40001
1.40001
1.40001
1.40001
1.40001
1.40001
1.40001
1.40001
1.40001
1.40001
1.40001
1.40001
1.40001
1.40001
1.40001
1.40001
1.40001
1.40001
1.40001
1.40001
1.40001
1.40001
1.40001
1.40001
1.40001
1.40001
1.40001
1.40001
1.40001
1.40001
1.40001
1.40001
1.40001
1.40001
1.40001
1.40001
1.40001
1.40001
1.40001
1.40001
1.40001
1.40001
1.40001
1.40001
1.40001
1.40001
1.40001
1.40001
1.40001
1.40001
1.40001
1.81702
4.77337
5.51015
5.48365
5.51175
5.56652
5.61228
5.64803
5.66583
5.67025
5.67419
5.68435
5.69706
5.70777
5.71277
5.71267
5.70929
5.70584
5.70262
5.69787
5.68868
5.6764
5.67763
5.69174
5.71465
5.75424
5.79371
5.81576
5.81631
5.79758
5.77388
5.76379
5.77151
5.78892
5.79832
5.7849
5.74643
5.69582
5.65701
5.64458
5.66224
5.70646
5.74515
5.7628
5.75141
5.71836
5.67164
5.62113
5.57934
5.55467
5.54182
5.52293
5.47856
5.40448
5.31246
5.21955
5.13563
5.07062
5.02973
5.01559
5.02057
5.03784
5.05644
5.06464
5.05346
5.02396
4.9848
4.94457
4.91974
4.90812
1.40001
1.40001
1.40001
1.40001
1.40001
1.40001
1.40001
1.40001
1.40001
1.40001
1.40001
1.40001
1.40001
1.40001
1.40001
1.40001
1.40001
1.40001
1.40001
1.40001
1.40001
1.40001
1.40001
1.40001
1.40001
1.40001
1.40001
1.40001
1.40001
1.40001
1.40001
1.40001
1.40001
1.40001
1.40001
1.40001
1.40001
1.40001
1.40001
1.40001
1.40001
1.40001
1.40001
1.40001
1.40001
1.40001
1.40001
1.40001
1.40001
1.40001
1.40001
1.40001
1.40001
1.40001
1.40001
1.40001
1.40001
1.40001
1.40001
1.40001
1.40001
1.40001
1.40001
1.40001
1.40001
1.40001
1.40001
1.40001
1.40001
1.40001
1.40001
1.40001
1.40001
1.40001
1.40001
1.40001
1.40001
1.40001
1.40001
1.40001
1.40001
1.40001
1.40001
1.40001
1.40001
1.40001
1.40001
1.40001
1.40001
1.40001
1.40001
1.40001
1.40001
1.40001
1.40001
1.40001
1.40001
1.40001
1.40001
1.40001
1.40001
1.40001
1.40001
1.40001
1.40001
1.40001
1.40001
1.40001
1.40001
1.40001
1.40001
1.40001
1.40001
1.40001
1.40001
1.40001
1.40001
1.40001
1.40001
1.40001
1.40001
1.40001
1.79329
4.74277
5.50861
5.48688
5.51717
5.5704
5.61242
5.6464
5.66313
5.66847
5.67385
5.68461
5.69714
5.7074
5.71189
5.71127
5.70735
5.70338
5.69995
5.6955
5.68721
5.67583
5.67887
5.69352
5.71628
5.75537
5.79428
5.81555
5.81542
5.79669
5.77314
5.7631
5.77066
5.78787
5.79721
5.78369
5.74518
5.69489
5.65661
5.64452
5.66236
5.70666
5.74526
5.76288
5.7515
5.71827
5.67137
5.62065
5.57859
5.55359
5.54018
5.52041
5.47499
5.40014
5.30786
5.21573
5.13257
5.06866
5.02903
5.01472
5.01959
5.03668
5.05522
5.06346
5.0524
5.02307
4.98404
4.94387
4.91983
4.9081
1.40001
1.40001
1.40001
1.40001
1.40001
1.40001
1.40001
1.40001
1.40001
1.40001
1.40001
1.40001
1.40001
1.40001
1.40001
1.40001
1.40001
1.40001
1.40001
1.40001
1.40001
1.40001
1.40001
1.40001
1.40001
1.40001
1.40001
1.40001
1.40001
1.40001
1.40001
1.40001
1.40001
1.40001
1.40001
1.40001
1.40001
1.40001
1.40001
1.40001
1.40001
1.40001
1.40001
1.40001
1.40001
1.40001
1.40001
1.40001
1.40001
1.40001
1.40001
1.40001
1.40001
1.40001
1.40001
1.40001
1.40001
1.40001
1.40001
1.40001
1.40001
1.40001
1.40001
1.40001
1.40001
1.40001
1.40001
1.40001
1.40001
1.40001
1.40001
1.40001
1.40001
1.40001
1.40001
1.40001
1.40001
1.40001
1.40001
1.40001
1.40001
1.40001
1.40001
1.40001
1.40001
1.40001
1.40001
1.40001
1.40001
1.40001
1.40001
1.40001
1.40001
1.40001
1.40001
1.40001
1.40001
1.40001
1.40001
1.40001
1.40001
1.40001
1.40001
1.40001
1.40001
1.40001
1.40001
1.40001
1.40001
1.40001
1.40001
1.40001
1.40001
1.40001
1.40001
1.40001
1.40001
1.40001
1.40001
1.40001
1.40001
1.40001
1.75984
4.70133
5.50826
5.49143
5.52428
5.57561
5.61435
5.64501
5.66045
5.66676
5.67349
5.68479
5.69708
5.70677
5.71074
5.7096
5.70506
5.70048
5.6967
5.69253
5.68532
5.67524
5.68065
5.69584
5.71851
5.75678
5.79489
5.81531
5.81441
5.79566
5.77231
5.76227
5.76957
5.78651
5.79581
5.78218
5.74368
5.69376
5.65621
5.6446
5.66257
5.70696
5.7455
5.76314
5.75177
5.71831
5.67115
5.62015
5.57767
5.55219
5.53815
5.51769
5.47176
5.39647
5.30417
5.21257
5.13019
5.06718
5.02838
5.01384
5.01849
5.03524
5.05365
5.06195
5.05103
5.02189
4.98308
4.94314
4.91988
4.90815
1.40001
1.40001
1.40001
1.40001
1.40001
1.40001
1.40001
1.40001
1.40001
1.40001
1.40001
1.40001
1.40001
1.40001
1.40001
1.40001
1.40001
1.40001
1.40001
1.40001
1.40001
1.40001
1.40001
1.40001
1.40001
1.40001
1.40001
1.40001
1.40001
1.40001
1.40001
1.40001
1.40001
1.40001
1.40001
1.40001
1.40001
1.40001
1.40001
1.40001
1.40001
1.40001
1.40001
1.40001
1.40001
1.40001
1.40001
1.40001
1.40001
1.40001
1.40001
1.40001
1.40001
1.40001
1.40001
1.40001
1.40001
1.40001
1.40001
1.40001
1.40001
1.40001
1.40001
1.40001
1.40001
1.40001
1.40001
1.40001
1.40001
1.40001
1.40001
1.40001
1.40001
1.40001
1.40001
1.40001
1.40001
1.40001
1.40001
1.40001
1.40001
1.40001
1.40001
1.40001
1.40001
1.40001
1.40001
1.40001
1.40001
1.40001
1.40001
1.40001
1.40001
1.40001
1.40001
1.40001
1.40001
1.40001
1.40001
1.40001
1.40001
1.40001
1.40001
1.40001
1.40001
1.40001
1.40001
1.40001
1.40001
1.40001
1.40001
1.40001
1.40001
1.40001
1.40001
1.40001
1.40001
1.40001
1.40001
1.40001
1.40001
1.40001
1.71798
4.64725
5.50829
5.49672
5.53297
5.5819
5.61686
5.64418
5.65857
5.66572
5.67354
5.6851
5.69679
5.70565
5.70903
5.70744
5.70233
5.69699
5.69278
5.68896
5.6831
5.67507
5.68313
5.69886
5.72136
5.75838
5.79534
5.8148
5.81315
5.79452
5.77139
5.76126
5.76815
5.78469
5.79395
5.78027
5.74186
5.69238
5.65586
5.64487
5.66284
5.7073
5.74588
5.76361
5.75225
5.71852
5.67103
5.61964
5.5766
5.55048
5.53578
5.51486
5.46888
5.39392
5.30213
5.21103
5.12918
5.0666
5.02802
5.01311
5.01736
5.03355
5.05176
5.06012
5.04938
5.02045
4.98192
4.94244
4.91995
4.90832
1.40001
1.40001
1.40001
1.40001
1.40001
1.40001
1.40001
1.40001
1.40001
1.40001
1.40001
1.40001
1.40001
1.40001
1.40001
1.40001
1.40001
1.40001
1.40001
1.40001
1.40001
1.40001
1.40001
1.40001
1.40001
1.40001
1.40001
1.40001
1.40001
1.40001
1.40001
1.40001
1.40001
1.40001
1.40001
1.40001
1.40001
1.40001
1.40001
1.40001
1.40001
1.40001
1.40001
1.40001
1.40001
1.40001
1.40001
1.40001
1.40001
1.40001
1.40001
1.40001
1.40001
1.40001
1.40001
1.40001
1.40001
1.40001
1.40001
1.40001
1.40001
1.40001
1.40001
1.40001
1.40001
1.40001
1.40001
1.40001
1.40001
1.40001
1.40001
1.40001
1.40001
1.40001
1.40001
1.40001
1.40001
1.40001
1.40001
1.40001
1.40001
1.40001
1.40001
1.40001
1.40001
1.40001
1.40001
1.40001
1.40001
1.40001
1.40001
1.40001
1.40001
1.40001
1.40001
1.40001
1.40001
1.40001
1.40001
1.40001
1.40001
1.40001
1.40001
1.40001
1.40001
1.40001
1.40001
1.40001
1.40001
1.40001
1.40001
1.40001
1.40001
1.40001
1.40001
1.40001
1.40001
1.40001
1.40001
1.40001
1.40001
1.40001
1.66982
4.57837
5.50814
5.5047
5.54509
5.58922
5.61968
5.64401
5.65733
5.66513
5.67377
5.68521
5.69595
5.70395
5.70682
5.70498
5.69934
5.69304
5.68823
5.68489
5.68064
5.67574
5.68642
5.70257
5.72455
5.75994
5.79556
5.81399
5.81178
5.79345
5.77051
5.7601
5.7664
5.78238
5.79162
5.77797
5.73974
5.69084
5.65563
5.64537
5.66318
5.70772
5.74642
5.76431
5.75296
5.71896
5.6711
5.61928
5.57557
5.54867
5.53329
5.51201
5.46622
5.39221
5.30165
5.21117
5.12965
5.06708
5.02813
5.01263
5.01623
5.03162
5.04953
5.05796
5.04742
5.01872
4.98054
4.94168
4.92005
4.90861
1.40001
1.40001
1.40001
1.40001
1.40001
1.40001
1.40001
1.40001
1.40001
1.40001
1.40001
1.40001
1.40001
1.40001
1.40001
1.40001
1.40001
1.40001
1.40001
1.40001
1.40001
1.40001
1.40001
1.40001
1.40001
1.40001
1.40001
1.40001
1.40001
1.40001
1.40001
1.40001
1.40001
1.40001
1.40001
1.40001
1.40001
1.40001
1.40001
1.40001
1.40001
1.40001
1.40001
1.40001
1.40001
1.40001
1.40001
1.40001
1.40001
1.40001
1.40001
1.40001
1.40001
1.40001
1.40001
1.40001
1.40001
1.40001
1.40001
1.40001
1.40001
1.40001
1.40001
1.40001
1.40001
1.40001
1.40001
1.40001
1.40001
1.40001
1.40001
1.40001
1.40001
1.40001
1.40001
1.40001
1.40001
1.40001
1.40001
1.40001
1.40001
1.40001
1.40001
1.40001
1.40001
1.40001
1.40001
1.40001
1.40001
1.40001
1.40001
1.40001
1.40001
1.40001
1.40001
1.40001
1.40001
1.40001
1.40001
1.40001
1.40001
1.40001
1.40001
1.40001
1.40001
1.40001
1.40001
1.40001
1.40001
1.40001
1.40001
1.40001
1.40001
1.40001
1.40001
1.40001
1.40001
1.40001
1.40001
1.40001
1.40001
1.40001
1.61746
4.49458
5.50835
5.51765
5.55919
5.59568
5.62179
5.64406
5.65649
5.66488
5.67409
5.68504
5.69447
5.70161
5.7041
5.70212
5.69599
5.68845
5.68295
5.68046
5.67817
5.67776
5.69059
5.70679
5.7278
5.76122
5.79533
5.81281
5.81032
5.79251
5.76967
5.75873
5.76418
5.77945
5.78872
5.7752
5.7373
5.68919
5.65558
5.64614
5.66364
5.70813
5.74691
5.76499
5.75367
5.71944
5.67121
5.61894
5.57446
5.54667
5.5306
5.50919
5.46411
5.39139
5.30225
5.2125
5.1314
5.06859
5.02871
5.01232
5.015
5.02936
5.04688
5.0554
5.0451
5.0167
4.97893
4.94088
4.92023
4.90909
1.40001
1.40001
1.40001
1.40001
1.40001
1.40001
1.40001
1.40001
1.40001
1.40001
1.40001
1.40001
1.40001
1.40001
1.40001
1.40001
1.40001
1.40001
1.40001
1.40001
1.40001
1.40001
1.40001
1.40001
1.40001
1.40001
1.40001
1.40001
1.40001
1.40001
1.40001
1.40001
1.40001
1.40001
1.40001
1.40001
1.40001
1.40001
1.40001
1.40001
1.40001
1.40001
1.40001
1.40001
1.40001
1.40001
1.40001
1.40001
1.40001
1.40001
1.40001
1.40001
1.40001
1.40001
1.40001
1.40001
1.40001
1.40001
1.40001
1.40001
1.40001
1.40001
1.40001
1.40001
1.40001
1.40001
1.40001
1.40001
1.40001
1.40001
1.40001
1.40001
1.40001
1.40001
1.40001
1.40001
1.40001
1.40001
1.40001
1.40001
1.40001
1.40001
1.40001
1.40001
1.40001
1.40001
1.40001
1.40001
1.40001
1.40001
1.40001
1.40001
1.40001
1.40001
1.40001
1.40001
1.40001
1.40001
1.40001
1.40001
1.40001
1.40001
1.40001
1.40001
1.40001
1.40001
1.40001
1.40001
1.40001
1.40001
1.40001
1.40001
1.40001
1.40001
1.40001
1.40001
1.40001
1.40001
1.40001
1.40001
1.40001
1.40001
1.56288
4.39768
5.51191
5.53547
5.57109
5.59979
5.62321
5.64436
5.6558
5.6647
5.67423
5.68416
5.69202
5.69849
5.70085
5.69889
5.69229
5.68327
5.67703
5.67586
5.67621
5.68136
5.69555
5.71117
5.73087
5.76204
5.79461
5.81135
5.8089
5.79173
5.76886
5.75709
5.76146
5.77589
5.78524
5.772
5.73458
5.68754
5.65581
5.64726
5.66431
5.70853
5.74724
5.76549
5.75427
5.71987
5.67129
5.61851
5.57316
5.54431
5.52753
5.50619
5.46225
5.39138
5.30389
5.2149
5.13412
5.07083
5.02973
5.01221
5.01367
5.02678
5.04381
5.05243
5.04243
5.01439
4.97714
4.94007
4.92054
4.90979
1.40001
1.40001
1.40001
1.40001
1.40001
1.40001
1.40001
1.40001
1.40001
1.40001
1.40001
1.40001
1.40001
1.40001
1.40001
1.40001
1.40001
1.40001
1.40001
1.40001
1.40001
1.40001
1.40001
1.40001
1.40001
1.40001
1.40001
1.40001
1.40001
1.40001
1.40001
1.40001
1.40001
1.40001
1.40001
1.40001
1.40001
1.40001
1.40001
1.40001
1.40001
1.40001
1.40001
1.40001
1.40001
1.40001
1.40001
1.40001
1.40001
1.40001
1.40001
1.40001
1.40001
1.40001
1.40001
1.40001
1.40001
1.40001
1.40001
1.40001
1.40001
1.40001
1.40001
1.40001
1.40001
1.40001
1.40001
1.40001
1.40001
1.40001
1.40001
1.40001
1.40001
1.40001
1.40001
1.40001
1.40001
1.40001
1.40001
1.40001
1.40001
1.40001
1.40001
1.40001
1.40001
1.40001
1.40001
1.40001
1.40001
1.40001
1.40001
1.40001
1.40001
1.40001
1.40001
1.40001
1.40001
1.40001
1.40001
1.40001
1.40001
1.40001
1.40001
1.40001
1.40001
1.40001
1.40001
1.40001
1.40001
1.40001
1.40001
1.40001
1.40001
1.40001
1.40001
1.40001
1.40001
1.40001
1.40001
1.40001
1.40001
1.40001
1.50775
4.29077
5.52198
5.55407
5.57725
5.60178
5.62449
5.64482
5.65495
5.66431
5.67387
5.68225
5.68846
5.69456
5.69713
5.69523
5.68809
5.6776
5.67052
5.67122
5.67537
5.68607
5.70125
5.71564
5.73354
5.76234
5.79345
5.80969
5.80755
5.79108
5.76803
5.75513
5.75817
5.7717
5.78117
5.76839
5.73166
5.68601
5.65637
5.64872
5.66525
5.70893
5.74736
5.76571
5.75466
5.72024
5.67133
5.61799
5.57159
5.54149
5.52392
5.50289
5.46058
5.39213
5.30691
5.2188
5.13798
5.07383
5.03128
5.01227
5.01212
5.02388
5.04026
5.04901
5.03937
5.01179
4.97516
4.93926
4.92099
4.91075
1.40001
1.40001
1.40001
1.40001
1.40001
1.40001
1.40001
1.40001
1.40001
1.40001
1.40001
1.40001
1.40001
1.40001
1.40001
1.40001
1.40001
1.40001
1.40001
1.40001
1.40001
1.40001
1.40001
1.40001
1.40001
1.40001
1.40001
1.40001
1.40001
1.40001
1.40001
1.40001
1.40001
1.40001
1.40001
1.40001
1.40001
1.40001
1.40001
1.40001
1.40001
1.40001
1.40001
1.40001
1.40001
1.40001
1.40001
1.40001
1.40001
1.40001
1.40001
1.40001
1.40001
1.40001
1.40001
1.40001
1.40001
1.40001
1.40001
1.40001
1.40001
1.40001
1.40001
1.40001
1.40001
1.40001
1.40001
1.40001
1.40001
1.40001
1.40001
1.40001
1.40001
1.40001
1.40001
1.40001
1.40001
1.40001
1.40001
1.40001
1.40001
1.40001
1.40001
1.40001
1.40001
1.40001
1.40001
1.40001
1.40001
1.40001
1.40001
1.40001
1.40001
1.40001
1.40001
1.40001
1.40001
1.40001
1.40001
1.40001
1.40001
1.40001
1.40001
1.40001
1.40001
1.40001
1.40001
1.40001
1.40001
1.40001
1.40001
1.40001
1.40001
1.40001
1.40001
1.40001
1.40001
1.40001
1.40001
1.40001
1.40001
1.40001
1.45324
4.17936
5.54055
5.56183
5.57936
5.60314
5.62595
5.64512
5.65375
5.66345
5.67265
5.67905
5.68379
5.68988
5.69297
5.69108
5.68319
5.67143
5.66391
5.66706
5.67599
5.69154
5.70739
5.71999
5.73568
5.76213
5.79192
5.80791
5.80631
5.79049
5.76712
5.75281
5.75432
5.76689
5.77648
5.76438
5.72867
5.68481
5.65742
5.65057
5.66646
5.70922
5.74721
5.7656
5.75484
5.72054
5.67135
5.61739
5.56977
5.53816
5.51964
5.49907
5.45892
5.39353
5.31115
5.22414
5.14311
5.07769
5.03332
5.01245
5.0103
5.02058
5.03622
5.0451
5.03592
5.0089
4.97299
4.93846
4.9216
4.91197
1.40001
1.40001
1.40001
1.40001
1.40001
1.40001
1.40001
1.40001
1.40001
1.40001
1.40001
1.40001
1.40001
1.40001
1.40001
1.40001
1.40001
1.40001
1.40001
1.40001
1.40001
1.40001
1.40001
1.40001
1.40001
1.40001
1.40001
1.40001
1.40001
1.40001
1.40001
1.40001
1.40001
1.40001
1.40001
1.40001
1.40001
1.40001
1.40001
1.40001
1.40001
1.40001
1.40001
1.40001
1.40001
1.40001
1.40001
1.40001
1.40001
1.40001
1.40001
1.40001
1.40001
1.40001
1.40001
1.40001
1.40001
1.40001
1.40001
1.40001
1.40001
1.40001
1.40001
1.40001
1.40001
1.40001
1.40001
1.40001
1.40001
1.40001
1.40001
1.40001
1.40001
1.40001
1.40001
1.40001
1.40001
1.40001
1.40001
1.40001
1.40001
1.40001
1.40001
1.40001
1.40001
1.40001
1.40001
1.40001
1.40001
1.40001
1.40001
1.40001
1.40001
1.40001
1.40001
1.40001
1.40001
1.40001
1.40001
1.40001
1.40001
1.40001
1.40001
1.40001
1.40001
1.40001
1.40001
1.40001
1.40001
1.40001
1.40001
1.40001
1.40001
1.40001
1.40001
1.40001
1.40001
1.40001
1.40001
1.40001
1.40001
1.40001
1.40788
4.07693
5.53856
5.56153
5.58132
5.6049
5.62738
5.64496
5.65215
5.6619
5.67022
5.67441
5.67819
5.68465
5.68845
5.68638
5.67741
5.66474
5.65776
5.66395
5.67835
5.69763
5.71333
5.72402
5.73733
5.76144
5.79006
5.80605
5.80517
5.78987
5.76608
5.7501
5.74987
5.76148
5.77113
5.76001
5.72574
5.6842
5.65907
5.65286
5.66791
5.70928
5.74672
5.76513
5.75479
5.72077
5.67138
5.61676
5.56773
5.53431
5.51463
5.49458
5.45709
5.39535
5.31615
5.23053
5.14916
5.08219
5.03578
5.01258
5.00817
5.01687
5.03162
5.04065
5.03205
5.00573
4.97066
4.93772
4.92235
4.91346
1.40001
1.40001
1.40001
1.40001
1.40001
1.40001
1.40001
1.40001
1.40001
1.40001
1.40001
1.40001
1.40001
1.40001
1.40001
1.40001
1.40001
1.40001
1.40001
1.40001
1.40001
1.40001
1.40001
1.40001
1.40001
1.40001
1.40001
1.40001
1.40001
1.40001
1.40001
1.40001
1.40001
1.40001
1.40001
1.40001
1.40001
1.40001
1.40001
1.40001
1.40001
1.40001
1.40001
1.40001
1.40001
1.40001
1.40001
1.40001
1.40001
1.40001
1.40001
1.40001
1.40001
1.40001
1.40001
1.40001
1.40001
1.40001
1.40001
1.40001
1.40001
1.40001
1.40001
1.40001
1.40001
1.40001
1.40001
1.40001
1.40001
1.40001
1.40001
1.40001
1.40001
1.40001
1.40001
1.40001
1.40001
1.40001
1.40001
1.40001
1.40001
1.40001
1.40001
1.40001
1.40001
1.40001
1.40001
1.40001
1.40001
1.40001
1.40001
1.40001
1.40001
1.40001
1.40001
1.40001
1.40001
1.40001
1.40001
1.40001
1.40001
1.40001
1.40001
1.40001
1.40001
1.40001
1.40001
1.40001
1.40001
1.40001
1.40001
1.40001
1.40001
1.40001
1.40001
1.40001
1.40001
1.40001
1.40001
1.40001
1.40001
1.40001
1.40002
3.95081
5.51146
5.56039
5.58422
5.60691
5.62839
5.64394
5.65019
5.65945
5.66611
5.66844
5.67204
5.67915
5.68363
5.68105
5.67063
5.65769
5.65253
5.66233
5.6824
5.70395
5.71876
5.72768
5.73855
5.7603
5.78786
5.80412
5.80406
5.78913
5.7648
5.74701
5.74486
5.75537
5.7651
5.75529
5.72293
5.68455
5.66132
5.65571
5.66964
5.70901
5.74581
5.76429
5.75451
5.72093
5.67142
5.61613
5.56555
5.53003
5.50892
5.48939
5.45496
5.39736
5.32164
5.23754
5.15576
5.08717
5.03859
5.01256
5.00577
5.01271
5.02643
5.03561
5.02773
5.00229
4.96818
4.93706
4.92323
4.91518
1.40001
1.40001
1.40001
1.40001
1.40001
1.40001
1.40001
1.40001
1.40001
1.40001
1.40001
1.40001
1.40001
1.40001
1.40001
1.40001
1.40001
1.40001
1.40001
1.40001
1.40001
1.40001
1.40001
1.40001
1.40001
1.40001
1.40001
1.40001
1.40001
1.40001
1.40001
1.40001
1.40001
1.40001
1.40001
1.40001
1.40001
1.40001
1.40001
1.40001
1.40001
1.40001
1.40001
1.40001
1.40001
1.40001
1.40001
1.40001
1.40001
1.40001
1.40001
1.40001
1.40001
1.40001
1.40001
1.40001
1.40001
1.40001
1.40001
1.40001
1.40001
1.40001
1.40001
1.40001
1.40001
1.40001
1.40001
1.40001
1.40001
1.40001
1.40001
1.40001
1.40001
1.40001
1.40001
1.40001
1.40001
1.40001
1.40001
1.40001
1.40001
1.40001
1.40001
1.40001
1.40001
1.40001
1.40001
1.40001
1.40001
1.40001
1.40001
1.40001
1.40001
1.40001
1.40001
1.40001
1.40001
1.40001
1.40001
1.40001
1.40001
1.40001
1.40001
1.40001
1.40001
1.40001
1.40001
1.40001
1.40001
1.40001
1.40001
1.40001
1.40001
1.40001
1.40001
1.40001
1.40001
1.40001
1.40001
1.40001
1.40001
1.40001
1.40001
3.80709
5.48028
5.55996
5.58709
5.6089
5.62893
5.64181
5.64775
5.65568
5.65989
5.66154
5.66589
5.67372
5.67846
5.6749
5.66294
5.65054
5.64866
5.6626
5.68761
5.71017
5.72382
5.73102
5.73933
5.75869
5.78534
5.80207
5.80289
5.7882
5.76322
5.74351
5.73925
5.74857
5.75848
5.75028
5.72012
5.68635
5.66411
5.65908
5.67154
5.70839
5.74445
5.76304
5.75398
5.72101
5.67147
5.61554
5.56327
5.5254
5.50262
5.48359
5.4525
5.39944
5.3274
5.24487
5.16272
5.09243
5.04161
5.01253
5.00313
5.00808
5.02061
5.02993
5.02293
4.99858
4.96558
4.93651
4.9242
4.91711
1.40001
1.40001
1.40001
1.40001
1.40001
1.40001
1.40001
1.40001
1.40001
1.40001
1.40001
1.40001
1.40001
1.40001
1.40001
1.40001
1.40001
1.40001
1.40001
1.40001
1.40001
1.40001
1.40001
1.40001
1.40001
1.40001
1.40001
1.40001
1.40001
1.40001
1.40001
1.40001
1.40001
1.40001
1.40001
1.40001
1.40001
1.40001
1.40001
1.40001
1.40001
1.40001
1.40001
1.40001
1.40001
1.40001
1.40001
1.40001
1.40001
1.40001
1.40001
1.40001
1.40001
1.40001
1.40001
1.40001
1.40001
1.40001
1.40001
1.40001
1.40001
1.40001
1.40001
1.40001
1.40001
1.40001
1.40001
1.40001
1.40001
1.40001
1.40001
1.40001
1.40001
1.40001
1.40001
1.40001
1.40001
1.40001
1.40001
1.40001
1.40001
1.40001
1.40001
1.40001
1.40001
1.40001
1.40001
1.40001
1.40001
1.40001
1.40001
1.40001
1.40001
1.40001
1.40001
1.40001
1.40001
1.40001
1.40001
1.40001
1.40001
1.40001
1.40001
1.40001
1.40001
1.40001
1.40001
1.40001
1.40001
1.40001
1.40001
1.40001
1.40001
1.40001
1.40001
1.40001
1.40001
1.40001
1.40001
1.40001
1.40001
1.40001
1.40001
3.65503
5.45057
5.56053
5.58877
5.61092
5.62941
5.63863
5.64389
5.64971
5.65183
5.65442
5.66048
5.66854
5.67247
5.6675
5.65498
5.64381
5.64625
5.66524
5.69345
5.71613
5.72858
5.73402
5.73965
5.75661
5.78248
5.79984
5.80158
5.78699
5.76122
5.73953
5.73305
5.7411
5.75133
5.74512
5.71741
5.68936
5.6679
5.66278
5.67349
5.70738
5.74265
5.76136
5.75313
5.72092
5.67148
5.61496
5.56095
5.52051
5.49588
5.47733
5.44982
5.40155
5.33332
5.25237
5.16989
5.09786
5.04474
5.01251
5.00023
5.00295
5.01418
5.02359
5.01761
4.99457
4.96287
4.93606
4.92523
4.91924
1.40001
1.40001
1.40001
1.40001
1.40001
1.40001
1.40001
1.40001
1.40001
1.40001
1.40001
1.40001
1.40001
1.40001
1.40001
1.40001
1.40001
1.40001
1.40001
1.40001
1.40001
1.40001
1.40001
1.40001
1.40001
1.40001
1.40001
1.40001
1.40001
1.40001
1.40001
1.40001
1.40001
1.40001
1.40001
1.40001
1.40001
1.40001
1.40001
1.40001
1.40001
1.40001
1.40001
1.40001
1.40001
1.40001
1.40001
1.40001
1.40001
1.40001
1.40001
1.40001
1.40001
1.40001
1.40001
1.40001
1.40001
1.40001
1.40001
1.40001
1.40001
1.40001
1.40001
1.40001
1.40001
1.40001
1.40001
1.40001
1.40001
1.40001
1.40001
1.40001
1.40001
1.40001
1.40001
1.40001
1.40001
1.40001
1.40001
1.40001
1.40001
1.40001
1.40001
1.40001
1.40001
1.40001
1.40001
1.40001
1.40001
1.40001
1.40001
1.40001
1.40001
1.40001
1.40001
1.40001
1.40001
1.40001
1.40001
1.40001
1.40001
1.40001
1.40001
1.40001
1.40001
1.40001
1.40001
1.40001
1.40001
1.40001
1.40001
1.40001
1.40001
1.40001
1.40001
1.40001
1.40001
1.40001
1.40001
1.40001
1.40001
1.40001
1.40001
3.49416
5.42102
5.56282
5.58968
5.61357
5.62966
5.63388
5.63687
5.64071
5.64331
5.64835
5.65602
5.66318
5.66494
5.65857
5.64717
5.63894
5.64603
5.66967
5.69948
5.72184
5.73302
5.73657
5.73951
5.75408
5.7793
5.79738
5.80002
5.78538
5.75867
5.73499
5.72628
5.73299
5.74374
5.73994
5.71515
5.69327
5.67281
5.66668
5.6753
5.70594
5.74041
5.75925
5.75192
5.72058
5.67136
5.61433
5.55857
5.51543
5.4888
5.47078
5.44704
5.40375
5.33934
5.25994
5.17716
5.10338
5.04787
5.01257
4.99703
4.99731
5.00724
5.01655
5.01173
4.99024
4.96005
4.93573
4.92632
4.92155
1.40001
1.40001
1.40001
1.40001
1.40001
1.40001
1.40001
1.40001
1.40001
1.40001
1.40001
1.40001
1.40001
1.40001
1.40001
1.40001
1.40001
1.40001
1.40001
1.40001
1.40001
1.40001
1.40001
1.40001
1.40001
1.40001
1.40001
1.40001
1.40001
1.40001
1.40001
1.40001
1.40001
1.40001
1.40001
1.40001
1.40001
1.40001
1.40001
1.40001
1.40001
1.40001
1.40001
1.40001
1.40001
1.40001
1.40001
1.40001
1.40001
1.40001
1.40001
1.40001
1.40001
1.40001
1.40001
1.40001
1.40001
1.40001
1.40001
1.40001
1.40001
1.40001
1.40001
1.40001
1.40001
1.40001
1.40001
1.40001
1.40001
1.40001
1.40001
1.40001
1.40001
1.40001
1.40001
1.40001
1.40001
1.40001
1.40001
1.40001
1.40001
1.40001
1.40001
1.40001
1.40001
1.40001
1.40001
1.40001
1.40001
1.40001
1.40001
1.40001
1.40001
1.40001
1.40001
1.40001
1.40001
1.40001
1.40001
1.40001
1.40001
1.40001
1.40001
1.40001
1.40001
1.40001
1.40001
1.40001
1.40001
1.40001
1.40001
1.40001
1.40001
1.40001
1.40001
1.40001
1.40001
1.40001
1.40001
1.40001
1.40001
1.40001
1.40001
3.32596
5.38987
5.56544
5.59153
5.61548
5.62718
5.62631
5.62576
5.6301
5.63639
5.64407
5.65156
5.65664
5.65559
5.64863
5.64018
5.6367
5.64862
5.67536
5.70549
5.72724
5.73697
5.73842
5.73895
5.75127
5.77583
5.79459
5.79805
5.78323
5.75549
5.72991
5.719
5.72423
5.73581
5.73488
5.71374
5.69802
5.67859
5.67066
5.67685
5.70406
5.73773
5.75668
5.75029
5.71994
5.67103
5.61358
5.55608
5.51017
5.48151
5.4641
5.44432
5.40613
5.3455
5.26755
5.18446
5.1089
5.05094
5.0126
4.99363
4.9913
4.99981
5.00881
5.00526
4.98555
4.95712
4.9355
4.92744
4.92405
1.40001
1.40001
1.40001
1.40001
1.40001
1.40001
1.40001
1.40001
1.40001
1.40001
1.40001
1.40001
1.40001
1.40001
1.40001
1.40001
1.40001
1.40001
1.40001
1.40001
1.40001
1.40001
1.40001
1.40001
1.40001
1.40001
1.40001
1.40001
1.40001
1.40001
1.40001
1.40001
1.40001
1.40001
1.40001
1.40001
1.40001
1.40001
1.40001
1.40001
1.40001
1.40001
1.40001
1.40001
1.40001
1.40001
1.40001
1.40001
1.40001
1.40001
1.40001
1.40001
1.40001
1.40001
1.40001
1.40001
1.40001
1.40001
1.40001
1.40001
1.40001
1.40001
1.40001
1.40001
1.40001
1.40001
1.40001
1.40001
1.40001
1.40001
1.40001
1.40001
1.40001
1.40001
1.40001
1.40001
1.40001
1.40001
1.40001
1.40001
1.40001
1.40001
1.40001
1.40001
1.40001
1.40001
1.40001
1.40001
1.40001
1.40001
1.40001
1.40001
1.40001
1.40001
1.40001
1.40001
1.40001
1.40001
1.40001
1.40001
1.40001
1.40001
1.40001
1.40001
1.40001
1.40001
1.40001
1.40001
1.40001
1.40001
1.40001
1.40001
1.40001
1.40001
1.40001
1.40001
1.40001
1.40001
1.40001
1.40001
1.40001
1.40001
1.40001
3.15676
5.35426
5.56479
5.59493
5.61662
5.61936
5.61331
5.61294
5.62123
5.63216
5.64074
5.64569
5.64765
5.6447
5.63951
5.635
5.63744
5.65419
5.68175
5.71119
5.73201
5.74019
5.73941
5.7381
5.74839
5.7721
5.79136
5.79545
5.78038
5.75171
5.72437
5.71128
5.71486
5.72758
5.73
5.71361
5.70345
5.68501
5.67455
5.67799
5.70178
5.73452
5.75355
5.74822
5.71896
5.67043
5.61261
5.55341
5.50471
5.47405
5.45744
5.44179
5.40877
5.35184
5.27525
5.19175
5.1144
5.05394
5.01259
4.99014
4.98506
4.99186
5.00038
4.99816
4.98044
4.95409
4.93537
4.92859
4.92673
1.40001
1.40001
1.40001
1.40001
1.40001
1.40001
1.40001
1.40001
1.40001
1.40001
1.40001
1.40001
1.40001
1.40001
1.40001
1.40001
1.40001
1.40001
1.40001
1.40001
1.40001
1.40001
1.40001
1.40001
1.40001
1.40001
1.40001
1.40001
1.40001
1.40001
1.40001
1.40001
1.40001
1.40001
1.40001
1.40001
1.40001
1.40001
1.40001
1.40001
1.40001
1.40001
1.40001
1.40001
1.40001
1.40001
1.40001
1.40001
1.40001
1.40001
1.40001
1.40001
1.40001
1.40001
1.40001
1.40001
1.40001
1.40001
1.40001
1.40001
1.40001
1.40001
1.40001
1.40001
1.40001
1.40001
1.40001
1.40001
1.40001
1.40001
1.40001
1.40001
1.40001
1.40001
1.40001
1.40001
1.40001
1.40001
1.40001
1.40001
1.40001
1.40001
1.40001
1.40001
1.40001
1.40001
1.40001
1.40001
1.40001
1.40001
1.40001
1.40001
1.40001
1.40001
1.40001
1.40001
1.40001
1.40001
1.40001
1.40001
1.40001
1.40001
1.40001
1.40001
1.40001
1.40001
1.40001
1.40001
1.40001
1.40001
1.40001
1.40001
1.40001
1.40001
1.40001
1.40001
1.40001
1.40001
1.40001
1.40001
1.40001
1.40001
1.40001
2.98965
5.31355
5.56494
5.59543
5.61103
5.60499
5.5973
5.60311
5.61577
5.62928
5.63648
5.63759
5.63653
5.63368
5.63246
5.63283
5.64205
5.66156
5.68827
5.71639
5.73573
5.74217
5.73962
5.73698
5.74561
5.76817
5.7875
5.79193
5.7767
5.7474
5.71853
5.70326
5.705
5.71898
5.72537
5.71532
5.7094
5.69194
5.67818
5.67855
5.69918
5.73064
5.74975
5.74569
5.71767
5.66955
5.61137
5.55052
5.49907
5.46649
5.45093
5.43953
5.41171
5.35834
5.28303
5.19902
5.11985
5.05685
5.01257
4.98665
4.97863
4.98341
4.9913
4.99044
4.97487
4.95099
4.9354
4.92976
4.92952
1.40001
1.40001
1.40001
1.40001
1.40001
1.40001
1.40001
1.40001
1.40001
1.40001
1.40001
1.40001
1.40001
1.40001
1.40001
1.40001
1.40001
1.40001
1.40001
1.40001
1.40001
1.40001
1.40001
1.40001
1.40001
1.40001
1.40001
1.40001
1.40001
1.40001