/*--------------------------------*- C++ -*----------------------------------*\
  =========                 |
  \\      /  F ield         | OpenFOAM: The Open Source CFD Toolbox
   \\    /   O peration     | Website:  https://openfoam.org
    \\  /    A nd           | Version:  7
     \\/     M anipulation  |
\*---------------------------------------------------------------------------*/
FoamFile
{
    version     2.0;
    format      ascii;
    class       volScalarField;
    location    "0.5";
    object      T;
}
// * * * * * * * * * * * * * * * * * * * * * * * * * * * * * * * * * * * * * //

dimensions      [0 0 0 1 0 0 0];

internalField   nonuniform List<scalar> 
258048
(
1
1
1
1
1
1
1
1
1
1
1
1
1
1
1
1
1
1
1
1
1
1
1
1
1
1
1
1
1
1
1
1
1
1
1
1
1
1
1
1
1
1
1
1
1
1
1
1
1
1
1
1
1
1
1
1
1
1
1
1
1
1
1
1
1
1
1
1
1
1
1
1
1
1
1
1
1
1
1
1
1
1
1
1
1
1
1
1
1
1
1
1
1
1
1
1
1
1
1
1
1
1
1
1
1
1
1
1
1
1
1
1
1
1
1
1
1
1
1
1
1
1
1.4092
2.57342
2.78987
2.82325
2.83931
2.84379
2.84559
2.84829
2.85261
2.85891
2.86537
2.8696
2.87152
2.8729
2.87483
2.87752
2.87973
2.88222
2.88434
2.88524
2.88548
2.88583
2.88901
2.89541
2.90372
2.91532
2.92654
2.9357
2.94099
2.94088
2.94142
2.94403
2.95035
2.96037
2.96945
2.97312
2.9717
2.97009
2.97083
2.97672
2.9903
3.0105
3.03054
3.04898
3.06212
3.0701
3.07706
3.08483
3.09595
3.11265
3.13509
3.16163
3.19152
3.22745
3.27223
3.32437
3.37685
3.42053
3.45116
3.47262
3.48928
3.50419
3.5155
3.52136
3.52164
3.52017
3.51972
3.51944
3.52
3.51976
1
1
1
1
1
1
1
1
1
1
1
1
1
1
1
1
1
1
1
1
1
1
1
1
1
1
1
1
1
1
1
1
1
1
1
1
1
1
1
1
1
1
1
1
1
1
1
1
1
1
1
1
1
1
1
1
1
1
1
1
1
1
1
1
1
1
1
1
1
1
1
1
1
1
1
1
1
1
1
1
1
1
1
1
1
1
1
1
1
1
1
1
1
1
1
1
1
1
1
1
1
1
1
1
1
1
1
1
1
1
1
1
1
1
1
1
1
1
1
1
1
1
1.40492
2.57148
2.79071
2.82367
2.83946
2.84382
2.84534
2.84804
2.85248
2.85897
2.86548
2.86963
2.87152
2.87289
2.87481
2.87745
2.87959
2.88202
2.8841
2.88503
2.88534
2.88581
2.88913
2.89557
2.90389
2.91542
2.92659
2.93569
2.94094
2.94084
2.94138
2.944
2.95033
2.96034
2.96937
2.97303
2.97164
2.97007
2.97085
2.9768
2.99041
3.01061
3.03064
3.04907
3.06222
3.07021
3.07718
3.08496
3.09608
3.1128
3.13527
3.16183
3.1918
3.22787
3.27278
3.32513
3.37743
3.42091
3.45149
3.47271
3.48924
3.5041
3.51537
3.52123
3.52153
3.52009
3.51968
3.51939
3.52004
3.51977
1
1
1
1
1
1
1
1
1
1
1
1
1
1
1
1
1
1
1
1
1
1
1
1
1
1
1
1
1
1
1
1
1
1
1
1
1
1
1
1
1
1
1
1
1
1
1
1
1
1
1
1
1
1
1
1
1
1
1
1
1
1
1
1
1
1
1
1
1
1
1
1
1
1
1
1
1
1
1
1
1
1
1
1
1
1
1
1
1
1
1
1
1
1
1
1
1
1
1
1
1
1
1
1
1
1
1
1
1
1
1
1
1
1
1
1
1
1
1
1
1
1
1.39417
2.56687
2.79276
2.82474
2.83961
2.84365
2.84509
2.8479
2.8524
2.85904
2.86558
2.86961
2.8715
2.87289
2.87481
2.8774
2.8794
2.88173
2.88375
2.88468
2.88511
2.88572
2.88928
2.89577
2.90408
2.91554
2.92665
2.93566
2.94082
2.94074
2.94126
2.9439
2.95026
2.96025
2.96925
2.97289
2.97154
2.97001
2.97084
2.97687
2.99054
3.01076
3.03077
3.04923
3.06242
3.07043
3.07739
3.08516
3.09628
3.11304
3.1356
3.16233
3.19261
3.22912
3.27443
3.32707
3.37905
3.42201
3.45224
3.47295
3.48922
3.50396
3.51518
3.52104
3.52138
3.51998
3.51962
3.51928
3.52006
3.51975
1
1
1
1
1
1
1
1
1
1
1
1
1
1
1
1
1
1
1
1
1
1
1
1
1
1
1
1
1
1
1
1
1
1
1
1
1
1
1
1
1
1
1
1
1
1
1
1
1
1
1
1
1
1
1
1
1
1
1
1
1
1
1
1
1
1
1
1
1
1
1
1
1
1
1
1
1
1
1
1
1
1
1
1
1
1
1
1
1
1
1
1
1
1
1
1
1
1
1
1
1
1
1
1
1
1
1
1
1
1
1
1
1
1
1
1
1
1
1
1
1
1
1.37554
2.55768
2.79514
2.82632
2.83987
2.84353
2.84489
2.84782
2.85241
2.85921
2.8657
2.86957
2.87145
2.87283
2.87474
2.87725
2.87908
2.88127
2.8832
2.88415
2.88475
2.88556
2.8895
2.89606
2.90434
2.91571
2.9267
2.93552
2.94058
2.94055
2.94105
2.94372
2.95011
2.96006
2.969
2.97263
2.97134
2.96987
2.97079
2.97693
2.99065
3.01088
3.0309
3.0494
3.06264
3.07064
3.07759
3.08533
3.09642
3.11321
3.13584
3.1628
3.19356
3.23072
3.27664
3.32962
3.3813
3.42362
3.45327
3.47331
3.4892
3.50374
3.51488
3.52074
3.52113
3.51979
3.5195
3.51915
3.5201
3.51975
1
1
1
1
1
1
1
1
1
1
1
1
1
1
1
1
1
1
1
1
1
1
1
1
1
1
1
1
1
1
1
1
1
1
1
1
1
1
1
1
1
1
1
1
1
1
1
1
1
1
1
1
1
1
1
1
1
1
1
1
1
1
1
1
1
1
1
1
1
1
1
1
1
1
1
1
1
1
1
1
1
1
1
1
1
1
1
1
1
1
1
1
1
1
1
1
1
1
1
1
1
1
1
1
1
1
1
1
1
1
1
1
1
1
1
1
1
1
1
1
1
1
1.34803
2.54286
2.79701
2.82802
2.84037
2.84371
2.84499
2.84766
2.8523
2.85931
2.86576
2.86948
2.87131
2.87269
2.87459
2.87702
2.87868
2.88071
2.88251
2.88345
2.88427
2.88536
2.8898
2.89641
2.90467
2.91588
2.92671
2.93531
2.94022
2.94028
2.94074
2.94343
2.94985
2.95975
2.96863
2.97224
2.97101
2.96961
2.97064
2.97691
2.99067
3.01091
3.03095
3.04948
3.06275
3.07073
3.07766
3.08534
3.09639
3.11316
3.13582
3.16292
3.19405
3.23182
3.2784
3.33176
3.38332
3.42515
3.45423
3.47365
3.48915
3.50343
3.51446
3.52034
3.5208
3.51951
3.5193
3.51901
3.52015
3.51979
1
1
1
1
1
1
1
1
1
1
1
1
1
1
1
1
1
1
1
1
1
1
1
1
1
1
1
1
1
1
1
1
1
1
1
1
1
1
1
1
1
1
1
1
1
1
1
1
1
1
1
1
1
1
1
1
1
1
1
1
1
1
1
1
1
1
1
1
1
1
1
1
1
1
1
1
1
1
1
1
1
1
1
1
1
1
1
1
1
1
1
1
1
1
1
1
1
1
1
1
1
1
1
1
1
1
1
1
1
1
1
1
1
1
1
1
1
1
1
1
1
1
1.31237
2.52314
2.79893
2.82983
2.841
2.84395
2.84501
2.84738
2.85219
2.85947
2.86584
2.86934
2.87106
2.87238
2.87427
2.87664
2.87815
2.88001
2.88164
2.88258
2.88369
2.88521
2.8902
2.89686
2.90509
2.91603
2.92664
2.93497
2.93974
2.93992
2.94033
2.94304
2.94947
2.95929
2.96809
2.9717
2.97054
2.96921
2.9704
2.97684
2.99059
3.01084
3.03088
3.04943
3.06271
3.07065
3.07751
3.08512
3.0961
3.11282
3.13547
3.16264
3.19398
3.23213
3.27916
3.3329
3.38458
3.42618
3.45487
3.47384
3.48902
3.50301
3.51392
3.51983
3.52036
3.51913
3.51901
3.51885
3.52021
3.51988
1
1
1
1
1
1
1
1
1
1
1
1
1
1
1
1
1
1
1
1
1
1
1
1
1
1
1
1
1
1
1
1
1
1
1
1
1
1
1
1
1
1
1
1
1
1
1
1
1
1
1
1
1
1
1
1
1
1
1
1
1
1
1
1
1
1
1
1
1
1
1
1
1
1
1
1
1
1
1
1
1
1
1
1
1
1
1
1
1
1
1
1
1
1
1
1
1
1
1
1
1
1
1
1
1
1
1
1
1
1
1
1
1
1
1
1
1
1
1
1
1
1
1.26995
2.4993
2.80172
2.83223
2.842
2.84423
2.84489
2.84698
2.85211
2.8597
2.86589
2.86908
2.87062
2.87186
2.87375
2.87612
2.87752
2.87917
2.8806
2.88154
2.88303
2.88521
2.89072
2.89742
2.90553
2.91613
2.92647
2.93454
2.93919
2.93953
2.93986
2.94257
2.94898
2.95866
2.96738
2.97101
2.96994
2.9687
2.97012
2.97673
2.99042
3.01066
3.03067
3.0492
3.06248
3.07036
3.07711
3.0846
3.09546
3.11208
3.13464
3.16182
3.19339
3.23187
3.27928
3.33336
3.38526
3.42681
3.45522
3.4739
3.48878
3.50247
3.51326
3.51921
3.51982
3.51864
3.51861
3.51865
3.52026
3.52
1
1
1
1
1
1
1
1
1
1
1
1
1
1
1
1
1
1
1
1
1
1
1
1
1
1
1
1
1
1
1
1
1
1
1
1
1
1
1
1
1
1
1
1
1
1
1
1
1
1
1
1
1
1
1
1
1
1
1
1
1
1
1
1
1
1
1
1
1
1
1
1
1
1
1
1
1
1
1
1
1
1
1
1
1
1
1
1
1
1
1
1
1
1
1
1
1
1
1
1
1
1
1
1
1
1
1
1
1
1
1
1
1
1
1
1
1
1
1
1
1
1
1.22217
2.47184
2.80581
2.83553
2.84311
2.84429
2.8444
2.84646
2.85213
2.86001
2.86591
2.86868
2.86995
2.8711
2.87302
2.87544
2.87675
2.87815
2.87934
2.88036
2.88237
2.88548
2.89135
2.89806
2.90595
2.91613
2.92618
2.934
2.93861
2.9391
2.93935
2.94202
2.94835
2.95787
2.96651
2.97019
2.96925
2.96813
2.96982
2.97662
2.99021
3.01039
3.03033
3.04882
3.06208
3.06989
3.0765
3.08384
3.09451
3.11096
3.13334
3.16047
3.19225
3.23114
3.27906
3.33343
3.38555
3.42713
3.45535
3.4738
3.4884
3.50176
3.51245
3.51845
3.51916
3.51804
3.51812
3.5184
3.52033
3.52017
1
1
1
1
1
1
1
1
1
1
1
1
1
1
1
1
1
1
1
1
1
1
1
1
1
1
1
1
1
1
1
1
1
1
1
1
1
1
1
1
1
1
1
1
1
1
1
1
1
1
1
1
1
1
1
1
1
1
1
1
1
1
1
1
1
1
1
1
1
1
1
1
1
1
1
1
1
1
1
1
1
1
1
1
1
1
1
1
1
1
1
1
1
1
1
1
1
1
1
1
1
1
1
1
1
1
1
1
1
1
1
1
1
1
1
1
1
1
1
1
1
1
1.17067
2.44143
2.81147
2.83963
2.84393
2.84391
2.84355
2.84596
2.8523
2.86041
2.86584
2.86806
2.869
2.87008
2.87211
2.87464
2.87588
2.87698
2.87789
2.87909
2.88179
2.88603
2.89212
2.89873
2.9063
2.91601
2.92575
2.93339
2.93802
2.93866
2.93882
2.94139
2.94759
2.95691
2.96548
2.96924
2.96846
2.96754
2.96956
2.97654
2.98999
3.01006
3.02989
3.04833
3.06158
3.06932
3.07577
3.0829
3.09335
3.10952
3.13164
3.15864
3.19056
3.22984
3.27824
3.33295
3.38536
3.42709
3.45522
3.47354
3.48787
3.5009
3.51151
3.51757
3.51839
3.51735
3.51756
3.51812
3.52041
3.52039
1
1
1
1
1
1
1
1
1
1
1
1
1
1
1
1
1
1
1
1
1
1
1
1
1
1
1
1
1
1
1
1
1
1
1
1
1
1
1
1
1
1
1
1
1
1
1
1
1
1
1
1
1
1
1
1
1
1
1
1
1
1
1
1
1
1
1
1
1
1
1
1
1
1
1
1
1
1
1
1
1
1
1
1
1
1
1
1
1
1
1
1
1
1
1
1
1
1
1
1
1
1
1
1
1
1
1
1
1
1
1
1
1
1
1
1
1
1
1
1
1
1
1.11702
2.40904
2.81922
2.84355
2.84407
2.84293
2.84252
2.84556
2.85264
2.86084
2.86559
2.86717
2.86777
2.86883
2.87107
2.87373
2.87488
2.87563
2.87625
2.87781
2.88141
2.88675
2.89304
2.89938
2.90654
2.91575
2.9252
2.93271
2.93741
2.9382
2.93825
2.94069
2.94669
2.95577
2.96428
2.96816
2.96759
2.96694
2.96936
2.97651
2.98982
3.00971
3.02938
3.04775
3.06101
3.06869
3.07497
3.08188
3.09203
3.10787
3.12962
3.15639
3.18838
3.22795
3.27671
3.33176
3.38461
3.42665
3.4548
3.47309
3.48718
3.49989
3.51042
3.51655
3.5175
3.51656
3.51693
3.51782
3.52052
3.52067
1
1
1
1
1
1
1
1
1
1
1
1
1
1
1
1
1
1
1
1
1
1
1
1
1
1
1
1
1
1
1
1
1
1
1
1
1
1
1
1
1
1
1
1
1
1
1
1
1
1
1
1
1
1
1
1
1
1
1
1
1
1
1
1
1
1
1
1
1
1
1
1
1
1
1
1
1
1
1
1
1
1
1
1
1
1
1
1
1
1
1
1
1
1
1
1
1
1
1
1
1
1
1
1
1
1
1
1
1
1
1
1
1
1
1
1
1
1
1
1
1
1
1.06255
2.37568
2.82943
2.845
2.84364
2.84142
2.84141
2.84534
2.85315
2.86121
2.86507
2.86596
2.86625
2.86737
2.86995
2.87273
2.87373
2.87413
2.87448
2.87662
2.88129
2.8876
2.89403
2.9
2.90665
2.91536
2.92455
2.93199
2.93679
2.9377
2.93763
2.93988
2.94566
2.95445
2.9629
2.96696
2.96666
2.96638
2.96926
2.97656
2.98969
3.00931
3.02879
3.04708
3.06037
3.06802
3.07413
3.0808
3.09064
3.10606
3.12735
3.15381
3.1858
3.22555
3.2746
3.32995
3.38326
3.42576
3.45413
3.47247
3.48632
3.49874
3.50918
3.51539
3.51649
3.51568
3.51623
3.5175
3.52065
3.52102
1
1
1
1
1
1
1
1
1
1
1
1
1
1
1
1
1
1
1
1
1
1
1
1
1
1
1
1
1
1
1
1
1
1
1
1
1
1
1
1
1
1
1
1
1
1
1
1
1
1
1
1
1
1
1
1
1
1
1
1
1
1
1
1
1
1
1
1
1
1
1
1
1
1
1
1
1
1
1
1
1
1
1
1
1
1
1
1
1
1
1
1
1
1
1
1
1
1
1
1
1
1
1
1
1
1
1
1
1
1
1
1
1
1
1
1
1
1
1
1
1
1
1.0115
2.34382
2.83667
2.84476
2.84258
2.83973
2.84025
2.8453
2.85377
2.86143
2.8642
2.8644
2.86445
2.86577
2.86878
2.87163
2.87241
2.87247
2.87269
2.87565
2.8815
2.88854
2.89495
2.90052
2.90664
2.91484
2.92381
2.93124
2.93616
2.93715
2.93694
2.93897
2.94448
2.95296
2.96133
2.96564
2.96568
2.96588
2.96928
2.97667
2.98957
3.00882
3.0281
3.04633
3.05967
3.06732
3.07327
3.07971
3.08921
3.10416
3.1249
3.15099
3.18296
3.22286
3.27213
3.32776
3.38153
3.42455
3.45328
3.47168
3.48528
3.49745
3.50778
3.51407
3.51535
3.51472
3.51548
3.51718
3.52081
3.52142
1
1
1
1
1
1
1
1
1
1
1
1
1
1
1
1
1
1
1
1
1
1
1
1
1
1
1
1
1
1
1
1
1
1
1
1
1
1
1
1
1
1
1
1
1
1
1
1
1
1
1
1
1
1
1
1
1
1
1
1
1
1
1
1
1
1
1
1
1
1
1
1
1
1
1
1
1
1
1
1
1
1
1
1
1
1
1
1
1
1
1
1
1
1
1
1
1
1
1
1
1
1
1
1
1
1
1
1
1
1
1
1
1
1
1
1
1
1
1
1
1
1
1.00002
2.31333
2.84
2.84414
2.84131
2.8379
2.8391
2.84544
2.85446
2.86135
2.86291
2.8625
2.86244
2.86411
2.86762
2.87042
2.8709
2.87069
2.871
2.875
2.88202
2.88951
2.89574
2.90094
2.90652
2.91421
2.92297
2.93044
2.9355
2.93654
2.93618
2.93795
2.94314
2.95128
2.95958
2.9642
2.9647
2.96554
2.96938
2.97686
2.98946
3.00821
3.0273
3.04547
3.05891
3.06659
3.07241
3.07862
3.08777
3.1022
3.12233
3.148
3.17999
3.22006
3.2695
3.32535
3.37956
3.42316
3.45232
3.47072
3.48411
3.49601
3.5062
3.51257
3.51406
3.51368
3.51467
3.51688
3.52101
3.52189
1
1
1
1
1
1
1
1
1
1
1
1
1
1
1
1
1
1
1
1
1
1
1
1
1
1
1
1
1
1
1
1
1
1
1
1
1
1
1
1
1
1
1
1
1
1
1
1
1
1
1
1
1
1
1
1
1
1
1
1
1
1
1
1
1
1
1
1
1
1
1
1
1
1
1
1
1
1
1
1
1
1
1
1
1
1
1
1
1
1
1
1
1
1
1
1
1
1
1
1
1
1
1
1
1
1
1
1
1
1
1
1
1
1
1
1
1
1
1
1
1
1
1
2.27968
2.84215
2.84346
2.83961
2.83591
2.83806
2.84581
2.85509
2.86083
2.86117
2.86023
2.86028
2.86251
2.86647
2.86907
2.86922
2.86881
2.86956
2.87472
2.88273
2.89042
2.89643
2.90128
2.90628
2.91346
2.92203
2.92959
2.93479
2.93587
2.93534
2.9368
2.94164
2.94942
2.95766
2.96266
2.96368
2.96542
2.9695
2.97712
2.98934
3.00748
3.02637
3.0445
3.05807
3.06582
3.07152
3.07753
3.08631
3.10017
3.11965
3.14489
3.17695
3.21725
3.26683
3.32284
3.37745
3.42164
3.45125
3.46962
3.4828
3.49444
3.50444
3.51087
3.51263
3.51255
3.51383
3.51659
3.52122
3.52241
1
1
1
1
1
1
1
1
1
1
1
1
1
1
1
1
1
1
1
1
1
1
1
1
1
1
1
1
1
1
1
1
1
1
1
1
1
1
1
1
1
1
1
1
1
1
1
1
1
1
1
1
1
1
1
1
1
1
1
1
1
1
1
1
1
1
1
1
1
1
1
1
1
1
1
1
1
1
1
1
1
1
1
1
1
1
1
1
1
1
1
1
1
1
1
1
1
1
1
1
1
1
1
1
1
1
1
1
1
1
1
1
1
1
1
1
1
1
1
1
1
1
1
2.2409
2.84362
2.84281
2.83685
2.83394
2.83743
2.84643
2.85543
2.85962
2.85901
2.85772
2.85819
2.86106
2.86521
2.86751
2.86744
2.8669
2.86854
2.8748
2.88353
2.89127
2.89703
2.90153
2.90592
2.91257
2.92098
2.92866
2.93403
2.9351
2.93438
2.93552
2.93997
2.9474
2.95559
2.96104
2.96267
2.96549
2.96974
2.9774
2.98916
3.00662
3.0253
3.04339
3.05711
3.06497
3.07059
3.07641
3.08481
3.09807
3.11687
3.14169
3.17388
3.21446
3.26418
3.3203
3.37526
3.42
3.45009
3.46844
3.48139
3.49271
3.50248
3.50898
3.51103
3.51133
3.51293
3.51633
3.52145
3.52298
1
1
1
1
1
1
1
1
1
1
1
1
1
1
1
1
1
1
1
1
1
1
1
1
1
1
1
1
1
1
1
1
1
1
1
1
1
1
1
1
1
1
1
1
1
1
1
1
1
1
1
1
1
1
1
1
1
1
1
1
1
1
1
1
1
1
1
1
1
1
1
1
1
1
1
1
1
1
1
1
1
1
1
1
1
1
1
1
1
1
1
1
1
1
1
1
1
1
1
1
1
1
1
1
1
1
1
1
1
1
1
1
1
1
1
1
1
1
1
1
1
1
1
2.19636
2.84434
2.84155
2.83322
2.83224
2.83736
2.84709
2.85507
2.85756
2.85639
2.85533
2.85637
2.85968
2.86371
2.86571
2.8656
2.86524
2.86799
2.87524
2.88439
2.89205
2.89753
2.90167
2.90543
2.91155
2.91982
2.92766
2.93319
2.93424
2.9333
2.93408
2.93812
2.9452
2.9534
2.95937
2.96173
2.96569
2.97011
2.97765
2.98888
3.00561
3.02409
3.04212
3.05601
3.06402
3.06958
3.07523
3.08325
3.09587
3.11398
3.13842
3.17081
3.21173
3.26157
3.31774
3.37302
3.41826
3.44882
3.4672
3.47988
3.49086
3.50035
3.50687
3.50925
3.50999
3.51199
3.51609
3.52169
3.5236
1
1
1
1
1
1
1
1
1
1
1
1
1
1
1
1
1
1
1
1
1
1
1
1
1
1
1
1
1
1
1
1
1
1
1
1
1
1
1
1
1
1
1
1
1
1
1
1
1
1
1
1
1
1
1
1
1
1
1
1
1
1
1
1
1
1
1
1
1
1
1
1
1
1
1
1
1
1
1
1
1
1
1
1
1
1
1
1
1
1
1
1
1
1
1
1
1
1
1
1
1
1
1
1
1
1
1
1
1
1
1
1
1
1
1
1
1
1
1
1
1
1
1
2.14582
2.8439
2.83921
2.82933
2.83036
2.83769
2.84742
2.85365
2.85485
2.85369
2.85325
2.85473
2.8582
2.86186
2.86377
2.86379
2.86405
2.86797
2.87594
2.88527
2.89276
2.89789
2.90162
2.9048
2.91041
2.91859
2.92658
2.93226
2.93326
2.93207
2.93248
2.93612
2.94283
2.95111
2.95768
2.96094
2.96602
2.97058
2.97783
2.98849
3.00445
3.02275
3.0407
3.05474
3.06294
3.06847
3.07398
3.08161
3.09357
3.11099
3.13508
3.16775
3.20906
3.25901
3.3152
3.37073
3.41643
3.44746
3.46592
3.4783
3.48888
3.49804
3.50454
3.50728
3.50855
3.511
3.51587
3.52195
3.52428
1
1
1
1
1
1
1
1
1
1
1
1
1
1
1
1
1
1
1
1
1
1
1
1
1
1
1
1
1
1
1
1
1
1
1
1
1
1
1
1
1
1
1
1
1
1
1
1
1
1
1
1
1
1
1
1
1
1
1
1
1
1
1
1
1
1
1
1
1
1
1
1
1
1
1
1
1
1
1
1
1
1
1
1
1
1
1
1
1
1
1
1
1
1
1
1
1
1
1
1
1
1
1
1
1
1
1
1
1
1
1
1
1
1
1
1
1
1
1
1
1
1
1
2.09212
2.84124
2.83417
2.82563
2.82896
2.83782
2.84665
2.85159
2.85204
2.85124
2.85134
2.853
2.85636
2.85982
2.86189
2.86218
2.86351
2.86842
2.87679
2.8861
2.89338
2.89808
2.90125
2.90405
2.90923
2.91732
2.92541
2.93118
2.93214
2.93069
2.93072
2.93399
2.94028
2.94872
2.95598
2.96039
2.96646
2.97114
2.97793
2.98797
3.00316
3.02124
3.03909
3.05331
3.06173
3.06724
3.07261
3.07986
3.09114
3.1079
3.13171
3.16469
3.20643
3.25647
3.31264
3.36837
3.4145
3.446
3.46457
3.47665
3.48679
3.49558
3.50199
3.5051
3.50697
3.50997
3.51568
3.52221
3.52501
1
1
1
1
1
1
1
1
1
1
1
1
1
1
1
1
1
1
1
1
1
1
1
1
1
1
1
1
1
1
1
1
1
1
1
1
1
1
1
1
1
1
1
1
1
1
1
1
1
1
1
1
1
1
1
1
1
1
1
1
1
1
1
1
1
1
1
1
1
1
1
1
1
1
1
1
1
1
1
1
1
1
1
1
1
1
1
1
1
1
1
1
1
1
1
1
1
1
1
1
1
1
1
1
1
1
1
1
1
1
1
1
1
1
1
1
1
1
1
1
1
1
1
2.03689
2.8348
2.82621
2.82237
2.82778
2.83686
2.84501
2.84974
2.84951
2.84894
2.8493
2.8509
2.85421
2.85788
2.86027
2.86109
2.86356
2.86925
2.87772
2.88682
2.89377
2.89801
2.90062
2.90319
2.90805
2.91601
2.9241
2.9299
2.93086
2.92919
2.92889
2.93177
2.93757
2.94621
2.9543
2.9601
2.96695
2.97175
2.97794
2.98733
3.00172
3.01953
3.03728
3.0517
3.06037
3.06588
3.07112
3.07797
3.08857
3.10469
3.12831
3.16165
3.20383
3.25394
3.31005
3.36591
3.41243
3.44442
3.46317
3.47492
3.48461
3.49297
3.49921
3.50272
3.50526
3.50891
3.5155
3.52247
3.52578
1
1
1
1
1
1
1
1
1
1
1
1
1
1
1
1
1
1
1
1
1
1
1
1
1
1
1
1
1
1
1
1
1
1
1
1
1
1
1
1
1
1
1
1
1
1
1
1
1
1
1
1
1
1
1
1
1
1
1
1
1
1
1
1
1
1
1
1
1
1
1
1
1
1
1
1
1
1
1
1
1
1
1
1
1
1
1
1
1
1
1
1
1
1
1
1
1
1
1
1
1
1
1
1
1
1
1
1
1
1
1
1
1
1
1
1
1
1
1
1
1
1
1
1.97615
2.82112
2.81729
2.81847
2.82685
2.83584
2.84379
2.84793
2.84714
2.84643
2.84693
2.84846
2.85211
2.85629
2.85902
2.86064
2.86419
2.87033
2.87862
2.8873
2.89381
2.89757
2.89983
2.90229
2.90693
2.91464
2.92259
2.92836
2.9294
2.9276
2.92703
2.92947
2.93472
2.94361
2.9527
2.96005
2.9675
2.97236
2.97785
2.98656
3.00014
3.01762
3.03524
3.04991
3.05888
3.06438
3.06949
3.07596
3.08586
3.10136
3.12486
3.15862
3.20123
3.25136
3.30738
3.36331
3.41021
3.44269
3.46167
3.47313
3.48233
3.49022
3.49623
3.50013
3.50342
3.50784
3.51537
3.52272
3.52659
1
1
1
1
1
1
1
1
1
1
1
1
1
1
1
1
1
1
1
1
1
1
1
1
1
1
1
1
1
1
1
1
1
1
1
1
1
1
1
1
1
1
1
1
1
1
1
1
1
1
1
1
1
1
1
1
1
1
1
1
1
1
1
1
1
1
1
1
1
1
1
1
1
1
1
1
1
1
1
1
1
1
1
1
1
1
1
1
1
1
1
1
1
1
1
1
1
1
1
1
1
1
1
1
1
1
1
1
1
1
1
1
1
1
1
1
1
1
1
1
1
1
1
1.897
2.79255
2.8121
2.81626
2.82618
2.83531
2.84329
2.84584
2.84458
2.84347
2.8441
2.84612
2.85038
2.8552
2.85826
2.86089
2.86524
2.87149
2.8793
2.88742
2.89339
2.89679
2.89896
2.90138
2.90583
2.91315
2.92082
2.92653
2.92777
2.92595
2.92518
2.92712
2.93173
2.94098
2.9513
2.9602
2.96808
2.97289
2.97765
2.98566
2.99846
3.01549
3.03298
3.04792
3.05722
3.06273
3.06773
3.07381
3.08303
3.09791
3.12134
3.15561
3.19861
3.24867
3.30456
3.36055
3.40781
3.4408
3.46005
3.47126
3.47996
3.48733
3.49304
3.49732
3.50145
3.50678
3.51528
3.52296
3.52738
1
1
1
1
1
1
1
1
1
1
1
1
1
1
1
1
1
1
1
1
1
1
1
1
1
1
1
1
1
1
1
1
1
1
1
1
1
1
1
1
1
1
1
1
1
1
1
1
1
1
1
1
1
1
1
1
1
1
1
1
1
1
1
1
1
1
1
1
1
1
1
1
1
1
1
1
1
1
1
1
1
1
1
1
1
1
1
1
1
1
1
1
1
1
1
1
1
1
1
1
1
1
1
1
1
1
1
1
1
1
1
1
1
1
1
1
1
1
1
1
1
1
1
1.79319
2.74825
2.80766
2.81513
2.82612
2.83605
2.84282
2.84326
2.8415
2.84005
2.84105
2.84426
2.8494
2.85457
2.85811
2.8617
2.86645
2.87247
2.8796
2.88705
2.89249
2.89583
2.89815
2.90048
2.90466
2.91142
2.91875
2.92443
2.92601
2.92426
2.92336
2.92471
2.92867
2.93849
2.95017
2.96048
2.96862
2.97328
2.97737
2.98467
2.99667
3.01314
3.0305
3.04572
3.05539
3.06093
3.06584
3.07156
3.08011
3.09443
3.11783
3.15256
3.19588
3.24581
3.30155
3.35755
3.40517
3.4387
3.45829
3.46931
3.47751
3.48428
3.48966
3.49431
3.49937
3.50573
3.51525
3.52319
3.52811
1
1
1
1
1
1
1
1
1
1
1
1
1
1
1
1
1
1
1
1
1
1
1
1
1
1
1
1
1
1
1
1
1
1
1
1
1
1
1
1
1
1
1
1
1
1
1
1
1
1
1
1
1
1
1
1
1
1
1
1
1
1
1
1
1
1
1
1
1
1
1
1
1
1
1
1
1
1
1
1
1
1
1
1
1
1
1
1
1
1
1
1
1
1
1
1
1
1
1
1
1
1
1
1
1
1
1
1
1
1
1
1
1
1
1
1
1
1
1
1
1
1
1
1.66412
2.68723
2.80349
2.81503
2.82758
2.83741
2.84152
2.83986
2.83735
2.8365
2.83851
2.84315
2.84916
2.85448
2.8586
2.86272
2.8675
2.87304
2.87936
2.8861
2.89123
2.89484
2.89748
2.89951
2.90328
2.90935
2.91636
2.92214
2.92416
2.92256
2.92156
2.92222
2.92564
2.93629
2.94932
2.9607
2.96904
2.97353
2.97701
2.9836
2.99479
3.01058
3.02779
3.0433
3.05335
3.05895
3.0638
3.06919
3.07713
3.09099
3.11439
3.14943
3.19297
3.24272
3.29828
3.35429
3.40227
3.43637
3.45637
3.46727
3.47496
3.48109
3.48608
3.49111
3.4972
3.50473
3.51523
3.52345
3.52874
1
1
1
1
1
1
1
1
1
1
1
1
1
1
1
1
1
1
1
1
1
1
1
1
1
1
1
1
1
1
1
1
1
1
1
1
1
1
1
1
1
1
1
1
1
1
1
1
1
1
1
1
1
1
1
1
1
1
1
1
1
1
1
1
1
1
1
1
1
1
1
1
1
1
1
1
1
1
1
1
1
1
1
1
1
1
1
1
1
1
1
1
1
1
1
1
1
1
1
1
1
1
1
1
1
1
1
1
1
1
1
1
1
1
1
1
1
1
1
1
1
1
1
1.5089
2.60876
2.80156
2.81537
2.83076
2.83788
2.83807
2.83499
2.83263
2.83331
2.83719
2.84312
2.8496
2.855
2.85936
2.86354
2.86811
2.87302
2.87851
2.8847
2.88979
2.89395
2.89692
2.89836
2.90157
2.90684
2.91368
2.91972
2.92228
2.92084
2.91972
2.91965
2.92289
2.93452
2.94866
2.96078
2.96932
2.97359
2.97659
2.98243
2.9928
3.00781
3.02488
3.04065
3.0511
3.0568
3.06162
3.06672
3.07413
3.08766
3.11106
3.14622
3.18983
3.23937
3.29471
3.3507
3.39906
3.43379
3.45428
3.46514
3.47231
3.47775
3.4823
3.48773
3.49498
3.50378
3.51523
3.52366
3.5293
1
1
1
1
1
1
1
1
1
1
1
1
1
1
1
1
1
1
1
1
1
1
1
1
1
1
1
1
1
1
1
1
1
1
1
1
1
1
1
1
1
1
1
1
1
1
1
1
1
1
1
1
1
1
1
1
1
1
1
1
1
1
1
1
1
1
1
1
1
1
1
1
1
1
1
1
1
1
1
1
1
1
1
1
1
1
1
1
1
1
1
1
1
1
1
1
1
1
1
1
1
1
1
1
1
1
1
1
1
1
1
1
1
1
1
1
1
1
1
1
1
1
1
1.32897
2.51339
2.803
2.81938
2.83224
2.8358
2.83277
2.82918
2.82855
2.83138
2.83731
2.84438
2.85069
2.85569
2.85983
2.86386
2.86809
2.87237
2.87723
2.88307
2.88834
2.89308
2.89628
2.89696
2.89945
2.90397
2.91077
2.91725
2.92032
2.919
2.91776
2.91717
2.92063
2.93325
2.94808
2.96063
2.96946
2.97346
2.97614
2.98113
2.99066
3.00487
3.02177
3.03778
3.04863
3.05448
3.0593
3.06417
3.07118
3.08449
3.10791
3.14292
3.18641
3.23573
3.29079
3.34673
3.39549
3.43091
3.45198
3.46289
3.46957
3.47427
3.47836
3.48421
3.49269
3.50287
3.51522
3.52382
3.52977
1
1
1
1
1
1
1
1
1
1
1
1
1
1
1
1
1
1
1
1
1
1
1
1
1
1
1
1
1
1
1
1
1
1
1
1
1
1
1
1
1
1
1
1
1
1
1
1
1
1
1
1
1
1
1
1
1
1
1
1
1
1
1
1
1
1
1
1
1
1
1
1
1
1
1
1
1
1
1
1
1
1
1
1
1
1
1
1
1
1
1
1
1
1
1
1
1
1
1
1
1
1
1
1
1
1
1
1
1
1
1
1
1
1
1
1
1
1
1
1
1
1
1
1.13708
2.40802
2.80597
2.8267
2.83176
2.8313
2.82661
2.82405
2.82579
2.8314
2.83921
2.84662
2.85176
2.85588
2.85959
2.86345
2.86747
2.87128
2.8758
2.88143
2.88695
2.892
2.89518
2.89531
2.89707
2.90095
2.90775
2.91469
2.9182
2.91698
2.91561
2.91501
2.91909
2.93238
2.94747
2.96024
2.96932
2.97323
2.9756
2.97965
2.98836
3.00181
3.01848
3.03465
3.04594
3.052
3.05683
3.06154
3.06831
3.08155
3.10491
3.13952
3.18272
3.23181
3.28649
3.34236
3.39153
3.42771
3.44945
3.46052
3.46676
3.47069
3.47428
3.48061
3.49035
3.50199
3.51518
3.52392
3.53014
1
1
1
1
1
1
1
1
1
1
1
1
1
1
1
1
1
1
1
1
1
1
1
1
1
1
1
1
1
1
1
1
1
1
1
1
1
1
1
1
1
1
1
1
1
1
1
1
1
1
1
1
1
1
1
1
1
1
1
1
1
1
1
1
1
1
1
1
1
1
1
1
1
1
1
1
1
1
1
1
1
1
1
1
1
1
1
1
1
1
1
1
1
1
1
1
1
1
1
1
1
1
1
1
1
1
1
1
1
1
1
1
1
1
1
1
1
1
1
1
1
1
1
1.00404
2.31605
2.81794
2.83109
2.82978
2.82619
2.8211
2.82092
2.82516
2.83344
2.84239
2.84859
2.85207
2.85507
2.85839
2.86233
2.86647
2.87013
2.87442
2.87982
2.8855
2.89053
2.89347
2.89337
2.89458
2.898
2.90471
2.91197
2.9158
2.91475
2.91325
2.91344
2.91842
2.93173
2.9467
2.9596
2.96888
2.97285
2.97488
2.97805
2.98594
2.99864
3.01498
3.03127
3.04299
3.04934
3.05423
3.05888
3.06563
3.07888
3.10204
3.13606
3.1788
3.22756
3.2818
3.33754
3.38714
3.42413
3.44666
3.45802
3.46388
3.46701
3.47011
3.47696
3.48799
3.50109
3.51509
3.52394
3.53037
1
1
1
1
1
1
1
1
1
1
1
1
1
1
1
1
1
1
1
1
1
1
1
1
1
1
1
1
1
1
1
1
1
1
1
1
1
1
1
1
1
1
1
1
1
1
1
1
1
1
1
1
1
1
1
1
1
1
1
1
1
1
1
1
1
1
1
1
1
1
1
1
1
1
1
1
1
1
1
1
1
1
1
1
1
1
1
1
1
1
1
1
1
1
1
1
1
1
1
1
1
1
1
1
1
1
1
1
1
1
1
1
1
1
1
1
1
1
1
1
1
1
1
1.00001
2.23739
2.82561
2.83104
2.82708
2.8209
2.81737
2.81973
2.82681
2.83702
2.84516
2.84912
2.85113
2.85308
2.8565
2.86104
2.86549
2.86914
2.87308
2.87812
2.88374
2.88859
2.89126
2.89113
2.89205
2.89521
2.90166
2.90896
2.91303
2.91239
2.91109
2.91266
2.91836
2.93098
2.9457
2.95869
2.96814
2.97223
2.974
2.97638
2.98342
2.99537
3.0113
3.0276
3.03976
3.04648
3.05149
3.0562
3.06318
3.07651
3.0993
3.13252
3.17466
3.22297
3.2767
3.33227
3.38228
3.42015
3.44359
3.45538
3.46095
3.46328
3.4659
3.47333
3.48564
3.50011
3.51488
3.52388
3.53048
1
1
1
1
1
1
1
1
1
1
1
1
1
1
1
1
1
1
1
1
1
1
1
1
1
1
1
1
1
1
1
1
1
1
1
1
1
1
1
1
1
1
1
1
1
1
1
1
1
1
1
1
1
1
1
1
1
1
1
1
1
1
1
1
1
1
1
1
1
1
1
1
1
1
1
1
1
1
1
1
1
1
1
1
1
1
1
1
1
1
1
1
1
1
1
1
1
1
1
1
1
1
1
1
1
1
1
1
1
1
1
1
1
1
1
1
1
1
1
1
1
1
1
1
2.15583
2.82882
2.82829
2.82145
2.81626
2.81569
2.8203
2.82976
2.84011
2.84632
2.84788
2.84874
2.85046
2.85462
2.86002
2.86474
2.86824
2.87163
2.87609
2.88147
2.88616
2.88878
2.88878
2.88953
2.89247
2.89849
2.9056
2.90995
2.90993
2.90982
2.91262
2.91848
2.93009
2.94443
2.95743
2.96706
2.9714
2.97298
2.97467
2.98078
2.99201
3.00741
3.02365
3.03623
3.04341
3.04863
3.05355
3.06105
3.07443
3.09665
3.1289
3.17029
3.21806
3.27121
3.32654
3.37696
3.41574
3.44022
3.45259
3.45793
3.45954
3.46172
3.46976
3.48331
3.499
3.51449
3.52369
3.53044
1
1
1
1
1
1
1
1
1
1
1
1
1
1
1
1
1
1
1
1
1
1
1
1
1
1
1
1
1
1
1
1
1
1
1
1
1
1
1
1
1
1
1
1
1
1
1
1
1
1
1
1
1
1
1
1
1
1
1
1
1
1
1
1
1
1
1
1
1
1
1
1
1
1
1
1
1
1
1
1
1
1
1
1
1
1
1
1
1
1
1
1
1
1
1
1
1
1
1
1
1
1
1
1
1
1
1
1
1
1
1
1
1
1
1
1
1
1
1
1
1
1
1
1
2.06686
2.82406
2.82129
2.81395
2.81146
2.81406
2.82158
2.83253
2.84159
2.84543
2.84524
2.84559
2.84793
2.85319
2.85942
2.86415
2.86717
2.8698
2.87358
2.87868
2.88341
2.88629
2.8865
2.88704
2.88961
2.89498
2.9019
2.90674
2.90781
2.90964
2.91295
2.9186
2.92901
2.94284
2.95577
2.96561
2.97037
2.97184
2.97294
2.97804
2.98853
3.00332
3.01942
3.03237
3.04012
3.04567
3.05101
3.05927
3.07262
3.09407
3.1252
3.16567
3.21281
3.26534
3.32036
3.37115
3.41091
3.43654
3.44961
3.45481
3.45581
3.45765
3.46632
3.48103
3.49772
3.51383
3.52335
3.53024
1
1
1
1
1
1
1
1
1
1
1
1
1
1
1
1
1
1
1
1
1
1
1
1
1
1
1
1
1
1
1
1
1
1
1
1
1
1
1
1
1
1
1
1
1
1
1
1
1
1
1
1
1
1
1
1
1
1
1
1
1
1
1
1
1
1
1
1
1
1
1
1
1
1
1
1
1
1
1
1
1
1
1
1
1
1
1
1
1
1
1
1
1
1
1
1
1
1
1
1
1
1
1
1
1
1
1
1
1
1
1
1
1
1
1
1
1
1
1
1
1
1
1
1
1.97267
2.806
2.81151
2.80557
2.80676
2.81294
2.82337
2.83461
2.84142
2.84231
2.84192
2.84246
2.84594
2.8524
2.85909
2.8634
2.86561
2.86744
2.87061
2.87557
2.88059
2.88394
2.88431
2.88452
2.88647
2.89101
2.89803
2.9037
2.90663
2.91006
2.91345
2.91861
2.92768
2.94082
2.95365
2.96378
2.96912
2.9706
2.97119
2.97523
2.98493
2.99904
3.01493
3.0282
3.03661
3.04267
3.04867
3.05784
3.07104
3.09152
3.1214
3.16079
3.20722
3.25909
3.31376
3.36489
3.40564
3.43251
3.44642
3.45158
3.45213
3.45376
3.46304
3.47877
3.49624
3.51283
3.5228
3.52984
1
1
1
1
1
1
1
1
1
1
1
1
1
1
1
1
1
1
1
1
1
1
1
1
1
1
1
1
1
1
1
1
1
1
1
1
1
1
1
1
1
1
1
1
1
1
1
1
1
1
1
1
1
1
1
1
1
1
1
1
1
1
1
1
1
1
1
1
1
1
1
1
1
1
1
1
1
1
1
1
1
1
1
1
1
1
1
1
1
1
1
1
1
1
1
1
1
1
1
1
1
1
1
1
1
1
1
1
1
1
1
1
1
1
1
1
1
1
1
1
1
1
1
1
1.86713
2.7703
2.80156
2.79838
2.80357
2.81356
2.82609
2.83514
2.83922
2.83851
2.83847
2.83985
2.84475
2.85209
2.85861
2.86205
2.86336
2.86455
2.86741
2.87248
2.87792
2.88166
2.88203
2.8819
2.88309
2.88672
2.89424
2.90128
2.90651
2.91086
2.91379
2.91836
2.92612
2.93835
2.95108
2.96158
2.96765
2.96921
2.96942
2.97241
2.98118
2.99456
3.01017
3.02372
3.03287
3.0397
3.04667
3.05668
3.06963
3.089
3.1175
3.15562
3.20126
3.25244
3.30675
3.3582
3.39993
3.4281
3.44297
3.44826
3.44852
3.45014
3.45999
3.47651
3.49457
3.51152
3.522
3.52916
1
1
1
1
1
1
1
1
1
1
1
1
1
1
1
1
1
1
1
1
1
1
1
1
1
1
1
1
1
1
1
1
1
1
1
1
1
1
1
1
1
1
1
1
1
1
1
1
1
1
1
1
1
1
1
1
1
1
1
1
1
1
1
1
1
1
1
1
1
1
1
1
1
1
1
1
1
1
1
1
1
1
1
1
1
1
1
1
1
1
1
1
1
1
1
1
1
1
1
1
1
1
1
1
1
1
1
1
1
1
1
1
1
1
1
1
1
1
1
1
1
1
1
1
1.72406
2.70937
2.79158
2.7957
2.80521
2.81735
2.82833
2.83443
2.83528
2.83479
2.83528
2.83819
2.84434
2.85187
2.85749
2.85982
2.86047
2.86139
2.86428
2.86963
2.87542
2.87925
2.87947
2.87909
2.87956
2.88249
2.89098
2.89981
2.90696
2.91174
2.91389
2.91772
2.92426
2.93539
2.94813
2.95909
2.96594
2.96766
2.96755
2.96957
2.97729
2.9899
3.00514
3.01896
3.02894
3.03684
3.04515
3.05562
3.06837
3.08648
3.11347
3.15017
3.19491
3.24539
3.29933
3.35108
3.39379
3.42327
3.43921
3.44481
3.44503
3.44688
3.4572
3.47423
3.49268
3.50993
3.52091
3.52813
1
1
1
1
1
1
1
1
1
1
1
1
1
1
1
1
1
1
1
1
1
1
1
1
1
1
1
1
1
1
1
1
1
1
1
1
1
1
1
1
1
1
1
1
1
1
1
1
1
1
1
1
1
1
1
1
1
1
1
1
1
1
1
1
1
1
1
1
1
1
1
1
1
1
1
1
1
1
1
1
1
1
1
1
1
1
1
1
1
1
1
1
1
1
1
1
1
1
1
1
1
1
1
1
1
1
1
1
1
1
1
1
1
1
1
1
1
1
1
1
1
1
1
1
1.52974
2.62037
2.78801
2.7992
2.81167
2.82269
2.82978
2.83205
2.83106
2.83114
2.83284
2.8376
2.84427
2.85121
2.85546
2.85682
2.85723
2.85831
2.86146
2.86697
2.87283
2.87647
2.87657
2.87608
2.87613
2.87895
2.88877
2.89916
2.90746
2.91234
2.91378
2.91663
2.92211
2.93205
2.94491
2.95637
2.96401
2.96594
2.96551
2.96667
2.97329
2.98507
2.99984
3.01395
3.02489
3.03426
3.04398
3.05473
3.06714
3.08397
3.10931
3.14445
3.18816
3.23793
3.2915
3.34355
3.38723
3.41799
3.43501
3.44115
3.44178
3.44413
3.45467
3.47189
3.49058
3.50807
3.51949
3.52675
1
1
1
1
1
1
1
1
1
1
1
1
1
1
1
1
1
1
1
1
1
1
1
1
1
1
1
1
1
1
1
1
1
1
1
1
1
1
1
1
1
1
1
1
1
1
1
1
1
1
1
1
1
1
1
1
1
1
1
1
1
1
1
1
1
1
1
1
1
1
1
1
1
1
1
1
1
1
1
1
1
1
1
1
1
1
1
1
1
1
1
1
1
1
1
1
1
1
1
1
1
1
1
1
1
1
1
1
1
1
1
1
1
1
1
1
1
1
1
1
1
1
1
1
1.29046
2.50129
2.78905
2.80866
2.82077
2.82705
2.8288
2.8275
2.82676
2.82797
2.83178
2.83777
2.84408
2.84964
2.85255
2.85336
2.85402
2.85552
2.85896
2.86424
2.86982
2.87315
2.87346
2.87297
2.87323
2.87686
2.88758
2.89877
2.90759
2.91248
2.91332
2.91514
2.91967
2.92855
2.94151
2.95344
2.96181
2.96399
2.96323
2.96369
2.96925
2.98014
2.99424
3.00873
3.02081
3.03205
3.04299
3.05397
3.06587
3.08142
3.10505
3.13847
3.18099
3.23005
3.28325
3.33557
3.38022
3.41227
3.43041
3.43732
3.43878
3.44179
3.45232
3.46948
3.48828
3.50594
3.51774
3.525
1
1
1
1
1
1
1
1
1
1
1
1
1
1
1
1
1
1
1
1
1
1
1
1
1
1
1
1
1
1
1
1
1
1
1
1
1
1
1
1
1
1
1
1
1
1
1
1
1
1
1
1
1
1
1
1
1
1
1
1
1
1
1
1
1
1
1
1
1
1
1
1
1
1
1
1
1
1
1
1
1
1
1
1
1
1
1
1
1
1
1
1
1
1
1
1
1
1
1
1
1
1
1
1
1
1
1
1
1
1
1
1
1
1
1
1
1
1
1
1
1
1
1
1
1.03801
2.36925
2.80468
2.8182
2.82299
2.82543
2.82416
2.82242
2.82301
2.82625
2.83209
2.83813
2.84336
2.84697
2.84881
2.84975
2.85111
2.85305
2.85652
2.86115
2.86622
2.86938
2.8703
2.87027
2.87144
2.8762
2.88684
2.89816
2.90712
2.91202
2.9124
2.9134
2.91708
2.9251
2.93798
2.95029
2.95926
2.96179
2.9607
2.96062
2.96529
2.97509
2.98835
3.00338
3.01686
3.03019
3.04206
3.05319
3.0645
3.07887
3.1007
3.13223
3.17345
3.22178
3.27459
3.32714
3.37274
3.40611
3.42549
3.43341
3.436
3.43979
3.45009
3.46699
3.48577
3.50354
3.51562
3.52287
1
1
1
1
1
1
1
1
1
1
1
1
1
1
1
1
1
1
1
1
1
1
1
1
1
1
1
1
1
1
1
1
1
1
1
1
1
1
1
1
1
1
1
1
1
1
1
1
1
1
1
1
1
1
1
1
1
1
1
1
1
1
1
1
1
1
1
1
1
1
1
1
1
1
1
1
1
1
1
1
1
1
1
1
1
1
1
1
1
1
1
1
1
1
1
1
1
1
1
1
1
1
1
1
1
1
1
1
1
1
1
1
1
1
1
1
1
1
1
1
1
1
1
1
1.00023
2.23246
2.81485
2.82107
2.8199
2.8198
2.81774
2.81783
2.82072
2.82631
2.83281
2.83808
2.84144
2.84336
2.84456
2.84618
2.84855
2.85075
2.85382
2.85751
2.86221
2.8656
2.86743
2.86855
2.871
2.87613
2.886
2.89707
2.90591
2.91084
2.91108
2.91147
2.91447
2.92179
2.93431
2.94683
2.95629
2.95927
2.95799
2.95755
2.9614
2.96989
2.98219
2.99807
3.01322
3.02852
3.04115
3.05219
3.06302
3.07629
3.09621
3.12578
3.16556
3.21312
3.26551
3.31825
3.36475
3.39944
3.42023
3.42947
3.43346
3.43806
3.44802
3.46444
3.48305
3.50085
3.51312
3.52034
1
1
1
1
1
1
1
1
1
1
1
1
1
1
1
1
1
1
1
1
1
1
1
1
1
1
1
1
1
1
1
1
1