/*--------------------------------*- C++ -*----------------------------------*\
  =========                 |
  \\      /  F ield         | OpenFOAM: The Open Source CFD Toolbox
   \\    /   O peration     | Website:  https://openfoam.org
    \\  /    A nd           | Version:  7
     \\/     M anipulation  |
\*---------------------------------------------------------------------------*/
FoamFile
{
    version     2.0;
    format      ascii;
    class       volScalarField;
    location    "2.9";
    object      rho;
}
// * * * * * * * * * * * * * * * * * * * * * * * * * * * * * * * * * * * * * //

dimensions      [1 -3 0 0 0 0 0];

internalField   nonuniform List<scalar> 
4032
(
1.40001
1.40001
1.40001
1.40001
1.40001
1.40001
1.40001
1.40001
1.40001
1.40001
1.40001
1.44121
4.08953
5.453
5.51743
5.59249
5.6584
5.717
5.77041
5.82174
5.87086
5.91097
5.94034
5.96122
1.40001
1.40001
1.40001
1.40001
1.40001
1.40001
1.40001
1.40001
1.40001
1.40001
1.40001
1.40801
4.02537
5.43906
5.50806
5.58216
5.64779
5.7051
5.7569
5.80619
5.85294
5.89037
5.91691
5.93615
1.40001
1.40001
1.40001
1.40001
1.40001
1.40001
1.40001
1.40001
1.40001
1.40001
1.40001
1.40024
3.88418
5.41665
5.48904
5.5609
5.62613
5.68229
5.73274
5.78029
5.82512
5.8609
5.88537
5.90501
1.40001
1.40001
1.40001
1.40001
1.40001
1.40001
1.40001
1.40001
1.40001
1.40001
1.40001
1.40001
3.66467
5.37669
5.46167
5.53047
5.59566
5.65086
5.70022
5.74587
5.78753
5.81808
5.83517
5.8473
1.40001
1.40001
1.40001
1.40001
1.40001
1.40001
1.40001
1.40001
1.40001
1.40001
1.40001
1.40001
3.37501
5.31288
5.42795
5.49208
5.55496
5.60597
5.64977
5.68787
5.72139
5.74688
5.76134
5.78075
1.40001
1.40001
1.40001
1.40001
1.40001
1.40001
1.40001
1.40001
1.40001
1.40001
1.40001
1.40001
3.01873
5.21364
5.39591
5.45241
5.50863
5.55196
5.58804
5.61935
5.64671
5.66847
5.67481
5.66309
1.40001
1.40001
1.40001
1.40001
1.40001
1.40001
1.40001
1.40001
1.40001
1.40001
1.40001
1.40001
2.6083
5.0733
5.39337
5.43228
5.47388
5.50279
5.5217
5.5357
5.53984
5.52465
5.50087
5.48746
1.40001
1.40001
1.40001
1.40001
1.40001
1.40001
1.40001
1.40001
1.40001
1.40001
1.40001
1.40001
2.14004
4.86963
5.41304
5.41778
5.44173
5.45463
5.45367
5.44668
5.42202
5.38469
5.3205
5.28387
1.40001
1.40001
1.40001
1.40001
1.40001
1.40001
1.40001
1.40001
1.40001
1.40001
1.40001
1.40001
1.65286
4.57191
5.45329
5.40216
5.40531
5.39666
5.37257
5.34114
5.27629
5.16858
4.85267
3.99981
1.40001
1.40001
1.40001
1.40001
1.40001
1.40001
1.40001
1.40001
1.40001
1.40001
1.40001
1.40001
1.41525
3.987
5.32506
5.30653
5.32336
5.31419
5.27898
5.22373
5.11726
4.9255
4.59345
3.70025
1.40001
1.40001
1.40001
1.40001
1.40001
1.40001
1.40001
1.40001
1.40001
1.40001
1.40001
1.40001
1.39996
3.204
5.12418
5.27928
5.28786
5.25775
5.20382
5.11704
4.97834
4.73832
4.38502
3.56205
1.40001
1.40001
1.40001
1.40001
1.40001
1.40001
1.40001
1.40001
1.40001
1.40001
1.40001
1.40001
1.39999
2.37397
4.86001
5.24349
5.22043
5.18958
5.12775
5.0156
4.84987
4.60206
4.21313
3.53581
1.40001
1.40001
1.40001
1.40001
1.40001
1.40001
1.40001
1.40001
1.40001
1.40001
1.40001
1.40001
1.4
1.61735
4.49414
5.29204
5.18278
5.11222
5.03412
4.91398
4.73817
4.49794
4.09973
3.57157
1.40001
1.40001
1.40001
1.40001
1.40001
1.40001
1.40001
1.40001
1.40001
1.40001
1.40001
1.40001
1.4
1.40751
3.67971
5.02789
5.03654
5.01406
4.93851
4.81728
4.65001
4.40402
4.04236
3.61943
1.40001
1.40001
1.40001
1.40001
1.40001
1.40001
1.40001
1.40001
1.40001
1.40001
1.40001
1.40001
1.40001
1.39991
2.56374
4.79951
5.02031
4.98042
4.89059
4.75768
4.58931
4.34155
4.02827
3.67944
1.40001
1.40001
1.40001
1.40001
1.40001
1.40001
1.40001
1.40001
1.40001
1.40001
1.40001
1.40001
1.40001
1.39998
1.6386
4.31446
5.04777
4.95478
4.84373
4.69661
4.52975
4.29583
4.02287
3.72467
1.40001
1.40001
1.40001
1.40001
1.40001
1.40001
1.40001
1.40001
1.40001
1.40001
1.40001
1.40001
1.40001
1.4
1.4073
3.24792
4.89319
4.88123
4.79016
4.65791
4.48869
4.27434
4.02952
3.76542
1.40001
1.40001
1.40001
1.40001
1.40001
1.40001
1.40001
1.40001
1.40001
1.40001
1.40001
1.40001
1.40001
1.4
1.39996
1.92629
4.64056
4.9351
4.80097
4.65567
4.47281
4.26249
4.03247
3.79188
1.40001
1.40001
1.40001
1.40001
1.40001
1.40001
1.40001
1.40001
1.40001
1.40001
1.40001
1.40001
1.40001
1.40001
1.39999
1.4405
3.64747
4.84485
4.77159
4.64007
4.46522
4.26029
4.04207
3.82028
1.40001
1.40001
1.40001
1.40001
1.40001
1.40001
1.40001
1.40001
1.40001
1.40001
1.40001
1.40001
1.40001
1.40001
1.4
1.40008
2.17953
4.59938
4.80371
4.65643
4.48173
4.28365
4.07949
3.86907
1.40001
1.40001
1.40001
1.40001
1.40001
1.40001
1.40001
1.40001
1.40001
1.40001
1.40001
1.40001
1.40001
1.40001
1.4
1.4
1.48821
3.6775
4.75157
4.64535
4.48308
4.30438
4.11367
3.91013
1.40001
1.40001
1.40001
1.40001
1.40001
1.40001
1.40001
1.40001
1.40001
1.40001
1.40001
1.40001
1.40001
1.40001
1.40001
1.4
1.40078
2.18295
4.42001
4.67216
4.50654
4.33655
4.15276
3.95831
1.40001
1.40001
1.40001
1.40001
1.40001
1.40001
1.40001
1.40001
1.40001
1.40001
1.40001
1.40001
1.40001
1.40001
1.40001
1.40001
1.40001
1.48589
3.43517
4.6235
4.51441
4.34924
4.1749
3.99762
1.40001
1.40001
1.40001
1.40001
1.40001
1.40001
1.40001
1.40001
1.40001
1.40001
1.40001
1.40001
1.40001
1.40001
1.40001
1.40001
1.40001
1.40096
2.02609
4.15558
4.53809
4.36996
4.21182
4.04699
1.40001
1.40001
1.40001
1.40001
1.40001
1.40001
1.40001
1.40001
1.40001
1.40001
1.40001
1.40001
1.40001
1.40001
1.40001
1.40001
1.40001
1.40001
1.45163
2.92028
4.43472
4.40444
4.25619
4.09866
1.40001
1.40001
1.40001
1.40001
1.40001
1.40001
1.40001
1.40001
1.40001
1.40001
1.40001
1.40001
1.40001
1.40001
1.40001
1.40001
1.40001
1.40001
1.40061
1.73716
3.71467
4.47091
4.32229
4.15987
1.40001
1.40001
1.40001
1.40001
1.40001
1.40001
1.40001
1.40001
1.40001
1.40001
1.40001
1.40001
1.40001
1.40001
1.40001
1.40001
1.40001
1.40001
1.40001
1.41495
2.2992
4.12327
4.36891
4.21348
1.40001
1.40001
1.40001
1.40001
1.40001
1.40001
1.40001
1.40001
1.40001
1.40001
1.40001
1.40001
1.40001
1.40001
1.40001
1.40001
1.40001
1.40001
1.40001
1.40014
1.50654
2.97634
4.26781
4.26331
1.40001
1.40001
1.40001
1.40001
1.40001
1.40001
1.40001
1.40001
1.40001
1.40001
1.40001
1.40001
1.40001
1.40001
1.40001
1.40001
1.40001
1.40001
1.40001
1.40001
1.40222
1.75939
3.52652
4.27153
1.40001
1.40001
1.40001
1.40001
1.40001
1.40001
1.40001
1.40001
1.40001
1.40001
1.40001
1.40001
1.40001
1.40001
1.40001
1.40001
1.40001
1.40001
1.40001
1.40001
1.40002
1.41778
2.1429
3.84883
1.40001
1.40001
1.40001
1.40001
1.40001
1.40001
1.40001
1.40001
1.40001
1.40001
1.40001
1.40001
1.40001
1.40001
1.40001
1.40001
1.40001
1.40001
1.40001
1.40001
1.40001
1.4002
1.47213
2.56512
1.40001
1.40001
1.40001
1.40001
1.40001
1.40001
1.40001
1.40001
1.40001
1.40001
1.40001
1.40001
1.40001
1.40001
1.40001
1.40001
1.40001
1.40001
1.40001
1.40001
1.40001
1.40001
1.40136
1.58487
1.40001
1.40001
1.40001
1.40001
1.40001
1.40001
1.40001
1.40001
1.40001
1.40001
1.40001
1.40001
1.40001
1.40001
1.40001
1.40001
1.40001
1.40001
1.40001
1.40001
1.40001
1.40001
1.40001
1.40593
1.40001
1.40001
1.40001
1.40001
1.40001
1.40001
1.40001
1.40001
1.40001
1.40001
1.40001
1.40001
1.40001
1.40001
1.40001
1.40001
1.40001
1.40001
1.40001
1.40001
1.40001
1.40001
1.40001
1.40005
1.40001
1.40001
1.40001
1.40001
1.40001
1.40001
1.40001
1.40001
1.40001
1.40001
1.40001
1.40001
1.40001
1.40001
1.40001
1.40001
1.40001
1.40001
1.40001
1.40001
1.40001
1.40001
1.40001
1.40001
1.40001
1.40001
1.40001
1.40001
1.40001
1.40001
1.40001
1.40001
1.40001
1.40001
1.40001
1.40001
1.40001
1.40001
1.40001
1.40001
1.40001
1.40001
1.40001
1.40001
1.40001
1.40001
1.40001
1.40001
1.40001
1.40001
1.40001
1.40001
1.40001
1.40001
1.40001
1.40001
1.40001
1.40001
1.40001
1.40001
1.40001
1.40001
1.40001
1.40001
1.40001
1.40001
1.40001
1.40001
1.40001
1.40001
1.40001
1.40001
1.40001
1.40001
1.40001
1.40001
1.40001
1.40001
1.40001
1.40001
1.40001
1.40001
1.40001
1.40001
1.40001
1.40001
1.40001
1.40001
1.40001
1.40001
1.40001
1.40001
1.40001
1.40001
1.40001
1.40001
1.40001
1.40001
1.40001
1.40001
1.40001
1.40001
1.40001
1.40001
1.40001
1.40001
1.40001
1.40001
1.40001
1.40001
1.40001
1.40001
1.40001
1.40001
1.40001
1.40001
1.40001
1.40001
1.40001
1.40001
1.40001
1.40001
1.40001
1.40001
1.40001
1.40001
1.40001
1.40001
1.40001
1.40001
1.40001
1.40001
1.40001
1.40001
1.40001
1.40001
1.40001
1.40001
1.40001
1.40001
1.40001
1.40001
1.40001
1.40001
1.30849
0.46492
0.267989
0.227014
0.240519
0.264444
0.339927
0.45882
0.602396
0.712336
0.790243
0.834345
0.864666
0.903662
0.954654
1.01433
1.05426
1.05164
1.04033
1.02691
1.02679
1.0341
1.05332
1.07287
1.07661
1.07654
1.07522
1.07703
1.08024
1.088
1.0978
1.09859
1.10006
1.65812
2.91202
3.16968
3.16798
3.17115
3.16846
3.16639
3.16432
3.15268
3.12049
3.08602
3.05662
3.02939
2.99993
2.96503
2.92471
2.88195
2.84036
2.80323
2.77477
2.75277
2.72333
2.68549
2.64724
2.60962
2.57707
2.54971
2.52986
2.51606
2.49443
2.46546
2.43483
2.40154
2.36489
2.32712
2.2928
2.26273
2.23541
2.20966
2.18502
2.16163
2.13984
2.11933
2.09861
2.07306
2.03714
1.99496
1.96447
1.94535
1.9287
1.91317
1.89971
1.88502
1.86915
1.84559
1.8014
1.75272
1.72941
1.71645
1.70481
1.69523
1.69077
1.67035
2.00046
1.21616
0.857155
0.698654
0.610228
0.549022
0.536207
0.547362
0.569501
0.607226
0.652744
0.706511
0.771804
0.836825
0.890417
0.941665
1.00005
1.03331
1.03521
1.03808
1.04746
1.05928
1.07432
1.09249
1.10458
1.10733
1.10582
1.09711
1.09258
1.09431
1.10172
1.11252
1.1422
1.64926
3.00032
3.30266
3.2395
3.19163
3.19397
3.2009
3.20543
3.1867
3.14396
3.10213
3.07045
3.04559
3.02055
2.98973
2.95491
2.9162
2.87502
2.83504
2.7988
2.76677
2.73749
2.70532
2.67037
2.63341
2.59433
2.56221
2.53644
2.51315
2.48968
2.46565
2.43945
2.41115
2.3802
2.34472
2.30755
2.27396
2.24429
2.21691
2.19089
2.16584
2.14156
2.11819
2.09569
2.07225
2.04336
2.0078
1.97449
1.95079
1.93302
1.91697
1.90118
1.88456
1.86532
1.84113
1.80726
1.7677
1.73822
1.72155
1.70964
1.69949
1.69169
1.66919
2.49208
1.83551
1.43126
1.14245
0.952821
0.818268
0.740044
0.701796
0.659771
0.665049
0.695588
0.735289
0.781351
0.821824
0.862037
0.897922
0.949376
1.02087
1.06687
1.09782
1.12697
1.13653
1.13716
1.14229
1.15423
1.16225
1.16363
1.15981
1.14364
1.12929
1.13009
1.16556
1.35681
1.80023
2.76779
3.43565
3.45515
3.40303
3.35947
3.33604
3.32871
3.29816
3.25446
3.20959
3.16768
3.12888
3.08975
3.04832
3.01037
2.97643
2.94352
2.90713
2.86434
2.81923
2.78004
2.74501
2.71311
2.6827
2.65157
2.6159
2.57415
2.53471
2.50526
2.48037
2.45655
2.43212
2.40624
2.37755
2.34465
2.30957
2.27538
2.24343
2.21414
2.18697
2.16038
2.13276
2.10406
2.07576
2.05016
2.02574
1.99918
1.97158
1.94839
1.92872
1.90936
1.88857
1.86415
1.8355
1.80754
1.78389
1.76077
1.73844
1.72146
1.70826
1.69673
1.67279
2.82252
2.25555
1.84931
1.57422
1.32499
1.14192
1.03627
0.959412
0.87404
0.830078
0.815336
0.798
0.783164
0.781862
0.790707
0.805831
0.840192
0.918199
1.00232
1.05896
1.09976
1.12678
1.13773
1.15104
1.17354
1.20106
1.2155
1.21471
1.20369
1.1822
1.20079
1.37332
1.84332
2.12503
2.35604
2.92789
3.36293
3.57667
3.55133
3.4895
3.4371
3.38212
3.34019
3.30523
3.2729
3.22808
3.17655
3.12531
3.08177
3.04731
3.01421
2.97902
2.93785
2.88873
2.83852
2.79903
2.76638
2.73641
2.70657
2.67342
2.63368
2.5861
2.54017
2.50716
2.48232
2.45943
2.43676
2.4125
2.38533
2.35435
2.31936
2.2813
2.24374
2.21089
2.18289
2.15578
2.12781
2.10156
2.07899
2.05751
2.03359
2.0049
1.97514
1.94994
1.9268
1.901
1.87065
1.83991
1.81786
1.80138
1.7848
1.76513
1.7432
1.72387
1.70982
1.68241
3.05703
2.58787
2.19186
1.90692
1.65353
1.43132
1.30446
1.20131
1.1097
1.02633
0.944462
0.889223
0.857001
0.835689
0.811593
0.804081
0.805482
0.823454
0.869464
0.939046
1.00321
1.05665
1.10128
1.12569
1.15587
1.18777
1.20849
1.21491
1.22053
1.24638
1.41773
1.8805
2.24091
2.29738
2.29364
2.40249
2.80117
3.30437
3.53094
3.55993
3.53035
3.46818
3.42034
3.37876
3.35106
3.31055
3.2503
3.18557
3.13787
3.10275
3.07015
3.03683
3.00028
2.95407
2.89775
2.84932
2.81573
2.78586
2.75535
2.72289
2.68762
2.64503
2.59309
2.54383
2.50975
2.48466
2.46214
2.44105
2.41899
2.39491
2.36753
2.33318
2.28882
2.23884
2.19658
2.16906
2.14916
2.13187
2.11569
2.09801
2.07692
2.04808
2.00926
1.97118
1.94051
1.911
1.88181
1.8602
1.8444
1.82871
1.81216
1.7933
1.76975
1.74328
1.72408
1.69371
3.20515
2.81114
2.46364
2.17017
1.92018
1.71145
1.55536
1.4111
1.29171
1.21776
1.14296
1.04592
0.997104
0.97595
0.937487
0.885716
0.847976
0.843475
0.849852
0.858487
0.879248
0.913752
0.967009
1.02164
1.06681
1.11277
1.16064
1.18037
1.21792
1.41195
1.86643
2.24147
2.32962
2.33976
2.33217
2.31323
2.3776
2.69036
3.15775
3.43354
3.50671
3.51068
3.47224
3.42247
3.38007
3.3367
3.27415
3.20984
3.16325
3.12483
3.09423
3.06461
3.03143
2.99276
2.93937
2.87993
2.83938
2.80935
2.78161
2.75396
2.72414
2.6903
2.64619
2.58822
2.53338
2.49739
2.47205
2.45184
2.43609
2.41876
2.39805
2.37169
2.33286
2.27662
2.22077
2.19252
2.17502
2.15912
2.14633
2.13236
2.1147
2.09125
2.04995
1.99237
1.94499
1.91559
1.89771
1.88416
1.87185
1.85793
1.84249
1.82457
1.80045
1.76673
1.73595
1.70242
3.32852
2.97261
2.66822
2.40392
2.13957
1.92937
1.77283
1.62586
1.4795
1.37823
1.30427
1.21283
1.11912
1.07526
1.04355
1.0043
0.96415
0.919395
0.875911
0.869427
0.871235
0.883796
0.903083
0.923705
0.943197
0.980156
1.03474
1.09729
1.29009
1.76022
2.16213
2.28199
2.33942
2.33885
2.33896
2.31679
2.29834
2.32821
2.5213
2.92849
3.32505
3.43782
3.46912
3.44505
3.39853
3.35294
3.28422
3.21488
3.16482
3.12746
3.09956
3.07589
3.0455
3.0116
2.96755
2.90641
2.85038
2.81678
2.79117
2.76853
2.74319
2.71615
2.68244
2.63178
2.56314
2.51178
2.48693
2.46819
2.45119
2.43292
2.41201
2.38746
2.35635
2.31167
2.25471
2.21743
2.19799
2.18066
2.16613
2.15406
2.13826
2.11755
2.07789
2.00894
1.9528
1.93181
1.91894
1.90676
1.89585
1.8827
1.86788
1.85069
1.82523
1.7822
1.74312
1.71483
3.41838
3.10469
2.82613
2.57679
2.32068
2.12333
1.96387
1.80523
1.64578
1.53937
1.45282
1.37639
1.28874
1.18535
1.13087
1.11382
1.09197
1.05091
0.985467
0.928257
0.906979
0.904166
0.909112
0.906905
0.902863
0.908372
0.934147
1.10095
1.57803
1.97585
2.11383
2.16775
2.24005
2.26698
2.29255
2.30559
2.29592
2.27377
2.26882
2.38272
2.76008
3.18657
3.39228
3.43599
3.41713
3.36154
3.29545
3.23082
3.1707
3.12847
3.09704
3.07254
3.04864
3.01834
2.98416
2.93784
2.87619
2.82223
2.78979
2.76414
2.74558
2.72462
2.69876
2.6644
2.61432
2.55146
2.49727
2.46199
2.43714
2.41858
2.40329
2.3856
2.36588
2.34024
2.29952
2.24685
2.215
2.19858
2.18544
2.17053
2.15196
2.12802
2.09045
2.03261
1.97714
1.95175
1.93793
1.92542
1.91298
1.89995
1.88613
1.86953
1.84164
1.7883
1.7486
1.72686
3.49235
3.21332
2.95256
2.71737
2.49197
2.28677
2.11574
1.95818
1.81814
1.69982
1.57745
1.4892
1.42815
1.35512
1.26416
1.18711
1.16271
1.13698
1.09549
1.04962
1.00329
0.955501
0.924685
0.911566
0.911266
0.929962
1.05326
1.44055
1.82166
1.9073
1.92947
1.95731
2.01975
2.09742
2.16238
2.21536
2.24088
2.2381
2.24178
2.24035
2.30612
2.59937
3.00793
3.3058
3.36936
3.35945
3.30582
3.25751
3.20766
3.15421
3.10682
3.07296
3.04519
3.01767
2.98853
2.95649
2.91258
2.85196
2.79799
2.76772
2.74286
2.7212
2.70332
2.67966
2.65018
2.60158
2.52617
2.46527
2.43598
2.4151
2.39668
2.38266
2.36953
2.35237
2.32849
2.28917
2.23948
2.2009
2.17592
2.15586
2.1361
2.11451
2.09038
2.05911
2.01827
1.97746
1.95683
1.94542
1.93429
1.92086
1.90407
1.88208
1.85006
1.80301
1.76519
1.73672
3.54529
3.29342
3.06131
2.83656
2.61427
2.42989
2.26352
2.09198
1.95044
1.83872
1.72381
1.5973
1.5224
1.47198
1.40076
1.31946
1.25123
1.20329
1.17637
1.15247
1.12158
1.06938
0.991209
0.964152
0.97274
1.06114
1.3899
1.80344
1.90403
1.88865
1.8712
1.85897
1.8605
1.88399
1.92314
1.97269
2.03895
2.10111
2.16183
2.18193
2.18967
2.23449
2.41799
2.80796
3.11299
3.28287
3.30459
3.28287
3.25094
3.20851
3.14913
3.08617
3.04118
3.01215
2.98735
2.96321
2.93458
2.89333
2.82988
2.77331
2.74339
2.72026
2.70324
2.68532
2.66019
2.62587
2.56889
2.49565
2.44499
2.41871
2.39997
2.38375
2.37029
2.35497
2.3371
2.31263
2.26977
2.21449
2.17516
2.15015
2.12842
2.10749
2.08889
2.07242
2.05185
2.0198
1.98013
1.95036
1.93099
1.9132
1.89383
1.87119
1.84629
1.82007
1.79517
1.75659
3.59336
3.3682
3.15102
2.93712
2.73551
2.55382
2.38125
2.21265
2.08077
1.96436
1.84694
1.71992
1.63758
1.56738
1.49798
1.43666
1.3784
1.31353
1.24097
1.208
1.1951
1.16033
1.10445
1.06697
1.13259
1.44382
1.83178
1.9856
1.96328
1.92876
1.91068
1.89279
1.86672
1.83227
1.8224
1.82243
1.84182
1.88772
1.94874
2.00581
2.04994
2.06889
2.09576
2.22976
2.53461
2.93167
3.17298
3.23571
3.28439
3.25309
3.19846
3.11725
3.04274
3.01283
2.99056
2.97399
2.9511
2.92026
2.8711
2.80004
2.74997
2.7233
2.70068
2.6805
2.65734
2.62978
2.59199
2.53733
2.47609
2.43319
2.4084
2.38991
2.37297
2.35614
2.33856
2.31802
2.28744
2.24081
2.18869
2.15182
2.12835
2.11019
2.09578
2.08314
2.06951
2.04846
2.00797
1.95999
1.93051
1.91037
1.89021
1.86754
1.8479
1.83269
1.81878
1.78447
3.65138
3.43868
3.23214
3.02486
2.8342
2.66186
2.49507
2.33225
2.19431
2.0742
1.95978
1.84886
1.76049
1.67427
1.58683
1.52017
1.47554
1.42738
1.36528
1.28996
1.23339
1.21286
1.1969
1.26882
1.60492
1.99851
2.1136
2.07458
2.02799
2.00052
1.98439
1.95789
1.92547
1.88044
1.83332
1.81776
1.81524
1.81481
1.81894
1.83304
1.85001
1.87035
1.8854
1.91029
2.00304
2.25435
2.67871
2.98911
3.19153
3.22607
3.21574
3.14443
3.05845
3.01888
2.99431
2.97858
2.9603
2.93346
2.89863
2.8422
2.77325
2.72891
2.7019
2.67657
2.65113
2.62534
2.59814
2.56387
2.51708
2.46436
2.4245
2.39892
2.37818
2.35844
2.33844
2.317
2.2921
2.2592
2.21574
2.17185
2.14062
2.12006
2.10475
2.09145
2.07841
2.06109
2.02815
1.97712
1.9336
1.9073
1.88726
1.87144
1.85965
1.84782
1.83644
1.80565
3.70294
3.50097
3.29971
3.10657
2.93245
2.76363
2.59346
2.4443
2.31458
2.18795
2.05952
1.95984
1.87181
1.78328
1.69944
1.6219
1.54578
1.49589
1.45867
1.39778
1.32602
1.2914
1.36113
1.71135
2.18106
2.29204
2.24229
2.17338
2.12427
2.10104
2.07305
2.04048
2.00793
1.97078
1.91865
1.86819
1.84012
1.82088
1.80751
1.80199
1.80127
1.79258
1.77442
1.75723
1.75768
1.79297
1.96165
2.30424
2.74021
3.02107
3.14105
3.13827
3.08831
3.03682
3.00163
2.97542
2.95558
2.93396
2.90418
2.86237
2.80542
2.74438
2.70286
2.67265
2.64553
2.62092
2.59867
2.57571
2.54563
2.50184
2.45053
2.41111
2.38496
2.36286
2.34081
2.31787
2.29386
2.26759
2.23583
2.19813
2.16364
2.13893
2.11902
2.09962
2.07931
2.05708
2.02974
1.99011
1.94466
1.9114
1.89327
1.88174
1.87165
1.86119
1.85125
1.82042
3.76222
3.57074
3.37629
3.19323
3.0272
2.86175
2.69363
2.55231
2.42006
2.29312
2.16574
2.06885
1.97224
1.87432
1.79038
1.72752
1.65592
1.57037
1.50423
1.46618
1.43261
1.51114
1.87847
2.34752
2.4781
2.43063
2.35684
2.27802
2.2277
2.20124
2.17522
2.14374
2.11094
2.07203
2.01811
1.95198
1.90151
1.8724
1.84769
1.82499
1.80404
1.78853
1.77833
1.7607
1.72061
1.68885
1.68831
1.73842
1.92959
2.317
2.71052
3.00395
3.03172
3.0497
3.02017
2.97766
2.94374
2.91191
2.88169
2.85376
2.8185
2.76678
2.71144
2.67103
2.64206
2.61814
2.59773
2.57847
2.55704
2.52679
2.48026
2.42792
2.39125
2.36603
2.3435
2.32138
2.29907
2.27535
2.24782
2.21435
2.1798
2.15278
2.13105
2.10926
2.08466
2.05652
2.02579
1.99306
1.95888
1.93102
1.91441
1.90182
1.88898
1.87548
1.86478
1.83518
3.81835
3.63508
3.45157
3.28113
3.11651
2.94964
2.79391
2.65673
2.52282
2.3865
2.27005
2.16953
2.07094
1.97149
1.87977
1.80722
1.74432
1.66725
1.58937
1.54461
1.63407
2.0195
2.52674
2.65209
2.5898
2.52343
2.46702
2.39852
2.33481
2.29979
2.26961
2.23634
2.20021
2.16111
2.11694
2.06062
1.99138
1.93661
1.90255
1.87517
1.84986
1.82784
1.80702
1.78116
1.74574
1.69856
1.6754
1.65761
1.65036
1.70833
1.92027
2.3378
2.69369
2.93934
3.00098
2.99096
2.95518
2.9088
2.87328
2.84028
2.80729
2.77534
2.72819
2.67726
2.64218
2.61707
2.59717
2.57882
2.55921
2.53485
2.49964
2.44802
2.39872
2.36668
2.34372
2.32369
2.3039
2.28256
2.25731
2.22469
2.18661
2.15545
2.13335
2.11231
2.08868
2.06137
2.03143
2.00125
1.9731
1.95012
1.93383
1.91999
1.90665
1.89247
1.87506
1.8273
3.87941
3.70493
3.5309
3.36676
3.20371
3.03828
2.89293
2.75443
2.61915
2.48055
2.37222
2.26426
2.16287
2.0603
1.98036
1.89883
1.8109
1.74259
1.70058
1.81334
2.24891
2.68061
2.81071
2.76695
2.704
2.65454
2.60242
2.53691
2.45366
2.39505
2.35484
2.31544
2.27533
2.23613
2.19719
2.1525
2.09348
2.02571
1.97201
1.93594
1.90697
1.87967
1.85279
1.82483
1.79407
1.75424
1.7052
1.6612
1.63718
1.62804
1.62822
1.69736
1.93642
2.32699
2.67865
2.88595
2.92897
2.90946
2.8915
2.84783
2.80275
2.77332
2.73828
2.69446
2.65861
2.629
2.60075
2.5773
2.55864
2.54065
2.51114
2.46383
2.41439
2.37624
2.34826
2.32648
2.30646
2.28574
2.26209
2.23072
2.19038
2.15347
2.12698
2.10548
2.08517
2.06521
2.04442
2.02099
1.99288
1.96391
1.94677
1.93627
1.92563
1.90927
1.88428
1.82311
3.93435
3.76893
3.60658
3.44299
3.27754
3.12346
2.98343
2.84539
2.70355
2.57631
2.4674
2.35805
2.25078
2.1503
2.06874
1.97932
1.89522
1.85439
2.00215
2.50996
2.9511
3.03848
2.96175
2.86807
2.81613
2.77279
2.71841
2.65613
2.57833
2.49655
2.43858
2.39407
2.35298
2.31327
2.27334
2.2301
2.17868
2.11573
2.05156
2.00344
1.96793
1.9364
1.90608
1.87552
1.84446
1.8108
1.77187
1.72753
1.6826
1.64218
1.61324
1.60603
1.60763
1.67922
1.9308
2.28505
2.65527
2.77963
2.84728
2.83319
2.81266
2.78521
2.74697
2.71173
2.68009
2.64844
2.61592
2.58638
2.55621
2.52214
2.48811
2.4567
2.42554
2.39227
2.35848
2.33141
2.30916
2.28603
2.25991
2.23058
2.19649
2.1581
2.12414
2.10096
2.08428
2.06978
2.0552
2.03683
2.01183
1.98511
1.96108
1.9354
1.9105
1.88834
1.86371
1.81534
3.99273
3.83011
3.67206
3.51249
3.35226
3.20745
3.06711
2.93039
2.79107
2.67574
2.55969
2.45178
2.33773
2.24767
2.14651
2.06093
2.03313
2.22907
2.78572
3.23913
3.24568
3.17607
3.07516
2.97403
2.91541
2.86929
2.81458
2.75742
2.69285
2.61343
2.534
2.47329
2.42548
2.38216
2.3396
2.29612
2.25033
2.19911
2.13917
2.07554
2.02297
1.98387
1.95114
1.92055
1.89084
1.86147
1.83102
1.79787
1.75943
1.71369
1.66438
1.61875
1.59099
1.58198
1.58827
1.65886
1.90364
2.25367
2.59155
2.74946
2.75797
2.76496
2.75871
2.72548
2.69548
2.66453
2.62833
2.59175
2.55125
2.51133
2.47912
2.45427
2.43253
2.40832
2.3764
2.34103
2.30966
2.28307
2.25928
2.23231
2.19975
2.16198
2.13208
2.11178
2.09099
2.06996
2.05179
2.03624
2.02246
2.00753
1.9812
1.94321
1.9051
1.87269
1.84608
1.80993
4.04637
3.88814
3.73025
3.57399
3.43002
3.28934
3.14934
3.00658
2.88355
2.76758
2.65167
2.53384
2.429
2.32565
2.22656
2.22701
2.48193
3.04669
3.47002
3.49137
3.40599
3.30645
3.20483
3.09361
3.01578
2.96257
2.91249
2.85896
2.80035
2.73262
2.65355
2.57148
2.50115
2.44518
2.39716
2.35284
2.31095
2.26968
2.22452
2.1704
2.10748
2.0458
1.99613
1.95716
1.92454
1.89635
1.87163
1.84826
1.82176
1.78803
1.74478
1.68938
1.63821
1.59596
1.57274
1.56787
1.57667
1.65546
1.87749
2.2312
2.49608
2.67795
2.72863
2.72865
2.71661
2.68008
2.64046
2.59575
2.54377
2.50025
2.47436
2.45626
2.43978
2.41937
2.38995
2.35439
2.32051
2.28646
2.24798
2.20875
2.17418
2.15749
2.14659
2.12742
2.10007
2.07665
2.0589
2.04268
2.02455
1.99904
1.96465
1.92532
1.89058
1.86111
1.83962
1.81706
4.12474
3.96708
3.80897
3.65617
3.51439
3.37359
3.23139
3.09427
2.97502
2.85454
2.73577
2.61609
2.51325
2.39995
2.43962
2.82156
3.41729
3.71352
3.73863
3.62358
3.53322
3.45067
3.35904
3.24546
3.12826
3.0555
3.00149
2.94862
2.89175
2.83082
2.76285
2.68367
2.59833
2.52171
2.46075
2.4105
2.36613
2.32563
2.28709
2.24625
2.19733
2.13738
2.0723
2.014
1.96916
1.93476
1.90572
1.8801
1.8554
1.82775
1.7908
1.74004
1.69052
1.64858
1.61789
1.59101
1.56873
1.55302
1.5572
1.63302
1.83441
2.16561
2.42991
2.61776
2.6835
2.68405
2.66884
2.6167
2.5522
2.51188
2.48638
2.45795
2.43283
2.41154
2.39219
2.37133
2.33962
2.29412
2.24689
2.20724
2.17858
2.15498
2.1301
2.11043
2.09514
2.08119
2.06561
2.04724
2.02493
1.99634
1.95864
1.91068
1.87351
1.85328
1.84536
1.83056
4.21187
4.05302
3.88763
3.73773
3.59356
3.44974
3.30465
3.17839
3.05611
2.93459
2.8054
2.69856
2.58777
2.65938
3.14464
3.88531
4.03888
3.94138
3.80494
3.70805
3.65075
3.58786
3.49912
3.38934
3.25843
3.15436
3.08764
3.03032
2.97238
2.91138
2.84756
2.77832
2.70052
2.61883
2.54501
2.48344
2.43012
2.38189
2.33805
2.29772
2.25665
2.20765
2.14743
2.08501
2.03465
1.99578
1.96142
1.92791
1.8945
1.85985
1.81943
1.76948
1.71953
1.68261
1.65953
1.63632
1.61151
1.58413
1.55938
1.52497
1.51675
1.57864
1.79327
2.09879
2.39599
2.54877
2.6129
2.5986
2.57389
2.55011
2.51209
2.47414
2.44536
2.42173
2.39529
2.35816
2.31665
2.28093
2.24879
2.22059
2.19215
2.16124
2.13219
2.11121
2.09472
2.07898
2.06325
2.04539
2.02121
1.99118
1.94944
1.90126
1.87049
1.85892
1.85231
1.83363
4.23788
4.13956
3.96976
3.81883
3.67207
3.52171
3.38686
3.26053
3.13662
2.99996
2.88857
2.79123
2.92237
3.48914
4.17224
4.44074
4.30354
4.07358
3.8999
3.82123
3.77513
3.71652
3.6273
3.52209
3.39666
3.27527
3.19185
3.12444
3.05858
2.99203
2.92586
2.85971
2.79001
2.71418
2.63759
2.5689
2.50925
2.45501
2.40305
2.35235
2.30265
2.25161
2.196
2.13831
2.08868
2.04928
2.01447
1.97925
1.94192
1.90211
1.85763
1.80625
1.75238
1.71079
1.68247
1.65846
1.63794
1.61712
1.58877
1.55044
1.51393
1.47183
1.4721
1.53988
1.7646
2.06454
2.36019
2.47088
2.49162
2.50384
2.50364
2.49165
2.4706
2.43884
2.39836
2.35429
2.30949
2.27042
2.24167
2.21918
2.19438
2.16527
2.13727
2.11416
2.09891
2.08773
2.07588
2.05886
2.03189
1.9849
1.92675
1.89108
1.88138
1.87642
1.87103
1.84821
4.02234
4.19806
4.07008
3.91162
3.75778
3.61284
3.47321
3.3513
3.20868
3.08566
3.02579
3.26134
3.95213
4.48408
4.65301
4.56849
4.41273
4.2387
4.07983
3.9904
3.91831
3.83852
3.74523
3.64164
3.52678
3.40989
3.31226
3.23315
3.1607
3.08944
3.01813
2.9458
2.87035
2.79051
2.71054
2.63918
2.57888
2.52539
2.47373
2.4201
2.36223
2.29949
2.23486
2.17535
2.12538
2.08426
2.04856
2.01448
1.97891
1.93904
1.89402
1.8447
1.79043
1.74283
1.70683
1.67743
1.64977
1.6197
1.59248
1.56729
1.53281
1.48615
1.45308
1.43981
1.44917
1.53105
1.73112
2.01675
2.26423
2.42259
2.43983
2.44123
2.43683
2.40996
2.37649
2.34614
2.30918
2.27563
2.25089
2.22148
2.18505
2.15641
2.13605
2.11819
2.10156
2.08279
2.05992
2.03593
2.00846
1.96754
1.92036
1.89817
1.88616
1.87384
1.86077
1.83328
2.96975
4.07924
4.14256
4.01895
3.84933
3.69886
3.55832
3.43653
3.29101
3.32572
3.69228
4.50423
4.90855
4.92588
4.80922
4.64989
4.53746
4.42227
4.29132
4.17883
4.07933
3.97642
3.87185
3.76592
3.65448
3.53842
3.43252
3.34495
3.26715
3.19246
3.1179
3.04016
2.95557
2.86406
2.7739
2.69623
2.6328
2.57802
2.52645
2.47319
2.41413
2.34816
2.27924
2.21572
2.16163
2.1148
2.07218
2.03205
1.99541
1.96047
1.92072
1.87385
1.82315
1.77552
1.73356
1.69827
1.66791
1.64054
1.61208
1.57871
1.54334
1.5049
1.46624
1.43581
1.42411
1.41129
1.41928
1.50297
1.69141
1.97627
2.18046
2.33631
2.38418
2.38801
2.37767
2.34388
2.30122
2.268
2.23216
2.19265
2.17591
2.1664
2.15087
2.13243
2.11188
2.08855
2.06082
2.0273
1.98425
1.94535
1.92155
1.90889
1.8945
1.87757
1.8613
1.83025
1.75943
3.294
4.08858
4.08361
3.95601
3.77413
3.65363
3.54637
3.70457
4.27997
4.97163
5.39468
5.30463
5.11708
4.94813
4.81763
4.71507
4.60674
4.47931
4.34619
4.22478
4.11179
4.0013
3.89273
3.78156
3.66438
3.5491
3.44785
3.3594
3.277
3.19598
3.11226
3.02281
2.9286
2.83624
2.75417
2.6844
2.62294
2.56539
2.50864
2.44944
2.38526
2.31813
2.25491
2.19987
2.15063
2.1054
2.06152
2.0155
1.96483
1.91374
1.86617
1.82379
1.787
1.75228
1.72034
1.68889
1.6612
1.62988
1.59489
1.55853
1.51481
1.47934
1.44726
1.42322
1.40067
1.38912
1.37449
1.38226
1.45266
1.63729
1.90361
2.10577
2.25408
2.31504
2.3077
2.30131
2.28458
2.24046
2.19434
2.16837
2.14591
2.12247
2.10102
2.08082
2.06033
2.0392
2.00928
1.96953
1.93799
1.92316
1.91173
1.8974
1.87905
1.85546
1.8219
1.419
1.98214
3.5008
4.08027
4.02976
3.85983
3.8608
4.25676
5.06461
5.53525
5.68176
5.65255
5.50472
5.32758
5.16727
5.04251
4.9158
4.7834
4.64519
4.50327
4.36866
4.24417
4.12492
4.0072
3.888
3.7658
3.64454
3.53186
3.43089
3.33839
3.24984
3.16173
3.07179
2.97996
2.88936
2.80518
2.7301
2.6624
2.59801
2.53399
2.47029
2.40794
2.34633
2.28583
2.23148
2.18465
2.13962
2.09017
2.03589
1.97964
1.92556
1.87835
1.83185
1.79197
1.75819
1.72474
1.68466
1.65485
1.63999
1.61913
1.58137
1.52496
1.4976
1.48251
1.46211
1.43623
1.40629
1.37382
1.34741
1.32277
1.33622
1.41049
1.61033
1.86256
2.05763
2.14834
2.23333
2.23759
2.22699
2.20248
2.17247
2.13833
2.11107
2.09094
2.07271
2.04917
2.0144
1.9794
1.96282
1.95396
1.94259
1.92881
1.90971
1.88523
1.8605
1.82892
1.40023
1.44599
2.19525
3.7253
3.87743
4.14293
4.94919
5.82395
6.17532
6.05151
5.95394
5.77801
5.66412
5.52253
5.35878
5.21275
5.07165
4.92714
4.78157
4.6336
4.48711
4.34811
4.21801
4.09385
3.97041
3.84635
3.7226
3.60328
3.49226
3.38965
3.29257
3.19805
3.10467
3.01293
2.92456
2.84134
2.76397
2.69181
2.62311
2.55574
2.48858
2.42163
2.35603
2.29364
2.23478
2.1807
2.12832
2.07667
2.02715
1.97855
1.92341
1.87395
1.85119
1.82092
1.78024
1.73536
1.69824
1.66772
1.63284
1.59374
1.55421
1.52456
1.50516
1.48257
1.45725
1.4283
1.39761
1.36563
1.33607
1.31715
1.30242
1.28029
1.29742
1.37466
1.56934
1.79766
2.03981
2.11102
2.12157
2.13299
2.12215
2.10854
2.09942
2.08705
2.06632
2.03916
2.00193
1.97093
1.95339
1.93933
1.92574
1.91067
1.89391
1.88113
1.86453
1.87574
1.40001
1.40072
1.49126
2.44837
3.40942
5.58563
6.48948
6.52508
6.41173
6.20037
6.01114
5.89017
5.79926
5.66636
5.49203
5.33445
5.19572
5.05229
4.9041
4.75137
4.59498
4.44328
4.30262
4.17089
4.04544
3.92055
3.79491
3.67136
3.55454
3.4465
3.34555
3.24906
3.15563
3.06529
2.97841
2.89536
2.81634
2.74121
2.66909
2.59832
2.5278
2.45805
2.39043
2.32521
2.26156
2.20021
2.14498
2.09623
2.04955
2.00111
1.95066
1.89737
1.84107
1.7985
1.76249
1.72901
1.6975
1.66307
1.62447
1.58753
1.55426
1.53101
1.50744
1.48348
1.46096
1.43386
1.40218
1.36976
1.3425
1.32164
1.2962
1.27416
1.2536
1.23998
1.26154
1.35638
1.55158
1.77416
1.95135
2.06338
2.06238
2.06108
2.0613
2.04841
2.02429
2.00595
1.99031
1.97031
1.95028
1.93845
1.92831
1.91577
1.90215
1.90821
1.94314
2.15473
1.40001
1.40001
1.40226
1.54268
3.70936
6.75471
6.74661
6.41327
6.24618
6.12798
6.00792
5.90467
5.81388
5.66859
5.48332
5.31095
5.15835
5.00209
4.84485
4.68985
4.53326
4.37745
4.23244
4.09778
3.96818
3.84132
3.71632
3.59465
3.47953
3.37298
3.27406
3.18033
3.08996
3.00235
2.9177
2.83677
2.76023
2.68815
2.61938
2.55177
2.48375
2.41534
2.34791
2.28319
2.22293