/*--------------------------------*- C++ -*----------------------------------*\
  =========                 |
  \\      /  F ield         | OpenFOAM: The Open Source CFD Toolbox
   \\    /   O peration     | Website:  https://openfoam.org
    \\  /    A nd           | Version:  7
     \\/     M anipulation  |
\*---------------------------------------------------------------------------*/
FoamFile
{
    version     2.0;
    format      ascii;
    class       volVectorField;
    location    "2.9";
    object      U;
}
// * * * * * * * * * * * * * * * * * * * * * * * * * * * * * * * * * * * * * //

dimensions      [0 1 -1 0 0 0 0];

internalField   nonuniform List<vector> 
4032
(
(3 -8.14406e-19 0)
(3 -3.15848e-17 0)
(3 -1.14164e-16 0)
(3 -1.05445e-16 0)
(3 -2.03402e-17 0)
(3 1.55941e-16 0)
(3 3.18135e-16 0)
(3 9.15914e-16 0)
(3 1.02029e-15 0)
(3 1.09343e-15 0)
(3 1.23512e-15 0)
(2.97863 -0.00405039 0)
(1.05471 0.0190941 0)
(0.711151 0.0171142 0)
(0.661953 0.0204191 0)
(0.607482 0.0226195 0)
(0.551425 0.0248554 0)
(0.492469 0.0270771 0)
(0.430317 0.0293091 0)
(0.364327 0.0317089 0)
(0.293904 0.0343995 0)
(0.217638 0.0380196 0)
(0.135051 0.0404562 0)
(0.0499494 0.0450782 0)
(3 2.02381e-16 0)
(3 2.19551e-16 0)
(3 -1.02693e-16 0)
(3 -3.9784e-16 0)
(3 -2.09828e-16 0)
(3 4.84572e-16 0)
(3 7.47334e-16 0)
(3 1.7498e-15 0)
(3 1.97785e-15 0)
(3 2.00581e-15 0)
(3 1.96786e-15 0)
(2.99553 0.00309275 0)
(1.08147 0.0746124 0)
(0.713202 0.0623101 0)
(0.657818 0.0672359 0)
(0.599629 0.0723955 0)
(0.540742 0.077365 0)
(0.480337 0.0831109 0)
(0.417736 0.0895552 0)
(0.352121 0.0970604 0)
(0.282787 0.105536 0)
(0.208701 0.117027 0)
(0.12853 0.124877 0)
(0.0474649 0.137945 0)
(3 4.88127e-17 0)
(3 1.3933e-16 0)
(3 -1.07985e-16 0)
(3 -1.37448e-16 0)
(3 -2.3165e-18 0)
(3 3.2308e-16 0)
(3 9.21014e-16 0)
(3 3.53795e-16 0)
(3 1.2164e-17 0)
(3 2.16179e-16 0)
(3 4.97039e-16 0)
(3.00006 0.000115057 0)
(1.14423 0.125954 0)
(0.723256 0.107307 0)
(0.66449 0.115956 0)
(0.605253 0.124325 0)
(0.544906 0.131968 0)
(0.48339 0.140757 0)
(0.419822 0.150631 0)
(0.353406 0.162381 0)
(0.283206 0.175496 0)
(0.209036 0.193894 0)
(0.127772 0.206355 0)
(0.0476728 0.226366 0)
(3 -3.07066e-16 0)
(3 -3.67786e-16 0)
(3 5.20496e-17 0)
(3 5.07063e-16 0)
(3 9.52327e-17 0)
(3 5.17298e-17 0)
(3 4.67335e-17 0)
(3 -8.14946e-16 0)
(3 -2.22845e-15 0)
(3 -2.14017e-15 0)
(3 -1.33485e-15 0)
(3 2.48006e-07 0)
(1.2488 0.178411 0)
(0.735773 0.154825 0)
(0.671206 0.165505 0)
(0.612719 0.176814 0)
(0.552525 0.187081 0)
(0.491235 0.19928 0)
(0.427118 0.213317 0)
(0.359339 0.230509 0)
(0.286887 0.248875 0)
(0.211641 0.274498 0)
(0.128561 0.292067 0)
(0.0467372 0.316903 0)
(3 9.95779e-17 0)
(3 -6.09797e-17 0)
(3 3.53255e-16 0)
(3 2.33468e-16 0)
(3 -1.30949e-16 0)
(3 -4.88219e-17 0)
(3 -4.17208e-16 0)
(3 -5.8765e-16 0)
(3 -1.31644e-15 0)
(3 -1.15252e-15 0)
(3 -4.69965e-16 0)
(3 -1.64003e-09 0)
(1.40851 0.230007 0)
(0.753738 0.206859 0)
(0.678687 0.215477 0)
(0.623027 0.228472 0)
(0.565747 0.241001 0)
(0.508058 0.256775 0)
(0.447479 0.275429 0)
(0.383383 0.298939 0)
(0.312826 0.322784 0)
(0.238197 0.356212 0)
(0.14872 0.382424 0)
(0.0568987 0.415282 0)
(3 5.83392e-18 0)
(3 1.86309e-16 0)
(3 9.56015e-17 0)
(3 -1.21667e-16 0)
(3 2.95085e-17 0)
(3 4.09902e-16 0)
(3 1.24902e-16 0)
(3 2.00572e-16 0)
(3 6.2137e-16 0)
(3 2.24748e-16 0)
(3 3.24564e-16 0)
(3 -1.73967e-09 0)
(1.6409 0.279487 0)
(0.780426 0.267649 0)
(0.683639 0.26487 0)
(0.62869 0.277741 0)
(0.573948 0.292 0)
(0.520826 0.311378 0)
(0.465264 0.334832 0)
(0.406262 0.3666 0)
(0.335578 0.400631 0)
(0.257666 0.448664 0)
(0.161079 0.493087 0)
(0.0554699 0.535022 0)
(3 2.09444e-17 0)
(3 1.44975e-16 0)
(3 -2.75373e-16 0)
(3 -2.11878e-16 0)
(3 -9.20287e-18 0)
(3 -1.43818e-16 0)
(3 -1.24301e-16 0)
(3 4.28198e-16 0)
(3 1.50913e-15 0)
(3 1.23294e-15 0)
(3 1.63398e-15 0)
(3 -4.25465e-10 0)
(1.97083 0.329511 0)
(0.822331 0.345038 0)
(0.692595 0.326498 0)
(0.638522 0.332257 0)
(0.586798 0.344789 0)
(0.538439 0.365677 0)
(0.487811 0.392538 0)
(0.437906 0.432865 0)
(0.376597 0.47983 0)
(0.312659 0.540472 0)
(0.225732 0.6037 0)
(0.0984996 0.674711 0)
(3 3.59954e-16 0)
(3 2.0785e-16 0)
(3 1.0949e-17 0)
(3 -2.26433e-16 0)
(3 -2.43844e-16 0)
(3 -7.18443e-16 0)
(3 -5.31954e-16 0)
(3 2.05167e-16 0)
(3 9.23672e-16 0)
(3 9.9731e-16 0)
(3 8.25024e-16 0)
(3 -2.44101e-11 0)
(2.45946 0.325001 0)
(0.923392 0.433627 0)
(0.756652 0.379235 0)
(0.701248 0.382919 0)
(0.642998 0.394805 0)
(0.590964 0.417196 0)
(0.539221 0.447558 0)
(0.492462 0.492557 0)
(0.441503 0.54826 0)
(0.381832 0.634182 0)
(0.26843 0.762418 0)
(0.148945 0.933854 0)
(3 3.457e-17 0)
(3 -4.57439e-17 0)
(3 1.87592e-16 0)
(3 -1.14627e-16 0)
(3 -2.73289e-17 0)
(3 2.43565e-16 0)
(3 6.48196e-16 0)
(3 2.08917e-16 0)
(3 -4.34328e-16 0)
(3 -7.64438e-16 0)
(3 -6.13063e-16 0)
(3 -2.3865e-13 0)
(2.99602 0.113959 0)
(1.12347 0.456855 0)
(0.85191 0.412513 0)
(0.797432 0.428612 0)
(0.731626 0.445303 0)
(0.672244 0.467403 0)
(0.618828 0.498878 0)
(0.570787 0.54576 0)
(0.526077 0.616029 0)
(0.487944 0.740445 0)
(0.45782 0.921658 0)
(0.574858 1.20728 0)
(3 -1.77232e-16 0)
(3 -4.60403e-16 0)
(3 -3.9179e-16 0)
(3 2.88063e-16 0)
(3 -8.85065e-17 0)
(3 4.68309e-16 0)
(3 4.96458e-16 0)
(3 2.45022e-16 0)
(3 2.9907e-17 0)
(3 -1.77429e-16 0)
(3 4.77223e-17 0)
(3 -7.65569e-16 0)
(3.0277 0.00450708 0)
(1.3047 0.431248 0)
(0.876086 0.475165 0)
(0.830904 0.499586 0)
(0.776874 0.51348 0)
(0.727163 0.532699 0)
(0.686357 0.563473 0)
(0.646698 0.608835 0)
(0.624006 0.684233 0)
(0.619139 0.811682 0)
(0.68087 0.95986 0)
(0.964393 1.13505 0)
(3 -1.52262e-16 0)
(3 -2.14366e-16 0)
(3 -1.37062e-16 0)
(3 -1.45133e-16 0)
(3 -4.47886e-16 0)
(3 -8.44425e-16 0)
(3 -1.0381e-15 0)
(3 -1.86106e-16 0)
(3 8.73286e-16 0)
(3 8.2186e-16 0)
(3 7.88692e-16 0)
(3 6.56891e-18 0)
(3.00054 -8.85116e-06 0)
(1.64242 0.464904 0)
(0.870503 0.51275 0)
(0.829934 0.540475 0)
(0.801629 0.563227 0)
(0.774262 0.581274 0)
(0.751564 0.611281 0)
(0.729211 0.653127 0)
(0.729358 0.723669 0)
(0.752988 0.834776 0)
(0.872833 0.958805 0)
(1.18011 1.06986 0)
(3 -7.71103e-17 0)
(3 -2.63189e-18 0)
(3 -2.30299e-16 0)
(3 -4.67805e-16 0)
(3 -1.76235e-16 0)
(3 -3.98012e-16 0)
(3 -4.43393e-16 0)
(3 -4.96906e-16 0)
(3 -4.34723e-16 0)
(3 -1.93659e-17 0)
(3 -1.16482e-16 0)
(3 -1.31197e-16 0)
(3.00001 -4.25151e-06 0)
(2.32271 0.456718 0)
(0.970673 0.594194 0)
(0.862051 0.552263 0)
(0.855474 0.581297 0)
(0.836133 0.611594 0)
(0.821062 0.647712 0)
(0.81382 0.69039 0)
(0.827498 0.753694 0)
(0.875334 0.839407 0)
(1.01439 0.936452 0)
(1.27016 1.00251 0)
(3 -1.46949e-16 0)
(3 -4.48615e-17 0)
(3 1.27322e-16 0)
(3 2.47189e-17 0)
(3 -2.1741e-16 0)
(3 -9.92578e-16 0)
(3 -6.75134e-16 0)
(3 -8.82629e-16 0)
(3 -1.45791e-15 0)
(3 -1.149e-15 0)
(3 -4.9932e-16 0)
(3 5.41161e-16 0)
(3 -1.09052e-06 0)
(3.07485 0.11289 0)
(1.2386 0.601668 0)
(0.945951 0.562571 0)
(0.934628 0.615594 0)
(0.912634 0.645396 0)
(0.896798 0.678566 0)
(0.896728 0.719025 0)
(0.915735 0.773363 0)
(0.979453 0.841967 0)
(1.11763 0.912906 0)
(1.32716 0.954584 0)
(3 4.42409e-17 0)
(3 1.3325e-16 0)
(3 2.37271e-16 0)
(3 2.80315e-16 0)
(3 1.13776e-16 0)
(3 -1.7473e-16 0)
(3 -5.67388e-17 0)
(3 -3.01593e-17 0)
(3 3.64035e-19 0)
(3 1.65869e-16 0)
(3 8.41448e-17 0)
(3 4.73683e-16 0)
(3 -1.06244e-07 0)
(3.02482 0.00117404 0)
(1.51045 0.585364 0)
(0.971425 0.651225 0)
(0.946612 0.665255 0)
(0.934324 0.686724 0)
(0.942055 0.716017 0)
(0.957839 0.749741 0)
(0.99134 0.789165 0)
(1.06155 0.836354 0)
(1.18412 0.881512 0)
(1.35144 0.903111 0)
(3 2.85222e-16 0)
(3 5.16673e-16 0)
(3 2.55696e-16 0)
(3 6.48574e-16 0)
(3 1.08197e-15 0)
(3 7.55075e-16 0)
(3 4.64961e-16 0)
(3 2.20298e-16 0)
(3 6.37794e-16 0)
(3 1.53374e-15 0)
(3 1.26439e-15 0)
(3 4.40063e-16 0)
(3 -3.44772e-09 0)
(3.00032 -7.79656e-06 0)
(2.25091 0.54378 0)
(1.06922 0.727271 0)
(0.984884 0.688108 0)
(0.97287 0.701013 0)
(0.986363 0.725303 0)
(1.00994 0.758739 0)
(1.0539 0.79543 0)
(1.12886 0.834077 0)
(1.23519 0.865194 0)
(1.37345 0.877759 0)
(3 8.92681e-17 0)
(3 -8.08824e-17 0)
(3 -4.73393e-17 0)
(3 -3.48295e-16 0)
(3 -2.90986e-16 0)
(3 -5.35455e-16 0)
(3 -1.54585e-15 0)
(3 -1.46016e-15 0)
(3 2.24412e-16 0)
(3 1.67965e-15 0)
(3 1.44231e-15 0)
(3 1.25533e-15 0)
(3 -9.13675e-12 0)
(3.00003 -1.21466e-05 0)
(3.06437 0.116723 0)
(1.39738 0.722488 0)
(1.081 0.70969 0)
(1.05329 0.711806 0)
(1.04918 0.737227 0)
(1.06564 0.764038 0)
(1.10681 0.792236 0)
(1.1768 0.821739 0)
(1.26849 0.843054 0)
(1.38489 0.850913 0)
(3 -9.69597e-17 0)
(3 -2.3551e-16 0)
(3 -5.04047e-16 0)
(3 -7.17314e-16 0)
(3 -1.17287e-15 0)
(3 -4.89914e-16 0)
(3 -2.25482e-16 0)
(3 2.49461e-16 0)
(3 4.79813e-16 0)
(3 4.64139e-16 0)
(3 7.36993e-16 0)
(3 1.15407e-15 0)
(3 -7.9948e-15 0)
(3 -2.57467e-06 0)
(3.0196 0.00134097 0)
(1.85785 0.676322 0)
(1.12413 0.78691 0)
(1.0981 0.780612 0)
(1.10539 0.778908 0)
(1.12098 0.787955 0)
(1.15715 0.803403 0)
(1.22039 0.822033 0)
(1.30077 0.836133 0)
(1.39948 0.841054 0)
(3 1.6058e-16 0)
(3 3.39141e-16 0)
(3 1.11623e-16 0)
(3 2.37874e-16 0)
(3 2.56441e-16 0)
(3 4.95641e-16 0)
(3 1.5527e-15 0)
(3 1.78862e-15 0)
(3 9.05307e-16 0)
(3 -1.20602e-17 0)
(3 6.96603e-16 0)
(3 1.48472e-15 0)
(3 1.58068e-15 0)
(3 -2.11106e-07 0)
(3.00018 1.05004e-05 0)
(2.87784 0.292319 0)
(1.33294 0.784236 0)
(1.16231 0.782985 0)
(1.17931 0.782947 0)
(1.19003 0.794152 0)
(1.21823 0.80519 0)
(1.26972 0.816263 0)
(1.33637 0.825769 0)
(1.42033 0.828941 0)
(3 1.0944e-16 0)
(3 3.68395e-17 0)
(3 -1.94775e-16 0)
(3 -7.19499e-17 0)
(3 5.68042e-17 0)
(3 -5.61944e-17 0)
(3 -4.41116e-17 0)
(3 1.12341e-16 0)
(3 -3.06388e-16 0)
(3 -3.37294e-16 0)
(3 -3.61756e-16 0)
(3 1.91316e-17 0)
(3 5.52878e-16 0)
(3 -1.12919e-09 0)
(3.00001 -5.59404e-06 0)
(3.04539 0.0100886 0)
(1.70234 0.731149 0)
(1.18948 0.824809 0)
(1.19999 0.824822 0)
(1.22426 0.831086 0)
(1.26005 0.837321 0)
(1.30765 0.842522 0)
(1.36563 0.844017 0)
(1.43662 0.840507 0)
(3 -3.38538e-16 0)
(3 -3.20803e-16 0)
(3 -3.4792e-18 0)
(3 2.15977e-16 0)
(3 -2.28793e-17 0)
(3 -1.53751e-16 0)
(3 -9.16086e-16 0)
(3 -1.39901e-15 0)
(3 -1.89596e-15 0)
(3 -1.79848e-15 0)
(3 -1.60917e-15 0)
(3 -9.16964e-16 0)
(3 -8.65367e-16 0)
(3 -1.70958e-12 0)
(3 -1.18667e-06 0)
(3.00091 0.000162323 0)
(2.69789 0.432289 0)
(1.33305 0.853201 0)
(1.23373 0.82278 0)
(1.26839 0.825853 0)
(1.3036 0.834269 0)
(1.3504 0.838653 0)
(1.40287 0.837925 0)
(1.46323 0.833468 0)
(3 -1.59115e-16 0)
(3 -7.57531e-17 0)
(3 7.39458e-16 0)
(3 1.0249e-15 0)
(3 1.10402e-15 0)
(3 1.17068e-15 0)
(3 3.43967e-16 0)
(3 -4.18599e-17 0)
(3 -3.18036e-16 0)
(3 -3.94671e-16 0)
(3 -4.03541e-16 0)
(3 -6.86949e-16 0)
(3 -8.43502e-16 0)
(3 -6.37248e-16 0)
(3 -9.69731e-08 0)
(3 6.01777e-08 0)
(3.05737 0.0282475 0)
(1.75824 0.777994 0)
(1.2714 0.857755 0)
(1.29216 0.855852 0)
(1.32885 0.858262 0)
(1.37334 0.858899 0)
(1.42368 0.857155 0)
(1.47895 0.852869 0)
(3 -4.16298e-17 0)
(3 1.78149e-16 0)
(3 5.77726e-16 0)
(3 8.29017e-16 0)
(3 6.91489e-16 0)
(3 7.99697e-16 0)
(3 1.46473e-15 0)
(3 1.49606e-15 0)
(3 1.47966e-15 0)
(3 6.02088e-16 0)
(3 2.7332e-17 0)
(3 -4.70536e-16 0)
(3 -7.48254e-16 0)
(3 -2.59849e-16 0)
(3 -5.5663e-10 0)
(3 -4.31222e-08 0)
(3.00214 0.000754639 0)
(2.7257 0.440748 0)
(1.43511 0.902216 0)
(1.32369 0.858776 0)
(1.36567 0.856444 0)
(1.40342 0.856555 0)
(1.44988 0.855774 0)
(1.50167 0.851865 0)
(3 7.16546e-17 0)
(3 1.68368e-16 0)
(3 -5.13438e-16 0)
(3 -5.61128e-16 0)
(3 -7.20919e-16 0)
(3 -2.79574e-16 0)
(3 4.31987e-16 0)
(3 4.84919e-16 0)
(3 3.80584e-16 0)
(3 -6.60164e-16 0)
(3 -7.55347e-16 0)
(3 -4.67311e-16 0)
(3 -6.98948e-16 0)
(3 -7.47742e-16 0)
(3 -1.21364e-12 0)
(3 -8.72956e-09 0)
(3 2.21409e-06 0)
(3.04546 0.0289263 0)
(1.93022 0.783309 0)
(1.3749 0.890781 0)
(1.39396 0.883562 0)
(1.42729 0.879501 0)
(1.46648 0.875364 0)
(1.51326 0.867447 0)
(3 3.39511e-17 0)
(3 -1.25779e-16 0)
(3 -5.04728e-16 0)
(3 -4.95598e-16 0)
(3 -8.86028e-17 0)
(3 -1.0253e-17 0)
(3 -9.95149e-17 0)
(3 -2.75595e-16 0)
(3 -6.22639e-16 0)
(3 -4.16797e-16 0)
(3 -6.32448e-16 0)
(3 -8.01593e-16 0)
(3 -7.47268e-16 0)
(3 -4.04737e-16 0)
(3 -4.5681e-16 0)
(3 -8.12613e-10 0)
(3 -4.25383e-10 0)
(3.00141 0.000968858 0)
(2.82113 0.336117 0)
(1.62865 0.912424 0)
(1.41734 0.898525 0)
(1.45954 0.892129 0)
(1.49021 0.88433 0)
(1.53118 0.871909 0)
(3 1.46395e-16 0)
(3 -2.08579e-16 0)
(3 -1.48225e-16 0)
(3 -6.94671e-17 0)
(3 3.61364e-16 0)
(3 2.6214e-16 0)
(3 1.95288e-16 0)
(3 2.67654e-16 0)
(3 2.55607e-17 0)
(3 1.8412e-16 0)
(3 -6.12498e-16 0)
(3 -7.28126e-16 0)
(3 2.19243e-16 0)
(3 5.21849e-16 0)
(3 2.79547e-16 0)
(3 -1.25557e-11 0)
(3 -1.58616e-10 0)
(3 3.13413e-06 0)
(3.01875 0.0203653 0)
(2.27467 0.71719 0)
(1.49795 0.92944 0)
(1.48671 0.919896 0)
(1.51745 0.902399 0)
(1.54889 0.888588 0)
(3 9.15874e-17 0)
(3 2.26541e-16 0)
(3 3.32606e-16 0)
(3 7.49893e-17 0)
(3 -5.76269e-18 0)
(3 -3.71524e-16 0)
(3 -2.37485e-16 0)
(3 1.43439e-16 0)
(3 4.83724e-16 0)
(3 7.74655e-17 0)
(3 1.49613e-16 0)
(3 4.52514e-16 0)
(3 3.80524e-16 0)
(3 2.03186e-16 0)
(3 2.15767e-16 0)
(3 -4.27759e-14 0)
(3 -1.92846e-11 0)
(3 8.57627e-10 0)
(3.00027 0.000642275 0)
(2.9724 0.164737 0)
(1.88529 0.856064 0)
(1.52361 0.931976 0)
(1.55543 0.917721 0)
(1.58122 0.90301 0)
(3 -8.2392e-18 0)
(3 -4.92277e-17 0)
(3 6.01339e-16 0)
(3 4.36308e-16 0)
(3 -1.80888e-16 0)
(3 -2.77266e-16 0)
(3 -4.44058e-16 0)
(3 -8.83118e-16 0)
(3 -5.17354e-16 0)
(3 -3.07874e-16 0)
(3 4.85783e-16 0)
(3 3.76306e-16 0)
(3 -4.2138e-16 0)
(3 -5.7311e-16 0)
(3 -6.27163e-16 0)
(3 -2.16075e-15 0)
(3 -1.13699e-12 0)
(3 -1.04377e-12 0)
(3 1.53036e-06 0)
(3.00441 0.00925752 0)
(2.65418 0.468163 0)
(1.72138 0.941313 0)
(1.56515 0.942679 0)
(1.60106 0.930359 0)
(3 -1.62001e-16 0)
(3 -1.79935e-16 0)
(3 -2.16398e-16 0)
(3 -1.7494e-16 0)
(3 -4.07952e-16 0)
(3 -3.96011e-16 0)
(3 -2.0255e-17 0)
(3 -2.7565e-16 0)
(3 -5.06885e-16 0)
(3 -2.32592e-16 0)
(3 2.16175e-16 0)
(3 1.64415e-16 0)
(3 6.34397e-16 0)
(3 8.00813e-16 0)
(3 6.87596e-16 0)
(3 -3.74841e-16 0)
(3 -1.46887e-14 0)
(3 -3.32378e-13 0)
(3 6.29338e-10 0)
(3 0.000129605 0)
(3.00313 0.0478147 0)
(2.29793 0.720976 0)
(1.6409 0.956064 0)
(1.62412 0.954953 0)
(3 -1.42052e-16 0)
(3 1.19841e-17 0)
(3 -6.97836e-16 0)
(3 -4.29425e-16 0)
(3 -4.11748e-17 0)
(3 -5.96885e-16 0)
(3 -9.74636e-16 0)
(3 -8.03434e-16 0)
(3 -3.36261e-16 0)
(3 -7.82699e-17 0)
(3 1.16581e-16 0)
(3 -1.15347e-16 0)
(3 -2.60631e-16 0)
(3 6.1495e-17 0)
(3 8.18876e-17 0)
(3 2.7136e-16 0)
(3 -9.17516e-16 0)
(3 -4.47709e-14 0)
(3 7.09515e-14 0)
(3 1.55145e-07 0)
(3.00015 0.00195909 0)
(2.93403 0.182627 0)
(2.02729 0.834108 0)
(1.67719 0.95796 0)
(3 8.72257e-17 0)
(3 5.89524e-17 0)
(3 6.1008e-17 0)
(3 2.02496e-16 0)
(3 5.97082e-17 0)
(3 -3.06188e-17 0)
(3 -3.30207e-16 0)
(3 -3.35357e-16 0)
(3 1.7527e-16 0)
(3 9.59058e-17 0)
(3 -2.92313e-16 0)
(3 -1.14496e-16 0)
(3 1.53595e-16 0)
(3 2.41816e-16 0)
(3 1.36618e-16 0)
(3 2.85416e-16 0)
(3 3.91133e-16 0)
(3 -1.63898e-15 0)
(3 -2.0116e-15 0)
(3 7.85e-11 0)
(3 7.95025e-06 0)
(3.00045 0.0117102 0)
(2.72826 0.387034 0)
(1.90335 0.902359 0)
(3 5.65839e-17 0)
(3 -5.25147e-17 0)
(3 3.0204e-16 0)
(3 8.51282e-17 0)
(3 5.02886e-17 0)
(3 8.95777e-16 0)
(3 1.80947e-15 0)
(3 1.65713e-15 0)
(3 4.99561e-16 0)
(3 -4.90492e-16 0)
(3 -4.1441e-16 0)
(3 2.30307e-17 0)
(3 4.46846e-16 0)
(3 8.8849e-16 0)
(3 5.78159e-16 0)
(3 3.09923e-16 0)
(3 5.75735e-16 0)
(3 6.55746e-16 0)
(3 -2.72138e-16 0)
(3 1.02233e-14 0)
(3 6.34256e-09 0)
(2.99997 0.000161378 0)
(2.99492 0.036187 0)
(2.48943 0.573591 0)
(3 6.46389e-17 0)
(3 1.24831e-16 0)
(3 1.87443e-16 0)
(3 2.6345e-16 0)
(3 5.07717e-16 0)
(3 4.86547e-16 0)
(3 1.01319e-15 0)
(3 5.19551e-16 0)
(3 1.95599e-16 0)
(3 -3.48698e-16 0)
(3 -6.55857e-16 0)
(3 -7.91073e-16 0)
(3 -5.51427e-16 0)
(3 -4.80623e-16 0)
(3 -7.84813e-16 0)
(3 -8.32585e-16 0)
(3 -3.2287e-17 0)
(3 -5.14821e-17 0)
(3 -3.82909e-16 0)
(3 -6.35742e-16 0)
(3 1.97666e-12 0)
(3 2.35517e-07 0)
(2.99985 0.00118291 0)
(2.9629 0.0905149 0)
(3 -1.82762e-17 0)
(3 -6.28114e-17 0)
(3 -7.0573e-17 0)
(3 4.74312e-17 0)
(3 2.05129e-16 0)
(3 -9.61497e-16 0)
(3 -9.95828e-16 0)
(3 -8.88433e-16 0)
(3 -6.41097e-16 0)
(3 3.1014e-16 0)
(3 1.65988e-17 0)
(3 2.01504e-16 0)
(3 2.00548e-17 0)
(3 -1.01378e-15 0)
(3 -7.38235e-16 0)
(3 -4.00319e-16 0)
(3 -9.81452e-16 0)
(3 -1.40624e-15 0)
(3 -7.68704e-16 0)
(3 -7.9095e-16 0)
(3 -6.93544e-16 0)
(3 1.61335e-10 0)
(3 3.53132e-06 0)
(2.99931 0.00458174 0)
(3 -1.01607e-16 0)
(3 -6.72878e-17 0)
(3 -1.2543e-16 0)
(3 -4.86068e-16 0)
(3 -5.57493e-16 0)
(3 -4.28858e-16 0)
(3 -6.85252e-16 0)
(3 -7.42071e-16 0)
(3 -7.92888e-16 0)
(3 -2.68637e-16 0)
(3 8.86258e-17 0)
(3 1.52627e-16 0)
(3 -6.07949e-16 0)
(3 -8.27549e-16 0)
(3 -4.77482e-16 0)
(3 -1.11799e-15 0)
(3 -1.71332e-15 0)
(3 -1.74619e-15 0)
(3 -8.21389e-16 0)
(3 -9.24533e-16 0)
(3 -1.03246e-15 0)
(3 1.45088e-14 0)
(3 3.64834e-09 0)
(2.99999 2.91187e-05 0)
(3 5.48493e-19 0)
(3 -8.28939e-18 0)
(3 -8.00543e-17 0)
(3 -6.09726e-16 0)
(3 -4.30954e-16 0)
(3 -1.18542e-17 0)
(3 -2.81212e-16 0)
(3 7.25996e-19 0)
(3 5.20147e-16 0)
(3 3.22093e-16 0)
(3 -3.77765e-16 0)
(3 -8.6281e-16 0)
(3 -1.01047e-15 0)
(3 -5.82029e-16 0)
(3 -3.09058e-16 0)
(3 -4.48266e-16 0)
(3 -3.86477e-16 0)
(3 -3.53998e-16 0)
(3 -3.93827e-16 0)
(3 -4.09882e-16 0)
(3 -9.24441e-16 0)
(3 -1.05032e-15 0)
(3 7.64298e-13 0)
(3 3.79708e-08 0)
(3 3.19716e-17 0)
(3 -7.41002e-17 0)
(3 -7.08173e-17 0)
(3 -6.50844e-17 0)
(3 -1.93117e-16 0)
(3 2.90277e-17 0)
(3 9.71483e-17 0)
(3 2.73733e-16 0)
(3 5.70054e-17 0)
(3 1.59776e-16 0)
(3 -4.66507e-17 0)
(3 -2.45717e-16 0)
(3 -2.14286e-16 0)
(3 1.76315e-16 0)
(3 5.33326e-16 0)
(3 1.18113e-15 0)
(3 9.36998e-16 0)
(3 5.90355e-16 0)
(3 6.62962e-16 0)
(3 2.69871e-16 0)
(3 -3.51335e-16 0)
(3 -7.42184e-16 0)
(3 3.10137e-16 0)
(3 1.50209e-11 0)
(3 1.23049e-16 0)
(3 -5.92319e-17 0)
(3 -8.71392e-17 0)
(3 3.55386e-16 0)
(3 7.05357e-16 0)
(3 7.09593e-16 0)
(3 9.21709e-16 0)
(3 4.02023e-16 0)
(3 -4.88721e-16 0)
(3 -6.51958e-16 0)
(3 -6.70587e-16 0)
(3 -8.0007e-16 0)
(3 -8.75596e-16 0)
(3 -6.14958e-16 0)
(3 -1.84151e-16 0)
(3 9.15081e-16 0)
(3 2.09708e-15 0)
(3 2.39337e-15 0)
(3 1.41234e-15 0)
(3 7.85627e-16 0)
(3 1.69224e-16 0)
(3 -4.06056e-16 0)
(3 -1.07106e-16 0)
(3 1.41106e-15 0)
(3 1.37374e-16 0)
(3 4.50681e-17 0)
(3 -4.86952e-16 0)
(3 -3.71218e-16 0)
(3 -3.66844e-16 0)
(3 -2.84369e-16 0)
(3 7.02435e-17 0)
(3 4.81527e-16 0)
(3 9.6719e-16 0)
(3 1.11604e-16 0)
(3 -5.28099e-16 0)
(3 -8.60443e-16 0)
(3 -1.4012e-15 0)
(3 -1.4049e-15 0)
(3 -1.02666e-15 0)
(3 -8.28579e-17 0)
(3 1.94232e-15 0)
(3 2.64704e-15 0)
(3 2.13043e-15 0)
(3 1.65444e-15 0)
(3 9.42841e-16 0)
(3 -5.64959e-16 0)
(3 -9.79573e-16 0)
(3 -5.94679e-16 0)
(3 -6.96265e-17 0)
(3 -3.10643e-16 0)
(3 -4.9193e-16 0)
(3 -5.08184e-16 0)
(3 -1.14244e-15 0)
(3 -9.24187e-16 0)
(3 -1.19187e-16 0)
(3 8.79996e-16 0)
(3 1.74857e-15 0)
(3 1.29259e-15 0)
(3 4.65809e-16 0)
(3 1.0111e-16 0)
(3 1.07168e-16 0)
(3 -2.56932e-16 0)
(3 -3.26512e-16 0)
(3 -1.75184e-16 0)
(3 -1.29596e-16 0)
(3 -9.46519e-17 0)
(3 1.5917e-16 0)
(3 -1.67025e-17 0)
(3 -8.23322e-16 0)
(3 -7.84533e-16 0)
(3 -8.7272e-16 0)
(3 -4.62356e-16 0)
(3 -2.27704e-16 0)
(3 -3.863e-16 0)
(3 8.0611e-18 0)
(3 -6.3152e-17 0)
(3 7.66192e-17 0)
(3 2.19584e-17 0)
(3 4.25526e-16 0)
(3 2.63052e-16 0)
(3 1.00833e-15 0)
(3 8.97707e-16 0)
(3 8.02119e-16 0)
(3 7.20034e-16 0)
(3 8.60781e-16 0)
(3 -9.44183e-17 0)
(3 -4.84185e-16 0)
(3 -4.89511e-16 0)
(3 -8.12958e-16 0)
(3 -7.96711e-16 0)
(3 -6.38427e-16 0)
(3 -3.10254e-16 0)
(3 -3.69513e-16 0)
(3 -6.26532e-16 0)
(3 -8.50897e-16 0)
(3 -7.55197e-16 0)
(1.51178 1.259 0)
(1.80931 1.43725 0)
(2.27866 1.09637 0)
(2.73013 0.800956 0)
(2.62939 0.381242 0)
(2.60234 0.0654066 0)
(2.50906 -0.231491 0)
(2.4565 -0.434533 0)
(2.46542 -0.435001 0)
(2.49366 -0.296583 0)
(2.46756 -0.241838 0)
(2.44883 -0.21167 0)
(2.45266 -0.175848 0)
(2.43944 -0.133082 0)
(2.40017 -0.0993281 0)
(2.35727 -0.0814536 0)
(2.3708 -0.0633457 0)
(2.39564 -0.0502215 0)
(2.40412 -0.0341448 0)
(2.39637 -0.00748596 0)
(2.39286 -0.0024102 0)
(2.39123 -0.00417162 0)
(2.39856 -0.0100266 0)
(2.40686 -0.0137328 0)
(2.40457 -0.0126129 0)
(2.39855 -0.00812563 0)
(2.38914 -0.00399544 0)
(2.3841 -0.00453803 0)
(2.38331 -0.00733171 0)
(2.39273 -0.0102239 0)
(2.40173 -0.00706761 0)
(2.40628 -0.00447164 0)
(2.40438 -0.00417859 0)
(1.75762 -0.0107292 0)
(0.849713 -0.0295806 0)
(0.819013 -0.0529579 0)
(0.89752 -0.0693896 0)
(0.98156 -0.0718286 0)
(1.05725 -0.0611153 0)
(1.1167 -0.0482987 0)
(1.16164 -0.0376698 0)
(1.20281 -0.0323248 0)
(1.24898 -0.0295818 0)
(1.29394 -0.0275486 0)
(1.33686 -0.0246049 0)
(1.37783 -0.0213149 0)
(1.41558 -0.0186907 0)
(1.44917 -0.01605 0)
(1.47722 -0.0126373 0)
(1.50118 -0.00928594 0)
(1.52485 -0.00664444 0)
(1.55012 -0.00479044 0)
(1.57951 -0.00445301 0)
(1.61264 -0.00539307 0)
(1.64203 -0.00562901 0)
(1.66662 -0.00474162 0)
(1.68916 -0.00183166 0)
(1.7082 0.00310007 0)
(1.72647 0.00579286 0)
(1.74615 0.00644278 0)
(1.76997 0.00640299 0)
(1.79745 0.00485213 0)
(1.82067 0.00241172 0)
(1.84251 0.00174662 0)
(1.86396 0.00202633 0)
(1.88249 0.00287329 0)
(1.89723 0.00395098 0)
(1.90969 0.00497662 0)
(1.9232 0.00549871 0)
(1.93901 0.00577748 0)
(1.95667 0.00572984 0)
(1.97556 0.00566986 0)
(1.99509 0.00569051 0)
(2.01475 0.00579449 0)
(2.0342 0.00590963 0)
(2.05305 0.0059838 0)
(2.07046 0.00610595 0)
(2.08457 0.00662234 0)
(2.09229 0.00720258 0)
(2.09528 0.00780909 0)
(2.10601 0.00801124 0)
(2.12334 0.00803778 0)
(2.14157 0.00804202 0)
(2.16056 0.00790449 0)
(2.18074 0.00752451 0)
(2.1993 0.00729661 0)
(2.21655 0.00701542 0)
(2.22837 0.00623232 0)
(2.225 0.00649247 0)
(2.21738 0.00817394 0)
(2.2273 0.00870336 0)
(2.24282 0.00876501 0)
(2.2586 0.00880324 0)
(2.2765 0.00872104 0)
(2.29593 0.00794048 0)
(2.32189 0.00779971 0)
(1.77071 1.08491 0)
(2.23221 0.916204 0)
(2.55761 0.413301 0)
(2.6983 -0.0244118 0)
(2.72403 -0.207563 0)
(2.74332 -0.381619 0)
(2.71118 -0.601777 0)
(2.75971 -0.69438 0)
(2.71796 -0.636561 0)
(2.63854 -0.520216 0)
(2.58069 -0.370726 0)
(2.5628 -0.26824 0)
(2.53158 -0.217476 0)
(2.49225 -0.169319 0)
(2.45911 -0.097587 0)
(2.43726 -0.0503507 0)
(2.4332 -0.0447024 0)
(2.44889 -0.0281284 0)
(2.44096 -0.0080767 0)
(2.43194 0.0181637 0)
(2.4214 0.0200032 0)
(2.41242 0.0130107 0)
(2.41264 -0.00597429 0)
(2.42527 -0.0306695 0)
(2.43585 -0.0365716 0)
(2.43496 -0.030236 0)
(2.42758 -0.0157717 0)
(2.41484 -0.00179461 0)
(2.40933 0.00231384 0)
(2.4102 0.0012774 0)
(2.41837 -0.000353611 0)
(2.42838 0.0044846 0)
(2.41467 -0.0368447 0)
(2.0918 -0.138541 0)
(1.11214 -0.0635022 0)
(1.02502 -0.0742785 0)
(1.08029 -0.0888634 0)
(1.12988 -0.0740436 0)
(1.17314 -0.0612812 0)
(1.20903 -0.0450183 0)
(1.2402 -0.0391793 0)
(1.27396 -0.0315758 0)
(1.31176 -0.023043 0)
(1.34618 -0.0188343 0)
(1.37952 -0.0194548 0)
(1.41566 -0.0213044 0)
(1.45165 -0.0224078 0)
(1.48338 -0.0225401 0)
(1.50977 -0.021714 0)
(1.53195 -0.0188424 0)
(1.55338 -0.013291 0)
(1.57643 -0.00656447 0)
(1.60177 -0.00243037 0)
(1.62869 -0.00339027 0)
(1.65696 -0.00713202 0)
(1.68274 -0.0080691 0)
(1.70566 -0.00585319 0)
(1.72662 0.00251994 0)
(1.74377 0.014153 0)
(1.76134 0.0222033 0)
(1.78063 0.0250434 0)
(1.80242 0.0227912 0)
(1.82591 0.0172602 0)
(1.84879 0.0112339 0)
(1.86997 0.00623556 0)
(1.88966 0.00346473 0)
(1.90744 0.00323818 0)
(1.92185 0.00620715 0)
(1.93449 0.0109028 0)
(1.94857 0.014852 0)
(1.96472 0.0174993 0)
(1.98224 0.0193254 0)
(2.00052 0.0208045 0)
(2.01905 0.0221039 0)
(2.0375 0.0226887 0)
(2.05597 0.0215285 0)
(2.07415 0.0181925 0)
(2.09025 0.0132703 0)
(2.10141 0.010923 0)
(2.10694 0.015689 0)
(2.11331 0.0227448 0)
(2.12642 0.0257478 0)
(2.1436 0.0263004 0)
(2.16157 0.0264341 0)
(2.17994 0.0253991 0)
(2.19798 0.0224726 0)
(2.21449 0.0176496 0)
(2.22681 0.0102724 0)
(2.23133 0.00500404 0)
(2.22946 0.0110767 0)
(2.23435 0.0198526 0)
(2.24772 0.0235652 0)
(2.26288 0.025127 0)
(2.27893 0.0266237 0)
(2.29419 0.0255786 0)
(2.32101 0.0243987 0)
(1.65911 1.06226 0)
(2.11972 0.814474 0)
(2.33238 0.608096 0)
(2.42049 0.462709 0)
(2.6093 0.176143 0)
(2.69126 0.00172685 0)
(2.74646 -0.200296 0)
(2.74907 -0.313184 0)
(2.73748 -0.363238 0)
(2.73868 -0.383574 0)
(2.7425 -0.4215 0)
(2.73699 -0.478083 0)
(2.70749 -0.449524 0)
(2.66924 -0.373834 0)
(2.64375 -0.296099 0)
(2.6387 -0.233251 0)
(2.62937 -0.194178 0)
(2.57116 -0.140647 0)
(2.52741 -0.0813447 0)
(2.51363 -0.0361628 0)
(2.50708 -0.0134025 0)
(2.48779 0.00449728 0)
(2.4777 0.0121132 0)
(2.47509 0.0133849 0)
(2.48368 0.00156819 0)
(2.49466 -0.0168804 0)
(2.49198 -0.0247174 0)
(2.48112 -0.0338727 0)
(2.46613 -0.0297927 0)
(2.46421 -0.0132762 0)
(2.46784 -0.00370849 0)
(2.44839 -0.032218 0)
(2.39382 -0.157958 0)
(2.10238 -0.566539 0)
(1.57931 -0.306045 0)
(1.30745 -0.131592 0)
(1.30697 -0.0477305 0)
(1.33485 -0.0694507 0)
(1.35543 -0.087753 0)
(1.37134 -0.0813895 0)
(1.38678 -0.0737045 0)
(1.40963 -0.065617 0)
(1.43467 -0.0588213 0)
(1.45698 -0.050247 0)
(1.48061 -0.0430806 0)
(1.50646 -0.0365402 0)
(1.53254 -0.0303489 0)
(1.55539 -0.0264039 0)
(1.57584 -0.0251113 0)
(1.5952 -0.0262824 0)
(1.61506 -0.0254661 0)
(1.63584 -0.021399 0)
(1.65617 -0.0159211 0)
(1.67645 -0.0107214 0)
(1.69896 -0.00845206 0)
(1.72157 -0.00847681 0)
(1.7438 -0.00796565 0)
(1.76477 -0.00497328 0)
(1.78415 0.0030809 0)
(1.80123 0.0143227 0)
(1.81514 0.0234603 0)
(1.82973 0.0267024 0)
(1.84887 0.0251041 0)
(1.86882 0.0198654 0)
(1.88861 0.0144184 0)
(1.90779 0.0100947 0)
(1.92602 0.00686852 0)
(1.9426 0.00560776 0)
(1.95684 0.00759166 0)
(1.97014 0.0121723 0)
(1.98413 0.0171416 0)
(1.9993 0.0214004 0)
(2.01579 0.0247962 0)
(2.03319 0.0277103 0)
(2.0505 0.0306158 0)
(2.0665 0.0334068 0)
(2.08052 0.0342584 0)
(2.09324 0.0321668 0)
(2.10625 0.0287647 0)
(2.11909 0.0278851 0)
(2.13023 0.0322799 0)
(2.14065 0.038781 0)
(2.15396 0.0421844 0)
(2.16997 0.0426333 0)
(2.18659 0.0415727 0)
(2.202 0.0386116 0)
(2.21476 0.03254 0)
(2.22361 0.0248844 0)
(2.2311 0.0193402 0)
(2.24059 0.0195444 0)
(2.25015 0.0270715 0)
(2.25975 0.0361793 0)
(2.27234 0.0417647 0)
(2.2876 0.0434378 0)
(2.30217 0.0424116 0)
(2.32558 0.0411836 0)
(1.62156 0.960907 0)
(1.88583 0.881494 0)
(2.1025 0.740156 0)
(2.3286 0.469189 0)
(2.48761 0.268594 0)
(2.53791 0.193973 0)
(2.61485 0.0319252 0)
(2.67128 -0.118327 0)
(2.68746 -0.219352 0)
(2.73313 -0.360773 0)
(2.74778 -0.454997 0)
(2.75568 -0.486728 0)
(2.78895 -0.494019 0)
(2.76666 -0.461199 0)
(2.74876 -0.436874 0)
(2.72827 -0.404422 0)
(2.70619 -0.367616 0)
(2.65933 -0.310223 0)
(2.63625 -0.249495 0)
(2.628 -0.179451 0)
(2.62028 -0.124938 0)
(2.58438 -0.077809 0)
(2.55591 -0.0335293 0)
(2.5379 -0.0222919 0)
(2.52306 -0.0211357 0)
(2.5268 -0.0112478 0)
(2.54059 0.00292396 0)
(2.5399 0.00166956 0)
(2.52822 -0.00382012 0)
(2.51805 0.00261811 0)
(2.50729 -0.0111765 0)
(2.39324 -0.162849 0)
(2.19269 -0.401841 0)
(1.95646 -0.648449 0)
(1.87334 -0.609548 0)
(1.64182 -0.360029 0)
(1.4949 -0.155698 0)
(1.46566 -0.0880111 0)
(1.46239 -0.0358943 0)
(1.48427 -0.0365164 0)
(1.50896 -0.0462324 0)
(1.5313 -0.0528043 0)
(1.5504 -0.0523864 0)
(1.56739 -0.0452403 0)
(1.58441 -0.0310729 0)
(1.60075 -0.0201808 0)
(1.61775 -0.0138208 0)
(1.63419 -0.00988802 0)
(1.6504 -0.00799809 0)
(1.66865 -0.00668919 0)
(1.68723 -0.00584868 0)
(1.70613 -0.00551647 0)
(1.72422 -0.00385837 0)
(1.73935 -0.00076037 0)
(1.75373 0.00192106 0)
(1.77284 0.00316838 0)
(1.79381 0.00444697 0)
(1.81488 0.00870046 0)
(1.83497 0.014137 0)
(1.85311 0.0178088 0)
(1.86783 0.0226761 0)
(1.87763 0.0295564 0)
(1.88648 0.0338499 0)
(1.9007 0.032925 0)
(1.91785 0.029954 0)
(1.93535 0.0259336 0)
(1.95281 0.0217143 0)
(1.96997 0.0188109 0)
(1.98662 0.0180303 0)
(2.0019 0.020026 0)
(2.01535 0.0246834 0)
(2.02699 0.0305537 0)
(2.0383 0.0351942 0)
(2.05137 0.0367632 0)
(2.06584 0.0356468 0)
(2.08055 0.0337806 0)
(2.09508 0.0333114 0)
(2.10988 0.0353392 0)
(2.12503 0.039035 0)
(2.13971 0.0426525 0)
(2.15275 0.0465774 0)
(2.16248 0.0516004 0)
(2.17113 0.0551014 0)
(2.18285 0.0550239 0)
(2.19643 0.052997 0)
(2.20936 0.0497146 0)
(2.21915 0.0449764 0)
(2.22762 0.0398259 0)
(2.23982 0.0379586 0)
(2.25457 0.0383884 0)
(2.269 0.0409054 0)
(2.28069 0.0466715 0)
(2.28983 0.0541276 0)
(2.3011 0.0567883 0)
(2.31354 0.0553214 0)
(2.33416 0.0550962 0)
(1.57843 0.92653 0)
(1.78273 0.870882 0)
(1.99684 0.749737 0)
(2.19224 0.553745 0)
(2.28541 0.474649 0)
(2.37615 0.362329 0)
(2.51163 0.142199 0)
(2.57425 0.0139878 0)
(2.61067 -0.02375 0)
(2.63415 -0.073911 0)
(2.6543 -0.161716 0)
(2.67948 -0.279632 0)
(2.7051 -0.34712 0)
(2.73053 -0.350976 0)
(2.74483 -0.37318 0)
(2.72444 -0.404029 0)
(2.71699 -0.411709 0)
(2.70454 -0.413979 0)
(2.69862 -0.38785 0)
(2.69959 -0.329576 0)
(2.69423 -0.255911 0)
(2.6741 -0.203499 0)
(2.63397 -0.140669 0)
(2.59538 -0.0840609 0)
(2.56894 -0.0699459 0)
(2.56229 -0.0507059 0)
(2.57802 -0.0339215 0)
(2.57399 -0.0257493 0)
(2.56329 -0.0109566 0)
(2.54306 -0.0267476 0)
(2.42387 -0.162733 0)
(2.20221 -0.406127 0)
(1.95321 -0.604687 0)
(1.91425 -0.669304 0)
(1.93452 -0.661872 0)
(1.92505 -0.593981 0)
(1.79895 -0.398356 0)
(1.64771 -0.199165 0)
(1.54449 -0.0850397 0)
(1.5337 -0.0466434 0)
(1.5625 -0.0309765 0)
(1.59356 -0.0383467 0)
(1.61444 -0.046637 0)
(1.63425 -0.0432432 0)
(1.6506 -0.0284431 0)
(1.66359 -0.010304 0)
(1.67476 -0.00222726 0)
(1.68717 -0.00221955 0)
(1.70389 -0.00439519 0)
(1.72338 -0.00512279 0)
(1.74291 -0.00641487 0)
(1.76171 -0.00625677 0)
(1.7795 -0.00394521 0)
(1.79397 0.000363672 0)
(1.80392 0.00515086 0)
(1.81741 0.00843762 0)
(1.83721 0.0101372 0)
(1.8581 0.0135477 0)
(1.87883 0.0184863 0)
(1.89797 0.0221535 0)
(1.91459 0.0258349 0)
(1.92628 0.0317714 0)
(1.9319 0.0407758 0)
(1.9372 0.0474551 0)
(1.94962 0.0472426 0)
(1.96609 0.0436292 0)
(1.98325 0.0376168 0)
(2.00033 0.0302991 0)
(2.01656 0.0252288 0)
(2.03291 0.0240715 0)
(2.04868 0.0266857 0)
(2.06152 0.0339933 0)
(2.06907 0.0450271 0)
(2.07234 0.0544586 0)
(2.07941 0.05531 0)
(2.09448 0.0514741 0)
(2.11229 0.0493366 0)
(2.12997 0.0493017 0)
(2.14775 0.0510011 0)
(2.16494 0.0538789 0)
(2.18042 0.058178 0)
(2.19091 0.0645014 0)
(2.19413 0.0704358 0)
(2.19734 0.0701191 0)
(2.20578 0.0640893 0)
(2.21561 0.0558815 0)
(2.22605 0.0491819 0)
(2.24081 0.0486859 0)
(2.25739 0.0522777 0)
(2.27335 0.0568289 0)
(2.28856 0.0609601 0)
(2.30159 0.0651955 0)
(2.31009 0.0705133 0)
(2.31615 0.0734075 0)
(2.32496 0.0689902 0)