/*--------------------------------*- C++ -*----------------------------------*\
  =========                 |
  \\      /  F ield         | OpenFOAM: The Open Source CFD Toolbox
   \\    /   O peration     | Website:  https://openfoam.org
    \\  /    A nd           | Version:  7
     \\/     M anipulation  |
\*---------------------------------------------------------------------------*/
FoamFile
{
    version     2.0;
    format      ascii;
    class       volScalarField;
    location    "0.7";
    object      p;
}
// * * * * * * * * * * * * * * * * * * * * * * * * * * * * * * * * * * * * * //

dimensions      [1 -1 -2 0 0 0 0];

internalField   nonuniform List<scalar> 
4032
(
1
1
1
1
1
1
1
1
1
1
1
1
1
1
5.31471
11.3233
11.5785
11.7143
11.8254
11.9022
12.0059
12.1347
12.2665
12.3549
1
1
1
1
1
1
1
1
1
1
1
1
1
1
5.14492
11.2133
11.5362
11.6774
11.7838
11.8604
11.9584
12.0817
12.2041
12.286
1
1
1
1
1
1
1
1
1
1
1
1
1
1
4.7839
11.0627
11.4609
11.6095
11.7145
11.7958
11.8877
12.0041
12.1192
12.1957
1
1
1
1
1
1
1
1
1
1
1
1
1
1
4.25778
10.7969
11.3388
11.5026
11.6138
11.7087
11.7936
11.8944
11.9923
12.0495
1
1
1
1
1
1
1
1
1
1
1
1
1
1
3.61071
10.358
11.1954
11.3626
11.4814
11.5796
11.6401
11.7147
11.7922
11.8467
1
1
1
1
1
1
1
1
1
1
1
1
1
1
2.78128
9.64839
11.031
11.1912
11.3363
11.4371
11.4735
11.5079
11.5376
11.4681
1
1
1
1
1
1
1
1
1
1
1
1
1
1
1.86301
8.73038
10.9634
11.0863
11.196
11.2325
11.1882
11.1032
11.0254
10.9456
1
1
1
1
1
1
1
1
1
1
1
1
1
1
1.12726
7.35542
10.7534
10.8834
10.9629
10.9606
10.8665
10.7323
10.5689
10.5463
1
1
1
1
1
1
1
1
1
1
1
1
1
1
1.00186
5.53243
10.2899
10.6372
10.7073
10.6906
10.5211
10.182
9.38952
7.37572
1
1
1
1
1
1
1
1
1
1
1
1
1
1
1
3.46866
9.43496
10.4084
10.4198
10.3316
10.0406
9.48942
8.57654
6.50171
1
1
1
1
1
1
1
1
1
1
1
1
1
1
1
1.63014
8.08467
10.2347
10.1274
9.95
9.55742
8.93882
7.94206
6.08703
1
1
1
1
1
1
1
1
1
1
1
1
1
1
1
1.03325
5.87212
9.7434
9.8318
9.62782
9.20323
8.60894
7.50089
6.02533
1
1
1
1
1
1
1
1
1
1
1
1
1
1
1
1.00012
3.05292
8.87502
9.64892
9.32624
8.85861
8.23037
7.20496
6.02656
1
1
1
1
1
1
1
1
1
1
1
1
1
1
1
1
1.25768
7.06054
9.38418
8.96879
8.53648
7.91776
7.05778
6.09432
1
1
1
1
1
1
1
1
1
1
1
1
1
1
1
1
1.00515
3.97041
8.67011
8.80559
8.36897
7.76357
6.98622
6.14623
1
1
1
1
1
1
1
1
1
1
1
1
1
1
1
1
1
1.47083
7.02072
8.71385
8.1842
7.61354
6.91759
6.18644
1
1
1
1
1
1
1
1
1
1
1
1
1
1
1
1
1
1.01546
3.83845
7.96993
8.02884
7.51261
6.92104
6.27564
1
1
1
1
1
1
1
1
1
1
1
1
1
1
1
1
1
1.00004
1.44828
6.17326
8.03347
7.49481
6.91376
6.3156
1
1
1
1
1
1
1
1
1
1
1
1
1
1
1
1
1
1
1.01363
2.78829
7.04425
7.54032
6.92825
6.40329
1
1
1
1
1
1
1
1
1
1
1
1
1
1
1
1
1
1
1.00006
1.18839
4.52463
7.23606
6.9468
6.41768
1
1
1
1
1
1
1
1
1
1
1
1
1
1
1
1
1
1
1
1.00314
1.77482
5.63594
6.98269
6.54412
1
1
1
1
1
1
1
1
1
1
1
1
1
1
1
1
1
1
1
1.00001
1.03904
2.62742
6.01343
6.59238
1
1
1
1
1
1
1
1
1
1
1
1
1
1
1
1
1
1
1
1
1.00033
1.16242
3.3503
5.99051
1
1
1
1
1
1
1
1
1
1
1
1
1
1
1
1
1
1
1
1
1
1.00289
1.35384
3.81632
1
1
1
1
1
1
1
1
1
1
1
1
1
1
1
1
1
1
1
1
1
1.00001
1.01047
1.55967
1
1
1
1
1
1
1
1
1
1
1
1
1
1
1
1
1
1
1
1
1
1
1.00006
1.02366
1
1
1
1
1
1
1
1
1
1
1
1
1
1
1
1
1
1
1
1
1
1
1
1.00018
1
1
1
1
1
1
1
1
1
1
1
1
1
1
1
1
1
1
1
1
1
1
1
1
1
1
1
1
1
1
1
1
1
1
1
1
1
1
1
1
1
1
1
1
1
1
1
1
1
1
1
1
1
1
1
1
1
1
1
1
1
1
1
1
1
1
1
1
1
1
1
1
1
1
1
1
1
1
1
1
1
1
1
1
1
1
1
1
1
1
1
1
1
1
1
1
1
1
1
1
1
1
1
1
1
1
1
1
1
1
1
1
1
1
1
1
1
1
1
1
1
1
1
1
1
1
1
1
1
1
1
1
1
1
1
1
1
1
1
1
1
1
1
1
1
1
1
1
1
1
1
1
1
1
1
1
1
1
1
1
1
1
1
1
1
1
1
1
1
1
1
1
1
1
1
1
1
1
1
1
1
1
1
1
1
1
1
1
1
1
1
1
1
1
1
1
1
1
1
1
1
1
1
1
1
1
1
1
1
1
1
1
1
1
1
1
1
1
1
1
1
1
1
1
1
1
1
1
1
1
1
1
1
1
1
1
1
1
1
1
1
1
1
1
1
1
1
1
1
1
1
1
1
1
1
1
1
1
1
1
1
1
1
1
1
1
1
1
1
1
1
1
1
1
1
1
1
1
1
1
1
1
1
1
1
1
1
1
1
1
1
1
1
1
1
1
1
1
1
1
1
1
1
1
1
1
1
1
1
1
1
1
1.67178
0.500703
0.15599
0.123745
0.164803
0.277456
0.357802
0.449352
0.62968
0.773718
0.856031
0.878105
0.920934
0.984593
1.00225
1.01712
1.0417
1.0668
1.06928
1.05426
1.04051
1.0196
0.995734
0.984243
0.977148
0.970613
0.972631
0.974728
0.973585
0.962386
0.948856
0.934192
0.922744
0.923368
0.924766
0.91944
0.911155
0.901518
0.888319
0.87267
0.860024
0.852626
0.847713
0.847473
0.850508
0.85194
0.853293
0.855412
0.855377
0.851605
0.851847
0.856988
0.866745
0.877585
0.886335
0.890796
0.892918
0.894902
0.895824
0.895333
0.895134
0.90603
0.921937
0.925792
0.926203
0.926142
0.924906
0.92328
0.923331
0.926087
0.93209
0.942203
0.955488
0.969219
0.984744
1.00698
1.01678
0.979193
0.961412
0.96922
0.989746
1.0138
1.02026
1.0203
1.01929
1.01647
1.01263
1.00905
1.0052
1.00265
1.00289
1.00305
1.00279
1.00258
1.00237
1.00295
2.8223
1.5778
1.00972
0.614688
0.545532
0.555183
0.514424
0.482448
0.496238
0.533194
0.585173
0.634026
0.69732
0.785697
0.867088
0.918297
0.956832
0.989698
0.997651
0.9928
0.989232
0.992285
0.98292
0.977549
0.972149
0.969013
0.973878
0.977785
0.981969
0.975098
0.967445
0.957398
0.941363
0.926535
0.915669
0.905892
0.897192
0.889649
0.880791
0.871242
0.862662
0.856438
0.850679
0.847163
0.846596
0.845354
0.845451
0.847799
0.851445
0.853562
0.858586
0.865255
0.868947
0.874087
0.880086
0.881192
0.882877
0.888183
0.892346
0.894331
0.900465
0.918377
0.923848
0.921074
0.919803
0.92013
0.921595
0.923399
0.926873
0.932949
0.940739
0.94899
0.956825
0.963115
0.967228
0.971948
0.97284
0.965495
0.969612
0.979691
0.991885
1.00695
1.01255
1.01254
1.01319
1.01113
1.00775
1.00545
1.00331
1.00107
1.00091
1.00115
1.00111
1.00111
1.00126
1.00203
3.67072
2.38262
1.73306
1.3022
1.00965
0.858771
0.72387
0.583703
0.549054
0.543547
0.548678
0.576497
0.631175
0.691557
0.76071
0.812974
0.856115
0.903382
0.941178
0.953412
0.96957
0.993978
1.00946
1.0198
1.01599
1.00537
0.993099
0.982428
0.972317
0.963448
0.958309
0.954361
0.946215
0.934044
0.923743
0.912568
0.898822
0.882353
0.869927
0.86484
0.860826
0.856277
0.853901
0.855164
0.855294
0.848919
0.838197
0.832147
0.833119
0.839187
0.853903
0.87445
0.883835
0.888232
0.891298
0.886222
0.876518
0.877281
0.878494
0.878656
0.889583
0.920084
0.932551
0.927618
0.923525
0.921455
0.921124
0.921835
0.925671
0.935155
0.94922
0.962864
0.970691
0.971825
0.970074
0.971472
0.974168
0.973286
0.9866
0.998397
1.00314
1.00427
1.00467
1.00894
1.01705
1.0168
1.01423
1.01243
1.01049
1.00651
1.00241
1.00144
1.00124
1.00106
1.00082
1.00154
4.32371
3.19231
2.41351
1.84649
1.51605
1.28226
1.08442
0.880983
0.80344
0.752727
0.677369
0.626821
0.635575
0.63868
0.647861
0.673437
0.723031
0.779205
0.824502
0.847395
0.871063
0.905089
0.939772
0.973203
0.996279
1.0102
1.01155
1.0021
0.984762
0.969703
0.96012
0.953793
0.947067
0.937716
0.930815
0.923309
0.9051
0.877912
0.864062
0.859919
0.855819
0.851984
0.850548
0.852733
0.856153
0.854894
0.845995
0.838374
0.837464
0.83964
0.848542
0.867262
0.879811
0.883557
0.887064
0.886855
0.88303
0.885097
0.885862
0.884473
0.889847
0.912138
0.928924
0.924464
0.921427
0.92144
0.922282
0.922871
0.926286
0.936656
0.951382
0.961907
0.963584
0.959575
0.954982
0.957513
0.974252
0.992189
1.00087
1.0003
0.997939
0.995107
0.994213
1.00023
1.01315
1.01539
1.01479
1.01492
1.0135
1.00993
1.00449
1.0013
1.00073
1.00033
0.999851
1.00051
4.75318
3.75681
3.04203
2.44996
1.98987
1.66667
1.41267
1.18634
1.07587
0.981055
0.868276
0.754873
0.726754
0.694322
0.645889
0.647771
0.663327
0.683755
0.705019
0.733291
0.76518
0.806501
0.853996
0.891534
0.92289
0.946916
0.963033
0.969481
0.969084
0.977872
0.986001
0.985059
0.974218
0.957006
0.94067
0.925358
0.900936
0.866386
0.8555
0.8531
0.850866
0.85159
0.853614
0.854432
0.855043
0.851382
0.84167
0.837185
0.837335
0.83936
0.846822
0.86409
0.876872
0.878996
0.880437
0.879876
0.881015
0.883927
0.886604
0.890304
0.898253
0.916491
0.924838
0.917821
0.913621
0.912933
0.915652
0.923162
0.935861
0.951145
0.96184
0.963564
0.958793
0.951505
0.945809
0.951553
0.986591
1.01542
1.0036
0.995097
0.987573
0.986199
0.989551
1.00097
1.01097
1.01365
1.01554
1.01673
1.01564
1.01286
1.00806
1.00228
0.999895
0.999365
0.998879
0.999559
5.08395
4.21829
3.49978
2.90811
2.44001
2.10363
1.78909
1.48069
1.32269
1.21144
1.10224
0.981938
0.919933
0.862173
0.778409
0.71073
0.709663
0.708549
0.688526
0.67622
0.681419
0.702554
0.737059
0.770458
0.813457
0.861253
0.903117
0.92247
0.927891
0.938149
0.95519
0.974782
0.991051
0.98343
0.96521
0.94051
0.909041
0.867182
0.848672
0.846011
0.845428
0.849813
0.857091
0.858424
0.856707
0.851003
0.841214
0.836633
0.83575
0.836628
0.843967
0.858155
0.872088
0.876677
0.878305
0.88053
0.883945
0.886451
0.889708
0.895692
0.905838
0.919752
0.920411
0.913384
0.908509
0.906993
0.911875
0.926243
0.946421
0.961903
0.966977
0.963974
0.954727
0.943342
0.938569
0.955831
1.00512
1.0194
1.00043
0.993478
0.988693
0.987718
0.990857
1.00291
1.01063
1.01388
1.0171
1.01823
1.01713
1.01477
1.01066
1.00382
0.998805
0.997726
0.997315
0.998206
5.27901
4.5199
3.88592
3.31594
2.80846
2.44095
2.12446
1.82525
1.61666
1.46257
1.30142
1.15948
1.08746
1.01777
0.929004
0.821188
0.786912
0.763421
0.722086
0.682606
0.681742
0.68907
0.684059
0.682625
0.696463
0.734317
0.788748
0.838439
0.867848
0.889909
0.917184
0.944597
0.962305
0.97396
0.970849
0.954212
0.924657
0.893081
0.865656
0.846249
0.843005
0.845268
0.85037
0.851977
0.850444
0.847346
0.843782
0.841786
0.841714
0.846547
0.853564
0.858018
0.860513
0.865404
0.869239
0.874324
0.88111
0.888837
0.897373
0.904931
0.911575
0.91694
0.913314
0.906646
0.901569
0.901484
0.912276
0.936246
0.964288
0.983267
0.985955
0.971621
0.948964
0.931969
0.932158
0.965396
1.01606
1.01248
0.995116
0.988845
0.98724
0.988701
0.997291
1.00819
1.01151
1.01399
1.0174
1.01861
1.01795
1.01619
1.01245
1.00524
0.998006
0.99587
0.99552
0.996702
5.43795
4.77683
4.1755
3.6092
3.15182
2.78216
2.41945
2.08625
1.87693
1.71315
1.54628
1.37952
1.27063
1.17224
1.07276
0.966032
0.925725
0.894644
0.845755
0.774088
0.749981
0.73786
0.705944
0.675261
0.671686
0.677813
0.696312
0.725415
0.760599
0.808475
0.84979
0.879718
0.906926
0.933157
0.944056
0.948642
0.940621
0.926217
0.904253
0.878434
0.852539
0.83952
0.836872
0.837523
0.838513
0.840553
0.844241
0.848961
0.854999
0.859264
0.857832
0.852681
0.849546
0.850687
0.856106
0.866902
0.881711
0.894653
0.904685
0.910853
0.911497
0.908985
0.902867
0.896216
0.89225
0.898011
0.920462
0.956709
0.990876
1.00001
0.979201
0.948082
0.924471
0.914875
0.928873
0.978607
1.01643
1.00427
0.990846
0.985808
0.986254
0.991045
1.00278
1.00968
1.01174
1.01414
1.0177
1.01954
1.0197
1.01828
1.01366
1.005
0.996761
0.99425
0.993972
0.99545
5.59314
4.96964
4.42246
3.8995
3.41325
3.03703
2.70784
2.39004
2.13502
1.92572
1.72251
1.56965
1.46752
1.36558
1.23654
1.08855
1.04346
1.00693
0.951339
0.873943
0.826955
0.79918
0.757481
0.702779
0.677562
0.679952
0.698049
0.697306
0.695224
0.709666
0.734729
0.769666
0.808781
0.845849
0.887292
0.91647
0.931285
0.932999
0.927031
0.908761
0.877456
0.843078
0.831686
0.829716
0.829955
0.835635
0.84642
0.855599
0.859166
0.855786
0.847902
0.839098
0.837205
0.839378
0.849516
0.872218
0.894414
0.904575
0.909977
0.907505
0.89791
0.889182
0.885
0.882442
0.885552
0.904509
0.94246
0.985147
1.0009
0.975379
0.941075
0.916381
0.906551
0.918585
0.959561
1.00357
1.00996
0.997739
0.989084
0.986464
0.987137
0.992791
1.00335
1.0083
1.01104
1.01469
1.0195
1.022
1.02233
1.02075
1.0147
1.00393
0.99471
0.992472
0.992309
0.994269
5.70006
5.12755
4.6095
4.11003
3.66339
3.29307
2.93344
2.60739
2.37113
2.17361
1.95241
1.74556
1.62487
1.52026
1.39538
1.24626
1.18121
1.1372
1.07371
0.97549
0.91935
0.895291
0.858214
0.796522
0.745001
0.74091
0.735877
0.718029
0.70121
0.685132
0.672567
0.675117
0.693971
0.735682
0.79178
0.857064
0.901746
0.910106
0.906387
0.898573
0.884627
0.858119
0.8423
0.838131
0.838058
0.845733
0.853773
0.855094
0.849911
0.841346
0.829647
0.824803
0.826108
0.833127
0.853088
0.882929
0.897081
0.90451
0.908393
0.900426
0.88582
0.873669
0.871445
0.878021
0.897196
0.932989
0.976743
0.99886
0.977809
0.942393
0.915093
0.902331
0.912641
0.957838
1.00556
1.0098
0.998298
0.993825
0.991078
0.989387
0.990023
0.995073
1.00311
1.00709
1.01015
1.01482
1.02137
1.02443
1.02493
1.02346
1.01567
1.00173
0.992363
0.990697
0.990541
0.992942
5.84692
5.297
4.80977
4.35338
3.89501
3.50519
3.17994
2.86522
2.58665
2.36526
2.14292
1.94174
1.80898
1.69544
1.55515
1.3771
1.29605
1.25947
1.20594
1.10432
1.02276
0.985139
0.944319
0.879743
0.813375
0.800531
0.785854
0.755066
0.721105
0.689502
0.675618
0.672944
0.667059
0.671159
0.700007
0.757528
0.83051
0.866828
0.871151
0.873233
0.869569
0.860777
0.852809
0.849331
0.852674
0.864533
0.864535
0.855403
0.842461
0.827515
0.816684
0.816452
0.822347
0.835998
0.862001
0.881221
0.888005
0.890967
0.894731
0.893066
0.881728
0.872904
0.877698
0.897526
0.929711
0.965332
0.988437
0.980502
0.952388
0.925934
0.909936
0.916065
0.958694
1.00533
1.01044
1.00097
0.990681
0.987065
0.987416
0.988555
0.992881
1.00038
1.00641
1.00986
1.01369
1.01995
1.02596
1.02761
1.02762
1.02465
1.01372
0.997624
0.990092
0.989198
0.98912
0.992777
5.91097
5.40437
4.92095
4.49181
4.09567
3.72025
3.36589
3.06467
2.81821
2.59752
2.36151
2.11761
1.9526
1.8522
1.73948
1.59238
1.44772
1.36626
1.29952
1.20965
1.12623
1.08734
1.05283
0.992895
0.905666
0.877074
0.861308
0.831712
0.790862
0.743041
0.713654
0.698668
0.678486
0.670432
0.672687
0.688892
0.730826
0.77833
0.806887
0.82815
0.84166
0.843487
0.841077
0.841839
0.852874
0.8662
0.869714
0.862248
0.847129
0.831384
0.822483
0.822241
0.831466
0.848721
0.86494
0.870059
0.868019
0.866905
0.871297
0.876829
0.876933
0.879175
0.891583
0.914663
0.942281
0.961978
0.963364
0.949939
0.933163
0.921087
0.923195
0.954456
0.996375
1.00439
0.997324
0.989207
0.977852
0.975436
0.97622
0.980896
0.991044
1.00422
1.01352
1.01873
1.02414
1.03013
1.03268
1.03222
1.02837
1.02024
1.00573
0.991291
0.987149
0.986959
0.987159
0.992579
6.03215
5.54426
5.08002
4.64577
4.23456
3.88095
3.57184
3.26195
2.96583
2.74399
2.5471
2.34244
2.14364
1.97853
1.8671
1.75484
1.62117
1.50611
1.42117
1.32751
1.22435
1.16873
1.14107
1.10415
1.03657
0.972337
0.932099
0.895823
0.855203
0.806202
0.757136
0.730132
0.707511
0.679803
0.674186
0.681601
0.698442
0.717408
0.732997
0.753098
0.783351
0.804684
0.814388
0.820125
0.831894
0.84372
0.851869
0.859393
0.855821
0.849091
0.846541
0.845928
0.849266
0.858541
0.859603
0.853269
0.845907
0.844275
0.850862
0.86208
0.872219
0.881492
0.89443
0.914382
0.937195
0.949426
0.944283
0.93157
0.923381
0.927257
0.950673
0.983034
0.993126
0.988831
0.98304
0.972045
0.969162
0.969938
0.972401
0.978544
0.991206
1.00902
1.02222
1.02996
1.03516
1.0378
1.03841
1.03598
1.02797
1.01278
0.995203
0.987605
0.986922
0.987023
0.987487
0.994348
6.17644
5.67525
5.24494
4.82496
4.42053
4.06079
3.73956
3.43595
3.16129
2.92316
2.70338
2.51356
2.31697
2.12698
1.99722
1.89706
1.7785
1.63649
1.52403
1.44538
1.36722
1.28739
1.22368
1.18401
1.13651
1.07072
1.00635
0.961195
0.932303
0.895166
0.838741
0.795263
0.771701
0.741495
0.707624
0.70289
0.708141
0.715851
0.714997
0.715108
0.726503
0.74564
0.765062
0.785998
0.798932
0.811781
0.826396
0.837942
0.842669
0.842886
0.844169
0.847315
0.851876
0.857383
0.855996
0.847367
0.837517
0.833681
0.840052
0.853414
0.868893
0.884806
0.903815
0.92785
0.95007
0.958996
0.952892
0.941876
0.939288
0.953678
0.97631
0.982295
0.975822
0.967396
0.956447
0.955728
0.960845
0.970512
0.98056
0.994724
1.01439
1.03047
1.03722
1.03956
1.04009
1.03886
1.03696
1.03294
1.02135
1.00141
0.988157
0.985761
0.985781
0.98624
0.987241
0.996993
6.26351
5.85088
5.37785
4.97399
4.58309
4.23825
3.93776
3.6363
3.32354
3.05162
2.8617
2.69338
2.5161
2.30064
2.09108
2.00433
1.92976
1.81844
1.66833
1.53657
1.4745
1.40419
1.32621
1.26359
1.22521
1.17505
1.09829
1.01678
0.985909
0.965182
0.924956
0.870569
0.838378
0.811143
0.767811
0.728443
0.72259
0.721475
0.712744
0.709876
0.715067
0.729464
0.747268
0.763591
0.778629
0.78898
0.797864
0.806544
0.813225
0.814834
0.816431
0.823846
0.83386
0.84162
0.84532
0.842781
0.838188
0.835716
0.838954
0.850464
0.868413
0.890447
0.916678
0.944507
0.965787
0.975987
0.975813
0.970324
0.970108
0.977841
0.978283
0.971979
0.964153
0.95389
0.951409
0.953575
0.959206
0.971271
0.995876
1.02496
1.04226
1.04725
1.04872
1.04939
1.04865
1.04239
1.03323
1.02163
1.00461
0.99074
0.987327
0.986775
0.986182
0.986407
0.987836
1.00112
5.80132
5.97037
5.59475
5.12667
4.73515
4.40817
4.09207
3.80032
3.52995
3.26454
2.9872
2.78663
2.66136
2.50183
2.29182
2.10684
2.01027
1.93464
1.81599
1.68207
1.59773
1.53048
1.43256
1.32475
1.29241
1.26639
1.21023
1.12323
1.04425
1.0238
0.995495
0.940895
0.898292
0.881215
0.85567
0.801281
0.77015
0.764706
0.754218
0.738862
0.733815
0.734386
0.738171
0.743426
0.749581
0.756976
0.764716
0.772668
0.779164
0.783322
0.788065
0.79694
0.809767
0.820274
0.824055
0.82309
0.822327
0.823984
0.8271
0.834367
0.851255
0.876973
0.904109
0.928169
0.945216
0.954193
0.958568
0.960501
0.963511
0.97156
0.971565
0.966433
0.960206
0.956938
0.958961
0.966608
0.98211
1.00873
1.03679
1.04787
1.04925
1.04918
1.04934
1.05001
1.04943
1.04295
1.02576
1.00298
0.988231
0.984821
0.984785
0.985391
0.986316
0.987804
0.990777
1.00909
4.01501
5.5746
5.71089
5.37612
4.91123
4.55947
4.27702
3.97103
3.67057
3.43694
3.19496
2.95585
2.77349
2.62387
2.45255
2.25017
2.13339
2.05798
1.95245
1.80307
1.70019
1.65061
1.5691
1.44361
1.3598
1.32869
1.28343
1.20801
1.1304
1.10093
1.07371
1.02414
0.957737
0.938485
0.922478
0.881015
0.827244
0.810336
0.798852
0.77818
0.756995
0.751731
0.747642
0.743586
0.744045
0.748413
0.75571
0.763514
0.768498
0.770655
0.774455
0.782327
0.79098
0.79511
0.794748
0.792279
0.7912
0.794808
0.802294
0.812267
0.829001
0.852214
0.875986
0.896752
0.912132
0.923437
0.933567
0.943552
0.953615
0.961505
0.961899
0.961393
0.963143
0.96681
0.974625
0.99353
1.02524
1.04704
1.05169
1.05236
1.05208
1.05115
1.04796
1.04382
1.03796
1.02415
1.00049
0.983335
0.980725
0.981699
0.983065
0.984498
0.986723
0.990097
0.995559
1.02061
1.71001
4.0241
5.3372
5.47183
5.18392
4.75748
4.41669
4.12486
3.85616
3.60697
3.35482
3.10952
2.92074
2.77738
2.61639
2.39645
2.2303
2.16422
2.08799
1.9663
1.8252
1.74011
1.66294
1.54737
1.45006
1.41083
1.36829
1.29408
1.20735
1.17734
1.15245
1.10701
1.03773
1.00009
0.984194
0.952608
0.89242
0.862743
0.854905
0.838719
0.808082
0.794144
0.789784
0.778566
0.767545
0.763098
0.761036
0.760672
0.760544
0.760226
0.762673
0.767103
0.767875
0.76652
0.76365
0.759656
0.756906
0.760193
0.771306
0.7902
0.811289
0.830098
0.843408
0.850712
0.858238
0.873166
0.89231
0.913399
0.934157
0.947213
0.950511
0.953489
0.959064
0.969663
0.986395
1.01324
1.03939
1.04754
1.04977
1.05075
1.05074
1.05016
1.04724
1.03488
1.01267
0.990924
0.981124
0.979647
0.980405
0.982107
0.98453
0.987311
0.99084
0.995745
1.00421
1.03696
1.03746
1.77138
3.91415
5.15416
5.24137
4.99184
4.63569
4.27769
3.98739
3.76616
3.54055
3.28182
3.03239
2.89808
2.77127
2.58898
2.38777
2.27305
2.18543
2.07497
1.95418
1.86341
1.7746
1.65682
1.52552
1.48327
1.45499
1.38691
1.29765
1.26199
1.23232
1.18876
1.11601
1.06492
1.04972
1.02236
0.964204
0.922311
0.912963
0.899948
0.869545
0.8416
0.83651
0.827846
0.806072
0.78963
0.780143
0.772605
0.768882
0.767204
0.767124
0.765165
0.761524
0.759384
0.756889
0.752267
0.747726
0.749458
0.761538
0.781851
0.799629
0.808374
0.809653
0.806296
0.806343
0.817513
0.835836
0.859068
0.882817
0.905201
0.92344
0.936927
0.94997
0.967939
0.995497
1.01968
1.03148
1.03602
1.03875
1.03981
1.03929
1.03558
1.02152
0.996843
0.977113
0.972742
0.974138
0.976481
0.978865
0.98266
0.988063
0.993756
0.998798
1.00445
1.01632
1.0577
1.00036
1.0457
1.74656
3.81279
4.8492
4.99189
4.86771
4.53293
4.16628
3.9005
3.68058
3.45402
3.22279
3.03713
2.88811
2.72837
2.54303
2.41319
2.31349
2.19194
2.05624
1.96819
1.88533
1.77437
1.62353
1.56314
1.54063
1.48473
1.38895
1.3414
1.31488
1.27599
1.20414
1.1387
1.11679
1.09035
1.03551
0.988308
0.976797
0.965817
0.939561
0.899307
0.888684
0.881665
0.859388
0.832658
0.819782
0.811344
0.807679
0.802864
0.794996
0.7853
0.774936
0.766338
0.761085
0.756111
0.752005
0.754947
0.769831
0.785913
0.791602
0.786643
0.779751
0.775358
0.776066
0.783611
0.795097
0.810132
0.827885
0.849954
0.876057
0.901213
0.926666
0.957354
0.993316
1.01489
1.01741
1.01792
1.01744
1.01546
1.00877
0.994979
0.977978
0.970159
0.970935
0.972365
0.97386
0.976646
0.980976
0.986919
0.99357
1.00011
1.00685
1.01592
1.03681
1.08755
1
1.0005
1.04476
1.71043
3.46115
4.56837
4.87948
4.77487
4.4416
4.11239
3.84825
3.60087
3.38567
3.19487
3.02873
2.88262
2.70138
2.51856
2.42365
2.32427
2.17906
2.07274
1.99958
1.90197
1.74122
1.64538
1.6215
1.575
1.49436
1.44259
1.40871
1.36425
1.28539
1.20344
1.17977
1.15777
1.10894
1.0586
1.04529
1.03516
1.01188
0.968082
0.944052
0.933154
0.909695
0.87846
0.864573
0.856608
0.855597
0.847753
0.832264
0.818204
0.803407
0.789412
0.781208
0.774653
0.771408
0.778152
0.793899
0.799095
0.793769
0.785307
0.778586
0.775003
0.775067
0.780952
0.79096
0.804285
0.820451
0.839977
0.865162
0.893407
0.919491
0.947578
0.96844
0.975608
0.978103
0.978741
0.977721
0.975538
0.970654
0.965458
0.96381
0.965292
0.968074
0.972089
0.977545
0.984883
0.994189
1.00205
1.00626
1.00848
1.01287
1.02631
1.06535
1.12154
1
1
1.00051
1.03943
1.58455
3.00858
4.4223
4.73797
4.65071
4.38949
4.08039
3.78118
3.55804
3.34143
3.1314
3.00304
2.88371
2.69619
2.52795
2.4329
2.30808
2.18313
2.10756
2.01785
1.86586
1.76213
1.72245
1.66707
1.57955
1.53127
1.50229
1.45852
1.37772
1.28341
1.25157
1.22938
1.18252
1.12893
1.11452
1.10466
1.08098
1.03827
1.00301
0.988281
0.966552
0.934669
0.920004
0.912169
0.910391
0.899709
0.881071
0.862546
0.84396
0.830253
0.822559
0.817319
0.81747
0.826172
0.830596
0.82403
0.814005
0.804312
0.799234
0.79831
0.799623
0.803193
0.808794
0.818275
0.83285
0.850454
0.869863
0.891261
0.913049
0.929488
0.936103
0.941026
0.946821
0.952547
0.956666
0.958939
0.960819
0.962373
0.963666
0.965278
0.967546
0.971273
0.978274
0.989606
1.00129
1.00933
1.01555
1.02179
1.03205
1.05916
1.11852
1.15451
1
1
1
1.0004
1.02885
1.3975
2.67818
4.26138
4.48089
4.43167
4.32103
4.03192
3.73468
3.51135
3.28617
3.09089
3.01295
2.88538
2.69354
2.54815
2.42232
2.30041
2.22123
2.13764
1.98435
1.87328
1.82601
1.77029
1.6794
1.61964
1.59189
1.54796
1.46535
1.36958
1.33323
1.30819
1.26079
1.20294
1.18623
1.17586
1.15026
1.10555
1.06325
1.04528
1.02577
0.993439
0.97712
0.970025
0.968504
0.955852
0.934078
0.909244
0.888046
0.87606
0.868943
0.864561
0.866479
0.873132
0.870328
0.861101
0.848028
0.835791
0.830872
0.829494
0.828749
0.82836
0.829757
0.834319
0.846113
0.863323
0.879787
0.895835
0.913687
0.927454
0.933432
0.938115
0.944171
0.950945
0.955423
0.957974
0.960811
0.964644
0.969385
0.974797
0.981751
0.992325
1.00592
1.01475
1.01632
1.01534
1.01701
1.02576
1.05319
1.11355
1.17503
1.17959
1
1
1
1
1.00024
1.01632
1.26189
2.48502
3.75862
4.21772
4.34532
4.25968
3.97284
3.71645
3.47902
3.23541
3.13956
3.01777
2.8448
2.69116
2.55574
2.40701
2.33037
2.25805
2.12393
1.99513
1.929
1.86809
1.77256
1.71757
1.68891
1.64081
1.55435
1.45529
1.41492
1.38728
1.33822
1.27792
1.26075
1.24996
1.22155
1.17192
1.12789
1.10902
1.09026
1.05581
1.03706
1.03003
1.02784
1.01372
0.987233
0.958779
0.941383
0.932878
0.929
0.927821
0.92756
0.926029
0.918807
0.907026
0.893924
0.886725
0.884111
0.882102
0.879962
0.878821
0.879487
0.88415
0.896008
0.908781
0.917382
0.926044
0.935125
0.939123
0.939827
0.94001
0.943696
0.950029
0.955243
0.958817
0.961675
0.965297
0.970757
0.978866
0.990769
1.00589
1.0182
1.02533
1.03096
1.0354
1.04327
1.06628
1.12221
1.19021
1.212
1.1989
1
1
1
1
1
1.00011
1.00891
1.19299
2.11114
3.16545
4.0149
4.22333
4.16246
3.94392
3.70858
3.47238
3.31928
3.14927
2.95678
2.82931
2.70421
2.52887
2.4425
2.38091
2.26493
2.12113
2.04369
1.97781
1.87011
1.81144
1.78532
1.7395
1.65116
1.54864
1.50337
1.47195
1.41597
1.35173
1.33505
1.32428
1.29293
1.23977
1.1966
1.18051
1.1652
1.13027
1.11089
1.10555
1.1082
1.09775
1.06998
1.04623
1.03768
1.03665
1.04022
1.0424
1.03556
1.02554
1.01443
0.997404
0.979988
0.970371
0.962545
0.954597
0.947392
0.942487
0.939899
0.942177
0.950585
0.957185
0.957972
0.958399
0.959784
0.960673
0.960098
0.953146
0.951584
0.955929
0.961114
0.966631
0.974098
0.983632
0.994269
1.00581
1.01685
1.02307
1.02524
1.0273
1.03236
1.04761
1.08184
1.14487
1.21493
1.23933
1.23895
1.19287
1
1
1
1
1
1
1.00005
1.0051
1.11082
1.59818
2.58387
3.83333
4.00474
3.93036
3.899
3.76677
3.52952
3.3149
3.0915
2.9493
2.86076
2.69562
2.54099
2.47833
2.39709
2.26683
2.1701
2.0916
1.97537
1.90944
1.88228
1.83676
1.74669
1.63814
1.59119
1.55903
1.49799
1.43012
1.41483
1.41037
1.38743
1.3439
1.31251
1.31177
1.32192
1.32675
1.33767
1.35487
1.39292
1.41383
1.4076
1.40552
1.42638
1.45247
1.46499
1.45681
1.43876
1.41522
1.38265
1.33954
1.29938
1.26863
1.24012
1.20971
1.17625
1.14066
1.10749
1.07918
1.05575
1.03944
1.02859
1.01973
1.01228
1.00606
0.99734
0.984089
0.980782
0.98367
0.988189
0.993958
1.00225
1.01291
1.02445
1.03568
1.04489
1.05089
1.05582
1.06349
1.08023
1.11722
1.18309
1.24875
1.26795
1.26382
1.23479
1.12808
1
1
1
1
1
1
1
1.00002
1.0018
1.03402
1.27201
2.26654
3.33645
3.68812
3.86063
3.88126
3.78038
3.58254
3.33159
3.07353
2.96725
2.85862
2.70979
2.59738
2.48901
2.36224
2.28426
2.21894
2.10207
2.01023
1.97855
1.93577
1.84513
1.72727
1.68043
1.6609
1.61761
1.58046
1.59159
1.64939
1.73108
1.77902
1.81713
1.86815
1.95801
2.05949
2.10389
2.15007
2.19904
2.19501
2.1667
2.1538
2.15444
2.15695
2.1487
2.1221
2.08911
2.04982
1.99329
1.92591
1.8676
1.81935
1.772
1.72331
1.67115
1.61148
1.54453
1.47497
1.40594
1.33707
1.26846
1.20245
1.14262
1.09031
1.04615
1.01994
1.01442
1.01548
1.01811
1.02229
1.02835
1.03542
1.04303
1.05118
1.06049
1.07239
1.08953
1.11772
1.16594
1.23492
1.28747
1.2971
1.28674
1.24434
1.14517
1.02981
1
1
1
1
1
1
1
1
1
1.0003
1.00984
1.16247
1.89805
2.74221
3.38201
3.73991
3.78792
3.73184
3.57875
3.33461
3.12517
2.98157
2.84835
2.72923
2.62502
2.46966
2.35856
2.31658
2.24196
2.13375
2.0862
2.05985
2.00433
1.93448
1.94124
2.01297
2.13624
2.27084
2.42299
2.65165
2.83623
2.90417
2.90842
2.92321
2.97858
2.96355
2.91722
2.89361
2.87376
2.82778
2.75931
2.70078
2.66149
2.62819
2.58727
2.53711
2.485
2.42831
2.36374
2.3071
2.26258
2.21739
2.17137
2.1296
2.08715
2.03544
1.97083
1.90128
1.83518
1.77254
1.70617
1.62711
1.52813
1.41035
1.29359
1.20493
1.1491
1.11557
1.09704
1.08995
1.08976
1.09303
1.09916
1.10808
1.12135
1.14244
1.17753
1.23241
1.29467
1.32512
1.32495
1.30298
1.24193
1.12179
1.02182
1.00063
1
1
1
1
1
1
1
1
1
1
1.00006
1.00466
1.08455
1.42749
2.077
3.00575
3.42489
3.60216
3.57166
3.51795
3.39184
3.20585
3.01553
2.83992
2.73345
2.61815
2.48268
2.42982
2.40495
2.36787
2.40408
2.51444
2.70545
2.93576
3.14863
3.37147
3.54216
3.60607
3.67642
3.73468
3.70698
3.58538
3.42463
3.34764
3.29897
3.22741
3.13557
3.03976
2.94851
2.86916
2.79624
2.73536
2.68982
2.64612
2.59676
2.54033
2.48064
2.40977
2.33851
2.29784
2.26637
2.23375
2.20016
2.16728
2.13187
2.09019
2.04435
2.00236
1.97048
1.94418
1.91537
1.87682
1.82287
1.75104
1.663
1.56191
1.45215
1.35024
1.26599
1.20432
1.17053
1.16126
1.16374
1.17833
1.20738
1.25314
1.30988
1.35118
1.35906
1.34763
1.30862
1.21906
1.08553
1.01026
1.00019
1
1
1
1
1
1
1
1
1
1
1
1
1.00002
1.00129
1.02106
1.12609
1.60113
2.44028
3.08314
3.33574
3.44126
3.42545
3.37037
3.23674
3.09279
2.9991
2.99083
3.0158
3.10822
3.30161
3.63144
3.96912
4.28319
4.60607
4.73606
4.77391
4.79355
4.7527
4.65443
4.50781
4.35691
4.2104
4.02824
3.8535
3.74259
3.64256
3.53534
3.41244
3.27574
3.14314
3.02773
2.93333
2.85264
2.78074
2.7147
2.64887
2.57519
2.49163
2.41694
2.39046
2.37608
2.3585
2.3349
2.30945
2.28242
2.25031
2.21344
2.17925
2.15487
2.13929
2.12585
2.11
2.08657
2.05248
2.01082
1.96617
1.91455
1.84323
1.74806
1.65011
1.55012
1.45374
1.3785
1.34209
1.33855
1.35685
1.3862
1.39585
1.38804
1.35769
1.29293
1.17011
1.04586
1.00325
1.00003
1
1
1
1
1
1
1
1
1
1
1
1
1
1
1
1.00014
1.00247
1.04419
1.26937
1.84432
2.51701
3.05004
3.24984
3.43039
3.66136
3.92386
4.21535
4.51071
4.82196
4.99015
5.21512
5.451
5.3665
5.29648
5.26136
5.15073
5.03618
4.99894
4.91439
4.73722
4.5194
4.29138
4.06393
3.81992
3.65686
3.5612
3.46404
3.35263
3.222
3.07915
2.95866
2.87671
2.81303
2.75482
2.69612
2.6281
2.54287
2.45189
2.37352
2.31781
2.28746
2.2682
2.2486
2.22435
2.19542
2.16133
2.12118
2.0767
2.03926
2.02206
2.01384
2.01078
2.01222
2.01325
2.01004
1.99814
1.96902
1.92704
1.9039
1.88864
1.86899
1.84384
1.81154
1.7654
1.70101
1.62123
1.53409
1.45206
1.39973
1.34553
1.24247
1.1022
1.01669
1.00063
1
1
1
1
1
1
1
1
1
1
1
1
1
1
1
1
1
1
1.00001
1.00058
1.01035
1.09314
1.41116
2.11222
3.1771
4.32974
5.39268
6.3701
7.1203
7.79412
8.06848
8.00157
7.94585
7.80979
7.39913
6.85942
6.40688
5.94364
5.48989
5.11984
4.81383
4.51448
4.24342
4.00264
3.74413
3.51839
3.41693
3.34335
3.26144
3.16432
3.04413
2.90498
2.80058
2.73702
2.6825
2.62714
2.56803
2.50074
2.41609
2.31933
2.24495
2.20114
2.17692
2.15924
2.14165
2.12014
2.09182
2.05357
2.0038
1.94969
1.90597
1.87985
1.8637
1.85225
1.84477
1.84136
1.84706
1.86256
1.89766
1.97058
2.06859
2.16766
2.24555
2.28769
2.29125
2.25884
2.17445
2.01907
1.81075
1.58452
1.35004
1.15416
1.03906
1.00357
1.00007
1
1
1
1
1
)
;

boundaryField
{
    inlet
    {
        type            fixedValue;
        value           uniform 1;
    }
    outlet
    {
        type            zeroGradient;
    }
    bottom
    {
        type            symmetryPlane;
    }
    top
    {
        type            symmetryPlane;
    }
    obstacle
    {
        type            zeroGradient;
    }
    defaultFaces
    {
        type            empty;
    }
}


// ************************************************************************* //
