/*--------------------------------*- C++ -*----------------------------------*\
  =========                 |
  \\      /  F ield         | OpenFOAM: The Open Source CFD Toolbox
   \\    /   O peration     | Website:  https://openfoam.org
    \\  /    A nd           | Version:  7
     \\/     M anipulation  |
\*---------------------------------------------------------------------------*/
FoamFile
{
    version     2.0;
    format      ascii;
    class       volScalarField;
    location    "0.5";
    object      p;
}
// * * * * * * * * * * * * * * * * * * * * * * * * * * * * * * * * * * * * * //

dimensions      [1 -1 -2 0 0 0 0];

internalField   nonuniform List<scalar> 
4032
(
1
1
1
1
1
1
1
1
1
1
1
1
1
1
1
6.17772
11.6121
11.7067
11.7921
11.9629
12.1153
12.3161
12.4514
12.5216
1
1
1
1
1
1
1
1
1
1
1
1
1
1
1
5.97221
11.5138
11.6751
11.7695
11.933
12.0694
12.2517
12.3801
12.4514
1
1
1
1
1
1
1
1
1
1
1
1
1
1
1
5.54998
11.387
11.6169
11.7172
11.8686
11.9909
12.1569
12.2833
12.3596
1
1
1
1
1
1
1
1
1
1
1
1
1
1
1
4.92517
11.1486
11.514
11.629
11.7746
11.8853
12.0402
12.1559
12.2239
1
1
1
1
1
1
1
1
1
1
1
1
1
1
1
4.14792
10.7515
11.3899
11.5177
11.6192
11.7077
11.8529
11.9639
12.0401
1
1
1
1
1
1
1
1
1
1
1
1
1
1
1
3.25415
10.152
11.2138
11.3323
11.4221
11.5085
11.637
11.7211
11.6708
1
1
1
1
1
1
1
1
1
1
1
1
1
1
1
2.19147
9.23569
11.0865
11.1758
11.2079
11.2286
11.233
11.21
11.1488
1
1
1
1
1
1
1
1
1
1
1
1
1
1
1
1.28007
7.82546
10.8741
10.9563
10.9094
10.8633
10.827
10.722
10.7522
1
1
1
1
1
1
1
1
1
1
1
1
1
1
1
1.00791
5.85475
10.4407
10.7265
10.6672
10.5589
10.276
9.49193
7.41899
1
1
1
1
1
1
1
1
1
1
1
1
1
1
1
1.00002
3.55928
9.60068
10.5075
10.3485
10.1098
9.54534
8.57341
6.53249
1
1
1
1
1
1
1
1
1
1
1
1
1
1
1
1
1.6104
8.18199
10.2462
9.96509
9.61921
8.93763
7.93887
6.16734
1
1
1
1
1
1
1
1
1
1
1
1
1
1
1
1
1.02767
5.61033
9.70947
9.65077
9.2863
8.63169
7.57792
6.09206
1
1
1
1
1
1
1
1
1
1
1
1
1
1
1
1
1.00008
2.57465
8.64569
9.43764
8.96103
8.29287
7.32985
6.12705
1
1
1
1
1
1
1
1
1
1
1
1
1
1
1
1
1
1.1449
6.22972
8.99902
8.63455
8.03545
7.20749
6.19559
1
1
1
1
1
1
1
1
1
1
1
1
1
1
1
1
1
1.00158
2.75919
8.09084
8.55725
7.91442
7.14834
6.2492
1
1
1
1
1
1
1
1
1
1
1
1
1
1
1
1
1
1
1.16929
5.56587
8.22593
7.71965
7.04654
6.28451
1
1
1
1
1
1
1
1
1
1
1
1
1
1
1
1
1
1
1.00208
2.16821
6.99248
7.773
7.08756
6.40904
1
1
1
1
1
1
1
1
1
1
1
1
1
1
1
1
1
1
1
1.08054
3.84834
7.17674
7.08866
6.43562
1
1
1
1
1
1
1
1
1
1
1
1
1
1
1
1
1
1
1
1.00079
1.46081
5.07905
6.96946
6.54063
1
1
1
1
1
1
1
1
1
1
1
1
1
1
1
1
1
1
1
1
1.0144
2.10412
5.64864
6.52744
1
1
1
1
1
1
1
1
1
1
1
1
1
1
1
1
1
1
1
1
1.00007
1.07319
2.75448
5.66538
1
1
1
1
1
1
1
1
1
1
1
1
1
1
1
1
1
1
1
1
1
1.0008
1.18989
3.09547
1
1
1
1
1
1
1
1
1
1
1
1
1
1
1
1
1
1
1
1
1
1
1.00366
1.29124
1
1
1
1
1
1
1
1
1
1
1
1
1
1
1
1
1
1
1
1
1
1
1.00001
1.00754
1
1
1
1
1
1
1
1
1
1
1
1
1
1
1
1
1
1
1
1
1
1
1
1.00003
1
1
1
1
1
1
1
1
1
1
1
1
1
1
1
1
1
1
1
1
1
1
1
1
1
1
1
1
1
1
1
1
1
1
1
1
1
1
1
1
1
1
1
1
1
1
1
1
1
1
1
1
1
1
1
1
1
1
1
1
1
1
1
1
1
1
1
1
1
1
1
1
1
1
1
1
1
1
1
1
1
1
1
1
1
1
1
1
1
1
1
1
1
1
1
1
1
1
1
1
1
1
1
1
1
1
1
1
1
1
1
1
1
1
1
1
1
1
1
1
1
1
1
1
1
1
1
1
1
1
1
1
1
1
1
1
1
1
1
1
1
1
1
1
1
1
1
1
1
1
1
1
1
1
1
1
1
1
1
1
1
1
1
1
1
1
1
1
1
1
1
1
1
1
1
1
1
1
1
1
1
1
1
1
1
1
1
1
1
1
1
1
1
1
1
1
1
1
1
1
1
1
1
1
1
1
1
1
1
1
1
1
1
1
1
1
1
1
1
1
1
1
1
1
1
1
1
1
1
1
1
1
1
1
1
1
1
1
1
1
1
1
1
1
1
1
1
1
1
1
1
1
1
1
1
1
1
1
1
1
1
1
1
1
1
1
1
1
1
1
1
1
1
1
1
1
1
1
1
1
1
1
1
1
1
1
1
1
1
1
1
1
1
1
1
1
1
1
1
1
1
1
1
1
1
1
1
1
1
1
1
1
1
1
1
1
1
1
1
1
1
1
1
1
1
1
1
1
1
1
1
1
1
1
1
1
1
1
1
1
1
1
1
1
1
1
1
1
1
1
1
1
1
1
1
1
1
1
1
1
1.64666
0.500522
0.243856
0.167063
0.169934
0.241476
0.363545
0.457828
0.582373
0.752629
0.905763
0.961903
0.957171
0.948265
0.955619
0.977599
0.991119
1.01127
1.02708
1.02896
1.01014
0.964978
0.906993
0.871823
0.85876
0.85392
0.864196
0.886124
0.889566
0.883844
0.863505
0.829207
0.813214
0.810625
0.809394
0.815109
0.841339
0.898505
0.931141
0.922964
0.914925
0.900337
0.894241
0.896032
0.903342
0.917501
0.934761
0.949698
0.959682
0.964389
0.964097
0.959588
0.956371
0.966317
0.983709
0.981884
0.981773
0.989168
1.00037
1.00243
0.998578
0.994159
0.990615
0.988308
0.987442
0.987581
0.988756
0.99586
1.01839
1.04262
1.0487
1.04894
1.04899
1.04876
1.04689
1.0402
1.02543
1.00756
1.00052
1
1
1
1
1
1
1
1
1
1
1
1
1
1
1
1
1
2.85389
1.48618
1.06102
0.77742
0.552791
0.517742
0.521555
0.496064
0.491173
0.534528
0.618782
0.696886
0.743453
0.797909
0.850503
0.887555
0.942408
0.985438
0.995446
0.998783
0.983323
0.959878
0.926861
0.895414
0.878952
0.86937
0.865013
0.86891
0.867202
0.864407
0.853541
0.838462
0.83302
0.8323
0.833378
0.838708
0.853111
0.885831
0.907775
0.901562
0.898475
0.897686
0.900667
0.905219
0.912508
0.923001
0.933023
0.941015
0.947145
0.951048
0.952393
0.953591
0.961594
0.984494
0.99597
0.9768
0.971603
0.976308
0.987381
0.993193
0.991011
0.988205
0.986259
0.985615
0.985711
0.986272
0.987764
0.996357
1.01933
1.04291
1.04889
1.0491
1.04911
1.04845
1.04593
1.03991
1.02603
1.00795
1.00054
1
1
1
1
1
1
1
1
1
1
1
1
1
1
1
1
1
3.78698
2.41928
1.71777
1.30616
1.00825
0.82234
0.735669
0.638043
0.525462
0.517988
0.550437
0.605625
0.653273
0.7078
0.773545
0.814097
0.869393
0.937221
0.975035
0.994838
0.99155
0.965535
0.937586
0.909855
0.892719
0.882575
0.874811
0.864414
0.852938
0.838728
0.828624
0.82892
0.833874
0.840293
0.848577
0.863378
0.879698
0.895388
0.89275
0.880578
0.876426
0.881041
0.888291
0.901045
0.917872
0.929953
0.93457
0.935003
0.934586
0.933758
0.934009
0.939535
0.959571
0.998479
1.01057
0.987569
0.980158
0.983068
0.99266
0.9966
0.99419
0.990593
0.988182
0.987838
0.988369
0.989232
0.99141
1.00105
1.02411
1.04541
1.04997
1.05007
1.04989
1.04881
1.0459
1.03879
1.02396
1.00659
1.00038
1
1
1
1
1
1
1
1
1
1
1
1
1
1
1
1
1
4.36589
3.18455
2.42116
1.87048
1.43551
1.17942
1.0558
0.940597
0.780641
0.688837
0.681243
0.651448
0.620208
0.627729
0.661489
0.699939
0.75284
0.819
0.870646
0.914469
0.951231
0.96177
0.958768
0.942867
0.922498
0.902361
0.885816
0.868707
0.846994
0.827521
0.822098
0.821966
0.827176
0.839445
0.855437
0.871198
0.877085
0.879194
0.881271
0.872945
0.871282
0.878459
0.892711
0.913013
0.932639
0.944786
0.948203
0.947228
0.944058
0.938021
0.93284
0.938348
0.967824
1.01344
1.01018
0.985725
0.981775
0.986873
0.995329
0.99597
0.993121
0.988941
0.986994
0.987245
0.988099
0.988959
0.991477
1.00368
1.02933
1.04831
1.05125
1.05135
1.05116
1.04986
1.04651
1.03827
1.02147
1.00475
1.00019
1
1
1
1
1
1
1
1
1
1
1
1
1
1
1
1
1
4.81947
3.7472
2.95635
2.4088
1.9559
1.59315
1.36272
1.17649
1.00552
0.891461
0.844472
0.778069
0.688394
0.639955
0.64893
0.664639
0.669982
0.692691
0.74744
0.812394
0.866514
0.893381
0.915984
0.936647
0.935736
0.926212
0.906491
0.876833
0.842317
0.824775
0.819907
0.822412
0.833761
0.846305
0.857144
0.861381
0.853397
0.846405
0.852264
0.857263
0.864534
0.882019
0.909967
0.936639
0.951328
0.954799
0.952425
0.94789
0.942793
0.93922
0.942288
0.959488
0.992008
1.01256
0.996911
0.985691
0.989305
0.996888
0.999461
0.997842
0.99178
0.985195
0.983916
0.985147
0.986383
0.987497
0.992571
1.00933
1.03661
1.05156
1.05309
1.05318
1.05296
1.05147
1.04732
1.03685
1.01768
1.0028
1.00006
1
1
1
1
1
1
1
1
1
1
1
1
1
1
1
1
1
5.10895
4.18546
3.44371
2.85169
2.3497
1.97228
1.71871
1.5187
1.275
1.097
1.02679
0.951362
0.853344
0.773352
0.759486
0.729491
0.685705
0.678824
0.687142
0.711219
0.750784
0.802143
0.851406
0.888803
0.89444
0.89067
0.87822
0.864564
0.853555
0.842825
0.841596
0.854613
0.865717
0.865354
0.860273
0.85016
0.834941
0.82472
0.826837
0.837579
0.853514
0.883602
0.927502
0.958856
0.965316
0.957996
0.949685
0.942869
0.938225
0.939556
0.950532
0.968211
0.981268
0.983074
0.981626
0.989984
1.00168
1.00547
1.00558
1.00023
0.987475
0.979793
0.979972
0.981929
0.983057
0.985481
0.995053
1.01724
1.04474
1.05504
1.05569
1.0558
1.05548
1.05356
1.04793
1.03396
1.01265
1.00122
1.00001
1
1
1
1
1
1
1
1
1
1
1
1
1
1
1
1
1
5.33872
4.50718
3.80287
3.25358
2.77577
2.33368
2.00332
1.77951
1.55653
1.36146
1.24114
1.13185
0.995514
0.891313
0.857816
0.810999
0.74696
0.691966
0.688153
0.696416
0.711878
0.731128
0.765469
0.810189
0.838703
0.839638
0.833431
0.829208
0.828206
0.834478
0.847829
0.872258
0.885125
0.881139
0.870454
0.852346
0.83553
0.823773
0.819394
0.826224
0.846574
0.888097
0.939916
0.962233
0.95471
0.937691
0.924229
0.917239
0.918694
0.930674
0.949146
0.962108
0.964599
0.966927
0.982636
1.00489
1.01213
1.01254
1.01045
0.998697
0.981481
0.975557
0.977025
0.979332
0.981121
0.986339
1.00025
1.02717
1.05278
1.05904
1.05945
1.05963
1.05912
1.05607
1.04733
1.02837
1.0071
1.00034
1
1
1
1
1
1
1
1
1
1
1
1
1
1
1
1
1
1
5.49673
4.75271
4.11192
3.5754
3.09493
2.66131
2.33496
2.06596
1.78027
1.56761
1.45116
1.34133
1.20159
1.05729
0.998134
0.939405
0.864908
0.784681
0.775131
0.768764
0.744671
0.731223
0.731132
0.742248
0.755945
0.760683
0.762421
0.771008
0.789332
0.810754
0.829842
0.850758
0.865079
0.866197
0.863549
0.856599
0.847426
0.838682
0.833404
0.837704
0.857972
0.894238
0.926595
0.935867
0.931053
0.919928
0.908046
0.903342
0.912191
0.933779
0.954483
0.965461
0.97478
0.991814
1.01403
1.0195
1.01635
1.01472
1.00713
0.989647
0.974012
0.971125
0.97326
0.97552
0.979173
0.988055
1.00693
1.03795
1.06008
1.0638
1.06431
1.06456
1.06373
1.05905
1.04487
1.01997
1.00269
1.00005
1
1
1
1
1
1
1
1
1
1
1
1
1
1
1
1
1
1
5.68354
4.98501
4.34764
3.82915
3.39111
2.95776
2.56438
2.28121
2.03372
1.80483
1.66044
1.53771
1.38129
1.23459
1.16045
1.09299
0.997378
0.885559
0.857783
0.836538
0.792565
0.744803
0.733317
0.735221
0.73067
0.726331
0.735516
0.751066
0.771484
0.790325
0.801905
0.812954
0.824619
0.831119
0.834428
0.833879
0.83196
0.833495
0.840987
0.853551
0.872402
0.89593
0.911711
0.915667
0.917982
0.921566
0.925669
0.935741
0.957138
0.982723
0.995029
1.00081
1.01467
1.03243
1.03482
1.02819
1.02293
1.01453
0.998061
0.977279
0.967118
0.966985
0.969513
0.972274
0.977854
0.990438
1.01608
1.05116
1.06803
1.06985
1.07037
1.07049
1.06853
1.05944
1.03734
1.01024
1.00056
1
1
1
1
1
1
1
1
1
1
1
1
1
1
1
1
1
1
1
5.80451
5.18763
4.61807
4.1064
3.62966
3.22326
2.88064
2.5621
2.21253
1.96016
1.84369
1.74319
1.59764
1.42538
1.31781
1.22985
1.13127
1.01926
0.976016
0.94181
0.890308
0.824018
0.787989
0.782162
0.761879
0.735466
0.727094
0.7328
0.746859
0.756989
0.761995
0.767561
0.778089
0.79448
0.805404
0.806577
0.806352
0.809913
0.817632
0.832129
0.854458
0.876171
0.884526
0.886536
0.901026
0.928739
0.95984
0.990874
1.01889
1.03587
1.0362
1.0309
1.03068
1.03257
1.03084
1.02729
1.02351
1.01147
0.986679
0.96689
0.961817
0.962341
0.964149
0.967973
0.976968
0.99496
1.02886
1.06568
1.07718
1.07835
1.07893
1.07858
1.07362
1.05568
1.02402
1.003
1.00004
1
1
1
1
1
1
1
1
1
1
1
1
1
1
1
1
1
1
1
5.90057
5.29701
4.76237
4.31902
3.88688
3.44593
3.11084
2.83039
2.50699
2.2068
1.99689
1.87758
1.74593
1.60973
1.50011
1.39815
1.25792
1.12685
1.08985
1.05347
0.998283
0.928972
0.866212
0.838217
0.80124
0.754832
0.738759
0.735551
0.741588
0.749056
0.753739
0.760005
0.772034
0.784482
0.789871
0.785417
0.779382
0.777664
0.782455
0.795038
0.812759
0.825889
0.829639
0.835407
0.860335
0.903186
0.945429
0.975433
0.996392
1.01278
1.02133
1.02335
1.0209
1.01698
1.0134
1.00912
1.00003
0.982859
0.963817
0.954617
0.95324
0.955109
0.959922
0.968358
0.981856
1.00556
1.04523
1.07947
1.08713
1.08824
1.08879
1.0872
1.07458
1.04285
1.00942
1.00035
1
1
1
1
1
1
1
1
1
1
1
1
1
1
1
1
1
1
1
1
6.11029
5.47364
4.92254
4.46114
4.04692
3.65968
3.32984
3.03821
2.75037
2.43225
2.20345
2.05678
1.90008
1.75093
1.64734
1.54871
1.41354
1.26611
1.20838
1.15985
1.09572
1.02308
0.966938
0.933918
0.889978
0.830633
0.79668
0.787136
0.787237
0.78395
0.773942
0.769224
0.770683
0.770561
0.761957
0.750189
0.741388
0.741954
0.752062
0.762184
0.766757
0.768014
0.770732
0.783593
0.813807
0.861945
0.909504
0.942223
0.96511
0.98671
0.99965
1.00437
1.00487
1.00174
0.992499
0.976379
0.958119
0.945501
0.94271
0.944433
0.947605
0.952235
0.959127
0.969922
0.988293
1.02163
1.06956
1.09701
1.10081
1.10177
1.10169
1.09384
1.0645
1.02099
1.0015
1.00001
1
1
1
1
1
1
1
1
1
1
1
1
1
1
1
1
1
1
1
1
6.12889
5.74972
5.1544
4.627
4.20822
3.86223
3.50262
3.20484
2.97131
2.70304
2.41797
2.21278
2.04598
1.91018
1.79989
1.68981
1.53671
1.40708
1.35246
1.28653
1.21102
1.11738
1.04592
1.01669
0.976131
0.917322
0.867833
0.849645
0.844335
0.834534
0.809978
0.793387
0.783008
0.767828
0.752169
0.740898
0.735839
0.738669
0.746798
0.753652
0.754853
0.752646
0.756205
0.773165
0.798228
0.827227
0.862217
0.894315
0.924058
0.944302
0.948481
0.949391
0.94834
0.942855
0.930655
0.920971
0.920469
0.925224
0.933707
0.94337
0.95147
0.958875
0.965722
0.974334
0.994663
1.04023
1.09624
1.11578
1.11782
1.1186
1.11463
1.08829
1.03726
1.00425
1.00005
1
1
1
1
1
1
1
1
1
1
1
1
1
1
1
1
1
1
1
1
1
5.45384
5.79056
5.48528
4.91489
4.36695
4.02272
3.71544
3.40499
3.11667
2.88415
2.66487
2.44131
2.19678
2.01785
1.93626
1.84863
1.68549
1.53713
1.47553
1.40889
1.33037
1.22428
1.15001
1.119
1.07461
1.00655
0.946398
0.925305
0.923558
0.91806
0.890108
0.858023
0.830092
0.803858
0.788238
0.779897
0.777288
0.772654
0.764924
0.759947
0.75974
0.763601
0.774049
0.786958
0.796443
0.804936
0.821259
0.841898
0.859302
0.866876
0.872311
0.879149
0.886052
0.890797
0.895439
0.903081
0.913692
0.923444
0.932233
0.940311
0.948948
0.959721
0.973712
0.992384
1.02608
1.08539
1.13044
1.13802
1.13928
1.13764
1.11367
1.05681
1.00888
1.00018
1
1
1
1
1
1
1
1
1
1
1
1
1
1
1
1
1
1
1
1
1
1
3.14356
5.19625
5.47653
5.25531
4.70705
4.22333
3.86824
3.59198
3.33098
3.06272
2.83481
2.65146
2.42021
2.15674
2.05017
1.99
1.85989
1.68854
1.59934
1.52976
1.44169
1.3156
1.24758
1.22731
1.18845
1.11539
1.03934
1.01117
1.0065
0.999581
0.965065
0.918777
0.879326
0.854808
0.843724
0.840937
0.835391
0.815315
0.795173
0.784925
0.790675
0.806218
0.815951
0.812921
0.808807
0.807554
0.818195
0.837975
0.843487
0.846386
0.852466
0.863518
0.875623
0.886383
0.896505
0.908637
0.92422
0.939702
0.949353
0.953285
0.955937
0.96168
0.973987
1.00546
1.07041
1.14136
1.16257
1.16466
1.16437
1.141
1.07771
1.01467
1.0004
1
1
1
1
1
1
1
1
1
1
1
1
1
1
1
1
1
1
1
1
1
1
1
1.3331
3.02368
4.90627
5.1523
4.99873
4.58523
4.14453
3.77791
3.52314
3.24816
3.00182
2.83606
2.64382
2.3785
2.1631
2.1024
2.01469
1.85493
1.73161
1.65937
1.56634
1.42136
1.34854
1.33085
1.30012
1.22855
1.1376
1.10582
1.10333
1.09315
1.04816
0.986127
0.945371
0.928584
0.922769
0.92406
0.908581
0.8831
0.864238
0.85537
0.865776
0.88123
0.872197
0.860558
0.856577
0.852712
0.854887
0.856609
0.855838
0.85413
0.854776
0.861641
0.871989
0.882363
0.89415
0.909122
0.926638
0.943272
0.957455
0.970922
0.981759
0.994042
1.01743
1.07052
1.15177
1.19295
1.19713
1.19654
1.16968
1.09685
1.0198
1.00062
1
1
1
1
1
1
1
1
1
1
1
1
1
1
1
1
1
1
1
1
1
1
1
1
1.00988
1.31377
2.8073
4.50891
4.81832
4.75668
4.49973
4.09143
3.76224
3.47434
3.16913
2.96436
2.81562
2.60633
2.35052
2.23969
2.16315
2.0268
1.85986
1.77228
1.69835
1.56346
1.46468
1.43824
1.41317
1.35376
1.25234
1.20505
1.19998
1.18651
1.12965
1.05726
1.02747
1.01408
1.01481
1.01119
0.984948
0.959062
0.943549
0.937542
0.943905
0.947
0.931251
0.918543
0.913034
0.905625
0.895786
0.888698
0.884208
0.87572
0.869111
0.872507
0.882184
0.894977
0.909778
0.925159
0.938887
0.95036
0.960835
0.973569
0.995191
1.02981
1.08717
1.17109
1.22822
1.23682
1.23353
1.1979
1.11101
1.02238
1.0007
1
1
1
1
1
1
1
1
1
1
1
1
1
1
1
1
1
1
1
1
1
1
1
1
1
1.00005
1.00936
1.25101
2.45575
4.06697
4.47849
4.50558
4.41278
4.11723
3.77679
3.43335
3.13138
2.93902
2.77693
2.56393
2.37647
2.2855
2.19556
2.04393
1.88346
1.80907
1.72973
1.61262
1.54797
1.52035
1.47515
1.3908
1.31597
1.29563
1.27764
1.2185
1.14586
1.12137
1.10723
1.10913
1.10137
1.07231
1.04884
1.03629
1.03163
1.02282
1.01435
1.00344
0.986326
0.974576
0.967479
0.959097
0.951958
0.944299
0.932183
0.9262
0.929311
0.937827
0.949996
0.96416
0.978365
0.991465
1.00444
1.01973
1.04117
1.07557
1.13261
1.21308
1.27037
1.28008
1.27037
1.22141
1.11706
1.02141
1.00059
1
1
1
1
1
1
1
1
1
1
1
1
1
1
1
1
1
1
1
1
1
1
1
1
1
1
1
1.00004
1.00659
1.16223
2.08754
3.38407
4.18462
4.38285
4.32786
4.12744
3.78617
3.42621
3.12253
2.90386
2.7381
2.55332
2.38301
2.30994
2.22012
2.06812
1.91638
1.85883
1.78721
1.68046
1.62861
1.59503
1.53458
1.44619
1.38738
1.36446
1.32534
1.25525
1.22359
1.20823
1.20702
1.19584
1.16369
1.13764
1.12603
1.12176
1.10517
1.08721
1.07463
1.05626
1.04031
1.03054
1.02199
1.01192
0.996831
0.980483
0.978061
0.980901
0.986372
0.994566
1.00597
1.02073
1.03914
1.06259
1.09403
1.13863
1.20243
1.27678
1.31873
1.32158
1.29965
1.23392
1.1108
1.01682
1.00036
1
1
1
1
1
1
1
1
1
1
1
1
1
1
1
1
1
1
1
1
1
1
1
1
1
1
1
1
1
1.00003
1.00325
1.08868
1.63392
2.77528
3.79859
4.13644
4.14599
4.04927
3.77971
3.42269
3.11203
2.91868
2.76037
2.56774
2.42609
2.35127
2.23572
2.05879
1.96626
1.92901
1.84285
1.74363
1.71026
1.66505
1.5749
1.48711
1.4583
1.43727
1.38505
1.33282
1.31151
1.30537
1.29443
1.25859
1.22407
1.21184
1.20614
1.19031
1.16449
1.14354
1.12366
1.10881
1.10137
1.09474
1.08493
1.07246
1.06746
1.06905
1.07391
1.08136
1.09152
1.10507
1.12315
1.1481
1.18341
1.23289
1.29525
1.34872
1.36513
1.35608
1.31734
1.22815
1.08958
1.01016
1.00015
1
1
1
1
1
1
1
1
1
1
1
1
1
1
1
1
1
1
1
1
1
1
1
1
1
1
1
1
1
1
1
1.00001
1.00119
1.03313
1.31524
2.21384
3.23715
3.8221
3.96779
3.88615
3.66732
3.41977
3.23235
3.04636
2.83813
2.63181
2.50951
2.39462
2.20097
2.07603
2.04953
1.99959
1.88655
1.81831
1.77688
1.68513
1.59136
1.56359
1.5506
1.51486
1.45433
1.41414
1.39954
1.38913
1.35592
1.31028
1.29629
1.28961
1.27313
1.24135
1.21554
1.1995
1.18786
1.1784
1.16849
1.15811
1.15292
1.15352
1.15831
1.16718
1.18067
1.19943
1.22454
1.25722
1.29884
1.3475
1.39049
1.40745
1.40212
1.37396
1.31532
1.19574
1.05768
1.00432
1.00004
1
1
1
1
1
1
1
1
1
1
1
1
1
1
1
1
1
1
1
1
1
1
1
1
1
1
1
1
1
1
1
1
1
1
1.00026
1.01034
1.13532
1.70228
2.55508
3.38705
3.69643
3.6071
3.50105
3.46306
3.38026
3.21224
2.97637
2.75796
2.60029
2.40573
2.23717
2.18783
2.15116
2.05757
1.93294
1.87769
1.80085
1.70761
1.67694
1.66514
1.6351
1.57819
1.52197
1.49402
1.48063
1.45532
1.40828
1.3872
1.37568
1.3569
1.32361
1.29878
1.2866
1.27664
1.26741
1.26082
1.25854
1.26196
1.27012
1.28291
1.30197
1.32753
1.35891
1.39406
1.42759
1.45006
1.4548
1.44453
1.41697
1.37414
1.2829
1.1362
1.02656
1.00117
1.00001
1
1
1
1
1
1
1
1
1
1
1
1
1
1
1
1
1
1
1
1
1
1
1
1
1
1
1
1
1
1
1
1
1
1
1
1
1.00005
1.0026
1.04449
1.28987
1.89622
2.72313
3.22644
3.3659
3.41562
3.42631
3.36609
3.24758
3.06739
2.88971
2.72954
2.54994
2.42338
2.35101
2.25526
2.09375
2.00316
1.94442
1.86312
1.81741
1.79867
1.76838
1.70882
1.64067
1.60589
1.58574
1.56151
1.52421
1.49793
1.48001
1.45629
1.42466
1.40707
1.39776
1.39037
1.38651
1.38877
1.39813
1.41259
1.43214
1.45647
1.48359
1.50709
1.52073
1.52192
1.50863
1.48454
1.45736
1.41748
1.33903
1.20589
1.06819
1.00776
1.00018
1
1
1
1
1
1
1
1
1
1
1
1
1
1
1
1
1
1
1
1
1
1
1
1
1
1
1
1
1
1
1
1
1
1
1
1
1
1
1
1.00001
1.00041
1.00918
1.08128
1.38743
2.01465
2.62388
3.05872
3.24761
3.28414
3.23737
3.12882
3.04463
2.99621
2.90116
2.76462
2.64583
2.5251
2.35048
2.22932
2.17341
2.10514
2.03593
1.98807
1.94639
1.88085
1.80127
1.75925
1.73372
1.70739
1.67661
1.65058
1.62908
1.60134
1.57394
1.56439
1.55901
1.55777
1.56431
1.57718
1.59356
1.60905
1.61935
1.62071
1.61112
1.58861
1.56046
1.53109
1.49865
1.45064
1.37097
1.24676
1.10604
1.0209
1.00125
1.00001
1
1
1
1
1
1
1
1
1
1
1
1
1
1
1
1
1
1
1
1
1
1
1
1
1
1
1
1
1
1
1
1
1
1
1
1
1
1
1
1
1
1
1.00004
1.0011
1.01681
1.11993
1.41107
1.90485
2.44446
2.81303
3.01774
3.01759
3.00913
2.98544
2.95183
2.89227
2.81284
2.71056
2.60356
2.53887
2.48127
2.40922
2.33317
2.26001
2.19388
2.12108
2.04148
1.98697
1.95313
1.92417
1.89518
1.86755
1.84202
1.81432
1.78882
1.77266
1.76416
1.75977
1.75631
1.74932
1.73603
1.71436
1.68594
1.65308
1.61849
1.58135
1.53483
1.47101
1.37852
1.2538
1.12031
1.03155
1.00332
1.0001
1
1
1
1
1
1
1
1
1
1
1
1
1
1
1
1
1
1
1
1
1
1
1
1
1
1
1
1
1
1
1
1
1
1
1
1
1
1
1
1
1
1
1
1
1
1
1.0001
1.0021
1.01871
1.09738
1.31438
1.67881
2.09127
2.45441
2.68179
2.78993
2.85959
2.84445
2.79718
2.71051
2.64442
2.62
2.58991
2.53437
2.47865
2.42208
2.35295
2.28472
2.22703
2.17936
2.14107
2.10735
2.07319
2.03801
2.00147
1.96285
1.92313
1.88711
1.85748
1.83182
1.80653
1.77925
1.74895
1.71447
1.6716
1.61793
1.54925
1.46029
1.34918
1.22225
1.10526
1.03093
1.00442
1.00023
1
1
1
1
1
1
1
1
1
1
1
1
1
1
1
1
1
1
1
1
1
1
1
1
1
1
1
1
1
1
1
1
1
1
1
1
1
1
1
1
1
1
1
1
1
1
1
1
1
1
1.0001
1.00142
1.01127
1.05419
1.1751
1.41329
1.71935
2.02288
2.28279
2.45595
2.54761
2.56484
2.56535
2.56442
2.55364
2.52458
2.47823
2.42652
2.362
2.29644
2.24608
2.20342
2.16517
2.13038
2.09571
2.05796
2.0172
1.97391
1.9299
1.88843
1.85192
1.81761
1.78066
1.73583
1.67731
1.59973
1.50266
1.38891
1.26722
1.15399
1.06787
1.01997
1.00327
1.00023
1.00001
1
1
1
1
1
1
1
1
1
1
1
1
1
1
1
1
1
1
1
1
1
1
1
1
1
1
1
1
1
1
1
1
1
1
1
1
1
1
1
1
1
1
1
1
1
1
1
1
1
1
1
1
1
1.00004
1.00054
1.00422
1.02137
1.07078
1.17285
1.33149
1.52888
1.73537
1.92291
2.06482
2.16665
2.23774
2.27595
2.27949
2.26804
2.23958
2.19638
2.16189
2.13047
2.09723
2.06358
2.02775
1.98621
1.93739
1.88225
1.82393
1.76536
1.70517
1.63829
1.55885
1.46353
1.35522
1.24479
1.14677
1.07311
1.02836
1.00776
1.0013
1.00011
1
1
1
1
1
1
1
1
1
1
1
1
1
1
1
1
1
1
1
1
1
1
1
1
1
1
1
1
1
1
1
1
1
1
1
1
1
1
1
1
1
1
1
1
1
1
1
1
1
1
1
1
1
1
1
1
1
1
1.00001
1.00012
1.00084
1.00405
1.01419
1.03902
1.08863
1.16754
1.26368
1.3658
1.46506
1.55028
1.61506
1.66812
1.70597
1.72459
1.73051
1.72418
1.70889
1.68375
1.64921
1.60452
1.55001
1.489
1.42524
1.35957
1.29105
1.22018
1.15105
1.09088
1.04639
1.01941
1.00635
1.00152
1.00024
1.00002
1
1
1
1
1
1
1
1
1
1
1
1
1
1
1
1
1
1
1
1
1
1
1
1
1
1
1
1
1
1
1
1
1
1
1
1
1
1
1
1
1
1
1
1
1
1
1
1
1
1
1
1
1
1
1
1
1
1
1
1
1
1
1
1.00001
1.00006
1.00032
1.00134
1.00428
1.01038
1.02062
1.03527
1.05356
1.07444
1.09761
1.12193
1.14306
1.1568
1.16017
1.15805
1.1507
1.13765
1.12005
1.09989
1.07933
1.05971
1.04168
1.02607
1.01404
1.00625
1.00221
1.0006
1.00012
1.00002
1
1
1
1
1
1
1
1
1
1
1
1
1
1
1
1
1
1
1
1
1
1
1
1
1
1
1
1
1
1
1
1
1
1
1
1
1
1
1
1
1
1
1
1
1
1
1
1
1
1
1
1
1
1
1
1
1
1
1
1
1
1
1
1
1
1
1
1
1
1
1.00001
1.00004
1.00011
1.00027
1.00057
1.00107
1.00184
1.00291
1.00416
1.00514
1.00541
1.00535
1.00501
1.00433
1.00343
1.00252
1.0017
1.00103
1.00054
1.00023
1.00007
1.00002
1
1
1
1
1
1
1
1
1
1
1
1
1
1
1
1
1
1
1
1
1
1
1
1
1
1
1
1
1
1
1
1
1
1
1
1
1
1
1
1
1
1
1
1
1
1
1
1
1
1
1
1
1
1
1
1
1
1
1
1
1
1
1
1
1
1
1
1
1
1
1
1
1
1
1
1
1
1
1
1
1
1.00001
1.00001
1.00001
1.00001
1.00001
1.00001
1.00001
1.00001
1
1
1
1
1
1
1
1
1
1
1
1
1
1
1
1
1
1
1
1
1
1
1
1
1
1
1
1
1
1
1
1
1
1
1
1
1
1
1
1
1
1
1
1
1
1
1
1
1
1
1
1
1
1
1
1
1
)
;

boundaryField
{
    inlet
    {
        type            fixedValue;
        value           uniform 1;
    }
    outlet
    {
        type            zeroGradient;
    }
    bottom
    {
        type            symmetryPlane;
    }
    top
    {
        type            symmetryPlane;
    }
    obstacle
    {
        type            zeroGradient;
    }
    defaultFaces
    {
        type            empty;
    }
}


// ************************************************************************* //
