/*--------------------------------*- C++ -*----------------------------------*\
  =========                 |
  \\      /  F ield         | OpenFOAM: The Open Source CFD Toolbox
   \\    /   O peration     | Website:  https://openfoam.org
    \\  /    A nd           | Version:  7
     \\/     M anipulation  |
\*---------------------------------------------------------------------------*/
FoamFile
{
    version     2.0;
    format      ascii;
    class       volScalarField;
    location    "0.5";
    object      T;
}
// * * * * * * * * * * * * * * * * * * * * * * * * * * * * * * * * * * * * * //

dimensions      [0 0 0 1 0 0 0];

internalField   nonuniform List<scalar> 
4032
(
1
1
1
1
1
1
1
1
1
1
1
1
1
1
1
2.305
2.90637
2.88585
2.87257
2.90403
3.0165
3.22754
3.42077
3.49689
1
1
1
1
1
1
1
1
1
1
1
1
1
1
1
2.28397
2.90233
2.8823
2.87002
2.90293
3.01708
3.22752
3.41744
3.49179
1
1
1
1
1
1
1
1
1
1
1
1
1
1
1
2.2332
2.89822
2.87524
2.86296
2.89803
3.01579
3.22624
3.4125
3.48504
1
1
1
1
1
1
1
1
1
1
1
1
1
1
1
2.14738
2.88512
2.85951
2.84881
2.88625
3.00656
3.21625
3.40105
3.47303
1
1
1
1
1
1
1
1
1
1
1
1
1
1
1
2.02043
2.85331
2.83212
2.82773
2.86454
2.98209
3.18877
3.37696
3.45286
1
1
1
1
1
1
1
1
1
1
1
1
1
1
1
1.83366
2.78208
2.79218
2.79956
2.83853
2.9496
3.15056
3.34157
3.40984
1
1
1
1
1
1
1
1
1
1
1
1
1
1
1
1.52002
2.63915
2.75518
2.77526
2.81178
2.90904
3.08996
3.27759
3.35408
1
1
1
1
1
1
1
1
1
1
1
1
1
1
1
1.13964
2.44844
2.72055
2.74924
2.78023
2.86018
3.02011
3.21396
3.3404
1
1
1
1
1
1
1
1
1
1
1
1
1
1
1
1.00325
2.22526
2.6891
2.72518
2.75052
2.81168
2.92697
3.0384
3.03604
1
1
1
1
1
1
1
1
1
1
1
1
1
1
1
1
1.84725
2.6144
2.69747
2.70808
2.74432
2.80376
2.86001
2.80017
1
1
1
1
1
1
1
1
1
1
1
1
1
1
1
1
1.2689
2.44426
2.6638
2.6566
2.67123
2.68924
2.69828
2.61985
1
1
1
1
1
1
1
1
1
1
1
1
1
1
1
1
1.01153
2.15103
2.6016
2.62361
2.62086
2.61125
2.57773
2.49746
1
1
1
1
1
1
1
1
1
1
1
1
1
1
1
1
1.00003
1.56688
2.45344
2.59671
2.5731
2.54325
2.492
2.41462
1
1
1
1
1
1
1
1
1
1
1
1
1
1
1
1
1
1.06059
2.18995
2.53838
2.52054
2.48821
2.43641
2.36258
1
1
1
1
1
1
1
1
1
1
1
1
1
1
1
1
1
1.00058
1.5933
2.38158
2.48901
2.44366
2.39246
2.32446
1
1
1
1
1
1
1
1
1
1
1
1
1
1
1
1
1
1
1.06996
2.07338
2.42353
2.38793
2.34315
2.28925
1
1
1
1
1
1
1
1
1
1
1
1
1
1
1
1
1
1
1.00077
1.41303
2.21958
2.36028
2.30974
2.26517
1
1
1
1
1
1
1
1
1
1
1
1
1
1
1
1
1
1
1
1.03211
1.77596
2.2378
2.27422
2.23601
1
1
1
1
1
1
1
1
1
1
1
1
1
1
1
1
1
1
1
1.00026
1.17859
1.93556
2.22915
2.20557
1
1
1
1
1
1
1
1
1
1
1
1
1
1
1
1
1
1
1
1
1.00538
1.37317
2.01012
2.16907
1
1
1
1
1
1
1
1
1
1
1
1
1
1
1
1
1
1
1
1
1.00002
1.02834
1.52798
2.00142
1
1
1
1
1
1
1
1
1
1
1
1
1
1
1
1
1
1
1
1
1
1.00026
1.07356
1.58479
1
1
1
1
1
1
1
1
1
1
1
1
1
1
1
1
1
1
1
1
1
1
1.00125
1.11017
1
1
1
1
1
1
1
1
1
1
1
1
1
1
1
1
1
1
1
1
1
1
1
1.00263
1
1
1
1
1
1
1
1
1
1
1
1
1
1
1
1
1
1
1
1
1
1
1
1.00001
1
1
1
1
1
1
1
1
1
1
1
1
1
1
1
1
1
1
1
1
1
1
1
1
1
1
1
1
1
1
1
1
1
1
1
1
1
1
1
1
1
1
1
1
1
1
1
1
1
1
1
1
1
1
1
1
1
1
1
1
1
1
1
1
1
1
1
1
1
1
1
1
1
1
1
1
1
1
1
1
1
1
1
1
1
1
1
1
1
1
1
1
1
1
1
1
1
1
1
1
1
1
1
1
1
1
1
1
1
1
1
1
1
1
1
1
1
1
1
1
1
1
1
1
1
1
1
1
1
1
1
1
1
1
1
1
1
1
1
1
1
1
1
1
1
1
1
1
1
1
1
1
1
1
1
1
1
1
1
1
1
1
1
1
1
1
1
1
1
1
1
1
1
1
1
1
1
1
1
1
1
1
1
1
1
1
1
1
1
1
1
1
1
1
1
1
1
1
1
1
1
1
1
1
1
1
1
1
1
1
1
1
1
1
1
1
1
1
1
1
1
1
1
1
1
1
1
1
1
1
1
1
1
1
1
1
1
1
1
1
1
1
1
1
1
1
1
1
1
1
1
1
1
1
1
1
1
1
1
1
1
1
1
1
1
1
1
1
1
1
1
1
1
1
1
1
1
1
1
1
1
1
1
1
1
1
1
1
1
1
1
1
1
1
1
1
1
1
1
1
1
1
1
1
1
1
1
1
1
1
1
1
1
1
1
1
1
1
1
1
1
1
1
1
1
1
1
1
1
1
1
1
1
1
1
1
1
1
1
1
1
1
1
1
1
1
1
1
1
1
1
1
1
1
1
1
1
1
1
1
2.12428
1.52293
1.45546
1.49015
1.47484
1.57695
1.67998
1.73788
1.84815
2.03209
2.10021
2.09048
2.07878
2.07731
2.08339
2.07801
2.04342
2.02869
2.03792
2.04826
2.04618
2.02753
1.97939
1.93285
1.9087
1.89698
1.89424
1.89437
1.8899
1.88432
1.87968
1.87142
1.86561
1.86162
1.85267
1.83375
1.80917
1.79062
1.76917
1.74276
1.7276
1.71715
1.71389
1.71394
1.7141
1.71335
1.70769
1.68553
1.637
1.56314
1.47286
1.37372
1.26778
1.15765
1.06014
1.00482
0.99207
0.991705
0.993783
0.994805
0.994235
0.994001
0.993944
0.993999
0.99448
0.995427
0.996723
0.999691
1.00608
1.01234
1.01393
1.01399
1.014
1.01391
1.0133
1.01131
1.00713
1.00214
1.00015
1
1
1
1
1
1
1
1
1
1
1
1
1
1
1
1
1
2.36618
2.02408
1.96138
1.88156
1.71358
1.62072
1.59376
1.57308
1.58434
1.64726
1.72046
1.76819
1.80215
1.85351
1.90578
1.92193
1.93028
1.93763
1.94969
1.96463
1.96562
1.96038
1.93704
1.90534
1.88535
1.87145
1.85936
1.85
1.84115
1.84043
1.84139
1.84254
1.8442
1.8432
1.83783
1.82273
1.79581
1.76555
1.73468
1.70802
1.69835
1.69631
1.69671
1.69736
1.69704
1.6954
1.68641
1.66065
1.61199
1.5411
1.45431
1.35869
1.25723
1.15235
1.05742
1.00193
0.989018
0.988249
0.990034
0.992185
0.992067
0.992249
0.992547
0.993082
0.993988
0.995117
0.996541
0.999914
1.00633
1.01239
1.01396
1.01402
1.01402
1.01381
1.01303
1.01123
1.00731
1.00225
1.00015
1
1
1
1
1
1
1
1
1
1
1
1
1
1
1
1
1
2.3808
2.17365
2.02905
1.91566
1.80973
1.71004
1.64662
1.57351
1.49044
1.48744
1.51617
1.55863
1.59035
1.63441
1.69004
1.7164
1.74329
1.77828
1.8036
1.83404
1.8426
1.83785
1.82911
1.81534
1.80385
1.79411
1.78278
1.76782
1.75529
1.7485
1.74717
1.75051
1.75974
1.76693
1.7671
1.76407
1.74967
1.71806
1.67476
1.64341
1.63356
1.63332
1.63321
1.63544
1.63802
1.63608
1.62304
1.59368
1.54704
1.48268
1.40334
1.31454
1.22143
1.12905
1.0482
1.00211
0.990854
0.989963
0.991522
0.993047
0.992861
0.99289
0.993066
0.993821
0.995071
0.996365
0.998005
1.00142
1.00759
1.013
1.01419
1.01422
1.01418
1.01386
1.01298
1.01092
1.00675
1.00188
1.00011
1
1
1
1
1
1
1
1
1
1
1
1
1
1
1
1
1
2.34601
2.20533
2.08813
1.97947
1.8658
1.7799
1.72824
1.66952
1.58581
1.53831
1.54076
1.52522
1.50658
1.5097
1.52897
1.54857
1.57803
1.61769
1.64961
1.67917
1.70483
1.72887
1.73545
1.73101
1.72126
1.70836
1.69478
1.68023
1.6645
1.65206
1.64852
1.64889
1.65445
1.66454
1.67139
1.67157
1.66049
1.63286
1.59977
1.57189
1.56063
1.55819
1.55727
1.55693
1.55535
1.54646
1.52538
1.49401
1.45279
1.39833
1.32999
1.25253
1.17317
1.09751
1.03185
0.997321
0.990293
0.99015
0.991913
0.992466
0.992371
0.992357
0.992811
0.994198
0.995849
0.997113
0.998644
1.00231
1.00885
1.01369
1.01447
1.01449
1.01444
1.01406
1.0131
1.01078
1.00609
1.00136
1.00005
1
1
1
1
1
1
1
1
1
1
1
1
1
1
1
1
1
2.30672
2.19569
2.09487
2.01542
1.93388
1.84782
1.77948
1.71251
1.64631
1.60519
1.59028
1.55839
1.51111
1.47768
1.48126
1.48704
1.48616
1.49797
1.53022
1.56639
1.59594
1.61915
1.6404
1.65388
1.65291
1.64661
1.63387
1.61467
1.59207
1.57792
1.57236
1.57296
1.57869
1.58494
1.58703
1.58349
1.5654
1.53899
1.51741
1.50043
1.49174
1.4896
1.48849
1.48554
1.4738
1.44823
1.41421
1.37858
1.34137
1.29879
1.24828
1.19057
1.12828
1.06485
1.01368
0.993012
0.990488
0.991208
0.992218
0.992267
0.99193
0.991692
0.99251
0.994609
0.996419
0.997545
0.99938
1.00366
1.01056
1.0145
1.01491
1.01493
1.01486
1.01444
1.01328
1.01039
1.00505
1.00081
1.00002
1
1
1
1
1
1
1
1
1
1
1
1
1
1
1
1
1
2.26972
2.18056
2.09961
2.02565
1.94883
1.87956
1.82848
1.78548
1.71833
1.66094
1.63743
1.60439
1.55683
1.51444
1.50654
1.48839
1.4624
1.45664
1.46087
1.47288
1.49455
1.52467
1.55508
1.57564
1.57765
1.57542
1.56835
1.55872
1.54782
1.53599
1.53238
1.53503
1.53774
1.53574
1.52856
1.51567
1.49242
1.46632
1.44664
1.4358
1.43051
1.42979
1.4303
1.42545
1.40173
1.36016
1.31632
1.27781
1.2433
1.2092
1.17201
1.12862
1.07889
1.03165
1.00089
0.991136
0.991081
0.991741
0.992396
0.992397
0.991364
0.991073
0.992516
0.99508
0.996524
0.99766
0.999968
1.00528
1.01255
1.01542
1.0156
1.01563
1.01553
1.01499
1.01344
1.00959
1.00363
1.00036
1
1
1
1
1
1
1
1
1
1
1
1
1
1
1
1
1
1
2.24598
2.16708
2.0946
2.03481
1.97609
1.91029
1.85365
1.81302
1.76575
1.71749
1.68238
1.64198
1.58322
1.53349
1.51779
1.49451
1.46236
1.43389
1.4328
1.43803
1.44722
1.45688
1.47352
1.49543
1.50671
1.50612
1.50208
1.49759
1.49255
1.49042
1.49156
1.49855
1.50003
1.4954
1.48406
1.46579
1.44182
1.41626
1.39296
1.38013
1.37704
1.37831
1.37874
1.36592
1.32815
1.27791
1.23136
1.19344
1.16283
1.136
1.10815
1.07533
1.04025
1.01193
0.99751
0.993826
0.99255
0.99246
0.992691
0.992261
0.990782
0.990787
0.99291
0.995485
0.996777
0.998028
1.00086
1.00755
1.01471
1.01653
1.01664
1.01669
1.01654
1.01568
1.01328
1.00805
1.00205
1.0001
1
1
1
1
1
1
1
1
1
1
1
1
1
1
1
1
1
1
2.22552
2.15709
2.09336
2.03799
1.98434
1.92949
1.88537
1.84259
1.78285
1.73327
1.70514
1.6731
1.6265
1.57089
1.54767
1.52275
1.48931
1.4523
1.45031
1.44866
1.43762
1.42772
1.42299
1.42557
1.42731
1.42571
1.42427
1.42588
1.43112
1.43669
1.44121
1.44697
1.44826
1.44437
1.43517
1.42063
1.40116
1.37761
1.35416
1.33876
1.33298
1.33008
1.321
1.29492
1.25431
1.20953
1.16809
1.13401
1.10768
1.08608
1.06432
1.04132
1.02202
1.00997
1.00347
0.997634
0.993436
0.99247
0.991978
0.990941
0.989736
0.990286
0.992811
0.995065
0.996453
0.998101
1.00213
1.01039
1.01678
1.01786
1.01799
1.01805
1.01781
1.0165
1.01261
1.0057
1.00078
1.00001
1
1
1
1
1
1
1
1
1
1
1
1
1
1
1
1
1
1
2.21194
2.15176
2.0895
2.03716
1.99251
1.94173
1.88746
1.8439
1.79936
1.75177
1.72002
1.69029
1.64711
1.60108
1.57737
1.55409
1.51861
1.47273
1.46151
1.45106
1.42804
1.40473
1.39679
1.3944
1.38687
1.37666
1.37699
1.37975
1.38447
1.3884
1.38853
1.38905
1.38915
1.38518
1.3765
1.36335
1.34674
1.32888
1.31251
1.29931
1.28913
1.27846
1.2593
1.22821
1.19261
1.15855
1.12796
1.10219
1.08153
1.06337
1.04465
1.02931
1.02083
1.01555
1.00851
1.00059
0.995619
0.992813
0.991078
0.989157
0.988563
0.989734
0.992396
0.994285
0.995672
0.998139
1.00438
1.01418
1.01903
1.01953
1.01966
1.01969
1.01912
1.01662
1.01055
1.00295
1.00016
1
1
1
1
1
1
1
1
1
1
1
1
1
1
1
1
1
1
1
2.19198
2.14144
2.089
2.03931
1.98988
1.94537
1.90414
1.85932
1.797
1.74433
1.7217
1.70309
1.67275
1.62963
1.59944
1.57122
1.53886
1.49961
1.48453
1.46975
1.4443
1.41289
1.39521
1.38858
1.37383
1.35346
1.33731
1.33546
1.33596
1.3356
1.33374
1.3317
1.33011
1.32739
1.31926
1.30472
1.28834
1.27258
1.25702
1.24365
1.23295
1.21939
1.1957
1.16448
1.13836
1.11863
1.10129
1.0848
1.06814
1.0511
1.03535
1.02394
1.01736
1.01225
1.0066
1.00158
0.998128
0.994494
0.990209
0.987505
0.987451
0.988924
0.990904
0.9927
0.994808
0.998938
1.00802
1.01838
1.02157
1.02186
1.02201
1.0219
1.02051
1.01561
1.00686
1.00087
1.00001
1
1
1
1
1
1
1
1
1
1
1
1
1
1
1
1
1
1
1
2.16161
2.11616
2.07158
2.03097
1.98788
1.93968
1.90004
1.86428
1.81466
1.76064
1.71945
1.6975
1.67197
1.64521
1.62142
1.59519
1.55244
1.50829
1.4967
1.48266
1.45843
1.42846
1.40041
1.38249
1.35839
1.33135
1.31211
1.30239
1.29992
1.29925
1.29782
1.29557
1.29228
1.28456
1.27117
1.2532
1.23412
1.21595
1.19874
1.18375
1.1704
1.15315
1.12798
1.10078
1.08367
1.07407
1.06393
1.05015
1.03555
1.02495
1.01828
1.01388
1.00978
1.00534
1.00139
0.99777
0.994027
0.989914
0.986209
0.985031
0.985274
0.986886
0.989334
0.991987
0.995458
1.0018
1.01291
1.0223
1.0243
1.02457
1.0247
1.02424
1.02079
1.01212
1.00273
1.0001
1
1
1
1
1
1
1
1
1
1
1
1
1
1
1
1
1
1
1
1
2.14001
2.09131
2.04862
2.01047
1.97204
1.9304
1.89179
1.85517
1.81538
1.76584
1.7281
1.70395
1.67446
1.64465
1.62549
1.60455
1.56974
1.52533
1.5057
1.48682
1.46089
1.43279
1.40969
1.39118
1.36548
1.33408
1.31016
1.29495
1.28917
1.28326
1.27447
1.26552
1.25527
1.2393
1.2189
1.19846
1.1795
1.16281
1.14744
1.13108
1.11197
1.09005
1.06697
1.04745
1.03623
1.03138
1.02529
1.01578
1.00781
1.00619
1.00607
1.00565
1.00436
1.00133
0.99604
0.989935
0.984653
0.98165
0.981312
0.982384
0.984107
0.986121
0.988503
0.991688
0.99692
1.00649
1.01987
1.0271
1.02802
1.02824
1.0282
1.02603
1.01808
1.00604
1.00044
1
1
1
1
1
1
1
1
1
1
1
1
1
1
1
1
1
1
1
1
1
2.10727
2.07806
2.02951
1.98747
1.95195
1.91761
1.87478
1.83769
1.80958
1.77594
1.73522
1.70279
1.67265
1.64745
1.62748
1.60612
1.57087
1.53561
1.51753
1.49414
1.46767
1.43567
1.40777
1.39045
1.36679
1.33557
1.30825
1.29108
1.28222
1.27227
1.2562
1.24161
1.22482
1.20193
1.17879
1.16015
1.14396
1.12798
1.11203
1.09554
1.07645
1.05428
1.03337
1.01847
1.0078
0.999212
0.992565
0.988217
0.988472
0.990507
0.990402
0.989849
0.988424
0.984786
0.979237
0.975612
0.975333
0.976657
0.979503
0.982724
0.985376
0.987767
0.989972
0.992723
0.998925
1.01209
1.02723
1.03214
1.03261
1.03278
1.03168
1.02458
1.01064
1.00125
1.00002
1
1
1
1
1
1
1
1
1
1
1
1
1
1
1
1
1
1
1
1
1
1.96018
2.04853
2.02319
1.9749
1.92676
1.89665
1.86408
1.82735
1.79362
1.7678
1.74241
1.71189
1.67084
1.63799
1.62462
1.60942
1.57506
1.53677
1.51713
1.49544
1.47141
1.44022
1.41303
1.39471
1.36966
1.33571
1.30597
1.28781
1.2811
1.27354
1.25516
1.23339
1.20933
1.1825
1.16087
1.14457
1.12869
1.10921
1.08752
1.06839
1.05123
1.03324
1.01606
1.00111
0.988097
0.976787
0.968879
0.96464
0.965355
0.966185
0.96723
0.968817
0.969776
0.969548
0.969551
0.971015
0.974115
0.977188
0.979886
0.982228
0.984694
0.987828
0.992047
0.997835
1.008
1.02464
1.03627
1.03806
1.03834
1.03786
1.03146
1.01612
1.0026
1.00005
1
1
1
1
1
1
1
1
1
1
1
1
1
1
1
1
1
1
1
1
1
1
1.5808
1.90977
1.99042
1.96943
1.92119
1.87796
1.84427
1.8159
1.78828
1.75873
1.73317
1.71173
1.67889
1.63232
1.61458
1.60508
1.57969
1.54007
1.51518
1.4941
1.46951
1.43623
1.41174
1.39663
1.37361
1.33919
1.30608
1.28623
1.27783
1.26891
1.24749
1.22077
1.19297
1.16832
1.15136
1.13716
1.12055
1.09624
1.07047
1.05138
1.0379
1.0246
1.00948
0.992453
0.97756
0.965999
0.960599
0.960037
0.958846
0.958888
0.96045
0.963873
0.966924
0.968799
0.970505
0.973415
0.978048
0.982767
0.985431
0.986375
0.987003
0.988652
0.992418
1.00191
1.02058
1.03941
1.04458
1.04504
1.04493
1.03878
1.02194
1.00431
1.00012
1
1
1
1
1
1
1
1
1
1
1
1
1
1
1
1
1
1
1
1
1
1
1
1.12349
1.54761
1.85349
1.92408
1.90973
1.8771
1.83973
1.80316
1.77771
1.74725
1.7193
1.70258
1.67933
1.63994
1.60205
1.59257
1.57575
1.54169
1.5117
1.49186
1.46764
1.43229
1.40834
1.39368
1.37352
1.34034
1.30471
1.28432
1.27599
1.26496
1.24023
1.21014
1.18295
1.16361
1.15036
1.13767
1.11828
1.09308
1.07047
1.05377
1.04167
1.02891
1.01132
0.994343
0.982711
0.973301
0.968091
0.964666
0.962323
0.961041
0.961321
0.963529
0.966084
0.967958
0.970267
0.97407
0.979165
0.984026
0.987946
0.991567
0.994543
0.998131
1.0051
1.02043
1.0423
1.05249
1.05344
1.05325
1.04632
1.02724
1.00584
1.00019
1
1
1
1
1
1
1
1
1
1
1
1
1
1
1
1
1
1
1
1
1
1
1
1
1.00345
1.11554
1.49824
1.7798
1.84516
1.85589
1.8392
1.80363
1.77127
1.73914
1.70106
1.68016
1.66706
1.64203
1.60204
1.58176
1.56719
1.54024
1.50462
1.48311
1.46449
1.43301
1.40575
1.38902
1.37134
1.3424
1.30512
1.28246
1.27234
1.25947
1.23231
1.20162
1.17894
1.16287
1.1518
1.13875
1.11619
1.09252
1.07419
1.06022
1.04776
1.03384
1.0165
1.00239
0.993914
0.986482
0.979664
0.975225
0.97234
0.968787
0.966587
0.96746
0.969548
0.971991
0.975215
0.979186
0.983044
0.986271
0.989129
0.992603
0.998719
1.00867
1.02484
1.04731
1.06145
1.06343
1.06257
1.05359
1.03118
1.00664
1.00021
1
1
1
1
1
1
1
1
1
1
1
1
1
1
1
1
1
1
1
1
1
1
1
1
1
1.00001
1.00324
1.09271
1.42256
1.69397
1.76552
1.80373
1.8
1.77335
1.73735
1.69832
1.66282
1.64528
1.62982
1.60011
1.56703
1.55029
1.53447
1.50688
1.47294
1.45446
1.43487
1.4065
1.38343
1.36554
1.3418
1.3094
1.28247
1.26759
1.25366
1.22761
1.1992
1.17967
1.16421
1.15351
1.13981
1.11797
1.09758
1.08286
1.0708
1.05632
1.04189
1.02906
1.01668
1.00901
1.0038
0.998813
0.994834
0.991072
0.986358
0.984063
0.984568
0.985794
0.98776
0.990813
0.994499
0.998109
1.00168
1.00591
1.0119
1.0215
1.03706
1.05799
1.07183
1.07403
1.07163
1.05956
1.03296
1.00641
1.00018
1
1
1
1
1
1
1
1
1
1
1
1
1
1
1
1
1
1
1
1
1
1
1
1
1
1
1
1.00001
1.00224
1.06048
1.33327
1.56909
1.70042
1.76515
1.76196
1.74092
1.70382
1.66642
1.63394
1.60914
1.58765
1.55799
1.52831
1.51775
1.5035
1.47618
1.44354
1.42776
1.40918
1.38127
1.35899
1.33966
1.31438
1.2855
1.26279
1.24792
1.22843
1.20208
1.18343
1.16804
1.15657
1.14261
1.12221
1.10416
1.09157
1.0817
1.06766
1.05357
1.04345
1.03383
1.02653
1.02149
1.01716
1.01269
1.00703
1.00108
0.999688
0.999775
0.999829
1.00066
1.00305
1.00692
1.01191
1.01823
1.0267
1.03862
1.05525
1.07367
1.08337
1.08395
1.07867
1.06277
1.0315
1.0051
1.00011
1
1
1
1
1
1
1
1
1
1
1
1
1
1
1
1
1
1
1
1
1
1
1
1
1
1
1
1
1
1.00001
1.00108
1.03276
1.21039
1.45485
1.63482
1.6981
1.71055
1.7002
1.67426
1.63871
1.60255
1.57687
1.55434
1.52516
1.50225
1.4913
1.47213
1.43877
1.41628
1.4045
1.38227
1.35391
1.33568
1.31534
1.28746
1.26094
1.24523
1.23176
1.21008
1.18961
1.17285
1.16073
1.14828
1.12931
1.11231
1.10132
1.09336
1.082
1.06865
1.05892
1.05082
1.04456
1.04055
1.03706
1.03291
1.02815
1.02548
1.02519
1.02516
1.02558
1.02726
1.03046
1.03506
1.04143
1.05044
1.06295
1.07819
1.09057
1.09415
1.09198
1.08288
1.06154
1.02594
1.00312
1.00005
1
1
1
1
1
1
1
1
1
1
1
1
1
1
1
1
1
1
1
1
1
1
1
1
1
1
1
1
1
1
1
1
1.00038
1.01185
1.11023
1.34428
1.53303
1.6228
1.66339
1.6565
1.63582
1.60981
1.58762
1.56213
1.53252
1.50339
1.48455
1.46589
1.43288
1.40644
1.39637
1.38167
1.35367
1.33089
1.31312
1.28596
1.26018
1.24607
1.23586
1.21907
1.19754
1.17952
1.16607
1.15567
1.13981
1.12315
1.11357
1.10702
1.09769
1.08543
1.076
1.06959
1.06459
1.06039
1.0563
1.0522
1.0494
1.04862
1.04851
1.0491
1.05143
1.05568
1.06165
1.06944
1.0793
1.09063
1.10027
1.10387
1.10254
1.09606
1.08252
1.05378
1.01715
1.00134
1.00001
1
1
1
1
1
1
1
1
1
1
1
1
1
1
1
1
1
1
1
1
1
1
1
1
1
1
1
1
1
1
1
1
1
1
1.00008
1.00353
1.04814
1.2237
1.40484
1.54342
1.59808
1.59592
1.59349
1.58951
1.57842
1.55596
1.52353
1.49235
1.46816
1.43662
1.40682
1.39323
1.38145
1.35872
1.32932
1.31025
1.28712
1.26309
1.25023
1.2412
1.22715
1.20782
1.18906
1.17477
1.1655
1.15405
1.1388
1.12953
1.12302
1.11493
1.1041
1.09566
1.09044
1.0861
1.08222
1.07908
1.07726
1.07694
1.07713
1.07861
1.08217
1.08763
1.09448
1.10205
1.10915
1.11372
1.1145
1.11202
1.10585
1.09624
1.07511
1.03876
1.00811
1.00036
1
1
1
1
1
1
1
1
1
1
1
1
1
1
1
1
1
1
1
1
1
1
1
1
1
1
1
1
1
1
1
1
1
1
1
1
1
1.00001
1.00084
1.01581
1.10068
1.26375
1.42619
1.51083
1.54149
1.55928
1.56136
1.55228
1.5362
1.51204
1.48632
1.46095
1.43117
1.40744
1.39104
1.37037
1.3377
1.31434
1.29699
1.27675
1.26241
1.25253
1.24024
1.2226
1.20364
1.1902
1.18106
1.17169
1.15988
1.15068
1.14366
1.13576
1.1266
1.12025
1.11584
1.11221
1.10993
1.10942
1.1097
1.11109
1.11401
1.11836
1.12348
1.12777
1.12992
1.1297
1.12628
1.12093
1.11497
1.10613
1.08837
1.05671
1.0203
1.00241
1.00006
1
1
1
1
1
1
1
1
1
1
1
1
1
1
1
1
1
1
1
1
1
1
1
1
1
1
1
1
1
1
1
1
1
1
1
1
1
1
1
1
1.00013
1.00311
1.02844
1.12874
1.28869
1.40357
1.47698
1.50534
1.51898
1.5143
1.50138
1.48818
1.47862
1.46209
1.4395
1.41866
1.39672
1.36507
1.33988
1.32547
1.30893
1.29134
1.27686
1.26402
1.2475
1.22864
1.2158
1.20668
1.19783
1.18827
1.17995
1.17305
1.16543
1.15817
1.15389
1.15046
1.14859
1.14861
1.14935
1.15082
1.15245
1.1533
1.15263
1.14945
1.14416
1.13785
1.13134
1.12422
1.1137
1.0959
1.06695
1.03093
1.00642
1.00039
1
1
1
1
1
1
1
1
1
1
1
1
1
1
1
1
1
1
1
1
1
1
1
1
1
1
1
1
1
1
1
1
1
1
1
1
1
1
1
1
1
1
1
1.00001
1.00035
1.00572
1.04213
1.13487
1.25941
1.36363
1.42501
1.45733
1.46297
1.46482
1.46104
1.45388
1.44179
1.42776
1.41058
1.39177
1.37822
1.36507
1.34897
1.33185
1.31511
1.29994
1.28423
1.26739
1.25414
1.24444
1.23584
1.2274
1.21957
1.2127
1.20589
1.19952
1.19452
1.19083
1.18803
1.18544
1.1822
1.178
1.17248
1.16584
1.15844
1.15076
1.1426
1.13249
1.11859
1.09804
1.06898
1.0349
1.00961
1.00103
1.00003
1
1
1
1
1
1
1
1
1
1
1
1
1
1
1
1
1
1
1
1
1
1
1
1
1
1
1
1
1
1
1
1
1
1
1
1
1
1
1
1
1
1
1
1
1
1
1.00003
1.00068
1.00637
1.03384
1.10504
1.20328
1.29086
1.35754
1.39495
1.41152
1.42221
1.42028
1.41338
1.40027
1.38828
1.38066
1.37191
1.3587
1.34571
1.33308
1.31896
1.30526
1.29311
1.28227
1.27288
1.2643
1.25574
1.24728
1.239
1.23063
1.22199
1.21376
1.20651
1.19999
1.19364
1.18703
1.17997
1.17218
1.16277
1.1512
1.13642
1.11706
1.09207
1.06165
1.03085
1.0094
1.00136
1.00007
1
1
1
1
1
1
1
1
1
1
1
1
1
1
1
1
1
1
1
1
1
1
1
1
1
1
1
1
1
1
1
1
1
1
1
1
1
1
1
1
1
1
1
1
1
1
1
1
1
1
1.00003
1.00046
1.00381
1.01866
1.05931
1.13163
1.20882
1.27195
1.31839
1.34606
1.36044
1.36407
1.36447
1.36218
1.35825
1.35073
1.34013
1.32911
1.3164
1.30343
1.29251
1.28279
1.27393
1.26567
1.25749
1.24896
1.24017
1.23106
1.22174
1.21265
1.20431
1.1964
1.18803
1.17816
1.16556
1.14897
1.12798
1.1025
1.07357
1.0444
1.0203
1.00608
1.001
1.00007
1
1
1
1
1
1
1
1
1
1
1
1
1
1
1
1
1
1
1
1
1
1
1
1
1
1
1
1
1
1
1
1
1
1
1
1
1
1
1
1
1
1
1
1
1
1
1
1
1
1
1
1
1
1
1.00001
1.00017
1.00138
1.00722
1.02421
1.05827
1.10661
1.15885
1.20617
1.24479
1.2711
1.28748
1.29819
1.30248
1.30059
1.29718
1.29067
1.28155
1.27362
1.26639
1.25898
1.25147
1.2435
1.23442
1.22396
1.21224
1.19985
1.18738
1.17455
1.16024
1.14304
1.12184
1.09663
1.06922
1.04303
1.02199
1.00864
1.00237
1.00039
1.00003
1
1
1
1
1
1
1
1
1
1
1
1
1
1
1
1
1
1
1
1
1
1
1
1
1
1
1
1
1
1
1
1
1
1
1
1
1
1
1
1
1
1
1
1
1
1
1
1
1
1
1
1
1
1
1
1
1
1
1
1.00004
1.00026
1.00132
1.00475
1.01316
1.02978
1.05539
1.08455
1.11305
1.13846
1.15825
1.17167
1.18197
1.18865
1.19083
1.18991
1.18789
1.18396
1.17784
1.16961
1.15904
1.14611
1.13152
1.11611
1.09998
1.08269
1.06407
1.045
1.02759
1.01424
1.00597
1.00195
1.00046
1.00007
1.00001
1
1
1
1
1
1
1
1
1
1
1
1
1
1
1
1
1
1
1
1
1
1
1
1
1
1
1
1
1
1
1
1
1
1
1
1
1
1
1
1
1
1
1
1
1
1
1
1
1
1
1
1
1
1
1
1
1
1
1
1
1
1
1
1
1.00002
1.0001
1.00042
1.00138
1.0034
1.00683
1.01173
1.01776
1.02449
1.03178
1.03923
1.04542
1.04915
1.05001
1.0493
1.04693
1.04281
1.03731
1.03102
1.02462
1.01853
1.01293
1.00809
1.00435
1.00193
1.00068
1.00018
1.00004
1
1
1
1
1
1
1
1
1
1
1
1
1
1
1
1
1
1
1
1
1
1
1
1
1
1
1
1
1
1
1
1
1
1
1
1
1
1
1
1
1
1
1
1
1
1
1
1
1
1
1
1
1
1
1
1
1
1
1
1
1
1
1
1
1
1
1
1
1
1
1
1
1.00001
1.00003
1.00008
1.00018
1.00033
1.00058
1.00092
1.00131
1.00162
1.00171
1.00169
1.00157
1.00135
1.00107
1.00078
1.00052
1.00031
1.00016
1.00007
1.00002
1.00001
1
1
1
1
1
1
1
1
1
1
1
1
1
1
1
1
1
1
1
1
1
1
1
1
1
1
1
1
1
1
1
1
1
1
1
1
1
1
1
1
1
1
1
1
1
1
1
1
1
1
1
1
1
1
1
1
1
1
1
1
1
1
1
1
1
1
1
1
1
1
1
1
1
1
1
1
1
1
1
1
1
1
1
1
1
1
1
1
1
1
1
1
1
1
1
1
1
1
1
1
1
1
1
1
1
1
1
1
1
1
1
1
1
1
1
1
1
1
1
1
1
1
1
1
1
1
1
1
1
1
1
1
1
1
1
1
1
1
1
1
1
1
1
1
1
1
)
;

boundaryField
{
    inlet
    {
        type            fixedValue;
        value           uniform 1;
    }
    outlet
    {
        type            inletOutlet;
        inletValue      uniform 1;
        value           nonuniform List<scalar> 
32
(
1
1
1
1
1
1
1
1
1
1
1
1
1
1
1
1
1
1
1
1
1
1
1
1
1
1
1
1
1
1
1
1
)
;
    }
    bottom
    {
        type            symmetryPlane;
    }
    top
    {
        type            symmetryPlane;
    }
    obstacle
    {
        type            zeroGradient;
    }
    defaultFaces
    {
        type            empty;
    }
}


// ************************************************************************* //
