/*--------------------------------*- C++ -*----------------------------------*\
  =========                 |
  \\      /  F ield         | OpenFOAM: The Open Source CFD Toolbox
   \\    /   O peration     | Website:  https://openfoam.org
    \\  /    A nd           | Version:  7
     \\/     M anipulation  |
\*---------------------------------------------------------------------------*/
FoamFile
{
    version     2.0;
    format      ascii;
    class       volVectorField;
    location    "0.5";
    object      U;
}
// * * * * * * * * * * * * * * * * * * * * * * * * * * * * * * * * * * * * * //

dimensions      [0 1 -1 0 0 0 0];

internalField   nonuniform List<vector> 
4032
(
(3 8.02588e-17 0)
(3 1.62705e-17 0)
(3 4.77644e-17 0)
(3 1.32009e-16 0)
(3 1.02907e-18 0)
(3 -2.24191e-16 0)
(3 -2.00672e-16 0)
(3 -1.5752e-16 0)
(3 -3.89617e-16 0)
(3 -7.28449e-16 0)
(3 -4.23571e-16 0)
(3 2.7188e-17 0)
(3 6.17176e-16 0)
(3 3.18794e-16 0)
(3 -3.77052e-16 0)
(1.13046 0.0183072 0)
(0.61538 0.0180725 0)
(0.548293 0.0332425 0)
(0.488244 0.0348436 0)
(0.412085 0.036578 0)
(0.337349 0.0388878 0)
(0.247526 0.0424365 0)
(0.150633 0.0440941 0)
(0.0531873 0.0460677 0)
(3 -7.33172e-17 0)
(3 -2.80392e-16 0)
(3 -1.1679e-16 0)
(3 8.12741e-18 0)
(3 -2.26282e-16 0)
(3 -6.55016e-16 0)
(3 -6.89979e-16 0)
(3 -4.83443e-16 0)
(3 -1.83295e-15 0)
(3 -2.94331e-15 0)
(3 -1.95533e-15 0)
(3 -8.42151e-16 0)
(3 4.73898e-16 0)
(3 1.64733e-17 0)
(3 7.35779e-17 0)
(1.16164 0.0860509 0)
(0.604776 0.0768848 0)
(0.525878 0.102499 0)
(0.46234 0.101409 0)
(0.384457 0.10348 0)
(0.312925 0.112088 0)
(0.227807 0.12512 0)
(0.137451 0.131964 0)
(0.0483922 0.138069 0)
(3 -4.40899e-16 0)
(3 -7.01648e-16 0)
(3 -4.6447e-16 0)
(3 -5.39318e-16 0)
(3 -7.63792e-16 0)
(3 -2.65874e-16 0)
(3 2.14291e-16 0)
(3 1.84132e-17 0)
(3 -9.80335e-16 0)
(3 -1.837e-15 0)
(3 -1.29513e-15 0)
(3 -3.62279e-16 0)
(3 3.18441e-16 0)
(3 6.17268e-16 0)
(3 -1.76385e-15 0)
(1.25951 0.154379 0)
(0.61515 0.141382 0)
(0.524518 0.177518 0)
(0.45643 0.174468 0)
(0.375765 0.17589 0)
(0.30367 0.186396 0)
(0.218692 0.205144 0)
(0.130026 0.213406 0)
(0.0454767 0.220572 0)
(3 7.03263e-17 0)
(3 2.06068e-17 0)
(3 -5.13162e-16 0)
(3 -7.73986e-16 0)
(3 -7.31475e-16 0)
(3 -4.82942e-16 0)
(3 4.34439e-16 0)
(3 6.73175e-16 0)
(3 9.92696e-16 0)
(3 1.36811e-15 0)
(3 7.62255e-16 0)
(3 3.36684e-16 0)
(3 -5.91018e-18 0)
(3 -3.39186e-16 0)
(3 -1.24513e-15 0)
(1.4229 0.219618 0)
(0.635488 0.21558 0)
(0.527875 0.255711 0)
(0.461901 0.249113 0)
(0.386862 0.249664 0)
(0.317484 0.264352 0)
(0.231822 0.289303 0)
(0.139488 0.299037 0)
(0.0482707 0.305663 0)
(3 2.55257e-16 0)
(3 2.01945e-16 0)
(3 -2.27019e-16 0)
(3 -1.94345e-16 0)
(3 -1.46182e-16 0)
(3 -3.7382e-16 0)
(3 -5.27834e-17 0)
(3 1.01979e-15 0)
(3 1.72625e-15 0)
(3 2.23398e-15 0)
(3 1.95048e-15 0)
(3 -4.2329e-16 0)
(3 -1.34988e-15 0)
(3 -1.47446e-15 0)
(3 -9.10075e-16 0)
(1.6646 0.285849 0)
(0.671434 0.304718 0)
(0.538563 0.336202 0)
(0.486338 0.320352 0)
(0.427285 0.317199 0)
(0.364271 0.337493 0)
(0.27868 0.37238 0)
(0.174816 0.393673 0)
(0.0636338 0.409565 0)
(3 5.35145e-17 0)
(3 3.49236e-16 0)
(3 6.58805e-16 0)
(3 6.43087e-16 0)
(3 1.96457e-16 0)
(3 -2.08046e-16 0)
(3 -2.89981e-16 0)
(3 -1.67457e-16 0)
(3 -5.0521e-16 0)
(3 2.49622e-16 0)
(3 6.8006e-16 0)
(3 2.79401e-16 0)
(3 -8.69768e-16 0)
(3 -1.54136e-15 0)
(3 -2.97093e-15 0)
(2.01854 0.342455 0)
(0.742619 0.407815 0)
(0.584591 0.401029 0)
(0.54468 0.37096 0)
(0.491059 0.373225 0)
(0.42532 0.413032 0)
(0.325685 0.474442 0)
(0.204555 0.518979 0)
(0.0642953 0.546621 0)
(3 1.33939e-17 0)
(3 8.30488e-17 0)
(3 3.28302e-16 0)
(3 1.92248e-16 0)
(3 -2.1158e-16 0)
(3 -5.03617e-16 0)
(3 -5.74488e-16 0)
(3 -6.84578e-16 0)
(3 -1.00773e-15 0)
(3 -5.0765e-16 0)
(3 -1.37181e-16 0)
(3 3.5474e-16 0)
(3 -6.39025e-17 0)
(3 -4.47185e-16 0)
(3 -1.35663e-15 0)
(2.55116 0.300637 0)
(0.881199 0.482699 0)
(0.668124 0.441553 0)
(0.612507 0.421507 0)
(0.554096 0.444177 0)
(0.480658 0.507895 0)
(0.387063 0.592608 0)
(0.276124 0.650789 0)
(0.115008 0.706696 0)
(3 -3.93002e-17 0)
(3 -3.63597e-16 0)
(3 -4.71469e-16 0)
(3 -6.11472e-16 0)
(3 -4.57812e-16 0)
(3 -6.00953e-16 0)
(3 -1.0512e-15 0)
(3 -7.25333e-16 0)
(3 2.1619e-16 0)
(3 2.41388e-16 0)
(3 -3.99312e-16 0)
(3 -2.32686e-16 0)
(3 2.06564e-16 0)
(3 5.71788e-16 0)
(3 4.00092e-17 0)
(2.99298 0.0860657 0)
(1.08726 0.517706 0)
(0.721598 0.520265 0)
(0.632786 0.500535 0)
(0.571409 0.531345 0)
(0.519676 0.602231 0)
(0.454326 0.700985 0)
(0.326341 0.824182 0)
(0.171073 1.00439 0)
(3 6.7658e-17 0)
(3 -6.66131e-18 0)
(3 -5.02691e-16 0)
(3 -3.3081e-16 0)
(3 -1.8504e-16 0)
(3 -2.36931e-16 0)
(3 -8.4002e-16 0)
(3 -8.93967e-16 0)
(3 -2.23563e-16 0)
(3 4.55879e-16 0)
(3 -3.97325e-16 0)
(3 -1.61948e-15 0)
(3 -1.35188e-15 0)
(3 -1.11926e-15 0)
(3 -7.68516e-16 0)
(3.00887 0.00339429 0)
(1.37796 0.559647 0)
(0.735494 0.61379 0)
(0.662073 0.579543 0)
(0.626808 0.605005 0)
(0.593861 0.676064 0)
(0.558883 0.804536 0)
(0.555925 1.00448 0)
(0.643596 1.30079 0)
(3 -1.41929e-16 0)
(3 -7.78144e-16 0)
(3 -9.28899e-16 0)
(3 -7.29078e-16 0)
(3 -3.76799e-16 0)
(3 2.79332e-16 0)
(3 1.99206e-16 0)
(3 -1.10372e-16 0)
(3 -1.08054e-16 0)
(3 -1.82386e-16 0)
(3 -7.43641e-16 0)
(3 -1.84168e-15 0)
(3 -2.30569e-15 0)
(3 -2.13797e-15 0)
(3 -1.42386e-15 0)
(3.00005 7.28411e-06 0)
(2.04924 0.573352 0)
(0.844396 0.687404 0)
(0.75304 0.624892 0)
(0.734668 0.652081 0)
(0.71464 0.73724 0)
(0.709282 0.878974 0)
(0.793039 1.05259 0)
(1.05967 1.23713 0)
(3 -4.87538e-16 0)
(3 -4.9684e-16 0)
(3 1.36523e-16 0)
(3 3.53252e-16 0)
(3 -1.93724e-17 0)
(3 2.60393e-16 0)
(3 3.38761e-16 0)
(3 -4.65096e-16 0)
(3 -9.78617e-16 0)
(3 -1.10383e-15 0)
(3 -8.73729e-16 0)
(3 -7.64252e-16 0)
(3 -5.55373e-16 0)
(3 6.78477e-17 0)
(3 -1.21964e-17 0)
(3 8.12742e-10 0)
(2.93894 0.220463 0)
(1.13862 0.717305 0)
(0.876481 0.678405 0)
(0.835784 0.718134 0)
(0.816279 0.816386 0)
(0.848145 0.921853 0)
(0.966654 1.03849 0)
(1.2593 1.16276 0)
(3 4.42361e-16 0)
(3 8.43012e-16 0)
(3 1.26789e-15 0)
(3 1.4711e-15 0)
(3 1.4079e-15 0)
(3 5.958e-16 0)
(3 4.11114e-16 0)
(3 -1.14351e-16 0)
(3 -5.01737e-16 0)
(3 -8.2739e-16 0)
(3 -1.33016e-15 0)
(3 -8.11434e-16 0)
(3 3.10609e-16 0)
(3 6.04896e-16 0)
(3 5.81198e-18 0)
(3 -1.94581e-11 0)
(3.02907 0.010008 0)
(1.54341 0.702891 0)
(0.940215 0.792164 0)
(0.887754 0.800557 0)
(0.902108 0.865881 0)
(0.960143 0.930997 0)
(1.09209 1.0169 0)
(1.35145 1.08434 0)
(3 3.66861e-16 0)
(3 1.02479e-15 0)
(3 6.99713e-16 0)
(3 2.93179e-16 0)
(3 9.09278e-16 0)
(3 7.74146e-16 0)
(3 1.37526e-16 0)
(3 8.12889e-17 0)
(3 -1.96057e-16 0)
(3 -1.35618e-15 0)
(3 -1.88746e-15 0)
(3 -1.81132e-15 0)
(3 -8.38333e-16 0)
(3 -6.45667e-16 0)
(3 -3.35198e-16 0)
(3 -2.52451e-12 0)
(3.00027 5.8505e-05 0)
(2.50956 0.470227 0)
(1.12283 0.829566 0)
(0.976447 0.839911 0)
(1.00421 0.872966 0)
(1.05989 0.92486 0)
(1.18177 0.985827 0)
(1.38968 1.02824 0)
(3 -3.57046e-16 0)
(3 -4.35715e-16 0)
(3 -1.134e-15 0)
(3 -1.41949e-15 0)
(3 -1.33575e-15 0)
(3 -5.03883e-16 0)
(3 -4.09655e-16 0)
(3 -8.1658e-16 0)
(3 -8.43952e-16 0)
(3 -8.74705e-16 0)
(3 -5.85173e-16 0)
(3 -1.01108e-15 0)
(3 -1.26559e-15 0)
(3 -9.59537e-16 0)
(3 5.25545e-16 0)
(3 -7.35171e-14 0)
(3 1.83136e-08 0)
(3.05971 0.0523381 0)
(1.51616 0.813537 0)
(1.05826 0.918076 0)
(1.08157 0.934795 0)
(1.14172 0.962746 0)
(1.25204 0.988447 0)
(1.41902 0.997967 0)
(3 -1.34837e-16 0)
(3 -5.20936e-16 0)
(3 -1.253e-15 0)
(3 -1.44319e-15 0)
(3 -1.85372e-15 0)
(3 -1.81443e-15 0)
(3 -1.61889e-15 0)
(3 -1.75445e-15 0)
(3 -1.77106e-15 0)
(3 -1.15549e-15 0)
(3 -3.60621e-16 0)
(3 -5.12197e-16 0)
(3 -8.29323e-16 0)
(3 -6.25702e-16 0)
(3 1.11519e-16 0)
(3 -1.73763e-15 0)
(3 -4.83853e-10 0)
(3.00298 0.000896423 0)
(2.47482 0.552202 0)
(1.25823 0.940123 0)
(1.1653 0.938828 0)
(1.23796 0.951529 0)
(1.32631 0.97082 0)
(1.45905 0.978191 0)
(3 -2.3626e-16 0)
(3 -1.05047e-16 0)
(3 2.89796e-16 0)
(3 6.33455e-16 0)
(3 4.84518e-16 0)
(3 6.20684e-17 0)
(3 -3.08131e-17 0)
(3 1.40864e-17 0)
(3 -4.01497e-16 0)
(3 -2.28174e-16 0)
(3 -3.54035e-16 0)
(3 5.61501e-16 0)
(3 1.25346e-15 0)
(3 5.04906e-16 0)
(3 -6.05298e-16 0)
(3 -7.84491e-16 0)
(3 -2.75901e-10 0)
(3 1.90563e-06 0)
(3.04735 0.0601272 0)
(1.71277 0.867878 0)
(1.24801 0.997307 0)
(1.30152 0.997259 0)
(1.3772 1.00615 0)
(1.48655 1.00009 0)
(3 -1.36693e-16 0)
(3 -1.24815e-16 0)
(3 9.81779e-17 0)
(3 1.25085e-17 0)
(3 6.68897e-16 0)
(3 8.37359e-16 0)
(3 1.39161e-15 0)
(3 2.15471e-15 0)
(3 1.9257e-15 0)
(3 1.07978e-15 0)
(3 6.91289e-16 0)
(3 1.32056e-15 0)
(3 1.71248e-15 0)
(3 3.82718e-16 0)
(3 -9.69674e-16 0)
(3 -1.15288e-15 0)
(3 -3.70478e-11 0)
(3 1.27104e-10 0)
(3.0025 0.0014726 0)
(2.71704 0.42849 0)
(1.51604 0.984679 0)
(1.357 1.00695 0)
(1.44758 0.996563 0)
(1.53278 0.990767 0)
(3 2.08235e-16 0)
(3 -2.43961e-16 0)
(3 -6.8629e-16 0)
(3 -6.70015e-16 0)
(3 3.61688e-17 0)
(3 1.6405e-16 0)
(3 2.80261e-16 0)
(3 4.93569e-16 0)
(3 4.76378e-16 0)
(3 7.49544e-16 0)
(3 1.00654e-15 0)
(3 8.10041e-16 0)
(3 3.52223e-16 0)
(3 -4.70174e-16 0)
(3 -7.67691e-16 0)
(3 -9.22609e-16 0)
(3 -6.38807e-13 0)
(3 -1.41465e-12 0)
(3 3.42945e-06 0)
(3.01992 0.0307508 0)
(2.19291 0.786244 0)
(1.46165 1.04146 0)
(1.4783 1.03436 0)
(1.58462 1.00544 0)
(3 -4.31986e-17 0)
(3 -3.28266e-16 0)
(3 -4.16065e-16 0)
(3 -4.13275e-17 0)
(3 -2.53227e-16 0)
(3 -2.77476e-16 0)
(3 -5.8365e-16 0)
(3 -5.64919e-16 0)
(3 -8.60355e-17 0)
(3 1.91856e-16 0)
(3 8.80824e-16 0)
(3 6.68025e-16 0)
(3 1.46234e-16 0)
(3 -1.4682e-16 0)
(3 -1.41246e-16 0)
(3 -5.26789e-16 0)
(3 -2.11032e-15 0)
(3 -7.71646e-13 0)
(3 5.03658e-10 0)
(3.00036 0.00068335 0)
(2.95511 0.181911 0)
(1.91025 0.920212 0)
(1.55426 1.04735 0)
(1.60181 1.04283 0)
(3 6.26144e-17 0)
(3 2.70903e-16 0)
(3 4.05677e-16 0)
(3 2.61283e-16 0)
(3 1.19093e-16 0)
(3 2.75904e-16 0)
(3 1.87509e-16 0)
(3 1.97082e-17 0)
(3 2.75609e-16 0)
(3 3.98337e-16 0)
(3 6.36893e-16 0)
(3 6.86125e-16 0)
(3 1.13639e-16 0)
(3 -7.07598e-17 0)
(3 -3.67271e-16 0)
(3 -4.20025e-16 0)
(3 5.68791e-17 0)
(3 -1.08607e-13 0)
(3 -5.90983e-14 0)
(3 1.00466e-06 0)
(3.00267 0.00895124 0)
(2.72739 0.416486 0)
(1.82867 0.973154 0)
(1.65631 1.06368 0)
(3 7.47825e-17 0)
(3 -2.89352e-18 0)
(3 5.60667e-16 0)
(3 6.48083e-16 0)
(3 2.91421e-16 0)
(3 -4.13658e-16 0)
(3 -1.79955e-16 0)
(3 1.6386e-18 0)
(3 -4.34344e-16 0)
(3 -5.13925e-16 0)
(3 -5.36109e-16 0)
(3 -9.23026e-17 0)
(3 -1.99226e-16 0)
(3 -2.98e-16 0)
(3 -3.34341e-16 0)
(3 8.81126e-16 0)
(3 1.49818e-15 0)
(3 -1.02875e-15 0)
(3 -1.04795e-14 0)
(3 2.13147e-10 0)
(3 5.78273e-05 0)
(2.99999 0.034455 0)
(2.48921 0.603997 0)
(1.85175 1.00496 0)
(3 -6.66876e-17 0)
(3 -7.15822e-17 0)
(3 1.16738e-16 0)
(3 -4.33197e-17 0)
(3 -8.75803e-16 0)
(3 -7.86711e-16 0)
(3 -6.84282e-16 0)
(3 -6.37338e-16 0)
(3 -3.36988e-16 0)
(3 -3.29577e-16 0)
(3 -1.75388e-16 0)
(3 -2.13457e-16 0)
(3 -7.14714e-16 0)
(3 -9.67062e-16 0)
(3 -9.15595e-16 0)
(3 -5.51109e-16 0)
(3 -4.16987e-16 0)
(3 6.85043e-17 0)
(3 3.24493e-16 0)
(3 1.58971e-14 0)
(3 3.51573e-08 0)
(3.00001 0.000626668 0)
(2.97324 0.0826424 0)
(2.38114 0.699391 0)
(3 -6.93693e-17 0)
(3 2.93435e-16 0)
(3 1.13437e-16 0)
(3 1.68632e-16 0)
(3 5.14849e-16 0)
(3 4.91583e-16 0)
(3 6.356e-16 0)
(3 4.28368e-16 0)
(3 6.86773e-16 0)
(3 8.72291e-16 0)
(3 4.29338e-16 0)
(3 -3.04817e-16 0)
(3 -6.4782e-16 0)
(3 -5.97583e-16 0)
(3 -5.87522e-16 0)
(3 -9.26699e-16 0)
(3 -1.28776e-15 0)
(3 -5.68111e-16 0)
(3 5.44906e-16 0)
(3 3.1162e-16 0)
(3 3.35593e-12 0)
(3 9.33573e-07 0)
(2.99983 0.00270908 0)
(2.94096 0.126515 0)
(3 1.02565e-16 0)
(3 1.25077e-16 0)
(3 2.36375e-16 0)
(3 1.22133e-16 0)
(3 1.8875e-16 0)
(3 8.62791e-16 0)
(3 7.22549e-16 0)
(3 6.6047e-16 0)
(3 5.36774e-16 0)
(3 7.01775e-16 0)
(3 -7.02111e-17 0)
(3 3.04222e-16 0)
(3 2.51038e-16 0)
(3 1.22768e-15 0)
(3 1.71124e-15 0)
(3 9.08535e-16 0)
(3 3.57575e-16 0)
(3 5.89355e-18 0)
(3 1.26167e-16 0)
(3 -2.81606e-16 0)
(3 -4.78046e-16 0)
(3 2.38958e-10 0)
(3 7.8e-06 0)
(2.99922 0.00525665 0)
(3 7.72067e-17 0)
(3 1.44066e-16 0)
(3 3.26874e-16 0)
(3 2.52973e-16 0)
(3 -2.61308e-17 0)
(3 1.06311e-16 0)
(3 -1.51889e-16 0)
(3 -2.87766e-16 0)
(3 -2.73475e-16 0)
(3 -2.48073e-16 0)
(3 -6.87311e-16 0)
(3 -7.92392e-16 0)
(3 2.68125e-17 0)
(3 6.30091e-16 0)
(3 1.14649e-15 0)
(3 1.28456e-15 0)
(3 8.30031e-16 0)
(3 5.46662e-16 0)
(3 -3.90449e-16 0)
(3 -5.23211e-16 0)
(3 -1.03975e-15 0)
(3 1.43565e-14 0)
(3 3.54607e-09 0)
(3 2.21049e-05 0)
(3 -3.56602e-18 0)
(3 3.87058e-17 0)
(3 -2.36698e-16 0)
(3 -1.20868e-16 0)
(3 2.7423e-16 0)
(3 -2.38946e-16 0)
(3 -5.66315e-17 0)
(3 -3.01334e-16 0)
(3 -5.33643e-16 0)
(3 -9.05027e-16 0)
(3 -6.84797e-16 0)
(3 -7.45275e-16 0)
(3 -4.16217e-17 0)
(3 -1.30158e-16 0)
(3 -6.75447e-16 0)
(3 -6.06378e-16 0)
(3 7.24007e-17 0)
(3 1.82007e-16 0)
(3 9.45468e-17 0)
(3 -1.02155e-15 0)
(3 -2.621e-15 0)
(3 -2.84497e-15 0)
(3 2.23509e-13 0)
(3 1.36802e-08 0)
(3 -8.31575e-17 0)
(3 -4.56837e-16 0)
(3 -1.1624e-15 0)
(3 -8.49359e-16 0)
(3 -3.13809e-16 0)
(3 -4.34529e-16 0)
(3 -4.31355e-16 0)
(3 -6.84292e-16 0)
(3 -7.03853e-16 0)
(3 -5.13649e-16 0)
(3 1.29286e-16 0)
(3 5.52001e-16 0)
(3 5.62972e-16 0)
(3 -8.58786e-17 0)
(3 -6.83092e-16 0)
(3 -7.42618e-16 0)
(3 -4.42067e-16 0)
(3 7.56167e-17 0)
(3 8.28245e-17 0)
(3 -1.12819e-16 0)
(3 -1.58855e-15 0)
(3 -1.52032e-15 0)
(3 1.52119e-16 0)
(3 9.76031e-13 0)
(3 1.63289e-18 0)
(3 -6.16537e-18 0)
(3 -2.87259e-16 0)
(3 -3.61303e-16 0)
(3 -2.57854e-16 0)
(3 1.04977e-16 0)
(3 -1.8593e-17 0)
(3 -2.27686e-17 0)
(3 -1.46166e-16 0)
(3 -8.1234e-18 0)
(3 -2.9444e-16 0)
(3 -5.84588e-16 0)
(3 -1.14522e-15 0)
(3 -1.41137e-15 0)
(3 -1.11452e-15 0)
(3 -8.03213e-16 0)
(3 -5.75986e-16 0)
(3 -5.45655e-16 0)
(3 -1.38531e-16 0)
(3 5.03072e-16 0)
(3 1.56309e-15 0)
(3 1.63045e-15 0)
(3 1.28475e-15 0)
(3 1.05017e-15 0)
(3 1.59396e-16 0)
(3 3.58938e-16 0)
(3 7.49321e-16 0)
(3 4.64636e-16 0)
(3 -4.41947e-17 0)
(3 -1.36443e-16 0)
(3 3.36864e-16 0)
(3 2.79968e-16 0)
(3 2.29714e-17 0)
(3 2.39136e-16 0)
(3 8.39119e-17 0)
(3 -3.77531e-16 0)
(3 -1.41748e-15 0)
(3 -1.75189e-15 0)
(3 -7.54252e-16 0)
(3 -6.41913e-16 0)
(3 -6.74592e-16 0)
(3 -1.29323e-15 0)
(3 -1.15906e-15 0)
(3 -7.64444e-16 0)
(3 1.09081e-15 0)
(3 1.82556e-15 0)
(3 2.53999e-15 0)
(3 1.87583e-15 0)
(3 -2.11371e-17 0)
(3 1.58629e-17 0)
(3 1.7809e-16 0)
(3 1.47777e-16 0)
(3 -4.04131e-17 0)
(3 -5.1061e-16 0)
(3 -3.48714e-16 0)
(3 1.89133e-16 0)
(3 7.44309e-16 0)
(3 1.29483e-15 0)
(3 1.41912e-15 0)
(3 9.04304e-16 0)
(3 -2.02642e-16 0)
(3 -3.18091e-16 0)
(3 2.34004e-16 0)
(3 7.42642e-16 0)
(3 6.10132e-16 0)
(3 4.73206e-16 0)
(3 1.74426e-16 0)
(3 1.55281e-16 0)
(3 1.20004e-15 0)
(3 2.78345e-15 0)
(3 3.24405e-15 0)
(3 2.98723e-15 0)
(3 -8.72704e-17 0)
(3 9.7901e-17 0)
(3 4.19519e-16 0)
(3 3.3684e-16 0)
(3 9.98348e-16 0)
(3 8.56447e-16 0)
(3 3.98482e-16 0)
(3 7.38745e-16 0)
(3 1.45366e-15 0)
(3 7.30364e-16 0)
(3 1.0699e-16 0)
(3 4.36854e-16 0)
(3 5.69107e-16 0)
(3 2.17277e-18 0)
(3 -5.88036e-16 0)
(3 -4.85952e-16 0)
(3 -4.7767e-16 0)
(3 1.13095e-16 0)
(3 1.57476e-15 0)
(3 1.25281e-15 0)
(3 4.16852e-16 0)
(3 8.69529e-16 0)
(3 1.76712e-15 0)
(3 1.3302e-15 0)
(3 -8.96099e-17 0)
(3 -1.47734e-16 0)
(3 3.02458e-16 0)
(3 5.41458e-16 0)
(3 4.72426e-16 0)
(3 6.20594e-16 0)
(3 2.8477e-16 0)
(3 6.50814e-16 0)
(3 1.30053e-16 0)
(3 -3.27938e-17 0)
(3 -3.70818e-16 0)
(3 2.21649e-16 0)
(3 1.28309e-15 0)
(3 1.19257e-15 0)
(3 -1.9992e-17 0)
(3 -7.6091e-16 0)
(3 -9.78132e-16 0)
(3 -3.98842e-16 0)
(3 -3.46701e-16 0)
(3 -2.18934e-16 0)
(3 -4.51063e-16 0)
(3 -1.36416e-15 0)
(3 -2.33103e-15 0)
(3 -1.77389e-15 0)
(3 6.57381e-18 0)
(3 -2.32295e-16 0)
(3 -8.58308e-16 0)
(3 -5.87177e-16 0)
(3 -9.03146e-16 0)
(3 -6.6929e-16 0)
(3 -6.41083e-16 0)
(3 -6.05083e-16 0)
(3 -6.62843e-16 0)
(3 -2.47537e-16 0)
(3 1.38605e-16 0)
(3 3.28201e-16 0)
(3 4.79841e-16 0)
(3 3.75327e-16 0)
(3 -1.24885e-16 0)
(3 -5.67148e-16 0)
(3 -2.55293e-17 0)
(3 -5.62337e-16 0)
(3 -9.99783e-16 0)
(3 -1.07361e-15 0)
(3 -5.07747e-16 0)
(3 -3.5431e-16 0)
(3 -1.73982e-15 0)
(3 -2.34668e-15 0)
(3 -1.03985e-17 0)
(3 -4.78366e-17 0)
(3 9.50497e-17 0)
(3 -3.26583e-18 0)
(3 -1.54016e-16 0)
(3 -4.74533e-16 0)
(3 -8.716e-16 0)
(3 -1.4483e-15 0)
(3 -1.07685e-15 0)
(3 -9.82294e-16 0)
(3 -6.93191e-16 0)
(3 -8.97893e-16 0)
(3 -1.51025e-15 0)
(3 -9.55323e-16 0)
(3 -3.72745e-16 0)
(3 -1.39161e-16 0)
(3 -1.60273e-16 0)
(3 -7.32609e-16 0)
(3 -5.96954e-16 0)
(3 -1.01278e-15 0)
(3 -7.44978e-16 0)
(3 -2.95027e-16 0)
(3 -6.35987e-16 0)
(3 -1.25937e-15 0)
(3 -2.84333e-17 0)
(3 5.08489e-17 0)
(3 4.85567e-16 0)
(3 6.70699e-16 0)
(3 6.6357e-16 0)
(3 5.44223e-17 0)
(3 -4.12709e-16 0)
(3 -2.51756e-16 0)
(3 -2.11384e-16 0)
(3 -3.37484e-16 0)
(3 -2.97362e-16 0)
(3 2.31727e-16 0)
(3 5.49029e-17 0)
(3 1.49449e-16 0)
(3 6.73813e-16 0)
(3 8.03713e-16 0)
(3 2.243e-16 0)
(3 1.29949e-16 0)
(3 -3.33833e-16 0)
(3 -6.31439e-16 0)
(3 -9.34466e-16 0)
(3 -4.52802e-16 0)
(3 6.66e-16 0)
(3 4.85987e-16 0)
(3 5.64444e-17 0)
(3 -2.98474e-17 0)
(3 4.5399e-16 0)
(3 7.03164e-16 0)
(3 4.62871e-16 0)
(3 1.5583e-16 0)
(3 8.74633e-16 0)
(3 4.10155e-16 0)
(3 6.22814e-16 0)
(3 6.55621e-16 0)
(3 4.1766e-16 0)
(3 9.51549e-16 0)
(3 1.4397e-15 0)
(3 1.62245e-15 0)
(3 1.21674e-15 0)
(3 7.61817e-16 0)
(3 6.6674e-16 0)
(3 5.71318e-16 0)
(3 2.29971e-16 0)
(3 2.67824e-16 0)
(3 1.02545e-16 0)
(3 -1.34008e-16 0)
(3 -3.25865e-16 0)
(3 -7.38741e-17 0)
(3 2.41139e-18 0)
(3 1.33457e-16 0)
(3 3.04125e-16 0)
(3 1.81843e-16 0)
(3 -2.51082e-16 0)
(3 4.62878e-16 0)
(3 1.40088e-15 0)
(3 1.67653e-15 0)
(3 1.69355e-15 0)
(3 7.68831e-16 0)
(3 -7.81444e-16 0)
(3 -2.80576e-17 0)
(3 1.36671e-15 0)
(3 1.73624e-15 0)
(3 9.14084e-16 0)
(3 1.92065e-16 0)
(3 -3.30012e-16 0)
(3 -2.75446e-16 0)
(3 8.40442e-16 0)
(3 9.40729e-16 0)
(3 6.00215e-16 0)
(3 -7.63492e-16 0)
(3 -1.32523e-15 0)
(3 -6.4686e-16 0)
(3 5.50595e-17 0)
(3 7.87917e-16 0)
(3 9.25729e-16 0)
(3 9.53752e-16 0)
(3 1.07892e-15 0)
(3 1.2742e-15 0)
(3 1.7083e-15 0)
(3 2.29308e-15 0)
(3 1.69186e-15 0)
(3 7.20127e-16 0)
(3 2.68521e-16 0)
(3 -3.52914e-16 0)
(3 1.11564e-16 0)
(3 3.28479e-16 0)
(3 2.46902e-16 0)
(3 -1.48198e-16 0)
(3 -7.76719e-16 0)
(3 -7.64141e-16 0)
(3 -5.87307e-16 0)
(3 -9.2043e-16 0)
(3 -5.90757e-16 0)
(3 -4.90156e-16 0)
(3 -4.31961e-16 0)
(3 -5.99604e-16 0)
(3 -1.31121e-16 0)
(3 -1.12611e-16 0)
(3 1.76063e-16 0)
(3 5.02285e-16 0)
(3 8.52382e-16 0)
(3 1.23394e-15 0)
(3 1.08489e-15 0)
(3 8.84479e-16 0)
(3 6.19239e-16 0)
(3 8.066e-16 0)
(3 7.00879e-16 0)
(3 -2.27132e-16 0)
(3 -7.60368e-16 0)
(3 -5.65237e-16 0)
(3 -1.60646e-16 0)
(3 1.0693e-16 0)
(3 -7.45668e-16 0)
(3 -1.17434e-15 0)
(3 -1.81689e-15 0)
(3 -1.21726e-15 0)
(3 -5.82115e-16 0)
(3 1.48904e-16 0)
(3 -1.90942e-16 0)
(3 -1.47669e-15 0)
(3 -2.44704e-16 0)
(3 -7.27229e-16 0)
(3 -7.49944e-16 0)
(3 -3.5532e-16 0)
(3 -1.84318e-16 0)
(3 5.40416e-16 0)
(3 7.14991e-16 0)
(3 3.01822e-16 0)
(3 1.25368e-16 0)
(3 1.73118e-17 0)
(3 -9.33608e-17 0)
(3 -5.12835e-16 0)
(3 -8.49377e-16 0)
(3 -7.02187e-16 0)
(3 -2.62115e-16 0)
(3 6.32962e-18 0)
(3 -4.29244e-16 0)
(3 -5.34312e-16 0)
(3 -6.30012e-16 0)
(3 -1.99319e-16 0)
(3 -2.90828e-16 0)
(3 -3.08141e-16 0)
(3 -6.28324e-16 0)
(3 -8.36248e-16 0)
(1.68627 1.43356 0)
(2.28826 1.42407 0)
(2.67336 1.44881 0)
(2.86589 0.895498 0)
(2.9108 0.453508 0)
(2.87588 0.084575 0)
(2.8057 -0.253708 0)
(2.88369 -0.326149 0)
(2.86636 -0.286699 0)
(2.80656 -0.321053 0)
(2.796 -0.27899 0)
(2.80586 -0.180135 0)
(2.80408 -0.154737 0)
(2.78177 -0.110282 0)
(2.76826 -0.0744954 0)
(2.74569 -0.0631683 0)
(2.74935 -0.039251 0)
(2.7741 -0.00377422 0)
(2.78407 0.00556945 0)
(2.78926 0.00400187 0)
(2.80191 0.000936518 0)
(2.80879 0.00338291 0)
(2.79696 0.0109311 0)
(2.79079 0.0165213 0)
(2.79379 0.0174281 0)
(2.79845 0.0166299 0)
(2.81764 0.0119647 0)
(2.84556 0.00246812 0)
(2.85259 -0.00354907 0)
(2.85074 -0.0068054 0)
(2.8412 -0.00946524 0)
(2.82178 -0.00449874 0)
(2.81391 0.00409121 0)
(2.81404 0.00689235 0)
(2.81463 0.0108021 0)
(2.81523 0.015841 0)
(2.82323 0.0138538 0)
(2.85584 -0.000474063 0)
(2.86702 -0.0128697 0)
(2.85354 -0.0139561 0)
(2.84201 -0.0133725 0)
(2.8237 -0.00994748 0)
(2.81621 -0.00544856 0)
(2.81415 -0.00324446 0)
(2.8133 -0.000284272 0)
(2.81701 0.00142828 0)
(2.82047 0.0015464 0)
(2.81941 -0.000173622 0)
(2.81461 -0.00446767 0)
(2.81111 -0.0119511 0)
(2.81385 -0.0214434 0)
(2.82458 -0.0284412 0)
(2.84513 -0.0291269 0)
(2.87894 -0.0227969 0)
(2.91169 -0.0135342 0)
(2.92307 -0.00897938 0)
(2.93144 -0.00797399 0)
(2.94445 -0.00815759 0)
(2.9606 -0.00923086 0)
(2.96715 -0.00972248 0)
(2.97258 -0.00931036 0)
(2.97815 -0.00765265 0)
(2.98102 -0.00586482 0)
(2.98368 -0.00430163 0)
(2.98681 -0.00318798 0)
(2.98955 -0.00230137 0)
(2.9924 -0.00141027 0)
(3.00069 -0.000465098 0)
(3.01701 0.000177475 0)
(3.03298 0.000411378 0)
(3.03674 0.000445836 0)
(3.03659 0.000456326 0)
(3.03633 0.000482297 0)
(3.03551 0.000507937 0)
(3.0333 0.000282561 0)
(3.02815 6.94779e-06 0)
(3.01774 -7.00003e-05 0)
(3.00532 -2.12246e-05 0)
(3.00037 -7.97583e-07 0)
(3 -1.23346e-08 0)
(3 -9.83777e-09 0)
(3 -9.35945e-09 0)
(3 -7.94503e-09 0)
(3 -5.87662e-09 0)
(3 -3.43329e-09 0)
(3 -1.01477e-09 0)
(3 -7.22126e-11 0)
(3 -2.25289e-13 0)
(3 2.55676e-13 0)
(3 2.46101e-13 0)
(3 1.81319e-13 0)
(3 7.49671e-14 0)
(3 9.66905e-15 0)
(3 3.52357e-16 0)
(3 1.36312e-15 0)
(3 3.56175e-16 0)
(1.95555 1.19913 0)
(2.53715 0.843802 0)
(2.82159 0.39538 0)
(3.02054 0.149635 0)
(3.08972 -0.169199 0)
(3.05456 -0.485814 0)
(3.02387 -0.683075 0)
(3.07396 -0.68771 0)
(3.08193 -0.54871 0)
(3.036 -0.405953 0)
(2.94641 -0.324383 0)
(2.89157 -0.217641 0)
(2.85867 -0.141926 0)
(2.8345 -0.118293 0)
(2.81162 -0.0763018 0)
(2.80463 -0.0489073 0)
(2.82249 -0.0187741 0)
(2.81289 0.0428519 0)
(2.79992 0.0564189 0)
(2.79723 0.0553833 0)
(2.81217 0.0340777 0)
(2.82188 -0.00123521 0)
(2.81405 -0.0127049 0)
(2.81032 -0.000948909 0)
(2.82271 0.0114597 0)
(2.83638 0.0208835 0)
(2.85486 0.0287052 0)
(2.87491 0.0259455 0)
(2.87962 0.0143024 0)
(2.87801 -0.00378485 0)
(2.86906 -0.0257522 0)
(2.85284 -0.0288204 0)
(2.84777 -0.0175389 0)
(2.84941 -0.0128737 0)
(2.85301 -0.00562254 0)
(2.85597 0.0108418 0)
(2.86293 0.0279597 0)
(2.88169 0.0202982 0)
(2.88471 -0.00355215 0)
(2.86611 -0.0103948 0)
(2.85314 -0.0166878 0)
(2.83896 -0.0231347 0)
(2.83073 -0.0236646 0)
(2.82572 -0.0212139 0)
(2.82955 -0.0138443 0)
(2.83691 -0.00322017 0)
(2.84 0.00524152 0)
(2.83618 0.00760628 0)
(2.82801 0.00223172 0)
(2.82229 -0.0107087 0)
(2.82396 -0.0281547 0)
(2.83453 -0.0452114 0)
(2.85729 -0.0549872 0)
(2.89474 -0.0496951 0)
(2.91966 -0.0317724 0)
(2.91924 -0.0197483 0)
(2.92496 -0.0159377 0)
(2.93746 -0.0143967 0)
(2.9558 -0.0137457 0)
(2.96658 -0.0134821 0)
(2.97077 -0.0131203 0)
(2.9759 -0.0113905 0)
(2.97883 -0.00971328 0)
(2.98175 -0.00878693 0)
(2.98447 -0.00791984 0)
(2.98721 -0.0067933 0)
(2.99095 -0.00563222 0)
(3.00023 -0.00379293 0)
(3.01731 -0.00127873 0)
(3.03347 0.000566828 0)
(3.03733 0.00116823 0)
(3.03724 0.00129112 0)
(3.03692 0.00145474 0)
(3.03589 0.00158634 0)
(3.03373 0.00159552 0)
(3.02889 0.00123098 0)
(3.0187 0.000628688 0)
(3.00569 0.00015678 0)
(3.00038 9.39317e-06 0)
(3 3.92428e-08 0)
(3 -1.90295e-08 0)
(3 -1.90628e-08 0)
(3 -1.88782e-08 0)
(3 -1.71283e-08 0)
(3 -1.18194e-08 0)
(3 -3.7869e-09 0)
(3 -2.62188e-10 0)
(3 -9.85355e-13 0)
(3 6.42383e-13 0)
(3 6.18102e-13 0)
(3 5.07215e-13 0)
(3 2.46441e-13 0)
(3 3.33296e-14 0)
(3 3.98765e-16 0)
(3 1.0783e-15 0)
(3 -4.77942e-16 0)
(1.83092 1.13056 0)
(2.19187 1.03202 0)
(2.56881 0.683786 0)
(2.84198 0.292007 0)
(2.93025 0.258595 0)
(2.97836 0.116942 0)
(3.02726 -0.17222 0)
(3.08289 -0.215121 0)
(3.14248 -0.24396 0)
(3.11211 -0.322168 0)
(3.08649 -0.359538 0)
(3.06798 -0.384057 0)
(3.04435 -0.331895 0)
(3.01972 -0.284556 0)
(2.97489 -0.207483 0)
(2.94911 -0.143882 0)
(2.94193 -0.0940177 0)
(2.88397 -0.00223561 0)
(2.85095 0.0528605 0)
(2.85244 0.0494157 0)
(2.85777 0.033412 0)
(2.86967 0.0125007 0)
(2.86877 0.00129951 0)
(2.86324 -0.00679154 0)
(2.88107 -0.00490675 0)
(2.90275 -0.000960639 0)
(2.92404 0.0129473 0)
(2.93509 0.0253561 0)
(2.93828 0.0300755 0)
(2.92898 0.0227819 0)
(2.91611 0.00402419 0)
(2.91343 -0.00647823 0)
(2.91707 -0.0121367 0)
(2.92328 -0.0138115 0)
(2.92876 -0.00981803 0)
(2.933 -0.000823264 0)
(2.93886 0.0022613 0)
(2.95157 -0.00458472 0)
(2.93089 -0.00890988 0)
(2.90856 -0.0071551 0)
(2.88668 -0.0014486 0)
(2.87073 -4.09227e-05 0)
(2.85662 -0.00228308 0)
(2.85579 -0.00635259 0)
(2.86842 -0.00523515 0)
(2.88087 0.00400981 0)
(2.88644 0.0142023 0)
(2.88337 0.0202062 0)
(2.87298 0.0168431 0)
(2.8626 0.000413943 0)
(2.86008 -0.0261014 0)
(2.86973 -0.0542579 0)
(2.89543 -0.0720448 0)
(2.93353 -0.0679037 0)
(2.94466 -0.0484135 0)
(2.93484 -0.0366659 0)
(2.93707 -0.0322653 0)
(2.94747 -0.0284885 0)
(2.96355 -0.0233652 0)
(2.97136 -0.0210896 0)
(2.97474 -0.0201153 0)
(2.97846 -0.0171647 0)
(2.98109 -0.0144378 0)
(2.98403 -0.0133415 0)
(2.98661 -0.0124581 0)
(2.9892 -0.0113709 0)
(2.99354 -0.0102798 0)
(3.00327 -0.00826785 0)
(3.02048 -0.00408487 0)
(3.03528 -0.000219079 0)
(3.0383 0.00100047 0)
(3.03825 0.00130354 0)
(3.03773 0.00191469 0)
(3.03636 0.00267036 0)
(3.03372 0.00308305 0)
(3.02823 0.00303276 0)
(3.01724 0.00205841 0)
(3.00469 0.000571478 0)
(3.00027 3.0826e-05 0)
(3 1.02565e-07 0)
(3 -3.27439e-08 0)
(3 -3.22973e-08 0)
(3 -3.135e-08 0)
(3 -2.87322e-08 0)
(3 -1.84839e-08 0)
(3 -4.90305e-09 0)
(3 -2.48092e-10 0)
(3 1.05708e-13 0)
(3 1.05971e-12 0)
(3 1.00005e-12 0)
(3 7.93291e-13 0)
(3 3.33394e-13 0)
(3 3.66373e-14 0)
(3 8.59577e-16 0)
(3 1.46837e-16 0)
(3 3.92594e-16 0)
(1.72314 1.07144 0)
(2.07276 0.929243 0)
(2.35965 0.718412 0)
(2.52825 0.61415 0)
(2.67257 0.518633 0)
(2.86538 0.262988 0)
(2.95381 -0.0398061 0)
(3.00506 -0.135439 0)
(3.06211 -0.130418 0)
(3.09507 -0.254269 0)
(3.10138 -0.424327 0)
(3.10406 -0.465852 0)
(3.16349 -0.411385 0)
(3.1553 -0.352011 0)
(3.112 -0.316275 0)
(3.06785 -0.257633 0)
(3.04011 -0.193588 0)
(2.99865 -0.10365 0)
(2.96493 -0.0469377 0)
(2.94293 -0.0398711 0)
(2.90705 -0.0141995 0)
(2.9179 0.0317797 0)
(2.9195 0.0643971 0)
(2.92477 0.0667678 0)
(2.93781 0.0604526 0)
(2.962 0.0457227 0)
(2.98325 0.0258492 0)
(2.99096 0.0109053 0)
(2.98815 -0.00217508 0)
(2.98409 -0.0156303 0)
(2.98837 -0.0204299 0)
(2.9931 -0.0213509 0)
(3.00093 -0.0141644 0)
(3.00735 0.00386196 0)
(3.01322 0.0253065 0)
(3.01813 0.0346582 0)
(3.01866 0.022071 0)
(3.02011 0.00839619 0)
(2.99422 -0.0092785 0)
(2.96231 -0.0103622 0)
(2.93798 -0.00172034 0)
(2.9158 0.0027141 0)
(2.90076 0.00213124 0)
(2.90379 -0.00575665 0)
(2.9187 -0.014494 0)
(2.93388 -0.0159114 0)
(2.94238 -0.0100509 0)
(2.94232 -0.00435025 0)
(2.93487 -0.00630151 0)
(2.92496 -0.0188538 0)
(2.91989 -0.0393398 0)
(2.92738 -0.0598233 0)
(2.95337 -0.0706114 0)
(2.98517 -0.0641214 0)
(2.97717 -0.0521403 0)
(2.96167 -0.0461012 0)
(2.96035 -0.0422343 0)
(2.96769 -0.036365 0)
(2.97812 -0.029835 0)
(2.98057 -0.0279555 0)
(2.98209 -0.0258119 0)
(2.98203 -0.0224494 0)
(2.98374 -0.019953 0)
(2.98662 -0.0186536 0)
(2.98944 -0.0175203 0)
(2.99202 -0.0164169 0)
(2.99673 -0.0151584 0)
(3.0074 -0.0114997 0)
(3.0251 -0.0051032 0)
(3.03758 -0.000117034 0)
(3.03921 0.00141235 0)
(3.039 0.0018932 0)
(3.03824 0.00277502 0)
(3.03664 0.00379553 0)
(3.03362 0.00439773 0)
(3.02716 0.00411843 0)
(3.01509 0.00249195 0)
(3.00333 0.000558766 0)
(3.00013 2.09766e-05 0)
(3 1.0379e-08 0)
(3 -4.52787e-08 0)
(3 -4.50407e-08 0)
(3 -4.42624e-08 0)
(3 -3.87776e-08 0)
(3 -2.20063e-08 0)
(3 -4.45734e-09 0)
(3 -1.41016e-10 0)
(3 1.18432e-12 0)
(3 1.46498e-12 0)
(3 1.39881e-12 0)
(3 1.0199e-12 0)
(3 3.44211e-13 0)
(3 2.24167e-14 0)
(3 -7.00804e-16 0)
(3 -4.7511e-16 0)
(3 7.70169e-17 0)
(1.6621 1.01673 0)
(1.9219 0.946712 0)
(2.16841 0.803677 0)
(2.36628 0.663434 0)
(2.51188 0.598264 0)
(2.657 0.482728 0)
(2.78812 0.248283 0)
(2.87202 0.0846451 0)
(2.93807 0.0577612 0)
(2.97262 -0.00127794 0)
(3.00981 -0.146699 0)
(3.0401 -0.215244 0)
(3.09359 -0.187132 0)
(3.10235 -0.219189 0)
(3.09684 -0.241308 0)
(3.10932 -0.277736 0)
(3.10159 -0.261869 0)
(3.08334 -0.22698 0)
(3.04686 -0.175985 0)
(3.01515 -0.146297 0)
(2.98614 -0.0966908 0)
(2.96068 -0.0232622 0)
(2.96761 0.0266189 0)
(2.9843 0.0574704 0)
(2.99116 0.0620805 0)
(3.00133 0.0579732 0)
(3.0112 0.045791 0)
(3.01333 0.0208674 0)
(3.01272 -0.0036833 0)
(3.02776 -0.0158858 0)
(3.0379 -0.0220639 0)
(3.05242 -0.0278666 0)
(3.06591 -0.0164947 0)
(3.07393 0.00184232 0)
(3.0765 0.0115875 0)
(3.07279 0.0116612 0)
(3.06742 0.00183141 0)
(3.0589 -0.0126407 0)
(3.03488 -0.0228112 0)
(2.99967 -0.0120946 0)
(2.9758 0.00292261 0)
(2.95935 0.0120619 0)
(2.95291 0.0113874 0)
(2.95967 0.00346644 0)
(2.97248 -0.00452609 0)
(2.9838 -0.00836523 0)
(2.98916 -0.00627565 0)
(2.98758 -0.00290523 0)
(2.98087 -0.00590581 0)
(2.97333 -0.01679 0)
(2.97197 -0.0337647 0)
(2.98341 -0.0501924 0)
(3.00589 -0.0609969 0)
(3.01499 -0.0677493 0)
(2.99625 -0.0637342 0)
(2.98553 -0.0559105 0)
(2.98638 -0.0473761 0)
(2.99205 -0.0378634 0)
(2.99391 -0.0338963 0)
(2.99299 -0.03152 0)
(2.98853 -0.028101 0)
(2.98529 -0.0256445 0)
(2.98735 -0.0244135 0)
(2.98988 -0.0234154 0)
(2.99234 -0.0218465 0)
(2.99531 -0.0202173 0)
(3.0013 -0.0176821 0)
(3.013 -0.0120814 0)
(3.03061 -0.00406174 0)
(3.03991 0.000854708 0)
(3.04038 0.00215034 0)
(3.03999 0.00286523 0)
(3.03898 0.00394107 0)
(3.0371 0.00518902 0)
(3.03355 0.00591485 0)
(3.02578 0.00525602 0)
(3.01229 0.00267684 0)
(3.00194 0.000417177 0)
(3.00004 8.68533e-06 0)
(3 -4.90556e-08 0)
(3 -5.9347e-08 0)
(3 -5.92054e-08 0)
(3 -5.75119e-08 0)
(3 -4.63747e-08 0)
(3 -2.10444e-08 0)
(3 -2.73601e-09 0)
(3 -4.12151e-11 0)
(3 2.01641e-12 0)
(3 2.00088e-12 0)
(3 1.80286e-12 0)
(3 1.11587e-12 0)
(3 2.59842e-13 0)
(3 1.17551e-14 0)
(3 9.18609e-16 0)
(3 8.19656e-16 0)
(3 -8.89761e-16 0)
(1.63419 0.972011 0)
(1.85594 0.903407 0)
(2.03961 0.829599 0)
(2.20066 0.764412 0)
(2.38436 0.662024 0)
(2.56701 0.500972 0)
(2.6637 0.342087 0)
(2.71132 0.30518 0)
(2.75254 0.309998 0)
(2.87072 0.175513 0)
(2.94993 -0.0280755 0)
(2.98425 -0.110076 0)
(3.01747 -0.0928544 0)
(3.04998 -0.148697 0)
(3.08505 -0.260905 0)
(3.09323 -0.325917 0)
(3.11988 -0.317386 0)
(3.10355 -0.258404 0)
(3.09282 -0.242966 0)
(3.07031 -0.223111 0)
(3.04775 -0.169479 0)
(3.02171 -0.0910292 0)
(3.01496 -0.0444807 0)
(3.01979 -0.0114667 0)
(3.02282 0.00333006 0)
(3.02283 0.00571516 0)
(3.01976 0.0129719 0)
(3.01703 0.016414 0)