/*--------------------------------*- C++ -*----------------------------------*\
  =========                 |
  \\      /  F ield         | OpenFOAM: The Open Source CFD Toolbox
   \\    /   O peration     | Website:  https://openfoam.org
    \\  /    A nd           | Version:  7
     \\/     M anipulation  |
\*---------------------------------------------------------------------------*/
FoamFile
{
    version     2.0;
    format      ascii;
    class       volScalarField;
    location    "4";
    object      rho;
}
// * * * * * * * * * * * * * * * * * * * * * * * * * * * * * * * * * * * * * //

dimensions      [1 -3 0 0 0 0 0];

internalField   nonuniform List<scalar> 
4032
(
1.40001
1.40001
1.40001
1.40001
1.40001
1.40001
1.40001
1.40001
1.40001
1.40001
1.40001
1.5716
4.37589
5.46544
5.5147
5.59082
5.65756
5.71976
5.77571
5.8257
5.87009
5.90578
5.93211
5.95047
1.40001
1.40001
1.40001
1.40001
1.40001
1.40001
1.40001
1.40001
1.40001
1.40001
1.40001
1.54867
4.30594
5.45111
5.50904
5.58325
5.64859
5.7091
5.76342
5.81162
5.85396
5.88735
5.911
5.92789
1.40001
1.40001
1.40001
1.40001
1.40001
1.40001
1.40001
1.40001
1.40001
1.40001
1.40001
1.49271
4.19497
5.44165
5.49368
5.56661
5.63169
5.69126
5.74432
5.79085
5.8314
5.86301
5.88428
5.89971
1.40001
1.40001
1.40001
1.40001
1.40001
1.40001
1.40001
1.40001
1.40001
1.40001
1.40001
1.40974
4.00766
5.42546
5.47408
5.54055
5.60208
5.65773
5.70796
5.75292
5.79303
5.8238
5.84261
5.85536
1.40001
1.40001
1.40001
1.40001
1.40001
1.40001
1.40001
1.40001
1.40001
1.40001
1.40001
1.40013
3.7276
5.36591
5.42917
5.49227
5.55377
5.60791
5.65557
5.69562
5.72862
5.75442
5.77064
5.78965
1.40001
1.40001
1.40001
1.40001
1.40001
1.40001
1.40001
1.40001
1.40001
1.40001
1.40001
1.4
3.36784
5.28099
5.39003
5.44752
5.505
5.55224
5.59235
5.6261
5.65505
5.67992
5.69161
5.68368
1.40001
1.40001
1.40001
1.40001
1.40001
1.40001
1.40001
1.40001
1.40001
1.40001
1.40001
1.4
2.94739
5.16103
5.36263
5.41113
5.45727
5.49095
5.51587
5.53404
5.54125
5.53083
5.51584
5.51003
1.40001
1.40001
1.40001
1.40001
1.40001
1.40001
1.40001
1.40001
1.40001
1.40001
1.40001
1.40001
2.47254
4.99814
5.37153
5.39443
5.42072
5.43616
5.44008
5.4359
5.41771
5.38862
5.33679
5.31108
1.40001
1.40001
1.40001
1.40001
1.40001
1.40001
1.40001
1.40001
1.40001
1.40001
1.40001
1.40001
1.95612
4.75688
5.40417
5.37762
5.38866
5.38509
5.36672
5.3354
5.2751
5.17215
4.8587
3.99822
1.40001
1.40001
1.40001
1.40001
1.40001
1.40001
1.40001
1.40001
1.40001
1.40001
1.40001
1.40001
1.48856
4.31039
5.41764
5.36285
5.34271
5.31625
5.27681
5.21608
5.11391
4.92493
4.59554
3.70418
1.40001
1.40001
1.40001
1.40001
1.40001
1.40001
1.40001
1.40001
1.40001
1.40001
1.40001
1.40001
1.40096
3.58993
5.17808
5.24188
5.25428
5.22639
5.17762
5.09328
4.96253
4.72951
4.38564
3.5564
1.40001
1.40001
1.40001
1.40001
1.40001
1.40001
1.40001
1.40001
1.40001
1.40001
1.40001
1.40001
1.39999
2.7694
4.98219
5.20156
5.20018
5.16732
5.10582
4.99828
4.83911
4.59418
4.21588
3.53814
1.40001
1.40001
1.40001
1.40001
1.40001
1.40001
1.40001
1.40001
1.40001
1.40001
1.40001
1.40001
1.4
1.95594
4.71666
5.21412
5.157
5.09681
5.02036
4.90149
4.72749
4.48607
4.09941
3.5641
1.40001
1.40001
1.40001
1.40001
1.40001
1.40001
1.40001
1.40001
1.40001
1.40001
1.40001
1.40001
1.4
1.46644
3.97663
5.09851
5.07087
5.01884
4.93842
4.81668
4.64579
4.39973
4.04205
3.61653
1.40001
1.40001
1.40001
1.40001
1.40001
1.40001
1.40001
1.40001
1.40001
1.40001
1.40001
1.40001
1.4
1.40022
2.88802
4.92234
5.04078
4.98771
4.89687
4.75573
4.58268
4.33108
4.01673
3.66168
1.40001
1.40001
1.40001
1.40001
1.40001
1.40001
1.40001
1.40001
1.40001
1.40001
1.40001
1.40001
1.40001
1.4
1.79355
4.65839
5.10053
4.96829
4.84563
4.69495
4.50887
4.28226
4.01412
3.70906
1.40001
1.40001
1.40001
1.40001
1.40001
1.40001
1.40001
1.40001
1.40001
1.40001
1.40001
1.40001
1.40001
1.4
1.4233
3.72289
4.9454
4.8632
4.76958
4.63243
4.45774
4.25317
4.01565
3.7461
1.40001
1.40001
1.40001
1.40001
1.40001
1.40001
1.40001
1.40001
1.40001
1.40001
1.40001
1.40001
1.40001
1.4
1.39993
2.42974
4.7534
4.84447
4.76489
4.6303
4.4571
4.25458
4.02544
3.7816
1.40001
1.40001
1.40001
1.40001
1.40001
1.40001
1.40001
1.40001
1.40001
1.40001
1.40001
1.40001
1.40001
1.40001
1.39999
1.56464
3.9874
4.85222
4.75492
4.61735
4.44814
4.25552
4.04095
3.81903
1.40001
1.40001
1.40001
1.40001
1.40001
1.40001
1.40001
1.40001
1.40001
1.40001
1.40001
1.40001
1.40001
1.40001
1.4
1.40282
2.66263
4.66031
4.72718
4.59878
4.44225
4.26146
4.06453
3.86039
1.40001
1.40001
1.40001
1.40001
1.40001
1.40001
1.40001
1.40001
1.40001
1.40001
1.40001
1.40001
1.40001
1.40001
1.4
1.4
1.63879
3.98199
4.76044
4.61373
4.46077
4.28197
4.09453
3.90078
1.40001
1.40001
1.40001
1.40001
1.40001
1.40001
1.40001
1.40001
1.40001
1.40001
1.40001
1.40001
1.40001
1.40001
1.40001
1.4
1.40663
2.59007
4.56
4.61408
4.46689
4.29556
4.11734
3.93431
1.40001
1.40001
1.40001
1.40001
1.40001
1.40001
1.40001
1.40001
1.40001
1.40001
1.40001
1.40001
1.40001
1.40001
1.40001
1.40001
1.40003
1.60544
3.77672
4.66941
4.4993
4.33359
4.16137
3.985
1.40001
1.40001
1.40001
1.40001
1.40001
1.40001
1.40001
1.40001
1.40001
1.40001
1.40001
1.40001
1.40001
1.40001
1.40001
1.40001
1.40001
1.40513
2.31171
4.33071
4.51612
4.37023
4.20711
4.0354
1.40001
1.40001
1.40001
1.40001
1.40001
1.40001
1.40001
1.40001
1.40001
1.40001
1.40001
1.40001
1.40001
1.40001
1.40001
1.40001
1.40001
1.40003
1.51224
3.28571
4.52561
4.43451
4.27555
4.10543
1.40001
1.40001
1.40001
1.40001
1.40001
1.40001
1.40001
1.40001
1.40001
1.40001
1.40001
1.40001
1.40001
1.40001
1.40001
1.40001
1.40001
1.40001
1.40193
1.93383
3.97998
4.47594
4.32356
4.15727
1.40001
1.40001
1.40001
1.40001
1.40001
1.40001
1.40001
1.40001
1.40001
1.40001
1.40001
1.40001
1.40001
1.40001
1.40001
1.40001
1.40001
1.40001
1.40001
1.43659
2.62193
4.26333
4.36213
4.22216
1.40001
1.40001
1.40001
1.40001
1.40001
1.40001
1.40001
1.40001
1.40001
1.40001
1.40001
1.40001
1.40001
1.40001
1.40001
1.40001
1.40001
1.40001
1.40001
1.40045
1.60343
3.33482
4.3397
4.29528
1.40001
1.40001
1.40001
1.40001
1.40001
1.40001
1.40001
1.40001
1.40001
1.40001
1.40001
1.40001
1.40001
1.40001
1.40001
1.40001
1.40001
1.40001
1.40001
1.40001
1.40616
1.97619
3.80001
4.30667
1.40001
1.40001
1.40001
1.40001
1.40001
1.40001
1.40001
1.40001
1.40001
1.40001
1.40001
1.40001
1.40001
1.40001
1.40001
1.40001
1.40001
1.40001
1.40001
1.40001
1.40005
1.44339
2.45482
4.04069
1.40001
1.40001
1.40001
1.40001
1.40001
1.40001
1.40001
1.40001
1.40001
1.40001
1.40001
1.40001
1.40001
1.40001
1.40001
1.40001
1.40001
1.40001
1.40001
1.40001
1.40001
1.40065
1.5496
2.93497
1.40001
1.40001
1.40001
1.40001
1.40001
1.40001
1.40001
1.40001
1.40001
1.40001
1.40001
1.40001
1.40001
1.40001
1.40001
1.40001
1.40001
1.40001
1.40001
1.40001
1.40001
1.40001
1.404
1.74375
1.40001
1.40001
1.40001
1.40001
1.40001
1.40001
1.40001
1.40001
1.40001
1.40001
1.40001
1.40001
1.40001
1.40001
1.40001
1.40001
1.40001
1.40001
1.40001
1.40001
1.40001
1.40001
1.40003
1.41813
1.40001
1.40001
1.40001
1.40001
1.40001
1.40001
1.40001
1.40001
1.40001
1.40001
1.40001
1.40001
1.40001
1.40001
1.40001
1.40001
1.40001
1.40001
1.40001
1.40001
1.40001
1.40001
1.40001
1.40021
1.40001
1.40001
1.40001
1.40001
1.40001
1.40001
1.40001
1.40001
1.40001
1.40001
1.40001
1.40001
1.40001
1.40001
1.40001
1.40001
1.40001
1.40001
1.40001
1.40001
1.40001
1.40001
1.40001
1.40001
1.40001
1.40001
1.40001
1.40001
1.40001
1.40001
1.40001
1.40001
1.40001
1.40001
1.40001
1.40001
1.40001
1.40001
1.40001
1.40001
1.40001
1.40001
1.40001
1.40001
1.40001
1.40001
1.40001
1.40001
1.40001
1.40001
1.40001
1.40001
1.40001
1.40001
1.40001
1.40001
1.40001
1.40001
1.40001
1.40001
1.40001
1.40001
1.40001
1.40001
1.40001
1.40001
1.40001
1.40001
1.40001
1.40001
1.40001
1.40001
1.40001
1.40001
1.40001
1.40001
1.40001
1.40001
1.40001
1.40001
1.40001
1.40001
1.40001
1.40001
1.40001
1.40001
1.40001
1.40001
1.40001
1.40001
1.40001
1.40001
1.40001
1.40001
1.40001
1.40001
1.40001
1.40001
1.40001
1.40001
1.40001
1.40001
1.40001
1.40001
1.40001
1.40001
1.40001
1.40001
1.40001
1.40001
1.40001
1.40001
1.40001
1.40001
1.40001
1.40001
1.40001
1.40001
1.40001
1.40001
1.40001
1.40001
1.40001
1.40001
1.40001
1.40001
1.40001
1.40001
1.40001
1.40001
1.40001
1.40001
1.40001
1.40001
1.40001
1.40001
1.40001
1.40001
1.40001
1.40001
1.40001
1.40001
1.40001
1.40001
1.2826
0.565546
0.269071
0.185825
0.202411
0.264734
0.381248
0.507486
0.625537
0.684731
0.727086
0.791009
0.907368
1.01274
1.02953
1.02379
0.998988
0.99519
1.0008
1.02944
1.08446
1.10143
1.0998
1.07702
1.06295
1.06728
1.08422
1.9108
2.79339
2.87487
2.90673
2.92842
2.9442
2.95521
2.95736
2.95102
2.93625
2.91976
2.90796
2.90007
2.89282
2.88234
2.86225
2.83283
2.80226
2.77971
2.76842
2.76695
2.76158
2.72824
2.68137
2.6373
2.60476
2.5876
2.58753
2.58563
2.56072
2.52505
2.48301
2.44541
2.41702
2.40024
2.3918
2.37175
2.34295
2.31219
2.28046
2.25372
2.23119
2.21278
2.19532
2.1736
2.15031
2.12446
2.09648
2.07037
2.04892
2.03059
2.0163
2.00088
1.98119
1.95666
1.92563
1.89457
1.87033
1.8527
1.83842
1.8274
1.81488
1.79797
1.77105
1.73493
1.7057
1.68728
1.67612
1.65521
2.00343
1.24114
0.893456
0.684482
0.555093
0.54338
0.576892
0.58214
0.582783
0.599763
0.631728
0.681026
0.759436
0.876378
0.94593
0.961182
0.973369
0.9869
1.00531
1.042
1.08641
1.1009
1.10454
1.10424
1.09772
1.09295
1.09027
1.81941
2.80284
2.96586
2.99553
2.9995
2.98731
2.97486
2.96894
2.97382
2.97947
2.96652
2.93615
2.90628
2.88513
2.87736
2.878
2.8731
2.84722
2.81023
2.77688
2.75346
2.74593
2.73981
2.71728
2.6809
2.64044
2.60636
2.57877
2.56054
2.55042
2.53597
2.51159
2.48084
2.44714
2.41511
2.38682
2.36371
2.34623
2.32461
2.29905
2.2704
2.23968
2.21336
2.19244
2.17576
2.15975
2.13919
2.1155
2.08729
2.05686
2.03076
2.01062
1.99372
1.97968
1.96105
1.93949
1.91502
1.88787
1.86191
1.84086
1.8236
1.80783
1.79311
1.77382
1.74894
1.72311
1.69759
1.67923
1.6539
2.50323
1.81188
1.40115
1.14873
0.93948
0.801498
0.745984
0.72491
0.694823
0.680543
0.693027
0.715685
0.730053
0.770293
0.857061
0.921116
0.966775
1.01873
1.05915
1.10233
1.12792
1.13247
1.13711
1.15037
1.16517
1.16519
1.15656
1.69365
2.94737
3.16815
3.12053
3.13447
3.12976
3.10062
3.07139
3.06092
3.07403
3.09082
3.07525
3.03181
2.98245
2.94594
2.92884
2.93511
2.94471
2.92773
2.88965
2.84512
2.8051
2.77716
2.76452
2.75496
2.73433
2.70072
2.65221
2.59912
2.56672
2.54885
2.5436
2.53696
2.51595
2.48516
2.44256
2.3992
2.3703
2.34819
2.33125
2.31048
2.28519
2.25218
2.21423
2.18779
2.17013
2.1586
2.14577
2.12664
2.10108
2.06488
2.02358
1.99275
1.97276
1.95931
1.9517
1.93924
1.92222
1.8983
1.8654
1.83199
1.80641
1.7856
1.77092
1.75922
1.74558
1.72749
1.70395
1.66344
2.82963
2.26556
1.82802
1.55404
1.35137
1.15235
0.976665
0.93764
0.919231
0.876551
0.829201
0.783163
0.752629
0.754256
0.776658
0.827833
0.890389
0.95454
1.0199
1.07307
1.10432
1.11299
1.12326
1.15262
1.19142
1.21447
1.24697
1.59193
3.13661
3.52741
3.36566
3.29883
3.30484
3.28
3.24716
3.21409
3.19466
3.19203
3.19334
3.17151
3.1328
3.08158
3.04386
3.0226
3.0182
3.01736
2.99797
2.96782
2.92451
2.87647
2.84672
2.82569
2.80782
2.78133
2.74855
2.70613
2.65948
2.63001
2.61139
2.59759
2.57665
2.54961
2.5174
2.47972
2.43923
2.40568
2.38072
2.35833
2.33556
2.3099
2.27823
2.24184
2.21176
2.19263
2.17643
2.1605
2.14099
2.11502
2.07867
2.03677
2.00509
1.98736
1.9734
1.96129
1.94836
1.93165
1.90645
1.8688
1.82895
1.80282
1.78769
1.77543
1.76367
1.75078
1.73476
1.69142
3.0389
2.59265
2.18431
1.86979
1.66528
1.48868
1.3156
1.15072
1.05509
1.0172
0.979045
0.93129
0.86958
0.802415
0.793493
0.804752
0.828498
0.864948
0.914755
0.956892
0.993601
1.03393
1.06909
1.11889
1.15964
1.2293
1.45014
1.76869
2.76283
3.6323
3.62369
3.47796
3.43238
3.4087
3.39705
3.36708
3.32189
3.2925
3.27463
3.273
3.25846
3.22775
3.17866
3.13276
3.10562
3.08849
3.07752
3.05746
3.03055
2.98686
2.93466
2.89957
2.87106
2.84386
2.81817
2.79099
2.75612
2.71615
2.68659
2.66146
2.63496
2.60793
2.58189
2.5541
2.51984
2.47973
2.44325
2.41386
2.38797
2.36358
2.33852
2.30969
2.27741
2.24723
2.22167
2.19793
2.17396
2.14912
2.12281
2.09452
2.06502
2.0375
2.01526
1.99633
1.97751
1.95677
1.93227
1.90356
1.87446
1.84919
1.82732
1.8091
1.79186
1.77443
1.75647
1.71831
3.20033
2.82012
2.46755
2.16844
1.90976
1.71365
1.57842
1.44021
1.27917
1.15326
1.11569
1.09084
1.04562
0.97691
0.903507
0.863346
0.856272
0.866792
0.872672
0.877112
0.886999
0.907636
0.950159
1.00848
1.08814
1.30905
1.75009
1.9877
2.23878
2.99829
3.53214
3.55032
3.53242
3.51862
3.4914
3.45459
3.38188
3.33101
3.30958
3.30973
3.31809
3.2968
3.25776
3.19457
3.14771
3.1239
3.11246
3.10336
3.0816
3.04757
2.99223
2.94443
2.91624
2.89524
2.87536
2.8511
2.82204
2.7795
2.73407
2.70206
2.67705
2.65454
2.63236
2.60776
2.57572
2.53095
2.48626
2.45653
2.43324
2.41139
2.38929
2.36406
2.33093
2.29186
2.25878
2.23259
2.20879
2.18668
2.1668
2.14637
2.12019
2.0861
2.05402
2.02924
2.0068
1.98394
1.96137
1.94083
1.92107
1.89822
1.87115
1.84472
1.82089
1.79734
1.77584
1.74195
3.31559
2.9794
2.65888
2.40177
2.16193
1.91635
1.74728
1.63904
1.51866
1.38962
1.25721
1.18206
1.15007
1.11206
1.06285
1.00557
0.94199
0.898519
0.883956
0.883377
0.890591
0.906186
0.909807
0.935977
1.12363
1.48691
1.8488
2.00567
2.03178
2.22054
2.88831
3.39839
3.51639
3.5736
3.55167
3.49851
3.42003
3.34317
3.31539
3.30588
3.31376
3.30433
3.27608
3.23286
3.17833
3.14665
3.13048
3.11837
3.09397
3.0647
3.023
2.97673
2.94634
2.92567
2.90387
2.87777
2.8481
2.80881
2.76028
2.72487
2.70167
2.68015
2.65774
2.6327
2.60067
2.55688
2.51187
2.48403
2.46286
2.44217
2.421
2.39634
2.36111
2.31507
2.2759
2.25138
2.23312
2.21669
2.20058
2.18289
2.15792
2.11797
2.07356
2.04314
2.02167
2.00355
1.98852
1.97493
1.95921
1.93782
1.90491
1.86647
1.8362
1.81186
1.79403
1.76698
3.40654
3.11084
2.81714
2.56394
2.34435
2.12868
1.94678
1.7796
1.65729
1.56799
1.46717
1.35089
1.23828
1.20108
1.18486
1.15032
1.09318
1.00995
0.957983
0.942787
0.930348
0.928152
0.956619
1.10867
1.38969
1.64925
1.79317
1.86068
1.8635
1.87827
2.04969
2.67926
3.25093
3.49738
3.54653
3.51035
3.45223
3.37052
3.31333
3.28715
3.27583
3.2785
3.27369
3.24936
3.21307
3.16342
3.12615
3.1004
3.07834
3.05825
3.03336
3.00241
2.96554
2.93125
2.90265
2.87486
2.8465
2.81484
2.77432
2.73391
2.70584
2.68367
2.66098
2.63589
2.60653
2.57033
2.52919
2.49662
2.47632
2.45625
2.43274
2.40538
2.37178
2.33007
2.2913
2.26824
2.25265
2.24084
2.22653
2.20547
2.17522
2.13192
2.08653
2.05398
2.03415
2.02026
2.00882
1.99847
1.98671
1.96403
1.92291
1.87605
1.84504
1.82453
1.81043
1.78641
3.47879
3.21095
2.94554
2.711
2.48866
2.28229
2.11838
1.95947
1.79396
1.67424
1.6058
1.52021
1.41422
1.31171
1.25296
1.23256
1.20283
1.15005
1.07949
1.02154
0.989965
1.00649
1.15291
1.45435
1.6751
1.77704
1.78241
1.77513
1.77489
1.7785
1.78591
1.89981
2.41813
3.06165
3.39035
3.4736
3.46078
3.41478
3.34486
3.27921
3.25275
3.23934
3.24445
3.24629
3.22484
3.18413
3.12523
3.08606
3.06316
3.04487
3.03003
3.00668
2.97336
2.93052
2.89348
2.8651
2.83896
2.81118
2.77872
2.73873
2.70176
2.67515
2.65363
2.63203
2.60903
2.58185
2.54619
2.50404
2.46849
2.44369
2.42138
2.39833
2.37407
2.34815
2.31946
2.28912
2.26392
2.24056
2.21515
2.18883
2.15971
2.12965
2.09955
2.07414
2.05552
2.04165
2.02998
2.01237
1.9843
1.95027
1.91463
1.88001
1.85542
1.83863
1.82622
1.80131
3.53994
3.29247
3.05446
2.83698
2.62355
2.42049
2.2546
2.10828
1.9571
1.82211
1.71035
1.62293
1.55364
1.47891
1.38934
1.30047
1.26746
1.24137
1.19568
1.13917
1.15833
1.31748
1.63284
1.83017
1.86434
1.83971
1.81313
1.80604
1.81396
1.8222
1.82078
1.80135
1.8366
2.14269
2.76594
3.19675
3.39119
3.42661
3.38399
3.31467
3.24149
3.22235
3.21663
3.22736
3.21838
3.1913
3.13812
3.08022
3.05212
3.03213
3.02026
3.00097
2.97314
2.9322
2.88542
2.85496
2.83158
2.80792
2.7817
2.74715
2.70427
2.66752
2.64296
2.62376
2.60658
2.58705
2.55986
2.5154
2.46583
2.43509
2.41503
2.39697
2.37999
2.36217
2.33917
2.30375
2.26006
2.22579
2.20001
2.17558
2.14963
2.12732
2.11068
2.0946
2.07746
2.0568
2.02791
1.99805
1.96658
1.93483
1.90501
1.88146
1.86418
1.85022
1.83964
1.8163
3.59371
3.36392
3.14809
2.94077
2.73508
2.55111
2.3853
2.22747
2.08314
1.96833
1.85529
1.73125
1.63536
1.58935
1.52874
1.43458
1.34233
1.30054
1.27665
1.31169
1.49047
1.82786
2.04366
2.03705
1.99007
1.92892
1.90823
1.90773
1.90464
1.88743
1.87045
1.84912
1.82285
1.82122
1.95531
2.42362
2.97301
3.29609
3.37535
3.35813
3.27354
3.22615
3.2079
3.21312
3.2135
3.19238
3.15271
3.09072
3.05166
3.02916
3.01541
2.99935
2.97505
2.94136
2.89127
2.84941
2.82495
2.80403
2.78234
2.75539
2.71695
2.67209
2.63919
2.61882
2.60246
2.5858
2.56428
2.52724
2.47343
2.43371
2.41253
2.39668
2.38537
2.36932
2.34623
2.3081
2.25493
2.21203
2.18685
2.16736
2.15165
2.13904
2.12491
2.10649
2.08086
2.04481
2.00953
1.97954
1.95326
1.92664
1.90545
1.89071
1.879
1.86814
1.85546
1.82162
3.64549
3.43314
3.23357
3.03368
2.83601
2.6672
2.50673
2.34869
2.20165
2.08408
1.97653
1.86804
1.76212
1.67308
1.60795
1.53832
1.46268
1.40968
1.46114
1.66584
1.97584
2.21177
2.21452
2.1707
2.1142
2.05172
2.02218
2.01094
1.99739
1.97707
1.95872
1.93708
1.8995
1.84369
1.83518
1.87766
2.14819
2.67892
3.12844
3.29684
3.30896
3.25499
3.23478
3.22251
3.21716
3.19677
3.16279
3.10728
3.06183
3.03806
3.02335
3.00631
2.98337
2.95555
2.91466
2.86323
2.82399
2.79944
2.77823
2.75703
2.73308
2.70277
2.66534
2.62564
2.59577
2.57515
2.55606
2.53103
2.49388
2.45296
2.41884
2.396
2.37757
2.35917
2.338
2.30586
2.25403
2.20525
2.18132
2.16808
2.161
2.15443
2.13989
2.11623
2.0745
2.02637
1.99265
1.96848
1.94749
1.93252
1.92
1.90543
1.88853
1.86794
1.84414
1.80993
3.6966
3.49827
3.30911
3.11533
2.93302
2.77102
2.61207
2.45305
2.32165
2.19862
2.07853
1.96572
1.87849
1.78723
1.6837
1.61504
1.59215
1.68014
1.95676
2.19135
2.35368
2.36853
2.33064
2.29217
2.25041
2.1911
2.14017
2.12013
2.10379
2.08376
2.06016
2.0319
1.99164
1.93638
1.88311
1.8605
1.87207
1.98631
2.36152
2.85968
3.17506
3.22531
3.2642
3.25224
3.23548
3.20744
3.17212
3.1293
3.08657
3.0605
3.04065
3.01873
2.99605
2.97187
2.94234
2.90117
2.85028
2.80678
2.78006
2.7605
2.74311
2.72477
2.69881
2.65761
2.61015
2.57195
2.54347
2.52025
2.49906
2.47333
2.43836
2.40139
2.37172
2.34763
2.3244
2.2983
2.26452
2.22572
2.19264
2.17555
2.16271
2.14766
2.12909
2.10296
2.05954
2.0107
1.98104
1.96552
1.95474
1.94765
1.93632
1.91964
1.89648
1.86284
1.83426
1.80329
3.74606
3.56253
3.37966
3.19538
3.02783
2.86837
2.7071
2.55424
2.4287
2.30376
2.18492
2.06339
1.96673
1.87525
1.78312
1.78831
1.90483
2.2449
2.51827
2.54869
2.51345
2.45916
2.42668
2.40572
2.37542
2.32863
2.26511
2.22777
2.20589
2.18073
2.15053
2.12089
2.08645
2.03382
1.97932
1.93957
1.91331
1.90533
1.93766
2.11894
2.52944
2.92884
3.15943
3.21491
3.2497
3.2297
3.19424
3.16639
3.13171
3.10161
3.06445
3.03017
3.00532
2.98243
2.95909
2.93149
2.89179
2.83816
2.79244
2.76724
2.74911
2.73179
2.71297
2.68587
2.6403
2.58153
2.53983
2.5174
2.49893
2.47967
2.45417
2.4166
2.37398
2.33957
2.31287
2.29041
2.27259
2.25247
2.22337
2.1897
2.16241
2.14096
2.11948
2.09212
2.04941
2.00032
1.97939
1.9699
1.96515
1.95993
1.94737
1.92991
1.89709
1.84528
1.82188
1.8029
3.80648
3.63047
3.45079
3.27535
3.11544
2.95791
2.79493
2.65491
2.52562
2.40144
2.27331
2.15661
2.06106
1.97132
2.00684
2.20606
2.50082
2.78153
2.81496
2.74992
2.63814
2.56588
2.54362
2.52451
2.49416
2.45229
2.38949
2.33284
2.30284
2.27595
2.24606
2.21237
2.175
2.129
2.07122
2.02397
1.99428
1.96084
1.93655
1.93864
1.98634
2.20599
2.60475
2.95098
3.13903
3.20071
3.22294
3.20401
3.18098
3.14712
3.09175
3.03745
3.0096
2.99069
2.97049
2.94719
2.91851
2.87625
2.82198
2.78004
2.75458
2.73473
2.71541
2.69266
2.65827
2.60559
2.55447
2.52401
2.50334
2.48376
2.46126
2.42947
2.38295
2.33639
2.31137
2.2971
2.28396
2.2681
2.24528
2.20891
2.16836
2.13636
2.10891
2.07998
2.04454
2.0094
1.98833
1.97816
1.97122
1.96451
1.95291
1.93528
1.89888
1.84417
1.81603
1.79649
3.86344
3.68983
3.51399
3.35033
3.19408
3.03522
2.88136
2.74823
2.6159
2.48725
2.34872
2.25679
2.18557
2.26943
2.5638
2.82989
2.96992
2.99407
2.9358
2.86113
2.77876
2.70843
2.68007
2.64972
2.60817
2.56409
2.50668
2.43971
2.40137
2.36976
2.33724
2.30202
2.26166
2.21315
2.15968
2.11181
2.07704
2.04803
2.01311
1.98294
1.96377
1.95056
2.01204
2.26021
2.63427
2.98049
3.11872
3.19739
3.22422
3.19141
3.12381
3.04806
3.01384
2.99718
2.97846
2.95631
2.9318
2.89902
2.85175
2.80129
2.76477
2.73882
2.71642
2.69298
2.66376
2.62284
2.57391
2.53587
2.51127
2.49037
2.46807
2.43979
2.39969
2.35252
2.32097
2.30479
2.29053
2.27502
2.25415
2.22012
2.17479
2.13381
2.10166
2.07418
2.05133
2.03046
2.0072
1.98676
1.97396
1.9626
1.94898
1.93021
1.89908
1.85071
1.81469
1.79536
3.93309
3.75976
3.5869
3.42779
3.27181
3.11116
2.97118
2.83392
2.70194
2.56043
2.44921
2.44524
2.59856
2.97305
3.24995
3.23144
3.18753
3.108
3.04046
2.99878
2.94606
2.86908
2.81237
2.771
2.72149
2.67562
2.62726
2.56635
2.50692
2.46422
2.42405
2.38578
2.34659
2.30225
2.25086
2.19866
2.15636
2.12246
2.09168
2.05712
2.01547
1.97848
1.94427
1.94828
2.03208
2.32357
2.68882
3.00719
3.14165
3.16365
3.14497
3.06968
3.02742
3.0098
2.98504
2.96345
2.94163
2.91107
2.86928
2.82237
2.78224
2.75081
2.72404
2.69826
2.66971
2.634
2.5896
2.54737
2.51853
2.49703
2.47598
2.45182
2.42142
2.38317
2.34382
2.31407
2.29224
2.27203
2.24935
2.21932
2.17512
2.12937
2.10347
2.08964
2.07735
2.05974
2.03145
1.99354
1.96615
1.95223
1.93881
1.9223
1.90001
1.86888
1.83381
1.80653
3.9889
3.81685
3.65516
3.50064
3.34193
3.18654
3.05181
2.90899
2.78184
2.65653
2.71894
2.9931
3.33135
3.58166
3.56238
3.42308
3.30075
3.23597
3.19708
3.16629
3.10866
3.02278
2.92918
2.87958
2.83561
2.79071
2.74507
2.6908
2.62199
2.5581
2.5094
2.46643
2.42671
2.38746
2.3439
2.29256
2.23865
2.19293
2.15619
2.12197
2.08507
2.04303
1.99796
1.95521
1.93079
1.94987
2.07588
2.3831
2.73186
2.9798
3.06955
3.05499
3.05322
3.02813
2.99439
2.97403
2.95138
2.9176
2.87491
2.83273
2.79764
2.76797
2.73994
2.71075
2.67911
2.64349
2.60205
2.55975
2.52712
2.50445
2.48486
2.46453
2.44096
2.41016
2.37007
2.32964
2.29816
2.27217
2.24565
2.21362
2.16958
2.13153
2.11814
2.10908
2.09981
2.08622
2.05833
2.00613
1.96008
1.93831
1.9251
1.91246
1.90018
1.88678
1.85942
1.86536
4.05564
3.89223
3.73547
3.58469
3.41769
3.27598
3.12496
3.00488
2.92848
3.06005
3.44869
3.71192
3.85314
3.86253
3.73851
3.58647
3.45021
3.37877
3.34222
3.31285
3.25209
3.16827
3.06561
2.99647
2.9548
2.91127
2.86277
2.80668
2.73731
2.6594
2.59675
2.55087
2.5102
2.46982
2.42865
2.38315
2.32982
2.27504
2.22694
2.18453
2.14452
2.10636
2.06499
2.01836
1.97666
1.94122
1.92193
1.94744
2.10085
2.39157
2.73271
2.90167
2.9911
3.02057
3.02047
2.9955
2.96032
2.91846
2.87063
2.83064
2.79894
2.77481
2.75266
2.72588
2.69275
2.65312
2.61075
2.57023
2.53614
2.51043
2.48996
2.47025
2.44955
2.42435
2.38949
2.34648
2.30816
2.27734
2.24788
2.21557
2.17629
2.14499
2.13522
2.13087
2.12005
2.10354
2.07416
2.02624
1.97115
1.9349
1.91939
1.91063
1.90921
1.91583
1.93487
2.07111
4.13359
3.97281
3.82125
3.66192
3.49199
3.35414
3.21922
3.25537
3.48999
3.94708
4.15798
4.0856
4.03684
3.98157
3.87814
3.76375
3.63846
3.54031
3.48406
3.44223
3.38979
3.31641
3.22202
3.13046
3.07107
3.01857
2.96467
2.90606
2.84189
2.7716
2.69875
2.63661
2.58925
2.54596
2.50279
2.45894
2.41109
2.35815
2.30407
2.25279
2.20483
2.16204
2.12227
2.08121
2.03646
1.98734
1.94123
1.92085
1.90905
1.94501
2.10679
2.40156
2.67835
2.90272
2.94836
2.97018
2.96051
2.92312
2.88528
2.83828
2.79565
2.78184
2.76298
2.7365
2.7023
2.66684
2.62821
2.57995
2.54627
2.5303
2.5098
2.48746
2.46375
2.43573
2.39762
2.35092
2.31072
2.28329
2.2597
2.23526
2.20466
2.17141
2.14024
2.11651
2.09809
2.08064
2.06166
2.03397
1.98964
1.942
1.92755
1.92783
1.9472
2.02593
2.15953
2.41205
4.20812
4.04452
3.89381
3.71064
3.58057
3.46858
3.608
3.99903
4.37675
4.6148
4.52988
4.3175
4.15928
4.0874
4.03356
3.94441
3.83127
3.71916
3.63723
3.57765
3.52297
3.45644
3.37269
3.2727
3.18811
3.12278
3.06182
3.00195
2.94155
2.87977
2.8145
2.74495
2.67858
2.62026
2.5682
2.522
2.47759
2.42962
2.3766
2.32198
2.26839
2.21647
2.1678
2.12406
2.08534
2.04393
1.9982
1.95183
1.91436
1.89223
1.87855
1.9282
2.08729
2.40074
2.66568
2.84223
2.91578
2.93197
2.9191
2.8674
2.80274
2.75611
2.72901
2.70995
2.69419
2.67512
2.6458
2.60505
2.55934
2.51544
2.48895
2.46734
2.44461
2.41824
2.38352
2.34567
2.32249
2.3071
2.29038
2.26599
2.23832
2.19758
2.14366
2.10696
2.08715
2.07019
2.05393
2.03561
2.01377
1.97789
1.98104
2.02159
2.1467
2.36379
2.51248
2.64753
4.25589
4.1243
3.94759
3.77843
3.7776
4.06668
4.60279
4.83266
4.88074
4.84671
4.70524
4.50889
4.3428
4.2702
4.21904
4.12366
4.01191
3.90493
3.81094
3.73189
3.65858
3.58397
3.50145
3.40708
3.31514
3.23887
3.1706
3.10553
3.0408
2.97505
2.90984
2.84285
2.77409
2.70671
2.64118
2.5818
2.53179
2.4854
2.43577
2.38367
2.3323
2.27891
2.22119
2.16229
2.10947
2.07187
2.03716
1.99703
1.95522
1.91286
1.88157
1.84461
1.82922
1.8917
2.0912
2.38222
2.6311
2.8245
2.86004
2.85224
2.80962
2.74163
2.71105
2.70188
2.69182
2.67439
2.64976
2.61564
2.56241
2.50707
2.48068
2.46331
2.44483
2.42137
2.39258
2.35757
2.30674
2.27391
2.26345
2.25943
2.24588
2.2133
2.16491
2.11775
2.07546
2.05136
2.04209
2.03959
2.05249
2.09793
2.21854
2.3938
2.57389
2.6868
2.75571
2.79283
4.17916
4.16219
4.00632
4.11694
4.63714
5.24301
5.416
5.25057
5.12075
4.99307
4.85915
4.70857
4.56923
4.48519
4.41124
4.30563
4.1837
4.07261
3.97723
3.88999
3.80141
3.70884
3.61593
3.52482
3.43755
3.35883
3.28509
3.21137
3.13676
3.0606
2.9873
2.9204
2.85651
2.79127
2.72234
2.64952
2.57918
2.52163
2.47276
2.42298
2.37514
2.33059
2.27854
2.2151
2.14584
2.08366
2.04052
2.01493
1.98673
1.95278
1.91159
1.86143
1.82184
1.77489
1.77806
1.86032
2.08965
2.40931
2.6261
2.73356
2.73682
2.70554
2.67675
2.66611
2.66218
2.65296
2.6368
2.61163
2.56557
2.50126
2.4519
2.4333
2.4183
2.40292
2.3855
2.35664
2.31362
2.26934
2.24617
2.23149
2.21412
2.19681
2.17493
2.1376
2.08544
2.06106
2.06331
2.09931
2.22703
2.43425
2.62639
2.77341
2.86625
2.88332
2.88131
2.8605
3.4282
3.93095
4.38859
5.26458
5.76672
5.89565
5.71008
5.45603
5.28649
5.16036
5.04483
4.9108
4.77567
4.67665
4.58304
4.46968
4.34611
4.22989
4.12654
4.03402
3.9419
3.84294
3.74052
3.64221
3.55118
3.46642
3.38604
3.30658
3.22725
3.14448
3.05839
2.98283
2.91949
2.85827
2.79201
2.71898
2.64008
2.56181
2.49927
2.45528
2.41647
2.37411
2.32096
2.25604
2.18661
2.11138
2.05133
2.01526
1.98448
1.94588
1.90372
1.85961
1.8154
1.77125
1.74094
1.71246
1.73347
1.85109
2.10467
2.3804
2.60635
2.6355
2.63409
2.62501
2.60084
2.57858
2.56027
2.53684
2.50496
2.4667
2.42308
2.39627
2.38544
2.37693
2.36709
2.3525
2.32464
2.27305
2.21829
2.19043
2.17162
2.15679
2.14296
2.13794
2.13188
2.15597
2.24714
2.43604
2.66153
2.81665
2.92189
2.97282
2.97121
2.9398
2.90561
2.87144
2.03821
3.44071
5.74973
6.29774
6.17113
6.02658
5.81648
5.61678
5.45556
5.34106
5.22733
5.09441
4.94423
4.8316
4.73326
4.61559
4.48603
4.3655
4.25336
4.14893
4.05333
3.95649
3.8534
3.74443
3.63891
3.54675
3.46571
3.38639
3.30297
3.22008
3.13159
3.03748
2.95513
2.88541
2.82097
2.75452
2.68209
2.60633
2.53293
2.46059
2.39067
2.33695
2.29908
2.26667
2.21947
2.14608
2.06571
2.01071
1.98958
1.96632
1.92967
1.88572
1.83097
1.77099
1.72562
1.69082
1.65915
1.65627
1.70036
1.8404
2.11379
2.33815
2.52049
2.56461
2.56019
2.54006
2.51469
2.48858
2.46154
2.43435
2.40017
2.35933
2.33795
2.32845
2.31958
2.30728
2.28907
2.25425
2.19949
2.15803
2.14149
2.1417
2.14681
2.18714
2.30208
2.50656
2.71838
2.88987
2.98402
3.02111
3.02188
3.00239
2.96694
2.92888
2.90291
2.87561
1.45499
3.57981
6.48048
6.38706
6.09473
5.9368
5.79377
5.66219
5.53391
5.42353
5.30572
5.16847
5.03609
4.93529
4.8493
4.73903
4.6094
4.48506
4.36857
4.25854
4.16003
4.06384
3.96029
3.84736
3.73396
3.63403
3.54997
3.47068
3.38105
3.27075
3.17702
3.10006
3.01685
2.93992
2.86921
2.7973
2.72101
2.64194
2.5615
2.48277
2.40883
2.33744
2.2724
2.2145
2.1711
2.14041
2.09698
2.03947
1.97281
1.91636
1.87377
1.83669
1.8136
1.78966
1.74801
1.68744
1.63382
1.59591
1.57594
1.5853
1.65683
1.83544
2.09969
2.31257
2.43879
2.46017
2.44998
2.43877
2.4281
2.40918
2.37658
2.32329
2.28025
2.26464
2.25532
2.24513
2.231
2.2126
2.18309
2.15071
2.14803
2.16875
2.27009
2.49089
2.75083
2.92575
3.02961
3.08769
3.08563
3.07312
3.03787
2.98863
2.9447
2.91603
2.90812
2.89456
1.40176
3.68021
5.94477
5.83715
5.68597
5.63704
5.57976
5.51316
5.44509
5.37295
5.28504
5.16367
5.03802
4.93602
4.84778
4.73922
4.60491
4.46511
4.34356
4.2311
4.12725
4.0294
3.92599
3.8142
3.7
3.5909
3.49165
3.40632
3.33195
3.25881
3.17209
3.06958
2.96483
2.87048
2.79032
2.71902
2.65035
2.57999
2.50574
2.43178
2.36302
2.29935
2.24315
2.19456
2.14807
2.09894
2.04912
1.99772
1.9405
1.88446
1.84816
1.82209
1.79318
1.75588
1.70985
1.65893
1.61185
1.5724
1.54651
1.5311
1.52849
1.55336
1.64803
1.851
2.11622
2.23492
2.28708
2.32361
2.33331
2.32596
2.3022
2.27163
2.2395
2.20474
2.18044
2.1671
2.15717
2.16212
2.1665
2.18948
2.2882
2.47422
2.72699
2.931
3.03982
3.07999
3.11042
3.10997
3.09052
3.04608
2.99852
2.96502
2.94869
2.94115
2.93718
2.91591
1.40003
3.84637
5.55811
5.56401
5.46798
5.4395
5.39936
5.35702
5.30835
5.24401
5.14435
5.02118
4.91303
4.82144
4.7393
4.64785
4.52707
4.3916
4.28562
4.19375
4.09281
3.99292
3.89117
3.78361
3.67446
3.56869
3.4689
3.37594
3.29053
3.20964
3.12383
3.02869
2.93
2.8373
2.75529
2.68154
2.61128
2.54113
2.4686
2.39562
2.32725
2.26644
2.21296
2.16316
2.11477
2.06529
2.01392
1.96418
1.92153
1.88378
1.84264
1.79795
1.7525
1.71115
1.67129
1.63583
1.60665
1.58308
1.55473
1.51735
1.48452
1.4573
1.45841
1.49459
1.62222
1.84402
2.06475
2.17391
2.20501
2.22852
2.22018
2.20358
2.18268
2.1431
2.10735
2.10496
2.11728
2.14201
2.24158
2.44337
2.71789
2.91367
3.05326
3.08062
3.0823
3.09539
3.08539
3.06213
3.02799
2.98304
2.95258
2.93946
2.92967
2.92278
2.91638
2.88991
1.40001
3.91191
5.43571
5.44626
5.3709
5.33025
5.26953
5.21078
5.15064
5.07785
4.9855
4.88941
4.80487
4.72657
4.64462
4.54353
4.41903
4.29144
4.18494
4.09529
4.00001
3.90336
3.80524
3.70054
3.59369
3.49346
3.40066
3.3116
3.22493
3.1399
3.05248
2.961
2.86854
2.78017
2.69847
2.62373
2.55434
2.48833
2.42366
2.36029
2.29832
2.2372
2.17797
2.12267
2.07295
2.02822
1.98939
1.95421
1.91664
1.87306
1.81953
1.7583
1.70418
1.67036
1.6519
1.6381
1.62025
1.59092