/*--------------------------------*- C++ -*----------------------------------*\
  =========                 |
  \\      /  F ield         | OpenFOAM: The Open Source CFD Toolbox
   \\    /   O peration     | Website:  https://openfoam.org
    \\  /    A nd           | Version:  7
     \\/     M anipulation  |
\*---------------------------------------------------------------------------*/
FoamFile
{
    version     2.0;
    format      ascii;
    class       volScalarField;
    location    "4";
    object      T;
}
// * * * * * * * * * * * * * * * * * * * * * * * * * * * * * * * * * * * * * //

dimensions      [0 0 0 1 0 0 0];

internalField   nonuniform List<scalar> 
4032
(
1
1
1
1
1
1
1
1
1
1
1
1.16109
2.40673
2.71775
2.72748
2.74239
2.7559
2.76915
2.78139
2.79193
2.80051
2.80695
2.81166
2.81501
1
1
1
1
1
1
1
1
1
1
1
1.14303
2.39174
2.71626
2.72654
2.74082
2.75413
2.76713
2.77908
2.78925
2.79739
2.80338
2.80757
2.81065
1
1
1
1
1
1
1
1
1
1
1
1.08815
2.35219
2.71263
2.72308
2.73761
2.75104
2.76392
2.77563
2.78542
2.79315
2.79877
2.80254
2.80537
1
1
1
1
1
1
1
1
1
1
1
1.00581
2.28486
2.70452
2.71809
2.73279
2.74583
2.7579
2.76897
2.7784
2.786
2.7914
2.79467
2.79694
1
1
1
1
1
1
1
1
1
1
1
1.00004
2.20095
2.68969
2.70848
2.72336
2.73673
2.74856
2.75914
2.7677
2.77391
2.77801
2.78009
2.78295
1
1
1
1
1
1
1
1
1
1
1
1
2.08399
2.67011
2.69935
2.71315
2.7262
2.73722
2.74682
2.75462
2.76031
2.76336
2.76194
2.75651
1
1
1
1
1
1
1
1
1
1
1
1
1.92338
2.6327
2.6832
2.69872
2.71226
2.72266
2.73075
2.73618
2.73782
2.73421
2.72623
2.71925
1
1
1
1
1
1
1
1
1
1
1
1
1.70237
2.55953
2.65595
2.67916
2.69501
2.70575
2.71227
2.71446
2.71196
2.7068
2.70181
2.71335
1
1
1
1
1
1
1
1
1
1
1
1
1.38561
2.43336
2.63066
2.65439
2.67269
2.68454
2.68933
2.68856
2.68082
2.66255
2.61083
2.51065
1
1
1
1
1
1
1
1
1
1
1
1
1.04509
2.30072
2.63177
2.63265
2.64217
2.65289
2.65787
2.65498
2.64251
2.60992
2.55228
2.39004
1
1
1
1
1
1
1
1
1
1
1
1
1.00045
2.12494
2.59017
2.6005
2.61093
2.61677
2.62037
2.61581
2.60104
2.56299
2.49911
2.31418
1
1
1
1
1
1
1
1
1
1
1
1
0.999996
1.80749
2.5189
2.5837
2.59302
2.59159
2.58923
2.58014
2.56077
2.52213
2.44989
2.28958
1
1
1
1
1
1
1
1
1
1
1
1
0.999999
1.34463
2.37065
2.56577
2.56552
2.564
2.55858
2.5454
2.52157
2.48301
2.40852
2.28642
1
1
1
1
1
1
1
1
1
1
1
1
1
1.03253
2.18782
2.52224
2.53352
2.53312
2.52793
2.51382
2.48909
2.44769
2.37838
2.28572
1
1
1
1
1
1
1
1
1
1
1
1
1
1.00015
1.80841
2.43572
2.5121
2.50929
2.50234
2.48552
2.46054
2.41696
2.35623
2.28124
1
1
1
1
1
1
1
1
1
1
1
1
1
0.999999
1.2178
2.27521
2.4933
2.47981
2.47129
2.45554
2.42964
2.3917
2.34036
2.27704
1
1
1
1
1
1
1
1
1
1
1
1
1
1
1.01103
2.07202
2.44076
2.43361
2.43175
2.4216
2.40084
2.3695
2.32604
2.27144
1
1
1
1
1
1
1
1
1
1
1
1
1
1
1
1.56288
2.31967
2.4144
2.40687
2.39419
2.37465
2.34674
2.30949
2.26383
1
1
1
1
1
1
1
1
1
1
1
1
1
1
0.999997
1.08171
2.10731
2.3904
2.38163
2.3679
2.34808
2.32254
2.29032
2.25271
1
1
1
1
1
1
1
1
1
1
1
1
1
1
0.999999
1.0013
1.64025
2.26818
2.35879
2.34161
2.32278
2.29946
2.27152
2.23951
1
1
1
1
1
1
1
1
1
1
1
1
1
1
1
1
1.11869
2.06289
2.33171
2.31508
2.30054
2.27936
2.25397
2.22496
1
1
1
1
1
1
1
1
1
1
1
1
1
1
1
1
1.00294
1.58126
2.19264
2.29167
2.27322
2.25429
2.2328
2.20778
1
1
1
1
1
1
1
1
1
1
1
1
1
1
1
1
1.00001
1.09986
1.97304
2.26689
2.2469
2.23182
2.2139
2.19244
1
1
1
1
1
1
1
1
1
1
1
1
1
1
1
1
1
1.00217
1.44155
2.0957
2.22332
2.20643
2.19115
2.17311
1
1
1
1
1
1
1
1
1
1
1
1
1
1
1
1
1
1.00001
1.05238
1.80008
2.18858
2.18434
2.17099
2.15478
1
1
1
1
1
1
1
1
1
1
1
1
1
1
1
1
1
1
1.00074
1.25916
1.98878
2.16436
2.1462
2.13066
1
1
1
1
1
1
1
1
1
1
1
1
1
1
1
1
1
1
1
1.01586
1.55149
2.04729
2.13229
2.11422
1
1
1
1
1
1
1
1
1
1
1
1
1
1
1
1
1
1
1
1.00015
1.09599
1.77854
2.09323
2.09956
1
1
1
1
1
1
1
1
1
1
1
1
1
1
1
1
1
1
1
1
1.00238
1.27093
1.89837
2.07606
1
1
1
1
1
1
1
1
1
1
1
1
1
1
1
1
1
1
1
1
1.00001
1.01844
1.46343
1.94856
1
1
1
1
1
1
1
1
1
1
1
1
1
1
1
1
1
1
1
1
1
1.00021
1.06738
1.62484
1
1
1
1
1
1
1
1
1
1
1
1
1
1
1
1
1
1
1
1
1
1
1.00145
1.15934
1
1
1
1
1
1
1
1
1
1
1
1
1
1
1
1
1
1
1
1
1
1
1.00001
1.00704
1
1
1
1
1
1
1
1
1
1
1
1
1
1
1
1
1
1
1
1
1
1
1
1.00006
1
1
1
1
1
1
1
1
1
1
1
1
1
1
1
1
1
1
1
1
1
1
1
1
1
1
1
1
1
1
1
1
1
1
1
1
1
1
1
1
1
1
1
1
1
1
1
1
1
1
1
1
1
1
1
1
1
1
1
1
1
1
1
1
1
1
1
1
1
1
1
1
1
1
1
1
1
1
1
1
1
1
1
1
1
1
1
1
1
1
1
1
1
1
1
1
1
1
1
1
1
1
1
1
1
1
1
1
1
1
1
1
1
1
1
1
1
1
1
1
1
1
1
1
1
1
1
1
1
1
1
1
1
1
1
1
1
1
1
1
1
1
1
1
1.68931
1.2062
1.03103
1.05646
1.11967
1.23052
1.33527
1.40335
1.47468
1.55931
1.65311
1.6927
1.70424
1.70849
1.70795
1.71419
1.72802
1.72742
1.71185
1.70401
1.71105
1.71558
1.72058
1.71771
1.70777
1.6959
1.6961
2.32446
2.82025
2.82615
2.82076
2.8129
2.80343
2.79429
2.78531
2.77439
2.76113
2.74606
2.73081
2.7159
2.70074
2.68369
2.6637
2.64168
2.62113
2.60504
2.59491
2.59004
2.58334
2.5669
2.54547
2.52397
2.50571
2.49268
2.48673
2.47887
2.46162
2.44166
2.41988
2.40037
2.38489
2.37457
2.36849
2.35784
2.34375
2.3284
2.31212
2.29731
2.28382
2.27215
2.26105
2.24826
2.23507
2.22121
2.20662
2.19275
2.18081
2.17056
2.16211
2.15289
2.14211
2.12958
2.11457
2.0998
2.08794
2.07871
2.07094
2.06457
2.05709
2.04769
2.03404
2.01659
2.00205
1.99207
1.98538
1.97304
1.93993
1.62891
1.47551
1.38777
1.32228
1.27781
1.2602
1.24888
1.27181
1.32896
1.39284
1.43174
1.46312
1.50671
1.54249
1.5733
1.61304
1.63706
1.63818
1.6412
1.64929
1.65426
1.66467
1.67445
1.67267
1.66294
1.65181
2.24361
2.78147
2.80987
2.80466
2.79261
2.77219
2.7541
2.74166
2.7361
2.73139
2.71924
2.70013
2.67915
2.65937
2.64384
2.63242
2.61967
2.60101
2.58061
2.56278
2.54927
2.54244
2.53728
2.52652
2.51006
2.49109
2.47354
2.45719
2.44336
2.43333
2.42241
2.40783
2.39099
2.37403
2.35873
2.34538
2.3343
2.32575
2.31544
2.30297
2.28861
2.2729
2.25847
2.24598
2.23561
2.22589
2.21442
2.20182
2.18758
2.17256
2.15913
2.14816
2.13933
2.13196
2.12255
2.11182
2.09978
2.08683
2.07453
2.06397
2.05487
2.0467
2.03895
2.02895
2.01641
2.00332
1.99052
1.98098
1.96685
2.03792
1.81955
1.66971
1.57307
1.47125
1.36805
1.30211
1.2824
1.27247
1.27095
1.282
1.30162
1.30424
1.31869
1.36812
1.41542
1.45707
1.50331
1.53448
1.55503
1.56309
1.56772
1.57957
1.60003
1.60868
1.60624
1.59842
2.01883
2.66435
2.72262
2.7011
2.6953
2.68201
2.66157
2.64401
2.6351
2.63558
2.63763
2.62848
2.60744
2.58259
2.56099
2.54567
2.53977
2.53528
2.52208
2.50382
2.48434
2.46825
2.45814
2.45438
2.45157
2.44431
2.4311
2.41047
2.38734
2.37144
2.36008
2.35316
2.34598
2.3347
2.32129
2.30419
2.28786
2.27756
2.26993
2.2639
2.25575
2.24503
2.23011
2.21231
2.19888
2.18918
2.18222
2.17514
2.16604
2.15473
2.13901
2.12129
2.10808
2.09914
2.09286
2.08899
2.0829
2.07488
2.06413
2.04945
2.03432
2.02263
2.01301
2.00604
2
1.99299
1.98414
1.97299
1.95405
2.10311
1.94072
1.7973
1.70111
1.62018
1.52439
1.42049
1.38852
1.37275
1.34588
1.31864
1.28989
1.26657
1.2672
1.2793
1.30882
1.34733
1.3888
1.42979
1.4581
1.47267
1.48021
1.49182
1.5169
1.53758
1.54557
1.56273
1.75606
2.44177
2.62649
2.57762
2.55501
2.5487
2.5357
2.52366
2.51191
2.50435
2.50258
2.50103
2.49129
2.47674
2.45774
2.44165
2.42998
2.42339
2.41789
2.40744
2.39566
2.38135
2.36703
2.35985
2.35614
2.35309
2.34604
2.33584
2.32144
2.30329
2.2891
2.27874
2.27068
2.26067
2.24952
2.23814
2.22649
2.21467
2.20572
2.19991
2.19457
2.18805
2.1792
2.16692
2.15161
2.13816
2.12941
2.12256
2.11651
2.10963
2.10089
2.08836
2.07248
2.06
2.05313
2.04788
2.04348
2.03854
2.03181
2.02182
2.00669
1.98993
1.97891
1.97272
1.96776
1.96313
1.95778
1.95109
1.9342
2.15021
2.02457
1.89839
1.79272
1.71857
1.6483
1.57278
1.48904
1.43254
1.41037
1.3902
1.36425
1.32872
1.28446
1.27563
1.28231
1.29709
1.31793
1.34629
1.36951
1.3889
1.41126
1.42976
1.45535
1.47494
1.50916
1.62297
1.77782
2.17188
2.45982
2.49677
2.45857
2.44051
2.43146
2.42761
2.41935
2.40681
2.39843
2.39245
2.39085
2.38545
2.37597
2.36112
2.34627
2.33643
2.32941
2.3244
2.3169
2.30822
2.29589
2.28213
2.27414
2.26826
2.26255
2.25652
2.24862
2.23684
2.22224
2.21032
2.19974
2.18906
2.17912
2.17078
2.16311
2.1544
2.14448
2.13609
2.12995
2.12444
2.11846
2.11084
2.10049
2.08804
2.07632
2.06687
2.05897
2.05186
2.04492
2.03732
2.02881
2.01953
2.01042
2.00294
1.99658
1.99023
1.9831
1.97439
1.96395
1.95349
1.94441
1.93654
1.93018
1.92435
1.91866
1.91265
1.89964
2.18397
2.08142
1.97771
1.88315
1.79358
1.72008
1.66813
1.61081
1.53658
1.47126
1.45159
1.43935
1.41606
1.3779
1.3354
1.30976
1.30443
1.31018
1.31291
1.31515
1.32127
1.33313
1.35659
1.38672
1.42763
1.548
1.7621
1.85938
1.95088
2.20687
2.37412
2.39497
2.39605
2.38995
2.3797
2.3695
2.35
2.33675
2.33117
2.33086
2.33229
2.3246
2.31285
2.29539
2.28228
2.27549
2.27183
2.2685
2.26121
2.25089
2.23558
2.22313
2.21664
2.21205
2.2074
2.2006
2.19154
2.17779
2.16228
2.1505
2.14106
2.13287
2.12551
2.11838
2.10983
2.09785
2.08633
2.07986
2.07527
2.07059
2.06487
2.05702
2.04553
2.03157
2.02015
2.0118
2.00487
1.99902
1.99425
1.98934
1.9821
1.97136
1.96072
1.95254
1.94512
1.93749
1.93005
1.92365
1.91771
1.9105
1.90149
1.89269
1.885
1.87758
1.87085
1.86032
2.20095
2.11527
2.026
1.94948
1.87242
1.78621
1.72313
1.68143
1.63269
1.57774
1.51496
1.47621
1.46033
1.44181
1.41744
1.38673
1.3486
1.32079
1.31165
1.31131
1.3159
1.32511
1.32724
1.34396
1.45918
1.6549
1.81046
1.86445
1.86651
1.93483
2.16432
2.31827
2.3583
2.37395
2.36784
2.3527
2.33173
2.30992
2.30163
2.29869
2.30021
2.2968
2.28797
2.27548
2.26033
2.25113
2.2462
2.24239
2.23516
2.22647
2.21424
2.20137
2.19335
2.18807
2.18221
2.17472
2.16569
2.15304
2.13716
2.12492
2.11639
2.10837
2.10042
2.09229
2.08273
2.07005
2.05735
2.05037
2.04551
2.04051
2.03484
2.02734
2.0157
1.99983
1.9866
1.9789
1.97352
1.96923
1.96548
1.96116
1.95397
1.94095
1.92584
1.91563
1.90869
1.903
1.89855
1.8946
1.89005
1.88359
1.87255
1.85926
1.84916
1.84157
1.83645
1.82843
2.20972
2.13846
2.06127
1.98979
1.92321
1.85282
1.79022
1.72866
1.68096
1.64543
1.60318
1.55156
1.49721
1.47892
1.47134
1.45415
1.42473
1.38003
1.34944
1.33997
1.33238
1.33196
1.34955
1.44042
1.60035
1.72143
1.76874
1.78802
1.78573
1.78921
1.85908
2.09313
2.27202
2.3447
2.35762
2.34704
2.33007
2.30684
2.28895
2.28078
2.27691
2.27741
2.27545
2.26764
2.25642
2.24182
2.23062
2.22295
2.21677
2.21105
2.20352
2.19424
2.1836
2.17392
2.16568
2.15755
2.14892
2.13855
2.12505
2.11133
2.10135
2.09308
2.08484
2.07624
2.0668
2.05585
2.04357
2.03402
2.02839
2.02266
2.01572
2.00727
1.99646
1.98268
1.96966
1.96202
1.95717
1.95373
1.94963
1.9435
1.93414
1.91986
1.9044
1.89334
1.88693
1.88261
1.87931
1.87653
1.87297
1.86544
1.85097
1.83411
1.82343
1.81691
1.81272
1.80509
2.21342
2.1511
2.08465
2.02203
1.95803
1.89455
1.84216
1.78788
1.72679
1.68015
1.65332
1.61865
1.57351
1.52614
1.49741
1.48788
1.47406
1.44869
1.41235
1.37972
1.36232
1.37451
1.46479
1.62067
1.72451
1.75373
1.7528
1.7462
1.74349
1.74181
1.74106
1.78556
1.99625
2.21206
2.31437
2.33246
2.32768
2.3123
2.29124
2.27223
2.26448
2.25996
2.26043
2.26005
2.25211
2.23902
2.2217
2.21062
2.20394
2.19831
2.19368
2.18631
2.17611
2.16351
2.15292
2.14441
2.13616
2.12716
2.11619
2.10257
2.08971
2.0803
2.07242
2.06474
2.057
2.0484
2.03752
2.02446
2.01327
2.00551
1.99856
1.9914
1.98376
1.97551
1.96596
1.95562
1.94718
1.93932
1.93081
1.92233
1.91302
1.90337
1.89348
1.88481
1.8786
1.87441
1.87064
1.8647
1.85482
1.84252
1.82962
1.81705
1.80847
1.80301
1.79906
1.79043
2.21334
2.15809
2.10128
2.046
1.98772
1.92859
1.87824
1.83104
1.77924
1.73049
1.68813
1.65376
1.62602
1.59511
1.55623
1.51477
1.49921
1.48703
1.46502
1.43754
1.45019
1.54302
1.69331
1.77653
1.77864
1.7672
1.75304
1.74542
1.74471
1.74302
1.73759
1.72605
1.73885
1.87414
2.10543
2.24227
2.29874
2.30556
2.29353
2.2709
2.2504
2.24485
2.24304
2.24513
2.24096
2.23045
2.21401
2.19757
2.18949
2.18356
2.17972
2.17368
2.16525
2.15318
2.13941
2.13051
2.12332
2.11569
2.10703
2.09567
2.08129
2.06855
2.06012
2.05348
2.04751
2.04099
2.03228
2.01838
2.0026
1.99313
1.98708
1.9814
1.97589
1.97003
1.9624
1.95065
1.93591
1.92446
1.91602
1.90793
1.89937
1.8921
1.88674
1.88145
1.87574
1.86871
1.85839
1.84744
1.83617
1.82457
1.81377
1.80534
1.79914
1.79462
1.79162
1.78403
2.20974
2.16105
2.11221
2.06181
2.00815
1.95769
1.90974
1.86105
1.8141
1.77583
1.73616
1.68967
1.6518
1.63409
1.61005
1.57053
1.52856
1.50863
1.49864
1.51815
1.6119
1.76598
1.84614
1.84018
1.81613
1.79008
1.7788
1.77422
1.76852
1.7574
1.74682
1.73484
1.71972
1.71663
1.77376
1.96193
2.14716
2.24479
2.26756
2.26239
2.23859
2.22552
2.22106
2.22191
2.22073
2.21269
2.20018
2.18251
2.17156
2.16509
2.16088
2.15603
2.14916
2.13974
2.12513
2.11281
2.10587
2.09992
2.09341
2.08506
2.07285
2.0583
2.04765
2.04091
2.03574
2.03025
2.02312
2.01123
1.99444
1.98238
1.97611
1.97147
1.96806
1.96303
1.95556
1.94274
1.92477
1.9108
1.90279
1.89637
1.8912
1.88725
1.88283
1.87714
1.86834
1.85505
1.84242
1.83179
1.82228
1.81275
1.80532
1.80021
1.79626
1.79272
1.78846
1.77686
2.20189
2.15996
2.11792
2.07226
2.02359
1.9801
1.93612
1.88991
1.84447
1.80719
1.77127
1.73337
1.6947
1.66073
1.63543
1.60742
1.57558
1.55433
1.58175
1.6787
1.81065
1.89545
1.89347
1.87291
1.84875
1.82372
1.80891
1.80061
1.7911
1.7791
1.76824
1.75582
1.73729
1.71246
1.70354
1.71687
1.82852
2.01972
2.16067
2.20789
2.21479
2.20139
2.19684
2.19362
2.19211
2.18581
2.17553
2.16025
2.14817
2.14164
2.13739
2.13266
2.12675
2.11974
2.10888
2.09435
2.08347
2.07721
2.07193
2.06624
2.05939
2.05066
2.0393
2.02711
2.01817
2.01223
2.00657
1.99868
1.98726
1.97483
1.96456
1.9581
1.95315
1.94786
1.94143
1.9311
1.91416
1.89837
1.89094
1.88709
1.88508
1.88318
1.87859
1.87082
1.85627
1.83929
1.82735
1.81876
1.8115
1.80667
1.80245
1.79746
1.79188
1.78449
1.77517
1.76221
2.19119
2.15549
2.11777
2.07631
2.03474
1.99554
1.95432
1.91016
1.87239
1.83528
1.79699
1.75922
1.72964
1.69703
1.65822
1.62996
1.62541
1.66837
1.78488
1.87294
1.93245
1.93272
1.918
1.9003
1.88234
1.85908
1.83721
1.82553
1.81524
1.80346
1.79049
1.77581
1.75671
1.73181
1.70723
1.69336
1.69567
1.73669
1.88061
2.04066
2.13371
2.14926
2.16208
2.16158
2.15926
2.15199
2.14207
2.13062
2.12002
2.11384
2.10891
2.10345
2.09834
2.09304
2.08605
2.07562
2.06226
2.05119
2.04534
2.04139
2.03769
2.03314
2.02602
2.01457
2.00104
1.99046
1.98285
1.97658
1.97037
1.96267
1.95252
1.94199
1.93405
1.92773
1.9214
1.91407
1.90434
1.89225
1.88192
1.87721
1.87394
1.86942
1.86332
1.85442
1.83963
1.82263
1.81243
1.80732
1.80399
1.80192
1.79848
1.7932
1.78537
1.7729
1.76203
1.75033
2.17888
2.14843
2.11509
2.07812
2.04254
2.0063
1.96665
1.92688
1.89327
1.8577
1.82204
1.78332
1.75152
1.72068
1.68789
1.69169
1.7474
1.8845
1.97107
1.97753
1.96585
1.94731
1.93302
1.9218
1.90803
1.88899
1.8637
1.84628
1.83438
1.82126
1.80614
1.79084
1.77361
1.75018
1.72533
1.7065
1.69161
1.68307
1.6899
1.75672
1.90243
2.02439
2.08733
2.10535
2.11956
2.11617
2.10822
2.10045
2.09222
2.08582
2.07748
2.0697
2.06455
2.05996
2.0551
2.04891
2.03961
2.02677
2.01635
2.01184
2.009
2.00583
2.00164
1.99497
1.9832
1.96723
1.95636
1.95111
1.94669
1.94163
1.9347
1.92436
1.91242
1.9035
1.89703
1.89173
1.88766
1.88254
1.8745
1.86485
1.85717
1.85118
1.84497
1.83656
1.82245
1.80578
1.79922
1.79662
1.79565
1.79468
1.79104
1.78551
1.7741
1.75532
1.74726
1.74059
2.16748
2.14031
2.10981
2.07693
2.04495
2.01144
1.97389
1.94047
1.90783
1.87453
1.83781
1.80284
1.77297
1.74632
1.76245
1.84157
1.95102
2.04152
2.04392
2.02215
1.98611
1.96174
1.95116
1.94141
1.92779
1.91011
1.88546
1.86241
1.84818
1.83496
1.82018
1.80354
1.78523
1.76398
1.73885
1.71703
1.70095
1.68333
1.67127
1.66399
1.67898
1.76008
1.89081
1.99125
2.04242
2.06353
2.07432
2.07106
2.06522
2.05682
2.0447
2.03315
2.02778
2.02441
2.02072
2.01626
2.01044
2.0013
1.9891
1.98029
1.97591
1.97286
1.96975
1.96543
1.95757
1.94437
1.93119
1.92403
1.91957
1.91528
1.91008
1.90207
1.88949
1.87714
1.87208
1.87007
1.86804
1.86514
1.85974
1.8499
1.83865
1.83013
1.82286
1.8148
1.80436
1.79351
1.78711
1.78466
1.78351
1.78226
1.77913
1.77374
1.76112
1.74171
1.73288
1.72665
2.15223
2.12804
2.10048
2.07271
2.04366
2.01143
1.9787
1.9492
1.9175
1.88464
1.84693
1.82159
1.80521
1.84022
1.94545
2.03238
2.07684
2.07765
2.05944
2.03467
2.00747
1.98305
1.9711
1.95871
1.9423
1.92412
1.90132
1.87552
1.85868
1.84417
1.82874
1.81185
1.79307
1.77154
1.74806
1.72608
1.70838
1.69218
1.67527
1.65914
1.64896
1.63748
1.65789
1.74617
1.86281
1.96105
2.00217
2.02808
2.03586
2.02833
2.01334
1.99747
1.9913
1.98877
1.98577
1.9821
1.97786
1.97143
1.9613
1.95038
1.94316
1.93879
1.93537
1.93154
1.92574
1.91624
1.9043
1.89556
1.89057
1.88652
1.88203
1.87586
1.86629
1.85448
1.84772
1.84567
1.84405
1.84198
1.83798
1.8295
1.81722
1.8064
1.79852
1.79198
1.78677
1.78143
1.77477
1.76916
1.76632
1.76377
1.7605
1.75549
1.74595
1.7299
1.71767
1.71098
2.13605
2.11452
2.09007
2.06575
2.03955
2.00956
1.98188
1.95251
1.92271
1.8891
1.86126
1.86651
1.9268
2.0493
2.12979
2.1235
2.10928
2.08459
2.06459
2.05102
2.03279
2.00656
1.98591
1.97043
1.95259
1.93461
1.91494
1.89133
1.86806
1.84992
1.83232
1.81471
1.79659
1.77711
1.75532
1.7326
1.71257
1.69523
1.67913
1.66168
1.64281
1.62673
1.61216
1.60479
1.633
1.73356
1.84592
1.93716
1.97126
1.98259
1.97964
1.96514
1.95835
1.95594
1.95192
1.94893
1.94561
1.93993
1.93135
1.92142
1.91343
1.90783
1.90338
1.89898
1.89357
1.88585
1.87549
1.86583
1.86006
1.85628
1.85261
1.84811
1.84192
1.8335
1.82482
1.81924
1.81603
1.81318
1.80942
1.8029
1.79136
1.77973
1.77508
1.77372
1.77216
1.76857
1.76098
1.74971
1.74243
1.73973
1.73712
1.7336
1.72816
1.71987
1.70658
1.6998
2.11436
2.09521
2.07543
2.05456
2.03052
2.00433
1.97957
1.95125
1.92502
1.90166
1.92528
2.01412
2.11874
2.18725
2.18151
2.14463
2.10967
2.09066
2.07914
2.06928
2.05106
2.02393
1.99327
1.9747
1.95846
1.94154
1.92356
1.90271
1.87742
1.85318
1.83325
1.81455
1.79645
1.77839
1.75937
1.73831
1.71602
1.69557
1.67772
1.66101
1.64368
1.62508
1.60612
1.59051
1.57635
1.57981
1.623
1.72594
1.82834
1.89697
1.92242
1.9237
1.92924
1.92612
1.92118
1.91858
1.9151
1.90876
1.90022
1.89191
1.88522
1.87993
1.87503
1.86971
1.8636
1.8561
1.84659
1.83689
1.83021
1.8264
1.82348
1.82041
1.81646
1.81045
1.80189
1.79354
1.78792
1.78378
1.7793
1.77272
1.76196
1.75412
1.75372
1.75382
1.75399
1.75279
1.74632
1.73086
1.71756
1.71315
1.71129
1.70942
1.70776
1.70589
1.69934
1.7068
2.09587
2.0786
2.06115
2.04305
2.01955
1.99813
1.97257
1.95255
1.94771
1.99377
2.10612
2.18005
2.21745
2.21889
2.18883
2.15176
2.11786
2.09854
2.08663
2.07624
2.05792
2.03347
2.00217
1.97813
1.96171
1.94544
1.92769
1.90734
1.88307
1.85613
1.83294
1.81416
1.7964
1.77814
1.75968
1.74029
1.71889
1.69717
1.67699
1.6584
1.64071
1.62401
1.60637
1.58887
1.57283
1.55965
1.54727
1.5548
1.60937
1.70493
1.80397
1.85079
1.87523
1.89093
1.89684
1.8925
1.88663
1.87882
1.86913
1.86141
1.85607
1.85224
1.84841
1.84317
1.83641
1.82811
1.81851
1.80906
1.80201
1.7976
1.79472
1.79201
1.78891
1.78449
1.77755
1.76869
1.76139
1.75619
1.7513
1.7454
1.73669
1.73159
1.7322
1.73459
1.73475
1.73357
1.72746
1.71438
1.69806
1.68897
1.68749
1.68728
1.68934
1.69612
1.70748
1.76653
2.08228
2.06494
2.04863
2.0294
2.00622
1.98599
1.97413
1.99051
2.06565
2.1912
2.24587
2.23071
2.21874
2.20695
2.1836
2.1578
2.1295
2.10494
2.08832
2.07487
2.05869
2.03715
2.01022
1.98259
1.96246
1.94412
1.92528
1.9049
1.88274
1.85867
1.83376
1.81125
1.79219
1.77414
1.7559
1.73729
1.71782
1.69745
1.67713
1.6577
1.63914
1.62203
1.60599
1.58992
1.57307
1.55564
1.53867
1.53024
1.52254
1.5355
1.59498
1.69156
1.76882
1.83151
1.84532
1.85815
1.85916
1.85384
1.84626
1.83558
1.82793
1.82708
1.82382
1.81793
1.81031
1.80308
1.79499
1.78347
1.77656
1.77486
1.77194
1.7685
1.76443
1.75908
1.75136
1.74192
1.73445
1.73039
1.72743
1.72408
1.71864
1.71218
1.70667
1.70382
1.70225
1.70077
1.69853
1.69307
1.68173
1.66891
1.66882
1.67124
1.6823
1.71546
1.76416
1.85331
2.06704
2.04906
2.03329
2.01044
1.99245
1.99204
2.03725
2.14106
2.23581
2.29526
2.27936
2.23685
2.20724
2.19227
2.18032
2.16061
2.13484
2.10816
2.08761
2.07147
2.05563
2.03654
2.01322
1.98547
1.9605
1.93938
1.91912
1.8992
1.8791
1.85822
1.83585
1.81209
1.78912
1.76825
1.74877
1.73057
1.71284
1.69458
1.676
1.6576
1.6394
1.62155
1.60464
1.58881
1.57436
1.55908
1.54287
1.52647
1.5125
1.50651
1.50276
1.52196
1.57962
1.67926
1.7528
1.80222
1.82604
1.83484
1.83235
1.82093
1.80725
1.79715
1.79105
1.78681
1.78387
1.78057
1.77494
1.7658
1.75461
1.74449
1.73989
1.73656
1.73272
1.72775
1.72105
1.71493
1.71361
1.71316
1.7119
1.70833
1.70314
1.69369
1.68088
1.67442
1.67279
1.67162
1.67046
1.66814
1.66561
1.66123
1.6654
1.68442
1.73181
1.80446
1.85103
1.88461
2.05137
2.03548
2.01344
1.99726
2.00864
2.09376
2.22315
2.27885
2.2946
2.28785
2.26324
2.22993
2.20091
2.18715
2.17674
2.15705
2.13273
2.10876
2.08708
2.06798
2.0495
2.03014
2.00819
1.98287
1.95714
1.93438
1.91322
1.8929
1.87296
1.85274
1.83195
1.81015
1.78808
1.76667
1.74577
1.7261
1.70813
1.69095
1.67381
1.65753
1.64179
1.62529
1.60746
1.58915
1.57264
1.56052
1.54873
1.53441
1.52007
1.50535
1.49529
1.48436
1.48573
1.51144
1.58127
1.66977
1.73962
1.7932
1.80468
1.80335
1.79358
1.777
1.76912
1.76727
1.7658
1.76291
1.7581
1.7503
1.73628
1.72066
1.71474
1.71218
1.70989
1.7068
1.70249
1.69648
1.68635
1.6822
1.68274
1.6845
1.68278
1.6754
1.66335
1.65123
1.64148
1.63944
1.64047
1.64402
1.65481
1.67782
1.72418
1.78225
1.83913
1.86751
1.88622
1.88967
1.97853
2.02237
2.00516
2.03954
2.15649
2.27539
2.3271
2.30136
2.28388
2.266
2.24531
2.22166
2.19806
2.18274
2.16921
2.14978
2.12628
2.10331
2.08255
2.06302
2.04286
2.02107
1.99812
1.9747
1.95163
1.93029
1.90966
1.8887
1.86753
1.84639
1.8261
1.80663
1.78681
1.7667
1.74672
1.7264
1.70638
1.68852
1.67194
1.65606
1.64315
1.63146
1.61748
1.60014
1.58025
1.56221
1.5502
1.54349
1.5354
1.52423
1.51061
1.49441
1.48314
1.47161
1.47631
1.5103
1.58833
1.68498
1.74389
1.76964
1.76942
1.76063
1.75145
1.74838
1.74776
1.74607
1.74327
1.73853
1.72728
1.70895
1.69521
1.69191
1.69038
1.68947
1.68813
1.68305
1.67283
1.66228
1.65808
1.6556
1.65259
1.64985
1.645
1.63473
1.62238
1.62095
1.62439
1.64324
1.69103
1.75892
1.82075
1.85887
1.8869
1.88663
1.88428
1.87617
1.75817
1.93218
2.05069
2.22205
2.3123
2.34205
2.31599
2.28674
2.26852
2.25296
2.23719
2.21668
2.19475
2.17828
2.16242
2.14261
2.11975
2.09692
2.07594
2.05683
2.03749
2.01601
1.99263
1.96924
1.94737
1.92714
1.90773
1.88751
1.86639
1.84455
1.82351
1.80525
1.78812
1.77041
1.75198
1.73308
1.71358
1.69437
1.67931
1.66933
1.66088
1.65077
1.63784
1.62115
1.60172
1.58026
1.56356
1.55464
1.54729
1.53697
1.52386
1.50892
1.49469
1.48188
1.47529
1.46849
1.47802
1.52234
1.60771
1.68893
1.75043
1.75227
1.74679
1.74185
1.73345
1.72627
1.72236
1.71845
1.7125
1.70452
1.69383
1.68758
1.68582
1.68442
1.68252
1.67915
1.67102
1.65497
1.63854
1.6309
1.62632
1.62321
1.62107
1.6215
1.62485
1.63649
1.66873
1.72735
1.79398
1.83876
1.8715
1.88178
1.88074
1.87223
1.86194
1.85005
1.29039
1.74511
2.26004
2.38505
2.37229
2.35779
2.32586
2.29754
2.27676
2.26132
2.24459
2.22407
2.19962
2.18036
2.1628
2.14119
2.11675
2.09366
2.07204
2.05185
2.03288
2.01283
1.99085
1.96731
1.94447
1.92444
1.90661
1.88877
1.86989
1.85069
1.82901
1.80711
1.78958
1.77468
1.76009
1.74512
1.72998
1.71552
1.70197
1.68717
1.67105
1.65958
1.65275
1.64682
1.63564
1.61539
1.5913
1.57473
1.56905
1.56326
1.55311
1.53996
1.52337
1.50538
1.49043
1.4787
1.46893
1.47055
1.48872
1.53963
1.62969
1.69397
1.7477
1.74872
1.74485
1.73641
1.7294
1.72303
1.71672
1.71031
1.70194
1.69163
1.68548
1.68157
1.67712
1.67118
1.66398
1.65249
1.63501
1.62111
1.61525
1.61545
1.61763
1.63104
1.66693
1.72797
1.78671
1.83279
1.85873
1.87243
1.87472
1.87147
1.86286
1.85132
1.84341
1.83478
1.02325
1.91803
2.56111
2.53814
2.47228
2.4236
2.38293
2.34727
2.31708
2.29479
2.27384
2.25108
2.22737
2.20769
2.19023
2.16843
2.14393
2.12106
2.09963
2.07905
2.06015
2.04124
2.02055
1.9976
1.97398
1.95261
1.93433
1.91718
1.89804
1.8743
1.85354
1.83739
1.82171
1.80822
1.79567
1.78258
1.76906
1.7554
1.74079
1.72497
1.70895
1.69345
1.67869
1.66493
1.65478
1.64697
1.63439
1.61645
1.59528
1.57737
1.56425
1.5539
1.54762
1.54033
1.52603
1.50488
1.48568
1.47308
1.46473
1.46803
1.49673
1.56369
1.65703
1.719
1.75046
1.75003
1.74531
1.73947
1.73574
1.73135
1.72312
1.70714
1.69228
1.68448
1.67803
1.6704
1.66139
1.65167
1.64002
1.62842
1.62299
1.62908
1.65928
1.72157
1.79011
1.83443
1.86157
1.88131
1.88514
1.88346
1.87658
1.86478
1.85216
1.84301
1.84075
1.83722
1.00054
2.15258
2.71589
2.65767
2.5875
2.53501
2.48499
2.4409
2.40503
2.37591
2.34947
2.32
2.29046
2.26572
2.24439
2.22015
2.19302
2.16621
2.1429
2.12046
2.09905
2.07893
2.05759
2.03368
2.00805
1.98272
1.95967
1.94045
1.92431
1.90921
1.89254
1.87213
1.85089
1.8334
1.82074
1.81065
1.80074
1.78934
1.7757
1.76095
1.74632
1.73172
1.71763
1.70462
1.69162
1.67702
1.66207
1.64578
1.62684
1.60827
1.59704
1.58929
1.57947
1.56557
1.54834
1.52887
1.5104
1.49434
1.48336
1.47638
1.47777
1.48933
1.52913
1.60945
1.70291
1.73399
1.74208
1.7505
1.7533
1.75087
1.74346
1.73146
1.71614
1.69943
1.68569
1.67454
1.66458
1.65867
1.65113
1.65547
1.68317
1.73663
1.80251
1.85253
1.88204
1.89365
1.90459
1.90673
1.90315
1.89265
1.87951
1.86947
1.86293
1.85838
1.85605
1.85248
1.00001
2.26118
2.7635
2.75031
2.70605
2.66508
2.61892
2.5749
2.53457
2.4966
2.45602
2.41385
2.37721
2.3466
2.3207
2.29517
2.26588
2.23549
2.21135
2.18938
2.16497
2.14106
2.11695
2.0912
2.06455
2.03872
2.01514
1.99424
1.97579
1.95914
1.94263
1.9244
1.90556
1.88937
1.87699
1.8666
1.85584
1.84327
1.82843
1.81202
1.79519
1.7787
1.76293
1.74729
1.73151
1.71506
1.69781
1.68093
1.66603
1.65254
1.63839
1.62283
1.60623
1.58929
1.5721
1.55699
1.54433
1.5335
1.52071
1.50533
1.49287
1.48279
1.48395
1.50208
1.56012
1.64916
1.72875
1.76164
1.76724
1.76951
1.76594
1.75875
1.74622
1.72489
1.70449
1.68942
1.68545
1.68608
1.70818
1.76327
1.83814
1.88872
1.92372
1.93538
1.93771
1.94025
1.93661
1.92853
1.91774
1.90472
1.89415
1.88787
1.88272
1.8783
1.87528
1.87128
1
2.26621
2.74566
2.76224
2.74393
2.72414
2.69534
2.66384
2.63043
2.59444
2.55545
2.51678
2.48213
2.45115
2.42195
2.39066
2.35571
2.32104
2.29118
2.26512
2.2381
2.21119
2.18427
2.15618
2.12834
2.10317
2.08091
2.06042
2.04109
2.02273
2.00456
1.98625
1.96827
1.95157
1.93642
1.92231
1.90831
1.89357
1.87747
1.86006
1.8415
1.82186
1.80162
1.78159
1.763
1.74607
1.73094
1.71707
1.70276
1.68628
1.66579
1.64138
1.61924
1.60462
1.59543
1.58797
1.57896
1.5654
1.54684
1.52496
1.50532
1.49092
1.48568
1.48646
1.49541
1.53306
1.6099
1.69909
1.75369
1.78845
1.78915
1.78692
1.77547
1.75705
1.73539
1.72332
1.73636
1.78748
1.86565
1.93056
1.97248
1.98375
1.99416
1.99165
1.9807
1.97043
1.96102
1.95135
1.94169
1.9324
1.92602
1.92057
1.9151
1.90944
1.90384
1.89672
1
2.25352
2.72034
2.7524
2.74066
2.73066
2.71573
2.69761
2.67502
2.64713
2.61549
2.58311
2.55222
2.52226
2.4913
2.458
2.42389
2.39146
2.36263
2.33689
2.30978
2.28167
2.25278
2.22273
2.1941
2.16881
2.14617
2.1255
2.10595
2.08619
2.06538
2.044
2.02322
2.0039
1.98593
1.96884
1.95177
1.93379
1.91425
1.8935
1.87224
1.8506
1.82893
1.80814
1.78882
1.77109
1.75482
1.73884
1.72189
1.70339
1.68294
1.65969
1.63875
1.62647
1.6161
1.60513
1.59284
1.5777
1.55963
1.54092
1.52362
1.51033
1.50261
1.49669
1.49633
1.49835
1.51195
1.55859
1.64361
1.72776
1.76847
1.78531
1.78986
1.78603
1.79801
1.83421
1.90054
1.97203
2.01231
2.03573
2.04616
2.04295
2.03524
2.02079
2.00604
1.99471
1.98592
1.97733
1.96995
1.96308
1.95816
1.95339
1.94764
1.94129
1.93454
1.92533
1
2.23658
2.70231
2.73302
2.72981
2.72595
2.71494
2.69922
2.68026
2.65833
2.63465
2.60965
2.5829
2.55397
2.52316
2.49183
2.46118
2.43218
2.40482
2.37689
2.34625
2.31545
2.28599
2.26009
2.23632
2.21364
2.19136
2.16919
2.14617
2.12226
2.09884
2.07704
2.05676
2.03743
2.01819
1.99801
1.976
1.9528
1.93004
1.90868
1.88836
1.86791
1.84682
1.8249
1.80203
1.78033
1.76198
1.74592
1.72997
1.71271
1.69437
1.67739
1.65939
1.63979
1.6232
1.60944
1.59641
1.58217
1.56599
1.55149
1.54171
1.53123
1.52007
1.50977
1.50106
1.49403
1.48545
1.48857
1.51129
1.5816
1.68538
1.75579
1.79584
1.86363
1.94154
1.9956
2.03212
2.06204
2.07387
2.07099
2.06475
2.05935
2.04968
2.03893
2.02815
2.01921
2.01041
2.00174
1.9964
1.98908
1.981
1.97417
1.96724
1.95854
1.9503
1.94367
1
2.22811
2.69549
2.72282
2.7221
2.72021
2.71144
2.69822
2.68221
2.66348
2.6422
2.61809
2.59128
2.56291
2.5341
2.50554
2.47723
2.44877
2.4194
2.389
2.35856
2.32886
2.30194
2.27924
2.25856
2.23466
2.21032
2.18487
2.15834
2.13251
2.10912
2.08827
2.06898
2.04998
2.02974
2.00707
1.98198
1.95654
1.93331
1.91305
1.89453
1.87571
1.8547
1.83034
1.80429
1.78055
1.76146
1.74589
1.73187
1.71824
1.70294
1.68274
1.65998
1.63968
1.62279
1.60808
1.59473
1.58226
1.5697
1.55585
1.54188
1.53056
1.51975
1.51026
1.50118
1.4913
1.48047
1.47497
1.47369
1.48648
1.54585
1.67472
1.84478
1.97997
2.0693
2.14458
2.16247
2.14613
2.11944
2.08887
2.07443
2.06323
2.05277
2.04265
2.0327
2.02534
2.01847
2.01267
2.01009
2.00382
1.99318
1.98351
1.97406
1.96339
1.95572
1.95126
)
;

boundaryField
{
    inlet
    {
        type            fixedValue;
        value           uniform 1;
    }
    outlet
    {
        type            inletOutlet;
        inletValue      uniform 1;
        value           nonuniform List<scalar> 
32
(
1.97355
1.96706
1.95334
1.93295
1.89908
1.86039
1.8289
1.80562
1.79084
1.78473
1.77644
1.76212
1.75059
1.74152
1.7274
1.71161
1.69984
1.70515
1.76449
1.85281
1.88485
1.8906
1.87593
1.84979
1.83511
1.83832
1.85283
1.87134
1.89638
1.92517
1.94423
1.95206
)
;
    }
    bottom
    {
        type            symmetryPlane;
    }
    top
    {
        type            symmetryPlane;
    }
    obstacle
    {
        type            zeroGradient;
    }
    defaultFaces
    {
        type            empty;
    }
}


// ************************************************************************* //
