/*--------------------------------*- C++ -*----------------------------------*\
  =========                 |
  \\      /  F ield         | OpenFOAM: The Open Source CFD Toolbox
   \\    /   O peration     | Website:  https://openfoam.org
    \\  /    A nd           | Version:  7
     \\/     M anipulation  |
\*---------------------------------------------------------------------------*/
FoamFile
{
    version     2.0;
    format      ascii;
    class       volScalarField;
    location    "1.9";
    object      p;
}
// * * * * * * * * * * * * * * * * * * * * * * * * * * * * * * * * * * * * * //

dimensions      [1 -1 -2 0 0 0 0];

internalField   nonuniform List<scalar> 
16128
(
1
1
1
1
1
1
1
1
1
1
1
1
1
1
1
1
1
1
1
1
1
1
1
1
1.22487
7.30913
10.5492
10.6418
10.7495
10.8579
10.9636
11.0656
11.1626
11.2545
11.3424
11.4267
11.5078
11.5873
11.6664
11.7433
11.8153
11.8799
11.9336
11.9795
12.0207
12.0496
12.075
12.0926
1
1
1
1
1
1
1
1
1
1
1
1
1
1
1
1
1
1
1
1
1
1
1
1
1.20715
7.22021
10.5352
10.6412
10.7491
10.8557
10.9595
11.0611
11.1594
11.2525
11.3401
11.4232
11.503
11.5819
11.66
11.735
11.8046
11.8669
11.9196
11.9656
12.007
12.0348
12.0588
12.0749
1
1
1
1
1
1
1
1
1
1
1
1
1
1
1
1
1
1
1
1
1
1
1
1
1.15162
7.04883
10.5294
10.6228
10.7407
10.8493
10.9526
11.0538
11.1525
11.2459
11.3326
11.4145
11.4935
11.5724
11.6501
11.7233
11.7897
11.8486
11.8989
11.9442
11.9846
12.0108
12.0328
12.0471
1
1
1
1
1
1
1
1
1
1
1
1
1
1
1
1
1
1
1
1
1
1
1
1
1.02656
6.75305
10.5566
10.6271
10.7325
10.8352
10.9362
11.0381
11.1381
11.2317
11.3173
11.398
11.4759
11.5541
11.6308
11.7021
11.766
11.8221
11.87
11.914
11.9523
11.976
11.995
12.007
1
1
1
1
1
1
1
1
1
1
1
1
1
1
1
1
1
1
1
1
1
1
1
1
1.0004
6.36611
10.4945
10.5883
10.6971
10.8086
10.917
11.0228
11.1221
11.2126
11.2952
11.3741
11.4504
11.5273
11.6026
11.6723
11.734
11.7877
11.8329
11.8746
11.9101
11.9312
11.9475
11.958
1
1
1
1
1
1
1
1
1
1
1
1
1
1
1
1
1
1
1
1
1
1
1
1
1
5.88187
10.4275
10.5617
10.6719
10.7868
10.8954
10.9988
11.0943
11.1827
11.2643
11.3421
11.4159
11.4899
11.5628
11.6309
11.6919
11.7448
11.7876
11.8264
11.8585
11.8767
11.8905
11.9
1
1
1
1
1
1
1
1
1
1
1
1
1
1
1
1
1
1
1
1
1
1
1
1
1
5.3198
10.3282
10.5312
10.6425
10.7604
10.8689
10.9697
11.0622
11.1493
11.2301
11.3063
11.3764
11.4458
11.5143
11.5792
11.6378
11.689
11.7293
11.7653
11.7948
11.8116
11.8247
11.8347
1
1
1
1
1
1
1
1
1
1
1
1
1
1
1
1
1
1
1
1
1
1
1
1
1
4.69037
10.1794
10.5012
10.6135
10.731
10.8358
10.9312
11.0185
11.1024
11.1807
11.2548
11.3216
11.3875
11.4531
11.5165
11.5748
11.6262
11.6646
11.6962
11.7199
11.731
11.7406
11.7491
1
1
1
1
1
1
1
1
1
1
1
1
1
1
1
1
1
1
1
1
1
1
1
1
1
4.00937
9.95019
10.4657
10.5757
10.6936
10.798
10.8929
10.9788
11.0602
11.1345
11.2033
11.2631
11.3217
11.3801
11.4372
11.4897
11.5376
11.5729
11.6015
11.6226
11.6321
11.6407
11.6495
1
1
1
1
1
1
1
1
1
1
1
1
1
1
1
1
1
1
1
1
1
1
1
1
1
3.3044
9.61505
10.4446
10.5432
10.6571
10.756
10.846
10.9268
11.0037
11.0742
11.1397
11.1955
11.2495
11.3027
11.354
11.4002
11.4437
11.4745
11.498
11.5122
11.5145
11.5171
11.5212
1
1
1
1
1
1
1
1
1
1
1
1
1
1
1
1
1
1
1
1
1
1
1
1
1
2.60182
9.12907
10.4437
10.5174
10.625
10.716
10.8005
10.8764
10.9489
11.0149
11.0755
11.1267
11.1742
11.2197
11.262
11.2979
11.3313
11.3517
11.3649
11.3705
11.3685
11.3685
11.3736
1
1
1
1
1
1
1
1
1
1
1
1
1
1
1
1
1
1
1
1
1
1
1
1
1
1.90681
8.47858
10.4715
10.4793
10.5863
10.6724
10.7509
10.8193
10.8847
10.9453
11.0005
11.0471
11.088
11.1256
11.158
11.1824
11.2042
11.2144
11.2188
11.2141
11.1998
11.1836
11.1734
1
1
1
1
1
1
1
1
1
1
1
1
1
1
1
1
1
1
1
1
1
1
1
1
1
1.2961
7.65449
10.5209
10.4309
10.518
10.5945
10.672
10.7417
10.8061
10.8642
10.914
10.9561
10.9907
11.0207
11.0423
11.0544
11.0602
11.0529
11.0333
11.0017
10.97
10.9391
10.9371
1
1
1
1
1
1
1
1
1
1
1
1
1
1
1
1
1
1
1
1
1
1
1
1
1
1.01324
6.68385
10.3045
10.3196
10.4421
10.5308
10.6032
10.6595
10.7116
10.7636
10.8082
10.8451
10.8739
10.8964
10.9067
10.9048
10.8921
10.8623
10.8209
10.7697
10.7183
10.6459
10.5646
1
1
1
1
1
1
1
1
1
1
1
1
1
1
1
1
1
1
1
1
1
1
1
1
1
1.00004
5.44448
10.032
10.2259
10.3385
10.4234
10.4909
10.5447
10.5932
10.6411
10.6822
10.7144
10.7377
10.7528
10.7519
10.7359
10.7035
10.6481
10.5718
10.464
10.3176
10.1673
10.0569
1
1
1
1
1
1
1
1
1
1
1
1
1
1
1
1
1
1
1
1
1
1
1
1
1
1
4.2058
9.6335
10.1811
10.2797
10.362
10.4171
10.4567
10.4885
10.5192
10.5512
10.5744
10.5879
10.5903
10.5764
10.5451
10.4894
10.3997
10.2743
10.1062
9.89335
9.66598
9.57187
1
1
1
1
1
1
1
1
1
1
1
1
1
1
1
1
1
1
1
1
1
1
1
1
1
1
2.95757
9.02706
10.1006
10.1982
10.2808
10.3334
10.3693
10.3933
10.4101
10.4258
10.437
10.4328
10.419
10.3876
10.3361
10.2531
10.1278
9.95639
9.70668
9.30755
8.44022
6.49025
1
1
1
1
1
1
1
1
1
1
1
1
1
1
1
1
1
1
1
1
1
1
1
1
1
1
1.78267
8.19727
10.1984
10.1539
10.2022
10.2425
10.2703
10.2874
10.2941
10.297
10.2937
10.2742
10.2418
10.1905
10.1152
10.0036
9.83985
9.6042
9.25007
8.6426
7.6924
5.5322
1
1
1
1
1
1
1
1
1
1
1
1
1
1
1
1
1
1
1
1
1
1
1
1
1
1
1.07258
6.97098
10.1759
10.0846
10.0898
10.1251
10.1526
10.1701
10.1747
10.1683
10.152
10.1192
10.068
9.99545
9.89346
9.75017
9.54681
9.25389
8.82155
8.15771
7.06425
5.15303
1
1
1
1
1
1
1
1
1
1
1
1
1
1
1
1
1
1
1
1
1
1
1
1
1
1
1.00044
5.31543
9.68538
9.8847
9.95341
9.99229
10.0245
10.0443
10.0485
10.0352
10.0073
9.96112
9.89309
9.79985
9.6731
9.50151
9.26233
8.93202
8.44295
7.77686
6.63308
5.12536
1
1
1
1
1
1
1
1
1
1
1
1
1
1
1
1
1
1
1
1
1
1
1
1
1
1
0.999996
3.63094
9.19727
9.85161
9.88013
9.91249
9.92964
9.9379
9.93239
9.90898
9.86749
9.80662
9.72203
9.61001
9.46125
9.26585
8.99874
8.64399
8.14212
7.47375
6.41447
5.20497
1
1
1
1
1
1
1
1
1
1
1
1
1
1
1
1
1
1
1
1
1
1
1
1
1
1
0.999999
2.07681
8.36705
9.8263
9.78623
9.82076
9.83804
9.83593
9.81983
9.78602
9.73224
9.65698
9.55685
9.42741
9.25925
9.04432
8.76144
8.39007
7.89321
7.24509
6.31858
5.3336
1
1
1
1
1
1
1
1
1
1
1
1
1
1
1
1
1
1
1
1
1
1
1
1
1
1
1
1.11779
6.88576
9.81121
9.71877
9.71105
9.72775
9.72224
9.70238
9.66357
9.60023
9.51094
9.39534
9.25028
9.06659
8.83829
8.54915
8.17491
7.69269
7.08123
6.28775
5.46214
1
1
1
1
1
1
1
1
1
1
1
1
1
1
1
1
1
1
1
1
1
1
1
1
1
1
1
1.00112
4.96556
9.24631
9.55195
9.61819
9.62997
9.60732
9.58014
9.53752
9.46982
9.3736
9.24771
9.08979
8.89224
8.65143
8.3581
7.98992
7.53029
6.96337
6.27312
5.57641
1
1
1
1
1
1
1
1
1
1
1
1
1
1
1
1
1
1
1
1
1
1
1
1
1
1
1
0.999991
2.83345
8.58016
9.57011
9.53944
9.53615
9.5113
9.47408
9.42125
9.34325
9.23989
9.10374
8.93477
8.72776
8.48046
8.18797
7.82834
7.39544
6.87322
6.26713
5.672
1
1
1
1
1
1
1
1
1
1
1
1
1
1
1
1
1
1
1
1
1
1
1
1
1
1
1
0.999998
1.27273
7.36335
9.64669
9.48312
9.43434
9.41251
9.36558
9.30355
9.2169
9.10826
8.96898
8.79534
8.58279
8.3313
8.04118
7.68531
7.28088
6.80068
6.26721
5.74376
1
1
1
1
1
1
1
1
1
1
1
1
1
1
1
1
1
1
1
1
1
1
1
1
1
1
1
1
1.00701
5.40965
9.07818
9.25581
9.33304
9.3215
9.26463
9.18795
9.09052
8.97378
8.83098
8.6591
8.44692
8.20208
7.90993
7.56497
7.18645
6.7478
6.28148
5.80208
1
1
1
1
1
1
1
1
1
1
1
1
1
1
1
1
1
1
1
1
1
1
1
1
1
1
1
1
0.999943
2.92756
8.39162
9.25151
9.28
9.25496
9.18698
9.09406
8.98367
8.85563
8.70442
8.53361
8.32226
8.08623
7.79381
7.46814
7.11107
6.70957
6.29276
5.84576
1
1
1
1
1
1
1
1
1
1
1
1
1
1
1
1
1
1
1
1
1
1
1
1
1
1
1
1
0.999987
1.27819
7.07538
9.33851
9.20267
9.15421
9.07928
8.97791
8.86374
8.73506
8.58137
8.41153
8.20772
7.97847
7.69741
7.39321
7.05534
6.68668
6.3045
5.89476
1
1
1
1
1
1
1
1
1
1
1
1
1
1
1
1
1
1
1
1
1
1
1
1
1
1
1
1
0.999998
1.0066
4.8467
8.82042
9.04702
9.04932
8.98099
8.88003
8.75797
8.62712
8.4716
8.30113
8.10846
7.87944
7.61523
7.32767
7.00747
6.66634
6.30784
5.93473
1
1
1
1
1
1
1
1
1
1
1
1
1
1
1
1
1
1
1
1
1
1
1
1
1
1
1
1
1
0.999965
2.27198
8.12774
9.08236
8.96467
8.8749
8.77727
8.65925
8.52759
8.37778
8.20647
8.01369
7.79555
7.54683
7.27299
6.97059
6.65052
6.31251
5.97237
1
1
1
1
1
1
1
1
1
1
1
1
1
1
1
1
1
1
1
1
1
1
1
1
1
1
1
1
1
0.999992
1.12426
6.36756
8.92563
8.82107
8.76723
8.67758
8.56188
8.42989
8.28398
8.11793
7.92704
7.71549
7.48067
7.22023
6.93657
6.63337
6.31395
6.00019
1
1
1
1
1
1
1
1
1
1
1
1
1
1
1
1
1
1
1
1
1
1
1
1
1
1
1
1
1
0.999999
1.00102
3.5491
8.26883
8.71046
8.69307
8.62497
8.50714
8.37501
8.22589
8.05753
7.86194
7.64947
7.42162
7.17291
6.90608
6.61702
6.31603
6.02383
1
1
1
1
1
1
1
1
1
1
1
1
1
1
1
1
1
1
1
1
1
1
1
1
1
1
1
1
1
1
0.999997
1.41071
7.0424
8.81769
8.66052
8.55229
8.42631
8.2969
8.15218
7.98671
7.79523
7.58808
7.36753
7.12972
6.87611
6.60168
6.31725
6.04184
1
1
1
1
1
1
1
1
1
1
1
1
1
1
1
1
1
1
1
1
1
1
1
1
1
1
1
1
1
1
0.999999
1.01384
4.53561
8.30841
8.47687
8.43677
8.35063
8.23694
8.09765
7.93379
7.74628
7.54278
7.32555
7.09226
6.84831
6.58937
6.3201
6.05847
1
1
1
1
1
1
1
1
1
1
1
1
1
1
1
1
1
1
1
1
1
1
1
1
1
1
1
1
1
1
1
0.999985
1.75352
7.34425
8.59773
8.43047
8.30968
8.18546
8.04202
7.87798
7.69497
7.49687
7.2853
7.05898
6.82546
6.58052
6.3261
6.07461
1
1
1
1
1
1
1
1
1
1
1
1
1
1
1
1
1
1
1
1
1
1
1
1
1
1
1
1
1
1
1
0.999996
1.04505
5.08367
8.23488
8.28317
8.21613
8.1084
7.97494
7.81965
7.64485
7.45393
7.24907
7.03136
6.80705
6.57399
6.33206
6.08908
1
1
1
1
1
1
1
1
1
1
1
1
1
1
1
1
1
1
1
1
1
1
1
1
1
1
1
1
1
1
1
0.999999
1.00012
2.01642
7.358
8.3532
8.20246
8.07562
7.93702
7.78001
7.60506
7.41641
7.21795
7.00984
6.79402
6.57131
6.34037
6.10587
1
1
1
1
1
1
1
1
1
1
1
1
1
1
1
1
1
1
1
1
1
1
1
1
1
1
1
1
1
1
1
1
1
1.07659
5.20668
8.09972
8.10046
8.00395
7.87638
7.72519
7.55637
7.37522
7.18563
6.9876
6.78074
6.56675
6.34664
6.12186
1
1
1
1
1
1
1
1
1
1
1
1
1
1
1
1
1
1
1
1
1
1
1
1
1
1
1
1
1
1
1
1
1
1.00046
2.10576
7.16718
8.12186
7.98115
7.8457
7.69306
7.52715
7.35133
7.16717
6.97526
6.7746
6.56626
6.35419
6.13917
1
1
1
1
1
1
1
1
1
1
1
1
1
1
1
1
1
1
1
1
1
1
1
1
1
1
1
1
1
1
1
1
1
1
1.08739
4.97544
7.89732
7.91246
7.78799
7.64555
7.48539
7.31696
7.1398
6.95488
6.76215
6.56274
6.35873
6.15244
1
1
1
1
1
1
1
1
1
1
1
1
1
1
1
1
1
1
1
1
1
1
1
1
1
1
1
1
1
1
1
1
1
1
1.0007
2.00339
6.83587
7.90189
7.75743
7.62193
7.46205
7.29623
7.12328
6.94359
6.75754
6.56666
6.37045
6.17076
1
1
1
1
1
1
1
1
1
1
1
1
1
1
1
1
1
1
1
1
1
1
1
1
1
1
1
1
1
1
1
1
1
1
1
1.07161
4.42825
7.61372
7.7104
7.57657
7.42543
7.26785
7.10326
6.9311
6.75227
6.56893
6.38171
6.18907
1
1
1
1
1
1
1
1
1
1
1
1
1
1
1
1
1
1
1
1
1
1
1
1
1
1
1
1
1
1
1
1
1
1
1
1.0006
1.75421
6.30729
7.71441
7.5546
7.4169
7.26468
7.10213
6.9309
6.75486
6.57597
6.3955
6.21018
1
1
1
1
1
1
1
1
1
1
1
1
1
1
1
1
1
1
1
1
1
1
1
1
1
1
1
1
1
1
1
1
1
1
1
1
1.04165
3.50182
7.23631
7.52718
7.38809
7.24386
7.08588
6.92026
6.7506
6.57787
6.40263
6.22477
1
1
1
1
1
1
1
1
1
1
1
1
1
1
1
1
1
1
1
1
1
1
1
1
1
1
1
1
1
1
1
1
1
1
1
1
1.00034
1.41437
5.59441
7.57519
7.39156
7.23966
7.07925
6.92174
6.75987
6.59243
6.42011
6.24605
1
1
1
1
1
1
1
1
1
1
1
1
1
1
1
1
1
1
1
1
1
1
1
1
1
1
1
1
1
1
1
1
1
1
1
1
1
1.01368
2.604
6.70905
7.33387
7.19791
7.05638
6.90958
6.7548
6.5936
6.42767
6.25862
1
1
1
1
1
1
1
1
1
1
1
1
1
1
1
1
1
1
1
1
1
1
1
1
1
1
1
1
1
1
1
1
1
1
1
1
1
1.00008
1.17383
4.45105
7.20792
7.22028
7.0833
6.93621
6.78058
6.61916
6.45424
6.28652
1
1
1
1
1
1
1
1
1
1
1
1
1
1
1
1
1
1
1
1
1
1
1
1
1
1
1
1
1
1
1
1
1
1
1
1
1
1
1.00315
1.81706
5.88323
7.2373
7.07168
6.92385
6.77174
6.61744
6.45979
6.29829
1
1
1
1
1
1
1
1
1
1
1
1
1
1
1
1
1
1
1
1
1
1
1
1
1
1
1
1
1
1
1
1
1
1
1
1
1
1
1.00001
1.04895
3.06368
6.63724
7.06174
6.91812
6.77414
6.62614
6.4732
6.31629
1
1
1
1
1
1
1
1
1
1
1
1
1
1
1
1
1
1
1
1
1
1
1
1
1
1
1
1
1
1
1
1
1
1
1
1
1
1
1
1.00054
1.2849
4.62625
6.94253
6.94907
6.80645
6.65553
6.50083
6.34496
1
1
1
1
1
1
1
1
1
1
1
1
1
1
1
1
1
1
1
1
1
1
1
1
1
1
1
1
1
1
1
1
1
1
1
1
1
1
1
1
1.00761
1.94593
5.73184
6.93302
6.80976
6.65945
6.51018
6.35698
1
1
1
1
1
1
1
1
1
1
1
1
1
1
1
1
1
1
1
1
1
1
1
1
1
1
1
1
1
1
1
1
1
1
1
1
1
1
1
1
1.00005
1.06474
3.01092
6.37421
6.81212
6.67068
6.52027
6.37465
1
1
1
1
1
1
1
1
1
1
1
1
1
1
1
1
1
1
1
1
1
1
1
1
1
1
1
1
1
1
1
1
1
1
1
1
1
1
1
1
1
1.00084
1.27543
4.29586
6.58592
6.70048
6.56211
6.40786
1
1
1
1
1
1
1
1
1
1
1
1
1
1
1
1
1
1
1
1
1
1
1
1
1
1
1
1
1
1
1
1
1
1
1
1
1
1
1
1
1
1
1.00764
1.78143
5.24027
6.65605
6.59408
6.43931
1
1
1
1
1
1
1
1
1
1
1
1
1
1
1
1
1
1
1
1
1
1
1
1
1
1
1
1
1
1
1
1
1
1
1
1
1
1
1
1
1
1
1.00005
1.04635
2.5563
5.88419
6.57359
6.46586
1
1
1
1
1
1
1
1
1
1
1
1
1
1
1
1
1
1
1
1
1
1
1
1
1
1
1
1
1
1
1
1
1
1
1
1
1
1
1
1
1
1
1
1.00057
1.17088
3.51045
6.21732
6.49269
1
1
1
1
1
1
1
1
1
1
1
1
1
1
1
1
1
1
1
1
1
1
1
1
1
1
1
1
1
1
1
1
1
1
1
1
1
1
1
1
1
1
1
1
1.00371
1.44855
4.44375
6.28829
1
1
1
1
1
1
1
1
1
1
1
1
1
1
1
1
1
1
1
1
1
1
1
1
1
1
1
1
1
1
1
1
1
1
1
1
1
1
1
1
1
1
1
1
1.00002
1.01815
1.9228
5.08338
1
1
1
1
1
1
1
1
1
1
1
1
1
1
1
1
1
1
1
1
1
1
1
1
1
1
1
1
1
1
1
1
1
1
1
1
1
1
1
1
1
1
1
1
1
1.00017
1.06486
2.52906
1
1
1
1
1
1
1
1
1
1
1
1
1
1
1
1
1
1
1
1
1
1
1
1
1
1
1
1
1
1
1
1
1
1
1
1
1
1
1
1
1
1
1
1
1
1
1.00097
1.17048
1
1
1
1
1
1
1
1
1
1
1
1
1
1
1
1
1
1
1
1
1
1
1
1
1
1
1
1
1
1
1
1
1
1
1
1
1
1
1
1
1
1
1
1
1
1
1
1.00396
1
1
1
1
1
1
1
1
1
1
1
1
1
1
1
1
1
1
1
1
1
1
1
1
1
1
1
1
1
1
1
1
1
1
1
1
1
1
1
1
1
1
1
1
1
1
1
1.00002
1
1
1
1
1
1
1
1
1
1
1
1
1
1
1
1
1
1
1
1
1
1
1
1
1
1
1
1
1
1
1
1
1
1
1
1
1
1
1
1
1
1
1
1
1
1
1
1
1
1
1
1
1
1
1
1
1
1
1
1
1
1
1
1
1
1
1
1
1
1
1
1
1
1
1
1
1
1
1
1
1
1
1
1
1
1
1
1
1
1
1
1
1
1
1
1
1
1
1
1
1
1
1
1
1
1
1
1
1
1
1
1
1
1
1
1
1
1
1
1
1
1
1
1
1
1
1
1
1
1
1
1
1
1
1
1
1
1
1
1
1
1
1
1
1
1
1
1
1
1
1
1
1
1
1
1
1
1
1
1
1
1
1
1
1
1
1
1
1
1
1
1
1
1
1
1
1
1
1
1
1
1
1
1
1
1
1
1
1
1
1
1
1
1
1
1
1
1
1
1
1
1
1
1
1
1
1
1
1
1
1
1
1
1
1
1
1
1
1
1
1
1
1
1
1
1
1
1
1
1
1
1
1
1
1
1
1
1
1
1
1
1
1
1
1
1
1
1
1
1
1
1
1
1
1
1
1
1
1
1
1
1
1
1
1
1
1
1
1
1
1
1
1
1
1
1
1
1
1
1
1
1
1
1
1
1
1
1
1
1
1
1
1
1
1
1
1
1
1
1
1
1
1
1
1
1
1
1
1
1
1
1
1
1
1
1
1
1
1
1
1
1
1
1
1
1
1
1
1
1
1
1
1
1
1
1
1
1
1
1
1
1
1
1
1
1
1
1
1
1
1
1
1
1
1
1
1
1
1
1
1
1
1
1
1
1
1
1
1
1
1
1
1
1
1
1
1
1
1
1
1
1
1
1
1
1
1
1
1
1
1
1
1
1
1
1
1
1
1
1
1
1
1
1
1
1
1
1
1
1
1
1
1
1
1
1
1
1
1
1
1
1
1
1
1
1
1
1
1
1
1
1
1
1
1
1
1
1
1
1
1
1
1
1
1
1
1
1
1
1
1
1
1
1
1
1
1
1
1
1
1
1
1
1
1
1
1
1
1
1
1
1
1
1
1
1
1
1
1
1
1
1
1
1
1
1
1
1
1
1
1
1
1
1
1
1
1
1
1
1
1
1
1
1
1
1
1
1
1
1
1
1
1
1
1
1
1
1
1
1
1
1
1
1
1
1
1
1
1
1
1
1
1
1
1
1
1
1
1
1
1
1
1
1
1
1
1
1
1
1
1
1
1
1
1
1
1
1
1
1
1
1
1
1
1
1
1
1
1
1
1
1
1
1
1
1
1
1
1
1
1
1
1
1
1
1
1
1
1
1
1
1
1
1
1
1
1
1
1
1
1
1
1
1
1
1
1
1
1
1
1
1
1
1
1
1
1
1
1
1
1
1
1
1
1
1
1
1
1
1
1
1
1
1
1
1
1
1
1
1
1
1
1
1
1
1
1
1
1
1
1
1
1
1
1
1
1
1
1
1
1
1
1
1
1
1
1
1
1
1
1
1
1
1
1
1
1
1
1
1
1
1
1
1
1
1
1
1
1
1
1
1
1
1
1
1
1
1
1
1
1
1
1
1
1
1
1
1
1
1
1
1
1
1
1
1
1
1
1
1
1
1
1
1
1
1
1
1
1
1
1
1
1
1
1
1
1
1
1
1
1
1
1
1
1
1
1
1
1
1
1
1
1
1
1
1
1
1
1
1
1
1
1
1
1
1
1
1
1
1
1
1
1
1
1
1
1
1
1
1
1
1
1
1
1
1
1
1
1
1
1
1
1
1
1
1
1
1
1
1
1
1
1
1
1
1
1
1
1
1
1
1
1
1
1
1
1.17838
0.203747
0.129411
0.0834273
0.0426766
0.0492129
0.0842285
0.145975
0.202337
0.262212
0.346974
0.436657
0.507224
0.562182
0.627998
0.729732
0.785683
0.827926
0.901353
0.916603
0.921371
0.95848
0.982735
1.00398
1.02534
1.02751
1.033
1.04506
1.07119
1.11133
1.15657
1.18902
1.1844
1.18005
1.16738
1.16469
1.17821
1.20171
1.24191
1.26857
1.27077
1.26878
1.25523
1.23859
1.23664
1.23992
1.25172
1.27498
1.29086
1.29156
1.28737
1.27983
1.27013
1.26536
1.26511
1.268
1.27681
1.28614
1.28987
1.29217
1.29427
1.29545
1.29581
1.29614
1.2939
1.29033
1.2885
1.2892
1.29352
1.29561
1.29274
1.28853
1.28185
1.27185
1.26538
1.26235
1.25971
1.25765
1.25636
1.2568
1.25734
1.25741
1.25537
1.25185
1.25075
1.26981
1.48095
2.08895
3.31096
4.78875
6.2793
6.8924
6.63635
6.15006
5.87449
5.77554
5.6983
5.64302
5.60412
5.5807
5.53639
5.46108
5.38031
5.29467
5.21916
5.15407
5.11131
5.07405
5.01741
4.95966
4.90022
4.84368
4.78683
4.73285
4.68164
4.62533
4.56922
4.51448
4.46322
4.41624
4.372
4.32829
4.28263
4.23349
4.18107
4.12977
4.08492
4.04687
4.01254
3.97934
3.94665
3.915
3.88319
3.84839
3.80579
3.75192
3.69858
3.65788
3.6235
3.59084
3.55871
3.52598
3.4902
3.44654
3.39328
3.34838
3.31739
3.29091
3.27038
3.24699
3.22189
3.19692
3.16867
3.1342
3.09659
3.06779
3.0493
3.0336
3.01746
2.99606
2.95613
2.89066
2.83096
2.79954
2.782
2.76843
2.75639
2.7488
2.747
2.74102
2.72917
2.71411
2.68681
2.63476
2.56532
2.51444
2.48918
2.47268
2.45735
2.44472
2.44308
2.45299
2.44315
2.4255
2.41093
2.39036
2.35127
2.28892
2.23154
2.20337
2.19176
2.17987
2.18776
0.916055
0.60105
0.449473
0.295933
0.211856
0.215321
0.237555
0.2408
0.247915
0.255323
0.282782
0.325727
0.361078
0.39744
0.463747
0.568659
0.633652
0.693694
0.775965
0.841178
0.893116
0.931036
0.955707
0.982053
1.00287
1.02454
1.04244
1.06861
1.0988
1.12234
1.14516
1.15924
1.16701
1.17231
1.17437
1.18495
1.19885
1.22253
1.24363
1.25062
1.25351
1.25334
1.24857
1.24731
1.24853
1.25537
1.26876
1.27378
1.27167
1.26718
1.26409
1.26461
1.267
1.27085
1.277
1.28157
1.28264
1.2822
1.28052
1.28088
1.28266
1.28574
1.29101
1.29586
1.29663
1.29458
1.29364
1.29423
1.29278
1.28913
1.28448
1.27826
1.26964
1.26372
1.26132
1.25965
1.25846
1.25825
1.25999
1.26137
1.25801
1.25063
1.25094
1.28203
1.48152
2.06604
2.61236
2.98634
3.61935
4.50232
5.48731
5.99267
5.9493
5.90499
5.82393
5.7162
5.63895
5.59297
5.55437
5.50626
5.44248
5.37607
5.30885
5.24201
5.17971
5.13005
5.0754
5.01374
4.9512
4.887
4.83006
4.77603
4.72487
4.67769
4.62774
4.57634
4.52645
4.47865
4.43286
4.38835
4.34346
4.29606
4.24385
4.18613
4.12822
4.07925
4.04124
4.00898
3.97794
3.9459
3.91177
3.87574
3.83676
3.79157
3.73931
3.69158
3.65543
3.62372
3.5935
3.56416
3.53444
3.50196
3.46309
3.41488
3.36208
3.31929
3.28849
3.26322
3.24259
3.21987
3.19655
3.17156
3.14257
3.10943
3.07635
3.04898
3.02661
3.00461
2.98028
2.94945
2.90713
2.86055
2.81936
2.79119
2.77463
2.76258
2.75401
2.74755
2.73535
2.71882
2.69377
2.65963
2.61896
2.57723
2.53938
2.5049
2.48045
2.46486
2.45282
2.44821
2.44994
2.43588
2.41643
2.39772
2.37657
2.34682
2.30709
2.26226
2.21955
2.19453
2.17902
3.0157
1.84489
1.10015
0.846605
0.652288
0.449344
0.402796
0.399394
0.373991
0.308765
0.299167
0.318261
0.344336
0.358667
0.372126
0.379382
0.413478
0.475473
0.541573
0.624708
0.720517
0.786001
0.847214
0.896633
0.947477
0.989671
1.0287
1.06288
1.0867
1.10765
1.12283
1.13293
1.14499
1.16142
1.17901
1.19189
1.20507
1.21974
1.22908
1.23423
1.24022
1.2453
1.24803
1.24679
1.24709
1.25059
1.26293
1.27658
1.27857
1.27648
1.26955
1.25883
1.25728
1.26074
1.26934
1.28444
1.2919
1.29283
1.29095
1.28344
1.27695
1.27593
1.27775
1.28194
1.28792
1.29261
1.29605
1.29802
1.29656
1.29361
1.2897
1.28474
1.27742
1.26747
1.26193
1.25986
1.25841
1.25739
1.2575
1.2595
1.26144
1.25938
1.26827
1.33673
1.60247
2.16835
2.74448
2.93449
2.90408
2.93842
3.27388
4.08146
5.20978
5.77814
6.04613
5.91775
5.78322
5.65326
5.59292
5.53243
5.47183
5.41403
5.35305
5.30327
5.25424
5.20783
5.15227
5.08708
5.01844
4.95027
4.88526
4.82691
4.77408
4.72086
4.66777
4.61547
4.56468
4.5163
4.47063
4.42754
4.38617
4.34525
4.3031
4.2564
4.20055
4.13524
4.07127
4.02158
3.98728
3.96156
3.93805
3.91245
3.88098
3.83727
3.7758
3.71262
3.66876
3.63481
3.60259
3.57098
3.54105
3.5139
3.488
3.46064
3.42937
3.38926
3.34132
3.29236
3.25303
3.22636
3.20318
3.18143
3.16119
3.14156
3.12053
3.09402
3.06002
3.02232
2.98652
2.95197
2.91958
2.89731
2.87708
2.8533
2.82339
2.794
2.77389
2.75916
2.74405
2.72649
2.70413
2.67253
2.62926
2.58792
2.56541
2.54817
2.5275
2.50067
2.47895
2.4648
2.45368
2.44148
2.4231
2.40216
2.37953
2.35378
2.3279
2.30799
2.28835
2.26007
2.21988
2.18178
3.58072
2.52617
1.73463
1.34621
1.07276
0.792148
0.647165
0.61323
0.573345
0.509746
0.46551
0.450069
0.441736
0.428764
0.408843
0.400735
0.412078
0.42834
0.44391
0.472444
0.539333
0.611223
0.692659
0.76739
0.827135
0.883724
0.928284
0.977071
1.01345
1.04675
1.08557
1.10382
1.12462
1.1557
1.18681
1.20785
1.2182
1.22328
1.22369
1.21909
1.22153
1.22781
1.23265
1.23344
1.23446
1.24102
1.25513
1.26702
1.27234
1.27393
1.27215
1.26428
1.25585
1.25558
1.26041
1.27135
1.27964
1.2821
1.28426
1.28463
1.28288
1.28367
1.28446
1.28437
1.28442
1.28611
1.28954
1.29277
1.29264
1.29112
1.28933
1.28688
1.28153
1.2718
1.26404
1.26041
1.25813
1.25617
1.25374
1.25279
1.25437
1.26728
1.35382
1.77415
2.33023
2.82838
2.99
3.00045
2.96654
2.92795
2.89871
3.02996
3.6277
4.60254
5.43544
5.62506
5.78505
5.73931
5.67684
5.58909
5.4846
5.39543
5.31835
5.26981
5.23559
5.2041
5.15211
5.08542
5.00891
4.94103
4.88219
4.82847
4.77878
4.72786
4.6736
4.61764
4.56422
4.51354
4.4657
4.42094
4.37795
4.33636
4.29574
4.25355
4.20508
4.1468
4.08378
4.02775
3.98189
3.94685
3.92247
3.9
3.872
3.83163
3.77602
3.72564
3.68997
3.65661
3.62204
3.58584
3.54888
3.51307
3.48052
3.45257
3.42514
3.39464
3.35933
3.31614
3.26573
3.22111
3.19074
3.1679
3.14862
3.13153
3.11452
3.095
3.06803
3.02743
2.97598
2.9307
2.90616
2.89199
2.87881
2.86486
2.84719
2.82187
2.79275
2.76731
2.74506
2.72009
2.68594
2.64192
2.59954
2.5758
2.56241
2.54981
2.53633
2.52081
2.50016
2.4733
2.45008
2.43138
2.41159
2.3881
2.36089
2.33369
2.31622
2.30638
2.29742
2.28402
2.26101
2.20794
4.0094
3.08619
2.34136
1.82447
1.47367
1.18495
1.02065
0.912803
0.785391
0.706613
0.660672
0.597949
0.570151
0.558066
0.523359
0.495267
0.499327
0.498571
0.492074
0.49574
0.495343
0.501726
0.520693
0.553982
0.603983
0.680563
0.761178
0.843396
0.916528
0.965643
1.01945
1.04989
1.07497
1.11071
1.14539
1.16883
1.18906
1.19641
1.19826
1.19882
1.20875
1.22031
1.23425
1.24696
1.25495
1.25721
1.25555
1.25643
1.25798
1.26046
1.26109
1.26176
1.26056
1.25826
1.25893
1.2626
1.26897
1.2736
1.27783
1.28233
1.28568
1.28788
1.28809
1.28589
1.28337
1.28272
1.28415
1.28743
1.29012
1.29067
1.28981
1.2864
1.27873
1.2677
1.26125
1.2592
1.25807
1.25757
1.25733
1.26016
1.27865
1.39115
1.83993
2.56738
2.89275
3.03764
3.02901
3.00656
2.98415
2.95023
2.91325
2.8765
2.9092
3.20242
3.97443
4.8081
5.39908
5.55734
5.62834
5.60809
5.53269
5.43503
5.34779
5.27565
5.2223
5.18427
5.13723
5.07037
5.00183
4.94015
4.88116
4.82667
4.7741
4.72351
4.67119
4.61534
4.56025
4.50952
4.465
4.42175
4.37778
4.33341
4.289
4.24363
4.19492
4.14215
4.08863
4.03945
3.99557
3.95508
3.91699
3.88035
3.84002
3.79114
3.74632
3.71712
3.69126
3.66462
3.63702
3.60701
3.57206
3.53064
3.48713
3.44988
3.42002
3.39294
3.36522
3.33346
3.29185
3.23938
3.19059
3.15799
3.13687
3.12019
3.1041
3.08322
3.05384
3.01515
2.97267
2.93957
2.9178
2.90061
2.88531
2.87004
2.85364
2.83381
2.80763
2.77437
2.73652
2.69616
2.65328
2.6153
2.59438
2.58123
2.57018
2.55905
2.54743
2.53355
2.51386
2.48218
2.44027
2.40892
2.38803
2.36644
2.34324
2.32519
2.31478
2.30732
2.30018
2.29157
2.27985
2.24059
4.36127
3.49542
2.82867
2.33139
1.90158
1.54469
1.37258
1.23605
1.07414
0.931192
0.88063
0.811966
0.728725
0.714263
0.699267
0.652753
0.622406
0.604836
0.578345
0.558046
0.544634
0.531966
0.529463
0.532016
0.538688
0.556815
0.586353
0.625476
0.680138
0.735293
0.80791
0.895019
0.961985
1.04005
1.09721
1.13618
1.16919
1.1794
1.17839
1.17715
1.18603
1.20067
1.22866
1.25574
1.26127
1.26053
1.25001
1.23968
1.23831
1.23961
1.2437
1.25044
1.25807
1.25981
1.25907
1.26072
1.26556
1.27126
1.27836
1.28437
1.28623
1.28693
1.28711
1.28534
1.28386
1.28504
1.28884
1.29179
1.29183
1.29004
1.28577
1.27957
1.27266
1.26868
1.2675
1.26725
1.26555
1.26271
1.2643
1.28958
1.45081
1.92375
2.67741
2.9782
3.07191
3.06253
3.02819
3.00475
2.98624
2.9614
2.92803
2.88484
2.85027
2.84383
2.95177
3.39525
4.18687
4.90523
5.31723
5.48938
5.45769
5.43157
5.38757
5.33189
5.25782
5.18075
5.10956
5.03985
4.98696
4.93753
4.88962
4.84138
4.79356
4.74166
4.68483
4.62075
4.55409
4.4966
4.44927
4.40724
4.36828
4.32874
4.2859
4.23854
4.18683
4.13422
4.08577
4.04379
4.00613
3.96809
3.9257
3.87686
3.82164
3.77029
3.73753
3.71213
3.68962
3.67072
3.64898
3.62271
3.59054
3.54523
3.491
3.44507
3.41253
3.38603
3.36025
3.33271
3.3
3.25836
3.2074
3.1589
3.12848
3.11023
3.09044
3.06254
3.03077
3.00072
2.97633
2.95484
2.93181
2.90943
2.89261
2.87827
2.86327
2.84525
2.816
2.76818
2.71123
2.66164
2.62796
2.60909
2.59552
2.58718
2.58019
2.5703
2.55916
2.54584
2.52699
2.49402
2.44051
2.3881
2.36092
2.34322
2.32853
2.32023
2.3137
2.30775
2.30088
2.29292
2.28467
2.25741
4.64852
3.88312
3.23801
2.74455
2.31377
1.95767
1.73239
1.54775
1.35731
1.18783
1.10259
1.04636
0.944023
0.852573
0.832096
0.801331
0.748076
0.719782
0.693383
0.657524
0.63909
0.628529
0.617031
0.60453
0.5864
0.580324
0.581846
0.57747
0.578795
0.585637
0.607814
0.663254
0.744868
0.842511
0.952615
1.03084
1.08661
1.13445
1.14675
1.14449
1.15197
1.17475
1.21481
1.25032
1.26
1.26046
1.25274
1.23146
1.21963
1.21909
1.223
1.23423
1.24765
1.25769
1.26182
1.26404
1.26683
1.26861
1.27087
1.27348
1.2746
1.2748
1.27521
1.27775
1.28521
1.29604
1.30075
1.30048
1.29768
1.29143
1.28424
1.27831
1.27493
1.27293
1.27001
1.26517
1.25927
1.26191
1.29911
1.54336
2.09164
2.69411
3.0786
3.1233
3.09859
3.05938
3.02076
2.99156
2.97289
2.95359
2.92942
2.89262
2.85455
2.82496
2.80963
2.83146
3.00605
3.55056
4.26977
4.9791
5.18384
5.32334
5.34011
5.33887
5.27801
5.183
5.10401
5.03845
4.98398
4.92551
4.87822
4.83672
4.79582
4.74838
4.69082
4.623
4.55377
4.49243
4.44101
4.39815
4.35958
4.32157
4.28174
4.23711
4.18672
4.13177
4.08178
4.04136
4.00492
3.96614
3.922
3.87124
3.81564
3.7708
3.7399
3.71333
3.68993
3.67185
3.64987
3.62249
3.58749
3.5413
3.4888
3.44042
3.40129
3.37132
3.34586
3.32158
3.29788
3.27055
3.23301
3.18116
3.12362
3.07555
3.04609
3.02918
3.01117
2.99451
2.98069
2.96603
2.94829
2.92765
2.90608
2.88666
2.86851
2.83792
2.79043
2.73364
2.68304
2.64954
2.63019
2.61475
2.60301
2.5962
2.58754
2.57583
2.56292
2.54867
2.52825
2.4925
2.43972
2.38476
2.35062
2.33255
2.32041
2.31238
2.30614
2.30186
2.29793
2.29135
2.28466
2.26275
4.86316
4.18666
3.61739
3.12885
2.67748
2.3477
2.08113
1.85579
1.66584
1.48267
1.31481
1.23403
1.16445
1.06208
0.985219
0.949444
0.891507
0.831138
0.809902
0.783834
0.746207
0.724281
0.70772
0.690256
0.671564
0.654058
0.636219
0.611143
0.590887
0.589136
0.590612
0.601059
0.622524
0.65492
0.705974
0.768064
0.830946
0.908302
0.992669
1.066
1.10319
1.13379
1.17879
1.22976
1.25149
1.25384
1.25134
1.23634
1.20992
1.20245
1.2041
1.21294
1.23305
1.24913
1.25551
1.26207
1.26684
1.26819
1.26696
1.26454
1.26241
1.26105
1.26288
1.26975
1.28536
1.29753
1.29896
1.29829
1.29411
1.28637
1.28106
1.27751
1.27407
1.27036
1.26533
1.25845
1.25912
1.31156
1.6279
2.31552
2.79412
3.09039
3.14025
3.12188
3.07585
3.04586
3.02518
2.99612
2.97021
2.95203
2.93009
2.89134
2.85261
2.82647
2.80008
2.78474
2.77018
2.8191
3.04639
3.6302
4.30565
4.89633
5.12528
5.24105
5.20131
5.16262
5.10708
5.05033
4.99256
4.92507
4.85704
4.79421
4.74882
4.71117
4.66675
4.61667
4.55954
4.50147
4.44762
4.3998
4.35669
4.31637
4.27677
4.23345
4.1825
4.12858
4.07794
4.03583
3.99782
3.95705
3.91438
3.87126
3.83056
3.79297
3.75586
3.72165
3.69336
3.6659
3.63601
3.60344
3.56757
3.52734
3.48732
3.44749
3.40482
3.36662
3.34298
3.32498
3.30252
3.27459
3.23847
3.19379
3.13573
3.07395
3.03273
3.00748
2.99209
2.98213
2.97892
2.97705
2.9667
2.95147
2.9287
2.89183
2.84374
2.79751
2.74847
2.70306
2.67399
2.65594
2.63959
2.62609
2.61679
2.60775
2.59513
2.58154
2.56753
2.5478
2.5181
2.48027
2.44187
2.40247
2.36167
2.33728
2.32808
2.32019
2.31291
2.30674
2.30169
2.29402
2.28425
2.26149
5.03699
4.44573
3.93532
3.45308
3.01934
2.7042
2.41526
2.13995
1.93046
1.76197
1.59051
1.42614
1.33805
1.24839
1.14758
1.09093
1.0495
0.989284
0.93138
0.891061
0.846162
0.818384
0.80192
0.781873
0.763224
0.743101
0.718744
0.69421
0.672084
0.653259
0.634966
0.631271
0.635148
0.639563
0.638006
0.639233
0.647467
0.674249
0.737206
0.833351
0.955644
1.06234
1.11888
1.15871
1.19575
1.22256
1.22825
1.22615
1.21617
1.20218
1.19744
1.20071
1.21352
1.22892
1.24254
1.25338
1.25872
1.26146
1.26296
1.26053
1.25409
1.25335
1.25647
1.26499
1.28019
1.29076
1.29184
1.29111
1.2874
1.28134
1.27773
1.27478
1.27132
1.26723
1.26082
1.26541
1.34751
1.72521
2.48972
2.93938
3.09203
3.1211
3.11007
3.09396
3.06333
3.03685
3.01965
3.00116
2.97083
2.94399
2.91825
2.88317
2.84369
2.82059
2.79919
2.77601
2.75424
2.73471
2.72179
2.79001
3.06924
3.6455
4.32318
4.85949
5.07159
5.08855
5.09277
5.05664
4.99866
4.92546
4.84391
4.77538
4.71512
4.67174
4.63725
4.59999
4.55849
4.51234
4.46422
4.4137
4.36171
4.31279
4.26854
4.22493
4.18071
4.13419
4.08089
4.02365
3.9756
3.939
3.90634
3.87785
3.85083
3.82138
3.7838
3.73317
3.67517
3.62195
3.58245
3.55171
3.52669
3.50561
3.48286
3.45803
3.4259
3.3834
3.33786
3.29903
3.27026
3.24466
3.22074
3.1926
3.15275
3.10049
3.04364
3.00909
2.99389
2.98676
2.99597
2.99982
2.985
2.96459
2.93251
2.87695
2.80757
2.75226
2.71553
2.69273
2.67866
2.66684
2.65703
2.64933
2.6394
2.62411
2.60655
2.58492
2.55275
2.51951
2.49113
2.46855
2.44993
2.42797
2.39452
2.35147
2.31685
2.29708
2.28645
2.27674
2.26934
2.26387
2.26686
2.2539
5.17068
4.66017
4.18916
3.71272
3.33237
3.00302
2.69777
2.4087
2.19539
1.99393
1.80796
1.63938
1.52969
1.4381
1.33446
1.2358
1.17542
1.12606
1.07506
1.03141
0.979543
0.930913
0.904416
0.8777
0.85431
0.832695
0.801362
0.763409
0.740505
0.722735
0.705792
0.693806
0.685924
0.675248
0.661181
0.646995
0.638627
0.637271
0.642574
0.664007
0.719688
0.808271
0.912737
1.00355
1.06923
1.11677
1.14314
1.17671
1.1966
1.20252
1.21319
1.21517
1.21069
1.21078
1.21713
1.22949
1.24128
1.24822
1.25119
1.25257
1.25559
1.25831
1.2598
1.26485
1.27409
1.27742
1.27758
1.27765
1.27727
1.27559
1.27416
1.27188
1.26873
1.2644
1.27788
1.41596
1.85963
2.59262
3.07578
3.11103
3.13201
3.12662
3.0966
3.07895
3.05288
3.0239
3.00403
2.98967
2.96353
2.93327
2.90692
2.87459
2.83452
2.80651
2.78666
2.76972
2.74976
2.72862
2.7067
2.67701
2.6704
2.75162
3.07157
3.64614
4.29477
4.71757
4.98217
5.01879
5.00487
4.93541
4.85526
4.78979
4.71442
4.6565
4.60809
4.56809
4.53381
4.50313
4.46736
4.42336
4.36477
4.30289
4.25593
4.21552
4.1776
4.13827
4.08912
4.02495
3.96773
3.93238
3.90796
3.89016
3.86875
3.83757
3.79581
3.73758
3.66897
3.6077
3.55862
3.52577
3.50405
3.49324
3.48824
3.46821
3.43994
3.39833
3.33994
3.28729
3.25138
3.22429
3.19842
3.17404
3.15286
3.12656
3.09218
3.0515
3.01645
2.99717
2.98194
2.97011
2.9597
2.94091
2.90933
2.85532
2.78738
2.73361
2.70616
2.69215
2.6828
2.68196
2.68236
2.67343
2.65796
2.63847
2.60936
2.56633
2.52768
2.49879
2.47728
2.46626
2.45831
2.44681
2.4162
2.36736
2.32127
2.29279
2.27334
2.26148
2.25339
2.24693
2.25586
2.26017
5.29321
4.84006
4.38284
3.94665
3.59185
3.25481
2.92932
2.66258
2.42841
2.21973
2.02089
1.85893
1.71943
1.60148
1.50783
1.42528
1.34973
1.2622
1.18326
1.13742
1.09924
1.05659
1.02298
0.990163
0.946659