/*--------------------------------*- C++ -*----------------------------------*\
  =========                 |
  \\      /  F ield         | OpenFOAM: The Open Source CFD Toolbox
   \\    /   O peration     | Website:  https://openfoam.org
    \\  /    A nd           | Version:  7
     \\/     M anipulation  |
\*---------------------------------------------------------------------------*/
FoamFile
{
    version     2.0;
    format      ascii;
    class       volVectorField;
    location    "1.9";
    object      U;
}
// * * * * * * * * * * * * * * * * * * * * * * * * * * * * * * * * * * * * * //

dimensions      [0 1 -1 0 0 0 0];

internalField   nonuniform List<vector> 
16128
(
(3 -9.8358e-17 0)
(3 -1.61494e-17 0)
(3 6.3886e-17 0)
(3 -1.41066e-16 0)
(3 -1.18234e-16 0)
(3 3.58303e-18 0)
(3 -1.3519e-16 0)
(3 2.88705e-16 0)
(3 7.71281e-16 0)
(3 1.22484e-15 0)
(3 1.29442e-15 0)
(3 7.98947e-16 0)
(3 7.48555e-16 0)
(3 1.53082e-16 0)
(3 1.72705e-17 0)
(3 -2.62312e-16 0)
(3 -2.10189e-16 0)
(3 -3.41458e-16 0)
(3 -9.87395e-16 0)
(3 -1.64451e-15 0)
(3 -8.8162e-16 0)
(3 -6.22014e-16 0)
(3 -5.74012e-16 0)
(3 -3.45017e-16 0)
(2.93681 0.00114828 0)
(1.01605 0.0100474 0)
(0.723864 0.0128336 0)
(0.692427 0.0119467 0)
(0.664376 0.0111063 0)
(0.63772 0.0108438 0)
(0.61091 0.0112443 0)
(0.583362 0.0120625 0)
(0.555222 0.0131264 0)
(0.526245 0.0142602 0)
(0.496142 0.0149031 0)
(0.465588 0.0148414 0)
(0.435042 0.0147332 0)
(0.403818 0.0151322 0)
(0.371165 0.0158623 0)
(0.337333 0.0165875 0)
(0.302577 0.0173094 0)
(0.266555 0.0179484 0)
(0.229319 0.0184491 0)
(0.191453 0.0191417 0)
(0.151097 0.0197268 0)
(0.109753 0.0206691 0)
(0.0666074 0.0212512 0)
(0.0232547 0.0220774 0)
(3 -6.22459e-16 0)
(3 -3.79216e-16 0)
(3 -5.65429e-17 0)
(3 9.03028e-17 0)
(3 2.79678e-17 0)
(3 -8.71031e-17 0)
(3 2.37542e-16 0)
(3 1.15078e-15 0)
(3 1.74333e-15 0)
(3 1.6453e-15 0)
(3 1.47619e-15 0)
(3 1.33891e-15 0)
(3 8.95867e-16 0)
(3 -4.60583e-16 0)
(3 -9.35919e-16 0)
(3 -1.21621e-15 0)
(3 -1.70873e-15 0)
(3 -1.64543e-15 0)
(3 -2.30407e-15 0)
(3 -3.08342e-15 0)
(3 -1.80958e-15 0)
(3 -1.04712e-15 0)
(3 -1.19316e-15 0)
(3 -9.11702e-16 0)
(2.93973 0.00965199 0)
(1.01859 0.0454974 0)
(0.716438 0.0410171 0)
(0.688627 0.0348058 0)
(0.662038 0.0338391 0)
(0.634644 0.0336518 0)
(0.606357 0.0345375 0)
(0.577632 0.0363942 0)
(0.54879 0.0390938 0)
(0.519331 0.042156 0)
(0.488749 0.0438514 0)
(0.457814 0.0435617 0)
(0.426953 0.0432442 0)
(0.395467 0.0444516 0)
(0.362692 0.046658 0)
(0.328989 0.0489357 0)
(0.294726 0.0513531 0)
(0.259549 0.0535927 0)
(0.223458 0.0553821 0)
(0.186906 0.0576313 0)
(0.147898 0.0595037 0)
(0.107948 0.0626049 0)
(0.0658243 0.06471 0)
(0.0231223 0.0676513 0)
(3 -6.74768e-17 0)
(3 -2.20757e-17 0)
(3 1.05853e-16 0)
(3 2.71318e-16 0)
(3 2.20182e-16 0)
(3 4.58026e-17 0)
(3 3.14766e-16 0)
(3 1.29553e-16 0)
(3 4.26001e-16 0)
(3 8.17603e-16 0)
(3 9.95319e-16 0)
(3 1.22871e-15 0)
(3 -1.46586e-16 0)
(3 -1.04454e-15 0)
(3 -1.3479e-15 0)
(3 -1.88797e-15 0)
(3 -1.49802e-15 0)
(3 -1.44675e-15 0)
(3 -1.76573e-15 0)
(3 -2.17557e-15 0)
(3 -2.09559e-15 0)
(3 -1.81872e-15 0)
(3 -1.87678e-15 0)
(3 -1.35633e-15 0)
(2.95653 0.0218694 0)
(1.03629 0.0821734 0)
(0.728533 0.0659555 0)
(0.70178 0.0555389 0)
(0.672104 0.0563201 0)
(0.641429 0.0576704 0)
(0.610102 0.0597593 0)
(0.578983 0.0627973 0)
(0.548453 0.0670114 0)
(0.517794 0.0717138 0)
(0.486187 0.0742125 0)
(0.454346 0.0736443 0)
(0.422496 0.0731573 0)
(0.389879 0.0750329 0)
(0.355934 0.0782882 0)
(0.321181 0.0814895 0)
(0.286192 0.0849143 0)
(0.250739 0.0881278 0)
(0.214954 0.0907534 0)
(0.179279 0.0943165 0)
(0.141564 0.0973334 0)
(0.103607 0.102612 0)
(0.0633302 0.106382 0)
(0.0223956 0.111702 0)
(3 4.64662e-16 0)
(3 8.08904e-17 0)
(3 -2.10398e-17 0)
(3 -1.42095e-16 0)
(3 -2.93422e-16 0)
(3 -2.78917e-16 0)
(3 -5.74624e-16 0)
(3 -1.33788e-15 0)
(3 -1.19018e-15 0)
(3 -5.07709e-16 0)
(3 2.31196e-16 0)
(3 -6.50542e-16 0)
(3 -5.42042e-16 0)
(3 -8.52021e-16 0)
(3 -1.22354e-15 0)
(3 -1.20971e-15 0)
(3 -1.99526e-16 0)
(3 1.0789e-16 0)
(3 1.95439e-16 0)
(3 -3.57078e-16 0)
(3 -8.69261e-16 0)
(3 -1.35165e-15 0)
(3 -2.01915e-15 0)
(3 -1.17195e-15 0)
(2.99239 0.0058463 0)
(1.08592 0.101285 0)
(0.746578 0.0814211 0)
(0.713921 0.0804824 0)
(0.678349 0.0833335 0)
(0.643893 0.0846433 0)
(0.611588 0.0865253 0)
(0.580996 0.0900068 0)
(0.55117 0.0953276 0)
(0.520832 0.101522 0)
(0.489041 0.104962 0)
(0.456728 0.104475 0)
(0.4241 0.10427 0)
(0.39042 0.107173 0)
(0.355179 0.111654 0)
(0.318998 0.115751 0)
(0.282612 0.119937 0)
(0.245934 0.123661 0)
(0.209372 0.126545 0)
(0.1735 0.130841 0)
(0.13601 0.134342 0)
(0.0994231 0.141291 0)
(0.0606472 0.146529 0)
(0.0215473 0.154181 0)
(3 -2.1548e-16 0)
(3 -4.68887e-16 0)
(3 -6.56028e-16 0)
(3 -4.2754e-16 0)
(3 -2.43559e-16 0)
(3 -5.76976e-16 0)
(3 -7.5034e-16 0)
(3 -4.98005e-16 0)
(3 -4.42771e-16 0)
(3 -5.26316e-16 0)
(3 -8.44638e-16 0)
(3 -1.06018e-15 0)
(3 -1.03275e-15 0)
(3 -7.52033e-16 0)
(3 -1.10005e-15 0)
(3 -7.52696e-16 0)
(3 -5.49447e-16 0)
(3 -9.32096e-16 0)
(3 -8.63632e-16 0)
(3 -5.86508e-17 0)
(3 -7.1932e-17 0)
(3 4.49652e-16 0)
(3 4.16394e-16 0)
(3 5.08958e-16 0)
(3.00005 0.000174141 0)
(1.14428 0.124816 0)
(0.746787 0.105168 0)
(0.711734 0.108806 0)
(0.678402 0.111484 0)
(0.645987 0.111731 0)
(0.614989 0.112977 0)
(0.584897 0.116777 0)
(0.55505 0.123225 0)
(0.524611 0.131004 0)
(0.492729 0.135628 0)
(0.460329 0.135577 0)
(0.427439 0.136014 0)
(0.393274 0.140195 0)
(0.357293 0.146045 0)
(0.320162 0.151087 0)
(0.282765 0.155996 0)
(0.245048 0.160104 0)
(0.207618 0.16307 0)
(0.171198 0.167879 0)
(0.133209 0.171372 0)
(0.0971007 0.179351 0)
(0.0589545 0.185601 0)
(0.0210387 0.195215 0)
(3 -4.30341e-17 0)
(3 -2.32194e-16 0)
(3 -1.40808e-16 0)
(3 -7.16987e-17 0)
(3 2.33661e-16 0)
(3 6.51216e-16 0)
(3 9.76419e-17 0)
(3 5.36271e-16 0)
(3 4.69923e-16 0)
(3 -2.34465e-16 0)
(3 -8.07835e-16 0)
(3 3.4764e-16 0)
(3 7.12365e-17 0)
(3 3.13729e-16 0)
(3 5.06171e-17 0)
(3 4.77829e-16 0)
(3 2.53573e-16 0)
(3 -6.80406e-16 0)
(3 -1.19351e-15 0)
(3 -3.01227e-16 0)
(3 6.19168e-17 0)
(3 7.463e-16 0)
(3 9.28144e-16 0)
(3 6.67449e-16 0)
(3 2.07993e-07 0)
(1.23289 0.15138 0)
(0.753148 0.126918 0)
(0.713927 0.134987 0)
(0.680607 0.138346 0)
(0.647547 0.138848 0)
(0.616068 0.140111 0)
(0.585792 0.144033 0)
(0.556099 0.151123 0)
(0.526128 0.160169 0)
(0.494573 0.166084 0)
(0.462159 0.166821 0)
(0.429104 0.168229 0)
(0.39489 0.173884 0)
(0.359067 0.181188 0)
(0.322291 0.187179 0)
(0.285405 0.1928 0)
(0.248074 0.197325 0)
(0.210635 0.200481 0)
(0.173866 0.205929 0)
(0.13483 0.209334 0)
(0.0980765 0.217936 0)
(0.0592312 0.224776 0)
(0.021158 0.235887 0)
(3 -2.67673e-17 0)
(3 -5.70563e-16 0)
(3 -1.24329e-16 0)
(3 -2.9389e-16 0)
(3 -2.29084e-16 0)
(3 2.48318e-16 0)
(3 5.26987e-16 0)
(3 5.32684e-16 0)
(3 4.96594e-16 0)
(3 1.04542e-16 0)
(3 -2.75366e-16 0)
(3 8.17762e-16 0)
(3 1.17339e-15 0)
(3 1.39945e-15 0)
(3 1.20768e-15 0)
(3 9.58285e-16 0)
(3 7.11625e-16 0)
(3 6.41812e-16 0)
(3 2.496e-16 0)
(3 -1.9343e-16 0)
(3 1.27667e-16 0)
(3 9.2872e-17 0)
(3 9.2559e-16 0)
(3 8.24857e-16 0)
(3 1.0864e-11 0)
(1.35448 0.179137 0)
(0.76221 0.151601 0)
(0.715046 0.162471 0)
(0.681572 0.166244 0)
(0.648406 0.166872 0)
(0.617014 0.16754 0)
(0.586823 0.170938 0)
(0.557392 0.17844 0)
(0.528053 0.188901 0)
(0.49715 0.196479 0)
(0.465325 0.198257 0)
(0.433187 0.200628 0)
(0.400442 0.207545 0)
(0.366461 0.215993 0)
(0.331524 0.222624 0)
(0.296187 0.228837 0)
(0.259644 0.233995 0)
(0.221885 0.237915 0)
(0.18397 0.244749 0)
(0.142765 0.248774 0)
(0.103727 0.258277 0)
(0.062395 0.265732 0)
(0.0222352 0.278049 0)
(3 -2.1193e-16 0)
(3 -3.46564e-16 0)
(3 -7.50463e-16 0)
(3 -1.20417e-15 0)
(3 -1.31443e-15 0)
(3 -1.01674e-15 0)
(3 8.10292e-17 0)
(3 4.47252e-16 0)
(3 2.49384e-16 0)
(3 3.32454e-16 0)
(3 1.26757e-15 0)
(3 1.72678e-15 0)
(3 1.74212e-15 0)
(3 1.96565e-15 0)
(3 2.39131e-15 0)
(3 1.81937e-15 0)
(3 1.19563e-15 0)
(3 1.63626e-15 0)
(3 1.64262e-15 0)
(3 1.25774e-15 0)
(3 1.30528e-15 0)
(3 1.05092e-15 0)
(3 1.56565e-15 0)
(3 9.41018e-16 0)
(3 -1.37899e-13 0)
(1.5165 0.206492 0)
(0.776296 0.180328 0)
(0.717928 0.191204 0)
(0.685041 0.194306 0)
(0.652515 0.194855 0)
(0.621621 0.19479 0)
(0.591828 0.19727 0)
(0.563224 0.204609 0)
(0.535597 0.216001 0)
(0.506679 0.22498 0)
(0.476615 0.227557 0)
(0.446195 0.23049 0)
(0.415219 0.238241 0)
(0.382806 0.247712 0)
(0.348771 0.255436 0)
(0.313508 0.263438 0)
(0.275862 0.270983 0)
(0.235578 0.277369 0)
(0.194543 0.286617 0)
(0.149833 0.291708 0)
(0.107876 0.301854 0)
(0.0642762 0.309538 0)
(0.0226647 0.322524 0)
(3 9.98189e-17 0)
(3 1.58135e-16 0)
(3 1.20258e-16 0)
(3 2.13548e-16 0)
(3 6.57998e-16 0)
(3 5.72552e-16 0)
(3 4.50175e-16 0)
(3 7.53219e-16 0)
(3 6.78494e-16 0)
(3 8.35934e-16 0)
(3 1.58029e-15 0)
(3 1.81175e-15 0)
(3 2.16463e-15 0)
(3 1.46245e-15 0)
(3 1.29137e-15 0)
(3 7.89621e-16 0)
(3 5.98181e-16 0)
(3 8.0562e-16 0)
(3 1.65148e-15 0)
(3 1.46503e-15 0)
(3 8.38747e-16 0)
(3 4.16949e-16 0)
(3 3.38451e-16 0)
(3 -3.23202e-16 0)
(3 -1.50687e-14 0)
(1.7267 0.23017 0)
(0.79797 0.213041 0)
(0.723248 0.219506 0)
(0.692065 0.220381 0)
(0.661014 0.220996 0)
(0.63079 0.220901 0)
(0.600755 0.222975 0)
(0.571433 0.230103 0)
(0.543363 0.242221 0)
(0.514284 0.252756 0)
(0.483879 0.256588 0)
(0.453329 0.260513 0)
(0.422651 0.269631 0)
(0.390682 0.280874 0)
(0.356789 0.290476 0)
(0.321647 0.300968 0)
(0.284045 0.311324 0)
(0.243459 0.320223 0)
(0.201903 0.331592 0)
(0.156186 0.337611 0)
(0.112486 0.348076 0)
(0.0669018 0.355736 0)
(0.0235114 0.369034 0)
(3 8.02719e-17 0)
(3 2.9323e-16 0)
(3 1.047e-15 0)
(3 9.53026e-16 0)
(3 8.72189e-16 0)
(3 6.55376e-16 0)
(3 2.66807e-16 0)
(3 4.58987e-16 0)
(3 1.02525e-15 0)
(3 1.38975e-15 0)
(3 1.38777e-15 0)
(3 1.03731e-15 0)
(3 1.469e-15 0)
(3 1.82349e-15 0)
(3 2.03828e-15 0)
(3 1.52121e-15 0)
(3 1.3715e-15 0)
(3 7.76617e-16 0)
(3 5.94282e-16 0)
(3 -6.29843e-17 0)
(3 -6.33903e-16 0)
(3 -4.46378e-16 0)
(3 -4.8873e-16 0)
(3 -8.6794e-16 0)
(3 -3.72739e-15 0)
(1.98421 0.248468 0)
(0.824621 0.252412 0)
(0.72393 0.24905 0)
(0.692458 0.247096 0)
(0.660474 0.248005 0)
(0.629452 0.248715 0)
(0.598877 0.250736 0)
(0.569479 0.257129 0)
(0.54231 0.269223 0)
(0.514961 0.280856 0)
(0.486037 0.285658 0)
(0.456724 0.290094 0)
(0.427391 0.300169 0)
(0.396762 0.313033 0)
(0.363762 0.324461 0)
(0.329472 0.337596 0)
(0.292361 0.351259 0)
(0.251449 0.363667 0)
(0.208869 0.378046 0)
(0.162003 0.386046 0)
(0.11646 0.397293 0)
(0.0691266 0.405068 0)
(0.0238735 0.418321 0)
(3 4.20908e-16 0)
(3 5.80536e-16 0)
(3 -1.41044e-16 0)
(3 -4.39322e-16 0)
(3 -5.42067e-16 0)
(3 -4.48733e-16 0)
(3 -7.35858e-17 0)
(3 3.48938e-17 0)
(3 1.12817e-15 0)
(3 1.47431e-15 0)
(3 1.47974e-15 0)
(3 1.02879e-15 0)
(3 5.86704e-16 0)
(3 1.17411e-15 0)
(3 2.03733e-15 0)
(3 2.33973e-15 0)
(3 2.38678e-15 0)
(3 1.45249e-15 0)
(3 -2.75885e-16 0)
(3 -1.22259e-15 0)
(3 -7.64606e-16 0)
(3 -8.41628e-16 0)
(3 -1.237e-15 0)
(3 -1.45995e-15 0)
(3 -2.07844e-15 0)
(2.29315 0.257989 0)
(0.869768 0.300004 0)
(0.738909 0.278305 0)
(0.709625 0.276683 0)
(0.676392 0.277988 0)
(0.644077 0.278877 0)
(0.612212 0.280368 0)
(0.581608 0.285326 0)
(0.553579 0.296597 0)
(0.526153 0.308957 0)
(0.496802 0.31505 0)
(0.466633 0.320129 0)
(0.436709 0.331118 0)
(0.406031 0.345697 0)
(0.372928 0.358997 0)
(0.339154 0.374888 0)
(0.302914 0.392114 0)
(0.263004 0.408436 0)
(0.221125 0.425887 0)
(0.174605 0.436346 0)
(0.127095 0.449352 0)
(0.0760991 0.458214 0)
(0.0264899 0.471956 0)
(3 -8.67205e-17 0)
(3 -1.00242e-17 0)
(3 -1.03284e-16 0)
(3 -2.87083e-16 0)
(3 -5.79689e-16 0)
(3 -9.65169e-16 0)
(3 -9.65177e-16 0)
(3 -5.29992e-16 0)
(3 4.14574e-17 0)
(3 9.02187e-16 0)
(3 1.02494e-15 0)
(3 8.6701e-16 0)
(3 1.95911e-16 0)
(3 5.14489e-16 0)
(3 7.96328e-16 0)
(3 1.06325e-15 0)
(3 1.11487e-15 0)
(3 1.30542e-15 0)
(3 2.39021e-16 0)
(3 -1.19706e-15 0)
(3 -8.79536e-16 0)
(3 -9.198e-16 0)
(3 -1.66172e-15 0)
(3 -1.88012e-15 0)
(3 -1.14182e-15 0)
(2.67712 0.229331 0)
(0.964856 0.338926 0)
(0.783877 0.293065 0)
(0.75605 0.297319 0)
(0.717534 0.303256 0)
(0.68114 0.306767 0)
(0.645927 0.308917 0)
(0.612342 0.312779 0)
(0.581352 0.323275 0)
(0.551778 0.336904 0)
(0.520191 0.345408 0)
(0.487496 0.351573 0)
(0.455486 0.363267 0)
(0.423788 0.379226 0)
(0.389782 0.394134 0)
(0.355927 0.412222 0)
(0.3202 0.432844 0)
(0.280675 0.453483 0)
(0.23797 0.475415 0)
(0.189749 0.490799 0)
(0.139025 0.507661 0)
(0.0839652 0.519167 0)
(0.028189 0.533177 0)
(3 -1.28866e-16 0)
(3 -1.63008e-16 0)
(3 3.39791e-16 0)
(3 3.5839e-16 0)
(3 -1.75184e-16 0)
(3 -6.99127e-17 0)
(3 2.07595e-16 0)
(3 9.50476e-17 0)
(3 -4.64237e-16 0)
(3 -3.40429e-16 0)
(3 1.53101e-17 0)
(3 1.83295e-16 0)
(3 -3.55907e-16 0)
(3 -5.00728e-16 0)
(3 -1.67873e-16 0)
(3 9.42879e-16 0)
(3 7.92332e-16 0)
(3 9.13457e-16 0)
(3 7.07443e-16 0)
(3 1.32561e-16 0)
(3 -1.05448e-15 0)
(3 -1.05571e-15 0)
(3 -1.21529e-15 0)
(3 -7.23707e-16 0)
(3 -2.99765e-16 0)
(2.98623 0.067554 0)
(1.0919 0.34237 0)
(0.819761 0.310613 0)
(0.800159 0.326444 0)
(0.761417 0.333527 0)
(0.724411 0.336757 0)
(0.688083 0.339093 0)
(0.652949 0.342851 0)
(0.6197 0.353036 0)
(0.588122 0.367889 0)
(0.554499 0.37896 0)
(0.519122 0.386119 0)
(0.484448 0.397974 0)
(0.45072 0.414751 0)
(0.415385 0.431012 0)
(0.380351 0.450841 0)
(0.34478 0.474778 0)
(0.305805 0.500313 0)
(0.264499 0.527221 0)
(0.21785 0.547453 0)
(0.165949 0.569097 0)
(0.103922 0.587691 0)
(0.0372712 0.606372 0)
(3 9.99859e-17 0)
(3 1.65595e-16 0)
(3 1.48859e-16 0)
(3 5.61537e-16 0)
(3 5.65886e-16 0)
(3 7.28709e-16 0)
(3 5.68586e-16 0)
(3 2.57116e-16 0)
(3 -9.21414e-16 0)
(3 -9.10814e-16 0)
(3 -6.50808e-16 0)
(3 -3.99128e-16 0)
(3 -4.85289e-16 0)
(3 -4.48536e-16 0)
(3 -2.26037e-16 0)
(3 7.22787e-16 0)
(3 3.74074e-16 0)
(3 -7.01309e-16 0)
(3 -5.15746e-16 0)
(3 1.92277e-16 0)
(3 -3.51647e-16 0)
(3 -1.18076e-15 0)
(3 -9.90234e-16 0)
(3 -4.45023e-16 0)
(3 3.32387e-16 0)
(3.01374 0.0043021 0)
(1.19879 0.328808 0)
(0.813 0.32951 0)
(0.80015 0.362152 0)
(0.767687 0.370584 0)
(0.739902 0.371458 0)
(0.713344 0.371061 0)
(0.685881 0.372786 0)
(0.656977 0.381891 0)
(0.627729 0.397934 0)
(0.595321 0.412634 0)
(0.559403 0.421937 0)
(0.523107 0.434152 0)
(0.487452 0.451724 0)
(0.451011 0.469214 0)
(0.414853 0.490537 0)
(0.378988 0.517153 0)
(0.34144 0.546947 0)
(0.300879 0.579361 0)
(0.251733 0.609404 0)
(0.191794 0.643811 0)
(0.121649 0.678379 0)
(0.0378965 0.70249 0)
(3 1.87417e-17 0)
(3 1.32683e-16 0)
(3 1.70068e-17 0)
(3 -2.45424e-16 0)
(3 -1.68867e-16 0)
(3 -1.72266e-16 0)
(3 -1.04994e-15 0)
(3 -1.24289e-15 0)
(3 -1.00339e-15 0)
(3 -4.38433e-16 0)
(3 -7.43382e-17 0)
(3 3.05377e-16 0)
(3 5.66559e-16 0)
(3 1.10058e-15 0)
(3 -5.48661e-17 0)
(3 -4.56505e-16 0)
(3 -5.13953e-16 0)
(3 -9.90326e-16 0)
(3 -1.1852e-15 0)
(3 1.03449e-16 0)
(3 1.3486e-15 0)
(3 9.05512e-16 0)
(3 4.94379e-16 0)
(3 3.87197e-16 0)
(3 3.93638e-16 0)
(3.00025 6.27132e-06 0)
(1.38028 0.350493 0)
(0.798794 0.337231 0)
(0.776204 0.371123 0)
(0.75254 0.387191 0)
(0.730839 0.391428 0)
(0.711017 0.394364 0)
(0.69126 0.399282 0)
(0.671031 0.410179 0)
(0.650549 0.427825 0)
(0.62598 0.446348 0)
(0.595284 0.459474 0)
(0.561627 0.472803 0)
(0.527361 0.491705 0)
(0.492023 0.51051 0)
(0.456405 0.533005 0)
(0.420912 0.561409 0)
(0.384669 0.595696 0)
(0.34603 0.636588 0)
(0.300399 0.679978 0)
(0.246126 0.725374 0)
(0.178279 0.775162 0)
(0.0705885 0.82263 0)
(3 -1.59767e-16 0)
(3 -1.17883e-16 0)
(3 -6.52071e-18 0)
(3 -4.62265e-16 0)
(3 -3.14633e-16 0)
(3 -1.7129e-16 0)
(3 -1.85446e-16 0)
(3 -7.8103e-16 0)
(3 -5.73183e-16 0)
(3 -7.07136e-16 0)
(3 -6.5691e-16 0)
(3 4.15702e-16 0)
(3 1.24722e-15 0)
(3 8.10319e-16 0)
(3 4.73504e-16 0)
(3 -1.33632e-15 0)
(3 -9.90636e-16 0)
(3 -5.13089e-16 0)
(3 6.09707e-17 0)
(3 8.34595e-16 0)
(3 1.3328e-15 0)
(3 1.87071e-15 0)
(3 2.1027e-15 0)
(3 1.73425e-15 0)
(3 8.99551e-16 0)
(3 -1.83214e-08 0)
(1.68445 0.39298 0)
(0.813632 0.379913 0)
(0.75552 0.391465 0)
(0.74165 0.404668 0)
(0.72417 0.408259 0)
(0.707665 0.411228 0)
(0.691238 0.417058 0)
(0.674836 0.429114 0)
(0.660072 0.448932 0)
(0.64434 0.471855 0)
(0.622634 0.490695 0)
(0.595471 0.507281 0)
(0.567636 0.528284 0)
(0.536999 0.549614 0)
(0.50482 0.574295 0)
(0.471395 0.605442 0)
(0.438427 0.644091 0)
(0.406182 0.690785 0)
(0.368781 0.742688 0)
(0.315746 0.813899 0)
(0.222241 0.922921 0)
(0.121172 1.05119 0)
(3 1.74076e-17 0)
(3 -2.96015e-16 0)
(3 -5.05977e-16 0)
(3 -2.26143e-16 0)
(3 -7.41469e-17 0)
(3 5.40613e-16 0)
(3 8.35655e-16 0)
(3 8.24607e-16 0)
(3 -2.11753e-16 0)
(3 -1.05812e-15 0)
(3 -2.0799e-15 0)
(3 -1.77657e-15 0)
(3 -1.17965e-15 0)
(3 -7.59305e-16 0)
(3 -3.64558e-17 0)
(3 2.86561e-16 0)
(3 -1.84788e-16 0)
(3 -1.6213e-16 0)
(3 4.8077e-17 0)
(3 -2.78521e-16 0)
(3 -6.95929e-16 0)
(3 -1.80059e-16 0)
(3 2.74656e-16 0)
(3 -2.41297e-17 0)
(3 4.64356e-17 0)
(3 -1.27796e-08 0)
(2.17335 0.406902 0)
(0.88717 0.453175 0)
(0.773745 0.415766 0)
(0.756732 0.42324 0)
(0.737102 0.427902 0)
(0.718153 0.43133 0)
(0.699835 0.436947 0)
(0.682577 0.448125 0)
(0.667776 0.467185 0)
(0.655412 0.491814 0)
(0.640341 0.51573 0)
(0.621025 0.53686 0)
(0.600983 0.560896 0)
(0.578357 0.586554 0)
(0.552662 0.615194 0)
(0.525927 0.649805 0)
(0.498877 0.691041 0)
(0.474208 0.743143 0)
(0.444638 0.813438 0)
(0.415899 0.930218 0)
(0.403614 1.08438 0)
(0.514255 1.34161 0)
(3 1.71528e-16 0)
(3 -2.16413e-16 0)
(3 -2.73525e-16 0)
(3 1.90086e-16 0)
(3 4.22022e-16 0)
(3 9.7046e-16 0)
(3 1.55729e-15 0)
(3 1.4634e-15 0)
(3 6.06314e-16 0)
(3 -1.78064e-16 0)
(3 -1.51323e-15 0)
(3 -2.04054e-15 0)
(3 -2.86275e-15 0)
(3 -1.84417e-15 0)
(3 -5.33535e-16 0)
(3 5.28977e-18 0)
(3 5.47711e-16 0)
(3 7.75596e-16 0)
(3 2.17604e-16 0)
(3 -5.32035e-16 0)
(3 -1.07255e-15 0)
(3 -1.30426e-15 0)
(3 -1.36951e-15 0)
(3 -1.60791e-15 0)
(3 -1.35458e-15 0)
(3 -2.26713e-09 0)
(2.81358 0.247228 0)
(1.04604 0.493595 0)
(0.851403 0.427659 0)
(0.816913 0.434317 0)
(0.781554 0.445344 0)
(0.751307 0.451334 0)
(0.725432 0.457333 0)
(0.702977 0.467572 0)
(0.684686 0.485123 0)
(0.670923 0.509149 0)
(0.658657 0.534864 0)
(0.644786 0.558902 0)
(0.630666 0.585313 0)
(0.616261 0.615336 0)
(0.599249 0.648908 0)
(0.581939 0.688177 0)
(0.56411 0.733625 0)
(0.549658 0.792209 0)
(0.542376 0.876019 0)
(0.548693 0.998452 0)
(0.626776 1.1442 0)
(0.928543 1.3387 0)
(3 1.88381e-17 0)
(3 8.48157e-17 0)
(3 7.32652e-16 0)
(3 1.33979e-15 0)
(3 1.29748e-15 0)
(3 7.55126e-16 0)
(3 4.86811e-16 0)
(3 -9.91581e-18 0)
(3 3.33523e-16 0)
(3 8.56497e-16 0)
(3 8.28262e-16 0)
(3 -6.04448e-16 0)
(3 -8.44579e-16 0)
(3 -7.46264e-16 0)
(3 -1.01301e-15 0)
(3 -9.06477e-16 0)
(3 -3.02838e-16 0)
(3 3.81031e-16 0)
(3 2.49959e-17 0)
(3 3.7268e-16 0)
(3 -5.04569e-16 0)
(3 -8.55082e-16 0)
(3 -1.14207e-15 0)
(3 -1.21358e-15 0)
(3 -1.30511e-15 0)
(3 -1.81235e-10 0)
(3.05876 0.0210987 0)
(1.25397 0.457355 0)
(0.887693 0.462354 0)
(0.855658 0.483726 0)
(0.824538 0.483585 0)
(0.791164 0.483806 0)
(0.759818 0.486698 0)
(0.731538 0.49336 0)
(0.708334 0.507364 0)
(0.690914 0.528836 0)
(0.678287 0.553872 0)
(0.66707 0.579114 0)
(0.65685 0.606735 0)
(0.649106 0.639393 0)
(0.641219 0.677073 0)
(0.634821 0.720704 0)
(0.629679 0.770654 0)
(0.629722 0.832379 0)
(0.644257 0.91663 0)
(0.687348 1.02489 0)
(0.827047 1.1561 0)
(1.14091 1.27967 0)
(3 -1.12519e-16 0)
(3 4.62296e-17 0)
(3 2.92571e-16 0)
(3 2.81581e-16 0)
(3 -3.09311e-16 0)
(3 -9.22675e-16 0)
(3 -1.42675e-15 0)
(3 -8.2458e-16 0)
(3 -6.10178e-16 0)
(3 4.44223e-17 0)
(3 1.21011e-15 0)
(3 1.11763e-15 0)
(3 1.08532e-15 0)
(3 3.94714e-16 0)
(3 -1.23741e-16 0)
(3 -4.07414e-19 0)
(3 -3.31875e-16 0)
(3 -3.63958e-16 0)
(3 -3.24332e-16 0)
(3 -3.24148e-16 0)
(3 -3.9832e-16 0)
(3 -4.58416e-16 0)
(3 -9.25e-16 0)
(3 -1.10449e-15 0)
(3 -1.57149e-15 0)
(3 -4.83311e-12 0)
(3.00311 4.1867e-05 0)
(1.47591 0.450229 0)
(0.86834 0.503799 0)
(0.845037 0.507557 0)
(0.826711 0.511749 0)
(0.807329 0.514911 0)
(0.784757 0.518488 0)
(0.760461 0.522976 0)
(0.737261 0.532689 0)
(0.718438 0.550054 0)
(0.704116 0.572063 0)
(0.693822 0.59609 0)
(0.685742 0.622932 0)
(0.682041 0.655853 0)
(0.680969 0.695667 0)
(0.684529 0.742567 0)
(0.691882 0.796183 0)
(0.709304 0.85904 0)
(0.740356 0.939314 0)
(0.814948 1.03459 0)
(0.9767 1.13675 0)
(1.24448 1.2102 0)
(3 -7.8296e-17 0)
(3 7.28425e-17 0)
(3 -2.40319e-16 0)
(3 -7.70805e-16 0)
(3 -7.5676e-16 0)
(3 -3.4496e-16 0)
(3 2.38944e-17 0)
(3 2.47231e-16 0)
(3 -1.32076e-16 0)
(3 -6.1568e-16 0)
(3 -3.62857e-16 0)
(3 8.05261e-16 0)
(3 1.28131e-15 0)
(3 1.14503e-15 0)
(3 4.65359e-16 0)
(3 -1.44363e-16 0)
(3 -2.57496e-17 0)
(3 -3.42682e-17 0)
(3 4.35661e-16 0)
(3 3.19953e-16 0)
(3 -8.28892e-17 0)
(3 -4.57476e-16 0)
(3 -7.20787e-16 0)
(3 -1.14913e-15 0)
(3 -1.2762e-15 0)
(3 -4.79459e-14 0)
(3.00001 -5.72976e-07 0)
(1.95747 0.475416 0)
(0.902887 0.526667 0)
(0.847196 0.519035 0)
(0.837684 0.530295 0)
(0.822909 0.535476 0)
(0.807065 0.541843 0)
(0.788617 0.549578 0)
(0.768383 0.559231 0)
(0.750578 0.574907 0)
(0.734994 0.594314 0)
(0.724487 0.616293 0)
(0.717414 0.641058 0)
(0.716251 0.671933 0)
(0.719721 0.710436 0)
(0.731052 0.757078 0)
(0.748677 0.811397 0)
(0.780897 0.872967 0)
(0.827595 0.947076 0)
(0.921118 1.02893 0)
(1.08035 1.10266 0)
(1.30302 1.14749 0)
(3 8.03597e-17 0)
(3 1.2386e-16 0)
(3 -3.78743e-17 0)
(3 -2.19589e-17 0)
(3 5.6603e-16 0)
(3 1.1191e-15 0)
(3 8.05531e-16 0)
(3 4.14459e-16 0)
(3 1.54806e-16 0)
(3 -4.0915e-16 0)
(3 -1.12496e-15 0)
(3 -6.85837e-16 0)
(3 -1.45018e-16 0)
(3 3.9323e-16 0)
(3 5.01481e-16 0)
(3 -2.76755e-16 0)
(3 4.05764e-17 0)
(3 6.78936e-16 0)
(3 6.80529e-16 0)
(3 5.84453e-16 0)
(3 2.92225e-16 0)
(3 -1.7065e-16 0)
(3 -2.20844e-16 0)
(3 -5.21312e-16 0)
(3 -3.02442e-16 0)
(3 -9.46501e-16 0)
(3 -4.14685e-07 0)
(2.68088 0.33213 0)
(1.04789 0.577596 0)
(0.89107 0.525958 0)
(0.873561 0.538963 0)
(0.852417 0.549843 0)
(0.834686 0.559493 0)
(0.819501 0.570647 0)
(0.802943 0.581619 0)
(0.787974 0.596765 0)
(0.773695 0.614287 0)
(0.763014 0.634129 0)
(0.755624 0.656298 0)
(0.754868 0.684416 0)
(0.760092 0.719995 0)
(0.775379 0.763884 0)
(0.799759 0.815904 0)
(0.841177 0.874083 0)
(0.900836 0.941992 0)
(1.00364 1.01227 0)
(1.14922 1.06569 0)
(1.33835 1.09257 0)
(3 -9.96815e-18 0)
(3 -8.17185e-17 0)
(3 -2.38326e-16 0)
(3 -3.84718e-16 0)
(3 -1.2331e-16 0)
(3 4.832e-17 0)
(3 2.35587e-17 0)
(3 -4.13535e-16 0)
(3 -5.57746e-16 0)
(3 7.75327e-17 0)
(3 2.30914e-17 0)
(3 -5.43577e-16 0)
(3 -4.6797e-16 0)
(3 -3.16472e-16 0)
(3 -3.48024e-16 0)
(3 -3.1621e-16 0)
(3 -1.78311e-16 0)
(3 1.40283e-16 0)
(3 -2.74174e-16 0)
(3 -2.49622e-16 0)
(3 1.33392e-16 0)
(3 3.26088e-16 0)
(3 2.1624e-16 0)
(3 6.22165e-16 0)
(3 6.2294e-16 0)
(3 2.58721e-16 0)
(3 -7.32664e-08 0)
(3.07496 0.0364364 0)
(1.31687 0.559219 0)
(0.944027 0.557302 0)
(0.911764 0.573964 0)
(0.887401 0.573725 0)
(0.865209 0.57834 0)
(0.850155 0.589582 0)
(0.83551 0.60204 0)
(0.823201 0.61852 0)
(0.811769 0.637014 0)
(0.803004 0.656811 0)
(0.796447 0.67692 0)
(0.796092 0.701844 0)
(0.802616 0.732993 0)
(0.820052 0.771331 0)
(0.847947 0.817432 0)
(0.89326 0.868947 0)
(0.959301 0.927994 0)
(1.06358 0.987746 0)
(1.19537 1.02904 0)
(1.35658 1.04822 0)
(3 -2.93748e-17 0)
(3 -1.23427e-16 0)
(3 -3.41324e-16 0)
(3 -7.84032e-16 0)
(3 -1.33692e-15 0)
(3 -1.51948e-15 0)
(3 -1.49721e-15 0)
(3 -1.44342e-15 0)
(3 -1.13536e-15 0)
(3 -6.48011e-17 0)
(3 7.35203e-16 0)
(3 1.26028e-16 0)
(3 -2.77156e-16 0)
(3 -1.10194e-15 0)
(3 -1.28337e-15 0)
(3 -3.95478e-16 0)
(3 -5.10143e-17 0)
(3 -2.58966e-16 0)
(3 -6.967e-16 0)
(3 -8.59117e-16 0)
(3 -5.10741e-16 0)
(3 4.43177e-16 0)
(3 3.72209e-16 0)
(3 2.9935e-16 0)
(3 3.37269e-16 0)
(3 5.86849e-16 0)
(3 -5.72812e-09 0)
(3.00594 0.000104949 0)
(1.61152 0.54659 0)
(0.930864 0.61492 0)
(0.907027 0.597864 0)
(0.897207 0.598488 0)
(0.884308 0.60282 0)
(0.873571 0.611702 0)
(0.86209 0.622521 0)
(0.853693 0.637212 0)
(0.846784 0.654779 0)
(0.842717 0.674482 0)
(0.839591 0.693634 0)
(0.840683 0.715759 0)
(0.847907 0.742925 0)
(0.865724 0.776338 0)
(0.894488 0.816538 0)
(0.940168 0.861132 0)
(1.00637 0.910401 0)
(1.10511 0.95938 0)
(1.2221 0.991897 0)
(1.36364 1.00765 0)
(3 1.85965e-16 0)
(3 4.09008e-16 0)
(3 5.77724e-17 0)
(3 -1.64707e-17 0)
(3 -4.34167e-16 0)
(3 -6.10443e-16 0)
(3 -9.96936e-16 0)
(3 -1.24522e-15 0)
(3 -4.84593e-16 0)
(3 -5.33643e-16 0)
(3 -2.17621e-16 0)
(3 7.19454e-16 0)
(3 1.26472e-16 0)
(3 -4.82681e-16 0)
(3 -3.46249e-16 0)
(3 8.9383e-16 0)
(3 1.0254e-15 0)
(3 4.55547e-16 0)
(3 5.5937e-17 0)
(3 1.22293e-16 0)
(3 6.13545e-16 0)
(3 -2.12996e-16 0)
(3 -6.12142e-16 0)
(3 -8.54611e-16 0)
(3 -1.38006e-15 0)
(3 -8.85474e-16 0)
(3 -1.20803e-10 0)
(3.00003 -1.30795e-06 0)
(2.3298 0.49827 0)
(1.0089 0.646529 0)
(0.93296 0.596549 0)
(0.926638 0.602735 0)
(0.914722 0.615287 0)
(0.902 0.628485 0)
(0.889665 0.640279 0)
(0.881313 0.654212 0)
(0.877162 0.671194 0)
(0.87754 0.691282 0)
(0.879496 0.711325 0)
(0.884158 0.732615 0)
(0.893265 0.756702 0)
(0.911278 0.785623 0)
(0.940587 0.818908 0)
(0.985313 0.85533 0)
(1.04845 0.895484 0)
(1.13801 0.934166 0)
(1.24276 0.960219 0)
(1.3688 0.974816 0)
(3 7.46357e-17 0)
(3 1.22356e-16 0)
(3 5.15792e-16 0)
(3 8.11805e-16 0)
(3 1.03156e-16 0)
(3 -4.48383e-16 0)
(3 -2.61087e-16 0)
(3 -3.99034e-17 0)
(3 6.32868e-16 0)
(3 7.01277e-16 0)
(3 9.48395e-16 0)
(3 1.03576e-15 0)
(3 7.58294e-16 0)
(3 6.64022e-16 0)
(3 5.24342e-16 0)
(3 2.51593e-16 0)
(3 3.44228e-17 0)
(3 -1.91969e-16 0)
(3 -8.52238e-17 0)
(3 -9.33865e-17 0)
(3 -2.20966e-17 0)
(3 -6.60049e-17 0)
(3 -4.75698e-16 0)
(3 -6.56001e-16 0)
(3 -1.52142e-15 0)
(3 -1.65576e-15 0)
(3 -1.74849e-13 0)
(3 -1.13598e-06 0)
(3.08145 0.104031 0)
(1.28315 0.628559 0)
(0.988777 0.613283 0)
(0.970836 0.625775 0)
(0.952932 0.635085 0)
(0.935355 0.647633 0)
(0.920395 0.659036 0)
(0.910319 0.66993 0)
(0.906421 0.68413 0)
(0.90885 0.702918 0)
(0.915179 0.723829 0)
(0.924504 0.745468 0)
(0.936981 0.767356 0)
(0.955546 0.792091 0)
(0.985293 0.820418 0)
(1.02859 0.850312 0)
(1.08718 0.882554 0)
(1.16431 0.910714 0)
(1.25698 0.930992 0)
(1.36533 0.944223 0)
(3 5.84837e-17 0)
(3 -2.41816e-16 0)
(3 2.49851e-17 0)
(3 2.67236e-16 0)
(3 1.99462e-16 0)
(3 -2.89769e-16 0)
(3 -2.31314e-16 0)
(3 9.4699e-16 0)
(3 1.48766e-15 0)
(3 1.85408e-15 0)
(3 1.5334e-15 0)
(3 6.34772e-16 0)
(3 1.00377e-15 0)
(3 1.09296e-15 0)
(3 5.45426e-17 0)
(3 -1.3608e-15 0)
(3 -1.65807e-15 0)
(3 -1.51366e-15 0)
(3 -6.59263e-16 0)
(3 -1.05809e-15 0)
(3 -1.79454e-15 0)
(3 -1.3544e-15 0)
(3 -7.18494e-16 0)
(3 1.15758e-16 0)
(3 2.23938e-16 0)
(3 -1.41767e-16 0)
(3 -4.69736e-16 0)
(3 -2.08431e-07 0)
(3.02008 0.000870348 0)
(1.55853 0.605947 0)
(0.986914 0.676186 0)
(0.969822 0.660734 0)
(0.958441 0.659758 0)
(0.952422 0.670492 0)
(0.943989 0.681297 0)
(0.936789 0.688695 0)
(0.933722 0.698732 0)
(0.937308 0.714594 0)
(0.94616 0.734267 0)
(0.959732 0.756035 0)
(0.975475 0.778388 0)
(0.99702 0.801051 0)
(1.02773 0.824228 0)
(1.06967 0.849288 0)
(1.12419 0.874644 0)
(1.19164 0.89532 0)
(1.27475 0.911751 0)
(1.36734 0.921891 0)
(3 -1.92513e-17 0)
(3 1.79983e-16 0)
(3 -7.9526e-17 0)
(3 -7.03512e-16 0)
(3 -5.91644e-16 0)
(3 -1.46417e-16 0)
(3 2.75784e-16 0)
(3 7.20863e-16 0)
(3 6.65017e-16 0)
(3 1.12466e-15 0)
(3 1.35983e-15 0)
(3 1.09302e-15 0)
(3 6.77309e-16 0)
(3 -5.4049e-16 0)
(3 -8.62981e-16 0)
(3 -8.13112e-16 0)
(3 -1.35492e-15 0)
(3 -1.0629e-15 0)
(3 -3.66414e-16 0)
(3 -3.06173e-16 0)
(3 -6.09705e-16 0)
(3 -1.09176e-15 0)
(3 -4.22048e-16 0)
(3 4.14197e-16 0)
(3 1.16988e-15 0)
(3 1.50063e-15 0)
(3 1.72018e-15 0)
(3 -1.45515e-08 0)
(3.0002 -5.28585e-06 0)
(2.32137 0.533248 0)
(1.06447 0.711336 0)
(0.989525 0.661599 0)
(0.980639 0.667589 0)
(0.976056 0.682097 0)
(0.970088 0.696353 0)
(0.964783 0.704981 0)
(0.962345 0.711862 0)
(0.965816 0.72494 0)
(0.975304 0.742827 0)
(0.991456 0.763836 0)
(1.00947 0.785399 0)
(1.03418 0.805587 0)
(1.06604 0.825982 0)
(1.10678 0.846449 0)
(1.15667 0.865163 0)
(1.21692 0.880393 0)
(1.2903 0.893046 0)
(1.37063 0.899332 0)
(3 -3.9989e-16 0)
(3 -5.95704e-17 0)
(3 1.0193e-16 0)
(3 1.76117e-16 0)
(3 -1.82447e-16 0)
(3 5.06307e-16 0)
(3 4.38844e-16 0)
(3 -1.11064e-16 0)
(3 -2.00666e-17 0)
(3 1.88941e-16 0)
(3 6.03459e-16 0)
(3 1.90071e-16 0)
(3 -4.65556e-16 0)
(3 -6.60509e-16 0)
(3 -2.63739e-16 0)
(3 -3.21478e-16 0)
(3 4.64218e-16 0)
(3 6.65438e-16 0)
(3 1.42551e-16 0)
(3 1.98403e-16 0)
(3 3.55515e-16 0)
(3 -1.88572e-16 0)
(3 8.43689e-16 0)
(3 9.29242e-16 0)
(3 1.18933e-15 0)
(3 1.56545e-15 0)
(3 1.72045e-15 0)
(3 -5.82544e-11 0)
(3.00002 -7.34335e-06 0)
(3.07474 0.101252 0)
(1.36207 0.685156 0)
(1.04615 0.677979 0)
(1.02568 0.684915 0)
(1.01025 0.700338 0)
(1.00111 0.713446 0)
(0.995739 0.721657 0)
(0.993534 0.72569 0)
(0.995602 0.734624 0)
(1.00452 0.749918 0)
(1.02099 0.769103 0)
(1.04057 0.790255 0)
(1.06729 0.810287 0)
(1.0998 0.829024 0)
(1.13977 0.846584 0)
(1.18633 0.861345 0)
(1.24233 0.873576 0)
(1.30799 0.883072 0)
(1.3799 0.885821 0)
(3 -8.25137e-17 0)
(3 -3.2256e-16 0)
(3 7.22925e-17 0)
(3 4.17806e-16 0)
(3 4.69288e-16 0)
(3 3.58723e-16 0)
(3 3.29452e-16 0)
(3 4.84117e-16 0)
(3 1.12203e-15 0)
(3 5.30579e-16 0)
(3 -5.32135e-17 0)
(3 -7.56364e-16 0)
(3 -3.35347e-16 0)
(3 7.13691e-16 0)
(3 1.33101e-15 0)
(3 8.75919e-16 0)
(3 1.04872e-15 0)
(3 1.25738e-15 0)
(3 4.44739e-16 0)
(3 2.53759e-16 0)
(3 4.40515e-16 0)
(3 1.3286e-15 0)
(3 1.27851e-15 0)
(3 1.18861e-15 0)
(3 1.13219e-15 0)
(3 1.21547e-15 0)
(3 1.40215e-15 0)
(3 -6.67565e-14 0)
(3 -1.45441e-06 0)
(3.01689 0.000953555 0)
(1.7283 0.651871 0)
(1.05367 0.735381 0)
(1.03298 0.718535 0)
(1.03168 0.726947 0)
(1.02942 0.737727 0)
(1.02651 0.744697 0)
(1.02461 0.747473 0)
(1.02656 0.74986 0)
(1.03462 0.759393 0)
(1.05026 0.775039 0)
(1.0707 0.79356 0)
(1.09725 0.811286 0)
(1.12928 0.827872 0)
(1.16755 0.842572 0)
(1.21136 0.854093 0)
(1.26368 0.863384 0)
(1.32306 0.869702 0)
(1.38988 0.870576 0)
(3 5.03215e-17 0)
(3 -9.0096e-17 0)
(3 -1.98895e-16 0)
(3 -3.1534e-16 0)
(3 6.97375e-17 0)
(3 -1.31376e-17 0)
(3 -7.34512e-17 0)
(3 4.10483e-16 0)
(3 -1.7229e-16 0)
(3 -8.1171e-16 0)
(3 -5.69153e-16 0)
(3 3.17273e-16 0)
(3 4.62136e-16 0)
(3 8.73121e-16 0)
(3 2.05524e-15 0)
(3 1.97953e-15 0)
(3 3.71702e-16 0)
(3 1.96637e-16 0)
(3 6.17065e-16 0)
(3 9.81271e-16 0)
(3 1.44046e-15 0)
(3 2.1485e-15 0)
(3 1.79373e-15 0)
(3 7.77869e-16 0)
(3 4.35745e-16 0)
(3 6.22475e-16 0)
(3 1.15481e-15 0)
(3 8.04069e-16 0)
(3 -1.08764e-07 0)
(3.00014 1.20805e-06 0)