/*--------------------------------*- C++ -*----------------------------------*\
  =========                 |
  \\      /  F ield         | OpenFOAM: The Open Source CFD Toolbox
   \\    /   O peration     | Website:  https://openfoam.org
    \\  /    A nd           | Version:  7
     \\/     M anipulation  |
\*---------------------------------------------------------------------------*/
FoamFile
{
    version     2.0;
    format      ascii;
    class       volScalarField;
    location    "3.8";
    object      T;
}
// * * * * * * * * * * * * * * * * * * * * * * * * * * * * * * * * * * * * * //

dimensions      [0 0 0 1 0 0 0];

internalField   nonuniform List<scalar> 
16128
(
1
1
1
1
1
1
1
1
1
1
1
1
1
1
1
1
1
1
1
1
1
1
1
1
2.00495
2.68081
2.70869
2.7124
2.71882
2.72479
2.73146
2.73923
2.74833
2.75812
2.76699
2.77328
2.77675
2.77873
2.78091
2.78457
2.78988
2.79553
2.80006
2.80321
2.80579
2.80832
2.81061
2.81209
1
1
1
1
1
1
1
1
1
1
1
1
1
1
1
1
1
1
1
1
1
1
1
1
1.99437
2.6781
2.70845
2.71213
2.71844
2.72437
2.73104
2.73881
2.74791
2.75769
2.76652
2.77276
2.77618
2.77812
2.78028
2.78392
2.78918
2.79476
2.79921
2.80229
2.80483
2.80734
2.80962
2.81111
1
1
1
1
1
1
1
1
1
1
1
1
1
1
1
1
1
1
1
1
1
1
1
1
1.96686
2.67347
2.70784
2.71126
2.7173
2.72315
2.72982
2.73768
2.74689
2.75677
2.76564
2.77187
2.77524
2.77714
2.7793
2.78295
2.78819
2.79367
2.79797
2.80091
2.80334
2.80578
2.80799
2.80945
1
1
1
1
1
1
1
1
1
1
1
1
1
1
1
1
1
1
1
1
1
1
1
1
1.92503
2.66495
2.70743
2.71009
2.71551
2.72103
2.72758
2.73553
2.74494
2.75505
2.76409
2.77038
2.77371
2.77554
2.77765
2.78127
2.78649
2.7919
2.79609
2.79891
2.80124
2.80359
2.80571
2.8071
1
1
1
1
1
1
1
1
1
1
1
1
1
1
1
1
1
1
1
1
1
1
1
1
1.86843
2.65156
2.70703
2.70855
2.7131
2.71803
2.72427
2.73224
2.74196
2.7525
2.76192
2.76843
2.77178
2.77351
2.77548
2.77898
2.78412
2.78946
2.79356
2.79628
2.79851
2.80079
2.80283
2.80418
1
1
1
1
1
1
1
1
1
1
1
1
1
1
1
1
1
1
1
1
1
1
1
1
1.79381
2.6312
2.70596
2.70658
2.71033
2.71448
2.72011
2.72785
2.73779
2.74885
2.75888
2.76582
2.76931
2.77095
2.77273
2.77604
2.78106
2.78635
2.7904
2.79303
2.79513
2.7973
2.79921
2.80049
1
1
1
1
1
1
1
1
1
1
1
1
1
1
1
1
1
1
1
1
1
1
1
1
1.69859
2.60207
2.70275
2.70356
2.70719
2.71066
2.71547
2.72257
2.7324
2.74388
2.75462
2.7622
2.76599
2.76758
2.76915
2.77218
2.77702
2.78229
2.78637
2.78897
2.79099
2.79307
2.79488
2.79614
1
1
1
1
1
1
1
1
1
1
1
1
1
1
1
1
1
1
1
1
1
1
1
1
1.58468
2.56425
2.69785
2.69919
2.70374
2.70706
2.7112
2.71735
2.72648
2.73787
2.74912
2.7574
2.76167
2.76333
2.76473
2.76747
2.77209
2.77733
2.78147
2.78406
2.78594
2.78786
2.78951
2.79066
1
1
1
1
1
1
1
1
1
1
1
1
1
1
1
1
1
1
1
1
1
1
1
1
1.44378
2.50934
2.68982
2.69292
2.69935
2.70303
2.70693
2.71221
2.72026
2.731
2.74242
2.75144
2.75643
2.75832
2.75957
2.76193
2.76617
2.77122
2.77532
2.77789
2.77969
2.78154
2.78313
2.78429
1
1
1
1
1
1
1
1
1
1
1
1
1
1
1
1
1
1
1
1
1
1
1
1
1.27249
2.43591
2.68277
2.68422
2.69303
2.69782
2.70219
2.70689
2.71368
2.72328
2.73438
2.74401
2.74993
2.75232
2.75354
2.75555
2.75933
2.76415
2.76822
2.77073
2.7723
2.7738
2.77509
2.77598
1
1
1
1
1
1
1
1
1
1
1
1
1
1
1
1
1
1
1
1
1
1
1
1
1.08868
2.35399
2.67924
2.67781
2.68546
2.69105
2.69624
2.70103
2.70684
2.71494
2.72508
2.73491
2.74179
2.74496
2.74637
2.74812
2.75141
2.75577
2.75947
2.76164
2.76285
2.76403
2.76523
2.76626
1
1
1
1
1
1
1
1
1
1
1
1
1
1
1
1
1
1
1
1
1
1
1
1
1.0029
2.26912
2.67048
2.67133
2.67854
2.68522
2.69107
2.69563
2.70035
2.70696
2.71554
2.72477
2.73218
2.73621
2.73794
2.73948
2.74226
2.74608
2.74938
2.75135
2.75216
2.75237
2.75251
2.75247
1
1
1
1
1
1
1
1
1
1
1
1
1
1
1
1
1
1
1
1
1
1
1
1
1.00001
2.14856
2.6681
2.6733
2.67883
2.68434
2.68918
2.69296
2.69654
2.70046
2.70649
2.7141
2.72121
2.72581
2.72793
2.72951
2.73183
2.73468
2.73712
2.73794
2.73732
2.73637
2.73529
2.73558
1
1
1
1
1
1
1
1
1
1
1
1
1
1
1
1
1
1
1
1
1
1
1
1
1
1.98234
2.64022
2.67015
2.6777
2.68398
2.68794
2.69039
2.69218
2.69467
2.69841
2.70364
2.70945
2.71397
2.71645
2.71797
2.71944
2.72106
2.72218
2.72203
2.7206
2.71828
2.71346
2.70724
1
1
1
1
1
1
1
1
1
1
1
1
1
1
1
1
1
1
1
1
1
1
1
1
1
1.77122
2.57515
2.65575
2.67092
2.68067
2.68585
2.68842
2.68962
2.69053
2.69201
2.6948
2.69845
2.70186
2.70404
2.70493
2.70519
2.70536
2.70493
2.70292
2.69775
2.68847
2.67737
2.6682
1
1
1
1
1
1
1
1
1
1
1
1
1
1
1
1
1
1
1
1
1
1
1
1
1
1.47726
2.45587
2.63958
2.65666
2.66843
2.67655
2.68185
2.68471
2.6859
2.68659
2.68735
2.68863
2.69019
2.69109
2.69056
2.68941
2.68753
2.68446
2.67899
2.66926
2.65528
2.6435
2.64636
1
1
1
1
1
1
1
1
1
1
1
1
1
1
1
1
1
1
1
1
1
1
1
1
1
1.1254
2.33964
2.63261
2.63206
2.64301
2.65711
2.66786
2.67482
2.67833
2.67973
2.67999
2.67988
2.67945
2.67838
2.67618
2.67282
2.66824
2.66196
2.65274
2.63684
2.60859
2.54763
2.42769
1
1
1
1
1
1
1
1
1
1
1
1
1
1
1
1
1
1
1
1
1
1
1
1
1
1.00408
2.23537
2.61601
2.61565
2.62426
2.63589
2.64827
2.65869
2.66564
2.66952
2.67088
2.67028
2.66865
2.6659
2.66183
2.65591
2.64816
2.63788
2.623
2.59879
2.55317
2.48141
2.29448
1
1
1
1
1
1
1
1
1
1
1
1
1
1
1
1
1
1
1
1
1
1
1
1
1
0.999994
2.04327
2.60149
2.61462
2.61876
2.62328
2.63095
2.64048
2.64869
2.65499
2.6585
2.65852
2.65697
2.65336
2.64768
2.63944
2.6283
2.61369
2.59294
2.56182
2.50952
2.4182
2.22504
1
1
1
1
1
1
1
1
1
1
1
1
1
1
1
1
1
1
1
1
1
1
1
1
1
0.999998
1.75156
2.53921
2.61282
2.6145
2.61734
2.62043
2.6256
2.6315
2.63762
2.6425
2.64409
2.64308
2.63953
2.63301
2.62311
2.60915
2.59045
2.56474
2.52733
2.47231
2.37107
2.20237
1
1
1
1
1
1
1
1
1
1
1
1
1
1
1
1
1
1
1
1
1
1
1
1
1
1
1.35755
2.40586
2.60434
2.60564
2.61004
2.61268
2.61528
2.61786
2.62121
2.625
2.62712
2.62663
2.62365
2.61723
2.60658
2.59092
2.56917
2.53974
2.49851
2.44092
2.34229
2.21109
1
1
1
1
1
1
1
1
1
1
1
1
1
1
1
1
1
1
1
1
1
1
1
1
1
1
1.03649
2.25638
2.59915
2.59731
2.59968
2.60379
2.60585
2.60625
2.60681
2.60804
2.60896
2.60838
2.60567
2.59968
2.58917
2.573
2.54978
2.5181
2.4753
2.41624
2.32826
2.22201
1
1
1
1
1
1
1
1
1
1
1
1
1
1
1
1
1
1
1
1
1
1
1
1
1
1
1.00023
2.04537
2.55457
2.57888
2.5887
2.59408
2.59582
2.59562
2.5946
2.59335
2.59195
2.58989
2.58639
2.58033
2.57026
2.55463
2.53167
2.49959
2.45691
2.39874
2.32223
2.2332
1
1
1
1
1
1
1
1
1
1
1
1
1
1
1
1
1
1
1
1
1
1
1
1
1
1
0.999998
1.66632
2.46801
2.56377
2.57439
2.58208
2.58549
2.5855
2.58404
2.58121
2.57752
2.57311
2.56773
2.56057
2.55032
2.53536
2.51368
2.48308
2.44192
2.38728
2.32059
2.2424
1
1
1
1
1
1
1
1
1
1
1
1
1
1
1
1
1
1
1
1
1
1
1
1
1
1
0.999999
1.16921
2.32342
2.56152
2.55874
2.56337
2.56954
2.57208
2.57147
2.56886
2.56429
2.5582
2.55075
2.54173
2.53041
2.51549
2.49514
2.46695
2.42849
2.3793
2.32042
2.25161
1
1
1
1
1
1
1
1
1
1
1
1
1
1
1
1
1
1
1
1
1
1
1
1
1
1
1
1.00706
2.1638
2.53024
2.53483
2.54425
2.55102
2.55533
2.55667
2.55522
2.55121
2.54463
2.53586
2.52509
2.51212
2.4964
2.47655
2.45038
2.41512
2.37217
2.32013
2.26044
1
1
1
1
1
1
1
1
1
1
1
1
1
1
1
1
1
1
1
1
1
1
1
1
1
1
1
0.999983
1.79365
2.47038
2.51863
2.52894
2.53527
2.53938
2.54143
2.54059
2.53739
2.53124
2.52217
2.51051
2.49626
2.47954
2.45906
2.43355
2.40178
2.36456
2.31859
2.26774
1
1
1
1
1
1
1
1
1
1
1
1
1
1
1
1
1
1
1
1
1
1
1
1
1
1
1
0.999994
1.25017
2.33732
2.52375
2.51699
2.51842
2.52137
2.52345
2.52318
2.52114
2.51629
2.50809
2.49674
2.48204
2.46492
2.44341
2.41804
2.38903
2.35561
2.31473
2.27125
1
1
1
1
1
1
1
1
1
1
1
1
1
1
1
1
1
1
1
1
1
1
1
1
1
1
1
0.999999
1.01515
2.17056
2.49718
2.49661
2.50123
2.50354
2.50516
2.5051
2.50365
2.49989
2.49304
2.48282
2.46916
2.45167
2.43019
2.40529
2.37798
2.34647
2.31024
2.27133
1
1
1
1
1
1
1
1
1
1
1
1
1
1
1
1
1
1
1
1
1
1
1
1
1
1
1
1
1.00001
1.74684
2.42817
2.48496
2.48875
2.4901
2.49035
2.48927
2.4869
2.48298
2.4769
2.46783
2.45544
2.43885
2.41848
2.39472
2.36854
2.33816
2.3055
2.26975
1
1
1
1
1
1
1
1
1
1
1
1
1
1
1
1
1
1
1
1
1
1
1
1
1
1
1
1
0.999996
1.15473
2.27991
2.49047
2.4797
2.47724
2.47575
2.47323
2.46995
2.46577
2.46
2.45188
2.44064
2.42594
2.40732
2.38538
2.36052
2.33162
2.30146
2.26777
1
1
1
1
1
1
1
1
1
1
1
1
1
1
1
1
1
1
1
1
1
1
1
1
1
1
1
1
0.999999
1.00557
2.06415
2.45122
2.45699
2.46243
2.46096
2.45808
2.45445
2.44983
2.44379
2.4359
2.42546
2.41216
2.39537
2.37564
2.35263
2.32561
2.29742
2.26585
1
1
1
1
1
1
1
1
1
1
1
1
1
1
1
1
1
1
1
1
1
1
1
1
1
1
1
1
1
0.999984
1.53782
2.34578
2.44682
2.44936
2.44822
2.44577
2.44202
2.43679
2.42992
2.42131
2.41079
2.39809
2.38266
2.36504
2.34413
2.31931
2.29328
2.26415
1
1
1
1
1
1
1
1
1
1
1
1
1
1
1
1
1
1
1
1
1
1
1
1
1
1
1
1
1
0.999995
1.07389
2.16658
2.43803
2.43338
2.43295
2.43148
2.42861
2.42366
2.41648
2.40738
2.39665
2.38426
2.36976
2.3536
2.33448
2.31192
2.28818
2.26165
1
1
1
1
1
1
1
1
1
1
1
1
1
1
1
1
1
1
1
1
1
1
1
1
1
1
1
1
1
0.999999
1.00103
1.7611
2.35996
2.41052
2.41381
2.41583
2.4147
2.41079
2.40401
2.395
2.38425
2.37189
2.35767
2.34206
2.32425
2.30371
2.28202
2.25795
1
1
1
1
1
1
1
1
1
1
1
1
1
1
1
1
1
1
1
1
1
1
1
1
1
1
1
1
1
1
0.999998
1.16888
2.19631
2.40881
2.40054
2.4016
2.40027
2.3966
2.39061
2.38244
2.37234
2.3604
2.34646
2.33105
2.31393
2.29487
2.2747
2.25275
1
1
1
1
1
1
1
1
1
1
1
1
1
1
1
1
1
1
1
1
1
1
1
1
1
1
1
1
1
1
0.999999
1.00612
1.88752
2.3595
2.37716
2.38156
2.38124
2.37918
2.375
2.36853
2.35991
2.3491
2.33591
2.32091
2.30433
2.2862
2.26701
2.24666
1
1
1
1
1
1
1
1
1
1
1
1
1
1
1
1
1
1
1
1
1
1
1
1
1
1
1
1
1
1
1
1.00001
1.25836
2.20562
2.37734
2.36963
2.3672
2.3641
2.35984
2.35413
2.34658
2.33681
2.32468
2.31059
2.29492
2.27777
2.25945
2.24025
1
1
1
1
1
1
1
1
1
1
1
1
1
1
1
1
1
1
1
1
1
1
1
1
1
1
1
1
1
1
1
1
1.01481
1.945
2.34023
2.3533
2.35011
2.347
2.3432
2.33813
2.33139
2.32275
2.31203
2.2994
2.28519
2.26947
2.25231
2.234
1
1
1
1
1
1
1
1
1
1
1
1
1
1
1
1
1
1
1
1
1
1
1
1
1
1
1
1
1
1
1
1
1.00004
1.31646
2.19426
2.34835
2.33906
2.3347
2.3299
2.3241
2.31733
2.30933
2.29981
2.28861
2.27571
2.26123
2.24527
2.22789
1
1
1
1
1
1
1
1
1
1
1
1
1
1
1
1
1
1
1
1
1
1
1
1
1
1
1
1
1
1
1
1
1
1.02258
1.94939
2.31393
2.32559
2.32122
2.31609
2.31002
2.30298
2.29497
2.28595
2.27578
2.26427
2.25133
2.23702
2.22131
1
1
1
1
1
1
1
1
1
1
1
1
1
1
1
1
1
1
1
1
1
1
1
1
1
1
1
1
1
1
1
1
1
1.00011
1.33323
2.16487
2.31621
2.30902
2.30418
2.29779
2.29016
2.28184
2.27302
2.26357
2.25327
2.2418
2.22896
2.21475
1
1
1
1
1
1
1
1
1
1
1
1
1
1
1
1
1
1
1
1
1
1
1
1
1
1
1
1
1
1
1
1
1
1
1.02513
1.89935
2.27904
2.29865
2.29184
2.28505
2.27747
2.26944
2.26094
2.25187
2.24207
2.23144
2.21964
2.20646
1
1
1
1
1
1
1
1
1
1
1
1
1
1
1
1
1
1
1
1
1
1
1
1
1
1
1
1
1
1
1
1
1
1
1.00016
1.29791
2.11822
2.28604
2.27861
2.27342
2.26639
2.25867
2.25042
2.24159
2.23195
2.22158
2.21036
2.19791
1
1
1
1
1
1
1
1
1
1
1
1
1
1
1
1
1
1
1
1
1
1
1
1
1
1
1
1
1
1
1
1
1
1
1
1.0197
1.79168
2.22964
2.26914
2.26117
2.25432
2.24759
2.24027
2.23201
2.22258
2.21215
2.20098
2.18897
1
1
1
1
1
1
1
1
1
1
1
1
1
1
1
1
1
1
1
1
1
1
1
1
1
1
1
1
1
1
1
1
1
1
1
1.00013
1.21914
2.04853
2.25481
2.24783
2.24422
2.23869
2.23155
2.22312
2.21363
2.2032
2.19211
2.18046
1
1
1
1
1
1
1
1
1
1
1
1
1
1
1
1
1
1
1
1
1
1
1
1
1
1
1
1
1
1
1
1
1
1
1
1
1.01039
1.61138
2.15404
2.23497
2.22944
2.22525
2.21946
2.21217
2.20372
2.19423
2.18376
2.17248
1
1
1
1
1
1
1
1
1
1
1
1
1
1
1
1
1
1
1
1
1
1
1
1
1
1
1
1
1
1
1
1
1
1
1
1
1.00007
1.11759
1.94928
2.22308
2.21633
2.21142
2.20634
2.20078
2.19393
2.18572
2.17607
2.16521
1
1
1
1
1
1
1
1
1
1
1
1
1
1
1
1
1
1
1
1
1
1
1
1
1
1
1
1
1
1
1
1
1
1
1
1
1
1.00308
1.42886
2.08552
2.20205
2.19384
2.19042
2.18629
2.18084
2.17406
2.16605
2.15661
1
1
1
1
1
1
1
1
1
1
1
1
1
1
1
1
1
1
1
1
1
1
1
1
1
1
1
1
1
1
1
1
1
1
1
1
1
1.00001
1.04823
1.78556
2.16014
2.18962
2.18245
2.17619
2.17004
2.16348
2.15632
2.14822
1
1
1
1
1
1
1
1
1
1
1
1
1
1
1
1
1
1
1
1
1
1
1
1
1
1
1
1
1
1
1
1
1
1
1
1
1
1
1.00067
1.23912
1.9796
2.17669
2.16904
2.16314
2.15721
2.15101
2.14444
2.13738
1
1
1
1
1
1
1
1
1
1
1
1
1
1
1
1
1
1
1
1
1
1
1
1
1
1
1
1
1
1
1
1
1
1
1
1
1
1
1
1.01296
1.53469
2.0747
2.15812
2.15075
2.14524
2.13978
2.13374
2.127
1
1
1
1
1
1
1
1
1
1
1
1
1
1
1
1
1
1
1
1
1
1
1
1
1
1
1
1
1
1
1
1
1
1
1
1
1
1
1
1.00011
1.08676
1.81732
2.12635
2.14556
2.13818
2.13118
2.12431
2.11722
1
1
1
1
1
1
1
1
1
1
1
1
1
1
1
1
1
1
1
1
1
1
1
1
1
1
1
1
1
1
1
1
1
1
1
1
1
1
1
1
1.00192
1.28874
1.95953
2.13037
2.12613
2.11965
2.11327
2.1066
1
1
1
1
1
1
1
1
1
1
1
1
1
1
1
1
1
1
1
1
1
1
1
1
1
1
1
1
1
1
1
1
1
1
1
1
1
1
1
1
1.00001
1.01997
1.54228
2.03869
2.11659
2.109
2.1023
2.09642
1
1
1
1
1
1
1
1
1
1
1
1
1
1
1
1
1
1
1
1
1
1
1
1
1
1
1
1
1
1
1
1
1
1
1
1
1
1
1
1
1
1.00021
1.09382
1.77621
2.07422
2.10617
2.09713
2.08878
1
1
1
1
1
1
1
1
1
1
1
1
1
1
1
1
1
1
1
1
1
1
1
1
1
1
1
1
1
1
1
1
1
1
1
1
1
1
1
1
1
1
1.00233
1.26199
1.89896
2.0885
2.08769
2.08041
1
1
1
1
1
1
1
1
1
1
1
1
1
1
1
1
1
1
1
1
1
1
1
1
1
1
1
1
1
1
1
1
1
1
1
1
1
1
1
1
1
1
1.00001
1.01664
1.46672
1.97827
2.0758
2.07094
1
1
1
1
1
1
1
1
1
1
1
1
1
1
1
1
1
1
1
1
1
1
1
1
1
1
1
1
1
1
1
1
1
1
1
1
1
1
1
1
1
1
1
1.00018
1.06702
1.66654
2.01903
2.06633
1
1
1
1
1
1
1
1
1
1
1
1
1
1
1
1
1
1
1
1
1
1
1
1
1
1
1
1
1
1
1
1
1
1
1
1
1
1
1
1
1
1
1
1
1.0014
1.17797
1.81102
2.03154
1
1
1
1
1
1
1
1
1
1
1
1
1
1
1
1
1
1
1
1
1
1
1
1
1
1
1
1
1
1
1
1
1
1
1
1
1
1
1
1
1
1
1
1
1.00001
1.00793
1.33872
1.88277
1
1
1
1
1
1
1
1
1
1
1
1
1
1
1
1
1
1
1
1
1
1
1
1
1
1
1
1
1
1
1
1
1
1
1
1
1
1
1
1
1
1
1
1
1
1.00007
1.03111
1.49531
1
1
1
1
1
1
1
1
1
1
1
1
1
1
1
1
1
1
1
1
1
1
1
1
1
1
1
1
1
1
1
1
1
1
1
1
1
1
1
1
1
1
1
1
1
1
1.00043
1.08522
1
1
1
1
1
1
1
1
1
1
1
1
1
1
1
1
1
1
1
1
1
1
1
1
1
1
1
1
1
1
1
1
1
1
1
1
1
1
1
1
1
1
1
1
1
1
1
1.00233
1
1
1
1
1
1
1
1
1
1
1
1
1
1
1
1
1
1
1
1
1
1
1
1
1
1
1
1
1
1
1
1
1
1
1
1
1
1
1
1
1
1
1
1
1
1
1
1.00001
1
1
1
1
1
1
1
1
1
1
1
1
1
1
1
1
1
1
1
1
1
1
1
1
1
1
1
1
1
1
1
1
1
1
1
1
1
1
1
1
1
1
1
1
1
1
1
1
1
1
1
1
1
1
1
1
1
1
1
1
1
1
1
1
1
1
1
1
1
1
1
1
1
1
1
1
1
1
1
1
1
1
1
1
1
1
1
1
1
1
1
1
1
1
1
1
1
1
1
1
1
1
1
1
1
1
1
1
1
1
1
1
1
1
1
1
1
1
1
1
1
1
1
1
1
1
1
1
1
1
1
1
1
1
1
1
1
1
1
1
1
1
1
1
1
1
1
1
1
1
1
1
1
1
1
1
1
1
1
1
1
1
1
1
1
1
1
1
1
1
1
1
1
1
1
1
1
1
1
1
1
1
1
1
1
1
1
1
1
1
1
1
1
1
1
1
1
1
1
1
1
1
1
1
1
1
1
1
1
1
1
1
1
1
1
1
1
1
1
1
1
1
1
1
1
1
1
1
1
1
1
1
1
1
1
1
1
1
1
1
1
1
1
1
1
1
1
1
1
1
1
1
1
1
1
1
1
1
1
1
1
1
1
1
1
1
1
1
1
1
1
1
1
1
1
1
1
1
1
1
1
1
1
1
1
1
1
1
1
1
1
1
1
1
1
1
1
1
1
1
1
1
1
1
1
1
1
1
1
1
1
1
1
1
1
1
1
1
1
1
1
1
1
1
1
1
1
1
1
1
1
1
1
1
1
1
1
1
1
1
1
1
1
1
1
1
1
1
1
1
1
1
1
1
1
1
1
1
1
1
1
1
1
1
1
1
1
1
1
1
1
1
1
1
1
1
1
1
1
1
1
1
1
1
1
1
1
1
1
1
1
1
1
1
1
1
1
1
1
1
1
1
1
1
1
1
1
1
1
1
1
1
1
1
1
1
1
1
1
1
1
1
1
1
1
1
1
1
1
1
1
1
1
1
1
1
1
1
1
1
1
1
1
1
1
1
1
1
1
1
1
1
1
1
1
1
1
1
1
1
1
1
1
1
1
1
1
1
1
1
1
1
1
1
1
1
1
1
1
1
1
1
1
1
1
1
1
1
1
1
1
1
1
1
1
1
1
1
1
1
1
1
1
1
1
1
1
1
1
1
1
1
1
1
1
1
1
1
1
1
1
1
1
1
1
1
1
1
1
1
1
1
1
1
1
1
1
1
1
1
1
1
1
1
1
1
1
1
1
1
1
1
1
1
1
1
1
1
1
1
1
1
1
1
1
1
1
1
1
1
1
1
1
1
1
1
1
1
1
1
1
1
1
1
1
1
1
1
1
1
1
1
1
1
1
1
1
1
1
1
1
1
1
1
1
1
1
1
1
1
1
1
1
1
1
1
1
1
1
1
1
1
1
1
1
1
1
1
1
1
1
1
1
1
1
1
1
1
1
1
1
1
1
1
1
1
1
1
1
1
1
1
1
1
1
1
1
1
1
1
1
1
1
1
1
1
1
1
1
1
1
1
1
1
1
1
1
1
1
1
1
1
1
1
1
1
1
1
1
1
1
1
1
1
1
1
1
1
1
1
1
1
1
1
1
1
1
1
1
1
1
1
1
1
1
1
1
1
1
1
1.55324
1.01587
0.83485
0.65924
0.769678
0.954788
1.09289
1.12935
1.1795
1.26568
1.34023
1.3789
1.42251
1.46911
1.4746
1.49133
1.526
1.57291
1.62931
1.64017
1.63227
1.61144
1.59851
1.60314
1.6252
1.65581
1.66589
1.66459
1.65251
1.64401
1.64713
1.66857
1.69149
1.69262
1.68963
1.68182
1.67637
1.67638
1.67673
1.67538
1.66928
1.66121
1.65996
1.66395
1.6695
1.67187
1.67171
1.67017
1.66631
1.66411
1.66519
1.66872
1.67473
1.67937
1.67967
1.67849
1.67591
1.67259
2.30129
2.83287
2.82809
2.8208
2.81292
2.8075
2.80533
2.80445
2.80343
2.80019
2.79263
2.78174
2.77077
2.76168
2.75422
2.74674
2.73752
2.72614
2.71373
2.70221
2.69299
2.68562
2.67887
2.67243
2.66677
2.66265
2.66049
2.65959
2.6575
2.65045
2.63864
2.6256
2.61349
2.6033
2.59645
2.59377
2.59163
2.58531
2.57344
2.56019
2.54629
2.53267
2.5215
2.51293
2.5079
2.50533
2.50275
2.49853
2.49176
2.48304
2.47252
2.45985
2.44819
2.43888
2.43052
2.42425
2.41972
2.41488
2.40869
2.40159
2.39389
2.3857
2.37695
2.36729
2.35708
2.34748
2.33877
2.33211
2.32724
2.32406
2.3237
2.32527
2.32502
2.32082
2.31453
2.30518
2.2906
2.27854
2.27184
2.26766
2.26489
2.26421
2.26398
2.2621
2.25813
2.25152
2.2425
2.2298
2.21476
2.20349
2.19564
2.18954
2.18652
2.1859
2.18355
2.17928
2.17435
2.16718
2.15649
2.14744
2.1416
2.13707
2.13277
2.12888
2.12522
2.12107
2.11663
2.11214
2.10772
2.10331
2.09839
2.0927
2.08555
2.07579
2.06204
2.04641
2.03505
2.02774
2.022
2.01726
2.01427
2.01289
2.01067
2.00768
2.00451
2.001
1.99637
1.99107
1.98759
1.98555
1.98367
1.98121
1.9776
1.96714
1.78658
1.50241
1.34364
1.13253
1.03662
1.06063
1.06768
1.04984
1.03632
1.04383
1.0765
1.12062
1.13704
1.16728
1.23178
1.28309
1.33106
1.37428
1.41942
1.46749
1.50439
1.52153
1.52901
1.53733
1.56068
1.59061
1.60639
1.60571
1.59689
1.59468
1.59908
1.61805
1.6419
1.64823
1.64806
1.64612
1.64464
1.64579
1.64741
1.6467
1.64256
1.63822
1.63908
1.64367
1.64631
1.64819
1.64884
1.64806
1.64678
1.64552
1.64611
1.64981
1.65519
1.65999
1.6617
1.66136
1.66039
1.65728
2.26259
2.81092
2.81777
2.80761
2.79489
2.78723
2.78231
2.77945
2.77699
2.77376
2.76845
2.75987
2.74892
2.73831
2.72955
2.72265
2.71618
2.70785
2.69675
2.68386
2.67141
2.6613
2.65406
2.64852
2.64337
2.63863
2.63478
2.63237
2.63101
2.62839
2.62329
2.61558
2.60574
2.59471
2.58432
2.57507
2.56673
2.55948
2.55236
2.54444
2.53491
2.52411
2.51331
2.50382
2.49613
2.49018
2.48555
2.48094
2.47534
2.46909
2.46253
2.4556
2.4476
2.43803
2.42779
2.41832
2.40994
2.40181
2.3939
2.38588
2.37801
2.37075
2.36454
2.35946
2.35386
2.34729
2.33998
2.33182
2.32431
2.31899
2.3154
2.31301
2.31016
2.30622
2.30105
2.29428
2.28743
2.28036
2.27294
2.26685
2.26279
2.26048
2.2585
2.25434
2.24827
2.24131
2.23397
2.22465
2.21475
2.20532
2.19603
2.18863
2.18354
2.17942
2.17422
2.16972
2.16578
2.16061
2.15464
2.14851
2.14189
2.13541
2.12991
2.12534
2.12104
2.11694
2.11277
2.10836
2.10371
2.09873
2.09313
2.08648
2.0785
2.06946
2.05887
2.04808
2.038
2.02929
2.02246
2.01723
2.01378
2.01151
2.00795
2.00449
2.00122
1.99758
1.99316
1.98838
1.98457
1.98171
1.97899
1.97613
1.97315
1.96555
1.92734
1.69202
1.53361
1.38658
1.23526
1.20488
1.18182
1.13448
1.07078
1.03954
1.05322
1.06469
1.06062
1.07038
1.1145
1.15006
1.16771
1.19181
1.22344
1.27702
1.33696
1.3777
1.41271
1.43748
1.46231
1.48806
1.50837
1.5167
1.51816
1.52171
1.52871
1.54556
1.56559
1.57305
1.57521
1.57617
1.57779
1.58074
1.58308
1.58232
1.58154
1.5839
1.59221
1.59914
1.60171
1.6029
1.60274
1.60154
1.60167
1.60249
1.60617
1.61234
1.61679
1.61766
1.61682
1.61555
1.61444
1.6188
2.08681
2.71757
2.75634
2.73254
2.72028
2.71583
2.71339
2.70946
2.70472
2.69937
2.69463
2.69044
2.68462
2.67549
2.66641
2.65818
2.65171
2.64723
2.64291
2.63611
2.62535
2.61327
2.60236
2.59427
2.58951
2.58617
2.58185
2.57655
2.57151
2.56699
2.56418
2.5628
2.56141
2.55862
2.55213
2.54139
2.52791
2.51496
2.50437
2.49656
2.49071
2.48528
2.47903
2.47183
2.46423
2.45604
2.44732
2.43898
2.4317
2.42573
2.42139
2.41869
2.41674
2.41399
2.40957
2.40261
2.39222
2.37946
2.36732
2.3569
2.34743
2.33911
2.33257
2.32866
2.32635
2.32364
2.3205
2.31657
2.31201
2.30623
2.2985
2.28946
2.28118
2.27424
2.26854
2.26496
2.2632
2.26057
2.25717
2.2544
2.25199
2.24857
2.24333
2.2361
2.2276
2.21918
2.21093
2.20401
2.19871
2.19465
2.18959
2.18282
2.17486
2.16572
2.15641
2.1489
2.14288
2.13904
2.13717
2.13468
2.13109
2.1267
2.12116
2.11481
2.10882
2.10392
2.09982
2.09589
2.09164
2.08669
2.08043
2.07265
2.064
2.05466
2.04656
2.03963
2.03238
2.02466
2.01799
2.01292
2.00882
2.00443
2.00001
1.99549
1.99109
1.98706
1.98322
1.97945
1.97555
1.97153
1.96763
1.96405
1.96046
1.9551
1.98579
1.80765
1.67632
1.56453
1.42957
1.32798
1.30082
1.27848
1.22452
1.15819
1.15545
1.15254
1.13104
1.10952
1.1103
1.11717
1.11123
1.10929
1.11455
1.13721
1.18093
1.23065
1.28934
1.33704
1.35838
1.37667
1.39549
1.4128
1.42952
1.44705
1.46592
1.48339
1.49855
1.50295
1.5053
1.50811
1.51277
1.51874
1.52062
1.52171
1.52446
1.53229
1.54158
1.54592
1.54594
1.54472
1.54488
1.54455
1.54489
1.54776
1.55447
1.56261
1.56555
1.56492
1.5629
1.56014
1.56529
1.58768
1.82194
2.5034
2.66388
2.62163
2.59886
2.59958
2.60083
2.59925
2.59417
2.58674
2.58079
2.57657
2.57497
2.5723
2.56631
2.55906
2.55147
2.5448
2.54036
2.53877
2.53619
2.52898
2.5199
2.5098
2.50205
2.49774
2.49651
2.49514
2.4925
2.48837
2.48367
2.48061
2.47883
2.47844
2.47687
2.47101
2.46287
2.45244
2.44082
2.43166
2.4246
2.42013
2.41649
2.41147
2.40527
2.39843
2.39068
2.38252
2.37548
2.36975
2.36512
2.36204
2.36043
2.35928
2.35746
2.35454
2.34915
2.34082
2.3307
2.321
2.31273
2.30498
2.2977
2.29122
2.2854
2.28037
2.27664
2.27373
2.27028
2.26582
2.26044
2.25389
2.24612
2.23806
2.23189
2.22787
2.22496
2.2226
2.22084
2.21936
2.21744
2.21464
2.21058
2.20532
2.19832
2.18928
2.18126
2.17565
2.17076
2.16753
2.16503
2.15947
2.15205
2.14392
2.13406
2.12336
2.11492
2.10998
2.10675
2.10474
2.10332
2.10107
2.09808
2.09397
2.08844
2.0821
2.07604
2.07106
2.06686
2.06234
2.05644
2.04884
2.04069
2.03426
2.02931
2.0246
2.01954
2.01392
2.0075
2.00047
1.99385
1.98858
1.984
1.97912
1.9738
1.96875
1.96469
1.96127
1.95778
1.95361
1.94867
1.94362
1.9406
1.93787
2.04717
1.90006
1.77335
1.67597
1.59382
1.49064
1.40296
1.37528
1.34399
1.28266
1.24527
1.24189
1.22598
1.18977
1.17287
1.16906
1.15182
1.13441
1.13552
1.14726
1.14989
1.15402
1.17093
1.20481
1.23529
1.26442
1.29753
1.33199
1.3659
1.39087
1.41483
1.43076
1.4421
1.44912
1.45357
1.4594
1.46568
1.47524
1.48482
1.49442
1.50235
1.50842
1.51333
1.51302
1.51008
1.50638
1.50641
1.50648
1.50793
1.51405
1.52415
1.52957
1.52968
1.52871
1.5257
1.52863
1.55586
1.65835
1.78612
2.18302
2.48135
2.53276
2.50112
2.4879
2.48973
2.49217
2.49056
2.48386
2.47684
2.47292
2.47151
2.47322
2.47309
2.46983
2.46331
2.45458
2.44946
2.44696
2.44759
2.44689
2.44296
2.43641
2.42691
2.41986
2.41641
2.41467
2.41321
2.41146
2.40823
2.4036
2.40058
2.39806
2.39567
2.39242
2.38769
2.38129
2.37291
2.36488
2.35895
2.35465
2.35152
2.34727
2.34235
2.33671
2.32944
2.32137
2.31528
2.31099
2.30767
2.30518
2.30244
2.29964
2.29662
2.29263
2.28747
2.2813
2.27422
2.26724
2.26159
2.25663
2.25238
2.24761
2.24149
2.23476
2.22799
2.22176
2.21599
2.21079
2.20596
2.20123
2.19659
2.19216
2.18804
2.18471
2.18215
2.17982
2.17719
2.17388
2.16968
2.16503
2.16061
2.15644
2.15242
2.14861
2.14473
2.14057
2.13662
2.13256
2.12744
2.12114
2.11401
2.10615
2.09807
2.09083
2.08445
2.07809
2.0727
2.0695
2.0673
2.06547
2.06368
2.06165
2.05901
2.05517
2.0496
2.0425
2.03477
2.02723
2.02009
2.01383
2.00958
2.00649
2.00414
2.00233
1.99964
1.99543
1.98979
1.98195
1.97174
1.96268
1.95692
1.95239
1.94814
1.9443
1.94081
1.93718
1.93279
1.92726
1.92183
1.91815
1.9173
1.91581
2.09359
1.97851
1.86437
1.75511
1.69044
1.61997
1.52998
1.45634
1.43512
1.39674
1.33994
1.32084
1.31107
1.28215
1.24699
1.23677
1.22262
1.1937
1.18208
1.18229
1.18074
1.16972
1.16812
1.17283
1.17826
1.18343
1.19518
1.2201
1.26175
1.30552
1.34573
1.37769
1.39637
1.41194
1.42377
1.4323
1.4408
1.44916
1.45997
1.47397
1.48411
1.48915
1.49156
1.49054
1.48664
1.48552
1.48749
1.48977
1.49382
1.50228
1.50852
1.50902
1.50861
1.50836
1.51148
1.54222
1.64961
1.81503
1.86003
1.94292
2.23044
2.40789
2.44856
2.43622
2.42928
2.42574
2.42557
2.42185
2.41448
2.40915
2.40532
2.40585
2.4087
2.40725
2.40377
2.39704
2.39125
2.38874
2.38811
2.38839
2.38629
2.38214
2.37489
2.36631
2.36162
2.35908
2.35768
2.35554
2.35231
2.34686
2.34041
2.33676
2.33409
2.33211
2.32965
2.3258
2.32034
2.31305
2.30634
2.30171
2.29818
2.29481
2.29098
2.28642
2.28065
2.2744
2.26947
2.26585
2.26258
2.25882
2.25469
2.25015
2.24492
2.23945
2.23472
2.23088
2.22747
2.22364
2.21902
2.21449
2.2103
2.20554
2.19974
2.19197
2.18286
2.17449
2.16782
2.16289
2.15941
2.15678
2.15476
2.15277
2.15008
2.14631
2.14196
2.13754
2.13281
2.12779
2.12292
2.11851
2.11456
2.11159
2.10974
2.1083
2.10637
2.103
2.09805
2.0925
2.08637
2.07967
2.07317
2.06741
2.06223
2.05757
2.05298
2.04763
2.04106
2.03472
2.03066
2.02809
2.02616
2.02462
2.02321
2.02159
2.01853
2.01189
2.00172
1.99129
1.98392
1.98027
1.97803
1.97613
1.9753
1.97558
1.97455
1.97111
1.96677
1.96049
1.95007
1.93717
1.92761
1.92268
1.91946
1.91663
1.91377
1.91024
1.90545
1.89992
1.89572
1.89309
1.89228
1.89072
2.13075
2.03541
1.93528
1.84071
1.76882
1.69946
1.62655
1.55394
1.51562
1.48131
1.43492
1.39325
1.37718
1.35165
1.30951
1.28602
1.28194
1.26869
1.24099
1.23044
1.23144
1.22468
1.20432
1.1962
1.1976
1.19295
1.18944
1.18919
1.19554
1.21257
1.23971
1.27569
1.30819
1.33881
1.37042
1.39555
1.41655
1.42962
1.44361
1.46154
1.47164
1.47512
1.47643
1.47596
1.47409
1.47567
1.47954
1.48385
1.48891
1.49556
1.4978
1.49765
1.49927
1.50553
1.54354
1.66771
1.80391
1.89495
1.91151
1.91403
1.99138
2.22802
2.38407
2.41522
2.41052
2.40406
2.3984
2.39487
2.39112
2.38664
2.38183
2.38034
2.38312
2.38327
2.37977
2.3733
2.364
2.35824
2.35541
2.35423
2.35396
2.35175
2.34833
2.34306
2.33845
2.33544
2.33278
2.32919
2.32472
2.3185
2.3099
2.30301
2.29946
2.2966
2.29462
2.29197
2.28814
2.28287
2.27593
2.26933
2.26468
2.26058
2.25649
2.2523
2.24812
2.24448
2.24139
2.23841
2.23477
2.23033
2.22475
2.21754
2.20995
2.20472
2.20182
2.19988
2.1986
2.19681
2.19373
2.18846
2.18101
2.17321
2.16521
2.15641
2.14761
2.14018
2.13494
2.13144
2.12963
2.12956
2.1295
2.12834
2.12574
2.11992
2.11033
2.10107
2.09421
2.0891
2.08516
2.08227
2.08027
2.07927
2.07882
2.07807
2.07646
2.07263
2.06474
2.05558
2.04871
2.04378
2.03972
2.03632
2.0339
2.03084
2.02723
2.02324
2.017
2.00817
2.00141
1.99823
1.99629
1.99496
1.9941
1.99275
1.98903
1.98082
1.97044
1.9616
1.95582
1.95264
1.95065
1.94917
1.94897
1.94982
1.94894
1.94589
1.94172
1.93548
1.92665
1.91627
1.906
1.8984
1.89419
1.8911
1.8876
1.88312
1.87847
1.87511
1.87339
1.87187
1.87062
1.86768
2.1577
2.07616
1.98703
1.90978
1.83996
1.77003
1.70105
1.64337
1.58893
1.55091
1.5135
1.46678
1.43576
1.41564
1.38405
1.34297
1.33385
1.32878
1.31189
1.28697
1.27869
1.27446
1.25989
1.23712
1.22592
1.22082
1.20966
1.19883
1.19893
1.20805
1.21487
1.21839
1.22285
1.2334
1.25635
1.29317
1.33392
1.37632
1.41173
1.43483
1.44979
1.45873
1.46413
1.46693
1.46893
1.47092
1.47428
1.48046
1.48894
1.49174
1.49094
1.48995
1.49967
1.55519
1.67751
1.8225
1.90175
1.91183
1.91354
1.91161
1.91777
2.00483
2.23722
2.38344
2.4037
2.39702
2.38937
2.38523
2.38548
2.38365
2.37841
2.37514
2.37429
2.37246
2.36777
2.36143
2.35395
2.34632
2.3419
2.33957
2.33966
2.33978
2.33758
2.33405
2.32852
2.32333
2.31935
2.31541
2.31084
2.30549
2.29825
2.28926
2.28308
2.27956
2.2769
2.27509
2.27204
2.26805
2.26283
2.25615
2.24984
2.24471
2.24017
2.23626
2.23299
2.23005
2.22698
2.22341
2.21926
2.21395
2.20723
2.1992
2.19186
2.18767
2.18487
2.18308
2.18147
2.1787
2.17496
2.16871
2.15894
2.14833
2.13989
2.13326
2.12788
2.12366
2.12034
2.11855
2.11808
2.11725
2.11523
2.11203
2.10655
2.09775
2.08634
2.07705
2.07145
2.06783
2.06514
2.06353
2.0632
2.06323
2.06241
2.06061
2.05711
2.04986
2.03937
2.02934
2.02249
2.01843
2.01543
2.01309
2.012
2.01042
2.00768
2.00444
1.99904
1.99068
1.98311
1.97883
1.97621
1.97412
1.97163
1.9674
1.961
1.95353
1.94711
1.9423
1.93841
1.93498
1.93258
1.93122
1.93053
1.92926
1.92657
1.92272
1.9176
1.91145
1.90537
1.89958
1.8929
1.88421
1.87562
1.8698
1.86521
1.86104
1.85847
1.85687
1.8559
1.85486
1.85358
1.85018
2.18086
2.10692
2.02933
1.96297
1.89691
1.82568
1.76733
1.71466
1.65641
1.61142
1.58262
1.54085
1.49091
1.46662
1.44817
1.41998
1.38588
1.37459
1.36459
1.34347
1.32001
1.31282
1.30604
1.29021
1.26776
1.26027
1.25518
1.24305
1.23045
1.22955
1.22999
1.22712
1.22031
1.21408
1.2149
1.22125
1.23548
1.26745
1.31405
1.36248
1.4021
1.42685
1.44452
1.45771
1.46236
1.46318
1.46759
1.47738
1.48613
1.4888
1.48973
1.49892
1.56976
1.70715
1.82648
1.90128
1.91076
1.91357
1.91467
1.9151
1.91802
1.93052
2.0206
2.24308
2.38319
2.39182
2.38438
2.37971
2.38226
2.38514
2.38205
2.37679
2.37035
2.36452
2.35948
2.35512
2.35098
2.34552
2.33924
2.33529
2.33317
2.33263
2.32996
2.32578
2.31996
2.31363
2.30938
2.30573
2.30274
2.29868
2.29334
2.28566
2.27649
2.27097
2.26753
2.26547
2.26363
2.26012
2.25574
2.24976
2.24286
2.23735
2.23329
2.22986
2.22659
2.22298
2.21882
2.21414
2.20876
2.20261
2.19622
2.18968
2.18327
2.17769
2.17369
2.17071
2.16726
2.16335
2.15886
2.15316
2.14582
2.13698
2.12896
2.12383
2.12026
2.11808
2.11704
2.11514
2.1119
2.10797
2.10248
2.09595
2.08874
2.08046
2.07222
2.06577
2.06162
2.0587
2.05679
2.05595
2.05507
2.05311
2.05037
2.04568
2.03829
2.03
2.02277
2.0165
2.01064
2.00552
2.00191
1.9996
1.9994
1.99928
1.99653
1.99246
1.98672
1.9801
1.9738
1.96812
1.96291
1.95784
1.95205
1.94581
1.93984
1.93553
1.93329
1.93172
1.93011
1.92802
1.92499
1.92101
1.91632
1.91155
1.90721
1.90297
1.89855
1.89451
1.89142
1.88845
1.88455
1.87744
1.8649
1.85337
1.84815
1.846
1.84447
1.8435
1.84333
1.84284
1.84174
1.83809
2.19832
2.13013
2.06495
2.00387
1.94041
1.87531
1.82237
1.77217
1.71981
1.66981
1.63697
1.60223
1.56053
1.51462
1.49706
1.47982
1.44906
1.42032
1.41
1.39928
1.37731
1.35089
1.33986
1.33057
1.31385
1.29623
1.29283
1.28949
1.27807
1.2639
1.25852
1.2536
1.24189
1.22632
1.22246
1.22319
1.22549
1.2289
1.2387
1.25855
1.28593
1.31907
1.35296
1.38697
1.41673
1.43316
1.44612
1.46602
1.48077
1.48611
1.50668
1.57137
1.72384
1.82636
1.88832
1.91374
1.91581
1.9163
1.9146
1.91372
1.91736
1.92047
1.93212
2.0171
2.22761
2.36757
2.37724
2.37496
2.37617
2.38334
2.38351
2.37975
2.37076
2.35884
2.35198
2.34825
2.34713
2.34458
2.33993
2.33338
2.32852
2.32507
2.32142
2.31676
2.31109
2.30503
2.30056
2.29733
2.29573
2.29324
2.2888
2.2831
2.27464
2.26633
2.26192
2.25878
2.25665
2.25346
2.24936
2.24411
2.23741
2.23194
2.22807
2.22447
2.2206
2.21608
2.21059
2.20386
2.19715
2.19228
2.1877
2.18296
2.17826
2.17298
2.16671
2.16027
2.15516
2.15102
2.14696
2.14303
2.13899
2.13439
2.12906
2.12403
2.12044
2.11767
2.11447
2.11006
2.10417
2.09684
2.08889
2.08085
2.07382
2.06832
2.06439
2.06104
2.05797
2.05564
2.05362
2.05092
2.04757
2.04367
2.03803
2.03093
2.02329
2.01714
2.01349
2.01082
2.00779
2.00389
1.99925
1.9945
1.99001
1.98534
1.98205
1.97975
1.97692
1.97242
1.96679
1.96057
1.95314
1.94498
1.93781
1.93203
1.9288
1.92746
1.92733
1.92842
1.92816
1.92632
1.92161
1.91276
1.90246
1.89471
1.88973
1.886
1.8838
1.88347
1.88364
1.88157
1.87851
1.87248
1.86073
1.84739
1.83994
1.83672
1.83492
1.8341
1.83427
1.83425
1.83374
1.8305
2.21234
2.15209
2.09505
2.03784
1.97576
1.9215
1.87069
1.82063