/*--------------------------------*- C++ -*----------------------------------*\
  =========                 |
  \\      /  F ield         | OpenFOAM: The Open Source CFD Toolbox
   \\    /   O peration     | Website:  https://openfoam.org
    \\  /    A nd           | Version:  7
     \\/     M anipulation  |
\*---------------------------------------------------------------------------*/
FoamFile
{
    version     2.0;
    format      ascii;
    class       volVectorField;
    location    "3.8";
    object      U;
}
// * * * * * * * * * * * * * * * * * * * * * * * * * * * * * * * * * * * * * //

dimensions      [0 1 -1 0 0 0 0];

internalField   nonuniform List<vector> 
16128
(
(3 5.11037e-17 0)
(3 -2.17277e-16 0)
(3 -2.11567e-16 0)
(3 -4.7677e-17 0)
(3 -1.9891e-16 0)
(3 -6.29494e-16 0)
(3 -8.54283e-16 0)
(3 -8.72329e-16 0)
(3 -9.19551e-16 0)
(3 -6.41839e-16 0)
(3 -1.0536e-16 0)
(3 -4.50638e-16 0)
(3 -8.90676e-16 0)
(3 -8.82274e-16 0)
(3 -7.73429e-16 0)
(3 -9.97227e-16 0)
(3 -1.3739e-15 0)
(3 -1.46134e-15 0)
(3 -1.62765e-15 0)
(3 -8.18465e-16 0)
(3 -1.95719e-16 0)
(3 -1.2709e-16 0)
(3 -2.50975e-16 0)
(3 -5.10274e-16 0)
(1.56163 0.00824424 0)
(0.775982 0.00929554 0)
(0.722376 0.011295 0)
(0.695827 0.0121588 0)
(0.665743 0.0126325 0)
(0.636358 0.0131813 0)
(0.606165 0.0136814 0)
(0.575589 0.0139865 0)
(0.544967 0.0140404 0)
(0.514801 0.0138635 0)
(0.485296 0.0137728 0)
(0.45579 0.0141318 0)
(0.425379 0.0147405 0)
(0.394086 0.01517 0)
(0.362373 0.0154255 0)
(0.330132 0.0157712 0)
(0.296998 0.0162931 0)
(0.262733 0.0169342 0)
(0.227078 0.0176805 0)
(0.189791 0.0185461 0)
(0.150727 0.0195356 0)
(0.109582 0.0206444 0)
(0.0665897 0.0212519 0)
(0.0231584 0.0219729 0)
(3 2.59248e-16 0)
(3 -3.70056e-16 0)
(3 -3.8946e-16 0)
(3 -3.68983e-16 0)
(3 -5.38504e-16 0)
(3 -1.2684e-15 0)
(3 -1.82408e-15 0)
(3 -1.65328e-15 0)
(3 -1.64979e-15 0)
(3 -1.35018e-15 0)
(3 -5.18706e-16 0)
(3 -6.26355e-16 0)
(3 -1.68525e-15 0)
(3 -1.79115e-15 0)
(3 -1.64635e-15 0)
(3 -1.49131e-15 0)
(3 -1.85463e-15 0)
(3 -1.72449e-15 0)
(3 -1.37172e-15 0)
(3 -1.53814e-15 0)
(3 -1.1349e-15 0)
(3 -1.13733e-15 0)
(3 -9.93132e-16 0)
(3 -9.05238e-16 0)
(1.57717 0.0384529 0)
(0.771746 0.0378687 0)
(0.714287 0.0334067 0)
(0.687269 0.0346212 0)
(0.657274 0.0360011 0)
(0.628034 0.0377998 0)
(0.598 0.0395317 0)
(0.567503 0.0406556 0)
(0.536855 0.0409592 0)
(0.506602 0.0404578 0)
(0.477012 0.0401676 0)
(0.447506 0.0412918 0)
(0.417201 0.0432496 0)
(0.386049 0.044678 0)
(0.354528 0.0455766 0)
(0.322591 0.0467634 0)
(0.289946 0.0485138 0)
(0.256404 0.0506314 0)
(0.221732 0.0530476 0)
(0.185659 0.0558213 0)
(0.14792 0.0589608 0)
(0.108059 0.0625095 0)
(0.0660024 0.0646408 0)
(0.0231551 0.0672283 0)
(3 2.37898e-17 0)
(3 3.78454e-16 0)
(3 4.40145e-16 0)
(3 3.82464e-16 0)
(3 2.91029e-16 0)
(3 2.59109e-16 0)
(3 -1.42654e-16 0)
(3 -9.75402e-17 0)
(3 -2.19658e-16 0)
(3 -2.25485e-16 0)
(3 -3.11706e-16 0)
(3 -5.94048e-16 0)
(3 -1.05221e-15 0)
(3 -1.94216e-15 0)
(3 -2.1858e-15 0)
(3 -1.94306e-15 0)
(3 -1.66925e-15 0)
(3 -1.31505e-15 0)
(3 -1.86628e-15 0)
(3 -2.34036e-15 0)
(3 -2.15945e-15 0)
(3 -1.83894e-15 0)
(3 -1.56662e-15 0)
(3 -1.84763e-15 0)
(1.62843 0.0682588 0)
(0.779067 0.066245 0)
(0.716511 0.0582823 0)
(0.687388 0.0595024 0)
(0.656137 0.0613081 0)
(0.626119 0.0639296 0)
(0.595669 0.0666354 0)
(0.564856 0.0684921 0)
(0.533821 0.0690846 0)
(0.503039 0.0683211 0)
(0.472801 0.0677752 0)
(0.442669 0.0694727 0)
(0.411853 0.0725585 0)
(0.380179 0.0747965 0)
(0.348106 0.0761059 0)
(0.315639 0.0778088 0)
(0.28259 0.0803874 0)
(0.248868 0.0835325 0)
(0.214358 0.0871539 0)
(0.178896 0.0914565 0)
(0.142243 0.0965144 0)
(0.103943 0.102511 0)
(0.0635066 0.106384 0)
(0.0224234 0.111175 0)
(3 -1.24756e-16 0)
(3 3.06496e-16 0)
(3 3.54133e-16 0)
(3 2.36803e-16 0)
(3 5.65931e-17 0)
(3 5.88391e-17 0)
(3 4.83936e-17 0)
(3 1.61478e-16 0)
(3 4.68707e-17 0)
(3 -1.21192e-16 0)
(3 -1.7224e-16 0)
(3 1.25434e-16 0)
(3 1.93635e-16 0)
(3 -1.55521e-16 0)
(3 -5.85921e-16 0)
(3 -1.55498e-15 0)
(3 -2.17618e-15 0)
(3 -1.8326e-15 0)
(3 -2.34893e-15 0)
(3 -2.83145e-15 0)
(3 -1.96402e-15 0)
(3 -1.00335e-15 0)
(3 -1.10078e-15 0)
(3 7.87813e-16 0)
(1.70597 0.0943445 0)
(0.788541 0.0940661 0)
(0.72067 0.0842524 0)
(0.690511 0.0847521 0)
(0.658868 0.0866147 0)
(0.628842 0.0898014 0)
(0.598639 0.0933932 0)
(0.568062 0.0960812 0)
(0.537068 0.0972273 0)
(0.506043 0.0965362 0)
(0.475308 0.0959698 0)
(0.444616 0.09836 0)
(0.413301 0.102689 0)
(0.381006 0.105933 0)
(0.348155 0.10784 0)
(0.314805 0.110154 0)
(0.280854 0.113542 0)
(0.246274 0.117552 0)
(0.211053 0.122005 0)
(0.175189 0.127292 0)
(0.138576 0.1336 0)
(0.100969 0.141514 0)
(0.0614694 0.146878 0)
(0.0217824 0.153754 0)
(3 -4.49965e-17 0)
(3 -2.5623e-16 0)
(3 -6.26043e-16 0)
(3 -1.06341e-15 0)
(3 -1.55968e-15 0)
(3 -1.44008e-15 0)
(3 -1.06692e-15 0)
(3 -7.30851e-16 0)
(3 -5.77148e-16 0)
(3 -7.95598e-16 0)
(3 -7.62138e-16 0)
(3 2.30044e-16 0)
(3 1.10636e-15 0)
(3 1.13831e-15 0)
(3 3.02579e-16 0)
(3 -5.2176e-16 0)
(3 -1.72592e-15 0)
(3 -2.31195e-15 0)
(3 -2.35775e-15 0)
(3 -2.42488e-15 0)
(3 -2.33599e-15 0)
(3 -1.99264e-15 0)
(3 -1.17755e-15 0)
(3 -2.53454e-15 0)
(1.8109 0.119486 0)
(0.800153 0.121776 0)
(0.723973 0.111774 0)
(0.692651 0.11076 0)
(0.660501 0.112216 0)
(0.630511 0.115574 0)
(0.600744 0.119869 0)
(0.57071 0.12343 0)
(0.540128 0.125343 0)
(0.509236 0.125005 0)
(0.478384 0.124513 0)
(0.447553 0.127528 0)
(0.416236 0.133074 0)
(0.38384 0.137436 0)
(0.350712 0.140088 0)
(0.316935 0.143112 0)
(0.28245 0.147381 0)
(0.247241 0.152311 0)
(0.211328 0.157554 0)
(0.174834 0.163666 0)
(0.137751 0.170844 0)
(0.100142 0.180271 0)
(0.0607363 0.18684 0)
(0.0216192 0.195536 0)
(3 4.08504e-17 0)
(3 -2.1827e-16 0)
(3 -5.13627e-16 0)
(3 -7.75019e-16 0)
(3 -7.93931e-16 0)
(3 -6.50341e-16 0)
(3 -7.2524e-16 0)
(3 -1.16528e-15 0)
(3 -1.23776e-15 0)
(3 -1.12898e-15 0)
(3 -1.20811e-15 0)
(3 -6.46434e-16 0)
(3 5.30164e-16 0)
(3 5.19901e-16 0)
(3 5.87401e-16 0)
(3 4.06108e-16 0)
(3 -4.1509e-17 0)
(3 -9.90466e-16 0)
(3 -1.97587e-15 0)
(3 -1.76399e-15 0)
(3 -1.76074e-15 0)
(3 -2.02409e-15 0)
(3 -2.08433e-15 0)
(3 -4.34902e-15 0)
(1.9503 0.142487 0)
(0.817355 0.149856 0)
(0.728813 0.140549 0)
(0.69675 0.137151 0)
(0.664251 0.137854 0)
(0.634373 0.14102 0)
(0.60505 0.145767 0)
(0.575604 0.150188 0)
(0.54553 0.153073 0)
(0.514891 0.15343 0)
(0.484056 0.153169 0)
(0.45322 0.156762 0)
(0.422067 0.163524 0)
(0.389725 0.1692 0)
(0.356418 0.172869 0)
(0.322238 0.176819 0)
(0.287151 0.182134 0)
(0.251139 0.188121 0)
(0.214251 0.194186 0)
(0.176747 0.201054 0)
(0.138712 0.208822 0)
(0.100584 0.219464 0)
(0.0607481 0.227021 0)
(0.0216861 0.237306 0)
(3 -1.67558e-16 0)
(3 -9.83471e-17 0)
(3 -4.68796e-17 0)
(3 -1.39582e-16 0)
(3 -6.22381e-16 0)
(3 -1.00464e-15 0)
(3 -6.74875e-16 0)
(3 -9.01552e-16 0)
(3 -1.78947e-15 0)
(3 -1.70942e-15 0)
(3 -1.44724e-15 0)
(3 -7.59402e-16 0)
(3 -3.86033e-16 0)
(3 -3.25172e-16 0)
(3 1.28917e-15 0)
(3 1.01567e-15 0)
(3 8.5215e-16 0)
(3 3.99357e-16 0)
(3 -1.41549e-16 0)
(3 -1.15303e-16 0)
(3 -1.76249e-16 0)
(3 -4.45237e-16 0)
(3 -6.01406e-16 0)
(3 -1.25101e-15 0)
(2.1259 0.159684 0)
(0.841218 0.178683 0)
(0.733097 0.170217 0)
(0.700535 0.163728 0)
(0.667657 0.163516 0)
(0.637715 0.166335 0)
(0.608629 0.17133 0)
(0.579733 0.176515 0)
(0.550302 0.180445 0)
(0.520185 0.18174 0)
(0.489786 0.181764 0)
(0.459518 0.185722 0)
(0.429296 0.193546 0)
(0.397859 0.200644 0)
(0.365159 0.20561 0)
(0.331222 0.210788 0)
(0.295977 0.217464 0)
(0.259361 0.224866 0)
(0.221397 0.232047 0)
(0.182509 0.239853 0)
(0.142876 0.248138 0)
(0.1034 0.259806 0)
(0.062222 0.268171 0)
(0.0222513 0.279821 0)
(3 1.4609e-17 0)
(3 6.61848e-17 0)
(3 1.26553e-17 0)
(3 6.7444e-17 0)
(3 -2.56378e-16 0)
(3 -3.48451e-16 0)
(3 -4.16416e-17 0)
(3 -3.6746e-16 0)
(3 -9.33387e-16 0)
(3 -1.01984e-15 0)
(3 1.42665e-16 0)
(3 2.66412e-16 0)
(3 4.56388e-16 0)
(3 7.9007e-16 0)
(3 7.27741e-16 0)
(3 2.39991e-16 0)
(3 5.58623e-16 0)
(3 9.88438e-16 0)
(3 1.27034e-15 0)
(3 9.84037e-16 0)
(3 2.97726e-16 0)
(3 -5.54153e-18 0)
(3 2.43849e-16 0)
(3 7.19458e-16 0)
(2.33252 0.172408 0)
(0.870645 0.212997 0)
(0.735563 0.201261 0)
(0.705138 0.191506 0)
(0.672213 0.190632 0)
(0.642181 0.192898 0)
(0.612811 0.197749 0)
(0.583745 0.203346 0)
(0.554248 0.208136 0)
(0.52407 0.210356 0)
(0.493732 0.210508 0)
(0.463839 0.214363 0)
(0.434658 0.222925 0)
(0.404545 0.231501 0)
(0.372979 0.238099 0)
(0.339827 0.244943 0)
(0.304907 0.253484 0)
(0.26806 0.262887 0)
(0.229242 0.271704 0)
(0.189068 0.280787 0)
(0.147796 0.289616 0)
(0.10679 0.302135 0)
(0.0640624 0.311108 0)
(0.0228574 0.323857 0)
(3 -3.92954e-17 0)
(3 -4.99391e-16 0)
(3 -8.40041e-16 0)
(3 -4.30844e-16 0)
(3 1.44439e-16 0)
(3 9.09005e-16 0)
(3 5.0917e-16 0)
(3 4.76945e-16 0)
(3 3.89999e-16 0)
(3 5.8867e-16 0)
(3 -1.21605e-16 0)
(3 -7.11786e-16 0)
(3 -2.3135e-16 0)
(3 1.65674e-16 0)
(3 -2.81041e-16 0)
(3 2.44992e-16 0)
(3 6.59177e-16 0)
(3 6.72949e-16 0)
(3 8.46224e-16 0)
(3 8.94206e-16 0)
(3 7.76872e-16 0)
(3 2.94155e-16 0)
(3 -9.05839e-17 0)
(3 -4.89832e-16 0)
(2.57392 0.178816 0)
(0.923404 0.250511 0)
(0.755113 0.227289 0)
(0.726994 0.219274 0)
(0.693052 0.218308 0)
(0.661351 0.220468 0)
(0.629702 0.225455 0)
(0.598472 0.231512 0)
(0.56719 0.237038 0)
(0.535451 0.240107 0)
(0.503669 0.240252 0)
(0.472565 0.243388 0)
(0.442851 0.252025 0)
(0.412925 0.261789 0)
(0.381822 0.270072 0)
(0.34933 0.278784 0)
(0.315165 0.289474 0)
(0.278967 0.301303 0)
(0.240267 0.312277 0)
(0.199502 0.323172 0)
(0.156692 0.333035 0)
(0.11359 0.346742 0)
(0.0681986 0.356531 0)
(0.0243538 0.370398 0)
(3 6.22783e-18 0)
(3 -7.20736e-17 0)
(3 -3.89918e-16 0)
(3 -3.94054e-16 0)
(3 2.27038e-17 0)
(3 3.57329e-16 0)
(3 3.49501e-16 0)
(3 7.16384e-16 0)
(3 1.5573e-15 0)
(3 1.3519e-15 0)
(3 7.12867e-16 0)
(3 2.35405e-16 0)
(3 2.25101e-16 0)
(3 6.68167e-17 0)
(3 -1.04856e-15 0)
(3 4.45995e-16 0)
(3 3.2325e-16 0)
(3 3.98306e-16 0)
(3 4.34774e-16 0)
(3 3.85288e-16 0)
(3 2.34932e-16 0)
(3 -1.12735e-16 0)
(3 -5.23117e-16 0)
(3 -7.7061e-16 0)
(2.83543 0.140785 0)
(1.00627 0.276047 0)
(0.789043 0.243425 0)
(0.766038 0.24002 0)
(0.729609 0.243424 0)
(0.695522 0.247838 0)
(0.660814 0.254021 0)
(0.626576 0.260738 0)
(0.592457 0.267058 0)
(0.557887 0.271318 0)
(0.523149 0.271986 0)
(0.489165 0.274282 0)
(0.457071 0.282456 0)
(0.425753 0.29289 0)
(0.393917 0.302429 0)
(0.361299 0.312669 0)
(0.327422 0.325377 0)
(0.291587 0.340001 0)
(0.252645 0.354063 0)
(0.210808 0.367888 0)
(0.166007 0.379735 0)
(0.120496 0.395095 0)
(0.0722817 0.405889 0)
(0.0254925 0.420622 0)
(3 -1.26874e-17 0)
(3 2.89905e-16 0)
(3 3.11887e-16 0)
(3 1.90221e-16 0)
(3 4.39271e-16 0)
(3 7.07816e-16 0)
(3 1.22012e-15 0)
(3 1.43491e-15 0)
(3 1.47959e-15 0)
(3 1.82527e-15 0)
(3 2.22996e-15 0)
(3 2.30055e-15 0)
(3 1.33342e-15 0)
(3 2.42957e-16 0)
(3 -2.63341e-16 0)
(3 -1.06138e-16 0)
(3 -4.30947e-16 0)
(3 -5.86594e-16 0)
(3 -9.71241e-16 0)
(3 -9.60888e-16 0)
(3 -3.99027e-16 0)
(3 -1.52631e-16 0)
(3 1.95512e-16 0)
(3 6.01109e-16 0)
(2.99537 0.031811 0)
(1.09836 0.28241 0)
(0.807015 0.252754 0)
(0.792599 0.264859 0)
(0.761012 0.27092 0)
(0.729509 0.276382 0)
(0.695367 0.28341 0)
(0.660279 0.291347 0)
(0.624718 0.299132 0)
(0.588381 0.304725 0)
(0.551166 0.3064 0)
(0.514103 0.307995 0)
(0.478822 0.315231 0)
(0.445037 0.325788 0)
(0.411338 0.33609 0)
(0.377519 0.347407 0)
(0.343165 0.361808 0)
(0.307565 0.379226 0)
(0.269077 0.396776 0)
(0.227333 0.414085 0)
(0.181374 0.428726 0)
(0.1332 0.446886 0)
(0.080556 0.459822 0)
(0.0284971 0.475944 0)
(3 9.96205e-17 0)
(3 6.13714e-17 0)
(3 1.68141e-16 0)
(3 2.84169e-16 0)
(3 4.36306e-16 0)
(3 6.10519e-16 0)
(3 4.2081e-16 0)
(3 7.90459e-16 0)
(3 1.08799e-15 0)
(3 1.66225e-15 0)
(3 1.50955e-15 0)
(3 9.18923e-16 0)
(3 8.0738e-16 0)
(3 9.91254e-16 0)
(3 1.24125e-15 0)
(3 3.22246e-16 0)
(3 3.53507e-16 0)
(3 -1.45357e-16 0)
(3 -2.20585e-16 0)
(3 2.15421e-17 0)
(3 3.77405e-16 0)
(3 6.74608e-16 0)
(3 1.42677e-15 0)
(3 1.82135e-15 0)
(3.00594 0.00226149 0)
(1.19204 0.283152 0)
(0.799823 0.26406 0)
(0.788379 0.290344 0)
(0.761477 0.300132 0)
(0.73614 0.307176 0)
(0.709864 0.314537 0)
(0.682128 0.322183 0)
(0.651852 0.330925 0)
(0.618392 0.339048 0)
(0.582203 0.343107 0)
(0.544379 0.345053 0)
(0.50698 0.351425 0)
(0.470808 0.361759 0)
(0.434849 0.372412 0)
(0.399261 0.384146 0)
(0.363923 0.399285 0)
(0.327972 0.419086 0)
(0.289264 0.440487 0)
(0.246404 0.462994 0)
(0.197204 0.482941 0)
(0.145176 0.505746 0)
(0.0879157 0.521971 0)
(0.0299488 0.538814 0)
(3 1.29444e-16 0)
(3 1.60912e-16 0)
(3 2.57972e-16 0)
(3 2.67955e-16 0)
(3 -2.3666e-16 0)
(3 -7.72268e-16 0)
(3 -1.15661e-15 0)
(3 -6.32748e-16 0)
(3 -3.2225e-16 0)
(3 2.79553e-17 0)
(3 6.83134e-16 0)
(3 -1.12829e-16 0)
(3 -4.61309e-16 0)
(3 -4.23536e-17 0)
(3 -2.44494e-16 0)
(3 -7.97565e-16 0)
(3 9.25681e-17 0)
(3 7.5982e-16 0)
(3 9.77483e-16 0)
(3 1.50125e-16 0)
(3 -2.15278e-16 0)
(3 -2.32347e-16 0)
(3 3.59544e-16 0)
(3 8.34981e-16 0)
(3.0001 2.94956e-06 0)
(1.34805 0.310483 0)
(0.795512 0.275354 0)
(0.767356 0.302659 0)
(0.744036 0.317577 0)
(0.722552 0.32706 0)
(0.703008 0.336909 0)
(0.683743 0.347006 0)
(0.66435 0.358206 0)
(0.641033 0.368727 0)
(0.611562 0.376476 0)
(0.577252 0.381179 0)
(0.54069 0.388409 0)
(0.503721 0.399368 0)
(0.466108 0.410712 0)
(0.42854 0.422815 0)
(0.390794 0.438517 0)
(0.353956 0.460517 0)
(0.314998 0.486302 0)
(0.272678 0.514772 0)
(0.223926 0.540131 0)
(0.170804 0.568406 0)
(0.106539 0.591642 0)
(0.0384302 0.612814 0)
(3 -1.44942e-16 0)
(3 -8.53007e-17 0)
(3 2.16825e-16 0)
(3 2.45003e-16 0)
(3 -6.24452e-16 0)
(3 -1.21372e-15 0)
(3 -7.52052e-16 0)
(3 -6.21255e-16 0)
(3 -8.65747e-16 0)
(3 -4.19368e-16 0)
(3 1.73434e-17 0)
(3 -1.00843e-16 0)
(3 -7.7697e-16 0)
(3 -1.82379e-15 0)
(3 -2.24677e-15 0)
(3 -1.64549e-15 0)
(3 -1.05742e-15 0)
(3 -1.90398e-16 0)
(3 1.67112e-16 0)
(3 1.2134e-16 0)
(3 7.55608e-17 0)
(3 -4.2041e-17 0)
(3 5.1607e-17 0)
(3 1.64474e-16 0)
(3 -5.37969e-09 0)
(1.60421 0.346386 0)
(0.811794 0.319093 0)
(0.742735 0.320614 0)
(0.723 0.330559 0)
(0.704934 0.337621 0)
(0.689676 0.347235 0)
(0.675487 0.359665 0)
(0.660668 0.374359 0)
(0.646624 0.391341 0)
(0.626889 0.40521 0)
(0.600851 0.415069 0)
(0.570151 0.425411 0)
(0.536635 0.438475 0)
(0.500486 0.451579 0)
(0.462446 0.464763 0)
(0.423725 0.480777 0)
(0.386407 0.50399 0)
(0.3481 0.532938 0)
(0.306672 0.567492 0)
(0.255439 0.602866 0)
(0.194814 0.643745 0)
(0.122784 0.682732 0)
(0.038774 0.708738 0)
(3 1.19709e-17 0)
(3 -1.73794e-16 0)
(3 -4.11863e-17 0)
(3 5.99667e-16 0)
(3 9.1362e-17 0)
(3 -2.73055e-16 0)
(3 -2.13324e-16 0)
(3 -6.32361e-16 0)
(3 -7.49624e-16 0)
(3 -4.82632e-16 0)
(3 -7.30812e-16 0)
(3 -3.57555e-16 0)
(3 -3.41568e-16 0)
(3 -5.71671e-16 0)
(3 -3.65697e-16 0)
(3 2.17265e-16 0)
(3 -4.9319e-17 0)
(3 -7.57911e-16 0)
(3 -2.00098e-16 0)
(3 1.99266e-16 0)
(3 7.66013e-16 0)
(3 7.12765e-16 0)
(3 5.2358e-16 0)
(3 7.64595e-16 0)
(3 -6.76722e-09 0)
(1.98373 0.379715 0)
(0.853786 0.386157 0)
(0.74851 0.359381 0)
(0.725224 0.352439 0)
(0.705572 0.355689 0)
(0.688902 0.363735 0)
(0.673919 0.374778 0)
(0.65951 0.388504 0)
(0.646251 0.405714 0)
(0.633634 0.424716 0)
(0.615716 0.440919 0)
(0.593057 0.456309 0)
(0.566611 0.473589 0)
(0.53567 0.490657 0)
(0.500505 0.507222 0)
(0.462918 0.52426 0)
(0.425787 0.548686 0)
(0.387603 0.581401 0)
(0.34783 0.624685 0)
(0.301365 0.673954 0)
(0.246456 0.726166 0)
(0.177865 0.780024 0)
(0.0693284 0.827843 0)
(3 -5.14721e-18 0)
(3 8.58641e-17 0)
(3 7.4478e-18 0)
(3 5.17606e-16 0)
(3 6.82608e-16 0)
(3 4.86544e-16 0)
(3 -1.39645e-16 0)
(3 -5.30311e-16 0)
(3 -2.66599e-16 0)
(3 -3.50748e-16 0)
(3 -7.4845e-16 0)
(3 -1.00102e-15 0)
(3 -5.16659e-16 0)
(3 -3.72621e-16 0)
(3 1.4455e-16 0)
(3 1.16045e-16 0)
(3 -2.77017e-16 0)
(3 -1.30429e-16 0)
(3 -2.95443e-16 0)
(3 1.17456e-16 0)
(3 4.30255e-16 0)
(3 5.78072e-16 0)
(3 3.59658e-16 0)
(3 1.56222e-16 0)
(3 -1.44982e-09 0)
(2.53594 0.341468 0)
(0.953072 0.442892 0)
(0.814217 0.375948 0)
(0.779272 0.368748 0)
(0.742905 0.376155 0)
(0.712418 0.382717 0)
(0.68833 0.393096 0)
(0.66856 0.405954 0)
(0.652089 0.421828 0)
(0.63904 0.440962 0)
(0.625548 0.460857 0)
(0.609122 0.48085 0)
(0.590289 0.503065 0)
(0.566833 0.525866 0)
(0.538669 0.548041 0)
(0.505195 0.568256 0)
(0.470794 0.594997 0)
(0.435824 0.630942 0)
(0.40277 0.679118 0)
(0.366071 0.737087 0)
(0.313798 0.815225 0)
(0.218858 0.926179 0)
(0.120009 1.05214 0)
(3 1.5362e-16 0)
(3 7.07267e-16 0)
(3 6.66071e-16 0)
(3 2.11622e-16 0)
(3 3.63007e-16 0)
(3 4.01652e-16 0)
(3 8.20962e-17 0)
(3 2.86266e-16 0)
(3 2.24008e-16 0)
(3 -2.06535e-16 0)
(3 -6.71969e-16 0)
(3 -9.14288e-16 0)
(3 -1.11938e-15 0)
(3 -1.1956e-15 0)
(3 -1.27743e-15 0)
(3 -1.10667e-15 0)
(3 -9.52921e-16 0)
(3 -6.3358e-16 0)
(3 -1.4408e-15 0)
(3 -1.4557e-15 0)
(3 -9.02181e-16 0)
(3 -2.32931e-16 0)
(3 -8.76489e-17 0)
(3 -7.4023e-16 0)
(3 -1.50144e-10 0)
(3.03499 0.0810415 0)
(1.15456 0.42846 0)
(0.877642 0.405963 0)
(0.848685 0.407337 0)
(0.80304 0.410849 0)
(0.758282 0.413741 0)
(0.721494 0.418479 0)
(0.692346 0.427139 0)
(0.669437 0.440202 0)
(0.652174 0.457991 0)
(0.638412 0.478604 0)
(0.624232 0.500819 0)
(0.610426 0.526531 0)
(0.594487 0.554577 0)
(0.575208 0.583418 0)
(0.549111 0.609538 0)
(0.520892 0.639845 0)
(0.491867 0.677703 0)
(0.466123 0.73017 0)
(0.438016 0.806691 0)
(0.41092 0.930581 0)
(0.396906 1.08622 0)
(0.509057 1.34276 0)
(3 1.46196e-16 0)
(3 1.69476e-16 0)
(3 2.4811e-16 0)
(3 -1.24475e-16 0)
(3 4.22941e-16 0)
(3 8.40675e-18 0)
(3 -7.38389e-17 0)
(3 -1.36949e-16 0)
(3 -7.69766e-16 0)
(3 -1.07165e-15 0)
(3 -7.67314e-16 0)
(3 -4.65932e-16 0)
(3 -4.4148e-16 0)
(3 -8.18776e-16 0)
(3 -1.2096e-15 0)
(3 -1.38908e-15 0)
(3 -1.15552e-15 0)
(3 -1.2178e-15 0)
(3 -1.48299e-15 0)
(3 -1.24868e-15 0)
(3 -6.9533e-16 0)
(3 -6.63032e-16 0)
(3 -8.25011e-16 0)
(3 -1.97419e-15 0)
(3 -6.14452e-12 0)
(3.01872 0.00216706 0)
(1.30296 0.404029 0)
(0.87446 0.43877 0)
(0.850466 0.455612 0)
(0.821337 0.45553 0)
(0.791576 0.452726 0)
(0.758273 0.452883 0)
(0.725851 0.456256 0)
(0.697537 0.464286 0)
(0.674612 0.478 0)
(0.657603 0.496979 0)
(0.643013 0.519059 0)
(0.631661 0.546016 0)
(0.620493 0.577267 0)
(0.60962 0.611614 0)
(0.593294 0.644897 0)
(0.574125 0.680098 0)
(0.553989 0.721167 0)
(0.537602 0.778303 0)
(0.532001 0.866214 0)
(0.539833 0.996634 0)
(0.617329 1.14591 0)
(0.919077 1.33712 0)
(3 -2.03277e-16 0)
(3 -8.52515e-16 0)
(3 -5.92264e-16 0)
(3 4.11369e-17 0)
(3 -1.66411e-16 0)
(3 -4.90071e-16 0)
(3 -9.54998e-16 0)
(3 -1.05787e-15 0)
(3 -6.71978e-16 0)
(3 -5.21528e-16 0)
(3 -4.60175e-17 0)
(3 1.11537e-16 0)
(3 3.89692e-16 0)
(3 5.57373e-18 0)
(3 -4.64942e-17 0)
(3 -2.05242e-16 0)
(3 -3.17134e-16 0)
(3 -3.71546e-16 0)
(3 -1.09887e-16 0)
(3 -3.13987e-16 0)
(3 -5.9345e-16 0)
(3 -6.64348e-16 0)
(3 -1.55985e-15 0)
(3 -1.55044e-15 0)
(3 -1.00149e-13 0)
(3.00026 -5.41365e-06 0)
(1.57233 0.421862 0)
(0.851975 0.450953 0)
(0.831591 0.463317 0)
(0.815675 0.471421 0)
(0.800047 0.47743 0)
(0.779646 0.482687 0)
(0.754585 0.487251 0)
(0.728605 0.493513 0)
(0.703657 0.503127 0)
(0.683677 0.518798 0)
(0.666762 0.538635 0)
(0.655632 0.564459 0)
(0.647185 0.596238 0)
(0.642073 0.633649 0)
(0.635824 0.673116 0)
(0.627577 0.713967 0)
(0.61948 0.759314 0)
(0.615549 0.817645 0)
(0.63156 0.903513 0)
(0.67446 1.02047 0)
(0.815013 1.15512 0)
(1.14248 1.27785 0)
(3 -2.06677e-16 0)
(3 -1.25005e-16 0)
(3 -2.57181e-16 0)
(3 -2.45688e-16 0)
(3 -7.24608e-16 0)
(3 -4.73454e-16 0)
(3 -3.8559e-16 0)
(3 -5.46897e-16 0)
(3 -2.77853e-16 0)
(3 1.40087e-16 0)
(3 3.60338e-17 0)
(3 5.35281e-16 0)
(3 7.05567e-16 0)
(3 1.0272e-15 0)
(3 1.10291e-15 0)
(3 1.43883e-15 0)
(3 9.53261e-16 0)
(3 5.81847e-16 0)
(3 4.68357e-16 0)
(3 -4.11232e-16 0)
(3 -1.18777e-15 0)
(3 -1.56264e-15 0)
(3 -1.59661e-15 0)
(3 -1.1385e-15 0)
(3 -1.08218e-15 0)
(3.00001 -5.21634e-06 0)
(2.06879 0.451088 0)
(0.902185 0.493289 0)
(0.828417 0.4727 0)
(0.821254 0.484602 0)
(0.807877 0.493934 0)
(0.793979 0.503273 0)
(0.776428 0.511597 0)
(0.756967 0.520229 0)
(0.7354 0.529435 0)
(0.715271 0.542841 0)
(0.697398 0.5596 0)
(0.684579 0.582585 0)
(0.677256 0.612566 0)
(0.675147 0.649951 0)
(0.676583 0.692861 0)
(0.679375 0.738765 0)
(0.6846 0.787962 0)
(0.695804 0.84532 0)
(0.726541 0.92307 0)
(0.798538 1.02415 0)
(0.963525 1.1323 0)
(1.24011 1.20592 0)
(3 1.20922e-16 0)
(3 1.98706e-16 0)
(3 -1.93964e-16 0)
(3 -4.32101e-16 0)
(3 -3.14328e-16 0)
(3 -7.47833e-17 0)
(3 1.94721e-16 0)
(3 1.06966e-16 0)
(3 -5.58484e-16 0)
(3 -6.71843e-16 0)
(3 -7.30536e-16 0)
(3 -2.6228e-16 0)
(3 -1.54222e-16 0)
(3 6.53862e-16 0)
(3 1.39029e-15 0)
(3 1.88381e-15 0)
(3 1.79238e-15 0)
(3 1.33503e-15 0)
(3 2.09705e-16 0)
(3 -7.60003e-16 0)
(3 -9.39734e-16 0)
(3 -6.95566e-16 0)
(3 -3.58131e-16 0)
(3 -3.13521e-16 0)
(3 -1.83503e-16 0)
(3 -1.14991e-06 0)
(2.77106 0.289631 0)
(1.06129 0.545115 0)
(0.881374 0.484942 0)
(0.855602 0.494576 0)
(0.83186 0.508594 0)
(0.814061 0.520551 0)
(0.797699 0.531568 0)
(0.782336 0.543091 0)
(0.765532 0.554677 0)
(0.748335 0.568284 0)
(0.732055 0.58365 0)
(0.718173 0.603289 0)
(0.710865 0.63004 0)
(0.710167 0.664621 0)
(0.716239 0.706861 0)
(0.727941 0.754993 0)
(0.745297 0.807155 0)
(0.771626 0.863906 0)
(0.815245 0.932519 0)
(0.904473 1.01582 0)
(1.06425 1.09408 0)
(1.30087 1.14236 0)
(3 1.46175e-16 0)
(3 -1.22102e-16 0)
(3 -9.57704e-17 0)
(3 -1.0916e-16 0)
(3 -1.17832e-16 0)
(3 1.43078e-16 0)
(3 4.91569e-17 0)
(3 3.39695e-16 0)
(3 2.40019e-16 0)
(3 -3.21806e-16 0)
(3 -1.46502e-16 0)
(3 -2.8657e-16 0)
(3 -2.95423e-16 0)
(3 -3.52479e-16 0)
(3 5.95452e-16 0)
(3 1.50591e-15 0)
(3 1.52167e-15 0)
(3 1.76429e-16 0)
(3 -6.64779e-16 0)
(3 -1.12903e-15 0)
(3 -1.56137e-15 0)
(3 -7.33348e-16 0)
(3 -3.86192e-16 0)
(3 1.59715e-17 0)
(3 2.96217e-16 0)
(3 -1.09686e-07 0)
(3.07007 0.0254654 0)
(1.32018 0.522028 0)
(0.932947 0.51927 0)
(0.89688 0.530473 0)
(0.867773 0.533027 0)
(0.842859 0.539285 0)
(0.824044 0.549192 0)
(0.809165 0.561236 0)
(0.795568 0.574838 0)
(0.781978 0.589884 0)
(0.768977 0.606211 0)
(0.756462 0.623931 0)
(0.748916 0.647186 0)
(0.748477 0.677919 0)
(0.756525 0.716617 0)
(0.7733 0.762767 0)
(0.799485 0.814643 0)
(0.837485 0.870437 0)
(0.893067 0.932318 0)
(0.98904 0.998423 0)
(1.13444 1.05215 0)
(1.32508 1.08168 0)
(3 -1.04616e-17 0)
(3 8.76483e-17 0)
(3 6.52886e-18 0)
(3 5.25348e-17 0)
(3 -3.68374e-16 0)
(3 -1.90721e-16 0)
(3 4.62328e-17 0)
(3 3.95727e-16 0)
(3 1.26152e-15 0)
(3 1.56392e-15 0)
(3 1.17488e-15 0)
(3 5.98427e-16 0)
(3 3.78013e-16 0)
(3 -1.0196e-16 0)
(3 1.25329e-18 0)
(3 2.16764e-16 0)
(3 -8.35829e-17 0)
(3 -8.86762e-16 0)
(3 -1.12892e-15 0)
(3 5.46939e-16 0)
(3 6.82817e-18 0)
(3 -5.50022e-16 0)
(3 -1.07436e-15 0)
(3 -5.35328e-16 0)
(3 5.03235e-19 0)
(3 -4.16589e-09 0)
(3.00437 1.36351e-05 0)
(1.59562 0.507838 0)
(0.918338 0.575373 0)
(0.889869 0.559301 0)
(0.876255 0.562455 0)
(0.860151 0.566332 0)
(0.845036 0.572639 0)
(0.83144 0.582329 0)
(0.82079 0.5955 0)
(0.811243 0.61098 0)
(0.802969 0.628409 0)
(0.794741 0.646193 0)
(0.788942 0.666661 0)
(0.78915 0.693265 0)
(0.798218 0.727203 0)
(0.817449 0.768475 0)
(0.848428 0.816218 0)
(0.893764 0.868545 0)
(0.958513 0.925516 0)
(1.05548 0.978399 0)
(1.18681 1.01735 0)
(1.34199 1.03696 0)
(3 1.08143e-16 0)
(3 3.89509e-16 0)
(3 5.29471e-16 0)
(3 7.67219e-16 0)
(3 8.26382e-16 0)
(3 4.34873e-16 0)
(3 4.94669e-16 0)
(3 5.88491e-16 0)
(3 7.29547e-16 0)
(3 1.24223e-15 0)
(3 1.05851e-15 0)
(3 8.87233e-16 0)
(3 4.32241e-16 0)
(3 2.12581e-16 0)
(3 -1.12174e-16 0)
(3 -5.45465e-16 0)
(3 -4.87041e-16 0)
(3 -3.7104e-16 0)
(3 3.97551e-17 0)
(3 -9.05598e-17 0)
(3 1.5045e-16 0)
(3 4.02953e-17 0)
(3 -8.31224e-16 0)
(3 -1.00214e-15 0)
(3 -2.35198e-16 0)
(3 -6.33019e-11 0)
(3.00002 -7.72528e-07 0)
(2.2469 0.488907 0)
(0.984911 0.605172 0)
(0.912717 0.56077 0)
(0.905544 0.569397 0)
(0.890452 0.580997 0)
(0.874896 0.590114 0)
(0.860187 0.599468 0)
(0.849469 0.611841 0)
(0.841526 0.627148 0)
(0.836375 0.645152 0)
(0.83262 0.664234 0)
(0.830169 0.683935 0)
(0.831836 0.707217 0)
(0.841407 0.736493 0)
(0.861285 0.772052 0)
(0.893339 0.813533 0)
(0.940848 0.859475 0)
(1.00844 0.908911 0)
(1.10299 0.953639 0)
(1.22137 0.984563 0)
(1.35156 0.997661 0)
(3 6.23889e-18 0)
(3 -4.71592e-17 0)
(3 2.28058e-16 0)
(3 4.51915e-16 0)
(3 4.0156e-16 0)
(3 2.17613e-16 0)
(3 2.42998e-16 0)
(3 1.47013e-16 0)
(3 -3.29527e-16 0)
(3 -5.90281e-16 0)
(3 -5.23511e-16 0)
(3 -2.78671e-16 0)
(3 -4.85776e-16 0)
(3 -6.66944e-16 0)
(3 -1.03071e-15 0)
(3 -1.45143e-15 0)
(3 -1.25401e-15 0)
(3 -1.02525e-15 0)
(3 -7.46346e-16 0)
(3 -3.11673e-16 0)
(3 -3.70967e-16 0)
(3 -5.16852e-16 0)
(3 -5.77095e-17 0)
(3 3.08777e-17 0)
(3 -1.36874e-16 0)
(3 -7.95218e-14 0)
(3 -9.83151e-07 0)
(3.02534 0.144273 0)
(1.22173 0.592352 0)
(0.966976 0.574371 0)
(0.948989 0.592095 0)
(0.929709 0.602155 0)
(0.910356 0.610112 0)
(0.894058 0.618497 0)
(0.881076 0.62955 0)
(0.872461 0.6437 0)
(0.868196 0.661095 0)
(0.867577 0.680685 0)
(0.869234 0.700961 0)
(0.87384 0.722367 0)
(0.884637 0.747759 0)
(0.904946 0.778177 0)
(0.937132 0.813171 0)
(0.984568 0.852016 0)
(1.05081 0.89217 0)
(1.14002 0.930491 0)
(1.24628 0.956649 0)
(1.36192 0.966645 0)
(3 -2.53838e-16 0)
(3 -2.46936e-16 0)
(3 -1.49042e-16 0)
(3 -4.08201e-16 0)
(3 -4.88407e-16 0)
(3 -1.569e-16 0)
(3 -2.57751e-16 0)
(3 -3.60292e-16 0)
(3 -5.2561e-16 0)
(3 -8.74662e-16 0)
(3 -6.70438e-16 0)
(3 -2.11394e-16 0)
(3 2.81805e-16 0)
(3 -2.74036e-16 0)
(3 -1.16795e-15 0)
(3 -1.8863e-15 0)
(3 -1.7436e-15 0)
(3 -1.05904e-15 0)
(3 -8.75415e-16 0)
(3 -4.55925e-16 0)
(3 5.64062e-17 0)
(3 3.05394e-17 0)
(3 2.44923e-16 0)
(3 3.34875e-17 0)
(3 -4.54916e-16 0)
(3 1.22143e-16 0)
(3 -2.09312e-07 0)
(3.03206 0.0031347 0)
(1.4488 0.568692 0)
(0.970998 0.630788 0)
(0.94913 0.621561 0)
(0.937062 0.629303 0)
(0.927122 0.635996 0)
(0.917923 0.642443 0)
(0.908819 0.65062 0)
(0.901952 0.661509 0)
(0.898949 0.676134 0)
(0.90042 0.694092 0)
(0.90558 0.714018 0)
(0.913917 0.73471 0)
(0.926812 0.75687 0)
(0.947434 0.782483 0)
(0.97923 0.811178 0)
(1.02471 0.842912 0)
(1.08555 0.874224 0)
(1.16625 0.906283 0)
(1.25934 0.927708 0)
(1.36524 0.935351 0)
(3 -6.07779e-17 0)
(3 -4.51024e-17 0)
(3 -6.7001e-17 0)
(3 9.92702e-17 0)
(3 4.10334e-16 0)
(3 2.73033e-16 0)
(3 1.39702e-16 0)
(3 -2.64277e-17 0)
(3 -7.07943e-17 0)
(3 5.32767e-16 0)
(3 9.65217e-16 0)
(3 3.81648e-16 0)
(3 4.31153e-16 0)
(3 3.69089e-16 0)
(3 -3.15377e-16 0)
(3 -5.14272e-16 0)
(3 -8.84951e-16 0)
(3 -5.06517e-16 0)
(3 1.95015e-16 0)
(3 2.90243e-17 0)
(3 -1.39536e-16 0)
(3 -1.51391e-16 0)
(3 -3.1154e-16 0)
(3 -6.44535e-16 0)
(3 -4.03869e-16 0)
(3 1.00679e-15 0)
(3 -1.77387e-08 0)
(3.00054 -8.7117e-06 0)
(2.0433 0.561123 0)
(1.01737 0.6675 0)
(0.963648 0.629815 0)
(0.959944 0.635448 0)
(0.953148 0.646431 0)
(0.945774 0.656377 0)
(0.938994 0.666388 0)
(0.933434 0.677167 0)
(0.930885 0.690178 0)
(0.932886 0.706538 0)
(0.93958 0.725476 0)
(0.950867 0.745728 0)
(0.965995 0.766866 0)
(0.987938 0.789436 0)
(1.02021 0.81353 0)
(1.06364 0.838882 0)
(1.1196 0.86443 0)
(1.19234 0.889473 0)
(1.27376 0.904874 0)
(1.37057 0.912272 0)
(3 1.19399e-16 0)
(3 1.90567e-16 0)
(3 3.97819e-16 0)
(3 3.20281e-16 0)
(3 4.64361e-16 0)
(3 6.5038e-16 0)
(3 8.14287e-16 0)
(3 1.37253e-15 0)
(3 1.29648e-15 0)
(3 1.23346e-15 0)
(3 1.05525e-15 0)
(3 1.10771e-15 0)
(3 4.071e-16 0)
(3 -1.88031e-16 0)
(3 -2.65978e-16 0)
(3 -1.22104e-16 0)
(3 -6.04403e-17 0)
(3 -3.31183e-16 0)
(3 -1.75723e-16 0)
(3 5.7378e-16 0)
(3 6.04513e-16 0)
(3 -6.11442e-17 0)
(3 -2.33607e-16 0)
(3 -1.39844e-16 0)
(3 8.5259e-16 0)
(3 1.20889e-15 0)
(3 -1.04236e-10 0)
(3.00003 -1.31358e-05 0)
(2.9354 0.220682 0)
(1.22234 0.655272 0)
(1.01284 0.632633 0)
(1.00131 0.648531 0)
(0.989952 0.661352 0)
(0.978682 0.670905 0)
(0.97124 0.681161 0)
(0.966028 0.69233 0)
(0.963713 0.704219 0)
(0.965677 0.718425 0)
(0.972269 0.735091 0)
(0.985215 0.753806 0)
(1.00175 0.77289 0)
(1.02543 0.792724 0)
(1.05785 0.813075 0)
(1.09854 0.833181 0)
(1.15021 0.853659 0)
(1.21417 0.871644 0)
(1.28618 0.882493 0)
(1.37175 0.889456 0)
(3 7.04296e-17 0)
(3 3.2029e-16 0)
(3 6.47171e-16 0)
(3 6.8721e-16 0)
(3 1.35289e-15 0)
(3 1.65027e-15 0)
(3 1.53869e-15 0)
(3 1.23906e-15 0)
(3 1.22166e-15 0)
(3 3.6255e-16 0)
(3 5.39668e-17 0)
(3 1.65041e-16 0)
(3 3.48891e-16 0)
(3 1.71609e-16 0)
(3 7.20983e-16 0)
(3 7.04464e-16 0)
(3 3.8959e-16 0)
(3 -4.5424e-17 0)
(3 -3.8759e-16 0)
(3 3.48632e-16 0)
(3 5.09127e-16 0)
(3 1.51407e-16 0)
(3 6.46838e-16 0)
(3 1.37138e-15 0)
(3 1.35616e-15 0)
(3 1.08714e-15 0)
(3 -1.58421e-13 0)
(3 -2.89279e-06 0)
(3.04791 0.00777894 0)
(1.47231 0.623737 0)
(1.02424 0.686293 0)
(1.00674 0.677589 0)
(0.998976 0.685214 0)
(0.994377 0.692566 0)
(0.992342 0.700463 0)
(0.991497 0.710316 0)
(0.992497 0.72044 0)
(0.99634 0.732553 0)
(1.00361 0.745929 0)
(1.01665 0.762502 0)
(1.03498 0.780268 0)
(1.06002 0.798054 0)
(1.09233 0.816119 0)
(1.13105 0.832901 0)
(1.1799 0.84955 0)
(1.23674 0.862499 0)
(1.30227 0.870421 0)
(1.37719 0.87561 0)
(3 3.13584e-16 0)
(3 2.67759e-16 0)
(3 3.47428e-16 0)
(3 3.26164e-16 0)
(3 7.08973e-16 0)
(3 1.07843e-15 0)
(3 1.19493e-15 0)
(3 8.06798e-16 0)
(3 2.35288e-16 0)
(3 -1.8004e-17 0)
(3 -3.44396e-16 0)
(3 -7.39628e-16 0)
(3 -3.65289e-16 0)
(3 -6.6571e-17 0)
(3 3.55029e-16 0)
(3 4.74822e-16 0)
(3 3.27826e-16 0)
(3 -1.79647e-17 0)
(3 -5.82477e-16 0)
(3 -1.01489e-15 0)
(3 -9.08101e-16 0)
(3 -4.63155e-16 0)
(3 5.80671e-16 0)
(3 1.06772e-15 0)
(3 1.32962e-15 0)
(3 1.02356e-15 0)
(3 7.83158e-17 0)
(3 -2.46798e-07 0)
(3.00113 1.85788e-06 0)
(2.13318 0.588029 0)
(1.07993 0.730443 0)
(1.02459 0.687635 0)
(1.02192 0.690176 0)
(1.01977 0.699634 0)
(1.01779 0.709254 0)
(1.01864 0.720207 0)
(1.02155 0.731114 0)
(1.02684 0.743143 0)
(1.03501 0.754877 0)
(1.04763 0.768419 0)
(1.06598 0.783402 0)
(1.09119 0.799232 0)
(1.12232 0.814612 0)
(1.15955 0.828662 0)
(1.20516 0.84177 0)
(1.25643 0.851327 0)
(1.31688 0.857324 0)
(1.3825 0.860907 0)
(3 -4.83792e-17 0)
(3 -3.38184e-16 0)
(3 -4.57782e-16 0)
(3 -3.12693e-16 0)
(3 -6.9464e-16 0)
(3 -7.42067e-16 0)
(3 -5.68086e-16 0)
(3 -2.00296e-16 0)
(3 -3.0705e-16 0)
(3 -2.78095e-16 0)
(3 -2.50117e-16 0)
(3 -2.13061e-16 0)
(3 -3.98795e-16 0)
(3 -4.6133e-16 0)
(3 -1.06084e-15 0)
(3 -9.8904e-16 0)
(3 -7.31427e-16 0)
(3 -6.29107e-16 0)
(3 -9.57361e-16 0)
(3 -1.96327e-15 0)
(3 -1.63e-15 0)
(3 -5.61289e-16 0)
(3 -2.99997e-16 0)
(3 1.74301e-16 0)