/*--------------------------------*- C++ -*----------------------------------*\
  =========                 |
  \\      /  F ield         | OpenFOAM: The Open Source CFD Toolbox
   \\    /   O peration     | Website:  https://openfoam.org
    \\  /    A nd           | Version:  7
     \\/     M anipulation  |
\*---------------------------------------------------------------------------*/
FoamFile
{
    version     2.0;
    format      ascii;
    class       volScalarField;
    location    "1.8";
    object      p;
}
// * * * * * * * * * * * * * * * * * * * * * * * * * * * * * * * * * * * * * //

dimensions      [1 -1 -2 0 0 0 0];

internalField   nonuniform List<scalar> 
64512
(
1
1
1
1
1
1
1
1
1
1
1
1
1
1
1
1
1
1
1
1
1
1
1
1
1
1
1
1
1
1
1
1
1
1
1
1
1
1
1
1
1
1
1
1
1
1
1
1
1
1
3.29915
9.73682
10.5415
10.5799
10.6551
10.7185
10.7771
10.8269
10.8731
10.9217
10.9751
11.0299
11.0835
11.1358
11.1897
11.2471
11.3056
11.3579
11.3987
11.4294
11.4555
11.4844
11.5196
11.5603
11.6045
11.6501
11.695
11.7389
11.7828
11.8272
11.8674
11.8999
11.9252
11.9457
11.9637
11.9778
11.986
11.9901
11.9894
11.9896
11.9975
12.015
12.0384
12.0627
12.0801
12.0958
1
1
1
1
1
1
1
1
1
1
1
1
1
1
1
1
1
1
1
1
1
1
1
1
1
1
1
1
1
1
1
1
1
1
1
1
1
1
1
1
1
1
1
1
1
1
1
1
1
1
3.27134
9.71074
10.5326
10.5786
10.6511
10.7154
10.7746
10.8252
10.8718
10.9206
10.9735
11.0279
11.0812
11.1337
11.1879
11.2451
11.3029
11.3547
11.3958
11.4278
11.4555
11.4856
11.5214
11.5621
11.6059
11.6506
11.6941
11.7361
11.778
11.821
11.8608
11.894
11.9203
11.9412
11.9587
11.9721
11.9802
11.9855
11.987
11.9895
11.9983
12.0151
12.0368
12.059
12.0752
12.0891
1
1
1
1
1
1
1
1
1
1
1
1
1
1
1
1
1
1
1
1
1
1
1
1
1
1
1
1
1
1
1
1
1
1
1
1
1
1
1
1
1
1
1
1
1
1
1
1
1
1
3.20075
9.66478
10.5266
10.5698
10.6439
10.7096
10.7694
10.8208
10.868
10.9172
10.9702
11.0244
11.0777
11.1304
11.1847
11.241
11.2977
11.3492
11.3908
11.4243
11.454
11.4855
11.5223
11.5633
11.6072
11.6512
11.6932
11.7326
11.7718
11.8126
11.8518
11.8858
11.9131
11.9343
11.951
11.9634
11.9717
11.9786
11.9832
11.9884
11.9976
12.0128
12.0324
12.0528
12.0686
12.0812
1
1
1
1
1
1
1
1
1
1
1
1
1
1
1
1
1
1
1
1
1
1
1
1
1
1
1
1
1
1
1
1
1
1
1
1
1
1
1
1
1
1
1
1
1
1
1
1
1
1
3.09899
9.59746
10.521
10.5617
10.637
10.703
10.7634
10.8157
10.8632
10.9125
10.9654
11.0195
11.0729
11.126
11.1802
11.2352
11.2907
11.342
11.3842
11.4195
11.4512
11.4841
11.5218
11.563
11.6068
11.6498
11.6898
11.7264
11.7626
11.8013
11.8398
11.8744
11.9025
11.9241
11.9401
11.9518
11.9605
11.9696
11.9779
11.9863
11.996
12.0091
12.026
12.0438
12.0584
12.069
1
1
1
1
1
1
1
1
1
1
1
1
1
1
1
1
1
1
1
1
1
1
1
1
1
1
1
1
1
1
1
1
1
1
1
1
1
1
1
1
1
1
1
1
1
1
1
1
1
1
2.9713
9.50606
10.5177
10.5546
10.6298
10.6948
10.7554
10.8083
10.8563
10.9059
10.9587
11.0129
11.0667
11.1206
11.1745
11.2281
11.2821
11.3333
11.3762
11.4131
11.4463
11.4804
11.5187
11.5601
11.6036
11.6455
11.6835
11.7174
11.7511
11.7881
11.8261
11.861
11.8897
11.9114
11.9269
11.9382
11.9479
11.9595
11.9714
11.9826
11.9922
12.0031
12.0174
12.0324
12.0451
12.0536
1
1
1
1
1
1
1
1
1
1
1
1
1
1
1
1
1
1
1
1
1
1
1
1
1
1
1
1
1
1
1
1
1
1
1
1
1
1
1
1
1
1
1
1
1
1
1
1
1
1
2.80853
9.3879
10.5156
10.5506
10.6248
10.6885
10.7489
10.8012
10.8492
10.8984
10.9513
11.0058
11.0601
11.1145
11.1676
11.2197
11.2724
11.3233
11.3667
11.405
11.4397
11.4744
11.5131
11.5541
11.597
11.6375
11.6735
11.7051
11.7371
11.7732
11.8113
11.8466
11.8755
11.8968
11.9119
11.9232
11.9342
11.9482
11.963
11.9758
11.9854
11.9943
12.0062
12.0186
12.0292
12.0358
1
1
1
1
1
1
1
1
1
1
1
1
1
1
1
1
1
1
1
1
1
1
1
1
1
1
1
1
1
1
1
1
1
1
1
1
1
1
1
1
1
1
1
1
1
1
1
1
1
1
2.61616
9.24648
10.5112
10.5456
10.6184
10.6815
10.7418
10.7935
10.8415
10.8911
10.9437
10.9978
11.0516
11.1061
11.1583
11.2096
11.262
11.3127
11.3564
11.3955
11.4311
11.4663
11.5051
11.5456
11.5875
11.6264
11.6603
11.6897
11.7204
11.7563
11.7949
11.831
11.8599
11.8807
11.8952
11.9068
11.919
11.9353
11.9525
11.9662
11.9752
11.9826
11.9924
12.0025
12.0109
12.016
1
1
1
1
1
1
1
1
1
1
1
1
1
1
1
1
1
1
1
1
1
1
1
1
1
1
1
1
1
1
1
1
1
1
1
1
1
1
1
1
1
1
1
1
1
1
1
1
1
1
2.39805
9.0695
10.5045
10.5402
10.6103
10.673
10.7325
10.7848
10.8338
10.8841
10.9362
10.9884
11.041
11.0946
11.1462
11.1981
11.2512
11.3009
11.3442
11.3831
11.4195
11.4559
11.4954
11.5357
11.5767
11.6138
11.6453
11.6725
11.7018
11.7373
11.7767
11.8138
11.8432
11.8635
11.8774
11.8891
11.9023
11.9206
11.9394
11.9535
11.9617
11.9679
11.9759
11.9838
11.9905
11.9946
1
1
1
1
1
1
1
1
1
1
1
1
1
1
1
1
1
1
1
1
1
1
1
1
1
1
1
1
1
1
1
1
1
1
1
1
1
1
1
1
1
1
1
1
1
1
1
1
1
1
2.16705
8.84672
10.4955
10.5325
10.6004
10.6626
10.7215
10.7742
10.8251
10.8762
10.9274
10.9773
11.029
11.0809
11.1332
11.1867
11.2395
11.2879
11.3301
11.3685
11.4057
11.4435
11.4839
11.524
11.5639
11.5992
11.6285
11.6533
11.681
11.7158
11.7556
11.794
11.8244
11.8448
11.8584
11.87
11.8838
11.9032
11.9229
11.9371
11.9448
11.9503
11.9568
11.9632
11.9685
11.9722
1
1
1
1
1
1
1
1
1
1
1
1
1
1
1
1
1
1
1
1
1
1
1
1
1
1
1
1
1
1
1
1
1
1
1
1
1
1
1
1
1
1
1
1
1
1
1
1
1
1
1.93154
8.56801
10.4872
10.5254
10.592
10.6533
10.7105
10.7627
10.8142
10.8654
10.9154
10.9646
11.0156
11.0676
11.1203
11.1742
11.2261
11.2728
11.3136
11.3516
11.3898
11.4292
11.4706
11.5108
11.5498
11.5836
11.6113
11.6341
11.6597
11.6926
11.7317
11.7706
11.8025
11.8241
11.838
11.8494
11.8632
11.8827
11.9026
11.9171
11.9247
11.9299
11.9354
11.9404
11.9444
11.9478
1
1
1
1
1
1
1
1
1
1
1
1
1
1
1
1
1
1
1
1
1
1
1
1
1
1
1
1
1
1
1
1
1
1
1
1
1
1
1
1
1
1
1
1
1
1
1
1
1
1
1.69604
8.22893
10.4845
10.5198
10.5855
10.6455
10.7003
10.7519
10.8028
10.8532
10.9024
10.9513
11.0023
11.0539
11.1073
11.1611
11.2116
11.2562
11.2951
11.3327
11.3721
11.413
11.4552
11.4954
11.5338
11.5668
11.5936
11.615
11.6386
11.6686
11.7052
11.7433
11.7766
11.8002
11.8155
11.8272
11.84
11.8583
11.878
11.893
11.9016
11.9073
11.9121
11.9159
11.9186
11.9215
1
1
1
1
1
1
1
1
1
1
1
1
1
1
1
1
1
1
1
1
1
1
1
1
1
1
1
1
1
1
1
1
1
1
1
1
1
1
1
1
1
1
1
1
1
1
1
1
1
1
1.46251
7.81882
10.4863
10.5138
10.5778
10.6357
10.6887
10.739
10.7883
10.8373
10.8862
10.9356
10.9863
11.0394
11.0943
11.1479
11.1969
11.2392
11.2758
11.3126
11.3521
11.3937
11.4362
11.4764
11.5148
11.5478
11.575
11.5961
11.618
11.6445
11.677
11.7126
11.7462
11.7723
11.79
11.8026
11.8141
11.8302
11.8489
11.865
11.8757
11.8827
11.8872
11.8898
11.8912
11.8933
1
1
1
1
1
1
1
1
1
1
1
1
1
1
1
1
1
1
1
1
1
1
1
1
1
1
1
1
1
1
1
1
1
1
1
1
1
1
1
1
1
1
1
1
1
1
1
1
1
1
1.24577
7.36
10.48
10.5052
10.5675
10.6247
10.6762
10.7263
10.7765
10.8269
10.8763
10.9247
10.9738
11.0263
11.0806
11.1322
11.1788
11.2183
11.2527
11.2889
11.3288
11.3715
11.4146
11.4551
11.4936
11.527
11.5549
11.5763
11.5969
11.6198
11.6473
11.6792
11.7121
11.7402
11.761
11.7751
11.7851
11.7986
11.8156
11.8329
11.8464
11.8552
11.8597
11.8614
11.8611
11.8621
1
1
1
1
1
1
1
1
1
1
1
1
1
1
1
1
1
1
1
1
1
1
1
1
1
1
1
1
1
1
1
1
1
1
1
1
1
1
1
1
1
1
1
1
1
1
1
1
1
1
1.04161
6.83366
10.461
10.4996
10.5507
10.606
10.6569
10.7081
10.7583
10.8072
10.8547
10.9016
10.9503
11.0039
11.0594
11.1116
11.1581
11.1969
11.2303
11.266
11.3055
11.3481
11.3911
11.4313
11.4693
11.5027
11.5315
11.5538
11.5739
11.5942
11.6173
11.6451
11.676
11.7048
11.7282
11.7439
11.7528
11.7637
11.7789
11.7974
11.8137
11.8244
11.8295
11.8304
11.8287
11.8282
1
1
1
1
1
1
1
1
1
1
1
1
1
1
1
1
1
1
1
1
1
1
1
1
1
1
1
1
1
1
1
1
1
1
1
1
1
1
1
1
1
1
1
1
1
1
1
1
1
1
1.00071
6.21633
10.3541
10.4643
10.5207
10.5798
10.6328
10.6862
10.7377
10.7877
10.8365
10.8835
10.9316
10.9846
11.0396
11.0906
11.1359
11.1732
11.2049
11.2391
11.2779
11.321
11.3652
11.4067
11.4452
11.4786
11.507
11.5287
11.5474
11.5654
11.585
11.6092
11.6378
11.6663
11.6912
11.7083
11.7168
11.7259
11.7396
11.7589
11.7772
11.7895
11.7955
11.796
11.7931
11.7912
1
1
1
1
1
1
1
1
1
1
1
1
1
1
1
1
1
1
1
1
1
1
1
1
1
1
1
1
1
1
1
1
1
1
1
1
1
1
1
1
1
1
1
1
1
1
1
1
1
1
1
5.52926
10.2387
10.436
10.4953
10.5548
10.61
10.666
10.7189
10.7687
10.8171
10.863
10.9094
10.9606
11.0147
11.0654
11.1112
11.1494
11.1814
11.215
11.2527
11.295
11.3388
11.3797
11.4171
11.449
11.476
11.4967
11.5149
11.5322
11.5503
11.5728
11.5994
11.6271
11.652
11.6692
11.6771
11.6849
11.697
11.7162
11.7356
11.7491
11.7562
11.7572
11.7541
11.7512
1
1
1
1
1
1
1
1
1
1
1
1
1
1
1
1
1
1
1
1
1
1
1
1
1
1
1
1
1
1
1
1
1
1
1
1
1
1
1
1
1
1
1
1
1
1
1
1
1
1
1
4.81235
10.0829
10.402
10.464
10.5258
10.5823
10.6404
10.6951
10.7465
10.7961
10.8429
10.8892
10.9395
10.9925
11.0416
11.0852
11.1213
11.1506
11.1817
11.218
11.2607
11.3063
11.3493
11.3876
11.4189
11.444
11.4626
11.4796
11.4967
11.5144
11.5358
11.5604
11.5861
11.6094
11.6254
11.6328
11.6401
11.651
11.6694
11.6891
11.7034
11.7118
11.7143
11.7121
11.7089
1
1
1
1
1
1
1
1
1
1
1
1
1
1
1
1
1
1
1
1
1
1
1
1
1
1
1
1
1
1
1
1
1
1
1
1
1
1
1
1
1
1
1
1
1
1
1
1
1
1
1
4.08117
9.86257
10.3762
10.4381
10.5036
10.5613
10.6197
10.6741
10.7242
10.7726
10.819
10.8644
10.9138
10.9666
11.0158
11.0585
11.0942
11.1221
11.1504
11.1845
11.2263
11.2724
11.3168
11.3558
11.3865
11.4099
11.4262
11.4418
11.4584
11.4757
11.4963
11.519
11.5425
11.5638
11.5784
11.5853
11.5923
11.602
11.6188
11.6376
11.6519
11.6614
11.6655
11.665
11.6622
1
1
1
1
1
1
1
1
1
1
1
1
1
1
1
1
1
1
1
1
1
1
1
1
1
1
1
1
1
1
1
1
1
1
1
1
1
1
1
1
1
1
1
1
1
1
1
1
1
1
1
3.37333
9.54522
10.3641
10.4175
10.4848
10.5411
10.5982
10.6525
10.7025
10.7504
10.7963
10.8409
10.8894
10.9418
10.9909
11.032
11.0666
11.0932
11.1182
11.1498
11.1894
11.235
11.2803
11.3205
11.3515
11.3738
11.3882
11.402
11.4174
11.4337
11.4534
11.4742
11.4957
11.5152
11.5285
11.5348
11.5408
11.5484
11.5623
11.5792
11.5934
11.6039
11.6103
11.6124
11.611
1
1
1
1
1
1
1
1
1
1
1
1
1
1
1
1
1
1
1
1
1
1
1
1
1
1
1
1
1
1
1
1
1
1
1
1
1
1
1
1
1
1
1
1
1
1
1
1
1
1
1
2.69841
9.09537
10.3699
10.4125
10.4775
10.5289
10.5819
10.6326
10.6803
10.7262
10.7715
10.8158
10.8638
10.9157
10.965
11.0053
11.0383
11.0632
11.0858
11.1145
11.1512
11.195
11.2398
11.2802
11.3115
11.3334
11.3467
11.3591
11.3731
11.3883
11.4067
11.4257
11.4456
11.4633
11.4753
11.4807
11.485
11.4895
11.4999
11.5146
11.528
11.5392
11.5476
11.5525
11.5529
1
1
1
1
1
1
1
1
1
1
1
1
1
1
1
1
1
1
1
1
1
1
1
1
1
1
1
1
1
1
1
1
1
1
1
1
1
1
1
1
1
1
1
1
1
1
1
1
1
1
1
2.03389
8.5468
10.4194
10.4003
10.4595
10.5061
10.5571
10.6078
10.6562
10.7012
10.7454
10.7891
10.836
10.887
10.9362
10.9761
11.0075
11.0312
11.0521
11.078
11.1119
11.1528
11.1956
11.2351
11.2663
11.2884
11.3015
11.313
11.3255
11.3389
11.3551
11.3719
11.3906
11.4071
11.4181
11.4222
11.4237
11.4244
11.4307
11.4425
11.4547
11.4663
11.4769
11.4849
11.4878
1
1
1
1
1
1
1
1
1
1
1
1
1
1
1
1
1
1
1
1
1
1
1
1
1
1
1
1
1
1
1
1
1
1
1
1
1
1
1
1
1
1
1
1
1
1
1
1
1
1
1
1.44687
7.87273
10.4873
10.4078
10.4465
10.4874
10.5353
10.5825
10.6282
10.6711
10.7138
10.7567
10.8024
10.8526
10.902
10.9423
10.973
10.9961
11.016
11.0401
11.0714
11.1092
11.1491
11.1865
11.2168
11.2386
11.2517
11.2621
11.273
11.2845
11.2982
11.313
11.3307
11.3463
11.3557
11.358
11.3562
11.3529
11.355
11.3633
11.3737
11.3847
11.3964
11.4066
11.4116
1
1
1
1
1
1
1
1
1
1
1
1
1
1
1
1
1
1
1
1
1
1
1
1
1
1
1
1
1
1
1
1
1
1
1
1
1
1
1
1
1
1
1
1
1
1
1
1
1
1
1
1.07302
7.10202
10.3896
10.3478
10.3967
10.441
10.4931
10.5454
10.5949
10.6384
10.6785
10.7185
10.7618
10.8107
10.8604
10.9023
10.9345
10.9584
10.9779
11.0006
11.0291
11.0633
11.0997
11.1344
11.1632
11.1845
11.1978
11.207
11.216
11.2252
11.2362
11.2488
11.2651
11.2798
11.2872
11.2872
11.2815
11.2738
11.2707
11.2749
11.2827
11.293
11.3057
11.3181
11.3254
1
1
1
1
1
1
1
1
1
1
1
1
1
1
1
1
1
1
1
1
1
1
1
1
1
1
1
1
1
1
1
1
1
1
1
1
1
1
1
1
1
1
1
1
1
1
1
1
1
1
1
1.00127
6.09038
10.1945
10.305
10.367
10.4211
10.4744
10.527
10.5758
10.6186
10.6562
10.6919
10.7297
10.7726
10.8184
10.8585
10.8906
10.9151
10.935
10.9568
10.9834
11.0148
11.0478
11.0792
11.106
11.1266
11.1399
11.1478
11.1547
11.161
11.169
11.1792
11.1934
11.2067
11.2116
11.2089
11.1992
11.1871
11.1791
11.1785
11.1827
11.1902
11.2018
11.2144
11.2224
1
1
1
1
1
1
1
1
1
1
1
1
1
1
1
1
1
1
1
1
1
1
1
1
1
1
1
1
1
1
1
1
1
1
1
1
1
1
1
1
1
1
1
1
1
1
1
1
1
1
1
1
5.08
10.013
10.2389
10.31
10.3799
10.4386
10.4941
10.5446
10.588
10.6239
10.6571
10.6923
10.7316
10.7757
10.8161
10.8486
10.873
10.8919
10.9112
10.9341
10.9618
10.9916
11.0201
11.0452
11.0648
11.0784
11.0849
11.0894
11.0925
11.0966
11.1036
11.1151
11.1264
11.1285
11.1224
11.108
11.0907
11.0763
11.0691
11.0681
11.0723
11.0826
11.0955
11.1047
1
1
1
1
1
1
1
1
1
1
1
1
1
1
1
1
1
1
1
1
1
1
1
1
1
1
1
1
1
1
1
1
1
1
1
1
1
1
1
1
1
1
1
1
1
1
1
1
1
1
1
1
4.03552
9.65887
10.2229
10.3097
10.3743
10.4257
10.4748
10.5201
10.5593
10.5927
10.6235
10.655
10.6897
10.7303
10.77
10.802
10.8267
10.8457
10.8633
10.8841
10.9085
10.9341
10.9577
10.9794
10.9975
11.0116
11.0169
11.0194
11.0192
11.0191
11.0215
11.0294
11.0379
11.0368
11.0262
11.0068
10.9839
10.9631
10.9492
10.942
10.94
10.9444
10.9533
10.9599
1
1
1
1
1
1
1
1
1
1
1
1
1
1
1
1
1
1
1
1
1
1
1
1
1
1
1
1
1
1
1
1
1
1
1
1
1
1
1
1
1
1
1
1
1
1
1
1
1
1
1
1
3.02345
9.1246
10.2257
10.2894
10.3446
10.3926
10.4409
10.4882
10.5294
10.5632
10.5924
10.6221
10.6535
10.6904
10.7279
10.7585
10.7817
10.7987
10.8133
10.8298
10.8509
10.8732
10.893
10.9109
10.9261
10.9388
10.9432
10.9442
10.9405
10.9358
10.9329
10.9362
10.9407
10.936
10.9204
10.8955
10.8653
10.8351
10.81
10.7925
10.7822
10.7806
10.7859
10.7924
1
1
1
1
1
1
1
1
1
1
1
1
1
1
1
1
1
1
1
1
1
1
1
1
1
1
1
1
1
1
1
1
1
1
1
1
1
1
1
1
1
1
1
1
1
1
1
1
1
1
1
1
2.02156
8.42771
10.3308
10.3008
10.3409
10.3802
10.4189
10.4564
10.4928
10.5259
10.5557
10.5863
10.6178
10.6531
10.6881
10.7164
10.7372
10.7521
10.7638
10.7764
10.794
10.8129
10.8285
10.8413
10.8528
10.8624
10.8649
10.8637
10.857
10.8476
10.8386
10.836
10.8347
10.8255
10.8044
10.7727
10.7331
10.6917
10.6554
10.6264
10.605
10.5889
10.5793
10.5735
1
1
1
1
1
1
1
1
1
1
1
1
1
1
1
1
1
1
1
1
1
1
1
1
1
1
1
1
1
1
1
1
1
1
1
1
1
1
1
1
1
1
1
1
1
1
1
1
1
1
1
1
1.23125
7.55386
10.4203
10.3168
10.3086
10.3322
10.3701
10.4127
10.4541
10.4895
10.5193
10.5489
10.58
10.6138
10.6465
10.6727
10.6916
10.7055
10.7147
10.7233
10.7381
10.754
10.7663
10.7749
10.7811
10.785
10.7846
10.7798
10.7699
10.7555
10.7397
10.7293
10.7207
10.7056
10.6784
10.6384
10.5874
10.5316
10.4769
10.425
10.3806
10.3441
10.3187
10.3129
1
1
1
1
1
1
1
1
1
1
1
1
1
1
1
1
1
1
1
1
1
1
1
1
1
1
1
1
1
1
1
1
1
1
1
1
1
1
1
1
1
1
1
1
1
1
1
1
1
1
1
1
1.00668
6.47906
10.1703
10.1677
10.2499
10.3008
10.3417
10.379
10.4135
10.4468
10.4766
10.5053
10.5364
10.5696
10.6013
10.6262
10.6436
10.6569
10.6633
10.6694
10.6816
10.6949
10.7044
10.709
10.7103
10.7077
10.7037
10.6942
10.6809
10.6611
10.638
10.6182
10.6003
10.5768
10.5418
10.4915
10.4267
10.3522
10.2738
10.1982
10.129
10.0631
9.99164
9.92919
1
1
1
1
1
1
1
1
1
1
1
1
1
1
1
1
1
1
1
1
1
1
1
1
1
1
1
1
1
1
1
1
1
1
1
1
1
1
1
1
1
1
1
1
1
1
1
1
1
1
1
1
1
5.14164
9.84745
10.1262
10.2262
10.2653
10.2923
10.327
10.362
10.3958
10.4264
10.4565
10.4883
10.521
10.5518
10.576
10.5931
10.605
10.61
10.6143
10.6234
10.6346
10.6414
10.6427
10.6386
10.6299
10.6212
10.6068
10.5892
10.5638
10.5333
10.5031
10.4737
10.4397
10.3942
10.3321
10.2515
10.1556
10.0485
9.93375
9.8036
9.65444
9.50605
9.39847
1
1
1
1
1
1
1
1
1
1
1
1
1
1
1
1
1
1
1
1
1
1
1
1
1
1
1
1
1
1
1
1
1
1
1
1
1
1
1
1
1
1
1
1
1
1
1
1
1
1
1
1
1
3.88254
9.45083
10.1149
10.187
10.233
10.2691
10.2945
10.3214
10.3503
10.3798
10.4098
10.4402
10.47
10.498
10.5209
10.5378
10.5484
10.5531
10.5561
10.5624
10.5714
10.5759
10.5749
10.5654
10.552
10.5378
10.518
10.4953
10.4644
10.4268
10.3858
10.3434
10.2961
10.2374
10.1613
10.0625
9.94055
9.79479
9.625
9.42904
9.19794
8.94593
8.78472
1
1
1
1
1
1
1
1
1
1
1
1
1
1
1
1
1
1
1
1
1
1
1
1
1
1
1
1
1
1
1
1
1
1
1
1
1
1
1
1
1
1
1
1
1
1
1
1
1
1
1
1
1
2.62821
8.78321
10.1584
10.1699
10.1975
10.228
10.2575
10.2859
10.3141
10.3409
10.3658
10.3909
10.4161
10.4402
10.4619
10.4784
10.4883
10.4928
10.4949
10.5
10.5058
10.5082
10.5042
10.4909
10.4729
10.453
10.4275
10.3988
10.3617
10.3171
10.2657
10.2096
10.1473
10.073
9.98018
9.86082
9.71006
9.52313
9.29488
9.00236
8.57133
7.74115
5.79901
1
1
1
1
1
1
1
1
1
1
1
1
1
1
1
1
1
1
1
1
1
1
1
1
1
1
1
1
1
1
1
1
1
1
1
1
1
1
1
1
1
1
1
1
1
1
1
1
1
1
1
1
1
1.52991
8.00032
10.2966
10.153
10.1473
10.1772
10.2143
10.2457
10.2756
10.3029
10.3264
10.348
10.3683
10.3872
10.4052
10.4201
10.4286
10.4316
10.4321
10.4351
10.4377
10.4369
10.43
10.4136
10.3918
10.3666
10.3356
10.3005
10.2568
10.2052
10.1441
10.0748
9.9963
9.90427
9.79222
9.65032
9.46925
9.23747
8.93483
8.52282
7.88595
6.92119
4.73252
1
1
1
1
1
1
1
1
1
1
1
1
1
1
1
1
1
1
1
1
1
1
1
1
1
1
1
1
1
1
1
1
1
1
1
1
1
1
1
1
1
1
1
1
1
1
1
1
1
1
1
1
1
1.03228
6.785
10.0927
10.0426
10.0826
10.122
10.1676
10.2036
10.2357
10.263
10.2853
10.3047
10.3222
10.3373
10.3508
10.3634
10.3706
10.371
10.3688
10.3692
10.3683
10.3637
10.3536
10.3339
10.3087
10.2783
10.2419
10.1998
10.149
10.0899
10.0197
9.93813
9.84408
9.73362
9.60104
9.43524
9.2244
8.94914
8.58958
8.08535
7.41959
6.15602
4.34337
1
1
1
1
1
1
1
1
1
1
1
1
1
1
1
1
1
1
1
1
1
1
1
1
1
1
1
1
1
1
1
1
1
1
1
1
1
1
1
1
1
1
1
1
1
1
1
1
1
1
1
1
1
1.00008
5.18815
9.69427
9.96966
10.0476
10.087
10.1254
10.1602
10.1926
10.2197
10.2413
10.259
10.2744
10.287
10.2974
10.3079
10.3136
10.3111
10.305
10.3012
10.2964
10.2883
10.2748
10.2517
10.2236
10.1886
10.1468
10.0975
10.0393
9.97191
9.89294
9.80041
9.69217
9.56398
9.41121
9.2222
8.98529
8.67447
8.27212
7.7191
6.95923
5.73599
4.25551
1
1
1
1
1
1
1
1
1
1
1
1
1
1
1
1
1
1
1
1
1
1
1
1
1
1
1
1
1
1
1
1
1
1
1
1
1
1
1
1
1
1
1
1
1
1
1
1
1
1
1
1
1
1
3.70204
9.28017
9.95506
10.0185
10.0678
10.0986
10.1238
10.1498
10.1739
10.1944
10.2109
10.2247
10.2359
10.2446
10.2533
10.2575
10.2523
10.2423
10.2337
10.2245
10.2131
10.1955
10.1685
10.1368
10.0973
10.0501
9.99397
9.92799
9.85171
9.76367
9.66105
9.54068
9.39712
9.22616
9.01673
8.75715
8.42227
7.98488
7.41311
6.62075
5.55062
4.39217
1
1
1
1
1
1
1
1
1
1
1
1
1
1
1
1
1
1
1
1
1
1
1
1
1
1
1
1
1
1
1
1
1
1
1
1
1
1
1
1
1
1
1
1
1
1
1
1
1
1
1
1
1
1
2.26277
8.48636
10.0288
10.007
10.034
10.061
10.0868
10.1109
10.132
10.1498
10.1633
10.1744
10.1833
10.1906
10.1976
10.2004
10.1924
10.1791
10.1656
10.1513
10.1359
10.1145
10.0837
10.048
10.0046
9.95279
9.89046
9.8167
9.731
9.63325
9.52079
9.39001
9.23411
9.04799
8.82203
8.54438
8.19485
7.74438
7.16443
6.4147
5.49529
4.53131
1
1
1
1
1
1
1
1
1
1
1
1
1
1
1
1
1
1
1
1
1
1
1
1
1
1
1
1
1
1
1
1
1
1
1
1
1
1
1
1
1
1
1
1
1
1
1
1
1
1
1
1
1
1
1.16911
7.37714
10.1153
10.0129
9.9881
10.0156
10.0441
10.0669
10.0856
10.1016
10.1123
10.1209
10.1278
10.1342
10.1401
10.1411
10.1308
10.1149
10.0971
10.0784
10.0584
10.0338
9.99915
9.9586
9.91109
9.85485
9.78695
9.70589
9.61109
9.50352
9.38147
9.24168
9.07646
8.87895
8.64044
8.35017
7.9925
7.54459
6.98237
6.29273
5.48848
4.66945
1
1
1
1
1
1
1
1
1
1
1
1
1
1
1
1
1
1
1
1
1
1
1
1
1
1
1
1
1
1
1
1
1
1
1
1
1
1
1
1
1
1
1
1
1
1
1
1
1
1
1
1
1
1
1.00277
5.84451
9.68883
9.83967
9.91782
9.96265
9.99772
10.0221
10.0396
10.0532
10.0594
10.0642
10.0685
10.074
10.0793
10.0788
10.0672
10.0493
10.0277
10.0047
9.97956
9.95092
9.9129
9.86775
9.81609
9.75621
9.68392
9.59671
9.49357
9.37662
9.24527
9.09717
8.92462
8.71923
8.4724
8.17497
7.81679
7.37664
6.84974
6.22012
5.51871
4.81553
1
1
1
1
1
1
1
1
1
1
1
1
1
1
1
1
1
1
1
1
1
1
1
1
1
1
1
1
1
1
1
1
1
1
1
1
1
1
1
1
1
1
1
1
1
1
1
1
1
1
1
1
1
1
0.999973
4.11638
9.28566
9.80874
9.8877
9.93531
9.96052
9.9799
9.99477
10.0059
10.0088
10.01
10.0111
10.0144
10.018
10.0158
10.0033
9.9832
9.95842
9.93109
9.90087
9.86767
9.82657
9.77733
9.72095
9.65677
9.58024
9.48821
9.37858
9.25412
9.11483
8.95931
8.7807
8.57002
8.31874
8.0192
7.66603
7.23525
6.75241
6.1835
5.56075
4.94911
1
1
1
1
1
1
1
1
1
1
1
1
1
1
1
1
1
1
1
1
1
1
1
1
1
1
1
1
1
1
1
1
1
1
1
1
1
1
1
1
1
1
1
1
1
1
1
1
1
1
1
1
1
1
0.999994
2.42517
8.56283
9.88539
9.8779
9.89953
9.923
9.93931
9.95088
9.95809
9.95829
9.95599
9.95372
9.95408
9.9552
9.95147
9.93839
9.91722
9.88967
9.85814
9.82306
9.78485
9.74004
9.68704
9.62584
9.55658
9.47565
9.3803
9.26678
9.13725
8.99173
8.82976
8.6457
8.43145
8.17914
7.88181
7.53502
7.12512
6.67999
6.15804
5.60737
5.0677
1
1
1
1
1
1
1
1
1
1
1
1
1
1
1
1
1
1
1
1
1
1
1
1
1
1
1
1
1
1
1
1
1
1
1
1
1
1
1
1
1
1
1
1
1
1
1
1
1
1
1
1
1
1
0.999999
1.19164
7.38183
9.98634
9.87907
9.85534
9.87209
9.8861
9.89785
9.90555
9.90717
9.90438
9.9001
9.89706
9.89454
9.88822
9.87444
9.85236
9.82211
9.78619
9.74609
9.70274
9.65385
9.59719
9.53147
9.4569
9.37122
9.27262
9.15755
9.02596
8.87686
8.71002
8.52105
8.30438
8.05359
7.76136
7.42546
7.04135
6.62204
6.14168
5.6583
5.16415
1
1
1
1
1
1
1
1
1
1
1
1
1
1
1
1
1
1
1
1
1
1
1
1
1
1
1
1
1
1
1
1
1
1
1
1
1
1
1
1
1
1
1
1
1
1
1
1
1
1
1
1
1
1
1
1.00349
5.6831
9.54374
9.73653
9.80083
9.81202
9.82384
9.83899
9.85001
9.85435
9.85236
9.84682
9.84043
9.8341
9.82469
9.81014
9.78718
9.75506
9.71543
9.67082
9.62284
9.57004
9.50989
9.44008
9.36034
9.26964
9.16743
9.0514
8.91958
8.76953
8.59972
8.40653
8.18776
7.93889
7.65526
7.33243
6.97075
6.5786
6.13974
5.70776
5.24093
1
1
1
1
1
1
1
1
1
1
1
1
1
1
1
1
1
1
1
1
1
1
1
1
1
1
1
1
1
1
1
1
1
1
1
1
1
1
1
1
1
1
1
1
1
1
1
1
1
1
1
1
1
1
1
0.99997
3.75144
9.13015
9.74549
9.7559
9.75946
9.77545
9.79101
9.80264
9.80817
9.80569
9.7976
9.78673
9.77583
9.76261
9.74649
9.72238
9.68817
9.64514
9.59618
9.54372
9.48711
9.42375
9.35062
9.26699
9.17218
9.06647
8.9489
8.81678
8.66699
8.49639
8.30147
8.08176
7.83562
7.56241
7.25216
6.91586
6.54935
6.14623
5.74936
5.30786
1
1
1
1
1
1
1
1
1
1
1
1
1
1
1
1
1
1
1
1
1
1
1
1
1
1
1
1
1
1
1
1
1
1
1
1
1
1
1
1
1
1
1
1
1
1
1
1
1
1
1
1
1
1
1
0.999993
2.02029
8.38096
9.77189
9.69065
9.69328
9.72199
9.7406
9.75221
9.7582
9.7552
9.74495
9.73039
9.71567
9.69947
9.68129
9.65576
9.62026
9.57497
9.52259
9.46641
9.40652
9.34063
9.2653
9.17907
9.08085
8.97145
8.85116
8.71799
8.56874
8.39915
8.20554
7.98661
7.74525
7.47883
7.18448
6.87557
6.5263
6.1537
5.78175
5.37326
1
1
1
1
1
1
1
1
1
1
1
1
1
1
1
1
1
1
1
1
1
1
1
1
1
1
1
1
1
1
1
1
1
1
1
1
1
1
1
1
1
1
1
1
1
1
1
1
1
1
1
1
1
1
1
0.999999
1.09623
6.8773
9.73358
9.65318
9.65755
9.67336
9.69198
9.7029
9.70945
9.70581
9.69342
9.67511
9.65601
9.63641
9.61514
9.588
9.5519
9.50555
9.45075
9.39116
9.32777
9.25923
9.18223
9.0947
8.99465
8.88281
8.75984
8.62493
8.47586
8.30834
8.11862
7.90322
7.66788
7.40444
7.13023
6.84027
6.50218
6.16231
5.81474
5.44158
1
1
1
1
1
1
1
1
1
1
1
1
1
1
1
1
1
1
1
1
1
1
1
1
1
1
1
1
1
1
1
1
1
1
1
1
1
1
1
1
1
1
1
1
1
1
1
1
1
1
1
1
1
1
1
1
1.0007
4.83496
9.21782
9.52181
9.60544
9.64011
9.64918
9.65309
9.65771
9.65364
9.64035
9.61965
9.59703
9.57417
9.54955
9.52095
9.48482
9.43869
9.38277
9.32024
9.25301
9.18143
9.1027
9.01428
8.91333
8.80027
8.67534
8.53852
8.38908
8.22374
8.03935
7.83005
7.5997
7.34213
7.08763
6.80047
6.47898
6.17533
5.84466
5.49822
1
1
1
1
1
1
1
1
1
1
1
1
1
1
1
1
1
1
1
1
1
1
1
1
1
1
1
1
1
1
1
1
1
1
1
1
1
1
1
1
1
1
1
1
1
1
1
1
1
1
1
1
1
1
1
1
0.999996
2.72183
8.62704
9.62853
9.608
9.60172
9.60558
9.60738
9.60836
9.60269
9.5885
9.56573
9.53944
9.51233
9.48412
9.45419
9.41848
9.37376
9.3183
9.25405
9.18338
9.10826
9.02678
8.93653
8.83484
8.72201
8.59706
8.45944
8.30936
8.14531
7.96613
7.76314
7.54016
7.29429
7.0455
6.75958
6.47044
6.18696
5.8647
5.54563
1
1
1
1
1
1
1
1
1
1
1
1
1
1
1
1
1
1
1
1
1
1
1
1
1
1
1
1
1
1
1
1
1
1
1
1
1
1
1
1
1
1
1
1
1
1
1
1
1
1
1
1
1
1
1
1
0.999999
1.24131
7.37825
9.70956
9.57715
9.54462
9.54928
9.55303
9.55406
9.54891
9.53585
9.51316
9.48499
9.45424
9.42294
9.3911
9.35497
9.31129
9.25668
9.19179
9.11877
9.04017
8.95488
8.86142
8.7584
8.6463
8.52284
8.38605
8.23596
8.07244
7.89662
7.69962
7.4865
7.25009
7.00365
6.73282
6.47075
6.18807
5.8815
5.59264
1
1
1
1
1
1
1
1
1
1
1
1
1
1
1
1
1
1
1
1
1
1
1
1
1
1
1
1
1
1
1
1
1
1
1
1
1
1
1
1
1
1
1
1
1
1
1
1
1
1
1
1
1
1
1
1
1
1.00529
5.44383
9.22234
9.41586
9.48516
9.50677
9.50542
9.50225
9.49585
9.48363
9.46189
9.43298
9.39938
9.36453
9.32974
9.2918
9.24795
9.1941
9.12978
9.05617
8.97542
8.88659
8.78952
8.68471
8.57301
8.45168
8.31702
8.1682
8.00494
7.8308
7.63939
7.43279
7.20952
6.97235
6.71628
6.4649
6.18568
5.91035
5.63798
1
1
1
1
1
1
1
1
1
1
1
1
1
1
1
1
1
1
1
1
1
1
1
1
1
1
1
1
1
1
1
1
1
1
1
1
1
1
1
1
1
1
1
1
1
1
1
1
1
1
1
1
1
1
1
1
1
0.999958
3.0998
8.68856
9.49415
9.47628
9.46074
9.46051
9.45567
9.4461
9.43273
9.41143
9.38284
9.34849
9.31116
9.27291
9.23149
9.18545
9.13095
9.067
8.99352
8.91173
8.82046
8.72057
8.61412
8.50222
8.38244
8.24999
8.10418
7.94109
7.76866
7.58049
7.38013
7.17327
6.94197
6.69994
6.45695
6.19491
5.94297
5.67694
1
1
1
1
1
1
1
1
1
1
1
1
1
1
1
1
1
1
1
1
1
1
1
1
1
1
1
1
1
1
1
1
1
1
1
1
1
1
1
1
1
1
1
1
1
1
1
1
1
1
1
1
1
1
1
1
1
0.99999
1.33525
7.5616
9.60215
9.45291
9.41116
9.40138
9.39878
9.38893
9.37613
9.35636
9.32961
9.29673
9.25834
9.21731
9.17244
9.12335
9.06713
9.00283
8.92936
8.84728
8.75531
8.65474
8.54795
8.43598
8.31662
8.18542
8.04263
7.88008
7.7106
7.52491
7.33384
7.13609
6.91209
6.68906
6.45713
6.21459
5.96913
5.71167
1
1
1
1
1
1
1
1
1
1
1
1
1
1
1
1
1
1
1
1
1
1
1
1
1
1
1
1
1
1
1
1
1
1
1
1
1
1
1
1
1
1
1
1
1
1
1
1
1
1
1
1
1
1
1
1
1
0.999998
1.0101
5.60838
9.12867
9.2733
9.33509
9.35675
9.34794
9.3348
9.32044
9.30036
9.27391
9.24176
9.20339
9.16031
9.11292
9.06143
9.00374
8.93891
8.8653
8.78305
8.69126
8.59102
8.48491
8.37322
8.25284
8.12204
7.9808
7.82107
7.65548
7.47364
7.29207
7.0971
6.88712
6.68058
6.45678
6.22724
5.98676
5.74487
1
1
1
1
1
1
1
1
1
1
1
1
1
1
1
1
1
1
1
1
1
1
1
1
1
1
1
1
1
1
1
1
1
1
1
1
1
1
1
1
1
1
1
1
1
1
1
1
1
1
1
1
1
1
1
1
1
1
0.999938
3.12135
8.59121
9.3519
9.33761
9.3211
9.30632
9.29128
9.27317
9.25014
9.22163
9.18776
9.14775
9.10194
9.0526
8.99964
8.94096
8.87578
8.80192
8.71978
8.62857
8.52921
8.42467
8.31412
8.19357
8.06225
7.92106
7.76608
7.60424
7.42925
7.25537
7.06426
6.86921
6.6694
6.4532
6.23726
6.00631
5.7793
1
1
1
1
1
1
1
1
1
1
1
1
1
1
1
1
1
1
1
1
1
1
1
1
1
1
1
1
1
1
1
1
1
1
1
1
1
1
1
1
1
1
1
1
1
1
1
1
1
1
1
1
1
1
1
1
1
1
0.999985
1.32051
7.40892
9.45717
9.31728
9.26615
9.24991
9.23658
9.21782
9.19588
9.16824
9.13386
9.09201
9.04339
8.99147
8.93658
8.87702
8.81222
8.7394
8.65832
8.56865
8.46933
8.36663
8.25576
8.13694
8.00385
7.86381
7.71435
7.55664
7.39095
7.2229
7.0376
6.85205
6.65478
6.44896
6.2459
6.02202
5.80334
1
1
1
1
1
1
1
1
1
1
1
1
1
1
1
1
1
1
1
1
1
1
1
1
1
1
1
1
1
1
1
1
1
1
1
1
1
1
1
1
1
1
1
1
1
1
1
1
1
1
1
1
1
1
1
1
1
1
0.999998
1.0091
5.32596
8.99378
9.14669
9.19746
9.20844
9.19131
9.16856
9.14601
9.11884
9.08448
9.04151
8.9904
8.93477
8.8769
8.8157
8.75067
8.67914
8.59918
8.51066
8.41252
8.31068
8.19989
8.08068
7.9501
7.81297
7.66797
7.51546
7.35907
7.19468
7.01553
6.8359
6.64336
6.4474
6.25135
6.03256
5.82352
1
1
1
1
1
1
1
1
1
1
1
1
1
1
1
1
1
1
1
1
1
1
1
1
1
1
1
1
1
1
1
1
1
1
1
1
1
1
1
1
1
1
1
1
1
1
1
1
1
1
1
1
1
1
1
1
1
1
1
0.999949
2.74429
8.40555
9.21869
9.19932
9.18666
9.15156
9.1233
9.09823
9.07001
9.03505
8.99197
8.93993
8.88158
8.82063
8.75666
8.69053
8.62015
8.5417
8.45497
8.35891
8.25642
8.14555
8.0268
7.89962
7.76641
7.62525
7.47892
7.32993
7.16737
6.99446
6.8211
6.63346
6.44267
6.2506
6.04073
5.84565
1
1
1
1
1
1
1
1
1
1
1
1
1
1
1
1
1
1
1
1
1
1
1
1
1
1
1
1
1
1
1
1
1
1
1
1
1
1
1
1
1
1
1
1
1
1
1
1
1
1
1
1
1
1
1
1
1
1
1
0.999988
1.22116
6.92145
9.25524
9.18677
9.13957
9.10486
9.07472
9.04717
9.01666
8.98146
8.94051
8.89089
8.83304
8.77025
8.70401
8.63661
8.56614
8.48834
8.40316
8.30868
8.20654
8.09518
7.97786
7.85353
7.7246
7.58748
7.44657
7.30133
7.1408
6.97482
6.80696
6.62309
6.43824
6.25316
6.05538
5.87067
1
1
1
1
1
1
1
1
1
1
1
1
1
1
1
1
1
1
1
1
1
1
1
1
1
1
1
1
1
1
1
1
1
1
1
1
1
1
1
1
1
1
1
1
1
1
1
1
1
1
1
1
1
1
1
1
1
1
1
0.999998
1.00382
4.46357
8.76722
9.07623
9.06752
9.04474
9.03292
9.00779
8.97315
8.93508
8.89378
8.84606
8.7897
8.7261
8.65778
8.58797
8.51583
8.43799
8.35377
8.26132
8.16079
8.05025
7.93352
7.81137
7.68592
7.5528
7.41593
7.27222
7.11427
6.95413
6.78944
6.61013
6.43487
6.25896
6.07215
5.8901
1
1
1
1
1
1
1
1
1
1
1
1
1
1
1
1
1
1
1
1
1
1
1
1
1
1
1
1
1
1
1
1
1
1
1
1
1
1
1
1
1
1
1
1
1
1
1
1
1
1
1
1
1
1
1
1
1
1
1
1
0.999984
1.9383
8.03767
9.22013
9.07299
9.02979
8.99732
8.96313
8.92212
8.88382
8.84554
8.80133
8.74752
8.68504
8.61569
8.54395
8.46931
8.39087
8.30727
8.21679
8.11833
8.0099
7.89381
7.77365
7.65052
7.52076
7.38685
7.24443
7.08929
6.93319
6.77144
6.59979
6.43431
6.26592
6.08668
5.90546
1
1
1
1
1
1
1
1
1
1
1
1
1
1
1
1
1
1
1
1
1
1
1
1
1
1
1
1
1
1
1
1
1
1
1
1
1
1
1
1
1
1
1
1
1
1
1
1
1
1
1
1
1
1
1
1
1
1
1
1
0.999996
1.06916
6.18806
8.91539
8.92968
8.95838
8.9535
8.91441
8.86957
8.8322
8.79683
8.75615
8.70564
8.64505
8.57553
8.50207
8.42454
8.34477
8.26082
8.17225
8.07658
7.97178
7.85781
7.73948
7.61747
7.48954
7.3578
7.21699
7.06473
6.91166
6.75464
6.59233
6.43359
6.26996
6.09628
5.91985
1
1
1
1
1
1
1
1
1
1
1
1
1
1
1
1
1
1
1
1
1
1
1
1
1
1
1
1
1
1
1
1
1
1
1
1
1
1
1
1
1
1
1
1
1
1
1
1
1
1
1
1
1
1
1
1
1
1
1
1
0.999999
1.00024
3.35605
8.32802
8.92056
8.94074
8.9243
8.87334
8.82935
8.79213
8.75613
8.71462
8.66525
8.60587
8.53759
8.46247
8.3825
8.30053
8.21599
8.12861
8.03523
7.93386
7.82312
7.7069
7.58568
7.45875
7.32881
7.19031
7.04177
6.89278
6.74202
6.58773
6.43286
6.27326
6.10543
5.93671
1
1
1
1
1
1
1
1
1
1
1
1
1
1
1
1
1
1
1
1
1
1
1
1
1
1
1
1
1
1
1
1
1
1
1
1
1
1
1
1
1
1
1
1
1
1
1
1
1
1
1
1
1
1
1
1
1
1
1
1
1
0.999999
1.3605
7.11182
9.0234
8.92872
8.87622
8.82697
8.78889
8.7513
8.71101
8.66758
8.61899
8.56187
8.49645
8.42153
8.34148
8.2584
8.17349
8.08614
7.99419
7.89566
7.78898
7.67591
7.5561
7.4297
7.30047
7.16411
7.01994
6.87684
6.7329
6.58386
6.43125
6.27564
6.11525
5.95524
1
1
1
1
1
1
1
1
1
1
1
1
1
1
1
1
1
1
1
1
1
1
1
1
1
1
1
1
1
1
1
1
1
1
1
1
1
1
1
1
1
1
1
1
1
1
1
1
1
1
1
1
1
1
1
1
1
1
1
1
1
1
1.01076
4.66049
8.54724
8.7999
8.80736
8.7864
8.76421
8.7252
8.6777
8.62838
8.57625
8.51957
8.4553
8.38146
8.30201
8.21879
8.13376
8.04579
7.95382
7.85645
7.75293
7.64365
7.52683
7.40228
7.27416
7.14036
7.00104
6.86346
6.72516
6.57963
6.42973
6.27863
6.12588
5.97266
1
1
1
1
1
1
1
1
1
1
1
1
1
1
1
1
1
1
1
1
1
1
1
1
1
1
1
1
1
1
1
1
1
1
1
1
1
1
1
1
1
1
1
1
1
1
1
1
1
1
1
1
1
1
1
1
1
1
1
1
1
1
0.999972
1.89572
7.77482
8.96978
8.83374
8.77525
8.74043
8.69286
8.63798
8.58489
8.53096
8.47521
8.41192
8.3409
8.26392
8.18253
8.09773
8.00898
7.91605
7.81885
7.71766
7.61251
7.50014
7.37881
7.25232
7.12125
6.98624
6.85336
6.71815
6.57512
6.42868
6.28228
6.13528
5.98595
1
1
1
1
1
1
1
1
1
1
1
1
1
1
1
1
1
1
1
1
1
1
1
1
1
1
1
1
1
1
1
1
1
1
1
1
1
1
1
1
1
1
1
1
1
1
1
1
1
1
1
1
1
1
1
1
1
1
1
1
1
1
0.999993
1.0624
5.82218
8.67909
8.69994
8.71664
8.6962
8.64695
8.5913
8.53906
8.4856
8.42957
8.36629