/*--------------------------------*- C++ -*----------------------------------*\
  =========                 |
  \\      /  F ield         | OpenFOAM: The Open Source CFD Toolbox
   \\    /   O peration     | Website:  https://openfoam.org
    \\  /    A nd           | Version:  7
     \\/     M anipulation  |
\*---------------------------------------------------------------------------*/
FoamFile
{
    version     2.0;
    format      ascii;
    class       volScalarField;
    location    "1.8";
    object      T;
}
// * * * * * * * * * * * * * * * * * * * * * * * * * * * * * * * * * * * * * //

dimensions      [0 0 0 1 0 0 0];

internalField   nonuniform List<scalar> 
64512
(
1
1
1
1
1
1
1
1
1
1
1
1
1
1
1
1
1
1
1
1
1
1
1
1
1
1
1
1
1
1
1
1
1
1
1
1
1
1
1
1
1
1
1
1
1
1
1
1
1
1
1.78524
2.65194
2.71644
2.71437
2.71647
2.71975
2.72512
2.73165
2.73819
2.74404
2.74883
2.75234
2.75468
2.75622
2.7575
2.75901
2.76102
2.76358
2.76667
2.77013
2.77365
2.77703
2.78031
2.78368
2.78767
2.79287
2.79932
2.80601
2.81136
2.81437
2.81522
2.81495
2.8144
2.81434
2.8157
2.81864
2.82186
2.82468
2.82676
2.82902
2.83325
2.84172
2.85557
2.87186
2.88387
2.8888
1
1
1
1
1
1
1
1
1
1
1
1
1
1
1
1
1
1
1
1
1
1
1
1
1
1
1
1
1
1
1
1
1
1
1
1
1
1
1
1
1
1
1
1
1
1
1
1
1
1
1.77989
2.65016
2.71592
2.71403
2.71592
2.71937
2.72492
2.73156
2.73811
2.74392
2.74866
2.75214
2.75448
2.75603
2.75734
2.75884
2.7608
2.76334
2.76646
2.77002
2.77367
2.77716
2.78048
2.78385
2.78781
2.79296
2.7993
2.80585
2.81104
2.81393
2.81476
2.81452
2.81404
2.81401
2.81538
2.81829
2.82149
2.8244
2.82662
2.82903
2.83334
2.84177
2.85551
2.87165
2.88358
2.88839
1
1
1
1
1
1
1
1
1
1
1
1
1
1
1
1
1
1
1
1
1
1
1
1
1
1
1
1
1
1
1
1
1
1
1
1
1
1
1
1
1
1
1
1
1
1
1
1
1
1
1.7641
2.64539
2.71535
2.71314
2.71509
2.71873
2.72445
2.73115
2.73765
2.74342
2.74816
2.75168
2.75407
2.75568
2.75699
2.75843
2.76033
2.76287
2.76606
2.76978
2.77362
2.77727
2.78067
2.78406
2.78802
2.7931
2.79933
2.80567
2.81062
2.81333
2.81409
2.81391
2.8135
2.81352
2.81489
2.81778
2.821
2.82401
2.82642
2.82901
2.83337
2.84175
2.85537
2.87137
2.88327
2.88799
1
1
1
1
1
1
1
1
1
1
1
1
1
1
1
1
1
1
1
1
1
1
1
1
1
1
1
1
1
1
1
1
1
1
1
1
1
1
1
1
1
1
1
1
1
1
1
1
1
1
1.74082
2.6378
2.71486
2.71261
2.7146
2.71813
2.72375
2.73033
2.73666
2.74238
2.7472
2.75088
2.75343
2.75512
2.75643
2.75776
2.75957
2.76214
2.76547
2.76944
2.77352
2.77732
2.78083
2.78425
2.78817
2.79316
2.79922
2.8053
2.80999
2.81251
2.81321
2.81306
2.81272
2.81279
2.81419
2.81707
2.82036
2.82351
2.82616
2.82896
2.83337
2.84168
2.85521
2.87103
2.88279
2.88736
1
1
1
1
1
1
1
1
1
1
1
1
1
1
1
1
1
1
1
1
1
1
1
1
1
1
1
1
1
1
1
1
1
1
1
1
1
1
1
1
1
1
1
1
1
1
1
1
1
1
1.71134
2.62773
2.71468
2.71252
2.71451
2.71762
2.7227
2.72886
2.73499
2.74071
2.74571
2.74969
2.7525
2.75434
2.75562
2.75682
2.75854
2.76118
2.76472
2.76898
2.77334
2.77732
2.78092
2.78434
2.78822
2.79308
2.7989
2.80472
2.80917
2.81154
2.81219
2.81209
2.81179
2.81189
2.81332
2.81623
2.81963
2.82292
2.8258
2.8288
2.83324
2.84152
2.85499
2.87063
2.8822
2.88658
1
1
1
1
1
1
1
1
1
1
1
1
1
1
1
1
1
1
1
1
1
1
1
1
1
1
1
1
1
1
1
1
1
1
1
1
1
1
1
1
1
1
1
1
1
1
1
1
1
1
1.67158
2.61404
2.71457
2.71274
2.71478
2.71739
2.72162
2.72696
2.73273
2.73846
2.74379
2.74821
2.75136
2.75337
2.75458
2.75567
2.75734
2.7601
2.76386
2.76843
2.77308
2.77726
2.78093
2.78433
2.78813
2.79278
2.79833
2.80388
2.80814
2.81043
2.81109
2.81103
2.81077
2.81088
2.81231
2.81526
2.81875
2.82219
2.8253
2.82844
2.83295
2.84124
2.85465
2.87012
2.88147
2.88568
1
1
1
1
1
1
1
1
1
1
1
1
1
1
1
1
1
1
1
1
1
1
1
1
1
1
1
1
1
1
1
1
1
1
1
1
1
1
1
1
1
1
1
1
1
1
1
1
1
1
1.62174
2.59702
2.71396
2.71269
2.71485
2.7171
2.72047
2.72482
2.73001
2.73579
2.74154
2.74645
2.74993
2.75211
2.75332
2.75442
2.75619
2.7591
2.76306
2.76784
2.77272
2.77707
2.78085
2.78423
2.78789
2.79229
2.79753
2.80278
2.80688
2.80914
2.80986
2.80989
2.80967
2.80975
2.81116
2.81414
2.81771
2.8213
2.8246
2.82786
2.83243
2.84075
2.85413
2.86944
2.8806
2.88469
1
1
1
1
1
1
1
1
1
1
1
1
1
1
1
1
1
1
1
1
1
1
1
1
1
1
1
1
1
1
1
1
1
1
1
1
1
1
1
1
1
1
1
1
1
1
1
1
1
1
1.56143
2.5763
2.7127
2.71215
2.71445
2.71652
2.71917
2.72265
2.72727
2.73299
2.73907
2.74437
2.7482
2.75059
2.75198
2.75333
2.75534
2.75831
2.76229
2.76712
2.77215
2.77672
2.78066
2.78406
2.78761
2.79173
2.7966
2.80151
2.80543
2.80766
2.80848
2.80862
2.80845
2.80852
2.80989
2.81287
2.81652
2.82026
2.82369
2.82701
2.83161
2.83998
2.85334
2.86855
2.87958
2.88359
1
1
1
1
1
1
1
1
1
1
1
1
1
1
1
1
1
1
1
1
1
1
1
1
1
1
1
1
1
1
1
1
1
1
1
1
1
1
1
1
1
1
1
1
1
1
1
1
1
1
1.49223
2.55153
2.71079
2.71072
2.71315
2.71534
2.71768
2.72057
2.72474
2.73028
2.73645
2.74199
2.74625
2.74898
2.75085
2.75264
2.75487
2.75779
2.76161
2.7663
2.7714
2.77617
2.7803
2.78378
2.78722
2.79107
2.79555
2.80008
2.80377
2.80595
2.80686
2.80714
2.80706
2.80717
2.8085
2.81145
2.81515
2.819
2.82251
2.82588
2.83048
2.8389
2.85228
2.86746
2.87842
2.8824
1
1
1
1
1
1
1
1
1
1
1
1
1
1
1
1
1
1
1
1
1
1
1
1
1
1
1
1
1
1
1
1
1
1
1
1
1
1
1
1
1
1
1
1
1
1
1
1
1
1
1.41505
2.52134
2.70813
2.70843
2.71115
2.71372
2.7161
2.71871
2.72246
2.72765
2.73365
2.73939
2.74413
2.74755
2.75005
2.75233
2.7547
2.75746
2.76095
2.76536
2.77041
2.77536
2.77972
2.78333
2.78673
2.79034
2.79445
2.7986
2.80201
2.80406
2.80499
2.80536
2.80542
2.80563
2.80699
2.80991
2.81362
2.81749
2.82105
2.82445
2.82907
2.83755
2.85096
2.86615
2.87708
2.88105
1
1
1
1
1
1
1
1
1
1
1
1
1
1
1
1
1
1
1
1
1
1
1
1
1
1
1
1
1
1
1
1
1
1
1
1
1
1
1
1
1
1
1
1
1
1
1
1
1
1
1.32912
2.48263
2.70348
2.70527
2.70919
2.71229
2.7148
2.7173
2.72062
2.72524
2.73091
2.73677
2.74204
2.74622
2.74954
2.75233
2.75479
2.75732
2.76035
2.76432
2.76917
2.77423
2.77882
2.78262
2.78605
2.7895
2.79331
2.79709
2.80021
2.80204
2.80285
2.80324
2.80344
2.80384
2.80532
2.80824
2.81189
2.81569
2.81925
2.82271
2.8274
2.83596
2.84941
2.86463
2.87556
2.87953
1
1
1
1
1
1
1
1
1
1
1
1
1
1
1
1
1
1
1
1
1
1
1
1
1
1
1
1
1
1
1
1
1
1
1
1
1
1
1
1
1
1
1
1
1
1
1
1
1
1
1.23152
2.43123
2.69645
2.70192
2.70788
2.71153
2.7141
2.71639
2.71916
2.72307
2.72823
2.73408
2.73981
2.74494
2.74925
2.75264
2.75525
2.75748
2.75989
2.76322
2.76764
2.77263
2.77742
2.78148
2.78505
2.78847
2.79208
2.79557
2.79837
2.79993
2.80053
2.80081
2.80109
2.80169
2.8034
2.80642
2.80995
2.81362
2.81713
2.82064
2.8255
2.83415
2.84764
2.86292
2.87388
2.87784
1
1
1
1
1
1
1
1
1
1
1
1
1
1
1
1
1
1
1
1
1
1
1
1
1
1
1
1
1
1
1
1
1
1
1
1
1
1
1
1
1
1
1
1
1
1
1
1
1
1
1.12938
2.37303
2.69094
2.69979
2.7072
2.71141
2.71399
2.71612
2.71849
2.72176
2.72624
2.7318
2.73785
2.74381
2.74904
2.75303
2.75579
2.75764
2.75934
2.76192
2.76577
2.77057
2.77552
2.77991
2.78374
2.78722
2.79072
2.79395
2.79646
2.79771
2.79803
2.79813
2.79841
2.79921
2.80123
2.8044
2.80782
2.81132
2.81468
2.81828
2.82333
2.83207
2.84562
2.86096
2.87195
2.8759
1
1
1
1
1
1
1
1
1
1
1
1
1
1
1
1
1
1
1
1
1
1
1
1
1
1
1
1
1
1
1
1
1
1
1
1
1
1
1
1
1
1
1
1
1
1
1
1
1
1
1.02256
2.31163
2.69017
2.70043
2.70676
2.71103
2.71374
2.7159
2.71794
2.72045
2.72404
2.72905
2.73524
2.74199
2.74824
2.75303
2.75617
2.75782
2.75894
2.76075
2.76385
2.76821
2.77317
2.77785
2.78199
2.78562
2.78907
2.79211
2.79436
2.79535
2.79541
2.79532
2.79551
2.79645
2.79875
2.80209
2.80546
2.8088
2.81198
2.81567
2.8209
2.82971
2.84335
2.85878
2.86981
2.87371
1
1
1
1
1
1
1
1
1
1
1
1
1
1
1
1
1
1
1
1
1
1
1
1
1
1
1
1
1
1
1
1
1
1
1
1
1
1
1
1
1
1
1
1
1
1
1
1
1
1
1.00031
2.24163
2.68675
2.70033
2.70596
2.71049
2.71351
2.71588
2.71784
2.71998
2.72299
2.72734
2.73322
2.74025
2.74724
2.7528
2.75629
2.75779
2.75836
2.75941
2.76165
2.76546
2.77036
2.7754
2.77998
2.78386
2.78727
2.79004
2.79196
2.79269
2.79256
2.79231
2.79243
2.79343
2.79595
2.79946
2.80285
2.80606
2.8091
2.81286
2.81819
2.82702
2.84075
2.8563
2.8674
2.87126
1
1
1
1
1
1
1
1
1
1
1
1
1
1
1
1
1
1
1
1
1
1
1
1
1
1
1
1
1
1
1
1
1
1
1
1
1
1
1
1
1
1
1
1
1
1
1
1
1
1
1
2.15472
2.68154
2.70064
2.70595
2.71042
2.71367
2.71618
2.71806
2.71984
2.72221
2.72576
2.73095
2.73781
2.74531
2.75177
2.75604
2.75776
2.75795
2.75835
2.75973
2.76275
2.76731
2.77248
2.7774
2.78152
2.78489
2.78743
2.78908
2.78966
2.78948
2.78919
2.78929
2.79033
2.79297
2.79659
2.79997
2.8031
2.80603
2.80974
2.81508
2.8239
2.83771
2.85344
2.86467
2.86853
1
1
1
1
1
1
1
1
1
1
1
1
1
1
1
1
1
1
1
1
1
1
1
1
1
1
1
1
1
1
1
1
1
1
1
1
1
1
1
1
1
1
1
1
1
1
1
1
1
1
1
2.05033
2.66797
2.69745
2.70374
2.70901
2.71286
2.71582
2.71786
2.71952
2.72146
2.7243
2.7287
2.73507
2.74273
2.74995
2.75505
2.75708
2.75687
2.75663
2.75728
2.75956
2.76375
2.76905
2.77437
2.77883
2.78223
2.78454
2.78594
2.7864
2.78623
2.78598
2.78606
2.78707
2.78973
2.79337
2.79675
2.79988
2.80271
2.80632
2.81157
2.82034
2.83422
2.85018
2.86166
2.86558
1
1
1
1
1
1
1
1
1
1
1
1
1
1
1
1
1
1
1
1
1
1
1
1
1
1
1
1
1
1
1
1
1
1
1
1
1
1
1
1
1
1
1
1
1
1
1
1
1
1
1
1.92859
2.64581
2.69042
2.69857
2.70546
2.71056
2.7146
2.71721
2.71884
2.72035
2.72245
2.72589
2.73147
2.73897
2.74678
2.75286
2.75561
2.7554
2.75484
2.75499
2.7565
2.76008
2.76525
2.77082
2.7756
2.77914
2.78134
2.78255
2.78291
2.78274
2.78254
2.78263
2.7836
2.78624
2.78989
2.7933
2.79645
2.79919
2.80259
2.80767
2.81631
2.83021
2.84642
2.85821
2.86225
1
1
1
1
1
1
1
1
1
1
1
1
1
1
1
1
1
1
1
1
1
1
1
1
1
1
1
1
1
1
1
1
1
1
1
1
1
1
1
1
1
1
1
1
1
1
1
1
1
1
1
1.79421
2.61655
2.68281
2.69134
2.69935
2.70564
2.71104
2.71483
2.71709
2.71864
2.72029
2.72287
2.72748
2.73438
2.74235
2.74923
2.75298
2.75325
2.75267
2.75244
2.75336
2.75626
2.76103
2.76666
2.77176
2.77556
2.7778
2.77891
2.77918
2.779
2.77885
2.77895
2.77992
2.78251
2.78615
2.78963
2.79275
2.79533
2.79843
2.80325
2.81172
2.82562
2.84212
2.85431
2.85856
1
1
1
1
1
1
1
1
1
1
1
1
1
1
1
1
1
1
1
1
1
1
1
1
1
1
1
1
1
1
1
1
1
1
1
1
1
1
1
1
1
1
1
1
1
1
1
1
1
1
1
1.6392
2.57096
2.67775
2.68393
2.69159
2.69862
2.70518
2.71023
2.71358
2.71563
2.71726
2.71936
2.72312
2.72921
2.73686
2.74412
2.74894
2.75028
2.74992
2.74957
2.75013
2.75235
2.7565
2.76188
2.76715
2.77127
2.77375
2.77494
2.7752
2.77502
2.77491
2.77503
2.77601
2.77855
2.78216
2.78567
2.78872
2.79109
2.79385
2.79837
2.80662
2.82047
2.83722
2.84982
2.85431
1
1
1
1
1
1
1
1
1
1
1
1
1
1
1
1
1
1
1
1
1
1
1
1
1
1
1
1
1
1
1
1
1
1
1
1
1
1
1
1
1
1
1
1
1
1
1
1
1
1
1
1.43945
2.49905
2.67644
2.67664
2.68317
2.69026
2.69751
2.70367
2.70821
2.71114
2.71324
2.71537
2.71863
2.72386
2.73081
2.73796
2.7435
2.74609
2.74638
2.74627
2.74669
2.74838
2.7518
2.75665
2.76183
2.76623
2.76911
2.7706
2.77096
2.77079
2.77066
2.77078
2.77179
2.77432
2.77788
2.78137
2.78427
2.78638
2.78879
2.79295
2.80093
2.81469
2.83169
2.84473
2.84951
1
1
1
1
1
1
1
1
1
1
1
1
1
1
1
1
1
1
1
1
1
1
1
1
1
1
1
1
1
1
1
1
1
1
1
1
1
1
1
1
1
1
1
1
1
1
1
1
1
1
1
1.21145
2.41063
2.67751
2.67453
2.67931
2.68505
2.69121
2.69682
2.70161
2.70536
2.70833
2.71099
2.71419
2.71878
2.72484
2.73139
2.73707
2.74062
2.74195
2.74241
2.74301
2.74443
2.74717
2.75126
2.75604
2.76052
2.76382
2.76574
2.76637
2.76623
2.76609
2.76623
2.76729
2.76979
2.77325
2.77666
2.77937
2.7812
2.78325
2.78701
2.79465
2.80823
2.82539
2.83882
2.84385
1
1
1
1
1
1
1
1
1
1
1
1
1
1
1
1
1
1
1
1
1
1
1
1
1
1
1
1
1
1
1
1
1
1
1
1
1
1
1
1
1
1
1
1
1
1
1
1
1
1
1
1.03782
2.33765
2.67719
2.67418
2.67815
2.68223
2.68707
2.69191
2.69658
2.70069
2.70416
2.70723
2.71047
2.71456
2.71967
2.72526
2.73054
2.73452
2.73678
2.73804
2.73905
2.74042
2.74263
2.74591
2.75004
2.75437
2.75798
2.76038
2.7614
2.76134
2.76122
2.76138
2.76245
2.7649
2.7682
2.77149
2.77395
2.77546
2.77707
2.78035
2.78759
2.80095
2.81827
2.83208
2.8374
1
1
1
1
1
1
1
1
1
1
1
1
1
1
1
1
1
1
1
1
1
1
1
1
1
1
1
1
1
1
1
1
1
1
1
1
1
1
1
1
1
1
1
1
1
1
1
1
1
1
1
1.00057
2.23305
2.67819
2.67974
2.6823
2.6852
2.68852
2.69219
2.69591
2.69952
2.70284
2.70585
2.70881
2.71215
2.71612
2.72039
2.72468
2.72844
2.73122
2.73324
2.73483
2.73639
2.73827
2.74079
2.74411
2.74799
2.75172
2.75455
2.75601
2.75616
2.75609
2.75625
2.75726
2.75956
2.76264
2.76578
2.76797
2.76916
2.77033
2.77306
2.77978
2.79276
2.81006
2.82414
2.82966
1
1
1
1
1
1
1
1
1
1
1
1
1
1
1
1
1
1
1
1
1
1
1
1
1
1
1
1
1
1
1
1
1
1
1
1
1
1
1
1
1
1
1
1
1
1
1
1
1
1
1
1
2.09765
2.67375
2.68202
2.68336
2.68596
2.68861
2.6918
2.69524
2.69869
2.70187
2.7048
2.7076
2.71048
2.71372
2.71704
2.72032
2.72345
2.72621
2.72859
2.7306
2.73235
2.73402
2.73591
2.7384
2.74163
2.74526
2.74831
2.75025
2.75072
2.75067
2.75078
2.75168
2.75374
2.75652
2.75945
2.76132
2.76211
2.76275
2.76478
2.7708
2.7833
2.80058
2.81497
2.82074
1
1
1
1
1
1
1
1
1
1
1
1
1
1
1
1
1
1
1
1
1
1
1
1
1
1
1
1
1
1
1
1
1
1
1
1
1
1
1
1
1
1
1
1
1
1
1
1
1
1
1
1
1.92391
2.63974
2.68072
2.68341
2.68622
2.68885
2.6919
2.69521
2.69842
2.70144
2.70422
2.70672
2.70909
2.71166
2.71424
2.7167
2.71925
2.72188
2.72444
2.72681
2.72873
2.73014
2.73132
2.7329
2.73533
2.73863
2.74171
2.74413
2.74498
2.74491
2.74492
2.74566
2.74738
2.74977
2.75238
2.75388
2.75423
2.75437
2.75571
2.76088
2.77261
2.78951
2.80393
2.80971
1
1
1
1
1
1
1
1
1
1
1
1
1
1
1
1
1
1
1
1
1
1
1
1
1
1
1
1
1
1
1
1
1
1
1
1
1
1
1
1
1
1
1
1
1
1
1
1
1
1
1
1
1.71046
2.56721
2.66996
2.67594
2.68025
2.68398
2.68809
2.69251
2.6967
2.70033
2.7033
2.70575
2.7078
2.70989
2.71197
2.7139
2.71599
2.71837
2.72092
2.72332
2.72526
2.7264
2.72701
2.72778
2.72931
2.73198
2.73491
2.73766
2.73886
2.7388
2.73865
2.73913
2.74042
2.74236
2.74449
2.74555
2.74534
2.74488
2.74534
2.74921
2.75984
2.77629
2.79082
2.79684
1
1
1
1
1
1
1
1
1
1
1
1
1
1
1
1
1
1
1
1
1
1
1
1
1
1
1
1
1
1
1
1
1
1
1
1
1
1
1
1
1
1
1
1
1
1
1
1
1
1
1
1
1.41997
2.4577
2.65875
2.66313
2.66957
2.67488
2.68004
2.68542
2.69098
2.69602
2.70007
2.70318
2.70545
2.70747
2.70935
2.71107
2.71297
2.71532
2.71793
2.72033
2.72218
2.72296
2.723
2.72304
2.72374
2.7256
2.72814
2.73097
2.73242
2.73235
2.73199
2.73211
2.73289
2.73428
2.73571
2.7362
2.73541
2.73412
2.73373
2.73635
2.74549
2.76072
2.77453
2.7799
1
1
1
1
1
1
1
1
1
1
1
1
1
1
1
1
1
1
1
1
1
1
1
1
1
1
1
1
1
1
1
1
1
1
1
1
1
1
1
1
1
1
1
1
1
1
1
1
1
1
1
1
1.10622
2.35346
2.65627
2.65382
2.6572
2.66203
2.66823
2.67489
2.68176
2.68822
2.69364
2.69785
2.7009
2.70331
2.70538
2.7073
2.70943
2.71211
2.7149
2.71731
2.7191
2.71956
2.71924
2.71876
2.7188
2.71972
2.72165
2.72424
2.7258
2.7257
2.72503
2.7246
2.72482
2.7255
2.7261
2.72588
2.72439
2.72185
2.72013
2.72096
2.72747
2.74076
2.75373
2.75941
1
1
1
1
1
1
1
1
1
1
1
1
1
1
1
1
1
1
1
1
1
1
1
1
1
1
1
1
1
1
1
1
1
1
1
1
1
1
1
1
1
1
1
1
1
1
1
1
1
1
1
1
1.00283
2.26239
2.64843
2.64592
2.65161
2.65621
2.66091
2.66582
2.67159
2.67807
2.68428
2.68949
2.69357
2.69677
2.69947
2.70195
2.70468
2.70798
2.71105
2.71372
2.71551
2.71587
2.71539
2.71453
2.71406
2.71421
2.71549
2.71763
2.71916
2.71899
2.71798
2.7168
2.71617
2.71595
2.71568
2.71464
2.71209
2.708
2.70429
2.70326
2.70733
2.71782
2.72707
2.72817
1
1
1
1
1
1
1
1
1
1
1
1
1
1
1
1
1
1
1
1
1
1
1
1
1
1
1
1
1
1
1
1
1
1
1
1
1
1
1
1
1
1
1
1
1
1
1
1
1
1
1
1
1
2.10646
2.64632
2.65287
2.65586
2.65662
2.65741
2.65974
2.66361
2.66877
2.67446
2.6799
2.68459
2.68844
2.69177
2.69493
2.6984
2.70225
2.70593
2.70903
2.71095
2.71156
2.71108
2.71007
2.70913
2.70868
2.70944
2.71103
2.71239
2.71213
2.71079
2.70881
2.70706
2.70574
2.7044
2.7023
2.69851
2.69274
2.68626
2.68183
2.68097
2.68385
2.68679
2.6845
1
1
1
1
1
1
1
1
1
1
1
1
1
1
1
1
1
1
1
1
1
1
1
1
1
1
1
1
1
1
1
1
1
1
1
1
1
1
1
1
1
1
1
1
1
1
1
1
1
1
1
1
1
1.89574
2.61557
2.65926
2.65823
2.6584
2.659
2.65986
2.66141
2.66411
2.66789
2.67217
2.6763
2.67995
2.68332
2.68678
2.6907
2.69487
2.69909
2.70273
2.70512
2.70617
2.70591
2.70503
2.70371
2.70294
2.7033
2.70435
2.70543
2.70509
2.70346
2.7007
2.6977
2.695
2.69233
2.68893
2.6837
2.67591
2.66598
2.65618
2.64897
2.64451
2.64141
2.64143
1
1
1
1
1
1
1
1
1
1
1
1
1
1
1
1
1
1
1
1
1
1
1
1
1
1
1
1
1
1
1
1
1
1
1
1
1
1
1
1
1
1
1
1
1
1
1
1
1
1
1
1
1
1.60132
2.51761
2.65325
2.65399
2.65594
2.65765
2.65928
2.66081
2.66265
2.66489
2.66744
2.67017
2.67289
2.67564
2.67875
2.68249
2.68655
2.69083
2.69483
2.69793
2.69947
2.69966
2.69905
2.69768
2.69673
2.69677
2.69734
2.69807
2.69764
2.69578
2.69232
2.6881
2.68384
2.67957
2.67461
2.66767
2.6576
2.64412
2.62851
2.61124
2.58715
2.5349
2.40288
1
1
1
1
1
1
1
1
1
1
1
1
1
1
1
1
1
1
1
1
1
1
1
1
1
1
1
1
1
1
1
1
1
1
1
1
1
1
1
1
1
1
1
1
1
1
1
1
1
1
1
1
1
1.22957
2.39012
2.64546
2.64103
2.64534
2.65093
2.65566
2.65861
2.66085
2.66284
2.66473
2.6666
2.66841
2.67021
2.67239
2.67524
2.67858
2.68219
2.68593
2.68938
2.69157
2.69228
2.69196
2.69084
2.68983
2.68961
2.68981
2.69019
2.68967
2.68765
2.68368
2.67834
2.67248
2.66639
2.65957
2.65066
2.63812
2.62076
2.5979
2.56798
2.52184
2.45092
2.24549
1
1
1
1
1
1
1
1
1
1
1
1
1
1
1
1
1
1
1
1
1
1
1
1
1
1
1
1
1
1
1
1
1
1
1
1
1
1
1
1
1
1
1
1
1
1
1
1
1
1
1
1
1
1.01338
2.28176
2.63175
2.62896
2.63443
2.6414
2.64837
2.65337
2.65704
2.65975
2.66186
2.66365
2.66518
2.66646
2.66775
2.66957
2.6719
2.6743
2.67713
2.68031
2.68285
2.68402
2.68397
2.68315
2.68217
2.68165
2.68156
2.68156
2.68093
2.6788
2.6745
2.66831
2.66097
2.65296
2.64406
2.63295
2.61787
2.59665
2.56791
2.52744
2.47414
2.36125
2.1611
1
1
1
1
1
1
1
1
1
1
1
1
1
1
1
1
1
1
1
1
1
1
1
1
1
1
1
1
1
1
1
1
1
1
1
1
1
1
1
1
1
1
1
1
1
1
1
1
1
1
1
1
1
1.00003
2.10349
2.6173
2.62878
2.63264
2.63606
2.64084
2.64589
2.65059
2.65447
2.65753
2.65992
2.66177
2.66309
2.66404
2.66519
2.66656
2.66775
2.66935
2.67162
2.67388
2.67525
2.67539
2.67473
2.67379
2.67296
2.6725
2.67213
2.67126
2.66905
2.66464
2.65791
2.64936
2.63952
2.62846
2.61506
2.59758
2.57308
2.5397
2.49255
2.42549
2.30446
2.12339
1
1
1
1
1
1
1
1
1
1
1
1
1
1
1
1
1
1
1
1
1
1
1
1
1
1
1
1
1
1
1
1
1
1
1
1
1
1
1
1
1
1
1
1
1
1
1
1
1
1
1
1
1
1
1.85112
2.57972
2.62998
2.63086
2.63309
2.63566
2.63897
2.6431
2.64741
2.65138
2.65469
2.65728
2.65914
2.66033
2.66133
2.66213
2.66245
2.66296
2.6641
2.6656
2.66673
2.66678
2.66607
2.66495
2.66369
2.66271
2.66185
2.66064
2.65827
2.65386
2.6469
2.63754
2.62616
2.61307
2.59744
2.5777
2.55081
2.51356
2.46264
2.38792
2.27624
2.13638
1
1
1
1
1
1
1
1
1
1
1
1
1
1
1
1
1
1
1
1
1
1
1
1
1
1
1
1
1
1
1
1
1
1
1
1
1
1
1
1
1
1
1
1
1
1
1
1
1
1
1
1
1
1
1.48687
2.46497
2.62758
2.62658
2.62846
2.63039
2.63297
2.63638
2.64037
2.64455
2.6483
2.65151
2.65399
2.65575
2.65704
2.65778
2.65757
2.65741
2.65765
2.65822
2.65876
2.65857
2.65754
2.65598
2.65415
2.65248
2.65096
2.64921
2.64653
2.64209
2.63511
2.62535
2.61289
2.59807
2.58044
2.55865
2.53008
2.49103
2.43777
2.36401
2.2642
2.14736
1
1
1
1
1
1
1
1
1
1
1
1
1
1
1
1
1
1
1
1
1
1
1
1
1
1
1
1
1
1
1
1
1
1
1
1
1
1
1
1
1
1
1
1
1
1
1
1
1
1
1
1
1
1
1.06861
2.32395
2.62433
2.62063
2.62146
2.62437
2.62726
2.63018
2.63358
2.63749
2.64117
2.64465
2.64762
2.64996
2.65172
2.65267
2.65244
2.65205
2.6518
2.65174
2.65165
2.65112
2.64957
2.64734
2.64475
2.6422
2.63979
2.63726
2.63404
2.62941
2.62248
2.61267
2.59968
2.58362
2.56431
2.54079
2.51099
2.47164
2.419
2.34947
2.2607
2.16094
1
1
1
1
1
1
1
1
1
1
1
1
1
1
1
1
1
1
1
1
1
1
1
1
1
1
1
1
1
1
1
1
1
1
1
1
1
1
1
1
1
1
1
1
1
1
1
1
1
1
1
1
1
1
1.00108
2.17449
2.59745
2.60578
2.61306
2.61781
2.62144
2.62437
2.62736
2.63081
2.63401
2.63732
2.64036
2.64302
2.64516
2.64644
2.64653
2.64626
2.64587
2.64554
2.64504
2.64407
2.64205
2.63916
2.63576
2.63227
2.62881
2.62528
2.62123
2.61613
2.60913
2.59944
2.58636
2.56963
2.54913
2.5243
2.49382
2.45464
2.40477
2.34055
2.26314
2.1776
1
1
1
1
1
1
1
1
1
1
1
1
1
1
1
1
1
1
1
1
1
1
1
1
1
1
1
1
1
1
1
1
1
1
1
1
1
1
1
1
1
1
1
1
1
1
1
1
1
1
1
1
1
1
0.999993
1.92165
2.56422
2.60248
2.60898
2.61329
2.61613
2.61868
2.62138
2.62446
2.62729
2.63031
2.63316
2.63574
2.63792
2.63933
2.63978
2.63971
2.63946
2.63911
2.63845
2.63721
2.63491
2.63155
2.62742
2.62295
2.61834
2.61364
2.60854
2.60272
2.59544
2.58582
2.5729
2.55602
2.53492
2.5093
2.47858
2.43967
2.39368
2.33554
2.26674
2.19313
1
1
1
1
1
1
1
1
1
1
1
1
1
1
1
1
1
1
1
1
1
1
1
1
1
1
1
1
1
1
1
1
1
1
1
1
1
1
1
1
1
1
1
1
1
1
1
1
1
1
1
1
1
1
0.999998
1.52945
2.46216
2.60114
2.60419
2.60759
2.61048
2.61291
2.61541
2.61806
2.62071
2.62347
2.62608
2.62842
2.63038
2.63171
2.63231
2.63248
2.63234
2.63208
2.63143
2.63012
2.62775
2.62419
2.61957
2.61427
2.60857
2.60272
2.59649
2.58976
2.58191
2.57214
2.55937
2.54266
2.52153
2.49572
2.46492
2.42735
2.38473
2.33149
2.27095
2.20687
1
1
1
1
1
1
1
1
1
1
1
1
1
1
1
1
1
1
1
1
1
1
1
1
1
1
1
1
1
1
1
1
1
1
1
1
1
1
1
1
1
1
1
1
1
1
1
1
1
1
1
1
1
1
1
1.07713
2.31743
2.6028
2.59905
2.60055
2.60349
2.6061
2.60868
2.61132
2.61402
2.61676
2.61928
2.62142
2.62308
2.62416
2.6247
2.62487
2.62469
2.62438
2.62372
2.62244
2.6202
2.61671
2.6119
2.60605
2.5995
2.59261
2.58537
2.5777
2.56909
2.55889
2.54605
2.5296
2.50887
2.48338
2.4531
2.41741
2.37696
2.32783
2.27532
2.21769
1
1
1
1
1
1
1
1
1
1
1
1
1
1
1
1
1
1
1
1
1
1
1
1
1
1
1
1
1
1
1
1
1
1
1
1
1
1
1
1
1
1
1
1
1
1
1
1
1
1
1
1
1
1
1
1.00137
2.14909
2.5766
2.58699
2.59337
2.5964
2.59887
2.60158
2.60438
2.6071
2.60979
2.61228
2.61435
2.61587
2.61676
2.61719
2.61713
2.61679
2.61624
2.61543
2.61419
2.61215
2.60889
2.60417
2.59811
2.59101
2.58333
2.57527
2.56675
2.55737
2.54653
2.53331
2.51693
2.49665
2.472
2.44266
2.40866
2.37047
2.32568
2.27923
2.22563
1
1
1
1
1
1
1
1
1
1
1
1
1
1
1
1
1
1
1
1
1
1
1
1
1
1
1
1
1
1
1
1
1
1
1
1
1
1
1
1
1
1
1
1
1
1
1
1
1
1
1
1
1
1
1
0.999992
1.84224
2.53233
2.58318
2.58657
2.5891
2.59218
2.59511
2.59796
2.60062
2.60304
2.60531
2.60724
2.60872
2.60954
2.60988
2.6096
2.60891
2.60793
2.60679
2.60541
2.60346
2.60045
2.59598
2.59002
2.58277
2.57466
2.56601
2.5568
2.54672
2.53521
2.52151
2.50501
2.48511
2.46151
2.43326
2.40139
2.36541
2.32426
2.28185
2.23182
1
1
1
1
1
1
1
1
1
1
1
1
1
1
1
1
1
1
1
1
1
1
1
1
1
1
1
1
1
1
1
1
1
1
1
1
1
1
1
1
1
1
1
1
1
1
1
1
1
1
1
1
1
1
1
0.999998
1.3973
2.41987
2.57644
2.57459
2.57835
2.58366
2.58771
2.59099
2.59374
2.59597
2.59795
2.59971
2.60123
2.60213
2.60244
2.60208
2.60113
2.59973
2.59814
2.59646
2.59444
2.59158
2.58741
2.58172
2.57457
2.56631
2.5573
2.54761
2.53701
2.525
2.51093
2.49421
2.47468
2.45173
2.42495
2.39559
2.36108
2.32288
2.28319
2.23734
1
1
1
1
1
1
1
1
1
1
1
1
1
1
1
1
1
1
1
1
1
1
1
1
1
1
1
1
1
1
1
1
1
1
1
1
1
1
1
1
1
1
1
1
1
1
1
1
1
1
1
1
1
1
1
1
1.03903
2.27394
2.57575
2.56965
2.57122
2.57498
2.57958
2.58342
2.58666
2.58896
2.59074
2.59223
2.5936
2.59449
2.59477
2.59445
2.59344
2.59177
2.58975
2.58765
2.58533
2.58243
2.57843
2.57304
2.56614
2.55797
2.54886
2.53892
2.52805
2.51579
2.5016
2.48484
2.46563
2.44288
2.41797
2.39038
2.35681
2.32178
2.28463
2.24302
1
1
1
1
1
1
1
1
1
1
1
1
1
1
1
1
1
1
1
1
1
1
1
1
1
1
1
1
1
1
1
1
1
1
1
1
1
1
1
1
1
1
1
1
1
1
1
1
1
1
1
1
1
1
1
1
1.00028
2.02872
2.54274
2.55857
2.56432
2.56868
2.57221
2.57555
2.57899
2.58163
2.5835
2.58482
2.58594
2.58668
2.5869
2.58668
2.58577
2.58407
2.58182
2.5793
2.57655
2.5734
2.56939
2.56417
2.5575
2.54953
2.54047
2.53046
2.51949
2.50722
2.49322
2.47672
2.45774
2.43539
2.41231
2.38493
2.3529
2.32144
2.286
2.24747
1
1
1
1
1
1
1
1
1
1
1
1
1
1
1
1
1
1
1
1
1
1
1
1
1
1
1
1
1
1
1
1
1
1
1
1
1
1
1
1
1
1
1
1
1
1
1
1
1
1
1
1
1
1
1
1
0.999999
1.60011
2.45862
2.56304
2.56227
2.56315
2.56537
2.56812
2.5713
2.57415
2.57627
2.57755
2.57834
2.57873
2.57881
2.57866
2.57793
2.57643
2.57419
2.57141
2.56825
2.56474
2.56052
2.55525
2.54869
2.54093
2.53204
2.52209
2.51112
2.49895
2.48532
2.46926
2.45084
2.42951
2.40695
2.37965
2.35079
2.32136
2.28677
2.25122
1
1
1
1
1
1
1
1
1
1
1
1
1
1
1
1
1
1
1
1
1
1
1
1
1
1
1
1
1
1
1
1
1
1
1
1
1
1
1
1
1
1
1
1
1
1
1
1
1
1
1
1
1
1
1
1
1
1.09637
2.3064
2.56427
2.55652
2.55694
2.55844
2.5606
2.56337
2.56625
2.56869
2.57017
2.57087
2.57092
2.57085
2.57065
2.57003
2.56875
2.56663
2.56377
2.56036
2.55651
2.55197
2.54647
2.53986
2.53225
2.52355
2.51372
2.50279
2.49069
2.47739
2.46189
2.4444
2.42402
2.40174
2.37599
2.34997
2.3207
2.28763
2.25535
1
1
1
1
1
1
1
1
1
1
1
1
1
1
1
1
1
1
1
1
1
1
1
1
1
1
1
1
1
1
1
1
1
1
1
1
1
1
1
1
1
1
1
1
1
1
1
1
1
1
1
1
1
1
1
1
1
1.0021
2.10688
2.53224
2.54265
2.54985
2.55307
2.55435
2.5561
2.5584
2.56077
2.56242
2.56323
2.56316
2.56291
2.56258
2.56193
2.56074
2.55873
2.55594
2.55249
2.54848
2.54368
2.53794
2.53124
2.52369
2.51515
2.50543
2.49453
2.4824
2.46926
2.45434
2.43759
2.4186
2.39743
2.37339
2.3486
2.31986
2.29022
2.25977
1
1
1
1
1
1
1
1
1
1
1
1
1
1
1
1
1
1
1
1
1
1
1
1
1
1
1
1
1
1
1
1
1
1
1
1
1
1
1
1
1
1
1
1
1
1
1
1
1
1
1
1
1
1
1
1
1
0.999989
1.68721
2.45856
2.5447
2.54532
2.54639
2.54802
2.5494
2.55091
2.55271
2.55423
2.55521
2.55536
2.55514
2.55471
2.5539
2.55258
2.55054
2.54779
2.54437
2.54033
2.53543
2.52959
2.52287
2.51536
2.50692
2.49726
2.48643
2.47413
2.46102
2.44638
2.43031
2.4131
2.39283
2.3705
2.34684
2.32023
2.29337
2.26379
1
1
1
1
1
1
1
1
1
1
1
1
1
1
1
1
1
1
1
1
1
1
1
1
1
1
1
1
1
1
1
1
1
1
1
1
1
1
1
1
1
1
1
1
1
1
1
1
1
1
1
1
1
1
1
1
1
0.999997
1.13463
2.31043
2.54407
2.53644
2.53761
2.5397
2.54159
2.5428
2.54414
2.54539
2.5465
2.54715
2.5471
2.54673
2.54582
2.54431
2.54211
2.5393
2.53588
2.53186
2.52702
2.52131
2.51478
2.50742
2.49906
2.48939
2.47858
2.46603
2.45291
2.43833
2.42311
2.40693
2.38763
2.36749
2.34555
2.32137
2.29562
2.26733
1
1
1
1
1
1
1
1
1
1
1
1
1
1
1
1
1
1
1
1
1
1
1
1
1
1
1
1
1
1
1
1
1
1
1
1
1
1
1
1
1
1
1
1
1
1
1
1
1
1
1
1
1
1
1
1
1
1
1.00403
2.1202
2.51226
2.51825
2.52584
2.53191
2.53352
2.53463
2.53566
2.53655
2.53748
2.53839
2.53864
2.53838
2.53751
2.53594
2.53364
2.53074
2.52724
2.5232
2.51847
2.51299
2.50676
2.49967
2.49135
2.4817
2.47083
2.45822
2.4451
2.43055
2.41604
2.40011
2.38229
2.36419
2.3436
2.32117
2.29648
2.27046
1
1
1
1
1
1
1
1
1
1
1
1
1
1
1
1
1
1
1
1
1
1
1
1
1
1
1
1
1
1
1
1
1
1
1
1
1
1
1
1
1
1
1
1
1
1
1
1
1
1
1
1
1
1
1
1
1
1
0.999986
1.68656
2.43979
2.52054
2.522
2.52423
2.52608
2.52735
2.52808
2.52851
2.52898
2.52963
2.52997
2.52972
2.52895
2.52747
2.52519
2.52224
2.51864
2.51454
2.50988
2.5046
2.49874
2.49201
2.48389
2.47428
2.46336
2.45093
2.43781
2.42352
2.40941
2.39364
2.37728
2.36009
2.34057
2.32009
2.29689
2.27311
1
1
1
1
1
1
1
1
1
1
1
1
1
1
1
1
1
1
1
1
1
1
1
1
1
1
1
1
1
1
1
1
1
1
1
1
1
1
1
1
1
1
1
1
1
1
1
1
1
1
1
1
1
1
1
1
1
1
0.999996
1.12696
2.29106
2.52184
2.51397
2.51469
2.51705
2.51909
2.52001
2.52049
2.52077
2.5211
2.52128
2.52094
2.52016
2.51878
2.51663
2.51376
2.51019
2.50608
2.50149
2.49625
2.49067
2.48413
2.47639
2.4668
2.45603
2.44401
2.43102
2.41726
2.40336
2.38785
2.37228
2.3553
2.33694
2.31819
2.29631
2.27384
1
1
1
1
1
1
1
1
1
1
1
1
1
1
1
1
1
1
1
1
1
1
1
1
1
1
1
1
1
1
1
1
1
1
1
1
1
1
1
1
1
1
1
1
1
1
1
1
1
1
1
1
1
1
1
1
1
1
0.999999
1.00361
2.07552
2.49054
2.49577
2.50305
2.50871
2.51098
2.51213
2.51285
2.51315
2.51325
2.51314
2.51263
2.51166
2.51025
2.50819
2.50547
2.50203
2.49794
2.49332
2.4881
2.4826
2.47617
2.46857
2.45941
2.44904
2.43747
2.42487
2.41177
2.39793
2.38273
2.3675
2.35082
2.33344
2.31558
2.2946
2.27352
1
1
1
1
1
1
1
1
1
1
1
1
1
1
1
1
1
1
1
1
1
1
1
1
1
1
1
1
1
1
1
1
1
1
1
1
1
1
1
1
1
1
1
1
1
1
1
1
1
1
1
1
1
1
1
1
1
1
1
0.999989
1.58739
2.40441
2.49683
2.49847
2.50173
2.50282
2.50408
2.50511
2.5056
2.50562
2.50531
2.5046
2.50344
2.5019
2.49983
2.49723
2.49399
2.49
2.48541
2.4802
2.47455
2.46808
2.46062
2.45192
2.4421
2.43102
2.41903
2.40657
2.39275
2.37794
2.36309
2.34671
2.32975
2.31226
2.2923
2.27305
1
1
1
1
1
1
1
1
1
1
1
1
1
1
1
1
1
1
1
1
1
1
1
1
1
1
1
1
1
1
1
1
1
1
1
1
1
1
1
1
1
1
1
1
1
1
1
1
1
1
1
1
1
1
1
1
1
1
1
0.999997
1.08762
2.245
2.49712
2.49298
2.49315
2.49422
2.4955
2.4967
2.49742
2.49765
2.49741
2.49677
2.4956
2.49394
2.49182
2.48932
2.48625
2.48237
2.47782
2.47256
2.46674
2.46012
2.45278
2.44445
2.4352
2.42468
2.41336
2.40131
2.38765
2.3734
2.35894
2.34277
2.3263
2.30947
2.29077
2.2728
1
1
1
1
1
1
1
1
1
1
1
1
1
1
1
1
1
1
1
1
1
1
1
1
1
1
1
1
1
1
1
1
1
1
1
1
1
1
1
1
1
1
1
1
1
1
1
1
1
1
1
1
1
1
1
1
1
1
1
0.999999
1.00151
1.93609
2.45422
2.47887
2.48254
2.48466
2.48734
2.48885
2.48959
2.48992
2.48979
2.48929
2.48817
2.48639
2.48414
2.48158
2.47855
2.47478
2.47028
2.46504
2.45916
2.45243
2.44507
2.43699
2.42823
2.4183
2.40756
2.39581
2.38246
2.36875
2.35451
2.3387
2.32312
2.30717
2.28961
2.27201
1
1
1
1
1
1
1
1
1
1
1
1
1
1
1
1
1
1
1
1
1
1
1
1
1
1
1
1
1
1
1
1
1
1
1
1
1
1
1
1
1
1
1
1
1
1
1
1
1
1
1
1
1
1
1
1
1
1
1
1
0.999996
1.35015
2.33712
2.48399
2.47677
2.47801
2.47935
2.48039
2.48086
2.48147
2.48189
2.48171
2.48079
2.47903
2.47663
2.47395
2.47082
2.46711
2.46269
2.45754
2.45168
2.44497
2.43757
2.42968
2.42127
2.41187
2.40164
2.39021
2.37726
2.36398
2.35001
2.33492
2.32029
2.30508
2.28834
2.27085
1
1
1
1
1
1
1
1
1
1
1
1
1
1
1
1
1
1
1
1
1
1
1
1
1
1
1
1
1
1
1
1
1
1
1
1
1
1
1
1
1
1
1
1
1
1
1
1
1
1
1
1
1
1
1
1
1
1
1
1
0.999999
1.02739
2.17115
2.46396
2.46398
2.46763
2.47085
2.47117
2.47163
2.47266
2.4737
2.47389
2.47329
2.47169
2.4692
2.4663
2.46294
2.45916
2.45476
2.44977
2.44406
2.43756
2.43026
2.42254
2.41434
2.4053
2.39552
2.38448
2.37196
2.35905
2.34553
2.33136
2.31738
2.30268
2.28656
2.26963
1
1
1
1
1
1
1
1
1
1
1
1
1
1
1
1
1
1
1
1
1
1
1
1
1
1
1
1
1
1
1
1
1
1
1
1
1
1
1
1
1
1
1
1
1
1
1
1
1
1
1
1
1
1
1
1
1
1
1
1
1
1.00011
1.72472
2.39728
2.45667
2.46369
2.46497
2.4636
2.46383
2.46476
2.46584
2.46613
2.4657
2.4643
2.46191
2.45876
2.45509
2.45108
2.44664
2.44177
2.43627
2.43005
2.42302
2.41549
2.40745
2.39867
2.38927
2.37868
2.3667
2.35429
2.3414
2.32801
2.31439
2.30008
2.28459
2.26856
1
1
1
1
1
1
1
1
1
1
1
1
1
1
1
1
1
1
1
1
1
1
1
1
1
1
1
1
1
1
1
1
1
1
1
1
1
1
1
1
1
1
1
1
1
1
1
1
1
1
1
1
1
1
1
1
1
1
1
1
1
1
1.14148
2.25117
2.46229
2.45741
2.45713
2.45624
2.45652
2.45701
2.45748
2.45768
2.45742
2.45637
2.45429
2.45111
2.44729
2.44305
2.43852
2.43367
2.42836
2.42245
2.41583
2.40863
2.40078
2.39217
2.38302
2.37284
2.36147
2.34973
2.33759
2.32469
2.31122
2.29724
2.28251
2.26747
1
1
1
1
1
1
1
1
1
1
1
1
1
1
1
1
1
1
1
1
1
1
1
1
1
1
1
1
1
1
1
1
1
1
1
1
1
1
1
1
1
1
1
1
1
1
1
1
1
1
1
1
1
1
1
1
1
1
1
1
1
1
1.00424
1.96104
2.42315
2.4408
2.44642
2.4484
2.45004
2.44999
2.44973
2.44952
2.44917
2.44833
2.44652
2.44349
2.43962
2.43522
2.43056
2.42565
2.42042
2.41474
2.40851
2.40174
2.39422
2.38586
2.37693
2.36714
2.35638
2.34531
2.33383
2.32127
2.30799
2.29437
2.28037
2.26607
1
1
1
1
1
1
1
1
1
1
1
1
1
1
1
1
1
1
1
1
1
1
1
1
1
1
1
1
1
1
1
1
1
1
1
1
1
1
1
1
1
1
1
1
1
1
1
1
1
1
1
1
1
1
1
1
1
1
1
1
1
1
0.999996
1.33199
2.29783
2.44734
2.44057
2.44139
2.44281
2.44232
2.44142
2.44093
2.44051
2.43987
2.43833
2.43566
2.43202
2.42768
2.42295
2.41793
2.41268
2.40716
2.4013
2.39502
2.38798
2.37995
2.37123
2.36176
2.35154
2.34115
2.33006
2.31778
2.30479
2.29154
2.27804
2.2641
1
1
1
1
1
1
1
1
1
1
1
1
1
1
1
1
1
1
1
1
1
1
1
1
1
1
1
1
1
1
1
1
1
1
1
1
1
1
1
1
1
1
1
1
1
1
1
1
1
1
1
1
1
1
1
1
1
1
1
1
1
1
0.999998
1.02453
2.1142
2.42688
2.42682
2.43038
2.43256
2.43239
2.43198
2.43182
2.43158