/*--------------------------------*- C++ -*----------------------------------*\
  =========                 |
  \\      /  F ield         | OpenFOAM: The Open Source CFD Toolbox
   \\    /   O peration     | Website:  https://openfoam.org
    \\  /    A nd           | Version:  7
     \\/     M anipulation  |
\*---------------------------------------------------------------------------*/
FoamFile
{
    version     2.0;
    format      ascii;
    class       volVectorField;
    location    "1.8";
    object      U;
}
// * * * * * * * * * * * * * * * * * * * * * * * * * * * * * * * * * * * * * //

dimensions      [0 1 -1 0 0 0 0];

internalField   nonuniform List<vector> 
64512
(
(3 -1.14285e-16 0)
(3 -1.4769e-16 0)
(3 -1.68474e-16 0)
(3 2.88303e-16 0)
(3 3.26235e-18 0)
(3 -1.91828e-16 0)
(3 1.49593e-16 0)
(3 3.5286e-16 0)
(3 4.20959e-16 0)
(3 4.70081e-16 0)
(3 7.70227e-16 0)
(3 9.38898e-16 0)
(3 2.5658e-16 0)
(3 -1.19021e-16 0)
(3 -6.3534e-17 0)
(3 -3.94251e-16 0)
(3 -6.89115e-16 0)
(3 -5.0834e-16 0)
(3 1.37864e-16 0)
(3 5.3557e-16 0)
(3 7.6675e-16 0)
(3 -1.57328e-16 0)
(3 -4.16672e-16 0)
(3 -1.59812e-16 0)
(3 -4.47651e-16 0)
(3 -1.01228e-15 0)
(3 -1.12543e-15 0)
(3 -3.67148e-16 0)
(3 1.66507e-16 0)
(3 3.76542e-16 0)
(3 -6.39709e-16 0)
(3 -1.0499e-15 0)
(3 -9.80598e-16 0)
(3 -9.59987e-16 0)
(3 -8.85124e-16 0)
(3 -8.87434e-16 0)
(3 -4.41986e-16 0)
(3 -6.53266e-16 0)
(3 -1.17219e-15 0)
(3 -9.45493e-16 0)
(3 -6.03614e-16 0)
(3 -1.55325e-16 0)
(3 3.21074e-16 0)
(3 1.69244e-15 0)
(3 1.91744e-15 0)
(3 1.28804e-15 0)
(3 3.47794e-17 0)
(3 -5.3854e-16 0)
(3 -9.15377e-16 0)
(3 -4.95088e-16 0)
(1.9881 0.00467841 0)
(0.81298 0.00764334 0)
(0.733394 0.00421961 0)
(0.723056 0.00503619 0)
(0.709601 0.00522243 0)
(0.696556 0.00590287 0)
(0.682 0.00690258 0)
(0.665662 0.00811152 0)
(0.647407 0.00888351 0)
(0.628498 0.00847939 0)
(0.610915 0.00718662 0)
(0.595368 0.00619482 0)
(0.580883 0.00612262 0)
(0.565861 0.00683997 0)
(0.548926 0.00790646 0)
(0.529915 0.00853416 0)
(0.51064 0.00805693 0)
(0.493413 0.00698135 0)
(0.47869 0.00635393 0)
(0.465229 0.00650398 0)
(0.451585 0.00702981 0)
(0.437148 0.00723507 0)
(0.422332 0.00695871 0)
(0.407511 0.00679432 0)
(0.392496 0.00706191 0)
(0.377249 0.0074899 0)
(0.361923 0.00787718 0)
(0.346434 0.00820572 0)
(0.330304 0.00847929 0)
(0.313263 0.00856837 0)
(0.2956 0.00856426 0)
(0.277787 0.00863508 0)
(0.25994 0.00872499 0)
(0.242503 0.00869255 0)
(0.225143 0.00861976 0)
(0.207432 0.00861171 0)
(0.190084 0.00870999 0)
(0.172447 0.00887827 0)
(0.154486 0.00910497 0)
(0.135897 0.00934911 0)
(0.116251 0.00957728 0)
(0.0954575 0.00983547 0)
(0.0740708 0.0101714 0)
(0.0525552 0.0105338 0)
(0.0309266 0.0107576 0)
(0.0109937 0.0109601 0)
(3 -3.44109e-16 0)
(3 -4.50055e-16 0)
(3 -6.20045e-16 0)
(3 -1.69198e-16 0)
(3 2.28903e-17 0)
(3 3.38099e-17 0)
(3 8.40293e-16 0)
(3 1.00114e-15 0)
(3 1.21501e-15 0)
(3 1.16553e-15 0)
(3 1.07559e-15 0)
(3 4.63356e-16 0)
(3 -5.37677e-16 0)
(3 -6.74832e-16 0)
(3 -3.28007e-16 0)
(3 -2.15187e-16 0)
(3 -1.60021e-15 0)
(3 -2.45909e-15 0)
(3 -1.19379e-15 0)
(3 -4.46802e-16 0)
(3 -5.11543e-16 0)
(3 -1.15001e-15 0)
(3 -1.42206e-15 0)
(3 -1.25657e-15 0)
(3 -1.6904e-15 0)
(3 -2.8048e-15 0)
(3 -2.58495e-15 0)
(3 -8.42815e-16 0)
(3 2.08463e-16 0)
(3 -5.96857e-17 0)
(3 -5.2895e-16 0)
(3 -1.12322e-15 0)
(3 -8.9901e-16 0)
(3 -6.36659e-16 0)
(3 -4.48554e-16 0)
(3 -6.68358e-16 0)
(3 -5.27877e-16 0)
(3 -1.18433e-15 0)
(3 -1.72428e-15 0)
(3 -1.45557e-15 0)
(3 -1.0728e-15 0)
(3 -6.46246e-16 0)
(3 4.10983e-16 0)
(3 1.66134e-15 0)
(3 1.84134e-15 0)
(3 1.65239e-15 0)
(3 1.08536e-15 0)
(3 -6.01206e-16 0)
(3 -5.79776e-16 0)
(3 1.20254e-15 0)
(1.99624 0.0203759 0)
(0.812288 0.0273313 0)
(0.730307 0.015736 0)
(0.718634 0.0135243 0)
(0.705331 0.014492 0)
(0.692195 0.0167554 0)
(0.677567 0.0199939 0)
(0.661202 0.0235463 0)
(0.643207 0.0254939 0)
(0.625063 0.0242279 0)
(0.60828 0.0209884 0)
(0.592757 0.018604 0)
(0.57768 0.0184962 0)
(0.56198 0.0204604 0)
(0.544619 0.0232529 0)
(0.525645 0.0246833 0)
(0.506937 0.02323 0)
(0.490389 0.0203624 0)
(0.475991 0.0187287 0)
(0.462726 0.0191956 0)
(0.449319 0.0207374 0)
(0.435021 0.0213725 0)
(0.420194 0.0206406 0)
(0.405111 0.0201878 0)
(0.389731 0.0209214 0)
(0.37416 0.0221254 0)
(0.358617 0.0232601 0)
(0.343045 0.0243526 0)
(0.32692 0.0253699 0)
(0.309892 0.0258259 0)
(0.29225 0.0258999 0)
(0.274474 0.0260624 0)
(0.256753 0.0262318 0)
(0.239519 0.026096 0)
(0.222425 0.0259545 0)
(0.204952 0.0260479 0)
(0.18785 0.0264052 0)
(0.170412 0.0268418 0)
(0.152647 0.027355 0)
(0.134308 0.0278443 0)
(0.115064 0.0284203 0)
(0.094807 0.0292479 0)
(0.0739307 0.0303977 0)
(0.0527891 0.0317805 0)
(0.0313412 0.0327022 0)
(0.0110736 0.0335906 0)
(3 5.72056e-17 0)
(3 -3.22424e-16 0)
(3 -2.69213e-16 0)
(3 -2.83782e-16 0)
(3 -1.28722e-16 0)
(3 -1.76741e-16 0)
(3 1.70749e-16 0)
(3 2.28203e-16 0)
(3 3.04073e-16 0)
(3 5.38466e-16 0)
(3 3.10898e-16 0)
(3 -4.36436e-16 0)
(3 -6.61404e-16 0)
(3 -5.31883e-16 0)
(3 1.35109e-17 0)
(3 7.93772e-16 0)
(3 1.20202e-16 0)
(3 -7.15158e-16 0)
(3 -4.99471e-16 0)
(3 -8.35333e-17 0)
(3 -1.35705e-15 0)
(3 -2.12437e-15 0)
(3 -3.17733e-15 0)
(3 -2.79554e-15 0)
(3 -2.54104e-15 0)
(3 -1.60002e-15 0)
(3 -1.04359e-15 0)
(3 -7.62105e-16 0)
(3 -6.0156e-16 0)
(3 -1.40831e-16 0)
(3 -3.56155e-16 0)
(3 -1.35573e-15 0)
(3 -1.18515e-15 0)
(3 -6.22006e-16 0)
(3 -3.15133e-16 0)
(3 3.29867e-16 0)
(3 -5.23648e-17 0)
(3 -6.55151e-16 0)
(3 -1.08204e-15 0)
(3 -1.12052e-15 0)
(3 -1.20325e-15 0)
(3 -2.45583e-16 0)
(3 3.60213e-16 0)
(3 4.52314e-16 0)
(3 6.72887e-17 0)
(3 -2.80919e-16 0)
(3 -1.4466e-17 0)
(3 -8.5646e-16 0)
(3 -1.29282e-15 0)
(3 -1.14983e-15 0)
(2.02651 0.0358208 0)
(0.818548 0.0451633 0)
(0.734888 0.0279472 0)
(0.72044 0.0248867 0)
(0.70496 0.0255967 0)
(0.690523 0.0288294 0)
(0.675202 0.0338911 0)
(0.658572 0.0392711 0)
(0.640823 0.0416564 0)
(0.62368 0.0392199 0)
(0.607943 0.0344458 0)
(0.592529 0.0313617 0)
(0.576837 0.031753 0)
(0.560308 0.035159 0)
(0.542244 0.0393912 0)
(0.522996 0.0409646 0)
(0.504697 0.0381768 0)
(0.488762 0.0336271 0)
(0.474625 0.031186 0)
(0.461582 0.0320688 0)
(0.448536 0.0345992 0)
(0.434476 0.0356956 0)
(0.419711 0.0347026 0)
(0.404351 0.0341151 0)
(0.388473 0.0352948 0)
(0.37233 0.0371057 0)
(0.356245 0.0387306 0)
(0.340276 0.0403746 0)
(0.323891 0.0420441 0)
(0.306627 0.0428864 0)
(0.288768 0.0430905 0)
(0.270797 0.0433374 0)
(0.252996 0.0435168 0)
(0.235765 0.0431997 0)
(0.218772 0.0429539 0)
(0.201399 0.0431553 0)
(0.18438 0.0437541 0)
(0.166984 0.0444416 0)
(0.149322 0.0452558 0)
(0.131256 0.0460683 0)
(0.112588 0.0470383 0)
(0.0931532 0.048497 0)
(0.0730769 0.050441 0)
(0.0525423 0.0526319 0)
(0.0314883 0.0540737 0)
(0.0110713 0.0554667 0)
(3 3.7399e-16 0)
(3 3.31846e-16 0)
(3 4.11418e-16 0)
(3 4.33435e-16 0)
(3 -1.533e-16 0)
(3 -2.82284e-16 0)
(3 -5.02881e-16 0)
(3 -7.75921e-16 0)
(3 -2.27883e-16 0)
(3 -2.45905e-16 0)
(3 -9.9543e-16 0)
(3 -1.02377e-15 0)
(3 -6.75142e-16 0)
(3 -1.5219e-16 0)
(3 2.7548e-16 0)
(3 1.07901e-15 0)
(3 1.38513e-15 0)
(3 7.96123e-16 0)
(3 -2.78064e-17 0)
(3 -1.23574e-15 0)
(3 -1.82543e-15 0)
(3 -2.00949e-15 0)
(3 -1.81292e-15 0)
(3 -1.70496e-15 0)
(3 -1.07257e-15 0)
(3 -2.65778e-16 0)
(3 3.49145e-18 0)
(3 -2.11906e-16 0)
(3 -7.84931e-17 0)
(3 4.95979e-16 0)
(3 2.46971e-16 0)
(3 -1.01774e-15 0)
(3 -2.45732e-15 0)
(3 -2.62492e-15 0)
(3 -1.38264e-15 0)
(3 4.43978e-16 0)
(3 1.46344e-16 0)
(3 -1.28088e-15 0)
(3 -1.15101e-15 0)
(3 -1.2789e-15 0)
(3 -1.10445e-15 0)
(3 2.04658e-16 0)
(3 5.74138e-16 0)
(3 -5.64465e-16 0)
(3 -4.05901e-16 0)
(3 -2.77768e-16 0)
(3 -4.36714e-16 0)
(3 -6.31112e-16 0)
(3 -8.92009e-16 0)
(3 -2.08745e-15 0)
(2.07014 0.0473286 0)
(0.825787 0.0596227 0)
(0.739568 0.0407596 0)
(0.724787 0.0369118 0)
(0.708012 0.0374202 0)
(0.692416 0.0416695 0)
(0.676171 0.0484318 0)
(0.659051 0.0550188 0)
(0.641549 0.0568799 0)
(0.625518 0.0529762 0)
(0.610547 0.0471657 0)
(0.595001 0.0441018 0)
(0.578699 0.0455419 0)
(0.561443 0.0506109 0)
(0.542768 0.0559557 0)
(0.523437 0.0570255 0)
(0.505754 0.0526895 0)
(0.490403 0.0466544 0)
(0.476386 0.0435663 0)
(0.463435 0.0448503 0)
(0.450663 0.048321 0)
(0.436719 0.0500234 0)
(0.421889 0.0489934 0)
(0.40614 0.0484815 0)
(0.389681 0.0501844 0)
(0.372868 0.0525442 0)
(0.356134 0.0545513 0)
(0.339662 0.0566361 0)
(0.322937 0.0589254 0)
(0.30535 0.0602128 0)
(0.287147 0.0606369 0)
(0.26881 0.0610026 0)
(0.250729 0.0611545 0)
(0.233284 0.0606072 0)
(0.216111 0.0602074 0)
(0.198673 0.0604637 0)
(0.181417 0.0612291 0)
(0.163776 0.0620644 0)
(0.145983 0.0630858 0)
(0.127996 0.0641178 0)
(0.109844 0.0654182 0)
(0.0912367 0.0674575 0)
(0.0719803 0.0701154 0)
(0.0520874 0.0730379 0)
(0.031467 0.0749467 0)
(0.0109913 0.0767791 0)
(3 -9.38881e-17 0)
(3 4.00945e-17 0)
(3 -1.02092e-16 0)
(3 -1.15114e-16 0)
(3 -7.7955e-17 0)
(3 -3.2939e-16 0)
(3 -9.38759e-16 0)
(3 -9.29573e-16 0)
(3 -5.71016e-16 0)
(3 -3.68037e-16 0)
(3 -1.16284e-15 0)
(3 -1.43784e-15 0)
(3 -1.01227e-15 0)
(3 -5.67418e-16 0)
(3 -3.18752e-16 0)
(3 3.39682e-16 0)
(3 8.4988e-16 0)
(3 8.42216e-16 0)
(3 -4.30035e-16 0)
(3 -8.66285e-16 0)
(3 -1.02626e-15 0)
(3 -1.4194e-15 0)
(3 -1.22985e-15 0)
(3 -8.18973e-16 0)
(3 -8.56365e-16 0)
(3 -5.44779e-16 0)
(3 -2.23397e-16 0)
(3 2.76018e-16 0)
(3 8.39618e-16 0)
(3 1.27266e-15 0)
(3 8.44895e-16 0)
(3 -7.47934e-16 0)
(3 -1.38326e-15 0)
(3 -9.27684e-16 0)
(3 2.07334e-16 0)
(3 4.95394e-16 0)
(3 -5.81485e-16 0)
(3 -2.17884e-15 0)
(3 -1.94384e-15 0)
(3 -5.60484e-16 0)
(3 -2.7949e-16 0)
(3 -5.63732e-16 0)
(3 -4.99063e-16 0)
(3 -3.55859e-16 0)
(3 -9.1673e-17 0)
(3 5.42931e-16 0)
(3 4.14013e-16 0)
(3 5.44954e-16 0)
(3 9.16302e-16 0)
(3 1.89768e-16 0)
(2.12354 0.0588396 0)
(0.831819 0.0733538 0)
(0.741147 0.053182 0)
(0.726235 0.0499044 0)
(0.708264 0.0504834 0)
(0.691375 0.0555694 0)
(0.674245 0.0635409 0)
(0.6571 0.0702704 0)
(0.640814 0.0708464 0)
(0.626631 0.0657613 0)
(0.612493 0.0596869 0)
(0.596793 0.057291 0)
(0.579903 0.0601283 0)
(0.562055 0.0667656 0)
(0.543136 0.07249 0)
(0.524478 0.0723165 0)
(0.508195 0.0664111 0)
(0.493905 0.0592368 0)
(0.480255 0.0557143 0)
(0.467434 0.0574188 0)
(0.454828 0.0618415 0)
(0.440803 0.0642879 0)
(0.425679 0.063508 0)
(0.409442 0.0632334 0)
(0.392408 0.0654457 0)
(0.374997 0.068287 0)
(0.357725 0.0705327 0)
(0.340884 0.0729566 0)
(0.323972 0.0758438 0)
(0.306191 0.0776466 0)
(0.2877 0.078404 0)
(0.268973 0.0789687 0)
(0.250518 0.0791283 0)
(0.232745 0.0783857 0)
(0.215258 0.0778548 0)
(0.197563 0.0781453 0)
(0.179855 0.0790454 0)
(0.161696 0.0799554 0)
(0.143554 0.0810989 0)
(0.125388 0.0823031 0)
(0.107547 0.083814 0)
(0.0895324 0.0863218 0)
(0.0708709 0.0894841 0)
(0.0514852 0.0929351 0)
(0.0312563 0.0951575 0)
(0.010846 0.0973268 0)
(3 -2.94725e-17 0)
(3 -3.08653e-17 0)
(3 -2.12322e-16 0)
(3 -3.32548e-16 0)
(3 -1.842e-16 0)
(3 -4.53968e-16 0)
(3 -8.57267e-16 0)
(3 -4.99628e-16 0)
(3 -4.79365e-16 0)
(3 -8.14863e-16 0)
(3 -6.45702e-16 0)
(3 1.08642e-16 0)
(3 -2.64709e-16 0)
(3 -3.55388e-16 0)
(3 -2.85698e-16 0)
(3 -1.4823e-16 0)
(3 4.08768e-16 0)
(3 2.83751e-16 0)
(3 -1.58825e-16 0)
(3 -6.61346e-16 0)
(3 -1.02247e-15 0)
(3 -9.11715e-16 0)
(3 -6.1143e-16 0)
(3 7.49449e-16 0)
(3 1.21465e-15 0)
(3 9.65706e-16 0)
(3 5.38396e-16 0)
(3 9.97571e-16 0)
(3 1.37869e-15 0)
(3 1.24106e-15 0)
(3 9.29322e-16 0)
(3 5.62462e-16 0)
(3 8.1595e-16 0)
(3 9.48844e-16 0)
(3 5.13485e-16 0)
(3 4.02085e-16 0)
(3 7.19832e-17 0)
(3 2.35019e-16 0)
(3 -3.62082e-16 0)
(3 -8.29024e-16 0)
(3 -1.43412e-15 0)
(3 -2.41081e-15 0)
(3 -2.91634e-15 0)
(3 -2.11337e-15 0)
(3 -7.26805e-16 0)
(3 -4.92418e-16 0)
(3 -1.56919e-16 0)
(3 -5.68713e-17 0)
(3 6.82114e-16 0)
(3 6.14267e-16 0)
(2.19574 0.0703014 0)
(0.841852 0.087072 0)
(0.743769 0.0647841 0)
(0.728413 0.0631175 0)
(0.709235 0.0645139 0)
(0.690973 0.0706309 0)
(0.673111 0.0790439 0)
(0.656474 0.0844336 0)
(0.642133 0.0830771 0)
(0.629462 0.0773905 0)
(0.615285 0.0721473 0)
(0.598835 0.0712381 0)
(0.580915 0.0757751 0)
(0.562333 0.0834959 0)
(0.543524 0.0883795 0)
(0.526372 0.086256 0)
(0.512121 0.078901 0)
(0.499015 0.0710735 0)
(0.485625 0.0675352 0)
(0.472617 0.0698953 0)
(0.459674 0.0754365 0)
(0.445067 0.0788927 0)
(0.429283 0.0785373 0)
(0.412421 0.078563 0)
(0.394842 0.0812347 0)
(0.376957 0.0844001 0)
(0.359317 0.0867255 0)
(0.342287 0.0893739 0)
(0.325378 0.0928286 0)
(0.307586 0.0952059 0)
(0.288949 0.0963914 0)
(0.26992 0.0972179 0)
(0.251138 0.0974184 0)
(0.233085 0.0965224 0)
(0.215343 0.0958789 0)
(0.197424 0.0961959 0)
(0.179314 0.0972143 0)
(0.160855 0.0981985 0)
(0.142286 0.099408 0)
(0.12395 0.100809 0)
(0.106175 0.102472 0)
(0.0884447 0.105227 0)
(0.0700946 0.108658 0)
(0.0509729 0.112422 0)
(0.0309845 0.114817 0)
(0.0106952 0.11726 0)
(3 3.39548e-17 0)
(3 6.44293e-16 0)
(3 4.893e-16 0)
(3 1.09978e-16 0)
(3 1.08594e-16 0)
(3 1.56037e-16 0)
(3 2.87105e-16 0)
(3 3.56916e-16 0)
(3 -4.71265e-16 0)
(3 -8.20793e-16 0)
(3 -4.15443e-17 0)
(3 3.92e-16 0)
(3 1.20515e-17 0)
(3 -1.38955e-16 0)
(3 -2.8986e-16 0)
(3 -7.36598e-16 0)
(3 -1.40722e-15 0)
(3 -1.40646e-15 0)
(3 -1.14753e-15 0)
(3 -1.39255e-15 0)
(3 -9.74121e-16 0)
(3 -3.00726e-17 0)
(3 5.35123e-16 0)
(3 1.03368e-15 0)
(3 1.33643e-15 0)
(3 1.0983e-15 0)
(3 7.0581e-16 0)
(3 1.04233e-15 0)
(3 1.10999e-15 0)
(3 3.76447e-16 0)
(3 2.22554e-16 0)
(3 2.82405e-16 0)
(3 1.74423e-16 0)
(3 -1.73184e-16 0)
(3 2.173e-16 0)
(3 4.3268e-16 0)
(3 9.41642e-16 0)
(3 2.38723e-15 0)
(3 1.84307e-15 0)
(3 -2.04984e-16 0)
(3 -3.38234e-15 0)
(3 -4.10413e-15 0)
(3 -3.49829e-15 0)
(3 -2.34227e-15 0)
(3 6.50642e-16 0)
(3 4.38821e-16 0)
(3 2.7612e-16 0)
(3 -1.42091e-16 0)
(3 9.58763e-16 0)
(3 3.62054e-17 0)
(2.2847 0.07997 0)
(0.855663 0.100542 0)
(0.745708 0.0767807 0)
(0.729493 0.0770137 0)
(0.709392 0.0797349 0)
(0.690535 0.0866043 0)
(0.673111 0.0940228 0)
(0.658231 0.0967608 0)
(0.645924 0.093718 0)
(0.633194 0.0888437 0)
(0.617887 0.0856018 0)
(0.600005 0.086753 0)
(0.580832 0.0927475 0)
(0.561938 0.100274 0)
(0.544368 0.10282 0)
(0.529932 0.0983537 0)
(0.517644 0.0900337 0)
(0.505092 0.0823823 0)
(0.491423 0.0795412 0)
(0.477702 0.0829245 0)
(0.463882 0.0896978 0)
(0.448407 0.0941273 0)
(0.431937 0.0941516 0)
(0.414595 0.0943702 0)
(0.396666 0.0973491 0)
(0.37848 0.100722 0)
(0.360587 0.103052 0)
(0.343416 0.105886 0)
(0.326556 0.109929 0)
(0.308838 0.112957 0)
(0.290193 0.114635 0)
(0.271036 0.115731 0)
(0.252094 0.115947 0)
(0.233923 0.114894 0)
(0.216082 0.114144 0)
(0.198064 0.114495 0)
(0.179747 0.115638 0)
(0.161091 0.116715 0)
(0.142236 0.118021 0)
(0.123685 0.119591 0)
(0.105785 0.121387 0)
(0.0880186 0.124226 0)
(0.0696524 0.127741 0)
(0.0505601 0.131677 0)
(0.0306685 0.134151 0)
(0.0105522 0.136852 0)
(3 -1.04866e-16 0)
(3 -1.97632e-16 0)
(3 -2.16489e-16 0)
(3 -5.68308e-16 0)
(3 -6.53626e-16 0)
(3 -3.26976e-16 0)
(3 8.23976e-17 0)
(3 2.01717e-16 0)
(3 3.07078e-16 0)
(3 1.01467e-15 0)
(3 6.14566e-16 0)
(3 5.52593e-16 0)
(3 6.51365e-16 0)
(3 1.49537e-16 0)
(3 -5.89515e-16 0)
(3 -1.78532e-15 0)
(3 -1.9849e-15 0)
(3 -2.04977e-15 0)
(3 -1.77821e-15 0)
(3 -1.30408e-15 0)
(3 -4.24917e-16 0)
(3 8.79057e-16 0)
(3 1.11598e-15 0)
(3 7.8002e-16 0)
(3 2.50211e-16 0)
(3 1.42869e-17 0)
(3 -3.08834e-16 0)
(3 -1.47462e-16 0)
(3 -2.19736e-16 0)
(3 -4.09815e-16 0)
(3 -5.57747e-16 0)
(3 -5.98147e-16 0)
(3 -9.84913e-16 0)
(3 -5.39155e-16 0)
(3 4.60092e-16 0)
(3 1.07533e-15 0)
(3 1.87606e-15 0)
(3 2.16428e-15 0)
(3 7.59537e-16 0)
(3 6.899e-17 0)
(3 -2.97814e-15 0)
(3 -3.3905e-15 0)
(3 -2.66708e-15 0)
(3 -1.8432e-15 0)
(3 -9.99526e-16 0)
(3 5.33484e-16 0)
(3 1.78868e-15 0)
(3 2.54428e-15 0)
(3 3.63517e-15 0)
(3 6.17991e-15 0)
(2.38898 0.0858131 0)
(0.873702 0.113552 0)
(0.74729 0.0898674 0)
(0.729774 0.0915881 0)
(0.709421 0.095511 0)
(0.691376 0.102261 0)
(0.675608 0.107173 0)
(0.662828 0.106908 0)
(0.650699 0.104131 0)
(0.636595 0.101442 0)
(0.61966 0.100765 0)
(0.600441 0.103805 0)
(0.580905 0.110267 0)
(0.563092 0.1158 0)
(0.548157 0.114939 0)
(0.536014 0.10863 0)
(0.524175 0.100501 0)
(0.511245 0.0939117 0)
(0.496883 0.0922338 0)
(0.482274 0.0967379 0)
(0.467609 0.104595 0)
(0.451488 0.109746 0)
(0.434614 0.110011 0)
(0.416986 0.110369 0)
(0.398793 0.113624 0)
(0.380292 0.117208 0)
(0.362034 0.119566 0)
(0.344541 0.122599 0)
(0.32757 0.127253 0)
(0.309879 0.130974 0)
(0.29131 0.133134 0)
(0.272249 0.134421 0)
(0.253372 0.134549 0)
(0.235276 0.13329 0)
(0.217473 0.13245 0)
(0.199443 0.132894 0)
(0.181103 0.134231 0)
(0.162247 0.135472 0)
(0.143234 0.136953 0)
(0.124366 0.13869 0)
(0.106178 0.140568 0)
(0.0880735 0.143368 0)
(0.069427 0.146846 0)
(0.0501921 0.150881 0)
(0.03031 0.153387 0)
(0.010417 0.156357 0)
(3 5.17845e-17 0)
(3 -5.40133e-16 0)
(3 -5.98676e-16 0)
(3 -6.95165e-16 0)
(3 -9.48233e-16 0)
(3 -1.09675e-15 0)
(3 -9.90226e-16 0)
(3 -4.5917e-16 0)
(3 1.29722e-16 0)
(3 1.36437e-15 0)
(3 1.54105e-15 0)
(3 9.98731e-16 0)
(3 9.70547e-16 0)
(3 6.47815e-16 0)
(3 1.2178e-16 0)
(3 -3.11011e-16 0)
(3 4.54391e-17 0)
(3 2.37185e-16 0)
(3 -4.45187e-17 0)
(3 2.66254e-16 0)
(3 1.04203e-15 0)
(3 1.00504e-15 0)
(3 8.49999e-16 0)
(3 4.02914e-16 0)
(3 -1.7994e-17 0)
(3 -2.15596e-17 0)
(3 -2.40886e-16 0)
(3 -6.08272e-16 0)
(3 -1.17824e-15 0)
(3 -1.24996e-15 0)
(3 -1.74922e-15 0)
(3 -2.25216e-15 0)
(3 -1.59663e-15 0)
(3 1.6943e-16 0)
(3 1.06132e-15 0)
(3 1.16685e-15 0)
(3 1.76955e-15 0)
(3 1.08041e-15 0)
(3 8.69153e-16 0)
(3 8.51704e-16 0)
(3 1.7812e-16 0)
(3 -6.25526e-16 0)
(3 -1.04149e-15 0)
(3 -1.40263e-15 0)
(3 -1.28662e-15 0)
(3 -8.90924e-16 0)
(3 -2.37634e-16 0)
(3 1.6409e-15 0)
(3 3.31563e-15 0)
(3 2.70853e-15 0)
(2.50314 0.0882849 0)
(0.895604 0.127189 0)
(0.747918 0.104849 0)
(0.729205 0.106293 0)
(0.70985 0.110579 0)
(0.693737 0.116038 0)
(0.679918 0.118096 0)
(0.667589 0.117102 0)
(0.654203 0.116053 0)
(0.638467 0.115912 0)
(0.620353 0.117334 0)
(0.601136 0.121244 0)
(0.583245 0.126599 0)
(0.567962 0.128617 0)
(0.55524 0.125048 0)
(0.543035 0.118859 0)
(0.530322 0.111823 0)
(0.516355 0.106564 0)
(0.500987 0.106063 0)
(0.485351 0.111545 0)
(0.469825 0.120188 0)
(0.453181 0.125722 0)
(0.436122 0.126074 0)
(0.418465 0.12653 0)
(0.400338 0.130035 0)
(0.381881 0.133841 0)
(0.363562 0.136271 0)
(0.345943 0.139513 0)
(0.328991 0.144777 0)
(0.311457 0.149204 0)
(0.293138 0.151789 0)
(0.274407 0.153141 0)
(0.255802 0.153042 0)
(0.237886 0.151514 0)
(0.220138 0.150626 0)
(0.202058 0.151277 0)
(0.183674 0.152935 0)
(0.164646 0.154455 0)
(0.145459 0.156195 0)
(0.126164 0.158099 0)
(0.107515 0.160001 0)
(0.0888274 0.162705 0)
(0.0696803 0.1661 0)
(0.050138 0.17024 0)
(0.0301235 0.172776 0)
(0.010358 0.176035 0)
(3 -1.7109e-16 0)
(3 -4.33525e-16 0)
(3 -1.97769e-16 0)
(3 -1.90596e-16 0)
(3 -5.21367e-16 0)
(3 -7.45849e-16 0)
(3 -8.65579e-16 0)
(3 -9.1437e-16 0)
(3 -9.01077e-16 0)
(3 -4.43758e-16 0)
(3 9.36576e-16 0)
(3 5.08161e-16 0)
(3 1.43536e-16 0)
(3 3.2071e-16 0)
(3 1.12424e-15 0)
(3 1.3011e-15 0)
(3 1.10752e-15 0)
(3 1.4271e-15 0)
(3 1.10156e-15 0)
(3 1.29644e-15 0)
(3 1.74856e-15 0)
(3 8.96047e-16 0)
(3 -2.52105e-16 0)
(3 -1.46333e-15 0)
(3 -1.72089e-15 0)
(3 -1.42386e-15 0)
(3 -9.88314e-16 0)
(3 -1.05318e-15 0)
(3 -9.51372e-16 0)
(3 -5.54451e-16 0)
(3 -9.55392e-16 0)
(3 -1.82817e-15 0)
(3 -1.43282e-15 0)
(3 -1.24275e-16 0)
(3 4.97919e-16 0)
(3 9.20236e-16 0)
(3 8.85479e-16 0)
(3 7.50742e-16 0)
(3 9.81378e-16 0)
(3 8.38375e-16 0)
(3 7.88345e-16 0)
(3 8.10642e-16 0)
(3 -3.70936e-18 0)
(3 -7.41544e-16 0)
(3 -4.89578e-16 0)
(3 4.50842e-16 0)
(3 8.35913e-16 0)
(3 1.19689e-15 0)
(3 1.48608e-15 0)
(3 -1.74377e-15 0)
(2.62108 0.0887609 0)
(0.921495 0.142672 0)
(0.748501 0.121315 0)
(0.730089 0.120511 0)
(0.712546 0.124227 0)
(0.697902 0.127846 0)
(0.684464 0.128817 0)
(0.670845 0.128888 0)
(0.655803 0.129637 0)
(0.63918 0.131283 0)
(0.62164 0.133822 0)
(0.604746 0.137182 0)
(0.589854 0.139774 0)
(0.576729 0.138763 0)
(0.563793 0.135401 0)
(0.550286 0.13027 0)
(0.536227 0.124414 0)
(0.521137 0.120342 0)
(0.504867 0.120886 0)
(0.48843 0.127147 0)
(0.472248 0.136227 0)
(0.455257 0.141771 0)
(0.438167 0.142031 0)
(0.420599 0.14253 0)
(0.402677 0.146264 0)
(0.384408 0.150333 0)
(0.366127 0.152919 0)
(0.348386 0.156404 0)
(0.331384 0.162281 0)
(0.313926 0.167449 0)
(0.295792 0.170455 0)
(0.277361 0.171801 0)
(0.259017 0.171404 0)
(0.241195 0.169609 0)
(0.223363 0.168755 0)
(0.205069 0.169755 0)
(0.186494 0.171897 0)
(0.16725 0.173806 0)
(0.147814 0.175841 0)
(0.128042 0.177873 0)
(0.108859 0.179719 0)
(0.0895519 0.182305 0)
(0.0699026 0.185608 0)
(0.0500786 0.189891 0)
(0.0299462 0.192481 0)
(0.0103041 0.196046 0)
(3 -3.27392e-16 0)
(3 -2.64203e-16 0)
(3 -2.40608e-16 0)
(3 -1.06266e-16 0)
(3 -4.48076e-16 0)
(3 -1.01468e-15 0)
(3 -8.6314e-16 0)
(3 -8.34245e-16 0)
(3 -8.03244e-16 0)
(3 -7.59e-16 0)
(3 2.36171e-16 0)
(3 6.75999e-16 0)
(3 1.23753e-16 0)
(3 -1.16709e-16 0)
(3 8.56058e-17 0)
(3 3.9469e-16 0)
(3 1.52471e-16 0)
(3 -3.81307e-17 0)
(3 7.01259e-16 0)
(3 1.24362e-15 0)
(3 1.18245e-15 0)
(3 4.30729e-16 0)
(3 1.7265e-16 0)
(3 -6.03377e-16 0)
(3 -9.66278e-16 0)
(3 -1.09882e-15 0)
(3 -9.35739e-16 0)
(3 -5.41142e-16 0)
(3 -2.95399e-17 0)
(3 1.78944e-16 0)
(3 4.16334e-16 0)
(3 3.35939e-16 0)
(3 -5.5903e-17 0)
(3 -9.88441e-17 0)
(3 1.8921e-17 0)
(3 6.70701e-16 0)
(3 3.765e-16 0)
(3 6.38972e-16 0)
(3 5.56956e-16 0)
(3 -4.53122e-17 0)
(3 4.3961e-16 0)
(3 4.49718e-16 0)
(3 -3.00772e-16 0)
(3 -8.09045e-16 0)
(3 -4.19706e-16 0)
(3 9.45253e-16 0)
(3 9.74763e-16 0)
(3 1.04933e-15 0)
(3 1.28211e-15 0)
(3 6.09843e-16 0)
(2.73936 0.0877117 0)
(0.954244 0.159747 0)
(0.752327 0.1368 0)
(0.73533 0.133113 0)
(0.718942 0.136163 0)
(0.704311 0.138983 0)
(0.689876 0.140583 0)
(0.674778 0.142158 0)
(0.658721 0.144341 0)
(0.642332 0.146653 0)
(0.626714 0.148537 0)
(0.612619 0.149766 0)
(0.599754 0.1498 0)
(0.586804 0.148831 0)
(0.572606 0.146872 0)
(0.557328 0.143189 0)
(0.541605 0.13844 0)
(0.525208 0.135389 0)
(0.508022 0.136753 0)
(0.490925 0.143565 0)
(0.474175 0.152735 0)
(0.456828 0.157963 0)
(0.439627 0.158016 0)
(0.422065 0.158538 0)
(0.404368 0.162497 0)
(0.386424 0.166869 0)
(0.368362 0.16967 0)
(0.350623 0.173371 0)
(0.333602 0.179789 0)
(0.316184 0.185692 0)
(0.298147 0.189149 0)
(0.279927 0.190512 0)
(0.261827 0.189854 0)
(0.244117 0.187845 0)
(0.226264 0.187071 0)
(0.207821 0.188484 0)
(0.189124 0.191197 0)
(0.169814 0.193538 0)
(0.15019 0.195851 0)
(0.130097 0.197967 0)
(0.110428 0.199694 0)
(0.090605 0.202175 0)
(0.0705117 0.205412 0)
(0.0503916 0.209887 0)
(0.0300415 0.212563 0)
(0.0103404 0.216438 0)
(3 6.73338e-17 0)
(3 4.79608e-17 0)
(3 -1.38652e-16 0)
(3 -2.21332e-16 0)
(3 -2.69156e-16 0)
(3 -2.13561e-16 0)
(3 -2.18909e-16 0)
(3 -3.53953e-16 0)
(3 -4.98767e-16 0)
(3 -2.96809e-16 0)
(3 -2.38602e-16 0)
(3 2.79628e-16 0)
(3 1.04601e-15 0)
(3 4.12908e-16 0)
(3 -3.50732e-16 0)
(3 -3.44552e-16 0)
(3 -5.53961e-16 0)
(3 -9.87017e-16 0)
(3 -4.47184e-16 0)
(3 -2.29015e-16 0)
(3 -3.98971e-16 0)
(3 -3.46459e-16 0)
(3 -3.61975e-16 0)
(3 -4.8951e-16 0)
(3 -6.82397e-16 0)
(3 -2.30076e-16 0)
(3 -1.08056e-16 0)
(3 -1.35755e-16 0)
(3 1.50518e-16 0)
(3 1.0308e-16 0)
(3 2.84818e-16 0)
(3 1.37322e-15 0)
(3 1.92377e-15 0)
(3 6.46871e-16 0)
(3 2.57311e-16 0)
(3 -4.89206e-16 0)
(3 -7.22797e-16 0)
(3 2.76051e-16 0)
(3 1.02372e-15 0)
(3 1.26377e-15 0)
(3 8.2418e-16 0)
(3 4.64319e-16 0)
(3 -4.73915e-16 0)
(3 -3.07983e-16 0)
(3 7.68609e-17 0)
(3 1.98961e-16 0)
(3 6.82909e-17 0)
(3 -2.40434e-17 0)
(3 2.36438e-16 0)
(3 1.881e-16 0)
(2.85574 0.0805706 0)
(0.997607 0.172831 0)
(0.759695 0.149159 0)
(0.744312 0.144528 0)
(0.728026 0.147799 0)
(0.712664 0.150776 0)
(0.697269 0.153302 0)
(0.681418 0.155993 0)
(0.665243 0.158649 0)
(0.649559 0.160113 0)
(0.635317 0.160064 0)
(0.622282 0.159726 0)
(0.609376 0.15971 0)
(0.595361 0.160153 0)
(0.579546 0.160111 0)
(0.56248 0.157916 0)
(0.54517 0.15411 0)
(0.527702 0.151719 0)
(0.509921 0.153542 0)
(0.492565 0.160542 0)
(0.475699 0.169429 0)
(0.458416 0.174085 0)
(0.441442 0.173864 0)
(0.424163 0.174418 0)
(0.406937 0.178599 0)
(0.389531 0.183306 0)
(0.371838 0.186382 0)
(0.354163 0.190272 0)
(0.337069 0.197131 0)
(0.319575 0.203721 0)
(0.301459 0.207657 0)
(0.28329 0.209089 0)
(0.265347 0.208258 0)
(0.247769 0.206108 0)
(0.23002 0.205442 0)
(0.211528 0.207278 0)
(0.192791 0.210615 0)
(0.173462 0.21342 0)
(0.153542 0.216022 0)
(0.133153 0.218266 0)
(0.112907 0.219937 0)
(0.0925671 0.222396 0)
(0.0719761 0.225641 0)
(0.0514161 0.23038 0)
(0.0306157 0.233197 0)
(0.0105239 0.23739 0)
(3 7.517e-17 0)
(3 2.65029e-16 0)
(3 1.176e-16 0)
(3 -2.03184e-16 0)
(3 1.78022e-17 0)
(3 2.17166e-16 0)
(3 4.60359e-16 0)
(3 2.566e-16 0)
(3 -3.39698e-16 0)
(3 -3.4126e-16 0)
(3 3.32233e-17 0)
(3 4.36479e-16 0)
(3 1.79691e-15 0)
(3 1.94902e-15 0)
(3 9.88296e-16 0)
(3 -3.25962e-17 0)
(3 -9.81303e-16 0)
(3 -9.45944e-16 0)
(3 -6.37279e-16 0)
(3 -1.62182e-15 0)
(3 -1.19156e-15 0)
(3 -6.51634e-16 0)
(3 -5.97468e-16 0)
(3 1.50822e-16 0)
(3 6.93519e-16 0)
(3 1.10408e-15 0)
(3 5.16646e-16 0)
(3 -1.52998e-16 0)
(3 -4.34241e-16 0)
(3 -3.2107e-17 0)
(3 9.84382e-16 0)
(3 1.58177e-15 0)
(3 1.70813e-15 0)
(3 9.57475e-16 0)
(3 1.23322e-16 0)
(3 -9.36672e-16 0)
(3 -1.78709e-15 0)
(3 -9.40199e-16 0)
(3 6.26953e-16 0)
(3 1.43379e-15 0)
(3 1.26688e-15 0)
(3 1.40449e-15 0)
(3 5.33528e-16 0)
(3 1.50083e-15 0)
(3 1.81574e-15 0)
(3 1.42739e-15 0)
(3 1.23032e-15 0)
(3 9.47635e-16 0)
(3 3.39275e-16 0)
(3 -1.27689e-16 0)
(2.94882 0.0424208 0)
(1.04207 0.186645 0)
(0.767155 0.158037 0)
(0.753192 0.155227 0)
(0.737205 0.160124 0)
(0.721327 0.163299 0)
(0.705613 0.166338 0)
(0.689472 0.169631 0)
(0.673021 0.172336 0)
(0.657083 0.172891 0)
(0.642467 0.171858 0)
(0.628751 0.171268 0)
(0.614787 0.171983 0)
(0.599294 0.173934 0)
(0.581772 0.175434 0)
(0.56313 0.174274 0)
(0.544931 0.170713 0)
(0.527442 0.16837 0)
(0.510325 0.170278 0)
(0.493987 0.177202 0)
(0.477929 0.185598 0)
(0.46118 0.189666 0)
(0.444523 0.189308 0)
(0.427469 0.190055 0)
(0.41062 0.194591 0)
(0.39369 0.19976 0)
(0.376356 0.203206 0)
(0.35876 0.207256 0)
(0.341531 0.214416 0)
(0.323841 0.221577 0)
(0.305459 0.225968 0)
(0.287127 0.227538 0)
(0.269134 0.22669 0)
(0.251555 0.22454 0)
(0.233858 0.22405 0)
(0.215276 0.226305 0)
(0.196585 0.230289 0)
(0.176996 0.233597 0)
(0.156759 0.236501 0)
(0.136044 0.238956 0)
(0.115199 0.240668 0)
(0.0944329 0.243169 0)
(0.0734415 0.246459 0)
(0.0524924 0.25148 0)
(0.0312482 0.254461 0)
(0.0107045 0.258955 0)
(3 -6.16107e-17 0)
(3 -1.41604e-16 0)
(3 -1.7342e-16 0)
(3 -2.0505e-16 0)
(3 -1.39717e-16 0)
(3 -1.62697e-16 0)
(3 3.66043e-16 0)
(3 6.26219e-16 0)
(3 7.17528e-17 0)
(3 -3.75154e-16 0)
(3 -1.56617e-16 0)
(3 9.46986e-17 0)
(3 1.18317e-16 0)
(3 3.7047e-16 0)
(3 4.10533e-16 0)
(3 1.90454e-16 0)
(3 -5.6345e-17 0)
(3 -3.08231e-16 0)
(3 -4.91599e-16 0)
(3 -1.34147e-15 0)
(3 -1.36015e-15 0)
(3 -5.52007e-16 0)
(3 -4.22669e-16 0)
(3 -4.0394e-16 0)
(3 -2.59501e-16 0)
(3 -2.98847e-17 0)
(3 3.06828e-16 0)
(3 4.60864e-16 0)
(3 3.15224e-16 0)
(3 1.2926e-16 0)
(3 8.85259e-16 0)
(3 8.49431e-16 0)
(3 -1.73179e-16 0)
(3 -1.60928e-15 0)
(3 -2.07775e-15 0)
(3 -2.17608e-15 0)
(3 -2.18463e-15 0)
(3 -1.9041e-15 0)
(3 -9.11938e-16 0)
(3 3.04971e-16 0)
(3 1.87916e-15 0)
(3 2.61599e-15 0)
(3 2.19441e-15 0)
(3 2.58639e-15 0)
(3 2.65818e-15 0)
(3 2.28475e-15 0)
(3 1.02148e-15 0)
(3 6.33591e-16 0)
(3 1.03575e-15 0)
(3 5.10215e-16 0)
(2.99644 0.00831869 0)
(1.09478 0.191852 0)
(0.772023 0.166104 0)
(0.753482 0.170494 0)
(0.737183 0.175362 0)
(0.721477 0.177865 0)
(0.706277 0.181045 0)
(0.69033 0.184893 0)
(0.673486 0.187708 0)
(0.656732 0.187536 0)
(0.641243 0.185352 0)
(0.626786 0.183916 0)
(0.612388 0.184805 0)
(0.597123 0.187977 0)
(0.580314 0.190931 0)
(0.562501 0.190611 0)
(0.545215 0.187173 0)
(0.528627 0.184554 0)
(0.512442 0.186268 0)
(0.497113 0.193017 0)
(0.481789 0.201 0)
(0.465501 0.204702 0)
(0.449068 0.204394 0)
(0.432165 0.20546 0)
(0.415588 0.210436 0)
(0.39901 0.216148 0)
(0.381925 0.22006 0)
(0.364314 0.224321 0)
(0.346784 0.231749 0)
(0.328677 0.239425 0)
(0.30976 0.244241 0)
(0.291048 0.245983 0)
(0.272872 0.245242 0)
(0.255286 0.243214 0)
(0.237714 0.242959 0)
(0.219265 0.245603 0)
(0.200706 0.250192 0)
(0.180875 0.254023 0)
(0.160353 0.257281 0)
(0.139206 0.260054 0)
(0.117691 0.26193 0)
(0.0964907 0.264553 0)
(0.0751021 0.267905 0)
(0.0537371 0.273172 0)
(0.0320046 0.276291 0)
(0.0109 0.281025 0)
(3 1.38211e-17 0)
(3 -1.94095e-16 0)
(3 -6.51501e-17 0)
(3 2.02674e-16 0)
(3 2.75097e-16 0)
(3 6.58996e-16 0)
(3 3.28522e-16 0)
(3 -6.57758e-18 0)
(3 2.13264e-17 0)
(3 -7.05539e-17 0)
(3 -3.27411e-16 0)
(3 -8.18848e-17 0)
(3 -1.22707e-16 0)
(3 -8.39473e-16 0)
(3 -6.71826e-17 0)
(3 3.53757e-16 0)
(3 8.53418e-16 0)
(3 1.57638e-16 0)
(3 -1.16458e-15 0)
(3 -1.10357e-15 0)
(3 -8.85201e-16 0)
(3 -1.20128e-15 0)
(3 -1.09933e-15 0)
(3 -1.103e-15 0)
(3 -1.19252e-15 0)
(3 -1.00399e-16 0)
(3 3.37751e-16 0)
(3 8.22911e-16 0)
(3 8.8363e-16 0)
(3 7.29818e-16 0)
(3 1.40704e-15 0)
(3 1.73861e-15 0)
(3 4.7668e-16 0)
(3 -5.74202e-16 0)
(3 -1.51486e-15 0)
(3 -1.35594e-15 0)
(3 -1.06326e-15 0)
(3 -1.56733e-15 0)
(3 -1.02786e-15 0)
(3 3.18414e-16 0)
(3 2.61863e-15 0)
(3 2.91413e-15 0)
(3 3.06483e-15 0)
(3 2.7404e-15 0)
(3 2.26658e-15 0)
(3 2.30469e-15 0)
(3 1.07597e-15 0)
(3 2.32283e-16 0)
(3 6.24407e-16 0)
(3 1.01539e-15 0)
(3.00035 0.000296993 0)
(1.18216 0.203009 0)
(0.767091 0.179737 0)
(0.742411 0.181919 0)
(0.72837 0.185936 0)
(0.714244 0.188762 0)
(0.700303 0.193149 0)
(0.685355 0.198393 0)
(0.669321 0.201868 0)
(0.65329 0.201252 0)
(0.638537 0.198025 0)
(0.624612 0.195858 0)
(0.610697 0.197002 0)
(0.596283 0.201207 0)
(0.58061 0.205453 0)
(0.563927 0.206084 0)
(0.547752 0.202896 0)
(0.532189 0.19998 0)
(0.516904 0.201382 0)
(0.502511 0.207806 0)
(0.487843 0.215358 0)
(0.471836 0.218887 0)
(0.455246 0.218937 0)
(0.438014 0.220665 0)
(0.421109 0.226406 0)
(0.40418 0.232932 0)
(0.3867 0.237514 0)
(0.368676 0.242049 0)
(0.350811 0.249616 0)
(0.332622 0.257539 0)
(0.313904 0.262521 0)
(0.29549 0.264238 0)
(0.27768 0.263562 0)
(0.260314 0.261736 0)
(0.242866 0.261835 0)
(0.224469 0.264961 0)
(0.20582 0.270237 0)
(0.185546 0.274762 0)
(0.164491 0.278528 0)
(0.142624 0.28175 0)
(0.120275 0.283913 0)
(0.0985533 0.286711 0)
(0.076754 0.290094 0)
(0.0549917 0.29551 0)
(0.0328011 0.298691 0)
(0.011099 0.303568 0)
(3 2.34657e-16 0)
(3 4.97012e-16 0)
(3 7.89964e-16 0)