/*--------------------------------*- C++ -*----------------------------------*\
  =========                 |
  \\      /  F ield         | OpenFOAM: The Open Source CFD Toolbox
   \\    /   O peration     | Website:  https://openfoam.org
    \\  /    A nd           | Version:  7
     \\/     M anipulation  |
\*---------------------------------------------------------------------------*/
FoamFile
{
    version     2.0;
    format      ascii;
    class       volScalarField;
    location    "3.5";
    object      p;
}
// * * * * * * * * * * * * * * * * * * * * * * * * * * * * * * * * * * * * * //

dimensions      [1 -1 -2 0 0 0 0];

internalField   nonuniform List<scalar> 
4032
(
1
1
1
1
1
1
1
1
1
1
1
1.18631
7.17317
10.6015
10.7503
10.9584
11.1477
11.3276
11.4928
11.6401
11.7693
11.8715
11.9484
12.0024
1
1
1
1
1
1
1
1
1
1
1
1.15177
7.02395
10.578
10.7382
10.9393
11.1252
11.3016
11.4633
11.6062
11.7295
11.8234
11.8902
11.9369
1
1
1
1
1
1
1
1
1
1
1
1.03029
6.67669
10.5333
10.688
10.8831
11.0663
11.2377
11.3943
11.5323
11.6533
11.7488
11.8177
11.8722
1
1
1
1
1
1
1
1
1
1
1
1.00074
6.15995
10.4277
10.6041
10.794
10.9757
11.1416
11.2933
11.4274
11.5442
11.6313
11.686
11.7251
1
1
1
1
1
1
1
1
1
1
1
1
5.47227
10.262
10.5121
10.69
10.8664
11.0206
11.1574
11.2718
11.3663
11.4386
11.4838
11.5418
1
1
1
1
1
1
1
1
1
1
1
1
4.63711
10.0018
10.4029
10.5665
10.7283
10.863
10.9801
11.0784
11.1599
11.2217
11.2382
11.2034
1
1
1
1
1
1
1
1
1
1
1
1
3.7042
9.59488
10.3013
10.4545
10.5961
10.7014
10.7788
10.833
10.8516
10.815
10.7518
10.7145
1
1
1
1
1
1
1
1
1
1
1
1
2.69033
8.9628
10.2251
10.3468
10.4562
10.5295
10.562
10.5618
10.5135
10.4329
10.3103
10.3037
1
1
1
1
1
1
1
1
1
1
1
1
1.68659
8.06048
10.1912
10.2172
10.3042
10.343
10.3237
10.2629
10.116
9.85112
9.0774
7.20105
1
1
1
1
1
1
1
1
1
1
1
1
1.06237
6.77601
10.1008
9.99557
10.0512
10.0809
10.0354
9.91627
9.67695
9.21015
8.41559
6.34055
1
1
1
1
1
1
1
1
1
1
1
1
1.00027
5.04329
9.54576
9.79398
9.8558
9.82969
9.74094
9.56148
9.25911
8.69658
7.86746
5.91383
1
1
1
1
1
1
1
1
1
1
1
1
0.999996
3.16779
8.80279
9.64094
9.65142
9.62147
9.49747
9.25958
8.89117
8.31702
7.39937
5.82449
1
1
1
1
1
1
1
1
1
1
1
1
0.999999
1.59741
7.7929
9.66961
9.50632
9.38771
9.22523
8.95056
8.54486
7.99393
7.06611
5.84282
1
1
1
1
1
1
1
1
1
1
1
1
1
1.03918
6.00005
9.14019
9.17204
9.11508
8.95508
8.67923
8.28
7.70188
6.86867
5.91475
1
1
1
1
1
1
1
1
1
1
1
1
1
0.999942
3.46885
8.43839
9.07475
8.97776
8.77918
8.46517
8.06156
7.47916
6.76291
5.97816
1
1
1
1
1
1
1
1
1
1
1
1
1
0.999978
1.42207
7.38583
9.14116
8.83762
8.56835
8.22539
7.83826
7.30937
6.70614
6.03378
1
1
1
1
1
1
1
1
1
1
1
1
1
0.999996
1.01665
5.28696
8.59344
8.49371
8.29324
8.00375
7.65001
7.19061
6.66858
6.07324
1
1
1
1
1
1
1
1
1
1
1
1
1
1
0.999909
2.51969
7.81621
8.41322
8.18236
7.89303
7.54143
7.11805
6.64046
6.1133
1
1
1
1
1
1
1
1
1
1
1
1
1
1
0.999977
1.17102
5.88325
8.26515
8.02283
7.77084
7.43892
7.04989
6.61341
6.14615
1
1
1
1
1
1
1
1
1
1
1
1
1
1
0.999996
1.00214
2.93526
7.44801
7.92348
7.67418
7.36002
6.9991
6.60254
6.18352
1
1
1
1
1
1
1
1
1
1
1
1
1
1
1
0.999999
1.26296
5.67872
7.87678
7.62095
7.33631
6.98773
6.60844
6.21368
1
1
1
1
1
1
1
1
1
1
1
1
1
1
1
1
1.00557
2.63725
7.00066
7.5775
7.28136
6.94625
6.58905
6.22034
1
1
1
1
1
1
1
1
1
1
1
1
1
1
1
1
1.00002
1.19455
5.10191
7.55791
7.24915
6.9254
6.58601
6.24262
1
1
1
1
1
1
1
1
1
1
1
1
1
1
1
1
1
1.00335
2.19939
6.40304
7.20655
6.89314
6.5828
6.25831
1
1
1
1
1
1
1
1
1
1
1
1
1
1
1
1
1
1.00001
1.10367
3.99476
7.02244
6.90992
6.62305
6.31338
1
1
1
1
1
1
1
1
1
1
1
1
1
1
1
1
1
1
1.00137
1.62791
5.49864
6.92268
6.64455
6.33586
1
1
1
1
1
1
1
1
1
1
1
1
1
1
1
1
1
1
1
1.03131
2.70818
6.14452
6.65566
6.37237
1
1
1
1
1
1
1
1
1
1
1
1
1
1
1
1
1
1
1
1.00031
1.20589
4.03751
6.42653
6.43048
1
1
1
1
1
1
1
1
1
1
1
1
1
1
1
1
1
1
1
1
1.00482
1.68758
4.98861
6.37695
1
1
1
1
1
1
1
1
1
1
1
1
1
1
1
1
1
1
1
1
1.00003
1.03852
2.40088
5.52782
1
1
1
1
1
1
1
1
1
1
1
1
1
1
1
1
1
1
1
1
1
1.00047
1.14709
3.23151
1
1
1
1
1
1
1
1
1
1
1
1
1
1
1
1
1
1
1
1
1
1
1.00325
1.37485
1
1
1
1
1
1
1
1
1
1
1
1
1
1
1
1
1
1
1
1
1
1
1.00002
1.01438
1
1
1
1
1
1
1
1
1
1
1
1
1
1
1
1
1
1
1
1
1
1
1
1.00013
1
1
1
1
1
1
1
1
1
1
1
1
1
1
1
1
1
1
1
1
1
1
1
1
1
1
1
1
1
1
1
1
1
1
1
1
1
1
1
1
1
1
1
1
1
1
1
1
1
1
1
1
1
1
1
1
1
1
1
1
1
1
1
1
1
1
1
1
1
1
1
1
1
1
1
1
1
1
1
1
1
1
1
1
1
1
1
1
1
1
1
1
1
1
1
1
1
1
1
1
1
1
1
1
1
1
1
1
1
1
1
1
1
1
1
1
1
1
1
1
1
1
1
1
1
1
1
1
1
1
1
1
1
1
1
1
1
1
1
1
1
1
1
1
1.58379
0.503676
0.161653
0.115052
0.150529
0.245881
0.351051
0.479303
0.668013
0.806812
0.930161
1.01224
1.09834
1.16493
1.2086
1.24266
1.2617
1.26265
1.29155
1.30326
1.30077
1.2889
1.28479
1.27866
1.28342
1.30167
1.32675
1.33985
1.33764
1.95455
4.9619
5.84684
5.93931
5.98758
6.00701
5.99849
5.96934
5.90975
5.84092
5.77445
5.71472
5.6619
5.5992
5.51341
5.4171
5.32762
5.25405
5.19514
5.13436
5.04623
4.93496
4.82894
4.74505
4.69452
4.66491
4.61763
4.52295
4.41496
4.30617
4.22056
4.15364
4.10854
4.07171
4.03081
3.96922
3.88702
3.78036
3.68071
3.6089
3.55194
3.50852
3.47827
3.43554
3.381
3.31044
3.22456
3.15233
3.10327
3.06459
3.03812
3.01907
2.98418
2.93498
2.85659
2.76289
2.70251
2.66603
2.63742
2.62038
2.60342
2.57682
2.54019
2.47513
2.38016
2.3187
2.27609
2.72262
1.48808
0.954742
0.603578
0.526244
0.549464
0.535751
0.518201
0.517707
0.551962
0.623204
0.722526
0.826494
0.934355
1.01985
1.08001
1.13452
1.17968
1.23102
1.25695
1.27073
1.28492
1.29658
1.28657
1.2815
1.29304
1.31514
1.33007
1.32786
1.78657
4.76899
6.06551
6.09754
6.0189
5.99591
5.9754
5.95478
5.89603
5.81701
5.73027
5.65779
5.61484
5.58994
5.53171
5.42168
5.30235
5.19907
5.13056
5.09695
5.06618
4.9907
4.88035
4.76396
4.6595
4.57655
4.51919
4.47925
4.42845
4.35817
4.27296
4.17966
4.09313
4.02339
3.96348
3.91396
3.8621
3.80078
3.73024
3.64494
3.55959
3.49506
3.44399
3.40316
3.36581
3.31451
3.25882
3.19324
3.12463
3.06948
3.02972
2.99074
2.95383
2.91481
2.86114
2.79531
2.72969
2.67811
2.64238
2.61314
2.58283
2.55211
2.51819
2.47355
2.41204
2.34951
2.28637
3.62196
2.3371
1.72853
1.26415
0.951494
0.822358
0.776279
0.698785
0.587293
0.56546
0.601543
0.672982
0.725254
0.778693
0.864309
0.933185
1.00028
1.08358
1.1645
1.23094
1.26423
1.2908
1.31301
1.31504
1.30711
1.3141
1.32163
1.31746
1.32223
1.51494
4.59497
6.48403
6.23597
5.98001
5.92153
5.9287
5.9443
5.93793
5.8828
5.78029
5.67409
5.59808
5.56481
5.54941
5.4831
5.36852
5.2311
5.11663
5.03928
5.00829
4.99151
4.93852
4.8519
4.73189
4.57565
4.45161
4.38477
4.35433
4.34802
4.31707
4.24997
4.15685
4.0266
3.89918
3.82413
3.78154
3.76726
3.74297
3.69263
3.62564
3.52627
3.4157
3.34573
3.30148
3.27665
3.26068
3.22478
3.17733
3.10997
3.02628
2.95935
2.91024
2.86535
2.8335
2.80378
2.76739
2.71974
2.65979
2.60231
2.55885
2.52031
2.48111
2.44525
2.4185
2.39074
2.31881
4.26015
3.1131
2.41183
1.93265
1.54469
1.19386
1.0729
1.00776
0.898172
0.779259
0.747513
0.729413
0.70014
0.700181
0.7333
0.782006
0.844587
0.93966
1.03132
1.10305
1.15544
1.18327
1.22869
1.28347
1.30802
1.33397
1.331
1.32627
1.38362
1.72338
3.74402
6.44588
6.61028
6.22936
5.9727
5.87336
5.85851
5.88036
5.87883
5.79251
5.67768
5.57011
5.49774
5.454
5.42079
5.35681
5.26905
5.15368
5.04277
4.96587
4.91111
4.86767
4.80386
4.72454
4.62388
4.49812
4.39264
4.33349
4.29857
4.27191
4.22127
4.14943
4.05269
3.9385
3.83897
3.77689
3.73731
3.70816
3.67243
3.62717
3.56028
3.45756
3.34752
3.2853
3.25323
3.23218
3.21309
3.17983
3.13262
3.05371
2.95097
2.87459
2.83634
2.8111
2.79367
2.77314
2.74042
2.69242
2.61972
2.5426
2.4853
2.44874
2.42857
2.41344
2.40019
2.34577
4.66655
3.7287
2.98767
2.42674
2.07462
1.75026
1.39895
1.23687
1.16529
1.03872
0.910513
0.862801
0.818461
0.758467
0.748506
0.774205
0.792699
0.810471
0.843139
0.893862
0.967529
1.03964
1.11905
1.20143
1.25846
1.2797
1.28687
1.35079
1.75218
2.42844
3.06431
4.93328
6.25092
6.41919
6.17858
5.95594
5.81141
5.77784
5.81093
5.79318
5.7363
5.63585
5.50837
5.42743
5.37016
5.32691
5.27313
5.19793
5.09449
4.9685
4.86673
4.79721
4.73296
4.67279
4.61495
4.54552
4.45365
4.35045
4.27316
4.21286
4.1481
4.07957
4.01276
3.95035
3.88447
3.80847
3.73717
3.68229
3.63286
3.58243
3.52956
3.46915
3.39502
3.31233
3.25278
3.21809
3.18556
3.14748
3.09962
3.03597
2.95819
2.88683
2.83953
2.80954
2.78479
2.75896
2.72817
2.68455
2.61967
2.54306
2.48128
2.44729
2.42649
2.40931
2.39371
2.34523
4.96906
4.17152
3.49648
2.87744
2.45221
2.17105
1.84025
1.53652
1.41471
1.31671
1.16858
1.06391
1.01384
0.945833
0.874554
0.848741
0.8405
0.825486
0.799998
0.799963
0.816137
0.857547
0.92556
1.02396
1.13714
1.19048
1.26341
1.66035
2.42625
2.98886
3.09245
3.51324
4.86025
5.86392
6.17892
6.04678
5.82199
5.72022
5.70831
5.72907
5.7145
5.65101
5.52136
5.37513
5.29805
5.24952
5.22711
5.17735
5.1
4.98572
4.84331
4.74418
4.68625
4.64524
4.61234
4.55924
4.48509
4.37418
4.24552
4.15207
4.09249
4.04546
4.00534
3.96468
3.91395
3.84269
3.7418
3.64721
3.58618
3.54295
3.50823
3.4733
3.42634
3.35575
3.26849
3.19854
3.14976
3.10379
3.05448
3.00527
2.96153
2.91963
2.87095
2.81858
2.77577
2.73931
2.69893
2.65039
2.59725
2.54674
2.50197
2.46193
2.42931
2.40345
2.38091
2.32519
5.19038
4.49043
3.86841
3.29731
2.83698
2.48965
2.20006
1.91848
1.68915
1.54478
1.42646
1.29722
1.18707
1.1223
1.05454
0.966349
0.89267
0.862016
0.846253
0.819877
0.817891
0.828267
0.840067
0.872892
0.93768
1.02675
1.35984
2.22175
2.71841
2.99994
3.06545
3.11943
3.50869
4.53462
5.626
5.95188
5.79595
5.68854
5.63785
5.65558
5.65918
5.61402
5.52145
5.36134
5.23609
5.17598
5.15187
5.12408
5.06261
4.98589
4.86878
4.74039
4.66758
4.62207
4.578
4.52013
4.45547
4.37043
4.25357
4.13552
4.06763
4.02442
3.99215
3.95726
3.90958
3.848
3.75349
3.63791
3.56972
3.53528
3.50137
3.46503
3.42244
3.3679
3.28793
3.18891
3.11184
3.06186
3.0231
2.99233
2.96652
2.93931
2.89906
2.83269
2.75716
2.70035
2.65487
2.61392
2.58016
2.55197
2.52209
2.48411
2.43967
2.39683
2.35898
2.29342
5.36533
4.7449
4.14676
3.63087
3.20786
2.8206
2.48059
2.23289
1.99646
1.77943
1.64326
1.53648
1.38593
1.27707
1.22785
1.16494
1.04979
0.97499
0.963224
0.930665
0.894386
0.872116
0.853471
0.853745
0.876667
1.11455
1.80418
2.35992
2.53907
2.67767
2.7824
2.86314
2.9773
3.31107
4.16328
5.2454
5.68891
5.67959
5.61703
5.59175
5.58785
5.53867
5.47982
5.385
5.2427
5.13278
5.06992
5.03531
5.01493
4.95988
4.89092
4.78511
4.65012
4.55387
4.49296
4.44871
4.40994
4.35424
4.286
4.18886
4.07375
4.00225
3.95844
3.92408
3.8824
3.83397
3.77385
3.69101
3.58596
3.49618
3.44693
3.41361
3.38429
3.34417
3.28573
3.20528
3.1142
3.05411
3.02355
3.00394
2.98343
2.95061
2.90377
2.83193
2.74537
2.67036
2.62286
2.59418
2.57176
2.55076
2.52746
2.49806
2.45118
2.38299
2.32522
2.26285
5.49727
4.93354
4.37793
3.91537
3.49505
3.09915
2.767
2.50241
2.25815
2.02624
1.86009
1.74096
1.60726
1.44985
1.35769
1.31092
1.234
1.12655
1.06521
1.03715
0.991093
0.939244
0.897505
0.913223
1.10615
1.66247
2.24889
2.30811
2.31769
2.33407
2.3923
2.49326
2.56965
2.63862
2.86504
3.59178
4.71585
5.41719
5.58915
5.57604
5.48944
5.44217
5.41181
5.3662
5.29479
5.16313
5.03295
4.96544
4.91786
4.90548
4.86724
4.79649
4.67687
4.52729
4.44276
4.39103
4.3551
4.3324
4.28593
4.22263
4.12075
3.9986
3.91972
3.87126
3.83549
3.80701
3.76511
3.70927
3.61345
3.4875
3.41152
3.36595
3.32598
3.28899
3.25468
3.21684
3.16499
3.09369
3.02433
2.9739
2.93249
2.89271
2.84964
2.80242
2.74213
2.68096
2.63482
2.60582
2.58407
2.5642
2.54214
2.49777
2.42245
2.34321
2.29862
2.25689
5.60381
5.08183
4.57992
4.15039
3.73982
3.33683
3.03145
2.7503
2.49492
2.25576
2.088
1.92604
1.78513
1.64962
1.52644
1.43973
1.37662
1.3013
1.20774
1.14723
1.09505
1.04913
1.06735
1.2519
1.75399
2.29551
2.44505
2.40085
2.35555
2.33897
2.30567
2.28148
2.27512
2.27658
2.30492
2.43751
2.98237
4.02971
5.08839
5.39813
5.36192
5.32395
5.3009
5.31878
5.28991
5.21066
5.05755
4.91895
4.85561
4.81658
4.80832
4.76301
4.68906
4.56639
4.42937
4.35625
4.31334
4.29447
4.26517
4.21178
4.13622
4.02494
3.90664
3.8368
3.79436
3.76403
3.73634
3.69172
3.61848
3.51183
3.40346
3.3322
3.29032
3.26194
3.24516
3.22176
3.18247
3.12227
3.03559
2.95148
2.89091
2.84426
2.79929
2.75634
2.72511
2.69798
2.66996
2.63672
2.59824
2.55616
2.50242
2.4387
2.36939
2.3111
2.29212
2.26332
5.68287
5.20655
4.75074
4.34084
3.9328
3.55614
3.25966
2.98359
2.70204
2.467
2.2945
2.12032
1.95644
1.83402
1.71818
1.5843
1.49109
1.43661
1.37066
1.2808
1.19772
1.21351
1.4269
1.97609
2.48448
2.63516
2.57878
2.51245
2.47731
2.44149
2.38866
2.30549
2.25632
2.24253
2.23408
2.23659
2.27335
2.50046
3.23737
4.32035
5.02074
5.12089
5.17742
5.23682
5.25007
5.20213
5.09429
4.92653
4.80635
4.75273
4.72317
4.71237
4.66417
4.59161
4.47784
4.35639
4.28613
4.23682
4.18954
4.14836
4.1014
4.03779
3.94548
3.84196
3.76476
3.71167
3.66556
3.61842
3.5725
3.51738
3.4438
3.35989
3.28717
3.24006
3.20629
3.17772
3.15156
3.1112
3.03903
2.9437
2.86012
2.80331
2.76702
2.74342
2.73089
2.71955
2.69867
2.66239
2.60371
2.5308
2.46167
2.39741
2.33523
2.30298
2.29274
2.27073
5.75343
5.3111
4.89546
4.5055
4.11078
3.75887
3.45954
3.18223
2.89888
2.68118
2.49001
2.31047
2.11846
1.99241
1.88782
1.76705
1.63277
1.54504
1.48236
1.40486
1.42515
1.68832
2.35389
2.83817
2.87672
2.79608
2.72086
2.6852
2.65522
2.60743
2.54485
2.45505
2.35059
2.28899
2.25588
2.23262
2.22529
2.21843
2.26286
2.5896
3.40799
4.36357
4.86069
5.06368
5.18714
5.16574
5.086
4.9676
4.79727
4.70461
4.66133
4.63842
4.6183
4.56976
4.50362
4.39813
4.27104
4.18643
4.13533
4.08998
4.04794
4.00649
3.95465
3.87198
3.76154
3.67229
3.61292
3.56572
3.52449
3.48867
3.44996
3.39361
3.31024
3.23056
3.17545
3.13171
3.08963
3.04809
3.00393
2.93885
2.86058
2.80213
2.77055
2.74819
2.7247
2.69657
2.66062
2.61683
2.5588
2.49233
2.43111
2.37485
2.34584
2.32219
2.29992
2.26613
5.807
5.39189
5.01009
4.63958
4.25934
3.93657
3.64863
3.3604
3.08317
2.87383
2.67145
2.48575
2.29929
2.15725
2.02614
1.907
1.78773
1.68053
1.58914
1.62386
1.9416
2.67426
3.25046
3.2431
3.11364
2.96124
2.8907
2.85787
2.81686
2.761
2.69898
2.61868
2.49525
2.40232
2.34996
2.30351
2.26163
2.2269
2.20732
2.18242
2.25396
2.69147
3.56874
4.41425
4.83713
5.02011
5.04053
4.95926
4.83268
4.68546
4.61201
4.57699
4.55475
4.52629
4.4784
4.40926
4.29243
4.16233
4.08826
4.042
3.99979
3.96363
3.92326
3.8695
3.77736
3.65765
3.57421
3.52745
3.49021
3.45825
3.426
3.38566
3.32195
3.23513
3.15268
3.09116
3.04172
2.99537
2.94887
2.90827
2.87067
2.82902
2.78364
2.74416
2.71034
2.67512
2.63142
2.57375
2.50913
2.45084
2.40876
2.38926
2.37541
2.35131
2.32113
2.26202
5.84011
5.46264
5.10779
4.7544
4.40618
4.10258
3.81375
3.51349
3.26507
3.05561
2.84883
2.63326
2.46327
2.32456
2.17659
2.03685
1.91486
1.8151
1.87397
2.26821
2.96617
3.55992
3.58685
3.47974
3.33586
3.17608
3.07395
3.01956
2.96708
2.9101
2.84838
2.77732
2.68277
2.56029
2.45977
2.39395
2.34013
2.28841
2.2345
2.19077
2.16
2.13601
2.25762
2.80718
3.65957
4.43912
4.77253
4.86176
4.84208
4.70585
4.5826
4.52033
4.4851
4.46452
4.42494
4.37552
4.29683
4.16845
4.05813
4.00123
3.95901
3.91688
3.8743
3.82979
3.7679
3.66797
3.5677
3.50733
3.46381
3.42322
3.38172
3.33989
3.29534
3.22833
3.13834
3.06221
3.00747
2.96153
2.92307
2.89274
2.86376
2.82971
2.78298
2.72973
2.68455
2.64292
2.59536
2.53693
2.46876
2.42507
2.409
2.39925
2.38559
2.36386
2.3292
2.24055
5.8876
5.5384
5.20085
4.86026
4.53759
4.24555
3.95821
3.66452
3.42869
3.21127
3.00199
2.78384
2.6247
2.46789
2.30785
2.16459
2.07001
2.18794
2.76331
3.44512
3.84643
3.86387
3.73212
3.6354
3.54889
3.42924
3.27653
3.17585
3.11013
3.04697
2.97992
2.90641
2.82289
2.71847
2.6046
2.51758
2.45229
2.39457
2.33788
2.27872
2.21026
2.14452
2.09042
2.09547
2.28417
2.89647
3.73183
4.40372
4.61075
4.65976
4.59393
4.4645
4.4145
4.38994
4.35165
4.31187
4.25774
4.15397
4.03807
3.97121
3.92412
3.87654
3.82793
3.77887
3.72404
3.65192
3.56781
3.49908
3.44532
3.39603
3.34846
3.30178
3.25124
3.18936
3.11177
3.03748
2.99099
2.96006
2.93224
2.90136
2.86226
2.81137
2.75071
2.69365
2.64585
2.60399
2.5611
2.51238
2.46665
2.43456
2.41641
2.40609
2.39237
2.36514
2.32148
2.22079
5.92922
5.60302
5.27431
4.94905
4.65346
4.3684
4.07898
3.80303
3.57957
3.36152
3.1358
2.93259
2.76871
2.59216
2.44537
2.35137
2.54419
3.27025
4.15815
4.30914
4.18329
4.01406
3.90232
3.8507
3.77573
3.66529
3.51401
3.35518
3.25202
3.17349
3.10005
3.02337
2.9412
2.8482
2.74085
2.63945
2.55797
2.48838
2.4268
2.36742
2.30248
2.22584
2.13758
2.05585
2.03593
2.06904
2.34163
3.01253
3.75743
4.29014
4.43908
4.40241
4.35482
4.31811
4.28643
4.24752
4.19709
4.10635
3.99539
3.92788
3.88495
3.84306
3.79491
3.73755
3.671
3.59847
3.52816
3.46975
3.42271
3.37947
3.33387
3.28229
3.2223
3.14892
3.06023
2.99627
2.97065
2.95046
2.92881
2.90101
2.862
2.80413
2.7281
2.651
2.59792
2.55806
2.52666
2.50747
2.49235
2.4696
2.43125
2.37845
2.33188
2.2997
2.26415
2.19612
5.99682
5.68023
5.35772
5.04759
4.76157
4.48007
4.1947
3.94581
3.71827
3.49881
3.25851
3.0792
2.89247
2.72963
2.70481
3.01352
3.76345
4.59361
4.78424
4.64111
4.40385
4.2137
4.11026
4.04575
3.96135
3.84659
3.71598
3.56356
3.41934
3.3092
3.21871
3.13369
3.04857
2.96002
2.86248
2.75708
2.66091
2.58466
2.51785
2.45302
2.38771
2.31803
2.23383
2.14561
2.06456
2.01354
2.00574
2.06108
2.39254
3.04089
3.72943
4.13805
4.16653
4.21539
4.25044
4.2003
4.14139
4.05476
3.95194
3.87548
3.82943
3.79429
3.75537
3.70771
3.64348
3.5595
3.47189
3.40957
3.37247
3.34181
3.30839
3.26903
3.21873
3.14424
3.03737
2.95722
2.93137
2.91415
2.89749
2.87491
2.84462
2.79714
2.71513
2.6144
2.55225
2.53032
2.52136
2.51911
2.50464
2.48088
2.43627
2.36531
2.29284
2.23894
2.20648
2.16319
6.03323
5.72393
5.41411
5.13073
4.8536
4.57101
4.30091
4.07211
3.84591
3.61481
3.3783
3.20113
3.03069
3.11917
3.65773
4.49242
4.98022
5.20113
5.09619
4.90378
4.70595
4.4878
4.29715
4.18838
4.10258
4.00188
3.88863
3.75628
3.60071
3.45497
3.34296
3.25032
3.16214
3.07287
2.97851
2.87601
2.77041
2.67725
2.60077
2.53311
2.46533
2.39577
2.31996
2.23372
2.13844
2.05946
1.99897
1.97515
1.97193
2.05091
2.38816
3.02786
3.56161
3.93428
4.06698
4.11008
4.09325
4.01429
3.93709
3.85696
3.77323
3.7269
3.69401
3.65545
3.60565
3.54012
3.45759
3.37246
3.31467
3.28129
3.25364
3.22587
3.19228
3.14116
3.05605
2.95146
2.88728
2.86087
2.84016
2.82195
2.80098
2.77017
2.71181
2.62545
2.55375
2.52062
2.50182
2.48288
2.46693
2.45283
2.42504
2.36129
2.27374
2.20449
2.17612
2.15766
6.07316
5.77956
5.48947
5.21695
4.94747
4.66817
4.42495
4.18838
3.96232
3.70343
3.51824
3.38034
3.58865
4.39034
5.42607
5.58949
5.45592
5.34217
5.22438
5.10964
4.95738
4.75263
4.50797
4.34116
4.24395
4.15212
4.0401
3.91372
3.77116
3.61644
3.47561
3.365
3.26959
3.17614
3.07997
2.97947
2.87344
2.76932
2.67671
2.59898
2.53162
2.46772
2.4017
2.3291
2.24448
2.14986
2.06121
1.99296
1.94039
1.93223
1.92866
2.02372
2.35645
2.93601
3.45621
3.78602
3.90988
3.96018
3.93784
3.86555
3.75607
3.66137
3.60855
3.57136
3.54015
3.50663
3.45744
3.37707
3.28622
3.22966
3.19483
3.16363
3.13264
3.09823
3.05057
2.96965
2.86735
2.81527
2.79255
2.77157
2.74669
2.71745
2.68558
2.64524
2.58814
2.52271
2.47665
2.44924
2.42687
2.40086
2.36928
2.33008
2.27519
2.22145
2.18014
2.14189
6.15393
5.85537
5.57867
5.3109
5.03887
4.77319
4.52757
4.29699
4.04876
3.83565
3.79352
4.21458
5.12015
6.0752
6.44046
6.20024
5.77719
5.45796
5.32784
5.27464
5.1643
4.99234
4.76929
4.54574
4.40557
4.29226
4.17397
4.04751
3.91455
3.77266
3.62375
3.48589
3.37
3.2674
3.16933
3.07241
2.97217
2.86857
2.76698
2.6753
2.59629
2.52537
2.45938
2.39197
2.31846
2.23576
2.15197
2.07204
1.99962
1.93915
1.88877
1.86846
1.87207
1.97123
2.32872
2.85807
3.35263
3.66533
3.80418
3.80842
3.75636
3.63017
3.53699
3.49707
3.47936
3.4614
3.43101
3.3761
3.28735
3.19765
3.1431
3.10411
3.07042
3.04211
3.01533
2.96724
2.88432
2.80635
2.76074
2.73052
2.70426
2.68076
2.66076
2.6403
2.59894
2.52147
2.45238
2.41325
2.38258
2.35132
2.31848
2.28521
2.2621
2.23878
2.1951
2.13118
6.21728
5.92004
5.65626
5.39073
5.1132
4.87083
4.60944
4.39614
4.18968
4.3328
5.06082
6.1036
6.58336
6.72685
6.62021
6.35097
6.02715
5.71634
5.56312
5.48135
5.37115
5.21163
5.0105
4.77125
4.57031
4.42684
4.29876
4.1699
4.04105
3.90879
3.76375
3.6109
3.47228
3.35459
3.24999
3.15178
3.05317
2.95021
2.84503
2.74675
2.6596
2.57958
2.50459
2.43204
2.35986
2.28627
2.21221
2.13785
2.06539
1.99745
1.9329
1.87069
1.82976
1.80682
1.82054
1.92984
2.29327
2.81862
3.3309
3.59957
3.63712
3.60367
3.53714
3.46353
3.43218
3.40287
3.37
3.33784
3.27144
3.17223
3.10308
3.06258
3.03073
2.99598
2.95598
2.91748
2.87143
2.80703
2.74306
2.70353
2.68023
2.66465
2.65007
2.61531
2.55042
2.48328
2.42775
2.37976
2.33926
2.30366
2.27538
2.26229
2.25243
2.23285
2.20713
2.14246
6.22032
6.00574
5.73393
5.44225
5.19774
4.93876
4.72534
4.6387
5.05037
6.09956
7.19603
7.41177
7.25699
6.98066
6.6743
6.48259
6.27999
6.03254
5.84467
5.70703
5.55984
5.38939
5.1923
4.95819
4.74403
4.58065
4.43893
4.30093
4.16243
4.02198
3.87425
3.72061
3.57753
3.45322
3.34225
3.23796
3.13402
3.02572
2.91373
2.80818
2.71717
2.63626
2.5594
2.48494
2.41072
2.33579
2.259
2.18446
2.10785
2.03492
1.97115
1.91523
1.85915
1.80603
1.77689
1.74102
1.75695
1.90485
2.29411
2.80584
3.19745
3.45596
3.48949
3.46614
3.43599
3.38805
3.33663
3.27459
3.19423
3.13895
3.09658
3.05346
3.00926
2.96374
2.92068
2.88405
2.84412
2.78445
2.72158
2.69694
2.67966
2.6449
2.59301
2.54042
2.49542
2.45189
2.4
2.34408
2.30222
2.27812
2.26392
2.2496
2.23466
2.22499
2.19942
2.26308
5.72764
6.07223
5.8431
5.51664
5.27313
5.05443
5.24489
6.04684
7.20338
8.00991
8.10317
7.76304
7.45049
7.18466
6.92775
6.75417
6.56795
6.31389
6.08445
5.90992
5.73804
5.55033
5.34712
5.12421
4.91
4.73785
4.5886
4.44287
4.29412
4.13874
3.9754
3.81122
3.66288
3.53601
3.42302
3.31638
3.21039
3.10001
2.98168
2.86291
2.75952
2.67478
2.59909
2.52674
2.45684
2.38709
2.30911
2.22639
2.14984
2.07908
2.00654
1.94715
1.89436
1.83925
1.78577
1.73262
1.70895
1.68069
1.70995
1.89206
2.25799
2.78317
3.11555
3.32869
3.35985
3.35204
3.32541
3.26992
3.18053
3.10018
3.04277
2.99833
2.95976
2.92814
2.89744
2.86193
2.82143
2.77709
2.72567
2.67557
2.6266
2.5825
2.53675
2.49347
2.44693
2.38768
2.34044
2.31326
2.29962
2.29019
2.27835
2.26786
2.24294
2.26559
2.35101
2.74866
3.95569
5.83222
5.84344
5.59336
5.47129
6.02087
7.43784
8.46221
8.64973
8.63046
8.3606
7.96621
7.63591
7.44595
7.25371
7.03565
6.80904
6.53478
6.27736
6.09189
5.91367
5.71811
5.50415
5.27951
5.06709
4.88256
4.71891
4.56327
4.40705
4.24596
4.0782
3.90737
3.74684
3.60856
3.49009
3.38175
3.27662
3.1697
3.05503
2.9313
2.80738
2.70427
2.62864
2.56402
2.49474
2.42841
2.36553
2.29139
2.19648
2.11198
2.05766
2.00783
1.95894
1.91086
1.85661
1.8013
1.73599
1.67083
1.63121
1.61282
1.66053
1.87739
2.29583
2.77977
3.01215
3.15981
3.19786
3.17953
3.13377
3.06242
3.00193
2.97007
2.94723
2.91871
2.89006
2.85666
2.8058
2.7344
2.66364
2.60418
2.56213
2.53284
2.50713
2.47139
2.41785
2.36078
2.32151
2.2997
2.28398
2.28118
2.27421
2.30633
2.41755
2.67988
2.99297
3.44371
1.72412
4.56508
5.54437
5.89407
7.06422
8.71077
9.77
9.54697
9.06181
8.80773
8.53833
8.2147
7.89091
7.67767
7.50699
7.27593
7.03154
6.76782
6.49739
6.28905
6.10079
5.90087
5.68647
5.45306
5.21676
5.00943
4.83076
4.66434
4.50105
4.33684
4.16751
3.99318
3.8246
3.67655
3.55189
3.44207
3.33993
3.23925
3.13061
3.00982
2.88273
2.76236
2.65595
2.57604
2.52187
2.46839
2.39233
2.31041
2.23373
2.15502
2.06967
1.99282
1.93473
1.88889
1.84609
1.7994
1.7459
1.68947
1.63558
1.59618
1.56332
1.55426
1.61957
1.86284
2.27517
2.72503
2.9971
3.03257
3.02637
2.99998
2.94126
2.88984
2.84745
2.80911
2.78347
2.75879
2.72775
2.68539
2.62916
2.57257
2.52657
2.48422
2.44043
2.39065
2.3549
2.33915
2.32012
2.31074
2.30448
2.34402
2.47162
2.73272
3.09607
3.45325
3.63414
3.75488
1.0473
2.19182
4.17921
8.10955
10.2835
10.4761
10.3674
9.88471
9.36635
9.06485
8.83563
8.51944
8.15844
7.87002
7.6866
7.46583
7.22126
6.97286
6.70238
6.45979
6.25255
6.03981
5.81734
5.58302
5.34423
5.12367
4.93094
4.75655
4.5887
4.4205
4.24749
4.07054
3.89946
3.74773
3.61881
3.50346
3.39256
3.28058
3.16438
3.04464
2.92454
2.81444
2.71792
2.62792
2.54217
2.4905
2.44856
2.382
2.29477
2.19879
2.10066
2.01791
1.95501
1.90498
1.8641
1.82309
1.77678
1.72655
1.66906
1.60985
1.55957
1.52273
1.4895
1.50248
1.61328
1.88644
2.29921
2.64008
2.91452
2.95643
2.93874
2.88796
2.83563
2.79318
2.7504
2.6954
2.64464
2.60636
2.573
2.53738
2.49679
2.45251
2.4022
2.35972
2.33792
2.32885
2.33057
2.38006
2.54144
2.865
3.23456
3.58362
3.77008
3.80123
3.84735
3.87377
1.00077
1.10761
3.45956
11.2869
11.9682
10.9984
10.4678
10.0382
9.59682
9.28648
9.04016
8.78835
8.4629
8.1533
7.95702
7.75057
7.51131
7.26289
6.99176
6.71982
6.48766
6.26767
6.03447
5.79026
5.54562
5.31886
5.11894
4.93799
4.76421
4.58983
4.41053
4.22766
4.05066
3.89133
3.75267
3.62741
3.50861
3.3917
3.27329
3.15203
3.0294
2.91323
2.80784
2.71059
2.61816
2.52639
2.43131
2.33735
2.24829
2.18762
2.14804
2.09439
2.0316
1.95919
1.88867
1.82769
1.77319
1.72433
1.67618
1.62924
1.58078
1.53628
1.49782
1.4673
1.44511
1.47
1.60636
1.89083
2.30721
2.60244
2.80445
2.834
2.82637
2.81132
2.76839
2.69466
2.61425
2.55244
2.50939
2.47357
2.43845
2.40176
2.37932
2.3668
2.3589
2.40288
2.5755
2.93242
3.35748
3.75718
3.89958
3.95925
3.93676
3.9047
3.91928
3.92417
1
1.00286
4.28267
11.6848
11.7414
10.819
10.3334
10.018
9.72509
9.48237
9.26419
9.05819
8.73237
8.38815
8.1406
7.89855
7.61918
7.34268
7.07436
6.80106
6.55112
6.31533
6.0694
5.81557
5.56811
5.33952
5.13487
4.94817
4.76847
4.5881
4.40383
4.21876
4.04088
3.87816
3.73341
3.60053
3.4756
3.35465
3.23311
3.10991
2.9878
2.87392
2.77409
2.69072
2.61353
2.52626
2.42703
2.33926
2.2739
2.21348
2.14644
2.0793
2.01688
1.96099
1.90775
1.85015
1.79363
1.74516
1.70198
1.6655
1.62469
1.58091
1.53389
1.47503
1.42973
1.40373
1.39267
1.42853
1.60804
1.96188
2.36092
2.52425
2.66905
2.72433
2.70599
2.65671
2.58996
2.52047
2.46913
2.43494
2.4113
2.40214
2.40464
2.44799
2.60115
2.9686
3.4349
3.76804
4.04978
4.15743
4.15342
4.12452
4.05725
3.9709
3.92187
3.86388
1
1.00006
5.1952
11.0743
11.2759
10.8264
10.5407
10.2731
10.0026
9.7487
9.49079
9.18629
8.8254
8.4967
8.21383
7.98664
7.73795
7.44273
7.17562
6.92649
6.66625
6.41375
6.15867
5.9009
5.65379
5.42384
5.21136
5.01338
4.82436
4.63943
4.45568
4.27576
4.10446
3.94381
3.7929
3.64733
3.50849
3.37657
3.24791
3.12203
3.0036
2.90349
2.81672
2.73216
2.6395
2.53577
2.43408
2.34865
2.28121
2.2218
2.16817
2.11389
2.04996
1.97465
1.89966
1.83468
1.78125
1.7363
1.6916
1.64842
1.60517
1.55872
1.51108
1.4654
1.41968
1.37762
1.35666
1.3455
1.36418
1.43404
1.65852
2.00716
2.37513
2.56362
2.57005
2.55073
2.51587
2.4507
2.4073
2.40994
2.4249
2.48886
2.69393
3.01103
3.47659
3.88149
4.08181
4.14403
4.21515
4.22181
4.18988
4.13071
4.04615
3.98114
3.92249
3.84288
1
1
5.58593
10.7213
10.9724
10.7717
10.5569
10.298
10.0471
9.79588
9.54621
9.26422
8.96239
8.67549
8.40416
8.14416
7.88091
7.57729
7.28287
7.03649
6.77851
6.51107
6.24802
5.98021
5.72066
5.47827
5.25516
5.04989
4.85672
4.66976
4.48367
4.29988
4.1246
3.96078
3.80906
3.6633
3.52268
3.3869
3.2567
3.13586
3.02619
2.92769
2.83255
2.7358
2.63544
2.53416
2.44293
2.36646
2.30325
2.24343
2.182
2.11632
2.04731
1.97695
1.90758
1.84459
1.78951
1.74081
1.69586
1.65513
1.61283
1.56471
1.51654
1.47456
1.43205
1.38955
1.35457
1.3238
1.30414
1.28047
1.29708
1.42198
1.70034
2.04959
2.32114
2.49414
2.48326
2.4341
2.43296
2.4917
2.68924
3.06599
3.57414
3.92664
4.20099
4.29212
4.27021
4.25657
4.21208
4.16903
4.12024
4.07177
4.0217
3.96842
3.91058
3.82906
1
1
5.64151
10.6168
10.8608
10.6911
10.5389
10.3185
10.0871
9.83154
9.55904
9.26725
8.97214
8.68495
8.40871
8.12701
7.839
7.54645
7.27175
7.03202
6.78423
6.50629
6.24227
5.99108
5.75455
5.53537
5.3276
5.12072
4.90676
4.68762
4.4765
4.28771
4.12279
3.9751
3.84012
3.70712
3.56875
3.42016
3.27018
3.13632
3.02143
2.92016
2.82399
2.73007
2.6376
2.54871
2.46742
2.38879
2.31306
2.24005
2.17016
2.10387
2.0418
1.98058
1.91833
1.86185
1.80701
1.74826
1.69189
1.64627
1.60706
1.56724
1.52527
1.4855
1.44732
1.40846
1.36851
1.326
1.28223
1.25105
1.22956
1.22806
1.26992
1.45665
1.77459
2.1206
2.30582
2.49831
2.79186
3.15142
3.52928
3.94949
4.17863
4.34435
4.39433
4.32305
4.22724
4.1794
4.14414
4.13356
4.11653
4.0797
4.03831
3.97869
3.90547
3.82554
1
1
5.59819
10.5786
10.8227
10.6566
10.5143
10.3027
10.0753
9.82564
9.56482
9.30048
9.03972
8.78108
8.52033
8.25623
7.97113
7.68058
7.39576
7.12484
6.83732
6.54163
6.28151
6.04104
5.81295
5.5938
5.37669
5.15235
4.91526
4.67509
4.45708
4.27753
4.1275
3.99323
3.86481
3.73025
3.58235
3.42084
3.26117
3.12417
3.00973
2.91084
2.81922
2.73291
2.64913
2.56371
2.47635
2.38845
2.30606
2.22916
2.15766
2.09387
2.03993
1.99123
1.94029
1.88199
1.81283
1.744
1.68384
1.63505
1.59448
1.56045
1.53379
1.5062
1.46586
1.41132
1.36328
1.31832
1.27195
1.23355
1.20863
1.20105
1.19352
1.21507
1.32222
1.61962
2.16416
2.83572
3.47095
4.06654
4.6556
5.00099
4.92537
4.79722
4.59276
4.32603
4.1583
4.09953
4.07036
4.06361
4.07594
4.06164
4.0238
3.96673
3.89833
3.83413
)
;

boundaryField
{
    inlet
    {
        type            fixedValue;
        value           uniform 1;
    }
    outlet
    {
        type            zeroGradient;
    }
    bottom
    {
        type            symmetryPlane;
    }
    top
    {
        type            symmetryPlane;
    }
    obstacle
    {
        type            zeroGradient;
    }
    defaultFaces
    {
        type            empty;
    }
}


// ************************************************************************* //
