/*--------------------------------*- C++ -*----------------------------------*\
  =========                 |
  \\      /  F ield         | OpenFOAM: The Open Source CFD Toolbox
   \\    /   O peration     | Website:  https://openfoam.org
    \\  /    A nd           | Version:  7
     \\/     M anipulation  |
\*---------------------------------------------------------------------------*/
FoamFile
{
    version     2.0;
    format      ascii;
    class       volScalarField;
    location    "3.5";
    object      T;
}
// * * * * * * * * * * * * * * * * * * * * * * * * * * * * * * * * * * * * * //

dimensions      [0 0 0 1 0 0 0];

internalField   nonuniform List<scalar> 
4032
(
1
1
1
1
1
1
1
1
1
1
1
1.10281
2.36778
2.72078
2.72909
2.74258
2.75558
2.76882
2.78166
2.79314
2.80277
2.81008
2.81552
2.81924
1
1
1
1
1
1
1
1
1
1
1
1.08532
2.35257
2.71933
2.72813
2.74117
2.75403
2.76706
2.77965
2.79082
2.80003
2.8068
2.81157
2.81481
1
1
1
1
1
1
1
1
1
1
1
1.01608
2.30426
2.71359
2.7239
2.73724
2.75009
2.76278
2.77496
2.78574
2.79479
2.80173
2.80676
2.81061
1
1
1
1
1
1
1
1
1
1
1
1.0003
2.2402
2.70336
2.71727
2.73111
2.74412
2.7564
2.76815
2.7786
2.78734
2.79374
2.79785
2.80065
1
1
1
1
1
1
1
1
1
1
1
1
2.15115
2.68989
2.71055
2.72393
2.73678
2.74827
2.75894
2.76803
2.77524
2.7804
2.78344
2.7872
1
1
1
1
1
1
1
1
1
1
1
1
2.02657
2.66627
2.70055
2.71365
2.72615
2.73683
2.74652
2.75484
2.76133
2.76509
2.76434
2.75975
1
1
1
1
1
1
1
1
1
1
1
1
1.85815
2.62076
2.68304
2.69928
2.71295
2.72331
2.73146
2.73728
2.73938
2.73612
2.72883
2.72267
1
1
1
1
1
1
1
1
1
1
1
1
1.62311
2.53557
2.65394
2.67834
2.69451
2.70574
2.71304
2.71595
2.71379
2.70895
2.7043
2.71549
1
1
1
1
1
1
1
1
1
1
1
1
1.29411
2.40458
2.62772
2.65057
2.66903
2.68197
2.68819
2.6889
2.68212
2.66478
2.61388
2.51342
1
1
1
1
1
1
1
1
1
1
1
1
1.02551
2.27818
2.62566
2.6225
2.63401
2.64799
2.65496
2.65388
2.64341
2.61293
2.55727
2.39387
1
1
1
1
1
1
1
1
1
1
1
1
1.00012
2.0736
2.59266
2.60489
2.61276
2.61726
2.61934
2.6152
2.60164
2.56564
2.50373
2.32017
1
1
1
1
1
1
1
1
1
1
1
1
0.999999
1.71942
2.50404
2.58732
2.59263
2.59377
2.59005
2.57985
2.56042
2.52343
2.45159
2.2952
1
1
1
1
1
1
1
1
1
1
1
1
1
1.24319
2.34866
2.57511
2.57019
2.56773
2.56079
2.54547
2.52043
2.48313
2.40788
2.28813
1
1
1
1
1
1
1
1
1
1
1
1
1
1.01585
2.1713
2.52281
2.53683
2.53761
2.53096
2.51465
2.48792
2.44522
2.37562
2.28495
1
1
1
1
1
1
1
1
1
1
1
1
1
1.00001
1.7616
2.42912
2.51617
2.51406
2.50572
2.48734
2.45976
2.41461
2.35346
2.27972
1
1
1
1
1
1
1
1
1
1
1
1
1
0.999996
1.16495
2.26488
2.5016
2.48632
2.47518
2.45626
2.43071
2.38974
2.3379
2.27473
1
1
1
1
1
1
1
1
1
1
1
1
1
0.999999
1.0066
2.04744
2.44326
2.44204
2.43663
2.42361
2.4025
2.36872
2.32464
2.26919
1
1
1
1
1
1
1
1
1
1
1
1
1
1
0.999983
1.51405
2.31287
2.42098
2.40874
2.39535
2.37618
2.34774
2.31037
2.2633
1
1
1
1
1
1
1
1
1
1
1
1
1
1
0.999994
1.06694
2.09835
2.39039
2.37729
2.36661
2.34916
2.32465
2.293
2.25424
1
1
1
1
1
1
1
1
1
1
1
1
1
1
0.999999
1.00084
1.59993
2.2561
2.35475
2.34004
2.32277
2.30144
2.2748
2.2427
1
1
1
1
1
1
1
1
1
1
1
1
1
1
1
1
1.10126
2.04402
2.32689
2.31423
2.30114
2.28143
2.2569
2.22825
1
1
1
1
1
1
1
1
1
1
1
1
1
1
1
1
1.00212
1.51359
2.17081
2.29097
2.27381
2.25595
2.23468
2.2098
1
1
1
1
1
1
1
1
1
1
1
1
1
1
1
1
1.00001
1.07469
1.94655
2.26471
2.24717
2.2311
2.21248
2.19126
1
1
1
1
1
1
1
1
1
1
1
1
1
1
1
1
1
1.00124
1.39622
2.08815
2.22439
2.20473
2.18871
2.17036
1
1
1
1
1
1
1
1
1
1
1
1
1
1
1
1
1
1
1.03975
1.76486
2.18213
2.18128
2.16843
2.15241
1
1
1
1
1
1
1
1
1
1
1
1
1
1
1
1
1
1
1.00047
1.22463
1.97441
2.16381
2.14676
2.13017
1
1
1
1
1
1
1
1
1
1
1
1
1
1
1
1
1
1
1
1.01165
1.50992
2.0381
2.13206
2.11246
1
1
1
1
1
1
1
1
1
1
1
1
1
1
1
1
1
1
1
1.0001
1.07773
1.75241
2.08177
2.10036
1
1
1
1
1
1
1
1
1
1
1
1
1
1
1
1
1
1
1
1
1.00167
1.24057
1.87626
2.07568
1
1
1
1
1
1
1
1
1
1
1
1
1
1
1
1
1
1
1
1
1.00001
1.01415
1.42552
1.93587
1
1
1
1
1
1
1
1
1
1
1
1
1
1
1
1
1
1
1
1
1
1.00014
1.05462
1.59244
1
1
1
1
1
1
1
1
1
1
1
1
1
1
1
1
1
1
1
1
1
1
1.00107
1.13586
1
1
1
1
1
1
1
1
1
1
1
1
1
1
1
1
1
1
1
1
1
1
1.00001
1.00504
1
1
1
1
1
1
1
1
1
1
1
1
1
1
1
1
1
1
1
1
1
1
1
1.00004
1
1
1
1
1
1
1
1
1
1
1
1
1
1
1
1
1
1
1
1
1
1
1
1
1
1
1
1
1
1
1
1
1
1
1
1
1
1
1
1
1
1
1
1
1
1
1
1
1
1
1
1
1
1
1
1
1
1
1
1
1
1
1
1
1
1
1
1
1
1
1
1
1
1
1
1
1
1
1
1
1
1
1
1
1
1
1
1
1
1
1
1
1
1
1
1
1
1
1
1
1
1
1
1
1
1
1
1
1
1
1
1
1
1
1
1
1
1
1
1
1
1
1
1
1
1
1
1
1
1
1
1
1
1
1
1
1
1
1
1
1
1
1
1
1.69131
1.2254
0.982347
0.993958
1.10885
1.26182
1.33005
1.40875
1.52929
1.60419
1.64286
1.65048
1.66814
1.70207
1.74597
1.75605
1.73789
1.70911
1.71237
1.72548
1.73435
1.73188
1.71926
1.69632
1.68587
1.68902
1.70507
1.71673
1.71475
1.9991
2.71412
2.84106
2.83482
2.82778
2.81669
2.80023
2.78093
2.75877
2.7373
2.71729
2.69859
2.68119
2.66281
2.64178
2.61955
2.59858
2.58074
2.56607
2.55176
2.53396
2.51346
2.49385
2.47748
2.46633
2.45848
2.44688
2.42768
2.4063
2.38473
2.36689
2.35239
2.34233
2.33474
2.32679
2.31548
2.30084
2.28155
2.26264
2.24764
2.23447
2.22366
2.21542
2.20496
2.19311
2.17905
2.16272
2.14918
2.13977
2.132
2.12623
2.12135
2.11226
2.09972
2.08092
2.05893
2.04393
2.03468
2.02808
2.02497
2.02241
2.01797
2.01127
1.99753
1.97553
1.95936
1.94357
1.92438
1.63832
1.49683
1.37006
1.31034
1.30326
1.27152
1.27627
1.29347
1.32344
1.35809
1.4029
1.45507
1.51458
1.57203
1.60545
1.61617
1.61968
1.63424
1.65342
1.67071
1.68013
1.67605
1.65941
1.64947
1.65257
1.66659
1.67931
1.67841
1.88866
2.62397
2.82087
2.80945
2.78805
2.77078
2.75199
2.73435
2.71451
2.69467
2.67436
2.65544
2.64035
2.62846
2.61263
2.59099
2.56817
2.54751
2.53215
2.52241
2.51357
2.49866
2.47932
2.45924
2.44072
2.4249
2.4129
2.40387
2.39296
2.3783
2.36114
2.34302
2.32637
2.31265
2.30128
2.29278
2.28419
2.27332
2.25994
2.24335
2.22617
2.2121
2.20037
2.19128
2.18316
2.17285
2.16191
2.14935
2.13634
2.12565
2.11736
2.10879
2.10011
2.09024
2.07681
2.06054
2.04451
2.03221
2.02398
2.01798
2.01263
2.00764
2.00171
1.99259
1.97826
1.96255
1.94319
2.03517
1.81774
1.69512
1.57101
1.44545
1.37273
1.34827
1.31877
1.26633
1.23759
1.25282
1.28952
1.31553
1.34435
1.38966
1.42634
1.45738
1.49154
1.52306
1.55274
1.57468
1.59354
1.60045
1.59795
1.59268
1.59527
1.60248
1.6051
1.60884
1.68422
2.44685
2.73408
2.69894
2.66445
2.6434
2.63008
2.61996
2.6121
2.6004
2.58402
2.56583
2.55009
2.54019
2.53365
2.52118
2.50338
2.48233
2.4639
2.45055
2.44379
2.43908
2.42936
2.41521
2.39625
2.37196
2.35316
2.34307
2.33782
2.33553
2.3288
2.31629
2.29954
2.27669
2.25478
2.2421
2.23508
2.23288
2.22886
2.22033
2.20891
2.19131
2.17098
2.15775
2.14909
2.14394
2.14041
2.13314
2.12411
2.11153
2.09553
2.08223
2.0723
2.06258
2.05468
2.04653
2.03695
2.02539
2.01192
1.99973
1.99134
1.98485
1.97846
1.97215
1.96665
1.9603
1.94184
2.10607
1.93817
1.81602
1.71453
1.61472
1.49871
1.45211
1.42591
1.38097
1.32411
1.30324
1.29063
1.27436
1.27474
1.29209
1.31513
1.3438
1.38573
1.4232
1.45016
1.47176
1.48677
1.50707
1.52834
1.53828
1.54752
1.54665
1.54711
1.56901
1.68284
2.15307
2.54127
2.5947
2.54986
2.51452
2.49193
2.48298
2.48207
2.48106
2.47119
2.45777
2.4429
2.43116
2.42323
2.41724
2.4083
2.39731
2.38283
2.36836
2.35781
2.35
2.34338
2.33364
2.32198
2.30849
2.29219
2.27858
2.27133
2.26745
2.26413
2.2561
2.24392
2.22791
2.20901
2.19181
2.18102
2.17504
2.17175
2.16795
2.1627
2.15377
2.13809
2.11934
2.10826
2.10231
2.09832
2.09463
2.08835
2.07982
2.06585
2.04701
2.03266
2.02552
2.02039
2.01635
2.01115
2.00299
1.99206
1.97667
1.96095
1.95033
1.94501
1.94332
1.94249
1.94139
1.9303
2.15064
2.02345
1.90617
1.80105
1.72728
1.64952
1.54979
1.49541
1.46968
1.42256
1.36925
1.34478
1.3241
1.2963
1.29056
1.30204
1.30909
1.31726
1.33149
1.35231
1.38158
1.40925
1.43818
1.46883
1.49142
1.49946
1.50086
1.52239
1.65097
1.82434
1.95835
2.26138
2.43254
2.46886
2.44358
2.415
2.3938
2.38767
2.39195
2.39125
2.38696
2.37599
2.35947
2.34801
2.3399
2.3341
2.32752
2.31904
2.30719
2.29189
2.27904
2.2701
2.26144
2.25326
2.24575
2.23733
2.2265
2.21416
2.20515
2.19799
2.18914
2.17866
2.16765
2.1569
2.14569
2.13333
2.12248
2.11518
2.10956
2.10438
2.09888
2.09166
2.0815
2.06865
2.05878
2.05278
2.04686
2.03988
2.03137
2.02034
2.00714
1.99512
1.98738
1.98257
1.97822
1.97301
1.96624
1.95651
1.94261
1.92709
1.91569
1.91121
1.91009
1.91001
1.90972
1.9038
2.18036
2.07929
1.98095
1.87628
1.79624
1.73843
1.66094
1.57796
1.54097
1.51039
1.46113
1.42145
1.39985
1.37142
1.3408
1.32861
1.32401
1.31642
1.3053
1.30567
1.31273
1.32983
1.35706
1.39637
1.43967
1.45839
1.48315
1.61641
1.8159
1.93452
1.95641
2.02953
2.22665
2.3559
2.39488
2.3805
2.35441
2.34204
2.34088
2.34422
2.34369
2.33707
2.32111
2.3024
2.29252
2.28623
2.28327
2.27702
2.2677
2.25414
2.23661
2.22432
2.21714
2.21186
2.20734
2.20008
2.19049
2.17644
2.15973
2.14783
2.14023
2.13344
2.12694
2.12007
2.11151
2.0999
2.08399
2.0699
2.06204
2.05735
2.05443
2.05155
2.04659
2.03693
2.02299
2.01097
2.00232
1.99394
1.98499
1.97657
1.96975
1.96355
1.95604
1.94751
1.94025
1.93363
1.92558
1.91533
1.90411
1.89403
1.88605
1.8801
1.87661
1.87499
1.87387
1.86796
2.19641
2.11308
2.02905
1.94153
1.86321
1.79734
1.73636
1.67168
1.61281
1.57182
1.5367
1.49649
1.4588
1.43508
1.40971
1.37457
1.34268
1.32804
1.32191
1.31077
1.30896
1.31273
1.31726
1.33125
1.35914
1.39619
1.52289
1.7733
1.87995
1.93674
1.94872
1.95433
2.01722
2.17264
2.31201
2.34721
2.3302
2.31987
2.31466
2.31698
2.31774
2.31262
2.30116
2.28101
2.26495
2.25769
2.25471
2.25105
2.24329
2.23354
2.21885
2.20254
2.1933
2.18765
2.18164
2.17347
2.16436
2.15273
2.13708
2.12111
2.11214
2.10647
2.10175
2.09587
2.08742
2.07686
2.06179
2.04399
2.0343
2.03051
2.02704
2.02345
2.01871
2.01126
1.99879
1.98194
1.96813
1.95917
1.95199
1.94653
1.94257
1.93864
1.93237
1.92104
1.90737
1.89679
1.88818
1.88006
1.87321
1.86774
1.86248
1.8563
1.84974
1.8442
1.83947
1.83053
2.20597
2.13556
2.0595
1.98675
1.92119
1.85442
1.78901
1.73802
1.6843
1.62984
1.59372
1.56465
1.51978
1.48359
1.4663
1.4446
1.40305
1.37265
1.36706
1.3533
1.33804
1.32821
1.31941
1.31942
1.33044
1.43578
1.66805
1.80462
1.83992
1.86736
1.88435
1.89476
1.91191
1.96892
2.10648
2.25321
2.30432
2.30687
2.30073
2.29842
2.29818
2.29259
2.28523
2.27305
2.2551
2.24124
2.23338
2.22896
2.22622
2.21894
2.20978
2.19586
2.17806
2.16526
2.15735
2.15122
2.14555
2.13735
2.12773
2.1142
2.0981
2.0883
2.08224
2.07667
2.06942
2.06094
2.05082
2.0376
2.02123
2.00803
2.00201
1.99844
1.99518
1.98965
1.98062
1.96729
1.95124
1.94031
1.93455
1.93091
1.92736
1.92195
1.91416
1.90151
1.88561
1.87141
1.86231
1.85681
1.85231
1.84812
1.84402
1.8392
1.83119
1.81922
1.80948
1.7998
2.21098
2.14885
2.08144
2.02047
1.95969
1.89633
1.83794
1.78799
1.73748
1.68523
1.64552
1.61573
1.57975
1.53392
1.50474
1.48966
1.46458
1.42741
1.40379
1.39237
1.37432
1.35359
1.33571
1.34338
1.42899
1.62781
1.7732
1.7855
1.78487
1.78443
1.79228
1.80961
1.82244
1.83337
1.87592
2.00853
2.17741
2.26953
2.28736
2.28772
2.2784
2.27324
2.26932
2.26307
2.25375
2.23725
2.22109
2.2125
2.20585
2.20374
2.19823
2.18862
2.17297
2.15301
2.14156
2.13454
2.12915
2.12546
2.11819
2.10855
2.09396
2.07648
2.06501
2.0581
2.05251
2.04757
2.04019
2.03053
2.01513
1.99566
1.98456
1.97872
1.97343
1.96825
1.96297
1.95667
1.94767
1.93473
1.92211
1.91291
1.90529
1.89826
1.8909
1.88268
1.87198
1.86081
1.85189
1.84614
1.84174
1.83771
1.83334
1.82487
1.81032
1.79508
1.78769
1.78128
2.21322
2.15743
2.09898
2.04503
1.98875
1.92782
1.87836
1.82907
1.78054
1.73114
1.69486
1.65717
1.62181
1.58584
1.55119
1.52552
1.50626
1.48269
1.45133
1.4293
1.40992
1.39279
1.40059
1.47315
1.64131
1.78298
1.80461
1.79284
1.77959
1.77553
1.76797
1.75624
1.74897
1.74639
1.74998
1.7766
1.89042
2.07361
2.22263
2.25836
2.25515
2.25146
2.24855
2.25023
2.24567
2.23509
2.21605
2.19855
2.19028
2.18439
2.18243
2.17594
2.16613
2.15011
2.13147
2.12122
2.11499
2.11182
2.10687
2.09835
2.0869
2.07088
2.05392
2.04382
2.03754
2.03259
2.02786
2.02028
2.00835
1.99167
1.97497
1.96437
1.95837
1.95443
1.95198
1.948
1.94085
1.92955
1.91364
1.8983
1.8873
1.87887
1.87076
1.86313
1.85764
1.85294
1.84804
1.84188
1.83439
1.82573
1.81434
1.80117
1.78748
1.77673
1.7742
1.76958
2.21112
2.16235
2.11156
2.06213
2.00836
1.95444
1.9094
1.86426
1.81405
1.76897
1.73438
1.69671
1.65862
1.62891
1.5996
1.56328
1.53612
1.51997
1.50003
1.47148
1.44314
1.44966
1.52756
1.69129
1.8163
1.83892
1.82499
1.80774
1.79739
1.78765
1.77333
1.75149
1.7381
1.7329
1.72703
1.72214
1.72713
1.77778
1.93338
2.10832
2.20109
2.21501
2.22307
2.22988
2.23124
2.2242
2.20989
2.18863
2.17313
2.16605
2.16161
2.15948
2.15281
2.14326
2.12827
2.11133
2.10116
2.09389
2.08658
2.08013
2.0728
2.06321
2.05006
2.03502
2.02366
2.01571
2.00839
2.00094
1.99381
1.98511
1.97387
1.96063
1.94923
1.94212
1.93697
1.93217
1.9273
1.91935
1.90584
1.88837
1.87301
1.86257
1.85612
1.85226
1.85043
1.84877
1.84514
1.83823
1.82655
1.81152
1.7972
1.78405
1.77179
1.76595
1.76483
1.76147
2.20561
2.16221
2.11847
2.07392
2.02446
1.97692
1.93382
1.8908
1.84312
1.80446
1.7685
1.73225
1.69045
1.66204
1.63759
1.60769
1.572
1.54715
1.52906
1.50643
1.51405
1.6006
1.77466
1.87654
1.877
1.86058
1.84353
1.83316
1.82423
1.81181
1.79592
1.77388
1.74839
1.73111
1.72134
1.7146
1.70887
1.70155
1.70934
1.78411
1.94522
2.09622
2.16401
2.19083
2.20683
2.20432
2.19399
2.17844
2.15701
2.14534
2.13986
2.1368
2.13409
2.12769
2.11877
2.10461
2.08701
2.075
2.06771
2.06089
2.0543
2.04786
2.04001
2.02833
2.01249
1.99929
1.99053
1.9835
1.97729
1.97183
1.96545
1.95643
1.94365
1.93125
1.92252
1.91518
1.90759
1.9
1.89172
1.87933
1.86465
1.85399
1.84857
1.84491
1.84133
1.83672
1.83013
1.82148
1.80971
1.79629
1.78372
1.77225
1.76676
1.76208
1.75797
1.75227
2.19541
2.15784
2.11931
2.07904
2.03399
1.9932
1.95415
1.91178
1.86776
1.833
1.79699
1.7618
1.72416
1.69439
1.66525
1.63721
1.6077
1.57983
1.55569
1.56718
1.66034
1.83597
1.94325
1.93861
1.91028
1.88064
1.86537
1.85617
1.84511
1.83105
1.81563
1.79626
1.76767
1.74421
1.72983
1.71689
1.70441
1.69301
1.68458
1.67399
1.6895
1.78925
1.95277
2.08163
2.13758
2.16296
2.16707
2.15763
2.1416
2.12344
2.11494
2.11126
2.10888
2.10558
2.09948
2.09041
2.07504
2.05718
2.0468
2.04013
2.03389
2.02856
2.02275
2.01515
2.00229
1.98488
1.9726
1.96584
1.96053
1.95604
1.95133
1.94505
1.93508
1.92137
1.90805
1.89789
1.8894
1.88104
1.87225
1.86441
1.85711
1.84927
1.84113
1.83436
1.8287
1.82288
1.81541
1.80484
1.79227
1.78073
1.7723
1.76827
1.76502
1.7599
1.75369
1.74238
2.18098
2.14937
2.11652
2.08021
2.04157
2.00563
1.96855
1.92648
1.88967
1.85706
1.8226
1.78382
1.75175
1.72454
1.69354
1.6625
1.63397
1.61068
1.62824
1.72968
1.88176
1.98771
1.98769
1.96652
1.93782
1.90776
1.88705
1.8741
1.86107
1.84679
1.83144
1.81415
1.79213
1.76426
1.74015
1.72296
1.70812
1.69321
1.67809
1.66408
1.65525
1.64468
1.67269
1.79439
1.94495
2.0593
2.10485
2.1204
2.11825
2.102
2.08784
2.08192
2.07863
2.07682
2.07237
2.06665
2.05701
2.04032
2.02525
2.0174
2.01154
2.00577
2.00021
1.99457
1.98622
1.97207
1.95742
1.94876
1.94269
1.93709
1.93138
1.92562
1.91905
1.90844
1.89383
1.88129
1.8722
1.86425
1.85736
1.85171
1.84594
1.83911
1.83034
1.82086
1.8133
1.80683
1.79935
1.78927
1.77653
1.76816
1.76504
1.76277
1.75955
1.75453
1.74674
1.72856
2.16628
2.13907
2.11029
2.0779
2.04422
2.01165
1.97697
1.93837
1.90586
1.87394
1.84107
1.80409
1.77607
1.74692
1.71519
1.68495
1.666
1.69766
1.82853
1.9539
2.02111
2.01967
1.99769
1.97856
1.96061
1.93775
1.90907
1.88801
1.87267
1.85755
1.84154
1.82421
1.80483
1.78129
1.75554
1.73467
1.71795
1.70243
1.68701
1.67081
1.65233
1.6353
1.61909
1.61664
1.65991
1.7892
1.93251
2.0323
2.06006
2.0692
2.06236
2.04839
2.04475
2.04294
2.0392
2.03529
2.02946
2.01672
2.00184
1.99334
1.98735
1.98131
1.97538
1.96956
1.96272
1.95284
1.94086
1.9312
1.92394
1.91744
1.91121
1.90501
1.89782
1.88856
1.87636
1.86437
1.85708
1.85238
1.84787
1.84221
1.83464
1.82469
1.813
1.80266
1.79491
1.78878
1.78261
1.77524
1.76782
1.76215
1.75863
1.75634
1.75294
1.74654
1.7368
1.71607
2.14929
2.12589
2.09972
2.07111
2.04258
2.01234
1.97938
1.94586
1.91742
1.88738
1.85364
1.82144
1.79431
1.76319
1.73561
1.72004
1.76571
1.91509
2.05449
2.07313
2.05429
2.02725
2.00741
1.99622
1.98135
1.96086
1.93328
1.90316
1.88167
1.86437
1.84772
1.83023
1.81157
1.79079
1.76714
1.74421
1.72488
1.70769
1.69181
1.6762
1.65917
1.63966
1.61679
1.59754
1.58643
1.59233
1.65533
1.79216
1.91502
1.99222
2.01371
2.01055
2.00844
2.00665
2.0048
2.00116
1.99588
1.98514
1.97171
1.96435
1.95992
1.95531
1.94985
1.94316
1.93508
1.92561
1.91601
1.90832
1.90251
1.89739
1.89194
1.88538
1.87713
1.86628
1.85234
1.84271
1.83951
1.83701
1.83397
1.82938
1.82222
1.81105
1.79628
1.78236
1.7739
1.76808
1.76418
1.76294
1.76205
1.75918
1.75235
1.74162
1.73144
1.72418
1.71654
1.70243
2.13369
2.11262
2.08854
2.0631
2.03773
2.01024
1.97968
1.95168
1.92408
1.89556
1.8616
1.83543
1.80682
1.77743
1.78017
1.84426
1.97851
2.10563
2.12074
2.10104
2.06725
2.03774
2.01921
2.00662
1.9915
1.9716
1.94827
1.92027
1.89281
1.87078
1.85182
1.83341
1.81476
1.79548
1.77452
1.75175
1.73028
1.71233
1.69593
1.67976
1.66327
1.64559
1.62449
1.60272
1.58163
1.56823
1.56003
1.57249
1.64874
1.77756
1.88989
1.94623
1.95206
1.96302
1.97301
1.96802
1.96152
1.95107
1.93936
1.932
1.92817
1.92511
1.9211
1.91591
1.9086
1.89819
1.88669
1.87877
1.87477
1.8717
1.86836
1.86427
1.85837
1.84799
1.83129
1.81925
1.81673
1.81517
1.81344
1.81035
1.80541
1.79681
1.78148
1.76302
1.753
1.75107
1.75121
1.75282
1.75252
1.75042
1.74277
1.72842
1.71334
1.70217
1.69548
1.68539
2.11358
2.09457
2.07308
2.05186
2.02912
2.00367
1.97684
1.9524
1.92642
1.89807
1.86696
1.8428
1.82058
1.83887
1.93778
2.06376
2.13256
2.15476
2.13998
2.11405
2.08665
2.0551
2.02594
2.0077
1.99267
1.97519
1.95518
1.93168
1.90394
1.87707
1.85516
1.836
1.81728
1.79842
1.77881
1.75761
1.73534
1.71489
1.69736
1.68117
1.66447
1.64724
1.62886
1.60802
1.58459
1.56461
1.54832
1.53932
1.53365
1.55227
1.6306
1.75457
1.83995
1.89513
1.91663
1.92875
1.92762
1.91895
1.91071
1.90328
1.89539
1.89142
1.88811
1.88385
1.8788
1.87219
1.86257
1.85139
1.84414
1.84082
1.83845
1.83622
1.83324
1.8274
1.81555
1.79939
1.79015
1.78755
1.78576
1.78431
1.78211
1.77756
1.76768
1.75223
1.7398
1.73559
1.73434
1.73327
1.73305
1.73286
1.72931
1.71738
1.69949
1.68511
1.67928
1.67473
2.09452
2.07714
2.05854
2.03969
2.01929
1.99572
1.97378
1.95036
1.92584
1.89556
1.8736
1.86023
1.89844
2.02712
2.16219
2.18019
2.16269
2.1459
2.13045
2.11573
2.09587
2.06835
2.03412
2.00863
1.99215
1.97608
1.95665
1.93477
1.91037
1.88374
1.85839
1.83711
1.818
1.79896
1.77937
1.75888
1.7372
1.71556
1.69566
1.67815
1.66235
1.64699
1.63081
1.61313
1.59302
1.57036
1.54839
1.53087
1.51753
1.51082
1.50604
1.5298
1.60664
1.71783
1.80313
1.85464
1.87368
1.88668
1.88571
1.8794
1.86828
1.85792
1.85171
1.84765
1.84515
1.84312
1.83929
1.83016
1.81771
1.81034
1.80675
1.80423
1.80203
1.79902
1.7935
1.78231
1.76702
1.76035
1.75844
1.75669
1.75419
1.75069
1.74613
1.73952
1.7301
1.71973
1.71367
1.71146
1.71019
1.70807
1.70466
1.69917
1.68976
1.67913
1.67025
1.66201
2.08337
2.06425
2.04652
2.02848
2.00872
1.98758
1.96671
1.94535
1.92068
1.89729
1.90115
1.96964
2.09401
2.21223
2.24559
2.22001
2.17311
2.13685
2.12051
2.11248
2.09759
2.0754
2.04602
2.01462
1.99295
1.97441
1.95469
1.93337
1.9108
1.8867
1.86146
1.83745
1.816
1.79611
1.77667
1.75717
1.73688
1.71569
1.69455
1.67509
1.658
1.6424
1.62745
1.6118
1.59442
1.57471
1.55446
1.53505
1.51735
1.50196
1.48858
1.48205
1.48009
1.50434
1.58681
1.68876
1.77107
1.81906
1.84558
1.84947
1.84501
1.8309
1.8196
1.81513
1.8145
1.81451
1.81344
1.80843
1.79683
1.78411
1.77715
1.77317
1.77039
1.76862
1.76699
1.76182
1.75056
1.73922
1.73313
1.72974
1.72722
1.72515
1.72346
1.7214
1.71525
1.70239
1.69191
1.6876
1.68481
1.68182
1.6785
1.67482
1.67249
1.66943
1.66132
1.64752
2.06826
2.0498
2.03379
2.0165
1.9966
1.97828
1.95645
1.93803
1.92496
1.94944
2.05246
2.17723
2.23207
2.24508
2.23351
2.20607
2.17309
2.14143
2.12319
2.11181
2.09742
2.07728
2.05151
2.01998
1.99179
1.96996
1.94955
1.92862
1.90739
1.88546
1.86139
1.83564
1.81141
1.78984
1.76993
1.75076
1.73132
1.71094
1.69002
1.67024
1.65243
1.63604
1.62069
1.60556
1.58981
1.57313
1.55568
1.53761
1.52
1.50401
1.48885
1.47352
1.46292
1.45644
1.45941
1.4866
1.57007
1.67171
1.75954
1.80046
1.81008
1.80759
1.80159
1.79245
1.78975
1.78754
1.78519
1.78293
1.77519
1.76157
1.75228
1.74764
1.74463
1.74157
1.738
1.73433
1.72872
1.71965
1.71035
1.70536
1.70352
1.70307
1.70296
1.69948
1.68916
1.67793
1.66956
1.66326
1.65871
1.65519
1.65314
1.65372
1.65419
1.65297
1.64898
1.63731
2.04999
2.03651
2.01985
2.00093
1.98478
1.96572
1.94851
1.95285
2.01379
2.14242
2.25268
2.27656
2.26367
2.23923
2.21069
2.1919
2.17219
2.1475
2.12702
2.1108
2.09318
2.07242
2.04763
2.01751
1.9886
1.96503
1.94357
1.9221
1.90025
1.87791
1.8542
1.82927
1.80543
1.78379
1.76376
1.74464
1.72559
1.7058
1.6853
1.66551
1.64781
1.63171
1.61653
1.60225
1.58785
1.57247
1.55583
1.5386
1.52032
1.50339
1.48917
1.47652
1.46359
1.45099
1.4437
1.43523
1.44025
1.47952
1.56879
1.66705
1.73314
1.77431
1.78242
1.78029
1.77766
1.77188
1.76538
1.75784
1.74759
1.74077
1.73577
1.73031
1.72473
1.71944
1.71494
1.7113
1.70669
1.69804
1.68844
1.68592
1.68468
1.68086
1.67389
1.66652
1.66048
1.6547
1.64734
1.63926
1.63436
1.63338
1.63395
1.63447
1.63432
1.63467
1.63258
1.65189
1.95757
2.0268
2.01076
1.9878
1.97045
1.96299
1.99113
2.09012
2.21306
2.29067
2.29746
2.26932
2.2461
2.22493
2.20275
2.18751
2.17083
2.14646
2.12293
2.10383
2.08444
2.06274
2.0381
2.00983
1.98154
1.95769
1.93625
1.91487
1.89282
1.86976
1.84546
1.82065
1.79746
1.77679
1.75777
1.73958
1.72164
1.70326
1.68347
1.66326
1.64478
1.62851
1.61338
1.59938
1.58656
1.57319
1.55731
1.53995
1.52338
1.5074
1.4913
1.47891
1.46776
1.45583
1.44411
1.43242
1.42798
1.42415
1.43341
1.48231
1.56602
1.66637
1.72109
1.75709
1.76081
1.75959
1.75603
1.74867
1.73609
1.72477
1.71685
1.71068
1.70565
1.70209
1.69873
1.69429
1.68834
1.68139
1.67365
1.66656
1.65961
1.65381
1.64773
1.64178
1.63527
1.62665
1.62079
1.6185
1.61862
1.61906
1.61938
1.62033
1.61988
1.62728
1.65
1.73874
1.70618
1.97175
1.99367
1.97515
1.97837
2.04563
2.18726
2.27403
2.2974
2.29687
2.27843
2.25047
2.22654
2.21295
2.19807
2.18061
2.16158
2.13628
2.11074
2.09134
2.07234
2.0509
2.02628
1.99912
1.97244
1.94869
1.92725
1.90657
1.88566
1.86391
1.84089
1.81685
1.79352
1.77278
1.75441
1.73695
1.71979
1.70266
1.68472
1.66534
1.64526
1.62759
1.6134
1.60028
1.58681
1.57548
1.56462
1.55013
1.53047
1.51322
1.50294
1.49387
1.48507
1.47664
1.46689
1.45662
1.44309
1.42903
1.42035
1.41819
1.43182
1.48886
1.58365
1.67592
1.71185
1.73181
1.7363
1.73384
1.7274
1.71729
1.70799
1.70281
1.69922
1.69502
1.69083
1.68559
1.67668
1.66404
1.65206
1.64264
1.63666
1.63294
1.6301
1.62571
1.61834
1.61028
1.60506
1.6028
1.60162
1.60289
1.60443
1.61336
1.64118
1.69808
1.7563
1.83347
1.24463
1.78669
1.93498
1.98527
2.10928
2.24983
2.33247
2.31663
2.2866
2.27641
2.26025
2.23886
2.21751
2.20281
2.19024
2.17194
2.15122
2.12738
2.10165
2.08091
2.06183
2.04112
2.01814
1.99247
1.96599
1.94231
1.9216
1.90202
1.8823
1.86183
1.83999
1.81676
1.79359
1.7727
1.75475
1.73875
1.72381
1.70913
1.69329
1.67529
1.65568
1.63625
1.61816
1.60377
1.59376
1.58429
1.57131
1.55676
1.54171
1.52607
1.50967
1.49535
1.48624
1.48039
1.47509
1.46828
1.45845
1.44634
1.43356
1.42412
1.41488
1.41554
1.43477
1.49837
1.59008
1.6751
1.71736
1.72068
1.71695
1.71107
1.70079
1.69127
1.68349
1.6771
1.67273
1.66796
1.66204
1.65457
1.64421
1.63358
1.62505
1.6175
1.61033
1.60279
1.59923
1.59911
1.59753
1.59645
1.59674
1.60648
1.63505
1.68693
1.75203
1.8108
1.83813
1.85502
1.01696
1.36511
1.72513
2.15276
2.32429
2.36003
2.35598
2.32769
2.29507
2.27826
2.26466
2.24321
2.21863
2.19775
2.18341
2.16515
2.144
2.12158
2.09657
2.07397
2.0544
2.03376
2.01166
1.98809
1.96387
1.94122
1.92113
1.90265
1.88439
1.86543
1.84509
1.82334
1.80146
1.78152
1.76449
1.74947
1.73506
1.72023
1.70432
1.68731
1.66966
1.65294
1.63772
1.62275
1.60746
1.5976
1.59024
1.5793
1.56411
1.54632
1.52848
1.51422
1.50451
1.49786
1.49323
1.48806
1.4806
1.47085
1.45794
1.44314
1.42916
1.41857
1.40827
1.41213
1.44344
1.51485
1.60685
1.671
1.71846
1.71764
1.71287
1.70249
1.69289
1.68532
1.67638
1.66389
1.65268
1.6443
1.63716
1.63004
1.6226
1.61502
1.60624
1.59905
1.59494
1.59497
1.59642
1.6079
1.6409
1.70084
1.76269
1.81536
1.84323
1.8487
1.85605
1.86058
1.00023
1.04023
1.65041
2.47221
2.5117
2.45296
2.41118
2.37487
2.33654
2.30941
2.29023
2.27163
2.24712
2.22353
2.20786
2.19014
2.16899
2.1469
2.12285
2.09876
2.07815
2.0586
2.03782
2.01599
1.99391
1.9732
1.9546
1.9373
1.9201
1.90205
1.88251
1.86144
1.84002
1.82011
1.80254
1.78667
1.77151
1.75624
1.74023
1.72317
1.70536
1.68795
1.67131
1.65474
1.63791
1.62076
1.603
1.58604
1.57122
1.56254
1.5581
1.55106
1.54158
1.52984
1.51854
1.5082
1.49801
1.488
1.47732
1.46594
1.45277
1.43885
1.42522
1.41389
1.4058
1.41326
1.45375
1.52903
1.62288
1.67523
1.71153
1.71076
1.70753
1.70187
1.69037
1.67425
1.65706
1.64244
1.63236
1.62495
1.61861
1.61223
1.60822
1.60604
1.60454
1.61399
1.6488
1.71448
1.78405
1.84231
1.86036
1.86784
1.86599
1.86364
1.86607
1.86614
1
1.00091
1.92769
2.72749
2.68191
2.57782
2.51367
2.46605
2.42466
2.39194
2.36587
2.34451
2.31467
2.28385
2.2609
2.23792
2.21154
2.18585
2.16137
2.13652
2.11454
2.0951
2.07546
2.05523
2.03526
2.01638
1.99876
1.98155
1.96356
1.94407
1.92285
1.90041
1.87793
1.85679
1.83757
1.81962
1.80234
1.785
1.76681
1.74751
1.7276
1.70843
1.69121
1.67629
1.6618
1.64531
1.62672
1.61108
1.60113
1.59268
1.58255
1.57249
1.56324
1.55482
1.54626
1.53544
1.52324
1.51127
1.49965
1.48922
1.47701
1.46306
1.44745
1.42801
1.41329
1.40484
1.40083
1.41173
1.46527
1.55743
1.64639
1.67538
1.69801
1.69915
1.69446
1.68254
1.6649
1.64735
1.63597
1.62873
1.62336
1.62052
1.62148
1.63171
1.66355
1.73231
1.80877
1.85723
1.89625
1.90975
1.90874
1.90394
1.8935
1.88048
1.87187
1.86179
1
1.00002
2.15201
2.80545
2.78173
2.71925
2.66357
2.61171
2.56437
2.52323
2.48598
2.44775
2.40769
2.37156
2.33989
2.31382
2.28653
2.25616
2.22975
2.20636
2.18391
2.16433
2.1454
2.12592
2.10659
2.08768
2.06873
2.04905
2.02816
2.00597
1.98261
1.95876
1.93543
1.9132
1.89196
1.87091
1.85
1.82916
1.80794
1.78622
1.76489
1.74611
1.72963
1.71371
1.69627
1.67668
1.65767
1.64243
1.63144
1.62248
1.61462
1.60663
1.59647
1.58264
1.56717
1.55262
1.53929
1.52622
1.51186
1.49703
1.48188
1.46608
1.45045
1.43593
1.42137
1.40729
1.39927
1.39463
1.40033
1.42319
1.49053
1.58053
1.66161
1.69102
1.68579
1.67622
1.66427
1.64864
1.63915
1.6374
1.63805
1.64894
1.69051
1.75175
1.82987
1.89258
1.92394
1.93263
1.93842
1.93742
1.93092
1.92013
1.90483
1.89149
1.88011
1.86665
1
1
2.19585
2.78769
2.79376
2.77361
2.744
2.70603
2.66726
2.62938
2.59337
2.55636
2.51919
2.48395
2.45058
2.41907
2.38801
2.35467
2.32411
2.29984
2.27667
2.2546
2.23336
2.21043
2.18645
2.16219
2.13784
2.11337
2.08846
2.06283
2.03631
2.00944
1.9833
1.9584
1.93479
1.9116
1.88858
1.86549
1.84235
1.81991
1.79877
1.77926
1.76034
1.74131
1.72174
1.70217
1.68492
1.67103
1.66019
1.65034
1.64018
1.62876
1.61588
1.60132
1.58573
1.57057
1.55575
1.54079
1.5254
1.51033
1.4948
1.47795
1.46162
1.44778
1.4338
1.41933
1.40689
1.39626
1.39013
1.38289
1.38861
1.42961
1.5117
1.59656
1.65163
1.68029
1.67591
1.66184
1.65898
1.66909
1.70617
1.77432
1.8607
1.91666
1.95645
1.97597
1.97358
1.96836
1.9571
1.94626
1.93474
1.9232
1.91133
1.89873
1.88704
1.87233
1
1
2.18133
2.75152
2.79019
2.77766
2.76412
2.74195
2.71562
2.68558
2.65363
2.62022
2.58667
2.55371
2.52166
2.48934
2.45682
2.4248
2.39565
2.37107
2.34685
2.3204
2.29493
2.26922
2.243
2.21665
2.18977
2.16145
2.13098
2.09881
2.06691
2.03746
2.01092
1.98652
1.9637
1.94091
1.91694
1.89078
1.86352
1.83811
1.81544
1.79497
1.77542
1.75639
1.73784
1.7203
1.70467
1.68994
1.67604
1.66283
1.65021
1.6379
1.62557
1.61228
1.59748
1.58275
1.56712
1.54932
1.53104
1.51493
1.50041
1.48578
1.47077
1.45675
1.44335
1.42988
1.41634
1.40254
1.38869
1.37844
1.3711
1.3689
1.38297
1.44268
1.53156
1.61499
1.65385
1.68988
1.74542
1.80835
1.86767
1.9301
1.96794
1.99543
2.00795
2.00015
1.98593
1.97249
1.96136
1.95398
1.94482
1.9325
1.9201
1.90592
1.89204
1.87731
1
1
2.16433
2.7306
2.78583
2.77541
2.76492
2.74677
2.72453
2.69847
2.67038
2.64158
2.61293
2.58439
2.5556
2.52657
2.49605
2.46554
2.43606
2.40864
2.37969
2.34961
2.32225
2.29546
2.26819
2.24008
2.21053
2.17867
2.1441
2.10827
2.07465
2.0457
2.02057
1.99754
1.9753
1.95185
1.92588
1.89713
1.8679
1.8417
1.81892
1.79868
1.77975
1.76197
1.74503
1.72812
1.71113
1.69432
1.67887
1.66462
1.65131
1.6392
1.62848
1.61798
1.6056
1.58989
1.57037
1.54997
1.53091
1.51412
1.49921
1.48615
1.47523
1.46402
1.44952
1.43175
1.41644
1.40227
1.38734
1.3745
1.36561
1.36185
1.35765
1.36461
1.40061
1.49243
1.62888
1.76266
1.86711
1.9547
2.03436
2.0831
2.0784
2.06834
2.04575
2.01099
1.9845
1.96902
1.95791
1.95032
1.94396
1.93423
1.92098
1.90654
1.89328
1.88092
)
;

boundaryField
{
    inlet
    {
        type            fixedValue;
        value           uniform 1;
    }
    outlet
    {
        type            inletOutlet;
        inletValue      uniform 1;
        value           nonuniform List<scalar> 
32
(
1.94392
1.94306
1.94081
1.92993
1.90398
1.86793
1.83028
1.79992
1.78196
1.77048
1.76282
1.75336
1.7419
1.72672
1.71413
1.70172
1.68572
1.6762
1.66255
1.64687
1.63562
1.65029
1.73694
1.83293
1.85589
1.86265
1.86721
1.86208
1.8665
1.87195
1.87713
1.8809
)
;
    }
    bottom
    {
        type            symmetryPlane;
    }
    top
    {
        type            symmetryPlane;
    }
    obstacle
    {
        type            zeroGradient;
    }
    defaultFaces
    {
        type            empty;
    }
}


// ************************************************************************* //
