/*--------------------------------*- C++ -*----------------------------------*\
  =========                 |
  \\      /  F ield         | OpenFOAM: The Open Source CFD Toolbox
   \\    /   O peration     | Website:  https://openfoam.org
    \\  /    A nd           | Version:  7
     \\/     M anipulation  |
\*---------------------------------------------------------------------------*/
FoamFile
{
    version     2.0;
    format      ascii;
    class       volScalarField;
    location    "2.2";
    object      p;
}
// * * * * * * * * * * * * * * * * * * * * * * * * * * * * * * * * * * * * * //

dimensions      [1 -1 -2 0 0 0 0];

internalField   nonuniform List<scalar> 
64512
(
1
1
1
1
1
1
1
1
1
1
1
1
1
1
1
1
1
1
1
1
1
1
1
1
1
1
1
1
1
1
1
1
1
1
1
1
1
1
1
1
1
1
1
1
1
1
1
1
1
1.77787
8.4254
10.4842
10.5103
10.5889
10.644
10.693
10.7339
10.7737
10.8193
10.8787
10.9493
11.0193
11.0793
11.1272
11.166
11.2009
11.2383
11.2825
11.3333
11.3862
11.4356
11.478
11.5143
11.5489
11.584
11.6203
11.6598
11.7029
11.7472
11.7889
11.8239
11.8508
11.8711
11.8884
11.9059
11.9261
11.9501
11.9761
12.0019
12.0268
12.048
12.0607
12.0646
12.0573
12.0436
12.0303
1
1
1
1
1
1
1
1
1
1
1
1
1
1
1
1
1
1
1
1
1
1
1
1
1
1
1
1
1
1
1
1
1
1
1
1
1
1
1
1
1
1
1
1
1
1
1
1
1
1.76039
8.38944
10.4764
10.5116
10.5862
10.6425
10.6919
10.7328
10.7722
10.8183
10.8784
10.9493
11.0196
11.0794
11.1275
11.1665
11.2019
11.2396
11.2836
11.3334
11.3848
11.4329
11.475
11.5117
11.5471
11.5832
11.62
11.6594
11.7019
11.7451
11.7858
11.8202
11.8472
11.8682
11.8863
11.9045
11.9245
11.948
11.9732
11.9984
12.0232
12.0444
12.0571
12.0609
12.0537
12.0404
12.0275
1
1
1
1
1
1
1
1
1
1
1
1
1
1
1
1
1
1
1
1
1
1
1
1
1
1
1
1
1
1
1
1
1
1
1
1
1
1
1
1
1
1
1
1
1
1
1
1
1
1.71984
8.32009
10.4703
10.5024
10.5798
10.6388
10.689
10.7301
10.7695
10.8161
10.8764
10.9475
11.0179
11.0778
11.1264
11.166
11.2021
11.2402
11.2841
11.3328
11.383
11.4295
11.4708
11.5076
11.5439
11.5812
11.6189
11.6586
11.7002
11.7419
11.7809
11.8144
11.8416
11.8636
11.883
11.9019
11.9219
11.9444
11.9685
11.9931
12.0177
12.0388
12.0514
12.055
12.0479
12.035
12.0227
1
1
1
1
1
1
1
1
1
1
1
1
1
1
1
1
1
1
1
1
1
1
1
1
1
1
1
1
1
1
1
1
1
1
1
1
1
1
1
1
1
1
1
1
1
1
1
1
1
1.65989
8.21508
10.462
10.4951
10.5739
10.6347
10.6859
10.7278
10.7676
10.8143
10.8741
10.9448
11.0151
11.0752
11.1242
11.1649
11.2019
11.2401
11.2833
11.3304
11.3788
11.4235
11.464
11.5013
11.5387
11.5775
11.6163
11.6561
11.6969
11.7369
11.7741
11.8066
11.8339
11.8571
11.878
11.8978
11.9176
11.939
11.9617
11.9854
12.0096
12.0304
12.0428
12.0463
12.0393
12.0269
12.0152
1
1
1
1
1
1
1
1
1
1
1
1
1
1
1
1
1
1
1
1
1
1
1
1
1
1
1
1
1
1
1
1
1
1
1
1
1
1
1
1
1
1
1
1
1
1
1
1
1
1.58218
8.06693
10.4547
10.4889
10.5675
10.6303
10.6837
10.7264
10.766
10.8119
10.8705
10.9404
11.0098
11.0701
11.1207
11.1631
11.2014
11.2398
11.2821
11.3273
11.3738
11.4167
11.4563
11.4938
11.5317
11.5713
11.6109
11.6509
11.6911
11.7298
11.7654
11.7969
11.8244
11.8488
11.871
11.8918
11.9115
11.9318
11.9531
11.9759
11.9995
12.0198
12.0321
12.0351
12.0282
12.0163
12.0054
1
1
1
1
1
1
1
1
1
1
1
1
1
1
1
1
1
1
1
1
1
1
1
1
1
1
1
1
1
1
1
1
1
1
1
1
1
1
1
1
1
1
1
1
1
1
1
1
1
1.48773
7.8713
10.4508
10.4873
10.5639
10.6269
10.6801
10.7232
10.7628
10.8077
10.8652
10.9336
11.0034
11.0652
11.1171
11.1605
11.1988
11.236
11.2768
11.3199
11.365
11.4069
11.4463
11.4843
11.5226
11.5626
11.6025
11.6427
11.6829
11.7208
11.7553
11.786
11.8135
11.8386
11.862
11.8835
11.9032
11.9226
11.9428
11.9647
11.9875
12.0069
12.0188
12.0214
12.0148
12.0035
11.9934
1
1
1
1
1
1
1
1
1
1
1
1
1
1
1
1
1
1
1
1
1
1
1
1
1
1
1
1
1
1
1
1
1
1
1
1
1
1
1
1
1
1
1
1
1
1
1
1
1
1.37897
7.62482
10.4472
10.4877
10.5608
10.6231
10.6755
10.718
10.7571
10.8014
10.8582
10.9264
10.9964
11.0584
11.1104
11.1542
11.1923
11.2289
11.2689
11.3109
11.3556
11.3974
11.4368
11.4749
11.5123
11.5513
11.5905
11.6308
11.6713
11.7093
11.7434
11.7737
11.801
11.8265
11.8504
11.8724
11.8921
11.911
11.9303
11.9514
11.9731
11.9913
12.0026
12.0051
11.9991
11.9888
11.9799
1
1
1
1
1
1
1
1
1
1
1
1
1
1
1
1
1
1
1
1
1
1
1
1
1
1
1
1
1
1
1
1
1
1
1
1
1
1
1
1
1
1
1
1
1
1
1
1
1
1.26251
7.33497
10.443
10.4886
10.5554
10.6152
10.6666
10.7096
10.7498
10.7946
10.851
10.9184
10.9883
11.0509
11.1028
11.1463
11.1832
11.2186
11.2577
11.2991
11.344
11.3863
11.4259
11.4637
11.4999
11.5372
11.5754
11.6155
11.6568
11.6956
11.7301
11.7603
11.7871
11.8122
11.836
11.8581
11.8781
11.8971
11.916
11.9363
11.9564
11.9729
11.9835
11.9858
11.981
11.972
11.9648
1
1
1
1
1
1
1
1
1
1
1
1
1
1
1
1
1
1
1
1
1
1
1
1
1
1
1
1
1
1
1
1
1
1
1
1
1
1
1
1
1
1
1
1
1
1
1
1
1
1.1335
7.02532
10.4374
10.4846
10.549
10.6109
10.6643
10.708
10.747
10.7895
10.8424
10.907
10.9759
11.0383
11.0897
11.1329
11.1694
11.2047
11.244
11.2859
11.3317
11.375
11.4149
11.4521
11.4866
11.5216
11.5579
11.5975
11.6394
11.6794
11.7148
11.7451
11.7712
11.7953
11.8183
11.8403
11.8608
11.8807
11.8996
11.919
11.9372
11.9515
11.9612
11.9636
11.9603
11.9532
11.9483
1
1
1
1
1
1
1
1
1
1
1
1
1
1
1
1
1
1
1
1
1
1
1
1
1
1
1
1
1
1
1
1
1
1
1
1
1
1
1
1
1
1
1
1
1
1
1
1
1
1.00747
6.6665
10.4027
10.4722
10.5345
10.5963
10.648
10.6909
10.7304
10.7734
10.8262
10.8908
10.9605
11.0241
11.0765
11.1202
11.1567
11.1914
11.2298
11.2714
11.3173
11.3612
11.4014
11.4383
11.4715
11.5043
11.5388
11.5775
11.6195
11.6605
11.697
11.7275
11.7527
11.7753
11.7971
11.8189
11.8405
11.8618
11.8813
11.8997
11.9156
11.9274
11.9358
11.9385
11.9372
11.9323
11.9302
1
1
1
1
1
1
1
1
1
1
1
1
1
1
1
1
1
1
1
1
1
1
1
1
1
1
1
1
1
1
1
1
1
1
1
1
1
1
1
1
1
1
1
1
1
1
1
1
1
1.00007
6.20199
10.3415
10.4528
10.5143
10.5807
10.6344
10.6787
10.719
10.7619
10.814
10.8777
10.9472
11.0108
11.0629
11.106
11.1417
11.1752
11.2131
11.2548
11.3011
11.3459
11.3865
11.423
11.4547
11.4853
11.5177
11.5551
11.597
11.6389
11.6763
11.7069
11.7313
11.7524
11.773
11.7948
11.8175
11.8402
11.8604
11.8775
11.8908
11.9001
11.907
11.9104
11.9117
11.9092
11.9103
1
1
1
1
1
1
1
1
1
1
1
1
1
1
1
1
1
1
1
1
1
1
1
1
1
1
1
1
1
1
1
1
1
1
1
1
1
1
1
1
1
1
1
1
1
1
1
1
1
1
5.67958
10.2747
10.4363
10.496
10.5664
10.6214
10.6669
10.7077
10.7504
10.8013
10.8635
10.9318
10.995
11.0469
11.0901
11.1259
11.1588
11.1961
11.2377
11.2835
11.3286
11.3692
11.4053
11.436
11.4649
11.4958
11.5323
11.5738
11.6159
11.6533
11.6836
11.7069
11.7267
11.7465
11.7682
11.7916
11.8152
11.8356
11.8519
11.8629
11.8697
11.8755
11.8798
11.8836
11.8838
11.8882
1
1
1
1
1
1
1
1
1
1
1
1
1
1
1
1
1
1
1
1
1
1
1
1
1
1
1
1
1
1
1
1
1
1
1
1
1
1
1
1
1
1
1
1
1
1
1
1
1
1
5.11439
10.1892
10.4215
10.4792
10.5513
10.6072
10.6537
10.6951
10.7383
10.7887
10.8498
10.9173
10.9802
11.0317
11.0746
11.1103
11.1424
11.1791
11.2204
11.2648
11.3093
11.3491
11.3842
11.4137
11.441
11.471
11.507
11.5484
11.5907
11.6281
11.6578
11.68
11.6984
11.7173
11.7388
11.7621
11.786
11.8064
11.8223
11.8322
11.8371
11.8421
11.847
11.8525
11.8552
11.8623
1
1
1
1
1
1
1
1
1
1
1
1
1
1
1
1
1
1
1
1
1
1
1
1
1
1
1
1
1
1
1
1
1
1
1
1
1
1
1
1
1
1
1
1
1
1
1
1
1
1
4.52489
10.0619
10.4091
10.4654
10.5378
10.5939
10.6407
10.682
10.7248
10.7741
10.8333
10.8989
10.961
11.0121
11.0547
11.0908
11.1226
11.1591
11.2003
11.2436
11.2875
11.3264
11.3608
11.3898
11.4168
11.4464
11.482
11.5224
11.5632
11.599
11.6272
11.6481
11.6659
11.6848
11.7065
11.7298
11.7535
11.7736
11.7893
11.7985
11.802
11.8063
11.8115
11.818
11.8226
11.8317
1
1
1
1
1
1
1
1
1
1
1
1
1
1
1
1
1
1
1
1
1
1
1
1
1
1
1
1
1
1
1
1
1
1
1
1
1
1
1
1
1
1
1
1
1
1
1
1
1
1
3.92859
9.87574
10.396
10.4512
10.5238
10.5788
10.626
10.6683
10.7117
10.7607
10.8183
10.8818
10.9424
10.9922
11.0331
11.0683
11.0992
11.1353
11.1763
11.2183
11.2607
11.2977
11.3308
11.3595
11.3869
11.4172
11.453
11.4928
11.5323
11.5669
11.594
11.6144
11.6321
11.6509
11.6721
11.6944
11.7169
11.7361
11.7516
11.7608
11.764
11.7682
11.7736
11.7808
11.7868
11.7971
1
1
1
1
1
1
1
1
1
1
1
1
1
1
1
1
1
1
1
1
1
1
1
1
1
1
1
1
1
1
1
1
1
1
1
1
1
1
1
1
1
1
1
1
1
1
1
1
1
1
3.33345
9.62017
10.3888
10.441
10.5125
10.5651
10.6108
10.6528
10.6951
10.7429
10.7986
10.8602
10.9198
10.9691
11.0091
11.0447
11.0759
11.1121
11.1526
11.1932
11.2338
11.2686
11.3004
11.3291
11.3572
11.3878
11.423
11.461
11.4982
11.531
11.5573
11.5776
11.5953
11.6139
11.6342
11.6552
11.6764
11.6948
11.7103
11.7199
11.7234
11.7274
11.7325
11.7398
11.7462
11.7567
1
1
1
1
1
1
1
1
1
1
1
1
1
1
1
1
1
1
1
1
1
1
1
1
1
1
1
1
1
1
1
1
1
1
1
1
1
1
1
1
1
1
1
1
1
1
1
1
1
1
2.77078
9.2656
10.389
10.4301
10.4976
10.5504
10.5975
10.6381
10.679
10.7252
10.7789
10.8383
10.8966
10.9454
10.9846
11.0202
11.0522
11.088
11.1275
11.1662
11.2047
11.2374
11.2678
11.2963
11.325
11.3556
11.3896
11.4254
11.4604
11.4919
11.5182
11.5388
11.5566
11.5744
11.5933
11.6124
11.632
11.6494
11.6645
11.6746
11.6786
11.6827
11.6876
11.6948
11.7015
11.7116
1
1
1
1
1
1
1
1
1
1
1
1
1
1
1
1
1
1
1
1
1
1
1
1
1
1
1
1
1
1
1
1
1
1
1
1
1
1
1
1
1
1
1
1
1
1
1
1
1
1
2.23345
8.79887
10.4003
10.4297
10.492
10.5394
10.5843
10.623
10.662
10.7059
10.757
10.814
10.8708
10.9195
10.9584
10.9937
11.0267
11.0619
11.1003
11.1372
11.1737
11.2049
11.2343
11.2628
11.2917
11.3217
11.3539
11.3872
11.42
11.4505
11.4768
11.4976
11.5148
11.5311
11.548
11.5656
11.5839
11.6006
11.6152
11.6253
11.6299
11.6339
11.6381
11.6448
11.6513
11.6603
1
1
1
1
1
1
1
1
1
1
1
1
1
1
1
1
1
1
1
1
1
1
1
1
1
1
1
1
1
1
1
1
1
1
1
1
1
1
1
1
1
1
1
1
1
1
1
1
1
1
1.73342
8.24995
10.4353
10.4201
10.4719
10.518
10.5636
10.6036
10.6427
10.6846
10.733
10.7872
10.842
10.8908
10.9302
10.9654
10.9992
11.0335
11.0706
11.1056
11.1402
11.1704
11.1995
11.2279
11.2568
11.2857
11.3156
11.3462
11.3769
11.4065
11.4326
11.4533
11.4694
11.4838
11.4989
11.5151
11.5324
11.5484
11.5619
11.5708
11.5755
11.5793
11.5833
11.5896
11.5958
11.6033
1
1
1
1
1
1
1
1
1
1
1
1
1
1
1
1
1
1
1
1
1
1
1
1
1
1
1
1
1
1
1
1
1
1
1
1
1
1
1
1
1
1
1
1
1
1
1
1
1
1
1.30934
7.58827
10.4599
10.4273
10.4569
10.4957
10.539
10.5799
10.6181
10.6576
10.7034
10.7555
10.8092
10.8585
10.8989
10.9338
10.9679
11.0014
11.0373
11.0709
11.1039
11.1339
11.1631
11.1917
11.2201
11.2475
11.2749
11.3028
11.3315
11.36
11.3855
11.4055
11.4198
11.432
11.4453
11.4607
11.4773
11.4925
11.5043
11.5112
11.5153
11.5187
11.5226
11.5282
11.5337
11.5395
1
1
1
1
1
1
1
1
1
1
1
1
1
1
1
1
1
1
1
1
1
1
1
1
1
1
1
1
1
1
1
1
1
1
1
1
1
1
1
1
1
1
1
1
1
1
1
1
1
1
1.02287
6.88442
10.3506
10.3546
10.4
10.4521
10.502
10.5458
10.5858
10.6258
10.6703
10.7202
10.7724
10.8221
10.8642
10.8994
10.933
10.9655
11.0002
11.0334
11.0652
11.0953
11.1245
11.1532
11.1809
11.2068
11.2318
11.2571
11.2836
11.3105
11.3347
11.3533
11.3657
11.3757
11.3875
11.4021
11.4179
11.4318
11.4411
11.445
11.4478
11.4509
11.4549
11.4601
11.4648
11.4692
1
1
1
1
1
1
1
1
1
1
1
1
1
1
1
1
1
1
1
1
1
1
1
1
1
1
1
1
1
1
1
1
1
1
1
1
1
1
1
1
1
1
1
1
1
1
1
1
1
1
1.00016
5.98477
10.1834
10.3036
10.3684
10.4285
10.4786
10.5234
10.5635
10.6018
10.6432
10.6899
10.7392
10.7879
10.8292
10.8632
10.8957
10.9269
10.96
10.9928
11.0239
11.0542
11.0833
11.1115
11.1383
11.1628
11.1859
11.209
11.2331
11.2577
11.2799
11.2967
11.307
11.3151
11.3254
11.3389
11.3534
11.3654
11.3718
11.3726
11.3737
11.3759
11.3795
11.3837
11.387
11.3896
1
1
1
1
1
1
1
1
1
1
1
1
1
1
1
1
1
1
1
1
1
1
1
1
1
1
1
1
1
1
1
1
1
1
1
1
1
1
1
1
1
1
1
1
1
1
1
1
1
1
1
5.06693
9.98378
10.2401
10.3181
10.3916
10.4489
10.497
10.539
10.5777
10.6177
10.6621
10.7089
10.7549
10.7953
10.8267
10.8552
10.8837
10.9146
10.9482
10.9802
11.0107
11.0389
11.0661
11.0915
11.1147
11.1364
11.1577
11.1794
11.2012
11.2207
11.2352
11.2437
11.25
11.2587
11.2705
11.2827
11.2916
11.2939
11.2917
11.2903
11.2915
11.2947
11.298
11.2997
11.301
1
1
1
1
1
1
1
1
1
1
1
1
1
1
1
1
1
1
1
1
1
1
1
1
1
1
1
1
1
1
1
1
1
1
1
1
1
1
1
1
1
1
1
1
1
1
1
1
1
1
1
4.11525
9.68586
10.2117
10.3078
10.3755
10.4289
10.4731
10.5123
10.5486
10.5865
10.6288
10.6741
10.7188
10.7589
10.7906
10.8174
10.8421
10.8692
10.901
10.933
10.9642
10.9918
11.0173
11.0406
11.0622
11.0826
11.1023
11.1217
11.1405
11.1569
11.169
11.1758
11.1807
11.1873
11.196
11.2047
11.2095
11.2077
11.2029
11.1991
11.1984
11.1995
11.2001
11.1988
11.1979
1
1
1
1
1
1
1
1
1
1
1
1
1
1
1
1
1
1
1
1
1
1
1
1
1
1
1
1
1
1
1
1
1
1
1
1
1
1
1
1
1
1
1
1
1
1
1
1
1
1
1
3.20725
9.26701
10.2082
10.2774
10.3465
10.4033
10.4513
10.4912
10.527
10.5627
10.6009
10.6421
10.6831
10.7206
10.751
10.7757
10.7979
10.8221
10.8522
10.8851
10.914
10.94
10.9638
10.9854
11.0052
11.0239
11.0419
11.0589
11.0745
11.0879
11.0978
11.1032
11.1064
11.1104
11.115
11.1184
11.1175
11.1113
11.1023
11.0947
11.091
11.0896
11.0876
11.0838
11.0818
1
1
1
1
1
1
1
1
1
1
1
1
1
1
1
1
1
1
1
1
1
1
1
1
1
1
1
1
1
1
1
1
1
1
1
1
1
1
1
1
1
1
1
1
1
1
1
1
1
1
1
2.28167
8.62853
10.2868
10.3021
10.3518
10.3895
10.4238
10.458
10.4935
10.5302
10.5696
10.6109
10.6506
10.6859
10.7139
10.7367
10.7558
10.777
10.8023
10.8326
10.8613
10.8853
10.9064
10.9257
10.944
10.9609
10.9766
10.9906
11.0029
11.0134
11.0211
11.0255
11.027
11.0274
11.0266
11.0231
11.0155
11.0041
10.991
10.9796
10.9717
10.9648
10.9563
10.9467
10.9405
1
1
1
1
1
1
1
1
1
1
1
1
1
1
1
1
1
1
1
1
1
1
1
1
1
1
1
1
1
1
1
1
1
1
1
1
1
1
1
1
1
1
1
1
1
1
1
1
1
1
1
1.47068
7.93611
10.4027
10.2724
10.2991
10.3398
10.3855
10.4277
10.4649
10.4997
10.5364
10.5753
10.6138
10.6489
10.6767
10.6982
10.716
10.7343
10.7555
10.7802
10.8051
10.826
10.8447
10.8627
10.879
10.8936
10.9063
10.9168
10.9253
10.9326
10.9383
10.9413
10.9405
10.9369
10.9295
10.9181
10.9029
10.8848
10.8651
10.8458
10.829
10.8139
10.7992
10.7854
10.7787
1
1
1
1
1
1
1
1
1
1
1
1
1
1
1
1
1
1
1
1
1
1
1
1
1
1
1
1
1
1
1
1
1
1
1
1
1
1
1
1
1
1
1
1
1
1
1
1
1
1
1
1.02893
7.03
10.3065
10.2164
10.2668
10.3144
10.3527
10.3898
10.4275
10.4641
10.5
10.5372
10.5748
10.6094
10.6366
10.6572
10.6746
10.6915
10.7088
10.7285
10.7496
10.7679
10.7834
10.7981
10.8117
10.8233
10.8322
10.8386
10.843
10.8464
10.8492
10.8499
10.8463
10.8379
10.8232
10.8032
10.7791
10.752
10.7237
10.6959
10.6694
10.6427
10.6134
10.5853
10.5665
1
1
1
1
1
1
1
1
1
1
1
1
1
1
1
1
1
1
1
1
1
1
1
1
1
1
1
1
1
1
1
1
1
1
1
1
1
1
1
1
1
1
1
1
1
1
1
1
1
1
1
1.0001
5.81647
10.0133
10.1316
10.2046
10.2621
10.3157
10.3594
10.3951
10.4248
10.4567
10.4934
10.5306
10.5648
10.5922
10.613
10.6305
10.6466
10.6613
10.6768
10.6941
10.7097
10.7227
10.7344
10.7441
10.7511
10.7557
10.758
10.7573
10.7556
10.7541
10.7511
10.7432
10.7287
10.7064
10.6771
10.6431
10.6058
10.5657
10.5218
10.4739
10.4232
10.3733
10.3314
10.3141
1
1
1
1
1
1
1
1
1
1
1
1
1
1
1
1
1
1
1
1
1
1
1
1
1
1
1
1
1
1
1
1
1
1
1
1
1
1
1
1
1
1
1
1
1
1
1
1
1
1
1
0.999999
4.64779
9.77928
10.0616
10.1659
10.2394
10.2818
10.3183
10.3509
10.3823
10.4143
10.4473
10.4828
10.5165
10.5438
10.5646
10.582
10.598
10.6118
10.6251
10.6393
10.6519
10.6615
10.6693
10.6751
10.6783
10.679
10.6767
10.6708
10.6629
10.6552
10.646
10.6316
10.61
10.5793
10.5401
10.4949
10.444
10.387
10.322
10.2507
10.1746
10.0963
10.0105
9.93696
1
1
1
1
1
1
1
1
1
1
1
1
1
1
1
1
1
1
1
1
1
1
1
1
1
1
1
1
1
1
1
1
1
1
1
1
1
1
1
1
1
1
1
1
1
1
1
1
1
1
1
1
3.48133
9.2692
10.0643
10.1488
10.211
10.2583
10.2928
10.3199
10.3456
10.3706
10.4002
10.4335
10.4658
10.4927
10.5134
10.53
10.5453
10.5591
10.5718
10.5841
10.5942
10.5999
10.6027
10.604
10.6036
10.601
10.595
10.5844
10.5693
10.5535
10.5355
10.5123
10.4816
10.4416
10.3918
10.3338
10.2669
10.1895
10.0975
9.98757
9.85173
9.68987
9.52878
9.41159
1
1
1
1
1
1
1
1
1
1
1
1
1
1
1
1
1
1
1
1
1
1
1
1
1
1
1
1
1
1
1
1
1
1
1
1
1
1
1
1
1
1
1
1
1
1
1
1
1
1
1
1
2.32761
8.55111
10.1485
10.1427
10.1799
10.2175
10.2517
10.2843
10.3109
10.3342
10.3592
10.3868
10.4149
10.4397
10.4596
10.4753
10.4894
10.5027
10.5153
10.5267
10.5346
10.5371
10.5355
10.5319
10.5275
10.522
10.513
10.4981
10.4761
10.4503
10.4217
10.3876
10.3461
10.2954
10.234
10.1614
10.0751
9.97097
9.84073
9.67732
9.47648
9.23553
8.97482
8.80803
1
1
1
1
1
1
1
1
1
1
1
1
1
1
1
1
1
1
1
1
1
1
1
1
1
1
1
1
1
1
1
1
1
1
1
1
1
1
1
1
1
1
1
1
1
1
1
1
1
1
1
1
1.34633
7.70462
10.2887
10.1488
10.1367
10.1675
10.2073
10.2418
10.2704
10.2943
10.3186
10.3441
10.3686
10.3897
10.4072
10.4212
10.4332
10.4447
10.4559
10.4661
10.4721
10.4722
10.4669
10.459
10.4504
10.4417
10.4294
10.4101
10.3815
10.3454
10.3048
10.2586
10.2051
10.1427
10.0684
9.97912
9.87001
9.7349
9.56342
9.34437
9.04938
8.6093
7.76614
5.8145
1
1
1
1
1
1
1
1
1
1
1
1
1
1
1
1
1
1
1
1
1
1
1
1
1
1
1
1
1
1
1
1
1
1
1
1
1
1
1
1
1
1
1
1
1
1
1
1
1
1
1
1
1.01421
6.53825
10.0346
10.0177
10.073
10.1131
10.1592
10.1976
10.2285
10.2532
10.2765
10.2999
10.3225
10.3417
10.3568
10.3682
10.3775
10.3858
10.3946
10.4026
10.4065
10.4047
10.3966
10.3852
10.3728
10.3606
10.3444
10.3204
10.2852
10.2393
10.1866
10.1279
10.062
9.98682
9.89802
9.79023
9.65619
9.48742
9.26972
8.97785
8.56679
7.92311
6.9535
4.73533
1
1
1
1
1
1
1
1
1
1
1
1
1
1
1
1
1
1
1
1
1
1
1
1
1
1
1
1
1
1
1
1
1
1
1
1
1
1
1
1
1
1
1
1
1
1
1
1
1
1
1
1
0.999983
5.03322
9.65631
9.95453
10.0384
10.0828
10.1193
10.1556
10.1858
10.21
10.2319
10.2529
10.2732
10.2919
10.3064
10.3164
10.3234
10.3282
10.3333
10.3379
10.3393
10.3352
10.3246
10.3099
10.2938
10.2775
10.2569
10.2276
10.1859
10.1312
10.067
9.99625
9.91803
9.82949
9.72509
9.59788
9.43827
9.23629
8.97302
8.62432
8.12246
7.46511
6.17582
4.36108
1
1
1
1
1
1
1
1
1
1
1
1
1
1
1
1
1
1
1
1
1
1
1
1
1
1
1
1
1
1
1
1
1
1
1
1
1
1
1
1
1
1
1
1
1
1
1
1
1
1
1
1
0.999994
3.64295
9.23375
9.94739
10.0117
10.0592
10.0926
10.1157
10.1401
10.163
10.1843
10.2037
10.2219
10.2396
10.2536
10.2629
10.268
10.2704
10.2714
10.272
10.2712
10.2646
10.2514
10.2334
10.2132
10.1921
10.1664
10.1315
10.0837
10.0216
9.94774
9.86589
9.77556
9.67338
9.55265
9.40619
9.22174
8.99057
8.68893
8.29969
7.75367
6.99581
5.74742
4.25054
1
1
1
1
1
1
1
1
1
1
1
1
1
1
1
1
1
1
1
1
1
1
1
1
1
1
1
1
1
1
1
1
1
1
1
1
1
1
1
1
1
1
1
1
1
1
1
1
1
1
1
1
0.999999
2.28302
8.47331
10.0172
9.99757
10.0228
10.0517
10.0791
10.1034
10.1238
10.1421
10.1584
10.1731
10.1879
10.2004
10.2088
10.2129
10.2137
10.2108
10.2069
10.2032
10.194
10.1778
10.1559
10.1308
10.1039
10.0724
10.032
9.97885
9.91082
9.82931
9.73766
9.63548
9.51978
9.38289
9.21854
9.01254
8.75685
8.42801
8.00338
7.44402
6.64975
5.55302
4.3523
1
1
1
1
1
1
1
1
1
1
1
1
1
1
1
1
1
1
1
1
1
1
1
1
1
1
1
1
1
1
1
1
1
1
1
1
1
1
1
1
1
1
1
1
1
1
1
1
1
1
1
1
1
1.2083
7.44126
10.1253
10.0137
9.98221
10.004
10.0366
10.0607
10.0806
10.0975
10.112
10.1244
10.1361
10.1462
10.1535
10.1561
10.1552
10.1496
10.1417
10.1342
10.1225
10.1037
10.0777
10.0473
10.0139
9.97587
9.93004
9.87204
9.79931
9.71178
9.61175
9.49854
9.36979
9.21788
9.03708
8.81417
8.5392
8.19335
7.75077
7.18718
6.42737
5.49701
4.493
1
1
1
1
1
1
1
1
1
1
1
1
1
1
1
1
1
1
1
1
1
1
1
1
1
1
1
1
1
1
1
1
1
1
1
1
1
1
1
1
1
1
1
1
1
1
1
1
1
1
1
1
1
1.00454
6.01439
9.74718
9.8379
9.9064
9.94558
9.98447
10.0109
10.0327
10.0504
10.0649
10.0764
10.086
10.0933
10.0988
10.0996
10.0968
10.0889
10.0776
10.0653
10.0504
10.0287
9.99872
9.96282
9.92279
9.87829
9.82697
9.76469
9.68831
9.59606
9.48892
9.36581
9.22498
9.05994
8.86488
8.6293
8.34202
7.98717
7.54487
6.98689
6.29695
5.49569
4.63398
1
1
1
1
1
1
1
1
1
1
1
1
1
1
1
1
1
1
1
1
1
1
1
1
1
1
1
1
1
1
1
1
1
1
1
1
1
1
1
1
1
1
1
1
1
1
1
1
1
1
1
1
1
0.999969
4.35353
9.35515
9.80029
9.88174
9.92478
9.94623
9.96633
9.98648
10.0032
10.0168
10.0273
10.0352
10.0394
10.0425
10.0413
10.0365
10.0267
10.0128
9.99603
9.97704
9.95226
9.91892
9.87809
9.83206
9.78152
9.72474
9.65805
9.57802
9.48149
9.36819
9.23662
9.08533
8.90934
8.70301
8.45831
8.16459
7.80916
7.37791
6.84031
6.21889
5.52139
4.77787
1
1
1
1
1
1
1
1
1
1
1
1
1
1
1
1
1
1
1
1
1
1
1
1
1
1
1
1
1
1
1
1
1
1
1
1
1
1
1
1
1
1
1
1
1
1
1
1
1
1
1
1
1
0.999992
2.70118
8.70828
9.86991
9.87356
9.88543
9.90117
9.92345
9.94171
9.95716
9.96975
9.97941
9.98565
9.98681
9.98671
9.98323
9.97626
9.96455
9.94792
9.92712
9.90363
9.87513
9.83865
9.7937
9.74237
9.68617
9.62416
9.55299
9.46939
9.36915
9.25094
9.11275
8.95309
8.76836
8.55377
8.30311
8.00719
7.65937
7.23788
6.73953
6.18629
5.55984
4.91008
1
1
1
1
1
1
1
1
1
1
1
1
1
1
1
1
1
1
1
1
1
1
1
1
1
1
1
1
1
1
1
1
1
1
1
1
1
1
1
1
1
1
1
1
1
1
1
1
1
1
1
1
1
0.999999
1.38135
7.72219
10.0243
9.87925
9.8336
9.85125
9.87746
9.89578
9.91127
9.92344
9.932
9.93658
9.9342
9.93032
9.92385
9.91473
9.90141
9.88269
9.85879
9.83106
9.7985
9.75883
9.71058
9.65494
9.59336
9.52605
9.44987
9.36222
9.25832
9.13615
8.99303
8.82727
8.63621
8.41643
8.16308
7.86879
7.53058
7.12138
6.67493
6.17202
5.59385
5.0306
1
1
1
1
1
1
1
1
1
1
1
1
1
1
1
1
1
1
1
1
1
1
1
1
1
1
1
1
1
1
1
1
1
1
1
1
1
1
1
1
1
1
1
1
1
1
1
1
1
1
1
1
1
1
1.01533
6.22096
9.65661
9.70913
9.76311
9.79577
9.82685
9.84732
9.86433
9.87697
9.88492
9.88737
9.88183
9.87382
9.86369
9.85232
9.83759
9.81695
9.79017
9.75852
9.72208
9.6794
9.62852
9.56952
9.50299
9.43001
9.34861
9.25685
9.1499
9.02524
8.87916
8.70963
8.51457
8.29211
8.03888
7.74846
7.41909
7.03351
6.62628
6.15697
5.63305
5.14367
1
1
1
1
1
1
1
1
1
1
1
1
1
1
1
1
1
1
1
1
1
1
1
1
1
1
1
1
1
1
1
1
1
1
1
1
1
1
1
1
1
1
1
1
1
1
1
1
1
1
1
1
1
1
0.999952
4.35037
9.23753
9.66302
9.73618
9.77416
9.79192
9.80507
9.81918
9.83066
9.83748
9.83743
9.82955
9.81778
9.80389
9.78989
9.7738
9.75194
9.72292
9.68791
9.64764
9.60175
9.54821
9.48613
9.41511
9.33636
9.2495
9.15336
9.04368
8.91734
8.7696
8.59833
8.4018
8.17921
7.92857
7.64358
7.32609
6.96485
6.58131
6.14479
5.68133
5.23916
1
1
1
1
1
1
1
1
1
1
1
1
1
1
1
1
1
1
1
1
1
1
1
1
1
1
1
1
1
1
1
1
1
1
1
1
1
1
1
1
1
1
1
1
1
1
1
1
1
1
1
1
1
1
0.999987
2.52009
8.5557
9.74364
9.73055
9.74179
9.756
9.76722
9.77729
9.78537
9.78932
9.78699
9.77738
9.76259
9.74505
9.72769
9.70948
9.68596
9.6548
9.61689
9.57324
9.5244
9.46847
9.40385
9.32919
9.24547
9.15355
9.053
8.94064
8.81307
8.66515
8.49405
8.2981
8.07725
7.83148
7.55406
7.24817
6.90435
6.54692
6.14269
5.7308
5.31459
1
1
1
1
1
1
1
1
1
1
1
1
1
1
1
1
1
1
1
1
1
1
1
1
1
1
1
1
1
1
1
1
1
1
1
1
1
1
1
1
1
1
1
1
1
1
1
1
1
1
1
1
1
1
0.999998
1.20953
7.36201
9.84262
9.72163
9.69285
9.7094
9.7205
9.72895
9.73562
9.7382
9.73474
9.72422
9.70764
9.68758
9.66739
9.64611
9.62038
9.58729
9.54696
9.50041
9.44876
9.3903
9.32309
9.24523
9.15751
9.06134
8.95671
8.84136
8.71188
8.56402
8.39482
8.2019
7.98463
7.74455
7.47661
7.17914
6.85814
6.52654
6.14374
5.76644
5.36739
1
1
1
1
1
1
1
1
1
1
1
1
1
1
1
1
1
1
1
1
1
1
1
1
1
1
1
1
1
1
1
1
1
1
1
1
1
1
1
1
1
1
1
1
1
1
1
1
1
1
1
1
1
1
1
1.00409
5.59214
9.38119
9.56963
9.64681
9.66873
9.67342
9.67952
9.68431
9.68535
9.68085
9.66972
9.65211
9.6305
9.60766
9.58281
9.5541
9.51873
9.47624
9.42733
9.37332
9.31261
9.2432
9.16302
9.07269
8.97356
8.86566
8.74736
8.61588
8.46808
8.30135
8.11319
7.9013
7.66888
7.40802
7.12143
6.82769
6.50534
6.13905
5.79374
5.42274
1
1
1
1
1
1
1
1
1
1
1
1
1
1
1
1
1
1
1
1
1
1
1
1
1
1
1
1
1
1
1
1
1
1
1
1
1
1
1
1
1
1
1
1
1
1
1
1
1
1
1
1
1
1
1
0.999958
3.50496
8.92707
9.60874
9.62902
9.62829
9.63276
9.63541
9.63722
9.63595
9.62964
9.61699
9.59789
9.5749
9.5496
9.52129
9.48923
9.45119
9.40658
9.3557
9.29954
9.23662
9.16511
9.08302
8.99102
8.89001
8.77979
8.65896
8.52581
8.37815
8.21387
8.03058
7.82452
7.60226
7.34673
7.07602
6.79907
6.47714
6.14301
5.82914
5.48354
1
1
1
1
1
1
1
1
1
1
1
1
1
1
1
1
1
1
1
1
1
1
1
1
1
1
1
1
1
1
1
1
1
1
1
1
1
1
1
1
1
1
1
1
1
1
1
1
1
1
1
1
1
1
1
0.99999
1.73304
8.11022
9.73346
9.60648
9.57106
9.5773
9.58014
9.58225
9.58142
9.57538
9.56273
9.5433
9.51935
9.49177
9.46016
9.42472
9.38399
9.33746
9.28505
9.22709
9.16209
9.08874
9.00533
8.91256
8.81068
8.69896
8.57618
8.44186
8.29453
8.13254
7.95399
7.75428
7.54032
7.2927
7.03978
6.76838
6.45766
6.16327
5.86295
5.53592
1
1
1
1
1
1
1
1
1
1
1
1
1
1
1
1
1
1
1
1
1
1
1
1
1
1
1
1
1
1
1
1
1
1
1
1
1
1
1
1
1
1
1
1
1
1
1
1
1
1
1
1
1
1
1
0.999998
1.05047
6.49848
9.47332
9.48652
9.50189
9.51916
9.52485
9.52822
9.52738
9.5213
9.50905
9.48992
9.46535
9.43579
9.40106
9.36226
9.31885
9.27057
9.21693
9.1574
9.09033
9.01505
8.93065
8.83767
8.73539
8.62269
8.49862
8.36381
8.21727
8.0574
7.8832
7.68976
7.48347
7.24642
7.00508
6.73924
6.45608
6.18543
5.8869
5.58073
1
1
1
1
1
1
1
1
1
1
1
1
1
1
1
1
1
1
1
1
1
1
1
1
1
1
1
1
1
1
1
1
1
1
1
1
1
1
1
1
1
1
1
1
1
1
1
1
1
1
1
1
1
1
1
1
1.0001
4.29675
9.04025
9.43125
9.46827
9.4863
9.48415
9.48307
9.47889
9.47028
9.45691
9.43735
9.41191
9.38059
9.34316
9.30129
9.25541
9.20557
9.15086
9.09001
9.0212
8.94426
8.85914
8.76642
8.66407
8.55064
8.42565
8.29076
8.14528
7.98741
7.8169
7.62943
7.43005
7.20403
6.97226
6.71989
6.46084
6.19557
5.90761
5.6287
1
1
1
1
1
1
1
1
1
1
1
1
1
1
1
1
1
1
1
1
1
1
1
1
1
1
1
1
1
1
1
1
1
1
1
1
1
1
1
1
1
1
1
1
1
1
1
1
1
1
1
1
1
1
1
1
0.999999
2.21633
8.36494
9.51344
9.45545
9.44218
9.44039
9.43605
9.42853
9.41786
9.40361
9.38363
9.35754
9.32514
9.28596
9.24181
9.1938
9.14239
9.08652
9.02447
8.95439
8.87635
8.79086
8.6986
8.59654
8.48285
8.35763
8.22298
8.07865
7.92259
7.75572
7.57395
7.37836
7.16413
6.94803
6.70815
6.45895
6.19835
5.93527
5.67925
1
1
1
1
1
1
1
1
1
1
1
1
1
1
1
1
1
1
1
1
1
1
1
1
1
1
1
1
1
1
1
1
1
1
1
1
1
1
1
1
1
1
1
1
1
1
1
1
1
1
1
1
1
1
1
1
1
1.12783
6.80991
9.49124
9.41548
9.38375
9.39238
9.387
9.37854
9.36645
9.35096
9.32984
9.30262
9.26932
9.2292
9.18387
9.13432
9.08127
9.02385
8.96043
8.88945
8.81105
8.72574
8.63383
8.53207
8.41861
8.29412
8.15994
8.01662
7.86182
7.69944
7.5212
7.32912
7.13087
6.92488
6.69007
6.45201
6.20993
5.96815
5.71992
1
1
1
1
1
1
1
1
1
1
1
1
1
1
1
1
1
1
1
1
1
1
1
1
1
1
1
1
1
1
1
1
1
1
1
1
1
1
1
1
1
1
1
1
1
1
1
1
1
1
1
1
1
1
1
1
1
1.00115
4.58345
8.99145
9.30655
9.34625
9.36016
9.34652
9.33494
9.32031
9.30238
9.27916
9.25027
9.21583
9.17493
9.12854
9.07743
9.02233
8.96276
8.89762
8.82591
8.74757
8.66282
8.57128
8.46989
8.35737
8.23488
8.10182
7.96004
7.80616
7.64817
7.4716
7.28735
7.10173
6.8939
6.66976
6.45213
6.22828
5.99376
5.74838
1
1
1
1
1
1
1
1
1
1
1
1
1
1
1
1
1
1
1
1
1
1
1
1
1
1
1
1
1
1
1
1
1
1
1
1
1
1
1
1
1
1
1
1
1
1
1
1
1
1
1
1
1
1
1
1
1
0.999992
2.30941
8.3571
9.38617
9.33464
9.3199
9.30168
9.28908
9.27194
9.25142
9.22627
9.19641
9.1618
9.12101
9.07443
9.02251
8.96571
8.9039
8.83702
8.76462
8.68647
8.60226
8.5108
8.4095
8.29823
8.17835
8.0471
7.90736
7.75491
7.59968
7.42639
7.25225
7.06864
6.86218
6.658
6.45552
6.23913
6.00471
5.77009
1
1
1
1
1
1
1
1
1
1
1
1
1
1
1
1
1
1
1
1
1
1
1
1
1
1
1
1
1
1
1
1
1
1
1
1
1
1
1
1
1
1
1
1
1
1
1
1
1
1
1
1
1
1
1
1
1
0.999998
1.1395
6.76303
9.34729
9.29086
9.26323
9.25207
9.24063
9.22236
9.19965
9.17298
9.14271
9.10855
9.06875
9.02215
8.96979
8.91173
8.84804
8.77953
8.70635
8.62794
8.54358
8.45178
8.35055
8.24098
8.1239
7.99499
7.85791
7.70857
7.55551
7.38802
7.22005
7.03511
6.84037
6.65154
6.45258
6.23769
6.01265
5.80029
1
1
1
1
1
1
1
1
1
1
1
1
1
1
1
1
1
1
1
1
1
1
1
1
1
1
1
1
1
1
1
1
1
1
1
1
1
1
1
1
1
1
1
1
1
1
1
1
1
1
1
1
1
1
1
1
1
1
1.00136
4.3848
8.85075
9.19176
9.21412
9.21648
9.20638
9.1828
9.15537
9.12548
9.09336
9.05823
9.01878
8.97211
8.91976
8.86097
8.79591
8.72592
8.65171
8.57248
8.48738
8.39489
8.29346
8.18585
8.07042
7.94378
7.80985
7.6651
7.51446
7.35301
7.18664
7.00611
6.82567
6.63983
6.44002
6.23606
6.02849
5.83072
1
1
1
1
1
1
1
1
1
1
1
1
1
1
1
1
1
1
1
1
1
1
1
1
1
1
1
1
1
1
1
1
1
1
1
1
1
1
1
1
1
1
1
1
1
1
1
1
1
1
1
1
1
1
1
1
1
1
0.999991
2.03603
8.16759
9.33189
9.23594
9.19423
9.16058
9.13175
9.10307
9.07303
9.04104
9.00585
8.96689
8.92128
8.86986
8.81156
8.74652
8.67585
8.60078
8.51997
8.43355
8.34014
8.23823
8.13288
8.01827
7.89465
7.76417
7.62445
7.47624
7.31942
7.15597
6.98424
6.81084
6.62347
6.431
6.24458
6.04658
5.85182
1
1
1
1
1
1
1
1
1
1
1
1
1
1
1
1
1
1
1
1
1
1
1
1
1
1
1
1
1
1
1
1
1
1
1
1
1
1
1
1
1
1
1
1
1
1
1
1
1
1
1
1
1
1
1
1
1
1
0.999998
1.0879
6.42775
9.0851
9.13131
9.13371
9.10365
9.07596
9.04768
9.0208
8.99069
8.95651
8.91818
8.87366
8.82289
8.76514
8.7002
8.629
8.55257
8.4701
8.38227
8.2877
8.18617
8.08088
7.96814
7.84744
7.71981
7.58404
7.43833
7.28647
7.12828
6.96292
6.79143
6.60823
6.42989
6.25493
6.05871
5.8642
1
1
1
1
1
1
1
1
1
1
1
1
1
1
1
1
1
1
1
1
1
1
1
1
1
1
1
1
1
1
1
1
1
1
1
1
1
1
1
1
1
1
1
1
1
1
1
1
1
1
1
1
1
1
1
1
1
1
1
1.00041
3.79153
8.6181
9.10241
9.08697
9.0528
9.0323
9.00963
8.98177
8.94909
8.91293
8.87281
8.82712
8.77613
8.71885
8.65431
8.5833
8.50601
8.42235
8.33307
8.23782
8.13676
8.031
7.9206
7.80262
7.67795
7.54499
7.4028
7.25687
7.10331
6.9416
6.77453
6.60052
6.43241
6.26002
6.06504
5.8776
1
1
1
1
1
1
1
1
1
1
1
1
1
1
1
1
1
1
1
1
1
1
1
1
1
1
1
1
1
1
1
1
1
1
1
1
1
1
1
1
1
1
1
1
1
1
1
1
1
1
1
1
1
1
1
1
1
1
1
0.999997
1.55321
7.70581
9.25693
9.08633
9.0276
8.9875
8.96397
8.93591
8.90426
8.86915
8.82885
8.78295
8.73155
8.67413
8.60958
8.53845
8.46038
8.37584
8.28562
8.19024
8.08964
7.98415
7.87464
7.75896
7.63717
7.50651
7.36885
7.22835
7.0779
6.92094
6.7616
6.5958
6.43145
6.2587
6.07141
5.89537
1
1
1
1
1
1
1
1
1
1
1
1
1
1
1
1
1
1
1
1
1
1
1
1
1
1
1
1
1
1
1
1
1
1
1
1
1
1
1
1
1
1
1
1
1
1
1
1
1
1
1
1
1
1
1
1
1
1
1
0.999999
1.02624
5.71305
8.83889
8.89818
8.93472
8.94479
8.9241
8.89247
8.86157
8.82785
8.78701
8.73987
8.6867
8.6284
8.56376
8.49307
8.41509
8.33064
8.24062
8.14578
8.04574
7.94086
7.83181
7.71822
7.59904
7.47098
7.33822
7.20184
7.05447
6.90439
6.7521
6.59114
6.42872
6.2586
6.08437
5.91681
1
1
1
1
1
1
1
1
1
1
1
1
1
1
1
1
1
1
1
1
1
1
1
1
1
1
1
1
1
1
1
1
1
1
1
1
1
1
1
1
1
1
1
1
1
1
1
1
1
1
1
1
1
1
1
1
1
1
1
1
0.999956
2.95232
8.24758
8.93853
8.95039
8.93413
8.89388
8.86009
8.82987
8.79403
8.75014
8.6999
8.64416
8.5843
8.51907
8.44845
8.37089
8.28729
8.19801
8.10403
8.00495
7.90086
7.79223
7.68012
7.56283
7.4375
7.30907
7.17555
7.03224
6.88932
6.74148
6.58411
6.42502
6.26146
6.1001
5.93602
1
1
1
1
1
1
1
1
1
1
1
1
1
1
1
1
1
1
1
1
1
1
1
1
1
1
1
1
1
1
1
1
1
1
1
1
1
1
1
1
1
1
1
1
1
1
1
1
1
1
1
1
1
1
1
1
1
1
1
1
0.999986
1.26567
6.81316
8.99076
8.92866
8.89486
8.85149
8.81982
8.79099
8.75355
8.70788
8.65583
8.59874
8.53814
8.47313
8.40364
8.32786
8.24627
8.15891
8.06654
7.96868
7.8655
7.75749
7.64656
7.53079
7.40831
7.28343
7.15222
7.01378
6.87577
6.73011
6.57757
6.42363
6.26767
6.11485
5.95224
1
1
1
1
1
1
1
1
1
1
1
1
1
1
1
1
1
1
1
1
1
1
1
1
1
1
1
1
1
1
1
1
1
1
1
1
1
1
1
1
1
1
1
1
1
1
1
1
1
1
1
1
1
1
1
1
1
1
1
1
0.999998
1.00561
4.22792
8.4977
8.83745
8.83539
8.8053
8.78919
8.75936
8.71819
8.6694
8.61508
8.55643
8.4944
8.42889
8.35984
8.28577
8.20641
8.1214
8.03088
7.93454
7.8325
7.72538
7.61547
7.50098
7.38119
7.25917
7.13059
6.99707
6.8621
6.71812
6.5715
6.42336
6.27365
6.12526
5.96549
1
1
1
1
1
1
1
1
1
1
1
1
1
1
1
1
1
1
1
1
1
1
1
1
1
1
1
1
1
1
1
1
1
1
1
1
1
1
1
1
1
1
1
1
1
1
1
1
1
1
1
1
1
1
1
1
1
1
1
1
1
0.999982
1.63927
7.60415
9.01814
8.87246
8.81244
8.77219
8.72755
8.67822
8.6259
8.57092
8.51232
8.45016
8.38524
8.31732
8.24524
8.16815
8.08576
7.99749