/*--------------------------------*- C++ -*----------------------------------*\
  =========                 |
  \\      /  F ield         | OpenFOAM: The Open Source CFD Toolbox
   \\    /   O peration     | Website:  https://openfoam.org
    \\  /    A nd           | Version:  7
     \\/     M anipulation  |
\*---------------------------------------------------------------------------*/
FoamFile
{
    version     2.0;
    format      ascii;
    class       volScalarField;
    location    "2.2";
    object      rho;
}
// * * * * * * * * * * * * * * * * * * * * * * * * * * * * * * * * * * * * * //

dimensions      [1 -3 0 0 0 0 0];

internalField   nonuniform List<scalar> 
64512
(
1.40001
1.40001
1.40001
1.40001
1.40001
1.40001
1.40001
1.40001
1.40001
1.40001
1.40001
1.40001
1.40001
1.40001
1.40001
1.40001
1.40001
1.40001
1.40001
1.40001
1.40001
1.40001
1.40001
1.40001
1.40001
1.40001
1.40001
1.40001
1.40001
1.40001
1.40001
1.40001
1.40001
1.40001
1.40001
1.40001
1.40001
1.40001
1.40001
1.40001
1.40001
1.40001
1.40001
1.40001
1.40001
1.40001
1.40001
1.40001
1.40001
1.82788
4.70993
5.44283
5.44724
5.47187
5.48948
5.50693
5.52417
5.54279
5.56384
5.58908
5.61607
5.63942
5.65643
5.66899
5.68108
5.69578
5.71413
5.73588
5.75935
5.78031
5.79446
5.80071
5.80297
5.80768
5.8186
5.83474
5.85346
5.8726
5.8893
5.90121
5.90836
5.9133
5.9189
5.92643
5.93543
5.94546
5.95631
5.96629
5.974
5.97858
5.97911
5.97333
5.96067
5.94382
5.92948
5.92159
1.40001
1.40001
1.40001
1.40001
1.40001
1.40001
1.40001
1.40001
1.40001
1.40001
1.40001
1.40001
1.40001
1.40001
1.40001
1.40001
1.40001
1.40001
1.40001
1.40001
1.40001
1.40001
1.40001
1.40001
1.40001
1.40001
1.40001
1.40001
1.40001
1.40001
1.40001
1.40001
1.40001
1.40001
1.40001
1.40001
1.40001
1.40001
1.40001
1.40001
1.40001
1.40001
1.40001
1.40001
1.40001
1.40001
1.40001
1.40001
1.40001
1.81823
4.69614
5.43975
5.44747
5.47071
5.48881
5.50654
5.52392
5.54248
5.5637
5.58909
5.61609
5.63945
5.6564
5.66899
5.6812
5.6961
5.71457
5.73621
5.7593
5.77978
5.79345
5.79954
5.80193
5.80697
5.8183
5.83466
5.85333
5.87223
5.88853
5.90003
5.90696
5.91197
5.91786
5.92574
5.93496
5.94495
5.95554
5.96522
5.97274
5.97726
5.97779
5.97201
5.95934
5.94255
5.92833
5.92057
1.40001
1.40001
1.40001
1.40001
1.40001
1.40001
1.40001
1.40001
1.40001
1.40001
1.40001
1.40001
1.40001
1.40001
1.40001
1.40001
1.40001
1.40001
1.40001
1.40001
1.40001
1.40001
1.40001
1.40001
1.40001
1.40001
1.40001
1.40001
1.40001
1.40001
1.40001
1.40001
1.40001
1.40001
1.40001
1.40001
1.40001
1.40001
1.40001
1.40001
1.40001
1.40001
1.40001
1.40001
1.40001
1.40001
1.40001
1.40001
1.40001
1.79707
4.67219
5.43779
5.4436
5.46771
5.48722
5.50584
5.52366
5.5423
5.56354
5.58876
5.61548
5.63866
5.6555
5.66832
5.68084
5.69604
5.71463
5.73618
5.75895
5.77903
5.79212
5.79789
5.80029
5.80567
5.81754
5.83428
5.85299
5.87159
5.88731
5.89817
5.90477
5.90991
5.91624
5.92463
5.93417
5.94409
5.95431
5.96356
5.97077
5.97517
5.97563
5.96979
5.95708
5.94037
5.92633
5.91878
1.40001
1.40001
1.40001
1.40001
1.40001
1.40001
1.40001
1.40001
1.40001
1.40001
1.40001
1.40001
1.40001
1.40001
1.40001
1.40001
1.40001
1.40001
1.40001
1.40001
1.40001
1.40001
1.40001
1.40001
1.40001
1.40001
1.40001
1.40001
1.40001
1.40001
1.40001
1.40001
1.40001
1.40001
1.40001
1.40001
1.40001
1.40001
1.40001
1.40001
1.40001
1.40001
1.40001
1.40001
1.40001
1.40001
1.40001
1.40001
1.40001
1.76538
4.63597
5.4348
5.44024
5.46487
5.48581
5.50569
5.52429
5.54311
5.56418
5.58875
5.61472
5.63735
5.65406
5.66707
5.68001
5.69563
5.71425
5.73551
5.75771
5.77732
5.78986
5.79535
5.79787
5.80365
5.8161
5.83323
5.85197
5.87026
5.88539
5.89557
5.90181
5.90711
5.91396
5.92294
5.93285
5.94268
5.95243
5.9611
5.96788
5.97206
5.97237
5.96645
5.95369
5.93709
5.92327
5.91598
1.40001
1.40001
1.40001
1.40001
1.40001
1.40001
1.40001
1.40001
1.40001
1.40001
1.40001
1.40001
1.40001
1.40001
1.40001
1.40001
1.40001
1.40001
1.40001
1.40001
1.40001
1.40001
1.40001
1.40001
1.40001
1.40001
1.40001
1.40001
1.40001
1.40001
1.40001
1.40001
1.40001
1.40001
1.40001
1.40001
1.40001
1.40001
1.40001
1.40001
1.40001
1.40001
1.40001
1.40001
1.40001
1.40001
1.40001
1.40001
1.40001
1.72378
4.58342
5.43143
5.43738
5.46244
5.48497
5.50646
5.52594
5.54472
5.56515
5.58864
5.61352
5.63519
5.65173
5.66518
5.67872
5.69488
5.71357
5.73445
5.75601
5.77519
5.78729
5.79254
5.79509
5.80098
5.81369
5.83103
5.8498
5.86792
5.88263
5.8923
5.89825
5.90371
5.91104
5.92058
5.93085
5.94063
5.94993
5.95801
5.96434
5.96823
5.96829
5.96224
5.94935
5.93287
5.9193
5.91228
1.40001
1.40001
1.40001
1.40001
1.40001
1.40001
1.40001
1.40001
1.40001
1.40001
1.40001
1.40001
1.40001
1.40001
1.40001
1.40001
1.40001
1.40001
1.40001
1.40001
1.40001
1.40001
1.40001
1.40001
1.40001
1.40001
1.40001
1.40001
1.40001
1.40001
1.40001
1.40001
1.40001
1.40001
1.40001
1.40001
1.40001
1.40001
1.40001
1.40001
1.40001
1.40001
1.40001
1.40001
1.40001
1.40001
1.40001
1.40001
1.40001
1.67284
4.51338
5.4293
5.43652
5.46167
5.48506
5.50713
5.52703
5.54582
5.56563
5.58806
5.6116
5.63281
5.6495
5.66321
5.67706
5.69319
5.71143
5.73173
5.75255
5.7715
5.78363
5.78903
5.79178
5.79765
5.8103
5.82764
5.84647
5.86461
5.87917
5.88857
5.89436
5.89988
5.90752
5.91744
5.92798
5.93777
5.94674
5.95429
5.96018
5.96373
5.96342
5.95713
5.94409
5.92776
5.91446
5.90775
1.40001
1.40001
1.40001
1.40001
1.40001
1.40001
1.40001
1.40001
1.40001
1.40001
1.40001
1.40001
1.40001
1.40001
1.40001
1.40001
1.40001
1.40001
1.40001
1.40001
1.40001
1.40001
1.40001
1.40001
1.40001
1.40001
1.40001
1.40001
1.40001
1.40001
1.40001
1.40001
1.40001
1.40001
1.40001
1.40001
1.40001
1.40001
1.40001
1.40001
1.40001
1.40001
1.40001
1.40001
1.40001
1.40001
1.40001
1.40001
1.40001
1.61371
4.42534
5.42851
5.43693
5.4614
5.48525
5.50731
5.52698
5.54549
5.5648
5.58661
5.60958
5.63034
5.64665
5.66012
5.67396
5.68989
5.70782
5.72779
5.74829
5.7674
5.77999
5.78582
5.78868
5.79408
5.80604
5.82293
5.84169
5.86
5.87473
5.88424
5.89005
5.89558
5.90333
5.9134
5.92409
5.93392
5.9427
5.94986
5.95533
5.95843
5.95764
5.95103
5.93791
5.92185
5.90893
5.90268
1.40001
1.40001
1.40001
1.40001
1.40001
1.40001
1.40001
1.40001
1.40001
1.40001
1.40001
1.40001
1.40001
1.40001
1.40001
1.40001
1.40001
1.40001
1.40001
1.40001
1.40001
1.40001
1.40001
1.40001
1.40001
1.40001
1.40001
1.40001
1.40001
1.40001
1.40001
1.40001
1.40001
1.40001
1.40001
1.40001
1.40001
1.40001
1.40001
1.40001
1.40001
1.40001
1.40001
1.40001
1.40001
1.40001
1.40001
1.40001
1.40001
1.55079
4.32311
5.43011
5.43818
5.46011
5.483
5.50461
5.52437
5.54319
5.56279
5.58453
5.60713
5.62758
5.64368
5.65669
5.67001
5.68533
5.70279
5.72241
5.74275
5.76226
5.77565
5.78217
5.78522
5.78999
5.8009
5.81706
5.83569
5.85428
5.86948
5.87942
5.88543
5.89088
5.89844
5.90837
5.91904
5.92899
5.93782
5.9448
5.94989
5.95242
5.95098
5.94396
5.93075
5.91508
5.90266
5.89702
1.40001
1.40001
1.40001
1.40001
1.40001
1.40001
1.40001
1.40001
1.40001
1.40001
1.40001
1.40001
1.40001
1.40001
1.40001
1.40001
1.40001
1.40001
1.40001
1.40001
1.40001
1.40001
1.40001
1.40001
1.40001
1.40001
1.40001
1.40001
1.40001
1.40001
1.40001
1.40001
1.40001
1.40001
1.40001
1.40001
1.40001
1.40001
1.40001
1.40001
1.40001
1.40001
1.40001
1.40001
1.40001
1.40001
1.40001
1.40001
1.40001
1.47884
4.21159
5.43238
5.43766
5.4577
5.48082
5.50293
5.5229
5.54143
5.56051
5.58139
5.60319
5.62325
5.63905
5.65149
5.66417
5.67895
5.69627
5.7159
5.73649
5.75663
5.77108
5.77856
5.78191
5.78594
5.79545
5.81046
5.82868
5.84748
5.86329
5.87391
5.88028
5.88557
5.89269
5.90218
5.91272
5.92289
5.93204
5.93906
5.94377
5.94558
5.94338
5.93587
5.92261
5.90747
5.89571
5.89088
1.40001
1.40001
1.40001
1.40001
1.40001
1.40001
1.40001
1.40001
1.40001
1.40001
1.40001
1.40001
1.40001
1.40001
1.40001
1.40001
1.40001
1.40001
1.40001
1.40001
1.40001
1.40001
1.40001
1.40001
1.40001
1.40001
1.40001
1.40001
1.40001
1.40001
1.40001
1.40001
1.40001
1.40001
1.40001
1.40001
1.40001
1.40001
1.40001
1.40001
1.40001
1.40001
1.40001
1.40001
1.40001
1.40001
1.40001
1.40001
1.40001
1.40547
4.07289
5.42059
5.43231
5.45135
5.4739
5.49519
5.51489
5.5338
5.55332
5.5746
5.59699
5.61784
5.63426
5.64683
5.65909
5.67315
5.68987
5.70903
5.72948
5.74998
5.76547
5.77412
5.77812
5.78169
5.78979
5.80342
5.82093
5.83971
5.85613
5.86753
5.87434
5.87943
5.88591
5.89479
5.90516
5.9157
5.9254
5.93269
5.93699
5.93796
5.93488
5.92679
5.91353
5.89904
5.88804
5.88419
1.40001
1.40001
1.40001
1.40001
1.40001
1.40001
1.40001
1.40001
1.40001
1.40001
1.40001
1.40001
1.40001
1.40001
1.40001
1.40001
1.40001
1.40001
1.40001
1.40001
1.40001
1.40001
1.40001
1.40001
1.40001
1.40001
1.40001
1.40001
1.40001
1.40001
1.40001
1.40001
1.40001
1.40001
1.40001
1.40001
1.40001
1.40001
1.40001
1.40001
1.40001
1.40001
1.40001
1.40001
1.40001
1.40001
1.40001
1.40001
1.40001
1.40007
3.8809
5.39572
5.42259
5.4417
5.46553
5.48733
5.50759
5.52704
5.54687
5.56849
5.59158
5.61333
5.63036
5.64281
5.65425
5.66703
5.68252
5.70113
5.72153
5.74242
5.75907
5.76914
5.77405
5.77729
5.78391
5.7959
5.81243
5.83099
5.84792
5.86013
5.86746
5.87239
5.87821
5.88646
5.89667
5.90754
5.91778
5.92538
5.92927
5.92932
5.92531
5.91663
5.90351
5.88981
5.87963
5.8769
1.40001
1.40001
1.40001
1.40001
1.40001
1.40001
1.40001
1.40001
1.40001
1.40001
1.40001
1.40001
1.40001
1.40001
1.40001
1.40001
1.40001
1.40001
1.40001
1.40001
1.40001
1.40001
1.40001
1.40001
1.40001
1.40001
1.40001
1.40001
1.40001
1.40001
1.40001
1.40001
1.40001
1.40001
1.40001
1.40001
1.40001
1.40001
1.40001
1.40001
1.40001
1.40001
1.40001
1.40001
1.40001
1.40001
1.40001
1.40001
1.40001
1.40001
3.66368
5.3713
5.41447
5.43258
5.45755
5.47946
5.49997
5.51978
5.54
5.56201
5.5857
5.60838
5.62629
5.63901
5.64998
5.66159
5.6756
5.6933
5.71329
5.73411
5.7517
5.76322
5.76928
5.77258
5.77799
5.7884
5.80384
5.82198
5.83913
5.85192
5.85966
5.86442
5.86964
5.87732
5.88735
5.89837
5.90893
5.9167
5.92037
5.91966
5.91475
5.90564
5.89274
5.87981
5.87045
5.86886
1.40001
1.40001
1.40001
1.40001
1.40001
1.40001
1.40001
1.40001
1.40001
1.40001
1.40001
1.40001
1.40001
1.40001
1.40001
1.40001
1.40001
1.40001
1.40001
1.40001
1.40001
1.40001
1.40001
1.40001
1.40001
1.40001
1.40001
1.40001
1.40001
1.40001
1.40001
1.40001
1.40001
1.40001
1.40001
1.40001
1.40001
1.40001
1.40001
1.40001
1.40001
1.40001
1.40001
1.40001
1.40001
1.40001
1.40001
1.40001
1.40001
1.40001
3.42512
5.34551
5.41056
5.42614
5.45034
5.4717
5.49201
5.51197
5.53274
5.5554
5.58005
5.60405
5.62334
5.63667
5.64718
5.65744
5.66951
5.68573
5.70497
5.72523
5.74338
5.75611
5.76333
5.76685
5.77125
5.78021
5.79459
5.81227
5.82956
5.84289
5.85103
5.85564
5.86025
5.86733
5.87704
5.88797
5.89861
5.90646
5.9101
5.909
5.90345
5.89403
5.88129
5.86882
5.86018
5.85951
1.40001
1.40001
1.40001
1.40001
1.40001
1.40001
1.40001
1.40001
1.40001
1.40001
1.40001
1.40001
1.40001
1.40001
1.40001
1.40001
1.40001
1.40001
1.40001
1.40001
1.40001
1.40001
1.40001
1.40001
1.40001
1.40001
1.40001
1.40001
1.40001
1.40001
1.40001
1.40001
1.40001
1.40001
1.40001
1.40001
1.40001
1.40001
1.40001
1.40001
1.40001
1.40001
1.40001
1.40001
1.40001
1.40001
1.40001
1.40001
1.40001
1.40001
3.16839
5.30802
5.41413
5.42489
5.44602
5.46535
5.48472
5.50437
5.52521
5.54812
5.57333
5.59848
5.6193
5.63362
5.64397
5.65309
5.66315
5.67763
5.69585
5.71544
5.73399
5.74785
5.75644
5.76068
5.76465
5.77245
5.78567
5.80246
5.81924
5.83248
5.8407
5.8452
5.84948
5.85626
5.86579
5.87659
5.88718
5.89499
5.8986
5.89729
5.8913
5.88163
5.86891
5.85668
5.84857
5.84849
1.40001
1.40001
1.40001
1.40001
1.40001
1.40001
1.40001
1.40001
1.40001
1.40001
1.40001
1.40001
1.40001
1.40001
1.40001
1.40001
1.40001
1.40001
1.40001
1.40001
1.40001
1.40001
1.40001
1.40001
1.40001
1.40001
1.40001
1.40001
1.40001
1.40001
1.40001
1.40001
1.40001
1.40001
1.40001
1.40001
1.40001
1.40001
1.40001
1.40001
1.40001
1.40001
1.40001
1.40001
1.40001
1.40001
1.40001
1.40001
1.40001
1.40001
2.89819
5.24732
5.42347
5.42788
5.44496
5.46099
5.4784
5.4973
5.51819
5.5414
5.56718
5.59337
5.61568
5.63102
5.6411
5.649
5.65688
5.66924
5.68602
5.70456
5.72288
5.73723
5.7469
5.75209
5.75617
5.76332
5.77563
5.79158
5.80781
5.821
5.82949
5.83418
5.83833
5.84478
5.85388
5.86415
5.87426
5.8818
5.8854
5.88417
5.87814
5.86843
5.85573
5.84362
5.83585
5.83611
1.40001
1.40001
1.40001
1.40001
1.40001
1.40001
1.40001
1.40001
1.40001
1.40001
1.40001
1.40001
1.40001
1.40001
1.40001
1.40001
1.40001
1.40001
1.40001
1.40001
1.40001
1.40001
1.40001
1.40001
1.40001
1.40001
1.40001
1.40001
1.40001
1.40001
1.40001
1.40001
1.40001
1.40001
1.40001
1.40001
1.40001
1.40001
1.40001
1.40001
1.40001
1.40001
1.40001
1.40001
1.40001
1.40001
1.40001
1.40001
1.40001
1.40001
2.61722
5.15535
5.43451
5.43534
5.44941
5.46172
5.47541
5.49166
5.51102
5.53378
5.55967
5.58663
5.61042
5.62724
5.63787
5.64554
5.65213
5.66258
5.67752
5.69458
5.71213
5.7264
5.73687
5.74316
5.74775
5.75443
5.76561
5.78025
5.79543
5.80826
5.81702
5.82207
5.82625
5.83233
5.84081
5.85041
5.85995
5.86722
5.87087
5.86989
5.86402
5.85429
5.84142
5.82918
5.82148
5.82175
1.40001
1.40001
1.40001
1.40001
1.40001
1.40001
1.40001
1.40001
1.40001
1.40001
1.40001
1.40001
1.40001
1.40001
1.40001
1.40001
1.40001
1.40001
1.40001
1.40001
1.40001
1.40001
1.40001
1.40001
1.40001
1.40001
1.40001
1.40001
1.40001
1.40001
1.40001
1.40001
1.40001
1.40001
1.40001
1.40001
1.40001
1.40001
1.40001
1.40001
1.40001
1.40001
1.40001
1.40001
1.40001
1.40001
1.40001
1.40001
1.40001
1.40001
2.341
5.0229
5.4408
5.44269
5.45681
5.46715
5.4781
5.49045
5.50681
5.52799
5.55304
5.57991
5.60458
5.62284
5.63439
5.64237
5.64844
5.65721
5.67
5.68507
5.70127
5.71498
5.72584
5.7331
5.73838
5.74474
5.75471
5.76788
5.78196
5.79448
5.80366
5.80928
5.81358
5.81915
5.82675
5.83545
5.84426
5.85114
5.85475
5.85401
5.84845
5.8388
5.82578
5.81338
5.80565
5.80578
1.40001
1.40001
1.40001
1.40001
1.40001
1.40001
1.40001
1.40001
1.40001
1.40001
1.40001
1.40001
1.40001
1.40001
1.40001
1.40001
1.40001
1.40001
1.40001
1.40001
1.40001
1.40001
1.40001
1.40001
1.40001
1.40001
1.40001
1.40001
1.40001
1.40001
1.40001
1.40001
1.40001
1.40001
1.40001
1.40001
1.40001
1.40001
1.40001
1.40001
1.40001
1.40001
1.40001
1.40001
1.40001
1.40001
1.40001
1.40001
1.40001
1.40001
2.07202
4.85876
5.44643
5.45142
5.46782
5.47659
5.48463
5.4931
5.5058
5.52402
5.54707
5.57281
5.59753
5.61696
5.62976
5.63855
5.64495
5.65257
5.66338
5.67619
5.69065
5.7035
5.71445
5.72255
5.72858
5.7347
5.74341
5.75497
5.76786
5.78002
5.78953
5.79561
5.79984
5.80468
5.81126
5.81909
5.82728
5.83383
5.83734
5.83673
5.83143
5.82179
5.80856
5.79585
5.78792
5.78763
1.40001
1.40001
1.40001
1.40001
1.40001
1.40001
1.40001
1.40001
1.40001
1.40001
1.40001
1.40001
1.40001
1.40001
1.40001
1.40001
1.40001
1.40001
1.40001
1.40001
1.40001
1.40001
1.40001
1.40001
1.40001
1.40001
1.40001
1.40001
1.40001
1.40001
1.40001
1.40001
1.40001
1.40001
1.40001
1.40001
1.40001
1.40001
1.40001
1.40001
1.40001
1.40001
1.40001
1.40001
1.40001
1.40001
1.40001
1.40001
1.40001
1.40001
1.81778
4.68101
5.45955
5.45184
5.4683
5.47906
5.48806
5.49593
5.50661
5.52189
5.54208
5.56561
5.58928
5.60928
5.62346
5.63347
5.64096
5.64811
5.65735
5.66789
5.68026
5.69201
5.70279
5.71151
5.71823
5.72416
5.73162
5.74151
5.75314
5.76481
5.77447
5.78083
5.78483
5.78885
5.79444
5.80152
5.80914
5.81529
5.81844
5.81759
5.81235
5.80274
5.78946
5.77651
5.76834
5.76746
1.40001
1.40001
1.40001
1.40001
1.40001
1.40001
1.40001
1.40001
1.40001
1.40001
1.40001
1.40001
1.40001
1.40001
1.40001
1.40001
1.40001
1.40001
1.40001
1.40001
1.40001
1.40001
1.40001
1.40001
1.40001
1.40001
1.40001
1.40001
1.40001
1.40001
1.40001
1.40001
1.40001
1.40001
1.40001
1.40001
1.40001
1.40001
1.40001
1.40001
1.40001
1.40001
1.40001
1.40001
1.40001
1.40001
1.40001
1.40001
1.40001
1.40001
1.58858
4.44868
5.46657
5.45244
5.46215
5.47371
5.48531
5.49555
5.50602
5.51891
5.53615
5.5571
5.57922
5.59927
5.61457
5.62585
5.63486
5.64241
5.65092
5.65976
5.67005
5.68061
5.69102
5.7001
5.70733
5.71312
5.71943
5.72768
5.73795
5.74893
5.75842
5.76476
5.76833
5.77145
5.77612
5.78259
5.78974
5.79541
5.798
5.7966
5.79122
5.78157
5.76826
5.75502
5.74647
5.7449
1.40001
1.40001
1.40001
1.40001
1.40001
1.40001
1.40001
1.40001
1.40001
1.40001
1.40001
1.40001
1.40001
1.40001
1.40001
1.40001
1.40001
1.40001
1.40001
1.40001
1.40001
1.40001
1.40001
1.40001
1.40001
1.40001
1.40001
1.40001
1.40001
1.40001
1.40001
1.40001
1.40001
1.40001
1.40001
1.40001
1.40001
1.40001
1.40001
1.40001
1.40001
1.40001
1.40001
1.40001
1.40001
1.40001
1.40001
1.40001
1.40001
1.40001
1.41644
4.15956
5.41123
5.41527
5.43352
5.45324
5.47094
5.48538
5.49813
5.51132
5.52714
5.54597
5.56631
5.58599
5.60234
5.61505
5.62564
5.63432
5.64301
5.65121
5.65993
5.66928
5.67898
5.68807
5.69559
5.70134
5.70676
5.71352
5.7223
5.73224
5.74116
5.74717
5.75018
5.75248
5.75633
5.76222
5.76883
5.77381
5.77549
5.77322
5.76751
5.75783
5.74461
5.73115
5.72219
5.72003
1.40001
1.40001
1.40001
1.40001
1.40001
1.40001
1.40001
1.40001
1.40001
1.40001
1.40001
1.40001
1.40001
1.40001
1.40001
1.40001
1.40001
1.40001
1.40001
1.40001
1.40001
1.40001
1.40001
1.40001
1.40001
1.40001
1.40001
1.40001
1.40001
1.40001
1.40001
1.40001
1.40001
1.40001
1.40001
1.40001
1.40001
1.40001
1.40001
1.40001
1.40001
1.40001
1.40001
1.40001
1.40001
1.40001
1.40001
1.40001
1.40001
1.40001
1.40015
3.77735
5.32301
5.38146
5.41011
5.43541
5.45567
5.47278
5.48758
5.50151
5.5166
5.5339
5.55253
5.57139
5.58779
5.60119
5.6131
5.62326
5.63274
5.64124
5.64913
5.65758
5.66642
5.67517
5.68271
5.68848
5.69335
5.69889
5.70614
5.71469
5.72263
5.72802
5.73041
5.73195
5.73501
5.74023
5.74609
5.75013
5.75076
5.74762
5.74144
5.73161
5.71832
5.7044
5.69474
5.69189
1.40001
1.40001
1.40001
1.40001
1.40001
1.40001
1.40001
1.40001
1.40001
1.40001
1.40001
1.40001
1.40001
1.40001
1.40001
1.40001
1.40001
1.40001
1.40001
1.40001
1.40001
1.40001
1.40001
1.40001
1.40001
1.40001
1.40001
1.40001
1.40001
1.40001
1.40001
1.40001
1.40001
1.40001
1.40001
1.40001
1.40001
1.40001
1.40001
1.40001
1.40001
1.40001
1.40001
1.40001
1.40001
1.40001
1.40001
1.40001
1.40001
1.40001
1.4
3.39118
5.23954
5.34744
5.38219
5.4135
5.43782
5.45784
5.47469
5.48964
5.50462
5.52099
5.53837
5.55594
5.57207
5.58525
5.5971
5.60797
5.61839
5.62839
5.63689
5.64494
5.65286
5.66095
5.66822
5.67402
5.67869
5.68339
5.68919
5.69612
5.70269
5.70718
5.70894
5.70984
5.71212
5.71637
5.72106
5.72382
5.72305
5.71888
5.71202
5.70204
5.68867
5.67432
5.66393
5.66055
1.40001
1.40001
1.40001
1.40001
1.40001
1.40001
1.40001
1.40001
1.40001
1.40001
1.40001
1.40001
1.40001
1.40001
1.40001
1.40001
1.40001
1.40001
1.40001
1.40001
1.40001
1.40001
1.40001
1.40001
1.40001
1.40001
1.40001
1.40001
1.40001
1.40001
1.40001
1.40001
1.40001
1.40001
1.40001
1.40001
1.40001
1.40001
1.40001
1.40001
1.40001
1.40001
1.40001
1.40001
1.40001
1.40001
1.40001
1.40001
1.40001
1.40001
1.4
2.98016
5.1481
5.33894
5.37768
5.40475
5.42669
5.44532
5.46177
5.47637
5.4907
5.50598
5.52225
5.53886
5.55477
5.56842
5.58044
5.59119
5.60179
5.61256
5.62194
5.63044
5.63791
5.64522
5.65193
5.65764
5.66227
5.66642
5.67098
5.67623
5.68126
5.68473
5.68589
5.6862
5.68756
5.69036
5.69335
5.69453
5.69239
5.6873
5.67978
5.66939
5.65539
5.63994
5.62825
5.62397
1.40001
1.40001
1.40001
1.40001
1.40001
1.40001
1.40001
1.40001
1.40001
1.40001
1.40001
1.40001
1.40001
1.40001
1.40001
1.40001
1.40001
1.40001
1.40001
1.40001
1.40001
1.40001
1.40001
1.40001
1.40001
1.40001
1.40001
1.40001
1.40001
1.40001
1.40001
1.40001
1.40001
1.40001
1.40001
1.40001
1.40001
1.40001
1.40001
1.40001
1.40001
1.40001
1.40001
1.40001
1.40001
1.40001
1.40001
1.40001
1.40001
1.40001
1.40001
2.56244
5.03303
5.36121
5.3771
5.39923
5.4199
5.43858
5.45475
5.46874
5.48155
5.49444
5.50822
5.52259
5.53701
5.55023
5.56192
5.57245
5.58297
5.59426
5.60504
5.61328
5.62035
5.62716
5.6335
5.63906
5.64363
5.64739
5.65089
5.65458
5.65809
5.66051
5.66107
5.66075
5.66097
5.66195
5.66273
5.66171
5.65791
5.65143
5.64276
5.63156
5.61678
5.60032
5.58746
5.58264
1.40001
1.40001
1.40001
1.40001
1.40001
1.40001
1.40001
1.40001
1.40001
1.40001
1.40001
1.40001
1.40001
1.40001
1.40001
1.40001
1.40001
1.40001
1.40001
1.40001
1.40001
1.40001
1.40001
1.40001
1.40001
1.40001
1.40001
1.40001
1.40001
1.40001
1.40001
1.40001
1.40001
1.40001
1.40001
1.40001
1.40001
1.40001
1.40001
1.40001
1.40001
1.40001
1.40001
1.40001
1.40001
1.40001
1.40001
1.40001
1.40001
1.40001
1.40001
2.12082
4.86186
5.43036
5.41417
5.42201
5.42956
5.43894
5.45017
5.46219
5.47369
5.48519
5.49717
5.50953
5.52207
5.53389
5.54483
5.55445
5.56422
5.57439
5.58494
5.59377
5.60058
5.60667
5.61259
5.61812
5.62267
5.62605
5.62856
5.63078
5.63287
5.63426
5.63438
5.63338
5.63217
5.63094
5.62892
5.62521
5.61943
5.61161
5.60183
5.58937
5.57278
5.55385
5.53865
5.53218
1.40001
1.40001
1.40001
1.40001
1.40001
1.40001
1.40001
1.40001
1.40001
1.40001
1.40001
1.40001
1.40001
1.40001
1.40001
1.40001
1.40001
1.40001
1.40001
1.40001
1.40001
1.40001
1.40001
1.40001
1.40001
1.40001
1.40001
1.40001
1.40001
1.40001
1.40001
1.40001
1.40001
1.40001
1.40001
1.40001
1.40001
1.40001
1.40001
1.40001
1.40001
1.40001
1.40001
1.40001
1.40001
1.40001
1.40001
1.40001
1.40001
1.40001
1.40001
1.69923
4.65165
5.49461
5.43064
5.42938
5.43237
5.44159
5.4531
5.46369
5.47243
5.48053
5.48906
5.49857
5.50919
5.5197
5.52952
5.53829
5.5468
5.55541
5.56411
5.57196
5.57803
5.58364
5.58949
5.59486
5.5992
5.6021
5.60363
5.60445
5.60517
5.60562
5.60523
5.60341
5.60066
5.59678
5.59153
5.58486
5.57643
5.56623
5.55392
5.53863
5.51929
5.49797
5.48094
5.47411
1.40001
1.40001
1.40001
1.40001
1.40001
1.40001
1.40001
1.40001
1.40001
1.40001
1.40001
1.40001
1.40001
1.40001
1.40001
1.40001
1.40001
1.40001
1.40001
1.40001
1.40001
1.40001
1.40001
1.40001
1.40001
1.40001
1.40001
1.40001
1.40001
1.40001
1.40001
1.40001
1.40001
1.40001
1.40001
1.40001
1.40001
1.40001
1.40001
1.40001
1.40001
1.40001
1.40001
1.40001
1.40001
1.40001
1.40001
1.40001
1.40001
1.40001
1.40001
1.42311
4.24968
5.44006
5.40548
5.422
5.43465
5.44396
5.45334
5.46321
5.47187
5.4786
5.48475
5.49163
5.49969
5.50805
5.51608
5.52365
5.53077
5.53727
5.54374
5.55009
5.55536
5.5601
5.56506
5.56987
5.57368
5.57581
5.5763
5.57577
5.57506
5.5745
5.57336
5.57061
5.566
5.55908
5.55049
5.54037
5.52853
5.51506
5.49981
5.48149
5.45824
5.43145
5.40887
5.39749
1.40001
1.40001
1.40001
1.40001
1.40001
1.40001
1.40001
1.40001
1.40001
1.40001
1.40001
1.40001
1.40001
1.40001
1.40001
1.40001
1.40001
1.40001
1.40001
1.40001
1.40001
1.40001
1.40001
1.40001
1.40001
1.40001
1.40001
1.40001
1.40001
1.40001
1.40001
1.40001
1.40001
1.40001
1.40001
1.40001
1.40001
1.40001
1.40001
1.40001
1.40001
1.40001
1.40001
1.40001
1.40001
1.40001
1.40001
1.40001
1.40001
1.40001
1.40001
1.40009
3.71122
5.28704
5.35228
5.38768
5.41293
5.43371
5.44884
5.46022
5.46793
5.47416
5.48029
5.48624
5.49255
5.49893
5.50507
5.51105
5.51644
5.52071
5.52464
5.52892
5.5329
5.53663
5.54057
5.54412
5.54657
5.54764
5.54714
5.54515
5.54283
5.54092
5.53853
5.53423
5.52729
5.51747
5.50528
5.49132
5.47563
5.45784
5.43662
5.41066
5.37923
5.34492
5.3168
5.30563
1.40001
1.40001
1.40001
1.40001
1.40001
1.40001
1.40001
1.40001
1.40001
1.40001
1.40001
1.40001
1.40001
1.40001
1.40001
1.40001
1.40001
1.40001
1.40001
1.40001
1.40001
1.40001
1.40001
1.40001
1.40001
1.40001
1.40001
1.40001
1.40001
1.40001
1.40001
1.40001
1.40001
1.40001
1.40001
1.40001
1.40001
1.40001
1.40001
1.40001
1.40001
1.40001
1.40001
1.40001
1.40001
1.40001
1.40001
1.40001
1.40001
1.40001
1.40001
1.4
3.20608
5.17019
5.30631
5.3582
5.39363
5.4139
5.43048
5.44433
5.45583
5.46524
5.47262
5.47952
5.48582
5.49117
5.49574
5.49995
5.50362
5.50597
5.50765
5.50961
5.51169
5.51361
5.51576
5.51773
5.51873
5.51857
5.51685
5.51346
5.5094
5.50545
5.50088
5.49427
5.48478
5.47191
5.45591
5.43754
5.41676
5.39284
5.36403
5.32935
5.28862
5.24467
5.1999
5.16719
1.40001
1.40001
1.40001
1.40001
1.40001
1.40001
1.40001
1.40001
1.40001
1.40001
1.40001
1.40001
1.40001
1.40001
1.40001
1.40001
1.40001
1.40001
1.40001
1.40001
1.40001
1.40001
1.40001
1.40001
1.40001
1.40001
1.40001
1.40001
1.40001
1.40001
1.40001
1.40001
1.40001
1.40001
1.40001
1.40001
1.40001
1.40001
1.40001
1.40001
1.40001
1.40001
1.40001
1.40001
1.40001
1.40001
1.40001
1.40001
1.40001
1.40001
1.40001
1.4
2.69045
5.00167
5.30414
5.34596
5.37474
5.39696
5.41398
5.42709
5.43877
5.4488
5.45871
5.4682
5.47627
5.48229
5.48647
5.48944
5.49158
5.49246
5.49249
5.49249
5.49241
5.49186
5.49131
5.4909
5.49024
5.4888
5.48595
5.48126
5.47489
5.46823
5.46066
5.45103
5.43843
5.42216
5.40213
5.37881
5.35192
5.32038
5.28166
5.23294
5.17031
5.09508
5.0216
4.97197
1.40001
1.40001
1.40001
1.40001
1.40001
1.40001
1.40001
1.40001
1.40001
1.40001
1.40001
1.40001
1.40001
1.40001
1.40001
1.40001
1.40001
1.40001
1.40001
1.40001
1.40001
1.40001
1.40001
1.40001
1.40001
1.40001
1.40001
1.40001
1.40001
1.40001
1.40001
1.40001
1.40001
1.40001
1.40001
1.40001
1.40001
1.40001
1.40001
1.40001
1.40001
1.40001
1.40001
1.40001
1.40001
1.40001
1.40001
1.40001
1.40001
1.40001
1.40001
1.40001
2.15403
4.82798
5.36312
5.35546
5.3668
5.38065
5.39471
5.40886
5.42092
5.43143
5.44195
5.4524
5.46193
5.46937
5.47444
5.47744
5.47889
5.47902
5.47824
5.47687
5.47476
5.47166
5.46807
5.46472
5.46179
5.45888
5.45484
5.44866
5.43991
5.42985
5.41866
5.40532
5.38895
5.36886
5.34446
5.31558
5.28128
5.2396
5.18662
5.11827
5.03181
4.92596
4.80823
4.7267
1.40001
1.40001
1.40001
1.40001
1.40001
1.40001
1.40001
1.40001
1.40001
1.40001
1.40001
1.40001
1.40001
1.40001
1.40001
1.40001
1.40001
1.40001
1.40001
1.40001
1.40001
1.40001
1.40001
1.40001
1.40001
1.40001
1.40001
1.40001
1.40001
1.40001
1.40001
1.40001
1.40001
1.40001
1.40001
1.40001
1.40001
1.40001
1.40001
1.40001
1.40001
1.40001
1.40001
1.40001
1.40001
1.40001
1.40001
1.40001
1.40001
1.40001
1.40001
1.40001
1.6358
4.58204
5.45538
5.38734
5.37082
5.37347
5.38223
5.39256
5.40325
5.41353
5.42425
5.43518
5.44515
5.45314
5.45909
5.46281
5.46452
5.46458
5.46358
5.46158
5.45802
5.45279
5.44636
5.43986
5.43417
5.42929
5.42353
5.41542
5.40413
5.39035
5.37499
5.35744
5.33688
5.3126
5.28344
5.24827
5.20522
5.15168
5.08303
4.99389
4.87218
4.68951
4.33157
3.4289
1.40001
1.40001
1.40001
1.40001
1.40001
1.40001
1.40001
1.40001
1.40001
1.40001
1.40001
1.40001
1.40001
1.40001
1.40001
1.40001
1.40001
1.40001
1.40001
1.40001
1.40001
1.40001
1.40001
1.40001
1.40001
1.40001
1.40001
1.40001
1.40001
1.40001
1.40001
1.40001
1.40001
1.40001
1.40001
1.40001
1.40001
1.40001
1.40001
1.40001
1.40001
1.40001
1.40001
1.40001
1.40001
1.40001
1.40001
1.40001
1.40001
1.40001
1.40001
1.40001
1.41154
4.05767
5.35174
5.34431
5.3606
5.36656
5.3751
5.38307
5.39102
5.39904
5.40796
5.41758
5.42699
5.43498
5.44103
5.44509
5.44733
5.44772
5.44707
5.44514
5.44102
5.43453
5.42592
5.4166
5.40798
5.40065
5.39264
5.38201
5.36785
5.35026
5.33038
5.30834
5.28337
5.25454
5.2201
5.17798
5.12537
5.0588
4.9723
4.85514
4.6883
4.4229
4.00426
2.98669
1.40001
1.40001
1.40001
1.40001
1.40001
1.40001
1.40001
1.40001
1.40001
1.40001
1.40001
1.40001
1.40001
1.40001
1.40001
1.40001
1.40001
1.40001
1.40001
1.40001
1.40001
1.40001
1.40001
1.40001
1.40001
1.40001
1.40001
1.40001
1.40001
1.40001
1.40001
1.40001
1.40001
1.40001
1.40001
1.40001
1.40001
1.40001
1.40001
1.40001
1.40001
1.40001
1.40001
1.40001
1.40001
1.40001
1.40001
1.40001
1.40001
1.40001
1.40001
1.40001
1.39998
3.38471
5.17147
5.30663
5.34255
5.35848
5.36836
5.37683
5.38324
5.3886
5.39453
5.40133
5.40867
5.41578
5.4215
5.42548
5.42788
5.42852
5.42817
5.42656
5.42269
5.41587
5.40602
5.39451
5.38306
5.37287
5.36214
5.34846
5.33104
5.30958
5.28512
5.25846
5.22897
5.19532
5.15518
5.10579
5.04335
4.9638
4.85934
4.71957
4.51574
4.24215
3.68788
2.85232
1.40001
1.40001
1.40001
1.40001
1.40001
1.40001
1.40001
1.40001
1.40001
1.40001
1.40001
1.40001
1.40001
1.40001
1.40001
1.40001
1.40001
1.40001
1.40001
1.40001
1.40001
1.40001
1.40001
1.40001
1.40001
1.40001
1.40001
1.40001
1.40001
1.40001
1.40001
1.40001
1.40001
1.40001
1.40001
1.40001
1.40001
1.40001
1.40001
1.40001
1.40001
1.40001
1.40001
1.40001
1.40001
1.40001
1.40001
1.40001
1.40001
1.40001
1.40001
1.40001
1.4
2.7717
5.0173
5.29557
5.32848
5.34935
5.36162
5.36808
5.37392
5.37875
5.38316
5.3875
5.39214
5.3973
5.40172
5.40484
5.40665
5.40714
5.40654
5.40505
5.40199
5.39565
5.38561
5.37283
5.35907
5.34585
5.33202
5.31508
5.29418
5.26896
5.24018
5.20892
5.17472
5.13597
5.08978
5.03315
4.96112
4.87004
4.75014
4.59362
4.37045
4.05334
3.51315
2.82743
1.40001
1.40001
1.40001
1.40001
1.40001
1.40001
1.40001
1.40001
1.40001
1.40001
1.40001
1.40001
1.40001
1.40001
1.40001
1.40001
1.40001
1.40001
1.40001
1.40001
1.40001
1.40001
1.40001
1.40001
1.40001
1.40001
1.40001
1.40001
1.40001
1.40001
1.40001
1.40001
1.40001
1.40001
1.40001
1.40001
1.40001
1.40001
1.40001
1.40001
1.40001
1.40001
1.40001
1.40001
1.40001
1.40001
1.40001
1.40001
1.40001
1.40001
1.40001
1.40001
1.4
2.13922
4.81245
5.33879
5.32942
5.3384
5.34893
5.35807
5.36531
5.37042
5.37426
5.377
5.37909
5.38159
5.38385
5.3853
5.38571
5.38536
5.38391
5.38171
5.37901
5.37327
5.36362
5.35037
5.335
5.31898
5.30195
5.28181
5.25762
5.22894
5.19617
5.16039
5.12121
5.07711
5.02475
4.9613
4.8809
4.78004
4.6489
4.47735
4.24715
3.91268
3.43431
2.88042
1.40001
1.40001
1.40001
1.40001
1.40001
1.40001
1.40001
1.40001
1.40001
1.40001
1.40001
1.40001
1.40001
1.40001
1.40001
1.40001
1.40001
1.40001
1.40001
1.40001
1.40001
1.40001
1.40001
1.40001
1.40001
1.40001
1.40001
1.40001
1.40001
1.40001
1.40001
1.40001
1.40001
1.40001
1.40001
1.40001
1.40001
1.40001
1.40001
1.40001
1.40001
1.40001
1.40001
1.40001
1.40001
1.40001
1.40001
1.40001
1.40001
1.40001
1.40001
1.40001
1.4
1.55555
4.47397
5.40454
5.35302
5.33335
5.33774
5.34659
5.35314
5.35855
5.3628
5.36559
5.36692
5.3677
5.36795
5.36755
5.36586
5.36368
5.36084
5.35722
5.35379
5.34837
5.33931
5.32614
5.30986
5.29173
5.27171
5.24874
5.22169
5.18992
5.15352
5.11337
5.06909
5.01945
4.96104
4.89112
4.80405
4.69539
4.55699
4.37728
4.14397
3.82201
3.41431
2.95232
1.40001
1.40001
1.40001
1.40001
1.40001
1.40001
1.40001
1.40001
1.40001
1.40001
1.40001
1.40001
1.40001
1.40001
1.40001
1.40001
1.40001
1.40001
1.40001
1.40001
1.40001
1.40001
1.40001
1.40001
1.40001
1.40001
1.40001
1.40001
1.40001
1.40001
1.40001
1.40001
1.40001
1.40001
1.40001
1.40001
1.40001
1.40001
1.40001
1.40001
1.40001