/*--------------------------------*- C++ -*----------------------------------*\
  =========                 |
  \\      /  F ield         | OpenFOAM: The Open Source CFD Toolbox
   \\    /   O peration     | Website:  https://openfoam.org
    \\  /    A nd           | Version:  7
     \\/     M anipulation  |
\*---------------------------------------------------------------------------*/
FoamFile
{
    version     2.0;
    format      ascii;
    class       volScalarField;
    location    "2.2";
    object      T;
}
// * * * * * * * * * * * * * * * * * * * * * * * * * * * * * * * * * * * * * //

dimensions      [0 0 0 1 0 0 0];

internalField   nonuniform List<scalar> 
64512
(
1
1
1
1
1
1
1
1
1
1
1
1
1
1
1
1
1
1
1
1
1
1
1
1
1
1
1
1
1
1
1
1
1
1
1
1
1
1
1
1
1
1
1
1
1
1
1
1
1
1.3617
2.50441
2.69675
2.70126
2.70922
2.71458
2.71845
2.72033
2.72123
2.72241
2.72499
2.7295
2.73558
2.74219
2.74796
2.75167
2.75315
2.75347
2.75383
2.75495
2.75776
2.76296
2.77022
2.7779
2.78399
2.7872
2.7882
2.78875
2.78993
2.79255
2.79681
2.80172
2.80574
2.80789
2.8084
2.80829
2.80829
2.80883
2.81023
2.81264
2.81631
2.82103
2.82673
2.83365
2.83996
2.8436
2.84425
1
1
1
1
1
1
1
1
1
1
1
1
1
1
1
1
1
1
1
1
1
1
1
1
1
1
1
1
1
1
1
1
1
1
1
1
1
1
1
1
1
1
1
1
1
1
1
1
1
1.35547
2.50105
2.69627
2.7015
2.70909
2.71453
2.71835
2.72016
2.721
2.72224
2.72492
2.7295
2.73563
2.74225
2.74802
2.75174
2.75324
2.75358
2.75393
2.75498
2.75768
2.7628
2.77005
2.77776
2.78389
2.78715
2.78817
2.78872
2.78986
2.79242
2.79662
2.8015
2.80551
2.80769
2.80825
2.80816
2.80817
2.80868
2.81003
2.81242
2.8161
2.82082
2.82653
2.83343
2.83974
2.8434
2.84408
1
1
1
1
1
1
1
1
1
1
1
1
1
1
1
1
1
1
1
1
1
1
1
1
1
1
1
1
1
1
1
1
1
1
1
1
1
1
1
1
1
1
1
1
1
1
1
1
1
1.33984
2.49308
2.69567
2.70104
2.70895
2.71438
2.71795
2.7196
2.72043
2.72175
2.72457
2.72934
2.7356
2.74228
2.74808
2.7518
2.75332
2.75369
2.75405
2.75502
2.75761
2.76261
2.76982
2.77756
2.78374
2.78703
2.7881
2.78867
2.78977
2.79223
2.79634
2.80117
2.80516
2.80738
2.80799
2.80793
2.80794
2.80842
2.80973
2.81211
2.81579
2.82052
2.82623
2.83312
2.83941
2.84309
2.8438
1
1
1
1
1
1
1
1
1
1
1
1
1
1
1
1
1
1
1
1
1
1
1
1
1
1
1
1
1
1
1
1
1
1
1
1
1
1
1
1
1
1
1
1
1
1
1
1
1
1.31634
2.48086
2.69501
2.70083
2.70885
2.71403
2.71725
2.71871
2.71954
2.72098
2.72401
2.72905
2.73555
2.74233
2.74815
2.75191
2.75346
2.75385
2.7542
2.75503
2.75741
2.76224
2.76941
2.77721
2.78347
2.78683
2.78797
2.78857
2.78961
2.79195
2.79596
2.8007
2.80468
2.80693
2.80759
2.80758
2.8076
2.80803
2.80929
2.81165
2.81535
2.82009
2.82581
2.83267
2.83894
2.84263
2.84338
1
1
1
1
1
1
1
1
1
1
1
1
1
1
1
1
1
1
1
1
1
1
1
1
1
1
1
1
1
1
1
1
1
1
1
1
1
1
1
1
1
1
1
1
1
1
1
1
1
1.285
2.46404
2.6948
2.70065
2.70841
2.71332
2.7163
2.71756
2.71836
2.71991
2.72316
2.72853
2.73528
2.74221
2.74819
2.75209
2.75371
2.7541
2.75441
2.75508
2.75721
2.76181
2.76888
2.77673
2.78306
2.78651
2.78772
2.78834
2.78933
2.79156
2.79544
2.8001
2.80404
2.80634
2.80708
2.80711
2.80713
2.80752
2.80873
2.81109
2.8148
2.81953
2.82527
2.8321
2.83835
2.84205
2.84284
1
1
1
1
1
1
1
1
1
1
1
1
1
1
1
1
1
1
1
1
1
1
1
1
1
1
1
1
1
1
1
1
1
1
1
1
1
1
1
1
1
1
1
1
1
1
1
1
1
1.24509
2.4416
2.69487
2.70067
2.70787
2.71241
2.71506
2.71619
2.71699
2.71863
2.72212
2.72776
2.73484
2.74208
2.74825
2.75226
2.75388
2.7542
2.75443
2.75493
2.75683
2.7612
2.76814
2.77603
2.78245
2.78602
2.78732
2.78798
2.78895
2.79108
2.79482
2.79936
2.80327
2.8056
2.80642
2.80652
2.80652
2.80687
2.80804
2.81041
2.8141
2.81881
2.82457
2.83139
2.83762
2.84133
2.84217
1
1
1
1
1
1
1
1
1
1
1
1
1
1
1
1
1
1
1
1
1
1
1
1
1
1
1
1
1
1
1
1
1
1
1
1
1
1
1
1
1
1
1
1
1
1
1
1
1
1.19635
2.41219
2.69431
2.70056
2.70721
2.71135
2.7138
2.7149
2.71573
2.71743
2.72107
2.72694
2.73429
2.74177
2.7481
2.75222
2.75388
2.75419
2.7544
2.7548
2.75651
2.76064
2.76739
2.77522
2.78169
2.78535
2.78671
2.7874
2.78837
2.79044
2.79405
2.79849
2.80235
2.80471
2.8056
2.80574
2.80573
2.80605
2.80721
2.80958
2.81322
2.81787
2.82366
2.83048
2.83675
2.8405
2.84142
1
1
1
1
1
1
1
1
1
1
1
1
1
1
1
1
1
1
1
1
1
1
1
1
1
1
1
1
1
1
1
1
1
1
1
1
1
1
1
1
1
1
1
1
1
1
1
1
1
1.13976
2.37537
2.69243
2.7002
2.70648
2.71043
2.71286
2.71408
2.71499
2.71671
2.72028
2.72613
2.73362
2.74135
2.7479
2.75219
2.75386
2.7541
2.75423
2.75456
2.75615
2.76002
2.76649
2.77417
2.78065
2.78443
2.78587
2.78662
2.78762
2.78966
2.79317
2.79749
2.80128
2.80365
2.80458
2.80475
2.80476
2.80508
2.80622
2.8086
2.81215
2.81669
2.82251
2.82936
2.8357
2.83954
2.84055
1
1
1
1
1
1
1
1
1
1
1
1
1
1
1
1
1
1
1
1
1
1
1
1
1
1
1
1
1
1
1
1
1
1
1
1
1
1
1
1
1
1
1
1
1
1
1
1
1
1.07308
2.33534
2.68987
2.69942
2.70602
2.71043
2.71312
2.71438
2.71516
2.71654
2.71966
2.7252
2.73264
2.74046
2.74719
2.75171
2.75354
2.75384
2.754
2.75436
2.75585
2.75945
2.76555
2.77295
2.77937
2.78327
2.78483
2.78564
2.7867
2.78873
2.79214
2.79633
2.80003
2.80237
2.80332
2.80352
2.80357
2.80393
2.80507
2.80743
2.81086
2.81527
2.8211
2.828
2.83447
2.83843
2.83959
1
1
1
1
1
1
1
1
1
1
1
1
1
1
1
1
1
1
1
1
1
1
1
1
1
1
1
1
1
1
1
1
1
1
1
1
1
1
1
1
1
1
1
1
1
1
1
1
1
1.00355
2.29153
2.68677
2.69888
2.70543
2.7101
2.71277
2.71398
2.71472
2.716
2.7189
2.72417
2.73144
2.73927
2.74617
2.75104
2.75322
2.75366
2.75384
2.75417
2.75553
2.7588
2.76441
2.77144
2.77776
2.78182
2.7836
2.78452
2.78563
2.78764
2.79093
2.79495
2.79854
2.80084
2.80179
2.80204
2.80217
2.80261
2.80377
2.80608
2.80936
2.81362
2.81942
2.82639
2.83304
2.83716
2.83851
1
1
1
1
1
1
1
1
1
1
1
1
1
1
1
1
1
1
1
1
1
1
1
1
1
1
1
1
1
1
1
1
1
1
1
1
1
1
1
1
1
1
1
1
1
1
1
1
1
1.00002
2.23732
2.68326
2.69871
2.70506
2.71027
2.7132
2.71448
2.71514
2.71624
2.7188
2.72354
2.73031
2.73786
2.74474
2.74988
2.7525
2.75324
2.75355
2.75394
2.75521
2.75814
2.76317
2.76969
2.77581
2.78003
2.78212
2.78322
2.78441
2.78639
2.7895
2.79333
2.79679
2.79905
2.80004
2.80036
2.80058
2.80111
2.80229
2.80449
2.8076
2.8117
2.81745
2.82452
2.83139
2.83571
2.83729
1
1
1
1
1
1
1
1
1
1
1
1
1
1
1
1
1
1
1
1
1
1
1
1
1
1
1
1
1
1
1
1
1
1
1
1
1
1
1
1
1
1
1
1
1
1
1
1
1
1
2.17034
2.67806
2.69849
2.70487
2.71057
2.71378
2.71523
2.71583
2.71671
2.71878
2.72283
2.72889
2.73592
2.74263
2.74801
2.75123
2.75254
2.75318
2.75372
2.75492
2.75746
2.76181
2.76768
2.77354
2.77793
2.78043
2.78182
2.78314
2.78505
2.78792
2.79147
2.79477
2.79702
2.79807
2.79847
2.79878
2.79937
2.80054
2.80264
2.80558
2.80953
2.81524
2.82241
2.82954
2.83409
2.8359
1
1
1
1
1
1
1
1
1
1
1
1
1
1
1
1
1
1
1
1
1
1
1
1
1
1
1
1
1
1
1
1
1
1
1
1
1
1
1
1
1
1
1
1
1
1
1
1
1
1
2.09049
2.66858
2.6966
2.70374
2.71027
2.71398
2.7158
2.7165
2.71721
2.71884
2.72217
2.72736
2.73366
2.74
2.74553
2.74939
2.75147
2.75265
2.75349
2.75462
2.75675
2.76033
2.76541
2.77088
2.7754
2.77836
2.78016
2.78168
2.78357
2.78619
2.78942
2.79252
2.79474
2.79588
2.79636
2.79672
2.79734
2.79846
2.80051
2.80336
2.80718
2.81285
2.82011
2.82742
2.83221
2.83425
1
1
1
1
1
1
1
1
1
1
1
1
1
1
1
1
1
1
1
1
1
1
1
1
1
1
1
1
1
1
1
1
1
1
1
1
1
1
1
1
1
1
1
1
1
1
1
1
1
1
1.9994
2.65386
2.69163
2.7008
2.70894
2.71373
2.71608
2.71691
2.71751
2.71873
2.7213
2.72547
2.73084
2.73661
2.74215
2.74666
2.74965
2.75165
2.75296
2.75415
2.75594
2.75876
2.76301
2.76804
2.77268
2.77612
2.77838
2.78011
2.78191
2.78418
2.78701
2.78988
2.79211
2.7934
2.79402
2.79445
2.79506
2.79613
2.79814
2.80093
2.80463
2.81026
2.81759
2.82503
2.83004
2.83226
1
1
1
1
1
1
1
1
1
1
1
1
1
1
1
1
1
1
1
1
1
1
1
1
1
1
1
1
1
1
1
1
1
1
1
1
1
1
1
1
1
1
1
1
1
1
1
1
1
1
1.89775
2.63489
2.6836
2.69567
2.70588
2.71203
2.71548
2.71692
2.71765
2.71863
2.72052
2.72367
2.72797
2.73294
2.73818
2.74309
2.74691
2.74984
2.75182
2.75319
2.75473
2.75688
2.76029
2.7648
2.7695
2.77342
2.77618
2.77816
2.77993
2.78194
2.78441
2.78707
2.78931
2.79075
2.79149
2.79192
2.79248
2.79347
2.79545
2.79822
2.80186
2.80749
2.81487
2.82243
2.82762
2.82996
1
1
1
1
1
1
1
1
1
1
1
1
1
1
1
1
1
1
1
1
1
1
1
1
1
1
1
1
1
1
1
1
1
1
1
1
1
1
1
1
1
1
1
1
1
1
1
1
1
1
1.78313
2.61249
2.67631
2.68934
2.70076
2.70815
2.71307
2.71574
2.71696
2.71787
2.71924
2.72155
2.72489
2.72902
2.7338
2.73891
2.74346
2.74732
2.75009
2.75182
2.75332
2.75499
2.7577
2.76168
2.76632
2.77056
2.77374
2.77592
2.77763
2.77939
2.78155
2.78401
2.78626
2.78782
2.78865
2.7891
2.78961
2.79055
2.79251
2.79528
2.79889
2.8045
2.81191
2.81956
2.82484
2.82722
1
1
1
1
1
1
1
1
1
1
1
1
1
1
1
1
1
1
1
1
1
1
1
1
1
1
1
1
1
1
1
1
1
1
1
1
1
1
1
1
1
1
1
1
1
1
1
1
1
1
1.65703
2.58255
2.67326
2.68289
2.69327
2.7017
2.70835
2.7126
2.71493
2.71624
2.71751
2.71934
2.72193
2.72526
2.7294
2.73437
2.73936
2.74397
2.74753
2.74979
2.75143
2.75285
2.75505
2.75853
2.76298
2.76738
2.77087
2.77323
2.77494
2.77656
2.7785
2.7808
2.78302
2.78464
2.78554
2.78598
2.78646
2.78735
2.78925
2.79201
2.79564
2.80124
2.80866
2.81639
2.82176
2.82412
1
1
1
1
1
1
1
1
1
1
1
1
1
1
1
1
1
1
1
1
1
1
1
1
1
1
1
1
1
1
1
1
1
1
1
1
1
1
1
1
1
1
1
1
1
1
1
1
1
1
1.50908
2.53531
2.6734
2.67849
2.6864
2.69423
2.70174
2.70743
2.71111
2.71329
2.71493
2.71671
2.71891
2.72165
2.72513
2.72965
2.73473
2.73976
2.74403
2.74693
2.74894
2.75039
2.75234
2.7554
2.75956
2.76395
2.76761
2.77016
2.77192
2.77348
2.77527
2.7774
2.77952
2.78113
2.78206
2.78254
2.78303
2.78391
2.78575
2.78845
2.7921
2.79768
2.80507
2.81285
2.81826
2.82057
1
1
1
1
1
1
1
1
1
1
1
1
1
1
1
1
1
1
1
1
1
1
1
1
1
1
1
1
1
1
1
1
1
1
1
1
1
1
1
1
1
1
1
1
1
1
1
1
1
1
1.33503
2.46741
2.67594
2.67582
2.68105
2.68756
2.69477
2.7011
2.70581
2.70894
2.7113
2.71347
2.71572
2.7182
2.72117
2.72508
2.72985
2.7349
2.73961
2.74316
2.74571
2.74747
2.74941
2.75219
2.75601
2.76022
2.76395
2.76665
2.76854
2.77011
2.77181
2.77377
2.77574
2.7773
2.77826
2.77879
2.77932
2.78022
2.78196
2.78452
2.78815
2.79369
2.80108
2.80888
2.81436
2.81662
1
1
1
1
1
1
1
1
1
1
1
1
1
1
1
1
1
1
1
1
1
1
1
1
1
1
1
1
1
1
1
1
1
1
1
1
1
1
1
1
1
1
1
1
1
1
1
1
1
1
1.15391
2.38804
2.67882
2.67739
2.68021
2.68447
2.68985
2.69525
2.69986
2.70355
2.70673
2.70963
2.71237
2.715
2.71767
2.72091
2.72503
2.72968
2.73448
2.73852
2.74169
2.74399
2.74615
2.74881
2.75229
2.75621
2.75988
2.76272
2.76477
2.76644
2.76809
2.76988
2.77165
2.77311
2.7741
2.77472
2.77531
2.77626
2.77787
2.78021
2.78377
2.78926
2.79663
2.80444
2.80995
2.81213
1
1
1
1
1
1
1
1
1
1
1
1
1
1
1
1
1
1
1
1
1
1
1
1
1
1
1
1
1
1
1
1
1
1
1
1
1
1
1
1
1
1
1
1
1
1
1
1
1
1
1.011
2.31713
2.67792
2.67697
2.67967
2.68335
2.68746
2.69156
2.6955
2.69922
2.70276
2.70618
2.7094
2.71233
2.71492
2.71756
2.72081
2.72467
2.7291
2.73336
2.73703
2.73994
2.74246
2.74513
2.74831
2.7519
2.75543
2.75838
2.76061
2.76239
2.76402
2.76565
2.76722
2.76856
2.76958
2.7703
2.77096
2.77193
2.77337
2.7754
2.77885
2.78426
2.79164
2.79947
2.80502
2.80713
1
1
1
1
1
1
1
1
1
1
1
1
1
1
1
1
1
1
1
1
1
1
1
1
1
1
1
1
1
1
1
1
1
1
1
1
1
1
1
1
1
1
1
1
1
1
1
1
1
1
1.00006
2.21815
2.67835
2.68053
2.68308
2.68609
2.68897
2.69202
2.69498
2.69791
2.70103
2.70441
2.70775
2.71082
2.71323
2.71524
2.71757
2.72045
2.72409
2.72812
2.73201
2.73544
2.73835
2.7411
2.74405
2.74731
2.75064
2.75364
2.75604
2.75795
2.75956
2.76106
2.76243
2.76366
2.7647
2.76549
2.7662
2.76717
2.76842
2.77015
2.7734
2.77869
2.78603
2.79386
2.79939
2.80143
1
1
1
1
1
1
1
1
1
1
1
1
1
1
1
1
1
1
1
1
1
1
1
1
1
1
1
1
1
1
1
1
1
1
1
1
1
1
1
1
1
1
1
1
1
1
1
1
1
1
1
2.09182
2.66766
2.68094
2.68394
2.6874
2.69015
2.69261
2.69506
2.69759
2.70043
2.70367
2.70703
2.71007
2.71236
2.71382
2.71523
2.71706
2.71972
2.72326
2.72709
2.73077
2.73393
2.73676
2.73951
2.74243
2.74553
2.74851
2.75105
2.75306
2.75467
2.75606
2.75728
2.7584
2.75943
2.76027
2.761
2.76183
2.76277
2.76425
2.76724
2.77237
2.77966
2.7875
2.79304
2.79505
1
1
1
1
1
1
1
1
1
1
1
1
1
1
1
1
1
1
1
1
1
1
1
1
1
1
1
1
1
1
1
1
1
1
1
1
1
1
1
1
1
1
1
1
1
1
1
1
1
1
1
1.93324
2.63403
2.67778
2.6835
2.68759
2.6905
2.69265
2.6946
2.69669
2.69933
2.70259
2.7061
2.70929
2.71165
2.71296
2.71382
2.7148
2.71645
2.71917
2.72259
2.72623
2.72947
2.73227
2.73479
2.73738
2.74018
2.74305
2.74563
2.74772
2.74933
2.75065
2.75177
2.7528
2.75378
2.75457
2.75525
2.75586
2.75647
2.75773
2.76046
2.76536
2.77247
2.7802
2.78565
2.78756
1
1
1
1
1
1
1
1
1
1
1
1
1
1
1
1
1
1
1
1
1
1
1
1
1
1
1
1
1
1
1
1
1
1
1
1
1
1
1
1
1
1
1
1
1
1
1
1
1
1
1
1.7523
2.57775
2.66573
2.67588
2.68281
2.68727
2.69039
2.69264
2.69492
2.69774
2.70115
2.70486
2.70821
2.71064
2.71188
2.71238
2.71283
2.7138
2.71584
2.71885
2.72206
2.72509
2.72774
2.73003
2.73225
2.73469
2.73731
2.73982
2.74192
2.74353
2.7448
2.74586
2.74682
2.74769
2.74836
2.74882
2.74909
2.7494
2.75032
2.75266
2.75723
2.76412
2.77176
2.77717
2.77907
1
1
1
1
1
1
1
1
1
1
1
1
1
1
1
1
1
1
1
1
1
1
1
1
1
1
1
1
1
1
1
1
1
1
1
1
1
1
1
1
1
1
1
1
1
1
1
1
1
1
1
1.50619
2.48464
2.65205
2.66392
2.67292
2.67893
2.68313
2.68638
2.68957
2.69331
2.69773
2.70236
2.70638
2.70917
2.71049
2.71089
2.71102
2.71158
2.713
2.71545
2.71835
2.72106
2.72336
2.72531
2.72717
2.72919
2.73144
2.73372
2.73571
2.73729
2.73854
2.73957
2.74043
2.74112
2.74152
2.74161
2.74155
2.74153
2.74208
2.74401
2.74815
2.75459
2.76185
2.76699
2.76867
1
1
1
1
1
1
1
1
1
1
1
1
1
1
1
1
1
1
1
1
1
1
1
1
1
1
1
1
1
1
1
1
1
1
1
1
1
1
1
1
1
1
1
1
1
1
1
1
1
1
1
1.2117
2.38853
2.65056
2.64819
2.65569
2.66472
2.67196
2.67717
2.68151
2.68612
2.69153
2.69727
2.70241
2.70613
2.70801
2.70865
2.70886
2.70933
2.71048
2.71244
2.71489
2.71717
2.71912
2.72078
2.72225
2.72379
2.72555
2.72743
2.72918
2.73065
2.73183
2.73279
2.73347
2.7339
2.73395
2.73366
2.73313
2.7327
2.73277
2.73395
2.73726
2.74302
2.74992
2.75493
2.75666
1
1
1
1
1
1
1
1
1
1
1
1
1
1
1
1
1
1
1
1
1
1
1
1
1
1
1
1
1
1
1
1
1
1
1
1
1
1
1
1
1
1
1
1
1
1
1
1
1
1
1
1.01222
2.31594
2.65238
2.64601
2.65096
2.65706
2.66236
2.66731
2.67215
2.67729
2.68318
2.68967
2.69589
2.70073
2.70356
2.70484
2.70554
2.70633
2.70753
2.70935
2.71158
2.71361
2.71521
2.71648
2.71756
2.71862
2.71981
2.72117
2.72253
2.72373
2.72471
2.72546
2.7259
2.72603
2.72571
2.7249
2.72379
2.72276
2.72223
2.7227
2.72503
2.72979
2.73571
2.73984
2.74074
1
1
1
1
1
1
1
1
1
1
1
1
1
1
1
1
1
1
1
1
1
1
1
1
1
1
1
1
1
1
1
1
1
1
1
1
1
1
1
1
1
1
1
1
1
1
1
1
1
1
1
1.00004
2.19418
2.65151
2.65013
2.65169
2.65419
2.65786
2.66169
2.6653
2.66916
2.67427
2.68065
2.68726
2.69289
2.69674
2.699
2.70053
2.70197
2.7036
2.70562
2.70791
2.70991
2.71136
2.71239
2.7131
2.71367
2.71433
2.71514
2.71594
2.71664
2.71721
2.71761
2.71772
2.71747
2.71665
2.71522
2.71346
2.71169
2.71024
2.70951
2.71011
2.71277
2.7171
2.72043
2.7216
1
1
1
1
1
1
1
1
1
1
1
1
1
1
1
1
1
1
1
1
1
1
1
1
1
1
1
1
1
1
1
1
1
1
1
1
1
1
1
1
1
1
1
1
1
1
1
1
1
1
1
1
2.02956
2.64807
2.65462
2.65618
2.6578
2.65882
2.66012
2.66173
2.66417
2.66779
2.67262
2.67833
2.68385
2.68821
2.69127
2.69364
2.6959
2.69827
2.70084
2.70346
2.70566
2.70714
2.70806
2.70859
2.70889
2.70916
2.70941
2.70957
2.70957
2.70956
2.70946
2.70906
2.70822
2.70674
2.70463
2.70211
2.69935
2.69652
2.69403
2.69282
2.69342
2.69509
2.6952
2.69233
1
1
1
1
1
1
1
1
1
1
1
1
1
1
1
1
1
1
1
1
1
1
1
1
1
1
1
1
1
1
1
1
1
1
1
1
1
1
1
1
1
1
1
1
1
1
1
1
1
1
1
1
1.81154
2.59452
2.65644
2.65777
2.65974
2.66105
2.66163
2.66218
2.66309
2.66459
2.66735
2.67126
2.67558
2.67951
2.68274
2.68554
2.68838
2.69147
2.69469
2.69783
2.70044
2.70216
2.70316
2.70369
2.70392
2.70396
2.70383
2.70344
2.70272
2.70196
2.70108
2.69991
2.69826
2.69602
2.69313
2.68969
2.68571
2.68126
2.67653
2.67204
2.66763
2.66254
2.65659
2.65011
1
1
1
1
1
1
1
1
1
1
1
1
1
1
1
1
1
1
1
1
1
1
1
1
1
1
1
1
1
1
1
1
1
1
1
1
1
1
1
1
1
1
1
1
1
1
1
1
1
1
1
1
1.51282
2.47963
2.64918
2.65148
2.65557
2.65851
2.66047
2.66195
2.66289
2.66373
2.66502
2.667
2.66956
2.67227
2.67488
2.67744
2.68032
2.68367
2.68726
2.69084
2.69392
2.69608
2.69742
2.69816
2.69848
2.6985
2.6982
2.69743
2.6961
2.69447
2.69263
2.69045
2.68783
2.68467
2.68085
2.67628
2.6708
2.66421
2.65627
2.64705
2.63665
2.62483
2.61319
2.60886
1
1
1
1
1
1
1
1
1
1
1
1
1
1
1
1
1
1
1
1
1
1
1
1
1
1
1
1
1
1
1
1
1
1
1
1
1
1
1
1
1
1
1
1
1
1
1
1
1
1
1
1
1.15226
2.35408
2.64038
2.63737
2.64232
2.64904
2.65507
2.65895
2.6611
2.66223
2.66323
2.66446
2.66588
2.66738
2.66898
2.67074
2.67297
2.6759
2.67924
2.68284
2.68614
2.68874
2.69056
2.69173
2.69234
2.69251
2.69219
2.69125
2.68945
2.68695
2.68407
2.68079
2.67708
2.67287
2.66793
2.66198
2.65465
2.64553
2.63402
2.61964
2.60031
2.57022
2.51009
2.37404
1
1
1
1
1
1
1
1
1
1
1
1
1
1
1
1
1
1
1
1
1
1
1
1
1
1
1
1
1
1
1
1
1
1
1
1
1
1
1
1
1
1
1
1
1
1
1
1
1
1
1
1
1.00592
2.25587
2.62505
2.62425
2.63071
2.63825
2.64608
2.65215
2.65625
2.65872
2.66038
2.6617
2.66289
2.66394
2.66486
2.6658
2.66711
2.66905
2.6716
2.67461
2.67766
2.68039
2.68256
2.68421
2.68529
2.68576
2.68555
2.6846
2.68252
2.67933
2.67546
2.67111
2.66626
2.66086
2.6546
2.64705
2.63761
2.62561
2.60999
2.58881
2.55819
2.50795
2.43115
2.21968
1
1
1
1
1
1
1
1
1
1
1
1
1
1
1
1
1
1
1
1
1
1
1
1
1
1
1
1
1
1
1
1
1
1
1
1
1
1
1
1
1
1
1
1
1
1
1
1
1
1
1
1
1
2.08187
2.61413
2.62622
2.63055
2.63432
2.63899
2.64429
2.649
2.65264
2.65542
2.65751
2.65917
2.6605
2.66143
2.66207
2.66269
2.66362
2.6651
2.66708
2.66936
2.67166
2.67378
2.67566
2.67717
2.67801
2.67797
2.67715
2.67497
2.67135
2.6667
2.66139
2.65545
2.6488
2.64107
2.63173
2.62001
2.60503
2.58518
2.5583
2.51819
2.46365
2.34448
2.14055
1
1
1
1
1
1
1
1
1
1
1
1
1
1
1
1
1
1
1
1
1
1
1
1
1
1
1
1
1
1
1
1
1
1
1
1
1
1
1
1
1
1
1
1
1
1
1
1
1
1
1
1
0.999999
1.84008
2.57655
2.62982
2.63048
2.63264
2.63534
2.63819
2.64167
2.64527
2.64863
2.65154
2.65399
2.65605
2.65751
2.65837
2.65882
2.65919
2.65974
2.66064
2.66192
2.66336
2.66489
2.66652
2.6681
2.66917
2.66935
2.66866
2.66657
2.66281
2.65771
2.65166
2.64475
2.63685
2.62757
2.6164
2.60233
2.58454
2.56088
2.52951
2.48377
2.41632
2.29037
2.10466
1
1
1
1
1
1
1
1
1
1
1
1
1
1
1
1
1
1
1
1
1
1
1
1
1
1
1
1
1
1
1
1
1
1
1
1
1
1
1
1
1
1
1
1
1
1
1
1
1
1
1
1
1
1.49411
2.465
2.62684
2.6263
2.6285
2.6309
2.63355
2.63635
2.63915
2.64204
2.64494
2.64773
2.65035
2.65248
2.65397
2.65482
2.6552
2.65517
2.65525
2.65561
2.65604
2.65661
2.65743
2.65852
2.65943
2.65967
2.6591
2.65718
2.65354
2.64831
2.64181
2.63409
2.62506
2.61428
2.60134
2.5851
2.56475
2.53807
2.50254
2.4538
2.37936
2.26371
2.1154
1
1
1
1
1
1
1
1
1
1
1
1
1
1
1
1
1
1
1
1
1
1
1
1
1
1
1
1
1
1
1
1
1
1
1
1
1
1
1
1
1
1
1
1
1
1
1
1
1
1
1
1
1
1.08748
2.32854
2.62288
2.61894
2.62033
2.6239
2.62808
2.63117
2.63371
2.63605
2.63846
2.64102
2.6437
2.6462
2.64832
2.64982
2.65065
2.6506
2.65032
2.65006
2.64971
2.64927
2.64899
2.64909
2.64932
2.64929
2.64866
2.64683
2.64341
2.6383
2.63163
2.62335
2.61338
2.60129
2.58672
2.56864
2.5461
2.51717
2.47896
2.42813
2.35435
2.254
2.1306
1
1
1
1
1
1
1
1
1
1
1
1
1
1
1
1
1
1
1
1
1
1
1
1
1
1
1
1
1
1
1
1
1
1
1
1
1
1
1
1
1
1
1
1
1
1
1
1
1
1
1
1
1
1.00182
2.19432
2.59976
2.60324
2.60984
2.61572
2.62136
2.62539
2.62838
2.63065
2.63263
2.63469
2.63699
2.63929
2.64164
2.64368
2.64518
2.64562
2.64537
2.64482
2.64399
2.6428
2.64144
2.6403
2.63947
2.63874
2.63769
2.63578
2.63255
2.62765
2.62099
2.6124
2.60175
2.58865
2.57275
2.55323
2.52905
2.49856
2.45932
2.40752
2.33891
2.25118
2.14603
1
1
1
1
1
1
1
1
1
1
1
1
1
1
1
1
1
1
1
1
1
1
1
1
1
1
1
1
1
1
1
1
1
1
1
1
1
1
1
1
1
1
1
1
1
1
1
1
1
1
1
1
1
0.999992
1.96584
2.57445
2.60244
2.60799
2.61242
2.61626
2.61993
2.62315
2.6255
2.62725
2.62882
2.63056
2.6323
2.63438
2.63654
2.63856
2.6397
2.63973
2.63928
2.63831
2.63674
2.63464
2.6324
2.63038
2.62861
2.62681
2.6245
2.62117
2.61634
2.60973
2.601
2.58996
2.57621
2.55938
2.53884
2.51362
2.48236
2.44318
2.39207
2.32923
2.25293
2.16296
1
1
1
1
1
1
1
1
1
1
1
1
1
1
1
1
1
1
1
1
1
1
1
1
1
1
1
1
1
1
1
1
1
1
1
1
1
1
1
1
1
1
1
1
1
1
1
1
1
1
1
1
1
0.999998
1.60859
2.48777
2.6014
2.60458
2.60741
2.61063
2.61446
2.61771
2.62022
2.62199
2.62334
2.62465
2.62578
2.62731
2.62918
2.63124
2.63285
2.63337
2.6331
2.63223
2.63059
2.62816
2.62519
2.62215
2.61928
2.61652
2.61349
2.60974
2.60471
2.59802
2.58923
2.578
2.56394
2.54661
2.52552
2.4998
2.46866
2.42958
2.38133
2.3247
2.25611
2.17856
1
1
1
1
1
1
1
1
1
1
1
1
1
1
1
1
1
1
1
1
1
1
1
1
1
1
1
1
1
1
1
1
1
1
1
1
1
1
1
1
1
1
1
1
1
1
1
1
1
1
1
1
1
1
1.16153
2.34945
2.60287
2.59726
2.59887
2.60299
2.60789
2.61162
2.61448
2.61647
2.61788
2.61903
2.61965
2.62063
2.62199
2.62371
2.62537
2.62627
2.62618
2.6255
2.62399
2.62155
2.61831
2.61464
2.61086
2.60711
2.60314
2.59864
2.59309
2.58608
2.57711
2.56577
2.55161
2.5342
2.51304
2.48738
2.45679
2.41827
2.37446
2.32253
2.25902
2.19247
1
1
1
1
1
1
1
1
1
1
1
1
1
1
1
1
1
1
1
1
1
1
1
1
1
1
1
1
1
1
1
1
1
1
1
1
1
1
1
1
1
1
1
1
1
1
1
1
1
1
1
1
1
1
1.0063
2.21363
2.58319
2.58288
2.58819
2.59433
2.60022
2.60465
2.60806
2.61049
2.61218
2.61332
2.61377
2.61435
2.61517
2.61639
2.61776
2.61865
2.61861
2.61804
2.61668
2.61442
2.61126
2.60739
2.60306
2.59849
2.5936
2.58823
2.58194
2.57439
2.56508
2.55356
2.53937
2.5221
2.50125
2.47608
2.44622
2.40969
2.36939
2.32059
2.26285
2.20547
1
1
1
1
1
1
1
1
1
1
1
1
1
1
1
1
1
1
1
1
1
1
1
1
1
1
1
1
1
1
1
1
1
1
1
1
1
1
1
1
1
1
1
1
1
1
1
1
1
1
1
1
1
1
0.999994
1.95861
2.5549
2.58025
2.58519
2.58958
2.59385
2.59772
2.60124
2.60404
2.6061
2.60735
2.6079
2.60828
2.60871
2.60944
2.61037
2.61096
2.61083
2.61018
2.60883
2.60672
2.60376
2.59998
2.59545
2.59037
2.58477
2.57859
2.57153
2.5633
2.55343
2.54155
2.52726
2.51019
2.48988
2.46547
2.43688
2.40271
2.36468
2.31912
2.26806
2.21658
1
1
1
1
1
1
1
1
1
1
1
1
1
1
1
1
1
1
1
1
1
1
1
1
1
1
1
1
1
1
1
1
1
1
1
1
1
1
1
1
1
1
1
1
1
1
1
1
1
1
1
1
1
1
0.999997
1.55211
2.45945
2.58182
2.58234
2.58451
2.58773
2.59113
2.59442
2.5973
2.59957
2.60108
2.60186
2.60221
2.60239
2.60273
2.60318
2.60331
2.60296
2.60204
2.60052
2.59842
2.59563
2.59206
2.5876
2.58236
2.57638
2.56965
2.56195
2.55306
2.54258
2.53022
2.51567
2.49868
2.47893
2.45547
2.42825
2.396
2.36074
2.31865
2.27355
2.22544
1
1
1
1
1
1
1
1
1
1
1
1
1
1
1
1
1
1
1
1
1
1
1
1
1
1
1
1
1
1
1
1
1
1
1
1
1
1
1
1
1
1
1
1
1
1
1
1
1
1
1
1
1
1
0.999999
1.08386
2.31146
2.58371
2.57741
2.57811
2.58096
2.5841
2.58714
2.59004
2.59251
2.59431
2.5954
2.59589
2.59604
2.59612
2.59615
2.59594
2.59523
2.59393
2.59211
2.58986
2.58708
2.58363
2.57931
2.57412
2.56808
2.56111
2.55302
2.54359
2.53256
2.51973
2.50489
2.48782
2.46842
2.44589
2.41968
2.38994
2.35767
2.31825
2.2773
2.23155
1
1
1
1
1
1
1
1
1
1
1
1
1
1
1
1
1
1
1
1
1
1
1
1
1
1
1
1
1
1
1
1
1
1
1
1
1
1
1
1
1
1
1
1
1
1
1
1
1
1
1
1
1
1
1
1.00163
2.1331
2.55558
2.56329
2.57069
2.5748
2.57731
2.57999
2.58268
2.58512
2.58707
2.58841
2.58914
2.5894
2.58934
2.5891
2.58856
2.58748
2.58581
2.58366
2.58118
2.57827
2.57481
2.57058
2.56553
2.55961
2.55267
2.54448
2.5348
2.52344
2.51029
2.49523
2.47803
2.45888
2.43677
2.41159
2.38474
2.35387
2.31656
2.2796
2.23765
1
1
1
1
1
1
1
1
1
1
1
1
1
1
1
1
1
1
1
1
1
1
1
1
1
1
1
1
1
1
1
1
1
1
1
1
1
1
1
1
1
1
1
1
1
1
1
1
1
1
1
1
1
1
1
0.999989
1.78433
2.5
2.55948
2.56527
2.56782
2.57059
2.57316
2.57564
2.57791
2.57979
2.58118
2.58205
2.58246
2.58236
2.58197
2.58116
2.57977
2.5778
2.57537
2.57263
2.56952
2.56592
2.56165
2.55667
2.55088
2.54409
2.53599
2.52635
2.51497
2.50177
2.48664
2.46936
2.45052
2.4284
2.40445
2.37929
2.34857
2.31506
2.28211
2.24377
1
1
1
1
1
1
1
1
1
1
1
1
1
1
1
1
1
1
1
1
1
1
1
1
1
1
1
1
1
1
1
1
1
1
1
1
1
1
1
1
1
1
1
1
1
1
1
1
1
1
1
1
1
1
1
0.999997
1.29283
2.37571
2.55974
2.55539
2.55754
2.56141
2.56478
2.56775
2.57022
2.57216
2.5736
2.57459
2.57516
2.57505
2.57455
2.57355
2.57193
2.56976
2.56716
2.56423
2.56092
2.55716
2.55277
2.54776
2.54202
2.53532
2.52735
2.51792
2.5068
2.49383
2.47894
2.4618
2.44316
2.42118
2.39844
2.37349
2.34368
2.31467
2.2837
2.24815
1
1
1
1
1
1
1
1
1
1
1
1
1
1
1
1
1
1
1
1
1
1
1
1
1
1
1
1
1
1
1
1
1
1
1
1
1
1
1
1
1
1
1
1
1
1
1
1
1
1
1
1
1
1
1
1
1.02046
2.23313
2.54638
2.54386
2.54672
2.55149
2.5556
2.55936
2.5623
2.56443
2.56596
2.56704
2.5677
2.56759
2.56701
2.56585
2.56407
2.56177
2.55907
2.55603
2.55258
2.54865
2.54415
2.53906
2.53324
2.52649
2.51857
2.50936
2.49862
2.48611
2.47172
2.45504
2.43677
2.4153
2.39312
2.36819
2.34101
2.31439
2.28382
2.25106
1
1
1
1
1
1
1
1
1
1
1
1
1
1
1
1
1
1
1
1
1
1
1
1
1
1
1
1
1
1
1
1
1
1
1
1
1
1
1
1
1
1
1
1
1
1
1
1
1
1
1
1
1
1
1
1
1.00005
1.93546
2.51611
2.53615
2.54064
2.54477
2.54773
2.5513
2.55441
2.55672
2.55835
2.55949
2.56018
2.56006
2.55938
2.55808
2.55618
2.5538
2.55104
2.54794
2.5444
2.54039
2.53582
2.53068
2.52473
2.5178
2.50978
2.50066
2.49026
2.47825
2.4645
2.44855
2.4309
2.41024
2.38859
2.36452
2.33932
2.31301
2.28353
2.25392
1
1
1
1
1
1
1
1
1
1
1
1
1
1
1
1
1
1
1
1
1
1
1
1
1
1
1
1
1
1
1
1
1
1
1
1
1
1
1
1
1
1
1
1
1
1
1
1
1
1
1
1
1
1
1
1
1
1.45177
2.41511
2.53858
2.53583
2.53749
2.54022
2.54325
2.5462
2.54865
2.5505
2.55179
2.55257
2.55246
2.55175
2.55037
2.54837
2.54592
2.54308
2.53991
2.53632
2.53228
2.52773
2.5226
2.51657
2.50946
2.50125
2.49208
2.48185
2.47023
2.45713
2.44204
2.42499
2.40551
2.38526
2.36218
2.33765
2.3114
2.28424
2.2571
1
1
1
1
1
1
1
1
1
1
1
1
1
1
1
1
1
1
1
1
1
1
1
1
1
1
1
1
1
1
1
1
1
1
1
1
1
1
1
1
1
1
1
1
1
1
1
1
1
1
1
1
1
1
1
1
1
1.05111
2.2584
2.53978
2.53199
2.53127
2.53337
2.53542
2.53798
2.54043
2.54244
2.54392
2.54484
2.5448
2.54416
2.54279
2.54077
2.53822
2.53527
2.53197
2.5283
2.52426
2.51977
2.51469
2.50865
2.50144
2.49311
2.48381
2.47357
2.46211
2.44961
2.43517
2.4188
2.40111
2.38203
2.35947
2.33589
2.31138
2.28617
2.2597
1
1
1
1
1
1
1
1
1
1
1
1
1
1
1
1
1
1
1
1
1
1
1
1
1
1
1
1
1
1
1
1
1
1
1
1
1
1
1
1
1
1
1
1
1
1
1
1
1
1
1
1
1
1
1
1
1
1.00047
1.97454
2.50279
2.52076
2.52589
2.52887
2.52923
2.5307
2.53257
2.53441
2.53592
2.53701
2.53723
2.53671
2.53543
2.53342
2.5308
2.52767
2.52417
2.52036
2.51627
2.51181
2.50679
2.5008
2.49365
2.48539
2.47602
2.46574
2.45424
2.44217
2.42805
2.41269
2.3966
2.3777
2.35638
2.33499
2.31223
2.28783
2.26151
1
1
1
1
1
1
1
1
1
1
1
1
1
1
1
1
1
1
1
1
1
1
1
1
1
1
1
1
1
1
1
1
1
1
1
1
1
1
1
1
1
1
1
1
1
1
1
1
1
1
1
1
1
1
1
1
1
0.999998
1.47281
2.40115
2.52177
2.52039
2.52214
2.52283
2.52387
2.52491
2.52614
2.52742
2.52864
2.52934
2.52906
2.52806
2.52624
2.52363
2.52037
2.51665
2.51264
2.5084
2.50388
2.49884
2.49289
2.48589
2.47787
2.46859
2.45835
2.44681
2.43486
2.42103
2.40676
2.39115
2.37268
2.35363
2.33413
2.31243
2.28808
2.26291
1
1
1
1
1
1
1
1
1
1
1
1
1
1
1
1
1
1
1
1
1
1
1
1
1
1
1
1
1
1
1
1
1
1
1
1
1
1
1
1
1
1
1
1
1
1
1
1
1
1
1
1
1
1
1
1
1
0.999999
1.05538
2.24103
2.51904
2.51414
2.51444
2.51585
2.51697
2.51745
2.51798
2.51877
2.51991
2.52101
2.52119
2.52057
2.51907
2.51664
2.51336
2.50948
2.50524
2.50075
2.49601
2.49082
2.48487
2.47808
2.47039
2.46137
2.45133
2.43995
2.42804
2.4146
2.40089
2.38523
2.36808
2.35097
2.33225
2.31105
2.28785
2.26534
1
1
1
1
1
1
1
1
1
1
1
1
1
1
1
1
1
1
1
1
1
1
1
1
1
1
1
1
1
1
1
1
1
1
1
1
1
1
1
1
1
1
1
1
1
1
1
1
1
1
1
1
1
1
1
1
1
1
1.00055
1.93139
2.47556
2.50113
2.50709
2.50996
2.51109
2.51083
2.51058
2.51073
2.51137
2.51243
2.51313
2.51283
2.51177
2.50967
2.50655
2.50263
2.4982
2.49341
2.48834
2.48288
2.47682
2.47022
2.46278
2.45409
2.44442
2.43344
2.42165
2.40863
2.39494
2.37962
2.36396
2.34736
2.32872
2.30899
2.28805
2.26749
1
1
1
1
1
1
1
1
1
1
1
1
1
1
1
1
1
1
1
1
1
1
1
1
1
1
1
1
1
1
1
1
1
1
1
1
1
1
1
1
1
1
1
1
1
1
1
1
1
1
1
1
1
1
1
1
1
1
0.999998
1.38477
2.36314
2.50603
2.50271
2.50373
2.50372
2.50331
2.50273
2.50252
2.50278
2.50355
2.50451
2.50459
2.50401
2.50241
2.49966
2.49591
2.49143
2.48635
2.48092
2.47512
2.46883
2.46237
2.45508
2.44679
2.43758
2.42716
2.41562
2.40296
2.38941
2.37481
2.3598
2.34304
2.32526
2.30764
2.28806
2.2681
1
1
1
1
1
1
1
1
1
1
1
1
1
1
1
1
1
1
1
1
1
1
1
1
1
1
1
1
1
1
1
1
1
1
1
1
1
1
1
1
1
1
1
1
1
1
1
1
1
1
1
1
1
1
1
1
1
1
0.999999
1.03488
2.20392
2.48972
2.49227
2.49502
2.49496
2.49496
2.49459
2.49451
2.49459
2.49506
2.49591
2.49632
2.49601
2.49484
2.49253
2.48909
2.48468
2.47945
2.47373
2.4676
2.46112
2.45452
2.44737
2.43943
2.43062
2.42074
2.40955
2.39739
2.3843
2.37023
2.3553
2.33883
2.32256
2.30621
2.28716
2.26749
1
1
1
1
1
1
1
1
1
1
1
1
1
1
1
1
1
1
1
1
1
1
1
1
1
1
1
1
1
1
1
1
1
1
1
1
1
1
1
1
1
1
1
1
1
1
1
1
1
1
1
1
1
1
1
1
1
1
1
1.00018
1.82069
2.44077
2.48477
2.48704
2.48717
2.48773
2.48787
2.48765
2.48734
2.48737
2.48767
2.48792
2.48769
2.48679
2.48488
2.48185
2.47767
2.47251
2.46665
2.46032
2.45367
2.44685
2.43978
2.43207
2.42363
2.41417
2.40348
2.39203
2.37947
2.36576
2.35118
2.33559
2.32027
2.30419
2.28529
2.26655
1
1
1
1
1
1
1
1
1
1
1
1
1
1
1
1
1
1
1
1
1
1
1
1
1
1
1
1
1
1
1
1
1
1
1
1
1
1
1
1
1
1
1
1
1
1
1
1
1
1
1
1
1
1
1
1
1
1
1
0.999999
1.2171
2.30868
2.49161
2.48154
2.48048
2.48021
2.48061
2.48044
2.48015
2.47997
2.47987
2.47976
2.4794
2.47853
2.47682
2.4741
2.47022
2.46528
2.45951
2.45317
2.44644
2.43946
2.43229
2.42468
2.4165
2.40735
2.39726
2.38651
2.37443
2.36129
2.3475
2.33274
2.31776
2.30156
2.28342
2.26599
1
1
1
1
1
1
1
1
1
1
1
1
1
1
1
1
1
1
1
1
1
1
1
1
1
1
1
1
1
1
1
1
1
1
1
1
1
1
1
1
1
1
1
1
1
1
1
1
1
1
1
1
1
1
1
1
1
1
1
1
1.01042
2.1202
2.46475
2.46455
2.46765
2.47218
2.47332
2.47324
2.47322
2.47305
2.47261
2.47201
2.4712
2.47009
2.46836
2.46583
2.46227
2.45768
2.45222
2.44609
2.43943
2.43239
2.42508
2.41748
2.40943
2.40052
2.39098
2.38082
2.36925
2.35696
2.34403
2.32984
2.31508
2.29914
2.28236
2.26584
1
1
1
1
1
1
1
1
1
1
1
1
1
1
1
1
1
1
1
1
1
1
1
1
1
1
1
1
1
1
1
1
1
1
1
1
1
1
1
1
1
1
1
1
1
1
1
1
1
1
1
1
1
1
1
1
1
1
1
1
1
1.63372
2.38514
2.46068
2.46596
2.4675
2.46691
2.46694
2.46708
2.46679
2.46598
2.46486
2.4635
2.46193
2.45994
2.45737
2.45399
2.44976
2.44471
2.43894
2.43253
2.42556
2.41817
2.41051
2.40245
2.39367
2.38454
2.37477
2.36378
2.35243
2.34017
2.32649
2.31219
2.29698
2.28156
2.26546
1
1
1
1
1
1
1
1
1
1
1
1
1
1
1
1
1
1
1
1
1
1
1
1
1
1
1
1
1
1
1
1
1
1
1
1
1
1
1
1
1
1
1
1
1
1
1
1
1
1
1
1
1
1
1
1
1
1
1
1
0.999997
1.10454
2.22537
2.46148
2.45874
2.45958
2.4592
2.45966
2.46017
2.45983
2.45892
2.45755
2.45584
2.45389
2.45161
2.44893
2.44565
2.44173
2.43711
2.4318
2.42576
2.41901
2.41167
2.40397
2.39584
2.38713
2.37823
2.36868
2.35826
2.34758
2.33579
2.32285
2.30928
2.29499
2.28057
2.26468
1
1
1
1
1
1
1
1
1
1
1
1
1
1
1
1
1
1
1
1
1
1
1
1
1
1
1
1
1
1
1
1
1
1
1
1
1
1
1
1
1
1
1
1
1
1
1
1
1
1
1
1
1
1
1
1
1
1
1
1
0.999999
1.00221
1.88786
2.41459
2.44352
2.44838
2.44986
2.4523
2.45317
2.45283
2.45188
2.45043
2.44853
2.44628
2.44369
2.44079
2.43748
2.43372
2.42943
2.42453
2.4189
2.41248
2.40533
2.39769
2.38953
2.38085
2.37202
2.3626
2.35264
2.34239
2.33096
2.31885
2.3061
2.29268
2.2789
2.26342
1
1
1
1
1
1
1
1
1
1
1
1
1
1
1
1
1
1
1
1
1
1
1
1
1
1
1
1
1
1
1
1
1
1
1
1
1
1
1
1
1
1
1
1
1
1
1
1
1
1
1
1
1
1
1
1
1
1
1
1
1
0.999996
1.24352
2.27716
2.45032
2.44257
2.44361
2.44527
2.44546
2.44499
2.44406
2.44273
2.44092
2.43865
2.436
2.43301
2.42968
2.42599
2.42191
2.4173
2.41203
2.40598
2.39913
2.39169
2.38359