/*--------------------------------*- C++ -*----------------------------------*\
  =========                 |
  \\      /  F ield         | OpenFOAM: The Open Source CFD Toolbox
   \\    /   O peration     | Website:  https://openfoam.org
    \\  /    A nd           | Version:  7
     \\/     M anipulation  |
\*---------------------------------------------------------------------------*/
FoamFile
{
    version     2.0;
    format      ascii;
    class       volScalarField;
    location    "1.7";
    object      p;
}
// * * * * * * * * * * * * * * * * * * * * * * * * * * * * * * * * * * * * * //

dimensions      [1 -1 -2 0 0 0 0];

internalField   nonuniform List<scalar> 
16128
(
1
1
1
1
1
1
1
1
1
1
1
1
1
1
1
1
1
1
1
1
1
1
1
1
1
5.46231
10.5244
10.6986
10.781
10.8869
10.9904
11.0938
11.1895
11.2753
11.3554
11.4333
11.5093
11.5878
11.6682
11.7431
11.8076
11.8624
11.9115
11.9549
11.9933
12.0194
12.0336
12.038
1
1
1
1
1
1
1
1
1
1
1
1
1
1
1
1
1
1
1
1
1
1
1
1
1
5.38861
10.4964
10.6893
10.771
10.8772
10.9813
11.0851
11.1814
11.2679
11.3487
11.4271
11.5035
11.5821
11.6615
11.7343
11.7967
11.8495
11.8969
11.9387
11.9765
12.0045
12.0223
12.0309
1
1
1
1
1
1
1
1
1
1
1
1
1
1
1
1
1
1
1
1
1
1
1
1
1
5.22423
10.4627
10.6667
10.7491
10.8585
10.9654
11.0707
11.1683
11.2561
11.3383
11.4172
11.4941
11.5724
11.6503
11.7209
11.7816
11.8329
11.878
11.9167
11.9527
11.9817
12.0021
12.015
1
1
1
1
1
1
1
1
1
1
1
1
1
1
1
1
1
1
1
1
1
1
1
1
1
4.97642
10.4071
10.638
10.723
10.8359
10.9448
11.0508
11.1488
11.2372
11.3209
11.4007
11.4785
11.5564
11.6321
11.6998
11.7583
11.8081
11.8511
11.8873
11.9217
11.9515
11.9736
11.9901
1
1
1
1
1
1
1
1
1
1
1
1
1
1
1
1
1
1
1
1
1
1
1
1
1
4.64807
10.3178
10.6034
10.6923
10.808
10.9183
11.0241
11.1221
11.2104
11.2951
11.3752
11.4537
11.5309
11.6044
11.6696
11.7267
11.7759
11.8182
11.8529
11.8861
11.9157
11.9376
11.9559
1
1
1
1
1
1
1
1
1
1
1
1
1
1
1
1
1
1
1
1
1
1
1
1
1
4.2418
10.1822
10.5669
10.6592
10.7758
10.885
10.9883
11.0851
11.1738
11.2615
11.3442
11.4248
11.5012
11.5709
11.6312
11.6848
11.7322
11.7743
11.8097
11.8429
11.8723
11.8929
11.9111
1
1
1
1
1
1
1
1
1
1
1
1
1
1
1
1
1
1
1
1
1
1
1
1
1
3.76623
9.98017
10.5319
10.627
10.7447
10.8525
10.9533
11.0473
11.1331
11.218
11.2977
11.376
11.4501
11.5173
11.5754
11.6285
11.6768
11.7211
11.7595
11.7928
11.8207
11.8385
11.8542
1
1
1
1
1
1
1
1
1
1
1
1
1
1
1
1
1
1
1
1
1
1
1
1
1
3.2462
9.69962
10.5004
10.5924
10.7073
10.8115
10.9088
10.9998
11.0832
11.1663
11.2444
11.321
11.3926
11.4569
11.5129
11.5651
11.6135
11.6591
11.6987
11.7308
11.7565
11.7718
11.7851
1
1
1
1
1
1
1
1
1
1
1
1
1
1
1
1
1
1
1
1
1
1
1
1
1
2.70454
9.31808
10.4852
10.5588
10.6697
10.7693
10.8633
10.9511
11.0314
11.1109
11.186
11.2591
11.3262
11.3856
11.4374
11.4862
11.5332
11.5791
11.6204
11.652
11.6761
11.6899
11.7005
1
1
1
1
1
1
1
1
1
1
1
1
1
1
1
1
1
1
1
1
1
1
1
1
1
2.14729
8.78864
10.4733
10.5265
10.6364
10.7318
10.8213
10.9028
10.9771
11.0503
11.1207
11.1885
11.2496
11.3027
11.3498
11.3956
11.4429
11.4887
11.527
11.5523
11.5682
11.5763
11.5815
1
1
1
1
1
1
1
1
1
1
1
1
1
1
1
1
1
1
1
1
1
1
1
1
1
1.61726
8.1562
10.4984
10.4698
10.5811
10.6729
10.761
10.8411
10.9141
10.9834
11.0493
11.1118
11.1674
11.2141
11.2541
11.2931
11.336
11.3756
11.405
11.4229
11.4331
11.4389
11.4452
1
1
1
1
1
1
1
1
1
1
1
1
1
1
1
1
1
1
1
1
1
1
1
1
1
1.15989
7.30899
10.4976
10.4479
10.5472
10.6283
10.7043
10.7732
10.8367
10.8993
10.9603
11.0185
11.0701
11.1104
11.1418
11.1708
11.2057
11.2388
11.262
11.2727
11.2702
11.2609
11.2525
1
1
1
1
1
1
1
1
1
1
1
1
1
1
1
1
1
1
1
1
1
1
1
1
1
1.005
6.3015
10.2677
10.3288
10.455
10.5468
10.6252
10.6931
10.7555
10.8111
10.8638
10.9125
10.9561
10.9887
11.0116
11.0299
11.0514
11.069
11.0728
11.0602
11.0411
11.0186
11.0204
1
1
1
1
1
1
1
1
1
1
1
1
1
1
1
1
1
1
1
1
1
1
1
1
1
1.00001
5.15302
10.0415
10.2791
10.3896
10.4767
10.5459
10.6022
10.653
10.6997
10.7439
10.7835
10.8189
10.8433
10.8555
10.8607
10.8646
10.8619
10.849
10.821
10.7847
10.7225
10.648
1
1
1
1
1
1
1
1
1
1
1
1
1
1
1
1
1
1
1
1
1
1
1
1
1
1
3.97106
9.63122
10.2431
10.3411
10.4198
10.4826
10.5287
10.5681
10.6051
10.6384
10.6637
10.6834
10.694
10.6897
10.6761
10.6582
10.6305
10.5841
10.5007
10.3729
10.238
10.1352
1
1
1
1
1
1
1
1
1
1
1
1
1
1
1
1
1
1
1
1
1
1
1
1
1
1
2.78574
9.00367
10.211
10.2737
10.3449
10.4028
10.4453
10.4791
10.5089
10.5336
10.5468
10.5515
10.5441
10.5196
10.482
10.4348
10.3682
10.2684
10.1249
9.93821
9.73361
9.65027
1
1
1
1
1
1
1
1
1
1
1
1
1
1
1
1
1
1
1
1
1
1
1
1
1
1
1.68972
8.20138
10.2645
10.2093
10.2644
10.3195
10.3578
10.3836
10.4034
10.419
10.4214
10.4109
10.3859
10.341
10.2773
10.1974
10.0897
9.93987
9.71415
9.33694
8.46885
6.50924
1
1
1
1
1
1
1
1
1
1
1
1
1
1
1
1
1
1
1
1
1
1
1
1
1
1
1.05514
7.00244
10.2331
10.156
10.187
10.2205
10.2476
10.2692
10.2872
10.2992
10.2938
10.2719
10.2295
10.1633
10.0715
9.95559
9.80209
9.58295
9.24966
8.65284
7.71393
5.51981
1
1
1
1
1
1
1
1
1
1
1
1
1
1
1
1
1
1
1
1
1
1
1
1
1
1
1.00028
5.3473
9.76584
9.98422
10.0616
10.0953
10.1165
10.1376
10.1549
10.164
10.1551
10.1247
10.0687
9.98388
9.86611
9.71409
9.51581
9.23359
8.82247
8.15888
7.08993
5.17844
1
1
1
1
1
1
1
1
1
1
1
1
1
1
1
1
1
1
1
1
1
1
1
1
1
1
0.999998
3.75907
9.30504
9.95091
9.98476
10.0194
10.0315
10.0402
10.0446
10.0388
10.0162
9.97242
9.90323
9.80206
9.66229
9.47931
9.24159
8.91533
8.44225
7.76892
6.67287
5.11605
1
1
1
1
1
1
1
1
1
1
1
1
1
1
1
1
1
1
1
1
1
1
1
1
1
1
1
2.2301
8.51369
9.90395
9.88182
9.92385
9.94388
9.94341
9.93278
9.91021
9.87182
9.81472
9.73381
9.61924
9.46218
9.25553
8.98656
8.63111
8.13568
7.47067
6.44315
5.21565
1
1
1
1
1
1
1
1
1
1
1
1
1
1
1
1
1
1
1
1
1
1
1
1
1
1
1
1.15113
7.12132
9.92676
9.81848
9.81569
9.84132
9.83943
9.82324
9.78983
9.73449
9.66026
9.5639
9.43527
9.26391
9.04131
8.75356
8.38211
7.89353
7.25009
6.33656
5.34588
1
1
1
1
1
1
1
1
1
1
1
1
1
1
1
1
1
1
1
1
1
1
1
1
1
1
1
1.00212
5.27395
9.37981
9.64992
9.72031
9.73922
9.72689
9.70767
9.67043
9.606
9.51851
9.40613
9.26279
9.0776
8.84453
8.54599
8.17035
7.68963
7.0813
6.29113
5.45732
1
1
1
1
1
1
1
1
1
1
1
1
1
1
1
1
1
1
1
1
1
1
1
1
1
1
1
0.999984
3.14186
8.7653
9.64548
9.63157
9.64709
9.63551
9.60819
9.55973
9.48114
9.37794
9.24905
9.09367
8.89924
8.66273
8.36025
7.99701
7.51621
6.95431
6.27452
5.55962
1
1
1
1
1
1
1
1
1
1
1
1
1
1
1
1
1
1
1
1
1
1
1
1
1
1
1
0.999997
1.44412
7.70845
9.76209
9.58947
9.54355
9.53302
9.50169
9.44399
9.35629
9.2433
9.10341
8.93891
8.73892
8.49732
8.19766
7.84422
7.37639
6.86156
6.26097
5.64707
1
1
1
1
1
1
1
1
1
1
1
1
1
1
1
1
1
1
1
1
1
1
1
1
1
1
1
1
1.01913
5.88875
9.25329
9.36534
9.44172
9.44516
9.39862
9.32608
9.22554
9.10306
8.95674
8.78705
8.58655
8.34605
8.05628
7.70792
7.27662
6.80352
6.26319
5.7324
1
1
1
1
1
1
1
1
1
1
1
1
1
1
1
1
1
1
1
1
1
1
1
1
1
1
1
1
0.999944
3.3751
8.62876
9.36031
9.37681
9.36833
9.31045
9.22252
9.10712
8.97322
8.82094
8.64817
8.44694
8.21059
7.93132
7.58891
7.19655
6.7594
6.27532
5.79608
1
1
1
1
1
1
1
1
1
1
1
1
1
1
1
1
1
1
1
1
1
1
1
1
1
1
1
1
0.999985
1.41822
7.61086
9.54069
9.34541
9.24919
9.17765
9.0856
8.97091
8.83801
8.68903
8.51801
8.32091
8.08972
7.81607
7.4908
7.13189
6.72917
6.29913
5.85497
1
1
1
1
1
1
1
1
1
1
1
1
1
1
1
1
1
1
1
1
1
1
1
1
1
1
1
1
0.999997
1.01594
5.64304
9.05689
9.10807
9.10555
9.04472
8.9557
8.84732
8.72054
8.57395
8.40489
8.2071
7.98154
7.71181
7.40936
7.0752
6.70146
6.3146
5.8975
1
1
1
1
1
1
1
1
1
1
1
1
1
1
1
1
1
1
1
1
1
1
1
1
1
1
1
1
1
0.999926
2.98223
8.40254
9.04436
9.02982
8.96533
8.87283
8.76382
8.63473
8.486
8.31512
8.11384
7.88795
7.62663
7.34322
7.02794
6.68182
6.32516
5.93806
1
1
1
1
1
1
1
1
1
1
1
1
1
1
1
1
1
1
1
1
1
1
1
1
1
1
1
1
1
0.999981
1.27273
6.90354
9.06926
8.95452
8.8765
8.77995
8.67116
8.54363
8.39559
8.22495
8.0287
7.80335
7.5507
7.28307
6.9845
6.66096
6.32649
5.97204
1
1
1
1
1
1
1
1
1
1
1
1
1
1
1
1
1
1
1
1
1
1
1
1
1
1
1
1
1
0.999997
1.00605
4.33901
8.51752
8.78246
8.75561
8.69258
8.595
8.47157
8.3239
8.1526
7.9575
7.73538
7.48965
7.23222
6.94788
6.64159
6.32905
6.00328
1
1
1
1
1
1
1
1
1
1
1
1
1
1
1
1
1
1
1
1
1
1
1
1
1
1
1
1
1
1
0.999981
1.70087
7.59217
8.92278
8.74687
8.63855
8.52938
8.39865
8.24658
8.07208
7.87929
7.66572
7.43293
7.1872
6.91621
6.62446
6.33092
6.02693
1
1
1
1
1
1
1
1
1
1
1
1
1
1
1
1
1
1
1
1
1
1
1
1
1
1
1
1
1
1
0.999996
1.03958
5.4374
8.51519
8.56996
8.5372
8.4442
8.32015
8.17285
8.00263
7.81557
7.61018
7.38677
7.14905
6.88907
6.61134
6.33277
6.04598
1
1
1
1
1
1
1
1
1
1
1
1
1
1
1
1
1
1
1
1
1
1
1
1
1
1
1
1
1
1
0.999999
1.00005
2.41051
7.81045
8.62267
8.50094
8.38001
8.25125
8.10516
7.93837
7.7562
7.55776
7.34136
7.11155
6.86395
6.60207
6.33591
6.06336
1
1
1
1
1
1
1
1
1
1
1
1
1
1
1
1
1
1
1
1
1
1
1
1
1
1
1
1
1
1
1
1
1.13945
5.95454
8.47892
8.38928
8.29071
8.17142
8.03279
7.87456
7.69934
7.5084
7.29839
7.07442
6.83812
6.59099
6.33807
6.08017
1
1
1
1
1
1
1
1
1
1
1
1
1
1
1
1
1
1
1
1
1
1
1
1
1
1
1
1
1
1
1
1
1.0014
2.85679
7.78287
8.35246
8.24535
8.12206
7.97837
7.82179
7.65071
7.46456
7.2599
7.04321
6.81811
6.58334
6.34255
6.097
1
1
1
1
1
1
1
1
1
1
1
1
1
1
1
1
1
1
1
1
1
1
1
1
1
1
1
1
1
1
1
1
1
1.22546
6.03854
8.30659
8.19674
8.0748
7.92705
7.77197
7.60354
7.42047
7.22167
7.01269
6.79761
6.57543
6.34613
6.11194
1
1
1
1
1
1
1
1
1
1
1
1
1
1
1
1
1
1
1
1
1
1
1
1
1
1
1
1
1
1
1
1
1
1.00389
2.91595
7.57655
8.13401
8.0154
7.88873
7.73915
7.57096
7.38912
7.19607
6.99496
6.78812
6.5758
6.35605
6.13048
1
1
1
1
1
1
1
1
1
1
1
1
1
1
1
1
1
1
1
1
1
1
1
1
1
1
1
1
1
1
1
1
1
1.00001
1.23956
5.8307
8.11325
7.99673
7.86024
7.699
7.52815
7.35073
7.16756
6.97771
6.78033
6.57593
6.3653
6.14834
1
1
1
1
1
1
1
1
1
1
1
1
1
1
1
1
1
1
1
1
1
1
1
1
1
1
1
1
1
1
1
1
1
1
1.00448
2.62428
7.31352
7.95818
7.80107
7.65922
7.49716
7.32755
7.1518
6.96982
6.78016
6.58239
6.37955
6.17184
1
1
1
1
1
1
1
1
1
1
1
1
1
1
1
1
1
1
1
1
1
1
1
1
1
1
1
1
1
1
1
1
1
1
1.00001
1.17614
5.37745
7.87354
7.78533
7.63438
7.47076
7.30492
7.13501
6.95945
6.77659
6.58531
6.38804
6.18848
1
1
1
1
1
1
1
1
1
1
1
1
1
1
1
1
1
1
1
1
1
1
1
1
1
1
1
1
1
1
1
1
1
1
1
1.00257
2.2749
6.89457
7.76147
7.59179
7.4532
7.29374
7.1265
6.95284
6.77332
6.5877
6.39649
6.20412
1
1
1
1
1
1
1
1
1
1
1
1
1
1
1
1
1
1
1
1
1
1
1
1
1
1
1
1
1
1
1
1
1
1
1
1.00001
1.11001
4.54219
7.53429
7.57748
7.43549
7.27458
7.10925
6.93898
6.76461
6.58663
6.40424
6.21815
1
1
1
1
1
1
1
1
1
1
1
1
1
1
1
1
1
1
1
1
1
1
1
1
1
1
1
1
1
1
1
1
1
1
1
1
1.0013
1.81282
6.24061
7.6162
7.41928
7.26183
7.10275
6.93945
6.77128
6.59919
6.42284
6.24093
1
1
1
1
1
1
1
1
1
1
1
1
1
1
1
1
1
1
1
1
1
1
1
1
1
1
1
1
1
1
1
1
1
1
1
1
1
1.04728
3.39234
7.04824
7.36797
7.23251
7.09246
6.93708
6.77327
6.60392
6.43129
6.25506
1
1
1
1
1
1
1
1
1
1
1
1
1
1
1
1
1
1
1
1
1
1
1
1
1
1
1
1
1
1
1
1
1
1
1
1
1
1.00044
1.37795
5.28199
7.39832
7.26002
7.11799
6.95607
6.79144
6.62175
6.4497
6.27656
1
1
1
1
1
1
1
1
1
1
1
1
1
1
1
1
1
1
1
1
1
1
1
1
1
1
1
1
1
1
1
1
1
1
1
1
1
1
1.01165
2.35561
6.42269
7.24786
7.07607
6.93122
6.77602
6.61533
6.45123
6.28437
1
1
1
1
1
1
1
1
1
1
1
1
1
1
1
1
1
1
1
1
1
1
1
1
1
1
1
1
1
1
1
1
1
1
1
1
1
1
1.00007
1.12482
3.90431
6.91187
7.08202
6.94694
6.79595
6.64163
6.48226
6.31759
1
1
1
1
1
1
1
1
1
1
1
1
1
1
1
1
1
1
1
1
1
1
1
1
1
1
1
1
1
1
1
1
1
1
1
1
1
1
1
1.00199
1.56416
5.32867
7.08762
6.97558
6.82057
6.66552
6.50548
6.34164
1
1
1
1
1
1
1
1
1
1
1
1
1
1
1
1
1
1
1
1
1
1
1
1
1
1
1
1
1
1
1
1
1
1
1
1
1
1
1
1.00001
1.02463
2.47956
6.2259
6.95408
6.82014
6.66175
6.50454
6.3482
1
1
1
1
1
1
1
1
1
1
1
1
1
1
1
1
1
1
1
1
1
1
1
1
1
1
1
1
1
1
1
1
1
1
1
1
1
1
1
1
1.00021
1.14923
3.75908
6.60149
6.84068
6.68524
6.52587
6.37633
1
1
1
1
1
1
1
1
1
1
1
1
1
1
1
1
1
1
1
1
1
1
1
1
1
1
1
1
1
1
1
1
1
1
1
1
1
1
1
1
1
1.00279
1.5152
4.94423
6.74423
6.71528
6.56197
6.41183
1
1
1
1
1
1
1
1
1
1
1
1
1
1
1
1
1
1
1
1
1
1
1
1
1
1
1
1
1
1
1
1
1
1
1
1
1
1
1
1
1
1.00001
1.02152
2.2137
5.72409
6.69142
6.5877
6.43309
1
1
1
1
1
1
1
1
1
1
1
1
1
1
1
1
1
1
1
1
1
1
1
1
1
1
1
1
1
1
1
1
1
1
1
1
1
1
1
1
1
1
1.00019
1.10366
3.13599
6.18925
6.6011
6.47032
1
1
1
1
1
1
1
1
1
1
1
1
1
1
1
1
1
1
1
1
1
1
1
1
1
1
1
1
1
1
1
1
1
1
1
1
1
1
1
1
1
1
1
1.00172
1.31495
4.15015
6.32226
6.50654
1
1
1
1
1
1
1
1
1
1
1
1
1
1
1
1
1
1
1
1
1
1
1
1
1
1
1
1
1
1
1
1
1
1
1
1
1
1
1
1
1
1
1
1.00001
1.00972
1.72437
4.93175
6.39095
1
1
1
1
1
1
1
1
1
1
1
1
1
1
1
1
1
1
1
1
1
1
1
1
1
1
1
1
1
1
1
1
1
1
1
1
1
1
1
1
1
1
1
1
1.00007
1.04085
2.31448
5.46589
1
1
1
1
1
1
1
1
1
1
1
1
1
1
1
1
1
1
1
1
1
1
1
1
1
1
1
1
1
1
1
1
1
1
1
1
1
1
1
1
1
1
1
1
1
1.00049
1.12432
3.00078
1
1
1
1
1
1
1
1
1
1
1
1
1
1
1
1
1
1
1
1
1
1
1
1
1
1
1
1
1
1
1
1
1
1
1
1
1
1
1
1
1
1
1
1
1
1
1.0024
1.28784
1
1
1
1
1
1
1
1
1
1
1
1
1
1
1
1
1
1
1
1
1
1
1
1
1
1
1
1
1
1
1
1
1
1
1
1
1
1
1
1
1
1
1
1
1
1
1.00001
1.00876
1
1
1
1
1
1
1
1
1
1
1
1
1
1
1
1
1
1
1
1
1
1
1
1
1
1
1
1
1
1
1
1
1
1
1
1
1
1
1
1
1
1
1
1
1
1
1
1.00006
1
1
1
1
1
1
1
1
1
1
1
1
1
1
1
1
1
1
1
1
1
1
1
1
1
1
1
1
1
1
1
1
1
1
1
1
1
1
1
1
1
1
1
1
1
1
1
1
1
1
1
1
1
1
1
1
1
1
1
1
1
1
1
1
1
1
1
1
1
1
1
1
1
1
1
1
1
1
1
1
1
1
1
1
1
1
1
1
1
1
1
1
1
1
1
1
1
1
1
1
1
1
1
1
1
1
1
1
1
1
1
1
1
1
1
1
1
1
1
1
1
1
1
1
1
1
1
1
1
1
1
1
1
1
1
1
1
1
1
1
1
1
1
1
1
1
1
1
1
1
1
1
1
1
1
1
1
1
1
1
1
1
1
1
1
1
1
1
1
1
1
1
1
1
1
1
1
1
1
1
1
1
1
1
1
1
1
1
1
1
1
1
1
1
1
1
1
1
1
1
1
1
1
1
1
1
1
1
1
1
1
1
1
1
1
1
1
1
1
1
1
1
1
1
1
1
1
1
1
1
1
1
1
1
1
1
1
1
1
1
1
1
1
1
1
1
1
1
1
1
1
1
1
1
1
1
1
1
1
1
1
1
1
1
1
1
1
1
1
1
1
1
1
1
1
1
1
1
1
1
1
1
1
1
1
1
1
1
1
1
1
1
1
1
1
1
1
1
1
1
1
1
1
1
1
1
1
1
1
1
1
1
1
1
1
1
1
1
1
1
1
1
1
1
1
1
1
1
1
1
1
1
1
1
1
1
1
1
1
1
1
1
1
1
1
1
1
1
1
1
1
1
1
1
1
1
1
1
1
1
1
1
1
1
1
1
1
1
1
1
1
1
1
1
1
1
1
1
1
1
1
1
1
1
1
1
1
1
1
1
1
1
1
1
1
1
1
1
1
1
1
1
1
1
1
1
1
1
1
1
1
1
1
1
1
1
1
1
1
1
1
1
1
1
1
1
1
1
1
1
1
1
1
1
1
1
1
1
1
1
1
1
1
1
1
1
1
1
1
1
1
1
1
1
1
1
1
1
1
1
1
1
1
1
1
1
1
1
1
1
1
1
1
1
1
1
1
1
1
1
1
1
1
1
1
1
1
1
1
1
1
1
1
1
1
1
1
1
1
1
1
1
1
1
1
1
1
1
1
1
1
1
1
1
1
1
1
1
1
1
1
1
1
1
1
1
1
1
1
1
1
1
1
1
1
1
1
1
1
1
1
1
1
1
1
1
1
1
1
1
1
1
1
1
1
1
1
1
1
1
1
1
1
1
1
1
1
1
1
1
1
1
1
1
1
1
1
1
1
1
1
1
1
1
1
1
1
1
1
1
1
1
1
1
1
1
1
1
1
1
1
1
1
1
1
1
1
1
1
1
1
1
1
1
1
1
1
1
1
1
1
1
1
1
1
1
1
1
1
1
1
1
1
1
1
1
1
1
1
1
1
1
1
1
1
1
1
1
1
1
1
1
1
1
1
1
1
1
1
1
1
1
1
1
1
1
1
1
1
1
1
1
1
1
1
1
1
1
1
1
1
1
1
1
1
1
1
1
1
1
1
1
1
1
1
1
1
1
1
1
1
1
1
1
1
1
1
1
1
1
1
1
1
1
1
1
1
1
1
1
1
1
1
1
1
1
1
1
1
1
1
1
1
1
1
1
1
1
1
1
1
1
1
1
1
1
1
1
1
1
1
1
1
1
1
1
1
1
1
1
1
1
1
1
1
1
1
1
1
1
1
1
1
1
1
1
1
1
1
1
1
1
1
1
1
1
1
1
1
1
1
1
1
1
1
1
1
1
1
1
1
1
1
1
1
1
1
1
1
1
1
1
1
1
1
1
1
1
1
1
1
1
1
1
1
1
1
1
1
1
1
1
1
1
1
1
1
1
1
1
1
1
1
1
1
1
1
1
1
1
1
1
1
1
1
1
1
1
1
1
1
1
1
1
1.22393
0.27937
0.0356255
0.0190489
0.0306394
0.0655342
0.110302
0.148757
0.204704
0.282648
0.351382
0.41104
0.480899
0.542616
0.624671
0.731095
0.821792
0.91032
0.949318
0.957416
0.960112
0.968834
0.981315
1.00072
1.00731
1.00885
1.01878
1.03832
1.06617
1.08305
1.10489
1.12198
1.13144
1.14227
1.16209
1.1759
1.18506
1.19403
1.19853
1.20276
1.20853
1.22327
1.24658
1.26078
1.26415
1.26454
1.26
1.25371
1.2512
1.25069
1.2555
1.26565
1.2663
1.26309
1.25696
1.24933
1.24695
1.24831
1.25188
1.2553
1.25704
1.25871
1.26087
1.26231
1.26329
1.26403
1.26392
1.26105
1.25551
1.24857
1.24383
1.24378
1.25036
1.25504
1.25305
1.24842
1.24067
1.23042
1.2249
1.22333
1.22591
1.23321
1.23727
1.23486
1.23146
1.22891
1.22537
1.22141
1.21673
1.21073
1.20248
1.19454
1.20192
1.27445
1.59321
2.30638
3.38718
4.46
5.36486
5.93488
6.09583
5.92284
5.69466
5.47583
5.32731
5.21137
5.14719
5.10141
5.08922
5.07293
5.02166
4.95544
4.87547
4.80772
4.75226
4.70416
4.64485
4.5847
4.52154
4.45355
4.38774
4.33306
4.28894
4.25312
4.22265
4.19755
4.17106
4.14047
4.10401
4.05711
3.99831
3.93022
3.86205
3.80599
3.76466
3.73279
3.70655
3.68808
3.67191
3.64763
3.61532
3.5774
3.5311
3.48006
3.4294
3.38401
3.35132
3.33177
3.31758
3.30251
3.27979
3.23904
3.1748
3.11989
3.08426
3.05747
3.03522
3.01394
2.98861
2.9613
2.94371
2.9294
2.91665
2.90165
2.88015
2.84517
2.78685
2.7305
2.69678
2.67622
2.66103
2.64856
2.64197
2.64633
2.65115
2.64165
2.62429
2.59802
2.54842
2.47661
2.4214
2.39479
2.38072
2.37031
2.36193
2.35763
2.35674
2.35298
2.34549
2.33374
2.31426
2.25225
2.14963
1.05469
0.481926
0.281614
0.236564
0.19967
0.197521
0.210038
0.220169
0.222772
0.230862
0.255318
0.293849
0.351186
0.425452
0.520667
0.602639
0.664447
0.729491
0.803938
0.879497
0.91126
0.928744
0.955353
0.982679
0.994819
1.01394
1.03618
1.0547
1.06508
1.08546
1.10468
1.11503
1.12649
1.14158
1.15749
1.17005
1.18297
1.19429
1.20439
1.21385
1.2281
1.24288
1.25129
1.25711
1.25918
1.25761
1.25243
1.24928
1.24962
1.25554
1.26458
1.26354
1.25953
1.25269
1.24406
1.24083
1.24319
1.24979
1.26027
1.26815
1.27005
1.26782
1.26233
1.25904
1.25906
1.26106
1.26423
1.26588
1.26184
1.25326
1.24418
1.23931
1.23741
1.23862
1.23907
1.23829
1.2373
1.23508
1.23241
1.23049
1.228
1.22505
1.2235
1.22417
1.22563
1.22316
1.21886
1.21306
1.2071
1.19884
1.2149
1.3402
1.70291
2.19495
2.5837
2.88982
3.39237
3.97514
4.49239
5.0012
5.30449
5.43088
5.42933
5.33483
5.27315
5.20183
5.14116
5.11035
5.07522
5.01846
4.95081
4.86672
4.79092
4.73628
4.68735
4.6345
4.58206
4.52777
4.46898
4.4088
4.35479
4.30432
4.25432
4.20776
4.16892
4.13603
4.10763
4.0797
4.04757
4.00874
3.9632
3.91211
3.85619
3.79726
3.74247
3.70026
3.66937
3.64213
3.6219
3.60358
3.57584
3.54102
3.50125
3.45472
3.40453
3.3565
3.31916
3.29555
3.2799
3.2653
3.23721
3.19528
3.15072
3.10969
3.07327
3.04376
3.01877
2.99289
2.96528
2.94045
2.9209
2.90358
2.88538
2.86494
2.83873
2.80146
2.76065
2.72222
2.68933
2.66635
2.65246
2.64402
2.64111
2.63071
2.61529
2.59773
2.57588
2.54434
2.50365
2.4585
2.41554
2.38677
2.37115
2.36151
2.35535
2.35063
2.34349
2.33224
2.31408
2.29229
2.24628
2.94603
1.7002
1.07263
0.79768
0.666984
0.478286
0.338215
0.325446
0.325593
0.306231
0.297511
0.307157
0.319601
0.350328
0.387573
0.404096
0.438535
0.482882
0.553234
0.644399
0.746098
0.824669
0.863486
0.904052
0.959211
0.989906
1.0152
1.04481
1.05433
1.06695
1.09705
1.12586
1.1392
1.14745
1.1516
1.14968
1.1567
1.16661
1.17595
1.18922
1.2087
1.23037
1.24315
1.25231
1.25953
1.26047
1.25959
1.25229
1.24409
1.24568
1.25423
1.26786
1.27285
1.27248
1.26715
1.25292
1.23717
1.23272
1.23606
1.24663
1.26324
1.27531
1.27828
1.27637
1.26824
1.25782
1.25356
1.25355
1.25737
1.26347
1.26541
1.26101
1.25234
1.23811
1.22536
1.22142
1.22207
1.22756
1.23592
1.24086
1.24135
1.23767
1.23025
1.22442
1.22125
1.22057
1.21847
1.2129
1.20677
1.21071
1.25617
1.45069
1.88876
2.44341
2.69698
2.71178
2.69006
2.75714
2.96918
3.39287
4.00182
4.67301
5.11815
5.4007
5.37977
5.37114
5.29991
5.19616
5.10336
5.03203
4.96726
4.91215
4.85557
4.80486
4.75741
4.70899
4.65877
4.60046
4.53093
4.46138
4.40438
4.35862
4.31925
4.27862
4.23027
4.17215
4.11081
4.0615
4.02713
4.00129
3.98166
3.96099
3.93676
3.90791
3.86823
3.81008
3.73781
3.66596
3.61183
3.57724
3.54897
3.52857
3.52068
3.50208
3.47467
3.44554
3.40388
3.3445
3.28499
3.24508
3.21528
3.19596
3.18243
3.16216
3.1387
3.10846
3.07119
3.03526
3.00484
2.97646
2.94748
2.91916
2.89084
2.86175
2.83106
2.80496
2.7894
2.77358
2.75613
2.7327
2.70029
2.66428
2.63855
2.62168
2.60531
2.58717
2.56462
2.5382
2.51804
2.50279
2.48565
2.46076
2.42368
2.38521
2.36151
2.34865
2.33889
2.32783
2.31302
2.29148
2.26395
2.22326
3.49562
2.47694
1.72605
1.24212
1.06904
0.866268
0.663712
0.567146
0.536244
0.491419
0.466138
0.45696
0.439245
0.425318
0.408821
0.405873
0.409117
0.420313
0.439366
0.47127
0.533352
0.635619
0.727571
0.7817
0.841152
0.893173
0.925727
0.970603
1.00114
1.027
1.06153
1.10416
1.12145
1.12953
1.13759
1.1399
1.15101
1.16242
1.17916
1.20103
1.22101
1.23051
1.23443
1.23686
1.24137
1.24184
1.24147
1.23939
1.23665
1.24002
1.2493
1.26037
1.26677
1.26919
1.26853
1.26086
1.24844
1.23796
1.23479
1.23911
1.25103
1.2677
1.27829
1.28049
1.27787
1.26891
1.25591
1.24885
1.24705
1.24963
1.25423
1.2541
1.25024
1.24364
1.23595
1.23088
1.2291
1.23003
1.23226
1.23257
1.23138
1.2298
1.22831
1.22606
1.22462
1.22374
1.21945
1.21425
1.22772
1.30147
1.59813
2.12584
2.54209
2.723
2.8017
2.80865
2.77676
2.75562
2.72538
2.75744
2.91984
3.36816
4.03044
4.71078
5.02628
5.1893
5.20113
5.19295
5.15696
5.09623
5.00651
4.93351
4.867
4.8041
4.7535
4.70539
4.66101
4.60777
4.53765
4.46122
4.39779
4.35063
4.31155
4.27512
4.23582
4.18479
4.12185
4.06499
4.0271
3.99798
3.97189
3.9482
3.92695
3.90127
3.86867
3.82596
3.76775
3.6968
3.62652
3.57428
3.54064
3.51477
3.49599
3.48204
3.46229
3.44048
3.4158
3.37641
3.30774
3.22983
3.19209
3.17648
3.16409
3.15459
3.13678
3.11517
3.08556
3.04422
3.00332
2.97127
2.94308
2.9137
2.88073
2.84518
2.81541
2.79618
2.78252
2.77405
2.7667
2.75341
2.73433
2.70136
2.6503
2.60349
2.57385
2.54824
2.52368
2.5082
2.5007
2.49862
2.49012
2.47635
2.45753
2.42498
2.38128
2.348
2.32878
2.3116
2.28827
2.25903
2.23706
2.21639
3.95735
3.07965
2.31215
1.78677
1.51617
1.24958
1.00837
0.87894
0.787254
0.705938
0.671635
0.633216
0.587786
0.546938
0.520922
0.49222
0.478393
0.481362
0.484597
0.492998
0.501414
0.514545
0.536832
0.569289
0.618415
0.699131
0.776167
0.855411
0.93016
0.971143
1.001
1.0472
1.06755
1.07723
1.0941
1.10675
1.11912
1.14906
1.19388
1.22143
1.22958
1.23356
1.23135
1.22638
1.22602
1.22642
1.22963
1.23884
1.25006
1.25644
1.2567
1.25571
1.25346
1.25129
1.25187
1.25256
1.25278
1.2516
1.24687
1.2429
1.24462
1.25049
1.26039
1.26782
1.27008
1.27025
1.26641
1.26124
1.25756
1.25432
1.24982
1.24406
1.23968
1.23818
1.23778
1.23841
1.23836
1.2369
1.23336
1.22823
1.22465
1.22353
1.2238
1.22577
1.22825
1.22613
1.22729
1.25309
1.393
1.76872
2.31653
2.66233
2.84158
2.86763
2.85679
2.82824
2.77613
2.73692
2.70896
2.6929
2.68036
2.71544
2.89418
3.35196
3.99861
4.57626
4.8985
5.01854
5.06244
5.03429
5.00587
4.96953
4.90638
4.84034
4.7721
4.7065
4.64836
4.59203
4.5296
4.4659
4.40597
4.35517
4.31145
4.26878
4.22276
4.16844
4.11099
4.06208
4.02656
3.99714
3.97041
3.94568
3.91937
3.88787
3.85078
3.80651
3.75683
3.70385
3.64885
3.59695
3.55384
3.52024
3.4933
3.46939
3.445
3.42031
3.39522
3.36397
3.31751
3.25523
3.20112
3.1732
3.15658
3.14329
3.12907
3.1121
3.0889
3.05421
3.0139
2.97559
2.93657
2.89375
2.85486
2.82975
2.81284
2.79882
2.78895
2.78269
2.77504
2.76374
2.74921
2.72575
2.6734
2.59571
2.53784
2.50973
2.49674
2.49047
2.49094
2.49601
2.49052
2.47954
2.46731
2.45049
2.42028
2.37074
2.31933
2.28175
2.25121
2.23108
2.22329
2.21362
4.35102
3.5738
2.86614
2.31112
1.95353
1.65814
1.39288
1.22628
1.07483
0.935888
0.873239
0.830308
0.784229
0.7282
0.677735
0.626224
0.592877
0.586029
0.576067
0.563029
0.553704
0.540244
0.536435
0.53479
0.538997
0.555911
0.591757
0.645512
0.72735
0.800811
0.845312
0.903422
0.951073
0.984198
1.02661
1.06284
1.08791
1.12428
1.1788
1.20925
1.21658
1.22071
1.21535
1.20452
1.20612
1.21378
1.231
1.2573
1.26904
1.26909
1.26013
1.24138
1.23177
1.23146
1.23502
1.24546
1.25359
1.25421
1.25236
1.24572
1.23942
1.24233
1.25111
1.26566
1.27591
1.27724
1.27575
1.26953
1.25624
1.24313
1.23698
1.23419
1.23362
1.23787
1.24398
1.24611
1.24521
1.24066
1.23179
1.22402
1.22114
1.22055
1.22069
1.2233
1.22623
1.233
1.28147
1.51853
1.99721
2.48453
2.81307
2.89679
2.89379
2.85746
2.82323
2.7985
2.76864
2.74633
2.72883
2.70894
2.68623
2.66235
2.63926
2.66826
2.848
3.25457
3.85496
4.34906
4.76201
4.83094
4.89934
4.875
4.89024
4.86985
4.82381
4.75855
4.67589
4.5906
4.52
4.4619
4.41073
4.36331
4.3165
4.26825
4.21782
4.16489
4.11562
4.07521
4.03884
4.00229
3.96764
3.9347
3.90026
3.86322
3.82403
3.78419
3.74551
3.70623
3.66328
3.61584
3.56928
3.52789
3.49228
3.46119
3.43179
3.40114
3.371
3.34471
3.31682
3.27912
3.23121
3.18597
3.15897
3.1437
3.12928
3.10635
3.07581
3.04474
3.01555
2.98475
2.94788
2.90297
2.85978
2.83033
2.81114
2.79696
2.78706
2.77994
2.77073
2.75917
2.74373
2.71588
2.66626
2.59887
2.53532
2.49968
2.48627
2.47803
2.4728
2.47448
2.48369
2.48381
2.47667
2.46506
2.44178
2.38797
2.31467
2.26054
2.23475
2.22333
2.21756
2.21008
4.64698
3.94416
3.29227
2.79167
2.38707
2.02863
1.74208
1.55487
1.38588
1.2258
1.0954
1.00845
0.944907
0.894942
0.846993
0.776651
0.728091
0.702516
0.680204
0.665382
0.654667
0.634225
0.598254
0.581121
0.574025
0.573426
0.578491
0.589576
0.604368
0.622394
0.646136
0.682062
0.744337
0.814406
0.880494
0.953657
1.01465
1.07037
1.13676
1.17649
1.19213
1.20046
1.19847
1.18359
1.18564
1.20034
1.22894
1.26049
1.27009
1.2687
1.25965
1.23666
1.22011
1.2184
1.21978
1.23076
1.24188
1.24412
1.24499
1.24471
1.24116
1.24161
1.24845
1.26072
1.26792
1.2678
1.26515
1.25771
1.24534
1.23766
1.23501
1.23396
1.23755
1.2443
1.24496
1.24277
1.23832
1.23047
1.22447
1.22151
1.21971
1.21931
1.221
1.22678
1.24245
1.32549
1.67016
2.22442
2.68031
2.88285
2.88836
2.87778
2.87686
2.86404
2.83692
2.81597
2.7923
2.7649
2.73417
2.69971
2.67104
2.6455
2.62044
2.605
2.59089
2.61633
2.76512
3.09914
3.64912
4.17125
4.58061
4.68309
4.75153
4.77249
4.75032
4.70425
4.63889
4.59108
4.53441
4.47104
4.42598
4.38559
4.33433
4.26474
4.19544
4.15187
4.11988
4.08745
4.05234
4.01415
3.97264
3.92965
3.88556
3.84216
3.80178
3.76495
3.73049
3.69628
3.65986
3.61878
3.57625
3.53709
3.50029
3.46159
3.42453
3.39488
3.37009
3.34475
3.31703
3.28694
3.25692
3.22293
3.1769
3.12811
3.08867
3.05976
3.03987
3.02165
3.0034
2.98218
2.9559
2.92487
2.89033
2.85476
2.82348
2.80218
2.78875
2.78007
2.76839
2.74917
2.72034
2.68337
2.64359
2.60629
2.57044
2.5317
2.4972
2.47903
2.46972
2.46559
2.48051
2.49403
2.48248
2.46151
2.42375
2.36772
2.31567
2.27964
2.2534
2.23288
2.22107
2.20557
4.87644
4.22743
3.64591
3.17023
2.74968
2.3635
2.09823
1.85898
1.63553
1.47958
1.35761
1.24304
1.12539
1.05136
0.997704
0.931682
0.879727
0.845495
0.81134
0.783388
0.759467
0.728675
0.688967
0.66039
0.645067
0.628018
0.614927
0.616299
0.614654
0.617098
0.615403
0.613657
0.620123
0.642053
0.680098
0.741296
0.819172
0.904648
0.990062
1.04912
1.08794
1.13563
1.16868
1.16976
1.17639
1.20287
1.23375
1.25707
1.26315
1.26131
1.25357
1.24012
1.22227
1.21154
1.20977
1.21353
1.22376
1.23324
1.23725
1.23873
1.24173
1.24399
1.24944
1.2562
1.25835
1.25764
1.25378
1.24593
1.24045
1.23967
1.24029
1.24435
1.24876
1.24704
1.24262
1.23688
1.22873
1.22089
1.21819
1.21746
1.21774
1.22158
1.23116
1.26589
1.42323
1.83341
2.48547
2.77079
2.8733
2.91326
2.92249
2.9122
2.89652
2.87282
2.84083
2.81421
2.78609
2.75376
2.72032
2.68492
2.65762
2.6386
2.62051
2.60034
2.57846
2.55757
2.52978
2.54237
2.64641
2.95615
3.4666
3.97372
4.39165
4.62861
4.64367
4.63368
4.57714
4.53981
4.49427
4.4674
4.44105
4.39476
4.3397
4.27059
4.1969
4.15205
4.12183
4.08851
4.05019
4.01044
3.96818
3.92225
3.8754
3.83478
3.79763
3.76186
3.72768
3.69335
3.65614
3.61518
3.57365
3.53523
3.50013
3.465
3.43069
3.3958
3.35712
3.32252
3.30173
3.28796
3.27065
3.24186
3.19386
3.12791
3.07061
3.04027
3.02342
3.01185
3.00064
2.98158
2.96063
2.9392
2.91661
2.89205
2.8634
2.82939
2.79322
2.75887
2.73043
2.70264
2.6698
2.64031
2.62239
2.60868
2.59319
2.57045
2.53716
2.50389
2.48497
2.475
2.46679
2.45331
2.43814
2.41523
2.38091
2.34446
2.32283
2.30539
2.28417
2.25918
2.23606
2.20711
5.03981
4.44732
3.9392
3.47944
3.04419
2.67961
2.39516
2.15206
1.91255
1.7262
1.58587
1.45102
1.33539
1.24203
1.1603
1.08226
1.02486
0.976962
0.932457
0.900044
0.868545
0.831202
0.785829
0.753115
0.732515
0.7157
0.703214
0.693111
0.678168
0.654805
0.639686
0.625579
0.621631
0.621781
0.626309
0.638147
0.657291
0.694631
0.755041
0.831671
0.90018
0.971286
1.04147
1.10412
1.1487
1.19738
1.22965
1.23193
1.22974
1.2326
1.23527
1.23201
1.22639
1.22354
1.21781
1.21047
1.20897
1.21068
1.21789
1.22774
1.23534
1.2454
1.25212
1.25439
1.25364
1.25108
1.24358
1.23539
1.23361
1.23581
1.2452
1.25526
1.25539
1.25111
1.24344
1.23088
1.21799
1.21337
1.21207
1.2121
1.21716
1.23229
1.29384
1.57814
2.11153
2.60828
2.91043
2.93616
2.94011
2.93043
2.91205
2.88723
2.86432
2.8429
2.82515
2.80564
2.77794
2.74259
2.70885
2.67805
2.65633
2.64089
2.62444
2.60021
2.5683
2.53651
2.50867
2.49166
2.47902
2.48521
2.57615
2.85356
3.29272
3.78338
4.16488
4.46968
4.49543
4.48485
4.4569
4.43227
4.41479
4.37178
4.3204
4.2682
4.20893
4.16345
4.12781
4.09066
4.05128
4.00779
3.95759
3.90444
3.86174
3.82757
3.7951
3.7636
3.73301
3.70291
3.66942
3.62854
3.57888
3.52544
3.47919
3.45103
3.42897
3.39483
3.35511
3.32505
3.30032
3.27493
3.25035
3.22491
3.19056
3.14017
3.08441
3.04342
3.01584
2.99222
2.97036
2.95467
2.94839
2.93883
2.92376
2.90618
2.8841
2.84867
2.79341
2.73504
2.69058
2.65974
2.63681
2.62152
2.61145
2.60493
2.60154
2.59251
2.58035
2.56102
2.52959
2.48943
2.44968
2.41581
2.38293
2.355
2.34013
2.33475
2.3295
2.32045
2.30879
2.29377
2.27407
2.2308
5.17813
4.64703
4.18266
3.73442
3.30471
2.97871
2.67677
2.40644
2.1703
1.97904
1.81308
1.66627
1.53338
1.43475
1.32925
1.23879
1.17428
1.12236
1.06746
1.02129
0.976765
0.92994
0.884061
0.855503
0.833623
0.807905
0.793564
0.778114
0.758272
0.732901
0.7057
0.677305
0.647071
0.637786
0.638393
0.641663
0.652288
0.659687
0.663162
0.670766
0.689957
0.729403
0.797721
0.894251
1.00195
1.1145
1.17246
1.18478
1.18488
1.18825
1.19511
1.20511
1.21563
1.2255
1.22814
1.22493
1.21279
1.20068
1.20012
1.204
1.21673
1.23713
1.24788
1.25167
1.25341
1.24964
1.23842
1.23245
1.23169
1.23461
1.24729
1.25685
1.25553
1.25005
1.24089
1.22511
1.21269
1.20954
1.20837
1.20977
1.23003
1.3308
1.70216
2.37843
2.77347
2.95939
2.99499
2.98384
2.94475
2.90221
2.87634
2.8636
2.85233
2.83311
2.81648
2.79546
2.75868
2.72047
2.69289
2.67297
2.65865
2.64375
2.62413
2.59628
2.55414
2.51773
2.50018
2.48467
2.47045
2.4617
2.44381
2.43177
2.49011
2.68551
3.04831
3.55731
3.95929
4.2394
4.3596
4.36972
4.37901
4.36131
4.31799
4.26028
4.20385
4.16245
4.1236
4.08499
4.04853
4.00519
3.95183
3.90296
3.86371
3.82609
3.79082
3.76148
3.73743
3.71141
3.68285
3.64791
3.60262
3.54581
3.48763
3.43733
3.40055
3.37914
3.35577
3.32928
3.30076
3.26912
3.23711
3.2075
3.17835
3.14796
3.11308
3.06837
3.01915
2.98315
2.96111
2.94267
2.9285
2.92961
2.92548
2.90705
2.88479
2.85097
2.79444
2.72676
2.67514
2.64361
2.62711
2.61722
2.61401
2.62685
2.6357
2.62949
2.61741
2.59766
2.55884
2.4925
2.42337
2.3734
2.3436
2.3258
2.31481
2.31026
2.31897
2.32927
2.3269
2.3165
2.30393
2.26112
5.28425
4.8156
4.38041
3.9402
3.56172
3.23647
2.93461
2.64052
2.41921
2.21543
2.0363
1.87
1.7357
1.61635
1.51145
1.40773
1.32329
1.24944
1.18875
1.14402
1.09834
1.04384
0.98435
0.948126
0.922615
0.899806
0.88372
0.863295
0.836832
0.806075
0.777614
0.751274
0.725301
0.712572
0.705955
0.695092
0.679414
0.67552
0.672431
0.660456
0.646938