/*--------------------------------*- C++ -*----------------------------------*\
  =========                 |
  \\      /  F ield         | OpenFOAM: The Open Source CFD Toolbox
   \\    /   O peration     | Website:  https://openfoam.org
    \\  /    A nd           | Version:  7
     \\/     M anipulation  |
\*---------------------------------------------------------------------------*/
FoamFile
{
    version     2.0;
    format      ascii;
    class       volScalarField;
    location    "3.7";
    object      p;
}
// * * * * * * * * * * * * * * * * * * * * * * * * * * * * * * * * * * * * * //

dimensions      [1 -1 -2 0 0 0 0];

internalField   nonuniform List<scalar> 
4032
(
1
1
1
1
1
1
1
1
1
1
1
1.24089
7.34845
10.6115
10.7536
10.9624
11.1489
11.3251
11.487
11.632
11.7586
11.8588
11.9334
11.9854
1
1
1
1
1
1
1
1
1
1
1
1.20415
7.18398
10.5809
10.7401
10.9406
11.1235
11.2966
11.4557
11.5968
11.7178
11.8103
11.8754
11.9204
1
1
1
1
1
1
1
1
1
1
1
1.09755
6.8588
10.5364
10.6874
10.8841
11.0662
11.236
11.3904
11.5263
11.6442
11.7372
11.8032
11.853
1
1
1
1
1
1
1
1
1
1
1
1.00567
6.34053
10.4526
10.6196
10.8084
10.9864
11.1489
11.2972
11.4282
11.5416
11.626
11.6782
11.7118
1
1
1
1
1
1
1
1
1
1
1
1.00004
5.64933
10.2905
10.5166
10.6935
10.867
11.0197
11.1555
11.269
11.3619
11.4322
11.477
11.5301
1
1
1
1
1
1
1
1
1
1
1
1
4.80421
10.0423
10.4067
10.5697
10.7302
10.8641
10.9802
11.0781
11.1592
11.2205
11.238
11.1983
1
1
1
1
1
1
1
1
1
1
1
1
3.85463
9.65403
10.3001
10.4521
10.5926
10.6972
10.7749
10.8301
10.8497
10.8134
10.7493
10.7094
1
1
1
1
1
1
1
1
1
1
1
1
2.82398
9.04938
10.2191
10.3441
10.453
10.5242
10.5564
10.5577
10.509
10.4287
10.3057
10.3037
1
1
1
1
1
1
1
1
1
1
1
1
1.78913
8.16313
10.1843
10.2145
10.3048
10.3416
10.3243
10.2611
10.113
9.84481
9.07122
7.20548
1
1
1
1
1
1
1
1
1
1
1
1
1.08083
6.90054
10.1485
10.0443
10.075
10.0864
10.0365
9.91173
9.67082
9.19894
8.40476
6.33502
1
1
1
1
1
1
1
1
1
1
1
1
1.00053
5.20499
9.5744
9.78
9.84053
9.80992
9.72588
9.54712
9.24591
8.68202
7.85314
5.90611
1
1
1
1
1
1
1
1
1
1
1
1
0.999993
3.33
8.87929
9.63174
9.66054
9.6112
9.48422
9.24678
8.87929
8.30085
7.38981
5.80721
1
1
1
1
1
1
1
1
1
1
1
1
0.999998
1.71209
7.87838
9.6212
9.48681
9.37293
9.2087
8.93819
8.53338
7.97715
7.05872
5.83839
1
1
1
1
1
1
1
1
1
1
1
1
1
1.055
6.0946
9.17735
9.18335
9.10135
8.93883
8.6668
8.27187
7.69566
6.86101
5.91238
1
1
1
1
1
1
1
1
1
1
1
1
1
1.00006
3.58234
8.505
9.07621
8.96706
8.77006
8.45754
8.05666
7.47577
6.75474
5.97443
1
1
1
1
1
1
1
1
1
1
1
1
1
0.999998
1.48912
7.49498
9.11872
8.81676
8.55341
8.22649
7.82681
7.30674
6.70173
6.03876
1
1
1
1
1
1
1
1
1
1
1
1
1
1
1.02178
5.41286
8.60873
8.45452
8.27498
8.0026
7.64666
7.19076
6.66804
6.08154
1
1
1
1
1
1
1
1
1
1
1
1
1
1
0.999923
2.6326
7.84729
8.36107
8.17747
7.90167
7.54945
7.12134
6.64333
6.11774
1
1
1
1
1
1
1
1
1
1
1
1
1
1
0.999979
1.19324
5.9312
8.2637
8.05813
7.79026
7.44919
7.0534
6.61788
6.14674
1
1
1
1
1
1
1
1
1
1
1
1
1
1
0.999997
1.0028
3.01827
7.49628
7.93969
7.67776
7.36108
6.99784
6.60131
6.17898
1
1
1
1
1
1
1
1
1
1
1
1
1
1
1
0.999999
1.28383
5.7538
7.89451
7.61951
7.33436
6.9863
6.60724
6.20952
1
1
1
1
1
1
1
1
1
1
1
1
1
1
1
1
1.00648
2.74904
7.05255
7.56685
7.27381
6.93942
6.58253
6.21524
1
1
1
1
1
1
1
1
1
1
1
1
1
1
1
1
1.00002
1.21956
5.18315
7.56219
7.24389
6.9204
6.58267
6.24275
1
1
1
1
1
1
1
1
1
1
1
1
1
1
1
1
1
1.00421
2.26267
6.43251
7.1983
6.89243
6.58393
6.26121
1
1
1
1
1
1
1
1
1
1
1
1
1
1
1
1
1
1.00002
1.11454
4.07717
7.04256
6.91414
6.62711
6.31624
1
1
1
1
1
1
1
1
1
1
1
1
1
1
1
1
1
1
1.0016
1.66584
5.55712
6.92001
6.64397
6.33184
1
1
1
1
1
1
1
1
1
1
1
1
1
1
1
1
1
1
1.00001
1.03489
2.77738
6.17708
6.65416
6.3718
1
1
1
1
1
1
1
1
1
1
1
1
1
1
1
1
1
1
1
1.00036
1.22245
4.11346
6.45146
6.43083
1
1
1
1
1
1
1
1
1
1
1
1
1
1
1
1
1
1
1
1
1.00544
1.72675
5.05102
6.37975
1
1
1
1
1
1
1
1
1
1
1
1
1
1
1
1
1
1
1
1
1.00003
1.04258
2.46174
5.57006
1
1
1
1
1
1
1
1
1
1
1
1
1
1
1
1
1
1
1
1
1
1.00053
1.15947
3.30884
1
1
1
1
1
1
1
1
1
1
1
1
1
1
1
1
1
1
1
1
1
1
1.00367
1.40224
1
1
1
1
1
1
1
1
1
1
1
1
1
1
1
1
1
1
1
1
1
1
1.00002
1.01607
1
1
1
1
1
1
1
1
1
1
1
1
1
1
1
1
1
1
1
1
1
1
1
1.00016
1
1
1
1
1
1
1
1
1
1
1
1
1
1
1
1
1
1
1
1
1
1
1
1
1
1
1
1
1
1
1
1
1
1
1
1
1
1
1
1
1
1
1
1
1
1
1
1
1
1
1
1
1
1
1
1
1
1
1
1
1
1
1
1
1
1
1
1
1
1
1
1
1
1
1
1
1
1
1
1
1
1
1
1
1
1
1
1
1
1
1
1
1
1
1
1
1
1
1
1
1
1
1
1
1
1
1
1
1
1
1
1
1
1
1
1
1
1
1
1
1
1
1
1
1
1
1
1
1
1
1
1
1
1
1
1
1
1
1
1
1
1
1
1
1.61761
0.446734
0.138187
0.136744
0.166846
0.228001
0.344429
0.501685
0.737158
0.879882
0.976846
1.00697
0.990727
1.03642
1.15627
1.26091
1.32816
1.33813
1.29417
1.26645
1.27607
1.29921
1.31443
1.31497
1.30902
1.30635
1.30821
1.31237
2.02646
5.09294
5.87184
5.92791
5.94194
5.9429
5.94292
5.92558
5.87579
5.81013
5.74531
5.68901
5.63838
5.58346
5.51006
5.42256
5.34286
5.28282
5.24441
5.21099
5.13161
4.99924
4.85809
4.73813
4.65425
4.61998
4.62855
4.62212
4.54519
4.44268
4.33162
4.23691
4.16211
4.11082
4.06418
3.99674
3.92321
3.84582
3.77002
3.70437
3.64615
3.59672
3.55163
3.4975
3.43612
3.36317
3.28582
3.22046
3.17058
3.12959
3.10021
3.07323
3.03273
2.97832
2.89978
2.81868
2.76235
2.72269
2.69071
2.66979
2.65305
2.62392
2.58218
2.51289
2.43307
2.38182
2.35669
2.32074
2.73215
1.45024
0.935155
0.665462
0.560303
0.509193
0.482696
0.499056
0.542572
0.593536
0.634619
0.709907
0.794886
0.870063
0.967044
1.08748
1.16863
1.21694
1.229
1.23099
1.25314
1.28449
1.30685
1.30497
1.30485
1.3051
1.30803
1.30675
1.88021
4.92267
6.02378
6.05283
5.99798
5.95159
5.93517
5.9233
5.8943
5.82097
5.72412
5.63688
5.57886
5.55443
5.53952
5.47301
5.35714
5.23986
5.13972
5.08032
5.04974
5.00976
4.93192
4.8256
4.71612
4.62606
4.55466
4.5046
4.46672
4.42242
4.35555
4.27411
4.18531
4.09865
4.02567
3.965
3.91645
3.86234
3.79762
3.72421
3.64499
3.57301
3.51513
3.46935
3.42429
3.37202
3.31818
3.25567
3.18968
3.13136
3.08583
3.04237
3.00335
2.96189
2.90864
2.8528
2.795
2.74078
2.69722
2.66358
2.63091
2.60102
2.56783
2.52107
2.46552
2.40956
2.36839
2.31992
3.61864
2.33439
1.66353
1.29623
1.0587
0.864425
0.672934
0.581026
0.580719
0.599003
0.613145
0.659325
0.749967
0.804749
0.844119
0.923318
1.00291
1.07826
1.16982
1.22425
1.26353
1.30352
1.31496
1.30933
1.30787
1.31154
1.31777
1.32197
1.5534
4.69955
6.31692
6.13399
6.02578
5.96777
5.94359
5.91796
5.91424
5.89006
5.78873
5.66993
5.56761
5.5059
5.50556
5.52286
5.46689
5.35071
5.1969
5.04456
4.94725
4.90525
4.90319
4.88188
4.81807
4.72017
4.58602
4.45442
4.37231
4.32892
4.31354
4.28529
4.22418
4.14562
4.04322
3.94475
3.88324
3.83932
3.80493
3.75503
3.69039
3.59918
3.48926
3.40833
3.36175
3.33424
3.31876
3.28609
3.23931
3.17457
3.08762
3.0081
2.95232
2.90947
2.88209
2.8602
2.82794
2.78605
2.72729
2.6599
2.60665
2.56426
2.52805
2.50351
2.47849
2.44674
2.40299
2.32333
4.26246
3.19385
2.36255
1.81941
1.55055
1.35316
1.12725
0.878479
0.795988
0.789621
0.770319
0.737446
0.731815
0.730769
0.73681
0.764462
0.82207
0.897706
1.01709
1.11934
1.15736
1.19672
1.23902
1.26129
1.28802
1.31633
1.33476
1.37759
1.62072
3.91496
6.54542
6.42029
6.141
5.99151
5.92848
5.8686
5.85399
5.85194
5.79305
5.69376
5.57817
5.48127
5.42185
5.40623
5.38938
5.32821
5.2418
5.11589
4.97954
4.89781
4.85184
4.82595
4.77843
4.70522
4.61539
4.50036
4.38145
4.3088
4.26282
4.22998
4.1842
4.12704
4.06146
3.97635
3.88056
3.81561
3.76981
3.72684
3.67808
3.61693
3.5296
3.42457
3.35323
3.31657
3.28921
3.26724
3.23415
3.18724
3.11328
3.0135
2.93359
2.89245
2.86553
2.84654
2.82619
2.79758
2.75594
2.68394
2.59183
2.53064
2.50284
2.48427
2.47292
2.45416
2.42795
2.34798
4.65484
3.75226
3.04156
2.41112
1.95028
1.72404
1.54036
1.32914
1.08291
0.941652
0.912143
0.886713
0.847959
0.800421
0.762956
0.761337
0.760818
0.769232
0.818048
0.91858
0.998175
1.05727
1.13063
1.18755
1.22502
1.25341
1.32372
1.64594
2.20903
3.11281
5.45523
6.35414
6.3444
6.14123
5.97622
5.80791
5.76708
5.7504
5.75436
5.70801
5.62891
5.51539
5.40206
5.33649
5.29055
5.25872
5.21555
5.15324
5.0593
4.93693
4.83917
4.77087
4.70678
4.64273
4.58078
4.5114
4.42221
4.32475
4.25278
4.197
4.14361
4.09178
4.04108
3.98458
3.91003
3.82096
3.74746
3.69128
3.63987
3.58866
3.53252
3.4651
3.38714
3.31994
3.27592
3.23783
3.19593
3.14651
3.08727
3.02138
2.95805
2.90568
2.86854
2.83871
2.80977
2.77737
2.73611
2.67839
2.60435
2.53689
2.49911
2.47721
2.4596
2.44076
2.41866
2.349
4.97248
4.15846
3.50353
2.94167
2.46156
2.05778
1.81351
1.66288
1.48564
1.26693
1.08856
1.05673
1.04329
0.985497
0.903712
0.861533
0.823015
0.790205
0.789996
0.804927
0.831442
0.86331
0.920878
1.01379
1.09773
1.19533
1.49374
2.23121
2.84035
3.03526
3.71278
5.23077
6.02116
6.22569
6.09184
5.84416
5.68514
5.62632
5.62903
5.66735
5.62643
5.54081
5.40369
5.28231
5.22647
5.19548
5.18477
5.1476
5.0758
4.96222
4.81918
4.71563
4.65493
4.60564
4.55873
4.50608
4.438
4.33884
4.2281
4.1527
4.10085
4.0552
4.01159
3.96677
3.90742
3.81595
3.7215
3.66056
3.61466
3.57453
3.53571
3.48973
3.42108
3.3301
3.25667
3.20531
3.15748
3.10952
3.06613
3.02928
2.98965
2.93718
2.87684
2.82669
2.78548
2.74387
2.69996
2.65689
2.61523
2.56936
2.5168
2.47251
2.44424
2.41838
2.3898
2.32509
5.18657
4.48235
3.85638
3.3007
2.87872
2.49712
2.11909
1.86852
1.74888
1.59809
1.40538
1.23886
1.18242
1.14241
1.06628
0.978173
0.921279
0.878235
0.828365
0.815202
0.823482
0.827454
0.835028
0.863062
0.924545
1.1857
1.93372
2.51876
2.87258
2.92944
2.97971
3.61421
4.96152
5.89678
6.067
5.91179
5.7034
5.58491
5.55366
5.60301
5.60579
5.5432
5.44324
5.29664
5.19703
5.15372
5.13133
5.09616
5.03069
4.95331
4.8462
4.72544
4.64168
4.58633
4.53411
4.47926
4.41718
4.337
4.23472
4.14148
4.08254
4.03493
3.98909
3.94034
3.88033
3.79979
3.7098
3.64663
3.60681
3.57083
3.53395
3.49178
3.4295
3.32886
3.22449
3.16024
3.11904
3.08665
3.05912
3.03424
3.00412
2.95723
2.87829
2.79637
2.74228
2.70243
2.66919
2.64415
2.62171
2.59265
2.54703
2.48089
2.42557
2.38661
2.35398
2.30096
5.35461
4.73486
4.16342
3.62062
3.18328
2.83667
2.49304
2.18583
1.96195
1.80769
1.67848
1.52949
1.35477
1.28295
1.24087
1.15695
1.06306
1.01847
0.97191
0.917398
0.886088
0.857146
0.858568
0.882551
1.04762
1.55688
2.20576
2.39594
2.49821
2.5682
2.63173
2.76954
3.39071
4.60645
5.6354
5.87188
5.77837
5.60004
5.52816
5.50313
5.53005
5.50533
5.44444
5.34945
5.21017
5.10509
5.04411
4.99515
4.9744
4.93476
4.87105
4.77908
4.652
4.5514
4.49202
4.44052
4.38855
4.33328
4.26567
4.17604
4.08196
4.0105
3.9513
3.89363
3.83663
3.7819
3.71717
3.64068
3.59798
3.56174
3.51621
3.46396
3.40094
3.31861
3.22379
3.14656
3.10497
3.07917
3.0657
3.04792
3.01288
2.95959
2.87445
2.78025
2.71231
2.67487
2.65223
2.6373
2.62647
2.60818
2.57046
2.49986
2.41339
2.35175
2.323
2.28335
5.48592
4.93091
4.39368
3.90182
3.48553
3.09755
2.75873
2.49921
2.25618
2.01053
1.85357
1.75707
1.60591
1.4349
1.37441
1.32293
1.22376
1.12727
1.08205
1.03849
0.979134
0.933175
0.936343
1.07103
1.51769
2.09804
2.26525
2.25665
2.25673
2.28249
2.32982
2.38776
2.47858
2.90062
3.95822
5.1444
5.64381
5.65013
5.5412
5.43932
5.38863
5.38065
5.3924
5.34226
5.25343
5.10498
4.99434
4.93974
4.90585
4.89907
4.85327
4.78354
4.67472
4.54
4.45782
4.40534
4.36148
4.31962
4.2653
4.18706
4.07721
3.98326
3.92089
3.86815
3.81897
3.7705
3.71251
3.63923
3.56106
3.50234
3.45543
3.40628
3.35457
3.30683
3.25592
3.19326
3.12661
3.07798
3.03944
2.997
2.95327
2.90571
2.85264
2.79289
2.73609
2.69207
2.66432
2.64372
2.61877
2.58249
2.5414
2.48416
2.41028
2.34712
2.32183
2.28933
5.59693
5.08999
4.58075
4.13893
3.74218
3.35718
3.00999
2.74567
2.50957
2.27632
2.06263
1.9311
1.80045
1.64346
1.51654
1.45743
1.38739
1.28587
1.20333
1.15113
1.09785
1.10905
1.24997
1.71036
2.21167
2.37514
2.33708
2.29751
2.28686
2.30834
2.32154
2.29138
2.23983
2.24157
2.41528
3.21411
4.45739
5.35778
5.54224
5.4274
5.3205
5.25679
5.24689
5.27781
5.236
5.14473
4.99721
4.89762
4.84833
4.81684
4.79336
4.73803
4.66185
4.54639
4.43317
4.37137
4.3252
4.28064
4.22904
4.16597
4.06642
3.95765
3.89678
3.85367
3.81208
3.76516
3.70795
3.62798
3.52518
3.44794
3.4042
3.3679
3.33435
3.30486
3.27177
3.22787
3.15752
3.07023
2.99994
2.94929
2.90445
2.86113
2.82724
2.79837
2.76399
2.72235
2.67736
2.62592
2.57315
2.52521
2.48183
2.4411
2.40478
2.37279
2.34432
2.29145
5.68177
5.21087
4.74271
4.33743
3.94865
3.56201
3.25338
2.97759
2.71643
2.478
2.29322
2.12005
1.95816
1.81802
1.69698
1.5964
1.51141
1.43099
1.34112
1.26614
1.27959
1.45753
1.98015
2.52716
2.62327
2.55228
2.4718
2.43431
2.4246
2.40924
2.37694
2.33613
2.26825
2.21958
2.20513
2.24949
2.67822
3.69854
4.83748
5.2915
5.25949
5.1816
5.14044
5.16022
5.17141
5.1225
5.03071
4.89584
4.80076
4.74865
4.70605
4.66288
4.61097
4.53722
4.4297
4.34371
4.28894
4.23624
4.18429
4.12777
4.04758
3.94372
3.87335
3.82977
3.79054
3.74762
3.69661
3.62187
3.51245
3.41907
3.37231
3.34139
3.32387
3.31512
3.28373
3.23882
3.1659
3.0616
2.97121
2.91496
2.87421
2.84447
2.82282
2.80393
2.77908
2.73935
2.66871
2.5926
2.53824
2.49369
2.45111
2.42267
2.40646
2.39137
2.36929
2.29975
5.75288
5.31147
4.88826
4.50413
4.12403
3.75619
3.46253
3.18681
2.91481
2.67023
2.49142
2.30963
2.13493
1.97925
1.87233
1.75354
1.63933
1.54471
1.458
1.47974
1.72734
2.30903
2.88163
2.96009
2.86174
2.72938
2.65071
2.62267
2.59964
2.5532
2.50296
2.44985
2.37572
2.28291
2.22264
2.20257
2.20673
2.3341
2.96446
3.96891
4.80087
5.00997
5.05146
5.0738
5.08228
5.04992
4.99811
4.91663
4.79713
4.68924
4.6267
4.57799
4.53023
4.47991
4.41831
4.34421
4.26522
4.19421
4.13556
4.07943
4.01428
3.9327
3.85075
3.78887
3.7441
3.70533
3.66385
3.61059
3.53144
3.43171
3.35941
3.32405
3.29551
3.26333
3.22927
3.19243
3.14303
3.05474
2.95367
2.89696
2.86861
2.84675
2.82525
2.79779
2.75957
2.69907
2.62113
2.55527
2.50991
2.47631
2.4519
2.43035
2.40594
2.37403
2.33832
2.26909
5.80854
5.39283
5.00275
4.64037
4.26984
3.9339
3.6455
3.37025
3.08812
2.86617
2.66995
2.48288
2.29817
2.14668
2.02173
1.89886
1.77872
1.67388
1.7103
2.02341
2.62247
3.19447
3.27751
3.20133
3.08955
2.95106
2.83734
2.79231
2.75348
2.70451
2.65308
2.59836
2.52769
2.42755
2.33693
2.27042
2.22353
2.21562
2.2352
2.45027
3.15155
4.10261
4.69155
4.86311
4.96885
4.98965
4.93656
4.88403
4.8078
4.69448
4.57668
4.50581
4.45622
4.41183
4.37342
4.32589
4.259
4.17618
4.09744
4.0323
3.97417
3.91546
3.84626
3.76615
3.69813
3.65468
3.61826
3.58062
3.53636
3.47027
3.38003
3.30194
3.25295
3.21653
3.17973
3.13893
3.09231
3.03677
2.96941
2.90623
2.86806
2.84187
2.81375
2.77884
2.73038
2.66179
2.58224
2.52283
2.49499
2.47686
2.45811
2.43309
2.40149
2.35867
2.31206
2.23867
5.8402
5.46128
5.10618
4.75941
4.40553
4.09849
3.81601
3.53173
3.2546
3.04651
2.841
2.64913
2.45868
2.31113
2.15735
2.03616
1.9325
2.00681
2.44447
3.04631
3.47771
3.55938
3.46467
3.38133
3.30639
3.19558
3.04832
2.96002
2.90962
2.85625
2.80133
2.74479
2.67823
2.5885
2.47596
2.38626
2.3227
2.2587
2.21717
2.20455
2.25228
2.57092
3.29617
4.10231
4.61965
4.77742
4.88712
4.85378
4.78622
4.69446
4.55985
4.46253
4.41148
4.37478
4.34318
4.30165
4.24732
4.16989
4.07137
3.98872
3.93662
3.89152
3.83934
3.76779
3.67784
3.60884
3.57197
3.54267
3.5122
3.47208
3.40464
3.30661
3.22047
3.16581
3.12647
3.08796
3.05013
3.01709
2.97934
2.92292
2.86252
2.8229
2.7899
2.75197
2.70252
2.63081
2.55249
2.52046
2.50378
2.48415
2.46047
2.43025
2.39278
2.34036
2.27951
2.20937
5.89132
5.53896
5.20367
4.86652
4.53421
4.24342
3.96453
3.67235
3.42143
3.2112
3.0029
2.79498
2.61568
2.4443
2.31071
2.22679
2.36909
2.97425
3.70911
3.85912
3.82371
3.70993
3.6245
3.5866
3.5258
3.4276
3.27454
3.13724
3.06507
3.00095
2.93576
2.87068
2.80153
2.72042
2.61736
2.50898
2.43248
2.37391
2.31565
2.25115
2.21075
2.1913
2.25513
2.61885
3.36294
4.08524
4.5597
4.67587
4.72725
4.66966
4.55622
4.44481
4.36883
4.33903
4.31544
4.28147
4.23333
4.15988
4.04473
3.94275
3.89612
3.8583
3.81742
3.76709
3.69189
3.59152
3.52316
3.49118
3.46437
3.43303
3.3884
3.31704
3.21616
3.1262
3.07623
3.04647
3.02258
2.99945
2.97031
2.92257
2.84714
2.78172
2.74544
2.71357
2.67301
2.61953
2.56839
2.51726
2.47089
2.44714
2.42948
2.41173
2.38389
2.33335
2.26396
2.19752
5.92985
5.60291
5.27992
4.95318
4.64602
4.36716
4.09097
3.80533
3.57594
3.36073
3.14281
2.93122
2.74443
2.58966
2.55951
2.80906
3.44086
4.22916
4.45882
4.30601
4.0566
3.89325
3.832
3.79885
3.7258
3.62109
3.4767
3.32066
3.22473
3.15251
3.08197
3.01004
2.93139
2.84149
2.73531
2.62586
2.54337
2.47824
2.42117
2.36137
2.28998
2.2249
2.16374
2.13172
2.22539
2.66869
3.4469
4.08632
4.43338
4.51974
4.53564
4.45443
4.35061
4.31002
4.27526
4.23878
4.19443
4.12844
4.01528
3.90074
3.85145
3.81896
3.78575
3.74776
3.69286
3.60123
3.49899
3.43636
3.39698
3.36401
3.33088
3.28955
3.22705
3.13688
3.05141
3.01356
2.99241
2.97165
2.94603
2.90641
2.83434
2.75018
2.69766
2.66524
2.63725
2.6142
2.58278
2.52289
2.45671
2.42172
2.39764
2.3736
2.34888
2.31792
2.27924
2.2107
5.99596
5.67986
5.36215
5.047
4.7583
4.48119
4.20529
3.94102
3.72152
3.49642
3.26294
3.05916
2.89035
2.95812
3.40902
4.0854
4.61968
4.79574
4.69799
4.50943
4.29936
4.12885
4.04917
3.98689
3.89394
3.78057
3.64777
3.49421
3.37997
3.29599
3.21612
3.13764
3.05361
2.95824
2.8451
2.72577
2.63648
2.57081
2.5111
2.45369
2.39104
2.318
2.23256
2.14445
2.09336
2.09521
2.24703
2.74424
3.44991
4.05538
4.27226
4.34293
4.32644
4.28236
4.23394
4.19435
4.13822
4.07475
3.97495
3.86717
3.80871
3.77615
3.74539
3.71087
3.66644
3.59431
3.48201
3.38446
3.33371
3.29845
3.26657
3.23593
3.20201
3.15126
3.07405
2.99536
2.95037
2.92616
2.90371
2.8722
2.81534
2.72933
2.65721
2.62468
2.60867
2.59403
2.57161
2.5279
2.45325
2.39326
2.36309
2.34198
2.32221
2.3043
2.28463
2.21737
6.0292
5.7258
5.41528
5.12376
4.85232
4.57956
4.30253
4.06642
3.84101
3.60311
3.38565
3.23055
3.41387
4.11335
5.00445
5.1839
5.14786
5.00332
4.84725
4.73127
4.57889
4.3875
4.25868
4.16584
4.06625
3.95132
3.82401
3.67652
3.53718
3.43706
3.3463
3.25728
3.16638
3.07166
2.96954
2.85436
2.74315
2.65931
2.59259
2.52961
2.46728
2.40358
2.33028
2.24376
2.14646
2.06384
2.0392
2.06658
2.25828
2.80483
3.42145
3.95091
4.11003
4.15428
4.19524
4.16261
4.09505
4.02189
3.92157
3.83359
3.77291
3.72849
3.69392
3.66008
3.62103
3.56553
3.46937
3.35091
3.27789
3.24002
3.2116
3.18735
3.16328
3.13425
3.08667
3.00656
2.92581
2.87524
2.83874
2.8067
2.77119
2.72405
2.67155
2.61985
2.58028
2.55969
2.5443
2.51555
2.45818
2.39839
2.35286
2.31694
2.29608
2.28758
2.27553
2.21315
6.07385
5.78503
5.48934
5.21559
4.94891
4.68375
4.40792
4.19007
3.942
3.72239
3.64561
3.98404
4.80903
5.70701
5.91292
5.66719
5.34714
5.17174
5.08023
5.00495
4.85836
4.65616
4.46617
4.33969
4.23321
4.11797
3.98969
3.84838
3.69174
3.55705
3.45396
3.36056
3.26777
3.1743
3.07846
2.97044
2.8501
2.74058
2.65907
2.59239
2.53036
2.46822
2.40226
2.32745
2.23156
2.1384
2.06626
2.01892
2.0041
2.05068
2.286
2.79553
3.35094
3.74227
3.96881
4.04622
4.05105
3.97672
3.87704
3.80335
3.73915
3.67725
3.63146
3.59605
3.55964
3.51561
3.45014
3.35244
3.25253
3.19753
3.16452
3.13801
3.11617
3.09403
3.06379
3.00737
2.92082
2.84075
2.78783
2.75044
2.72179
2.69973
2.67634
2.64114
2.58957
2.53779
2.49362
2.45802
2.43034
2.40023
2.36008
2.3138
2.27815
2.25458
2.22557
2.1848
6.15522
5.85911
5.57425
5.30697
5.04787
4.774
4.50451
4.28322
4.07848
4.14661
4.72943
5.62796
6.16827
6.4365
6.29011
5.97992
5.64143
5.40045
5.28902
5.21932
5.08244
4.89222
4.68918
4.51793
4.39179
4.2758
4.14889
4.01034
3.85683
3.6968
3.55939
3.45565
3.36344
3.2739
3.18266
3.07975
2.95987
2.83825
2.74133
2.66598
2.59897
2.53242
2.46257
2.38604
2.29808
2.20631
2.12628
2.06251
2.00946
1.9874
1.96604
2.0101
2.24472
2.69333
3.24529
3.61098
3.84097
3.88096
3.86422
3.79093
3.70823
3.62339
3.56036
3.51871
3.48228
3.44496
3.405
3.35142
3.261
3.16725
3.13757
3.11896
3.0946
3.06787
3.03333
2.98146
2.9078
2.82078
2.75233
2.714
2.69408
2.68007
2.66668
2.64513
2.59654
2.51921
2.44966
2.4146
2.39753
2.38104
2.35692
2.31505
2.26099
2.22487
2.1944
2.21599
6.21812
5.91656
5.6553
5.38352
5.13195
4.83208
4.62207
4.46336
4.73781
5.64918
6.70165
6.88564
6.73017
6.62307
6.46683
6.24085
5.96968
5.68988
5.52172
5.41007
5.2787
5.10499
4.90415
4.70066
4.54012
4.40786
4.27786
4.14243
3.99879
3.84596
3.69525
3.56603
3.45534
3.35318
3.25488
3.15484
3.04751
2.93315
2.82486
2.73511
2.65867
2.58474
2.51114
2.43473
2.35344
2.26857
2.18759
2.11806
2.05879
2.00082
1.95261
1.9301
1.89554
1.93831
2.1823
2.65409
3.18101
3.60247
3.71526
3.72976
3.68077
3.56661
3.46545
3.41808
3.39445
3.38577
3.36854
3.33007
3.25859
3.16952
3.08851
3.04072
3.01391
2.98558
2.95507
2.92431
2.87992
2.81215
2.74296
2.70101
2.67576
2.65005
2.61759
2.5895
2.55894
2.50338
2.44254
2.40335
2.36986
2.33678
2.31048
2.28442
2.25267
2.21751
2.23524
2.49155
6.22648
5.99513
5.71592
5.46
5.18744
4.94783
4.9435
5.52259
6.62654
7.5801
7.74159
7.37569
6.98645
6.74314
6.61349
6.47943
6.2574
5.9867
5.76961
5.60788
5.46252
5.29643
5.10617
4.90169
4.70977
4.54482
4.39598
4.25609
4.12022
3.98247
3.83907
3.69632
3.56339
3.441
3.32627
3.22014
3.12071
3.01834
2.91032
2.80725
2.71821
2.63588
2.55775
2.48181
2.40508
2.3269
2.24877
2.17763
2.11306
2.0499
1.99062
1.92711
1.87529
1.83067
1.8045
1.88018
2.15744
2.68768
3.18067
3.54637
3.58714
3.54279
3.45628
3.39127
3.35307
3.32952
3.29453
3.25268
3.21495
3.15903
3.06459
2.98792
2.95617
2.93329
2.90707
2.87232
2.83238
2.78952
2.74168
2.69442
2.64957
2.60831
2.57252
2.54064
2.50087
2.45655
2.42243
2.38936
2.3457
2.30054
2.27989
2.26599
2.29128
2.38653
2.60994
3.12213
5.76289
6.07203
5.82896
5.53163
5.27764
5.54594
6.61195
7.76618
8.29832
8.35328
8.06727
7.64333
7.24258
6.99449
6.8619
6.71458
6.50296
6.24351
6.01216
5.82258
5.64934
5.47336
5.28579
5.08369
4.87915
4.69349
4.52798
4.37677
4.23479
4.09534
3.95136
3.8031
3.6587
3.5262
3.40638
3.29661
3.19426
3.09126
2.9814
2.86736
2.76445
2.67344
2.59085
2.5126
2.43528
2.36086
2.28909
2.22679
2.16907
2.11422
2.05352
1.98349
1.90148
1.82039
1.77192
1.73574
1.7395
1.86339
2.19993
2.74467
3.1429
3.36717
3.38785
3.37564
3.35282
3.31967
3.27411
3.23759
3.19397
3.12705
3.04155
2.95998
2.91144
2.88725
2.8712
2.85557
2.83372
2.80311
2.75316
2.67574
2.60048
2.56929
2.55276
2.52524
2.48922
2.45197
2.41132
2.36643
2.33977
2.30852
2.31787
2.39818
2.63233
2.99618
3.3241
3.59847
4.0144
5.88725
5.81476
5.69965
6.38262
7.91682
9.09028
9.02915
8.76711
8.5496
8.25894
7.92959
7.57609
7.3423
7.17494
6.9775
6.74708
6.48047
6.22903
6.02083
5.83495
5.64959
5.45518
5.24831
5.03303
4.83085
4.65335
4.49502
4.34552
4.19734
4.04603
3.89151
3.74068
3.60122
3.47834
3.3667
3.2609
3.15722
3.05023
2.93496
2.82935
2.73609
2.65024
2.56711
2.48323
2.40013
2.31728
2.24133
2.1769
2.12663
2.07831
2.02698
1.96047
1.88109
1.80819
1.75041
1.71078
1.68848
1.70973
1.86555
2.23904
2.75422
3.02186
3.18211
3.23001
3.21096
3.18498
3.17647
3.15537
3.1066
3.03048
2.95349
2.90209
2.85361
2.81066
2.77977
2.76063
2.73856
2.69959
2.64148
2.58481
2.53251
2.47774
2.43671
2.40715
2.38723
2.37463
2.35743
2.37612
2.47226
2.70011
3.03201
3.37679
3.63082
3.81165
3.83547
1.76687
4.59404
5.54667
7.3984
9.35331
10.1936
10.0408
9.4833
8.94496
8.65874
8.45408
8.18606
7.84835
7.614
7.43338
7.20053
6.95529
6.69856
6.4433
6.21335
6.00847
5.80934
5.60339
5.38692
5.16477
4.95546
4.7703
4.60549
4.45067
4.29814
4.14388
3.98663
3.83337
3.68936
3.56197
3.44724
3.33576
3.22547
3.12474
3.03194
2.93458
2.84203
2.75541
2.66906
2.57885
2.48823
2.40232
2.32299
2.25225
2.19197
2.14326
2.0945
2.04016
1.97299
1.89778
1.81854
1.74963
1.68746
1.63887
1.63563
1.68927
1.88341
2.25507
2.70975
3.01851
3.045
3.081
3.0588
3.01747
2.97302
2.95666
2.93844
2.89954
2.84757
2.78539
2.7275
2.69996
2.68103
2.66138
2.63593
2.59044
2.51615
2.42951
2.38773
2.37418
2.36757
2.38697
2.51312
2.77256
3.16863
3.51167
3.74795
3.90779
3.94241
3.93953
3.87525
1.0501
2.14201
6.25818
10.9793
11.1544
10.7488
10.2291
9.67201
9.21159
8.95371
8.76979
8.49908
8.13977
7.8855
7.7121
7.43531
7.16711
6.93613
6.66876
6.40175
6.17027
5.95495
5.73541
5.50875
5.28237
5.06986
4.87778
4.70382
4.54083
4.3821
4.22407
4.06464
3.90848
3.75938
3.62254
3.49815
3.3802
3.26452
3.15035
3.0376
2.92787
2.82518
2.73495
2.6542
2.57217
2.4837
2.39611
2.31377
2.23215
2.1515
2.08669
2.041
2.00212
1.95686
1.89891
1.83092
1.77115
1.71812
1.65528
1.58902
1.55767
1.56564
1.64165
1.8744
2.27859
2.67413
2.98909
2.98875
2.95095
2.92816
2.89617
2.85078
2.81723
2.78548
2.74128
2.68375
2.64025
2.61497
2.58875
2.55473
2.51041
2.45423
2.40626
2.38545
2.39878
2.50287
2.76623
3.20071
3.59641
3.93408
4.00682
4.00149
3.99318
3.97036
3.93172
3.84412
1.00064
1.16662
8.09595
12.6418
11.4655
10.6864
10.1659
9.73226
9.39843
9.19135
8.99937
8.69637
8.32202
8.04525
7.87346
7.67796
7.36472
7.05039
6.83283
6.61231
6.38507
6.1677
5.94593
5.7173
5.48802
5.26856
5.06612
4.88218
4.71168
4.54779
4.38537
4.22055
4.05591
3.89622
3.74308
3.60227
3.478
3.36112
3.23307
3.10093
2.97556
2.86528
2.77069
2.69045
2.61817
2.54334
2.45521
2.35947
2.26703
2.177
2.09701
2.03818
1.99908
1.96842
1.93696
1.88636
1.81724
1.75038
1.68401
1.61246
1.55396
1.51577
1.51197
1.53863
1.65667
1.92107
2.36497
2.65782
2.83213
2.87058
2.85814
2.83556
2.80771
2.7718
2.72598
2.66108
2.6056
2.55504
2.5111
2.47436
2.4542
2.43672
2.44812
2.54463
2.7954
3.22047
3.67568
3.98318
4.05532
4.08529
4.05361
4.04224
4.0242
3.98545
3.93737
3.84657
1
1.72225
8.65552
11.59
10.8143
10.4558
10.1503
9.89042
9.64506
9.42927
9.19683
8.87825
8.52534
8.25212
8.0646
7.85005
7.54801
7.19222
6.89834
6.65826
6.42297
6.19906
5.97639
5.74595
5.51184
5.28611
5.07726
4.88666
4.70953
4.53955
4.37238
4.20352
4.0361
3.87468
3.7272
3.59318
3.46622
3.34281
3.22271
3.10735
2.99349
2.88644
2.78601
2.69043
2.59951
2.51579
2.43712
2.35492
2.27962
2.22088
2.16213
2.08796
2.0103
1.94429
1.89381
1.84861
1.79891
1.75121
1.71364
1.67552
1.61724
1.54655
1.49285
1.46118
1.44977
1.48436
1.63908
1.96239
2.3567
2.54038
2.67782
2.74664
2.73046
2.70331
2.67609
2.63654
2.5847
2.5149
2.47111
2.45121
2.46504
2.55582
2.83876
3.27059
3.74631
4.03358
4.1986
4.21043
4.18868
4.14051
4.08731
4.04001
3.99331
3.94793
3.9146
3.84144
1
2.34121
9.03047
10.9464
10.7038
10.5175
10.2807
10.054
9.82938
9.6197
9.36717
9.03097
8.68052
8.39681
8.17801
7.92376
7.61986
7.28234
6.98643
6.75699
6.52116
6.29019
6.06525
5.83122
5.58912
5.35489
5.14032
4.94563
4.76468
4.59088
4.42022
4.24864
4.07985
3.91858
3.77023
3.6337
3.50458
3.38021
3.25888
3.1411
3.02396
2.91022
2.80141
2.69969
2.60612
2.52381
2.45359
2.38793
2.32135
2.24939
2.17286
2.08764
1.99867
1.92855
1.87852
1.83994
1.80826
1.77547
1.73081
1.67633
1.61182
1.54243
1.48294
1.43958
1.40874
1.39559
1.40508
1.47392
1.6584
1.98019
2.37453
2.55583
2.57412
2.59654
2.59774
2.56923
2.53162
2.50475
2.49571
2.56635
2.82547
3.22863
3.76431
4.08764
4.27212
4.31213
4.31066
4.27099
4.19134
4.10387
4.05273
4.01604
3.97951
3.94483
3.92182
3.86397
1
2.42348
9.0964
10.6419
10.5379
10.4654
10.2769
10.091
9.8967
9.67998
9.40381
9.08088
8.77571
8.53006
8.30884
8.02662
7.69322
7.36607
7.08494
6.84992
6.61899
6.37851
6.13486
5.8757
5.61961
5.38708
5.17847
4.98824
4.80855
4.63177
4.45399
4.27491
4.10199
3.94043
3.79168
3.65338
3.52263
3.39671
3.27181
3.14852
3.02806
2.91549
2.8108
2.71499
2.63074
2.55435
2.47961
2.40324
2.32521
2.24466
2.16397
2.08334
2.00532
1.94013
1.89279
1.85726
1.8225
1.78398
1.7364
1.67394
1.59816
1.53682
1.49118
1.45178
1.4224
1.3976
1.37945
1.35884
1.3628
1.44219
1.66948
2.0222
2.31625
2.52772
2.55527
2.54751
2.56426
2.65054
2.86394
3.23695
3.72006
4.06063
4.33882
4.41178
4.42076
4.37431
4.29735
4.21789
4.14056
4.07154
4.03366
4.00758
3.97875
3.94556
3.91939
3.86216
1
2.36029
9.15819
10.597
10.5029
10.4303
10.2795
10.1165
9.92728
9.69964
9.43521
9.15264
8.88176
8.6242
8.32134
7.97732
7.65952
7.37996
7.14578
6.93261
6.67219
6.40105
6.12611
5.86711
5.64126
5.43776
5.24131
5.04748
4.85186
4.65279
4.45773
4.27581
4.11183
3.96202
3.8215
3.68587
3.55139
3.41636
3.28151
3.15369
3.03669
2.93347
2.84001
2.74896
2.65533
2.55905
2.46724
2.3846
2.3106
2.23928
2.16504
2.0929
2.03496
1.98083
1.91978
1.86329
1.81533
1.76968
1.72037
1.66151
1.59119
1.53698
1.50886
1.48366
1.45682
1.42368
1.3858
1.34371
1.29483
1.27351
1.30114
1.4525
1.77131
2.12503
2.3617
2.59784
2.95754
3.36438
3.67013
3.98997
4.2194
4.39203
4.46112
4.41726
4.34552
4.27972
4.21284
4.17041
4.12989
4.0969
4.07307
4.04514
4.01251
3.97267
3.92833
3.84115
1
2.31614
9.17567
10.5796
10.484
10.4035
10.2581
10.0905
9.89319
9.66689
9.42828
9.18584
8.93033
8.63634
8.31673
8.01495
7.74116
7.4959
7.27514
7.01466
6.71644
6.42007
6.14248
5.90527
5.68723
5.47872
5.27404
5.06758
4.85571
4.6447
4.44938
4.27508
4.11931
3.97527
3.83726
3.70037
3.56089
3.41974
3.28184
3.15707
3.04756
2.95007
2.85627
2.75833
2.65436
2.54861
2.45068
2.36573
2.29601
2.23787
2.18349
2.12515
2.0535
1.97961
1.91258
1.85373
1.80286
1.75217
1.69939
1.64637
1.59907
1.55412
1.50876
1.47467
1.4465
1.41726
1.3785
1.33007
1.28104
1.24768
1.22313
1.23665
1.33387
1.64257
2.19206
2.91278
3.59962
4.21588
4.66812
4.90027
4.81408
4.72492
4.57045
4.40741
4.291
4.19641
4.14202
4.11673
4.10037
4.09242
4.08711
4.06034
4.02773
3.986
3.93419
3.83385
)
;

boundaryField
{
    inlet
    {
        type            fixedValue;
        value           uniform 1;
    }
    outlet
    {
        type            zeroGradient;
    }
    bottom
    {
        type            symmetryPlane;
    }
    top
    {
        type            symmetryPlane;
    }
    obstacle
    {
        type            zeroGradient;
    }
    defaultFaces
    {
        type            empty;
    }
}


// ************************************************************************* //
