/*--------------------------------*- C++ -*----------------------------------*\
  =========                 |
  \\      /  F ield         | OpenFOAM: The Open Source CFD Toolbox
   \\    /   O peration     | Website:  https://openfoam.org
    \\  /    A nd           | Version:  7
     \\/     M anipulation  |
\*---------------------------------------------------------------------------*/
FoamFile
{
    version     2.0;
    format      ascii;
    class       volVectorField;
    location    "3.7";
    object      U;
}
// * * * * * * * * * * * * * * * * * * * * * * * * * * * * * * * * * * * * * //

dimensions      [0 1 -1 0 0 0 0];

internalField   nonuniform List<vector> 
4032
(
(3 4.2407e-18 0)
(3 9.33412e-17 0)
(3 4.35115e-17 0)
(3 -1.11194e-16 0)
(3 -2.68023e-16 0)
(3 -4.30225e-16 0)
(3 -5.196e-16 0)
(3 -6.9747e-16 0)
(3 -1.75127e-16 0)
(3 -1.62466e-16 0)
(3 -3.80927e-16 0)
(2.93246 0.00276325 0)
(1.00603 0.0171135 0)
(0.705971 0.0193918 0)
(0.652856 0.0238475 0)
(0.592164 0.0253567 0)
(0.531769 0.0266548 0)
(0.469484 0.0280277 0)
(0.405498 0.0294073 0)
(0.339507 0.0309921 0)
(0.271143 0.0328136 0)
(0.199289 0.0353637 0)
(0.123267 0.0371916 0)
(0.0452592 0.0413717 0)
(3 1.606e-16 0)
(3 2.896e-16 0)
(3 -1.92205e-16 0)
(3 -4.53513e-16 0)
(3 -4.06318e-16 0)
(3 -3.51752e-16 0)
(3 -2.89092e-16 0)
(3 -4.3959e-16 0)
(3 -1.35894e-16 0)
(3 -5.82159e-16 0)
(3 -6.89879e-16 0)
(2.94278 0.0210332 0)
(1.01576 0.0778491 0)
(0.696303 0.0683023 0)
(0.642596 0.0723496 0)
(0.584431 0.0775882 0)
(0.525374 0.0825366 0)
(0.463627 0.0876499 0)
(0.399323 0.092536 0)
(0.332489 0.0976918 0)
(0.263301 0.102986 0)
(0.191471 0.110192 0)
(0.116458 0.115038 0)
(0.0418377 0.125106 0)
(3 7.12278e-17 0)
(3 -8.89094e-17 0)
(3 -7.56258e-16 0)
(3 -7.99844e-16 0)
(3 -9.24113e-17 0)
(3 5.75572e-17 0)
(3 7.94651e-17 0)
(3 -1.19104e-16 0)
(3 -9.91354e-16 0)
(3 -1.44527e-15 0)
(3 -1.13547e-15 0)
(2.98325 0.0169426 0)
(1.05916 0.138014 0)
(0.718185 0.114056 0)
(0.663749 0.120616 0)
(0.604102 0.129153 0)
(0.54388 0.137583 0)
(0.481598 0.14661 0)
(0.416657 0.155458 0)
(0.348568 0.164715 0)
(0.276958 0.173645 0)
(0.201852 0.18531 0)
(0.122186 0.192418 0)
(0.0438671 0.205977 0)
(3 -1.90975e-16 0)
(3 -3.13011e-16 0)
(3 -4.5947e-17 0)
(3 1.64946e-16 0)
(3 5.4476e-16 0)
(3 7.90582e-16 0)
(3 4.74717e-16 0)
(3 4.4675e-16 0)
(3 2.899e-16 0)
(3 -1.84002e-16 0)
(3 -6.35494e-16 0)
(3.00303 0.00216306 0)
(1.1441 0.180054 0)
(0.739066 0.154412 0)
(0.685786 0.167516 0)
(0.628567 0.179615 0)
(0.56942 0.191162 0)
(0.507834 0.20442 0)
(0.442204 0.218562 0)
(0.371534 0.234311 0)
(0.29532 0.249248 0)
(0.215345 0.267104 0)
(0.130172 0.277802 0)
(0.0456233 0.293907 0)
(3 1.27984e-16 0)
(3 3.14885e-16 0)
(3 1.11701e-15 0)
(3 1.20239e-15 0)
(3 1.06665e-15 0)
(3 7.69651e-16 0)
(3 9.59696e-16 0)
(3 7.16347e-16 0)
(3 5.3688e-16 0)
(3 6.10526e-16 0)
(3 -2.21906e-16 0)
(3.00011 6.16566e-06 0)
(1.27151 0.227558 0)
(0.748332 0.199613 0)
(0.687542 0.215055 0)
(0.633725 0.230946 0)
(0.577857 0.245837 0)
(0.520663 0.263925 0)
(0.459678 0.284206 0)
(0.393986 0.307249 0)
(0.321331 0.328097 0)
(0.242718 0.352319 0)
(0.151747 0.369929 0)
(0.0564614 0.392892 0)
(3 -1.53542e-17 0)
(3 -6.586e-17 0)
(3 -6.02193e-17 0)
(3 -1.05321e-16 0)
(3 -2.25381e-16 0)
(3 -2.31873e-16 0)
(3 2.06365e-16 0)
(3 3.40411e-16 0)
(3 -1.58906e-16 0)
(3 5.98247e-16 0)
(3 5.78013e-16 0)
(3 -1.4402e-08 0)
(1.47156 0.277359 0)
(0.768456 0.252672 0)
(0.689618 0.261306 0)
(0.638661 0.277636 0)
(0.587827 0.294335 0)
(0.538388 0.316265 0)
(0.485375 0.342369 0)
(0.426127 0.374564 0)
(0.353726 0.407563 0)
(0.269924 0.447264 0)
(0.168905 0.482642 0)
(0.0571359 0.5154 0)
(3 -7.21705e-17 0)
(3 -1.84128e-16 0)
(3 -1.20078e-15 0)
(3 -1.60373e-15 0)
(3 -1.63963e-15 0)
(3 -1.14119e-15 0)
(3 -1.09543e-15 0)
(3 -8.18288e-16 0)
(3 -1.58786e-16 0)
(3 9.83104e-17 0)
(3 7.8378e-16 0)
(3 -8.76025e-09 0)
(1.76529 0.329051 0)
(0.802794 0.321081 0)
(0.693637 0.313732 0)
(0.640129 0.3251 0)
(0.590389 0.340713 0)
(0.545991 0.364966 0)
(0.500692 0.397378 0)
(0.453325 0.440877 0)
(0.394675 0.490038 0)
(0.326463 0.544379 0)
(0.235507 0.597776 0)
(0.102429 0.660189 0)
(3 1.10107e-16 0)
(3 5.09009e-17 0)
(3 -3.93731e-16 0)
(3 -7.58096e-16 0)
(3 -8.74885e-16 0)
(3 -6.90183e-16 0)
(3 -6.34747e-16 0)
(3 -9.27858e-16 0)
(3 -4.28209e-16 0)
(3 -7.61849e-16 0)
(3 -8.87225e-16 0)
(3 -1.59124e-09 0)
(2.19695 0.358136 0)
(0.871108 0.407112 0)
(0.725578 0.374642 0)
(0.672414 0.381018 0)
(0.620842 0.391116 0)
(0.575856 0.412707 0)
(0.534596 0.44701 0)
(0.495676 0.496084 0)
(0.452435 0.557108 0)
(0.392391 0.640944 0)
(0.274387 0.759345 0)
(0.151969 0.924378 0)
(3 -1.43157e-16 0)
(3 -3.78748e-16 0)
(3 2.77188e-17 0)
(3 7.50418e-16 0)
(3 8.73093e-16 0)
(3 8.42382e-16 0)
(3 3.37412e-16 0)
(3 3.08085e-17 0)
(3 -6.74942e-16 0)
(3 -1.01278e-15 0)
(3 -1.4696e-15 0)
(3 -1.33668e-10 0)
(2.78789 0.245189 0)
(1.0267 0.477546 0)
(0.816883 0.411283 0)
(0.760988 0.421287 0)
(0.697373 0.437703 0)
(0.641277 0.459081 0)
(0.595199 0.492639 0)
(0.557545 0.544189 0)
(0.524233 0.621449 0)
(0.492885 0.747659 0)
(0.462054 0.921844 0)
(0.575291 1.19929 0)
(3 -1.49915e-16 0)
(3 -1.7083e-16 0)
(3 -1.35699e-16 0)
(3 2.32186e-16 0)
(3 4.83625e-16 0)
(3 8.36436e-16 0)
(3 5.49994e-16 0)
(3 2.29033e-16 0)
(3 -9.24194e-16 0)
(3 -1.60395e-15 0)
(3 -1.3508e-15 0)
(3 -3.51139e-12 0)
(3.06257 0.0238546 0)
(1.25689 0.464302 0)
(0.881795 0.458072 0)
(0.839166 0.488461 0)
(0.781672 0.499789 0)
(0.724428 0.515678 0)
(0.674778 0.544288 0)
(0.635066 0.593359 0)
(0.616883 0.676773 0)
(0.618018 0.812601 0)
(0.682355 0.963798 0)
(0.969671 1.13663 0)
(3 8.41798e-17 0)
(3 5.25646e-16 0)
(3 -3.29832e-16 0)
(3 -9.03023e-16 0)
(3 -6.48782e-16 0)
(3 -3.275e-16 0)
(3 4.39197e-17 0)
(3 -2.30075e-16 0)
(3 -7.63513e-16 0)
(3 -1.40618e-15 0)
(3 -4.07133e-16 0)
(3 -3.68483e-14 0)
(3.0041 1.47986e-05 0)
(1.50494 0.463208 0)
(0.877291 0.51622 0)
(0.834367 0.540491 0)
(0.802868 0.561382 0)
(0.773003 0.58006 0)
(0.742781 0.605929 0)
(0.716116 0.644832 0)
(0.717072 0.715558 0)
(0.744639 0.82992 0)
(0.867287 0.956075 0)
(1.17944 1.06083 0)
(3 1.41519e-16 0)
(3 1.61026e-16 0)
(3 6.36568e-17 0)
(3 2.81924e-16 0)
(3 2.31354e-16 0)
(3 -7.53071e-16 0)
(3 -4.80753e-16 0)
(3 -3.08783e-16 0)
(3 2.50161e-17 0)
(3 4.32044e-16 0)
(3 6.24398e-16 0)
(3 5.80514e-16 0)
(3.00002 -8.26655e-07 0)
(2.07749 0.488077 0)
(0.939307 0.582472 0)
(0.85731 0.561544 0)
(0.846707 0.587012 0)
(0.830865 0.613706 0)
(0.817267 0.645689 0)
(0.805148 0.681302 0)
(0.81606 0.742113 0)
(0.864327 0.830853 0)
(1.00798 0.93448 0)
(1.27444 1.00315 0)
(3 -7.2807e-18 0)
(3 4.94635e-17 0)
(3 4.6886e-16 0)
(3 9.84971e-16 0)
(3 3.22839e-16 0)
(3 -8.47177e-16 0)
(3 -1.26561e-15 0)
(3 -7.67292e-16 0)
(3 2.06035e-16 0)
(3 6.09862e-16 0)
(3 7.8411e-16 0)
(3 9.82125e-16 0)
(3 -9.26532e-07 0)
(2.88636 0.247704 0)
(1.13851 0.623954 0)
(0.933379 0.568366 0)
(0.916493 0.603557 0)
(0.898999 0.637211 0)
(0.891333 0.674934 0)
(0.892213 0.712792 0)
(0.909264 0.762823 0)
(0.969407 0.827844 0)
(1.10525 0.899414 0)
(1.31793 0.941282 0)
(3 -5.68435e-17 0)
(3 2.84941e-17 0)
(3 3.81888e-16 0)
(3 -2.20533e-16 0)
(3 -4.32432e-16 0)
(3 -3.90899e-16 0)
(3 -2.3914e-16 0)
(3 8.50388e-17 0)
(3 3.88377e-16 0)
(3 5.54745e-16 0)
(3 9.28519e-16 0)
(3 9.55384e-16 0)
(3 -1.89281e-07 0)
(3.05927 0.012917 0)
(1.44883 0.607761 0)
(0.986171 0.649451 0)
(0.943055 0.653377 0)
(0.930659 0.676858 0)
(0.938475 0.708198 0)
(0.957503 0.744595 0)
(0.991011 0.784738 0)
(1.05953 0.83215 0)
(1.18084 0.87993 0)
(1.35044 0.904368 0)
(3 8.69518e-17 0)
(3 -1.25368e-16 0)
(3 -1.8528e-16 0)
(3 -2.30605e-16 0)
(3 -2.15829e-16 0)
(3 2.6472e-16 0)
(3 6.31664e-16 0)
(3 5.27802e-16 0)
(3 3.83874e-16 0)
(3 3.93689e-16 0)
(3 7.19661e-16 0)
(3 8.11579e-16 0)
(3 -1.80031e-08 0)
(3.00188 1.04024e-05 0)
(2.06192 0.58958 0)
(1.05068 0.717046 0)
(0.996663 0.686713 0)
(0.986596 0.690902 0)
(0.995379 0.715008 0)
(1.0185 0.749438 0)
(1.06172 0.78835 0)
(1.13213 0.826717 0)
(1.23625 0.857975 0)
(1.3719 0.871174 0)
(3 4.36596e-17 0)
(3 2.96401e-17 0)
(3 -3.43103e-17 0)
(3 1.12247e-16 0)
(3 2.35626e-16 0)
(3 1.12872e-16 0)
(3 -3.62392e-17 0)
(3 -2.16864e-16 0)
(3 -3.14967e-16 0)
(3 -1.89054e-16 0)
(3 -5.32853e-17 0)
(3 -4.24765e-16 0)
(3 -4.56681e-10 0)
(3 -1.24966e-07 0)
(2.99771 0.183988 0)
(1.29951 0.685931 0)
(1.07363 0.705863 0)
(1.07521 0.711317 0)
(1.07539 0.737621 0)
(1.08757 0.767535 0)
(1.12488 0.799251 0)
(1.19049 0.83072 0)
(1.28018 0.852215 0)
(1.39239 0.859877 0)
(3 -2.46151e-16 0)
(3 1.069e-16 0)
(3 1.11722e-16 0)
(3 4.94099e-16 0)
(3 6.28657e-16 0)
(3 3.8171e-16 0)
(3 5.42731e-16 0)
(3 3.77873e-17 0)
(3 -1.7589e-16 0)
(3 -5.83734e-16 0)
(3 -7.59571e-16 0)
(3 -1.09267e-15 0)
(3 -1.04598e-12 0)
(3 -2.32695e-07 0)
(3.03425 0.00362059 0)
(1.60166 0.654187 0)
(1.09367 0.75387 0)
(1.10022 0.758946 0)
(1.10922 0.777377 0)
(1.1338 0.792932 0)
(1.17317 0.809623 0)
(1.23377 0.826302 0)
(1.31312 0.839393 0)
(1.40875 0.844016 0)
(3 -1.99434e-16 0)
(3 -1.23201e-16 0)
(3 5.25195e-17 0)
(3 1.38589e-16 0)
(3 3.3687e-16 0)
(3 4.99255e-16 0)
(3 6.50894e-16 0)
(3 4.78381e-16 0)
(3 1.50565e-16 0)
(3 -7.72152e-16 0)
(3 -1.32061e-15 0)
(3 -8.74409e-16 0)
(3 -7.02803e-16 0)
(3 -4.80641e-08 0)
(3.00054 1.57233e-05 0)
(2.46064 0.48308 0)
(1.21591 0.786026 0)
(1.12759 0.78682 0)
(1.14335 0.78957 0)
(1.17 0.800858 0)
(1.21019 0.815313 0)
(1.2672 0.829085 0)
(1.34028 0.839293 0)
(1.42302 0.841371 0)
(3 8.3794e-17 0)
(3 -2.42917e-19 0)
(3 2.5268e-17 0)
(3 -2.45019e-17 0)
(3 -4.36107e-16 0)
(3 1.46848e-16 0)
(3 1.99209e-16 0)
(3 4.03059e-16 0)
(3 2.80672e-16 0)
(3 -9.4637e-17 0)
(3 -3.47339e-16 0)
(3 -2.60619e-16 0)
(3 4.22977e-16 0)
(3 -1.01048e-09 0)
(3.00003 -1.06797e-05 0)
(3.06329 0.0588518 0)
(1.5903 0.774069 0)
(1.18237 0.787476 0)
(1.19718 0.794235 0)
(1.21511 0.805699 0)
(1.24985 0.815728 0)
(1.29996 0.825096 0)
(1.36366 0.832038 0)
(1.43689 0.831883 0)
(3 9.31116e-17 0)
(3 -4.75105e-17 0)
(3 2.05407e-17 0)
(3 4.12631e-16 0)
(3 4.06092e-16 0)
(3 2.78116e-16 0)
(3 -3.64155e-16 0)
(3 -6.21742e-16 0)
(3 1.7524e-17 0)
(3 5.49804e-16 0)
(3 4.76482e-16 0)
(3 1.79609e-16 0)
(3 -3.97485e-17 0)
(3 -3.24672e-12 0)
(3 -2.44633e-06 0)
(3.00649 0.00115099 0)
(2.37624 0.603977 0)
(1.28263 0.855767 0)
(1.22702 0.839771 0)
(1.25238 0.834471 0)
(1.28082 0.836369 0)
(1.32572 0.838333 0)
(1.38116 0.839241 0)
(1.44684 0.835285 0)
(3 -5.03421e-17 0)
(3 1.07944e-17 0)
(3 1.62259e-16 0)
(3 2.38172e-16 0)
(3 3.71662e-16 0)
(3 -2.5497e-16 0)
(3 -7.2388e-16 0)
(3 -7.22276e-16 0)
(3 -4.07591e-16 0)
(3 7.89316e-17 0)
(3 1.72755e-16 0)
(3 3.67044e-17 0)
(3 1.07208e-16 0)
(3 2.15282e-13 0)
(3 -2.09753e-07 0)
(3.00002 6.14167e-06 0)
(3.05115 0.0942848 0)
(1.67464 0.828482 0)
(1.27658 0.842464 0)
(1.30342 0.838847 0)
(1.3231 0.838446 0)
(1.36087 0.836131 0)
(1.4074 0.833944 0)
(1.46512 0.829176 0)
(3 -3.0492e-17 0)
(3 2.44428e-16 0)
(3 4.02721e-16 0)
(3 -3.54993e-17 0)
(3 -6.14785e-17 0)
(3 -2.00691e-16 0)
(3 -1.23144e-16 0)
(3 6.5656e-16 0)
(3 3.81988e-16 0)
(3 -1.31037e-17 0)
(3 2.74866e-16 0)
(3 2.58612e-16 0)
(3 3.29709e-16 0)
(3 8.9537e-15 0)
(3 -2.40461e-09 0)
(3 -1.30454e-07 0)
(3.00782 0.00301686 0)
(2.52054 0.587456 0)
(1.38992 0.900399 0)
(1.33515 0.877531 0)
(1.36233 0.865503 0)
(1.39228 0.860274 0)
(1.43119 0.854277 0)
(1.47985 0.84617 0)
(3 -3.66338e-17 0)
(3 6.07829e-17 0)
(3 9.86429e-17 0)
(3 -4.46371e-17 0)
(3 5.67303e-16 0)
(3 1.10068e-15 0)
(3 1.07418e-15 0)
(3 6.96078e-16 0)
(3 4.44193e-16 0)
(3 8.17288e-17 0)
(3 1.14811e-16 0)
(3 7.63987e-17 0)
(3 1.48622e-16 0)
(3 2.85622e-16 0)
(3 -4.98436e-12 0)
(3 -3.28004e-08 0)
(3.00003 2.94313e-05 0)
(3.04972 0.0699918 0)
(1.82509 0.81719 0)
(1.37677 0.891215 0)
(1.41171 0.88163 0)
(1.43723 0.87357 0)
(1.4699 0.862376 0)
(1.50877 0.850865 0)
(3 6.07903e-17 0)
(3 -6.85251e-17 0)
(3 -1.5056e-16 0)
(3 1.17705e-16 0)
(3 3.51468e-16 0)
(3 8.16781e-16 0)
(3 1.41768e-15 0)
(3 8.63926e-16 0)
(3 5.78907e-16 0)
(3 4.41395e-16 0)
(3 3.28715e-16 0)
(3 6.38943e-16 0)
(3 6.17893e-16 0)
(3 3.69907e-16 0)
(3 -2.31122e-15 0)
(3 -3.13389e-09 0)
(3 1.34698e-08 0)
(3.00383 0.00275209 0)
(2.69589 0.451183 0)
(1.56107 0.929773 0)
(1.42786 0.908065 0)
(1.46463 0.901076 0)
(1.49526 0.890308 0)
(1.52937 0.876684 0)
(3 9.43944e-17 0)
(3 -1.29503e-16 0)
(3 -2.51896e-16 0)
(3 -2.50574e-16 0)
(3 1.62587e-17 0)
(3 -1.33779e-16 0)
(3 2.13017e-16 0)
(3 4.28296e-16 0)
(3 5.73383e-16 0)
(3 6.15663e-16 0)
(3 6.32397e-16 0)
(3 6.5602e-16 0)
(3 2.03764e-16 0)
(3 -7.12761e-16 0)
(3 -9.58978e-16 0)
(3 -1.29419e-10 0)
(3 -1.28605e-10 0)
(3.00001 1.94096e-05 0)
(3.02757 0.0356805 0)
(2.10594 0.77386 0)
(1.49111 0.921301 0)
(1.49766 0.913202 0)
(1.52827 0.899262 0)
(1.55907 0.886247 0)
(3 -1.9667e-17 0)
(3 -8.31372e-17 0)
(3 -1.3207e-16 0)
(3 6.25077e-17 0)
(3 4.20794e-17 0)
(3 -3.3932e-16 0)
(3 -7.24758e-16 0)
(3 -6.25541e-16 0)
(3 -2.18326e-16 0)
(3 6.69303e-17 0)
(3 1.26648e-16 0)
(3 -5.17206e-17 0)
(3 1.41741e-17 0)
(3 -1.74007e-16 0)
(3 1.45465e-17 0)
(3 -1.18679e-12 0)
(3 -4.12764e-11 0)
(3 1.04224e-08 0)
(3.00083 0.00143404 0)
(2.89996 0.248264 0)
(1.78907 0.884577 0)
(1.52125 0.932079 0)
(1.55487 0.920628 0)
(1.58795 0.906063 0)
(3 4.10877e-18 0)
(3 4.61778e-16 0)
(3 4.64894e-16 0)
(3 5.41653e-16 0)
(3 -3.88065e-16 0)
(3 -4.51976e-16 0)
(3 -6.86391e-16 0)
(3 -6.83303e-16 0)
(3 -1.07216e-16 0)
(3 2.34884e-16 0)
(3 2.84474e-16 0)
(3 1.59041e-16 0)
(3 1.1152e-15 0)
(3 1.53878e-15 0)
(3 1.71306e-15 0)
(3 -1.917e-15 0)
(3 -5.57081e-12 0)
(3 -4.07395e-12 0)
(3 5.43211e-06 0)
(3.00743 0.0152691 0)
(2.50732 0.576785 0)
(1.6486 0.954361 0)
(1.56245 0.9389 0)
(1.59945 0.927 0)
(3 -1.30705e-17 0)
(3 6.41908e-17 0)
(3 1.90841e-17 0)
(3 -1.24923e-16 0)
(3 -5.01439e-17 0)
(3 6.68019e-17 0)
(3 -8.83367e-17 0)
(3 -1.12886e-16 0)
(3 2.438e-16 0)
(3 5.18525e-16 0)
(3 5.84466e-16 0)
(3 8.7139e-16 0)
(3 1.35814e-15 0)
(3 1.40466e-15 0)
(3 9.49464e-16 0)
(3 1.23576e-16 0)
(3 -1.72296e-13 0)
(3 -1.40169e-12 0)
(3 2.53854e-09 0)
(3.00002 0.00034463 0)
(2.99732 0.07981 0)
(2.13159 0.785226 0)
(1.62353 0.94642 0)
(1.61866 0.942389 0)
(3 2.87059e-17 0)
(3 -3.9397e-16 0)
(3 -8.21529e-16 0)
(3 -8.28858e-16 0)
(3 2.29647e-16 0)
(3 6.78975e-16 0)
(3 6.79564e-16 0)
(3 3.87051e-16 0)
(3 2.55421e-16 0)
(3 7.81868e-17 0)
(3 1.08957e-16 0)
(3 6.77319e-16 0)
(3 5.5742e-16 0)
(3 6.84866e-16 0)
(3 2.2285e-16 0)
(3 -2.94205e-16 0)
(3 -2.0289e-15 0)
(3 -2.37034e-13 0)
(3 3.65903e-13 0)
(3 6.0307e-07 0)
(3.00074 0.00400575 0)
(2.85175 0.275709 0)
(1.91724 0.87682 0)
(1.65624 0.95478 0)
(3 1.15007e-16 0)
(3 1.69183e-16 0)
(3 1.71876e-17 0)
(3 -3.40484e-16 0)
(3 -7.3218e-17 0)
(3 -9.58433e-17 0)
(3 1.06945e-16 0)
(3 2.46485e-16 0)
(3 -3.33591e-16 0)
(3 -4.98665e-16 0)
(3 -6.91428e-17 0)
(3 -1.60487e-16 0)
(3 -5.44861e-16 0)
(3 -1.45974e-16 0)
(3 -8.88605e-17 0)
(3 -4.54203e-16 0)
(3 -6.75455e-16 0)
(3 -1.73194e-14 0)
(3 -1.90538e-14 0)
(3 3.31993e-10 0)
(3 2.69612e-05 0)
(3.00088 0.0201552 0)
(2.58144 0.505893 0)
(1.82733 0.931794 0)
(3 9.35573e-18 0)
(3 -1.16837e-16 0)
(3 -1.36195e-16 0)
(3 -3.37246e-16 0)
(3 -3.85188e-16 0)
(3 -3.84038e-16 0)
(3 -2.35157e-16 0)
(3 -4.55675e-17 0)
(3 -3.28544e-16 0)
(3 -4.13545e-16 0)
(3 -5.42361e-16 0)
(3 -8.14612e-16 0)
(3 -4.92011e-16 0)
(3 2.0256e-17 0)
(3 -2.52472e-17 0)
(3 -4.88704e-16 0)
(3 -4.62691e-16 0)
(3 -9.02561e-16 0)
(3 -7.10757e-15 0)
(3 4.74732e-14 0)
(3 2.40935e-08 0)
(2.99994 0.000464091 0)
(2.98384 0.0627837 0)
(2.34152 0.680079 0)
(3 -1.23529e-16 0)
(3 -3.59892e-16 0)
(3 -4.51357e-17 0)
(3 9.65051e-17 0)
(3 -1.77135e-16 0)
(3 -1.21592e-16 0)
(3 1.15889e-16 0)
(3 3.2446e-16 0)
(3 9.65175e-17 0)
(3 -1.63494e-16 0)
(3 -8.0062e-16 0)
(3 -4.7295e-16 0)
(3 -2.7733e-16 0)
(3 -1.11056e-16 0)
(3 6.32022e-16 0)
(3 1.20802e-15 0)
(3 1.18189e-15 0)
(3 1.21299e-15 0)
(3 3.15897e-16 0)
(3 3.6245e-16 0)
(3 1.10493e-11 0)
(3 9.22987e-07 0)
(2.99973 0.00287565 0)
(2.92282 0.158085 0)
(3 -4.71392e-17 0)
(3 7.32457e-17 0)
(3 2.81194e-16 0)
(3 4.40738e-16 0)
(3 -1.29297e-16 0)
(3 -9.3585e-17 0)
(3 -2.38443e-17 0)
(3 5.84527e-17 0)
(3 3.35304e-16 0)
(3 4.95219e-16 0)
(3 4.23695e-16 0)
(3 9.71121e-16 0)
(3 6.33934e-16 0)
(3 -6.5689e-16 0)
(3 -1.65452e-16 0)
(3 1.08294e-15 0)
(3 1.20858e-15 0)
(3 1.14982e-15 0)
(3 9.87228e-16 0)
(3 7.81653e-16 0)
(3 2.17558e-15 0)
(3 7.74083e-10 0)
(3 1.4106e-05 0)
(2.99857 0.0100668 0)
(3 6.79387e-17 0)
(3 4.71862e-16 0)
(3 1.42501e-16 0)
(3 1.28876e-16 0)
(3 6.26529e-16 0)
(3 1.85186e-16 0)
(3 -3.35323e-16 0)
(3 -7.09285e-16 0)
(3 5.98566e-17 0)
(3 8.41791e-16 0)
(3 1.28637e-15 0)
(3 1.2462e-15 0)
(3 8.71717e-16 0)
(3 1.71582e-16 0)
(3 -6.61952e-17 0)
(3 -3.89718e-17 0)
(3 4.20093e-16 0)
(3 6.86864e-16 0)
(3 4.19082e-16 0)
(3 2.17241e-16 0)
(3 -1.22765e-17 0)
(3 1.30351e-13 0)
(3 1.39689e-08 0)
(2.99996 0.000139398 0)
(3 -1.06689e-17 0)
(3 -3.953e-18 0)
(3 2.03551e-16 0)
(3 3.22848e-16 0)
(3 3.98751e-16 0)
(3 -1.55071e-16 0)
(3 -8.78389e-16 0)
(3 -6.78712e-16 0)
(3 -2.59453e-16 0)
(3 1.73939e-16 0)
(3 5.63116e-16 0)
(3 6.36236e-16 0)
(3 6.11636e-16 0)
(3 7.30951e-16 0)
(3 4.60289e-16 0)
(3 8.71608e-16 0)
(3 1.44787e-15 0)
(3 1.36077e-15 0)
(3 8.82642e-16 0)
(3 9.68484e-17 0)
(3 -2.99972e-16 0)
(3 -7.89646e-16 0)
(3 5.89166e-12 0)
(3 1.74842e-07 0)
(3 -8.46394e-17 0)
(3 -2.90467e-16 0)
(3 -1.25427e-16 0)
(3 -9.62587e-17 0)
(3 -6.75409e-16 0)
(3 -1.11722e-15 0)
(3 -4.22116e-16 0)
(3 1.25349e-17 0)
(3 -6.16984e-16 0)
(3 -8.45349e-16 0)
(3 -6.50678e-16 0)
(3 -3.67211e-16 0)
(3 -1.50544e-16 0)
(3 1.36952e-16 0)
(3 -5.9717e-17 0)
(3 3.3898e-16 0)
(3 9.76553e-16 0)
(3 1.09519e-15 0)
(3 8.65673e-16 0)
(3 2.15482e-16 0)
(3 -4.83645e-16 0)
(3 -1.34291e-15 0)
(3 -4.01654e-16 0)
(3 6.98255e-11 0)
(3 1.46597e-17 0)
(3 1.48511e-16 0)
(3 -8.71995e-17 0)
(3 -5.33325e-16 0)
(3 -1.00548e-15 0)
(3 -8.76175e-16 0)
(3 1.62806e-16 0)
(3 3.86471e-16 0)
(3 2.89111e-16 0)
(3 3.93913e-16 0)
(3 5.85708e-16 0)
(3 8.97119e-17 0)
(3 -6.65242e-16 0)
(3 -6.14203e-16 0)
(3 -1.20609e-16 0)
(3 1.04538e-16 0)
(3 3.5123e-16 0)
(3 1.42001e-15 0)
(3 6.13453e-16 0)
(3 -1.31511e-16 0)
(3 -7.38742e-16 0)
(3 -1.30694e-15 0)
(3 -1.31233e-15 0)
(3 5.76319e-15 0)
(3 2.02837e-17 0)
(3 4.34905e-16 0)
(3 2.48785e-16 0)
(3 -8.83909e-17 0)
(3 -8.93632e-17 0)
(3 4.83415e-16 0)
(3 4.06991e-16 0)
(3 4.29045e-16 0)
(3 8.60407e-16 0)
(3 1.4222e-15 0)
(3 1.2324e-15 0)
(3 8.04181e-16 0)
(3 7.57297e-16 0)
(3 6.08406e-16 0)
(3 6.58416e-16 0)
(3 7.68955e-16 0)
(3 9.33392e-16 0)
(3 9.04008e-16 0)
(3 4.46336e-16 0)
(3 6.48269e-16 0)
(3 6.11054e-16 0)
(3 4.91395e-16 0)
(3 2.59513e-16 0)
(3 6.31421e-16 0)
(3 -9.24982e-17 0)
(3 4.25415e-17 0)
(3 2.55141e-16 0)
(3 6.82094e-16 0)
(3 1.01341e-15 0)
(3 9.95421e-16 0)
(3 9.98171e-16 0)
(3 1.0187e-15 0)
(3 5.41181e-16 0)
(3 6.92606e-16 0)
(3 7.58879e-16 0)
(3 1.60171e-15 0)
(3 2.47768e-15 0)
(3 3.1062e-15 0)
(3 2.57658e-15 0)
(3 1.92318e-15 0)
(3 1.61983e-15 0)
(3 8.97757e-16 0)
(3 4.68667e-16 0)
(3 1.21891e-15 0)
(3 2.10938e-15 0)
(3 2.20105e-15 0)
(3 1.24199e-15 0)
(3 3.49797e-16 0)
(3 -1.25732e-16 0)
(3 -1.51132e-16 0)
(3 -1.35263e-16 0)
(3 6.41635e-16 0)
(3 8.22913e-16 0)
(3 5.89757e-16 0)
(3 5.0654e-16 0)
(3 3.40938e-16 0)
(3 -1.80372e-16 0)
(3 -1.74754e-16 0)
(3 1.01814e-15 0)
(3 1.45133e-15 0)
(3 1.71078e-15 0)
(3 1.9351e-15 0)
(3 1.81685e-15 0)
(3 9.26735e-16 0)
(3 7.4159e-16 0)
(3 7.36675e-16 0)
(3 5.08151e-16 0)
(3 8.14606e-16 0)
(3 8.08522e-16 0)
(3 8.51135e-16 0)
(3 3.10812e-16 0)
(3 -7.05172e-16 0)
(1.52773 1.23287 0)
(2.00441 1.3878 0)
(2.21233 1.655 0)
(2.21483 0.662148 0)
(2.47981 0.276334 0)
(2.59181 0.0583923 0)
(2.57281 -0.212002 0)
(2.54772 -0.296721 0)
(2.50762 -0.259801 0)
(2.46736 -0.317826 0)
(2.46781 -0.365293 0)
(2.43472 -0.300549 0)
(2.40765 -0.179013 0)
(2.39536 -0.101346 0)
(2.36485 -0.0947919 0)
(2.37582 -0.070332 0)
(2.37189 -0.0608992 0)
(2.39448 -0.0523128 0)
(2.39581 -0.0440699 0)
(2.38983 -0.0151353 0)
(2.38392 -0.00905138 0)
(2.38875 -0.0137495 0)
(2.3995 -0.014997 0)
(2.39768 -0.0128133 0)
(2.38786 -0.0070819 0)
(2.37579 -0.00287195 0)
(2.36453 -0.00210377 0)
(2.36569 -0.00855665 0)
(1.97692 0.0248478 0)
(0.881397 0.0406415 0)
(0.699865 0.0167918 0)
(0.69389 -0.000507637 0)
(0.710396 -0.0170935 0)
(0.74492 -0.027277 0)
(0.787401 -0.0315324 0)
(0.829728 -0.0329673 0)
(0.868767 -0.031931 0)
(0.903622 -0.0306065 0)
(0.938419 -0.0305265 0)
(0.975456 -0.0315548 0)
(1.01576 -0.0326317 0)
(1.05852 -0.0322252 0)
(1.09977 -0.0287866 0)
(1.13662 -0.0233646 0)
(1.17107 -0.0191818 0)
(1.20719 -0.0173018 0)
(1.24709 -0.0175631 0)
(1.28633 -0.0197858 0)
(1.31837 -0.0210383 0)
(1.34315 -0.0202064 0)
(1.36535 -0.0146109 0)
(1.38763 -0.00731371 0)
(1.41217 -0.00231448 0)
(1.44505 -0.000356996 0)
(1.48705 -0.00216457 0)
(1.52324 -0.00930191 0)
(1.54598 -0.0132067 0)
(1.56741 -0.0124101 0)
(1.58599 -0.00810636 0)
(1.60495 -0.00368404 0)
(1.62527 -0.00175614 0)
(1.65005 -0.00144665 0)
(1.67617 -0.00279393 0)
(1.69723 -0.00364075 0)
(1.7177 -0.00329672 0)
(1.73697 -0.00120594 0)
(1.7549 0.00184644 0)
(1.77345 0.00353493 0)
(1.79261 0.00374922 0)
(1.81351 0.00319764 0)
(1.83382 0.00128409 0)
(1.85235 6.28226e-05 0)
(1.87031 0.000249725 0)
(1.88434 0.00224066 0)
(1.89502 0.00523776 0)
(1.90721 0.00731708 0)
(1.92311 0.00764643 0)
(1.94089 0.00737317 0)
(1.96183 0.00623016 0)
(1.98271 0.00305543 0)
(2.0015 0.00118313 0)
(2.01891 0.000491676 0)
(2.02807 0.00279046 0)
(2.03419 0.0064559 0)
(2.04621 0.00869233 0)
(2.06251 0.00923483 0)
(2.07942 0.00953025 0)
(2.09865 0.00948047 0)
(2.11764 0.00742081 0)
(2.13338 0.00603969 0)
(2.14791 0.00512212 0)
(2.15266 0.00568048 0)
(2.15243 0.00816019 0)
(2.1629 0.00989925 0)
(2.17748 0.0102734 0)
(2.20237 0.0102231 0)
(1.77313 1.07104 0)
(2.29924 0.791576 0)
(2.5208 0.545396 0)
(2.62515 0.119648 0)
(2.71028 -0.328661 0)
(2.68145 -0.466673 0)
(2.68632 -0.567599 0)
(2.69389 -0.583951 0)
(2.69714 -0.538079 0)
(2.67086 -0.475906 0)
(2.64519 -0.441893 0)
(2.56496 -0.367538 0)
(2.45724 -0.242971 0)
(2.42507 -0.141841 0)
(2.4314 -0.0974877 0)
(2.44701 -0.044003 0)
(2.44454 -0.0142142 0)
(2.45347 -0.0313754 0)
(2.44553 -0.0213549 0)
(2.43023 0.00992932 0)
(2.41403 0.0151395 0)
(2.40327 -0.00038048 0)
(2.41455 -0.0248547 0)
(2.42063 -0.0268872 0)
(2.41546 -0.0237341 0)
(2.40625 -0.0142397 0)
(2.40175 -0.00539007 0)
(2.40611 -0.00430491 0)
(2.1095 0.11033 0)
(0.928655 0.139734 0)
(0.757518 0.0299851 0)
(0.775439 -0.0424015 0)
(0.819719 -0.0601009 0)
(0.859569 -0.0597233 0)
(0.898063 -0.0577428 0)
(0.937555 -0.0563624 0)
(0.97387 -0.0518452 0)
(1.0041 -0.0429025 0)
(1.03058 -0.0353599 0)
(1.0584 -0.0340118 0)
(1.09186 -0.0389795 0)
(1.13268 -0.0458563 0)
(1.17665 -0.0460059 0)
(1.2139 -0.0341935 0)
(1.24192 -0.016831 0)
(1.26681 -0.00386315 0)
(1.29036 -0.00241546 0)
(1.3192 -0.0130709 0)
(1.3545 -0.0306779 0)
(1.38759 -0.0403464 0)
(1.41341 -0.0379205 0)
(1.43511 -0.0249994 0)
(1.4576 -0.00444853 0)
(1.48198 0.0115683 0)
(1.5058 0.0133525 0)
(1.53281 0.00311328 0)
(1.56274 -0.0122037 0)
(1.59039 -0.0210479 0)
(1.61277 -0.0204075 0)
(1.63368 -0.011919 0)
(1.65299 0.000727171 0)
(1.67052 0.0083879 0)
(1.68823 0.0079872 0)
(1.7074 0.00107365 0)
(1.73036 -0.00528986 0)
(1.75202 -0.0056422 0)
(1.77235 -0.00179857 0)
(1.79116 0.00676732 0)
(1.80634 0.014969 0)
(1.82023 0.0171202 0)
(1.83677 0.0139557 0)
(1.85598 0.00698052 0)
(1.87378 -0.000620975 0)
(1.89056 -0.00459067 0)
(1.90784 -0.00236173 0)
(1.92324 0.00735042 0)
(1.93625 0.0183924 0)
(1.9489 0.024489 0)
(1.96465 0.0238844 0)
(1.9822 0.0182821 0)
(2.00047 0.00953776 0)
(2.01669 -0.000563023 0)
(2.03153 -0.00572741 0)
(2.04571 -0.000536161 0)
(2.05915 0.011221 0)
(2.0707 0.0229208 0)
(2.08268 0.0290429 0)
(2.09765 0.0295418 0)
(2.11418 0.0259275 0)
(2.13095 0.0178981 0)
(2.14581 0.00794712 0)
(2.15776 0.00246279 0)
(2.16543 0.00850704 0)
(2.17236 0.020485 0)
(2.1799 0.0296702 0)
(2.20065 0.0300268 0)
(1.67386 1.02797 0)
(2.03387 0.900331 0)
(2.34896 0.627909 0)
(2.5263 0.333799 0)
(2.61898 0.103486 0)
(2.67552 -0.0039583 0)
(2.67261 -0.0663651 0)
(2.6887 -0.228976 0)
(2.73407 -0.30975 0)
(2.77403 -0.420102 0)
(2.79755 -0.464654 0)
(2.78653 -0.489864 0)
(2.67901 -0.437372 0)
(2.61732 -0.343285 0)
(2.62839 -0.293902 0)
(2.63739 -0.229418 0)
(2.62095 -0.13753 0)
(2.58989 -0.124316 0)
(2.54475 -0.105434 0)
(2.50862 -0.0391319 0)
(2.48693 -0.014444 0)
(2.46921 -0.0173091 0)
(2.47273 -0.0109127 0)
(2.47056 0.00311978 0)
(2.46901 0.00870769 0)
(2.46953 -0.00014263 0)
(2.47312 -0.0143037 0)
(2.47453 -0.0164017 0)
(2.42698 0.00751578 0)
(1.18515 0.135766 0)
(0.949978 0.0139774 0)
(1.00712 -0.0747717 0)
(1.06851 -0.0901493 0)
(1.10079 -0.0722373 0)
(1.12442 -0.0681048 0)
(1.15221 -0.071732 0)
(1.182 -0.0822115 0)
(1.21176 -0.0860096 0)
(1.23189 -0.0801666 0)
(1.24789 -0.0718742 0)
(1.26494 -0.0661269 0)
(1.2874 -0.0663826 0)
(1.32004 -0.072383 0)
(1.35661 -0.0766753 0)
(1.38398 -0.071591 0)
(1.4038 -0.058955 0)
(1.41828 -0.0382944 0)
(1.43235 -0.0227661 0)
(1.45043 -0.0213236 0)
(1.47331 -0.0313338 0)
(1.5023 -0.0422804 0)
(1.52766 -0.0430904 0)
(1.54814 -0.0361526 0)
(1.56714 -0.0237856 0)
(1.58137 -0.00787923 0)
(1.59653 0.00269767 0)
(1.61611 0.00268494 0)
(1.63809 -0.00636234 0)
(1.66579 -0.016095 0)
(1.69025 -0.0193521 0)
(1.70934 -0.0184303 0)
(1.72744 -0.0129773 0)
(1.74037 -0.00318703 0)
(1.75208 0.00385437 0)
(1.76881 0.00379936 0)
(1.78793 -0.000793107 0)
(1.80947 -0.0041577 0)
(1.82805 -0.00328182 0)
(1.8461 0.00330915 0)
(1.85866 0.0165324 0)
(1.8638 0.0286334 0)
(1.87246 0.0286791 0)
(1.88815 0.0235744 0)
(1.90763 0.015644 0)
(1.93067 0.00994979 0)
(1.94853 0.0097971 0)
(1.96567 0.0143018 0)
(1.97977 0.0242632 0)
(1.98677 0.0333643 0)
(1.99311 0.033409 0)
(2.0055 0.0260088 0)
(2.02125 0.0192093 0)
(2.0401 0.0139986 0)
(2.0608 0.0114467 0)
(2.07832 0.0141895 0)
(2.09427 0.0245708 0)
(2.10519 0.0381552 0)
(2.11072 0.0463309 0)
(2.11873 0.0435045 0)
(2.1309 0.0353191 0)
(2.14489 0.0268635 0)
(2.16061 0.0205763 0)
(2.17578 0.0185914 0)
(2.19082 0.023507 0)
(2.20063 0.0374175 0)
(2.21164 0.0454509 0)
(1.6058 0.977014 0)
(1.89747 0.870524 0)
(2.11172 0.758401 0)
(2.32702 0.548428 0)
(2.48981 0.291127 0)
(2.57435 0.114695 0)
(2.63345 0.0357118 0)
(2.6559 -0.0832929 0)
(2.71138 -0.244886 0)
(2.74302 -0.368776 0)
(2.75025 -0.447578 0)
(2.78906 -0.49945 0)
(2.80998 -0.487198 0)
(2.76646 -0.448439 0)
(2.74289 -0.429537 0)
(2.71783 -0.399963 0)
(2.70225 -0.33537 0)
(2.68411 -0.289847 0)
(2.6492 -0.259002 0)
(2.60815 -0.172343 0)
(2.59051 -0.107611 0)
(2.57547 -0.093547 0)
(2.54147 -0.0748758 0)
(2.51684 -0.0362821 0)
(2.51565 -0.0123978 0)
(2.52277 0.0104411 0)
(2.53044 0.0207778 0)
(2.52331 -0.00872839 0)
(2.43229 -0.195479 0)
(1.72443 -0.0554757 0)
(1.21228 0.0117219 0)
(1.25147 -0.0432005 0)
(1.33187 -0.119606 0)
(1.35939 -0.119029 0)
(1.36245 -0.0973482 0)
(1.37242 -0.0743951 0)
(1.38815 -0.0676332 0)
(1.41362 -0.0720534 0)
(1.4366 -0.0760529 0)
(1.44975 -0.0724686 0)
(1.45697 -0.0608504 0)
(1.46651 -0.0485687 0)
(1.48202 -0.044417 0)
(1.50609 -0.0479265 0)
(1.53132 -0.0557326 0)
(1.54925 -0.0585086 0)
(1.5648 -0.0544112 0)
(1.57432 -0.0390778 0)
(1.58001 -0.0180082 0)
(1.59318 -0.00491582 0)
(1.61129 -0.00188319 0)
(1.63446 -0.00726579 0)
(1.65433 -0.0163779 0)
(1.67082 -0.0233366 0)
(1.68606 -0.025239 0)
(1.6972 -0.0175841 0)
(1.70583 -0.00332242 0)
(1.72158 0.00580586 0)
(1.74069 0.00847481 0)
(1.76299 0.00489614 0)
(1.78205 -0.000636357 0)
(1.79889 -0.00395741 0)
(1.81467 -0.00343494 0)
(1.82611 0.00456984 0)
(1.83374 0.015229 0)
(1.84735 0.0197083 0)
(1.86419 0.0183356 0)
(1.88159 0.0121624 0)
(1.89734 0.00654329 0)
(1.91082 0.0042984 0)
(1.91903 0.00920915 0)
(1.92215 0.0217392 0)
(1.93226 0.032053 0)
(1.94819 0.0354682 0)
(1.96555 0.0342937 0)
(1.98513 0.0281877 0)
(2.00143 0.023356 0)
(2.01596 0.0204382 0)
(2.02428 0.0203408 0)
(2.02569 0.0247452 0)
(2.03216 0.0297059 0)
(2.04816 0.0325487 0)
(2.06481 0.0347723 0)
(2.08427 0.0351614 0)
(2.10311 0.0348305 0)
(2.12024 0.0351486 0)
(2.13524 0.0384285 0)
(2.14127 0.0463076 0)
(2.13862 0.0527709 0)
(2.14377 0.0513852 0)
(2.15799 0.0490608 0)
(2.17263 0.0466852 0)
(2.19097 0.0433055 0)
(2.20762 0.0419273 0)
(2.22205 0.0443864 0)
(2.23699 0.0512938 0)
(1.55612 0.930801 0)
(1.79643 0.849618 0)
(2.00701 0.723675 0)
(2.15254 0.636457 0)
(2.29568 0.488761 0)
(2.44072 0.293147 0)
(2.52172 0.141498 0)
(2.57942 0.0612889 0)
(2.58486 0.016461 0)
(2.62215 -0.0945146 0)
(2.67231 -0.209142 0)
(2.69151 -0.293052 0)
(2.73377 -0.325135 0)
(2.76329 -0.321964 0)
(2.7455 -0.380162 0)
(2.7196 -0.416399 0)
(2.71692 -0.409841 0)
(2.71597 -0.401102 0)
(2.70185 -0.380314 0)
(2.6767 -0.324269 0)
(2.66617 -0.247101 0)
(2.65469 -0.198854 0)
(2.61222 -0.158938 0)
(2.5696 -0.1077 0)
(2.56427 -0.0797786 0)
(2.57451 -0.025301 0)
(2.56554 -0.0317894 0)
(2.49758 -0.130994 0)
(2.20251 -0.42742 0)
(2.04115 -0.510352 0)
(1.47348 -0.209649 0)
(1.39355 -0.0888863 0)
(1.46785 -0.0678093 0)
(1.50665 -0.084358 0)
(1.51677 -0.0882991 0)
(1.51487 -0.0813697 0)
(1.51965 -0.0756945 0)
(1.53447 -0.0744446 0)
(1.56044 -0.0798344 0)
(1.57793 -0.082018 0)
(1.58891 -0.0776836 0)
(1.59471 -0.0668359 0)
(1.60052 -0.0563471 0)
(1.61377 -0.0540215 0)
(1.6297 -0.0553998 0)
(1.64832 -0.0564731 0)
(1.66428 -0.0539915 0)
(1.67757 -0.0462006 0)
(1.68747 -0.0318607 0)
(1.69389 -0.0165338 0)
(1.70548 -0.0100167 0)
(1.72235 -0.0117055 0)
(1.73857 -0.0178722 0)
(1.75353 -0.0221912 0)
(1.76817 -0.0228547 0)
(1.78158 -0.0187797 0)
(1.79184 -0.00719337 0)
(1.80108 0.00596586 0)
(1.8159 0.011354 0)
(1.83318 0.0112455 0)
(1.84954 0.00840149 0)
(1.86486 0.00527728 0)
(1.87965 0.0038316 0)
(1.89354 0.00542786 0)
(1.90435 0.0127205 0)
(1.91193 0.0212993 0)
(1.92249 0.0240091 0)
(1.93626 0.0233647 0)
(1.95037 0.0217366 0)
(1.96358 0.0200737 0)
(1.97494 0.0210624 0)
(1.98323 0.0287659 0)
(1.98863 0.0413996 0)
(1.99669 0.0491647 0)
(2.0114 0.0501034 0)
(2.02772 0.0478845 0)
(2.04301 0.041764 0)
(2.05579 0.0333368 0)
(2.06501 0.0264695 0)
(2.0719 0.0265127 0)
(2.07922 0.0347204 0)
(2.08908 0.0446398 0)
(2.10295 0.0509587 0)
(2.11863 0.0536839 0)
(2.13517 0.0538113 0)
(2.151 0.0512714 0)
(2.16381 0.0464842 0)
(2.17134 0.0434092 0)
(2.17314 0.04743 0)
(2.17552 0.0571641 0)
(2.18624 0.0634796 0)
(2.20055 0.0652004 0)
(2.2152 0.0646028 0)
(2.23064 0.0606083 0)
(2.24317 0.0563124 0)