/*--------------------------------*- C++ -*----------------------------------*\
  =========                 |
  \\      /  F ield         | OpenFOAM: The Open Source CFD Toolbox
   \\    /   O peration     | Website:  https://openfoam.org
    \\  /    A nd           | Version:  7
     \\/     M anipulation  |
\*---------------------------------------------------------------------------*/
FoamFile
{
    version     2.0;
    format      ascii;
    class       volScalarField;
    location    "3.6";
    object      p;
}
// * * * * * * * * * * * * * * * * * * * * * * * * * * * * * * * * * * * * * //

dimensions      [1 -1 -2 0 0 0 0];

internalField   nonuniform List<scalar> 
16128
(
1
1
1
1
1
1
1
1
1
1
1
1
1
1
1
1
1
1
1
1
1
1
1
1
4.42431
10.1365
10.5353
10.619
10.7385
10.8444
10.9486
11.0481
11.1431
11.2337
11.3193
11.3999
11.4774
11.5517
11.621
11.6857
11.7468
11.8038
11.8561
11.9032
11.944
11.9762
11.9999
12.0165
1
1
1
1
1
1
1
1
1
1
1
1
1
1
1
1
1
1
1
1
1
1
1
1
4.35352
10.0938
10.5281
10.6145
10.7335
10.8395
10.9435
11.0428
11.1375
11.2278
11.3129
11.3929
11.4697
11.5434
11.6121
11.6761
11.7363
11.7923
11.8436
11.8898
11.93
11.9618
11.9854
12.002
1
1
1
1
1
1
1
1
1
1
1
1
1
1
1
1
1
1
1
1
1
1
1
1
4.19286
10.0386
10.5111
10.6009
10.7203
10.8272
10.9317
11.0311
11.1258
11.2161
11.301
11.3807
11.4571
11.5303
11.5984
11.6619
11.7212
11.7758
11.8255
11.87
11.9085
11.9389
11.9614
11.9774
1
1
1
1
1
1
1
1
1
1
1
1
1
1
1
1
1
1
1
1
1
1
1
1
3.95942
9.95045
10.4922
10.5845
10.7036
10.8105
10.9145
11.0133
11.1073
11.1971
11.2812
11.3602
11.4357
11.5081
11.5753
11.6378
11.6961
11.7494
11.7977
11.8407
11.8777
11.9069
11.9281
11.9433
1
1
1
1
1
1
1
1
1
1
1
1
1
1
1
1
1
1
1
1
1
1
1
1
3.65866
9.82004
10.4701
10.5645
10.6833
10.79
10.8933
10.9914
11.0844
11.1734
11.2567
11.3346
11.4088
11.4799
11.5458
11.6068
11.6636
11.7152
11.7617
11.8027
11.8377
11.8653
11.8849
11.8994
1
1
1
1
1
1
1
1
1
1
1
1
1
1
1
1
1
1
1
1
1
1
1
1
3.29396
9.63473
10.4451
10.5407
10.6588
10.7644
10.8664
10.9632
11.0548
11.1425
11.2246
11.3013
11.374
11.4437
11.508
11.5675
11.6228
11.6728
11.7173
11.756
11.7883
11.8136
11.8308
11.8441
1
1
1
1
1
1
1
1
1
1
1
1
1
1
1
1
1
1
1
1
1
1
1
1
2.87377
9.37012
10.4234
10.5138
10.631
10.7344
10.8342
10.9288
11.0181
11.1033
11.1834
11.2581
11.3289
11.3966
11.459
11.5166
11.57
11.6181
11.6607
11.6973
11.7276
11.7514
11.7667
11.7794
1
1
1
1
1
1
1
1
1
1
1
1
1
1
1
1
1
1
1
1
1
1
1
1
2.42749
9.01113
10.4204
10.4911
10.607
10.7065
10.8029
10.8939
10.9796
11.061
11.1381
11.2095
11.2771
11.3415
11.4011
11.4559
11.5068
11.5526
11.593
11.6271
11.6545
11.6756
11.6883
11.6994
1
1
1
1
1
1
1
1
1
1
1
1
1
1
1
1
1
1
1
1
1
1
1
1
1.96307
8.52596
10.4236
10.4727
10.5819
10.6733
10.7659
10.854
10.9371
11.0148
11.0887
11.1567
11.2203
11.28
11.335
11.385
11.4311
11.4724
11.5087
11.5394
11.5643
11.5839
11.5955
11.6068
1
1
1
1
1
1
1
1
1
1
1
1
1
1
1
1
1
1
1
1
1
1
1
1
1.51993
7.94606
10.4491
10.4308
10.5409
10.6296
10.7212
10.8064
10.8865
10.9614
11.0322
11.0969
11.1567
11.2111
11.2605
11.3046
11.3448
11.3811
11.4129
11.4391
11.4588
11.4728
11.4797
11.4872
1
1
1
1
1
1
1
1
1
1
1
1
1
1
1
1
1
1
1
1
1
1
1
1
1.13756
7.21364
10.4327
10.396
10.4907
10.57
10.6569
10.7419
10.8224
10.8953
10.9631
11.0251
11.0815
11.131
11.1748
11.2123
11.245
11.273
11.2952
11.3122
11.3248
11.3341
11.339
11.348
1
1
1
1
1
1
1
1
1
1
1
1
1
1
1
1
1
1
1
1
1
1
1
1
1.00436
6.33286
10.219
10.2866
10.4009
10.4948
10.5857
10.6681
10.7424
10.8168
10.8833
10.9427
10.9955
11.0401
11.0775
11.1074
11.1306
11.1486
11.1614
11.1701
11.1737
11.1694
11.1592
11.1526
1
1
1
1
1
1
1
1
1
1
1
1
1
1
1
1
1
1
1
1
1
1
1
1
1.00001
5.34627
10.0235
10.2147
10.3272
10.4255
10.5155
10.5955
10.6716
10.7322
10.7912
10.8459
10.8941
10.9335
10.9643
10.9858
10.9994
11.0057
11.0016
10.9895
10.9681
10.9446
10.9193
10.9202
1
1
1
1
1
1
1
1
1
1
1
1
1
1
1
1
1
1
1
1
1
1
1
1
1
4.28201
9.67016
10.146
10.268
10.3691
10.4508
10.5179
10.5761
10.6337
10.6868
10.7336
10.7753
10.8095
10.8334
10.8462
10.848
10.8368
10.8127
10.7807
10.739
10.6943
10.626
10.5496
1
1
1
1
1
1
1
1
1
1
1
1
1
1
1
1
1
1
1
1
1
1
1
1
1
3.22199
9.18655
10.0893
10.2148
10.3195
10.3956
10.4529
10.4996
10.5421
10.5811
10.6181
10.6492
10.6743
10.6886
10.6893
10.6759
10.6462
10.5987
10.5331
10.4343
10.2949
10.1494
10.0419
1
1
1
1
1
1
1
1
1
1
1
1
1
1
1
1
1
1
1
1
1
1
1
1
1
2.13164
8.39973
10.1781
10.2034
10.2714
10.3262
10.374
10.4151
10.4501
10.4804
10.5029
10.5194
10.5313
10.5309
10.5164
10.4842
10.4308
10.3484
10.2317
10.0702
9.86798
9.65332
9.55721
1
1
1
1
1
1
1
1
1
1
1
1
1
1
1
1
1
1
1
1
1
1
1
1
1
1.22824
7.49388
10.2771
10.1453
10.1764
10.2377
10.2874
10.3265
10.3543
10.3749
10.3873
10.391
10.3861
10.3684
10.3353
10.2797
10.1974
10.0776
9.91378
9.67256
9.28718
8.42713
6.48077
1
1
1
1
1
1
1
1
1
1
1
1
1
1
1
1
1
1
1
1
1
1
1
1
1
1.00608
6.2315
9.94521
9.96748
10.0597
10.1272
10.1841
10.2248
10.2496
10.2637
10.2668
10.2579
10.236
10.2003
10.1468
10.066
9.95232
9.79104
9.56142
9.21836
8.62273
7.68897
5.50273
1
1
1
1
1
1
1
1
1
1
1
1
1
1
1
1
1
1
1
1
1
1
1
1
1
0.999966
4.68416
9.53466
9.89276
9.99276
10.038
10.0817
10.12
10.1397
10.1473
10.1422
10.121
10.084
10.0298
9.95532
9.85054
9.7048
9.50267
9.2125
8.79371
8.13503
7.06579
5.14682
1
1
1
1
1
1
1
1
1
1
1
1
1
1
1
1
1
1
1
1
1
1
1
1
1
0.999991
3.16549
8.93435
9.86026
9.92474
9.97245
9.99794
10.0205
10.0292
10.0278
10.0136
9.98158
9.93099
9.85835
9.76225
9.63427
9.46047
9.22283
8.88941
8.41139
7.7454
6.63194
5.13698
1
1
1
1
1
1
1
1
1
1
1
1
1
1
1
1
1
1
1
1
1
1
1
1
1
0.999999
1.81686
8.09176
9.89783
9.85217
9.88999
9.91621
9.92967
9.92697
9.91269
9.88612
9.84182
9.77799
9.68893
9.57325
9.423
9.22595
8.9616
8.60353
8.10319
7.43433
6.39489
5.21469
1
1
1
1
1
1
1
1
1
1
1
1
1
1
1
1
1
1
1
1
1
1
1
1
1
1
1.07735
6.66001
9.8373
9.77439
9.78279
9.81715
9.82704
9.81774
9.79394
9.75672
9.70157
9.62613
9.52373
9.39136
9.22183
9.00524
8.72264
8.35211
7.85766
7.20265
6.29143
5.33616
1
1
1
1
1
1
1
1
1
1
1
1
1
1
1
1
1
1
1
1
1
1
1
1
1
1
1.00035
4.84207
9.29284
9.62318
9.69703
9.72375
9.72216
9.70634
9.67463
9.62806
9.56336
9.47655
9.36289
9.21734
9.03329
8.80264
8.51007
8.13591
7.65957
7.0401
6.25947
5.46312
1
1
1
1
1
1
1
1
1
1
1
1
1
1
1
1
1
1
1
1
1
1
1
1
1
1
0.999995
2.88426
8.6506
9.61914
9.61886
9.64007
9.635
9.60882
9.56579
9.5073
9.43159
9.33389
9.20977
9.05398
8.85956
8.61988
8.32324
7.95275
7.4998
6.9238
6.25907
5.56872
1
1
1
1
1
1
1
1
1
1
1
1
1
1
1
1
1
1
1
1
1
1
1
1
1
1
0.999999
1.35663
7.57866
9.72079
9.57584
9.53105
9.52308
9.49366
9.4468
9.3822
9.29888
9.19424
9.06275
8.89942
8.69904
8.45574
8.16131
7.79918
7.36565
6.83948
6.2667
5.65344
1
1
1
1
1
1
1
1
1
1
1
1
1
1
1
1
1
1
1
1
1
1
1
1
1
1
1
1.01278
5.8077
9.24812
9.3711
9.42356
9.41615
9.37932
9.32884
9.25998
9.17145
9.06048
8.92377
8.75583
8.55171
8.30821
8.01972
7.67057
7.25376
6.77692
6.2739
5.71954
1
1
1
1
1
1
1
1
1
1
1
1
1
1
1
1
1
1
1
1
1
1
1
1
1
1
1
0.999909
3.48655
8.6915
9.32498
9.33815
9.33084
9.2931
9.23425
9.15465
9.05616
8.9369
8.7936
8.62353
8.41882
8.17925
7.89375
7.55868
7.16602
6.73607
6.28245
5.78137
1
1
1
1
1
1
1
1
1
1
1
1
1
1
1
1
1
1
1
1
1
1
1
1
1
1
1
0.999977
1.57006
7.77992
9.45996
9.29438
9.22636
9.18348
9.12122
9.03883
8.93757
8.81514
8.66893
8.49849
8.29482
8.06311
7.77847
7.4591
7.09494
6.70786
6.28674
5.83114
1
1
1
1
1
1
1
1
1
1
1
1
1
1
1
1
1
1
1
1
1
1
1
1
1
1
1
0.999996
1.0309
5.9479
9.03004
9.0903
9.11097
9.07733
9.0133
8.93012
8.82655
8.70226
8.55457
8.38516
8.18782
7.95652
7.68153
7.37767
7.03865
6.68601
6.29468
5.88109
1
1
1
1
1
1
1
1
1
1
1
1
1
1
1
1
1
1
1
1
1
1
1
1
1
1
1
1
0.999919
3.33756
8.41604
9.05257
9.03849
8.99659
8.93248
8.84299
8.73214
8.6017
8.45183
8.28001
8.08602
7.85849
7.59811
7.30927
6.99158
6.66247
6.30043
5.92021
1
1
1
1
1
1
1
1
1
1
1
1
1
1
1
1
1
1
1
1
1
1
1
1
1
1
1
1
0.999976
1.37723
7.317
9.19371
9.00745
8.90669
8.83172
8.73936
8.62988
8.50268
8.35532
8.18571
7.99165
7.77323
7.52804
7.25459
6.95624
6.64473
6.31069
5.955
1
1
1
1
1
1
1
1
1
1
1
1
1
1
1
1
1
1
1
1
1
1
1
1
1
1
1
1
0.999996
1.01278
5.2201
8.6893
8.78381
8.7847
8.7254
8.63734
8.53327
8.41092
8.26726
8.10134
7.91014
7.69679
7.46256
7.20426
6.92413
6.62861
6.31759
5.98349
1
1
1
1
1
1
1
1
1
1
1
1
1
1
1
1
1
1
1
1
1
1
1
1
1
1
1
1
1
0.999928
2.51064
8.00839
8.77357
8.7327
8.65938
8.56955
8.46489
8.34183
8.19711
8.03054
7.84136
7.63168
7.40447
7.15931
6.8948
6.61518
6.32367
6.01161
1
1
1
1
1
1
1
1
1
1
1
1
1
1
1
1
1
1
1
1
1
1
1
1
1
1
1
1
1
0.999981
1.17145
6.27963
8.74236
8.65958
8.58073
8.48942
8.38751
8.26633
8.12223
7.95769
7.77364
7.5719
7.3538
7.11976
6.86647
6.60086
6.32599
6.03632
1
1
1
1
1
1
1
1
1
1
1
1
1
1
1
1
1
1
1
1
1
1
1
1
1
1
1
1
1
0.999997
1.00208
3.5112
8.09473
8.52199
8.48087
8.41684
8.32362
8.20314
8.05835
7.89581
7.71679
7.52203
7.31169
7.08516
6.84158
6.58951
6.32951
6.05916
1
1
1
1
1
1
1
1
1
1
1
1
1
1
1
1
1
1
1
1
1
1
1
1
1
1
1
1
1
1
0.999993
1.41007
6.79002
8.62281
8.47366
8.38334
8.27507
8.14459
7.99715
7.83629
7.66189
7.47381
7.27115
7.05295
6.82003
6.57926
6.33233
6.07751
1
1
1
1
1
1
1
1
1
1
1
1
1
1
1
1
1
1
1
1
1
1
1
1
1
1
1
1
1
1
0.999998
1.01366
4.25402
8.12879
8.3206
8.2855
8.1945
8.07269
7.93259
7.77785
7.60998
7.42897
7.23375
7.02389
6.80161
6.57165
6.33574
6.09274
1
1
1
1
1
1
1
1
1
1
1
1
1
1
1
1
1
1
1
1
1
1
1
1
1
1
1
1
1
1
1
1
1.65643
7.01688
8.44376
8.28446
8.16209
8.03251
7.8904
7.73632
7.57011
7.39093
7.19889
6.99545
6.78281
6.56383
6.33833
6.106
1
1
1
1
1
1
1
1
1
1
1
1
1
1
1
1
1
1
1
1
1
1
1
1
1
1
1
1
1
1
1
1
1.03417
4.65761
8.05886
8.14923
8.0718
7.96305
7.83363
7.68658
7.52432
7.34889
7.16265
6.96755
6.76469
6.55623
6.3414
6.1197
1
1
1
1
1
1
1
1
1
1
1
1
1
1
1
1
1
1
1
1
1
1
1
1
1
1
1
1
1
1
1
1
1.00009
1.82993
7.02211
8.23403
8.06675
7.9355
7.8016
7.6536
7.49335
7.32202
7.14148
6.95254
6.75566
6.55354
6.34609
6.1331
1
1
1
1
1
1
1
1
1
1
1
1
1
1
1
1
1
1
1
1
1
1
1
1
1
1
1
1
1
1
1
1
1
1.05243
4.74119
7.91085
7.95801
7.86954
7.75064
7.61073
7.45541
7.28776
7.11174
6.92814
6.73753
6.54424
6.34614
6.14263
1
1
1
1
1
1
1
1
1
1
1
1
1
1
1
1
1
1
1
1
1
1
1
1
1
1
1
1
1
1
1
1
1
1.00025
1.88383
6.81911
7.99609
7.85209
7.72366
7.58117
7.42526
7.26026
7.09002
6.91425
6.73177
6.54744
6.35825
6.16109
1
1
1
1
1
1
1
1
1
1
1
1
1
1
1
1
1
1
1
1
1
1
1
1
1
1
1
1
1
1
1
1
1
1
1.05814
4.47037
7.70438
7.78484
7.67158
7.53743
7.38796
7.2315
7.0693
6.90207
6.72736
6.54885
6.36702
6.17622
1
1
1
1
1
1
1
1
1
1
1
1
1
1
1
1
1
1
1
1
1
1
1
1
1
1
1
1
1
1
1
1
1
1
1.00039
1.77669
6.46598
7.79499
7.64983
7.51541
7.36577
7.21344
7.05718
6.89725
6.73008
6.55661
6.38003
6.19585
1
1
1
1
1
1
1
1
1
1
1
1
1
1
1
1
1
1
1
1
1
1
1
1
1
1
1
1
1
1
1
1
1
1
1
1.04513
3.87445
7.41755
7.59616
7.46954
7.33238
7.19285
7.04796
6.89537
6.73398
6.56422
6.38989
6.21039
1
1
1
1
1
1
1
1
1
1
1
1
1
1
1
1
1
1
1
1
1
1
1
1
1
1
1
1
1
1
1
1
1
1
1
1.00033
1.54581
5.9357
7.61928
7.46706
7.33966
7.20251
7.05577
6.89913
6.73647
6.56901
6.39821
6.22402
1
1
1
1
1
1
1
1
1
1
1
1
1
1
1
1
1
1
1
1
1
1
1
1
1
1
1
1
1
1
1
1
1
1
1
1
1.02329
3.01983
6.94023
7.44255
7.31895
7.18618
7.03829
6.88469
6.72696
6.56694
6.40482
6.23769
1
1
1
1
1
1
1
1
1
1
1
1
1
1
1
1
1
1
1
1
1
1
1
1
1
1
1
1
1
1
1
1
1
1
1
1
1.00017
1.28125
5.14001
7.46174
7.33167
7.18935
7.03533
6.88692
6.73479
6.57835
6.41998
6.25735
1
1
1
1
1
1
1
1
1
1
1
1
1
1
1
1
1
1
1
1
1
1
1
1
1
1
1
1
1
1
1
1
1
1
1
1
1
1.00696
2.26284
6.44192
7.29464
7.14383
7.01416
6.87428
6.72846
6.57643
6.42045
6.26476
1
1
1
1
1
1
1
1
1
1
1
1
1
1
1
1
1
1
1
1
1
1
1
1
1
1
1
1
1
1
1
1
1
1
1
1
1
1.00004
1.11288
4.00471
7.04962
7.16196
7.0342
6.89495
6.74851
6.59789
6.44375
6.28946
1
1
1
1
1
1
1
1
1
1
1
1
1
1
1
1
1
1
1
1
1
1
1
1
1
1
1
1
1
1
1
1
1
1
1
1
1
1
1.00166
1.61818
5.56976
7.18079
7.0329
6.88999
6.74546
6.59962
6.45254
6.30375
1
1
1
1
1
1
1
1
1
1
1
1
1
1
1
1
1
1
1
1
1
1
1
1
1
1
1
1
1
1
1
1
1
1
1
1
1
1
1.00001
1.02999
2.7338
6.47087
7.01843
6.88543
6.75002
6.61224
6.46925
6.32278
1
1
1
1
1
1
1
1
1
1
1
1
1
1
1
1
1
1
1
1
1
1
1
1
1
1
1
1
1
1
1
1
1
1
1
1
1
1
1
1.00029
1.20753
4.31552
6.8513
6.91448
6.78177
6.64089
6.49631
6.34808
1
1
1
1
1
1
1
1
1
1
1
1
1
1
1
1
1
1
1
1
1
1
1
1
1
1
1
1
1
1
1
1
1
1
1
1
1
1
1
1
1.00462
1.78188
5.52746
6.88733
6.78505
6.64321
6.50371
6.36287
1
1
1
1
1
1
1
1
1
1
1
1
1
1
1
1
1
1
1
1
1
1
1
1
1
1
1
1
1
1
1
1
1
1
1
1
1
1
1
1
1.00003
1.04668
2.79784
6.25895
6.7785
6.66033
6.51823
6.38222
1
1
1
1
1
1
1
1
1
1
1
1
1
1
1
1
1
1
1
1
1
1
1
1
1
1
1
1
1
1
1
1
1
1
1
1
1
1
1
1
1
1.00056
1.22591
4.11555
6.54259
6.68639
6.5564
6.41317
1
1
1
1
1
1
1
1
1
1
1
1
1
1
1
1
1
1
1
1
1
1
1
1
1
1
1
1
1
1
1
1
1
1
1
1
1
1
1
1
1
1
1.00567
1.70066
5.15221
6.62753
6.57777
6.43704
1
1
1
1
1
1
1
1
1
1
1
1
1
1
1
1
1
1
1
1
1
1
1
1
1
1
1
1
1
1
1
1
1
1
1
1
1
1
1
1
1
1
1.00004
1.03901
2.49102
5.84333
6.55495
6.46061
1
1
1
1
1
1
1
1
1
1
1
1
1
1
1
1
1
1
1
1
1
1
1
1
1
1
1
1
1
1
1
1
1
1
1
1
1
1
1
1
1
1
1
1.00047
1.1607
3.50461
6.2011
6.49363
1
1
1
1
1
1
1
1
1
1
1
1
1
1
1
1
1
1
1
1
1
1
1
1
1
1
1
1
1
1
1
1
1
1
1
1
1
1
1
1
1
1
1
1
1.00348
1.45365
4.49299
6.32098
1
1
1
1
1
1
1
1
1
1
1
1
1
1
1
1
1
1
1
1
1
1
1
1
1
1
1
1
1
1
1
1
1
1
1
1
1
1
1
1
1
1
1
1
1.00002
1.01892
1.97625
5.19473
1
1
1
1
1
1
1
1
1
1
1
1
1
1
1
1
1
1
1
1
1
1
1
1
1
1
1
1
1
1
1
1
1
1
1
1
1
1
1
1
1
1
1
1
1
1.00019
1.07367
2.68085
1
1
1
1
1
1
1
1
1
1
1
1
1
1
1
1
1
1
1
1
1
1
1
1
1
1
1
1
1
1
1
1
1
1
1
1
1
1
1
1
1
1
1
1
1
1
1.00121
1.20839
1
1
1
1
1
1
1
1
1
1
1
1
1
1
1
1
1
1
1
1
1
1
1
1
1
1
1
1
1
1
1
1
1
1
1
1
1
1
1
1
1
1
1
1
1
1
1.00001
1.00524
1
1
1
1
1
1
1
1
1
1
1
1
1
1
1
1
1
1
1
1
1
1
1
1
1
1
1
1
1
1
1
1
1
1
1
1
1
1
1
1
1
1
1
1
1
1
1
1.00003
1
1
1
1
1
1
1
1
1
1
1
1
1
1
1
1
1
1
1
1
1
1
1
1
1
1
1
1
1
1
1
1
1
1
1
1
1
1
1
1
1
1
1
1
1
1
1
1
1
1
1
1
1
1
1
1
1
1
1
1
1
1
1
1
1
1
1
1
1
1
1
1
1
1
1
1
1
1
1
1
1
1
1
1
1
1
1
1
1
1
1
1
1
1
1
1
1
1
1
1
1
1
1
1
1
1
1
1
1
1
1
1
1
1
1
1
1
1
1
1
1
1
1
1
1
1
1
1
1
1
1
1
1
1
1
1
1
1
1
1
1
1
1
1
1
1
1
1
1
1
1
1
1
1
1
1
1
1
1
1
1
1
1
1
1
1
1
1
1
1
1
1
1
1
1
1
1
1
1
1
1
1
1
1
1
1
1
1
1
1
1
1
1
1
1
1
1
1
1
1
1
1
1
1
1
1
1
1
1
1
1
1
1
1
1
1
1
1
1
1
1
1
1
1
1
1
1
1
1
1
1
1
1
1
1
1
1
1
1
1
1
1
1
1
1
1
1
1
1
1
1
1
1
1
1
1
1
1
1
1
1
1
1
1
1
1
1
1
1
1
1
1
1
1
1
1
1
1
1
1
1
1
1
1
1
1
1
1
1
1
1
1
1
1
1
1
1
1
1
1
1
1
1
1
1
1
1
1
1
1
1
1
1
1
1
1
1
1
1
1
1
1
1
1
1
1
1
1
1
1
1
1
1
1
1
1
1
1
1
1
1
1
1
1
1
1
1
1
1
1
1
1
1
1
1
1
1
1
1
1
1
1
1
1
1
1
1
1
1
1
1
1
1
1
1
1
1
1
1
1
1
1
1
1
1
1
1
1
1
1
1
1
1
1
1
1
1
1
1
1
1
1
1
1
1
1
1
1
1
1
1
1
1
1
1
1
1
1
1
1
1
1
1
1
1
1
1
1
1
1
1
1
1
1
1
1
1
1
1
1
1
1
1
1
1
1
1
1
1
1
1
1
1
1
1
1
1
1
1
1
1
1
1
1
1
1
1
1
1
1
1
1
1
1
1
1
1
1
1
1
1
1
1
1
1
1
1
1
1
1
1
1
1
1
1
1
1
1
1
1
1
1
1
1
1
1
1
1
1
1
1
1
1
1
1
1
1
1
1
1
1
1
1
1
1
1
1
1
1
1
1
1
1
1
1
1
1
1
1
1
1
1
1
1
1
1
1
1
1
1
1
1
1
1
1
1
1
1
1
1
1
1
1
1
1
1
1
1
1
1
1
1
1
1
1
1
1
1
1
1
1
1
1
1
1
1
1
1
1
1
1
1
1
1
1
1
1
1
1
1
1
1
1
1
1
1
1
1
1
1
1
1
1
1
1
1
1
1
1
1
1
1
1
1
1
1
1
1
1
1
1
1
1
1
1
1
1
1
1
1
1
1
1
1
1
1
1
1
1
1
1
1
1
1
1
1
1
1
1
1
1
1
1
1
1
1
1
1
1
1
1
1
1
1
1
1
1
1
1
1
1
1
1
1
1
1
1
1
1
1
1
1
1
1
1
1
1
1
1
1
1
1
1
1
1
1
1
1
1
1
1
1
1
1
1
1
1
1
1
1
1.2338
0.22279
0.0736687
0.0528673
0.0479991
0.0610451
0.0939306
0.147338
0.214818
0.290249
0.385676
0.460318
0.50826
0.564162
0.64679
0.745595
0.820947
0.906141
0.950763
0.964185
0.969651
0.969117
0.978386
0.992671
1.00308
1.03287
1.06751
1.10815
1.13856
1.16096
1.17989
1.17392
1.16459
1.16892
1.18015
1.20135
1.23746
1.27517
1.28405
1.28385
1.28105
1.27066
1.26692
1.27101
1.2809
1.30515
1.32872
1.33281
1.33351
1.33155
1.3292
1.32797
1.32804
1.33346
1.34145
1.34329
1.34382
1.34413
1.34408
1.34415
3.0321
5.84801
6.1427
6.20573
6.24568
6.25834
6.25047
6.23847
6.22137
6.19605
6.16155
6.12557
6.09672
6.07544
6.05592
6.03136
6.00048
5.96833
5.93963
5.91652
5.89712
5.87504
5.83808
5.7788
5.70009
5.61591
5.54317
5.49401
5.47156
5.46851
5.46541
5.43748
5.38384
5.32015
5.25843
5.20481
5.16486
5.14045
5.12846
5.11329
5.06825
5.00592
4.94093
4.8729
4.80979
4.75315
4.70707
4.68112
4.66915
4.65254
4.6217
4.57717
4.52668
4.47224
4.41495
4.36287
4.31903
4.28157
4.25355
4.23668
4.22957
4.22902
4.21712
4.18228
4.12758
4.04236
3.96763
3.92216
3.89033
3.87146
3.8686
3.8749
3.88101
3.86968
3.83805
3.79562
3.72827
3.65741
3.61019
3.57881
3.5512
3.52707
3.50372
3.47772
3.45093
3.42661
3.40785
3.39323
3.37726
3.35732
3.33557
3.31203
3.28125
3.23769
3.18333
3.13991
3.11124
3.08931
3.06975
3.05442
3.03897
3.01885
2.99367
2.95193
2.89573
2.85493
2.83206
2.81478
2.80183
2.7962
2.79028
2.77573
2.75586
2.7274
2.68942
2.65451
2.62764
2.60761
2.59207
2.57938
2.56858
2.55441
2.53821
2.51867
2.49534
2.47171
2.44896
2.42532
2.40112
2.37856
2.36684
2.3497
2.16385
0.847886
0.521861
0.393002
0.253167
0.199249
0.205193
0.21316
0.214456
0.218876
0.242481
0.291539
0.333511
0.380924
0.445961
0.522705
0.599947
0.694787
0.772197
0.815981
0.856466
0.890436
0.912546
0.939148
0.986279
1.02722
1.05588
1.09471
1.11975
1.12896
1.14478
1.15229
1.1531
1.16041
1.17916
1.20233
1.22667
1.25375
1.26419
1.26693
1.26997
1.27077
1.27261
1.2778
1.28555
1.30327
1.32002
1.32294
1.32323
1.31955
1.31524
1.31577
1.31938
1.32778
1.3399
1.34449
1.34495
1.34302
1.3402
1.33917
2.90642
5.84339
6.24927
6.27365
6.26491
6.26203
6.25403
6.23979
6.21792
6.18967
6.15857
6.12687
6.09265
6.05497
6.01891
5.98873
5.96271
5.93544
5.90467
5.86974
5.83165
5.79728
5.76679
5.7331
5.69467
5.65233
5.60705
5.56051
5.51642
5.47817
5.44152
5.39739
5.34444
5.28788
5.23065
5.17692
5.13283
5.10348
5.08789
5.07108
5.03037
4.97318
4.91243
4.85376
4.80154
4.75508
4.72111
4.69766
4.6744
4.6446
4.60943
4.57209
4.53407
4.49548
4.45687
4.41628
4.37052
4.3218
4.27634
4.23771
4.20426
4.17751
4.15319
4.12742
4.09837
4.0644
4.02435
3.97528
3.92845
3.89389
3.87136
3.85671
3.84302
3.8235
3.80144
3.77056
3.73506
3.69454
3.64255
3.59052
3.5534
3.52616
3.50404
3.48503
3.46563
3.44425
3.42228
3.39912
3.3727
3.34557
3.31569
3.28246
3.25094
3.2196
3.19034
3.16553
3.13737
3.1073
3.07934
3.05495
3.03208
3.00713
2.98073
2.94948
2.91104
2.87335
2.8412
2.81847
2.80277
2.78872
2.77456
2.76122
2.74722
2.72693
2.7021
2.67363
2.64302
2.61397
2.59062
2.57356
2.55961
2.54836
2.5349
2.51824
2.49821
2.47746
2.45673
2.43484
2.41165
2.38942
2.3715
2.34769
2.92971
1.74788
1.17503
0.836099
0.587366
0.445645
0.416558
0.368603
0.314311
0.303555
0.305312
0.314579
0.34045
0.380666
0.407715
0.419338
0.443302
0.501498
0.590461
0.665286
0.732469
0.799359
0.85479
0.903555
0.975267
1.0347
1.06324
1.09592
1.12189
1.12789
1.13529
1.14746
1.15524
1.16875
1.1945
1.22172
1.23967
1.24635
1.25011
1.25335
1.25866
1.26696
1.27386
1.28037
1.29
1.30825
1.32444
1.32905
1.33112
1.3297
1.32253
1.31732
1.3191
1.32385
1.33313
1.3431
1.34493
1.34116
1.33392
1.33929
2.52113
5.86059
6.46453
6.32657
6.25974
6.2444
6.24474
6.2419
6.2243
6.19474
6.16504
6.14639
6.13297
6.10087
6.05044
6.00135
5.96429
5.93981
5.92307
5.90021
5.857
5.79423
5.72793
5.66784
5.62492
5.60787
5.60469
5.60143
5.58691
5.55525
5.50886
5.44972
5.38364
5.31856
5.25707
5.20119
5.15447
5.12043
5.09992
5.072
5.02171
4.9648
4.8982
4.82796
4.77093
4.72842
4.7069
4.69803
4.66982
4.62615
4.5796
4.5331
4.49243
4.46037
4.43845
4.42457
4.41056
4.38679
4.34807
4.29477
4.22528
4.14956
4.08689
4.0459
4.0258
4.03026
4.03288
4.01715
3.99226
3.95772
3.90855
3.8503
3.80049
3.76383
3.73541
3.71918
3.71648
3.6995
3.66805
3.62371
3.56563
3.51506
3.48521
3.46543
3.458
3.45772
3.44692
3.42221
3.39144
3.35094
3.29965
3.24914
3.20789
3.1814
3.16846
3.16292
3.15254
3.13474
3.11096
3.07728
3.03444
2.99087
2.95388
2.92843
2.90963
2.89059
2.86777
2.83805
2.80441
2.77664
2.75739
2.73947
2.72141
2.70877
2.70157
2.68727
2.66788
2.64065
2.60566
2.57253
2.55006
2.5332
2.51684
2.50166
2.48813
2.47447
2.46077
2.44664
2.43038
2.41
2.38407
2.3445
3.54541
2.43333
1.8262
1.40052
1.00507
0.816265
0.728741
0.625019
0.5244
0.509696
0.492664
0.451202
0.440758
0.436927
0.423107
0.424319
0.43494
0.440448
0.45525
0.488134
0.556968
0.645777
0.72339
0.787033
0.86879
0.947416
0.978608
1.00057
1.0421
1.08265
1.10883
1.13893
1.1626
1.1797
1.20041
1.22236
1.23433
1.23782
1.24226
1.24701
1.25034
1.25525
1.25994
1.2656
1.27605
1.29242
1.30581
1.31409
1.32002
1.32392
1.32438
1.31987
1.31742
1.31986
1.32526
1.33411
1.33778
1.33656
1.34624
1.39276
2.05165
5.70593
6.86933
6.51445
6.29238
6.2686
6.25581
6.24684
6.21718
6.17429
6.13816
6.11584
6.10366
6.08563
6.04594
5.99471
5.94492
5.90204
5.87153
5.85527
5.84187
5.80576
5.75133
5.68882
5.62537
5.58216
5.55813
5.54615
5.53873
5.52242
5.48781
5.43919
5.38473
5.32232
5.25843
5.20112
5.1499
5.10561
5.07203
5.04217
5.00705
4.96721
4.9248
4.87521
4.81996
4.77186
4.73861
4.70773
4.67384
4.63758
4.59977
4.55788
4.50852
4.45845
4.42276
4.39612
4.37876
4.3623
4.33371
4.29257
4.24006
4.17754
4.11451
4.06522
4.03509
4.02698
4.02424
4.01489
3.99605
3.96811
3.92193
3.85682
3.79477
3.74967
3.71822
3.6999
3.69934
3.69366
3.67464
3.64811
3.60944
3.55398
3.50072
3.46802
3.44722
3.4394
3.43119
3.41133
3.38569
3.3522
3.307
3.2539
3.20637
3.17672
3.15918
3.14638
3.13811
3.12747
3.11045
3.08587
3.04981
3.00399
2.95949
2.9275
2.90631
2.88966
2.87296
2.851
2.81649
2.77528
2.74187
2.71895
2.70309
2.69266
2.68906
2.68632
2.675
2.65777
2.63335
2.59394
2.54863
2.51889
2.50157
2.48838
2.47713
2.4667
2.45708
2.44765
2.43718
2.42421
2.40624
2.35565
4.02986
3.03775
2.3522
1.92245
1.52358
1.23745
1.08335
0.916632
0.770394
0.716096
0.672404
0.61823
0.58328
0.56131
0.53535
0.518308
0.508119
0.495881
0.496868
0.504878
0.511216
0.527706
0.55703
0.600593
0.659969
0.74609
0.821996
0.86696
0.93321
1.01115
1.04894
1.08091
1.12242
1.14122
1.15897
1.18355
1.20734
1.21645
1.22517
1.24036
1.25466
1.2639
1.27056
1.27815
1.28603
1.29143
1.29625
1.30247
1.30867
1.31336
1.31699
1.32023
1.32246
1.3223
1.32042
1.31929
1.32199
1.33567
1.4138
1.72732
2.23527
4.36385
6.59453
6.74283
6.43909
6.26958
6.23798
6.23028
6.21325
6.17132
6.13789
6.11648
6.10431
6.09116
6.06757
6.02807
5.98355
5.93181
5.87906
5.83618
5.80596
5.78095
5.74596
5.70474
5.65411
5.59104
5.53963
5.50566
5.48228
5.46479
5.4389
5.40285
5.36195
5.31477
5.26476
5.21563
5.16666
5.11374
5.05701
5.0057
4.9652
4.93233
4.90696
4.88487
4.85912
4.82555
4.7755
4.7121
4.65918
4.6252
4.59688
4.5685
4.53711
4.49975
4.45315
4.40301
4.36042
4.32047
4.27973
4.24116
4.20339
4.16566
4.13119
4.10049
4.07803
4.0575
4.03458
4.01086
3.98377
3.94267
3.88359
3.8232
3.77601
3.74239
3.71752
3.70019
3.68882
3.67542
3.65801
3.6378
3.61376
3.58313
3.54282
3.49877
3.46294
3.43553
3.40989
3.38254
3.35322
3.32211
3.29038
3.26189
3.23598
3.20636
3.17319
3.14547
3.12459
3.10474
3.08368
3.06087
3.03589
3.01099
2.98691
2.95904
2.92651
2.89597
2.87043
2.8437
2.8087
2.7676
2.73339
2.71254
2.69879
2.68785
2.68196
2.68009
2.67409
2.66115
2.64401
2.6156
2.56763
2.51955
2.49332
2.47922
2.46847
2.46023
2.45275
2.44366
2.43375
2.42281
2.41073
2.36306
4.34641
3.51012
2.87233
2.36861
1.95273
1.65334
1.43086
1.24178
1.04972
0.950771
0.875222
0.804207
0.761636
0.725359
0.694308
0.670405
0.640879
0.599713
0.573446
0.559044
0.545338
0.546646
0.563015
0.567779
0.571894
0.587487
0.617184
0.646931
0.693172
0.785134
0.883078
0.95982
1.04401
1.09776
1.12586
1.15119
1.18093
1.19581
1.20644
1.2226
1.23712
1.24686
1.25836
1.27345
1.27967
1.28167
1.28176
1.28467
1.28917
1.29491
1.30649
1.31715
1.3202
1.32048
1.31673
1.3155
1.32629
1.40462
1.762
2.48206
2.75837
3.17001
5.05195
6.39095
6.57364
6.41562
6.27334
6.21646
6.19686
6.16301
6.12714
6.09425
6.06246
6.03735
6.0212
5.99657
5.96445
5.92855
5.88349
5.84567
5.81199
5.77935
5.74666
5.70964
5.6689
5.61331
5.54114
5.48415
5.44603
5.41217
5.37893
5.34576
5.31381
5.28175
5.24914
5.21383
5.1722
5.12267
5.0643
5.00189
4.95263
4.91921
4.89643
4.88617
4.87191
4.84454
4.80137
4.73221
4.65923
4.61437
4.58603
4.56275
4.53918
4.50995
4.46466
4.399
4.33277
4.2814
4.24043
4.207
4.18057
4.16117
4.14857
4.13852
4.12169
4.09315
4.0538
4.00619
3.95279
3.89359
3.84053
3.80593
3.78298
3.7617
3.73826
3.71122
3.68356
3.66008
3.64006
3.62235
3.60451
3.58414
3.55726
3.51842
3.47272
3.42953
3.39168
3.35792
3.32763
3.30276
3.28414
3.26978
3.25457
3.23179
3.19278
3.14543
3.10806
3.07988
3.05616
3.03734
3.02297
3.01056
2.99798
2.98073
2.95382
2.91302
2.86697
2.82644
2.79126
2.7614
2.73765
2.71742
2.7007
2.6883
2.67839
2.67172
2.66519
2.65404
2.63887
2.616
2.57942
2.53626
2.50055
2.47734
2.46369
2.45349
2.44577
2.43731
2.42738
2.4158
2.40096
2.35512
4.61663
3.89507
3.29686
2.76451
2.35674
2.04411
1.76341
1.52673
1.34697
1.21171
1.1088
1.01607
0.95229
0.891937
0.836221
0.801202
0.767822
0.719668
0.680419
0.669212
0.644917
0.628355
0.628706
0.621714
0.608068
0.605407
0.594829
0.589799
0.592704
0.610734
0.659414
0.733197
0.82513
0.928529
1.02135
1.07118
1.10777
1.13905
1.16574
1.19061
1.2072
1.22182
1.24324
1.26679
1.27748
1.27889
1.27784
1.27535
1.278
1.28258
1.29255
1.30582
1.30894
1.30916
1.31191
1.32867
1.42073
1.80042
2.45448
2.94908
3.0451
3.03635
3.45619
5.07024
6.28101
6.49914
6.3891
6.27367
6.18794
6.1274
6.09369
6.06805
6.0491
6.03002
6.00734
5.97275
5.94106
5.90663
5.86106
5.82024
5.79054
5.76567
5.74728
5.72182
5.68624
5.63983
5.57305
5.49694
5.44007
5.39971
5.36486
5.33774
5.31511
5.28504
5.25094
5.21458
5.1776
5.1391
5.09459
5.04078
4.98541
4.9483
4.92858
4.92057
4.90426
4.87156
4.82844
4.76974
4.69953
4.63413
4.58917
4.55697
4.52621
4.48896
4.43634
4.36614
4.29328
4.2409
4.20863
4.18424
4.16882
4.17108
4.18389
4.18408
4.16323
4.13041
4.07066
3.98085
3.89762
3.84429
3.81602
3.79769
3.7873
3.77731
3.7581
3.73229
3.70033
3.66865
3.64437
3.62459
3.60458
3.58116
3.55043
3.50841
3.459
3.41129
3.3711
3.34092
3.3203
3.30674
3.30204
3.29477
3.27871
3.25069
3.19817
3.13473
3.08535
3.05407
3.03528
3.0223
3.01413
3.01195
3.00665
2.99329
2.97203
2.92683
2.86187
2.80932
2.77921
2.76092
2.74562
2.72931
2.71058
2.69017
2.67401
2.66248
2.65268
2.64254
2.62772
2.60381
2.57448
2.54594
2.51765
2.4874
2.46085
2.44481
2.43399
2.4247
2.41565
2.40395
2.38385
2.34369
4.83099
4.20876
3.643
3.11558
2.72722
2.38903
2.09039
1.82291
1.64671
1.48008
1.33041
1.22969
1.15572
1.08687
1.01421
0.95408
0.905017
0.84148
0.796049
0.781032
0.761756
0.731485
0.716877
0.705504
0.68195
0.655444
0.640055
0.621674
0.605725
0.608949
0.61839
0.631701
0.653715
0.691998
0.750809
0.824169
0.90381
0.975908
1.04108
1.10902
1.1529
1.1783
1.20971
1.24685
1.26975
1.27683
1.27849
1.27547
1.26669
1.26699
1.27317
1.28423
1.29316
1.30013
1.31951
1.4586
1.84949
2.46274
2.96264
3.08915
3.08496
3.02358
3.01765
3.4972
5.07231
6.1986
6.45137
6.32275
6.17954
6.08097
6.04594
6.03407
6.03898
6.03681
6.00572
5.96963
5.92849
5.88088
5.83034
5.78444
5.74891
5.71921
5.69561
5.67146
5.64156
5.60518
5.55796
5.49252
5.42467
5.3754
5.33912
5.31225
5.29124
5.26299
5.23042
5.19883
5.17224
5.14383
5.11161
5.07592
5.0304
4.97433
4.92913
4.89621
4.86192
4.82699
4.79362
4.75626
4.70641
4.64198
4.57204
4.51347
4.4702
4.43146
4.3874
4.33784
4.28509
4.23983
4.21063
4.19264
4.18789
4.20048
4.2072
4.18962
4.16013
4.11332
4.0424
3.95157
3.87873
3.84053
3.81882
3.80613
3.80277
3.79734
3.78263
3.76104
3.7298
3.68755
3.64455
3.60753
3.57318
3.53945
3.50627
3.47095
3.43604
3.40439
3.37719
3.35578
3.34081
3.33002
3.31783
3.29866
3.26476
3.21755
3.16822
3.12323
3.0848
3.0548
3.03523
3.02369
3.01857
3.0174
3.00978
2.99448
2.96535
2.91722
2.86061
2.81516
2.78551
2.76543
2.74953
2.73444
2.71823
2.69969
2.67871
2.66075
2.6498
2.63547
2.61141
2.58514
2.56353
2.5451
2.52591
2.50188
2.47186
2.44443
2.42881
2.41956
2.40889
2.38963
2.36279
2.33499
5.02109
4.47204
3.92338
3.44052
3.05881
2.71032
2.38098
2.13132
1.91997
1.74409
1.57475
1.45821
1.35827
1.25643
1.17979
1.10991
1.04693
0.984219
0.930824
0.896649
0.867648
0.832554
0.814791
0.802413
0.778661
0.732796
0.710146
0.697734
0.676803
0.661867
0.660617
0.660271
0.659251
0.654839
0.654631
0.661103
0.685797
0.736398
0.813465
0.907175
1.02059
1.11109
1.15562
1.18936
1.21617
1.24751
1.2641
1.26594
1.26856
1.26656
1.26169
1.26214
1.27227
1.29796
1.44851
1.95073
2.47525
2.91455
3.07135
3.07318
3.03714
2.99375
2.98513
3.0242
3.57168
5.06656
6.19321
6.32147
6.19125
6.06601
6.01583
6.00361
6.01936
6.03656
6.00958
5.97045
5.91996
5.86455
5.81546
5.76973
5.72743
5.68991
5.65663
5.62842
5.60225
5.57191
5.53576
5.49097
5.43275
5.3752
5.33143
5.29582
5.26204
5.22827
5.19693
5.17174
5.15156
5.12999
5.10449
5.07588
5.03825
4.98272
4.90743
4.84595
4.80511
4.77296
4.74426
4.71289
4.67833
4.63745
4.57885
4.5052
4.44092
4.39665
4.36297
4.33259
4.30303
4.27238
4.24537
4.2274
4.21869
4.21285
4.19343
4.16349
4.12326
4.07023
4.00405
3.9432
3.89996
3.86974
3.84859
3.8356
3.82493
3.81065
3.79221
3.76487
3.72439
3.67246
3.62062
3.57512
3.53594
3.49937
3.46623
3.44433
3.42744
3.41514
3.40514
3.39075
3.36991
3.34208
3.30369
3.2612
3.21938
3.1791
3.14533
3.12246
3.10362
3.08501
3.065
3.04525
3.03105
3.01527
2.99149
2.96222
2.93056
2.89495
2.86232
2.83431
2.80684
2.78021
2.75879
2.74298
2.72903
2.71352
2.69314
2.6645
2.62776
2.59802
2.58162
2.56688
2.55246
2.53941
2.5268
2.51259
2.49387
2.46749
2.43453
2.40226
2.37816
2.36117
2.34812
2.33431
5.17268
4.66549
4.14978
3.72689
3.34661
2.98481
2.66049
2.41949
2.18929
1.9847
1.80899
1.67956
1.55926
1.45091
1.35094
1.25904
1.17194
1.11351
1.06709
1.02654
0.99848
0.958602
0.919734
0.898735
0.874357
0.82432
0.773495
0.761636
0.750471
0.7307
0.717524
0.710679
0.702869
0.692338
0.671126
0.659898
0.660251
0.66542
0.680053
0.710103
0.768392
0.854185
0.951992
1.03722
1.08926
1.14005
1.19429
1.22906
1.24812
1.26378
1.26508
1.2629
1.29895
1.45192
1.96828
2.54787
2.83664
3.01357
3.0506
3.04693
3.02596
3.00992
3.01182
3.02001
3.07644
3.60515
4.97676
6.06611
6.19949
6.126
6.02449
5.99086
5.99883
6.02104
6.00275
5.9633
5.91147
5.84693
5.80271
5.76259
5.7241
5.68314
5.63944
5.60113
5.5704
5.5437
5.51444
5.47883
5.43683
5.39344
5.35188
5.30696
5.25976
5.21545
5.17752
5.1444
5.1138
5.09413
5.08278
5.05675
5.01981
4.97422
4.90407
4.81965
4.76204
4.72399
4.69362
4.67333
4.66011
4.63162
4.59306
4.53598
4.46374
4.40913
4.37913
4.35825
4.34217
4.32421
4.29981
4.26624
4.22454
4.18132
4.14281
4.10478
4.05829
4.00739
3.96827
3.94643
3.92966
3.91728
3.90116
3.87543
3.84063
3.79983
3.75903
3.72398
3.68749
3.64452
3.59594
3.54935
3.50853
3.47751
3.45758
3.44555
3.44378
3.44318
3.43196
3.41198
3.37927
3.32658
3.26417
3.2115
3.17678
3.15475
3.14245
3.13768
3.13558
3.12407
3.10257
3.06818
3.02208
2.97927
2.94448
2.91444
2.89114
2.87612
2.86292
2.84863
2.83064
2.80803
2.78296
2.76123
2.74325
2.72474