/*--------------------------------*- C++ -*----------------------------------*\
  =========                 |
  \\      /  F ield         | OpenFOAM: The Open Source CFD Toolbox
   \\    /   O peration     | Website:  https://openfoam.org
    \\  /    A nd           | Version:  7
     \\/     M anipulation  |
\*---------------------------------------------------------------------------*/
FoamFile
{
    version     2.0;
    format      ascii;
    class       volScalarField;
    location    "3.6";
    object      T;
}
// * * * * * * * * * * * * * * * * * * * * * * * * * * * * * * * * * * * * * //

dimensions      [0 0 0 1 0 0 0];

internalField   nonuniform List<scalar> 
16128
(
1
1
1
1
1
1
1
1
1
1
1
1
1
1
1
1
1
1
1
1
1
1
1
1
1.98499
2.67008
2.7132
2.71813
2.72441
2.72855
2.73242
2.73678
2.7427
2.75093
2.76106
2.77119
2.77897
2.78331
2.78528
2.78694
2.78978
2.79418
2.79913
2.80347
2.80694
2.8098
2.81209
2.81355
1
1
1
1
1
1
1
1
1
1
1
1
1
1
1
1
1
1
1
1
1
1
1
1
1.97448
2.66717
2.71302
2.71794
2.72405
2.72812
2.73195
2.7363
2.74225
2.75053
2.76066
2.77074
2.77844
2.78269
2.7846
2.78624
2.78906
2.79341
2.7983
2.80256
2.80599
2.80883
2.81111
2.81256
1
1
1
1
1
1
1
1
1
1
1
1
1
1
1
1
1
1
1
1
1
1
1
1
1.94691
2.66164
2.71224
2.71721
2.72315
2.7271
2.73084
2.73518
2.74119
2.74959
2.75982
2.7699
2.77753
2.78169
2.78355
2.78518
2.78801
2.79233
2.7971
2.80122
2.80452
2.80727
2.80949
2.8109
1
1
1
1
1
1
1
1
1
1
1
1
1
1
1
1
1
1
1
1
1
1
1
1
1.90491
2.65174
2.7108
2.71608
2.72193
2.72568
2.72918
2.73337
2.73934
2.7478
2.75812
2.76827
2.7759
2.78003
2.78186
2.78347
2.78628
2.79055
2.79523
2.79922
2.80242
2.80509
2.80724
2.80861
1
1
1
1
1
1
1
1
1
1
1
1
1
1
1
1
1
1
1
1
1
1
1
1
1.84805
2.63709
2.70796
2.71402
2.72011
2.72379
2.72707
2.73102
2.7368
2.7452
2.7556
2.76592
2.7737
2.77792
2.77975
2.78131
2.78404
2.78819
2.79274
2.7966
2.79968
2.80227
2.80433
2.80566
1
1
1
1
1
1
1
1
1
1
1
1
1
1
1
1
1
1
1
1
1
1
1
1
1.77302
2.61632
2.70307
2.71065
2.71736
2.72116
2.7243
2.72797
2.73342
2.74159
2.75198
2.76253
2.77065
2.77516
2.77708
2.7786
2.7812
2.7852
2.78961
2.79334
2.79629
2.79877
2.8007
2.80195
1
1
1
1
1
1
1
1
1
1
1
1
1
1
1
1
1
1
1
1
1
1
1
1
1.67719
2.58789
2.69676
2.70561
2.71333
2.71757
2.7208
2.72425
2.72926
2.73696
2.74715
2.75786
2.76644
2.77141
2.77355
2.77505
2.77749
2.78128
2.78555
2.78921
2.7921
2.79454
2.79638
2.79761
1
1
1
1
1
1
1
1
1
1
1
1
1
1
1
1
1
1
1
1
1
1
1
1
1.56256
2.551
2.68956
2.69913
2.70842
2.71339
2.71696
2.72031
2.72483
2.73182
2.7415
2.75216
2.76118
2.76671
2.76919
2.77072
2.77298
2.77652
2.78063
2.78421
2.78701
2.78936
2.79107
2.79221
1
1
1
1
1
1
1
1
1
1
1
1
1
1
1
1
1
1
1
1
1
1
1
1
1.41825
2.49602
2.6804
2.69132
2.70228
2.70804
2.71229
2.71585
2.72007
2.72626
2.73516
2.74552
2.75487
2.76101
2.76394
2.76549
2.76748
2.77063
2.77444
2.77791
2.78069
2.78305
2.78476
2.78595
1
1
1
1
1
1
1
1
1
1
1
1
1
1
1
1
1
1
1
1
1
1
1
1
1.24715
2.42467
2.677
2.68165
2.69341
2.70075
2.70642
2.71062
2.71474
2.7202
2.72809
2.73785
2.74736
2.75415
2.75764
2.75932
2.76107
2.76383
2.76734
2.77064
2.77323
2.77533
2.77682
2.77778
1
1
1
1
1
1
1
1
1
1
1
1
1
1
1
1
1
1
1
1
1
1
1
1
1.07048
2.34608
2.67847
2.677
2.685
2.69216
2.69888
2.70418
2.70868
2.71356
2.72027
2.72908
2.73844
2.7458
2.75001
2.75195
2.75348
2.75571
2.75861
2.76143
2.76373
2.76562
2.76705
2.76818
1
1
1
1
1
1
1
1
1
1
1
1
1
1
1
1
1
1
1
1
1
1
1
1
1.00196
2.25635
2.67227
2.67226
2.67848
2.68568
2.6927
2.69821
2.70241
2.70688
2.71239
2.71981
2.72847
2.73609
2.74095
2.74322
2.74456
2.74629
2.74863
2.75104
2.7529
2.75401
2.7544
2.75442
1
1
1
1
1
1
1
1
1
1
1
1
1
1
1
1
1
1
1
1
1
1
1
1
1
2.13346
2.66738
2.67344
2.67861
2.68423
2.68983
2.69448
2.69838
2.70115
2.70488
2.7104
2.71764
2.72493
2.73019
2.73285
2.73421
2.7354
2.73652
2.73756
2.73787
2.73794
2.73727
2.73757
1
1
1
1
1
1
1
1
1
1
1
1
1
1
1
1
1
1
1
1
1
1
1
1
1
1.96426
2.63557
2.66906
2.67712
2.68382
2.68856
2.69174
2.69383
2.69581
2.69803
2.70133
2.70646
2.71265
2.71789
2.72087
2.72198
2.7221
2.72192
2.72169
2.72088
2.71955
2.71537
2.70928
1
1
1
1
1
1
1
1
1
1
1
1
1
1
1
1
1
1
1
1
1
1
1
1
1
1.74998
2.56717
2.65237
2.66874
2.67958
2.68584
2.6893
2.69099
2.6918
2.69237
2.69366
2.69626
2.70045
2.70475
2.70721
2.70768
2.7069
2.70516
2.70259
2.69781
2.68954
2.67929
2.67042
1
1
1
1
1
1
1
1
1
1
1
1
1
1
1
1
1
1
1
1
1
1
1
1
1
1.45029
2.44645
2.63676
2.65377
2.66646
2.67557
2.68184
2.68548
2.68696
2.68718
2.68696
2.68732
2.68902
2.69113
2.69227
2.69168
2.68949
2.6853
2.67889
2.6691
2.65612
2.64538
2.6485
1
1
1
1
1
1
1
1
1
1
1
1
1
1
1
1
1
1
1
1
1
1
1
1
1
1.09985
2.33201
2.63171
2.63094
2.64106
2.65511
2.66667
2.67464
2.67886
2.68021
2.67986
2.67913
2.67863
2.67812
2.67719
2.6748
2.67042
2.66336
2.65317
2.63694
2.60925
2.54888
2.42988
1
1
1
1
1
1
1
1
1
1
1
1
1
1
1
1
1
1
1
1
1
1
1
1
1
1.00254
2.22311
2.61541
2.61421
2.62205
2.63358
2.64642
2.65763
2.6654
2.66961
2.67065
2.66983
2.66806
2.66562
2.66238
2.65751
2.65035
2.63975
2.62403
2.5992
2.55352
2.48222
2.29495
1
1
1
1
1
1
1
1
1
1
1
1
1
1
1
1
1
1
1
1
1
1
1
1
1
0.999993
2.027
2.60086
2.61539
2.61869
2.62231
2.62948
2.63919
2.64779
2.65457
2.65807
2.65807
2.65646
2.65302
2.64791
2.6406
2.63029
2.61578
2.59448
2.56259
2.50995
2.41844
2.22217
1
1
1
1
1
1
1
1
1
1
1
1
1
1
1
1
1
1
1
1
1
1
1
1
1
0.999998
1.72844
2.5329
2.61349
2.61448
2.61658
2.61935
2.62444
2.6304
2.63684
2.64186
2.64356
2.64256
2.63914
2.63303
2.62387
2.61081
2.59258
2.56661
2.52841
2.4729
2.37011
2.20598
1
1
1
1
1
1
1
1
1
1
1
1
1
1
1
1
1
1
1
1
1
1
1
1
1
1
1.33097
2.39683
2.6057
2.6054
2.60885
2.61143
2.61405
2.61666
2.62022
2.62419
2.6265
2.62607
2.62319
2.61705
2.60696
2.59211
2.57108
2.54184
2.49999
2.44168
2.34166
2.2111
1
1
1
1
1
1
1
1
1
1
1
1
1
1
1
1
1
1
1
1
1
1
1
1
1
1
1.0311
2.2499
2.59752
2.59588
2.59807
2.6024
2.60459
2.6051
2.60582
2.60722
2.60834
2.60783
2.60522
2.59937
2.5892
2.57367
2.55124
2.52015
2.47718
2.41766
2.32762
2.2223
1
1
1
1
1
1
1
1
1
1
1
1
1
1
1
1
1
1
1
1
1
1
1
1
1
1
1.00016
2.02943
2.55242
2.57982
2.58856
2.59322
2.59483
2.59458
2.59361
2.59251
2.59133
2.58942
2.58602
2.58004
2.5701
2.55482
2.53248
2.50117
2.4589
2.40087
2.32215
2.23469
1
1
1
1
1
1
1
1
1
1
1
1
1
1
1
1
1
1
1
1
1
1
1
1
1
1
0.999999
1.64259
2.4621
2.56611
2.57523
2.58188
2.58476
2.58454
2.58297
2.58024
2.57677
2.5726
2.56738
2.56031
2.5501
2.53525
2.51388
2.48381
2.44376
2.38911
2.32135
2.24544
1
1
1
1
1
1
1
1
1
1
1
1
1
1
1
1
1
1
1
1
1
1
1
1
1
1
1
1.14544
2.31532
2.56234
2.55935
2.56374
2.56949
2.5714
2.5706
2.56792
2.56346
2.5576
2.55037
2.54149
2.53023
2.51534
2.49509
2.46694
2.42961
2.38012
2.32183
2.25457
1
1
1
1
1
1
1
1
1
1
1
1
1
1
1
1
1
1
1
1
1
1
1
1
1
1
1
1.0052
2.15025
2.52904
2.53535
2.54542
2.55182
2.55536
2.55611
2.55449
2.55042
2.54394
2.53537
2.52475
2.51188
2.49619
2.47644
2.45016
2.41545
2.3718
2.32153
2.26165
1
1
1
1
1
1
1
1
1
1
1
1
1
1
1
1
1
1
1
1
1
1
1
1
1
1
1
0.999981
1.77278
2.4655
2.51984
2.5298
2.53607
2.53981
2.54124
2.54016
2.53676
2.53058
2.5216
2.51011
2.49593
2.47925
2.45883
2.43359
2.4016
2.36355
2.31984
2.26734
1
1
1
1
1
1
1
1
1
1
1
1
1
1
1
1
1
1
1
1
1
1
1
1
1
1
1
0.999994
1.22677
2.32884
2.52374
2.5165
2.51834
2.52173
2.52358
2.5231
2.52081
2.51577
2.50756
2.4963
2.4817
2.4646
2.44296
2.41812
2.38843
2.35498
2.31584
2.26969
1
1
1
1
1
1
1
1
1
1
1
1
1
1
1
1
1
1
1
1
1
1
1
1
1
1
1
0.999999
1.01243
2.16008
2.4963
2.49585
2.50117
2.50367
2.50529
2.50517
2.50356
2.4996
2.4926
2.48247
2.46884
2.45149
2.42984
2.40528
2.37699
2.34652
2.31078
2.26985
1
1
1
1
1
1
1
1
1
1
1
1
1
1
1
1
1
1
1
1
1
1
1
1
1
1
1
1
1
1.73112
2.42468
2.48401
2.48884
2.49003
2.49022
2.48919
2.48683
2.48281
2.4766
2.46751
2.45524
2.43882
2.41842
2.39464
2.36749
2.33849
2.30522
2.26839
1
1
1
1
1
1
1
1
1
1
1
1
1
1
1
1
1
1
1
1
1
1
1
1
1
1
1
1
0.999996
1.14789
2.27434
2.48987
2.47937
2.47681
2.47544
2.47307
2.4699
2.46571
2.45987
2.45169
2.44049
2.4259
2.40759
2.38545
2.35988
2.33205
2.30099
2.2665
1
1
1
1
1
1
1
1
1
1
1
1
1
1
1
1
1
1
1
1
1
1
1
1
1
1
1
1
0.999999
1.00506
2.05083
2.45001
2.45691
2.46183
2.46061
2.45794
2.45441
2.4498
2.44373
2.4358
2.42532
2.41206
2.39576
2.37586
2.35251
2.32628
2.2973
2.26469
1
1
1
1
1
1
1
1
1
1
1
1
1
1
1
1
1
1
1
1
1
1
1
1
1
1
1
1
1
0.999985
1.51529
2.3413
2.44566
2.44825
2.44755
2.44541
2.44181
2.43663
2.42976
2.42119
2.41064
2.39796
2.38299
2.36527
2.34429
2.32031
2.29363
2.26339
1
1
1
1
1
1
1
1
1
1
1
1
1
1
1
1
1
1
1
1
1
1
1
1
1
1
1
1
1
0.999995
1.06705
2.15916
2.43626
2.43247
2.43227
2.43098
2.42824
2.42333
2.41615
2.40712
2.39641
2.38409
2.37
2.35379
2.3346
2.31293
2.28879
2.26149
1
1
1
1
1
1
1
1
1
1
1
1
1
1
1
1
1
1
1
1
1
1
1
1
1
1
1
1
1
0.999999
1.00083
1.74036
2.35462
2.4101
2.41337
2.41537
2.41426
2.41031
2.40348
2.39451
2.38379
2.37154
2.35773
2.34211
2.3243
2.30462
2.28283
2.25844
1
1
1
1
1
1
1
1
1
1
1
1
1
1
1
1
1
1
1
1
1
1
1
1
1
1
1
1
1
1
0.999998
1.15792
2.19065
2.40826
2.40009
2.40115
2.39982
2.39609
2.39001
2.38181
2.37166
2.35977
2.34623
2.33097
2.31399
2.29561
2.27566
2.25368
1
1
1
1
1
1
1
1
1
1
1
1
1
1
1
1
1
1
1
1
1
1
1
1
1
1
1
1
1
1
1
1.00531
1.87033
2.35618
2.37668
2.38116
2.38083
2.37875
2.37448
2.36791
2.35913
2.34826
2.33538
2.32062
2.30429
2.28676
2.268
2.24763
1
1
1
1
1
1
1
1
1
1
1
1
1
1
1
1
1
1
1
1
1
1
1
1
1
1
1
1
1
1
1
1
1.2451
2.20013
2.37715
2.36927
2.36673
2.36365
2.35936
2.35358
2.34589
2.33602
2.32403
2.31017
2.29476
2.27814
2.26029
2.24104
1
1
1
1
1
1
1
1
1
1
1
1
1
1
1
1
1
1
1
1
1
1
1
1
1
1
1
1
1
1
1
1
1.01324
1.92889
2.33783
2.35232
2.3493
2.34639
2.34271
2.33765
2.33086
2.32213
2.31148
2.29904
2.28497
2.26955
2.25278
2.23459
1
1
1
1
1
1
1
1
1
1
1
1
1
1
1
1
1
1
1
1
1
1
1
1
1
1
1
1
1
1
1
1
1.00004
1.30135
2.18886
2.34777
2.33872
2.33415
2.32944
2.32368
2.31693
2.30892
2.29943
2.28828
2.27539
2.26103
2.24527
2.22812
1
1
1
1
1
1
1
1
1
1
1
1
1
1
1
1
1
1
1
1
1
1
1
1
1
1
1
1
1
1
1
1
1
1.0203
1.93333
2.3103
2.32523
2.32066
2.3156
2.30963
2.30269
2.29474
2.28578
2.27556
2.26388
2.25101
2.23671
2.22093
1
1
1
1
1
1
1
1
1
1
1
1
1
1
1
1
1
1
1
1
1
1
1
1
1
1
1
1
1
1
1
1
1
1.0001
1.31694
2.1577
2.31582
2.30873
2.30398
2.29765
2.29006
2.28174
2.27294
2.26342
2.25282
2.24133
2.22852
2.21397
1
1
1
1
1
1
1
1
1
1
1
1
1
1
1
1
1
1
1
1
1
1
1
1
1
1
1
1
1
1
1
1
1
1
1.02249
1.88034
2.2739
2.2987
2.29186
2.28506
2.27751
2.26945
2.26086
2.25173
2.2417
2.2309
2.21919
2.20581
1
1
1
1
1
1
1
1
1
1
1
1
1
1
1
1
1
1
1
1
1
1
1
1
1
1
1
1
1
1
1
1
1
1
1.00014
1.28093
2.10894
2.28571
2.2787
2.2735
2.2665
2.25875
2.25036
2.24148
2.23176
2.22122
2.21
2.19752
1
1
1
1
1
1
1
1
1
1
1
1
1
1
1
1
1
1
1
1
1
1
1
1
1
1
1
1
1
1
1
1
1
1
1
1.01736
1.76683
2.22354
2.26803
2.26046
2.25396
2.2475
2.24028
2.23199
2.22258
2.21209
2.20085
2.18873
1
1
1
1
1
1
1
1
1
1
1
1
1
1
1
1
1
1
1
1
1
1
1
1
1
1
1
1
1
1
1
1
1
1
1
1.00011
1.20222
2.03966
2.254
2.24712
2.24365
2.2385
2.23163
2.2232
2.21367
2.20325
2.19213
2.1803
1
1
1
1
1
1
1
1
1
1
1
1
1
1
1
1
1
1
1
1
1
1
1
1
1
1
1
1
1
1
1
1
1
1
1
1
1.00882
1.58829
2.14679
2.23355
2.22833
2.22455
2.21904
2.21193
2.20344
2.19397
2.1837
2.17246
1
1
1
1
1
1
1
1
1
1
1
1
1
1
1
1
1
1
1
1
1
1
1
1
1
1
1
1
1
1
1
1
1
1
1
1
1.00005
1.10666
1.93752
2.22138
2.21571
2.21067
2.20532
2.19998
2.19331
2.18513
2.1758
2.16532
1
1
1
1
1
1
1
1
1
1
1
1
1
1
1
1
1
1
1
1
1
1
1
1
1
1
1
1
1
1
1
1
1
1
1
1
1
1.00255
1.40948
2.08045
2.20167
2.19266
2.18905
2.18491
2.17981
2.17324
2.16524
2.15626
1
1
1
1
1
1
1
1
1
1
1
1
1
1
1
1
1
1
1
1
1
1
1
1
1
1
1
1
1
1
1
1
1
1
1
1
1
1.00001
1.04308
1.7682
2.15421
2.18957
2.18152
2.17498
2.16886
2.16254
2.15547
2.14754
1
1
1
1
1
1
1
1
1
1
1
1
1
1
1
1
1
1
1
1
1
1
1
1
1
1
1
1
1
1
1
1
1
1
1
1
1
1
1.00057
1.22342
1.96925
2.17678
2.16918
2.16294
2.15663
2.15028
2.14377
2.13674
1
1
1
1
1
1
1
1
1
1
1
1
1
1
1
1
1
1
1
1
1
1
1
1
1
1
1
1
1
1
1
1
1
1
1
1
1
1
1
1.01122
1.51373
2.06892
2.15781
2.1502
2.14461
2.13904
2.13285
2.12609
1
1
1
1
1
1
1
1
1
1
1
1
1
1
1
1
1
1
1
1
1
1
1
1
1
1
1
1
1
1
1
1
1
1
1
1
1
1
1
1.00009
1.07845
1.80187
2.12129
2.14587
2.13808
2.13087
2.12383
2.1165
1
1
1
1
1
1
1
1
1
1
1
1
1
1
1
1
1
1
1
1
1
1
1
1
1
1
1
1
1
1
1
1
1
1
1
1
1
1
1
1
1.00162
1.27166
1.94893
2.13016
2.12625
2.11979
2.11337
2.10656
1
1
1
1
1
1
1
1
1
1
1
1
1
1
1
1
1
1
1
1
1
1
1
1
1
1
1
1
1
1
1
1
1
1
1
1
1
1
1
1
1.00001
1.01746
1.52107
2.03199
2.11564
2.10908
2.10246
2.09657
1
1
1
1
1
1
1
1
1
1
1
1
1
1
1
1
1
1
1
1
1
1
1
1
1
1
1
1
1
1
1
1
1
1
1
1
1
1
1
1
1
1.00018
1.0848
1.7589
2.06961
2.10544
2.09669
2.08877
1
1
1
1
1
1
1
1
1
1
1
1
1
1
1
1
1
1
1
1
1
1
1
1
1
1
1
1
1
1
1
1
1
1
1
1
1
1
1
1
1
1
1.00197
1.24479
1.8887
2.08733
2.08711
2.08032
1
1
1
1
1
1
1
1
1
1
1
1
1
1
1
1
1
1
1
1
1
1
1
1
1
1
1
1
1
1
1
1
1
1
1
1
1
1
1
1
1
1
1.00001
1.01442
1.44701
1.97092
2.0746
2.07029
1
1
1
1
1
1
1
1
1
1
1
1
1
1
1
1
1
1
1
1
1
1
1
1
1
1
1
1
1
1
1
1
1
1
1
1
1
1
1
1
1
1
1
1.00015
1.06008
1.64737
2.01463
2.06525
1
1
1
1
1
1
1
1
1
1
1
1
1
1
1
1
1
1
1
1
1
1
1
1
1
1
1
1
1
1
1
1
1
1
1
1
1
1
1
1
1
1
1
1
1.00117
1.16386
1.79767
2.02897
1
1
1
1
1
1
1
1
1
1
1
1
1
1
1
1
1
1
1
1
1
1
1
1
1
1
1
1
1
1
1
1
1
1
1
1
1
1
1
1
1
1
1
1
1.00001
1.00677
1.31952
1.8773
1
1
1
1
1
1
1
1
1
1
1
1
1
1
1
1
1
1
1
1
1
1
1
1
1
1
1
1
1
1
1
1
1
1
1
1
1
1
1
1
1
1
1
1
1
1.00006
1.02728
1.48156
1
1
1
1
1
1
1
1
1
1
1
1
1
1
1
1
1
1
1
1
1
1
1
1
1
1
1
1
1
1
1
1
1
1
1
1
1
1
1
1
1
1
1
1
1
1
1.00038
1.07714
1
1
1
1
1
1
1
1
1
1
1
1
1
1
1
1
1
1
1
1
1
1
1
1
1
1
1
1
1
1
1
1
1
1
1
1
1
1
1
1
1
1
1
1
1
1
1
1.0018
1
1
1
1
1
1
1
1
1
1
1
1
1
1
1
1
1
1
1
1
1
1
1
1
1
1
1
1
1
1
1
1
1
1
1
1
1
1
1
1
1
1
1
1
1
1
1
1.00001
1
1
1
1
1
1
1
1
1
1
1
1
1
1
1
1
1
1
1
1
1
1
1
1
1
1
1
1
1
1
1
1
1
1
1
1
1
1
1
1
1
1
1
1
1
1
1
1
1
1
1
1
1
1
1
1
1
1
1
1
1
1
1
1
1
1
1
1
1
1
1
1
1
1
1
1
1
1
1
1
1
1
1
1
1
1
1
1
1
1
1
1
1
1
1
1
1
1
1
1
1
1
1
1
1
1
1
1
1
1
1
1
1
1
1
1
1
1
1
1
1
1
1
1
1
1
1
1
1
1
1
1
1
1
1
1
1
1
1
1
1
1
1
1
1
1
1
1
1
1
1
1
1
1
1
1
1
1
1
1
1
1
1
1
1
1
1
1
1
1
1
1
1
1
1
1
1
1
1
1
1
1
1
1
1
1
1
1
1
1
1
1
1
1
1
1
1
1
1
1
1
1
1
1
1
1
1
1
1
1
1
1
1
1
1
1
1
1
1
1
1
1
1
1
1
1
1
1
1
1
1
1
1
1
1
1
1
1
1
1
1
1
1
1
1
1
1
1
1
1
1
1
1
1
1
1
1
1
1
1
1
1
1
1
1
1
1
1
1
1
1
1
1
1
1
1
1
1
1
1
1
1
1
1
1
1
1
1
1
1
1
1
1
1
1
1
1
1
1
1
1
1
1
1
1
1
1
1
1
1
1
1
1
1
1
1
1
1
1
1
1
1
1
1
1
1
1
1
1
1
1
1
1
1
1
1
1
1
1
1
1
1
1
1
1
1
1
1
1
1
1
1
1
1
1
1
1
1
1
1
1
1
1
1
1
1
1
1
1
1
1
1
1
1
1
1
1
1
1
1
1
1
1
1
1
1
1
1
1
1
1
1
1
1
1
1
1
1
1
1
1
1
1
1
1
1
1
1
1
1
1
1
1
1
1
1
1
1
1
1
1
1
1
1
1
1
1
1
1
1
1
1
1
1
1
1
1
1
1
1
1
1
1
1
1
1
1
1
1
1
1
1
1
1
1
1
1
1
1
1
1
1
1
1
1
1
1
1
1
1
1
1
1
1
1
1
1
1
1
1
1
1
1
1
1
1
1
1
1
1
1
1
1
1
1
1
1
1
1
1
1
1
1
1
1
1
1
1
1
1
1
1
1
1
1
1
1
1
1
1
1
1
1
1
1
1
1
1
1
1
1
1
1
1
1
1
1
1
1
1
1
1
1
1
1
1
1
1
1
1
1
1
1
1
1
1
1
1
1
1
1
1
1
1
1
1
1
1
1
1
1
1
1
1
1
1
1
1
1
1
1
1
1
1
1
1
1
1
1
1
1
1
1
1
1
1
1
1
1
1
1
1
1
1
1
1
1
1
1
1
1
1
1
1
1
1
1
1
1
1
1
1
1
1
1
1
1
1
1
1
1
1
1
1
1
1
1
1
1
1
1
1
1
1
1
1
1
1
1
1
1
1
1
1
1
1
1
1
1
1
1
1
1
1
1
1
1
1
1
1
1
1
1
1
1
1
1
1
1
1
1
1
1
1
1
1
1
1
1
1
1
1
1
1
1
1
1
1
1
1
1
1
1
1
1
1
1
1
1
1
1
1
1
1
1
1
1
1
1
1
1.56756
0.931687
0.728573
0.863782
0.901941
0.990992
1.09269
1.16614
1.22134
1.26359
1.31744
1.35548
1.38769
1.44797
1.54919
1.62421
1.62398
1.61114
1.60194
1.6117
1.64659
1.67642
1.67674
1.65355
1.61696
1.6143
1.63322
1.67407
1.69441
1.69392
1.68343
1.65996
1.64521
1.6449
1.64811
1.6544
1.66235
1.66818
1.66696
1.6645
1.66344
1.66295
1.66469
1.66892
1.67282
1.67803
1.68219
1.68262
1.68302
1.68264
1.68166
1.67987
1.67711
1.67528
1.67502
1.67465
1.67467
1.67494
1.67534
1.67519
2.27468
2.83176
2.82304
2.81117
2.80941
2.81187
2.81371
2.81384
2.8122
2.80739
2.79924
2.78963
2.7805
2.77221
2.7638
2.754
2.74252
2.73025
2.7188
2.70966
2.70325
2.69852
2.69345
2.68637
2.67644
2.66505
2.65408
2.64471
2.6374
2.63169
2.62501
2.61457
2.60114
2.58733
2.57438
2.56311
2.55433
2.54841
2.54491
2.54127
2.53374
2.52407
2.51405
2.50356
2.49372
2.48488
2.47791
2.4743
2.47285
2.47055
2.46558
2.45775
2.44819
2.43723
2.42514
2.41334
2.40232
2.39203
2.38337
2.37708
2.37333
2.37112
2.36718
2.36046
2.35115
2.33708
2.32483
2.31709
2.31129
2.3072
2.30578
2.30557
2.30504
2.30098
2.29358
2.28457
2.27108
2.25692
2.24655
2.23872
2.23134
2.22451
2.21781
2.21076
2.20381
2.19753
2.19247
2.18845
2.18457
2.18049
2.17644
2.17224
2.16697
2.1596
2.15025
2.14301
2.1382
2.13416
2.12994
2.12601
2.12167
2.116
2.10909
2.099
2.08641
2.07717
2.0718
2.0678
2.06491
2.06366
2.0622
2.05862
2.05375
2.04679
2.0375
2.02843
2.02074
2.01452
2.00945
2.00527
2.00164
1.99754
1.99347
1.98913
1.98442
1.97996
1.97594
1.97184
1.96758
1.9636
1.96177
1.95831
1.80348
1.39288
1.25425
1.20231
1.07879
0.998659
0.999341
1.00468
1.00648
1.01415
1.04728
1.09896
1.14397
1.19899
1.27052
1.33557
1.37738
1.40861
1.43191
1.45636
1.50054
1.55055
1.56662
1.56262
1.55927
1.56269
1.5802
1.61561
1.63055
1.62877
1.62445
1.61522
1.61057
1.61253
1.62046
1.62747
1.63117
1.63478
1.63468
1.63461
1.63683
1.64029
1.6442
1.64831
1.65086
1.65459
1.65802
1.65896
1.65937
1.65868
1.65716
1.65648
1.65589
1.65613
1.65827
1.65939
1.65958
1.65918
1.65837
1.65739
2.23501
2.8149
2.81665
2.80423
2.79406
2.79288
2.79269
2.79195
2.78925
2.78389
2.77635
2.76764
2.75821
2.74821
2.73815
2.72825
2.7182
2.70753
2.69654
2.6859
2.6763
2.66887
2.66355
2.65915
2.65488
2.64989
2.64363
2.63594
2.62714
2.61766
2.60734
2.59546
2.58252
2.56953
2.55706
2.54578
2.53655
2.53006
2.52611
2.52242
2.51573
2.50695
2.49762
2.4886
2.48057
2.47344
2.46834
2.46501
2.46186
2.45776
2.4526
2.44666
2.43999
2.43236
2.4237
2.41379
2.40245
2.39051
2.37932
2.36954
2.36089
2.35389
2.34849
2.34369
2.33877
2.33326
2.3264
2.31791
2.30977
2.30353
2.29888
2.29508
2.29134
2.28675
2.28167
2.27496
2.26733
2.25844
2.24729
2.23588
2.22681
2.21945
2.21305
2.20727
2.20151
2.19561
2.19004
2.18461
2.17889
2.17333
2.1676
2.16183
2.15676
2.15185
2.14743
2.1436
2.13884
2.13337
2.12787
2.12245
2.11668
2.11016
2.10338
2.09564
2.08652
2.07772
2.07045
2.0654
2.06188
2.05881
2.05577
2.0528
2.04937
2.04422
2.03768
2.02999
2.02169
2.01372
2.00692
2.00162
1.99734
1.99405
1.99064
1.98695
1.98295
1.97909
1.97545
1.97168
1.96766
1.96377
1.96047
1.95555
1.91634
1.68171
1.53403
1.40512
1.27311
1.17107
1.14656
1.1072
1.0671
1.05439
1.04492
1.04522
1.0595
1.09143
1.12046
1.13665
1.15751
1.19614
1.24851
1.2866
1.32452
1.37027
1.4101
1.43708
1.4651
1.48779
1.50361
1.52294
1.53573
1.53689
1.5391
1.54383
1.54803
1.55538
1.56672
1.57301
1.57458
1.57442
1.57506
1.57772
1.58237
1.58779
1.59142
1.59383
1.59683
1.60289
1.60916
1.61185
1.61336
1.6134
1.61159
1.60963
1.60991
1.611
1.61415
1.6182
1.61922
1.61823
1.61536
1.6172
2.06149
2.72
2.76677
2.74325
2.7279
2.72306
2.72215
2.72134
2.71843
2.7131
2.7065
2.70029
2.6945
2.68634
2.67623
2.66605
2.65684
2.6489
2.64186
2.63383
2.62317
2.6108
2.59927
2.59021
2.58546
2.58493
2.58591
2.58644
2.5847
2.57924
2.57033
2.55848
2.54504
2.53146
2.51864
2.50725
2.49793
2.49113
2.48683
2.48208
2.47493
2.46712
2.45786
2.44789
2.43961
2.43326
2.42991
2.42852
2.42463
2.41905
2.41347
2.40799
2.40301
2.39849
2.39432
2.39013
2.38498
2.37756
2.36749
2.35513
2.34041
2.32555
2.31398
2.30654
2.30297
2.30352
2.30361
2.30077
2.29667
2.29096
2.28259
2.27236
2.26348
2.25696
2.2516
2.24805
2.24661
2.24207
2.23485
2.22523
2.21305
2.20187
2.19416
2.18817
2.18454
2.18263
2.17896
2.1734
2.16714
2.15932
2.14989
2.14106
2.13422
2.1304
2.1292
2.12913
2.12813
2.12548
2.12137
2.11484
2.1059
2.09633
2.08776
2.08134
2.0762
2.07111
2.06553
2.05889
2.05173
2.0459
2.04199
2.03844
2.03456
2.03141
2.02901
2.02475
2.01921
2.01176
2.0025
1.99362
1.9874
1.98293
1.97891
1.97554
1.9729
1.9706
1.96854
1.96655
1.9641
1.96065
1.95565
1.94749
1.99257
1.80544
1.68826
1.58137
1.44024
1.35331
1.30969
1.25701
1.20904
1.19661
1.17602
1.13457
1.1173
1.11143
1.10284
1.10609
1.11781
1.12142
1.13
1.1504
1.19032
1.23969
1.2826
1.31691
1.35708
1.39414
1.40865
1.4168
1.43152
1.44839
1.46322
1.48077
1.49569
1.50515
1.51183
1.51476
1.5153
1.51591
1.51901
1.52445
1.52859
1.53088
1.53099
1.53131
1.53434
1.54147
1.54829
1.55249
1.55506
1.55676
1.55718
1.55616
1.55577
1.55726
1.56052
1.56529
1.56744
1.56676
1.57137
1.58824
1.80735
2.51018
2.68024
2.64062
2.61722
2.61361
2.61188
2.61049
2.60635
2.60013
2.59398
2.58867
2.58446
2.57971
2.57324
2.56589
2.55839
2.55123
2.54507
2.54007
2.535
2.52683
2.51675
2.50656
2.49804
2.49406
2.49365
2.49491
2.49653
2.49621
2.49246
2.48512
2.4757
2.46439
2.45252
2.44162
2.43202
2.42408
2.41843
2.41417
2.41
2.40563
2.40093
2.39494
2.38769
2.38105
2.37621
2.37169
2.36715
2.3631
2.35971
2.35632
2.35196
2.34708
2.34347
2.34008
2.3367
2.33207
2.32434
2.31421
2.30266
2.29016
2.27787
2.26839
2.26266
2.26093
2.26065
2.25976
2.25745
2.2535
2.24661
2.2367
2.22703
2.21973
2.21454
2.21128
2.21076
2.2092
2.2051
2.19944
2.19142
2.18005
2.16859
2.1606
2.1549
2.15176
2.14877
2.14425
2.1392
2.13313
2.12529
2.11601
2.10784
2.10324
2.10104
2.10008
2.10008
2.09956
2.0975
2.09366
2.08727
2.07832
2.06883
2.0614
2.05602
2.05159
2.04717
2.04192
2.03463
2.0263
2.0197
2.01527
2.01226
2.0102
2.00933
2.00841
2.00512
2.00004
1.99329
1.98337
1.9722
1.96459
1.96018
1.95712
1.95489
1.95328
1.95222
1.95142
1.95046
1.94897
1.94623
1.93687
2.05504
1.90187
1.78129
1.69014
1.58319
1.49651
1.44733
1.38452
1.3204
1.29164
1.26483
1.23012
1.2065
1.19153
1.17531
1.1653
1.15901
1.14798
1.14615
1.14888
1.15186
1.16188
1.1802
1.20533
1.23795
1.28248
1.31854
1.33589
1.36012
1.39038
1.40843
1.42516
1.44662
1.45645
1.4619
1.46716
1.47305
1.4774
1.48297
1.49183
1.4992
1.50168
1.50123
1.50135
1.50365
1.50707
1.51058
1.51409
1.51641
1.51753
1.51837
1.5194
1.52047
1.52103
1.52166
1.52284
1.52505
1.53152
1.55856
1.65667
1.78719
2.19813
2.4977
2.55519
2.52296
2.5045
2.50129
2.50143
2.50008
2.4951
2.49028
2.48627
2.48365
2.48155
2.47911
2.47544
2.47086
2.46475
2.45807
2.45228
2.44771
2.44329
2.43703
2.42979
2.42208
2.41435
2.41001
2.40897
2.40924
2.41011
2.40944
2.40632
2.40117
2.39416
2.386
2.37749
2.36895
2.36024
2.35173
2.34488
2.34028
2.3371
2.33501
2.33323
2.33068
2.32668
2.32008
2.31135
2.30426
2.30045
2.29816
2.29665
2.29527
2.29323
2.28945
2.28411
2.27858
2.27219
2.26453
2.2564
2.24795
2.23936
2.23161
2.22518
2.22084
2.21749
2.21434
2.2114
2.20818
2.20291
2.19469
2.18613
2.17958
2.1751
2.17184
2.16958
2.16808
2.16604
2.16302
2.15921
2.15433
2.1479
2.13952
2.13026
2.12235
2.11605
2.11043
2.10493
2.0994
2.09379
2.08825
2.08354
2.07956
2.07507
2.07013
2.06641
2.06414
2.06219
2.06
2.05732
2.05385
2.0499
2.0456
2.03993
2.03281
2.0258
2.01979
2.01373
2.0063
1.99807
1.99162
1.98809
1.98602
1.98444
1.98374
1.9836
1.98222
1.9788
1.97413
1.96687
1.95537
1.9438
1.93724
1.93382
1.93156
1.93027
1.92953
1.9288
1.9282
1.92756
1.9266
1.91909
2.09643
1.97426
1.86921
1.77249
1.67867
1.60705
1.54736
1.48849
1.42141
1.38331
1.34883
1.31289
1.29114
1.27332
1.25845
1.24647
1.2293
1.20354
1.18598
1.17607
1.16789
1.16862
1.17803
1.18026
1.18245
1.19192
1.20865
1.22445
1.24763
1.29255
1.33664
1.36821
1.40192
1.4239
1.4339
1.44092
1.4497
1.4566
1.46296
1.47114
1.47726
1.48005
1.4824
1.48574
1.4875
1.48872
1.48959
1.4916
1.49369
1.49559
1.49914
1.50237
1.50339
1.50361
1.50287
1.50343
1.5083
1.5357
1.64539
1.8253
1.87934
1.9589
2.25366
2.42695
2.46763
2.45215
2.43667
2.4325
2.43188
2.4289
2.42438
2.41957
2.41569
2.41354
2.4131
2.412
2.40953
2.4059
2.40105
2.39711
2.39363
2.38993
2.38559
2.38009
2.37388
2.36646
2.3586
2.35374
2.35152
2.34992
2.34823
2.346
2.34311
2.33933
2.33469
2.32916
2.32251
2.3149
2.30657
2.29835
2.29249
2.289
2.28695
2.28647
2.28544
2.28236
2.27698
2.26792
2.2581
2.25232
2.24931
2.24767
2.2465
2.2448
2.24091
2.23363
2.22538
2.21849
2.21229
2.20643
2.2011
2.19659
2.19314
2.19028
2.18671
2.18199
2.17629
2.16971
2.16233
2.15422
2.14719
2.14315
2.14092
2.13883
2.13617
2.13272
2.12894
2.12559
2.12248
2.11943
2.11609
2.11212
2.1068
2.09928
2.09044
2.082
2.0747
2.0684
2.0629
2.0585
2.05531
2.05296
2.05059
2.04726
2.04143
2.03398
2.02845
2.02486
2.02218
2.02036
2.01921
2.0182
2.0168
2.01389
2.00848
2
1.99027
1.98172
1.97455
1.96881
1.96466
1.96149
1.95917
1.95771
1.95662
1.95593
1.955
1.95263
1.94896
1.94336
1.93468
1.92457
1.91608
1.91054
1.90748
1.90556
1.90452
1.90371
1.90298
1.90222
1.9008
1.8939
2.13072
2.03112
1.93806
1.84316
1.76252
1.69717
1.63032
1.56559
1.51195
1.46803
1.43003
1.39449
1.3705
1.34566
1.3203
1.30331
1.28618
1.2613
1.24093
1.23517
1.22267
1.21306
1.21217
1.20729
1.19913
1.19695
1.19044
1.18795
1.1898
1.20032
1.22794
1.26595
1.3097
1.35606
1.39391
1.4114
1.42332
1.43487
1.44562
1.45482
1.46006
1.4645
1.47153
1.47933
1.48285
1.48335
1.483
1.4822
1.48342
1.48551
1.48943
1.49388
1.49462
1.49464
1.49571
1.50167
1.53273
1.64617
1.80892
1.91261
1.93212
1.9315
2.00871
2.24876
2.39718
2.43069
2.42061
2.41049
2.40308
2.3973
2.39341
2.39018
2.3882
2.38669
2.38542
2.38302
2.38038
2.37687
2.37196
2.36778
2.3649
2.36246
2.36055
2.35751
2.35293
2.34699
2.33884
2.33012
2.3244
2.32115
2.31875
2.3171
2.31548
2.31212
2.30751
2.30223
2.2967
2.29108
2.28495
2.27801
2.27128
2.26717
2.26543
2.2651
2.26347
2.25955
2.25401
2.24606
2.23639
2.22739
2.22145
2.21787
2.21482
2.21102
2.2051
2.1965
2.18715
2.18039
2.17615
2.17263
2.17007
2.17003
2.1712
2.17072
2.16686
2.16134
2.15192
2.13831
2.12604
2.11869
2.11543
2.11381
2.11348
2.11315
2.11114
2.10773
2.1032
2.0986
2.09505
2.09207
2.0888
2.08472
2.07922
2.07169
2.06287
2.05429
2.04708
2.04175
2.03817
2.03582
2.03509
2.03412
2.03161
2.02695
2.01808
2.00735
1.99925
1.99472
1.9927
1.99171
1.99144
1.99205
1.99198
1.99018
1.98627
1.97736
1.96436
1.95377
1.94791
1.94467
1.94226
1.93988
1.9372
1.93421
1.93201
1.93052
1.92912
1.92741
1.9243
1.91902
1.91244
1.90593
1.89945
1.8925
1.88648
1.88313
1.88117
1.87978
1.87886
1.87769
1.87483
1.86853
2.15676
2.07448
1.99116
1.90386
1.83482
1.76908
1.7042
1.6386
1.59324
1.54618
1.49927
1.46654
1.44241
1.41779
1.38977
1.36515
1.34342
1.31452
1.29401
1.28736
1.27828
1.26331
1.25559
1.24928
1.23663
1.22229
1.21412
1.20435
1.19522
1.19695
1.20207
1.20928
1.22159
1.2426
1.27406
1.30998
1.3449
1.37462
1.40058
1.42604
1.44074
1.44887
1.46025
1.47422
1.48152
1.483
1.48326
1.48212
1.47943
1.47992
1.48252
1.48623
1.48894
1.49096
1.49725
1.54362
1.65976
1.81023
1.91433
1.93939
1.93915
1.93004
1.93029
2.01918
2.25329
2.38713
2.42146
2.40874
2.39463
2.38431
2.38047
2.37929
2.38015
2.38017
2.37733
2.37406
2.36995
2.36479
2.35912
2.354
2.35005
2.34691
2.34456
2.3421
2.33881
2.33449
2.32848
2.32021
2.31198
2.30656
2.30322
2.30105
2.29933
2.29616
2.29191
2.28755
2.28369
2.27948
2.27493
2.27024
2.2645
2.25757
2.25219
2.24846
2.24437
2.24009
2.23575
2.23067
2.22387
2.21495
2.20506
2.19687
2.19145
2.1868
2.18134
2.17507
2.16835
2.16251
2.15876
2.15652
2.15599
2.15819
2.15933
2.15662
2.15185
2.14436
2.13312
2.11899
2.10799
2.10261
2.09992
2.09885
2.09917
2.09925
2.09802
2.09523
2.09056
2.08396
2.07717
2.07128
2.06574
2.06015
2.05451
2.0485
2.04267
2.03741
2.03281
2.02908
2.02646
2.02472
2.0228
2.01955
2.01383
2.00564
1.99698
1.98939
1.98306
1.97829
1.97556
1.97441
1.97431
1.97506
1.97447
1.97203
1.96664
1.95741
1.94645
1.93751
1.93167
1.92799
1.92544
1.92322
1.92092
1.91823
1.91498
1.91224
1.91073
1.90831
1.90362
1.89817
1.89361
1.88972
1.88558
1.88033
1.87372
1.86768
1.86442
1.86276
1.86098
1.85759
1.85269
1.84831
2.17968
2.10922
2.03194
1.95757
1.89443
1.83111
1.76437
1.7097
1.66044
1.61558
1.56911
1.53676
1.50737
1.47361
1.44615
1.42059
1.39689
1.37277
1.35184
1.33777
1.32478
1.30838
1.3
1.29417
1.28302
1.26094
1.24954
1.24306
1.23218
1.22448
1.22362
1.22314
1.22224
1.21999
1.22027
1.22408
1.23798
1.26493
1.30292
1.34569
1.39272
1.42688
1.44334
1.45583
1.46544
1.47576
1.48037
1.48073
1.48163
1.48123
1.47973
1.47985
1.48307
1.49162
1.54126
1.68922
1.81582
1.90901
1.93769
1.93786
1.93146
1.92542
1.92541
1.93334
2.03358
2.25549
2.3942
2.40916
2.39519
2.38169
2.37584
2.37466
2.3767
2.37854
2.37546
2.37116
2.36573
2.35959
2.35388
2.34848
2.3435
2.3392
2.33566
2.33288
2.33011
2.32646
2.32193
2.31619
2.30889
2.30192
2.29679
2.29262
2.28866
2.28476
2.28103
2.27781
2.27494
2.27173
2.26816
2.26422
2.25912
2.25172
2.2418
2.23384
2.2288
2.22467
2.22095
2.21702
2.21269
2.20739
2.19958
2.18943
2.18048
2.17438
2.16979
2.16562
2.16159
2.15741
2.15374
2.15147
2.15051
2.15
2.1475
2.14322
2.13725
2.12926
2.11923
2.10994
2.10325
2.09868
2.09578
2.09431
2.09333
2.09188
2.08967
2.08581
2.07959
2.07123
2.06268
2.05505
2.0485
2.04256
2.03737
2.03403
2.03142
2.02943
2.02772
2.02518
2.02164
2.01687
2.01023
2.00273
1.99548
1.98861
1.98299
1.97943
1.9765
1.97341
1.97001
1.96686
1.96485
1.96253
1.95869
1.95356
1.94791
1.94144
1.93549
1.9303
1.92505
1.91999
1.91615
1.91364
1.91159
1.90932
1.90615
1.90112
1.8942
1.88855
1.88563
1.88286
1.88006
1.87748
1.87494
1.87203
1.86809
1.86227
1.85498
1.848
1.84303
1.83989
1.83778
1.83559
2.19793
2.13419
2.06394
2.00223
1.9424
1.88009
1.819
1.77115
1.72174
1.67434
1.63095
1.59826
1.56489
1.53215
1.50091
1.4713
1.44141
1.42052
1.40371
1.38844
1.37735
1.361
1.34471
1.33579
1.32526
1.30323
1.27964
1.27376
1.26825
1.25854
1.25194
1.24834
1.24426
1.23914
1.22863
1.22242
1.22246
1.22506
1.23311
1.24945
1.27992
1.32194
1.36522
1.39862
1.41804
1.43709
1.45758
1.46998
1.47608
1.48096
1.48129
1.48058
1.49336
1.54605
1.69615
1.83316
1.89417
1.93046
1.93631
1.93535
1.931
1.92812
1.9288
1.93136
1.94218
2.03745
2.24453
2.3807
2.39568
2.38713
2.37588
2.3725
2.37326
2.37522
2.37248
2.3676
2.36193
2.35473
2.34945
2.34447
2.33975
2.33496
2.33024
2.32623
2.32286
2.31965
2.31576
2.31102
2.30568
2.30035
2.29523
2.28978
2.28411
2.27874
2.27394
2.26953
2.26542
2.26284
2.26118
2.25747
2.25239
2.24623
2.23692
2.22549
2.21748
2.21245
2.20844
2.20584
2.20429
2.20089
2.19641
2.18935
2.1796
2.17195
2.16762
2.16438
2.16182
2.15911
2.15551
2.1506
2.14465
2.13832
2.13278
2.12754
2.12107
2.11368
2.10779
2.10452
2.10204
2.10019
2.09798
2.09452
2.08977
2.08401
2.07795
2.0727
2.0671
2.0603
2.05241
2.04466
2.03797
2.03302
2.02994
2.02801
2.02772
2.02775
2.02599
2.02257
2.01683
2.00753
1.99655
1.9875
1.98168
1.97814
1.97615
1.97546
1.97547
1.97383
1.97014
1.9639
1.95554
1.94773
1.94158
1.9364
1.93239
1.92992
1.92781
1.92557
1.92258
1.91858
1.91407
1.9104
1.9076
1.90469
1.9
1.89206
1.88285
1.8766
1.87319
1.87106
1.86965
1.86902
1.86829
1.86648
1.864
1.85973
1.85109
1.84002
1.83293
1.82946
1.82829
1.82619
2.21323
2.15452
2.0925
2.03803
1.98144
1.91962
1.86982
1.82141
1.77402
1.72367
1.68822
1.65219
1.61541
1.57849
1.55091
1.52289
1.49396
1.47115
1.45173
1.42891
1.41744
1.40751
1.38979
1.3736
1.36265