/*--------------------------------*- C++ -*----------------------------------*\
  =========                 |
  \\      /  F ield         | OpenFOAM: The Open Source CFD Toolbox
   \\    /   O peration     | Website:  https://openfoam.org
    \\  /    A nd           | Version:  7
     \\/     M anipulation  |
\*---------------------------------------------------------------------------*/
FoamFile
{
    version     2.0;
    format      ascii;
    class       volVectorField;
    location    "2.4";
    object      U;
}
// * * * * * * * * * * * * * * * * * * * * * * * * * * * * * * * * * * * * * //

dimensions      [0 1 -1 0 0 0 0];

internalField   nonuniform List<vector> 
4032
(
(3 -1.27292e-17 0)
(3 2.29804e-16 0)
(3 1.61111e-16 0)
(3 -2.89953e-17 0)
(3 -7.87244e-17 0)
(3 -1.70835e-16 0)
(3 -1.61802e-16 0)
(3 5.0415e-16 0)
(3 7.68989e-16 0)
(3 6.81039e-16 0)
(3 1.33132e-16 0)
(3 2.34791e-17 0)
(1.21235 0.0156465 0)
(0.726616 0.0153272 0)
(0.669648 0.0217888 0)
(0.613425 0.0241606 0)
(0.555159 0.0258349 0)
(0.495431 0.0274149 0)
(0.433221 0.029198 0)
(0.36765 0.0313695 0)
(0.297682 0.0341504 0)
(0.221225 0.0381784 0)
(0.137541 0.0409822 0)
(0.0508797 0.0456636 0)
(3 1.73602e-17 0)
(3 3.55461e-16 0)
(3 3.369e-17 0)
(3 2.18647e-16 0)
(3 3.33275e-16 0)
(3 3.5035e-16 0)
(3 3.08338e-16 0)
(3 6.35882e-16 0)
(3 8.59625e-16 0)
(3 6.92819e-16 0)
(3 7.08279e-16 0)
(3 9.37615e-17 0)
(1.23871 0.071975 0)
(0.720687 0.0618214 0)
(0.657121 0.0677763 0)
(0.60005 0.0735833 0)
(0.540889 0.0778078 0)
(0.480952 0.082426 0)
(0.419134 0.0880578 0)
(0.35464 0.095287 0)
(0.2865 0.104352 0)
(0.213042 0.117396 0)
(0.132159 0.126835 0)
(0.0492633 0.140913 0)
(3 3.6348e-17 0)
(3 -4.60268e-16 0)
(3 3.30219e-17 0)
(3 6.7907e-16 0)
(3 1.49471e-15 0)
(3 2.1178e-15 0)
(3 1.75784e-15 0)
(3 4.30885e-16 0)
(3 -2.04429e-16 0)
(3 -1.96826e-16 0)
(3 3.69242e-16 0)
(3 -4.89206e-16 0)
(1.31921 0.126481 0)
(0.732088 0.109025 0)
(0.661718 0.116601 0)
(0.603055 0.125541 0)
(0.541855 0.132218 0)
(0.480257 0.139414 0)
(0.416848 0.148032 0)
(0.350875 0.159189 0)
(0.281433 0.172796 0)
(0.208435 0.193426 0)
(0.127826 0.208656 0)
(0.0481426 0.231057 0)
(3 -6.96851e-17 0)
(3 -1.25751e-16 0)
(3 1.61622e-16 0)
(3 8.38873e-16 0)
(3 8.74707e-16 0)
(3 1.1943e-15 0)
(3 4.70933e-16 0)
(3 1.73395e-16 0)
(3 7.18154e-16 0)
(3 7.19603e-17 0)
(3 -2.37505e-16 0)
(3 -7.14459e-16 0)
(1.44836 0.178068 0)
(0.748235 0.159632 0)
(0.668996 0.166707 0)
(0.610972 0.178245 0)
(0.549669 0.187484 0)
(0.48793 0.197978 0)
(0.423519 0.210734 0)
(0.355595 0.227265 0)
(0.283205 0.245663 0)
(0.208779 0.273094 0)
(0.126636 0.293419 0)
(0.0461249 0.320532 0)
(3 -1.05287e-16 0)
(3 5.67625e-16 0)
(3 4.53214e-16 0)
(3 2.35081e-16 0)
(3 1.848e-16 0)
(3 -2.83363e-16 0)
(3 -6.24552e-16 0)
(3 -2.43055e-16 0)
(3 4.0211e-16 0)
(3 9.58528e-16 0)
(3 5.25673e-16 0)
(3 7.87454e-16 0)
(1.6386 0.225663 0)
(0.7718 0.214832 0)
(0.678242 0.217334 0)
(0.622539 0.230078 0)
(0.564003 0.241259 0)
(0.506105 0.254983 0)
(0.445672 0.272294 0)
(0.381575 0.295269 0)
(0.310662 0.319179 0)
(0.235981 0.354085 0)
(0.147088 0.382737 0)
(0.0560346 0.417199 0)
(3 1.00102e-16 0)
(3 2.96818e-17 0)
(3 4.14656e-16 0)
(3 2.53655e-16 0)
(3 -1.55019e-17 0)
(3 -2.20861e-16 0)
(3 4.32805e-17 0)
(3 2.43307e-16 0)
(3 2.23027e-16 0)
(3 -6.69773e-17 0)
(3 1.08934e-16 0)
(3 -1.70271e-15 0)
(1.89906 0.270666 0)
(0.805244 0.279136 0)
(0.685296 0.269746 0)
(0.628168 0.282194 0)
(0.569374 0.294698 0)
(0.514042 0.311014 0)
(0.458175 0.332514 0)
(0.400086 0.3634 0)
(0.330631 0.39764 0)
(0.254232 0.446264 0)
(0.159209 0.492557 0)
(0.0548127 0.535234 0)
(3 2.35333e-16 0)
(3 -3.59175e-16 0)
(3 -2.80505e-16 0)
(3 -2.15511e-16 0)
(3 -4.51932e-16 0)
(3 -2.35255e-16 0)
(3 2.65863e-16 0)
(3 8.25927e-16 0)
(3 6.98403e-16 0)
(3 -5.00916e-16 0)
(3 -5.98722e-16 0)
(3 -1.25446e-15 0)
(2.25587 0.303034 0)
(0.861903 0.356956 0)
(0.707939 0.329391 0)
(0.655648 0.342116 0)
(0.598615 0.352699 0)
(0.543983 0.368084 0)
(0.489455 0.390629 0)
(0.435806 0.428834 0)
(0.376545 0.475132 0)
(0.311303 0.535955 0)
(0.225392 0.601243 0)
(0.0989892 0.673783 0)
(3 -5.3575e-17 0)
(3 -2.18352e-16 0)
(3 -5.60213e-16 0)
(3 -1.06618e-15 0)
(3 -9.99893e-16 0)
(3 -4.42196e-16 0)
(3 2.0463e-16 0)
(3 9.31998e-16 0)
(3 1.49157e-16 0)
(3 2.92465e-18 0)
(3 -1.23679e-16 0)
(3 -3.91881e-16 0)
(2.75753 0.241105 0)
(0.995013 0.43095 0)
(0.788496 0.364868 0)
(0.73839 0.380262 0)
(0.674066 0.401929 0)
(0.612424 0.423467 0)
(0.551227 0.448436 0)
(0.499472 0.490239 0)
(0.445014 0.543351 0)
(0.383987 0.629281 0)
(0.270429 0.759685 0)
(0.149788 0.933532 0)
(3 -3.60295e-17 0)
(3 -9.24941e-17 0)
(3 7.18907e-17 0)
(3 -1.01835e-16 0)
(3 -3.01566e-16 0)
(3 -6.88608e-16 0)
(3 -1.01016e-15 0)
(3 -1.55138e-15 0)
(3 -1.587e-15 0)
(3 -6.80593e-16 0)
(3 -1.05767e-16 0)
(3 -3.71009e-16 0)
(3.06404 0.0297067 0)
(1.19954 0.433744 0)
(0.851733 0.400445 0)
(0.809873 0.43891 0)
(0.756896 0.460614 0)
(0.698512 0.483536 0)
(0.637722 0.507031 0)
(0.585348 0.549015 0)
(0.532215 0.613511 0)
(0.492563 0.736081 0)
(0.461594 0.918847 0)
(0.579015 1.20761 0)
(3 -2.17895e-17 0)
(3 2.66224e-17 0)
(3 6.23776e-16 0)
(3 1.2177e-15 0)
(3 1.40455e-15 0)
(3 9.09396e-16 0)
(3 -4.61805e-16 0)
(3 -2.26451e-15 0)
(3 -1.76813e-15 0)
(3 -1.02934e-15 0)
(3 6.99008e-17 0)
(3 5.87436e-16 0)
(3.00535 5.12824e-05 0)
(1.40959 0.431112 0)
(0.850027 0.459518 0)
(0.80469 0.489387 0)
(0.767439 0.516354 0)
(0.734982 0.548535 0)
(0.698292 0.577404 0)
(0.661253 0.6188 0)
(0.632057 0.686709 0)
(0.625356 0.809763 0)
(0.685453 0.958077 0)
(0.969481 1.13385 0)
(3 -1.23733e-16 0)
(3 2.3968e-16 0)
(3 1.90413e-16 0)
(3 1.1017e-16 0)
(3 8.84617e-16 0)
(3 8.23521e-16 0)
(3 3.9481e-16 0)
(3 -4.28861e-16 0)
(3 -1.45882e-16 0)
(3 -1.75304e-16 0)
(3 -1.44654e-16 0)
(3 3.69407e-16 0)
(3.00003 -1.40321e-06 0)
(1.86054 0.475762 0)
(0.887533 0.525717 0)
(0.808651 0.521041 0)
(0.788689 0.547233 0)
(0.770675 0.581385 0)
(0.758809 0.618907 0)
(0.741063 0.662644 0)
(0.739422 0.730343 0)
(0.760975 0.836305 0)
(0.877297 0.958257 0)
(1.18421 1.06779 0)
(3 2.78956e-16 0)
(3 8.132e-16 0)
(3 2.45786e-16 0)
(3 -2.97822e-16 0)
(3 -4.60877e-16 0)
(3 -9.45685e-17 0)
(3 6.63056e-16 0)
(3 7.79469e-16 0)
(3 4.85098e-16 0)
(3 -5.75218e-16 0)
(3 -8.27122e-16 0)
(3 -2.6119e-16 0)
(3 -1.42362e-06 0)
(2.60476 0.369174 0)
(1.03536 0.606229 0)
(0.870195 0.553854 0)
(0.836678 0.571963 0)
(0.818372 0.605319 0)
(0.817914 0.648474 0)
(0.817299 0.697694 0)
(0.835344 0.762365 0)
(0.883282 0.845301 0)
(1.01887 0.937912 0)
(1.27514 1.00131 0)
(3 9.99472e-17 0)
(3 -3.34749e-17 0)
(3 2.80059e-16 0)
(3 3.95251e-16 0)
(3 2.45542e-16 0)
(3 1.93718e-16 0)
(3 2.23838e-16 0)
(3 1.29072e-16 0)
(3 -2.09151e-16 0)
(3 -4.89282e-16 0)
(3 -3.91979e-16 0)
(3 -4.77028e-16 0)
(3 -2.82657e-07 0)
(3.08374 0.0466128 0)
(1.35769 0.611174 0)
(0.974624 0.598331 0)
(0.922008 0.60515 0)
(0.888133 0.630394 0)
(0.881766 0.670188 0)
(0.88917 0.718202 0)
(0.916255 0.777542 0)
(0.98376 0.847753 0)
(1.12136 0.915452 0)
(1.33105 0.955395 0)
(3 1.32885e-16 0)
(3 -8.3871e-17 0)
(3 9.44578e-17 0)
(3 3.72749e-16 0)
(3 3.34233e-16 0)
(3 -3.51699e-17 0)
(3 -1.32751e-15 0)
(3 -1.42425e-15 0)
(3 -1.69833e-15 0)
(3 -4.61365e-16 0)
(3 6.04905e-17 0)
(3 1.24237e-16 0)
(3 -2.63223e-08 0)
(3.0083 0.000142578 0)
(1.73784 0.577428 0)
(1.00673 0.674588 0)
(0.958936 0.670021 0)
(0.938539 0.679298 0)
(0.936056 0.705255 0)
(0.950713 0.741541 0)
(0.98563 0.784585 0)
(1.05966 0.83739 0)
(1.18522 0.883816 0)
(1.35171 0.907069 0)
(3 3.43495e-17 0)
(3 7.31259e-17 0)
(3 -1.48709e-16 0)
(3 -2.07808e-16 0)
(3 -6.11561e-16 0)
(3 -6.49671e-16 0)
(3 -1.83048e-16 0)
(3 1.14087e-16 0)
(3 -3.89215e-17 0)
(3 -9.32547e-16 0)
(3 -7.08672e-16 0)
(3 -1.29145e-15 0)
(3 -7.24449e-10 0)
(3.00005 -1.37462e-06 0)
(2.5918 0.391529 0)
(1.14329 0.704964 0)
(1.01156 0.707534 0)
(1.00272 0.70616 0)
(0.998002 0.722561 0)
(1.01078 0.75393 0)
(1.0495 0.789875 0)
(1.124 0.83041 0)
(1.23378 0.863488 0)
(1.37 0.879081 0)
(3 -4.62959e-16 0)
(3 -3.87592e-16 0)
(3 -1.60778e-16 0)
(3 -1.2054e-16 0)
(3 1.19032e-16 0)
(3 5.42941e-16 0)
(3 1.42424e-15 0)
(3 1.38706e-15 0)
(3 1.44213e-15 0)
(3 -1.58106e-16 0)
(3 -1.46456e-15 0)
(3 -1.62974e-15 0)
(3 -1.50082e-12 0)
(3 -2.32504e-06 0)
(3.07065 0.0394627 0)
(1.47531 0.693453 0)
(1.07912 0.73976 0)
(1.07294 0.737911 0)
(1.05998 0.754196 0)
(1.07132 0.767864 0)
(1.10713 0.789966 0)
(1.1759 0.818174 0)
(1.26885 0.840059 0)
(1.3814 0.849448 0)
(3 -4.19212e-17 0)
(3 -4.02505e-16 0)
(3 -1.84838e-16 0)
(3 5.17327e-17 0)
(3 -1.273e-16 0)
(3 -1.51399e-16 0)
(3 -4.26897e-17 0)
(3 5.37753e-16 0)
(3 1.4473e-15 0)
(3 1.30351e-15 0)
(3 1.32253e-16 0)
(3 4.6595e-16 0)
(3 -1.62782e-15 0)
(3 -4.82014e-07 0)
(3.00522 0.000333975 0)
(2.12024 0.624265 0)
(1.15028 0.802515 0)
(1.11385 0.786526 0)
(1.11674 0.785241 0)
(1.12957 0.790905 0)
(1.16217 0.80353 0)
(1.22311 0.820213 0)
(1.30323 0.834212 0)
(1.39873 0.83923 0)
(3 -6.69786e-17 0)
(3 1.73317e-17 0)
(3 -1.15726e-16 0)
(3 -1.46513e-16 0)
(3 -2.54981e-16 0)
(3 -3.66839e-16 0)
(3 -4.4082e-16 0)
(3 4.88703e-16 0)
(3 8.20595e-16 0)
(3 8.06498e-16 0)
(3 6.92829e-16 0)
(3 8.38282e-16 0)
(3 6.12711e-16 0)
(3 -3.91656e-08 0)
(3.00002 7.01748e-07 0)
(3.01613 0.158007 0)
(1.44914 0.778314 0)
(1.17262 0.786231 0)
(1.19021 0.793176 0)
(1.20075 0.80105 0)
(1.22793 0.809039 0)
(1.27637 0.817984 0)
(1.34179 0.826133 0)
(1.42258 0.828408 0)
(3 4.08847e-17 0)
(3 4.38217e-16 0)
(3 3.16407e-16 0)
(3 1.14527e-17 0)
(3 7.20219e-16 0)
(3 1.30469e-15 0)
(3 1.15445e-15 0)
(3 8.69595e-16 0)
(3 1.06579e-15 0)
(3 1.1119e-15 0)
(3 1.14262e-15 0)
(3 6.13116e-16 0)
(3 5.95038e-16 0)
(3 -1.69465e-10 0)
(3 -7.79257e-07 0)
(3.02115 0.00303917 0)
(1.94463 0.706802 0)
(1.20759 0.837009 0)
(1.2043 0.831258 0)
(1.23637 0.834236 0)
(1.27237 0.84054 0)
(1.3182 0.845049 0)
(1.37509 0.845268 0)
(1.44321 0.840995 0)
(3 2.83481e-16 0)
(3 1.59688e-16 0)
(3 8.81858e-17 0)
(3 -1.06692e-17 0)
(3 4.03307e-16 0)
(3 4.0396e-16 0)
(3 1.9488e-16 0)
(3 4.88601e-17 0)
(3 6.06473e-16 0)
(3 1.0992e-15 0)
(3 9.86369e-16 0)
(3 2.21425e-16 0)
(3 6.71952e-16 0)
(3 -2.94407e-13 0)
(3 -1.44011e-07 0)
(3.00017 4.11309e-05 0)
(2.92345 0.255945 0)
(1.46683 0.841164 0)
(1.23913 0.818722 0)
(1.28251 0.829941 0)
(1.3173 0.841106 0)
(1.36287 0.845716 0)
(1.41483 0.844132 0)
(1.47287 0.83859 0)
(3 -1.52846e-16 0)
(3 -3.20585e-16 0)
(3 -5.26625e-17 0)
(3 -4.6666e-17 0)
(3 -4.60948e-16 0)
(3 -4.68844e-16 0)
(3 -4.39769e-16 0)
(3 -1.35776e-16 0)
(3 -8.75191e-16 0)
(3 -1.06976e-15 0)
(3 -6.72814e-16 0)
(3 9.6256e-17 0)
(3 8.65891e-16 0)
(3 6.84121e-16 0)
(3 -4.55438e-09 0)
(3 -1.8742e-07 0)
(3.02953 0.00840505 0)
(1.97265 0.735054 0)
(1.29283 0.868256 0)
(1.29759 0.864738 0)
(1.33627 0.866048 0)
(1.38168 0.867038 0)
(1.43236 0.864948 0)
(1.48671 0.859078 0)
(3 -1.12284e-16 0)
(3 -2.06007e-16 0)
(3 -1.47876e-16 0)
(3 -3.22078e-16 0)
(3 -7.30992e-16 0)
(3 -5.9519e-17 0)
(3 -1.07181e-16 0)
(3 7.93193e-17 0)
(3 -8.00297e-16 0)
(3 -6.83032e-16 0)
(3 1.96859e-16 0)
(3 1.24067e-15 0)
(3 1.8606e-15 0)
(3 1.52384e-15 0)
(3 -1.57717e-11 0)
(3 -5.66812e-08 0)
(3.00039 0.000190834 0)
(2.90464 0.264819 0)
(1.57138 0.885891 0)
(1.32904 0.858393 0)
(1.37059 0.859685 0)
(1.40801 0.861822 0)
(1.45455 0.861167 0)
(1.5065 0.856021 0)
(3 1.74028e-16 0)
(3 9.11326e-17 0)
(3 -3.31223e-16 0)
(3 -2.82029e-16 0)
(3 -3.56317e-16 0)
(3 -6.12604e-16 0)
(3 -5.5783e-16 0)
(3 -5.33749e-16 0)
(3 -5.79827e-17 0)
(3 7.18657e-16 0)
(3 5.69027e-16 0)
(3 3.26031e-16 0)
(3 7.33649e-17 0)
(3 4.10146e-17 0)
(3 -6.03819e-15 0)
(3 -6.61188e-09 0)
(3 2.31094e-07 0)
(3.02191 0.0114521 0)
(2.20287 0.72026 0)
(1.40355 0.903646 0)
(1.39311 0.895437 0)
(1.4285 0.886198 0)
(1.46718 0.880582 0)
(1.51432 0.87201 0)
(3 6.61385e-17 0)
(3 6.63613e-17 0)
(3 -9.05294e-17 0)
(3 1.11135e-16 0)
(3 1.11302e-16 0)
(3 2.90605e-17 0)
(3 2.76897e-16 0)
(3 5.00985e-16 0)
(3 1.14959e-15 0)
(3 1.13524e-15 0)
(3 4.58447e-16 0)
(3 -6.22904e-16 0)
(3 -9.41469e-16 0)
(3 -9.45521e-16 0)
(3 -1.08323e-15 0)
(3 -3.48395e-10 0)
(3 -3.30251e-10 0)
(3.00025 0.000292735 0)
(2.9725 0.177986 0)
(1.77166 0.869915 0)
(1.42684 0.904527 0)
(1.46858 0.894446 0)
(1.49791 0.88486 0)
(1.53644 0.873516 0)
(3 -1.17179e-16 0)
(3 -5.70063e-17 0)
(3 9.45979e-17 0)
(3 3.28955e-16 0)
(3 5.55851e-16 0)
(3 1.0488e-15 0)
(3 6.40686e-16 0)
(3 8.68222e-16 0)
(3 8.77816e-16 0)
(3 8.70227e-16 0)
(3 1.58811e-16 0)
(3 -2.10027e-16 0)
(3 -4.27267e-16 0)
(3 -1.04266e-15 0)
(3 -1.11309e-15 0)
(3 -3.93189e-12 0)
(3 -1.09875e-10 0)
(3 4.77905e-07 0)
(3.00782 0.00905045 0)
(2.56005 0.56318 0)
(1.57465 0.949863 0)
(1.48868 0.927915 0)
(1.52078 0.912479 0)
(1.55226 0.898982 0)
(3 -7.05614e-17 0)
(3 1.69908e-16 0)
(3 4.07142e-16 0)
(3 7.46937e-17 0)
(3 -4.4532e-17 0)
(3 2.56075e-16 0)
(3 3.93531e-16 0)
(3 5.60534e-16 0)
(3 3.01369e-16 0)
(3 3.3902e-17 0)
(3 -7.00103e-17 0)
(3 7.15388e-17 0)
(3 -1.63197e-16 0)
(3 -3.9178e-17 0)
(3 3.1984e-17 0)
(3 -1.00582e-14 0)
(3 -1.64022e-11 0)
(3 9.05526e-11 0)
(3.00003 0.000149038 0)
(3.01839 0.0685115 0)
(2.08161 0.797743 0)
(1.55871 0.935763 0)
(1.55891 0.926724 0)
(1.58753 0.90808 0)
(3 1.21505e-16 0)
(3 3.12542e-16 0)
(3 7.78473e-17 0)
(3 -2.6545e-16 0)
(3 -2.33507e-16 0)
(3 -7.62128e-17 0)
(3 6.51283e-16 0)
(3 6.3154e-16 0)
(3 3.3317e-16 0)
(3 2.22641e-19 0)
(3 2.14446e-16 0)
(3 8.02646e-16 0)
(3 1.30819e-15 0)
(3 1.8294e-15 0)
(3 1.79284e-15 0)
(3 1.4592e-15 0)
(3 -1.00814e-12 0)
(3 -1.47122e-12 0)
(3 1.82776e-07 0)
(3.00129 0.00324765 0)
(2.84948 0.292918 0)
(1.83724 0.892178 0)
(1.5889 0.949309 0)
(1.61473 0.936171 0)
(3 1.25266e-16 0)
(3 -4.75075e-16 0)
(3 -3.49465e-16 0)
(3 1.26799e-16 0)
(3 1.633e-16 0)
(3 7.97632e-17 0)
(3 -2.43039e-16 0)
(3 -4.80778e-16 0)
(3 -5.78897e-16 0)
(3 -2.14329e-16 0)
(3 8.65911e-16 0)
(3 9.18693e-16 0)
(3 1.3621e-15 0)
(3 7.93418e-16 0)
(3 4.99371e-16 0)
(3 1.39426e-15 0)
(3 -1.63196e-14 0)
(3 -5.14244e-13 0)
(3 6.82931e-11 0)
(3 1.9294e-05 0)
(3.00451 0.0208261 0)
(2.51242 0.564105 0)
(1.7372 0.953498 0)
(1.62457 0.954183 0)
(3 6.50477e-18 0)
(3 -2.28858e-16 0)
(3 -2.3745e-16 0)
(3 -1.71392e-16 0)
(3 -3.44817e-16 0)
(3 -9.09362e-16 0)
(3 -1.15037e-15 0)
(3 -1.03728e-15 0)
(3 -9.30822e-16 0)
(3 -6.35195e-16 0)
(3 -3.02601e-16 0)
(3 3.97759e-16 0)
(3 1.83344e-16 0)
(3 -8.40682e-16 0)
(3 -4.1498e-16 0)
(3 -7.6016e-17 0)
(3 -8.14341e-16 0)
(3 -7.7685e-14 0)
(3 -7.07344e-14 0)
(3 1.37704e-08 0)
(2.99999 0.00051966 0)
(2.98245 0.0800275 0)
(2.2349 0.752642 0)
(1.68959 0.961332 0)
(3 8.88716e-17 0)
(3 5.37488e-16 0)
(3 2.15079e-16 0)
(3 -4.63247e-16 0)
(3 -3.67239e-16 0)
(3 -2.85903e-16 0)
(3 -1.50569e-16 0)
(3 -3.60699e-17 0)
(3 -1.52489e-16 0)
(3 -6.53706e-16 0)
(3 -6.37508e-16 0)
(3 -4.24767e-16 0)
(3 -9.42645e-16 0)
(3 -4.56653e-16 0)
(3 -4.75938e-16 0)
(3 -9.38239e-16 0)
(3 -1.01803e-15 0)
(3 -3.57159e-15 0)
(3 -2.77028e-14 0)
(3 4.98476e-12 0)
(3 1.06505e-06 0)
(3 0.00394 0)
(2.88562 0.227938 0)
(2.03426 0.844475 0)
(3 -2.31068e-17 0)
(3 1.61014e-16 0)
(3 3.79033e-16 0)
(3 3.64114e-16 0)
(3 3.77412e-16 0)
(3 3.08618e-16 0)
(3 3.61161e-16 0)
(3 6.58987e-16 0)
(3 8.16102e-16 0)
(3 1.08265e-15 0)
(3 2.49092e-16 0)
(3 -5.17308e-16 0)
(3 -3.10462e-16 0)
(3 2.5374e-16 0)
(3 6.0231e-17 0)
(3 3.2083e-17 0)
(3 -2.78945e-16 0)
(3 -4.76421e-16 0)
(3 -4.24898e-15 0)
(3 -3.45767e-15 0)
(3 7.52436e-10 0)
(2.99999 2.40619e-05 0)
(2.9986 0.0161039 0)
(2.69756 0.409814 0)
(3 -1.44532e-16 0)
(3 -2.6775e-16 0)
(3 -2.11016e-17 0)
(3 5.45599e-16 0)
(3 5.57492e-16 0)
(3 5.88523e-16 0)
(3 4.69605e-16 0)
(3 3.04433e-16 0)
(3 6.71862e-16 0)
(3 1.59554e-15 0)
(3 1.25057e-15 0)
(3 3.74422e-16 0)
(3 2.97809e-16 0)
(3 9.74276e-16 0)
(3 1.28521e-15 0)
(3 1.4396e-15 0)
(3 6.48793e-16 0)
(3 2.38043e-16 0)
(3 -9.65747e-17 0)
(3 -9.93069e-16 0)
(3 1.21819e-13 0)
(3 2.52039e-08 0)
(2.99994 0.000272869 0)
(2.98981 0.0415964 0)
(3 -4.68642e-18 0)
(3 -1.21985e-17 0)
(3 2.60623e-16 0)
(3 8.32861e-16 0)
(3 1.22614e-15 0)
(3 1.14017e-15 0)
(3 9.7183e-16 0)
(3 -5.42808e-16 0)
(3 -5.10498e-16 0)
(3 4.9828e-17 0)
(3 1.32698e-15 0)
(3 1.4735e-15 0)
(3 1.41443e-15 0)
(3 1.53648e-15 0)
(3 1.32524e-15 0)
(3 7.18467e-16 0)
(3 1.54428e-16 0)
(3 -7.24973e-16 0)
(3 -7.42591e-16 0)
(3 -7.25745e-16 0)
(3 -1.41873e-15 0)
(3 1.04469e-11 0)
(3 4.80572e-07 0)
(2.99975 0.00144228 0)
(3 5.44921e-17 0)
(3 1.55963e-16 0)
(3 2.80632e-16 0)
(3 4.30698e-16 0)
(3 4.53212e-16 0)
(3 2.25136e-16 0)
(3 -1.36738e-16 0)
(3 1.7322e-16 0)
(3 -2.05663e-16 0)
(3 2.95678e-16 0)
(3 9.86207e-16 0)
(3 1.48783e-15 0)
(3 1.13336e-15 0)
(3 5.41054e-16 0)
(3 5.28814e-16 0)
(3 2.24461e-16 0)
(3 4.35419e-16 0)
(3 8.57725e-17 0)
(3 -1.09549e-16 0)
(3 -8.43981e-16 0)
(3 -1.78018e-15 0)
(3 -1.36572e-15 0)
(3 3.9343e-10 0)
(3 4.60648e-06 0)
(3 -9.46009e-17 0)
(3 -2.96037e-16 0)
(3 -4.70704e-16 0)
(3 -8.32701e-16 0)
(3 -7.51697e-16 0)
(3 -5.32727e-16 0)
(3 -2.26259e-16 0)
(3 3.40047e-16 0)
(3 3.78207e-16 0)
(3 2.17988e-16 0)
(3 -1.32485e-16 0)
(3 -3.83377e-16 0)
(3 1.14571e-18 0)
(3 1.46133e-15 0)
(3 2.09139e-15 0)
(3 2.08863e-15 0)
(3 2.78445e-15 0)
(3 2.34703e-15 0)
(3 1.16204e-15 0)
(3 5.73042e-16 0)
(3 3.84287e-16 0)
(3 -6.674e-16 0)
(3 3.86482e-14 0)
(3 5.39383e-09 0)
(3 1.45522e-17 0)
(3 -1.07224e-16 0)
(3 -6.79783e-16 0)
(3 -1.00359e-15 0)
(3 -1.18936e-15 0)
(3 -8.10306e-16 0)
(3 7.43936e-17 0)
(3 1.53794e-16 0)
(3 1.94071e-16 0)
(3 -2.84578e-16 0)
(3 -4.30475e-16 0)
(3 -1.86066e-16 0)
(3 4.80322e-16 0)
(3 1.06759e-15 0)
(3 2.19765e-15 0)
(3 1.88358e-15 0)
(3 1.03784e-15 0)
(3 1.1234e-15 0)
(3 8.34728e-16 0)
(3 9.08444e-16 0)
(3 1.61599e-15 0)
(3 6.99632e-16 0)
(3 5.86049e-16 0)
(3 1.05584e-12 0)
(3 -9.2141e-17 0)
(3 1.93247e-17 0)
(3 9.75894e-17 0)
(3 -2.55053e-16 0)
(3 -3.54106e-16 0)
(3 -3.67986e-16 0)
(3 -2.26637e-16 0)
(3 1.80734e-17 0)
(3 5.86954e-17 0)
(3 -6.30953e-17 0)
(3 -2.03598e-16 0)
(3 -1.36822e-16 0)
(3 -3.23967e-16 0)
(3 -7.2051e-16 0)
(3 -1.21889e-15 0)
(3 -5.22223e-16 0)
(3 -4.47123e-16 0)
(3 -1.09471e-16 0)
(3 1.1632e-15 0)
(3 1.53476e-15 0)
(3 1.04042e-15 0)
(3 1.4121e-15 0)
(3 1.47565e-15 0)
(3 8.06543e-16 0)
(3 4.7223e-18 0)
(3 2.08096e-16 0)
(3 3.66836e-16 0)
(3 2.64417e-16 0)
(3 -1.59841e-16 0)
(3 -2.67692e-16 0)
(3 -3.34064e-16 0)
(3 -4.55394e-16 0)
(3 -5.39586e-16 0)
(3 -5.25296e-16 0)
(3 -5.72814e-16 0)
(3 -1.25248e-15 0)
(3 -1.38598e-15 0)
(3 -1.37997e-15 0)
(3 -1.57625e-15 0)
(3 -8.54388e-16 0)
(3 6.44876e-16 0)
(3 8.18392e-16 0)
(3 1.12488e-15 0)
(3 1.57113e-15 0)
(3 1.73346e-15 0)
(3 1.37425e-15 0)
(3 8.88739e-16 0)
(3 3.16838e-16 0)
(3 7.48644e-17 0)
(3 2.7921e-17 0)
(3 -2.71753e-16 0)
(3 2.65565e-16 0)
(3 -8.53159e-17 0)
(3 -9.61305e-16 0)
(3 -1.01417e-15 0)
(3 -8.00733e-16 0)
(3 -5.24501e-16 0)
(3 -5.552e-16 0)
(3 -5.16019e-16 0)
(3 -1.83157e-16 0)
(3 -2.99729e-16 0)
(3 -1.39309e-15 0)
(3 -5.58072e-16 0)
(3 -4.71021e-16 0)
(3 1.55192e-16 0)
(3 -2.05063e-16 0)
(3 2.9796e-16 0)
(3 8.58976e-16 0)
(3 1.02744e-15 0)
(3 -5.02987e-17 0)
(3 -6.15482e-16 0)
(3 -6.08224e-16 0)
(3 -1.30277e-16 0)
(3 -2.82964e-16 0)
(3 -2.02193e-16 0)
(3 -2.72254e-18 0)
(3 2.29179e-16 0)
(3 -3.61831e-16 0)
(3 -7.43143e-16 0)
(3 -4.86114e-16 0)
(3 -1.42403e-16 0)
(3 -2.26791e-16 0)
(3 -4.87835e-17 0)
(3 5.73701e-16 0)
(3 7.42259e-17 0)
(3 -2.70123e-16 0)
(3 -1.40819e-16 0)
(3 -1.305e-16 0)
(3 -3.29847e-16 0)
(3 -3.47243e-16 0)
(3 3.7453e-16 0)
(3 4.26329e-16 0)
(3 4.63908e-16 0)
(3 3.38965e-16 0)
(3 2.46892e-16 0)
(3 -1.84829e-16 0)
(1.51645 1.27358 0)
(1.90879 1.36974 0)
(2.34618 1.24705 0)
(2.53556 0.767954 0)
(2.59633 0.420613 0)
(2.61307 0.00358812 0)
(2.62125 -0.253778 0)
(2.51349 -0.349581 0)
(2.38348 -0.393501 0)
(2.38186 -0.324455 0)
(2.41033 -0.220991 0)
(2.44416 -0.155805 0)
(2.46612 -0.146346 0)
(2.46368 -0.137734 0)
(2.42308 -0.120317 0)
(2.37773 -0.0944028 0)
(2.36335 -0.0721064 0)
(2.37037 -0.031692 0)
(2.38626 -0.00827615 0)
(2.40622 -0.00549129 0)
(2.41637 -0.0202681 0)
(2.41188 -0.0226872 0)
(2.39801 -0.0187203 0)
(2.38269 -0.00721568 0)
(2.38018 -0.00255404 0)
(2.38985 -0.000762866 0)
(2.41485 -0.0048672 0)
(2.42046 -0.0107632 0)
(2.41737 -0.0124506 0)
(2.40164 -0.0105665 0)
(2.38538 -0.00181383 0)
(2.38374 0.00171367 0)
(2.39059 0.00264166 0)
(2.41776 0.000609532 0)
(2.4351 -0.0036288 0)
(2.43564 -0.00662564 0)
(2.40814 -0.0331866 0)
(2.21112 -0.151914 0)
(1.37533 -0.202386 0)
(1.10801 -0.13142 0)
(1.19971 -0.0963138 0)
(1.30758 -0.0538806 0)
(1.33966 -0.0399668 0)
(1.37718 -0.0271895 0)
(1.42792 -0.010216 0)
(1.46847 -0.00490716 0)
(1.51564 -0.00609849 0)
(1.56257 -0.00692145 0)
(1.58718 -0.00473512 0)
(1.60688 5.82738e-05 0)
(1.62482 0.00387227 0)
(1.64791 0.00447058 0)
(1.67542 0.00442647 0)
(1.71338 0.00251416 0)
(1.74736 -0.00105531 0)
(1.77377 -0.00158876 0)
(1.79801 -0.000297307 0)
(1.81791 0.00130938 0)
(1.8339 0.00297398 0)
(1.84652 0.00491899 0)
(1.85956 0.00590902 0)
(1.8784 0.00531809 0)
(1.90039 0.00475302 0)
(1.9238 0.00365752 0)
(1.94799 0.00232577 0)
(1.97058 0.001687 0)
(1.99243 0.00146644 0)
(2.00857 0.00281416 0)
(2.0146 0.0057448 0)
(2.01824 0.00893645 0)
(2.03237 0.010084 0)
(2.05266 0.0102173 0)
(2.07362 0.0100007 0)
(2.09936 0.00881603 0)
(2.12636 0.00633577 0)
(2.14775 0.0050616 0)
(2.16858 0.00491588 0)
(2.18102 0.00550542 0)
(2.17557 0.00787928 0)
(2.17458 0.0100658 0)
(2.19042 0.0104548 0)
(2.20758 0.010613 0)
(2.22625 0.0107959 0)
(2.25018 0.0104456 0)
(2.27674 0.00860614 0)
(2.2969 0.00695921 0)
(2.31734 0.00642231 0)
(2.33503 0.00582578 0)
(2.33686 0.00614407 0)
(2.31846 0.00914888 0)
(2.32019 0.011139 0)
(2.33663 0.0115548 0)
(2.35317 0.0118389 0)
(2.3723 0.011771 0)
(2.39701 0.0090496 0)
(2.42276 0.00783799 0)
(1.77581 1.08999 0)
(2.25589 0.858945 0)
(2.56623 0.375522 0)
(2.67019 0.0619904 0)
(2.68681 -0.223267 0)
(2.73876 -0.398013 0)
(2.75425 -0.635222 0)
(2.75559 -0.686664 0)
(2.7228 -0.617762 0)
(2.62886 -0.514597 0)
(2.5146 -0.327862 0)
(2.50115 -0.191952 0)
(2.52705 -0.15811 0)
(2.528 -0.16987 0)
(2.49139 -0.127083 0)
(2.46045 -0.0971567 0)
(2.4512 -0.0635619 0)
(2.42786 -0.00828357 0)
(2.42624 0.0260335 0)
(2.42842 0.028219 0)
(2.43529 0.00331149 0)
(2.44625 -0.0345689 0)
(2.43809 -0.0432938 0)
(2.42789 -0.0309397 0)
(2.42358 0.00495317 0)
(2.4286 0.0256489 0)
(2.43206 0.0223617 0)
(2.43641 -0.00291255 0)
(2.43678 -0.0265328 0)
(2.43199 -0.0326232 0)
(2.42603 -0.0248939 0)
(2.42452 0.000726166 0)
(2.43103 0.0227834 0)
(2.43853 0.0270492 0)
(2.44395 0.0175226 0)
(2.42048 -0.0413115 0)
(2.34579 -0.204549 0)
(2.01297 -0.604651 0)
(1.81567 -0.481025 0)
(1.39281 -0.175888 0)
(1.32058 -0.0490573 0)
(1.35148 -0.0108333 0)
(1.37184 -0.0122639 0)
(1.40794 -0.00404455 0)
(1.44823 -0.00131161 0)
(1.48711 0.000130096 0)
(1.52983 0.000939644 0)
(1.57264 -0.00938372 0)
(1.60144 -0.0112785 0)
(1.62519 -0.00723743 0)
(1.64538 0.00361039 0)
(1.66688 0.0115719 0)
(1.69157 0.0161671 0)
(1.72092 0.016904 0)
(1.75147 0.0121343 0)
(1.77785 0.00619638 0)
(1.80214 0.00101371 0)
(1.82421 -0.00181307 0)
(1.84445 -0.0017925 0)
(1.86187 0.00282853 0)
(1.87591 0.0116895 0)
(1.88908 0.018711 0)
(1.90705 0.019178 0)
(1.92867 0.0172372 0)
(1.95158 0.0119519 0)
(1.97353 0.00599916 0)
(1.99375 0.000695048 0)
(2.0122 -0.00487327 0)
(2.02655 -0.00377393 0)
(2.037 0.00784874 0)
(2.04495 0.0235537 0)
(2.05886 0.0312695 0)
(2.07845 0.032678 0)
(2.10014 0.0319978 0)
(2.1247 0.0263853 0)
(2.14715 0.0189374 0)
(2.16765 0.0108127 0)
(2.18473 0.00271551 0)
(2.19117 0.00492334 0)
(2.19005 0.0195258 0)
(2.19655 0.0301224 0)
(2.2123 0.032709 0)
(2.2286 0.0344186 0)
(2.24942 0.0351154 0)
(2.27357 0.0307099 0)
(2.2952 0.0246456 0)
(2.31589 0.018444 0)
(2.33444 0.0100877 0)
(2.3442 0.00273408 0)
(2.33632 0.00924642 0)
(2.33027 0.0234338 0)
(2.34202 0.0301278 0)
(2.35779 0.0325165 0)
(2.37532 0.0348971 0)
(2.39595 0.0314082 0)
(2.4241 0.0257099 0)
(1.66704 1.05782 0)
(2.08901 0.847373 0)
(2.34502 0.5837 0)
(2.47189 0.444499 0)
(2.57426 0.261229 0)
(2.7062 -0.0277242 0)
(2.72347 -0.240524 0)
(2.74415 -0.296952 0)
(2.80372 -0.305077 0)
(2.7791 -0.384919 0)
(2.73156 -0.396517 0)
(2.67813 -0.404958 0)
(2.67634 -0.414125 0)
(2.69196 -0.392986 0)
(2.6655 -0.312519 0)
(2.63847 -0.22939 0)
(2.61217 -0.186328 0)
(2.55225 -0.107163 0)
(2.52063 -0.0338248 0)
(2.5001 -0.0238843 0)
(2.48723 -0.0362837 0)
(2.48491 -0.0259439 0)
(2.50367 -0.00625453 0)
(2.5075 -0.010622 0)
(2.50396 -0.0102002 0)
(2.49783 -0.00432324 0)
(2.48442 -0.000922101 0)
(2.47504 -0.0126427 0)
(2.47463 -0.0259233 0)
(2.48057 -0.042536 0)
(2.48709 -0.04201 0)
(2.49347 -0.027491 0)
(2.49459 -0.00889549 0)
(2.48874 0.00370095 0)
(2.46615 -0.0231012 0)
(2.31199 -0.217433 0)
(2.07639 -0.511501 0)
(1.96521 -0.606287 0)
(1.98465 -0.647457 0)
(1.83276 -0.48557 0)
(1.57841 -0.215591 0)
(1.45654 -0.0733105 0)
(1.46824 -0.0299178 0)
(1.50143 -0.0107745 0)
(1.51874 -0.0175044 0)
(1.54766 -0.0309857 0)
(1.58458 -0.0301298 0)
(1.6173 -0.0232191 0)
(1.64332 -0.0155666 0)
(1.66583 -0.00894169 0)
(1.68716 -0.00553854 0)
(1.70853 -0.00331706 0)
(1.73042 0.00165886 0)
(1.75187 0.00793702 0)
(1.77475 0.00965237 0)
(1.79822 0.00880388 0)
(1.82141 0.00844398 0)
(1.84436 0.00814608 0)
(1.86622 0.00755406 0)
(1.88616 0.00776067 0)
(1.90292 0.0115256 0)
(1.91573 0.0200002 0)
(1.92718 0.0285555 0)
(1.94133 0.0318816 0)
(1.95864 0.0308183 0)
(1.97772 0.0267637 0)
(1.9975 0.0206792 0)
(2.01819 0.0145681 0)
(2.03899 0.0109488 0)
(2.05892 0.0122945 0)
(2.07392 0.0232351 0)
(2.08158 0.0396519 0)
(2.09204 0.0469693 0)
(2.11102 0.046241 0)
(2.13074 0.0438992 0)
(2.14995 0.0385601 0)
(2.16725 0.0296634 0)
(2.18266 0.0203932 0)
(2.19831 0.016154 0)
(2.21168 0.0218503 0)
(2.21856 0.0381936 0)
(2.22557 0.0514819 0)
(2.2421 0.0544823 0)
(2.26058 0.0546058 0)
(2.27974 0.05194 0)
(2.29857 0.0465638 0)
(2.31604 0.0375108 0)
(2.32973 0.0265404 0)
(2.33928 0.017728 0)
(2.34635 0.0162257 0)
(2.35148 0.0269376 0)
(2.35776 0.0412571 0)
(2.36952 0.0489616 0)
(2.38647 0.0510967 0)
(2.4018 0.0506322 0)
(2.42731 0.0470748 0)
(1.61025 0.979833 0)
(1.89208 0.888719 0)
(2.15259 0.69575 0)
(2.34664 0.460103 0)
(2.46573 0.3551 0)
(2.51558 0.26203 0)
(2.61584 0.0421903 0)
(2.69041 -0.167889 0)
(2.71851 -0.268082 0)
(2.77526 -0.370418 0)
(2.79319 -0.424902 0)
(2.77896 -0.473887 0)
(2.76422 -0.465314 0)
(2.75717 -0.459973 0)
(2.74319 -0.434464 0)
(2.73566 -0.388505 0)
(2.71729 -0.345866 0)
(2.6815 -0.279207 0)
(2.63767 -0.193111 0)
(2.60976 -0.151885 0)
(2.57829 -0.128378 0)
(2.55397 -0.0793884 0)
(2.5601 -0.0502703 0)
(2.56474 -0.0339065 0)
(2.56005 -0.0207527 0)
(2.55669 -0.0136558 0)
(2.54312 -0.00264167 0)
(2.52226 0.00252218 0)
(2.5153 0.00227137 0)
(2.51693 0.00170099 0)
(2.53882 -0.00412116 0)
(2.55066 -0.00403635 0)
(2.54664 -0.0180627 0)
(2.52435 -0.053595 0)
(2.38261 -0.222222 0)
(2.12275 -0.471623 0)
(1.95782 -0.666106 0)
(1.96289 -0.660021 0)
(1.99662 -0.669979 0)
(1.99519 -0.644249 0)
(1.90586 -0.505603 0)
(1.71245 -0.254582 0)
(1.6196 -0.089634 0)
(1.59664 -0.0277873 0)
(1.58563 0.0175903 0)
(1.61443 0.0130491 0)
(1.651 -0.00219918 0)
(1.67602 -0.00544826 0)
(1.6993 0.00270205 0)
(1.72054 0.00580865 0)
(1.7415 0.00623848 0)
(1.76297 0.00681043 0)
(1.7836 0.00847284 0)
(1.79964 0.0129414 0)
(1.81236 0.0172596 0)
(1.82994 0.0181144 0)
(1.85204 0.0187336 0)
(1.87493 0.0205512 0)
(1.89693 0.0227097 0)
(1.917 0.0244438 0)
(1.93475 0.026227 0)
(1.94876 0.0290529 0)
(1.95738 0.0322787 0)
(1.96557 0.0322153 0)
(1.97989 0.0294013 0)
(1.99831 0.0275139 0)
(2.01867 0.0275826 0)
(2.03994 0.0286958 0)
(2.06144 0.0309912 0)
(2.08263 0.0332206 0)
(2.10227 0.0365733 0)
(2.11442 0.0452435 0)
(2.11639 0.0552735 0)
(2.12467 0.0550752 0)
(2.14099 0.0495718 0)
(2.15791 0.0434752 0)
(2.17385 0.038143 0)
(2.19132 0.0365864 0)
(2.2099 0.0367668 0)
(2.22889 0.0377932 0)
(2.24505 0.0446621 0)
(2.25271 0.0604681 0)
(2.25784 0.0710532 0)
(2.27311 0.069863 0)
(2.28996 0.0658706 0)
(2.30592 0.0607992 0)
(2.31873 0.054763 0)
(2.32875 0.0470632 0)
(2.34053 0.0397849 0)
(2.35545 0.0366622 0)
(2.37065 0.0381786 0)
(2.38315 0.0461159 0)
(2.39085 0.0577365 0)
(2.3986 0.0661114 0)
(2.4118 0.063999 0)
(2.43415 0.0611264 0)
(1.57473 0.932202 0)
(1.79996 0.862208 0)
(1.99648 0.754531 0)
(2.18334 0.591642 0)
(2.32881 0.438525 0)
(2.42509 0.322787 0)
(2.47875 0.225468 0)
(2.55835 0.0859311 0)
(2.6375 -0.05967 0)
(2.67542 -0.157566 0)
(2.71245 -0.213513 0)
(2.73691 -0.235763 0)
(2.71893 -0.276369 0)
(2.70025 -0.349002 0)
(2.70763 -0.370573 0)
(2.72984 -0.401507 0)
(2.75555 -0.421796 0)
(2.75136 -0.405712 0)
(2.72582 -0.356476 0)
(2.69652 -0.298976 0)
(2.66427 -0.245407 0)
(2.61834 -0.168065 0)
(2.60215 -0.112639 0)
(2.616 -0.0898628 0)
(2.61083 -0.0812101 0)
(2.59595 -0.0777505 0)
(2.58359 -0.0613175 0)
(2.56364 -0.0227848 0)
(2.55452 -0.0105825 0)
(2.54769 -0.00989436 0)
(2.56507 0.00540476 0)
(2.57226 -0.00515443 0)
(2.54717 -0.0546806 0)
(2.39443 -0.248678 0)
(2.18217 -0.467414 0)
(1.98772 -0.626675 0)
(1.95915 -0.699705 0)
(1.96518 -0.693762 0)
(1.99782 -0.66809 0)
(2.0251 -0.644256 0)
(2.03612 -0.61851 0)
(1.99178 -0.530713 0)
(1.86182 -0.33155 0)
(1.73943 -0.150132 0)
(1.66956 -0.0231751 0)
(1.67253 -0.00461571 0)
(1.6887 0.000284113 0)
(1.71074 0.0176891 0)
(1.73825 0.0175747 0)
(1.76624 0.0144715 0)
(1.78841 0.00394441 0)
(1.80801 0.000473915 0)
(1.82702 0.00383363 0)
(1.84272 0.0111372 0)
(1.85337 0.0206026 0)
(1.8637 0.0281847 0)
(1.88193 0.0306907 0)
(1.90386 0.0315471 0)
(1.9263 0.0332814 0)
(1.94775 0.0350236 0)
(1.9677 0.0359774 0)
(1.98437 0.0377165 0)
(1.99327 0.0422694 0)
(1.99455 0.0466512 0)
(2.00531 0.0456251 0)
(2.02427 0.0439813 0)
(2.04436 0.0436936 0)
(2.06549 0.0441045 0)
(2.08727 0.0458893 0)
(2.10815 0.0482037 0)
(2.12837 0.0509732 0)
(2.14419 0.0555352 0)
(2.14643 0.0635831 0)
(2.14129 0.0676448 0)
(2.1511 0.0620289 0)
(2.16792 0.0562127 0)
(2.18596 0.0537977 0)
(2.2051 0.0535146 0)
(2.22498 0.0546976 0)
(2.24419 0.0564919 0)
(2.26334 0.0594291 0)
(2.27868 0.0668597 0)
(2.28353 0.080815 0)
(2.28288 0.0887366 0)
(2.29276 0.0840972 0)
(2.30659 0.0764332 0)
(2.31943 0.0677836 0)
(2.33222 0.0605459 0)
(2.34924 0.0587848 0)
(2.36715 0.0594209 0)
(2.38495 0.0604384 0)
(2.40183 0.0625539 0)
(2.4132 0.0688145 0)
(2.41635 0.0775228 0)
(2.42101 0.0774139 0)
(2.43751 0.0734938 0)
(1.54595 0.890526 0)
(1.73444 0.839093 0)
(1.90464 0.760531 0)
(2.06237 0.655169 0)
(2.19927 0.543863 0)
(2.32356 0.407582 0)