/*--------------------------------*- C++ -*----------------------------------*\
  =========                 |
  \\      /  F ield         | OpenFOAM: The Open Source CFD Toolbox
   \\    /   O peration     | Website:  https://openfoam.org
    \\  /    A nd           | Version:  7
     \\/     M anipulation  |
\*---------------------------------------------------------------------------*/
FoamFile
{
    version     2.0;
    format      ascii;
    class       volScalarField;
    location    "2";
    object      p;
}
// * * * * * * * * * * * * * * * * * * * * * * * * * * * * * * * * * * * * * //

dimensions      [1 -1 -2 0 0 0 0];

internalField   nonuniform List<scalar> 
16128
(
1
1
1
1
1
1
1
1
1
1
1
1
1
1
1
1
1
1
1
1
1
1
1
1
1.5348
8.02801
10.5595
10.6151
10.7441
10.8605
10.9751
11.0824
11.1835
11.2792
11.3683
11.4511
11.5302
11.6057
11.6756
11.7401
11.7998
11.8545
11.9067
11.953
11.9923
12.0185
12.033
12.041
1
1
1
1
1
1
1
1
1
1
1
1
1
1
1
1
1
1
1
1
1
1
1
1
1.49945
7.94035
10.5432
10.6187
10.7451
10.861
10.9719
11.0761
11.1753
11.2703
11.3596
11.4428
11.5219
11.597
11.6659
11.7292
11.7878
11.8416
11.8929
11.9382
11.977
12.0031
12.0179
12.0266
1
1
1
1
1
1
1
1
1
1
1
1
1
1
1
1
1
1
1
1
1
1
1
1
1.42468
7.77344
10.5387
10.617
10.7382
10.8538
10.9629
11.0646
11.1623
11.2568
11.3464
11.4303
11.5096
11.5842
11.652
11.7142
11.7716
11.8237
11.873
11.9162
11.9538
11.9791
11.9936
12.0026
1
1
1
1
1
1
1
1
1
1
1
1
1
1
1
1
1
1
1
1
1
1
1
1
1.32848
7.53427
10.5262
10.6186
10.7285
10.8384
10.9452
11.0466
11.1439
11.2376
11.3261
11.4097
11.4886
11.5626
11.6293
11.6905
11.7467
11.7969
11.8439
11.8845
11.9201
11.944
11.9577
11.9668
1
1
1
1
1
1
1
1
1
1
1
1
1
1
1
1
1
1
1
1
1
1
1
1
1.21444
7.22997
10.5102
10.5968
10.7053
10.8179
10.9274
11.0304
11.1267
11.2172
11.3011
11.3804
11.4558
11.5271
11.5921
11.6532
11.7097
11.7596
11.8054
11.8442
11.878
11.9008
11.9133
11.9223
1
1
1
1
1
1
1
1
1
1
1
1
1
1
1
1
1
1
1
1
1
1
1
1
1.0602
6.8174
10.5066
10.6029
10.7022
10.8053
10.9067
11.0026
11.0921
11.1771
11.2568
11.3351
11.4117
11.4851
11.5514
11.6128
11.6681
11.7156
11.7581
11.7934
11.8244
11.8453
11.8561
11.8649
1
1
1
1
1
1
1
1
1
1
1
1
1
1
1
1
1
1
1
1
1
1
1
1
1.00178
6.29431
10.4335
10.5393
10.6372
10.747
10.8544
10.9551
11.0477
11.1347
11.2146
11.2915
11.3649
11.4343
11.4972
11.5562
11.61
11.6562
11.6972
11.7309
11.7601
11.7795
11.7888
11.7978
1
1
1
1
1
1
1
1
1
1
1
1
1
1
1
1
1
1
1
1
1
1
1
1
1.00001
5.65137
10.3374
10.5011
10.5958
10.707
10.8142
10.9147
11.0054
11.0894
11.1656
11.2391
11.3101
11.3775
11.438
11.4943
11.545
11.588
11.6261
11.6575
11.6846
11.7025
11.7107
11.72
1
1
1
1
1
1
1
1
1
1
1
1
1
1
1
1
1
1
1
1
1
1
1
1
1
4.93599
10.1899
10.4558
10.5456
10.6575
10.7628
10.8618
10.9506
11.0322
11.1051
11.1745
11.2417
11.3054
11.3622
11.4148
11.4625
11.5032
11.5395
11.5696
11.5946
11.6099
11.6162
11.6248
1
1
1
1
1
1
1
1
1
1
1
1
1
1
1
1
1
1
1
1
1
1
1
1
1
4.16837
9.9479
10.4126
10.5
10.6139
10.7156
10.8098
10.8931
10.9689
11.0364
11.1002
11.1627
11.2223
11.2746
11.3221
11.365
11.4022
11.4351
11.4622
11.4824
11.493
11.4958
11.5018
1
1
1
1
1
1
1
1
1
1
1
1
1
1
1
1
1
1
1
1
1
1
1
1
1
3.3968
9.58757
10.3777
10.4563
10.568
10.6661
10.7593
10.8405
10.9116
10.9739
11.0302
11.0845
11.1362
11.1808
11.2208
11.2569
11.2876
11.3132
11.3325
11.3441
11.3507
11.3509
11.3581
1
1
1
1
1
1
1
1
1
1
1
1
1
1
1
1
1
1
1
1
1
1
1
1
1
2.62961
9.05946
10.3607
10.4255
10.5272
10.6163
10.704
10.7822
10.8497
10.9078
10.9571
11.0026
11.0443
11.079
11.1092
11.1358
11.1578
11.1739
11.1832
11.1845
11.1776
11.1639
11.157
1
1
1
1
1
1
1
1
1
1
1
1
1
1
1
1
1
1
1
1
1
1
1
1
1
1.87114
8.36299
10.3958
10.3795
10.4648
10.5494
10.6399
10.7178
10.781
10.8337
10.877
10.9142
10.9459
10.9703
10.9905
11.0059
11.0148
11.0128
10.9982
10.972
10.9453
10.9183
10.9191
1
1
1
1
1
1
1
1
1
1
1
1
1
1
1
1
1
1
1
1
1
1
1
1
1
1.21638
7.47749
10.4472
10.3594
10.4158
10.484
10.5569
10.6318
10.6968
10.747
10.7863
10.8154
10.8365
10.8494
10.8576
10.8579
10.8482
10.8232
10.7859
10.7389
10.6909
10.6225
10.5448
1
1
1
1
1
1
1
1
1
1
1
1
1
1
1
1
1
1
1
1
1
1
1
1
1
1.00688
6.38561
10.1574
10.1887
10.2954
10.3909
10.478
10.5489
10.6012
10.6443
10.6792
10.7002
10.7127
10.715
10.7107
10.6943
10.664
10.6123
10.539
10.4337
10.2904
10.1407
10.0281
1
1
1
1
1
1
1
1
1
1
1
1
1
1
1
1
1
1
1
1
1
1
1
1
1
1.00001
5.05535
9.85229
10.1152
10.2288
10.318
10.3855
10.4421
10.4901
10.5284
10.5583
10.5705
10.575
10.5658
10.5471
10.5113
10.4546
10.3664
10.2413
10.0738
9.86588
9.6397
9.53875
1
1
1
1
1
1
1
1
1
1
1
1
1
1
1
1
1
1
1
1
1
1
1
1
1
1
3.7353
9.33889
10.0777
10.1869
10.263
10.3158
10.3573
10.3922
10.4179
10.4362
10.4345
10.428
10.4053
10.3695
10.311
10.225
10.0997
9.92692
9.67905
9.28613
8.4284
6.45544
1
1
1
1
1
1
1
1
1
1
1
1
1
1
1
1
1
1
1
1
1
1
1
1
1
1
2.40252
8.57268
10.0594
10.109
10.1772
10.2256
10.2627
10.2938
10.3149
10.3204
10.3038
10.2806
10.2403
10.1825
10.0985
9.98187
9.81759
9.58229
9.23447
8.62996
7.68909
5.49429
1
1
1
1
1
1
1
1
1
1
1
1
1
1
1
1
1
1
1
1
1
1
1
1
1
1
1.28877
7.56918
10.1828
10.085
10.104
10.1352
10.1612
10.1825
10.1965
10.1929
10.1664
10.1268
10.068
9.98776
9.87919
9.73186
9.53021
9.23864
8.8156
8.14975
7.07124
5.15224
1
1
1
1
1
1
1
1
1
1
1
1
1
1
1
1
1
1
1
1
1
1
1
1
1
1
1.00927
6.13979
9.78851
9.85567
9.93461
9.99646
10.0358
10.0598
10.072
10.0616
10.0276
9.97299
9.89572
9.79315
9.66076
9.48521
9.24998
8.92044
8.44097
7.76706
6.65589
5.1181
1
1
1
1
1
1
1
1
1
1
1
1
1
1
1
1
1
1
1
1
1
1
1
1
1
1
0.999956
4.37623
9.37723
9.82488
9.89236
9.93077
9.94945
9.95884
9.9559
9.93394
9.88986
9.82058
9.72495
9.60167
9.44715
9.24886
8.98529
8.63086
8.13621
7.45852
6.42847
5.22965
1
1
1
1
1
1
1
1
1
1
1
1
1
1
1
1
1
1
1
1
1
1
1
1
1
1
0.999989
2.59796
8.61619
9.79499
9.81251
9.85548
9.86873
9.86164
9.84167
9.80538
9.74894
9.66654
9.55592
9.4165
9.24389
9.02718
8.74563
8.37487
7.88647
7.22248
6.32811
5.34333
1
1
1
1
1
1
1
1
1
1
1
1
1
1
1
1
1
1
1
1
1
1
1
1
1
1
0.999998
1.2485
7.46938
9.90161
9.78328
9.75944
9.76388
9.74973
9.72219
9.6774
9.61144
9.51938
9.39701
9.24377
9.056
8.82437
8.53213
8.15634
7.67744
7.05502
6.29172
5.45624
1
1
1
1
1
1
1
1
1
1
1
1
1
1
1
1
1
1
1
1
1
1
1
1
1
1
1
1.00608
5.70943
9.39066
9.57448
9.64171
9.65251
9.63361
9.6002
9.54832
9.474
9.3733
9.24202
9.07935
8.88134
8.64081
8.34472
7.9739
7.50757
6.93995
6.2787
5.55518
1
1
1
1
1
1
1
1
1
1
1
1
1
1
1
1
1
1
1
1
1
1
1
1
1
1
1
0.999945
3.51797
8.83998
9.51857
9.55007
9.57018
9.54712
9.50134
9.43593
9.34926
9.238
9.09892
8.92899
8.72384
8.47741
8.18165
7.82105
7.3765
6.8593
6.27633
5.64747
1
1
1
1
1
1
1
1
1
1
1
1
1
1
1
1
1
1
1
1
1
1
1
1
1
1
1
0.999986
1.65367
7.94443
9.65677
9.52371
9.46778
9.43368
9.38172
9.31065
9.21788
9.10031
8.95575
8.78305
8.57582
8.32965
8.03803
7.68703
7.26918
6.80272
6.2783
5.72847
1
1
1
1
1
1
1
1
1
1
1
1
1
1
1
1
1
1
1
1
1
1
1
1
1
1
1
0.999998
1.04045
6.17696
9.24325
9.32327
9.34745
9.31733
9.26173
9.18747
9.09177
8.97061
8.82376
8.64865
8.44323
8.20103
7.91545
7.57007
7.18406
6.76086
6.28238
5.80082
1
1
1
1
1
1
1
1
1
1
1
1
1
1
1
1
1
1
1
1
1
1
1
1
1
1
1
1
1.00001
3.65434
8.69574
9.27686
9.2605
9.22392
9.16611
9.08394
8.97952
8.85054
8.69918
8.52262
8.31493
8.08219
7.80009
7.46922
7.11338
6.72054
6.28427
5.85452
1
1
1
1
1
1
1
1
1
1
1
1
1
1
1
1
1
1
1
1
1
1
1
1
1
1
1
1
0.999992
1.57158
7.77817
9.41004
9.2098
9.11383
9.04762
8.96432
8.86322
8.73721
8.58824
8.41196
8.20765
7.97498
7.70146
7.39239
7.06128
6.69216
6.29616
5.90038
1
1
1
1
1
1
1
1
1
1
1
1
1
1
1
1
1
1
1
1
1
1
1
1
1
1
1
1
0.999998
1.02906
5.84506
8.93996
8.97717
8.97903
8.92955
8.85118
8.75474
8.6339
8.48792
8.3122
8.10775
7.87728
7.61578
7.32699
7.01563
6.66861
6.30793
5.936
1
1
1
1
1
1
1
1
1
1
1
1
1
1
1
1
1
1
1
1
1
1
1
1
1
1
1
1
1
0.99996
3.10572
8.26662
8.91495
8.91586
8.86211
8.77819
8.67786
8.55506
8.40731
8.23107
8.02668
7.79928
7.54674
7.27409
6.9789
6.65512
6.32066
5.97216
1
1
1
1
1
1
1
1
1
1
1
1
1
1
1
1
1
1
1
1
1
1
1
1
1
1
1
1
1
0.999985
1.30596
6.88146
8.96576
8.85052
8.77898
8.68809
8.58593
8.46555
8.32132
8.1493
7.95103
7.72961
7.48529
7.22412
6.94273
6.64101
6.32497
6.00196
1
1
1
1
1
1
1
1
1
1
1
1
1
1
1
1
1
1
1
1
1
1
1
1
1
1
1
1
1
0.999997
1.00774
4.34589
8.43142
8.68048
8.65784
8.60131
8.50704
8.38705
8.24595
8.07942
7.88632
7.67116
7.43463
7.18098
6.91155
6.62735
6.32765
6.02939
1
1
1
1
1
1
1
1
1
1
1
1
1
1
1
1
1
1
1
1
1
1
1
1
1
1
1
1
1
1
0.999977
1.68186
7.48422
8.82451
8.66152
8.55769
8.44296
8.315
8.17315
8.01048
7.82213
7.61428
7.38787
7.14298
6.88397
6.61265
6.3273
6.04794
1
1
1
1
1
1
1
1
1
1
1
1
1
1
1
1
1
1
1
1
1
1
1
1
1
1
1
1
1
1
0.999994
1.0383
5.31049
8.43856
8.5056
8.45883
8.35727
8.23623
8.09842
7.94062
7.75898
7.55917
7.34298
7.10673
6.85767
6.59924
6.32778
6.06445
1
1
1
1
1
1
1
1
1
1
1
1
1
1
1
1
1
1
1
1
1
1
1
1
1
1
1
1
1
1
0.999999
1.00004
2.29246
7.71207
8.5529
8.42462
8.30049
8.17491
8.03592
7.87856
7.70147
7.50818
7.29972
7.07232
6.83496
6.59066
6.33324
6.08131
1
1
1
1
1
1
1
1
1
1
1
1
1
1
1
1
1
1
1
1
1
1
1
1
1
1
1
1
1
1
1
1
1.11989
5.81912
8.40218
8.32505
8.21735
8.09801
7.96159
7.80803
7.63864
7.45395
7.25417
7.03813
6.8125
6.58016
6.33658
6.0927
1
1
1
1
1
1
1
1
1
1
1
1
1
1
1
1
1
1
1
1
1
1
1
1
1
1
1
1
1
1
1
1
1.00101
2.71466
7.67945
8.2938
8.17599
8.0529
7.91115
7.75737
7.59045
7.40966
7.21714
7.01218
6.79679
6.57481
6.34519
6.11048
1
1
1
1
1
1
1
1
1
1
1
1
1
1
1
1
1
1
1
1
1
1
1
1
1
1
1
1
1
1
1
1
1
1.19773
5.89657
8.23524
8.12628
8.00655
7.86442
7.71208
7.54703
7.37014
7.18321
6.98651
6.78092
6.56911
6.35095
6.12742
1
1
1
1
1
1
1
1
1
1
1
1
1
1
1
1
1
1
1
1
1
1
1
1
1
1
1
1
1
1
1
1
1
1.003
2.76138
7.47708
8.07309
7.9541
7.82522
7.67719
7.5128
7.33763
7.15525
6.9658
6.76912
6.56652
6.35775
6.1446
1
1
1
1
1
1
1
1
1
1
1
1
1
1
1
1
1
1
1
1
1
1
1
1
1
1
1
1
1
1
1
1
1
1
1.20826
5.67959
8.05033
7.93267
7.79803
7.64006
7.47557
7.30555
7.13093
6.95002
6.7611
6.56589
6.36597
6.16011
1
1
1
1
1
1
1
1
1
1
1
1
1
1
1
1
1
1
1
1
1
1
1
1
1
1
1
1
1
1
1
1
1
1
1.00345
2.51054
7.20497
7.88586
7.73499
7.59557
7.44548
7.28761
7.11991
6.94344
6.7586
6.5676
6.37386
6.175
1
1
1
1
1
1
1
1
1
1
1
1
1
1
1
1
1
1
1
1
1
1
1
1
1
1
1
1
1
1
1
1
1
1
1.00001
1.15677
5.22378
7.80454
7.71291
7.57464
7.42387
7.2686
7.10251
6.92874
6.7497
6.56548
6.37735
6.1869
1
1
1
1
1
1
1
1
1
1
1
1
1
1
1
1
1
1
1
1
1
1
1
1
1
1
1
1
1
1
1
1
1
1
1
1.00213
2.19425
6.78078
7.68528
7.52412
7.39806
7.24999
7.08922
6.92031
6.7471
6.56977
6.3871
6.20251
1
1
1
1
1
1
1
1
1
1
1
1
1
1
1
1
1
1
1
1
1
1
1
1
1
1
1
1
1
1
1
1
1
1
1
1.00001
1.09909
4.40538
7.4571
7.50674
7.38095
7.23183
7.07487
6.91159
6.7437
6.57324
6.39891
6.21936
1
1
1
1
1
1
1
1
1
1
1
1
1
1
1
1
1
1
1
1
1
1
1
1
1
1
1
1
1
1
1
1
1
1
1
1
1.00112
1.76112
6.13097
7.54457
7.36867
7.21885
7.06739
6.9129
6.75164
6.58575
6.41681
6.24164
1
1
1
1
1
1
1
1
1
1
1
1
1
1
1
1
1
1
1
1
1
1
1
1
1
1
1
1
1
1
1
1
1
1
1
1
1
1.04265
3.29758
6.98855
7.33393
7.19607
7.05802
6.90999
6.7536
6.58994
6.42284
6.25392
1
1
1
1
1
1
1
1
1
1
1
1
1
1
1
1
1
1
1
1
1
1
1
1
1
1
1
1
1
1
1
1
1
1
1
1
1
1.00039
1.35559
5.21977
7.36244
7.21555
7.0743
6.91935
6.76262
6.60088
6.43575
6.27138
1
1
1
1
1
1
1
1
1
1
1
1
1
1
1
1
1
1
1
1
1
1
1
1
1
1
1
1
1
1
1
1
1
1
1
1
1
1
1.01065
2.32938
6.39177
7.19117
7.03734
6.89603
6.74633
6.59351
6.43772
6.27971
1
1
1
1
1
1
1
1
1
1
1
1
1
1
1
1
1
1
1
1
1
1
1
1
1
1
1
1
1
1
1
1
1
1
1
1
1
1
1.00007
1.12276
3.91901
6.88709
7.05543
6.9205
6.77173
6.62108
6.46766
6.31124
1
1
1
1
1
1
1
1
1
1
1
1
1
1
1
1
1
1
1
1
1
1
1
1
1
1
1
1
1
1
1
1
1
1
1
1
1
1
1
1.00196
1.57793
5.34797
7.05999
6.94017
6.79082
6.64246
6.4885
6.33132
1
1
1
1
1
1
1
1
1
1
1
1
1
1
1
1
1
1
1
1
1
1
1
1
1
1
1
1
1
1
1
1
1
1
1
1
1
1
1
1.00001
1.02626
2.52758
6.24784
6.92025
6.79075
6.64122
6.49284
6.34015
1
1
1
1
1
1
1
1
1
1
1
1
1
1
1
1
1
1
1
1
1
1
1
1
1
1
1
1
1
1
1
1
1
1
1
1
1
1
1
1
1.00024
1.16166
3.87607
6.60534
6.81343
6.67386
6.52173
6.37205
1
1
1
1
1
1
1
1
1
1
1
1
1
1
1
1
1
1
1
1
1
1
1
1
1
1
1
1
1
1
1
1
1
1
1
1
1
1
1
1
1
1.00322
1.57136
5.04344
6.75537
6.70481
6.55256
6.39957
1
1
1
1
1
1
1
1
1
1
1
1
1
1
1
1
1
1
1
1
1
1
1
1
1
1
1
1
1
1
1
1
1
1
1
1
1
1
1
1
1
1.00002
1.02631
2.32458
5.83173
6.67507
6.57006
6.41771
1
1
1
1
1
1
1
1
1
1
1
1
1
1
1
1
1
1
1
1
1
1
1
1
1
1
1
1
1
1
1
1
1
1
1
1
1
1
1
1
1
1
1.00026
1.12465
3.33386
6.2597
6.58997
6.45414
1
1
1
1
1
1
1
1
1
1
1
1
1
1
1
1
1
1
1
1
1
1
1
1
1
1
1
1
1
1
1
1
1
1
1
1
1
1
1
1
1
1
1
1.00228
1.38143
4.38562
6.37844
6.4843
1
1
1
1
1
1
1
1
1
1
1
1
1
1
1
1
1
1
1
1
1
1
1
1
1
1
1
1
1
1
1
1
1
1
1
1
1
1
1
1
1
1
1
1.00001
1.01366
1.8694
5.12546
6.41887
1
1
1
1
1
1
1
1
1
1
1
1
1
1
1
1
1
1
1
1
1
1
1
1
1
1
1
1
1
1
1
1
1
1
1
1
1
1
1
1
1
1
1
1
1.00011
1.05775
2.53501
5.6459
1
1
1
1
1
1
1
1
1
1
1
1
1
1
1
1
1
1
1
1
1
1
1
1
1
1
1
1
1
1
1
1
1
1
1
1
1
1
1
1
1
1
1
1
1
1.00081
1.17067
3.3067
1
1
1
1
1
1
1
1
1
1
1
1
1
1
1
1
1
1
1
1
1
1
1
1
1
1
1
1
1
1
1
1
1
1
1
1
1
1
1
1
1
1
1
1
1
1
1.0039
1.38964
1
1
1
1
1
1
1
1
1
1
1
1
1
1
1
1
1
1
1
1
1
1
1
1
1
1
1
1
1
1
1
1
1
1
1
1
1
1
1
1
1
1
1
1
1
1
1.00002
1.01466
1
1
1
1
1
1
1
1
1
1
1
1
1
1
1
1
1
1
1
1
1
1
1
1
1
1
1
1
1
1
1
1
1
1
1
1
1
1
1
1
1
1
1
1
1
1
1
1.00013
1
1
1
1
1
1
1
1
1
1
1
1
1
1
1
1
1
1
1
1
1
1
1
1
1
1
1
1
1
1
1
1
1
1
1
1
1
1
1
1
1
1
1
1
1
1
1
1
1
1
1
1
1
1
1
1
1
1
1
1
1
1
1
1
1
1
1
1
1
1
1
1
1
1
1
1
1
1
1
1
1
1
1
1
1
1
1
1
1
1
1
1
1
1
1
1
1
1
1
1
1
1
1
1
1
1
1
1
1
1
1
1
1
1
1
1
1
1
1
1
1
1
1
1
1
1
1
1
1
1
1
1
1
1
1
1
1
1
1
1
1
1
1
1
1
1
1
1
1
1
1
1
1
1
1
1
1
1
1
1
1
1
1
1
1
1
1
1
1
1
1
1
1
1
1
1
1
1
1
1
1
1
1
1
1
1
1
1
1
1
1
1
1
1
1
1
1
1
1
1
1
1
1
1
1
1
1
1
1
1
1
1
1
1
1
1
1
1
1
1
1
1
1
1
1
1
1
1
1
1
1
1
1
1
1
1
1
1
1
1
1
1
1
1
1
1
1
1
1
1
1
1
1
1
1
1
1
1
1
1
1
1
1
1
1
1
1
1
1
1
1
1
1
1
1
1
1
1
1
1
1
1
1
1
1
1
1
1
1
1
1
1
1
1
1
1
1
1
1
1
1
1
1
1
1
1
1
1
1
1
1
1
1
1
1
1
1
1
1
1
1
1
1
1
1
1
1
1
1
1
1
1
1
1
1
1
1
1
1
1
1
1
1
1
1
1
1
1
1
1
1
1
1
1
1
1
1
1
1
1
1
1
1
1
1
1
1
1
1
1
1
1
1
1
1
1
1
1
1
1
1
1
1
1
1
1
1
1
1
1
1
1
1
1
1
1
1
1
1
1
1
1
1
1
1
1
1
1
1
1
1
1
1
1
1
1
1
1
1
1
1
1
1
1
1
1
1
1
1
1
1
1
1
1
1
1
1
1
1
1
1
1
1
1
1
1
1
1
1
1
1
1
1
1
1
1
1
1
1
1
1
1
1
1
1
1
1
1
1
1
1
1
1
1
1
1
1
1
1
1
1
1
1
1
1
1
1
1
1
1
1
1
1
1
1
1
1
1
1
1
1
1
1
1
1
1
1
1
1
1
1
1
1
1
1
1
1
1
1
1
1
1
1
1
1
1
1
1
1
1
1
1
1
1
1
1
1
1
1
1
1
1
1
1
1
1
1
1
1
1
1
1
1
1
1
1
1
1
1
1
1
1
1
1
1
1
1
1
1
1
1
1
1
1
1
1
1
1
1
1
1
1
1
1
1
1
1
1
1
1
1
1
1
1
1
1
1
1
1
1
1
1
1
1
1
1
1
1
1
1
1
1
1
1
1
1
1
1
1
1
1
1
1
1
1
1
1
1
1
1
1
1
1
1
1
1
1
1
1
1
1
1
1
1
1
1
1
1
1
1
1
1
1
1
1
1
1
1
1
1
1
1
1
1
1
1
1
1
1
1
1
1
1
1
1
1
1
1
1
1
1
1
1
1
1
1
1
1
1
1
1
1
1
1
1
1
1
1
1
1
1
1
1
1
1
1
1
1
1
1
1
1
1
1
1
1
1
1
1
1
1
1
1
1
1
1
1
1
1
1
1
1
1
1
1
1
1
1
1
1
1
1
1
1
1
1
1
1
1
1
1
1
1
1
1
1
1
1
1
1
1
1
1
1
1
1
1
1
1
1
1
1
1
1
1
1
1
1
1
1
1
1
1
1
1
1
1
1
1
1
1
1
1
1
1
1
1
1
1
1
1
1
1
1
1
1
1
1
1
1
1
1
1
1
1
1
1.16428
0.252987
0.0705602
0.0271791
0.0375667
0.0706896
0.110156
0.152475
0.207323
0.284444
0.370631
0.452041
0.544103
0.63556
0.715235
0.742215
0.772723
0.818537
0.869613
0.893353
0.91096
0.935248
0.969146
0.996809
1.01702
1.03785
1.04955
1.06865
1.08475
1.09225
1.10752
1.13185
1.16714
1.19111
1.20411
1.21703
1.2179
1.21277
1.21138
1.21308
1.21998
1.24066
1.26811
1.27677
1.27832
1.28004
1.28049
1.28235
1.2856
1.28794
1.29061
1.29681
1.30644
1.30734
1.30285
1.29451
1.28498
1.28055
1.2791
1.28099
1.2895
1.30152
1.30465
1.30256
1.29536
1.28035
1.26731
1.26494
1.26827
1.28093
1.30059
1.31045
1.30971
1.30352
1.2894
1.2772
1.27452
1.27514
1.28091
1.28603
1.28363
1.27576
1.28814
1.41544
1.93311
3.3067
5.24348
6.82673
6.96223
6.53976
6.17479
6.05702
6.02598
5.99161
5.94416
5.84718
5.73831
5.63993
5.56245
5.5071
5.45839
5.39637
5.32692
5.24478
5.15452
5.07756
5.02217
4.97697
4.9366
4.90437
4.87463
4.83687
4.79105
4.73638
4.66555
4.59276
4.52902
4.47238
4.41963
4.3694
4.32206
4.27772
4.23524
4.19335
4.15135
4.1086
4.06574
4.02835
3.99202
3.95535
3.91667
3.8765
3.83556
3.79362
3.75179
3.71097
3.67133
3.63673
3.61105
3.58947
3.56811
3.54627
3.52206
3.48896
3.44161
3.38651
3.33408
3.29202
3.26009
3.23383
3.21046
3.18851
3.16693
3.14556
3.12344
3.09423
3.05491
3.01648
2.98269
2.95011
2.9165
2.88303
2.85591
2.83454
2.81627
2.8051
2.79532
2.77585
2.75351
2.72608
2.69208
2.65569
2.62673
2.61041
2.60011
2.5936
2.58484
2.56719
2.52773
2.45863
2.40138
2.37679
2.36445
2.35507
2.3475
2.3433
2.33602
2.32562
2.31031
2.28298
2.25283
2.21769
2.10224
1.01278
0.599082
0.300829
0.216243
0.234461
0.235345
0.222968
0.223732
0.237704
0.259571
0.290174
0.321989
0.37171
0.451321
0.536372
0.596553
0.650108
0.712753
0.773989
0.816827
0.856573
0.901914
0.940788
0.977609
1.01721
1.03932
1.0617
1.08403
1.09189
1.09812
1.11507
1.14378
1.1677
1.18263
1.19623
1.20529
1.20528
1.20654
1.21007
1.21941
1.24266
1.27119
1.27924
1.28072
1.2804
1.27318
1.26683
1.26851
1.27203
1.27809
1.28969
1.30138
1.30333
1.30205
1.29842
1.29261
1.28837
1.2851
1.28217
1.28246
1.28547
1.28911
1.29073
1.28949
1.28664
1.28238
1.27734
1.27613
1.27969
1.2869
1.29464
1.29937
1.29915
1.29685
1.29145
1.28409
1.27818
1.27474
1.27342
1.27111
1.29118
1.47274
1.93831
2.56178
3.03015
3.87734
5.10103
5.88359
6.13558
6.10998
6.04983
6.01531
5.95474
5.91628
5.82759
5.72926
5.62966
5.54994
5.48826
5.43927
5.38406
5.32274
5.25614
5.182
5.10722
5.04254
4.99106
4.94487
4.89912
4.8525
4.80352
4.75189
4.69801
4.64174
4.58655
4.53785
4.49036
4.44035
4.38789
4.33451
4.28413
4.23862
4.19564
4.15382
4.11207
4.07061
4.02976
3.99082
3.95348
3.91688
3.8805
3.84292
3.80518
3.76676
3.72706
3.68574
3.64559
3.6122
3.58555
3.56078
3.5348
3.50561
3.4729
3.43576
3.39045
3.34302
3.30341
3.27258
3.24619
3.221
3.19556
3.16935
3.14091
3.10635
3.07099
3.04313
3.01805
2.99351
2.96817
2.93974
2.9071
2.8727
2.84364
2.82215
2.80203
2.78153
2.7653
2.74646
2.72407
2.69756
2.66867
2.64179
2.61886
2.59875
2.57996
2.56466
2.54718
2.51776
2.47512
2.43022
2.39267
2.36938
2.35678
2.34758
2.33858
2.3291
2.31853
2.30554
2.28536
2.26168
2.22541
2.98363
1.81436
1.19083
0.808806
0.592932
0.486713
0.408537
0.356742
0.321964
0.312828
0.324383
0.337307
0.34018
0.355987
0.393452
0.429791
0.467759
0.513413
0.572297
0.646042
0.71866
0.771102
0.829633
0.888434
0.933091
0.981892
1.01676
1.04875
1.08565
1.09911
1.10939
1.13284
1.16366
1.18271
1.19118
1.19427
1.19373
1.1911
1.19389
1.20031
1.21252
1.23735
1.26897
1.28567
1.29104
1.29255
1.28576
1.26946
1.26088
1.26174
1.26858
1.28672
1.30238
1.30499
1.30508
1.30069
1.29342
1.29208
1.2922
1.29299
1.29167
1.2869
1.27966
1.27436
1.27482
1.27924
1.28682
1.2941
1.29739
1.29649
1.28951
1.281
1.27895
1.28143
1.28741
1.29322
1.29507
1.29236
1.28343
1.27837
1.30621
1.5061
2.10629
2.66424
3.02936
2.98849
3.05329
3.56042
4.59515
5.66074
6.19821
6.17046
6.07037
5.98488
5.90599
5.81733
5.72937
5.63046
5.55339
5.48321
5.41522
5.35184
5.28993
5.23093
5.17587
5.12259
5.07112
5.02322
4.97516
4.92251
4.86356
4.79698
4.72231
4.65144
4.59907
4.5571
4.51944
4.48432
4.44402
4.39929
4.34881
4.29109
4.2356
4.18808
4.14498
4.10462
4.06614
4.02607
3.98226
3.93689
3.89791
3.86451
3.83602
3.80618
3.77713
3.74816
3.71377
3.66956
3.62062
3.58084
3.54986
3.52016
3.48838
3.45311
3.41375
3.3721
3.33169
3.30007
3.27834
3.26059
3.24109
3.21611
3.18259
3.13728
3.0861
3.04229
3.01056
2.98974
2.97476
2.96438
2.95128
2.93273
2.90788
2.87357
2.83236
2.79632
2.77059
2.74821
2.72738
2.7079
2.69128
2.67626
2.65879
2.6331
2.59949
2.56813
2.53912
2.51319
2.48984
2.47045
2.45219
2.42857
2.39559
2.36421
2.34626
2.33423
2.32212
2.30808
2.29118
2.2736
2.26145
2.23516
3.52237
2.51677
1.81181
1.32678
1.05471
0.842283
0.681414
0.621631
0.564112
0.489172
0.466303
0.468347
0.458447
0.431859
0.415903
0.42313
0.428674
0.438884
0.462879
0.51173
0.581893
0.641505
0.706365
0.780449
0.826892
0.866642
0.912337
0.950283
1.00075
1.04698
1.08643
1.12412
1.15383
1.17322
1.18191
1.18545
1.19002
1.18882
1.19317
1.20235
1.21427
1.2334
1.25652
1.26849
1.27336
1.27541
1.27486
1.2695
1.2635
1.26459
1.27132
1.28524
1.29609
1.29845
1.29653
1.28924
1.2819
1.28117
1.28349
1.28895
1.29202
1.2915
1.2857
1.27538
1.27218
1.27282
1.27683
1.28615
1.29407
1.29598
1.2952
1.28938
1.27976
1.27596
1.27718
1.28178
1.28608
1.28685
1.29394
1.3435
1.58248
2.19878
2.74907
2.99707
3.09834
3.05464
3.00373
3.01481
3.26239
4.15607
5.27776
5.79021
5.93575
6.0126
5.95783
5.85154
5.73426
5.62275
5.54469
5.47334
5.40613
5.34715
5.2918
5.23524
5.17988
5.12694
5.07311
5.01976
4.96746
4.91355
4.8553
4.7888
4.71208
4.6433
4.59749
4.55847
4.52285
4.48807
4.44962
4.40914
4.36175
4.30134
4.23908
4.1895
4.14835
4.11182
4.07669
4.04015
3.99893
3.94988
3.89813
3.85592
3.82255
3.79301
3.7666
3.74177
3.71473
3.67904
3.62982
3.57621
3.5343
3.50251
3.47321
3.44381
3.41457
3.38407
3.34593
3.3011
3.27472
3.25855
3.2431
3.22265
3.19408
3.14787
3.08219
3.02748
3.00012
2.98249
2.96731
2.95548
2.94814
2.93996
2.92279
2.89849
2.8596
2.80521
2.76018
2.73235
2.71231
2.69666
2.68517
2.67386
2.66003
2.64227
2.61186
2.56408
2.51907
2.48824
2.47086
2.46215
2.4542
2.44339
2.42552
2.39212
2.35306
2.32872
2.31138
2.29454
2.28032
2.26953
2.26158
2.23807
3.97825
3.08
2.3869
1.87721
1.5361
1.23443
0.993349
0.89663
0.843408
0.752669
0.620999
0.594842
0.59142
0.559222
0.506479
0.500211
0.507928
0.501292
0.501387
0.512474
0.520283
0.529355
0.544829
0.578937
0.616661
0.657242
0.725807
0.803576
0.888785
0.973481
1.03826
1.07233
1.09382
1.12288
1.13833
1.14349
1.15931
1.18452
1.20303
1.21934
1.23391
1.24497
1.24882
1.25514
1.2611
1.26438
1.26753
1.26887
1.26993
1.27364
1.28135
1.28813
1.28984
1.28771
1.28283
1.27962
1.28137
1.28661
1.29317
1.29553
1.29472
1.2914
1.28372
1.27185
1.26539
1.26501
1.26828
1.27931
1.29141
1.29577
1.29736
1.29608
1.28881
1.28041
1.27848
1.27868
1.28169
1.29627
1.36969
1.70529
2.30465
2.87577
2.99951
3.08494
3.10056
3.07645
3.02849
2.9958
2.98934
3.10271
3.67429
4.68248
5.4184
5.84559
5.86344
5.83761
5.75367
5.66755
5.5733
5.47906
5.39419
5.33024
5.28044
5.23398
5.18775
5.13571
5.07818
5.01986
4.96329
4.90698
4.84431
4.77053
4.69553
4.63643
4.59282
4.55591
4.52283
4.49088
4.45568
4.41809
4.37042
4.3041
4.23469
4.18301
4.14452
4.11121
4.0782
4.04392
4.00716
3.96393
3.91272
3.86313
3.82217
3.78819
3.75896
3.73243
3.70519
3.67224
3.62744
3.5693
3.51165
3.47135
3.44624
3.4271
3.40941
3.3905
3.36499
3.32706
3.2848
3.2558
3.23394
3.20985
3.17931
3.1387
3.0898
3.04416
3.0102
2.98762
2.97041
2.95577
2.94497
2.93383
2.9174
2.89678
2.86585
2.8166
2.7644
2.72961
2.70745
2.69116
2.67754
2.66482
2.65189
2.63581
2.60823
2.55888
2.50552
2.48191
2.47288
2.46555
2.45843
2.44905
2.43689
2.41311
2.36771
2.32362
2.30153
2.28876
2.27859
2.27067
2.26416
2.23844
4.35051
3.56819
2.86423
2.33302
1.98772
1.67996
1.3735
1.15762
1.0922
1.01526
0.894266
0.76997
0.747383
0.73019
0.665843
0.628193
0.620815
0.600893
0.578023
0.564478
0.548606
0.546304
0.554849
0.552121
0.551597
0.556194
0.575595
0.616039
0.680138
0.771461
0.86826
0.936396
0.976381
1.03206
1.07919
1.10008
1.12742
1.1654
1.18781
1.20524
1.22183
1.22899
1.22834
1.23137
1.24
1.24526
1.24926
1.25672
1.2679
1.27603
1.27922
1.28035
1.27945
1.27966
1.28048
1.28382
1.28835
1.29029
1.2892
1.28559
1.28217
1.27984
1.27686
1.27207
1.26959
1.26993
1.27463
1.28466
1.29246
1.29457
1.29505
1.29458
1.2912
1.28325
1.27744
1.27794
1.29114
1.3855
1.81706
2.50388
2.87025
3.07222
3.12325
3.12263
3.09569
3.05688
3.03476
3.01493
2.99479
2.97205
3.00295
3.29534
4.02822
5.07756
5.49148
5.71722
5.70875
5.7029
5.61458
5.50381
5.40037
5.31523
5.25412
5.20567
5.16255
5.11676
5.06774
5.01505
4.9597
4.90275
4.83883
4.76388
4.69798
4.64656
4.59844
4.5572
4.52155
4.48907
4.45698
4.42153
4.37411
4.30821
4.23975
4.18636
4.14443
4.10771
4.0738
4.04108
4.00745
3.96954
3.92133
3.87016
3.82432
3.78422
3.74889
3.71821
3.68988
3.65923
3.62129
3.57236
3.51519
3.4658
3.43809
3.42017
3.40315
3.38555
3.36528
3.33796
3.29943
3.25722
3.22295
3.19243
3.16092
3.1292
3.099
3.06648
3.02837
2.99345
2.97031
2.95303
2.93682
2.92022
2.90244
2.88179
2.85444
2.81912
2.78093
2.74559
2.71493
2.68936
2.6687
2.65134
2.63507
2.61615
2.58771
2.54747
2.50921
2.48781
2.47622
2.46727
2.45845
2.44864
2.43701
2.41625
2.37525
2.32754
2.30165
2.28901
2.27819
2.26945
2.2601
2.23182
4.64018
3.94401
3.27766
2.77902
2.3813
2.03085
1.73827
1.52686
1.34256
1.23231
1.15313
1.01727
0.903595
0.873205
0.838238
0.774721
0.743949
0.723012
0.687858
0.666397
0.645203
0.623716
0.61705
0.602646
0.580604
0.577342
0.582825
0.590764
0.600954
0.618132
0.647826
0.692812
0.752045
0.820966
0.914914
0.993854
1.04887
1.11075
1.15108
1.17647
1.20585
1.21752
1.21721
1.21505
1.2196
1.22441
1.22999
1.24034
1.25784
1.26805
1.27085
1.27184
1.27113
1.27288
1.28133
1.28978
1.29101
1.28876
1.28178
1.27557
1.27107
1.26855
1.26839
1.27262
1.28114
1.28697
1.28796
1.28524
1.28236
1.28238
1.28219
1.28037
1.27948
1.27953
1.28235
1.29769
1.42017
1.90159
2.63986
3.00752
3.14069
3.14257
3.11714
3.0857
3.06326
3.04501
3.04009
3.03052
3.00658
2.9686
2.92556
2.91176
3.0199
3.54337
4.41087
5.21807
5.49975
5.61171
5.56675
5.49726
5.41269
5.32748
5.25026
5.18254
5.12909
5.08338
5.04288
5.00215
4.95526
4.90316
4.84028
4.76517
4.70359
4.65692
4.6121
4.56815
4.53052
4.49743
4.4632
4.41929
4.36575
4.30678
4.24846
4.19781
4.15234
4.11008
4.07226
4.04005
4.00879
3.9668
3.91801
3.87194
3.82989
3.78846
3.74584
3.70398
3.66835
3.63849
3.60866
3.57408
3.53311
3.48749
3.44491
3.41492
3.39315
3.37239
3.35194
3.32859
3.29621
3.25306
3.21167
3.17954
3.1526
3.12907
3.10687
3.08146
3.0486
3.00999
2.97342
2.94352
2.92014
2.89939
2.87827
2.85832
2.83822
2.81566
2.79116
2.76442
2.73432
2.70048
2.66752
2.64039
2.61612
2.59062
2.56491
2.5414
2.52344
2.50629
2.48641
2.46994
2.45939
2.4497
2.43464
2.4081
2.37447
2.34378
2.31778
2.29595
2.28017
2.26787
2.25341
2.21569
4.85962
4.22049
3.62051
3.15343
2.7511
2.35579
2.06597
1.86743
1.64016
1.44648
1.37112
1.28298
1.12739
1.00651
0.981079
0.934498
0.883797
0.857562
0.822499
0.791457
0.766809
0.728348
0.701537
0.682732
0.65171
0.622118
0.615999
0.61756
0.620723
0.624918
0.623474
0.618714
0.621462
0.636512
0.681004
0.763165
0.849243
0.942273
1.01908
1.07448
1.12517
1.17472
1.20831
1.21833
1.21517
1.20741
1.2141
1.22301
1.23474
1.24344
1.24396
1.24813
1.25552
1.2651
1.27826
1.2899
1.2916
1.28909
1.27675
1.26242
1.25722
1.2563
1.25995
1.27571
1.29344
1.29728
1.29608
1.2891
1.27533
1.26643
1.26371
1.2635
1.26702
1.27988
1.31187
1.47696
2.02584
2.77835
3.10075
3.17449
3.16764
3.11816
3.08022
3.06052
3.04903
3.03979
3.04088
3.01698
2.98407
2.94723
2.90281
2.88184
2.86986
2.90668
3.16539
3.84792
4.69354
5.27374
5.4617
5.44245
5.40654
5.34421
5.28319
5.19935
5.11656
5.06214
5.01556
4.98012
4.94283
4.89858
4.8448
4.77939
4.72221
4.67527
4.63218
4.58736
4.53626
4.48135
4.43205
4.38995
4.3483
4.30266
4.25635
4.21285
4.16907
4.12324
4.0769
4.02973
3.98144
3.94142
3.90587
3.86859
3.83118
3.79351
3.75315
3.7091
3.66733
3.63499
3.60711
3.57867
3.54739
3.51099
3.46674
3.42189
3.38911
3.36568
3.34379
3.31863
3.28673
3.24631
3.20724
3.17653
3.15201
3.12977
3.10812
3.08557
3.05672
3.02271
2.98634
2.94819
2.91161
2.88523
2.86764
2.84933
2.82802
2.80594
2.78494
2.76552
2.74482
2.71767
2.68003
2.63861
2.6022
2.57078
2.54695
2.53452
2.52473
2.5147
2.50174
2.4822
2.45915
2.4339
2.40925
2.38709
2.36951
2.35502
2.3384
2.31617
2.28796
2.25676
2.22709
2.19361
5.04637
4.45662
3.91563
3.46909
3.0668
2.67008
2.37472
2.14767
1.94271
1.72341
1.56103
1.47073
1.35474
1.20627
1.13377
1.09128
1.03504
0.988839
0.938316
0.896001
0.876793
0.847889
0.798628
0.767024
0.748968
0.72384
0.696176
0.690652
0.690193
0.679592
0.66024
0.638905
0.628307
0.627229
0.628541
0.638594
0.663072
0.716193
0.792667
0.867285
0.935261
1.00345
1.06647
1.12203
1.17616
1.20412
1.21894
1.23195
1.23609
1.23509
1.2297
1.23285
1.24148
1.2539
1.2707
1.28466
1.28637
1.28394
1.27175
1.25473
1.24885
1.24875
1.25559
1.27474
1.29167
1.29471
1.29374
1.28853
1.27312
1.25507
1.25214
1.25308
1.26264
1.31463
1.55265
2.15793
2.86626
3.21083
3.20217
3.17475
3.13988
3.10627
3.07522
3.06526
3.05878
3.0433
3.01932
2.99153
2.96035
2.92975
2.8967
2.87605
2.85637
2.84612
2.83739
2.92982
3.34325
4.08015
4.83018
5.15198
5.32892
5.33392
5.30942
5.21708
5.13408
5.07281
5.01781
4.97057
4.92398
4.87816
4.83247
4.78522
4.74002
4.69526
4.64883
4.59763
4.53822
4.47256
4.4147
4.36782
4.3244
4.28819
4.25681
4.22457
4.18839
4.14234
4.08273
4.01773
3.96059
3.91594
3.87835
3.84653
3.81831
3.79048
3.75969
3.72417
3.67907
3.62558
3.59108
3.56945
3.54704
3.52027
3.48661
3.44521
3.39932
3.35446
3.31103
3.27713
3.25497
3.23358
3.20852
3.18532
3.16332
3.1417
3.11701
3.08676
3.05592
3.02698
2.99888
2.96778
2.93169
2.89425
2.85669
2.82589
2.80837
2.7952
2.78245
2.76726
2.74889
2.7245
2.68727
2.63925
2.59442
2.56491
2.55026
2.54233
2.53742
2.52988
2.51593
2.49106
2.45184
2.41724
2.3959
2.38347
2.37332
2.36377
2.35018
2.32734
2.28415
2.23245
2.20291
2.18303
5.18656
4.64338
4.16797
3.74143
3.32109
2.95876
2.67866
2.41485
2.17631
1.98774
1.80485
1.64669
1.54151
1.41985
1.29949
1.23425
1.18368
1.14392
1.09971
1.0234
0.963454
0.943749
0.907617
0.855538
0.836585
0.821805
0.794588
0.767117
0.762554
0.755122
0.732783
0.694712
0.660471
0.653101
0.64646
0.645281
0.651575
0.662522
0.674032
0.688187
0.715896
0.764185
0.827567
0.913899
1.0097
1.10116
1.16526
1.20655
1.23723
1.24648
1.24343
1.22971
1.23113
1.24164
1.26124
1.27322
1.27306
1.27068
1.26073
1.25092
1.25082
1.25055
1.25645
1.272
1.28007
1.28209
1.28337
1.28026
1.26592
1.25383
1.24829
1.25044
1.30387
1.63443
2.3236
2.95062
3.26007
3.24942
3.17868
3.13461
3.11207
3.11393
3.09602
3.07689
3.05815
3.02438
2.98917
2.96798
2.94676
2.92394
2.90366
2.87682
2.84431
2.82127
2.80234
2.78166
2.80086
2.96397
3.50535
4.20546
4.88054
5.0995
5.1983
5.18403
5.14965
5.09759
5.02718
4.95844
4.89683
4.85084
4.81622
4.7826
4.74458
4.70389
4.65648
4.60137
4.53955
4.4718
4.40468
4.34768
4.30826
4.27946
4.25644
4.23182
4.19801
4.15282
4.0914
4.01638
3.95393
3.90664
3.86901
3.83919
3.81422
3.7931
3.77096
3.73775
3.68461
3.62288
3.58154
3.55471
3.53217
3.51049
3.48648
3.45781
3.41567
3.35778
3.30305
3.26305
3.23706
3.22217
3.21666
3.20338
3.17933
3.14328
3.10183
3.07275
3.05005
3.02903
3.00788
2.98439
2.95171
2.9031
2.85098
2.81863
2.7966
2.77561
2.75582
2.73791
2.72019
2.70059
2.6778
2.64394
2.60894
2.58475
2.56489
2.54385
2.52141
2.50515
2.49078
2.46927
2.43782
2.41056
2.39845
2.38975
2.38462
2.37459
2.35472
2.3203
2.26919
2.22143
2.1993
2.1813
5.3054
4.8175
4.38532
3.96993
3.55501
3.22967
2.93692
2.66336
2.40558
2.21842
2.03455
1.85025
1.71638
1.6143