/*--------------------------------*- C++ -*----------------------------------*\
  =========                 |
  \\      /  F ield         | OpenFOAM: The Open Source CFD Toolbox
   \\    /   O peration     | Website:  https://openfoam.org
    \\  /    A nd           | Version:  7
     \\/     M anipulation  |
\*---------------------------------------------------------------------------*/
FoamFile
{
    version     2.0;
    format      ascii;
    class       volScalarField;
    location    "2";
    object      T;
}
// * * * * * * * * * * * * * * * * * * * * * * * * * * * * * * * * * * * * * //

dimensions      [0 0 0 1 0 0 0];

internalField   nonuniform List<scalar> 
16128
(
1
1
1
1
1
1
1
1
1
1
1
1
1
1
1
1
1
1
1
1
1
1
1
1
1.26586
2.46204
2.71532
2.71889
2.7267
2.73217
2.73686
2.74157
2.74796
2.75713
2.76839
2.77939
2.78779
2.79296
2.79634
2.80027
2.80627
2.81372
2.82078
2.82671
2.83317
2.84087
2.84798
2.85148
1
1
1
1
1
1
1
1
1
1
1
1
1
1
1
1
1
1
1
1
1
1
1
1
1.25122
2.45343
2.71503
2.71941
2.72671
2.73201
2.73638
2.74092
2.74729
2.75654
2.76788
2.7789
2.78726
2.79236
2.79567
2.79955
2.80552
2.81292
2.81991
2.82574
2.83215
2.83984
2.84699
2.85053
1
1
1
1
1
1
1
1
1
1
1
1
1
1
1
1
1
1
1
1
1
1
1
1
1.21768
2.43439
2.71588
2.71951
2.72596
2.731
2.73518
2.73969
2.74621
2.7557
2.76722
2.77828
2.78654
2.79151
2.79474
2.79862
2.80459
2.8119
2.8187
2.82436
2.83065
2.83828
2.84544
2.849
1
1
1
1
1
1
1
1
1
1
1
1
1
1
1
1
1
1
1
1
1
1
1
1
1.17289
2.4072
2.71519
2.71929
2.72477
2.72933
2.73343
2.73818
2.74501
2.75471
2.76626
2.77724
2.78533
2.79014
2.79327
2.79714
2.8031
2.8103
2.81689
2.82234
2.82846
2.83601
2.84317
2.84675
1
1
1
1
1
1
1
1
1
1
1
1
1
1
1
1
1
1
1
1
1
1
1
1
1.11605
2.3701
2.71285
2.71693
2.72249
2.72743
2.73198
2.73721
2.74434
2.75401
2.7652
2.77571
2.78338
2.7879
2.79088
2.79476
2.80076
2.80792
2.81438
2.8197
2.82571
2.8332
2.84035
2.84395
1
1
1
1
1
1
1
1
1
1
1
1
1
1
1
1
1
1
1
1
1
1
1
1
1.03311
2.31715
2.71129
2.71667
2.72157
2.72612
2.73058
2.73579
2.7428
2.75215
2.76286
2.77305
2.78066
2.78527
2.78833
2.7922
2.79807
2.80497
2.81116
2.81629
2.82214
2.82953
2.83665
2.84027
1
1
1
1
1
1
1
1
1
1
1
1
1
1
1
1
1
1
1
1
1
1
1
1
1.00079
2.25571
2.70704
2.71199
2.71661
2.72196
2.7274
2.73343
2.74085
2.75018
2.76055
2.77036
2.77766
2.78204
2.78488
2.78853
2.79415
2.80083
2.80688
2.81196
2.81775
2.82509
2.8322
2.83588
1
1
1
1
1
1
1
1
1
1
1
1
1
1
1
1
1
1
1
1
1
1
1
1
1
2.176
2.70234
2.71
2.71427
2.71989
2.72561
2.73184
2.73907
2.74782
2.75747
2.76677
2.77393
2.77834
2.78111
2.78448
2.78965
2.7959
2.80171
2.80674
2.81246
2.81974
2.82689
2.83066
1
1
1
1
1
1
1
1
1
1
1
1
1
1
1
1
1
1
1
1
1
1
1
1
1
2.07407
2.69036
2.70753
2.71117
2.71679
2.72251
2.72877
2.73575
2.74395
2.75294
2.76182
2.76894
2.77345
2.77615
2.77917
2.7838
2.78962
2.79528
2.80038
2.80605
2.81318
2.82033
2.82413
1
1
1
1
1
1
1
1
1
1
1
1
1
1
1
1
1
1
1
1
1
1
1
1
1
1.94702
2.66587
2.70447
2.70712
2.71251
2.71797
2.724
2.73064
2.73833
2.74683
2.75542
2.76268
2.76745
2.77015
2.77278
2.77677
2.78208
2.7875
2.79252
2.79793
2.80482
2.81183
2.81555
1
1
1
1
1
1
1
1
1
1
1
1
1
1
1
1
1
1
1
1
1
1
1
1
1
1.79894
2.62851
2.69962
2.70041
2.70521
2.71059
2.71689
2.72377
2.73147
2.7399
2.7484
2.75576
2.76071
2.76332
2.76552
2.76883
2.77347
2.77844
2.78295
2.78777
2.79453
2.8015
2.80538
1
1
1
1
1
1
1
1
1
1
1
1
1
1
1
1
1
1
1
1
1
1
1
1
1
1.6172
2.56701
2.69056
2.69129
2.69596
2.70109
2.70742
2.71464
2.72268
2.73141
2.74009
2.74767
2.75282
2.75538
2.75717
2.75981
2.76373
2.76796
2.77178
2.77598
2.78188
2.78798
2.79096
1
1
1
1
1
1
1
1
1
1
1
1
1
1
1
1
1
1
1
1
1
1
1
1
1
1.3771
2.47096
2.68
2.67986
2.68538
2.6904
2.69677
2.70402
2.71211
2.72101
2.72999
2.73793
2.74346
2.74621
2.74787
2.74996
2.75284
2.75562
2.75782
2.76014
2.76462
2.76981
2.77336
1
1
1
1
1
1
1
1
1
1
1
1
1
1
1
1
1
1
1
1
1
1
1
1
1
1.1031
2.36288
2.67606
2.67203
2.67642
2.68085
2.68584
2.69232
2.70008
2.70876
2.71793
2.72609
2.73208
2.7353
2.737
2.7383
2.73977
2.74091
2.7416
2.74245
2.7451
2.74689
2.74423
1
1
1
1
1
1
1
1
1
1
1
1
1
1
1
1
1
1
1
1
1
1
1
1
1
1.00294
2.25658
2.66092
2.66081
2.66697
2.67273
2.67808
2.6831
2.68853
2.69559
2.70405
2.71189
2.7184
2.72233
2.7242
2.72469
2.72482
2.72418
2.72231
2.71875
2.71403
2.70937
2.7038
1
1
1
1
1
1
1
1
1
1
1
1
1
1
1
1
1
1
1
1
1
1
1
1
1
1
2.09036
2.64917
2.66302
2.66781
2.67123
2.67324
2.67539
2.67851
2.68328
2.68994
2.69649
2.70287
2.70715
2.70903
2.70874
2.70739
2.70419
2.69838
2.68966
2.68008
2.67397
2.68017
1
1
1
1
1
1
1
1
1
1
1
1
1
1
1
1
1
1
1
1
1
1
1
1
1
1
1.86201
2.59753
2.66051
2.66773
2.67143
2.67188
2.67176
2.67221
2.67409
2.67797
2.68195
2.68692
2.69046
2.6918
2.69069
2.68761
2.68176
2.67229
2.65696
2.63151
2.57554
2.45819
1
1
1
1
1
1
1
1
1
1
1
1
1
1
1
1
1
1
1
1
1
1
1
1
1
1
1.53221
2.47946
2.64278
2.65804
2.66616
2.66732
2.66686
2.66659
2.66719
2.66877
2.66998
2.67231
2.67378
2.67348
2.67105
2.66591
2.65717
2.6428
2.6191
2.57461
2.50556
2.31993
1
1
1
1
1
1
1
1
1
1
1
1
1
1
1
1
1
1
1
1
1
1
1
1
1
1
1.12391
2.33633
2.63143
2.64093
2.65185
2.6572
2.65844
2.6587
2.65926
2.65957
2.6591
2.65887
2.65785
2.65529
2.65061
2.64296
2.63117
2.61215
2.58182
2.53019
2.43956
2.2447
1
1
1
1
1
1
1
1
1
1
1
1
1
1
1
1
1
1
1
1
1
1
1
1
1
1
1.00379
2.20473
2.59837
2.61486
2.62844
2.63818
2.64342
2.64654
2.64886
2.64915
2.6483
2.64649
2.64323
2.63808
2.63071
2.62015
2.60507
2.58237
2.54657
2.49223
2.39103
2.22211
1
1
1
1
1
1
1
1
1
1
1
1
1
1
1
1
1
1
1
1
1
1
1
1
1
1
0.999991
1.96661
2.56975
2.60344
2.61508
2.62279
2.62826
2.63247
2.63563
2.63682
2.63617
2.6338
2.62913
2.62191
2.61202
2.59865
2.58015
2.55423
2.51591
2.45924
2.36187
2.23068
1
1
1
1
1
1
1
1
1
1
1
1
1
1
1
1
1
1
1
1
1
1
1
1
1
1
0.999997
1.57811
2.47284
2.59002
2.60054
2.6088
2.61409
2.61759
2.62035
2.62179
2.62135
2.61911
2.61413
2.60605
2.59457
2.57898
2.5578
2.52898
2.48949
2.43204
2.34615
2.23918
1
1
1
1
1
1
1
1
1
1
1
1
1
1
1
1
1
1
1
1
1
1
1
1
1
1
1
1.10179
2.32477
2.59347
2.59031
2.59379
2.59901
2.60232
2.6044
2.60521
2.60463
2.60249
2.59774
2.58969
2.57772
2.56098
2.53821
2.50758
2.46707
2.41141
2.33716
2.24733
1
1
1
1
1
1
1
1
1
1
1
1
1
1
1
1
1
1
1
1
1
1
1
1
1
1
1
1.00245
2.15036
2.55928
2.56816
2.57831
2.58497
2.58813
2.5892
2.5887
2.58712
2.58422
2.57932
2.57163
2.56011
2.54359
2.52074
2.48989
2.44908
2.3968
2.3315
2.25412
1
1
1
1
1
1
1
1
1
1
1
1
1
1
1
1
1
1
1
1
1
1
1
1
1
1
1
0.999986
1.78791
2.49325
2.551
2.56424
2.57322
2.57676
2.5766
2.57473
2.57126
2.56654
2.56051
2.55257
2.54153
2.52587
2.50412
2.47453
2.4352
2.38666
2.32849
2.26122
1
1
1
1
1
1
1
1
1
1
1
1
1
1
1
1
1
1
1
1
1
1
1
1
1
1
1
0.999996
1.26179
2.35473
2.55398
2.55144
2.55621
2.56156
2.56202
2.56016
2.55587
2.54953
2.54183
2.53296
2.52189
2.50717
2.48707
2.45945
2.42307
2.37929
2.32675
2.26805
1
1
1
1
1
1
1
1
1
1
1
1
1
1
1
1
1
1
1
1
1
1
1
1
1
1
1
0.999999
1.01634
2.19192
2.52481
2.52958
2.53843
2.54386
2.54584
2.54474
2.54089
2.53402
2.52507
2.51472
2.50294
2.48851
2.46968
2.44377
2.41145
2.37269
2.32526
2.27434
1
1
1
1
1
1
1
1
1
1
1
1
1
1
1
1
1
1
1
1
1
1
1
1
1
1
1
1
1.00002
1.80446
2.46356
2.51507
2.52279
2.52787
2.53034
2.52944
2.52597
2.51917
2.50966
2.49818
2.48494
2.4704
2.4517
2.42765
2.39923
2.36468
2.32254
2.27796
1
1
1
1
1
1
1
1
1
1
1
1
1
1
1
1
1
1
1
1
1
1
1
1
1
1
1
1
0.999998
1.22731
2.32734
2.51826
2.50852
2.50963
2.51195
2.51162
2.50938
2.50392
2.49523
2.48359
2.46972
2.45402
2.43516
2.41279
2.38713
2.35568
2.319
2.2793
1
1
1
1
1
1
1
1
1
1
1
1
1
1
1
1
1
1
1
1
1
1
1
1
1
1
1
1
0.999999
1.01167
2.14423
2.48494
2.48483
2.48946
2.49219
2.49279
2.49166
2.48777
2.48049
2.46959
2.45565
2.43943
2.42065
2.39934
2.37529
2.34635
2.31406
2.27807
1
1
1
1
1
1
1
1
1
1
1
1
1
1
1
1
1
1
1
1
1
1
1
1
1
1
1
1
1
1.00001
1.67445
2.39916
2.46892
2.47641
2.47739
2.47681
2.47527
2.47173
2.46545
2.45577
2.4427
2.42694
2.40854
2.38799
2.36482
2.33797
2.30855
2.27578
1
1
1
1
1
1
1
1
1
1
1
1
1
1
1
1
1
1
1
1
1
1
1
1
1
1
1
1
1
0.999997
1.12048
2.23225
2.46807
2.46162
2.46191
2.46048
2.45804
2.45436
2.4488
2.4405
2.42912
2.41475
2.39741
2.37769
2.35531
2.3301
2.30234
2.27247
1
1
1
1
1
1
1
1
1
1
1
1
1
1
1
1
1
1
1
1
1
1
1
1
1
1
1
1
1
0.999999
1.00305
1.90727
2.41449
2.43743
2.44215
2.44379
2.44197
2.43812
2.43272
2.42526
2.41518
2.40238
2.38658
2.368
2.34672
2.32293
2.29652
2.26914
1
1
1
1
1
1
1
1
1
1
1
1
1
1
1
1
1
1
1
1
1
1
1
1
1
1
1
1
1
1
0.999996
1.2574
2.26317
2.43853
2.4307
2.42956
2.42675
2.42244
2.41696
2.40985
2.40052
2.38904
2.37499
2.35794
2.33805
2.31566
2.29069
2.26524
1
1
1
1
1
1
1
1
1
1
1
1
1
1
1
1
1
1
1
1
1
1
1
1
1
1
1
1
1
1
0.999999
1.01495
2.04011
2.40264
2.41183
2.41116
2.40866
2.40529
2.40058
2.3941
2.38547
2.37495
2.36232
2.34671
2.32845
2.30784
2.2846
2.26099
1
1
1
1
1
1
1
1
1
1
1
1
1
1
1
1
1
1
1
1
1
1
1
1
1
1
1
1
1
1
1
1.00003
1.44686
2.28344
2.40403
2.39748
2.39305
2.38921
2.38457
2.37841
2.37038
2.36056
2.34877
2.33439
2.31788
2.29932
2.27807
2.25606
1
1
1
1
1
1
1
1
1
1
1
1
1
1
1
1
1
1
1
1
1
1
1
1
1
1
1
1
1
1
1
1
1.047
2.09611
2.38559
2.38145
2.37671
2.37249
2.36763
2.36171
2.35442
2.34542
2.33442
2.32118
2.30609
2.28923
2.26999
2.24942
1
1
1
1
1
1
1
1
1
1
1
1
1
1
1
1
1
1
1
1
1
1
1
1
1
1
1
1
1
1
1
1
1.0004
1.5537
2.27899
2.37
2.36374
2.35893
2.35322
2.34684
2.33951
2.33083
2.32062
2.30846
2.2944
2.27874
2.26128
2.2422
1
1
1
1
1
1
1
1
1
1
1
1
1
1
1
1
1
1
1
1
1
1
1
1
1
1
1
1
1
1
1
1
1
1.07727
2.09375
2.35783
2.35158
2.34624
2.33992
2.33321
2.32568
2.31709
2.30721
2.29573
2.28254
2.26786
2.25167
2.23403
1
1
1
1
1
1
1
1
1
1
1
1
1
1
1
1
1
1
1
1
1
1
1
1
1
1
1
1
1
1
1
1
1
1.00115
1.55824
2.24511
2.33764
2.33161
2.32674
2.32065
2.31309
2.30438
2.29466
2.28369
2.27124
2.25738
2.24208
2.22558
1
1
1
1
1
1
1
1
1
1
1
1
1
1
1
1
1
1
1
1
1
1
1
1
1
1
1
1
1
1
1
1
1
1
1.08103
2.05367
2.32667
2.32051
2.31453
2.3074
2.29986
2.29159
2.28248
2.27223
2.26049
2.24731
2.23287
2.21713
1
1
1
1
1
1
1
1
1
1
1
1
1
1
1
1
1
1
1
1
1
1
1
1
1
1
1
1
1
1
1
1
1
1
1.0013
1.48936
2.19772
2.30564
2.2975
2.29243
2.28665
2.27981
2.27148
2.26167
2.25034
2.23761
2.22382
2.20885
1
1
1
1
1
1
1
1
1
1
1
1
1
1
1
1
1
1
1
1
1
1
1
1
1
1
1
1
1
1
1
1
1
1
1
1.06077
1.98306
2.28947
2.28581
2.27983
2.27369
2.26721
2.25932
2.25001
2.23939
2.22744
2.21435
2.20041
1
1
1
1
1
1
1
1
1
1
1
1
1
1
1
1
1
1
1
1
1
1
1
1
1
1
1
1
1
1
1
1
1
1
1
1.00078
1.40315
2.14476
2.27242
2.26317
2.2596
2.25407
2.24695
2.23839
2.22857
2.21755
2.20529
2.19224
1
1
1
1
1
1
1
1
1
1
1
1
1
1
1
1
1
1
1
1
1
1
1
1
1
1
1
1
1
1
1
1
1
1
1
1
1.03831
1.85585
2.2332
2.25459
2.2484
2.24161
2.23444
2.22637
2.21724
2.20717
2.19609
2.18396
1
1
1
1
1
1
1
1
1
1
1
1
1
1
1
1
1
1
1
1
1
1
1
1
1
1
1
1
1
1
1
1
1
1
1
1
1.00039
1.27365
2.06016
2.24334
2.23397
2.22861
2.22245
2.21529
2.2069
2.19751
2.18729
2.17599
1
1
1
1
1
1
1
1
1
1
1
1
1
1
1
1
1
1
1
1
1
1
1
1
1
1
1
1
1
1
1
1
1
1
1
1
1
1.01628
1.64458
2.1538
2.22157
2.21416
2.20906
2.20296
2.1955
2.18675
2.17712
2.1668
1
1
1
1
1
1
1
1
1
1
1
1
1
1
1
1
1
1
1
1
1
1
1
1
1
1
1
1
1
1
1
1
1
1
1
1
1
1.00013
1.13397
1.94253
2.20928
2.20223
2.19686
2.19048
2.18358
2.17567
2.16682
2.15742
1
1
1
1
1
1
1
1
1
1
1
1
1
1
1
1
1
1
1
1
1
1
1
1
1
1
1
1
1
1
1
1
1
1
1
1
1
1
1.00393
1.42512
2.07252
2.18834
2.17942
2.1743
2.16849
2.16192
2.15446
2.1462
1
1
1
1
1
1
1
1
1
1
1
1
1
1
1
1
1
1
1
1
1
1
1
1
1
1
1
1
1
1
1
1
1
1
1
1
1
1
1.00002
1.04686
1.74961
2.13291
2.17513
2.16637
2.15881
2.1518
2.14451
2.13663
1
1
1
1
1
1
1
1
1
1
1
1
1
1
1
1
1
1
1
1
1
1
1
1
1
1
1
1
1
1
1
1
1
1
1
1
1
1
1
1.00067
1.21018
1.93941
2.16067
2.15534
2.14827
2.14128
2.1337
2.12566
1
1
1
1
1
1
1
1
1
1
1
1
1
1
1
1
1
1
1
1
1
1
1
1
1
1
1
1
1
1
1
1
1
1
1
1
1
1
1
1
1.00978
1.46613
2.04117
2.14268
2.13534
2.12821
2.12128
2.11366
1
1
1
1
1
1
1
1
1
1
1
1
1
1
1
1
1
1
1
1
1
1
1
1
1
1
1
1
1
1
1
1
1
1
1
1
1
1
1
1
1.00007
1.06127
1.72874
2.08701
2.13015
2.12081
2.11232
2.10453
1
1
1
1
1
1
1
1
1
1
1
1
1
1
1
1
1
1
1
1
1
1
1
1
1
1
1
1
1
1
1
1
1
1
1
1
1
1
1
1
1
1.0011
1.206
1.88715
2.11196
2.11147
2.1038
2.09579
1
1
1
1
1
1
1
1
1
1
1
1
1
1
1
1
1
1
1
1
1
1
1
1
1
1
1
1
1
1
1
1
1
1
1
1
1
1
1
1
1
1
1.00969
1.41284
1.97993
2.09797
2.09294
2.08519
1
1
1
1
1
1
1
1
1
1
1
1
1
1
1
1
1
1
1
1
1
1
1
1
1
1
1
1
1
1
1
1
1
1
1
1
1
1
1
1
1
1
1.00008
1.04695
1.62338
2.02914
2.08601
2.07702
1
1
1
1
1
1
1
1
1
1
1
1
1
1
1
1
1
1
1
1
1
1
1
1
1
1
1
1
1
1
1
1
1
1
1
1
1
1
1
1
1
1
1
1.00076
1.14053
1.79049
2.04413
2.07339
1
1
1
1
1
1
1
1
1
1
1
1
1
1
1
1
1
1
1
1
1
1
1
1
1
1
1
1
1
1
1
1
1
1
1
1
1
1
1
1
1
1
1
1
1.00487
1.29295
1.87778
2.05282
1
1
1
1
1
1
1
1
1
1
1
1
1
1
1
1
1
1
1
1
1
1
1
1
1
1
1
1
1
1
1
1
1
1
1
1
1
1
1
1
1
1
1
1
1.00003
1.02142
1.45464
1.93872
1
1
1
1
1
1
1
1
1
1
1
1
1
1
1
1
1
1
1
1
1
1
1
1
1
1
1
1
1
1
1
1
1
1
1
1
1
1
1
1
1
1
1
1
1
1.00026
1.06382
1.60552
1
1
1
1
1
1
1
1
1
1
1
1
1
1
1
1
1
1
1
1
1
1
1
1
1
1
1
1
1
1
1
1
1
1
1
1
1
1
1
1
1
1
1
1
1
1
1.00131
1.14184
1
1
1
1
1
1
1
1
1
1
1
1
1
1
1
1
1
1
1
1
1
1
1
1
1
1
1
1
1
1
1
1
1
1
1
1
1
1
1
1
1
1
1
1
1
1
1.00001
1.0052
1
1
1
1
1
1
1
1
1
1
1
1
1
1
1
1
1
1
1
1
1
1
1
1
1
1
1
1
1
1
1
1
1
1
1
1
1
1
1
1
1
1
1
1
1
1
1
1.00004
1
1
1
1
1
1
1
1
1
1
1
1
1
1
1
1
1
1
1
1
1
1
1
1
1
1
1
1
1
1
1
1
1
1
1
1
1
1
1
1
1
1
1
1
1
1
1
1
1
1
1
1
1
1
1
1
1
1
1
1
1
1
1
1
1
1
1
1
1
1
1
1
1
1
1
1
1
1
1
1
1
1
1
1
1
1
1
1
1
1
1
1
1
1
1
1
1
1
1
1
1
1
1
1
1
1
1
1
1
1
1
1
1
1
1
1
1
1
1
1
1
1
1
1
1
1
1
1
1
1
1
1
1
1
1
1
1
1
1
1
1
1
1
1
1
1
1
1
1
1
1
1
1
1
1
1
1
1
1
1
1
1
1
1
1
1
1
1
1
1
1
1
1
1
1
1
1
1
1
1
1
1
1
1
1
1
1
1
1
1
1
1
1
1
1
1
1
1
1
1
1
1
1
1
1
1
1
1
1
1
1
1
1
1
1
1
1
1
1
1
1
1
1
1
1
1
1
1
1
1
1
1
1
1
1
1
1
1
1
1
1
1
1
1
1
1
1
1
1
1
1
1
1
1
1
1
1
1
1
1
1
1
1
1
1
1
1
1
1
1
1
1
1
1
1
1
1
1
1
1
1
1
1
1
1
1
1
1
1
1
1
1
1
1
1
1
1
1
1
1
1
1
1
1
1
1
1
1
1
1
1
1
1
1
1
1
1
1
1
1
1
1
1
1
1
1
1
1
1
1
1
1
1
1
1
1
1
1
1
1
1
1
1
1
1
1
1
1
1
1
1
1
1
1
1
1
1
1
1
1
1
1
1
1
1
1
1
1
1
1
1
1
1
1
1
1
1
1
1
1
1
1
1
1
1
1
1
1
1
1
1
1
1
1
1
1
1
1
1
1
1
1
1
1
1
1
1
1
1
1
1
1
1
1
1
1
1
1
1
1
1
1
1
1
1
1
1
1
1
1
1
1
1
1
1
1
1
1
1
1
1
1
1
1
1
1
1
1
1
1
1
1
1
1
1
1
1
1
1
1
1
1
1
1
1
1
1
1
1
1
1
1
1
1
1
1
1
1
1
1
1
1
1
1
1
1
1
1
1
1
1
1
1
1
1
1
1
1
1
1
1
1
1
1
1
1
1
1
1
1
1
1
1
1
1
1
1
1
1
1
1
1
1
1
1
1
1
1
1
1
1
1
1
1
1
1
1
1
1
1
1
1
1
1
1
1
1
1
1
1
1
1
1
1
1
1
1
1
1
1
1
1
1
1
1
1
1
1
1
1
1
1
1
1
1
1
1
1
1
1
1
1
1
1
1
1
1
1
1
1
1
1
1
1
1
1
1
1
1
1
1
1
1
1
1
1
1
1
1
1
1
1
1
1
1
1
1
1
1
1
1
1
1
1
1
1
1
1
1
1
1
1
1
1
1
1
1
1
1
1
1
1
1
1
1
1
1
1
1
1
1
1
1
1
1
1
1
1
1
1
1
1
1
1
1
1
1
1
1
1
1
1
1
1
1
1
1
1
1
1
1
1
1
1
1
1
1
1
1
1
1
1
1
1
1
1
1
1
1
1
1
1
1
1
1
1
1
1
1
1
1
1
1
1
1
1
1
1
1
1
1
1
1
1
1
1
1
1
1
1
1
1
1
1
1
1
1
1
1
1
1
1
1
1
1
1
1
1
1
1
1
1
1
1
1
1
1
1
1
1
1
1
1
1
1
1
1
1
1
1
1
1
1
1
1
1
1
1
1
1
1
1
1
1
1
1
1
1
1
1
1
1
1
1
1
1
1
1
1
1
1
1
1
1
1
1
1
1
1
1
1
1
1
1
1
1
1.57259
0.976901
0.758928
0.735658
0.874577
1.02962
1.0909
1.13591
1.19296
1.25861
1.32517
1.39915
1.49833
1.56453
1.56652
1.55016
1.55488
1.59536
1.66474
1.68228
1.67327
1.64365
1.62525
1.63019
1.65821
1.69441
1.70357
1.69836
1.67307
1.64803
1.64645
1.66105
1.69226
1.70578
1.7054
1.7013
1.6885
1.6758
1.67282
1.67405
1.6812
1.69597
1.70684
1.70776
1.70689
1.70697
1.70796
1.71113
1.71367
1.71279
1.70877
1.70372
1.70218
1.70094
1.6988
1.69731
1.69533
1.69286
1.69045
1.68895
1.68937
1.69308
1.6958
1.69644
1.69584
1.69066
1.68272
1.679
1.67767
1.67859
1.68294
1.68479
1.68317
1.67848
1.67207
1.66755
1.66659
1.66689
1.66944
1.67191
1.67111
1.66838
1.67331
1.72379
1.89912
2.22058
2.53223
2.72807
2.73876
2.69106
2.64715
2.62825
2.619
2.61006
2.59844
2.58133
2.5634
2.54606
2.53106
2.52051
2.51337
2.50692
2.50074
2.49285
2.48324
2.47496
2.46948
2.46534
2.4617
2.45885
2.45592
2.45145
2.44539
2.43761
2.42702
2.4155
2.40457
2.39385
2.38283
2.37152
2.36045
2.35022
2.34112
2.33307
2.32575
2.31857
2.31101
2.30345
2.29499
2.28546
2.27497
2.26419
2.25378
2.24415
2.23576
2.22874
2.22288
2.21849
2.21592
2.21423
2.21285
2.21182
2.21091
2.20893
2.20467
2.19888
2.19331
2.1893
2.18671
2.18459
2.18225
2.1792
2.1752
2.17051
2.16538
2.15875
2.15042
2.14275
2.13607
2.12929
2.1216
2.11281
2.10408
2.09558
2.08706
2.07986
2.07326
2.06545
2.05845
2.0516
2.04445
2.03764
2.03299
2.03128
2.03089
2.03121
2.031
2.02895
2.02196
2.00813
1.99692
1.99337
1.99277
1.99286
1.99365
1.99566
1.99676
1.99706
1.99623
1.99174
1.98566
1.97834
1.81993
1.5112
1.33639
1.09798
1.0211
1.05257
1.05321
1.03144
1.02322
1.03788
1.07659
1.13148
1.17649
1.22309
1.27533
1.32138
1.35351
1.39712
1.45772
1.51208
1.53446
1.53411
1.53444
1.54537
1.57491
1.61594
1.63321
1.63403
1.62386
1.60717
1.60545
1.61674
1.6419
1.6575
1.65998
1.65944
1.65525
1.64813
1.6458
1.64671
1.65301
1.66772
1.68043
1.68225
1.68222
1.68214
1.68071
1.68071
1.68288
1.68307
1.68155
1.68067
1.68123
1.68091
1.68046
1.68062
1.68033
1.67921
1.67692
1.67375
1.67246
1.67287
1.675
1.67731
1.6782
1.67771
1.67495
1.67061
1.66806
1.66714
1.66723
1.66799
1.66838
1.66739
1.66536
1.66277
1.66013
1.6584
1.65768
1.65711
1.65594
1.66409
1.73437
1.88612
2.03258
2.12136
2.27258
2.45721
2.55485
2.59826
2.59555
2.58802
2.58321
2.57394
2.5662
2.5529
2.53898
2.52375
2.51005
2.49975
2.49345
2.48842
2.48382
2.47866
2.47194
2.46453
2.45818
2.45352
2.4494
2.44498
2.43987
2.43381
2.4269
2.41943
2.41139
2.403
2.39482
2.38592
2.37572
2.36447
2.35287
2.34207
2.33276
2.32468
2.31749
2.31058
2.30345
2.29561
2.28697
2.27759
2.26772
2.25781
2.24817
2.23944
2.2318
2.22513
2.21918
2.214
2.21022
2.20773
2.2058
2.20407
2.20232
2.20048
2.19817
2.19438
2.18986
2.18633
2.18388
2.18166
2.17891
2.17513
2.17018
2.164
2.15633
2.14871
2.14305
2.13828
2.13357
2.12832
2.12174
2.11326
2.10326
2.09329
2.08422
2.0753
2.06663
2.05975
2.05346
2.04772
2.04218
2.03693
2.03266
2.02945
2.02681
2.02452
2.02311
2.02115
2.01632
2.00843
2.00003
1.99366
1.99081
1.99039
1.99072
1.99138
1.99194
1.99212
1.99169
1.98903
1.98453
1.97699
1.94821
1.72672
1.55065
1.39851
1.28702
1.22401
1.16374
1.11851
1.07766
1.05814
1.06744
1.07864
1.08209
1.09858
1.1316
1.15352
1.17646
1.20736
1.24836
1.30151
1.35232
1.38272
1.40735
1.43207
1.45515
1.48445
1.50842
1.52643
1.53897
1.54005
1.54323
1.55535
1.57231
1.58151
1.58519
1.58782
1.58808
1.58635
1.58547
1.58564
1.58914
1.60094
1.61621
1.62363
1.62611
1.62727
1.62619
1.62298
1.62137
1.62175
1.62364
1.62858
1.63339
1.6348
1.63547
1.6354
1.63505
1.63576
1.63626
1.63652
1.63598
1.63433
1.6325
1.63151
1.63226
1.63498
1.63807
1.64023
1.64099
1.64023
1.63661
1.63268
1.6315
1.63191
1.63333
1.63502
1.63576
1.63482
1.6316
1.63056
1.64154
1.71386
1.89734
2.01487
2.06578
2.04728
2.04818
2.13282
2.29567
2.44601
2.51836
2.52944
2.52155
2.51129
2.50187
2.49362
2.4856
2.47418
2.4637
2.45449
2.44716
2.44188
2.43765
2.43412
2.43089
2.42742
2.42368
2.42
2.41595
2.41093
2.40453
2.39646
2.38681
2.37755
2.37076
2.36513
2.35949
2.35339
2.34569
2.33672
2.32669
2.31574
2.30557
2.29719
2.29002
2.28362
2.27742
2.27042
2.26189
2.25202
2.24247
2.23373
2.22626
2.21947
2.21395
2.2095
2.20499
2.19943
2.19331
2.18883
2.18602
2.18379
2.18175
2.17966
2.17712
2.17411
2.17093
2.16888
2.16801
2.16718
2.16529
2.16144
2.15507
2.14576
2.13502
2.12611
2.12001
2.11617
2.11351
2.11159
2.10859
2.10359
2.09622
2.08592
2.07341
2.06156
2.05219
2.04435
2.03779
2.03262
2.02915
2.0268
2.02442
2.02066
2.01532
2.01038
2.00602
2.00233
1.9992
1.9968
1.99474
1.99177
1.98652
1.98161
1.98002
1.97969
1.97937
1.97863
1.97695
1.97459
1.97278
1.96787
2.00762
1.84491
1.69698
1.56069
1.47244
1.39154
1.31808
1.283
1.239
1.17462
1.15087
1.1539
1.15041
1.13817
1.12037
1.12249
1.1234
1.12793
1.1436
1.17651
1.22247
1.2586
1.29337
1.33035
1.3495
1.36486
1.38616
1.40735
1.43423
1.45874
1.47841
1.49426
1.50308
1.50795
1.5137
1.52018
1.5276
1.52884
1.52926
1.52903
1.52962
1.53589
1.54749
1.5547
1.55756
1.55879
1.55912
1.5588
1.55804
1.55896
1.5623
1.56815
1.57404
1.57704
1.57734
1.57659
1.57597
1.57667
1.57884
1.58199
1.58409
1.58472
1.58389
1.58069
1.57979
1.58048
1.58304
1.58762
1.5915
1.59283
1.59292
1.59188
1.58903
1.58755
1.58794
1.58954
1.59089
1.59007
1.59371
1.61326
1.69657
1.87259
1.98851
2.02097
2.02037
2.00654
1.9886
1.98288
2.02603
2.17822
2.33903
2.41417
2.43472
2.45235
2.4492
2.44104
2.43055
2.41885
2.41008
2.40256
2.39628
2.39131
2.38707
2.38315
2.37985
2.37682
2.37304
2.36842
2.36334
2.3578
2.35156
2.34407
2.33497
2.32672
2.32143
2.31677
2.31216
2.30708
2.30088
2.29396
2.28586
2.27582
2.26555
2.25738
2.25078
2.24521
2.24002
2.23441
2.22747
2.21838
2.20805
2.19903
2.19181
2.18594
2.18147
2.17811
2.17508
2.17119
2.16533
2.15872
2.1542
2.15176
2.15018
2.14898
2.14805
2.14697
2.14435
2.13971
2.13772
2.13673
2.1352
2.13195
2.12653
2.1174
2.10436
2.09345
2.08804
2.08476
2.08224
2.08049
2.07938
2.07762
2.07312
2.06609
2.05529
2.04078
2.02812
2.01954
2.01335
2.00902
2.00655
2.00491
2.00338
2.00157
1.99748
1.98942
1.98158
1.97698
1.9755
1.97566
1.9761
1.97584
1.97396
1.96848
1.96157
1.95816
1.95628
1.95438
1.95281
1.95168
1.95064
1.94625
2.06604
1.92862
1.80059
1.69003
1.60943
1.52164
1.43115
1.38803
1.36318
1.31935
1.24629
1.22908
1.22685
1.20963
1.17567
1.16717
1.16945
1.1617
1.16077
1.16847
1.17315
1.17802
1.18659
1.20525
1.22525
1.24518
1.27898
1.31674
1.35651
1.3956
1.4255
1.43881
1.44419
1.45151
1.45981
1.46719
1.4794
1.49231
1.49756
1.49978
1.50078
1.50335
1.50674
1.51178
1.51597
1.51728
1.51785
1.51811
1.51848
1.52014
1.52368
1.52801
1.53104
1.53256
1.53304
1.53342
1.53508
1.53799
1.54126
1.54316
1.54372
1.54376
1.54228
1.53829
1.53608
1.53622
1.5383
1.54342
1.54895
1.55172
1.55314
1.55335
1.55206
1.54986
1.54936
1.54942
1.55031
1.55644
1.58351
1.69487
1.85134
1.9776
1.98917
1.99393
1.99055
1.98102
1.96879
1.96226
1.95925
1.98062
2.08377
2.23779
2.33427
2.38917
2.40037
2.40463
2.39804
2.38806
2.3774
2.36805
2.35959
2.35284
2.34776
2.34366
2.34033
2.3364
2.33128
2.32512
2.31851
2.31187
2.30461
2.29604
2.28729
2.28053
2.27567
2.27147
2.26746
2.26323
2.25815
2.25252
2.24544
2.23559
2.22506
2.21701
2.21098
2.20591
2.20114
2.19629
2.19084
2.18391
2.17519
2.16639
2.15903
2.15319
2.1487
2.14525
2.14225
2.13881
2.13368
2.12625
2.11879
2.1147
2.1136
2.11353
2.11385
2.11412
2.11334
2.10966
2.10407
2.10014
2.09694
2.09276
2.0869
2.07888
2.06926
2.06027
2.05365
2.04953
2.04671
2.04454
2.04309
2.04138
2.03812
2.0333
2.02561
2.01361
2.0007
1.99149
1.98544
1.98132
1.97847
1.97651
1.97519
1.97382
1.9705
1.96238
1.9531
1.95041
1.95034
1.9505
1.95087
1.95083
1.9503
1.94702
1.93839
1.92986
1.92642
1.92485
1.92359
1.92259
1.92142
1.91593
2.11394
2.00027
1.881
1.77982
1.70854
1.63337
1.54589
1.47262
1.44898
1.41887
1.36993
1.31413
1.30156
1.29216
1.2587
1.23525
1.22796
1.21385
1.20009
1.19286
1.18408
1.17993
1.18232
1.17897
1.17841
1.18144
1.1939
1.21716
1.25193
1.29852
1.3442
1.3727
1.3868
1.40594
1.42367
1.43419
1.44789
1.46506
1.47352
1.47821
1.48132
1.48242
1.4826
1.48515
1.49037
1.49297
1.49422
1.49657
1.50048
1.50354
1.50571
1.50738
1.50859
1.5104
1.51228
1.5146
1.51657
1.51803
1.51822
1.51796
1.51768
1.51752
1.51689
1.51537
1.51463
1.51486
1.51698
1.52135
1.52529
1.52698
1.52758
1.52769
1.52696
1.52479
1.52322
1.52382
1.52899
1.56322
1.70323
1.87298
1.94354
1.98591
1.99121
1.98799
1.97775
1.96696
1.96183
1.9583
1.95565
1.95187
1.95774
2.0129
2.13662
2.28386
2.33819
2.37195
2.37524
2.37489
2.36518
2.35399
2.3427
2.3325
2.32487
2.31929
2.3151
2.31067
2.30546
2.29902
2.29166
2.28401
2.27576
2.2665
2.2588
2.25299
2.24733
2.24231
2.23779
2.23353
2.22919
2.22424
2.21755
2.20818
2.19816
2.19008
2.18355
2.17786
2.17275
2.16805
2.16341
2.15802
2.15084
2.14292
2.1357
2.12949
2.12431
2.12026
2.11692
2.11348
2.109
2.10276
2.09508
2.08882
2.08655
2.08587
2.08535
2.08473
2.0835
2.08058
2.07507
2.06827
2.06236
2.05672
2.05058
2.04423
2.03814
2.03167
2.02425
2.0176
2.01344
2.01063
2.00816
2.00557
2.00255
1.99864
1.99296
1.9852
1.97655
1.9684
1.96139
1.95581
1.95178
1.94894
1.94682
1.94465
1.94092
1.93469
1.92868
1.92609
1.92532
1.92498
1.92462
1.92405
1.92329
1.92058
1.91281
1.90299
1.89793
1.89565
1.89348
1.89141
1.88882
1.88203
2.14849
2.05282
1.9482
1.86238
1.78612
1.70883
1.6357
1.57791
1.52245
1.48716
1.46163
1.41228
1.36303
1.34731
1.33105
1.3024
1.28752
1.27614
1.2572
1.24495
1.23261
1.21958
1.21433
1.20466
1.19144
1.18982
1.19292
1.19751
1.20336
1.21385
1.23081
1.25601
1.28677
1.31894
1.35953
1.39188
1.41311
1.43729
1.45324
1.46218
1.47104
1.47384
1.47393
1.47379
1.47614
1.47835
1.48075
1.48497
1.49178
1.49589
1.49758
1.49859
1.49926
1.50095
1.50532
1.50884
1.50939
1.50873
1.50652
1.50496
1.50424
1.50403
1.50423
1.50594
1.5087
1.51048
1.51079
1.51018
1.50997
1.51051
1.51088
1.51057
1.51033
1.51067
1.51238
1.5182
1.56166
1.71337
1.89776
1.96177
1.984
1.98524
1.98172
1.97512
1.96859
1.96316
1.96105
1.95829
1.95447
1.94928
1.94254
1.93899
1.95984
2.05729
2.19503
2.30877
2.34537
2.35964
2.35441
2.3467
2.33722
2.32686
2.3172
2.30849
2.30151
2.29586
2.29102
2.28584
2.27933
2.27173
2.26283
2.25312
2.24581
2.24055
2.23524
2.22959
2.22453
2.22011
2.21566
2.20991
2.20256
2.19401
2.18539
2.17767
2.17048
2.16371
2.15782
2.15306
2.14873
2.14306
2.13624
2.12966
2.12368
2.1178
2.11169
2.10578
2.10103
2.0972
2.09337
2.0889
2.08356
2.07733
2.07146
2.06783
2.06562
2.06345
2.06111
2.05785
2.05259
2.0452
2.03782
2.0317
2.02624
2.0212
2.01634
2.01093
2.00428
1.9967
1.98964
1.9841
1.98017
1.97695
1.97351
1.97017
1.96664
1.96244
1.95754
1.95206
1.94594
1.93925
1.93303
1.92833
1.92453
1.92072
1.91716
1.91418
1.91229
1.91041
1.90772
1.90558
1.90455
1.90363
1.90146
1.89661
1.8899
1.88348
1.87767
1.87239
1.86816
1.8645
1.86008
1.84996
2.17232
2.08859
2.00075
1.92611
1.85419
1.77377
1.70938
1.66287
1.60407
1.54803
1.52582
1.49831
1.44449
1.39635
1.38526
1.36648
1.34609
1.33439
1.31767
1.30213
1.28947
1.27003
1.25628
1.24606
1.22926
1.21291
1.20906
1.21
1.21161
1.21353
1.2127
1.21046
1.21248
1.22134
1.24655
1.29005
1.33019
1.36994
1.402
1.4243
1.4435
1.46125
1.4733
1.47654
1.47518
1.47239
1.47488
1.47861
1.48378
1.48752
1.48793
1.48955
1.49247
1.49654
1.5021
1.50681
1.50757
1.50673
1.50232
1.49739
1.49613
1.49619
1.49823
1.50421
1.50975
1.51068
1.50992
1.50699
1.5023
1.49973
1.49917
1.49935
1.50098
1.50573
1.51689
1.57383
1.73885
1.92419
1.98742
1.98684
1.98395
1.97455
1.96964
1.96759
1.96537
1.96204
1.95991
1.95333
1.94792
1.94375
1.93779
1.9343
1.93099
1.93781
1.98849
2.11151
2.24204
2.32375
2.34395
2.33973
2.33441
2.32689
2.3196
2.30869
2.29719
2.28954
2.28322
2.27839
2.27289
2.26611
2.25838
2.24984
2.24302
2.23774
2.23273
2.22698
2.21997
2.2124
2.20579
2.20032
2.1947
2.18812
2.18113
2.17429
2.16718
2.15963
2.15206
2.14476
2.13766
2.13225
2.12763
2.12279
2.11788
2.11288
2.10738
2.10114
2.09512
2.09059
2.08681
2.08298
2.07862
2.07333
2.06666
2.05964
2.05459
2.05121
2.04802
2.04406
2.03867
2.03156
2.02449
2.01862
2.01343
2.00826
2.00309
1.9978
1.99161
1.98474
1.9776
1.9703
1.96359
1.95911
1.95641
1.9536
1.95018
1.94646
1.94279
1.93936
1.93573
1.93095
1.92417
1.9167
1.9105
1.90562
1.90225
1.90108
1.90042
1.8998
1.89859
1.89576
1.89184
1.88712
1.88213
1.87735
1.87339
1.86981
1.86525
1.85895
1.85111
1.84235
1.8339
1.82358
2.19187
2.11746
2.04276
1.97539
1.90797
1.8338
1.77479
1.72595
1.67798
1.6226
1.57809
1.55154
1.51473
1.46489
1.4396
1.42483
1.40449
1.38617
1.36423
1.34498
1.33616
1.32354
1.30166
1.2867
1.27755
1.2649
1.25074
1.24764
1.24724
1.24148
1.23131
1.22007
1.21436
1.21385
1.2147
1.22077
1.23462
1.26353
1.30326
1.33899
1.36875
1.397
1.42243
1.44425
1.46392
1.47365
1.47855
1.48338
1.486
1.4859
1.48433
1.48553
1.48872
1.49319
1.49939
1.50483
1.50568
1.50508
1.50111
1.49484
1.49271
1.49284
1.49577
1.50301
1.50846
1.50908
1.50832
1.50577
1.50025
1.49449
1.49369
1.49418
1.49771
1.51566
1.59711
1.76945
1.93121
2.0033
1.99985
1.98821
1.97736
1.96987
1.96519
1.9655
1.96571
1.96283
1.95623
1.94888
1.94266
1.93885
1.93584
1.93371
1.9304
1.92724
1.92406
1.94262
2.02504
2.15465
2.26502
2.30552
2.32625
2.32643
2.32308
2.31075
2.29903
2.29007
2.28214
2.27524
2.26804
2.26098
2.25459
2.24854
2.24327
2.2383
2.233
2.22667
2.21878
2.20977
2.2019
2.1955
2.18944
2.18432
2.17938
2.17398
2.16785
2.16022
2.1505
2.14015
2.13146
2.12504
2.12017
2.11642
2.11303
2.10943
2.10534
2.10045
2.09384
2.08576
2.08096
2.07817
2.07503
2.07107
2.06579
2.05898
2.05125
2.04356
2.03623
2.03082
2.02742
2.02366
2.01884
2.01422
2.00945
2.00427
1.99815
1.9911
1.98423
1.978
1.97225
1.96621
1.95932
1.95231
1.94557
1.94028
1.93757
1.93572
1.93411
1.9321
1.92948
1.92573
1.91948
1.91113
1.90344
1.89884
1.89712
1.89674
1.89694
1.89659
1.8949
1.89077
1.88318
1.87618
1.87171
1.86857
1.8655
1.86232
1.85776
1.85051
1.83838
1.82422
1.81569
1.80799
2.20616
2.13924
2.07624
2.01486
1.94824
1.88579
1.8345
1.782
1.73027
1.68676
1.64131
1.59847
1.56829
1.53235
1.49463
1.4727
1.45521
1.44125
1.425
1.39551
1.371
1.36298
1.34829
1.326
1.31712
1.31004
1.29729
1.28419
1.28217
1.27875
1.26798
1.24912
1.2312
1.22733
1.22384
1.22292
1.22635
1.23237
1.23914
1.24725
1.26272
1.28842
1.31904
1.35849
1.39965
1.43722
1.46144
1.4758
1.48627
1.48971
1.48904
1.4849
1.48558
1.48938
1.49641
1.50102
1.50121
1.50089
1.49756
1.49329
1.49291
1.49283
1.49528
1.50115
1.50391
1.50414
1.50412
1.5024
1.49707
1.49328
1.49177
1.4926
1.51147
1.62473
1.814
1.94506
2.00408
2.0027
1.98981
1.97875
1.97227
1.97154
1.96755
1.96503
1.96341
1.95863
1.95162
1.94615
1.94083
1.93707
1.93577
1.93344
1.92866
1.92361
1.91823
1.91198
1.9157
1.95016
2.05527
2.17109
2.2685
2.29558
2.30745
2.30546
2.30027
2.29228
2.28208
2.27211
2.2627
2.25564
2.25076
2.24663
2.24242
2.23812
2.23288
2.22623
2.21824
2.20911
2.19987
2.19189
2.18645
2.1824
2.17875
2.17439
2.16845
2.16076
2.1508
2.13914
2.12951
2.12252
2.11743
2.11376
2.11089
2.10848
2.10548
2.10047
2.09223
2.0827
2.07667
2.07307
2.07015
2.06714
2.06339
2.05864
2.05164
2.04191
2.03266
2.02601
2.0218
2.01941
2.01819
2.0151
2.00963
2.00164
1.99237
1.98544
1.97977
1.97454
1.96969
1.9648
1.95843
1.94916
1.93936
1.93355
1.92983
1.92655
1.92379
1.9215
1.9193
1.91677
1.91358
1.90841
1.90286
1.89908
1.89621
1.89323
1.88984
1.88763
1.88571
1.88217
1.87623
1.87088
1.86822
1.8657
1.86343
1.85956
1.8531
1.84304
1.82903
1.81565
1.80856
1.80115
2.21835
2.15946
2.10386
2.04627
1.98373
1.93156
1.88112
1.83015
1.77805
1.73821
1.69588
1.65039
1.61536
1.58792
1.55875
1.52894
1.49573
1.47878
1.46935
1.45246
1.42046
1.39731
1.38507
1.36745
1.35337
1.34842
1.34063
1.32601
1.31679
1.31126
1.30111
1.28515
1.27088
1.26474
1.25919
1.24937
1.24492
1.2438
1.241
1.23792
1.23843
1.24082
1.24641
1.26521
1.29947
1.3377
1.37964
1.41909
1.44762
1.47016
1.47753
1.47791
1.48247
1.48672