/*--------------------------------*- C++ -*----------------------------------*\
  =========                 |
  \\      /  F ield         | OpenFOAM: The Open Source CFD Toolbox
   \\    /   O peration     | Website:  https://openfoam.org
    \\  /    A nd           | Version:  7
     \\/     M anipulation  |
\*---------------------------------------------------------------------------*/
FoamFile
{
    version     2.0;
    format      ascii;
    class       volVectorField;
    location    "2";
    object      U;
}
// * * * * * * * * * * * * * * * * * * * * * * * * * * * * * * * * * * * * * //

dimensions      [0 1 -1 0 0 0 0];

internalField   nonuniform List<vector> 
16128
(
(3 4.25372e-17 0)
(3 3.71314e-17 0)
(3 -4.38875e-16 0)
(3 -2.4074e-16 0)
(3 -5.90833e-17 0)
(3 1.5724e-16 0)
(3 6.08643e-18 0)
(3 -1.59526e-16 0)
(3 -1.48929e-16 0)
(3 -2.43259e-16 0)
(3 -8.76213e-16 0)
(3 -1.31483e-15 0)
(3 -3.24558e-16 0)
(3 2.62002e-16 0)
(3 9.02584e-16 0)
(3 9.46047e-16 0)
(3 9.81911e-16 0)
(3 7.32609e-16 0)
(3 1.94461e-16 0)
(3 -2.3621e-16 0)
(3 -2.1967e-16 0)
(3 -3.73553e-16 0)
(3 -4.68649e-16 0)
(3 -5.10987e-16 0)
(2.80835 0.00333227 0)
(0.954603 0.00976878 0)
(0.730605 0.00907198 0)
(0.703229 0.0128652 0)
(0.668295 0.0146838 0)
(0.633653 0.0156539 0)
(0.598959 0.0151862 0)
(0.566493 0.0138525 0)
(0.53685 0.0124875 0)
(0.509605 0.0115815 0)
(0.483614 0.0115703 0)
(0.457226 0.0125055 0)
(0.429073 0.0137111 0)
(0.399241 0.0145296 0)
(0.368591 0.0150886 0)
(0.337211 0.01567 0)
(0.304507 0.0163711 0)
(0.269906 0.0173242 0)
(0.233215 0.018294 0)
(0.194615 0.0193173 0)
(0.154379 0.0202867 0)
(0.112035 0.0212759 0)
(0.068385 0.0217863 0)
(0.0235104 0.0225458 0)
(3 -6.65271e-17 0)
(3 -2.86908e-16 0)
(3 -7.72145e-16 0)
(3 -3.1244e-16 0)
(3 3.46895e-16 0)
(3 1.68404e-16 0)
(3 -1.0203e-16 0)
(3 -7.18107e-17 0)
(3 -6.01396e-16 0)
(3 -9.07374e-16 0)
(3 -1.13086e-15 0)
(3 -9.50546e-16 0)
(3 -5.8441e-16 0)
(3 3.96831e-16 0)
(3 3.14515e-16 0)
(3 -4.30426e-17 0)
(3 1.93482e-16 0)
(3 3.03587e-16 0)
(3 -6.66173e-16 0)
(3 -6.67578e-16 0)
(3 -5.6605e-17 0)
(3 -1.61081e-16 0)
(3 -7.61719e-16 0)
(3 -9.04859e-16 0)
(2.822 0.0171756 0)
(0.959667 0.0412547 0)
(0.724772 0.0346907 0)
(0.692454 0.0373894 0)
(0.656909 0.0405985 0)
(0.623278 0.0420765 0)
(0.591217 0.0415943 0)
(0.561416 0.0396044 0)
(0.533437 0.0373274 0)
(0.506534 0.0357396 0)
(0.479822 0.036029 0)
(0.452295 0.0385682 0)
(0.423059 0.0417027 0)
(0.392408 0.0437162 0)
(0.36126 0.0451563 0)
(0.329653 0.0468098 0)
(0.29706 0.0488867 0)
(0.263064 0.0518032 0)
(0.227454 0.0548267 0)
(0.190251 0.0581425 0)
(0.151436 0.0612473 0)
(0.110424 0.0644815 0)
(0.0676755 0.0662791 0)
(0.0234737 0.0688845 0)
(3 -1.34474e-16 0)
(3 -6.91462e-16 0)
(3 -7.41026e-16 0)
(3 -1.64088e-16 0)
(3 5.14709e-17 0)
(3 -2.65089e-16 0)
(3 -2.12105e-16 0)
(3 8.38569e-17 0)
(3 -8.72923e-16 0)
(3 -1.21023e-15 0)
(3 -1.45478e-15 0)
(3 -1.51293e-15 0)
(3 -1.45451e-15 0)
(3 -8.42558e-16 0)
(3 -3.38016e-16 0)
(3 1.10742e-16 0)
(3 6.94771e-16 0)
(3 4.12009e-16 0)
(3 -2.13127e-16 0)
(3 -2.19598e-16 0)
(3 3.76896e-16 0)
(3 7.60308e-16 0)
(3 3.50724e-16 0)
(3 -2.77232e-16 0)
(2.85751 0.0273127 0)
(0.979469 0.0691068 0)
(0.728495 0.0634182 0)
(0.691259 0.0668165 0)
(0.654163 0.0696652 0)
(0.621885 0.069329 0)
(0.593051 0.0673332 0)
(0.565934 0.0644896 0)
(0.53902 0.0619441 0)
(0.511632 0.0606546 0)
(0.483334 0.0621156 0)
(0.453714 0.0666633 0)
(0.422296 0.0716451 0)
(0.389651 0.074503 0)
(0.3568 0.0763762 0)
(0.323713 0.0786058 0)
(0.289943 0.0814641 0)
(0.255325 0.0856819 0)
(0.219742 0.0901021 0)
(0.18324 0.0952526 0)
(0.145554 0.100191 0)
(0.106205 0.105706 0)
(0.0650676 0.10907 0)
(0.0227541 0.113908 0)
(3 1.91534e-16 0)
(3 9.25407e-18 0)
(3 -1.01307e-16 0)
(3 -3.52714e-16 0)
(3 -3.81776e-16 0)
(3 -4.77433e-16 0)
(3 -4.6375e-16 0)
(3 -1.8183e-16 0)
(3 -2.7675e-16 0)
(3 -6.56168e-16 0)
(3 -8.60477e-16 0)
(3 -1.23357e-15 0)
(3 -9.42669e-16 0)
(3 -4.43053e-16 0)
(3 4.56114e-16 0)
(3 1.00632e-15 0)
(3 1.32301e-15 0)
(3 8.51957e-16 0)
(3 5.7259e-16 0)
(3 2.64394e-16 0)
(3 -1.96209e-16 0)
(3 -6.26858e-17 0)
(3 -4.77319e-16 0)
(3 -3.52938e-16 0)
(2.90051 0.0327715 0)
(1.0042 0.0971452 0)
(0.726779 0.0946624 0)
(0.690911 0.096091 0)
(0.660578 0.0965154 0)
(0.633675 0.0925199 0)
(0.60772 0.0883343 0)
(0.581064 0.0859932 0)
(0.552819 0.0853608 0)
(0.523139 0.086033 0)
(0.492453 0.0895624 0)
(0.460785 0.0965322 0)
(0.427463 0.103514 0)
(0.392923 0.107245 0)
(0.358236 0.109573 0)
(0.323341 0.112391 0)
(0.287848 0.115912 0)
(0.251782 0.121071 0)
(0.215135 0.126211 0)
(0.178158 0.132446 0)
(0.140487 0.138371 0)
(0.102112 0.145625 0)
(0.0622298 0.150377 0)
(0.0219095 0.157438 0)
(3 -2.78357e-17 0)
(3 1.94308e-16 0)
(3 1.82561e-16 0)
(3 1.54209e-16 0)
(3 6.989e-17 0)
(3 1.41852e-16 0)
(3 -3.21616e-16 0)
(3 -9.01789e-16 0)
(3 -7.72894e-16 0)
(3 -5.02469e-16 0)
(3 -5.43401e-16 0)
(3 -9.38935e-16 0)
(3 -7.41719e-16 0)
(3 -8.60115e-17 0)
(3 1.70971e-16 0)
(3 -6.0482e-17 0)
(3 4.9359e-17 0)
(3 -6.93597e-17 0)
(3 -5.42666e-16 0)
(3 -1.98191e-16 0)
(3 -7.61806e-17 0)
(3 -1.35798e-15 0)
(3 -1.03618e-15 0)
(3 -1.09073e-15 0)
(2.94675 0.0353106 0)
(1.03456 0.132332 0)
(0.732017 0.124172 0)
(0.704665 0.118552 0)
(0.678994 0.114534 0)
(0.652784 0.110408 0)
(0.625042 0.108837 0)
(0.595415 0.110403 0)
(0.563485 0.113295 0)
(0.52989 0.115908 0)
(0.495924 0.120419 0)
(0.462536 0.128531 0)
(0.429123 0.136611 0)
(0.395305 0.140773 0)
(0.361354 0.143484 0)
(0.326636 0.147062 0)
(0.290626 0.151519 0)
(0.25354 0.157834 0)
(0.215539 0.16362 0)
(0.177299 0.170625 0)
(0.138537 0.176831 0)
(0.0999786 0.18507 0)
(0.060381 0.190695 0)
(0.0213341 0.199594 0)
(3 -6.28584e-17 0)
(3 3.88828e-17 0)
(3 -1.03179e-16 0)
(3 3.84693e-16 0)
(3 7.89623e-16 0)
(3 5.7353e-16 0)
(3 -4.90057e-16 0)
(3 -1.7023e-15 0)
(3 -1.14473e-15 0)
(3 -4.36766e-16 0)
(3 -6.25503e-16 0)
(3 -5.83799e-16 0)
(3 -4.19941e-16 0)
(3 -4.05719e-16 0)
(3 -5.7552e-16 0)
(3 -1.98111e-16 0)
(3 -1.6205e-16 0)
(3 -1.83448e-16 0)
(3 -4.43249e-17 0)
(3 -7.1396e-16 0)
(3 -8.63241e-16 0)
(3 -5.50783e-16 0)
(3 -1.93594e-16 0)
(3 -3.23021e-16 0)
(2.99101 0.0100611 0)
(1.07907 0.163953 0)
(0.750418 0.140882 0)
(0.722703 0.136187 0)
(0.695608 0.135444 0)
(0.665696 0.135245 0)
(0.632628 0.136947 0)
(0.597822 0.140709 0)
(0.562949 0.144761 0)
(0.529263 0.147297 0)
(0.49716 0.151272 0)
(0.466352 0.159419 0)
(0.435168 0.16812 0)
(0.402426 0.173116 0)
(0.368316 0.177156 0)
(0.332461 0.182474 0)
(0.294693 0.188544 0)
(0.255734 0.196299 0)
(0.215981 0.202631 0)
(0.176448 0.210132 0)
(0.136648 0.216048 0)
(0.0979395 0.224635 0)
(0.0585979 0.230588 0)
(0.0207645 0.240839 0)
(3 1.2985e-16 0)
(3 2.34209e-16 0)
(3 6.39668e-17 0)
(3 -8.14529e-18 0)
(3 4.91638e-17 0)
(3 -5.53977e-16 0)
(3 -1.16027e-15 0)
(3 -6.67271e-16 0)
(3 -4.14498e-16 0)
(3 -3.05009e-16 0)
(3 -1.71492e-16 0)
(3 1.69986e-16 0)
(3 5.37706e-16 0)
(3 8.76755e-16 0)
(3 1.20557e-15 0)
(3 1.62493e-15 0)
(3 9.46979e-16 0)
(3 6.11423e-16 0)
(3 6.87689e-16 0)
(3 8.81019e-17 0)
(3 -1.25133e-16 0)
(3 8.72053e-16 0)
(3 1.21126e-15 0)
(3 7.89417e-16 0)
(3.00072 0.000736649 0)
(1.15922 0.182943 0)
(0.755162 0.16466 0)
(0.720505 0.162013 0)
(0.690893 0.162316 0)
(0.659943 0.163044 0)
(0.628231 0.166184 0)
(0.596153 0.170989 0)
(0.563976 0.175197 0)
(0.532139 0.176966 0)
(0.500727 0.18035 0)
(0.469798 0.189107 0)
(0.438112 0.199501 0)
(0.404534 0.206365 0)
(0.369757 0.212311 0)
(0.333642 0.219566 0)
(0.295914 0.227189 0)
(0.257274 0.23623 0)
(0.217767 0.242926 0)
(0.178396 0.25078 0)
(0.138241 0.256201 0)
(0.099117 0.264785 0)
(0.0590935 0.270661 0)
(0.0210452 0.281897 0)
(3 -2.4526e-16 0)
(3 -6.18865e-16 0)
(3 -3.77742e-16 0)
(3 -4.14267e-16 0)
(3 -8.33289e-16 0)
(3 -8.96061e-16 0)
(3 -6.29707e-16 0)
(3 2.53906e-16 0)
(3 -7.01972e-17 0)
(3 1.81696e-16 0)
(3 3.37046e-16 0)
(3 1.67689e-16 0)
(3 8.30586e-16 0)
(3 1.60432e-15 0)
(3 1.97055e-15 0)
(3 1.56192e-15 0)
(3 1.10308e-15 0)
(3 4.51955e-16 0)
(3 -1.49914e-16 0)
(3 -1.17089e-16 0)
(3 3.8964e-16 0)
(3 4.91587e-16 0)
(3 6.28435e-16 0)
(3 1.20262e-15 0)
(3.00001 1.93768e-06 0)
(1.28035 0.2124 0)
(0.763322 0.188835 0)
(0.721389 0.186726 0)
(0.691453 0.187827 0)
(0.65983 0.189661 0)
(0.628183 0.193927 0)
(0.596488 0.199778 0)
(0.564773 0.204807 0)
(0.533279 0.20679 0)
(0.502196 0.210195 0)
(0.472 0.219651 0)
(0.441662 0.231611 0)
(0.409434 0.240146 0)
(0.375964 0.247722 0)
(0.341169 0.256693 0)
(0.304615 0.265722 0)
(0.267055 0.276027 0)
(0.228111 0.28328 0)
(0.188695 0.29188 0)
(0.14733 0.297437 0)
(0.106249 0.306584 0)
(0.0634358 0.312741 0)
(0.0226417 0.325101 0)
(3 -1.43368e-16 0)
(3 -7.67813e-16 0)
(3 -8.12241e-16 0)
(3 -1.04549e-15 0)
(3 -8.59466e-16 0)
(3 9.25389e-17 0)
(3 8.59632e-16 0)
(3 7.27156e-16 0)
(3 6.33103e-16 0)
(3 4.03277e-16 0)
(3 4.89217e-17 0)
(3 1.53337e-16 0)
(3 5.09036e-16 0)
(3 6.52687e-16 0)
(3 1.45042e-16 0)
(3 4.6173e-16 0)
(3 6.12965e-16 0)
(3 5.91611e-16 0)
(3 7.86677e-16 0)
(3 1.36904e-16 0)
(3 -1.97774e-16 0)
(3 -1.71234e-16 0)
(3 7.71269e-16 0)
(3 1.84305e-15 0)
(3 7.94783e-10 0)
(1.45151 0.239737 0)
(0.779448 0.216146 0)
(0.726523 0.213817 0)
(0.695495 0.214672 0)
(0.662943 0.216733 0)
(0.631728 0.221438 0)
(0.601545 0.22785 0)
(0.571902 0.233387 0)
(0.542327 0.235403 0)
(0.512763 0.238405 0)
(0.48394 0.248 0)
(0.455263 0.261189 0)
(0.424525 0.271436 0)
(0.392358 0.280676 0)
(0.358812 0.291435 0)
(0.323137 0.302061 0)
(0.286074 0.314158 0)
(0.246635 0.323044 0)
(0.205848 0.333759 0)
(0.161537 0.341099 0)
(0.116864 0.351922 0)
(0.0697233 0.359004 0)
(0.0247376 0.372621 0)
(3 4.80849e-17 0)
(3 2.34539e-16 0)
(3 7.69619e-16 0)
(3 8.91264e-17 0)
(3 4.06858e-17 0)
(3 9.49843e-17 0)
(3 7.20998e-16 0)
(3 6.19672e-16 0)
(3 8.02088e-16 0)
(3 7.66068e-16 0)
(3 2.42985e-16 0)
(3 1.067e-16 0)
(3 5.01707e-16 0)
(3 5.19845e-16 0)
(3 4.87968e-16 0)
(3 9.64988e-16 0)
(3 8.18163e-16 0)
(3 9.0427e-16 0)
(3 1.36479e-15 0)
(3 1.27316e-15 0)
(3 1.00796e-15 0)
(3 1.3027e-15 0)
(3 9.82583e-16 0)
(3 9.80131e-16 0)
(3 -3.51418e-10 0)
(1.67617 0.260633 0)
(0.802651 0.246092 0)
(0.734526 0.242463 0)
(0.701404 0.243031 0)
(0.665863 0.244954 0)
(0.632462 0.248987 0)
(0.601589 0.254704 0)
(0.572926 0.260358 0)
(0.545032 0.262827 0)
(0.517272 0.26579 0)
(0.490347 0.275681 0)
(0.463927 0.290297 0)
(0.435142 0.302616 0)
(0.404527 0.313805 0)
(0.372428 0.326772 0)
(0.337709 0.339606 0)
(0.301258 0.354352 0)
(0.261362 0.366011 0)
(0.219344 0.379721 0)
(0.172845 0.389713 0)
(0.125275 0.402327 0)
(0.0747767 0.4103 0)
(0.0262429 0.4247 0)
(3 -1.16798e-16 0)
(3 -1.4543e-16 0)
(3 6.11764e-16 0)
(3 1.14817e-15 0)
(3 9.9563e-16 0)
(3 2.71818e-16 0)
(3 1.54385e-16 0)
(3 3.59817e-17 0)
(3 4.35914e-16 0)
(3 9.49838e-16 0)
(3 1.37519e-15 0)
(3 1.0371e-15 0)
(3 1.16251e-15 0)
(3 1.35863e-15 0)
(3 2.08576e-15 0)
(3 1.11473e-15 0)
(3 5.24983e-16 0)
(3 3.85622e-16 0)
(3 4.92852e-16 0)
(3 9.98097e-16 0)
(3 8.93151e-16 0)
(3 5.2757e-16 0)
(3 -3.35518e-16 0)
(3 -1.67514e-15 0)
(3 -1.9224e-10 0)
(1.94741 0.276379 0)
(0.826745 0.284712 0)
(0.732438 0.273995 0)
(0.700903 0.273283 0)
(0.667885 0.275475 0)
(0.637136 0.278975 0)
(0.607711 0.283211 0)
(0.579948 0.287898 0)
(0.552454 0.290167 0)
(0.524607 0.292568 0)
(0.497467 0.302227 0)
(0.4716 0.318032 0)
(0.443837 0.332491 0)
(0.414451 0.34558 0)
(0.384235 0.360787 0)
(0.351435 0.375976 0)
(0.31704 0.393682 0)
(0.278353 0.408963 0)
(0.236298 0.426447 0)
(0.189116 0.440373 0)
(0.138514 0.456333 0)
(0.0831944 0.466627 0)
(0.0293055 0.482367 0)
(3 1.46773e-16 0)
(3 1.69966e-16 0)
(3 -6.75399e-19 0)
(3 4.07138e-17 0)
(3 3.41247e-17 0)
(3 1.32312e-17 0)
(3 -1.58287e-16 0)
(3 5.13119e-17 0)
(3 4.3577e-16 0)
(3 6.30044e-16 0)
(3 8.56597e-16 0)
(3 1.26436e-15 0)
(3 1.54719e-15 0)
(3 2.13909e-15 0)
(3 2.08865e-15 0)
(3 1.57226e-16 0)
(3 1.04627e-16 0)
(3 6.13661e-16 0)
(3 4.95161e-16 0)
(3 4.33789e-16 0)
(3 -1.44483e-16 0)
(3 -9.6141e-16 0)
(3 -8.66699e-16 0)
(3 -4.73353e-16 0)
(3 -2.15788e-11 0)
(2.28018 0.286018 0)
(0.874208 0.334018 0)
(0.74864 0.306206 0)
(0.72296 0.303244 0)
(0.693388 0.304139 0)
(0.664097 0.306862 0)
(0.63375 0.310165 0)
(0.603585 0.314936 0)
(0.572913 0.318511 0)
(0.541729 0.321156 0)
(0.511526 0.33028 0)
(0.483917 0.346579 0)
(0.455735 0.362533 0)
(0.426484 0.376859 0)
(0.397484 0.39388 0)
(0.366244 0.411434 0)
(0.333439 0.432693 0)
(0.2951 0.452938 0)
(0.252363 0.476088 0)
(0.202567 0.496372 0)
(0.148584 0.517383 0)
(0.0895275 0.531165 0)
(0.0302712 0.547342 0)
(3 1.3308e-16 0)
(3 2.12516e-16 0)
(3 -4.76621e-16 0)
(3 -7.22444e-16 0)
(3 -5.87717e-16 0)
(3 -5.78152e-16 0)
(3 -3.24358e-16 0)
(3 4.50319e-16 0)
(3 9.93448e-16 0)
(3 6.58635e-16 0)
(3 5.6786e-16 0)
(3 8.65465e-16 0)
(3 7.83395e-16 0)
(3 4.98293e-16 0)
(3 5.96958e-16 0)
(3 1.67285e-15 0)
(3 2.01272e-15 0)
(3 1.16546e-15 0)
(3 -5.85786e-17 0)
(3 -5.75972e-16 0)
(3 -3.59767e-16 0)
(3 4.70502e-16 0)
(3 5.26108e-16 0)
(3 5.28128e-16 0)
(3 -2.93111e-13 0)
(2.70886 0.238153 0)
(0.977205 0.373854 0)
(0.798707 0.318249 0)
(0.775135 0.314534 0)
(0.743196 0.321556 0)
(0.711343 0.32933 0)
(0.676956 0.33735 0)
(0.64192 0.345132 0)
(0.606384 0.35079 0)
(0.570686 0.353667 0)
(0.53621 0.361155 0)
(0.505434 0.37684 0)
(0.475599 0.393663 0)
(0.445098 0.408649 0)
(0.415859 0.427145 0)
(0.38472 0.447215 0)
(0.352498 0.472406 0)
(0.315308 0.498411 0)
(0.274048 0.527971 0)
(0.225712 0.554771 0)
(0.171526 0.581732 0)
(0.106659 0.602661 0)
(0.0380188 0.622595 0)
(3 -1.26709e-16 0)
(3 -2.79361e-16 0)
(3 -6.36328e-17 0)
(3 5.67556e-17 0)
(3 -3.09796e-16 0)
(3 -1.36155e-15 0)
(3 -1.28294e-15 0)
(3 -1.05846e-15 0)
(3 8.71137e-17 0)
(3 4.06357e-16 0)
(3 8.56823e-16 0)
(3 8.81193e-16 0)
(3 6.21046e-16 0)
(3 -4.45244e-16 0)
(3 -4.53058e-16 0)
(3 7.66335e-16 0)
(3 1.42771e-15 0)
(3 6.67698e-16 0)
(3 6.28969e-16 0)
(3 1.24601e-15 0)
(3 1.34487e-15 0)
(3 1.08217e-15 0)
(3 6.26522e-16 0)
(3 1.90414e-16 0)
(3 -1.62335e-15 0)
(3.01744 0.0522056 0)
(1.12354 0.370532 0)
(0.834331 0.338789 0)
(0.812526 0.344463 0)
(0.781203 0.352727 0)
(0.750507 0.359676 0)
(0.718387 0.367746 0)
(0.683797 0.377405 0)
(0.647153 0.385655 0)
(0.609407 0.389663 0)
(0.571708 0.395304 0)
(0.537675 0.409426 0)
(0.505723 0.426386 0)
(0.47335 0.441674 0)
(0.442693 0.461459 0)
(0.410966 0.483686 0)
(0.379606 0.512002 0)
(0.344071 0.543148 0)
(0.304192 0.579633 0)
(0.254141 0.617434 0)
(0.193423 0.65759 0)
(0.12144 0.694451 0)
(0.038115 0.718981 0)
(3 -2.72326e-16 0)
(3 -9.73689e-17 0)
(3 3.79242e-16 0)
(3 5.13579e-17 0)
(3 -2.90687e-16 0)
(3 -8.36919e-17 0)
(3 -1.31517e-16 0)
(3 -7.23339e-16 0)
(3 -1.06815e-15 0)
(3 -5.90634e-16 0)
(3 3.88179e-16 0)
(3 -2.65094e-17 0)
(3 -5.88661e-16 0)
(3 -6.23362e-16 0)
(3 -9.27539e-16 0)
(3 -5.80509e-16 0)
(3 -5.07068e-16 0)
(3 9.66156e-16 0)
(3 1.34221e-15 0)
(3 1.46786e-15 0)
(3 1.28264e-15 0)
(3 2.52656e-16 0)
(3 2.67848e-16 0)
(3 4.7027e-17 0)
(3 -7.56467e-16 0)
(3.00991 0.00211368 0)
(1.2477 0.353981 0)
(0.827432 0.362016 0)
(0.804233 0.381582 0)
(0.775228 0.386123 0)
(0.749957 0.390442 0)
(0.727494 0.399156 0)
(0.705116 0.409952 0)
(0.67824 0.419979 0)
(0.646147 0.426243 0)
(0.610426 0.431369 0)
(0.576364 0.443969 0)
(0.543613 0.461176 0)
(0.509813 0.477263 0)
(0.477657 0.498182 0)
(0.445138 0.521941 0)
(0.413708 0.552796 0)
(0.379414 0.589524 0)
(0.341692 0.635499 0)
(0.297475 0.687888 0)
(0.243469 0.740358 0)
(0.175464 0.792216 0)
(0.0682965 0.838552 0)
(3 -1.58292e-16 0)
(3 1.7318e-17 0)
(3 1.16103e-16 0)
(3 3.3613e-16 0)
(3 4.5854e-16 0)
(3 1.02289e-15 0)
(3 1.21627e-15 0)
(3 1.12823e-15 0)
(3 2.40567e-16 0)
(3 -1.1326e-15 0)
(3 -1.16998e-15 0)
(3 -1.39442e-15 0)
(3 -1.34454e-15 0)
(3 -4.99671e-16 0)
(3 -3.87682e-17 0)
(3 4.06278e-16 0)
(3 1.28767e-16 0)
(3 6.76889e-16 0)
(3 5.44198e-16 0)
(3 2.49997e-16 0)
(3 -5.61288e-17 0)
(3 3.53571e-16 0)
(3 2.80471e-16 0)
(3 -5.19955e-17 0)
(3 -6.16519e-16 0)
(3.0001 5.82185e-08 0)
(1.47873 0.375371 0)
(0.817263 0.37951 0)
(0.776091 0.389245 0)
(0.755447 0.396352 0)
(0.736125 0.40248 0)
(0.719489 0.413889 0)
(0.703794 0.429777 0)
(0.687597 0.446563 0)
(0.666064 0.458446 0)
(0.639035 0.465998 0)
(0.611009 0.478875 0)
(0.582197 0.497112 0)
(0.550754 0.514667 0)
(0.519703 0.536522 0)
(0.487662 0.561271 0)
(0.457189 0.594036 0)
(0.426185 0.635277 0)
(0.395296 0.687086 0)
(0.361389 0.74883 0)
(0.310867 0.827648 0)
(0.218744 0.937913 0)
(0.11944 1.06314 0)
(3 2.8786e-16 0)
(3 2.36946e-16 0)
(3 -1.3147e-16 0)
(3 5.2788e-17 0)
(3 4.6734e-16 0)
(3 3.6784e-16 0)
(3 6.01716e-16 0)
(3 1.19045e-15 0)
(3 1.33565e-15 0)
(3 3.95723e-16 0)
(3 -1.39676e-15 0)
(3 -1.21e-15 0)
(3 -3.36428e-16 0)
(3 -2.55347e-16 0)
(3 -2.00343e-16 0)
(3 -8.45175e-17 0)
(3 6.20723e-16 0)
(3 5.61453e-16 0)
(3 1.09578e-16 0)
(3 -7.63411e-16 0)
(3 -6.73954e-16 0)
(3 -1.33681e-16 0)
(3 3.26278e-17 0)
(3 -1.57831e-16 0)
(3 -2.61641e-16 0)
(3 -4.84459e-09 0)
(1.85758 0.421295 0)
(0.843137 0.439069 0)
(0.76974 0.409618 0)
(0.753739 0.413916 0)
(0.736309 0.420562 0)
(0.719917 0.431293 0)
(0.705459 0.446626 0)
(0.692854 0.464576 0)
(0.678754 0.480825 0)
(0.659135 0.492668 0)
(0.638736 0.507857 0)
(0.617016 0.52861 0)
(0.591712 0.549713 0)
(0.564838 0.574232 0)
(0.535999 0.601273 0)
(0.50838 0.635803 0)
(0.48223 0.679305 0)
(0.45853 0.736004 0)
(0.433503 0.81625 0)
(0.408038 0.940924 0)
(0.397335 1.09733 0)
(0.511589 1.35495 0)
(3 6.06427e-16 0)
(3 2.13402e-16 0)
(3 -9.38509e-16 0)
(3 -1.18648e-15 0)
(3 -6.0903e-16 0)
(3 -4.11384e-16 0)
(3 -4.45829e-16 0)
(3 -5.91815e-16 0)
(3 -5.62469e-16 0)
(3 -2.9386e-16 0)
(3 2.89369e-17 0)
(3 -4.48211e-16 0)
(3 -4.32381e-16 0)
(3 -5.16863e-16 0)
(3 -5.64716e-16 0)
(3 -1.3744e-15 0)
(3 -9.638e-16 0)
(3 -9.66413e-16 0)
(3 -9.81115e-16 0)
(3 -1.12195e-15 0)
(3 -1.51043e-15 0)
(3 -1.68479e-15 0)
(3 -1.6938e-15 0)
(3 -1.07535e-15 0)
(3 -1.24009e-16 0)
(3 -2.93252e-09 0)
(2.45999 0.387579 0)
(0.949981 0.497744 0)
(0.820184 0.432567 0)
(0.791634 0.430208 0)
(0.763836 0.438263 0)
(0.739887 0.449709 0)
(0.720525 0.464836 0)
(0.705345 0.482688 0)
(0.692076 0.500414 0)
(0.675898 0.515382 0)
(0.660389 0.532537 0)
(0.645423 0.555524 0)
(0.628196 0.58074 0)
(0.608808 0.608892 0)
(0.587146 0.639111 0)
(0.565549 0.675084 0)
(0.546608 0.720338 0)
(0.531603 0.781691 0)
(0.528431 0.87366 0)
(0.537816 1.00567 0)
(0.618795 1.15494 0)
(0.926911 1.35063 0)
(3 2.64652e-17 0)
(3 9.48851e-17 0)
(3 -2.05533e-16 0)
(3 -3.24822e-16 0)
(3 -6.26449e-16 0)
(3 -1.14088e-15 0)
(3 -1.85796e-15 0)
(3 -2.25656e-15 0)
(3 -2.066e-15 0)
(3 -9.23707e-16 0)
(3 1.10089e-15 0)
(3 1.4603e-15 0)
(3 1.15675e-15 0)
(3 1.12481e-16 0)
(3 1.47065e-16 0)
(3 -4.50179e-16 0)
(3 -1.23354e-15 0)
(3 -1.67905e-15 0)
(3 -1.49155e-15 0)
(3 -1.32381e-15 0)
(3 -1.16364e-15 0)
(3 -1.86199e-15 0)
(3 -1.78428e-15 0)
(3 -1.45885e-15 0)
(3 -5.29957e-16 0)
(3 -5.59847e-10 0)
(3.04743 0.0928701 0)
(1.17895 0.48484 0)
(0.889529 0.464097 0)
(0.855698 0.462387 0)
(0.815561 0.46663 0)
(0.779874 0.472719 0)
(0.751322 0.48433 0)
(0.730172 0.500787 0)
(0.713774 0.518587 0)
(0.69804 0.534653 0)
(0.684008 0.552094 0)
(0.672665 0.575783 0)
(0.661665 0.604085 0)
(0.65036 0.636344 0)
(0.637718 0.671416 0)
(0.624632 0.710595 0)
(0.615541 0.757992 0)
(0.612345 0.819662 0)
(0.629613 0.908822 0)
(0.674351 1.02746 0)
(0.818458 1.16291 0)
(1.14672 1.28827 0)
(3 -2.05543e-16 0)
(3 -1.65443e-16 0)
(3 2.73208e-16 0)
(3 4.18726e-16 0)
(3 2.43487e-16 0)
(3 -2.02806e-16 0)
(3 -1.3686e-17 0)
(3 -2.71829e-17 0)
(3 4.15791e-17 0)
(3 -2.13813e-16 0)
(3 -4.41114e-17 0)
(3 1.50476e-15 0)
(3 1.45573e-15 0)
(3 5.00209e-16 0)
(3 -4.15303e-16 0)
(3 -5.73021e-16 0)
(3 -5.47286e-16 0)
(3 -6.83163e-16 0)
(3 -1.02417e-15 0)
(3 -1.45681e-15 0)
(3 -9.75652e-16 0)
(3 -8.82523e-16 0)
(3 -9.66962e-16 0)
(3 -1.27161e-15 0)
(3 -8.05755e-16 0)
(3 -8.71595e-11 0)
(3.02022 0.00192071 0)
(1.35313 0.458067 0)
(0.892775 0.509268 0)
(0.858178 0.507029 0)
(0.826604 0.50633 0)
(0.798063 0.506864 0)
(0.772869 0.514032 0)
(0.751965 0.526945 0)
(0.734624 0.542747 0)
(0.719696 0.557699 0)
(0.706779 0.573494 0)
(0.697926 0.595798 0)
(0.691608 0.624511 0)
(0.687334 0.658909 0)
(0.684442 0.69755 0)
(0.682315 0.739814 0)
(0.684601 0.788263 0)
(0.695823 0.847372 0)
(0.726927 0.927557 0)
(0.801015 1.03017 0)
(0.968756 1.13842 0)
(1.24218 1.2148 0)
(3 -8.203e-17 0)
(3 -1.68384e-16 0)
(3 3.78234e-16 0)
(3 3.20224e-16 0)
(3 4.82307e-16 0)
(3 1.7726e-15 0)
(3 2.01067e-15 0)
(3 1.90707e-15 0)
(3 9.13123e-16 0)
(3 8.29487e-16 0)
(3 3.70167e-17 0)
(3 2.3118e-16 0)
(3 5.7243e-16 0)
(3 1.82605e-16 0)
(3 -6.47244e-16 0)
(3 -4.78547e-16 0)
(3 4.3532e-16 0)
(3 1.06609e-15 0)
(3 3.62465e-16 0)
(3 -1.45562e-16 0)
(3 -9.0236e-16 0)
(3 -9.0846e-16 0)
(3 -1.20664e-15 0)
(3 -5.82161e-16 0)
(3 -2.05309e-16 0)
(3 -7.55746e-12 0)
(3.00025 -6.57718e-06 0)
(1.71519 0.478408 0)
(0.882288 0.526768 0)
(0.846803 0.52567 0)
(0.832262 0.530096 0)
(0.814385 0.531043 0)
(0.795733 0.536492 0)
(0.778062 0.548087 0)
(0.762411 0.562921 0)
(0.748606 0.577231 0)
(0.735797 0.591343 0)
(0.727419 0.611682 0)
(0.72309 0.639341 0)
(0.723055 0.674198 0)
(0.7273 0.715179 0)
(0.735883 0.760638 0)
(0.749663 0.810394 0)
(0.774577 0.866721 0)
(0.817832 0.936288 0)
(0.908456 1.02014 0)
(1.07164 1.09891 0)
(1.30076 1.14752 0)
(3 8.00833e-17 0)
(3 2.056e-16 0)
(3 2.60318e-16 0)
(3 2.33468e-16 0)
(3 2.75799e-16 0)
(3 7.07503e-16 0)
(3 7.36588e-16 0)
(3 6.73281e-16 0)
(3 6.25033e-16 0)
(3 7.26242e-16 0)
(3 2.93064e-16 0)
(3 -1.4315e-16 0)
(3 -4.4751e-16 0)
(3 -7.17811e-16 0)
(3 -2.28347e-16 0)
(3 6.69658e-16 0)
(3 5.59028e-16 0)
(3 9.6642e-16 0)
(3 8.75467e-16 0)
(3 6.05685e-17 0)
(3 -2.34268e-15 0)
(3 -2.75591e-15 0)
(3 -1.40179e-15 0)
(3 3.20557e-16 0)
(3 1.36207e-15 0)
(3 -4.14942e-14 0)
(3.00001 -5.82335e-06 0)
(2.40324 0.439362 0)
(0.980655 0.584487 0)
(0.874588 0.529874 0)
(0.862345 0.538539 0)
(0.843329 0.547082 0)
(0.824305 0.555656 0)
(0.807541 0.569246 0)
(0.792776 0.585129 0)
(0.779976 0.600296 0)
(0.767575 0.613484 0)
(0.759146 0.63132 0)
(0.755703 0.65624 0)
(0.758427 0.688629 0)
(0.767291 0.728101 0)
(0.783865 0.773413 0)
(0.807787 0.823011 0)
(0.843676 0.876523 0)
(0.898533 0.937591 0)
(0.995146 1.00308 0)
(1.14299 1.05738 0)
(1.32722 1.08752 0)
(3 -6.63197e-17 0)
(3 2.74201e-17 0)
(3 1.35576e-16 0)
(3 2.00348e-16 0)
(3 -9.59976e-17 0)
(3 -1.11024e-16 0)
(3 1.20138e-16 0)
(3 1.28705e-16 0)
(3 7.96998e-17 0)
(3 -4.72743e-16 0)
(3 -6.02542e-16 0)
(3 -6.09544e-16 0)
(3 -3.91844e-16 0)
(3 -2.26385e-16 0)
(3 6.77261e-16 0)
(3 2.81068e-16 0)
(3 -7.68784e-16 0)
(3 -3.64001e-16 0)
(3 -5.22744e-16 0)
(3 -1.08704e-15 0)
(3 -1.37778e-15 0)
(3 -1.48462e-15 0)
(3 -8.8154e-16 0)
(3 -2.9901e-16 0)
(3 7.8268e-16 0)
(3 -6.07677e-17 0)
(3 -1.17766e-06 0)
(3.07783 0.0915588 0)
(1.23655 0.566331 0)
(0.936892 0.549352 0)
(0.909447 0.563565 0)
(0.884105 0.568666 0)
(0.859836 0.575163 0)
(0.841228 0.58835 0)
(0.826448 0.60422 0)
(0.814755 0.620079 0)
(0.803819 0.63317 0)
(0.795677 0.648745 0)
(0.792102 0.670673 0)
(0.795693 0.700074 0)
(0.806601 0.736613 0)
(0.827396 0.779367 0)
(0.857881 0.827048 0)
(0.901873 0.877636 0)
(0.965683 0.931763 0)
(1.06283 0.984035 0)
(1.19404 1.02278 0)
(1.34676 1.04123 0)
(3 -1.56869e-16 0)
(3 -4.36318e-16 0)
(3 -2.10336e-16 0)
(3 -5.67859e-16 0)
(3 -4.51331e-16 0)
(3 3.11668e-17 0)
(3 8.62115e-16 0)
(3 7.08517e-16 0)
(3 -5.97001e-17 0)
(3 -5.28917e-16 0)
(3 -8.74843e-16 0)
(3 -4.95457e-16 0)
(3 -3.40168e-16 0)
(3 -1.47222e-16 0)
(3 -3.60895e-16 0)
(3 -9.02495e-16 0)
(3 -5.30673e-16 0)
(3 -1.16434e-15 0)
(3 -9.77117e-16 0)
(3 -5.16041e-16 0)
(3 5.16741e-16 0)
(3 1.31879e-15 0)
(3 1.1965e-15 0)
(3 1.83013e-15 0)
(3 1.20429e-15 0)
(3 1.17569e-15 0)
(3 -1.04352e-07 0)
(3.01857 0.000912818 0)
(1.46125 0.550261 0)
(0.931636 0.611045 0)
(0.908307 0.597102 0)
(0.892952 0.600229 0)
(0.877463 0.603566 0)
(0.864368 0.613407 0)
(0.853477 0.62701 0)
(0.845383 0.642091 0)
(0.838047 0.65547 0)
(0.83238 0.669819 0)
(0.829894 0.688487 0)
(0.834253 0.713953 0)
(0.846395 0.745763 0)
(0.869018 0.783135 0)
(0.901981 0.825765 0)
(0.949736 0.871158 0)
(1.01704 0.917423 0)
(1.11182 0.961433 0)
(1.22776 0.991209 0)
(1.36023 1.00324 0)
(3 1.28947e-16 0)
(3 -6.33023e-17 0)
(3 -3.86363e-16 0)
(3 -8.92661e-16 0)
(3 -4.47656e-16 0)
(3 -3.18916e-16 0)
(3 5.72038e-17 0)
(3 5.12502e-16 0)
(3 6.72831e-16 0)
(3 1.28882e-16 0)
(3 7.33232e-17 0)
(3 -2.8875e-16 0)
(3 -4.47981e-16 0)
(3 -2.16981e-16 0)
(3 1.95827e-16 0)
(3 9.2547e-16 0)
(3 9.30537e-16 0)
(3 1.87405e-16 0)
(3 2.2644e-16 0)
(3 1.07906e-15 0)
(3 2.43866e-15 0)
(3 4.08218e-15 0)
(3 3.73634e-15 0)
(3 2.72629e-15 0)
(3 2.1595e-15 0)
(3 2.21874e-15 0)
(3 -2.71711e-09 0)
(3.00019 -5.96037e-06 0)
(2.05838 0.550307 0)
(0.982366 0.643267 0)
(0.925728 0.60352 0)
(0.919447 0.608788 0)
(0.906231 0.617994 0)
(0.894223 0.6295 0)
(0.884038 0.643494 0)
(0.877939 0.658922 0)
(0.873293 0.673006 0)
(0.870378 0.687275 0)
(0.869701 0.703743 0)
(0.87467 0.725804 0)
(0.887237 0.753687 0)
(0.910243 0.786403 0)
(0.943793 0.823814 0)
(0.992354 0.863248 0)
(1.05874 0.90188 0)
(1.14773 0.938388 0)
(1.25249 0.963041 0)
(1.37026 0.972656 0)
(3 6.32511e-17 0)
(3 4.38679e-17 0)
(3 -3.33619e-17 0)
(3 6.28753e-16 0)
(3 -7.15522e-17 0)
(3 -2.12925e-16 0)
(3 -3.12129e-16 0)
(3 2.38749e-16 0)
(3 7.80127e-16 0)
(3 4.75252e-16 0)
(3 6.38302e-16 0)
(3 1.20342e-17 0)
(3 1.33175e-16 0)
(3 -7.93933e-17 0)
(3 3.46909e-16 0)
(3 6.22406e-16 0)
(3 2.24826e-18 0)
(3 3.4604e-16 0)
(3 8.79069e-16 0)
(3 1.83144e-15 0)
(3 2.05709e-15 0)
(3 2.23976e-15 0)
(3 2.33973e-15 0)
(3 1.56319e-15 0)
(3 1.63293e-15 0)
(3 1.9734e-15 0)
(3 -5.25637e-12 0)
(3.00002 -7.39693e-06 0)
(2.92659 0.226524 0)
(1.19238 0.6392 0)
(0.979174 0.611665 0)
(0.963399 0.625863 0)
(0.945696 0.636031 0)
(0.929907 0.647522 0)
(0.917622 0.66088 0)
(0.910973 0.676018 0)
(0.907346 0.690369 0)
(0.906526 0.70493 0)
(0.908242 0.720221 0)
(0.914819 0.73944 0)
(0.928357 0.76287 0)
(0.951145 0.790345 0)
(0.984517 0.821376 0)
(1.03159 0.853939 0)
(1.09319 0.885553 0)
(1.17407 0.915121 0)
(1.26519 0.934117 0)
(1.37198 0.941741 0)
(3 -9.57555e-17 0)
(3 1.11875e-16 0)
(3 4.1873e-16 0)
(3 7.91455e-16 0)
(3 5.37202e-16 0)
(3 8.01827e-16 0)
(3 5.56273e-16 0)
(3 2.19184e-16 0)
(3 9.35983e-17 0)
(3 4.85111e-16 0)
(3 2.4585e-16 0)
(3 3.11004e-16 0)
(3 3.24337e-16 0)
(3 3.29439e-16 0)
(3 -3.09634e-16 0)
(3 -8.00259e-16 0)
(3 -7.34084e-16 0)
(3 5.97233e-16 0)
(3 1.54394e-15 0)
(3 1.50456e-15 0)
(3 6.93728e-16 0)
(3 1.06565e-15 0)
(3 1.01687e-15 0)
(3 4.61755e-16 0)
(3 -1.13552e-16 0)
(3 2.56224e-16 0)
(3 -3.97689e-15 0)
(3 -1.50098e-06 0)
(3.04937 0.00939728 0)
(1.43418 0.608568 0)
(0.990364 0.664986 0)
(0.967351 0.655309 0)
(0.955171 0.663622 0)
(0.948053 0.673764 0)
(0.942237 0.684319 0)
(0.938841 0.696249 0)
(0.93807 0.708182 0)
(0.940095 0.720956 0)
(0.944789 0.734698 0)
(0.953714 0.751096 0)
(0.968623 0.771629 0)
(0.991406 0.795686 0)
(1.02502 0.822598 0)
(1.07007 0.84888 0)
(1.12713 0.875385 0)
(1.19975 0.898403 0)
(1.27963 0.911716 0)
(1.37643 0.919029 0)
(3 -3.45881e-17 0)
(3 -2.37745e-16 0)
(3 -4.01292e-16 0)
(3 -1.06341e-16 0)
(3 3.70893e-16 0)
(3 -3.77248e-16 0)
(3 -8.62558e-16 0)
(3 -8.12507e-16 0)
(3 -3.88666e-16 0)
(3 -1.59048e-16 0)
(3 4.84269e-16 0)
(3 5.22044e-16 0)
(3 2.03652e-16 0)
(3 2.63953e-16 0)
(3 2.95581e-16 0)
(3 7.44118e-16 0)
(3 1.11752e-15 0)
(3 1.1636e-15 0)
(3 5.58965e-16 0)
(3 1.44377e-15 0)
(3 1.47975e-15 0)
(3 1.51575e-15 0)
(3 1.1607e-15 0)
(3 3.9409e-16 0)
(3 -4.57183e-16 0)
(3 -4.16883e-16 0)
(3 -1.7038e-16 0)
(3 -1.22054e-07 0)
(3.00114 6.57285e-06 0)
(2.0384 0.591785 0)
(1.03607 0.705962 0)
(0.984585 0.665238 0)
(0.981355 0.670335 0)
(0.977569 0.683486 0)
(0.973158 0.697184 0)
(0.970176 0.710068 0)
(0.970042 0.721399 0)
(0.973399 0.733653 0)
(0.97961 0.746261 0)
(0.990716 0.761529 0)
(1.00671 0.779083 0)
(1.03023 0.799514 0)
(1.0634 0.821948 0)
(1.10554 0.843583 0)
(1.15826 0.864658 0)
(1.22173 0.881178 0)
(1.29328 0.890798 0)
(1.37809 0.896813 0)
(3 8.49137e-17 0)
(3 5.12598e-17 0)
(3 -5.93098e-17 0)
(3 1.40953e-17 0)
(3 -2.91956e-16 0)
(3 -1.18026e-15 0)
(3 -1.29822e-15 0)
(3 -1.41733e-15 0)
(3 -1.02078e-15 0)
(3 -1.06111e-15 0)
(3 -4.21035e-16 0)
(3 3.76654e-16 0)
(3 6.70321e-16 0)
(3 1.94275e-16 0)
(3 8.89123e-17 0)
(3 4.14672e-16 0)
(3 3.64536e-16 0)
(3 -3.79372e-17 0)
(3 -4.51785e-16 0)
(3 6.06353e-16 0)
(3 2.37236e-15 0)
(3 2.175e-15 0)
(3 9.43283e-16 0)
(3 2.67271e-16 0)
(3 -1.3607e-16 0)
(3 -2.22786e-17 0)
(3 9.09005e-17 0)
(3 -1.27667e-09 0)
(3.00001 -3.61709e-06 0)
(2.96508 0.206883 0)
(1.25401 0.680778 0)
(1.03521 0.667568 0)
(1.02742 0.68405 0)
(1.01883 0.700394 0)
(1.00972 0.713861 0)
(1.00378 0.726096 0)
(1.00178 0.735988 0)
(1.00491 0.747237 0)
(1.01206 0.758271 0)
(1.02434 0.771294 0)
(1.0418 0.787437 0)
(1.06627 0.805315 0)
(1.09883 0.824942 0)
(1.1385 0.843394 0)
(1.18803 0.860687 0)
(1.24455 0.873324 0)
(1.31009 0.880847 0)
(1.3843 0.884705 0)
(3 4.67213e-18 0)
(3 2.13478e-16 0)
(3 1.83989e-16 0)
(3 1.19856e-16 0)
(3 -4.05403e-16 0)
(3 -2.23017e-16 0)
(3 3.64039e-17 0)
(3 -1.82882e-16 0)
(3 -6.58255e-16 0)
(3 -2.76813e-16 0)
(3 -7.09913e-16 0)
(3 -2.66171e-16 0)
(3 2.68551e-17 0)
(3 -1.58118e-16 0)
(3 -4.98905e-16 0)
(3 -1.31758e-15 0)
(3 -3.72734e-16 0)
(3 -1.83951e-16 0)
(3 2.10733e-16 0)
(3 1.19187e-15 0)
(3 2.48078e-15 0)
(3 2.81051e-15 0)
(3 1.96912e-15 0)
(3 1.20355e-15 0)
(3 1.00657e-15 0)
(3 7.72646e-16 0)
(3 3.57947e-16 0)
(3 -1.78367e-12 0)
(3 -1.32069e-06 0)
(3.04022 0.00601825 0)
(1.51113 0.643369 0)
(1.04468 0.724074 0)
(1.03398 0.718463 0)
(1.02752 0.724513 0)
(1.02636 0.734354 0)
(1.02596 0.744553 0)
(1.02766 0.750895 0)
(1.03294 0.758423 0)
(1.04224 0.766839 0)
(1.05583 0.777894 0)
(1.07378 0.791146 0)
(1.09837 0.806754 0)
(1.12948 0.823272 0)
(1.16717 0.838994 0)
(1.21321 0.853232 0)
(1.26528 0.863304 0)
(1.32542 0.869218 0)
(1.39126 0.871148 0)
(3 -1.00604e-16 0)
(3 -1.09687e-16 0)
(3 7.4645e-17 0)
(3 -8.92048e-18 0)
(3 2.07358e-16 0)
(3 7.95284e-16 0)
(3 9.78983e-16 0)
(3 8.159e-16 0)
(3 5.43212e-16 0)
(3 6.59058e-16 0)
(3 6.27038e-16 0)
(3 -3.69642e-16 0)
(3 -1.1821e-15 0)
(3 -2.75433e-16 0)
(3 1.7558e-16 0)
(3 4.98151e-16 0)
(3 6.26413e-16 0)
(3 2.7161e-16 0)
(3 9.15911e-18 0)
(3 -1.21249e-16 0)
(3 2.5852e-16 0)
(3 1.95686e-15 0)
(3 1.97832e-15 0)
(3 1.75534e-15 0)
(3 1.88255e-15 0)
(3 1.34699e-15 0)
(3 1.51259e-15 0)
(3 4.4718e-16 0)
(3 -1.39465e-07 0)