/*--------------------------------*- C++ -*----------------------------------*\
  =========                 |
  \\      /  F ield         | OpenFOAM: The Open Source CFD Toolbox
   \\    /   O peration     | Website:  https://openfoam.org
    \\  /    A nd           | Version:  7
     \\/     M anipulation  |
\*---------------------------------------------------------------------------*/
FoamFile
{
    version     2.0;
    format      ascii;
    class       volScalarField;
    location    "2.2";
    object      p;
}
// * * * * * * * * * * * * * * * * * * * * * * * * * * * * * * * * * * * * * //

dimensions      [1 -1 -2 0 0 0 0];

internalField   nonuniform List<scalar> 
258048
(
1
1
1
1
1
1
1
1
1
1
1
1
1
1
1
1
1
1
1
1
1
1
1
1
1
1
1
1
1
1
1
1
1
1
1
1
1
1
1
1
1
1
1
1
1
1
1
1
1
1
1
1
1
1
1
1
1
1
1
1
1
1
1
1
1
1
1
1
1
1
1
1
1
1
1
1
1
1
1
1
1
1
1
1
1
1
1
1
1
1
1
1
1
1
1
1
1
1
1
1.2481
7.35411
10.4343
10.4293
10.4602
10.4902
10.5228
10.5603
10.6002
10.638
10.6696
10.6958
10.7212
10.7487
10.778
10.8073
10.8347
10.8583
10.8781
10.8971
10.9269
10.9719
11.0207
11.0653
11.0959
11.1088
11.1084
11.107
11.1279
11.1712
11.2234
11.2716
11.3031
11.3102
11.3005
11.2879
11.2869
11.3082
11.3545
11.4148
11.4726
11.5144
11.5335
11.5277
11.5177
11.5174
11.5374
11.5777
11.6198
11.6443
11.6432
11.6299
11.6231
11.6404
11.6876
11.7463
11.7931
11.8104
11.8022
11.7895
11.7873
11.8064
11.8381
11.8629
11.8692
11.8623
11.8557
11.8609
11.8833
11.9171
11.9478
11.9649
11.9703
11.9748
11.9839
11.9959
12.0056
12.0093
12.0102
12.0126
12.0205
12.035
12.0505
12.0608
12.0668
12.0739
12.0813
12.086
12.0848
12.0762
12.0617
12.0451
12.0324
1
1
1
1
1
1
1
1
1
1
1
1
1
1
1
1
1
1
1
1
1
1
1
1
1
1
1
1
1
1
1
1
1
1
1
1
1
1
1
1
1
1
1
1
1
1
1
1
1
1
1
1
1
1
1
1
1
1
1
1
1
1
1
1
1
1
1
1
1
1
1
1
1
1
1
1
1
1
1
1
1
1
1
1
1
1
1
1
1
1
1
1
1
1
1
1
1
1
1
1.23855
7.31008
10.4074
10.4371
10.4636
10.4923
10.5254
10.5633
10.6024
10.6403
10.6736
10.7003
10.7232
10.7466
10.7731
10.8025
10.833
10.8614
10.8849
10.9042
10.9283
10.9662
11.012
11.0564
11.0909
11.1101
11.1169
11.1177
11.1324
11.1678
11.216
11.2636
11.2977
11.3106
11.3053
11.295
11.2931
11.3122
11.3556
11.4138
11.4702
11.512
11.532
11.5278
11.519
11.5202
11.5412
11.5809
11.6214
11.6441
11.6422
11.6289
11.6226
11.6404
11.6878
11.7463
11.7922
11.8091
11.8015
11.7897
11.7881
11.8073
11.8384
11.8627
11.8689
11.8621
11.8555
11.8608
11.8834
11.918
11.9488
11.9649
11.9687
11.9719
11.9809
11.9946
12.0065
12.0119
12.0127
12.0132
12.0187
12.032
12.0489
12.0611
12.0676
12.0739
12.0801
12.0844
12.084
12.0767
12.0628
12.0448
12.0302
1
1
1
1
1
1
1
1
1
1
1
1
1
1
1
1
1
1
1
1
1
1
1
1
1
1
1
1
1
1
1
1
1
1
1
1
1
1
1
1
1
1
1
1
1
1
1
1
1
1
1
1
1
1
1
1
1
1
1
1
1
1
1
1
1
1
1
1
1
1
1
1
1
1
1
1
1
1
1
1
1
1
1
1
1
1
1
1
1
1
1
1
1
1
1
1
1
1
1
1.22278
7.25121
10.3978
10.4348
10.4614
10.4928
10.5274
10.5649
10.6035
10.642
10.678
10.7069
10.7277
10.7458
10.7672
10.795
10.8283
10.8624
10.8918
10.9146
10.9354
10.9648
11.0029
11.0439
11.0807
11.1072
11.1236
11.1311
11.1422
11.1692
11.2078
11.2493
11.2835
11.3033
11.3053
11.301
11.3009
11.3182
11.3576
11.4117
11.465
11.505
11.5245
11.5223
11.5159
11.5199
11.5435
11.5835
11.6219
11.6417
11.6384
11.6256
11.621
11.6399
11.6876
11.7454
11.7898
11.8059
11.7993
11.7892
11.7889
11.8084
11.8386
11.862
11.868
11.8614
11.8551
11.8602
11.8828
11.9179
11.9491
11.9646
11.9665
11.9676
11.9754
11.9901
12.005
12.0137
12.0152
12.014
12.0162
12.0272
12.0452
12.0602
12.0682
12.0739
12.0787
12.0821
12.0823
12.0762
12.0633
12.0446
12.0276
1
1
1
1
1
1
1
1
1
1
1
1
1
1
1
1
1
1
1
1
1
1
1
1
1
1
1
1
1
1
1
1
1
1
1
1
1
1
1
1
1
1
1
1
1
1
1
1
1
1
1
1
1
1
1
1
1
1
1
1
1
1
1
1
1
1
1
1
1
1
1
1
1
1
1
1
1
1
1
1
1
1
1
1
1
1
1
1
1
1
1
1
1
1
1
1
1
1
1
1.20463
7.18307
10.384
10.431
10.46
10.4936
10.528
10.5653
10.6041
10.6439
10.6823
10.7136
10.7333
10.7468
10.7617
10.787
10.8227
10.8632
10.8996
10.9261
10.9438
10.9641
10.9925
11.0291
11.0699
11.1066
11.1323
11.1454
11.1519
11.1683
11.1971
11.2337
11.2704
11.297
11.3089
11.3103
11.311
11.3254
11.3597
11.4091
11.4591
11.4974
11.5168
11.5171
11.5142
11.5224
11.5485
11.5872
11.6217
11.6377
11.6336
11.6224
11.6208
11.6416
11.6883
11.7434
11.7852
11.8008
11.7965
11.7894
11.7912
11.8103
11.8383
11.8597
11.8656
11.8607
11.8559
11.8615
11.8835
11.9177
11.9479
11.9623
11.9633
11.9633
11.9704
11.9862
12.0045
12.0161
12.0177
12.0145
12.0133
12.0221
12.0411
12.0587
12.0682
12.0732
12.0766
12.0793
12.0801
12.0755
12.0636
12.0441
12.0247
1
1
1
1
1
1
1
1
1
1
1
1
1
1
1
1
1
1
1
1
1
1
1
1
1
1
1
1
1
1
1
1
1
1
1
1
1
1
1
1
1
1
1
1
1
1
1
1
1
1
1
1
1
1
1
1
1
1
1
1
1
1
1
1
1
1
1
1
1
1
1
1
1
1
1
1
1
1
1
1
1
1
1
1
1
1
1
1
1
1
1
1
1
1
1
1
1
1
1
1.18165
7.10153
10.3659
10.4253
10.4599
10.494
10.5287
10.5656
10.6049
10.6456
10.685
10.7182
10.7385
10.7498
10.7596
10.7812
10.8174
10.8618
10.9038
10.9355
10.9527
10.9659
10.9856
11.0158
11.0601
11.1059
11.1388
11.1563
11.1606
11.1672
11.1868
11.2186
11.2572
11.2909
11.3122
11.3191
11.3212
11.3329
11.362
11.4059
11.452
11.4879
11.5068
11.5107
11.5126
11.5258
11.5542
11.5901
11.6192
11.6309
11.6271
11.6194
11.6223
11.6456
11.6899
11.7399
11.7776
11.7932
11.7929
11.7901
11.7947
11.8128
11.8369
11.855
11.8608
11.8588
11.8576
11.8648
11.8859
11.9169
11.9442
11.9573
11.9587
11.959
11.9665
11.9833
12.0036
12.0169
12.0188
12.0135
12.0098
12.0172
12.0366
12.0561
12.0671
12.0715
12.0738
12.0761
12.0775
12.074
12.063
12.043
12.0224
1
1
1
1
1
1
1
1
1
1
1
1
1
1
1
1
1
1
1
1
1
1
1
1
1
1
1
1
1
1
1
1
1
1
1
1
1
1
1
1
1
1
1
1
1
1
1
1
1
1
1
1
1
1
1
1
1
1
1
1
1
1
1
1
1
1
1
1
1
1
1
1
1
1
1
1
1
1
1
1
1
1
1
1
1
1
1
1
1
1
1
1
1
1
1
1
1
1
1
1.1341
6.9911
10.364
10.4304
10.4601
10.4931
10.5269
10.5644
10.6049
10.6459
10.6852
10.7196
10.7423
10.7543
10.7618
10.7793
10.8135
10.8593
10.9047
10.9405
10.959
10.969
10.983
11.0079
11.0525
11.102
11.1389
11.1592
11.1639
11.1647
11.1782
11.2061
11.2463
11.2857
11.314
11.3266
11.3303
11.3398
11.364
11.4021
11.4435
11.477
11.4965
11.5046
11.513
11.5312
11.5597
11.5906
11.613
11.6211
11.6191
11.6176
11.6269
11.6522
11.6918
11.7338
11.7659
11.7825
11.7883
11.7918
11.8002
11.8162
11.834
11.8472
11.8531
11.8554
11.8599
11.8703
11.8902
11.9159
11.9378
11.9492
11.9525
11.9559
11.9654
11.9828
12.0025
12.0154
12.017
12.0109
12.0061
12.013
12.0321
12.0524
12.0645
12.0687
12.0705
12.0729
12.0748
12.0717
12.061
12.0413
12.0211
1
1
1
1
1
1
1
1
1
1
1
1
1
1
1
1
1
1
1
1
1
1
1
1
1
1
1
1
1
1
1
1
1
1
1
1
1
1
1
1
1
1
1
1
1
1
1
1
1
1
1
1
1
1
1
1
1
1
1
1
1
1
1
1
1
1
1
1
1
1
1
1
1
1
1
1
1
1
1
1
1
1
1
1
1
1
1
1
1
1
1
1
1
1
1
1
1
1
1
1.05853
6.85272
10.3829
10.4384
10.4601
10.4919
10.527
10.5659
10.6058
10.645
10.6827
10.7175
10.7433
10.7584
10.7668
10.7815
10.812
10.856
10.9025
10.9404
10.9624
10.9727
10.9837
11.0052
11.0462
11.0943
11.1319
11.1544
11.1621
11.1623
11.1729
11.1983
11.2384
11.2803
11.3133
11.3312
11.3378
11.3461
11.3661
11.3981
11.4339
11.4648
11.486
11.5001
11.5156
11.5374
11.5633
11.5874
11.6027
11.6087
11.6112
11.6183
11.6343
11.6602
11.6927
11.7246
11.7506
11.7693
11.7831
11.7953
11.8078
11.8198
11.8294
11.8364
11.8429
11.851
11.8623
11.8774
11.8958
11.9143
11.9291
11.9385
11.9452
11.9539
11.9671
11.9847
12.0014
12.0116
12.0122
12.0063
12.0023
12.0095
12.0276
12.0475
12.0603
12.0651
12.0671
12.0697
12.0717
12.0686
12.0578
12.0385
12.0205
1
1
1
1
1
1
1
1
1
1
1
1
1
1
1
1
1
1
1
1
1
1
1
1
1
1
1
1
1
1
1
1
1
1
1
1
1
1
1
1
1
1
1
1
1
1
1
1
1
1
1
1
1
1
1
1
1
1
1
1
1
1
1
1
1
1
1
1
1
1
1
1
1
1
1
1
1
1
1
1
1
1
1
1
1
1
1
1
1
1
1
1
1
1
1
1
1
1
1
1.00263
6.68159
10.3954
10.4355
10.4569
10.4917
10.5297
10.5686
10.6059
10.6424
10.678
10.7123
10.7408
10.7597
10.7716
10.7858
10.813
10.8535
10.8987
10.9372
10.9627
10.9755
10.9862
11.005
11.0398
11.0836
11.1206
11.1454
11.1574
11.1611
11.1718
11.1953
11.2329
11.2744
11.3101
11.3327
11.3433
11.3516
11.3678
11.3934
11.4232
11.4518
11.4761
11.4976
11.5199
11.5428
11.5636
11.5795
11.5889
11.5949
11.6053
11.6221
11.6438
11.6677
11.691
11.7122
11.7328
11.7547
11.7782
11.8005
11.8159
11.822
11.8226
11.824
11.8311
11.8452
11.8647
11.885
11.9012
11.9118
11.919
11.9266
11.9376
11.9525
11.9702
11.9876
12.0003
12.0063
12.0052
12
11.9979
12.0056
12.0226
12.0414
12.055
12.0612
12.0639
12.0667
12.0682
12.0644
12.0532
12.0351
12.0208
1
1
1
1
1
1
1
1
1
1
1
1
1
1
1
1
1
1
1
1
1
1
1
1
1
1
1
1
1
1
1
1
1
1
1
1
1
1
1
1
1
1
1
1
1
1
1
1
1
1
1
1
1
1
1
1
1
1
1
1
1
1
1
1
1
1
1
1
1
1
1
1
1
1
1
1
1
1
1
1
1
1
1
1
1
1
1
1
1
1
1
1
1
1
1
1
1
1
1
1.00003
6.47532
10.3867
10.4328
10.4568
10.4953
10.5338
10.5707
10.6043
10.6383
10.6727
10.7057
10.735
10.7567
10.7723
10.7885
10.8143
10.8522
10.8956
10.9336
10.9609
10.9763
10.9879
11.0045
11.0323
11.0708
11.1071
11.1348
11.1521
11.1613
11.1736
11.1956
11.2291
11.2682
11.3051
11.332
11.3471
11.356
11.3685
11.3876
11.4115
11.439
11.4682
11.4974
11.5247
11.5457
11.5595
11.5674
11.5728
11.5823
11.6026
11.6291
11.6539
11.6722
11.6855
11.6973
11.7144
11.741
11.7752
11.806
11.8217
11.8216
11.8142
11.8108
11.819
11.8396
11.8676
11.8921
11.9046
11.9078
11.9088
11.9152
11.9305
11.9521
11.9739
11.9901
11.9986
12.0006
11.9975
11.9929
11.993
12.001
12.0162
12.034
12.0488
12.0574
12.0613
12.0636
12.0638
12.0586
12.0471
12.0309
12.0212
1
1
1
1
1
1
1
1
1
1
1
1
1
1
1
1
1
1
1
1
1
1
1
1
1
1
1
1
1
1
1
1
1
1
1
1
1
1
1
1
1
1
1
1
1
1
1
1
1
1
1
1
1
1
1
1
1
1
1
1
1
1
1
1
1
1
1
1
1
1
1
1
1
1
1
1
1
1
1
1
1
1
1
1
1
1
1
1
1
1
1
1
1
1
1
1
1
1
1
1
6.25401
10.3838
10.4301
10.455
10.4952
10.5334
10.5688
10.6009
10.6341
10.6686
10.7007
10.7286
10.7504
10.7681
10.787
10.8134
10.851
10.8939
10.9314
10.9588
10.9753
10.9869
11.0014
11.0236
11.0574
11.0938
11.1248
11.1474
11.1622
11.1767
11.1974
11.2265
11.262
11.2991
11.3298
11.3491
11.3583
11.3672
11.3802
11.3996
11.4278
11.4629
11.4989
11.528
11.5443
11.5501
11.5525
11.5565
11.5733
11.6043
11.6378
11.6609
11.6718
11.6761
11.6815
11.6978
11.7314
11.7752
11.8099
11.8229
11.8168
11.8036
11.7979
11.8085
11.8362
11.8712
11.8963
11.9042
11.9017
11.899
11.9053
11.9246
11.9516
11.976
11.9908
11.9961
11.9951
11.9905
11.9863
11.9875
11.9946
12.0077
12.0254
12.0422
12.0541
12.0598
12.0605
12.0584
12.0513
12.0399
12.0261
12.0211
1
1
1
1
1
1
1
1
1
1
1
1
1
1
1
1
1
1
1
1
1
1
1
1
1
1
1
1
1
1
1
1
1
1
1
1
1
1
1
1
1
1
1
1
1
1
1
1
1
1
1
1
1
1
1
1
1
1
1
1
1
1
1
1
1
1
1
1
1
1
1
1
1
1
1
1
1
1
1
1
1
1
1
1
1
1
1
1
1
1
1
1
1
1
1
1
1
1
1
1
6.01814
10.3799
10.4287
10.4495
10.488
10.5256
10.5617
10.5949
10.6292
10.6652
10.6981
10.7248
10.7442
10.7611
10.7809
10.8087
10.8482
10.8926
10.9309
10.9578
10.9731
10.983
10.9953
11.0137
11.0448
11.0825
11.1166
11.1436
11.1629
11.1794
11.199
11.2246
11.2572
11.2938
11.3268
11.3486
11.3577
11.3627
11.3712
11.3884
11.4191
11.4598
11.4997
11.5279
11.5382
11.5373
11.5364
11.5429
11.5701
11.6102
11.6447
11.6623
11.6652
11.6627
11.6657
11.6855
11.7277
11.7767
11.8104
11.8181
11.8062
11.7902
11.7862
11.8024
11.8368
11.8744
11.8962
11.899
11.8932
11.8898
11.8983
11.9208
11.9506
11.9752
11.9886
11.9919
11.9897
11.9848
11.9812
11.9818
11.9864
11.9973
12.0155
12.0352
12.0512
12.0587
12.0574
12.0521
12.0428
12.0316
12.0207
12.0197
1
1
1
1
1
1
1
1
1
1
1
1
1
1
1
1
1
1
1
1
1
1
1
1
1
1
1
1
1
1
1
1
1
1
1
1
1
1
1
1
1
1
1
1
1
1
1
1
1
1
1
1
1
1
1
1
1
1
1
1
1
1
1
1
1
1
1
1
1
1
1
1
1
1
1
1
1
1
1
1
1
1
1
1
1
1
1
1
1
1
1
1
1
1
1
1
1
1
1
1
5.76683
10.3672
10.4321
10.4463
10.4785
10.5124
10.549
10.5848
10.6225
10.6619
10.6969
10.7238
10.7405
10.7539
10.7724
10.801
10.843
10.8904
10.9307
10.9577
10.9709
10.9782
10.9878
11.0037
11.0339
11.0735
11.1098
11.1401
11.1624
11.1804
11.1995
11.2231
11.254
11.29
11.3235
11.3457
11.3537
11.3554
11.3616
11.3793
11.4139
11.4584
11.4987
11.523
11.5272
11.5226
11.5214
11.5355
11.5734
11.617
11.6467
11.6569
11.6524
11.6463
11.6516
11.68
11.7297
11.7787
11.8076
11.8075
11.7902
11.775
11.7774
11.8023
11.8418
11.8763
11.8916
11.8888
11.8815
11.8805
11.8935
11.9196
11.9496
11.9719
11.9827
11.9853
11.984
11.9806
11.9777
11.9762
11.9769
11.9854
12.0048
12.0279
12.0483
12.0576
12.0543
12.0452
12.0333
12.0223
12.0145
12.0167
1
1
1
1
1
1
1
1
1
1
1
1
1
1
1
1
1
1
1
1
1
1
1
1
1
1
1
1
1
1
1
1
1
1
1
1
1
1
1
1
1
1
1
1
1
1
1
1
1
1
1
1
1
1
1
1
1
1
1
1
1
1
1
1
1
1
1
1
1
1
1
1
1
1
1
1
1
1
1
1
1
1
1
1
1
1
1
1
1
1
1
1
1
1
1
1
1
1
1
1
5.49832
10.3366
10.4376
10.4495
10.4753
10.5018
10.5349
10.5717
10.6135
10.6577
10.6959
10.7243
10.7393
10.7485
10.7636
10.7913
10.8354
10.8865
10.9297
10.9576
10.9692
10.9739
10.9808
10.9948
11.0253
11.0666
11.104
11.1357
11.1595
11.1785
11.198
11.2214
11.2522
11.2877
11.3202
11.341
11.3467
11.3466
11.3525
11.3734
11.4115
11.4568
11.4941
11.5126
11.5123
11.5069
11.5102
11.5347
11.5798
11.6213
11.6443
11.6455
11.6354
11.6292
11.6408
11.6798
11.735
11.7806
11.8008
11.792
11.7711
11.7598
11.7722
11.807
11.8498
11.8779
11.8834
11.8755
11.8675
11.8711
11.8905
11.9201
11.9482
11.9658
11.9734
11.9763
11.9775
11.9774
11.9752
11.9707
11.967
11.9728
11.9932
12.02
12.0447
12.056
12.0512
12.0383
12.0233
12.0125
12.0079
12.0123
1
1
1
1
1
1
1
1
1
1
1
1
1
1
1
1
1
1
1
1
1
1
1
1
1
1
1
1
1
1
1
1
1
1
1
1
1
1
1
1
1
1
1
1
1
1
1
1
1
1
1
1
1
1
1
1
1
1
1
1
1
1
1
1
1
1
1
1
1
1
1
1
1
1
1
1
1
1
1
1
1
1
1
1
1
1
1
1
1
1
1
1
1
1
1
1
1
1
1
1
5.21109
10.2795
10.4397
10.4578
10.48
10.4985
10.5247
10.5589
10.6032
10.6522
10.6943
10.7248
10.7396
10.7452
10.756
10.7812
10.8261
10.8805
10.927
10.9565
10.9676
10.9705
10.9754
10.9879
11.0187
11.0609
11.0985
11.1302
11.154
11.1737
11.1944
11.2196
11.2513
11.286
11.3163
11.3341
11.3374
11.3373
11.3456
11.3706
11.4103
11.4532
11.4852
11.4978
11.4959
11.4935
11.5045
11.539
11.586
11.6219
11.6368
11.6302
11.6168
11.6142
11.6342
11.6826
11.7392
11.7793
11.7886
11.7726
11.7513
11.7474
11.7708
11.8148
11.8571
11.8778
11.873
11.8597
11.8521
11.8616
11.8883
11.9209
11.9458
11.9578
11.9619
11.9652
11.9701
11.9748
11.9737
11.9659
11.9574
11.96
11.9811
12.0114
12.0401
12.0534
12.0474
12.031
12.013
12.002
12.0003
12.0061
1
1
1
1
1
1
1
1
1
1
1
1
1
1
1
1
1
1
1
1
1
1
1
1
1
1
1
1
1
1
1
1
1
1
1
1
1
1
1
1
1
1
1
1
1
1
1
1
1
1
1
1
1
1
1
1
1
1
1
1
1
1
1
1
1
1
1
1
1
1
1
1
1
1
1
1
1
1
1
1
1
1
1
1
1
1
1
1
1
1
1
1
1
1
1
1
1
1
1
1
4.90678
10.1989
10.4329
10.4651
10.4892
10.5017
10.5199
10.5488
10.5931
10.6459
10.6918
10.7247
10.7402
10.7431
10.7494
10.7716
10.8164
10.8731
10.9222
10.954
10.966
10.9683
10.9721
10.9838
11.0144
11.056
11.0928
11.1235
11.1466
11.1666
11.1889
11.2167
11.2496
11.283
11.3103
11.3249
11.327
11.3291
11.3411
11.3694
11.4084
11.4462
11.4721
11.4812
11.4802
11.484
11.5042
11.5449
11.5889
11.6177
11.624
11.613
11.6
11.6033
11.6324
11.686
11.7395
11.7723
11.772
11.7519
11.7337
11.7395
11.7738
11.8237
11.8616
11.8739
11.8617
11.8438
11.8372
11.8525
11.8859
11.9204
11.9414
11.9481
11.9492
11.9528
11.9621
11.9719
11.9717
11.961
11.9478
11.9473
11.9686
12.0022
12.0342
12.0492
12.0424
12.0231
12.0026
11.9914
11.9921
11.9988
1
1
1
1
1
1
1
1
1
1
1
1
1
1
1
1
1
1
1
1
1
1
1
1
1
1
1
1
1
1
1
1
1
1
1
1
1
1
1
1
1
1
1
1
1
1
1
1
1
1
1
1
1
1
1
1
1
1
1
1
1
1
1
1
1
1
1
1
1
1
1
1
1
1
1
1
1
1
1
1
1
1
1
1
1
1
1
1
1
1
1
1
1
1
1
1
1
1
1
1
4.58896
10.1067
10.4193
10.4653
10.4962
10.5081
10.52
10.5415
10.5834
10.6389
10.6883
10.7239
10.7401
10.7408
10.7431
10.7624
10.8068
10.8647
10.9155
10.9491
10.963
10.966
10.97
10.9818
11.0121
11.0521
11.087
11.1161
11.1383
11.1588
11.1827
11.2125
11.246
11.2775
11.3015
11.3141
11.3173
11.3227
11.3384
11.3678
11.4037
11.4358
11.4566
11.4646
11.4679
11.4796
11.5082
11.5491
11.5868
11.6075
11.6072
11.5961
11.5883
11.5988
11.6347
11.6877
11.7343
11.757
11.7506
11.7315
11.7206
11.7371
11.7799
11.83
11.8621
11.8659
11.8491
11.8291
11.8248
11.8448
11.8821
11.9166
11.9338
11.9367
11.936
11.9402
11.9538
11.9678
11.9684
11.9556
11.9386
11.9354
11.9566
11.9926
12.0271
12.0432
12.0359
12.0145
11.9923
11.981
11.9835
11.9906
1
1
1
1
1
1
1
1
1
1
1
1
1
1
1
1
1
1
1
1
1
1
1
1
1
1
1
1
1
1
1
1
1
1
1
1
1
1
1
1
1
1
1
1
1
1
1
1
1
1
1
1
1
1
1
1
1
1
1
1
1
1
1
1
1
1
1
1
1
1
1
1
1
1
1
1
1
1
1
1
1
1
1
1
1
1
1
1
1
1
1
1
1
1
1
1
1
1
1
1
4.25907
10.0048
10.4061
10.461
10.4978
10.5124
10.5213
10.5361
10.574
10.6315
10.6838
10.7216
10.7387
10.7381
10.7376
10.755
10.7989
10.8571
10.9086
10.943
10.9583
10.9626
10.9678
10.9806
11.0104
11.0484
11.0806
11.1075
11.1287
11.1498
11.1754
11.2065
11.2396
11.2692
11.291
11.3035
11.3097
11.3187
11.3363
11.364
11.3948
11.4215
11.4398
11.4498
11.46
11.48
11.5127
11.5494
11.5788
11.5918
11.5884
11.5805
11.5817
11.5999
11.6398
11.6878
11.7237
11.7355
11.7261
11.7122
11.7128
11.7401
11.7868
11.832
11.8571
11.8542
11.8353
11.8166
11.8162
11.8393
11.8767
11.9084
11.9226
11.9239
11.923
11.9288
11.946
11.9626
11.9632
11.9489
11.9294
11.9246
11.9456
11.9827
12.0183
12.0348
12.0272
12.0046
11.9816
11.9706
11.9745
11.9815
1
1
1
1
1
1
1
1
1
1
1
1
1
1
1
1
1
1
1
1
1
1
1
1
1
1
1
1
1
1
1
1
1
1
1
1
1
1
1
1
1
1
1
1
1
1
1
1
1
1
1
1
1
1
1
1
1
1
1
1
1
1
1
1
1
1
1
1
1
1
1
1
1
1
1
1
1
1
1
1
1
1
1
1
1
1
1
1
1
1
1
1
1
1
1
1
1
1
1
1
3.91914
9.8901
10.3947
10.4548
10.4966
10.514
10.5218
10.531
10.5651
10.6239
10.6781
10.7173
10.7355
10.7345
10.7327
10.7496
10.7931
10.8504
10.9008
10.9343
10.9503
10.9567
10.9644
10.9794
11.0095
11.0454
11.0747
11.0991
11.1191
11.1405
11.167
11.1983
11.2304
11.2587
11.2801
11.2945
11.3045
11.3159
11.3335
11.3573
11.3827
11.4056
11.4239
11.4385
11.4561
11.4824
11.5147
11.5455
11.5662
11.5726
11.5696
11.5681
11.5784
11.6054
11.6463
11.6855
11.7086
11.7101
11.7006
11.6944
11.7085
11.746
11.7922
11.83
11.8464
11.8393
11.8211
11.8069
11.8114
11.8357
11.8695
11.8961
11.9077
11.9098
11.9106
11.9195
11.9395
11.9562
11.9554
11.9399
11.9197
11.9149
11.9357
11.9727
12.0079
12.024
12.0162
11.9936
11.9711
11.9607
11.9653
11.972
1
1
1
1
1
1
1
1
1
1
1
1
1
1
1
1
1
1
1
1
1
1
1
1
1
1
1
1
1
1
1
1
1
1
1
1
1
1
1
1
1
1
1
1
1
1
1
1
1
1
1
1
1
1
1
1
1
1
1
1
1
1
1
1
1
1
1
1
1
1
1
1
1
1
1
1
1
1
1
1
1
1
1
1
1
1
1
1
1
1
1
1
1
1
1
1
1
1
1
1
3.57118
9.75731
10.3893
10.4472
10.4905
10.5104
10.5191
10.5266
10.5598
10.6185
10.6726
10.7104
10.7278
10.7274
10.7276
10.7463
10.7899
10.8456
10.8934
10.9245
10.94
10.9487
10.9597
10.9781
11.0095
11.0437
11.0705
11.092
11.1099
11.13
11.1562
11.1871
11.2186
11.247
11.2698
11.2871
11.3
11.3125
11.3287
11.3484
11.3699
11.3913
11.4112
11.4305
11.4536
11.4826
11.5126
11.5375
11.5511
11.5535
11.5521
11.558
11.5773
11.6118
11.6512
11.6801
11.6907
11.6847
11.6763
11.6794
11.7061
11.7505
11.7946
11.8239
11.8321
11.8226
11.8075
11.8
11.8093
11.833
11.8605
11.8802
11.8897
11.8943
11.8989
11.9123
11.9338
11.9484
11.9448
11.9283
11.9093
11.9061
11.9269
11.9627
11.996
12.0107
12.0033
11.9818
11.9607
11.9511
11.9558
11.9617
1
1
1
1
1
1
1
1
1
1
1
1
1
1
1
1
1
1
1
1
1
1
1
1
1
1
1
1
1
1
1
1
1
1
1
1
1
1
1
1
1
1
1
1
1
1
1
1
1
1
1
1
1
1
1
1
1
1
1
1
1
1
1
1
1
1
1
1
1
1
1
1
1
1
1
1
1
1
1
1
1
1
1
1
1
1
1
1
1
1
1
1
1
1
1
1
1
1
1
1
3.22274
9.59911
10.388
10.4409
10.4822
10.5028
10.5141
10.5238
10.5586
10.6159
10.6679
10.7025
10.7175
10.718
10.7229
10.7453
10.7897
10.8427
10.8867
10.9141
10.9278
10.9379
10.9526
10.9752
11.0089
11.0427
11.0674
11.0858
11.1006
11.1184
11.143
11.1737
11.2063
11.2366
11.2619
11.2813
11.2954
11.3073
11.3208
11.3378
11.3581
11.3801
11.4021
11.424
11.4492
11.4781
11.5054
11.5258
11.5352
11.5364
11.5379
11.5496
11.5767
11.6149
11.6511
11.6718
11.6728
11.6627
11.6553
11.667
11.7034
11.7507
11.7915
11.8136
11.8161
11.8059
11.795
11.7949
11.8085
11.8296
11.8491
11.8621
11.8699
11.8774
11.8881
11.9069
11.9283
11.9389
11.9318
11.9143
11.898
11.8981
11.9191
11.9528
11.9828
11.9954
11.9885
11.9691
11.9503
11.9417
11.946
11.9506
1
1
1
1
1
1
1
1
1
1
1
1
1
1
1
1
1
1
1
1
1
1
1
1
1
1
1
1
1
1
1
1
1
1
1
1
1
1
1
1
1
1
1
1
1
1
1
1
1
1
1
1
1
1
1
1
1
1
1
1
1
1
1
1
1
1
1
1
1
1
1
1
1
1
1
1
1
1
1
1
1
1
1
1
1
1
1
1
1
1
1
1
1
1
1
1
1
1
1
1
2.87609
9.41006
10.3897
10.4368
10.4741
10.493
10.5067
10.5218
10.5594
10.6139
10.6631
10.694
10.7058
10.7074
10.7177
10.7451
10.7906
10.8403
10.8801
10.9039
10.9151
10.9256
10.9434
10.9703
11.007
11.0416
11.0654
11.0809
11.0919
11.1061
11.1285
11.1595
11.1944
11.2277
11.2552
11.2753
11.2888
11.2991
11.311
11.3276
11.349
11.3727
11.3957
11.4181
11.4425
11.469
11.4933
11.5115
11.5205
11.5236
11.5287
11.5447
11.575
11.6125
11.6439
11.6586
11.6553
11.645
11.6406
11.6583
11.6981
11.7445
11.7813
11.7995
11.7998
11.7907
11.7841
11.7903
11.8068
11.8242
11.8359
11.8428
11.8499
11.8605
11.8778
11.9019
11.9218
11.9271
11.9169
11.8986
11.8859
11.8903
11.9117
11.9426
11.9684
11.9785
11.9723
11.9557
11.9397
11.9322
11.9356
11.9385
1
1
1
1
1
1
1
1
1
1
1
1
1
1
1
1
1
1
1
1
1
1
1
1
1
1
1
1
1
1
1
1
1
1
1
1
1
1
1
1
1
1
1
1
1
1
1
1
1
1
1
1
1
1
1
1
1
1
1
1
1
1
1
1
1
1
1
1
1
1
1
1
1
1
1
1
1
1
1
1
1
1
1
1
1
1
1
1
1
1
1
1
1
1
1
1
1
1
1
1
2.54007
9.18495
10.3906
10.4295
10.4649
10.4828
10.4992
10.5205
10.56
10.6118
10.658
10.6853
10.6946
10.6978
10.7129
10.7449
10.7907
10.8374
10.8738
10.8942
10.9031
10.9133
10.9334
10.9643
11.0039
11.0393
11.0628
11.076
11.0832
11.0941
11.1147
11.1466
11.1841
11.22
11.2488
11.2685
11.2805
11.2896
11.3014
11.3194
11.3428
11.3678
11.391
11.4122
11.434
11.4565
11.4779
11.4955
11.5068
11.5143
11.5243
11.543
11.5719
11.6047
11.6298
11.6408
11.6377
11.6308
11.632
11.6535
11.6916
11.7331
11.7659
11.7828
11.7842
11.7776
11.7754
11.7854
11.8019
11.815
11.8208
11.8233
11.8307
11.8447
11.8677
11.8954
11.9134
11.9134
11.9003
11.8823
11.8738
11.8823
11.9039
11.9315
11.9528
11.9605
11.9552
11.9417
11.9288
11.9224
11.9245
11.9254
1
1
1
1
1
1
1
1
1
1
1
1
1
1
1
1
1
1
1
1
1
1
1
1
1
1
1
1
1
1
1
1
1
1
1
1
1
1
1
1
1
1
1
1
1
1
1
1
1
1
1
1
1
1
1
1
1
1
1
1
1
1
1
1
1
1
1
1
1
1
1
1
1
1
1
1
1
1
1
1
1
1
1
1
1
1
1
1
1
1
1
1
1
1
1
1
1
1
1
1
2.22246
8.91343
10.3892
10.4215
10.4577
10.4756
10.4933
10.5185
10.558
10.6062
10.649
10.675
10.6843
10.6913
10.7103
10.7441
10.7883
10.8318
10.8646
10.8825
10.8909
10.9023
10.9249
10.9586
10.9996
11.0353
11.0586
11.0702
11.0746
11.0835
11.1034
11.136
11.1749
11.2118
11.2407
11.2596
11.271
11.2804
11.2933
11.3129
11.3376
11.3633
11.3863
11.406
11.4247
11.4426
11.4604
11.4779
11.493
11.5068
11.5223
11.5423
11.5672
11.5924
11.6109
11.62
11.621
11.6207
11.629
11.6509
11.6822
11.716
11.7455
11.7639
11.7691
11.7666
11.7687
11.7798
11.7931
11.8017
11.8041
11.8047
11.8133
11.8309
11.8577
11.8864
11.9019
11.8978
11.8829
11.8663
11.862
11.8735
11.895
11.919
11.936
11.9417
11.9376
11.9273
11.9174
11.9119
11.9124
11.9116
1
1
1
1
1
1
1
1
1
1
1
1
1
1
1
1
1
1
1
1
1
1
1
1
1
1
1
1
1
1
1
1
1
1
1
1
1
1
1
1
1
1
1
1
1
1
1
1
1
1
1
1
1
1
1
1
1
1
1
1
1
1
1
1
1
1
1
1
1
1
1
1
1
1
1
1
1
1
1
1
1
1
1
1
1
1
1
1
1
1
1
1
1
1
1
1
1
1
1
1
1.93268
8.58523
10.3834
10.4178
10.4515
10.4699
10.4893
10.516
10.5541
10.5985
10.6375
10.6625
10.6759
10.6887
10.7106
10.7436
10.7837
10.822
10.851
10.8685
10.8792
10.8938
10.9189
10.9538
10.9935
11.0279
11.0508
11.0621
11.0661
11.0752
11.0953
11.1276
11.1657
11.2016
11.2297
11.2485
11.2612
11.2725
11.2867
11.3067
11.3309
11.3563
11.3791
11.3983
11.415
11.4298
11.4444
11.4613
11.4796
11.4996
11.5201
11.5401
11.5587
11.5748
11.5875
11.5967
11.6045
11.6141
11.6287
11.6484
11.6711
11.6966
11.7231
11.7441
11.7546
11.7578
11.7632
11.7723
11.7802
11.7848
11.7856
11.7874
11.7981
11.8189
11.8473
11.8742
11.8867
11.8807
11.8654
11.8512
11.8502
11.8635
11.8846
11.905
11.9183
11.9227
11.9199
11.9125
11.9052
11.9004
11.8993
11.8971
1
1
1
1
1
1
1
1
1
1
1
1
1
1
1
1
1
1
1
1
1
1
1
1
1
1
1
1
1
1
1
1
1
1
1
1
1
1
1
1
1
1
1
1
1
1
1
1
1
1
1
1
1
1
1
1
1
1
1
1
1
1
1
1
1
1
1
1
1
1
1
1
1
1
1
1
1
1
1
1
1
1
1
1
1
1
1
1
1
1
1
1
1
1
1
1
1
1
1
1
1.66646
8.19743
10.3799
10.4219
10.4487
10.4664
10.4864
10.5138
10.5507
10.5905
10.6251
10.6501
10.6683
10.6877
10.7125
10.7434
10.7775
10.8091
10.8345
10.8531
10.8687
10.8881
10.9153
10.9495
10.9863
11.0178
11.0397
11.0517
11.0577
11.0687
11.0896
11.1205
11.1556
11.1886
11.2154
11.2355
11.2513
11.2657
11.2814
11.3005
11.3225
11.3463
11.369
11.3887
11.4052
11.4187
11.4317
11.4478
11.468
11.4918
11.515
11.5335
11.5461
11.5553
11.5642
11.5753
11.5906
11.6093
11.628
11.644
11.6583
11.6764
11.7003
11.7243
11.7407
11.7497
11.7568
11.762
11.7643
11.7651
11.7659
11.771
11.7848
11.8078
11.8357
11.8592
11.8688
11.8625
11.8486
11.8369
11.8379
11.8519
11.8718
11.8892
11.8998
11.9036
11.9021
11.8972
11.892
11.8877
11.8853
11.8822
1
1
1
1
1
1
1
1
1
1
1
1
1
1
1
1
1
1
1
1
1
1
1
1
1
1
1
1
1
1
1
1
1
1
1
1
1
1
1
1
1
1
1
1
1
1
1
1
1
1
1
1
1
1
1
1
1
1
1
1
1
1
1
1
1
1
1
1
1
1
1
1
1
1
1
1
1
1
1
1
1
1
1
1
1
1
1
1
1
1
1
1
1
1
1
1
1
1
1
1
1.42948
7.75566
10.3808
10.4207
10.4428
10.4609
10.4836
10.5126
10.5472
10.582
10.6119
10.6369
10.6608
10.686
10.7129
10.7411
10.7686
10.7938
10.8161
10.8367
10.8577
10.8822
10.9116
10.9445
10.9776
11.0056
11.0262
11.0392
11.0485
11.0625
11.0846
11.1137
11.1451
11.174
11.1992
11.2208
11.2406
11.2589
11.2764
11.2943
11.3131
11.334
11.3556
11.3758
11.3935
11.4082
11.4219
11.4383
11.4593
11.4839
11.5064
11.5214
11.529
11.5345
11.5428
11.5577
11.5797
11.6035
11.623
11.6351
11.6432
11.6563
11.6788
11.7055
11.7274
11.7412
11.7485
11.7493
11.7465
11.7442
11.7458
11.755
11.7723
11.7967
11.8223
11.8418
11.849
11.8438
11.8324
11.8232
11.8248
11.8382
11.8564
11.8718
11.8811
11.8847
11.8843
11.8813
11.8774
11.8735
11.8703
11.8672
1
1
1
1
1
1
1
1
1
1
1
1
1
1
1
1
1
1
1
1
1
1
1
1
1
1
1
1
1
1
1
1
1
1
1
1
1
1
1
1
1
1
1
1
1
1
1
1
1
1
1
1
1
1
1
1
1
1
1
1
1
1
1
1
1
1
1
1
1
1
1
1
1
1
1
1
1
1
1
1
1
1
1
1
1
1
1
1
1
1
1
1
1
1
1
1
1
1
1
1
1.21211
7.28364
10.3916
10.4088
10.4295
10.4524
10.4811
10.5138
10.5459
10.5753
10.6012
10.6254
10.6519
10.6811
10.7102
10.7366
10.7588
10.7788
10.799
10.8217
10.8475
10.8761
10.9069
10.9384
10.9681
10.9928
11.0117
11.0256
11.0379
11.0549
11.0781
11.1059
11.134
11.1593
11.1828
11.2052
11.228
11.2502
11.2699
11.2878
11.3044
11.3219
11.3407
11.36
11.3788
11.3963
11.4133
11.4318
11.4526
11.4744
11.492
11.5019
11.5069
11.5131
11.525
11.5457
11.572
11.5965
11.6134
11.6214
11.6262
11.637
11.6594
11.6886
11.7144
11.7309
11.7373
11.7343
11.7277
11.7233
11.7261
11.7388
11.7592
11.784
11.8067
11.8226
11.8285
11.8251
11.8165
11.8094
11.8107
11.8224
11.8387
11.853
11.8622
11.8659
11.8663
11.8644
11.8614
11.8579
11.8546
11.8518
1
1
1
1
1
1
1
1
1
1
1
1
1
1
1
1
1
1
1
1
1
1
1
1
1
1
1
1
1
1
1
1
1
1
1
1
1
1
1
1
1
1
1
1
1
1
1
1
1
1
1
1
1
1
1
1
1
1
1
1
1
1
1
1
1
1
1
1
1
1
1
1
1
1
1
1
1
1
1
1
1
1
1
1
1
1
1
1
1
1
1
1
1
1
1
1
1
1
1
1
1.0217
6.78294
10.3795
10.3909
10.4148
10.4432
10.4743
10.5045
10.533
10.5612
10.5896
10.6188
10.6484
10.6773
10.7033
10.7248
10.7434
10.7621
10.7831
10.8083
10.8373
10.8685
10.9004
10.9309
10.9584
10.9807
10.9982
11.0122
11.0263
11.0453
11.0695
11.0969
11.1233
11.1464
11.1682
11.1899
11.2135
11.2381
11.2605
11.2802
11.2963
11.3108
11.3254
11.3416
11.3604
11.3818
11.4046
11.4269
11.4471
11.4636
11.4733
11.4778
11.4827
11.493
11.5122
11.5388
11.5656
11.5865
11.5987
11.6034
11.6072
11.6185
11.642
11.6733
11.7013
11.7184
11.723
11.7174
11.7083
11.7029
11.7069
11.7221
11.7448
11.7691
11.7891
11.8023
11.808
11.8069
11.8007
11.7952
11.7955
11.8045
11.8191
11.833
11.8427
11.8467
11.8478
11.8465
11.8441
11.8412
11.8383
11.836
1
1
1
1
1
1
1
1
1
1
1
1
1
1
1
1
1
1
1
1
1
1
1
1
1
1
1
1
1
1
1
1
1
1
1
1
1
1
1
1
1
1
1
1
1
1
1
1
1
1
1
1
1
1
1
1
1
1
1
1
1
1
1
1
1
1
1
1
1
1
1
1
1
1
1
1
1
1
1
1
1
1
1
1
1
1
1
1
1
1
1
1
1
1
1
1
1
1
1
1
1.00025
6.1992
10.2886
10.3612
10.3953
10.4301
10.4633
10.4927
10.5205
10.5491
10.5796
10.6116
10.6425
10.6699
10.6928
10.7119
10.7302
10.7495
10.7715
10.7979
10.8279
10.8598
10.8915
10.9215
10.9481
10.9693
10.986
10.9999
11.0145
11.0338
11.0583
11.0859
11.1121
11.1345
11.155
11.1755
11.1987
11.2245
11.2495
11.2719
11.2889
11.3007
11.3105
11.3224
11.3403
11.3657
11.3947
11.4205
11.4393
11.4491
11.4509
11.4518
11.4589
11.4761
11.5038
11.5344
11.559
11.5738
11.5804
11.5823
11.5866
11.6002
11.6259
11.6588
11.6873
11.7031
11.7057
11.6987
11.6889
11.6838
11.6885
11.7047
11.7283
11.7519
11.7697
11.7815
11.7878
11.7886
11.7844
11.7797
11.7789
11.7854
11.7981
11.8118
11.8221
11.8269
11.8285
11.8277
11.8259
11.8236
11.8214
11.8191
1
1
1
1
1
1
1
1
1
1
1
1
1
1
1
1
1
1
1
1
1
1
1
1
1
1
1
1
1
1
1
1
1
1
1
1
1
1
1
1
1
1
1
1
1
1
1
1
1
1
1
1
1
1
1
1
1
1
1
1
1
1
1
1
1
1
1
1
1
1
1
1
1
1
1
1
1
1
1
1
1
1
1
1
1
1
1
1
1
1
1
1
1
1
1
1
1
1
1
1
1
5.56961
10.2034
10.3309
10.3733
10.4128
10.4475
10.4776
10.5063
10.5369
10.5692
10.6026
10.6331
10.6587
10.6804
10.7
10.7193
10.7389
10.7609
10.7873
10.8173
10.8495
10.882
10.9128
10.9389
10.9592
10.9748
10.9878
11.0019
11.0213
11.0462
11.0742
11.1005
11.1225
11.1418
11.1615
11.1846
11.2113
11.238
11.2624
11.2795
11.2886
11.2944
11.3031
11.321
11.3497
11.3827
11.4102
11.4265
11.4305
11.4277
11.4275
11.4384
11.4633
11.4975
11.5294
11.5503
11.5591
11.5598
11.5594
11.5652
11.582
11.6106
11.6441
11.6715
11.6852
11.686
11.6788
11.6701
11.666
11.6706
11.6863
11.7095
11.7323
11.749
11.7606
11.7677
11.7699
11.7671
11.7628
11.7612
11.7656
11.7763
11.7891
11.7999
11.8059
11.8084
11.8084
11.8072
11.8052
11.8034
11.8006
1
1
1
1
1
1
1
1
1
1
1
1
1
1
1
1
1
1
1
1
1
1
1
1
1
1
1
1
1
1
1
1
1
1
1
1
1
1
1
1
1
1
1
1
1
1
1
1
1
1
1
1
1
1
1
1
1
1
1
1
1
1
1
1
1
1
1
1
1
1
1
1
1
1
1
1
1
1
1
1
1
1
1
1
1
1
1
1
1
1
1
1
1
1
1
1
1
1
1
1
1
4.91756
10.077
10.3118
10.3571
10.402
10.4372
10.4675
10.4962
10.5265
10.5575
10.5906
10.6212
10.6469
10.6691
10.6893
10.7089
10.7283
10.75
10.7764
10.8065
10.8392
10.8724
10.9032
10.9284
10.9478
10.9629
10.9758
10.9903
11.0103
11.0347
11.0615
11.0868
11.1078
11.127
11.1481
11.1726
11.2003
11.2274
11.2512
11.2663
11.2732
11.2773
11.2855
11.3046
11.3346
11.3678
11.394
11.4076
11.4091
11.4056
11.4077
11.4235
11.4535
11.4902
11.5209
11.5382
11.5419
11.5385
11.5365
11.5441
11.5644
11.5952
11.6278
11.6528
11.6644
11.6642
11.6582
11.6521
11.6496
11.6533
11.6668
11.6884
11.7107
11.7274
11.7397
11.7476
11.7501
11.748
11.7442
11.7426
11.7455
11.7539
11.7649
11.7756
11.7831
11.7875
11.789
11.7886
11.7865
11.7842
11.78
1
1
1
1
1
1
1
1
1
1
1
1
1
1
1
1
1
1
1
1
1
1
1
1
1
1
1
1
1
1
1
1
1
1
1
1
1
1
1
1
1
1
1
1
1
1
1
1
1
1
1
1
1
1
1
1
1
1
1
1
1
1
1
1
1
1
1
1
1
1
1
1
1
1
1
1
1
1
1
1
1
1
1
1
1
1
1
1
1
1
1
1
1
1
1
1
1
1
1
1
1
4.27046
9.89521
10.302
10.344
10.389
10.4244
10.4562
10.4869
10.517
10.5472
10.5803
10.6113
10.6372
10.6596
10.6797
10.699
10.7179
10.7395
10.7662
10.7969
10.8298
10.8625
10.892
10.9155
10.9345
10.9504
10.9646
10.9809
11.0012
11.0235
11.0471
11.07
11.09
11.1112
11.136
11.1631
11.1913
11.2167
11.237
11.2488
11.2547
11.26
11.2709
11.2918
11.3208
11.3502