/*--------------------------------*- C++ -*----------------------------------*\
  =========                 |
  \\      /  F ield         | OpenFOAM: The Open Source CFD Toolbox
   \\    /   O peration     | Website:  https://openfoam.org
    \\  /    A nd           | Version:  7
     \\/     M anipulation  |
\*---------------------------------------------------------------------------*/
FoamFile
{
    version     2.0;
    format      ascii;
    class       volScalarField;
    location    "2.2";
    object      rho;
}
// * * * * * * * * * * * * * * * * * * * * * * * * * * * * * * * * * * * * * //

dimensions      [1 -3 0 0 0 0 0];

internalField   nonuniform List<scalar> 
258048
(
1.40001
1.40001
1.40001
1.40001
1.40001
1.40001
1.40001
1.40001
1.40001
1.40001
1.40001
1.40001
1.40001
1.40001
1.40001
1.40001
1.40001
1.40001
1.40001
1.40001
1.40001
1.40001
1.40001
1.40001
1.40001
1.40001
1.40001
1.40001
1.40001
1.40001
1.40001
1.40001
1.40001
1.40001
1.40001
1.40001
1.40001
1.40001
1.40001
1.40001
1.40001
1.40001
1.40001
1.40001
1.40001
1.40001
1.40001
1.40001
1.40001
1.40001
1.40001
1.40001
1.40001
1.40001
1.40001
1.40001
1.40001
1.40001
1.40001
1.40001
1.40001
1.40001
1.40001
1.40001
1.40001
1.40001
1.40001
1.40001
1.40001
1.40001
1.40001
1.40001
1.40001
1.40001
1.40001
1.40001
1.40001
1.40001
1.40001
1.40001
1.40001
1.40001
1.40001
1.40001
1.40001
1.40001
1.40001
1.40001
1.40001
1.40001
1.40001
1.40001
1.40001
1.40001
1.40001
1.40001
1.40001
1.40001
1.40001
1.54075
4.33095
5.43986
5.43279
5.43904
5.44578
5.45552
5.46812
5.48169
5.49483
5.50684
5.51849
5.53108
5.54484
5.55891
5.57204
5.5829
5.58984
5.59232
5.59235
5.59608
5.60736
5.62332
5.64086
5.65518
5.66356
5.66807
5.67193
5.6826
5.70012
5.71832
5.73292
5.73944
5.73645
5.72807
5.72085
5.7201
5.72887
5.74758
5.7709
5.79249
5.80734
5.81349
5.81086
5.80665
5.80657
5.81436
5.83019
5.84706
5.85734
5.85841
5.85538
5.85413
5.86141
5.87896
5.90001
5.9164
5.92203
5.91825
5.91243
5.9099
5.91436
5.92329
5.92982
5.92997
5.92593
5.92273
5.92437
5.93309
5.94661
5.95889
5.96593
5.96837
5.97005
5.97258
5.97507
5.97616
5.97516
5.97366
5.97333
5.97546
5.98008
5.9849
5.98753
5.98791
5.98725
5.98407
5.97586
5.96092
5.94065
5.92012
5.90489
5.89747
1.40001
1.40001
1.40001
1.40001
1.40001
1.40001
1.40001
1.40001
1.40001
1.40001
1.40001
1.40001
1.40001
1.40001
1.40001
1.40001
1.40001
1.40001
1.40001
1.40001
1.40001
1.40001
1.40001
1.40001
1.40001
1.40001
1.40001
1.40001
1.40001
1.40001
1.40001
1.40001
1.40001
1.40001
1.40001
1.40001
1.40001
1.40001
1.40001
1.40001
1.40001
1.40001
1.40001
1.40001
1.40001
1.40001
1.40001
1.40001
1.40001
1.40001
1.40001
1.40001
1.40001
1.40001
1.40001
1.40001
1.40001
1.40001
1.40001
1.40001
1.40001
1.40001
1.40001
1.40001
1.40001
1.40001
1.40001
1.40001
1.40001
1.40001
1.40001
1.40001
1.40001
1.40001
1.40001
1.40001
1.40001
1.40001
1.40001
1.40001
1.40001
1.40001
1.40001
1.40001
1.40001
1.40001
1.40001
1.40001
1.40001
1.40001
1.40001
1.40001
1.40001
1.40001
1.40001
1.40001
1.40001
1.40001
1.40001
1.53557
4.3132
5.42881
5.43328
5.43915
5.44672
5.45701
5.4695
5.48247
5.49547
5.50807
5.5199
5.53154
5.54377
5.55691
5.57023
5.58234
5.59108
5.59495
5.59511
5.59681
5.60536
5.62008
5.63745
5.65323
5.66406
5.67111
5.67579
5.68413
5.69887
5.71575
5.73011
5.73752
5.73642
5.72971
5.72333
5.72229
5.73027
5.74799
5.77059
5.79172
5.80653
5.81295
5.81088
5.80707
5.80751
5.81569
5.83135
5.84764
5.8573
5.85809
5.85511
5.85403
5.86145
5.87906
5.90001
5.91611
5.92157
5.91802
5.91254
5.9102
5.91466
5.92339
5.92973
5.92985
5.92583
5.92263
5.92429
5.93315
5.94692
5.95926
5.96594
5.9678
5.96901
5.97152
5.97464
5.97647
5.97608
5.97458
5.97357
5.97479
5.97901
5.98432
5.98763
5.98819
5.98724
5.98363
5.97528
5.96063
5.94079
5.92046
5.90479
5.89664
1.40001
1.40001
1.40001
1.40001
1.40001
1.40001
1.40001
1.40001
1.40001
1.40001
1.40001
1.40001
1.40001
1.40001
1.40001
1.40001
1.40001
1.40001
1.40001
1.40001
1.40001
1.40001
1.40001
1.40001
1.40001
1.40001
1.40001
1.40001
1.40001
1.40001
1.40001
1.40001
1.40001
1.40001
1.40001
1.40001
1.40001
1.40001
1.40001
1.40001
1.40001
1.40001
1.40001
1.40001
1.40001
1.40001
1.40001
1.40001
1.40001
1.40001
1.40001
1.40001
1.40001
1.40001
1.40001
1.40001
1.40001
1.40001
1.40001
1.40001
1.40001
1.40001
1.40001
1.40001
1.40001
1.40001
1.40001
1.40001
1.40001
1.40001
1.40001
1.40001
1.40001
1.40001
1.40001
1.40001
1.40001
1.40001
1.40001
1.40001
1.40001
1.40001
1.40001
1.40001
1.40001
1.40001
1.40001
1.40001
1.40001
1.40001
1.40001
1.40001
1.40001
1.40001
1.40001
1.40001
1.40001
1.40001
1.40001
1.52699
4.2884
5.42037
5.43089
5.4386
5.44817
5.4589
5.47054
5.48268
5.49557
5.50906
5.52165
5.53251
5.54267
5.55406
5.56721
5.5806
5.59167
5.59786
5.59941
5.59987
5.60507
5.61667
5.63258
5.64917
5.66299
5.67334
5.68038
5.68759
5.69928
5.71298
5.72515
5.73244
5.73347
5.72938
5.72522
5.72489
5.73234
5.74876
5.77005
5.79009
5.80419
5.81034
5.80884
5.80585
5.80721
5.81639
5.83231
5.84787
5.85654
5.85687
5.85408
5.8536
5.86145
5.87912
5.89977
5.91531
5.92046
5.91728
5.91238
5.91047
5.91503
5.92343
5.9294
5.92944
5.92555
5.92242
5.92403
5.9329
5.94688
5.95937
5.96585
5.96708
5.96751
5.96957
5.97303
5.97592
5.97669
5.97546
5.97387
5.97393
5.9773
5.98307
5.98734
5.98836
5.98723
5.98314
5.97446
5.95995
5.94055
5.92061
5.90467
5.89565
1.40001
1.40001
1.40001
1.40001
1.40001
1.40001
1.40001
1.40001
1.40001
1.40001
1.40001
1.40001
1.40001
1.40001
1.40001
1.40001
1.40001
1.40001
1.40001
1.40001
1.40001
1.40001
1.40001
1.40001
1.40001
1.40001
1.40001
1.40001
1.40001
1.40001
1.40001
1.40001
1.40001
1.40001
1.40001
1.40001
1.40001
1.40001
1.40001
1.40001
1.40001
1.40001
1.40001
1.40001
1.40001
1.40001
1.40001
1.40001
1.40001
1.40001
1.40001
1.40001
1.40001
1.40001
1.40001
1.40001
1.40001
1.40001
1.40001
1.40001
1.40001
1.40001
1.40001
1.40001
1.40001
1.40001
1.40001
1.40001
1.40001
1.40001
1.40001
1.40001
1.40001
1.40001
1.40001
1.40001
1.40001
1.40001
1.40001
1.40001
1.40001
1.40001
1.40001
1.40001
1.40001
1.40001
1.40001
1.40001
1.40001
1.40001
1.40001
1.40001
1.40001
1.40001
1.40001
1.40001
1.40001
1.40001
1.40001
1.51685
4.26049
5.4115
5.4298
5.43946
5.4501
5.46017
5.4709
5.48251
5.49543
5.50962
5.52319
5.53354
5.54203
5.55118
5.56364
5.57843
5.59217
5.60128
5.6043
5.60362
5.60523
5.61288
5.62689
5.64479
5.6624
5.67612
5.68508
5.69087
5.69857
5.70906
5.71956
5.72769
5.73102
5.7302
5.72822
5.72831
5.73483
5.74962
5.76942
5.78836
5.80187
5.80775
5.80687
5.80503
5.80781
5.81806
5.83368
5.84791
5.85526
5.85542
5.85317
5.85377
5.86235
5.87963
5.89928
5.9138
5.91872
5.91632
5.91239
5.91117
5.91568
5.92328
5.92851
5.92853
5.92519
5.92259
5.9244
5.93314
5.94681
5.95897
5.96514
5.96605
5.96605
5.96782
5.97161
5.9757
5.97748
5.97634
5.97403
5.9729
5.97552
5.98164
5.98677
5.98834
5.98697
5.98239
5.97342
5.95909
5.94024
5.92065
5.90441
5.89457
1.40001
1.40001
1.40001
1.40001
1.40001
1.40001
1.40001
1.40001
1.40001
1.40001
1.40001
1.40001
1.40001
1.40001
1.40001
1.40001
1.40001
1.40001
1.40001
1.40001
1.40001
1.40001
1.40001
1.40001
1.40001
1.40001
1.40001
1.40001
1.40001
1.40001
1.40001
1.40001
1.40001
1.40001
1.40001
1.40001
1.40001
1.40001
1.40001
1.40001
1.40001
1.40001
1.40001
1.40001
1.40001
1.40001
1.40001
1.40001
1.40001
1.40001
1.40001
1.40001
1.40001
1.40001
1.40001
1.40001
1.40001
1.40001
1.40001
1.40001
1.40001
1.40001
1.40001
1.40001
1.40001
1.40001
1.40001
1.40001
1.40001
1.40001
1.40001
1.40001
1.40001
1.40001
1.40001
1.40001
1.40001
1.40001
1.40001
1.40001
1.40001
1.40001
1.40001
1.40001
1.40001
1.40001
1.40001
1.40001
1.40001
1.40001
1.40001
1.40001
1.40001
1.40001
1.40001
1.40001
1.40001
1.40001
1.40001
1.5044
4.22983
5.40477
5.42917
5.44104
5.45132
5.46079
5.47084
5.48211
5.49507
5.50953
5.52379
5.5344
5.54213
5.5496
5.5607
5.57611
5.59171
5.60326
5.6084
5.6076
5.60657
5.61054
5.6218
5.6408
5.66167
5.67798
5.68831
5.69337
5.69754
5.705
5.71401
5.72284
5.7287
5.73107
5.73111
5.73184
5.73746
5.75049
5.76855
5.78618
5.79885
5.80437
5.8044
5.80419
5.80876
5.82005
5.83477
5.84717
5.85306
5.85349
5.85241
5.85469
5.86424
5.88055
5.89834
5.91132
5.91609
5.91491
5.91247
5.91228
5.91654
5.92273
5.92677
5.92672
5.92437
5.92295
5.92542
5.93395
5.94656
5.95773
5.96347
5.96454
5.96469
5.96651
5.97058
5.97535
5.97775
5.97667
5.97369
5.97166
5.97381
5.98007
5.98585
5.98792
5.98636
5.98134
5.9722
5.95807
5.93962
5.92034
5.90396
5.89368
1.40001
1.40001
1.40001
1.40001
1.40001
1.40001
1.40001
1.40001
1.40001
1.40001
1.40001
1.40001
1.40001
1.40001
1.40001
1.40001
1.40001
1.40001
1.40001
1.40001
1.40001
1.40001
1.40001
1.40001
1.40001
1.40001
1.40001
1.40001
1.40001
1.40001
1.40001
1.40001
1.40001
1.40001
1.40001
1.40001
1.40001
1.40001
1.40001
1.40001
1.40001
1.40001
1.40001
1.40001
1.40001
1.40001
1.40001
1.40001
1.40001
1.40001
1.40001
1.40001
1.40001
1.40001
1.40001
1.40001
1.40001
1.40001
1.40001
1.40001
1.40001
1.40001
1.40001
1.40001
1.40001
1.40001
1.40001
1.40001
1.40001
1.40001
1.40001
1.40001
1.40001
1.40001
1.40001
1.40001
1.40001
1.40001
1.40001
1.40001
1.40001
1.40001
1.40001
1.40001
1.40001
1.40001
1.40001
1.40001
1.40001
1.40001
1.40001
1.40001
1.40001
1.40001
1.40001
1.40001
1.40001
1.40001
1.40001
1.47748
4.1892
5.40631
5.43282
5.44202
5.45123
5.45983
5.46963
5.48115
5.49426
5.5087
5.52339
5.5349
5.54287
5.54961
5.55925
5.57413
5.59058
5.60378
5.61082
5.61068
5.60846
5.61007
5.61889
5.63775
5.65988
5.67759
5.6888
5.69385
5.69597
5.7011
5.70916
5.71878
5.72683
5.73175
5.73379
5.73521
5.73999
5.75128
5.76735
5.78335
5.7951
5.80074
5.80209
5.80414
5.81072
5.82213
5.83504
5.84509
5.84981
5.85102
5.85211
5.85684
5.86708
5.88161
5.89652
5.90738
5.9123
5.91312
5.91284
5.91405
5.91768
5.92167
5.92398
5.92389
5.92297
5.92354
5.92728
5.93546
5.94619
5.95552
5.96068
5.96252
5.96376
5.9662
5.9704
5.97491
5.97715
5.976
5.97272
5.97035
5.97233
5.97848
5.9845
5.98697
5.98534
5.98011
5.97093
5.95696
5.93864
5.91952
5.90324
5.89313
1.40001
1.40001
1.40001
1.40001
1.40001
1.40001
1.40001
1.40001
1.40001
1.40001
1.40001
1.40001
1.40001
1.40001
1.40001
1.40001
1.40001
1.40001
1.40001
1.40001
1.40001
1.40001
1.40001
1.40001
1.40001
1.40001
1.40001
1.40001
1.40001
1.40001
1.40001
1.40001
1.40001
1.40001
1.40001
1.40001
1.40001
1.40001
1.40001
1.40001
1.40001
1.40001
1.40001
1.40001
1.40001
1.40001
1.40001
1.40001
1.40001
1.40001
1.40001
1.40001
1.40001
1.40001
1.40001
1.40001
1.40001
1.40001
1.40001
1.40001
1.40001
1.40001
1.40001
1.40001
1.40001
1.40001
1.40001
1.40001
1.40001
1.40001
1.40001
1.40001
1.40001
1.40001
1.40001
1.40001
1.40001
1.40001
1.40001
1.40001
1.40001
1.40001
1.40001
1.40001
1.40001
1.40001
1.40001
1.40001
1.40001
1.40001
1.40001
1.40001
1.40001
1.40001
1.40001
1.40001
1.40001
1.40001
1.40001
1.43282
4.13642
5.41708
5.43685
5.442
5.4501
5.45881
5.46897
5.48043
5.4932
5.50718
5.522
5.53463
5.54362
5.5506
5.55923
5.57281
5.58888
5.60291
5.61123
5.61265
5.61074
5.61105
5.61807
5.63523
5.65663
5.67465
5.68656
5.69249
5.69441
5.69847
5.70583
5.71573
5.72499
5.73179
5.73576
5.73822
5.74248
5.75202
5.76585
5.77989
5.79071
5.797
5.80053
5.80522
5.81324
5.82364
5.83408
5.84158
5.84566
5.84851
5.85271
5.85994
5.87023
5.88223
5.89347
5.90202
5.90754
5.9111
5.91388
5.9166
5.91887
5.92
5.92013
5.92016
5.92118
5.92423
5.92974
5.93741
5.94561
5.95246
5.957
5.96014
5.96329
5.96689
5.97107
5.9745
5.97569
5.97422
5.97106
5.96898
5.97103
5.97685
5.98278
5.98548
5.98399
5.97885
5.96971
5.95575
5.93735
5.91819
5.90216
5.89287
1.40001
1.40001
1.40001
1.40001
1.40001
1.40001
1.40001
1.40001
1.40001
1.40001
1.40001
1.40001
1.40001
1.40001
1.40001
1.40001
1.40001
1.40001
1.40001
1.40001
1.40001
1.40001
1.40001
1.40001
1.40001
1.40001
1.40001
1.40001
1.40001
1.40001
1.40001
1.40001
1.40001
1.40001
1.40001
1.40001
1.40001
1.40001
1.40001
1.40001
1.40001
1.40001
1.40001
1.40001
1.40001
1.40001
1.40001
1.40001
1.40001
1.40001
1.40001
1.40001
1.40001
1.40001
1.40001
1.40001
1.40001
1.40001
1.40001
1.40001
1.40001
1.40001
1.40001
1.40001
1.40001
1.40001
1.40001
1.40001
1.40001
1.40001
1.40001
1.40001
1.40001
1.40001
1.40001
1.40001
1.40001
1.40001
1.40001
1.40001
1.40001
1.40001
1.40001
1.40001
1.40001
1.40001
1.40001
1.40001
1.40001
1.40001
1.40001
1.40001
1.40001
1.40001
1.40001
1.40001
1.40001
1.40001
1.40001
1.40185
4.0758
5.4261
5.43594
5.44004
5.44862
5.45822
5.46871
5.47967
5.49169
5.50507
5.51964
5.53325
5.54348
5.55138
5.55976
5.57209
5.58714
5.60113
5.61031
5.61353
5.61281
5.61292
5.61851
5.63282
5.65231
5.66992
5.68259
5.69
5.69329
5.6975
5.70429
5.71361
5.72307
5.73107
5.7368
5.74067
5.74478
5.75258
5.76398
5.77587
5.78595
5.7935
5.79986
5.80718
5.81564
5.82417
5.83157
5.83686
5.84105
5.84665
5.85438
5.86354
5.87304
5.88183
5.88917
5.8957
5.90224
5.90914
5.9155
5.91926
5.91953
5.91761
5.91572
5.91588
5.91898
5.92504
5.93247
5.93936
5.94467
5.94883
5.95293
5.95774
5.96298
5.96808
5.97216
5.97404
5.97374
5.97166
5.96879
5.9674
5.9696
5.975
5.98066
5.98357
5.98252
5.97763
5.96856
5.95438
5.93565
5.91635
5.9008
5.89287
1.40001
1.40001
1.40001
1.40001
1.40001
1.40001
1.40001
1.40001
1.40001
1.40001
1.40001
1.40001
1.40001
1.40001
1.40001
1.40001
1.40001
1.40001
1.40001
1.40001
1.40001
1.40001
1.40001
1.40001
1.40001
1.40001
1.40001
1.40001
1.40001
1.40001
1.40001
1.40001
1.40001
1.40001
1.40001
1.40001
1.40001
1.40001
1.40001
1.40001
1.40001
1.40001
1.40001
1.40001
1.40001
1.40001
1.40001
1.40001
1.40001
1.40001
1.40001
1.40001
1.40001
1.40001
1.40001
1.40001
1.40001
1.40001
1.40001
1.40001
1.40001
1.40001
1.40001
1.40001
1.40001
1.40001
1.40001
1.40001
1.40001
1.40001
1.40001
1.40001
1.40001
1.40001
1.40001
1.40001
1.40001
1.40001
1.40001
1.40001
1.40001
1.40001
1.40001
1.40001
1.40001
1.40001
1.40001
1.40001
1.40001
1.40001
1.40001
1.40001
1.40001
1.40001
1.40001
1.40001
1.40001
1.40001
1.40001
1.40003
3.99415
5.42376
5.43432
5.43879
5.44846
5.4585
5.46863
5.47857
5.48992
5.50298
5.51696
5.53066
5.54183
5.55064
5.5595
5.57118
5.58544
5.59928
5.60908
5.61364
5.6142
5.61469
5.61909
5.63027
5.64728
5.66436
5.67805
5.68725
5.69256
5.69754
5.70399
5.71221
5.72114
5.72982
5.73713
5.74259
5.74673
5.75276
5.76166
5.7715
5.78129
5.79077
5.80019
5.80949
5.8173
5.82323
5.82755
5.83139
5.83681
5.84598
5.85707
5.86722
5.87466
5.8799
5.8839
5.88904
5.89714
5.90783
5.9172
5.92114
5.91937
5.9146
5.91108
5.91159
5.91698
5.92615
5.93514
5.94059
5.94313
5.94517
5.94891
5.95538
5.96291
5.96944
5.97304
5.97345
5.97172
5.96885
5.96625
5.96564
5.96786
5.97268
5.9781
5.98141
5.98107
5.97661
5.96742
5.95272
5.93343
5.914
5.89914
5.89287
1.40001
1.40001
1.40001
1.40001
1.40001
1.40001
1.40001
1.40001
1.40001
1.40001
1.40001
1.40001
1.40001
1.40001
1.40001
1.40001
1.40001
1.40001
1.40001
1.40001
1.40001
1.40001
1.40001
1.40001
1.40001
1.40001
1.40001
1.40001
1.40001
1.40001
1.40001
1.40001
1.40001
1.40001
1.40001
1.40001
1.40001
1.40001
1.40001
1.40001
1.40001
1.40001
1.40001
1.40001
1.40001
1.40001
1.40001
1.40001
1.40001
1.40001
1.40001
1.40001
1.40001
1.40001
1.40001
1.40001
1.40001
1.40001
1.40001
1.40001
1.40001
1.40001
1.40001
1.40001
1.40001
1.40001
1.40001
1.40001
1.40001
1.40001
1.40001
1.40001
1.40001
1.40001
1.40001
1.40001
1.40001
1.40001
1.40001
1.40001
1.40001
1.40001
1.40001
1.40001
1.40001
1.40001
1.40001
1.40001
1.40001
1.40001
1.40001
1.40001
1.40001
1.40001
1.40001
1.40001
1.40001
1.40001
1.40001
1.40001
3.90391
5.4209
5.43221
5.43711
5.44753
5.45764
5.46749
5.47714
5.48848
5.50162
5.51508
5.52784
5.53878
5.54804
5.55753
5.56922
5.58349
5.59774
5.60817
5.61353
5.61491
5.61556
5.61897
5.62751
5.64224
5.65902
5.67381
5.68478
5.69207
5.69801
5.70429
5.71132
5.71933
5.72828
5.73691
5.7437
5.74783
5.75235
5.75877
5.76706
5.77728
5.78909
5.80117
5.81133
5.81755
5.82042
5.82256
5.82588
5.83392
5.84684
5.86033
5.86985
5.87456
5.87645
5.87819
5.88298
5.89347
5.90756
5.91838
5.92149
5.91758
5.91076
5.90661
5.9079
5.91587
5.92764
5.93678
5.94044
5.94091
5.94161
5.94539
5.95332
5.96278
5.97016
5.97331
5.97258
5.96974
5.96633
5.96386
5.96364
5.96558
5.96965
5.97508
5.97914
5.97982
5.97592
5.96622
5.95069
5.93069
5.91123
5.89726
5.89268
1.40001
1.40001
1.40001
1.40001
1.40001
1.40001
1.40001
1.40001
1.40001
1.40001
1.40001
1.40001
1.40001
1.40001
1.40001
1.40001
1.40001
1.40001
1.40001
1.40001
1.40001
1.40001
1.40001
1.40001
1.40001
1.40001
1.40001
1.40001
1.40001
1.40001
1.40001
1.40001
1.40001
1.40001
1.40001
1.40001
1.40001
1.40001
1.40001
1.40001
1.40001
1.40001
1.40001
1.40001
1.40001
1.40001
1.40001
1.40001
1.40001
1.40001
1.40001
1.40001
1.40001
1.40001
1.40001
1.40001
1.40001
1.40001
1.40001
1.40001
1.40001
1.40001
1.40001
1.40001
1.40001
1.40001
1.40001
1.40001
1.40001
1.40001
1.40001
1.40001
1.40001
1.40001
1.40001
1.40001
1.40001
1.40001
1.40001
1.40001
1.40001
1.40001
1.40001
1.40001
1.40001
1.40001
1.40001
1.40001
1.40001
1.40001
1.40001
1.40001
1.40001
1.40001
1.40001
1.40001
1.40001
1.40001
1.40001
1.40001
3.8065
5.41664
5.43056
5.43422
5.4442
5.45434
5.46475
5.47518
5.48712
5.50073
5.51415
5.52598
5.53559
5.54425
5.55385
5.5658
5.58087
5.59626
5.60771
5.61366
5.61516
5.61542
5.61781
5.62449
5.63768
5.65457
5.67033
5.68287
5.69166
5.6984
5.70463
5.71082
5.71807
5.72697
5.73635
5.74391
5.74793
5.75095
5.75547
5.76301
5.7743
5.78829
5.80198
5.81198
5.81605
5.81639
5.81725
5.82137
5.8331
5.84916
5.86298
5.87048
5.87227
5.87167
5.87244
5.87844
5.89199
5.9079
5.91844
5.91967
5.91357
5.90589
5.90244
5.90575
5.91625
5.929
5.93684
5.93855
5.93793
5.93836
5.94286
5.95197
5.9624
5.96989
5.97253
5.97112
5.96781
5.96429
5.96197
5.96157
5.9627
5.96599
5.97164
5.97675
5.97871
5.97533
5.96499
5.94834
5.92752
5.90811
5.89515
5.892
1.40001
1.40001
1.40001
1.40001
1.40001
1.40001
1.40001
1.40001
1.40001
1.40001
1.40001
1.40001
1.40001
1.40001
1.40001
1.40001
1.40001
1.40001
1.40001
1.40001
1.40001
1.40001
1.40001
1.40001
1.40001
1.40001
1.40001
1.40001
1.40001
1.40001
1.40001
1.40001
1.40001
1.40001
1.40001
1.40001
1.40001
1.40001
1.40001
1.40001
1.40001
1.40001
1.40001
1.40001
1.40001
1.40001
1.40001
1.40001
1.40001
1.40001
1.40001
1.40001
1.40001
1.40001
1.40001
1.40001
1.40001
1.40001
1.40001
1.40001
1.40001
1.40001
1.40001
1.40001
1.40001
1.40001
1.40001
1.40001
1.40001
1.40001
1.40001
1.40001
1.40001
1.40001
1.40001
1.40001
1.40001
1.40001
1.40001
1.40001
1.40001
1.40001
1.40001
1.40001
1.40001
1.40001
1.40001
1.40001
1.40001
1.40001
1.40001
1.40001
1.40001
1.40001
1.40001
1.40001
1.40001
1.40001
1.40001
1.40001
3.70146
5.40892
5.43081
5.43216
5.4401
5.44937
5.4605
5.47217
5.48535
5.49995
5.51368
5.52511
5.53329
5.54036
5.54935
5.56159
5.5777
5.59453
5.60733
5.61394
5.61521
5.61478
5.61611
5.62146
5.63389
5.65113
5.66755
5.68125
5.69113
5.69843
5.70467
5.71051
5.71746
5.72624
5.73574
5.74334
5.74692
5.7487
5.75221
5.75995
5.7727
5.78819
5.80222
5.81091
5.81269
5.81171
5.81244
5.81921
5.83462
5.85188
5.8639
5.86868
5.86791
5.86591
5.86738
5.87637
5.89256
5.90839
5.91726
5.91569
5.90753
5.90033
5.89926
5.90571
5.91823
5.92985
5.93533
5.93501
5.93384
5.93503
5.94121
5.95148
5.96199
5.9687
5.97047
5.96884
5.9658
5.96275
5.96068
5.95958
5.95938
5.96189
5.96789
5.97421
5.97758
5.97474
5.96377
5.94576
5.92397
5.90465
5.89276
5.89068
1.40001
1.40001
1.40001
1.40001
1.40001
1.40001
1.40001
1.40001
1.40001
1.40001
1.40001
1.40001
1.40001
1.40001
1.40001
1.40001
1.40001
1.40001
1.40001
1.40001
1.40001
1.40001
1.40001
1.40001
1.40001
1.40001
1.40001
1.40001
1.40001
1.40001
1.40001
1.40001
1.40001
1.40001
1.40001
1.40001
1.40001
1.40001
1.40001
1.40001
1.40001
1.40001
1.40001
1.40001
1.40001
1.40001
1.40001
1.40001
1.40001
1.40001
1.40001
1.40001
1.40001
1.40001
1.40001
1.40001
1.40001
1.40001
1.40001
1.40001
1.40001
1.40001
1.40001
1.40001
1.40001
1.40001
1.40001
1.40001
1.40001
1.40001
1.40001
1.40001
1.40001
1.40001
1.40001
1.40001
1.40001
1.40001
1.40001
1.40001
1.40001
1.40001
1.40001
1.40001
1.40001
1.40001
1.40001
1.40001
1.40001
1.40001
1.40001
1.40001
1.40001
1.40001
1.40001
1.40001
1.40001
1.40001
1.40001
1.40001
3.58771
5.39449
5.43195
5.43281
5.43894
5.446
5.45616
5.46832
5.48285
5.49884
5.51327
5.5248
5.53206
5.53728
5.54494
5.55701
5.57404
5.59242
5.60665
5.61405
5.61522
5.61416
5.61457
5.61896
5.63109
5.64862
5.66526
5.67942
5.68985
5.69757
5.7041
5.71016
5.71729
5.72596
5.73512
5.74215
5.74486
5.74593
5.74937
5.75827
5.77226
5.78815
5.80122
5.80783
5.80802
5.80676
5.80905
5.81953
5.8374
5.85377
5.86331
5.86481
5.86205
5.85992
5.86358
5.87625
5.89427
5.90886
5.91456
5.90978
5.9004
5.89476
5.89722
5.90747
5.92125
5.93058
5.93257
5.93043
5.92891
5.9317
5.94022
5.95156
5.96141
5.96655
5.96723
5.96567
5.96348
5.96156
5.95981
5.95763
5.95588
5.95752
5.96383
5.97141
5.97625
5.97407
5.96257
5.94314
5.92027
5.901
5.89018
5.88885
1.40001
1.40001
1.40001
1.40001
1.40001
1.40001
1.40001
1.40001
1.40001
1.40001
1.40001
1.40001
1.40001
1.40001
1.40001
1.40001
1.40001
1.40001
1.40001
1.40001
1.40001
1.40001
1.40001
1.40001
1.40001
1.40001
1.40001
1.40001
1.40001
1.40001
1.40001
1.40001
1.40001
1.40001
1.40001
1.40001
1.40001
1.40001
1.40001
1.40001
1.40001
1.40001
1.40001
1.40001
1.40001
1.40001
1.40001
1.40001
1.40001
1.40001
1.40001
1.40001
1.40001
1.40001
1.40001
1.40001
1.40001
1.40001
1.40001
1.40001
1.40001
1.40001
1.40001
1.40001
1.40001
1.40001
1.40001
1.40001
1.40001
1.40001
1.40001
1.40001
1.40001
1.40001
1.40001
1.40001
1.40001
1.40001
1.40001
1.40001
1.40001
1.40001
1.40001
1.40001
1.40001
1.40001
1.40001
1.40001
1.40001
1.40001
1.40001
1.40001
1.40001
1.40001
1.40001
1.40001
1.40001
1.40001
1.40001
1.40001
3.46438
5.37018
5.43161
5.43554
5.44125
5.44583
5.45356
5.46472
5.47991
5.49722
5.51263
5.52467
5.53165
5.53536
5.54131
5.5526
5.57007
5.58978
5.60541
5.61374
5.61508
5.6137
5.61354
5.61728
5.62926
5.64675
5.66325
5.67728
5.68769
5.69571
5.70286
5.70971
5.71734
5.72583
5.73425
5.7402
5.74196
5.74307
5.74746
5.75784
5.77236
5.78744
5.79867
5.80325
5.80284
5.80269
5.80782
5.82179
5.84014
5.85437
5.86093
5.85966
5.85558
5.85469
5.86133
5.87722
5.89562
5.90819
5.90988
5.90228
5.893
5.89013
5.89645
5.91029
5.92405
5.93074
5.92901
5.92496
5.9235
5.92839
5.93946
5.95173
5.96048
5.96372
5.96323
5.96174
5.96082
5.96067
5.95934
5.95592
5.95248
5.95303
5.95957
5.96841
5.9746
5.97308
5.96115
5.94039
5.91643
5.8971
5.88727
5.88642
1.40001
1.40001
1.40001
1.40001
1.40001
1.40001
1.40001
1.40001
1.40001
1.40001
1.40001
1.40001
1.40001
1.40001
1.40001
1.40001
1.40001
1.40001
1.40001
1.40001
1.40001
1.40001
1.40001
1.40001
1.40001
1.40001
1.40001
1.40001
1.40001
1.40001
1.40001
1.40001
1.40001
1.40001
1.40001
1.40001
1.40001
1.40001
1.40001
1.40001
1.40001
1.40001
1.40001
1.40001
1.40001
1.40001
1.40001
1.40001
1.40001
1.40001
1.40001
1.40001
1.40001
1.40001
1.40001
1.40001
1.40001
1.40001
1.40001
1.40001
1.40001
1.40001
1.40001
1.40001
1.40001
1.40001
1.40001
1.40001
1.40001
1.40001
1.40001
1.40001
1.40001
1.40001
1.40001
1.40001
1.40001
1.40001
1.40001
1.40001
1.40001
1.40001
1.40001
1.40001
1.40001
1.40001
1.40001
1.40001
1.40001
1.40001
1.40001
1.40001
1.40001
1.40001
1.40001
1.40001
1.40001
1.40001
1.40001
1.40001
3.3319
5.33811
5.42776
5.43809
5.44543
5.44825
5.45321
5.46218
5.47701
5.49525
5.51172
5.52456
5.53166
5.53422
5.53852
5.54874
5.56627
5.58683
5.6035
5.61285
5.61477
5.61351
5.61323
5.61679
5.62858
5.64552
5.66143
5.67493
5.68501
5.69319
5.70098
5.70885
5.71709
5.72525
5.73268
5.73755
5.73879
5.74065
5.74654
5.75799
5.77226
5.78557
5.7947
5.79808
5.79803
5.80014
5.80864
5.82465
5.84178
5.85333
5.85664
5.85383
5.84972
5.85097
5.8608
5.87846
5.89558
5.90543
5.9036
5.89434
5.88634
5.88699
5.89731
5.91345
5.92581
5.92956
5.92512
5.9194
5.91827
5.92526
5.93859
5.95151
5.95883
5.96029
5.95882
5.95736
5.95794
5.9597
5.95875
5.95421
5.94908
5.94855
5.95524
5.96517
5.97253
5.97159
5.95933
5.93745
5.91258
5.89316
5.88416
5.88358
1.40001
1.40001
1.40001
1.40001
1.40001
1.40001
1.40001
1.40001
1.40001
1.40001
1.40001
1.40001
1.40001
1.40001
1.40001
1.40001
1.40001
1.40001
1.40001
1.40001
1.40001
1.40001
1.40001
1.40001
1.40001
1.40001
1.40001
1.40001
1.40001
1.40001
1.40001
1.40001
1.40001
1.40001
1.40001
1.40001
1.40001
1.40001
1.40001
1.40001
1.40001
1.40001
1.40001
1.40001
1.40001
1.40001
1.40001
1.40001
1.40001
1.40001
1.40001
1.40001
1.40001
1.40001
1.40001
1.40001
1.40001
1.40001
1.40001
1.40001
1.40001
1.40001
1.40001
1.40001
1.40001
1.40001
1.40001
1.40001
1.40001
1.40001
1.40001
1.40001
1.40001
1.40001
1.40001
1.40001
1.40001
1.40001
1.40001
1.40001
1.40001
1.40001
1.40001
1.40001
1.40001
1.40001
1.40001
1.40001
1.40001
1.40001
1.40001
1.40001
1.40001
1.40001
1.40001
1.40001
1.40001
1.40001
1.40001
1.40001
3.19154
5.30338
5.42123
5.43802
5.44879
5.45189
5.45473
5.46081
5.47429
5.49312
5.51062
5.52437
5.53171
5.53342
5.53629
5.54541
5.56287
5.58381
5.60106
5.61116
5.61388
5.61313
5.61325
5.61717
5.6289
5.64507
5.65999
5.67266
5.68221
5.69047
5.69878
5.70746
5.71611
5.72387
5.73028
5.73444
5.73609
5.73916
5.74635
5.75806
5.77121
5.7825
5.78981
5.79287
5.79452
5.79959
5.811
5.82688
5.84164
5.8501
5.85093
5.84797
5.84562
5.84949
5.86173
5.87909
5.89353
5.89964
5.89551
5.88665
5.88137
5.88573
5.89931
5.91567
5.92607
5.92688
5.92076
5.91425
5.91391
5.92259
5.93722
5.95011
5.95612
5.95625
5.95418
5.95289
5.95498
5.95835
5.95769
5.95231
5.94579
5.94434
5.95106
5.9618
5.97003
5.9695
5.957
5.93427
5.90874
5.88929
5.88093
5.88046
1.40001
1.40001
1.40001
1.40001
1.40001
1.40001
1.40001
1.40001
1.40001
1.40001
1.40001
1.40001
1.40001
1.40001
1.40001
1.40001
1.40001
1.40001
1.40001
1.40001
1.40001
1.40001
1.40001
1.40001
1.40001
1.40001
1.40001
1.40001
1.40001
1.40001
1.40001
1.40001
1.40001
1.40001
1.40001
1.40001
1.40001
1.40001
1.40001
1.40001
1.40001
1.40001
1.40001
1.40001
1.40001
1.40001
1.40001
1.40001
1.40001
1.40001
1.40001
1.40001
1.40001
1.40001
1.40001
1.40001
1.40001
1.40001
1.40001
1.40001
1.40001
1.40001
1.40001
1.40001
1.40001
1.40001
1.40001
1.40001
1.40001
1.40001
1.40001
1.40001
1.40001
1.40001
1.40001
1.40001
1.40001
1.40001
1.40001
1.40001
1.40001
1.40001
1.40001
1.40001
1.40001
1.40001
1.40001
1.40001
1.40001
1.40001
1.40001
1.40001
1.40001
1.40001
1.40001
1.40001
1.40001
1.40001
1.40001
1.40001
3.04387
5.26742
5.41514
5.43617
5.44978
5.45452
5.45662
5.4602
5.47183
5.49099
5.5094
5.52397
5.53161
5.53286
5.53476
5.54313
5.56041
5.58135
5.59873
5.60907
5.61237
5.61227
5.6132
5.61791
5.62971
5.64504
5.65864
5.6702
5.67913
5.68742
5.69616
5.70536
5.71418
5.72166
5.72743
5.7315
5.73438
5.73873
5.74647
5.7574
5.76867
5.77811
5.78455
5.78837
5.7926
5.8007
5.81352
5.82777
5.83942
5.84492
5.84453
5.84252
5.84335
5.85005
5.86364
5.87912
5.88961
5.89165
5.88625
5.87943
5.87826
5.88638
5.90164
5.91638
5.92437
5.92284
5.91593
5.90989
5.91088
5.92073
5.93534
5.94723
5.95217
5.95175
5.94955
5.94886
5.95229
5.95662
5.95593
5.94999
5.9426
5.94057
5.94719
5.95833
5.96697
5.9666
5.9539
5.93067
5.90482
5.88545
5.87755
5.87709
1.40001
1.40001
1.40001
1.40001
1.40001
1.40001
1.40001
1.40001
1.40001
1.40001
1.40001
1.40001
1.40001
1.40001
1.40001
1.40001
1.40001
1.40001
1.40001
1.40001
1.40001
1.40001
1.40001
1.40001
1.40001
1.40001
1.40001
1.40001
1.40001
1.40001
1.40001
1.40001
1.40001
1.40001
1.40001
1.40001
1.40001
1.40001
1.40001
1.40001
1.40001
1.40001
1.40001
1.40001
1.40001
1.40001
1.40001
1.40001
1.40001
1.40001
1.40001
1.40001
1.40001
1.40001
1.40001
1.40001
1.40001
1.40001
1.40001
1.40001
1.40001
1.40001
1.40001
1.40001
1.40001
1.40001
1.40001
1.40001
1.40001
1.40001
1.40001
1.40001
1.40001
1.40001
1.40001
1.40001
1.40001
1.40001
1.40001
1.40001
1.40001
1.40001
1.40001
1.40001
1.40001
1.40001
1.40001
1.40001
1.40001
1.40001
1.40001
1.40001
1.40001
1.40001
1.40001
1.40001
1.40001
1.40001
1.40001
1.40001
2.88957
5.22929
5.4102
5.4335
5.44933
5.45569
5.45792
5.45972
5.46982
5.48912
5.50804
5.52311
5.53115
5.53234
5.53383
5.54201
5.55901
5.57942
5.59622
5.60611
5.6097
5.61056
5.61276
5.61876
5.63094
5.64548
5.65776
5.66807
5.67623
5.68426
5.69315
5.70251
5.71133
5.71878
5.72468
5.72945
5.73365
5.73879
5.74634
5.75574
5.76508
5.7732
5.77968
5.78517
5.79213
5.80251
5.8151
5.82719
5.83547
5.83842
5.83802
5.83814
5.8423
5.85206
5.8659
5.87812
5.88409
5.8824
5.8768
5.87273
5.8762
5.88826
5.9035
5.91563
5.92051
5.91749
5.91091
5.90653
5.90927
5.91958
5.93289
5.94296
5.94698
5.9468
5.94514
5.94556
5.95001
5.95442
5.95322
5.94682
5.93922
5.93716
5.94371
5.95483
5.96338
5.96285
5.95006
5.92676
5.90099
5.88178
5.87414
5.87356
1.40001
1.40001
1.40001
1.40001
1.40001
1.40001
1.40001
1.40001
1.40001
1.40001
1.40001
1.40001
1.40001
1.40001
1.40001
1.40001
1.40001
1.40001
1.40001
1.40001
1.40001
1.40001
1.40001
1.40001
1.40001
1.40001
1.40001
1.40001
1.40001
1.40001
1.40001
1.40001
1.40001
1.40001
1.40001
1.40001
1.40001
1.40001
1.40001
1.40001
1.40001
1.40001
1.40001
1.40001
1.40001
1.40001
1.40001
1.40001
1.40001
1.40001
1.40001
1.40001
1.40001
1.40001
1.40001
1.40001
1.40001
1.40001
1.40001
1.40001
1.40001
1.40001
1.40001
1.40001
1.40001
1.40001
1.40001
1.40001
1.40001
1.40001
1.40001
1.40001
1.40001
1.40001
1.40001
1.40001
1.40001
1.40001
1.40001
1.40001
1.40001
1.40001
1.40001
1.40001
1.40001
1.40001
1.40001
1.40001
1.40001
1.40001
1.40001
1.40001
1.40001
1.40001
1.40001
1.40001
1.40001
1.40001
1.40001
1.40001
2.72888
5.18641
5.40783
5.43014
5.44679
5.45464
5.45781
5.45952
5.46941
5.4885
5.50709
5.52145
5.52921
5.53066
5.53293
5.54178
5.55869
5.57829
5.59397
5.60288
5.60636
5.60823
5.61204
5.61965
5.6325
5.6465
5.65763
5.66649
5.67351
5.68076
5.68932
5.69866
5.70768
5.7156
5.72229
5.72813
5.73333
5.73876
5.74559
5.75342
5.76137
5.76898
5.77611
5.78332
5.79221
5.8035
5.81519
5.825
5.83058
5.83193
5.83197
5.83457
5.84189
5.85417
5.86744
5.87597
5.87751
5.87312
5.86781
5.86706
5.875
5.88975
5.9043
5.91342
5.91536
5.91147
5.90607
5.90416
5.90871
5.91873
5.92977
5.93743
5.94073
5.94141
5.94102
5.94304
5.94804
5.95168
5.94952
5.94272
5.93558
5.93413
5.94063
5.95135
5.9593
5.95831
5.94552
5.92258
5.89725
5.87829
5.87068
5.86981
1.40001
1.40001
1.40001
1.40001
1.40001
1.40001
1.40001
1.40001
1.40001
1.40001
1.40001
1.40001
1.40001
1.40001
1.40001
1.40001
1.40001
1.40001
1.40001
1.40001
1.40001
1.40001
1.40001
1.40001
1.40001
1.40001
1.40001
1.40001
1.40001
1.40001
1.40001
1.40001
1.40001
1.40001
1.40001
1.40001
1.40001
1.40001
1.40001