/*--------------------------------*- C++ -*----------------------------------*\
  =========                 |
  \\      /  F ield         | OpenFOAM: The Open Source CFD Toolbox
   \\    /   O peration     | Website:  https://openfoam.org
    \\  /    A nd           | Version:  7
     \\/     M anipulation  |
\*---------------------------------------------------------------------------*/
FoamFile
{
    version     2.0;
    format      ascii;
    class       volScalarField;
    location    "2.2";
    object      T;
}
// * * * * * * * * * * * * * * * * * * * * * * * * * * * * * * * * * * * * * //

dimensions      [0 0 0 1 0 0 0];

internalField   nonuniform List<scalar> 
258048
(
1
1
1
1
1
1
1
1
1
1
1
1
1
1
1
1
1
1
1
1
1
1
1
1
1
1
1
1
1
1
1
1
1
1
1
1
1
1
1
1
1
1
1
1
1
1
1
1
1
1
1
1
1
1
1
1
1
1
1
1
1
1
1
1
1
1
1
1
1
1
1
1
1
1
1
1
1
1
1
1
1
1
1
1
1
1
1
1
1
1
1
1
1
1
1
1
1
1
1
1.13409
2.37726
2.68538
2.68757
2.69245
2.69684
2.70037
2.70375
2.70725
2.71042
2.71253
2.71345
2.71371
2.71391
2.71442
2.7154
2.71697
2.71952
2.72327
2.728
2.73364
2.73937
2.74375
2.74629
2.74693
2.74605
2.74375
2.74155
2.74155
2.74376
2.7478
2.75259
2.75713
2.7603
2.76196
2.76237
2.76249
2.76347
2.76576
2.7692
2.77285
2.77584
2.77749
2.77736
2.77695
2.77693
2.77803
2.78015
2.78222
2.78318
2.78243
2.78067
2.77964
2.78033
2.78326
2.78727
2.79061
2.79205
2.79189
2.79163
2.79231
2.79473
2.798
2.80078
2.8022
2.80247
2.80243
2.80289
2.80404
2.80564
2.80707
2.80777
2.80788
2.80815
2.80908
2.81072
2.8125
2.81383
2.81475
2.81546
2.81631
2.81754
2.8189
2.82006
2.82128
2.82326
2.82649
2.83146
2.83828
2.84595
2.85239
2.85579
2.85639
1
1
1
1
1
1
1
1
1
1
1
1
1
1
1
1
1
1
1
1
1
1
1
1
1
1
1
1
1
1
1
1
1
1
1
1
1
1
1
1
1
1
1
1
1
1
1
1
1
1
1
1
1
1
1
1
1
1
1
1
1
1
1
1
1
1
1
1
1
1
1
1
1
1
1
1
1
1
1
1
1
1
1
1
1
1
1
1
1
1
1
1
1
1
1
1
1
1
1
1.12921
2.37275
2.68392
2.68936
2.69327
2.69691
2.70031
2.70384
2.70743
2.71068
2.71294
2.71391
2.71398
2.71392
2.71417
2.71507
2.71684
2.7197
2.7237
2.72844
2.73365
2.73894
2.74317
2.74575
2.74664
2.74612
2.74438
2.74233
2.74191
2.74351
2.74722
2.75196
2.75673
2.76042
2.76235
2.76292
2.76296
2.76376
2.76583
2.7691
2.77265
2.77565
2.77739
2.77737
2.77706
2.77716
2.77831
2.78037
2.78232
2.78315
2.78233
2.78058
2.77958
2.7803
2.78326
2.78726
2.79055
2.79196
2.79184
2.79165
2.79236
2.79479
2.79803
2.80078
2.80219
2.80246
2.80243
2.80289
2.80406
2.8057
2.80713
2.80776
2.80777
2.80795
2.80888
2.81063
2.81256
2.81401
2.81491
2.8155
2.81619
2.81734
2.81878
2.82007
2.82134
2.82326
2.8264
2.83136
2.83824
2.84599
2.85247
2.85579
2.85625
1
1
1
1
1
1
1
1
1
1
1
1
1
1
1
1
1
1
1
1
1
1
1
1
1
1
1
1
1
1
1
1
1
1
1
1
1
1
1
1
1
1
1
1
1
1
1
1
1
1
1
1
1
1
1
1
1
1
1
1
1
1
1
1
1
1
1
1
1
1
1
1
1
1
1
1
1
1
1
1
1
1
1
1
1
1
1
1
1
1
1
1
1
1
1
1
1
1
1
1.1211
2.36725
2.6856
2.68994
2.69297
2.69632
2.69989
2.70375
2.70761
2.71106
2.71358
2.7147
2.71465
2.71424
2.71407
2.71465
2.71648
2.71967
2.72401
2.72895
2.73391
2.73873
2.74257
2.74502
2.74607
2.74593
2.74495
2.7434
2.74266
2.74366
2.74656
2.75086
2.75572
2.76005
2.76251
2.76347
2.7636
2.76424
2.76593
2.76886
2.77216
2.77506
2.77685
2.77701
2.77691
2.77723
2.77852
2.78054
2.78233
2.78295
2.78199
2.78028
2.77939
2.78019
2.78319
2.78715
2.79036
2.79172
2.79167
2.7916
2.79243
2.79488
2.79806
2.80076
2.80215
2.80245
2.80243
2.80287
2.80401
2.80569
2.80715
2.80772
2.8076
2.80765
2.80851
2.81033
2.81247
2.81414
2.81507
2.81555
2.81603
2.81701
2.81852
2.82002
2.82139
2.82326
2.8263
2.83122
2.83816
2.84598
2.85252
2.8558
2.85611
1
1
1
1
1
1
1
1
1
1
1
1
1
1
1
1
1
1
1
1
1
1
1
1
1
1
1
1
1
1
1
1
1
1
1
1
1
1
1
1
1
1
1
1
1
1
1
1
1
1
1
1
1
1
1
1
1
1
1
1
1
1
1
1
1
1
1
1
1
1
1
1
1
1
1
1
1
1
1
1
1
1
1
1
1
1
1
1
1
1
1
1
1
1
1
1
1
1
1
1.11183
2.36037
2.68643
2.68951
2.69218
2.69557
2.69941
2.70365
2.70786
2.71161
2.71439
2.71566
2.71557
2.7148
2.71409
2.71439
2.71616
2.71961
2.72429
2.72945
2.7342
2.73847
2.74184
2.74412
2.74552
2.74605
2.74576
2.74465
2.74348
2.74379
2.7458
2.74972
2.75479
2.75969
2.76301
2.76429
2.76443
2.76481
2.76604
2.76853
2.77155
2.77435
2.77622
2.77671
2.7769
2.77754
2.77892
2.78078
2.78226
2.78259
2.78153
2.77993
2.77927
2.78016
2.78312
2.78693
2.78998
2.79135
2.79146
2.79162
2.79263
2.79502
2.79806
2.80064
2.80203
2.80244
2.80255
2.80301
2.80407
2.80567
2.80705
2.80753
2.80734
2.80732
2.80817
2.81008
2.81246
2.81432
2.81525
2.81558
2.81583
2.81666
2.81822
2.81991
2.82141
2.82322
2.82617
2.83107
2.83806
2.84597
2.85257
2.85579
2.85596
1
1
1
1
1
1
1
1
1
1
1
1
1
1
1
1
1
1
1
1
1
1
1
1
1
1
1
1
1
1
1
1
1
1
1
1
1
1
1
1
1
1
1
1
1
1
1
1
1
1
1
1
1
1
1
1
1
1
1
1
1
1
1
1
1
1
1
1
1
1
1
1
1
1
1
1
1
1
1
1
1
1
1
1
1
1
1
1
1
1
1
1
1
1
1
1
1
1
1
1.09965
2.35049
2.68509
2.68835
2.69138
2.69507
2.69927
2.70378
2.70826
2.71222
2.71513
2.71652
2.71646
2.71552
2.71434
2.71436
2.71594
2.71949
2.72437
2.72979
2.73446
2.73826
2.74126
2.74328
2.74503
2.74623
2.74646
2.74578
2.7444
2.74401
2.74525
2.74869
2.75389
2.75931
2.76339
2.76505
2.76521
2.76536
2.76616
2.76817
2.77088
2.7735
2.77543
2.77635
2.77692
2.7779
2.77934
2.78096
2.78203
2.78202
2.78092
2.77957
2.7792
2.78021
2.78305
2.78653
2.78934
2.79079
2.79126
2.79176
2.79294
2.79521
2.79798
2.80035
2.80176
2.80239
2.80276
2.80331
2.80425
2.80561
2.80677
2.80714
2.80696
2.80697
2.80787
2.8099
2.81241
2.8144
2.81533
2.81552
2.8156
2.81632
2.81791
2.81975
2.82135
2.82312
2.82601
2.8309
2.83794
2.84593
2.85257
2.85576
2.85585
1
1
1
1
1
1
1
1
1
1
1
1
1
1
1
1
1
1
1
1
1
1
1
1
1
1
1
1
1
1
1
1
1
1
1
1
1
1
1
1
1
1
1
1
1
1
1
1
1
1
1
1
1
1
1
1
1
1
1
1
1
1
1
1
1
1
1
1
1
1
1
1
1
1
1
1
1
1
1
1
1
1
1
1
1
1
1
1
1
1
1
1
1
1
1
1
1
1
1
1.07464
2.33638
2.68383
2.68786
2.69094
2.69488
2.69929
2.70407
2.70873
2.71271
2.71558
2.71709
2.71717
2.71629
2.71489
2.71459
2.71593
2.71941
2.72435
2.72985
2.73454
2.73812
2.74083
2.74274
2.74465
2.74615
2.74667
2.74626
2.74499
2.74417
2.74499
2.74798
2.75319
2.75895
2.76349
2.76558
2.76581
2.76583
2.76629
2.76784
2.77019
2.77266
2.77466
2.77597
2.77703
2.77826
2.77968
2.78094
2.78153
2.78123
2.78018
2.77928
2.77926
2.78046
2.78301
2.78595
2.78843
2.79003
2.79104
2.79198
2.79339
2.79547
2.7978
2.79984
2.80127
2.80226
2.80305
2.80374
2.80456
2.80554
2.80631
2.80654
2.80646
2.80666
2.80775
2.80986
2.81235
2.81432
2.81524
2.81535
2.81535
2.81604
2.81761
2.81951
2.82119
2.82295
2.82582
2.83073
2.83782
2.84585
2.85251
2.85569
2.8558
1
1
1
1
1
1
1
1
1
1
1
1
1
1
1
1
1
1
1
1
1
1
1
1
1
1
1
1
1
1
1
1
1
1
1
1
1
1
1
1
1
1
1
1
1
1
1
1
1
1
1
1
1
1
1
1
1
1
1
1
1
1
1
1
1
1
1
1
1
1
1
1
1
1
1
1
1
1
1
1
1
1
1
1
1
1
1
1
1
1
1
1
1
1
1
1
1
1
1
1.03428
2.31936
2.68339
2.68791
2.69095
2.69512
2.69983
2.70477
2.7093
2.71301
2.71571
2.71724
2.71755
2.71697
2.71566
2.71515
2.71619
2.71941
2.72423
2.72964
2.73443
2.73794
2.74053
2.74245
2.74431
2.74581
2.74636
2.74615
2.74519
2.74432
2.74497
2.74766
2.75271
2.75853
2.76331
2.76575
2.76619
2.76617
2.76644
2.76757
2.76953
2.77182
2.77393
2.77563
2.77715
2.77856
2.77982
2.78063
2.78073
2.78022
2.77948
2.77918
2.77956
2.78088
2.78293
2.78521
2.78733
2.78915
2.79076
2.79232
2.794
2.79577
2.79751
2.7991
2.80062
2.80206
2.80329
2.80424
2.80495
2.80544
2.8057
2.80577
2.80585
2.80642
2.80783
2.80998
2.8123
2.81411
2.81496
2.81506
2.8151
2.81581
2.81733
2.81919
2.82092
2.82273
2.82563
2.83056
2.83768
2.84573
2.85238
2.85557
2.85579
1
1
1
1
1
1
1
1
1
1
1
1
1
1
1
1
1
1
1
1
1
1
1
1
1
1
1
1
1
1
1
1
1
1
1
1
1
1
1
1
1
1
1
1
1
1
1
1
1
1
1
1
1
1
1
1
1
1
1
1
1
1
1
1
1
1
1
1
1
1
1
1
1
1
1
1
1
1
1
1
1
1
1
1
1
1
1
1
1
1
1
1
1
1
1
1
1
1
1
1.00131
2.29507
2.68216
2.68763
2.6911
2.69582
2.7008
2.7056
2.70971
2.71307
2.71556
2.71707
2.71761
2.71737
2.71648
2.71597
2.71679
2.71964
2.72414
2.72928
2.73407
2.73763
2.74024
2.74221
2.74387
2.74526
2.74588
2.74586
2.74524
2.74456
2.74516
2.74767
2.75239
2.75801
2.76287
2.76562
2.76634
2.7664
2.76658
2.76732
2.76885
2.77095
2.77322
2.77535
2.77724
2.77871
2.77965
2.77994
2.77966
2.77912
2.77894
2.77928
2.78014
2.78133
2.78272
2.78428
2.7861
2.7882
2.79051
2.79279
2.79467
2.79598
2.79703
2.79824
2.79985
2.80172
2.80348
2.80475
2.80531
2.80529
2.80503
2.8049
2.80522
2.80625
2.808
2.81016
2.81224
2.8138
2.81453
2.81465
2.81481
2.81559
2.81702
2.81877
2.82055
2.82251
2.82545
2.83039
2.8375
2.84555
2.85218
2.85541
2.85586
1
1
1
1
1
1
1
1
1
1
1
1
1
1
1
1
1
1
1
1
1
1
1
1
1
1
1
1
1
1
1
1
1
1
1
1
1
1
1
1
1
1
1
1
1
1
1
1
1
1
1
1
1
1
1
1
1
1
1
1
1
1
1
1
1
1
1
1
1
1
1
1
1
1
1
1
1
1
1
1
1
1
1
1
1
1
1
1
1
1
1
1
1
1
1
1
1
1
1
1.00001
2.26969
2.68107
2.68774
2.69171
2.69681
2.70174
2.70616
2.70985
2.71291
2.71523
2.71671
2.71741
2.71742
2.71704
2.71679
2.71756
2.72014
2.72425
2.72899
2.73357
2.73715
2.7398
2.74178
2.74325
2.74454
2.74523
2.74544
2.74527
2.74497
2.7456
2.74787
2.75214
2.75741
2.76224
2.76529
2.76635
2.76653
2.76666
2.76704
2.76812
2.77008
2.77259
2.77516
2.77729
2.77861
2.7791
2.77894
2.77841
2.7781
2.77861
2.77969
2.78079
2.78162
2.78233
2.78324
2.78486
2.78735
2.79042
2.7933
2.79514
2.79595
2.79646
2.79731
2.79903
2.80134
2.80363
2.80515
2.80552
2.80508
2.80436
2.80409
2.80466
2.80617
2.80823
2.81033
2.81214
2.81342
2.81404
2.81419
2.8145
2.81531
2.81661
2.81824
2.82014
2.82231
2.82532
2.83023
2.83726
2.84526
2.85188
2.85521
2.85595
1
1
1
1
1
1
1
1
1
1
1
1
1
1
1
1
1
1
1
1
1
1
1
1
1
1
1
1
1
1
1
1
1
1
1
1
1
1
1
1
1
1
1
1
1
1
1
1
1
1
1
1
1
1
1
1
1
1
1
1
1
1
1
1
1
1
1
1
1
1
1
1
1
1
1
1
1
1
1
1
1
1
1
1
1
1
1
1
1
1
1
1
1
1
1
1
1
1
1
1
2.24279
2.68172
2.68807
2.69207
2.69725
2.70204
2.70624
2.70969
2.71256
2.71485
2.71638
2.71717
2.71731
2.71725
2.71737
2.7183
2.72079
2.72457
2.72889
2.7331
2.73654
2.73912
2.74108
2.74243
2.74366
2.74454
2.74503
2.74529
2.74543
2.74614
2.74817
2.75192
2.75677
2.76153
2.76487
2.76629
2.76656
2.76655
2.76663
2.76735
2.76928
2.77213
2.77504
2.7772
2.77817
2.77818
2.77773
2.77712
2.77732
2.77862
2.78022
2.78122
2.78159
2.78172
2.78218
2.78378
2.78681
2.79054
2.79366
2.79526
2.79567
2.79575
2.79639
2.79829
2.80105
2.80377
2.80536
2.80551
2.8047
2.80372
2.80344
2.80423
2.80613
2.80837
2.81037
2.81195
2.81306
2.81358
2.81376
2.81415
2.81491
2.81604
2.81764
2.81966
2.82213
2.82532
2.83006
2.83695
2.84485
2.8515
2.85498
2.85601
1
1
1
1
1
1
1
1
1
1
1
1
1
1
1
1
1
1
1
1
1
1
1
1
1
1
1
1
1
1
1
1
1
1
1
1
1
1
1
1
1
1
1
1
1
1
1
1
1
1
1
1
1
1
1
1
1
1
1
1
1
1
1
1
1
1
1
1
1
1
1
1
1
1
1
1
1
1
1
1
1
1
1
1
1
1
1
1
1
1
1
1
1
1
1
1
1
1
1
1
2.21343
2.68284
2.68853
2.69209
2.69704
2.70168
2.70578
2.70912
2.71198
2.71442
2.71619
2.71713
2.71731
2.71734
2.71763
2.71878
2.72135
2.72499
2.72897
2.73278
2.73589
2.73823
2.74013
2.74145
2.74275
2.7439
2.74468
2.74529
2.74578
2.74661
2.74841
2.75171
2.75619
2.76086
2.76439
2.76608
2.76636
2.76613
2.76602
2.76657
2.76862
2.77178
2.77486
2.77686
2.77741
2.77704
2.7764
2.776
2.77694
2.77892
2.7806
2.78126
2.7811
2.78078
2.78113
2.78301
2.78664
2.79075
2.79375
2.79498
2.79505
2.7949
2.79557
2.79786
2.80103
2.80388
2.80532
2.80518
2.80409
2.80311
2.80297
2.80398
2.80607
2.80832
2.81021
2.81164
2.81269
2.81321
2.81345
2.81378
2.81434
2.81533
2.81695
2.81915
2.82197
2.82533
2.82991
2.83659
2.84436
2.85104
2.85472
2.85601
1
1
1
1
1
1
1
1
1
1
1
1
1
1
1
1
1
1
1
1
1
1
1
1
1
1
1
1
1
1
1
1
1
1
1
1
1
1
1
1
1
1
1
1
1
1
1
1
1
1
1
1
1
1
1
1
1
1
1
1
1
1
1
1
1
1
1
1
1
1
1
1
1
1
1
1
1
1
1
1
1
1
1
1
1
1
1
1
1
1
1
1
1
1
1
1
1
1
1
1
2.18119
2.68336
2.6893
2.69228
2.69663
2.70075
2.70464
2.70803
2.71114
2.71396
2.71611
2.71731
2.7175
2.71743
2.71769
2.7189
2.72159
2.72528
2.72912
2.73263
2.73531
2.73732
2.73907
2.74042
2.74189
2.74334
2.74436
2.74521
2.74593
2.74684
2.74851
2.75149
2.75572
2.76029
2.76388
2.76565
2.76586
2.76544
2.76524
2.76583
2.76812
2.77148
2.7745
2.77621
2.77636
2.77571
2.77509
2.77526
2.777
2.77925
2.78066
2.78081
2.78012
2.7796
2.78015
2.78267
2.78685
2.79099
2.79364
2.79435
2.79413
2.79391
2.795
2.79784
2.80127
2.80393
2.80494
2.80444
2.80327
2.80247
2.80262
2.80393
2.80602
2.8081
2.8098
2.81119
2.81231
2.81295
2.81325
2.81342
2.81367
2.81449
2.8162
2.81864
2.82182
2.82534
2.82976
2.8362
2.84381
2.85051
2.85442
2.85595
1
1
1
1
1
1
1
1
1
1
1
1
1
1
1
1
1
1
1
1
1
1
1
1
1
1
1
1
1
1
1
1
1
1
1
1
1
1
1
1
1
1
1
1
1
1
1
1
1
1
1
1
1
1
1
1
1
1
1
1
1
1
1
1
1
1
1
1
1
1
1
1
1
1
1
1
1
1
1
1
1
1
1
1
1
1
1
1
1
1
1
1
1
1
1
1
1
1
1
1
2.14556
2.68262
2.69015
2.69279
2.69639
2.69971
2.70318
2.70658
2.71007
2.71344
2.71606
2.71757
2.7178
2.71757
2.71763
2.71871
2.72148
2.72532
2.7292
2.73254
2.73489
2.73656
2.73809
2.73945
2.74111
2.74285
2.74403
2.74501
2.74583
2.74678
2.74841
2.75125
2.75536
2.75986
2.76338
2.76507
2.76517
2.76461
2.7644
2.76521
2.76775
2.77112
2.77387
2.77517
2.77502
2.77431
2.774
2.77491
2.77724
2.77938
2.78037
2.77993
2.77882
2.77836
2.77938
2.78269
2.78729
2.79122
2.79332
2.79347
2.79297
2.79294
2.79474
2.79812
2.80172
2.80395
2.80433
2.80346
2.8023
2.80183
2.80238
2.804
2.80596
2.80768
2.80915
2.81057
2.81188
2.81276
2.81307
2.81303
2.81299
2.8136
2.8154
2.8181
2.82161
2.82529
2.8296
2.83582
2.84323
2.84996
2.85408
2.85578
1
1
1
1
1
1
1
1
1
1
1
1
1
1
1
1
1
1
1
1
1
1
1
1
1
1
1
1
1
1
1
1
1
1
1
1
1
1
1
1
1
1
1
1
1
1
1
1
1
1
1
1
1
1
1
1
1
1
1
1
1
1
1
1
1
1
1
1
1
1
1
1
1
1
1
1
1
1
1
1
1
1
1
1
1
1
1
1
1
1
1
1
1
1
1
1
1
1
1
1
2.10587
2.67987
2.69084
2.69355
2.69645
2.69893
2.70183
2.70509
2.7089
2.71285
2.71596
2.71776
2.71809
2.71769
2.71748
2.71832
2.72109
2.7251
2.72912
2.73243
2.73456
2.73594
2.73723
2.73854
2.74037
2.74234
2.74365
2.74468
2.74552
2.7465
2.74813
2.75101
2.7551
2.7595
2.76285
2.76432
2.76429
2.76374
2.76364
2.76474
2.76741
2.77057
2.77293
2.7738
2.77352
2.77301
2.77321
2.77487
2.77741
2.77925
2.77969
2.77871
2.77745
2.77725
2.77888
2.78289
2.78764
2.79122
2.79263
2.79243
2.79177
2.79219
2.79476
2.79864
2.80214
2.80386
2.80356
2.80232
2.80121
2.80116
2.80222
2.8041
2.80585
2.80713
2.80833
2.8098
2.81139
2.81257
2.81293
2.81271
2.81233
2.8127
2.81456
2.81751
2.82131
2.82514
2.82939
2.83541
2.84264
2.84935
2.85369
2.85549
1
1
1
1
1
1
1
1
1
1
1
1
1
1
1
1
1
1
1
1
1
1
1
1
1
1
1
1
1
1
1
1
1
1
1
1
1
1
1
1
1
1
1
1
1
1
1
1
1
1
1
1
1
1
1
1
1
1
1
1
1
1
1
1
1
1
1
1
1
1
1
1
1
1
1
1
1
1
1
1
1
1
1
1
1
1
1
1
1
1
1
1
1
1
1
1
1
1
1
1
2.06174
2.67483
2.691
2.69417
2.69674
2.69855
2.70079
2.70375
2.70775
2.71221
2.71577
2.71781
2.71824
2.7177
2.71718
2.71779
2.7205
2.72468
2.72885
2.73223
2.7343
2.7355
2.73657
2.73776
2.73964
2.74171
2.74311
2.74416
2.74499
2.74597
2.7477
2.75071
2.75482
2.75904
2.76213
2.76336
2.76327
2.76288
2.76298
2.76436
2.76699
2.76977
2.77168
2.77225
2.77204
2.77194
2.77275
2.77492
2.77733
2.77874
2.77867
2.77738
2.77622
2.77642
2.77871
2.78311
2.78775
2.79087
2.79166
2.79128
2.79073
2.79181
2.79508
2.79925
2.80238
2.80349
2.80272
2.80119
2.80016
2.80049
2.80206
2.8041
2.80558
2.80647
2.80743
2.80896
2.81086
2.81233
2.81275
2.81238
2.8117
2.81183
2.81368
2.81687
2.82091
2.82486
2.82908
2.83495
2.84203
2.84873
2.85325
2.85512
1
1
1
1
1
1
1
1
1
1
1
1
1
1
1
1
1
1
1
1
1
1
1
1
1
1
1
1
1
1
1
1
1
1
1
1
1
1
1
1
1
1
1
1
1
1
1
1
1
1
1
1
1
1
1
1
1
1
1
1
1
1
1
1
1
1
1
1
1
1
1
1
1
1
1
1
1
1
1
1
1
1
1
1
1
1
1
1
1
1
1
1
1
1
1
1
1
1
1
1
2.013
2.66799
2.69072
2.69427
2.69689
2.69841
2.70006
2.70257
2.70661
2.71149
2.71543
2.71768
2.71819
2.71752
2.71669
2.71711
2.71975
2.72406
2.72837
2.73185
2.73398
2.73511
2.73603
2.73708
2.73889
2.74097
2.74239
2.74345
2.7443
2.74535
2.74722
2.75036
2.75441
2.75836
2.76115
2.76223
2.7622
2.76206
2.76241
2.76394
2.76636
2.76872
2.77026
2.77074
2.77074
2.77114
2.77259
2.77486
2.77688
2.77782
2.77736
2.7761
2.77535
2.77603
2.77881
2.78322
2.78747
2.78998
2.7904
2.79007
2.78999
2.79183
2.79557
2.79969
2.80235
2.80287
2.80181
2.80014
2.7993
2.79993
2.80181
2.80386
2.80508
2.80569
2.80651
2.8081
2.81031
2.81201
2.81248
2.812
2.81107
2.81101
2.81284
2.81621
2.82042
2.82445
2.82865
2.83444
2.84142
2.84813
2.85278
2.85468
1
1
1
1
1
1
1
1
1
1
1
1
1
1
1
1
1
1
1
1
1
1
1
1
1
1
1
1
1
1
1
1
1
1
1
1
1
1
1
1
1
1
1
1
1
1
1
1
1
1
1
1
1
1
1
1
1
1
1
1
1
1
1
1
1
1
1
1
1
1
1
1
1
1
1
1
1
1
1
1
1
1
1
1
1
1
1
1
1
1
1
1
1
1
1
1
1
1
1
1
1.95893
2.65914
2.69035
2.69408
2.69681
2.69822
2.69946
2.70149
2.70544
2.71065
2.71489
2.7173
2.71788
2.71711
2.71604
2.71634
2.71895
2.72335
2.72777
2.73134
2.73354
2.73466
2.73551
2.73641
2.73809
2.74007
2.74144
2.74251
2.74342
2.74462
2.74669
2.7499
2.75377
2.75741
2.75996
2.76104
2.76117
2.76128
2.76185
2.76335
2.76541
2.76738
2.76871
2.76931
2.76975
2.77071
2.77247
2.7745
2.77603
2.77654
2.7759
2.77497
2.77486
2.77603
2.77913
2.78324
2.78681
2.78865
2.78897
2.7889
2.78959
2.79223
2.7961
2.79984
2.80198
2.80203
2.80083
2.79925
2.79868
2.7995
2.80142
2.80329
2.80431
2.8048
2.80563
2.80733
2.80976
2.81162
2.81208
2.81153
2.81043
2.81026
2.81207
2.81552
2.8198
2.82386
2.82807
2.83382
2.84079
2.84752
2.85227
2.85417
1
1
1
1
1
1
1
1
1
1
1
1
1
1
1
1
1
1
1
1
1
1
1
1
1
1
1
1
1
1
1
1
1
1
1
1
1
1
1
1
1
1
1
1
1
1
1
1
1
1
1
1
1
1
1
1
1
1
1
1
1
1
1
1
1
1
1
1
1
1
1
1
1
1
1
1
1
1
1
1
1
1
1
1
1
1
1
1
1
1
1
1
1
1
1
1
1
1
1
1
1.89884
2.64781
2.68984
2.69381
2.69672
2.69804
2.69894
2.70039
2.70415
2.70963
2.7141
2.71663
2.71728
2.71647
2.71527
2.71554
2.71817
2.72261
2.72704
2.73059
2.73284
2.73404
2.73487
2.7357
2.73727
2.73911
2.74041
2.74147
2.74247
2.74385
2.74609
2.74927
2.75289
2.75622
2.75862
2.75984
2.76025
2.76056
2.76123
2.76251
2.76419
2.76587
2.76719
2.7681
2.76903
2.77043
2.7722
2.77386
2.77488
2.775
2.77448
2.77407
2.77456
2.77639
2.77961
2.78316
2.78584
2.78699
2.78739
2.78785
2.78954
2.79275
2.79651
2.79972
2.80127
2.80103
2.79983
2.79855
2.79831
2.79919
2.80089
2.80241
2.80326
2.80382
2.8048
2.80669
2.80929
2.81114
2.81152
2.8109
2.80974
2.80957
2.81138
2.81482
2.81905
2.82308
2.82733
2.83311
2.84014
2.84693
2.85173
2.85361
1
1
1
1
1
1
1
1
1
1
1
1
1
1
1
1
1
1
1
1
1
1
1
1
1
1
1
1
1
1
1
1
1
1
1
1
1
1
1
1
1
1
1
1
1
1
1
1
1
1
1
1
1
1
1
1
1
1
1
1
1
1
1
1
1
1
1
1
1
1
1
1
1
1
1
1
1
1
1
1
1
1
1
1
1
1
1
1
1
1
1
1
1
1
1
1
1
1
1
1
1.83213
2.63386
2.68962
2.6935
2.69641
2.69764
2.6983
2.69938
2.70298
2.70857
2.71318
2.71571
2.71629
2.71547
2.71441
2.71481
2.71754
2.72196
2.72631
2.72972
2.73191
2.73318
2.73406
2.73495
2.7365
2.73821
2.73943
2.74047
2.74149
2.74296
2.74527
2.74836
2.75176
2.75488
2.75726
2.75866
2.75931
2.75976
2.76041
2.76147
2.76288
2.76442
2.76584
2.76706
2.76838
2.77
2.77165
2.77297
2.77359
2.77351
2.77317
2.77334
2.77449
2.77692
2.78004
2.78289
2.78469
2.78534
2.78584
2.78696
2.78955
2.79312
2.7967
2.79931
2.80034
2.79994
2.79892
2.79804
2.79809
2.79895
2.80023
2.80126
2.80196
2.80271
2.80399
2.80619
2.80889
2.8106
2.81079
2.81011
2.809
2.80894
2.81077
2.81413
2.81819
2.82212
2.82643
2.83231
2.83946
2.84633
2.85116
2.85298
1
1
1
1
1
1
1
1
1
1
1
1
1
1
1
1
1
1
1
1
1
1
1
1
1
1
1
1
1
1
1
1
1
1
1
1
1
1
1
1
1
1
1
1
1
1
1
1
1
1
1
1
1
1
1
1
1
1
1
1
1
1
1
1
1
1
1
1
1
1
1
1
1
1
1
1
1
1
1
1
1
1
1
1
1
1
1
1
1
1
1
1
1
1
1
1
1
1
1
1
1.75971
2.61733
2.68968
2.69334
2.69601
2.69694
2.69747
2.69843
2.702
2.70751
2.71217
2.71466
2.71507
2.71427
2.71355
2.71422
2.71712
2.72142
2.72558
2.72874
2.73073
2.73199
2.73298
2.73403
2.73566
2.73735
2.73854
2.73951
2.74049
2.74193
2.74419
2.7472
2.7505
2.75357
2.75599
2.75753
2.75831
2.75878
2.75935
2.76025
2.76157
2.76313
2.76466
2.76607
2.76756
2.76921
2.77075
2.77187
2.77229
2.7722
2.77213
2.77275
2.77452
2.77725
2.78019
2.78244
2.78348
2.78391
2.7845
2.78625
2.78944
2.79319
2.79652
2.79861
2.79926
2.79883
2.79807
2.79767
2.79794
2.79867
2.79942
2.79996
2.80052
2.80149
2.8032
2.80578
2.80851
2.80997
2.80992
2.80916
2.80819
2.80835
2.81024
2.81344
2.81723
2.821
2.8254
2.83143
2.83875
2.84572
2.85054
2.85227
1
1
1
1
1
1
1
1
1
1
1
1
1
1
1
1
1
1
1
1
1
1
1
1
1
1
1
1
1
1
1
1
1
1
1
1
1
1
1
1
1
1
1
1
1
1
1
1
1
1
1
1
1
1
1
1
1
1
1
1
1
1
1
1
1
1
1
1
1
1
1
1
1
1
1
1
1
1
1
1
1
1
1
1
1
1
1
1
1
1
1
1
1
1
1
1
1
1
1
1
1.68056
2.59761
2.68982
2.69318
2.69544
2.69595
2.69635
2.69742
2.70101
2.70632
2.71095
2.71339
2.71361
2.71288
2.71257
2.71361
2.71674
2.7209
2.7248
2.72767
2.72938
2.73055
2.73163
2.73289
2.73471
2.73649
2.73773
2.73865
2.73949
2.74078
2.74291
2.74586
2.74917
2.7523
2.75477
2.75634
2.75714
2.7576
2.75812
2.75904
2.76043
2.76206
2.76363
2.76507
2.76655
2.76813
2.76957
2.77064
2.77112
2.77123
2.77149
2.77249
2.77452
2.77723
2.77988
2.78166
2.78235
2.78277
2.78356
2.78576
2.78916
2.79284
2.79587
2.79766
2.79817
2.79779
2.79728
2.79728
2.79775
2.79826
2.79846
2.79858
2.79906
2.80024
2.80243
2.80543
2.80805
2.80917
2.80895
2.80809
2.80733
2.80779
2.80971
2.81273
2.81618
2.81975
2.82425
2.83048
2.83801
2.84508
2.84984
2.85146
1
1
1
1
1
1
1
1
1
1
1
1
1
1
1
1
1
1
1
1
1
1
1
1
1
1
1
1
1
1
1
1
1
1
1
1
1
1
1
1
1
1
1
1
1
1
1
1
1
1
1
1
1
1
1
1
1
1
1
1
1
1
1
1
1
1
1
1
1
1
1
1
1
1
1
1
1
1
1
1
1
1
1
1
1
1
1
1
1
1
1
1
1
1
1
1
1
1
1
1
1.59498
2.57404
2.68945
2.69223
2.69426
2.69461
2.69509
2.69648
2.70004
2.70503
2.70949
2.71183
2.71197
2.71138
2.71146
2.71298
2.71627
2.72028
2.72395
2.72652
2.72794
2.72897
2.73008
2.73157
2.73363
2.73556
2.7369
2.73779
2.73848
2.73959
2.74158
2.7445
2.74785
2.75103
2.75352
2.75508
2.75587
2.75634
2.75693
2.75798
2.75949
2.76116
2.76271
2.76408
2.76546
2.76688
2.76823
2.76937
2.77011
2.7706
2.77125
2.77251
2.7745
2.77692
2.7791
2.78057
2.78125
2.78187
2.78305
2.7855
2.78878
2.79213
2.79485
2.79654
2.7971
2.79685
2.7966
2.79684
2.79735
2.79758
2.79736
2.79717
2.79768
2.79908
2.80168
2.80501
2.80746
2.80819
2.80786
2.80696
2.80648
2.80723
2.80916
2.81197
2.81506
2.81843
2.82303
2.82948
2.83723
2.8444
2.84907
2.85054
1
1
1
1
1
1
1
1
1
1
1
1
1
1
1
1
1
1
1
1
1
1
1
1
1
1
1
1
1
1
1
1
1
1
1
1
1
1
1
1
1
1
1
1
1
1
1
1
1
1
1
1
1
1
1
1
1
1
1
1
1
1
1
1
1
1
1
1
1
1
1
1
1
1
1
1
1
1
1
1
1
1
1
1
1
1
1
1
1
1
1
1
1
1
1
1
1
1
1
1
1.5048
2.54635
2.68832
2.69049
2.69261
2.69314
2.69386
2.69558
2.69898
2.70348
2.70757
2.70986
2.71016
2.70993
2.71039
2.71226
2.71557
2.71941
2.72283
2.72513
2.72635
2.72729
2.72849
2.7302
2.73244
2.73452
2.736
2.7369
2.73746
2.73845
2.74034
2.74319
2.7465
2.74965
2.75211
2.75368
2.75453
2.75512
2.75587
2.75707
2.75865
2.76031
2.7618
2.7631
2.76435
2.76559
2.76685
2.7681
2.76919
2.77016
2.77122
2.7726
2.77438
2.77629
2.77797
2.77927
2.78023
2.78126
2.78291
2.78535
2.78819
2.79102
2.7935
2.79525
2.79601
2.79602
2.79602
2.79634
2.79669
2.79661
2.79612
2.79583
2.79642
2.79805
2.80095
2.80441
2.80667
2.80711
2.8067
2.80585
2.80564
2.80661
2.80854
2.81111
2.81387
2.81707
2.82177
2.82843
2.83641
2.84364
2.8482
2.84955
1
1
1
1
1
1
1
1
1
1
1
1
1
1
1
1
1
1
1
1
1
1
1
1
1
1
1
1
1
1
1
1
1
1
1
1
1
1
1
1
1
1
1
1
1
1
1
1
1
1
1
1
1
1
1
1
1
1
1
1
1
1
1
1
1
1
1
1
1
1
1
1
1
1
1
1
1
1
1
1
1
1
1
1
1
1
1
1
1
1
1
1
1
1
1
1
1
1
1
1
1.41248
2.51332
2.68647
2.68866
2.69074
2.69165
2.69276
2.6947
2.69788
2.70184
2.70544
2.7076
2.70833
2.70864
2.70952
2.71157
2.71472
2.71826
2.72137
2.7235
2.72471
2.72571
2.72703
2.72887
2.73113
2.73327
2.7349
2.73591
2.73648
2.73747
2.73929
2.74198
2.7451
2.74809
2.75049
2.75214
2.75321
2.75405
2.75499
2.75624
2.75775
2.75932
2.76077
2.76205
2.76325
2.76443
2.76565
2.767
2.76841
2.76983
2.77122
2.7726
2.77396
2.77526
2.77652
2.77779
2.77919
2.78086
2.78291
2.78519
2.78745
2.78974
2.79201
2.79389
2.79496
2.79531
2.7955
2.79571
2.79574
2.79536
2.79478
2.79462
2.7953
2.79716
2.80019
2.80356
2.80563
2.80594
2.80551
2.80479
2.80481
2.80592
2.8078
2.81012
2.8126
2.8157
2.82049
2.82735
2.83551
2.84281
2.84725
2.8485
1
1
1
1
1
1
1
1
1
1
1
1
1
1
1
1
1
1
1
1
1
1
1
1
1
1
1
1
1
1
1
1
1
1
1
1
1
1
1
1
1
1
1
1
1
1
1
1
1
1
1
1
1
1
1
1
1
1
1
1
1
1
1
1
1
1
1
1
1
1
1
1
1
1
1
1
1
1
1
1
1
1
1
1
1
1
1
1
1
1
1
1
1
1
1
1
1
1
1
1
1.31559
2.47181
2.68426
2.68747
2.68932
2.69053
2.69199
2.69411
2.69706
2.70044
2.70346
2.70552
2.70668
2.70762
2.70897
2.71109
2.71394
2.71703
2.71977
2.72181
2.72318
2.72438
2.72582
2.72767
2.72988
2.732
2.73371
2.73485
2.73558
2.73666
2.73842
2.74086
2.74365
2.74635
2.74867
2.75049
2.75193
2.75314
2.75429
2.75552
2.75682
2.75822
2.7596
2.76092
2.7622
2.76345
2.76475
2.76622
2.76784
2.76953
2.77108
2.77232
2.77323
2.77404
2.77504
2.77644
2.77834
2.7806
2.7829
2.7849
2.7866
2.7884
2.79049
2.7925
2.79392
2.79464
2.79491
2.79489
2.79457
2.79387
2.79337
2.79348
2.79433
2.79635
2.79934
2.80249
2.8044
2.8047
2.80435
2.80379
2.80395
2.80511
2.8069
2.80901
2.81129
2.81434
2.8192
2.82621
2.83452
2.84186
2.84623
2.84743
1
1
1
1
1
1
1
1
1
1
1
1
1
1
1
1
1
1
1
1
1
1
1
1
1
1
1
1
1
1
1
1
1
1
1
1
1
1
1
1
1
1
1
1
1
1
1
1
1
1
1
1
1
1
1
1
1
1
1
1
1
1
1
1
1
1
1
1
1
1
1
1
1
1
1
1
1
1
1
1
1
1
1
1
1
1
1
1
1
1
1
1
1
1
1
1
1
1
1
1
1.21551
2.41979
2.68234
2.68646
2.68839
2.68988
2.6917
2.69401
2.69673
2.69952
2.70192
2.70383
2.70545
2.70703
2.70877
2.71086
2.71331
2.71585
2.7182
2.72017
2.72175
2.72321
2.72481
2.72668
2.72879
2.73082
2.73254
2.73381
2.73476
2.73598
2.7377
2.73987
2.74225
2.74459
2.74679
2.74882
2.75069
2.75235
2.75374
2.75492
2.75597
2.75707
2.7583
2.75965
2.76108
2.76256
2.76413
2.76582
2.76758
2.76931
2.77074
2.77168
2.77219
2.7727
2.77364
2.77532
2.77767
2.78028
2.78263
2.78434
2.78559
2.78706
2.78902
2.79115
2.79287
2.79387
2.79419
2.79395
2.79322
2.79234
2.79194
2.79232
2.79343
2.79555
2.79838
2.80123
2.80303
2.80344
2.80322
2.80284
2.80305
2.80416
2.80582
2.80777
2.80996
2.81298
2.8179
2.82502
2.83342
2.84081
2.84516
2.84636
1
1
1
1
1
1
1
1
1
1
1
1
1
1
1
1
1
1
1
1
1
1
1
1
1
1
1
1
1
1
1
1
1
1
1
1
1
1
1
1
1
1
1
1
1
1
1
1
1
1
1
1
1
1
1
1
1
1
1
1
1
1
1
1
1
1
1
1
1
1
1
1
1
1
1
1
1
1
1
1
1
1
1
1
1
1
1
1
1
1
1
1
1
1
1
1
1
1
1
1
1.11202
2.36313
2.68265
2.68565
2.68785
2.6897
2.69188
2.69444
2.69701
2.69931
2.70125
2.70296
2.70475
2.70674
2.70882
2.71093
2.71297
2.71498
2.71695
2.71885
2.72061
2.72231
2.72407
2.72597
2.72797
2.72987
2.73154
2.73288
2.73402
2.73537
2.73705
2.73898
2.74099
2.74297
2.74504
2.74721
2.74946
2.75156
2.75324
2.75447
2.75531
2.75608
2.75703
2.75827
2.75983
2.76167
2.76368
2.76569
2.76751
2.76902
2.77003
2.77053
2.77078
2.77127
2.77247
2.77456
2.77721
2.77988
2.78204
2.78345
2.78444
2.78574
2.78767
2.78989
2.79182
2.79297
2.79328
2.79282
2.79176
2.79081
2.79055
2.79113
2.79249
2.79466
2.79727
2.79984
2.80159
2.80218
2.8021
2.80189
2.80208
2.80306
2.80457
2.80644
2.80862
2.81163
2.81657
2.82375
2.83221
2.83966
2.84403
2.84527
1
1
1
1
1
1
1
1
1
1
1
1
1
1
1
1
1
1
1
1
1
1
1
1
1
1
1
1
1
1
1
1
1
1
1
1
1
1
1
1
1
1
1
1
1
1
1
1
1
1
1
1
1
1
1
1
1
1
1
1
1
1
1
1
1
1
1
1
1
1
1
1
1
1
1
1
1
1
1
1
1
1
1
1
1
1
1
1
1
1
1
1
1
1
1
1
1
1
1
1
1.01132
2.30575
2.68448
2.68592
2.68787
2.68993
2.69221
2.69452
2.69679
2.69893
2.70101
2.70306
2.70508
2.70709
2.70903
2.71082
2.71249
2.71421
2.71601
2.7179
2.71979
2.72168
2.72359
2.72553
2.72747
2.72927
2.73087
2.7322
2.73342
2.73482
2.73645
2.73822
2.73998
2.7417
2.74362
2.74581
2.74826
2.7507
2.75271
2.75409
2.75483
2.75529
2.75585
2.75681
2.75841
2.76068
2.76329
2.76571
2.76756
2.76867
2.76905
2.76908
2.76921
2.76991
2.77161
2.77411
2.77681
2.77925
2.78108
2.78223
2.78317
2.78449
2.78643
2.78873
2.79076
2.79192
2.79212
2.79148
2.79027
2.78932
2.7892
2.78991
2.79145
2.79362
2.79604
2.79838
2.80014
2.80093
2.80099
2.8009
2.80104
2.80182
2.80319
2.80503
2.80724
2.81025
2.81521
2.8224
2.8309
2.83842
2.84285
2.84413
1
1
1
1
1
1
1
1
1
1
1
1
1
1
1
1
1
1
1
1
1
1
1
1
1
1
1
1
1
1
1
1
1
1
1
1
1
1
1
1
1
1
1
1
1
1
1
1
1
1
1
1
1
1
1
1
1
1
1
1
1
1
1
1
1
1
1
1
1
1
1
1
1
1
1
1
1
1
1
1
1
1
1
1
1
1
1
1
1
1
1
1
1
1
1
1
1
1
1
1
1.0001
2.23913
2.68292
2.68599
2.68783
2.69009
2.69247
2.6947
2.69686
2.69904
2.7013
2.70359
2.70577
2.70769
2.70936
2.71084
2.71231
2.71387
2.71554
2.71738
2.71931
2.72128
2.72328
2.72529
2.72723
2.72898
2.7305
2.73178
2.73296
2.73431
2.73585
2.73752
2.73915
2.74074
2.74254
2.74469
2.74723
2.74992
2.75222
2.75381
2.75451
2.75469
2.75485
2.75542
2.75698
2.75966
2.76286
2.76567
2.76745
2.76804
2.76785
2.76751
2.76764
2.76875
2.77101
2.77379
2.77637
2.77842
2.77986
2.78079
2.78177
2.78323
2.78526
2.78761
2.78964
2.79069
2.79073
2.79
2.78878
2.78789
2.78785
2.78865
2.79028
2.79241
2.79468
2.7969
2.7987
2.79966
2.79985
2.79982
2.79991
2.80049
2.80174
2.80353
2.80576
2.80882
2.81379
2.82099
2.82952
2.83711
2.84161
2.84291
1
1
1
1
1
1
1
1
1
1
1
1
1
1
1
1
1
1
1
1
1
1
1
1
1
1
1
1
1
1
1
1
1
1
1
1
1
1
1
1
1
1
1
1
1
1
1
1
1
1
1
1
1
1
1
1
1
1
1
1
1
1
1
1
1
1
1
1
1
1
1
1
1
1
1
1
1
1
1
1
1
1
1
1
1
1
1
1
1
1
1
1
1
1
1
1
1
1
1
1
1
2.15988
2.68124
2.68483
2.68674
2.68924
2.69182
2.69428
2.6967
2.69928
2.70189
2.70441
2.70658
2.70829
2.70968
2.71094
2.71227
2.71365
2.71516
2.71691
2.71886
2.72095
2.72312
2.72527
2.72724
2.72891
2.73031
2.73146
2.73254
2.73382
2.73531
2.73692
2.73849
2.74
2.74169
2.74381
2.74644
2.74931
2.75181
2.75351
2.75412
2.75407
2.75387
2.75418
2.75571
2.75871
2.76233
2.76539
2.767
2.76717
2.76662
2.76606
2.76631
2.76785
2.77053
2.77339
2.77577
2.77742
2.77842
2.77924
2.78032
2.78194
2.7841
2.78646
2.78838
2.78926
2.78917
2.78843
2.78732
2.78655
2.78652
2.78732
2.78895
2.79103
2.79322
2.79542
2.79728
2.79835
2.79864
2.79864
2.79869
2.79914
2.80025
2.80193
2.80418
2.80732
2.81231
2.81953
2.82811
2.83573
2.84027
2.84154
1
1
1
1
1
1
1
1
1
1
1
1
1
1
1
1
1
1
1
1
1
1
1
1
1
1
1
1
1
1
1
1
1
1
1
1
1
1
1
1
1
1
1
1
1
1
1
1
1
1
1
1
1
1
1
1
1
1
1
1
1
1
1
1
1
1
1
1
1
1
1
1
1
1
1
1
1
1
1
1
1
1
1
1
1
1
1
1
1
1
1
1
1
1
1
1
1
1
1
1
1
2.06714
2.67285
2.68179
2.68398
2.68717
2.69035
2.69346
2.69646
2.69944
2.7022
2.70483
2.70703
2.70866
2.70992
2.71101
2.71213
2.71328
2.71462
2.71632
2.71834
2.72061
2.72298
2.72526
2.72721
2.7288
2.73009
2.73115
2.73218
2.73344
2.73484
2.73634
2.73781
2.73922
2.7409
2.74315
2.74594
2.74894
2.75152
2.75315
2.75356
2.75333
2.75293
2.75316
2.75476
2.7579
2.76161
2.76467
2.76617
2.76614
2.76545
2.76492
2.76534
2.76716
2.76994
2.77272
2.77489
2.7762
2.77695
2.77768
2.77887
2.78066
2.78291
2.78519
2.78691
2.78764
2.78747
2.78678
2.78591
2.78529
2.78521
2.78592
2.78746
2.7895
2.79168
2.79394
2.79585
2.79695
2.79731
2.79734
2.79741
2.79778
2.79872
2.80024
2.80245
2.80569
2.81075
2.81804
2.82668
2.83432
2.83884
2.84
1
1
1
1
1
1
1
1
1
1
1
1
1
1
1
1
1
1
1
1
1
1
1
1
1
1
1
1
1
1
1
1
1
1
1
1
1
1
1
1
1
1
1
1
1
1
1
1
1
1
1
1
1
1
1
1
1
1
1
1
1
1
1
1
1
1
1
1
1
1
1
1
1
1
1
1
1
1
1
1
1
1
1
1
1
1
1
1
1
1
1
1
1
1
1
1
1
1
1
1
1
1.96357
2.65579
2.6774
2.67964
2.68337
2.68735
2.69141
2.69532
2.6988
2.70189
2.70478
2.70712
2.70875
2.7099
2.7108
2.71165
2.71252
2.71368
2.71539
2.71758
2.7201
2.7227
2.72507
2.72697
2.7285
2.72974
2.73077
2.73184
2.73307
2.73432
2.73561
2.73694
2.73832
2.74016
2.7427
2.74569
2.74874
2.75123
2.75262
2.75276