/*--------------------------------*- C++ -*----------------------------------*\
  =========                 |
  \\      /  F ield         | OpenFOAM: The Open Source CFD Toolbox
   \\    /   O peration     | Website:  https://openfoam.org
    \\  /    A nd           | Version:  7
     \\/     M anipulation  |
\*---------------------------------------------------------------------------*/
FoamFile
{
    version     2.0;
    format      ascii;
    class       volScalarField;
    location    "0.4";
    object      p;
}
// * * * * * * * * * * * * * * * * * * * * * * * * * * * * * * * * * * * * * //

dimensions      [1 -1 -2 0 0 0 0];

internalField   nonuniform List<scalar> 
4032
(
1
1
1
1
1
1
1
1
1
1
1
1
1
1
1
2.94745
10.1765
11.4259
11.4836
11.8923
12.1216
12.2475
12.3216
12.3855
1
1
1
1
1
1
1
1
1
1
1
1
1
1
1
2.82986
9.95791
11.3555
11.4775
11.8553
12.0726
12.1885
12.2534
12.3108
1
1
1
1
1
1
1
1
1
1
1
1
1
1
1
2.53501
9.5727
11.2862
11.41
11.7828
11.9972
12.1171
12.176
12.2236
1
1
1
1
1
1
1
1
1
1
1
1
1
1
1
2.08039
8.96084
11.2285
11.3153
11.6895
11.903
12.0282
12.0702
12.0907
1
1
1
1
1
1
1
1
1
1
1
1
1
1
1
1.49119
8.00181
11.1586
11.2052
11.5495
11.733
11.845
11.8862
11.9311
1
1
1
1
1
1
1
1
1
1
1
1
1
1
1
1.03446
6.69515
11.0036
11.0547
11.323
11.5182
11.6333
11.683
11.6543
1
1
1
1
1
1
1
1
1
1
1
1
1
1
1
1.00034
5.15722
10.6178
10.8904
11.0666
11.2184
11.2699
11.2235
11.2296
1
1
1
1
1
1
1
1
1
1
1
1
1
1
1
1
3.5595
9.97318
10.7122
10.8042
10.8999
10.9237
10.7696
10.8309
1
1
1
1
1
1
1
1
1
1
1
1
1
1
1
1
2.05549
8.85908
10.5231
10.468
10.4717
10.3161
9.53659
7.4422
1
1
1
1
1
1
1
1
1
1
1
1
1
1
1
1
1.09651
7.02316
10.1924
10.0091
9.90525
9.4947
8.62526
6.62389
1
1
1
1
1
1
1
1
1
1
1
1
1
1
1
1
1.00114
4.36518
9.54876
9.74607
9.44391
8.85461
7.97793
6.21023
1
1
1
1
1
1
1
1
1
1
1
1
1
1
1
1
1
1.80619
8.1394
9.61663
9.07434
8.42589
7.50053
6.06326
1
1
1
1
1
1
1
1
1
1
1
1
1
1
1
1
1
1.04326
5.2727
9.05839
8.75739
8.18621
7.27965
6.0862
1
1
1
1
1
1
1
1
1
1
1
1
1
1
1
1
1
1.00017
2.00006
7.78468
8.72092
8.03989
7.20889
6.17321
1
1
1
1
1
1
1
1
1
1
1
1
1
1
1
1
1
1
1.05773
4.47071
8.1729
7.93724
7.18755
6.30718
1
1
1
1
1
1
1
1
1
1
1
1
1
1
1
1
1
1
1.00035
1.60353
6.2142
7.92387
7.22149
6.3432
1
1
1
1
1
1
1
1
1
1
1
1
1
1
1
1
1
1
1
1.02057
2.66421
6.9198
7.37275
6.52846
1
1
1
1
1
1
1
1
1
1
1
1
1
1
1
1
1
1
1
1.00009
1.1428
3.82653
6.74757
6.73042
1
1
1
1
1
1
1
1
1
1
1
1
1
1
1
1
1
1
1
1
1.00184
1.43401
4.46928
6.22638
1
1
1
1
1
1
1
1
1
1
1
1
1
1
1
1
1
1
1
1
1
1.01205
1.74963
4.50082
1
1
1
1
1
1
1
1
1
1
1
1
1
1
1
1
1
1
1
1
1
1.00005
1.03253
1.89713
1
1
1
1
1
1
1
1
1
1
1
1
1
1
1
1
1
1
1
1
1
1
1.00022
1.04831
1
1
1
1
1
1
1
1
1
1
1
1
1
1
1
1
1
1
1
1
1
1
1
1.0004
1
1
1
1
1
1
1
1
1
1
1
1
1
1
1
1
1
1
1
1
1
1
1
1
1
1
1
1
1
1
1
1
1
1
1
1
1
1
1
1
1
1
1
1
1
1
1
1
1
1
1
1
1
1
1
1
1
1
1
1
1
1
1
1
1
1
1
1
1
1
1
1
1
1
1
1
1
1
1
1
1
1
1
1
1
1
1
1
1
1
1
1
1
1
1
1
1
1
1
1
1
1
1
1
1
1
1
1
1
1
1
1
1
1
1
1
1
1
1
1
1
1
1
1
1
1
1
1
1
1
1
1
1
1
1
1
1
1
1
1
1
1
1
1
1
1
1
1
1
1
1
1
1
1
1
1
1
1
1
1
1
1
1
1
1
1
1
1
1
1
1
1
1
1
1
1
1
1
1
1
1
1
1
1
1
1
1
1
1
1
1
1
1
1
1
1
1
1
1
1
1
1
1
1
1
1
1
1
1
1
1
1
1
1
1
1
1
1
1
1
1
1
1
1
1
1
1
1
1
1
1
1
1
1
1
1
1
1
1
1
1
1
1
1
1
1
1
1
1
1
1
1
1
1
1
1
1
1
1
1
1
1
1
1
1
1
1
1
1
1
1
1
1
1
1
1
1
1
1
1
1
1
1
1
1
1
1
1
1
1
1
1
1
1
1
1
1
1
1
1
1
1
1
1
1
1
1
1
1
1
1
1
1
1
1
1
1
1
1
1
1
1
1
1
1
1
1
1
1
1
1
1
1
1
1
1
1
1
1
1
1
1
1
1
1
1
1
1
1
1
1
1
1
1
1
1
1
1
1
1
1
1
1
1
1
1
1
1
1
1
1
1
1
1
1
1
1
1
1
1
1
1
1
1
1
1
1
1
1
1
1
1
1
1
1
1
1
1
1
1
1
1
1
1
1
1
1
1
1.65332
0.457832
0.24028
0.201659
0.200208
0.259391
0.388576
0.521618
0.663135
0.813467
0.990394
1.09962
1.08355
1.02092
0.941078
0.90613
0.893346
0.909267
0.922018
0.915902
0.913599
0.898172
0.863831
0.829198
0.805602
0.789869
0.789748
0.821989
0.87809
0.900629
0.904129
0.9047
0.902656
0.909682
0.913594
0.91397
0.920595
0.940023
0.965858
0.985129
0.988412
0.97052
0.948675
0.960351
0.991872
0.991803
0.98404
0.976647
0.973578
0.972104
0.973325
0.986925
1.01857
1.0455
1.05074
1.05077
1.05031
1.04912
1.04645
1.04045
1.02811
1.01036
1.001
1.00001
1
1
1
1
1
1
1
1
1
1
1
1
1
1
1
1
1
1
1
1
1
1
1
1
1
1
1
1
1
1
1
1
2.89283
1.41819
1.02506
0.819462
0.60918
0.531531
0.551785
0.539919
0.541835
0.594066
0.681021
0.805206
0.880474
0.89918
0.900967
0.897845
0.892542
0.898237
0.890061
0.87897
0.883279
0.880787
0.867612
0.852407
0.837808
0.825614
0.820223
0.836076
0.866458
0.874964
0.878114
0.880369
0.889207
0.895239
0.896973
0.899062
0.907899
0.925052
0.945722
0.958471
0.956933
0.950265
0.948694
0.96756
0.985154
0.981054
0.974841
0.970438
0.968732
0.967937
0.970878
0.986279
1.01578
1.04333
1.05079
1.0509
1.05048
1.04941
1.04711
1.04166
1.02813
1.0094
1.00076
1.00001
1
1
1
1
1
1
1
1
1
1
1
1
1
1
1
1
1
1
1
1
1
1
1
1
1
1
1
1
1
1
1
1
3.81596
2.4147
1.70482
1.34387
1.05361
0.842778
0.759101
0.669375
0.561241
0.550486
0.579016
0.62369
0.732821
0.823739
0.871277
0.901338
0.919432
0.918104
0.910345
0.892284
0.876563
0.866745
0.853758
0.844108
0.839198
0.838811
0.842133
0.857816
0.868963
0.866168
0.865688
0.867436
0.881557
0.895073
0.907512
0.922657
0.942863
0.960496
0.965904
0.958581
0.945952
0.940402
0.957197
0.98872
0.993754
0.985084
0.977837
0.973521
0.972162
0.972108
0.978435
0.995545
1.02147
1.04452
1.05099
1.05137
1.05147
1.051
1.04854
1.04139
1.02596
1.00727
1.00042
1
1
1
1
1
1
1
1
1
1
1
1
1
1
1
1
1
1
1
1
1
1
1
1
1
1
1
1
1
1
1
1
1
4.40457
3.20128
2.43312
1.92375
1.50509
1.19565
1.06188
0.955189
0.802922
0.675621
0.668979
0.658068
0.659891
0.701503
0.752313
0.804438
0.850964
0.869023
0.875252
0.872121
0.864093
0.861102
0.857156
0.849282
0.847585
0.860933
0.872051
0.873477
0.863747
0.854392
0.852547
0.860798
0.873703
0.887369
0.90143
0.920408
0.944709
0.961047
0.959196
0.945082
0.933633
0.943409
0.983341
1.00306
0.989869
0.980909
0.973847
0.970689
0.969833
0.971667
0.982484
1.00181
1.02632
1.04709
1.0529
1.05334
1.05354
1.0532
1.05048
1.04153
1.02259
1.00454
1.00015
1
1
1
1
1
1
1
1
1
1
1
1
1
1
1
1
1
1
1
1
1
1
1
1
1
1
1
1
1
1
1
1
1
4.81684
3.75568
2.95958
2.41755
1.97523
1.59266
1.36288
1.19571
1.01484
0.836342
0.78564
0.752012
0.684428
0.67968
0.70697
0.742949
0.785518
0.808711
0.814875
0.811984
0.808823
0.811579
0.820969
0.831287
0.852632
0.889636
0.902669
0.889082
0.869955
0.846884
0.841236
0.844298
0.852836
0.872186
0.899589
0.921863
0.933784
0.935483
0.928971
0.924124
0.943412
0.993963
1.01769
0.997721
0.983594
0.973296
0.968049
0.967884
0.969951
0.97629
0.987968
1.00542
1.02981
1.05112
1.05658
1.05701
1.05717
1.05639
1.05189
1.03916
1.01678
1.00204
1.00003
1
1
1
1
1
1
1
1
1
1
1
1
1
1
1
1
1
1
1
1
1
1
1
1
1
1
1
1
1
1
1
1
1
5.09209
4.1389
3.39932
2.85993
2.37735
1.93993
1.67125
1.49632
1.30195
1.04868
0.953838
0.914982
0.840369
0.76347
0.764489
0.774763
0.763201
0.748186
0.750266
0.758176
0.762819
0.767547
0.777211
0.792134
0.821338
0.854455
0.874654
0.870177
0.85706
0.839039
0.831182
0.834264
0.851957
0.889648
0.936482
0.961702
0.960562
0.955526
0.959047
0.979682
1.02378
1.03575
1.00523
0.984718
0.971091
0.961701
0.960982
0.962035
0.966781
0.97842
0.992747
1.00942
1.03355
1.05578
1.06147
1.06211
1.06237
1.06116
1.05399
1.03439
1.00961
1.00054
1
1
1
1
1
1
1
1
1
1
1
1
1
1
1
1
1
1
1
1
1
1
1
1
1
1
1
1
1
1
1
1
1
1
5.38507
4.52111
3.72597
3.1817
2.7487
2.32479
1.96449
1.74804
1.54005
1.30621
1.16637
1.08982
0.99469
0.865777
0.825618
0.811892
0.775621
0.742812
0.746209
0.756183
0.75259
0.744503
0.739542
0.751822
0.78195
0.810028
0.821483
0.820989
0.816515
0.814429
0.818842
0.833334
0.858993
0.896258
0.941665
0.978848
0.995911
1.00504
1.01797
1.03905
1.03952
1.01098
0.986086
0.969078
0.954094
0.950329
0.950779
0.953575
0.962718
0.980512
1.00015
1.01898
1.04318
1.06317
1.06737
1.06802
1.06824
1.06591
1.05269
1.02482
1.00357
1.00006
1
1
1
1
1
1
1
1
1
1
1
1
1
1
1
1
1
1
1
1
1
1
1
1
1
1
1
1
1
1
1
1
1
1
5.55361
4.80353
4.07229
3.51062
3.06277
2.61087
2.24174
2.00834
1.78541
1.51373
1.36389
1.28179
1.19003
1.0498
0.960583
0.929081
0.876729
0.821808
0.794929
0.788367
0.769975
0.747411
0.738034
0.737297
0.748498
0.758615
0.756554
0.755413
0.759312
0.769969
0.789892
0.818702
0.846414
0.869552
0.896095
0.927117
0.950923
0.969614
0.986042
1.00275
1.00248
0.98526
0.968329
0.948871
0.93755
0.937168
0.938374
0.943988
0.95779
0.977908
1.00101
1.02965
1.06137
1.07591
1.07765
1.07825
1.0777
1.06959
1.04406
1.01183
1.0006
1
1
1
1
1
1
1
1
1
1
1
1
1
1
1
1
1
1
1
1
1
1
1
1
1
1
1
1
1
1
1
1
1
1
1
5.70669
5.01519
4.30913
3.72052
3.35163
2.96638
2.52876
2.21196
1.99813
1.77646
1.59025
1.46943
1.35478
1.20909
1.13334
1.08438
1.01075
0.927898
0.848956
0.817881
0.796629
0.761572
0.744307
0.742074
0.751914
0.747846
0.737087
0.731986
0.734901
0.745084
0.769669
0.797474
0.815827
0.822672
0.833038
0.856491
0.884403
0.908331
0.937303
0.946649
0.936727
0.926343
0.91558
0.907386
0.907567
0.91183
0.92468
0.946668
0.967772
0.98264
1.00417
1.04213
1.07954
1.08934
1.09076
1.09137
1.08794
1.06573
1.02568
1.00253
1.00002
1
1
1
1
1
1
1
1
1
1
1
1
1
1
1
1
1
1
1
1
1
1
1
1
1
1
1
1
1
1
1
1
1
1
1
5.98271
5.24139
4.60006
3.99059
3.52225
3.17097
2.82966
2.52166
2.22454
1.94469
1.7944
1.68547
1.56158
1.37781
1.28195
1.23184
1.15069
1.04869
0.95513
0.910445
0.893817
0.849397
0.81449
0.806437
0.800992
0.786131
0.771873
0.761184
0.758066
0.763989
0.776037
0.780926
0.777185
0.774041
0.77456
0.781764
0.798687
0.828615
0.849302
0.851414
0.855044
0.862689
0.871198
0.87858
0.886016
0.896454
0.914205
0.938201
0.966756
0.997565
1.03379
1.08029
1.10601
1.10963
1.11083
1.10951
1.08879
1.04291
1.00636
1.00012
1
1
1
1
1
1
1
1
1
1
1
1
1
1
1
1
1
1
1
1
1
1
1
1
1
1
1
1
1
1
1
1
1
1
1
1
6.17386
5.54987
4.86896
4.24732
3.78054
3.39025
3.02324
2.76644
2.5137
2.20797
1.95927
1.85192
1.73933
1.57164
1.46298
1.38758
1.28698
1.15643
1.04585
1.0099
1.00362
0.967
0.909703
0.882038
0.858254
0.835778
0.819138
0.805654
0.798189
0.799722
0.798398
0.786736
0.775829
0.771716
0.770961
0.773821
0.785904
0.793022
0.804459
0.819025
0.836075
0.855173
0.873341
0.888991
0.901649
0.911463
0.922177
0.939019
0.964476
1.00699
1.0722
1.1241
1.1355
1.13761
1.13748
1.11564
1.06161
1.01112
1.00029
1
1
1
1
1
1
1
1
1
1
1
1
1
1
1
1
1
1
1
1
1
1
1
1
1
1
1
1
1
1
1
1
1
1
1
1
1
5.75544
5.75746
5.25727
4.58132
4.045
3.61005
3.21801
2.97752
2.77171
2.4852
2.19515
2.0438
1.91642
1.74292
1.62718
1.54397
1.43823
1.29307
1.16604
1.13431
1.12832
1.09274
1.02339
0.980371
0.952272
0.934054
0.923386
0.906135
0.887098
0.87083
0.851486
0.836471
0.830081
0.819101
0.800171
0.784623
0.780139
0.785612
0.794481
0.80694
0.823993
0.843625
0.863212
0.882164
0.902716
0.926813
0.949817
0.974929
1.01162
1.07518
1.14653
1.17118
1.17446
1.17409
1.14659
1.07934
1.0149
1.00042
1
1
1
1
1
1
1
1
1
1
1
1
1
1
1
1
1
1
1
1
1
1
1
1
1
1
1
1
1
1
1
1
1
1
1
1
1
1
4.25069
5.32137
5.38758
4.99464
4.42791
3.93582
3.47339
3.12799
2.95053
2.73554
2.43871
2.22755
2.10752
1.95228
1.80677
1.69651
1.58605
1.43775
1.30839
1.28207
1.27379
1.23231
1.14837
1.08507
1.05264
1.03646
1.03175
1.01245
0.978481
0.945569
0.917755
0.901289
0.890871
0.874285
0.852494
0.828113
0.804812
0.800987
0.805771
0.817332
0.833901
0.852483
0.870988
0.888974
0.907879
0.930606
0.965584
1.01629
1.08946
1.17611
1.21845
1.22351
1.22013
1.17922
1.09191
1.01594
1.00041
1
1
1
1
1
1
1
1
1
1
1
1
1
1
1
1
1
1
1
1
1
1
1
1
1
1
1
1
1
1
1
1
1
1
1
1
1
1
1
1.86502
3.81708
5.0225
5.00078
4.78904
4.39293
3.87944
3.43048
3.1265
2.91176
2.67984
2.42606
2.26104
2.12646
1.98703
1.85839
1.74128
1.59872
1.48025
1.4474
1.42259
1.37218
1.28288
1.20185
1.16806
1.15425
1.14835
1.11831
1.07106
1.02692
0.999517
0.985902
0.974726
0.957442
0.935422
0.912603
0.893707
0.889391
0.892024
0.901087
0.914919
0.931117
0.94838
0.967124
0.989353
1.01991
1.06655
1.13811
1.22573
1.27507
1.28184
1.26849
1.2068
1.096
1.01394
1.00028
1
1
1
1
1
1
1
1
1
1
1
1
1
1
1
1
1
1
1
1
1
1
1
1
1
1
1
1
1
1
1
1
1
1
1
1
1
1
1
1
1.0497
1.66938
3.30622
4.52106
4.7457
4.63491
4.30601
3.85739
3.46516
3.17232
2.93699
2.68416
2.4426
2.25508
2.12961
2.02363
1.91301
1.74961
1.66131
1.62848
1.56202
1.49348
1.4142
1.32353
1.28393
1.27014
1.25843
1.22249
1.16081
1.11095
1.08777
1.07716
1.06174
1.03821
1.01069
0.986477
0.972182
0.968517
0.968848
0.973716
0.985359
1.00356
1.02742
1.05756
1.09673
1.15054
1.22381
1.30139
1.33772
1.33722
1.30505
1.22189
1.08923
1.01
1.00014
1
1
1
1
1
1
1
1
1
1
1
1
1
1
1
1
1
1
1
1
1
1
1
1
1
1
1
1
1
1
1
1
1
1
1
1
1
1
1
1
1
1.00045
1.03039
1.45213
2.74425
3.96505
4.36158
4.30782
4.20327
3.98185
3.65176
3.31768
3.00225
2.71612
2.46517
2.29627
2.20501
2.11096
1.92771
1.81887
1.78388
1.71585
1.61143
1.5283
1.45444
1.4086
1.38897
1.36825
1.32171
1.24998
1.209
1.19266
1.18051
1.1607
1.13503
1.11306
1.10138
1.09801
1.09893
1.10416
1.11388
1.12987
1.15338
1.18501
1.22621
1.27919
1.33971
1.38345
1.39123
1.37505
1.32395
1.21643
1.0705
1.00563
1.00005
1
1
1
1
1
1
1
1
1
1
1
1
1
1
1
1
1
1
1
1
1
1
1
1
1
1
1
1
1
1
1
1
1
1
1
1
1
1
1
1
1
1
1
1.0002
1.01673
1.24205
2.0964
3.16408
3.8385
4.0571
4.05623
3.91299
3.68191
3.41804
3.1501
2.86716
2.62421
2.48072
2.36481
2.17245
2.00496
1.94856
1.89249
1.77136
1.6477
1.59844
1.56159
1.52669
1.48969
1.4269
1.36139
1.33579
1.31932
1.30237
1.28108
1.25915
1.24746
1.24457
1.24743
1.25477
1.26732
1.2867
1.31386
1.34796
1.38648
1.42178
1.44281
1.44424
1.42645
1.38918
1.3187
1.1803
1.04304
1.00222
1.00001
1
1
1
1
1
1
1
1
1
1
1
1
1
1
1
1
1
1
1
1
1
1
1
1
1
1
1
1
1
1
1
1
1
1
1
1
1
1
1
1
1
1
1
1
1
1.00009
1.00539
1.08541
1.49633
2.36844
3.21783
3.74624
3.77081
3.64779
3.53014
3.46428
3.31724
3.10289
2.91185
2.74646
2.5483
2.32462
2.19722
2.12542
2.00428
1.84669
1.78987
1.76162
1.72007
1.65897
1.57566
1.53144
1.51442
1.49641
1.47539
1.45787
1.44878
1.44745
1.45255
1.46136
1.47345
1.48854
1.50465
1.51766
1.52329
1.51803
1.49935
1.47252
1.44007
1.3838
1.27184
1.11591
1.01805
1.00054
1
1
1
1
1
1
1
1
1
1
1
1
1
1
1
1
1
1
1
1
1
1
1
1
1
1
1
1
1
1
1
1
1
1
1
1
1
1
1
1
1
1
1
1
1
1
1
1
1.00001
1.00088
1.02024
1.17377
1.68138
2.41898
3.07051
3.28929
3.38447
3.38815
3.35272
3.25306
3.13021
3.01244
2.88942
2.73848
2.57343
2.45342
2.34278
2.1952
2.10042
2.05795
2.00659
1.92246
1.83252
1.7983
1.77858
1.75708
1.73362
1.71719
1.70912
1.70283
1.69508
1.68398
1.66759
1.64468
1.61641
1.58622
1.55485
1.52327
1.48574
1.427
1.32597
1.17928
1.05039
1.00448
1.00007
1
1
1
1
1
1
1
1
1
1
1
1
1
1
1
1
1
1
1
1
1
1
1
1
1
1
1
1
1
1
1
1
1
1
1
1
1
1
1
1
1
1
1
1
1
1
1
1
1
1
1
1.0001
1.00324
1.03881
1.20092
1.60268
2.15821
2.61551
2.94705
3.13532
3.13701
3.07373
2.98557
2.91045
2.8336
2.7307
2.62197
2.55021
2.47118
2.37819
2.30961
2.2523
2.18116
2.11026
2.06039
2.02151
1.98496
1.94798
1.91079
1.87198
1.83166
1.78981
1.74644
1.70242
1.6596
1.61828
1.57398
1.52089
1.44831
1.34299
1.2053
1.07604
1.01239
1.00057
1
1
1
1
1
1
1
1
1
1
1
1
1
1
1
1
1
1
1
1
1
1
1
1
1
1
1
1
1
1
1
1
1
1
1
1
1
1
1
1
1
1
1
1
1
1
1
1
1
1
1
1
1
1
1.00001
1.00025
1.00385
1.03178
1.1485
1.40004
1.78678
2.18866
2.49017
2.66166
2.73218
2.75432
2.74007
2.69063
2.60233
2.54065
2.48506
2.40894
2.33841
2.28325
2.22676
2.16638
2.11159
2.06514
2.02162
1.97703
1.93032
1.88256
1.83288
1.78052
1.72503
1.66503
1.59782
1.51884
1.42384
1.30939
1.18321
1.07505
1.01661
1.00143
1.00003
1
1
1
1
1
1
1
1
1
1
1
1
1
1
1
1
1
1
1
1
1
1
1
1
1
1
1
1
1
1
1
1
1
1
1
1
1
1
1
1
1
1
1
1
1
1
1
1
1
1
1
1
1
1
1
1
1
1.00001
1.00019
1.00249
1.01597
1.06646
1.185
1.37653
1.61892
1.86059
2.06633
2.21268
2.30069
2.33545
2.34711
2.34294
2.30966
2.25362
2.20523
2.16175
2.11341
2.06305
2.01398
1.9634
1.90775
1.84529
1.77547
1.69853
1.61463
1.52277
1.4229
1.3172
1.21173
1.11714
1.04775
1.01204
1.00147
1.00006
1
1
1
1
1
1
1
1
1
1
1
1
1
1
1
1
1
1
1
1
1
1
1
1
1
1
1
1
1
1
1
1
1
1
1
1
1
1
1
1
1
1
1
1
1
1
1
1
1
1
1
1
1
1
1
1
1
1
1
1
1
1
1.00006
1.00061
1.00364
1.01487
1.04559
1.10722
1.20102
1.31559
1.44283
1.56633
1.66812
1.7411
1.78012
1.78365
1.77795
1.76687
1.74612
1.71203
1.66485
1.6059
1.53625
1.45847
1.37662
1.29477
1.21636
1.14547
1.08656
1.04322
1.01663
1.00433
1.00063
1.00004
1
1
1
1
1
1
1
1
1
1
1
1
1
1
1
1
1
1
1
1
1
1
1
1
1
1
1
1
1
1
1
1
1
1
1
1
1
1
1
1
1
1
1
1
1
1
1
1
1
1
1
1
1
1
1
1
1
1
1
1
1
1
1
1
1
1
1.00001
1.00005
1.00035
1.00159
1.00514
1.01311
1.02858
1.05295
1.08328
1.11415
1.14074
1.16015
1.17348
1.17881
1.1767
1.1674
1.149
1.12376
1.09567
1.06867
1.04548
1.02734
1.0145
1.00651
1.00232
1.0006
1.0001
1.00001
1
1
1
1
1
1
1
1
1
1
1
1
1
1
1
1
1
1
1
1
1
1
1
1
1
1
1
1
1
1
1
1
1
1
1
1
1
1
1
1
1
1
1
1
1
1
1
1
1
1
1
1
1
1
1
1
1
1
1
1
1
1
1
1
1
1
1
1
1
1
1
1
1.00001
1.00005
1.00018
1.00053
1.0012
1.00219
1.0034
1.00471
1.00589
1.00643
1.0064
1.00597
1.00494
1.00357
1.00226
1.00126
1.00061
1.00025
1.00008
1.00002
1
1
1
1
1
1
1
1
1
1
1
1
1
1
1
1
1
1
1
1
1
1
1
1
1
1
1
1
1
1
1
1
1
1
1
1
1
1
1
1
1
1
1
1
1
1
1
1
1
1
1
1
1
1
1
1
1
1
1
1
1
1
1
1
1
1
1
1
1
1
1
1
1
1
1
1
1
1
1
1
1
1
1.00001
1.00001
1.00002
1.00002
1.00002
1.00002
1.00001
1.00001
1
1
1
1
1
1
1
1
1
1
1
1
1
1
1
1
1
1
1
1
1
1
1
1
1
1
1
1
1
1
1
1
1
1
1
1
1
1
1
1
1
1
1
1
1
1
1
1
1
1
1
1
1
1
1
1
1
1
1
1
1
1
1
1
1
1
1
1
1
1
1
1
1
1
1
1
1
1
1
1
1
1
1
1
1
1
1
1
1
1
1
1
1
1
1
1
1
1
1
1
1
1
1
1
1
1
1
1
1
1
1
1
1
1
1
1
1
1
1
1
1
1
1
1
1
1
1
1
1
1
1
1
1
1
1
1
1
1
1
1
1
1
1
1
1
1
1
1
1
1
1
1
1
1
1
1
1
1
1
1
1
1
1
1
1
1
1
1
1
1
1
1
1
1
1
1
1
1
1
1
1
1
1
1
1
1
1
1
1
1
1
1
1
1
1
1
1
1
1
1
1
1
1
1
1
1
1
1
1
1
1
1
1
1
1
1
1
1
1
1
1
1
1
1
1
1
1
1
1
1
1
1
1
1
1
1
1
1
1
1
1
1
1
1
1
1
1
1
1
1
1
1
1
1
1
1
1
1
1
1
1
1
1
1
1
1
1
1
1
1
1
1
1
1
1
1
1
1
1
1
1
1
1
1
1
1
1
1
1
1
1
1
1
1
1
1
1
1
1
1
1
1
1
1
1
1
1
1
1
1
1
1
1
1
1
1
1
1
1
1
1
1
1
1
1
1
1
1
1
1
1
1
1
1
1
1
1
1
1
1
1
1
1
1
1
1
1
1
1
1
1
1
1
1
1
1
1
1
1
1
1
1
1
1
1
1
1
1
1
1
1
1
1
1
1
1
1
1
1
1
1
1
1
1
1
1
1
1
1
1
1
1
1
1
1
1
1
1
1
1
1
1
1
1
1
1
1
1
1
1
1
1
1
1
1
1
1
1
1
1
1
1
1
1
1
1
1
1
1
1
1
1
1
1
1
1
1
1
1
1
1
1
1
1
1
1
1
1
1
1
1
1
1
1
1
1
1
1
1
1
1
1
1
1
1
1
1
1
1
1
1
1
1
1
1
1
1
1
1
1
1
1
1
1
1
1
1
1
1
1
1
1
1
1
1
1
1
1
1
1
1
1
1
1
1
1
1
1
1
1
1
1
1
1
1
1
1
1
1
1
1
1
1
1
1
1
1
1
1
1
1
1
1
1
1
1
1
1
1
1
1
1
1
1
1
1
1
1
1
1
1
1
1
1
1
1
1
1
1
1
1
1
1
1
1
1
1
1
1
1
1
1
1
1
1
1
1
1
1
1
1
1
1
1
1
1
1
1
1
1
1
1
1
1
1
1
1
1
1
1
1
1
1
1
1
1
1
1
1
1
1
1
1
1
1
1
1
1
1
1
1
1
1
1
1
1
1
1
1
1
1
1
1
1
1
1
1
1
1
1
1
)
;

boundaryField
{
    inlet
    {
        type            fixedValue;
        value           uniform 1;
    }
    outlet
    {
        type            zeroGradient;
    }
    bottom
    {
        type            symmetryPlane;
    }
    top
    {
        type            symmetryPlane;
    }
    obstacle
    {
        type            zeroGradient;
    }
    defaultFaces
    {
        type            empty;
    }
}


// ************************************************************************* //
