/*--------------------------------*- C++ -*----------------------------------*\
  =========                 |
  \\      /  F ield         | OpenFOAM: The Open Source CFD Toolbox
   \\    /   O peration     | Website:  https://openfoam.org
    \\  /    A nd           | Version:  7
     \\/     M anipulation  |
\*---------------------------------------------------------------------------*/
FoamFile
{
    version     2.0;
    format      ascii;
    class       volVectorField;
    location    "0.4";
    object      U;
}
// * * * * * * * * * * * * * * * * * * * * * * * * * * * * * * * * * * * * * //

dimensions      [0 1 -1 0 0 0 0];

internalField   nonuniform List<vector> 
4032
(
(3 -3.82174e-17 0)
(3 -1.92734e-16 0)
(3 -5.60832e-16 0)
(3 9.38934e-17 0)
(3 3.08065e-17 0)
(3 -5.16176e-16 0)
(3 -9.10616e-16 0)
(3 -1.00806e-16 0)
(3 -7.45949e-17 0)
(3 -1.6054e-16 0)
(3 -4.4777e-16 0)
(3 -8.40768e-16 0)
(3 -5.64549e-16 0)
(3 -4.47274e-16 0)
(3 -3.08028e-16 0)
(2.12847 0.0155094 0)
(0.71918 0.0289394 0)
(0.54762 0.0235297 0)
(0.48855 0.0320208 0)
(0.381606 0.0367281 0)
(0.289737 0.0421053 0)
(0.197692 0.0443208 0)
(0.114263 0.0431624 0)
(0.0409807 0.044713 0)
(3 -1.22275e-16 0)
(3 -1.16115e-16 0)
(3 -2.08382e-16 0)
(3 1.89961e-16 0)
(3 -9.18519e-17 0)
(3 -1.07047e-15 0)
(3 -1.44243e-15 0)
(3 -9.97024e-16 0)
(3 -4.77866e-16 0)
(3 -6.34061e-17 0)
(3 -4.80708e-16 0)
(3 -8.39856e-16 0)
(3 -4.20657e-16 0)
(3 -1.42043e-16 0)
(3 6.4206e-16 0)
(2.16183 0.0738138 0)
(0.712533 0.117091 0)
(0.527678 0.0824922 0)
(0.461871 0.0890918 0)
(0.360304 0.108591 0)
(0.270121 0.126017 0)
(0.181882 0.132831 0)
(0.103602 0.130514 0)
(0.0367905 0.1354 0)
(3 2.71734e-18 0)
(3 -8.43346e-17 0)
(3 5.99183e-17 0)
(3 -2.56167e-16 0)
(3 -1.24869e-15 0)
(3 -1.58022e-15 0)
(3 -1.88204e-15 0)
(3 -2.25126e-15 0)
(3 -2.14572e-15 0)
(3 -2.22371e-15 0)
(3 -1.36956e-15 0)
(3 -1.92498e-17 0)
(3 7.3459e-17 0)
(3 6.3996e-16 0)
(3 -5.90636e-16 0)
(2.29979 0.139289 0)
(0.744722 0.2069 0)
(0.539399 0.144885 0)
(0.47369 0.156998 0)
(0.370882 0.186148 0)
(0.276159 0.213408 0)
(0.183894 0.220174 0)
(0.103338 0.212922 0)
(0.0356272 0.217913 0)
(3 -6.85575e-17 0)
(3 -2.18687e-16 0)
(3 -2.09366e-16 0)
(3 -5.69774e-16 0)
(3 -1.17561e-15 0)
(3 -1.80459e-15 0)
(3 -1.51057e-15 0)
(3 -1.36103e-15 0)
(3 -1.45832e-15 0)
(3 -1.96032e-15 0)
(3 -1.80077e-15 0)
(3 -1.12087e-15 0)
(3 -1.44667e-16 0)
(3 -1.22677e-16 0)
(3 -9.27792e-16 0)
(2.51994 0.189992 0)
(0.799997 0.293904 0)
(0.569585 0.205538 0)
(0.513816 0.221469 0)
(0.408327 0.267588 0)
(0.30277 0.308436 0)
(0.20157 0.313967 0)
(0.115075 0.299598 0)
(0.0383664 0.302479 0)
(3 3.5997e-17 0)
(3 1.61283e-16 0)
(3 3.34505e-16 0)
(3 2.67746e-16 0)
(3 -1.98586e-17 0)
(3 -5.06746e-16 0)
(3 -1.20551e-16 0)
(3 1.57926e-16 0)
(3 -2.69626e-16 0)
(3 -8.93752e-16 0)
(3 -1.01786e-15 0)
(3 -8.9826e-16 0)
(3 -8.53112e-16 0)
(3 -1.36198e-15 0)
(3 -1.27444e-15 0)
(2.84711 0.147165 0)
(0.921101 0.345331 0)
(0.610751 0.254239 0)
(0.560683 0.293646 0)
(0.449954 0.362693 0)
(0.336509 0.412003 0)
(0.235955 0.411631 0)
(0.143073 0.390764 0)
(0.0528352 0.399129 0)
(3 1.84526e-16 0)
(3 5.8983e-17 0)
(3 2.14457e-16 0)
(3 3.06902e-16 0)
(3 3.06454e-16 0)
(3 8.38856e-16 0)
(3 1.25721e-15 0)
(3 9.47326e-16 0)
(3 2.28977e-16 0)
(3 -4.43492e-16 0)
(3 -7.70542e-16 0)
(3 -8.39293e-16 0)
(3 -6.4588e-16 0)
(3 -6.54303e-16 0)
(3 -8.29467e-16 0)
(3.01751 0.0165539 0)
(1.11365 0.375844 0)
(0.646721 0.315726 0)
(0.581524 0.383583 0)
(0.471645 0.468438 0)
(0.367016 0.516157 0)
(0.272467 0.519138 0)
(0.173539 0.504543 0)
(0.0571939 0.524352 0)
(3 -1.44763e-16 0)
(3 -3.99833e-16 0)
(3 -4.30461e-16 0)
(3 -3.90796e-16 0)
(3 -9.41751e-17 0)
(3 2.81214e-16 0)
(3 4.99703e-16 0)
(3 1.90704e-16 0)
(3 -5.44886e-17 0)
(3 -7.07086e-16 0)
(3 -1.30223e-15 0)
(3 -1.23629e-15 0)
(3 -8.95954e-16 0)
(3 -3.74715e-16 0)
(3 -3.97076e-16 0)
(3.00053 0.000133312 0)
(1.43889 0.414203 0)
(0.702939 0.39551 0)
(0.595487 0.478963 0)
(0.511264 0.562305 0)
(0.432871 0.604432 0)
(0.35848 0.618927 0)
(0.261003 0.621025 0)
(0.122315 0.680921 0)
(3 6.18358e-17 0)
(3 2.99586e-16 0)
(3 2.35478e-16 0)
(3 1.27669e-16 0)
(3 1.83604e-16 0)
(3 -4.14851e-16 0)
(3 -1.28236e-15 0)
(3 -6.55785e-16 0)
(3 -1.99121e-16 0)
(3 -2.53727e-16 0)
(3 -7.60146e-16 0)
(3 -1.03316e-15 0)
(3 -1.01496e-15 0)
(3 -8.24791e-16 0)
(3 -6.48567e-16 0)
(3 1.11161e-07 0)
(1.96098 0.426271 0)
(0.799231 0.494522 0)
(0.640925 0.578358 0)
(0.588269 0.629293 0)
(0.532045 0.66501 0)
(0.46593 0.711754 0)
(0.325646 0.804101 0)
(0.179438 0.99396 0)
(3 1.11471e-16 0)
(3 1.81912e-16 0)
(3 1.99967e-16 0)
(3 6.50303e-17 0)
(3 3.18067e-17 0)
(3 -1.70705e-16 0)
(3 -7.68142e-16 0)
(3 -5.05223e-16 0)
(3 1.12014e-16 0)
(3 9.82222e-16 0)
(3 8.36969e-16 0)
(3 4.0397e-17 0)
(3 -4.38621e-16 0)
(3 -6.11988e-16 0)
(3 -8.27876e-16 0)
(3 5.19006e-12 0)
(2.66746 0.288157 0)
(0.980109 0.580256 0)
(0.739299 0.640899 0)
(0.695412 0.667186 0)
(0.643933 0.71103 0)
(0.594756 0.814657 0)
(0.5715 1.00034 0)
(0.659691 1.30647 0)
(3 -2.16999e-16 0)
(3 -3.66186e-16 0)
(3 -6.12395e-16 0)
(3 -6.87295e-16 0)
(3 -5.47789e-16 0)
(3 1.39032e-16 0)
(3 4.13113e-16 0)
(3 1.63136e-16 0)
(3 3.25466e-16 0)
(3 5.76488e-16 0)
(3 6.80643e-16 0)
(3 4.34646e-16 0)
(3 -1.18047e-16 0)
(3 -1.73563e-16 0)
(3 -2.16091e-16 0)
(3 -3.34384e-16 0)
(3.05909 0.0377371 0)
(1.25279 0.624253 0)
(0.811401 0.726822 0)
(0.767728 0.739615 0)
(0.731001 0.799519 0)
(0.734485 0.910548 0)
(0.817506 1.0722 0)
(1.08228 1.25939 0)
(3 -1.40388e-16 0)
(3 2.64811e-16 0)
(3 1.92789e-16 0)
(3 1.39162e-16 0)
(3 2.47325e-16 0)
(3 5.01796e-16 0)
(3 8.94746e-16 0)
(3 1.21822e-15 0)
(3 6.4851e-16 0)
(3 -1.78082e-16 0)
(3 2.43509e-16 0)
(3 1.2532e-15 0)
(3 1.07661e-15 0)
(3 4.90989e-16 0)
(3 5.68581e-16 0)
(3 2.12957e-17 0)
(3.00326 0.000285655 0)
(1.82049 0.642324 0)
(0.92786 0.80424 0)
(0.855383 0.798741 0)
(0.84714 0.833597 0)
(0.880293 0.929695 0)
(0.991654 1.04499 0)
(1.27527 1.17695 0)
(3 -3.92802e-17 0)
(3 1.36067e-16 0)
(3 1.73664e-16 0)
(3 1.44271e-16 0)
(3 -2.3909e-16 0)
(3 -3.02409e-16 0)
(3 -1.58475e-16 0)
(3 1.18951e-16 0)
(3 -1.01031e-17 0)
(3 -6.71595e-16 0)
(3 -2.00561e-17 0)
(3 6.66646e-16 0)
(3 6.0276e-16 0)
(3 -1.63248e-16 0)
(3 -1.58709e-16 0)
(3 -1.14767e-16 0)
(3.00001 5.16037e-07 0)
(2.85027 0.287186 0)
(1.20933 0.827575 0)
(0.967751 0.852678 0)
(0.974132 0.869713 0)
(1.00485 0.951757 0)
(1.11449 1.04173 0)
(1.37346 1.12426 0)
(3 -1.19839e-16 0)
(3 -3.72712e-16 0)
(3 -5.5331e-16 0)
(3 -4.3999e-16 0)
(3 -4.56497e-16 0)
(3 -5.6076e-16 0)
(3 -4.66133e-16 0)
(3 -6.30835e-16 0)
(3 -1.63281e-15 0)
(3 -1.42708e-15 0)
(3 -6.47099e-16 0)
(3 -1.29588e-15 0)
(3 -1.54636e-15 0)
(3 -1.24439e-15 0)
(3 -9.96722e-16 0)
(3 -7.30018e-16 0)
(3 -2.76676e-11 0)
(3.03662 0.014847 0)
(1.69489 0.808022 0)
(1.04726 0.946354 0)
(1.0682 0.941658 0)
(1.10841 0.970462 0)
(1.21616 1.01468 0)
(1.43271 1.05466 0)
(3 5.60779e-17 0)
(3 5.62606e-17 0)
(3 -7.83064e-18 0)
(3 1.19403e-16 0)
(3 3.06432e-16 0)
(3 3.0832e-16 0)
(3 1.06762e-16 0)
(3 1.3065e-17 0)
(3 -5.07563e-16 0)
(3 -6.03568e-16 0)
(3 -9.42546e-16 0)
(3 -1.1242e-15 0)
(3 -8.01852e-16 0)
(3 -8.83822e-16 0)
(3 -7.25698e-16 0)
(3 -4.72167e-16 0)
(3 -1.01228e-14 0)
(3.00046 0.000153015 0)
(2.80331 0.376621 0)
(1.33118 0.946902 0)
(1.14707 0.986066 0)
(1.21461 0.999884 0)
(1.30373 1.02631 0)
(1.47414 1.03897 0)
(3 2.24654e-16 0)
(3 2.71138e-16 0)
(3 4.30835e-16 0)
(3 5.70709e-16 0)
(3 5.29188e-16 0)
(3 3.10052e-16 0)
(3 6.88586e-17 0)
(3 4.09495e-17 0)
(3 5.0357e-16 0)
(3 2.90288e-16 0)
(3 -5.11024e-16 0)
(3 -2.94254e-16 0)
(3 -1.9094e-16 0)
(3 -3.54919e-16 0)
(3 -8.45146e-16 0)
(3 -5.70265e-16 0)
(3 -1.50642e-14 0)
(3 7.98486e-08 0)
(3.03298 0.0207918 0)
(1.97382 0.836614 0)
(1.25927 1.04512 0)
(1.28784 1.03894 0)
(1.39554 1.02801 0)
(1.52092 1.02743 0)
(3 6.91223e-17 0)
(3 1.01708e-16 0)
(3 2.00428e-16 0)
(3 1.82426e-16 0)
(3 3.96927e-17 0)
(3 2.85499e-16 0)
(3 1.97564e-16 0)
(3 -1.82883e-16 0)
(3 -4.55824e-16 0)
(3 -4.82891e-16 0)
(3 -2.26931e-16 0)
(3 9.77324e-17 0)
(3 1.34981e-16 0)
(3 4.6162e-16 0)
(3 -1.635e-16 0)
(3 -5.40022e-16 0)
(3 -6.20376e-15 0)
(3 2.71412e-12 0)
(3.00042 0.000319711 0)
(2.94167 0.240034 0)
(1.647 0.975753 0)
(1.36273 1.077 0)
(1.45069 1.06372 0)
(1.56468 1.05441 0)
(3 3.66496e-17 0)
(3 -6.6384e-17 0)
(3 -4.1695e-16 0)
(3 -4.92085e-16 0)
(3 -6.69802e-16 0)
(3 4.18647e-16 0)
(3 5.35362e-16 0)
(3 5.76537e-17 0)
(3 -5.09347e-16 0)
(3 -5.43801e-16 0)
(3 -3.70562e-16 0)
(3 -1.65767e-16 0)
(3 -5.11166e-16 0)
(3 -2.703e-16 0)
(3 5.79654e-16 0)
(3 5.7295e-16 0)
(3 -1.13892e-15 0)
(3 -1.7077e-15 0)
(3 2.68308e-07 0)
(3.00821 0.0111961 0)
(2.53967 0.572063 0)
(1.58276 1.03882 0)
(1.48417 1.09675 0)
(1.60272 1.07316 0)
(3 2.51197e-16 0)
(3 1.29789e-16 0)
(3 9.02545e-17 0)
(3 3.11495e-17 0)
(3 5.00159e-16 0)
(3 3.34264e-16 0)
(3 2.22048e-16 0)
(3 -1.54925e-16 0)
(3 -3.44485e-16 0)
(3 -7.05023e-16 0)
(3 -6.20511e-16 0)
(3 -6.39137e-16 0)
(3 -9.21048e-16 0)
(3 -2.25715e-16 0)
(3 5.80205e-16 0)
(3 6.03073e-16 0)
(3 -2.14877e-16 0)
(3 -5.31062e-16 0)
(3 2.23453e-11 0)
(3.00003 7.68043e-05 0)
(3.00515 0.0598355 0)
(2.2008 0.801974 0)
(1.60056 1.09633 0)
(1.62919 1.09319 0)
(3 -4.30815e-17 0)
(3 -1.80687e-16 0)
(3 3.71818e-16 0)
(3 4.24096e-16 0)
(3 5.72208e-16 0)
(3 -2.5567e-16 0)
(3 -8.6298e-16 0)
(3 -1.15135e-15 0)
(3 -9.9884e-16 0)
(3 -1.23365e-15 0)
(3 -1.54809e-15 0)
(3 -1.8512e-15 0)
(3 -7.90483e-17 0)
(3 4.97253e-16 0)
(3 4.99298e-16 0)
(3 1.64148e-16 0)
(3 1.40707e-16 0)
(3 6.01394e-16 0)
(3 1.35272e-15 0)
(3 3.34341e-08 0)
(3.00041 0.00143298 0)
(2.93033 0.179758 0)
(2.07041 0.896428 0)
(1.70731 1.10702 0)
(3 -1.43879e-16 0)
(3 -3.22365e-16 0)
(3 -4.5658e-16 0)
(3 -3.33397e-16 0)
(3 -7.78569e-16 0)
(3 -1.53112e-15 0)
(3 -1.83175e-15 0)
(3 -1.95107e-15 0)
(3 -1.63464e-15 0)
(3 -1.4099e-15 0)
(3 -1.49139e-15 0)
(3 -9.53502e-16 0)
(3 2.17013e-18 0)
(3 6.82535e-16 0)
(3 9.77283e-16 0)
(3 1.44787e-15 0)
(3 2.10972e-15 0)
(3 1.80706e-15 0)
(3 5.43073e-16 0)
(3 1.87339e-12 0)
(3 2.45152e-06 0)
(3.00053 0.00810769 0)
(2.82283 0.304036 0)
(2.07713 0.924938 0)
(3 4.19101e-17 0)
(3 -1.78398e-16 0)
(3 -5.89581e-16 0)
(3 -4.19624e-16 0)
(3 -6.63097e-16 0)
(3 -8.66089e-16 0)
(3 -8.86238e-16 0)
(3 -7.99638e-16 0)
(3 -9.72429e-16 0)
(3 -5.90881e-16 0)
(3 5.09085e-18 0)
(3 5.7083e-16 0)
(3 3.60997e-16 0)
(3 4.45775e-16 0)
(3 9.74699e-16 0)
(3 1.19402e-15 0)
(3 9.96592e-16 0)
(3 2.91135e-16 0)
(3 -5.1908e-16 0)
(3 -9.5901e-17 0)
(3 5.43858e-10 0)
(3 3.449e-05 0)
(2.99724 0.020391 0)
(2.77203 0.358769 0)
(3 4.97547e-17 0)
(3 5.93342e-17 0)
(3 -2.63738e-17 0)
(3 6.88587e-17 0)
(3 2.73279e-16 0)
(3 4.49652e-16 0)
(3 5.58544e-16 0)
(3 6.63077e-16 0)
(3 4.4823e-16 0)
(3 1.21792e-15 0)
(3 1.21018e-15 0)
(3 1.03114e-15 0)
(3 2.10643e-16 0)
(3 -8.36611e-16 0)
(3 -4.90886e-16 0)
(3 -7.65313e-16 0)
(3 -7.92041e-16 0)
(3 -8.68651e-16 0)
(3 -1.30201e-15 0)
(3 -1.68799e-15 0)
(3 2.70555e-14 0)
(3 1.70743e-08 0)
(2.99999 0.000156133 0)
(2.9947 0.0272948 0)
(3 -5.01871e-17 0)
(3 1.25986e-16 0)
(3 2.06996e-16 0)
(3 1.27367e-16 0)
(3 6.26857e-18 0)
(3 3.67308e-16 0)
(3 5.79104e-16 0)
(3 7.95094e-16 0)
(3 2.41752e-16 0)
(3 1.00739e-15 0)
(3 9.01948e-16 0)
(3 1.10152e-15 0)
(3 4.24276e-16 0)
(3 -4.32566e-16 0)
(3 -1.01878e-15 0)
(3 -7.618e-16 0)
(3 -8.5507e-16 0)
(3 -1.16383e-15 0)
(3 -1.06975e-15 0)
(3 -1.32568e-15 0)
(3 -5.52193e-16 0)
(3 9.51044e-13 0)
(3 1.35686e-07 0)
(2.99998 0.000262866 0)
(3 -7.91695e-17 0)
(3 -5.31744e-17 0)
(3 1.30108e-16 0)
(3 -1.57967e-16 0)
(3 -4.67908e-16 0)
(3 -3.06805e-16 0)
(3 -2.70605e-16 0)
(3 5.44306e-18 0)
(3 1.62678e-16 0)
(3 -1.88906e-17 0)
(3 7.58831e-17 0)
(3 -2.80388e-16 0)
(3 -1.26979e-16 0)
(3 1.90787e-17 0)
(3 -3.87449e-16 0)
(3 -6.95297e-16 0)
(3 -8.11741e-16 0)
(3 -8.73289e-17 0)
(3 -8.02288e-17 0)
(3 -7.14526e-17 0)
(3 2.99775e-16 0)
(3 1.31551e-15 0)
(3 1.30531e-11 0)
(3 2.72002e-07 0)
(3 2.67439e-17 0)
(3 5.45353e-17 0)
(3 -5.60826e-17 0)
(3 -8.19424e-17 0)
(3 -1.6101e-16 0)
(3 -6.51977e-16 0)
(3 -1.02246e-15 0)
(3 -8.87779e-16 0)
(3 -4.37429e-16 0)
(3 -7.58496e-16 0)
(3 -1.02912e-15 0)
(3 -1.50828e-15 0)
(3 -1.29656e-15 0)
(3 -2.36467e-16 0)
(3 -3.61505e-16 0)
(3 -4.72576e-16 0)
(3 -5.89102e-17 0)
(3 7.15574e-16 0)
(3 9.12336e-16 0)
(3 9.90001e-16 0)
(3 1.13568e-15 0)
(3 1.71438e-15 0)
(3 3.38794e-15 0)
(3 2.73035e-11 0)
(3 8.01283e-18 0)
(3 5.58077e-17 0)
(3 2.95995e-16 0)
(3 3.42619e-16 0)
(3 -2.20859e-16 0)
(3 -2.91085e-16 0)
(3 -1.41314e-16 0)
(3 -2.82592e-16 0)
(3 3.57772e-17 0)
(3 -3.99717e-17 0)
(3 -2.59724e-17 0)
(3 -2.52425e-17 0)
(3 -5.93423e-16 0)
(3 -2.22532e-16 0)
(3 3.59096e-16 0)
(3 8.74226e-16 0)
(3 7.51975e-16 0)
(3 5.40968e-16 0)
(3 1.01888e-15 0)
(3 1.094e-15 0)
(3 1.13325e-15 0)
(3 1.70978e-15 0)
(3 1.8829e-15 0)
(3 1.91799e-15 0)
(3 1.23579e-16 0)
(3 6.09952e-17 0)
(3 1.72773e-16 0)
(3 2.11437e-16 0)
(3 2.02837e-16 0)
(3 5.07363e-16 0)
(3 1.02217e-15 0)
(3 8.99671e-16 0)
(3 9.87688e-16 0)
(3 1.23278e-15 0)
(3 1.7223e-15 0)
(3 1.92696e-15 0)
(3 7.29176e-16 0)
(3 5.63819e-16 0)
(3 1.87829e-15 0)
(3 2.05572e-15 0)
(3 1.94176e-15 0)
(3 1.92284e-15 0)
(3 1.86425e-15 0)
(3 1.93062e-15 0)
(3 2.07766e-15 0)
(3 1.37319e-15 0)
(3 7.07656e-16 0)
(3 -2.59102e-16 0)
(3 2.21163e-16 0)
(3 1.31246e-16 0)
(3 5.53657e-17 0)
(3 -1.90007e-16 0)
(3 -1.97217e-16 0)
(3 4.21537e-16 0)
(3 7.54204e-16 0)
(3 3.70564e-16 0)
(3 2.4059e-16 0)
(3 9.97193e-16 0)
(3 1.42972e-15 0)
(3 2.01498e-15 0)
(3 2.15702e-15 0)
(3 9.91919e-16 0)
(3 5.05028e-17 0)
(3 2.50956e-16 0)
(3 7.05788e-16 0)
(3 9.99584e-16 0)
(3 1.33409e-15 0)
(3 1.83216e-15 0)
(3 2.37093e-15 0)
(3 1.11507e-15 0)
(3 -6.8526e-17 0)
(3 -1.62192e-16 0)
(3 -1.17658e-16 0)
(3 -4.75995e-17 0)
(3 -2.09518e-16 0)
(3 -1.74346e-16 0)
(3 -4.29422e-16 0)
(3 -6.41067e-16 0)
(3 -6.11388e-16 0)
(3 -4.60626e-16 0)
(3 7.39096e-17 0)
(3 2.92101e-16 0)
(3 6.16177e-16 0)
(3 1.30467e-15 0)
(3 2.13614e-15 0)
(3 2.3606e-15 0)
(3 -8.37162e-17 0)
(3 -2.45656e-16 0)
(3 -2.25254e-16 0)
(3 -2.44606e-17 0)
(3 4.44994e-16 0)
(3 8.22008e-16 0)
(3 6.98664e-16 0)
(3 -2.40159e-16 0)
(3 -9.44881e-16 0)
(3 -1.40651e-15 0)
(3 -2.72638e-16 0)
(3 -3.10399e-16 0)
(3 -6.69176e-16 0)
(3 -3.82196e-16 0)
(3 -1.58345e-16 0)
(3 -3.71341e-16 0)
(3 -5.19577e-16 0)
(3 -2.73167e-16 0)
(3 -3.16103e-16 0)
(3 -3.59399e-16 0)
(3 -1.48683e-16 0)
(3 5.37506e-16 0)
(3 1.69876e-15 0)
(3 2.38109e-15 0)
(3 1.99214e-15 0)
(3 1.25217e-15 0)
(3 8.45645e-16 0)
(3 9.98706e-16 0)
(3 6.93799e-16 0)
(3 6.82685e-16 0)
(3 -8.58681e-16 0)
(3 -1.62638e-15 0)
(3 -2.61432e-15 0)
(3 -2.72898e-15 0)
(3 2.02639e-17 0)
(3 5.26367e-17 0)
(3 1.33354e-18 0)
(3 4.55692e-18 0)
(3 2.4739e-16 0)
(3 3.39141e-16 0)
(3 4.26786e-16 0)
(3 7.21954e-16 0)
(3 2.52711e-16 0)
(3 -1.78555e-16 0)
(3 -4.14214e-16 0)
(3 1.94295e-17 0)
(3 1.03354e-15 0)
(3 1.2262e-15 0)
(3 1.24571e-15 0)
(3 8.76787e-16 0)
(3 5.21477e-16 0)
(3 1.14226e-16 0)
(3 -1.09464e-15 0)
(3 -1.91143e-15 0)
(3 -2.25917e-15 0)
(3 -2.61851e-15 0)
(3 -2.7728e-15 0)
(3 -1.80641e-15 0)
(3 1.01433e-16 0)
(3 1.22181e-16 0)
(3 3.2645e-16 0)
(3 4.79819e-16 0)
(3 1.73895e-16 0)
(3 4.95525e-17 0)
(3 1.01298e-16 0)
(3 -1.45292e-18 0)
(3 2.75003e-16 0)
(3 1.67079e-16 0)
(3 3.20369e-16 0)
(3 1.19597e-16 0)
(3 4.35483e-16 0)
(3 5.47095e-16 0)
(3 5.09964e-16 0)
(3 2.92011e-16 0)
(3 -4.69722e-16 0)
(3 -7.99924e-16 0)
(3 -1.64996e-15 0)
(3 -2.11822e-15 0)
(3 -1.91638e-15 0)
(3 -1.10323e-15 0)
(3 -2.51032e-16 0)
(3 1.24706e-16 0)
(3 -1.10124e-16 0)
(3 -5.43252e-16 0)
(3 -4.90303e-16 0)
(3 -3.71639e-16 0)
(3 -5.17833e-16 0)
(3 -7.40016e-16 0)
(3 -8.46263e-16 0)
(3 -5.82673e-16 0)
(3 -1.4621e-16 0)
(3 1.35094e-16 0)
(3 2.54927e-16 0)
(3 3.55474e-16 0)
(3 2.23403e-16 0)
(3 9.58664e-17 0)
(3 6.60024e-16 0)
(3 8.25822e-16 0)
(3 4.92916e-16 0)
(3 -4.52568e-16 0)
(3 -1.30394e-15 0)
(3 -1.98093e-15 0)
(3 -1.64123e-15 0)
(3 -3.20129e-16 0)
(3 1.15619e-15 0)
(3 1.47738e-15 0)
(3 -1.68264e-16 0)
(3 -4.02957e-16 0)
(3 -7.72344e-16 0)
(3 -9.038e-16 0)
(3 -6.59055e-16 0)
(3 -9.9258e-16 0)
(3 -1.20236e-15 0)
(3 -3.96381e-16 0)
(3 -3.99922e-16 0)
(3 -7.25994e-17 0)
(3 3.07976e-17 0)
(3 1.64451e-16 0)
(3 -4.191e-16 0)
(3 -4.16627e-16 0)
(3 1.66585e-17 0)
(3 4.07804e-16 0)
(3 1.62601e-15 0)
(3 1.33363e-15 0)
(3 -5.7951e-16 0)
(3 -1.18658e-15 0)
(3 -6.54698e-16 0)
(3 -3.99521e-16 0)
(3 -2.8969e-16 0)
(3 1.22063e-16 0)
(3 6.0927e-17 0)
(3 8.41854e-17 0)
(3 -3.75108e-17 0)
(3 -3.96116e-16 0)
(3 -1.17364e-15 0)
(3 -1.26961e-15 0)
(3 -2.90602e-16 0)
(3 -2.73791e-16 0)
(3 -1.81698e-16 0)
(3 -1.85672e-16 0)
(3 1.16996e-16 0)
(3 -1.89031e-16 0)
(3 -1.00978e-15 0)
(3 -1.2599e-15 0)
(3 -1.54822e-15 0)
(3 -9.42744e-16 0)
(3 -4.95977e-16 0)
(3 9.93915e-16 0)
(3 1.25565e-15 0)
(3 5.65447e-16 0)
(3 -3.39379e-16 0)
(3 -5.43453e-16 0)
(3 -1.38415e-15 0)
(3 -1.89263e-15 0)
(3 1.04912e-16 0)
(3 3.75067e-16 0)
(3 6.84821e-16 0)
(3 5.90404e-16 0)
(3 3.96521e-16 0)
(3 1.2502e-16 0)
(3 8.32138e-16 0)
(3 1.07799e-15 0)
(3 1.14834e-15 0)
(3 8.72997e-16 0)
(3 3.61902e-16 0)
(3 -7.842e-16 0)
(3 -8.61474e-16 0)
(3 -8.98966e-16 0)
(3 -5.17446e-16 0)
(3 -7.13551e-16 0)
(3 -8.85999e-16 0)
(3 1.89199e-16 0)
(3 7.14212e-16 0)
(3 -1.02494e-17 0)
(3 -1.03026e-15 0)
(3 -9.65724e-16 0)
(3 -6.96456e-16 0)
(3 -7.09931e-16 0)
(3 2.14528e-16 0)
(3 7.97774e-16 0)
(3 1.05841e-15 0)
(3 1.34876e-15 0)
(3 2.6394e-15 0)
(3 2.75794e-15 0)
(3 1.68132e-15 0)
(3 1.23255e-15 0)
(3 6.82145e-16 0)
(3 5.93293e-16 0)
(3 -9.39895e-17 0)
(3 -4.73298e-16 0)
(3 -3.62348e-16 0)
(3 -2.11553e-16 0)
(3 -2.35348e-16 0)
(3 -5.90584e-16 0)
(3 -3.10393e-16 0)
(3 -2.55898e-16 0)
(3 4.86392e-17 0)
(3 7.47105e-16 0)
(3 1.01713e-15 0)
(3 1.46237e-16 0)
(3 -2.8365e-16 0)
(3 6.3167e-17 0)
(3 3.38035e-17 0)
(3 1.93081e-16 0)
(3 2.35884e-16 0)
(3 3.40219e-16 0)
(3 9.67249e-16 0)
(3 1.2976e-15 0)
(3 8.52207e-16 0)
(3 2.33138e-17 0)
(3 -6.20164e-16 0)
(3 -1.12446e-15 0)
(3 -1.57941e-15 0)
(3 -1.26675e-15 0)
(3 -1.02525e-15 0)
(3 -1.4277e-15 0)
(3 -1.76193e-15 0)
(3 -1.1005e-15 0)
(3 -4.14539e-16 0)
(3 -5.94533e-16 0)
(3 4.08631e-16 0)
(3 1.1976e-15 0)
(3 1.37041e-15 0)
(3 2.64882e-16 0)
(3 1.47844e-16 0)
(3 6.25951e-18 0)
(3 -6.60884e-17 0)
(3 -2.95921e-16 0)
(3 -2.39867e-16 0)
(3 -5.01113e-16 0)
(3 -1.32205e-15 0)
(3 -1.12582e-15 0)
(3 -8.16369e-16 0)
(3 -8.57265e-16 0)
(3 -1.1889e-15 0)
(3 -1.56427e-15 0)
(3 -1.5512e-15 0)
(3 -1.43017e-15 0)
(3 -1.5909e-15 0)
(3 -1.8183e-15 0)
(3 -1.79396e-15 0)
(3 -6.83098e-17 0)
(3 -2.98689e-16 0)
(3 -1.91951e-16 0)
(3 1.89442e-16 0)
(3 3.0548e-16 0)
(3 3.06265e-16 0)
(3 -6.44114e-17 0)
(3 -5.60124e-17 0)
(3 -6.68195e-16 0)
(3 5.32044e-17 0)
(3 -5.49387e-17 0)
(3 -2.10033e-16 0)
(3 -2.80731e-16 0)
(3 -1.20852e-15 0)
(3 -1.26803e-15 0)
(3 -9.7335e-16 0)
(3 -8.61633e-16 0)
(3 -6.9228e-16 0)
(3 -4.99947e-16 0)
(3 -3.98122e-16 0)
(3 -4.59355e-16 0)
(3 -6.17701e-16 0)
(3 -6.90753e-16 0)
(3 -7.65182e-16 0)
(3 -3.41657e-16 0)
(3 -7.84564e-16 0)
(3 -8.30343e-16 0)
(3 -5.22482e-16 0)
(3 -6.48061e-17 0)
(3 -5.61996e-17 0)
(3 1.13321e-16 0)
(3 6.71423e-17 0)
(3 -2.15957e-16 0)
(1.70632 1.43613 0)
(2.21476 1.50595 0)
(2.68229 1.40299 0)
(2.87222 0.798251 0)
(2.90069 0.361265 0)
(2.89334 0.0507777 0)
(2.79494 -0.229214 0)
(2.81811 -0.336816 0)
(2.82833 -0.222436 0)
(2.80727 -0.226452 0)
(2.73746 -0.202341 0)
(2.70108 -0.15324 0)
(2.69863 -0.141728 0)
(2.69726 -0.0933288 0)
(2.65076 -0.0148706 0)
(2.63927 0.00475986 0)
(2.6581 0.0029664 0)
(2.72524 0.00242596 0)
(2.78227 0.00415712 0)
(2.80716 0.00104952 0)
(2.83237 -0.00632346 0)
(2.84076 -0.00826048 0)
(2.82534 -0.00670842 0)
(2.80817 -0.00431386 0)
(2.80096 -0.00343831 0)
(2.78914 -0.00299713 0)
(2.78965 -0.00530963 0)
(2.83176 -0.00815486 0)
(2.89827 -0.0100391 0)
(2.91351 -0.00970053 0)
(2.9026 -0.00919404 0)
(2.87885 -0.00804435 0)
(2.85292 -0.00200227 0)
(2.83408 0.0013537 0)
(2.81466 0.0037809 0)
(2.80673 0.00343021 0)
(2.81326 0.00111886 0)
(2.83326 -0.00218556 0)
(2.8575 -0.00621019 0)
(2.87273 -0.0150439 0)
(2.87617 -0.0233016 0)
(2.87433 -0.0251492 0)
(2.87957 -0.0210289 0)
(2.90764 -0.0147204 0)
(2.94459 -0.0119671 0)
(2.95266 -0.0120738 0)
(2.95375 -0.0120357 0)
(2.95922 -0.00958154 0)
(2.96645 -0.0072849 0)
(2.97171 -0.00495459 0)
(2.97842 -0.00299321 0)
(2.99304 -0.00132698 0)
(3.01575 -0.000515565 0)
(3.03378 -0.00036748 0)
(3.03759 -0.000104599 0)
(3.0377 3.76292e-05 0)
(3.03739 0.000299976 0)
(3.03618 0.00044332 0)
(3.03374 0.000476426 0)
(3.02906 0.000458807 0)
(3.02 0.000353078 0)
(3.00735 0.000133594 0)
(3.00071 1.23569e-05 0)
(3.00001 1.03488e-07 0)
(3 -1.37007e-08 0)
(3 -1.35193e-08 0)
(3 -1.30928e-08 0)
(3 -1.07487e-08 0)
(3 -5.19213e-09 0)
(3 -9.49163e-10 0)
(3 -2.97618e-11 0)
(3 4.05583e-13 0)
(3 4.09724e-13 0)
(3 3.55554e-13 0)
(3 1.90678e-13 0)
(3 4.9964e-14 0)
(3 2.48573e-15 0)
(3 -1.11875e-15 0)
(3 -1.22933e-15 0)
(3 -1.18377e-15 0)
(3 2.12773e-16 0)
(3 2.36007e-16 0)
(3 2.33709e-16 0)
(3 -8.61059e-16 0)
(3 -1.22759e-15 0)
(3 -7.96999e-16 0)
(3 -1.11492e-16 0)
(3 5.22776e-16 0)
(3 4.49172e-16 0)
(3 8.54329e-17 0)
(3 -2.29909e-16 0)
(3 -1.53073e-16 0)
(3 -3.08838e-16 0)
(3 -6.93032e-16 0)
(3 -1.32135e-15 0)
(3 -1.26217e-15 0)
(1.99815 1.20925 0)
(2.56844 0.946135 0)
(2.84442 0.402535 0)
(2.99765 0.032724 0)
(3.09261 -0.188474 0)
(3.01454 -0.48728 0)
(2.98681 -0.656684 0)
(3.01325 -0.645503 0)
(2.98782 -0.466017 0)
(2.96686 -0.301756 0)
(2.91399 -0.17318 0)
(2.868 -0.100239 0)
(2.75931 -0.0911898 0)
(2.70958 -0.0650573 0)
(2.68844 -0.0126321 0)
(2.69773 -0.00250779 0)
(2.73422 0.0154458 0)
(2.78235 0.0509137 0)
(2.80153 0.0612028 0)
(2.82937 0.0548328 0)
(2.85322 0.0241886 0)
(2.85987 -0.00755249 0)
(2.85268 -0.0254699 0)
(2.84697 -0.0345686 0)
(2.83789 -0.0371895 0)
(2.8304 -0.0365006 0)
(2.83846 -0.0314914 0)
(2.87739 -0.01812 0)
(2.92659 0.00422412 0)
(2.93003 0.0116858 0)
(2.91652 0.0126639 0)
(2.89178 0.00847487 0)
(2.87288 0.00675797 0)
(2.85039 0.0153715 0)
(2.83983 0.0265692 0)
(2.83793 0.0309642 0)
(2.84316 0.0290601 0)
(2.85455 0.0237732 0)
(2.86781 0.0153445 0)
(2.87502 0.00209507 0)
(2.87608 -0.0163258 0)
(2.87846 -0.032958 0)
(2.8903 -0.0372545 0)
(2.91991 -0.0277672 0)
(2.94593 -0.0195176 0)
(2.95108 -0.0183404 0)
(2.95198 -0.0181826 0)
(2.95625 -0.0173429 0)
(2.96116 -0.0161839 0)
(2.96624 -0.0133605 0)
(2.97523 -0.00996962 0)
(2.99005 -0.00585052 0)
(3.01212 -0.00276529 0)
(3.03275 -0.00155466 0)
(3.03855 -0.000985575 0)
(3.03883 -0.000768443 0)
(3.03882 -4.48523e-05 0)
(3.03789 0.000935481 0)
(3.03554 0.00170576 0)
(3.03044 0.00210272 0)
(3.02014 0.00171479 0)
(3.00669 0.00065233 0)
(3.00054 5.43314e-05 0)
(3 3.88749e-07 0)
(3 -3.36612e-08 0)
(3 -3.31818e-08 0)
(3 -3.1758e-08 0)
(3 -2.76414e-08 0)
(3 -1.60562e-08 0)
(3 -3.24481e-09 0)
(3 -9.86048e-11 0)
(3 1.10909e-12 0)
(3 1.2717e-12 0)
(3 1.1293e-12 0)
(3 6.96955e-13 0)
(3 1.61582e-13 0)
(3 7.59165e-15 0)
(3 -1.58239e-16 0)
(3 -1.74952e-15 0)
(3 -1.92649e-15 0)
(3 -9.07065e-16 0)
(3 -3.53629e-16 0)
(3 -1.2697e-16 0)
(3 -1.04471e-15 0)
(3 -2.07653e-15 0)
(3 -1.40224e-15 0)
(3 1.52341e-16 0)
(3 1.05504e-15 0)
(3 3.72207e-16 0)
(3 -2.10198e-16 0)
(3 -4.59449e-17 0)
(3 -7.59672e-16 0)
(3 -1.25614e-15 0)
(3 -1.1014e-15 0)
(3 -1.73803e-15 0)
(3 -1.90343e-15 0)
(1.86191 1.15427 0)
(2.22725 1.08626 0)
(2.56856 0.761182 0)
(2.84064 0.285482 0)
(2.95661 0.191753 0)
(2.97085 0.120187 0)
(2.99753 -0.147001 0)
(3.02502 -0.203182 0)
(3.08031 -0.213834 0)
(3.06696 -0.248838 0)
(3.04742 -0.274442 0)
(3.01665 -0.311296 0)
(2.96902 -0.287887 0)
(2.86267 -0.149207 0)
(2.83211 -0.0447215 0)
(2.84215 -0.0160916 0)
(2.87413 0.0320687 0)
(2.88324 0.0479559 0)
(2.88896 0.0467523 0)
(2.89119 0.032745 0)
(2.90963 -0.00701574 0)
(2.91832 -0.0378567 0)
(2.92489 -0.0455424 0)
(2.9267 -0.0485219 0)
(2.92118 -0.0555765 0)
(2.91688 -0.0699053 0)
(2.93034 -0.067824 0)
(2.96149 -0.0430039 0)
(2.97855 -0.0141347 0)
(2.96748 -0.0028397 0)
(2.94866 0.00614675 0)
(2.92751 0.0128116 0)
(2.90449 0.011015 0)
(2.8847 0.00170981 0)
(2.88344 -0.00832661 0)
(2.89503 -0.0130339 0)
(2.91042 -0.0126015 0)
(2.9217 -0.00634518 0)
(2.92306 -0.00237705 0)
(2.91456 -0.0144847 0)
(2.9048 -0.0403798 0)
(2.90565 -0.0624743 0)
(2.92408 -0.0605311 0)
(2.95137 -0.039657 0)
(2.96097 -0.02994 0)
(2.96032 -0.0293531 0)
(2.9599 -0.0281613 0)
(2.96335 -0.0263621 0)
(2.96666 -0.0254221 0)
(2.97067 -0.023815 0)
(2.98088 -0.0197186 0)
(2.99679 -0.0131947 0)
(3.01813 -0.00697937 0)
(3.03559 -0.00254571 0)
(3.04003 -0.000522602 0)
(3.04 0.000177301 0)
(3.03956 0.00102165 0)
(3.03814 0.00236888 0)
(3.03536 0.00375942 0)
(3.02981 0.00415924 0)
(3.01848 0.00303608 0)
(3.00512 0.000886872 0)
(3.00029 4.90575e-05 0)
(3 1.57152e-07 0)
(3 -5.60949e-08 0)
(3 -5.50035e-08 0)
(3 -5.20153e-08 0)
(3 -4.31177e-08 0)
(3 -2.1572e-08 0)
(3 -3.3123e-09 0)
(3 -6.30422e-11 0)
(3 2.18131e-12 0)
(3 2.16354e-12 0)
(3 1.87598e-12 0)
(3 1.02316e-12 0)
(3 1.74184e-13 0)
(3 4.48229e-15 0)
(3 4.17075e-16 0)
(3 -2.77105e-16 0)
(3 -9.79879e-16 0)
(3 -1.1725e-15 0)
(3 -6.99989e-16 0)
(3 -1.11515e-16 0)
(3 5.97981e-17 0)
(3 -6.09659e-16 0)
(3 -7.85e-16 0)
(3 9.19103e-17 0)
(3 3.37462e-16 0)
(3 -1.49139e-17 0)
(3 -2.53971e-16 0)
(3 -2.05402e-17 0)
(3 -1.34286e-15 0)
(3 -1.8886e-15 0)
(3 -1.80392e-15 0)
(3 -1.93645e-15 0)
(3 -2.20798e-15 0)
(1.75825 1.11505 0)
(2.09034 1.00956 0)
(2.39259 0.782586 0)
(2.57747 0.589921 0)
(2.70556 0.507348 0)
(2.87124 0.307411 0)
(2.97294 -0.012596 0)
(2.99662 -0.159754 0)
(3.05547 -0.159258 0)
(3.09081 -0.217927 0)
(3.06861 -0.358658 0)
(3.07394 -0.395034 0)
(3.07894 -0.360576 0)
(3.03748 -0.266761 0)
(2.99023 -0.142139 0)
(2.98298 -0.100597 0)
(2.99517 -0.0605013 0)
(2.98215 -0.00786321 0)
(2.97692 0.0155355 0)
(2.97811 0.0128942 0)
(2.99162 -0.000320526 0)
(3.00242 -0.00172331 0)
(3.00692 0.00525421 0)
(3.01157 0.0245237 0)
(3.01286 0.029766 0)
(3.01178 0.0180221 0)
(3.02526 0.00250857 0)
(3.03707 -0.00476943 0)
(3.02523 -0.00679542 0)
(3.00513 -0.0116415 0)
(2.98261 -0.02088 0)
(2.96292 -0.0233303 0)
(2.94101 -0.030197 0)
(2.93464 -0.0370024 0)
(2.94513 -0.0332657 0)
(2.96355 -0.019684 0)
(2.98036 -0.0136361 0)
(2.98778 -0.0189894 0)
(2.98236 -0.0325354 0)
(2.96737 -0.0566694 0)
(2.9548 -0.0800552 0)
(2.95662 -0.0793519 0)
(2.97683 -0.0539285 0)
(2.98612 -0.0382732 0)
(2.9785 -0.0373556 0)
(2.97451 -0.037789 0)
(2.96989 -0.0377961 0)
(2.97287 -0.0360114 0)
(2.9755 -0.0333408 0)
(2.98062 -0.0285408 0)
(2.99083 -0.0220385 0)
(3.00586 -0.0160833 0)
(3.02451 -0.0101745 0)
(3.03895 -0.00391225 0)
(3.04184 -0.000276317 0)
(3.0412 0.00115133 0)
(3.04039 0.00252013 0)
(3.03875 0.00390044 0)
(3.03564 0.00526429 0)
(3.02895 0.00546133 0)
(3.01574 0.00338943 0)
(3.00316 0.000703579 0)
(3.0001 2.14434e-05 0)
(3 -3.89671e-08 0)
(3 -7.94069e-08 0)
(3 -7.90254e-08 0)
(3 -7.53732e-08 0)
(3 -5.79576e-08 0)
(3 -2.25899e-08 0)
(3 -2.1135e-09 0)
(3 -1.60285e-11 0)
(3 3.06273e-12 0)
(3 2.91297e-12 0)
(3 2.33536e-12 0)
(3 9.81758e-13 0)
(3 1.00014e-13 0)
(3 1.60967e-15 0)
(3 -4.3922e-16 0)
(3 -2.44693e-16 0)
(3 -2.47218e-16 0)
(3 -3.11266e-16 0)
(3 2.49122e-16 0)
(3 4.11331e-16 0)
(3 4.22234e-16 0)
(3 9.67994e-16 0)
(3 6.54203e-16 0)
(3 7.36606e-16 0)
(3 6.31724e-16 0)
(3 7.86859e-16 0)
(3 2.30442e-16 0)
(3 -4.75313e-16 0)
(3 1.46039e-16 0)
(3 2.09233e-16 0)
(3 -1.71253e-16 0)
(3 -9.62829e-16 0)
(3 -1.95512e-15 0)
(1.71514 1.04733 0)
(1.96853 1.00081 0)
(2.21692 0.866121 0)
(2.4391 0.667138 0)
(2.58612 0.579844 0)
(2.69381 0.517472 0)
(2.81917 0.304795 0)
(2.88888 0.101358 0)
(2.95439 0.0653784 0)
(2.97228 0.0453145 0)
(3.00979 -0.104833 0)
(3.02582 -0.18019 0)
(3.07957 -0.174826 0)
(3.08712 -0.153395 0)
(3.07229 -0.154781 0)
(3.05695 -0.160655 0)
(3.04907 -0.160019 0)
(3.0416 -0.112414 0)
(3.04746 -0.067473 0)
(3.05888 -0.0504062 0)
(3.06559 -0.046423 0)
(3.07075 -0.0442414 0)
(3.06773 -0.0242149 0)
(3.06713 0.0155042 0)
(3.07459 0.0433638 0)
(3.08054 0.0349234 0)
(3.07103 0.00896379 0)
(3.06426 0.00437412 0)
(3.05205 -0.000843995 0)
(3.0271 -0.00618512 0)
(3.01393 -0.0069597 0)
(2.99431 -0.00939048 0)
(2.98339 -0.0219852 0)
(2.99146 -0.0420961 0)
(3.01238 -0.0424569 0)
(3.02926 -0.0246573 0)
(3.03363 -0.0187375 0)
(3.02745 -0.0186523 0)
(3.01702 -0.0245203 0)
(3.00676 -0.0442203 0)
(3.00382 -0.0596471 0)
(3.01437 -0.0473378 0)
(3.01631 -0.0342496 0)
(3.00184 -0.0356456 0)
(2.99423 -0.0389273 0)
(2.98247 -0.0422235 0)
(2.98141 -0.0432359 0)
(2.98229 -0.0425443 0)
(2.98534 -0.039465 0)
(2.99106 -0.0332454 0)
(2.99964 -0.0262407 0)
(3.01248 -0.01906 0)
(3.02954 -0.0108311 0)
(3.04268 -0.0026396 0)
(3.04455 0.00148523 0)
(3.0437 0.00311584 0)
(3.04263 0.00482786 0)
(3.04027 0.00663399 0)
(3.03604 0.00798089 0)
(3.02691 0.00718099 0)
(3.0115 0.00330125 0)
(3.0014 0.000388832 0)
(3.00002 4.83601e-06 0)
(3 -1.11258e-07 0)
(3 -1.12651e-07 0)
(3 -1.10647e-07 0)
(3 -1.0129e-07 0)
(3 -6.44639e-08 0)
(3 -1.59068e-08 0)
(3 -6.64631e-10 0)
(3 2.3605e-12 0)
(3 4.10738e-12 0)
(3 3.82689e-12 0)
(3 2.56032e-12 0)
(3 6.79269e-13 0)
(3 2.82647e-14 0)
(3 -3.29771e-16 0)
(3 -4.05794e-16 0)
(3 5.88796e-18 0)
(3 3.14165e-16 0)
(3 3.39119e-16 0)
(3 3.94678e-16 0)
(3 3.02002e-16 0)
(3 4.43091e-16 0)
(3 1.11706e-15 0)
(3 1.40511e-15 0)
(3 1.13657e-15 0)
(3 9.89644e-16 0)
(3 9.37268e-16 0)
(3 1.13568e-15 0)
(3 1.41721e-15 0)
(3 1.53462e-15 0)
(3 1.69397e-15 0)
(3 1.69584e-15 0)
(3 -9.86525e-17 0)
(3 -1.95249e-15 0)
(1.6872 1.02909 0)
(1.91395 0.97376 0)
(2.13068 0.86486 0)
(2.27623 0.781303 0)
(2.41952 0.728985 0)
(2.6038 0.599862 0)
(2.74254 0.390557 0)
(2.78501 0.274274 0)
(2.82922 0.279508 0)
(2.87357 0.228194 0)
(2.96944 0.0428884 0)
(2.99314 -0.107825 0)
(3.0424 -0.120924 0)
(3.09695 -0.146378 0)
(3.09956 -0.169385 0)
(3.08497 -0.220149 0)
(3.09634 -0.217576 0)
(3.09867 -0.184832 0)
(3.10254 -0.141673 0)
(3.0955 -0.100619 0)
(3.08823 -0.0827754 0)
(3.08393 -0.0776168 0)
(3.08292 -0.0667476 0)
(3.08476 -0.0335582 0)
(3.08847 -0.00824048 0)
(3.09549 -0.0121025 0)
(3.08624 -0.026241 0)
(3.06895 -0.0299779 0)
(3.06237 -0.0288343 0)
(3.04849 -0.0165819 0)
(3.03943 -0.00985574 0)
(3.02834 -0.00501803 0)
(3.03182 -0.0053113 0)
(3.05003 -0.0125116 0)
(3.06607 -0.0103016 0)
(3.06683 0.00400612 0)
(3.05699 0.00886127 0)
(3.04344 0.00734189 0)
(3.03315 0.00661311 0)
(3.03649 0.00227895 0)
(3.05346 -0.0104534 0)
(3.04542 -0.0244325 0)
(3.02432 -0.0304191 0)
(3.01174 -0.0382202 0)