/*--------------------------------*- C++ -*----------------------------------*\
  =========                 |
  \\      /  F ield         | OpenFOAM: The Open Source CFD Toolbox
   \\    /   O peration     | Website:  https://openfoam.org
    \\  /    A nd           | Version:  7
     \\/     M anipulation  |
\*---------------------------------------------------------------------------*/
FoamFile
{
    version     2.0;
    format      ascii;
    class       volScalarField;
    location    "0.9";
    object      p;
}
// * * * * * * * * * * * * * * * * * * * * * * * * * * * * * * * * * * * * * //

dimensions      [1 -1 -2 0 0 0 0];

internalField   nonuniform List<scalar> 
64512
(
1
1
1
1
1
1
1
1
1
1
1
1
1
1
1
1
1
1
1
1
1
1
1
1
1
1
1
1
1
1
1
1
1
1
1
1
1
1
1
1
1
1
1
1
1
1
1
1
1
1
1
1
1
1
1
5.65963
10.832
10.9919
10.9686
10.9954
11.0238
11.0775
11.1674
11.2775
11.38
11.4609
11.5158
11.5547
11.5767
11.5934
11.6024
11.6105
11.628
11.6499
11.6842
11.7316
11.782
11.8282
11.8633
11.8943
11.935
11.9941
12.0709
12.1524
12.2144
12.2418
12.2301
12.1954
12.1639
12.1465
12.1452
12.1609
12.1944
12.2393
12.2812
12.318
1
1
1
1
1
1
1
1
1
1
1
1
1
1
1
1
1
1
1
1
1
1
1
1
1
1
1
1
1
1
1
1
1
1
1
1
1
1
1
1
1
1
1
1
1
1
1
1
1
1
1
1
1
1
1
5.60518
10.8237
10.9892
10.968
10.994
11.0196
11.0734
11.1641
11.2746
11.379
11.4582
11.515
11.5536
11.5754
11.592
11.6013
11.6093
11.6262
11.6474
11.6813
11.7287
11.7793
11.8257
11.8611
11.8926
11.934
11.9938
12.0709
12.1517
12.212
12.2375
12.2247
12.1908
12.1614
12.1459
12.145
12.1595
12.1914
12.235
12.2768
12.3129
1
1
1
1
1
1
1
1
1
1
1
1
1
1
1
1
1
1
1
1
1
1
1
1
1
1
1
1
1
1
1
1
1
1
1
1
1
1
1
1
1
1
1
1
1
1
1
1
1
1
1
1
1
1
1
5.50134
10.8259
10.9806
10.965
10.9882
11.012
11.066
11.1581
11.2705
11.376
11.4534
11.5133
11.5518
11.5732
11.5896
11.5993
11.6066
11.6227
11.6431
11.6764
11.7235
11.774
11.8205
11.8566
11.8895
11.9327
11.994
12.0714
12.1509
12.2083
12.231
12.2173
12.185
12.158
12.1439
12.1421
12.1545
12.1845
12.2277
12.2709
12.3074
1
1
1
1
1
1
1
1
1
1
1
1
1
1
1
1
1
1
1
1
1
1
1
1
1
1
1
1
1
1
1
1
1
1
1
1
1
1
1
1
1
1
1
1
1
1
1
1
1
1
1
1
1
1
1
5.35811
10.8189
10.97
10.9574
10.9797
11.0016
11.0553
11.1495
11.2645
11.3709
11.4468
11.5096
11.5483
11.5695
11.5859
11.5957
11.602
11.6171
11.6366
11.6689
11.7155
11.7654
11.8119
11.8491
11.8844
11.9305
11.9936
12.0711
12.1483
12.2024
12.2223
12.2079
12.1775
12.1528
12.1396
12.1367
12.1468
12.1749
12.2176
12.2622
12.2993
1
1
1
1
1
1
1
1
1
1
1
1
1
1
1
1
1
1
1
1
1
1
1
1
1
1
1
1
1
1
1
1
1
1
1
1
1
1
1
1
1
1
1
1
1
1
1
1
1
1
1
1
1
1
1
5.17352
10.7974
10.9587
10.9467
10.9714
10.9918
11.0453
11.1404
11.2568
11.3627
11.4375
11.5026
11.5415
11.5637
11.5804
11.5905
11.5955
11.6097
11.6283
11.6595
11.705
11.7535
11.7996
11.8384
11.8772
11.9271
11.9924
12.0693
12.1437
12.1945
12.2124
12.1981
12.169
12.1457
12.1325
12.1282
12.1361
12.1627
12.2053
12.2514
12.2892
1
1
1
1
1
1
1
1
1
1
1
1
1
1
1
1
1
1
1
1
1
1
1
1
1
1
1
1
1
1
1
1
1
1
1
1
1
1
1
1
1
1
1
1
1
1
1
1
1
1
1
1
1
1
1
4.94795
10.7622
10.9468
10.9323
10.9609
10.98
11.0327
11.1286
11.2463
11.3511
11.4269
11.4936
11.5337
11.5568
11.5734
11.5836
11.5866
11.5995
11.6173
11.6475
11.6916
11.7384
11.7841
11.8249
11.868
11.9224
11.9898
12.0653
12.1362
12.184
12.2011
12.1877
12.1596
12.1364
12.1224
12.1163
12.1228
12.1487
12.1911
12.2383
12.2764
1
1
1
1
1
1
1
1
1
1
1
1
1
1
1
1
1
1
1
1
1
1
1
1
1
1
1
1
1
1
1
1
1
1
1
1
1
1
1
1
1
1
1
1
1
1
1
1
1
1
1
1
1
1
1
4.68083
10.7073
10.9321
10.9164
10.9489
10.9676
11.0199
11.116
11.2338
11.3368
11.4151
11.4825
11.5235
11.547
11.5632
11.5737
11.5746
11.5864
11.6036
11.633
11.6757
11.721
11.7666
11.81
11.858
11.9168
11.9855
12.0586
12.1254
12.1707
12.1879
12.1761
12.1484
12.1244
12.109
12.1018
12.1075
12.1332
12.1753
12.2226
12.2603
1
1
1
1
1
1
1
1
1
1
1
1
1
1
1
1
1
1
1
1
1
1
1
1
1
1
1
1
1
1
1
1
1
1
1
1
1
1
1
1
1
1
1
1
1
1
1
1
1
1
1
1
1
1
1
4.37303
10.6209
10.9169
10.9039
10.9363
10.955
11.0072
11.1032
11.2185
11.3198
11.4009
11.4692
11.5115
11.5362
11.5517
11.562
11.5607
11.5709
11.587
11.6154
11.6564
11.7007
11.7475
11.795
11.8483
11.9107
11.9792
12.0487
12.1111
12.1544
12.1726
12.1627
12.135
12.1095
12.0923
12.0846
12.0908
12.1165
12.1579
12.204
12.2404
1
1
1
1
1
1
1
1
1
1
1
1
1
1
1
1
1
1
1
1
1
1
1
1
1
1
1
1
1
1
1
1
1
1
1
1
1
1
1
1
1
1
1
1
1
1
1
1
1
1
1
1
1
1
1
4.03146
10.4847
10.9031
10.9005
10.9248
10.9418
10.9933
11.0891
11.1994
11.3011
11.3843
11.4536
11.4974
11.5253
11.54
11.5488
11.5455
11.5532
11.5675
11.5941
11.6331
11.6774
11.7275
11.7811
11.8405
11.9049
11.9708
12.035
12.0929
12.135
12.1547
12.1468
12.1188
12.0915
12.0727
12.0649
12.0725
12.0987
12.1388
12.1826
12.2168
1
1
1
1
1
1
1
1
1
1
1
1
1
1
1
1
1
1
1
1
1
1
1
1
1
1
1
1
1
1
1
1
1
1
1
1
1
1
1
1
1
1
1
1
1
1
1
1
1
1
1
1
1
1
1
3.66818
10.2942
10.8945
10.9045
10.9157
10.9292
10.978
11.0714
11.1777
11.2817
11.3656
11.4363
11.4811
11.5138
11.5288
11.5349
11.53
11.5347
11.5467
11.5699
11.6056
11.6503
11.7058
11.7684
11.8349
11.8998
11.9604
12.017
12.0702
12.1124
12.1345
12.1287
12.1
12.0703
12.0502
12.0432
12.0524
12.0789
12.1171
12.1576
12.1884
1
1
1
1
1
1
1
1
1
1
1
1
1
1
1
1
1
1
1
1
1
1
1
1
1
1
1
1
1
1
1
1
1
1
1
1
1
1
1
1
1
1
1
1
1
1
1
1
1
1
1
1
1
1
1
3.28759
10.0619
10.8869
10.893
10.901
10.9167
10.9647
11.0483
11.1552
11.2612
11.346
11.4184
11.4629
11.4999
11.5167
11.5199
11.5141
11.5165
11.5258
11.5437
11.5745
11.6192
11.6819
11.7563
11.8311
11.8954
11.9482
11.995
12.0427
12.0857
12.1113
12.1084
12.0791
12.0466
12.0249
12.0188
12.0296
12.056
12.0921
12.1292
12.156
1
1
1
1
1
1
1
1
1
1
1
1
1
1
1
1
1
1
1
1
1
1
1
1
1
1
1
1
1
1
1
1
1
1
1
1
1
1
1
1
1
1
1
1
1
1
1
1
1
1
1
1
1
1
1
2.8897
9.79064
10.8688
10.8672
10.8823
10.8974
10.9515
11.0219
11.134
11.2396
11.3268
11.3997
11.4424
11.4815
11.5006
11.5014
11.4966
11.4984
11.5054
11.517
11.5414
11.5853
11.6558
11.7433
11.8266
11.8897
11.9335
11.9692
12.0107
12.0546
12.0845
12.0857
12.0566
12.0214
11.9979
11.9919
12.0033
12.0289
12.063
12.0978
12.1212
1
1
1
1
1
1
1
1
1
1
1
1
1
1
1
1
1
1
1
1
1
1
1
1
1
1
1
1
1
1
1
1
1
1
1
1
1
1
1
1
1
1
1
1
1
1
1
1
1
1
1
1
1
1
1
2.51578
9.47566
10.8131
10.8344
10.8592
10.8768
10.9307
10.9984
11.1164
11.2185
11.3074
11.3785
11.4206
11.4579
11.4784
11.4768
11.4753
11.4788
11.4846
11.4907
11.5089
11.5514
11.6288
11.7276
11.8178
11.8794
11.9149
11.9401
11.9757
12.0197
12.0535
12.0595
12.032
11.995
11.9698
11.9626
11.9729
11.9969
12.0293
12.0627
12.0837
1
1
1
1
1
1
1
1
1
1
1
1
1
1
1
1
1
1
1
1
1
1
1
1
1
1
1
1
1
1
1
1
1
1
1
1
1
1
1
1
1
1
1
1
1
1
1
1
1
1
1
1
1
1
1
2.15877
9.06539
10.7499
10.8045
10.832
10.862
10.9048
10.9794
11.0965
11.1961
11.2882
11.3547
11.397
11.4306
11.4502
11.4463
11.4494
11.4556
11.4606
11.4637
11.479
11.5223
11.6048
11.709
11.801
11.8605
11.8902
11.9079
11.9388
11.9825
12.0186
12.0286
12.004
11.9667
11.9404
11.9316
11.9393
11.9605
11.9909
12.0233
12.0425
1
1
1
1
1
1
1
1
1
1
1
1
1
1
1
1
1
1
1
1
1
1
1
1
1
1
1
1
1
1
1
1
1
1
1
1
1
1
1
1
1
1
1
1
1
1
1
1
1
1
1
1
1
1
1
1.79656
8.55523
10.7313
10.7935
10.8189
10.8543
10.888
10.9639
11.0709
11.1725
11.267
11.3274
11.3705
11.4014
11.4201
11.4139
11.4202
11.4264
11.4304
11.4352
11.4528
11.5012
11.5869
11.6893
11.7759
11.8305
11.8568
11.8717
11.9006
11.9439
11.9801
11.9922
11.9706
11.9345
11.9085
11.8986
11.9037
11.9216
11.9488
11.9788
11.9959
1
1
1
1
1
1
1
1
1
1
1
1
1
1
1
1
1
1
1
1
1
1
1
1
1
1
1
1
1
1
1
1
1
1
1
1
1
1
1
1
1
1
1
1
1
1
1
1
1
1
1
1
1
1
1
1.40598
7.84178
10.7315
10.7994
10.8251
10.8463
10.8766
10.9475
11.0469
11.1507
11.2396
11.297
11.3421
11.3733
11.3887
11.3858
11.3898
11.3912
11.3942
11.4039
11.4303
11.4877
11.5751
11.6708
11.7458
11.7906
11.8133
11.8298
11.8604
11.9043
11.9395
11.9517
11.932
11.8973
11.8725
11.8629
11.8665
11.8812
11.9036
11.9285
11.9421
1
1
1
1
1
1
1
1
1
1
1
1
1
1
1
1
1
1
1
1
1
1
1
1
1
1
1
1
1
1
1
1
1
1
1
1
1
1
1
1
1
1
1
1
1
1
1
1
1
1
1
1
1
1
1
1.04144
6.93981
10.7204
10.827
10.8236
10.8402
10.8672
10.9356
11.0279
11.1296
11.206
11.2632
11.3099
11.3444
11.3573
11.361
11.3598
11.3535
11.3555
11.371
11.4091
11.4766
11.5647
11.6515
11.7129
11.7457
11.7634
11.7822
11.8163
11.8621
11.8968
11.9081
11.8884
11.8544
11.8303
11.8222
11.8264
11.8395
11.8564
11.8735
11.8817
1
1
1
1
1
1
1
1
1
1
1
1
1
1
1
1
1
1
1
1
1
1
1
1
1
1
1
1
1
1
1
1
1
1
1
1
1
1
1
1
1
1
1
1
1
1
1
1
1
1
1
1
1
1
1
1.00037
5.87492
10.6259
10.8524
10.8325
10.84
10.8567
10.9148
11.0024
11.1012
11.1701
11.2262
11.2729
11.3111
11.3259
11.3338
11.3279
11.316
11.3175
11.3374
11.3853
11.4598
11.5474
11.6266
11.6772
11.7
11.712
11.7308
11.7671
11.8147
11.8504
11.8617
11.8417
11.8073
11.7825
11.7755
11.7814
11.7943
11.806
11.814
11.8149
1
1
1
1
1
1
1
1
1
1
1
1
1
1
1
1
1
1
1
1
1
1
1
1
1
1
1
1
1
1
1
1
1
1
1
1
1
1
1
1
1
1
1
1
1
1
1
1
1
1
1
1
1
1
1
1
4.8571
10.4576
10.8436
10.8279
10.8286
10.8396
10.8873
10.97
11.0655
11.1362
11.1921
11.2369
11.2735
11.2918
11.2989
11.292
11.2802
11.2852
11.3076
11.3591
11.4324
11.5157
11.5896
11.6356
11.6537
11.6618
11.6782
11.7126
11.7597
11.7976
11.8111
11.7929
11.7579
11.7302
11.722
11.7289
11.7425
11.7503
11.7502
11.7438
1
1
1
1
1
1
1
1
1
1
1
1
1
1
1
1
1
1
1
1
1
1
1
1
1
1
1
1
1
1
1
1
1
1
1
1
1
1
1
1
1
1
1
1
1
1
1
1
1
1
1
1
1
1
1
1
3.94453
10.1464
10.8272
10.8143
10.8081
10.8145
10.8489
10.9258
11.0186
11.0971
11.1592
11.2055
11.2391
11.2576
11.2624
11.2584
11.2511
11.2612
11.2853
11.3339
11.3968
11.469
11.5375
11.5839
11.604
11.6124
11.6255
11.6542
11.6975
11.7374
11.7553
11.7423
11.7079
11.6758
11.6632
11.6681
11.6808
11.6856
11.6799
11.6679
1
1
1
1
1
1
1
1
1
1
1
1
1
1
1
1
1
1
1
1
1
1
1
1
1
1
1
1
1
1
1
1
1
1
1
1
1
1
1
1
1
1
1
1
1
1
1
1
1
1
1
1
1
1
1
1
3.11087
9.67407
10.7933
10.787
10.7862
10.7825
10.8082
10.8762
10.9577
11.0419
11.1148
11.1673
11.2024
11.2206
11.2268
11.2298
11.2305
11.245
11.2699
11.3093
11.3566
11.4134
11.4744
11.522
11.548
11.5603
11.5713
11.5925
11.6293
11.6695
11.692
11.6863
11.6545
11.6183
11.5994
11.5989
11.6083
11.6107
11.6024
11.5879
1
1
1
1
1
1
1
1
1
1
1
1
1
1
1
1
1
1
1
1
1
1
1
1
1
1
1
1
1
1
1
1
1
1
1
1
1
1
1
1
1
1
1
1
1
1
1
1
1
1
1
1
1
1
1
1
2.329
9.0994
10.7761
10.7316
10.7499
10.7514
10.7713
10.8316
10.9057
10.9882
11.0629
11.1184
11.1594
11.1823
11.1999
11.2086
11.2183
11.2299
11.2521
11.2794
11.3124
11.3554
11.4081
11.4543
11.4848
11.5017
11.5127
11.5279
11.5571
11.5955
11.6212
11.6231
11.5959
11.5571
11.5316
11.5232
11.5259
11.5239
11.5138
11.4988
1
1
1
1
1
1
1
1
1
1
1
1
1
1
1
1
1
1
1
1
1
1
1
1
1
1
1
1
1
1
1
1
1
1
1
1
1
1
1
1
1
1
1
1
1
1
1
1
1
1
1
1
1
1
1
1
1.65502
8.35785
10.8069
10.7104
10.7184
10.7223
10.7456
10.7933
10.8598
10.9351
11.0063
11.0622
11.1094
11.1452
11.1802
11.1938
11.2052
11.2109
11.2226
11.2402
11.2639
11.2974
11.3422
11.3846
11.4155
11.4345
11.4462
11.4588
11.4819
11.5167
11.5439
11.5508
11.5273
11.4869
11.4555
11.439
11.4338
11.4264
11.4143
11.3996
1
1
1
1
1
1
1
1
1
1
1
1
1
1
1
1
1
1
1
1
1
1
1
1
1
1
1
1
1
1
1
1
1
1
1
1
1
1
1
1
1
1
1
1
1
1
1
1
1
1
1
1
1
1
1
1
1.18172
7.42408
10.6865
10.6195
10.6421
10.6597
10.7053
10.762
10.8216
10.8911
10.9561
11.0094
11.0589
11.1088
11.1562
11.1759
11.1849
11.1827
11.1808
11.1895
11.2083
11.2384
11.2776
11.316
11.3443
11.3616
11.3722
11.3836
11.4024
11.4334
11.4607
11.47
11.4484
11.4068
11.3702
11.346
11.3319
11.3169
11.3001
11.2835
1
1
1
1
1
1
1
1
1
1
1
1
1
1
1
1
1
1
1
1
1
1
1
1
1
1
1
1
1
1
1
1
1
1
1
1
1
1
1
1
1
1
1
1
1
1
1
1
1
1
1
1
1
1
1
1
1.00525
6.28753
10.5029
10.5679
10.5854
10.633
10.6796
10.7227
10.787
10.8572
10.9177
10.9686
11.0162
11.0699
11.1224
11.1479
11.1556
11.1434
11.1287
11.128
11.1447
11.1746
11.2111
11.2468
11.2715
11.2846
11.2924
11.3014
11.3172
11.3448
11.3707
11.3798
11.3563
11.3116
11.2687
11.237
11.2155
11.1942
11.1729
11.1541
1
1
1
1
1
1
1
1
1
1
1
1
1
1
1
1
1
1
1
1
1
1
1
1
1
1
1
1
1
1
1
1
1
1
1
1
1
1
1
1
1
1
1
1
1
1
1
1
1
1
1
1
1
1
1
1
1.00002
5.06672
10.2593
10.5692
10.5611
10.6006
10.6458
10.6856
10.7559
10.8304
10.8896
10.9358
10.9789
11.0293
11.0806
11.1106
11.116
11.0968
11.0716
11.0621
11.0762
11.1054
11.1393
11.1732
11.1963
11.2065
11.2107
11.2143
11.2257
11.2486
11.272
11.2787
11.2526
11.2045
11.1548
11.1144
11.0831
11.0528
11.0251
11.001
1
1
1
1
1
1
1
1
1
1
1
1
1
1
1
1
1
1
1
1
1
1
1
1
1
1
1
1
1
1
1
1
1
1
1
1
1
1
1
1
1
1
1
1
1
1
1
1
1
1
1
1
1
1
1
1
1
3.85914
9.86456
10.5387
10.5434
10.5675
10.5932
10.6368
10.7092
10.7887
10.8535
10.9029
10.9463
10.9938
11.0395
11.0659
11.0667
11.0451
11.0145
10.9982
11.006
11.0292
11.0574
11.0899
11.1147
11.1258
11.1279
11.125
11.1283
11.143
11.1619
11.1656
11.1369
11.0823
11.0207
10.9661
10.9223
10.885
10.8553
10.8304
1
1
1
1
1
1
1
1
1
1
1
1
1
1
1
1
1
1
1
1
1
1
1
1
1
1
1
1
1
1
1
1
1
1
1
1
1
1
1
1
1
1
1
1
1
1
1
1
1
1
1
1
1
1
1
1
1
2.65882
9.23432
10.625
10.5322
10.5222
10.5356
10.5782
10.654
10.7471
10.8244
10.8774
10.9127
10.9437
10.9791
11.0052
11.0112
10.9949
10.9644
10.9417
10.938
10.9492
10.9678
10.9971
11.0253
11.0406
11.0424
11.033
11.0248
11.0276
11.0381
11.0373
11.0068
10.9466
10.8733
10.8024
10.7408
10.6875
10.6463
10.6114
1
1
1
1
1
1
1
1
1
1
1
1
1
1
1
1
1
1
1
1
1
1
1
1
1
1
1
1
1
1
1
1
1
1
1
1
1
1
1
1
1
1
1
1
1
1
1
1
1
1
1
1
1
1
1
1
1
1.63647
8.3802
10.7263
10.5962
10.5811
10.5812
10.5997
10.6429
10.7052
10.7623
10.8113
10.8477
10.8799
10.9139
10.9392
10.9517
10.9421
10.9155
10.8888
10.872
10.8703
10.8784
10.9004
10.929
10.9492
10.9523
10.937
10.9158
10.9032
10.9006
10.8927
10.8599
10.7934
10.7031
10.6042
10.5106
10.4353
10.3836
10.3531
1
1
1
1
1
1
1
1
1
1
1
1
1
1
1
1
1
1
1
1
1
1
1
1
1
1
1
1
1
1
1
1
1
1
1
1
1
1
1
1
1
1
1
1
1
1
1
1
1
1
1
1
1
1
1
1
1
1.06253
7.24307
10.5777
10.4758
10.4811
10.5055
10.538
10.5856
10.6518
10.7133
10.7651
10.7991
10.8264
10.8519
10.8726
10.8869
10.8828
10.8619
10.8323
10.806
10.7917
10.7911
10.805
10.8294
10.8521
10.8569
10.8377
10.8033
10.7716
10.7509
10.7309
10.6916
10.6168
10.5091
10.3845
10.2589
10.1495
10.0555
9.96755
1
1
1
1
1
1
1
1
1
1
1
1
1
1
1
1
1
1
1
1
1
1
1
1
1
1
1
1
1
1
1
1
1
1
1
1
1
1
1
1
1
1
1
1
1
1
1
1
1
1
1
1
1
1
1
1
1
1.00047
5.73161
10.3002
10.4401
10.4719
10.4844
10.4954
10.53
10.5932
10.6586
10.7143
10.7506
10.7797
10.8012
10.8144
10.8248
10.8212
10.7983
10.7626
10.731
10.7105
10.7024
10.7086
10.7267
10.749
10.7557
10.7354
10.6894
10.6361
10.5925
10.5537
10.5017
10.4159
10.2881
10.1259
9.93525
9.73771
9.56405
9.4361
1
1
1
1
1
1
1
1
1
1
1
1
1
1
1
1
1
1
1
1
1
1
1
1
1
1
1
1
1
1
1
1
1
1
1
1
1
1
1
1
1
1
1
1
1
1
1
1
1
1
1
1
1
1
1
1
1
1
4.20586
9.85255
10.4156
10.4389
10.4474
10.4522
10.4769
10.5325
10.5984
10.6567
10.6966
10.7288
10.7495
10.7614
10.7657
10.7572
10.7306
10.6913
10.6565
10.6278
10.6086
10.6035
10.6144
10.6359
10.6465
10.6284
10.5748
10.5013
10.4308
10.3663
10.2932
10.1872
10.0322
9.8261
9.57986
9.29411
8.99679
8.82072
1
1
1
1
1
1
1
1
1
1
1
1
1
1
1
1
1
1
1
1
1
1
1
1
1
1
1
1
1
1
1
1
1
1
1
1
1
1
1
1
1
1
1
1
1
1
1
1
1
1
1
1
1
1
1
1
1
1
2.73677
9.22321
10.4739
10.4328
10.4217
10.4185
10.4344
10.4752
10.5317
10.5833
10.6229
10.6579
10.6828
10.6998
10.7069
10.7007
10.6723
10.6269
10.5821
10.5415
10.5116
10.4956
10.4983
10.5152
10.5267
10.5113
10.4547
10.3659
10.2688
10.1736
10.0711
9.93827
9.7499
9.49722
9.1653
8.67475
7.75633
5.78747
1
1
1
1
1
1
1
1
1
1
1
1
1
1
1
1
1
1
1
1
1
1
1
1
1
1
1
1
1
1
1
1
1
1
1
1
1
1
1
1
1
1
1
1
1
1
1
1
1
1
1
1
1
1
1
1
1
1
1.5366
8.19385
10.571
10.4479
10.4106
10.4038
10.4092
10.434
10.4798
10.5216
10.553
10.5812
10.6062
10.6298
10.6434
10.6399
10.6109
10.565
10.5144
10.464
10.4213
10.3905
10.3799
10.3869
10.3947
10.3805
10.3237
10.2256
10.1064
9.97995
9.84236
9.67603
9.44537
9.13253
8.67402
7.99922
6.85914
4.74517
1
1
1
1
1
1
1
1
1
1
1
1
1
1
1
1
1
1
1
1
1
1
1
1
1
1
1
1
1
1
1
1
1
1
1
1
1
1
1
1
1
1
1
1
1
1
1
1
1
1
1
1
1
1
1
1
1
1
1.02861
6.76263
10.2801
10.3185
10.3382
10.3384
10.3449
10.367
10.4113
10.4547
10.4895
10.517
10.538
10.5582
10.5711
10.569
10.5436
10.5
10.4465
10.3898
10.3368
10.2934
10.2684
10.2603
10.2569
10.2372
10.179
10.0758
9.94015
9.78646
9.61305
9.41041
9.13628
8.77269
8.22859
7.49837
6.18678
4.43366
1
1
1
1
1
1
1
1
1
1
1
1
1
1
1
1
1
1
1
1
1
1
1
1
1
1
1
1
1
1
1
1
1
1
1
1
1
1
1
1
1
1
1
1
1
1
1
1
1
1
1
1
1
1
1
1
1
1
1.00014
4.98606
9.9225
10.3107
10.3268
10.3251
10.3235
10.3324
10.3605
10.3966
10.4308
10.4568
10.4726
10.4868
10.4958
10.4936
10.4717
10.4306
10.375
10.3139
10.2536
10.2019
10.165
10.1406
10.1206
10.0878
10.0231
9.91459
9.76663
9.59266
9.38899
9.15237
8.84301
8.43127
7.87642
7.02982
5.82521
4.35676
1
1
1
1
1
1
1
1
1
1
1
1
1
1
1
1
1
1
1
1
1
1
1
1
1
1
1
1
1
1
1
1
1
1
1
1
1
1
1
1
1
1
1
1
1
1
1
1
1
1
1
1
1
1
1
1
1
1
1
3.21768
9.35519
10.29
10.2885
10.292
10.292
10.2934
10.3055
10.3332
10.3677
10.3966
10.4133
10.4237
10.4259
10.4182
10.3946
10.3518
10.2928
10.2305
10.1671
10.1116
10.0668
10.0288
9.99051
9.94009
9.86255
9.74593
9.58727
9.39883
9.17411
8.90902
8.5744
8.12889
7.55439
6.70982
5.65719
4.46536
1
1
1
1
1
1
1
1
1
1
1
1
1
1
1
1
1
1
1
1
1
1
1
1
1
1
1
1
1
1
1
1
1
1
1
1
1
1
1
1
1
1
1
1
1
1
1
1
1
1
1
1
1
1
1
1
1
1
1
1.70621
8.38731
10.3834
10.2885
10.2683
10.2551
10.2447
10.2488
10.2652
10.2946
10.3255
10.3484
10.3623
10.3627
10.3501
10.3217
10.2717
10.2065
10.142
10.0765
10.0175
9.96644
9.91759
9.86361
9.79629
9.70373
9.57654
9.40781
9.20759
8.97022
8.68563
8.33267
7.87809
7.29313
6.50398
5.59974
4.58496
1
1
1
1
1
1
1
1
1
1
1
1
1
1
1
1
1
1
1
1
1
1
1
1
1
1
1
1
1
1
1
1
1
1
1
1
1
1
1
1
1
1
1
1
1
1
1
1
1
1
1
1
1
1
1
1
1
1
1
1.0454
6.81488
10.1038
10.1871
10.2153
10.1962
10.1811
10.1868
10.1991
10.221
10.2512
10.2791
10.2981
10.3006
10.2851
10.2524
10.1961
10.1269
10.0572
9.98544
9.91714
9.85727
9.80056
9.73744
9.65782
9.55101
9.41226
9.23478
9.0256
8.78056
8.48441
8.12076
7.66707
7.09481
6.3806
5.58943
4.7197
1
1
1
1
1
1
1
1
1
1
1
1
1
1
1
1
1
1
1
1
1
1
1
1
1
1
1
1
1
1
1
1
1
1
1
1
1
1
1
1
1
1
1
1
1
1
1
1
1
1
1
1
1
1
1
1
1
1
1
1.00025
4.76222
9.74397
10.1586
10.1847
10.1626
10.1402
10.1383
10.1418
10.1513
10.1737
10.2007
10.2212
10.2277
10.2136
10.1814
10.127
10.0592
9.98248
9.89836
9.8162
9.74446
9.6804
9.61143
9.52329
9.4049
9.25474
9.07076
8.85768
8.6075
8.30476
7.93667
7.49012
6.94943
6.31194
5.60148
4.86064
1
1
1
1
1
1
1
1
1
1
1
1
1
1
1
1
1
1
1
1
1
1
1
1
1
1
1
1
1
1
1
1
1
1
1
1
1
1
1
1
1
1
1
1
1
1
1
1
1
1
1
1
1
1
1
1
1
1
1
1
2.76314
9.15753
10.1748
10.1353
10.1158
10.0946
10.0859
10.0828
10.0858
10.1016
10.1231
10.1379
10.1428
10.1292
10.102
10.0588
9.99991
9.91924
9.8217
9.72204
9.6343
9.55993
9.48471
9.39035
9.26323
9.10339
8.91666
8.70469
8.45399
8.14646
7.78023
7.34234
6.84318
6.27063
5.63496
4.99463
1
1
1
1
1
1
1
1
1
1
1
1
1
1
1
1
1
1
1
1
1
1
1
1
1
1
1
1
1
1
1
1
1
1
1
1
1
1
1
1
1
1
1
1
1
1
1
1
1
1
1
1
1
1
1
1
1
1
1
1
1.31178
7.81391
10.2629
10.1585
10.0984
10.0657
10.0363
10.0195
10.0175
10.0314
10.0481
10.0565
10.0561
10.0404
10.0188
9.98809
9.93982
9.85992
9.75271
9.63615
9.53167
9.44395
9.35975
9.25916
9.12535
8.95961
8.77292
8.56403
8.31665
8.008
7.64697
7.21694
6.76229
6.2401
5.67972
5.10883
1
1
1
1
1
1
1
1
1
1
1
1
1
1
1
1
1
1
1
1
1
1
1
1
1
1
1
1
1
1
1
1
1
1
1
1
1
1
1
1
1
1
1
1
1
1
1
1
1
1
1
1
1
1
1
1
1
1
1
1
1.00825
5.83053
9.79502
10.0167
10.0793
10.0536
10.0108
9.98188
9.96948
9.97332
9.98074
9.98245
9.97647
9.95766
9.93767
9.91275
9.87004
9.79413
9.68458
9.55796
9.43934
9.33648
9.23966
9.1305
8.99191
8.82525
8.63966
8.43371
8.19103
7.89037
7.53081
7.1196
6.69787
6.21659
5.72873
5.20611
1
1
1
1
1
1
1
1
1
1
1
1
1
1
1
1
1
1
1
1
1
1
1
1
1
1
1
1
1
1
1
1
1
1
1
1
1
1
1
1
1
1
1
1
1
1
1
1
1
1
1
1
1
1
1
1
1
1
1
1
1
3.53288
9.29441
10.0584
10.0581
10.0244
9.98793
9.94525
9.91991
9.91116
9.90941
9.906
9.89796
9.8801
9.86044
9.83411
9.7895
9.71612
9.61026
9.48351
9.35692
9.24014
9.12769
9.00695
8.86524
8.70042
8.51578
8.31047
8.07327
7.78418
7.43217
7.05027
6.64416
6.20384
5.76585
5.28371
1
1
1
1
1
1
1
1
1
1
1
1
1
1
1
1
1
1
1
1
1
1
1
1
1
1
1
1
1
1
1
1
1
1
1
1
1
1
1
1
1
1
1
1
1
1
1
1
1
1
1
1
1
1
1
1
1
1
1
1
0.999999
1.65456
8.23327
10.1228
10.0243
9.97999
9.94862
9.90499
9.87009
9.84843
9.83816
9.82937
9.81958
9.80279
9.78186
9.75112
9.70129
9.62856
9.52953
9.40993
9.28128
9.15307
9.02334
8.88951
8.74511
8.58328
8.40101
8.19499
7.96386
7.68573
7.35841
7.00116
6.60498
6.20535
5.79556
5.3571
1
1
1
1
1
1
1
1
1
1
1
1
1
1
1
1
1
1
1
1
1
1
1
1
1
1
1
1
1
1
1
1
1
1
1
1
1
1
1
1
1
1
1
1
1
1
1
1
1
1
1
1
1
1
1
1
1
1
1
1
1
1.0348
6.34036
9.70706
9.85482
9.92176
9.90484
9.86022
9.81925
9.7901
9.77226
9.75795
9.74436
9.72644
9.70239
9.66616
9.61017
9.53605
9.44409
9.33412
9.20809
9.07163
8.92597
8.77888
8.62938
8.46982
8.29156
8.08673
7.86017
7.59162
7.29787
6.95548
6.57988
6.21395
5.82481
5.42974
1
1
1
1
1
1
1
1
1
1
1
1
1
1
1
1
1
1
1
1
1
1
1
1
1
1
1
1
1
1
1
1
1
1
1
1
1
1
1
1
1
1
1
1
1
1
1
1
1
1
1
1
1
1
1
1
1
1
1
1
1
1.00011
3.86327
9.23561
9.85584
9.87644
9.85717
9.82108
9.7703
9.73153
9.70646
9.68719
9.66873
9.6482
9.62057
9.58066
9.52056
9.44621
9.36032
9.25836
9.13648
8.99444
8.8373
8.67708
8.51786
8.35737
8.18435
7.9859
7.76276
7.506
7.23798
6.91245
6.57344
6.2323
5.86788
5.50417
1
1
1
1
1
1
1
1
1
1
1
1
1
1
1
1
1
1
1
1
1
1
1
1
1
1
1
1
1
1
1
1
1
1
1
1
1
1
1
1
1
1
1
1
1
1
1
1
1
1
1
1
1
1
1
1
1
1
1
1
1
0.999999
1.77516
8.28448
9.93517
9.83106
9.78454
9.75966
9.71129
9.67101
9.64189
9.61738
9.59375
9.56998
9.53797
9.49424
9.43132
9.35959
9.27911
9.18261
9.06627
8.92344
8.76192
8.59025
8.4166
8.24895
8.078
7.88817
7.67108
7.42945
7.17162
6.87305
6.56904
6.24734
5.91058
5.5658
1
1
1
1
1
1
1
1
1
1
1
1
1
1
1
1
1
1
1
1
1
1
1
1
1
1
1
1
1
1
1
1
1
1
1
1
1
1
1
1
1
1
1
1
1
1
1
1
1
1
1
1
1
1
1
1
1
1
1
1
1
1
1.04798
6.3879
9.56657
9.6848
9.73724
9.71472
9.66314
9.61346
9.5766
9.54835
9.52215
9.49375
9.45823
9.40979
9.34554
9.27662
9.19967
9.10655
8.99544
8.85754
8.69659
8.52208
8.33567
8.15459
7.97834
7.7962
7.59265
7.36626
7.11266
6.84057
6.55694
6.25566
5.94386
5.62091
1
1
1
1
1
1
1
1
1
1
1
1
1
1
1
1
1
1
1
1
1
1
1
1
1
1
1
1
1
1
1
1
1
1
1
1
1
1
1
1
1
1
1
1
1
1
1
1
1
1
1
1
1
1
1
1
1
1
1
1
1
1
1.00018
3.75663
9.06605
9.68455
9.70292
9.68009
9.62904
9.5648
9.51215
9.47418
9.44334
9.41248
9.37609
9.32492
9.26066
9.19345
9.11923
9.02913
8.92209
8.79162
8.63599
8.46802
8.27745
8.08299
7.89706
7.71655
7.52945
7.31403
7.06506
6.80781
6.53588
6.25609
5.96343
5.66339
1
1
1
1
1
1
1
1
1
1
1
1
1
1
1
1
1
1
1
1
1
1
1
1
1
1
1
1
1
1
1
1
1
1
1
1
1
1
1
1
1
1
1
1
1
1
1
1
1
1
1
1
1
1
1
1
1
1
1
1
1
1
1
1.60336
7.99141
9.75891
9.67342
9.62533
9.58864
9.52309
9.45849
9.40631
9.365
9.32921
9.29008
9.23854
9.17689
9.11249
9.04064
8.95134
8.8452
8.72051
8.57276
8.4134
8.23191
8.03368
7.8415
7.65628
7.47809
7.26853
7.03103
6.78104
6.51842
6.25428
5.97432
5.6969
1
1
1
1
1
1
1
1
1
1
1
1
1
1
1
1
1
1
1
1
1
1
1
1
1
1
1
1
1
1
1
1
1
1
1
1
1
1
1
1
1
1
1
1
1
1
1
1
1
1
1
1
1
1
1
1
1
1
1
1
1
1
1
1.02868
5.87807
9.35402
9.52319
9.56906
9.54561
9.4902
9.42306
9.35894
9.306
9.25858
9.21144
9.15783
9.09862
9.03786
8.96823
8.87851
8.77102
8.64788
8.50407
8.35237
8.18608
7.99651
7.80684
7.61931
7.43536
7.22694
7.00424
6.76071
6.50876
6.25291
5.98201
5.72176
1
1
1
1
1
1
1
1
1
1
1
1
1
1
1
1
1
1
1
1
1
1
1
1
1
1
1
1
1
1
1
1
1
1
1
1
1
1
1
1
1
1
1
1
1
1
1
1
1
1
1
1
1
1
1
1
1
1
1
1
1
1
1
1.00005
3.13724
8.87675
9.57988
9.54308
9.49391
9.44793
9.3832
9.31479
9.25127
9.19239
9.13831
9.08125
9.02355
8.96582
8.89902
8.80987
8.70132
8.5767
8.43215
8.28361
8.13057
7.95779
7.77823
7.59404
7.39987
7.19155
6.97716
6.74369
6.50491
6.25382
5.99606
5.74607
1
1
1
1
1
1
1
1
1
1
1
1
1
1
1
1
1
1
1
1
1
1
1
1
1
1
1
1
1
1
1
1
1
1
1
1
1
1
1
1
1
1
1
1
1
1
1
1
1
1
1
1
1
1
1
1
1
1
1
1
1
1
1
0.999999
1.28755
7.43182
9.57732
9.47665
9.44347
9.4067
9.34997
9.28283
9.2102
9.13995
9.07902
9.02227
8.96388
8.90657
8.84049
8.75286
8.64316
8.51636
8.36985
8.21919
8.07238
7.91616
7.7496
7.57036
7.37153
7.16331
6.9502
6.72677
6.49836
6.25538
6.01333
5.76931
1
1
1
1
1
1
1
1
1
1
1
1
1
1
1
1
1
1
1
1
1
1
1
1
1
1
1
1
1
1
1
1
1
1
1
1
1
1
1
1
1
1
1
1
1
1
1
1
1
1
1
1
1
1
1
1
1
1
1
1
1
1
1
1
1.00668
4.80356
9.03961
9.35778
9.38726
9.37498
9.32152
9.25113
9.1721
9.09369
9.02417
8.96705
8.90795
8.84932
8.78148
8.6959
8.58834
8.46352
8.31899
8.16635
8.01839
7.86904
7.71143
7.53744
7.34182
7.13745
6.92609
6.71156
6.49261
6.2639
6.03399
5.79683
1
1
1
1
1
1
1
1
1
1
1
1
1
1
1
1
1
1
1
1
1
1
1
1
1
1
1
1
1
1
1
1
1
1
1
1
1
1
1
1
1
1
1
1
1
1
1
1
1
1
1
1
1
1
1
1
1
1
1
1
1
1
1
1
0.999994
2.08072
8.29428
9.48062
9.36914
9.31592
9.26347
9.19155
9.11192
9.0325
8.96123
8.90333
8.84808
8.78865
8.72134
8.63822
8.5357
8.41696
8.27962
8.12932
7.97807
7.82603
7.66991
7.50101
7.3149
7.1171
6.90991
6.70118
6.48738
6.2699
6.04747
5.82124
1
1
1
1
1
1
1
1
1
1
1
1
1
1
1
1
1
1
1
1
1
1
1
1
1
1
1
1
1
1
1
1
1
1
1
1
1
1
1
1
1
1
1
1
1
1
1
1
1
1
1
1
1
1
1
1
1
1
1
1
1
1
1
1
0.999999
1.0817
6.24912
9.14828
9.22809
9.24134
9.21688
9.15531
9.07552
8.99022
8.91118
8.84478
8.78641
8.72572
8.65745
8.57491
8.47667
8.36509
8.23806
8.09621
7.94576
7.78944
7.62834
7.46054
7.28392
7.09518
6.89675
6.69568
6.48749
6.27725
6.06048
5.84669
1
1
1
1
1
1
1
1
1
1
1
1
1
1
1
1
1
1
1
1
1
1
1
1
1
1
1
1
1
1
1
1
1
1
1
1
1
1
1
1
1
1
1
1
1
1
1
1
1
1
1
1
1
1
1
1
1
1
1
1
1
1
1
1
1
1.00048
3.22197
8.64569
9.27297
9.22143
9.16958
9.11625
9.04052
8.95383
8.86843
8.78961
8.72006
8.6547
8.58457
8.5037
8.41078
8.30681
8.18975
8.05938
7.9165
7.76141
7.59654
7.42706
7.25566
7.07667
6.88979
6.69605
6.49315
6.28588
6.07528
5.87168
1
1
1
1
1
1
1
1
1
1
1
1
1
1
1
1
1
1
1
1
1
1
1
1
1
1
1
1
1
1
1
1
1
1
1
1
1
1
1
1
1
1
1
1
1
1
1
1
1
1
1
1
1
1
1
1
1
1
1
1
1
1
1
1
1
1
1.29497
7.14262
9.26273
9.17467
9.13996
9.08606
9.01502
8.93044
8.84139
8.75351
8.67201
8.59692
8.52461
8.44224
8.3485
8.24555
8.13253
8.01047
7.87896
7.73274
7.57106
7.40137
7.23019
7.05619
6.87821
6.69195
6.497
6.29523
6.09391
5.89862
1
1
1
1
1
1
1
1
1
1
1
1
1
1
1
1
1
1
1
1
1
1
1
1
1
1
1
1
1
1
1
1
1
1
1
1
1
1
1
1
1
1
1
1
1
1
1
1
1
1
1
1
1
1
1
1
1
1
1
1
1
1
1
1
1
1
1.00657
4.23321
8.69959
9.0783
9.08874
9.06635
9.00196
8.91634
8.8215
8.72505
8.63247
8.54453
8.46118
8.37838
8.28668
8.18452
8.07268
7.95495
7.83315
7.69998
7.54899
7.38584
7.21628
7.0436
6.86828
6.68613
6.4967
6.30123
6.10918
5.92133
1
1
1
1
1
1
1
1
1
1
1
1
1
1
1
1
1
1
1
1
1
1
1
1
1
1
1
1
1
1
1
1
1
1
1
1
1
1
1
1
1
1
1
1
1
1
1
1
1
1
1
1
1
1
1
1
1
1
1
1
1
1
1
1
1
1
1
1.58383
7.64742
9.18881
9.06295
9.00635
8.95691
8.8918
8.80671
8.70833
8.60462
8.50443
8.40906
8.32165
8.23309
8.13526
8.02343
7.90396
7.78354
7.65854
7.52218
7.37189
7.20723
7.03408
6.85669
6.67572
6.49083
6.30341
6.1203
5.9403
1
1
1
1
1
1
1
1
1
1
1
1
1
1
1
1
1
1
1
1
1
1
1
1
1
1
1
1
1
1
1
1
1
1
1
1
1
1
1
1
1
1
1
1
1
1
1
1
1
1
1
1
1
1
1
1
1
1
1
1
1
1
1
1
1
1
1
1.02591
5.02185
8.70709
8.92157
8.92062
8.89814
8.85482
8.78928
8.69805
8.59082
8.47913
8.37073
8.2717
8.17711
8.07956
7.97187
7.85542
7.73607
7.61421
7.48929
7.35344
7.1987
7.02811
6.85
6.66966
6.4882
6.30749
6.1313
5.95823
1
1
1
1
1
1
1
1
1
1
1
1
1
1
1
1
1
1
1
1
1
1
1
1
1
1
1
1
1
1
1
1
1
1
1
1
1
1
1
1
1
1
1
1
1
1
1
1
1
1
1
1
1
1
1
1
1
1
1
1
1
1
1
1
1
1
1
1.00004
1.9559
7.87538
9.07743
8.93737
8.86421
8.80394
8.74154
8.66705
8.57371
8.46433
8.34674
8.23192
8.12703
8.02648
7.92432
7.81548
7.6989
7.57614
7.45333
7.32654
7.18263
7.01795
6.84165
6.66374
6.48757
6.31386
6.1443
5.97751
1
1
1
1
1
1
1
1
1
1
1
1
1
1
1
1
1
1
1
1
1
1
1
1
1
1
1
1
1
1
1
1
1
1
1
1
1
1
1
1
1
1
1
1
1
1
1
1
1
1
1
1
1
1
1
1
1
1
1
1
1
1
1
1
1
1
1
1
1.06161
5.49552
8.6646
8.78549
8.78527
8.74924
8.69481
8.63188
8.55106
8.44827
8.33177
8.21031
8.09147
7.98109
7.87547
7.77037
7.65922
7.53959
7.41787
7.29544
7.16043
7.00476
6.83448
6.66197
6.49226
6.32526
6.162
6.00083
1
1
1
1
1
1
1
1
1
1
1
1
1
1
1
1
1
1
1
1
1
1
1
1
1
1
1
1
1
1
1
1
1
1
1
1
1
1
1
1
1
1
1
1
1
1
1
1
1
1
1
1
1
1
1
1
1
1
1
1
1
1
1
1
1
1
1
1
1.00028
2.23855
7.94156
8.92388
8.80673
8.73464
8.66496
8.59265
8.51479
8.42149
8.31288
8.19218
8.06736
7.94584
7.83462
7.73002
7.62308
7.50771
7.38672
7.26302
7.13151
6.98511
6.82503
6.66095
6.49847
6.33846
6.18146
6.02545
1
1
1
1
1
1
1
1
1
1
1
1
1
1
1
1
1
1
1
1
1
1
1
1
1
1
1
1
1
1
1
1
1
1
1
1
1
1
1
1
1
1
1
1
1
1
1
1
1
1
1
1
1
1
1
1
1
1
1
1
1
1
1
1
1
1
1
1
1
1.09743
5.68432
8.59238
8.66312
8.6575
8.61307
8.54954
8.47582
8.38888
8.28864
8.17584
8.05304
7.9268
7.80619
7.69486
7.58576
7.47255
7.35385
7.22993
7.10053
6.9628
6.81566
6.66264
6.50772
6.35312
6.19985
6.04689
1
1
1
1
1
1
1
1
1
1
1
1
1
1
1
1
1
1
1
1
1
1
1
1
1
1
1
1
1
1
1
1
1
1
1
1
1
1
1
1
1
1
1
1
1
1
1
1
1
1
1
1
1
1
1
1
1
1
1
1
1
1
1
1
1
1
1
1
1
1.00071
2.33415
7.88428
8.78351
8.67274
8.59907
8.52653
8.44173
8.35201
8.25868
8.1564
8.04144
7.91522
7.78635
7.66403
7.55109
7.44163
7.32653
7.20285
7.07419
6.9429
6.80755
6.66497
6.5161
6.36466
6.21342
6.06243
1
1
1
1
1
1
1
1
1
1
1
1
1
1
1
1
1
1
1
1
1
1
1
1
1
1
1
1
1
1
1
1
1
1
1
1
1
1
1
1
1
1
1
1
1
1
1
1
1
1
1
1
1
1
1
1
1
1
1
1
1
1
1
1
1
1
1
1
1
1
1.11036
5.63767
8.48266
8.53498
8.5195
8.46996
8.39438
8.31273
8.22658
8.13345
8.02843
7.90845
7.77787
7.64822
7.52869
7.41687
7.30342
7.18036
7.05039
6.92354
6.79833
6.66614
6.52379
6.37445
6.22295
6.0725
1
1
1
1
1
1
1
1
1
1
1
1
1
1
1
1
1
1
1
1
1
1
1
1
1
1
1
1
1
1
1
1
1
1
1
1
1
1
1
1
1
1
1
1
1
1
1
1
1
1
1
1
1
1
1
1
1
1
1
1
1
1
1
1
1
1
1
1
1
1
1.00092
2.25804
7.71521
8.65037
8.53466
8.45563
8.37477
8.28891
8.2011
8.10949
8.01055
7.89967
7.77491
7.64339
7.51582
7.39666
7.28187
7.16273
7.03668
6.91179
6.78976
6.66288
6.52525
6.37812
6.22734
6.07856
1
1
1
1
1
1
1
1
1
1
1
1
1
1
1
1
1
1
1
1
1
1
1
1
1
1
1
1
1
1
1
1
1
1
1
1
1
1
1
1
1
1
1
1
1
1
1
1
1
1
1
1
1
1
1
1
1
1
1
1
1
1
1
1
1
1
1
1
1
1
1
1.10038
5.36269
8.32956
8.39761
8.38058
8.32838
8.25289
8.1682
8.07899
7.98671
7.88634
7.77183
7.64504
7.5153
7.39093
7.27213
7.1529
7.028
6.90092
6.77757
6.65381
6.5216
6.37898
6.23067
6.08409
1
1
1
1
1
1
1
1
1
1
1
1
1
1
1
1
1
1
1
1
1
1
1
1
1
1
1
1
1
1
1
1
1
1
1
1
1
1
1
1
1
1
1
1
1
1
1
1
1
1
1
1
1
1
1
1
1
1
1
1
1
1
1
1
1
1
1
1
1
1
1
1.00085
2.10281
7.40367
8.50812
8.4019
8.32133
8.24061
8.15176
8.05929
7.9651
7.86908
7.76426
7.64619
7.51907
7.39119
7.26726
7.14585
7.02094
6.89183
6.76574
6.6431
6.51588
6.37925
6.23546
6.09176
1
1
1
1
1
1
1
1
1
1
1
1
1
1
1
1
1
1
1
1
1
1
1
1
1
1
1
1
1
1
1
1
1
1
1
1
1
1
1
1
1
1
1
1
1
1
1
1
1
1
1
1
1
1
1
1
1
1
1
1
1
1
1
1
1
1
1
1
1
1
1
1
1.07808
4.8355
8.12849
8.27393
8.24857
8.19393
8.11717
8.03051
7.93828
7.84493
7.74746
7.63888
7.51935
7.3954
7.27184
7.14789
7.01886
6.88369
6.75107
6.62695
6.50473
6.37641
6.24022
6.101
1
1
1
1
1
1
1
1
1
1
1
1
1
1
1
1
1
1
1
1
1
1
1
1
1
1
1
1
1
1
1
1
1
1
1
1
1
1
1
1
1
1
1
1
1
1
1
1
1
1
1
1
1
1
1
1
1
1
1
1
1
1
1
1
1
1
1
1
1
1
1
1
1.00062
1.8529
6.96363
8.36129
8.27579
8.19406
8.1021
8.00909
7.91644
7.82238
7.726
7.62294
7.51098
7.39288