/*--------------------------------*- C++ -*----------------------------------*\
  =========                 |
  \\      /  F ield         | OpenFOAM: The Open Source CFD Toolbox
   \\    /   O peration     | Website:  https://openfoam.org
    \\  /    A nd           | Version:  7
     \\/     M anipulation  |
\*---------------------------------------------------------------------------*/
FoamFile
{
    version     2.0;
    format      ascii;
    class       volScalarField;
    location    "0.9";
    object      T;
}
// * * * * * * * * * * * * * * * * * * * * * * * * * * * * * * * * * * * * * //

dimensions      [0 0 0 1 0 0 0];

internalField   nonuniform List<scalar> 
64512
(
1
1
1
1
1
1
1
1
1
1
1
1
1
1
1
1
1
1
1
1
1
1
1
1
1
1
1
1
1
1
1
1
1
1
1
1
1
1
1
1
1
1
1
1
1
1
1
1
1
1
1
1
1
1
1
2.19287
2.78052
2.7947
2.79155
2.78803
2.78095
2.77694
2.77982
2.78957
2.80578
2.8234
2.83446
2.83681
2.8345
2.83179
2.83126
2.8329
2.83733
2.8427
2.84773
2.85233
2.8565
2.86061
2.86461
2.86866
2.87323
2.87874
2.88533
2.89236
2.89873
2.90355
2.90625
2.90862
2.91393
2.92686
2.95621
3.01434
3.10609
3.21098
3.28786
3.3168
1
1
1
1
1
1
1
1
1
1
1
1
1
1
1
1
1
1
1
1
1
1
1
1
1
1
1
1
1
1
1
1
1
1
1
1
1
1
1
1
1
1
1
1
1
1
1
1
1
1
1
1
1
1
1
2.18607
2.78015
2.79478
2.79168
2.78801
2.78067
2.77674
2.77971
2.78953
2.80587
2.82339
2.83447
2.83661
2.83429
2.83161
2.83114
2.83281
2.83724
2.84257
2.84755
2.85214
2.85631
2.86044
2.86447
2.86857
2.87318
2.87874
2.88534
2.89233
2.89861
2.9033
2.90593
2.9084
2.91391
2.92708
2.95666
3.01493
3.10662
3.21125
3.28794
3.31678
1
1
1
1
1
1
1
1
1
1
1
1
1
1
1
1
1
1
1
1
1
1
1
1
1
1
1
1
1
1
1
1
1
1
1
1
1
1
1
1
1
1
1
1
1
1
1
1
1
1
1
1
1
1
1
2.17231
2.78058
2.79474
2.79183
2.7877
2.78016
2.77642
2.77961
2.7897
2.80617
2.82351
2.83447
2.83614
2.83376
2.83118
2.83086
2.83259
2.83712
2.8424
2.84727
2.8518
2.85596
2.86011
2.8642
2.8684
2.87314
2.87879
2.88541
2.89231
2.89843
2.90295
2.90552
2.90821
2.91406
2.9277
2.95784
3.01669
3.10857
3.21277
3.28892
3.31754
1
1
1
1
1
1
1
1
1
1
1
1
1
1
1
1
1
1
1
1
1
1
1
1
1
1
1
1
1
1
1
1
1
1
1
1
1
1
1
1
1
1
1
1
1
1
1
1
1
1
1
1
1
1
1
2.15325
2.78037
2.79435
2.79135
2.78677
2.77914
2.77582
2.77941
2.79006
2.80675
2.82374
2.83432
2.83532
2.83289
2.83043
2.83032
2.83221
2.83689
2.84211
2.84682
2.85125
2.85535
2.85953
2.86373
2.86812
2.87304
2.87881
2.88542
2.89217
2.89811
2.90247
2.90503
2.90795
2.91422
2.92856
2.95974
3.01973
3.11219
3.21587
3.29107
3.31919
1
1
1
1
1
1
1
1
1
1
1
1
1
1
1
1
1
1
1
1
1
1
1
1
1
1
1
1
1
1
1
1
1
1
1
1
1
1
1
1
1
1
1
1
1
1
1
1
1
1
1
1
1
1
1
2.12851
2.77943
2.79308
2.78982
2.78508
2.77756
2.77499
2.77913
2.79054
2.80753
2.82395
2.83381
2.8341
2.83161
2.82933
2.82948
2.83166
2.83655
2.84171
2.84622
2.85049
2.85449
2.85867
2.86303
2.86769
2.87288
2.87877
2.88533
2.89189
2.89763
2.90188
2.90448
2.90762
2.91428
2.92934
2.96179
3.02337
3.11684
3.22017
3.29434
3.32187
1
1
1
1
1
1
1
1
1
1
1
1
1
1
1
1
1
1
1
1
1
1
1
1
1
1
1
1
1
1
1
1
1
1
1
1
1
1
1
1
1
1
1
1
1
1
1
1
1
1
1
1
1
1
1
2.09772
2.77828
2.79095
2.78718
2.78238
2.77507
2.7735
2.77839
2.79093
2.80837
2.82412
2.83298
2.83275
2.83002
2.82794
2.82841
2.83089
2.83601
2.84109
2.84538
2.84947
2.85334
2.85754
2.86211
2.86712
2.87262
2.87863
2.88508
2.89139
2.89694
2.90114
2.90384
2.90714
2.91407
2.92969
2.96337
3.02669
3.12149
3.22484
3.2982
3.32522
1
1
1
1
1
1
1
1
1
1
1
1
1
1
1
1
1
1
1
1
1
1
1
1
1
1
1
1
1
1
1
1
1
1
1
1
1
1
1
1
1
1
1
1
1
1
1
1
1
1
1
1
1
1
1
2.05965
2.77649
2.78815
2.78371
2.77866
2.77166
2.77128
2.7772
2.79123
2.80921
2.82424
2.83181
2.83108
2.82808
2.82625
2.8271
2.82989
2.83523
2.84022
2.8443
2.84818
2.85194
2.85621
2.86106
2.86648
2.87229
2.87836
2.88462
2.89065
2.89599
2.90021
2.90307
2.90644
2.91352
2.92953
2.9641
3.02898
3.12521
3.22895
3.3019
3.32857
1
1
1
1
1
1
1
1
1
1
1
1
1
1
1
1
1
1
1
1
1
1
1
1
1
1
1
1
1
1
1
1
1
1
1
1
1
1
1
1
1
1
1
1
1
1
1
1
1
1
1
1
1
1
1
2.01261
2.77257
2.785
2.77975
2.77396
2.76743
2.76814
2.77583
2.79152
2.80995
2.82415
2.83034
2.82914
2.82606
2.8245
2.82569
2.82874
2.83423
2.83905
2.84287
2.84653
2.85023
2.85469
2.85995
2.86583
2.87191
2.87795
2.88394
2.88965
2.8948
2.89907
2.90209
2.90546
2.91258
2.92886
2.96407
3.03002
3.12749
3.23182
3.30467
3.33111
1
1
1
1
1
1
1
1
1
1
1
1
1
1
1
1
1
1
1
1
1
1
1
1
1
1
1
1
1
1
1
1
1
1
1
1
1
1
1
1
1
1
1
1
1
1
1
1
1
1
1
1
1
1
1
1.95591
2.7645
2.78148
2.77542
2.76833
2.76262
2.76461
2.77462
2.79187
2.81062
2.82374
2.82856
2.82699
2.82407
2.82279
2.82423
2.82754
2.83303
2.83755
2.84105
2.84446
2.84818
2.85298
2.85884
2.86525
2.87151
2.87737
2.88297
2.88836
2.89337
2.89771
2.90088
2.90418
2.91122
2.92764
2.9634
3.03014
3.1284
3.23325
3.30612
3.33238
1
1
1
1
1
1
1
1
1
1
1
1
1
1
1
1
1
1
1
1
1
1
1
1
1
1
1
1
1
1
1
1
1
1
1
1
1
1
1
1
1
1
1
1
1
1
1
1
1
1
1
1
1
1
1
1.88972
2.75128
2.77722
2.77037
2.76195
2.75771
2.76136
2.77398
2.79259
2.8113
2.82295
2.82648
2.82463
2.82211
2.8212
2.82277
2.82636
2.83171
2.83582
2.83888
2.84196
2.84572
2.85105
2.85773
2.86477
2.87111
2.8766
2.88168
2.88673
2.89168
2.89615
2.89945
2.90263
2.90948
2.92587
2.962
3.02949
3.12837
3.23359
3.30651
3.33259
1
1
1
1
1
1
1
1
1
1
1
1
1
1
1
1
1
1
1
1
1
1
1
1
1
1
1
1
1
1
1
1
1
1
1
1
1
1
1
1
1
1
1
1
1
1
1
1
1
1
1
1
1
1
1
1.81223
2.73285
2.771
2.76265
2.75442
2.75318
2.75944
2.77433
2.79406
2.81186
2.82172
2.82406
2.82199
2.81999
2.81958
2.82129
2.82525
2.83042
2.83402
2.83643
2.83906
2.84285
2.84885
2.85658
2.86433
2.87069
2.87568
2.88008
2.88474
2.88969
2.89437
2.89783
2.90085
2.90741
2.92359
2.95983
3.02782
3.12741
3.23311
3.30621
3.33218
1
1
1
1
1
1
1
1
1
1
1
1
1
1
1
1
1
1
1
1
1
1
1
1
1
1
1
1
1
1
1
1
1
1
1
1
1
1
1
1
1
1
1
1
1
1
1
1
1
1
1
1
1
1
1
1.71956
2.70806
2.76167
2.75191
2.74684
2.74931
2.75983
2.77622
2.79635
2.81206
2.81998
2.82112
2.81893
2.81741
2.81758
2.81972
2.82421
2.82921
2.83221
2.83384
2.83589
2.83965
2.8464
2.85527
2.86376
2.87011
2.87451
2.87817
2.88242
2.88737
2.8923
2.896
2.89888
2.90511
2.92093
2.95696
3.02505
3.12514
3.23154
3.3051
3.331
1
1
1
1
1
1
1
1
1
1
1
1
1
1
1
1
1
1
1
1
1
1
1
1
1
1
1
1
1
1
1
1
1
1
1
1
1
1
1
1
1
1
1
1
1
1
1
1
1
1
1
1
1
1
1
1.62002
2.67513
2.74703
2.73986
2.74123
2.74844
2.76277
2.7797
2.79867
2.81152
2.81746
2.81744
2.81528
2.81419
2.81506
2.81793
2.82317
2.82803
2.83038
2.83121
2.83265
2.83633
2.84379
2.85367
2.86278
2.86912
2.873
2.87598
2.87986
2.88477
2.88993
2.89389
2.89671
2.90263
2.91797
2.95348
3.02125
3.12154
3.22868
3.30294
3.32895
1
1
1
1
1
1
1
1
1
1
1
1
1
1
1
1
1
1
1
1
1
1
1
1
1
1
1
1
1
1
1
1
1
1
1
1
1
1
1
1
1
1
1
1
1
1
1
1
1
1
1
1
1
1
1
1.51152
2.62394
2.72905
2.73158
2.73946
2.75208
2.76783
2.78378
2.7997
2.80954
2.8138
2.81296
2.81078
2.81028
2.81217
2.81601
2.82209
2.82667
2.82831
2.82853
2.82948
2.83322
2.84128
2.85176
2.86113
2.86744
2.87101
2.8735
2.8771
2.882
2.88725
2.8914
2.89427
2.89994
2.91475
2.94949
3.01655
3.11674
3.22458
3.29971
3.32599
1
1
1
1
1
1
1
1
1
1
1
1
1
1
1
1
1
1
1
1
1
1
1
1
1
1
1
1
1
1
1
1
1
1
1
1
1
1
1
1
1
1
1
1
1
1
1
1
1
1
1
1
1
1
1
1.38069
2.54921
2.71532
2.73013
2.74292
2.7591
2.77352
2.78668
2.79868
2.80585
2.80862
2.80725
2.80546
2.80586
2.80944
2.81442
2.82101
2.82486
2.82572
2.82572
2.82651
2.83061
2.83915
2.8497
2.85881
2.86489
2.86832
2.87067
2.8742
2.8791
2.88429
2.8885
2.89146
2.8969
2.91119
2.94505
3.01116
3.111
3.21942
3.29542
3.32201
1
1
1
1
1
1
1
1
1
1
1
1
1
1
1
1
1
1
1
1
1
1
1
1
1
1
1
1
1
1
1
1
1
1
1
1
1
1
1
1
1
1
1
1
1
1
1
1
1
1
1
1
1
1
1
1.2092
2.44564
2.70895
2.73495
2.75188
2.76634
2.777
2.78686
2.7955
2.80052
2.8016
2.80033
2.79972
2.8017
2.80712
2.81372
2.82
2.82255
2.8227
2.82258
2.82371
2.82861
2.83752
2.84772
2.85608
2.86153
2.86479
2.86737
2.87111
2.8761
2.88115
2.88529
2.88826
2.89346
2.90723
2.94019
3.00521
3.10453
3.21334
3.29005
3.31687
1
1
1
1
1
1
1
1
1
1
1
1
1
1
1
1
1
1
1
1
1
1
1
1
1
1
1
1
1
1
1
1
1
1
1
1
1
1
1
1
1
1
1
1
1
1
1
1
1
1
1
1
1
1
1
1.02126
2.33033
2.71117
2.74838
2.76098
2.7708
2.77749
2.78486
2.7903
2.79347
2.79315
2.79251
2.79379
2.79862
2.80579
2.81367
2.81887
2.81979
2.81938
2.81915
2.82102
2.82694
2.83607
2.84569
2.85312
2.85773
2.86071
2.8636
2.86768
2.87285
2.87784
2.88183
2.88467
2.88956
2.90275
2.93477
2.99865
3.09734
3.20644
3.28369
3.31062
1
1
1
1
1
1
1
1
1
1
1
1
1
1
1
1
1
1
1
1
1
1
1
1
1
1
1
1
1
1
1
1
1
1
1
1
1
1
1
1
1
1
1
1
1
1
1
1
1
1
1
1
1
1
1
1.00012
2.20653
2.71563
2.761
2.76673
2.77209
2.77532
2.77915
2.78218
2.7844
2.78414
2.78475
2.78859
2.79656
2.80531
2.8135
2.81724
2.81673
2.81565
2.81544
2.81818
2.82499
2.83423
2.84333
2.84995
2.85381
2.85644
2.85948
2.86383
2.86919
2.87423
2.87813
2.88078
2.88532
2.89779
2.92871
2.99134
3.08933
3.19865
3.27637
3.30329
1
1
1
1
1
1
1
1
1
1
1
1
1
1
1
1
1
1
1
1
1
1
1
1
1
1
1
1
1
1
1
1
1
1
1
1
1
1
1
1
1
1
1
1
1
1
1
1
1
1
1
1
1
1
1
1
2.07193
2.71787
2.76476
2.76716
2.7689
2.76896
2.76988
2.77188
2.77446
2.776
2.77891
2.78544
2.79539
2.80516
2.8125
2.81455
2.81317
2.81177
2.81171
2.81518
2.82239
2.83152
2.84021
2.84635
2.84975
2.85214
2.85516
2.85957
2.86497
2.87012
2.87407
2.8767
2.88088
2.89243
2.92198
2.98315
3.08033
3.1899
3.26818
3.29513
1
1
1
1
1
1
1
1
1
1
1
1
1
1
1
1
1
1
1
1
1
1
1
1
1
1
1
1
1
1
1
1
1
1
1
1
1
1
1
1
1
1
1
1
1
1
1
1
1
1
1
1
1
1
1
1
1.92815
2.70692
2.76264
2.76175
2.75981
2.75807
2.75836
2.76101
2.76503
2.76944
2.77565
2.78464
2.7953
2.805
2.81061
2.81102
2.80918
2.80785
2.80825
2.81228
2.81936
2.82794
2.83614
2.84203
2.84538
2.84779
2.85073
2.85494
2.86019
2.86543
2.86958
2.87246
2.87634
2.88684
2.91475
2.97412
3.07023
3.17999
3.25902
3.28615
1
1
1
1
1
1
1
1
1
1
1
1
1
1
1
1
1
1
1
1
1
1
1
1
1
1
1
1
1
1
1
1
1
1
1
1
1
1
1
1
1
1
1
1
1
1
1
1
1
1
1
1
1
1
1
1
1.76097
2.66776
2.75098
2.74799
2.74604
2.74554
2.74761
2.75233
2.75779
2.76476
2.77381
2.7845
2.79521
2.80367
2.80736
2.80688
2.80484
2.80397
2.80515
2.80956
2.81621
2.82392
2.83141
2.83699
2.84046
2.84313
2.84608
2.84995
2.8549
2.86014
2.86456
2.86784
2.8715
2.88097
2.90708
2.96431
3.05896
3.16884
3.24886
3.27644
1
1
1
1
1
1
1
1
1
1
1
1
1
1
1
1
1
1
1
1
1
1
1
1
1
1
1
1
1
1
1
1
1
1
1
1
1
1
1
1
1
1
1
1
1
1
1
1
1
1
1
1
1
1
1
1
1.55019
2.59459
2.73316
2.72864
2.73196
2.73674
2.74177
2.74865
2.75518
2.7631
2.77291
2.78377
2.79387
2.80048
2.80302
2.80192
2.80037
2.79997
2.80197
2.80671
2.81303
2.81987
2.82648
2.83148
2.83495
2.83792
2.84102
2.8446
2.8492
2.85439
2.85899
2.86268
2.86624
2.8748
2.89906
2.95383
3.04657
3.1563
3.23741
3.26563
1
1
1
1
1
1
1
1
1
1
1
1
1
1
1
1
1
1
1
1
1
1
1
1
1
1
1
1
1
1
1
1
1
1
1
1
1
1
1
1
1
1
1
1
1
1
1
1
1
1
1
1
1
1
1
1
1.30779
2.49246
2.72097
2.71711
2.7252
2.73479
2.74206
2.74856
2.75503
2.76267
2.77197
2.78173
2.79025
2.79531
2.79737
2.79628
2.79536
2.79562
2.7983
2.80358
2.80985
2.81584
2.82143
2.8257
2.82893
2.832
2.8353
2.83885
2.84318
2.84824
2.85291
2.8568
2.86025
2.86795
2.89036
2.94247
3.033
3.1424
3.22464
3.25364
1
1
1
1
1
1
1
1
1
1
1
1
1
1
1
1
1
1
1
1
1
1
1
1
1
1
1
1
1
1
1
1
1
1
1
1
1
1
1
1
1
1
1
1
1
1
1
1
1
1
1
1
1
1
1
1
1.09589
2.38627
2.70998
2.71315
2.72473
2.73509
2.74323
2.74956
2.75547
2.76253
2.77036
2.77785
2.78406
2.78819
2.7902
2.78987
2.78991
2.79088
2.79426
2.80009
2.80631
2.81163
2.81621
2.8198
2.82266
2.82558
2.82892
2.83261
2.83681
2.84169
2.84635
2.85025
2.85348
2.86036
2.88091
2.93021
3.01823
3.12702
3.21023
3.23991
1
1
1
1
1
1
1
1
1
1
1
1
1
1
1
1
1
1
1
1
1
1
1
1
1
1
1
1
1
1
1
1
1
1
1
1
1
1
1
1
1
1
1
1
1
1
1
1
1
1
1
1
1
1
1
1
1.00237
2.26322
2.70748
2.72163
2.72979
2.73891
2.74496
2.74916
2.75479
2.76102
2.76684
2.77183
2.77584
2.77928
2.7819
2.78315
2.78453
2.7863
2.79023
2.79604
2.80194
2.80674
2.81053
2.81362
2.81616
2.81881
2.82208
2.82585
2.82998
2.83469
2.83926
2.84297
2.84571
2.85162
2.87016
2.91647
3.00175
3.10993
3.19428
3.22473
1
1
1
1
1
1
1
1
1
1
1
1
1
1
1
1
1
1
1
1
1
1
1
1
1
1
1
1
1
1
1
1
1
1
1
1
1
1
1
1
1
1
1
1
1
1
1
1
1
1
1
1
1
1
1
1
1.00001
2.10975
2.70418
2.72787
2.73185
2.73814
2.74299
2.74631
2.75147
2.75672
2.76071
2.76376
2.76658
2.76994
2.7737
2.77695
2.77974
2.78244
2.78641
2.79148
2.79659
2.80087
2.80411
2.80691
2.80936
2.81195
2.81512
2.81871
2.82265
2.82708
2.83146
2.83481
2.83702
2.84197
2.85842
2.9014
2.98349
3.0907
3.17614
3.2072
1
1
1
1
1
1
1
1
1
1
1
1
1
1
1
1
1
1
1
1
1
1
1
1
1
1
1
1
1
1
1
1
1
1
1
1
1
1
1
1
1
1
1
1
1
1
1
1
1
1
1
1
1
1
1
1
1
1.90987
2.67236
2.71991
2.72452
2.72962
2.73398
2.73836
2.74363
2.74853
2.75208
2.7549
2.75799
2.76227
2.76746
2.77221
2.77578
2.77909
2.78263
2.78648
2.79029
2.79372
2.79648
2.79925
2.80199
2.80493
2.80817
2.81144
2.81483
2.81866
2.82267
2.82567
2.82745
2.8312
2.84503
2.88398
2.96222
3.06842
3.15554
3.18781
1
1
1
1
1
1
1
1
1
1
1
1
1
1
1
1
1
1
1
1
1
1
1
1
1
1
1
1
1
1
1
1
1
1
1
1
1
1
1
1
1
1
1
1
1
1
1
1
1
1
1
1
1
1
1
1
1
1.63081
2.58801
2.71088
2.70764
2.71266
2.71984
2.72672
2.7332
2.73906
2.74361
2.74727
2.75104
2.75585
2.76205
2.76806
2.77263
2.77618
2.7789
2.78116
2.78326
2.78543
2.7877
2.79057
2.79397
2.79764
2.80116
2.80404
2.80653
2.80934
2.81266
2.81534
2.8168
2.81939
2.83049
2.86499
2.9386
3.04284
3.13101
3.16389
1
1
1
1
1
1
1
1
1
1
1
1
1
1
1
1
1
1
1
1
1
1
1
1
1
1
1
1
1
1
1
1
1
1
1
1
1
1
1
1
1
1
1
1
1
1
1
1
1
1
1
1
1
1
1
1
1
1.287
2.46783
2.70349
2.70065
2.70831
2.71691
2.72263
2.72712
2.73117
2.73466
2.73894
2.74448
2.7511
2.75831
2.76472
2.76968
2.77281
2.77443
2.77508
2.77554
2.77658
2.77829
2.78126
2.7854
2.78999
2.79391
2.79637
2.79772
2.79916
2.80143
2.80367
2.80485
2.80626
2.81412
2.84283
2.90992
3.01122
3.10085
3.13594
1
1
1
1
1
1
1
1
1
1
1
1
1
1
1
1
1
1
1
1
1
1
1
1
1
1
1
1
1
1
1
1
1
1
1
1
1
1
1
1
1
1
1
1
1
1
1
1
1
1
1
1
1
1
1
1
1
1.03093
2.3577
2.69665
2.69495
2.70246
2.7108
2.71651
2.72097
2.7258
2.73024
2.73544
2.74166
2.74861
2.75554
2.76145
2.76593
2.7681
2.76852
2.7679
2.76712
2.76734
2.76872
2.77184
2.77663
2.782
2.78629
2.78831
2.78838
2.7883
2.78914
2.7905
2.79119
2.79138
2.7959
2.81851
2.87839
2.97538
3.06356
3.0952
1
1
1
1
1
1
1
1
1
1
1
1
1
1
1
1
1
1
1
1
1
1
1
1
1
1
1
1
1
1
1
1
1
1
1
1
1
1
1
1
1
1
1
1
1
1
1
1
1
1
1
1
1
1
1
1
1
1.00018
2.1982
2.69521
2.70463
2.70996
2.71353
2.71516
2.71755
2.72167
2.72643
2.7322
2.7389
2.74629
2.75292
2.75785
2.76108
2.76201
2.76102
2.75906
2.75759
2.7576
2.75904
2.7625
2.7677
2.77358
2.77808
2.77975
2.77872
2.77697
2.77603
2.77592
2.77552
2.77452
2.7758
2.79077
2.8391
2.92559
3.0093
3.03992
1
1
1
1
1
1
1
1
1
1
1
1
1
1
1
1
1
1
1
1
1
1
1
1
1
1
1
1
1
1
1
1
1
1
1
1
1
1
1
1
1
1
1
1
1
1
1
1
1
1
1
1
1
1
1
1
1
1
1.96783
2.66654
2.70835
2.7108
2.71213
2.71223
2.71345
2.71682
2.72156
2.72745
2.73433
2.74201
2.74846
2.75279
2.75464
2.75428
2.7524
2.74968
2.74801
2.74793
2.74931
2.75276
2.75812
2.7643
2.76907
2.77056
2.76879
2.7655
2.76249
2.76029
2.75804
2.75494
2.75279
2.75978
2.79487
2.86817
2.94746
2.987
1
1
1
1
1
1
1
1
1
1
1
1
1
1
1
1
1
1
1
1
1
1
1
1
1
1
1
1
1
1
1
1
1
1
1
1
1
1
1
1
1
1
1
1
1
1
1
1
1
1
1
1
1
1
1
1
1
1
1.64246
2.57994
2.70475
2.70389
2.70472
2.70548
2.70706
2.70991
2.71407
2.71933
2.72591
2.73375
2.74057
2.74495
2.74656
2.74607
2.74391
2.74083
2.73886
2.73863
2.73997
2.74321
2.74828
2.75422
2.7589
2.76029
2.75817
2.75372
2.74872
2.7441
2.73923
2.73296
2.7269
2.72677
2.7446
2.78305
2.79705
2.7089
1
1
1
1
1
1
1
1
1
1
1
1
1
1
1
1
1
1
1
1
1
1
1
1
1
1
1
1
1
1
1
1
1
1
1
1
1
1
1
1
1
1
1
1
1
1
1
1
1
1
1
1
1
1
1
1
1
1
1.24024
2.4402
2.6971
2.69331
2.69535
2.69788
2.6995
2.70186
2.70569
2.71023
2.71596
2.72318
2.73011
2.73518
2.73739
2.73727
2.73541
2.7328
2.73111
2.73087
2.73188
2.73425
2.73823
2.74321
2.74733
2.7486
2.74641
2.74127
2.73463
2.72762
2.71982
2.71011
2.69815
2.6885
2.6853
2.68779
2.66257
2.51761
1
1
1
1
1
1
1
1
1
1
1
1
1
1
1
1
1
1
1
1
1
1
1
1
1
1
1
1
1
1
1
1
1
1
1
1
1
1
1
1
1
1
1
1
1
1
1
1
1
1
1
1
1
1
1
1
1
1
1.01196
2.30508
2.67666
2.67992
2.68485
2.68804
2.69012
2.69271
2.69682
2.70144
2.70702
2.71378
2.72027
2.72526
2.72787
2.72837
2.72719
2.72547
2.72433
2.72418
2.7248
2.72612
2.72858
2.73191
2.73477
2.73549
2.73327
2.72776
2.71991
2.71086
2.70019
2.68699
2.6694
2.65047
2.62918
2.60941
2.5414
2.39003
1
1
1
1
1
1
1
1
1
1
1
1
1
1
1
1
1
1
1
1
1
1
1
1
1
1
1
1
1
1
1
1
1
1
1
1
1
1
1
1
1
1
1
1
1
1
1
1
1
1
1
1
1
1
1
1
1
1
1.00005
2.09172
2.65906
2.67779
2.68217
2.68464
2.68645
2.68822
2.69129
2.69526
2.70038
2.70641
2.71205
2.71653
2.71919
2.72011
2.7196
2.71874
2.71803
2.71784
2.71797
2.71838
2.71934
2.72075
2.72185
2.72149
2.71887
2.713
2.70427
2.69371
2.68064
2.66432
2.64219
2.61467
2.58307
2.53562
2.45571
2.31736
1
1
1
1
1
1
1
1
1
1
1
1
1
1
1
1
1
1
1
1
1
1
1
1
1
1
1
1
1
1
1
1
1
1
1
1
1
1
1
1
1
1
1
1
1
1
1
1
1
1
1
1
1
1
1
1
1
1
1
1.75865
2.59493
2.6714
2.67442
2.67809
2.68141
2.6838
2.68616
2.68992
2.69493
2.70067
2.70593
2.70987
2.71202
2.71272
2.71246
2.71186
2.71119
2.71092
2.71064
2.71043
2.7102
2.70981
2.70903
2.70724
2.70359
2.6972
2.68781
2.67619
2.66142
2.64253
2.61714
2.58315
2.54187
2.48027
2.39726
2.28549
1
1
1
1
1
1
1
1
1
1
1
1
1
1
1
1
1
1
1
1
1
1
1
1
1
1
1
1
1
1
1
1
1
1
1
1
1
1
1
1
1
1
1
1
1
1
1
1
1
1
1
1
1
1
1
1
1
1
1
1.30323
2.45976
2.66983
2.66662
2.66976
2.67402
2.67743
2.68046
2.68397
2.68889
2.6946
2.70004
2.70408
2.7059
2.70625
2.70588
2.70489
2.70378
2.70309
2.7024
2.70162
2.70041
2.69858
2.69612
2.69285
2.68806
2.68101
2.67102
2.65855
2.64269
2.62199
2.59426
2.557
2.50881
2.44207
2.36237
2.26142
1
1
1
1
1
1
1
1
1
1
1
1
1
1
1
1
1
1
1
1
1
1
1
1
1
1
1
1
1
1
1
1
1
1
1
1
1
1
1
1
1
1
1
1
1
1
1
1
1
1
1
1
1
1
1
1
1
1
1
1.01887
2.30681
2.6511
2.65514
2.66114
2.66477
2.66887
2.67308
2.677
2.68162
2.68744
2.69329
2.69774
2.69963
2.69973
2.69919
2.69769
2.69609
2.69472
2.69327
2.69153
2.68932
2.68649
2.68301
2.67865
2.67281
2.66502
2.65447
2.64133
2.62477
2.60289
2.57368
2.53489
2.48399
2.41791
2.34184
2.25056
1
1
1
1
1
1
1
1
1
1
1
1
1
1
1
1
1
1
1
1
1
1
1
1
1
1
1
1
1
1
1
1
1
1
1
1
1
1
1
1
1
1
1
1
1
1
1
1
1
1
1
1
1
1
1
1
1
1
1
1.00009
2.04745
2.62632
2.64686
2.65462
2.65809
2.66175
2.66586
2.6695
2.67328
2.67856
2.68454
2.68936
2.6918
2.69201
2.69154
2.69004
2.6883
2.68621
2.68356
2.68053
2.6773
2.67383
2.66981
2.66476
2.65807
2.64948
2.63847
2.62499
2.60789
2.58522
2.55517
2.51602
2.4659
2.40372
2.3308
2.25118
1
1
1
1
1
1
1
1
1
1
1
1
1
1
1
1
1
1
1
1
1
1
1
1
1
1
1
1
1
1
1
1
1
1
1
1
1
1
1
1
1
1
1
1
1
1
1
1
1
1
1
1
1
1
1
1
1
1
1
1
1.63743
2.54878
2.63945
2.64311
2.64901
2.65391
2.65813
2.66134
2.66446
2.66892
2.67447
2.67914
2.682
2.68259
2.68244
2.68166
2.68037
2.67784
2.67396
2.66943
2.66505
2.66097
2.65662
2.65116
2.64382
2.63447
2.62318
2.60969
2.59236
2.56899
2.53872
2.49974
2.4525
2.39509
2.32772
2.25595
1
1
1
1
1
1
1
1
1
1
1
1
1
1
1
1
1
1
1
1
1
1
1
1
1
1
1
1
1
1
1
1
1
1
1
1
1
1
1
1
1
1
1
1
1
1
1
1
1
1
1
1
1
1
1
1
1
1
1
1
1.13897
2.39223
2.64259
2.63861
2.6416
2.64689
2.65031
2.65261
2.65518
2.6591
2.66389
2.66808
2.67111
2.6722
2.67262
2.67259
2.67203
2.66951
2.6647
2.65879
2.6533
2.64852
2.64375
2.63794
2.63008
2.62017
2.60874
2.59528
2.57793
2.55411
2.52396
2.48529
2.44187
2.3887
2.32838
2.2629
1
1
1
1
1
1
1
1
1
1
1
1
1
1
1
1
1
1
1
1
1
1
1
1
1
1
1
1
1
1
1
1
1
1
1
1
1
1
1
1
1
1
1
1
1
1
1
1
1
1
1
1
1
1
1
1
1
1
1
1
1.00332
2.18816
2.61244
2.62529
2.63712
2.64187
2.64385
2.64558
2.64757
2.65043
2.65391
2.65732
2.66023
2.66176
2.66268
2.66314
2.66297
2.6608
2.65576
2.64904
2.64262
2.63698
2.63149
2.62515
2.6169
2.60679
2.59521
2.58166
2.56432
2.54079
2.51039
2.47316
2.43275
2.38352
2.33067
2.27044
1
1
1
1
1
1
1
1
1
1
1
1
1
1
1
1
1
1
1
1
1
1
1
1
1
1
1
1
1
1
1
1
1
1
1
1
1
1
1
1
1
1
1
1
1
1
1
1
1
1
1
1
1
1
1
1
1
1
1
1
1
1.81036
2.55489
2.62253
2.63066
2.63501
2.63796
2.63893
2.64011
2.64181
2.64402
2.64659
2.64934
2.65143
2.65292
2.65354
2.65338
2.65153
2.64683
2.64014
2.63319
2.62664
2.62011
2.61294
2.6044
2.59426
2.58248
2.5686
2.55127
2.5283
2.49815
2.46343
2.42445
2.37951
2.33234
2.27688
1
1
1
1
1
1
1
1
1
1
1
1
1
1
1
1
1
1
1
1
1
1
1
1
1
1
1
1
1
1
1
1
1
1
1
1
1
1
1
1
1
1
1
1
1
1
1
1
1
1
1
1
1
1
1
1
1
1
1
1
1
1.2755
2.41769
2.62013
2.61933
2.62426
2.62996
2.63182
2.63261
2.63336
2.63455
2.63622
2.63856
2.64092
2.64289
2.64371
2.64346
2.64183
2.63782
2.63179
2.62471
2.6173
2.60947
2.60126
2.59241
2.58231
2.57044
2.55611
2.53886
2.51637
2.48808
2.45548
2.41734
2.37688
2.33299
2.28312
1
1
1
1
1
1
1
1
1
1
1
1
1
1
1
1
1
1
1
1
1
1
1
1
1
1
1
1
1
1
1
1
1
1
1
1
1
1
1
1
1
1
1
1
1
1
1
1
1
1
1
1
1
1
1
1
1
1
1
1
1
1.01436
2.23764
2.59035
2.60182
2.61484
2.62167
2.62399
2.62472
2.62515
2.62571
2.62659
2.6282
2.63037
2.63253
2.63362
2.63327
2.63176
2.62853
2.6234
2.61657
2.60849
2.59935
2.58999
2.58055
2.57041
2.55858
2.54401
2.52677
2.50472
2.47919
2.44775
2.41139
2.37453
2.33332
2.28913
1
1
1
1
1
1
1
1
1
1
1
1
1
1
1
1
1
1
1
1
1
1
1
1
1
1
1
1
1
1
1
1
1
1
1
1
1
1
1
1
1
1
1
1
1
1
1
1
1
1
1
1
1
1
1
1
1
1
1
1
1
1.00004
1.86714
2.53837
2.59509
2.60694
2.61317
2.61653
2.61681
2.61683
2.61682
2.61714
2.618
2.61964
2.62167
2.6231
2.6228
2.62155
2.61905
2.61476
2.60834
2.59983
2.5897
2.57913
2.56865
2.55815
2.54647
2.53217
2.51495
2.49366
2.47027
2.44016
2.40742
2.37323
2.335
2.29498
1
1
1
1
1
1
1
1
1
1
1
1
1
1
1
1
1
1
1
1
1
1
1
1
1
1
1
1
1
1
1
1
1
1
1
1
1
1
1
1
1
1
1
1
1
1
1
1
1
1
1
1
1
1
1
1
1
1
1
1
1
1
1.31504
2.40936
2.59395
2.59436
2.60022
2.60657
2.6078
2.60809
2.60795
2.60764
2.6079
2.60893
2.61049
2.61196
2.61187
2.61103
2.60914
2.60551
2.59968
2.59117
2.58066
2.56903
2.55712
2.5457
2.53391
2.52012
2.50324
2.48317
2.46057
2.4329
2.40365
2.3715
2.33647
2.29895
1
1
1
1
1
1
1
1
1
1
1
1
1
1
1
1
1
1
1
1
1
1
1
1
1
1
1
1
1
1
1
1
1
1
1
1
1
1
1
1
1
1
1
1
1
1
1
1
1
1
1
1
1
1
1
1
1
1
1
1
1
1
1.0197
2.23264
2.56686
2.57844
2.59119
2.59725
2.59916
2.59925
2.59883
2.59806
2.59786
2.59832
2.59936
2.60051
2.60076
2.60016
2.59868
2.59552
2.59027
2.58225
2.57181
2.5599
2.54676
2.53395
2.52145
2.50813
2.49234
2.47365
2.4514
2.42631
2.39915
2.36908
2.33672
2.30211
1
1
1
1
1
1
1
1
1
1
1
1
1
1
1
1
1
1
1
1
1
1
1
1
1
1
1
1
1
1
1
1
1
1
1
1
1
1
1
1
1
1
1
1
1
1
1
1
1
1
1
1
1
1
1
1
1
1
1
1
1
1
1.00007
1.83835
2.51014
2.57238
2.58308
2.5889
2.59135
2.59082
2.58951
2.58795
2.58702
2.5872
2.58796
2.58878
2.58921
2.58884
2.58768
2.58486
2.58002
2.57263
2.56268
2.55136
2.53783
2.52374
2.51022
2.49692
2.48258
2.46495
2.44322
2.41967
2.39367
2.36594
2.33591
2.30402
1
1
1
1
1
1
1
1
1
1
1
1
1
1
1
1
1
1
1
1
1
1
1
1
1
1
1
1
1
1
1
1
1
1
1
1
1
1
1
1
1
1
1
1
1
1
1
1
1
1
1
1
1
1
1
1
1
1
1
1
1
1
1
1.24779
2.3688
2.57142
2.57167
2.57702
2.58243
2.58221
2.58062
2.57822
2.57612
2.57574
2.57612
2.57673
2.57738
2.5775
2.57657
2.57385
2.56907
2.56209
2.55278
2.54226
2.52961
2.51519
2.50106
2.4873
2.47382
2.45683
2.43632
2.41365
2.38874
2.36275
2.3342
2.30495
1
1
1
1
1
1
1
1
1
1
1
1
1
1
1
1
1
1
1
1
1
1
1
1
1
1
1
1
1
1
1
1
1
1
1
1
1
1
1
1
1
1
1
1
1
1
1
1
1
1
1
1
1
1
1
1
1
1
1
1
1
1
1
1.01166
2.16129
2.54018
2.55341
2.5668
2.57295
2.57387
2.57265
2.56996
2.56687
2.56499
2.56471
2.56498
2.56581
2.56652
2.56583
2.56316
2.5582
2.5512
2.54211
2.53226
2.52107
2.50758
2.49377
2.47983
2.46591
2.44914
2.43022
2.40838
2.3847
2.35975
2.33224
2.30496
1
1
1
1
1
1
1
1
1
1
1
1
1
1
1
1
1
1
1
1
1
1
1
1
1
1
1
1
1
1
1
1
1
1
1
1
1
1
1
1
1
1
1
1
1
1
1
1
1
1
1
1
1
1
1
1
1
1
1
1
1
1
1
1.00002
1.69647
2.47083
2.55363
2.55808
2.5623
2.56499
2.56422
2.56174
2.55796
2.55455
2.55347
2.55343
2.55431
2.55555
2.55522
2.55281
2.54775
2.54044
2.53109
2.52145
2.51148
2.4997
2.48706
2.47364
2.45884
2.44213
2.42414
2.40346
2.38135
2.35705
2.33113
2.30512
1
1
1
1
1
1
1
1
1
1
1
1
1
1
1
1
1
1
1
1
1
1
1
1
1
1
1
1
1
1
1
1
1
1
1
1
1
1
1
1
1
1
1
1
1
1
1
1
1
1
1
1
1
1
1
1
1
1
1
1
1
1
1
1
1.1168
2.30873
2.55031
2.54644
2.55141
2.55607
2.55595
2.55392
2.54975
2.54517
2.54305
2.54297
2.54376
2.54527
2.54532
2.5434
2.53838
2.53075
2.521
2.511
2.50157
2.49142
2.48023
2.46758
2.45256
2.43595
2.41816
2.39852
2.37755
2.35424
2.33024
2.30517
1
1
1
1
1
1
1
1
1
1
1
1
1
1
1
1
1
1
1
1
1
1
1
1
1
1
1
1
1
1
1
1
1
1
1
1
1
1
1
1
1
1
1
1
1
1
1
1
1
1
1
1
1
1
1
1
1
1
1
1
1
1
1
1
1.0026
2.00281
2.50019
2.53053
2.54245
2.54852
2.5481
2.54592
2.5417
2.53661
2.5331
2.53282
2.53336
2.53485
2.53522
2.53386
2.52935
2.52187
2.51205
2.50161
2.49197
2.4825
2.47234
2.46046
2.44605
2.43005
2.41256
2.39392
2.3741
2.35247
2.32986
2.3057
1
1
1
1
1
1
1
1
1
1
1
1
1
1
1
1
1
1
1
1
1
1
1
1
1
1
1
1
1
1
1
1
1
1
1
1
1
1
1
1
1
1
1
1
1
1
1
1
1
1
1
1
1
1
1
1
1
1
1
1
1
1
1
1
0.999999
1.40618
2.38628
2.53486
2.53211
2.53567
2.53705
2.53522
2.53161
2.52703
2.52304
2.5219
2.52246
2.52385
2.52471
2.52392
2.52033
2.51357
2.50423
2.49369
2.48352
2.47378
2.46393
2.45279
2.43956
2.42449
2.40763
2.38981
2.37064
2.35029
2.3286
2.30568
1
1
1
1
1
1
1
1
1
1
1
1
1
1
1
1
1
1
1
1
1
1
1
1
1
1
1
1
1
1
1
1
1
1
1
1
1
1
1
1
1
1
1
1
1
1
1
1
1
1
1
1
1
1
1
1
1
1
1
1
1
1
1
1
1
1.03319
2.19122
2.50906
2.51335
2.52084
2.52629
2.52597
2.52343
2.51906
2.51436
2.51142
2.51147
2.51248
2.51353
2.51314
2.51046
2.50473
2.49629
2.48624
2.47581
2.46549
2.45521
2.44438
2.43228
2.41837
2.40264
2.38579
2.36732
2.34781
2.32683
2.3054
1
1
1
1
1
1
1
1
1
1
1
1
1
1
1
1
1
1
1
1
1
1
1
1
1
1
1
1
1
1
1
1
1
1
1
1
1
1
1
1
1
1
1
1
1
1
1
1
1
1
1
1
1
1
1
1
1
1
1
1
1
1
1
1
1
1.00018
1.70427
2.43561
2.51177
2.51139
2.51422
2.51661
2.51513
2.51124
2.5061
2.50151
2.49984
2.50039
2.50142
2.50133
2.49958
2.49502
2.48766
2.47846
2.46839
2.45782
2.44699
2.436
2.42462
2.4119
2.39769
2.38185
2.36411
2.34503
2.32479
2.30461
1
1
1
1
1
1
1
1
1
1
1
1
1
1
1
1
1
1
1
1
1
1
1
1
1
1
1
1
1
1
1
1
1
1
1
1
1
1
1
1
1
1
1
1
1
1
1
1
1
1
1
1
1
1
1
1
1
1
1
1
1
1
1
1
1
1
1.11911
2.26847
2.50584
2.50174
2.50515
2.50753
2.50667
2.50344
2.49836
2.49312
2.48989
2.48948
2.49024
2.49012
2.48856
2.48455
2.47791
2.46951
2.46021
2.4501
2.43918
2.42792
2.41665
2.40474
2.39176
2.37698
2.36029
2.34194
2.3228
2.30363
1
1
1
1
1
1
1
1
1
1
1
1
1
1
1
1
1
1
1
1
1
1
1
1
1
1
1
1
1
1
1
1
1
1
1
1
1
1
1
1
1
1
1
1
1
1
1
1
1
1
1
1
1
1
1
1
1
1
1
1
1
1
1
1
1
1
1.00255
1.89463
2.44447
2.48842
2.4963
2.4995
2.49858
2.49571
2.49104
2.48564
2.48132
2.47913
2.47866
2.4784
2.47701
2.47348
2.46749
2.45978
2.45129
2.44203
2.43171
2.42088
2.40972
2.39808
2.38552
2.37141
2.35557
2.33811
2.32014
2.30193
1
1
1
1
1
1
1
1
1
1
1
1
1
1
1
1
1
1
1
1
1
1
1
1
1
1
1
1
1
1
1
1
1
1
1
1
1
1
1
1
1
1
1
1
1
1
1
1
1
1
1
1
1
1
1
1
1
1
1
1
1
1
1
1
1
1
1
1.2281
2.30149
2.49078
2.48548
2.48709
2.48819
2.4871
2.48398
2.47912
2.4738
2.46981
2.46751
2.46663
2.4655
2.46281
2.45755
2.45023
2.44198
2.43317
2.4238
2.41376
2.4029
2.39125
2.37871
2.36503
2.34996
2.3336
2.31675
2.2995
1
1
1
1
1
1
1
1
1
1
1
1
1
1
1
1
1
1
1
1
1
1
1
1
1
1
1
1
1
1
1
1
1
1
1
1
1
1
1
1
1
1
1
1
1
1
1
1
1
1
1
1
1
1
1
1
1
1
1
1
1
1
1
1
1
1
1
1.01023
2.01634
2.44697
2.46467
2.47211
2.47689
2.47773
2.4764
2.47271
2.4673
2.46164
2.4574
2.45511
2.45355
2.4513
2.44708
2.44062
2.43269
2.424
2.41524
2.40612
2.39593
2.38453
2.37217
2.35891
2.34455
2.32915
2.3132
2.29679
1
1
1
1
1
1
1
1
1
1
1
1
1
1
1
1
1
1
1
1
1
1
1
1
1
1
1
1
1
1
1
1
1
1
1
1
1
1
1
1
1
1
1
1
1
1
1
1
1
1
1
1
1
1
1
1
1
1
1
1
1
1
1
1
1
1
1
1.00002
1.35842
2.31869
2.46978
2.46379
2.46605
2.46695
2.46628
2.46419
2.45991
2.45429
2.44875
2.4446
2.44208
2.43981
2.43655
2.43136
2.42406
2.41528
2.40638
2.39775
2.38822
2.37729
2.36529
2.3526
2.33916
2.32483
2.30983
2.29425
1
1
1
1
1
1
1
1
1
1
1
1
1
1
1
1
1
1
1
1
1
1
1
1
1
1
1
1
1
1
1
1
1
1
1
1
1
1
1
1
1
1
1
1
1
1
1
1
1
1
1
1
1
1
1
1
1
1
1
1
1
1
1
1
1
1
1
1
1.02474
2.07433
2.43456
2.44422
2.4512
2.45534
2.45571
2.45468
2.45158
2.44651
2.44099
2.43604
2.43198
2.42889
2.42563
2.42126
2.41491
2.40657
2.39758
2.38895
2.37995
2.36974
2.35843
2.34655
2.33414
2.3209
2.30692
2.29217
1
1
1
1
1
1
1
1
1
1
1
1
1
1
1
1
1
1
1
1
1
1
1
1
1
1
1
1
1
1
1
1
1
1
1
1
1
1
1
1
1
1
1
1
1
1
1
1
1
1
1
1
1
1
1
1
1
1
1
1
1
1
1
1
1
1
1
1
1.00011
1.44175
2.32151
2.4482
2.4433
2.44548
2.44579
2.44459
2.44199
2.43786
2.43292
2.42787
2.42315
2.41881
2.41512
2.41107
2.40554
2.39801
2.38923
2.38026
2.37127
2.36167
2.35126
2.34037
2.32902
2.31695
2.30405
2.29016
1
1
1
1
1
1
1
1
1
1
1
1
1
1
1
1
1
1
1
1
1
1
1
1
1
1
1
1
1
1
1
1
1
1
1
1
1
1
1
1
1
1
1
1
1
1
1
1
1
1
1
1
1
1
1
1
1
1
1
1
1
1
1
1
1
1
1
1
1
1.03919
2.09309
2.41975
2.42441
2.43025
2.4334
2.43357
2.43209
2.42876
2.42445
2.4198
2.41499
2.41015
2.4055
2.40102
2.39569
2.38886
2.38066
2.37171
2.36261
2.35345
2.34403
2.33425
2.32394
2.31287
2.30083
2.28767
1
1
1
1
1
1
1
1
1
1
1
1
1
1
1
1
1
1
1
1
1
1
1
1
1
1
1
1
1
1
1
1
1
1
1
1
1
1
1
1
1
1
1
1
1
1
1
1
1
1
1
1
1
1
1
1
1
1
1
1
1
1
1
1
1
1
1
1
1
1.00027
1.46581
2.30933
2.42655
2.42176
2.42357
2.42412
2.42254
2.41929
2.41554
2.41142
2.40681
2.40166
2.39628
2.39101
2.38576
2.37977
2.37233
2.36361
2.35445
2.34557
2.33694
2.32805
2.31852
2.30816
2.29681
2.28428
1
1
1
1
1
1
1
1
1
1
1
1
1
1
1
1
1
1
1
1
1
1
1
1
1
1
1
1
1
1
1
1
1
1
1
1
1
1
1
1
1
1
1
1
1
1
1
1
1
1
1
1
1
1
1
1
1
1
1
1
1
1
1
1
1
1
1
1
1
1
1.04427
2.08006
2.39955
2.40353
2.40847
2.4116
2.41121
2.40937
2.40631
2.40264
2.3984
2.39338
2.38772
2.38203
2.37665
2.37105
2.36432
2.35588
2.34653
2.33784
2.32984
2.32171
2.31284
2.30294
2.29197
2.27992
1
1
1
1
1
1
1
1
1
1
1
1
1
1
1
1
1
1
1
1
1
1
1
1
1
1
1
1
1
1
1
1
1
1
1
1
1
1
1
1
1
1
1
1
1
1
1
1
1
1
1
1
1
1
1
1
1
1
1
1
1
1
1
1
1
1
1
1
1
1
1.00034
1.43932
2.28209
2.40532
2.4005
2.40215
2.40215
2.4006
2.39754
2.3937
2.38957
2.38494
2.37955
2.37368
2.36788
2.36218
2.35598
2.34848
2.33972
2.33095
2.32288
2.31495
2.30638
2.29678
2.28616
2.2747
1
1
1
1
1
1
1
1
1
1
1
1
1
1
1
1
1
1
1
1
1
1
1
1
1
1
1
1
1
1
1
1
1
1
1
1
1
1
1
1
1
1
1
1
1
1
1
1
1
1
1
1
1
1
1
1
1
1
1
1
1
1
1
1
1
1
1
1
1
1
1
1.03983
2.03615
2.37476
2.38285
2.38822
2.39084
2.39016
2.38773
2.38413
2.38031
2.37625
2.37146
2.36588
2.35998
2.35418
2.34818
2.34124
2.33294
2.324
2.31559
2.30762
2.29928
2.29003
2.27981
2.26895
1
1
1
1
1
1
1
1
1
1
1
1
1
1
1
1
1
1
1
1
1
1
1
1
1
1
1
1
1
1
1
1
1
1
1
1
1
1
1
1
1
1
1
1
1
1
1
1
1
1
1
1
1
1
1
1
1
1
1
1
1
1
1
1
1
1
1
1
1
1
1
1.00031
1.39211
2.24503
2.38436
2.38118
2.38219
2.38165
2.37927
2.37552
2.37136
2.36741
2.36318
2.35813
2.35239
2.3464
2.34028
2.33366
2.32586
2.31702
2.30828
2.30012
2.29191
2.28302
2.27329
2.26301
1
1
1
1
1
1
1
1
1
1
1
1
1
1
1
1
1
1
1
1
1
1
1
1
1
1
1
1
1
1
1
1
1
1
1
1
1
1
1
1
1
1
1
1
1
1
1
1
1
1
1
1
1
1
1
1
1
1
1
1
1
1
1
1
1
1
1
1
1
1
1
1
1.03092
1.95449
2.3433
2.36652
2.36883
2.36964
2.36851
2.36577
2.36202
2.35822
2.35435
2.34981
2.3445
2.33881
2.33293
2.3265
2.31884
2.30982
2.30055
2.29207
2.28402
2.27564
2.26656
2.2569
1
1
1
1
1
1
1
1
1
1
1
1
1
1
1
1
1
1
1
1
1
1
1
1
1
1
1
1
1
1
1
1
1
1
1
1
1
1
1
1
1
1
1
1
1
1
1
1
1
1
1
1
1
1
1
1
1
1
1
1
1
1
1
1
1
1
1
1
1
1
1
1
1.00022
1.31385
2.19476
2.36374
2.36176
2.36113
2.35912
2.35627
2.35296
2.34927
2.34534
2.34097
2.336
2.33061
2.32492
2.31865
2.31122
2.30239
2.29315