/*--------------------------------*- C++ -*----------------------------------*\
  =========                 |
  \\      /  F ield         | OpenFOAM: The Open Source CFD Toolbox
   \\    /   O peration     | Website:  https://openfoam.org
    \\  /    A nd           | Version:  7
     \\/     M anipulation  |
\*---------------------------------------------------------------------------*/
FoamFile
{
    version     2.0;
    format      ascii;
    class       volVectorField;
    location    "0.9";
    object      U;
}
// * * * * * * * * * * * * * * * * * * * * * * * * * * * * * * * * * * * * * //

dimensions      [0 1 -1 0 0 0 0];

internalField   nonuniform List<vector> 
64512
(
(3 -7.31481e-17 0)
(3 -2.15218e-17 0)
(3 2.15257e-16 0)
(3 -1.93898e-17 0)
(3 -5.28407e-16 0)
(3 -5.24974e-16 0)
(3 1.06869e-16 0)
(3 3.92487e-16 0)
(3 8.04252e-16 0)
(3 8.6436e-16 0)
(3 4.38605e-16 0)
(3 1.63216e-16 0)
(3 5.33555e-16 0)
(3 7.44286e-16 0)
(3 9.31846e-16 0)
(3 1.04157e-15 0)
(3 1.41322e-15 0)
(3 1.41761e-15 0)
(3 1.22173e-15 0)
(3 7.91277e-16 0)
(3 3.86799e-16 0)
(3 4.67236e-17 0)
(3 -6.31276e-16 0)
(3 -3.96213e-16 0)
(3 1.08625e-16 0)
(3 -5.52176e-17 0)
(3 -7.27195e-16 0)
(3 -8.1052e-16 0)
(3 -9.61855e-16 0)
(3 -9.25943e-16 0)
(3 -1.34857e-15 0)
(3 -1.29039e-15 0)
(3 -9.40729e-16 0)
(3 -5.0118e-16 0)
(3 -3.0558e-16 0)
(3 1.00468e-17 0)
(3 -3.96765e-16 0)
(3 -7.40058e-16 0)
(3 -4.10083e-17 0)
(3 4.62225e-16 0)
(3 7.72765e-16 0)
(3 1.5178e-15 0)
(3 1.58226e-15 0)
(3 1.08934e-15 0)
(3 6.23864e-16 0)
(3 2.65153e-16 0)
(3 3.57488e-16 0)
(3 -4.55977e-16 0)
(3 -8.23008e-16 0)
(3 -4.37147e-16 0)
(3 -9.03898e-19 0)
(3 5.62411e-16 0)
(3 6.73648e-16 0)
(3 4.71732e-16 0)
(3 8.95179e-18 0)
(1.27664 0.00329801 0)
(0.719721 0.00116489 0)
(0.69942 0.00604612 0)
(0.6903 0.00897684 0)
(0.672142 0.010538 0)
(0.651914 0.0109231 0)
(0.628616 0.0107088 0)
(0.604314 0.00898908 0)
(0.582374 0.00617712 0)
(0.564134 0.00507316 0)
(0.548536 0.00538365 0)
(0.534077 0.00719426 0)
(0.516638 0.00866331 0)
(0.500011 0.00882933 0)
(0.485307 0.0079003 0)
(0.472708 0.00740732 0)
(0.459339 0.00750372 0)
(0.44351 0.00777165 0)
(0.425819 0.00794718 0)
(0.405767 0.00800513 0)
(0.383786 0.00804822 0)
(0.361137 0.00808948 0)
(0.338984 0.00814455 0)
(0.319268 0.00822599 0)
(0.303192 0.00835854 0)
(0.290276 0.00853299 0)
(0.278445 0.00866881 0)
(0.265208 0.00875522 0)
(0.249375 0.00879382 0)
(0.232034 0.00879318 0)
(0.214395 0.0088428 0)
(0.198768 0.00891212 0)
(0.184568 0.00898656 0)
(0.169582 0.00911037 0)
(0.152562 0.00928848 0)
(0.133137 0.00956364 0)
(0.11153 0.0100091 0)
(0.0880586 0.0106813 0)
(0.063198 0.0114563 0)
(0.037513 0.0119964 0)
(0.0139747 0.012362 0)
(3 2.77205e-16 0)
(3 3.1575e-16 0)
(3 4.39037e-16 0)
(3 3.93056e-17 0)
(3 -2.85418e-16 0)
(3 -7.20431e-17 0)
(3 3.38329e-16 0)
(3 -1.53318e-16 0)
(3 1.49088e-16 0)
(3 3.58481e-16 0)
(3 3.48249e-16 0)
(3 3.32665e-16 0)
(3 1.58189e-15 0)
(3 1.81793e-15 0)
(3 1.38028e-15 0)
(3 1.00113e-15 0)
(3 1.22791e-15 0)
(3 1.46768e-15 0)
(3 1.55723e-15 0)
(3 1.39335e-15 0)
(3 6.80876e-16 0)
(3 -1.31802e-16 0)
(3 -5.18779e-16 0)
(3 -6.64521e-16 0)
(3 -6.12851e-16 0)
(3 -3.2121e-16 0)
(3 -2.01157e-16 0)
(3 -1.29507e-15 0)
(3 -2.1053e-15 0)
(3 -2.08645e-15 0)
(3 -1.39061e-15 0)
(3 -2.05552e-16 0)
(3 2.33762e-16 0)
(3 -2.05054e-16 0)
(3 -9.01667e-16 0)
(3 -8.42816e-16 0)
(3 -1.28467e-15 0)
(3 -1.52079e-15 0)
(3 -3.05214e-16 0)
(3 6.89139e-16 0)
(3 1.33022e-15 0)
(3 2.16601e-15 0)
(3 2.86689e-15 0)
(3 2.05946e-15 0)
(3 3.96896e-16 0)
(3 4.47461e-16 0)
(3 7.94564e-16 0)
(3 -4.02593e-17 0)
(3 -3.69345e-16 0)
(3 5.94921e-16 0)
(3 7.17196e-16 0)
(3 1.20086e-15 0)
(3 1.12917e-15 0)
(3 2.80968e-16 0)
(3 -6.15845e-16 0)
(1.28557 0.0175468 0)
(0.718036 0.00897101 0)
(0.692252 0.0151155 0)
(0.684549 0.024644 0)
(0.667051 0.0297309 0)
(0.648017 0.0316656 0)
(0.625814 0.0312131 0)
(0.602471 0.0266424 0)
(0.580719 0.0193708 0)
(0.561607 0.0155376 0)
(0.54506 0.0160445 0)
(0.530546 0.020911 0)
(0.513485 0.0251553 0)
(0.49736 0.0258305 0)
(0.483031 0.0235854 0)
(0.470318 0.022275 0)
(0.45669 0.0224952 0)
(0.4407 0.0232211 0)
(0.422927 0.0237265 0)
(0.40288 0.0239244 0)
(0.380916 0.0240686 0)
(0.358308 0.0241885 0)
(0.33622 0.0243463 0)
(0.316574 0.0245877 0)
(0.300538 0.0249784 0)
(0.287591 0.0254835 0)
(0.275635 0.0258522 0)
(0.262212 0.0260894 0)
(0.246209 0.0262294 0)
(0.228793 0.0263008 0)
(0.211111 0.0265531 0)
(0.195627 0.0268417 0)
(0.181511 0.0270316 0)
(0.16663 0.0272364 0)
(0.149864 0.02757 0)
(0.130947 0.0282722 0)
(0.11007 0.0296479 0)
(0.0873948 0.0318431 0)
(0.0631779 0.0344451 0)
(0.0378388 0.0363554 0)
(0.0141244 0.037722 0)
(3 1.55106e-16 0)
(3 1.53455e-16 0)
(3 -1.58433e-16 0)
(3 -2.30634e-16 0)
(3 -1.21688e-16 0)
(3 3.19538e-16 0)
(3 2.46748e-16 0)
(3 -7.1508e-16 0)
(3 -1.77025e-15 0)
(3 -1.49006e-15 0)
(3 1.29563e-17 0)
(3 6.49919e-16 0)
(3 1.22265e-15 0)
(3 6.65401e-16 0)
(3 9.43217e-17 0)
(3 1.43867e-16 0)
(3 -6.28282e-17 0)
(3 -5.01997e-16 0)
(3 -4.44557e-16 0)
(3 -4.63202e-16 0)
(3 -6.09698e-16 0)
(3 -9.79679e-16 0)
(3 -2.95503e-16 0)
(3 4.28799e-16 0)
(3 3.93386e-16 0)
(3 2.15292e-16 0)
(3 3.67342e-16 0)
(3 -3.9394e-17 0)
(3 -1.94427e-16 0)
(3 1.97972e-16 0)
(3 6.48648e-16 0)
(3 1.53964e-15 0)
(3 4.91636e-16 0)
(3 -8.94425e-16 0)
(3 -1.57634e-15 0)
(3 -1.46582e-15 0)
(3 -1.21862e-15 0)
(3 -1.51204e-15 0)
(3 -1.19253e-15 0)
(3 -1.16114e-15 0)
(3 -5.13872e-16 0)
(3 1.09036e-15 0)
(3 2.53724e-15 0)
(3 2.03316e-15 0)
(3 1.31849e-15 0)
(3 1.54037e-15 0)
(3 1.56672e-15 0)
(3 1.60021e-15 0)
(3 1.53968e-15 0)
(3 1.90365e-15 0)
(3 2.26137e-15 0)
(3 1.73107e-15 0)
(3 1.18568e-15 0)
(3 9.12877e-16 0)
(3 3.74796e-16 0)
(1.30908 0.0313596 0)
(0.72101 0.0198178 0)
(0.687539 0.0265455 0)
(0.67995 0.0396881 0)
(0.663377 0.0481067 0)
(0.645457 0.051404 0)
(0.6244 0.0505729 0)
(0.602319 0.0435899 0)
(0.581179 0.033079 0)
(0.561378 0.0273426 0)
(0.543569 0.0278845 0)
(0.528597 0.0350051 0)
(0.511487 0.0413986 0)
(0.495524 0.0424186 0)
(0.481517 0.0391914 0)
(0.468735 0.037357 0)
(0.45497 0.0377634 0)
(0.438835 0.0388755 0)
(0.420926 0.0396391 0)
(0.400782 0.0399488 0)
(0.378715 0.0401955 0)
(0.356042 0.0404098 0)
(0.333939 0.0406796 0)
(0.31431 0.0410753 0)
(0.298266 0.0416988 0)
(0.285213 0.0424994 0)
(0.273015 0.0430914 0)
(0.259255 0.0434953 0)
(0.242919 0.0437535 0)
(0.225258 0.0438973 0)
(0.207272 0.0442783 0)
(0.191668 0.0446347 0)
(0.17729 0.0447865 0)
(0.162213 0.0450028 0)
(0.145533 0.0455112 0)
(0.127132 0.0467177 0)
(0.107097 0.0489773 0)
(0.0854028 0.0525004 0)
(0.0620975 0.0566807 0)
(0.0374827 0.0598235 0)
(0.0140757 0.0622367 0)
(3 -3.94118e-16 0)
(3 -3.0332e-16 0)
(3 -2.46128e-17 0)
(3 3.84064e-16 0)
(3 6.69552e-16 0)
(3 6.51529e-16 0)
(3 8.18098e-17 0)
(3 -4.14772e-16 0)
(3 -1.58123e-16 0)
(3 -2.9322e-16 0)
(3 7.68052e-17 0)
(3 5.24225e-16 0)
(3 2.09026e-16 0)
(3 -4.66097e-18 0)
(3 4.25558e-17 0)
(3 2.02302e-16 0)
(3 4.51288e-16 0)
(3 -3.43715e-16 0)
(3 -1.17043e-15 0)
(3 -1.26684e-15 0)
(3 -1.15689e-15 0)
(3 -1.06204e-16 0)
(3 6.47469e-16 0)
(3 8.18125e-16 0)
(3 5.85893e-16 0)
(3 -4.91836e-16 0)
(3 -6.08528e-16 0)
(3 -2.65555e-16 0)
(3 -1.93307e-16 0)
(3 -6.38016e-16 0)
(3 -1.24486e-15 0)
(3 -1.73541e-15 0)
(3 -1.61298e-15 0)
(3 -1.54817e-15 0)
(3 -1.22381e-15 0)
(3 -8.49258e-16 0)
(3 -6.29784e-16 0)
(3 -7.64395e-16 0)
(3 -6.34138e-16 0)
(3 -3.77122e-16 0)
(3 1.73997e-17 0)
(3 4.00452e-16 0)
(3 8.34961e-16 0)
(3 9.27425e-16 0)
(3 1.37737e-15 0)
(3 1.20949e-15 0)
(3 4.46465e-16 0)
(3 1.01422e-15 0)
(3 1.3594e-15 0)
(3 1.01182e-15 0)
(3 7.6919e-16 0)
(3 9.32986e-17 0)
(3 4.41543e-16 0)
(3 2.35946e-15 0)
(3 2.73046e-15 0)
(1.34264 0.0457183 0)
(0.725064 0.0336023 0)
(0.68547 0.038857 0)
(0.6779 0.0542069 0)
(0.662242 0.0652546 0)
(0.645184 0.0699106 0)
(0.625336 0.0683985 0)
(0.604632 0.0594337 0)
(0.583975 0.0469094 0)
(0.56374 0.039982 0)
(0.544923 0.0407124 0)
(0.529447 0.0495154 0)
(0.512102 0.0574851 0)
(0.496103 0.0587055 0)
(0.482241 0.0547574 0)
(0.469218 0.0526341 0)
(0.455319 0.0532177 0)
(0.439069 0.0547 0)
(0.421023 0.0557154 0)
(0.400751 0.0561632 0)
(0.378501 0.0565544 0)
(0.35567 0.0569049 0)
(0.33346 0.0573025 0)
(0.31379 0.0578418 0)
(0.297711 0.0586709 0)
(0.284536 0.0597437 0)
(0.272055 0.0605714 0)
(0.257883 0.0612128 0)
(0.241105 0.0616797 0)
(0.22306 0.0619315 0)
(0.204608 0.0624172 0)
(0.188689 0.0627511 0)
(0.17385 0.0627798 0)
(0.158361 0.0629586 0)
(0.141513 0.0635563 0)
(0.123344 0.0650865 0)
(0.103911 0.0679933 0)
(0.0830497 0.0725716 0)
(0.0606135 0.0781029 0)
(0.036782 0.0824048 0)
(0.0138796 0.0858226 0)
(3 -7.46235e-19 0)
(3 1.32983e-16 0)
(3 4.04766e-16 0)
(3 7.46991e-16 0)
(3 1.0185e-15 0)
(3 6.2233e-16 0)
(3 1.59833e-16 0)
(3 4.74801e-16 0)
(3 8.48943e-16 0)
(3 8.78861e-16 0)
(3 8.17372e-16 0)
(3 7.92688e-16 0)
(3 5.53835e-16 0)
(3 1.03304e-15 0)
(3 1.35207e-15 0)
(3 1.17854e-15 0)
(3 5.16517e-16 0)
(3 -7.89708e-16 0)
(3 -1.09663e-15 0)
(3 -8.36621e-16 0)
(3 -5.38245e-16 0)
(3 -1.88187e-16 0)
(3 1.51269e-16 0)
(3 -4.29213e-16 0)
(3 -2.76541e-16 0)
(3 3.88736e-18 0)
(3 -3.32384e-16 0)
(3 -3.30724e-17 0)
(3 -1.72619e-16 0)
(3 -6.15571e-16 0)
(3 -1.0847e-15 0)
(3 -1.42309e-15 0)
(3 -1.32712e-15 0)
(3 -1.12956e-15 0)
(3 -7.90702e-16 0)
(3 -9.98551e-16 0)
(3 -1.45358e-15 0)
(3 -8.17525e-16 0)
(3 7.62122e-17 0)
(3 5.27608e-16 0)
(3 1.01271e-15 0)
(3 6.61387e-16 0)
(3 -5.3599e-16 0)
(3 -8.0933e-16 0)
(3 -2.47269e-16 0)
(3 1.03159e-16 0)
(3 1.90469e-16 0)
(3 6.42685e-16 0)
(3 1.0812e-15 0)
(3 8.31567e-16 0)
(3 -6.93687e-17 0)
(3 -2.71549e-16 0)
(3 7.65722e-17 0)
(3 8.36792e-16 0)
(3 1.86891e-15 0)
(1.38856 0.0602442 0)
(0.730687 0.0478177 0)
(0.686229 0.0516955 0)
(0.67771 0.0687944 0)
(0.661542 0.0821135 0)
(0.644221 0.0878012 0)
(0.625113 0.0851616 0)
(0.605378 0.0745645 0)
(0.585334 0.0608288 0)
(0.565333 0.0531884 0)
(0.546456 0.0541634 0)
(0.53114 0.0641703 0)
(0.514029 0.0733539 0)
(0.498047 0.0747109 0)
(0.484273 0.0702447 0)
(0.470839 0.0680186 0)
(0.456834 0.0687438 0)
(0.44049 0.0705856 0)
(0.422349 0.0718481 0)
(0.402005 0.0724353 0)
(0.379614 0.0729972 0)
(0.356643 0.0735326 0)
(0.334327 0.0741036 0)
(0.31464 0.0748079 0)
(0.2986 0.0758307 0)
(0.285418 0.0771483 0)
(0.272768 0.0782193 0)
(0.258258 0.0791545 0)
(0.241037 0.0799067 0)
(0.222535 0.0803309 0)
(0.203582 0.0809469 0)
(0.187255 0.0812385 0)
(0.171933 0.0811304 0)
(0.155995 0.0812548 0)
(0.138851 0.0819783 0)
(0.12063 0.0837404 0)
(0.101412 0.0870688 0)
(0.0809834 0.0923227 0)
(0.059123 0.0987963 0)
(0.0359732 0.103965 0)
(0.0136295 0.108193 0)
(3 1.00364e-16 0)
(3 1.73305e-16 0)
(3 -4.79934e-17 0)
(3 -3.83571e-16 0)
(3 -1.68737e-16 0)
(3 -8.08325e-17 0)
(3 -1.44328e-16 0)
(3 5.99152e-17 0)
(3 -5.19119e-17 0)
(3 -2.76727e-16 0)
(3 -1.40129e-16 0)
(3 1.84808e-16 0)
(3 5.90637e-17 0)
(3 6.5938e-16 0)
(3 1.22893e-15 0)
(3 1.23376e-15 0)
(3 4.2943e-16 0)
(3 -1.21453e-16 0)
(3 2.47028e-16 0)
(3 1.52353e-16 0)
(3 -2.41615e-16 0)
(3 -9.70559e-16 0)
(3 -2.08864e-15 0)
(3 -2.5384e-15 0)
(3 -1.97022e-15 0)
(3 -1.12357e-15 0)
(3 -1.1375e-15 0)
(3 -9.4533e-16 0)
(3 -6.04554e-16 0)
(3 4.28006e-16 0)
(3 5.36276e-16 0)
(3 1.18963e-16 0)
(3 -1.00633e-15 0)
(3 -1.65198e-15 0)
(3 -2.49754e-15 0)
(3 -2.61131e-15 0)
(3 -1.95853e-15 0)
(3 -7.57206e-16 0)
(3 1.4876e-16 0)
(3 5.92568e-16 0)
(3 3.59506e-16 0)
(3 2.18497e-17 0)
(3 -6.66488e-16 0)
(3 -7.96628e-16 0)
(3 -6.80747e-16 0)
(3 -1.0249e-15 0)
(3 -3.27811e-16 0)
(3 1.17924e-15 0)
(3 7.05353e-16 0)
(3 4.52206e-16 0)
(3 2.3586e-16 0)
(3 2.94584e-16 0)
(3 7.27276e-16 0)
(3 7.1896e-16 0)
(3 4.46907e-15 0)
(1.44807 0.0744923 0)
(0.736861 0.0615388 0)
(0.686617 0.065434 0)
(0.676814 0.084547 0)
(0.659298 0.099771 0)
(0.641378 0.105491 0)
(0.623775 0.101005 0)
(0.606017 0.088603 0)
(0.587585 0.0738893 0)
(0.568458 0.0659087 0)
(0.549863 0.0675703 0)
(0.534268 0.0787512 0)
(0.516967 0.0891978 0)
(0.50025 0.0908369 0)
(0.486127 0.0859605 0)
(0.472059 0.083677 0)
(0.457962 0.0844461 0)
(0.441612 0.0865959 0)
(0.423582 0.088063 0)
(0.403384 0.0887385 0)
(0.381056 0.0894539 0)
(0.358077 0.0902036 0)
(0.335703 0.0910064 0)
(0.316016 0.0919348 0)
(0.300071 0.0931827 0)
(0.286996 0.0947432 0)
(0.274312 0.0960577 0)
(0.259575 0.0973071 0)
(0.241953 0.0983948 0)
(0.222957 0.0990255 0)
(0.20358 0.0997979 0)
(0.186865 0.100068 0)
(0.171246 0.0998537 0)
(0.155054 0.0999674 0)
(0.137699 0.100826 0)
(0.119313 0.102806 0)
(0.099984 0.106396 0)
(0.0795874 0.111998 0)
(0.0579318 0.119019 0)
(0.0352224 0.124701 0)
(0.0133704 0.129505 0)
(3 -1.48169e-17 0)
(3 -2.04311e-16 0)
(3 -7.38361e-17 0)
(3 -5.74415e-16 0)
(3 -1.03545e-15 0)
(3 -8.18755e-16 0)
(3 -5.76845e-16 0)
(3 -5.53043e-16 0)
(3 -7.98554e-16 0)
(3 -1.04714e-15 0)
(3 -1.62979e-15 0)
(3 -1.40953e-15 0)
(3 -1.49888e-15 0)
(3 -1.60837e-15 0)
(3 -1.68491e-15 0)
(3 -2.15125e-15 0)
(3 -1.38293e-15 0)
(3 2.517e-16 0)
(3 1.15854e-15 0)
(3 8.53927e-16 0)
(3 6.50781e-16 0)
(3 5.32481e-16 0)
(3 -1.65106e-15 0)
(3 -2.86905e-15 0)
(3 -3.50632e-15 0)
(3 -3.64202e-15 0)
(3 -2.71005e-15 0)
(3 -8.08198e-16 0)
(3 -4.27562e-16 0)
(3 -9.75411e-17 0)
(3 -5.96117e-16 0)
(3 -1.07253e-15 0)
(3 -1.25838e-15 0)
(3 -1.42619e-15 0)
(3 -2.27225e-15 0)
(3 -2.6871e-15 0)
(3 -2.40573e-15 0)
(3 -4.57292e-17 0)
(3 1.37816e-15 0)
(3 1.8004e-15 0)
(3 -1.23978e-16 0)
(3 -1.16201e-15 0)
(3 -9.93984e-16 0)
(3 -6.16774e-16 0)
(3 -1.00218e-16 0)
(3 9.14647e-16 0)
(3 2.3377e-16 0)
(3 -2.01572e-15 0)
(3 -1.94943e-15 0)
(3 8.92869e-17 0)
(3 9.15968e-16 0)
(3 1.65516e-15 0)
(3 1.47977e-15 0)
(3 1.98671e-15 0)
(3 -3.80951e-15 0)
(1.52327 0.0883267 0)
(0.7438 0.0746477 0)
(0.686365 0.0805917 0)
(0.675676 0.102287 0)
(0.656918 0.118418 0)
(0.638657 0.122505 0)
(0.623619 0.115493 0)
(0.608301 0.101013 0)
(0.59129 0.085693 0)
(0.572625 0.0781234 0)
(0.554005 0.0813304 0)
(0.53751 0.094048 0)
(0.519464 0.105789 0)
(0.501844 0.107453 0)
(0.487636 0.10195 0)
(0.473231 0.0994379 0)
(0.459267 0.10013 0)
(0.443064 0.102563 0)
(0.425262 0.104239 0)
(0.405251 0.104988 0)
(0.383048 0.105842 0)
(0.360081 0.106832 0)
(0.337616 0.107929 0)
(0.317873 0.109168 0)
(0.302009 0.110717 0)
(0.289086 0.112555 0)
(0.276437 0.114114 0)
(0.261535 0.115656 0)
(0.243525 0.11708 0)
(0.223977 0.117923 0)
(0.204244 0.118888 0)
(0.187164 0.119198 0)
(0.17146 0.11894 0)
(0.155269 0.119096 0)
(0.137836 0.11998 0)
(0.119255 0.122238 0)
(0.0996438 0.126003 0)
(0.078986 0.131753 0)
(0.0572295 0.139061 0)
(0.0346838 0.144943 0)
(0.0131575 0.150125 0)
(3 3.78385e-17 0)
(3 1.44254e-16 0)
(3 3.53979e-16 0)
(3 5.40775e-16 0)
(3 4.04397e-16 0)
(3 2.93907e-16 0)
(3 5.43188e-16 0)
(3 4.96673e-16 0)
(3 -1.12979e-17 0)
(3 -3.22913e-16 0)
(3 -1.0748e-16 0)
(3 -3.80938e-16 0)
(3 -4.91408e-16 0)
(3 -1.13734e-15 0)
(3 -2.39202e-15 0)
(3 -2.95919e-15 0)
(3 -1.77666e-15 0)
(3 1.90681e-16 0)
(3 1.49003e-15 0)
(3 1.31906e-15 0)
(3 2.72517e-16 0)
(3 -6.18016e-16 0)
(3 -7.07044e-16 0)
(3 -7.37576e-16 0)
(3 -7.21281e-16 0)
(3 -6.64747e-16 0)
(3 -5.55515e-16 0)
(3 2.73283e-16 0)
(3 7.41549e-16 0)
(3 -1.43585e-15 0)
(3 -2.04448e-15 0)
(3 -9.10078e-16 0)
(3 -4.6629e-16 0)
(3 -4.38397e-16 0)
(3 -1.0981e-15 0)
(3 -2.17462e-15 0)
(3 -2.47659e-15 0)
(3 -2.52619e-15 0)
(3 -1.86455e-15 0)
(3 -2.29268e-15 0)
(3 -1.23343e-15 0)
(3 5.23459e-16 0)
(3 9.93789e-16 0)
(3 1.77174e-15 0)
(3 2.29675e-15 0)
(3 2.91617e-15 0)
(3 1.59736e-15 0)
(3 -3.09887e-16 0)
(3 -1.09985e-15 0)
(3 -1.13301e-15 0)
(3 8.41287e-16 0)
(3 1.31827e-15 0)
(3 9.5599e-16 0)
(3 1.786e-15 0)
(3 -4.09605e-15 0)
(1.61656 0.100642 0)
(0.751668 0.0866617 0)
(0.685721 0.0977082 0)
(0.674036 0.122277 0)
(0.654441 0.137582 0)
(0.637205 0.138237 0)
(0.624891 0.128515 0)
(0.612205 0.111768 0)
(0.596184 0.0965386 0)
(0.577455 0.09029 0)
(0.558621 0.0958527 0)
(0.540894 0.110408 0)
(0.521799 0.123093 0)
(0.503423 0.124206 0)
(0.489365 0.117872 0)
(0.474686 0.115022 0)
(0.460774 0.115687 0)
(0.444647 0.118494 0)
(0.42702 0.120453 0)
(0.407226 0.121282 0)
(0.385297 0.122232 0)
(0.362516 0.12343 0)
(0.340101 0.124826 0)
(0.320375 0.126438 0)
(0.304614 0.128386 0)
(0.291825 0.130578 0)
(0.279168 0.1324 0)
(0.264056 0.134184 0)
(0.245622 0.135902 0)
(0.225473 0.136937 0)
(0.2054 0.138137 0)
(0.187942 0.1386 0)
(0.172276 0.138407 0)
(0.156263 0.138655 0)
(0.138834 0.139637 0)
(0.11999 0.141813 0)
(0.100019 0.145847 0)
(0.0790258 0.151645 0)
(0.0570219 0.159126 0)
(0.0344403 0.165015 0)
(0.013009 0.170451 0)
(3 -5.98403e-17 0)
(3 -1.21848e-16 0)
(3 -9.078e-17 0)
(3 2.09952e-16 0)
(3 6.61492e-16 0)
(3 1.00177e-15 0)
(3 1.08009e-15 0)
(3 8.1518e-16 0)
(3 5.21327e-16 0)
(3 2.11578e-16 0)
(3 5.77342e-16 0)
(3 6.54326e-16 0)
(3 4.38251e-16 0)
(3 -2.38248e-16 0)
(3 -6.54863e-16 0)
(3 -9.25251e-16 0)
(3 -3.95599e-16 0)
(3 4.88928e-16 0)
(3 4.16903e-16 0)
(3 6.61968e-16 0)
(3 5.88336e-16 0)
(3 4.68847e-17 0)
(3 -1.19997e-15 0)
(3 -3.29936e-16 0)
(3 2.86613e-16 0)
(3 1.5341e-16 0)
(3 -1.65151e-16 0)
(3 -5.96267e-16 0)
(3 -1.67255e-16 0)
(3 -8.33551e-16 0)
(3 -1.22124e-15 0)
(3 -1.36929e-15 0)
(3 -1.74058e-15 0)
(3 -1.9559e-15 0)
(3 -1.86006e-15 0)
(3 -2.1627e-15 0)
(3 -1.9324e-15 0)
(3 -2.5697e-15 0)
(3 -3.28153e-15 0)
(3 -3.38568e-15 0)
(3 -2.07751e-15 0)
(3 2.01633e-16 0)
(3 1.073e-15 0)
(3 1.80549e-15 0)
(3 1.99521e-15 0)
(3 1.12968e-15 0)
(3 7.46909e-16 0)
(3 6.21015e-16 0)
(3 -2.28762e-16 0)
(3 -6.75795e-16 0)
(3 -3.45241e-16 0)
(3 4.67704e-17 0)
(3 -3.71808e-17 0)
(3 1.17026e-15 0)
(3 -9.61666e-16 0)
(1.7281 0.110568 0)
(0.759351 0.097521 0)
(0.684496 0.117707 0)
(0.67128 0.144799 0)
(0.651724 0.156293 0)
(0.637216 0.152476 0)
(0.628372 0.139452 0)
(0.617928 0.120716 0)
(0.602281 0.106624 0)
(0.582965 0.102722 0)
(0.563579 0.111397 0)
(0.54423 0.128119 0)
(0.523814 0.141104 0)
(0.504976 0.140948 0)
(0.491231 0.133618 0)
(0.476415 0.130318 0)
(0.462475 0.13108 0)
(0.446418 0.134351 0)
(0.428971 0.136653 0)
(0.409478 0.13757 0)
(0.387949 0.138602 0)
(0.365486 0.139974 0)
(0.343236 0.14167 0)
(0.323602 0.143729 0)
(0.307945 0.146187 0)
(0.295176 0.148824 0)
(0.282347 0.15094 0)
(0.266905 0.152901 0)
(0.248021 0.154826 0)
(0.227306 0.156014 0)
(0.206944 0.157473 0)
(0.189146 0.158236 0)
(0.17358 0.158279 0)
(0.157822 0.158681 0)
(0.140436 0.159745 0)
(0.121315 0.161909 0)
(0.100909 0.165743 0)
(0.0795498 0.171715 0)
(0.0572943 0.179327 0)
(0.0345709 0.185149 0)
(0.0129735 0.190811 0)
(3 1.24319e-18 0)
(3 -4.97868e-16 0)
(3 -5.86279e-16 0)
(3 -5.03217e-16 0)
(3 -5.91494e-16 0)
(3 -2.83545e-16 0)
(3 -1.68941e-16 0)
(3 2.9757e-16 0)
(3 6.52857e-16 0)
(3 7.66612e-16 0)
(3 2.15213e-16 0)
(3 8.84669e-17 0)
(3 1.25666e-16 0)
(3 4.84694e-16 0)
(3 5.43899e-16 0)
(3 3.16999e-16 0)
(3 -4.21222e-16 0)
(3 -8.59149e-16 0)
(3 -1.25232e-15 0)
(3 -1.35621e-15 0)
(3 -1.51764e-15 0)
(3 -1.01914e-15 0)
(3 -6.70915e-16 0)
(3 -8.75123e-16 0)
(3 -2.33909e-16 0)
(3 -1.90326e-16 0)
(3 4.43421e-17 0)
(3 -3.93028e-16 0)
(3 -3.07499e-16 0)
(3 -2.99923e-16 0)
(3 -2.31165e-15 0)
(3 -3.99845e-15 0)
(3 -4.80854e-15 0)
(3 -4.09269e-15 0)
(3 -2.71557e-15 0)
(3 -2.16232e-15 0)
(3 -2.54153e-15 0)
(3 -2.75945e-15 0)
(3 -3.25313e-15 0)
(3 -2.99589e-15 0)
(3 -1.39768e-15 0)
(3 2.508e-16 0)
(3 8.79448e-16 0)
(3 1.35496e-15 0)
(3 1.22443e-15 0)
(3 5.92426e-16 0)
(3 6.00831e-16 0)
(3 4.0015e-16 0)
(3 -4.04342e-16 0)
(3 -4.76011e-16 0)
(3 -1.73104e-16 0)
(3 -1.8888e-16 0)
(3 -3.37414e-16 0)
(3 3.10708e-16 0)
(3 -6.81938e-16 0)
(1.85667 0.119613 0)
(0.767283 0.108726 0)
(0.683996 0.141219 0)
(0.668036 0.168716 0)
(0.65003 0.173253 0)
(0.639993 0.164924 0)
(0.63476 0.147815 0)
(0.625597 0.127932 0)
(0.609461 0.116366 0)
(0.589015 0.115928 0)
(0.568347 0.128425 0)
(0.546945 0.147484 0)
(0.525122 0.159711 0)
(0.506435 0.157475 0)
(0.493148 0.149018 0)
(0.47862 0.145144 0)
(0.464602 0.146138 0)
(0.448669 0.149969 0)
(0.431337 0.152722 0)
(0.412078 0.153849 0)
(0.390907 0.155018 0)
(0.368789 0.156588 0)
(0.346858 0.15859 0)
(0.327525 0.161125 0)
(0.312072 0.164127 0)
(0.29921 0.167237 0)
(0.285983 0.169665 0)
(0.270017 0.171771 0)
(0.250607 0.173846 0)
(0.229358 0.175166 0)
(0.208773 0.17688 0)
(0.190684 0.178064 0)
(0.175222 0.178519 0)
(0.159685 0.179134 0)
(0.142317 0.180294 0)
(0.122978 0.182405 0)
(0.102217 0.186132 0)
(0.0805196 0.191878 0)
(0.0580381 0.19964 0)
(0.035107 0.205362 0)
(0.0130189 0.211178 0)
(3 1.65597e-17 0)
(3 3.18133e-16 0)
(3 1.4932e-16 0)
(3 -1.59715e-16 0)
(3 -7.89534e-17 0)
(3 -4.57751e-16 0)
(3 -3.83763e-16 0)
(3 -9.02695e-18 0)
(3 4.24721e-17 0)
(3 2.30189e-16 0)
(3 2.79912e-17 0)
(3 -3.94641e-16 0)
(3 -2.70451e-16 0)
(3 -5.98253e-17 0)
(3 -1.40015e-16 0)
(3 -3.77005e-16 0)
(3 -8.55237e-16 0)
(3 -1.68166e-15 0)
(3 -2.13434e-15 0)
(3 -2.60455e-15 0)
(3 -2.96553e-15 0)
(3 -2.30336e-15 0)
(3 -9.26696e-16 0)
(3 -6.7782e-16 0)
(3 -4.9285e-16 0)
(3 -1.21612e-16 0)
(3 -2.6526e-16 0)
(3 -1.30619e-15 0)
(3 -2.54302e-15 0)
(3 -3.02906e-15 0)
(3 -3.3974e-15 0)
(3 -3.40506e-15 0)
(3 -4.15734e-15 0)
(3 -3.58657e-15 0)
(3 -2.13162e-15 0)
(3 -1.58117e-15 0)
(3 -3.11725e-15 0)
(3 -3.53208e-15 0)
(3 -3.56546e-15 0)
(3 -3.10819e-15 0)
(3 -2.48156e-15 0)
(3 -4.00143e-16 0)
(3 6.82758e-16 0)
(3 1.74272e-15 0)
(3 2.20735e-15 0)
(3 2.30451e-15 0)
(3 1.60976e-15 0)
(3 1.12906e-15 0)
(3 8.7433e-16 0)
(3 -1.97202e-16 0)
(3 -5.32499e-16 0)
(3 -4.19978e-16 0)
(3 -4.0575e-16 0)
(3 -2.99188e-16 0)
(3 -3.28151e-16 0)
(2.0027 0.127483 0)
(0.778073 0.123973 0)
(0.68379 0.168016 0)
(0.665115 0.189591 0)
(0.651802 0.187076 0)
(0.646247 0.17466 0)
(0.643714 0.153517 0)
(0.634705 0.134361 0)
(0.617186 0.126689 0)
(0.595159 0.130761 0)
(0.572407 0.147585 0)
(0.548771 0.168524 0)
(0.525858 0.17849 0)
(0.508189 0.173502 0)
(0.495547 0.163871 0)
(0.481507 0.159427 0)
(0.467471 0.160779 0)
(0.451724 0.165292 0)
(0.434338 0.16862 0)
(0.41519 0.170133 0)
(0.394249 0.171519 0)
(0.372449 0.173377 0)
(0.350978 0.175738 0)
(0.332154 0.178756 0)
(0.316956 0.182258 0)
(0.303817 0.18578 0)
(0.289901 0.18851 0)
(0.273188 0.190789 0)
(0.253173 0.193026 0)
(0.231483 0.194478 0)
(0.210876 0.196417 0)
(0.192645 0.198042 0)
(0.177355 0.198992 0)
(0.161977 0.199864 0)
(0.144564 0.201182 0)
(0.125055 0.203314 0)
(0.104111 0.206992 0)
(0.0822362 0.212677 0)
(0.0595024 0.22034 0)
(0.0361991 0.225866 0)
(0.0131988 0.231853 0)
(3 1.37318e-16 0)
(3 2.87476e-16 0)
(3 1.07578e-16 0)
(3 -3.40192e-16 0)
(3 -6.35792e-16 0)
(3 -5.11179e-16 0)
(3 -3.95268e-16 0)
(3 -7.82516e-16 0)
(3 -6.8589e-16 0)
(3 -5.84544e-17 0)
(3 -1.38308e-16 0)
(3 -4.70521e-16 0)
(3 -5.99274e-16 0)
(3 -1.11395e-15 0)
(3 -1.06254e-15 0)
(3 -6.09876e-16 0)
(3 -3.59635e-16 0)
(3 -6.1236e-16 0)
(3 -1.27591e-15 0)
(3 -1.46966e-15 0)
(3 -1.18187e-15 0)
(3 -1.40423e-15 0)
(3 -1.45349e-15 0)
(3 -1.34606e-15 0)
(3 -1.38473e-15 0)
(3 -1.16317e-15 0)
(3 -1.47779e-15 0)
(3 -2.36233e-15 0)
(3 -3.20357e-15 0)
(3 -4.40484e-15 0)
(3 -4.01205e-15 0)
(3 -2.62857e-15 0)
(3 -1.42193e-15 0)
(3 -1.33746e-15 0)
(3 -1.33608e-15 0)
(3 -1.89858e-15 0)
(3 -2.69159e-15 0)
(3 -2.95469e-15 0)
(3 -3.33344e-15 0)
(3 -2.63052e-15 0)
(3 -1.46989e-15 0)
(3 -4.41027e-16 0)
(3 4.44549e-16 0)
(3 1.11748e-15 0)
(3 1.65959e-15 0)
(3 2.25439e-15 0)
(3 2.70795e-15 0)
(3 8.25736e-16 0)
(3 -2.11896e-16 0)
(3 -4.03903e-16 0)
(3 -7.71139e-16 0)
(3 -3.51488e-16 0)
(3 -4.15626e-16 0)
(3 -1.24862e-16 0)
(3 -4.96933e-16 0)
(2.16656 0.131502 0)
(0.798008 0.147077 0)
(0.682032 0.195789 0)
(0.664593 0.204469 0)
(0.657768 0.197634 0)
(0.6556 0.180395 0)
(0.654647 0.157362 0)
(0.644359 0.141374 0)
(0.624546 0.138812 0)
(0.600308 0.148279 0)
(0.575129 0.169461 0)
(0.549542 0.190631 0)
(0.526499 0.196655 0)
(0.510818 0.188719 0)
(0.498702 0.178111 0)
(0.485237 0.173267 0)
(0.471287 0.175159 0)
(0.45577 0.18047 0)
(0.438137 0.184411 0)
(0.418897 0.186395 0)
(0.397976 0.188132 0)
(0.376363 0.190491 0)
(0.355402 0.193356 0)
(0.337206 0.196853 0)
(0.322277 0.200687 0)
(0.308789 0.20446 0)
(0.294083 0.207372 0)
(0.276618 0.209837 0)
(0.256032 0.212313 0)
(0.234009 0.213947 0)
(0.21356 0.216124 0)
(0.195247 0.218143 0)
(0.180103 0.21957 0)
(0.164705 0.220753 0)
(0.147079 0.222342 0)
(0.127335 0.224676 0)
(0.106251 0.228451 0)
(0.0842989 0.234156 0)
(0.0613623 0.24165 0)
(0.0376459 0.246793 0)
(0.0134872 0.252718 0)
(3 9.63874e-18 0)
(3 -3.73506e-16 0)
(3 -3.94946e-16 0)
(3 -1.5404e-16 0)
(3 -3.59034e-16 0)
(3 -8.13899e-16 0)
(3 -6.14545e-16 0)
(3 -5.25666e-16 0)
(3 -2.17369e-16 0)
(3 -6.1867e-16 0)
(3 -1.19709e-15 0)
(3 -3.39148e-16 0)
(3 -4.02812e-16 0)
(3 -8.3456e-16 0)
(3 -1.13553e-15 0)
(3 -9.802e-16 0)
(3 -8.81119e-16 0)
(3 -1.28597e-15 0)
(3 -1.29027e-15 0)
(3 -9.49069e-16 0)
(3 1.17804e-16 0)
(3 5.22354e-17 0)
(3 -7.61917e-17 0)
(3 -5.43828e-16 0)
(3 -1.60176e-15 0)
(3 -1.76695e-15 0)
(3 -1.49587e-15 0)
(3 -1.57773e-15 0)
(3 -1.57752e-15 0)
(3 -1.73649e-15 0)
(3 -1.2907e-15 0)
(3 -3.68683e-16 0)
(3 5.01413e-17 0)
(3 -5.76332e-17 0)
(3 -2.54213e-16 0)
(3 -1.31607e-15 0)
(3 -1.84247e-15 0)
(3 -2.13836e-15 0)
(3 -1.96279e-15 0)
(3 -1.46351e-15 0)
(3 -1.39755e-16 0)
(3 1.185e-15 0)
(3 1.27293e-15 0)
(3 5.97579e-16 0)
(3 6.61658e-16 0)
(3 7.90585e-16 0)
(3 9.04064e-16 0)
(3 1.27321e-15 0)
(3 1.75016e-16 0)
(3 -3.51029e-16 0)
(3 -1.99956e-16 0)
(3 -2.37543e-16 0)
(3 3.36319e-16 0)
(3 -5.59108e-16 0)
(3 3.20169e-16 0)
(2.33559 0.134748 0)
(0.828443 0.182573 0)
(0.677554 0.21635 0)
(0.670187 0.214027 0)
(0.665534 0.203215 0)
(0.668081 0.182704 0)
(0.666128 0.160606 0)
(0.65321 0.15071 0)
(0.630564 0.154076 0)
(0.603173 0.169266 0)
(0.576012 0.193632 0)
(0.549623 0.212414 0)
(0.527782 0.213455 0)
(0.514569 0.202893 0)
(0.502621 0.191771 0)
(0.489703 0.186931 0)
(0.475863 0.189664 0)
(0.460515 0.195925 0)
(0.442435 0.200442 0)
(0.422911 0.202756 0)
(0.401951 0.204877 0)
(0.380567 0.207936 0)
(0.360168 0.211526 0)
(0.342576 0.215552 0)
(0.327841 0.219536 0)
(0.314043 0.223279 0)
(0.298634 0.226139 0)
(0.280568 0.228767 0)
(0.259423 0.231647 0)
(0.237014 0.233621 0)
(0.216641 0.236155 0)
(0.198159 0.238533 0)
(0.183043 0.24035 0)
(0.167516 0.241844 0)
(0.149652 0.243768 0)
(0.129709 0.246494 0)
(0.108549 0.25055 0)
(0.0865578 0.256395 0)
(0.0634317 0.263605 0)
(0.0392801 0.268166 0)
(0.0138594 0.273812 0)
(3 -4.04883e-16 0)
(3 -3.75861e-17 0)
(3 -9.71368e-17 0)
(3 8.22287e-17 0)
(3 1.93564e-16 0)
(3 -1.94787e-17 0)
(3 -4.5389e-16 0)
(3 8.21591e-17 0)
(3 8.67441e-17 0)
(3 -3.3937e-16 0)
(3 -4.29027e-16 0)
(3 3.58129e-17 0)
(3 -1.07591e-16 0)
(3 1.51579e-17 0)
(3 -1.54292e-16 0)
(3 -6.61218e-16 0)
(3 -2.02793e-15 0)
(3 -2.95697e-15 0)
(3 -2.52473e-15 0)
(3 -7.77754e-16 0)
(3 -6.88653e-17 0)
(3 -1.03634e-15 0)
(3 -1.36842e-15 0)
(3 -1.20401e-15 0)
(3 -7.64264e-16 0)
(3 -1.05492e-15 0)
(3 -2.50275e-15 0)
(3 -2.68962e-15 0)
(3 -2.0748e-15 0)
(3 -7.12462e-16 0)
(3 2.01431e-16 0)
(3 9.68124e-16 0)
(3 1.03163e-15 0)
(3 2.78711e-16 0)
(3 -4.03013e-16 0)
(3 1.68632e-16 0)
(3 3.92709e-16 0)
(3 -2.29696e-16 0)
(3 -9.94507e-17 0)
(3 5.89616e-16 0)
(3 7.8717e-16 0)
(3 1.67612e-15 0)
(3 2.56769e-15 0)
(3 1.5745e-15 0)
(3 4.67205e-16 0)
(3 3.01924e-16 0)
(3 5.17322e-16 0)
(3 7.90324e-16 0)
(3 1.71242e-15 0)
(3 1.67602e-15 0)
(3 6.98991e-16 0)
(3 -1.28994e-16 0)
(3 2.94062e-17 0)
(3 2.6226e-16 0)
(3 -4.1586e-15 0)
(2.50432 0.143162 0)
(0.867026 0.226164 0)
(0.681884 0.227258 0)
(0.677744 0.220601 0)
(0.676839 0.205608 0)
(0.68161 0.18289 0)
(0.675344 0.167058 0)
(0.659303 0.164209 0)
(0.633279 0.173227 0)
(0.603024 0.193381 0)
(0.574966 0.218555 0)
(0.54955 0.232196 0)
(0.530222 0.228367 0)
(0.519682 0.215745 0)
(0.507609 0.204753 0)
(0.494998 0.20064 0)
(0.481159 0.204778 0)
(0.465606 0.212233 0)
(0.44692 0.217134 0)
(0.427134 0.219316 0)
(0.406433 0.221602 0)
(0.385643 0.225433 0)
(0.365896 0.229953 0)
(0.348667 0.234641 0)
(0.333834 0.238737 0)
(0.319675 0.242241 0)
(0.303651 0.244877 0)
(0.285133 0.24761 0)
(0.263588 0.251047 0)
(0.240702 0.253589 0)
(0.220073 0.256643 0)
(0.20132 0.259386 0)
(0.186088 0.261463 0)
(0.170522 0.263163 0)
(0.152621 0.265395 0)
(0.132626 0.268645 0)
(0.111391 0.273181 0)
(0.0892195 0.279344 0)
(0.0657323 0.28625 0)
(0.0409982 0.290117 0)
(0.0142902 0.295336 0)
(3 5.21407e-17 0)
(3 3.4522e-16 0)
(3 2.48363e-16 0)
(3 -2.51784e-16 0)
(3 1.69208e-16 0)
(3 1.79367e-16 0)
(3 -2.93042e-16 0)
(3 -4.70878e-16 0)
(3 -6.21739e-16 0)
(3 -6.9188e-16 0)
(3 -3.41389e-16 0)
(3 -4.34764e-16 0)
(3 -7.62743e-16 0)
(3 -8.78685e-16 0)
(3 -8.5476e-16 0)
(3 -5.5392e-16 0)
(3 -9.57537e-16 0)
(3 -1.10531e-15 0)
(3 -1.71567e-15 0)
(3 -1.68171e-15 0)
(3 -1.68481e-15 0)
(3 -7.12641e-16 0)
(3 -7.43171e-16 0)
(3 -7.39854e-16 0)
(3 -1.68211e-16 0)
(3 -1.18209e-15 0)
(3 -1.96794e-15 0)
(3 -1.97743e-15 0)
(3 -1.62468e-15 0)
(3 -2.94586e-16 0)
(3 -1.19689e-16 0)
(3 7.78653e-16 0)
(3 6.19101e-16 0)
(3 3.15172e-16 0)
(3 -4.59614e-16 0)
(3 -3.67185e-16 0)
(3 -1.74904e-16 0)
(3 -2.29341e-16 0)
(3 4.11986e-16 0)
(3 1.22722e-15 0)
(3 3.15546e-16 0)
(3 -2.74471e-16 0)
(3 7.27065e-17 0)
(3 -5.84956e-16 0)
(3 -1.20458e-15 0)
(3 -1.88473e-15 0)
(3 -1.28966e-15 0)
(3 -4.644e-16 0)
(3 6.25783e-16 0)
(3 1.8999e-15 0)
(3 2.31631e-15 0)
(3 1.44486e-15 0)
(3 3.11138e-16 0)
(3 2.20785e-16 0)
(3 -8.59112e-16 0)
(2.68731 0.147586 0)
(0.916409 0.267641 0)
(0.691092 0.239694 0)
(0.687762 0.225852 0)
(0.691595 0.204643 0)
(0.692279 0.186175 0)
(0.681517 0.178096 0)
(0.661679 0.181902 0)
(0.632498 0.196021 0)
(0.601175 0.219345 0)
(0.57401 0.24231 0)
(0.551 0.248821 0)
(0.535626 0.240677 0)
(0.526703 0.226662 0)
(0.513858 0.217015 0)
(0.501197 0.21455 0)
(0.487038 0.220913 0)
(0.470537 0.229869 0)
(0.451255 0.234705 0)
(0.43146 0.236217 0)
(0.411672 0.238274 0)
(0.392031 0.242725 0)
(0.373058 0.248147 0)
(0.355723 0.253599 0)
(0.340164 0.258043 0)
(0.325249 0.261441 0)
(0.308679 0.26391 0)
(0.289886 0.266671 0)
(0.26828 0.27066 0)
(0.245057 0.273894 0)
(0.223939 0.27753 0)
(0.204873 0.280684 0)
(0.189363 0.282967 0)
(0.173884 0.284758 0)
(0.156182 0.28726 0)
(0.136262 0.291094 0)
(0.114842 0.296269 0)
(0.0921945 0.30294 0)
(0.0680558 0.309652 0)
(0.0425564 0.312853 0)
(0.0146643 0.317597 0)
(3 6.49638e-17 0)
(3 -3.14691e-16 0)
(3 -3.46864e-16 0)
(3 -2.96376e-16 0)
(3 -1.40284e-16 0)
(3 -2.58631e-16 0)
(3 -6.15413e-16 0)
(3 -5.62653e-16 0)
(3 -1.27999e-15 0)
(3 -1.58006e-15 0)
(3 -1.19108e-15 0)
(3 -1.50803e-15 0)
(3 -1.45705e-15 0)
(3 -1.78881e-15 0)
(3 -1.81752e-15 0)
(3 -1.53826e-15 0)
(3 -3.91047e-16 0)
(3 -9.80668e-17 0)
(3 -5.65365e-16 0)