/*--------------------------------*- C++ -*----------------------------------*\
  =========                 |
  \\      /  F ield         | OpenFOAM: The Open Source CFD Toolbox
   \\    /   O peration     | Website:  https://openfoam.org
    \\  /    A nd           | Version:  7
     \\/     M anipulation  |
\*---------------------------------------------------------------------------*/
FoamFile
{
    version     2.0;
    format      ascii;
    class       volVectorField;
    location    "3.6";
    object      U;
}
// * * * * * * * * * * * * * * * * * * * * * * * * * * * * * * * * * * * * * //

dimensions      [0 1 -1 0 0 0 0];

internalField   nonuniform List<vector> 
4032
(
(3 -1.10042e-16 0)
(3 -1.66602e-16 0)
(3 2.3323e-17 0)
(3 5.41587e-17 0)
(3 -1.92292e-17 0)
(3 -5.33779e-17 0)
(3 -1.0941e-16 0)
(3 6.7416e-17 0)
(3 1.73564e-16 0)
(3 5.72634e-17 0)
(3 3.11981e-16 0)
(2.94322 0.00259408 0)
(1.0138 0.0174968 0)
(0.705858 0.0194963 0)
(0.652179 0.0236322 0)
(0.591832 0.0250288 0)
(0.531908 0.0262327 0)
(0.470272 0.0275185 0)
(0.406915 0.0289814 0)
(0.341128 0.0308875 0)
(0.272441 0.0329379 0)
(0.200112 0.0355081 0)
(0.123746 0.0372492 0)
(0.0455212 0.0415122 0)
(3 -3.70185e-16 0)
(3 -3.95929e-16 0)
(3 -2.61664e-16 0)
(3 -2.86679e-16 0)
(3 -2.37455e-16 0)
(3 -4.73595e-16 0)
(3 -5.28811e-16 0)
(3 -3.62756e-16 0)
(3 -3.6296e-16 0)
(3 -4.40975e-16 0)
(3 7.24795e-16 0)
(2.9522 0.0219996 0)
(1.02334 0.0790098 0)
(0.697539 0.0684416 0)
(0.644303 0.0722767 0)
(0.586667 0.0773977 0)
(0.527863 0.0821422 0)
(0.466242 0.0870241 0)
(0.401908 0.0920147 0)
(0.334716 0.0978247 0)
(0.264859 0.103525 0)
(0.192387 0.110683 0)
(0.116953 0.115234 0)
(0.0421035 0.12552 0)
(3 -6.538e-17 0)
(3 -1.96648e-16 0)
(3 -3.98343e-16 0)
(3 -9.5314e-16 0)
(3 -6.33773e-16 0)
(3 -6.67664e-16 0)
(3 -4.96548e-16 0)
(3 -1.30225e-16 0)
(3 2.23081e-16 0)
(3 6.34224e-16 0)
(3 8.54407e-16 0)
(2.99208 0.0110668 0)
(1.07027 0.137215 0)
(0.723118 0.111877 0)
(0.668902 0.119005 0)
(0.609578 0.127794 0)
(0.5493 0.136323 0)
(0.486695 0.145399 0)
(0.421143 0.154659 0)
(0.352227 0.164989 0)
(0.279662 0.174541 0)
(0.203721 0.186195 0)
(0.123353 0.192912 0)
(0.0445193 0.207013 0)
(3 1.69581e-16 0)
(3 2.67583e-17 0)
(3 -4.44736e-17 0)
(3 1.10175e-16 0)
(3 1.96169e-16 0)
(3 4.95695e-16 0)
(3 9.08888e-16 0)
(3 1.1124e-15 0)
(3 1.3763e-15 0)
(3 1.27848e-15 0)
(3 8.62189e-16 0)
(3.00163 0.000982855 0)
(1.15859 0.177053 0)
(0.738348 0.153335 0)
(0.683797 0.167625 0)
(0.626349 0.179937 0)
(0.567077 0.19157 0)
(0.505402 0.204881 0)
(0.439765 0.219184 0)
(0.369536 0.235576 0)
(0.294187 0.250642 0)
(0.215241 0.268358 0)
(0.130545 0.278663 0)
(0.0463026 0.295986 0)
(3 4.42085e-17 0)
(3 2.36229e-16 0)
(3 2.19037e-16 0)
(3 3.79689e-16 0)
(3 3.06161e-16 0)
(3 5.87856e-16 0)
(3 5.19536e-16 0)
(3 3.01391e-16 0)
(3 6.73389e-16 0)
(3 7.6546e-16 0)
(3 6.35503e-16 0)
(3.00004 2.09566e-06 0)
(1.29073 0.226598 0)
(0.748335 0.199088 0)
(0.685775 0.214509 0)
(0.632357 0.230204 0)
(0.577009 0.245106 0)
(0.520196 0.26322 0)
(0.459387 0.283388 0)
(0.394159 0.306758 0)
(0.322134 0.327677 0)
(0.24422 0.352418 0)
(0.15301 0.370533 0)
(0.0575814 0.395806 0)
(3 -5.22617e-17 0)
(3 4.97631e-17 0)
(3 3.28742e-16 0)
(3 1.47094e-16 0)
(3 2.73934e-16 0)
(3 3.34348e-16 0)
(3 8.36366e-17 0)
(3 3.10463e-16 0)
(3 5.39264e-16 0)
(3 5.00242e-16 0)
(3 2.02957e-16 0)
(3 -2.76198e-09 0)
(1.49577 0.276451 0)
(0.769789 0.253385 0)
(0.688228 0.26134 0)
(0.636795 0.276901 0)
(0.585957 0.293555 0)
(0.536619 0.315698 0)
(0.48362 0.341646 0)
(0.424773 0.374056 0)
(0.352788 0.407046 0)
(0.269567 0.447406 0)
(0.168923 0.483563 0)
(0.057421 0.518909 0)
(3 -1.09025e-16 0)
(3 -2.02341e-16 0)
(3 -8.29639e-17 0)
(3 -3.11954e-17 0)
(3 -1.07365e-16 0)
(3 -3.93841e-16 0)
(3 4.26977e-17 0)
(3 8.12137e-16 0)
(3 5.18293e-16 0)
(3 -1.58112e-16 0)
(3 -4.75758e-16 0)
(3 -1.37133e-09 0)
(1.79388 0.328322 0)
(0.805484 0.323165 0)
(0.693286 0.31493 0)
(0.639226 0.324974 0)
(0.58934 0.340149 0)
(0.545002 0.364442 0)
(0.49943 0.396335 0)
(0.452291 0.439901 0)
(0.393642 0.488661 0)
(0.325684 0.543568 0)
(0.234535 0.598331 0)
(0.102198 0.663297 0)
(3 -9.44586e-17 0)
(3 -5.03835e-16 0)
(3 -6.51045e-16 0)
(3 -4.44265e-16 0)
(3 -4.38336e-16 0)
(3 -5.9072e-16 0)
(3 -1.53363e-16 0)
(3 -3.41657e-17 0)
(3 -3.43246e-16 0)
(3 -5.61207e-16 0)
(3 -1.42954e-16 0)
(3 -2.37232e-10 0)
(2.23137 0.353836 0)
(0.87713 0.409429 0)
(0.728398 0.376138 0)
(0.67458 0.380817 0)
(0.622062 0.390326 0)
(0.576624 0.412207 0)
(0.534084 0.446061 0)
(0.495494 0.495073 0)
(0.451079 0.555647 0)
(0.390963 0.640003 0)
(0.273165 0.759945 0)
(0.152129 0.927482 0)
(3 4.90344e-17 0)
(3 -3.66705e-17 0)
(3 2.64938e-17 0)
(3 2.17532e-17 0)
(3 -1.69103e-17 0)
(3 -2.36303e-16 0)
(3 -7.67839e-17 0)
(3 -3.87998e-18 0)
(3 -1.68107e-16 0)
(3 -5.71794e-16 0)
(3 3.35444e-16 0)
(3 -1.90832e-11 0)
(2.81918 0.229161 0)
(1.03804 0.476054 0)
(0.821251 0.411118 0)
(0.764158 0.42172 0)
(0.699248 0.437644 0)
(0.642375 0.459253 0)
(0.595557 0.492108 0)
(0.557395 0.543308 0)
(0.523146 0.620157 0)
(0.491342 0.746822 0)
(0.461009 0.922397 0)
(0.576315 1.20422 0)
(3 4.97375e-17 0)
(3 2.86663e-16 0)
(3 -5.40444e-17 0)
(3 -1.18816e-16 0)
(3 -1.50359e-16 0)
(3 4.61002e-17 0)
(3 -1.59257e-17 0)
(3 -6.82364e-17 0)
(3 2.41736e-16 0)
(3 3.05799e-16 0)
(3 1.34746e-15 0)
(3 -5.01179e-13 0)
(3.05838 0.0201938 0)
(1.2654 0.460633 0)
(0.881589 0.4618 0)
(0.839159 0.490635 0)
(0.780546 0.501012 0)
(0.723155 0.516681 0)
(0.674031 0.544578 0)
(0.634149 0.592984 0)
(0.615812 0.675876 0)
(0.616932 0.811624 0)
(0.681956 0.963081 0)
(0.967621 1.13848 0)
(3 -2.91271e-17 0)
(3 -8.60628e-17 0)
(3 -7.15451e-16 0)
(3 -9.81597e-16 0)
(3 -8.66461e-16 0)
(3 -1.26263e-17 0)
(3 2.81149e-16 0)
(3 -9.99745e-17 0)
(3 -1.90718e-16 0)
(3 6.16241e-16 0)
(3 1.4428e-15 0)
(3 -9.92861e-15 0)
(3.00333 5.04176e-06 0)
(1.52264 0.46287 0)
(0.876831 0.517555 0)
(0.834852 0.541592 0)
(0.804096 0.562724 0)
(0.773582 0.58037 0)
(0.743287 0.605447 0)
(0.716146 0.6436 0)
(0.716544 0.713901 0)
(0.743854 0.828255 0)
(0.867198 0.954495 0)
(1.17638 1.06322 0)
(3 7.58099e-17 0)
(3 6.67595e-17 0)
(3 -6.47568e-17 0)
(3 -3.64915e-16 0)
(3 -2.67648e-16 0)
(3 1.98029e-17 0)
(3 -4.07581e-17 0)
(3 -4.46547e-16 0)
(3 -2.70303e-16 0)
(3 -3.34863e-16 0)
(3 -3.18623e-16 0)
(3 -6.00755e-16 0)
(3.00001 -5.99792e-07 0)
(2.11083 0.485527 0)
(0.942724 0.583228 0)
(0.859636 0.560115 0)
(0.85113 0.585765 0)
(0.833483 0.613386 0)
(0.819426 0.645664 0)
(0.80646 0.680835 0)
(0.816457 0.741444 0)
(0.864176 0.829886 0)
(1.00763 0.932675 0)
(1.27185 1.00382 0)
(3 2.89619e-16 0)
(3 4.84945e-16 0)
(3 3.87398e-16 0)
(3 5.09102e-16 0)
(3 8.6841e-16 0)
(3 2.77468e-16 0)
(3 -3.09534e-16 0)
(3 -7.7388e-16 0)
(3 -8.2829e-16 0)
(3 -6.78743e-16 0)
(3 -6.39318e-16 0)
(3 -4.54399e-16 0)
(3 -6.77915e-07 0)
(2.91764 0.22861 0)
(1.15106 0.619733 0)
(0.935753 0.566012 0)
(0.922186 0.605626 0)
(0.903819 0.638857 0)
(0.895171 0.676021 0)
(0.895185 0.713245 0)
(0.911013 0.762369 0)
(0.970055 0.82676 0)
(1.10576 0.898576 0)
(1.31436 0.942579 0)
(3 -2.97992e-17 0)
(3 3.64577e-16 0)
(3 6.05078e-16 0)
(3 8.56706e-16 0)
(3 9.27912e-16 0)
(3 7.02344e-16 0)
(3 2.01359e-16 0)
(3 -2.41488e-16 0)
(3 -6.77327e-16 0)
(3 -3.99869e-16 0)
(3 3.82721e-16 0)
(3 1.05606e-16 0)
(3 -1.39794e-07 0)
(3.05496 0.0104843 0)
(1.45147 0.60292 0)
(0.98106 0.647339 0)
(0.941092 0.652598 0)
(0.931492 0.677623 0)
(0.941053 0.709774 0)
(0.960436 0.746329 0)
(0.993841 0.786032 0)
(1.06129 0.832656 0)
(1.18216 0.880304 0)
(1.34823 0.904685 0)
(3 -1.62536e-16 0)
(3 -3.51512e-17 0)
(3 7.13025e-16 0)
(3 8.60111e-16 0)
(3 2.01313e-16 0)
(3 -7.36777e-17 0)
(3 -1.05436e-16 0)
(3 -3.10471e-16 0)
(3 1.08094e-16 0)
(3 6.85432e-16 0)
(3 7.81716e-16 0)
(3 4.03399e-16 0)
(3 -1.21541e-08 0)
(3.00156 2.97342e-06 0)
(2.08021 0.587636 0)
(1.04918 0.716571 0)
(0.99166 0.68237 0)
(0.983089 0.689256 0)
(0.994712 0.714671 0)
(1.01953 0.751037 0)
(1.06422 0.78976 0)
(1.1347 0.828022 0)
(1.238 0.859155 0)
(1.37119 0.871354 0)
(3 -8.00577e-17 0)
(3 -7.51922e-16 0)
(3 -6.14993e-16 0)
(3 -7.30531e-16 0)
(3 -1.40114e-15 0)
(3 -1.54697e-15 0)
(3 -1.36135e-15 0)
(3 -4.80252e-16 0)
(3 5.03473e-16 0)
(3 8.26243e-16 0)
(3 7.31657e-16 0)
(3 7.96567e-16 0)
(3 -1.26103e-10 0)
(3.00002 -5.57389e-06 0)
(3.01612 0.173817 0)
(1.3068 0.685572 0)
(1.07123 0.701492 0)
(1.07086 0.707345 0)
(1.07262 0.735565 0)
(1.08584 0.766236 0)
(1.12574 0.801012 0)
(1.19286 0.832469 0)
(1.28142 0.853748 0)
(1.39348 0.859649 0)
(3 -1.83675e-16 0)
(3 -4.95141e-16 0)
(3 -8.65593e-16 0)
(3 -1.06514e-15 0)
(3 -1.16651e-15 0)
(3 -9.99045e-16 0)
(3 -7.71195e-16 0)
(3 -3.93797e-16 0)
(3 1.74852e-16 0)
(3 2.53096e-16 0)
(3 5.93938e-16 0)
(3 1.64532e-15 0)
(3 -2.09806e-13 0)
(3 -1.61408e-06 0)
(3.03215 0.00288979 0)
(1.61247 0.654092 0)
(1.09231 0.753157 0)
(1.09567 0.756239 0)
(1.10647 0.775142 0)
(1.13146 0.791375 0)
(1.17178 0.80977 0)
(1.23449 0.828194 0)
(1.31226 0.841747 0)
(1.41155 0.844611 0)
(3 1.65482e-16 0)
(3 6.92904e-16 0)
(3 -9.31506e-17 0)
(3 -7.19017e-16 0)
(3 -3.44064e-16 0)
(3 1.48957e-16 0)
(3 6.18635e-16 0)
(3 4.13631e-16 0)
(3 5.61149e-16 0)
(3 6.66026e-16 0)
(3 8.93679e-16 0)
(3 1.62007e-15 0)
(3 1.28644e-15 0)
(3 -1.44968e-07 0)
(3.00048 1.0848e-05 0)
(2.48287 0.475577 0)
(1.21842 0.785565 0)
(1.12404 0.783328 0)
(1.14252 0.787017 0)
(1.16844 0.799417 0)
(1.20847 0.81475 0)
(1.26623 0.829471 0)
(1.33874 0.839689 0)
(1.42552 0.841692 0)
(3 9.04553e-17 0)
(3 2.33266e-16 0)
(3 1.2861e-17 0)
(3 -2.3433e-16 0)
(3 6.82574e-17 0)
(3 3.24955e-16 0)
(3 2.20212e-16 0)
(3 1.82194e-16 0)
(3 5.38119e-16 0)
(3 7.79217e-16 0)
(3 6.46597e-16 0)
(3 1.16575e-16 0)
(3 1.86058e-16 0)
(3 -1.06073e-09 0)
(3.00003 -1.18285e-05 0)
(3.06448 0.0552025 0)
(1.59502 0.7719 0)
(1.1806 0.788646 0)
(1.19718 0.794341 0)
(1.21335 0.805682 0)
(1.24817 0.815301 0)
(1.29708 0.825437 0)
(1.36179 0.831906 0)
(1.43738 0.833002 0)
(3 2.0946e-17 0)
(3 -1.20345e-16 0)
(3 1.76018e-16 0)
(3 4.40373e-16 0)
(3 1.65914e-16 0)
(3 3.1393e-16 0)
(3 1.03648e-16 0)
(3 1.52494e-16 0)
(3 4.10218e-16 0)
(3 6.35467e-16 0)
(3 1.92839e-16 0)
(3 -8.75928e-16 0)
(3 -1.75877e-16 0)
(3 -2.22498e-12 0)
(3 -2.63989e-06 0)
(3.00607 0.00106879 0)
(2.39164 0.598848 0)
(1.28459 0.857291 0)
(1.22844 0.839774 0)
(1.25171 0.833678 0)
(1.2795 0.835541 0)
(1.32307 0.837625 0)
(1.37982 0.837865 0)
(1.44609 0.835686 0)
(3 2.51472e-16 0)
(3 3.19174e-16 0)
(3 8.30621e-16 0)
(3 1.18722e-15 0)
(3 8.20049e-16 0)
(3 5.30758e-16 0)
(3 9.89883e-16 0)
(3 1.60962e-15 0)
(3 1.51976e-15 0)
(3 8.21421e-16 0)
(3 -2.80116e-16 0)
(3 -6.11664e-16 0)
(3 8.79429e-18 0)
(3 -1.51575e-15 0)
(3 -2.3015e-07 0)
(3.00002 5.24374e-06 0)
(3.05298 0.0903643 0)
(1.68363 0.827303 0)
(1.2786 0.843608 0)
(1.30343 0.839288 0)
(1.32242 0.838395 0)
(1.35925 0.835339 0)
(1.40677 0.832819 0)
(1.46321 0.82999 0)
(3 -1.2192e-16 0)
(3 7.0515e-17 0)
(3 3.73594e-16 0)
(3 1.22113e-15 0)
(3 1.76707e-15 0)
(3 6.53627e-16 0)
(3 1.06688e-15 0)
(3 9.73025e-16 0)
(3 8.03542e-16 0)
(3 -3.6312e-17 0)
(3 8.7026e-17 0)
(3 2.94724e-16 0)
(3 1.34147e-16 0)
(3 1.44113e-16 0)
(3 -2.61715e-09 0)
(3 -1.54463e-07 0)
(3.00742 0.00292607 0)
(2.54487 0.577284 0)
(1.39568 0.901566 0)
(1.33651 0.876683 0)
(1.36325 0.864777 0)
(1.39287 0.858783 0)
(1.43118 0.853671 0)
(1.47842 0.846755 0)
(3 -8.99851e-17 0)
(3 -2.10342e-16 0)
(3 2.69482e-16 0)
(3 4.96329e-16 0)
(3 7.38465e-16 0)
(3 5.64433e-16 0)
(3 5.34928e-16 0)
(3 2.62164e-16 0)
(3 -5.03151e-16 0)
(3 3.10633e-17 0)
(3 6.62017e-16 0)
(3 8.84324e-16 0)
(3 6.05464e-16 0)
(3 1.02313e-15 0)
(3 -5.3865e-12 0)
(3 -3.85519e-08 0)
(3.00002 2.73781e-05 0)
(3.05148 0.064919 0)
(1.83427 0.813862 0)
(1.3786 0.891423 0)
(1.41296 0.881718 0)
(1.43853 0.873374 0)
(1.46981 0.863538 0)
(1.50842 0.851428 0)
(3 3.15735e-16 0)
(3 3.08421e-16 0)
(3 1.22635e-16 0)
(3 -9.85622e-17 0)
(3 3.37868e-17 0)
(3 3.32517e-16 0)
(3 -3.38644e-16 0)
(3 -1.27432e-15 0)
(3 -1.48425e-15 0)
(3 -1.14568e-15 0)
(3 -3.23707e-16 0)
(3 -9.41284e-17 0)
(3 -1.18223e-16 0)
(3 4.83209e-16 0)
(3 -8.96284e-16 0)
(3 -3.63007e-09 0)
(3 1.13721e-08 0)
(3.00355 0.00252405 0)
(2.70686 0.440657 0)
(1.56663 0.927751 0)
(1.42822 0.907651 0)
(1.46534 0.90132 0)
(1.49582 0.891026 0)
(1.53188 0.874885 0)
(3 -9.5548e-17 0)
(3 1.29176e-16 0)
(3 -1.2037e-16 0)
(3 -8.40678e-17 0)
(3 -3.49622e-17 0)
(3 -2.25467e-16 0)
(3 -1.27764e-15 0)
(3 -1.81083e-15 0)
(3 -1.75376e-15 0)
(3 -1.81004e-15 0)
(3 -1.08836e-15 0)
(3 -8.71168e-16 0)
(3 -8.31383e-16 0)
(3 -2.52761e-16 0)
(3 5.86429e-17 0)
(3 -1.45441e-10 0)
(3 -1.44304e-10 0)
(3.00001 1.66815e-05 0)
(3.02679 0.0337906 0)
(2.1165 0.769688 0)
(1.49142 0.921302 0)
(1.49687 0.913742 0)
(1.52854 0.899535 0)
(1.56094 0.885415 0)
(3 -2.15317e-17 0)
(3 -2.90916e-17 0)
(3 -1.78645e-16 0)
(3 -3.0061e-16 0)
(3 -6.90859e-16 0)
(3 -8.97093e-16 0)
(3 -9.86674e-16 0)
(3 -1.07395e-15 0)
(3 -1.0248e-15 0)
(3 -8.28572e-16 0)
(3 -1.01176e-15 0)
(3 -5.85772e-16 0)
(3 1.14203e-16 0)
(3 -4.77981e-16 0)
(3 -5.9225e-16 0)
(3 -1.28462e-12 0)
(3 -4.58318e-11 0)
(3 8.43603e-09 0)
(3.00076 0.00134091 0)
(2.90666 0.240864 0)
(1.79442 0.882482 0)
(1.52126 0.931754 0)
(1.55545 0.919888 0)
(1.58838 0.905888 0)
(3 2.14832e-18 0)
(3 9.59791e-17 0)
(3 -2.36612e-16 0)
(3 -8.74852e-16 0)
(3 -1.50291e-15 0)
(3 -1.42238e-15 0)
(3 -7.82182e-16 0)
(3 -5.02254e-16 0)
(3 -4.96016e-16 0)
(3 -2.43594e-16 0)
(3 -5.33784e-16 0)
(3 5.12516e-17 0)
(3 5.22726e-16 0)
(3 3.13224e-16 0)
(3 3.39333e-16 0)
(3 -2.41449e-15 0)
(3 -6.04278e-12 0)
(3 -4.85946e-12 0)
(3 4.89624e-06 0)
(3.00727 0.0146458 0)
(2.51673 0.569582 0)
(1.65348 0.953467 0)
(1.56254 0.938628 0)
(1.59982 0.926995 0)
(3 -2.74901e-16 0)
(3 -3.34117e-16 0)
(3 -5.11665e-16 0)
(3 -6.9268e-16 0)
(3 -6.59338e-16 0)
(3 -5.12843e-16 0)
(3 -1.43552e-16 0)
(3 5.71566e-16 0)
(3 1.02382e-15 0)
(3 6.25147e-16 0)
(3 2.0231e-16 0)
(3 4.48663e-16 0)
(3 3.12725e-16 0)
(3 1.02225e-15 0)
(3 9.52676e-16 0)
(3 3.6364e-16 0)
(3 -1.77308e-13 0)
(3 -1.65985e-12 0)
(3 2.25041e-09 0)
(3.00002 0.000321394 0)
(2.99805 0.0769036 0)
(2.14129 0.781708 0)
(1.62405 0.946674 0)
(1.61853 0.943141 0)
(3 3.64178e-17 0)
(3 -3.57141e-16 0)
(3 -7.43728e-16 0)
(3 -6.36724e-16 0)
(3 8.08673e-16 0)
(3 1.37276e-15 0)
(3 1.11348e-15 0)
(3 8.02324e-16 0)
(3 5.64795e-16 0)
(3 3.32353e-16 0)
(3 6.41392e-16 0)
(3 8.81528e-16 0)
(3 2.6339e-16 0)
(3 4.17199e-16 0)
(3 4.59131e-16 0)
(3 2.36288e-16 0)
(3 -1.38507e-15 0)
(3 -2.55047e-13 0)
(3 2.63109e-13 0)
(3 5.4679e-07 0)
(3.00069 0.00382314 0)
(2.85805 0.26932 0)
(1.92289 0.874896 0)
(1.65672 0.955026 0)
(3 2.49855e-16 0)
(3 3.90889e-16 0)
(3 7.2636e-16 0)
(3 8.45201e-16 0)
(3 1.05012e-15 0)
(3 1.25701e-15 0)
(3 1.21393e-15 0)
(3 1.02407e-15 0)
(3 3.76181e-16 0)
(3 -1.00011e-16 0)
(3 5.01367e-18 0)
(3 -3.66498e-16 0)
(3 -2.46348e-16 0)
(3 -9.45859e-16 0)
(3 -1.08996e-15 0)
(3 -7.61991e-16 0)
(3 -3.30683e-16 0)
(3 -1.32559e-14 0)
(3 -1.56884e-14 0)
(3 2.99822e-10 0)
(3 2.49632e-05 0)
(3.00093 0.0194672 0)
(2.58933 0.499564 0)
(1.83201 0.930555 0)
(3 -1.08958e-16 0)
(3 -8.1569e-17 0)
(3 4.32714e-16 0)
(3 1.09694e-15 0)
(3 9.32708e-16 0)
(3 9.37152e-16 0)
(3 1.07073e-15 0)
(3 1.40194e-15 0)
(3 7.98668e-16 0)
(3 2.80691e-16 0)
(3 -6.32689e-16 0)
(3 -6.28573e-16 0)
(3 -7.67523e-16 0)
(3 -1.68924e-15 0)
(3 -1.65053e-15 0)
(3 -1.01714e-15 0)
(3 -8.44951e-16 0)
(3 -1.69605e-15 0)
(3 -7.3029e-15 0)
(3 4.0114e-14 0)
(3 2.21906e-08 0)
(2.99995 0.000434648 0)
(2.98357 0.0615625 0)
(2.35672 0.673301 0)
(3 -6.35675e-17 0)
(3 -5.2087e-16 0)
(3 -5.79937e-16 0)
(3 -4.49408e-16 0)
(3 6.72161e-16 0)
(3 9.09968e-16 0)
(3 4.25951e-16 0)
(3 -1.09982e-16 0)
(3 -6.96761e-16 0)
(3 -4.46054e-16 0)
(3 -9.21992e-16 0)
(3 -1.15052e-15 0)
(3 -9.36386e-16 0)
(3 -5.27767e-16 0)
(3 -3.43776e-16 0)
(3 1.38495e-16 0)
(3 -5.33095e-17 0)
(3 -1.36896e-15 0)
(3 -2.50373e-15 0)
(3 -3.14836e-15 0)
(3 9.94972e-12 0)
(3 8.52074e-07 0)
(2.9997 0.00275503 0)
(2.9283 0.1538 0)
(3 7.6313e-17 0)
(3 2.25283e-17 0)
(3 -5.58372e-16 0)
(3 -1.14571e-15 0)
(3 -7.96594e-16 0)
(3 -7.64031e-16 0)
(3 -7.95156e-16 0)
(3 -7.88566e-16 0)
(3 -7.39043e-17 0)
(3 5.6095e-18 0)
(3 3.91958e-17 0)
(3 -4.58465e-16 0)
(3 -3.2944e-16 0)
(3 3.04863e-16 0)
(3 5.89309e-16 0)
(3 -1.10732e-18 0)
(3 -1.2019e-16 0)
(3 -4.03774e-16 0)
(3 -6.93906e-16 0)
(3 -1.30251e-15 0)
(3 -1.64621e-16 0)
(3 6.80949e-10 0)
(3 1.40933e-05 0)
(2.99914 0.00888398 0)
(3 -1.64038e-16 0)
(3 4.88207e-17 0)
(3 -7.51268e-17 0)
(3 -1.52269e-16 0)
(3 -1.25184e-15 0)
(3 -1.36451e-15 0)
(3 -1.08936e-15 0)
(3 -3.87661e-16 0)
(3 1.32408e-15 0)
(3 1.41518e-15 0)
(3 1.11705e-15 0)
(3 8.80389e-16 0)
(3 7.95363e-16 0)
(3 8.40163e-16 0)
(3 3.55561e-16 0)
(3 1.2625e-16 0)
(3 3.08868e-16 0)
(3 -2.18967e-16 0)
(3 -2.58256e-16 0)
(3 -1.46716e-16 0)
(3 -6.28651e-16 0)
(3 1.00541e-13 0)
(3 1.62488e-08 0)
(2.99998 0.000100153 0)
(3 1.12601e-16 0)
(3 3.16623e-16 0)
(3 7.02663e-16 0)
(3 5.82742e-16 0)
(3 -5.43317e-17 0)
(3 1.95109e-16 0)
(3 5.21948e-16 0)
(3 4.83403e-16 0)
(3 7.79303e-16 0)
(3 1.38927e-15 0)
(3 8.57565e-16 0)
(3 2.56033e-16 0)
(3 3.13513e-16 0)
(3 1.99187e-16 0)
(3 -5.35851e-16 0)
(3 -4.53836e-16 0)
(3 -1.5449e-16 0)
(3 -5.16687e-17 0)
(3 5.98446e-17 0)
(3 -1.59806e-17 0)
(3 -4.49405e-16 0)
(3 1.10082e-16 0)
(3 4.52086e-12 0)
(3 2.24414e-07 0)
(3 1.95848e-16 0)
(3 4.45584e-16 0)
(3 8.84405e-16 0)
(3 8.39635e-16 0)
(3 1.00878e-15 0)
(3 1.58848e-15 0)
(3 1.68208e-15 0)
(3 1.31306e-15 0)
(3 9.72553e-16 0)
(3 9.94603e-16 0)
(3 5.88907e-16 0)
(3 3.09526e-16 0)
(3 -3.14693e-16 0)
(3 -1.02623e-15 0)
(3 -1.24961e-15 0)
(3 -1.53813e-15 0)
(3 -9.20079e-16 0)
(3 5.39383e-16 0)
(3 1.18347e-15 0)
(3 1.06314e-15 0)
(3 1.58422e-15 0)
(3 1.64875e-15 0)
(3 1.74192e-15 0)
(3 1.1616e-10 0)
(3 -1.35598e-17 0)
(3 2.38263e-17 0)
(3 2.76017e-16 0)
(3 1.20816e-16 0)
(3 2.28424e-16 0)
(3 -1.33138e-16 0)
(3 -9.45989e-17 0)
(3 2.09431e-16 0)
(3 3.32015e-16 0)
(3 2.46871e-16 0)
(3 3.02277e-16 0)
(3 4.47435e-16 0)
(3 2.03553e-16 0)
(3 -7.62199e-16 0)
(3 -1.2067e-15 0)
(3 -1.39568e-15 0)
(3 -5.77123e-16 0)
(3 -1.57991e-16 0)
(3 1.38601e-15 0)
(3 2.28818e-15 0)
(3 2.73007e-15 0)
(3 1.99918e-15 0)
(3 4.99912e-17 0)
(3 4.25791e-15 0)
(3 -2.27234e-16 0)
(3 -2.04914e-16 0)
(3 -2.28066e-16 0)
(3 -4.04509e-16 0)
(3 -8.24229e-16 0)
(3 -1.11073e-15 0)
(3 -7.46881e-16 0)
(3 3.38269e-16 0)
(3 5.80699e-16 0)
(3 2.71997e-16 0)
(3 3.75906e-16 0)
(3 4.65749e-16 0)
(3 -2.24063e-17 0)
(3 -2.73871e-16 0)
(3 -4.50628e-16 0)
(3 -6.88831e-16 0)
(3 -9.05326e-16 0)
(3 -1.20719e-15 0)
(3 7.73712e-16 0)
(3 3.56793e-15 0)
(3 3.76048e-15 0)
(3 2.8162e-15 0)
(3 -2.38892e-17 0)
(3 1.14934e-16 0)
(3 -3.21892e-17 0)
(3 -3.77275e-16 0)
(3 -6.52061e-16 0)
(3 -4.96855e-16 0)
(3 -2.95651e-16 0)
(3 3.42416e-17 0)
(3 4.43687e-16 0)
(3 1.30141e-15 0)
(3 1.25588e-15 0)
(3 1.19027e-15 0)
(3 6.26004e-16 0)
(3 -1.25235e-16 0)
(3 -3.51403e-16 0)
(3 -2.55787e-16 0)
(3 -9.08213e-17 0)
(3 -2.41908e-16 0)
(3 -1.26506e-15 0)
(3 -4.57345e-16 0)
(3 9.90221e-16 0)
(3 3.52261e-15 0)
(3 4.63046e-15 0)
(3 1.7038e-15 0)
(3 6.42303e-16 0)
(3 -2.05629e-16 0)
(3 1.32448e-16 0)
(3 -3.70017e-17 0)
(3 -1.25819e-16 0)
(3 -1.16694e-16 0)
(3 3.22616e-16 0)
(3 5.61314e-16 0)
(3 7.03174e-16 0)
(3 1.05777e-15 0)
(3 1.27195e-15 0)
(3 1.19381e-15 0)
(3 5.30299e-16 0)
(3 5.96445e-17 0)
(3 -4.04159e-16 0)
(3 -4.73191e-16 0)
(3 -4.25394e-16 0)
(3 -6.28473e-16 0)
(3 -1.00379e-15 0)
(3 -1.13835e-16 0)
(3 3.75288e-16 0)
(3 1.2422e-15 0)
(3 1.70711e-15 0)
(3 1.40733e-16 0)
(3 2.43957e-16 0)
(3 1.46703e-16 0)
(1.50334 1.27046 0)
(1.77912 1.36904 0)
(2.33468 0.949323 0)
(2.65157 0.801333 0)
(2.6008 0.41489 0)
(2.57628 0.0923771 0)
(2.4984 -0.237507 0)
(2.49941 -0.415615 0)
(2.49316 -0.453183 0)
(2.4681 -0.324228 0)
(2.43363 -0.219304 0)
(2.41227 -0.167164 0)
(2.41431 -0.144743 0)
(2.41989 -0.14081 0)
(2.42387 -0.11776 0)
(2.40511 -0.0972826 0)
(2.37633 -0.0591115 0)
(2.35404 -0.0256995 0)
(2.35287 -0.0268291 0)
(2.36642 -0.0218111 0)
(2.39581 -0.0102848 0)
(2.40568 -0.00460733 0)
(2.39535 -0.00543039 0)
(2.38604 -0.00991497 0)
(2.37991 -0.0140171 0)
(2.38059 -0.0134057 0)
(2.38398 -0.0106932 0)
(2.38654 -0.006017 0)
(2.38824 -0.00606191 0)
(1.22859 0.0326703 0)
(0.75113 0.0349242 0)
(0.711086 0.0137394 0)
(0.715826 -0.00459416 0)
(0.737636 -0.0228221 0)
(0.771567 -0.0338979 0)
(0.807862 -0.0396375 0)
(0.847408 -0.0397364 0)
(0.89003 -0.0371432 0)
(0.936297 -0.0347944 0)
(0.98618 -0.0333986 0)
(1.03606 -0.0337284 0)
(1.08168 -0.0340598 0)
(1.12056 -0.0318451 0)
(1.15192 -0.0271844 0)
(1.18113 -0.0224524 0)
(1.21271 -0.0192982 0)
(1.24977 -0.0181912 0)
(1.29241 -0.0187222 0)
(1.33448 -0.0199085 0)
(1.36894 -0.0183908 0)
(1.39505 -0.0145256 0)
(1.41865 -0.0107423 0)
(1.44303 -0.00797949 0)
(1.47177 -0.00705875 0)
(1.5057 -0.00831899 0)
(1.53407 -0.0103879 0)
(1.55659 -0.0105185 0)
(1.57783 -0.00847396 0)
(1.59757 -0.00425576 0)
(1.61827 -0.00152756 0)
(1.64172 1.04381e-05 0)
(1.67203 -0.000207347 0)
(1.70042 -0.00350229 0)
(1.72147 -0.00559833 0)
(1.74139 -0.00510777 0)
(1.75609 -0.00213946 0)
(1.76556 0.00295476 0)
(1.77913 0.0066084 0)
(1.79682 0.00723504 0)
(1.81794 0.00670048 0)
(1.84537 0.00491536 0)
(1.87106 9.50746e-05 0)
(1.89199 -0.00223619 0)
(1.91202 -0.00206794 0)
(1.92411 0.000645065 0)
(1.93134 0.00505858 0)
(1.94367 0.00782131 0)
(1.96044 0.00825355 0)
(1.9785 0.00834243 0)
(2.00059 0.00742423 0)
(2.02016 0.00424935 0)
(2.03774 0.00274988 0)
(2.05286 0.00216386 0)
(2.05747 0.00400165 0)
(2.05962 0.00705823 0)
(2.07177 0.00858282 0)
(2.08896 0.00891968 0)
(2.10636 0.00913881 0)
(2.12642 0.00842684 0)
(2.14327 0.00693333 0)
(2.15863 0.00629141 0)
(2.16729 0.00640833 0)
(2.16752 0.00785654 0)
(2.17504 0.00897176 0)
(2.18838 0.00906167 0)
(2.21305 0.00878803 0)
(1.77647 1.08924 0)
(2.20804 0.93834 0)
(2.54492 0.350083 0)
(2.68551 -0.00791582 0)
(2.72616 -0.181961 0)
(2.69704 -0.427321 0)
(2.71084 -0.532982 0)
(2.75697 -0.690061 0)
(2.73329 -0.656338 0)
(2.6656 -0.553385 0)
(2.55435 -0.372046 0)
(2.50959 -0.24628 0)
(2.50416 -0.175759 0)
(2.50745 -0.129338 0)
(2.50205 -0.112629 0)
(2.46102 -0.0740625 0)
(2.42635 -0.0353997 0)
(2.41769 0.000493425 0)
(2.40731 -0.00189125 0)
(2.40737 0.0049201 0)
(2.42456 0.00904261 0)
(2.42588 0.00318495 0)
(2.4159 0.000834031 0)
(2.40944 -0.0134087 0)
(2.40948 -0.0249339 0)
(2.40938 -0.0238841 0)
(2.41156 -0.0181299 0)
(2.41298 -0.00608818 0)
(2.41318 -0.00373383 0)
(1.3752 0.15852 0)
(0.80866 0.0861768 0)
(0.777329 0.0163353 0)
(0.813923 -0.0362533 0)
(0.857188 -0.0617256 0)
(0.8974 -0.0706267 0)
(0.93485 -0.0738277 0)
(0.972752 -0.0650277 0)
(1.00638 -0.0456512 0)
(1.03924 -0.0273151 0)
(1.072 -0.0189793 0)
(1.10755 -0.0231774 0)
(1.14861 -0.0356543 0)
(1.19143 -0.0465038 0)
(1.22845 -0.0448499 0)
(1.25531 -0.0325176 0)
(1.28024 -0.0164643 0)
(1.30583 -0.00448106 0)
(1.3326 -0.00304257 0)
(1.36551 -0.0106652 0)
(1.40393 -0.020501 0)
(1.43662 -0.0212361 0)
(1.46007 -0.0147312 0)
(1.48226 -0.00366686 0)
(1.50524 0.00458425 0)
(1.52711 0.00393052 0)
(1.55208 -0.00561343 0)
(1.57944 -0.0152938 0)
(1.60298 -0.0175864 0)
(1.62398 -0.0143721 0)
(1.64444 -0.00349557 0)
(1.66528 0.00795359 0)
(1.68543 0.0117675 0)
(1.70555 0.0074354 0)
(1.7288 -0.00307547 0)
(1.74874 -0.0117899 0)
(1.76635 -0.0154273 0)
(1.78404 -0.0113851 0)
(1.79962 0.00162786 0)
(1.81446 0.0149743 0)
(1.8316 0.0221743 0)
(1.85009 0.0217366 0)
(1.87172 0.0141666 0)
(1.89383 0.0034221 0)
(1.91244 -0.00662585 0)
(1.93029 -0.0107259 0)
(1.94666 -0.00469185 0)
(1.95967 0.00938725 0)
(1.97074 0.0219879 0)
(1.98406 0.0273287 0)
(2.00026 0.0265442 0)
(2.01839 0.0206299 0)
(2.03648 0.0105047 0)
(2.05203 0.000564721 0)
(2.06477 -0.0028045 0)
(2.07399 0.00536742 0)
(2.08207 0.0185119 0)
(2.09125 0.027089 0)
(2.10548 0.0285874 0)
(2.12206 0.0267965 0)
(2.13928 0.0213512 0)
(2.15546 0.0131728 0)
(2.16936 0.00650739 0)
(2.17835 0.00850542 0)
(2.18499 0.0181348 0)
(2.1927 0.0260171 0)
(2.21309 0.0267941 0)
(1.66028 1.0534 0)
(2.07241 0.881758 0)
(2.36689 0.556929 0)
(2.487 0.333296 0)
(2.55404 0.26388 0)
(2.66891 0.0687641 0)
(2.73837 -0.202117 0)
(2.72651 -0.339717 0)
(2.74589 -0.346885 0)
(2.77758 -0.401899 0)
(2.75908 -0.419086 0)
(2.70889 -0.456111 0)
(2.67907 -0.423605 0)
(2.6908 -0.377829 0)
(2.69798 -0.335229 0)
(2.64135 -0.233847 0)
(2.58669 -0.165591 0)
(2.54276 -0.100188 0)
(2.52355 -0.0878083 0)
(2.49559 -0.0462079 0)
(2.49267 -0.0250245 0)
(2.48316 0.00336246 0)
(2.47969 0.0123681 0)
(2.47528 0.00926906 0)
(2.47143 -0.00278267 0)
(2.47132 -0.0207629 0)
(2.47112 -0.0196265 0)
(2.47076 -0.0122461 0)
(2.46538 -0.0276091 0)
(1.82329 0.145531 0)
(1.01779 0.0641367 0)
(0.976685 -0.0501069 0)
(1.07368 -0.0858028 0)
(1.11091 -0.0759167 0)
(1.13671 -0.0676446 0)
(1.16213 -0.0826371 0)
(1.19637 -0.100253 0)
(1.2274 -0.105274 0)
(1.25026 -0.096339 0)
(1.26778 -0.0769559 0)
(1.28396 -0.0569273 0)
(1.30381 -0.0516073 0)
(1.33001 -0.0570841 0)
(1.36319 -0.0688609 0)
(1.39254 -0.0743519 0)
(1.41222 -0.0716903 0)
(1.42996 -0.0613529 0)
(1.4458 -0.0447585 0)
(1.4659 -0.033731 0)
(1.4886 -0.03237 0)
(1.51616 -0.0375092 0)
(1.54328 -0.0401423 0)
(1.56557 -0.0365844 0)
(1.58562 -0.0285167 0)
(1.60236 -0.0174655 0)
(1.61827 -0.00949014 0)
(1.63569 -0.00940691 0)
(1.655 -0.0154017 0)
(1.67784 -0.0194928 0)
(1.69945 -0.0171128 0)
(1.71915 -0.0104168 0)
(1.73539 0.00158568 0)
(1.74598 0.0143468 0)
(1.75686 0.0177558 0)
(1.77283 0.013417 0)
(1.7936 0.00474884 0)
(1.81801 -0.000709052 0)
(1.83732 0.000355712 0)
(1.85574 0.00707163 0)
(1.87111 0.0185418 0)
(1.87942 0.0284228 0)
(1.88936 0.0293428 0)
(1.90508 0.0228237 0)
(1.92332 0.0149243 0)
(1.94662 0.0079651 0)
(1.96754 0.00583064 0)
(1.98511 0.00868524 0)
(2.00106 0.0198026 0)
(2.01104 0.0340389 0)
(2.01543 0.0416393 0)
(2.02501 0.0375555 0)
(2.0389 0.028744 0)
(2.05492 0.020112 0)
(2.07245 0.0128928 0)
(2.0884 0.0113788 0)
(2.10362 0.0173914 0)
(2.11405 0.031066 0)
(2.11929 0.0430915 0)
(2.12688 0.0445115 0)
(2.13972 0.0389131 0)
(2.15384 0.0318183 0)
(2.16944 0.0260443 0)
(2.18498 0.0223069 0)
(2.19991 0.0235983 0)
(2.21166 0.0325121 0)
(2.22665 0.0399947 0)
(1.60935 0.978969 0)
(1.91219 0.869963 0)
(2.11441 0.733088 0)
(2.31925 0.49746 0)
(2.46012 0.274788 0)
(2.56326 0.197787 0)
(2.60419 0.0785337 0)
(2.6654 -0.116937 0)
(2.69741 -0.272627 0)
(2.7205 -0.339596 0)
(2.79225 -0.427502 0)
(2.79074 -0.494718 0)
(2.7619 -0.506689 0)
(2.75215 -0.47486 0)
(2.74868 -0.455463 0)
(2.72191 -0.388164 0)
(2.68778 -0.336009 0)
(2.65651 -0.290199 0)
(2.64598 -0.25766 0)
(2.60127 -0.174652 0)
(2.58574 -0.119684 0)
(2.56861 -0.072802 0)
(2.55447 -0.0381275 0)
(2.54271 -0.0233593 0)
(2.52679 -0.0258293 0)
(2.52076 -0.0147067 0)
(2.52254 -0.00121913 0)
(2.51581 -0.0107053 0)
(2.46822 -0.0735535 0)
(2.26913 -0.302747 0)
(1.36461 -0.0582249 0)
(1.23168 -0.012519 0)
(1.32056 -0.0540374 0)
(1.35669 -0.0812486 0)
(1.37249 -0.0913976 0)
(1.38243 -0.0878904 0)
(1.4063 -0.0854711 0)
(1.4311 -0.0880652 0)
(1.4478 -0.0906648 0)
(1.46224 -0.0852997 0)
(1.46817 -0.0656726 0)
(1.4734 -0.0448752 0)
(1.48702 -0.0363355 0)
(1.50684 -0.0349055 0)
(1.5327 -0.0417739 0)
(1.55298 -0.0470715 0)
(1.56886 -0.0471727 0)
(1.58365 -0.0411075 0)
(1.59234 -0.0274249 0)
(1.60171 -0.01492 0)
(1.61861 -0.0120236 0)
(1.63914 -0.0134857 0)
(1.66285 -0.0172842 0)
(1.68234 -0.0192316 0)
(1.70019 -0.0177648 0)
(1.71315 -0.00974522 0)
(1.71933 0.00175109 0)
(1.7317 0.00710788 0)
(1.74921 0.00564462 0)
(1.76891 -0.00174854 0)
(1.78598 -0.00878799 0)
(1.80143 -0.0121805 0)
(1.81498 -0.00981897 0)
(1.82407 0.00170799 0)
(1.83355 0.0164571 0)
(1.84945 0.0236618 0)
(1.86683 0.0234867 0)
(1.88656 0.017081 0)
(1.90349 0.0104084 0)
(1.91797 0.00564782 0)
(1.92827 0.00496929 0)
(1.93546 0.0110179 0)
(1.94594 0.0198054 0)
(1.96247 0.0258747 0)
(1.97992 0.0287402 0)
(1.99931 0.0281655 0)
(2.0171 0.0266529 0)
(2.03373 0.0255418 0)
(2.04652 0.0266791 0)
(2.05118 0.0334892 0)
(2.05102 0.0416855 0)
(2.05909 0.043843 0)
(2.07429 0.0433135 0)
(2.09011 0.0399914 0)
(2.10873 0.035075 0)
(2.12452 0.0329558 0)
(2.13962 0.033803 0)
(2.1477 0.040039 0)
(2.14738 0.0481932 0)
(2.15156 0.0502375 0)
(2.16564 0.0490836 0)
(2.18073 0.0485267 0)
(2.19782 0.0460936 0)
(2.21583 0.0434777 0)
(2.22986 0.0433371 0)
(2.25023 0.0462782 0)
(1.5693 0.918655 0)
(1.80098 0.843452 0)
(1.98267 0.754023 0)
(2.15498 0.614811 0)
(2.32586 0.43193 0)
(2.43881 0.274426 0)
(2.50535 0.189766 0)
(2.5254 0.116021 0)
(2.60989 -0.0269986 0)
(2.64916 -0.16156 0)
(2.68425 -0.198492 0)
(2.72492 -0.228791 0)
(2.72491 -0.321302 0)
(2.68804 -0.383422 0)
(2.69871 -0.392128 0)
(2.70664 -0.380033 0)
(2.70843 -0.387951 0)
(2.70647 -0.409487 0)
(2.70778 -0.396814 0)
(2.68287 -0.317651 0)
(2.66269 -0.237572 0)
(2.63899 -0.177543 0)
(2.61986 -0.141577 0)
(2.59809 -0.0922479 0)
(2.5873 -0.0778186 0)
(2.57185 -0.0634081 0)
(2.56801 -0.0375262 0)
(2.50108 -0.0871371 0)
(2.33566 -0.257999 0)
(2.1294 -0.624055 0)
(1.72597 -0.386472 0)
(1.42683 -0.140266 0)
(1.44232 -0.0707468 0)
(1.48155 -0.059488 0)
(1.50066 -0.0708698 0)
(1.51635 -0.0926784 0)
(1.53285 -0.100724 0)
(1.55042 -0.100389 0)
(1.5655 -0.0949434 0)
(1.57665 -0.0868239 0)
(1.5852 -0.0729016 0)
(1.58845 -0.0536199 0)
(1.59519 -0.0405509 0)
(1.60879 -0.038527 0)
(1.62669 -0.0411537 0)
(1.64857 -0.0479645 0)
(1.66545 -0.0510345 0)
(1.67985 -0.0500815 0)
(1.69171 -0.043355 0)
(1.69744 -0.0295714 0)
(1.70504 -0.017573 0)
(1.72115 -0.0145646 0)
(1.73962 -0.0146544 0)
(1.75917 -0.01618 0)
(1.77618 -0.0162688 0)
(1.79165 -0.0138111 0)
(1.80179 -0.00535225 0)
(1.80688 0.00534523 0)
(1.81742 0.00881359 0)
(1.83337 0.0073678 0)
(1.84935 0.00480923 0)
(1.86492 0.00294051 0)
(1.88015 0.00341091 0)
(1.89388 0.00959451 0)
(1.90414 0.0230208 0)
(1.91062 0.035454 0)
(1.92124 0.0385653 0)
(1.93668 0.0353357 0)
(1.95201 0.0290081 0)
(1.96594 0.0217574 0)
(1.97853 0.0173551 0)
(1.99103 0.0186852 0)
(2.00266 0.0264165 0)
(2.01226 0.0372786 0)
(2.02369 0.0450177 0)
(2.03826 0.0473118 0)
(2.05367 0.0459579 0)
(2.06788 0.0415583 0)
(2.07966 0.0358779 0)
(2.08885 0.0334266 0)
(2.09541 0.0388291 0)
(2.0995 0.0502248 0)
(2.10783 0.0577327 0)
(2.12221 0.0591696 0)
(2.13693 0.0573966 0)
(2.15158 0.0524974 0)
(2.16471 0.0469674 0)
(2.17332 0.0420765 0)
(2.17638 0.0431395 0)
(2.1805 0.0518675 0)
(2.1911 0.060688 0)
(2.20622 0.064711 0)