/*--------------------------------*- C++ -*----------------------------------*\
  =========                 |
  \\      /  F ield         | OpenFOAM: The Open Source CFD Toolbox
   \\    /   O peration     | Website:  https://openfoam.org
    \\  /    A nd           | Version:  7
     \\/     M anipulation  |
\*---------------------------------------------------------------------------*/
FoamFile
{
    version     2.0;
    format      ascii;
    class       volScalarField;
    location    "2.8";
    object      p;
}
// * * * * * * * * * * * * * * * * * * * * * * * * * * * * * * * * * * * * * //

dimensions      [1 -1 -2 0 0 0 0];

internalField   nonuniform List<scalar> 
16128
(
1
1
1
1
1
1
1
1
1
1
1
1
1
1
1
1
1
1
1
1
1
1
1
1
3.89694
10.0065
10.5409
10.6205
10.7433
10.8517
10.9564
11.055
11.1481
11.2359
11.3193
11.3985
11.4745
11.5473
11.615
11.6769
11.7335
11.7861
11.8343
11.8769
11.9137
11.9433
11.9644
11.9789
1
1
1
1
1
1
1
1
1
1
1
1
1
1
1
1
1
1
1
1
1
1
1
1
3.82499
9.9514
10.5372
10.6178
10.7409
10.8492
10.9537
11.0519
11.1443
11.2313
11.3141
11.3927
11.468
11.5401
11.6071
11.6681
11.7237
11.7754
11.8227
11.8647
11.9011
11.9304
11.9512
11.9657
1
1
1
1
1
1
1
1
1
1
1
1
1
1
1
1
1
1
1
1
1
1
1
1
3.66283
9.87898
10.5244
10.6062
10.7305
10.8393
10.9442
11.0423
11.1343
11.2207
11.3029
11.3809
11.4557
11.5272
11.5937
11.6541
11.7088
11.7593
11.8052
11.8457
11.8808
11.9092
11.9291
11.9433
1
1
1
1
1
1
1
1
1
1
1
1
1
1
1
1
1
1
1
1
1
1
1
1
3.43275
9.76328
10.5103
10.5927
10.7172
10.8256
10.9302
11.028
11.1196
11.2056
11.2871
11.3644
11.438
11.5085
11.574
11.6334
11.687
11.7363
11.7808
11.8197
11.8529
11.8794
11.8975
11.9105
1
1
1
1
1
1
1
1
1
1
1
1
1
1
1
1
1
1
1
1
1
1
1
1
3.14557
9.59401
10.4915
10.5729
10.6958
10.8021
10.9053
11.0026
11.0945
11.1805
11.2618
11.3384
11.411
11.4804
11.545
11.6036
11.6564
11.7045
11.7477
11.7852
11.8169
11.8422
11.859
11.8713
1
1
1
1
1
1
1
1
1
1
1
1
1
1
1
1
1
1
1
1
1
1
1
1
2.80498
9.35546
10.4739
10.5518
10.6713
10.7752
10.8763
10.9714
11.0617
11.147
11.2277
11.3034
11.3744
11.4418
11.5049
11.5626
11.6149
11.6626
11.705
11.7412
11.7713
11.795
11.81
11.8215
1
1
1
1
1
1
1
1
1
1
1
1
1
1
1
1
1
1
1
1
1
1
1
1
2.42465
9.0327
10.4571
10.528
10.6426
10.7426
10.8413
10.9346
11.0239
11.1085
11.1882
11.2625
11.3314
11.3964
11.4575
11.5139
11.565
11.6111
11.6516
11.6858
11.714
11.7364
11.7506
11.7622
1
1
1
1
1
1
1
1
1
1
1
1
1
1
1
1
1
1
1
1
1
1
1
1
2.0306
8.61441
10.4537
10.5059
10.6142
10.7083
10.8042
10.8955
10.9829
11.0657
11.1433
11.2156
11.2822
11.3442
11.4021
11.4556
11.5041
11.5478
11.5862
11.618
11.6439
11.6641
11.6765
11.6871
1
1
1
1
1
1
1
1
1
1
1
1
1
1
1
1
1
1
1
1
1
1
1
1
1.63216
8.07055
10.4476
10.475
10.579
10.6678
10.7613
10.8502
10.9353
11.016
11.0914
11.1614
11.2252
11.2838
11.3379
11.3875
11.4321
11.4716
11.506
11.5344
11.5579
11.5763
11.5879
11.5985
1
1
1
1
1
1
1
1
1
1
1
1
1
1
1
1
1
1
1
1
1
1
1
1
1.2646
7.44715
10.4655
10.4413
10.5328
10.6148
10.7045
10.7927
10.8773
10.9558
11.0283
11.0955
11.1564
11.2115
11.2617
11.3072
11.3475
11.3827
11.4133
11.4375
11.4564
11.4691
11.4761
11.4833
1
1
1
1
1
1
1
1
1
1
1
1
1
1
1
1
1
1
1
1
1
1
1
1
1.01514
6.68961
10.31
10.3534
10.4506
10.5408
10.6316
10.7184
10.802
10.882
10.9551
11.0201
11.0774
11.1282
11.1737
11.214
11.2486
11.2768
11.2989
11.3142
11.3261
11.3337
11.3385
11.3466
1
1
1
1
1
1
1
1
1
1
1
1
1
1
1
1
1
1
1
1
1
1
1
1
1.00008
5.75688
10.1309
10.2802
10.3849
10.4842
10.5743
10.6597
10.7385
10.8091
10.8735
10.9326
10.9853
11.0307
11.0703
11.1043
11.1321
11.1524
11.1667
11.1749
11.1776
11.1717
11.1613
11.1542
1
1
1
1
1
1
1
1
1
1
1
1
1
1
1
1
1
1
1
1
1
1
1
1
1
4.74698
9.86132
10.2092
10.3126
10.4141
10.4983
10.5756
10.6469
10.7135
10.7746
10.8279
10.8743
10.9141
10.9475
10.9745
10.9948
11.0061
11.0068
10.9951
10.9723
10.9482
10.9237
10.9247
1
1
1
1
1
1
1
1
1
1
1
1
1
1
1
1
1
1
1
1
1
1
1
1
1
3.71291
9.47115
10.1597
10.2692
10.3665
10.4451
10.5135
10.5739
10.6283
10.6755
10.7169
10.7546
10.7864
10.8102
10.8275
10.8371
10.8324
10.8152
10.7851
10.7437
10.7005
10.6341
10.5572
1
1
1
1
1
1
1
1
1
1
1
1
1
1
1
1
1
1
1
1
1
1
1
1
1
2.68359
8.84876
10.1393
10.221
10.3051
10.3781
10.4432
10.4977
10.5444
10.5827
10.612
10.6343
10.652
10.6624
10.6662
10.658
10.6357
10.5961
10.5338
10.4373
10.3009
10.1573
10.0487
1
1
1
1
1
1
1
1
1
1
1
1
1
1
1
1
1
1
1
1
1
1
1
1
1
1.69309
8.08388
10.2096
10.1596
10.2468
10.3198
10.3765
10.4199
10.4557
10.4847
10.504
10.5147
10.5178
10.5121
10.4963
10.4662
10.418
10.3423
10.2299
10.0734
9.87541
9.66155
9.56804
1
1
1
1
1
1
1
1
1
1
1
1
1
1
1
1
1
1
1
1
1
1
1
1
1
1.06267
6.95089
10.2162
10.1447
10.1787
10.2368
10.2883
10.3274
10.3581
10.3801
10.3901
10.3899
10.3781
10.3535
10.3174
10.2627
10.1838
10.0693
9.9105
9.67271
9.28785
8.42206
6.46781
1
1
1
1
1
1
1
1
1
1
1
1
1
1
1
1
1
1
1
1
1
1
1
1
1
1.00031
5.48387
9.75935
9.93328
10.0443
10.1152
10.1703
10.215
10.2492
10.2675
10.271
10.2617
10.2354
10.1918
10.134
10.0535
9.94185
9.78429
9.55855
9.2142
8.61504
7.6674
5.50047
1
1
1
1
1
1
1
1
1
1
1
1
1
1
1
1
1
1
1
1
1
1
1
1
1
0.999996
4.01373
9.39358
9.91441
10.003
10.062
10.0879
10.1152
10.1407
10.1498
10.1463
10.1281
10.0889
10.0278
9.94685
9.83972
9.69503
9.49651
9.21089
8.78816
8.12721
7.04951
5.12112
1
1
1
1
1
1
1
1
1
1
1
1
1
1
1
1
1
1
1
1
1
1
1
1
1
0.999999
2.52149
8.60393
9.89825
9.92994
9.97532
10.002
10.0254
10.0422
10.0412
10.0259
9.99403
9.94062
9.86314
9.7607
9.62747
9.45252
9.21537
8.8907
8.40917
7.75341
6.61899
5.10431
1
1
1
1
1
1
1
1
1
1
1
1
1
1
1
1
1
1
1
1
1
1
1
1
1
1
1.31655
7.59727
10.0282
9.91179
9.90095
9.91434
9.92607
9.93031
9.91865
9.89365
9.85172
9.78801
9.69781
9.57822
9.42172
9.22149
8.95389
8.60179
8.10319
7.4546
6.40212
5.1881
1
1
1
1
1
1
1
1
1
1
1
1
1
1
1
1
1
1
1
1
1
1
1
1
1
1
1.01096
6.06696
9.60183
9.6633
9.73404
9.77922
9.80294
9.80684
9.79049
9.75892
9.70713
9.6325
9.53048
9.39713
9.22314
9.00376
8.71925
8.34937
7.85542
7.22794
6.30396
5.32754
1
1
1
1
1
1
1
1
1
1
1
1
1
1
1
1
1
1
1
1
1
1
1
1
1
1
0.999934
4.16802
9.16258
9.62635
9.6791
9.70601
9.71331
9.70313
9.67537
9.63311
9.57098
9.48543
9.37195
9.22657
9.03917
8.80476
8.51019
8.13581
7.65816
7.06159
6.26274
5.46154
1
1
1
1
1
1
1
1
1
1
1
1
1
1
1
1
1
1
1
1
1
1
1
1
1
1
0.999983
2.33137
8.38304
9.62626
9.59946
9.62825
9.62585
9.60149
9.56064
9.50655
9.43447
9.3403
9.21667
9.06147
8.86492
8.62219
8.32438
7.95576
7.5006
6.94003
6.25055
5.57555
1
1
1
1
1
1
1
1
1
1
1
1
1
1
1
1
1
1
1
1
1
1
1
1
1
1
0.999997
1.1669
6.98462
9.68023
9.56055
9.52794
9.51938
9.49151
9.44653
9.38526
9.30411
9.20198
9.07114
8.90919
8.70727
8.45909
8.16251
7.8005
7.36952
6.85063
6.25236
5.66885
1
1
1
1
1
1
1
1
1
1
1
1
1
1
1
1
1
1
1
1
1
1
1
1
1
1
1
1.00227
5.05365
9.1146
9.35946
9.42541
9.41716
9.37983
9.33076
9.26535
9.17791
9.06815
8.93235
8.76484
8.56335
8.31486
8.02322
7.66746
7.26081
6.78331
6.26338
5.73881
1
1
1
1
1
1
1
1
1
1
1
1
1
1
1
1
1
1
1
1
1
1
1
1
1
1
1
0.999976
2.79554
8.44347
9.38015
9.34858
9.33112
9.29282
9.23655
9.16061
9.06345
8.94527
8.80287
8.63133
8.42826
8.1851
7.89818
7.55461
7.17034
6.73327
6.27704
5.79171
1
1
1
1
1
1
1
1
1
1
1
1
1
1
1
1
1
1
1
1
1
1
1
1
1
1
1
0.999994
1.2575
7.14713
9.45238
9.29234
9.2273
9.18778
9.12649
9.04892
8.94954
8.82767
8.68299
8.50885
8.30495
8.06809
7.78549
7.46233
7.09917
6.69872
6.28575
5.83728
1
1
1
1
1
1
1
1
1
1
1
1
1
1
1
1
1
1
1
1
1
1
1
1
1
1
1
0.999999
1.0058
5.08278
8.9138
9.08327
9.12013
9.08212
9.0222
8.94268
8.84186
8.718
8.5706
8.3953
8.19339
7.95975
7.68606
7.38119
7.04017
6.67579
6.29465
5.88476
1
1
1
1
1
1
1
1
1
1
1
1
1
1
1
1
1
1
1
1
1
1
1
1
1
1
1
1
0.999956
2.58488
8.25371
9.06363
9.06199
9.01528
8.94588
8.86136
8.75421
8.624
8.47013
8.29304
8.09004
7.86201
7.59905
7.31024
6.99076
6.65745
6.30024
5.92672
1
1
1
1
1
1
1
1
1
1
1
1
1
1
1
1
1
1
1
1
1
1
1
1
1
1
1
1
0.999989
1.1923
6.62696
9.05874
8.99611
8.94153
8.86197
8.77184
8.65972
8.52529
8.36994
8.1943
7.99488
7.77353
7.52576
7.25139
6.95306
6.64236
6.30561
5.96406
1
1
1
1
1
1
1
1
1
1
1
1
1
1
1
1
1
1
1
1
1
1
1
1
1
1
1
1
0.999998
1.00277
4.04752
8.50807
8.86889
8.83389
8.7759
8.6958
8.57803
8.43733
8.28005
8.10586
7.91211
7.69424
7.45828
7.19811
6.92029
6.62548
6.3102
5.99264
1
1
1
1
1
1
1
1
1
1
1
1
1
1
1
1
1
1
1
1
1
1
1
1
1
1
1
1
1
0.999986
1.5939
7.57217
9.02747
8.83378
8.72708
8.61855
8.48556
8.34351
8.19161
8.02464
7.83829
7.63012
7.40373
7.15596
6.89201
6.60954
6.3171
6.01694
1
1
1
1
1
1
1
1
1
1
1
1
1
1
1
1
1
1
1
1
1
1
1
1
1
1
1
1
1
0.999997
1.02981
5.52052
8.61913
8.63638
8.60602
8.50524
8.37581
8.24468
8.10448
7.94663
7.76811
7.56933
7.35292
7.11714
6.8644
6.59564
6.32246
6.03709
1
1
1
1
1
1
1
1
1
1
1
1
1
1
1
1
1
1
1
1
1
1
1
1
1
1
1
1
1
1
0.999972
2.6343
7.98372
8.62313
8.54326
8.42439
8.30817
8.18946
8.05233
7.89412
7.71728
7.52319
7.3124
7.08454
6.84168
6.58703
6.32817
6.0579
1
1
1
1
1
1
1
1
1
1
1
1
1
1
1
1
1
1
1
1
1
1
1
1
1
1
1
1
1
1
0.999989
1.18727
6.24562
8.57387
8.44754
8.3402
8.24049
8.13018
7.99523
7.83887
7.66534
7.47577
7.27061
7.0513
6.81968
6.57811
6.33137
6.07642
1
1
1
1
1
1
1
1
1
1
1
1
1
1
1
1
1
1
1
1
1
1
1
1
1
1
1
1
1
1
0.999998
1.00258
3.36327
7.901
8.32136
8.26434
8.19077
8.08714
7.95336
7.79799
7.62686
7.43993
7.23866
7.02661
6.80463
6.57284
6.33606
6.09345
1
1
1
1
1
1
1
1
1
1
1
1
1
1
1
1
1
1
1
1
1
1
1
1
1
1
1
1
1
1
1
0.999997
1.36353
6.46905
8.3966
8.26392
8.15966
8.03965
7.90078
7.74648
7.57876
7.39736
7.20337
6.99909
6.78625
6.56427
6.33752
6.10627
1
1
1
1
1
1
1
1
1
1
1
1
1
1
1
1
1
1
1
1
1
1
1
1
1
1
1
1
1
1
1
0.999999
1.01046
3.72452
7.83241
8.13737
8.06926
7.965
7.83918
7.69665
7.53656
7.36213
7.17573
6.97895
6.77409
6.56092
6.34207
6.11991
1
1
1
1
1
1
1
1
1
1
1
1
1
1
1
1
1
1
1
1
1
1
1
1
1
1
1
1
1
1
1
1
1.00001
1.47423
6.45138
8.212
8.06869
7.94388
7.81258
7.66575
7.50426
7.33036
7.14684
6.95597
6.75904
6.55543
6.34561
6.13255
1
1
1
1
1
1
1
1
1
1
1
1
1
1
1
1
1
1
1
1
1
1
1
1
1
1
1
1
1
1
1
1
1
1.01763
3.74403
7.68308
7.95767
7.88071
7.76238
7.61862
7.4597
7.29112
7.11607
6.935
6.74765
6.55342
6.35315
6.14854
1
1
1
1
1
1
1
1
1
1
1
1
1
1
1
1
1
1
1
1
1
1
1
1
1
1
1
1
1
1
1
1
1
1.00006
1.48714
6.22529
7.98353
7.88075
7.74473
7.59092
7.43082
7.26774
7.10019
6.92533
6.74305
6.55425
6.36087
6.16383
1
1
1
1
1
1
1
1
1
1
1
1
1
1
1
1
1
1
1
1
1
1
1
1
1
1
1
1
1
1
1
1
1
1
1.01851
3.39443
7.44417
7.82134
7.68481
7.53831
7.38977
7.23831
7.07898
6.90999
6.73372
6.55258
6.36664
6.17718
1
1
1
1
1
1
1
1
1
1
1
1
1
1
1
1
1
1
1
1
1
1
1
1
1
1
1
1
1
1
1
1
1
1
1.00008
1.38248
5.84558
7.83881
7.66452
7.52447
7.38331
7.23412
7.07433
6.90628
6.73301
6.55714
6.37697
6.19293
1
1
1
1
1
1
1
1
1
1
1
1
1
1
1
1
1
1
1
1
1
1
1
1
1
1
1
1
1
1
1
1
1
1
1
1.01168
2.81477
7.0701
7.60658
7.48288
7.3559
7.20655
7.04922
6.88689
6.72048
6.55157
6.38058
6.20543
1
1
1
1
1
1
1
1
1
1
1
1
1
1
1
1
1
1
1
1
1
1
1
1
1
1
1
1
1
1
1
1
1
1
1
1.00006
1.22646
5.1992
7.61706
7.4971
7.35923
7.19718
7.04212
6.88546
6.72537
6.56126
6.3955
6.22677
1
1
1
1
1
1
1
1
1
1
1
1
1
1
1
1
1
1
1
1
1
1
1
1
1
1
1
1
1
1
1
1
1
1
1
1
1.00449
2.25087
6.59248
7.45707
7.30808
7.16725
7.01968
6.86801
6.71452
6.55794
6.39777
6.23499
1
1
1
1
1
1
1
1
1
1
1
1
1
1
1
1
1
1
1
1
1
1
1
1
1
1
1
1
1
1
1
1
1
1
1
1
1.00002
1.10956
4.16733
7.25162
7.31297
7.17621
7.03102
6.88169
6.73069
6.57807
6.42191
6.26196
1
1
1
1
1
1
1
1
1
1
1
1
1
1
1
1
1
1
1
1
1
1
1
1
1
1
1
1
1
1
1
1
1
1
1
1
1
1.00147
1.67634
5.83479
7.34466
7.1612
7.01579
6.87351
6.73134
6.58588
6.43496
6.27873
1
1
1
1
1
1
1
1
1
1
1
1
1
1
1
1
1
1
1
1
1
1
1
1
1
1
1
1
1
1
1
1
1
1
1
1
1
1.00001
1.03484
2.9703
6.70572
7.13459
7.01425
6.8857
6.74967
6.60546
6.4543
6.29727
1
1
1
1
1
1
1
1
1
1
1
1
1
1
1
1
1
1
1
1
1
1
1
1
1
1
1
1
1
1
1
1
1
1
1
1
1
1
1.00033
1.26267
4.69885
7.07497
7.04944
6.91987
6.77823
6.62803
6.47382
6.31668
1
1
1
1
1
1
1
1
1
1
1
1
1
1
1
1
1
1
1
1
1
1
1
1
1
1
1
1
1
1
1
1
1
1
1
1
1
1
1
1.00652
1.98684
5.91317
7.02923
6.90813
6.76487
6.61939
6.46999
6.32042
1
1
1
1
1
1
1
1
1
1
1
1
1
1
1
1
1
1
1
1
1
1
1
1
1
1
1
1
1
1
1
1
1
1
1
1
1
1
1
1.00004
1.07086
3.2312
6.55121
6.91072
6.7794
6.63739
6.49433
6.34995
1
1
1
1
1
1
1
1
1
1
1
1
1
1
1
1
1
1
1
1
1
1
1
1
1
1
1
1
1
1
1
1
1
1
1
1
1
1
1
1
1.00094
1.33927
4.66407
6.80053
6.81082
6.66945
6.52342
6.37884
1
1
1
1
1
1
1
1
1
1
1
1
1
1
1
1
1
1
1
1
1
1
1
1
1
1
1
1
1
1
1
1
1
1
1
1
1
1
1
1
1
1.01063
2.00303
5.66185
6.77704
6.67712
6.53358
6.3926
1
1
1
1
1
1
1
1
1
1
1
1
1
1
1
1
1
1
1
1
1
1
1
1
1
1
1
1
1
1
1
1
1
1
1
1
1
1
1
1
1
1.00008
1.07397
3.02526
6.25424
6.68346
6.56108
6.41413
1
1
1
1
1
1
1
1
1
1
1
1
1
1
1
1
1
1
1
1
1
1
1
1
1
1
1
1
1
1
1
1
1
1
1
1
1
1
1
1
1
1
1.00107
1.28636
4.22943
6.46096
6.58694
6.45329
1
1
1
1
1
1
1
1
1
1
1
1
1
1
1
1
1
1
1
1
1
1
1
1
1
1
1
1
1
1
1
1
1
1
1
1
1
1
1
1
1
1
1
1.00845
1.76922
5.13383
6.51769
6.47732
1
1
1
1
1
1
1
1
1
1
1
1
1
1
1
1
1
1
1
1
1
1
1
1
1
1
1
1
1
1
1
1
1
1
1
1
1
1
1
1
1
1
1
1.00006
1.04635
2.50671
5.73935
6.45614
1
1
1
1
1
1
1
1
1
1
1
1
1
1
1
1
1
1
1
1
1
1
1
1
1
1
1
1
1
1
1
1
1
1
1
1
1
1
1
1
1
1
1
1
1.0006
1.16447
3.40533
6.07983
1
1
1
1
1
1
1
1
1
1
1
1
1
1
1
1
1
1
1
1
1
1
1
1
1
1
1
1
1
1
1
1
1
1
1
1
1
1
1
1
1
1
1
1
1
1.00365
1.42214
4.30025
1
1
1
1
1
1
1
1
1
1
1
1
1
1
1
1
1
1
1
1
1
1
1
1
1
1
1
1
1
1
1
1
1
1
1
1
1
1
1
1
1
1
1
1
1
1.00002
1.01689
1.86114
1
1
1
1
1
1
1
1
1
1
1
1
1
1
1
1
1
1
1
1
1
1
1
1
1
1
1
1
1
1
1
1
1
1
1
1
1
1
1
1
1
1
1
1
1
1
1.00016
1.05886
1
1
1
1
1
1
1
1
1
1
1
1
1
1
1
1
1
1
1
1
1
1
1
1
1
1
1
1
1
1
1
1
1
1
1
1
1
1
1
1
1
1
1
1
1
1
1
1.00088
1
1
1
1
1
1
1
1
1
1
1
1
1
1
1
1
1
1
1
1
1
1
1
1
1
1
1
1
1
1
1
1
1
1
1
1
1
1
1
1
1
1
1
1
1
1
1
1
1
1
1
1
1
1
1
1
1
1
1
1
1
1
1
1
1
1
1
1
1
1
1
1
1
1
1
1
1
1
1
1
1
1
1
1
1
1
1
1
1
1
1
1
1
1
1
1
1
1
1
1
1
1
1
1
1
1
1
1
1
1
1
1
1
1
1
1
1
1
1
1
1
1
1
1
1
1
1
1
1
1
1
1
1
1
1
1
1
1
1
1
1
1
1
1
1
1
1
1
1
1
1
1
1
1
1
1
1
1
1
1
1
1
1
1
1
1
1
1
1
1
1
1
1
1
1
1
1
1
1
1
1
1
1
1
1
1
1
1
1
1
1
1
1
1
1
1
1
1
1
1
1
1
1
1
1
1
1
1
1
1
1
1
1
1
1
1
1
1
1
1
1
1
1
1
1
1
1
1
1
1
1
1
1
1
1
1
1
1
1
1
1
1
1
1
1
1
1
1
1
1
1
1
1
1
1
1
1
1
1
1
1
1
1
1
1
1
1
1
1
1
1
1
1
1
1
1
1
1
1
1
1
1
1
1
1
1
1
1
1
1
1
1
1
1
1
1
1
1
1
1
1
1
1
1
1
1
1
1
1
1
1
1
1
1
1
1
1
1
1
1
1
1
1
1
1
1
1
1
1
1
1
1
1
1
1
1
1
1
1
1
1
1
1
1
1
1
1
1
1
1
1
1
1
1
1
1
1
1
1
1
1
1
1
1
1
1
1
1
1
1
1
1
1
1
1
1
1
1
1
1
1
1
1
1
1
1
1
1
1
1
1
1
1
1
1
1
1
1
1
1
1
1
1
1
1
1
1
1
1
1
1
1
1
1
1
1
1
1
1
1
1
1
1
1
1
1
1
1
1
1
1
1
1
1
1
1
1
1
1
1
1
1
1
1
1
1
1
1
1
1
1
1
1
1
1
1
1
1
1
1
1
1
1
1
1
1
1
1
1
1
1
1
1
1
1
1
1
1
1
1
1
1
1
1
1
1
1
1
1
1
1
1
1
1
1
1
1
1
1
1
1
1
1
1
1
1
1
1
1
1
1
1
1
1
1
1
1
1
1
1
1
1
1
1
1
1
1
1
1
1
1
1
1
1
1
1
1
1
1
1
1
1
1
1
1
1
1
1
1
1
1
1
1
1
1
1
1
1
1
1
1
1
1
1
1
1
1
1
1
1
1
1
1
1
1
1
1
1
1
1
1
1
1
1
1
1
1
1
1
1
1
1
1
1
1
1
1
1
1
1
1
1
1
1
1
1
1
1
1
1
1
1
1
1
1
1
1
1
1
1
1
1
1
1
1
1
1
1
1
1
1
1
1
1
1
1
1
1
1
1
1
1
1
1
1
1
1
1
1
1
1
1
1
1
1
1
1
1
1
1
1
1
1
1
1
1
1
1
1
1
1
1
1
1
1
1
1
1
1
1
1
1
1
1
1
1
1
1
1
1
1
1
1
1
1
1
1
1
1
1
1
1
1
1
1
1
1
1
1
1
1
1
1
1
1
1
1
1
1
1
1
1
1
1
1
1
1
1
1
1
1
1
1
1
1
1
1
1
1
1
1
1
1
1
1
1
1
1
1
1
1
1
1
1
1
1
1
1
1
1
1
1
1
1
1
1
1
1
1.16127
0.214486
0.123312
0.063919
0.0318969
0.0398551
0.0747584
0.138802
0.197652
0.279168
0.383024
0.470581
0.53248
0.593528
0.654127
0.718251
0.769644
0.819987
0.878003
0.936414
0.98165
1.00045
1.02306
1.03823
1.04108
1.04561
1.0546
1.08206
1.10605
1.1231
1.14857
1.16246
1.16986
1.18282
1.19282
1.19841
1.20982
1.23489
1.24657
1.25158
1.258
1.26088
1.26105
1.25973
1.26366
1.27767
1.30229
1.32652
1.33261
1.33142
1.32675
1.31753
1.31246
1.31363
1.31768
1.33151
1.3487
1.35277
1.35178
1.34469
1.3313
1.32589
1.32643
1.3314
1.34507
1.35487
1.35375
1.34826
1.33025
1.72525
4.9745
6.46581
6.51865
6.56566
6.58974
6.57553
6.53297
6.47894
6.42612
6.37604
6.32525
6.26303
6.18213
6.08312
5.98521
5.9055
5.85136
5.82043
5.79938
5.76884
5.7213
5.66426
5.60613
5.54789
5.48332
5.41211
5.3426
5.28095
5.23378
5.20808
5.19955
5.17028
5.10736
5.03772
4.96441
4.90355
4.85116
4.80886
4.77801
4.74713
4.70531
4.65532
4.60533
4.55865
4.51837
4.4833
4.44699
4.409
4.36787
4.32036
4.26088
4.19487
4.13235
4.07652
4.02879
3.98989
3.95687
3.92987
3.91029
3.89651
3.88817
3.88404
3.87156
3.84498
3.8116
3.7702
3.71729
3.66602
3.62341
3.58332
3.5398
3.49013
3.43983
3.3972
3.36452
3.33871
3.31637
3.30105
3.29855
3.30233
3.29316
3.27218
3.24617
3.20961
3.1582
3.10353
3.06009
3.02464
2.98999
2.95085
2.90745
2.87103
2.84836
2.83274
2.82009
2.81509
2.82333
2.8266
2.81177
2.79063
2.7573
2.70775
2.66275
2.63344
2.61241
2.5945
2.57624
2.55107
2.51531
2.49048
2.47705
2.4651
2.45691
2.44989
2.43846
2.42505
2.4048
2.3667
2.31336
2.27788
2.26506
2.24939
2.15954
0.947409
0.596362
0.417841
0.275009
0.209953
0.215609
0.232773
0.244899
0.255264
0.266161
0.298733
0.343017
0.379887
0.428719
0.491116
0.575508
0.649473
0.708214
0.773267
0.857579
0.938135
0.976108
0.999308
1.02536
1.04224
1.05235
1.07356
1.09081
1.10521
1.12441
1.13703
1.14756
1.16743
1.18562
1.19908
1.21371
1.23266
1.23965
1.24383
1.25053
1.25606
1.25879
1.26
1.26463
1.2749
1.29081
1.30881
1.32079
1.32516
1.32583
1.32365
1.3147
1.3096
1.31069
1.31659
1.33026
1.3441
1.34853
1.34892
1.3446
1.33327
1.326
1.32499
1.32925
1.34048
1.34561
1.34331
1.33671
1.56241
4.76257
6.59665
6.59281
6.57475
6.56529
6.54725
6.50381
6.44723
6.3895
6.33253
6.27779
6.22401
6.16758
6.09997
6.02348
5.94862
5.88322
5.83156
5.79011
5.74776
5.69618
5.64064
5.58952
5.54353
5.49385
5.42908
5.35639
5.28363
5.21992
5.1703
5.13761
5.10255
5.05812
5.0027
4.94492
4.88653
4.8332
4.78729
4.75067
4.71986
4.68048
4.63021
4.57786
4.52703
4.48233
4.44507
4.41467
4.38307
4.34727
4.3087
4.26617
4.21962
4.17046
4.12143
4.07399
4.02897
3.98822
3.95386
3.92639
3.90383
3.88348
3.85967
3.83184
3.80682
3.78247
3.75156
3.71489
3.67631
3.63566
3.59335
3.55007
3.50643
3.46444
3.42457
3.38643
3.35278
3.32689
3.3076
3.29147
3.27261
3.25398
3.23715
3.21747
3.19196
3.1589
3.12124
3.08271
3.04358
3.00512
2.9665
2.92748
2.89086
2.86068
2.83923
2.82467
2.81375
2.80537
2.79863
2.79038
2.77555
2.75253
2.71993
2.68478
2.65199
2.62371
2.59946
2.57574
2.54846
2.51689
2.49037
2.47409
2.46147
2.44972
2.44016
2.43112
2.41877
2.40108
2.3733
2.33647
2.29784
2.27099
2.24672
2.98596
1.82941
1.06838
0.82852
0.645025
0.452616
0.405998
0.400117
0.371481
0.314857
0.318054
0.331038
0.343591
0.368572
0.397686
0.418758
0.442612
0.495717
0.565802
0.628294
0.698835
0.816849
0.894049
0.941816
0.987283
1.03401
1.06062
1.07943
1.09526
1.11796
1.12745
1.13658
1.15256
1.17441
1.19133
1.2059
1.21998
1.2296
1.23341
1.23603
1.24468
1.25602
1.26262
1.26717
1.27435
1.28412
1.29171
1.29804
1.30582
1.3144
1.32226
1.32829
1.3324
1.33436
1.33436
1.33282
1.33025
1.32865
1.33028
1.33499
1.33855
1.34114
1.34276
1.34102
1.33874
1.3365
1.33249
1.33409
1.37439
1.7029
4.25652
6.74783
6.73076
6.58045
6.49766
6.51581
6.5139
6.48732
6.44045
6.36974
6.28727
6.20911
6.1414
6.08286
6.03098
5.98243
5.93508
5.88536
5.83291
5.77961
5.72312
5.6653
5.6111
5.56199
5.51608
5.46282
5.40247
5.34088
5.27502
5.20494
5.1387
5.07673
5.02038
4.97219
4.92758
4.88054
4.83402
4.78976
4.74826
4.71098
4.67284
4.62889
4.58152
4.52976
4.47259
4.41356
4.3634
4.32589
4.29357
4.26387
4.23633
4.20708
4.17282
4.13648
4.10061
4.06738
4.03762
4.00743
3.97083
3.92581
3.87584
3.8319
3.79747
3.76626
3.73612
3.71158
3.6912
3.66629
3.63518
3.59245
3.54468
3.50631
3.47727
3.45144
3.42471
3.39416
3.35717
3.31507
3.27784
3.24961
3.22282
3.19792
3.17522
3.15353
3.1347
3.11636
3.09288
3.05956
3.01944
2.98406
2.95633
2.92951
2.89748
2.86071
2.82831
2.80704
2.78991
2.77151
2.75414
2.73988
2.72773
2.71454
2.69842
2.67866
2.6511
2.61546
2.5789
2.54751
2.51964
2.49351
2.47138
2.45465
2.44161
2.42966
2.41743
2.40371
2.38711
2.36912
2.35073
2.32511
2.28885
2.24513
3.56573
2.50436
1.70635
1.33789
1.06917
0.80341
0.657216
0.625191
0.568219
0.494824
0.486275
0.46925
0.435492
0.433407
0.430099
0.422311
0.427876
0.439457
0.460088
0.484306
0.523565
0.604988
0.714953
0.802782
0.871567
0.931843
0.976478
0.997693
1.02817
1.08017
1.09891
1.11453
1.14136
1.16742
1.19199
1.21267
1.22557
1.23126
1.2284
1.22576
1.23075
1.2424
1.25566
1.2657
1.27823
1.2874
1.2886
1.29081
1.29424
1.29832
1.30252
1.30784
1.31593
1.32706
1.33475
1.33687
1.33677
1.33164
1.32615
1.32648
1.32871
1.33178
1.33662
1.34085
1.34178
1.34192
1.34252
1.37621
1.68791
2.37384
3.38005
5.61652
6.61307
6.73677
6.56715
6.49088
6.43754
6.41377
6.39538
6.35145
6.27366
6.18694
6.11632
6.05869
6.01031
5.9664
5.92419
5.87519
5.81659
5.75387
5.69083
5.63341
5.58498
5.54417
5.50156
5.44995
5.39364
5.33358
5.27101
5.20742
5.14292
5.07856
5.01775
4.96299
4.91302
4.86617
4.82171
4.77934
4.74006
4.70161
4.66377
4.62711
4.5899
4.54811
4.50131
4.44372
4.37599
4.31624
4.27915
4.24971
4.22329
4.19919
4.17542
4.14853
4.11988
4.09279
4.06531
4.03404
3.99708
3.9512
3.89708
3.83944
3.7817
3.73133
3.6973
3.67501
3.66082
3.64276
3.61755
3.58539
3.55008
3.51856
3.49266
3.47054
3.44902
3.42443
3.39242
3.34647
3.28744
3.23108
3.19096
3.16339
3.14179
3.12511
3.11192
3.09675
3.07843
3.05339
3.01858
2.99015
2.97273
2.95572
2.93493
2.90516
2.86163
2.81139
2.77259
2.74772
2.72892
2.71365
2.70407
2.7016
2.69588
2.68294
2.66567
2.63766
2.59761
2.56108
2.53364
2.50769
2.47898
2.45168
2.43177
2.41615
2.40091
2.38581
2.37373
2.36472
2.35495
2.34105
2.3171
2.25483
3.99677
3.09124
2.32888
1.80115
1.47767
1.20128
1.03268
0.93277
0.817957
0.700557
0.651024
0.623987
0.572625
0.535696
0.537707
0.529431
0.501977
0.496892
0.509738
0.511908
0.500101
0.501756
0.522622
0.563902
0.628479
0.714719
0.811987
0.885029
0.943085
1.01652
1.04584
1.06324
1.09364
1.11651
1.1436
1.18042
1.19861
1.20519
1.20709
1.21479
1.22614
1.24325
1.26845
1.29142
1.30231
1.30386
1.30063
1.29306
1.2867
1.2836
1.28415
1.28862
1.30159
1.32544
1.34061
1.34413
1.34536
1.34384
1.33538
1.32569
1.32138
1.32109
1.32379
1.32959
1.33546
1.34407
1.38405
1.65471
2.44332
3.16531
3.25862
3.88486
5.4375
6.44634
6.54974
6.51957
6.4122
6.36679
6.35631
6.34711
6.30146
6.22973
6.13722
6.05613
6.00017
5.95255
5.90906
5.85607
5.79708
5.72591
5.65722
5.60781
5.57415
5.54563
5.5025
5.44903
5.38814
5.32189
5.25412
5.18921
5.12909
5.07259
5.01873
4.96624
4.91494
4.8654
4.81763
4.77047
4.72365
4.68074
4.64263
4.60597
4.57246
4.54076
4.50411
4.46109
4.4019
4.32476
4.26264
4.22805
4.20021
4.17691
4.16122
4.15087
4.13564
4.11214
4.08138
4.04002
3.98732
3.93606
3.88933
3.84408
3.79873
3.75234
3.70535
3.66264
3.629
3.59942
3.57359
3.55368
3.53736
3.52088
3.50347
3.48421
3.46172
3.43506
3.40138
3.3577
3.3038
3.24528
3.19263
3.15445
3.1304
3.11323
3.0982
3.0827
3.06297
3.03302
3.00242
2.98597
2.97291
2.96113
2.94677
2.92821
2.89832
2.84571
2.77985
2.73384
2.71091
2.69659
2.68757
2.68591
2.68233
2.67159
2.6564
2.63426
2.60421
2.57684
2.55459
2.53131
2.50178
2.46371
2.4262
2.40034
2.38247
2.36979
2.36167
2.35578
2.34883
2.33847
2.32277
2.26991
4.34325
3.51474
2.85662
2.31344
1.89586
1.58773
1.38874
1.22831
1.1014
0.979256
0.869382
0.817265
0.769734
0.694108
0.669297
0.666596
0.639287
0.596099
0.585198
0.573548
0.541821
0.530644
0.536551
0.543892
0.553293
0.57378
0.612375
0.665223
0.722038
0.800354
0.890439
0.945555
1.00024
1.05346
1.09847
1.15335
1.17401
1.18164
1.19203
1.19788
1.20526
1.2226
1.25192
1.27623
1.28355
1.28582
1.28605
1.28197
1.28178
1.28277
1.28218
1.28617
1.30233
1.3241
1.33184
1.33382
1.33484
1.33433
1.33008
1.32396
1.31994
1.31936
1.32154
1.33053
1.34143
1.38196
1.64147
2.43639
3.07081
3.35656
3.31776
3.34836
3.88029
5.29073
6.21005
6.4325
6.40995
6.36311
6.31446
6.28206
6.25054
6.19612
6.12137
6.04598
5.98057
5.91946
5.86095
5.80373
5.75021
5.69006
5.62892
5.58038
5.53913
5.49715
5.45369
5.40938
5.36445
5.31643
5.26301
5.20154
5.13768
5.08142
5.0323
4.9852
4.93672
4.88499
4.82945
4.77097
4.71439
4.66857
4.63204
4.59921
4.57462
4.55506
4.52733
4.4904
4.43558
4.35108
4.26271
4.2123
4.18403
4.16198
4.15335
4.15353
4.14045
4.11322
4.07422
4.01272
3.94834
3.90459
3.87412
3.84724
3.82084
3.78903
3.74392
3.67967
3.61267
3.56773
3.54219
3.52421
3.51344
3.50902
3.50143
3.48578
3.46448
3.4314
3.38598
3.34092
3.29959
3.25948
3.2186
3.17695
3.13981
3.11205
3.09089
3.0702
3.04209
3.00919
2.99024
2.97706
2.9659
2.95706
2.94481
2.92852
2.90569
2.86738
2.81286
2.75656
2.71573
2.6941
2.68073
2.67018
2.66219
2.65194
2.63608
2.61659
2.59785
2.58243
2.56751
2.54993
2.52497
2.48642
2.43595
2.39324
2.37223
2.36203
2.35354
2.34497
2.33505
2.32336
2.30794
2.27072
4.62547
3.88051
3.28001
2.76244
2.29233
1.99492
1.76213
1.54149
1.35935
1.24754
1.11495
1.00581
0.964826
0.905926
0.811236
0.782155
0.764956
0.719281
0.685459
0.67624
0.644396
0.611813
0.611043
0.605135
0.594688
0.6005
0.600566
0.59602
0.599021
0.614628
0.661295
0.726507
0.79541
0.887955
0.969915
1.0561
1.10451
1.12753
1.15598
1.16731
1.17505
1.19763
1.23123
1.25382
1.2624
1.26782
1.27097
1.2712
1.27472
1.27837
1.28225
1.28903
1.30349
1.31169
1.31501
1.32045
1.32385
1.32451
1.32066
1.32117
1.32262
1.32253
1.32469
1.33225
1.37102
1.69159
2.38525
3.13276
3.33698
3.35488
3.325
3.28578
3.31197
3.78106
5.04971
6.03649
6.35631
6.35093
6.28361
6.20898
6.17179
6.12043
6.06967
6.0197
5.95609
5.89048
5.83197
5.78196
5.73251
5.68253
5.62887
5.57034
5.51335
5.46496
5.42179
5.38545
5.35281
5.31034
5.26098
5.19922
5.13782
5.09005
5.04632
5.00231
4.95551
4.90279
4.84356
4.7811
4.72265
4.67722
4.64339
4.61805
4.60081
4.57756
4.54259
4.49794
4.43859
4.3679
4.29367
4.23158
4.19539
4.17427
4.16351
4.14984
4.11998
4.07981
4.02438
3.95985
3.91243
3.88588
3.86561
3.85303
3.83651
3.81023
3.77214
3.70708
3.62666
3.56639
3.53327
3.51358
3.50332
3.50522
3.49622
3.47419
3.44374
3.40169
3.35751
3.32526
3.30163
3.27967
3.2543
3.22114
3.17797
3.12999
3.08638
3.04626
3.0103
2.98877
2.97522
2.96233
2.95054
2.94085
2.93032
2.91562
2.89529
2.86736
2.83537
2.79897
2.75512
2.71082
2.68105
2.66285
2.64529
2.62505
2.60889
2.59824
2.59122
2.58252
2.57051
2.55613
2.53391
2.4992
2.45638
2.41284
2.37688
2.35583
2.34453
2.3346
2.32263
2.30779
2.29113
2.26658
4.84789
4.19253
3.64604
3.1392
2.68196
2.37273
2.10275
1.85475
1.6475
1.50914
1.37329
1.20619
1.13633
1.08823
1.00243
0.926935
0.900786
0.859803
0.812315
0.789843
0.760879
0.717946
0.704622
0.693025
0.670102
0.654402
0.642206
0.622121
0.60702
0.610275
0.618306
0.631987
0.651601
0.687246
0.735886
0.791199
0.870807
0.944407
1.01205
1.07884
1.12279
1.16323
1.20432
1.234
1.24533
1.24938
1.2493
1.25026
1.254
1.26302
1.28291
1.30375
1.30966
1.30719
1.29897
1.29531
1.29807
1.30226
1.30705
1.31478
1.32407
1.32686
1.33048
1.36067
1.65915
2.49003
3.06893
3.3312
3.34643
3.33129
3.31107
3.29756
3.29688
3.31543
3.69327
4.81992
5.96701
6.26454
6.27386
6.15627
6.09748
6.05726
6.03265
6.00671
5.94746
5.88187
5.8253
5.77871
5.73458
5.69487
5.64575
5.58343
5.51186
5.45161
5.40323
5.36708
5.33781
5.29567
5.24582
5.18749
5.13355
5.08526
5.03999
4.99618
4.95141
4.90457
4.85511
4.80341
4.75235
4.70463
4.66608
4.63493
4.60342
4.56774
4.52706
4.47961
4.43177
4.38897
4.34553
4.29042
4.22784
4.18267
4.14922
4.11323
4.07295
4.02482
3.97132
3.9239
3.89583
3.87433
3.862
3.8611
3.84849
3.82046
3.78162
3.73025
3.67354
3.61902
3.56878
3.52998
3.50121
3.4728
3.44495
3.41571
3.38257
3.3568
3.33844
3.31965
3.30762
3.29737
3.28038
3.25706
3.22018
3.15983
3.08823
3.03014
2.99529
2.9763
2.96123
2.94969
2.94481
2.93437
2.91879
2.90043
2.87872
2.85987
2.84419
2.82631
2.79979
2.75646
2.69928
2.6506
2.61777
2.59808
2.58777
2.58655
2.58894
2.58336
2.57111
2.55347
2.5278
2.49814
2.47091
2.44355
2.40831
2.3664
2.3342
2.31578
2.30112
2.28644
2.27722
2.26295
5.02168
4.45794
3.95679
3.45149
3.04443
2.71363
2.42093
2.14663
1.934
1.75215
1.60494
1.4449
1.32962
1.25407
1.1701
1.08952
1.03534
0.99107
0.945816
0.910039
0.87316
0.822205
0.799931
0.786844
0.76632
0.740445
0.720576
0.696553
0.671164
0.662555
0.656738
0.655719
0.660024
0.659905
0.658379
0.660212
0.674104
0.710332
0.768378
0.862653
0.967267
1.07436
1.16094
1.21577
1.23319
1.23296
1.22173
1.2107
1.21335
1.23553
1.27958
1.31024
1.31605
1.31635
1.30556
1.28642
1.28325
1.28444
1.2864
1.2974
1.31483
1.32916
1.37287
1.62786
2.51219
3.12959
3.28953
3.30745
3.3153
3.32019
3.31567
3.30175
3.29037
3.28905
3.29932
3.59507
4.61546
5.75975
6.18118
6.1106
6.05085
6.03297
6.02701
5.99923
5.93976
5.87856
5.82966
5.78532
5.74585
5.70948
5.65934
5.60141
5.53497
5.46643
5.40261
5.34486
5.29026
5.24476
5.20422
5.16711
5.12491
5.07719
5.02666
4.97876
4.93678
4.89704
4.85904
4.82223
4.78447
4.74103
4.6875
4.62745
4.57051
4.52534
4.48868
4.4601
4.43152
4.40457
4.37437
4.33167
4.26651
4.1864
4.12705
4.08052
4.03671
3.99285
3.94896
3.92071
3.8985
3.8805
3.8618
3.83917
3.81534
3.79342
3.7682
3.7359
3.70486
3.66952
3.62143
3.55802
3.49597
3.44616
3.40499
3.37088
3.34253
3.32291
3.31236
3.32274
3.33193
3.31979
3.29879
3.27397
3.23638
3.17725
3.10047
3.03855
3.00463
2.98216
2.96295
2.94412
2.92162
2.89614
2.87435
2.85871
2.85126
2.85188
2.84803
2.83596
2.81877
2.78884
2.73009
2.65729
2.6119
2.59013
2.5752
2.56192
2.55245
2.54944
2.54229
2.52926
2.51072
2.49211
2.47773
2.46274
2.43939
2.39717
2.34208
2.30364
2.28531
2.27478
2.27129
2.27186
5.16487
4.67266
4.19165
3.72137
3.35161
3.01064
2.68667
2.41773
2.20238
1.99547
1.81268
1.65942
1.534
1.42873
1.34168
1.26321
1.19075
1.11922
1.06813
1.02754
0.994301
0.94839
0.914413
0.890388
0.859309
0.826966
0.801424
0.772114
0.74275
0.72984
0.721045
0.704773
0.690733
0.681944
0.675621
0.669437
0.664564
0.664947
0.670548
0.69167
0.73888
0.820424
0.919703
1.01084
1.09013
1.12294
1.15644
1.16825
1.17481
1.20595
1.26449
1.303
1.30957
1.31027
1.30236
1.28361
1.27311
1.27395
1.27509
1.28432
1.30329
1.35924
1.67445
2.37355
3.19954
3.33759
3.34909
3.33177
3.30374
3.28816
3.2729
3.26303
3.26767
3.27822
3.29602
3.29679
3.49136
4.32186
5.47828
5.95861
6.02845
6.03981
6.04075
5.99089
5.92328
5.85618
5.81196
5.77152
5.73931
5.70071
5.65509
5.60811
5.55511
5.49257
5.41897
5.33948
5.268
5.2114
5.16928
5.13202
5.09827
5.05644
5.00764
4.95226
4.90657
4.87074
4.84589
4.82501
4.79398
4.75555
4.7032
4.6285
4.55293
4.49673
4.45991
4.43145
4.41611
4.40486
4.37416
4.33545
4.28262
4.20363
4.11829
4.06178
4.02034
3.9858
3.96061
3.94376
3.9242
3.89557
3.85777
3.80802
3.76678
3.74303
3.73066
3.72882
3.71061
3.68332
3.64891
3.59281
3.51236
3.44124
3.39258
3.3561
3.33302
3.31578
3.30179
3.2919
3.28847
3.28518
3.27203
3.25127
3.21957
3.17311
3.12238
3.07664
3.03484
2.99881
2.96947
2.94137
2.91026
2.87924
2.8563
2.84175
2.83251
2.83968
2.84912
2.83707
2.81819
2.79058
2.7466
2.69126
2.63649
2.59523