/*--------------------------------*- C++ -*----------------------------------*\
  =========                 |
  \\      /  F ield         | OpenFOAM: The Open Source CFD Toolbox
   \\    /   O peration     | Website:  https://openfoam.org
    \\  /    A nd           | Version:  7
     \\/     M anipulation  |
\*---------------------------------------------------------------------------*/
FoamFile
{
    version     2.0;
    format      ascii;
    class       volScalarField;
    location    "2.8";
    object      T;
}
// * * * * * * * * * * * * * * * * * * * * * * * * * * * * * * * * * * * * * //

dimensions      [0 0 0 1 0 0 0];

internalField   nonuniform List<scalar> 
16128
(
1
1
1
1
1
1
1
1
1
1
1
1
1
1
1
1
1
1
1
1
1
1
1
1
1.90105
2.67291
2.71082
2.71233
2.71883
2.72679
2.7367
2.74807
2.75956
2.76905
2.77481
2.77706
2.77783
2.77905
2.78224
2.78779
2.79402
2.79876
2.80152
2.80352
2.8064
2.81073
2.81499
2.81727
1
1
1
1
1
1
1
1
1
1
1
1
1
1
1
1
1
1
1
1
1
1
1
1
1.8889
2.66898
2.71087
2.71212
2.71854
2.72652
2.73648
2.74786
2.75931
2.76871
2.77436
2.77652
2.77725
2.77847
2.78167
2.78721
2.79338
2.79802
2.8007
2.80267
2.80554
2.80986
2.81411
2.8164
1
1
1
1
1
1
1
1
1
1
1
1
1
1
1
1
1
1
1
1
1
1
1
1
1.85763
2.66229
2.71015
2.71086
2.71708
2.72519
2.73537
2.74691
2.75842
2.76777
2.77333
2.77542
2.77612
2.77737
2.78065
2.78626
2.79237
2.79689
2.79944
2.80133
2.80417
2.80846
2.81266
2.81493
1
1
1
1
1
1
1
1
1
1
1
1
1
1
1
1
1
1
1
1
1
1
1
1
1.811
2.65059
2.70893
2.70878
2.71447
2.72262
2.73309
2.74493
2.75668
2.76618
2.7718
2.77388
2.77455
2.77578
2.77909
2.78472
2.79081
2.79523
2.79769
2.79951
2.80228
2.8065
2.8106
2.81278
1
1
1
1
1
1
1
1
1
1
1
1
1
1
1
1
1
1
1
1
1
1
1
1
1.74874
2.63244
2.70711
2.70618
2.71106
2.71862
2.72905
2.74121
2.75342
2.76338
2.76934
2.77158
2.77226
2.77347
2.77673
2.78236
2.78846
2.79289
2.79533
2.79713
2.79988
2.80406
2.80805
2.81017
1
1
1
1
1
1
1
1
1
1
1
1
1
1
1
1
1
1
1
1
1
1
1
1
1.66687
2.60573
2.70527
2.70389
2.70795
2.71439
2.72412
2.73617
2.74873
2.75927
2.76581
2.76839
2.76915
2.7703
2.77343
2.77899
2.78518
2.78975
2.79228
2.79411
2.79685
2.80093
2.80475
2.80679
1
1
1
1
1
1
1
1
1
1
1
1
1
1
1
1
1
1
1
1
1
1
1
1
1.56645
2.57086
2.70289
2.70149
2.70511
2.71034
2.71881
2.73017
2.7428
2.75395
2.76128
2.76444
2.76542
2.76654
2.76949
2.77489
2.78109
2.78581
2.78844
2.79029
2.79299
2.79699
2.80071
2.80274
1
1
1
1
1
1
1
1
1
1
1
1
1
1
1
1
1
1
1
1
1
1
1
1
1.44582
2.52318
2.69944
2.69849
2.70241
2.70682
2.71389
2.72395
2.73599
2.74743
2.75561
2.75962
2.76103
2.76221
2.7649
2.76996
2.77606
2.78089
2.78367
2.78555
2.78821
2.79208
2.79562
2.79756
1
1
1
1
1
1
1
1
1
1
1
1
1
1
1
1
1
1
1
1
1
1
1
1
1.29763
2.4538
2.69263
2.69333
2.69874
2.7031
2.7092
2.71769
2.7285
2.7397
2.74862
2.75375
2.75588
2.75722
2.75968
2.76427
2.77006
2.77487
2.77775
2.77964
2.78228
2.78603
2.78947
2.79141
1
1
1
1
1
1
1
1
1
1
1
1
1
1
1
1
1
1
1
1
1
1
1
1
1.13345
2.37546
2.68791
2.6872
2.69371
2.6986
2.7043
2.71153
2.7208
2.73109
2.74031
2.74654
2.74964
2.75135
2.75362
2.75766
2.76302
2.76777
2.77079
2.77272
2.77521
2.7786
2.78165
2.78331
1
1
1
1
1
1
1
1
1
1
1
1
1
1
1
1
1
1
1
1
1
1
1
1
1.00667
2.29494
2.67813
2.6816
2.68874
2.6946
2.7002
2.7062
2.71359
2.72247
2.73141
2.73842
2.7425
2.74465
2.74675
2.75015
2.75485
2.75926
2.76212
2.76387
2.76601
2.76901
2.77194
2.77369
1
1
1
1
1
1
1
1
1
1
1
1
1
1
1
1
1
1
1
1
1
1
1
1
1.00003
2.18693
2.67255
2.68206
2.68885
2.69479
2.69957
2.70414
2.7093
2.71561
2.72287
2.7297
2.73444
2.73699
2.73885
2.74148
2.74536
2.7493
2.75205
2.75372
2.75535
2.75738
2.75932
2.76005
1
1
1
1
1
1
1
1
1
1
1
1
1
1
1
1
1
1
1
1
1
1
1
1
1
2.0414
2.65279
2.67991
2.6869
2.69308
2.6972
2.70056
2.70408
2.70871
2.71459
2.72066
2.72541
2.72811
2.72963
2.73147
2.73444
2.73771
2.73977
2.74033
2.74032
2.74116
2.74209
2.74331
1
1
1
1
1
1
1
1
1
1
1
1
1
1
1
1
1
1
1
1
1
1
1
1
1
1.85548
2.60687
2.6696
2.6807
2.68883
2.69407
2.69751
2.70035
2.70366
2.70779
2.71242
2.71648
2.71876
2.71954
2.72043
2.72216
2.72383
2.72475
2.72434
2.72329
2.72274
2.72026
2.71516
1
1
1
1
1
1
1
1
1
1
1
1
1
1
1
1
1
1
1
1
1
1
1
1
1
1.61751
2.51952
2.64737
2.6651
2.67706
2.68518
2.69071
2.6946
2.6981
2.70174
2.70534
2.70805
2.7092
2.709
2.7086
2.7083
2.70811
2.7074
2.70503
2.70012
2.69253
2.68394
2.67612
1
1
1
1
1
1
1
1
1
1
1
1
1
1
1
1
1
1
1
1
1
1
1
1
1
1.29574
2.40127
2.63278
2.64337
2.65878
2.67034
2.67868
2.68472
2.6896
2.69391
2.69746
2.69945
2.69956
2.69853
2.69638
2.69373
2.69097
2.68723
2.68112
2.67147
2.65926
2.64992
2.65434
1
1
1
1
1
1
1
1
1
1
1
1
1
1
1
1
1
1
1
1
1
1
1
1
1
1.02566
2.29227
2.63735
2.63516
2.64072
2.65029
2.66028
2.66903
2.67642
2.68252
2.68698
2.68921
2.68888
2.68699
2.68348
2.67861
2.67282
2.6655
2.65545
2.63923
2.61171
2.55156
2.4328
1
1
1
1
1
1
1
1
1
1
1
1
1
1
1
1
1
1
1
1
1
1
1
1
1
1.00013
2.13821
2.61726
2.61901
2.62448
2.632
2.64096
2.65034
2.65936
2.66689
2.67294
2.67638
2.67626
2.67413
2.66976
2.66307
2.6543
2.64287
2.62684
2.60144
2.55513
2.48264
2.29785
1
1
1
1
1
1
1
1
1
1
1
1
1
1
1
1
1
1
1
1
1
1
1
1
1
0.999999
1.90916
2.58941
2.61905
2.62485
2.62914
2.6319
2.63642
2.64293
2.64933
2.65576
2.66031
2.6611
2.65923
2.65452
2.64664
2.63537
2.62011
2.59832
2.56536
2.51176
2.41887
2.22157
1
1
1
1
1
1
1
1
1
1
1
1
1
1
1
1
1
1
1
1
1
1
1
1
1
1
1.56155
2.48224
2.60992
2.61959
2.62458
2.62599
2.62789
2.631
2.63437
2.63857
2.64235
2.64352
2.64198
2.63741
2.629
2.61615
2.59772
2.57189
2.53259
2.47696
2.37105
2.20394
1
1
1
1
1
1
1
1
1
1
1
1
1
1
1
1
1
1
1
1
1
1
1
1
1
1
1.1342
2.33871
2.61085
2.61046
2.61544
2.61899
2.62074
2.62158
2.62176
2.62268
2.6241
2.62444
2.62288
2.61842
2.60987
2.59639
2.57614
2.54774
2.50574
2.44838
2.34573
2.21037
1
1
1
1
1
1
1
1
1
1
1
1
1
1
1
1
1
1
1
1
1
1
1
1
1
1
1.00451
2.19365
2.58035
2.5874
2.59757
2.60585
2.61056
2.61199
2.61106
2.60968
2.60811
2.60614
2.60305
2.59787
2.58909
2.57554
2.55511
2.52569
2.48355
2.42648
2.33418
2.22497
1
1
1
1
1
1
1
1
1
1
1
1
1
1
1
1
1
1
1
1
1
1
1
1
1
1
0.999986
1.92224
2.54078
2.57458
2.58546
2.59358
2.59918
2.60173
2.60105
2.59889
2.59533
2.59074
2.58511
2.57799
2.56806
2.55405
2.53396
2.50516
2.46476
2.41003
2.32965
2.24039
1
1
1
1
1
1
1
1
1
1
1
1
1
1
1
1
1
1
1
1
1
1
1
1
1
1
0.999996
1.49272
2.42919
2.56296
2.56992
2.57871
2.58474
2.58839
2.58872
2.58714
2.58326
2.5773
2.56939
2.55983
2.5479
2.53275
2.51273
2.48527
2.4477
2.39679
2.32759
2.25347
1
1
1
1
1
1
1
1
1
1
1
1
1
1
1
1
1
1
1
1
1
1
1
1
1
1
0.999999
1.06649
2.27284
2.56499
2.55929
2.56216
2.56748
2.57175
2.57386
2.57329
2.57036
2.56458
2.55578
2.54445
2.53044
2.51337
2.49264
2.46574
2.43094
2.38483
2.32605
2.26349
1
1
1
1
1
1
1
1
1
1
1
1
1
1
1
1
1
1
1
1
1
1
1
1
1
1
1
1.00092
2.05298
2.52371
2.53837
2.54733
2.55129
2.55408
2.55665
2.55711
2.55537
2.55066
2.54245
2.53062
2.51562
2.49693
2.47505
2.44762
2.41475
2.37308
2.32362
2.26919
1
1
1
1
1
1
1
1
1
1
1
1
1
1
1
1
1
1
1
1
1
1
1
1
1
1
1
0.999994
1.61023
2.42855
2.5322
2.53414
2.53718
2.53914
2.54058
2.54049
2.53903
2.53522
2.52811
2.51704
2.50205
2.48299
2.46005
2.43211
2.40013
2.36191
2.31959
2.27075
1
1
1
1
1
1
1
1
1
1
1
1
1
1
1
1
1
1
1
1
1
1
1
1
1
1
1
0.999998
1.10173
2.2696
2.52984
2.5219
2.52268
2.52411
2.52392
2.52328
2.5216
2.51819
2.51221
2.50245
2.48852
2.47032
2.44717
2.41983
2.38838
2.3526
2.31436
2.26998
1
1
1
1
1
1
1
1
1
1
1
1
1
1
1
1
1
1
1
1
1
1
1
1
1
1
1
1
1.00232
2.04074
2.48506
2.49896
2.50906
2.50896
2.50843
2.50705
2.50463
2.50085
2.49512
2.48637
2.47399
2.45721
2.43534
2.40938
2.37911
2.34575
2.30981
2.26929
1
1
1
1
1
1
1
1
1
1
1
1
1
1
1
1
1
1
1
1
1
1
1
1
1
1
1
1
0.999989
1.54343
2.38267
2.48374
2.49479
2.49639
2.4954
2.49335
2.4898
2.48483
2.47824
2.46961
2.45806
2.44302
2.42326
2.39946
2.37127
2.34047
2.30618
2.26889
1
1
1
1
1
1
1
1
1
1
1
1
1
1
1
1
1
1
1
1
1
1
1
1
1
1
1
1
0.999997
1.07575
2.20905
2.47863
2.47808
2.48059
2.48026
2.47852
2.47461
2.46881
2.46148
2.45259
2.44152
2.42784
2.41056
2.38925
2.3639
2.33565
2.30333
2.26905
1
1
1
1
1
1
1
1
1
1
1
1
1
1
1
1
1
1
1
1
1
1
1
1
1
1
1
1
0.999999
1.0011
1.85764
2.41907
2.45629
2.46066
2.46379
2.46335
2.45975
2.45362
2.44582
2.43657
2.42568
2.41244
2.39688
2.37789
2.3556
2.32979
2.3002
2.26871
1
1
1
1
1
1
1
1
1
1
1
1
1
1
1
1
1
1
1
1
1
1
1
1
1
1
1
1
1
0.999997
1.22782
2.27489
2.45912
2.44921
2.44929
2.44763
2.44325
2.43742
2.43023
2.42145
2.41086
2.39823
2.3836
2.36622
2.34604
2.3226
2.29631
2.26742
1
1
1
1
1
1
1
1
1
1
1
1
1
1
1
1
1
1
1
1
1
1
1
1
1
1
1
1
1
0.999999
1.01169
2.07674
2.42586
2.42924
2.4303
2.42791
2.42402
2.41974
2.41411
2.4064
2.39649
2.3845
2.37061
2.35437
2.33564
2.31421
2.2908
2.26448
1
1
1
1
1
1
1
1
1
1
1
1
1
1
1
1
1
1
1
1
1
1
1
1
1
1
1
1
1
1
1.00001
1.54423
2.32888
2.42028
2.41698
2.41214
2.40851
2.40497
2.39984
2.39259
2.38323
2.3718
2.35834
2.34278
2.32514
2.30539
2.28403
2.26011
1
1
1
1
1
1
1
1
1
1
1
1
1
1
1
1
1
1
1
1
1
1
1
1
1
1
1
1
1
1
0.999998
1.07352
2.14992
2.41062
2.40235
2.39752
2.39432
2.39082
2.38557
2.3785
2.3696
2.35874
2.34581
2.33095
2.31432
2.29595
2.27611
2.25432
1
1
1
1
1
1
1
1
1
1
1
1
1
1
1
1
1
1
1
1
1
1
1
1
1
1
1
1
1
1
0.999999
1.00101
1.70551
2.32493
2.38471
2.38313
2.38172
2.37838
2.37283
2.36554
2.35677
2.34619
2.33381
2.31975
2.30403
2.28663
2.26791
2.24767
1
1
1
1
1
1
1
1
1
1
1
1
1
1
1
1
1
1
1
1
1
1
1
1
1
1
1
1
1
1
1
1
1.14054
2.15503
2.38105
2.37428
2.37108
2.36628
2.35981
2.35207
2.3432
2.33296
2.32118
2.3079
2.29314
2.27678
2.25916
2.24026
1
1
1
1
1
1
1
1
1
1
1
1
1
1
1
1
1
1
1
1
1
1
1
1
1
1
1
1
1
1
1
1
1.00404
1.76743
2.30929
2.35741
2.35501
2.35134
2.34607
2.33918
2.33057
2.32062
2.30935
2.2967
2.28272
2.2673
2.25059
2.23278
1
1
1
1
1
1
1
1
1
1
1
1
1
1
1
1
1
1
1
1
1
1
1
1
1
1
1
1
1
1
1
1
1.00001
1.18024
2.13641
2.35095
2.34456
2.3404
2.33509
2.328
2.31925
2.30903
2.29771
2.28539
2.27207
2.25757
2.24185
2.22511
1
1
1
1
1
1
1
1
1
1
1
1
1
1
1
1
1
1
1
1
1
1
1
1
1
1
1
1
1
1
1
1
1
1.00678
1.76086
2.27825
2.32938
2.32622
2.32153
2.31496
2.30672
2.29707
2.28635
2.27471
2.2621
2.2484
2.23361
2.21781
1
1
1
1
1
1
1
1
1
1
1
1
1
1
1
1
1
1
1
1
1
1
1
1
1
1
1
1
1
1
1
1
1
1.00002
1.18375
2.098
2.31682
2.31399
2.30951
2.30295
2.29514
2.28644
2.27665
2.26557
2.25329
2.23994
2.2257
2.21062
1
1
1
1
1
1
1
1
1
1
1
1
1
1
1
1
1
1
1
1
1
1
1
1
1
1
1
1
1
1
1
1
1
1
1.00708
1.68174
2.23113
2.30042
2.29329
2.28748
2.28132
2.27428
2.26581
2.25568
2.24417
2.23156
2.21796
2.20355
1
1
1
1
1
1
1
1
1
1
1
1
1
1
1
1
1
1
1
1
1
1
1
1
1
1
1
1
1
1
1
1
1
1
1.00003
1.14498
2.04458
2.28707
2.27778
2.27403
2.26965
2.26365
2.25581
2.24635
2.23555
2.22372
2.21083
2.19698
1
1
1
1
1
1
1
1
1
1
1
1
1
1
1
1
1
1
1
1
1
1
1
1
1
1
1
1
1
1
1
1
1
1
1
1.00441
1.55009
2.16857
2.26085
2.25584
2.2533
2.24869
2.24232
2.23435
2.22494
2.21436
2.20276
2.19005
1
1
1
1
1
1
1
1
1
1
1
1
1
1
1
1
1
1
1
1
1
1
1
1
1
1
1
1
1
1
1
1
1
1
1
1.00002
1.08668
1.95901
2.25046
2.24502
2.23992
2.23392
2.22849
2.22214
2.21443
2.20527
2.19494
2.18346
1
1
1
1
1
1
1
1
1
1
1
1
1
1
1
1
1
1
1
1
1
1
1
1
1
1
1
1
1
1
1
1
1
1
1
1
1.00165
1.41139
2.10871
2.2315
2.22308
2.21793
2.21275
2.20711
2.20076
2.19328
2.18449
2.1745
1
1
1
1
1
1
1
1
1
1
1
1
1
1
1
1
1
1
1
1
1
1
1
1
1
1
1
1
1
1
1
1
1
1
1
1
1.00001
1.04206
1.80344
2.19173
2.21664
2.2091
2.20231
2.19588
2.18948
2.18268
2.17497
2.1661
1
1
1
1
1
1
1
1
1
1
1
1
1
1
1
1
1
1
1
1
1
1
1
1
1
1
1
1
1
1
1
1
1
1
1
1
1
1.00051
1.24355
2.01288
2.20519
2.19474
2.18915
2.18341
2.17744
2.17103
2.16387
2.15574
1
1
1
1
1
1
1
1
1
1
1
1
1
1
1
1
1
1
1
1
1
1
1
1
1
1
1
1
1
1
1
1
1
1
1
1
1
1
1.01315
1.57069
2.1062
2.18357
2.17724
2.17244
2.16713
2.1608
2.15351
2.14533
1
1
1
1
1
1
1
1
1
1
1
1
1
1
1
1
1
1
1
1
1
1
1
1
1
1
1
1
1
1
1
1
1
1
1
1
1
1
1.0001
1.09944
1.86326
2.16252
2.16931
2.16412
2.158
2.15099
2.14334
2.1351
1
1
1
1
1
1
1
1
1
1
1
1
1
1
1
1
1
1
1
1
1
1
1
1
1
1
1
1
1
1
1
1
1
1
1
1
1
1
1
1.00234
1.33179
2.00554
2.15531
2.14991
2.14426
2.13817
2.13118
2.12366
1
1
1
1
1
1
1
1
1
1
1
1
1
1
1
1
1
1
1
1
1
1
1
1
1
1
1
1
1
1
1
1
1
1
1
1
1
1
1
1.00001
1.02677
1.61521
2.07716
2.14167
2.13395
2.12759
2.1214
2.11467
1
1
1
1
1
1
1
1
1
1
1
1
1
1
1
1
1
1
1
1
1
1
1
1
1
1
1
1
1
1
1
1
1
1
1
1
1
1
1
1
1.00031
1.12665
1.8443
2.11443
2.12739
2.11991
2.11268
2.1057
1
1
1
1
1
1
1
1
1
1
1
1
1
1
1
1
1
1
1
1
1
1
1
1
1
1
1
1
1
1
1
1
1
1
1
1
1
1
1
1
1
1.00382
1.3328
1.96024
2.11212
2.10806
2.10144
2.0951
1
1
1
1
1
1
1
1
1
1
1
1
1
1
1
1
1
1
1
1
1
1
1
1
1
1
1
1
1
1
1
1
1
1
1
1
1
1
1
1
1
1.00002
1.02777
1.5658
2.0285
2.09926
2.09196
2.08458
1
1
1
1
1
1
1
1
1
1
1
1
1
1
1
1
1
1
1
1
1
1
1
1
1
1
1
1
1
1
1
1
1
1
1
1
1
1
1
1
1
1
1.00034
1.10681
1.77157
2.0558
2.08831
2.07895
1
1
1
1
1
1
1
1
1
1
1
1
1
1
1
1
1
1
1
1
1
1
1
1
1
1
1
1
1
1
1
1
1
1
1
1
1
1
1
1
1
1
1
1.00297
1.2646
1.88197
2.06859
2.06996
1
1
1
1
1
1
1
1
1
1
1
1
1
1
1
1
1
1
1
1
1
1
1
1
1
1
1
1
1
1
1
1
1
1
1
1
1
1
1
1
1
1
1
1.00002
1.01714
1.44929
1.95387
2.05758
1
1
1
1
1
1
1
1
1
1
1
1
1
1
1
1
1
1
1
1
1
1
1
1
1
1
1
1
1
1
1
1
1
1
1
1
1
1
1
1
1
1
1
1
1.00019
1.06148
1.6263
1.99493
1
1
1
1
1
1
1
1
1
1
1
1
1
1
1
1
1
1
1
1
1
1
1
1
1
1
1
1
1
1
1
1
1
1
1
1
1
1
1
1
1
1
1
1
1
1.00123
1.15293
1.76599
1
1
1
1
1
1
1
1
1
1
1
1
1
1
1
1
1
1
1
1
1
1
1
1
1
1
1
1
1
1
1
1
1
1
1
1
1
1
1
1
1
1
1
1
1
1.00001
1.00601
1.28708
1
1
1
1
1
1
1
1
1
1
1
1
1
1
1
1
1
1
1
1
1
1
1
1
1
1
1
1
1
1
1
1
1
1
1
1
1
1
1
1
1
1
1
1
1
1
1.00005
1.02164
1
1
1
1
1
1
1
1
1
1
1
1
1
1
1
1
1
1
1
1
1
1
1
1
1
1
1
1
1
1
1
1
1
1
1
1
1
1
1
1
1
1
1
1
1
1
1
1.00028
1
1
1
1
1
1
1
1
1
1
1
1
1
1
1
1
1
1
1
1
1
1
1
1
1
1
1
1
1
1
1
1
1
1
1
1
1
1
1
1
1
1
1
1
1
1
1
1
1
1
1
1
1
1
1
1
1
1
1
1
1
1
1
1
1
1
1
1
1
1
1
1
1
1
1
1
1
1
1
1
1
1
1
1
1
1
1
1
1
1
1
1
1
1
1
1
1
1
1
1
1
1
1
1
1
1
1
1
1
1
1
1
1
1
1
1
1
1
1
1
1
1
1
1
1
1
1
1
1
1
1
1
1
1
1
1
1
1
1
1
1
1
1
1
1
1
1
1
1
1
1
1
1
1
1
1
1
1
1
1
1
1
1
1
1
1
1
1
1
1
1
1
1
1
1
1
1
1
1
1
1
1
1
1
1
1
1
1
1
1
1
1
1
1
1
1
1
1
1
1
1
1
1
1
1
1
1
1
1
1
1
1
1
1
1
1
1
1
1
1
1
1
1
1
1
1
1
1
1
1
1
1
1
1
1
1
1
1
1
1
1
1
1
1
1
1
1
1
1
1
1
1
1
1
1
1
1
1
1
1
1
1
1
1
1
1
1
1
1
1
1
1
1
1
1
1
1
1
1
1
1
1
1
1
1
1
1
1
1
1
1
1
1
1
1
1
1
1
1
1
1
1
1
1
1
1
1
1
1
1
1
1
1
1
1
1
1
1
1
1
1
1
1
1
1
1
1
1
1
1
1
1
1
1
1
1
1
1
1
1
1
1
1
1
1
1
1
1
1
1
1
1
1
1
1
1
1
1
1
1
1
1
1
1
1
1
1
1
1
1
1
1
1
1
1
1
1
1
1
1
1
1
1
1
1
1
1
1
1
1
1
1
1
1
1
1
1
1
1
1
1
1
1
1
1
1
1
1
1
1
1
1
1
1
1
1
1
1
1
1
1
1
1
1
1
1
1
1
1
1
1
1
1
1
1
1
1
1
1
1
1
1
1
1
1
1
1
1
1
1
1
1
1
1
1
1
1
1
1
1
1
1
1
1
1
1
1
1
1
1
1
1
1
1
1
1
1
1
1
1
1
1
1
1
1
1
1
1
1
1
1
1
1
1
1
1
1
1
1
1
1
1
1
1
1
1
1
1
1
1
1
1
1
1
1
1
1
1
1
1
1
1
1
1
1
1
1
1
1
1
1
1
1
1
1
1
1
1
1
1
1
1
1
1
1
1
1
1
1
1
1
1
1
1
1
1
1
1
1
1
1
1
1
1
1
1
1
1
1
1
1
1
1
1
1
1
1
1
1
1
1
1
1
1
1
1
1
1
1
1
1
1
1
1
1
1
1
1
1
1
1
1
1
1
1
1
1
1
1
1
1
1
1
1
1
1
1
1
1
1
1
1
1
1
1
1
1
1
1
1
1
1
1
1
1
1
1
1
1
1
1
1
1
1
1
1
1
1
1
1
1
1
1
1
1
1
1
1
1
1
1
1
1
1
1
1
1
1
1
1
1
1
1
1
1
1
1
1
1
1
1
1
1
1
1
1
1
1
1
1
1
1
1
1
1
1
1
1
1
1
1
1
1
1
1
1
1
1
1
1
1
1
1
1
1
1
1
1
1
1
1
1
1
1
1
1
1
1
1
1
1
1
1
1
1
1
1
1
1
1
1
1
1
1
1
1
1
1
1
1
1
1
1
1
1
1
1
1
1
1
1
1
1
1
1
1
1
1
1.54448
0.923929
0.919951
0.938451
0.908113
0.948311
1.04657
1.12696
1.16779
1.24013
1.37217
1.48864
1.51816
1.52197
1.52136
1.52464
1.53152
1.55153
1.59073
1.62774
1.632
1.62616
1.62251
1.61834
1.61619
1.61881
1.62934
1.65566
1.66362
1.65747
1.65335
1.65381
1.66059
1.67903
1.6886
1.68639
1.67862
1.67564
1.67573
1.67811
1.68296
1.68316
1.67966
1.67118
1.6654
1.6655
1.67068
1.67801
1.6788
1.67681
1.67167
1.66477
1.66163
1.66189
1.66441
1.6726
1.68178
1.68452
1.68462
1.68262
1.6779
1.67616
1.67649
1.67833
1.68258
1.68459
1.68275
1.67777
1.66729
1.86424
2.65751
2.87847
2.8695
2.85543
2.83622
2.81813
2.80323
2.79104
2.78036
2.76819
2.75234
2.73176
2.70777
2.68356
2.66286
2.64672
2.63451
2.62507
2.61651
2.60619
2.5939
2.58142
2.57012
2.55985
2.5494
2.53839
2.52756
2.51734
2.50836
2.50146
2.49646
2.48786
2.47546
2.46339
2.45179
2.44252
2.4345
2.4274
2.4211
2.41379
2.40386
2.39245
2.38177
2.37294
2.36649
2.36175
2.35711
2.35178
2.34494
2.33585
2.32389
2.31067
2.29843
2.2879
2.27932
2.27253
2.26656
2.26101
2.25592
2.25096
2.24648
2.24273
2.23751
2.23088
2.22431
2.21709
2.2082
2.19952
2.19202
2.18463
2.1765
2.16747
2.1586
2.15111
2.14525
2.14034
2.13564
2.13185
2.13045
2.12986
2.12636
2.1211
2.11567
2.10878
2.0996
2.09025
2.08294
2.07696
2.07105
2.06428
2.05661
2.05018
2.04638
2.04371
2.04121
2.03999
2.04113
2.04087
2.03629
2.03075
2.02316
2.01282
2.00374
1.99801
1.99415
1.991
1.9876
1.98237
1.97431
1.96842
1.96518
1.96245
1.96083
1.9597
1.95801
1.95634
1.95339
1.94631
1.93502
1.92707
1.92427
1.92025
1.81215
1.45638
1.28425
1.20772
1.17389
1.14712
1.11549
1.06847
1.05678
1.07432
1.10821
1.17115
1.22148
1.23442
1.2502
1.27819
1.32623
1.37359
1.4164
1.45653
1.49542
1.53202
1.54811
1.55514
1.56304
1.56998
1.58017
1.60053
1.60641
1.60361
1.60396
1.60737
1.61607
1.63507
1.64747
1.64765
1.6444
1.64417
1.64456
1.64712
1.65218
1.65346
1.65167
1.64691
1.64441
1.64476
1.64788
1.65254
1.6546
1.65439
1.6528
1.65023
1.64638
1.64533
1.64674
1.65111
1.65819
1.66472
1.66743
1.66791
1.66685
1.66351
1.66151
1.66129
1.66258
1.66533
1.66562
1.66329
1.65764
1.76189
2.5614
2.83328
2.82344
2.80515
2.78586
2.76852
2.75344
2.74229
2.73414
2.72501
2.7125
2.69623
2.67758
2.65831
2.64077
2.62607
2.61377
2.60314
2.59317
2.58251
2.57074
2.55931
2.54959
2.54147
2.53344
2.52374
2.51297
2.50186
2.49133
2.48189
2.47411
2.46579
2.45662
2.44675
2.43738
2.42857
2.42072
2.41361
2.40706
2.40039
2.39155
2.38066
2.3698
2.36014
2.35264
2.34738
2.34376
2.33983
2.33448
2.32758
2.31899
2.30916
2.29897
2.28934
2.2806
2.27264
2.26537
2.25878
2.25265
2.2465
2.24015
2.23323
2.22623
2.22049
2.21551
2.20998
2.20389
2.19743
2.19042
2.18287
2.17499
2.16706
2.15947
2.15228
2.14535
2.13902
2.1337
2.1292
2.12518
2.12061
2.11611
2.11214
2.10792
2.103
2.09713
2.09079
2.08447
2.07807
2.07162
2.0649
2.05797
2.05155
2.04632
2.04245
2.03965
2.03734
2.03521
2.03303
2.03017
2.02587
2.0202
2.01308
2.0059
1.99964
1.99457
1.99016
1.98558
1.97991
1.97288
1.96664
1.9627
1.95975
1.95727
1.95574
1.95472
1.95324
1.95068
1.94569
1.93815
1.92994
1.9241
1.91808
1.93118
1.70841
1.46971
1.39415
1.32699
1.22334
1.1659
1.14543
1.11174
1.06105
1.06575
1.07562
1.08361
1.10138
1.12569
1.13856
1.15165
1.18756
1.23462
1.27286
1.313
1.3775
1.42122
1.44652
1.46651
1.4864
1.50245
1.5155
1.52305
1.52937
1.53286
1.53811
1.54819
1.56231
1.56933
1.57076
1.57268
1.57645
1.58004
1.58317
1.58827
1.59103
1.59093
1.59127
1.59474
1.60003
1.60225
1.60252
1.60284
1.60395
1.60618
1.60922
1.61239
1.61435
1.61505
1.61512
1.61504
1.61582
1.61816
1.62144
1.62371
1.62548
1.62679
1.62671
1.62626
1.62523
1.62376
1.62416
1.63876
1.74893
2.34828
2.7115
2.70481
2.68077
2.66456
2.6564
2.64759
2.64245
2.63961
2.63494
2.62658
2.61434
2.59963
2.58469
2.57188
2.56196
2.5541
2.5465
2.53804
2.52885
2.5192
2.50985
2.5016
2.49455
2.48825
2.48105
2.47287
2.46447
2.4554
2.44537
2.43538
2.42578
2.41666
2.40855
2.40126
2.39431
2.38797
2.38212
2.37631
2.3704
2.36362
2.35529
2.34611
2.33651
2.32694
2.31826
2.31185
2.30759
2.30376
2.29956
2.29467
2.28852
2.28103
2.27337
2.26627
2.26004
2.2546
2.2491
2.24223
2.23344
2.22324
2.21373
2.20623
2.19999
2.19455
2.19041
2.1871
2.18301
2.17786
2.17067
2.16247
2.15569
2.15037
2.14566
2.14075
2.13499
2.12783
2.11939
2.11144
2.10527
2.09989
2.09507
2.09086
2.08719
2.08433
2.0816
2.07812
2.0729
2.06625
2.06023
2.0556
2.05119
2.04567
2.0389
2.03252
2.02789
2.02398
2.01965
2.01522
2.01143
2.0084
2.00537
2.00214
1.99868
1.99377
1.98702
1.97979
1.97325
1.96711
1.96109
1.95585
1.95196
1.94926
1.94728
1.94559
1.94378
1.94141
1.93852
1.93533
1.93057
1.92292
1.91251
1.99907
1.82024
1.63757
1.54588
1.46501
1.36302
1.28935
1.26986
1.22967
1.17432
1.16102
1.14472
1.12056
1.12065
1.11829
1.11203
1.11591
1.12303
1.13537
1.15133
1.17535
1.22579
1.28845
1.33274
1.3619
1.3862
1.40686
1.41789
1.43143
1.45213
1.46206
1.47105
1.48448
1.49524
1.50162
1.50573
1.51061
1.51625
1.51891
1.52081
1.52327
1.52501
1.52686
1.53089
1.53968
1.54733
1.54852
1.54866
1.54808
1.54793
1.54899
1.55251
1.55828
1.56369
1.56557
1.56583
1.56585
1.56485
1.5647
1.56639
1.56888
1.57118
1.57342
1.57508
1.57617
1.57657
1.57831
1.59242
1.69682
1.87949
2.07716
2.42612
2.5423
2.57707
2.55751
2.54177
2.52935
2.52653
2.52814
2.52791
2.52399
2.51576
2.50559
2.49483
2.48524
2.47769
2.47189
2.46614
2.45929
2.45174
2.44413
2.43738
2.43189
2.42744
2.42271
2.41654
2.40947
2.40203
2.39479
2.38797
2.38118
2.37387
2.36605
2.35826
2.35091
2.34429
2.33859
2.33374
2.32956
2.32534
2.32067
2.31537
2.3092
2.30191
2.29411
2.28557
2.27651
2.26935
2.26562
2.2625
2.25903
2.25499
2.25028
2.24471
2.23892
2.23382
2.22909
2.22402
2.21812
2.21063
2.20145
2.19128
2.18084
2.17175
2.16581
2.16216
2.15994
2.15714
2.15321
2.14812
2.14245
2.13733
2.13313
2.12954
2.1259
2.12149
2.1156
2.10712
2.09602
2.08521
2.07747
2.07244
2.06888
2.06649
2.06486
2.06291
2.06039
2.05652
2.05077
2.04637
2.04414
2.04187
2.03867
2.03359
2.02538
2.01515
2.0067
2.00104
1.9967
1.99312
1.99089
1.99039
1.98949
1.98736
1.9843
1.97904
1.97105
1.96341
1.9575
1.95179
1.94536
1.9393
1.93525
1.93248
1.93007
1.92802
1.92687
1.9264
1.92579
1.92394
1.91922
1.90525
2.05296
1.90988
1.76839
1.65589
1.57207
1.48583
1.43255
1.39763
1.34574
1.28033
1.24781
1.23086
1.20141
1.18099
1.18231
1.17725
1.15872
1.15217
1.15783
1.15721
1.14825
1.14954
1.16455
1.18895
1.22383
1.26686
1.31326
1.34586
1.3691
1.39726
1.4105
1.41933
1.43309
1.44193
1.45018
1.4605
1.46751
1.47328
1.47755
1.4836
1.48812
1.49162
1.49776
1.50752
1.51543
1.51755
1.51744
1.51491
1.51107
1.50909
1.50926
1.51184
1.51878
1.5284
1.53268
1.53302
1.53303
1.53224
1.52975
1.52806
1.52797
1.52887
1.53086
1.53309
1.53515
1.53933
1.55439
1.644
1.85444
2.00264
2.01341
2.1178
2.33349
2.4607
2.48107
2.47775
2.46357
2.45733
2.45891
2.46225
2.46053
2.45424
2.44318
2.43241
2.42473
2.41853
2.41316
2.40706
2.40065
2.39307
2.38604
2.38154
2.37896
2.37679
2.37236
2.36602
2.35839
2.35027
2.34269
2.33634
2.331
2.32581
2.32018
2.31384
2.30701
2.30028
2.29422
2.28894
2.28428
2.28031
2.27666
2.27253
2.26803
2.26309
2.25711
2.25054
2.24251
2.2328
2.2258
2.22268
2.21991
2.21707
2.2146
2.21235
2.20894
2.20435
2.1993
2.19311
2.1854
2.17782
2.17074
2.16375
2.1566
2.14903
2.1411
2.13393
2.12862
2.12426
2.12052
2.11778
2.11573
2.11368
2.11137
2.10855
2.10499
2.10063
2.09497
2.08732
2.0778
2.06742
2.05797
2.05126
2.04739
2.04487
2.04278
2.04062
2.03776
2.03295
2.02801
2.02596
2.02458
2.02347
2.02182
2.01917
2.01411
2.00417
1.9908
1.981
1.97597
1.97263
1.97026
1.96964
1.96885
1.96695
1.96437
1.96022
1.95419
1.94864
1.94412
1.9393
1.93306
1.92491
1.917
1.91212
1.9094
1.90804
1.90783
1.90818
1.90838
1.90773
1.90525
1.89437
2.09854
1.97543
1.86576
1.76252
1.66932
1.58992
1.5378
1.48794
1.44068
1.39163
1.34443
1.32028
1.2981
1.26135
1.24814
1.24607
1.23045
1.20436
1.19573
1.18718
1.16782
1.16093
1.16382
1.16717
1.17188
1.18395
1.2066
1.23648
1.26531
1.30195
1.34192
1.36454
1.38596
1.40654
1.42264
1.44005
1.44696
1.45142
1.45787
1.46243
1.46589
1.47108
1.47994
1.48954
1.49371
1.49525
1.49579
1.49462
1.49418
1.49386
1.49349
1.49551
1.50242
1.51062
1.51323
1.51363
1.5136
1.51295
1.51121
1.50961
1.50902
1.50944
1.51128
1.51475
1.51892
1.53333
1.61846
1.82774
1.96263
2.01664
2.00994
2.01413
2.10315
2.30079
2.41112
2.43979
2.43743
2.43292
2.42884
2.42803
2.42634
2.42098
2.41246
2.40389
2.39669
2.38984
2.38287
2.37585
2.36958
2.36299
2.3566
2.35203
2.34865
2.345
2.3405
2.33516
2.32941
2.32336
2.31706
2.3103
2.30379
2.29827
2.29323
2.2878
2.28162
2.27481
2.26771
2.2608
2.25476
2.25043
2.24713
2.2438
2.2409
2.23816
2.23393
2.22849
2.22095
2.20962
2.19822
2.19266
2.19013
2.18787
2.18704
2.18725
2.18499
2.18004
2.1734
2.16393
2.15437
2.14803
2.14377
2.14007
2.13631
2.13149
2.12431
2.11376
2.10284
2.0962
2.09304
2.09104
2.09021
2.09042
2.09012
2.08812
2.08476
2.07907
2.07117
2.06337
2.05623
2.04942
2.04257
2.03562
2.02955
2.02532
2.02229
2.01931
2.01492
2.00958
2.00689
2.00525
2.00398
2.00316
2.00168
1.99938
1.99577
1.98893
1.97847
1.96693
1.95802
1.95313
1.95002
1.94745
1.94562
1.94349
1.94038
1.93659
1.93299
1.93011
1.92734
1.92399
1.91905
1.91116
1.90056
1.89183
1.8885
1.88769
1.88716
1.88673
1.88613
1.88512
1.88287
1.87595
2.13615
2.03163
1.93806
1.84699
1.7514
1.6859
1.63117
1.57194
1.51571
1.48002
1.43364
1.39166
1.37595
1.3529
1.31172
1.29649
1.2868
1.2632
1.24576
1.24065
1.22356
1.2052
1.20346
1.19898
1.19245
1.19591
1.19609
1.19364
1.19548
1.20413
1.23054
1.26502
1.29808
1.34041
1.37522
1.40831
1.42492
1.43256
1.4428
1.44762
1.4509
1.45882
1.46998
1.47755
1.48067
1.48296
1.48462
1.4852
1.4867
1.48772
1.4889
1.49145
1.49684
1.49975
1.50093
1.50293
1.50432
1.50465
1.50354
1.50373
1.50428
1.50457
1.5059
1.50894
1.52252
1.62719
1.81172
1.9669
2.00611
2.01206
2.0071
2.00056
2.00523
2.08639
2.27085
2.39178
2.42413
2.42594
2.42029
2.4127
2.40928
2.40415
2.39911
2.39411
2.3873
2.37983
2.37295
2.36686
2.36083
2.35491
2.34892
2.34266
2.33663
2.33168
2.32721
2.32312
2.31903
2.31356
2.30737
2.29991
2.29275
2.2874
2.28235
2.27685
2.27069
2.26378
2.25636
2.24896
2.24243
2.23767
2.23439
2.23198
2.23029
2.22725
2.22219
2.21572
2.20741
2.19775
2.18771
2.17939
2.17492
2.17277
2.17187
2.17022
2.16574
2.15939
2.15067
2.14082
2.13383
2.13008
2.12719
2.12547
2.12312
2.11916
2.11335
2.10329
2.09065
2.08126
2.07646
2.07422
2.0735
2.07457
2.07387
2.07083
2.06586
2.0585
2.05043
2.04452
2.04049
2.037
2.03307
2.02798
2.02124
2.01358
2.00657
2.00015
1.99445
1.99134
1.98954
1.9877
1.986
1.9846
1.98294
1.9804
1.97678
1.97177
1.96581
1.95865
1.94951
1.93992
1.9334
1.92939
1.92563
1.92137
1.91803
1.91594
1.91467
1.91314
1.91101
1.90844
1.90427
1.89743
1.88874
1.87973
1.8724
1.86889
1.86775
1.86678
1.86525
1.86299
1.8601
1.85577
2.16528
2.0775
1.99657
1.91255
1.82752
1.76648
1.70789
1.64788
1.5934
1.5559
1.51528
1.45983
1.43571
1.41839
1.38614
1.35543
1.34335
1.32441
1.30318
1.29304
1.27896
1.25712
1.24994
1.24375
1.23179
1.22379
1.21749
1.2065
1.19723
1.19898
1.20352
1.21143
1.22296
1.2431
1.26941
1.29729
1.33406
1.36511
1.3917
1.41739
1.43437
1.44904
1.46291
1.47237
1.47569
1.47699
1.47731
1.47801
1.47952
1.4826
1.48916
1.49601
1.49812
1.49739
1.49489
1.49388
1.49513
1.49695
1.49873
1.50123
1.50424
1.50538
1.50675
1.51725
1.61539
1.83803
1.96059
2.00552
2.00927
2.00673
2.00357
2.0017
2.00163
2.00488
2.07089
2.24228
2.38699
2.4194
2.4213
2.40787
2.40149
2.39727
2.39496
2.3926
2.38619
2.3786
2.37185
2.36611
2.36065
2.35582
2.35014
2.34312
2.33487
2.3279
2.32228
2.31802
2.31444
2.3092
2.3031
2.296
2.28932
2.28315
2.27715
2.27117
2.26502
2.25876
2.25255
2.24656
2.24083
2.23546
2.23116
2.22765
2.22379
2.21904
2.21342
2.20672
2.19986
2.19386
2.18774
2.17985
2.17079
2.16463
2.16037
2.15534
2.1495
2.14242
2.1346
2.12781
2.12382
2.12075
2.11894
2.11878
2.11676
2.11236
2.10625
2.09835
2.08986
2.08149
2.07358
2.06777
2.06394
2.06026
2.05634
2.05185
2.04632
2.04177
2.0382
2.03429
2.03189
2.03016
2.02755
2.02424
2.01895
2.00962
1.9979
1.98832
1.98274
1.97983
1.97738
1.97534
1.97445
1.97243
1.96944
1.96597
1.96188
1.95834
1.9554
1.95187
1.94643
1.93737
1.92523
1.9147
1.90771
1.90374
1.9017
1.90156
1.90222
1.90132
1.89914
1.89579
1.89075
1.88493
1.87966
1.87437
1.8672
1.85839
1.8519
1.84887
1.84649
1.84379
1.84213
1.83934
2.18721
2.11452
2.04357
1.96434
1.89493
1.83426
1.7755
1.71497
1.6656
1.62031
1.57969
1.5327
1.49786
1.47353
1.44419
1.41466
1.39382
1.37636
1.35886
1.34463
1.32842
1.30469
1.29431
1.28837
1.27903
1.26705
1.25728
1.24475
1.23102
1.22665
1.2238
1.22387
1.22629
1.22632
1.22579
1.22703
1.23519
1.25533
1.28474
1.32953
1.37615
1.41992
1.45166
1.47018
1.47463
1.47418
1.47007
1.46674
1.46806
1.47583
1.48962
1.49903
1.50112
1.50153
1.49889
1.4931
1.49214
1.49254
1.49311
1.49654
1.50242
1.5072
1.52198
1.60626
1.84044
1.97153
2.00104
2.00302
2.00401
2.00478
2.00398
2.00155
1.9996
1.99893
2.00054
2.05289
2.21528
2.36607
2.41425
2.40572
2.39833
2.39649
2.39601
2.39357
2.3873
2.3798
2.37328
2.36743
2.36243
2.35818
2.35252
2.34597
2.33836
2.33009
2.32201
2.31479
2.30812
2.30257
2.29761
2.29298
2.28751
2.28101
2.27387
2.26698
2.26098
2.25554
2.2507
2.24636
2.24217
2.23738
2.23101
2.22326
2.21562
2.20951
2.20452
2.20061
2.19654
2.19256
2.18802
2.18165
2.17231
2.16073
2.15232
2.1461
2.14015
2.13414
2.12792
2.12379
2.12032
2.11742
2.11436
2.11056
2.10654
2.10298
2.09902
2.0939
2.08908
2.08391
2.07717
2.06772
2.0582
2.05077
2.04485
2.03975
2.03517
2.03167
2.02966
2.0311
2.03209
2.02946
2.02585
2.0222
2.01672
2.0077
1.99548
1.98532
1.97959
1.97558
1.97197
1.96819
1.96349
1.95823
1.95387
1.95095
1.94969
1.94987
1.94909
1.94669
1.94311
1.93681
1.92464
1.90929
1.89925
1.89421
1.891
1.88831
1.88643
1.88603
1.88491
1.88262
1.87907
1.87541
1.87288
1.87035
1.86612
1.85755
1.84559
1.83723
1.83367
1.83189
1.83143
1.83155
2.20377
2.14266
2.07733
2.00756
1.94872
1.88997
1.82887
1.77421
1.72825
1.68017
1.63415
1.59329
1.55885
1.52731
1.4993
1.4739
1.44969
1.42408
1.40537
1.39009
1.37699
1.35823
1.34433
1.33434
1.32097
1.30684
1.29528
1.28138
1.26709
1.26107
1.25718
1.24951
1.24247
1.23784
1.23448
1.23133
1.22894
1.22923
1.2324
1.24412
1.26965
1.31073
1.35631
1.39468
1.42466
1.43582
1.44721
1.45222
1.45582
1.46787
1.48669
1.49793
1.5002
1.50068
1.49877
1.4933
1.4898
1.48996
1.4902
1.49326
1.49972
1.51882
1.6227
1.8091
1.98017
2.00625
2.00908
2.00598
2.00112
1.99864
1.99582
1.99386
1.99435
1.99585
1.99859
1.99778
2.0326
2.17056
2.32983
2.38822
2.39587
2.39795
2.39809
2.39325
2.38598
2.37771
2.37172
2.36639
2.36227
2.35771
2.35261
2.34723
2.34077
2.33293
2.32377
2.31396
2.30522
2.29839
2.29316
2.28823
2.28346
2.27745
2.27037
2.26236
2.2558
2.25089
2.24782
2.24551
2.24205
2.23754
2.23091
2.22093
2.21059
2.20315
2.1983
2.19445
2.19238
2.19075
2.18621
2.18038
2.1726
2.16112
2.14875
2.14083
2.13523
2.13063
2.12719
2.12455
2.12122
2.11629
2.10995
2.10186
2.09514
2.09123
2.08946
2.08947
2.08694
2.08308
2.0784
2.07053
2.05849
2.04718
2.03957
2.03384
2.03027
2.02748
2.02489
2.02274
2.02141
2.02015
2.01774
2.01464
2.01002
2.00297
1.99527
1.98824
1.98135
1.97501
1.9695
1.96392
1.95747
1.95099
1.94629
1.94339
1.94159
1.94299
1.94481
1.9425
1.93879
1.93305
1.92373
1.91224
1.90029
1.89084
1.88529
1.88197
1.87915
1.87561
1.87298
1.87165
1.87093
1.86939
1.8676
1.8659
1.86314
1.85756
1.84753
1.83489
1.82808
1.82551
1.82445
1.82179
2.21593
2.1621
2.1015
2.04365
1.98912
1.93248
1.87341
1.82646
1.77847
1.73248
1.68424
1.64953
1.61391
1.58005
1.54909
1.52598
1.50213
1.47835
1.45498