/*--------------------------------*- C++ -*----------------------------------*\
  =========                 |
  \\      /  F ield         | OpenFOAM: The Open Source CFD Toolbox
   \\    /   O peration     | Website:  https://openfoam.org
    \\  /    A nd           | Version:  7
     \\/     M anipulation  |
\*---------------------------------------------------------------------------*/
FoamFile
{
    version     2.0;
    format      ascii;
    class       volVectorField;
    location    "2.8";
    object      U;
}
// * * * * * * * * * * * * * * * * * * * * * * * * * * * * * * * * * * * * * //

dimensions      [0 1 -1 0 0 0 0];

internalField   nonuniform List<vector> 
16128
(
(3 -5.23285e-17 0)
(3 -7.76742e-17 0)
(3 -2.42619e-16 0)
(3 -4.76968e-17 0)
(3 6.18321e-17 0)
(3 1.02743e-16 0)
(3 1.87565e-16 0)
(3 3.67686e-16 0)
(3 7.70944e-16 0)
(3 9.9617e-16 0)
(3 1.21927e-15 0)
(3 8.12773e-16 0)
(3 7.83802e-16 0)
(3 2.41865e-16 0)
(3 4.5985e-17 0)
(3 -2.45221e-16 0)
(3 -2.22292e-16 0)
(3 -2.1719e-16 0)
(3 1.36189e-16 0)
(3 9.47341e-16 0)
(3 1.13462e-15 0)
(3 7.88885e-16 0)
(3 4.88978e-16 0)
(3 5.98966e-16 0)
(1.76081 0.00768963 0)
(0.792877 0.00820881 0)
(0.725953 0.0120014 0)
(0.698258 0.013283 0)
(0.66557 0.013832 0)
(0.633867 0.0142194 0)
(0.601953 0.0143887 0)
(0.570497 0.014344 0)
(0.539838 0.0142056 0)
(0.50991 0.0142007 0)
(0.480011 0.0144874 0)
(0.44931 0.014977 0)
(0.417808 0.0153929 0)
(0.38591 0.015669 0)
(0.35366 0.0159068 0)
(0.321012 0.0161537 0)
(0.287939 0.0164564 0)
(0.254128 0.0168279 0)
(0.21932 0.0172868 0)
(0.183421 0.0179481 0)
(0.145964 0.0188697 0)
(0.106376 0.0199104 0)
(0.0648745 0.0205959 0)
(0.0225399 0.0214031 0)
(3 -2.95853e-16 0)
(3 -3.89997e-16 0)
(3 -3.04429e-16 0)
(3 -1.86413e-16 0)
(3 9.84988e-17 0)
(3 1.43754e-16 0)
(3 -2.7582e-16 0)
(3 -2.85499e-16 0)
(3 5.00272e-16 0)
(3 1.58756e-15 0)
(3 1.40081e-15 0)
(3 8.77995e-16 0)
(3 9.65802e-16 0)
(3 2.06807e-16 0)
(3 -5.20529e-16 0)
(3 -1.04237e-15 0)
(3 -1.51427e-15 0)
(3 -1.33462e-15 0)
(3 -7.85357e-16 0)
(3 2.14893e-16 0)
(3 3.14409e-16 0)
(3 4.4905e-17 0)
(3 -6.6677e-16 0)
(3 -7.87989e-17 0)
(1.7792 0.0375577 0)
(0.787985 0.0365797 0)
(0.716411 0.034022 0)
(0.688742 0.0373148 0)
(0.656164 0.0390243 0)
(0.624571 0.0404515 0)
(0.592597 0.0411471 0)
(0.560942 0.0410291 0)
(0.53007 0.0405227 0)
(0.499997 0.0404764 0)
(0.470048 0.0414275 0)
(0.439407 0.0430596 0)
(0.408057 0.0444735 0)
(0.376423 0.0454531 0)
(0.344598 0.046358 0)
(0.312544 0.0473768 0)
(0.280209 0.048627 0)
(0.247264 0.0500665 0)
(0.213477 0.0517013 0)
(0.178784 0.0538733 0)
(0.142677 0.0567789 0)
(0.104447 0.0600894 0)
(0.0640086 0.0624431 0)
(0.0224277 0.0652346 0)
(3 -2.96485e-18 0)
(3 5.58953e-17 0)
(3 2.1071e-16 0)
(3 2.06419e-16 0)
(3 4.18079e-16 0)
(3 6.16077e-16 0)
(3 4.99901e-16 0)
(3 2.44011e-16 0)
(3 7.76099e-17 0)
(3 5.69145e-16 0)
(3 7.21112e-16 0)
(3 8.89585e-16 0)
(3 2.1918e-16 0)
(3 -1.11949e-17 0)
(3 -2.30153e-16 0)
(3 -6.1354e-16 0)
(3 -7.6267e-16 0)
(3 -6.0117e-16 0)
(3 -5.41786e-16 0)
(3 -1.90071e-16 0)
(3 1.73389e-16 0)
(3 4.79931e-17 0)
(3 -3.81335e-16 0)
(3 -1.87442e-15 0)
(1.83889 0.0670743 0)
(0.795906 0.0658709 0)
(0.717198 0.0590811 0)
(0.688145 0.063921 0)
(0.654382 0.066477 0)
(0.621986 0.068726 0)
(0.589284 0.069876 0)
(0.55688 0.0696522 0)
(0.52525 0.0686754 0)
(0.494458 0.0683954 0)
(0.4639 0.0697741 0)
(0.432785 0.072305 0)
(0.401018 0.0744742 0)
(0.368975 0.0758463 0)
(0.336796 0.0770271 0)
(0.304488 0.0784197 0)
(0.272016 0.0802576 0)
(0.239072 0.082406 0)
(0.205523 0.084824 0)
(0.171465 0.0881378 0)
(0.136507 0.0927839 0)
(0.0999338 0.0983597 0)
(0.0612711 0.102586 0)
(0.0216277 0.10769 0)
(3 1.31911e-16 0)
(3 2.53693e-16 0)
(3 1.48514e-16 0)
(3 2.21354e-16 0)
(3 3.16516e-16 0)
(3 2.95833e-16 0)
(3 6.20786e-16 0)
(3 7.16395e-16 0)
(3 3.5036e-16 0)
(3 1.8603e-16 0)
(3 4.92315e-16 0)
(3 3.53935e-16 0)
(3 -4.003e-16 0)
(3 -8.16289e-16 0)
(3 -8.57386e-16 0)
(3 -6.91783e-16 0)
(3 -5.16097e-16 0)
(3 -1.97722e-16 0)
(3 -1.26572e-16 0)
(3 -2.00851e-17 0)
(3 2.50551e-16 0)
(3 3.9067e-16 0)
(3 -3.60219e-16 0)
(3 -9.29393e-17 0)
(1.92759 0.0921572 0)
(0.807106 0.0958267 0)
(0.720578 0.0844239 0)
(0.691892 0.0902675 0)
(0.658325 0.0937177 0)
(0.626237 0.0969911 0)
(0.593705 0.0988586 0)
(0.561294 0.0988028 0)
(0.529456 0.097567 0)
(0.49828 0.0971817 0)
(0.467273 0.0990816 0)
(0.435701 0.102631 0)
(0.403328 0.105734 0)
(0.370468 0.107656 0)
(0.337316 0.109177 0)
(0.303969 0.110937 0)
(0.270444 0.113313 0)
(0.236445 0.116015 0)
(0.201925 0.118846 0)
(0.167182 0.122675 0)
(0.132077 0.128275 0)
(0.0961469 0.135474 0)
(0.0586238 0.141243 0)
(0.0207307 0.14849 0)
(3 -1.95935e-16 0)
(3 -1.14951e-16 0)
(3 6.27538e-17 0)
(3 2.51522e-16 0)
(3 1.81417e-16 0)
(3 1.86212e-16 0)
(3 3.01363e-16 0)
(3 7.89817e-16 0)
(3 7.85683e-16 0)
(3 1.3064e-16 0)
(3 -1.33291e-16 0)
(3 -5.3539e-16 0)
(3 -9.64375e-16 0)
(3 -1.03193e-15 0)
(3 -1.61437e-15 0)
(3 -1.43448e-15 0)
(3 -9.95725e-16 0)
(3 -4.65513e-16 0)
(3 1.79768e-17 0)
(3 -3.26238e-16 0)
(3 -4.92329e-16 0)
(3 -8.15844e-16 0)
(3 -4.39698e-16 0)
(3 -1.08929e-15 0)
(2.04421 0.115339 0)
(0.822294 0.126425 0)
(0.72426 0.109873 0)
(0.696534 0.115919 0)
(0.664479 0.119987 0)
(0.634044 0.124059 0)
(0.603068 0.126573 0)
(0.571884 0.126768 0)
(0.540772 0.125387 0)
(0.509854 0.124926 0)
(0.478871 0.12736 0)
(0.447223 0.132071 0)
(0.414485 0.136459 0)
(0.380875 0.139367 0)
(0.346637 0.141609 0)
(0.311993 0.144045 0)
(0.277064 0.147247 0)
(0.24156 0.150768 0)
(0.205428 0.15415 0)
(0.169086 0.158383 0)
(0.132591 0.164487 0)
(0.0958297 0.172661 0)
(0.0579783 0.179359 0)
(0.020493 0.188214 0)
(3 4.78939e-17 0)
(3 -9.97859e-18 0)
(3 1.86182e-16 0)
(3 3.9049e-16 0)
(3 4.48922e-16 0)
(3 9.21457e-16 0)
(3 1.20251e-15 0)
(3 1.14032e-15 0)
(3 7.18827e-16 0)
(3 3.71345e-16 0)
(3 1.14122e-16 0)
(3 -1.41122e-16 0)
(3 -6.95803e-16 0)
(3 -1.03495e-15 0)
(3 -1.05399e-15 0)
(3 -5.95752e-16 0)
(3 -2.26787e-16 0)
(3 -2.42552e-16 0)
(3 -6.95355e-16 0)
(3 -1.26311e-15 0)
(3 -1.28187e-15 0)
(3 -1.17029e-15 0)
(3 -6.70855e-16 0)
(3 -1.84636e-15 0)
(2.1948 0.133726 0)
(0.845636 0.156767 0)
(0.730269 0.135358 0)
(0.701864 0.140911 0)
(0.670039 0.145472 0)
(0.640037 0.150342 0)
(0.609467 0.153876 0)
(0.578503 0.155017 0)
(0.547319 0.1542 0)
(0.516098 0.154057 0)
(0.484839 0.157072 0)
(0.453225 0.162886 0)
(0.42074 0.16854 0)
(0.387508 0.172443 0)
(0.353642 0.175357 0)
(0.319208 0.178389 0)
(0.284207 0.182421 0)
(0.248221 0.186901 0)
(0.211127 0.191009 0)
(0.173467 0.195715 0)
(0.135498 0.202186 0)
(0.0973885 0.210997 0)
(0.0585234 0.218124 0)
(0.0206614 0.228111 0)
(3 -9.59899e-17 0)
(3 -4.56747e-16 0)
(3 -6.46092e-16 0)
(3 -7.49847e-16 0)
(3 -3.38319e-16 0)
(3 -3.1703e-16 0)
(3 -1.28913e-16 0)
(3 -3.74651e-16 0)
(3 -2.23709e-16 0)
(3 -2.25275e-16 0)
(3 -6.54016e-16 0)
(3 -4.59504e-16 0)
(3 -5.50475e-16 0)
(3 -5.2516e-16 0)
(3 -1.22979e-16 0)
(3 -9.44524e-17 0)
(3 -4.10052e-16 0)
(3 -9.25213e-16 0)
(3 -1.09826e-15 0)
(3 -1.01477e-15 0)
(3 -1.06976e-15 0)
(3 -8.55778e-16 0)
(3 -7.1876e-16 0)
(3 -1.17107e-15 0)
(2.37252 0.146696 0)
(0.874284 0.188719 0)
(0.734407 0.162466 0)
(0.704967 0.167037 0)
(0.673078 0.171772 0)
(0.643676 0.17713 0)
(0.614032 0.181304 0)
(0.583956 0.183329 0)
(0.55326 0.183249 0)
(0.522251 0.183412 0)
(0.491292 0.186625 0)
(0.460436 0.193025 0)
(0.429 0.199569 0)
(0.396787 0.204407 0)
(0.363586 0.208232 0)
(0.329324 0.212296 0)
(0.294083 0.217698 0)
(0.257533 0.223722 0)
(0.219511 0.229063 0)
(0.180605 0.234593 0)
(0.141104 0.241585 0)
(0.101328 0.251007 0)
(0.0607329 0.258334 0)
(0.0214422 0.269173 0)
(3 -9.21903e-17 0)
(3 -1.04159e-16 0)
(3 -7.15577e-16 0)
(3 -1.27838e-15 0)
(3 -8.97533e-16 0)
(3 -9.10189e-16 0)
(3 -1.34305e-15 0)
(3 -1.84978e-15 0)
(3 -1.61194e-15 0)
(3 -1.21398e-15 0)
(3 -1.23271e-15 0)
(3 -1.08807e-15 0)
(3 -5.87766e-16 0)
(3 -3.88295e-16 0)
(3 -3.2075e-16 0)
(3 -8.90206e-16 0)
(3 -1.03355e-15 0)
(3 -1.3453e-15 0)
(3 -1.09911e-15 0)
(3 -7.61342e-16 0)
(3 -4.78937e-16 0)
(3 -6.56067e-16 0)
(3 -8.68917e-16 0)
(3 -7.2987e-16 0)
(2.57308 0.15267 0)
(0.916838 0.222305 0)
(0.746188 0.190534 0)
(0.718357 0.19426 0)
(0.68687 0.198461 0)
(0.657913 0.20376 0)
(0.628262 0.20837 0)
(0.597851 0.211587 0)
(0.566441 0.212767 0)
(0.534569 0.213469 0)
(0.502815 0.216648 0)
(0.471491 0.22327 0)
(0.43983 0.230581 0)
(0.40737 0.236597 0)
(0.373759 0.241768 0)
(0.338938 0.247184 0)
(0.303207 0.254099 0)
(0.266313 0.261818 0)
(0.227827 0.268627 0)
(0.188137 0.275278 0)
(0.147415 0.283078 0)
(0.105957 0.293301 0)
(0.0634336 0.300787 0)
(0.022355 0.312327 0)
(3 1.65298e-16 0)
(3 4.13304e-16 0)
(3 5.31388e-16 0)
(3 3.75632e-16 0)
(3 2.75125e-16 0)
(3 1.9071e-16 0)
(3 -2.79437e-16 0)
(3 -6.7402e-16 0)
(3 -9.59412e-16 0)
(3 -8.23826e-16 0)
(3 -6.30213e-16 0)
(3 -1.07988e-15 0)
(3 -8.80048e-16 0)
(3 -9.61928e-16 0)
(3 -1.02291e-15 0)
(3 -7.88589e-16 0)
(3 -8.23377e-16 0)
(3 -4.63025e-16 0)
(3 -3.63039e-16 0)
(3 -4.81104e-16 0)
(3 -8.92039e-16 0)
(3 -1.15262e-15 0)
(3 -1.26949e-15 0)
(3 -1.07887e-15 0)
(2.78852 0.144251 0)
(0.98411 0.248636 0)
(0.77285 0.209275 0)
(0.747828 0.216617 0)
(0.715318 0.221942 0)
(0.685367 0.228421 0)
(0.654374 0.23447 0)
(0.622644 0.239444 0)
(0.589689 0.242387 0)
(0.555941 0.244199 0)
(0.52214 0.247673 0)
(0.488914 0.254613 0)
(0.455682 0.262722 0)
(0.421912 0.269903 0)
(0.387278 0.276344 0)
(0.351666 0.282884 0)
(0.315465 0.290992 0)
(0.278468 0.300296 0)
(0.239808 0.308792 0)
(0.199457 0.317083 0)
(0.157353 0.326366 0)
(0.1137 0.338103 0)
(0.0682444 0.346132 0)
(0.0240687 0.358509 0)
(3 9.38492e-17 0)
(3 3.43967e-16 0)
(3 1.47653e-16 0)
(3 1.44969e-16 0)
(3 -1.67969e-16 0)
(3 -7.57454e-16 0)
(3 -5.02623e-16 0)
(3 -5.67085e-16 0)
(3 -4.03139e-16 0)
(3 -7.61508e-16 0)
(3 -1.25483e-15 0)
(3 -1.98419e-15 0)
(3 -2.38297e-15 0)
(3 -2.17711e-15 0)
(3 -1.85392e-15 0)
(3 -1.67185e-15 0)
(3 -1.2066e-15 0)
(3 -9.09601e-16 0)
(3 -6.35189e-16 0)
(3 -5.18449e-16 0)
(3 -9.51407e-16 0)
(3 -1.38806e-15 0)
(3 -8.24147e-16 0)
(3 -6.05728e-16 0)
(2.96805 0.0557398 0)
(1.06306 0.263296 0)
(0.792041 0.224513 0)
(0.775701 0.237974 0)
(0.744542 0.245836 0)
(0.714815 0.253317 0)
(0.683633 0.26065 0)
(0.651447 0.267599 0)
(0.617771 0.272801 0)
(0.582894 0.276286 0)
(0.54749 0.28041 0)
(0.512424 0.287735 0)
(0.477485 0.296556 0)
(0.442165 0.304707 0)
(0.40624 0.312213 0)
(0.369456 0.319669 0)
(0.332146 0.328746 0)
(0.294189 0.33974 0)
(0.254365 0.350515 0)
(0.212374 0.361347 0)
(0.168132 0.372886 0)
(0.121886 0.386852 0)
(0.0731454 0.395751 0)
(0.025635 0.408907 0)
(3 2.5285e-17 0)
(3 -4.70729e-17 0)
(3 -6.32485e-16 0)
(3 -7.1604e-16 0)
(3 -9.6992e-16 0)
(3 -6.96986e-16 0)
(3 -4.80834e-16 0)
(3 -2.54372e-18 0)
(3 -1.43543e-16 0)
(3 -8.79714e-16 0)
(3 -1.44457e-15 0)
(3 -1.51204e-15 0)
(3 -1.39126e-15 0)
(3 -1.61166e-15 0)
(3 -1.55145e-15 0)
(3 -1.59328e-15 0)
(3 -1.82596e-15 0)
(3 -1.72138e-15 0)
(3 -1.08724e-15 0)
(3 -8.52323e-16 0)
(3 -5.69274e-16 0)
(3 -2.47963e-16 0)
(3 -2.12487e-16 0)
(3 1.93704e-16 0)
(3.01201 0.0054018 0)
(1.14663 0.267551 0)
(0.792497 0.239508 0)
(0.777014 0.263395 0)
(0.750209 0.273979 0)
(0.723899 0.281479 0)
(0.697192 0.288899 0)
(0.669623 0.296344 0)
(0.639872 0.302997 0)
(0.607665 0.308582 0)
(0.573722 0.314195 0)
(0.539175 0.322343 0)
(0.504055 0.332042 0)
(0.467892 0.341263 0)
(0.430741 0.349928 0)
(0.392468 0.358421 0)
(0.35349 0.368439 0)
(0.314171 0.381084 0)
(0.273385 0.394133 0)
(0.230473 0.407707 0)
(0.184354 0.421902 0)
(0.135623 0.439219 0)
(0.0819791 0.450398 0)
(0.028928 0.465023 0)
(3 -1.76502e-16 0)
(3 -4.98512e-16 0)
(3 -4.7549e-16 0)
(3 -4.22745e-16 0)
(3 -3.15426e-16 0)
(3 -7.52361e-17 0)
(3 -1.19826e-17 0)
(3 -1.21884e-16 0)
(3 -4.59999e-16 0)
(3 -3.97426e-16 0)
(3 -6.02825e-16 0)
(3 4.05097e-16 0)
(3 6.69564e-16 0)
(3 2.28372e-16 0)
(3 3.96096e-17 0)
(3 -3.0661e-16 0)
(3 -9.6633e-16 0)
(3 -1.40323e-15 0)
(3 -8.09489e-16 0)
(3 -1.17372e-15 0)
(3 -8.91781e-16 0)
(3 -3.31638e-16 0)
(3 -1.67984e-16 0)
(3 -2.88877e-17 0)
(3.00037 1.374e-05 0)
(1.27972 0.290843 0)
(0.787035 0.253152 0)
(0.76113 0.279429 0)
(0.738132 0.295258 0)
(0.714749 0.304248 0)
(0.692778 0.312866 0)
(0.671445 0.321796 0)
(0.649612 0.330068 0)
(0.625407 0.337145 0)
(0.597619 0.344349 0)
(0.566943 0.354346 0)
(0.533943 0.366384 0)
(0.498435 0.378039 0)
(0.460847 0.388866 0)
(0.421449 0.399078 0)
(0.380861 0.410134 0)
(0.33984 0.424249 0)
(0.297141 0.439905 0)
(0.251415 0.457765 0)
(0.201256 0.476622 0)
(0.148456 0.498818 0)
(0.0900453 0.513628 0)
(0.030511 0.529033 0)
(3 -1.32486e-16 0)
(3 2.25679e-17 0)
(3 4.7232e-16 0)
(3 3.04305e-16 0)
(3 3.85399e-16 0)
(3 2.05287e-16 0)
(3 2.82965e-16 0)
(3 2.00103e-16 0)
(3 2.15745e-16 0)
(3 -1.38138e-16 0)
(3 -2.83839e-16 0)
(3 -3.61995e-16 0)
(3 -3.01549e-16 0)
(3 1.70319e-17 0)
(3 -5.87536e-17 0)
(3 -5.41763e-16 0)
(3 -8.71657e-16 0)
(3 -1.3353e-15 0)
(3 -1.73543e-15 0)
(3 -1.5591e-15 0)
(3 -2.89339e-16 0)
(3 4.50643e-16 0)
(3 1.95686e-15 0)
(3 1.98699e-15 0)
(3 -4.16931e-08 0)
(1.50007 0.324931 0)
(0.79881 0.291368 0)
(0.738602 0.295703 0)
(0.716918 0.307987 0)
(0.695664 0.316331 0)
(0.677081 0.325621 0)
(0.659847 0.336558 0)
(0.642928 0.348476 0)
(0.625024 0.360174 0)
(0.604938 0.371383 0)
(0.582294 0.384315 0)
(0.556253 0.399338 0)
(0.525839 0.414421 0)
(0.491316 0.428491 0)
(0.453326 0.441425 0)
(0.412531 0.454107 0)
(0.370164 0.470503 0)
(0.325966 0.489526 0)
(0.279491 0.512055 0)
(0.228895 0.535057 0)
(0.174535 0.562467 0)
(0.10914 0.584618 0)
(0.0390684 0.60436 0)
(3 9.21405e-17 0)
(3 3.09983e-16 0)
(3 2.80534e-16 0)
(3 3.76515e-16 0)
(3 4.90263e-16 0)
(3 5.32525e-16 0)
(3 5.24e-16 0)
(3 1.1301e-15 0)
(3 9.34381e-16 0)
(3 2.74676e-16 0)
(3 -1.93192e-16 0)
(3 -1.03076e-15 0)
(3 -1.33704e-15 0)
(3 -1.24753e-15 0)
(3 -1.21746e-15 0)
(3 -9.61892e-16 0)
(3 -8.07353e-16 0)
(3 -8.42126e-16 0)
(3 -1.70739e-15 0)
(3 -1.40167e-15 0)
(3 6.94703e-16 0)
(3 9.95777e-16 0)
(3 1.18976e-15 0)
(3 1.07113e-15 0)
(3 -3.93003e-08 0)
(1.82473 0.358216 0)
(0.829658 0.348612 0)
(0.735369 0.331971 0)
(0.709634 0.331938 0)
(0.688317 0.336813 0)
(0.669568 0.343638 0)
(0.652256 0.352546 0)
(0.63592 0.363517 0)
(0.619854 0.375979 0)
(0.603271 0.389838 0)
(0.586324 0.40655 0)
(0.567996 0.425932 0)
(0.545684 0.44591 0)
(0.517958 0.465054 0)
(0.484962 0.482724 0)
(0.446337 0.499301 0)
(0.40556 0.518722 0)
(0.361953 0.540886 0)
(0.315407 0.568359 0)
(0.261205 0.599747 0)
(0.198824 0.639092 0)
(0.125344 0.677024 0)
(0.0395824 0.701794 0)
(3 2.02148e-16 0)
(3 7.98649e-17 0)
(3 -3.38143e-16 0)
(3 -3.69384e-17 0)
(3 2.18718e-16 0)
(3 3.21973e-16 0)
(3 4.17412e-16 0)
(3 1.94261e-16 0)
(3 -8.48995e-17 0)
(3 4.31009e-16 0)
(3 1.02827e-15 0)
(3 2.08802e-17 0)
(3 -1.071e-15 0)
(3 -1.43343e-15 0)
(3 -1.50467e-15 0)
(3 -1.39243e-15 0)
(3 -1.24528e-15 0)
(3 -1.51115e-15 0)
(3 -7.84451e-16 0)
(3 2.57682e-16 0)
(3 1.73076e-15 0)
(3 2.07174e-15 0)
(3 9.67964e-17 0)
(3 -7.02855e-16 0)
(3 -7.72644e-09 0)
(2.27618 0.364928 0)
(0.897205 0.416932 0)
(0.773774 0.360988 0)
(0.741331 0.358733 0)
(0.710697 0.361038 0)
(0.684229 0.364699 0)
(0.66139 0.372921 0)
(0.641233 0.3834 0)
(0.622828 0.395182 0)
(0.605554 0.408421 0)
(0.589422 0.425129 0)
(0.574737 0.446581 0)
(0.558769 0.470877 0)
(0.539038 0.495873 0)
(0.513363 0.520079 0)
(0.481146 0.542512 0)
(0.444536 0.566647 0)
(0.40317 0.594102 0)
(0.358236 0.629931 0)
(0.307867 0.673508 0)
(0.250885 0.722964 0)
(0.180988 0.775479 0)
(0.0707723 0.822679 0)
(3 1.73561e-17 0)
(3 -8.37048e-17 0)
(3 3.86624e-16 0)
(3 6.45643e-16 0)
(3 9.22777e-16 0)
(3 4.81167e-16 0)
(3 1.35511e-16 0)
(3 -1.41887e-16 0)
(3 -3.97987e-16 0)
(3 6.68696e-18 0)
(3 1.92586e-16 0)
(3 1.08928e-16 0)
(3 -7.64054e-17 0)
(3 -2.92304e-16 0)
(3 -9.60292e-16 0)
(3 -1.78489e-15 0)
(3 -1.78742e-15 0)
(3 -1.40109e-15 0)
(3 2.103e-16 0)
(3 1.77778e-15 0)
(3 1.49375e-15 0)
(3 9.12358e-16 0)
(3 -1.07256e-16 0)
(3 -7.10852e-16 0)
(3 -7.11266e-10 0)
(2.84855 0.215662 0)
(1.04781 0.450919 0)
(0.845163 0.389364 0)
(0.812929 0.378013 0)
(0.769198 0.384889 0)
(0.729048 0.389436 0)
(0.694964 0.395575 0)
(0.666354 0.404859 0)
(0.641587 0.416143 0)
(0.619751 0.428799 0)
(0.600658 0.444516 0)
(0.585435 0.465681 0)
(0.57146 0.491607 0)
(0.556976 0.520868 0)
(0.53938 0.551452 0)
(0.515379 0.581175 0)
(0.485884 0.612462 0)
(0.451107 0.646903 0)
(0.414285 0.688998 0)
(0.373116 0.739967 0)
(0.318041 0.813643 0)
(0.221716 0.922863 0)
(0.121487 1.04947 0)
(3 -3.54745e-17 0)
(3 1.9782e-16 0)
(3 5.0475e-16 0)
(3 4.44725e-16 0)
(3 1.42508e-16 0)
(3 -9.45504e-17 0)
(3 -2.978e-16 0)
(3 -2.39793e-16 0)
(3 -1.06444e-16 0)
(3 -1.90541e-16 0)
(3 5.67837e-17 0)
(3 4.9856e-17 0)
(3 -2.16219e-17 0)
(3 1.86162e-17 0)
(3 -5.16853e-17 0)
(3 -8.21904e-16 0)
(3 -1.43997e-16 0)
(3 2.94229e-16 0)
(3 1.20535e-15 0)
(3 1.27524e-15 0)
(3 8.55264e-17 0)
(3 -6.25045e-16 0)
(3 1.23028e-16 0)
(3 6.97021e-16 0)
(3 -2.33722e-11 0)
(3.05339 0.0176038 0)
(1.23551 0.421531 0)
(0.879185 0.409629 0)
(0.851075 0.423362 0)
(0.817517 0.425276 0)
(0.779878 0.424808 0)
(0.741928 0.427449 0)
(0.706588 0.433919 0)
(0.674726 0.442562 0)
(0.64668 0.452828 0)
(0.622635 0.465825 0)
(0.603995 0.485151 0)
(0.589122 0.510592 0)
(0.577105 0.541681 0)
(0.565276 0.576696 0)
(0.549565 0.613413 0)
(0.52968 0.652481 0)
(0.504698 0.693878 0)
(0.477674 0.743364 0)
(0.44497 0.813072 0)
(0.414758 0.931765 0)
(0.400303 1.08567 0)
(0.510632 1.34131 0)
(3 1.3614e-16 0)
(3 1.56098e-16 0)
(3 7.37951e-17 0)
(3 -4.19526e-16 0)
(3 -1.13589e-15 0)
(3 -9.54646e-16 0)
(3 -7.42254e-16 0)
(3 -1.72848e-16 0)
(3 3.19223e-16 0)
(3 -5.3539e-17 0)
(3 2.76653e-16 0)
(3 -2.04369e-17 0)
(3 -4.85612e-16 0)
(3 -3.43514e-16 0)
(3 5.29338e-16 0)
(3 7.82523e-16 0)
(3 1.03861e-15 0)
(3 1.49328e-15 0)
(3 1.36599e-15 0)
(3 2.42997e-16 0)
(3 -1.20854e-15 0)
(3 4.527e-16 0)
(3 1.41521e-15 0)
(3 1.92943e-15 0)
(3 -3.58717e-13 0)
(3.0027 1.09762e-05 0)
(1.42749 0.410696 0)
(0.858528 0.436746 0)
(0.837828 0.452177 0)
(0.81456 0.455958 0)
(0.792569 0.458269 0)
(0.767885 0.462468 0)
(0.739933 0.468394 0)
(0.709848 0.475444 0)
(0.680529 0.483556 0)
(0.653121 0.492889 0)
(0.630573 0.508457 0)
(0.612824 0.531183 0)
(0.601089 0.561366 0)
(0.592575 0.598114 0)
(0.58392 0.639631 0)
(0.574234 0.685249 0)
(0.561665 0.734515 0)
(0.547742 0.793266 0)
(0.539075 0.877162 0)
(0.544397 1.00182 0)
(0.621349 1.14826 0)
(0.922674 1.34251 0)
(3 -6.12339e-17 0)
(3 -1.68203e-16 0)
(3 -4.94136e-16 0)
(3 -8.22321e-16 0)
(3 -6.19982e-16 0)
(3 -5.39971e-16 0)
(3 -2.46087e-16 0)
(3 1.89518e-16 0)
(3 2.94109e-16 0)
(3 -1.0054e-16 0)
(3 -3.051e-16 0)
(3 5.37675e-16 0)
(3 4.61596e-16 0)
(3 -3.70951e-17 0)
(3 -6.49288e-17 0)
(3 1.17305e-15 0)
(3 1.76185e-15 0)
(3 2.06265e-15 0)
(3 1.08077e-15 0)
(3 -2.03564e-15 0)
(3 -1.95549e-15 0)
(3 1.15815e-16 0)
(3 5.2191e-16 0)
(3 1.52409e-15 0)
(3 -1.08252e-16 0)
(3.00001 -4.45687e-07 0)
(1.79809 0.437597 0)
(0.871758 0.466743 0)
(0.81565 0.458426 0)
(0.80906 0.467892 0)
(0.796357 0.476747 0)
(0.78177 0.485713 0)
(0.763387 0.494979 0)
(0.740799 0.504589 0)
(0.716457 0.513723 0)
(0.690358 0.522002 0)
(0.66606 0.534323 0)
(0.64545 0.553223 0)
(0.631751 0.580564 0)
(0.624287 0.616305 0)
(0.62044 0.659562 0)
(0.619289 0.709577 0)
(0.620116 0.765589 0)
(0.622775 0.830756 0)
(0.638075 0.917251 0)
(0.680223 1.02874 0)
(0.820152 1.16111 0)
(1.13524 1.28403 0)
(3 -3.44417e-17 0)
(3 2.10956e-16 0)
(3 -1.15105e-16 0)
(3 2.87866e-17 0)
(3 2.75085e-16 0)
(3 6.69017e-16 0)
(3 2.20676e-16 0)
(3 -3.59205e-16 0)
(3 -9.04785e-16 0)
(3 -1.21793e-15 0)
(3 -1.21798e-15 0)
(3 -7.03267e-16 0)
(3 1.96282e-16 0)
(3 1.21589e-15 0)
(3 7.45942e-16 0)
(3 8.55308e-16 0)
(3 9.52007e-16 0)
(3 1.07812e-15 0)
(3 -5.51181e-16 0)
(3 -1.31893e-15 0)
(3 -1.06922e-15 0)
(3 -5.46557e-16 0)
(3 -2.34566e-16 0)
(3 5.34185e-16 0)
(3 1.6861e-15 0)
(3 -4.83303e-07 0)
(2.41684 0.408724 0)
(0.963278 0.527788 0)
(0.850323 0.469638 0)
(0.834915 0.476674 0)
(0.81829 0.489648 0)
(0.802693 0.502698 0)
(0.786434 0.515452 0)
(0.768812 0.528788 0)
(0.749998 0.541826 0)
(0.728207 0.552748 0)
(0.705728 0.564574 0)
(0.68475 0.580211 0)
(0.668902 0.603292 0)
(0.661055 0.635602 0)
(0.659883 0.676932 0)
(0.665307 0.727125 0)
(0.676841 0.785916 0)
(0.697739 0.853612 0)
(0.73119 0.937924 0)
(0.805597 1.03715 0)
(0.968143 1.14045 0)
(1.23878 1.21369 0)
(3 3.04194e-17 0)
(3 1.17162e-16 0)
(3 4.47069e-16 0)
(3 1.1811e-15 0)
(3 1.14428e-15 0)
(3 8.40637e-16 0)
(3 3.65935e-16 0)
(3 -4.73062e-16 0)
(3 -9.55858e-16 0)
(3 -1.00671e-15 0)
(3 -9.22031e-16 0)
(3 -1.08716e-15 0)
(3 -5.12443e-17 0)
(3 9.86271e-16 0)
(3 1.40309e-15 0)
(3 5.49931e-16 0)
(3 5.70841e-17 0)
(3 2.64483e-17 0)
(3 -5.50761e-17 0)
(3 -3.87256e-16 0)
(3 -5.63071e-16 0)
(3 -7.15005e-16 0)
(3 -7.56601e-16 0)
(3 -8.78033e-16 0)
(3 -7.06429e-16 0)
(3 -9.66642e-08 0)
(3.0457 0.103311 0)
(1.19224 0.515887 0)
(0.915949 0.490593 0)
(0.886041 0.500315 0)
(0.856631 0.511228 0)
(0.833248 0.520865 0)
(0.814644 0.53279 0)
(0.798528 0.546852 0)
(0.78378 0.562324 0)
(0.766785 0.576904 0)
(0.748297 0.591002 0)
(0.729602 0.606615 0)
(0.71345 0.626372 0)
(0.704385 0.654688 0)
(0.703622 0.692278 0)
(0.712997 0.739375 0)
(0.731193 0.79632 0)
(0.765885 0.861972 0)
(0.815134 0.941329 0)
(0.90968 1.02849 0)
(1.07119 1.10353 0)
(1.29635 1.14883 0)
(3 -1.89826e-17 0)
(3 8.85464e-17 0)
(3 6.61225e-16 0)
(3 7.90196e-16 0)
(3 4.96731e-16 0)
(3 2.2349e-16 0)
(3 3.53458e-17 0)
(3 -4.90171e-16 0)
(3 -6.47368e-16 0)
(3 -3.02062e-16 0)
(3 -6.43413e-16 0)
(3 -5.5403e-16 0)
(3 4.65441e-18 0)
(3 -5.10292e-16 0)
(3 2.50215e-16 0)
(3 8.64414e-16 0)
(3 7.62204e-16 0)
(3 5.274e-16 0)
(3 4.94934e-16 0)
(3 -1.92579e-16 0)
(3 -1.30639e-15 0)
(3 -1.34379e-15 0)
(3 -1.2925e-15 0)
(3 -1.27471e-15 0)
(3 -4.86427e-16 0)
(3 -8.99436e-09 0)
(3.02332 0.0020736 0)
(1.38171 0.487022 0)
(0.923258 0.545717 0)
(0.889993 0.540784 0)
(0.863073 0.542698 0)
(0.841823 0.546436 0)
(0.826021 0.555395 0)
(0.813245 0.568547 0)
(0.803879 0.584727 0)
(0.794067 0.6017 0)
(0.78278 0.618026 0)
(0.770731 0.635035 0)
(0.75877 0.653261 0)
(0.751084 0.677411 0)
(0.750756 0.709695 0)
(0.762369 0.751101 0)
(0.784411 0.802013 0)
(0.825711 0.860696 0)
(0.885986 0.931311 0)
(0.990156 1.00757 0)
(1.13916 1.06302 0)
(1.33063 1.09007 0)
(3 -1.39884e-17 0)
(3 9.64786e-17 0)
(3 2.30106e-16 0)
(3 8.82895e-17 0)
(3 -5.29458e-17 0)
(3 1.94256e-16 0)
(3 -2.05394e-16 0)
(3 -3.07194e-16 0)
(3 5.85649e-17 0)
(3 6.29507e-16 0)
(3 -5.3495e-17 0)
(3 -4.32095e-17 0)
(3 -4.62746e-16 0)
(3 -8.87053e-16 0)
(3 -9.29977e-16 0)
(3 -7.71375e-16 0)
(3 -7.70423e-16 0)
(3 -9.74916e-16 0)
(3 -4.26252e-16 0)
(3 -3.17528e-16 0)
(3 -7.97379e-16 0)
(3 -1.76292e-15 0)
(3 -1.90744e-15 0)
(3 -1.46908e-15 0)
(3 -4.59746e-17 0)
(3 -2.4484e-10 0)
(3.00033 -7.98004e-06 0)
(1.79764 0.504347 0)
(0.919436 0.563306 0)
(0.88612 0.55848 0)
(0.873407 0.564949 0)
(0.857325 0.566217 0)
(0.843104 0.571343 0)
(0.832532 0.582374 0)
(0.825088 0.597888 0)
(0.819762 0.616356 0)
(0.81412 0.635463 0)
(0.80876 0.655368 0)
(0.802911 0.675263 0)
(0.799429 0.698079 0)
(0.800608 0.725922 0)
(0.813277 0.761771 0)
(0.837266 0.805809 0)
(0.880181 0.855839 0)
(0.944447 0.914643 0)
(1.04848 0.978936 0)
(1.18251 1.02137 0)
(1.34819 1.04094 0)
(3 5.29627e-17 0)
(3 -2.21787e-16 0)
(3 -4.09991e-16 0)
(3 -3.51757e-16 0)
(3 2.92629e-16 0)
(3 8.3367e-16 0)
(3 8.66313e-16 0)
(3 9.49328e-16 0)
(3 7.84421e-16 0)
(3 5.94422e-16 0)
(3 3.41265e-16 0)
(3 -3.07359e-16 0)
(3 -1.36394e-15 0)
(3 -1.18728e-15 0)
(3 -1.20374e-15 0)
(3 -1.56379e-15 0)
(3 -1.75427e-15 0)
(3 -1.24451e-15 0)
(3 -7.29648e-16 0)
(3 -6.25868e-16 0)
(3 -4.43094e-16 0)
(3 -1.28796e-15 0)
(3 -1.29656e-15 0)
(3 -8.36816e-16 0)
(3 -5.38416e-16 0)
(3 -5.69116e-13 0)
(3.00002 -9.06746e-06 0)
(2.55429 0.399838 0)
(1.03816 0.613018 0)
(0.915443 0.558493 0)
(0.905504 0.572139 0)
(0.885897 0.582929 0)
(0.868516 0.588501 0)
(0.855933 0.598263 0)
(0.847038 0.6126 0)
(0.843005 0.630963 0)
(0.840654 0.651182 0)
(0.840707 0.672759 0)
(0.841257 0.694472 0)
(0.844393 0.717917 0)
(0.849855 0.742826 0)
(0.864106 0.773534 0)
(0.889467 0.810512 0)
(0.931967 0.85143 0)
(0.994945 0.89799 0)
(1.09164 0.949024 0)
(1.21179 0.983128 0)
(1.356 1.00025 0)
(3 -6.90855e-17 0)
(3 -1.15532e-16 0)
(3 -8.86594e-16 0)
(3 -8.76686e-16 0)
(3 -2.881e-16 0)
(3 -5.98518e-17 0)
(3 1.09489e-15 0)
(3 1.93395e-15 0)
(3 1.43698e-15 0)
(3 2.77222e-16 0)
(3 -4.31854e-18 0)
(3 -3.59135e-16 0)
(3 -8.87748e-16 0)
(3 -6.82314e-16 0)
(3 -9.82634e-16 0)
(3 -1.36698e-15 0)
(3 -1.47514e-15 0)
(3 -1.0145e-15 0)
(3 -1.18276e-15 0)
(3 -1.18879e-15 0)
(3 -2.60911e-16 0)
(3 -9.04579e-18 0)
(3 1.60856e-16 0)
(3 2.0546e-16 0)
(3 2.92778e-16 0)
(3 -3.05329e-16 0)
(3 -1.95249e-06 0)
(3.08517 0.0548889 0)
(1.32391 0.594794 0)
(0.971865 0.578737 0)
(0.947216 0.6001 0)
(0.925126 0.606034 0)
(0.903025 0.608958 0)
(0.886066 0.615883 0)
(0.874015 0.627281 0)
(0.868034 0.643735 0)
(0.866519 0.662994 0)
(0.869428 0.684606 0)
(0.874637 0.707405 0)
(0.883809 0.731776 0)
(0.895722 0.75648 0)
(0.91291 0.783589 0)
(0.940001 0.814928 0)
(0.981943 0.848229 0)
(1.04112 0.884261 0)
(1.12613 0.921653 0)
(1.23238 0.948776 0)
(1.35675 0.964342 0)
(3 -1.51674e-17 0)
(3 1.92357e-17 0)
(3 2.79172e-17 0)
(3 1.08847e-16 0)
(3 -2.43086e-16 0)
(3 -7.0105e-16 0)
(3 -1.29145e-16 0)
(3 5.11517e-16 0)
(3 7.31115e-16 0)
(3 3.33e-16 0)
(3 3.42089e-16 0)
(3 4.94807e-16 0)
(3 2.52124e-16 0)
(3 -1.59726e-16 0)
(3 -6.32702e-16 0)
(3 -1.33923e-15 0)
(3 -2.86261e-16 0)
(3 5.30495e-16 0)
(3 3.60509e-17 0)
(3 1.93524e-16 0)
(3 5.79038e-16 0)
(3 9.31898e-16 0)
(3 1.18047e-15 0)
(3 7.35634e-16 0)
(3 8.81774e-16 0)
(3 8.22503e-16 0)
(3 -1.89872e-07 0)
(3.01008 0.000192755 0)
(1.61702 0.572935 0)
(0.966171 0.643085 0)
(0.943847 0.628404 0)
(0.934534 0.632612 0)
(0.923574 0.636985 0)
(0.911846 0.640804 0)
(0.901003 0.647457 0)
(0.894213 0.659591 0)
(0.892616 0.675705 0)
(0.896566 0.69513 0)
(0.904797 0.716858 0)
(0.917425 0.740921 0)
(0.93528 0.766128 0)
(0.956958 0.792192 0)
(0.987263 0.819794 0)
(1.02938 0.847282 0)
(1.08487 0.875255 0)
(1.15827 0.901231 0)
(1.25178 0.922057 0)
(1.35705 0.934305 0)
(3 -2.8647e-17 0)
(3 -1.42677e-16 0)
(3 4.74189e-16 0)
(3 1.28585e-15 0)
(3 8.12221e-16 0)
(3 2.53331e-16 0)
(3 -7.60072e-16 0)
(3 -8.78276e-16 0)
(3 -5.72834e-16 0)
(3 -2.09495e-16 0)
(3 2.12088e-16 0)
(3 -2.26602e-16 0)
(3 -7.56177e-16 0)
(3 -1.20548e-15 0)
(3 -1.05928e-15 0)
(3 -1.01757e-15 0)
(3 -5.91491e-16 0)
(3 3.12371e-17 0)
(3 7.03681e-18 0)
(3 4.64326e-16 0)
(3 4.74172e-16 0)
(3 8.2504e-16 0)
(3 1.44693e-15 0)
(3 1.23714e-15 0)
(3 1.70461e-15 0)
(3 1.91255e-15 0)
(3 -5.74325e-09 0)
(3.00007 -2.4032e-06 0)
(2.36291 0.500323 0)
(1.04663 0.675252 0)
(0.96973 0.627988 0)
(0.96372 0.636718 0)
(0.954175 0.649551 0)
(0.943231 0.658035 0)
(0.933024 0.665219 0)
(0.925429 0.675102 0)
(0.922436 0.687993 0)
(0.925104 0.70478 0)
(0.934193 0.724362 0)
(0.948204 0.74643 0)
(0.968747 0.770357 0)
(0.994462 0.795914 0)
(1.02853 0.822186 0)
(1.07204 0.845831 0)
(1.12413 0.867462 0)
(1.18888 0.886451 0)
(1.27087 0.90227 0)
(1.36052 0.909992 0)
(3 -9.37896e-18 0)
(3 5.94989e-17 0)
(3 1.17441e-16 0)
(3 1.80127e-16 0)
(3 5.04566e-18 0)
(3 -5.01591e-16 0)
(3 -6.32936e-16 0)
(3 -8.44421e-16 0)
(3 -7.99563e-16 0)
(3 -5.4946e-16 0)
(3 -3.3894e-16 0)
(3 -2.83774e-16 0)
(3 -3.13949e-16 0)
(3 -2.51097e-16 0)
(3 -3.65115e-16 0)
(3 -1.87717e-16 0)
(3 -5.48612e-16 0)
(3 -1.03803e-15 0)
(3 -2.13376e-16 0)
(3 2.8953e-16 0)
(3 7.02979e-16 0)
(3 9.55323e-16 0)
(3 9.52135e-16 0)
(3 1.01444e-15 0)
(3 1.20486e-15 0)
(3 1.46214e-15 0)
(3 -1.29188e-11 0)
(3.00001 -3.14564e-06 0)
(3.07869 0.0927612 0)
(1.3356 0.650006 0)
(1.02544 0.64347 0)
(1.00787 0.660265 0)
(0.993213 0.668633 0)
(0.979102 0.676571 0)
(0.968121 0.683587 0)
(0.959802 0.692591 0)
(0.955527 0.703313 0)
(0.956233 0.716156 0)
(0.964118 0.732952 0)
(0.97839 0.752402 0)
(0.999463 0.773415 0)
(1.02681 0.796741 0)
(1.06292 0.821404 0)
(1.10831 0.844205 0)
(1.1585 0.862615 0)
(1.21836 0.877367 0)
(1.29023 0.888172 0)
(1.36827 0.891021 0)
(3 -1.86097e-17 0)
(3 -1.58452e-16 0)
(3 -6.42668e-16 0)
(3 -8.75644e-16 0)
(3 -8.83157e-16 0)
(3 -7.35924e-16 0)
(3 -1.90141e-16 0)
(3 6.23958e-17 0)
(3 1.20811e-16 0)
(3 7.68507e-17 0)
(3 -2.74313e-16 0)
(3 -1.86721e-16 0)
(3 6.11734e-16 0)
(3 5.76737e-16 0)
(3 2.38131e-16 0)
(3 3.83722e-16 0)
(3 3.20978e-16 0)
(3 3.42627e-16 0)
(3 1.03588e-15 0)
(3 1.5806e-15 0)
(3 1.85684e-15 0)
(3 2.18473e-15 0)
(3 1.88823e-15 0)
(3 1.8853e-15 0)
(3 1.40069e-15 0)
(3 8.40896e-16 0)
(3 -1.19701e-14 0)
(3 -6.46887e-07 0)
(3.01664 0.000699252 0)
(1.64955 0.619284 0)
(1.02735 0.70139 0)
(1.01039 0.690487 0)
(1.00237 0.693055 0)
(0.997501 0.698499 0)
(0.993023 0.705079 0)
(0.989383 0.712084 0)
(0.987739 0.720329 0)
(0.989335 0.729406 0)
(0.996052 0.741592 0)
(1.00911 0.757931 0)
(1.02955 0.776443 0)
(1.05659 0.795937 0)
(1.09181 0.817495 0)
(1.13639 0.838993 0)
(1.18563 0.855861 0)
(1.24368 0.869401 0)
(1.3086 0.87804 0)
(1.37911 0.878642 0)
(3 2.29678e-17 0)
(3 -9.96983e-17 0)
(3 -4.69649e-16 0)
(3 -1.00627e-15 0)
(3 -7.0179e-16 0)
(3 -3.51004e-16 0)
(3 -3.22092e-16 0)
(3 2.91871e-16 0)
(3 7.93097e-16 0)
(3 7.82154e-16 0)
(3 2.7796e-16 0)
(3 -3.06013e-16 0)
(3 6.48373e-17 0)
(3 2.12876e-16 0)
(3 8.82139e-16 0)
(3 1.15163e-15 0)
(3 9.89464e-16 0)
(3 1.22097e-15 0)
(3 1.0994e-15 0)
(3 8.02532e-16 0)
(3 1.79533e-15 0)
(3 2.16415e-15 0)
(3 2.26406e-15 0)
(3 2.33311e-15 0)
(3 2.0342e-15 0)
(3 1.67713e-15 0)
(3 1.54715e-15 0)
(3 -5.18297e-08 0)
(3.00015 -2.0153e-06 0)
(2.47875 0.466007 0)
(1.13401 0.728773 0)
(1.03178 0.696481 0)
(1.02219 0.700564 0)
(1.01874 0.708246 0)
(1.0172 0.716016 0)
(1.01672 0.724891 0)
(1.01813 0.734017 0)
(1.02195 0.74328 0)
(1.02911 0.753793 0)
(1.04122 0.765841 0)
(1.05999 0.780987 0)
(1.08565 0.797923 0)
(1.11905 0.815953 0)
(1.16051 0.83362 0)
(1.20752 0.84803 0)
(1.26297 0.860264 0)
(1.323 0.86748 0)
(1.38922 0.867722 0)
(3 2.30345e-16 0)
(3 2.82872e-16 0)
(3 1.05119e-16 0)
(3 2.01047e-16 0)
(3 6.57579e-17 0)
(3 2.77229e-17 0)
(3 -1.11685e-16 0)
(3 -4.47739e-16 0)
(3 -2.08863e-16 0)
(3 4.56218e-16 0)
(3 9.27808e-16 0)
(3 4.98539e-16 0)
(3 4.02198e-16 0)
(3 8.64521e-16 0)
(3 1.51546e-15 0)
(3 1.4608e-15 0)
(3 1.41835e-15 0)
(3 8.62219e-16 0)
(3 1.97002e-16 0)
(3 -2.21985e-16 0)
(3 -4.81892e-17 0)
(3 6.38626e-16 0)
(3 1.72254e-15 0)
(3 1.76703e-15 0)