/*--------------------------------*- C++ -*----------------------------------*\
  =========                 |
  \\      /  F ield         | OpenFOAM: The Open Source CFD Toolbox
   \\    /   O peration     | Website:  https://openfoam.org
    \\  /    A nd           | Version:  7
     \\/     M anipulation  |
\*---------------------------------------------------------------------------*/
FoamFile
{
    version     2.0;
    format      ascii;
    class       volScalarField;
    location    "1.9";
    object      p;
}
// * * * * * * * * * * * * * * * * * * * * * * * * * * * * * * * * * * * * * //

dimensions      [1 -1 -2 0 0 0 0];

internalField   nonuniform List<scalar> 
64512
(
1
1
1
1
1
1
1
1
1
1
1
1
1
1
1
1
1
1
1
1
1
1
1
1
1
1
1
1
1
1
1
1
1
1
1
1
1
1
1
1
1
1
1
1
1
1
1
1
1
1
4.72349
10.2529
10.5403
10.5793
10.636
10.6998
10.7708
10.8414
10.9081
10.9698
11.0265
11.0779
11.1213
11.1577
11.1907
11.2245
11.2621
11.305
11.3523
11.4011
11.4484
11.4917
11.5309
11.5665
11.6012
11.6387
11.6787
11.7169
11.7506
11.78
11.8078
11.8368
11.8661
11.8926
11.9123
11.9261
11.9396
11.9593
11.9877
12.019
12.0466
12.0648
12.0776
12.0859
12.0913
12.0949
1
1
1
1
1
1
1
1
1
1
1
1
1
1
1
1
1
1
1
1
1
1
1
1
1
1
1
1
1
1
1
1
1
1
1
1
1
1
1
1
1
1
1
1
1
1
1
1
1
1
4.69
10.2428
10.5341
10.5774
10.6343
10.698
10.7685
10.8388
10.9056
10.9675
11.0242
11.0754
11.1188
11.1554
11.1889
11.2232
11.2612
11.3041
11.3504
11.3982
11.4448
11.488
11.5279
11.5649
11.6011
11.6393
11.6788
11.716
11.7486
11.7775
11.8054
11.8344
11.8633
11.8892
11.9085
11.9225
11.9372
11.9583
11.9869
12.0181
12.0449
12.0622
12.0744
12.0816
12.0856
12.0885
1
1
1
1
1
1
1
1
1
1
1
1
1
1
1
1
1
1
1
1
1
1
1
1
1
1
1
1
1
1
1
1
1
1
1
1
1
1
1
1
1
1
1
1
1
1
1
1
1
1
4.60613
10.2289
10.5292
10.5695
10.6293
10.6928
10.7623
10.8322
10.8991
10.9613
11.0188
11.0708
11.1147
11.1516
11.1857
11.2207
11.2591
11.3021
11.3478
11.3945
11.4401
11.4821
11.5223
11.5609
11.5993
11.6388
11.6783
11.7142
11.7456
11.7738
11.8016
11.8306
11.8593
11.8848
11.9038
11.918
11.9338
11.9557
11.9842
12.0149
12.041
12.0581
12.0697
12.0755
12.0775
12.0789
1
1
1
1
1
1
1
1
1
1
1
1
1
1
1
1
1
1
1
1
1
1
1
1
1
1
1
1
1
1
1
1
1
1
1
1
1
1
1
1
1
1
1
1
1
1
1
1
1
1
4.48214
10.2131
10.5202
10.5605
10.6221
10.6859
10.7546
10.8237
10.8901
10.952
11.0103
11.0635
11.1081
11.1453
11.1799
11.2154
11.254
11.2972
11.3426
11.3888
11.4337
11.4748
11.5151
11.5549
11.5955
11.6364
11.676
11.711
11.7411
11.7686
11.7961
11.8248
11.853
11.8779
11.8969
11.912
11.9292
11.9522
11.9805
12.0099
12.0345
12.0511
12.0615
12.0657
12.0659
12.0659
1
1
1
1
1
1
1
1
1
1
1
1
1
1
1
1
1
1
1
1
1
1
1
1
1
1
1
1
1
1
1
1
1
1
1
1
1
1
1
1
1
1
1
1
1
1
1
1
1
1
4.32707
10.1822
10.5075
10.548
10.6121
10.6767
10.7454
10.8141
10.8802
10.9417
11.0008
11.0555
11.1014
11.1392
11.174
11.2092
11.2471
11.2899
11.3351
11.3815
11.4268
11.4673
11.5069
11.5467
11.5885
11.6305
11.6705
11.7055
11.7353
11.7624
11.7894
11.8173
11.8444
11.8689
11.8884
11.905
11.9239
11.9476
11.9752
12.0027
12.0252
12.041
12.0503
12.0532
12.0521
12.0511
1
1
1
1
1
1
1
1
1
1
1
1
1
1
1
1
1
1
1
1
1
1
1
1
1
1
1
1
1
1
1
1
1
1
1
1
1
1
1
1
1
1
1
1
1
1
1
1
1
1
4.13681
10.133
10.4951
10.5347
10.6013
10.6664
10.7356
10.8046
10.8702
10.9306
10.9895
11.045
11.0923
11.1312
11.1668
11.2016
11.2382
11.2797
11.3248
11.3721
11.4189
11.4598
11.4985
11.537
11.5781
11.62
11.6608
11.6969
11.7277
11.7551
11.7815
11.8079
11.8335
11.8574
11.878
11.8968
11.9176
11.9417
11.9681
11.993
12.0129
12.0274
12.0356
12.0381
12.0367
12.0354
1
1
1
1
1
1
1
1
1
1
1
1
1
1
1
1
1
1
1
1
1
1
1
1
1
1
1
1
1
1
1
1
1
1
1
1
1
1
1
1
1
1
1
1
1
1
1
1
1
1
3.90836
10.0596
10.4852
10.5238
10.5924
10.6567
10.7254
10.7943
10.8593
10.9186
10.9771
11.0331
11.0818
11.1224
11.1592
11.1935
11.2286
11.268
11.3124
11.3608
11.4098
11.4519
11.4901
11.5263
11.5652
11.6058
11.647
11.685
11.718
11.7465
11.7724
11.797
11.8205
11.8434
11.8652
11.8866
11.9094
11.9334
11.9582
11.9804
11.9972
12.0102
12.0178
12.0207
12.0201
12.0192
1
1
1
1
1
1
1
1
1
1
1
1
1
1
1
1
1
1
1
1
1
1
1
1
1
1
1
1
1
1
1
1
1
1
1
1
1
1
1
1
1
1
1
1
1
1
1
1
1
1
3.6424
9.9536
10.4794
10.517
10.5844
10.6464
10.7138
10.7823
10.8466
10.9056
10.9641
11.0206
11.0707
11.1131
11.151
11.1848
11.2181
11.2549
11.298
11.3472
11.3984
11.4423
11.4805
11.5145
11.5506
11.589
11.6298
11.6694
11.7047
11.7349
11.7608
11.7839
11.8056
11.8276
11.8504
11.8744
11.8991
11.923
11.946
11.9652
11.9789
11.9901
11.9973
12.001
12.0018
12.0018
1
1
1
1
1
1
1
1
1
1
1
1
1
1
1
1
1
1
1
1
1
1
1
1
1
1
1
1
1
1
1
1
1
1
1
1
1
1
1
1
1
1
1
1
1
1
1
1
1
1
3.34753
9.80603
10.4728
10.5122
10.5788
10.6384
10.7036
10.7706
10.8337
10.8923
10.95
11.0062
11.057
11.1008
11.1398
11.1736
11.206
11.2411
11.2828
11.3322
11.3846
11.4295
11.4685
11.5014
11.5356
11.572
11.6117
11.6515
11.6882
11.7199
11.7462
11.7686
11.789
11.8102
11.8333
11.8588
11.8848
11.9088
11.9305
11.9472
11.9582
11.9677
11.9744
11.979
11.9814
11.9825
1
1
1
1
1
1
1
1
1
1
1
1
1
1
1
1
1
1
1
1
1
1
1
1
1
1
1
1
1
1
1
1
1
1
1
1
1
1
1
1
1
1
1
1
1
1
1
1
1
1
3.03534
9.61725
10.4623
10.5042
10.5718
10.6303
10.6939
10.7592
10.8198
10.8767
10.9337
10.9901
11.0418
11.0872
11.1271
11.1612
11.1931
11.2272
11.2673
11.3158
11.3676
11.4128
11.4529
11.4864
11.5201
11.5554
11.5935
11.6322
11.6685
11.7005
11.7274
11.7501
11.7704
11.7912
11.814
11.8397
11.8662
11.8905
11.9117
11.9269
11.9359
11.9439
11.9501
11.9553
11.9591
11.9611
1
1
1
1
1
1
1
1
1
1
1
1
1
1
1
1
1
1
1
1
1
1
1
1
1
1
1
1
1
1
1
1
1
1
1
1
1
1
1
1
1
1
1
1
1
1
1
1
1
1
2.70344
9.3808
10.4529
10.496
10.5632
10.6201
10.6817
10.7448
10.8042
10.8606
10.9173
10.9737
11.0256
11.0713
11.1113
11.1454
11.1774
11.2116
11.2508
11.2982
11.3481
11.3929
11.434
11.4692
11.5037
11.5387
11.5753
11.6118
11.6462
11.6775
11.7047
11.7283
11.7494
11.7704
11.7927
11.8175
11.8437
11.8681
11.8893
11.904
11.9121
11.9188
11.924
11.9291
11.9336
11.9364
1
1
1
1
1
1
1
1
1
1
1
1
1
1
1
1
1
1
1
1
1
1
1
1
1
1
1
1
1
1
1
1
1
1
1
1
1
1
1
1
1
1
1
1
1
1
1
1
1
1
2.36125
9.08913
10.4499
10.4905
10.554
10.6095
10.67
10.7308
10.7876
10.8419
10.8978
10.9541
11.0064
11.0529
11.0931
11.1276
11.1603
11.1952
11.2337
11.2794
11.3269
11.3711
11.413
11.4501
11.4858
11.521
11.5563
11.5904
11.6223
11.652
11.6788
11.7032
11.7255
11.7472
11.769
11.7928
11.8179
11.842
11.8632
11.8781
11.886
11.8917
11.8959
11.9004
11.905
11.9082
1
1
1
1
1
1
1
1
1
1
1
1
1
1
1
1
1
1
1
1
1
1
1
1
1
1
1
1
1
1
1
1
1
1
1
1
1
1
1
1
1
1
1
1
1
1
1
1
1
1
2.02997
8.73778
10.4507
10.4858
10.5466
10.6001
10.6588
10.7163
10.7699
10.8224
10.8773
10.9334
10.9861
11.0333
11.074
11.1087
11.142
11.1773
11.2152
11.2594
11.3047
11.348
11.3905
11.4288
11.4653
11.5003
11.5343
11.5662
11.596
11.6244
11.651
11.6758
11.699
11.7213
11.743
11.7656
11.7894
11.8123
11.8331
11.8483
11.8565
11.8619
11.8655
11.8696
11.8739
11.8774
1
1
1
1
1
1
1
1
1
1
1
1
1
1
1
1
1
1
1
1
1
1
1
1
1
1
1
1
1
1
1
1
1
1
1
1
1
1
1
1
1
1
1
1
1
1
1
1
1
1
1.71619
8.31248
10.4569
10.4841
10.5376
10.5886
10.6457
10.7007
10.752
10.8026
10.8561
10.9115
10.9646
11.0123
11.0531
11.0882
11.1221
11.1577
11.1954
11.238
11.2812
11.3237
11.3668
11.4059
11.4425
11.4766
11.5092
11.5392
11.5674
11.5949
11.621
11.6458
11.6691
11.6917
11.7135
11.7356
11.7582
11.7798
11.7996
11.8147
11.8231
11.8288
11.8323
11.836
11.8398
11.8434
1
1
1
1
1
1
1
1
1
1
1
1
1
1
1
1
1
1
1
1
1
1
1
1
1
1
1
1
1
1
1
1
1
1
1
1
1
1
1
1
1
1
1
1
1
1
1
1
1
1
1.44112
7.81952
10.4546
10.4679
10.5226
10.5728
10.629
10.6824
10.7319
10.7808
10.8328
10.8871
10.9396
10.9869
11.0278
11.0641
11.0997
11.137
11.1757
11.2172
11.2586
11.3004
11.3437
11.383
11.4184
11.4502
11.4799
11.5076
11.5346
11.5621
11.5888
11.6138
11.6369
11.6592
11.6811
11.7031
11.7249
11.7452
11.7636
11.7776
11.7854
11.7912
11.7951
11.7989
11.8023
11.8059
1
1
1
1
1
1
1
1
1
1
1
1
1
1
1
1
1
1
1
1
1
1
1
1
1
1
1
1
1
1
1
1
1
1
1
1
1
1
1
1
1
1
1
1
1
1
1
1
1
1
1.19066
7.26292
10.4583
10.4511
10.5027
10.5532
10.6087
10.6622
10.7118
10.7603
10.8109
10.8638
10.9148
10.9604
11.0003
11.0371
11.0744
11.1133
11.1526
11.1921
11.2313
11.2716
11.3144
11.3542
11.3894
11.4199
11.4475
11.473
11.4991
11.5267
11.5542
11.5794
11.6022
11.6242
11.6461
11.6682
11.6893
11.7082
11.7246
11.7364
11.743
11.7489
11.7535
11.758
11.7614
11.7651
1
1
1
1
1
1
1
1
1
1
1
1
1
1
1
1
1
1
1
1
1
1
1
1
1
1
1
1
1
1
1
1
1
1
1
1
1
1
1
1
1
1
1
1
1
1
1
1
1
1
1.00992
6.62484
10.4051
10.4205
10.4756
10.5311
10.5869
10.6395
10.6886
10.737
10.7874
10.8394
10.8889
10.9318
10.9695
11.0067
11.0461
11.0881
11.1294
11.1686
11.2062
11.2445
11.2858
11.3251
11.3595
11.3883
11.4128
11.4353
11.4596
11.4873
11.5161
11.5425
11.5655
11.5868
11.6076
11.6288
11.649
11.6666
11.6813
11.6911
11.6963
11.7022
11.7078
11.7131
11.7167
11.7204
1
1
1
1
1
1
1
1
1
1
1
1
1
1
1
1
1
1
1
1
1
1
1
1
1
1
1
1
1
1
1
1
1
1
1
1
1
1
1
1
1
1
1
1
1
1
1
1
1
1
1.00007
5.85856
10.2936
10.386
10.4491
10.5096
10.5653
10.6172
10.6661
10.7144
10.7645
10.8155
10.8634
10.9042
10.9401
10.9775
11.0178
11.0611
11.103
11.1409
11.1767
11.2127
11.2522
11.2912
11.3257
11.354
11.3766
11.3968
11.4192
11.4456
11.4743
11.5009
11.5236
11.544
11.5638
11.5841
11.6037
11.6209
11.6349
11.6432
11.6469
11.6519
11.6573
11.6626
11.6659
11.669
1
1
1
1
1
1
1
1
1
1
1
1
1
1
1
1
1
1
1
1
1
1
1
1
1
1
1
1
1
1
1
1
1
1
1
1
1
1
1
1
1
1
1
1
1
1
1
1
1
1
1
5.03968
10.151
10.3572
10.4237
10.4872
10.5422
10.5924
10.6408
10.689
10.7385
10.7884
10.8357
10.8758
10.9109
10.9483
10.9888
11.0315
11.0729
11.1094
11.1439
11.1786
11.2168
11.2557
11.2903
11.3178
11.3382
11.3555
11.3752
11.3998
11.4278
11.4545
11.4772
11.497
11.5157
11.5348
11.5536
11.5703
11.5838
11.591
11.5933
11.597
11.6015
11.6061
11.609
11.6112
1
1
1
1
1
1
1
1
1
1
1
1
1
1
1
1
1
1
1
1
1
1
1
1
1
1
1
1
1
1
1
1
1
1
1
1
1
1
1
1
1
1
1
1
1
1
1
1
1
1
1
4.19669
9.93793
10.338
10.4015
10.4657
10.5214
10.5723
10.6198
10.6662
10.7133
10.7608
10.8076
10.8486
10.8844
10.9222
10.962
11.0025
11.042
11.0762
11.1089
11.1418
11.1782
11.2161
11.25
11.2771
11.2967
11.3127
11.3308
11.3535
11.3795
11.4045
11.4256
11.4441
11.4615
11.4794
11.4975
11.5139
11.5275
11.5343
11.5357
11.5378
11.5405
11.5432
11.5448
11.5458
1
1
1
1
1
1
1
1
1
1
1
1
1
1
1
1
1
1
1
1
1
1
1
1
1
1
1
1
1
1
1
1
1
1
1
1
1
1
1
1
1
1
1
1
1
1
1
1
1
1
1
3.39889
9.60567
10.3302
10.382
10.4393
10.4945
10.5478
10.5966
10.6428
10.6876
10.7321
10.7773
10.8197
10.8576
10.8964
10.9359
10.9738
11.0107
11.0422
11.0727
11.1036
11.1379
11.1741
11.2068
11.2332
11.2523
11.2677
11.2845
11.3053
11.3288
11.351
11.3694
11.3861
11.4018
11.4181
11.435
11.4508
11.4643
11.471
11.4721
11.4728
11.4733
11.4736
11.4734
11.4731
1
1
1
1
1
1
1
1
1
1
1
1
1
1
1
1
1
1
1
1
1
1
1
1
1
1
1
1
1
1
1
1
1
1
1
1
1
1
1
1
1
1
1
1
1
1
1
1
1
1
1
2.64642
9.12492
10.3197
10.3733
10.4357
10.4874
10.5369
10.5806
10.6211
10.6611
10.7014
10.7443
10.7879
10.828
10.8682
10.9077
10.9439
10.9786
11.0077
11.0357
11.0642
11.0955
11.129
11.1596
11.1851
11.2043
11.2203
11.2367
11.2559
11.2764
11.2945
11.3094
11.3235
11.3367
11.3508
11.3662
11.381
11.3942
11.4013
11.4023
11.4012
11.3989
11.3959
11.393
11.3908
1
1
1
1
1
1
1
1
1
1
1
1
1
1
1
1
1
1
1
1
1
1
1
1
1
1
1
1
1
1
1
1
1
1
1
1
1
1
1
1
1
1
1
1
1
1
1
1
1
1
1
1.94386
8.51346
10.3801
10.3506
10.4083
10.4587
10.5116
10.5575
10.5984
10.6363
10.6718
10.7102
10.752
10.7926
10.8337
10.8741
10.9105
10.9442
10.9723
10.9982
11.0238
11.0512
11.0811
11.109
11.1333
11.1532
11.1702
11.1864
11.204
11.2214
11.2347
11.246
11.2564
11.2668
11.2776
11.2902
11.3029
11.3147
11.3213
11.3221
11.3197
11.3151
11.3094
11.3042
11.3007
1
1
1
1
1
1
1
1
1
1
1
1
1
1
1
1
1
1
1
1
1
1
1
1
1
1
1
1
1
1
1
1
1
1
1
1
1
1
1
1
1
1
1
1
1
1
1
1
1
1
1
1.34008
7.73515
10.4398
10.3592
10.3943
10.4357
10.4832
10.5265
10.5666
10.6054
10.6422
10.679
10.7174
10.755
10.7937
10.8336
10.871
10.9054
10.9343
10.9589
10.9819
11.0051
11.0309
11.0558
11.0789
11.0994
11.117
11.1325
11.1482
11.1625
11.1715
11.179
11.1848
11.192
11.1989
11.2079
11.2174
11.2269
11.2323
11.2325
11.2283
11.2206
11.2111
11.2027
11.1969
1
1
1
1
1
1
1
1
1
1
1
1
1
1
1
1
1
1
1
1
1
1
1
1
1
1
1
1
1
1
1
1
1
1
1
1
1
1
1
1
1
1
1
1
1
1
1
1
1
1
1
1.01713
6.88251
10.305
10.2482
10.3266
10.3869
10.4442
10.4912
10.5329
10.5721
10.608
10.6436
10.6804
10.7161
10.752
10.79
10.8267
10.8608
10.8911
10.9156
10.9371
10.9571
10.9788
11.0008
11.0223
11.0428
11.0604
11.0748
11.0883
11.0995
11.1045
11.1072
11.1092
11.1119
11.1145
11.1186
11.1235
11.1281
11.1294
11.1271
11.1205
11.1104
11.0989
11.0887
11.0822
1
1
1
1
1
1
1
1
1
1
1
1
1
1
1
1
1
1
1
1
1
1
1
1
1
1
1
1
1
1
1
1
1
1
1
1
1
1
1
1
1
1
1
1
1
1
1
1
1
1
1
1.00007
5.75281
10.0546
10.2035
10.294
10.3634
10.4197
10.4653
10.5069
10.5449
10.5798
10.6142
10.6478
10.679
10.7096
10.7428
10.7784
10.8119
10.8427
10.867
10.8876
10.9056
10.9244
10.944
10.9636
10.983
10.9998
11.0126
11.0237
11.0316
11.0327
11.0308
11.0282
11.0259
11.0236
11.022
11.0209
11.019
11.0151
11.0091
10.9989
10.9845
10.9679
10.9532
10.9432
1
1
1
1
1
1
1
1
1
1
1
1
1
1
1
1
1
1
1
1
1
1
1
1
1
1
1
1
1
1
1
1
1
1
1
1
1
1
1
1
1
1
1
1
1
1
1
1
1
1
1
1
4.65708
9.80833
10.1563
10.2504
10.3312
10.3892
10.4342
10.4737
10.5088
10.5408
10.5735
10.6074
10.6397
10.6683
10.6987
10.7299
10.7591
10.7884
10.8126
10.8329
10.8504
10.8672
10.8848
10.9021
10.9193
10.934
10.945
10.9539
10.959
10.9565
10.9493
10.9414
10.9336
10.926
10.9178
10.9087
10.8977
10.8854
10.8708
10.8528
10.8322
10.8116
10.7946
10.7849
1
1
1
1
1
1
1
1
1
1
1
1
1
1
1
1
1
1
1
1
1
1
1
1
1
1
1
1
1
1
1
1
1
1
1
1
1
1
1
1
1
1
1
1
1
1
1
1
1
1
1
1
3.56222
9.39282
10.1434
10.2513
10.3304
10.381
10.4179
10.4491
10.4778
10.5061
10.5364
10.5677
10.5975
10.624
10.6501
10.6804
10.7078
10.7331
10.754
10.7723
10.7898
10.8066
10.8226
10.8375
10.8507
10.862
10.8706
10.8777
10.8809
10.8751
10.8625
10.8481
10.8337
10.8197
10.8043
10.7858
10.7637
10.7405
10.7162
10.6895
10.6596
10.6268
10.5972
10.5762
1
1
1
1
1
1
1
1
1
1
1
1
1
1
1
1
1
1
1
1
1
1
1
1
1
1
1
1
1
1
1
1
1
1
1
1
1
1
1
1
1
1
1
1
1
1
1
1
1
1
1
1
2.47068
8.72777
10.2385
10.2599
10.3054
10.3433
10.379
10.4129
10.443
10.4703
10.4985
10.5283
10.5577
10.5836
10.6064
10.6301
10.653
10.6741
10.6926
10.7083
10.7255
10.742
10.7567
10.7687
10.7773
10.7836
10.7891
10.7947
10.7966
10.7881
10.7705
10.7492
10.7266
10.7046
10.6805
10.6513
10.6169
10.5791
10.5378
10.4912
10.4394
10.3884
10.3462
10.3275
1
1
1
1
1
1
1
1
1
1
1
1
1
1
1
1
1
1
1
1
1
1
1
1
1
1
1
1
1
1
1
1
1
1
1
1
1
1
1
1
1
1
1
1
1
1
1
1
1
1
1
1
1.52068
8.01269
10.36
10.2336
10.2546
10.2969
10.3416
10.3791
10.4078
10.4319
10.4582
10.4875
10.5173
10.5433
10.5636
10.5827
10.6018
10.6192
10.6335
10.6467
10.6605
10.676
10.6888
10.697
10.6992
10.7
10.7015
10.7045
10.7045
10.6939
10.6719
10.6435
10.612
10.5803
10.5458
10.5041
10.4545
10.3977
10.3347
10.2655
10.1921
10.1132
10.028
9.95337
1
1
1
1
1
1
1
1
1
1
1
1
1
1
1
1
1
1
1
1
1
1
1
1
1
1
1
1
1
1
1
1
1
1
1
1
1
1
1
1
1
1
1
1
1
1
1
1
1
1
1
1
1.03279
6.95762
10.2334
10.177
10.2238
10.2658
10.3029
10.3394
10.3685
10.3923
10.4172
10.4453
10.4743
10.4999
10.5187
10.5344
10.5495
10.5638
10.5758
10.5874
10.5989
10.6099
10.6194
10.6238
10.6195
10.6142
10.6102
10.6083
10.6049
10.5921
10.5662
10.531
10.4905
10.4479
10.4009
10.3444
10.2766
10.1982
10.1082
10.0027
9.87071
9.70954
9.54863
9.43032
1
1
1
1
1
1
1
1
1
1
1
1
1
1
1
1
1
1
1
1
1
1
1
1
1
1
1
1
1
1
1
1
1
1
1
1
1
1
1
1
1
1
1
1
1
1
1
1
1
1
1
1
1.0001
5.57039
9.90637
10.0922
10.161
10.2094
10.2543
10.2922
10.3234
10.3495
10.3747
10.4019
10.4301
10.4554
10.4735
10.4869
10.4984
10.5086
10.5177
10.5272
10.5366
10.5444
10.5506
10.5513
10.5414
10.5294
10.5175
10.5085
10.4996
10.483
10.453
10.4113
10.3619
10.3077
10.2465
10.173
10.084
9.97829
9.85103
9.69406
9.49832
9.25819
8.99586
8.82691
1
1
1
1
1
1
1
1
1
1
1
1
1
1
1
1
1
1
1
1
1
1
1
1
1
1
1
1
1
1
1
1
1
1
1
1
1
1
1
1
1
1
1
1
1
1
1
1
1
1
1
1
0.999999
4.27822
9.59782
10.0525
10.1203
10.1792
10.2208
10.2477
10.2759
10.3028
10.329
10.3556
10.3826
10.4066
10.424
10.4363
10.4453
10.4517
10.4579
10.4651
10.4719
10.4763
10.48
10.4782
10.4648
10.4463
10.4262
10.4082
10.3913
10.3691
10.3341
10.2859
10.2274
10.1609
10.0843
9.992
9.87871
9.74162
9.57332
9.3618
9.07412
8.63668
7.79087
5.836
1
1
1
1
1
1
1
1
1
1
1
1
1
1
1
1
1
1
1
1
1
1
1
1
1
1
1
1
1
1
1
1
1
1
1
1
1
1
1
1
1
1
1
1
1
1
1
1
1
1
1
1
1
2.97978
8.95799
10.0383
10.0872
10.1391
10.1823
10.2159
10.2429
10.265
10.2858
10.3074
10.3307
10.3529
10.3705
10.3837
10.3919
10.3951
10.3978
10.4016
10.4054
10.4066
10.4079
10.4035
10.3879
10.3639
10.3362
10.309
10.2826
10.2531
10.212
10.1566
10.0883
10.0087
9.91561
9.80345
9.66487
9.49415
9.27968
8.99584
8.59304
7.95212
6.97801
4.76466
1
1
1
1
1
1
1
1
1
1
1
1
1
1
1
1
1
1
1
1
1
1
1
1
1
1
1
1
1
1
1
1
1
1
1
1
1
1
1
1
1
1
1
1
1
1
1
1
1
1
1
1
1
1.80161
8.22839
10.1387
10.0614
10.0908
10.141
10.1799
10.2082
10.2296
10.2472
10.2633
10.281
10.2999
10.3167
10.3302
10.3376
10.3377
10.3365
10.3365
10.3372
10.3355
10.3339
10.3267
10.3085
10.2799
10.2455
10.21
10.1746
10.1368
10.0889
10.0258
9.94689
9.85343
9.74335
9.61111
9.44722
9.24353
8.98314
8.64224
8.14804
7.49309
6.20975
4.38903
1
1
1
1
1
1
1
1
1
1
1
1
1
1
1
1
1
1
1
1
1
1
1
1
1
1
1
1
1
1
1
1
1
1
1
1
1
1
1
1
1
1
1
1
1
1
1
1
1
1
1
1
1
1.07469
7.01254
10.148
10.0573
10.0713
10.1023
10.1422
10.1704
10.1903
10.2052
10.2174
10.2304
10.246
10.2622
10.2754
10.2823
10.2798
10.2749
10.2707
10.268
10.2639
10.2594
10.249
10.2278
10.1946
10.1539
10.1109
10.0672
10.0209
9.96551
9.89432
9.80444
9.69694
9.56996
9.41882
9.2313
8.99903
8.69981
8.31601
7.77506
7.0275
5.78059
4.27427
1
1
1
1
1
1
1
1
1
1
1
1
1
1
1
1
1
1
1
1
1
1
1
1
1
1
1
1
1
1
1
1
1
1
1
1
1
1
1
1
1
1
1
1
1
1
1
1
1
1
1
1
1
1.0005
5.47081
9.70947
9.90511
9.99157
10.0532
10.096
10.1255
10.1456
10.1593
10.1697
10.1801
10.1936
10.2088
10.221
10.2268
10.2213
10.213
10.2047
10.1986
10.1918
10.184
10.1702
10.1453
10.1075
10.0611
10.0114
9.96021
9.90581
9.84248
9.76318
9.66279
9.54205
9.39886
9.23051
9.0228
8.76677
8.43991
8.01798
7.46205
6.67437
5.57867
4.39367
1
1
1
1
1
1
1
1
1
1
1
1
1
1
1
1
1
1
1
1
1
1
1
1
1
1
1
1
1
1
1
1
1
1
1
1
1
1
1
1
1
1
1
1
1
1
1
1
1
1
1
1
1
0.999997
3.93212
9.32925
9.90977
9.97129
10.0309
10.0606
10.0836
10.1008
10.1125
10.1215
10.1302
10.1422
10.1564
10.1677
10.1719
10.1633
10.1513
10.1388
10.1289
10.119
10.1078
10.0908
10.0623
10.0202
9.96841
9.912
9.85333
9.79115
9.71974
9.63209
9.52179
9.38933
9.23202
9.04842
8.82512
8.55092
8.20686
7.76644
7.19921
6.44522
5.51779
4.53565
1
1
1
1
1
1
1
1
1
1
1
1
1
1
1
1
1
1
1
1
1
1
1
1
1
1
1
1
1
1
1
1
1
1
1
1
1
1
1
1
1
1
1
1
1
1
1
1
1
1
1
1
1
0.999999
2.41669
8.57341
9.97147
9.95185
9.98156
10.0134
10.0417
10.0596
10.0708
10.0783
10.0848
10.0939
10.1055
10.1146
10.1165
10.1056
10.0899
10.0735
10.0595
10.0457
10.0305
10.0101
9.97813
9.93263
9.87638
9.81398
9.74794
9.67769
9.59794
9.50194
9.38281
9.24021
9.07167
8.8753
8.64066
8.3549
8.00193
7.55864
6.99724
6.31248
5.50839
4.66518
1
1
1
1
1
1
1
1
1
1
1
1
1
1
1
1
1
1
1
1
1
1
1
1
1
1
1
1
1
1
1
1
1
1
1
1
1
1
1
1
1
1
1
1
1
1
1
1
1
1
1
1
1
1
1.24538
7.51265
10.0839
9.96251
9.93158
9.96322
9.9942
10.0134
10.0256
10.0338
10.039
10.0458
10.0541
10.0608
10.0605
10.0483
10.0292
10.0087
9.98958
9.97087
9.9515
9.92796
9.89351
9.8456
9.78555
9.71749
9.64415
9.56556
9.47729
9.37327
9.24663
9.09565
8.91855
8.71254
8.47011
8.1787
7.82499
7.38688
6.85596
6.23217
5.52639
4.80207
1
1
1
1
1
1
1
1
1
1
1
1
1
1
1
1
1
1
1
1
1
1
1
1
1
1
1
1
1
1
1
1
1
1
1
1
1
1
1
1
1
1
1
1
1
1
1
1
1
1
1
1
1
1
1.00622
5.98347
9.68176
9.78902
9.85555
9.90188
9.94218
9.96796
9.98303
9.99169
9.9941
9.99769
10.0022
10.0052
10.0027
9.98961
9.96804
9.94347
9.91911
9.89552
9.87144
9.84433
9.80797
9.75847
9.6957
9.62308
9.54321
9.45648
9.35956
9.24758
9.11438
8.95703
8.7739
8.56161
8.31455
8.02153
7.67471
7.24812
6.75509
6.18918
5.5602
4.93711
1
1
1
1
1
1
1
1
1
1
1
1
1
1
1
1
1
1
1
1
1
1
1
1
1
1
1
1
1
1
1
1
1
1
1
1
1
1
1
1
1
1
1
1
1
1
1
1
1
1
1
1
1
1
0.999969
4.2068
9.28037
9.75459
9.82694
9.87215
9.90431
9.92669
9.94141
9.94981
9.9502
9.95061
9.95102
9.95004
9.94495
9.93112
9.90771
9.8791
9.84951
9.82063
9.79125
9.76008
9.7219
9.67153
9.60681
9.5303
9.44433
9.35
9.24515
9.12608
8.98747
8.8257
8.63865
8.4229
8.17385
7.88248
7.54741
7.13506
6.68129
6.16693
5.60401
5.05903
1
1
1
1
1
1
1
1
1
1
1
1
1
1
1
1
1
1
1
1
1
1
1
1
1
1
1
1
1
1
1
1
1
1
1
1
1
1
1
1
1
1
1
1
1
1
1
1
1
1
1
1
1
1
0.999993
2.46463
8.56532
9.83148
9.81818
9.83797
9.86802
9.88913
9.90151
9.90663
9.9034
9.89957
9.8959
9.89184
9.88451
9.87055
9.84604
9.81462
9.78071
9.7467
9.71194
9.67626
9.63533
9.58403
9.5182
9.43895
9.34802
9.24717
9.13531
9.00991
8.8667
8.70209
8.5131
8.29627
8.04773
7.76128
7.43639
7.04341
6.63037
6.15622
5.65178
5.15771
1
1
1
1
1
1
1
1
1
1
1
1
1
1
1
1
1
1
1
1
1
1
1
1
1
1
1
1
1
1
1
1
1
1
1
1
1
1
1
1
1
1
1
1
1
1
1
1
1
1
1
1
1
1
0.999999
1.1993
7.37496
9.93354
9.82086
9.79678
9.82073
9.83907
9.85133
9.85662
9.85306
9.84684
9.83957
9.83243
9.82314
9.80891
9.78381
9.75078
9.71315
9.67378
9.63358
9.59313
9.54895
9.49633
9.42987
9.34878
9.25388
9.14766
9.02995
8.89955
8.75306
8.58709
8.39777
8.1816
7.93572
7.65607
7.3379
6.97354
6.5944
6.14745
5.69452
5.23777
1
1
1
1
1
1
1
1
1
1
1
1
1
1
1
1
1
1
1
1
1
1
1
1
1
1
1
1
1
1
1
1
1
1
1
1
1
1
1
1
1
1
1
1
1
1
1
1
1
1
1
1
1
1
1
1.00378
5.64078
9.48708
9.68274
9.75651
9.77852
9.78663
9.79541
9.80005
9.79712
9.78971
9.77989
9.76995
9.75892
9.74411
9.7197
9.68638
9.64626
9.60222
9.5571
9.51187
9.46395
9.40908
9.34161
9.25942
9.1621
9.05218
8.92981
8.79528
8.64621
8.47976
8.29145
8.07746
7.83648
7.56345
7.25516
6.92179
6.55955
6.13964
5.74015
5.31306
1
1
1
1
1
1
1
1
1
1
1
1
1
1
1
1
1
1
1
1
1
1
1
1
1
1
1
1
1
1
1
1
1
1
1
1
1
1
1
1
1
1
1
1
1
1
1
1
1
1
1
1
1
1
1
0.999967
3.64094
9.06204
9.71925
9.73059
9.73106
9.73969
9.74709
9.75083
9.74802
9.7391
9.72615
9.7121
9.69765
9.68057
9.65608
9.62219
9.57994
9.5317
9.48178
9.43173
9.37975
9.32224
9.25364
9.171
9.07284
8.96088
8.83536
8.69782
8.54692
8.38057
8.19411
7.98337
7.74864
7.48237
7.18983
6.87595
6.52232
6.14565
5.78782
5.37863
1
1
1
1
1
1
1
1
1
1
1
1
1
1
1
1
1
1
1
1
1
1
1
1
1
1
1
1
1
1
1
1
1
1
1
1
1
1
1
1
1
1
1
1
1
1
1
1
1
1
1
1
1
1
1
0.999993
1.89377
8.29195
9.77802
9.67847
9.66275
9.68037
9.69069
9.69533
9.69415
9.68591
9.67193
9.65521
9.63749
9.61769
9.59225
9.55792
9.51431
9.46312
9.40892
9.35419
9.29803
9.23761
9.16774
9.08497
8.98715
8.87458
8.7472
8.60743
8.45489
8.28854
8.1041
7.89704
7.67049
7.41114
7.13419
6.83277
6.4972
6.16407
5.82098
5.43087
1
1
1
1
1
1
1
1
1
1
1
1
1
1
1
1
1
1
1
1
1
1
1
1
1
1
1
1
1
1
1
1
1
1
1
1
1
1
1
1
1
1
1
1
1
1
1
1
1
1
1
1
1
1
1
0.999999
1.07363
6.76169
9.67352
9.60513
9.61102
9.62645
9.63862
9.64322
9.64285
9.63559
9.62133
9.60258
9.58144
9.55814
9.5304
9.49496
9.44991
9.39647
9.33828
9.27877
9.21816
9.15444
9.08312
9.00065
8.90424
8.79264
8.66502
8.52407
8.37033
8.20391
8.02156
7.81866
7.60164
7.34631
7.08454
6.80045
6.48616
6.17622
5.83694
5.48576
1
1
1
1
1
1
1
1
1
1
1
1
1
1
1
1
1
1
1
1
1
1
1
1
1
1
1
1
1
1
1
1
1
1
1
1
1
1
1
1
1
1
1
1
1
1
1
1
1
1
1
1
1
1
1
1
1.00036
4.64427
9.17629
9.5122
9.57107
9.59726
9.59968
9.59808
9.59481
9.58655
9.57166
9.55142
9.52759
9.50065
9.47021
9.43359
9.38768
9.3329
9.27156
9.20742
9.14211
9.07461
9.00152
8.91934
8.82459
8.71457
8.58755
8.44623
8.29178
8.1251
7.94426
7.74709
7.53626
7.28744
7.04502
6.77399
6.4747
6.17939
5.86126
5.55145
1
1
1
1
1
1
1
1
1
1
1
1
1
1
1
1
1
1
1
1
1
1
1
1
1
1
1
1
1
1
1
1
1
1
1
1
1
1
1
1
1
1
1
1
1
1
1
1
1
1
1
1
1
1
1
1
0.999998
2.53196
8.52601
9.60975
9.57015
9.55654
9.56055
9.55763
9.54981
9.53781
9.52067
9.49833
9.4719
9.44198
9.40946
9.37243
9.32699
9.27213
9.20879
9.14048
9.0702
8.99817
8.92243
8.84
8.74679
8.63882
8.51345
8.37322
8.21958
8.05326
7.87405
7.6822
7.47408
7.2417
7.01339
6.74326
6.46375
6.19239
5.89945
5.60582
1
1
1
1
1
1
1
1
1
1
1
1
1
1
1
1
1
1
1
1
1
1
1
1
1
1
1
1
1
1
1
1
1
1
1
1
1
1
1
1
1
1
1
1
1
1
1
1
1
1
1
1
1
1
1
1
1
1.19589
7.1666
9.64905
9.53221
9.50687
9.51192
9.51155
9.5035
9.48925
9.46969
9.44487
9.41568
9.38308
9.34869
9.31142
9.26724
9.21374
9.15027
9.07938
9.00456
8.92739
8.84785
8.76405
8.6716
8.56543
8.44193
8.30348
8.15167
7.98651
7.80973
7.62075
7.41875
7.20432
6.97526
6.71393
6.46571
6.20959
5.92601
5.63738
1
1
1
1
1
1
1
1
1
1
1
1
1
1
1
1
1
1
1
1
1
1
1
1
1
1
1
1
1
1
1
1
1
1
1
1
1
1
1
1
1
1
1
1
1
1
1
1
1
1
1
1
1
1
1
1
1
1.00323
5.14031
9.14648
9.37206
9.43869
9.46626
9.4657
9.45558
9.43881
9.41698
9.39018
9.35915
9.32508
9.28922
9.25124
9.20796
9.15632
9.09419
9.02273
8.94475
8.86269
8.77835
8.69162
8.59866
8.49384
8.37269
8.23709
8.08851
7.92572
7.75239
7.56609
7.37221
7.16494
6.93769
6.7016
6.47095
6.21312
5.93976
5.66916
1
1
1
1
1
1
1
1
1
1
1
1
1
1
1
1
1
1
1
1
1
1
1
1
1
1
1
1
1
1
1
1
1
1
1
1
1
1
1
1
1
1
1
1
1
1
1
1
1
1
1
1
1
1
1
1
1
0.999977
2.80949
8.55222
9.4689
9.43846
9.42612
9.42489
9.41444
9.39389
9.36803
9.3385
9.30607
9.27111
9.23376
9.19386
9.14987
9.0992
9.0389
8.96872
8.88967
8.80394
8.71473
8.6238
8.52876
8.42446
8.30594
8.17378
8.02904
7.86875
7.69977
7.51672
7.32706
7.12465
6.91186
6.69403
6.45985
6.20715
5.96091
5.71094
1
1
1
1
1
1
1
1
1
1
1
1
1
1
1
1
1
1
1
1
1
1
1
1
1
1
1
1
1
1
1
1
1
1
1
1
1
1
1
1
1
1
1
1
1
1
1
1
1
1
1
1
1
1
1
1
1
0.999995
1.25125
7.25745
9.54303
9.41559
9.37007
9.36739
9.35788
9.33735
9.31209
9.28343
9.25213
9.21813
9.18076
9.13949
9.09404
9.04315
8.98395
8.91555
8.83685
8.74939
8.65632
8.56086
8.46229
8.35721
8.24118
8.11314
7.97369
7.81657
7.65267
7.47207
7.28707
7.09434
6.89111
6.67479
6.44445
6.21692
5.98619
5.74582
1
1
1
1
1
1
1
1
1
1
1
1
1
1
1
1
1
1
1
1
1
1
1
1
1
1
1
1
1
1
1
1
1
1
1
1
1
1
1
1
1
1
1
1
1
1
1
1
1
1
1
1
1
1
1
1
1
0.999999
1.00543
5.17589
9.06424
9.25428
9.3084
9.32598
9.30852
9.28595
9.26092
9.23314
9.2028
9.16958
9.13189
9.08902
9.04123
8.98865
8.92918
8.86204
8.78444
8.69693
8.60163
8.50246
8.39969
8.29257
8.17784
8.05376
7.92013
7.76773
7.60796
7.43026
7.25406
7.06667
6.86391
6.65319
6.44238
6.23186
6.00345
5.76666
1
1
1
1
1
1
1
1
1
1
1
1
1
1
1
1
1
1
1
1
1
1
1
1
1
1
1
1
1
1
1
1
1
1
1
1
1
1
1
1
1
1
1
1
1
1
1
1
1
1
1
1
1
1
1
1
1
1
0.999967
2.71675
8.47784
9.33289
9.29995
9.29061
9.26595
9.24324
9.21831
9.19006
9.1583
9.12355
9.08435
9.03983
8.98987
8.93509
8.87429
8.80735
8.73072
8.6445
8.54917
8.44768
8.34154
8.23181
8.11647
7.99499
7.86729
7.72198
7.56586
7.39479
7.22565
7.03864
6.84109
6.64419
6.44828
6.23886
6.01132
5.78396
1
1
1
1
1
1
1
1
1
1
1
1
1
1
1
1
1
1
1
1
1
1
1
1
1
1
1
1
1
1
1
1
1
1
1
1
1
1
1
1
1
1
1
1
1
1
1
1
1
1
1
1
1
1
1
1
1
1
0.999992
1.2191
7.0273
9.37296
9.28319
9.23821
9.21684
9.19842
9.17561
9.14677
9.11319
9.07652
9.03578
8.99019
8.93895
8.88237
8.81971
8.75194
8.67586
8.59135
8.49727
8.39569
8.28661
8.17559
8.05773
7.93711
7.8129
7.67483
7.52389
7.3627
7.19598
7.01184
6.82581
6.64158
6.44829
6.23425
6.01949
5.81012
1
1
1
1
1
1
1
1
1
1
1
1
1
1
1
1
1
1
1
1
1
1
1
1
1
1
1
1
1
1
1
1
1
1
1
1
1
1
1
1
1
1
1
1
1
1
1
1
1
1
1
1
1
1
1
1
1
1
0.999999
1.00383
4.70984
8.88958
9.14332
9.16504
9.16866
9.16411
9.1424
9.11088
9.0736
9.03367
8.98979
8.9416
8.88826
8.82966
8.76516
8.69607
8.62008
8.53702
8.44513
8.34481
8.2371
8.12361
8.00409
7.8827
7.7595
7.62699
7.48384
7.33199
7.16734
6.99132
6.81627
6.63761
6.44228
6.23485
6.03921
5.8404
1
1
1
1
1
1
1
1
1
1
1
1
1
1
1
1
1
1
1
1
1
1
1
1
1
1
1
1
1
1
1
1
1
1
1
1
1
1
1
1
1
1
1
1
1
1
1
1
1
1
1
1
1
1
1
1
1
1
1
0.999982
2.20936
8.25296
9.26488
9.17839
9.1506
9.13144
9.10252
9.06706
9.02831
8.98704
8.94129
8.89087
8.83576
8.77626
8.71134
8.64165
8.56594
8.48374
8.39345
8.29514
8.18979
8.07615
7.95656
7.83291
7.70915
7.57931
7.44381
7.298
7.13857
6.97375
6.80517
6.62709
6.43459
6.24402
6.06095
5.86449
1
1
1
1
1
1
1
1
1
1
1
1
1
1
1
1
1
1
1
1
1
1
1
1
1
1
1
1
1
1
1
1
1
1
1
1
1
1
1
1
1
1
1
1
1
1
1
1
1
1
1
1
1
1
1
1
1
1
1
0.999996
1.11248
6.51637
9.04972
9.07175
9.09323
9.07715
9.04893
9.01529
8.98002
8.94085
8.89467
8.84237
8.78516
8.72445
8.65946
8.59012
8.51513
8.4337
8.34467
8.24821
8.14509
8.03399
7.91543
7.79126
7.66534
7.53607
7.40456
7.26288
7.11243
6.95656
6.79121
6.61677
6.43333
6.25706
6.07861
5.88401
1
1
1
1
1
1
1
1
1
1
1
1
1
1
1
1
1
1
1
1
1
1
1
1
1
1
1
1
1
1
1
1
1
1
1
1
1
1
1
1
1
1
1
1
1
1
1
1
1
1
1
1
1
1
1
1
1
1
1
0.999999
1.00082
3.7906
8.56019
9.05144
9.05905
9.03292
9.01308
8.9818
8.94538
8.90251
8.85257
8.79716
8.73741
8.67495
8.60981
8.54116
8.46724
8.38692
8.29896
8.20389
8.10247
7.99406
7.87774
7.75517
7.62819
7.49871
7.36694
7.22861
7.08664
6.93517
6.77407
6.60816
6.43592
6.26641
6.08743
5.89922
1
1
1
1
1
1
1
1
1
1
1
1
1
1
1
1
1
1
1
1
1
1
1
1
1
1
1
1
1
1
1
1
1
1
1
1
1
1
1
1
1
1
1
1
1
1
1
1
1
1
1
1
1
1
1
1
1
1
1
1
0.999997
1.48871
7.59506
9.22148
9.06932
9.01216
8.96954
8.93865
8.9003
8.85566
8.8046
8.74846
8.68851
8.62593
8.56109
8.49311
8.42077
8.34235
8.2564
8.16314
8.06353
7.95754
7.84395
7.72385
7.59764
7.46793
7.33438
7.19851
7.06079
6.91227
6.75881
6.6019
6.43783
6.2708
6.09353
5.91602
1
1
1
1
1
1
1
1
1
1
1
1
1
1
1
1
1
1
1
1
1
1
1
1
1
1
1
1
1
1
1
1
1
1
1
1
1
1
1
1
1
1
1
1
1
1
1
1
1
1
1
1
1
1
1
1
1
1
1
1
0.999999
1.0203
5.49117
8.80095
8.89771
8.92012
8.91793
8.8951
8.85438
8.80786
8.75731
8.70297
8.64438
8.58161
8.51554
8.44669
8.37451
8.29696
8.213
8.12223
8.02518
7.92174
7.81096
7.69347
7.56957
7.44075
7.30686
7.17296
7.03585
6.88995
6.74437
6.59425
6.43526
6.2705
6.10067
5.93532
1
1
1
1
1
1
1
1
1
1
1
1
1
1
1
1
1
1
1
1
1
1
1
1
1
1
1
1
1
1
1
1
1
1
1
1
1
1
1
1
1
1
1
1
1
1
1
1
1
1
1
1
1
1
1
1
1
1
1
1
1
0.999944
2.67799
8.2235
8.95586
8.91879
8.88986
8.84839
8.804
8.7585
8.71104
8.65983
8.60335
8.5411
8.47433
8.40415
8.3307
8.25291
8.17038
8.08207
7.9881
7.88785
7.78022
7.66517
7.54372
7.41652
7.28413
7.15205
7.01471
6.87109
6.73046
6.58469
6.42994
6.26988
6.11027
5.9539
1
1
1
1
1
1
1
1
1
1
1
1
1
1
1
1
1
1
1
1
1
1
1
1
1
1
1
1
1
1
1
1
1
1
1
1
1
1
1
1
1
1
1
1
1
1
1
1
1
1
1
1
1
1
1
1
1
1
1
1
1
0.999985
1.1971
6.61159
8.94429
8.86672
8.83234
8.79022
8.74946
8.7089
8.66601
8.61851
8.56416
8.50264
8.43578
8.36439
8.28926
8.2102
8.12745
8.04035
7.94899
7.85226
7.7483
7.63619
7.51755
7.39299
7.26381
7.13373
6.99731
6.857
6.71876
6.57493
6.42384
6.27014
6.11899
5.96771
1
1
1
1
1
1
1
1
1
1
1
1
1
1
1
1
1
1
1
1
1
1
1
1
1
1
1
1
1
1
1
1
1
1
1
1
1
1
1
1
1
1
1
1
1
1
1
1
1
1
1
1
1
1
1
1
1
1
1
1
1
0.999998
1.00288
3.83495
8.38006
8.77794
8.77646
8.74978
8.72107
8.68327
8.63967
8.58964
8.53322
8.4711
8.40382
8.33144
8.25469
8.17381
8.0894
8.00173
7.91123
7.81706
7.7168
7.6085
7.49332
7.37193
7.24566
7.11728
6.98367
6.84688
6.70951
6.56701
6.41939
6.27174
6.12598
5.97858
1
1
1
1
1
1
1
1
1
1
1
1
1
1
1
1
1
1
1
1
1
1
1
1
1
1
1
1
1
1
1
1
1
1
1
1
1
1
1
1
1
1
1
1
1