/*--------------------------------*- C++ -*----------------------------------*\
  =========                 |
  \\      /  F ield         | OpenFOAM: The Open Source CFD Toolbox
   \\    /   O peration     | Website:  https://openfoam.org
    \\  /    A nd           | Version:  7
     \\/     M anipulation  |
\*---------------------------------------------------------------------------*/
FoamFile
{
    version     2.0;
    format      ascii;
    class       volScalarField;
    location    "1.9";
    object      rho;
}
// * * * * * * * * * * * * * * * * * * * * * * * * * * * * * * * * * * * * * //

dimensions      [1 -3 0 0 0 0 0];

internalField   nonuniform List<scalar> 
64512
(
1.40001
1.40001
1.40001
1.40001
1.40001
1.40001
1.40001
1.40001
1.40001
1.40001
1.40001
1.40001
1.40001
1.40001
1.40001
1.40001
1.40001
1.40001
1.40001
1.40001
1.40001
1.40001
1.40001
1.40001
1.40001
1.40001
1.40001
1.40001
1.40001
1.40001
1.40001
1.40001
1.40001
1.40001
1.40001
1.40001
1.40001
1.40001
1.40001
1.40001
1.40001
1.40001
1.40001
1.40001
1.40001
1.40001
1.40001
1.40001
1.40001
1.40001
3.23637
5.32365
5.46473
5.48076
5.49901
5.51536
5.53134
5.54666
5.5631
5.58219
5.60408
5.62732
5.64907
5.66782
5.68394
5.69756
5.70885
5.71937
5.73143
5.74693
5.76571
5.78584
5.80531
5.82301
5.83884
5.85332
5.86627
5.87685
5.88459
5.88973
5.8934
5.89727
5.90294
5.91141
5.92042
5.92806
5.93538
5.94359
5.95278
5.95883
5.95878
5.9494
5.93072
5.90848
5.89262
5.88769
1.40001
1.40001
1.40001
1.40001
1.40001
1.40001
1.40001
1.40001
1.40001
1.40001
1.40001
1.40001
1.40001
1.40001
1.40001
1.40001
1.40001
1.40001
1.40001
1.40001
1.40001
1.40001
1.40001
1.40001
1.40001
1.40001
1.40001
1.40001
1.40001
1.40001
1.40001
1.40001
1.40001
1.40001
1.40001
1.40001
1.40001
1.40001
1.40001
1.40001
1.40001
1.40001
1.40001
1.40001
1.40001
1.40001
1.40001
1.40001
1.40001
1.40001
3.22064
5.31975
5.46178
5.4795
5.49789
5.51442
5.53038
5.54571
5.56222
5.58142
5.6033
5.62643
5.64816
5.66701
5.68332
5.69714
5.70855
5.71903
5.73079
5.74594
5.7645
5.78453
5.8043
5.8225
5.83884
5.85352
5.86631
5.87648
5.88382
5.88879
5.89246
5.89635
5.90194
5.91022
5.91907
5.92679
5.93457
5.9433
5.95249
5.95841
5.95806
5.94838
5.9295
5.90691
5.8906
5.88539
1.40001
1.40001
1.40001
1.40001
1.40001
1.40001
1.40001
1.40001
1.40001
1.40001
1.40001
1.40001
1.40001
1.40001
1.40001
1.40001
1.40001
1.40001
1.40001
1.40001
1.40001
1.40001
1.40001
1.40001
1.40001
1.40001
1.40001
1.40001
1.40001
1.40001
1.40001
1.40001
1.40001
1.40001
1.40001
1.40001
1.40001
1.40001
1.40001
1.40001
1.40001
1.40001
1.40001
1.40001
1.40001
1.40001
1.40001
1.40001
1.40001
1.40001
3.18446
5.31616
5.45853
5.47498
5.49483
5.51182
5.52795
5.54355
5.56025
5.5795
5.6015
5.62482
5.64666
5.66564
5.68218
5.69625
5.70782
5.71843
5.73003
5.7448
5.76295
5.7826
5.80248
5.82124
5.83831
5.85339
5.86609
5.87577
5.88259
5.88725
5.89088
5.89483
5.90044
5.90867
5.91745
5.92525
5.93343
5.94253
5.95149
5.95709
5.95645
5.94659
5.92749
5.90448
5.88758
5.8819
1.40001
1.40001
1.40001
1.40001
1.40001
1.40001
1.40001
1.40001
1.40001
1.40001
1.40001
1.40001
1.40001
1.40001
1.40001
1.40001
1.40001
1.40001
1.40001
1.40001
1.40001
1.40001
1.40001
1.40001
1.40001
1.40001
1.40001
1.40001
1.40001
1.40001
1.40001
1.40001
1.40001
1.40001
1.40001
1.40001
1.40001
1.40001
1.40001
1.40001
1.40001
1.40001
1.40001
1.40001
1.40001
1.40001
1.40001
1.40001
1.40001
1.40001
3.13063
5.31194
5.453
5.46967
5.49079
5.50871
5.52549
5.54146
5.55816
5.57704
5.59888
5.62225
5.6442
5.6633
5.68009
5.69445
5.70625
5.71709
5.72866
5.74318
5.76104
5.78032
5.8002
5.8194
5.83719
5.85268
5.86528
5.87448
5.88079
5.88514
5.88867
5.89258
5.89812
5.90628
5.91511
5.92315
5.9319
5.94141
5.95005
5.95503
5.95379
5.94361
5.92407
5.90059
5.88316
5.87705
1.40001
1.40001
1.40001
1.40001
1.40001
1.40001
1.40001
1.40001
1.40001
1.40001
1.40001
1.40001
1.40001
1.40001
1.40001
1.40001
1.40001
1.40001
1.40001
1.40001
1.40001
1.40001
1.40001
1.40001
1.40001
1.40001
1.40001
1.40001
1.40001
1.40001
1.40001
1.40001
1.40001
1.40001
1.40001
1.40001
1.40001
1.40001
1.40001
1.40001
1.40001
1.40001
1.40001
1.40001
1.40001
1.40001
1.40001
1.40001
1.40001
1.40001
3.06106
5.29978
5.44484
5.46305
5.48652
5.50587
5.5237
5.54015
5.5567
5.57488
5.59628
5.61957
5.64165
5.66092
5.67792
5.69244
5.70435
5.71533
5.72696
5.74144
5.75921
5.77817
5.79774
5.81688
5.83502
5.85075
5.86338
5.87241
5.87847
5.88262
5.88599
5.8897
5.89505
5.90311
5.91218
5.92073
5.93007
5.93986
5.94799
5.95214
5.95011
5.93942
5.9194
5.8956
5.87786
5.87147
1.40001
1.40001
1.40001
1.40001
1.40001
1.40001
1.40001
1.40001
1.40001
1.40001
1.40001
1.40001
1.40001
1.40001
1.40001
1.40001
1.40001
1.40001
1.40001
1.40001
1.40001
1.40001
1.40001
1.40001
1.40001
1.40001
1.40001
1.40001
1.40001
1.40001
1.40001
1.40001
1.40001
1.40001
1.40001
1.40001
1.40001
1.40001
1.40001
1.40001
1.40001
1.40001
1.40001
1.40001
1.40001
1.40001
1.40001
1.40001
1.40001
1.40001
2.97459
5.27953
5.43512
5.45598
5.48303
5.50426
5.52333
5.54018
5.55623
5.57315
5.59343
5.61615
5.63826
5.65784
5.6752
5.68995
5.70201
5.71306
5.72482
5.73941
5.75736
5.77622
5.79533
5.81388
5.83171
5.84728
5.85997
5.86921
5.87547
5.87968
5.88288
5.88622
5.89118
5.89908
5.90855
5.91794
5.92792
5.93774
5.94522
5.94837
5.94534
5.93398
5.91351
5.8896
5.87188
5.86543
1.40001
1.40001
1.40001
1.40001
1.40001
1.40001
1.40001
1.40001
1.40001
1.40001
1.40001
1.40001
1.40001
1.40001
1.40001
1.40001
1.40001
1.40001
1.40001
1.40001
1.40001
1.40001
1.40001
1.40001
1.40001
1.40001
1.40001
1.40001
1.40001
1.40001
1.40001
1.40001
1.40001
1.40001
1.40001
1.40001
1.40001
1.40001
1.40001
1.40001
1.40001
1.40001
1.40001
1.40001
1.40001
1.40001
1.40001
1.40001
1.40001
1.40001
2.8706
5.25274
5.4263
5.44919
5.47958
5.50338
5.52376
5.54094
5.55629
5.5718
5.59068
5.6125
5.63448
5.65447
5.67236
5.68742
5.69971
5.7107
5.72245
5.73718
5.75544
5.77436
5.793
5.81055
5.8275
5.84245
5.85509
5.86479
5.87167
5.87625
5.87937
5.88222
5.8866
5.89418
5.90402
5.91446
5.92514
5.93481
5.94153
5.94358
5.93949
5.92739
5.90657
5.88279
5.86541
5.85914
1.40001
1.40001
1.40001
1.40001
1.40001
1.40001
1.40001
1.40001
1.40001
1.40001
1.40001
1.40001
1.40001
1.40001
1.40001
1.40001
1.40001
1.40001
1.40001
1.40001
1.40001
1.40001
1.40001
1.40001
1.40001
1.40001
1.40001
1.40001
1.40001
1.40001
1.40001
1.40001
1.40001
1.40001
1.40001
1.40001
1.40001
1.40001
1.40001
1.40001
1.40001
1.40001
1.40001
1.40001
1.40001
1.40001
1.40001
1.40001
1.40001
1.40001
2.74928
5.21909
5.42013
5.44361
5.47523
5.50105
5.5234
5.54149
5.55639
5.57078
5.58828
5.60903
5.63069
5.65103
5.66942
5.6848
5.69736
5.70823
5.71985
5.7346
5.75307
5.772
5.79028
5.80678
5.82257
5.83661
5.84891
5.85897
5.86655
5.87172
5.87494
5.87747
5.88137
5.88862
5.89878
5.9102
5.92158
5.93113
5.93707
5.93801
5.93281
5.91991
5.89879
5.87523
5.85835
5.85241
1.40001
1.40001
1.40001
1.40001
1.40001
1.40001
1.40001
1.40001
1.40001
1.40001
1.40001
1.40001
1.40001
1.40001
1.40001
1.40001
1.40001
1.40001
1.40001
1.40001
1.40001
1.40001
1.40001
1.40001
1.40001
1.40001
1.40001
1.40001
1.40001
1.40001
1.40001
1.40001
1.40001
1.40001
1.40001
1.40001
1.40001
1.40001
1.40001
1.40001
1.40001
1.40001
1.40001
1.40001
1.40001
1.40001
1.40001
1.40001
1.40001
1.40001
2.61293
5.17463
5.41524
5.43916
5.47101
5.49772
5.52205
5.54163
5.55664
5.57028
5.58634
5.60565
5.62652
5.64687
5.66568
5.6815
5.6946
5.70573
5.7173
5.7319
5.7501
5.76867
5.78666
5.8024
5.81725
5.83044
5.84221
5.85224
5.86023
5.86592
5.86943
5.87194
5.87557
5.88253
5.89275
5.90474
5.91662
5.92616
5.93153
5.93155
5.92539
5.91177
5.89033
5.86696
5.85059
5.84501
1.40001
1.40001
1.40001
1.40001
1.40001
1.40001
1.40001
1.40001
1.40001
1.40001
1.40001
1.40001
1.40001
1.40001
1.40001
1.40001
1.40001
1.40001
1.40001
1.40001
1.40001
1.40001
1.40001
1.40001
1.40001
1.40001
1.40001
1.40001
1.40001
1.40001
1.40001
1.40001
1.40001
1.40001
1.40001
1.40001
1.40001
1.40001
1.40001
1.40001
1.40001
1.40001
1.40001
1.40001
1.40001
1.40001
1.40001
1.40001
1.40001
1.40001
2.46472
5.11634
5.41038
5.43451
5.46648
5.49345
5.51929
5.5408
5.55639
5.56959
5.58462
5.60274
5.62273
5.64287
5.66185
5.67807
5.69166
5.70328
5.7148
5.72897
5.74623
5.76394
5.78157
5.79705
5.81142
5.82409
5.8353
5.84487
5.85269
5.85857
5.86243
5.86526
5.86903
5.8759
5.88598
5.89806
5.91014
5.91975
5.92495
5.92445
5.91756
5.9033
5.88153
5.85823
5.84225
5.83698
1.40001
1.40001
1.40001
1.40001
1.40001
1.40001
1.40001
1.40001
1.40001
1.40001
1.40001
1.40001
1.40001
1.40001
1.40001
1.40001
1.40001
1.40001
1.40001
1.40001
1.40001
1.40001
1.40001
1.40001
1.40001
1.40001
1.40001
1.40001
1.40001
1.40001
1.40001
1.40001
1.40001
1.40001
1.40001
1.40001
1.40001
1.40001
1.40001
1.40001
1.40001
1.40001
1.40001
1.40001
1.40001
1.40001
1.40001
1.40001
1.40001
1.40001
2.30372
5.04115
5.40794
5.43142
5.46232
5.48845
5.51467
5.53771
5.55502
5.56909
5.58389
5.60103
5.61979
5.639
5.65748
5.6737
5.6877
5.70012
5.71187
5.72566
5.74161
5.75811
5.77512
5.79057
5.80485
5.81736
5.82814
5.83705
5.84428
5.84997
5.85407
5.85743
5.86167
5.86868
5.87852
5.89029
5.90227
5.91194
5.91715
5.91654
5.90931
5.8945
5.87226
5.84876
5.8329
5.82785
1.40001
1.40001
1.40001
1.40001
1.40001
1.40001
1.40001
1.40001
1.40001
1.40001
1.40001
1.40001
1.40001
1.40001
1.40001
1.40001
1.40001
1.40001
1.40001
1.40001
1.40001
1.40001
1.40001
1.40001
1.40001
1.40001
1.40001
1.40001
1.40001
1.40001
1.40001
1.40001
1.40001
1.40001
1.40001
1.40001
1.40001
1.40001
1.40001
1.40001
1.40001
1.40001
1.40001
1.40001
1.40001
1.40001
1.40001
1.40001
1.40001
1.40001
2.1338
4.94542
5.41131
5.43181
5.45961
5.4842
5.51009
5.53377
5.55241
5.56755
5.58267
5.59936
5.61708
5.63523
5.65285
5.66878
5.68314
5.69635
5.70844
5.72183
5.73638
5.75153
5.76772
5.78307
5.79743
5.80998
5.82051
5.8288
5.83529
5.84051
5.84462
5.84843
5.85327
5.86059
5.87028
5.88164
5.89328
5.90284
5.90809
5.90763
5.90036
5.88518
5.86244
5.83856
5.82256
5.81759
1.40001
1.40001
1.40001
1.40001
1.40001
1.40001
1.40001
1.40001
1.40001
1.40001
1.40001
1.40001
1.40001
1.40001
1.40001
1.40001
1.40001
1.40001
1.40001
1.40001
1.40001
1.40001
1.40001
1.40001
1.40001
1.40001
1.40001
1.40001
1.40001
1.40001
1.40001
1.40001
1.40001
1.40001
1.40001
1.40001
1.40001
1.40001
1.40001
1.40001
1.40001
1.40001
1.40001
1.40001
1.40001
1.40001
1.40001
1.40001
1.40001
1.40001
1.96391
4.8262
5.421
5.43545
5.45966
5.4818
5.50615
5.52904
5.54834
5.56494
5.58114
5.59793
5.61487
5.63179
5.6482
5.66341
5.6778
5.69154
5.70411
5.7173
5.73069
5.74449
5.75968
5.77456
5.78877
5.8013
5.81169
5.81957
5.82556
5.83045
5.83455
5.83868
5.84398
5.85161
5.86124
5.87219
5.88332
5.89253
5.89766
5.8974
5.8903
5.87503
5.85198
5.82773
5.81145
5.80653
1.40001
1.40001
1.40001
1.40001
1.40001
1.40001
1.40001
1.40001
1.40001
1.40001
1.40001
1.40001
1.40001
1.40001
1.40001
1.40001
1.40001
1.40001
1.40001
1.40001
1.40001
1.40001
1.40001
1.40001
1.40001
1.40001
1.40001
1.40001
1.40001
1.40001
1.40001
1.40001
1.40001
1.40001
1.40001
1.40001
1.40001
1.40001
1.40001
1.40001
1.40001
1.40001
1.40001
1.40001
1.40001
1.40001
1.40001
1.40001
1.40001
1.40001
1.79949
4.67998
5.43554
5.44246
5.46091
5.48003
5.50205
5.52348
5.54296
5.56088
5.57844
5.59579
5.61232
5.62798
5.64285
5.65707
5.6713
5.68545
5.69866
5.71181
5.72428
5.73691
5.75109
5.76527
5.77906
5.79138
5.80167
5.80935
5.8151
5.81982
5.82385
5.82802
5.83349
5.84132
5.85103
5.86177
5.87245
5.88121
5.88608
5.88588
5.87894
5.8638
5.84065
5.81608
5.79941
5.79443
1.40001
1.40001
1.40001
1.40001
1.40001
1.40001
1.40001
1.40001
1.40001
1.40001
1.40001
1.40001
1.40001
1.40001
1.40001
1.40001
1.40001
1.40001
1.40001
1.40001
1.40001
1.40001
1.40001
1.40001
1.40001
1.40001
1.40001
1.40001
1.40001
1.40001
1.40001
1.40001
1.40001
1.40001
1.40001
1.40001
1.40001
1.40001
1.40001
1.40001
1.40001
1.40001
1.40001
1.40001
1.40001
1.40001
1.40001
1.40001
1.40001
1.40001
1.65284
4.50668
5.44144
5.44262
5.46034
5.4772
5.49669
5.51629
5.53545
5.5543
5.57309
5.59114
5.60736
5.62173
5.63514
5.64865
5.66314
5.67822
5.69257
5.706
5.71787
5.72952
5.74261
5.75583
5.76873
5.78032
5.79009
5.7975
5.80329
5.80824
5.81254
5.81681
5.82225
5.83005
5.8398
5.85049
5.86087
5.86919
5.87364
5.87314
5.86611
5.85112
5.82806
5.80332
5.7863
5.78123
1.40001
1.40001
1.40001
1.40001
1.40001
1.40001
1.40001
1.40001
1.40001
1.40001
1.40001
1.40001
1.40001
1.40001
1.40001
1.40001
1.40001
1.40001
1.40001
1.40001
1.40001
1.40001
1.40001
1.40001
1.40001
1.40001
1.40001
1.40001
1.40001
1.40001
1.40001
1.40001
1.40001
1.40001
1.40001
1.40001
1.40001
1.40001
1.40001
1.40001
1.40001
1.40001
1.40001
1.40001
1.40001
1.40001
1.40001
1.40001
1.40001
1.40001
1.51368
4.30014
5.44097
5.43738
5.45485
5.47055
5.48853
5.50747
5.52684
5.54638
5.56591
5.58441
5.60027
5.61337
5.62535
5.63822
5.65304
5.6691
5.68445
5.69798
5.70929
5.71989
5.73181
5.74417
5.75649
5.76777
5.77734
5.78473
5.79071
5.79598
5.80059
5.80492
5.81021
5.81788
5.82765
5.83837
5.84851
5.85633
5.86017
5.85901
5.85165
5.83682
5.81403
5.78933
5.77207
5.76691
1.40001
1.40001
1.40001
1.40001
1.40001
1.40001
1.40001
1.40001
1.40001
1.40001
1.40001
1.40001
1.40001
1.40001
1.40001
1.40001
1.40001
1.40001
1.40001
1.40001
1.40001
1.40001
1.40001
1.40001
1.40001
1.40001
1.40001
1.40001
1.40001
1.40001
1.40001
1.40001
1.40001
1.40001
1.40001
1.40001
1.40001
1.40001
1.40001
1.40001
1.40001
1.40001
1.40001
1.40001
1.40001
1.40001
1.40001
1.40001
1.40001
1.40001
1.40748
4.0463
5.41376
5.42053
5.44041
5.45887
5.47774
5.49688
5.5164
5.53627
5.55617
5.57483
5.59033
5.6023
5.61301
5.62559
5.64116
5.65874
5.67559
5.68975
5.70093
5.71058
5.72113
5.73237
5.74388
5.75466
5.76374
5.77088
5.77694
5.78257
5.78766
5.79229
5.79753
5.8049
5.81431
5.82468
5.83446
5.84186
5.84522
5.84345
5.83574
5.82109
5.79865
5.77406
5.75661
5.75133
1.40001
1.40001
1.40001
1.40001
1.40001
1.40001
1.40001
1.40001
1.40001
1.40001
1.40001
1.40001
1.40001
1.40001
1.40001
1.40001
1.40001
1.40001
1.40001
1.40001
1.40001
1.40001
1.40001
1.40001
1.40001
1.40001
1.40001
1.40001
1.40001
1.40001
1.40001
1.40001
1.40001
1.40001
1.40001
1.40001
1.40001
1.40001
1.40001
1.40001
1.40001
1.40001
1.40001
1.40001
1.40001
1.40001
1.40001
1.40001
1.40001
1.40001
1.40007
3.72738
5.36226
5.40025
5.42415
5.44611
5.46633
5.48619
5.50602
5.52589
5.54559
5.56386
5.57892
5.59019
5.60023
5.61279
5.62882
5.64726
5.66495
5.67942
5.69049
5.69936
5.70867
5.71892
5.72986
5.74053
5.7496
5.7568
5.76296
5.7686
5.77366
5.77815
5.78311
5.79006
5.79906
5.8091
5.81868
5.82598
5.82918
5.82698
5.81886
5.80408
5.78162
5.75682
5.73905
5.73344
1.40001
1.40001
1.40001
1.40001
1.40001
1.40001
1.40001
1.40001
1.40001
1.40001
1.40001
1.40001
1.40001
1.40001
1.40001
1.40001
1.40001
1.40001
1.40001
1.40001
1.40001
1.40001
1.40001
1.40001
1.40001
1.40001
1.40001
1.40001
1.40001
1.40001
1.40001
1.40001
1.40001
1.40001
1.40001
1.40001
1.40001
1.40001
1.40001
1.40001
1.40001
1.40001
1.40001
1.40001
1.40001
1.40001
1.40001
1.40001
1.40001
1.40001
1.40001
3.38356
5.31016
5.3846
5.40994
5.43438
5.4558
5.47597
5.49569
5.51503
5.53397
5.55152
5.56642
5.57766
5.58755
5.60016
5.61624
5.63467
5.65262
5.66729
5.67855
5.68715
5.69566
5.7051
5.71539
5.72578
5.73464
5.74169
5.74781
5.75332
5.7582
5.76249
5.76718
5.77377
5.78235
5.79193
5.80119
5.80836
5.81149
5.80898
5.8005
5.78543
5.76272
5.73752
5.71935
5.71337
1.40001
1.40001
1.40001
1.40001
1.40001
1.40001
1.40001
1.40001
1.40001
1.40001
1.40001
1.40001
1.40001
1.40001
1.40001
1.40001
1.40001
1.40001
1.40001
1.40001
1.40001
1.40001
1.40001
1.40001
1.40001
1.40001
1.40001
1.40001
1.40001
1.40001
1.40001
1.40001
1.40001
1.40001
1.40001
1.40001
1.40001
1.40001
1.40001
1.40001
1.40001
1.40001
1.40001
1.40001
1.40001
1.40001
1.40001
1.40001
1.40001
1.40001
1.40001
3.01863
5.24448
5.37787
5.40252
5.42813
5.45089
5.47132
5.48968
5.50697
5.5239
5.54005
5.55478
5.56667
5.57701
5.58961
5.60514
5.62256
5.63995
5.65433
5.66565
5.67408
5.68182
5.69024
5.69958
5.70962
5.71867
5.7261
5.73257
5.738
5.74233
5.7458
5.74956
5.75547
5.7635
5.77259
5.78157
5.78867
5.7919
5.78937
5.78071
5.76523
5.74193
5.71597
5.69714
5.69062
1.40001
1.40001
1.40001
1.40001
1.40001
1.40001
1.40001
1.40001
1.40001
1.40001
1.40001
1.40001
1.40001
1.40001
1.40001
1.40001
1.40001
1.40001
1.40001
1.40001
1.40001
1.40001
1.40001
1.40001
1.40001
1.40001
1.40001
1.40001
1.40001
1.40001
1.40001
1.40001
1.40001
1.40001
1.40001
1.40001
1.40001
1.40001
1.40001
1.40001
1.40001
1.40001
1.40001
1.40001
1.40001
1.40001
1.40001
1.40001
1.40001
1.40001
1.40001
2.65102
5.13632
5.3831
5.40464
5.42809
5.45008
5.47001
5.48691
5.50211
5.51648
5.53066
5.54481
5.55753
5.56866
5.58116
5.59569
5.61143
5.62759
5.64124
5.65244
5.66081
5.66793
5.67529
5.68338
5.69272
5.70186
5.70975
5.71664
5.72209
5.72574
5.72805
5.73047
5.73543
5.74273
5.75116
5.75968
5.76656
5.76983
5.76744
5.75881
5.74296
5.719
5.6921
5.67244
5.66534
1.40001
1.40001
1.40001
1.40001
1.40001
1.40001
1.40001
1.40001
1.40001
1.40001
1.40001
1.40001
1.40001
1.40001
1.40001
1.40001
1.40001
1.40001
1.40001
1.40001
1.40001
1.40001
1.40001
1.40001
1.40001
1.40001
1.40001
1.40001
1.40001
1.40001
1.40001
1.40001
1.40001
1.40001
1.40001
1.40001
1.40001
1.40001
1.40001
1.40001
1.40001
1.40001
1.40001
1.40001
1.40001
1.40001
1.40001
1.40001
1.40001
1.40001
1.40001
2.28777
4.981
5.39656
5.41834
5.44241
5.46115
5.47764
5.49075
5.50191
5.51279
5.52442
5.53749
5.55078
5.56257
5.57469
5.58777
5.60142
5.6159
5.62855
5.63939
5.64762
5.65409
5.66025
5.66677
5.67501
5.68413
5.69268
5.70014
5.7058
5.70875
5.70955
5.7103
5.71388
5.72012
5.72759
5.73545
5.74198
5.74527
5.74317
5.7347
5.71846
5.69363
5.66547
5.64463
5.63675
1.40001
1.40001
1.40001
1.40001
1.40001
1.40001
1.40001
1.40001
1.40001
1.40001
1.40001
1.40001
1.40001
1.40001
1.40001
1.40001
1.40001
1.40001
1.40001
1.40001
1.40001
1.40001
1.40001
1.40001
1.40001
1.40001
1.40001
1.40001
1.40001
1.40001
1.40001
1.40001
1.40001
1.40001
1.40001
1.40001
1.40001
1.40001
1.40001
1.40001
1.40001
1.40001
1.40001
1.40001
1.40001
1.40001
1.40001
1.40001
1.40001
1.40001
1.40001
1.93804
4.79623
5.44075
5.42702
5.44692
5.46332
5.48014
5.49335
5.50376
5.51304
5.52213
5.53318
5.54578
5.55747
5.56887
5.58053
5.59231
5.60497
5.61662
5.62686
5.63481
5.64054
5.64541
5.65019
5.65695
5.66575
5.67483
5.68268
5.68855
5.69095
5.69011
5.68926
5.69105
5.69583
5.70188
5.70863
5.71434
5.71727
5.71525
5.70697
5.69053
5.66507
5.63587
5.61394
5.60541
1.40001
1.40001
1.40001
1.40001
1.40001
1.40001
1.40001
1.40001
1.40001
1.40001
1.40001
1.40001
1.40001
1.40001
1.40001
1.40001
1.40001
1.40001
1.40001
1.40001
1.40001
1.40001
1.40001
1.40001
1.40001
1.40001
1.40001
1.40001
1.40001
1.40001
1.40001
1.40001
1.40001
1.40001
1.40001
1.40001
1.40001
1.40001
1.40001
1.40001
1.40001
1.40001
1.40001
1.40001
1.40001
1.40001
1.40001
1.40001
1.40001
1.40001
1.40001
1.61294
4.52786
5.47356
5.43796
5.44846
5.46137
5.47686
5.49019
5.50113
5.51103
5.52067
5.53119
5.54259
5.55311
5.56302
5.57304
5.58319
5.59424
5.60513
5.61471
5.62227
5.62729
5.63097
5.63409
5.63906
5.64704
5.65615
5.664
5.66983
5.67186
5.66974
5.66726
5.66693
5.66992
5.67419
5.67945
5.6839
5.68616
5.68408
5.67593
5.65915
5.6328
5.60217
5.57878
5.56929
1.40001
1.40001
1.40001
1.40001
1.40001
1.40001
1.40001
1.40001
1.40001
1.40001
1.40001
1.40001
1.40001
1.40001
1.40001
1.40001
1.40001
1.40001
1.40001
1.40001
1.40001
1.40001
1.40001
1.40001
1.40001
1.40001
1.40001
1.40001
1.40001
1.40001
1.40001
1.40001
1.40001
1.40001
1.40001
1.40001
1.40001
1.40001
1.40001
1.40001
1.40001
1.40001
1.40001
1.40001
1.40001
1.40001
1.40001
1.40001
1.40001
1.40001
1.40001
1.41338
4.16432
5.40655
5.38764
5.41809
5.44087
5.46189
5.47845
5.49205
5.50391
5.51446
5.52527
5.53665
5.54705
5.55622
5.56511
5.57374
5.583
5.59302
5.60204
5.60937
5.61401
5.61683
5.6186
5.62174
5.62824
5.63661
5.64407
5.64962
5.65131
5.64821
5.64376
5.64154
5.64241
5.64458
5.64769
5.65022
5.65097
5.6479
5.63922
5.62197
5.59509
5.56362
5.53924
5.52926
1.40001
1.40001
1.40001
1.40001
1.40001
1.40001
1.40001
1.40001
1.40001
1.40001
1.40001
1.40001
1.40001
1.40001
1.40001
1.40001
1.40001
1.40001
1.40001
1.40001
1.40001
1.40001
1.40001
1.40001
1.40001
1.40001
1.40001
1.40001
1.40001
1.40001
1.40001
1.40001
1.40001
1.40001
1.40001
1.40001
1.40001
1.40001
1.40001
1.40001
1.40001
1.40001
1.40001
1.40001
1.40001
1.40001
1.40001
1.40001
1.40001
1.40001
1.40001
1.40007
3.67585
5.27632
5.35094
5.39158
5.42125
5.4448
5.46336
5.47948
5.49342
5.50545
5.51699
5.52817
5.53797
5.54639
5.55435
5.56253
5.57079
5.57987
5.58816
5.59516
5.59977
5.60228
5.60329
5.60479
5.6093
5.6162
5.62279
5.62765
5.62892
5.62513
5.6189
5.61443
5.61291
5.61272
5.61326
5.61337
5.61189
5.60743
5.59788
5.57987
5.55177
5.51836
5.49198
5.48051
1.40001
1.40001
1.40001
1.40001
1.40001
1.40001
1.40001
1.40001
1.40001
1.40001
1.40001
1.40001
1.40001
1.40001
1.40001
1.40001
1.40001
1.40001
1.40001
1.40001
1.40001
1.40001
1.40001
1.40001
1.40001
1.40001
1.40001
1.40001
1.40001
1.40001
1.40001
1.40001
1.40001
1.40001
1.40001
1.40001
1.40001
1.40001
1.40001
1.40001
1.40001
1.40001
1.40001
1.40001
1.40001
1.40001
1.40001
1.40001
1.40001
1.40001
1.40001
1.4
3.20929
5.17003
5.31815
5.36278
5.39888
5.42491
5.44512
5.46206
5.47626
5.48841
5.50038
5.51261
5.5239
5.53302
5.54155
5.54927
5.55627
5.56439
5.57209
5.57887
5.58382
5.5865
5.5873
5.58756
5.58986
5.59464
5.59988
5.60384
5.60469
5.6004
5.59255
5.58556
5.58119
5.57833
5.57612
5.57317
5.56832
5.56102
5.54894
5.52882
5.49895
5.46402
5.43633
5.42469
1.40001
1.40001
1.40001
1.40001
1.40001
1.40001
1.40001
1.40001
1.40001
1.40001
1.40001
1.40001
1.40001
1.40001
1.40001
1.40001
1.40001
1.40001
1.40001
1.40001
1.40001
1.40001
1.40001
1.40001
1.40001
1.40001
1.40001
1.40001
1.40001
1.40001
1.40001
1.40001
1.40001
1.40001
1.40001
1.40001
1.40001
1.40001
1.40001
1.40001
1.40001
1.40001
1.40001
1.40001
1.40001
1.40001
1.40001
1.40001
1.40001
1.40001
1.40001
1.40001
2.72661
5.04689
5.31808
5.36387
5.39675
5.41841
5.43461
5.44821
5.45997
5.47094
5.4824
5.49432
5.50562
5.51524
5.52383
5.53286
5.54029
5.54732
5.55366
5.5596
5.56493
5.56849
5.56964
5.56919
5.56931
5.57145
5.57486
5.57782
5.57831
5.57363
5.56431
5.55461
5.54693
5.54087
5.53555
5.52911
5.52013
5.50868
5.49362
5.47129
5.43874
5.39931
5.36655
5.35055
1.40001
1.40001
1.40001
1.40001
1.40001
1.40001
1.40001
1.40001
1.40001
1.40001
1.40001
1.40001
1.40001
1.40001
1.40001
1.40001
1.40001
1.40001
1.40001
1.40001
1.40001
1.40001
1.40001
1.40001
1.40001
1.40001
1.40001
1.40001
1.40001
1.40001
1.40001
1.40001
1.40001
1.40001
1.40001
1.40001
1.40001
1.40001
1.40001
1.40001
1.40001
1.40001
1.40001
1.40001
1.40001
1.40001
1.40001
1.40001
1.40001
1.40001
1.40001
1.40001
2.22002
4.88253
5.38711
5.38443
5.39748
5.40992
5.4223
5.43428
5.44491
5.45454
5.46473
5.47593
5.48728
5.49725
5.50561
5.51365
5.52073
5.52699
5.53261
5.53765
5.54315
5.54742
5.54921
5.54855
5.5469
5.54641
5.54766
5.5495
5.54957
5.54453
5.53406
5.52172
5.51021
5.50032
5.4912
5.48066
5.46731
5.4503
5.42893
5.40049
5.36103
5.31507
5.27708
5.26151
1.40001
1.40001
1.40001
1.40001
1.40001
1.40001
1.40001
1.40001
1.40001
1.40001
1.40001
1.40001
1.40001
1.40001
1.40001
1.40001
1.40001
1.40001
1.40001
1.40001
1.40001
1.40001
1.40001
1.40001
1.40001
1.40001
1.40001
1.40001
1.40001
1.40001
1.40001
1.40001
1.40001
1.40001
1.40001
1.40001
1.40001
1.40001
1.40001
1.40001
1.40001
1.40001
1.40001
1.40001
1.40001
1.40001
1.40001
1.40001
1.40001
1.40001
1.40001
1.40001
1.73236
4.68879
5.47073
5.40742
5.40467
5.411
5.42125
5.43016
5.43656
5.44216
5.44961
5.45932
5.47006
5.47983
5.48753
5.49453
5.50101
5.50655
5.5109
5.515
5.51939
5.524
5.52627
5.52545
5.52213
5.51928
5.51835
5.51871
5.51792
5.51241
5.50105
5.4863
5.47082
5.45662
5.44286
5.42724
5.40832
5.38477
5.35531
5.31865
5.27261
5.21696
5.16296
5.1268
1.40001
1.40001
1.40001
1.40001
1.40001
1.40001
1.40001
1.40001
1.40001
1.40001
1.40001
1.40001
1.40001
1.40001
1.40001
1.40001
1.40001
1.40001
1.40001
1.40001
1.40001
1.40001
1.40001
1.40001
1.40001
1.40001
1.40001
1.40001
1.40001
1.40001
1.40001
1.40001
1.40001
1.40001
1.40001
1.40001
1.40001
1.40001
1.40001
1.40001
1.40001
1.40001
1.40001
1.40001
1.40001
1.40001
1.40001
1.40001
1.40001
1.40001
1.40001
1.40001
1.42633
4.22764
5.41522
5.39197
5.40639
5.41641
5.4237
5.43008
5.43359
5.43595
5.44017
5.44706
5.45566
5.464
5.47042
5.47588
5.48099
5.48543
5.48885
5.49217
5.49561
5.49889
5.50093
5.50004
5.49557
5.49081
5.48742
5.48555
5.48328
5.47709
5.46484
5.44803
5.42904
5.41009
5.39081
5.36902
5.34314
5.31191
5.27319
5.22345
5.1562
5.07119
4.98818
4.93421
1.40001
1.40001
1.40001
1.40001
1.40001
1.40001
1.40001
1.40001
1.40001
1.40001
1.40001
1.40001
1.40001
1.40001
1.40001
1.40001
1.40001
1.40001
1.40001
1.40001
1.40001
1.40001
1.40001
1.40001
1.40001
1.40001
1.40001
1.40001
1.40001
1.40001
1.40001
1.40001
1.40001
1.40001
1.40001
1.40001
1.40001
1.40001
1.40001
1.40001
1.40001
1.40001
1.40001
1.40001
1.40001
1.40001
1.40001
1.40001
1.40001
1.40001
1.40001
1.40001
1.40009
3.60844
5.25059
5.34523
5.37877
5.39912
5.41429
5.42388
5.4289
5.43161
5.43465
5.43948
5.44583
5.45211
5.45665
5.46006
5.46291
5.46517
5.46688
5.46887
5.47116
5.47323
5.47458
5.4734
5.46827
5.46172
5.45534
5.45051
5.44604
5.43852
5.42527
5.40665
5.38448
5.3607
5.33527
5.30632
5.27204
5.23073
5.17877
5.11073
5.02069
4.90593
4.77817
4.69162
1.40001
1.40001
1.40001
1.40001
1.40001
1.40001
1.40001
1.40001
1.40001
1.40001
1.40001
1.40001
1.40001
1.40001
1.40001
1.40001
1.40001
1.40001
1.40001
1.40001
1.40001
1.40001
1.40001
1.40001
1.40001
1.40001
1.40001
1.40001
1.40001
1.40001
1.40001
1.40001
1.40001
1.40001
1.40001
1.40001
1.40001
1.40001
1.40001
1.40001
1.40001
1.40001
1.40001
1.40001
1.40001
1.40001
1.40001
1.40001
1.40001
1.40001
1.40001
1.40001
1.4
3.04316
5.11177
5.31534
5.35303
5.38126
5.39899
5.4087
5.41666
5.42254
5.42752
5.43262
5.43799
5.44253
5.4451
5.44634
5.4467
5.44629
5.4458
5.44589
5.44642
5.44679
5.44732
5.44595
5.44027
5.43204
5.42281
5.41449
5.40696
5.39755
5.38293
5.36253
5.33733
5.30878
5.27685
5.23997
5.19588
5.14255
5.07549
4.98785
4.86466
4.67562
4.30975
3.40847
1.40001
1.40001
1.40001
1.40001
1.40001
1.40001
1.40001
1.40001
1.40001
1.40001
1.40001
1.40001
1.40001
1.40001
1.40001
1.40001
1.40001
1.40001
1.40001
1.40001
1.40001
1.40001
1.40001
1.40001
1.40001
1.40001
1.40001
1.40001
1.40001
1.40001
1.40001
1.40001
1.40001
1.40001
1.40001
1.40001
1.40001
1.40001
1.40001
1.40001
1.40001
1.40001
1.40001
1.40001
1.40001
1.40001
1.40001
1.40001
1.40001
1.40001
1.40001
1.40001
1.4
2.46304
4.91805
5.31752
5.34109
5.36342
5.38119
5.39412
5.4037
5.4108
5.41679
5.42239
5.42784
5.4321
5.43416
5.43452
5.43321
5.43025
5.42705
5.42445
5.42259
5.4208
5.42013
5.4181
5.41167
5.40176
5.3899
5.3781
5.36697
5.35497
5.33855
5.31614
5.28783
5.25448
5.21592
5.17073
5.11624
5.04963
4.965
4.85037
4.68389
4.41441
3.9887
2.9764
1.40001
1.40001
1.40001
1.40001
1.40001
1.40001
1.40001
1.40001
1.40001
1.40001
1.40001
1.40001
1.40001
1.40001
1.40001
1.40001
1.40001
1.40001
1.40001
1.40001
1.40001
1.40001
1.40001
1.40001
1.40001
1.40001
1.40001
1.40001
1.40001
1.40001
1.40001
1.40001
1.40001
1.40001
1.40001
1.40001
1.40001
1.40001
1.40001
1.40001
1.40001
1.40001
1.40001
1.40001
1.40001
1.40001
1.40001
1.40001
1.40001
1.40001
1.40001
1.40001
1.40001
1.89076
4.75286
5.38269
5.34494
5.35222
5.36801
5.38052
5.3899
5.39736
5.40367
5.40924
5.4147
5.41948
5.4223
5.42288
5.42084
5.41602
5.41034
5.40498
5.40047
5.39629
5.39366
5.39017
5.38246
5.37064
5.35621
5.34121
5.32651
5.31143
5.29286
5.26822
5.23665
5.19848
5.15338
5.09994
5.03493
4.95492
4.85221
4.71555
4.51328
4.2372
3.68228
2.84455
1.40001
1.40001
1.40001
1.40001
1.40001
1.40001
1.40001
1.40001
1.40001
1.40001
1.40001
1.40001
1.40001
1.40001
1.40001
1.40001
1.40001
1.40001
1.40001
1.40001
1.40001
1.40001
1.40001
1.40001
1.40001
1.40001
1.40001
1.40001
1.40001
1.40001
1.40001
1.40001
1.40001
1.40001
1.40001
1.40001
1.40001
1.40001
1.40001
1.40001
1.40001
1.40001
1.40001
1.40001
1.40001
1.40001
1.40001
1.40001
1.40001
1.40001
1.40001
1.40001
1.40001
1.46001
4.27261
5.38947
5.35135
5.35474
5.36205
5.37176
5.37812
5.38329
5.38817
5.39277
5.39759
5.40281
5.40713
5.40895
5.40746
5.40209
5.39495
5.38738
5.38046
5.37395
5.36894
5.36325
5.35367
5.33955
5.32233
5.3041
5.28591
5.26741
5.24617
5.21903
5.1841
5.14125
5.08993
5.0289
4.95401
4.86202
4.74342
4.58946
4.36789
4.05323
3.51192
2.8228
1.40001
1.40001
1.40001
1.40001
1.40001
1.40001
1.40001
1.40001
1.40001
1.40001
1.40001
1.40001
1.40001
1.40001
1.40001
1.40001
1.40001
1.40001
1.40001
1.40001
1.40001
1.40001
1.40001
1.40001
1.40001
1.40001
1.40001
1.40001
1.40001
1.40001
1.40001
1.40001
1.40001
1.40001
1.40001
1.40001
1.40001
1.40001
1.40001
1.40001
1.40001
1.40001
1.40001
1.40001
1.40001
1.40001
1.40001
1.40001
1.40001
1.40001
1.40001
1.40001
1.40001
1.40044
3.58475
5.20054
5.2937
5.32973
5.35043
5.36127
5.36678
5.37002
5.37264
5.3755
5.3791
5.38403
5.38925
5.39224
5.3917
5.38657
5.37904
5.37031
5.36184
5.35343
5.34586
5.33754
5.32569
5.30892
5.28875
5.26722
5.24552
5.22347
5.19903
5.1691
5.13085
5.08372
5.02664
4.95892
4.87558
4.77335
4.64284
4.47281
4.24423
3.91202
3.43322
2.88596
1.40001
1.40001
1.40001
1.40001
1.40001
1.40001
1.40001
1.40001
1.40001
1.40001
1.40001
1.40001
1.40001
1.40001
1.40001
1.40001
1.40001
1.40001
1.40001
1.40001
1.40001
1.40001
1.40001
1.40001
1.40001
1.40001
1.40001
1.40001
1.40001
1.40001
1.40001
1.40001
1.40001
1.40001
1.40001
1.40001
1.40001
1.40001
1.40001
1.40001
1.40001
1.40001
1.40001
1.40001
1.40001
1.40001
1.40001
1.40001
1.40001
1.40001
1.40001
1.40001
1.40001
1.4
2.90497
5.05827
5.29239
5.32041
5.34399
5.35272
5.35736
5.35922
5.3595
5.36003
5.36157
5.3652
5.37017
5.37367
5.37369
5.36895
5.36137
5.35219
5.34298
5.33341
5.32385
5.31323
5.29911
5.27966
5.25641
5.23137
5.20584
5.17995
5.15185
5.11862
5.07698
5.02604
4.96411
4.89065
4.80083
4.69058
4.5521
4.37342
4.13913
3.81991
3.41326
2.96114
1.40001
1.40001
1.40001
1.40001
1.40001
1.40001
1.40001
1.40001
1.40001
1.40001
1.40001
1.40001
1.40001
1.40001
1.40001
1.40001
1.40001
1.40001
1.40001
1.40001
1.40001
1.40001
1.40001
1.40001
1.40001
1.40001
1.40001
1.40001
1.40001
1.40001
1.40001
1.40001
1.40001
1.40001
1.40001
1.40001
1.40001
1.40001
1.40001
1.40001
1.40001