/*--------------------------------*- C++ -*----------------------------------*\
  =========                 |
  \\      /  F ield         | OpenFOAM: The Open Source CFD Toolbox
   \\    /   O peration     | Website:  https://openfoam.org
    \\  /    A nd           | Version:  7
     \\/     M anipulation  |
\*---------------------------------------------------------------------------*/
FoamFile
{
    version     2.0;
    format      ascii;
    class       volVectorField;
    location    "1.9";
    object      U;
}
// * * * * * * * * * * * * * * * * * * * * * * * * * * * * * * * * * * * * * //

dimensions      [0 1 -1 0 0 0 0];

internalField   nonuniform List<vector> 
64512
(
(3 2.28439e-16 0)
(3 -2.35386e-16 0)
(3 -2.19033e-16 0)
(3 -2.51111e-16 0)
(3 -3.18882e-16 0)
(3 -4.18519e-16 0)
(3 -1.70871e-16 0)
(3 5.72133e-16 0)
(3 8.71578e-16 0)
(3 3.34993e-16 0)
(3 2.63887e-16 0)
(3 3.85837e-16 0)
(3 -3.79666e-16 0)
(3 -5.11633e-16 0)
(3 -4.43219e-16 0)
(3 -3.26873e-17 0)
(3 3.72777e-16 0)
(3 2.7927e-16 0)
(3 -2.14455e-16 0)
(3 -3.32453e-16 0)
(3 -6.92853e-16 0)
(3 -7.08453e-16 0)
(3 -8.25083e-16 0)
(3 -7.08156e-16 0)
(3 -6.43986e-16 0)
(3 -1.21292e-15 0)
(3 -1.53503e-15 0)
(3 -1.64862e-15 0)
(3 -1.67098e-15 0)
(3 -1.6353e-15 0)
(3 -7.48643e-16 0)
(3 -2.51802e-16 0)
(3 -2.11815e-16 0)
(3 -3.54255e-16 0)
(3 -3.31806e-16 0)
(3 8.09028e-17 0)
(3 4.11643e-16 0)
(3 8.7479e-17 0)
(3 2.56252e-16 0)
(3 -2.49532e-16 0)
(3 -3.04979e-16 0)
(3 -1.3092e-16 0)
(3 -1.47714e-16 0)
(3 -3.479e-16 0)
(3 -6.90232e-16 0)
(3 -1.15412e-15 0)
(3 -1.65351e-15 0)
(3 -1.73364e-15 0)
(3 -9.72477e-16 0)
(3 -8.35805e-16 0)
(1.51231 0.00548115 0)
(0.773913 0.00777619 0)
(0.731029 0.00477965 0)
(0.721392 0.00451432 0)
(0.710817 0.00479656 0)
(0.698858 0.00542456 0)
(0.684473 0.00633823 0)
(0.667844 0.00743941 0)
(0.649169 0.00845713 0)
(0.629196 0.00885288 0)
(0.609655 0.0081192 0)
(0.59264 0.00662331 0)
(0.578518 0.00557729 0)
(0.566071 0.00554951 0)
(0.553395 0.00627423 0)
(0.539017 0.00729663 0)
(0.522712 0.00800825 0)
(0.505632 0.00792243 0)
(0.489077 0.00744585 0)
(0.473029 0.00734301 0)
(0.456531 0.00778742 0)
(0.439018 0.00824069 0)
(0.421281 0.00816429 0)
(0.404478 0.00786091 0)
(0.388462 0.00782503 0)
(0.372598 0.00788806 0)
(0.356585 0.00781099 0)
(0.340276 0.0076268 0)
(0.323646 0.00745315 0)
(0.306859 0.00742903 0)
(0.290124 0.00763459 0)
(0.273691 0.00796031 0)
(0.257831 0.00829723 0)
(0.242497 0.00861881 0)
(0.226983 0.0088427 0)
(0.211064 0.00895991 0)
(0.193943 0.00899448 0)
(0.175546 0.00905 0)
(0.155792 0.00916193 0)
(0.135647 0.00937592 0)
(0.114691 0.00966278 0)
(0.0945618 0.0100088 0)
(0.0740944 0.0103327 0)
(0.0531817 0.0106249 0)
(0.0319125 0.0107119 0)
(0.0108094 0.0107942 0)
(3 2.1473e-16 0)
(3 -2.11552e-16 0)
(3 -2.95342e-16 0)
(3 -4.4613e-16 0)
(3 -2.68831e-16 0)
(3 -6.34181e-17 0)
(3 5.68631e-16 0)
(3 1.5878e-15 0)
(3 1.8283e-15 0)
(3 9.9305e-16 0)
(3 -1.81803e-16 0)
(3 -2.24039e-16 0)
(3 -4.00622e-16 0)
(3 -6.77038e-16 0)
(3 -2.87207e-16 0)
(3 1.87493e-16 0)
(3 3.86715e-16 0)
(3 3.94218e-16 0)
(3 -6.55414e-16 0)
(3 -1.19195e-15 0)
(3 -1.30889e-15 0)
(3 -1.36037e-15 0)
(3 -1.84295e-15 0)
(3 -2.31437e-15 0)
(3 -2.55444e-15 0)
(3 -1.73214e-15 0)
(3 -1.03483e-15 0)
(3 -1.33816e-15 0)
(3 -1.31775e-15 0)
(3 -1.41577e-15 0)
(3 -1.20456e-15 0)
(3 -8.70593e-16 0)
(3 -8.59918e-16 0)
(3 -1.21383e-15 0)
(3 -1.58809e-15 0)
(3 -1.50538e-16 0)
(3 1.071e-15 0)
(3 1.26448e-15 0)
(3 6.84299e-16 0)
(3 -1.10775e-16 0)
(3 -6.1879e-16 0)
(3 -1.0202e-16 0)
(3 1.16611e-17 0)
(3 -2.44155e-16 0)
(3 -4.42305e-16 0)
(3 -9.55171e-16 0)
(3 -2.24402e-15 0)
(3 -1.89688e-15 0)
(3 -2.46067e-15 0)
(3 1.48832e-15 0)
(1.51889 0.0231123 0)
(0.77277 0.0259879 0)
(0.728008 0.017 0)
(0.716926 0.012194 0)
(0.705776 0.0124041 0)
(0.693802 0.0145099 0)
(0.67981 0.0176466 0)
(0.663849 0.0212937 0)
(0.646008 0.0245375 0)
(0.626883 0.0258532 0)
(0.607996 0.0241079 0)
(0.59111 0.0203192 0)
(0.576373 0.0173296 0)
(0.563021 0.0168391 0)
(0.549708 0.0186042 0)
(0.535074 0.0213264 0)
(0.518859 0.0231661 0)
(0.50215 0.0229502 0)
(0.485835 0.0219177 0)
(0.469615 0.0218966 0)
(0.452846 0.0232523 0)
(0.435188 0.0244974 0)
(0.41756 0.0240943 0)
(0.40105 0.0230419 0)
(0.385369 0.0228714 0)
(0.369802 0.0231204 0)
(0.353955 0.0230299 0)
(0.337656 0.022683 0)
(0.32091 0.0223051 0)
(0.303976 0.0222542 0)
(0.287161 0.0228174 0)
(0.270748 0.0237662 0)
(0.254957 0.0248152 0)
(0.23968 0.0258556 0)
(0.224189 0.0265786 0)
(0.208335 0.0268979 0)
(0.191409 0.0269104 0)
(0.173296 0.0269388 0)
(0.154028 0.0272414 0)
(0.134419 0.0279287 0)
(0.113807 0.0289033 0)
(0.09404 0.0300515 0)
(0.0737924 0.0311418 0)
(0.0530448 0.0321653 0)
(0.0318644 0.032596 0)
(0.0108113 0.0329978 0)
(3 -2.21843e-17 0)
(3 9.51071e-17 0)
(3 -3.3209e-16 0)
(3 -5.79469e-16 0)
(3 3.18315e-16 0)
(3 1.09031e-15 0)
(3 1.52925e-15 0)
(3 1.3599e-15 0)
(3 1.37274e-15 0)
(3 1.2692e-15 0)
(3 -4.01485e-17 0)
(3 -1.14401e-16 0)
(3 -7.14775e-16 0)
(3 -8.57999e-16 0)
(3 -8.816e-16 0)
(3 -4.57609e-16 0)
(3 -4.98963e-16 0)
(3 -6.45919e-16 0)
(3 -7.3508e-16 0)
(3 -1.55013e-15 0)
(3 -1.63897e-15 0)
(3 -1.02471e-15 0)
(3 -2.43141e-16 0)
(3 -9.99083e-16 0)
(3 -1.45392e-15 0)
(3 -1.05901e-15 0)
(3 -3.15392e-16 0)
(3 -3.60756e-16 0)
(3 -4.35676e-16 0)
(3 -1.44498e-15 0)
(3 -2.15468e-15 0)
(3 -2.03194e-15 0)
(3 -1.30391e-15 0)
(3 -1.1765e-15 0)
(3 -4.16861e-16 0)
(3 2.06576e-16 0)
(3 8.50194e-16 0)
(3 9.20944e-16 0)
(3 1.01846e-15 0)
(3 4.16719e-16 0)
(3 -8.88105e-17 0)
(3 1.13066e-16 0)
(3 2.97005e-16 0)
(3 2.94059e-16 0)
(3 -3.23478e-16 0)
(3 -5.37915e-16 0)
(3 -1.84284e-15 0)
(3 -2.05141e-15 0)
(3 -2.10042e-15 0)
(3 -1.33072e-15 0)
(1.54435 0.0402095 0)
(0.777567 0.0418399 0)
(0.731878 0.0304033 0)
(0.717681 0.0236882 0)
(0.70331 0.0226232 0)
(0.689869 0.0248018 0)
(0.675715 0.029249 0)
(0.660367 0.0348866 0)
(0.643602 0.0400227 0)
(0.625695 0.0420569 0)
(0.60804 0.0395225 0)
(0.591937 0.0341486 0)
(0.576927 0.0299187 0)
(0.562611 0.0293075 0)
(0.548394 0.0320644 0)
(0.533195 0.0361463 0)
(0.51676 0.0385984 0)
(0.500217 0.0379383 0)
(0.483989 0.0364052 0)
(0.467472 0.0366445 0)
(0.450347 0.0389986 0)
(0.432399 0.0410401 0)
(0.414708 0.0403216 0)
(0.398349 0.0384689 0)
(0.382866 0.038 0)
(0.367534 0.0382532 0)
(0.351836 0.0381017 0)
(0.335542 0.037657 0)
(0.318657 0.0372148 0)
(0.3015 0.0372492 0)
(0.284474 0.0381946 0)
(0.267899 0.0397019 0)
(0.25194 0.0413272 0)
(0.236426 0.0429075 0)
(0.220631 0.0439852 0)
(0.204526 0.0444392 0)
(0.187558 0.0444834 0)
(0.169626 0.0445936 0)
(0.150872 0.0451117 0)
(0.131865 0.0462346 0)
(0.111847 0.0477617 0)
(0.0925085 0.049552 0)
(0.0726582 0.0513693 0)
(0.0522951 0.0531431 0)
(0.0314367 0.0539907 0)
(0.0106643 0.0548591 0)
(3 -6.80671e-17 0)
(3 -2.17216e-16 0)
(3 -1.02057e-16 0)
(3 -3.56126e-17 0)
(3 6.21653e-18 0)
(3 3.42586e-16 0)
(3 2.15708e-16 0)
(3 2.6748e-16 0)
(3 4.15029e-16 0)
(3 6.96479e-16 0)
(3 4.78177e-16 0)
(3 1.72497e-16 0)
(3 -1.7518e-16 0)
(3 -3.72548e-16 0)
(3 -5.43278e-16 0)
(3 -6.34896e-16 0)
(3 -1.43603e-15 0)
(3 -2.00413e-15 0)
(3 -1.52831e-15 0)
(3 -1.00066e-15 0)
(3 -6.96527e-16 0)
(3 -5.55681e-17 0)
(3 7.68188e-16 0)
(3 3.56084e-16 0)
(3 -1.66854e-16 0)
(3 -6.20982e-16 0)
(3 -5.51252e-16 0)
(3 -5.20722e-16 0)
(3 -8.71734e-16 0)
(3 -1.18622e-15 0)
(3 -9.35384e-16 0)
(3 -1.35397e-15 0)
(3 -1.20758e-15 0)
(3 -1.06616e-16 0)
(3 5.21096e-16 0)
(3 -9.54251e-17 0)
(3 -8.28554e-18 0)
(3 3.82985e-16 0)
(3 6.08757e-16 0)
(3 2.90148e-16 0)
(3 5.59544e-17 0)
(3 -4.25215e-16 0)
(3 -4.28985e-16 0)
(3 -6.36065e-16 0)
(3 -5.06126e-16 0)
(3 -6.68014e-16 0)
(3 -9.63521e-16 0)
(3 -1.54476e-15 0)
(3 -1.90501e-15 0)
(3 -3.12886e-15 0)
(1.58214 0.0528892 0)
(0.783572 0.0540293 0)
(0.734257 0.0459822 0)
(0.719463 0.0373341 0)
(0.703462 0.0346819 0)
(0.688697 0.0361359 0)
(0.674146 0.041019 0)
(0.659285 0.0479694 0)
(0.643549 0.0544628 0)
(0.626823 0.0568784 0)
(0.610449 0.053747 0)
(0.595198 0.0474899 0)
(0.580134 0.0426946 0)
(0.565171 0.0423107 0)
(0.550364 0.0461176 0)
(0.53483 0.0513433 0)
(0.518302 0.0540201 0)
(0.501937 0.0527446 0)
(0.485612 0.0508827 0)
(0.46862 0.0516195 0)
(0.451034 0.0550565 0)
(0.432702 0.0578796 0)
(0.414825 0.0568665 0)
(0.398469 0.0541797 0)
(0.382983 0.0532755 0)
(0.367706 0.0533919 0)
(0.352021 0.0531161 0)
(0.335632 0.0526648 0)
(0.318536 0.0523345 0)
(0.301088 0.0526143 0)
(0.283759 0.0540292 0)
(0.266885 0.0561181 0)
(0.250559 0.0582858 0)
(0.234549 0.0603155 0)
(0.218161 0.0616474 0)
(0.201476 0.0621319 0)
(0.184163 0.0621466 0)
(0.16614 0.0622788 0)
(0.147665 0.0629197 0)
(0.129031 0.0643132 0)
(0.10964 0.066268 0)
(0.0906374 0.0685841 0)
(0.071186 0.0710746 0)
(0.0512674 0.0736102 0)
(0.0308267 0.0749348 0)
(0.0104536 0.0763797 0)
(3 1.64021e-16 0)
(3 2.57213e-17 0)
(3 1.77478e-16 0)
(3 1.74869e-17 0)
(3 -3.1218e-16 0)
(3 -6.02172e-16 0)
(3 -9.70682e-16 0)
(3 -8.0071e-16 0)
(3 -3.18357e-16 0)
(3 8.02824e-17 0)
(3 6.50645e-17 0)
(3 -3.70163e-16 0)
(3 -8.5587e-17 0)
(3 -3.05365e-18 0)
(3 -1.31361e-16 0)
(3 -6.10868e-16 0)
(3 -1.06832e-15 0)
(3 -1.9124e-15 0)
(3 -1.77962e-15 0)
(3 -2.8186e-16 0)
(3 7.69166e-16 0)
(3 3.62182e-16 0)
(3 -3.12858e-16 0)
(3 -8.09428e-16 0)
(3 -1.35717e-15 0)
(3 -1.59716e-15 0)
(3 -2.29584e-15 0)
(3 -2.28556e-15 0)
(3 -1.27033e-15 0)
(3 -4.06157e-16 0)
(3 2.63264e-16 0)
(3 1.04285e-16 0)
(3 -3.28874e-16 0)
(3 -2.91705e-17 0)
(3 -2.32588e-16 0)
(3 -7.96801e-16 0)
(3 -9.93325e-16 0)
(3 -6.57025e-16 0)
(3 -5.50808e-16 0)
(3 -6.8582e-16 0)
(3 -9.27844e-16 0)
(3 -1.35316e-15 0)
(3 -8.36339e-16 0)
(3 -5.79013e-16 0)
(3 5.50374e-17 0)
(3 3.88983e-16 0)
(3 7.88691e-17 0)
(3 -1.12258e-15 0)
(3 -9.23922e-16 0)
(3 -1.15861e-15 0)
(1.62878 0.0648979 0)
(0.788508 0.0653999 0)
(0.734763 0.0621238 0)
(0.720633 0.0519226 0)
(0.704155 0.0478735 0)
(0.688754 0.0482331 0)
(0.67375 0.0528775 0)
(0.65907 0.0605988 0)
(0.643874 0.068036 0)
(0.627769 0.0706973 0)
(0.612134 0.06731 0)
(0.597267 0.0608456 0)
(0.58193 0.0560878 0)
(0.566218 0.0561148 0)
(0.550755 0.0608054 0)
(0.534921 0.066766 0)
(0.518493 0.0692805 0)
(0.502577 0.0673848 0)
(0.486412 0.0653874 0)
(0.469312 0.0667382 0)
(0.451707 0.0712254 0)
(0.43341 0.0747084 0)
(0.415731 0.0734214 0)
(0.399738 0.0699517 0)
(0.384516 0.0685389 0)
(0.369513 0.068396 0)
(0.354034 0.0679632 0)
(0.337716 0.0676003 0)
(0.320533 0.0675564 0)
(0.302863 0.0682371 0)
(0.285246 0.0702124 0)
(0.268042 0.072931 0)
(0.251287 0.0756595 0)
(0.234693 0.0781185 0)
(0.217616 0.0796815 0)
(0.200178 0.0801693 0)
(0.182318 0.0801558 0)
(0.163954 0.0802976 0)
(0.145453 0.081009 0)
(0.126859 0.0824964 0)
(0.107831 0.0846243 0)
(0.0889905 0.0872581 0)
(0.0698133 0.0902579 0)
(0.0502746 0.093487 0)
(0.0302225 0.0953019 0)
(0.0102462 0.0973744 0)
(3 4.70038e-17 0)
(3 7.72481e-16 0)
(3 3.40038e-16 0)
(3 1.08935e-16 0)
(3 -4.07083e-17 0)
(3 -4.91466e-16 0)
(3 -4.10394e-16 0)
(3 -3.14488e-16 0)
(3 -3.21139e-16 0)
(3 -1.24721e-15 0)
(3 -7.21268e-16 0)
(3 1.4464e-17 0)
(3 -5.0345e-16 0)
(3 -1.1103e-15 0)
(3 -1.62781e-15 0)
(3 -1.97743e-15 0)
(3 -1.48328e-15 0)
(3 -1.39797e-15 0)
(3 -1.02538e-15 0)
(3 -3.69142e-16 0)
(3 1.19681e-16 0)
(3 -2.31057e-16 0)
(3 -1.24771e-15 0)
(3 -1.44939e-15 0)
(3 -1.98562e-15 0)
(3 -1.95241e-15 0)
(3 -1.46418e-15 0)
(3 -1.23886e-15 0)
(3 -2.77637e-16 0)
(3 2.70832e-16 0)
(3 -4.3415e-16 0)
(3 -6.49896e-16 0)
(3 -6.33405e-16 0)
(3 -4.9859e-16 0)
(3 -3.84128e-16 0)
(3 -4.76236e-17 0)
(3 -2.51323e-16 0)
(3 -5.54687e-16 0)
(3 -3.21944e-16 0)
(3 -3.95789e-16 0)
(3 -2.22372e-16 0)
(3 -3.66006e-16 0)
(3 -6.51738e-16 0)
(3 -6.88227e-16 0)
(3 -4.57817e-17 0)
(3 -1.83694e-16 0)
(3 -3.79084e-16 0)
(3 -1.19091e-15 0)
(3 -7.10456e-16 0)
(3 -1.52863e-15 0)
(1.68841 0.0771625 0)
(0.794628 0.0763773 0)
(0.735365 0.0777035 0)
(0.722035 0.0665193 0)
(0.705321 0.0613669 0)
(0.689618 0.0608729 0)
(0.674009 0.0653467 0)
(0.658854 0.0735888 0)
(0.643341 0.0815229 0)
(0.62721 0.0841617 0)
(0.611915 0.080587 0)
(0.59744 0.0741962 0)
(0.582271 0.0698084 0)
(0.566476 0.0703963 0)
(0.550984 0.0758309 0)
(0.535272 0.0821039 0)
(0.519272 0.084134 0)
(0.503961 0.0816951 0)
(0.488006 0.0797894 0)
(0.470935 0.0818857 0)
(0.453467 0.08735 0)
(0.435338 0.0912633 0)
(0.417987 0.0896131 0)
(0.402441 0.0854055 0)
(0.387487 0.0834911 0)
(0.372729 0.0831093 0)
(0.357443 0.0826167 0)
(0.34121 0.082504 0)
(0.323955 0.0829238 0)
(0.306049 0.0841214 0)
(0.288107 0.086698 0)
(0.270531 0.09007 0)
(0.253331 0.0933921 0)
(0.236175 0.0963034 0)
(0.218483 0.0981177 0)
(0.200352 0.0986066 0)
(0.181885 0.0985791 0)
(0.163121 0.0987564 0)
(0.144399 0.0995063 0)
(0.125586 0.100981 0)
(0.106691 0.103083 0)
(0.0878528 0.105822 0)
(0.0688038 0.109137 0)
(0.0495253 0.112919 0)
(0.0297613 0.115167 0)
(0.0100924 0.117825 0)
(3 -2.34671e-16 0)
(3 -2.92934e-16 0)
(3 2.07538e-16 0)
(3 6.61721e-16 0)
(3 5.31208e-16 0)
(3 3.96572e-16 0)
(3 1.86067e-16 0)
(3 7.47807e-18 0)
(3 -2.98871e-16 0)
(3 -7.5959e-16 0)
(3 -1.37142e-15 0)
(3 -8.52546e-16 0)
(3 -9.63167e-16 0)
(3 -1.65956e-15 0)
(3 -2.05398e-15 0)
(3 -2.29354e-15 0)
(3 -2.25319e-15 0)
(3 -1.69508e-15 0)
(3 -9.26705e-16 0)
(3 -1.01319e-15 0)
(3 -1.28519e-15 0)
(3 -1.06213e-15 0)
(3 -9.00933e-16 0)
(3 -2.00602e-16 0)
(3 4.13163e-16 0)
(3 -7.78563e-17 0)
(3 2.57469e-16 0)
(3 -2.48191e-16 0)
(3 -1.80253e-16 0)
(3 -4.70893e-16 0)
(3 -9.17562e-16 0)
(3 -1.10214e-15 0)
(3 -9.22023e-16 0)
(3 -8.47057e-16 0)
(3 -2.6579e-16 0)
(3 1.17064e-16 0)
(3 5.4026e-16 0)
(3 1.03518e-16 0)
(3 3.32396e-16 0)
(3 3.38674e-16 0)
(3 -1.49698e-16 0)
(3 -5.0835e-16 0)
(3 -1.03733e-15 0)
(3 -1.36745e-15 0)
(3 -1.24518e-15 0)
(3 -9.17194e-16 0)
(3 -5.7297e-16 0)
(3 -7.87005e-16 0)
(3 7.51234e-16 0)
(3 -2.83415e-15 0)
(1.76467 0.0895326 0)
(0.802824 0.0880069 0)
(0.73664 0.0922116 0)
(0.723876 0.0805867 0)
(0.707073 0.0746958 0)
(0.691028 0.0739041 0)
(0.67482 0.0785131 0)
(0.659109 0.0872115 0)
(0.643268 0.0953515 0)
(0.627253 0.0975087 0)
(0.612486 0.0935466 0)
(0.598429 0.0872882 0)
(0.583458 0.0834738 0)
(0.567716 0.0847824 0)
(0.552275 0.0908608 0)
(0.536648 0.0970867 0)
(0.521005 0.098488 0)
(0.506015 0.0957822 0)
(0.490006 0.0942744 0)
(0.472841 0.0972531 0)
(0.455434 0.103564 0)
(0.437465 0.107555 0)
(0.420542 0.105327 0)
(0.405523 0.100407 0)
(0.390847 0.0980803 0)
(0.37628 0.0976411 0)
(0.361101 0.0973487 0)
(0.344887 0.0977389 0)
(0.327518 0.0987949 0)
(0.309335 0.100546 0)
(0.291024 0.103648 0)
(0.273054 0.107591 0)
(0.255435 0.111483 0)
(0.237818 0.114866 0)
(0.219685 0.11695 0)
(0.201085 0.117428 0)
(0.182163 0.117373 0)
(0.163098 0.117592 0)
(0.144176 0.118373 0)
(0.125091 0.1198 0)
(0.106248 0.121776 0)
(0.0873646 0.124473 0)
(0.0683569 0.127925 0)
(0.0492114 0.132094 0)
(0.0295853 0.134679 0)
(0.0100502 0.137821 0)
(3 -2.66463e-16 0)
(3 -6.00699e-16 0)
(3 -4.50591e-16 0)
(3 -2.78857e-16 0)
(3 -1.01887e-17 0)
(3 -2.56322e-17 0)
(3 1.7052e-17 0)
(3 -1.39288e-16 0)
(3 -2.41713e-16 0)
(3 -3.0798e-16 0)
(3 -7.75333e-16 0)
(3 -1.45152e-15 0)
(3 -1.60417e-15 0)
(3 -1.61758e-15 0)
(3 -2.05997e-15 0)
(3 -2.21451e-15 0)
(3 -2.48588e-15 0)
(3 -1.53017e-15 0)
(3 -8.27632e-16 0)
(3 -7.14699e-16 0)
(3 -1.3201e-15 0)
(3 -9.08682e-16 0)
(3 2.18204e-16 0)
(3 8.321e-16 0)
(3 6.68769e-16 0)
(3 1.09304e-16 0)
(3 -1.82425e-17 0)
(3 -4.54535e-16 0)
(3 -1.25275e-15 0)
(3 -2.02067e-15 0)
(3 -1.76168e-15 0)
(3 -1.11458e-15 0)
(3 -5.37889e-16 0)
(3 -6.12465e-16 0)
(3 -5.66664e-16 0)
(3 2.06644e-16 0)
(3 8.16288e-16 0)
(3 8.58435e-16 0)
(3 9.67874e-16 0)
(3 8.43753e-16 0)
(3 3.82536e-17 0)
(3 -8.89434e-16 0)
(3 -1.50353e-15 0)
(3 -1.47861e-15 0)
(3 -1.53947e-15 0)
(3 -5.74316e-16 0)
(3 -1.56207e-16 0)
(3 3.42602e-16 0)
(3 -5.15234e-17 0)
(3 2.03353e-15 0)
(1.86026 0.100638 0)
(0.813503 0.100279 0)
(0.739451 0.106121 0)
(0.726163 0.0941248 0)
(0.709004 0.0880071 0)
(0.692755 0.0871607 0)
(0.676405 0.0920089 0)
(0.660752 0.10115 0)
(0.644989 0.109053 0)
(0.629297 0.110475 0)
(0.614805 0.106234 0)
(0.600555 0.100389 0)
(0.585271 0.0973689 0)
(0.569296 0.0994757 0)
(0.553769 0.105978 0)
(0.538264 0.11176 0)
(0.5231 0.112487 0)
(0.508367 0.109849 0)
(0.492273 0.109042 0)
(0.475048 0.113017 0)
(0.457701 0.119942 0)
(0.439966 0.123512 0)
(0.423708 0.12036 0)
(0.409336 0.114695 0)
(0.39496 0.112088 0)
(0.380521 0.111872 0)
(0.365333 0.112134 0)
(0.349061 0.113317 0)
(0.331574 0.115161 0)
(0.313171 0.117441 0)
(0.294557 0.120922 0)
(0.276238 0.125307 0)
(0.258222 0.129746 0)
(0.240143 0.133664 0)
(0.22154 0.136094 0)
(0.202472 0.136602 0)
(0.183136 0.136504 0)
(0.16373 0.136737 0)
(0.144538 0.137537 0)
(0.125074 0.138917 0)
(0.106195 0.14074 0)
(0.0872202 0.143322 0)
(0.0682017 0.146774 0)
(0.0491172 0.151183 0)
(0.0295561 0.154002 0)
(0.0100661 0.157508 0)
(3 7.87541e-17 0)
(3 -1.43374e-17 0)
(3 -5.28631e-16 0)
(3 -1.20191e-15 0)
(3 -1.17298e-15 0)
(3 -8.09253e-16 0)
(3 2.25223e-16 0)
(3 4.46015e-16 0)
(3 1.12412e-16 0)
(3 4.60298e-16 0)
(3 6.90108e-16 0)
(3 -5.16344e-17 0)
(3 -7.66393e-16 0)
(3 -1.26045e-15 0)
(3 -1.68146e-15 0)
(3 -1.13338e-15 0)
(3 -3.58793e-16 0)
(3 -4.15847e-17 0)
(3 -1.60471e-16 0)
(3 -5.48598e-16 0)
(3 -6.74839e-16 0)
(3 -6.26261e-16 0)
(3 -1.38872e-16 0)
(3 4.01562e-16 0)
(3 -2.13781e-16 0)
(3 -1.55189e-16 0)
(3 -5.56843e-16 0)
(3 -1.22341e-15 0)
(3 -1.07402e-15 0)
(3 -9.21414e-16 0)
(3 -6.35602e-16 0)
(3 -5.33886e-16 0)
(3 -3.24098e-16 0)
(3 -2.98921e-16 0)
(3 -2.63062e-16 0)
(3 4.53717e-18 0)
(3 6.07257e-16 0)
(3 4.62563e-16 0)
(3 4.14711e-16 0)
(3 3.07241e-16 0)
(3 1.88191e-16 0)
(3 -9.33543e-17 0)
(3 -3.05088e-16 0)
(3 -2.74678e-17 0)
(3 -5.99103e-16 0)
(3 -4.85762e-16 0)
(3 -2.86241e-16 0)
(3 -3.33154e-16 0)
(3 -4.48262e-16 0)
(3 -2.86668e-15 0)
(1.97368 0.108911 0)
(0.825961 0.112888 0)
(0.742541 0.120491 0)
(0.72827 0.108023 0)
(0.710253 0.101343 0)
(0.693418 0.100502 0)
(0.676739 0.105626 0)
(0.661307 0.114958 0)
(0.64598 0.122444 0)
(0.630945 0.123334 0)
(0.616795 0.119172 0)
(0.602347 0.113979 0)
(0.586851 0.111762 0)
(0.570927 0.114481 0)
(0.555686 0.120953 0)
(0.540691 0.125857 0)
(0.526203 0.12596 0)
(0.511606 0.123795 0)
(0.495349 0.124038 0)
(0.478028 0.129119 0)
(0.460649 0.136351 0)
(0.443168 0.138979 0)
(0.427676 0.134636 0)
(0.413781 0.128317 0)
(0.399484 0.125683 0)
(0.384911 0.126043 0)
(0.369406 0.127221 0)
(0.352779 0.129467 0)
(0.334943 0.13224 0)
(0.31618 0.135027 0)
(0.297195 0.138741 0)
(0.278492 0.143415 0)
(0.260069 0.14834 0)
(0.241545 0.152814 0)
(0.222513 0.155637 0)
(0.203113 0.156186 0)
(0.183602 0.155986 0)
(0.164119 0.156165 0)
(0.144905 0.15694 0)
(0.125226 0.158281 0)
(0.106386 0.159971 0)
(0.0873597 0.162419 0)
(0.0683098 0.165774 0)
(0.0492205 0.170299 0)
(0.029652 0.17324 0)
(0.0101269 0.176992 0)
(3 3.10174e-16 0)
(3 4.08701e-16 0)
(3 2.25523e-16 0)
(3 -1.39338e-16 0)
(3 -3.0191e-16 0)
(3 2.33477e-16 0)
(3 6.67115e-17 0)
(3 1.4444e-16 0)
(3 -3.02761e-18 0)
(3 -7.94405e-17 0)
(3 -2.6882e-16 0)
(3 8.35201e-16 0)
(3 9.77369e-16 0)
(3 5.33476e-16 0)
(3 8.57806e-17 0)
(3 2.43042e-16 0)
(3 5.10233e-16 0)
(3 6.96681e-16 0)
(3 1.59338e-16 0)
(3 3.48439e-16 0)
(3 2.08678e-16 0)
(3 -2.24896e-16 0)
(3 -5.28728e-16 0)
(3 -1.24123e-16 0)
(3 6.45761e-16 0)
(3 5.52092e-16 0)
(3 -7.8458e-17 0)
(3 -6.45405e-16 0)
(3 -1.11983e-16 0)
(3 4.50759e-16 0)
(3 3.38291e-16 0)
(3 3.29984e-16 0)
(3 1.79521e-16 0)
(3 5.20827e-17 0)
(3 3.07686e-16 0)
(3 4.38894e-16 0)
(3 3.63877e-16 0)
(3 1.87435e-16 0)
(3 -2.44511e-16 0)
(3 -4.90599e-16 0)
(3 -6.48683e-16 0)
(3 -1.25599e-16 0)
(3 -3.91079e-16 0)
(3 -2.8022e-16 0)
(3 -5.61581e-16 0)
(3 -1.09668e-15 0)
(3 -9.88848e-16 0)
(3 -9.67288e-16 0)
(3 -5.56291e-16 0)
(3 -6.6307e-15 0)
(2.10076 0.115874 0)
(0.8394 0.126924 0)
(0.743184 0.135181 0)
(0.728699 0.122431 0)
(0.710447 0.115156 0)
(0.693593 0.114008 0)
(0.677307 0.119098 0)
(0.662807 0.128132 0)
(0.648642 0.134953 0)
(0.634668 0.135554 0)
(0.620749 0.131943 0)
(0.605875 0.127768 0)
(0.589906 0.126404 0)
(0.573738 0.129527 0)
(0.558395 0.135579 0)
(0.543538 0.139496 0)
(0.529205 0.139357 0)
(0.514336 0.138058 0)
(0.49784 0.139505 0)
(0.480595 0.145553 0)
(0.46345 0.152588 0)
(0.446613 0.153882 0)
(0.432092 0.148385 0)
(0.418507 0.141685 0)
(0.404144 0.139303 0)
(0.389329 0.140473 0)
(0.37342 0.142725 0)
(0.356388 0.146102 0)
(0.338222 0.149831 0)
(0.319216 0.153096 0)
(0.300064 0.156928 0)
(0.281216 0.161751 0)
(0.262625 0.167075 0)
(0.243869 0.172082 0)
(0.224573 0.175314 0)
(0.204989 0.175918 0)
(0.185456 0.175573 0)
(0.166022 0.175665 0)
(0.146784 0.176419 0)
(0.127042 0.177788 0)
(0.108009 0.179422 0)
(0.088731 0.181807 0)
(0.0693963 0.18505 0)
(0.0500156 0.189637 0)
(0.0301532 0.192621 0)
(0.0103251 0.196539 0)
(3 8.58668e-17 0)
(3 8.10129e-17 0)
(3 3.96634e-16 0)
(3 7.72178e-16 0)
(3 1.07184e-15 0)
(3 9.93047e-16 0)
(3 3.40343e-16 0)
(3 -3.90689e-17 0)
(3 -3.97759e-16 0)
(3 -2.42338e-16 0)
(3 -7.77117e-17 0)
(3 3.75738e-16 0)
(3 6.46048e-16 0)
(3 5.27745e-16 0)
(3 7.45724e-16 0)
(3 -3.33361e-17 0)
(3 -3.25498e-16 0)
(3 8.62982e-16 0)
(3 5.098e-16 0)
(3 5.6425e-16 0)
(3 7.67122e-16 0)
(3 6.04903e-16 0)
(3 -5.48026e-17 0)
(3 -8.26402e-17 0)
(3 -2.18015e-16 0)
(3 -2.9117e-16 0)
(3 -4.82942e-17 0)
(3 1.1231e-15 0)
(3 7.58328e-16 0)
(3 8.96048e-16 0)
(3 6.0812e-16 0)
(3 4.82044e-16 0)
(3 3.53916e-16 0)
(3 2.24442e-16 0)
(3 6.71808e-16 0)
(3 1.21475e-15 0)
(3 1.22637e-15 0)
(3 1.34939e-15 0)
(3 7.9519e-16 0)
(3 5.27845e-16 0)
(3 6.45271e-16 0)
(3 6.55028e-16 0)
(3 2.91432e-16 0)
(3 -3.38427e-16 0)
(3 -3.75251e-16 0)
(3 -7.76345e-16 0)
(3 -1.05253e-15 0)
(3 -1.26102e-15 0)
(3 -9.09756e-16 0)
(3 -1.94154e-15 0)
(2.2475 0.12174 0)
(0.858994 0.142214 0)
(0.745598 0.149636 0)
(0.731338 0.136615 0)
(0.71328 0.12882 0)
(0.696686 0.127116 0)
(0.681034 0.131755 0)
(0.667274 0.140022 0)
(0.653728 0.146182 0)
(0.63981 0.147393 0)
(0.625068 0.145292 0)
(0.609099 0.142514 0)
(0.592277 0.141873 0)
(0.575768 0.144979 0)
(0.560552 0.150187 0)
(0.546142 0.15315 0)
(0.532068 0.15305 0)
(0.517161 0.152684 0)
(0.500833 0.15517 0)
(0.484167 0.161732 0)
(0.467693 0.16796 0)
(0.451783 0.16784 0)
(0.437896 0.161643 0)
(0.424154 0.155043 0)
(0.409448 0.153221 0)
(0.394237 0.155333 0)
(0.377843 0.158644 0)
(0.36035 0.163039 0)
(0.341821 0.167652 0)
(0.322553 0.171388 0)
(0.303257 0.175325 0)
(0.284331 0.180237 0)
(0.265664 0.185894 0)
(0.246776 0.19139 0)
(0.227271 0.195028 0)
(0.207498 0.195722 0)
(0.187898 0.195251 0)
(0.168472 0.195302 0)
(0.149183 0.196113 0)
(0.129303 0.197583 0)
(0.109956 0.199248 0)
(0.0902884 0.201643 0)
(0.0705287 0.204785 0)
(0.0507615 0.209405 0)
(0.030572 0.212366 0)
(0.0104842 0.216394 0)
(3 -3.18832e-16 0)
(3 -4.05291e-16 0)
(3 -4.2087e-16 0)
(3 -4.68393e-16 0)
(3 2.48839e-16 0)
(3 3.55713e-16 0)
(3 6.49673e-16 0)
(3 3.01805e-16 0)
(3 2.50915e-16 0)
(3 3.55332e-16 0)
(3 2.83757e-16 0)
(3 -3.03486e-16 0)
(3 -4.3094e-16 0)
(3 -1.10539e-16 0)
(3 4.34237e-16 0)
(3 6.03711e-17 0)
(3 1.64615e-16 0)
(3 2.11781e-16 0)
(3 5.88006e-16 0)
(3 5.94012e-16 0)
(3 1.09167e-15 0)
(3 8.95948e-16 0)
(3 2.44703e-16 0)
(3 -1.80168e-16 0)
(3 -7.43023e-16 0)
(3 -5.03883e-16 0)
(3 -3.87318e-16 0)
(3 -5.47084e-17 0)
(3 -1.19931e-16 0)
(3 -3.11195e-16 0)
(3 6.2513e-17 0)
(3 1.91522e-16 0)
(3 3.45222e-16 0)
(3 3.72296e-16 0)
(3 8.35513e-16 0)
(3 1.44912e-15 0)
(3 1.55272e-15 0)
(3 1.14846e-15 0)
(3 1.57655e-15 0)
(3 2.34305e-15 0)
(3 2.62693e-15 0)
(3 2.79208e-15 0)
(3 2.02798e-15 0)
(3 6.67067e-16 0)
(3 2.1256e-16 0)
(3 -6.32625e-16 0)
(3 -1.29563e-15 0)
(3 -1.70982e-15 0)
(3 -1.34852e-15 0)
(3 -9.29227e-16 0)
(2.41225 0.122957 0)
(0.886492 0.157963 0)
(0.749946 0.163379 0)
(0.736022 0.150723 0)
(0.718563 0.142255 0)
(0.701845 0.139898 0)
(0.685887 0.144133 0)
(0.67157 0.152034 0)
(0.657278 0.158385 0)
(0.642521 0.160622 0)
(0.627284 0.159743 0)
(0.611515 0.157925 0)
(0.595486 0.157523 0)
(0.580002 0.16004 0)
(0.56557 0.164079 0)
(0.551479 0.166414 0)
(0.537089 0.166885 0)
(0.521769 0.167538 0)
(0.505553 0.170758 0)
(0.489645 0.177211 0)
(0.4741 0.182171 0)
(0.459033 0.181055 0)
(0.445055 0.174941 0)
(0.430616 0.168957 0)
(0.415211 0.167959 0)
(0.399361 0.171053 0)
(0.382336 0.175262 0)
(0.364303 0.180397 0)
(0.345372 0.185688 0)
(0.325807 0.189834 0)
(0.306346 0.193883 0)
(0.287365 0.198866 0)
(0.268703 0.204806 0)
(0.249788 0.210744 0)
(0.230143 0.214778 0)
(0.210152 0.215625 0)
(0.190378 0.215117 0)
(0.17085 0.215252 0)
(0.151463 0.216212 0)
(0.131388 0.217824 0)
(0.111728 0.219559 0)
(0.0916723 0.221963 0)
(0.0714774 0.224967 0)
(0.0513225 0.229575 0)
(0.0308356 0.232448 0)
(0.0105824 0.236541 0)
(3 -3.61491e-16 0)
(3 -4.0088e-16 0)
(3 -7.0199e-16 0)
(3 -4.66206e-16 0)
(3 -5.69176e-16 0)
(3 -6.86649e-16 0)
(3 -3.38934e-16 0)
(3 -1.02705e-16 0)
(3 5.70669e-16 0)
(3 4.87349e-16 0)
(3 1.66492e-16 0)
(3 1.97873e-16 0)
(3 7.41773e-17 0)
(3 4.61853e-16 0)
(3 9.80295e-16 0)
(3 6.85948e-16 0)
(3 2.79887e-16 0)
(3 -2.78499e-16 0)
(3 -4.76101e-16 0)
(3 5.92193e-16 0)
(3 1.32535e-15 0)
(3 1.56139e-15 0)
(3 4.69818e-16 0)
(3 -5.16978e-16 0)
(3 -4.05872e-16 0)
(3 -1.09028e-16 0)
(3 2.84432e-16 0)
(3 -2.43433e-16 0)
(3 -5.79988e-16 0)
(3 -1.09532e-15 0)
(3 -2.13036e-16 0)
(3 5.12432e-16 0)
(3 3.52339e-16 0)
(3 2.04834e-16 0)
(3 -3.70945e-17 0)
(3 -1.14342e-16 0)
(3 1.24459e-16 0)
(3 -4.91075e-17 0)
(3 5.28227e-16 0)
(3 1.46079e-15 0)
(3 1.07009e-15 0)
(3 8.0757e-16 0)
(3 9.86872e-16 0)
(3 1.15622e-15 0)
(3 7.47864e-16 0)
(3 -2.80258e-16 0)
(3 -4.01087e-16 0)
(3 -5.02439e-16 0)
(3 -6.04335e-17 0)
(3 -3.36622e-16 0)
(2.57879 0.118613 0)
(0.920586 0.174676 0)
(0.755741 0.175227 0)
(0.743533 0.163134 0)
(0.726334 0.156197 0)
(0.709166 0.15367 0)
(0.692364 0.157539 0)
(0.677272 0.165012 0)
(0.66258 0.171345 0)
(0.647769 0.174028 0)
(0.632954 0.173684 0)
(0.618075 0.172231 0)
(0.603061 0.171746 0)
(0.588276 0.173685 0)
(0.573915 0.177152 0)
(0.55925 0.179878 0)
(0.54392 0.181437 0)
(0.528074 0.18284 0)
(0.512258 0.186113 0)
(0.497424 0.191646 0)
(0.482954 0.195207 0)
(0.468298 0.193891 0)
(0.453607 0.188562 0)
(0.438081 0.183581 0)
(0.421717 0.183598 0)
(0.405085 0.187672 0)
(0.387414 0.192565 0)
(0.368892 0.198098 0)
(0.349623 0.203797 0)
(0.329751 0.208268 0)
(0.310007 0.212459 0)
(0.290796 0.217553 0)
(0.27199 0.223786 0)
(0.252981 0.230161 0)
(0.2332 0.234593 0)
(0.213023 0.235651 0)
(0.193102 0.235184 0)
(0.173523 0.235501 0)
(0.154141 0.236686 0)
(0.133992 0.238452 0)
(0.114138 0.240282 0)
(0.0937338 0.242709 0)
(0.0730493 0.245582 0)
(0.052368 0.250186 0)
(0.0313866 0.252966 0)
(0.0107852 0.257128 0)
(3 1.41021e-16 0)
(3 3.20611e-16 0)
(3 7.18791e-16 0)
(3 9.59515e-16 0)
(3 -1.87203e-16 0)
(3 -6.9115e-16 0)
(3 -2.76485e-16 0)
(3 4.20761e-16 0)
(3 4.8922e-16 0)
(3 4.8678e-16 0)
(3 3.40363e-16 0)
(3 3.45641e-16 0)
(3 8.7763e-16 0)
(3 1.36476e-15 0)
(3 1.09307e-15 0)
(3 1.06428e-15 0)
(3 5.83203e-16 0)
(3 -5.01025e-17 0)
(3 -5.52906e-16 0)
(3 -3.09497e-16 0)
(3 1.89618e-17 0)
(3 -1.07757e-16 0)
(3 -6.38458e-16 0)
(3 -7.82679e-16 0)
(3 -4.68375e-16 0)
(3 -4.18677e-16 0)
(3 4.25463e-17 0)
(3 8.54717e-17 0)
(3 1.61776e-16 0)
(3 3.6746e-16 0)
(3 -1.82012e-16 0)
(3 -3.39086e-16 0)
(3 -2.45405e-16 0)
(3 2.00834e-16 0)
(3 -3.29915e-17 0)
(3 -5.1349e-16 0)
(3 -4.92079e-16 0)
(3 -4.44442e-16 0)
(3 -2.89125e-16 0)
(3 -1.45846e-16 0)
(3 -1.24132e-15 0)
(3 -5.94272e-16 0)
(3 -1.18189e-16 0)
(3 -1.4101e-16 0)
(3 -1.05738e-15 0)
(3 -8.62281e-16 0)
(3 -1.0833e-15 0)
(3 -3.64804e-16 0)
(3 2.36789e-16 0)
(3 1.12187e-15 0)
(2.73903 0.106522 0)
(0.96453 0.187664 0)
(0.763537 0.184257 0)
(0.752636 0.175145 0)
(0.737291 0.169718 0)
(0.720696 0.167568 0)
(0.703508 0.170972 0)
(0.687573 0.177886 0)
(0.672194 0.184058 0)
(0.657053 0.186813 0)
(0.642362 0.18652 0)
(0.627859 0.185224 0)
(0.613175 0.184988 0)
(0.598416 0.186973 0)
(0.583662 0.190598 0)
(0.568364 0.194081 0)
(0.552465 0.196477 0)
(0.53658 0.197918 0)
(0.521413 0.200448 0)
(0.507417 0.204618 0)
(0.493476 0.207434 0)
(0.478443 0.206886 0)
(0.462413 0.202917 0)
(0.445312 0.199239 0)
(0.427598 0.200397 0)
(0.40993 0.205448 0)
(0.391507 0.210844 0)
(0.372489 0.216456 0)
(0.352931 0.222274 0)
(0.332827 0.226926 0)
(0.312863 0.231219 0)
(0.293517 0.236405 0)
(0.274749 0.242895 0)
(0.255947 0.24966 0)
(0.236402 0.254445 0)
(0.21638 0.255712 0)
(0.196525 0.255324 0)
(0.17695 0.255896 0)
(0.157519 0.25742 0)
(0.137212 0.259439 0)
(0.117066 0.261452 0)
(0.0962101 0.263973 0)
(0.0749309 0.266764 0)
(0.0536159 0.271401 0)
(0.0320375 0.274116 0)
(0.0110045 0.278368 0)
(3 2.89459e-18 0)
(3 3.53827e-16 0)
(3 6.73879e-16 0)
(3 1.22261e-16 0)
(3 1.59693e-16 0)
(3 3.51243e-16 0)
(3 3.8164e-16 0)
(3 1.5588e-16 0)
(3 -2.66516e-17 0)
(3 5.3885e-16 0)
(3 4.64928e-16 0)
(3 4.60531e-16 0)
(3 8.75549e-16 0)
(3 1.28076e-15 0)
(3 7.86607e-16 0)
(3 8.15922e-16 0)
(3 9.88792e-16 0)
(3 3.27328e-16 0)
(3 8.80038e-17 0)
(3 -6.53522e-16 0)
(3 -1.45138e-15 0)
(3 -2.00822e-15 0)
(3 -1.49183e-15 0)
(3 -3.41637e-16 0)
(3 2.59109e-16 0)
(3 1.68768e-16 0)
(3 -5.23124e-16 0)
(3 -3.87217e-16 0)
(3 1.31188e-16 0)
(3 6.59209e-16 0)
(3 1.87308e-16 0)
(3 -1.18299e-15 0)
(3 -1.00502e-15 0)
(3 -1.92071e-16 0)
(3 2.04968e-16 0)
(3 1.69738e-16 0)
(3 -5.73644e-16 0)
(3 -8.62226e-16 0)
(3 -1.08047e-15 0)
(3 -1.52377e-15 0)
(3 -1.07009e-15 0)
(3 -7.86772e-16 0)
(3 -3.92533e-16 0)
(3 -6.77771e-16 0)
(3 -1.47327e-15 0)
(3 -1.2605e-15 0)
(3 -1.11668e-15 0)
(3 -1.2875e-16 0)
(3 -3.2811e-16 0)
(3 -2.71807e-16 0)
(2.87495 0.0840036 0)
(1.01418 0.199622 0)
(0.771021 0.189715 0)
(0.763261 0.182005 0)
(0.74909 0.180605 0)
(0.733367 0.180522 0)
(0.716035 0.184399 0)
(0.699296 0.191029 0)
(0.68322 0.196792 0)
(0.667716 0.199183 0)
(0.652795 0.198817 0)
(0.638025 0.197835 0)
(0.623153 0.198053 0)
(0.608254 0.200243 0)
(0.59334 0.204089 0)
(0.577929 0.208203 0)
(0.56191 0.211134 0)
(0.546001 0.212334 0)
(0.530952 0.214035 0)
(0.516942 0.217328 0)
(0.502712 0.220433 0)
(0.486749 0.221314 0)
(0.469089 0.218949 0)
(0.450171 0.216544 0)
(0.430869 0.218611 0)
(0.412105 0.224339 0)
(0.393182 0.229898 0)
(0.374213 0.235228 0)
(0.355123 0.240858 0)
(0.335616 0.245512 0)
(0.316159 0.249821 0)
(0.297208 0.255043 0)
(0.278808 0.261746 0)
(0.260381 0.268896 0)
(0.241108 0.274077 0)
(0.221129 0.27567 0)
(0.201062 0.275526 0)
(0.181091 0.276524 0)
(0.16117 0.278586 0)
(0.14042 0.281007 0)
(0.11981 0.283275 0)
(0.0984734 0.285906 0)
(0.0766681 0.288606 0)
(0.0548054 0.293263 0)
(0.0326847 0.295914 0)