/*--------------------------------*- C++ -*----------------------------------*\
  =========                 |
  \\      /  F ield         | OpenFOAM: The Open Source CFD Toolbox
   \\    /   O peration     | Website:  https://openfoam.org
    \\  /    A nd           | Version:  7
     \\/     M anipulation  |
\*---------------------------------------------------------------------------*/
FoamFile
{
    version     2.0;
    format      ascii;
    class       volScalarField;
    location    "1.7";
    object      p;
}
// * * * * * * * * * * * * * * * * * * * * * * * * * * * * * * * * * * * * * //

dimensions      [1 -1 -2 0 0 0 0];

internalField   nonuniform List<scalar> 
4032
(
1
1
1
1
1
1
1
1
1
1
1
1
3.94842
10.2155
10.787
10.9673
11.1711
11.343
11.4963
11.6303
11.7555
11.8635
11.936
11.9887
1
1
1
1
1
1
1
1
1
1
1
1
3.80724
10.0969
10.7649
10.9459
11.1464
11.3144
11.4641
11.5916
11.7092
11.8097
11.8751
11.9262
1
1
1
1
1
1
1
1
1
1
1
1
3.49083
9.92128
10.7187
10.8981
11.0974
11.2634
11.4111
11.5336
11.644
11.7359
11.7893
11.837
1
1
1
1
1
1
1
1
1
1
1
1
3.03215
9.60649
10.6551
10.8273
11.0292
11.1962
11.3422
11.4572
11.5567
11.633
11.6637
11.696
1
1
1
1
1
1
1
1
1
1
1
1
2.48542
9.13687
10.6197
10.7679
10.9608
11.1126
11.2433
11.3365
11.4105
11.4666
11.4782
11.524
1
1
1
1
1
1
1
1
1
1
1
1
1.84784
8.42842
10.5707
10.6717
10.8594
11.0006
11.1193
11.1986
11.2609
11.3032
11.2859
11.2441
1
1
1
1
1
1
1
1
1
1
1
1
1.25006
7.53123
10.5949
10.5941
10.7282
10.8302
10.9154
10.9632
10.9806
10.9336
10.8541
10.8103
1
1
1
1
1
1
1
1
1
1
1
1
1.01008
6.3384
10.2082
10.3072
10.4529
10.5532
10.6156
10.6388
10.614
10.5312
10.4002
10.4156
1
1
1
1
1
1
1
1
1
1
1
1
1.00002
4.86833
9.83128
10.1787
10.2802
10.3366
10.3431
10.3159
10.1979
9.94221
9.1691
7.2743
1
1
1
1
1
1
1
1
1
1
1
1
1
3.32756
9.17518
10.0257
10.1172
10.1314
10.0834
9.97088
9.73982
9.26515
8.42665
6.37769
1
1
1
1
1
1
1
1
1
1
1
1
1
1.86897
8.21883
9.98273
9.96289
9.91614
9.80047
9.60073
9.28797
8.70443
7.85458
5.94638
1
1
1
1
1
1
1
1
1
1
1
1
1
1.08136
6.59849
9.69062
9.68238
9.62628
9.48299
9.24018
8.87804
8.30009
7.38926
5.83023
1
1
1
1
1
1
1
1
1
1
1
1
1
1.00044
4.49533
9.20751
9.46858
9.36352
9.20343
8.9375
8.54454
7.98062
7.07777
5.85314
1
1
1
1
1
1
1
1
1
1
1
1
1
0.999997
2.31635
8.32022
9.3165
9.13372
8.94856
8.67144
8.27036
7.71082
6.88105
5.9308
1
1
1
1
1
1
1
1
1
1
1
1
1
0.999999
1.14253
6.49708
9.00759
8.84847
8.7011
8.42792
8.05912
7.50321
6.78496
5.9987
1
1
1
1
1
1
1
1
1
1
1
1
1
1
1.00147
3.81403
8.32456
8.67095
8.55361
8.28484
7.89526
7.37537
6.74763
6.07781
1
1
1
1
1
1
1
1
1
1
1
1
1
1
0.999993
1.49939
7.15903
8.70433
8.45137
8.14593
7.74025
7.25449
6.70154
6.11839
1
1
1
1
1
1
1
1
1
1
1
1
1
1
0.999999
1.02125
4.73393
8.17751
8.22449
7.96021
7.60737
7.15953
6.6644
6.14254
1
1
1
1
1
1
1
1
1
1
1
1
1
1
1
0.999991
1.8486
7.13381
8.24546
7.87813
7.52305
7.09816
6.64333
6.16379
1
1
1
1
1
1
1
1
1
1
1
1
1
1
1
0.999996
1.05647
4.86398
7.88242
7.71714
7.40001
7.02297
6.61369
6.17733
1
1
1
1
1
1
1
1
1
1
1
1
1
1
1
0.999999
1.00025
1.93911
6.6665
7.72851
7.36567
7.01102
6.62802
6.22035
1
1
1
1
1
1
1
1
1
1
1
1
1
1
1
1
1
1.06483
4.20486
7.40427
7.28945
6.95771
6.60527
6.23146
1
1
1
1
1
1
1
1
1
1
1
1
1
1
1
1
1
1.00052
1.67352
5.9052
7.33585
6.94956
6.62166
6.26682
1
1
1
1
1
1
1
1
1
1
1
1
1
1
1
1
1
1
1.03409
3.04094
6.5807
6.94121
6.62193
6.28517
1
1
1
1
1
1
1
1
1
1
1
1
1
1
1
1
1
1
1.00029
1.28651
4.60965
6.90512
6.68443
6.35325
1
1
1
1
1
1
1
1
1
1
1
1
1
1
1
1
1
1
1
1.00756
1.96692
5.6414
6.68225
6.39633
1
1
1
1
1
1
1
1
1
1
1
1
1
1
1
1
1
1
1
1.00004
1.06864
2.96492
6.02623
6.44535
1
1
1
1
1
1
1
1
1
1
1
1
1
1
1
1
1
1
1
1
1.00093
1.26778
3.97431
6.13105
1
1
1
1
1
1
1
1
1
1
1
1
1
1
1
1
1
1
1
1
1
1.00755
1.66388
4.64296
1
1
1
1
1
1
1
1
1
1
1
1
1
1
1
1
1
1
1
1
1
1.00005
1.036
2.14962
1
1
1
1
1
1
1
1
1
1
1
1
1
1
1
1
1
1
1
1
1
1
1.00042
1.10035
1
1
1
1
1
1
1
1
1
1
1
1
1
1
1
1
1
1
1
1
1
1
1
1.00183
1
1
1
1
1
1
1
1
1
1
1
1
1
1
1
1
1
1
1
1
1
1
1
1.00001
1
1
1
1
1
1
1
1
1
1
1
1
1
1
1
1
1
1
1
1
1
1
1
1
1
1
1
1
1
1
1
1
1
1
1
1
1
1
1
1
1
1
1
1
1
1
1
1
1
1
1
1
1
1
1
1
1
1
1
1
1
1
1
1
1
1
1
1
1
1
1
1
1
1
1
1
1
1
1
1
1
1
1
1
1
1
1
1
1
1
1
1
1
1
1
1
1
1
1
1
1
1
1
1
1
1
1
1
1
1
1
1
1
1
1
1
1
1
1
1
1
1
1
1
1
1
1
1
1
1
1
1
1
1
1
1
1
1
1
1
1
1
1
1
1
1
1
1
1
1
1
1
1
1
1
1
1
1
1
1
1
1
1
1
1
1
1
1
1.65894
0.442928
0.12748
0.1352
0.215105
0.279585
0.349118
0.47256
0.657833
0.774615
0.841959
0.935746
1.03765
1.14493
1.24316
1.25003
1.24809
1.2422
1.24258
1.22343
1.21718
1.23143
1.2545
1.25996
1.25792
1.24996
1.24162
1.23708
1.23242
1.22934
1.23177
1.24152
1.25128
1.25546
1.25624
1.255
1.25062
1.24258
1.23453
1.22992
1.22886
1.22641
1.21806
1.20925
1.20918
1.26198
1.5453
2.21926
3.32006
4.37219
5.1001
5.63343
5.746
5.54934
5.28494
4.97362
4.75981
4.61029
4.528
4.45959
4.39012
4.30787
4.22995
4.12274
4.00581
3.92163
3.84459
3.76265
3.68483
3.61869
3.55757
3.49734
3.43658
3.37287
3.299
3.20326
3.09227
3.01765
2.9814
2.95238
2.92806
2.91249
2.89254
2.85954
2.81653
2.73961
2.61486
2.5284
2.49049
2.46412
2.44049
2.42108
2.39935
2.36999
2.33472
2.24117
2.77844
1.55786
0.859781
0.602152
0.595211
0.545485
0.503625
0.501495
0.511786
0.553377
0.612028
0.689663
0.782312
0.884584
1.00286
1.08181
1.10117
1.12936
1.16649
1.1799
1.2037
1.23904
1.25641
1.25416
1.25235
1.24913
1.24091
1.23691
1.23406
1.2321
1.23374
1.24201
1.24689
1.24785
1.24668
1.24539
1.24276
1.23784
1.23211
1.22829
1.22375
1.2158
1.20622
1.22301
1.31525
1.62969
2.16535
2.5143
2.76816
3.23779
3.79843
4.26208
4.66695
4.86315
4.9325
4.86861
4.77146
4.66241
4.58058
4.50496
4.41956
4.33078
4.24756
4.14453
4.03103
3.9271
3.8285
3.74052
3.65404
3.58264
3.53429
3.49138
3.44232
3.38764
3.32452
3.24673
3.14973
3.04807
2.97895
2.93931
2.90891
2.88516
2.86286
2.8353
2.79767
2.73858
2.65479
2.56683
2.50189
2.46288
2.4364
2.41118
2.38806
2.36221
2.33156
2.25354
3.59416
2.42407
1.74049
1.23952
0.99425
0.845319
0.689429
0.628421
0.591464
0.576572
0.60739
0.663867
0.715827
0.760751
0.825305
0.918835
0.973123
1.02143
1.09986
1.16598
1.22043
1.26793
1.27993
1.27572
1.27217
1.26563
1.24956
1.23073
1.22627
1.22688
1.23019
1.23521
1.23913
1.24193
1.2421
1.24154
1.24061
1.23823
1.23542
1.2329
1.22726
1.22301
1.24983
1.41581
1.82635
2.34619
2.61105
2.71128
2.70965
2.72202
2.84426
3.15779
3.6762
4.16831
4.56464
4.74668
4.82344
4.75192
4.6554
4.55591
4.4433
4.32446
4.21224
4.10391
4.01031
3.9196
3.83096
3.74473
3.64401
3.55663
3.50739
3.4676
3.42373
3.3753
3.32392
3.26892
3.20492
3.12053
3.01858
2.93629
2.88728
2.85222
2.81922
2.78073
2.73315
2.68953
2.65027
2.60641
2.55304
2.49672
2.45276
2.41801
2.38439
2.34481
2.30535
2.24214
4.23975
3.13864
2.39816
1.8836
1.51051
1.27209
1.06902
0.909567
0.85981
0.796488
0.742403
0.716457
0.692134
0.689554
0.698447
0.732993
0.798175
0.869184
0.954965
1.04707
1.10675
1.16217
1.20812
1.22165
1.243
1.26536
1.2655
1.25296
1.24599
1.24529
1.24133
1.23606
1.2334
1.23194
1.22936
1.2268
1.22674
1.22654
1.22491
1.22671
1.23517
1.28107
1.50848
2.05098
2.51028
2.76422
2.82822
2.80117
2.7274
2.65398
2.61647
2.60888
2.7222
3.02541
3.5454
4.0551
4.39743
4.47898
4.48844
4.45826
4.42504
4.35557
4.26614
4.1576
4.05696
3.96549
3.8774
3.78862
3.67567
3.55331
3.46131
3.41126
3.37204
3.33772
3.30317
3.2628
3.21726
3.16078
3.08026
2.9714
2.87831
2.82523
2.78291
2.73896
2.69982
2.67032
2.64227
2.6126
2.57713
2.52824
2.46807
2.41577
2.37157
2.3245
2.28464
2.23144
4.66712
3.73848
2.97459
2.43145
2.00862
1.68892
1.47103
1.26031
1.11035
1.03451
0.939925
0.851418
0.776989
0.736578
0.715474
0.720557
0.737508
0.762676
0.804691
0.873538
0.943566
1.01573
1.10149
1.14872
1.17552
1.2074
1.22478
1.22086
1.22965
1.24899
1.25304
1.24984
1.24702
1.24503
1.23971
1.2291
1.21904
1.2153
1.21804
1.24047
1.33869
1.6431
2.21307
2.73494
2.8589
2.86041
2.80727
2.75054
2.70251
2.65922
2.61543
2.58084
2.53207
2.51827
2.60988
2.88601
3.32757
3.75634
4.06195
4.19324
4.23807
4.2097
4.15977
4.13257
4.10105
4.03138
3.94892
3.84365
3.7234
3.59336
3.44494
3.33256
3.28372
3.25436
3.24467
3.23674
3.21471
3.17878
3.13214
3.05269
2.92301
2.80098
2.73434
2.69738
2.67423
2.65842
2.64113
2.61565
2.58659
2.5472
2.48089
2.39669
2.33164
2.28991
2.27051
2.23366
5.0027
4.18626
3.49852
2.93292
2.46102
2.07761
1.82645
1.6182
1.40136
1.27927
1.1785
1.06638
0.984108
0.919867
0.864703
0.80945
0.791293
0.794323
0.782573
0.777842
0.78959
0.823629
0.883504
0.968139
1.03659
1.10422
1.16934
1.18287
1.19779
1.22212
1.22721
1.22295
1.22171
1.22587
1.23267
1.23111
1.2262
1.22828
1.25381
1.44392
1.87994
2.39845
2.85314
2.93314
2.87391
2.83273
2.80264
2.77902
2.74028
2.69574
2.63436
2.54475
2.47945
2.44871
2.4298
2.41834
2.47826
2.68328
3.01557
3.40787
3.69958
3.89308
3.93237
3.97369
3.97052
3.97327
3.94167
3.88154
3.78991
3.66838
3.51457
3.35895
3.25945
3.20875
3.17524
3.17372
3.19216
3.16857
3.12813
3.07351
2.97862
2.83936
2.73386
2.68862
2.66008
2.63863
2.63031
2.61405
2.58767
2.55154
2.48887
2.39242
2.30769
2.27527
2.26184
2.22848
5.23108
4.49134
3.86533
3.33531
2.87299
2.46896
2.15097
1.91499
1.71006
1.53514
1.4068
1.27698
1.16441
1.08018
1.00821
0.943733
0.89257
0.865961
0.832047
0.793437
0.790976
0.793224
0.795169
0.8098
0.85243
0.920225
1.00879
1.08739
1.13013
1.17613
1.19591
1.19203
1.19823
1.2059
1.21639
1.21575
1.22076
1.26874
1.52833
2.17339
2.63908
2.92871
2.97694
2.94342
2.86769
2.82567
2.80178
2.79297
2.74798
2.68457
2.6004
2.5054
2.45118
2.41306
2.38186
2.35479
2.33555
2.31731
2.33454
2.44426
2.66564
2.9861
3.29191
3.55581
3.67925
3.76319
3.79422
3.78342
3.74871
3.68857
3.58623
3.46367
3.339
3.22495
3.1606
3.12582
3.0953
3.07717
3.06048
3.02953
2.97653
2.89463
2.79771
2.71534
2.66375
2.63125
2.60422
2.58353
2.56109
2.52971
2.48104
2.41159
2.33349
2.27194
2.24859
2.21321
5.38993
4.7336
4.17211
3.64969
3.17689
2.80908
2.48535
2.20496
1.97183
1.79018
1.62402
1.48796
1.37453
1.27625
1.18031
1.09307
1.03398
0.994626
0.954969
0.901286
0.864773
0.843791
0.811109
0.799966
0.802229
0.817905
0.850165
0.909831
0.976216
1.04171
1.09955
1.13219
1.15135
1.16346
1.18338
1.20174
1.29739
1.62469
2.33892
2.85302
3.02137
3.02067
2.96429
2.86314
2.79996
2.7785
2.76903
2.76123
2.71837
2.65169
2.56266
2.47306
2.42584
2.39321
2.35761
2.31855
2.28229
2.25125
2.23099
2.21434
2.1876
2.23483
2.37021
2.60678
2.93441
3.22138
3.438
3.54115
3.59837
3.58551
3.53914
3.49724
3.42257
3.31171
3.20774
3.11983
3.06588
3.02918
2.99373
2.9569
2.92516
2.89311
2.84882
2.77969
2.69511
2.62418
2.57735
2.54077
2.51422
2.49601
2.46925
2.4251
2.36811
2.30416
2.25601
2.2015
5.49692
4.92202
4.40227
3.89095
3.44983
3.09414
2.76126
2.4566
2.22836
2.03783
1.84874
1.67321
1.55426
1.45578
1.35467
1.26509
1.18908
1.12658
1.06007
0.996147
0.946843
0.908104
0.866797
0.823717
0.816647
0.821169
0.828229
0.83414
0.851032
0.881426
0.925459
0.979167
1.02489
1.06878
1.12649
1.28172
1.79328
2.40039
2.97428
3.09518
3.10045
3.05359
2.9704
2.84243
2.75811
2.72919
2.71744
2.70295
2.66839
2.61329
2.55207
2.48894
2.41957
2.36513
2.31644
2.27161
2.23886
2.20892
2.18233
2.16598
2.14562
2.11683
2.0616
2.03888
2.10881
2.28925
2.57152
2.86845
3.12369
3.32889
3.38597
3.38148
3.34775
3.3036
3.25478
3.17897
3.08958
3.01076
2.95899
2.9191
2.89003
2.86543
2.83346
2.78931
2.73142
2.65495
2.57701
2.52188
2.47897
2.43774
2.41182
2.39219
2.36419
2.32526
2.28399
2.21164
5.58778
5.07664
4.58944
4.10423
3.70032
3.33909
3.00494
2.70001
2.47545
2.25347
2.05639
1.87503
1.75082
1.62893
1.51285
1.41056
1.33925
1.2711
1.20021
1.12777
1.06836
1.01744
0.969455
0.912622
0.892724
0.881294
0.858884
0.837347
0.836188
0.834488
0.833349
0.84094
0.871901
0.926103
1.09417
1.70316
2.3542
2.7908
2.98205
3.0368
3.02397
2.98499
2.90877
2.82162
2.74723
2.70206
2.67056
2.64354
2.60444
2.56864
2.53128
2.48609
2.4255
2.34927
2.27759
2.22675
2.19422
2.17164
2.15489
2.13389
2.10821
2.08113
2.0462
1.99756
1.90435
1.8751
1.91679
2.03844
2.24894
2.53159
2.81048
3.04837
3.12988
3.16624
3.1423
3.11339
3.07528
3.02456
2.96282
2.91371
2.88168
2.8503
2.8142
2.77626
2.73329
2.67673
2.60089
2.52354
2.46105
2.41249
2.37728
2.35013
2.32972
2.31097
2.28761
2.2277
5.66386
5.19825
4.73642
4.28809
3.91307
3.5617
3.21094
2.92485
2.69582
2.46984
2.25278
2.0646
1.9335
1.79702
1.67902
1.56675
1.47951
1.39409
1.31677
1.24641
1.18923
1.13284
1.07788
1.01838
0.980003
0.948675
0.911215
0.863692
0.847473
0.838906
0.828998
0.830745
0.84931
1.0234
1.5607
2.18212
2.40682
2.5837
2.64702
2.71028
2.74513
2.77321
2.77503
2.77296
2.72504
2.65672
2.61038
2.57573
2.54308
2.51926
2.49996
2.46009
2.40668
2.34262
2.26738
2.20042
2.15456
2.12465
2.10035
2.07876
2.05864
2.03375
2.00918
1.9753
1.91695
1.8416
1.80304
1.78394
1.79268
1.84846
1.99035
2.20909
2.46235
2.67981
2.825
2.88246
2.9318
2.92291
2.90001
2.87656
2.84507
2.82143
2.81168
2.77911
2.74019
2.68771
2.62013
2.5419
2.47012
2.41447
2.37095
2.33698
2.3038
2.25998
2.23689
2.20264
5.73015
5.30268
4.86826
4.45843
4.102
3.7563
3.40406
3.13879
2.89683
2.66639
2.42697
2.26223
2.11189
1.96311
1.82057
1.71326
1.62896
1.5308
1.44514
1.35992
1.29724
1.23545
1.17927
1.12619
1.08951
1.05125
1.00687
0.948422
0.915562
0.889953
0.872077
0.891413
1.06207
1.59208
2.19989
2.31087
2.30694
2.26934
2.25802
2.30024
2.3802
2.4697
2.52951
2.57006
2.57707
2.53937
2.48804
2.46507
2.46822
2.47108
2.45392
2.41921
2.37684
2.32873
2.27054
2.19582
2.12457
2.08366
2.05824
2.03427
2.01414
1.99071
1.9656
1.94115
1.90371
1.8464
1.79489
1.75337
1.72662
1.70666
1.69453
1.71404
1.78238
1.90778
2.08333
2.26193
2.43815
2.56461
2.66452
2.74439
2.75061
2.71812
2.70174
2.70563
2.70969
2.68348
2.63144
2.56319
2.4818
2.42297
2.38617
2.34848
2.29511
2.22914
2.20324
2.17176
5.80566
5.40047
4.98511
4.60296
4.26472
3.91963
3.5824
3.32457
3.08168
2.83759
2.60476
2.44583
2.27779
2.12383
1.96581
1.86414
1.76313
1.65963
1.56481
1.48025
1.41512
1.34615
1.28396
1.22084
1.18288
1.14122
1.09268
1.03907
0.996217
0.958553
0.974624
1.16095
1.72604
2.38325
2.45673
2.36914
2.27665
2.20711
2.1853
2.1745
2.16376
2.15949
2.15945
2.17076
2.19725
2.21931
2.25139
2.27933
2.29606
2.30999
2.31873
2.33023
2.32669
2.2997
2.25467
2.17358
2.10259
2.07274
2.04552
2.01496
1.98325
1.95095
1.91893
1.88109
1.84959
1.82187
1.79056
1.75326
1.71604
1.67989
1.64895
1.62891
1.6145
1.60439
1.61325
1.65551
1.74191
1.883
2.04914
2.21288
2.36938
2.50354
2.52804
2.55709
2.58015
2.57978
2.57142
2.5393
2.48185
2.44015
2.40268
2.36238
2.31181
2.25459
2.20344
2.1488
5.84822
5.46891
5.08131
4.71993
4.39862
4.06571
3.75231
3.49373
3.25131
2.98828
2.78398
2.61758
2.44442
2.2706
2.11321
2.01313
1.8971
1.79074
1.6803
1.59829
1.52592
1.45237
1.38768
1.32618
1.28258
1.23127
1.17836
1.12354
1.07765
1.11898
1.40804
1.9944
2.6174
2.69937
2.60232
2.45818
2.33137
2.25022
2.19804
2.16427
2.1331
2.10309
2.08263
2.0562
2.01681
1.97196
1.96238
1.97339
2.00186
2.02738
2.06463
2.10332
2.14324
2.16869
2.15908
2.12425
2.08122
2.06299
2.04212
2.00809
1.95842
1.91969
1.88672
1.84506
1.80673
1.78561
1.76048
1.73305
1.70826
1.67589
1.62709
1.59222
1.57582
1.56041
1.53903
1.51489
1.49597
1.4926
1.52127
1.5868
1.69424
1.85506
2.02113
2.16712
2.26786
2.35127
2.43111
2.43654
2.41877
2.36853
2.34332
2.33216
2.31592
2.28856
2.24261
2.15733
5.90337
5.54293
5.18318
4.8388
4.52082
4.20564
3.91437
3.65992
3.40801
3.1402
2.94871
2.77739
2.60777
2.41207
2.27042
2.15542
2.02824
1.91399
1.79673
1.72228
1.63934
1.56211
1.48304
1.42247
1.37392
1.31457
1.26597
1.21468
1.26172
1.65373
2.33018
2.88437
2.96312
2.84374
2.70536
2.57665
2.47167
2.38556
2.3079
2.24236
2.18406
2.12584
2.0622
2.01423
1.98019
1.94537
1.8925
1.8294
1.79233
1.78306
1.79132
1.80829
1.82836
1.87396
1.92351
1.96127
1.97068
1.96571
1.95457
1.92575
1.90781
1.88901
1.8662
1.82576
1.7827
1.74839
1.71786
1.69644
1.67991
1.65529
1.6079
1.56452
1.54593
1.53096
1.50978
1.48346
1.45927
1.43732
1.40874
1.37552
1.36826
1.38774
1.4433
1.54068
1.67953
1.82818
1.9792
2.10447
2.2257
2.24278
2.22065
2.21662
2.21515
2.21924
2.20814
2.16527
5.94167
5.59719
5.26797
4.95107
4.63299
4.32351
4.05544
3.8073
3.55018
3.29379
3.09807
2.92181
2.74135
2.5477
2.41483
2.28551
2.15863
2.0212
1.91482
1.8397
1.75002
1.67046
1.58136
1.52439
1.45859
1.40219
1.36345
1.45678
1.9667
2.72934
3.15114
3.21927
3.10528
2.95408
2.82657
2.73048
2.6376
2.52701
2.41918
2.33086
2.25896
2.19327
2.12933
2.0734
2.01757
1.95742
1.8932
1.82264
1.76399
1.73641
1.71012
1.68272
1.66331
1.65912
1.66609
1.68772
1.69954
1.69923
1.72048
1.74252
1.7788
1.7971
1.78278
1.77006
1.74991
1.72633
1.6978
1.66611
1.63931
1.60951
1.56865
1.53849
1.52432
1.51343
1.49199
1.46731
1.44539
1.42053
1.38597
1.34363
1.30892
1.28958
1.27872
1.27773
1.29409
1.33397
1.41686
1.53288
1.66889
1.79178
1.90954
1.96894
2.00749
2.03687
2.07518
2.08128
6.02148
5.68573
5.37041
5.0653
4.75327
4.45041
4.18883
3.93858
3.685
3.446
3.25021
3.05959
2.86746
2.68594
2.55261
2.41439
2.28078
2.13347
2.03802
1.95441
1.86418
1.77488
1.68637
1.61176
1.54737
1.5194
1.6689
2.36129
3.20063
3.46227
3.46227
3.34226
3.1943
3.07213
2.96113
2.86451
2.76246
2.65354
2.54399
2.44375
2.35803
2.28349
2.21785
2.15583
2.09228
2.02715
1.95598
1.8765
1.7893
1.72355
1.68418
1.65277
1.62854
1.61129
1.58941
1.56695
1.54285
1.51017
1.4924
1.49435
1.51082
1.55709
1.60307
1.64022
1.67059
1.66956
1.62834
1.60177
1.5813
1.55965
1.53991
1.52327
1.51077
1.48617
1.46018
1.44286
1.42596
1.40226
1.36907
1.32619
1.2868
1.26376
1.24894
1.23584
1.22359
1.21189
1.20202
1.20804
1.2312
1.27539
1.34914
1.45472
1.5808
1.69208
1.76576
1.85535
6.06038
5.74568
5.4451
5.14519
4.83749
4.56097
4.30591
4.05063
3.78809
3.57618
3.3837
3.18908
2.98348
2.81694
2.68195
2.53583
2.39543
2.25096
2.16265
2.06647
1.97158
1.87417
1.77938
1.70223
1.69943
1.94147
2.74826
3.74526
3.90596
3.71555
3.52752
3.39634
3.28293
3.18971
3.0973
2.9972
2.88698
2.76473
2.64157
2.53584
2.4463
2.36437
2.28765
2.21597
2.1494
2.08779
2.024
1.95016
1.86558
1.78736
1.7275
1.67931
1.63871
1.60205
1.56531
1.5319
1.50198
1.47249
1.42955
1.39945
1.37748
1.37143
1.38607
1.40571
1.44282
1.4848
1.49782
1.50011
1.49795
1.48228
1.45214
1.44085
1.43517
1.43824
1.44063
1.42473
1.40828
1.38397
1.34645
1.30209
1.26996
1.2495
1.23263
1.21645
1.20062
1.18487
1.16822
1.14694
1.12268
1.10782
1.10793
1.12309
1.16088
1.22244
1.29446
1.45061
6.13097
5.80438
5.51817
5.22609
4.93335
4.66889
4.41618
4.15948
3.90795
3.71035
3.51345
3.31364
3.10101
2.95266
2.81032
2.666
2.50903
2.37808
2.28767
2.1757
2.07854
1.96829
1.86597
1.90168
2.27626
3.23416
4.19419
4.26447
4.08042
3.82341
3.61687
3.48165
3.39627
3.30858
3.21266
3.10931
2.99573
2.86814
2.7348
2.61711
2.52143
2.43845
2.36189
2.29007
2.22191
2.15579
2.08832
2.01467
1.9332
1.85813
1.79974
1.74976
1.70123
1.65238
1.60293
1.55319
1.50468
1.45578
1.40964
1.37482
1.34804
1.3163
1.29845
1.29325
1.29771
1.30587
1.31083
1.31542
1.32192
1.32949
1.32448
1.32369
1.3332
1.3521
1.36356
1.36602
1.35832
1.3344
1.29964
1.27689
1.25884
1.24202
1.22758
1.21238
1.19433
1.17574
1.15512
1.12768
1.09772
1.06928
1.05326
1.04707
1.04576
1.04921
1.04655
1.08246
6.2049
5.91921
5.61099
5.3162
5.03442
4.77691
4.52896
4.27275
4.03789
3.83561
3.63401
3.43169
3.2323
3.08508
2.92999
2.78277
2.62422
2.51322
2.40292
2.28726
2.1748
2.06003
2.13405
2.73052
3.77476
4.63342
4.66881
4.46723
4.18468
3.95285
3.77564
3.63781
3.51906
3.4051
3.29167
3.17995
3.06958
2.95846
2.84101
2.71905
2.60717
2.51158
2.42583
2.34506
2.26996
2.20227
2.13755
2.06801
1.98772
1.90027
1.8294
1.78299
1.74568
1.70846
1.66621
1.61619
1.55619
1.49514
1.44534
1.40041
1.35358
1.30784
1.27834
1.25827
1.23895
1.23104
1.22968
1.22319
1.20474
1.18607
1.18133
1.17012
1.17239
1.19069
1.22237
1.26385
1.28268
1.27801
1.24986
1.2229
1.204
1.18361
1.17021
1.16522
1.16451
1.15914
1.14376
1.11952
1.08752
1.05652
1.03532
1.01798
1.00472
0.997584
0.99236
0.978225
6.09797
6.03605
5.7321
5.41242
5.14523
4.88902
4.63478
4.37795
4.16601
3.95776
3.7557
3.5351
3.3636
3.21385
3.0512
2.89554
2.73704
2.6341
2.50096
2.3927
2.28492
2.41511
3.29796
4.47288
5.04371
5.00318
4.76041
4.50458
4.29346
4.11409
3.93085
3.76561
3.6222
3.49224
3.3663
3.24804
3.14044
3.04032
2.93369
2.80878
2.67914
2.57053
2.4836
2.40547
2.3286
2.25322
2.18186
2.1129
2.04352
1.9695
1.89139
1.82529
1.7787
1.74074
1.70304
1.65949
1.60494
1.54413
1.48667
1.43824
1.39402
1.34936
1.30556
1.26352
1.22756
1.20247
1.19048
1.17652
1.16197
1.15624
1.1353
1.09231
1.06838
1.06335
1.06463
1.07899
1.09985
1.12722
1.13836
1.14101
1.14019
1.12892
1.11146
1.10471
1.102
1.09897
1.09585
1.08617
1.07369
1.05547
1.02967
1.00698
0.988924
0.972007
0.959738
0.935576
5.06264
5.97132
5.84238
5.52801
5.24815
4.99892
4.73504
4.49407
4.28353
4.0838
3.86764
3.64077
3.48774
3.33653
3.18117
2.99313
2.8569
2.72809
2.61222
2.53667
2.80781
3.92213
5.32892
5.49757
5.39035
5.15999
4.88274
4.65346
4.47886
4.28799
4.06953
3.86942
3.71134
3.5773
3.45248
3.3359
3.22895
3.12473
3.00949
2.87517
2.73683
2.62219
2.53387
2.45837
2.38513
2.30885
2.22876
2.1469
2.07061
2.00396
1.93971
1.87578
1.81845
1.77063
1.72859
1.6858
1.63914
1.58692
1.52171
1.45212
1.40503
1.37034
1.33575
1.30303
1.26736
1.22139
1.18566
1.16212
1.1397
1.12598
1.11407
1.0896
1.05262
1.02247
1.00525
0.996818
0.992161
0.995765
0.994407
0.996347
1.00903
1.02552
1.02416
1.01501
1.01311
1.01267
1.01405
1.0158
1.01976
1.01955
1.01167
1.00117
0.983939
0.961824
0.941079
0.908067
2.65736
5.27635
5.83654
5.66106
5.36438
5.09454
4.85063
4.61617
4.38612
4.18688
3.985
3.7772
3.59948
3.43937
3.28175
3.11505
2.9589
2.81326
2.82264
3.32863
4.7512
6.06425
6.09271
5.76587
5.46566
5.23052
5.03162
4.85147
4.66342
4.4352
4.18959
3.97399
3.80886
3.67192
3.54614
3.42765
3.31358
3.19615
3.06548
2.92319
2.79372
2.69109
2.60332
2.52106
2.44074
2.35854
2.27228
2.18272
2.09758
2.02539
1.96448
1.90796
1.85217
1.7982
1.74939
1.70499
1.66453
1.62736
1.58278
1.52166
1.45041
1.39161
1.35274
1.32382
1.29664
1.25936
1.21153
1.17255
1.14346
1.12101
1.10339
1.08471
1.05107
1.01363
0.992768
0.979468
0.968042
0.953637
0.937081
0.921393
0.912967
0.910178
0.908244
0.905395
0.899658
0.897888
0.905876
0.926827
0.936904
0.940966
0.950454
0.956519
0.95314
0.937008
0.916304
0.886921
1.20827
3.10866
5.34926
5.69409
5.51052
5.20914
4.94708
4.72064
4.51571
4.30391
4.08664
3.886
3.72788
3.56111
3.38217
3.22062
3.05765
3.16436
4.00519
5.67855
6.82586
6.78643
6.40307
5.97499
5.59864
5.34727
5.15533
4.96452
4.75421
4.53063
4.30707
4.10291
3.92785
3.7757
3.63784
3.50885
3.38208
3.24912
3.1063
2.96566
2.85014
2.75732
2.67065
2.5837
2.49596
2.40513
2.312
2.22236
2.14194
2.06855
1.999
1.93512
1.87856
1.82633
1.7732
1.71704
1.66441
1.62284
1.58893
1.55467
1.50418
1.45116
1.39783
1.3401
1.29519
1.26312
1.23629
1.20718
1.17651
1.14611
1.11426
1.07741
1.04082
1.01466
0.994941
0.978823
0.963211
0.945842
0.92633
0.902911
0.878551
0.864018
0.856204
0.848513
0.836107
0.818557
0.812241
0.817903
0.833626
0.842009
0.856014
0.875224
0.879081
0.873764
0.862624
0.851946
1.00559
1.34932
3.46509
5.3237
5.55256
5.35795
5.07702
4.83289
4.61621
4.40328
4.20317
4.01773
3.84105
3.65167
3.48749
3.3429
3.58451
4.91559
6.68304
7.42629
7.21728
6.82079
6.43358
6.08925
5.77287
5.4996
5.26234
5.03443
4.8126
4.60161
4.40118
4.21151
4.03305
3.86788
3.71528
3.57067
3.42878
3.28671
3.1481
3.0223
2.91482
2.81804
2.72221
2.62642
2.53309
2.43906
2.34534
2.25939
2.18318
2.10981
2.03452
1.96088
1.89794
1.8477
1.80264
1.75607
1.70494
1.64893
1.58929
1.53814
1.5154
1.49281
1.44939
1.38609
1.32786
1.27909
1.23979
1.21811
1.20104
1.18193
1.15447
1.10962
1.05191
1.00605
0.991044
0.982435
0.970194
0.951563
0.927783
0.901198
0.874255
0.852182
0.839188
0.827824
0.816299
0.797673
0.770483
0.761556
0.762031
0.763586
0.766018
0.776053
0.786222
0.788417
0.780843
0.779484
1.00004
1.01297
1.50372
3.71817
5.24561
5.41658
5.22504
4.95352
4.72217
4.52545
4.30289
4.12301
3.93555
3.76611
3.65931
4.16082
5.98986
7.73902
8.2678
8.03412
7.47254
6.92604
6.52614
6.1902
5.89388
5.62726
5.38038
5.14272
4.91337
4.69622
4.49157
4.29871
4.11594
3.94254
3.77748
3.61828
3.46562
3.32339
3.19616
3.08385
2.97905
2.87245
2.75959
2.64634
2.5452
2.45808
2.37905
2.3043
2.22992
2.15103
2.06631
1.98029
1.90297
1.84862
1.81396
1.78017
1.73657
1.68598
1.63329
1.56907
1.50953
1.46634
1.43093
1.39559
1.36304
1.32771
1.29025
1.26504
1.24249
1.21085
1.16956
1.12543
1.07664
1.03544
1.00669
0.982814
0.963481
0.949556
0.934692
0.912124
0.881018
0.852744
0.837025
0.824764
0.807557
0.785351
0.760221
0.74524
0.740007
0.738169
0.733253
0.72491
0.71966
0.709873
0.698861
0.698034
1
1.00011
1.02437
1.65494
3.86416
5.15878
5.2924
5.11016
4.84639
4.60963
4.42448
4.22779
4.02497
4.01817
4.93148
7.31695
8.7844
8.68906
8.40472
8.01297
7.57105
7.11002
6.69605
6.32526
6.00672
5.73139
5.48104
5.24224
5.01124
4.78887
4.57557
4.37271
4.18033
3.99705
3.82191
3.65374
3.49652
3.35801
3.23751
3.12944
3.02639
2.919
2.80178
2.67893
2.56326
2.46652
2.39106
2.32884
2.26631
2.18973
2.09851
2.01441
1.93846
1.86502
1.80445
1.76531
1.73955
1.71637
1.67427
1.60343
1.53442
1.48677
1.44499
1.40221
1.36294
1.32458
1.28144
1.24221
1.21854
1.19533
1.16475
1.13224
1.10355
1.07092
1.03331
0.998158
0.967889
0.946459
0.931038
0.912583
0.890843
0.872079
0.854363
0.830364
0.793759
0.76363
0.748838
0.739888
0.734087
0.730845
0.724783
0.714744
0.704416
0.691087
0.679802
0.658831
1
1
1.00026
1.03919
1.77849
3.93582
5.06645
5.16347
5.00792
4.76241
4.51245
4.28296
4.37768
5.92367
8.55786
9.96156
9.83291
9.13733
8.45324
7.95987
7.60103
7.23802
6.84462
6.46091
6.12441
5.83145
5.56567
5.31567
5.07654
4.84965
4.63596
4.43409
4.24174
4.0562
3.87642
3.7036
3.54307
3.39976
3.27074
3.15184
3.04156
2.93621
2.82929
2.71927
2.61188
2.51334
2.42453
2.34247
2.26542
2.19444
2.12131
2.04193
1.96994
1.90275
1.84168
1.79173
1.74318
1.68715
1.6412
1.61704
1.58441
1.54325
1.49948
1.45098
1.39859
1.34893
1.29705
1.24404
1.21494
1.20366
1.19696
1.18399
1.15761
1.11593
1.06716
1.02211
0.980615
0.953874
0.942442
0.935987
0.928452
0.913082
0.888822
0.850243
0.796176
0.760153
0.748462
0.740957
0.735442
0.730305
0.721703
0.710516
0.699393
0.687824
0.672675
0.644676
1
1
1
1.00052
1.05467
1.86013
3.97699
4.95873
5.04051
4.90911
4.58078
4.71403
6.81604
10.3078
10.5479
10.2043
9.78359
9.26847
8.6661
8.1084
7.68777
7.32368
6.96184
6.60436
6.2653
5.9491
5.65512
5.38174
5.12791
4.89396
4.67895
4.47825
4.28719
4.10458
3.92966
3.75852
3.59303
3.44135
3.3007
3.16547
3.03746
2.92719
2.83626
2.74687
2.64823
2.54933
2.45655
2.36888
2.28364
2.19636
2.10078
2.01747
1.9758
1.94514
1.90679
1.84952
1.77716
1.70613
1.64921
1.60084
1.55883
1.52056
1.47921
1.42763
1.37034
1.31995
1.28122
1.25319
1.23625
1.22245
1.19985
1.16913
1.13022
1.08359
1.03808
1.00097
0.981196
0.969159
0.957154
0.941896
0.923126
0.901764
0.87303
0.833352
0.794411
0.773391
0.76142
0.751241
0.743211
0.735353
0.725178
0.710998
0.693808
0.675798
0.660453
0.63361
1
1
1
1
1.00084
1.06708
1.9267
3.91783
4.89301
4.8507
5.1115
7.67109
11.452
12.2209
11.5369
10.4475
9.74533
9.28316
8.79228
8.27048
7.79957
7.39644
7.03199
6.68598
6.34976
6.02449
5.71632
5.43057
5.16922
4.92955
4.70792
4.50187
4.30923
4.12893
3.96262
3.80541
3.64176
3.48044
3.33188
3.18983
3.05824
2.94345
2.84523
2.75653
2.66646
2.57691
2.48456
2.38788
2.2908
2.19314
2.10452
2.05066
2.01004
1.96019
1.9005
1.83532
1.76808
1.70333
1.64707
1.602
1.56407
1.52753
1.48572
1.43244
1.37435
1.32872
1.29491
1.26834
1.24808
1.22812
1.20319
1.17189
1.13053
1.0815
1.03448
1.00572
0.994194
0.981981
0.966242
0.947521
0.927625
0.905659
0.876799
0.83742
0.799775
0.77835
0.765281
0.755394
0.747123
0.73797
0.726096
0.710414
0.692406
0.674743
0.660104
0.632033
1
1
1
1
1
1.00116
1.07762
1.93857
3.8766
4.61672
8.90246
12.5518
12.5813
11.9017
11.503
10.6474
9.90217
9.33251
8.83596
8.35885
7.9025
7.48186
7.09438
6.72872
6.3824
6.05864
5.75841
5.47952
5.21917
4.97348
4.74261
4.53018
4.33874
4.16356
3.99578
3.84107
3.71452
3.58797
3.43995
3.28977
3.1496
3.02518
2.91486
2.81536
2.73736
2.65622
2.56041
2.45185
2.34209
2.24928
2.18511
2.13391
2.07831
2.0151
1.94588
1.87183
1.79857
1.73646
1.68916
1.65033
1.61319
1.57453
1.53078
1.47798
1.42162
1.37392
1.33598
1.30532
1.28
1.25655
1.23081
1.19691
1.15121
1.09967
1.05967
1.03937
1.02501
1.00945
0.991666
0.972059
0.951385
0.927909
0.896337
0.855035
0.819187
0.798852
0.785929
0.775501
0.765049
0.753211
0.739921
0.724894
0.709065
0.6935
0.678429
0.645099
1
1
1
1
1
1
1.00141
1.0903
2.04945
5.56938
15.7731
17.331
14.2245
12.2918
11.546
10.7536
9.98871
9.34166
8.81901
8.36835
7.94415
7.53033
7.12813
6.7431
6.38389
6.05744
5.76451
5.49919
5.24973
5.00461
4.76333
4.53503
4.3292
4.15114
3.99834
3.85658
3.70453
3.53389
3.36452
3.20624
3.0662
2.94632
2.84658
2.76345
2.6838
2.60083
2.50292
2.38589
2.26898
2.18253
2.12468
2.07384
2.02052
1.96207
1.89496
1.81765
1.74074
1.68139
1.63979
1.60449
1.568
1.52753
1.48233
1.43209
1.38168
1.33878
1.30294
1.27098
1.24229
1.2161
1.18984
1.15767
1.11535
1.06804
1.03067
1.0085
0.993519
0.980245
0.965592
0.946921
0.924459
0.899808
0.868756
0.829662
0.796565
0.776411
0.763341
0.753334
0.743421
0.732648
0.720956
0.706541
0.69013
0.674403
0.659713
0.626523
)
;

boundaryField
{
    inlet
    {
        type            fixedValue;
        value           uniform 1;
    }
    outlet
    {
        type            zeroGradient;
    }
    bottom
    {
        type            symmetryPlane;
    }
    top
    {
        type            symmetryPlane;
    }
    obstacle
    {
        type            zeroGradient;
    }
    defaultFaces
    {
        type            empty;
    }
}


// ************************************************************************* //
