/*--------------------------------*- C++ -*----------------------------------*\
  =========                 |
  \\      /  F ield         | OpenFOAM: The Open Source CFD Toolbox
   \\    /   O peration     | Website:  https://openfoam.org
    \\  /    A nd           | Version:  7
     \\/     M anipulation  |
\*---------------------------------------------------------------------------*/
FoamFile
{
    version     2.0;
    format      ascii;
    class       volScalarField;
    location    "1.7";
    object      T;
}
// * * * * * * * * * * * * * * * * * * * * * * * * * * * * * * * * * * * * * //

dimensions      [0 0 0 1 0 0 0];

internalField   nonuniform List<scalar> 
4032
(
1
1
1
1
1
1
1
1
1
1
1
1
1.91739
2.69094
2.74222
2.76635
2.79202
2.80968
2.81591
2.81555
2.81903
2.8347
2.85858
2.87391
1
1
1
1
1
1
1
1
1
1
1
1
1.89435
2.68301
2.74017
2.76479
2.7903
2.80744
2.81318
2.8125
2.8158
2.83121
2.85453
2.86969
1
1
1
1
1
1
1
1
1
1
1
1
1.83233
2.66666
2.73276
2.75943
2.78583
2.80296
2.8085
2.80765
2.81108
2.82646
2.8489
2.86376
1
1
1
1
1
1
1
1
1
1
1
1
1.72837
2.63179
2.71811
2.74835
2.77739
2.79604
2.80224
2.80129
2.80472
2.81946
2.84007
2.85382
1
1
1
1
1
1
1
1
1
1
1
1
1.59001
2.57991
2.701
2.73413
2.76561
2.78587
2.79318
2.79185
2.79416
2.80719
2.82561
2.83991
1
1
1
1
1
1
1
1
1
1
1
1
1.38009
2.49108
2.68388
2.71525
2.74762
2.77063
2.78137
2.78111
2.78312
2.79401
2.80844
2.8147
1
1
1
1
1
1
1
1
1
1
1
1
1.12152
2.3782
2.68001
2.69794
2.72406
2.74742
2.76134
2.76277
2.76236
2.76477
2.77382
2.78025
1
1
1
1
1
1
1
1
1
1
1
1
1.00426
2.25507
2.65473
2.67144
2.69374
2.71646
2.7318
2.73549
2.73356
2.73298
2.74394
2.77307
1
1
1
1
1
1
1
1
1
1
1
1
1.00001
2.06238
2.6316
2.6599
2.67748
2.69396
2.70406
2.70608
2.69922
2.68401
2.64328
2.55644
1
1
1
1
1
1
1
1
1
1
1
1
1
1.76996
2.55528
2.63716
2.65976
2.67219
2.67734
2.67431
2.66018
2.62628
2.5703
2.41895
1
1
1
1
1
1
1
1
1
1
1
1
1
1.35223
2.41168
2.60975
2.63094
2.64494
2.64677
2.63978
2.62042
2.57653
2.51
2.33368
1
1
1
1
1
1
1
1
1
1
1
1
1
1.03297
2.24562
2.57078
2.59244
2.60791
2.60975
2.60225
2.58115
2.53767
2.45972
2.30119
1
1
1
1
1
1
1
1
1
1
1
1
1
1.00018
1.96555
2.51614
2.56844
2.5711
2.57178
2.56454
2.54369
2.50282
2.42389
2.29901
1
1
1
1
1
1
1
1
1
1
1
1
1
0.999999
1.47946
2.39085
2.54081
2.53425
2.53328
2.52607
2.50648
2.46819
2.39707
2.30204
1
1
1
1
1
1
1
1
1
1
1
1
1
1
1.05694
2.20361
2.50056
2.49441
2.49519
2.48743
2.47059
2.43441
2.3756
2.30022
1
1
1
1
1
1
1
1
1
1
1
1
1
1
1.00059
1.81639
2.40769
2.47153
2.46813
2.45661
2.4365
2.40333
2.35536
2.29556
1
1
1
1
1
1
1
1
1
1
1
1
1
1
0.999998
1.19332
2.2317
2.45274
2.44159
2.42782
2.40499
2.37337
2.33238
2.28373
1
1
1
1
1
1
1
1
1
1
1
1
1
1
1
1.00836
1.95193
2.37948
2.40775
2.39558
2.37634
2.34693
2.31056
2.26842
1
1
1
1
1
1
1
1
1
1
1
1
1
1
1
1.00001
1.31038
2.20376
2.38677
2.36547
2.34776
2.32204
2.29027
2.25268
1
1
1
1
1
1
1
1
1
1
1
1
1
1
1
0.999999
1.02213
1.94824
2.3342
2.32839
2.31364
2.29318
2.26735
2.23556
1
1
1
1
1
1
1
1
1
1
1
1
1
1
1
1
1.0001
1.33367
2.15001
2.31039
2.28729
2.26899
2.24719
2.22025
1
1
1
1
1
1
1
1
1
1
1
1
1
1
1
1
1
1.02524
1.83033
2.25817
2.25553
2.2394
2.22179
2.19992
1
1
1
1
1
1
1
1
1
1
1
1
1
1
1
1
1
1.00018
1.24629
2.05152
2.23936
2.2138
2.19826
2.17927
1
1
1
1
1
1
1
1
1
1
1
1
1
1
1
1
1
1
1.01297
1.59576
2.11379
2.19765
2.17543
2.15585
1
1
1
1
1
1
1
1
1
1
1
1
1
1
1
1
1
1
1.00009
1.10916
1.85267
2.1681
2.15688
2.13777
1
1
1
1
1
1
1
1
1
1
1
1
1
1
1
1
1
1
1
1.00272
1.32568
1.98045
2.13513
2.11673
1
1
1
1
1
1
1
1
1
1
1
1
1
1
1
1
1
1
1
1.00001
1.02585
1.55937
2.02008
2.10236
1
1
1
1
1
1
1
1
1
1
1
1
1
1
1
1
1
1
1
1
1.0003
1.10052
1.73482
2.03287
1
1
1
1
1
1
1
1
1
1
1
1
1
1
1
1
1
1
1
1
1
1.00263
1.23343
1.81541
1
1
1
1
1
1
1
1
1
1
1
1
1
1
1
1
1
1
1
1
1
1.00001
1.01318
1.36115
1
1
1
1
1
1
1
1
1
1
1
1
1
1
1
1
1
1
1
1
1
1
1.00013
1.03714
1
1
1
1
1
1
1
1
1
1
1
1
1
1
1
1
1
1
1
1
1
1
1
1.00059
1
1
1
1
1
1
1
1
1
1
1
1
1
1
1
1
1
1
1
1
1
1
1
1
1
1
1
1
1
1
1
1
1
1
1
1
1
1
1
1
1
1
1
1
1
1
1
1
1
1
1
1
1
1
1
1
1
1
1
1
1
1
1
1
1
1
1
1
1
1
1
1
1
1
1
1
1
1
1
1
1
1
1
1
1
1
1
1
1
1
1
1
1
1
1
1
1
1
1
1
1
1
1
1
1
1
1
1
1
1
1
1
1
1
1
1
1
1
1
1
1
1
1
1
1
1
1
1
1
1
1
1
1
1
1
1
1
1
1
1
1
1
1
1
1
1
1
1
1
1
1
1
1
1
1
1
1
1
1
1
1
1
1
1
1
1
1
1
1
1
1
1
1
1
1
1
1
1
1
1
1
1
1
1
1
1
1
1
1
1
1
1
1.73526
1.2201
0.93026
0.997386
1.21703
1.31687
1.39746
1.47804
1.54619
1.58039
1.62854
1.72312
1.7938
1.79698
1.77897
1.75795
1.76069
1.78022
1.79685
1.7895
1.77136
1.75043
1.74319
1.74416
1.74591
1.74658
1.74471
1.73888
1.7317
1.72616
1.72428
1.72486
1.72688
1.72734
1.72692
1.72559
1.72194
1.71533
1.70867
1.70545
1.70498
1.70426
1.70139
1.69724
1.69315
1.71348
1.8261
2.02798
2.27194
2.45497
2.56142
2.62822
2.63821
2.61234
2.5786
2.53717
2.50956
2.48827
2.47395
2.46027
2.44581
2.42984
2.41537
2.39586
2.37275
2.35302
2.3338
2.31445
2.29737
2.28358
2.27103
2.25851
2.24581
2.2325
2.21699
2.19674
2.17308
2.15848
2.15463
2.15348
2.15344
2.15475
2.15453
2.15021
2.14246
2.12753
2.1027
2.0866
2.08067
2.07681
2.07307
2.06957
2.06448
2.05592
2.04496
2.01908
1.96308
1.71982
1.46973
1.32565
1.35176
1.34959
1.3381
1.30992
1.30087
1.32781
1.3857
1.46328
1.52969
1.56848
1.59063
1.60831
1.62559
1.65829
1.69491
1.70457
1.70697
1.70308
1.69775
1.69706
1.70079
1.70543
1.7049
1.70205
1.69806
1.69458
1.69343
1.69465
1.69622
1.69694
1.69639
1.69527
1.69279
1.68844
1.68426
1.68224
1.68034
1.67754
1.6726
1.68058
1.71703
1.82679
1.97346
2.03669
2.07953
2.17085
2.27363
2.35023
2.41367
2.44856
2.47266
2.4694
2.46337
2.452
2.44013
2.42773
2.41319
2.39866
2.38558
2.36884
2.34823
2.32693
2.306
2.28794
2.2713
2.25757
2.24746
2.23811
2.228
2.21739
2.20529
2.18999
2.1704
2.15052
2.13955
2.13613
2.13493
2.13476
2.13414
2.13118
2.1251
2.11448
2.09867
2.0819
2.07006
2.06363
2.05943
2.05477
2.04953
2.04233
2.03303
2.01188
2.04633
1.86331
1.70967
1.56528
1.48799
1.43233
1.35444
1.30424
1.26687
1.26068
1.28372
1.32525
1.35583
1.37718
1.40403
1.44329
1.47101
1.49899
1.54258
1.58325
1.61225
1.6243
1.62594
1.62623
1.63026
1.63163
1.62866
1.62357
1.6227
1.62279
1.6236
1.62556
1.62808
1.63119
1.63226
1.63192
1.63089
1.62918
1.6283
1.6277
1.62512
1.6244
1.63649
1.7002
1.83121
1.95144
1.98792
1.98728
1.97994
1.97164
1.99397
2.06017
2.15828
2.24353
2.31046
2.35029
2.37949
2.37669
2.36974
2.35767
2.34114
2.32397
2.30895
2.29442
2.27969
2.2634
2.24793
2.23456
2.21919
2.20439
2.19448
2.18585
2.17743
2.16964
2.16212
2.15367
2.14243
2.12665
2.10848
2.09608
2.09126
2.08887
2.08617
2.08132
2.07341
2.06592
2.05933
2.05187
2.04288
2.03312
2.02558
2.01945
2.01272
2.00348
1.99319
1.97682
2.10994
1.95315
1.82376
1.71621
1.62396
1.54976
1.47613
1.4076
1.37977
1.3461
1.31884
1.30598
1.29508
1.29633
1.30121
1.3172
1.34827
1.37973
1.41759
1.46111
1.49198
1.51478
1.53246
1.54134
1.5528
1.56279
1.56501
1.56369
1.5639
1.56388
1.56179
1.55981
1.5602
1.56141
1.56194
1.56117
1.56043
1.56002
1.55978
1.56101
1.56625
1.58458
1.66635
1.82634
1.9225
1.96774
1.9636
1.95192
1.93267
1.91651
1.90798
1.90441
1.92885
1.99152
2.08802
2.17531
2.23413
2.25684
2.26646
2.26467
2.26206
2.25474
2.24559
2.23263
2.2179
2.20321
2.19067
2.17964
2.16449
2.1454
2.12884
2.11958
2.11335
2.10873
2.10444
2.09926
2.0924
2.08245
2.06837
2.05045
2.03618
2.02943
2.02417
2.01751
2.01062
2.00519
2.00043
1.99582
1.99022
1.98201
1.9715
1.96257
1.95482
1.94547
1.93661
1.9245
2.15704
2.02988
1.90931
1.81288
1.72545
1.64673
1.58555
1.51906
1.46599
1.43652
1.39755
1.35818
1.32368
1.30438
1.29384
1.29672
1.30559
1.31783
1.3354
1.36561
1.39712
1.4274
1.4601
1.479
1.48988
1.50057
1.50959
1.51179
1.51795
1.52568
1.52603
1.52477
1.52466
1.52491
1.52364
1.51958
1.5145
1.51218
1.51395
1.52358
1.56133
1.66165
1.81291
1.93178
1.94846
1.94479
1.9311
1.9188
1.90881
1.90176
1.89492
1.88741
1.87704
1.87289
1.89246
1.9495
2.03206
2.10447
2.1532
2.17405
2.18042
2.17902
2.17628
2.17654
2.17505
2.16736
2.15696
2.14287
2.12604
2.10719
2.08295
2.06358
2.05601
2.05155
2.05058
2.05002
2.0465
2.03986
2.0317
2.01876
1.99654
1.97441
1.96252
1.95592
1.95138
1.94809
1.94461
1.93968
1.93434
1.92745
1.91568
1.90041
1.88908
1.88237
1.87971
1.87341
2.19501
2.08772
1.98651
1.89468
1.80714
1.72474
1.66613
1.61365
1.55147
1.51232
1.47754
1.43677
1.40442
1.3776
1.35347
1.32957
1.32203
1.32316
1.3166
1.31455
1.31968
1.33499
1.3615
1.3981
1.42425
1.4476
1.47042
1.47788
1.48501
1.49458
1.4964
1.49504
1.49505
1.4975
1.49988
1.49873
1.49499
1.49578
1.50521
1.57552
1.71108
1.83281
1.92798
1.94761
1.93733
1.92949
1.92374
1.91915
1.91151
1.90379
1.89324
1.87567
1.86139
1.85295
1.84555
1.83768
1.84924
1.89217
1.958
2.02871
2.07411
2.10216
2.10784
2.11697
2.12448
2.12961
2.12777
2.12169
2.11003
2.09224
2.06761
2.0425
2.02587
2.01666
2.01009
2.00944
2.01201
2.00672
1.99852
1.9884
1.97125
1.94518
1.92418
1.91476
1.90865
1.90357
1.90084
1.89631
1.8901
1.88285
1.87135
1.85376
1.83863
1.83521
1.83457
1.83017
2.21647
2.12451
2.03773
1.95632
1.87704
1.79999
1.73381
1.6797
1.62816
1.58129
1.54457
1.50361
1.46459
1.43385
1.40677
1.38189
1.36095
1.34907
1.33361
1.31477
1.31239
1.3134
1.31474
1.32146
1.34063
1.36961
1.40539
1.43637
1.45231
1.46875
1.47527
1.47392
1.47612
1.47902
1.48263
1.48154
1.4831
1.49994
1.58917
1.7789
1.88395
1.93468
1.94915
1.94473
1.9334
1.92782
1.92372
1.92119
1.911
1.89825
1.8819
1.86213
1.84871
1.8374
1.82597
1.81423
1.80399
1.79465
1.79584
1.82078
1.86986
1.93351
1.98804
2.03287
2.05765
2.0738
2.08586
2.08665
2.08445
2.07682
2.06181
2.04231
2.02007
1.99982
1.98772
1.97988
1.97268
1.96756
1.96283
1.9556
1.94468
1.92873
1.90924
1.892
1.88059
1.87282
1.86591
1.86012
1.85433
1.84727
1.83763
1.8255
1.81234
1.80247
1.80035
1.79598
2.22527
2.14929
2.07664
2.00114
1.92488
1.86058
1.79885
1.74063
1.68791
1.64437
1.60097
1.56194
1.52812
1.49784
1.46609
1.43449
1.41148
1.39575
1.37916
1.35564
1.3392
1.32975
1.31468
1.31026
1.31164
1.31904
1.33371
1.3608
1.38918
1.41491
1.43637
1.44841
1.45495
1.45836
1.464
1.47014
1.50607
1.61652
1.80894
1.92985
1.95614
1.95533
1.94585
1.92894
1.92036
1.91895
1.9173
1.91379
1.90153
1.8851
1.86544
1.84507
1.83137
1.81997
1.80693
1.79211
1.77762
1.76474
1.75575
1.74879
1.74061
1.75271
1.78616
1.84154
1.91083
1.96644
2.00761
2.02672
2.03966
2.03949
2.03506
2.02858
2.01512
1.9951
1.97494
1.95727
1.94635
1.93821
1.92961
1.92063
1.91294
1.90526
1.89547
1.88107
1.86314
1.84733
1.83635
1.82784
1.82179
1.81789
1.81253
1.80441
1.79504
1.78512
1.77819
1.77013
2.22328
2.16106
2.09843
2.02934
1.96346
1.906
1.84733
1.78846
1.74116
1.69927
1.65423
1.60873
1.57628
1.54861
1.51799
1.4891
1.46278
1.44012
1.41473
1.38898
1.36855
1.35246
1.33443
1.31533
1.31303
1.31507
1.31874
1.32199
1.32983
1.34348
1.36264
1.38536
1.4033
1.41868
1.43905
1.49733
1.67059
1.82445
1.94654
1.97401
1.97098
1.96125
1.94657
1.92421
1.90965
1.90442
1.90036
1.89421
1.8826
1.86633
1.84922
1.83163
1.81203
1.79484
1.77903
1.76389
1.7507
1.73864
1.72852
1.7215
1.71455
1.70656
1.69279
1.68905
1.70858
1.75575
1.82119
1.88266
1.93191
1.96804
1.97855
1.98052
1.97638
1.96809
1.95743
1.94262
1.92573
1.9108
1.90057
1.89193
1.88431
1.87756
1.86948
1.85907
1.84655
1.83055
1.81408
1.80233
1.79324
1.78499
1.78039
1.77721
1.77293
1.76761
1.76242
1.752
2.2176
2.16549
2.11063
2.04967
1.99428
1.94017
1.88536
1.83056
1.7879
1.74233
1.69866
1.65538
1.62469
1.59281
1.55984
1.52828
1.50534
1.48291
1.45875
1.43277
1.41065
1.39138
1.37238
1.34893
1.34085
1.33646
1.32759
1.31933
1.31906
1.31841
1.31657
1.31974
1.33322
1.35665
1.42869
1.6483
1.81621
1.90846
1.94991
1.95692
1.95313
1.94417
1.92916
1.91235
1.89665
1.88544
1.87584
1.86649
1.85388
1.84107
1.82722
1.81133
1.79218
1.77016
1.74945
1.73376
1.72218
1.71279
1.70511
1.69697
1.6891
1.68187
1.67341
1.66101
1.63759
1.62899
1.64069
1.67369
1.72594
1.78831
1.84315
1.88712
1.90109
1.90862
1.90505
1.89995
1.89265
1.88398
1.87377
1.86461
1.85778
1.85073
1.84188
1.832
1.82148
1.80919
1.79443
1.77993
1.7679
1.7581
1.75132
1.74687
1.74423
1.74284
1.74098
1.73341
2.20907
2.16415
2.11509
2.06264
2.01511
1.96626
1.91234
1.86477
1.82437
1.78114
1.7363
1.6945
1.66421
1.63021
1.59866
1.56686
1.54135
1.51547
1.49081
1.46738
1.44827
1.42915
1.40981
1.38773
1.37329
1.36131
1.34631
1.32661
1.31951
1.31554
1.31032
1.31079
1.3191
1.40007
1.60518
1.77455
1.82311
1.86107
1.87474
1.88548
1.88713
1.88948
1.88819
1.88529
1.87345
1.85716
1.84264
1.83048
1.8199
1.81073
1.80132
1.78635
1.76799
1.7482
1.72719
1.70856
1.69496
1.685
1.67626
1.66849
1.66172
1.65463
1.64823
1.63947
1.62378
1.60345
1.59156
1.58502
1.58727
1.60176
1.63759
1.68926
1.74289
1.78526
1.8124
1.82305
1.83375
1.83302
1.83021
1.82679
1.8217
1.8171
1.81443
1.80705
1.79785
1.78596
1.77219
1.75793
1.74498
1.73474
1.72686
1.72071
1.71455
1.70777
1.7062
1.70248
2.19893
2.16039
2.11681
2.07208
2.02999
1.98508
1.93437
1.89373
1.85375
1.8125
1.7657
1.73163
1.69864
1.66359
1.62763
1.59925
1.57664
1.54911
1.52409
1.49806
1.47891
1.45956
1.44121
1.42316
1.41086
1.39752
1.38097
1.35782
1.34399
1.33265
1.32432
1.33321
1.41155
1.61207
1.77778
1.79359
1.78827
1.77711
1.77309
1.78172
1.79714
1.81393
1.8221
1.82589
1.82404
1.81314
1.79711
1.78631
1.7826
1.77876
1.77
1.75736
1.74322
1.7273
1.70952
1.68944
1.67082
1.65875
1.65004
1.64195
1.63543
1.62841
1.62128
1.61431
1.60397
1.5881
1.57291
1.56053
1.55163
1.54459
1.53876
1.54304
1.55976
1.59079
1.63315
1.67362
1.71067
1.73537
1.75566
1.77179
1.77312
1.76675
1.76374
1.7649
1.76536
1.75969
1.74894
1.73567
1.72039
1.70977
1.70338
1.69679
1.68686
1.67509
1.67206
1.66788
2.18881
2.15463
2.11522
2.07585
2.03847
1.99633
1.95101
1.91424
1.87657
1.83531
1.79235
1.76135
1.7262
1.69197
1.65465
1.62997
1.60483
1.57787
1.55214
1.52855
1.51052
1.49062
1.47197
1.45182
1.43987
1.42604
1.40888
1.38888
1.37233
1.35648
1.36428
1.44823
1.65282
1.81689
1.81725
1.79687
1.77273
1.75316
1.74483
1.7397
1.73495
1.73042
1.72536
1.7227
1.72527
1.72571
1.7273
1.72979
1.72864
1.72619
1.7221
1.7196
1.71422
1.70263
1.68845
1.66755
1.64929
1.63972
1.63091
1.62149
1.61173
1.60222
1.59352
1.58368
1.57491
1.56619
1.55621
1.54434
1.53246
1.52124
1.51115
1.50328
1.49662
1.49122
1.49235
1.50373
1.52788
1.56501
1.60456
1.63968
1.67224
1.69859
1.7021
1.70748
1.712
1.71214
1.71094
1.70467
1.69331
1.68552
1.67915
1.67239
1.66347
1.65306
1.64426
1.63509
2.1737
2.14427
2.11024
2.07498
2.04137
2.00319
1.96401
1.9293
1.89379
1.85137
1.81598
1.78536
1.75127
1.71498
1.68033
1.65806
1.63103
1.60528
1.57728
1.55644
1.53783
1.51783
1.49948
1.48123
1.46826
1.45199
1.43417
1.4147
1.39791
1.41516
1.52623
1.71111
1.86197
1.86011
1.83578
1.80094
1.77038
1.75031
1.73842
1.72966
1.71884
1.70625
1.69386
1.68143
1.66665
1.65027
1.64176
1.64217
1.64583
1.64733
1.65139
1.65547
1.65715
1.65678
1.65199
1.64046
1.6276
1.62083
1.61377
1.60325
1.5888
1.57813
1.56956
1.55899
1.54841
1.54152
1.53336
1.52412
1.51552
1.50491
1.48988
1.47804
1.471
1.46424
1.45598
1.44762
1.44152
1.44056
1.4489
1.46687
1.49448
1.53486
1.57329
1.60452
1.62504
1.64291
1.65812
1.65799
1.65357
1.64208
1.63895
1.63814
1.63636
1.63252
1.62526
1.61035
2.15688
2.13159
2.10296
2.07225
2.04079
2.00683
1.97284
1.94067
1.90557
1.8645
1.83343
1.80393
1.77292
1.73458
1.70573
1.68186
1.65419
1.62854
1.60096
1.58383
1.56359
1.54382
1.5224
1.50546
1.49161
1.47342
1.45785
1.44102
1.46074
1.59873
1.78225
1.90323
1.90203
1.87616
1.84358
1.81133
1.78553
1.76492
1.74604
1.72882
1.71208
1.6945
1.67619
1.66028
1.64654
1.63234
1.61309
1.59136
1.57815
1.57019
1.56958
1.56912
1.56926
1.57526
1.58319
1.58811
1.58658
1.58267
1.57759
1.56822
1.56147
1.555
1.54805
1.53725
1.52564
1.51588
1.50689
1.49993
1.49377
1.48486
1.46987
1.45542
1.44781
1.44157
1.43348
1.42431
1.41665
1.40971
1.40027
1.38918
1.38274
1.38798
1.40385
1.43147
1.47
1.50808
1.54246
1.56861
1.59161
1.59114
1.58484
1.58371
1.5863
1.59093
1.59023
1.58539
2.1358
2.11383
2.09057
2.06536
2.03665
2.00506
1.97553
1.9458
1.91205
1.87539
1.84581
1.81744
1.78644
1.75088
1.726
1.70097
1.67549
1.64628
1.62319
1.60701
1.58612
1.56683
1.54373
1.52876
1.51039
1.49387
1.48275
1.51726
1.67765
1.8543
1.93595
1.93343
1.91091
1.88108
1.85235
1.8278
1.80465
1.77898
1.7534
1.73064
1.7108
1.69222
1.67387
1.65682
1.63961
1.62132
1.60189
1.58029
1.55982
1.54612
1.53409
1.52193
1.51207
1.50639
1.50467
1.50677
1.50672
1.50456
1.50738
1.51062
1.51694
1.5181
1.51354
1.50869
1.50212
1.49468
1.48537
1.47556
1.46729
1.45813
1.44582
1.43483
1.428
1.42229
1.41373
1.40505
1.39798
1.39022
1.37907
1.36461
1.35161
1.34332
1.33794
1.33552
1.34055
1.35355
1.37968
1.41272
1.44671
1.47347
1.49713
1.50669
1.51427
1.52208
1.53119
1.54016
2.11859
2.09793
2.07728
2.05523
2.02967
2.00147
1.9746
1.94611
1.91521
1.88379
1.85633
1.8274
1.79644
1.76561
1.74275
1.71779
1.69264
1.6631
1.64406
1.62685
1.60692
1.58619
1.56448
1.54546
1.5281
1.52183
1.57148
1.76963
1.93525
1.97104
1.9631
1.93709
1.90869
1.88479
1.86095
1.83794
1.81349
1.78783
1.76189
1.73722
1.71502
1.69488
1.67657
1.6587
1.64032
1.62143
1.60072
1.57763
1.55243
1.53186
1.51672
1.50342
1.49176
1.4818
1.47147
1.46192
1.45265
1.44128
1.43205
1.43122
1.43397
1.44442
1.45486
1.46278
1.46742
1.46579
1.45283
1.44377
1.43744
1.43099
1.42401
1.41673
1.41002
1.3999
1.39012
1.38312
1.37681
1.3692
1.35906
1.34512
1.3312
1.32182
1.31475
1.30833
1.30291
1.29867
1.29579
1.29782
1.30447
1.31634
1.33638
1.36417
1.39474
1.42071
1.43701
1.46368
2.09633
2.07758
2.05912
2.03921
2.01605
1.99317
1.96959
1.94322
1.91265
1.88644
1.86105
1.83358
1.80251
1.77668
1.75541
1.73069
1.7059
1.67875
1.66246
1.64332
1.62327
1.60154
1.57973
1.55972
1.56246
1.63442
1.83673
2.02452
2.02122
1.9867
1.95261
1.92723
1.90504
1.8857
1.86575
1.84365
1.81914
1.79201
1.76408
1.73879
1.71639
1.69528
1.67513
1.65597
1.63757
1.61977
1.60106
1.57981
1.55572
1.53246
1.51346
1.49739
1.48304
1.46946
1.45548
1.44219
1.4303
1.41875
1.40321
1.39098
1.38164
1.37735
1.38094
1.38583
1.39567
1.40464
1.40491
1.40319
1.40124
1.3958
1.38681
1.38149
1.3766
1.37352
1.37039
1.36246
1.35517
1.34669
1.33583
1.32312
1.31212
1.30377
1.29626
1.28895
1.28201
1.27568
1.26965
1.26269
1.2551
1.24888
1.24594
1.24858
1.25775
1.27498
1.29533
1.34644
2.07898
2.05707
2.04003
2.0219
2.00191
1.98235
1.96138
1.93738
1.9106
1.88816
1.86387
1.83752
1.80739
1.78667
1.76569
1.7431
1.71661
1.69363
1.67783
1.65629
1.63687
1.61377
1.59151
1.60207
1.70173
1.90676
2.07146
2.0639
2.02648
1.98062
1.94609
1.92138
1.90357
1.88544
1.86571
1.84429
1.82045
1.79342
1.7646
1.73755
1.71403
1.69308
1.67384
1.65594
1.63841
1.62041
1.60121
1.58017
1.55711
1.53537
1.5175
1.50124
1.48493
1.46877
1.45267
1.43649
1.42031
1.40386
1.38803
1.37413
1.36149
1.34808
1.34142
1.33944
1.34055
1.3417
1.341
1.33857
1.33818
1.33866
1.33663
1.33579
1.33731
1.33844
1.3368
1.33348
1.32785
1.31785
1.30663
1.29947
1.29326
1.28686
1.28085
1.27457
1.26737
1.25977
1.25174
1.24238
1.23294
1.22345
1.21655
1.21217
1.20918
1.20729
1.20292
1.21797
2.06803
2.04823
2.02688
2.00709
1.98812
1.9703
1.95169
1.92988
1.90763
1.88678
1.86354
1.83897
1.81331
1.79414
1.77197
1.75
1.72473
1.70724
1.68856
1.66743
1.64589
1.6243
1.64511
1.78663
1.97393
2.09966
2.09832
2.06689
2.01951
1.97915
1.94887
1.92438
1.90162
1.87923
1.85704
1.83529
1.81352
1.79078
1.76576
1.73898
1.71311
1.69013
1.66954
1.65037
1.63216
1.61475
1.59701
1.57727
1.55479
1.53108
1.51092
1.49611
1.48333
1.47017
1.45576
1.4397
1.42101
1.40147
1.38431
1.36852
1.35282
1.33744
1.32584
1.31681
1.30909
1.30601
1.30451
1.30045
1.29141
1.28237
1.27942
1.27553
1.27606
1.28021
1.28729
1.29408
1.29444
1.29082
1.27925
1.26927
1.26265
1.25572
1.25043
1.24736
1.24553
1.24195
1.23589
1.22801
1.21765
1.20692
1.19892
1.19196
1.186
1.18148
1.17746
1.17044
2.03245
2.03592
2.01689
1.99459
1.97679
1.95927
1.9409
1.92013
1.90238
1.88273
1.86221
1.83722
1.81724
1.79844
1.77607
1.75411
1.73031
1.71548
1.69354
1.67506
1.65798
1.69191
1.8807
2.06175
2.12287
2.11377
2.07962
2.04358
2.01007
1.97994
1.94975
1.92171
1.89571
1.87115
1.84742
1.82533
1.80496
1.78523
1.76324
1.73674
1.70848
1.68401
1.664
1.64588
1.62773
1.60923
1.59069
1.57195
1.55285
1.53246
1.511
1.49238
1.4782
1.46581
1.45322
1.4388
1.42121
1.40185
1.38311
1.36651
1.35131
1.33565
1.32056
1.30725
1.29585
1.28595
1.27963
1.27313
1.26688
1.26344
1.25487
1.23992
1.23119
1.22709
1.22627
1.22828
1.23122
1.2349
1.23456
1.23359
1.23212
1.22774
1.22191
1.21854
1.21593
1.21342
1.21139
1.20743
1.20282
1.19651
1.18735
1.1789
1.17195
1.16497
1.15938
1.14876
1.86468
2.01023
2.00444
1.98303
1.96448
1.94835
1.92937
1.91117
1.89467
1.87795
1.85791
1.83382
1.81728
1.79943
1.77993
1.75397
1.73524
1.71658
1.69893
1.69147
1.75333
1.9617
2.15709
2.15104
2.13549
2.10539
2.06808
2.03502
2.00793
1.97883
1.94578
1.91409
1.88712
1.86293
1.84002
1.81855
1.79857
1.77851
1.75564
1.72845
1.70005
1.6759
1.65666
1.63969
1.62272
1.6044
1.58444
1.56346
1.54338
1.52528
1.50765
1.49002
1.47388
1.45977
1.44655
1.43249
1.41679
1.39954
1.3794
1.35762
1.34074
1.3276
1.31543
1.30453
1.29332
1.27947
1.26732
1.25794
1.24886
1.243
1.23853
1.2305
1.21776
1.20578
1.19802
1.19252
1.18694
1.18399
1.17907
1.1784
1.18158
1.18673
1.18625
1.18263
1.18123
1.17982
1.17831
1.17669
1.17659
1.17642
1.17348
1.16941
1.16303
1.15476
1.14683
1.13382
1.47233
1.88641
1.98479
1.97368
1.9529
1.93493
1.91879
1.90236
1.8848
1.86966
1.85275
1.83289
1.8146
1.7966
1.77777
1.7563
1.73574
1.71549
1.72187
1.82565
2.05203
2.21194
2.19998
2.15242
2.11514
2.0857
2.05817
2.03169
2.0042
1.97188
1.93706
1.90517
1.8789
1.8557
1.83358
1.81224
1.79122
1.76904
1.7439
1.71621
1.69057
1.6698
1.65176
1.6344
1.61668
1.59759
1.57673
1.55454
1.53299
1.51418
1.49787
1.48252
1.4673
1.4523
1.43802
1.42424
1.4111
1.39819
1.38216
1.36168
1.33983
1.32131
1.30793
1.29764
1.28897
1.27794
1.26338
1.25102
1.24085
1.23219
1.22529
1.21897
1.2088
1.19658
1.18841
1.1811
1.17293
1.16321
1.15329
1.14553
1.14186
1.14081
1.1403
1.13928
1.13665
1.13512
1.13657
1.14185
1.14371
1.14427
1.14679
1.14845
1.14716
1.14114
1.13334
1.12223
1.0766
1.5559
1.88915
1.95909
1.94627
1.92365
1.90548
1.89069
1.87738
1.86232
1.84487
1.82703
1.81215
1.79446
1.77406
1.75473
1.73693
1.75892
1.90588
2.12943
2.25272
2.24575
2.20026
2.14965
2.10454
2.07193
2.04482
2.0178
1.98871
1.95815
1.92747
1.89866
1.87271
1.84886
1.82613
1.80392
1.78125
1.75679
1.72998
1.70306
1.68044
1.6622
1.64528
1.62792
1.60942
1.5891
1.56722
1.54541
1.52532
1.50677
1.48917
1.47289
1.45818
1.44423
1.42973
1.41409
1.39844
1.38422
1.37129
1.3586
1.34144
1.32465
1.30884
1.29208
1.27807
1.26764
1.25969
1.25123
1.24147
1.23127
1.22088
1.20926
1.19759
1.1892
1.18208
1.1748
1.16666
1.15718
1.14631
1.13459
1.12435
1.11915
1.11664
1.11403
1.10937
1.10148
1.09719
1.09887
1.104
1.10622
1.11061
1.11658
1.11736
1.11517
1.11067
1.10657
1.00188
1.12585
1.61146
1.87925
1.93389
1.91904
1.89744
1.88033
1.86635
1.85193
1.83736
1.82237
1.80642
1.78713
1.7694
1.75803
1.80359
2.00604
2.20774
2.26959
2.24751
2.21063
2.17177
2.13338
2.09565
2.0613
2.03032
2.00025
1.97073
1.94237
1.91518
1.88901
1.86366
1.83918
1.8154
1.7917
1.76732
1.74188
1.71613
1.69205
1.67126
1.65293
1.63508
1.61677
1.59772
1.57718
1.55562
1.53503
1.51635
1.49849
1.48039
1.46264
1.4472
1.43436
1.42209
1.40911
1.39447
1.37788
1.3602
1.34386
1.33511
1.3275
1.31475
1.29641
1.27876
1.26386
1.2521
1.24521
1.23973
1.23403
1.22631
1.21336
1.19566
1.18079
1.17474
1.17045
1.16443
1.15505
1.14344
1.13149
1.12021
1.11163
1.10712
1.10337
1.099
1.09103
1.07922
1.07445
1.07402
1.07358
1.07377
1.07679
1.08002
1.08067
1.07734
1.07676
1.00001
1.0045
1.17548
1.64558
1.86216
1.90927
1.89441
1.87306
1.85686
1.8441
1.82723
1.8134
1.79704
1.7796
1.7785
1.86292
2.10027
2.27657
2.31388
2.29209
2.24182
2.19013
2.14957
2.1131
2.07907
2.04726
2.01712
1.98748
1.95811
1.92962
1.90237
1.87634
1.85111
1.82628
1.8015
1.77636
1.751
1.72615
1.70285
1.68157
1.66172
1.64213
1.62174
1.60074
1.5807
1.56213
1.54426
1.52662
1.50902
1.49091
1.4718
1.45245
1.43454
1.42087
1.41134
1.4018
1.38901
1.37399
1.35917
1.34218
1.32634
1.31399
1.3034
1.29309
1.28372
1.27357
1.26269
1.25491
1.24761
1.2378
1.22583
1.21337
1.19903
1.18613
1.17603
1.16684
1.15793
1.15022
1.14244
1.13226
1.11955
1.10896
1.10384
1.09983
1.09376
1.08467
1.07354
1.06654
1.06354
1.06183
1.05853
1.05382
1.05101
1.04681
1.04209
1.04205
1
1.00003
1.0086
1.22011
1.66063
1.84394
1.88657
1.87239
1.85117
1.83281
1.81982
1.80428
1.78595
1.79493
1.93423
2.1982
2.32456
2.31367
2.28749
2.25571
2.21865
2.17625
2.13515
2.09626
2.06131
2.03014
2.00108
1.97254
1.94399
1.91568
1.888
1.86133
1.83554
1.81012
1.78463
1.75888
1.73354
1.71003
1.68871
1.66906
1.65017
1.63074
1.60979
1.58753
1.56566
1.54617
1.52997
1.51612
1.50232
1.48556
1.46574
1.44763
1.43111
1.41427
1.39913
1.38773
1.37952
1.37275
1.36128
1.34258
1.32485
1.31245
1.30157
1.29048
1.28013
1.26955
1.25697
1.24467
1.23724
1.23033
1.22122
1.21209
1.20432
1.1945
1.1818
1.16908
1.15709
1.14693
1.13862
1.12944
1.12009
1.11309
1.10711
1.09906
1.08569
1.07361
1.06725
1.06309
1.0598
1.05726
1.05355
1.04842
1.04358
1.03779
1.03297
1.02419
1
1
1.00008
1.01396
1.25339
1.66418
1.82629
1.86381
1.85181
1.8315
1.80984
1.79282
1.81105
2.01832
2.26891
2.37574
2.36556
2.31337
2.25979
2.22008
2.18921
2.15553
2.11717
2.07842
2.04334
2.01192
1.98255
1.95386
1.92527
1.8972
1.87018
1.84437
1.81947
1.79479
1.76977
1.74448
1.71987
1.69688
1.67538
1.65504
1.63572
1.61694
1.59769
1.5778
1.55812
1.5395
1.52224
1.5062
1.49112
1.47702
1.46201
1.44518
1.42925
1.41321
1.39789
1.38504
1.37302
1.35959
1.34793
1.34152
1.33357
1.32388
1.31349
1.30146
1.28751
1.27315
1.25745
1.24134
1.23303
1.23048
1.22938
1.22673
1.22014
1.20786
1.19181
1.17554
1.15963
1.14749
1.14069
1.13645
1.13254
1.12655
1.11793
1.10431
1.08417
1.07009
1.06529
1.06184
1.05872
1.05549
1.05093
1.04574
1.04097
1.03607
1.02946
1.01727
1
1
1
1.00016
1.01956
1.27323
1.66533
1.80688
1.84158
1.83012
1.8018
1.82622
2.078
2.37858
2.37654
2.35404
2.32714
2.29145
2.24635
2.2027
2.16646
2.13253
2.09769
2.06281
2.02925
1.99723
1.96637
1.93622
1.90673
1.87844
1.85187
1.82693
1.80316
1.78023
1.75751
1.73417
1.7108
1.68825
1.66619
1.64411
1.62248
1.60298
1.58627
1.56997
1.55247
1.53498
1.51828
1.50219
1.4864
1.47044
1.4528
1.4354
1.42493
1.41666
1.40668
1.39278
1.37545
1.35817
1.34486
1.33441
1.32518
1.31628
1.30607
1.29282
1.27738
1.26258
1.25019
1.24154
1.237
1.23376
1.22846
1.22068
1.20971
1.19524
1.18016
1.16672
1.15723
1.15044
1.14413
1.13722
1.12968
1.1217
1.11141
1.09698
1.08226
1.07398
1.06883
1.06405
1.05984
1.05566
1.05055
1.04405
1.03676
1.0293
1.02275
1.01113
1
1
1
1
1.00026
1.02402
1.28859
1.64906
1.79981
1.80645
1.84753
2.12365
2.41934
2.4593
2.41781
2.34776
2.29866
2.26445
2.22715
2.18623
2.14741
2.11227
2.0794
2.04757
2.01599
1.98448
1.95331
1.92271
1.89297
1.86441
1.83742
1.81228
1.78907
1.7677
1.74798
1.72848
1.70678
1.68419
1.66206
1.6396
1.61772
1.59776
1.58014
1.56406
1.54802
1.53247
1.51672
1.50011
1.48297
1.46516
1.44833
1.4372
1.42805
1.41699
1.40322
1.38708
1.36988
1.35365
1.34054
1.33071
1.32259
1.31447
1.30447
1.29078
1.27492
1.26169
1.25139
1.24353
1.23829
1.23367
1.22776
1.2196
1.20763
1.1922
1.17627
1.16499
1.15876
1.15244
1.1451
1.13719
1.1294
1.12147
1.11164
1.09794
1.08377
1.07475
1.06863
1.06355
1.05909
1.05441
1.04874
1.04174
1.03417
1.02711
1.02128
1.00972
1
1
1
1
1
1.00036
1.02782
1.28786
1.65316
1.74755
2.18172
2.44517
2.45006
2.41824
2.39738
2.34399
2.29322
2.24992
2.2106
2.17264
2.13624
2.1022
2.06987
2.03817
2.00697
1.97655
1.94683
1.91748
1.88831
1.85939
1.83152
1.80594
1.78348
1.76356
1.7448
1.72729
1.71208
1.69551
1.67441
1.65133
1.62853
1.60747
1.58828
1.57069
1.55694
1.54326
1.52765
1.50987
1.49112
1.47426
1.46174
1.45153
1.44023
1.42686
1.41115
1.39317
1.375
1.3598
1.34881
1.34034
1.33253
1.32431
1.31435
1.30113
1.28579
1.2722
1.26141
1.25298
1.24659
1.24118
1.23518
1.22644
1.21336
1.19728
1.18323
1.17444
1.16775
1.16068
1.15284
1.14464
1.13667
1.12851
1.11819
1.10427
1.09094
1.08233
1.0762
1.07085
1.06547
1.05967
1.0535
1.04692
1.04048
1.03461
1.02895
1.01588
1
1
1
1
1
1
1.00045
1.03228
1.31377
1.8354
2.542
2.68031
2.53076
2.43172
2.39043
2.34225
2.29084
2.24276
2.2015
2.16566
2.13246
2.10014
2.0677
2.0351
2.00325
1.97294
1.94416
1.91632
1.88844
1.85971
1.83076
1.80349
1.77954
1.75948
1.74284
1.72753
1.71
1.68784
1.66336
1.63853
1.61522
1.59436
1.57652
1.5616
1.54775
1.53385
1.51769
1.49791
1.47718
1.46106
1.44985
1.43965
1.42841
1.41526
1.39924
1.38027
1.36127
1.34675
1.33703
1.32928
1.32146
1.31252
1.30182
1.28885
1.27492
1.26263
1.25231
1.24334
1.23575
1.22929
1.2229
1.21438
1.20194
1.18665
1.17325
1.16413
1.15724
1.15084
1.14397
1.13591
1.12711
1.11842
1.10804
1.09442
1.08175
1.07319
1.06704
1.06187
1.05664
1.0511
1.04538
1.03885
1.03204
1.02607
1.02053
1.0073
)
;

boundaryField
{
    inlet
    {
        type            fixedValue;
        value           uniform 1;
    }
    outlet
    {
        type            inletOutlet;
        inletValue      uniform 1;
        value           nonuniform List<scalar> 
32
(
2.01628
2.01013
1.97653
1.92484
1.87423
1.83122
1.79708
1.77074
1.7519
1.73346
1.70327
1.66863
1.63552
1.60962
1.58464
1.53981
1.46238
1.34244
1.21534
1.17043
1.14873
1.13315
1.12141
1.10611
1.07597
1.04103
1.02327
1.01646
1.01022
1.00877
1.01463
1.00592
)
;
    }
    bottom
    {
        type            symmetryPlane;
    }
    top
    {
        type            symmetryPlane;
    }
    obstacle
    {
        type            zeroGradient;
    }
    defaultFaces
    {
        type            empty;
    }
}


// ************************************************************************* //
