/*--------------------------------*- C++ -*----------------------------------*\
  =========                 |
  \\      /  F ield         | OpenFOAM: The Open Source CFD Toolbox
   \\    /   O peration     | Website:  https://openfoam.org
    \\  /    A nd           | Version:  7
     \\/     M anipulation  |
\*---------------------------------------------------------------------------*/
FoamFile
{
    version     2.0;
    format      ascii;
    class       volVectorField;
    location    "1.7";
    object      U;
}
// * * * * * * * * * * * * * * * * * * * * * * * * * * * * * * * * * * * * * //

dimensions      [0 1 -1 0 0 0 0];

internalField   nonuniform List<vector> 
4032
(
(3 -1.15457e-17 0)
(3 5.27876e-17 0)
(3 3.85675e-18 0)
(3 9.83529e-17 0)
(3 -1.5759e-16 0)
(3 -7.15896e-17 0)
(3 -9.49354e-17 0)
(3 -6.18093e-17 0)
(3 -5.71154e-16 0)
(3 -7.40901e-16 0)
(3 -9.12054e-16 0)
(3 -1.48211e-15 0)
(1.73334 0.0144303 0)
(0.75782 0.0155355 0)
(0.662596 0.0261638 0)
(0.601556 0.0291615 0)
(0.536322 0.0295072 0)
(0.475052 0.0287283 0)
(0.413908 0.0293472 0)
(0.350149 0.0314394 0)
(0.282796 0.0341325 0)
(0.208101 0.0366339 0)
(0.129306 0.0384756 0)
(0.047228 0.0425258 0)
(3 -1.36886e-16 0)
(3 -1.33809e-16 0)
(3 -6.72877e-17 0)
(3 2.38535e-17 0)
(3 4.51328e-17 0)
(3 3.36428e-16 0)
(3 -2.27936e-16 0)
(3 -9.44044e-17 0)
(3 -2.98128e-16 0)
(3 -1.13696e-15 0)
(3 -1.92094e-15 0)
(3 -3.79209e-15 0)
(1.76867 0.0716636 0)
(0.747982 0.0707416 0)
(0.642029 0.0776795 0)
(0.580913 0.0832996 0)
(0.517384 0.0845678 0)
(0.457756 0.0839916 0)
(0.397458 0.0870764 0)
(0.334767 0.0942755 0)
(0.269212 0.103131 0)
(0.196858 0.111387 0)
(0.121637 0.117728 0)
(0.0446143 0.129585 0)
(3 -1.73856e-16 0)
(3 -6.57841e-16 0)
(3 -4.42782e-16 0)
(3 -5.75877e-17 0)
(3 3.75203e-16 0)
(3 2.38485e-16 0)
(3 -2.54065e-17 0)
(3 -2.88079e-16 0)
(3 -2.07602e-16 0)
(3 -9.89234e-16 0)
(3 -1.80442e-15 0)
(3 -3.35475e-15 0)
(1.88912 0.131531 0)
(0.765473 0.1325 0)
(0.6446 0.13549 0)
(0.581938 0.142024 0)
(0.517685 0.142657 0)
(0.456766 0.14168 0)
(0.394436 0.146718 0)
(0.329956 0.157971 0)
(0.263058 0.17148 0)
(0.189747 0.183831 0)
(0.115521 0.192901 0)
(0.0424415 0.210943 0)
(3 1.02497e-17 0)
(3 1.79079e-16 0)
(3 2.00477e-16 0)
(3 -1.18545e-17 0)
(3 -3.11282e-16 0)
(3 -8.56139e-16 0)
(3 -8.00677e-16 0)
(3 -1.00631e-15 0)
(3 -1.10543e-15 0)
(3 -1.44869e-15 0)
(3 -1.18958e-15 0)
(3 -1.19698e-15 0)
(2.08485 0.175671 0)
(0.802327 0.196153 0)
(0.661775 0.192884 0)
(0.599945 0.198273 0)
(0.533972 0.200301 0)
(0.46909 0.201706 0)
(0.401802 0.210111 0)
(0.332908 0.225715 0)
(0.263301 0.243684 0)
(0.187947 0.259276 0)
(0.114109 0.269914 0)
(0.0411633 0.291488 0)
(3 1.05833e-16 0)
(3 4.80194e-17 0)
(3 -1.65525e-16 0)
(3 -5.64092e-16 0)
(3 -8.76892e-16 0)
(3 -8.9857e-16 0)
(3 -8.89783e-16 0)
(3 -6.24028e-16 0)
(3 -1.05586e-15 0)
(3 -9.31116e-16 0)
(3 -4.44644e-16 0)
(3 -3.35309e-16 0)
(2.33232 0.212402 0)
(0.84231 0.26905 0)
(0.677569 0.249863 0)
(0.623408 0.259095 0)
(0.55908 0.264063 0)
(0.493961 0.268424 0)
(0.425871 0.279739 0)
(0.356915 0.298079 0)
(0.288514 0.318083 0)
(0.212008 0.336405 0)
(0.131592 0.350777 0)
(0.0506079 0.37956 0)
(3 -1.23673e-16 0)
(3 -3.67205e-16 0)
(3 -6.33787e-16 0)
(3 -6.793e-16 0)
(3 -2.22133e-16 0)
(3 6.89115e-17 0)
(3 3.47061e-16 0)
(3 4.97205e-16 0)
(3 1.77356e-16 0)
(3 2.3631e-16 0)
(3 1.20799e-16 0)
(3 -1.38205e-15 0)
(2.6853 0.219612 0)
(0.944638 0.335586 0)
(0.732789 0.286929 0)
(0.685991 0.305545 0)
(0.621123 0.319905 0)
(0.554507 0.331491 0)
(0.484969 0.347741 0)
(0.412723 0.370549 0)
(0.338134 0.396152 0)
(0.252082 0.425881 0)
(0.159672 0.454136 0)
(0.0537848 0.49133 0)
(3 -1.87967e-16 0)
(3 7.76789e-17 0)
(3 3.86837e-16 0)
(3 1.22084e-16 0)
(3 3.45377e-16 0)
(3 8.21485e-16 0)
(3 8.98468e-16 0)
(3 7.33232e-16 0)
(3 6.58828e-16 0)
(3 4.27948e-16 0)
(3 -1.56728e-16 0)
(3 -5.66867e-16 0)
(2.99986 0.0636897 0)
(1.08967 0.363551 0)
(0.785767 0.319107 0)
(0.748562 0.351871 0)
(0.690402 0.373134 0)
(0.629336 0.390225 0)
(0.564013 0.411922 0)
(0.493833 0.443437 0)
(0.417885 0.478726 0)
(0.338171 0.518104 0)
(0.242359 0.563323 0)
(0.107973 0.634138 0)
(3 -3.10409e-17 0)
(3 3.83206e-16 0)
(3 9.8464e-16 0)
(3 9.53083e-16 0)
(3 7.7149e-16 0)
(3 5.33621e-16 0)
(3 -4.21239e-16 0)
(3 -9.36137e-16 0)
(3 -8.30353e-16 0)
(3 -9.49919e-16 0)
(3 -9.22872e-16 0)
(3 -4.1916e-16 0)
(3.01252 0.00331356 0)
(1.24216 0.36545 0)
(0.791753 0.365436 0)
(0.748522 0.408381 0)
(0.699539 0.433924 0)
(0.651263 0.455898 0)
(0.601486 0.484013 0)
(0.550676 0.523392 0)
(0.490298 0.565821 0)
(0.418076 0.628891 0)
(0.287278 0.734607 0)
(0.157759 0.909199 0)
(3 3.92225e-17 0)
(3 1.56239e-16 0)
(3 4.66745e-17 0)
(3 1.8499e-16 0)
(3 -2.97778e-16 0)
(3 -7.37767e-16 0)
(3 -1.70363e-15 0)
(3 -2.23067e-15 0)
(3 -2.21305e-15 0)
(3 -2.07161e-15 0)
(3 -1.89917e-15 0)
(3 -1.14543e-15 0)
(3.00017 3.02254e-06 0)
(1.52936 0.414268 0)
(0.800185 0.415988 0)
(0.73411 0.445393 0)
(0.699024 0.472693 0)
(0.666019 0.500217 0)
(0.634651 0.533195 0)
(0.603676 0.579546 0)
(0.565348 0.64054 0)
(0.524777 0.746526 0)
(0.485395 0.908764 0)
(0.591757 1.1888 0)
(3 -6.83068e-18 0)
(3 -2.93282e-16 0)
(3 -3.26384e-16 0)
(3 -1.11179e-16 0)
(3 4.8078e-17 0)
(3 -1.04726e-16 0)
(3 2.13241e-16 0)
(3 -2.62046e-16 0)
(3 -1.13696e-15 0)
(3 -1.62086e-15 0)
(3 -1.27544e-15 0)
(3 -9.13141e-16 0)
(3 -1.04761e-08 0)
(2.04176 0.448563 0)
(0.872888 0.507434 0)
(0.756226 0.48867 0)
(0.723291 0.509726 0)
(0.700566 0.537537 0)
(0.679147 0.573123 0)
(0.661883 0.626015 0)
(0.651107 0.704157 0)
(0.651771 0.826768 0)
(0.711218 0.966922 0)
(0.985103 1.13512 0)
(3 4.70704e-17 0)
(3 4.8899e-17 0)
(3 2.26739e-16 0)
(3 3.81178e-16 0)
(3 7.44174e-16 0)
(3 1.13099e-15 0)
(3 1.53021e-15 0)
(3 1.65051e-15 0)
(3 6.92348e-16 0)
(3 -2.68268e-16 0)
(3 -2.11948e-16 0)
(3 -5.57045e-16 0)
(3 -4.68952e-09 0)
(2.78013 0.278393 0)
(1.06363 0.576784 0)
(0.845976 0.52552 0)
(0.796956 0.532196 0)
(0.768049 0.561429 0)
(0.746966 0.601085 0)
(0.73516 0.656635 0)
(0.744057 0.73724 0)
(0.773673 0.852131 0)
(0.893669 0.969785 0)
(1.19594 1.07347 0)
(3 -1.01073e-16 0)
(3 -2.9794e-16 0)
(3 -8.55755e-17 0)
(3 -1.6892e-16 0)
(3 -2.2259e-16 0)
(3 4.88575e-16 0)
(3 1.10756e-15 0)
(3 1.74228e-15 0)
(3 1.64963e-15 0)
(3 1.61795e-15 0)
(3 2.39964e-16 0)
(3 -1.31096e-16 0)
(3 -7.59115e-10 0)
(3.06527 0.0231127 0)
(1.35436 0.563632 0)
(0.932397 0.592389 0)
(0.879712 0.586838 0)
(0.841282 0.605898 0)
(0.817243 0.641936 0)
(0.809432 0.693501 0)
(0.829027 0.765038 0)
(0.882088 0.857783 0)
(1.026 0.955572 0)
(1.28558 1.02157 0)
(3 3.97641e-17 0)
(3 -1.34605e-16 0)
(3 9.36162e-17 0)
(3 4.85448e-17 0)
(3 -1.14692e-16 0)
(3 2.27438e-16 0)
(3 9.14456e-16 0)
(3 1.5975e-15 0)
(3 2.22689e-15 0)
(3 2.15774e-15 0)
(3 1.17556e-15 0)
(3 4.28639e-16 0)
(3 -8.9243e-11 0)
(3.00331 4.94109e-05 0)
(1.74946 0.548274 0)
(0.962251 0.648309 0)
(0.908057 0.645526 0)
(0.890985 0.656966 0)
(0.881365 0.682877 0)
(0.88505 0.719648 0)
(0.909586 0.775478 0)
(0.974556 0.848427 0)
(1.11566 0.923009 0)
(1.3221 0.966024 0)
(3 1.54679e-16 0)
(3 4.2743e-16 0)
(3 3.53645e-16 0)
(3 4.66795e-16 0)
(3 2.34342e-16 0)
(3 -7.53435e-17 0)
(3 1.15782e-16 0)
(3 3.73424e-16 0)
(3 1.86153e-15 0)
(3 2.23137e-15 0)
(3 2.06067e-15 0)
(3 1.11886e-15 0)
(3 -6.48544e-12 0)
(3.00001 -4.5105e-07 0)
(2.57923 0.388323 0)
(1.09764 0.685159 0)
(0.968247 0.671884 0)
(0.956365 0.68345 0)
(0.950751 0.709559 0)
(0.958352 0.746874 0)
(0.989227 0.794845 0)
(1.05913 0.847765 0)
(1.18326 0.89849 0)
(1.35187 0.924607 0)
(3 -4.44162e-18 0)
(3 -5.97448e-17 0)
(3 -5.93953e-16 0)
(3 -6.9528e-16 0)
(3 -5.19468e-16 0)
(3 -4.80541e-16 0)
(3 -5.16717e-16 0)
(3 -6.61342e-16 0)
(3 -1.76323e-16 0)
(3 1.51266e-15 0)
(3 2.32116e-15 0)
(3 1.50942e-15 0)
(3 -1.33884e-15 0)
(3 -4.15629e-07 0)
(3.07356 0.0435985 0)
(1.42959 0.676746 0)
(1.04953 0.72214 0)
(1.0253 0.720831 0)
(1.01227 0.7429 0)
(1.02253 0.764527 0)
(1.05813 0.799923 0)
(1.12894 0.838626 0)
(1.23435 0.871234 0)
(1.37324 0.884909 0)
(3 1.65259e-16 0)
(3 1.27269e-16 0)
(3 -4.71378e-16 0)
(3 -5.8755e-16 0)
(3 -5.24463e-16 0)
(3 -4.49024e-16 0)
(3 -6.79968e-16 0)
(3 -1.13674e-15 0)
(3 -1.46589e-15 0)
(3 -2.04639e-16 0)
(3 8.38613e-16 0)
(3 1.70138e-15 0)
(3 1.73399e-15 0)
(3 -7.59625e-08 0)
(3.00594 0.000306545 0)
(2.02029 0.636022 0)
(1.11136 0.786972 0)
(1.07524 0.76996 0)
(1.06957 0.773755 0)
(1.08328 0.784423 0)
(1.11889 0.807591 0)
(1.18665 0.837827 0)
(1.27918 0.861633 0)
(1.39638 0.87035 0)
(3 -1.04658e-16 0)
(3 -2.39293e-16 0)
(3 -1.63797e-16 0)
(3 4.20564e-16 0)
(3 7.81273e-16 0)
(3 4.56946e-16 0)
(3 -5.14686e-17 0)
(3 -1.34021e-15 0)
(3 -1.1416e-15 0)
(3 -6.76776e-16 0)
(3 -6.45372e-16 0)
(3 -7.44068e-16 0)
(3 5.22383e-16 0)
(3 -5.43113e-09 0)
(3.00002 4.56602e-07 0)
(2.99321 0.193179 0)
(1.37945 0.765616 0)
(1.14326 0.782212 0)
(1.14999 0.783527 0)
(1.15764 0.796158 0)
(1.18462 0.812869 0)
(1.23943 0.830725 0)
(1.31845 0.845887 0)
(1.4171 0.853048 0)
(3 -2.34584e-16 0)
(3 -4.38866e-16 0)
(3 2.6929e-17 0)
(3 2.56624e-16 0)
(3 5.85572e-16 0)
(3 7.83015e-16 0)
(3 1.80106e-16 0)
(3 -1.20101e-16 0)
(3 -9.25944e-16 0)
(3 -1.33328e-15 0)
(3 -1.08931e-15 0)
(3 -1.32144e-15 0)
(3 -7.8635e-16 0)
(3 -1.81622e-11 0)
(3 -8.04096e-07 0)
(3.02942 0.00386261 0)
(1.80833 0.721387 0)
(1.17282 0.833542 0)
(1.17154 0.830783 0)
(1.2014 0.835066 0)
(1.23446 0.84291 0)
(1.28326 0.850599 0)
(1.3519 0.855896 0)
(1.43454 0.857401 0)
(3 -2.14423e-17 0)
(3 -4.38541e-17 0)
(3 -8.05528e-17 0)
(3 -2.46067e-16 0)
(3 -5.78432e-17 0)
(3 3.8927e-16 0)
(3 1.1921e-15 0)
(3 1.72259e-15 0)
(3 1.12085e-16 0)
(3 -5.13762e-16 0)
(3 3.75666e-16 0)
(3 1.0127e-16 0)
(3 -4.89954e-16 0)
(3 -2.66488e-14 0)
(3 -1.32617e-07 0)
(3.00034 5.23692e-05 0)
(2.85452 0.32816 0)
(1.3833 0.844993 0)
(1.21569 0.821087 0)
(1.25665 0.830901 0)
(1.28764 0.843366 0)
(1.33305 0.849544 0)
(1.39176 0.851595 0)
(1.46083 0.850339 0)
(3 -1.05499e-17 0)
(3 -6.89996e-17 0)
(3 -1.89242e-16 0)
(3 -1.96665e-16 0)
(3 -8.37051e-17 0)
(3 1.94427e-17 0)
(3 8.72342e-16 0)
(3 8.4866e-16 0)
(3 5.99865e-16 0)
(3 5.87193e-16 0)
(3 6.68468e-16 0)
(3 5.41683e-16 0)
(3 2.84937e-16 0)
(3 6.96097e-15 0)
(3 -3.35487e-09 0)
(3.00001 -1.77034e-06 0)
(3.04401 0.0130587 0)
(1.83149 0.762165 0)
(1.26275 0.872671 0)
(1.27628 0.87019 0)
(1.31388 0.873942 0)
(1.3591 0.876648 0)
(1.41407 0.874763 0)
(1.47557 0.868593 0)
(3 -1.96121e-17 0)
(3 -1.94333e-17 0)
(3 -1.19542e-16 0)
(3 -5.58612e-16 0)
(3 -8.59475e-16 0)
(3 -9.6127e-16 0)
(3 -7.08455e-16 0)
(3 -4.99109e-16 0)
(3 -9.90881e-17 0)
(3 -4.30072e-17 0)
(3 -3.68257e-16 0)
(3 -6.46644e-17 0)
(3 4.44141e-16 0)
(3 3.84996e-15 0)
(3 -9.7846e-12 0)
(3 -3.84259e-07 0)
(3.00087 0.000305153 0)
(2.81653 0.352206 0)
(1.49074 0.902355 0)
(1.31136 0.865527 0)
(1.35551 0.867659 0)
(1.3942 0.870508 0)
(1.4441 0.868726 0)
(1.49936 0.862805 0)
(3 9.50395e-17 0)
(3 7.26612e-17 0)
(3 4.19227e-17 0)
(3 -4.94266e-17 0)
(3 -2.09268e-16 0)
(3 -2.30798e-16 0)
(3 -6.63101e-18 0)
(3 3.25576e-16 0)
(3 8.19317e-16 0)
(3 1.29702e-16 0)
(3 -7.35616e-16 0)
(3 -6.04097e-16 0)
(3 3.4479e-16 0)
(3 1.88355e-16 0)
(3 -3.62078e-15 0)
(3 -3.02927e-08 0)
(3 4.25336e-07 0)
(3.03276 0.0181981 0)
(2.04727 0.766174 0)
(1.38038 0.910581 0)
(1.37994 0.90336 0)
(1.41715 0.896859 0)
(1.45961 0.891463 0)
(1.50958 0.883352 0)
(3 9.70215e-17 0)
(3 5.65266e-16 0)
(3 8.11195e-16 0)
(3 1.38837e-15 0)
(3 1.33937e-15 0)
(3 1.08238e-15 0)
(3 1.12949e-15 0)
(3 3.35428e-16 0)
(3 -9.52928e-17 0)
(3 -4.89452e-16 0)
(3 -5.90594e-17 0)
(3 3.41304e-16 0)
(3 2.85516e-17 0)
(3 -1.39437e-15 0)
(3 -1.34136e-15 0)
(3 -8.82065e-10 0)
(3 -8.0781e-10 0)
(3.00061 0.000532519 0)
(2.90753 0.2518 0)
(1.70123 0.902018 0)
(1.41186 0.911815 0)
(1.45942 0.903069 0)
(1.4915 0.89537 0)
(1.53506 0.884306 0)
(3 -4.66485e-18 0)
(3 2.48087e-16 0)
(3 6.09861e-16 0)
(3 1.10709e-15 0)
(3 8.87307e-16 0)
(3 7.06311e-16 0)
(3 1.76928e-16 0)
(3 -5.96175e-16 0)
(3 -6.37533e-16 0)
(3 -1.09869e-16 0)
(3 8.7574e-16 0)
(3 6.49664e-16 0)
(3 -1.04572e-15 0)
(3 -9.35663e-16 0)
(3 3.85275e-17 0)
(3 -5.3693e-12 0)
(3 -2.3794e-10 0)
(3 1.10366e-06 0)
(3.01151 0.0139136 0)
(2.44851 0.647508 0)
(1.52338 0.958354 0)
(1.48046 0.94054 0)
(1.51606 0.923893 0)
(1.55373 0.909438 0)
(3 -9.25866e-17 0)
(3 -1.82373e-16 0)
(3 2.19057e-16 0)
(3 -7.08043e-17 0)
(3 -5.34496e-16 0)
(3 -3.46955e-16 0)
(3 -2.01436e-16 0)
(3 -3.59653e-16 0)
(3 -9.22151e-17 0)
(3 7.9918e-16 0)
(3 8.85803e-16 0)
(3 -2.7412e-16 0)
(3 -1.09338e-15 0)
(3 -8.87048e-16 0)
(3 2.61515e-16 0)
(3 -8.17767e-15 0)
(3 -2.68845e-11 0)
(3 2.29119e-10 0)
(3.00007 0.000295826 0)
(3.01134 0.103383 0)
(1.99878 0.834297 0)
(1.53904 0.948742 0)
(1.55661 0.937132 0)
(1.59083 0.917923 0)
(3 -1.44392e-16 0)
(3 -3.01623e-16 0)
(3 -4.23083e-16 0)
(3 -6.99387e-16 0)
(3 -6.34435e-16 0)
(3 -6.26484e-16 0)
(3 -4.73377e-16 0)
(3 5.44012e-16 0)
(3 4.35419e-17 0)
(3 -2.57799e-16 0)
(3 -2.47312e-16 0)
(3 -7.31436e-17 0)
(3 -5.3245e-16 0)
(3 -1.32975e-15 0)
(3 -1.14709e-15 0)
(3 -2.89062e-16 0)
(3 -1.39653e-12 0)
(3 -1.35195e-12 0)
(3 4.52145e-07 0)
(3.00227 0.00514494 0)
(2.78475 0.361071 0)
(1.79537 0.919683 0)
(1.58195 0.962621 0)
(1.61609 0.94761 0)
(3 -8.54014e-17 0)
(3 -1.23171e-16 0)
(3 -8.09894e-16 0)
(3 -7.72598e-16 0)
(3 -8.69321e-16 0)
(3 -1.11234e-15 0)
(3 -1.22636e-15 0)
(3 -6.23866e-16 0)
(3 -7.0396e-16 0)
(3 -9.4116e-16 0)
(3 -1.2912e-15 0)
(3 -6.37579e-16 0)
(3 -3.61899e-16 0)
(3 -5.71691e-16 0)
(3 -4.23524e-16 0)
(3 2.42192e-16 0)
(3 -1.55752e-14 0)
(3 -4.25776e-13 0)
(3 1.6182e-10 0)
(3 3.88056e-05 0)
(3.00457 0.0287619 0)
(2.44317 0.621481 0)
(1.71584 0.973331 0)
(1.62683 0.96762 0)
(3 -1.06064e-17 0)
(3 -1.00846e-16 0)
(3 -2.60459e-16 0)
(3 -6.78831e-16 0)
(3 -7.94686e-16 0)
(3 -8.32188e-16 0)
(3 -4.2768e-16 0)
(3 -2.3078e-16 0)
(3 -4.2744e-16 0)
(3 -3.65984e-16 0)
(3 -7.57463e-16 0)
(3 -6.53497e-16 0)
(3 2.63249e-16 0)
(3 6.29119e-16 0)
(3 4.18692e-16 0)
(3 9.22249e-16 0)
(3 1.22408e-16 0)
(3 -5.23501e-14 0)
(3 -3.38748e-14 0)
(3 3.09583e-08 0)
(3.00001 0.000805918 0)
(2.97013 0.104257 0)
(2.1951 0.784868 0)
(1.69339 0.978275 0)
(3 -1.66174e-16 0)
(3 -1.3748e-16 0)
(3 -3.37244e-16 0)
(3 -5.09578e-16 0)
(3 -2.80639e-16 0)
(3 -1.07635e-16 0)
(3 3.84855e-17 0)
(3 -1.64155e-17 0)
(3 2.2481e-16 0)
(3 2.18741e-17 0)
(3 -4.20249e-16 0)
(3 -6.2031e-16 0)
(3 -4.12588e-16 0)
(3 3.3162e-16 0)
(3 1.84847e-16 0)
(3 4.58001e-17 0)
(3 -5.20387e-16 0)
(3 -2.42283e-15 0)
(3 -1.26633e-14 0)
(3 9.79168e-12 0)
(3 1.88272e-06 0)
(2.99997 0.00525261 0)
(2.85848 0.261996 0)
(2.03015 0.866466 0)
(3 1.83033e-17 0)
(3 4.62528e-17 0)
(3 -9.22317e-17 0)
(3 7.79167e-17 0)
(3 -5.18126e-19 0)
(3 -1.81274e-16 0)
(3 -2.83749e-16 0)
(3 -4.42397e-16 0)
(3 -1.63642e-16 0)
(3 1.48302e-16 0)
(3 2.02048e-16 0)
(3 -1.77634e-16 0)
(3 -3.82814e-16 0)
(3 -2.70039e-16 0)
(3 -7.83855e-17 0)
(3 -1.00383e-15 0)
(3 -1.34396e-15 0)
(3 -8.50187e-16 0)
(3 -1.98274e-15 0)
(3 -3.94187e-16 0)
(3 1.22758e-09 0)
(2.99999 3.51114e-05 0)
(2.99746 0.0194698 0)
(2.68832 0.428168 0)
(3 1.34767e-16 0)
(3 1.62636e-17 0)
(3 5.1523e-16 0)
(3 7.76039e-16 0)
(3 3.90804e-16 0)
(3 2.55646e-16 0)
(3 3.06637e-16 0)
(3 7.22165e-17 0)
(3 -4.6259e-16 0)
(3 -4.2523e-16 0)
(3 -5.87317e-16 0)
(3 -4.55015e-16 0)
(3 -2.63788e-16 0)
(3 -2.23924e-16 0)
(3 -1.9581e-16 0)
(3 -7.24894e-16 0)
(3 -1.17612e-15 0)
(3 -7.13145e-16 0)
(3 -5.70087e-16 0)
(3 -1.16848e-15 0)
(3 1.68658e-13 0)
(3 3.75099e-08 0)
(2.99993 0.000331501 0)
(2.9883 0.0449788 0)
(3 8.50642e-17 0)
(3 -1.85118e-16 0)
(3 3.09936e-16 0)
(3 9.28215e-16 0)
(3 1.03379e-15 0)
(3 8.21549e-16 0)
(3 -5.99402e-17 0)
(3 -3.88855e-16 0)
(3 -6.06347e-16 0)
(3 -7.79797e-16 0)
(3 -1.02263e-15 0)
(3 -1.10934e-15 0)
(3 -5.32287e-16 0)
(3 -2.26872e-16 0)
(3 -1.1459e-16 0)
(3 1.79773e-16 0)
(3 4.68773e-16 0)
(3 4.11683e-16 0)
(3 -6.96642e-16 0)
(3 -6.92435e-16 0)
(3 -1.54148e-15 0)
(3 1.27433e-11 0)
(3 6.0122e-07 0)
(2.99974 0.00145379 0)
(3 2.21849e-16 0)
(3 1.43049e-16 0)
(3 9.52881e-17 0)
(3 1.61511e-16 0)
(3 5.43137e-16 0)
(3 7.80394e-16 0)
(3 2.93772e-16 0)
(3 8.36431e-17 0)
(3 2.49146e-16 0)
(3 5.81475e-16 0)
(3 3.11027e-16 0)
(3 -3.05776e-16 0)
(3 -5.48629e-16 0)
(3 -3.55044e-16 0)
(3 -4.45173e-16 0)
(3 5.95308e-16 0)
(3 1.58901e-15 0)
(3 1.38254e-15 0)
(3 7.93973e-16 0)
(3 4.41586e-16 0)
(3 -2.71427e-16 0)
(3 1.25673e-15 0)
(3 4.00525e-10 0)
(3 4.37275e-06 0)
(3 -7.82117e-17 0)
(3 2.72283e-16 0)
(3 2.89257e-16 0)
(3 6.61655e-17 0)
(3 3.02444e-16 0)
(3 8.37583e-16 0)
(3 6.79978e-16 0)
(3 4.43103e-16 0)
(3 2.29873e-16 0)
(3 4.05032e-16 0)
(3 4.34537e-16 0)
(3 9.34185e-16 0)
(3 7.14032e-16 0)
(3 4.21496e-16 0)
(3 -8.56286e-17 0)
(3 8.88424e-17 0)
(3 6.64551e-16 0)
(3 1.23005e-15 0)
(3 7.63107e-16 0)
(3 2.69941e-16 0)
(3 -2.8168e-17 0)
(3 3.15397e-16 0)
(3 3.42196e-14 0)
(3 4.60198e-09 0)
(3 -1.76815e-16 0)
(3 -1.2353e-16 0)
(3 -7.61215e-17 0)
(3 -3.23918e-16 0)
(3 -3.30058e-16 0)
(3 -5.10826e-16 0)
(3 -5.3361e-16 0)
(3 -2.24179e-16 0)
(3 -3.10012e-16 0)
(3 1.45131e-17 0)
(3 3.58278e-16 0)
(3 1.08574e-16 0)
(3 -1.54953e-16 0)
(3 -2.31139e-16 0)
(3 -2.33745e-16 0)
(3 3.03752e-16 0)
(3 1.9639e-16 0)
(3 1.18435e-16 0)
(3 2.17264e-16 0)
(3 -1.88932e-17 0)
(3 5.50757e-16 0)
(3 9.65267e-16 0)
(3 8.46551e-16 0)
(3 6.66116e-13 0)
(3 -3.71021e-17 0)
(3 -2.13718e-16 0)
(3 -6.60186e-16 0)
(3 -7.66478e-16 0)
(3 -1.34341e-15 0)
(3 -1.87504e-15 0)
(3 -1.21772e-15 0)
(3 -7.01881e-16 0)
(3 -4.45831e-16 0)
(3 -4.32665e-16 0)
(3 -2.56291e-16 0)
(3 -1.46613e-15 0)
(3 -2.52282e-15 0)
(3 -2.43406e-15 0)
(3 -9.78142e-16 0)
(3 7.4055e-16 0)
(3 2.93927e-16 0)
(3 1.9851e-16 0)
(3 4.53039e-16 0)
(3 3.43725e-16 0)
(3 1.27057e-15 0)
(3 1.78458e-15 0)
(3 1.52945e-15 0)
(3 1.15285e-15 0)
(3 1.55427e-16 0)
(3 4.33711e-16 0)
(3 2.5711e-16 0)
(3 1.78257e-16 0)
(3 -2.49581e-16 0)
(3 -1.1931e-15 0)
(3 -1.32896e-15 0)
(3 -1.45491e-15 0)
(3 -1.29857e-15 0)
(3 -1.14002e-15 0)
(3 -9.28855e-16 0)
(3 -1.09273e-15 0)
(3 -1.45449e-15 0)
(3 -1.66354e-15 0)
(3 -1.29288e-15 0)
(3 -1.02231e-15 0)
(3 -1.02341e-15 0)
(3 -7.27126e-16 0)
(3 -2.91159e-16 0)
(3 5.65112e-16 0)
(3 1.50156e-15 0)
(3 9.95534e-16 0)
(3 7.59679e-16 0)
(3 2.45718e-16 0)
(3 -1.17696e-18 0)
(3 6.25653e-17 0)
(3 1.60844e-16 0)
(3 -8.41876e-17 0)
(3 3.2144e-17 0)
(3 -1.28715e-16 0)
(3 -7.28415e-16 0)
(3 -3.19614e-16 0)
(3 9.11097e-17 0)
(3 1.07594e-16 0)
(3 -2.14261e-17 0)
(3 -9.37463e-17 0)
(3 -1.07155e-16 0)
(3 -3.26903e-16 0)
(3 -7.11327e-16 0)
(3 -1.58207e-15 0)
(3 -2.1545e-15 0)
(3 -1.7774e-15 0)
(3 -8.27129e-16 0)
(3 2.51039e-16 0)
(3 9.1402e-16 0)
(3 7.84324e-16 0)
(3 9.66948e-17 0)
(3 -1.88577e-17 0)
(3 -1.76717e-16 0)
(3 -3.94733e-16 0)
(3 -4.66644e-16 0)
(3 -3.0547e-16 0)
(3 -6.0749e-16 0)
(3 -5.79657e-16 0)
(3 -6.83339e-16 0)
(3 6.18091e-16 0)
(3 1.03744e-15 0)
(3 6.61119e-16 0)
(3 -9.64509e-17 0)
(3 -2.03282e-16 0)
(3 -2.17447e-16 0)
(3 2.10979e-16 0)
(3 4.26488e-17 0)
(3 -7.44407e-16 0)
(3 -1.05888e-15 0)
(3 -2.79782e-16 0)
(3 2.42069e-16 0)
(3 3.96403e-16 0)
(3 6.47492e-16 0)
(3 1.02414e-15 0)
(3 6.22411e-16 0)
(3 4.78341e-16 0)
(3 -4.7032e-17 0)
(3 -1.12729e-16 0)
(3 -8.16098e-17 0)
(3 2.66307e-17 0)
(3 -2.61557e-16 0)
(3 -7.44212e-16 0)
(3 -7.41327e-16 0)
(3 2.44064e-17 0)
(3 2.76228e-16 0)
(3 1.17739e-16 0)
(3 1.81499e-16 0)
(3 2.34405e-16 0)
(3 2.89994e-17 0)
(3 1.42714e-16 0)
(3 1.65953e-16 0)
(3 -5.31817e-17 0)
(3 -9.56312e-17 0)
(3 2.78928e-16 0)
(3 8.98477e-17 0)
(3 -4.35764e-17 0)
(3 1.33857e-16 0)
(3 5.27974e-16 0)
(3 5.07318e-16 0)
(3 5.40828e-16 0)
(1.5582 1.21846 0)
(1.97919 1.44528 0)
(2.21203 1.41806 0)
(2.42142 0.8719 0)
(2.67908 0.441577 0)
(2.63819 0.0112549 0)
(2.64262 -0.189029 0)
(2.57647 -0.388236 0)
(2.54155 -0.500304 0)
(2.51709 -0.323471 0)
(2.49557 -0.203775 0)
(2.47127 -0.186744 0)
(2.46555 -0.180316 0)
(2.44968 -0.159234 0)
(2.46499 -0.119371 0)
(2.47591 -0.083819 0)
(2.45932 -0.0607081 0)
(2.44025 -0.0394339 0)
(2.43922 -0.0330242 0)
(2.45131 -0.0105709 0)
(2.45047 0.00292459 0)
(2.44244 0.00091815 0)
(2.45402 -0.00740308 0)
(2.46183 -0.00883227 0)
(2.46484 -0.00844521 0)
(2.46896 -0.00618635 0)
(2.47114 -0.00482106 0)
(2.4715 -0.00522186 0)
(2.4716 -0.00661437 0)
(2.47355 -0.00809171 0)
(2.47931 -0.00756628 0)
(2.48665 -0.00425567 0)
(2.48829 -0.00243914 0)
(2.48384 -0.00413755 0)
(2.48301 -0.00527522 0)
(2.4847 -0.00512846 0)
(2.48734 -0.00469498 0)
(2.49039 -0.00217448 0)
(2.49318 0.00100128 0)
(2.49804 0.00147678 0)
(2.50663 0.00050238 0)
(2.516 -0.00155459 0)
(2.52812 -0.00172465 0)
(2.54125 -0.000269006 0)
(2.54081 -0.00400168 0)
(2.51687 -0.0278956 0)
(2.39255 -0.119603 0)
(2.1817 -0.229437 0)
(1.97371 -0.332122 0)
(1.87094 -0.299442 0)
(1.82484 -0.25869 0)
(1.78888 -0.176869 0)
(1.78227 -0.104196 0)
(1.80387 -0.0540392 0)
(1.85242 -0.0214736 0)
(1.90768 0.00219816 0)
(1.93114 0.0131179 0)
(1.95263 0.0175277 0)
(1.97787 0.0163494 0)
(2.00736 0.0107927 0)
(2.04181 0.00689501 0)
(2.06852 0.00686499 0)
(2.09024 0.00589102 0)
(2.10627 0.00373165 0)
(2.12224 0.00425235 0)
(2.14389 0.00799132 0)
(2.16371 0.0116332 0)
(2.18187 0.0143219 0)
(2.19827 0.0134834 0)
(2.21676 0.0106225 0)
(2.23899 0.0101988 0)
(2.263 0.0114099 0)
(2.28635 0.0123912 0)
(2.30757 0.0128891 0)
(2.32453 0.0134959 0)
(2.33305 0.0143245 0)
(2.33345 0.015005 0)
(2.3424 0.0145204 0)
(2.36243 0.0137665 0)
(2.38493 0.0132712 0)
(2.41063 0.0119508 0)
(2.43973 0.0095959 0)
(2.46624 0.00719514 0)
(2.4901 0.00647146 0)
(2.51367 0.00635693 0)
(2.52539 0.00807605 0)
(2.51777 0.0125915 0)
(2.5213 0.0154371 0)
(2.54043 0.0152273 0)
(2.562 0.0149292 0)
(2.58396 0.0145743 0)
(2.60816 0.0145547 0)
(2.63077 0.0154916 0)
(2.65236 0.015525 0)
(2.67 0.015606 0)
(2.67961 0.0154768 0)
(1.79498 1.06262 0)
(2.30204 0.800828 0)
(2.55588 0.632882 0)
(2.72657 0.12908 0)
(2.75926 -0.296996 0)
(2.75346 -0.398611 0)
(2.78403 -0.56473 0)
(2.814 -0.673801 0)
(2.78112 -0.651037 0)
(2.69766 -0.563741 0)
(2.60788 -0.376139 0)
(2.58922 -0.266863 0)
(2.5809 -0.219738 0)
(2.55615 -0.152789 0)
(2.53977 -0.114837 0)
(2.52132 -0.0692054 0)
(2.49955 -0.0191802 0)
(2.49329 -0.0138339 0)
(2.48674 -0.00512313 0)
(2.4781 0.0238551 0)
(2.4714 0.0323726 0)
(2.46384 0.0105707 0)
(2.47627 -0.0116098 0)
(2.48172 -0.0115425 0)
(2.48671 -0.0146005 0)
(2.4889 -0.0189032 0)
(2.49293 -0.0146473 0)
(2.49538 -0.0123434 0)
(2.49585 -0.0134842 0)
(2.49765 -0.0144164 0)
(2.50305 -0.0108555 0)
(2.51004 -0.00233749 0)
(2.50836 0.00242664 0)
(2.5057 0.00329101 0)
(2.50242 0.00227276 0)
(2.5027 0.00079878 0)
(2.50409 -0.000346025 0)
(2.50674 0.000132049 0)
(2.5102 0.0033998 0)
(2.51652 0.00665298 0)
(2.52413 0.00910811 0)
(2.53348 0.00926325 0)
(2.54673 0.00916654 0)
(2.54358 -0.00649903 0)
(2.51556 -0.0733146 0)
(2.41621 -0.249318 0)
(2.2868 -0.463662 0)
(2.15166 -0.636932 0)
(2.11357 -0.656137 0)
(2.03606 -0.527588 0)
(1.95392 -0.32784 0)
(1.91536 -0.135251 0)
(1.87612 -0.00874191 0)
(1.85631 0.0521943 0)
(1.88004 0.0387366 0)
(1.90926 0.0379115 0)
(1.93872 0.036086 0)
(1.96513 0.0322702 0)
(1.98714 0.0225803 0)
(2.01939 0.00658244 0)
(2.05229 -0.00565428 0)
(2.08114 -0.0058018 0)
(2.10514 -0.00700379 0)
(2.12423 -0.00890209 0)
(2.14058 -0.0033616 0)
(2.16001 0.00665421 0)
(2.18301 0.020285 0)
(2.20132 0.0371236 0)
(2.21218 0.0459858 0)
(2.22781 0.0411743 0)
(2.24911 0.0330352 0)
(2.27115 0.0234764 0)
(2.29247 0.0170948 0)
(2.31413 0.0125075 0)
(2.33503 0.00912992 0)
(2.35192 0.0101466 0)
(2.36027 0.0201258 0)
(2.36335 0.0340169 0)
(2.37502 0.0384365 0)
(2.39712 0.036221 0)
(2.42157 0.0346974 0)
(2.44749 0.0320194 0)
(2.47307 0.0265993 0)
(2.49613 0.0196151 0)
(2.51702 0.0101967 0)
(2.53333 -2.08436e-05 0)
(2.53906 0.00393278 0)
(2.54377 0.0210998 0)
(2.55555 0.0363932 0)
(2.57409 0.0425833 0)
(2.59553 0.0437755 0)
(2.61781 0.0429623 0)
(2.64193 0.0367693 0)
(2.66333 0.0284982 0)
(2.67969 0.0227441 0)
(2.69446 0.0252544 0)
(1.65914 1.07561 0)
(2.1238 0.825317 0)
(2.41264 0.564642 0)
(2.4737 0.504368 0)
(2.62315 0.204901 0)
(2.70643 0.00437655 0)
(2.75375 -0.102831 0)
(2.79198 -0.309872 0)
(2.77775 -0.359528 0)
(2.78656 -0.40946 0)
(2.77907 -0.420265 0)
(2.76153 -0.474834 0)
(2.75267 -0.458915 0)
(2.74235 -0.390918 0)
(2.73922 -0.355618 0)
(2.69661 -0.271078 0)
(2.63975 -0.159841 0)
(2.61427 -0.124796 0)
(2.58743 -0.101046 0)
(2.55146 -0.0290712 0)
(2.53811 0.0104066 0)
(2.5316 0.00656776 0)
(2.54225 0.0118526 0)
(2.54155 0.0148429 0)
(2.53721 0.00824404 0)
(2.53499 -0.00912722 0)
(2.53844 -0.0175142 0)
(2.54473 -0.021786 0)
(2.54726 -0.027286 0)
(2.54835 -0.0293679 0)
(2.55228 -0.0279656 0)
(2.55642 -0.0205555 0)
(2.55421 -0.0140201 0)
(2.55049 -0.0089871 0)
(2.54747 -0.00352845 0)
(2.54524 -0.000894265 0)
(2.54439 0.00032717 0)
(2.5453 0.0016245 0)
(2.5497 0.0016222 0)
(2.5563 0.00103335 0)
(2.56245 0.00142445 0)
(2.57134 -0.00257065 0)
(2.5658 -0.0266258 0)
(2.50795 -0.126176 0)
(2.3932 -0.322554 0)
(2.26307 -0.522628 0)
(2.15192 -0.69816 0)
(2.14008 -0.681294 0)
(2.17441 -0.693985 0)
(2.18015 -0.677245 0)
(2.16839 -0.622488 0)
(2.14866 -0.49352 0)
(2.10991 -0.331553 0)
(2.05959 -0.178142 0)
(2.02068 -0.0863472 0)
(1.97619 -0.0237024 0)
(1.99282 0.0150579 0)
(2.00289 0.0459552 0)
(2.02637 0.0596892 0)
(2.05489 0.0545574 0)
(2.07794 0.0445943 0)
(2.10391 0.035173 0)
(2.13056 0.0257135 0)
(2.15497 0.0174989 0)
(2.17351 0.0129512 0)
(2.19081 0.017949 0)
(2.21155 0.0341265 0)
(2.22793 0.0523423 0)
(2.23856 0.0617839 0)
(2.24858 0.0603721 0)
(2.26563 0.05396 0)
(2.28364 0.044556 0)
(2.30232 0.0371353 0)
(2.32361 0.0320491 0)
(2.34629 0.0274768 0)
(2.36834 0.0236119 0)
(2.38746 0.0229531 0)
(2.40058 0.0301791 0)
(2.40695 0.0457172 0)
(2.41442 0.0594713 0)
(2.42928 0.0641219 0)
(2.44939 0.0622714 0)
(2.47121 0.0570283 0)
(2.49267 0.0484604 0)
(2.51179 0.0382347 0)
(2.52965 0.0279646 0)
(2.54772 0.0212368 0)
(2.56444 0.022901 0)
(2.57934 0.0350815 0)
(2.59234 0.050291 0)
(2.60705 0.0586896 0)
(2.62405 0.062913 0)
(2.64078 0.0646768 0)
(2.65696 0.0615941 0)
(2.67053 0.0545773 0)
(2.69048 0.0498688 0)
(1.62068 0.992113 0)
(1.9314 0.857936 0)
(2.12189 0.754977 0)
(2.31216 0.583409 0)
(2.51012 0.296869 0)
(2.60278 0.113304 0)
(2.6214 0.0774509 0)
(2.68812 -0.0702167 0)
(2.73689 -0.279845 0)
(2.74209 -0.328501 0)
(2.78576 -0.412237 0)
(2.80689 -0.488065 0)
(2.81488 -0.508024 0)
(2.79848 -0.4834 0)
(2.79246 -0.47237 0)
(2.76347 -0.421209 0)
(2.72819 -0.342967 0)
(2.70758 -0.303331 0)
(2.69415 -0.277049 0)
(2.65134 -0.18432 0)
(2.62927 -0.0995352 0)
(2.62445 -0.0705773 0)
(2.61107 -0.0480689 0)
(2.59207 -0.0197271 0)
(2.57784 -0.0102158 0)
(2.57376 -0.0073074 0)
(2.58117 -0.0011635 0)
(2.58947 0.00911496 0)
(2.5928 0.0113771 0)
(2.59499 0.00538933 0)
(2.59686 -0.00433558 0)
(2.60057 -0.00489456 0)
(2.59989 -0.00403358 0)
(2.59971 -0.00858303 0)
(2.59878 -0.0135009 0)
(2.59456 -0.0124194 0)
(2.59093 -0.0107497 0)
(2.5899 -0.00839592 0)
(2.59295 -0.00310079 0)
(2.5997 0.00623292 0)
(2.5995 -0.000157952 0)
(2.58872 -0.0347008 0)
(2.51927 -0.149311 0)
(2.36631 -0.395242 0)
(2.19961 -0.644139 0)
(2.18305 -0.642164 0)
(2.1783 -0.646383 0)
(2.18213 -0.654786 0)
(2.1854 -0.681268 0)
(2.19011 -0.693462 0)
(2.20735 -0.688153 0)
(2.21942 -0.656775 0)
(2.22346 -0.597777 0)
(2.19955 -0.485811 0)
(2.14941 -0.336268 0)
(2.08688 -0.190981 0)
(2.08251 -0.0999198 0)
(2.06656 -0.0209145 0)
(2.08451 0.0263979 0)
(2.09416 0.0539318 0)
(2.1025 0.0614023 0)
(2.1216 0.0628435 0)
(2.14628 0.06191 0)
(2.17624 0.0535581 0)
(2.20165 0.0388465 0)
(2.21929 0.0275844 0)
(2.23791 0.0279841 0)
(2.25634 0.0364816 0)
(2.27164 0.0482402 0)
(2.27824 0.0608616 0)
(2.28577 0.0675926 0)
(2.30128 0.0664661 0)
(2.3187 0.0614506 0)
(2.33812 0.0544776 0)
(2.36007 0.0487444 0)
(2.38314 0.0454894 0)
(2.40581 0.043964 0)
(2.42578 0.0457784 0)
(2.43794 0.056287 0)
(2.43876 0.0723899 0)
(2.44249 0.0779851 0)
(2.45834 0.0726057 0)
(2.47741 0.0637507 0)
(2.49616 0.0529356 0)
(2.51502 0.0464463 0)
(2.53442 0.0455003 0)
(2.55395 0.0456562 0)
(2.57392 0.0456879 0)
(2.59328 0.0492064 0)
(2.60792 0.0585498 0)
(2.61611 0.0678765 0)
(2.6255 0.0719009 0)
(2.63928 0.0699486 0)
(2.65484 0.0648452 0)
(2.66973 0.0665867 0)
(2.69255 0.0695627 0)
(1.58181 0.936434 0)
(1.79993 0.866577 0)
(1.97928 0.787801 0)
(2.21085 0.600954 0)
(2.34859 0.441202 0)
(2.41261 0.350327 0)
(2.5148 0.188133 0)
(2.59523 0.0600264 0)
(2.64025 -0.0505658 0)
(2.6591 -0.111967 0)
(2.69241 -0.158404 0)
(2.73253 -0.256959 0)
(2.72322 -0.286581 0)
(2.73333 -0.360864 0)
(2.7552 -0.405935 0)
(2.75976 -0.401935 0)
(2.7632 -0.398059 0)
(2.76017 -0.414248 0)
(2.75449 -0.402808 0)
(2.7298 -0.333477 0)
(2.70587 -0.235816 0)
(2.6959 -0.187769 0)
(2.6683 -0.145452 0)
(2.63145 -0.0794681 0)
(2.61881 -0.0640207 0)
(2.61331 -0.06653 0)
(2.6141 -0.0514496 0)
(2.612 -0.0201113 0)
(2.61749 0.00136482 0)
(2.61984 0.00636157 0)
(2.62218 0.00367998 0)
(2.62339 0.00383892 0)
(2.6233 0.00931445 0)
(2.62442 0.00865842 0)
(2.62659 0.00412527 0)
(2.62717 -0.000515748 0)
(2.6226 -0.00580876 0)
(2.62267 -0.00719845 0)
(2.62297 -0.00848029 0)
(2.62087 -0.0187316 0)
(2.59939 -0.0667083 0)
(2.52036 -0.20928 0)
(2.30062 -0.488468 0)
(2.22964 -0.593252 0)
(2.16852 -0.679491 0)
(2.15443 -0.687998 0)
(2.16522 -0.68113 0)
(2.19144 -0.667092 0)
(2.20582 -0.655941 0)
(2.21681 -0.657308 0)
(2.22888 -0.656967 0)
(2.24328 -0.651882 0)
(2.26747 -0.646437 0)
(2.28433 -0.632976 0)
(2.28004 -0.590523 0)
(2.24642 -0.489152 0)
(2.2114 -0.351564 0)
(2.1537 -0.181398 0)
(2.16481 -0.0875877 0)
(2.13698 0.00571121 0)
(2.14099 0.0312649 0)
(2.14639 0.0420859 0)
(2.15996 0.0562258 0)
(2.18188 0.0633203 0)
(2.2022 0.0730526 0)
(2.22562 0.0759732 0)
(2.2488 0.0724102 0)
(2.27276 0.0649178 0)
(2.29182 0.0645532 0)
(2.30129 0.07746 0)
(2.30019 0.0911722 0)
(2.3054 0.0930375 0)
(2.32467 0.0890277 0)
(2.34518 0.0827557 0)
(2.37088 0.0732745 0)
(2.39701 0.0664932 0)
(2.41729 0.0634751 0)
(2.43611 0.0632038 0)
(2.45461 0.0666501 0)
(2.46599 0.0786978 0)
(2.46329 0.0953231 0)
(2.46173 0.0979578 0)
(2.47743 0.0866378 0)
(2.49788 0.0764307 0)
(2.51752 0.0712873 0)
(2.5381 0.0683233 0)
(2.55852 0.0681125 0)
(2.57838 0.0688377 0)
(2.59936 0.0710504 0)
(2.61774 0.0780084 0)
(2.62493 0.0894064 0)
(2.62515 0.0951093 0)
(2.63134 0.0934273 0)
(2.64801 0.0884304 0)
(2.66586 0.0887771 0)
(2.69399 0.092076 0)
(1.54517 0.909842 0)
(1.71871 0.867377 0)
(1.90602 0.776711 0)
(2.0785 0.654907 0)
(2.19311 0.55853 0)