/*--------------------------------*- C++ -*----------------------------------*\
  =========                 |
  \\      /  F ield         | OpenFOAM: The Open Source CFD Toolbox
   \\    /   O peration     | Website:  https://openfoam.org
    \\  /    A nd           | Version:  7
     \\/     M anipulation  |
\*---------------------------------------------------------------------------*/
FoamFile
{
    version     2.0;
    format      ascii;
    class       volScalarField;
    location    "1";
    object      p;
}
// * * * * * * * * * * * * * * * * * * * * * * * * * * * * * * * * * * * * * //

dimensions      [1 -1 -2 0 0 0 0];

internalField   nonuniform List<scalar> 
4032
(
1
1
1
1
1
1
1
1
1
1
1
1
1
4.89614
10.7941
11.0617
11.1944
11.3695
11.5494
11.7146
11.861
11.9614
12.0434
12.1059
1
1
1
1
1
1
1
1
1
1
1
1
1
4.72831
10.6804
11.0348
11.1681
11.3388
11.5111
11.6704
11.8108
11.9065
11.9833
12.0435
1
1
1
1
1
1
1
1
1
1
1
1
1
4.37105
10.527
10.9856
11.1177
11.2823
11.4441
11.5983
11.7345
11.8313
11.9039
11.9642
1
1
1
1
1
1
1
1
1
1
1
1
1
3.84519
10.2766
10.923
11.0464
11.1976
11.342
11.496
11.6331
11.7311
11.7906
11.8337
1
1
1
1
1
1
1
1
1
1
1
1
1
3.21933
9.89995
10.8683
10.9797
11.093
11.2078
11.348
11.4652
11.5526
11.6025
11.6596
1
1
1
1
1
1
1
1
1
1
1
1
1
2.46719
9.28823
10.7963
10.8618
10.9418
11.0295
11.1564
11.2631
11.3336
11.3431
11.2917
1
1
1
1
1
1
1
1
1
1
1
1
1
1.71966
8.47383
10.7367
10.7341
10.8056
10.8642
10.9323
10.9613
10.9173
10.8258
10.7524
1
1
1
1
1
1
1
1
1
1
1
1
1
1.10942
7.22857
10.5661
10.5147
10.5625
10.5733
10.5947
10.5736
10.4989
10.3561
10.3143
1
1
1
1
1
1
1
1
1
1
1
1
1
1.00168
5.61364
10.1619
10.3476
10.393
10.344
10.3
10.1988
9.94185
9.1311
7.22432
1
1
1
1
1
1
1
1
1
1
1
1
1
1
3.79673
9.528
10.1952
10.2089
10.1126
9.98952
9.77078
9.30178
8.44704
6.33934
1
1
1
1
1
1
1
1
1
1
1
1
1
1
2.06984
8.61456
10.1297
9.9913
9.82337
9.60693
9.31443
8.75325
7.89804
5.98334
1
1
1
1
1
1
1
1
1
1
1
1
1
1
1.1018
6.87996
9.76625
9.63607
9.46893
9.20951
8.87555
8.34453
7.40875
5.87907
1
1
1
1
1
1
1
1
1
1
1
1
1
1
1.00093
4.29599
9.05974
9.43286
9.30007
9.00768
8.59987
8.03382
7.10193
5.93605
1
1
1
1
1
1
1
1
1
1
1
1
1
1
0.999998
1.88351
8.02243
9.31843
9.08386
8.79136
8.35962
7.76538
6.93251
5.99636
1
1
1
1
1
1
1
1
1
1
1
1
1
1
1
1.05978
5.72667
8.86339
8.81929
8.56433
8.149
7.57785
6.85133
6.06924
1
1
1
1
1
1
1
1
1
1
1
1
1
1
1
1.00026
2.63637
8.03525
8.7486
8.41273
7.98976
7.4386
6.7818
6.10124
1
1
1
1
1
1
1
1
1
1
1
1
1
1
1
1
1.17176
5.98976
8.504
8.21182
7.82505
7.32368
6.73254
6.12726
1
1
1
1
1
1
1
1
1
1
1
1
1
1
1
1
1.00218
2.71772
7.56661
8.17616
7.75386
7.27705
6.734
6.1814
1
1
1
1
1
1
1
1
1
1
1
1
1
1
1
1
1
1.18554
5.52279
7.97253
7.62286
7.17025
6.68893
6.19131
1
1
1
1
1
1
1
1
1
1
1
1
1
1
1
1
1
1.00265
2.30779
6.83932
7.6003
7.15337
6.71645
6.24686
1
1
1
1
1
1
1
1
1
1
1
1
1
1
1
1
1
1.00001
1.11326
4.35681
7.30423
7.11179
6.69914
6.26689
1
1
1
1
1
1
1
1
1
1
1
1
1
1
1
1
1
1
1.00136
1.7238
5.77542
7.21363
6.75621
6.35272
1
1
1
1
1
1
1
1
1
1
1
1
1
1
1
1
1
1
1
1.03677
2.82845
6.33434
6.81453
6.38845
1
1
1
1
1
1
1
1
1
1
1
1
1
1
1
1
1
1
1
1.00032
1.21625
4.04787
6.42084
6.43975
1
1
1
1
1
1
1
1
1
1
1
1
1
1
1
1
1
1
1
1
1.00473
1.64335
4.8002
6.35676
1
1
1
1
1
1
1
1
1
1
1
1
1
1
1
1
1
1
1
1
1.00002
1.03095
2.16027
5.21778
1
1
1
1
1
1
1
1
1
1
1
1
1
1
1
1
1
1
1
1
1
1.00028
1.09425
2.65782
1
1
1
1
1
1
1
1
1
1
1
1
1
1
1
1
1
1
1
1
1
1
1.00148
1.19359
1
1
1
1
1
1
1
1
1
1
1
1
1
1
1
1
1
1
1
1
1
1
1
1.00451
1
1
1
1
1
1
1
1
1
1
1
1
1
1
1
1
1
1
1
1
1
1
1
1.00002
1
1
1
1
1
1
1
1
1
1
1
1
1
1
1
1
1
1
1
1
1
1
1
1
1
1
1
1
1
1
1
1
1
1
1
1
1
1
1
1
1
1
1
1
1
1
1
1
1
1
1
1
1
1
1
1
1
1
1
1
1
1
1
1
1
1
1
1
1
1
1
1
1
1
1
1
1
1
1
1
1
1
1
1
1
1
1
1
1
1
1
1
1
1
1
1
1
1
1
1
1
1
1
1
1
1
1
1
1
1
1
1
1
1
1
1
1
1
1
1
1
1
1
1
1
1
1
1
1
1
1
1
1
1
1
1
1
1
1
1
1
1
1
1
1
1
1
1
1
1
1
1
1
1
1
1
1
1
1
1
1
1
1
1
1
1
1
1
1
1
1
1
1
1
1
1
1
1
1
1
1
1
1
1
1
1
1
1
1
1
1
1
1
1
1
1
1
1
1
1
1
1
1
1
1
1
1
1
1
1
1
1
1
1
1
1
1
1
1
1
1
1
1
1
1
1
1
1
1
1
1
1
1
1
1
1
1
1
1
1
1.61253
0.489348
0.1972
0.142831
0.161099
0.24456
0.355393
0.453266
0.602807
0.761975
0.904183
0.980021
1.02895
1.08804
1.13278
1.13252
1.136
1.15023
1.16117
1.16177
1.16029
1.15859
1.14424
1.11702
1.10103
1.09561
1.09311
1.09102
1.08884
1.08915
1.08575
1.08114
1.07475
1.05976
1.0465
1.04209
1.03806
1.0319
1.02302
1.01424
1.00471
0.994392
0.980171
0.958464
0.945031
0.941657
0.939835
0.939005
0.939579
0.94066
0.939134
0.933526
0.923565
0.909707
0.895998
0.884826
0.875528
0.868314
0.861694
0.85288
0.840282
0.827194
0.823446
0.823016
0.822656
0.822945
0.823665
0.824906
0.82581
0.823714
0.824426
0.831899
0.843233
0.859137
0.872461
0.878172
0.88015
0.877479
0.859103
0.849882
0.855569
0.865261
0.879898
0.901571
0.914579
0.915424
0.91451
0.901834
0.88543
0.884885
0.886318
0.887713
0.89312
0.907929
0.939957
0.940753
2.74485
1.45751
1.00907
0.698166
0.534421
0.541986
0.527333
0.495653
0.496543
0.530781
0.583135
0.673761
0.770869
0.858419
0.94265
1.0002
1.03382
1.0624
1.09482
1.10641
1.11138
1.12643
1.12537
1.11075
1.09893
1.09755
1.09793
1.09658
1.093
1.09196
1.0847
1.07957
1.07444
1.06344
1.05087
1.04245
1.03677
1.02899
1.01753
1.00487
0.993875
0.984825
0.975979
0.963613
0.954293
0.950189
0.946818
0.943721
0.940485
0.936218
0.929845
0.920688
0.907841
0.892843
0.885307
0.880222
0.874312
0.868213
0.861956
0.855012
0.847243
0.837328
0.828406
0.826118
0.826368
0.827953
0.830863
0.833395
0.835763
0.836464
0.835473
0.838796
0.846023
0.856565
0.864374
0.868006
0.870875
0.871265
0.866683
0.861557
0.86455
0.871238
0.881303
0.895664
0.906705
0.911555
0.912319
0.908272
0.89828
0.895542
0.89529
0.894926
0.899051
0.910978
0.928737
0.933528
3.69329
2.3769
1.69852
1.27531
0.991557
0.849106
0.758056
0.63829
0.551014
0.560135
0.57204
0.604353
0.667147
0.733283
0.802371
0.875688
0.931527
0.977901
1.03238
1.07397
1.09724
1.12463
1.14863
1.14445
1.13181
1.13218
1.13078
1.12092
1.10337
1.09204
1.08296
1.07169
1.06374
1.05432
1.04425
1.03876
1.03417
1.03225
1.02874
1.02036
1.00927
0.995882
0.977629
0.958858
0.952152
0.949839
0.946708
0.944189
0.943343
0.942368
0.936154
0.922
0.901585
0.883442
0.876476
0.872378
0.867164
0.861266
0.855716
0.850885
0.846599
0.839456
0.827524
0.818116
0.816557
0.818482
0.822722
0.828523
0.833572
0.839089
0.846756
0.855729
0.861627
0.862596
0.858502
0.85295
0.850756
0.85181
0.856944
0.864861
0.875017
0.88576
0.891949
0.894688
0.895752
0.895785
0.895879
0.897757
0.900434
0.903945
0.908128
0.911731
0.916038
0.920498
0.924495
0.922704
4.24829
3.15623
2.41916
1.85213
1.45881
1.26232
1.09892
0.936891
0.824557
0.787809
0.734079
0.661975
0.659204
0.670234
0.695224
0.731748
0.790692
0.853268
0.911952
0.961065
0.995205
1.02522
1.07026
1.09308
1.10704
1.1295
1.14333
1.14019
1.12894
1.11428
1.09904
1.07935
1.06419
1.0512
1.03972
1.03301
1.02429
1.01919
1.01936
1.01691
1.01075
1.00056
0.985546
0.966253
0.952088
0.944514
0.93936
0.937194
0.938583
0.941538
0.939328
0.924894
0.899272
0.884942
0.881025
0.877215
0.872407
0.867018
0.861532
0.856661
0.852624
0.847717
0.838493
0.826687
0.82017
0.819959
0.822125
0.825191
0.829333
0.835636
0.844809
0.854205
0.859944
0.858504
0.854131
0.854194
0.856604
0.857932
0.858988
0.865353
0.876058
0.887238
0.89342
0.895629
0.898016
0.897816
0.895567
0.895199
0.896339
0.898579
0.903312
0.909703
0.915755
0.921128
0.922423
0.918949
4.68434
3.69944
3.00018
2.40936
1.95327
1.68957
1.45636
1.21607
1.07679
0.99674
0.909591
0.804567
0.756011
0.740718
0.710418
0.711007
0.724279
0.746223
0.777317
0.816454
0.866209
0.911921
0.972427
1.01214
1.03975
1.06312
1.0845
1.09027
1.08607
1.08367
1.08807
1.09432
1.09141
1.08341
1.07117
1.05529
1.03375
1.01385
1.00468
0.999096
0.992695
0.985458
0.977452
0.969651
0.961898
0.95571
0.952661
0.950227
0.947739
0.945431
0.938371
0.920929
0.893196
0.879205
0.876263
0.87375
0.871366
0.870445
0.866796
0.862673
0.860109
0.857568
0.849909
0.836489
0.826722
0.8258
0.8284
0.83163
0.836516
0.843138
0.848574
0.848268
0.840119
0.832883
0.834276
0.840728
0.851783
0.862548
0.869895
0.876625
0.881401
0.880093
0.876954
0.877646
0.879651
0.884219
0.891915
0.898339
0.899508
0.898669
0.899054
0.900898
0.902525
0.905435
0.907024
0.91483
4.98139
4.13538
3.47392
2.87274
2.4014
2.073
1.80794
1.55216
1.38009
1.251
1.12419
0.998261
0.937506
0.900985
0.842592
0.77783
0.770418
0.765847
0.741649
0.734929
0.747142
0.777368
0.826137
0.884083
0.934011
0.974042
1.01205
1.03901
1.04079
1.04372
1.05255
1.06569
1.06959
1.07006
1.0698
1.06538
1.05117
1.02911
1.00964
0.997039
0.985747
0.974566
0.967716
0.96207
0.957422
0.954538
0.95296
0.950233
0.945589
0.941426
0.933298
0.919792
0.900941
0.883945
0.876747
0.873495
0.871136
0.871547
0.86977
0.866482
0.865489
0.864189
0.85456
0.836704
0.825296
0.82472
0.827411
0.831103
0.836111
0.839876
0.837665
0.827297
0.81671
0.815866
0.821305
0.831989
0.850535
0.86729
0.876126
0.882197
0.884127
0.87433
0.865245
0.86504
0.866536
0.872958
0.884975
0.893942
0.896435
0.895288
0.894846
0.894745
0.893227
0.891595
0.891061
0.903359
5.22526
4.46565
3.84419
3.26721
2.80273
2.45554
2.1315
1.82186
1.64767
1.50649
1.36833
1.2066
1.1198
1.05263
0.974446
0.877075
0.834149
0.813714
0.777105
0.744642
0.746474
0.760171
0.770977
0.781166
0.799216
0.830117
0.871073
0.916906
0.954444
0.975419
0.993772
1.02794
1.03952
1.04511
1.05297
1.05319
1.04526
1.03097
1.01958
1.01047
1.00093
0.986962
0.974196
0.964384
0.956587
0.94994
0.942102
0.934488
0.928925
0.925431
0.923184
0.919084
0.913448
0.904112
0.88893
0.8798
0.875267
0.87151
0.867354
0.862679
0.858706
0.854164
0.844379
0.830571
0.825578
0.827822
0.831408
0.833336
0.831632
0.825823
0.814905
0.805097
0.805785
0.812434
0.824374
0.845635
0.872243
0.888999
0.898182
0.905789
0.90764
0.900198
0.901977
0.906068
0.908508
0.916059
0.922249
0.920379
0.917223
0.913046
0.907474
0.903557
0.90068
0.897715
0.896302
0.906372
5.38039
4.71774
4.13906
3.59339
3.13931
2.78341
2.44308
2.12273
1.90833
1.73481
1.57565
1.41448
1.31329
1.23729
1.15581
1.04177
0.965919
0.935432
0.894975
0.832456
0.804251
0.805463
0.792702
0.770813
0.757051
0.755216
0.763534
0.780848
0.808028
0.851314
0.898024
0.942153
0.980179
0.999373
1.01578
1.03131
1.03194
1.0226
1.00627
1.00494
1.0046
0.998567
0.986723
0.976955
0.967446
0.955216
0.937002
0.915017
0.910075
0.910513
0.911919
0.916515
0.918693
0.916527
0.906915
0.890633
0.879563
0.871168
0.862918
0.854947
0.847396
0.840722
0.833746
0.829003
0.831316
0.833442
0.8338
0.833266
0.828364
0.818035
0.820505
0.831088
0.851446
0.882253
0.921482
0.966427
1.00471
1.0291
1.05073
1.07077
1.08708
1.1042
1.12202
1.1419
1.15944
1.1616
1.1516
1.13122
1.10683
1.08364
1.06111
1.03797
1.02001
1.00523
0.990702
0.973274
5.49697
4.92142
4.39014
3.86088
3.4229
3.07503
2.7144
2.38036
2.16103
1.97477
1.7945
1.62308
1.4907
1.39057
1.31274
1.21139
1.11856
1.06912
1.01605
0.941182
0.878923
0.862751
0.835847
0.795341
0.76395
0.757152
0.760124
0.760751
0.757408
0.763429
0.790715
0.822321
0.853181
0.886117
0.916477
0.952261
0.995736
1.0068
0.995621
0.996377
0.999554
0.997447
0.987797
0.980726
0.974709
0.964095
0.944857
0.918123
0.906262
0.904362
0.90482
0.910014
0.916462
0.916646
0.912487
0.898489
0.879986
0.86864
0.860356
0.851878
0.842809
0.835091
0.83569
0.840684
0.847929
0.853698
0.855824
0.862102
0.881216
0.919846
0.975599
1.04505
1.12561
1.21553
1.29831
1.36195
1.39971
1.41728
1.4256
1.43247
1.43907
1.44162
1.44493
1.46424
1.50185
1.52116
1.51798
1.50029
1.46946
1.43625
1.39949
1.35763
1.3316
1.31393
1.29655
1.24765
5.60352
5.07374
4.58181
4.09648
3.67027
3.3131
2.96737
2.65362
2.40309
2.18166
1.9819
1.83772
1.69823
1.56624
1.47337
1.3641
1.24933
1.19237
1.14787
1.07988
0.999716
0.970819
0.941384
0.893278
0.826237
0.796653
0.797672
0.786817
0.762644
0.753484
0.757023
0.756766
0.751402
0.757385
0.780853
0.82213
0.878055
0.934998
0.961823
0.97803
0.983832
0.982706
0.974677
0.970463
0.966975
0.960472
0.949941
0.936199
0.922537
0.911092
0.908094
0.908163
0.908586
0.906485
0.903928
0.895238
0.876739
0.865135
0.861473
0.857586
0.855666
0.86222
0.883076
0.923011
0.974407
1.02759
1.08191
1.14156
1.2109
1.28829
1.36736
1.4431
1.51567
1.57785
1.6354
1.68507
1.69739
1.6954
1.68756
1.66248
1.63788
1.62414
1.61188
1.61354
1.6318
1.66019
1.68175
1.68159
1.66895
1.64832
1.61362
1.58102
1.56749
1.5616
1.56255
1.53101
5.67345
5.19068
4.73584
4.28137
3.88012
3.52667
3.17518
2.87915
2.63332
2.39806
2.16534
2.01719
1.8777
1.72791
1.62771
1.53605
1.41083
1.31758
1.2637
1.1931
1.10013
1.06108
1.03868
0.996819
0.921176
0.8625
0.849411
0.826813
0.788928
0.761576
0.760877
0.761971
0.747371
0.727795
0.725659
0.733849
0.756568
0.798412
0.857031
0.895704
0.925308
0.939483
0.935594
0.935724
0.939845
0.943913
0.946841
0.944803
0.93657
0.928083
0.91989
0.913146
0.906234
0.898411
0.895917
0.89088
0.877832
0.875661
0.88443
0.910391
0.961575
1.04648
1.15948
1.28138
1.38743
1.47441
1.54466
1.59626
1.63251
1.64953
1.65902
1.67125
1.68362
1.69424
1.71073
1.73362
1.7361
1.73176
1.72485
1.69987
1.66881
1.65388
1.6421
1.63108
1.62761
1.64047
1.66208
1.67991
1.68083
1.66656
1.64315
1.62496
1.61538
1.61158
1.6198
1.61158
5.76795
5.30866
4.87148
4.45566
4.07305
3.71191
3.36901
3.08477
2.83354
2.5826
2.34892
2.20318
2.06365
1.89298
1.75166
1.66173
1.54771
1.44914
1.39264
1.32948
1.22382
1.15119
1.12836
1.09147
1.0254
0.959228
0.936368
0.91064
0.86696
0.816512
0.808399
0.802689
0.778203
0.740961
0.723846
0.722058
0.720535
0.720006
0.732832
0.764089
0.804149
0.845655
0.882219
0.892824
0.902176
0.919809
0.931376
0.929292
0.923886
0.924908
0.923714
0.92089
0.915944
0.910275
0.90895
0.923974
0.963531
1.03135
1.13015
1.25563
1.39312
1.5207
1.61568
1.68059
1.73056
1.76321
1.79824
1.81148
1.8014
1.77549
1.73773
1.70614
1.68315
1.67051
1.66545
1.67306
1.68808
1.69433
1.69059
1.6693
1.64055
1.6228
1.61315
1.59863
1.57588
1.56463
1.57664
1.61525
1.63437
1.62112
1.60228
1.58881
1.58165
1.58136
1.5805
1.57841
5.8248
5.39587
4.97735
4.58467
4.22361
3.87276
3.5426
3.26403
3.01618
2.76735
2.53866
2.37772
2.2232
2.04227
1.90861
1.81282
1.6898
1.55504
1.49661
1.44051
1.35352
1.27181
1.2312
1.18661
1.11344
1.03208
1.0048
0.981652
0.941135
0.882687
0.863005
0.852921
0.825022
0.774724
0.735132
0.728923
0.726926
0.715466
0.712542
0.71707
0.732228
0.746198
0.76186
0.788904
0.817642
0.856562
0.893461
0.894457
0.898859
0.909778
0.920589
0.929954
0.947399
0.99086
1.09305
1.25086
1.41621
1.55782
1.68237
1.76999
1.83149
1.84021
1.83372
1.82384
1.82021
1.83246
1.84232
1.83155
1.80594
1.76781
1.71362
1.66185
1.62822
1.60404
1.59608
1.60248
1.61811
1.64152
1.64488
1.62561
1.59379
1.56802
1.55672
1.54314
1.51531
1.49871
1.50459
1.53956
1.5753
1.56976
1.54996
1.53525
1.5237
1.51894
1.51418
1.52004
5.93352
5.51441
5.10893
4.73608
4.38628
4.04326
3.72424
3.44497
3.19112
2.93064
2.72388
2.56023
2.39478
2.19704
2.04322
1.94466
1.82332
1.69364
1.62021
1.55643
1.45667
1.355
1.3196
1.28272
1.21674
1.12983
1.08914
1.0629
1.02202
0.955366
0.927113
0.921489
0.898829
0.847702
0.793636
0.783255
0.775634
0.752484
0.722495
0.720872
0.723522
0.712654
0.697388
0.699959
0.715295
0.748632
0.792944
0.840743
0.882179
0.908261
0.955121
1.05391
1.21288
1.4102
1.63969
1.81901
1.91308
1.96259
1.99525
1.98803
1.95581
1.89961
1.86226
1.83541
1.82453
1.82945
1.8167
1.79038
1.75292
1.70123
1.64378
1.5999
1.56957
1.54649
1.53657
1.54761
1.58588
1.59512
1.57621
1.55287
1.53084
1.50155
1.48401
1.47963
1.4648
1.45021
1.46009
1.50037
1.52885
1.51768
1.4967
1.47806
1.46102
1.45267
1.45177
1.47435
5.97971
5.58989
5.21527
4.85627
4.50445
4.17709
3.89133
3.62965
3.37955
3.10813
2.88618
2.71874
2.55908
2.36603
2.21852
2.0938
1.95981
1.80496
1.72878
1.67764
1.58839
1.4663
1.40237
1.35783
1.29618
1.21839
1.18006
1.15427
1.11245
1.0392
0.988015
0.976467
0.954329
0.907232
0.850865
0.837581
0.828164
0.80443
0.764622
0.740504
0.732204
0.713731
0.692232
0.689486
0.691524
0.69922
0.716519
0.755695
0.831752
0.987056
1.22309
1.51262
1.73597
1.8903
1.9954
2.04163
2.0719
2.09173
2.08272
2.04207
1.9595
1.88086
1.83717
1.80874
1.78203
1.74584
1.7198
1.69417
1.6508
1.60513
1.56851
1.54885
1.53515
1.51693
1.50698
1.50933
1.51549
1.50797
1.48817
1.47469
1.46301
1.44212
1.42803
1.42917
1.43128
1.42796
1.43188
1.43849
1.45045
1.44799
1.42905
1.41332
1.4068
1.40432
1.41506
1.45861
6.04892
5.66318
5.30831
4.96232
4.63577
4.33151
4.02365
3.74379
3.51629
3.294
3.05955
2.85551
2.68498
2.50828
2.35621
2.23247
2.1073
1.94848
1.84073
1.77514
1.68914
1.57764
1.50792
1.45803
1.39263
1.29754
1.25312
1.23363
1.19552
1.12848
1.06677
1.0472
1.02438
0.979291
0.916212
0.898496
0.891346
0.869968
0.829243
0.794507
0.77675
0.754515
0.722716
0.70892
0.713155
0.734717
0.806487
0.969094
1.19178
1.42977
1.66514
1.80378
1.88489
1.93001
1.94307
1.95349
1.9786
2.00192
1.99745
1.95404
1.89534
1.83702
1.80751
1.7836
1.73836
1.68977
1.65893
1.6267
1.57744
1.5366
1.52358
1.51649
1.50094
1.47238
1.45545
1.44889
1.44399
1.43723
1.42338
1.41172
1.40644
1.39473
1.38064
1.38446
1.40141
1.40388
1.3946
1.38206
1.3743
1.38134
1.38088
1.36947
1.368
1.38485
1.41878
1.4171
6.18997
5.79004
5.41482
5.07524
4.74411
4.45027
4.17793
3.90567
3.65292
3.44031
3.21722
2.99901
2.81504
2.65363
2.48778
2.34659
2.23414
2.0961
1.97769
1.89166
1.79536
1.66508
1.58609
1.54942
1.49499
1.40433
1.34241
1.31112
1.26477
1.19514
1.12999
1.11351
1.09608
1.05567
0.990803
0.963318
0.95054
0.925194
0.877496
0.836071
0.817679
0.7992
0.772829
0.788134
0.859556
1.02405
1.27032
1.50662
1.64788
1.73901
1.7938
1.80075
1.78576
1.76427
1.74893
1.73833
1.72207
1.72806
1.75127
1.74314
1.71612
1.73103
1.74672
1.72453
1.66888
1.63359
1.60734
1.57469
1.52481
1.50155
1.49174
1.4838
1.47012
1.44305
1.4076
1.39317
1.3843
1.37367
1.36414
1.36836
1.36895
1.35883
1.34483
1.34026
1.36083
1.36932
1.35105
1.33284
1.32303
1.32487
1.33612
1.35053
1.36974
1.38375
1.37589
1.35644
6.14765
5.95074
5.56343
5.20452
4.89213
4.60271
4.30742
4.00705
3.77489
3.59413
3.39101
3.14725
2.93313
2.78674
2.62659
2.47218
2.34928
2.22243
2.09252
1.999
1.91281
1.79628
1.69013
1.63964
1.58223
1.49039
1.42744
1.39505
1.35104
1.27769
1.19447
1.1738
1.15893
1.12287
1.0637
1.03291
1.01631
0.987951
0.93741
0.89311
0.884722
0.919268
1.01682
1.21113
1.47149
1.7141
1.91022
1.92928
1.88235
1.85318
1.82617
1.785
1.73645
1.6772
1.62503
1.56269
1.50569
1.48585
1.48896
1.51818
1.52535
1.54584
1.58767
1.58265
1.56306
1.55485
1.55261
1.53391
1.51226
1.49972
1.48174
1.46136
1.44291
1.41181
1.36674
1.34459
1.33134
1.32006
1.31691
1.33164
1.33141
1.32043
1.31032
1.30016
1.29513
1.30189
1.30501
1.29486
1.28683
1.28836
1.31077
1.33451
1.33135
1.32486
1.3179
1.30489
5.37817
5.93285
5.73252
5.35441
5.01587
4.73903
4.47089
4.19077
3.90933
3.67959
3.50063
3.29917
3.0978
2.93266
2.76187
2.58044
2.45348
2.35258
2.22095
2.09864
2.01017
1.90535
1.79877
1.74269
1.68861
1.59666
1.50285
1.46528
1.42385
1.35622
1.27322
1.2478
1.22838
1.18993
1.1261
1.091
1.07232
1.05201
1.02088
1.04484
1.15416
1.40538
1.71745
1.93518
2.11474
2.20838
2.18673
2.09091
1.97385
1.89393
1.81845
1.73891
1.66588
1.60913
1.56091
1.50146
1.44325
1.41216
1.39228
1.38547
1.38356
1.37369
1.38584
1.403
1.40853
1.42058
1.44559
1.4697
1.48798
1.48407
1.46313
1.43705
1.39919
1.35023
1.32031
1.30645
1.29354
1.28288
1.28512
1.29705
1.2893
1.27684
1.26331
1.2486
1.23664
1.23189
1.24013
1.25357
1.26509
1.28315
1.29263
1.28658
1.2783
1.26899
1.26309
1.25951
3.04868
5.37241
5.74478
5.54687
5.1855
4.87036
4.59386
4.33037
4.07539
3.84077
3.62812
3.40111
3.21492
3.06719
2.91363
2.73542
2.562
2.45532
2.33325
2.21027
2.13072
2.04063
1.90121
1.81641
1.76967
1.69565
1.60494
1.55533
1.50901
1.43449
1.33979
1.315
1.29344
1.25662
1.19675
1.16222
1.15194
1.19192
1.34121
1.60654
1.96895
2.27941
2.37315
2.41912
2.41831
2.36674
2.26001
2.12691
2.00973
1.9064
1.81424
1.73106
1.66462
1.61248
1.558
1.49657
1.43943
1.39457
1.36475
1.34723
1.33682
1.32146
1.29694
1.28256
1.27311
1.27547
1.2986
1.3518
1.4006
1.41015
1.39875
1.36488
1.31146
1.28613
1.28101
1.27402
1.26362
1.25619
1.26958
1.27832
1.26596
1.24227
1.2175
1.20008
1.18691
1.17551
1.17277
1.18428
1.20652
1.23101
1.24264
1.23812
1.22865
1.21931
1.21456
1.21688
1.30722
3.28445
5.28228
5.575
5.39271
5.0426
4.72405
4.47574
4.22774
3.97128
3.74533
3.5517
3.37172
3.19101
3.01665
2.84233
2.70725
2.59932
2.46586
2.29869
2.21248
2.15433
2.04751
1.93456
1.86303
1.77571
1.67035
1.62583
1.59266
1.52926
1.43579
1.39006
1.35806
1.32193
1.30077
1.3502
1.54178
1.86734
2.25493
2.55243
2.74263
2.70534
2.63822
2.58307
2.49026
2.37135
2.23634
2.11623
2.02005
1.92849
1.83886
1.75959
1.69675
1.64258
1.59911
1.5668
1.52305
1.46413
1.40347
1.35734
1.32733
1.30043
1.26995
1.24911
1.23621
1.2299
1.22513
1.23128
1.25253
1.27237
1.27115
1.25133
1.22062
1.20257
1.19837
1.19883
1.19996
1.20977
1.22435
1.22141
1.20374
1.18163
1.1686
1.15835
1.14618
1.13249
1.1228
1.12484
1.14889
1.18833
1.1973
1.19584
1.19099
1.17998
1.16951
1.1737
1.00951
1.40433
3.37057
5.17175
5.39472
5.24202
4.90796
4.59564
4.36519
4.14631
3.89518
3.65686
3.49536
3.33848
3.1676
2.96542
2.81428
2.71214
2.58815
2.44561
2.32539
2.24861
2.1396
2.02471
1.95961
1.88714
1.77725
1.70582
1.65841
1.59138
1.51049
1.47739
1.46814
1.53371
1.7669
2.19223
2.61753
2.95552
3.1257
3.08652
2.94126
2.81894
2.72123
2.61717
2.49354
2.35062
2.22601
2.13695
2.06111
1.9801
1.89577
1.81622
1.74689
1.68625
1.64847
1.62249
1.58709
1.53259
1.46329
1.39361
1.33668
1.29942
1.27119
1.24439
1.22646
1.21062
1.1951
1.18773
1.18084
1.17728
1.17219
1.15564
1.13271
1.11872
1.11195
1.11435
1.12927
1.15548
1.17325
1.16804
1.14723
1.12316
1.11291
1.10968
1.10356
1.09294
1.08524
1.08523
1.10205
1.13353
1.14238
1.14257
1.14465
1.13955
1.13298
1.14405
1.00006
1.01524
1.45994
3.38125
5.01266
5.22049
5.10678
4.81402
4.50414
4.26486
4.03774
3.82079
3.63136
3.45904
3.28295
3.09418
2.96521
2.83727
2.69916
2.53787
2.42706
2.36174
2.26107
2.1188
2.03236
1.9685
1.87514
1.80797
1.75578
1.69063
1.62961
1.6774
1.9317
2.45458
2.98569
3.39719
3.55379
3.51149
3.35691
3.14397
2.9737
2.85096
2.73057
2.60174
2.45962
2.31735
2.24313
2.19512
2.14171
2.07019
1.96991
1.86619
1.79728
1.74878
1.70871
1.67201
1.63153
1.5823
1.52466
1.46298
1.401
1.33676
1.28008
1.25491
1.23766
1.21436
1.18897
1.16755
1.15065
1.13815
1.12515
1.10106
1.07681
1.06837
1.06056
1.05481
1.05977
1.07765
1.08616
1.0778
1.06
1.04654
1.03792
1.03452
1.03603
1.03997
1.04701
1.05558
1.06348
1.07205
1.07535
1.07496
1.0808
1.08913
1.09163
1.11055
1
1.00011
1.01957
1.47395
3.32677
4.75937
5.07851
5.00887
4.72727
4.43309
4.1694
3.94465
3.7667
3.59896
3.4076
3.22469
3.08942
2.94956
2.81862
2.66948
2.54028
2.46126
2.35616
2.22332
2.13777
2.07403
1.95705
1.88177
1.88127
1.96854
2.257
2.77403
3.32222
3.73673
3.9626
3.93514
3.79982
3.58298
3.37359
3.2022
3.05052
2.9038
2.75802
2.59438
2.43347
2.35934
2.30969
2.25899
2.20184
2.12848
2.03094
1.92746
1.84778
1.78919
1.73847
1.6994
1.66255
1.61462
1.55215
1.47962
1.41787
1.38011
1.34964
1.31791
1.28449
1.24985
1.21513
1.18243
1.15167
1.12697
1.10696
1.07888
1.05041
1.04068
1.03341
1.02503
1.02175
1.0219
1.0154
1.00457
0.988943
0.977808
0.970455
0.964879
0.96601
0.976486
0.996869
1.01451
1.01275
1.00046
0.997855
1.00119
1.00679
1.02103
1.03656
1.06729
1
1
1.00016
1.02085
1.46142
3.11748
4.54477
4.97869
4.91765
4.6571
4.35206
4.08224
3.89327
3.71696
3.52308
3.36642
3.22478
3.07566
2.9323
2.76999
2.67283
2.58072
2.46095
2.30414
2.20588
2.17974
2.12585
2.20698
2.52832
3.19884
3.92771
4.35028
4.40838
4.28484
4.15553
3.93345
3.69893
3.50546
3.3488
3.21932
3.08837
2.94054
2.77667
2.6211
2.51319
2.44586
2.3862
2.322
2.24732
2.15812
2.06838
1.99061
1.91998
1.84982
1.77517
1.71513
1.67477
1.64069
1.59762
1.52961
1.43992
1.38433
1.36427
1.34634
1.32311
1.28833
1.2425
1.19908
1.16548
1.13702
1.10781
1.0727
1.04069
1.02327
1.01445
1.00987
1.00055
0.988557
0.977588
0.967541
0.950138
0.930466
0.92343
0.918715
0.917357
0.925352
0.937606
0.939585
0.932828
0.922891
0.913682
0.91502
0.920515
0.935752
0.960214
1.00161
1
1
1
1.00018
1.0196
1.40461
2.82509
4.41423
4.87299
4.80081
4.56131
4.247
4.03203
3.83132
3.63988
3.50031
3.35019
3.20741
3.04446
2.88775
2.79902
2.67772
2.55435
2.43707
2.36475
2.47771
2.91921
3.73368
4.43205
5.09549
5.16609
4.96246
4.75028
4.47388
4.1716
3.90563
3.69485
3.54256
3.40118
3.25993
3.11647
2.97167
2.83384
2.71395
2.60889
2.51269
2.43342
2.36154
2.28223
2.19365
2.11078
2.03924
1.97241
1.89806
1.81916
1.76049
1.71006
1.66108
1.61293
1.55631
1.49148
1.43834
1.39361
1.358
1.32811
1.29989
1.27033
1.2262
1.16597
1.11857
1.09449
1.08135
1.06467
1.03289
1.005
0.994837
0.986467
0.974448
0.961083
0.948668
0.932883
0.909042
0.897774
0.893428
0.891204
0.894607
0.893656
0.887369
0.88021
0.8724
0.861359
0.854325
0.85642
0.865138
0.883127
0.912948
1
1
1
1
1.00016
1.01585
1.31584
2.57937
4.29704
4.69237
4.6119
4.43355
4.22324
3.97574
3.76324
3.62566
3.4823
3.33922
3.14639
3.02409
2.91222
2.79747
2.70662
2.81932
3.26812
4.16122
5.15658
5.55988
5.66651
5.55183
5.27073
4.96838
4.71974
4.48274
4.21595
3.93095
3.71329
3.56102
3.43898
3.31784
3.19335
3.0695
2.9334
2.79369
2.65417
2.5283
2.44166
2.37682
2.31405
2.24631
2.17358
2.08499
1.9843
1.89394
1.82509
1.78204
1.74772
1.70763
1.64711
1.55735
1.48389
1.44815
1.42399
1.39942
1.36932
1.33058
1.29125
1.2466
1.19309
1.14479
1.1107
1.0839
1.05699
1.03053
1.01221
1.00063
0.98975
0.977003
0.963613
0.949494
0.930389
0.904012
0.889665
0.884865
0.881742
0.882268
0.880484
0.87374
0.866146
0.858684
0.849732
0.83829
0.832322
0.829199
0.832389
0.843427
1
1
1
1
1
1.00012
1.01122
1.23701
2.40297
4.04821
4.42568
4.46457
4.40003
4.18551
3.92625
3.75344
3.60467
3.45384
3.23674
3.16553
3.07499
3.19627
3.77832
4.80285
5.86631
6.37586
6.53791
6.38028
6.09491
5.71359
5.31841
4.96455
4.68606
4.46759
4.22867
3.93519
3.76005
3.63708
3.51271
3.38893
3.27153
3.15418
3.02016
2.86606
2.6942
2.55612
2.47403
2.40743
2.34708
2.28684
2.22065
2.13372
2.01752
1.90785
1.87747
1.85265
1.80565
1.74654
1.66582
1.57882
1.53133
1.49525
1.44529
1.39634
1.37862
1.36843
1.34457
1.30827
1.25647
1.20031
1.15935
1.13219
1.11155
1.09417
1.07531
1.05347
1.03201
1.01268
0.994682
0.975863
0.953078
0.92239
0.90038
0.893219
0.889118
0.887543
0.885816
0.879144
0.871423
0.863491
0.852374
0.837791
0.822395
0.814514
0.811693
0.810201
1
1
1
1
1
1
1.00007
1.00766
1.1793
2.2098
3.56383
4.24049
4.42249
4.36267
4.14279
3.92307
3.73854
3.55533
3.40801
3.52452
4.19902
5.44905
6.84112
7.38322
7.24727
6.9671
6.63366
6.24441
5.90295
5.65894
5.40434
5.1105
4.82208
4.5377
4.24595
3.98456
3.82851
3.71236
3.59836
3.49059
3.3745
3.23591
3.07884
2.91575
2.76608
2.6624
2.58246
2.49934
2.41395
2.33435
2.2662
2.19457
2.10241
1.99789
1.89784
1.81686
1.75314
1.69638
1.66171
1.6462
1.62024
1.56848
1.49462
1.43371
1.39258
1.35212
1.3108
1.26414
1.21288
1.1678
1.13635
1.11398
1.09436
1.07359
1.05063
1.02802
1.00808
0.990918
0.975274
0.958583
0.935908
0.899389
0.87446
0.867909
0.864184
0.862321
0.859934
0.853461
0.846055
0.837304
0.822707
0.806938
0.799981
0.796675
0.792743
0.787669
1
1
1
1
1
1
1
1.00005
1.00501
1.12779
1.8716
3.07857
4.11782
4.34074
4.25589
4.07989
3.98698
4.0925
4.66378
5.94043
7.51999
8.57025
8.76024
8.47848
7.99242
7.21291
6.46002
5.99677
5.73455
5.5423
5.35003
5.1273
4.87672
4.5937
4.29797
4.05568
3.88432
3.74341
3.61187
3.48993
3.37107
3.24468
3.09855
2.93776
2.78697
2.66987
2.58086
2.50174
2.42483
2.35115
2.27722
2.19278
2.09533
1.996
1.90088
1.8208
1.7606
1.71704
1.68324
1.64432
1.60183
1.54713
1.48497
1.43499
1.39299
1.3522
1.31045
1.26214
1.21064
1.16957
1.14294
1.12264
1.10243
1.07863
1.05211
1.02799
1.00846
0.992524
0.97802
0.962663
0.939945
0.89936
0.872941
0.866929
0.86332
0.861405
0.858265
0.85158
0.844236
0.835458
0.820651
0.803589
0.794696
0.789868
0.785287
0.779977
1
1
1
1
1
1
1
1
1.00003
1.0026
1.07272
1.50994
2.67861
3.83989
4.22723
4.7695
5.64968
6.82048
7.93984
8.6435
8.97895
9.01605
8.73249
8.20316
7.60957
7.12885
6.65623
6.23447
5.92567
5.67283
5.45318
5.25088
5.03025
4.77113
4.5165
4.3007
4.1141
3.94096
3.77281
3.61772
3.47912
3.3444
3.19561
3.03565
2.88257
2.75497
2.6546
2.56735
2.48851
2.41505
2.3385
2.25318
2.15725
2.05472
1.96212
1.89181
1.83632
1.78694
1.73764
1.68762
1.63558
1.57578
1.51622
1.46656
1.42534
1.38704
1.34528
1.29807
1.25289
1.21846
1.19296
1.16987
1.14398
1.11167
1.07915
1.05821
1.04441
1.03224
1.02009
1.00534
0.976821
0.925484
0.897976
0.892364
0.888352
0.885136
0.879938
0.872579
0.864129
0.85315
0.834818
0.813526
0.80304
0.797574
0.792687
0.787407
1
1
1
1
1
1
1
1
1
1.00001
1.00116
1.02703
1.35314
2.64157
4.97393
7.51015
10.3424
12.0831
12.6682
11.8932
10.7084
9.42875
8.37818
7.69145
7.2308
6.85316
6.47219
6.11818
5.80879
5.51985
5.26456
5.06569
4.87363
4.64082
4.39674
4.18271
4.00527
3.8433
3.6778
3.51666
3.37473
3.24238
3.09578
2.93382
2.77949
2.65696
2.56147
2.47501
2.39552
2.32427
2.25352
2.17336
2.08003
1.98229
1.89809
1.83241
1.77512
1.72057
1.66923
1.62296
1.57609
1.52122
1.46212
1.40995
1.36748
1.32878
1.28886
1.24718
1.20706
1.17446
1.14916
1.12587
1.09967
1.06645
1.03589
1.01993
1.00841
0.99682
0.985262
0.971046
0.941887
0.890246
0.864245
0.859025
0.855261
0.852482
0.847325
0.839897
0.831415
0.820549
0.80217
0.780852
0.771023
0.765948
0.761351
0.756877
)
;

boundaryField
{
    inlet
    {
        type            fixedValue;
        value           uniform 1;
    }
    outlet
    {
        type            zeroGradient;
    }
    bottom
    {
        type            symmetryPlane;
    }
    top
    {
        type            symmetryPlane;
    }
    obstacle
    {
        type            zeroGradient;
    }
    defaultFaces
    {
        type            empty;
    }
}


// ************************************************************************* //
