/*--------------------------------*- C++ -*----------------------------------*\
  =========                 |
  \\      /  F ield         | OpenFOAM: The Open Source CFD Toolbox
   \\    /   O peration     | Website:  https://openfoam.org
    \\  /    A nd           | Version:  7
     \\/     M anipulation  |
\*---------------------------------------------------------------------------*/
FoamFile
{
    version     2.0;
    format      ascii;
    class       volScalarField;
    location    "1";
    object      rho;
}
// * * * * * * * * * * * * * * * * * * * * * * * * * * * * * * * * * * * * * //

dimensions      [1 -3 0 0 0 0 0];

internalField   nonuniform List<scalar> 
4032
(
1.40001
1.40001
1.40001
1.40001
1.40001
1.40001
1.40001
1.40001
1.40001
1.40001
1.40001
1.40001
1.40001
3.26471
5.40067
5.52741
5.58397
5.64457
5.69311
5.72482
5.73356
5.69605
5.63428
5.60685
1.40001
1.40001
1.40001
1.40001
1.40001
1.40001
1.40001
1.40001
1.40001
1.40001
1.40001
1.40001
1.40001
3.18846
5.36026
5.51769
5.57386
5.63286
5.67885
5.7085
5.71518
5.67643
5.61339
5.58568
1.40001
1.40001
1.40001
1.40001
1.40001
1.40001
1.40001
1.40001
1.40001
1.40001
1.40001
1.40001
1.40001
3.03245
5.31104
5.50194
5.55641
5.61265
5.65469
5.68242
5.68764
5.64964
5.58547
5.55801
1.40001
1.40001
1.40001
1.40001
1.40001
1.40001
1.40001
1.40001
1.40001
1.40001
1.40001
1.40001
1.40001
2.8012
5.2363
5.48931
5.53732
5.5862
5.62055
5.64746
5.65279
5.61582
5.54713
5.51365
1.40001
1.40001
1.40001
1.40001
1.40001
1.40001
1.40001
1.40001
1.40001
1.40001
1.40001
1.40001
1.40001
2.51867
5.12914
5.49344
5.528
5.55768
5.57867
5.59902
5.59716
5.55808
5.48637
5.45711
1.40001
1.40001
1.40001
1.40001
1.40001
1.40001
1.40001
1.40001
1.40001
1.40001
1.40001
1.40001
1.40001
2.16725
4.96081
5.50744
5.50816
5.51725
5.52346
5.53671
5.53135
5.48764
5.40474
5.34185
1.40001
1.40001
1.40001
1.40001
1.40001
1.40001
1.40001
1.40001
1.40001
1.40001
1.40001
1.40001
1.40001
1.80826
4.73654
5.53056
5.4955
5.48861
5.47392
5.46224
5.43127
5.35133
5.23578
5.16461
1.40001
1.40001
1.40001
1.40001
1.40001
1.40001
1.40001
1.40001
1.40001
1.40001
1.40001
1.40001
1.40001
1.47366
4.28624
5.48934
5.43783
5.41568
5.37647
5.34571
5.30103
5.21695
5.07216
4.97636
1.40001
1.40001
1.40001
1.40001
1.40001
1.40001
1.40001
1.40001
1.40001
1.40001
1.40001
1.40001
1.40001
1.40141
3.61245
5.33715
5.37176
5.35372
5.29734
5.24451
5.17629
5.04034
4.66234
3.7821
1.40001
1.40001
1.40001
1.40001
1.40001
1.40001
1.40001
1.40001
1.40001
1.40001
1.40001
1.40001
1.40001
1.40001
2.83171
5.12635
5.32908
5.2951
5.22299
5.14418
5.03558
4.82817
4.45116
3.52781
1.40001
1.40001
1.40001
1.40001
1.40001
1.40001
1.40001
1.40001
1.40001
1.40001
1.40001
1.40001
1.40001
1.4
2.02809
4.87779
5.34848
5.25246
5.14271
5.02763
4.8877
4.64637
4.28219
3.46912
1.40001
1.40001
1.40001
1.40001
1.40001
1.40001
1.40001
1.40001
1.40001
1.40001
1.40001
1.40001
1.40001
1.40001
1.48019
4.2004
5.24816
5.1592
5.0489
4.91476
4.75507
4.52181
4.12714
3.48051
1.40001
1.40001
1.40001
1.40001
1.40001
1.40001
1.40001
1.40001
1.40001
1.40001
1.40001
1.40001
1.40001
1.40001
1.40082
3.09814
5.02894
5.09676
5.02773
4.88518
4.69439
4.44153
4.04144
3.53639
1.40001
1.40001
1.40001
1.40001
1.40001
1.40001
1.40001
1.40001
1.40001
1.40001
1.40001
1.40001
1.40001
1.40001
1.4
1.956
4.74597
5.097
4.98652
4.84503
4.64508
4.37792
4.01128
3.59558
1.40001
1.40001
1.40001
1.40001
1.40001
1.40001
1.40001
1.40001
1.40001
1.40001
1.40001
1.40001
1.40001
1.40001
1.4
1.44827
3.77438
4.98027
4.91828
4.79256
4.60072
4.34253
4.01628
3.66072
1.40001
1.40001
1.40001
1.40001
1.40001
1.40001
1.40001
1.40001
1.40001
1.40001
1.40001
1.40001
1.40001
1.40001
1.4
1.40023
2.37076
4.79246
4.93342
4.77905
4.5796
4.32429
4.02214
3.70569
1.40001
1.40001
1.40001
1.40001
1.40001
1.40001
1.40001
1.40001
1.40001
1.40001
1.40001
1.40001
1.40001
1.40001
1.40001
1.4
1.53401
3.95697
4.89052
4.75061
4.56019
4.31802
4.03593
3.74661
1.40001
1.40001
1.40001
1.40001
1.40001
1.40001
1.40001
1.40001
1.40001
1.40001
1.40001
1.40001
1.40001
1.40001
1.40001
1.4
1.4019
2.44182
4.65674
4.7759
4.57937
4.34421
4.07523
3.80256
1.40001
1.40001
1.40001
1.40001
1.40001
1.40001
1.40001
1.40001
1.40001
1.40001
1.40001
1.40001
1.40001
1.40001
1.40001
1.4
1.40001
1.54532
3.79652
4.73889
4.5705
4.34477
4.10001
3.84624
1.40001
1.40001
1.40001
1.40001
1.40001
1.40001
1.40001
1.40001
1.40001
1.40001
1.40001
1.40001
1.40001
1.40001
1.40001
1.40001
1.40001
1.40232
2.24621
4.40609
4.59943
4.38506
4.16168
3.91898
1.40001
1.40001
1.40001
1.40001
1.40001
1.40001
1.40001
1.40001
1.40001
1.40001
1.40001
1.40001
1.40001
1.40001
1.40001
1.40001
1.40001
1.40001
1.49242
3.29527
4.5319
4.4283
4.21197
3.98065
1.40001
1.40001
1.40001
1.40001
1.40001
1.40001
1.40001
1.40001
1.40001
1.40001
1.40001
1.40001
1.40001
1.40001
1.40001
1.40001
1.40001
1.40001
1.40124
1.90831
3.97036
4.52848
4.29973
4.07803
1.40001
1.40001
1.40001
1.40001
1.40001
1.40001
1.40001
1.40001
1.40001
1.40001
1.40001
1.40001
1.40001
1.40001
1.40001
1.40001
1.40001
1.40001
1.40001
1.43132
2.55755
4.25523
4.36914
4.15187
1.40001
1.40001
1.40001
1.40001
1.40001
1.40001
1.40001
1.40001
1.40001
1.40001
1.40001
1.40001
1.40001
1.40001
1.40001
1.40001
1.40001
1.40001
1.40001
1.40031
1.57195
3.20754
4.28246
4.22238
1.40001
1.40001
1.40001
1.40001
1.40001
1.40001
1.40001
1.40001
1.40001
1.40001
1.40001
1.40001
1.40001
1.40001
1.40001
1.40001
1.40001
1.40001
1.40001
1.40001
1.40433
1.86672
3.61673
4.24185
1.40001
1.40001
1.40001
1.40001
1.40001
1.40001
1.40001
1.40001
1.40001
1.40001
1.40001
1.40001
1.40001
1.40001
1.40001
1.40001
1.40001
1.40001
1.40001
1.40001
1.40003
1.42693
2.20368
3.8248
1.40001
1.40001
1.40001
1.40001
1.40001
1.40001
1.40001
1.40001
1.40001
1.40001
1.40001
1.40001
1.40001
1.40001
1.40001
1.40001
1.40001
1.40001
1.40001
1.40001
1.40001
1.40028
1.47945
2.50836
1.40001
1.40001
1.40001
1.40001
1.40001
1.40001
1.40001
1.40001
1.40001
1.40001
1.40001
1.40001
1.40001
1.40001
1.40001
1.40001
1.40001
1.40001
1.40001
1.40001
1.40001
1.40001
1.40141
1.55807
1.40001
1.40001
1.40001
1.40001
1.40001
1.40001
1.40001
1.40001
1.40001
1.40001
1.40001
1.40001
1.40001
1.40001
1.40001
1.40001
1.40001
1.40001
1.40001
1.40001
1.40001
1.40001
1.40001
1.40419
1.40001
1.40001
1.40001
1.40001
1.40001
1.40001
1.40001
1.40001
1.40001
1.40001
1.40001
1.40001
1.40001
1.40001
1.40001
1.40001
1.40001
1.40001
1.40001
1.40001
1.40001
1.40001
1.40001
1.40003
1.40001
1.40001
1.40001
1.40001
1.40001
1.40001
1.40001
1.40001
1.40001
1.40001
1.40001
1.40001
1.40001
1.40001
1.40001
1.40001
1.40001
1.40001
1.40001
1.40001
1.40001
1.40001
1.40001
1.40001
1.40001
1.40001
1.40001
1.40001
1.40001
1.40001
1.40001
1.40001
1.40001
1.40001
1.40001
1.40001
1.40001
1.40001
1.40001
1.40001
1.40001
1.40001
1.40001
1.40001
1.40001
1.40001
1.40001
1.40001
1.40001
1.40001
1.40001
1.40001
1.40001
1.40001
1.40001
1.40001
1.40001
1.40001
1.40001
1.40001
1.40001
1.40001
1.40001
1.40001
1.40001
1.40001
1.40001
1.40001
1.40001
1.40001
1.40001
1.40001
1.40001
1.40001
1.40001
1.40001
1.40001
1.40001
1.40001
1.40001
1.40001
1.40001
1.40001
1.40001
1.40001
1.40001
1.40001
1.40001
1.40001
1.40001
1.40001
1.40001
1.40001
1.40001
1.40001
1.40001
1.40001
1.40001
1.40001
1.40001
1.40001
1.40001
1.40001
1.40001
1.40001
1.40001
1.40001
1.40001
1.40001
1.40001
1.40001
1.40001
1.40001
1.40001
1.40001
1.40001
1.40001
1.40001
1.40001
1.40001
1.40001
1.40001
1.40001
1.40001
1.40001
1.40001
1.40001
1.40001
1.40001
1.40001
1.40001
1.40001
1.40001
1.40001
1.40001
1.40001
1.40001
1.40001
1.40001
1.40001
1.40001
1.40001
1.40001
1.40001
1.40001
1.40001
1.40001
1.40001
1.40001
1.40001
1.40001
1.40001
1.40001
1.40001
1.40001
1.40001
1.40001
1.40001
1.40001
1.40001
1.40001
1.40001
1.40001
1.40001
1.40001
1.40001
1.40001
1.40001
1.40001
1.40001
1.40001
1.40001
1.40001
1.40001
1.40001
1.40001
1.40001
1.40001
1.40001
1.40001
1.40001
1.40001
1.40001
1.40001
1.40001
1.40001
1.40001
1.40001
1.40001
1.40001
1.40001
1.40001
1.40001
1.40001
1.40001
1.40001
1.40001
1.40001
1.40001
1.40001
1.40001
1.40001
1.40001
1.40001
1.40001
1.40001
1.40001
1.40001
1.40001
1.40001
1.40001
1.40001
1.40001
1.40001
1.40001
1.40001
1.40001
1.40001
1.40001
1.40001
1.40001
1.40001
1.40001
1.40001
1.40001
1.40001
1.40001
1.40001
1.40001
1.40001
1.40001
1.40001
1.40001
1.40001
1.40001
1.40001
1.40001
1.40001
1.40001
1.40001
1.23609
0.521188
0.235087
0.168864
0.186081
0.257755
0.351266
0.423723
0.51312
0.594631
0.688977
0.753113
0.794929
0.832556
0.843426
0.834741
0.836965
0.849825
0.863799
0.867567
0.866595
0.865348
0.858513
0.847589
0.842814
0.84072
0.839236
0.837981
0.838165
0.842118
0.845004
0.844614
0.840889
0.830341
0.8199
0.81502
0.811629
0.80756
0.802283
0.795767
0.787644
0.7768
0.762234
0.745088
0.734793
0.731529
0.729087
0.726645
0.723828
0.72068
0.71719
0.71245
0.70531
0.69687
0.689213
0.683155
0.678232
0.673698
0.66865
0.661914
0.652561
0.643146
0.640348
0.640166
0.640438
0.64104
0.641505
0.641759
0.640848
0.636713
0.633483
0.634257
0.638902
0.648457
0.657459
0.661803
0.663721
0.662799
0.652021
0.645606
0.647431
0.652494
0.662566
0.677769
0.687808
0.691051
0.692432
0.685988
0.676255
0.676236
0.678279
0.682179
0.691753
0.7131
0.751087
0.770982
1.87351
1.16978
0.846666
0.621932
0.525474
0.545147
0.541062
0.507685
0.49857
0.514693
0.554364
0.624032
0.692485
0.747111
0.789909
0.811304
0.82535
0.843747
0.867074
0.874385
0.875206
0.882095
0.882021
0.875548
0.869109
0.86778
0.86748
0.866802
0.866205
0.868589
0.867424
0.864824
0.861178
0.853359
0.843508
0.835972
0.8302
0.824009
0.815975
0.806532
0.797163
0.78732
0.775797
0.762891
0.753966
0.749503
0.745711
0.741469
0.73602
0.729557
0.722985
0.71573
0.706575
0.697342
0.692866
0.68983
0.686407
0.682398
0.677471
0.67165
0.66481
0.656876
0.650425
0.648996
0.649149
0.649985
0.651331
0.651879
0.651475
0.648752
0.64413
0.642789
0.645029
0.651508
0.657365
0.660692
0.663052
0.663249
0.659786
0.655565
0.655788
0.658995
0.666341
0.677156
0.686315
0.691862
0.693776
0.692002
0.686335
0.685374
0.686444
0.689095
0.697417
0.715947
0.74379
0.768208
2.41406
1.72683
1.32618
1.06512
0.889741
0.800246
0.739466
0.649619
0.579235
0.589034
0.602269
0.628073
0.674795
0.722655
0.768448
0.810853
0.840608
0.867077
0.9004
0.924061
0.934054
0.947629
0.960973
0.95783
0.947463
0.94561
0.944715
0.939825
0.93167
0.92608
0.919467
0.910772
0.904893
0.898642
0.890492
0.884288
0.87732
0.872009
0.866892
0.859087
0.848889
0.836059
0.818672
0.800799
0.791848
0.786785
0.781677
0.776359
0.771008
0.765457
0.758326
0.746904
0.732226
0.720425
0.715535
0.712501
0.708841
0.704398
0.699703
0.694917
0.689651
0.682698
0.673242
0.666167
0.664394
0.664202
0.664956
0.66641
0.666643
0.666059
0.665885
0.666918
0.668712
0.669228
0.667334
0.665225
0.66452
0.665163
0.667305
0.669745
0.672919
0.678144
0.682635
0.685632
0.688765
0.691739
0.693862
0.695866
0.698053
0.700844
0.704348
0.708487
0.715418
0.726987
0.743279
0.764744
2.73822
2.18826
1.78683
1.46109
1.22517
1.10072
0.996721
0.89078
0.812191
0.786472
0.748195
0.694264
0.691871
0.699444
0.717977
0.745104
0.787001
0.830151
0.869833
0.902317
0.923624
0.942347
0.971527
0.984689
0.990678
1.002
1.01329
1.01272
1.00761
0.998565
0.987141
0.972485
0.962046
0.954159
0.945459
0.938315
0.928395
0.920684
0.917293
0.912815
0.905517
0.894608
0.879298
0.860539
0.845755
0.836049
0.828053
0.821435
0.816438
0.812658
0.807296
0.79476
0.775341
0.764443
0.760667
0.757311
0.753396
0.74898
0.744141
0.739232
0.733947
0.72739
0.71826
0.707916
0.701388
0.698236
0.696031
0.694273
0.692752
0.691888
0.692258
0.693414
0.694325
0.692641
0.689504
0.689611
0.69138
0.692236
0.691948
0.693198
0.696219
0.700375
0.703387
0.705145
0.707814
0.710242
0.711733
0.713672
0.716102
0.718806
0.722705
0.727926
0.733867
0.742015
0.75133
0.768576
2.97401
2.49842
2.13747
1.81633
1.55506
1.39425
1.24998
1.09811
1.00618
0.950673
0.889018
0.81297
0.775684
0.763271
0.74043
0.740806
0.750514
0.767264
0.792208
0.822406
0.859331
0.89334
0.937872
0.966062
0.984354
0.999715
1.01576
1.02179
1.01974
1.01766
1.01926
1.02187
1.01984
1.01478
1.00654
0.994507
0.977062
0.960153
0.951043
0.945177
0.938769
0.930886
0.921149
0.910505
0.899779
0.890404
0.883036
0.875665
0.868089
0.861454
0.853226
0.837828
0.816113
0.804796
0.801518
0.798771
0.796443
0.795167
0.791881
0.7876
0.783165
0.777404
0.768104
0.755262
0.745242
0.740405
0.736995
0.733976
0.731918
0.730734
0.729123
0.724994
0.717145
0.71091
0.71074
0.713728
0.720248
0.72611
0.728923
0.730543
0.730643
0.727314
0.723534
0.723427
0.725168
0.729621
0.736605
0.742665
0.745845
0.748192
0.750495
0.752826
0.754911
0.758528
0.762955
0.780059
3.13552
2.73506
2.40624
2.09394
1.83512
1.64475
1.48681
1.33018
1.21967
1.13369
1.04779
0.960918
0.917033
0.890533
0.848648
0.800405
0.795308
0.792717
0.775116
0.772614
0.782926
0.808135
0.847126
0.891044
0.92855
0.958777
0.987596
1.00871
1.01077
1.01287
1.01807
1.02559
1.02827
1.02877
1.02857
1.02499
1.01347
0.99555
0.979874
0.969664
0.961059
0.951478
0.943725
0.935706
0.927662
0.920758
0.914753
0.907997
0.899843
0.892483
0.883871
0.871583
0.855936
0.842449
0.836494
0.833739
0.831986
0.83224
0.830609
0.826968
0.823483
0.81804
0.806669
0.789674
0.777905
0.772814
0.769199
0.766462
0.764505
0.761869
0.756314
0.746266
0.736708
0.734663
0.73616
0.74155
0.752511
0.76182
0.765556
0.767342
0.766935
0.758594
0.750947
0.750011
0.750455
0.755119
0.764582
0.772432
0.776558
0.779576
0.782627
0.784356
0.784139
0.783449
0.783739
0.79746
3.27142
2.9121
2.60834
2.31673
2.07024
1.87709
1.69154
1.50921
1.40021
1.30937
1.21869
1.11129
1.05153
1.00502
0.950811
0.881656
0.851572
0.838096
0.811512
0.788675
0.79105
0.803037
0.813025
0.822832
0.838182
0.862655
0.894169
0.929047
0.957488
0.973852
0.987995
1.01268
1.02087
1.02505
1.03034
1.02993
1.02348
1.01171
1.0017
0.993827
0.986073
0.975747
0.964972
0.954612
0.944945
0.935762
0.926069
0.916933
0.909643
0.903966
0.899132
0.894149
0.888785
0.880829
0.869517
0.863242
0.86045
0.858459
0.854984
0.849974
0.84434
0.836756
0.824474
0.809272
0.801151
0.798078
0.796334
0.793719
0.788496
0.780824
0.769643
0.759809
0.758056
0.759512
0.765086
0.778012
0.794402
0.803588
0.807697
0.810521
0.80987
0.803067
0.803299
0.804969
0.806381
0.812095
0.817802
0.818225
0.819212
0.82059
0.821096
0.821634
0.821647
0.82075
0.820327
0.830772
3.36785
3.05023
2.76709
2.49385
2.25775
2.0658
1.87765
1.69463
1.56563
1.45863
1.35886
1.25589
1.18894
1.13826
1.08386
1.0064
0.954545
0.934573
0.90724
0.86211
0.842373
0.844481
0.836493
0.820811
0.811968
0.81168
0.81861
0.832592
0.853889
0.887067
0.922878
0.956741
0.984859
0.999046
1.01155
1.02301
1.02314
1.01572
1.00235
1.0004
0.99904
0.994018
0.984203
0.974437
0.964272
0.951705
0.934585
0.91556
0.910288
0.908916
0.907788
0.908852
0.909598
0.907801
0.900593
0.889071
0.881676
0.876244
0.869672
0.861717
0.853416
0.844471
0.833994
0.824851
0.821343
0.818941
0.816521
0.813522
0.806509
0.794834
0.793984
0.797959
0.808163
0.82559
0.849563
0.877827
0.901031
0.914666
0.926042
0.935884
0.94361
0.953138
0.964706
0.978468
0.990645
0.99233
0.987375
0.97718
0.965574
0.955238
0.945402
0.935069
0.927228
0.920444
0.91272
0.904071
3.44491
3.16508
2.90303
2.63823
2.41271
2.2286
2.03406
1.84843
1.72096
1.61035
1.50124
1.39544
1.31174
1.24775
1.19748
1.13063
1.0685
1.03573
1.00026
0.948013
0.903837
0.893174
0.874607
0.844904
0.821781
0.817786
0.82047
0.821263
0.819321
0.824516
0.846235
0.87118
0.895168
0.920247
0.943717
0.971355
1.00405
1.01151
1.00287
1.00315
1.00371
1.00094
0.992152
0.984547
0.977671
0.967358
0.950177
0.928133
0.918062
0.916075
0.915778
0.918314
0.922279
0.922321
0.919177
0.909047
0.89578
0.887395
0.880483
0.872273
0.862496
0.852471
0.847605
0.845619
0.845954
0.8466
0.84479
0.846971
0.857395
0.880172
0.913869
0.955617
1.00345
1.05732
1.10746
1.14534
1.16758
1.17761
1.18172
1.18498
1.18991
1.19475
1.20124
1.21711
1.24294
1.25609
1.25566
1.2482
1.23346
1.21681
1.19767
1.1755
1.16361
1.15646
1.14896
1.11639
3.51965
3.25944
3.01429
2.76942
2.55034
2.36317
2.179
2.00752
1.86642
1.7394
1.62243
1.53547
1.44988
1.36791
1.30979
1.24029
1.16565
1.12843
1.09921
1.05322
0.997566
0.977616
0.957323
0.923217
0.873591
0.851876
0.852924
0.844975
0.826154
0.819594
0.823019
0.823217
0.821092
0.826696
0.845766
0.878373
0.921879
0.965153
0.984216
0.996646
0.999689
0.997332
0.989387
0.983947
0.979137
0.972514
0.962768
0.951092
0.940416
0.932038
0.929451
0.929359
0.92955
0.92787
0.925663
0.918932
0.904858
0.895036
0.890932
0.886079
0.881346
0.882206
0.891903
0.914257
0.94364
0.974197
1.00634
1.0432
1.0876
1.13733
1.1877
1.23477
1.27844
1.31448
1.34754
1.3761
1.3835
1.38246
1.37805
1.36338
1.35114
1.34844
1.3475
1.35266
1.36763
1.38916
1.40665
1.4103
1.40872
1.40138
1.38377
1.36723
1.36449
1.36636
1.37401
1.35905
3.58402
3.34028
3.11099
2.88071
2.67391
2.48909
2.30314
2.14271
2.00657
1.87415
1.74062
1.65305
1.56961
1.47896
1.41752
1.36039
1.28044
1.21991
1.18498
1.13825
1.07482
1.04744
1.03172
1.00213
0.947147
0.904094
0.894752
0.878149
0.849254
0.828186
0.828828
0.830756
0.820715
0.807086
0.806974
0.814017
0.832751
0.866149
0.9112
0.940555
0.96282
0.972168
0.967316
0.965609
0.966485
0.967198
0.968148
0.966461
0.960384
0.95466
0.949169
0.944567
0.939683
0.933737
0.93081
0.925578
0.913846
0.910491
0.915335
0.931552
0.964005
1.01789
1.08879
1.16331
1.22738
1.28055
1.32482
1.3588
1.38352
1.39704
1.40422
1.41163
1.41749
1.42167
1.42978
1.44532
1.44795
1.44631
1.44307
1.42887
1.4128
1.41037
1.41084
1.41155
1.41448
1.42661
1.44668
1.46537
1.4726
1.47123
1.46237
1.45528
1.45484
1.45808
1.47138
1.48003
3.6701
3.43084
3.20506
2.99146
2.79394
2.60597
2.42469
2.2709
2.13262
1.99239
1.85936
1.77419
1.69196
1.59014
1.50475
1.4498
1.37866
1.31555
1.27876
1.23706
1.16589
1.11559
1.0994
1.07354
1.02658
0.978897
0.962528
0.944047
0.911801
0.873626
0.869196
0.866418
0.848923
0.820207
0.808194
0.808001
0.807677
0.809074
0.819884
0.844711
0.875338
0.906234
0.932551
0.938963
0.944528
0.956135
0.965338
0.964091
0.960963
0.963065
0.963266
0.961712
0.957867
0.952445
0.949024
0.957426
0.98222
1.02584
1.08951
1.16967
1.25647
1.3382
1.40041
1.44448
1.47774
1.50039
1.52152
1.53063
1.5246
1.50863
1.48518
1.46581
1.45212
1.44538
1.44334
1.44929
1.46025
1.46521
1.46371
1.45251
1.43821
1.43481
1.43756
1.438
1.43187
1.4302
1.44321
1.47833
1.49941
1.50084
1.49921
1.49722
1.49773
1.50305
1.50947
1.52761
3.74404
3.51431
3.29196
3.08594
2.89835
2.71531
2.54046
2.38962
2.25278
2.11332
1.98322
1.88995
1.79992
1.69312
1.61288
1.55473
1.47875
1.3936
1.35547
1.31841
1.26002
1.20361
1.17478
1.14364
1.09248
1.03491
1.01599
0.999996
0.971081
0.928075
0.914709
0.908478
0.888708
0.850319
0.819967
0.81694
0.816698
0.809378
0.807797
0.811471
0.823274
0.833125
0.844171
0.864311
0.886233
0.915372
0.945221
0.947876
0.952672
0.9634
0.972857
0.979532
0.990868
1.01923
1.08534
1.18598
1.29072
1.38031
1.4592
1.51367
1.55447
1.56653
1.56941
1.56929
1.57127
1.58007
1.58413
1.57637
1.55868
1.53413
1.50142
1.47163
1.45346
1.44057
1.43736
1.44299
1.45559
1.4729
1.47673
1.46787
1.45231
1.44385
1.44516
1.445
1.43638
1.43273
1.44222
1.47679
1.51322
1.52229
1.52381
1.5233
1.52118
1.52366
1.52727
1.55136
3.84743
3.61876
3.39983
3.20043
3.01507
2.83397
2.66389
2.51244
2.37159
2.22516
2.10629
2.01103
1.9147
1.7989
1.7076
1.6483
1.57418
1.49278
1.44453
1.40182
1.33509
1.26585
1.24041
1.21469
1.16912
1.10839
1.08064
1.06328
1.03532
0.987638
0.968191
0.965299
0.94973
0.9116
0.870167
0.864129
0.859585
0.842728
0.8197
0.81814
0.81995
0.810326
0.797519
0.799655
0.812205
0.839363
0.875782
0.915205
0.949123
0.970944
1.0065
1.07455
1.17884
1.30472
1.4482
1.5575
1.61817
1.65211
1.67769
1.67534
1.65925
1.63167
1.61726
1.60758
1.60308
1.60683
1.59923
1.58276
1.55889
1.52594
1.49011
1.46452
1.44769
1.43563
1.43213
1.4423
1.47378
1.48336
1.47567
1.46483
1.45479
1.44143
1.43705
1.44119
1.43996
1.43962
1.45448
1.49574
1.52906
1.53616
1.53777
1.53547
1.5291
1.52914
1.53508
1.57243
3.92698
3.70976
3.50311
3.30709
3.11627
2.93918
2.78485
2.64043
2.49957
2.34624
2.2188
2.12077
2.02711
1.91454
1.82762
1.75309
1.67138
1.57481
1.52404
1.48883
1.42869
1.34634
1.30236
1.27201
1.23007
1.1765
1.15088
1.13434
1.10648
1.05526
1.0194
1.01219
0.996906
0.962197
0.919363
0.910782
0.904813
0.887622
0.857358
0.838391
0.83134
0.81542
0.797141
0.795286
0.797191
0.804219
0.819606
0.852595
0.912085
1.02476
1.18481
1.37371
1.51963
1.61941
1.68091
1.70767
1.72937
1.7469
1.74443
1.72598
1.68443
1.64566
1.62671
1.61489
1.60205
1.58234
1.56763
1.55205
1.52402
1.4947
1.472
1.46185
1.45617
1.44747
1.44562
1.45214
1.46272
1.46385
1.45689
1.45237
1.44832
1.43821
1.43487
1.44208
1.45248
1.46039
1.4745
1.4926
1.51758
1.53091
1.53043
1.52894
1.52985
1.53448
1.55022
1.60461
4.01037
3.80027
3.60446
3.41259
3.23075
3.06087
2.88916
2.73242
2.60281
2.47418
2.33921
2.22135
2.1214
2.01723
1.92687
1.85242
1.7758
1.67688
1.60654
1.56196
1.50401
1.42886
1.3811
1.34725
1.30322
1.23889
1.21003
1.19829
1.17349
1.12744
1.08406
1.07077
1.0549
1.02214
0.974808
0.962987
0.958879
0.943826
0.913297
0.88623
0.871851
0.853773
0.826447
0.816352
0.820263
0.837965
0.893826
1.01453
1.17208
1.33059
1.48312
1.57628
1.62969
1.66176
1.67503
1.68593
1.70796
1.72951
1.73095
1.71142
1.68253
1.64971
1.63421
1.6237
1.60185
1.57637
1.55975
1.5402
1.50713
1.47968
1.4746
1.47434
1.46918
1.45375
1.44631
1.44647
1.44822
1.44993
1.44735
1.44496
1.4455
1.44123
1.43707
1.4459
1.46802
1.47971
1.48385
1.48787
1.49704
1.51768
1.52878
1.52815
1.53279
1.55368
1.59214
1.6065
4.14137
3.9213
3.71185
3.52037
3.33408
3.16656
3.0101
2.85399
2.70799
2.58466
2.4547
2.32733
2.21878
2.12302
2.02443
1.93926
1.86929
1.78235
1.70556
1.64825
1.58423
1.49808
1.44448
1.41919
1.38262
1.32184
1.28118
1.26169
1.23163
1.18423
1.13833
1.12693
1.11482
1.08571
1.03762
1.01842
1.01021
0.992326
0.956621
0.924082
0.909248
0.894774
0.873226
0.884315
0.936544
1.0544
1.2259
1.39075
1.48994
1.5553
1.5936
1.6048
1.59993
1.59183
1.58976
1.58952
1.58512
1.59539
1.61903
1.62095
1.61393
1.62831
1.64287
1.63113
1.59907
1.57897
1.56261
1.5409
1.50581
1.49221
1.49128
1.49247
1.4893
1.47391
1.45001
1.44304
1.44105
1.43946
1.43953
1.44949
1.45567
1.45282
1.44756
1.45026
1.47473
1.48979
1.4845
1.48347
1.49053
1.50608
1.52487
1.54262
1.56463
1.58456
1.5867
1.58864
4.17486
4.06185
3.8446
3.63902
3.45814
3.2902
3.11957
2.94633
2.81007
2.70275
2.58173
2.43784
2.31173
2.22447
2.12861
2.03448
1.95779
1.87713
1.79345
1.73161
1.6742
1.59699
1.52601
1.49208
1.45435
1.3936
1.352
1.33144
1.30273
1.25268
1.19401
1.17944
1.16905
1.14331
1.10022
1.07855
1.06739
1.04718
1.00927
0.974557
0.967227
0.992201
1.06062
1.19482
1.36713
1.53315
1.66558
1.69139
1.6724
1.65973
1.64587
1.62217
1.5954
1.56358
1.53784
1.50451
1.4715
1.46702
1.47422
1.50252
1.51745
1.53996
1.57787
1.57683
1.56677
1.56434
1.56416
1.5513
1.53644
1.5308
1.52479
1.51842
1.51066
1.49081
1.4574
1.4427
1.43662
1.43403
1.43745
1.45667
1.4634
1.46106
1.45706
1.45445
1.45719
1.47008
1.48121
1.48344
1.49052
1.5059
1.53391
1.56015
1.56038
1.56229
1.56476
1.569
3.92341
4.09966
3.98549
3.77303
3.57584
3.41031
3.2506
3.08556
2.92183
2.78461
2.67544
2.55445
2.4343
2.33573
2.23371
2.12363
2.04302
1.97658
1.89138
1.81238
1.7542
1.68487
1.6135
1.57597
1.54066
1.48002
1.41794
1.39381
1.36652
1.32007
1.26139
1.24292
1.22896
1.20163
1.15605
1.1314
1.11835
1.10378
1.07944
1.09453
1.16506
1.32754
1.52913
1.68104
1.79774
1.87923
1.87228
1.82326
1.75958
1.71464
1.67006
1.62133
1.57711
1.54423
1.51836
1.48567
1.45285
1.43875
1.4319
1.43367
1.44007
1.44282
1.45714
1.47627
1.48436
1.49561
1.51708
1.53946
1.55637
1.55568
1.54771
1.53859
1.5167
1.47977
1.45547
1.44569
1.43929
1.43671
1.44367
1.46027
1.46175
1.45978
1.4529
1.44409
1.44012
1.44284
1.45635
1.47689
1.49826
1.5266
1.5439
1.54364
1.54101
1.53885
1.54023
1.5494
2.74577
3.93716
4.0367
3.92483
3.72102
3.5347
3.3664
3.20664
3.05342
2.91175
2.78249
2.64573
2.53363
2.445
2.35195
2.24172
2.13228
2.06253
1.98347
1.90391
1.85096
1.79081
1.6988
1.64356
1.61329
1.56418
1.50389
1.47088
1.43946
1.388
1.32146
1.3032
1.28751
1.26118
1.21863
1.19431
1.18671
1.2135
1.30988
1.47688
1.69796
1.88887
1.96635
2.017
2.02997
2.00739
1.95122
1.87669
1.81042
1.75217
1.69907
1.64862
1.60723
1.57469
1.53999
1.50117
1.46823
1.44525
1.43199
1.42639
1.42529
1.4209
1.40877
1.40426
1.40331
1.40704
1.42776
1.47277
1.51758
1.52876
1.52582
1.50924
1.47285
1.45356
1.45064
1.44712
1.44296
1.44181
1.45799
1.47102
1.4693
1.45875
1.44154
1.42905
1.42196
1.41929
1.42243
1.43806
1.46707
1.4993
1.51732
1.51844
1.51591
1.5145
1.51653
1.5282
1.64407
2.89265
3.91431
3.98289
3.88002
3.68181
3.49251
3.33755
3.18292
3.02602
2.88813
2.77008
2.66071
2.55077
2.44324
2.33389
2.24645
2.17568
2.08966
1.98313
1.92611
1.88598
1.81456
1.74056
1.69409
1.63716
1.56745
1.53651
1.51308
1.46873
1.40288
1.37008
1.34727
1.32169
1.30556
1.33689
1.45684
1.65708
1.89462
2.07434
2.20289
2.19135
2.17002
2.15216
2.10905
2.04751
1.97306
1.90378
1.84903
1.79812
1.74739
1.69988
1.65985
1.62388
1.59574
1.5775
1.55373
1.52043
1.48489
1.45811
1.44099
1.42369
1.40291
1.39109
1.38726
1.38891
1.39089
1.39904
1.42032
1.44077
1.44282
1.43298
1.41244
1.40116
1.40002
1.40231
1.40768
1.42139
1.43878
1.43972
1.43321
1.42276
1.41559
1.40931
1.40247
1.39654
1.39447
1.39972
1.42867
1.47404
1.48657
1.49045
1.49242
1.4901
1.48819
1.49998
1.40867
1.71623
2.95557
3.88593
3.92125
3.8352
3.64512
3.45853
3.31082
3.17091
3.0158
2.87112
2.77124
2.67361
2.56567
2.43807
2.3408
2.2735
2.19332
2.10049
2.02075
1.96924
1.89761
1.8221
1.77922
1.73172
1.65848
1.6091
1.57609
1.52892
1.47056
1.44616
1.43923
1.48127
1.62313
1.87026
2.1235
2.32182
2.4473
2.43413
2.36812
2.31036
2.26118
2.20701
2.14354
2.06908
2.00047
1.95037
1.90854
1.8643
1.81696
1.76885
1.72351
1.68218
1.6578
1.64358
1.62491
1.59451
1.55232
1.50624
1.46686
1.44201
1.42361
1.40534
1.3947
1.38735
1.38201
1.38223
1.38023
1.37914
1.37676
1.36514
1.34831
1.34071
1.33939
1.34307
1.35949
1.38812
1.40785
1.406
1.39425
1.38025
1.37638
1.37651
1.3748
1.37066
1.36926
1.37322
1.39438
1.43152
1.44372
1.44824
1.45546
1.45707
1.45818
1.4775
1.40006
1.41376
1.75737
2.97718
3.82924
3.86401
3.79928
3.62909
3.44314
3.2899
3.14456
3.00787
2.88949
2.78106
2.66945
2.55038
2.46648
2.38313
2.2922
2.1859
2.11039
2.06552
1.99923
1.90643
1.84981
1.80758
1.74468
1.69786
1.66097
1.61466
1.56791
1.59545
1.75058
2.0588
2.36859
2.59137
2.71323
2.69759
2.6279
2.52466
2.43761
2.37399
2.30988
2.24032
2.16104
2.07942
2.04207
2.02087
1.9956
1.95757
1.89764
1.83123
1.78593
1.75332
1.72683
1.70435
1.68133
1.65352
1.61882
1.57847
1.53547
1.4888
1.44634
1.42987
1.41964
1.40454
1.38878
1.37769
1.36934
1.3617
1.35157
1.33102
1.31113
1.30682
1.30348
1.30303
1.31065
1.33202
1.3433
1.3397
1.32815
1.32009
1.31691
1.31692
1.32074
1.32866
1.34035
1.35309
1.36537
1.37889
1.38612
1.38975
1.39865
1.41137
1.41995
1.4478
1.40001
1.40012
1.4176
1.76884
2.95892
3.7199
3.8258
3.78337
3.61703
3.438
3.27056
3.12453
3.00874
2.90146
2.78158
2.66688
2.57963
2.48874
2.40036
2.29853
2.21016
2.15583
2.08655
2.00018
1.94346
1.90008
1.82118
1.76771
1.76359
1.81536
1.98073
2.27128
2.58259
2.80776
2.9598
2.95493
2.89891
2.79713
2.6916
2.60334
2.52501
2.44887
2.37056
2.27582
2.17888
2.13922
2.11698
2.09528
2.0689
2.02932
1.96927
1.90115
1.84748
1.8077
1.77357
1.74924
1.72812
1.7002
1.66135
1.61262
1.56858
1.54037
1.51853
1.49732
1.47477
1.45009
1.42543
1.40364
1.38334
1.36527
1.34896
1.32495
1.30074
1.29403
1.2903
1.28698
1.28851
1.29329
1.29198
1.28575
1.27357
1.26576
1.26237
1.26094
1.26346
1.27658
1.30108
1.32167
1.32216
1.31628
1.31679
1.3219
1.33047
1.34889
1.36951
1.40883
1.40001
1.40001
1.40016
1.41873
1.76175
2.84873
3.63045
3.80491
3.76681
3.61124
3.42418
3.25129
3.12558
3.01104
2.88959
2.79107
2.70081
2.60352
2.50578
2.39487
2.32624
2.26315
2.18358
2.07991
2.01268
1.99266
1.9521
1.99564
2.17645
2.54643
2.94793
3.18368
3.23945
3.18143
3.125
3.02148
2.90598
2.81006
2.73061
2.66456
2.59704
2.51705
2.42228
2.32932
2.26635
2.23033
2.20074
2.16983
2.13187
2.08106
2.02464
1.97288
1.92484
1.87653
1.82506
1.78529
1.7611
1.74194
1.71626
1.67136
1.60483
1.56194
1.54868
1.53762
1.52257
1.49809
1.46403
1.43185
1.40822
1.38752
1.36356
1.33235
1.30335
1.28912
1.28501
1.28483
1.28067
1.27405
1.26743
1.26042
1.24598
1.22984
1.22635
1.22507
1.22614
1.23647
1.25232
1.25632
1.25286
1.24678
1.24183
1.24436
1.25173
1.27081
1.29997
1.34814
1.40001
1.40001
1.40001
1.40018
1.41762
1.72292
2.68227
3.574
3.77229
3.73013
3.58859
3.39324
3.25074
3.12009
2.99888
2.90949
2.81354
2.71944
2.61067
2.50461
2.44137
2.35887
2.27501
2.19463
2.13712
2.19943
2.44474
2.89
3.27269
3.62021
3.67637
3.58801
3.49133
3.35252
3.1947
3.05812
2.95378
2.88173
2.81298
2.74064
2.66263
2.57951
2.49784
2.42688
2.36569
2.31057
2.26748
2.22995
2.18722
2.13571
2.08312
2.03416
1.98701
1.93533
1.88251
1.84425
1.81124
1.77898
1.74744
1.7088
1.66206
1.62268
1.58911
1.56272
1.54124
1.52229
1.50222
1.46881
1.41999
1.382
1.36322
1.35212
1.33712
1.30868
1.28564
1.28019
1.27623
1.26882
1.25931
1.24979
1.23687
1.21666
1.20886
1.20734
1.20761
1.21366
1.21542
1.21243
1.20791
1.20246
1.19461
1.19115
1.19464
1.20621
1.22826
1.26447
1.40001
1.40001
1.40001
1.40001
1.40017
1.41437
1.65853
2.52835
3.51275
3.70913
3.65826
3.54262
3.40464
3.24721
3.11158
3.02074
2.9273
2.83372
2.70929
2.62571
2.54862
2.46934
2.39684
2.45538
2.69029
3.15892
3.68742
3.91017
4.00326
3.95756
3.82334
3.67643
3.55246
3.43085
3.28911
3.13513
3.02079
2.94531
2.88687
2.82601
2.75776
2.68501
2.60242
2.51745
2.43424
2.35999
2.31066
2.27505
2.24001
2.20056
2.1548
2.09367
2.02164
1.95716
1.91035
1.88344
1.86199
1.83554
1.79309
1.72572
1.67052
1.64556
1.6279
1.60896
1.58679
1.55956
1.53181
1.49848
1.4555
1.41539
1.3867
1.36343
1.33997
1.31729
1.30211
1.29376
1.28655
1.27773
1.26776
1.25633
1.23982
1.21642
1.20487
1.20234
1.20173
1.20469
1.20553
1.20183
1.19684
1.19193
1.18581
1.17742
1.17522
1.17518
1.18064
1.19738
1.40001
1.40001
1.40001
1.40001
1.40001
1.40012
1.41033
1.59757
2.40916
3.39508
3.60638
3.59466
3.55141
3.4151
3.24691
3.13223
3.03468
2.9373
2.80008
2.74701
2.67723
2.73901
3.03838
3.55942
4.0869
4.36752
4.48969
4.41852
4.28703
4.1078
3.91983
3.74691
3.60681
3.49356
3.36345
3.19814
3.10432
3.04305
2.98154
2.91782