/*--------------------------------*- C++ -*----------------------------------*\
  =========                 |
  \\      /  F ield         | OpenFOAM: The Open Source CFD Toolbox
   \\    /   O peration     | Website:  https://openfoam.org
    \\  /    A nd           | Version:  7
     \\/     M anipulation  |
\*---------------------------------------------------------------------------*/
FoamFile
{
    version     2.0;
    format      ascii;
    class       volVectorField;
    location    "1";
    object      U;
}
// * * * * * * * * * * * * * * * * * * * * * * * * * * * * * * * * * * * * * //

dimensions      [0 1 -1 0 0 0 0];

internalField   nonuniform List<vector> 
4032
(
(3 -8.4042e-17 0)
(3 -2.38672e-16 0)
(3 -4.33663e-16 0)
(3 4.59449e-17 0)
(3 1.46796e-16 0)
(3 2.71843e-16 0)
(3 1.79447e-16 0)
(3 -1.43104e-16 0)
(3 -9.36238e-16 0)
(3 -1.03082e-15 0)
(3 -8.13152e-16 0)
(3 1.23236e-16 0)
(3 9.44999e-16 0)
(1.4436 0.0144611 0)
(0.714992 0.0129203 0)
(0.638408 0.0279321 0)
(0.575495 0.0326135 0)
(0.504934 0.0337611 0)
(0.433766 0.0325354 0)
(0.362808 0.0325108 0)
(0.289477 0.0337091 0)
(0.215811 0.0371104 0)
(0.135658 0.0402338 0)
(0.0504197 0.045662 0)
(3 -1.27352e-16 0)
(3 -7.62973e-16 0)
(3 -1.05362e-15 0)
(3 -7.54872e-16 0)
(3 -2.59319e-16 0)
(3 -6.66575e-17 0)
(3 -2.6873e-16 0)
(3 -4.92527e-16 0)
(3 -8.07963e-16 0)
(3 -7.91552e-16 0)
(3 -4.6678e-16 0)
(3 5.97838e-16 0)
(3 1.7559e-15 0)
(1.47787 0.0725407 0)
(0.704346 0.0605074 0)
(0.619062 0.0855191 0)
(0.553459 0.0962993 0)
(0.482401 0.0976085 0)
(0.413138 0.093957 0)
(0.345249 0.0956988 0)
(0.274848 0.100967 0)
(0.205147 0.112619 0)
(0.128316 0.123013 0)
(0.048037 0.138874 0)
(3 -1.22734e-17 0)
(3 -3.99185e-16 0)
(3 -1.41247e-15 0)
(3 -1.55117e-15 0)
(3 -1.12057e-15 0)
(3 -8.46846e-16 0)
(3 -1.78424e-16 0)
(3 1.43609e-16 0)
(3 3.88022e-16 0)
(3 -2.62364e-16 0)
(3 -1.24814e-15 0)
(3 -4.69072e-16 0)
(3 -1.21723e-15 0)
(1.58626 0.131874 0)
(0.714583 0.113342 0)
(0.619895 0.148552 0)
(0.550202 0.165446 0)
(0.476322 0.165163 0)
(0.406625 0.157198 0)
(0.33952 0.159198 0)
(0.269827 0.167031 0)
(0.201294 0.184975 0)
(0.124491 0.201147 0)
(0.0472092 0.225715 0)
(3 2.35094e-16 0)
(3 4.16126e-16 0)
(3 3.18786e-16 0)
(3 5.09356e-16 0)
(3 7.9577e-18 0)
(3 -2.06455e-16 0)
(3 -1.80786e-16 0)
(3 -6.45666e-17 0)
(3 -7.70077e-17 0)
(3 2.35406e-17 0)
(3 -1.21481e-16 0)
(3 -4.17414e-16 0)
(3 -8.81604e-16 0)
(1.76608 0.183279 0)
(0.735699 0.171846 0)
(0.62548 0.213351 0)
(0.554101 0.234614 0)
(0.483053 0.232543 0)
(0.418409 0.220889 0)
(0.353867 0.224736 0)
(0.283468 0.236864 0)
(0.212144 0.261481 0)
(0.130951 0.283823 0)
(0.0481801 0.314157 0)
(3 -5.73972e-17 0)
(3 2.00907e-16 0)
(3 9.18209e-16 0)
(3 8.35225e-16 0)
(3 8.2602e-16 0)
(3 3.39786e-16 0)
(3 -4.1832e-16 0)
(3 -3.5921e-16 0)
(3 8.41785e-16 0)
(3 1.94039e-15 0)
(3 2.24955e-15 0)
(3 1.53202e-15 0)
(3 -7.1653e-16 0)
(2.00994 0.22811 0)
(0.764975 0.242216 0)
(0.629961 0.2828 0)
(0.568092 0.303514 0)
(0.513778 0.295771 0)
(0.458238 0.280653 0)
(0.397291 0.287836 0)
(0.325819 0.307452 0)
(0.250183 0.340902 0)
(0.157954 0.375391 0)
(0.0605869 0.415816 0)
(3 -5.78518e-18 0)
(3 2.64566e-16 0)
(3 2.93702e-16 0)
(3 2.76886e-16 0)
(3 3.01852e-17 0)
(3 -3.23494e-17 0)
(3 1.79491e-16 0)
(3 -1.90898e-17 0)
(3 -1.84364e-16 0)
(3 2.38379e-16 0)
(3 4.02724e-16 0)
(3 1.89867e-15 0)
(3 -3.7735e-16 0)
(2.34898 0.255869 0)
(0.833885 0.320764 0)
(0.670306 0.343469 0)
(0.624077 0.351364 0)
(0.579728 0.340056 0)
(0.524816 0.330425 0)
(0.458816 0.34835 0)
(0.379069 0.386369 0)
(0.285549 0.438886 0)
(0.177805 0.494224 0)
(0.0578763 0.544021 0)
(3 -1.43244e-17 0)
(3 -2.22852e-16 0)
(3 -7.09982e-16 0)
(3 -5.10801e-16 0)
(3 -8.22666e-16 0)
(3 -5.0383e-16 0)
(3 1.47015e-17 0)
(3 -1.68511e-16 0)
(3 -5.67633e-16 0)
(3 -3.21163e-16 0)
(3 -3.89828e-17 0)
(3 1.06281e-16 0)
(3 -4.51111e-16 0)
(2.78638 0.189007 0)
(0.973305 0.375204 0)
(0.73812 0.375359 0)
(0.694947 0.391555 0)
(0.645937 0.392609 0)
(0.587204 0.394335 0)
(0.514003 0.425311 0)
(0.428479 0.481996 0)
(0.337448 0.550942 0)
(0.235636 0.62168 0)
(0.0968809 0.692321 0)
(3 -1.74886e-16 0)
(3 -8.19998e-16 0)
(3 -8.54246e-16 0)
(3 -6.99053e-16 0)
(3 -6.33959e-16 0)
(3 -8.45678e-16 0)
(3 -9.77549e-16 0)
(3 4.92752e-17 0)
(3 1.46932e-15 0)
(3 1.39648e-15 0)
(3 7.71509e-16 0)
(3 7.67137e-17 0)
(3 6.71756e-16 0)
(3.02151 0.0311266 0)
(1.14071 0.394584 0)
(0.781283 0.430855 0)
(0.720485 0.462403 0)
(0.65469 0.463107 0)
(0.589515 0.469771 0)
(0.525393 0.51008 0)
(0.463413 0.575884 0)
(0.390633 0.663199 0)
(0.272461 0.78881 0)
(0.148199 0.959333 0)
(3 6.26168e-17 0)
(3 3.85593e-17 0)
(3 2.72838e-16 0)
(3 3.39185e-16 0)
(3 8.56627e-16 0)
(3 2.42421e-16 0)
(3 1.58374e-17 0)
(3 -1.47464e-16 0)
(3 -2.19769e-16 0)
(3 7.03172e-16 0)
(3 6.04251e-16 0)
(3 2.17359e-16 0)
(3 -7.25476e-16 0)
(3.0027 0.000657279 0)
(1.38367 0.430997 0)
(0.776623 0.492418 0)
(0.702776 0.527185 0)
(0.655464 0.528094 0)
(0.612491 0.536152 0)
(0.569677 0.575781 0)
(0.528677 0.64999 0)
(0.491261 0.773952 0)
(0.467246 0.948335 0)
(0.589383 1.23695 0)
(3 -2.88663e-16 0)
(3 -1.26659e-16 0)
(3 -1.08571e-16 0)
(3 -3.35494e-16 0)
(3 1.15635e-16 0)
(3 8.77504e-16 0)
(3 7.57923e-16 0)
(3 6.14079e-16 0)
(3 3.55061e-16 0)
(3 2.35289e-16 0)
(3 -6.65103e-17 0)
(3 -9.08074e-16 0)
(3 -2.48587e-15 0)
(3.00001 4.19199e-07 0)
(1.89445 0.487615 0)
(0.844492 0.581927 0)
(0.741334 0.581187 0)
(0.708972 0.579384 0)
(0.679838 0.586703 0)
(0.651856 0.62472 0)
(0.634126 0.702662 0)
(0.630577 0.83175 0)
(0.697784 0.978942 0)
(0.992117 1.15451 0)
(3 5.58876e-18 0)
(3 -1.43035e-16 0)
(3 -1.05886e-15 0)
(3 -1.19487e-15 0)
(3 -7.63217e-16 0)
(3 -9.64191e-17 0)
(3 2.29217e-16 0)
(3 9.18378e-16 0)
(3 1.08181e-15 0)
(3 4.50435e-16 0)
(3 -3.56719e-16 0)
(3 -5.87173e-16 0)
(3 6.36531e-16 0)
(3 -4.16307e-08 0)
(2.68772 0.323839 0)
(1.03978 0.630652 0)
(0.84331 0.60694 0)
(0.81373 0.60713 0)
(0.787112 0.625064 0)
(0.760495 0.667386 0)
(0.757785 0.745814 0)
(0.780011 0.861019 0)
(0.899081 0.981133 0)
(1.20919 1.08638 0)
(3 1.60954e-16 0)
(3 -1.50815e-16 0)
(3 -3.2138e-16 0)
(3 -1.27923e-16 0)
(3 3.18441e-16 0)
(3 2.99781e-16 0)
(3 9.93853e-16 0)
(3 9.71334e-16 0)
(3 -1.40105e-16 0)
(3 -6.59968e-16 0)
(3 -6.52975e-16 0)
(3 3.82877e-16 0)
(3 2.10234e-15 0)
(3 -1.13622e-08 0)
(3.07057 0.0349202 0)
(1.31751 0.620156 0)
(0.913289 0.680156 0)
(0.872498 0.678058 0)
(0.851203 0.689141 0)
(0.844657 0.721718 0)
(0.861723 0.782395 0)
(0.91177 0.867275 0)
(1.04841 0.958326 0)
(1.30799 1.01747 0)
(3 5.25973e-17 0)
(3 -1.31865e-16 0)
(3 1.87221e-16 0)
(3 4.44621e-16 0)
(3 7.85378e-16 0)
(3 9.69023e-16 0)
(3 6.41806e-16 0)
(3 1.53318e-16 0)
(3 -7.15818e-16 0)
(3 -8.07138e-16 0)
(3 -1.17975e-16 0)
(3 3.34702e-16 0)
(3 5.53689e-16 0)
(3 -4.63556e-10 0)
(3.00388 0.000206106 0)
(1.83504 0.632073 0)
(0.967371 0.755024 0)
(0.922542 0.734277 0)
(0.912736 0.729745 0)
(0.920675 0.750336 0)
(0.952337 0.797572 0)
(1.02219 0.867385 0)
(1.15973 0.938262 0)
(1.3718 0.978994 0)
(3 3.42469e-18 0)
(3 -2.67991e-16 0)
(3 -6.79731e-16 0)
(3 -6.65436e-16 0)
(3 -6.99727e-16 0)
(3 -6.04197e-16 0)
(3 -5.43492e-16 0)
(3 -6.24599e-16 0)
(3 -7.05608e-16 0)
(3 -2.95751e-16 0)
(3 1.91476e-17 0)
(3 -2.80176e-16 0)
(3 -2.16807e-16 0)
(3 -2.83859e-12 0)
(3.00001 -1.43161e-08 0)
(2.82322 0.308285 0)
(1.19716 0.763032 0)
(1.01196 0.75893 0)
(1.00325 0.753342 0)
(1.00193 0.766517 0)
(1.03257 0.803933 0)
(1.10507 0.853222 0)
(1.22861 0.902993 0)
(1.39619 0.931155 0)
(3 -5.16508e-17 0)
(3 -4.13499e-16 0)
(3 -5.04629e-16 0)
(3 -1.44947e-16 0)
(3 -5.94464e-16 0)
(3 -5.1244e-16 0)
(3 9.9344e-17 0)
(3 1.89223e-16 0)
(3 8.13727e-17 0)
(3 5.51806e-16 0)
(3 1.22622e-15 0)
(3 5.00195e-16 0)
(3 -1.43667e-16 0)
(3 -1.84258e-15 0)
(3 -1.67512e-07 0)
(3.05208 0.0175545 0)
(1.57561 0.738308 0)
(1.05385 0.825283 0)
(1.0498 0.821773 0)
(1.0613 0.820601 0)
(1.09681 0.831076 0)
(1.16954 0.858434 0)
(1.27848 0.88968 0)
(1.41613 0.90915 0)
(3 -9.29464e-17 0)
(3 -3.22433e-16 0)
(3 -2.23353e-16 0)
(3 5.36757e-16 0)
(3 7.46601e-16 0)
(3 8.76224e-16 0)
(3 2.07656e-16 0)
(3 -1.41396e-16 0)
(3 6.00326e-16 0)
(3 7.95702e-16 0)
(3 7.69085e-16 0)
(3 8.64458e-16 0)
(3 7.18112e-16 0)
(3 1.70008e-15 0)
(3 -3.07176e-08 0)
(3.00113 0.000191532 0)
(2.50882 0.51596 0)
(1.20304 0.850858 0)
(1.11223 0.827661 0)
(1.14142 0.823242 0)
(1.17149 0.83412 0)
(1.22983 0.852274 0)
(1.31963 0.873606 0)
(1.43341 0.889146 0)
(3 -8.86268e-17 0)
(3 -1.60289e-16 0)
(3 9.6522e-18 0)
(3 2.09409e-16 0)
(3 4.0064e-16 0)
(3 2.72534e-16 0)
(3 -9.82886e-16 0)
(3 -1.96738e-15 0)
(3 -1.32591e-15 0)
(3 -2.91099e-16 0)
(3 2.25199e-16 0)
(3 6.80491e-16 0)
(3 1.51224e-15 0)
(3 8.65041e-16 0)
(3 -2.22048e-09 0)
(3 1.04758e-07 0)
(3.06385 0.0567271 0)
(1.59506 0.805037 0)
(1.16214 0.870592 0)
(1.18505 0.869567 0)
(1.22155 0.872949 0)
(1.27285 0.881041 0)
(1.34876 0.890692 0)
(1.44256 0.897771 0)
(3 -2.4113e-16 0)
(3 5.75322e-17 0)
(3 1.61598e-17 0)
(3 -7.491e-16 0)
(3 -1.18609e-15 0)
(3 -1.69349e-15 0)
(3 -1.17122e-15 0)
(3 -7.92401e-16 0)
(3 -8.78668e-16 0)
(3 6.02614e-16 0)
(3 7.05389e-16 0)
(3 8.7964e-16 0)
(3 7.71326e-16 0)
(3 -5.23847e-16 0)
(3 -1.51243e-11 0)
(3 -1.50669e-07 0)
(3.00405 0.0012191 0)
(2.51073 0.564217 0)
(1.29041 0.906908 0)
(1.23309 0.876063 0)
(1.2838 0.868862 0)
(1.32772 0.877457 0)
(1.39123 0.884384 0)
(1.46721 0.888859 0)
(3 1.16738e-16 0)
(3 6.72292e-16 0)
(3 1.43756e-16 0)
(3 -1.01711e-15 0)
(3 -1.05621e-15 0)
(3 -5.55194e-16 0)
(3 1.11176e-16 0)
(3 1.32601e-15 0)
(3 1.18936e-15 0)
(3 8.55866e-16 0)
(3 1.86395e-16 0)
(3 -4.43072e-17 0)
(3 8.62716e-19 0)
(3 6.79552e-18 0)
(3 -3.59237e-14 0)
(3 -4.71239e-08 0)
(3.00001 4.06839e-06 0)
(3.05435 0.0616788 0)
(1.728 0.826497 0)
(1.2788 0.912389 0)
(1.31326 0.910167 0)
(1.35631 0.915635 0)
(1.41217 0.916864 0)
(1.47994 0.915696 0)
(3 2.36227e-16 0)
(3 7.02992e-16 0)
(3 9.12533e-16 0)
(3 5.41014e-16 0)
(3 3.31186e-16 0)
(3 7.20307e-16 0)
(3 1.09076e-15 0)
(3 1.29576e-15 0)
(3 8.74089e-17 0)
(3 -5.4854e-16 0)
(3 -1.05869e-15 0)
(3 -3.18875e-16 0)
(3 1.43024e-15 0)
(3 2.40074e-15 0)
(3 1.94583e-15 0)
(3 -3.40306e-09 0)
(3 -1.51021e-09 0)
(3.00327 0.00177321 0)
(2.67901 0.470519 0)
(1.46038 0.949556 0)
(1.35032 0.918315 0)
(1.40301 0.913644 0)
(1.44965 0.91306 0)
(1.5113 0.909979 0)
(3 -1.05551e-17 0)
(3 -7.03891e-17 0)
(3 7.25932e-16 0)
(3 1.63004e-15 0)
(3 1.67414e-15 0)
(3 3.61542e-16 0)
(3 8.81597e-17 0)
(3 4.35811e-17 0)
(3 4.40348e-16 0)
(3 5.21802e-16 0)
(3 4.06612e-16 0)
(3 7.11774e-16 0)
(3 1.49228e-15 0)
(3 2.83374e-15 0)
(3 3.56863e-15 0)
(3 -2.04206e-11 0)
(3 -2.50632e-10 0)
(3.00001 6.49772e-06 0)
(3.03416 0.0363723 0)
(2.02719 0.809536 0)
(1.42309 0.958446 0)
(1.43261 0.948852 0)
(1.47835 0.942088 0)
(1.53035 0.938356 0)
(3 7.18119e-17 0)
(3 2.30748e-16 0)
(3 5.00569e-16 0)
(3 1.2483e-15 0)
(3 1.18162e-15 0)
(3 9.71987e-16 0)
(3 -9.26316e-17 0)
(3 -4.14741e-16 0)
(3 6.14255e-16 0)
(3 1.37435e-15 0)
(3 1.74149e-15 0)
(3 1.05093e-15 0)
(3 4.64842e-16 0)
(3 8.674e-16 0)
(3 1.78718e-15 0)
(3 -5.41521e-15 0)
(3 -5.94546e-12 0)
(3 1.45848e-09 0)
(3.00099 0.00117598 0)
(2.8841 0.275878 0)
(1.75509 0.922671 0)
(1.46625 0.966274 0)
(1.52537 0.951433 0)
(1.56903 0.941087 0)
(3 2.87209e-17 0)
(3 -1.18369e-16 0)
(3 -5.97769e-18 0)
(3 -1.29415e-16 0)
(3 -3.95857e-16 0)
(3 1.62428e-16 0)
(3 1.83936e-16 0)
(3 -1.43625e-16 0)
(3 -9.0761e-17 0)
(3 8.7455e-17 0)
(3 6.72772e-16 0)
(3 6.88097e-16 0)
(3 2.44008e-16 0)
(3 2.01836e-16 0)
(3 4.34461e-16 0)
(3 3.2633e-16 0)
(3 -8.19924e-14 0)
(3 -1.10212e-15 0)
(3 3.13555e-06 0)
(3.00824 0.0169866 0)
(2.49979 0.600104 0)
(1.63112 0.99431 0)
(1.54735 0.979612 0)
(1.6039 0.964345 0)
(3 5.17002e-17 0)
(3 -2.40943e-16 0)
(3 -5.72631e-16 0)
(3 -1.30094e-15 0)
(3 -1.72016e-15 0)
(3 -1.07149e-15 0)
(3 -3.28395e-16 0)
(3 -1.51175e-16 0)
(3 -5.31784e-16 0)
(3 3.03463e-16 0)
(3 6.71204e-16 0)
(3 9.86498e-16 0)
(3 3.77476e-16 0)
(3 -5.73426e-16 0)
(3 -1.28981e-15 0)
(3 -9.61025e-16 0)
(3 -1.9242e-15 0)
(3 -6.60045e-14 0)
(3 1.0237e-09 0)
(3.00004 0.000288608 0)
(2.99285 0.0840474 0)
(2.17805 0.804051 0)
(1.62296 1.00372 0)
(1.61951 1.00297 0)
(3 4.041e-17 0)
(3 -4.18619e-16 0)
(3 -8.19309e-16 0)
(3 -6.3736e-16 0)
(3 -4.05474e-16 0)
(3 -3.71492e-16 0)
(3 -3.26346e-16 0)
(3 -1.21587e-18 0)
(3 -1.68535e-16 0)
(3 7.7781e-17 0)
(3 7.2526e-18 0)
(3 -4.19859e-16 0)
(3 -1.52301e-15 0)
(3 -2.09687e-15 0)
(3 -2.42115e-15 0)
(3 -2.38303e-15 0)
(3 -1.37248e-15 0)
(3 -3.34825e-14 0)
(3 5.85212e-14 0)
(3 3.73888e-07 0)
(3.00049 0.00345634 0)
(2.87879 0.256416 0)
(1.99857 0.890407 0)
(1.68435 1.00799 0)
(3 -4.95816e-17 0)
(3 -4.64962e-16 0)
(3 -6.18413e-16 0)
(3 5.56382e-16 0)
(3 1.30525e-15 0)
(3 4.61355e-16 0)
(3 4.43663e-16 0)
(3 6.10489e-16 0)
(3 -4.40864e-16 0)
(3 -9.83897e-16 0)
(3 -1.44568e-15 0)
(3 -2.64656e-15 0)
(3 -3.0485e-15 0)
(3 -2.91871e-15 0)
(3 -1.96986e-15 0)
(3 -2.30425e-15 0)
(3 -1.10282e-15 0)
(3 -3.89517e-15 0)
(3 -8.32276e-15 0)
(3 1.14425e-10 0)
(3 1.5204e-05 0)
(2.99946 0.0173203 0)
(2.69437 0.435416 0)
(1.92472 0.941376 0)
(3 -3.07476e-17 0)
(3 -4.42143e-17 0)
(3 -9.11429e-18 0)
(3 5.63347e-16 0)
(3 7.71467e-16 0)
(3 7.77159e-16 0)
(3 6.63645e-16 0)
(3 4.37499e-16 0)
(3 -4.03887e-16 0)
(3 -1.55112e-15 0)
(3 -2.6662e-15 0)
(3 -2.98952e-15 0)
(3 -2.65572e-15 0)
(3 -1.56311e-15 0)
(3 -9.378e-16 0)
(3 1.1299e-16 0)
(3 8.72851e-16 0)
(3 1.3048e-15 0)
(3 -3.56228e-15 0)
(3 4.69289e-15 0)
(3 1.02488e-08 0)
(2.99997 0.000218579 0)
(2.99035 0.0441906 0)
(2.52753 0.575526 0)
(3 -2.5272e-16 0)
(3 3.96952e-16 0)
(3 7.86324e-16 0)
(3 1.61262e-16 0)
(3 4.99595e-17 0)
(3 -2.32881e-16 0)
(3 -5.63475e-16 0)
(3 -1.73288e-16 0)
(3 3.45703e-16 0)
(3 5.64849e-17 0)
(3 -4.62475e-16 0)
(3 -1.16351e-15 0)
(3 -9.94432e-16 0)
(3 -1.2061e-15 0)
(3 -1.29162e-15 0)
(3 -9.95927e-17 0)
(3 8.56224e-16 0)
(3 7.74458e-16 0)
(3 -6.71758e-16 0)
(3 -2.11971e-15 0)
(3 1.44461e-12 0)
(3 2.90905e-07 0)
(2.99983 0.00114449 0)
(2.96807 0.084578 0)
(3 1.01507e-16 0)
(3 5.99198e-16 0)
(3 6.17819e-16 0)
(3 5.05404e-16 0)
(3 -1.61336e-16 0)
(3 -7.62724e-16 0)
(3 -1.07526e-15 0)
(3 -7.12265e-16 0)
(3 -7.44523e-17 0)
(3 4.90965e-16 0)
(3 9.64855e-16 0)
(3 1.29447e-15 0)
(3 1.6027e-15 0)
(3 4.79414e-16 0)
(3 -1.83245e-15 0)
(3 -2.15261e-15 0)
(3 -1.99115e-15 0)
(3 -2.24605e-15 0)
(3 -2.35215e-15 0)
(3 -2.66172e-15 0)
(3 -1.86111e-15 0)
(3 8.94133e-11 0)
(3 2.80905e-06 0)
(2.99945 0.00334298 0)
(3 1.79138e-16 0)
(3 1.25272e-16 0)
(3 8.29805e-17 0)
(3 -1.17713e-17 0)
(3 5.62321e-17 0)
(3 9.64397e-18 0)
(3 -1.90571e-17 0)
(3 -3.80332e-16 0)
(3 -5.36299e-16 0)
(3 -1.65353e-16 0)
(3 6.08032e-16 0)
(3 9.79891e-16 0)
(3 6.93137e-16 0)
(3 2.93776e-16 0)
(3 -1.48953e-16 0)
(3 -5.86175e-16 0)
(3 -1.22509e-15 0)
(3 -1.82128e-15 0)
(3 -1.31151e-15 0)
(3 2.24938e-16 0)
(3 -2.23688e-16 0)
(3 6.44984e-15 0)
(3 1.72352e-09 0)
(3 1.3056e-05 0)
(3 6.80332e-17 0)
(3 1.67363e-17 0)
(3 6.08138e-17 0)
(3 -4.03772e-16 0)
(3 -7.21731e-17 0)
(3 2.74608e-16 0)
(3 1.07129e-15 0)
(3 1.47672e-15 0)
(3 1.51894e-15 0)
(3 5.59899e-16 0)
(3 -3.60046e-16 0)
(3 -6.53759e-16 0)
(3 -4.68169e-16 0)
(3 6.656e-16 0)
(3 1.65114e-15 0)
(3 1.39786e-15 0)
(3 2.56514e-16 0)
(3 -1.3716e-15 0)
(3 -1.65527e-15 0)
(3 -9.16525e-16 0)
(3 2.33144e-16 0)
(3 -1.4202e-15 0)
(3 1.31034e-13 0)
(3 1.17322e-08 0)
(3 2.8777e-16 0)
(3 5.43115e-16 0)
(3 -4.34985e-17 0)
(3 1.00011e-16 0)
(3 -2.46186e-16 0)
(3 -5.56379e-16 0)
(3 6.65313e-17 0)
(3 7.92681e-16 0)
(3 1.43083e-15 0)
(3 7.6037e-16 0)
(3 1.35283e-16 0)
(3 -6.72355e-16 0)
(3 -9.10237e-16 0)
(3 -4.17627e-16 0)
(3 7.51811e-17 0)
(3 -9.08669e-16 0)
(3 -9.11623e-16 0)
(3 1.39512e-16 0)
(3 -4.62333e-16 0)
(3 -7.66132e-16 0)
(3 -2.77362e-16 0)
(3 -9.37821e-17 0)
(3 -1.00835e-16 0)
(3 1.32983e-12 0)
(3 -5.23906e-17 0)
(3 2.48731e-16 0)
(3 9.05188e-16 0)
(3 8.42913e-16 0)
(3 3.33447e-16 0)
(3 1.6881e-16 0)
(3 3.16782e-16 0)
(3 4.75121e-16 0)
(3 8.13888e-16 0)
(3 1.68896e-16 0)
(3 -9.14412e-16 0)
(3 -9.8923e-16 0)
(3 -1.79831e-15 0)
(3 -2.69114e-15 0)
(3 -1.64822e-15 0)
(3 -1.84293e-15 0)
(3 -8.09275e-16 0)
(3 1.35512e-15 0)
(3 2.32922e-15 0)
(3 2.22916e-15 0)
(3 1.64769e-15 0)
(3 1.50432e-15 0)
(3 8.76092e-16 0)
(3 -1.10391e-15 0)
(3 -1.96072e-16 0)
(3 -4.14041e-16 0)
(3 6.00782e-16 0)
(3 5.05521e-16 0)
(3 -1.08209e-16 0)
(3 -1.82498e-16 0)
(3 1.75451e-16 0)
(3 -7.25792e-17 0)
(3 -3.64616e-16 0)
(3 -9.90089e-16 0)
(3 -1.29378e-15 0)
(3 -1.81174e-15 0)
(3 -1.41998e-15 0)
(3 -4.75773e-16 0)
(3 -3.07404e-16 0)
(3 1.99863e-16 0)
(3 -1.17991e-16 0)
(3 -5.20119e-16 0)
(3 4.42776e-16 0)
(3 6.3696e-16 0)
(3 1.98202e-16 0)
(3 6.75328e-16 0)
(3 8.16602e-16 0)
(3 -4.11746e-16 0)
(3 -7.06807e-17 0)
(3 -4.10768e-17 0)
(3 5.71181e-17 0)
(3 7.58589e-17 0)
(3 -1.80016e-16 0)
(3 -3.15615e-16 0)
(3 3.05806e-18 0)
(3 -6.02402e-16 0)
(3 -1.72692e-15 0)
(3 -1.14198e-16 0)
(3 8.30761e-16 0)
(3 8.62804e-16 0)
(3 8.38619e-16 0)
(3 1.15027e-15 0)
(3 1.44486e-15 0)
(3 1.41119e-15 0)
(3 3.1136e-16 0)
(3 -1.21851e-15 0)
(3 -1.36096e-15 0)
(3 -1.34837e-15 0)
(3 -9.52269e-16 0)
(3 -6.44236e-16 0)
(3 -4.49643e-16 0)
(3 -3.62599e-16 0)
(3 -1.82602e-16 0)
(3 -2.10564e-16 0)
(3 -1.04507e-15 0)
(3 -1.13001e-15 0)
(3 -2.69402e-16 0)
(3 1.94398e-16 0)
(3 3.37058e-16 0)
(3 -6.41515e-17 0)
(3 -6.11115e-16 0)
(3 7.59905e-17 0)
(3 1.30808e-15 0)
(3 1.71808e-15 0)
(3 9.99773e-16 0)
(3 8.04012e-16 0)
(3 1.55752e-15 0)
(3 2.41342e-15 0)
(3 2.92176e-15 0)
(3 2.90584e-15 0)
(3 1.44213e-15 0)
(3 1.19096e-15 0)
(3 2.99303e-16 0)
(3 -2.25255e-15 0)
(3 -1.93038e-15 0)
(3 -1.67797e-15 0)
(3 -2.43096e-16 0)
(3 -1.08649e-15 0)
(3 -1.94265e-15 0)
(3 -1.81889e-15 0)
(3 -4.99775e-16 0)
(3 -3.1906e-16 0)
(3 -8.37726e-16 0)
(3 -1.326e-15 0)
(3 -1.19758e-15 0)
(3 -1.26536e-15 0)
(3 -8.70587e-16 0)
(3 2.98868e-16 0)
(3 1.27511e-15 0)
(3 5.85989e-16 0)
(3 1.34839e-15 0)
(3 1.87863e-15 0)
(3 2.75636e-15 0)
(3 3.30182e-15 0)
(3 2.84975e-15 0)
(3 5.71352e-16 0)
(3 -1.2209e-15 0)
(3 -2.33428e-15 0)
(3 -2.91652e-15 0)
(3 -1.85697e-15 0)
(3 -1.10842e-16 0)
(3 -4.76226e-16 0)
(3 -5.3168e-16 0)
(3 -1.48262e-16 0)
(3 6.93354e-16 0)
(3 5.1832e-16 0)
(3 2.63284e-16 0)
(3 6.44997e-17 0)
(3 2.66384e-16 0)
(3 4.263e-16 0)
(3 3.26415e-16 0)
(3 6.0133e-16 0)
(3 1.9441e-15 0)
(3 2.33642e-15 0)
(3 2.06786e-15 0)
(3 1.63956e-15 0)
(3 1.28079e-15 0)
(3 3.17439e-16 0)
(3 9.99711e-17 0)
(3 -5.07832e-16 0)
(3 -1.36229e-15 0)
(3 -2.11161e-15 0)
(3 -2.31305e-15 0)
(3 -1.28224e-15 0)
(3 -5.71858e-17 0)
(3 -1.69354e-16 0)
(3 -1.8754e-16 0)
(3 4.76893e-17 0)
(3 1.02705e-15 0)
(3 8.34766e-16 0)
(3 4.5283e-16 0)
(3 7.02368e-16 0)
(3 1.29902e-15 0)
(3 2.19461e-15 0)
(3 2.50632e-15 0)
(3 2.17238e-15 0)
(3 2.58715e-15 0)
(3 2.94193e-15 0)
(3 2.12727e-15 0)
(3 3.37964e-16 0)
(3 -6.14376e-16 0)
(3 -1.63628e-15 0)
(3 -1.78499e-15 0)
(3 -1.56966e-15 0)
(3 -2.11243e-15 0)
(3 -1.11865e-15 0)
(3 1.21752e-15 0)
(3 1.30912e-15 0)
(3 -2.31618e-17 0)
(3 -2.74608e-16 0)
(3 -2.82333e-16 0)
(3 3.80276e-17 0)
(3 4.29163e-16 0)
(3 3.69953e-19 0)
(3 -5.06815e-16 0)
(3 -6.81972e-16 0)
(3 6.15234e-16 0)
(3 1.01973e-15 0)
(3 1.18154e-15 0)
(3 2.02609e-15 0)
(3 2.4502e-15 0)
(3 1.75852e-15 0)
(3 1.32876e-15 0)
(3 2.0766e-16 0)
(3 -5.79298e-16 0)
(3 -8.01876e-16 0)
(3 -1.59992e-15 0)
(3 -1.64107e-15 0)
(3 -1.89235e-15 0)
(3 -1.13712e-15 0)
(3 2.21397e-16 0)
(3 1.67864e-15 0)
(1.56437 1.30887 0)
(2.1467 1.35158 0)
(2.41009 1.52452 0)
(2.50152 0.778999 0)
(2.61035 0.366969 0)
(2.7045 0.0202305 0)
(2.73124 -0.183564 0)
(2.75729 -0.259976 0)
(2.67471 -0.252562 0)
(2.60882 -0.339666 0)
(2.64109 -0.399451 0)
(2.63379 -0.268532 0)
(2.59404 -0.163563 0)
(2.54614 -0.150796 0)
(2.55592 -0.126941 0)
(2.57227 -0.0832308 0)
(2.58703 -0.0522962 0)
(2.59338 -0.042265 0)
(2.60744 -0.0354261 0)
(2.62314 -0.0257884 0)
(2.62492 -0.0207408 0)
(2.62151 -0.0165051 0)
(2.62044 -0.0143244 0)
(2.62823 -0.00497674 0)
(2.63594 0.0031688 0)
(2.6443 0.00590197 0)
(2.65797 0.00398014 0)
(2.67697 -0.00057852 0)
(2.69418 -0.00313367 0)
(2.71072 -0.00283061 0)
(2.71412 -0.00312412 0)
(2.71469 -0.00484539 0)
(2.71822 -0.00944246 0)
(2.72638 -0.0132117 0)
(2.74235 -0.0106537 0)
(2.75874 -0.00866018 0)
(2.7696 -0.00388423 0)
(2.77932 -0.00115303 0)
(2.79117 -0.00102086 0)
(2.80515 -0.00255762 0)
(2.81975 -0.00345551 0)
(2.83354 -0.00289332 0)
(2.84349 -0.000556409 0)
(2.84419 0.00116584 0)
(2.85277 0.00164572 0)
(2.86497 0.00173425 0)
(2.874 0.0020231 0)
(2.88156 0.00265066 0)
(2.88833 0.00285441 0)
(2.89616 0.00236005 0)
(2.90436 0.00189344 0)
(2.91012 0.000963475 0)
(2.91201 -0.00165657 0)
(2.91399 -0.00598585 0)
(2.92268 -0.00803192 0)
(2.9376 -0.00636748 0)
(2.95162 -0.00369772 0)
(2.96189 -0.00233521 0)
(2.96995 -0.00371049 0)
(2.97832 -0.00570686 0)
(2.98672 -0.00451392 0)
(2.99098 0.000301136 0)
(2.99374 0.00264275 0)
(2.99478 0.00291463 0)
(2.99561 0.00364331 0)
(2.99431 0.00432953 0)
(2.99173 0.00467249 0)
(2.9883 0.00512885 0)
(2.98238 0.00571014 0)
(2.97455 0.0076982 0)
(2.96768 0.0107729 0)
(2.96537 0.0116182 0)
(2.96196 0.0116294 0)
(2.96052 0.00894548 0)
(2.95454 0.00441746 0)
(2.94167 0.00105867 0)
(2.93215 0.000159496 0)
(2.91851 0.000975232 0)
(2.88874 0.00578669 0)
(2.8677 0.0110041 0)
(2.86027 0.0126297 0)
(2.85034 0.0142683 0)
(2.84555 0.0133739 0)
(2.84758 0.00943992 0)
(2.83809 0.00504033 0)
(2.82542 0.00397266 0)
(2.81497 0.00335431 0)
(2.78954 0.00396063 0)
(2.76726 0.00558021 0)
(2.76226 0.00595266 0)
(2.75777 0.00574929 0)
(2.75574 0.0072129 0)
(2.75538 0.0105291 0)
(2.75811 0.0133675 0)
(2.76896 0.00508099 0)
(2.76207 -0.00402118 0)
(1.81203 1.11453 0)
(2.36479 0.749386 0)
(2.61489 0.417919 0)
(2.74827 0.209624 0)
(2.83238 -0.190458 0)
(2.82739 -0.532619 0)
(2.82547 -0.584903 0)
(2.88214 -0.593446 0)
(2.88815 -0.534375 0)
(2.84598 -0.502614 0)
(2.81119 -0.466614 0)
(2.72938 -0.320036 0)
(2.66492 -0.196842 0)
(2.6174 -0.172001 0)
(2.60268 -0.152355 0)
(2.60685 -0.0863681 0)
(2.61725 -0.0277773 0)
(2.62312 -0.0150437 0)
(2.63433 -0.00363566 0)
(2.63354 0.00783653 0)
(2.62594 0.0148457 0)
(2.61337 0.0093403 0)
(2.6166 -0.00526824 0)
(2.62867 -0.00649357 0)
(2.64015 0.0046377 0)
(2.64804 0.0110539 0)
(2.65746 0.0058247 0)
(2.67499 -0.00578067 0)
(2.69687 -0.00804242 0)
(2.71497 -0.00585197 0)
(2.71772 -0.00508134 0)
(2.72361 -0.00790662 0)
(2.73144 -0.0170939 0)
(2.74046 -0.0244629 0)
(2.75415 -0.0220069 0)
(2.76944 -0.01263 0)
(2.78073 -0.00244712 0)
(2.79168 0.00402516 0)
(2.80558 0.00837314 0)
(2.82092 0.0101478 0)
(2.83484 0.00860961 0)
(2.84577 0.0062311 0)
(2.85233 0.00291039 0)
(2.8532 -0.00262183 0)
(2.86128 -0.00439179 0)
(2.87465 -0.00286599 0)
(2.88633 -0.000791774 0)
(2.89661 0.00281716 0)
(2.90536 0.00814201 0)
(2.91324 0.0138241 0)
(2.9195 0.0188597 0)
(2.92232 0.0203309 0)
(2.92102 0.0170528 0)
(2.92034 0.00654612 0)
(2.93279 -0.00573276 0)
(2.94478 -0.0131151 0)
(2.95775 -0.0143387 0)
(2.97158 -0.013076 0)
(2.98441 -0.0137599 0)
(2.99504 -0.0182201 0)
(3.0021 -0.0197405 0)
(3.0028 -0.0127773 0)
(2.99939 -0.00429785 0)
(2.99884 -0.00281962 0)
(2.99899 -0.00328705 0)
(2.99892 -0.00391314 0)
(2.99776 -0.0039678 0)
(2.99605 -0.00405472 0)
(2.9947 -0.00364033 0)
(2.99108 0.000595495 0)
(2.98395 0.0120394 0)
(2.97819 0.0219884 0)
(2.97377 0.0268293 0)
(2.96684 0.0295162 0)
(2.95489 0.0229517 0)
(2.94224 0.0141121 0)
(2.93067 0.00370694 0)
(2.91726 -0.0066552 0)
(2.89638 -0.00877562 0)
(2.87765 0.00346233 0)
(2.87077 0.0142256 0)
(2.86422 0.0262594 0)
(2.85737 0.0369386 0)
(2.85306 0.0345776 0)
(2.84678 0.0198595 0)
(2.83248 0.0063945 0)
(2.8204 -0.00236487 0)
(2.80278 -0.00730222 0)
(2.78243 -0.00374779 0)
(2.77551 -3.26495e-05 0)
(2.77261 0.00408118 0)
(2.76884 0.0119877 0)
(2.76342 0.0198884 0)
(2.7607 0.0306102 0)
(2.77241 0.0261027 0)
(2.7662 -0.00193301 0)
(1.73052 1.03828 0)
(2.03588 0.950644 0)
(2.39335 0.649825 0)
(2.66563 0.283027 0)
(2.72743 0.19446 0)
(2.76268 -0.0187452 0)
(2.79631 -0.15486 0)
(2.8356 -0.138407 0)
(2.89286 -0.265062 0)
(2.8967 -0.399013 0)
(2.89916 -0.483947 0)
(2.8773 -0.456606 0)
(2.82066 -0.428573 0)
(2.79044 -0.402636 0)
(2.77079 -0.344458 0)
(2.7213 -0.238936 0)
(2.701 -0.138977 0)
(2.69655 -0.0958144 0)
(2.69556 -0.0792493 0)
(2.67583 -0.040907 0)
(2.66671 -0.00479742 0)
(2.66063 -0.00250892 0)
(2.66734 -0.000633573 0)
(2.67066 0.00160675 0)
(2.67458 0.0119906 0)
(2.67767 0.0111217 0)
(2.68692 -0.000960182 0)
(2.69916 -0.0252757 0)
(2.7148 -0.0367799 0)
(2.72965 -0.0335861 0)
(2.73572 -0.0253544 0)
(2.73867 -0.0237001 0)
(2.74518 -0.0298866 0)
(2.75185 -0.0327317 0)
(2.76393 -0.0291096 0)
(2.77867 -0.0173688 0)
(2.78668 -0.00724768 0)
(2.8014 -0.00801927 0)
(2.81633 -0.0136119 0)
(2.83275 -0.0162344 0)
(2.84747 -0.0112284 0)
(2.85572 -0.000976384 0)
(2.85762 0.00398397 0)
(2.85909 -0.00324067 0)
(2.87089 -0.00865731 0)
(2.88535 -0.00849922 0)
(2.89972 -0.00714308 0)
(2.91213 -0.00454518 0)
(2.92177 -0.000374575 0)
(2.93028 0.00589428 0)
(2.93632 0.0126675 0)
(2.93669 0.018001 0)
(2.93112 0.016064 0)
(2.92967 0.00798751 0)
(2.94126 0.00272645 0)
(2.95189 -0.00083056 0)
(2.96389 -0.00235773 0)
(2.97859 -0.00234459 0)
(2.99332 -0.00270995 0)
(3.00486 -0.00354389 0)
(3.01248 -0.00243966 0)
(3.01528 0.00324271 0)
(3.0106 0.0139349 0)
(3.0052 0.0212486 0)
(3.00564 0.0217608 0)
(3.00642 0.0210097 0)
(3.00863 0.0171594 0)
(3.00983 0.00937378 0)
(3.00865 0.00452054 0)
(3.00611 0.00232598 0)
(3.00299 0.00456395 0)
(3.00155 0.0127739 0)
(2.99449 0.0239755 0)
(2.98444 0.0305864 0)
(2.96994 0.032524 0)
(2.95338 0.0295669 0)
(2.93621 0.0257387 0)
(2.92052 0.0223998 0)
(2.90862 0.0169889 0)
(2.89996 0.0124817 0)
(2.89323 0.0142269 0)
(2.88929 0.0266468 0)
(2.88472 0.0425704 0)
(2.87821 0.0484651 0)
(2.8662 0.0475416 0)
(2.85029 0.0392421 0)
(2.83387 0.0247029 0)
(2.82197 0.00942959 0)
(2.81418 0.00118378 0)
(2.80831 -0.00177028 0)
(2.80459 -0.0013603 0)
(2.80064 0.00774212 0)
(2.79714 0.0182215 0)
(2.79589 0.0333178 0)
(2.79427 0.0237769 0)
(2.77937 0.00224897 0)
(1.63476 1.01004 0)
(1.94297 0.879389 0)
(2.23079 0.658974 0)
(2.37276 0.58338 0)
(2.4775 0.469982 0)
(2.64285 0.19921 0)
(2.73475 -0.0501806 0)
(2.77453 -0.0992701 0)
(2.80473 -0.204459 0)
(2.83536 -0.376457 0)
(2.85198 -0.431691 0)
(2.88204 -0.463947 0)
(2.8831 -0.477638 0)
(2.87619 -0.477348 0)
(2.85809 -0.450119 0)
(2.81786 -0.371158 0)
(2.78994 -0.307346 0)
(2.77686 -0.258345 0)
(2.77138 -0.218636 0)
(2.75586 -0.163942 0)
(2.74178 -0.109982 0)
(2.73851 -0.104717 0)
(2.73751 -0.0898721 0)
(2.7126 -0.0489697 0)
(2.71042 0.00328614 0)
(2.71631 0.0235955 0)
(2.72621 0.0244862 0)
(2.73133 0.016444 0)
(2.73706 0.0122379 0)
(2.74254 0.0119831 0)
(2.74644 0.00730603 0)
(2.75096 -0.00402192 0)
(2.75981 -0.0213238 0)
(2.76738 -0.0372825 0)
(2.77439 -0.0409255 0)
(2.78409 -0.0307412 0)
(2.79087 -0.020308 0)
(2.80746 -0.0181897 0)
(2.82017 -0.0224037 0)
(2.8307 -0.024656 0)
(2.84171 -0.0198715 0)
(2.85126 -0.0105776 0)
(2.85876 0.000124772 0)
(2.86465 0.00614725 0)
(2.87465 0.00175058 0)
(2.88723 -0.00428246 0)
(2.90073 -0.00393374 0)
(2.91356 0.00225649 0)
(2.92287 0.00823569 0)
(2.93103 0.009078 0)
(2.93794 0.00863919 0)
(2.93824 0.00753839 0)
(2.92984 0.00143414 0)
(2.93304 -0.00583255 0)
(2.94334 -0.00783724 0)
(2.95383 -0.00881295 0)
(2.9665 -0.0095376 0)
(2.98102 -0.00890188 0)
(2.9956 -0.00838715 0)
(3.00815 -0.00826752 0)
(3.01753 -0.00618288 0)
(3.02161 -0.000891943 0)
(3.01754 0.0082925 0)
(3.00994 0.019161 0)
(3.00931 0.0258521 0)
(3.0142 0.0289194 0)
(3.01956 0.0301698 0)
(3.02293 0.0296436 0)
(3.02333 0.0290271 0)
(3.02092 0.0309381 0)
(3.01953 0.0329189 0)
(3.01602 0.0331892 0)
(3.00963 0.0297606 0)
(2.99586 0.0186254 0)
(2.98098 0.00521729 0)
(2.97332 0.000293384 0)
(2.96406 0.00151151 0)
(2.95291 0.0110687 0)
(2.93997 0.0261994 0)
(2.93198 0.0360794 0)
(2.92352 0.0402325 0)
(2.91782 0.0410561 0)
(2.91269 0.0388979 0)
(2.90756 0.0360111 0)
(2.9016 0.0315801 0)
(2.89162 0.026352 0)
(2.88089 0.0218391 0)
(2.87259 0.0198247 0)
(2.86456 0.0175315 0)
(2.85769 0.01204 0)
(2.85293 0.00759561 0)
(2.84839 0.0100811 0)
(2.84569 0.0162838 0)
(2.84516 0.0283061 0)
(2.83952 0.0245135 0)
(2.8177 0.00895087 0)
(1.60926 0.970204 0)
(1.86767 0.874299 0)
(2.08545 0.731057 0)
(2.20928 0.673792 0)
(2.36746 0.534718 0)
(2.52397 0.291566 0)
(2.59008 0.196331 0)
(2.60952 0.163498 0)
(2.69354 0.0032314 0)
(2.7304 -0.16292 0)
(2.75947 -0.21336 0)
(2.76161 -0.204352 0)
(2.80843 -0.28809 0)
(2.82722 -0.364963 0)
(2.84765 -0.371705 0)
(2.84469 -0.367713 0)
(2.83248 -0.375375 0)
(2.82442 -0.375617 0)
(2.81647 -0.34439 0)
(2.80798 -0.287257 0)
(2.79759 -0.229855 0)
(2.79253 -0.213126 0)
(2.78351 -0.188242 0)
(2.75378 -0.123255 0)
(2.74917 -0.073024 0)
(2.75212 -0.0496363 0)
(2.75974 -0.0413627 0)
(2.75414 -0.0277449 0)
(2.74779 -0.0196149 0)
(2.74298 -0.00252442 0)
(2.74486 0.00395309 0)
(2.75487 0.00783558 0)
(2.7616 0.00508163 0)
(2.76855 -5.75183e-06 0)
(2.77409 -0.00311689 0)
(2.77975 -0.00430792 0)
(2.7904 -0.0104984 0)
(2.80661 -0.0216503 0)
(2.82019 -0.0386044 0)
(2.82361 -0.0478648 0)
(2.83119 -0.0434916 0)
(2.84335 -0.0305796 0)
(2.85347 -0.0202047 0)
(2.86158 -0.01072 0)
(2.86824 -0.00339845 0)
(2.8762 0.00153262 0)
(2.88709 0.00815393 0)
(2.89875 0.0171845 0)
(2.91046 0.0221215 0)
(2.92308 0.0185299 0)
(2.93142 0.0105015 0)
(2.93111 0.00257555 0)
(2.9224 0.000771421 0)
(2.92547 0.00114002 0)
(2.93485 -0.000598604 0)
(2.94464 -0.00258323 0)
(2.956 -0.00404606 0)
(2.97028 -0.00553007 0)
(2.98278 -0.00580753 0)
(2.99759 -0.0047554 0)
(3.00982 -0.00128992 0)
(3.01666 0.00578544 0)
(3.01425 0.0133177 0)
(3.00498 0.016669 0)
(3.00318 0.0177075 0)
(3.01197 0.0196115 0)
(3.02217 0.021533 0)
(3.03043 0.0241044 0)
(3.03517 0.0290336 0)
(3.03701 0.0362046 0)
(3.03623 0.0427592 0)
(3.03103 0.0444409 0)
(3.01819 0.0356741 0)
(3.00423 0.0222626 0)
(2.99938 0.0162189 0)
(2.99475 0.0133585 0)
(2.99218 0.0171627 0)
(2.98711 0.0290727 0)
(2.97865 0.0403183 0)
(2.97038 0.0519196 0)
(2.96056 0.0605492 0)
(2.94761 0.063347 0)
(2.93902 0.0578059 0)
(2.93695 0.0539006 0)
(2.93513 0.0473668 0)
(2.93335 0.0374402 0)
(2.9327 0.0299447 0)
(2.92967 0.0266517 0)
(2.92212 0.0266637 0)
(2.91426 0.0273441 0)
(2.90635 0.0288869 0)
(2.90009 0.0323516 0)
(2.89741 0.0341415 0)
(2.89748 0.0364985 0)
(2.89355 0.0233301 0)
(2.87291 0.00508003 0)
(1.59604 0.922406 0)
(1.79664 0.864591 0)
(1.96588 0.788864 0)
(2.10771 0.721386 0)