/*--------------------------------*- C++ -*----------------------------------*\
  =========                 |
  \\      /  F ield         | OpenFOAM: The Open Source CFD Toolbox
   \\    /   O peration     | Website:  https://openfoam.org
    \\  /    A nd           | Version:  7
     \\/     M anipulation  |
\*---------------------------------------------------------------------------*/
FoamFile
{
    version     2.0;
    format      ascii;
    class       volScalarField;
    location    "2";
    object      T;
}
// * * * * * * * * * * * * * * * * * * * * * * * * * * * * * * * * * * * * * //

dimensions      [0 0 0 1 0 0 0];

internalField   nonuniform List<scalar> 
4032
(
1
1
1
1
1
1
1
1
1
1
1
1
2.13168
2.7234
2.74746
2.75903
2.76978
2.77905
2.78978
2.80349
2.81961
2.83514
2.84703
2.8537
1
1
1
1
1
1
1
1
1
1
1
1
2.11069
2.71828
2.74596
2.7572
2.76785
2.77687
2.78728
2.80056
2.81609
2.83095
2.84218
2.8485
1
1
1
1
1
1
1
1
1
1
1
1
2.05935
2.70916
2.74329
2.75412
2.76466
2.77341
2.78351
2.79627
2.81102
2.82502
2.83541
2.84143
1
1
1
1
1
1
1
1
1
1
1
1
1.97686
2.68974
2.73841
2.74843
2.75864
2.76684
2.77653
2.78894
2.80314
2.81638
2.82561
2.8304
1
1
1
1
1
1
1
1
1
1
1
1
1.85908
2.65532
2.72688
2.73798
2.7494
2.75758
2.7665
2.77767
2.79013
2.80169
2.80945
2.81485
1
1
1
1
1
1
1
1
1
1
1
1
1.70653
2.60297
2.70921
2.72543
2.73846
2.74607
2.75381
2.76403
2.77615
2.78665
2.79011
2.78679
1
1
1
1
1
1
1
1
1
1
1
1
1.4813
2.50671
2.68358
2.70692
2.72349
2.73156
2.73872
2.74694
2.75414
2.75746
2.75442
2.74922
1
1
1
1
1
1
1
1
1
1
1
1
1.17487
2.37647
2.66554
2.68535
2.70238
2.71038
2.71627
2.7205
2.72367
2.72628
2.72823
2.74241
1
1
1
1
1
1
1
1
1
1
1
1
1.00885
2.25167
2.63641
2.6531
2.67009
2.68059
2.6866
2.68719
2.68406
2.67404
2.63417
2.541
1
1
1
1
1
1
1
1
1
1
1
1
1.00001
2.04096
2.60634
2.64084
2.65402
2.66051
2.65923
2.65496
2.64278
2.61513
2.56479
2.41401
1
1
1
1
1
1
1
1
1
1
1
1
1
1.70091
2.50948
2.61685
2.63402
2.63991
2.63409
2.62262
2.60211
2.56246
2.50098
2.33089
1
1
1
1
1
1
1
1
1
1
1
1
1
1.23499
2.34874
2.5992
2.60632
2.61138
2.60654
2.59194
2.56553
2.52248
2.44657
2.29999
1
1
1
1
1
1
1
1
1
1
1
1
1
1.01469
2.17458
2.53984
2.56407
2.5759
2.57371
2.56068
2.53347
2.4895
2.41038
2.29225
1
1
1
1
1
1
1
1
1
1
1
1
1
1.00001
1.77931
2.44665
2.53519
2.54889
2.54612
2.53249
2.50489
2.46071
2.38593
2.29232
1
1
1
1
1
1
1
1
1
1
1
1
1
0.999997
1.19209
2.28467
2.51959
2.51453
2.51088
2.49775
2.4735
2.43243
2.36874
2.29252
1
1
1
1
1
1
1
1
1
1
1
1
1
0.999999
1.00856
2.07844
2.46631
2.46802
2.46587
2.45746
2.43869
2.40432
2.3525
2.28948
1
1
1
1
1
1
1
1
1
1
1
1
1
1
0.999992
1.56893
2.34633
2.44657
2.43497
2.42376
2.4056
2.37584
2.33343
2.28167
1
1
1
1
1
1
1
1
1
1
1
1
1
1
0.999996
1.08081
2.14174
2.41726
2.40077
2.38983
2.37233
2.34589
2.31071
2.26793
1
1
1
1
1
1
1
1
1
1
1
1
1
1
0.999999
1.00123
1.68938
2.29988
2.37729
2.36156
2.34301
2.31902
2.28925
2.25286
1
1
1
1
1
1
1
1
1
1
1
1
1
1
1
1
1.13509
2.1017
2.35357
2.33551
2.31744
2.29371
2.26647
2.23468
1
1
1
1
1
1
1
1
1
1
1
1
1
1
1
1
1.00368
1.64683
2.23054
2.31263
2.29097
2.26879
2.24437
2.21671
1
1
1
1
1
1
1
1
1
1
1
1
1
1
1
1
1.00001
1.12328
2.01669
2.28984
2.26744
2.24917
2.22663
2.20135
1
1
1
1
1
1
1
1
1
1
1
1
1
1
1
1
1
1.00312
1.49486
2.12506
2.2458
2.22591
2.2062
2.18419
1
1
1
1
1
1
1
1
1
1
1
1
1
1
1
1
1
1.00001
1.06784
1.85504
2.21503
2.20368
2.18786
2.16842
1
1
1
1
1
1
1
1
1
1
1
1
1
1
1
1
1
1
1.0011
1.30685
2.02072
2.18334
2.16212
2.14519
1
1
1
1
1
1
1
1
1
1
1
1
1
1
1
1
1
1
1
1.02228
1.60902
2.06897
2.14753
2.12817
1
1
1
1
1
1
1
1
1
1
1
1
1
1
1
1
1
1
1
1.00023
1.12296
1.80834
2.11165
2.1104
1
1
1
1
1
1
1
1
1
1
1
1
1
1
1
1
1
1
1
1
1.00361
1.30375
1.91703
2.08549
1
1
1
1
1
1
1
1
1
1
1
1
1
1
1
1
1
1
1
1
1.00002
1.02341
1.48888
1.95934
1
1
1
1
1
1
1
1
1
1
1
1
1
1
1
1
1
1
1
1
1
1.00028
1.07633
1.64076
1
1
1
1
1
1
1
1
1
1
1
1
1
1
1
1
1
1
1
1
1
1
1.00178
1.16813
1
1
1
1
1
1
1
1
1
1
1
1
1
1
1
1
1
1
1
1
1
1
1.00001
1.00734
1
1
1
1
1
1
1
1
1
1
1
1
1
1
1
1
1
1
1
1
1
1
1
1.00006
1
1
1
1
1
1
1
1
1
1
1
1
1
1
1
1
1
1
1
1
1
1
1
1
1
1
1
1
1
1
1
1
1
1
1
1
1
1
1
1
1
1
1
1
1
1
1
1
1
1
1
1
1
1
1
1
1
1
1
1
1
1
1
1
1
1
1
1
1
1
1
1
1
1
1
1
1
1
1
1
1
1
1
1
1
1
1
1
1
1
1
1
1
1
1
1
1
1
1
1
1
1
1
1
1
1
1
1
1
1
1
1
1
1
1
1
1
1
1
1
1
1
1
1
1
1
1
1
1
1
1
1
1
1
1
1
1
1
1
1
1
1
1
1
1
1
1
1
1
1
1
1
1
1
1
1
1
1
1
1
1
1
1
1
1
1
1
1
1.72323
1.23781
0.955205
0.999786
1.1474
1.31912
1.42167
1.48564
1.52631
1.56067
1.61356
1.6741
1.71861
1.73431
1.73965
1.74712
1.75227
1.74699
1.71352
1.69653
1.70972
1.72622
1.72862
1.7251
1.7118
1.70489
1.70144
1.70198
1.70847
1.70942
1.70886
1.707
1.7066
1.70828
1.70836
1.70894
1.70763
1.70173
1.69451
1.69586
1.73036
1.87704
2.15649
2.45588
2.67354
2.73918
2.70943
2.6503
2.60668
2.57663
2.55801
2.53867
2.52148
2.50102
2.47527
2.44942
2.42917
2.41245
2.4006
2.39123
2.37746
2.35991
2.34055
2.31791
2.29282
2.27214
2.25791
2.24587
2.23654
2.23258
2.22764
2.21977
2.21149
2.1988
2.17358
2.1461
2.13457
2.12984
2.12648
2.12589
2.12706
2.12406
2.12
2.11263
2.09223
2.06645
2.05437
2.047
2.03961
2.03399
2.032
2.02932
2.02415
2.01677
2.00559
1.97406
1.96353
1.70628
1.48212
1.3443
1.33424
1.33462
1.32592
1.30507
1.31826
1.34605
1.39015
1.44363
1.49009
1.53854
1.56893
1.601
1.63044
1.63971
1.63181
1.63157
1.6495
1.66647
1.67346
1.67419
1.6686
1.66389
1.66279
1.66483
1.67269
1.67691
1.67928
1.67979
1.67816
1.67864
1.67858
1.67862
1.67806
1.67239
1.67668
1.70834
1.85627
2.02223
2.10368
2.19304
2.35975
2.49171
2.5584
2.56751
2.55237
2.53052
2.51171
2.49624
2.48358
2.46916
2.45248
2.43102
2.40803
2.39103
2.37804
2.36768
2.35755
2.3434
2.32633
2.30823
2.28884
2.26744
2.24768
2.23434
2.22451
2.21757
2.21045
2.20302
2.19521
2.18527
2.17014
2.15027
2.13176
2.12314
2.11912
2.11608
2.11386
2.11078
2.10696
2.10112
2.08913
2.07019
2.05267
2.04233
2.03455
2.02833
2.02508
2.01899
2.01171
2.00352
1.99344
1.96945
2.04883
1.86146
1.72126
1.58247
1.46189
1.37842
1.34013
1.32388
1.29744
1.2786
1.29273
1.32159
1.33649
1.35559
1.39627
1.43626
1.47014
1.49729
1.52151
1.54371
1.56259
1.57894
1.58876
1.59824
1.59862
1.59798
1.59897
1.60063
1.60374
1.60638
1.61011
1.61312
1.61416
1.61614
1.61738
1.61761
1.61713
1.62674
1.66647
1.80495
1.9892
2.03856
2.02503
2.01632
2.05599
2.1788
2.33531
2.4276
2.46672
2.45616
2.43457
2.41957
2.40693
2.39623
2.38726
2.37652
2.36194
2.34444
2.3278
2.31521
2.303
2.29011
2.27718
2.26467
2.25348
2.24174
2.22575
2.20505
2.19068
2.18222
2.17458
2.16643
2.15687
2.14696
2.13952
2.13201
2.12146
2.10596
2.09555
2.09032
2.08501
2.07923
2.07267
2.0658
2.0604
2.054
2.04385
2.02928
2.01717
2.00839
2.00037
1.99242
1.98397
1.97371
1.96247
1.94519
2.11342
1.94732
1.82798
1.7331
1.63593
1.51284
1.42565
1.4183
1.40388
1.36485
1.33009
1.3028
1.2866
1.28715
1.29855
1.32841
1.36131
1.386
1.41674
1.44788
1.4668
1.48256
1.49396
1.5101
1.52852
1.54053
1.54749
1.54831
1.54844
1.5497
1.54978
1.54927
1.54878
1.54801
1.54887
1.55172
1.56518
1.62986
1.76024
1.9417
2.00287
1.99653
1.98733
1.9716
1.95637
1.96915
2.05046
2.18969
2.29769
2.33362
2.34494
2.34833
2.34453
2.34004
2.33082
2.31838
2.30518
2.28885
2.26872
2.25244
2.24145
2.23071
2.2207
2.21131
2.20319
2.19566
2.18539
2.16795
2.14636
2.13361
2.12602
2.11793
2.10887
2.10171
2.0971
2.09364
2.08871
2.07727
2.05995
2.04874
2.04103
2.03268
2.02384
2.01834
2.01638
2.01452
2.01034
2.00166
1.98838
1.97444
1.96352
1.95433
1.94412
1.93152
1.92113
1.9109
2.15614
2.02791
1.90357
1.80829
1.74001
1.66373
1.56235
1.48271
1.46967
1.44712
1.40573
1.36222
1.32277
1.29299
1.29211
1.30454
1.31956
1.33025
1.34284
1.35963
1.37504
1.3966
1.42196
1.4463
1.47026
1.48875
1.4964
1.49992
1.50264
1.50737
1.51308
1.51816
1.51856
1.5156
1.51443
1.52299
1.59827
1.77918
1.90642
1.99007
1.98868
1.97504
1.96053
1.94736
1.93829
1.93318
1.93228
1.96799
2.06774
2.17782
2.2453
2.27029
2.27913
2.29129
2.29714
2.28586
2.27112
2.25115
2.2282
2.20386
2.18925
2.1798
2.17237
2.16731
2.16127
2.15461
2.14682
2.13401
2.11096
2.08742
2.07602
2.06973
2.06547
2.06319
2.06106
2.05718
2.05255
2.04387
2.02459
2.00262
1.99013
1.982
1.97643
1.97346
1.97221
1.97033
1.96672
1.9606
1.94947
1.93246
1.91663
1.90525
1.89546
1.88679
1.88329
1.87714
2.18571
2.08232
1.98504
1.88228
1.79299
1.74062
1.67935
1.59662
1.53098
1.51013
1.48042
1.44109
1.4075
1.37273
1.33915
1.32988
1.33049
1.32702
1.31472
1.30991
1.31169
1.31844
1.34205
1.37397
1.41197
1.44622
1.46077
1.47028
1.47666
1.4813
1.48727
1.4946
1.49484
1.49698
1.50798
1.58186
1.78764
1.93068
1.97682
1.98731
1.98069
1.97158
1.9547
1.93589
1.92721
1.92234
1.91825
1.91096
1.91736
1.96521
2.0582
2.15274
2.20143
2.23547
2.24983
2.25628
2.2483
2.23049
2.20841
2.18119
2.15713
2.14549
2.13741
2.13345
2.13078
2.12547
2.11879
2.10798
2.08801
2.06055
2.04445
2.03904
2.03499
2.03212
2.03161
2.02779
2.02176
2.01326
1.9947
1.96773
1.95225
1.94484
1.93903
1.93525
1.93369
1.93037
1.92552
1.91956
1.90906
1.89014
1.86985
1.85728
1.85175
1.85
1.84951
1.84607
2.20551
2.11551
2.03446
1.95098
1.86243
1.78736
1.73934
1.68726
1.61874
1.5682
1.53777
1.50494
1.47172
1.43982
1.40464
1.37508
1.35937
1.34195
1.32303
1.31169
1.31193
1.31194
1.31293
1.32122
1.34235
1.3698
1.3976
1.42307
1.44616
1.45479
1.46666
1.47965
1.48093
1.5005
1.60466
1.78515
1.94471
1.98495
1.99232
1.99047
1.97697
1.95991
1.94063
1.92147
1.91148
1.90653
1.90411
1.89606
1.89065
1.87986
1.89084
1.94141
2.03496
2.12322
2.17284
2.20223
2.20748
2.20392
2.19328
2.17124
2.14302
2.12511
2.11536
2.10939
2.10472
2.10003
2.09402
2.08517
2.07031
2.04816
2.02875
2.02049
2.01578
2.01107
2.00686
2.0023
1.99543
1.98605
1.97001
1.9471
1.93094
1.92183
1.9142
1.90778
1.90291
1.89861
1.89361
1.88674
1.87258
1.84919
1.83004
1.82428
1.82342
1.82352
1.82509
1.82284
2.21693
2.14226
2.06653
1.99272
1.92231
1.85191
1.78498
1.7377
1.69492
1.64149
1.5929
1.55735
1.53
1.50348
1.47118
1.43862
1.4128
1.38971
1.36966
1.35263
1.34296
1.33069
1.31958
1.31755
1.31865
1.32195
1.32895
1.34374
1.37068
1.40035
1.42838
1.4506
1.47551
1.62171
1.81316
1.93854
1.9966
2.00818
2.00268
1.98947
1.96873
1.94605
1.92589
1.90776
1.89355
1.88576
1.88228
1.87918
1.87247
1.86328
1.85096
1.83305
1.84693
1.90393
1.99724
2.07877
2.13113
2.15275
2.15946
2.15369
2.13408
2.1108
2.09579
2.08761
2.08047
2.07528
2.06985
2.0621
2.05163
2.03832
2.0226
2.00733
1.99799
1.99157
1.98511
1.97785
1.96945
1.9597
1.94769
1.93312
1.91826
1.90567
1.89517
1.88581
1.87774
1.87103
1.86402
1.85373
1.83841
1.81758
1.80362
1.80119
1.80103
1.80118
1.80423
1.80264
2.21962
2.15687
2.09166
2.02316
1.95975
1.90273
1.84395
1.7865
1.74261
1.69857
1.65529
1.6136
1.57887
1.54767
1.51997
1.49551
1.46997
1.44095
1.41044
1.3888
1.37319
1.35665
1.3416
1.32789
1.32425
1.32139
1.31932
1.31935
1.32131
1.33356
1.35903
1.38998
1.55188
1.80158
1.91092
1.96389
1.99069
1.98753
1.98211
1.96757
1.94918
1.93102
1.91432
1.89712
1.87858
1.8647
1.8583
1.85491
1.84937
1.84118
1.83
1.81697
1.79472
1.77799
1.79651
1.85422
1.9435
2.02226
2.08412
2.10458
2.10419
2.09403
2.07862
2.06574
2.05363
2.04623
2.04115
2.03481
2.02751
2.02077
2.01184
1.99918
1.98428
1.97134
1.96141
1.9524
1.94247
1.93264
1.92395
1.9151
1.90481
1.89267
1.8793
1.86634
1.85501
1.84487
1.83452
1.82358
1.81139
1.80092
1.79246
1.78608
1.78527
1.7861
1.79021
1.78822
2.2171
2.16327
2.10541
2.04733
1.99302
1.93564
1.8788
1.83256
1.78823
1.74054
1.69514
1.66216
1.62961
1.59578
1.55946
1.53646
1.5144
1.49023
1.46289
1.43773
1.41803
1.39741
1.38027
1.36569
1.35438
1.34159
1.33166
1.32307
1.31601
1.31612
1.33187
1.46578
1.74285
1.84869
1.88312
1.90961
1.91055
1.91088
1.91845
1.92099
1.91776
1.91169
1.90046
1.8824
1.8606
1.84243
1.833
1.82727
1.82372
1.81754
1.8087
1.79623
1.77792
1.75218
1.73244
1.7259
1.74616
1.80627
1.89877
1.97787
2.02983
2.04832
2.04776
2.04064
2.02681
2.0151
2.01104
2.00642
2.00031
1.99468
1.98793
1.9788
1.96684
1.95193
1.93683
1.92546
1.91588
1.90671
1.89856
1.89131
1.88347
1.87362
1.86123
1.84732
1.83371
1.82103
1.80892
1.79742
1.78991
1.78624
1.78271
1.77864
1.77288
1.76625
1.76431
1.76152
2.21094
2.16357
2.11265
2.06324
2.01363
1.96087
1.90887
1.86506
1.82096
1.77714
1.73484
1.70062
1.66583
1.6342
1.60203
1.57549
1.54874
1.52197
1.49841
1.47819
1.45771
1.4392
1.41701
1.39961
1.38203
1.36543
1.34812
1.3333
1.3218
1.33947
1.46146
1.68507
1.83225
1.83052
1.81959
1.80702
1.80632
1.81362
1.82585
1.8458
1.86316
1.86694
1.86314
1.85156
1.83417
1.81809
1.80678
1.80023
1.79564
1.79065
1.78287
1.77155
1.75508
1.73282
1.70911
1.69628
1.6875
1.68739
1.70881
1.76843
1.85283
1.92816
1.9701
1.98917
1.98609
1.9785
1.9796
1.97842
1.97507
1.96914
1.96043
1.94923
1.93746
1.92392
1.90936
1.89797
1.88965
1.88201
1.87437
1.86618
1.85714
1.84709
1.83563
1.8231
1.8102
1.79793
1.78681
1.77859
1.7741
1.77065
1.76756
1.76354
1.75667
1.74612
1.73993
1.73471
2.19919
2.15819
2.11369
2.07118
2.02601
1.97664
1.93362
1.89188
1.84939
1.80446
1.76881
1.73438
1.69945
1.66457
1.63537
1.61018
1.58245
1.55696
1.53178
1.51174
1.49054
1.47139
1.4532
1.43618
1.41863
1.40104
1.38125
1.36449
1.37956
1.50181
1.70581
1.84648
1.84538
1.82752
1.79729
1.78168
1.77014
1.75869
1.74743
1.7499
1.75716
1.76738
1.77892
1.78004
1.78146
1.77685
1.76631
1.75877
1.75966
1.75959
1.75281
1.74237
1.72752
1.71077
1.69479
1.6797
1.66791
1.65792
1.65015
1.65161
1.6691
1.72141
1.78866
1.85882
1.89807
1.91804
1.92655
1.93506
1.94374
1.9411
1.93321
1.92272
1.90918
1.89288
1.87534
1.86619
1.86016
1.85455
1.84908
1.84224
1.83341
1.82245
1.80894
1.79369
1.78081
1.77173
1.76546
1.7615
1.75796
1.75387
1.74876
1.742
1.73401
1.7254
1.71821
1.70847
2.18559
2.14967
2.11215
2.07465
2.03303
1.98945
1.95165
1.91178
1.86933
1.82818
1.79608
1.76024
1.72701
1.69197
1.66632
1.63796
1.61065
1.58448
1.56291
1.54292
1.52068
1.50003
1.48119
1.46443
1.44509
1.427
1.41061
1.42587
1.55734
1.76416
1.88574
1.88214
1.85726
1.82617
1.8018
1.78296
1.7654
1.74901
1.73411
1.71802
1.70439
1.69785
1.69593
1.69191
1.69604
1.69891
1.69995
1.70384
1.70615
1.70486
1.70307
1.70116
1.69576
1.68644
1.67715
1.66622
1.65194
1.63669
1.62576
1.62006
1.61475
1.6109
1.62256
1.65793
1.72373
1.78623
1.83001
1.85814
1.88187
1.8924
1.89414
1.89163
1.88324
1.86891
1.85117
1.8359
1.82825
1.82322
1.81927
1.81394
1.80773
1.79968
1.7875
1.77056
1.75435
1.74545
1.74181
1.73948
1.73706
1.73357
1.72774
1.71888
1.7086
1.70025
1.6932
1.68232
2.17273
2.14056
2.10831
2.07414
2.03535
1.99839
1.96301
1.92558
1.8834
1.84966
1.81676
1.78289
1.74766
1.71779
1.69272
1.66337
1.63707
1.60991
1.59086
1.56919
1.54764
1.52603
1.50835
1.49031
1.47239
1.4542
1.4727
1.61457
1.82575
1.93036
1.92486
1.89681
1.86696
1.84346
1.82219
1.79896
1.77341
1.74806
1.72532
1.70397
1.68889
1.67937
1.67101
1.66623
1.65371
1.6358
1.61841
1.61611
1.61884
1.62094
1.62808
1.6367
1.64306
1.64404
1.63991
1.63473
1.62651
1.61505
1.60698
1.59504
1.58581
1.58098
1.57764
1.57311
1.57981
1.60266
1.6548
1.71714
1.77075
1.80783
1.83257
1.84032
1.83934
1.8373
1.83028
1.816
1.80455
1.79651
1.78939
1.78288
1.77766
1.77141
1.76344
1.75223
1.73799
1.72539
1.7172
1.71337
1.71119
1.70858
1.70438
1.69758
1.6856
1.66738
1.65782
1.65271
2.159
2.13051
2.10152
2.07054
2.03469
2.00156
1.96909
1.93313
1.89517
1.86552
1.83312
1.80112
1.76534
1.74121
1.71399
1.6865
1.6589
1.63501
1.61589
1.59208
1.57115
1.5495
1.52909
1.51107
1.49766
1.52388
1.67436
1.87648
1.96717
1.9625
1.9371
1.90889
1.88563
1.86248
1.83602
1.8068
1.77654
1.74737
1.72257
1.70463
1.68963
1.67524
1.66262
1.6501
1.6374
1.62374
1.60129
1.57651
1.5627
1.55311
1.55316
1.55609
1.56021
1.56959
1.57395
1.57317
1.57556
1.57485
1.57039
1.56326
1.56023
1.55971
1.5568
1.54957
1.54188
1.52904
1.52808
1.5446
1.58649
1.6476
1.70966
1.75141
1.77174
1.78754
1.78752
1.78313
1.78059
1.77578
1.76516
1.75721
1.75061
1.74274
1.73502
1.72716
1.71728
1.70678
1.6976
1.69002
1.68497
1.682
1.67909
1.67424
1.66281
1.63999
1.62866
1.62577
2.14591
2.12046
2.09291
2.06365
2.0325
2.00166
1.97089
1.93584
1.90413
1.87656
1.84784
1.81337
1.78192
1.75944
1.73236
1.70661
1.67673
1.65794
1.63648
1.6129
1.59065
1.56698
1.54925
1.53593
1.57081
1.74918
1.94043
2.00507
1.99322
1.96564
1.93949
1.91851
1.8982
1.87404
1.84577
1.81535
1.78519
1.75665
1.7318
1.71206
1.69502
1.67882
1.66275
1.64656
1.63028
1.61273
1.59144
1.56829
1.55035
1.53784
1.52664
1.51458
1.50585
1.50158
1.49765
1.49375
1.49256
1.49357
1.49825
1.51158
1.51907
1.52027
1.51991
1.51767
1.51189
1.50433
1.49551
1.48616
1.48152
1.49278
1.52435
1.58205
1.63764
1.69542
1.71908
1.72938
1.73893
1.73794
1.73509
1.73337
1.72796
1.72066
1.71229
1.70129
1.68967
1.68163
1.67551
1.67004
1.66449
1.65824
1.65284
1.6472
1.63782
1.62565
1.61493
1.60397
2.12642
2.10508
2.08118
2.05418
2.02655
1.99944
1.97056
1.93894
1.91023
1.88377
1.85626
1.82332
1.797
1.77387
1.74895
1.72037
1.6936
1.67607
1.65319
1.63192
1.60603
1.58403
1.57424
1.62266
1.81427
2.02012
2.05165
2.02182
1.98395
1.95962
1.94046
1.92374
1.90453
1.88168
1.85484
1.82413
1.79164
1.76157
1.73686
1.7166
1.69895
1.68216
1.66544
1.64801
1.62939
1.61003
1.59091
1.57041
1.54928
1.53098
1.51654
1.50253
1.49071
1.48067
1.47045
1.46043
1.44844
1.43448
1.42661
1.42835
1.43804
1.4492
1.46352
1.47327
1.4732
1.46984
1.46365
1.45841
1.45174
1.44518
1.44325
1.44955
1.47131
1.51671
1.57723
1.62477
1.66271
1.67532
1.68796
1.69138
1.69293
1.69366
1.69141
1.68249
1.6696
1.65706
1.64993
1.64674
1.64294
1.63751
1.62926
1.61821
1.60932
1.60453
1.60002
1.58984
2.10894
2.09031
2.06945
2.04527
2.02103
1.99689
1.96968
1.93993
1.91435
1.88933
1.86218
1.83135
1.80802
1.78472
1.76047
1.73165
1.70939
1.68992
1.66813
1.64372
1.61914
1.60942
1.67431
1.88812
2.06548
2.08856
2.06888
2.03081
1.99078
1.96185
1.94485
1.92706
1.90692
1.88404
1.8585
1.83036
1.79849
1.76667
1.74082
1.71994
1.70181
1.68511
1.66823
1.65027
1.63152
1.61218
1.59191
1.57019
1.54875
1.53019
1.51392
1.49837
1.48397
1.46968
1.45643
1.44483
1.43332
1.42003
1.40256
1.38771
1.3815
1.38288
1.38889
1.39707
1.40938
1.41564
1.41374
1.40909
1.40914
1.41028
1.4119
1.4075
1.40354
1.40645
1.42126
1.45309
1.50122
1.55292
1.59811
1.61561
1.62815
1.64276
1.64994
1.65057
1.64811
1.64055
1.63046
1.62282
1.61812
1.61338
1.60584
1.59403
1.58215
1.57664
1.57437
1.56882
2.09367
2.07599
2.05697
2.03554
2.01366
1.99091
1.96541
1.93902
1.91543
1.89122
1.86366
1.83643
1.81601
1.79346
1.7689
1.74083
1.72213
1.70202
1.67902
1.65278
1.64991
1.72617
1.95065
2.12747
2.12515
2.10239
2.06597
2.03165
1.99484
1.965
1.94299
1.92158
1.89992
1.87811
1.85564
1.83174
1.80544
1.77537
1.74521
1.72102
1.70157
1.68371
1.66606
1.64819
1.63001
1.61133
1.5916
1.57071
1.54989
1.53072
1.51342
1.49747
1.48241
1.46712
1.4528
1.43995
1.42666
1.41073
1.39368
1.37726
1.36397
1.35687
1.3548
1.3531
1.3527
1.35398
1.35443
1.34976
1.34651
1.34976
1.35422
1.3613
1.36747
1.36557
1.36017
1.36092
1.36831
1.38966
1.42993
1.48217
1.52588
1.55247
1.5694
1.58854
1.60479
1.60946
1.60622
1.59711
1.59252
1.58835
1.58098
1.57167
1.56151
1.55203
1.54556
1.53928
2.07475
2.0574
2.04027
2.02179
2.00256
1.98148
1.95801
1.93536
1.91325
1.88997
1.86463
1.84113
1.82074
1.79849
1.77289
1.74843
1.73182
1.70991
1.68475
1.68779
1.78948
2.00768
2.1654
2.15992
2.12848
2.09071
2.05667
2.02892
1.99883
1.96761
1.93971
1.91436
1.89072
1.86914
1.84892
1.82872
1.80683
1.78106
1.75056
1.7202
1.69636
1.67788
1.66186
1.6466
1.6304
1.61238
1.5921
1.56901
1.54661
1.52937
1.51509
1.50141
1.48701
1.47079
1.45319
1.43585
1.41928
1.40357
1.3885
1.37274
1.35681
1.34509
1.33785
1.33251
1.32818
1.32565
1.32157
1.31111
1.29765
1.29227
1.29253
1.29662
1.30441
1.31447
1.31832
1.31444
1.31161
1.31526
1.32409
1.34473
1.37418
1.41248
1.45059
1.48017
1.51074
1.54393
1.56208
1.56069
1.55905
1.55734
1.55381
1.5501
1.54475
1.535
1.52594
1.515
2.05776
2.04213
2.02253
2.00639
1.98955
1.97024
1.94895
1.93034
1.91
1.88794
1.86357
1.84428
1.82393
1.802
1.77685
1.75612
1.7367
1.71582
1.72821
1.85833
2.08829
2.18587
2.17565
2.1438
2.11211
2.08253
2.05557
2.02971
2.0018
1.96961
1.93642
1.90751
1.88293
1.86115
1.84144
1.8227
1.80301
1.78042
1.7527
1.7211
1.69291
1.67148
1.65416
1.63907
1.62523
1.61084
1.59289
1.57045
1.54669
1.52591
1.50874
1.49382
1.48021
1.46711
1.45319
1.43712
1.41931
1.40252
1.38786
1.37361
1.3587
1.34396
1.3332
1.32499
1.31579
1.30621
1.29976
1.29357
1.28471
1.27119
1.2592
1.25352
1.25172
1.25259
1.2569
1.2599
1.26277
1.26703
1.27008
1.27437
1.28386
1.29806
1.31302
1.33711
1.37256
1.41683
1.45733
1.47983
1.50739
1.51751
1.51366
1.51166
1.51055
1.50909
1.50594
1.49827
1.96987
2.03106
2.01102
1.99085
1.9752
1.95707
1.93909
1.92262
1.90451
1.88296
1.8617
1.84437
1.82368
1.80248
1.77835
1.76103
1.74158
1.76338
1.93413
2.15385
2.23203
2.21664
2.17618
2.13682
2.10706
2.08085
2.05378
2.02502
1.99477
1.96274
1.93025
1.90105
1.87609
1.85406
1.83372
1.81393
1.79353
1.7714
1.74636
1.71866
1.69192
1.66938
1.65012
1.63235
1.61542
1.5997
1.58434
1.56701
1.54781
1.52891
1.51102
1.49393
1.47761
1.462
1.44606
1.42954
1.41459
1.40207
1.3901
1.37698
1.36266
1.34903
1.33825
1.32759
1.3149
1.30133
1.2885
1.27891
1.27191
1.26151
1.25052
1.2428
1.23278
1.22412
1.2181
1.21376
1.21179
1.21273
1.21537
1.2195
1.22516
1.23351
1.24026
1.24356
1.25031
1.27209
1.31519
1.35106
1.3853
1.42634
1.45857
1.46296
1.46448
1.46798
1.47291
1.47219
1.73311
1.97013
2.00083
1.98283
1.96275
1.94475
1.92891
1.91292
1.8957
1.8751
1.85788
1.84141
1.82216
1.79986
1.78058
1.7652
1.80222
1.99355
2.22679
2.2596
2.22825
2.1918
2.15882
2.12785
2.10117
2.07372
2.04385
2.01326
1.98291
1.95179
1.92013
1.891
1.86639
1.84514
1.8252
1.80489
1.78324
1.76023
1.73642
1.71251
1.68926
1.6674
1.64713
1.62792
1.60901
1.59006
1.57175
1.55465
1.53869
1.52266
1.50571
1.48859
1.47261
1.45818
1.44423
1.42988
1.41561
1.40097
1.38559
1.36945
1.35498
1.34525
1.33755
1.32808
1.31717
1.30521
1.28953
1.2722
1.25896
1.25227
1.24661
1.23717
1.22569
1.21697
1.20772
1.19673
1.18698
1.18077
1.17801
1.17728
1.17818
1.18278
1.19057
1.19298
1.19069
1.19133
1.20482
1.22909
1.25063
1.28616
1.33126
1.36548
1.39205
1.40477
1.41912
1.43318
1.27361
1.78149
1.95696
1.97237
1.95513
1.93349
1.91794
1.90319
1.88649
1.86719
1.85171
1.83529
1.81677
1.79745
1.78706
1.84916
2.07529
2.25857
2.30803
2.27836
2.22691
2.17811
2.14259
2.11438
2.08713
2.05876
2.02949
2.00054
1.97208
1.94277
1.91217
1.88297
1.85773
1.83568
1.8151
1.79437
1.77238
1.74941
1.7267
1.70491
1.68376
1.66287
1.64224
1.62201
1.60217
1.58264
1.56427
1.54781
1.53269
1.51766
1.50147
1.48348
1.46372
1.44519
1.43212
1.42308
1.41362
1.40084
1.3865
1.37121
1.3526
1.33582
1.32472
1.31846
1.31379
1.30613
1.29294
1.2763
1.25954
1.24618
1.2363
1.22923
1.22333
1.21491
1.20294
1.19106
1.17971
1.16807
1.16017
1.15744
1.15619
1.1567
1.1568
1.15565
1.15378
1.14775
1.14693
1.1555
1.16396
1.17378
1.19709
1.22937
1.2605
1.29353
1.32123
1.36715
1.02051
1.36511
1.80286
1.94457
1.94376
1.92498
1.90752
1.89237
1.8759
1.85887
1.84564
1.82795
1.80623
1.80772
1.89444
2.15645
2.3129
2.30518
2.2827
2.24727
2.20956
2.16899
2.13257
2.1012
2.07184
2.04354
2.01589
1.98856
1.96104
1.93238
1.90302
1.87537
1.85069
1.82778
1.80537
1.78293
1.76013
1.73727
1.71513
1.69413
1.67407
1.65446
1.63477
1.61479
1.59497
1.57575
1.55721
1.53958
1.52333
1.50871
1.49504
1.48042
1.46307
1.44432
1.42649
1.41205
1.401
1.39202
1.38334
1.37078
1.35291
1.33565
1.32104
1.30921
1.29989
1.29353
1.28794
1.27813
1.26551
1.25259
1.23928
1.22619
1.21576
1.2088
1.20233
1.19203
1.17755
1.16494
1.15618
1.14984
1.1463
1.14373
1.14086
1.13885
1.13538
1.12542
1.11449
1.11387
1.11643
1.11893
1.12543
1.13869
1.15487
1.17293
1.19094
1.2533
1.00026
1.04193
1.43461
1.81927
1.9222
1.91723
1.89968
1.88246
1.86511
1.85249
1.83511
1.81814
1.82445
1.95423
2.20241
2.35668
2.35677
2.31367
2.26095
2.21985
2.18804
2.15561
2.12241
2.09045
2.05984
2.03053
2.00243
1.97498
1.94746
1.91967
1.89279
1.86811
1.84501
1.82183
1.79768
1.77295
1.74858
1.72531
1.70337
1.68281
1.66363
1.64539
1.62715
1.60796
1.58806
1.56877
1.55084
1.53423
1.51817
1.50127
1.48332
1.4669
1.4537
1.44053
1.42574
1.41174
1.39879
1.38547
1.37099
1.35813
1.3484
1.33638
1.32116
1.30741
1.29671
1.2878
1.2803
1.27557
1.26897
1.25766
1.24377
1.23059
1.21954
1.20864
1.19706
1.1866
1.17766
1.16706
1.15665
1.14802
1.14336
1.13951
1.13475
1.12977
1.12487
1.11722
1.10421
1.09728
1.09467
1.09179
1.09219
1.09455
1.09857
1.10358
1.10761
1.13304
1
1.00077
1.0689
1.48969
1.82027
1.89995
1.89411
1.87546
1.85657
1.84035
1.82668
1.84472
2.01057
2.28227
2.35252
2.33982
2.31757
2.28723
2.24647
2.20694
2.17336
2.14222
2.11144
2.08042
2.04952
2.01916
1.98958
1.9606
1.93208
1.90473
1.8799
1.85759
1.83616
1.8139
1.78994
1.76449
1.73863
1.714
1.69174
1.67191
1.65406
1.63735
1.62075
1.60257
1.58161
1.55972
1.54004
1.52427
1.51143
1.49807
1.48152
1.46254
1.44458
1.43118
1.42009
1.4076
1.39497
1.38246
1.3693
1.35471
1.33899
1.32687
1.31826
1.30793
1.29604
1.28715
1.279
1.26852
1.25847
1.24959
1.24018
1.23144
1.22177
1.21129
1.20011
1.18558
1.16987
1.1617
1.15518
1.14786
1.14289
1.13893
1.13383
1.12669
1.1176
1.1093
1.09959
1.09426
1.0906
1.08526
1.07987
1.07655
1.07411
1.07075
1.06705
1.06955
1
1
1.00172
1.09862
1.52706
1.81279
1.88009
1.87207
1.85267
1.83116
1.85791
2.08042
2.31921
2.40651
2.38673
2.32197
2.2841
2.25893
2.23092
2.19844
2.16413
2.1307
2.09936
2.06924
2.03943
2.00953
1.97939
1.949
1.91918
1.89168
1.86757
1.84603
1.82538
1.80432
1.78185
1.75755
1.7318
1.7064
1.68388
1.66481
1.64803
1.63197
1.61547
1.59794
1.578
1.55563
1.53396
1.51564
1.50116
1.4895
1.47797
1.46345
1.44588
1.42917
1.41834
1.41088
1.40139
1.388
1.37221
1.35554
1.3403
1.32612
1.31375
1.30734
1.3028
1.29478
1.28325
1.26758
1.25612
1.25267
1.2492
1.24236
1.23281
1.22125
1.20758
1.19069
1.17183
1.16134
1.15802
1.15628
1.15336
1.14825
1.14016
1.127
1.11306
1.10578
1.10387
1.09997
1.09342
1.08406
1.07447
1.06794
1.06324
1.05798
1.05389
1.04996
1
1
1.00001
1.00318
1.12692
1.54538
1.80336
1.86024
1.84887
1.8768
2.12453
2.38467
2.41563
2.39386
2.37272
2.32756
2.28217
2.24969
2.22109
2.19089
2.15829
2.12467
2.09188
2.06096
2.03151
2.00231
1.97241
1.9417
1.91144
1.88365
1.85915
1.8371
1.8161
1.79539
1.77417
1.75139
1.72656
1.70112
1.67842
1.66032
1.64521
1.63046
1.61365
1.59401
1.57206
1.5496
1.53052
1.51471
1.49971
1.48544
1.47272
1.46069
1.44757
1.43384
1.4206
1.40663
1.39202
1.37736
1.36227
1.34934
1.33872
1.32832
1.31798
1.30759
1.29642
1.2855
1.27409
1.26509
1.25961
1.25345
1.24414
1.233
1.22089
1.20831
1.19536
1.18277
1.17368
1.1678
1.1626
1.1551
1.1461
1.13741
1.12938
1.12127
1.11357
1.10878
1.10353
1.09574
1.08461
1.07497
1.06785
1.0614
1.05599
1.05145
1.0478
1.04071
1
1
1
1.00002
1.00493
1.14902
1.57173
1.77059
1.8583
2.16653
2.43258
2.49181
2.45705
2.40926
2.37901
2.34236
2.29682
2.25474
2.21818
2.18438
2.15145
2.11876
2.08698
2.05675
2.02763
1.99863
1.96867
1.93765
1.90709
1.87911
1.85436
1.8321
1.81089
1.78951
1.76803
1.74633
1.72316
1.69933
1.67656
1.65735
1.64174
1.62702
1.61116
1.59157
1.56992
1.55014
1.53148
1.51307
1.49641
1.48205
1.46903
1.45665
1.44468
1.43286
1.41966
1.40438
1.38877
1.37452
1.36237
1.35088
1.33882
1.32707
1.31586
1.30422
1.29244
1.28155
1.27318
1.26747
1.26133
1.25317
1.24288
1.23092
1.21807
1.20522
1.19313
1.18369
1.17686
1.17049
1.16334
1.15462
1.1447
1.1349
1.12639
1.12007
1.1162
1.11228
1.10652
1.09707
1.08343
1.07228
1.06482
1.05847
1.05282
1.0483
1.04542
1.03841
1
1
1
1
1.00004
1.00754
1.17164
1.5079
2.12026
2.50634
2.54942
2.51769
2.48916
2.44338
2.40149
2.36117
2.3161
2.26772
2.22163
2.18102
2.14598
2.1148
2.08562
2.05711
2.02837
1.99892
1.96841
1.93724
1.90671
1.87849
1.85308
1.82994
1.80915
1.79082
1.77251
1.75029
1.72477
1.7
1.68243
1.6676
1.6508
1.63302
1.61379
1.59586
1.58085
1.56409
1.54411
1.52204
1.50279
1.4884
1.47677
1.46637
1.45618
1.44498
1.43168
1.4164
1.4008
1.38673
1.37398
1.36114
1.34805
1.33529
1.32297
1.31148
1.30136
1.29305
1.28643
1.27974
1.27142
1.26151
1.24984
1.2364
1.22271
1.21104
1.20228
1.19526
1.18836
1.18092
1.17267
1.16263
1.15022
1.13914
1.13311
1.13007
1.12753
1.12421
1.11861
1.10725
1.08985
1.07682
1.06935
1.06319
1.05778
1.05362
1.05064
1.04207
1
1
1
1
1
1.00009
1.00871
1.36421
2.51317
2.70591
2.62911
2.57091
2.53345
2.47685
2.42234
2.37576
2.3275
2.27665
2.22594
2.18068
2.14319
2.11236
2.08511
2.05846
2.0306
2.00067
1.96859
1.9355
1.90401
1.87655
1.85326
1.83253
1.81226
1.78971
1.76443
1.74075
1.72051
1.70247
1.68286
1.66031
1.63878
1.61971
1.60386
1.58987
1.57457
1.55656
1.53431
1.51002
1.4903
1.47676
1.46601
1.45613
1.44615
1.43486
1.42121
1.40552
1.38978
1.37551
1.36239
1.3497
1.33706
1.32438
1.31183
1.30002
1.29
1.28238
1.27611
1.26954
1.26163
1.25167
1.23936
1.22488
1.21072
1.20046
1.19319
1.18655
1.17971
1.17237
1.16389
1.15279
1.13863
1.12852
1.12457
1.122
1.11927
1.11588
1.11017
1.09846
1.08057
1.06794
1.06087
1.05467
1.04864
1.04388
1.04074
1.03222
)
;

boundaryField
{
    inlet
    {
        type            fixedValue;
        value           uniform 1;
    }
    outlet
    {
        type            inletOutlet;
        inletValue      uniform 1;
        value           nonuniform List<scalar> 
32
(
1.96943
1.96701
1.94506
1.91205
1.87817
1.84728
1.82433
1.80448
1.78972
1.76254
1.73504
1.70813
1.68196
1.65376
1.62724
1.60395
1.58899
1.56876
1.53985
1.51486
1.49744
1.47166
1.43277
1.36552
1.25055
1.13084
1.06859
1.0494
1.04
1.03771
1.04121
1.03136
)
;
    }
    bottom
    {
        type            symmetryPlane;
    }
    top
    {
        type            symmetryPlane;
    }
    obstacle
    {
        type            zeroGradient;
    }
    defaultFaces
    {
        type            empty;
    }
}


// ************************************************************************* //
