/*--------------------------------*- C++ -*----------------------------------*\
  =========                 |
  \\      /  F ield         | OpenFOAM: The Open Source CFD Toolbox
   \\    /   O peration     | Website:  https://openfoam.org
    \\  /    A nd           | Version:  7
     \\/     M anipulation  |
\*---------------------------------------------------------------------------*/
FoamFile
{
    version     2.0;
    format      ascii;
    class       volScalarField;
    location    "2.1";
    object      p;
}
// * * * * * * * * * * * * * * * * * * * * * * * * * * * * * * * * * * * * * //

dimensions      [1 -1 -2 0 0 0 0];

internalField   nonuniform List<scalar> 
4032
(
1
1
1
1
1
1
1
1
1
1
1
1
5.52601
10.4669
10.7118
10.9013
11.1021
11.2797
11.4398
11.5864
11.7227
11.838
11.9273
11.9917
1
1
1
1
1
1
1
1
1
1
1
1
5.35913
10.3968
10.6884
10.8758
11.0746
11.2475
11.4019
11.541
11.6694
11.7771
11.8598
11.9216
1
1
1
1
1
1
1
1
1
1
1
1
5.00987
10.3038
10.6439
10.8282
11.0259
11.1957
11.3456
11.4774
11.5956
11.6928
11.7636
11.8206
1
1
1
1
1
1
1
1
1
1
1
1
4.50655
10.14
10.5829
10.7599
10.9515
11.1125
11.2542
11.3778
11.4861
11.5712
11.6248
11.6657
1
1
1
1
1
1
1
1
1
1
1
1
3.86469
9.85574
10.4918
10.6631
10.8477
10.998
11.1255
11.2294
11.3123
11.3779
11.4124
11.4639
1
1
1
1
1
1
1
1
1
1
1
1
3.13617
9.42975
10.4211
10.5779
10.7413
10.8689
10.9728
11.0559
11.1205
11.1686
11.1668
11.1238
1
1
1
1
1
1
1
1
1
1
1
1
2.30576
8.75086
10.3598
10.4886
10.6295
10.7324
10.8065
10.8522
10.8564
10.791
10.6978
10.6389
1
1
1
1
1
1
1
1
1
1
1
1
1.48244
7.86202
10.3377
10.358
10.4726
10.5524
10.5875
10.5841
10.524
10.4141
10.2576
10.2158
1
1
1
1
1
1
1
1
1
1
1
1
1.03308
6.64326
10.1782
10.1612
10.2493
10.304
10.309
10.2662
10.1203
9.8387
9.05958
7.17041
1
1
1
1
1
1
1
1
1
1
1
1
1.00007
5.017
9.67776
9.93505
10.0194
10.0379
10.0007
9.90013
9.66909
9.19882
8.37691
6.3331
1
1
1
1
1
1
1
1
1
1
1
1
0.999999
3.30447
8.98405
9.79387
9.84748
9.83463
9.74639
9.56573
9.25625
8.67962
7.81944
5.9168
1
1
1
1
1
1
1
1
1
1
1
1
1
1.78532
7.99307
9.74883
9.67246
9.60622
9.47161
9.2336
8.86639
8.29559
7.3595
5.82711
1
1
1
1
1
1
1
1
1
1
1
1
1
1.06866
6.25654
9.35363
9.38062
9.3358
9.18646
8.92678
8.53229
7.97652
7.06214
5.88215
1
1
1
1
1
1
1
1
1
1
1
1
1
1.0002
3.87894
8.76571
9.24761
9.18754
8.9972
8.69632
8.27425
7.71386
6.87924
5.9419
1
1
1
1
1
1
1
1
1
1
1
1
1
0.999997
1.72852
7.85004
9.26954
9.00826
8.76277
8.44026
8.02959
7.48292
6.77571
6.00885
1
1
1
1
1
1
1
1
1
1
1
1
1
0.999999
1.04623
5.90515
8.87034
8.63291
8.46767
8.18519
7.81679
7.32096
6.71843
6.0533
1
1
1
1
1
1
1
1
1
1
1
1
1
1
1.00005
3.12838
8.13874
8.48561
8.3464
8.07731
7.70154
7.22793
6.68042
6.09608
1
1
1
1
1
1
1
1
1
1
1
1
1
1
0.999999
1.30091
6.45468
8.4767
8.24477
7.9535
7.58426
7.14389
6.64762
6.12921
1
1
1
1
1
1
1
1
1
1
1
1
1
1
0.999999
1.00727
3.73739
7.84821
8.07738
7.81696
7.48481
7.07879
6.62777
6.16222
1
1
1
1
1
1
1
1
1
1
1
1
1
1
1
0.999998
1.48181
6.38212
8.06293
7.74894
7.42461
7.03356
6.61553
6.18866
1
1
1
1
1
1
1
1
1
1
1
1
1
1
1
0.999999
1.01841
3.66293
7.47803
7.63835
7.32396
6.96621
6.5911
6.20076
1
1
1
1
1
1
1
1
1
1
1
1
1
1
1
1
1.00006
1.46523
5.85861
7.64941
7.28436
6.96368
6.61671
6.24394
1
1
1
1
1
1
1
1
1
1
1
1
1
1
1
1
1
1.01703
2.90075
6.8434
7.25342
6.93981
6.61304
6.26289
1
1
1
1
1
1
1
1
1
1
1
1
1
1
1
1
1
1.0001
1.25255
4.89842
7.27513
6.96703
6.64582
6.30119
1
1
1
1
1
1
1
1
1
1
1
1
1
1
1
1
1
1
1.00574
2.10737
6.07203
6.9707
6.61499
6.29552
1
1
1
1
1
1
1
1
1
1
1
1
1
1
1
1
1
1
1.00003
1.08817
3.51503
6.5113
6.63963
6.36022
1
1
1
1
1
1
1
1
1
1
1
1
1
1
1
1
1
1
1
1.00123
1.4417
4.76331
6.59696
6.43454
1
1
1
1
1
1
1
1
1
1
1
1
1
1
1
1
1
1
1
1
1.01685
2.12399
5.50261
6.41662
1
1
1
1
1
1
1
1
1
1
1
1
1
1
1
1
1
1
1
1
1.00014
1.09356
2.99067
5.82271
1
1
1
1
1
1
1
1
1
1
1
1
1
1
1
1
1
1
1
1
1
1.00156
1.28698
3.85109
1
1
1
1
1
1
1
1
1
1
1
1
1
1
1
1
1
1
1
1
1
1.00001
1.009
1.63327
1
1
1
1
1
1
1
1
1
1
1
1
1
1
1
1
1
1
1
1
1
1
1.00007
1.03467
1
1
1
1
1
1
1
1
1
1
1
1
1
1
1
1
1
1
1
1
1
1
1
1.00043
1
1
1
1
1
1
1
1
1
1
1
1
1
1
1
1
1
1
1
1
1
1
1
1
1
1
1
1
1
1
1
1
1
1
1
1
1
1
1
1
1
1
1
1
1
1
1
1
1
1
1
1
1
1
1
1
1
1
1
1
1
1
1
1
1
1
1
1
1
1
1
1
1
1
1
1
1
1
1
1
1
1
1
1
1
1
1
1
1
1
1
1
1
1
1
1
1
1
1
1
1
1
1
1
1
1
1
1
1
1
1
1
1
1
1
1
1
1
1
1
1
1
1
1
1
1
1
1
1
1
1
1
1
1
1
1
1
1
1
1
1
1
1
1
1
1
1
1
1
1
1
1
1
1
1
1
1
1
1
1
1
1
1
1
1
1
1
1
1.57075
0.480733
0.229982
0.174413
0.18614
0.244981
0.375261
0.555854
0.735894
0.830302
0.888841
0.929155
1.00493
1.14761
1.26128
1.27604
1.26433
1.23468
1.20797
1.20216
1.2356
1.29548
1.30756
1.29664
1.26861
1.24751
1.25398
1.27531
1.31398
1.33267
1.32306
1.30159
1.27383
1.26791
1.27326
1.29523
1.31796
1.31296
1.31356
1.40805
1.93718
3.4295
5.49808
6.82226
6.74032
6.16442
5.78629
5.68533
5.61132
5.52598
5.41625
5.28448
5.14264
4.98317
4.86326
4.77166
4.69612
4.62424
4.53077
4.43425
4.32136
4.18437
4.06255
3.98531
3.92582
3.89077
3.86844
3.81248
3.74369
3.6473
3.50058
3.38017
3.31745
3.27104
3.23563
3.22084
3.20624
3.16997
3.12605
3.05899
2.92817
2.78368
2.72228
2.6931
2.66896
2.6546
2.65405
2.64183
2.61564
2.58115
2.51001
2.37599
2.27994
2.24571
2.22764
2.20008
2.79795
1.4309
0.967829
0.752981
0.597582
0.507522
0.509943
0.54733
0.562005
0.594497
0.646488
0.718123
0.796107
0.895858
1.0242
1.09784
1.12199
1.14126
1.1602
1.18231
1.22842
1.26496
1.27399
1.2693
1.26163
1.25422
1.25836
1.27057
1.29446
1.31499
1.3124
1.30486
1.28896
1.27715
1.27712
1.2828
1.29366
1.31317
1.44356
1.90313
2.56634
3.06248
3.98361
5.27498
5.83861
5.87172
5.72823
5.65596
5.56749
5.46671
5.38382
5.262
5.13687
4.99011
4.83981
4.73623
4.65378
4.59659
4.52633
4.44323
4.35515
4.24957
4.12033
4.00176
3.92885
3.87349
3.82726
3.7844
3.72675
3.64714
3.54627
3.43533
3.33982
3.2806
3.24066
3.21412
3.18397
3.14261
3.09503
3.03501
2.94369
2.82717
2.73764
2.69803
2.67453
2.65775
2.64675
2.62907
2.60186
2.56347
2.50321
2.40787
2.30869
2.25436
2.23228
2.20293
3.70867
2.41287
1.65955
1.30951
1.05808
0.828566
0.681905
0.637934
0.630305
0.625571
0.644894
0.702427
0.751513
0.772701
0.824319
0.925335
0.995404
1.05843
1.14403
1.20357
1.24977
1.26308
1.25937
1.25773
1.26446
1.27857
1.29639
1.30355
1.30031
1.29455
1.28959
1.28511
1.28179
1.28042
1.28235
1.28797
1.31481
1.44835
2.02716
2.67017
3.05927
3.00902
3.09263
3.68618
4.70789
5.58101
5.78909
5.72176
5.59234
5.47203
5.37777
5.24536
5.13599
5.0111
4.85799
4.71034
4.60955
4.52828
4.45967
4.39707
4.33434
4.27308
4.19941
4.09071
3.96178
3.86528
3.79498
3.72814
3.65883
3.59814
3.54053
3.4798
3.40375
3.31278
3.2436
3.19661
3.15212
3.10439
3.04924
2.98512
2.92404
2.86351
2.79082
2.71833
2.68143
2.65851
2.6353
2.60916
2.57467
2.52838
2.47203
2.41363
2.35592
2.29567
2.25122
2.20632
4.27251
3.17529
2.36925
1.8571
1.55991
1.31893
1.04055
0.875489
0.862216
0.83595
0.783272
0.746766
0.722426
0.699722
0.707883
0.753313
0.837296
0.919478
1.02471
1.1087
1.14274
1.16674
1.17911
1.1989
1.23777
1.29358
1.32454
1.32626
1.31875
1.29689
1.27884
1.27647
1.27788
1.27752
1.28327
1.31476
1.45368
2.00629
2.81635
3.09467
3.12266
3.07101
3.01445
3.0183
3.30695
4.19133
5.03604
5.32173
5.4657
5.47126
5.39739
5.27129
5.14075
5.00187
4.85957
4.70045
4.58284
4.50646
4.44137
4.38605
4.33056
4.27651
4.21728
4.13464
3.99842
3.85163
3.75872
3.68844
3.63041
3.5812
3.53657
3.48811
3.43118
3.34768
3.24231
3.16594
3.11288
3.05886
2.99886
2.94565
2.91025
2.87796
2.83712
2.77346
2.69549
2.64737
2.61878
2.58803
2.54668
2.49238
2.4401
2.40457
2.3746
2.33719
2.29075
2.21972
4.70538
3.77036
3.00039
2.36844
1.99418
1.76631
1.53126
1.25715
1.03387
0.990375
0.953236
0.889802
0.828899
0.765681
0.736326
0.743366
0.757761
0.791705
0.86514
0.953866
0.995554
1.03527
1.08194
1.12143
1.16815
1.22482
1.26982
1.2862
1.28655
1.27477
1.27753
1.2887
1.3034
1.30666
1.33365
1.54313
2.04039
2.83422
3.14097
3.17528
3.1375
3.10383
3.03764
2.97475
2.93277
3.05695
3.59015
4.35724
4.99037
5.19203
5.25393
5.26225
5.17574
5.05378
4.89655
4.72389
4.56473
4.47012
4.40988
4.36686
4.33467
4.2853
4.22296
4.14427
4.01292
3.82548
3.70363
3.64654
3.60353
3.57612
3.55018
3.50523
3.45379
3.38101
3.25718
3.12712
3.05306
3.00172
2.96147
2.93389
2.91283
2.88939
2.8602
2.81852
2.74336
2.64787
2.58452
2.54189
2.49723
2.45417
2.42714
2.40561
2.38257
2.35514
2.31855
2.23293
4.98689
4.1739
3.50743
2.91991
2.39831
2.07445
1.89356
1.68912
1.42539
1.18781
1.13202
1.09284
1.03071
0.956415
0.898308
0.846598
0.801686
0.799539
0.808813
0.821881
0.831594
0.853576
0.910469
0.979609
1.05176
1.12016
1.18109
1.23306
1.24803
1.24458
1.25286
1.26765
1.29309
1.33605
1.61453
2.32731
2.83009
3.16265
3.24044
3.23169
3.17359
3.0879
3.02461
2.96283
2.90112
2.85548
2.86636
3.09731
3.71269
4.39348
4.86982
5.05275
5.06664
5.0547
4.94257
4.78774
4.60276
4.44606
4.37075
4.32005
4.29231
4.25407
4.19568
4.122
4.01088
3.84048
3.69022
3.6238
3.57881
3.55119
3.53606
3.49683
3.45021
3.3907
3.28169
3.12084
3.01819
2.97561
2.94647
2.92372
2.91149
2.89632
2.87077
2.84011
2.78565
2.67768
2.56509
2.49447
2.45002
2.42467
2.40984
2.40214
2.38366
2.35971
2.33329
2.24816
5.22675
4.49819
3.85769
3.35035
2.88031
2.43463
2.12514
1.96706
1.78714
1.54941
1.35538
1.25771
1.17954
1.11514
1.05466
0.989521
0.917896
0.843135
0.828495
0.824913
0.819901
0.824101
0.83965
0.868057
0.902821
0.950302
1.00231
1.07059
1.14188
1.18391
1.21934
1.23636
1.30342
1.58752
2.463
2.98155
3.19295
3.24242
3.23751
3.1999
3.14106
3.0483
2.98418
2.94428
2.89823
2.84763
2.81017
2.73573
2.7924
3.11859
3.73857
4.34967
4.71386
4.89422
4.86891
4.80189
4.64902
4.46921
4.36164
4.29472
4.2406
4.19279
4.14051
4.07538
3.989
3.86798
3.72321
3.61905
3.56489
3.52327
3.49736
3.46628
3.4235
3.37228
3.28969
3.15469
3.03265
2.98274
2.95258
2.92737
2.91231
2.90319
2.88446
2.85309
2.79077
2.67118
2.53942
2.47159
2.44341
2.4215
2.40317
2.39174
2.37788
2.35701
2.33477
2.24514
5.38657
4.75827
4.15065
3.63639
3.23224
2.835
2.46547
2.1792
2.0053
1.83952
1.64631
1.49262
1.36544
1.26533
1.20711
1.15258
1.08874
1.00366
0.948535
0.908934
0.874669
0.858156
0.860072
0.852024
0.836703
0.837818
0.853278
0.889095
0.952625
1.04341
1.12138
1.21717
1.59194
2.311
3.10294
3.2175
3.27098
3.23957
3.17794
3.11309
3.06182
3.00167
2.94555
2.9153
2.88534
2.83672
2.77985
2.71913
2.63795
2.59759
2.70972
3.11936
3.7152
4.33357
4.6148
4.68081
4.63082
4.49768
4.36999
4.26909
4.19842
4.13525
4.08048
4.02341
3.95632
3.87546
3.77423
3.65556
3.55762
3.50354
3.46434
3.42445
3.38033
3.3355
3.282
3.2036
3.09548
3.00738
2.96724
2.939
2.91181
2.88169
2.84721
2.80069
2.73621
2.63981
2.53061
2.47532
2.45105
2.42892
2.40867
2.38797
2.36252
2.33511
2.29583
2.2023
5.5089
4.94284
4.40345
3.91904
3.47342
3.10367
2.78654
2.48066
2.21522
2.03199
1.87904
1.72313
1.57605
1.45111
1.36325
1.29172
1.21801
1.14421
1.07863
1.01609
0.962573
0.919538
0.896677
0.875381
0.852719
0.843887
0.844243
0.843172
0.850951
0.891482
0.962624
1.36256
2.13274
2.75538
3.04984
3.1498
3.15978
3.10549
3.07038
3.05833
3.02939
2.97493
2.92104
2.88968
2.85383
2.79981
2.74293
2.68936
2.62807
2.54994
2.48694
2.50791
2.67889
3.12285
3.7052
4.20993
4.44517
4.40561
4.34707
4.25581
4.14732
4.08095
4.02633
3.97195
3.91469
3.85468
3.7898
3.70445
3.58905
3.4889
3.43692
3.39276
3.34496
3.29895
3.25815
3.21664
3.15563
3.06402
2.97867
2.92919
2.89145
2.85225
2.80626
2.75011
2.68236
2.60969
2.55052
2.49908
2.45735
2.43225
2.40964
2.38352
2.35065
2.30906
2.25167
2.16747
5.60407
5.08053
4.59203
4.1532
3.72514
3.33189
3.01952
2.74846
2.48966
2.25909
2.07653
1.90768
1.76723
1.64541
1.53957
1.43826
1.35294
1.28139
1.21915
1.1527
1.08579
1.03349
0.992385
0.958818
0.925838
0.89793
0.876019
0.8537
0.855733
0.884687
1.17045
1.90318
2.3474
2.55136
2.70126
2.78293
2.82061
2.86108
2.91608
2.93362
2.92548
2.90261
2.88087
2.86468
2.81412
2.76692
2.72924
2.68263
2.61899
2.54529
2.46027
2.41083
2.38838
2.43131
2.63242
3.07043
3.63565
4.02169
4.18581
4.16979
4.10711
4.06337
3.99428
3.94524
3.90231
3.84117
3.7801
3.71764
3.6274
3.50295
3.40921
3.36094
3.3166
3.27378
3.23916
3.20632
3.16609
3.10003
2.99701
2.90346
2.85121
2.8109
2.76438
2.70812
2.64646
2.6028
2.5673
2.52382
2.47156
2.42795
2.39683
2.36754
2.33201
2.28036
2.21852
2.15822
5.67516
5.19688
4.7592
4.33183
3.91887
3.56733
3.25502
2.94997
2.68337
2.48666
2.29217
2.10089
1.93042
1.81685
1.70994
1.60542
1.49664
1.41186
1.34104
1.27567
1.21168
1.15327
1.09854
1.04509
0.997472
0.957469
0.922305
0.891426
0.917786
1.1646
1.89824
2.33424
2.38839
2.37925
2.38817
2.41695
2.45084
2.50475
2.55258
2.57818
2.62253
2.68883
2.73103
2.73743
2.74017
2.73902
2.72177
2.68159
2.61546
2.53851
2.45767
2.38351
2.33368
2.30971
2.2997
2.36136
2.58749
2.99924
3.45046
3.76583
3.94779
3.95058
3.9253
3.93746
3.90609
3.85413
3.79511
3.7229
3.63405
3.51697
3.39053
3.32101
3.28173
3.25088
3.21932
3.18587
3.14959
3.10161
3.01999
2.89839
2.80111
2.7498
2.71041
2.66947
2.64151
2.61951
2.59015
2.54957
2.49145
2.42643
2.38081
2.33997
2.29522
2.2443
2.21123
2.17722
5.73714
5.2988
4.8899
4.48115
4.09133
3.76311
3.45253
3.15033
2.88858
2.67394
2.47207
2.2909
2.12111
1.98703
1.85432
1.74609
1.64943
1.5578
1.46537
1.38118
1.31875
1.26786
1.21909
1.16432
1.10807
1.04723
1.00459
1.02919
1.27903
1.97208
2.54377
2.5453
2.47542
2.39405
2.35966
2.3433
2.31469
2.28491
2.25691
2.22865
2.21765
2.26312
2.33959
2.43024
2.51711
2.58022
2.6044
2.60097
2.56636
2.51298
2.44605
2.36695
2.30342
2.26492
2.24201
2.23846
2.23713
2.28889
2.45664
2.79759
3.2147
3.54043
3.68547
3.77948
3.80722
3.82735
3.80084
3.7344
3.63328
3.52305
3.39833
3.29269
3.2443
3.21269
3.18312
3.15115
3.11996
3.08544
3.03022
2.92399
2.78531
2.7024
2.6616
2.63635
2.62255
2.61928
2.59958
2.56907
2.52504
2.45107
2.36064
2.28944
2.24341
2.21683
2.20809
2.18319
5.78887
5.39307
5.00271
4.60968
4.26224
3.94347
3.63139
3.32562
3.08838
2.86244
2.6524
2.44567
2.29382
2.15212
2.01407
1.88162
1.77269
1.68784
1.59272
1.51132
1.4316
1.37516
1.31493
1.25949
1.20499
1.14259
1.15889
1.4378
2.13961
2.76547
2.79993
2.69522
2.58626
2.49774
2.42717
2.37205
2.32163
2.27447
2.23856
2.21403
2.15904
2.0843
2.05709
2.0714
2.11579
2.16728
2.24578
2.34217
2.40731
2.39987
2.35347
2.30265
2.27102
2.24248
2.21895
2.19671
2.16737
2.14728
2.12815
2.16208
2.29598
2.60128
2.97718
3.33129
3.50671
3.643
3.67543
3.65276
3.6023
3.51947
3.40966
3.30346
3.233
3.1911
3.14997
3.11178
3.07723
3.04648
3.00711
2.93388
2.81133
2.69717
2.64915
2.6264
2.60807
2.59698
2.58633
2.56306
2.53038
2.46674
2.34851
2.25819
2.22933
2.21229
2.20382
2.17732
5.85473
5.48414
5.10866
4.73287
4.409
4.09878
3.78355
3.50023
3.26202
3.0279
2.80739
2.60829
2.45982
2.29864
2.15791
2.01447
1.91277
1.80876
1.71066
1.62162
1.5535
1.49252
1.42485
1.35427
1.28449
1.31286
1.64645
2.43322
3.04217
3.08568
2.96351
2.83082
2.73756
2.65363
2.56095
2.47069
2.39409
2.33214
2.27978
2.23318
2.1812
2.09979
2.01578
1.97069
1.94276
1.92743
1.93938
1.97713
2.03688
2.10423
2.12693
2.12301
2.13841
2.14277
2.11558
2.09295
2.09077
2.09969
2.08768
2.04684
2.00655
2.03744
2.15188
2.4059
2.75638
3.08661
3.38374
3.43508
3.45785
3.44263
3.39554
3.31389
3.23256
3.17907
3.13774
3.09793
3.05073
3.00398
2.95724
2.89832
2.82191
2.7426
2.67197
2.62479
2.59895
2.57654
2.55621
2.53527
2.50689
2.45092
2.35597
2.27775
2.24218
2.21887
2.20302
2.1688
5.90137
5.54572
5.18798
4.84702
4.53209
4.22447
3.91227
3.66026
3.41842
3.18731
2.94698
2.774
2.61091
2.44796
2.29111
2.15086
2.04821
1.93318
1.83574
1.73768
1.66431
1.59188
1.5222
1.44802
1.48118
1.87619
2.74076
3.36836
3.37513
3.23519
3.0886
2.97844
2.88796
2.78793
2.67916
2.57373
2.49016
2.42802
2.37162
2.31368
2.25343
2.17672
2.06082
1.96008
1.91722
1.89249
1.87233
1.85837
1.85217
1.84945
1.84467
1.84873
1.8372
1.8471
1.88119
1.91068
1.95234
1.99862
1.99775
1.96889
1.93099
1.91365
1.90727
1.9184
1.99601
2.19321
2.53622
2.86711
3.15569
3.30087
3.2883
3.24415
3.19339
3.16078
3.13024
3.08361
3.03539
2.98115
2.91953
2.85654
2.80852
2.76162
2.70235
2.64094
2.59198
2.55835
2.52855
2.496
2.45408
2.40127
2.34486
2.29226
2.25068
2.22247
2.2014
2.16039
5.95708
5.61264
5.27211
4.95576
4.65326
4.34046
4.04563
3.80584
3.57617
3.33053
3.09466
2.931
2.75602
2.5937
2.41559
2.29791
2.179
2.05937
1.9519
1.85355
1.77487
1.69442
1.61117
1.6632
2.1496
3.10407
3.67165
3.67726
3.53939
3.38662
3.26069
3.15298
3.04035
2.92125
2.80188
2.69089
2.60075
2.53227
2.47056
2.40584
2.33478
2.25319
2.15235
2.04414
1.97301
1.91882
1.8728
1.84133
1.81702
1.79139
1.7738
1.75038
1.69931
1.64854
1.63824
1.65003
1.68615
1.74188
1.80845
1.85442
1.84579
1.81623
1.79933
1.78026
1.76881
1.7884
1.86646
2.06004
2.36403
2.73098
2.97089
3.09119
3.06463
3.04498
3.04477
3.02834
3.00118
2.95434
2.89605
2.8376
2.79133
2.74901
2.70738
2.65719
2.59209
2.53317
2.49086
2.45258
2.41052
2.36949
2.33379
2.29311
2.24465
2.20669
2.18543
2.14421
5.98256
5.66288
5.34191
5.04048
4.75476
4.45922
4.17917
3.93457
3.70675
3.46026
3.24909
3.0735
2.89788
2.71173
2.5428
2.43378
2.30553
2.18993
2.06238
1.96436
1.87944
1.7974
1.88672
2.53768
3.54636
4.04183
3.97917
3.81254
3.65725
3.5389
3.4281
3.30792
3.17339
3.03194
2.9002
2.79102
2.7029
2.62608
2.55416
2.48434
2.41303
2.33684
2.25167
2.14893
2.05028
1.979
1.92495
1.87776
1.83403
1.79136
1.75111
1.71769
1.68901
1.64576
1.58377
1.54044
1.5227
1.52622
1.54273
1.57993
1.61966
1.6297
1.62181
1.63307
1.63581
1.637
1.66217
1.7093
1.77946
1.9437
2.21346
2.52045
2.70339
2.83215
2.89897
2.90943
2.91866
2.91067
2.87372
2.82642
2.77583
2.73121
2.69367
2.65257
2.60333
2.54153
2.46904
2.39955
2.35853
2.33792
2.31811
2.29296
2.25674
2.2037
2.16249
2.11789
6.05413
5.74681
5.4411
5.15006
4.86615
4.57833
4.31114
4.07193
3.83723
3.59058
3.39062
3.20801
3.02921
2.83353
2.68255
2.56055
2.4312
2.30192
2.17033
2.07513
1.99216
2.12991
2.91915
4.16499
4.49069
4.29817
4.09176
3.93266
3.80073
3.68634
3.57144
3.44766
3.30784
3.153
3.00715
2.89251
2.80077
2.71818
2.6384
2.55997
2.48426
2.41147
2.33657
2.25172
2.15686
2.06181
1.97875
1.91377
1.86412
1.8177
1.77401
1.73951
1.70763
1.66537
1.6042
1.53189
1.48793
1.46351
1.44862
1.44336
1.44326
1.43582
1.43312
1.43191
1.44175
1.45582
1.48318
1.52852
1.54701
1.56877
1.64648
1.79502
1.99623
2.22283
2.44089
2.59199
2.71404
2.79291
2.81035
2.8045
2.76488
2.70885
2.66438
2.63092
2.59241
2.5437
2.4774
2.39762
2.33018
2.29322
2.27852
2.27316
2.25372
2.21906
2.17768
2.10109
6.12607
5.82072
5.52381
5.2375
4.95345
4.67794
4.42699
4.18732
3.94042
3.70342
3.52001
3.33963
3.15046
2.94862
2.81798
2.68309
2.55385
2.40459
2.27804
2.20115
2.41269
3.35686
4.62857
4.94633
4.76751
4.44012
4.19705
4.06418
3.95469
3.84009
3.71721
3.58351
3.43605
3.27437
3.11472
2.98798
2.8909
2.80506
2.72194
2.63767
2.55104
2.46458
2.38347
2.3088
2.23373
2.15286
2.07296
2.00027
1.93299
1.86752
1.8135
1.7729
1.73766
1.7039
1.6572
1.58266
1.49818
1.44919
1.42019
1.39646
1.37839
1.36849
1.36239
1.33999
1.30953
1.29877
1.30306
1.31784
1.34187
1.36232
1.3922
1.44345
1.49309
1.56815
1.74554
1.98934
2.20823
2.39311
2.59232
2.68052
2.67561
2.66018
2.62835
2.56619
2.53265
2.5068
2.46837
2.41639
2.35753
2.29522
2.24197
2.21272
2.20631
2.20515
2.18288
2.1009
6.18754
5.87406
5.58861
5.31209
5.03295
4.76836
4.52787
4.29232
4.05101
3.82713
3.63954
3.46042
3.26146
3.07876
2.94576
2.81096
2.65737
2.50658
2.43068
2.74491
3.89125
5.0929
5.4015
5.20996
4.91183
4.62353
4.38203
4.22019
4.08292
3.95211
3.82114
3.6883
3.5515
3.40131
3.23664
3.08532
2.96844
2.87399
2.78946
2.7093
2.62938
2.54668
2.46081
2.37295
2.28467
2.19787
2.11834
2.04982
1.98752
1.9266
1.8697
1.816
1.76592
1.72535
1.68489
1.63027
1.56691
1.50295
1.44165
1.39484
1.36345
1.3358
1.31413
1.29894
1.28468
1.2664
1.24165
1.21508
1.20563
1.20783
1.21388
1.23661
1.26091
1.27151
1.30101
1.38527
1.55934
1.77922
2.05271
2.25292
2.39013
2.51051
2.53739
2.50364
2.45362
2.44643
2.43077
2.41135
2.3763
2.32112
2.25023
2.19125
2.15824
2.14277
2.13512
2.08961
6.23771
5.96329
5.66192
5.39556
5.12403
4.87096
4.63848
4.40175
4.15959
3.95085
3.76519
3.57808
3.37734
3.20705
3.06816
2.91058
2.75954
2.69302
3.10213
4.5515
5.62203
5.73685
5.53447
5.26536
5.03029
4.81637
4.58477
4.38347
4.21747
4.06349
3.91709
3.77737
3.64153
3.50155
3.35036
3.19507
3.05806
2.94664
2.8519
2.767
2.68847
2.61241
2.53422
2.44939
2.35419
2.24912
2.15
2.07613
2.02154
1.97302
1.92261
1.8644
1.79801
1.73661
1.69373
1.66032
1.62113
1.57091
1.5142
1.45082
1.38799
1.33798
1.30702
1.28571
1.27147
1.25628
1.22794
1.1977
1.17671
1.15627
1.13749
1.13057
1.12852
1.1302
1.13231
1.13573
1.16096
1.23155
1.37131
1.60021
1.82969
2.0128
2.18248
2.33055
2.33444
2.34537
2.36167
2.35415
2.33716
2.31456
2.27221
2.2033
2.1421
2.10812
2.09328
2.05848
5.91221
6.03048
5.77686
5.4809
5.20935
4.972
4.73958
4.5003
4.26226
4.07574
3.87843
3.68579
3.48146
3.33327
3.17054
3.00721
2.98107
3.55784
5.14691
6.30497
6.33772
6.05748
5.70759
5.41349
5.1842
4.97673
4.75535
4.53765
4.34897
4.18266
4.02862
3.88304
3.74138
3.59807
3.44929
3.29609
3.14897
3.01918
2.90793
2.8114
2.72658
2.65094
2.57971
2.50574
2.42095
2.32072
2.21549
2.12774
2.06275
2.01177
1.96484
1.91289
1.85066
1.77972
1.71357
1.6647
1.62874
1.59644
1.55851
1.50921
1.45136
1.39331
1.34079
1.29812
1.26677
1.24341
1.22108
1.19593
1.16689
1.138
1.11546
1.1023
1.09383
1.08453
1.06984
1.04749
1.0351
1.03433
1.04475
1.09172
1.19557
1.36638
1.54948
1.77892
1.94491
2.07276
2.22127
2.26766
2.25564
2.22691
2.19962
2.18553
2.16069
2.11352
2.08182
2.03886
4.44843
5.86338
5.87297
5.59967
5.30645
5.06564
4.83629
4.59259
4.37397
4.18473
3.99256
3.78046
3.60044
3.43622
3.25372
3.30142
4.09991
5.95072
6.86534
6.66355
6.39828
6.13503
5.87523
5.62199
5.36913
5.11302
4.87
4.65358
4.46573
4.29753
4.13953
3.98476
3.83091
3.67889
3.53005
3.38468
3.24299
3.10745
2.98234
2.87008
2.76898
2.67758
2.59529
2.52032
2.44671
2.36517
2.27741
2.19288
2.11379
2.04075
1.9774
1.92541
1.87887
1.82519
1.76287
1.70346
1.65024
1.60203
1.56033
1.52479
1.48757
1.44166
1.39074
1.34416
1.30613
1.27159
1.23443
1.19637
1.16192
1.13059
1.10177
1.08189
1.07015
1.05871
1.04312
1.02889
1.01108
0.981664
0.962243
0.957796
0.961195
0.985382
1.04394
1.15633
1.32959
1.5165
1.72331
1.91819
2.11159
2.13376
2.09087
2.0911
2.08568
2.08299
2.07521
2.03735
2.05484
4.80258
5.78968
5.70627
5.42533
5.16694
4.93175
4.69135
4.48319
4.28984
4.09615
3.88432
3.70927
3.51227
3.63581
4.79521
6.74227
7.6479
7.46138
6.9368
6.48491
6.2421
6.03792
5.80578
5.54541
5.26596
4.9908
4.75574
4.56465
4.39536
4.23514
4.07706
3.91665
3.75501
3.59872
3.45239
3.31443
3.18212
3.05708
2.94224
2.83482
2.7316
2.63237
2.53856
2.45436
2.38163
2.31447
2.24736
2.17779
2.10438
2.02742
1.94749
1.87151
1.81479
1.77289
1.73265
1.69111
1.64989
1.60542
1.55054
1.48744
1.43077
1.39186
1.36266
1.33498
1.30557
1.27252
1.23645
1.19712
1.15135
1.10912
1.08197
1.06375
1.05037
1.03991
1.02498
0.998271
0.968639
0.951111
0.935663
0.91911
0.910451
0.904651
0.909619
0.933566
0.997837
1.12703
1.29789
1.51868
1.74963
1.85964
1.91913
1.95183
1.9682
1.99201
1.99729
1.08895
2.47697
5.02928
5.67324
5.54671
5.28923
5.02741
4.78717
4.59582
4.39868
4.1898
3.99185
3.80655
4.01804
5.52624
7.73429
8.25967
7.89007
7.49736
7.1155
6.75133
6.46972
6.21404
5.95067
5.67618
5.39386
5.11722
4.87145
4.66386
4.48062
4.30749
4.13865
3.97512
3.8176
3.66568
3.51871
3.37684
3.24264
3.11934
3.00693
2.89953
2.79234
2.68422
2.57639
2.47528
2.39077
2.32464
2.26773
2.20975
2.14442
2.06957
1.98734
1.90599
1.83551
1.77823
1.73466
1.70048
1.66923
1.63318
1.58261
1.51925
1.46065
1.41335
1.37534
1.34468
1.31547
1.286
1.25637
1.22202
1.18202
1.1472
1.12042
1.09357
1.06303
1.03103
1.00322
0.978717
0.962
0.948794
0.931407
0.913556
0.892501
0.868758
0.858234
0.854758
0.849818
0.856926
0.887624
0.959572
1.09583
1.28399
1.4524
1.65384
1.75809
1.82181
1.88119
1.00163
1.17352
2.86955
5.13136
5.54481
5.41101
5.14285
4.8944
4.701
4.49525
4.29561
4.12116
4.52533
6.44663
8.51851
9.1577
8.70079
8.06921
7.55152
7.22562
6.94805
6.67026
6.37991
6.08538
5.79446
5.51046
5.23864
4.98733
4.76187
4.56062
4.37633
4.20235
4.03707
3.87981
3.72728
3.57624
3.428
3.28951
3.1659
3.05536
2.94939
2.84153
2.73151
2.62033
2.5124
2.41826
2.34331
2.28127
2.22261
2.15988
2.08766
2.00581
1.92458
1.85844
1.80862
1.76749
1.72945
1.68864
1.64095
1.58578
1.52904
1.4767
1.43073
1.39167
1.3669
1.34613
1.31732
1.26976
1.21589
1.18296
1.165
1.14757
1.1237
1.08949
1.04461
1.008
0.994587
0.983445
0.965211
0.941549
0.916302
0.887286
0.862234
0.848231
0.835077
0.823805
0.81567
0.808411
0.80022
0.810507
0.844784
0.918918
1.05079
1.23616
1.39533
1.6136
1.00001
1.00446
1.28412
3.19781
5.13523
5.43413
5.2784
5.02475
4.78851
4.58118
4.46549
5.13443
7.6753
9.48295
9.61756
9.31056
8.873
8.31712
7.76969
7.38593
7.07525
6.78165
6.49236
6.19769
5.90464
5.62117
5.34946
5.09104
4.85099
4.63351
4.43822
4.26092
4.09628
3.93828
3.78115
3.6236
3.46994
3.32735
3.19998
3.08743
2.98265
2.8765
2.76645
2.65474
2.54559
2.44756
2.36672
2.30013
2.24073
2.18199
2.11784
2.04259
1.95825
1.87928
1.81449
1.76512
1.72971
1.70014
1.66724
1.62165
1.55983
1.4826
1.43527
1.41835
1.3969
1.36914
1.33137
1.28277
1.24158
1.20995
1.18057
1.15089
1.12062
1.09247
1.06585
1.03581
0.998819
0.968931
0.951316
0.93243
0.909258
0.887456
0.869987
0.852018
0.834101
0.819834
0.807053
0.796071
0.785789
0.778249
0.760017
0.748615
0.757579
0.796908
0.866111
1.10273
1
1.00003
1.00974
1.40867
3.43102
5.09202
5.32959
5.1795
4.89905
4.78823
5.90753
8.75499
10.7465
10.6639
9.96721
9.33577
8.93944
8.5015
8.01043
7.56631
7.1889
6.85488
6.55075
6.26056
5.97718
5.70153
5.43467
5.17757
4.93266
4.70622
4.50356
4.32188
4.153
3.98868
3.82274
3.65632
3.49899
3.35875
3.23354
3.11871
3.01256
2.90931
2.79925
2.68378
2.57274
2.47584
2.39463
2.32423
2.25999
2.19776
2.1332
2.06204
1.98501
1.90976
1.84485
1.79404
1.7486
1.70314
1.66542
1.63591
1.59611
1.53344
1.47247
1.41585
1.3682
1.33466
1.31622
1.30134
1.27648
1.24597
1.21514
1.18512
1.15646
1.12935
1.10047
1.06281
1.01027
0.967265
0.950853
0.944062
0.936274
0.922239
0.902812
0.877226
0.852693
0.833792
0.817334
0.802485
0.789047
0.769045
0.746092
0.726996
0.713808
0.707998
0.711567
0.760574
1
1
1.00008
1.01785
1.52995
3.56245
5.09593
5.1491
5.18046
6.79078
10.2033
11.3931
11.333
10.8582
10.2126
9.48968
9.01775
8.62067
8.19236
7.75443
7.3338
6.94732
6.60777
6.30743
6.02982
5.7647
5.50673
5.25492
5.011
4.77984
4.56673
4.37207
4.19173
4.01973
3.85054
3.68521
3.53262
3.39823
3.27637
3.15644
3.03635
2.92047
2.8043
2.69105
2.58756
2.49619
2.41562
2.34255
2.27409
2.20877
2.14442
2.07554
1.99434
1.90686
1.83401
1.78847
1.75665
1.7246
1.68722
1.6384
1.57664
1.51626
1.46068
1.40724
1.36544
1.33511
1.3065
1.2787
1.25429
1.22947
1.20225
1.17102
1.13692
1.10294
1.06907
1.03313
1.00127
0.981185
0.967234
0.950144
0.929038
0.908163
0.88661
0.86438
0.844561
0.826864
0.80843
0.789107
0.76835
0.744462
0.72495
0.712305
0.705761
0.700845
0.695944
0.682471
1
1
1
1.00019
1.02757
1.63018
3.83377
4.59148
7.22916
11.6305
12.7218
12.2325
11.4752
10.9441
10.3933
9.74176
9.18284
8.72805
8.29459
7.86849
7.44752
7.04945
6.69217
6.3766
6.08937
5.81767
5.55649
5.30484
5.06429
4.83622
4.62033
4.41453
4.21673
4.02748
3.85074
3.69034
3.54783
3.4213
3.30717
3.19486
3.07156
2.94823
2.8273
2.70772
2.59912
2.50898
2.43359
2.36552
2.29917
2.23095
2.15775
2.07801
1.99511
1.91902
1.86006
1.81528
1.77306
1.72957
1.68391
1.63331
1.58188
1.5305
1.47233
1.41429
1.36944
1.33432
1.30397
1.27902
1.25738
1.23534
1.20913
1.17563
1.1372
1.09988
1.06525
1.0335
1.01137
0.995926
0.978761
0.957449
0.933798
0.909529
0.885981
0.865147
0.848179
0.832093
0.81358
0.792179
0.767376
0.741724
0.721928
0.710934
0.704709
0.698809
0.691457
0.675091
1
1
1
1
1.00032
1.04048
1.72924
4.46877
12.2841
13.9019
13.0219
12.3846
11.5831
11.0195
10.5088
9.90666
9.32818
8.79409
8.31744
7.88795
7.48842
7.11147
6.75465
6.42312
6.11677
5.83002
5.56202
5.31589
5.0899
4.87494
4.6614
4.44571
4.23198
4.03168
3.85624
3.70785
3.58049
3.46219
3.34474
3.23421
3.13638
3.02027
2.89053
2.76491
2.65945
2.57751
2.50836
2.44226
2.37287
2.29638
2.21317
2.12924
2.05343
1.98962
1.93376
1.87875
1.82264
1.76865
1.71884
1.67307
1.62786
1.57604
1.51385
1.45086
1.40267
1.37021
1.34605
1.32451
1.30255
1.27766
1.24575
1.20404
1.15793
1.11862
1.08995
1.06963
1.05264
1.03367
1.01065
0.983577
0.954463
0.928323
0.908593
0.893972
0.880494
0.864399
0.842736
0.813735
0.779777
0.751425
0.735686
0.728061
0.721328
0.714123
0.705315
0.682156
1
1
1
1
1
1.00053
1.05734
6.10327
14.8836
14.589
13.5496
12.8505
11.9834
11.2818
10.6827
10.054
9.44672
8.85741
8.34388
7.90355
7.51421
7.15349
6.80245
6.45899
6.13427
5.83945
5.57418
5.33014
5.10034
4.88013
4.66486
4.45212
4.24403
4.04893
3.87432
3.71969
3.58044
3.45534
3.34319
3.23418
3.11046
2.97291
2.82958
2.6979
2.59725
2.52147
2.45512
2.38915
2.31839
2.24
2.15555
2.07296
2.00082
1.93943
1.88344
1.82845
1.77378
1.72186
1.67474
1.63099
1.58679
1.5363
1.4758
1.41267
1.36364
1.33258
1.30969
1.28826
1.26623
1.24179
1.2108
1.17055
1.12533
1.0868
1.06014
1.04145
1.0246
1.00597
0.98342
0.955873
0.926355
0.902086
0.885188
0.872959
0.861001
0.845493
0.824031
0.793265
0.755348
0.72618
0.714769
0.709059
0.70303
0.69619
0.687125
0.662874
)
;

boundaryField
{
    inlet
    {
        type            fixedValue;
        value           uniform 1;
    }
    outlet
    {
        type            zeroGradient;
    }
    bottom
    {
        type            symmetryPlane;
    }
    top
    {
        type            symmetryPlane;
    }
    obstacle
    {
        type            zeroGradient;
    }
    defaultFaces
    {
        type            empty;
    }
}


// ************************************************************************* //
