/*--------------------------------*- C++ -*----------------------------------*\
  =========                 |
  \\      /  F ield         | OpenFOAM: The Open Source CFD Toolbox
   \\    /   O peration     | Website:  https://openfoam.org
    \\  /    A nd           | Version:  7
     \\/     M anipulation  |
\*---------------------------------------------------------------------------*/
FoamFile
{
    version     2.0;
    format      ascii;
    class       volScalarField;
    location    "1.4";
    object      T;
}
// * * * * * * * * * * * * * * * * * * * * * * * * * * * * * * * * * * * * * //

dimensions      [0 0 0 1 0 0 0];

internalField   nonuniform List<scalar> 
4032
(
1
1
1
1
1
1
1
1
1
1
1
1
1.57917
2.64631
2.76309
2.75511
2.75946
2.77162
2.79256
2.81766
2.84561
2.87708
2.90569
2.92119
1
1
1
1
1
1
1
1
1
1
1
1
1.54673
2.63067
2.761
2.75351
2.75733
2.7692
2.78995
2.8149
2.84273
2.87375
2.9018
2.91676
1
1
1
1
1
1
1
1
1
1
1
1
1.47203
2.59628
2.75607
2.74878
2.75282
2.7651
2.78613
2.81108
2.83881
2.86955
2.897
2.91175
1
1
1
1
1
1
1
1
1
1
1
1
1.36068
2.53632
2.74535
2.74011
2.74557
2.75926
2.78083
2.80576
2.83303
2.86249
2.88876
2.90192
1
1
1
1
1
1
1
1
1
1
1
1
1.20596
2.4448
2.72896
2.72778
2.73688
2.75281
2.77408
2.79738
2.82188
2.84873
2.87378
2.88821
1
1
1
1
1
1
1
1
1
1
1
1
1.0152
2.32645
2.71426
2.72022
2.73066
2.74502
2.76337
2.78417
2.80676
2.83215
2.85352
2.85987
1
1
1
1
1
1
1
1
1
1
1
1
1.00012
2.18826
2.69179
2.70487
2.71703
2.73223
2.7494
2.76706
2.78321
2.80014
2.8152
2.82011
1
1
1
1
1
1
1
1
1
1
1
1
1
1.99562
2.65927
2.69055
2.70462
2.71898
2.73246
2.74463
2.75451
2.76677
2.78559
2.81092
1
1
1
1
1
1
1
1
1
1
1
1
1
1.70851
2.5723
2.66681
2.68643
2.70157
2.7112
2.71842
2.71926
2.71478
2.68381
2.59898
1
1
1
1
1
1
1
1
1
1
1
1
1
1.30116
2.42723
2.64855
2.66246
2.67306
2.67897
2.68111
2.67554
2.65365
2.61033
2.46061
1
1
1
1
1
1
1
1
1
1
1
1
1
1.02258
2.27006
2.61637
2.6292
2.63536
2.6368
2.63509
2.62618
2.59681
2.54316
2.37235
1
1
1
1
1
1
1
1
1
1
1
1
1
1.0001
1.99761
2.57803
2.60753
2.60601
2.60302
2.59566
2.57962
2.54723
2.48147
2.32744
1
1
1
1
1
1
1
1
1
1
1
1
1
1
1.54528
2.46222
2.57976
2.57079
2.56471
2.55466
2.53374
2.50141
2.43048
2.31835
1
1
1
1
1
1
1
1
1
1
1
1
1
1
1.07412
2.2649
2.54117
2.53234
2.52816
2.51783
2.49724
2.46029
2.39653
2.31039
1
1
1
1
1
1
1
1
1
1
1
1
1
1
1.0011
1.90274
2.45759
2.50984
2.5051
2.49062
2.4679
2.42997
2.37425
2.30409
1
1
1
1
1
1
1
1
1
1
1
1
1
1
0.999998
1.26932
2.28698
2.48789
2.47629
2.46199
2.43793
2.40327
2.35489
2.2959
1
1
1
1
1
1
1
1
1
1
1
1
1
1
1
1.01553
2.03929
2.4255
2.44032
2.43177
2.41205
2.38028
2.33687
2.28612
1
1
1
1
1
1
1
1
1
1
1
1
1
1
1
1.00003
1.43726
2.27168
2.4195
2.40081
2.38257
2.35425
2.31626
2.27289
1
1
1
1
1
1
1
1
1
1
1
1
1
1
1
1
1.04348
2.03963
2.37404
2.36278
2.34633
2.32266
2.29135
2.25534
1
1
1
1
1
1
1
1
1
1
1
1
1
1
1
1
1.00035
1.42365
2.20009
2.34337
2.31847
2.29582
2.26867
2.23782
1
1
1
1
1
1
1
1
1
1
1
1
1
1
1
1
1
1.04274
1.93826
2.29994
2.28736
2.26432
2.2406
2.21449
1
1
1
1
1
1
1
1
1
1
1
1
1
1
1
1
1
1.0004
1.33924
2.11049
2.26574
2.23633
2.21589
2.19236
1
1
1
1
1
1
1
1
1
1
1
1
1
1
1
1
1
1
1.02523
1.71472
2.17299
2.21493
2.19406
2.17059
1
1
1
1
1
1
1
1
1
1
1
1
1
1
1
1
1
1
1.00022
1.16977
1.93041
2.19347
2.17403
2.15264
1
1
1
1
1
1
1
1
1
1
1
1
1
1
1
1
1
1
1
1.006
1.41391
2.02679
2.15321
2.13074
1
1
1
1
1
1
1
1
1
1
1
1
1
1
1
1
1
1
1
1.00003
1.0438
1.65351
2.0479
2.11619
1
1
1
1
1
1
1
1
1
1
1
1
1
1
1
1
1
1
1
1
1.00063
1.15038
1.79087
2.06308
1
1
1
1
1
1
1
1
1
1
1
1
1
1
1
1
1
1
1
1
1
1.00516
1.29375
1.85953
1
1
1
1
1
1
1
1
1
1
1
1
1
1
1
1
1
1
1
1
1
1.00003
1.02126
1.41867
1
1
1
1
1
1
1
1
1
1
1
1
1
1
1
1
1
1
1
1
1
1
1.00024
1.05213
1
1
1
1
1
1
1
1
1
1
1
1
1
1
1
1
1
1
1
1
1
1
1
1.00096
1
1
1
1
1
1
1
1
1
1
1
1
1
1
1
1
1
1
1
1
1
1
1
1
1
1
1
1
1
1
1
1
1
1
1
1
1
1
1
1
1
1
1
1
1
1
1
1
1
1
1
1
1
1
1
1
1
1
1
1
1
1
1
1
1
1
1
1
1
1
1
1
1
1
1
1
1
1
1
1
1
1
1
1
1
1
1
1
1
1
1
1
1
1
1
1
1
1
1
1
1
1
1
1
1
1
1
1
1
1
1
1
1
1
1
1
1
1
1
1
1
1
1
1
1
1
1
1
1
1
1
1
1
1
1
1
1
1
1
1
1
1
1
1
1
1
1
1
1
1
1
1
1
1
1
1
1
1
1
1
1
1
1
1
1
1
1
1
1
1
1
1
1
1
1
1
1
1
1
1
1
1
1
1
1
1
1
1
1
1
1
1
1
1
1
1
1
1
1
1
1
1
1
1
1
1
1
1
1
1
1
1
1
1
1
1
1.75815
1.23475
0.957124
0.993877
1.19309
1.35426
1.47425
1.56741
1.62785
1.64221
1.65043
1.6986
1.76584
1.79215
1.79068
1.76975
1.75343
1.75896
1.7902
1.80238
1.79168
1.77153
1.76237
1.75819
1.75408
1.75501
1.75851
1.75817
1.75653
1.75276
1.74996
1.75081
1.75566
1.7575
1.75732
1.75565
1.75244
1.74697
1.7386
1.7301
1.72466
1.72082
1.71915
1.71927
1.71868
1.71435
1.70455
1.69473
1.68991
1.68854
1.68839
1.68812
1.68958
1.69364
1.71449
1.78332
1.9045
2.05036
2.19676
2.31718
2.41197
2.47216
2.51828
2.56393
2.56018
2.53996
2.51412
2.49124
2.4657
2.4398
2.41082
2.38317
2.3544
2.32511
2.29875
2.27781
2.26178
2.2456
2.23457
2.22845
2.2228
2.21889
2.2199
2.22158
2.22113
2.21407
2.19322
2.18157
2.18135
2.18525
2.19648
2.21076
2.2194
2.22403
2.22563
2.22406
1.99228
1.738
1.53296
1.34021
1.35223
1.36625
1.37723
1.37209
1.35578
1.37331
1.41307
1.47777
1.54212
1.58133
1.59901
1.61005
1.62157
1.63918
1.67722
1.71041
1.71212
1.71025
1.70816
1.70815
1.70664
1.70837
1.71711
1.7222
1.72215
1.72042
1.71903
1.71995
1.72389
1.72574
1.72576
1.72401
1.72075
1.71645
1.71081
1.70459
1.69826
1.6947
1.69442
1.69506
1.69501
1.69228
1.68541
1.67755
1.67028
1.66579
1.66196
1.66672
1.68369
1.73807
1.83454
1.92504
2.00455
2.03402
2.04509
2.06411
2.10634
2.16174
2.2073
2.24019
2.26682
2.28477
2.2996
2.31617
2.32955
2.33358
2.32725
2.31577
2.29984
2.28073
2.26073
2.2419
2.22683
2.21272
2.20102
2.19397
2.18759
2.1833
2.18345
2.18362
2.18206
2.17447
2.15878
2.1457
2.1434
2.14538
2.1531
2.16412
2.17255
2.1759
2.17809
2.17837
2.09033
1.89542
1.74841
1.61185
1.51896
1.45146
1.38206
1.34084
1.29308
1.2765
1.30333
1.3508
1.37768
1.39535
1.41089
1.43572
1.46488
1.48995
1.52048
1.56263
1.60011
1.61996
1.62875
1.62908
1.62717
1.62799
1.6343
1.64145
1.64263
1.64276
1.64465
1.64852
1.65203
1.6553
1.65799
1.65805
1.65619
1.6528
1.64942
1.64639
1.64381
1.6421
1.64074
1.63892
1.63605
1.63173
1.62594
1.62075
1.61381
1.61732
1.63337
1.68176
1.77079
1.8648
1.95229
1.96989
1.96237
1.95201
1.94012
1.9258
1.89469
1.88083
1.89277
1.91867
1.9652
2.01955
2.0627
2.09835
2.12755
2.1453
2.15891
2.16795
2.17568
2.179
2.17658
2.16947
2.15579
2.139
2.12426
2.11011
2.09804
2.09071
2.08723
2.08451
2.08017
2.07309
2.06428
2.05517
2.05108
2.0519
2.05649
2.06654
2.07585
2.07967
2.07859
2.07901
2.14063
1.98674
1.85037
1.74877
1.65945
1.57219
1.49076
1.44339
1.40014
1.34625
1.3311
1.32255
1.30867
1.30546
1.30909
1.31976
1.34379
1.37416
1.40017
1.43179
1.47365
1.50464
1.52479
1.54218
1.55167
1.55814
1.56735
1.57658
1.57688
1.57602
1.57733
1.58023
1.58012
1.58068
1.58199
1.58263
1.58147
1.579
1.57661
1.57577
1.5746
1.5735
1.57208
1.56891
1.5635
1.55769
1.55158
1.55279
1.56112
1.59363
1.66952
1.77664
1.87961
1.90936
1.91842
1.91338
1.90665
1.89438
1.87256
1.84605
1.82037
1.80423
1.79414
1.78534
1.78099
1.79307
1.81867
1.85014
1.88705
1.9288
1.96971
2.00331
2.02804
2.04002
2.04863
2.04806
2.04273
2.03614
2.02682
2.01402
2.00835
2.00667
2.00594
2.00432
2.00077
1.9932
1.98387
1.97483
1.96816
1.96478
1.96202
1.96172
1.96462
1.96469
1.9616
1.95989
2.18365
2.0593
1.93492
1.83949
1.75704
1.66873
1.59021
1.5392
1.4897
1.43876
1.40045
1.3706
1.33509
1.3001
1.29521
1.29899
1.30362
1.31282
1.32297
1.34135
1.37789
1.41754
1.44655
1.47554
1.49132
1.49888
1.50785
1.51983
1.52929
1.53053
1.53499
1.54208
1.54278
1.54196
1.53943
1.53554
1.53
1.5253
1.52206
1.52052
1.52041
1.52094
1.52064
1.51721
1.51177
1.50704
1.50956
1.52614
1.58172
1.69112
1.80153
1.85925
1.8815
1.89341
1.88871
1.87645
1.85945
1.83852
1.81932
1.8053
1.79339
1.78059
1.76716
1.75652
1.74699
1.7396
1.73269
1.72315
1.72004
1.73065
1.76086
1.80239
1.84635
1.8839
1.91701
1.93573
1.94747
1.94834
1.94201
1.93034
1.92687
1.92428
1.92217
1.92395
1.92934
1.92947
1.9291
1.92711
1.9208
1.91014
1.8949
1.87971
1.87084
1.86427
1.85928
1.85423
2.21001
2.10646
2.00249
1.91207
1.82924
1.74848
1.67438
1.62007
1.56816
1.51414
1.47694
1.44432
1.4097
1.3682
1.35103
1.33643
1.31829
1.31165
1.31401
1.31146
1.31395
1.32978
1.35678
1.39226
1.42486
1.44842
1.46394
1.47915
1.49339
1.49693
1.50142
1.51036
1.51538
1.51501
1.51337
1.51185
1.50807
1.50158
1.49584
1.49254
1.49076
1.48983
1.48709
1.48344
1.4842
1.49328
1.52993
1.62645
1.74469
1.82407
1.86396
1.88288
1.88182
1.87498
1.85908
1.84005
1.82524
1.81217
1.80221
1.79103
1.77495
1.75849
1.7481
1.74112
1.73494
1.72815
1.71955
1.70962
1.69485
1.67596
1.66492
1.66537
1.67479
1.69763
1.73043
1.76823
1.80397
1.83926
1.85218
1.85961
1.86536
1.86021
1.85011
1.84973
1.85401
1.86424
1.87426
1.87393
1.87143
1.86629
1.85686
1.84067
1.82148
1.81188
1.80922
1.80296
2.22623
2.13817
2.05026
1.97111
1.89148
1.81144
1.74801
1.68881
1.63453
1.58287
1.54305
1.5066
1.46652
1.42701
1.40186
1.38072
1.35725
1.33409
1.32864
1.31936
1.30975
1.30966
1.31489
1.32559
1.34518
1.37412
1.40372
1.42839
1.45276
1.4684
1.47567
1.48518
1.49345
1.49345
1.49189
1.49259
1.49198
1.48837
1.48576
1.48438
1.48121
1.4768
1.47172
1.47396
1.49674
1.58692
1.70647
1.81068
1.86574
1.88969
1.8862
1.87668
1.86248
1.84842
1.83385
1.82286
1.81556
1.80448
1.7895
1.77433
1.75656
1.74017
1.73461
1.73129
1.72689
1.71948
1.70952
1.69802
1.68504
1.6679
1.64665
1.63234
1.62415
1.61652
1.6119
1.6164
1.62971
1.65284
1.68086
1.70609
1.72476
1.73863
1.75369
1.76839
1.77592
1.78778
1.80264
1.81066
1.81466
1.81375
1.8068
1.79489
1.78181
1.77292
1.77063
1.76797
2.22986
2.15454
2.08266
2.01232
1.93528
1.86177
1.80581
1.74825
1.6911
1.64103
1.60273
1.56084
1.52426
1.48885
1.46247
1.43674
1.41137
1.38528
1.37429
1.36214
1.33898
1.32006
1.32159
1.31797
1.3162
1.31936
1.33229
1.35797
1.38667
1.41524
1.43459
1.44814
1.46606
1.47061
1.47101
1.4742
1.47615
1.47558
1.4753
1.47239
1.47027
1.46833
1.47695
1.5281
1.652
1.78632
1.86273
1.90005
1.89968
1.8921
1.8723
1.8576
1.84477
1.83288
1.82439
1.81448
1.80158
1.78701
1.77184
1.75664
1.74077
1.72619
1.71878
1.71482
1.71023
1.70338
1.69375
1.68203
1.66947
1.65519
1.63362
1.61125
1.59822
1.58909
1.58088
1.57483
1.56929
1.56585
1.56519
1.56482
1.56018
1.56489
1.57376
1.58987
1.61663
1.64447
1.67431
1.70268
1.72447
1.73467
1.73576
1.73311
1.72954
1.7269
1.71942
1.71815
2.22836
2.16464
2.10249
2.03987
1.96936
1.90775
1.85186
1.79617
1.73743
1.69504
1.65531
1.61352
1.57003
1.54035
1.51418
1.48833
1.46532
1.4374
1.4157
1.3965
1.37397
1.34459
1.33408
1.32746
1.31596
1.31475
1.31851
1.3251
1.33363
1.34277
1.3589
1.3792
1.40238
1.42468
1.43885
1.44604
1.45567
1.46198
1.46231
1.46084
1.46439
1.50085
1.59294
1.7199
1.84396
1.89786
1.90849
1.90187
1.89166
1.8798
1.86619
1.84542
1.83143
1.81878
1.80547
1.79288
1.7794
1.76586
1.7528
1.73959
1.7247
1.7085
1.69896
1.69205
1.68531
1.67905
1.67252
1.66074
1.64708
1.63337
1.61595
1.59171
1.57352
1.56296
1.55368
1.54559
1.53881
1.53316
1.52826
1.52296
1.51627
1.50488
1.48766
1.46833
1.46447
1.47149
1.48886
1.51183
1.54165
1.5717
1.59976
1.62132
1.6321
1.64278
1.64834
1.65847
2.22277
2.16635
2.11178
2.05549
1.99335
1.93895
1.88777
1.83443
1.77915
1.7387
1.69766
1.65774
1.61727
1.58923
1.5599
1.52912
1.50706
1.48529
1.46094
1.4411
1.42259
1.39129
1.37039
1.36199
1.3486
1.3293
1.32656
1.3277
1.32221
1.31338
1.31252
1.31622
1.3265
1.34626
1.37451
1.39588
1.41558
1.43878
1.4447
1.46048
1.53582
1.6977
1.81208
1.8878
1.91409
1.9059
1.89864
1.89811
1.88578
1.86582
1.84641
1.82343
1.80442
1.79194
1.78004
1.76726
1.75412
1.74106
1.72734
1.71464
1.70037
1.68411
1.67392
1.66478
1.6565
1.64986
1.64155
1.62901
1.61541
1.60316
1.59101
1.57531
1.55407
1.53729
1.52669
1.51653
1.50696
1.5013
1.49586
1.48984
1.48354
1.47576
1.46551
1.44995
1.42839
1.4141
1.40719
1.40288
1.40269
1.40804
1.41951
1.43822
1.45789
1.47943
1.49834
1.53714
2.21244
2.1642
2.1166
2.06511
2.01103
1.96346
1.91594
1.86245
1.81461
1.77719
1.73786
1.69593
1.65497
1.63035
1.60168
1.57163
1.54401
1.52508
1.49675
1.4726
1.45863
1.43526
1.40936
1.39574
1.38134
1.35741
1.33914
1.33308
1.32251
1.31056
1.3049
1.30552
1.30543
1.30604
1.31193
1.32863
1.35201
1.39039
1.42946
1.54087
1.74213
1.86826
1.90681
1.93122
1.92815
1.91792
1.90193
1.88254
1.86363
1.84177
1.81889
1.79725
1.78063
1.76906
1.75582
1.74016
1.72529
1.70971
1.69546
1.68325
1.6719
1.66109
1.65087
1.63776
1.62482
1.61547
1.60577
1.59464
1.58204
1.57019
1.56056
1.55146
1.53862
1.51728
1.49832
1.48668
1.47677
1.46893
1.46401
1.45937
1.45307
1.4457
1.43749
1.4275
1.41268
1.39204
1.37667
1.36916
1.36291
1.3559
1.34846
1.34396
1.3427
1.34218
1.34481
1.36513
2.20035
2.15888
2.11618
2.06929
2.02107
1.97839
1.93492
1.88521
1.8434
1.80561
1.76825
1.72745
1.69427
1.66729
1.63798
1.60376
1.57598
1.5605
1.53724
1.50682
1.48948
1.46895
1.44175
1.42817
1.41662
1.39747
1.37276
1.36191
1.35044
1.33133
1.3136
1.31069
1.3065
1.29849
1.29566
1.29865
1.3093
1.36315
1.52816
1.71525
1.84669
1.8766
1.8951
1.89316
1.88553
1.86574
1.84588
1.82788
1.81468
1.80387
1.79036
1.77702
1.76296
1.74766
1.73091
1.7106
1.69224
1.67633
1.66324
1.65417
1.64363
1.63455
1.62453
1.60964
1.59086
1.57782
1.56828
1.55895
1.55076
1.54221
1.53179
1.52302
1.51447
1.50058
1.47709
1.45833
1.44706
1.43828
1.43151
1.42678
1.42476
1.41997
1.41022
1.40114
1.39193
1.37665
1.35459
1.34217
1.33616
1.32962
1.32241
1.3166
1.31029
1.30256
1.2979
1.28973
2.18266
2.14806
2.11093
2.06834
2.02604
1.98766
1.9469
1.90188
1.86541
1.83046
1.79453
1.75417
1.72615
1.69738
1.66845
1.63554
1.60817
1.58938
1.56657
1.53633
1.51738
1.50086
1.47382
1.45511
1.44235
1.42415
1.40003
1.38697
1.37469
1.35643
1.33132
1.31912
1.31024
1.29975
1.2942
1.30765
1.3877
1.56906
1.70048
1.78942
1.81428
1.81347
1.80912
1.79888
1.78533
1.7746
1.7687
1.7644
1.76188
1.75814
1.75413
1.74856
1.73471
1.71573
1.69606
1.67466
1.65751
1.647
1.63906
1.62978
1.61931
1.60854
1.59657
1.5811
1.56195
1.54437
1.53057
1.52042
1.51204
1.506
1.50138
1.4926
1.48484
1.47576
1.45874
1.43367
1.41886
1.41108
1.40369
1.39788
1.39804
1.39669
1.38662
1.37639
1.36757
1.35567
1.3376
1.31983
1.31152
1.30566
1.29991
1.29534
1.28754
1.27917
1.27308
1.26245
2.16425
2.13446
2.10237
2.06564
2.02826
1.99255
1.95533
1.91683
1.88279
1.84932
1.81268
1.77733
1.7524
1.72511
1.69525
1.65928
1.63776
1.61616
1.59242
1.56144
1.54119
1.52611
1.50164
1.48142
1.46931
1.45234
1.42665
1.4118
1.3985
1.38336
1.36018
1.3405
1.33146
1.32762
1.35046
1.44421
1.63216
1.74803
1.78505
1.7859
1.77855
1.75647
1.734
1.7146
1.69797
1.68627
1.68583
1.68612
1.68681
1.69079
1.69654
1.69674
1.69031
1.67133
1.64939
1.63661
1.62583
1.61861
1.61211
1.60233
1.59523
1.58558
1.57277
1.55582
1.53673
1.51718
1.49839
1.48565
1.47817
1.47175
1.46825
1.46598
1.45659
1.44695
1.43544
1.41512
1.39405
1.38553
1.37945
1.37345
1.37066
1.36508
1.35446
1.3448
1.33681
1.32887
1.31869
1.30425
1.29097
1.28473
1.27962
1.27369
1.26638
1.25802
1.24965
1.23588
2.14527
2.11886
2.09
2.05921
2.02809
1.99507
1.95866
1.92507
1.8949
1.86327
1.82732
1.79538
1.77
1.74325
1.71427
1.68356
1.6615
1.63757
1.61249
1.58244
1.56516
1.54918
1.52513
1.50156
1.48892
1.47328
1.45059
1.43358
1.41969
1.4036
1.38147
1.35843
1.35952
1.3948
1.53338
1.70341
1.81477
1.808
1.79412
1.7788
1.75312
1.7238
1.70404
1.68846
1.67343
1.6524
1.63313
1.62015
1.60993
1.60632
1.60405
1.60436
1.60422
1.59751
1.58446
1.58075
1.57687
1.56976
1.56638
1.56823
1.5662
1.55948
1.54815
1.53173
1.51101
1.48961
1.47251
1.45958
1.44987
1.44267
1.43569
1.4291
1.42192
1.41483
1.40764
1.39604
1.37782
1.36289
1.35497
1.34963
1.34471
1.33879
1.32907
1.31942
1.31144
1.30461
1.29684
1.28513
1.27197
1.26409
1.25877
1.25411
1.24779
1.23937
1.2297
1.21431
2.12997
2.10534
2.07856
2.05189
2.02471
1.99418
1.96108
1.93226
1.90275
1.87171
1.83704
1.81055
1.78551
1.75875
1.72748
1.701
1.68034
1.65586
1.63068
1.60274
1.58533
1.56708
1.5437
1.52144
1.50823
1.49233
1.46929
1.44992
1.43546
1.42124
1.40057
1.40366
1.47347
1.63501
1.78943
1.85852
1.84958
1.82525
1.79603
1.76403
1.73566
1.7118
1.695
1.68064
1.66488
1.64457
1.61929
1.59936
1.58533
1.57063
1.55597
1.5441
1.53244
1.52318
1.51478
1.50494
1.50423
1.50574
1.50959
1.51459
1.51635
1.51657
1.50973
1.49604
1.47828
1.46081
1.44855
1.4398
1.43027
1.41726
1.40528
1.39742
1.39108
1.38528
1.37916
1.37143
1.36049
1.34583
1.33154
1.32387
1.31888
1.31268
1.30533
1.29707
1.2889
1.2819
1.27379
1.2637
1.25195
1.24226
1.2367
1.23147
1.22587
1.21924
1.21111
1.19646
2.10872
2.08634
2.06196
2.03893
2.0154
1.98834
1.95873
1.93173
1.90385
1.87519
1.84479
1.82075
1.79395
1.76768
1.73846
1.71728
1.69455
1.66997
1.64238
1.61985
1.60452
1.58509
1.56167
1.53776
1.52395
1.50898
1.48662
1.46619
1.4521
1.43858
1.46021
1.56232
1.74061
1.86268
1.89844
1.88771
1.8529
1.8147
1.78329
1.75549
1.7306
1.71257
1.69708
1.68131
1.66218
1.63881
1.61211
1.58758
1.56732
1.54805
1.53176
1.51804
1.50488
1.49387
1.48128
1.46257
1.44318
1.43287
1.43314
1.43703
1.43794
1.43922
1.44167
1.44103
1.43039
1.41601
1.40926
1.40573
1.40056
1.38806
1.37886
1.37176
1.36572
1.36049
1.35443
1.34768
1.33848
1.32586
1.31267
1.30146
1.29481
1.28909
1.28238
1.27477
1.26647
1.25827
1.25147
1.24254
1.23091
1.21964
1.21238
1.20799
1.20426
1.19952
1.19409
1.18267
2.09136
2.06679
2.04563
2.02479
2.00281
1.97791
1.95426
1.9302
1.90518
1.87561
1.85059
1.82756
1.80268
1.77574
1.74838
1.72912
1.70476
1.68138
1.65414
1.63528
1.61815
1.59782
1.57451
1.55472
1.54028
1.52413
1.49887
1.4786
1.47407
1.5091
1.66317
1.83255
1.92974
1.92311
1.90639
1.87771
1.84162
1.80716
1.7779
1.75434
1.73469
1.71667
1.69777
1.67628
1.65333
1.63032
1.60696
1.58368
1.56162
1.54102
1.52221
1.50488
1.4886
1.47406
1.46173
1.4486
1.42948
1.4081
1.39534
1.38778
1.38145
1.37715
1.37383
1.36909
1.36425
1.35418
1.34586
1.3464
1.34624
1.34661
1.34623
1.33969
1.32955
1.3229
1.31866
1.31276
1.30554
1.29843
1.29035
1.28252
1.27578
1.26868
1.25982
1.25357
1.24658
1.2359
1.22576
1.21815
1.21033
1.19741
1.18743
1.18487
1.18268
1.17995
1.17907
1.1702
2.07462
2.05335
2.03051
2.01022
1.98949
1.96786
1.94666
1.92455
1.90107
1.87576
1.85457
1.83115
1.80604
1.7771
1.7565
1.73783
1.71499
1.68972
1.66166
1.64745
1.62976
1.61056
1.58689
1.56802
1.55283
1.53541
1.51248
1.51572
1.58312
1.76019
1.90854
1.96207
1.95626
1.93412
1.89989
1.86454
1.83126
1.80409
1.78139
1.75657
1.73185
1.70909
1.68738
1.66716
1.64911
1.63127
1.61187
1.59047
1.56657
1.54183
1.51969
1.50005
1.48177
1.46398
1.44867
1.43473
1.41689
1.39529
1.37752
1.36527
1.35584
1.34652
1.33762
1.32961
1.32099
1.31094
1.29885
1.28945
1.28305
1.28105
1.27986
1.27722
1.27656
1.27708
1.27698
1.27503
1.26683
1.25642
1.25439
1.25257
1.24496
1.23825
1.23603
1.23526
1.23144
1.22017
1.20623
1.19431
1.18421
1.17393
1.1675
1.16554
1.16278
1.15958
1.15663
1.14683
2.0436
2.03876
2.01705
1.99624
1.97612
1.95546
1.93685
1.91815
1.89591
1.87201
1.85252
1.83133
1.80832
1.78068
1.76155
1.74072
1.71876
1.6947
1.67183
1.65704
1.63809
1.61847
1.59528
1.57906
1.56521
1.54675
1.56882
1.6904
1.86187
1.99229
1.99284
1.97656
1.94068
1.91019
1.88136
1.85005
1.82347
1.80214
1.78145
1.75923
1.73465
1.70707
1.67866
1.65378
1.634
1.61774
1.6028
1.58682
1.56691
1.5433
1.51985
1.49796
1.47736
1.45694
1.43726
1.42127
1.40679
1.39097
1.37282
1.35535
1.34173
1.32997
1.31915
1.3095
1.30001
1.29043
1.27718
1.25894
1.24705
1.2393
1.23244
1.22539
1.22027
1.21864
1.22026
1.22141
1.21752
1.20547
1.19714
1.19678
1.19782
1.19934
1.20255
1.20549
1.20566
1.20151
1.18992
1.1748
1.16276
1.15634
1.15259
1.15001
1.14647
1.14317
1.14092
1.1314
1.89136
2.01402
2.00438
1.98159
1.96129
1.94391
1.92621
1.90775
1.88642
1.8673
1.84999
1.83175
1.80618
1.78021
1.76378
1.74426
1.72427
1.69725
1.67939
1.66442
1.64488
1.62624
1.60254
1.58597
1.58452
1.63499
1.80504
1.98304
2.03893
2.02567
1.99478
1.95649
1.91934
1.8907
1.86685
1.84281
1.82111
1.80117
1.77927
1.75423
1.72643
1.69734
1.67017
1.64664
1.62624
1.60797
1.59092
1.57419
1.5572
1.5396
1.52064
1.50037
1.4806
1.46015
1.43709
1.41626
1.39937
1.38237
1.36408
1.34727
1.33407
1.32179
1.30987
1.29867
1.28879
1.28021
1.26703
1.24564
1.22323
1.21028
1.20204
1.19636
1.19442
1.19135
1.18508
1.17825
1.17021
1.1598
1.14632
1.14028
1.14055
1.14231
1.14717
1.15712
1.16566
1.16645
1.16338
1.1529
1.14119
1.13504
1.13092
1.12986
1.12987
1.13151
1.1304
1.11956
1.51645
1.89904
1.98547
1.97236
1.9489
1.92918
1.9134
1.89745
1.87935
1.85965
1.84223
1.82612
1.80479
1.78207
1.76204
1.74221
1.72238
1.70002
1.68675
1.67035
1.65091
1.62946
1.6108
1.62546
1.71726
1.90683
2.06005
2.08387
2.06349
2.02114
1.97872
1.94096
1.90737
1.87948
1.85607
1.83438
1.8134
1.79259
1.77038
1.74578
1.71841
1.68914
1.66144
1.6377
1.6171
1.59841
1.58075
1.56317
1.54501
1.52636
1.50745
1.4875
1.46772
1.45151
1.43586
1.4175
1.39795
1.37788
1.35503
1.33261
1.31623
1.30616
1.29975
1.2929
1.28485
1.27713
1.26672
1.24548
1.21675
1.19713
1.18503
1.17661
1.17063
1.1661
1.16147
1.15779
1.15341
1.14478
1.12679
1.10686
1.10025
1.09981
1.10053
1.10368
1.11054
1.11671
1.11686
1.11384
1.10754
1.10399
1.10403
1.10566
1.1076
1.10997
1.11191
1.10791
1.0959
1.585
1.89244
1.95771
1.94251
1.91879
1.90033
1.88457
1.86841
1.8518
1.83638
1.81936
1.79807
1.77926
1.76079
1.74206
1.7204
1.69929
1.68864
1.67137
1.65585
1.64207
1.67397
1.83884
2.0021
2.10945
2.10016
2.07321
2.03358
1.99435
1.95914
1.92754
1.89512
1.86751
1.84452
1.82352
1.80298
1.78148
1.75832
1.73347
1.70716
1.68009
1.65393
1.63013
1.60854
1.58796
1.56772
1.54828
1.53026
1.5134
1.49679
1.47841
1.45703
1.43768
1.42204
1.40766
1.39403
1.37833
1.3572
1.33418
1.31288
1.29612
1.28746
1.28255
1.27857
1.27368
1.26533
1.24866
1.22265
1.19502
1.17821
1.16799
1.1599
1.15252
1.14638
1.1421
1.1388
1.13429
1.12211
1.10213
1.08613
1.08117
1.07837
1.07582
1.07441
1.07374
1.07244
1.06938
1.06621
1.06552
1.06637
1.06888
1.07465
1.08285
1.08833
1.0862
1.00267
1.14557
1.62778
1.87669
1.93019
1.91451
1.89065
1.87165
1.85797
1.84278
1.82679
1.80879
1.79108
1.77495
1.7573
1.74062
1.71506
1.69938
1.68807
1.67206
1.67874
1.76612
1.95484
2.11408
2.13855
2.12953
2.09913
2.05531
2.01373
1.97711
1.94509
1.91603
1.887
1.86021
1.83595
1.81224
1.78831
1.76415
1.74011
1.71663
1.69323
1.66897
1.64418
1.62012
1.59764
1.57647
1.5555
1.5344
1.51436
1.49679
1.4819
1.46699
1.44895
1.42925
1.41069
1.39316
1.3771
1.36258
1.34731
1.32963
1.31259
1.29808
1.28539
1.27512
1.2664
1.2576
1.2492
1.24088
1.22556
1.19905
1.17732
1.16569
1.15693
1.14903
1.14208
1.13585
1.12895
1.12164
1.1148
1.10016
1.08111
1.07344
1.06963
1.06597
1.06143
1.05622
1.05114
1.0454
1.03811
1.02989
1.02722
1.02822
1.03266
1.04075
1.05296
1.05561
1.00002
1.00578
1.19165
1.64868
1.85541
1.90372
1.88958
1.86583
1.84723
1.831
1.81741
1.80147
1.78331
1.76604
1.75097
1.73719
1.7157
1.69974
1.69067
1.72177
1.8807
2.07444
2.18961
2.17855
2.14291
2.1024
2.06466
2.02813
1.99373
1.9619
1.93198
1.90194
1.87297
1.84646
1.82179
1.79775
1.77346
1.74878
1.72363
1.69832
1.67415
1.65094
1.62788
1.60557
1.58475
1.56456
1.54356
1.52202
1.50133
1.48214
1.46491
1.44978
1.4343
1.41743
1.40091
1.38522
1.36965
1.35426
1.33798
1.31896
1.30233
1.29025
1.27983
1.27048
1.26192
1.25343
1.24419
1.23313
1.21851
1.19965
1.17972
1.16707
1.1588
1.15138
1.14402
1.13656
1.12854
1.11884
1.10641
1.09211
1.0766
1.06952
1.06592
1.0617
1.05575
1.04946
1.04423
1.03806
1.02947
1.01706
1.00794
1.00458
1.00377
1.00472
1.00735
1.01582
1
1.00004
1.01008
1.22808
1.65003
1.83604
1.88022
1.86478
1.84441
1.82467
1.80674
1.78973
1.7747
1.75989
1.74746
1.7289
1.71183
1.71565
1.79436
1.99048
2.1893
2.21992
2.20699
2.17098
2.12228
2.07482
2.03499
2.00282
1.97171
1.94329
1.91622
1.88824
1.85972
1.83154
1.80365
1.77616
1.75004
1.72609
1.70413
1.68279
1.66025
1.63611
1.61155
1.58822
1.56705
1.54743
1.52721
1.50609
1.48724
1.4707
1.45481
1.43941
1.42305
1.40531
1.38957
1.37635
1.36363
1.3505
1.33493
1.31585
1.29969
1.28811
1.27636
1.26477
1.25547
1.24863
1.24229
1.23398
1.21895
1.19539
1.18013
1.17199
1.16441
1.15636
1.14815
1.14022
1.13222
1.12205
1.10694
1.09332
1.0865
1.08092
1.07523
1.06832
1.05985
1.05038
1.04192
1.0347
1.02627
1.01541
1.002
0.995367
0.991784
0.988414
0.984635
0.984156
1
1
1.0001
1.01498
1.24834
1.65128
1.82213
1.85325
1.84203
1.82058
1.79765
1.78381
1.76735
1.7519
1.74034
1.7285
1.74644
1.89252
2.12496
2.24588
2.24173
2.20609
2.16892
2.13397
2.09595
2.05589
2.0194
1.9854
1.95298
1.9227
1.89396
1.86608
1.83864
1.81115
1.78318
1.75512
1.72855
1.70479
1.68349
1.66355
1.6431
1.62058
1.59722
1.57534
1.55506
1.53516
1.51485
1.49339
1.47371
1.45741
1.44215
1.42815
1.41474
1.40227
1.39061
1.37719
1.35993
1.34245
1.32607
1.3105
1.29546
1.28339
1.27388
1.26257
1.25198
1.24366
1.23616
1.22758
1.21549
1.19783
1.18039
1.17073
1.16319
1.15493
1.1463
1.13808
1.12974
1.12005
1.1091
1.09745
1.08477
1.07441
1.06698
1.05983
1.0518
1.04344
1.03657
1.03167
1.02666
1.01684
1.00107
0.9926
0.988585
0.984386
0.980529
0.97498
1
1
1
1.00017
1.01905
1.25876
1.65527
1.79031
1.82789
1.81791
1.79454
1.77762
1.75951
1.74717
1.74306
1.79731
2.0202
2.22784
2.30089
2.278
2.23989
2.187
2.13711
2.09919
2.06698
2.03258
1.99824
1.96547
1.93353
1.90194
1.87123
1.84242
1.81519
1.78829
1.76105
1.73414
1.70931
1.68774
1.66857
1.64991
1.63009
1.60828
1.5857
1.56398
1.54338
1.52384
1.5064
1.49371
1.48181
1.46537
1.44653
1.42742
1.41057
1.39583
1.3826
1.37198
1.36328
1.35124
1.33511
1.31705
1.29486
1.27829
1.27243
1.26845
1.26177
1.25372
1.24557
1.23655
1.22457
1.20562
1.18618
1.1768
1.16971
1.16158
1.15311
1.14547
1.13854
1.13122
1.12156
1.1068
1.08772
1.07294
1.06453
1.05694
1.04878
1.04184
1.03718
1.0332
1.02747
1.0184
1.00431
0.995625
0.99119
0.986297
0.981715
0.971772
1
1
1
1
1.00025
1.02134
1.27509
1.62305
1.76275
1.80661
1.79622
1.77746
1.75619
1.7582
1.8729
2.15034
2.31965
2.30156
2.26253
2.22247
2.19348
2.15656
2.11317
2.074
2.03884
2.00273
1.96812
1.93721
1.90856
1.87991
1.85085
1.82261
1.79624
1.77076
1.74542
1.72068
1.69752
1.67642
1.6569
1.63832
1.62
1.60127
1.58208
1.56195
1.54089
1.52066
1.50347
1.48776
1.47007
1.45256
1.43495
1.41876
1.40596
1.39431
1.38301
1.37149
1.35805
1.34249
1.32518
1.30636
1.29162
1.28247
1.27474
1.26525
1.2546
1.24577
1.23721
1.22729
1.21455
1.19598
1.17641
1.16606
1.1588
1.15099
1.14336
1.13706
1.13182
1.12609
1.11634
1.09794
1.08473
1.07971
1.07396
1.06591
1.05643
1.04877
1.04342
1.03877
1.03238
1.01646
0.995469
0.988062
0.984103
0.979349
0.974525
0.965487
1
1
1
1
1
1.0003
1.02437
1.26229
1.5829
1.74258
1.78446
1.78071
1.79176
1.95183
2.24379
2.37777
2.36982
2.30416
2.23004
2.17654
2.1469
2.12088
2.08875
2.05175
2.01315
1.97526
1.94065
1.9112
1.88553
1.86079
1.83628
1.81065
1.78393
1.75859
1.73423
1.71088
1.68891
1.66871
1.64998
1.63206
1.61429
1.59607
1.57708
1.55737
1.53732
1.51779
1.49979
1.48199
1.46391
1.44756
1.433
1.41928
1.40591
1.39326
1.38162
1.36916
1.35494
1.3397
1.32367
1.3077
1.29425
1.28359
1.27374
1.26307
1.25309
1.2446
1.23587
1.22552
1.21247
1.19402
1.17404
1.16314
1.15573
1.14794
1.14052
1.13471
1.13025
1.12552
1.11669
1.09951
1.0847
1.0773
1.0711
1.06373
1.05571
1.04873
1.04348
1.03905
1.03218
1.01471
0.99349
0.986696
0.98292
0.978426
0.973881
0.964809
1
1
1
1
1
1
1.00037
1.0223
1.22646
1.55993
1.70485
1.8123
2.04686
2.27581
2.36079
2.33323
2.29488
2.25556
2.21341
2.16943
2.13248
2.10166
2.07097
2.03788
2.00258
1.96768
1.93614
1.90824
1.88194
1.85637
1.83264
1.81363
1.79465
1.77154
1.74739
1.72344
1.70043
1.67935
1.66042
1.64295
1.62584
1.60796
1.58871
1.56837
1.54735
1.52663
1.50764
1.4903
1.47401
1.45884
1.44414
1.42972
1.41627
1.40398
1.39178
1.37846
1.36384
1.34866
1.33382
1.31972
1.30603
1.29298
1.28151
1.27161
1.26296
1.25459
1.24538
1.23493
1.22225
1.20379
1.18282
1.17092
1.16311
1.15547
1.14856
1.14341
1.13963
1.13536
1.12648
1.10741
1.09007
1.08264
1.07634
1.0691
1.06155
1.05503
1.05026
1.04633
1.03914
1.01986
0.999715
0.993865
0.990208
0.985557
0.980845
0.971041
1
1
1
1
1
1
1
1.00029
1.01875
1.2249
1.6469
2.02684
2.4149
2.58119
2.48842
2.34999
2.25367
2.21442
2.18581
2.15575
2.12255
2.08991
2.06043
2.03188
2.00121
1.96738
1.93258
1.90048
1.87406
1.85311
1.83403
1.81192
1.78532
1.75851
1.73274
1.70843
1.68588
1.66559
1.6472
1.62957
1.61183
1.5935
1.57451
1.55502
1.5347
1.51379
1.49356
1.47506
1.45906
1.44536
1.43185
1.41756
1.40361
1.39094
1.37891
1.36606
1.35153
1.33615
1.32118
1.30731
1.29409
1.28094
1.26872
1.25877
1.25093
1.24345
1.23483
1.22478
1.21205
1.19243
1.1709
1.15995
1.15253
1.14491
1.138
1.13307
1.12972
1.12584
1.11698
1.09725
1.08003
1.0727
1.06664
1.05959
1.05193
1.04508
1.04038
1.03689
1.02976
1.00963
0.990381
0.984822
0.980986
0.976157
0.971523
0.961676
)
;

boundaryField
{
    inlet
    {
        type            fixedValue;
        value           uniform 1;
    }
    outlet
    {
        type            inletOutlet;
        inletValue      uniform 1;
        value           nonuniform List<scalar> 
32
(
2.22543
2.18004
2.07944
1.96074
1.85586
1.80545
1.76936
1.71779
1.65642
1.53212
1.361
1.28906
1.26265
1.23562
1.2136
1.19573
1.18244
1.16989
1.1465
1.13086
1.11887
1.10758
1.08619
1.05542
1.01635
0.984407
0.975051
0.971819
0.965602
0.964966
0.971239
0.961883
)
;
    }
    bottom
    {
        type            symmetryPlane;
    }
    top
    {
        type            symmetryPlane;
    }
    obstacle
    {
        type            zeroGradient;
    }
    defaultFaces
    {
        type            empty;
    }
}


// ************************************************************************* //
