/*--------------------------------*- C++ -*----------------------------------*\
  =========                 |
  \\      /  F ield         | OpenFOAM: The Open Source CFD Toolbox
   \\    /   O peration     | Website:  https://openfoam.org
    \\  /    A nd           | Version:  7
     \\/     M anipulation  |
\*---------------------------------------------------------------------------*/
FoamFile
{
    version     2.0;
    format      ascii;
    class       volScalarField;
    location    "1.9";
    object      p;
}
// * * * * * * * * * * * * * * * * * * * * * * * * * * * * * * * * * * * * * //

dimensions      [1 -1 -2 0 0 0 0];

internalField   nonuniform List<scalar> 
258048
(
1
1
1
1
1
1
1
1
1
1
1
1
1
1
1
1
1
1
1
1
1
1
1
1
1
1
1
1
1
1
1
1
1
1
1
1
1
1
1
1
1
1
1
1
1
1
1
1
1
1
1
1
1
1
1
1
1
1
1
1
1
1
1
1
1
1
1
1
1
1
1
1
1
1
1
1
1
1
1
1
1
1
1
1
1
1
1
1
1
1
1
1
1
1
1
1
1
1
1
1
1.27772
7.43537
10.4224
10.4345
10.4918
10.5425
10.5892
10.6221
10.639
10.6519
10.6713
10.6995
10.7373
10.7819
10.8249
10.8603
10.8886
10.9151
10.9422
10.9684
10.9954
11.0213
11.0438
11.0641
11.0851
11.1107
11.1434
11.1802
11.2158
11.2452
11.2657
11.2777
11.2854
11.2972
11.3191
11.3529
11.3931
11.4286
11.4525
11.4664
11.477
11.4928
11.5172
11.5449
11.5694
11.5867
11.5965
11.6041
11.6179
11.6427
11.676
11.708
11.7296
11.7379
11.7346
11.7294
11.7313
11.7489
11.7838
11.8275
11.8657
11.8891
11.8988
11.8979
11.893
11.8938
11.901
11.9117
11.9264
11.942
11.9559
11.9722
11.9905
12.0077
12.0191
12.0216
12.0179
12.0169
12.0236
12.0386
12.0577
12.0722
12.0779
12.0768
12.0706
12.0637
12.0626
12.0688
12.0809
12.0936
12.1029
12.1146
1
1
1
1
1
1
1
1
1
1
1
1
1
1
1
1
1
1
1
1
1
1
1
1
1
1
1
1
1
1
1
1
1
1
1
1
1
1
1
1
1
1
1
1
1
1
1
1
1
1
1
1
1
1
1
1
1
1
1
1
1
1
1
1
1
1
1
1
1
1
1
1
1
1
1
1
1
1
1
1
1
1
1
1
1
1
1
1
1
1
1
1
1
1
1
1
1
1
1
1
1.26642
7.39286
10.4073
10.4508
10.5004
10.5481
10.5909
10.6218
10.6393
10.6527
10.6728
10.7008
10.7375
10.781
10.8238
10.86
10.8893
10.9153
10.9417
10.9682
10.9951
11.0208
11.0436
11.0645
11.0865
11.1132
11.1462
11.1825
11.217
11.2445
11.2634
11.2755
11.2848
11.2989
11.3228
11.357
11.3955
11.4285
11.4505
11.4636
11.4748
11.4919
11.5173
11.5454
11.5704
11.5878
11.5977
11.6054
11.6192
11.6432
11.6754
11.7064
11.7277
11.7367
11.7344
11.73
11.7317
11.7483
11.7821
11.8254
11.8644
11.8894
11.9003
11.8996
11.8934
11.8924
11.8981
11.9087
11.9239
11.9402
11.9545
11.9706
11.9886
12.0061
12.0187
12.0228
12.0202
12.0195
12.0252
12.0384
12.0561
12.07
12.076
12.0756
12.07
12.0635
12.0627
12.0685
12.0798
12.0924
12.102
12.1129
1
1
1
1
1
1
1
1
1
1
1
1
1
1
1
1
1
1
1
1
1
1
1
1
1
1
1
1
1
1
1
1
1
1
1
1
1
1
1
1
1
1
1
1
1
1
1
1
1
1
1
1
1
1
1
1
1
1
1
1
1
1
1
1
1
1
1
1
1
1
1
1
1
1
1
1
1
1
1
1
1
1
1
1
1
1
1
1
1
1
1
1
1
1
1
1
1
1
1
1
1.24836
7.33249
10.402
10.4573
10.5045
10.5514
10.5911
10.6201
10.6379
10.6526
10.6737
10.7014
10.7368
10.779
10.8217
10.8587
10.889
10.9152
10.9415
10.9682
10.9949
11.0204
11.0437
11.0652
11.0877
11.1148
11.1488
11.1857
11.2191
11.2443
11.2606
11.2713
11.2819
11.2984
11.3251
11.3603
11.3973
11.4277
11.4475
11.46
11.4719
11.4902
11.5163
11.5451
11.5706
11.5885
11.5988
11.6072
11.6212
11.6444
11.6749
11.7044
11.7251
11.7347
11.7337
11.7304
11.7321
11.7472
11.7787
11.8208
11.8608
11.8882
11.9016
11.902
11.8945
11.8907
11.8939
11.9035
11.9195
11.9371
11.9525
11.9683
11.9857
12.0031
12.0169
12.0234
12.0232
12.0233
12.0281
12.0387
12.0536
12.0662
12.0725
12.0738
12.07
12.0646
12.0634
12.0677
12.0773
12.0896
12.1007
12.1117
1
1
1
1
1
1
1
1
1
1
1
1
1
1
1
1
1
1
1
1
1
1
1
1
1
1
1
1
1
1
1
1
1
1
1
1
1
1
1
1
1
1
1
1
1
1
1
1
1
1
1
1
1
1
1
1
1
1
1
1
1
1
1
1
1
1
1
1
1
1
1
1
1
1
1
1
1
1
1
1
1
1
1
1
1
1
1
1
1
1
1
1
1
1
1
1
1
1
1
1
1.22622
7.2545
10.3869
10.4615
10.5069
10.5541
10.5921
10.6191
10.6358
10.6517
10.6738
10.7013
10.7351
10.776
10.8188
10.8568
10.8883
10.9149
10.9408
10.9675
10.9944
11.02
11.0442
11.0673
11.0906
11.1178
11.1514
11.1874
11.2191
11.2423
11.2574
11.2684
11.281
11.3003
11.329
11.3635
11.3977
11.4249
11.4431
11.4559
11.4694
11.489
11.5156
11.5446
11.5702
11.5883
11.5996
11.6094
11.624
11.6463
11.6745
11.7016
11.7212
11.7311
11.7321
11.7305
11.7327
11.7461
11.7748
11.8152
11.8557
11.8856
11.902
11.9041
11.8959
11.8894
11.8897
11.8977
11.9139
11.9328
11.9494
11.9651
11.9817
11.9993
12.0148
12.0241
12.0267
12.0276
12.0313
12.0391
12.0505
12.0613
12.0678
12.0707
12.0689
12.0651
12.064
12.0669
12.0748
12.0863
12.0985
12.1088
1
1
1
1
1
1
1
1
1
1
1
1
1
1
1
1
1
1
1
1
1
1
1
1
1
1
1
1
1
1
1
1
1
1
1
1
1
1
1
1
1
1
1
1
1
1
1
1
1
1
1
1
1
1
1
1
1
1
1
1
1
1
1
1
1
1
1
1
1
1
1
1
1
1
1
1
1
1
1
1
1
1
1
1
1
1
1
1
1
1
1
1
1
1
1
1
1
1
1
1
1.20129
7.17067
10.3789
10.4608
10.5093
10.5566
10.5932
10.6183
10.6339
10.6501
10.6726
10.6995
10.7317
10.7716
10.8148
10.854
10.8864
10.9137
10.9393
10.966
10.9934
11.0196
11.045
11.0701
11.0944
11.1211
11.1531
11.1871
11.2168
11.2389
11.2548
11.2681
11.2833
11.3046
11.3328
11.3648
11.3956
11.42
11.4378
11.4523
11.4684
11.4889
11.5148
11.5426
11.5672
11.5857
11.599
11.6112
11.6272
11.6488
11.6744
11.6985
11.7161
11.7258
11.7292
11.7298
11.7331
11.7454
11.7711
11.8087
11.8487
11.8807
11.9001
11.9049
11.8971
11.8889
11.8866
11.8922
11.9076
11.9275
11.9452
11.9611
11.9774
11.995
12.012
12.0241
12.0296
12.0314
12.0341
12.0391
12.0472
12.056
12.0626
12.0667
12.0668
12.0649
12.0643
12.0663
12.0728
12.0833
12.0954
12.1044
1
1
1
1
1
1
1
1
1
1
1
1
1
1
1
1
1
1
1
1
1
1
1
1
1
1
1
1
1
1
1
1
1
1
1
1
1
1
1
1
1
1
1
1
1
1
1
1
1
1
1
1
1
1
1
1
1
1
1
1
1
1
1
1
1
1
1
1
1
1
1
1
1
1
1
1
1
1
1
1
1
1
1
1
1
1
1
1
1
1
1
1
1
1
1
1
1
1
1
1
1.16385
7.05863
10.3807
10.462
10.5111
10.5563
10.591
10.6157
10.6331
10.6506
10.6725
10.6973
10.7274
10.7658
10.8092
10.8495
10.8829
10.9111
10.937
10.9642
10.9922
11.0192
11.046
11.0728
11.0979
11.1236
11.1533
11.1846
11.212
11.2341
11.2525
11.2693
11.2874
11.3092
11.3356
11.3639
11.3907
11.4133
11.4319
11.4496
11.4688
11.4901
11.5142
11.5391
11.5616
11.5803
11.5961
11.6118
11.6301
11.6516
11.6743
11.6949
11.7102
11.7194
11.7244
11.7279
11.7333
11.7453
11.7681
11.8021
11.8405
11.8731
11.8951
11.9032
11.8976
11.8892
11.8851
11.8882
11.9014
11.9212
11.94
11.9567
11.9732
11.9908
12.0084
12.0226
12.0304
12.0334
12.0357
12.0389
12.0443
12.051
12.0573
12.0618
12.0633
12.0634
12.0639
12.0659
12.0715
12.0804
12.0914
12.0982
1
1
1
1
1
1
1
1
1
1
1
1
1
1
1
1
1
1
1
1
1
1
1
1
1
1
1
1
1
1
1
1
1
1
1
1
1
1
1
1
1
1
1
1
1
1
1
1
1
1
1
1
1
1
1
1
1
1
1
1
1
1
1
1
1
1
1
1
1
1
1
1
1
1
1
1
1
1
1
1
1
1
1
1
1
1
1
1
1
1
1
1
1
1
1
1
1
1
1
1
1.09221
6.93302
10.4059
10.4651
10.5125
10.5533
10.5866
10.6148
10.6368
10.656
10.6756
10.6964
10.723
10.7588
10.8015
10.8426
10.8774
10.907
10.9341
10.9621
10.9911
11.0187
11.0462
11.0737
11.0992
11.1244
11.1524
11.1812
11.2067
11.2291
11.2501
11.2703
11.2909
11.3131
11.3374
11.3618
11.3846
11.4058
11.4263
11.4478
11.4701
11.4923
11.5145
11.5356
11.5547
11.5725
11.5906
11.6105
11.6318
11.6536
11.6738
11.6907
11.7033
11.7117
11.7182
11.7249
11.7329
11.7454
11.7657
11.7959
11.8315
11.8633
11.8866
11.8981
11.8967
11.8897
11.8852
11.8861
11.8963
11.9149
11.9341
11.952
11.9693
11.9871
12.0046
12.0193
12.0287
12.0329
12.0356
12.0381
12.0417
12.0468
12.0522
12.0562
12.0586
12.0605
12.0626
12.0655
12.0707
12.0778
12.0865
12.0906
1
1
1
1
1
1
1
1
1
1
1
1
1
1
1
1
1
1
1
1
1
1
1
1
1
1
1
1
1
1
1
1
1
1
1
1
1
1
1
1
1
1
1
1
1
1
1
1
1
1
1
1
1
1
1
1
1
1
1
1
1
1
1
1
1
1
1
1
1
1
1
1
1
1
1
1
1
1
1
1
1
1
1
1
1
1
1
1
1
1
1
1
1
1
1
1
1
1
1
1
1.01993
6.77666
10.4368
10.4661
10.5011
10.5398
10.5773
10.6146
10.645
10.6668
10.6831
10.699
10.7209
10.7531
10.7932
10.8339
10.8693
10.9006
10.9299
10.9598
10.9903
11.0188
11.0458
11.0722
11.0968
11.1219
11.1492
11.177
11.202
11.2248
11.2469
11.269
11.291
11.3136
11.3362
11.3577
11.3781
11.3991
11.4216
11.4461
11.4708
11.4939
11.5147
11.5325
11.5483
11.5647
11.5841
11.607
11.6311
11.6534
11.6716
11.6856
11.6959
11.7037
11.7114
11.721
11.7318
11.7452
11.7637
11.7903
11.8226
11.8523
11.8756
11.8903
11.8939
11.8897
11.8863
11.8857
11.8927
11.9093
11.9281
11.947
11.9654
11.9836
12.0006
12.015
12.0248
12.0299
12.0334
12.0362
12.0392
12.0431
12.0473
12.0503
12.053
12.0564
12.0603
12.0647
12.07
12.0755
12.0814
12.0828
1
1
1
1
1
1
1
1
1
1
1
1
1
1
1
1
1
1
1
1
1
1
1
1
1
1
1
1
1
1
1
1
1
1
1
1
1
1
1
1
1
1
1
1
1
1
1
1
1
1
1
1
1
1
1
1
1
1
1
1
1
1
1
1
1
1
1
1
1
1
1
1
1
1
1
1
1
1
1
1
1
1
1
1
1
1
1
1
1
1
1
1
1
1
1
1
1
1
1
1
1.00031
6.57118
10.4358
10.4602
10.49
10.5304
10.5729
10.6158
10.6521
10.6768
10.6919
10.7042
10.7225
10.7507
10.7869
10.8252
10.86
10.8922
10.9236
10.956
10.989
11.0191
11.0457
11.0703
11.0928
11.1168
11.1442
11.1727
11.1987
11.2223
11.2441
11.2653
11.2869
11.3091
11.331
11.3523
11.3732
11.395
11.4184
11.4439
11.4696
11.4932
11.5134
11.5293
11.5433
11.559
11.5787
11.6026
11.6277
11.6501
11.6671
11.6792
11.6883
11.6961
11.7051
11.7171
11.7299
11.7437
11.7611
11.7848
11.8136
11.8411
11.8637
11.8806
11.889
11.8885
11.8871
11.8861
11.8906
11.9047
11.9223
11.9416
11.961
11.9796
11.9962
12.0098
12.0191
12.0248
12.0291
12.0327
12.0361
12.0395
12.0425
12.0446
12.0471
12.0514
12.0569
12.063
12.0687
12.0731
12.0762
12.0754
1
1
1
1
1
1
1
1
1
1
1
1
1
1
1
1
1
1
1
1
1
1
1
1
1
1
1
1
1
1
1
1
1
1
1
1
1
1
1
1
1
1
1
1
1
1
1
1
1
1
1
1
1
1
1
1
1
1
1
1
1
1
1
1
1
1
1
1
1
1
1
1
1
1
1
1
1
1
1
1
1
1
1
1
1
1
1
1
1
1
1
1
1
1
1
1
1
1
1
1
1
6.34403
10.4248
10.4596
10.4886
10.5294
10.5703
10.6122
10.6501
10.6786
10.6972
10.7112
10.7283
10.7531
10.7845
10.8186
10.8509
10.8823
10.9151
10.9504
10.9862
11.0189
11.0461
11.0692
11.0888
11.1108
11.138
11.1681
11.1963
11.2211
11.2418
11.2602
11.2789
11.2996
11.3221
11.3461
11.3701
11.3934
11.4164
11.4405
11.4652
11.4888
11.5094
11.5255
11.5399
11.5562
11.5758
11.5989
11.6229
11.6439
11.6597
11.6711
11.6802
11.6891
11.7001
11.714
11.7274
11.7408
11.757
11.7783
11.8043
11.8304
11.8529
11.871
11.8825
11.8858
11.8868
11.8865
11.8896
11.9011
11.9171
11.9361
11.9557
11.9744
11.9907
12.0036
12.0124
12.0184
12.0232
12.0277
12.0318
12.0352
12.0376
12.0392
12.0413
12.0457
12.0523
12.0597
12.0661
12.0698
12.071
12.0693
1
1
1
1
1
1
1
1
1
1
1
1
1
1
1
1
1
1
1
1
1
1
1
1
1
1
1
1
1
1
1
1
1
1
1
1
1
1
1
1
1
1
1
1
1
1
1
1
1
1
1
1
1
1
1
1
1
1
1
1
1
1
1
1
1
1
1
1
1
1
1
1
1
1
1
1
1
1
1
1
1
1
1
1
1
1
1
1
1
1
1
1
1
1
1
1
1
1
1
1
1
6.09617
10.3904
10.4609
10.4941
10.5349
10.5703
10.6057
10.6409
10.6718
10.696
10.7154
10.735
10.7583
10.7858
10.8153
10.8436
10.8725
10.9052
10.9425
10.9814
11.0174
11.0465
11.0688
11.086
11.1052
11.1314
11.1628
11.1936
11.22
11.2396
11.2545
11.2691
11.2878
11.3116
11.3397
11.3679
11.3932
11.415
11.4359
11.4578
11.4804
11.5023
11.521
11.5379
11.5558
11.5752
11.5964
11.6177
11.6361
11.6502
11.6613
11.6715
11.6826
11.6962
11.7119
11.7252
11.7371
11.7513
11.7703
11.7946
11.8205
11.8437
11.8628
11.8759
11.8816
11.8845
11.8856
11.8885
11.8983
11.9129
11.9306
11.9494
11.9677
11.9838
11.9963
12.0052
12.0116
12.0169
12.0217
12.0263
12.0299
12.0321
12.0336
12.0355
12.0396
12.0465
12.0547
12.0618
12.0655
12.066
12.0646
1
1
1
1
1
1
1
1
1
1
1
1
1
1
1
1
1
1
1
1
1
1
1
1
1
1
1
1
1
1
1
1
1
1
1
1
1
1
1
1
1
1
1
1
1
1
1
1
1
1
1
1
1
1
1
1
1
1
1
1
1
1
1
1
1
1
1
1
1
1
1
1
1
1
1
1
1
1
1
1
1
1
1
1
1
1
1
1
1
1
1
1
1
1
1
1
1
1
1
1
1
5.83267
10.344
10.4607
10.499
10.5405
10.5719
10.6007
10.6306
10.6607
10.6886
10.7138
10.7378
10.7622
10.7878
10.8135
10.8381
10.8644
10.8958
10.9338
10.9752
11.0144
11.046
11.0685
11.0845
11.1011
11.1252
11.1564
11.1889
11.2166
11.2355
11.2478
11.2594
11.2768
11.3023
11.3341
11.3657
11.3926
11.4129
11.4304
11.4488
11.4696
11.4927
11.515
11.5358
11.556
11.5754
11.5945
11.6129
11.6285
11.6404
11.6507
11.6621
11.6757
11.6927
11.7101
11.7229
11.733
11.7443
11.761
11.7845
11.8109
11.8357
11.8561
11.8701
11.8766
11.8804
11.8826
11.8865
11.8961
11.9095
11.9255
11.9425
11.9594
11.9749
11.9877
11.9975
12.005
12.0108
12.0157
12.02
12.0235
12.0259
12.0274
12.0292
12.033
12.0397
12.0481
12.0556
12.06
12.0611
12.061
1
1
1
1
1
1
1
1
1
1
1
1
1
1
1
1
1
1
1
1
1
1
1
1
1
1
1
1
1
1
1
1
1
1
1
1
1
1
1
1
1
1
1
1
1
1
1
1
1
1
1
1
1
1
1
1
1
1
1
1
1
1
1
1
1
1
1
1
1
1
1
1
1
1
1
1
1
1
1
1
1
1
1
1
1
1
1
1
1
1
1
1
1
1
1
1
1
1
1
1
1
5.55512
10.2895
10.4546
10.4983
10.5418
10.5743
10.6005
10.625
10.6516
10.6801
10.709
10.7372
10.7636
10.7889
10.8129
10.8349
10.8591
10.889
10.9261
10.9681
11.0092
11.0431
11.0672
11.0832
11.0985
11.1203
11.1501
11.1824
11.2102
11.2289
11.2404
11.2515
11.269
11.296
11.3294
11.3622
11.3895
11.409
11.4246
11.4407
11.4596
11.4826
11.5074
11.5317
11.5546
11.5751
11.5931
11.6094
11.6223
11.6322
11.6411
11.6526
11.668
11.6884
11.7077
11.7202
11.7287
11.7372
11.7514
11.7741
11.8015
11.8284
11.8506
11.865
11.8711
11.8746
11.8774
11.8831
11.8935
11.9067
11.9212
11.9358
11.9502
11.9645
11.9778
11.9892
11.9985
12.0053
12.01
12.0135
12.0162
12.0183
12.0201
12.0221
12.0258
12.032
12.0401
12.048
12.0536
12.0561
12.058
1
1
1
1
1
1
1
1
1
1
1
1
1
1
1
1
1
1
1
1
1
1
1
1
1
1
1
1
1
1
1
1
1
1
1
1
1
1
1
1
1
1
1
1
1
1
1
1
1
1
1
1
1
1
1
1
1
1
1
1
1
1
1
1
1
1
1
1
1
1
1
1
1
1
1
1
1
1
1
1
1
1
1
1
1
1
1
1
1
1
1
1
1
1
1
1
1
1
1
1
1
5.26573
10.2287
10.4437
10.4899
10.5381
10.5753
10.6026
10.6248
10.6471
10.673
10.7022
10.7326
10.7619
10.7884
10.8121
10.8342
10.8576
10.8857
10.9208
10.9615
11.0028
11.0382
11.0644
11.0819
11.0967
11.1163
11.1434
11.1737
11.2006
11.22
11.2332
11.2462
11.2652
11.2928
11.3249
11.356
11.3829
11.4029
11.4186
11.4343
11.4522
11.4743
11.4991
11.5247
11.5496
11.5721
11.5906
11.6059
11.6171
11.626
11.6333
11.6439
11.6599
11.6825
11.7032
11.7161
11.7241
11.731
11.7432
11.7647
11.7926
11.8214
11.8453
11.86
11.8653
11.8674
11.8703
11.878
11.8898
11.9036
11.9174
11.9296
11.9409
11.9529
11.9663
11.9799
11.9917
12.0001
12.0048
12.0071
12.0083
12.0095
12.0113
12.014
12.018
12.024
12.0315
12.0396
12.0465
12.051
12.055
1
1
1
1
1
1
1
1
1
1
1
1
1
1
1
1
1
1
1
1
1
1
1
1
1
1
1
1
1
1
1
1
1
1
1
1
1
1
1
1
1
1
1
1
1
1
1
1
1
1
1
1
1
1
1
1
1
1
1
1
1
1
1
1
1
1
1
1
1
1
1
1
1
1
1
1
1
1
1
1
1
1
1
1
1
1
1
1
1
1
1
1
1
1
1
1
1
1
1
1
1
4.96557
10.1595
10.4339
10.4786
10.5288
10.5712
10.6029
10.6255
10.6456
10.6686
10.6963
10.7273
10.7592
10.788
10.8132
10.8356
10.8579
10.8836
10.9158
10.9543
10.9948
11.0314
11.0598
11.0791
11.0941
11.112
11.136
11.1635
11.1895
11.2107
11.2272
11.2435
11.2641
11.2907
11.3194
11.3474
11.3735
11.3949
11.4126
11.4293
11.4473
11.4682
11.4915
11.5163
11.5418
11.5661
11.5858
11.6014
11.6125
11.6214
11.6283
11.6377
11.6529
11.6751
11.6958
11.7092
11.7184
11.7257
11.7372
11.7573
11.7845
11.8143
11.8388
11.8535
11.8583
11.8592
11.8621
11.8707
11.8845
11.8999
11.9137
11.924
11.932
11.9411
11.9537
11.9694
11.9844
11.995
12.0001
12.001
12.0001
11.9997
12.0012
12.0046
12.0094
12.0154
12.0225
12.0306
12.0386
12.045
12.0508
1
1
1
1
1
1
1
1
1
1
1
1
1
1
1
1
1
1
1
1
1
1
1
1
1
1
1
1
1
1
1
1
1
1
1
1
1
1
1
1
1
1
1
1
1
1
1
1
1
1
1
1
1
1
1
1
1
1
1
1
1
1
1
1
1
1
1
1
1
1
1
1
1
1
1
1
1
1
1
1
1
1
1
1
1
1
1
1
1
1
1
1
1
1
1
1
1
1
1
1
1
4.65792
10.076
10.4217
10.4659
10.5222
10.5693
10.6049
10.6283
10.6455
10.6637
10.6885
10.7206
10.7548
10.7867
10.8138
10.8368
10.8577
10.8809
10.9104
10.947
10.9869
11.0241
11.0541
11.075
11.0904
11.1065
11.1274
11.1527
11.1787
11.2022
11.2223
11.2416
11.2629
11.2873
11.3119
11.3371
11.3626
11.3859
11.4063
11.4247
11.4431
11.4629
11.4844
11.5079
11.5332
11.5577
11.5777
11.5938
11.606
11.6164
11.6245
11.634
11.6484
11.6679
11.6861
11.6995
11.7106
11.7203
11.7333
11.7529
11.7783
11.8072
11.8309
11.8451
11.8497
11.8501
11.8533
11.8625
11.8779
11.8953
11.9096
11.9186
11.9238
11.9297
11.941
11.9581
11.9761
11.9891
11.995
11.9948
11.9916
11.9892
11.99
11.9941
11.9999
12.0063
12.0132
12.0211
12.0299
12.0377
12.0447
1
1
1
1
1
1
1
1
1
1
1
1
1
1
1
1
1
1
1
1
1
1
1
1
1
1
1
1
1
1
1
1
1
1
1
1
1
1
1
1
1
1
1
1
1
1
1
1
1
1
1
1
1
1
1
1
1
1
1
1
1
1
1
1
1
1
1
1
1
1
1
1
1
1
1
1
1
1
1
1
1
1
1
1
1
1
1
1
1
1
1
1
1
1
1
1
1
1
1
1
1
4.33933
9.98047
10.407
10.4517
10.5149
10.5672
10.6068
10.6312
10.6457
10.6586
10.6803
10.7133
10.7502
10.785
10.8143
10.8375
10.8567
10.877
10.9037
10.9393
10.9796
11.0171
11.0476
11.0689
11.0838
11.0979
11.117
11.142
11.1698
11.1958
11.2185
11.2393
11.2596
11.281
11.302
11.326
11.3524
11.3775
11.3996
11.4186
11.4367
11.4559
11.477
11.5006
11.5263
11.5496
11.5674
11.5821
11.5954
11.6092
11.621
11.6328
11.6471
11.6625
11.6756
11.6873
11.7
11.7138
11.7307
11.751
11.7744
11.8
11.8211
11.8338
11.8385
11.8398
11.8443
11.8542
11.8707
11.8894
11.9043
11.9125
11.9157
11.9191
11.9289
11.9466
11.9666
11.9819
11.9887
11.9877
11.9826
11.9784
11.9783
11.9831
11.9899
11.9968
12.0036
12.0114
12.0205
12.0293
12.0368
1
1
1
1
1
1
1
1
1
1
1
1
1
1
1
1
1
1
1
1
1
1
1
1
1
1
1
1
1
1
1
1
1
1
1
1
1
1
1
1
1
1
1
1
1
1
1
1
1
1
1
1
1
1
1
1
1
1
1
1
1
1
1
1
1
1
1
1
1
1
1
1
1
1
1
1
1
1
1
1
1
1
1
1
1
1
1
1
1
1
1
1
1
1
1
1
1
1
1
1
1
4.00255
9.88041
10.3901
10.4363
10.506
10.5628
10.6072
10.6337
10.6468
10.6555
10.673
10.7049
10.7434
10.7811
10.8125
10.8359
10.8533
10.8706
10.8951
10.9315
10.9734
11.0117
11.0417
11.0618
11.0747
11.0869
11.1058
11.1326
11.163
11.1913
11.215
11.2349
11.2523
11.2704
11.2904
11.3162
11.345
11.3712
11.393
11.4101
11.4264
11.4453
11.4679
11.4942
11.5216
11.5431
11.5566
11.5675
11.58
11.598
11.6161
11.6326
11.6484
11.6597
11.6665
11.6743
11.687
11.7051
11.7276
11.7504
11.7723
11.7932
11.8099
11.8198
11.8248
11.8282
11.8355
11.847
11.864
11.8827
11.8973
11.9049
11.9071
11.9093
11.9181
11.9356
11.9564
11.9728
11.9802
11.9789
11.9729
11.9675
11.9667
11.9719
11.9795
11.9868
11.9935
12.0011
12.0103
12.0197
12.0275
1
1
1
1
1
1
1
1
1
1
1
1
1
1
1
1
1
1
1
1
1
1
1
1
1
1
1
1
1
1
1
1
1
1
1
1
1
1
1
1
1
1
1
1
1
1
1
1
1
1
1
1
1
1
1
1
1
1
1
1
1
1
1
1
1
1
1
1
1
1
1
1
1
1
1
1
1
1
1
1
1
1
1
1
1
1
1
1
1
1
1
1
1
1
1
1
1
1
1
1
1
3.64517
9.77401
10.3767
10.4246
10.4971
10.5559
10.6036
10.6328
10.646
10.6519
10.6662
10.6966
10.7363
10.7763
10.8095
10.8327
10.8484
10.8627
10.8855
10.9237
10.968
11.0074
11.0367
11.0548
11.0648
11.0751
11.0948
11.1242
11.1574
11.1872
11.2108
11.2277
11.2413
11.2571
11.279
11.3091
11.3408
11.3677
11.3873
11.4001
11.4128
11.4311
11.4571
11.4883
11.5184
11.5386
11.5463
11.5513
11.5608
11.5816
11.6074
11.6319
11.6507
11.6587
11.6601
11.6624
11.6726
11.6938
11.7221
11.7491
11.7709
11.7868
11.7976
11.804
11.8091
11.8159
11.827
11.8412
11.8582
11.8752
11.888
11.8949
11.8973
11.8999
11.9086
11.9254
11.9454
11.9613
11.969
11.9679
11.9619
11.9565
11.9557
11.961
11.9687
11.976
11.9825
11.99
11.9994
12.0092
12.0174
1
1
1
1
1
1
1
1
1
1
1
1
1
1
1
1
1
1
1
1
1
1
1
1
1
1
1
1
1
1
1
1
1
1
1
1
1
1
1
1
1
1
1
1
1
1
1
1
1
1
1
1
1
1
1
1
1
1
1
1
1
1
1
1
1
1
1
1
1
1
1
1
1
1
1
1
1
1
1
1
1
1
1
1
1
1
1
1
1
1
1
1
1
1
1
1
1
1
1
1
1
3.27829
9.64557
10.3688
10.4183
10.4889
10.5478
10.5976
10.6297
10.6436
10.6478
10.6591
10.6881
10.7292
10.7707
10.8046
10.8269
10.8412
10.8537
10.8763
10.9166
10.9631
11.0034
11.0319
11.0475
11.0544
11.0632
11.0844
11.1163
11.1513
11.1817
11.2039
11.2176
11.2288
11.2445
11.2698
11.3042
11.3385
11.3656
11.3819
11.3897
11.3988
11.4161
11.4454
11.4818
11.5143
11.5336
11.5366
11.5359
11.5414
11.5629
11.5946
11.6278
11.6516
11.6591
11.6562
11.6528
11.6592
11.6809
11.7132
11.7448
11.7681
11.7808
11.7855
11.7876
11.7924
11.8033
11.819
11.8364
11.853
11.8669
11.8767
11.8826
11.886
11.8904
11.9001
11.916
11.9337
11.9479
11.955
11.9546
11.9497
11.9454
11.9454
11.9506
11.9577
11.9644
11.9706
11.978
11.9877
11.9981
12.0066
1
1
1
1
1
1
1
1
1
1
1
1
1
1
1
1
1
1
1
1
1
1
1
1
1
1
1
1
1
1
1
1
1
1
1
1
1
1
1
1
1
1
1
1
1
1
1
1
1
1
1
1
1
1
1
1
1
1
1
1
1
1
1
1
1
1
1
1
1
1
1
1
1
1
1
1
1
1
1
1
1
1
1
1
1
1
1
1
1
1
1
1
1
1
1
1
1
1
1
1
1
2.91703
9.47402
10.3702
10.4172
10.4822
10.5394
10.5895
10.6238
10.6395
10.6437
10.652
10.6795
10.7214
10.7634
10.7973
10.8191
10.8322
10.8441
10.8673
10.9093
10.9579
10.9988
11.0262
11.0395
11.0442
11.0526
11.0756
11.109
11.1442
11.1739
11.1943
11.2057
11.2169
11.2341
11.2621
11.2991
11.3347
11.3614
11.3749
11.3797
11.3867
11.4036
11.4348
11.4739
11.5073
11.5261
11.5267
11.5226
11.5253
11.5455
11.5793
11.6186
11.6479
11.6579
11.6534
11.6462
11.6483
11.668
11.7015
11.7363
11.7615
11.7731
11.7733
11.772
11.7765
11.7909
11.8113
11.8316
11.8473
11.8575
11.8638
11.8684
11.8731
11.8806
11.8921
11.9069
11.9216
11.9329
11.9389
11.9393
11.9364
11.934
11.9351
11.9401
11.9462
11.9518
11.9574
11.965
11.9753
11.9864
11.9955
1
1
1
1
1
1
1
1
1
1
1
1
1
1
1
1
1
1
1
1
1
1
1
1
1
1
1
1
1
1
1
1
1
1
1
1
1
1
1
1
1
1
1
1
1
1
1
1
1
1
1
1
1
1
1
1
1
1
1
1
1
1
1
1
1
1
1
1
1
1
1
1
1
1
1
1
1
1
1
1
1
1
1
1
1
1
1
1
1
1
1
1
1
1
1
1
1
1
1
1
1
2.57163
9.24523
10.3767
10.4172
10.4765
10.5318
10.5814
10.6169
10.6342
10.6392
10.6457
10.6716
10.7139
10.7561
10.7894
10.8098
10.8209
10.8322
10.8568
10.9014
10.9515
10.9921
11.0183
11.0303
11.0345
11.0441
11.0686
11.1019
11.1355
11.1636
11.1826
11.1942
11.2076
11.2275
11.2567
11.2938
11.3286
11.3532
11.3651
11.3701
11.3781
11.3957
11.4263
11.4633
11.4948
11.513
11.5145
11.5112
11.5144
11.5336
11.5659
11.6055
11.6376
11.6515
11.6488
11.6412
11.6404
11.6567
11.6882
11.7238
11.7502
11.762
11.7605
11.7579
11.7627
11.7797
11.8036
11.8257
11.84
11.8466
11.8498
11.8534
11.8595
11.8703
11.8839
11.8974
11.9085
11.9165
11.9212
11.9225
11.9221
11.9219
11.9242
11.9288
11.9337
11.9381
11.9433
11.9515
11.9626
11.9745
11.9839
1
1
1
1
1
1
1
1
1
1
1
1
1
1
1
1
1
1
1
1
1
1
1
1
1
1
1
1
1
1
1
1
1
1
1
1
1
1
1
1
1
1
1
1
1
1
1
1
1
1
1
1
1
1
1
1
1
1
1
1
1
1
1
1
1
1
1
1
1
1
1
1
1
1
1
1
1
1
1
1
1
1
1
1
1
1
1
1
1
1
1
1
1
1
1
1
1
1
1
1
1
2.24761
8.95868
10.3901
10.4192
10.4727
10.526
10.5745
10.6098
10.6282
10.6338
10.6394
10.6649
10.7074
10.7483
10.7798
10.7985
10.8084
10.8204
10.8474
10.8941
10.9444
10.9838
11.0085
11.0202
11.0258
11.0377
11.0631
11.0947
11.1253
11.1513
11.1698
11.1837
11.2006
11.2236
11.2527
11.2872
11.3191
11.3411
11.3532
11.3617
11.3731
11.3922
11.4205
11.452
11.4791
11.4955
11.4998
11.5009
11.5079
11.5278
11.5573
11.5926
11.6228
11.6384
11.6397
11.6351
11.6345
11.6475
11.675
11.7079
11.734
11.7469
11.7465
11.7453
11.7517
11.7705
11.7959
11.8179
11.8302
11.8339
11.8349
11.838
11.8458
11.8594
11.8744
11.8864
11.8941
11.8991
11.9024
11.9049
11.9071
11.909
11.9121
11.9162
11.92
11.9236
11.929
11.9379
11.9498
11.9622
11.9716
1
1
1
1
1
1
1
1
1
1
1
1
1
1
1
1
1
1
1
1
1
1
1
1
1
1
1
1
1
1
1
1
1
1
1
1
1
1
1
1
1
1
1
1
1
1
1
1
1
1
1
1
1
1
1
1
1
1
1
1
1
1
1
1
1
1
1
1
1
1
1
1
1
1
1
1
1
1
1
1
1
1
1
1
1
1
1
1
1
1
1
1
1
1
1
1
1
1
1
1
1
1.95051
8.62147
10.4014
10.4186
10.469
10.5193
10.5662
10.6011
10.6205
10.6277
10.635
10.6615
10.7025
10.7404
10.7684
10.7849
10.795
10.8094
10.84
10.8878
10.9364
10.9732
10.9959
11.0079
11.016
11.0312
11.0573
11.0867
11.1138
11.1378
11.1567
11.1738
11.1948
11.2207
11.2493
11.2797
11.3071
11.3265
11.3402
11.3537
11.3699
11.3907
11.4156
11.4403
11.4604
11.4737
11.4819
11.4902
11.5039
11.5259
11.5531
11.5818
11.6058
11.6195
11.6246
11.6259
11.6287
11.6407
11.6635
11.6911
11.7141
11.7277
11.7308
11.7334
11.7429
11.7629
11.7879
11.8077
11.8174
11.8193
11.8193
11.823
11.8327
11.8481
11.8634
11.8736
11.8783
11.8808
11.8835
11.8874
11.8915
11.895
11.8985
11.9018
11.905
11.9087
11.9148
11.9246
11.9369
11.9491
11.9578
1
1
1
1
1
1
1
1
1
1
1
1
1
1
1
1
1
1
1
1
1
1
1
1
1
1
1
1
1
1
1
1
1
1
1
1
1
1
1
1
1
1
1
1
1
1
1
1
1
1
1
1
1
1
1
1
1
1
1
1
1
1
1
1
1
1
1
1
1
1
1
1
1
1
1
1
1
1
1
1
1
1
1
1
1
1
1
1
1
1
1
1
1
1
1
1
1
1
1
1
1
1.68491
8.24247
10.4144
10.4131
10.4648
10.5117
10.5558
10.5897
10.6107
10.6212
10.6332
10.6611
10.6986
10.7313
10.7543
10.7687
10.7806
10.7995
10.8347
10.8825
10.9277
10.9606
10.981
10.9941
11.0059
11.0247
11.0512
11.0782
11.1014
11.1227
11.1419
11.1622
11.1872
11.2156
11.244
11.2712
11.2945
11.3121
11.3274
11.3449
11.3657
11.388
11.4099
11.4285
11.4422
11.4528
11.4633
11.4782
11.5001
11.5259
11.5515
11.5737
11.5893
11.5979
11.6045
11.612
11.6215
11.6348
11.6536
11.6748
11.6928
11.7055
11.7129
11.7206
11.7348
11.7562
11.7791
11.7953
11.802
11.8027
11.803
11.8085
11.8202
11.8365
11.8506
11.8586
11.8609
11.8619
11.8648
11.8702
11.8758
11.8799
11.8829
11.8854
11.8885
11.8933
11.901
11.9119
11.9239
11.9349
11.9422
1
1
1
1
1
1
1
1
1
1
1
1
1
1
1
1
1
1
1
1
1
1
1
1
1
1
1
1
1
1
1
1
1
1
1
1
1
1
1
1
1
1
1
1
1
1
1
1
1
1
1
1
1
1
1
1
1
1
1
1
1
1
1
1
1
1
1
1
1
1
1
1
1
1
1
1
1
1
1
1
1
1
1
1
1
1
1
1
1
1
1
1
1
1
1
1
1
1
1
1
1
1.45621
7.81899
10.4043
10.408
10.4579
10.4993
10.5402
10.5733
10.5964
10.6117
10.63
10.6599
10.6942
10.7223
10.7414
10.7538
10.7674
10.7913
10.8307
10.8783
10.9202
10.9489
10.9666
10.9807
10.9964
11.0188
11.0457
11.07
11.0893
11.1077
11.1268
11.1494
11.1776
11.2083
11.2373
11.2631
11.2842
11.3003
11.3158
11.3345
11.3568
11.3801
11.4007
11.4162
11.4262
11.4346
11.4456
11.4646
11.4929
11.5237
11.5495
11.5665
11.5739
11.5765
11.5819
11.594
11.6112
11.6286
11.6449
11.6602
11.6721
11.6824
11.6927
11.7063
11.7258
11.7487
11.7688
11.7807
11.7846
11.7847
11.7862
11.7943
11.8082
11.8244
11.8366
11.8418
11.8421
11.8426
11.8466
11.8534
11.8597
11.8638
11.8655
11.8671
11.8709
11.8778
11.8876
11.8994
11.9103
11.9193
11.9244
1
1
1
1
1
1
1
1
1
1
1
1
1
1
1
1
1
1
1
1
1
1
1
1
1
1
1
1
1
1
1
1
1
1
1
1
1
1
1
1
1
1
1
1
1
1
1
1
1
1
1
1
1
1
1
1
1
1
1
1
1
1
1
1
1
1
1
1
1
1
1
1
1
1
1
1
1
1
1
1
1
1
1
1
1
1
1
1
1
1
1
1
1
1
1
1
1
1
1
1
1
1.25379
7.36999
10.3805
10.4026
10.4475
10.4867
10.5252
10.5558
10.58
10.6011
10.6272
10.6592
10.6894
10.7108
10.7245
10.7365
10.7546
10.7848
10.8271
10.8728
10.9101
10.9344
10.9513
10.9682
10.9883
11.0138
11.0402
11.0616
11.0771
11.0922
11.1104
11.1334
11.1634
11.1966
11.2278
11.255
11.2764
11.2917
11.3058
11.323
11.3437
11.3667
11.3879
11.4037
11.4133
11.4205
11.4308
11.4508
11.4821
11.5168
11.5442
11.5586
11.56
11.5568
11.5596
11.5742
11.5972
11.6198
11.636
11.6465
11.6529
11.6602
11.6718
11.6903
11.7148
11.7389
11.7565
11.7646
11.7661
11.7661
11.7693
11.78
11.7959
11.8116
11.8214
11.8238
11.8224
11.8232
11.8286
11.8366
11.8433
11.8464
11.8466
11.8474
11.8524
11.862
11.8743
11.8866
11.896
11.9021
11.9047
1
1
1
1
1
1
1
1
1
1
1
1
1
1
1
1
1
1
1
1
1
1
1
1
1
1
1
1
1
1
1
1
1
1
1
1
1
1
1
1
1
1
1
1
1
1
1
1
1
1
1
1
1
1
1
1
1
1
1
1
1
1
1
1
1
1
1
1
1
1
1
1
1
1
1
1
1
1
1
1
1
1
1
1
1
1
1
1
1
1
1
1
1
1
1
1
1
1
1
1
1
1.05968
6.86908
10.3546
10.3938
10.4312
10.4699
10.5078
10.5404
10.568
10.5946
10.6254
10.6569
10.6824
10.6992
10.7111
10.7254
10.7481
10.7819
10.8242
10.8654
10.897
10.9187
10.937
10.9581
10.9824
11.0093
11.0338
11.0517
11.064
11.0764
11.0942
11.1175
11.1486
11.1837
11.2167
11.2463
11.2692
11.2839
11.2963
11.3103
11.3275
11.3494
11.3724
11.3912
11.4028
11.4098
11.4191
11.4376
11.4686
11.5044
11.5336
11.5477
11.5463
11.539
11.5394
11.5547
11.5811
11.6077
11.6251
11.6326
11.6349
11.6397
11.6513
11.6729
11.701
11.7261
11.7416
11.747
11.7467
11.7472
11.7522
11.7651
11.7823
11.7971
11.8046
11.8049
11.8028
11.8042
11.8109
11.8196
11.8261
11.8279
11.8266
11.8273
11.8339
11.846
11.8603
11.8726
11.8801
11.8831
11.8833
1
1
1
1
1
1
1
1
1
1
1
1
1
1
1
1
1
1
1
1
1
1
1
1
1
1
1
1
1
1
1
1
1
1
1
1
1
1
1
1
1
1
1
1
1
1
1
1
1
1
1
1
1
1
1
1
1
1
1
1
1
1
1
1
1
1
1
1
1
1
1
1
1
1
1
1
1
1
1
1
1
1
1
1
1
1
1
1
1
1
1
1
1
1
1
1
1
1
1
1
1
1.00161
6.32769
10.2724
10.3613
10.4073
10.4521
10.4923
10.5282
10.5595
10.5898
10.6205
10.6481
10.6697
10.6857
10.6997
10.7181
10.7445
10.7791
10.8175
10.8525
10.8804
10.9033
10.9261
10.9518
10.9786
11.0046
11.0255
11.0389
11.0491
11.0604
11.079
11.1033
11.1353
11.1709
11.2043
11.2349
11.2592
11.2744
11.2854
11.2965
11.3112
11.3318
11.3562
11.3779
11.392
11.4
11.4091
11.426
11.4544
11.4883
11.5174
11.5323
11.53
11.5217
11.5216
11.5371
11.5644
11.5928
11.6111
11.6175
11.6172
11.6203
11.6321
11.6553
11.685
11.7102
11.7243
11.7278
11.7267
11.728
11.7351
11.7496
11.767
11.7806
11.7864
11.7856
11.7837
11.7861
11.7931
11.8018
11.8076
11.8083
11.8063
11.8075
11.8155
11.8295
11.8448
11.8566
11.8621
11.8624
11.8612
1
1
1
1
1
1
1
1
1
1
1
1
1
1
1
1
1
1
1
1
1
1
1
1
1
1
1
1
1
1
1
1
1
1
1
1
1
1
1
1
1
1
1
1
1
1
1
1
1
1
1
1
1
1
1
1
1
1
1
1
1
1
1
1
1
1
1
1
1
1
1
1
1
1
1
1
1
1
1
1
1
1
1
1
1
1
1
1
1
1
1
1
1
1
1
1
1
1
1
1
1
1.00001
5.67877
10.1915
10.3385
10.3872
10.4359
10.4772
10.5151
10.5492
10.5809
10.6104
10.6358
10.6569
10.675
10.6926
10.7143
10.7419
10.7736
10.8063
10.8362
10.8632
10.8898
10.918
10.9475
10.9749
10.9983
11.0151
11.0241
11.0327
11.0454
11.0669
11.094
11.1272
11.1617
11.192
11.2192
11.2422
11.258
11.2693
11.2812
11.297
11.3179
11.3418
11.3634
11.3784
11.3879
11.3983
11.4153
11.4417
11.472
11.4983
11.512
11.5101
11.5032
11.5051
11.5214
11.5483
11.5761
11.594
11.6
11.5986
11.6011
11.6136
11.6379
11.6678
11.692
11.7046
11.7072
11.7062
11.7088
11.7178
11.7335
11.7497
11.7617
11.7664
11.7657
11.7652
11.7687
11.7754
11.7829
11.7874
11.7876
11.7863
11.7887
11.7978
11.8123
11.8272
11.8377
11.8416
11.8401
11.8388
1
1
1
1
1
1
1
1
1
1
1
1
1
1
1
1
1
1
1
1
1
1
1
1
1
1
1
1
1
1
1
1
1
1
1
1
1
1
1
1
1
1
1
1
1
1
1
1
1
1
1
1
1
1
1
1
1
1
1
1
1
1
1
1
1
1
1
1
1
1
1
1
1
1
1
1
1
1
1
1
1
1
1
1
1
1
1
1
1
1
1
1
1
1
1
1
1
1
1
1
1
1
4.99235
10.0929
10.3248
10.3753
10.4249
10.4672
10.5063
10.5403
10.571
10.5989
10.6235
10.6459
10.6668
10.6875
10.711
10.7377
10.7657
10.7937
10.8203
10.8487
10.8799
10.9121
10.9437
10.9704
10.9901
11.0028
11.0087
11.0166
11.0318
11.0572
11.0881
11.1226
11.1549
11.1807
11.2013
11.2198
11.2354
11.2496
11.2664
11.2871
11.3098
11.331
11.3484
11.3609
11.3711
11.3844
11.4043
11.4309
11.4581
11.479
11.4883
11.4862
11.4827
11.4888
11.5071
11.5334
11.5591
11.5749
11.58
11.5783
11.5816
11.5957
11.6208
11.6496
11.6718
11.6827
11.6848
11.685
11.6895
11.7007
11.7166
11.7305
11.7402
11.7444
11.7452
11.7472
11.7517
11.7574
11.7628
11.7656
11.766
11.767
11.7712
11.7805
11.7938
11.8069
11.8154
11.8184
11.8164
11.8166
1
1
1
1
1
1
1
1
1
1
1
1
1
1
1
1
1
1
1
1
1
1
1
1
1
1
1
1
1
1
1
1
1
1
1
1
1
1
1
1
1
1
1
1
1
1
1
1
1
1
1
1
1
1
1
1
1
1
1
1
1
1
1
1
1
1
1
1
1
1
1
1
1
1
1
1
1
1
1
1
1
1
1
1
1
1
1
1
1
1
1
1
1
1
1
1
1
1
1
1
1
1
4.29339
9.94601
10.3142
10.3696
10.4173
10.4568
10.4944
10.5279
10.5584
10.5864
10.612
10.6364
10.6595
10.6814
10.705
10.7308
10.7565
10.7819
10.808
10.8385
10.8721
10.9052
10.9369
10.9624
10.9795
10.9892
10.9939
11.0023
11.02
11.0489
11.0835
11.1188
11.1486
11.1691
11.1825
11.1948
11.2088
11.227
11.2521
11.2804
11.3058
11.3239
11.3345
11.341
11.3496
11.3657
11.3906
11.4203
11.4459
11.4612
11.4647
11.4606
11.4605
11.4717
11.4929
11.519
11.542
11.5547
11.558
11.5567
11.5619
11.5782
11.6039
11.6305
11.6497
11.6587