/*--------------------------------*- C++ -*----------------------------------*\
  =========                 |
  \\      /  F ield         | OpenFOAM: The Open Source CFD Toolbox
   \\    /   O peration     | Website:  https://openfoam.org
    \\  /    A nd           | Version:  7
     \\/     M anipulation  |
\*---------------------------------------------------------------------------*/
FoamFile
{
    version     2.0;
    format      ascii;
    class       volScalarField;
    location    "1.9";
    object      rho;
}
// * * * * * * * * * * * * * * * * * * * * * * * * * * * * * * * * * * * * * //

dimensions      [1 -3 0 0 0 0 0];

internalField   nonuniform List<scalar> 
258048
(
1.40001
1.40001
1.40001
1.40001
1.40001
1.40001
1.40001
1.40001
1.40001
1.40001
1.40001
1.40001
1.40001
1.40001
1.40001
1.40001
1.40001
1.40001
1.40001
1.40001
1.40001
1.40001
1.40001
1.40001
1.40001
1.40001
1.40001
1.40001
1.40001
1.40001
1.40001
1.40001
1.40001
1.40001
1.40001
1.40001
1.40001
1.40001
1.40001
1.40001
1.40001
1.40001
1.40001
1.40001
1.40001
1.40001
1.40001
1.40001
1.40001
1.40001
1.40001
1.40001
1.40001
1.40001
1.40001
1.40001
1.40001
1.40001
1.40001
1.40001
1.40001
1.40001
1.40001
1.40001
1.40001
1.40001
1.40001
1.40001
1.40001
1.40001
1.40001
1.40001
1.40001
1.40001
1.40001
1.40001
1.40001
1.40001
1.40001
1.40001
1.40001
1.40001
1.40001
1.40001
1.40001
1.40001
1.40001
1.40001
1.40001
1.40001
1.40001
1.40001
1.40001
1.40001
1.40001
1.40001
1.40001
1.40001
1.40001
1.40001
1.55708
4.35786
5.43345
5.43201
5.44713
5.4595
5.47188
5.48238
5.48966
5.49655
5.50627
5.51927
5.53556
5.55377
5.57031
5.58239
5.5899
5.59509
5.59973
5.60432
5.61032
5.61781
5.62635
5.63585
5.64642
5.65877
5.67315
5.6877
5.70003
5.70817
5.71149
5.71138
5.71075
5.71318
5.72116
5.73503
5.75206
5.76818
5.78056
5.78935
5.79696
5.8059
5.81726
5.8282
5.83581
5.83885
5.83833
5.83727
5.83921
5.84609
5.8567
5.86652
5.87146
5.87138
5.86842
5.86621
5.86784
5.87626
5.89196
5.91084
5.92737
5.93752
5.94092
5.93873
5.93347
5.92928
5.92802
5.92965
5.93398
5.93968
5.94536
5.952
5.95895
5.96467
5.96736
5.96639
5.96325
5.9611
5.96165
5.96498
5.97008
5.97353
5.97325
5.9694
5.96153
5.94939
5.93237
5.90975
5.88441
5.86283
5.85083
5.85024
1.40001
1.40001
1.40001
1.40001
1.40001
1.40001
1.40001
1.40001
1.40001
1.40001
1.40001
1.40001
1.40001
1.40001
1.40001
1.40001
1.40001
1.40001
1.40001
1.40001
1.40001
1.40001
1.40001
1.40001
1.40001
1.40001
1.40001
1.40001
1.40001
1.40001
1.40001
1.40001
1.40001
1.40001
1.40001
1.40001
1.40001
1.40001
1.40001
1.40001
1.40001
1.40001
1.40001
1.40001
1.40001
1.40001
1.40001
1.40001
1.40001
1.40001
1.40001
1.40001
1.40001
1.40001
1.40001
1.40001
1.40001
1.40001
1.40001
1.40001
1.40001
1.40001
1.40001
1.40001
1.40001
1.40001
1.40001
1.40001
1.40001
1.40001
1.40001
1.40001
1.40001
1.40001
1.40001
1.40001
1.40001
1.40001
1.40001
1.40001
1.40001
1.40001
1.40001
1.40001
1.40001
1.40001
1.40001
1.40001
1.40001
1.40001
1.40001
1.40001
1.40001
1.40001
1.40001
1.40001
1.40001
1.40001
1.40001
1.40001
1.55089
4.34259
5.42939
5.43631
5.44865
5.46078
5.47238
5.48221
5.48955
5.49654
5.50652
5.5195
5.53546
5.55335
5.56993
5.58238
5.5903
5.59532
5.59966
5.60429
5.61018
5.61758
5.6262
5.63592
5.64687
5.65962
5.67414
5.68854
5.70046
5.70792
5.71067
5.71059
5.71048
5.71376
5.72253
5.73653
5.75301
5.76822
5.77984
5.78842
5.79622
5.80561
5.81734
5.82843
5.83616
5.83925
5.83875
5.83772
5.83963
5.84627
5.85647
5.86594
5.87079
5.87093
5.86835
5.86644
5.86799
5.87606
5.89135
5.9101
5.92691
5.93762
5.94149
5.93932
5.9336
5.92874
5.92699
5.92854
5.93309
5.93903
5.9449
5.95146
5.95832
5.96414
5.96719
5.96679
5.9641
5.96202
5.96219
5.96494
5.96952
5.97275
5.97254
5.96893
5.96129
5.94931
5.93238
5.90961
5.88403
5.86242
5.85049
5.84964
1.40001
1.40001
1.40001
1.40001
1.40001
1.40001
1.40001
1.40001
1.40001
1.40001
1.40001
1.40001
1.40001
1.40001
1.40001
1.40001
1.40001
1.40001
1.40001
1.40001
1.40001
1.40001
1.40001
1.40001
1.40001
1.40001
1.40001
1.40001
1.40001
1.40001
1.40001
1.40001
1.40001
1.40001
1.40001
1.40001
1.40001
1.40001
1.40001
1.40001
1.40001
1.40001
1.40001
1.40001
1.40001
1.40001
1.40001
1.40001
1.40001
1.40001
1.40001
1.40001
1.40001
1.40001
1.40001
1.40001
1.40001
1.40001
1.40001
1.40001
1.40001
1.40001
1.40001
1.40001
1.40001
1.40001
1.40001
1.40001
1.40001
1.40001
1.40001
1.40001
1.40001
1.40001
1.40001
1.40001
1.40001
1.40001
1.40001
1.40001
1.40001
1.40001
1.40001
1.40001
1.40001
1.40001
1.40001
1.40001
1.40001
1.40001
1.40001
1.40001
1.40001
1.40001
1.40001
1.40001
1.40001
1.40001
1.40001
1.40001
1.54112
4.32095
5.42886
5.4372
5.44881
5.46144
5.47247
5.48148
5.48831
5.49543
5.50579
5.51889
5.53465
5.55236
5.56917
5.58215
5.59056
5.59567
5.59987
5.60435
5.61004
5.61726
5.62598
5.63594
5.6471
5.66005
5.67493
5.68963
5.70123
5.70784
5.70965
5.70906
5.70937
5.71354
5.72342
5.73779
5.75379
5.76808
5.77888
5.78728
5.79531
5.8051
5.81711
5.82837
5.83629
5.83948
5.83911
5.83828
5.84024
5.8466
5.85624
5.86517
5.86988
5.87021
5.8681
5.86663
5.86816
5.8757
5.89016
5.90851
5.92564
5.93722
5.94194
5.94014
5.934
5.92813
5.92546
5.92668
5.93147
5.93793
5.94422
5.95072
5.95734
5.96315
5.9666
5.96701
5.96517
5.96336
5.96318
5.96509
5.96865
5.97134
5.97123
5.9682
5.96123
5.9496
5.93255
5.90922
5.88311
5.8614
5.85
5.84911
1.40001
1.40001
1.40001
1.40001
1.40001
1.40001
1.40001
1.40001
1.40001
1.40001
1.40001
1.40001
1.40001
1.40001
1.40001
1.40001
1.40001
1.40001
1.40001
1.40001
1.40001
1.40001
1.40001
1.40001
1.40001
1.40001
1.40001
1.40001
1.40001
1.40001
1.40001
1.40001
1.40001
1.40001
1.40001
1.40001
1.40001
1.40001
1.40001
1.40001
1.40001
1.40001
1.40001
1.40001
1.40001
1.40001
1.40001
1.40001
1.40001
1.40001
1.40001
1.40001
1.40001
1.40001
1.40001
1.40001
1.40001
1.40001
1.40001
1.40001
1.40001
1.40001
1.40001
1.40001
1.40001
1.40001
1.40001
1.40001
1.40001
1.40001
1.40001
1.40001
1.40001
1.40001
1.40001
1.40001
1.40001
1.40001
1.40001
1.40001
1.40001
1.40001
1.40001
1.40001
1.40001
1.40001
1.40001
1.40001
1.40001
1.40001
1.40001
1.40001
1.40001
1.40001
1.40001
1.40001
1.40001
1.40001
1.40001
1.40001
1.5288
4.29188
5.42391
5.4388
5.45005
5.46303
5.4733
5.48081
5.48627
5.49328
5.50415
5.51754
5.53308
5.55074
5.56799
5.58175
5.59082
5.5961
5.60001
5.60426
5.60979
5.61689
5.62581
5.6363
5.64785
5.66087
5.67565
5.69012
5.70118
5.70712
5.7085
5.70802
5.70901
5.71429
5.72495
5.7391
5.75411
5.76734
5.77748
5.78601
5.79459
5.80483
5.81699
5.82825
5.83616
5.83943
5.83932
5.83891
5.84108
5.84716
5.85597
5.86407
5.86846
5.86895
5.86751
5.86669
5.86837
5.87541
5.88878
5.90653
5.92386
5.93636
5.94208
5.94085
5.93449
5.92762
5.92393
5.92458
5.92943
5.93642
5.94316
5.94964
5.95601
5.96184
5.96591
5.9673
5.96639
5.96486
5.96428
5.96522
5.96755
5.96953
5.96946
5.96699
5.96078
5.94968
5.9326
5.90877
5.88212
5.86022
5.84916
5.84801
1.40001
1.40001
1.40001
1.40001
1.40001
1.40001
1.40001
1.40001
1.40001
1.40001
1.40001
1.40001
1.40001
1.40001
1.40001
1.40001
1.40001
1.40001
1.40001
1.40001
1.40001
1.40001
1.40001
1.40001
1.40001
1.40001
1.40001
1.40001
1.40001
1.40001
1.40001
1.40001
1.40001
1.40001
1.40001
1.40001
1.40001
1.40001
1.40001
1.40001
1.40001
1.40001
1.40001
1.40001
1.40001
1.40001
1.40001
1.40001
1.40001
1.40001
1.40001
1.40001
1.40001
1.40001
1.40001
1.40001
1.40001
1.40001
1.40001
1.40001
1.40001
1.40001
1.40001
1.40001
1.40001
1.40001
1.40001
1.40001
1.40001
1.40001
1.40001
1.40001
1.40001
1.40001
1.40001
1.40001
1.40001
1.40001
1.40001
1.40001
1.40001
1.40001
1.40001
1.40001
1.40001
1.40001
1.40001
1.40001
1.40001
1.40001
1.40001
1.40001
1.40001
1.40001
1.40001
1.40001
1.40001
1.40001
1.40001
1.40001
1.51517
4.2613
5.42132
5.44003
5.45266
5.46538
5.4743
5.47996
5.48398
5.49067
5.50188
5.51536
5.53061
5.54832
5.56624
5.58086
5.59061
5.59622
5.59991
5.604
5.6095
5.6166
5.62574
5.63687
5.64884
5.66167
5.67599
5.68986
5.7003
5.70591
5.70764
5.70799
5.7099
5.71592
5.7265
5.73978
5.75364
5.76589
5.7759
5.785
5.7944
5.80498
5.81681
5.8276
5.83516
5.83849
5.83901
5.83933
5.84199
5.84788
5.85572
5.86277
5.86661
5.86714
5.86645
5.8664
5.86859
5.87526
5.88744
5.90427
5.92146
5.93466
5.94141
5.94108
5.93494
5.9274
5.92278
5.92262
5.92718
5.93452
5.94173
5.94832
5.95455
5.96036
5.96496
5.96734
5.96739
5.96619
5.96521
5.96521
5.96638
5.96758
5.96746
5.96542
5.95989
5.94945
5.9325
5.90835
5.88126
5.85907
5.84803
5.84639
1.40001
1.40001
1.40001
1.40001
1.40001
1.40001
1.40001
1.40001
1.40001
1.40001
1.40001
1.40001
1.40001
1.40001
1.40001
1.40001
1.40001
1.40001
1.40001
1.40001
1.40001
1.40001
1.40001
1.40001
1.40001
1.40001
1.40001
1.40001
1.40001
1.40001
1.40001
1.40001
1.40001
1.40001
1.40001
1.40001
1.40001
1.40001
1.40001
1.40001
1.40001
1.40001
1.40001
1.40001
1.40001
1.40001
1.40001
1.40001
1.40001
1.40001
1.40001
1.40001
1.40001
1.40001
1.40001
1.40001
1.40001
1.40001
1.40001
1.40001
1.40001
1.40001
1.40001
1.40001
1.40001
1.40001
1.40001
1.40001
1.40001
1.40001
1.40001
1.40001
1.40001
1.40001
1.40001
1.40001
1.40001
1.40001
1.40001
1.40001
1.40001
1.40001
1.40001
1.40001
1.40001
1.40001
1.40001
1.40001
1.40001
1.40001
1.40001
1.40001
1.40001
1.40001
1.40001
1.40001
1.40001
1.40001
1.40001
1.40001
1.49458
4.21985
5.42197
5.44302
5.45565
5.46649
5.47354
5.47814
5.48226
5.48932
5.50043
5.51311
5.52771
5.54516
5.56356
5.57898
5.58946
5.59565
5.59953
5.6037
5.6093
5.6165
5.62588
5.63741
5.64959
5.66206
5.67567
5.68871
5.69849
5.70424
5.70696
5.70857
5.71156
5.71786
5.72778
5.73979
5.75229
5.76381
5.77416
5.78431
5.79477
5.80565
5.81677
5.82646
5.8332
5.83654
5.83787
5.83938
5.84284
5.84864
5.85544
5.86123
5.86436
5.86487
5.8647
5.86567
5.86881
5.87538
5.88645
5.90197
5.91854
5.932
5.93965
5.94047
5.93508
5.92748
5.92218
5.92116
5.92506
5.93235
5.93992
5.94682
5.95311
5.95892
5.96374
5.96679
5.96768
5.9669
5.96573
5.9651
5.96534
5.96574
5.96547
5.96355
5.95848
5.94874
5.93215
5.908
5.88064
5.85797
5.84654
5.84417
1.40001
1.40001
1.40001
1.40001
1.40001
1.40001
1.40001
1.40001
1.40001
1.40001
1.40001
1.40001
1.40001
1.40001
1.40001
1.40001
1.40001
1.40001
1.40001
1.40001
1.40001
1.40001
1.40001
1.40001
1.40001
1.40001
1.40001
1.40001
1.40001
1.40001
1.40001
1.40001
1.40001
1.40001
1.40001
1.40001
1.40001
1.40001
1.40001
1.40001
1.40001
1.40001
1.40001
1.40001
1.40001
1.40001
1.40001
1.40001
1.40001
1.40001
1.40001
1.40001
1.40001
1.40001
1.40001
1.40001
1.40001
1.40001
1.40001
1.40001
1.40001
1.40001
1.40001
1.40001
1.40001
1.40001
1.40001
1.40001
1.40001
1.40001
1.40001
1.40001
1.40001
1.40001
1.40001
1.40001
1.40001
1.40001
1.40001
1.40001
1.40001
1.40001
1.40001
1.40001
1.40001
1.40001
1.40001
1.40001
1.40001
1.40001
1.40001
1.40001
1.40001
1.40001
1.40001
1.40001
1.40001
1.40001
1.40001
1.40001
1.45195
4.16848
5.4319
5.44639
5.45765
5.46551
5.47106
5.47667
5.48259
5.49039
5.50055
5.51143
5.52457
5.54121
5.55958
5.5756
5.58695
5.59413
5.5988
5.60349
5.60938
5.6166
5.62593
5.63745
5.64961
5.66185
5.6748
5.68711
5.69645
5.7025
5.70624
5.70915
5.71315
5.71963
5.72883
5.7396
5.75065
5.76161
5.77257
5.78396
5.79549
5.80667
5.81701
5.82531
5.83078
5.83378
5.83585
5.83879
5.84328
5.84908
5.85491
5.85941
5.86168
5.86209
5.86245
5.86458
5.86879
5.87559
5.88578
5.89973
5.91535
5.92853
5.93673
5.93875
5.93468
5.92764
5.92216
5.92041
5.92333
5.93018
5.93789
5.94521
5.95178
5.95764
5.96242
5.96567
5.96706
5.96671
5.96572
5.96478
5.96434
5.96416
5.96356
5.96144
5.95665
5.94753
5.93148
5.90765
5.88017
5.85694
5.84476
5.84149
1.40001
1.40001
1.40001
1.40001
1.40001
1.40001
1.40001
1.40001
1.40001
1.40001
1.40001
1.40001
1.40001
1.40001
1.40001
1.40001
1.40001
1.40001
1.40001
1.40001
1.40001
1.40001
1.40001
1.40001
1.40001
1.40001
1.40001
1.40001
1.40001
1.40001
1.40001
1.40001
1.40001
1.40001
1.40001
1.40001
1.40001
1.40001
1.40001
1.40001
1.40001
1.40001
1.40001
1.40001
1.40001
1.40001
1.40001
1.40001
1.40001
1.40001
1.40001
1.40001
1.40001
1.40001
1.40001
1.40001
1.40001
1.40001
1.40001
1.40001
1.40001
1.40001
1.40001
1.40001
1.40001
1.40001
1.40001
1.40001
1.40001
1.40001
1.40001
1.40001
1.40001
1.40001
1.40001
1.40001
1.40001
1.40001
1.40001
1.40001
1.40001
1.40001
1.40001
1.40001
1.40001
1.40001
1.40001
1.40001
1.40001
1.40001
1.40001
1.40001
1.40001
1.40001
1.40001
1.40001
1.40001
1.40001
1.40001
1.40001
1.41097
4.11254
5.44648
5.44797
5.45312
5.4593
5.46656
5.47608
5.48554
5.49415
5.50253
5.51106
5.52208
5.53717
5.55456
5.57067
5.5828
5.5913
5.59749
5.60338
5.61002
5.6173
5.62601
5.63674
5.64836
5.6604
5.67307
5.68517
5.69456
5.70104
5.70539
5.70906
5.7137
5.7204
5.72907
5.7388
5.749
5.75981
5.77139
5.7837
5.796
5.80739
5.81716
5.82423
5.82851
5.83101
5.83349
5.83746
5.84287
5.84873
5.85375
5.85718
5.85878
5.85913
5.86
5.86325
5.86856
5.87564
5.8852
5.89776
5.91218
5.92464
5.93295
5.93599
5.93355
5.92764
5.92253
5.92027
5.92216
5.92827
5.93584
5.94351
5.95045
5.95643
5.96106
5.9642
5.96567
5.96561
5.96496
5.96409
5.96336
5.96274
5.96168
5.95922
5.95454
5.9459
5.93046
5.90715
5.87973
5.85601
5.8429
5.8387
1.40001
1.40001
1.40001
1.40001
1.40001
1.40001
1.40001
1.40001
1.40001
1.40001
1.40001
1.40001
1.40001
1.40001
1.40001
1.40001
1.40001
1.40001
1.40001
1.40001
1.40001
1.40001
1.40001
1.40001
1.40001
1.40001
1.40001
1.40001
1.40001
1.40001
1.40001
1.40001
1.40001
1.40001
1.40001
1.40001
1.40001
1.40001
1.40001
1.40001
1.40001
1.40001
1.40001
1.40001
1.40001
1.40001
1.40001
1.40001
1.40001
1.40001
1.40001
1.40001
1.40001
1.40001
1.40001
1.40001
1.40001
1.40001
1.40001
1.40001
1.40001
1.40001
1.40001
1.40001
1.40001
1.40001
1.40001
1.40001
1.40001
1.40001
1.40001
1.40001
1.40001
1.40001
1.40001
1.40001
1.40001
1.40001
1.40001
1.40001
1.40001
1.40001
1.40001
1.40001
1.40001
1.40001
1.40001
1.40001
1.40001
1.40001
1.40001
1.40001
1.40001
1.40001
1.40001
1.40001
1.40001
1.40001
1.40001
1.40001
1.40023
4.03489
5.44742
5.44434
5.4469
5.4545
5.46478
5.47724
5.48917
5.49846
5.50528
5.51168
5.52064
5.5336
5.54922
5.56467
5.57732
5.58716
5.59528
5.60297
5.61088
5.61855
5.62659
5.63599
5.64643
5.658
5.67071
5.68317
5.69318
5.70028
5.70482
5.70846
5.71306
5.71969
5.72811
5.73769
5.74803
5.75903
5.77081
5.7833
5.79575
5.80719
5.81663
5.82302
5.82671
5.82901
5.83156
5.83581
5.84147
5.84722
5.85167
5.85445
5.85572
5.85625
5.85775
5.86197
5.86804
5.87526
5.88444
5.89592
5.909
5.92065
5.9288
5.93255
5.93164
5.92722
5.92286
5.92047
5.92151
5.9267
5.93387
5.94169
5.94895
5.95504
5.95955
5.9624
5.96367
5.96378
5.96344
5.96286
5.96222
5.96138
5.95987
5.9571
5.95236
5.94399
5.92908
5.90633
5.87912
5.85505
5.84103
5.83609
1.40001
1.40001
1.40001
1.40001
1.40001
1.40001
1.40001
1.40001
1.40001
1.40001
1.40001
1.40001
1.40001
1.40001
1.40001
1.40001
1.40001
1.40001
1.40001
1.40001
1.40001
1.40001
1.40001
1.40001
1.40001
1.40001
1.40001
1.40001
1.40001
1.40001
1.40001
1.40001
1.40001
1.40001
1.40001
1.40001
1.40001
1.40001
1.40001
1.40001
1.40001
1.40001
1.40001
1.40001
1.40001
1.40001
1.40001
1.40001
1.40001
1.40001
1.40001
1.40001
1.40001
1.40001
1.40001
1.40001
1.40001
1.40001
1.40001
1.40001
1.40001
1.40001
1.40001
1.40001
1.40001
1.40001
1.40001
1.40001
1.40001
1.40001
1.40001
1.40001
1.40001
1.40001
1.40001
1.40001
1.40001
1.40001
1.40001
1.40001
1.40001
1.40001
1.40001
1.40001
1.40001
1.40001
1.40001
1.40001
1.40001
1.40001
1.40001
1.40001
1.40001
1.40001
1.40001
1.40001
1.40001
1.40001
1.40001
1.40001
1.40001
3.94314
5.43987
5.43977
5.44405
5.45433
5.46563
5.4783
5.49055
5.50039
5.50722
5.51289
5.52033
5.53109
5.54453
5.55863
5.57116
5.58207
5.59212
5.60196
5.61151
5.62007
5.62777
5.63584
5.64464
5.65525
5.66793
5.68109
5.69216
5.70005
5.70455
5.70747
5.71122
5.71734
5.72594
5.73649
5.74784
5.75929
5.7707
5.78243
5.7943
5.80554
5.81498
5.82147
5.82542
5.82806
5.83061
5.83449
5.83957
5.84464
5.84854
5.85104
5.85244
5.85353
5.85595
5.86103
5.86736
5.87442
5.88318
5.89377
5.90575
5.91686
5.92495
5.9291
5.92927
5.92623
5.92277
5.92065
5.92119
5.92549
5.93215
5.93982
5.94714
5.95326
5.95768
5.96027
5.96132
5.96152
5.96141
5.96113
5.96067
5.95979
5.95804
5.95508
5.95023
5.94189
5.9273
5.90503
5.87809
5.85384
5.83919
5.83391
1.40001
1.40001
1.40001
1.40001
1.40001
1.40001
1.40001
1.40001
1.40001
1.40001
1.40001
1.40001
1.40001
1.40001
1.40001
1.40001
1.40001
1.40001
1.40001
1.40001
1.40001
1.40001
1.40001
1.40001
1.40001
1.40001
1.40001
1.40001
1.40001
1.40001
1.40001
1.40001
1.40001
1.40001
1.40001
1.40001
1.40001
1.40001
1.40001
1.40001
1.40001
1.40001
1.40001
1.40001
1.40001
1.40001
1.40001
1.40001
1.40001
1.40001
1.40001
1.40001
1.40001
1.40001
1.40001
1.40001
1.40001
1.40001
1.40001
1.40001
1.40001
1.40001
1.40001
1.40001
1.40001
1.40001
1.40001
1.40001
1.40001
1.40001
1.40001
1.40001
1.40001
1.40001
1.40001
1.40001
1.40001
1.40001
1.40001
1.40001
1.40001
1.40001
1.40001
1.40001
1.40001
1.40001
1.40001
1.40001
1.40001
1.40001
1.40001
1.40001
1.40001
1.40001
1.40001
1.40001
1.40001
1.40001
1.40001
1.40001
1.40001
3.83935
5.41589
5.43597
5.44576
5.45873
5.4697
5.48033
5.49077
5.49989
5.50722
5.51337
5.52035
5.52957
5.5411
5.5537
5.56559
5.57689
5.58837
5.60016
5.61149
5.62135
5.62922
5.63625
5.64352
5.65282
5.66507
5.6788
5.69109
5.69993
5.70442
5.70636
5.7088
5.71424
5.72339
5.73542
5.74819
5.76021
5.77082
5.78103
5.7916
5.80227
5.81209
5.81955
5.82458
5.82798
5.83054
5.83367
5.8376
5.84151
5.84464
5.84702
5.84891
5.85096
5.85462
5.86051
5.8668
5.87335
5.88139
5.89112
5.90243
5.91337
5.92163
5.92614
5.92692
5.9247
5.92198
5.92035
5.92086
5.9246
5.93073
5.93797
5.945
5.95093
5.95526
5.95775
5.9588
5.95915
5.95919
5.95907
5.95872
5.95785
5.95606
5.95306
5.94813
5.93966
5.92516
5.90317
5.87649
5.8523
5.83743
5.83227
1.40001
1.40001
1.40001
1.40001
1.40001
1.40001
1.40001
1.40001
1.40001
1.40001
1.40001
1.40001
1.40001
1.40001
1.40001
1.40001
1.40001
1.40001
1.40001
1.40001
1.40001
1.40001
1.40001
1.40001
1.40001
1.40001
1.40001
1.40001
1.40001
1.40001
1.40001
1.40001
1.40001
1.40001
1.40001
1.40001
1.40001
1.40001
1.40001
1.40001
1.40001
1.40001
1.40001
1.40001
1.40001
1.40001
1.40001
1.40001
1.40001
1.40001
1.40001
1.40001
1.40001
1.40001
1.40001
1.40001
1.40001
1.40001
1.40001
1.40001
1.40001
1.40001
1.40001
1.40001
1.40001
1.40001
1.40001
1.40001
1.40001
1.40001
1.40001
1.40001
1.40001
1.40001
1.40001
1.40001
1.40001
1.40001
1.40001
1.40001
1.40001
1.40001
1.40001
1.40001
1.40001
1.40001
1.40001
1.40001
1.40001
1.40001
1.40001
1.40001
1.40001
1.40001
1.40001
1.40001
1.40001
1.40001
1.40001
1.40001
1.40001
3.72692
5.38578
5.43267
5.44797
5.46388
5.47502
5.48361
5.49128
5.49851
5.5054
5.51226
5.51956
5.52822
5.53855
5.54988
5.5611
5.57244
5.58472
5.59797
5.61094
5.62209
5.63051
5.63697
5.64314
5.65113
5.66249
5.67625
5.68939
5.69908
5.70371
5.70504
5.7066
5.71163
5.72142
5.73478
5.7487
5.76098
5.7707
5.77927
5.78825
5.79801
5.80816
5.81704
5.82371
5.8281
5.83083
5.83317
5.83585
5.83844
5.84063
5.84271
5.84512
5.84828
5.85345
5.86015
5.86629
5.87218
5.8792
5.88803
5.89901
5.9101
5.91878
5.92372
5.92481
5.92288
5.92057
5.91936
5.92023
5.92386
5.92958
5.93626
5.94264
5.94806
5.95219
5.95478
5.95616
5.95685
5.95709
5.95698
5.95654
5.95558
5.95381
5.95087
5.94593
5.93731
5.92271
5.90079
5.8743
5.85039
5.83573
5.83106
1.40001
1.40001
1.40001
1.40001
1.40001
1.40001
1.40001
1.40001
1.40001
1.40001
1.40001
1.40001
1.40001
1.40001
1.40001
1.40001
1.40001
1.40001
1.40001
1.40001
1.40001
1.40001
1.40001
1.40001
1.40001
1.40001
1.40001
1.40001
1.40001
1.40001
1.40001
1.40001
1.40001
1.40001
1.40001
1.40001
1.40001
1.40001
1.40001
1.40001
1.40001
1.40001
1.40001
1.40001
1.40001
1.40001
1.40001
1.40001
1.40001
1.40001
1.40001
1.40001
1.40001
1.40001
1.40001
1.40001
1.40001
1.40001
1.40001
1.40001
1.40001
1.40001
1.40001
1.40001
1.40001
1.40001
1.40001
1.40001
1.40001
1.40001
1.40001
1.40001
1.40001
1.40001
1.40001
1.40001
1.40001
1.40001
1.40001
1.40001
1.40001
1.40001
1.40001
1.40001
1.40001
1.40001
1.40001
1.40001
1.40001
1.40001
1.40001
1.40001
1.40001
1.40001
1.40001
1.40001
1.40001
1.40001
1.40001
1.40001
1.40001
3.60807
5.35642
5.42759
5.44759
5.46594
5.47859
5.48695
5.49269
5.49785
5.50365
5.51063
5.51856
5.52717
5.53684
5.54742
5.55797
5.56928
5.58196
5.59585
5.60978
5.62191
5.63096
5.6375
5.64313
5.65024
5.6606
5.67391
5.68723
5.69729
5.70224
5.70366
5.70528
5.71048
5.72078
5.73465
5.74878
5.76094
5.76997
5.77736
5.78508
5.79385
5.80391
5.81385
5.82207
5.8277
5.83095
5.83288
5.8346
5.83599
5.83723
5.83871
5.84129
5.84538
5.85206
5.85959
5.86563
5.87103
5.877
5.88484
5.89557
5.9069
5.9162
5.92167
5.92291
5.9209
5.91857
5.91758
5.91904
5.92306
5.92872
5.93485
5.94036
5.94489
5.94856
5.95132
5.9533
5.95462
5.95519
5.955
5.95425
5.95299
5.95114
5.9483
5.94343
5.93477
5.92001
5.89799
5.87164
5.84817
5.83404
5.83007
1.40001
1.40001
1.40001
1.40001
1.40001
1.40001
1.40001
1.40001
1.40001
1.40001
1.40001
1.40001
1.40001
1.40001
1.40001
1.40001
1.40001
1.40001
1.40001
1.40001
1.40001
1.40001
1.40001
1.40001
1.40001
1.40001
1.40001
1.40001
1.40001
1.40001
1.40001
1.40001
1.40001
1.40001
1.40001
1.40001
1.40001
1.40001
1.40001
1.40001
1.40001
1.40001
1.40001
1.40001
1.40001
1.40001
1.40001
1.40001
1.40001
1.40001
1.40001
1.40001
1.40001
1.40001
1.40001
1.40001
1.40001
1.40001
1.40001
1.40001
1.40001
1.40001
1.40001
1.40001
1.40001
1.40001
1.40001
1.40001
1.40001
1.40001
1.40001
1.40001
1.40001
1.40001
1.40001
1.40001
1.40001
1.40001
1.40001
1.40001
1.40001
1.40001
1.40001
1.40001
1.40001
1.40001
1.40001
1.40001
1.40001
1.40001
1.40001
1.40001
1.40001
1.40001
1.40001
1.40001
1.40001
1.40001
1.40001
1.40001
1.40001
3.48455
5.33049
5.42038
5.44323
5.46423
5.47916
5.48863
5.49421
5.49834
5.50293
5.50911
5.51701
5.52607
5.53564
5.54576
5.55637
5.5677
5.58028
5.59422
5.60843
5.62107
5.63072
5.63769
5.64338
5.64997
5.65932
5.67164
5.6844
5.69445
5.70006
5.70246
5.70505
5.71092
5.72144
5.73474
5.74808
5.7597
5.76837
5.77529
5.78229
5.79041
5.80007
5.81023
5.81927
5.826
5.83016
5.83225
5.83344
5.83395
5.83456
5.83539
5.83778
5.8424
5.85015
5.85834
5.86453
5.86984
5.87519
5.88224
5.89251
5.90388
5.9137
5.91967
5.92103
5.91882
5.91608
5.91509
5.9172
5.92192
5.92783
5.93361
5.93826
5.94167
5.94454
5.94731
5.95006
5.95232
5.95344
5.95322
5.95202
5.95022
5.94807
5.94525
5.94059
5.93206
5.91721
5.89505
5.86877
5.84577
5.83232
5.8291
1.40001
1.40001
1.40001
1.40001
1.40001
1.40001
1.40001
1.40001
1.40001
1.40001
1.40001
1.40001
1.40001
1.40001
1.40001
1.40001
1.40001
1.40001
1.40001
1.40001
1.40001
1.40001
1.40001
1.40001
1.40001
1.40001
1.40001
1.40001
1.40001
1.40001
1.40001
1.40001
1.40001
1.40001
1.40001
1.40001
1.40001
1.40001
1.40001
1.40001
1.40001
1.40001
1.40001
1.40001
1.40001
1.40001
1.40001
1.40001
1.40001
1.40001
1.40001
1.40001
1.40001
1.40001
1.40001
1.40001
1.40001
1.40001
1.40001
1.40001
1.40001
1.40001
1.40001
1.40001
1.40001
1.40001
1.40001
1.40001
1.40001
1.40001
1.40001
1.40001
1.40001
1.40001
1.40001
1.40001
1.40001
1.40001
1.40001
1.40001
1.40001
1.40001
1.40001
1.40001
1.40001
1.40001
1.40001
1.40001
1.40001
1.40001
1.40001
1.40001
1.40001
1.40001
1.40001
1.40001
1.40001
1.40001
1.40001
1.40001
1.40001
3.35668
5.3088
5.41323
5.43605
5.45846
5.4759
5.48764
5.49438
5.49901
5.50345
5.50902
5.51636
5.52552
5.53541
5.54556
5.55595
5.56688
5.5789
5.59236
5.6064
5.61935
5.62976
5.63745
5.6435
5.64982
5.65829
5.66935
5.6812
5.69115
5.69774
5.70173
5.70579
5.71245
5.72268
5.73462
5.74657
5.75741
5.76602
5.77304
5.77991
5.78771
5.79692
5.80674
5.81589
5.82326
5.8283
5.83084
5.83196
5.8322
5.83251
5.83304
5.83516
5.83984
5.84777
5.85605
5.86254
5.86827
5.8737
5.88052
5.8902
5.90117
5.91114
5.91723
5.91864
5.91633
5.9132
5.9122
5.91469
5.9202
5.92669
5.93243
5.93638
5.93862
5.94041
5.94294
5.94643
5.94982
5.95169
5.95159
5.94993
5.94738
5.94465
5.94171
5.93733
5.92909
5.91428
5.892
5.86575
5.84311
5.83032
5.8277
1.40001
1.40001
1.40001
1.40001
1.40001
1.40001
1.40001
1.40001
1.40001
1.40001
1.40001
1.40001
1.40001
1.40001
1.40001
1.40001
1.40001
1.40001
1.40001
1.40001
1.40001
1.40001
1.40001
1.40001
1.40001
1.40001
1.40001
1.40001
1.40001
1.40001
1.40001
1.40001
1.40001
1.40001
1.40001
1.40001
1.40001
1.40001
1.40001
1.40001
1.40001
1.40001
1.40001
1.40001
1.40001
1.40001
1.40001
1.40001
1.40001
1.40001
1.40001
1.40001
1.40001
1.40001
1.40001
1.40001
1.40001
1.40001
1.40001
1.40001
1.40001
1.40001
1.40001
1.40001
1.40001
1.40001
1.40001
1.40001
1.40001
1.40001
1.40001
1.40001
1.40001
1.40001
1.40001
1.40001
1.40001
1.40001
1.40001
1.40001
1.40001
1.40001
1.40001
1.40001
1.40001
1.40001
1.40001
1.40001
1.40001
1.40001
1.40001
1.40001
1.40001
1.40001
1.40001
1.40001
1.40001
1.40001
1.40001
1.40001
1.40001
3.22417
5.28695
5.40624
5.4272
5.4513
5.47093
5.48528
5.49393
5.49913
5.50349
5.50896
5.51658
5.52569
5.53565
5.54574
5.55577
5.56596
5.57714
5.59
5.60396
5.61742
5.62858
5.63709
5.64353
5.64969
5.6572
5.66695
5.67794
5.68804
5.69578
5.70145
5.70696
5.71408
5.72353
5.73387
5.74444
5.75458
5.76322
5.77056
5.77754
5.78514
5.79392
5.80333
5.81242
5.82018
5.82561
5.82828
5.82942
5.82978
5.83034
5.83123
5.83349
5.8382
5.84548
5.85303
5.85959
5.86608
5.87231
5.87966
5.88904
5.89919
5.90858
5.91432
5.91562
5.91327
5.91001
5.90912
5.91187
5.91804
5.92521
5.93113
5.93457
5.9358
5.93646
5.93851
5.94253
5.94698
5.9497
5.94986
5.94782
5.94444
5.94099
5.93779
5.93369
5.92583
5.91119
5.88884
5.86257
5.84017
5.82787
5.82565
1.40001
1.40001
1.40001
1.40001
1.40001
1.40001
1.40001
1.40001
1.40001
1.40001
1.40001
1.40001
1.40001
1.40001
1.40001
1.40001
1.40001
1.40001
1.40001
1.40001
1.40001
1.40001
1.40001
1.40001
1.40001
1.40001
1.40001
1.40001
1.40001
1.40001
1.40001
1.40001
1.40001
1.40001
1.40001
1.40001
1.40001
1.40001
1.40001
1.40001
1.40001
1.40001
1.40001
1.40001
1.40001
1.40001
1.40001
1.40001
1.40001
1.40001
1.40001
1.40001
1.40001
1.40001
1.40001
1.40001
1.40001
1.40001
1.40001
1.40001
1.40001
1.40001
1.40001
1.40001
1.40001
1.40001
1.40001
1.40001
1.40001
1.40001
1.40001
1.40001
1.40001
1.40001
1.40001
1.40001
1.40001
1.40001
1.40001
1.40001
1.40001
1.40001
1.40001
1.40001
1.40001
1.40001
1.40001
1.40001
1.40001
1.40001
1.40001
1.40001
1.40001
1.40001
1.40001
1.40001
1.40001
1.40001
1.40001
1.40001
1.40001
3.08408
5.26239
5.40053
5.41848
5.44342
5.4648
5.48156
5.49217
5.49823
5.50267
5.50876
5.51746
5.52706
5.53689
5.54653
5.55583
5.56494
5.57489
5.58693
5.60116
5.61551
5.62754
5.63664
5.64322
5.64889
5.65535
5.66416
5.67493
5.6857
5.69464
5.70162
5.70803
5.71505
5.72342
5.7323
5.74208
5.75192
5.76047
5.76774
5.77445
5.78169
5.79027
5.79976
5.80934
5.81769
5.82298
5.82496
5.82552
5.82595
5.82742
5.82959
5.83279
5.83774
5.84388
5.84974
5.85579
5.86296
5.87061
5.87933
5.88885
5.89802
5.90606
5.91076
5.91155
5.90926
5.90637
5.90599
5.90906
5.91567
5.92332
5.9294
5.93252
5.93304
5.9328
5.9343
5.93854
5.94375
5.94723
5.94773
5.94539
5.94134
5.93724
5.93374
5.92987
5.92239
5.90798
5.88563
5.8593
5.83701
5.82504
5.82302
1.40001
1.40001
1.40001
1.40001
1.40001
1.40001
1.40001
1.40001
1.40001
1.40001
1.40001
1.40001
1.40001
1.40001
1.40001
1.40001
1.40001
1.40001
1.40001
1.40001
1.40001
1.40001
1.40001
1.40001
1.40001
1.40001
1.40001
1.40001
1.40001
1.40001
1.40001
1.40001
1.40001
1.40001
1.40001
1.40001
1.40001
1.40001
1.40001
1.40001
1.40001
1.40001
1.40001
1.40001
1.40001
1.40001
1.40001
1.40001
1.40001
1.40001
1.40001
1.40001
1.40001
1.40001
1.40001
1.40001
1.40001
1.40001
1.40001
1.40001
1.40001
1.40001
1.40001
1.40001
1.40001
1.40001
1.40001
1.40001
1.40001
1.40001
1.40001
1.40001
1.40001
1.40001
1.40001
1.40001
1.40001
1.40001
1.40001
1.40001
1.40001
1.40001
1.40001
1.40001
1.40001
1.40001
1.40001
1.40001
1.40001
1.40001
1.40001
1.40001
1.40001
1.40001
1.40001
1.40001
1.40001
1.40001
1.40001
1.40001
1.40001
2.93271
5.23595
5.3969
5.41124
5.43661
5.4588
5.47739
5.48982
5.49684
5.50152
5.50818
5.51785
5.52824
5.53829
5.54738
5.55557
5.56329
5.5718
5.58315
5.59821
5.6139
5.62705
5.63655
5.64288
5.64761
5.653
5.66137
5.67254
5.68423
5.69415
5.70191
5.70838
5.7146
5.72186
5.73014
5.74018
5.75021
5.7583
5.76472
5.7703
5.77672
5.78525
5.79559
5.8065
5.81589
5.82086
5.82143
5.82058
5.82046
5.82313
5.82749
5.83256
5.83834
5.84322
5.84689
5.8518
5.85893
5.86816
5.87897
5.88913
5.89754
5.90374
5.90677
5.90657
5.90434
5.90223
5.90288
5.90666
5.91347
5.92111
5.92707
5.92995
5.93012
5.92948
5.93059
5.93474
5.94021
5.94408
5.94483
5.94237
5.93796
5.93345
5.92974
5.92599
5.91878
5.90456
5.88221
5.85582
5.83356
5.82179
5.81986
1.40001
1.40001
1.40001
1.40001
1.40001
1.40001
1.40001
1.40001
1.40001
1.40001
1.40001
1.40001
1.40001
1.40001
1.40001
1.40001
1.40001
1.40001
1.40001
1.40001
1.40001
1.40001
1.40001
1.40001
1.40001
1.40001
1.40001
1.40001
1.40001
1.40001
1.40001
1.40001
1.40001
1.40001
1.40001
1.40001
1.40001
1.40001
1.40001
1.40001
1.40001
1.40001
1.40001
1.40001
1.40001
1.40001
1.40001
1.40001
1.40001
1.40001
1.40001
1.40001
1.40001
1.40001
1.40001
1.40001
1.40001
1.40001
1.40001
1.40001
1.40001
1.40001
1.40001
1.40001
1.40001
1.40001
1.40001
1.40001
1.40001
1.40001
1.40001
1.40001
1.40001
1.40001
1.40001
1.40001
1.40001
1.40001
1.40001
1.40001
1.40001
1.40001
1.40001
1.40001
1.40001
1.40001
1.40001
1.40001
1.40001
1.40001
1.40001
1.40001
1.40001
1.40001
1.40001
1.40001
1.40001
1.40001
1.40001
1.40001
1.40001
2.76853
5.2069
5.39747
5.40758
5.43185
5.45395
5.47327
5.48693
5.49462
5.49954
5.50649
5.51735
5.52908
5.53985
5.54868
5.55557
5.56163
5.56855
5.57922
5.59531
5.61258
5.62691
5.63688
5.64278
5.64636
5.6507
5.65894
5.67068
5.68316
5.69375
5.70177
5.70759
5.71271
5.71921
5.72804
5.73911
5.74941
5.7569
5.76189
5.76553
5.77051
5.77898
5.79081
5.80387
5.81453
5.81936
5.81815
5.81505
5.81358
5.81704
5.82417
5.83226
5.83938
5.8432
5.84508
5.84822
5.85441
5.8648
5.87773
5.8892
5.89735
5.90159
5.90248
5.90093
5.89868
5.89779
5.8999
5.90477
5.91161
5.91864
5.92398
5.9266
5.9268
5.92625
5.92733
5.93122
5.93639
5.94014
5.94093
5.93857
5.93417
5.92965
5.92595
5.92223
5.91508
5.9009
5.87852
5.85208
5.82985
5.81823
5.81639
1.40001
1.40001
1.40001
1.40001
1.40001
1.40001
1.40001
1.40001
1.40001
1.40001
1.40001
1.40001
1.40001
1.40001
1.40001
1.40001
1.40001
1.40001
1.40001
1.40001
1.40001
1.40001
1.40001
1.40001
1.40001
1.40001
1.40001
1.40001
1.40001
1.40001
1.40001
1.40001
1.40001
1.40001
1.40001
1.40001
1.40001
1.40001
1.40001
1.40001
1.40001
1.40001