/*--------------------------------*- C++ -*----------------------------------*\
  =========                 |
  \\      /  F ield         | OpenFOAM: The Open Source CFD Toolbox
   \\    /   O peration     | Website:  https://openfoam.org
    \\  /    A nd           | Version:  7
     \\/     M anipulation  |
\*---------------------------------------------------------------------------*/
FoamFile
{
    version     2.0;
    format      ascii;
    class       volScalarField;
    location    "3.1";
    object      p;
}
// * * * * * * * * * * * * * * * * * * * * * * * * * * * * * * * * * * * * * //

dimensions      [1 -1 -2 0 0 0 0];

internalField   nonuniform List<scalar> 
64512
(
1
1
1
1
1
1
1
1
1
1
1
1
1
1
1
1
1
1
1
1
1
1
1
1
1
1
1
1
1
1
1
1
1
1
1
1
1
1
1
1
1
1
1
1
1
1
1
1
1
5.98674
10.3843
10.4483
10.5027
10.5652
10.6271
10.6871
10.7444
10.7995
10.8527
10.9052
10.9576
11.0102
11.0627
11.1127
11.1584
11.2003
11.24
11.2803
11.325
11.3732
11.4212
11.4656
11.5063
11.5456
11.5852
11.6239
11.6608
11.6959
11.7278
11.7559
11.7814
11.8058
11.8298
11.8536
11.8769
11.8991
11.92
11.9397
11.9587
11.9773
11.9951
12.0108
12.0239
12.0332
12.0391
12.0435
1
1
1
1
1
1
1
1
1
1
1
1
1
1
1
1
1
1
1
1
1
1
1
1
1
1
1
1
1
1
1
1
1
1
1
1
1
1
1
1
1
1
1
1
1
1
1
1
1
5.93622
10.3613
10.4514
10.5046
10.566
10.627
10.6868
10.7439
10.7987
10.8518
10.904
10.9559
11.008
11.0602
11.1106
11.1571
11.1994
11.2392
11.2796
11.3239
11.3716
11.4192
11.4637
11.5048
11.5442
11.5837
11.6221
11.6586
11.6934
11.7251
11.7532
11.779
11.8036
11.8278
11.8516
11.8746
11.8965
11.9171
11.9368
11.9558
11.9744
11.992
12.0073
12.02
12.0292
12.0352
12.0398
1
1
1
1
1
1
1
1
1
1
1
1
1
1
1
1
1
1
1
1
1
1
1
1
1
1
1
1
1
1
1
1
1
1
1
1
1
1
1
1
1
1
1
1
1
1
1
1
1
5.83729
10.342
10.4517
10.5035
10.5638
10.624
10.6837
10.7409
10.7957
10.8487
10.9008
10.9524
11.004
11.0559
11.1067
11.154
11.197
11.2371
11.2775
11.3214
11.3685
11.4157
11.4602
11.5019
11.5415
11.581
11.6189
11.6548
11.6892
11.7207
11.749
11.775
11.8001
11.8245
11.8482
11.8709
11.8923
11.9126
11.9321
11.9512
11.9697
11.987
12.0018
12.014
12.023
12.0291
12.034
1
1
1
1
1
1
1
1
1
1
1
1
1
1
1
1
1
1
1
1
1
1
1
1
1
1
1
1
1
1
1
1
1
1
1
1
1
1
1
1
1
1
1
1
1
1
1
1
1
5.69432
10.316
10.4499
10.501
10.5608
10.6205
10.6801
10.7372
10.7916
10.8443
10.8961
10.9474
10.9986
11.0503
11.1012
11.1492
11.1929
11.2332
11.2738
11.3173
11.3637
11.4106
11.455
11.4973
11.5372
11.5766
11.6138
11.649
11.6828
11.7142
11.7426
11.7692
11.7948
11.8194
11.843
11.8652
11.886
11.9059
11.9253
11.9445
11.9629
11.9796
11.9936
12.005
12.0136
12.0198
12.025
1
1
1
1
1
1
1
1
1
1
1
1
1
1
1
1
1
1
1
1
1
1
1
1
1
1
1
1
1
1
1
1
1
1
1
1
1
1
1
1
1
1
1
1
1
1
1
1
1
5.50866
10.2831
10.4451
10.4963
10.5564
10.6158
10.6752
10.7323
10.7862
10.8384
10.89
10.9413
10.9925
11.0439
11.0948
11.1431
11.1872
11.2276
11.2684
11.3116
11.3572
11.4038
11.4481
11.4908
11.5308
11.5701
11.6066
11.6411
11.6744
11.7056
11.7343
11.7615
11.7876
11.8126
11.836
11.8576
11.8779
11.8974
11.9169
11.9361
11.9543
11.9701
11.9829
11.9933
12.0014
12.0077
12.0132
1
1
1
1
1
1
1
1
1
1
1
1
1
1
1
1
1
1
1
1
1
1
1
1
1
1
1
1
1
1
1
1
1
1
1
1
1
1
1
1
1
1
1
1
1
1
1
1
1
5.28145
10.2418
10.4372
10.4888
10.5501
10.6095
10.6691
10.7264
10.7801
10.8318
10.8832
10.9344
10.9855
11.0369
11.0875
11.1359
11.1801
11.2206
11.2615
11.3044
11.3492
11.3957
11.4395
11.4826
11.5225
11.5615
11.5974
11.6313
11.664
11.695
11.724
11.7517
11.7783
11.8035
11.8266
11.8477
11.8675
11.8869
11.9066
11.926
11.9438
11.9586
11.9701
11.9793
11.9869
11.993
11.9987
1
1
1
1
1
1
1
1
1
1
1
1
1
1
1
1
1
1
1
1
1
1
1
1
1
1
1
1
1
1
1
1
1
1
1
1
1
1
1
1
1
1
1
1
1
1
1
1
1
5.01335
10.1893
10.4279
10.4795
10.5425
10.6022
10.6618
10.7193
10.7729
10.8243
10.8754
10.9266
10.9777
11.029
11.0792
11.1274
11.1719
11.2121
11.2529
11.2954
11.3393
11.3857
11.429
11.4721
11.5118
11.5506
11.5859
11.6193
11.6515
11.6824
11.7115
11.7395
11.7664
11.7916
11.8145
11.8351
11.8546
11.874
11.894
11.9135
11.9308
11.9447
11.955
11.9633
11.9705
11.9767
11.9825
1
1
1
1
1
1
1
1
1
1
1
1
1
1
1
1
1
1
1
1
1
1
1
1
1
1
1
1
1
1
1
1
1
1
1
1
1
1
1
1
1
1
1
1
1
1
1
1
1
4.70598
10.1218
10.4185
10.4691
10.534
10.5941
10.6535
10.7112
10.7649
10.8159
10.8666
10.9176
10.9687
11.02
11.0699
11.1178
11.1625
11.2026
11.243
11.2849
11.3279
11.374
11.4166
11.4593
11.4986
11.5372
11.5721
11.6051
11.637
11.6676
11.6966
11.7246
11.7517
11.7769
11.7996
11.8201
11.8396
11.8594
11.8797
11.8992
11.916
11.9287
11.9378
11.9452
11.9519
11.9579
11.9635
1
1
1
1
1
1
1
1
1
1
1
1
1
1
1
1
1
1
1
1
1
1
1
1
1
1
1
1
1
1
1
1
1
1
1
1
1
1
1
1
1
1
1
1
1
1
1
1
1
4.36191
10.0339
10.4107
10.4588
10.5252
10.5856
10.645
10.7025
10.7566
10.8071
10.857
10.9075
10.9585
11.0094
11.0591
11.1064
11.1513
11.1914
11.2313
11.2727
11.3146
11.3602
11.402
11.4443
11.4833
11.5216
11.5563
11.5891
11.6205
11.6508
11.6795
11.7073
11.7341
11.7591
11.7816
11.8022
11.822
11.8422
11.8627
11.8819
11.8978
11.9095
11.9177
11.9244
11.9308
11.9364
11.9416
1
1
1
1
1
1
1
1
1
1
1
1
1
1
1
1
1
1
1
1
1
1
1
1
1
1
1
1
1
1
1
1
1
1
1
1
1
1
1
1
1
1
1
1
1
1
1
1
1
3.98582
9.91981
10.4043
10.45
10.5174
10.5773
10.6363
10.6932
10.7476
10.7982
10.8477
10.8977
10.9485
10.999
11.0481
11.0946
11.1392
11.1796
11.219
11.26
11.3009
11.3454
11.3865
11.428
11.4666
11.5046
11.539
11.5715
11.6025
11.6324
11.6607
11.6879
11.7142
11.7389
11.7614
11.7822
11.8024
11.823
11.8434
11.8619
11.8769
11.8877
11.8952
11.9016
11.9076
11.9127
11.9174
1
1
1
1
1
1
1
1
1
1
1
1
1
1
1
1
1
1
1
1
1
1
1
1
1
1
1
1
1
1
1
1
1
1
1
1
1
1
1
1
1
1
1
1
1
1
1
1
1
3.58725
9.77024
10.396
10.4409
10.5077
10.567
10.6255
10.6817
10.7358
10.7866
10.8358
10.8853
10.9356
10.9855
11.0339
11.0796
11.1237
11.1644
11.2033
11.244
11.2842
11.3278
11.3685
11.4093
11.4477
11.4855
11.5199
11.5523
11.5829
11.6124
11.64
11.6665
11.6921
11.7162
11.7386
11.7597
11.7805
11.8011
11.8211
11.8387
11.8526
11.8627
11.87
11.8762
11.8819
11.8865
11.8909
1
1
1
1
1
1
1
1
1
1
1
1
1
1
1
1
1
1
1
1
1
1
1
1
1
1
1
1
1
1
1
1
1
1
1
1
1
1
1
1
1
1
1
1
1
1
1
1
1
3.18087
9.56937
10.3897
10.4328
10.4973
10.5556
10.6134
10.6687
10.722
10.7729
10.8217
10.8705
10.9201
10.9695
11.0172
11.0621
11.1054
11.1465
11.1848
11.225
11.2646
11.3071
11.3476
11.3876
11.4259
11.4637
11.4981
11.5305
11.5608
11.5898
11.6168
11.6425
11.6672
11.6908
11.7133
11.7348
11.7561
11.7768
11.796
11.8124
11.8253
11.8348
11.842
11.8482
11.8537
11.8578
11.8617
1
1
1
1
1
1
1
1
1
1
1
1
1
1
1
1
1
1
1
1
1
1
1
1
1
1
1
1
1
1
1
1
1
1
1
1
1
1
1
1
1
1
1
1
1
1
1
1
1
2.77155
9.30927
10.3866
10.4251
10.4885
10.5457
10.6021
10.6562
10.7084
10.759
10.8079
10.8559
10.9044
10.9529
10.9997
11.0437
11.0858
11.127
11.165
11.2048
11.2443
11.2854
11.3259
11.3651
11.4031
11.4404
11.4747
11.5067
11.5366
11.565
11.5913
11.616
11.6399
11.663
11.6855
11.7075
11.729
11.7494
11.7676
11.7827
11.7945
11.8036
11.8108
11.8171
11.8226
11.8264
11.8301
1
1
1
1
1
1
1
1
1
1
1
1
1
1
1
1
1
1
1
1
1
1
1
1
1
1
1
1
1
1
1
1
1
1
1
1
1
1
1
1
1
1
1
1
1
1
1
1
1
2.3611
8.9793
10.394
10.4187
10.4791
10.5332
10.5892
10.6427
10.6937
10.7439
10.7927
10.8406
10.8884
10.936
10.9819
11.0249
11.0656
11.1064
11.1445
11.1837
11.2227
11.2621
11.3022
11.3402
11.3777
11.4144
11.4484
11.48
11.5096
11.5374
11.563
11.5868
11.6098
11.6325
11.655
11.6773
11.6989
11.7187
11.7358
11.7497
11.7605
11.7691
11.7764
11.7827
11.7882
11.7919
11.7955
1
1
1
1
1
1
1
1
1
1
1
1
1
1
1
1
1
1
1
1
1
1
1
1
1
1
1
1
1
1
1
1
1
1
1
1
1
1
1
1
1
1
1
1
1
1
1
1
1
1.96833
8.57274
10.4067
10.4133
10.4708
10.5201
10.5738
10.6267
10.6781
10.7273
10.7757
10.8234
10.8706
10.9175
10.9627
11.005
11.0446
11.0847
11.1232
11.1616
11.2002
11.2379
11.2774
11.3142
11.3512
11.387
11.4206
11.4516
11.4804
11.5074
11.5321
11.555
11.5771
11.5993
11.6216
11.6439
11.6653
11.6844
11.7004
11.7131
11.7231
11.7313
11.7384
11.7447
11.7503
11.7539
11.7575
1
1
1
1
1
1
1
1
1
1
1
1
1
1
1
1
1
1
1
1
1
1
1
1
1
1
1
1
1
1
1
1
1
1
1
1
1
1
1
1
1
1
1
1
1
1
1
1
1
1.61351
8.08899
10.4134
10.4055
10.4576
10.5035
10.5569
10.6092
10.6599
10.7084
10.756
10.8036
10.8505
10.8968
10.9415
10.9835
11.0225
11.0617
11.1005
11.1381
11.1763
11.2124
11.2511
11.287
11.3233
11.3581
11.3909
11.421
11.4488
11.4746
11.4984
11.5204
11.5419
11.5634
11.5853
11.6071
11.6279
11.6462
11.6613
11.6731
11.6824
11.6899
11.6967
11.7028
11.7083
11.7118
11.7152
1
1
1
1
1
1
1
1
1
1
1
1
1
1
1
1
1
1
1
1
1
1
1
1
1
1
1
1
1
1
1
1
1
1
1
1
1
1
1
1
1
1
1
1
1
1
1
1
1
1.30984
7.52978
10.4055
10.3988
10.4399
10.4826
10.533
10.5847
10.6352
10.6848
10.7335
10.7816
10.8284
10.8741
10.9181
10.9598
10.9986
11.0366
11.0754
11.1125
11.1506
11.1857
11.2232
11.2583
11.2938
11.3273
11.3591
11.388
11.4147
11.4393
11.4621
11.4834
11.5041
11.5249
11.5459
11.5666
11.5863
11.6037
11.618
11.6291
11.6378
11.6447
11.6512
11.6569
11.662
11.6652
11.6684
1
1
1
1
1
1
1
1
1
1
1
1
1
1
1
1
1
1
1
1
1
1
1
1
1
1
1
1
1
1
1
1
1
1
1
1
1
1
1
1
1
1
1
1
1
1
1
1
1
1.06475
6.93025
10.3458
10.3617
10.4019
10.453
10.5087
10.5635
10.6148
10.6634
10.7108
10.7573
10.803
10.8477
10.8909
10.9321
10.9709
11.0082
11.0468
11.0839
11.1219
11.1569
11.193
11.2273
11.2619
11.2941
11.3248
11.3526
11.378
11.4015
11.4233
11.4438
11.4637
11.4834
11.5029
11.5222
11.5405
11.5568
11.5704
11.581
11.5892
11.5955
11.6015
11.6065
11.6107
11.6132
11.6157
1
1
1
1
1
1
1
1
1
1
1
1
1
1
1
1
1
1
1
1
1
1
1
1
1
1
1
1
1
1
1
1
1
1
1
1
1
1
1
1
1
1
1
1
1
1
1
1
1
1.0016
6.21565
10.2293
10.3148
10.3679
10.4238
10.477
10.5305
10.5829
10.6328
10.6799
10.7255
10.7704
10.8146
10.8577
10.8995
10.9392
10.9763
11.0146
11.0517
11.0896
11.1251
11.16
11.1938
11.2274
11.2585
11.2879
11.3144
11.3386
11.3608
11.3815
11.4012
11.4201
11.4386
11.4565
11.4738
11.4902
11.5051
11.5178
11.5278
11.5356
11.5414
11.5468
11.5509
11.5541
11.5556
11.5573
1
1
1
1
1
1
1
1
1
1
1
1
1
1
1
1
1
1
1
1
1
1
1
1
1
1
1
1
1
1
1
1
1
1
1
1
1
1
1
1
1
1
1
1
1
1
1
1
1
1
5.42019
10.0754
10.258
10.3312
10.399
10.4575
10.5128
10.5645
10.6123
10.6568
10.7003
10.7433
10.7859
10.8276
10.8684
10.9069
10.9431
10.9801
11.0166
11.0537
11.0896
11.1236
11.157
11.1896
11.2196
11.2478
11.2731
11.2961
11.317
11.3366
11.3553
11.3733
11.3903
11.4063
11.4213
11.4355
11.4486
11.4601
11.4695
11.4769
11.4823
11.4867
11.4894
11.4911
11.4909
11.4914
1
1
1
1
1
1
1
1
1
1
1
1
1
1
1
1
1
1
1
1
1
1
1
1
1
1
1
1
1
1
1
1
1
1
1
1
1
1
1
1
1
1
1
1
1
1
1
1
1
1
4.57888
9.88162
10.2277
10.3049
10.3689
10.4288
10.4856
10.5388
10.588
10.6328
10.6754
10.7171
10.7577
10.7968
10.8347
10.8721
10.9062
10.9415
10.9775
11.0136
11.0499
11.0834
11.1164
11.1479
11.1771
11.2041
11.2285
11.2503
11.27
11.2882
11.3057
11.3223
11.3377
11.3517
11.3643
11.3759
11.3866
11.3964
11.4047
11.4115
11.4164
11.4198
11.4209
11.4209
11.4192
11.4186
1
1
1
1
1
1
1
1
1
1
1
1
1
1
1
1
1
1
1
1
1
1
1
1
1
1
1
1
1
1
1
1
1
1
1
1
1
1
1
1
1
1
1
1
1
1
1
1
1
1
3.72671
9.59292
10.2079
10.2864
10.3579
10.4156
10.4667
10.5157
10.5615
10.6041
10.6455
10.6863
10.7265
10.7653
10.8022
10.8381
10.8723
10.904
10.9378
10.9714
11.0069
11.0401
11.072
11.1021
11.1305
11.1566
11.1801
11.2011
11.2195
11.2362
11.252
11.267
11.2807
11.2927
11.3028
11.3115
11.3193
11.3269
11.3338
11.3396
11.3436
11.3452
11.3442
11.3418
11.3381
11.3361
1
1
1
1
1
1
1
1
1
1
1
1
1
1
1
1
1
1
1
1
1
1
1
1
1
1
1
1
1
1
1
1
1
1
1
1
1
1
1
1
1
1
1
1
1
1
1
1
1
1
2.92877
9.17326
10.224
10.2789
10.3391
10.3887
10.4412
10.4937
10.5406
10.5822
10.6209
10.6585
10.6958
10.7319
10.7671
10.8015
10.8353
10.867
10.8983
10.9291
10.9619
10.9934
11.024
11.0525
11.0798
11.105
11.1277
11.1479
11.1651
11.18
11.1938
11.2068
11.2186
11.2284
11.2359
11.2413
11.2458
11.2505
11.2549
11.2589
11.2608
11.2601
11.2573
11.2529
11.2479
11.2451
1
1
1
1
1
1
1
1
1
1
1
1
1
1
1
1
1
1
1
1
1
1
1
1
1
1
1
1
1
1
1
1
1
1
1
1
1
1
1
1
1
1
1
1
1
1
1
1
1
1
2.1375
8.56817
10.2969
10.286
10.3367
10.3799
10.4243
10.4675
10.5099
10.5523
10.5924
10.6307
10.6676
10.7023
10.7345
10.7659
10.797
10.8276
10.8569
10.8854
10.9148
10.9458
10.9729
10.9995
11.0252
11.0493
11.0711
11.0903
11.1062
11.1195
11.1311
11.1418
11.1512
11.1586
11.1634
11.1651
11.1661
11.1674
11.1689
11.1702
11.169
11.165
11.1587
11.1511
11.144
11.1397
1
1
1
1
1
1
1
1
1
1
1
1
1
1
1
1
1
1
1
1
1
1
1
1
1
1
1
1
1
1
1
1
1
1
1
1
1
1
1
1
1
1
1
1
1
1
1
1
1
1
1.43677
7.88587
10.3929
10.2741
10.3007
10.3388
10.3865
10.435
10.4816
10.5251
10.564
10.6007
10.6362
10.6703
10.7019
10.7316
10.7607
10.7891
10.8161
10.8421
10.867
10.8936
10.9205
10.9444
10.9674
10.9898
11.0101
11.0278
11.0424
11.054
11.0635
11.0715
11.0782
11.0828
11.084
11.0819
11.0789
11.076
11.073
11.0692
11.0631
11.0544
11.0445
11.0346
11.0265
11.0219
1
1
1
1
1
1
1
1
1
1
1
1
1
1
1
1
1
1
1
1
1
1
1
1
1
1
1
1
1
1
1
1
1
1
1
1
1
1
1
1
1
1
1
1
1
1
1
1
1
1
1.02703
7.06546
10.3058
10.2172
10.2629
10.3065
10.3518
10.3973
10.4461
10.4926
10.5331
10.5694
10.6038
10.637
10.6673
10.6953
10.7225
10.7493
10.7748
10.7989
10.8212
10.843
10.866
10.8873
10.9075
10.9273
10.9452
10.9608
10.9737
10.9836
10.9909
10.9962
10.9997
11.0005
10.9977
10.9915
10.9836
10.9756
10.967
10.9577
10.9458
10.9312
10.9151
10.8994
10.887
10.8793
1
1
1
1
1
1
1
1
1
1
1
1
1
1
1
1
1
1
1
1
1
1
1
1
1
1
1
1
1
1
1
1
1
1
1
1
1
1
1
1
1
1
1
1
1
1
1
1
1
1
1.00011
5.95167
10.0389
10.1342
10.2054
10.2608
10.316
10.3657
10.41
10.4511
10.4924
10.5329
10.5685
10.6011
10.6308
10.6578
10.6832
10.7078
10.7315
10.7541
10.7746
10.7936
10.8134
10.8314
10.8473
10.863
10.8775
10.89
10.9003
10.9081
10.913
10.9149
10.9148
10.9113
10.9038
10.8927
10.8794
10.8649
10.8489
10.8309
10.8092
10.7846
10.76
10.7388
10.7239
10.7165
1
1
1
1
1
1
1
1
1
1
1
1
1
1
1
1
1
1
1
1
1
1
1
1
1
1
1
1
1
1
1
1
1
1
1
1
1
1
1
1
1
1
1
1
1
1
1
1
1
1
0.999999
4.86985
9.86128
10.0631
10.1639
10.2384
10.2886
10.3336
10.38
10.422
10.4613
10.4938
10.5285
10.5615
10.591
10.6172
10.641
10.6637
10.6858
10.7072
10.7264
10.743
10.7597
10.7753
10.7878
10.7983
10.808
10.8167
10.8237
10.8286
10.8299
10.8284
10.8238
10.8154
10.8027
10.7857
10.7655
10.7428
10.7172
10.6887
10.6563
10.6215
10.586
10.5512
10.5225
10.5034
1
1
1
1
1
1
1
1
1
1
1
1
1
1
1
1
1
1
1
1
1
1
1
1
1
1
1
1
1
1
1
1
1
1
1
1
1
1
1
1
1
1
1
1
1
1
1
1
1
1
1
3.75838
9.42095
10.0642
10.1488
10.2078
10.2598
10.3033
10.3463
10.3829
10.4176
10.4539
10.4859
10.5161
10.5454
10.5718
10.5953
10.617
10.6378
10.658
10.6762
10.6912
10.705
10.7175
10.7267
10.7329
10.7378
10.7414
10.7445
10.7455
10.7421
10.7363
10.7266
10.7127
10.6938
10.6698
10.6412
10.6085
10.5713
10.529
10.4799
10.4241
10.3651
10.3104
10.2678
10.2503
1
1
1
1
1
1
1
1
1
1
1
1
1
1
1
1
1
1
1
1
1
1
1
1
1
1
1
1
1
1
1
1
1
1
1
1
1
1
1
1
1
1
1
1
1
1
1
1
1
1
1
2.69312
8.79297
10.0944
10.1356
10.187
10.2368
10.2835
10.3189
10.3514
10.3823
10.4122
10.4418
10.4709
10.4983
10.5232
10.5461
10.5671
10.587
10.6061
10.6233
10.6371
10.6485
10.6578
10.6637
10.6661
10.6668
10.6657
10.6639
10.6592
10.6512
10.64
10.6243
10.6039
10.5778
10.5454
10.5067
10.4619
10.4094
10.3486
10.2781
10.1999
10.1172
10.0343
9.94768
9.87412
1
1
1
1
1
1
1
1
1
1
1
1
1
1
1
1
1
1
1
1
1
1
1
1
1
1
1
1
1
1
1
1
1
1
1
1
1
1
1
1
1
1
1
1
1
1
1
1
1
1
1
1.69926
8.09059
10.2189
10.1297
10.1659
10.2051
10.2434
10.2801
10.316
10.3475
10.3757
10.403
10.4278
10.451
10.4732
10.4942
10.5139
10.5328
10.5507
10.5668
10.5798
10.5894
10.5958
10.5985
10.5976
10.5941
10.5884
10.5808
10.5702
10.5566
10.5391
10.5168
10.4891
10.4546
10.4126
10.362
10.3025
10.2321
10.1498
10.0528
9.93788
9.79737
9.63161
9.46917
9.35291
1
1
1
1
1
1
1
1
1
1
1
1
1
1
1
1
1
1
1
1
1
1
1
1
1
1
1
1
1
1
1
1
1
1
1
1
1
1
1
1
1
1
1
1
1
1
1
1
1
1
1
1.06342
7.02961
10.2401
10.1368
10.1356
10.1567
10.2021
10.243
10.2788
10.3096
10.3367
10.3628
10.3872
10.4085
10.4265
10.4437
10.461
10.4777
10.4935
10.5079
10.5197
10.5275
10.5315
10.5312
10.5275
10.5201
10.5099
10.4962
10.4794
10.4592
10.435
10.4055
10.3695
10.3257
10.2725
10.2082
10.1319
10.0407
9.93125
9.797
9.63025
9.42621
9.18283
8.92117
8.75091
1
1
1
1
1
1
1
1
1
1
1
1
1
1
1
1
1
1
1
1
1
1
1
1
1
1
1
1
1
1
1
1
1
1
1
1
1
1
1
1
1
1
1
1
1
1
1
1
1
1
1
1.00033
5.72741
9.8993
9.97014
10.053
10.1125
10.161
10.2019
10.2378
10.2691
10.296
10.3206
10.3435
10.3641
10.3808
10.3948
10.4083
10.4219
10.435
10.4467
10.4567
10.4626
10.4643
10.4612
10.4548
10.4444
10.4294
10.4099
10.3863
10.3587
10.3271
10.29
10.2455
10.1914
10.126
10.0468
9.95177
9.83671
9.69653
9.5221
9.30184
9.00677
8.56731
7.72652
5.76472
1
1
1
1
1
1
1
1
1
1
1
1
1
1
1
1
1
1
1
1
1
1
1
1
1
1
1
1
1
1
1
1
1
1
1
1
1
1
1
1
1
1
1
1
1
1
1
1
1
1
1
0.999996
4.35553
9.53768
9.95128
10.0417
10.0859
10.1227
10.1566
10.192
10.2243
10.252
10.2766
10.2987
10.3182
10.3341
10.3463
10.3566
10.3666
10.3765
10.3853
10.3927
10.3961
10.3952
10.3893
10.3797
10.3663
10.3471
10.3223
10.2918
10.2567
10.2172
10.172
10.1185
10.0536
9.97517
9.87979
9.76477
9.62459
9.45146
9.23198
8.94083
8.5343
7.89318
6.9288
4.72523
1
1
1
1
1
1
1
1
1
1
1
1
1
1
1
1
1
1
1
1
1
1
1
1
1
1
1
1
1
1
1
1
1
1
1
1
1
1
1
1
1
1
1
1
1
1
1
1
1
1
1
0.999999
3.04599
8.94974
9.95543
10.0193
10.0699
10.0993
10.1243
10.151
10.1793
10.2062
10.2309
10.2524
10.2704
10.2851
10.2958
10.3038
10.3106
10.3173
10.3232
10.3275
10.3283
10.3244
10.3154
10.3023
10.2853
10.2623
10.2328
10.196
10.1535
10.1055
10.0514
9.98853
9.91278
9.8213
9.70975
9.5746
9.40909
9.20367
8.93994
8.59306
8.09909
7.44339
6.17929
4.37392
1
1
1
1
1
1
1
1
1
1
1
1
1
1
1
1
1
1
1
1
1
1
1
1
1
1
1
1
1
1
1
1
1
1
1
1
1
1
1
1
1
1
1
1
1
1
1
1
1
1
1
1
1.85532
8.18329
10.0721
10.0099
10.03
10.0585
10.0888
10.115
10.1396
10.1631
10.1856
10.2057
10.2219
10.2349
10.2442
10.25
10.2542
10.2578
10.2608
10.2622
10.26
10.253
10.2411
10.2237
10.2023
10.1751
10.1411
10.099
10.0496
9.99352
9.93018
9.85737
9.77061
9.66642
9.53926
9.38509
9.19538
8.96151
8.66036
8.27283
7.73207
6.98534
5.75579
4.2742
1
1
1
1
1
1
1
1
1
1
1
1
1
1
1
1
1
1
1
1
1
1
1
1
1
1
1
1
1
1
1
1
1
1
1
1
1
1
1
1
1
1
1
1
1
1
1
1
1
1
1
1
1.08842
6.99524
10.0991
10.008
9.99048
10.0148
10.0486
10.0743
10.0982
10.1205
10.1411
10.1591
10.1733
10.1845
10.1919
10.1955
10.1969
10.1974
10.1974
10.1957
10.1907
10.1806
10.1658
10.1445
10.1181
10.0862
10.0475
10.0008
9.94559
9.8819
9.80928
9.72614
9.62814
9.51193
9.37064
9.20011
8.98954
8.73174
8.40382
7.98141
7.42323
6.6414
5.55835
4.37374
1
1
1
1
1
1
1
1
1
1
1
1
1
1
1
1
1
1
1
1
1
1
1
1
1
1
1
1
1
1
1
1
1
1
1
1
1
1
1
1
1
1
1
1
1
1
1
1
1
1
1
1
1.00061
5.50795
9.69012
9.83859
9.91733
9.96278
9.99905
10.0268
10.0525
10.0753
10.0951
10.1115
10.1239
10.1334
10.1388
10.1403
10.1393
10.1368
10.1336
10.1286
10.1208
10.1079
10.0898
10.0652
10.0338
9.99655
9.95289
9.90159
9.84102
9.77049
9.6891
9.59601
9.48728
9.35971
9.20592
9.02162
8.79462
8.51791
8.17295
7.73354
7.16766
6.42038
5.49726
4.50716
1
1
1
1
1
1
1
1
1
1
1
1
1
1
1
1
1
1
1
1
1
1
1
1
1
1
1
1
1
1
1
1
1
1
1
1
1
1
1
1
1
1
1
1
1
1
1
1
1
1
1
1
0.999993
3.96097
9.26979
9.82501
9.89779
9.94273
9.9648
9.98524
10.0079
10.0295
10.0481
10.063
10.0741
10.082
10.0856
10.0849
10.0814
10.076
10.0693
10.061
10.0499
10.0342
10.0126
9.98466
9.94916
9.90683
9.85817
9.8022
9.73681
9.6604
9.57119
9.4688
9.35012
9.21205
9.0477
8.85194
8.61366
8.32413
7.96937
7.52961
6.97255
6.28956
5.48782
4.64166
1
1
1
1
1
1
1
1
1
1
1
1
1
1
1
1
1
1
1
1
1
1
1
1
1
1
1
1
1
1
1
1
1
1
1
1
1
1
1
1
1
1
1
1
1
1
1
1
1
1
1
1
0.999998
2.4468
8.54973
9.90633
9.89372
9.90545
9.92301
9.94697
9.96689
9.98532
10.0015
10.0146
10.0243
10.0309
10.033
10.03
10.0241
10.0157
10.0054
9.99323
9.9787
9.96005
9.93528
9.9036
9.86463
9.81796
9.76432
9.70344
9.633
9.551
9.45494
9.34425
9.21677
9.06966
8.89703
8.69228
8.4469
8.15058
7.79412
7.36085
6.83058
6.21167
5.511
4.78327
1
1
1
1
1
1
1
1
1
1
1
1
1
1
1
1
1
1
1
1
1
1
1
1
1
1
1
1
1
1
1
1
1
1
1
1
1
1
1
1
1
1
1
1
1
1
1
1
1
1
1
1
1
1.25859
7.51971
10.0371
9.90241
9.86392
9.87843
9.90434
9.92275
9.93893
9.95321
9.96473
9.97319
9.97862
9.9791
9.97424
9.96608
9.95498
9.9415
9.92557
9.90755
9.8858
9.858
9.82283
9.77995
9.7295
9.67127
9.60575
9.53053
9.44353
9.34185
9.22437
9.08929
8.93449
8.75528
8.54461
8.29537
7.99738
7.64797
7.22017
6.72765
6.17616
5.55102
4.91794
1
1
1
1
1
1
1
1
1
1
1
1
1
1
1
1
1
1
1
1
1
1
1
1
1
1
1
1
1
1
1
1
1
1
1
1
1
1
1
1
1
1
1
1
1
1
1
1
1
1
1
1
1
1.00701
6.0384
9.64694
9.72483
9.78871
9.82375
9.8539
9.87316
9.88953
9.9031
9.91401
9.92185
9.92603
9.92528
9.91898
9.90865
9.89509
9.87841
9.85864
9.83669
9.81157
9.78079
9.74267
9.69626
9.64204
9.57953
9.50935
9.42951
9.33797
9.23132
9.10837
8.96711
8.80609
8.62186
8.40805
8.1582
7.86361
7.52399
7.10664
6.65789
6.16144
5.59065
5.03398
1
1
1
1
1
1
1
1
1
1
1
1
1
1
1
1
1
1
1
1
1
1
1
1
1
1
1
1
1
1
1
1
1
1
1
1
1
1
1
1
1
1
1
1
1
1
1
1
1
1
1
1
1
0.999947
4.27051
9.23381
9.68367
9.76189
9.80443
9.81968
9.83115
9.84311
9.8542
9.86351
9.86999
9.8725
9.87041
9.86279
9.85044
9.83444
9.81496
9.79193
9.76633
9.73781
9.70429
9.66372
9.61435
9.55644
9.48969
9.41476
9.33033
9.23505
9.12453
8.99762
8.85186
8.68602
8.49787
8.28254
8.03458
7.74687
7.41648
7.0219
6.61283
6.14724
5.62485
5.1374
1
1
1
1
1
1
1
1
1
1
1
1
1
1
1
1
1
1
1
1
1
1
1
1
1
1
1
1
1
1
1
1
1
1
1
1
1
1
1
1
1
1
1
1
1
1
1
1
1
1
1
1
1
0.999987
2.5275
8.55705
9.76715
9.75731
9.7706
9.77816
9.78951
9.79971
9.80802
9.81492
9.81937
9.81999
9.81609
9.80709
9.79279
9.77445
9.75235
9.72623
9.69685
9.6645
9.62781
9.58487
9.53327
9.47249
9.40198
9.32242
9.23335
9.13401
9.02088
8.89146
8.74249
8.57357
8.38295
8.16755
7.92329
7.64311
7.32468
6.96119
6.57582
6.13391
5.67302
5.23367
1
1
1
1
1
1
1
1
1
1
1
1
1
1
1
1
1
1
1
1
1
1
1
1
1
1
1
1
1
1
1
1
1
1
1
1
1
1
1
1
1
1
1
1
1
1
1
1
1
1
1
1
1
0.999998
1.22553
7.43791
9.88437
9.75146
9.71786
9.72869
9.7428
9.75245
9.75893
9.76399
9.76692
9.76625
9.76096
9.75092
9.73514
9.71463
9.68987
9.66095
9.62821
9.5923
9.5525
9.50724
9.45376
9.39078
9.3172
9.23349
9.14003
9.03652
8.92066
8.79027
8.6399
8.46932
8.27767
8.06321
7.82298
7.55096
7.24827
6.9091
6.54324
6.13509
5.72889
5.31272
1
1
1
1
1
1
1
1
1
1
1
1
1
1
1
1
1
1
1
1
1
1
1
1
1
1
1
1
1
1
1
1
1
1
1
1
1
1
1
1
1
1
1
1
1
1
1
1
1
1
1
1
1
1
1.00492
5.78522
9.44744
9.59115
9.64582
9.67107
9.69131
9.7033
9.70965
9.71306
9.71435
9.71239
9.70574
9.69435
9.67719
9.65486
9.62774
9.59623
9.56045
9.52113
9.47799
9.43004
9.3746
9.30993
9.23423
9.14744
9.05022
8.94299
8.82439
8.69207
8.5421
8.37243
8.18094
7.96853
7.73417
7.47098
7.17942
6.85928
6.5239
6.14753
5.77382
5.37361
1
1
1
1
1
1
1
1
1
1
1
1
1
1
1
1
1
1
1
1
1
1
1
1
1
1
1
1
1
1
1
1
1
1
1
1
1
1
1
1
1
1
1
1
1
1
1
1
1
1
1
1
1
1
0.999948
3.82548
9.02057
9.57921
9.61554
9.64041
9.65375
9.66108
9.66421
9.66498
9.66387
9.65992
9.6517
9.63875
9.62039
9.59642
9.56722
9.53324
9.49468
9.45215
9.40561
9.35476
9.29718
9.23094
9.15367
9.06484
8.96483
8.85446
8.73332
8.59927
8.44934
8.28178
8.09343
7.88252
7.65531
7.3986
7.11809
6.82539
6.51062
6.15226
5.80391
5.4283
1
1
1
1
1
1
1
1
1
1
1
1
1
1
1
1
1
1
1
1
1
1
1
1
1
1
1
1
1
1
1
1
1
1
1
1
1
1
1
1
1
1
1
1
1
1
1
1
1
1
1
1
1
1
0.999987
2.05369
8.29304
9.64018
9.58531
9.59244
9.61345
9.62033
9.62031
9.61784
9.61363
9.60716
9.59727
9.58268
9.563
9.53739
9.50638
9.47025
9.42936
9.38407
9.33436
9.28045
9.22057
9.15286
9.07451
8.98466
8.88309
8.7706
8.64729
8.51185
8.36221
8.19662
8.01246
7.80564
7.58421
7.33438
7.07167
6.79869
6.4822
6.1508
5.83676
5.48922
1
1
1
1
1
1
1
1
1
1
1
1
1
1
1
1
1
1
1
1
1
1
1
1
1
1
1
1
1
1
1
1
1
1
1
1
1
1
1
1
1
1
1
1
1
1
1
1
1
1
1
1
1
1
0.999998
1.10578
6.78301
9.63392
9.55937
9.55088
9.56545
9.57334
9.57433
9.57076
9.56442
9.55572
9.54411
9.52805
9.50708
9.48008
9.44748
9.40947
9.36647
9.31865
9.26588
9.20873
9.14621
9.0769
8.99768
8.90734
8.80507
8.69151
8.56664
8.43003
8.28064
8.11695
7.93714
7.73533
7.52147
7.28062
7.03207
6.76261
6.45571
6.16841
5.87009
5.53976
1
1
1
1
1
1
1
1
1
1
1
1
1
1
1
1
1
1
1
1
1
1
1
1
1
1
1
1
1
1
1
1
1
1
1
1
1
1
1
1
1
1
1
1
1
1
1
1
1
1
1
1
1
1
1
1.00076
4.77222
9.12576
9.42496
9.49578
9.5252
9.53253
9.52955
9.52364
9.51479
9.50367
9.49017
9.47274
9.45054
9.42237
9.38841
9.34882
9.30399
9.25399
9.1986
9.13859
9.07354
9.00242
8.92245
8.83216
8.72991
8.61633
8.49096
8.35383
8.20484
8.04296
7.86707
7.6711
7.46539
7.23241
6.99395
6.7324
6.45278
6.18714
5.88558
5.58109
1
1
1
1
1
1
1
1
1
1
1
1
1
1
1
1
1
1
1
1
1
1
1
1
1
1
1
1
1
1
1
1
1
1
1
1
1
1
1
1
1
1
1
1
1
1
1
1
1
1
1
1
1
1
1
0.999993
2.64801
8.52091
9.53148
9.49538
9.48389
9.49257
9.49025
9.48126
9.46872
9.45422
9.43808
9.4189
9.39535
9.36621
9.33118
9.29029
9.24381
9.19182
9.13414
9.07154
9.00397
8.93073
8.84952
8.75922
8.65738
8.5445
8.4195
8.28268
8.13447
7.97391
7.80106
7.61203
7.41266
7.18616
6.96147
6.71422
6.45334
6.18975
5.90176
5.63137
1
1
1
1
1
1
1
1
1
1
1
1
1
1
1
1
1
1
1
1
1
1
1
1
1
1
1
1
1
1
1
1
1
1
1
1
1
1
1
1
1
1
1
1
1
1
1
1
1
1
1
1
1
1
1
0.999998
1.22453
7.25319
9.59841
9.46926
9.44168
9.43907
9.44042
9.43188
9.41875
9.40253
9.38448
9.36392
9.33938
9.30966
9.27399
9.2322
9.18439
9.13071
9.07128
9.00675
8.93712
8.86186
8.77911
8.68816
8.58689
8.47537
8.35165
8.21622
8.06982
7.91039
7.74057
7.55712
7.36062
7.14711
6.93692
6.69465
6.44481
6.19455
5.93421
5.67902
1
1
1
1
1
1
1
1
1
1
1
1
1
1
1
1
1
1
1
1
1
1
1
1
1
1
1
1
1
1
1
1
1
1
1
1
1
1
1
1
1
1
1
1
1
1
1
1
1
1
1
1
1
1
1
1
1.00435
5.30729
9.1179
9.30042
9.36604
9.39666
9.39724
9.38514
9.37054
9.35244
9.33242
9.31044
9.28492
9.2547
9.21853
9.17595
9.12695
9.07179
9.0109
8.94482
8.87337
8.79598
8.71137
8.61933
8.51847
8.40822
8.28661
8.15329
8.00958
7.85145
7.68498
7.50397
7.31281
7.11663
6.90916
6.66968
6.44164
6.20842
5.9629
5.70925
1
1
1
1
1
1
1
1
1
1
1
1
1
1
1
1
1
1
1
1
1
1
1
1
1
1
1
1
1
1
1
1
1
1
1
1
1
1
1
1
1
1
1
1
1
1
1
1
1
1
1
1
1
1
1
1
0.99996
2.97903
8.5794
9.3966
9.37452
9.35633
9.35393
9.34425
9.32765
9.30638
9.28329
9.25886
9.23175
9.20066
9.16392
9.12072
9.07082
9.0146
8.95263
8.88535
8.81246
8.73325
8.64686
8.55377
8.45307
8.34364
8.22413
8.09349
7.95356
7.79721
7.6342
7.45587
7.27296
7.08576
6.87483
6.65474
6.44644
6.21853
5.97887
5.73212
1
1
1
1
1
1
1
1
1
1
1
1
1
1
1
1
1
1
1
1
1
1
1
1
1
1
1
1
1
1
1
1
1
1
1
1
1
1
1
1
1
1
1
1
1
1
1
1
1
1
1
1
1
1
1
1
0.99999
1.29481
7.4173
9.50195
9.35214
9.31388
9.29723
9.29286
9.27775
9.25756
9.23377
9.20796
9.17944
9.14769
9.11049
9.06684
9.0163
8.95932
8.89641
8.82791
8.75356
8.67267
8.58474
8.49071
8.38997
8.2813
8.16373
8.03578
7.89959
7.74569
7.58738
7.41355
7.23693
7.05072
6.84694
6.65029
6.44567
6.21817
5.98994
5.76237
1
1
1
1
1
1
1
1
1
1
1
1
1
1
1
1
1
1
1
1
1
1
1
1
1
1
1
1
1
1
1
1
1
1
1
1
1
1
1
1
1
1
1
1
1
1
1
1
1
1
1
1
1
1
1
1
0.999998
1.00784
5.45158
9.03134
9.17029
9.22535
9.25289
9.24717
9.23064
9.21078
9.1866
9.15913
9.12917
9.09631
9.05843
9.01445
8.96362
8.90617
8.84252
8.77287
8.69711
8.61487
8.52586
8.43165
8.33063
8.2225
8.10657
7.98076
7.84692
7.69756
7.54515
7.37605
7.20384
7.02126
6.83049
6.64171
6.43481
6.21951
6.00909
5.79764
1
1
1
1
1
1
1
1
1
1
1
1
1
1
1
1
1
1
1
1
1
1
1
1
1
1
1
1
1
1
1
1
1
1
1
1
1
1
1
1
1
1
1
1
1
1
1
1
1
1
1
1
1
1
1
1
1
0.999938
2.98942
8.48198
9.2583
9.23627
9.21567
9.20421
9.19216
9.17191
9.14569
9.11504
9.08214
9.04686
9.00742
8.96272
8.91162
8.85388
8.78957
8.71884
8.64183
8.55857
8.46916
8.37464
8.27389
8.16602
8.05157
7.92731
7.79585
7.65218
7.50406
7.34003
7.1747
6.99913
6.8152
6.62531
6.42663
6.22989
6.02822
5.82295
1
1
1
1
1
1
1
1
1
1
1
1
1
1
1
1
1
1
1
1
1
1
1
1
1
1
1
1
1
1
1
1
1
1
1
1
1
1
1
1
1
1
1
1
1
1
1
1
1
1
1
1
1
1
1
1
1
0.999985
1.29088
7.25438
9.35556
9.21374
9.17123
9.15209
9.14515
9.12596
9.10079
9.07034
9.03559
8.99826
8.95735
8.91197
8.86077
8.80302
8.73833
8.66686
8.58902
8.50535
8.41624
8.32157
8.22022
8.11398
7.99986
7.8771
7.74841
7.60971
7.46408
7.3076
7.15035
6.97924
6.79763
6.61257
6.43013
6.2413
6.0397
5.84034
1
1
1
1
1
1
1
1
1
1
1
1
1
1
1
1
1
1
1
1
1
1
1
1
1
1
1
1
1
1
1
1
1
1
1
1
1
1
1
1
1
1
1
1
1
1
1
1
1
1
1
1
1
1
1
1
1
0.999997
1.00733
5.16148
8.88188
9.03824
9.09076
9.11355
9.1042
9.08274
9.05768
9.02738
8.99053
8.95054
8.90737
8.86076
8.80912
8.75138
8.68671
8.6151
8.53719
8.45366
8.36503
8.27036
8.17008
8.06245
7.9502
7.82999
7.70414
7.5688
7.42612
7.27808
7.12422
6.95524
6.78182
6.60803
6.43458
6.24399
6.04443
5.85994
1
1
1
1
1
1
1
1
1
1
1
1
1
1
1
1
1
1
1
1
1
1
1
1
1
1
1
1
1
1
1
1
1
1
1
1
1
1
1
1
1
1
1
1
1
1
1
1
1
1
1
1
1
1
1
1
1
1
0.999951
2.61493
8.27074
9.11158
9.10017
9.09587
9.06704
9.04303
9.01926
8.98872
8.95005
8.90667
8.86039
8.81176
8.75913
8.70115
8.63671
8.56558
8.48826
8.40538
8.31714
8.22314
8.12307
8.01619
7.90428
7.78586
7.66313
7.53091
7.39235
7.24954
7.09607
6.93433
6.77226
6.60499
6.43326
6.24359
6.05512
5.88492
1
1
1
1
1
1
1
1
1
1
1
1
1
1
1
1
1
1
1
1
1
1
1
1
1
1
1
1
1
1
1
1
1
1
1
1
1
1
1
1
1
1
1
1
1
1
1
1
1
1
1
1
1
1
1
1
1
1
0.999988
1.19788
6.75352
9.13888
9.07941
9.04805
9.01542
8.99463
8.97502
8.9452
8.90602
8.86078
8.81228
8.7618
8.70814
8.65005
8.58633
8.51642
8.44033
8.35833
8.27071
8.17729
8.07793
7.97238
7.86118
7.74429
7.62377
7.4946
7.36037
7.2199
7.06933
6.91784
6.76158
6.59509
6.42766
6.24864
6.07403
5.90843
1
1
1
1
1
1
1
1
1
1
1
1
1
1
1
1
1
1
1
1
1
1
1
1
1
1
1
1
1
1
1
1
1
1
1
1
1
1
1
1
1
1
1
1
1
1
1
1
1
1
1
1
1
1
1
1
1
1
0.999998
1.00294
4.28086
8.65338
8.98221
8.9776
8.95756
8.95847
8.94212
8.91026
8.8688
8.8213
8.76994
8.71632
8.66036
8.60144
8.53809
8.4694
8.39487
8.31396
8.22714
8.13438
8.03584
7.93173
7.82186
7.70705
7.58788
7.46101
7.3301
7.1921
7.04706
6.9023
6.74734
6.58489
6.42686
6.25975
6.09242
5.9247
1
1
1
1
1
1
1
1
1
1
1
1
1
1
1
1
1
1
1
1
1
1
1
1
1
1
1
1
1
1
1
1
1
1
1
1
1
1
1
1
1
1
1
1
1
1
1
1
1
1
1
1
1
1
1
1
1
1
1
0.999984
1.805
7.86851
9.13767
8.99514
8.95941
8.93409
8.90595
8.86728
8.82455
8.77797
8.72645
8.67139
8.61368
8.55391
8.49077
8.42332
8.35032
8.27067
8.18478
8.09272
7.99508
7.89235
7.78416
7.67161
7.55406
7.42913
7.30084
7.16616
7.02664
6.88508
6.73239
6.57817
6.42831
6.26744
6.10133
5.93334
1
1
1
1
1
1
1
1
1
1
1
1
1
1
1
1
1
1
1
1
1
1
1
1
1
1
1
1
1
1
1
1
1
1
1
1
1
1
1
1
1
1
1
1
1
1
1
1
1
1
1
1
1
1
1
1
1
1
1
0.999996
1.05324
5.99084
8.82645
8.85703
8.89192
8.89319
8.85735
8.81566
8.77534
8.73262
8.68336
8.62856
8.56976
8.50879
8.44523
8.37854
8.30676
8.22883
8.14439
8.05364
7.95739
7.85614
7.74963
7.63915
7.52323
7.40012
7.27433
7.14304
7.00778
6.8687
6.72049
6.57419
6.42752
6.27002
6.10697
5.94531
1
1
1
1
1
1
1
1
1
1
1
1
1
1
1
1
1
1
1
1
1
1
1
1
1
1
1
1
1
1
1
1
1
1
1
1
1
1
1
1
1
1
1
1
1
1
1
1
1
1
1
1
1
1
1
1
1
1
1
0.999999
1.00008
3.17932
8.244
8.88745
8.88926
8.8659
8.81426
8.77278
8.73568
8.69466
8.64581
8.59053
8.53056
8.468
8.40314
8.33602
8.26469
8.18822
8.1054
8.01625
7.92146
7.82138
7.71609
7.6072
7.49282
7.37213
7.24937
7.12149
6.98952
6.85328
6.71125
6.56965
6.42332
6.2698
6.11371
5.96189
1
1
1
1
1
1
1
1
1
1
1
1
1
1
1
1
1