/*--------------------------------*- C++ -*----------------------------------*\
  =========                 |
  \\      /  F ield         | OpenFOAM: The Open Source CFD Toolbox
   \\    /   O peration     | Website:  https://openfoam.org
    \\  /    A nd           | Version:  7
     \\/     M anipulation  |
\*---------------------------------------------------------------------------*/
FoamFile
{
    version     2.0;
    format      ascii;
    class       volScalarField;
    location    "3.1";
    object      rho;
}
// * * * * * * * * * * * * * * * * * * * * * * * * * * * * * * * * * * * * * //

dimensions      [1 -3 0 0 0 0 0];

internalField   nonuniform List<scalar> 
64512
(
1.40001
1.40001
1.40001
1.40001
1.40001
1.40001
1.40001
1.40001
1.40001
1.40001
1.40001
1.40001
1.40001
1.40001
1.40001
1.40001
1.40001
1.40001
1.40001
1.40001
1.40001
1.40001
1.40001
1.40001
1.40001
1.40001
1.40001
1.40001
1.40001
1.40001
1.40001
1.40001
1.40001
1.40001
1.40001
1.40001
1.40001
1.40001
1.40001
1.40001
1.40001
1.40001
1.40001
1.40001
1.40001
1.40001
1.40001
1.40001
1.40001
3.79215
5.41345
5.43906
5.45755
5.47681
5.49457
5.51134
5.52793
5.54554
5.56518
5.58751
5.6121
5.63776
5.66297
5.68502
5.70092
5.70978
5.71424
5.72004
5.7329
5.75356
5.77745
5.80029
5.82099
5.83865
5.85154
5.85977
5.86654
5.87551
5.88728
5.89993
5.91174
5.92196
5.93037
5.93766
5.94467
5.95169
5.95855
5.96517
5.97164
5.97805
5.98393
5.98835
5.99082
5.9914
5.99131
5.99202
1.40001
1.40001
1.40001
1.40001
1.40001
1.40001
1.40001
1.40001
1.40001
1.40001
1.40001
1.40001
1.40001
1.40001
1.40001
1.40001
1.40001
1.40001
1.40001
1.40001
1.40001
1.40001
1.40001
1.40001
1.40001
1.40001
1.40001
1.40001
1.40001
1.40001
1.40001
1.40001
1.40001
1.40001
1.40001
1.40001
1.40001
1.40001
1.40001
1.40001
1.40001
1.40001
1.40001
1.40001
1.40001
1.40001
1.40001
1.40001
1.40001
3.77057
5.40507
5.44029
5.45802
5.47686
5.49425
5.51091
5.52744
5.54504
5.56473
5.58705
5.61155
5.63705
5.66216
5.68434
5.70047
5.70944
5.7139
5.71969
5.73248
5.75298
5.77674
5.79961
5.82044
5.83813
5.85097
5.85906
5.86571
5.87461
5.88636
5.89903
5.91089
5.92119
5.92964
5.93692
5.94385
5.95076
5.95752
5.96412
5.97061
5.97702
5.98282
5.9871
5.98944
5.98998
5.98992
5.9907
1.40001
1.40001
1.40001
1.40001
1.40001
1.40001
1.40001
1.40001
1.40001
1.40001
1.40001
1.40001
1.40001
1.40001
1.40001
1.40001
1.40001
1.40001
1.40001
1.40001
1.40001
1.40001
1.40001
1.40001
1.40001
1.40001
1.40001
1.40001
1.40001
1.40001
1.40001
1.40001
1.40001
1.40001
1.40001
1.40001
1.40001
1.40001
1.40001
1.40001
1.40001
1.40001
1.40001
1.40001
1.40001
1.40001
1.40001
1.40001
1.40001
3.72983
5.39916
5.44056
5.45719
5.47537
5.4923
5.50884
5.52545
5.54325
5.56322
5.5858
5.61037
5.63579
5.66084
5.68314
5.69949
5.70857
5.71305
5.71886
5.73153
5.75179
5.77538
5.79826
5.81932
5.83707
5.84991
5.85783
5.86432
5.87312
5.88486
5.89757
5.90956
5.91996
5.92847
5.93571
5.94251
5.94926
5.9559
5.96245
5.96896
5.97535
5.98104
5.98513
5.9873
5.98776
5.98773
5.98861
1.40001
1.40001
1.40001
1.40001
1.40001
1.40001
1.40001
1.40001
1.40001
1.40001
1.40001
1.40001
1.40001
1.40001
1.40001
1.40001
1.40001
1.40001
1.40001
1.40001
1.40001
1.40001
1.40001
1.40001
1.40001
1.40001
1.40001
1.40001
1.40001
1.40001
1.40001
1.40001
1.40001
1.40001
1.40001
1.40001
1.40001
1.40001
1.40001
1.40001
1.40001
1.40001
1.40001
1.40001
1.40001
1.40001
1.40001
1.40001
1.40001
3.67093
5.39193
5.44041
5.45586
5.47337
5.48979
5.50614
5.52275
5.54066
5.56088
5.58378
5.60855
5.63399
5.65902
5.68146
5.69806
5.7073
5.71178
5.71755
5.72996
5.74983
5.77322
5.79609
5.81741
5.8353
5.84823
5.85601
5.86231
5.87095
5.88262
5.89541
5.90755
5.9181
5.92667
5.93385
5.94047
5.94699
5.95348
5.96
5.96655
5.97289
5.97838
5.98217
5.98405
5.98439
5.9844
5.98539
1.40001
1.40001
1.40001
1.40001
1.40001
1.40001
1.40001
1.40001
1.40001
1.40001
1.40001
1.40001
1.40001
1.40001
1.40001
1.40001
1.40001
1.40001
1.40001
1.40001
1.40001
1.40001
1.40001
1.40001
1.40001
1.40001
1.40001
1.40001
1.40001
1.40001
1.40001
1.40001
1.40001
1.40001
1.40001
1.40001
1.40001
1.40001
1.40001
1.40001
1.40001
1.40001
1.40001
1.40001
1.40001
1.40001
1.40001
1.40001
1.40001
3.59334
5.3822
5.43953
5.45387
5.47092
5.48692
5.50306
5.5196
5.53751
5.55787
5.58103
5.60605
5.63162
5.65674
5.67934
5.69628
5.70582
5.71034
5.716
5.72791
5.74714
5.77028
5.79306
5.81461
5.83271
5.84586
5.85362
5.85973
5.86812
5.87966
5.89251
5.90485
5.9156
5.92428
5.93138
5.93779
5.94407
5.95043
5.95696
5.96355
5.96981
5.97499
5.97835
5.97985
5.98002
5.98005
5.98115
1.40001
1.40001
1.40001
1.40001
1.40001
1.40001
1.40001
1.40001
1.40001
1.40001
1.40001
1.40001
1.40001
1.40001
1.40001
1.40001
1.40001
1.40001
1.40001
1.40001
1.40001
1.40001
1.40001
1.40001
1.40001
1.40001
1.40001
1.40001
1.40001
1.40001
1.40001
1.40001
1.40001
1.40001
1.40001
1.40001
1.40001
1.40001
1.40001
1.40001
1.40001
1.40001
1.40001
1.40001
1.40001
1.40001
1.40001
1.40001
1.40001
3.49671
5.36821
5.43787
5.45143
5.46825
5.4839
5.49985
5.51641
5.53426
5.55457
5.57779
5.60291
5.62856
5.6538
5.67662
5.69409
5.70423
5.70895
5.71441
5.72554
5.74385
5.76665
5.78925
5.81095
5.82929
5.84281
5.85068
5.85665
5.86471
5.87603
5.88887
5.90137
5.91234
5.92112
5.92815
5.93434
5.9404
5.94667
5.95326
5.95991
5.96605
5.97087
5.97373
5.97479
5.97476
5.97478
5.97594
1.40001
1.40001
1.40001
1.40001
1.40001
1.40001
1.40001
1.40001
1.40001
1.40001
1.40001
1.40001
1.40001
1.40001
1.40001
1.40001
1.40001
1.40001
1.40001
1.40001
1.40001
1.40001
1.40001
1.40001
1.40001
1.40001
1.40001
1.40001
1.40001
1.40001
1.40001
1.40001
1.40001
1.40001
1.40001
1.40001
1.40001
1.40001
1.40001
1.40001
1.40001
1.40001
1.40001
1.40001
1.40001
1.40001
1.40001
1.40001
1.40001
3.38063
5.34827
5.43602
5.44919
5.46626
5.48155
5.49705
5.5134
5.53101
5.55103
5.57406
5.59909
5.62476
5.65014
5.67323
5.69141
5.70247
5.7076
5.71278
5.7229
5.73997
5.76226
5.78458
5.80634
5.82492
5.83894
5.84709
5.85301
5.86071
5.8717
5.88444
5.89703
5.90816
5.91703
5.92397
5.92995
5.93583
5.94206
5.94873
5.95543
5.96143
5.96589
5.96833
5.96904
5.96887
5.96888
5.97009
1.40001
1.40001
1.40001
1.40001
1.40001
1.40001
1.40001
1.40001
1.40001
1.40001
1.40001
1.40001
1.40001
1.40001
1.40001
1.40001
1.40001
1.40001
1.40001
1.40001
1.40001
1.40001
1.40001
1.40001
1.40001
1.40001
1.40001
1.40001
1.40001
1.40001
1.40001
1.40001
1.40001
1.40001
1.40001
1.40001
1.40001
1.40001
1.40001
1.40001
1.40001
1.40001
1.40001
1.40001
1.40001
1.40001
1.40001
1.40001
1.40001
3.24499
5.32084
5.43471
5.44758
5.4654
5.48067
5.49574
5.51152
5.52842
5.54764
5.56998
5.59465
5.62023
5.64567
5.66911
5.68813
5.7005
5.70637
5.71132
5.72029
5.7358
5.7573
5.7792
5.80084
5.81962
5.83419
5.84277
5.84873
5.85607
5.86665
5.87918
5.89176
5.903
5.91198
5.9189
5.92477
5.93059
5.93687
5.94364
5.95035
5.95612
5.96017
5.96215
5.96251
5.96217
5.96209
5.96323
1.40001
1.40001
1.40001
1.40001
1.40001
1.40001
1.40001
1.40001
1.40001
1.40001
1.40001
1.40001
1.40001
1.40001
1.40001
1.40001
1.40001
1.40001
1.40001
1.40001
1.40001
1.40001
1.40001
1.40001
1.40001
1.40001
1.40001
1.40001
1.40001
1.40001
1.40001
1.40001
1.40001
1.40001
1.40001
1.40001
1.40001
1.40001
1.40001
1.40001
1.40001
1.40001
1.40001
1.40001
1.40001
1.40001
1.40001
1.40001
1.40001
3.0904
5.28481
5.4343
5.44705
5.46599
5.48149
5.49628
5.51125
5.52712
5.5449
5.56587
5.58974
5.61501
5.64037
5.6641
5.68396
5.69786
5.70489
5.70983
5.71769
5.73139
5.75172
5.7731
5.79454
5.81349
5.82865
5.83778
5.84389
5.85086
5.86096
5.87316
5.8856
5.89684
5.90586
5.91277
5.91859
5.92441
5.93075
5.93756
5.94415
5.94964
5.95332
5.95494
5.95504
5.95458
5.95437
5.95537
1.40001
1.40001
1.40001
1.40001
1.40001
1.40001
1.40001
1.40001
1.40001
1.40001
1.40001
1.40001
1.40001
1.40001
1.40001
1.40001
1.40001
1.40001
1.40001
1.40001
1.40001
1.40001
1.40001
1.40001
1.40001
1.40001
1.40001
1.40001
1.40001
1.40001
1.40001
1.40001
1.40001
1.40001
1.40001
1.40001
1.40001
1.40001
1.40001
1.40001
1.40001
1.40001
1.40001
1.40001
1.40001
1.40001
1.40001
1.40001
1.40001
2.91885
5.2398
5.43358
5.44767
5.46836
5.48421
5.49863
5.51249
5.52708
5.54311
5.56232
5.58496
5.60975
5.63489
5.65876
5.67933
5.6948
5.70343
5.70868
5.71561
5.7273
5.74599
5.76672
5.78777
5.8068
5.8225
5.83228
5.8386
5.84523
5.85478
5.86655
5.87876
5.8899
5.89892
5.90585
5.9117
5.91757
5.92396
5.9307
5.93705
5.9422
5.94554
5.94689
5.94682
5.94622
5.94584
5.94668
1.40001
1.40001
1.40001
1.40001
1.40001
1.40001
1.40001
1.40001
1.40001
1.40001
1.40001
1.40001
1.40001
1.40001
1.40001
1.40001
1.40001
1.40001
1.40001
1.40001
1.40001
1.40001
1.40001
1.40001
1.40001
1.40001
1.40001
1.40001
1.40001
1.40001
1.40001
1.40001
1.40001
1.40001
1.40001
1.40001
1.40001
1.40001
1.40001
1.40001
1.40001
1.40001
1.40001
1.40001
1.40001
1.40001
1.40001
1.40001
1.40001
2.73414
5.18415
5.4297
5.44787
5.47105
5.48773
5.50189
5.51449
5.5273
5.5414
5.55853
5.57946
5.60335
5.62811
5.65204
5.67327
5.69026
5.7008
5.7067
5.71299
5.72276
5.73955
5.75955
5.78022
5.79934
5.8156
5.82613
5.8328
5.83915
5.84812
5.85938
5.87122
5.88216
5.89113
5.89808
5.90398
5.90991
5.91626
5.9228
5.92879
5.93356
5.93664
5.93785
5.9377
5.93699
5.93646
5.93714
1.40001
1.40001
1.40001
1.40001
1.40001
1.40001
1.40001
1.40001
1.40001
1.40001
1.40001
1.40001
1.40001
1.40001
1.40001
1.40001
1.40001
1.40001
1.40001
1.40001
1.40001
1.40001
1.40001
1.40001
1.40001
1.40001
1.40001
1.40001
1.40001
1.40001
1.40001
1.40001
1.40001
1.40001
1.40001
1.40001
1.40001
1.40001
1.40001
1.40001
1.40001
1.40001
1.40001
1.40001
1.40001
1.40001
1.40001
1.40001
1.40001
2.54117
5.11241
5.42373
5.44671
5.47268
5.49081
5.50524
5.5169
5.528
5.54025
5.55511
5.57394
5.59643
5.62066
5.64451
5.66623
5.68442
5.69692
5.70376
5.70969
5.71787
5.73252
5.75149
5.77172
5.79089
5.80764
5.81897
5.82609
5.83226
5.84066
5.85135
5.86278
5.87346
5.88238
5.88942
5.89544
5.90143
5.90768
5.91389
5.91944
5.9238
5.92667
5.92784
5.92765
5.92686
5.92617
5.92673
1.40001
1.40001
1.40001
1.40001
1.40001
1.40001
1.40001
1.40001
1.40001
1.40001
1.40001
1.40001
1.40001
1.40001
1.40001
1.40001
1.40001
1.40001
1.40001
1.40001
1.40001
1.40001
1.40001
1.40001
1.40001
1.40001
1.40001
1.40001
1.40001
1.40001
1.40001
1.40001
1.40001
1.40001
1.40001
1.40001
1.40001
1.40001
1.40001
1.40001
1.40001
1.40001
1.40001
1.40001
1.40001
1.40001
1.40001
1.40001
1.40001
2.34164
5.02295
5.41974
5.44322
5.4715
5.4922
5.50789
5.51964
5.52969
5.5404
5.55339
5.57003
5.59062
5.61379
5.63718
5.65896
5.67784
5.69209
5.70018
5.70624
5.71335
5.72586
5.74354
5.76311
5.78218
5.79919
5.81116
5.81868
5.82468
5.83249
5.84256
5.8535
5.86388
5.87276
5.8799
5.88605
5.89204
5.89806
5.90384
5.90887
5.91284
5.91553
5.91669
5.91652
5.91571
5.91493
5.91541
1.40001
1.40001
1.40001
1.40001
1.40001
1.40001
1.40001
1.40001
1.40001
1.40001
1.40001
1.40001
1.40001
1.40001
1.40001
1.40001
1.40001
1.40001
1.40001
1.40001
1.40001
1.40001
1.40001
1.40001
1.40001
1.40001
1.40001
1.40001
1.40001
1.40001
1.40001
1.40001
1.40001
1.40001
1.40001
1.40001
1.40001
1.40001
1.40001
1.40001
1.40001
1.40001
1.40001
1.40001
1.40001
1.40001
1.40001
1.40001
1.40001
2.13758
4.91327
5.42284
5.43981
5.46754
5.48949
5.50785
5.52126
5.53152
5.54144
5.55296
5.56769
5.58629
5.60796
5.63052
5.65193
5.67092
5.6864
5.69597
5.70248
5.70894
5.71937
5.73547
5.75402
5.77275
5.78975
5.80226
5.8102
5.81615
5.82343
5.83286
5.84329
5.85335
5.86217
5.86942
5.87567
5.88159
5.88731
5.89259
5.89712
5.90072
5.90324
5.90437
5.90421
5.90341
5.90257
5.90303
1.40001
1.40001
1.40001
1.40001
1.40001
1.40001
1.40001
1.40001
1.40001
1.40001
1.40001
1.40001
1.40001
1.40001
1.40001
1.40001
1.40001
1.40001
1.40001
1.40001
1.40001
1.40001
1.40001
1.40001
1.40001
1.40001
1.40001
1.40001
1.40001
1.40001
1.40001
1.40001
1.40001
1.40001
1.40001
1.40001
1.40001
1.40001
1.40001
1.40001
1.40001
1.40001
1.40001
1.40001
1.40001
1.40001
1.40001
1.40001
1.40001
1.93625
4.77845
5.43158
5.43815
5.46313
5.48427
5.50448
5.52051
5.53285
5.54296
5.55358
5.5666
5.58313
5.60292
5.62426
5.64501
5.66374
5.67992
5.69106
5.69835
5.70469
5.71338
5.72775
5.745
5.76317
5.77989
5.79272
5.80099
5.8069
5.81362
5.82234
5.8322
5.84191
5.85062
5.85793
5.86419
5.86994
5.87529
5.88007
5.88413
5.88739
5.88971
5.89079
5.89062
5.88985
5.88899
5.88944
1.40001
1.40001
1.40001
1.40001
1.40001
1.40001
1.40001
1.40001
1.40001
1.40001
1.40001
1.40001
1.40001
1.40001
1.40001
1.40001
1.40001
1.40001
1.40001
1.40001
1.40001
1.40001
1.40001
1.40001
1.40001
1.40001
1.40001
1.40001
1.40001
1.40001
1.40001
1.40001
1.40001
1.40001
1.40001
1.40001
1.40001
1.40001
1.40001
1.40001
1.40001
1.40001
1.40001
1.40001
1.40001
1.40001
1.40001
1.40001
1.40001
1.7504
4.61665
5.43939
5.43682
5.45746
5.47686
5.49824
5.51694
5.53187
5.54338
5.55395
5.56597
5.58073
5.59855
5.61831
5.63809
5.65634
5.67264
5.68518
5.6935
5.70026
5.70778
5.7204
5.73609
5.75341
5.76955
5.78244
5.79092
5.79677
5.80296
5.81096
5.82023
5.82957
5.83812
5.84537
5.8515
5.85698
5.86192
5.86626
5.86991
5.87287
5.87494
5.8759
5.87564
5.87481
5.8739
5.87431
1.40001
1.40001
1.40001
1.40001
1.40001
1.40001
1.40001
1.40001
1.40001
1.40001
1.40001
1.40001
1.40001
1.40001
1.40001
1.40001
1.40001
1.40001
1.40001
1.40001
1.40001
1.40001
1.40001
1.40001
1.40001
1.40001
1.40001
1.40001
1.40001
1.40001
1.40001
1.40001
1.40001
1.40001
1.40001
1.40001
1.40001
1.40001
1.40001
1.40001
1.40001
1.40001
1.40001
1.40001
1.40001
1.40001
1.40001
1.40001
1.40001
1.58461
4.41552
5.43753
5.43416
5.44978
5.46693
5.48732
5.50726
5.52465
5.53924
5.55196
5.56459
5.57851
5.59458
5.61247
5.6309
5.64842
5.6644
5.67801
5.6876
5.69531
5.70237
5.71336
5.72732
5.74343
5.75869
5.77138
5.77996
5.78581
5.79153
5.79883
5.80749
5.8164
5.82466
5.83167
5.83749
5.84256
5.84705
5.85098
5.85429
5.85696
5.85878
5.85959
5.8592
5.85824
5.85723
5.85754
1.40001
1.40001
1.40001
1.40001
1.40001
1.40001
1.40001
1.40001
1.40001
1.40001
1.40001
1.40001
1.40001
1.40001
1.40001
1.40001
1.40001
1.40001
1.40001
1.40001
1.40001
1.40001
1.40001
1.40001
1.40001
1.40001
1.40001
1.40001
1.40001
1.40001
1.40001
1.40001
1.40001
1.40001
1.40001
1.40001
1.40001
1.40001
1.40001
1.40001
1.40001
1.40001
1.40001
1.40001
1.40001
1.40001
1.40001
1.40001
1.40001
1.4407
4.17713
5.40609
5.4146
5.43149
5.4519
5.47402
5.49545
5.51453
5.53157
5.54681
5.56073
5.57459
5.58941
5.6055
5.62241
5.63907
5.65464
5.66899
5.68001
5.68907
5.69643
5.70612
5.71839
5.73301
5.74721
5.75947
5.76811
5.774
5.77935
5.78596
5.79394
5.80232
5.81012
5.81671
5.82206
5.82662
5.83064
5.8342
5.8372
5.83961
5.84115
5.84177
5.84112
5.83984
5.83857
5.83868
1.40001
1.40001
1.40001
1.40001
1.40001
1.40001
1.40001
1.40001
1.40001
1.40001
1.40001
1.40001
1.40001
1.40001
1.40001
1.40001
1.40001
1.40001
1.40001
1.40001
1.40001
1.40001
1.40001
1.40001
1.40001
1.40001
1.40001
1.40001
1.40001
1.40001
1.40001
1.40001
1.40001
1.40001
1.40001
1.40001
1.40001
1.40001
1.40001
1.40001
1.40001
1.40001
1.40001
1.40001
1.40001
1.40001
1.40001
1.40001
1.40001
1.40123
3.87918
5.34523
5.3873
5.41089
5.43414
5.45582
5.47745
5.49828
5.51758
5.53483
5.55041
5.56512
5.57989
5.59525
5.61141
5.62768
5.64305
5.65786
5.67031
5.68089
5.68926
5.69818
5.70907
5.72213
5.73515
5.74678
5.75537
5.76129
5.76629
5.7722
5.77944
5.78718
5.79442
5.80046
5.8052
5.80911
5.81254
5.81563
5.81829
5.82046
5.82174
5.82215
5.82121
5.81956
5.8179
5.81769
1.40001
1.40001
1.40001
1.40001
1.40001
1.40001
1.40001
1.40001
1.40001
1.40001
1.40001
1.40001
1.40001
1.40001
1.40001
1.40001
1.40001
1.40001
1.40001
1.40001
1.40001
1.40001
1.40001
1.40001
1.40001
1.40001
1.40001
1.40001
1.40001
1.40001
1.40001
1.40001
1.40001
1.40001
1.40001
1.40001
1.40001
1.40001
1.40001
1.40001
1.40001
1.40001
1.40001
1.40001
1.40001
1.40001
1.40001
1.40001
1.40001
1.40001
3.5456
5.27865
5.35767
5.38912
5.41731
5.44176
5.46502
5.48659
5.50582
5.52287
5.5388
5.55401
5.56891
5.58393
5.59944
5.61498
5.63006
5.645
5.65846
5.67024
5.67999
5.6888
5.69876
5.71036
5.72224
5.73315
5.7416
5.74756
5.75227
5.75751
5.76394
5.77095
5.7775
5.78286
5.78686
5.78999
5.7927
5.79524
5.79753
5.79946
5.80047
5.80056
5.79918
5.79693
5.79467
5.794
1.40001
1.40001
1.40001
1.40001
1.40001
1.40001
1.40001
1.40001
1.40001
1.40001
1.40001
1.40001
1.40001
1.40001
1.40001
1.40001
1.40001
1.40001
1.40001
1.40001
1.40001
1.40001
1.40001
1.40001
1.40001
1.40001
1.40001
1.40001
1.40001
1.40001
1.40001
1.40001
1.40001
1.40001
1.40001
1.40001
1.40001
1.40001
1.40001
1.40001
1.40001
1.40001
1.40001
1.40001
1.40001
1.40001
1.40001
1.40001
1.40001
1.40001
3.18795
5.21798
5.3453
5.37688
5.40292
5.42751
5.45105
5.47298
5.49283
5.51028
5.52629
5.54151
5.55618
5.57051
5.58506
5.60021
5.6147
5.62952
5.64381
5.65664
5.6679
5.6772
5.68681
5.69728
5.70817
5.71841
5.72671
5.73272
5.73721
5.74175
5.74725
5.75336
5.75911
5.7637
5.76691
5.76914
5.77093
5.77271
5.77447
5.77601
5.77676
5.77646
5.77457
5.77172
5.76888
5.76779
1.40001
1.40001
1.40001
1.40001
1.40001
1.40001
1.40001
1.40001
1.40001
1.40001
1.40001
1.40001
1.40001
1.40001
1.40001
1.40001
1.40001
1.40001
1.40001
1.40001
1.40001
1.40001
1.40001
1.40001
1.40001
1.40001
1.40001
1.40001
1.40001
1.40001
1.40001
1.40001
1.40001
1.40001
1.40001
1.40001
1.40001
1.40001
1.40001
1.40001
1.40001
1.40001
1.40001
1.40001
1.40001
1.40001
1.40001
1.40001
1.40001
1.40001
2.81002
5.13804
5.3502
5.37608
5.4021
5.42417
5.44397
5.46304
5.48089
5.49713
5.51251
5.52728
5.54174
5.55599
5.5702
5.58488
5.59954
5.61346
5.62765
5.6407
5.65299
5.66319
5.67274
5.68243
5.69258
5.70228
5.7105
5.71662
5.72094
5.72479
5.72926
5.73433
5.73918
5.74297
5.74531
5.74651
5.74723
5.74813
5.7492
5.75021
5.75054
5.74961
5.74697
5.74324
5.73966
5.73807
1.40001
1.40001
1.40001
1.40001
1.40001
1.40001
1.40001
1.40001
1.40001
1.40001
1.40001
1.40001
1.40001
1.40001
1.40001
1.40001
1.40001
1.40001
1.40001
1.40001
1.40001
1.40001
1.40001
1.40001
1.40001
1.40001
1.40001
1.40001
1.40001
1.40001
1.40001
1.40001
1.40001
1.40001
1.40001
1.40001
1.40001
1.40001
1.40001
1.40001
1.40001
1.40001
1.40001
1.40001
1.40001
1.40001
1.40001
1.40001
1.40001
1.40001
2.43098
5.01436
5.38395
5.39141
5.40797
5.42357
5.44111
5.45926
5.47575
5.49006
5.50302
5.51562
5.52832
5.54116
5.55451
5.5685
5.58302
5.59709
5.61073
5.62344
5.63576
5.64643
5.65619
5.66552
5.67516
5.6845
5.69269
5.69893
5.70315
5.70637
5.70976
5.71367
5.7175
5.72036
5.72173
5.7218
5.72133
5.72104
5.72101
5.72119
5.72069
5.71891
5.71559
5.71117
5.70708
5.70519
1.40001
1.40001
1.40001
1.40001
1.40001
1.40001
1.40001
1.40001
1.40001
1.40001
1.40001
1.40001
1.40001
1.40001
1.40001
1.40001
1.40001
1.40001
1.40001
1.40001
1.40001
1.40001
1.40001
1.40001
1.40001
1.40001
1.40001
1.40001
1.40001
1.40001
1.40001
1.40001
1.40001
1.40001
1.40001
1.40001
1.40001
1.40001
1.40001
1.40001
1.40001
1.40001
1.40001
1.40001
1.40001
1.40001
1.40001
1.40001
1.40001
1.40001
2.04431
4.83826
5.44205
5.42292
5.43175
5.43939
5.44959
5.4611
5.47311
5.4853
5.49654
5.50727
5.51821
5.52943
5.54097
5.55341
5.56662
5.58006
5.59293
5.60499
5.61663
5.62795
5.63727
5.64641
5.65572
5.66484
5.67299
5.67937
5.68358
5.6863
5.68869
5.69137
5.694
5.69577
5.69614
5.69493
5.69314
5.6915
5.69024
5.68925
5.68756
5.68452
5.67992
5.67435
5.6695
5.66706
1.40001
1.40001
1.40001
1.40001
1.40001
1.40001
1.40001
1.40001
1.40001
1.40001
1.40001
1.40001
1.40001
1.40001
1.40001
1.40001
1.40001
1.40001
1.40001
1.40001
1.40001
1.40001
1.40001
1.40001
1.40001
1.40001
1.40001
1.40001
1.40001
1.40001
1.40001
1.40001
1.40001
1.40001
1.40001
1.40001
1.40001
1.40001
1.40001
1.40001
1.40001
1.40001
1.40001
1.40001
1.40001
1.40001
1.40001
1.40001
1.40001
1.40001
1.67522
4.61706
5.48965
5.43588
5.43863
5.44365
5.45323
5.46484
5.47654
5.48718
5.49579
5.50329
5.51118
5.52014
5.53005
5.54085
5.55246
5.56438
5.57584
5.5867
5.59675
5.60691
5.6168
5.62557
5.63433
5.64317
5.65115
5.65755
5.66181
5.66421
5.66576
5.66718
5.66848
5.66904
5.6681
5.66556
5.66225
5.65893
5.65584
5.65288
5.64922
5.64443
5.63852
5.63211
5.62685
5.6243
1.40001
1.40001
1.40001
1.40001
1.40001
1.40001
1.40001
1.40001
1.40001
1.40001
1.40001
1.40001
1.40001
1.40001
1.40001
1.40001
1.40001
1.40001
1.40001
1.40001
1.40001
1.40001
1.40001
1.40001
1.40001
1.40001
1.40001
1.40001
1.40001
1.40001
1.40001
1.40001
1.40001
1.40001
1.40001
1.40001
1.40001
1.40001
1.40001
1.40001
1.40001
1.40001
1.40001
1.40001
1.40001
1.40001
1.40001
1.40001
1.40001
1.40001
1.42122
4.256
5.43625
5.40508
5.42253
5.43678
5.4503
5.46349
5.4773
5.48916
5.49739
5.50316
5.5085
5.51487
5.52226
5.53071
5.54011
5.55009
5.55985
5.56916
5.57779
5.5862
5.59501
5.60333
5.61151
5.61975
5.62728
5.63346
5.63773
5.63996
5.64083
5.64107
5.64098
5.64004
5.63758
5.63351
5.6284
5.62307
5.61777
5.61259
5.60672
5.59965
5.59145
5.58291
5.57608
5.57233
1.40001
1.40001
1.40001
1.40001
1.40001
1.40001
1.40001
1.40001
1.40001
1.40001
1.40001
1.40001
1.40001
1.40001
1.40001
1.40001
1.40001
1.40001
1.40001
1.40001
1.40001
1.40001
1.40001
1.40001
1.40001
1.40001
1.40001
1.40001
1.40001
1.40001
1.40001
1.40001
1.40001
1.40001
1.40001
1.40001
1.40001
1.40001
1.40001
1.40001
1.40001
1.40001
1.40001
1.40001
1.40001
1.40001
1.40001
1.40001
1.40001
1.40001
1.4001
3.76608
5.29591
5.3516
5.38719
5.41224
5.43537
5.45476
5.47073
5.48341
5.49375
5.50185
5.5073
5.51223
5.51764
5.52381
5.5306
5.53787
5.54526
5.55265
5.55962
5.56645
5.57398
5.58126
5.58812
5.59512
5.60175
5.60726
5.61122
5.61326
5.61354
5.6127
5.61115
5.6085
5.60429
5.59839
5.59124
5.5835
5.57528
5.56665
5.557
5.54622
5.53482
5.52419
5.51641
5.51272
1.40001
1.40001
1.40001
1.40001
1.40001
1.40001
1.40001
1.40001
1.40001
1.40001
1.40001
1.40001
1.40001
1.40001
1.40001
1.40001
1.40001
1.40001
1.40001
1.40001
1.40001
1.40001
1.40001
1.40001
1.40001
1.40001
1.40001
1.40001
1.40001
1.40001
1.40001
1.40001
1.40001
1.40001
1.40001
1.40001
1.40001
1.40001
1.40001
1.40001
1.40001
1.40001
1.40001
1.40001
1.40001
1.40001
1.40001
1.40001
1.40001
1.40001
1.4
3.30279
5.19845
5.3036
5.35431
5.39126
5.41614
5.43715
5.45732
5.47402
5.48754
5.49593
5.50315
5.50893
5.51385
5.51848
5.52304
5.52769
5.53252
5.53762
5.5427
5.54766
5.55343
5.55951
5.56498
5.57009
5.57506
5.57951
5.58279
5.58437
5.58391
5.58207
5.57899
5.57454
5.56833
5.56022
5.5505
5.53964
5.52771
5.51499
5.50122
5.48652
5.47098
5.45529
5.44233
5.43428
1.40001
1.40001
1.40001
1.40001
1.40001
1.40001
1.40001
1.40001
1.40001
1.40001
1.40001
1.40001
1.40001
1.40001
1.40001
1.40001
1.40001
1.40001
1.40001
1.40001
1.40001
1.40001
1.40001
1.40001
1.40001
1.40001
1.40001
1.40001
1.40001
1.40001
1.40001
1.40001
1.40001
1.40001
1.40001
1.40001
1.40001
1.40001
1.40001
1.40001
1.40001
1.40001
1.40001
1.40001
1.40001
1.40001
1.40001
1.40001
1.40001
1.40001
1.4
2.81704
5.04404
5.29515
5.34009
5.37026
5.39634
5.41834
5.43884
5.45559
5.47032
5.48349
5.4931
5.50052
5.5068
5.51179
5.51566
5.51873
5.5215
5.52441
5.52747
5.53046
5.53406
5.53814
5.54184
5.545
5.54795
5.55055
5.55266
5.55338
5.55193
5.54899
5.54429
5.53785
5.52938
5.51868
5.50587
5.49125
5.47485
5.4568
5.43656
5.41387
5.38955
5.36633
5.34809
5.34059
1.40001
1.40001
1.40001
1.40001
1.40001
1.40001
1.40001
1.40001
1.40001
1.40001
1.40001
1.40001
1.40001
1.40001
1.40001
1.40001
1.40001
1.40001
1.40001
1.40001
1.40001
1.40001
1.40001
1.40001
1.40001
1.40001
1.40001
1.40001
1.40001
1.40001
1.40001
1.40001
1.40001
1.40001
1.40001
1.40001
1.40001
1.40001
1.40001
1.40001
1.40001
1.40001
1.40001
1.40001
1.40001
1.40001
1.40001
1.40001
1.40001
1.40001
1.40001
2.32967
4.88465
5.32981
5.34383
5.36424
5.38564
5.40633
5.42297
5.43816
5.45204
5.46488
5.47645
5.48651
5.49486
5.50124
5.50593
5.50897
5.5109
5.51233
5.51366
5.5148
5.51618
5.51781
5.51916
5.52003
5.52082
5.52125
5.52155
5.52062
5.51807
5.51373
5.50726
5.49866
5.48762
5.47389
5.45738
5.43817
5.41596
5.39075
5.36225
5.33093
5.2975
5.26366
5.22906
5.20088
1.40001
1.40001
1.40001
1.40001
1.40001
1.40001
1.40001
1.40001
1.40001
1.40001
1.40001
1.40001
1.40001
1.40001
1.40001
1.40001
1.40001
1.40001
1.40001
1.40001
1.40001
1.40001
1.40001
1.40001
1.40001
1.40001
1.40001
1.40001
1.40001
1.40001
1.40001
1.40001
1.40001
1.40001
1.40001
1.40001
1.40001
1.40001
1.40001
1.40001
1.40001
1.40001
1.40001
1.40001
1.40001
1.40001
1.40001
1.40001
1.40001
1.40001
1.40001
1.83485
4.72196
5.41855
5.36782
5.37279
5.38187
5.39365
5.40715
5.42156
5.43478
5.4469
5.45845
5.46868
5.47777
5.4856
5.49181
5.49604
5.49855
5.49976
5.50016
5.50002
5.49951
5.4987
5.49733
5.49563
5.49388
5.49177
5.48946
5.48641
5.48216
5.4761
5.46771
5.45679
5.44292
5.42575
5.4049
5.38022
5.35117
5.31764
5.27883
5.23335
5.17789
5.11252
5.049
5.00433
1.40001
1.40001
1.40001
1.40001
1.40001
1.40001
1.40001
1.40001
1.40001
1.40001
1.40001
1.40001
1.40001
1.40001
1.40001
1.40001
1.40001
1.40001
1.40001
1.40001
1.40001
1.40001
1.40001
1.40001
1.40001
1.40001
1.40001
1.40001
1.40001
1.40001
1.40001
1.40001
1.40001
1.40001
1.40001
1.40001
1.40001
1.40001
1.40001
1.40001
1.40001
1.40001
1.40001
1.40001
1.40001
1.40001
1.40001
1.40001
1.40001
1.40001
1.40001
1.4512
4.28806
5.43498
5.38748
5.37983
5.38021
5.3898
5.4001
5.41042
5.4204
5.43016
5.44037
5.45046
5.45959
5.46731
5.47407
5.47965
5.48342
5.48536
5.48583
5.48518
5.48344
5.48065
5.47673
5.47228
5.46759
5.46274
5.45728
5.45147
5.44479
5.43663
5.42609
5.41264
5.39565
5.37458
5.34878
5.31785
5.28083
5.23681
5.18348
5.11795
5.03814
4.94228
4.83437
4.7557
1.40001
1.40001
1.40001
1.40001
1.40001
1.40001
1.40001
1.40001
1.40001
1.40001
1.40001
1.40001
1.40001
1.40001
1.40001
1.40001
1.40001
1.40001
1.40001
1.40001
1.40001
1.40001
1.40001
1.40001
1.40001
1.40001
1.40001
1.40001
1.40001
1.40001
1.40001
1.40001
1.40001
1.40001
1.40001
1.40001
1.40001
1.40001
1.40001
1.40001
1.40001
1.40001
1.40001
1.40001
1.40001
1.40001
1.40001
1.40001
1.40001
1.40001
1.40001
1.40028
3.69868
5.28131
5.31991
5.35489
5.3743
5.38699
5.39633
5.40425
5.41128
5.41781
5.42484
5.43263
5.4407
5.44807
5.45449
5.46018
5.46488
5.4679
5.46905
5.46871
5.46657
5.46268
5.4568
5.44976
5.44221
5.43436
5.42543
5.4161
5.40621
5.3953
5.38231
5.36614
5.34582
5.32058
5.28939
5.25153
5.20546
5.14947
5.08032
4.9937
4.87826
4.70484
4.35504
3.44323
1.40001
1.40001
1.40001
1.40001
1.40001
1.40001
1.40001
1.40001
1.40001
1.40001
1.40001
1.40001
1.40001
1.40001
1.40001
1.40001
1.40001
1.40001
1.40001
1.40001
1.40001
1.40001
1.40001
1.40001
1.40001
1.40001
1.40001
1.40001
1.40001
1.40001
1.40001
1.40001
1.40001
1.40001
1.40001
1.40001
1.40001
1.40001
1.40001
1.40001
1.40001
1.40001
1.40001
1.40001
1.40001
1.40001
1.40001
1.40001
1.40001
1.40001
1.40001
1.4
3.08859
5.11866
5.30032
5.34337
5.36343
5.3777
5.38809
5.39723
5.40418
5.40914
5.41346
5.41816
5.42361
5.42934
5.43473
5.43964
5.44408
5.44764
5.44958
5.44989
5.448
5.44378
5.43683
5.42785
5.41769
5.40666
5.39449
5.38122
5.36755
5.35316
5.33711
5.31791
5.294
5.26431
5.2274
5.18218
5.12655
5.05768
4.97062
4.85566
4.6952
4.43744
4.02677
3.01012
1.40001
1.40001
1.40001
1.40001
1.40001
1.40001
1.40001
1.40001
1.40001
1.40001
1.40001
1.40001
1.40001
1.40001
1.40001
1.40001
1.40001
1.40001
1.40001
1.40001
1.40001
1.40001
1.40001
1.40001
1.40001
1.40001
1.40001
1.40001
1.40001
1.40001
1.40001
1.40001
1.40001
1.40001
1.40001
1.40001
1.40001
1.40001
1.40001
1.40001
1.40001
1.40001
1.40001
1.40001
1.40001
1.40001
1.40001
1.40001
1.40001
1.40001
1.40001
1.4
2.50166
4.93491
5.3044
5.33335
5.3556
5.36867
5.37873
5.38783
5.39552
5.40091
5.40449
5.40703
5.40947
5.41249
5.41576
5.41904
5.42231
5.42534
5.42748
5.4282
5.42678
5.42273
5.41559
5.40556
5.39337
5.37955
5.36441
5.34726
5.32937
5.31079
5.29084
5.26805
5.24034
5.20617
5.16358
5.111
5.04576
4.96422
4.85932
4.72124
4.5235
4.25544
3.71564
2.88395
1.40001
1.40001
1.40001
1.40001
1.40001
1.40001
1.40001
1.40001
1.40001
1.40001
1.40001
1.40001
1.40001
1.40001
1.40001
1.40001
1.40001
1.40001
1.40001
1.40001
1.40001
1.40001
1.40001
1.40001
1.40001
1.40001
1.40001
1.40001
1.40001
1.40001
1.40001
1.40001
1.40001
1.40001
1.40001
1.40001
1.40001
1.40001
1.40001
1.40001
1.40001
1.40001
1.40001
1.40001
1.40001
1.40001
1.40001
1.40001
1.40001
1.40001
1.40001
1.4
1.92394
4.74696
5.37047
5.3393
5.34434
5.35461
5.36669
5.3768
5.38503
5.39109
5.39515
5.39723
5.39788
5.39844
5.39914
5.4
5.40121
5.4027
5.40402
5.40443
5.40309
5.39923
5.39239
5.38198
5.36858
5.35268
5.33484
5.31431
5.29228
5.26918
5.24469
5.21759
5.18562
5.1469
5.09877
5.0393
4.96492
4.87217
4.75193
4.59631
4.37684
4.06732
3.53796
2.85952
1.40001
1.40001
1.40001
1.40001
1.40001
1.40001
1.40001
1.40001
1.40001
1.40001
1.40001
1.40001
1.40001
1.40001
1.40001
1.40001
1.40001
1.40001
1.40001
1.40001
1.40001
1.40001
1.40001
1.40001
1.40001
1.40001
1.40001
1.40001
1.40001
1.40001
1.40001
1.40001
1.40001
1.40001
1.40001
1.40001
1.40001
1.40001
1.40001
1.40001
1.40001
1.40001
1.40001
1.40001
1.40001
1.40001
1.40001
1.40001
1.40001
1.40001
1.40001
1.40001
1.47124
4.28076
5.3908
5.35036
5.33816
5.34406
5.35486
5.36363
5.37168
5.37836
5.38326
5.38602
5.38659
5.38607
5.38485
5.3832
5.38172
5.38075
5.38032
5.3795
5.37744
5.37324
5.36664
5.35632
5.34239
5.3253
5.30527
5.28223
5.25664
5.22906
5.19955
5.1674
5.13054
5.08713
5.03383
4.96842
4.88622
4.78407
4.65265
4.48167
4.25247
3.92465
3.45428
2.90972
1.40001
1.40001
1.40001
1.40001
1.40001
1.40001
1.40001
1.40001
1.40001
1.40001
1.40001
1.40001
1.40001
1.40001
1.40001
1.40001
1.40001
1.40001
1.40001
1.40001
1.40001
1.40001
1.40001
1.40001
1.40001
1.40001
1.40001
1.40001
1.40001
1.40001
1.40001
1.40001
1.40001
1.40001
1.40001
1.40001
1.40001
1.40001
1.40001
1.40001
1.40001
1.40001
1.40001
1.40001
1.40001
1.40001
1.40001
1.40001
1.40001
1.40001
1.40001
1.40001
1.40051
3.61454
5.21714
5.28778
5.31756
5.3312
5.34144
5.34918
5.35664
5.36324
5.36849
5.37199
5.37333
5.37305
5.3712
5.36802
5.36429
5.36062
5.35759
5.35477
5.35115
5.34588
5.33867
5.32845
5.31437
5.29665
5.27532
5.25047
5.22207
5.19051
5.156
5.11847
5.07632
5.02789
4.96963
4.89909
4.81074
4.70121
4.56258
4.38354
4.14907
3.83273
3.42914
2.97535
1.40001
1.40001
1.40001
1.40001
1.40001
1.40001
1.40001
1.40001
1.40001
1.40001
1.40001
1.40001
1.40001
1.40001
1.40001
1.40001
1.40001
1.40001
1.40001
1.40001
1.40001
1.40001
1.40001
1.40001
1.40001
1.40001
1.40001
1.40001
1.40001
1.40001
1.40001
1.40001
1.40001
1.40001
1.40001
1.40001
1.40001
1.40001
1.40001
1.40001
1.40001
1.40001
1.40001
1.40001
1.40001