/*--------------------------------*- C++ -*----------------------------------*\
  =========                 |
  \\      /  F ield         | OpenFOAM: The Open Source CFD Toolbox
   \\    /   O peration     | Website:  https://openfoam.org
    \\  /    A nd           | Version:  7
     \\/     M anipulation  |
\*---------------------------------------------------------------------------*/
FoamFile
{
    version     2.0;
    format      ascii;
    class       volVectorField;
    location    "3.1";
    object      U;
}
// * * * * * * * * * * * * * * * * * * * * * * * * * * * * * * * * * * * * * //

dimensions      [0 1 -1 0 0 0 0];

internalField   nonuniform List<vector> 
64512
(
(3 1.17519e-16 0)
(3 -1.08552e-16 0)
(3 -1.51698e-16 0)
(3 -2.29742e-16 0)
(3 -3.23743e-16 0)
(3 -3.86739e-16 0)
(3 1.09149e-16 0)
(3 5.06213e-16 0)
(3 3.97768e-16 0)
(3 3.03748e-16 0)
(3 4.24454e-16 0)
(3 4.61852e-16 0)
(3 3.00079e-16 0)
(3 -1.88527e-16 0)
(3 -8.32304e-16 0)
(3 -7.3935e-16 0)
(3 -8.35588e-16 0)
(3 5.34045e-17 0)
(3 3.45406e-16 0)
(3 6.28086e-16 0)
(3 1.06382e-15 0)
(3 7.68309e-16 0)
(3 -4.64015e-17 0)
(3 -3.70869e-16 0)
(3 -6.51207e-16 0)
(3 -8.11214e-16 0)
(3 1.26475e-16 0)
(3 2.62197e-16 0)
(3 5.45414e-16 0)
(3 8.59696e-16 0)
(3 8.9655e-16 0)
(3 4.79997e-16 0)
(3 7.77474e-17 0)
(3 -4.07244e-16 0)
(3 1.13687e-17 0)
(3 6.33212e-16 0)
(3 6.31507e-16 0)
(3 3.94631e-16 0)
(3 4.4941e-16 0)
(3 2.79847e-17 0)
(3 -4.24753e-16 0)
(3 -7.55638e-16 0)
(3 -7.61369e-16 0)
(3 -6.37979e-16 0)
(3 -8.47311e-16 0)
(3 -1.21679e-15 0)
(3 -9.36146e-16 0)
(3 -5.68346e-16 0)
(3 -1.12919e-15 0)
(1.22344 0.00414897 0)
(0.772761 0.00286324 0)
(0.750214 0.00760213 0)
(0.73281 0.00736833 0)
(0.715874 0.00679024 0)
(0.700414 0.00603386 0)
(0.686233 0.00562424 0)
(0.672703 0.00562487 0)
(0.659095 0.00592354 0)
(0.644768 0.00646823 0)
(0.629216 0.00711999 0)
(0.612393 0.00757489 0)
(0.595027 0.00747758 0)
(0.578364 0.00680732 0)
(0.56323 0.0061334 0)
(0.549387 0.00592588 0)
(0.535957 0.00618195 0)
(0.522115 0.00677697 0)
(0.507195 0.00755768 0)
(0.490576 0.00811003 0)
(0.473249 0.00786431 0)
(0.456744 0.0071381 0)
(0.441416 0.00690314 0)
(0.42628 0.00733296 0)
(0.410301 0.00786204 0)
(0.39372 0.00797826 0)
(0.377243 0.00782204 0)
(0.361023 0.00779182 0)
(0.344663 0.00791265 0)
(0.328033 0.00804475 0)
(0.311255 0.00814698 0)
(0.294507 0.00822446 0)
(0.277734 0.00829334 0)
(0.26088 0.00837451 0)
(0.243912 0.00847765 0)
(0.226772 0.00860371 0)
(0.209408 0.00873248 0)
(0.191763 0.00887325 0)
(0.173713 0.00904161 0)
(0.155093 0.00925859 0)
(0.135808 0.00949311 0)
(0.115913 0.00974281 0)
(0.0954698 0.0100328 0)
(0.0745876 0.0102903 0)
(0.0533496 0.010533 0)
(0.0319749 0.010611 0)
(0.0108095 0.0106815 0)
(3 4.82335e-16 0)
(3 8.02135e-17 0)
(3 -3.95741e-16 0)
(3 -6.78051e-16 0)
(3 -5.47966e-16 0)
(3 -2.47527e-16 0)
(3 1.58636e-16 0)
(3 5.49393e-16 0)
(3 4.23202e-16 0)
(3 4.65203e-16 0)
(3 -2.57665e-17 0)
(3 -2.26304e-16 0)
(3 -4.1238e-16 0)
(3 -7.97835e-16 0)
(3 -9.39459e-16 0)
(3 -7.77338e-16 0)
(3 -5.48784e-16 0)
(3 4.42296e-16 0)
(3 4.6991e-16 0)
(3 8.74044e-17 0)
(3 4.7967e-16 0)
(3 8.05736e-16 0)
(3 -8.22591e-17 0)
(3 -1.20837e-15 0)
(3 -1.27517e-15 0)
(3 -6.41875e-16 0)
(3 1.99832e-16 0)
(3 6.34401e-16 0)
(3 5.89352e-16 0)
(3 4.0648e-16 0)
(3 6.6114e-16 0)
(3 6.65102e-16 0)
(3 5.8241e-16 0)
(3 3.62113e-16 0)
(3 7.9347e-16 0)
(3 1.43755e-15 0)
(3 1.53952e-15 0)
(3 1.74364e-15 0)
(3 1.30539e-15 0)
(3 2.63893e-16 0)
(3 -6.33894e-16 0)
(3 -4.85745e-16 0)
(3 -6.80782e-16 0)
(3 -1.06172e-15 0)
(3 -1.79264e-15 0)
(3 -2.63785e-15 0)
(3 -1.78563e-15 0)
(3 -1.66461e-15 0)
(3 -1.45649e-15 0)
(1.23113 0.0193731 0)
(0.769456 0.013028 0)
(0.746585 0.0211861 0)
(0.730162 0.0212309 0)
(0.713427 0.0200417 0)
(0.69769 0.0180075 0)
(0.683031 0.0164965 0)
(0.669156 0.0161783 0)
(0.655418 0.0169451 0)
(0.641176 0.0185827 0)
(0.625913 0.0206037 0)
(0.609497 0.0220853 0)
(0.592486 0.0220826 0)
(0.575896 0.0204805 0)
(0.560481 0.0185026 0)
(0.546247 0.0175674 0)
(0.532566 0.0180769 0)
(0.518658 0.0197596 0)
(0.503853 0.0221023 0)
(0.487416 0.0238052 0)
(0.470218 0.0232726 0)
(0.453696 0.0213056 0)
(0.438119 0.0205191 0)
(0.422854 0.021666 0)
(0.406902 0.0231696 0)
(0.390423 0.0235252 0)
(0.374054 0.0231729 0)
(0.357873 0.0231885 0)
(0.341532 0.0235939 0)
(0.32495 0.0239987 0)
(0.308259 0.0243156 0)
(0.291619 0.0245666 0)
(0.274954 0.0247926 0)
(0.258213 0.0250528 0)
(0.241376 0.0253816 0)
(0.224389 0.0257901 0)
(0.207205 0.0262144 0)
(0.189762 0.0266687 0)
(0.171944 0.0271878 0)
(0.15359 0.0278386 0)
(0.134599 0.0285453 0)
(0.115007 0.0293137 0)
(0.0948574 0.0302246 0)
(0.074231 0.0310525 0)
(0.0532028 0.0318393 0)
(0.0319669 0.0321396 0)
(0.0108541 0.0324486 0)
(3 -9.30484e-17 0)
(3 -4.05976e-16 0)
(3 -5.85815e-16 0)
(3 -5.05476e-16 0)
(3 -2.78243e-16 0)
(3 -4.42926e-16 0)
(3 -4.36185e-16 0)
(3 -7.5478e-16 0)
(3 -7.29588e-16 0)
(3 -5.0784e-16 0)
(3 -8.62834e-16 0)
(3 -1.10456e-15 0)
(3 -1.01409e-15 0)
(3 -7.921e-16 0)
(3 5.74958e-18 0)
(3 -1.49048e-16 0)
(3 -3.94569e-16 0)
(3 1.13945e-16 0)
(3 -4.55124e-17 0)
(3 -6.03013e-16 0)
(3 -1.64371e-16 0)
(3 6.72772e-16 0)
(3 7.20455e-16 0)
(3 4.29553e-16 0)
(3 6.06542e-16 0)
(3 5.84939e-16 0)
(3 1.02045e-15 0)
(3 1.05155e-15 0)
(3 6.53805e-16 0)
(3 4.27604e-17 0)
(3 -8.14066e-17 0)
(3 3.27641e-16 0)
(3 1.26912e-15 0)
(3 2.02579e-15 0)
(3 2.05762e-15 0)
(3 2.29041e-15 0)
(3 2.38612e-15 0)
(3 2.63083e-15 0)
(3 2.98576e-15 0)
(3 1.83197e-15 0)
(3 1.45914e-15 0)
(3 1.6239e-15 0)
(3 1.0467e-15 0)
(3 -1.05577e-15 0)
(3 -1.99963e-15 0)
(3 -1.6719e-15 0)
(3 -1.20158e-15 0)
(3 -1.31977e-15 0)
(3 -5.31962e-16 0)
(1.25188 0.0332219 0)
(0.76984 0.0233165 0)
(0.747035 0.0341622 0)
(0.731268 0.0350401 0)
(0.714682 0.0338097 0)
(0.698545 0.0310358 0)
(0.683054 0.0286654 0)
(0.668327 0.027901 0)
(0.653985 0.028817 0)
(0.639496 0.0311447 0)
(0.624362 0.0341508 0)
(0.608314 0.0364077 0)
(0.591707 0.036561 0)
(0.575295 0.0344588 0)
(0.559643 0.0316149 0)
(0.544896 0.0300504 0)
(0.530739 0.0306534 0)
(0.516562 0.0331622 0)
(0.501766 0.0368238 0)
(0.485435 0.0394986 0)
(0.468315 0.0387794 0)
(0.451762 0.0358364 0)
(0.435827 0.0345922 0)
(0.420273 0.0363258 0)
(0.404179 0.0386177 0)
(0.387607 0.0391062 0)
(0.37116 0.0385521 0)
(0.354851 0.0386369 0)
(0.338372 0.0393088 0)
(0.321672 0.0399335 0)
(0.304895 0.0404157 0)
(0.288182 0.0408119 0)
(0.271452 0.0411806 0)
(0.254666 0.0415997 0)
(0.237813 0.0421124 0)
(0.220852 0.0427403 0)
(0.203735 0.0433913 0)
(0.186418 0.0441042 0)
(0.168806 0.0449398 0)
(0.150761 0.0460033 0)
(0.132164 0.0471583 0)
(0.113017 0.0484119 0)
(0.0933227 0.0499219 0)
(0.0731192 0.0513351 0)
(0.0524865 0.0527282 0)
(0.0315931 0.0533541 0)
(0.0107759 0.054034 0)
(3 -2.84881e-16 0)
(3 -1.0076e-16 0)
(3 -8.56543e-17 0)
(3 5.00436e-17 0)
(3 -6.95238e-17 0)
(3 -5.34123e-16 0)
(3 -1.33103e-15 0)
(3 -1.46405e-15 0)
(3 -1.17079e-15 0)
(3 -1.16091e-15 0)
(3 -8.9104e-16 0)
(3 -6.29046e-16 0)
(3 -6.78917e-16 0)
(3 -2.9654e-16 0)
(3 6.22369e-17 0)
(3 2.43104e-16 0)
(3 -2.23825e-16 0)
(3 -6.78862e-18 0)
(3 2.29996e-16 0)
(3 7.39501e-16 0)
(3 7.36854e-16 0)
(3 2.83818e-16 0)
(3 6.96009e-16 0)
(3 9.98981e-16 0)
(3 1.1289e-15 0)
(3 9.09102e-16 0)
(3 8.97317e-16 0)
(3 6.47995e-16 0)
(3 4.81051e-16 0)
(3 3.87691e-16 0)
(3 3.62881e-16 0)
(3 4.66033e-16 0)
(3 1.15802e-15 0)
(3 1.55283e-15 0)
(3 1.83636e-15 0)
(3 1.77106e-15 0)
(3 1.95986e-15 0)
(3 2.2578e-15 0)
(3 2.69177e-15 0)
(3 2.26424e-15 0)
(3 1.95817e-15 0)
(3 2.59331e-15 0)
(3 1.99818e-15 0)
(3 8.99452e-16 0)
(3 2.66503e-17 0)
(3 -1.6363e-16 0)
(3 -1.12648e-16 0)
(3 3.58387e-16 0)
(3 4.34277e-16 0)
(1.28183 0.04631 0)
(0.770735 0.0337061 0)
(0.747822 0.0462221 0)
(0.732826 0.0481579 0)
(0.716655 0.0472903 0)
(0.70048 0.0443291 0)
(0.684587 0.0413302 0)
(0.669372 0.0400525 0)
(0.654686 0.0409417 0)
(0.640127 0.0437079 0)
(0.625236 0.0473806 0)
(0.609617 0.0501866 0)
(0.593427 0.0505748 0)
(0.577149 0.0484037 0)
(0.561254 0.0451214 0)
(0.546045 0.0430255 0)
(0.531476 0.0436105 0)
(0.517108 0.0467472 0)
(0.502429 0.0515065 0)
(0.486285 0.0550133 0)
(0.469225 0.0542925 0)
(0.452546 0.0507053 0)
(0.436151 0.0491368 0)
(0.420218 0.05137 0)
(0.403901 0.0543193 0)
(0.387129 0.0549084 0)
(0.370464 0.0542178 0)
(0.353866 0.0544371 0)
(0.337092 0.0553871 0)
(0.320109 0.0562121 0)
(0.30307 0.0568409 0)
(0.286089 0.057375 0)
(0.26908 0.0578783 0)
(0.252015 0.0584311 0)
(0.234902 0.0590733 0)
(0.217712 0.0598391 0)
(0.200413 0.0606201 0)
(0.182989 0.0614911 0)
(0.165387 0.0625428 0)
(0.147501 0.0639221 0)
(0.129204 0.0654368 0)
(0.110454 0.0670967 0)
(0.0912252 0.0691607 0)
(0.0715063 0.0711597 0)
(0.0513856 0.0732067 0)
(0.0309721 0.0742496 0)
(0.0106171 0.0754227 0)
(3 3.5574e-16 0)
(3 7.09001e-16 0)
(3 7.19832e-16 0)
(3 -1.33462e-16 0)
(3 -6.02543e-16 0)
(3 -6.25469e-16 0)
(3 -1.0145e-15 0)
(3 -9.3742e-16 0)
(3 -5.84757e-16 0)
(3 -4.41361e-16 0)
(3 -3.36402e-16 0)
(3 -5.4974e-16 0)
(3 -5.08486e-16 0)
(3 -2.5553e-16 0)
(3 -1.04848e-16 0)
(3 -5.1213e-16 0)
(3 -1.00435e-15 0)
(3 -9.71855e-16 0)
(3 -6.82663e-16 0)
(3 -3.54818e-16 0)
(3 3.62827e-16 0)
(3 7.65924e-16 0)
(3 5.54947e-16 0)
(3 9.79071e-16 0)
(3 9.53718e-16 0)
(3 8.51442e-16 0)
(3 6.94293e-17 0)
(3 3.51006e-17 0)
(3 -3.03835e-16 0)
(3 -1.55441e-16 0)
(3 1.92556e-16 0)
(3 3.03484e-16 0)
(3 9.58269e-16 0)
(3 1.68709e-15 0)
(3 2.31261e-15 0)
(3 1.90451e-15 0)
(3 2.41913e-15 0)
(3 2.34122e-15 0)
(3 1.97373e-15 0)
(3 1.91236e-15 0)
(3 1.63568e-15 0)
(3 9.75214e-16 0)
(3 1.29031e-15 0)
(3 1.62544e-15 0)
(3 1.42722e-15 0)
(3 2.91071e-16 0)
(3 -1.69637e-16 0)
(3 1.67362e-17 0)
(3 1.62616e-15 0)
(1.3218 0.0592928 0)
(0.77248 0.0441694 0)
(0.748276 0.0577856 0)
(0.733591 0.060881 0)
(0.717531 0.0606321 0)
(0.701233 0.0579653 0)
(0.68502 0.0545518 0)
(0.669442 0.0526076 0)
(0.654544 0.0532162 0)
(0.640047 0.0561495 0)
(0.625515 0.0602741 0)
(0.610369 0.0635497 0)
(0.594555 0.0643658 0)
(0.578331 0.0625217 0)
(0.56216 0.0591564 0)
(0.546549 0.0565158 0)
(0.531701 0.0567957 0)
(0.51739 0.0602416 0)
(0.503195 0.0658469 0)
(0.48761 0.0701209 0)
(0.470858 0.0696727 0)
(0.454221 0.0657804 0)
(0.437561 0.0639699 0)
(0.421436 0.0665697 0)
(0.405083 0.0700394 0)
(0.388269 0.0707222 0)
(0.371496 0.0699933 0)
(0.354692 0.0704424 0)
(0.337684 0.0717216 0)
(0.320441 0.0727756 0)
(0.303124 0.0735814 0)
(0.285821 0.0742933 0)
(0.268444 0.0749685 0)
(0.250976 0.0756735 0)
(0.233439 0.0764328 0)
(0.215827 0.0772926 0)
(0.198126 0.0781367 0)
(0.180358 0.0790799 0)
(0.162511 0.0802373 0)
(0.144523 0.0817954 0)
(0.126266 0.083516 0)
(0.107689 0.0854207 0)
(0.0887719 0.0879126 0)
(0.0694759 0.0904281 0)
(0.0499106 0.0931262 0)
(0.0300828 0.094645 0)
(0.0103582 0.0963927 0)
(3 1.92731e-16 0)
(3 2.3064e-16 0)
(3 9.93535e-17 0)
(3 -5.41569e-16 0)
(3 -1.23307e-15 0)
(3 -1.53927e-15 0)
(3 -1.17526e-15 0)
(3 -1.05683e-15 0)
(3 -8.8767e-16 0)
(3 -9.12484e-16 0)
(3 -1.53099e-15 0)
(3 -1.61359e-15 0)
(3 -1.05296e-15 0)
(3 -9.38283e-16 0)
(3 -7.3368e-16 0)
(3 -1.19284e-15 0)
(3 -1.68991e-15 0)
(3 -1.89566e-15 0)
(3 -1.34097e-15 0)
(3 -3.25309e-16 0)
(3 -8.10436e-17 0)
(3 4.20229e-16 0)
(3 1.00301e-15 0)
(3 1.27102e-15 0)
(3 1.42692e-15 0)
(3 1.03927e-15 0)
(3 2.5851e-16 0)
(3 3.94798e-16 0)
(3 4.94788e-16 0)
(3 8.36093e-16 0)
(3 5.97297e-16 0)
(3 4.64357e-16 0)
(3 7.28139e-16 0)
(3 1.63896e-15 0)
(3 2.33685e-15 0)
(3 3.10379e-15 0)
(3 3.40272e-15 0)
(3 3.08169e-15 0)
(3 2.44688e-15 0)
(3 9.21263e-16 0)
(3 7.6922e-16 0)
(3 3.33619e-16 0)
(3 5.01628e-16 0)
(3 1.44361e-15 0)
(3 1.63477e-15 0)
(3 1.16196e-15 0)
(3 3.16724e-16 0)
(3 -5.67075e-16 0)
(3 -3.99243e-15 0)
(1.37332 0.072562 0)
(0.77539 0.0551153 0)
(0.748548 0.0692241 0)
(0.733999 0.0733744 0)
(0.717979 0.0738369 0)
(0.701678 0.0716364 0)
(0.685306 0.0680155 0)
(0.669487 0.0653891 0)
(0.654414 0.0655486 0)
(0.639933 0.0684693 0)
(0.625652 0.0728839 0)
(0.610858 0.0766083 0)
(0.59531 0.0780238 0)
(0.579106 0.0767854 0)
(0.562692 0.0736368 0)
(0.546717 0.0704851 0)
(0.531561 0.0701323 0)
(0.517255 0.0734971 0)
(0.503585 0.0796719 0)
(0.488693 0.084734 0)
(0.472307 0.084901 0)
(0.455739 0.0810427 0)
(0.438904 0.0790591 0)
(0.422645 0.0818721 0)
(0.40634 0.0857264 0)
(0.389583 0.0865133 0)
(0.372814 0.0858477 0)
(0.355945 0.0866055 0)
(0.338865 0.0882583 0)
(0.32152 0.0895738 0)
(0.30407 0.0905924 0)
(0.286585 0.0915274 0)
(0.268967 0.0924214 0)
(0.251203 0.093315 0)
(0.233327 0.0942092 0)
(0.215354 0.0951659 0)
(0.19729 0.0960678 0)
(0.179174 0.0970668 0)
(0.161017 0.0982845 0)
(0.142779 0.0999301 0)
(0.12434 0.101718 0)
(0.105667 0.103681 0)
(0.0867962 0.10641 0)
(0.0677041 0.109278 0)
(0.0485494 0.112526 0)
(0.02922 0.114498 0)
(0.010091 0.11682 0)
(3 -1.97004e-16 0)
(3 -2.7565e-16 0)
(3 -7.20403e-16 0)
(3 -4.74105e-16 0)
(3 -7.73216e-16 0)
(3 -9.99987e-16 0)
(3 -5.12876e-16 0)
(3 -4.65603e-16 0)
(3 -9.14721e-16 0)
(3 -6.71111e-16 0)
(3 -1.29002e-15 0)
(3 -1.60452e-15 0)
(3 -1.43265e-15 0)
(3 -1.76246e-15 0)
(3 -1.86791e-15 0)
(3 -1.83514e-15 0)
(3 -1.60424e-15 0)
(3 -1.38192e-15 0)
(3 -5.44211e-16 0)
(3 1.50252e-16 0)
(3 1.99968e-16 0)
(3 1.44571e-16 0)
(3 5.25271e-16 0)
(3 5.58032e-16 0)
(3 1.51416e-16 0)
(3 4.4949e-16 0)
(3 1.03957e-16 0)
(3 -5.1281e-17 0)
(3 2.19264e-16 0)
(3 7.24809e-16 0)
(3 3.41743e-16 0)
(3 1.91947e-16 0)
(3 3.65774e-16 0)
(3 9.09261e-16 0)
(3 2.13108e-15 0)
(3 3.03742e-15 0)
(3 3.33663e-15 0)
(3 3.9693e-15 0)
(3 2.99004e-15 0)
(3 3.04246e-16 0)
(3 -2.84992e-16 0)
(3 9.18722e-17 0)
(3 7.93389e-16 0)
(3 1.1591e-15 0)
(3 1.30431e-15 0)
(3 1.13634e-15 0)
(3 -2.48765e-16 0)
(3 -8.60306e-16 0)
(3 -2.78832e-15 0)
(1.43833 0.0862 0)
(0.779776 0.0669196 0)
(0.748847 0.0807022 0)
(0.734407 0.0857239 0)
(0.718333 0.0869032 0)
(0.701956 0.0853735 0)
(0.685372 0.0817931 0)
(0.669324 0.0784234 0)
(0.654118 0.0779481 0)
(0.63974 0.0806924 0)
(0.625759 0.0852694 0)
(0.611345 0.0894531 0)
(0.596075 0.0916009 0)
(0.579946 0.0911673 0)
(0.563353 0.0884992 0)
(0.547034 0.0849787 0)
(0.531504 0.0837017 0)
(0.517024 0.0865265 0)
(0.503766 0.092929 0)
(0.489651 0.0987911 0)
(0.473724 0.0998856 0)
(0.457337 0.0963516 0)
(0.440511 0.0942506 0)
(0.424252 0.0971276 0)
(0.408121 0.10124 0)
(0.391529 0.102148 0)
(0.374867 0.101638 0)
(0.35806 0.102771 0)
(0.341049 0.104841 0)
(0.32374 0.106454 0)
(0.306292 0.10772 0)
(0.288767 0.108918 0)
(0.27106 0.110071 0)
(0.253153 0.111187 0)
(0.235085 0.112241 0)
(0.216893 0.113319 0)
(0.198587 0.114309 0)
(0.180206 0.115396 0)
(0.161753 0.116693 0)
(0.143191 0.118412 0)
(0.124408 0.120217 0)
(0.105408 0.122134 0)
(0.0863052 0.124961 0)
(0.0671083 0.12802 0)
(0.0480418 0.13168 0)
(0.0288699 0.134025 0)
(0.00999387 0.136864 0)
(3 -1.00029e-16 0)
(3 -4.69316e-16 0)
(3 -5.10119e-16 0)
(3 -1.66757e-16 0)
(3 2.25821e-16 0)
(3 3.25051e-16 0)
(3 3.81555e-16 0)
(3 5.6334e-16 0)
(3 3.26235e-16 0)
(3 2.52489e-16 0)
(3 -1.32452e-16 0)
(3 -1.03671e-15 0)
(3 -1.94086e-15 0)
(3 -2.12801e-15 0)
(3 -2.12784e-15 0)
(3 -1.74375e-15 0)
(3 -9.67105e-16 0)
(3 -9.09339e-16 0)
(3 -6.73416e-17 0)
(3 1.23435e-16 0)
(3 3.8728e-16 0)
(3 5.30377e-16 0)
(3 1.87733e-16 0)
(3 -7.52886e-17 0)
(3 -3.42737e-16 0)
(3 -7.06212e-17 0)
(3 4.46277e-17 0)
(3 -5.36118e-16 0)
(3 -5.99054e-16 0)
(3 -9.97366e-16 0)
(3 -7.03773e-16 0)
(3 -6.77523e-16 0)
(3 -3.8136e-16 0)
(3 6.96743e-16 0)
(3 1.3896e-15 0)
(3 1.75893e-15 0)
(3 2.3544e-15 0)
(3 1.08284e-15 0)
(3 4.3382e-16 0)
(3 -7.93863e-16 0)
(3 -2.25508e-15 0)
(3 -4.26509e-16 0)
(3 8.49582e-17 0)
(3 1.17057e-15 0)
(3 1.1193e-15 0)
(3 7.67692e-16 0)
(3 -1.45039e-16 0)
(3 5.97047e-16 0)
(3 -2.21173e-15 0)
(1.51902 0.100124 0)
(0.78575 0.0799968 0)
(0.748985 0.0922097 0)
(0.734782 0.0979798 0)
(0.71864 0.0998911 0)
(0.702261 0.0992092 0)
(0.68544 0.0959084 0)
(0.669035 0.0918325 0)
(0.653548 0.0904086 0)
(0.6392 0.0927115 0)
(0.625575 0.0973391 0)
(0.611657 0.102006 0)
(0.596826 0.105007 0)
(0.580961 0.105553 0)
(0.564364 0.103616 0)
(0.547762 0.10001 0)
(0.531798 0.0976884 0)
(0.516862 0.0995291 0)
(0.503616 0.105748 0)
(0.490117 0.11235 0)
(0.474594 0.114598 0)
(0.458358 0.111636 0)
(0.441602 0.10945 0)
(0.425398 0.112252 0)
(0.409515 0.116522 0)
(0.393171 0.117583 0)
(0.376721 0.117302 0)
(0.360126 0.118841 0)
(0.343366 0.121342 0)
(0.326282 0.123265 0)
(0.309023 0.124791 0)
(0.291636 0.126273 0)
(0.273997 0.127718 0)
(0.256068 0.129096 0)
(0.237892 0.130362 0)
(0.219519 0.131629 0)
(0.20097 0.132796 0)
(0.182272 0.134062 0)
(0.16342 0.135505 0)
(0.144384 0.137326 0)
(0.125088 0.139132 0)
(0.105607 0.140932 0)
(0.0861486 0.14375 0)
(0.0667431 0.146862 0)
(0.0476799 0.150809 0)
(0.0286028 0.153446 0)
(0.00990744 0.156731 0)
(3 6.09172e-17 0)
(3 2.25951e-16 0)
(3 2.43984e-16 0)
(3 -1.79265e-16 0)
(3 -4.07049e-16 0)
(3 6.79649e-17 0)
(3 2.82508e-16 0)
(3 3.72751e-16 0)
(3 4.70811e-16 0)
(3 3.55918e-16 0)
(3 6.08853e-16 0)
(3 1.53951e-16 0)
(3 -8.81079e-16 0)
(3 -1.61336e-15 0)
(3 -2.1068e-15 0)
(3 -1.88607e-15 0)
(3 -9.61411e-16 0)
(3 -4.91566e-16 0)
(3 -9.0909e-16 0)
(3 -8.68238e-16 0)
(3 -8.00509e-16 0)
(3 4.36909e-17 0)
(3 4.89692e-16 0)
(3 7.41216e-16 0)
(3 1.23502e-15 0)
(3 7.58974e-16 0)
(3 4.15772e-16 0)
(3 -1.80695e-17 0)
(3 -4.30189e-16 0)
(3 -3.93503e-16 0)
(3 -3.6192e-16 0)
(3 -4.48873e-16 0)
(3 -4.34287e-16 0)
(3 -3.82472e-16 0)
(3 2.91657e-16 0)
(3 8.92692e-16 0)
(3 6.4344e-16 0)
(3 -2.51621e-16 0)
(3 -1.0148e-16 0)
(3 -4.25585e-16 0)
(3 -5.84495e-16 0)
(3 -1.7891e-16 0)
(3 2.56754e-16 0)
(3 4.35899e-16 0)
(3 -8.24395e-16 0)
(3 -9.21562e-16 0)
(3 1.6875e-16 0)
(3 7.16236e-16 0)
(3 -2.26223e-15 0)
(1.61802 0.114346 0)
(0.793763 0.094922 0)
(0.748919 0.103638 0)
(0.735291 0.110137 0)
(0.719258 0.112696 0)
(0.703091 0.112976 0)
(0.686129 0.110432 0)
(0.669308 0.10601 0)
(0.653249 0.103245 0)
(0.638526 0.104652 0)
(0.624969 0.109066 0)
(0.611437 0.114148 0)
(0.597063 0.118064 0)
(0.581567 0.11974 0)
(0.565128 0.11877 0)
(0.548374 0.11547 0)
(0.532064 0.112238 0)
(0.516591 0.112774 0)
(0.502958 0.118353 0)
(0.489831 0.125533 0)
(0.474653 0.129052 0)
(0.458497 0.126871 0)
(0.441766 0.124621 0)
(0.42552 0.127225 0)
(0.409774 0.131587 0)
(0.393555 0.132854 0)
(0.377204 0.132857 0)
(0.360742 0.134811 0)
(0.344191 0.137749 0)
(0.327327 0.140001 0)
(0.310274 0.14181 0)
(0.293062 0.143613 0)
(0.275547 0.145402 0)
(0.257669 0.147111 0)
(0.239468 0.148669 0)
(0.221019 0.150223 0)
(0.202341 0.151672 0)
(0.183449 0.153208 0)
(0.164315 0.154851 0)
(0.144915 0.156775 0)
(0.125218 0.158541 0)
(0.105377 0.160137 0)
(0.0856816 0.162827 0)
(0.0661604 0.165834 0)
(0.0471686 0.169916 0)
(0.0282477 0.172726 0)
(0.00978257 0.17636 0)
(3 3.71241e-17 0)
(3 -5.82719e-18 0)
(3 -4.19014e-17 0)
(3 -6.92735e-17 0)
(3 -2.58393e-16 0)
(3 -1.04581e-16 0)
(3 -1.50868e-16 0)
(3 -4.40707e-16 0)
(3 -4.80132e-16 0)
(3 -5.4541e-17 0)
(3 7.94932e-16 0)
(3 1.05865e-15 0)
(3 6.03262e-16 0)
(3 -5.49164e-16 0)
(3 -9.07981e-16 0)
(3 -9.58439e-16 0)
(3 -9.49217e-16 0)
(3 -7.88058e-16 0)
(3 -1.19108e-15 0)
(3 -1.14901e-15 0)
(3 -9.77199e-16 0)
(3 -6.53066e-16 0)
(3 1.84397e-16 0)
(3 4.2017e-16 0)
(3 6.35912e-16 0)
(3 8.11796e-16 0)
(3 6.32473e-16 0)
(3 7.91432e-16 0)
(3 5.87997e-16 0)
(3 3.86197e-16 0)
(3 7.06995e-16 0)
(3 1.05709e-15 0)
(3 1.20721e-16 0)
(3 -2.11429e-16 0)
(3 4.95753e-16 0)
(3 4.21744e-16 0)
(3 -8.70253e-16 0)
(3 -4.6129e-16 0)
(3 5.17126e-17 0)
(3 7.58183e-16 0)
(3 2.52184e-15 0)
(3 1.65706e-15 0)
(3 -9.1709e-16 0)
(3 -1.74657e-15 0)
(3 -2.47421e-15 0)
(3 -1.60707e-15 0)
(3 -7.54548e-16 0)
(3 -8.28901e-16 0)
(3 -1.51175e-15 0)
(1.7383 0.127934 0)
(0.80504 0.111968 0)
(0.749339 0.114743 0)
(0.736425 0.121939 0)
(0.720577 0.125052 0)
(0.704803 0.126419 0)
(0.688104 0.124862 0)
(0.671162 0.120677 0)
(0.6546 0.116927 0)
(0.639237 0.117032 0)
(0.625353 0.120851 0)
(0.61193 0.126128 0)
(0.597918 0.130888 0)
(0.58285 0.133741 0)
(0.56675 0.133905 0)
(0.55009 0.131257 0)
(0.533666 0.127435 0)
(0.517829 0.126568 0)
(0.503647 0.131162 0)
(0.490675 0.138664 0)
(0.475845 0.14345 0)
(0.459717 0.142232 0)
(0.442923 0.139955 0)
(0.42653 0.142266 0)
(0.410801 0.146651 0)
(0.394598 0.148143 0)
(0.378252 0.148425 0)
(0.361839 0.15073 0)
(0.345425 0.15405 0)
(0.32872 0.156597 0)
(0.311817 0.158669 0)
(0.294728 0.16079 0)
(0.277298 0.162947 0)
(0.25945 0.165035 0)
(0.241225 0.166964 0)
(0.222721 0.168909 0)
(0.203948 0.170754 0)
(0.184899 0.172658 0)
(0.165516 0.174562 0)
(0.145785 0.176609 0)
(0.125726 0.178327 0)
(0.105566 0.179677 0)
(0.0856492 0.182166 0)
(0.0659796 0.184945 0)
(0.0469772 0.189031 0)
(0.0280929 0.191897 0)
(0.00972141 0.195785 0)
(3 2.57013e-17 0)
(3 -7.34614e-17 0)
(3 4.10968e-17 0)
(3 -1.10432e-17 0)
(3 1.32669e-16 0)
(3 -4.55511e-16 0)
(3 -1.36927e-15 0)
(3 -1.96629e-15 0)
(3 -1.85489e-15 0)
(3 -1.62118e-15 0)
(3 -8.52817e-16 0)
(3 1.43062e-16 0)
(3 1.07014e-15 0)
(3 8.54006e-16 0)
(3 7.09864e-16 0)
(3 3.16263e-16 0)
(3 -5.57388e-17 0)
(3 -6.9181e-16 0)
(3 -8.14407e-16 0)
(3 -9.92919e-16 0)
(3 -8.90434e-16 0)
(3 -8.91795e-17 0)
(3 -2.60343e-17 0)
(3 -2.81724e-16 0)
(3 -5.04405e-16 0)
(3 1.46897e-16 0)
(3 1.13113e-15 0)
(3 1.16695e-15 0)
(3 6.7759e-16 0)
(3 5.58527e-16 0)
(3 1.10797e-15 0)
(3 1.20019e-15 0)
(3 1.10216e-15 0)
(3 9.23102e-16 0)
(3 7.49501e-16 0)
(3 3.41441e-16 0)
(3 4.13557e-16 0)
(3 4.1316e-16 0)
(3 -1.08715e-16 0)
(3 1.01702e-15 0)
(3 2.02401e-15 0)
(3 1.27036e-15 0)
(3 -1.03264e-15 0)
(3 -1.95791e-15 0)
(3 -2.07711e-15 0)
(3 -1.61271e-15 0)
(3 -7.02681e-16 0)
(3 -5.22815e-16 0)
(3 -5.03119e-15 0)
(1.88029 0.138662 0)
(0.820548 0.13051 0)
(0.750592 0.126491 0)
(0.737962 0.133431 0)
(0.722682 0.136864 0)
(0.707785 0.139073 0)
(0.691812 0.138634 0)
(0.675136 0.13525 0)
(0.658425 0.130993 0)
(0.642552 0.129645 0)
(0.628323 0.132523 0)
(0.615129 0.137708 0)
(0.601686 0.143033 0)
(0.587281 0.146934 0)
(0.571735 0.148278 0)
(0.55533 0.14656 0)
(0.538846 0.142602 0)
(0.522667 0.140404 0)
(0.507763 0.143813 0)
(0.494653 0.151388 0)
(0.480162 0.157408 0)
(0.463983 0.157428 0)
(0.447034 0.155274 0)
(0.430296 0.157309 0)
(0.414314 0.161726 0)
(0.39786 0.163512 0)
(0.381239 0.1641 0)
(0.364595 0.166722 0)
(0.348041 0.170388 0)
(0.331237 0.173223 0)
(0.314234 0.175552 0)
(0.297035 0.177986 0)
(0.279497 0.180518 0)
(0.261534 0.183017 0)
(0.243196 0.185369 0)
(0.224596 0.187774 0)
(0.205729 0.190091 0)
(0.186557 0.192421 0)
(0.166992 0.194614 0)
(0.147027 0.196786 0)
(0.126722 0.19845 0)
(0.106349 0.199539 0)
(0.0862539 0.201801 0)
(0.0664146 0.204283 0)
(0.0472864 0.208294 0)
(0.0282524 0.21113 0)
(0.00977609 0.215212 0)
(3 6.38776e-17 0)
(3 1.75859e-16 0)
(3 2.70698e-16 0)
(3 3.26158e-16 0)
(3 1.30571e-16 0)
(3 -5.17116e-16 0)
(3 -4.39559e-16 0)
(3 -3.46657e-16 0)
(3 -4.43743e-16 0)
(3 -8.8723e-16 0)
(3 -1.25624e-15 0)
(3 -8.3724e-16 0)
(3 -6.08628e-16 0)
(3 -5.64547e-16 0)
(3 -4.67245e-17 0)
(3 3.04261e-16 0)
(3 1.78313e-16 0)
(3 -2.44876e-16 0)
(3 -5.6485e-16 0)
(3 -9.04958e-16 0)
(3 -1.04968e-15 0)
(3 4.32632e-16 0)
(3 7.85112e-16 0)
(3 6.34019e-16 0)
(3 4.04647e-16 0)
(3 7.3259e-16 0)
(3 1.51176e-15 0)
(3 8.17359e-16 0)
(3 7.30087e-16 0)
(3 8.57948e-16 0)
(3 8.71825e-16 0)
(3 1.22303e-15 0)
(3 1.56098e-15 0)
(3 1.65771e-15 0)
(3 1.10029e-15 0)
(3 -9.69364e-17 0)
(3 5.88453e-16 0)
(3 1.89751e-15 0)
(3 2.25723e-15 0)
(3 2.62076e-15 0)
(3 1.95662e-15 0)
(3 8.84027e-17 0)
(3 -5.60097e-16 0)
(3 -5.06416e-16 0)
(3 3.01563e-16 0)
(3 3.26977e-16 0)
(3 -3.99874e-16 0)
(3 -3.64073e-16 0)
(3 -1.65577e-15 0)
(2.03914 0.146637 0)
(0.838535 0.150389 0)
(0.752317 0.139401 0)
(0.738441 0.144844 0)
(0.723205 0.148223 0)
(0.708838 0.151191 0)
(0.693401 0.152047 0)
(0.676955 0.149922 0)
(0.660054 0.145863 0)
(0.6436 0.143044 0)
(0.628684 0.144423 0)
(0.615389 0.14908 0)
(0.602449 0.154834 0)
(0.58875 0.159783 0)
(0.573859 0.162444 0)
(0.557858 0.161944 0)
(0.541394 0.158428 0)
(0.525011 0.155207 0)
(0.509442 0.157168 0)
(0.496066 0.164396 0)
(0.482158 0.171414 0)
(0.466348 0.172773 0)
(0.449758 0.170871 0)
(0.433173 0.172617 0)
(0.417368 0.177045 0)
(0.401023 0.179167 0)
(0.384416 0.180062 0)
(0.367763 0.182944 0)
(0.351226 0.186908 0)
(0.334433 0.190015 0)
(0.317392 0.192587 0)
(0.300103 0.195311 0)
(0.282457 0.198204 0)
(0.264372 0.201114 0)
(0.245908 0.203911 0)
(0.227196 0.20681 0)
(0.208213 0.209636 0)
(0.188899 0.212415 0)
(0.169148 0.214907 0)
(0.148974 0.217208 0)
(0.128466 0.218834 0)
(0.107906 0.219691 0)
(0.0876105 0.221754 0)
(0.0675171 0.223945 0)
(0.0481119 0.227867 0)
(0.0287304 0.230627 0)
(0.00994966 0.234892 0)
(3 -1.89261e-16 0)
(3 -6.46121e-17 0)
(3 -1.24733e-16 0)
(3 2.26654e-16 0)
(3 5.01797e-16 0)
(3 1.1775e-15 0)
(3 1.42171e-15 0)
(3 1.30812e-15 0)
(3 6.09735e-16 0)
(3 4.13404e-16 0)
(3 9.56495e-17 0)
(3 -4.11352e-16 0)
(3 -1.0249e-15 0)
(3 -9.25143e-16 0)
(3 -1.00216e-15 0)
(3 -1.10883e-15 0)
(3 -1.54626e-15 0)
(3 -1.33917e-15 0)
(3 -6.59243e-16 0)
(3 -1.79059e-16 0)
(3 2.53464e-17 0)
(3 -1.53891e-16 0)
(3 3.67937e-16 0)
(3 8.73243e-16 0)
(3 1.34849e-15 0)
(3 2.00485e-15 0)
(3 1.42403e-15 0)
(3 9.19042e-16 0)
(3 1.49664e-15 0)
(3 1.66399e-15 0)
(3 1.439e-15 0)
(3 1.75857e-15 0)
(3 2.23525e-15 0)
(3 2.26729e-15 0)
(3 1.29711e-15 0)
(3 7.41081e-16 0)
(3 7.17606e-16 0)
(3 1.44009e-15 0)
(3 3.4555e-15 0)
(3 3.37828e-15 0)
(3 1.13064e-15 0)
(3 3.21229e-16 0)
(3 -1.46225e-16 0)
(3 -7.51653e-17 0)
(3 6.3681e-16 0)
(3 5.37364e-16 0)
(3 -4.13014e-16 0)
(3 -4.6034e-16 0)
(3 -3.00982e-15 0)
(2.21545 0.151246 0)
(0.861298 0.170679 0)
(0.755164 0.153828 0)
(0.740338 0.157441 0)
(0.72479 0.159674 0)
(0.710465 0.163179 0)
(0.695159 0.165344 0)
(0.678765 0.164541 0)
(0.661741 0.161126 0)
(0.644809 0.157497 0)
(0.629007 0.156926 0)
(0.615032 0.160366 0)
(0.602113 0.166053 0)
(0.588907 0.171839 0)
(0.574649 0.175811 0)
(0.559236 0.176677 0)
(0.5431 0.174044 0)
(0.526918 0.170208 0)
(0.511092 0.17061 0)
(0.497462 0.177064 0)
(0.484218 0.184753 0)
(0.468973 0.187525 0)
(0.452848 0.186066 0)
(0.436507 0.187612 0)
(0.420924 0.192118 0)
(0.404743 0.194705 0)
(0.388204 0.195981 0)
(0.371616 0.199132 0)
(0.355165 0.2034 0)
(0.338445 0.206822 0)
(0.321395 0.209683 0)
(0.304007 0.212729 0)
(0.28622 0.216014 0)
(0.267969 0.219375 0)
(0.249329 0.222651 0)
(0.230451 0.226069 0)
(0.211309 0.229413 0)
(0.191833 0.232636 0)
(0.171914 0.235415 0)
(0.151586 0.237842 0)
(0.13094 0.23946 0)
(0.110226 0.240145 0)
(0.0897096 0.242092 0)
(0.0692774 0.244054 0)
(0.0494521 0.247928 0)
(0.0295412 0.250613 0)
(0.0102412 0.255073 0)
(3 -2.15335e-16 0)
(3 -5.66189e-16 0)
(3 -8.04207e-16 0)
(3 -6.46292e-16 0)
(3 -3.1781e-16 0)
(3 2.7923e-16 0)
(3 5.37908e-16 0)
(3 2.73835e-16 0)
(3 3.19141e-16 0)
(3 8.28224e-16 0)
(3 1.1409e-15 0)
(3 5.45961e-16 0)
(3 9.54178e-16 0)
(3 9.5799e-16 0)
(3 -1.71625e-16 0)
(3 -8.56526e-16 0)
(3 -1.00717e-15 0)
(3 -7.56383e-16 0)
(3 -3.2952e-16 0)
(3 5.31307e-17 0)
(3 3.09367e-16 0)
(3 6.21496e-16 0)
(3 1.02473e-15 0)
(3 1.42813e-15 0)
(3 1.32004e-15 0)
(3 3.71189e-16 0)
(3 -5.1201e-16 0)
(3 3.64768e-16 0)
(3 9.21192e-16 0)
(3 2.11872e-15 0)
(3 2.80311e-15 0)
(3 3.02072e-15 0)
(3 2.82856e-15 0)
(3 2.01627e-15 0)
(3 2.04522e-15 0)
(3 2.20247e-15 0)
(3 2.05793e-15 0)
(3 1.83132e-15 0)
(3 1.91943e-15 0)
(3 1.05812e-15 0)
(3 -1.54597e-16 0)
(3 -1.91101e-16 0)
(3 -3.56495e-16 0)
(3 -2.18555e-16 0)
(3 -4.16383e-16 0)
(3 -8.71938e-16 0)
(3 -5.30631e-16 0)
(3 -6.43351e-16 0)
(3 -3.34174e-15 0)
(2.41288 0.151608 0)
(0.894464 0.189735 0)
(0.762734 0.168591 0)
(0.747588 0.17071 0)
(0.730913 0.172337 0)
(0.716158 0.17572 0)
(0.700805 0.178555 0)
(0.68453 0.179268 0)
(0.667476 0.176794 0)
(0.65013 0.172925 0)
(0.633349 0.170773 0)
(0.618062 0.172672 0)
(0.604305 0.177794 0)
(0.590919 0.183953 0)
(0.576859 0.188927 0)
(0.561758 0.191062 0)
(0.545732 0.189558 0)
(0.529459 0.185599 0)
(0.513177 0.184522 0)
(0.498736 0.189861 0)
(0.485583 0.197896 0)
(0.470663 0.202046 0)
(0.454814 0.20118 0)
(0.438707 0.202557 0)
(0.423423 0.207131 0)
(0.407607 0.210229 0)
(0.391363 0.211896 0)
(0.37507 0.215289 0)
(0.358903 0.219858 0)
(0.342414 0.223651 0)
(0.32548 0.226876 0)
(0.308094 0.230301 0)
(0.290253 0.234024 0)
(0.271921 0.237872 0)
(0.253174 0.241646 0)
(0.234185 0.245572 0)
(0.214926 0.249404 0)
(0.195331 0.253034 0)
(0.175296 0.256073 0)
(0.154866 0.258635 0)
(0.134111 0.260309 0)
(0.113219 0.260934 0)
(0.0924123 0.262898 0)
(0.0715317 0.264741 0)
(0.0511523 0.268643 0)
(0.0305732 0.271291 0)
(0.0106058 0.275964 0)
(3 5.84507e-17 0)
(3 -4.45358e-16 0)
(3 -4.10008e-16 0)
(3 -5.12247e-16 0)
(3 -1.1478e-16 0)
(3 -2.19963e-16 0)
(3 -1.24772e-16 0)
(3 5.39664e-16 0)
(3 7.38595e-16 0)
(3 8.1031e-16 0)
(3 4.38345e-16 0)
(3 3.41481e-16 0)
(3 7.14005e-16 0)
(3 9.50811e-16 0)
(3 1.00565e-15 0)
(3 1.08535e-15 0)
(3 1.97251e-15 0)
(3 1.62887e-15 0)
(3 1.59833e-15 0)
(3 1.6056e-15 0)
(3 1.46453e-15 0)
(3 1.45287e-15 0)
(3 1.46664e-15 0)
(3 1.70991e-15 0)
(3 1.48673e-15 0)
(3 -1.22221e-16 0)
(3 -3.69255e-16 0)
(3 1.92201e-16 0)
(3 4.87777e-16 0)
(3 8.10957e-16 0)
(3 1.07239e-15 0)
(3 1.00123e-15 0)
(3 9.53948e-16 0)
(3 7.84459e-16 0)
(3 1.39091e-15 0)
(3 2.33724e-15 0)
(3 2.04296e-15 0)
(3 1.50937e-15 0)
(3 -1.49294e-16 0)
(3 -4.93133e-16 0)
(3 -6.99098e-17 0)
(3 6.68697e-16 0)
(3 8.0603e-16 0)
(3 -3.09135e-16 0)
(3 -8.561e-16 0)
(3 -7.97823e-16 0)
(3 -6.62502e-16 0)
(3 -1.08988e-15 0)
(3 -7.62766e-16 0)
(2.61459 0.142722 0)
(0.938457 0.206592 0)
(0.774618 0.180623 0)
(0.760971 0.183621 0)
(0.743359 0.18512 0)
(0.727982 0.188619 0)
(0.71226 0.191795 0)
(0.696115 0.1931 0)
(0.679045 0.192153 0)
(0.661511 0.188679 0)
(0.643812 0.18559 0)
(0.626883 0.185944 0)
(0.61153 0.190179 0)
(0.597236 0.196361 0)
(0.582881 0.202048 0)
(0.56773 0.205342 0)
(0.551486 0.205159 0)
(0.534644 0.201644 0)
(0.517576 0.199338 0)
(0.501879 0.203297 0)
(0.488235 0.211249 0)
(0.473423 0.216506 0)
(0.457654 0.216234 0)
(0.441635 0.217359 0)
(0.426431 0.221905 0)
(0.410813 0.225527 0)
(0.39469 0.22761 0)
(0.378549 0.231244 0)
(0.362581 0.236133 0)
(0.34632 0.240364 0)
(0.329571 0.244036 0)
(0.312308 0.247912 0)
(0.294553 0.252128 0)
(0.276275 0.25651 0)
(0.257534 0.260807 0)
(0.23851 0.265232 0)
(0.219189 0.26952 0)
(0.199522 0.273526 0)
(0.179406 0.276822 0)
(0.158885 0.279561 0)
(0.137985 0.281405 0)
(0.116823 0.282134 0)
(0.0956132 0.284287 0)
(0.0741627 0.286146 0)
(0.0531099 0.290162 0)
(0.0317566 0.292814 0)
(0.0110152 0.297701 0)
(3 5.75723e-17 0)
(3 -1.40969e-17 0)