/*--------------------------------*- C++ -*----------------------------------*\
  =========                 |
  \\      /  F ield         | OpenFOAM: The Open Source CFD Toolbox
   \\    /   O peration     | Website:  https://openfoam.org
    \\  /    A nd           | Version:  7
     \\/     M anipulation  |
\*---------------------------------------------------------------------------*/
FoamFile
{
    version     2.0;
    format      ascii;
    class       volScalarField;
    location    "1.8";
    object      p;
}
// * * * * * * * * * * * * * * * * * * * * * * * * * * * * * * * * * * * * * //

dimensions      [1 -1 -2 0 0 0 0];

internalField   nonuniform List<scalar> 
4032
(
1
1
1
1
1
1
1
1
1
1
1
1
4.40096
10.3626
10.7928
10.9664
11.1698
11.3486
11.5073
11.6427
11.7567
11.859
11.9428
11.9997
1
1
1
1
1
1
1
1
1
1
1
1
4.25421
10.2678
10.7748
10.9495
11.1473
11.3194
11.4708
11.5994
11.7066
11.8026
11.8789
11.9311
1
1
1
1
1
1
1
1
1
1
1
1
3.93132
10.1304
10.7357
10.9045
11.0972
11.2643
11.4099
11.5329
11.6331
11.7226
11.789
11.8359
1
1
1
1
1
1
1
1
1
1
1
1
3.46564
9.88386
10.6749
10.8337
11.0206
11.1825
11.3233
11.4419
11.5347
11.6088
11.6511
11.6771
1
1
1
1
1
1
1
1
1
1
1
1
2.91158
9.4932
10.6097
10.7514
10.9287
11.0797
11.2076
11.3077
11.3773
11.4274
11.4458
11.4766
1
1
1
1
1
1
1
1
1
1
1
1
2.27873
8.88881
10.5444
10.6573
10.8218
10.9565
11.0684
11.1518
11.2107
11.2457
11.2314
11.1706
1
1
1
1
1
1
1
1
1
1
1
1
1.60628
8.07989
10.4833
10.5192
10.6618
10.7806
10.8697
10.9188
10.9297
10.8676
10.7762
10.7099
1
1
1
1
1
1
1
1
1
1
1
1
1.05604
6.98999
10.4443
10.4362
10.5158
10.5819
10.6156
10.6173
10.5759
10.4756
10.3209
10.2943
1
1
1
1
1
1
1
1
1
1
1
1
1.00046
5.54531
9.96358
10.1457
10.2558
10.3139
10.3044
10.2654
10.1419
9.87591
9.10008
7.18999
1
1
1
1
1
1
1
1
1
1
1
1
0.999997
3.99038
9.43235
10.006
10.0778
10.0876
10.0218
9.91145
9.6753
9.20102
8.36509
6.33079
1
1
1
1
1
1
1
1
1
1
1
1
1
2.39372
8.55182
9.90248
9.89978
9.85971
9.7469
9.55162
9.23279
8.65717
7.80146
5.90502
1
1
1
1
1
1
1
1
1
1
1
1
1
1.19035
7.15541
9.85757
9.71091
9.60319
9.44965
9.20372
8.83909
8.27258
7.3401
5.84074
1
1
1
1
1
1
1
1
1
1
1
1
1
1.00355
5.23879
9.32235
9.33056
9.26977
9.1366
8.88288
8.51424
7.96262
7.052
5.8728
1
1
1
1
1
1
1
1
1
1
1
1
1
0.999973
2.81337
8.49482
9.21131
9.1269
8.9545
8.66664
8.28542
7.7123
6.88909
5.94643
1
1
1
1
1
1
1
1
1
1
1
1
1
0.999994
1.24249
6.82999
9.11904
8.96609
8.76969
8.46239
8.06701
7.50809
6.79665
6.01492
1
1
1
1
1
1
1
1
1
1
1
1
1
0.999999
1.00487
4.30554
8.5646
8.72616
8.5677
8.29172
7.88671
7.36975
6.75527
6.08331
1
1
1
1
1
1
1
1
1
1
1
1
1
1
0.999978
1.71282
7.52542
8.74846
8.46055
8.16244
7.75357
7.26075
6.70909
6.11137
1
1
1
1
1
1
1
1
1
1
1
1
1
1
0.999995
1.04083
5.2586
8.32267
8.24001
7.9826
7.6254
7.17488
6.66789
6.13255
1
1
1
1
1
1
1
1
1
1
1
1
1
1
0.999999
1.00007
2.19723
7.42667
8.26319
7.89711
7.53638
7.11295
6.64973
6.16837
1
1
1
1
1
1
1
1
1
1
1
1
1
1
1
1
1.10414
5.35047
8.0006
7.74317
7.42302
7.04725
6.62967
6.19327
1
1
1
1
1
1
1
1
1
1
1
1
1
1
1
1
1.00082
2.21022
6.93302
7.74979
7.39781
7.02768
6.6279
6.22329
1
1
1
1
1
1
1
1
1
1
1
1
1
1
1
1
1
1.10591
4.7625
7.53229
7.31714
6.96399
6.59658
6.22794
1
1
1
1
1
1
1
1
1
1
1
1
1
1
1
1
1
1.00106
1.93814
6.22369
7.29146
6.92746
6.60748
6.26366
1
1
1
1
1
1
1
1
1
1
1
1
1
1
1
1
1
1
1.06367
3.5564
6.83966
6.92538
6.62407
6.29721
1
1
1
1
1
1
1
1
1
1
1
1
1
1
1
1
1
1
1.00067
1.44839
5.08898
6.97268
6.67355
6.35228
1
1
1
1
1
1
1
1
1
1
1
1
1
1
1
1
1
1
1
1.0167
2.30717
5.93443
6.68579
6.37486
1
1
1
1
1
1
1
1
1
1
1
1
1
1
1
1
1
1
1
1.00013
1.12159
3.49026
6.19739
6.42046
1
1
1
1
1
1
1
1
1
1
1
1
1
1
1
1
1
1
1
1
1.00216
1.44085
4.45884
6.29004
1
1
1
1
1
1
1
1
1
1
1
1
1
1
1
1
1
1
1
1
1.00001
1.01733
1.96615
5.09139
1
1
1
1
1
1
1
1
1
1
1
1
1
1
1
1
1
1
1
1
1
1.00015
1.07192
2.5888
1
1
1
1
1
1
1
1
1
1
1
1
1
1
1
1
1
1
1
1
1
1
1.00112
1.18856
1
1
1
1
1
1
1
1
1
1
1
1
1
1
1
1
1
1
1
1
1
1
1
1.00472
1
1
1
1
1
1
1
1
1
1
1
1
1
1
1
1
1
1
1
1
1
1
1
1.00003
1
1
1
1
1
1
1
1
1
1
1
1
1
1
1
1
1
1
1
1
1
1
1
1
1
1
1
1
1
1
1
1
1
1
1
1
1
1
1
1
1
1
1
1
1
1
1
1
1
1
1
1
1
1
1
1
1
1
1
1
1
1
1
1
1
1
1
1
1
1
1
1
1
1
1
1
1
1
1
1
1
1
1
1
1
1
1
1
1
1
1
1
1
1
1
1
1
1
1
1
1
1
1
1
1
1
1
1
1
1
1
1
1
1
1
1
1
1
1
1
1
1
1
1
1
1
1
1
1
1
1
1
1
1
1
1
1
1
1
1
1
1
1
1
1
1
1
1
1
1
1
1
1
1
1
1
1
1
1
1
1
1
1
1
1
1
1
1
1.59857
0.496813
0.176448
0.150898
0.217669
0.287036
0.350324
0.452438
0.589616
0.72308
0.857788
0.979792
1.04532
1.12078
1.18264
1.22348
1.24859
1.24278
1.2385
1.25094
1.26209
1.25931
1.25327
1.25018
1.24758
1.24791
1.2543
1.27139
1.29034
1.29448
1.29496
1.28833
1.27507
1.25727
1.24438
1.24203
1.24307
1.24685
1.25307
1.25462
1.24819
1.23602
1.22895
1.27336
1.57229
2.33194
3.55598
4.7599
5.76141
6.13478
6.04089
5.69247
5.28612
5.09083
4.96196
4.87355
4.78246
4.68901
4.59598
4.49541
4.37609
4.25005
4.14552
4.06301
3.99823
3.94122
3.89143
3.83812
3.77069
3.69227
3.58058
3.44258
3.34239
3.28087
3.23208
3.19271
3.16922
3.14493
3.10699
3.06224
3.0015
2.89164
2.74531
2.64542
2.60065
2.57321
2.55263
2.54854
2.562
2.5494
2.52558
2.49296
2.42312
2.28481
2.18842
2.14611
2.81468
1.52509
0.919166
0.614245
0.594394
0.580034
0.51996
0.498283
0.525784
0.559561
0.604793
0.686819
0.801292
0.893752
0.970275
1.03873
1.0944
1.13791
1.17699
1.20242
1.22609
1.25024
1.25839
1.25508
1.24731
1.24255
1.24524
1.2589
1.27784
1.28373
1.28414
1.27954
1.26974
1.25745
1.24556
1.23965
1.24037
1.24267
1.24543
1.24253
1.23184
1.24448
1.3206
1.63198
2.22776
2.58869
2.87858
3.44195
4.2066
4.76487
5.14622
5.27917
5.18404
5.08881
4.99312
4.89586
4.78965
4.68742
4.59472
4.498
4.39104
4.26787
4.14563
4.04991
3.97169
3.91058
3.85697
3.81468
3.765
3.69426
3.60712
3.50517
3.39807
3.30126
3.22804
3.18038
3.14178
3.10532
3.07497
3.04031
2.98872
2.91222
2.81783
2.71157
2.6255
2.58346
2.55887
2.543
2.53074
2.51365
2.4911
2.46098
2.41207
2.33214
2.24126
2.16118
3.61196
2.4244
1.78162
1.19796
0.930543
0.849269
0.754896
0.627011
0.614761
0.623748
0.622383
0.650245
0.724265
0.780702
0.825449
0.885133
0.949641
1.02943
1.11848
1.17368
1.21779
1.2647
1.27885
1.2749
1.27118
1.26329
1.25897
1.26382
1.26979
1.26999
1.26603
1.26263
1.2583
1.2512
1.24502
1.24268
1.24415
1.24493
1.24463
1.24378
1.26694
1.41707
1.81651
2.39499
2.74144
2.82439
2.78431
2.79527
3.02527
3.53179
4.16253
4.79064
5.04571
5.16641
5.09364
4.94517
4.8075
4.67237
4.55166
4.44462
4.35622
4.27345
4.18352
4.0927
3.99337
3.90121
3.83475
3.77921
3.71605
3.64698
3.58064
3.51527
3.44519
3.36922
3.2824
3.18921
3.12008
3.07486
3.02961
2.97686
2.92568
2.8878
2.84987
2.80091
2.72014
2.62162
2.56227
2.5293
2.50111
2.47252
2.44001
2.40295
2.36343
2.32938
2.29458
2.21868
4.25384
3.10656
2.46881
1.92362
1.42203
1.22466
1.12375
0.941185
0.854074
0.824513
0.771242
0.712117
0.703124
0.699754
0.707893
0.736785
0.793345
0.878855
0.989515
1.06477
1.10037
1.15055
1.19036
1.21173
1.24286
1.27211
1.28541
1.29401
1.29575
1.28612
1.26875
1.25134
1.24299
1.2369
1.23123
1.22989
1.2295
1.23116
1.23965
1.27442
1.45745
2.01585
2.54074
2.87483
2.954
2.90785
2.79962
2.72078
2.68133
2.73407
2.97349
3.56225
4.2115
4.69401
4.7993
4.81411
4.77357
4.6797
4.57808
4.48286
4.38105
4.29244
4.20066
4.11412
4.01381
3.90101
3.79278
3.72005
3.66597
3.61361
3.5584
3.50306
3.45029
3.39884
3.33125
3.22863
3.11513
3.03734
2.97848
2.92725
2.89371
2.87014
2.84895
2.8194
2.77573
2.70041
2.59722
2.51677
2.47027
2.43129
2.3879
2.35006
2.33009
2.31578
2.30188
2.25387
4.69299
3.69157
2.99678
2.48809
1.96855
1.64023
1.48283
1.31551
1.13205
1.0115
0.931329
0.843679
0.786259
0.758975
0.736782
0.74511
0.756215
0.771533
0.818277
0.886656
0.936826
0.997178
1.07508
1.12766
1.16938
1.21397
1.23532
1.26026
1.27851
1.27996
1.27149
1.2601
1.25235
1.2483
1.24112
1.2329
1.22904
1.23924
1.29212
1.51702
2.12926
2.71611
2.89742
2.98502
2.97018
2.89782
2.8263
2.73414
2.66609
2.64243
2.63386
2.70419
2.98266
3.52094
4.04659
4.42899
4.55688
4.49998
4.46608
4.43493
4.40473
4.33404
4.25524
4.15699
4.04217
3.92036
3.77227
3.65462
3.59954
3.55747
3.52718
3.48918
3.45036
3.41048
3.35511
3.2641
3.12501
2.99829
2.93773
2.90512
2.87869
2.85798
2.84103
2.81586
2.7833
2.73854
2.65784
2.53852
2.4396
2.38181
2.34599
2.32795
2.31822
2.31409
2.31033
2.26862
5.0141
4.17031
3.46902
2.94428
2.47071
2.06771
1.80701
1.61768
1.4478
1.29083
1.15964
1.06131
0.974995
0.918587
0.869006
0.8465
0.822808
0.798565
0.782155
0.786259
0.79447
0.812226
0.869479
0.954743
1.03369
1.11645
1.17418
1.21374
1.24187
1.24847
1.24525
1.2398
1.24547
1.2574
1.25854
1.25118
1.25922
1.35621
1.67965
2.25361
2.85809
2.93508
2.97544
3.00126
2.96729
2.87708
2.80436
2.73181
2.65184
2.59807
2.5669
2.53866
2.53101
2.61681
2.88914
3.34142
3.82262
4.08247
4.21267
4.27588
4.26225
4.27935
4.28316
4.20828
4.10519
3.97956
3.8302
3.6724
3.56229
3.50733
3.4713
3.45021
3.42367
3.39027
3.347
3.27944
3.16317
3.01425
2.92892
2.8922
2.86088
2.83279
2.81487
2.79849
2.77121
2.73352
2.67113
2.5692
2.44919
2.371
2.33909
2.32006
2.30494
2.29733
2.29946
2.26204
5.22223
4.51368
3.862
3.30803
2.87364
2.46737
2.1433
1.90435
1.71308
1.55662
1.40097
1.26994
1.17493
1.09168
1.02106
0.963222
0.906627
0.857503
0.807816
0.798006
0.793666
0.793608
0.800943
0.824304
0.866466
0.932716
1.01665
1.08392
1.14033
1.18581
1.19924
1.21116
1.22889
1.2395
1.24895
1.26952
1.40856
1.93669
2.45556
2.89636
3.04384
3.03152
3.02976
2.98959
2.93434
2.85776
2.78285
2.72049
2.65301
2.57556
2.52805
2.50171
2.4721
2.45664
2.45278
2.52252
2.73495
3.07058
3.46119
3.77064
3.93763
4.09139
4.13291
4.13346
4.09922
4.02331
3.9006
3.76339
3.61499
3.49687
3.43963
3.3992
3.3627
3.32889
3.29683
3.25835
3.18649
3.06886
2.95081
2.88853
2.85292
2.82027
2.78728
2.75491
2.72381
2.68895
2.64234
2.57244
2.48706
2.41149
2.35998
2.32802
2.30728
2.29113
2.2891
2.25927
5.39744
4.77121
4.17411
3.63074
3.20013
2.82001
2.4774
2.20367
1.98213
1.79201
1.64237
1.4953
1.37341
1.26925
1.18589
1.12497
1.06053
0.998376
0.933698
0.899155
0.869136
0.834926
0.816293
0.819226
0.814358
0.816506
0.83451
0.875635
0.939739
1.02388
1.10366
1.15548
1.19721
1.20493
1.24272
1.44447
2.05348
2.69974
2.93049
3.05949
3.06088
3.02502
2.97634
2.92463
2.88505
2.84318
2.78178
2.71825
2.64248
2.54745
2.49004
2.47211
2.45676
2.42547
2.39859
2.3746
2.34677
2.36091
2.47885
2.76076
3.14436
3.50613
3.72225
3.88155
3.93923
3.91732
3.88712
3.82768
3.71171
3.57904
3.46069
3.386
3.33256
3.28296
3.24141
3.20574
3.16337
3.09413
2.99868
2.90498
2.84304
2.80254
2.76683
2.73117
2.69391
2.65184
2.60485
2.55629
2.50516
2.45311
2.40427
2.35847
2.31894
2.28585
2.25718
2.20355
5.51644
4.95046
4.38969
3.91128
3.49102
3.09582
2.74523
2.48944
2.24483
2.02146
1.84162
1.70905
1.56646
1.44821
1.3485
1.2764
1.2
1.12224
1.05792
1.01017
0.963589
0.915279
0.867736
0.849805
0.832496
0.815962
0.813075
0.81631
0.826206
0.85556
0.920182
1.00668
1.08515
1.16466
1.44448
2.08634
2.80653
2.97393
3.06145
3.06623
3.03228
2.97439
2.92052
2.87981
2.85931
2.83379
2.77789
2.70993
2.62951
2.52924
2.4595
2.43392
2.42486
2.40271
2.36327
2.32558
2.29234
2.27574
2.2233
2.20346
2.29082
2.51672
2.8573
3.20266
3.48113
3.62184
3.72747
3.71825
3.68937
3.63319
3.52706
3.42897
3.34741
3.2701
3.20621
3.15208
3.10768
3.06598
3.01653
2.95106
2.86814
2.79012
2.73981
2.70466
2.66857
2.62827
2.58572
2.54377
2.50433
2.46749
2.43084
2.38976
2.34314
2.29049
2.23942
2.16947
5.60629
5.08372
4.57888
4.13977
3.72927
3.33308
3.00907
2.7335
2.47694
2.23685
2.05866
1.90381
1.75457
1.61819
1.51801
1.43535
1.35054
1.2673
1.19012
1.13807
1.08148
1.03104
0.982635
0.949825
0.915878
0.872482
0.841963
0.835428
0.82953
0.821179
0.828978
0.86229
0.923181
1.26069
1.93549
2.56029
2.86176
2.9133
2.94597
2.93127
2.87648
2.86294
2.85471
2.8566
2.84538
2.81649
2.76511
2.69669
2.61923
2.54155
2.45685
2.40056
2.37254
2.35279
2.32079
2.28879
2.26345
2.23824
2.20532
2.15968
2.07664
2.05597
2.10808
2.26079
2.54456
2.86281
3.21713
3.39839
3.49758
3.49328
3.46268
3.43123
3.38018
3.29792
3.21563
3.14419
3.07511
3.0273
2.99144
2.9497
2.89416
2.81254
2.72619
2.67794
2.64502
2.61291
2.57948
2.54482
2.50829
2.46869
2.42961
2.39173
2.35012
2.29657
2.23239
2.1468
5.68795
5.19429
4.73816
4.32753
3.92468
3.53685
3.23554
2.95249
2.6913
2.44261
2.26256
2.08683
1.93365
1.79469
1.68715
1.58416
1.48465
1.39679
1.32617
1.26567
1.20457
1.13825
1.07878
1.03515
0.989063
0.944819
0.89943
0.876881
0.855383
0.833582
0.836164
0.871232
1.12115
1.77686
2.24685
2.44885
2.58179
2.61558
2.63526
2.63582
2.65223
2.68221
2.70461
2.71478
2.72284
2.74079
2.72661
2.66256
2.60245
2.54691
2.48131
2.39643
2.32484
2.2899
2.26787
2.25805
2.24465
2.21723
2.18063
2.13536
2.07508
2.0024
1.95261
1.92915
1.95935
2.06803
2.28998
2.5995
2.92461
3.09893
3.19001
3.26803
3.26459
3.24333
3.21557
3.16709
3.10284
3.03802
2.97226
2.9177
2.87182
2.81353
2.73786
2.66236
2.61662
2.59174
2.56949
2.5458
2.51686
2.47827
2.42591
2.37161
2.32712
2.27973
2.22142
2.14287
5.74734
5.28751
4.87162
4.48745
4.0913
3.73499
3.43969
3.15766
2.87467
2.64784
2.46187
2.27651
2.10427
1.95638
1.85381
1.73676
1.63353
1.52683
1.45058
1.38041
1.31344
1.25557
1.19947
1.14769
1.09537
1.04064
0.99284
0.958562
0.927184
0.905686
0.93787
1.17177
1.81453
2.25557
2.34551
2.33834
2.3419
2.34239
2.33213
2.326
2.30981
2.30503
2.34481
2.40866
2.46999
2.51919
2.54564
2.56535
2.55183
2.5157
2.4665
2.38395
2.29627
2.24553
2.22198
2.20725
2.2039
2.17483
2.13819
2.10327
2.06022
2.00516
1.94001
1.88722
1.86257
1.84853
1.85869
1.91589
2.05639
2.28588
2.52668
2.75427
2.888
3.01028
3.07145
3.0776
3.07605
3.04833
2.98073
2.90951
2.84033
2.78625
2.73341
2.67392
2.60902
2.56732
2.54518
2.52826
2.50607
2.47733
2.43426
2.37033
2.30029
2.24068
2.19928
2.14599
5.8076
5.38094
4.99279
4.62513
4.24127
3.91214
3.62053
3.3363
3.05033
2.84616
2.64417
2.45568
2.26231
2.12939
2.00867
1.8805
1.76487
1.65946
1.58545
1.50293
1.42262
1.34567
1.30012
1.24597
1.19097
1.13821
1.08686
1.0436
1.00292
1.03224
1.30715
1.97226
2.46022
2.50459
2.44121
2.36103
2.3151
2.26989
2.22851
2.1978
2.1607
2.0939
2.05403
2.05528
2.09098
2.15184
2.23133
2.30131
2.3606
2.38599
2.36688
2.31928
2.26817
2.21951
2.19662
2.16893
2.13396
2.10645
2.08577
2.06793
2.03619
1.98461
1.93356
1.88096
1.83689
1.81433
1.79423
1.77458
1.76193
1.77537
1.83359
1.96455
2.17229
2.40278
2.60429
2.7664
2.90183
2.92238
2.91342
2.87154
2.79215
2.75252
2.72079
2.67739
2.62483
2.57509
2.52929
2.50186
2.47941
2.45463
2.42258
2.36768
2.28589
2.22324
2.19623
2.15174
5.85007
5.46184
5.0957
4.74114
4.38493
4.07511
3.79156
3.49424
3.22623
3.02524
2.82164
2.62075
2.42333
2.29349
2.15191
2.02419
1.89207
1.79368
1.70726
1.61614
1.5333
1.45762
1.40329
1.34219
1.28077
1.21837
1.17323
1.13924
1.1957
1.56654
2.30685
2.7804
2.75368
2.63372
2.51789
2.41683
2.35527
2.30147
2.2547
2.2159
2.17661
2.11846
2.03911
1.97753
1.92957
1.90915
1.91571
1.94698
1.99552
2.06399
2.10767
2.14059
2.15651
2.14172
2.09862
2.07218
2.05096
2.04476
2.04852
2.03514
1.99322
1.94574
1.90727
1.86658
1.82853
1.80016
1.76507
1.73973
1.72102
1.70225
1.67771
1.64614
1.66351
1.73435
1.89604
2.10036
2.32576
2.49804
2.65775
2.72749
2.71697
2.6672
2.63072
2.6221
2.62139
2.59336
2.53806
2.48795
2.45448
2.42983
2.39785
2.35224
2.28987
2.22547
2.19237
2.14901
5.91077
5.55115
5.20078
4.85579
4.52153
4.22666
3.94716
3.64423
3.39138
3.18554
2.98795
2.76611
2.58751
2.44607
2.29435
2.15436
2.01442
1.92938
1.82958
1.7331
1.63612
1.56283
1.50802
1.43723
1.37116
1.31032
1.26592
1.35285
1.8287
2.63144
3.12126
3.08523
2.91778
2.7592
2.63941
2.55237
2.48706
2.4201
2.35183
2.28813
2.22841
2.16341
2.08009
1.98246
1.91018
1.87646
1.85546
1.83487
1.82332
1.82457
1.82589
1.84964
1.87632
1.88396
1.89502
1.91965
1.92568
1.91946
1.92437
1.92494
1.92163
1.9079
1.88481
1.85071
1.81158
1.76899
1.7352
1.72124
1.7084
1.68474
1.64804
1.61929
1.59126
1.54724
1.532
1.55863
1.64669
1.79533
1.98982
2.18825
2.39076
2.50001
2.48737
2.50436
2.52067
2.52416
2.50502
2.46323
2.44002
2.41459
2.37984
2.34379
2.30407
2.24955
2.19294
2.13152
5.95992
5.62794
5.29452
4.95823
4.64091
4.35582
4.07753
3.79027
3.54396
3.33225
3.12483
2.90009
2.73591
2.58613
2.43934
2.27049
2.14203
2.05249
1.94482
1.84675
1.74055
1.6758
1.60768
1.52455
1.45647
1.41719
1.54537
2.15985
2.97464
3.41246
3.38452
3.23233
3.03475
2.88355
2.76455
2.67468
2.60029
2.52905
2.45697
2.38574
2.31473
2.24342
2.16596
2.06524
1.96566
1.89579
1.84434
1.80874
1.78625
1.77021
1.75646
1.73957
1.71381
1.66786
1.6457
1.65027
1.67183
1.69759
1.72522
1.76561
1.78923
1.79258
1.77358
1.75074
1.72569
1.70662
1.70061
1.70296
1.69302
1.65882
1.62745
1.60617
1.57922
1.54016
1.4927
1.44167
1.42037
1.42696
1.46282
1.55343
1.7117
1.91492
2.09982
2.2228
2.27991
2.34989
2.38882
2.37662
2.36282
2.35314
2.34826
2.33642
2.31536
2.27626
2.21669
2.12664
6.02393
5.70122
5.37953
5.0544
4.75051
4.46907
4.19424
3.92547
3.68947
3.46851
3.25086
3.03707
2.87548
2.72164
2.56757
2.3932
2.27492
2.17328
2.06579
1.95393
1.85101
1.78576
1.69712
1.62232
1.59415
1.78081
2.54706
3.39983
3.66883
3.62689
3.48366
3.31935
3.1776
3.04408
2.90455
2.79484
2.71098
2.63414
2.55767
2.48058
2.40369
2.32891
2.25148
2.16146
2.06291
1.97055
1.89152
1.8346
1.7977
1.76204
1.72633
1.69484
1.66998
1.64522
1.60309
1.55468
1.51627
1.50568
1.50982
1.52318
1.55386
1.5876
1.59219
1.59207
1.60637
1.60076
1.59697
1.59981
1.61087
1.62126
1.60893
1.59256
1.56894
1.5287
1.47338
1.42833
1.39538
1.3756
1.35772
1.3487
1.35904
1.40733
1.50176
1.63373
1.77254
1.89803
2.0108
2.097
2.1724
2.20928
2.24406
2.2454
2.24563
2.23423
2.2135
2.13767
6.05107
5.74402
5.42847
5.12436
4.84742
4.57155
4.28928
4.04007
3.82156
3.59972
3.37052
3.16733
3.00997
2.84761
2.68407
2.51448
2.40518
2.29162
2.18037
2.05652
1.96587
1.87708
1.78836
1.78583
2.05425
2.97771
3.89853
4.0054
3.89958
3.73008
3.56762
3.43916
3.33482
3.21015
3.05389
2.9096
2.80657
2.72253
2.64175
2.56104
2.48112
2.40177
2.32068
2.23793
2.15296
2.06825
1.9904
1.92159
1.85922
1.80194
1.75099
1.71186
1.67732
1.63867
1.59439
1.54224
1.49047
1.4706
1.45152
1.4275
1.40846
1.39415
1.39357
1.39633
1.40376
1.42526
1.43794
1.46185
1.48925
1.50913
1.52025
1.51834
1.50297
1.47031
1.44374
1.42103
1.3932
1.36947
1.34237
1.31976
1.30127
1.287
1.28281
1.29329
1.32124
1.36447
1.45167
1.56276
1.68318
1.81087
1.95439
2.04666
2.0928
2.12577
2.13047
2.08997
6.13104
5.81162
5.50679
5.2188
4.94936
4.67944
4.4042
4.16876
3.94868
3.72586
3.48946
3.30741
3.1448
2.97939
2.79729
2.64182
2.53349
2.41101
2.29151
2.16324
2.07007
1.97227
2.01605
2.45161
3.47807
4.40592
4.4219
4.20463
3.97963
3.80354
3.6824
3.57989
3.47541
3.34952
3.19439
3.02447
2.88787
2.79101
2.70836
2.63153
2.55825
2.48372
2.40369
2.31731
2.2264
2.13691
2.05642
1.98862
1.92883
1.87068
1.81258
1.75943
1.71227
1.66632
1.61569
1.55648
1.49815
1.45766
1.4263
1.39955
1.37698
1.35348
1.33345
1.31095
1.2748
1.26061
1.26357
1.27411
1.30572
1.34019
1.37925
1.41155
1.41312
1.38714
1.35653
1.35171
1.35715
1.35124
1.33426
1.31629
1.28977
1.25961
1.24274
1.23041
1.21426
1.20076
1.19472
1.20324
1.23554
1.30879
1.41889
1.56591
1.6965
1.81266
1.90751
1.94953
6.21942
5.90942
5.59343
5.31776
5.05339
4.78205
4.51568
4.28653
4.06351
3.83879
3.61055
3.43555
3.263
3.09418
2.90971
2.77034
2.65423
2.52613
2.38759
2.26654
2.16523
2.26027
2.91579
4.13482
4.93297
4.84409
4.56317
4.30627
4.07323
3.93521
3.8307
3.71978
3.597
3.4619
3.31229
3.14618
2.98651
2.8642
2.77005
2.68863
2.61372
2.54017
2.46295
2.37919
2.28713
2.18826
2.09716
2.0313
1.98072
1.93154
1.87909
1.82101
1.75928
1.70452
1.65332
1.59897
1.54554
1.49543
1.45093
1.41004
1.37063
1.33475
1.3035
1.27791
1.24806
1.22411
1.20897
1.18898
1.17834
1.17809
1.18954
1.20912
1.24142
1.25902
1.25274
1.25232
1.26691
1.26918
1.27005
1.27035
1.25573
1.23935
1.22445
1.2062
1.18371
1.16358
1.14864
1.13627
1.12645
1.11739
1.12146
1.14735
1.2093
1.29507
1.39345
1.5704
6.15261
5.9978
5.68553
5.41065
5.14896
4.87593
4.62866
4.40099
4.17792
3.9414
3.73425
3.56281
3.38045
3.20671
3.02272
2.8997
2.76759
2.63194
2.49486
2.37824
2.54345
3.49293
4.77189
5.40846
5.27701
4.93495
4.62934
4.4193
4.23927
4.09614
3.96415
3.82698
3.68254
3.53871
3.40086
3.25973
3.10682
2.96175
2.84422
2.74732
2.66132
2.58248
2.509
2.43762
2.36029
2.26714
2.16105
2.07055
2.00849
1.95881
1.91381
1.86925
1.81864
1.75822
1.68979
1.62029
1.56493
1.52389
1.48883
1.45436
1.4163
1.37211
1.32017
1.27504
1.23144
1.19589
1.18116
1.16763
1.14543
1.13075
1.12224
1.10823
1.09543
1.10052
1.11393
1.12807
1.1402
1.1503
1.15575
1.15862
1.16708
1.17717
1.17913
1.17233
1.15979
1.14384
1.11726
1.0981
1.0922
1.08423
1.07335
1.06107
1.04752
1.03688
1.04749
1.12403
5.41118
6.00824
5.79987
5.50815
5.23385
4.96932
4.73492
4.50697
4.28481
4.04148
3.85717
3.67806
3.50155
3.30575
3.14059
3.01906
2.86591
2.73875
2.63044
2.91021
4.14115
5.48907
5.83613
5.70806
5.40594
5.08041
4.82272
4.58261
4.39369
4.23297
4.0797
3.92556
3.77134
3.62567
3.4902
3.35384
3.20563
3.05394
2.92231
2.8157
2.72308
2.63627
2.55365
2.47626
2.40296
2.32595
2.23386
2.13353
2.04762
1.98179
1.92748
1.8786
1.83455
1.79298
1.74157
1.6758
1.60929
1.55158
1.50516
1.47244
1.4463
1.41775
1.37753
1.32498
1.25976
1.20129
1.17074
1.14839
1.12653
1.10413
1.09323
1.08129
1.05916
1.0436
1.04399
1.03999
1.02829
1.02669
1.02885
1.02359
1.02712
1.04535
1.07004
1.09383
1.10734
1.10491
1.08762
1.05942
1.04327
1.0349
1.03024
1.02794
1.01895
1.00817
0.990383
0.968228
3.19068
5.52957
5.86009
5.63945
5.33257
5.07314
4.84136
4.60707
4.38235
4.16964
3.97585
3.78607
3.60312
3.40913
3.2765
3.1126
2.96657
2.93138
3.37852
4.87644
6.1329
6.2985
6.07698
5.76206
5.48565
5.24924
5.02682
4.78463
4.54933
4.3463
4.17213
4.01357
3.86559
3.72764
3.59157
3.44659
3.28816
3.12742
2.98814
2.87921
2.78888
2.70498
2.62127
2.53379
2.44151
2.35087
2.26457
2.17893
2.09986
2.03421
1.97876
1.92575
1.86851
1.8069
1.74608
1.6893
1.63846
1.59331
1.54954
1.5034
1.45611
1.41558
1.38682
1.35637
1.31024
1.25554
1.20511
1.16825
1.13686
1.1045
1.08533
1.06935
1.04857
1.02652
1.01306
1.00102
0.988609
0.975366
0.958687
0.938634
0.924228
0.924949
0.936684
0.958063
0.986426
1.0101
1.01554
1.00431
0.983022
0.979562
0.977753
0.975883
0.974333
0.970194
0.964854
0.948755
1.36909
3.6982
5.51131
5.7037
5.46475
5.16828
4.93782
4.7268
4.48015
4.26952
4.08284
3.90723
3.71109
3.52185
3.37706
3.21562
3.26338
4.03042
5.72773
6.93155
7.01774
6.66703
6.25476
5.87971
5.59598
5.37371
5.15329
4.92207
4.69145
4.47221
4.27739
4.10881
3.95808
3.81676
3.67454
3.52256
3.35879
3.1948
3.05175
2.93909
2.84626
2.76082
2.6763
2.58747
2.49001
2.38816
2.29347
2.21108
2.13847
2.07162
2.01008
1.95362
1.89924
1.84118
1.77747
1.71318
1.65668
1.6126
1.57477
1.53586
1.49151
1.44068
1.38719
1.34384
1.31431
1.28596
1.24852
1.2047
1.163
1.12516
1.09903
1.08204
1.06277
1.03511
1.00781
0.985543
0.969334
0.954939
0.939961
0.922781
0.88896
0.867762
0.866291
0.868451
0.87511
0.885234
0.89534
0.901197
0.896184
0.89416
0.902022
0.903878
0.905275
0.911482
0.920781
0.917013
1.01413
1.59672
4.05176
5.45142
5.54607
5.32639
5.05144
4.80532
4.58939
4.38797
4.20281
4.00927
3.79877
3.64807
3.4733
3.62154
4.73965
6.86278
7.59743
7.3891
7.0474
6.68546
6.35443
6.0326
5.74895
5.49574
5.25749
5.02613
4.79596
4.57111
4.36767
4.19064
4.03191
3.88152
3.73186
3.57849
3.42125
3.26701
3.12554
3.00351
2.89872
2.80299
2.71012
2.61599
2.51822
2.42139
2.33484
2.26114
2.19454
2.12804
2.05589
1.97431
1.89142
1.82784
1.7841
1.74357
1.70162
1.65784
1.61015
1.55929
1.50908
1.46009
1.41167
1.37069
1.33714
1.30426
1.2676
1.2232
1.18466
1.16263
1.14437
1.11953
1.08564
1.04833
1.01465
0.987116
0.966832
0.953645
0.940049
0.917438
0.883589
0.857085
0.844369
0.836277
0.831091
0.827419
0.822047
0.81618
0.809797
0.798421
0.796082
0.805004
0.817377
0.830451
0.852067
0.859432
1.00012
1.03236
1.84101
4.24615
5.37428
5.43363
5.20795
4.9271
4.69738
4.48504
4.30745
4.11438
3.92511
3.75737
4.05793
5.73506
7.72315
8.58016
8.32523
7.70519
7.1176
6.72889
6.43512
6.1579
5.89507
5.64011
5.38901
5.13927
4.88962
4.6517
4.4421
4.26151
4.09792
3.93928
3.78158
3.628
3.48104
3.34082
3.20526
3.07476
2.95303
2.83975
2.73139
2.62746
2.5304
2.44246
2.36507
2.29753
2.23633
2.17556
2.10721
2.02471
1.93082
1.84163
1.77153
1.73142
1.70744
1.68341
1.64667
1.58682
1.51539
1.46307
1.42734
1.39483
1.36683
1.34082
1.30834
1.26994
1.22421
1.17318
1.13361
1.1046
1.07234
1.04285
1.02919
1.01491
0.993808
0.965723
0.934681
0.906469
0.882791
0.8575
0.8367
0.825648
0.817854
0.808759
0.79823
0.787015
0.774151
0.754913
0.732199
0.726881
0.729471
0.738075
0.751116
0.769004
1
1.00039
1.06091
2.03832
4.3811
5.28421
5.30177
5.07951
4.80789
4.60759
4.40057
4.19905
4.09572
4.65893
6.89611
8.86589
9.04492
8.7598
8.31987
7.81906
7.32458
6.9144
6.58292
6.29287
6.02416
5.76363
5.50262
5.23729
4.97199
4.72283
4.5032
4.31263
4.14209
3.98119
3.82485
3.67457
3.53206
3.39622
3.26355
3.13181
3.00298
2.87927
2.76017
2.64814
2.54798
2.46117
2.38672
2.32106
2.25972
2.19761
2.12866
2.04908
1.96212
1.88001
1.81589
1.76518
1.72082
1.6804
1.63927
1.59571
1.54837
1.49459
1.44491
1.40292
1.3629
1.32486
1.2865
1.25987
1.23446
1.1916
1.14129
1.10966
1.09106
1.07456
1.05702
1.03426
1.00531
0.97176
0.940623
0.915694
0.890407
0.858482
0.835471
0.826485
0.817326
0.804404
0.792656
0.780478
0.764583
0.744911
0.720882
0.695894
0.689497
0.689886
0.691002
0.689482
1
1
1.00096
1.09182
2.22107
4.4245
5.19074
5.19846
4.97071
4.70691
4.48204
4.4108
5.51236
8.12708
10.0045
10.1758
9.58266
8.83532
8.29542
7.86922
7.47392
7.09916
6.74418
6.42202
6.12511
5.84252
5.56616
5.29488
5.03473
4.79308
4.57258
4.37124
4.18741
4.01982
3.86509
3.71852
3.57521
3.43217
3.29198
3.15908
3.03294
2.91257
2.79824
2.68966
2.58794
2.49521
2.41167
2.33646
2.26828
2.20353
2.13683
2.06499
1.98735
1.91067
1.85515
1.81818
1.77609
1.72927
1.68224
1.63272
1.58041
1.51959
1.45797
1.41676
1.38903
1.35275
1.30812
1.26572
1.2336
1.20038
1.16622
1.14036
1.10863
1.07423
1.06115
1.05126
1.03323
1.01086
0.987043
0.958484
0.92015
0.873646
0.837738
0.824518
0.817942
0.812164
0.804883
0.793205
0.775957
0.753032
0.722061
0.689846
0.675855
0.671786
0.670412
0.66301
1
1
1
1.00175
1.12837
2.34217
4.41076
5.10255
5.07988
4.82785
4.75565
6.22366
9.88548
10.8627
10.5556
10.189
9.65882
8.97486
8.38753
7.94402
7.57098
7.21955
6.86954
6.52531
6.19791
5.89214
5.60644
5.33893
5.08857
4.85391
4.63294
4.42509
4.23409
4.062
3.90542
3.75724
3.61056
3.46041
3.30796
3.16358
3.03671
2.92556
2.82383
2.72247
2.61724
2.51986
2.43674
2.35982
2.28312
2.20537
2.12793
2.05738
1.99651
1.94176
1.8854
1.81798
1.74981
1.69166
1.64128
1.59541
1.55539
1.52436
1.49221
1.44765
1.38469
1.32275
1.28014
1.25407
1.23068
1.20864
1.18967
1.16912
1.13698
1.09513
1.05836
1.03283
1.01373
0.995074
0.974232
0.94498
0.901725
0.86152
0.842292
0.831725
0.822122
0.810438
0.798208
0.784145
0.763839
0.734841
0.700668
0.679907
0.672769
0.667903
0.664646
0.653564
1
1
1
1.00001
1.00298
1.15679
2.38692
4.44055
4.91521
5.02713
6.86029
10.9347
12.4203
12.0095
10.9751
10.1971
9.64966
9.09513
8.53927
8.04354
7.63536
7.27866
6.93345
6.58585
6.2449
5.92473
5.63348
5.37025
5.12739
4.89758
4.67774
4.46942
4.27675
4.10023
3.93635
3.77921
3.62446
3.47288
3.32541
3.18348
3.05698
2.94679
2.84381
2.74604
2.65002
2.55005
2.45764
2.37166
2.29002
2.21242
2.14184
2.07993
2.02224
1.96317
1.89696
1.82297
1.75184
1.68959
1.63826
1.60093
1.57306
1.54275
1.50161
1.44782
1.38224
1.31735
1.27886
1.2636
1.24945
1.22968
1.20374
1.17255
1.13385
1.09024
1.05564
1.03442
1.01631
0.997934
0.977493
0.94829
0.905309
0.870167
0.853934
0.841004
0.828029
0.815557
0.803944
0.789927
0.768408
0.735232
0.698686
0.682189
0.675171
0.668742
0.662829
0.650337
1
1
1
1
1.00002
1.00377
1.17895
2.48858
3.86703
6.96588
12.1373
12.9102
12.2639
12.0447
11.2107
10.337
9.67806
9.13264
8.65209
8.19335
7.75362
7.34522
6.96675
6.61188
6.27929
5.97047
5.68597
5.42266
5.17489
4.93861
4.7133
4.50144
4.30647
4.12827
3.96104
3.79776
3.63737
3.48524
3.35148
3.24069
3.13634
3.02161
2.90008
2.78002
2.683
2.60831
2.52014
2.42686
2.34339
2.27355
2.21311
2.15561
2.09537
2.02775
1.95101
1.86936
1.79292
1.73251
1.69031
1.65799
1.62554
1.58682
1.5373
1.47254
1.39541
1.34225
1.32439
1.31027
1.29156
1.26621
1.23468
1.19746
1.15312
1.1087
1.08102
1.06195
1.04243
1.02251
1.001
0.971187
0.930818
0.899153
0.881375
0.867787
0.856526
0.846576
0.835622
0.819292
0.790624
0.747736
0.713763
0.701122
0.692761
0.684101
0.676596
0.661701
1
1
1
1
1
1.00002
1.00583
1.20174
2.65255
12.0019
17.7022
14.9195
12.8941
12.3059
11.5065
10.5454
9.74372
9.14428
8.67359
8.24425
7.81238
7.38384
6.98264
6.62132
6.29689
5.99951
5.71937
5.45137
5.19625
4.95627
4.73058
4.51663
4.3134
4.12233
3.94382
3.77978
3.63186
3.49587
3.36284
3.22386
3.08377
2.95996
2.85775
2.77137
2.68211
2.57547
2.4627
2.35858
2.27508
2.21027
2.15394
2.09873
2.03966
1.97226
1.89479
1.81214
1.73784
1.68327
1.64477
1.61216
1.5792
1.54189
1.49411
1.42564
1.34358
1.3018
1.28808
1.27467
1.25786
1.23499
1.20415
1.1646
1.11525
1.07061
1.0485
1.03291
1.01486
0.994238
0.970778
0.940195
0.902109
0.874533
0.859539
0.847094
0.835406
0.82524
0.814815
0.79928
0.770507
0.726405
0.693677
0.681723
0.674017
0.666174
0.658243
0.642224
)
;

boundaryField
{
    inlet
    {
        type            fixedValue;
        value           uniform 1;
    }
    outlet
    {
        type            zeroGradient;
    }
    bottom
    {
        type            symmetryPlane;
    }
    top
    {
        type            symmetryPlane;
    }
    obstacle
    {
        type            zeroGradient;
    }
    defaultFaces
    {
        type            empty;
    }
}


// ************************************************************************* //
