/*--------------------------------*- C++ -*----------------------------------*\
  =========                 |
  \\      /  F ield         | OpenFOAM: The Open Source CFD Toolbox
   \\    /   O peration     | Website:  https://openfoam.org
    \\  /    A nd           | Version:  7
     \\/     M anipulation  |
\*---------------------------------------------------------------------------*/
FoamFile
{
    version     2.0;
    format      ascii;
    class       volScalarField;
    location    "1.8";
    object      rho;
}
// * * * * * * * * * * * * * * * * * * * * * * * * * * * * * * * * * * * * * //

dimensions      [1 -3 0 0 0 0 0];

internalField   nonuniform List<scalar> 
4032
(
1.40001
1.40001
1.40001
1.40001
1.40001
1.40001
1.40001
1.40001
1.40001
1.40001
1.40001
1.40001
3.08173
5.34145
5.51127
5.5727
5.63588
5.68161
5.72414
5.7725
5.82021
5.85296
5.86369
5.87027
1.40001
1.40001
1.40001
1.40001
1.40001
1.40001
1.40001
1.40001
1.40001
1.40001
1.40001
1.40001
3.01217
5.30465
5.50479
5.56663
5.62765
5.671
5.71124
5.75756
5.80291
5.83319
5.84113
5.84617
1.40001
1.40001
1.40001
1.40001
1.40001
1.40001
1.40001
1.40001
1.40001
1.40001
1.40001
1.40001
2.86652
5.25623
5.49335
5.55256
5.61128
5.65236
5.69056
5.73501
5.77769
5.805
5.80904
5.81239
1.40001
1.40001
1.40001
1.40001
1.40001
1.40001
1.40001
1.40001
1.40001
1.40001
1.40001
1.40001
2.65498
5.17486
5.48027
5.53441
5.58983
5.62753
5.66271
5.70463
5.74351
5.76461
5.76043
5.75681
1.40001
1.40001
1.40001
1.40001
1.40001
1.40001
1.40001
1.40001
1.40001
1.40001
1.40001
1.40001
2.39525
5.04724
5.47282
5.51831
5.56868
5.6001
5.62758
5.66007
5.68825
5.70037
5.68987
5.6894
1.40001
1.40001
1.40001
1.40001
1.40001
1.40001
1.40001
1.40001
1.40001
1.40001
1.40001
1.40001
2.08732
4.85663
5.47239
5.50315
5.54755
5.57129
5.58854
5.60944
5.62979
5.63621
5.61884
5.59091
1.40001
1.40001
1.40001
1.40001
1.40001
1.40001
1.40001
1.40001
1.40001
1.40001
1.40001
1.40001
1.75654
4.61566
5.47344
5.47156
5.50874
5.52833
5.53296
5.53346
5.53245
5.50422
5.4592
5.42939
1.40001
1.40001
1.40001
1.40001
1.40001
1.40001
1.40001
1.40001
1.40001
1.40001
1.40001
1.40001
1.44446
4.20808
5.45571
5.45033
5.47289
5.47736
5.46131
5.43802
5.41271
5.36493
5.28157
5.23345
1.40001
1.40001
1.40001
1.40001
1.40001
1.40001
1.40001
1.40001
1.40001
1.40001
1.40001
1.40001
1.40043
3.59251
5.25407
5.34388
5.38682
5.39395
5.36645
5.32667
5.26583
5.15176
4.82618
3.95544
1.40001
1.40001
1.40001
1.40001
1.40001
1.40001
1.40001
1.40001
1.40001
1.40001
1.40001
1.40001
1.4
2.92052
5.06501
5.29859
5.3254
5.31877
5.27725
5.21361
5.10471
4.90693
4.55765
3.67102
1.40001
1.40001
1.40001
1.40001
1.40001
1.40001
1.40001
1.40001
1.40001
1.40001
1.40001
1.40001
1.4
2.19407
4.82313
5.2853
5.27358
5.24662
5.18878
5.09396
4.9505
4.70842
4.35166
3.54329
1.40001
1.40001
1.40001
1.40001
1.40001
1.40001
1.40001
1.40001
1.40001
1.40001
1.40001
1.40001
1.4
1.54753
4.35137
5.29914
5.2305
5.17102
5.09366
4.97742
4.81361
4.57086
4.18025
3.54478
1.40001
1.40001
1.40001
1.40001
1.40001
1.40001
1.40001
1.40001
1.40001
1.40001
1.40001
1.40001
1.40001
1.40302
3.52494
5.12438
5.10713
5.06722
4.99738
4.87527
4.70608
4.46416
4.07595
3.56693
1.40001
1.40001
1.40001
1.40001
1.40001
1.40001
1.40001
1.40001
1.40001
1.40001
1.40001
1.40001
1.40001
1.39998
2.44066
4.89945
5.08651
5.04231
4.95593
4.81888
4.64185
4.38578
4.02617
3.61112
1.40001
1.40001
1.40001
1.40001
1.40001
1.40001
1.40001
1.40001
1.40001
1.40001
1.40001
1.40001
1.40001
1.4
1.58655
4.28869
5.08579
5.00875
4.91036
4.76581
4.58291
4.32969
4.01109
3.65862
1.40001
1.40001
1.40001
1.40001
1.40001
1.40001
1.40001
1.40001
1.40001
1.40001
1.40001
1.40001
1.40001
1.4
1.4041
3.16923
4.93378
4.92944
4.8538
4.725
4.53906
4.30259
4.0214
3.71204
1.40001
1.40001
1.40001
1.40001
1.40001
1.40001
1.40001
1.40001
1.40001
1.40001
1.40001
1.40001
1.40001
1.40001
1.39998
1.8856
4.65822
4.98622
4.8512
4.70578
4.51417
4.28626
4.03049
3.75082
1.40001
1.40001
1.40001
1.40001
1.40001
1.40001
1.40001
1.40001
1.40001
1.40001
1.40001
1.40001
1.40001
1.40001
1.4
1.43403
3.63319
4.85925
4.80317
4.66926
4.49364
4.28016
4.04176
3.78838
1.40001
1.40001
1.40001
1.40001
1.40001
1.40001
1.40001
1.40001
1.40001
1.40001
1.40001
1.40001
1.40001
1.40001
1.4
1.40005
2.16835
4.63729
4.84983
4.67769
4.49763
4.28966
4.06546
3.83368
1.40001
1.40001
1.40001
1.40001
1.40001
1.40001
1.40001
1.40001
1.40001
1.40001
1.40001
1.40001
1.40001
1.40001
1.40001
1.4
1.48483
3.71008
4.7761
4.65267
4.49184
4.30215
4.09339
3.87741
1.40001
1.40001
1.40001
1.40001
1.40001
1.40001
1.40001
1.40001
1.40001
1.40001
1.40001
1.40001
1.40001
1.40001
1.40001
1.4
1.40071
2.19061
4.46236
4.69114
4.52222
4.33528
4.13244
3.92733
1.40001
1.40001
1.40001
1.40001
1.40001
1.40001
1.40001
1.40001
1.40001
1.40001
1.40001
1.40001
1.40001
1.40001
1.40001
1.4
1.40001
1.48681
3.47563
4.63404
4.52453
4.34653
4.15833
3.96781
1.40001
1.40001
1.40001
1.40001
1.40001
1.40001
1.40001
1.40001
1.40001
1.40001
1.40001
1.40001
1.40001
1.40001
1.40001
1.40001
1.40001
1.40095
2.04126
4.17569
4.54994
4.37172
4.204
4.02365
1.40001
1.40001
1.40001
1.40001
1.40001
1.40001
1.40001
1.40001
1.40001
1.40001
1.40001
1.40001
1.40001
1.40001
1.40001
1.40001
1.40001
1.40001
1.45352
2.92854
4.44148
4.40678
4.2495
4.07755
1.40001
1.40001
1.40001
1.40001
1.40001
1.40001
1.40001
1.40001
1.40001
1.40001
1.40001
1.40001
1.40001
1.40001
1.40001
1.40001
1.40001
1.40001
1.40064
1.73676
3.71279
4.48317
4.32331
4.14805
1.40001
1.40001
1.40001
1.40001
1.40001
1.40001
1.40001
1.40001
1.40001
1.40001
1.40001
1.40001
1.40001
1.40001
1.40001
1.40001
1.40001
1.40001
1.40001
1.41468
2.28427
4.12786
4.37288
4.20916
1.40001
1.40001
1.40001
1.40001
1.40001
1.40001
1.40001
1.40001
1.40001
1.40001
1.40001
1.40001
1.40001
1.40001
1.40001
1.40001
1.40001
1.40001
1.40001
1.40013
1.50125
2.94388
4.24648
4.26325
1.40001
1.40001
1.40001
1.40001
1.40001
1.40001
1.40001
1.40001
1.40001
1.40001
1.40001
1.40001
1.40001
1.40001
1.40001
1.40001
1.40001
1.40001
1.40001
1.40001
1.40202
1.73622
3.4713
4.25994
1.40001
1.40001
1.40001
1.40001
1.40001
1.40001
1.40001
1.40001
1.40001
1.40001
1.40001
1.40001
1.40001
1.40001
1.40001
1.40001
1.40001
1.40001
1.40001
1.40001
1.40001
1.41543
2.09126
3.79428
1.40001
1.40001
1.40001
1.40001
1.40001
1.40001
1.40001
1.40001
1.40001
1.40001
1.40001
1.40001
1.40001
1.40001
1.40001
1.40001
1.40001
1.40001
1.40001
1.40001
1.40001
1.40016
1.46184
2.47833
1.40001
1.40001
1.40001
1.40001
1.40001
1.40001
1.40001
1.40001
1.40001
1.40001
1.40001
1.40001
1.40001
1.40001
1.40001
1.40001
1.40001
1.40001
1.40001
1.40001
1.40001
1.40001
1.40107
1.5556
1.40001
1.40001
1.40001
1.40001
1.40001
1.40001
1.40001
1.40001
1.40001
1.40001
1.40001
1.40001
1.40001
1.40001
1.40001
1.40001
1.40001
1.40001
1.40001
1.40001
1.40001
1.40001
1.40001
1.40439
1.40001
1.40001
1.40001
1.40001
1.40001
1.40001
1.40001
1.40001
1.40001
1.40001
1.40001
1.40001
1.40001
1.40001
1.40001
1.40001
1.40001
1.40001
1.40001
1.40001
1.40001
1.40001
1.40001
1.40003
1.40001
1.40001
1.40001
1.40001
1.40001
1.40001
1.40001
1.40001
1.40001
1.40001
1.40001
1.40001
1.40001
1.40001
1.40001
1.40001
1.40001
1.40001
1.40001
1.40001
1.40001
1.40001
1.40001
1.40001
1.40001
1.40001
1.40001
1.40001
1.40001
1.40001
1.40001
1.40001
1.40001
1.40001
1.40001
1.40001
1.40001
1.40001
1.40001
1.40001
1.40001
1.40001
1.40001
1.40001
1.40001
1.40001
1.40001
1.40001
1.40001
1.40001
1.40001
1.40001
1.40001
1.40001
1.40001
1.40001
1.40001
1.40001
1.40001
1.40001
1.40001
1.40001
1.40001
1.40001
1.40001
1.40001
1.40001
1.40001
1.40001
1.40001
1.40001
1.40001
1.40001
1.40001
1.40001
1.40001
1.40001
1.40001
1.40001
1.40001
1.40001
1.40001
1.40001
1.40001
1.40001
1.40001
1.40001
1.40001
1.40001
1.40001
1.40001
1.40001
1.40001
1.40001
1.40001
1.40001
1.40001
1.40001
1.40001
1.40001
1.40001
1.40001
1.40001
1.40001
1.40001
1.40001
1.40001
1.40001
1.40001
1.40001
1.40001
1.40001
1.40001
1.40001
1.40001
1.40001
1.40001
1.40001
1.40001
1.40001
1.40001
1.40001
1.40001
1.40001
1.40001
1.40001
1.40001
1.40001
1.40001
1.40001
1.40001
1.40001
1.40001
1.40001
1.40001
1.40001
1.40001
1.40001
1.40001
1.40001
1.40001
1.40001
1.40001
1.40001
1.40001
1.40001
1.40001
1.40001
1.40001
1.40001
1.40001
1.40001
1.40001
1.40001
1.40001
1.40001
1.40001
1.40001
1.40001
1.40001
1.40001
1.40001
1.40001
1.40001
1.40001
1.40001
1.40001
1.40001
1.29644
0.558524
0.251221
0.205685
0.245359
0.299086
0.356238
0.447085
0.563533
0.660284
0.731932
0.796262
0.847062
0.904928
0.946931
0.96558
0.984621
0.991299
0.997984
1.00552
1.00515
0.99838
0.995124
0.999506
1.00907
1.01514
1.01912
1.02348
1.02802
1.0302
1.03256
1.03474
1.03433
1.02635
1.01672
1.0141
1.01373
1.01613
1.02134
1.02342
1.02172
1.01752
1.01318
1.03809
1.19783
1.58393
2.14643
2.65618
3.0625
3.20346
3.17597
3.0624
2.91536
2.84226
2.79512
2.76272
2.72614
2.68626
2.64602
2.60276
2.55132
2.49618
2.44927
2.41078
2.37917
2.35102
2.32702
2.30324
2.27543
2.24382
2.19705
2.13686
2.09274
2.06689
2.0478
2.03349
2.02606
2.01767
2.00213
1.98267
1.95545
1.90469
1.83524
1.78777
1.767
1.75438
1.74427
1.74178
1.74649
1.7379
1.72172
1.70072
1.66214
1.59155
1.54181
1.52015
1.99742
1.26616
0.88113
0.642316
0.607763
0.592467
0.55202
0.545413
0.567215
0.589184
0.615236
0.669118
0.748934
0.816421
0.868427
0.906754
0.938453
0.969833
0.998024
1.01116
1.01785
1.02583
1.03129
1.03223
1.03417
1.03486
1.03599
1.03882
1.04298
1.04523
1.04655
1.04784
1.04759
1.04226
1.03327
1.02799
1.02704
1.02798
1.03037
1.02955
1.02627
1.03363
1.07735
1.24936
1.55798
1.75766
1.91494
2.18531
2.52831
2.75996
2.91314
2.96972
2.9301
2.88996
2.85269
2.81473
2.76902
2.72218
2.67913
2.6347
2.58589
2.5302
2.47445
2.42887
2.39009
2.35905
2.33279
2.31346
2.29247
2.26305
2.22574
2.18065
2.13278
2.09016
2.05931
2.04056
2.02551
2.01066
1.99783
1.98247
1.95896
1.92363
1.87953
1.82869
1.78687
1.76683
1.75511
1.74694
1.7394
1.7279
1.71242
1.69271
1.66443
1.62239
1.57541
1.53388
2.46585
1.83138
1.45414
1.0811
0.89483
0.84004
0.774548
0.68081
0.671475
0.679332
0.678512
0.698474
0.754881
0.799479
0.833145
0.873212
0.914196
0.966819
1.02402
1.05483
1.07697
1.10151
1.10444
1.1007
1.09866
1.0951
1.09165
1.09038
1.08785
1.0851
1.08168
1.08033
1.07983
1.07634
1.07113
1.06794
1.06646
1.06544
1.06518
1.06558
1.0786
1.16587
1.38825
1.70123
1.88597
1.955
1.95337
1.97595
2.0957
2.33431
2.61854
2.8923
2.99013
3.0216
2.98705
2.91982
2.85693
2.7923
2.73358
2.6804
2.63608
2.5957
2.55226
2.50697
2.45671
2.40999
2.37679
2.35058
2.32228
2.2914
2.26062
2.2296
2.19672
2.16166
2.12236
2.08038
2.04898
2.0279
2.00634
1.98114
1.9568
1.93896
1.92118
1.89712
1.85691
1.80821
1.77926
1.76283
1.74757
1.73035
1.70986
1.68657
1.66255
1.64255
1.62311
1.58213
2.81604
2.23532
1.8814
1.56411
1.25331
1.12575
1.05889
0.933064
0.87339
0.854629
0.816599
0.770034
0.763554
0.761027
0.76696
0.789148
0.832682
0.896753
0.975056
1.02523
1.04793
1.08055
1.10244
1.11118
1.12769
1.14545
1.15319
1.15455
1.15273
1.14488
1.13172
1.11904
1.11321
1.10939
1.10504
1.10328
1.10106
1.10094
1.10494
1.12532
1.23412
1.54691
1.83101
2.01079
2.07044
2.05618
2.01192
1.97944
1.96733
1.99645
2.11905
2.40627
2.70533
2.90724
2.94513
2.94099
2.92017
2.87144
2.8169
2.76658
2.71647
2.67442
2.63073
2.58829
2.5378
2.48074
2.42724
2.39185
2.36623
2.3417
2.31495
2.287
2.26001
2.23405
2.2008
2.1509
2.0952
2.05591
2.02589
2.00021
1.98365
1.97187
1.9606
1.94485
1.92232
1.88396
1.8321
1.79167
1.76696
1.74466
1.7191
1.69566
1.68183
1.67156
1.6621
1.63482
3.03538
2.55193
2.19022
1.91135
1.6125
1.41301
1.31315
1.20304
1.07925
0.997566
0.943159
0.880572
0.836227
0.814319
0.797272
0.804105
0.812994
0.824732
0.860495
0.911637
0.948728
0.992774
1.04769
1.08195
1.10783
1.13518
1.14677
1.16172
1.17261
1.17192
1.1649
1.15487
1.14833
1.14541
1.14089
1.13593
1.13176
1.1369
1.16902
1.30463
1.65157
1.96203
2.06215
2.11978
2.11593
2.08302
2.04905
2.00395
1.97184
1.96172
1.95809
1.99425
2.13303
2.39272
2.63763
2.81052
2.86862
2.83941
2.81639
2.79447
2.77718
2.74294
2.70727
2.66313
2.60883
2.54908
2.47666
2.41963
2.39294
2.37283
2.35795
2.33846
2.3174
2.29526
2.26525
2.21768
2.14667
2.08171
2.04962
2.03219
2.01828
2.00729
1.99812
1.98461
1.96695
1.94317
1.9016
1.84061
1.78898
1.75709
1.73578
1.72376
1.71665
1.71256
1.70925
1.68513
3.19028
2.79299
2.4453
2.17269
1.91514
1.68372
1.52716
1.40994
1.30114
1.19781
1.11026
1.04346
0.981867
0.940504
0.904369
0.8881
0.870328
0.851435
0.837729
0.84054
0.846895
0.860605
0.903703
0.965975
1.02274
1.07998
1.11789
1.14434
1.16469
1.16804
1.16433
1.15827
1.15978
1.16718
1.16846
1.16417
1.16901
1.22812
1.41965
1.74364
2.05724
2.10166
2.12722
2.14409
2.12855
2.08405
2.04696
2.0099
1.96927
1.94136
1.92503
1.90997
1.90344
1.94723
2.08373
2.30605
2.53915
2.66453
2.7272
2.75382
2.74492
2.75132
2.75407
2.72117
2.67504
2.61803
2.54676
2.46959
2.41603
2.38951
2.37177
2.36061
2.34525
2.32519
2.29972
2.2621
2.20037
2.1231
2.07816
2.05803
2.04104
2.02605
2.01655
2.0079
1.99346
1.97375
1.94161
1.88868
1.82535
1.78337
1.76566
1.75471
1.74581
1.74105
1.74196
1.72123
3.29605
2.96326
2.64763
2.36938
2.14164
1.91916
1.73476
1.59387
1.47635
1.37766
1.27837
1.19245
1.12731
1.06863
1.01864
0.977374
0.936147
0.899696
0.861685
0.853503
0.849877
0.849737
0.855
0.872733
0.904355
0.9524
1.01156
1.0592
1.1
1.13287
1.14183
1.14853
1.15843
1.16489
1.17179
1.18557
1.27276
1.57741
1.86002
2.08983
2.16249
2.15906
2.16117
2.14385
2.11769
2.07944
2.04073
2.00874
1.97404
1.93293
1.9072
1.8932
1.87747
1.86939
1.86793
1.90516
2.01484
2.18607
2.38281
2.53661
2.61847
2.69249
2.71425
2.71475
2.70089
2.66847
2.61219
2.54674
2.47369
2.41432
2.38532
2.36401
2.34303
2.32212
2.30149
2.27761
2.23733
2.17488
2.11286
2.07942
2.05989
2.0423
2.02496
2.00836
1.99291
1.97575
1.95225
1.91594
1.87069
1.83053
1.80327
1.78638
1.77549
1.76704
1.76649
1.75067
3.39296
3.0963
2.8082
2.53897
2.31797
2.11667
1.92885
1.77392
1.64394
1.52981
1.4376
1.34382
1.26383
1.19449
1.1382
1.09595
1.05025
1.00572
0.958864
0.933283
0.910683
0.884624
0.869691
0.871672
0.867466
0.869143
0.882818
0.913701
0.960983
1.02224
1.07896
1.11491
1.14303
1.1484
1.17352
1.29951
1.64749
1.98906
2.10583
2.17253
2.17462
2.15955
2.13857
2.11647
2.09887
2.07827
2.04681
2.01436
1.97587
1.92652
1.89543
1.88591
1.87826
1.8626
1.85029
1.84044
1.82769
1.83988
1.90452
2.05458
2.25438
2.43905
2.54926
2.62823
2.66002
2.64972
2.63543
2.60703
2.54979
2.48343
2.42304
2.38224
2.35165
2.32235
2.29637
2.27335
2.24756
2.20908
2.15802
2.1081
2.07476
2.05294
2.03402
2.01592
1.99782
1.9773
1.95372
1.92886
1.9023
1.87502
1.8494
1.82545
1.80485
1.78768
1.77278
1.74403
3.47075
3.19979
2.92714
2.68893
2.47498
2.26906
2.08151
1.94019
1.80161
1.67133
1.56385
1.48186
1.39209
1.31623
1.25097
1.2024
1.1501
1.09627
1.05103
1.01653
0.982436
0.946598
0.911035
0.897329
0.883983
0.871878
0.870489
0.873144
0.881207
0.903914
0.951723
1.01404
1.06986
1.12479
1.30193
1.66687
2.04165
2.13031
2.17249
2.17928
2.16561
2.14075
2.11869
2.10328
2.09604
2.08469
2.05605
2.02042
1.97901
1.92769
1.89281
1.88016
1.87649
1.8662
1.84705
1.82996
1.81563
1.81093
1.78458
1.78024
1.82994
1.95618
2.14073
2.3237
2.46975
2.54317
2.5935
2.58692
2.57069
2.54136
2.48493
2.43147
2.38589
2.34098
2.30258
2.26995
2.24311
2.2186
2.19089
2.15489
2.1099
2.06785
2.04117
2.02324
2.00544
1.98559
1.9643
1.94287
1.92248
1.90352
1.88479
1.86355
1.83908
1.81126
1.7841
1.74608
3.53652
3.28468
3.03653
2.81664
2.60779
2.40273
2.23083
2.08098
1.93837
1.80181
1.69754
1.60454
1.51337
1.42873
1.36504
1.31092
1.25452
1.19842
1.14584
1.10955
1.06963
1.0337
0.998859
0.974985
0.950369
0.918326
0.895777
0.891483
0.887865
0.881403
0.887181
0.912258
0.956655
1.18401
1.58546
1.91758
2.07204
2.10027
2.12607
2.1241
2.1008
2.10092
2.10319
2.10997
2.10743
2.09282
2.065
2.02886
1.98928
1.95046
1.90766
1.87984
1.86675
1.85817
1.84302
1.8285
1.81825
1.80796
1.79338
1.77221
1.72706
1.72326
1.75453
1.84378
2.00413
2.18007
2.3689
2.46296
2.51356
2.50586
2.48628
2.46622
2.43458
2.38578
2.33753
2.29572
2.25575
2.22808
2.20716
2.18321
2.1517
2.10636
2.05963
2.03434
2.01759
2.00147
1.98453
1.96649
1.94707
1.92587
1.90522
1.88546
1.86368
1.83514
1.79998
1.75245
3.60093
3.36025
3.13455
2.92815
2.72298
2.52215
2.36219
2.20936
2.06568
1.92621
1.82237
1.71924
1.62791
1.54339
1.4761
1.41023
1.34596
1.28865
1.24164
1.2004
1.15829
1.11236
1.07091
1.04019
1.00752
0.975775
0.9427
0.926501
0.910869
0.8943
0.896178
0.921668
1.0926
1.4919
1.75606
1.86742
1.93699
1.96135
1.97806
1.98875
2.00439
2.02479
2.0421
2.05347
2.06316
2.07528
2.06781
2.03252
1.99947
1.97107
1.93911
1.89632
1.85972
1.84314
1.8335
1.83117
1.82692
1.815
1.79772
1.77519
1.744
1.70573
1.68045
1.67136
1.6907
1.75656
1.88652
2.06197
2.24183
2.3362
2.38305
2.42139
2.41157
2.39467
2.375
2.34352
2.30553
2.2692
2.23226
2.20059
2.17375
2.14028
2.09766
2.05603
2.03133
2.01821
2.00644
1.99364
1.9776
1.95603
1.92682
1.89682
1.87279
1.84727
1.81492
1.77125
3.65737
3.42997
3.2229
3.02842
2.82573
2.64019
2.48336
2.33154
2.17708
2.05051
1.94444
1.8373
1.73591
1.64713
1.58365
1.51063
1.44537
1.3771
1.3273
1.28069
1.23598
1.1971
1.15908
1.12364
1.08769
1.04959
1.01592
0.991353
0.968386
0.952312
0.975145
1.13033
1.51696
1.76501
1.81642
1.81847
1.82618
1.83021
1.82898
1.83248
1.83171
1.83242
1.85884
1.89917
1.93833
1.97134
1.99006
2.00184
1.99478
1.97604
1.95097
1.9082
1.86234
1.83714
1.82669
1.82163
1.82354
1.81028
1.79128
1.77346
1.7516
1.72307
1.68812
1.65973
1.64821
1.64214
1.64976
1.68599
1.77081
1.90654
2.04583
2.17489
2.24711
2.31147
2.33821
2.33484
2.33217
2.31477
2.27499
2.23394
2.1937
2.16164
2.13092
2.09692
2.05988
2.03592
2.02297
2.01298
1.99993
1.98313
1.95826
1.92182
1.88213
1.84852
1.8256
1.79636
3.71767
3.50303
3.30652
3.11923
2.92175
2.74946
2.59461
2.44182
2.28609
2.17199
2.05776
1.94947
1.83672
1.75713
1.68362
1.605
1.53313
1.46673
1.41909
1.36558
1.31302
1.26259
1.23272
1.19667
1.15969
1.1236
1.08789
1.05711
1.02717
1.04618
1.22208
1.61065
1.87436
1.91468
1.88326
1.84245
1.82259
1.80303
1.78491
1.77289
1.75689
1.72239
1.70648
1.71006
1.73458
1.77573
1.82616
1.86885
1.90602
1.92501
1.91532
1.89089
1.86517
1.84033
1.8314
1.81972
1.80306
1.78876
1.77763
1.76911
1.75347
1.72613
1.69911
1.67088
1.64681
1.63528
1.62448
1.61353
1.60722
1.61717
1.6548
1.73516
1.85974
1.99632
2.11249
2.20299
2.27785
2.28365
2.2773
2.25231
2.20494
2.18036
2.16065
2.13424
2.10311
2.07359
2.04568
2.02838
2.01422
1.99903
1.97998
1.94782
1.89995
1.86365
1.84867
1.82349
3.77273
3.57309
3.38404
3.20075
3.0158
2.85262
2.70156
2.54193
2.39557
2.28309
2.16819
2.05327
1.93879
1.86132
1.77641
1.69888
1.61778
1.5563
1.50164
1.44389
1.39101
1.34244
1.30734
1.26729
1.22653
1.18453
1.15358
1.12892
1.16531
1.39387
1.8142
2.05758
2.04864
1.99608
1.94094
1.88955
1.86071
1.83744
1.81801
1.8014
1.78265
1.75024
1.70559
1.67547
1.65139
1.64473
1.65058
1.67275
1.70616
1.75141
1.78122
1.80446
1.8187
1.81185
1.78913
1.77824
1.7699
1.76887
1.77387
1.76834
1.74551
1.71854
1.69803
1.67693
1.65649
1.64099
1.62009
1.60502
1.59449
1.58448
1.57084
1.55215
1.56326
1.60794
1.70838
1.8347
1.97245
2.07484
2.1673
2.20577
2.19862
2.16939
2.14576
2.13771
2.13562
2.11785
2.08334
2.05144
2.0297
2.01398
1.99448
1.96727
1.92992
1.89137
1.87183
1.84595
3.83856
3.65032
3.46657
3.28539
3.11002
2.95288
2.80258
2.6391
2.50005
2.38464
2.27281
2.14662
2.04305
1.95941
1.86924
1.78484
1.69972
1.64694
1.58504
1.52498
1.46403
1.41772
1.38279
1.33698
1.29362
1.25311
1.22173
1.27562
1.55712
2.00003
2.25326
2.2361
2.15426
2.08005
2.02394
1.98263
1.95281
1.92225
1.89033
1.85934
1.8288
1.79375
1.7464
1.68918
1.64871
1.63282
1.6249
1.61743
1.6148
1.61898
1.62428
1.64171
1.66107
1.6683
1.67876
1.69799
1.70503
1.70525
1.71366
1.71752
1.71811
1.71261
1.70145
1.68325
1.66168
1.63667
1.61525
1.60732
1.60042
1.58676
1.56453
1.5473
1.52998
1.50037
1.48988
1.50741
1.56521
1.66183
1.78663
1.91126
2.03396
2.10138
2.09444
2.10501
2.1113
2.1107
2.09763
2.0696
2.05285
2.03534
2.01307
1.99102
1.9671
1.9338
1.89848
1.85984
3.89962
3.72375
3.54681
3.36779
3.19775
3.04424
2.89306
2.73572
2.59884
2.47979
2.36248
2.23469
2.13901
2.05074
1.96361
1.86297
1.78535
1.73052
1.66469
1.60421
1.53823
1.49776
1.45458
1.40115
1.35696
1.32951
1.40702
1.75613
2.18955
2.41807
2.4074
2.33419
2.23796
2.16683
2.11075
2.06849
2.03412
2.00141
1.96748
1.9323
1.89534
1.85704
1.81444
1.75727
1.69957
1.65918
1.631
1.61299
1.60302
1.59673
1.59237
1.58524
1.57146
1.54332
1.53287
1.53743
1.55428
1.57518
1.59756
1.62807
1.64907
1.6545
1.6452
1.63277
1.61924
1.61016
1.60836
1.61124
1.60581
1.58414
1.56473
1.55215
1.53528
1.50921
1.47683
1.44193
1.42905
1.4338
1.45834
1.51976
1.62542
1.75883
1.87879
1.95987
1.99648
2.03981
2.06133
2.05181
2.04067
2.03139
2.02568
2.01709
2.00335
1.9786
1.94079
1.88258
3.97085
3.79782
3.62543
3.45046
3.28485
3.1301
2.97864
2.82946
2.69689
2.5723
2.44871
2.32615
2.23139
2.14087
2.0499
1.9466
1.8754
1.81381
1.74862
1.68021
1.6168
1.57614
1.52008
1.47263
1.45232
1.56161
1.97856
2.41615
2.56412
2.54773
2.48189
2.40402
2.3373
2.27464
2.2074
2.1547
2.11551
2.07975
2.04342
2.00517
1.96516
1.92511
1.88289
1.83242
1.77564
1.72189
1.67532
1.64215
1.62225
1.60397
1.58511
1.56783
1.55399
1.53959
1.51423
1.48591
1.4627
1.45977
1.46578
1.47788
1.50273
1.52993
1.53598
1.53884
1.5518
1.55034
1.55086
1.55544
1.56622
1.57558
1.56904
1.55975
1.54437
1.51604
1.47621
1.4451
1.42345
1.411
1.39976
1.39355
1.40052
1.43434
1.50077
1.59292
1.68879
1.77501
1.85095
1.90729
1.95519
1.97598
1.99699
1.99377
1.99133
1.98265
1.96859
1.91674
4.03093
3.86131
3.68882
3.5222
3.36834
3.21394
3.05563
2.91514
2.79105
2.66476
2.53369
2.41592
2.32302
2.22782
2.13147
2.03108
1.96511
1.89672
1.82949
1.75409
1.69836
1.64266
1.5885
1.58293
1.73411
2.2213
2.66575
2.74827
2.70272
2.62554
2.55143
2.49379
2.44746
2.38885
2.31161
2.23938
2.18877
2.14857
2.10987
2.07003
2.02881
1.98628
1.94182
1.89574
1.84775
1.79912
1.75361
1.71294
1.67636
1.64328
1.61399
1.5921
1.57234
1.54902
1.52165
1.4886
1.4555
1.44601
1.43638
1.42308
1.413
1.40523
1.40795
1.41335
1.42045
1.4391
1.45085
1.47018
1.49264
1.51246
1.5242
1.52413
1.51423
1.49096
1.47114
1.45413
1.43399
1.41829
1.40088
1.38578
1.37265
1.36201
1.35942
1.36753
1.38952
1.42313
1.48745
1.56818
1.65452
1.74254
1.83843
1.89767
1.9272
1.94675
1.9473
1.91588
4.112
3.93799
3.76901
3.60836
3.4567
3.30378
3.14747
3.0122
2.88567
2.75756
2.62114
2.51383
2.41779
2.32042
2.21338
2.12091
2.05529
1.9816
1.90921
1.83145
1.77353
1.71228
1.7375
1.97618
2.49928
2.9384
2.95835
2.86956
2.77095
2.69043
2.6383
2.59605
2.55057
2.49116
2.41369
2.32627
2.25652
2.20839
2.16769
2.12934
2.09188
2.05262
2.0092
1.96127
1.90971
1.85793
1.81084
1.77152
1.73719
1.70332
1.66902
1.6375
1.60932
1.5812
1.54928
1.51063
1.47229
1.44688
1.42837
1.41309
1.40069
1.38676
1.37483
1.36107
1.33594
1.33005
1.33395
1.34388
1.37083
1.40083
1.43406
1.46268
1.46497
1.44665
1.42342
1.41921
1.4233
1.41965
1.4084
1.39636
1.3776
1.35485
1.34195
1.33288
1.32121
1.31297
1.3113
1.32108
1.34788
1.40404
1.48591
1.59127
1.68378
1.76375
1.83067
1.85135
4.20479
4.03059
3.854
3.69789
3.54749
3.39286
3.24046
3.10735
2.97751
2.8461
2.71314
2.6095
2.50761
2.40732
2.29743
2.21297
2.14238
2.06517
1.9816
1.90766
1.84313
1.89571
2.24465
2.85162
3.22696
3.18781
3.06433
2.95197
2.84607
2.78579
2.74303
2.69668
2.64237
2.57871
2.50449
2.4194
2.33648
2.27357
2.22543
2.18326
2.1439
2.10478
2.06313
2.01702
1.96471
1.90697
1.85343
1.8151
1.78616
1.75821
1.72809
1.69344
1.65489
1.62023
1.58766
1.5526
1.51833
1.48672
1.45843
1.43162
1.40523
1.38188
1.36276
1.34734
1.3267
1.3102
1.30138
1.28876
1.2848
1.28947
1.30176
1.32134
1.35035
1.36446
1.35932
1.35881
1.3696
1.37267
1.37466
1.37534
1.36476
1.35226
1.34057
1.3262
1.30848
1.29405
1.28499
1.27825
1.2735
1.26981
1.27565
1.29659
1.34387
1.40742
1.48152
1.60481
4.21574
4.12342
3.94656
3.78771
3.636
3.47901
3.336
3.2035
3.07255
2.93333
2.81027
2.70741
2.59901
2.49449
2.38336
2.30732
2.22725
2.14523
2.06201
1.98744
2.0757
2.56322
3.17838
3.48842
3.43323
3.27744
3.13747
3.0436
2.96176
2.89846
2.84138
2.78152
2.71634
2.6484
2.58065
2.5093
2.43042
2.35455
2.2924
2.2404
2.19351
2.1502
2.10974
2.07029
2.02731
1.97432
1.9117
1.85792
1.82196
1.7932
1.76651
1.7394
1.7083
1.67076
1.6267
1.58096
1.54533
1.51977
1.49787
1.47632
1.45215
1.42227
1.38516
1.35325
1.32325
1.29939
1.29053
1.28184
1.26717
1.26025
1.25832
1.25228
1.24593
1.25059
1.26163
1.27303
1.28294
1.29152
1.29653
1.29935
1.30658
1.31506
1.31657
1.31091
1.30058
1.2882
1.26805
1.25512
1.25366
1.2509
1.24566
1.23804
1.22779
1.21741
1.22529
1.28192
3.96089
4.17027
4.05162
3.88399
3.72312
3.56806
3.43008
3.29615
3.16471
3.02176
2.91016
2.80191
2.69458
2.57553
2.47448
2.39939
2.30619
2.22776
2.15637
2.30287
2.91328
3.54185
3.72325
3.67056
3.53777
3.39157
3.27441
3.16347
3.07576
3.00205
2.93298
2.86369
2.79292
2.72397
2.65781
2.58931
2.51303
2.43316
2.36256
2.30438
2.25294
2.20407
2.15724
2.11333
2.07186
2.02816
1.97518
1.91647
1.86554
1.82625
1.79326
1.76286
1.73509
1.70847
1.6754
1.63339
1.59104
1.55377
1.52363
1.50281
1.48612
1.4675
1.44057
1.40376
1.35556
1.3124
1.29148
1.27659
1.26168
1.24727
1.24312
1.23756
1.22313
1.21211
1.21317
1.21058
1.20141
1.2006
1.20257
1.19821
1.20119
1.21662
1.23718
1.25652
1.26728
1.26525
1.25138
1.23004
1.22033
1.21683
1.21606
1.21669
1.21074
1.20151
1.18535
1.16488
2.83269
4.02726
4.11938
3.99496
3.81931
3.66579
3.52698
3.38745
3.2533
3.12595
3.00888
2.89387
2.78122
2.66206
2.57881
2.47733
2.38926
2.35564
2.58269
3.30506
3.86551
3.97996
3.88684
3.74481
3.6227
3.51863
3.41812
3.30505
3.19343
3.09719
3.0159
2.94268
2.87397
2.80863
2.74221
2.66909
2.58685
2.50139
2.42601
2.36625
2.31594
2.26846
2.22052
2.1699
2.11605
2.06334
2.01377
1.9644
1.91826
1.87957
1.84614
1.81315
1.77619
1.73497
1.69466
1.65843
1.62663
1.59835
1.57065
1.5402
1.50738
1.47921
1.46006
1.43936
1.40663
1.36693
1.32976
1.303
1.28021
1.25633
1.24333
1.23284
1.21845
1.20293
1.19371
1.1847
1.17488
1.16426
1.1505
1.13379
1.12176
1.12213
1.13177
1.14941
1.17258
1.19229
1.19742
1.18932
1.17442
1.17439
1.17666
1.17777
1.17732
1.17365
1.16839
1.15312
1.69131
3.12563
4.0286
4.06151
3.92828
3.75928
3.62036
3.49128
3.34351
3.21578
3.10182
2.99369
2.87282
2.75588
2.66392
2.56012
2.58152
2.95644
3.75652
4.27694
4.33786
4.19277
4.0148
3.84888
3.72354
3.62542
3.52496
3.41636
3.3063
3.20105
3.1079
3.02785
2.9562
2.88812
2.81788
2.74053
2.65473
2.56673
2.4887
2.42657
2.37469
2.32611
2.27729
2.22537
2.16799
2.10795
2.05252
2.00484
1.96291
1.92358
1.88613
1.85031
1.81459
1.77611
1.73432
1.69208
1.65533
1.6277
1.60438
1.57919
1.54857
1.51191
1.47294
1.44255
1.42267
1.40251
1.37464
1.34173
1.31083
1.28292
1.26369
1.25141
1.23683
1.21464
1.19269
1.17504
1.16221
1.15064
1.13844
1.12466
1.09686
1.07709
1.07498
1.07621
1.08095
1.08883
1.09768
1.1043
1.10252
1.10365
1.11345
1.11784
1.12052
1.12666
1.13381
1.12936
1.41283
1.85471
3.3294
4.01349
4.00406
3.87826
3.71955
3.57275
3.44086
3.31723
3.20277
3.08319
2.95426
2.85898
2.74387
2.8151
3.36012
4.3171
4.6542
4.56963
4.42032
4.26064
4.1162
3.97378
3.84679
3.73192
3.62141
3.51183
3.40139
3.29279
3.19439
3.10875
3.03153
2.95727
2.88177
2.80252
2.71941
2.63624
2.55863
2.49073
2.43159
2.37662
2.32234
2.26661
2.20841
2.15089
2.1001
2.05763
2.01937
1.98017
1.93549
1.88226
1.82691
1.78535
1.75715
1.7305
1.7037
1.67626
1.64484
1.6099
1.5748
1.53926
1.5037
1.47459
1.45116
1.42718
1.39972
1.36557
1.33579
1.31942
1.30593
1.28741
1.26116
1.23084
1.20252
1.17912
1.16223
1.15189
1.14151
1.12335
1.09431
1.0704
1.0583
1.05033
1.04483
1.04096
1.03595
1.03136
1.02786
1.02154
1.02164
1.03136
1.04424
1.05682
1.07644
1.08044
1.40013
1.42884
2.02273
3.45232
3.98476
3.96956
3.83834
3.67417
3.53606
3.4069
3.29605
3.17632
3.0595
2.94622
3.09154
3.89053
4.77037
5.13935
5.03467
4.77084
4.51451
4.3426
4.21264
4.08857
3.96891
3.8507
3.73235
3.61298
3.4923
3.37649
3.27419
3.18581
3.10496
3.025
2.94366
2.86284
2.78429
2.70834
2.63376
2.56061
2.49106
2.4251
2.36084
2.29832
2.2396
2.18665
2.14071
2.10124
2.06564
2.0296
1.98733
1.9339
1.87104
1.81062
1.76354
1.73806
1.7236
1.70844
1.68347
1.64084
1.58883
1.55064
1.52445
1.50044
1.48018
1.46167
1.43807
1.40922
1.37391
1.33335
1.30217
1.27948
1.25418
1.23079
1.21903
1.20632
1.18801
1.16448
1.13905
1.11575
1.09515
1.07243
1.05299
1.04231
1.03494
1.02657
1.01717
1.00782
0.998005
0.982831
0.964589
0.961856
0.96465
0.973097
0.985336
1.00045
1.40001
1.40038
1.45331
2.15963
3.53576
3.95066
3.92584
3.793
3.6322
3.50903
3.38168
3.26269
3.17908
3.45217
4.49675
5.32471
5.42509
5.30068
5.10607
4.88764
4.67065
4.48819
4.33993
4.20869
4.08458
3.96186
3.83715
3.70891
3.57935
3.4567
3.34805
3.25329
3.16752
3.08501
3.00302
2.92272
2.84547
2.771
2.6974
2.62307
2.54873
2.47567
2.40389
2.33536
2.27366
2.22021
2.17466
2.13476
2.09757
2.05973
2.01687
1.96568
1.90786
1.85204
1.80884
1.77545
1.74489
1.7163
1.68761
1.65693
1.62207
1.58148
1.54367
1.51154
1.4815
1.45389
1.42651
1.40781
1.38894
1.35496
1.31436
1.28839
1.27289
1.25935
1.24486
1.22581
1.20145
1.17314
1.14714
1.12623
1.10404
1.07483
1.05333
1.04471
1.03608
1.02413
1.01358
1.0033
0.990435
0.974747
0.954971
0.933482
0.928083
0.928407
0.929385
0.927339
1.40001
1.40001
1.40093
1.47944
2.28275
3.56784
3.91996
3.89537
3.75753
3.59756
3.46524
3.40254
3.92549
5.11137
5.90641
5.9661
5.71746
5.39769
5.16346
4.97721
4.80276
4.63537
4.47457
4.32644
4.18752
4.05293
3.91927
3.78639
3.6576
3.53699
3.42612
3.3239
3.22924
3.1414
3.05887
2.97952
2.90096
2.82153
2.74264
2.66673
2.59319
2.52125
2.45135
2.38386
2.31991
2.26106
2.20781
2.1599
2.11663
2.0758
2.03375
1.98777
1.93694
1.88555
1.84733
1.82099
1.79052
1.75692
1.72399
1.6895
1.65181
1.60648
1.55929
1.52694
1.50537
1.47905
1.44807
1.41808
1.39376
1.36739
1.33936
1.31764
1.29054
1.26093
1.24962
1.24133
1.22643
1.20811
1.18873
1.16489
1.13159
1.08978
1.05686
1.04423
1.03764
1.03191
1.0253
1.01553
1.00154
0.982892
0.956836
0.928428
0.915743
0.911753
0.910233
0.902602
1.40001
1.40001
1.40001
1.40168
1.50969
2.3652
3.57393
3.88686
3.8551
3.7041
3.63843
4.33127
5.92563
6.33749
6.21355
6.04982
5.8164
5.52115
5.26543
5.07115
4.90567
4.74707
4.58676
4.42681
4.27238
4.12597
3.98694
3.85458
3.72885
3.60953
3.49583
3.38747
3.28647
3.19408
3.10881
3.02724
2.94589
2.86194
2.77544
2.69195
2.61729
2.55033
2.48725