/*--------------------------------*- C++ -*----------------------------------*\
  =========                 |
  \\      /  F ield         | OpenFOAM: The Open Source CFD Toolbox
   \\    /   O peration     | Website:  https://openfoam.org
    \\  /    A nd           | Version:  7
     \\/     M anipulation  |
\*---------------------------------------------------------------------------*/
FoamFile
{
    version     2.0;
    format      ascii;
    class       volScalarField;
    location    "1.5";
    object      T;
}
// * * * * * * * * * * * * * * * * * * * * * * * * * * * * * * * * * * * * * //

dimensions      [0 0 0 1 0 0 0];

internalField   nonuniform List<scalar> 
4032
(
1
1
1
1
1
1
1
1
1
1
1
1
1.732
2.66682
2.77139
2.7713
2.77715
2.77979
2.78462
2.79836
2.82551
2.86091
2.89347
2.90903
1
1
1
1
1
1
1
1
1
1
1
1
1.70785
2.65558
2.77026
2.77036
2.77552
2.77795
2.78269
2.79643
2.8233
2.85797
2.88958
2.90465
1
1
1
1
1
1
1
1
1
1
1
1
1.6305
2.62475
2.7648
2.76541
2.77072
2.77346
2.77852
2.79249
2.81922
2.85359
2.88454
2.89965
1
1
1
1
1
1
1
1
1
1
1
1
1.52462
2.57954
2.75537
2.7575
2.76364
2.76679
2.77217
2.78624
2.81278
2.84664
2.8768
2.89105
1
1
1
1
1
1
1
1
1
1
1
1
1.37413
2.50607
2.73932
2.74532
2.7536
2.75761
2.76321
2.77648
2.80125
2.83365
2.86296
2.87827
1
1
1
1
1
1
1
1
1
1
1
1
1.17343
2.40337
2.71922
2.72999
2.74106
2.74574
2.75133
2.76361
2.78624
2.81728
2.84323
2.85028
1
1
1
1
1
1
1
1
1
1
1
1
1.00981
2.28819
2.69944
2.71025
2.72069
2.7266
2.73289
2.74356
2.75984
2.78267
2.8035
2.81067
1
1
1
1
1
1
1
1
1
1
1
1
1.00005
2.12971
2.67868
2.69534
2.70255
2.70871
2.7148
2.72183
2.73125
2.74893
2.77363
2.80194
1
1
1
1
1
1
1
1
1
1
1
1
1
1.89508
2.62498
2.67736
2.68537
2.6912
2.69544
2.69839
2.69865
2.69669
2.66933
2.58861
1
1
1
1
1
1
1
1
1
1
1
1
1
1.5392
2.50456
2.65049
2.66229
2.66979
2.67156
2.66991
2.66155
2.63835
2.59605
2.45057
1
1
1
1
1
1
1
1
1
1
1
1
1
1.0931
2.33669
2.6376
2.63295
2.63735
2.63846
2.63389
2.62066
2.58722
2.53221
2.36048
1
1
1
1
1
1
1
1
1
1
1
1
1
1.00193
2.1366
2.57463
2.59672
2.60135
2.60024
2.59346
2.57694
2.54378
2.47454
2.32009
1
1
1
1
1
1
1
1
1
1
1
1
1
0.999993
1.71899
2.46629
2.57296
2.57787
2.57384
2.56273
2.53985
2.50364
2.42862
2.31568
1
1
1
1
1
1
1
1
1
1
1
1
1
0.999998
1.14227
2.285
2.55334
2.5502
2.54595
2.53133
2.50579
2.46352
2.3947
2.30699
1
1
1
1
1
1
1
1
1
1
1
1
1
1
1.00496
2.05292
2.48925
2.51581
2.51275
2.49806
2.47328
2.42977
2.36949
2.29799
1
1
1
1
1
1
1
1
1
1
1
1
1
1
0.999986
1.5249
2.35486
2.49145
2.48103
2.46617
2.44168
2.40204
2.34901
2.28663
1
1
1
1
1
1
1
1
1
1
1
1
1
1
0.999996
1.06629
2.15181
2.45318
2.43911
2.42914
2.408
2.37457
2.32986
2.27563
1
1
1
1
1
1
1
1
1
1
1
1
1
1
0.999999
1.0008
1.68768
2.327
2.41603
2.39816
2.37698
2.34669
2.30913
2.26349
1
1
1
1
1
1
1
1
1
1
1
1
1
1
1
1
1.12921
2.12561
2.38751
2.3662
2.34766
2.32035
2.28799
2.24948
1
1
1
1
1
1
1
1
1
1
1
1
1
1
1
1
1.00324
1.66459
2.25668
2.34039
2.31821
2.29441
2.26745
2.23486
1
1
1
1
1
1
1
1
1
1
1
1
1
1
1
1
1.00001
1.12583
2.04016
2.3159
2.292
2.27056
2.24542
2.21681
1
1
1
1
1
1
1
1
1
1
1
1
1
1
1
1
1
1.00309
1.50676
2.14783
2.26868
2.24407
2.22254
2.1986
1
1
1
1
1
1
1
1
1
1
1
1
1
1
1
1
1
1.00001
1.06859
1.87139
2.23373
2.22063
2.20226
2.18113
1
1
1
1
1
1
1
1
1
1
1
1
1
1
1
1
1
1
1.00107
1.31218
2.03505
2.20056
2.17607
2.15765
1
1
1
1
1
1
1
1
1
1
1
1
1
1
1
1
1
1
1
1.02214
1.60676
2.07901
2.15994
2.13631
1
1
1
1
1
1
1
1
1
1
1
1
1
1
1
1
1
1
1
1.00022
1.11687
1.80791
2.11602
2.11559
1
1
1
1
1
1
1
1
1
1
1
1
1
1
1
1
1
1
1
1
1.00314
1.2912
1.91013
2.08973
1
1
1
1
1
1
1
1
1
1
1
1
1
1
1
1
1
1
1
1
1.00002
1.02031
1.46064
1.94857
1
1
1
1
1
1
1
1
1
1
1
1
1
1
1
1
1
1
1
1
1
1.00022
1.06323
1.59376
1
1
1
1
1
1
1
1
1
1
1
1
1
1
1
1
1
1
1
1
1
1
1.00125
1.13304
1
1
1
1
1
1
1
1
1
1
1
1
1
1
1
1
1
1
1
1
1
1
1.00001
1.00457
1
1
1
1
1
1
1
1
1
1
1
1
1
1
1
1
1
1
1
1
1
1
1
1.00003
1
1
1
1
1
1
1
1
1
1
1
1
1
1
1
1
1
1
1
1
1
1
1
1
1
1
1
1
1
1
1
1
1
1
1
1
1
1
1
1
1
1
1
1
1
1
1
1
1
1
1
1
1
1
1
1
1
1
1
1
1
1
1
1
1
1
1
1
1
1
1
1
1
1
1
1
1
1
1
1
1
1
1
1
1
1
1
1
1
1
1
1
1
1
1
1
1
1
1
1
1
1
1
1
1
1
1
1
1
1
1
1
1
1
1
1
1
1
1
1
1
1
1
1
1
1
1
1
1
1
1
1
1
1
1
1
1
1
1
1
1
1
1
1
1
1
1
1
1
1
1
1
1
1
1
1
1
1
1
1
1
1
1
1
1
1
1
1
1
1
1
1
1
1
1
1
1
1
1
1
1
1
1
1
1
1
1
1
1
1
1
1
1.74956
1.13735
1.07223
1.13289
1.20986
1.30446
1.4392
1.49364
1.54913
1.61718
1.71316
1.77306
1.76783
1.7661
1.77188
1.78895
1.79174
1.78044
1.75146
1.7414
1.74997
1.77255
1.78316
1.77989
1.76152
1.73482
1.7248
1.72638
1.73619
1.74727
1.74976
1.7477
1.73833
1.72683
1.72238
1.72244
1.72697
1.73348
1.73572
1.73563
1.73203
1.72658
1.72205
1.71826
1.71701
1.71628
1.71448
1.71079
1.70471
1.69859
1.70978
1.76847
1.90674
2.07285
2.2463
2.3706
2.45924
2.51429
2.54962
2.55576
2.5438
2.5206
2.49176
2.46432
2.44172
2.42308
2.40962
2.39762
2.38581
2.37364
2.36163
2.34904
2.33134
2.30559
2.28489
2.27353
2.26582
2.26059
2.25231
2.24005
2.22495
2.20231
2.17136
2.14762
2.13395
2.12396
2.11877
2.11873
2.11773
2.11219
2.10492
2.09282
2.06993
2.04514
2.03886
2.03552
2.01193
1.66405
1.47348
1.42291
1.37871
1.3638
1.34778
1.3145
1.32646
1.37069
1.42274
1.47723
1.53402
1.57336
1.60783
1.64227
1.66206
1.66147
1.65693
1.65953
1.67317
1.69838
1.71636
1.71596
1.70638
1.69178
1.68696
1.68811
1.6966
1.70709
1.71241
1.71153
1.70535
1.69636
1.69341
1.69384
1.69751
1.7057
1.70898
1.70899
1.70786
1.70447
1.70197
1.70018
1.69877
1.6964
1.69272
1.68743
1.69335
1.72257
1.80577
1.92445
1.99112
2.03484
2.06123
2.11141
2.16705
2.22004
2.26143
2.30041
2.33993
2.36545
2.38049
2.38406
2.37946
2.37102
2.36418
2.35696
2.34721
2.33621
2.32577
2.31492
2.29931
2.2759
2.25345
2.24095
2.23296
2.22533
2.21679
2.20683
2.19476
2.17628
2.14969
2.1246
2.1086
2.09955
2.09381
2.09074
2.08847
2.08489
2.07952
2.07163
2.06025
2.044
2.02791
2.01922
2.09179
1.89317
1.72194
1.61707
1.5116
1.42165
1.36748
1.33488
1.29539
1.3008
1.31406
1.33734
1.37478
1.40545
1.4331
1.46216
1.4875
1.50897
1.53268
1.55462
1.57303
1.5924
1.61284
1.62207
1.62081
1.61839
1.61659
1.61622
1.61707
1.6222
1.62988
1.63235
1.63073
1.6277
1.62755
1.6292
1.63508
1.64473
1.65145
1.65207
1.6513
1.64934
1.64739
1.64548
1.64363
1.64077
1.64483
1.66212
1.72654
1.83963
1.92955
1.97888
1.99056
1.97858
1.9474
1.91507
1.9094
1.92821
1.97629
2.04422
2.11422
2.17108
2.21064
2.23291
2.25183
2.2583
2.26565
2.27165
2.26732
2.25847
2.24884
2.23448
2.21455
2.1911
2.17091
2.15741
2.14861
2.14116
2.13466
2.12772
2.11825
2.10602
2.09337
2.07718
2.0572
2.04414
2.03652
2.03021
2.02314
2.01672
2.01131
2.00666
2.00405
2.00079
1.99363
1.97641
2.13803
1.98413
1.85485
1.74857
1.65046
1.55677
1.4899
1.44243
1.38636
1.36587
1.34765
1.32092
1.31362
1.31864
1.32737
1.34168
1.3656
1.39261
1.42419
1.45175
1.46707
1.47709
1.49433
1.51604
1.52851
1.54304
1.55287
1.55593
1.55818
1.55999
1.55972
1.55815
1.55522
1.55468
1.55563
1.55873
1.5641
1.5724
1.58114
1.58493
1.58482
1.5837
1.58207
1.57928
1.58175
1.59187
1.63206
1.73086
1.85048
1.91812
1.95708
1.9457
1.92877
1.90569
1.88338
1.86733
1.85535
1.84136
1.83392
1.84502
1.87648
1.9307
1.99189
2.04543
2.09194
2.11828
2.12998
2.14024
2.13948
2.14367
2.14966
2.14603
2.13724
2.12227
2.10646
2.09101
2.0765
2.06578
2.05885
2.05294
2.0436
2.03194
2.02219
2.01132
1.99408
1.97138
1.95787
1.95045
1.94181
1.93314
1.92828
1.92597
1.92503
1.92505
1.92385
1.91268
2.18515
2.05392
1.94302
1.84365
1.74369
1.66447
1.60472
1.54911
1.48917
1.44385
1.40582
1.36798
1.32996
1.32
1.31361
1.3173
1.32323
1.33195
1.34877
1.37067
1.38836
1.39897
1.4167
1.44467
1.46177
1.47779
1.49537
1.50505
1.50957
1.51362
1.51472
1.51596
1.51661
1.5162
1.51631
1.51736
1.51916
1.52315
1.5283
1.5319
1.53176
1.53047
1.53143
1.53766
1.56112
1.6299
1.75287
1.86466
1.93036
1.92227
1.91029
1.89651
1.88929
1.88105
1.87084
1.8564
1.83907
1.82271
1.80994
1.80175
1.79689
1.79616
1.80795
1.83594
1.88144
1.93473
1.97189
2.00429
2.02064
2.0376
2.05642
2.05911
2.05718
2.0553
2.05021
2.04007
2.02547
2.01328
2.00695
2.00101
1.99277
1.98098
1.96788
1.95479
1.93924
1.9192
1.8965
1.87982
1.86875
1.86076
1.85668
1.85655
1.85505
1.85505
1.85544
1.85204
2.20661
2.10142
2.00227
1.91143
1.8241
1.74684
1.68335
1.62477
1.56942
1.52823
1.48682
1.44796
1.41157
1.37806
1.35449
1.34084
1.33118
1.32669
1.31993
1.31463
1.31571
1.32111
1.334
1.36296
1.3968
1.42191
1.45075
1.47243
1.4785
1.48175
1.48438
1.48674
1.48998
1.49485
1.49827
1.50077
1.50196
1.50315
1.50326
1.50326
1.50157
1.50302
1.51224
1.55969
1.67494
1.79497
1.89497
1.91789
1.91311
1.90531
1.89917
1.89124
1.87938
1.86821
1.85739
1.84478
1.83
1.81387
1.80194
1.79203
1.78131
1.77325
1.76444
1.75506
1.74739
1.75708
1.77635
1.80823
1.85414
1.89396
1.93122
1.96491
1.9851
2.00114
1.9986
1.99391
1.98192
1.96979
1.96525
1.96105
1.96033
1.95501
1.9444
1.93114
1.91443
1.89432
1.87087
1.84661
1.8287
1.82026
1.81454
1.80985
1.80743
1.80668
1.80534
1.80074
2.21529
2.13033
2.04805
1.96324
1.88285
1.81604
1.75128
1.69302
1.63803
1.59495
1.55214
1.50792
1.47757
1.44815
1.41033
1.38537
1.363
1.33418
1.31883
1.31106
1.30591
1.3057
1.30742
1.31438
1.3295
1.35104
1.37984
1.41547
1.44246
1.45387
1.4628
1.47013
1.47334
1.47781
1.4839
1.48808
1.48847
1.48827
1.48835
1.4885
1.49047
1.50681
1.58469
1.73403
1.85216
1.89778
1.91671
1.91811
1.91597
1.90245
1.88454
1.87372
1.86335
1.8553
1.84646
1.83671
1.82669
1.81235
1.7951
1.77811
1.7635
1.75256
1.74263
1.73245
1.72165
1.70884
1.69403
1.67939
1.68358
1.7021
1.73619
1.78698
1.84088
1.89159
1.91604
1.92953
1.93657
1.93422
1.92354
1.91358
1.91113
1.91356
1.91311
1.90605
1.89445
1.87903
1.86015
1.83961
1.81812
1.80054
1.78963
1.78207
1.7774
1.77479
1.77081
1.76258
2.21494
2.14564
2.07446
1.99704
1.93068
1.8686
1.80761
1.74678
1.70182
1.6542
1.60975
1.56442
1.53202
1.50418
1.4672
1.43679
1.4193
1.38814
1.35992
1.34735
1.33012
1.31569
1.31317
1.31112
1.30753
1.30998
1.31787
1.33335
1.36042
1.39216
1.42003
1.44355
1.46055
1.46647
1.47251
1.4767
1.47694
1.47558
1.47648
1.48475
1.52982
1.63415
1.79102
1.88168
1.91067
1.92496
1.92213
1.91012
1.89573
1.87806
1.86574
1.86017
1.85344
1.84607
1.83966
1.83168
1.81902
1.79974
1.77769
1.75723
1.7417
1.73064
1.7211
1.71222
1.69987
1.68575
1.6696
1.6528
1.63961
1.63213
1.6272
1.63319
1.65253
1.68592
1.73065
1.77033
1.80436
1.8275
1.84234
1.84919
1.85356
1.86233
1.86468
1.86173
1.85834
1.85125
1.84313
1.83109
1.81284
1.79189
1.77419
1.76429
1.75821
1.75335
1.74894
1.73717
2.21419
2.15458
2.0913
2.02455
1.96743
1.91059
1.84972
1.79555
1.7526
1.7059
1.65894
1.61632
1.58591
1.5528
1.51712
1.48171
1.46251
1.43641
1.40274
1.38454
1.36819
1.34315
1.33087
1.32345
1.31417
1.30822
1.30975
1.31081
1.31293
1.32229
1.34515
1.37867
1.41204
1.43896
1.45381
1.46187
1.46616
1.4644
1.47786
1.57581
1.73012
1.83252
1.92093
1.92819
1.92207
1.91456
1.90637
1.89021
1.87488
1.86082
1.85091
1.84718
1.84384
1.83412
1.82342
1.81154
1.79623
1.77635
1.75441
1.73446
1.7191
1.70859
1.69907
1.68653
1.67254
1.65853
1.64425
1.63096
1.61816
1.60662
1.59834
1.5921
1.58481
1.57896
1.5793
1.58646
1.60354
1.62983
1.6591
1.69274
1.71942
1.74364
1.7627
1.77771
1.79478
1.79915
1.79792
1.79081
1.77966
1.76863
1.75755
1.74682
1.73599
1.72721
1.7234
1.71369
2.21146
2.15904
2.1023
2.04516
1.99341
1.94106
1.88249
1.83561
1.79203
1.74756
1.69998
1.66233
1.62927
1.59475
1.55851
1.52727
1.50467
1.48019
1.44688
1.42621
1.41097
1.38587
1.36758
1.3597
1.34784
1.32704
1.32236
1.31671
1.30902
1.30815
1.31076
1.32213
1.34234
1.37126
1.39764
1.41893
1.43965
1.46401
1.57777
1.78738
1.87658
1.9192
1.94253
1.94066
1.92928
1.91029
1.8907
1.87612
1.86488
1.85331
1.839
1.82718
1.81809
1.80877
1.79612
1.78223
1.76723
1.75022
1.73255
1.71488
1.6956
1.67994
1.66815
1.65581
1.64245
1.63078
1.62193
1.61271
1.60011
1.58502
1.57118
1.56051
1.55223
1.54568
1.53843
1.53138
1.52497
1.51864
1.50926
1.51437
1.52746
1.55113
1.58816
1.62422
1.65475
1.68176
1.70822
1.71503
1.71538
1.71535
1.71235
1.70498
1.69551
1.68758
1.68445
1.68172
2.20608
2.16066
2.11046
2.06054
2.01466
1.96472
1.91038
1.86801
1.82618
1.78254
1.73523
1.70251
1.66734
1.63226
1.59622
1.5679
1.54299
1.51626
1.4865
1.46578
1.45004
1.42659
1.40338
1.39111
1.37684
1.35379
1.34059
1.3313
1.31878
1.3082
1.30838
1.31355
1.31614
1.31932
1.33207
1.35018
1.3961
1.54341
1.75949
1.86209
1.89955
1.9146
1.91732
1.90807
1.89042
1.87458
1.8678
1.8634
1.85501
1.84161
1.8244
1.80415
1.78665
1.77441
1.76356
1.75068
1.7353
1.72069
1.70767
1.69257
1.67272
1.65121
1.63602
1.6248
1.61484
1.60705
1.6009
1.59147
1.58022
1.56544
1.54557
1.52943
1.52213
1.51635
1.5093
1.50117
1.49256
1.48409
1.47666
1.4648
1.44821
1.43312
1.43569
1.44782
1.46925
1.49678
1.52891
1.56253
1.58765
1.60913
1.61747
1.62093
1.63004
1.63006
1.62852
1.62845
2.19798
2.1583
2.11324
2.06895
2.02721
1.9801
1.93244
1.89266
1.85229
1.80688
1.76661
1.73557
1.69976
1.66323
1.62661
1.60337
1.57655
1.54951
1.5197
1.5
1.48301
1.46041
1.43841
1.42705
1.4141
1.39009
1.37309
1.36362
1.3506
1.32878
1.32392
1.32254
1.31562
1.31386
1.31862
1.38656
1.55475
1.71681
1.82356
1.82051
1.83187
1.83676
1.83449
1.82331
1.82128
1.82598
1.8323
1.83378
1.8304
1.81949
1.80235
1.77993
1.75481
1.73675
1.72593
1.7158
1.70322
1.69172
1.68169
1.66854
1.65101
1.62852
1.60738
1.59553
1.58699
1.58126
1.57552
1.56486
1.55391
1.54122
1.52221
1.50285
1.49424
1.4879
1.48237
1.47725
1.46772
1.45779
1.44919
1.43976
1.42788
1.41142
1.39534
1.38755
1.38343
1.38182
1.38588
1.3958
1.41227
1.43459
1.45989
1.47652
1.49083
1.50998
1.52017
1.54044
2.18498
2.1508
2.11157
2.07263
2.03448
1.991
1.94947
1.9128
1.87423
1.82821
1.79348
1.7615
1.72763
1.69005
1.65804
1.63297
1.60404
1.57705
1.55079
1.53302
1.51459
1.49179
1.4664
1.45462
1.44217
1.42129
1.40471
1.39422
1.3805
1.35604
1.34158
1.33311
1.31933
1.32722
1.40919
1.61246
1.7314
1.78378
1.78243
1.76815
1.75121
1.7369
1.72878
1.73145
1.73993
1.75804
1.77691
1.78233
1.78159
1.77438
1.76132
1.74287
1.72162
1.70269
1.6865
1.675
1.66735
1.66305
1.6582
1.64578
1.62861
1.60821
1.58613
1.5693
1.55887
1.55088
1.54149
1.53176
1.52341
1.51448
1.49944
1.47866
1.46769
1.46136
1.45577
1.4534
1.44653
1.43576
1.426
1.41671
1.40576
1.39209
1.37788
1.36511
1.35813
1.35372
1.34886
1.34412
1.34012
1.33781
1.33834
1.33816
1.33976
1.34565
1.35639
1.39463
2.17135
2.14144
2.1077
2.07245
2.03661
1.99797
1.96134
1.92703
1.88858
1.8459
1.81422
1.78262
1.74979
1.71108
1.68365
1.65747
1.62972
1.60208
1.57751
1.56017
1.53988
1.51844
1.49648
1.48344
1.46936
1.44522
1.42794
1.41974
1.40848
1.38838
1.37172
1.35923
1.37438
1.46265
1.66881
1.79844
1.79912
1.78962
1.76938
1.74266
1.72334
1.70529
1.68636
1.67465
1.66951
1.67015
1.67983
1.6877
1.6955
1.69897
1.69779
1.69468
1.6816
1.66225
1.64844
1.63795
1.63207
1.63107
1.62833
1.61801
1.6039
1.58656
1.56839
1.55166
1.53671
1.5236
1.51101
1.50087
1.49307
1.48503
1.47528
1.45884
1.44392
1.43714
1.43176
1.42914
1.42434
1.41353
1.4028
1.39168
1.37748
1.36534
1.35612
1.34748
1.34132
1.33492
1.3275
1.31996
1.31429
1.30943
1.30273
1.29495
1.28746
1.27889
1.26988
1.27023
2.15613
2.12801
2.09871
2.06814
2.03413
1.99739
1.96565
1.93422
1.89737
1.85951
1.82934
1.79879
1.7652
1.73064
1.70577
1.67848
1.65156
1.62144
1.60163
1.58426
1.56424
1.54115
1.5198
1.50742
1.49255
1.47162
1.45332
1.44238
1.42845
1.41002
1.39791
1.42177
1.53924
1.71841
1.85302
1.84171
1.81371
1.78546
1.75864
1.73539
1.71563
1.69811
1.6796
1.66376
1.65181
1.64238
1.63206
1.62284
1.61603
1.60959
1.60456
1.60785
1.60797
1.60478
1.6026
1.5925
1.58305
1.57879
1.57308
1.56967
1.56651
1.55711
1.54647
1.53459
1.51943
1.5011
1.4848
1.47436
1.46586
1.45664
1.4477
1.4362
1.42246
1.41511
1.41009
1.4072
1.40202
1.39126
1.38003
1.36825
1.35325
1.33703
1.32798
1.3248
1.32223
1.31684
1.30893
1.30071
1.29363
1.2866
1.27904
1.27149
1.26249
1.25301
1.24595
1.23379
2.13619
2.1112
2.08543
2.05843
2.02803
1.99587
1.96567
1.93488
1.90122
1.86963
1.84119
1.81089
1.77701
1.74653
1.72325
1.6972
1.67153
1.64259
1.6236
1.60389
1.58381
1.56196
1.5439
1.52983
1.51311
1.49095
1.47495
1.46203
1.45009
1.44208
1.48667
1.65029
1.79606
1.88898
1.88102
1.84979
1.81128
1.78055
1.75848
1.73949
1.72296
1.70668
1.68635
1.66251
1.6394
1.61961
1.6025
1.59092
1.5803
1.56893
1.55931
1.55089
1.54041
1.5279
1.52206
1.51916
1.51008
1.50786
1.50787
1.508
1.50691
1.50616
1.5056
1.50451
1.49417
1.47881
1.46382
1.45068
1.43733
1.42819
1.41875
1.40838
1.39914
1.39315
1.38843
1.38538
1.37916
1.36928
1.35847
1.3469
1.33248
1.31537
1.30161
1.29351
1.29014
1.28862
1.28595
1.27985
1.2737
1.26645
1.25868
1.25122
1.24282
1.23193
1.22201
1.21146
2.1138
2.09229
2.06991
2.04512
2.01728
1.99105
1.9636
1.93408
1.90266
1.87631
1.8482
1.81892
1.78661
1.76205
1.7385
1.71278
1.68533
1.65978
1.64313
1.62261
1.60221
1.57779
1.56249
1.54763
1.53003
1.51094
1.49308
1.47803
1.48585
1.5564
1.75912
1.90232
1.93161
1.91455
1.87997
1.84135
1.80762
1.78282
1.76444
1.74794
1.73107
1.71164
1.68895
1.66279
1.63608
1.61183
1.59193
1.5767
1.56236
1.54824
1.53537
1.52272
1.51087
1.50324
1.4925
1.47808
1.45829
1.44141
1.43125
1.4285
1.42834
1.43144
1.44091
1.44469
1.44632
1.44521
1.43474
1.41485
1.407
1.40056
1.39287
1.38529
1.37646
1.37012
1.36517
1.35859
1.35119
1.34455
1.33789
1.32895
1.31698
1.30127
1.28357
1.27044
1.26217
1.25667
1.25153
1.25017
1.25058
1.24697
1.24173
1.2362
1.22819
1.21548
1.20274
1.18828
2.09774
2.07771
2.05702
2.03349
2.009
1.98581
1.9608
1.93111
1.90298
1.87968
1.85378
1.82563
1.79567
1.77481
1.75005
1.72607
1.69882
1.67728
1.65873
1.63719
1.61657
1.59428
1.58078
1.56378
1.54371
1.52526
1.51087
1.53109
1.63785
1.83508
1.98604
1.97561
1.95088
1.91041
1.87051
1.8371
1.81057
1.79002
1.77018
1.7509
1.73167
1.71179
1.69089
1.6685
1.64424
1.61794
1.59432
1.57474
1.5568
1.53909
1.52188
1.50505
1.49011
1.4794
1.47
1.45997
1.4472
1.42852
1.40508
1.38696
1.37512
1.36968
1.37198
1.37178
1.37228
1.37541
1.37253
1.36469
1.36427
1.36251
1.36006
1.35339
1.34234
1.3324
1.32664
1.32193
1.31781
1.31581
1.31569
1.31083
1.3014
1.28864
1.27319
1.25565
1.24098
1.22992
1.22317
1.21982
1.21922
1.2228
1.22344
1.21825
1.21197
1.20291
1.18808
1.16802
2.08007
2.06063
2.0416
2.02064
1.99893
1.97706
1.95387
1.92663
1.90226
1.87878
1.85386
1.82497
1.80201
1.783
1.75964
1.7345
1.7062
1.68982
1.67076
1.65085
1.62794
1.60793
1.59387
1.57438
1.55738
1.54517
1.57801
1.73978
1.90378
2.01858
2.01358
1.98321
1.94147
1.90123
1.86709
1.83856
1.81266
1.79036
1.76932
1.7484
1.72815
1.70845
1.68863
1.66798
1.64552
1.62115
1.59664
1.57405
1.55344
1.53343
1.51394
1.4956
1.47961
1.46597
1.45406
1.44303
1.4312
1.41576
1.39702
1.37848
1.36218
1.34797
1.33688
1.32887
1.32246
1.31749
1.31201
1.30257
1.29712
1.29858
1.30333
1.3052
1.30272
1.29371
1.28802
1.28633
1.28377
1.2801
1.27704
1.27587
1.27484
1.26982
1.25932
1.24548
1.22829
1.21197
1.20229
1.19756
1.19457
1.19394
1.19642
1.1966
1.19366
1.18763
1.17559
1.15329
2.05985
2.04478
2.02383
2.00463
1.98614
1.9668
1.94468
1.91932
1.8974
1.87561
1.85314
1.82628
1.80564
1.78498
1.76325
1.73944
1.71631
1.70046
1.6801
1.66059
1.63667
1.62144
1.60409
1.58472
1.58634
1.64775
1.84439
1.99843
2.03736
2.03147
2.00266
1.96694
1.92919
1.89606
1.86821
1.84178
1.81464
1.78856
1.76496
1.74278
1.72166
1.70156
1.68209
1.66292
1.64307
1.62157
1.59856
1.57523
1.55328
1.53347
1.51471
1.49612
1.47838
1.46206
1.44664
1.43177
1.41745
1.40395
1.39023
1.37497
1.3571
1.33566
1.32154
1.31256
1.30335
1.29274
1.28216
1.27012
1.25788
1.25096
1.24912
1.24526
1.24165
1.23982
1.23606
1.23338
1.23469
1.23557
1.2361
1.23616
1.23533
1.23372
1.23079
1.22287
1.20997
1.19622
1.18788
1.18264
1.17795
1.17436
1.17306
1.17166
1.16902
1.16616
1.16175
1.144
1.95872
2.03149
2.01213
1.99034
1.97289
1.95487
1.93328
1.91194
1.89161
1.8717
1.84894
1.824
1.80561
1.78654
1.76708
1.741
1.72275
1.70664
1.68722
1.66756
1.64363
1.62969
1.61364
1.63077
1.73998
1.93908
2.09073
2.07299
2.04136
2.0079
1.97855
1.94909
1.91953
1.89274
1.86687
1.83905
1.81025
1.78285
1.75814
1.73551
1.71396
1.69329
1.6736
1.65481
1.63613
1.61657
1.59532
1.57182
1.5473
1.52524
1.50697
1.49112
1.47634
1.46128
1.44473
1.42745
1.4099
1.39119
1.37379
1.35988
1.34478
1.32662
1.31357
1.30385
1.292
1.2789
1.26753
1.25494
1.23901
1.22664
1.22044
1.21438
1.20754
1.20189
1.19478
1.18461
1.18049
1.1798
1.18038
1.18309
1.18749
1.1897
1.18876
1.1847
1.17661
1.17079
1.16915
1.16486
1.15913
1.15627
1.15555
1.153
1.14912
1.14369
1.13889
1.12851
1.6857
1.9497
2.00213
1.98212
1.95898
1.94059
1.92211
1.9028
1.88303
1.86392
1.84392
1.82363
1.80394
1.78469
1.76407
1.74264
1.72759
1.71108
1.69353
1.66691
1.64855
1.64114
1.68099
1.84248
2.03566
2.12916
2.11716
2.08003
2.03408
1.99333
1.96165
1.93588
1.91043
1.8853
1.85895
1.83091
1.80253
1.77553
1.7508
1.72777
1.7054
1.68348
1.66277
1.64407
1.62678
1.60949
1.59054
1.56866
1.54502
1.52262
1.50274
1.48432
1.46654
1.45027
1.43526
1.42027
1.40529
1.38909
1.37117
1.35402
1.3363
1.3177
1.30298
1.29172
1.28163
1.27146
1.26038
1.24765
1.23157
1.21774
1.20866
1.19885
1.18841
1.17952
1.17277
1.16575
1.1574
1.14881
1.14295
1.1389
1.13839
1.14011
1.14006
1.1364
1.13011
1.12411
1.12399
1.12595
1.12818
1.13161
1.13384
1.13391
1.13189
1.12683
1.11835
1.1078
1.21735
1.73396
1.94005
1.97131
1.953
1.92949
1.90896
1.89108
1.87442
1.85635
1.8353
1.81656
1.80073
1.7828
1.76204
1.74132
1.72634
1.71056
1.69415
1.67031
1.67301
1.74916
1.95396
2.11711
2.15846
2.13663
2.09507
2.05386
2.01705
1.98385
1.95252
1.92479
1.89835
1.87247
1.84668
1.82005
1.79246
1.76534
1.74043
1.71787
1.69642
1.67503
1.65376
1.6335
1.6143
1.59529
1.57566
1.55498
1.53456
1.51667
1.50088
1.48487
1.46681
1.44696
1.42596
1.40424
1.38713
1.375
1.36346
1.35111
1.3364
1.31983
1.30289
1.28604
1.27026
1.25691
1.24704
1.23916
1.23
1.21842
1.20628
1.19385
1.18233
1.17079
1.15876
1.14812
1.13953
1.13322
1.12705
1.12233
1.1187
1.11491
1.10947
1.10188
1.09204
1.08163
1.07752
1.07793
1.08047
1.08564
1.09429
1.10397
1.10708
1.10576
1.09698
1.08623
1.01216
1.29282
1.75645
1.92159
1.94306
1.9242
1.9002
1.88208
1.8651
1.84636
1.82685
1.81058
1.79532
1.77743
1.75666
1.73938
1.72525
1.7114
1.69587
1.71603
1.8522
2.05278
2.18392
2.18388
2.16157
2.12098
2.07707
2.03943
2.00225
1.97031
1.94114
1.91332
1.88638
1.85982
1.8342
1.80849
1.78192
1.75488
1.72806
1.70279
1.68006
1.65975
1.64119
1.62346
1.60531
1.58584
1.56493
1.54288
1.52101
1.50181
1.48578
1.47115
1.4565
1.44084
1.422
1.40082
1.3805
1.36373
1.34862
1.33487
1.32495
1.3156
1.30224
1.28678
1.27149
1.25456
1.2388
1.22687
1.21932
1.21421
1.20691
1.19428
1.18131
1.16833
1.15363
1.14087
1.13027
1.12233
1.11716
1.11334
1.11003
1.10621
1.10099
1.09255
1.07854
1.05997
1.05003
1.04763
1.0476
1.04841
1.05134
1.05806
1.06321
1.06358
1.05846
1.05606
1.00012
1.0242
1.34816
1.76676
1.90017
1.91405
1.89553
1.87368
1.85624
1.83969
1.82154
1.8025
1.78708
1.77137
1.75547
1.73534
1.7199
1.7196
1.7719
1.96957
2.15739
2.20826
2.19616
2.16656
2.1318
2.0952
2.06121
2.02934
1.99432
1.95843
1.92723
1.90028
1.87493
1.84876
1.82163
1.79404
1.76698
1.74105
1.71532
1.68952
1.66479
1.64276
1.62392
1.60665
1.58916
1.57069
1.55187
1.53349
1.51513
1.4961
1.47649
1.45697
1.43759
1.41949
1.40623
1.39299
1.37621
1.36088
1.3473
1.33273
1.31824
1.3064
1.29621
1.28429
1.27072
1.2558
1.2401
1.22781
1.21761
1.20769
1.20175
1.19715
1.18748
1.17135
1.15077
1.13709
1.13352
1.12946
1.1237
1.11748
1.11101
1.10387
1.09589
1.08696
1.07423
1.05472
1.03918
1.03469
1.03309
1.0324
1.03203
1.03176
1.03092
1.02867
1.02259
1.01401
1
1.00032
1.03811
1.3887
1.76425
1.87671
1.88682
1.87039
1.84915
1.83099
1.81332
1.79811
1.78204
1.76683
1.74759
1.73146
1.7394
1.8472
2.06696
2.24338
2.26071
2.22819
2.17921
2.14049
2.1047
2.07367
2.0444
2.01216
1.97736
1.94321
1.91254
1.88577
1.86074
1.83497
1.80753
1.77928
1.75204
1.72601
1.7
1.67401
1.64932
1.62746
1.60844
1.5903
1.57153
1.55213
1.53326
1.51738
1.5037
1.48819
1.46945
1.44967
1.43034
1.41059
1.39188
1.37695
1.36487
1.35433
1.34394
1.33209
1.31874
1.30512
1.29013
1.2742
1.26007
1.25125
1.24484
1.23566
1.22463
1.21428
1.20381
1.19326
1.18171
1.16977
1.15846
1.1455
1.13103
1.12068
1.11369
1.10767
1.10192
1.0957
1.08868
1.08004
1.06903
1.05378
1.0364
1.0296
1.02732
1.02552
1.02385
1.02204
1.01968
1.01583
1.0085
0.992995
1
1
1.00066
1.0522
1.41289
1.74937
1.85717
1.86343
1.84552
1.82398
1.80856
1.79171
1.77614
1.76289
1.74452
1.76805
1.93808
2.18267
2.27412
2.26412
2.23038
2.18346
2.14748
2.11644
2.08458
2.05377
2.02241
1.98855
1.95504
1.92362
1.8946
1.86732
1.84044
1.81338
1.78618
1.75971
1.73469
1.71015
1.6849
1.65927
1.63493
1.61339
1.59441
1.57592
1.55643
1.53782
1.52065
1.50445
1.49111
1.47846
1.46108
1.44104
1.42261
1.40513
1.38834
1.37352
1.36008
1.34732
1.33617
1.32648
1.31665
1.30179
1.285
1.27199
1.26205
1.25216
1.24147
1.22949
1.21636
1.20767
1.19952
1.18974
1.18205
1.17398
1.16136
1.14429
1.12807
1.11747
1.11021
1.10419
1.0991
1.09421
1.08848
1.08103
1.07036
1.05372
1.03565
1.0283
1.0253
1.0232
1.02139
1.01928
1.01647
1.01209
1.00419
0.986873
1
1
1
1.00108
1.06375
1.41632
1.73948
1.83969
1.83852
1.82065
1.80329
1.78615
1.77198
1.76068
1.8151
2.05706
2.26494
2.33259
2.31042
2.25552
2.19926
2.15109
2.11889
2.09179
2.06283
2.03074
1.99613
1.96149
1.93
1.90179
1.87497
1.84758
1.81918
1.79068
1.76378
1.73927
1.71641
1.69389
1.67046
1.64604
1.62256
1.60178
1.58315
1.5649
1.54594
1.52822
1.51329
1.49948
1.48525
1.47209
1.46175
1.44781
1.42799
1.40824
1.38952
1.37148
1.35727
1.3478
1.33909
1.3266
1.31337
1.30566
1.29689
1.28559
1.27314
1.25983
1.24642
1.23224
1.2168
1.20594
1.20121
1.19815
1.19371
1.1856
1.17051
1.15087
1.13568
1.1271
1.12122
1.11621
1.1115
1.10653
1.10067
1.09311
1.08213
1.06553
1.04694
1.03608
1.03133
1.02843
1.02602
1.02367
1.0208
1.0159
1.00696
0.984486
1
1
1
1
1.00149
1.06978
1.41285
1.73269
1.80647
1.81453
1.80233
1.77899
1.77561
1.87979
2.1695
2.35105
2.33378
2.30175
2.26085
2.2203
2.17814
2.1369
2.09932
2.06669
2.03511
2.00258
1.96988
1.93863
1.90968
1.88286
1.85669
1.82822
1.79825
1.7696
1.74458
1.72282
1.70232
1.68193
1.66087
1.63846
1.61479
1.59184
1.57211
1.55605
1.5431
1.53127
1.51858
1.50408
1.48834
1.47295
1.45644
1.43608
1.41552
1.39718
1.38343
1.3732
1.36339
1.3526
1.34105
1.32853
1.31548
1.3019
1.28793
1.27405
1.26027
1.24697
1.23457
1.22334
1.21489
1.20886
1.20296
1.1955
1.18656
1.17449
1.15856
1.14177
1.12883
1.12044
1.11446
1.10948
1.10484
1.10007
1.09452
1.08726
1.07657
1.06035
1.04185
1.03065
1.02567
1.02265
1.0202
1.01794
1.01501
1.00978
1.00062
0.979596
1
1
1
1
1.00001
1.00182
1.07036
1.41407
1.69672
1.79002
1.78909
1.79118
1.93141
2.24808
2.40651
2.40091
2.3361
2.26942
2.21687
2.1828
2.15119
2.11583
2.07825
2.04258
2.00945
1.97757
1.94727
1.91941
1.89356
1.86845
1.84325
1.81592
1.78597
1.7573
1.73228
1.71064
1.69062
1.67122
1.65209
1.63261
1.61226
1.59155
1.57193
1.55438
1.53928
1.52548
1.51191
1.49794
1.48352
1.46845
1.45075
1.43022
1.41191
1.39757
1.38443
1.37181
1.3599
1.34862
1.3375
1.32581
1.31296
1.29905
1.28506
1.27094
1.25677
1.24312
1.23113
1.22239
1.21603
1.21018
1.20357
1.19536
1.18508
1.17196
1.15594
1.13991
1.12764
1.11933
1.11329
1.10832
1.10372
1.09899
1.0935
1.08629
1.07578
1.0598
1.04126
1.0299
1.02489
1.02186
1.01959
1.01775
1.01529
1.01038
1.00118
0.980353
1
1
1
1
1
1.00001
1.00188
1.07189
1.3892
1.6767
1.75395
1.98262
2.29128
2.3958
2.36284
2.32867
2.29291
2.25118
2.20692
2.1672
2.13218
2.09848
2.06395
2.02954
1.99676
1.96589
1.93691
1.91024
1.88614
1.86356
1.83981
1.81511
1.79129
1.76601
1.74157
1.71983
1.70018
1.68183
1.66419
1.64617
1.6266
1.6054
1.58409
1.56461
1.54762
1.5326
1.51885
1.5053
1.49114
1.47635
1.46039
1.44307
1.42571
1.40862
1.3923
1.37821
1.36619
1.35524
1.34446
1.33293
1.32041
1.30737
1.29371
1.27918
1.26439
1.25101
1.24037
1.23223
1.22555
1.21931
1.21242
1.20375
1.19281
1.17952
1.16413
1.14884
1.13643
1.12757
1.1213
1.1165
1.11223
1.10771
1.10219
1.09483
1.08415
1.06792
1.0491
1.03764
1.03248
1.02932
1.0273
1.02586
1.02395
1.01963
1.01067
0.988792
1
1
1
1
1
1
1.00001
1.00209
1.07109
1.41221
1.80153
2.35137
2.62
2.53365
2.38833
2.29315
2.25971
2.23073
2.19647
2.15732
2.12007
2.08697
2.05569
2.02428
1.99278
1.96243
1.93461
1.9098
1.88611
1.86095
1.83438
1.80825
1.78114
1.75426
1.72892
1.70598
1.68569
1.66761
1.65082
1.63377
1.61484
1.59348
1.57113
1.55036
1.53267
1.51796
1.50515
1.49258
1.47881
1.46351
1.44702
1.43028
1.41376
1.39695
1.38028
1.36531
1.35266
1.342
1.33227
1.32164
1.30917
1.29522
1.28074
1.26623
1.25208
1.23974
1.22977
1.22148
1.21462
1.20872
1.202
1.19284
1.18107
1.16741
1.15259
1.13863
1.1271
1.11793
1.11104
1.10616
1.10225
1.09821
1.09313
1.08598
1.07523
1.05865
1.03966
1.02879
1.02379
1.02023
1.01814
1.01694
1.01561
1.01196
1.00312
0.980653
)
;

boundaryField
{
    inlet
    {
        type            fixedValue;
        value           uniform 1;
    }
    outlet
    {
        type            inletOutlet;
        inletValue      uniform 1;
        value           nonuniform List<scalar> 
32
(
2.03743
2.0206
1.97534
1.9112
1.85205
1.80126
1.76329
1.73791
1.71532
1.68208
1.62764
1.53746
1.38984
1.26809
1.23331
1.21195
1.18865
1.16685
1.15113
1.14113
1.12778
1.10757
1.08532
1.0551
1.01244
0.991293
0.984775
0.981916
0.977274
0.978146
0.986395
0.978103
)
;
    }
    bottom
    {
        type            symmetryPlane;
    }
    top
    {
        type            symmetryPlane;
    }
    obstacle
    {
        type            zeroGradient;
    }
    defaultFaces
    {
        type            empty;
    }
}


// ************************************************************************* //
