/*--------------------------------*- C++ -*----------------------------------*\
  =========                 |
  \\      /  F ield         | OpenFOAM: The Open Source CFD Toolbox
   \\    /   O peration     | Website:  https://openfoam.org
    \\  /    A nd           | Version:  7
     \\/     M anipulation  |
\*---------------------------------------------------------------------------*/
FoamFile
{
    version     2.0;
    format      ascii;
    class       volScalarField;
    location    "2.4";
    object      rho;
}
// * * * * * * * * * * * * * * * * * * * * * * * * * * * * * * * * * * * * * //

dimensions      [1 -3 0 0 0 0 0];

internalField   nonuniform List<scalar> 
4032
(
1.40001
1.40001
1.40001
1.40001
1.40001
1.40001
1.40001
1.40001
1.40001
1.40001
1.40001
1.40001
3.73706
5.42878
5.51398
5.59215
5.6652
5.72694
5.77858
5.82223
5.86047
5.89091
5.91485
5.93461
1.40001
1.40001
1.40001
1.40001
1.40001
1.40001
1.40001
1.40001
1.40001
1.40001
1.40001
1.40001
3.66248
5.40286
5.50424
5.58132
5.65436
5.71478
5.76449
5.80564
5.84132
5.86935
5.89095
5.90963
1.40001
1.40001
1.40001
1.40001
1.40001
1.40001
1.40001
1.40001
1.40001
1.40001
1.40001
1.40001
3.51406
5.37189
5.48609
5.5611
5.63421
5.69357
5.74179
5.78077
5.81369
5.83901
5.8571
5.87504
1.40001
1.40001
1.40001
1.40001
1.40001
1.40001
1.40001
1.40001
1.40001
1.40001
1.40001
1.40001
3.29837
5.32428
5.46244
5.53376
5.60648
5.6644
5.71094
5.74755
5.7768
5.79674
5.80698
5.81659
1.40001
1.40001
1.40001
1.40001
1.40001
1.40001
1.40001
1.40001
1.40001
1.40001
1.40001
1.40001
3.0167
5.24631
5.43408
5.49959
5.56877
5.62153
5.66169
5.69041
5.71111
5.72604
5.7335
5.75004
1.40001
1.40001
1.40001
1.40001
1.40001
1.40001
1.40001
1.40001
1.40001
1.40001
1.40001
1.40001
2.68213
5.12596
5.41493
5.47111
5.53307
5.57593
5.60508
5.62443
5.6376
5.64807
5.64799
5.63448
1.40001
1.40001
1.40001
1.40001
1.40001
1.40001
1.40001
1.40001
1.40001
1.40001
1.40001
1.40001
2.28982
4.94826
5.42335
5.45955
5.50488
5.53301
5.54573
5.54644
5.53521
5.5106
5.47754
5.4618
1.40001
1.40001
1.40001
1.40001
1.40001
1.40001
1.40001
1.40001
1.40001
1.40001
1.40001
1.40001
1.87203
4.70328
5.43659
5.42972
5.46829
5.4864
5.4826
5.46091
5.42419
5.37348
5.29931
5.26005
1.40001
1.40001
1.40001
1.40001
1.40001
1.40001
1.40001
1.40001
1.40001
1.40001
1.40001
1.40001
1.4713
4.28364
5.43718
5.41208
5.41971
5.41892
5.39715
5.35774
5.28601
5.16332
4.83843
3.98205
1.40001
1.40001
1.40001
1.40001
1.40001
1.40001
1.40001
1.40001
1.40001
1.40001
1.40001
1.40001
1.40074
3.62649
5.20339
5.27364
5.31728
5.32346
5.29467
5.24004
5.1295
4.92739
4.58355
3.68595
1.40001
1.40001
1.40001
1.40001
1.40001
1.40001
1.40001
1.40001
1.40001
1.40001
1.40001
1.40001
1.39999
2.88773
5.0229
5.22942
5.24995
5.24709
5.20467
5.12887
4.98933
4.74311
4.37947
3.55546
1.40001
1.40001
1.40001
1.40001
1.40001
1.40001
1.40001
1.40001
1.40001
1.40001
1.40001
1.40001
1.4
2.11657
4.78305
5.22019
5.2032
5.17398
5.11305
5.01746
4.85678
4.61096
4.21078
3.54233
1.40001
1.40001
1.40001
1.40001
1.40001
1.40001
1.40001
1.40001
1.40001
1.40001
1.40001
1.40001
1.4
1.51706
4.18758
5.20142
5.14971
5.09205
5.01224
4.90597
4.73994
4.50541
4.10752
3.58177
1.40001
1.40001
1.40001
1.40001
1.40001
1.40001
1.40001
1.40001
1.40001
1.40001
1.40001
1.40001
1.40001
1.40138
3.28929
5.05485
5.05057
4.99788
4.91737
4.80361
4.64434
4.41317
4.0545
3.63265
1.40001
1.40001
1.40001
1.40001
1.40001
1.40001
1.40001
1.40001
1.40001
1.40001
1.40001
1.40001
1.40001
1.39999
2.20159
4.84818
5.05714
4.96443
4.86811
4.73818
4.58082
4.34202
4.03383
3.68815
1.40001
1.40001
1.40001
1.40001
1.40001
1.40001
1.40001
1.40001
1.40001
1.40001
1.40001
1.40001
1.40001
1.4
1.51024
4.07398
4.99955
4.91181
4.82568
4.68828
4.52384
4.29409
4.02599
3.72825
1.40001
1.40001
1.40001
1.40001
1.40001
1.40001
1.40001
1.40001
1.40001
1.40001
1.40001
1.40001
1.40001
1.4
1.40106
2.84216
4.80628
4.87713
4.80414
4.67595
4.49698
4.27817
4.03243
3.76632
1.40001
1.40001
1.40001
1.40001
1.40001
1.40001
1.40001
1.40001
1.40001
1.40001
1.40001
1.40001
1.40001
1.40001
1.4
1.71478
4.35903
4.93885
4.81422
4.67437
4.4877
4.27257
4.03993
3.79597
1.40001
1.40001
1.40001
1.40001
1.40001
1.40001
1.40001
1.40001
1.40001
1.40001
1.40001
1.40001
1.40001
1.40001
1.4
1.41274
3.20683
4.77669
4.76707
4.64445
4.47384
4.27075
4.05241
3.82822
1.40001
1.40001
1.40001
1.40001
1.40001
1.40001
1.40001
1.40001
1.40001
1.40001
1.40001
1.40001
1.40001
1.40001
1.4
1.4
1.87336
4.38383
4.82956
4.65511
4.48029
4.28369
4.08055
3.87221
1.40001
1.40001
1.40001
1.40001
1.40001
1.40001
1.40001
1.40001
1.40001
1.40001
1.40001
1.40001
1.40001
1.40001
1.40001
1.4
1.43007
3.26079
4.69719
4.63561
4.47926
4.30029
4.11047
3.91212
1.40001
1.40001
1.40001
1.40001
1.40001
1.40001
1.40001
1.40001
1.40001
1.40001
1.40001
1.40001
1.40001
1.40001
1.40001
1.4
1.40012
1.90086
4.20484
4.67661
4.51082
4.33912
4.15377
3.9609
1.40001
1.40001
1.40001
1.40001
1.40001
1.40001
1.40001
1.40001
1.40001
1.40001
1.40001
1.40001
1.40001
1.40001
1.40001
1.40001
1.40001
1.43251
2.97459
4.55246
4.51569
4.35635
4.18386
4.00602
1.40001
1.40001
1.40001
1.40001
1.40001
1.40001
1.40001
1.40001
1.40001
1.40001
1.40001
1.40001
1.40001
1.40001
1.40001
1.40001
1.40001
1.40024
1.76194
3.89
4.57862
4.40117
4.23334
4.06282
1.40001
1.40001
1.40001
1.40001
1.40001
1.40001
1.40001
1.40001
1.40001
1.40001
1.40001
1.40001
1.40001
1.40001
1.40001
1.40001
1.40001
1.40001
1.4167
2.48238
4.28698
4.42429
4.27727
4.11385
1.40001
1.40001
1.40001
1.40001
1.40001
1.40001
1.40001
1.40001
1.40001
1.40001
1.40001
1.40001
1.40001
1.40001
1.40001
1.40001
1.40001
1.40001
1.40014
1.56052
3.31518
4.4228
4.35183
4.19025
1.40001
1.40001
1.40001
1.40001
1.40001
1.40001
1.40001
1.40001
1.40001
1.40001
1.40001
1.40001
1.40001
1.40001
1.40001
1.40001
1.40001
1.40001
1.40001
1.40385
1.96182
3.8818
4.38262
4.25302
1.40001
1.40001
1.40001
1.40001
1.40001
1.40001
1.40001
1.40001
1.40001
1.40001
1.40001
1.40001
1.40001
1.40001
1.40001
1.40001
1.40001
1.40001
1.40001
1.40003
1.44088
2.52787
4.14376
4.30613
1.40001
1.40001
1.40001
1.40001
1.40001
1.40001
1.40001
1.40001
1.40001
1.40001
1.40001
1.40001
1.40001
1.40001
1.40001
1.40001
1.40001
1.40001
1.40001
1.40001
1.40056
1.57103
3.11594
4.22782
1.40001
1.40001
1.40001
1.40001
1.40001
1.40001
1.40001
1.40001
1.40001
1.40001
1.40001
1.40001
1.40001
1.40001
1.40001
1.40001
1.40001
1.40001
1.40001
1.40001
1.40001
1.40491
1.8372
3.55289
1.40001
1.40001
1.40001
1.40001
1.40001
1.40001
1.40001
1.40001
1.40001
1.40001
1.40001
1.40001
1.40001
1.40001
1.40001
1.40001
1.40001
1.40001
1.40001
1.40001
1.40001
1.40004
1.42603
2.18592
1.40001
1.40001
1.40001
1.40001
1.40001
1.40001
1.40001
1.40001
1.40001
1.40001
1.40001
1.40001
1.40001
1.40001
1.40001
1.40001
1.40001
1.40001
1.40001
1.40001
1.40001
1.40001
1.40033
1.48166
1.40001
1.40001
1.40001
1.40001
1.40001
1.40001
1.40001
1.40001
1.40001
1.40001
1.40001
1.40001
1.40001
1.40001
1.40001
1.40001
1.40001
1.40001
1.40001
1.40001
1.40001
1.40001
1.40001
1.40168
1.40001
1.40001
1.40001
1.40001
1.40001
1.40001
1.40001
1.40001
1.40001
1.40001
1.40001
1.40001
1.40001
1.40001
1.40001
1.40001
1.40001
1.40001
1.40001
1.40001
1.40001
1.40001
1.40001
1.40001
1.40001
1.40001
1.40001
1.40001
1.40001
1.40001
1.40001
1.40001
1.40001
1.40001
1.40001
1.40001
1.40001
1.40001
1.40001
1.40001
1.40001
1.40001
1.40001
1.40001
1.40001
1.40001
1.40001
1.40001
1.40001
1.40001
1.40001
1.40001
1.40001
1.40001
1.40001
1.40001
1.40001
1.40001
1.40001
1.40001
1.40001
1.40001
1.40001
1.40001
1.40001
1.40001
1.40001
1.40001
1.40001
1.40001
1.40001
1.40001
1.40001
1.40001
1.40001
1.40001
1.40001
1.40001
1.40001
1.40001
1.40001
1.40001
1.40001
1.40001
1.40001
1.40001
1.40001
1.40001
1.40001
1.40001
1.40001
1.40001
1.40001
1.40001
1.40001
1.40001
1.40001
1.40001
1.40001
1.40001
1.40001
1.40001
1.40001
1.40001
1.40001
1.40001
1.40001
1.40001
1.40001
1.40001
1.40001
1.40001
1.40001
1.40001
1.40001
1.40001
1.40001
1.40001
1.40001
1.40001
1.40001
1.40001
1.40001
1.40001
1.40001
1.40001
1.40001
1.40001
1.40001
1.40001
1.40001
1.40001
1.40001
1.40001
1.40001
1.40001
1.40001
1.40001
1.40001
1.40001
1.40001
1.40001
1.40001
1.40001
1.40001
1.40001
1.40001
1.40001
1.40001
1.40001
1.40001
1.40001
1.40001
1.40001
1.40001
1.40001
1.40001
1.40001
1.40001
1.40001
1.40001
1.40001
1.40001
1.40001
1.40001
1.40001
1.40001
1.40001
1.30278
0.501933
0.261581
0.207526
0.226579
0.284821
0.381943
0.489772
0.59799
0.688333
0.753361
0.816128
0.902886
0.973746
0.99161
1.01019
1.00419
0.990947
0.992619
1.01786
1.04829
1.05537
1.05229
1.04052
1.04071
1.05225
1.07663
1.08741
1.08808
1.07779
1.06307
1.06229
1.06986
1.08849
1.09847
1.09682
1.13044
1.41406
2.60044
3.39409
3.41038
3.37783
3.37698
3.27644
3.15071
3.08903
3.07441
3.06424
3.02406
2.97187
2.9167
2.87585
2.8477
2.83658
2.81625
2.77586
2.73399
2.69162
2.64776
2.60111
2.55672
2.52189
2.49262
2.46617
2.4416
2.41446
2.38502
2.34567
2.28992
2.23245
2.19538
2.17233
2.15346
2.14213
2.13334
2.11433
2.09065
2.05342
1.99221
1.94218
1.92099
1.90629
1.89435
1.89001
1.88886
1.87651
1.86007
1.83839
1.7947
1.72772
1.6907
1.67668
1.66553
1.65815
1.66058
1.6436
1.98498
1.22066
0.88188
0.678824
0.565424
0.563386
0.580424
0.569615
0.567001
0.597616
0.647645
0.70367
0.775413
0.863435
0.923574
0.961023
0.98716
0.991424
0.99921
1.01966
1.05203
1.07591
1.08116
1.07669
1.06655
1.0667
1.07463
1.08907
1.09897
1.10188
1.0996
1.09158
1.08814
1.08933
1.09529
1.13875
1.35901
1.7453
2.29189
3.10244
3.3386
3.34722
3.35253
3.26729
3.18462
3.13147
3.10304
3.09096
3.05789
3.00787
2.95122
2.9043
2.86702
2.83937
2.8121
2.77757
2.74187
2.70542
2.66793
2.62598
2.57822
2.53144
2.49478
2.46595
2.44115
2.4176
2.39019
2.35589
2.31402
2.26582
2.21688
2.18305
2.16204
2.14473
2.12867
2.1103
2.08788
2.05729
2.01398
1.96438
1.9305
1.91373
1.90142
1.89335
1.88562
1.8726
1.85603
1.83514
1.80185
1.75121
1.70565
1.68496
1.67329
1.66339
1.65787
1.64
2.48075
1.82227
1.43924
1.15125
0.891383
0.791979
0.759209
0.73209
0.681476
0.65633
0.675809
0.716085
0.753801
0.802446
0.875494
0.92475
0.977977
1.02453
1.04622
1.06719
1.08977
1.11321
1.13869
1.15107
1.15264
1.14649
1.1272
1.11524
1.11564
1.12621
1.1436
1.14918
1.14515
1.13372
1.16496
1.38653
1.80566
2.11891
2.18576
2.51103
3.12626
3.43392
3.47842
3.39848
3.33806
3.27043
3.2031
3.15521
3.10542
3.06252
3.02412
2.98352
2.93839
2.88931
2.84401
2.80393
2.76575
2.72963
2.69565
2.66165
2.62304
2.57658
2.52879
2.48803
2.45362
2.42176
2.39114
2.36362
2.33734
2.30998
2.27369
2.22607
2.18644
2.16197
2.14004
2.11596
2.08814
2.06002
2.03479
2.00665
1.96924
1.93584
1.9189
1.90563
1.89186
1.8748
1.8541
1.82953
1.80296
1.77386
1.7419
1.71149
1.69012
1.67569
1.66515
1.64389
2.81556
2.23673
1.84874
1.58369
1.33141
1.08462
0.974424
0.960879
0.924593
0.861454
0.804385
0.758669
0.752239
0.758949
0.787119
0.837283
0.901512
0.967562
1.01187
1.03498
1.06325
1.09357
1.12714
1.1729
1.19615
1.19704
1.18455
1.16119
1.15909
1.16722
1.18528
1.19481
1.1964
1.23144
1.44247
1.89548
2.15907
2.25696
2.21765
2.22643
2.48648
3.00505
3.31202
3.4612
3.44777
3.37556
3.29677
3.22535
3.1578
3.11844
3.08866
3.05127
3.00523
2.94856
2.88876
2.84277
2.80686
2.77211
2.73791
2.70507
2.67161
2.63193
2.58187
2.531
2.49049
2.45624
2.4264
2.40065
2.37669
2.35257
2.32534
2.28536
2.23086
2.18935
2.16172
2.13427
2.10653
2.08507
2.06701
2.04811
2.02346
1.98599
1.94737
1.92519
1.90748
1.88744
1.86315
1.83506
1.81066
1.79254
1.77519
1.75359
1.72591
1.6993
1.68271
1.65573
3.05399
2.5774
2.17568
1.89044
1.6695
1.45116
1.25176
1.13333
1.08904
1.04282
0.984693
0.905581
0.814555
0.784505
0.790203
0.809408
0.843335
0.886983
0.919589
0.93751
0.96881
1.0214
1.07703
1.13782
1.17803
1.18772
1.18751
1.17541
1.17821
1.19036
1.20999
1.22777
1.28837
1.51228
1.95792
2.25194
2.27558
2.26584
2.2527
2.2292
2.23354
2.39703
2.78815
3.22586
3.35795
3.41491
3.37356
3.30137
3.22415
3.1693
3.12867
3.08495
3.04154
2.99426
2.93752
2.88062
2.83902
2.80577
2.77457
2.74446
2.71371
2.6777
2.62666
2.56311
2.51856
2.49141
2.46716
2.44449
2.42305
2.39993
2.37458
2.34005
2.28309
2.21788
2.17967
2.15666
2.13854
2.12332
2.10841
2.09086
2.07126
2.044
2.00091
1.95393
1.92407
1.90129
1.87565
1.84929
1.831
1.81712
1.80352
1.7884
1.76677
1.73484
1.70823
1.67389
3.20809
2.81252
2.44742
2.1531
1.91489
1.72363
1.55637
1.38079
1.23118
1.18852
1.15734
1.10061
1.01559
0.922214
0.87186
0.86436
0.873313
0.882841
0.87952
0.876977
0.882696
0.911781
0.959364
1.01349
1.07015
1.12414
1.16198
1.1663
1.1737
1.18567
1.20694
1.27504
1.58751
1.98665
2.28763
2.31738
2.30092
2.27947
2.25191
2.23491
2.21018
2.19683
2.26945
2.57247
2.9579
3.27233
3.32863
3.30293
3.26197
3.19598
3.14694
3.09899
3.05936
3.02268
2.97625
2.91253
2.85529
2.82061
2.79095
2.76496
2.73605
2.70462
2.66214
2.59857
2.54336
2.51511
2.49222
2.47123
2.45115
2.42939
2.40579
2.3757
2.32781
2.25836
2.20561
2.18265
2.16624
2.15197
2.14065
2.12527
2.10667
2.08576
2.05286
1.99748
1.94201
1.90854
1.88676
1.87152
1.8588
1.84661
1.8326
1.81795
1.79967
1.76946
1.73357
1.69056
3.33433
2.98953
2.66484
2.39015
2.13522
1.91762
1.77373
1.63051
1.47101
1.33732
1.25924
1.21606
1.1692
1.10761
1.02872
0.951556
0.913965
0.903171
0.895903
0.895984
0.904223
0.903767
0.894448
0.898182
0.92473
0.976899
1.04448
1.10711
1.14843
1.16535
1.2304
1.54483
2.00236
2.25927
2.35083
2.33845
2.31095
2.25987
2.22496
2.21797
2.20392
2.18432
2.1615
2.1876
2.35656
2.73601
3.08718
3.24276
3.26077
3.21119
3.16216
3.12316
3.07912
3.04046
2.99993
2.94192
2.87241
2.82766
2.79803
2.77329
2.74711
2.71649
2.68075
2.62931
2.56672
2.52715
2.50374
2.48244
2.46142
2.43988
2.41666
2.38914
2.35213
2.30002
2.24187
2.20584
2.18768
2.17283
2.16113
2.14608
2.12757
2.10731
2.08003
2.03113
1.96178
1.91741
1.9005
1.88818
1.87856
1.87046
1.8583
1.84417
1.82849
1.79992
1.75313
1.70218
3.42452
3.12163
2.82301
2.57191
2.34092
2.1148
1.93393
1.7936
1.6651
1.54576
1.4337
1.31407
1.26125
1.235
1.1862
1.11151
1.02416
0.984078
0.969802
0.957394
0.949955
0.935898
0.912662
0.895505
0.892549
0.901078
0.92437
0.974084
1.04012
1.13477
1.4356
1.94282
2.1719
2.27609
2.32604
2.30359
2.25648
2.22436
2.21256
2.20699
2.19569
2.18098
2.16477
2.15098
2.14587
2.21978
2.49761
2.85118
3.13656
3.17197
3.16245
3.14516
3.09938
3.05428
3.01003
2.95886
2.89783
2.84352
2.80927
2.78151
2.7533
2.72266
2.69077
2.65312
2.60091
2.54237
2.50656
2.48461
2.46403
2.44238
2.41909
2.39403
2.36658
2.33444
2.29208
2.24116
2.20288
2.18094
2.16221
2.14694
2.1351
2.11643
2.09005
2.05041
1.99423
1.94055
1.91435
1.90059
1.88917
1.88362
1.88123
1.86958
1.85305
1.82237
1.77029
1.71539
3.49487
3.22331
2.95722
2.71581
2.49033
2.28428
2.11307
1.95241
1.79537
1.68961
1.59855
1.48649
1.3776
1.31874
1.27845
1.23121
1.17488
1.11268
1.0472
1.00817
0.991306
0.973283
0.954414
0.940709
0.922503
0.906592
0.906435
0.913374
0.958119
1.21766
1.72961
2.01078
2.08619
2.14395
2.19146
2.19296
2.19431
2.20386
2.20945
2.20271
2.18815
2.1733
2.16399
2.15404
2.13932
2.11006
2.12582
2.27785
2.62192
2.94227
3.08769
3.13596
3.125
3.07747
3.01923
2.96883
2.92054
2.87746
2.83326
2.79609
2.76457
2.73259
2.70089
2.66889
2.62995
2.5751
2.51813
2.48526
2.46383
2.44331
2.42232
2.40078
2.37942
2.35788
2.33045
2.28599
2.22709
2.18604
2.16397
2.14464
2.12302
2.1005
2.07801
2.05515
2.02591
1.98523
1.93937
1.91386
1.9011
1.88979
1.87958
1.86693
1.85106
1.8277
1.79057
1.73773
3.54904
3.30102
3.06084
2.83753
2.6235
2.42449
2.25487
2.10032
1.94885
1.81944
1.71463
1.61947
1.52541
1.44173
1.36173
1.30565
1.27439
1.23426
1.17755
1.10549
1.06148
1.03716
1.018
1.0036
0.981727
0.950548
0.928761
0.956289
1.17508
1.58402
1.89552
1.93684
1.92169
1.93034
1.97279
2.03703
2.09465
2.14431
2.14939
2.14824
2.14051
2.14065
2.15168
2.1525
2.1317
2.10473
2.09734
2.0857
2.14603
2.37821
2.68808
2.9595
3.07705
3.05507
3.03703
2.99487
2.95429
2.9127
2.86472
2.82036
2.78248
2.74869
2.71605
2.68393
2.65058
2.61014
2.55506
2.49815
2.46317
2.44179
2.42442
2.4097
2.39302
2.37343
2.35112
2.3183
2.26452
2.20484
2.16606
2.13924
2.11485
2.0924
2.07276
2.05682
2.04183
2.02168
1.98662
1.94011
1.91001
1.89426
1.87991
1.86388
1.84617
1.82522
1.80364
1.76365
3.5968
3.37209
3.15655
2.94219
2.73689
2.55659
2.38806
2.22551
2.08004
1.95354
1.83522
1.72623
1.64229
1.56807
1.48779
1.40215
1.34078
1.30713
1.27224
1.22532
1.17737
1.12974
1.07099
1.03648
1.02272
1.00265
1.0255
1.22789
1.64521
1.9041
1.9329
1.91166
1.88155
1.86618
1.86763
1.87982
1.89794
1.93439
1.96909
1.99119
2.01982
2.04702
2.07039
2.08893
2.09986
2.1015
2.10024
2.08098
2.03877
2.05082
2.15892
2.41804
2.74756
2.92614
2.99955
3.00052
2.98472
2.93777
2.88696
2.84469
2.80386
2.76935
2.73773
2.70656
2.67494
2.64033
2.59526
2.53217
2.47476
2.44656
2.42856
2.41431
2.40344
2.38612
2.36473
2.33752
2.29568
2.23625
2.18
2.14208
2.11367
2.09084
2.07403
2.06092
2.05028
2.0376
2.01909
1.98495
1.93744
1.89874
1.87307
1.85448
1.83842
1.8225
1.80989
1.78546
3.65303
3.44319
3.24106
3.0344
2.84299
2.66986
2.50241
2.33953
2.20362
2.07447
1.95557
1.84101
1.74964
1.66878
1.59644
1.52554
1.45689
1.38712
1.32571
1.29385
1.26705
1.23013
1.17597
1.11066
1.07673
1.0987
1.30251
1.73748
2.01876
2.03821
1.99459
1.94453
1.90531
1.87881
1.86197
1.85877
1.86896
1.85843
1.83595
1.82083
1.82566
1.84778
1.88469
1.92363
1.97267
2.03579
2.05272
2.04789
2.01826
1.99648
1.98992
2.026
2.18941
2.47224
2.75999
2.92902
2.94676
2.92325
2.89835
2.85965
2.82226
2.791
2.76117
2.73152
2.70141
2.66818
2.62814
2.5736
2.50711
2.45886
2.43606
2.41945
2.40719
2.39352
2.37342
2.34804
2.31276
2.26236
2.20587
2.16168
2.13022
2.10367
2.08185
2.06656
2.05611
2.04726
2.03301
2.01015
1.97167
1.9162
1.87458
1.85107
1.83611
1.82501
1.81911
1.80039
3.70855
3.50842
3.31188
3.12047
2.94346
2.77146
2.60306
2.45296
2.31747
2.18702
2.06123
1.95638
1.86602
1.7752
1.68262
1.61477
1.55776
1.49207
1.42824
1.36701
1.32105
1.28941
1.25368
1.20211
1.21468
1.41981
1.85669
2.16174
2.17797
2.12609
2.07306
2.03251
1.99332
1.95456
1.92104
1.8942
1.87368
1.85756
1.84161
1.81997
1.77594
1.74323
1.73748
1.74788
1.7782
1.82831
1.88693
1.93014
1.94353
1.94226
1.92678
1.91375
1.93219
2.03391
2.24975
2.52845
2.76381
2.85362
2.85203
2.84441
2.83299
2.81308
2.7839
2.75751
2.7284
2.69261
2.65435
2.60935
2.55214
2.49213
2.44839
2.42517
2.40927
2.39496
2.37647
2.35299
2.32213
2.28014
2.23015
2.18646
2.15514
2.13088
2.10878
2.08457
2.0581
2.03953
2.0291
2.01703
1.99036
1.94587
1.8947
1.85986
1.84385
1.83365
1.83091
1.81397
3.76781
3.57661
3.38296
3.20403
3.03447
2.86474
2.69922
2.55909
2.42239
2.29385
2.16647
2.06564
1.96659
1.87708
1.78604
1.70999
1.63774
1.57155
1.51761
1.46303
1.4062
1.34956
1.30387
1.32393
1.55425
2.02854
2.32839
2.33841
2.27919
2.21833
2.17726
2.13387
2.08028
2.02874
1.98878
1.9573
1.92885
1.90214
1.87563
1.84297
1.79778
1.74392
1.72231
1.71132
1.70365
1.70548
1.71456
1.73176
1.75887
1.77191
1.78573
1.7969
1.80737
1.82756
1.89643
2.04021
2.25672
2.51007
2.6923
2.75836
2.78348
2.78815
2.78976
2.78323
2.75515
2.72603
2.68355
2.634
2.58134
2.53019
2.48245
2.4402
2.41467
2.3964
2.37638
2.35354
2.32704
2.29521
2.25594
2.21178
2.17635
2.15458
2.13476
2.10879
2.07493
2.04529
2.02017
1.99691
1.97752
1.95664
1.92967
1.90205
1.87602
1.85224
1.84049
1.81808
3.82237
3.63558
3.45387
3.28401
3.11611
2.94699
2.79659
2.65774
2.52261
2.38759
2.27359
2.16951
2.06619
1.96761
1.87888
1.80525
1.72831
1.65985
1.59016
1.53665
1.48356
1.42429
1.44232
1.68888
2.19558
2.4935
2.49566
2.434
2.37209
2.32818
2.2851
2.23275
2.17423
2.11869
2.07532
2.04046
2.00782
1.97389
1.9382
1.89901
1.85371
1.80289
1.75192
1.71588
1.69889
1.69269
1.68639
1.68047
1.6693
1.65142
1.6354
1.63613
1.65121
1.67085
1.69816
1.7463
1.83834
1.98328
2.20106
2.43485
2.61629
2.67416
2.70741
2.7351
2.76861
2.75663
2.71959
2.66494
2.59958
2.54825
2.50976
2.47138
2.43349
2.40432
2.37873
2.35325
2.32857
2.30416
2.27648
2.23987
2.19879
2.17045
2.15007
2.12802
2.09867
2.05968
2.02082
1.99266
1.97402
1.96173
1.95158
1.93925
1.91937
1.88782
1.85868
1.82029
3.885
3.70123
3.52845
3.36406
3.19622
3.03277
2.89234
2.75314
2.61479
2.48196
2.37553
2.26411
2.16205
2.0564
1.97539
1.89162
1.81464
1.74407
1.6776
1.61239
1.54995
1.57852
1.86579
2.40663
2.68478
2.669
2.60444
2.53341
2.48378
2.43691
2.38578
2.33014
2.26881
2.20625
2.15301
2.11043
2.07314
2.0377
2.00297
1.96735
1.92542
1.87157
1.81108
1.76258
1.73334
1.71131
1.69136
1.67119
1.65167
1.63795
1.62199
1.58084
1.55841
1.55507
1.56153
1.57547
1.59578
1.63783
1.71829
1.86147
2.07722
2.3335
2.49812
2.58486
2.6814
2.73505
2.73288
2.69743
2.62851
2.56679
2.52296
2.48782
2.45037
2.41566
2.38658
2.36091
2.33777
2.31511
2.29099
2.2605
2.21827
2.17918
2.15538
2.13588
2.11318
2.08166
2.03786
2.00023
1.98342
1.97373
1.96589
1.95425
1.93774
1.91255
1.88077
1.8243
3.94294
3.76968
3.60266
3.43782
3.27112
3.12207
2.98184
2.84168
2.69613
2.5777
2.46624
2.35558
2.24275
2.14618
2.06569
1.97801
1.90073
1.82192
1.75458
1.68511
1.72113
2.05603
2.63581
2.90768
2.85834
2.76053
2.68685
2.63523
2.58528
2.53224
2.47774
2.42046
2.35834
2.29356
2.2344
2.18606
2.1455
2.10837
2.07188
2.03463
1.99423
1.94612
1.88901
1.83326
1.79181
1.7603
1.7319
1.70457
1.67884
1.65497
1.63118
1.59769
1.55763
1.53177
1.51467
1.50739
1.50452
1.506
1.50804
1.52796
1.58483
1.7096
1.94743
2.196
2.39733
2.57645
2.66437
2.66577
2.645
2.6011
2.54857
2.48837
2.44163
2.41552
2.39275
2.37281
2.35473
2.33325
2.30564
2.27215
2.23278
2.19212
2.16057
2.13588
2.11435
2.0917
2.06323
2.03463
2.00897
1.98423
1.96517
1.95237
1.9423
1.92764
1.90095
1.8321
4.0201
3.84923
3.6843
3.51908
3.35398
3.20694
3.06684
2.92517
2.78589
2.67053
2.5531
2.44144
2.32608
2.24106
2.1524
2.06622
1.97829
1.90151
1.83028
1.88373
2.26851
2.87704
3.15347
3.09677
2.969
2.85846
2.7877
2.73489
2.6813
2.62738
2.57256
2.51377
2.44718
2.37573
2.31038
2.25745
2.21369
2.17461
2.13733
2.09905
2.05696
2.00897
1.95412
1.8978
1.85156
1.8165
1.78663
1.75882
1.73075
1.70101
1.67034
1.63805
1.59807
1.54903
1.51115
1.49745
1.49153
1.48066
1.46759
1.46074
1.4497
1.44114
1.47213
1.5897
1.80692
2.09794
2.32665
2.51096
2.58047
2.5824
2.55918
2.50096
2.43685
2.40741
2.39646
2.39311
2.37817
2.35744
2.32551
2.28382
2.23623
2.19745
2.1689
2.14442
2.12228
2.10237
2.085
2.06129
2.02693
1.99581
1.97401
1.95542
1.93404
1.90698
1.88021
1.82793
4.08287
3.91676
3.75185
3.5872
3.43147
3.28937
3.14839
2.9981
2.87215
2.75842
2.64284
2.52144
2.41551
2.32931
2.23509
2.14807
2.05633
1.97826
2.05679
2.52129
3.13158
3.36593
3.30823
3.17924
3.05797
2.96646
2.89935
2.83905
2.7827
2.72633
2.6672
2.60152
2.527
2.45025
2.3832
2.32935
2.284
2.24236
2.20173
2.16037
2.11718
2.07066
2.01937
1.96474
1.9117
1.86529
1.82727
1.79626
1.76966
1.7437
1.71464
1.68055
1.63864
1.58864
1.54488
1.51712
1.49579
1.47595
1.46113
1.44763
1.42725
1.41052
1.39328
1.37856
1.39714
1.49644
1.69584
1.98483
2.22184
2.40157
2.48546
2.48034
2.45506
2.42988
2.39577
2.36747
2.35047
2.33442
2.3182
2.29074
2.24677
2.20493
2.17824
2.15857
2.13866
2.11488
2.08354
2.04936
2.02606
2.00718
1.98258
1.95662
1.93072
1.90267
1.87328
1.82485
4.15693
3.98617
3.82858
3.67131
3.51909
3.37553
3.23389
3.08722
2.96564
2.84869
2.72949
2.60101
2.50902
2.41586
2.32201
2.22509
2.14062
2.25288
2.82353
3.40712
3.6234
3.55701
3.42024
3.29371
3.1835
3.08239
3.00498
2.93985
2.87882
2.81758
2.75202
2.67917
2.59957
2.52221
2.45728
2.40431
2.35782
2.31352
2.26833
2.22011
2.16973
2.12016
2.07243
2.02549
1.97869
1.93378
1.89278
1.85465
1.81833
1.78396
1.752
1.72068
1.68485
1.64045
1.59511
1.55995
1.53331
1.51155
1.48937
1.46203
1.4301
1.40191
1.37634
1.35916
1.34867
1.34258
1.35673
1.42825
1.60931
1.85374
2.11144
2.26831
2.39111
2.40571
2.39996
2.38463
2.36093
2.32657
2.29071
2.25893
2.23722
2.21795
2.19786
2.17686
2.15109
2.11906
2.08762
2.05723
2.02285
1.9896
1.97413
1.95568
1.932
1.90322
1.87531
1.8364
4.21758
4.07237
3.90979
3.75493
3.60679
3.46652
3.3225
3.17756
3.05318
2.93672
2.81194
2.6924
2.59599
2.49281
2.39955
2.31802
2.45805
3.11933
3.75925
3.81893
3.75046
3.63575
3.52862
3.42769
3.31419
3.20295
3.11321
3.03859
2.97034
2.90169
2.82917
2.75214
2.67277
2.59685
2.53092
2.47578
2.42741
2.38168
2.33521
2.28525
2.23162
2.1767
2.12293
2.07215
2.02498
1.98177
1.94325
1.9077
1.87251
1.83593
1.79726
1.75729
1.71795
1.6791
1.64002
1.60461
1.57566
1.55184
1.52896
1.50209
1.46982
1.43115
1.38854
1.35623
1.33686
1.32174
1.31847
1.31786
1.32485
1.36819
1.51079
1.73848
1.99786
2.1679
2.29745
2.3446
2.34187
2.33076
2.30031
2.26368
2.23997
2.21153
2.17648
2.14842
2.13255
2.11883
2.09985
2.07353
2.03381
1.99475
1.95675
1.92808
1.9116
1.8995
1.88574
1.85855
4.20818
4.15901
3.99985
3.83701
3.69165
3.552
3.40481
3.26768
3.14666
3.02636
2.89301
2.78299
2.67471
2.5793
2.50306
2.70733
3.43139
4.07326
4.16904
4.03685
3.86427
3.74125
3.64823
3.54965
3.43257
3.31386
3.21691
3.13633
3.06149
2.98762
2.91235
2.83527
2.75694
2.67907
2.60662
2.54388
2.4895
2.43983
2.39186
2.34338
2.29338
2.24146
2.18724
2.13159
2.07675
2.02601
1.98225
1.94464
1.91066
1.87744
1.84141
1.80068
1.75691
1.71355
1.67245
1.63415
1.59892
1.56779
1.54341
1.52439
1.5045
1.47479
1.43667
1.39651
1.35669
1.32703
1.31151
1.29788
1.29195
1.28942
1.28834
1.31799
1.41783
1.62355
1.86825
2.07627
2.17778
2.24995
2.26135
2.2598
2.25538
2.22848
2.18491
2.15262
2.1254
2.09589
2.06941
2.05534
2.04326
2.01147
1.96113
1.92898
1.91393
1.8966
1.88422
1.87108
3.80311
4.17282
4.09226
3.92655
3.77604
3.63573
3.49224
3.35829
3.23765
3.11128
2.9853
2.8652
2.75847
2.70803
2.98331
3.85222
4.41746
4.36118
4.24494
4.13051
4.00945
3.89327
3.78289
3.66779
3.54849
3.43132
3.32682
3.23723
3.15594
3.07791
3.00095
2.92396
2.8455
2.76527
2.68698
2.61574
2.55278
2.49633
2.44456
2.39556
2.34674
2.29556
2.24031
2.18202
2.12459
2.07252
2.02755
1.987
1.9475
1.90842
1.87
1.83096
1.79071
1.75173
1.71634
1.68329
1.64865
1.61002
1.57049
1.53333
1.50141
1.48166
1.46535
1.43835
1.40088
1.3655
1.33309
1.30626
1.28875
1.27251
1.26658
1.26257
1.25115
1.26537
1.33176
1.50388
1.72774
1.96539
2.06575
2.14282
2.19394
2.2001
2.19507
2.17503
2.13501
2.10078
2.07229
2.04154
2.00976
1.99002
1.97008
1.94154
1.9206
1.90553
1.89327
1.86624
2.54007
3.94327
4.1371
4.03049
3.87162
3.72492
3.57726
3.45039
3.32627
3.20604
3.06626
2.94077
2.93532
3.32978
4.24743
4.82988
4.83024
4.58017
4.35606
4.23169
4.13621
4.02846
3.90971
3.78941
3.66859
3.55014
3.44194
3.34638
3.25912
3.17586
3.094
3.01167
2.92782
2.84318
2.76101
2.6853
2.6176
2.55676
2.50104
2.44874
2.39695
2.34236
2.28311
2.2207
2.16046
2.10781
2.0637
2.02472
1.98626
1.94521
1.89921
1.84763
1.79847
1.762
1.736
1.71099
1.6808
1.64559
1.60812
1.5697
1.53205
1.4962
1.46406
1.44119
1.42172
1.39608
1.36586
1.33701
1.30848
1.28203
1.25749
1.24257
1.2322
1.22665
1.21649
1.22066
1.26374
1.40015
1.62173
1.85828
1.98707
2.05708
2.10205
2.12368
2.13352
2.12767
2.10037
2.05331
2.01083
1.97077
1.9423
1.93782
1.93068
1.92075
1.90699
1.86619
1.57846
2.86229
4.00195
4.09208
3.97713
3.816
3.66993
3.54079
3.41952
3.29098
3.13735
3.18205
3.73839
4.71873
5.18493
5.08486
4.93838
4.75092
4.55464
4.40641
4.27989
4.15602
4.03281
3.91204
3.79157
3.67253
3.55972
3.45489
3.35721
3.26457
3.17474
3.086
2.99774
2.91089
2.8273
2.74953
2.6792
2.6151
2.5547
2.49653
2.43914
2.38019
2.31819
2.25435
2.19322
2.13891
2.09196
2.05081
2.01262
1.97396
1.93159
1.88415
1.83413
1.78531
1.74264
1.71014
1.68745
1.66665
1.64076
1.60772
1.56838
1.5256
1.48501
1.4491
1.42021
1.40271
1.38884
1.36907
1.33874
1.30561
1.27107
1.24906
1.23873
1.2304
1.21685
1.19987
1.18211
1.17517
1.21298
1.3141
1.4998
1.73123
1.877
1.96335
2.05271
2.07502
2.07654
2.06815
2.03627
1.98471
1.9482
1.91652
1.8909
1.88183
1.88078
1.86286
1.40567
1.71194
3.12814
4.01081
4.04045
3.92034
3.76756
3.62481
3.50826
3.36657
3.47706
4.26408
5.23287
5.61131
5.5165
5.23197
5.04993
4.89979
4.73485
4.57506
4.42628
4.28751
4.15536
4.02759
3.90325
3.78247
3.6648
3.55085
3.44255
3.34027
3.24267
3.14824
3.05633
2.96757
2.88313
2.80409
2.73132
2.66394
2.59928
2.5354
2.4723
2.41019
2.34846
2.28581
2.22357
2.16565
2.11582
2.07206
2.02957
1.98625
1.94365
1.90163
1.85692
1.81027
1.76954
1.73819
1.70913
1.6778
1.64491
1.6133
1.58424
1.54978
1.50736
1.46976
1.43955
1.41357
1.39514
1.38277
1.36924
1.34537
1.31024
1.28082
1.25679
1.23299
1.20878
1.18827
1.16725
1.15587
1.1427
1.12776
1.14915
1.22565
1.38843
1.58938
1.81772
1.91429
1.98331
2.00793
2.0033
1.99685
1.97222
1.9268
1.89382
1.87047
1.85354
1.83303
1.40005
1.41493
1.86816
3.32821
3.98745
3.99082
3.8729
3.72646
3.60172
3.83634
4.84409
5.86571
5.95993
5.8551
5.68025
5.43544
5.23202
5.05893
4.88797
4.7204
4.56218
4.41305
4.27012
4.13175
3.99755
3.86713
3.73964
3.61691
3.50167
3.39456
3.29411
3.19828
3.10527
3.01467
2.92798
2.8466
2.77006
2.69722
2.62724
2.55892
2.49125
2.42659
2.36976
2.31721
2.26167
2.20241
2.14387
2.09028
2.04205
1.9968
1.95193
1.90613
1.8613
1.82171
1.78702
1.75481
1.7249
1.69841
1.67156
1.63734
1.59437
1.55005
1.51459
1.48592
1.45466
1.42997
1.41402
1.39712
1.37257
1.34078
1.31149
1.2861
1.26118
1.23702
1.21492
1.19699
1.17895
1.16256
1.14166
1.12201
1.10148
1.09069
1.10496
1.15996
1.30513
1.50999
1.73785
1.85328
1.88788
1.92398
1.92439
1.92049
1.90836
1.8767
1.8491
1.8246
1.40001
1.40016
1.43154
2.03313
3.43751
3.9712
3.92641
3.8598
4.33896
5.47134
6.36604
6.50488
6.24363
5.96148
5.80063
5.60401
5.38197
5.17563
4.98915
4.81626
4.6534
4.49831
4.34889
4.20269
4.05866
3.91951
3.78823
3.66366
3.54651
3.437
3.33413
3.23566
3.1402
3.04766
2.95885
2.87543
2.79849
2.72685
2.65793
2.59045
2.52415
2.45576
2.38339
2.31556
2.26025
2.21409
2.1665
2.1136
2.05868
2.00601
1.95766
1.91514
1.87768
1.84032
1.80076
1.7602
1.72384
1.69373
1.66926
1.64444
1.61218
1.57395
1.52532
1.48337
1.47105
1.46104
1.44269
1.41656
1.38101
1.34583
1.32454
1.3054
1.28517
1.26661
1.24981
1.2334
1.214
1.18874
1.15642
1.12497
1.09949
1.08131
1.06847
1.0626
1.07333
1.12526
1.24249
1.43448
1.61943
1.76875
1.80854
1.8342
1.8427
1.84973
1.85474
1.83593
1.40001
1.40001
1.40047
1.45513
2.17659
3.5238
3.84923
4.81073
6.21569
6.69122
6.75886
6.63369
6.36213
6.0741
5.88577
5.69859
5.46614
5.25732
5.07378
4.89755
4.72434
4.55452
4.39344
4.24708
4.11407
3.98545
3.85576
3.73031
3.61196
3.50197
3.39972
3.30269
3.20806
3.11439
3.02293
2.93716
2.85951
2.7882
2.71829
2.6449
2.56736
2.48672
2.40459
2.33237
2.27264
2.21751
2.16636
2.11868
2.07171