/*--------------------------------*- C++ -*----------------------------------*\
  =========                 |
  \\      /  F ield         | OpenFOAM: The Open Source CFD Toolbox
   \\    /   O peration     | Website:  https://openfoam.org
    \\  /    A nd           | Version:  7
     \\/     M anipulation  |
\*---------------------------------------------------------------------------*/
FoamFile
{
    version     2.0;
    format      ascii;
    class       volScalarField;
    location    "1.5";
    object      p;
}
// * * * * * * * * * * * * * * * * * * * * * * * * * * * * * * * * * * * * * //

dimensions      [1 -1 -2 0 0 0 0];

internalField   nonuniform List<scalar> 
4032
(
1
1
1
1
1
1
1
1
1
1
1
1
3.0256
9.64957
10.7256
10.8728
11.099
11.2875
11.4668
11.6307
11.775
11.8827
11.973
12.0357
1
1
1
1
1
1
1
1
1
1
1
1
2.91531
9.52461
10.715
10.8715
11.0883
11.2707
11.4436
11.6007
11.738
11.8372
11.9158
11.9726
1
1
1
1
1
1
1
1
1
1
1
1
2.62969
9.28255
10.6832
10.8411
11.0529
11.2288
11.3944
11.5442
11.6755
11.7726
11.8422
11.899
1
1
1
1
1
1
1
1
1
1
1
1
2.25814
8.91476
10.6575
10.8046
11.0019
11.1641
11.3173
11.4592
11.5872
11.6802
11.7354
11.7763
1
1
1
1
1
1
1
1
1
1
1
1
1.81746
8.3595
10.6293
10.7385
10.9161
11.0646
11.2027
11.3253
11.4314
11.5123
11.557
11.615
1
1
1
1
1
1
1
1
1
1
1
1
1.35045
7.62917
10.5957
10.6514
10.8044
10.931
11.0434
11.1443
11.2291
11.3017
11.3227
11.2937
1
1
1
1
1
1
1
1
1
1
1
1
1.02302
6.60995
10.4094
10.4753
10.605
10.7121
10.7963
10.8601
10.8806
10.8614
10.8204
10.7952
1
1
1
1
1
1
1
1
1
1
1
1
1.00014
5.29974
10.0868
10.316
10.4257
10.5125
10.5603
10.5661
10.5237
10.4629
10.3654
10.363
1
1
1
1
1
1
1
1
1
1
1
1
1
3.88603
9.55919
10.1852
10.2701
10.3236
10.3249
10.2741
10.1384
9.87642
9.11003
7.22217
1
1
1
1
1
1
1
1
1
1
1
1
1
2.41546
8.7244
10.0624
10.0923
10.1217
10.0779
9.95836
9.71249
9.22771
8.4063
6.33838
1
1
1
1
1
1
1
1
1
1
1
1
1
1.2197
7.44041
10.0897
9.9137
9.8534
9.76421
9.59019
9.28323
8.70355
7.8538
5.90498
1
1
1
1
1
1
1
1
1
1
1
1
1
1.00488
5.58691
9.44289
9.55092
9.53359
9.43383
9.22517
8.87686
8.32359
7.3897
5.8013
1
1
1
1
1
1
1
1
1
1
1
1
1
0.999972
3.21509
8.64544
9.39898
9.37893
9.24858
8.99843
8.58942
8.02633
7.07329
5.87235
1
1
1
1
1
1
1
1
1
1
1
1
1
0.999994
1.35755
7.39317
9.40873
9.22337
9.03584
8.74103
8.33361
7.74342
6.89978
5.94794
1
1
1
1
1
1
1
1
1
1
1
1
1
0.999999
1.0124
5.24095
8.91187
8.92486
8.76113
8.46896
8.09436
7.52925
6.81811
6.0364
1
1
1
1
1
1
1
1
1
1
1
1
1
1
0.99993
2.52503
8.1151
8.83808
8.59724
8.28159
7.89124
7.37556
6.75897
6.08175
1
1
1
1
1
1
1
1
1
1
1
1
1
1
0.999984
1.16659
6.23536
8.64596
8.35387
8.08176
7.7077
7.24458
6.70901
6.11311
1
1
1
1
1
1
1
1
1
1
1
1
1
1
0.999998
1.00204
3.27256
7.85701
8.27145
7.97832
7.61445
7.16475
6.67022
6.13599
1
1
1
1
1
1
1
1
1
1
1
1
1
1
1
0.999999
1.33052
6.23294
8.22605
7.87285
7.53192
7.10366
6.64577
6.15797
1
1
1
1
1
1
1
1
1
1
1
1
1
1
1
1
1.0084
3.2405
7.45326
7.7725
7.44002
7.05379
6.64035
6.19343
1
1
1
1
1
1
1
1
1
1
1
1
1
1
1
1
1.00002
1.32395
5.70329
7.79186
7.40509
7.02936
6.62683
6.21035
1
1
1
1
1
1
1
1
1
1
1
1
1
1
1
1
1
1.00818
2.61164
6.76472
7.3589
6.98996
6.62283
6.24404
1
1
1
1
1
1
1
1
1
1
1
1
1
1
1
1
1
1.00003
1.17701
4.60427
7.26452
7.00609
6.66578
6.30701
1
1
1
1
1
1
1
1
1
1
1
1
1
1
1
1
1
1
1.00298
1.89943
5.91149
7.04678
6.67823
6.3398
1
1
1
1
1
1
1
1
1
1
1
1
1
1
1
1
1
1
1.00001
1.05812
3.13696
6.34201
6.70493
6.37504
1
1
1
1
1
1
1
1
1
1
1
1
1
1
1
1
1
1
1
1.00067
1.30839
4.3692
6.53773
6.43783
1
1
1
1
1
1
1
1
1
1
1
1
1
1
1
1
1
1
1
1
1.00881
1.8506
5.17252
6.40727
1
1
1
1
1
1
1
1
1
1
1
1
1
1
1
1
1
1
1
1
1.00005
1.05444
2.53713
5.576
1
1
1
1
1
1
1
1
1
1
1
1
1
1
1
1
1
1
1
1
1
1.0007
1.16873
3.22958
1
1
1
1
1
1
1
1
1
1
1
1
1
1
1
1
1
1
1
1
1
1
1.00373
1.36375
1
1
1
1
1
1
1
1
1
1
1
1
1
1
1
1
1
1
1
1
1
1
1.00002
1.01301
1
1
1
1
1
1
1
1
1
1
1
1
1
1
1
1
1
1
1
1
1
1
1
1.0001
1
1
1
1
1
1
1
1
1
1
1
1
1
1
1
1
1
1
1
1
1
1
1
1
1
1
1
1
1
1
1
1
1
1
1
1
1
1
1
1
1
1
1
1
1
1
1
1
1
1
1
1
1
1
1
1
1
1
1
1
1
1
1
1
1
1
1
1
1
1
1
1
1
1
1
1
1
1
1
1
1
1
1
1
1
1
1
1
1
1
1
1
1
1
1
1
1
1
1
1
1
1
1
1
1
1
1
1
1
1
1
1
1
1
1
1
1
1
1
1
1
1
1
1
1
1
1
1
1
1
1
1
1
1
1
1
1
1
1
1
1
1
1
1
1
1
1
1
1
1
1
1
1
1
1
1
1
1
1
1
1
1
1
1
1
1
1
1
1
1
1
1
1
1
1
1
1
1
1
1
1
1
1
1
1
1
1
1
1
1
1
1
1.56714
0.350239
0.219852
0.176838
0.182764
0.219896
0.335076
0.466571
0.616612
0.758682
0.906423
1.0299
1.0806
1.13141
1.16199
1.17147
1.17513
1.17888
1.17748
1.18616
1.20947
1.23252
1.24526
1.24569
1.23418
1.21893
1.21556
1.21945
1.22581
1.23047
1.23177
1.23036
1.22342
1.21307
1.20247
1.19401
1.19256
1.19543
1.19781
1.19944
1.19525
1.18781
1.17859
1.16646
1.15947
1.15544
1.15024
1.14456
1.13995
1.13809
1.16622
1.29753
1.6534
2.21339
2.94994
3.62164
4.18185
4.58549
4.8649
4.92956
4.84649
4.6595
4.43836
4.26008
4.13381
4.02169
3.92437
3.83362
3.75105
3.67404
3.6046
3.54221
3.46645
3.35965
3.27746
3.23414
3.20396
3.18541
3.15456
3.10826
3.05257
2.96549
2.84437
2.7584
2.71469
2.68201
2.66081
2.65534
2.64356
2.60987
2.56725
2.50329
2.39249
2.26773
2.21998
2.19474
2.80741
1.35071
0.868588
0.699107
0.539399
0.500301
0.514187
0.505394
0.515088
0.55498
0.61712
0.709516
0.826161
0.924745
0.999047
1.04069
1.0637
1.0812
1.10714
1.13735
1.16385
1.19398
1.22307
1.23285
1.22601
1.21721
1.21668
1.21992
1.22623
1.22919
1.23006
1.22672
1.21889
1.20808
1.20008
1.19312
1.18669
1.18887
1.19056
1.19136
1.1913
1.18697
1.18063
1.17189
1.16399
1.15557
1.14679
1.14105
1.15654
1.22858
1.44632
1.81068
2.12754
2.34345
2.5054
2.79722
3.09942
3.39669
3.63934
3.85605
4.06262
4.12965
4.14548
4.12449
4.08382
4.01365
3.94665
3.88288
3.81188
3.73348
3.65819
3.58746
3.50611
3.39834
3.29823
3.24165
3.20334
3.16707
3.12936
3.08893
3.04182
2.96692
2.85689
2.7568
2.69797
2.66616
2.64348
2.62886
2.61573
2.59375
2.56008
2.51151
2.44241
2.34689
2.25652
2.20657
3.65024
2.42382
1.66112
1.27515
0.965844
0.779564
0.707377
0.663561
0.589055
0.593481
0.617331
0.665748
0.744501
0.808326
0.863885
0.915333
0.959689
1.00512
1.06587
1.11974
1.15377
1.18658
1.22784
1.24682
1.24199
1.23653
1.23611
1.23441
1.2278
1.22239
1.221
1.21664
1.20835
1.20084
1.19732
1.19396
1.19143
1.19123
1.1931
1.19237
1.19037
1.18558
1.17749
1.1671
1.15698
1.14774
1.1537
1.19412
1.35805
1.69099
2.07199
2.32978
2.47995
2.49189
2.42702
2.36458
2.37529
2.47804
2.70452
3.02555
3.37081
3.64211
3.81171
3.89448
3.96734
3.94949
3.94834
3.94208
3.89599
3.82221
3.74354
3.63782
3.51142
3.38293
3.27897
3.20444
3.14955
3.10275
3.06616
3.0334
2.9925
2.94004
2.88391
2.80938
2.71945
2.66426
2.63489
2.61292
2.58733
2.55866
2.5261
2.48825
2.45005
2.40433
2.34456
2.24943
4.23674
3.1473
2.39684
1.89133
1.51925
1.22336
1.04767
0.945482
0.831029
0.794372
0.76242
0.714945
0.700564
0.709772
0.730444
0.765204
0.819402
0.880656
0.955461
1.02127
1.05607
1.07946
1.12305
1.17583
1.19467
1.22065
1.24872
1.25525
1.2537
1.24724
1.23294
1.21389
1.19704
1.18799
1.18542
1.1855
1.18462
1.18567
1.19021
1.19111
1.18809
1.18264
1.17465
1.16463
1.16102
1.17871
1.27441
1.54673
1.96237
2.29199
2.53031
2.55362
2.52371
2.46757
2.40391
2.35658
2.32481
2.28356
2.26592
2.31178
2.44181
2.68028
2.97425
3.25832
3.51212
3.63923
3.68435
3.71919
3.69615
3.68974
3.69019
3.64077
3.56401
3.46661
3.37342
3.28132
3.18882
3.11664
3.07298
3.04132
2.9972
2.94479
2.89994
2.84653
2.76193
2.65458
2.59858
2.57274
2.54257
2.50899
2.48232
2.4604
2.43665
2.40917
2.37796
2.29588
4.72334
3.73805
3.00762
2.44989
1.98862
1.67336
1.45784
1.28075
1.11608
1.00609
0.921913
0.843213
0.763745
0.744264
0.736629
0.745782
0.760405
0.783182
0.826532
0.881002
0.92456
0.953607
1.00351
1.08093
1.12048
1.15437
1.19803
1.22341
1.22868
1.23192
1.22797
1.21925
1.20989
1.20021
1.19332
1.1886
1.18355
1.18229
1.18259
1.18151
1.17548
1.16982
1.16957
1.17955
1.23242
1.40853
1.79097
2.23455
2.55361
2.57959
2.56781
2.53465
2.51814
2.48937
2.449
2.39337
2.32711
2.26177
2.20974
2.1786
2.1627
2.16601
2.21793
2.34119
2.55139
2.81899
3.03382
3.23487
3.33834
3.43277
3.51007
3.496
3.45218
3.41792
3.37527
3.30817
3.21843
3.14033
3.09611
3.06
3.01879
2.96566
2.90953
2.85141
2.77789
2.6806
2.57539
2.50544
2.46286
2.43423
2.41895
2.41834
2.40827
2.39289
2.37953
2.33258
5.01429
4.16999
3.46896
2.91034
2.44721
2.08064
1.80945
1.591
1.40768
1.27914
1.16035
1.06043
0.973728
0.898428
0.848895
0.821035
0.802703
0.795973
0.783629
0.777472
0.782368
0.797657
0.830196
0.899654
0.982659
1.04654
1.12243
1.18217
1.19512
1.20112
1.2023
1.19956
1.19706
1.19976
1.19973
1.19851
1.19571
1.19206
1.18586
1.17891
1.167
1.16572
1.18687
1.30419
1.6311
2.06835
2.50949
2.65184
2.65822
2.62604
2.60259
2.57713
2.53446
2.48484
2.42984
2.37063
2.3085
2.24626
2.201
2.16564
2.12817
2.10333
2.07785
2.05397
2.04014
2.08639
2.17808
2.32572
2.54321
2.75399
2.95499
3.13088
3.22533
3.28583
3.26224
3.22835
3.1592
3.08975
3.0583
3.03464
3.0332
3.00875
2.96038
2.90165
2.82814
2.73779
2.62812
2.51577
2.43846
2.4087
2.39126
2.37807
2.37114
2.36646
2.3562
2.3173
5.22731
4.49193
3.86088
3.29328
2.82076
2.46178
2.15255
1.90205
1.68704
1.52889
1.38904
1.25884
1.17367
1.0933
0.996972
0.940128
0.892554
0.832604
0.801953
0.785622
0.779563
0.780307
0.785362
0.802634
0.837368
0.885711
0.951926
1.03869
1.10759
1.13786
1.16548
1.18253
1.18037
1.18182
1.1872
1.19
1.18858
1.18454
1.18184
1.17664
1.17691
1.21371
1.41922
1.88941
2.35645
2.60535
2.73334
2.73212
2.71914
2.65706
2.57502
2.52481
2.4769
2.43851
2.39586
2.35241
2.3134
2.26221
2.20199
2.14075
2.09051
2.05895
2.03384
2.00927
1.98414
1.95259
1.91169
1.87303
1.89185
1.9649
2.10071
2.31008
2.5466
2.77926
2.89901
2.97314
3.01655
3.01081
2.96822
2.92421
2.91319
2.92476
2.92213
2.88878
2.84077
2.77821
2.69695
2.60284
2.5055
2.42827
2.38523
2.35893
2.34551
2.33948
2.32518
2.28298
5.37249
4.73836
4.15314
3.59341
3.15912
2.79113
2.46522
2.17558
1.97497
1.78115
1.61731
1.46337
1.35869
1.27435
1.17033
1.09109
1.04901
0.97406
0.90918
0.882352
0.845611
0.815125
0.810404
0.807028
0.798516
0.802865
0.818679
0.850317
0.907571
0.980214
1.05086
1.11473
1.1566
1.16245
1.17195
1.17759
1.177
1.17191
1.17129
1.18984
1.30027
1.59991
2.1591
2.55742
2.70861
2.80231
2.79281
2.73525
2.65503
2.56149
2.50047
2.4746
2.44319
2.40918
2.38376
2.35765
2.31887
2.25545
2.17905
2.10648
2.0548
2.02615
2.00591
1.98927
1.95973
1.92188
1.87466
1.82301
1.78673
1.76841
1.75806
1.77994
1.84588
1.95897
2.12107
2.28568
2.44341
2.56885
2.66354
2.71547
2.74803
2.79219
2.80521
2.78982
2.77472
2.7461
2.71719
2.66872
2.58686
2.49025
2.4122
2.37246
2.35035
2.33468
2.32172
2.27407
5.49208
4.92837
4.38246
3.86345
3.45325
3.08335
2.73029
2.4457
2.23362
2.02377
1.83127
1.67085
1.56106
1.45023
1.33904
1.23624
1.18352
1.11393
1.02665
0.982041
0.943515
0.885881
0.858437
0.84134
0.820845
0.806124
0.808334
0.808755
0.811957
0.829463
0.876905
0.952514
1.03225
1.09644
1.13155
1.15261
1.16405
1.1579
1.19143
1.44218
1.93094
2.36027
2.77878
2.84871
2.82483
2.78755
2.74331
2.65985
2.57731
2.50147
2.45478
2.43828
2.42684
2.39083
2.35787
2.32673
2.28542
2.22367
2.14808
2.07928
2.03227
2.00864
1.99081
1.9619
1.92575
1.88689
1.84393
1.80392
1.76556
1.73247
1.7108
1.69556
1.67484
1.65679
1.65842
1.68321
1.74276
1.8419
1.96578
2.11563
2.24471
2.3625
2.45385
2.52143
2.59538
2.63337
2.63029
2.60019
2.55068
2.50105
2.449
2.40072
2.35507
2.32331
2.31224
2.27655
5.5842
5.07088
4.56172
4.09092
3.69517
3.33083
2.96658
2.69586
2.46257
2.24534
2.03347
1.87675
1.74633
1.62079
1.49882
1.39884
1.32831
1.25518
1.1603
1.10368
1.06402
1.00056
0.954212
0.933694
0.904779
0.856354
0.842872
0.828565
0.809263
0.803812
0.808942
0.832412
0.875438
0.938377
0.999741
1.05463
1.10978
1.17327
1.47822
2.17343
2.57047
2.79436
2.93527
2.93345
2.8858
2.79368
2.69442
2.61876
2.55798
2.50251
2.44496
2.4048
2.3751
2.3479
2.31208
2.27701
2.24009
2.19372
2.14079
2.08445
2.02087
1.97558
1.94744
1.91817
1.88434
1.85482
1.83401
1.81043
1.77202
1.7226
1.67864
1.64678
1.62331
1.60649
1.58835
1.572
1.55849
1.54597
1.53018
1.55298
1.60462
1.69193
1.82921
1.97064
2.09803
2.21989
2.3441
2.39543
2.40679
2.4018
2.38294
2.34673
2.30685
2.28129
2.27324
2.26203
5.6622
5.19276
4.71905
4.28488
3.91389
3.54774
3.18807
2.92365
2.68331
2.45323
2.22634
2.07742
1.92846
1.79058
1.6579
1.55749
1.47171
1.38525
1.29359
1.23049
1.1837
1.11723
1.05304
1.01878
0.981007
0.92356
0.88986
0.866389
0.836205
0.810604
0.810467
0.82107
0.826201
0.833509
0.861852
0.900677
0.999504
1.36727
2.08534
2.52002
2.71047
2.81919
2.86757
2.83054
2.75668
2.68419
2.64737
2.61657
2.57455
2.52037
2.45612
2.38168
2.32319
2.28921
2.26199
2.22915
2.18925
2.15384
2.12331
2.08163
2.01668
1.94535
1.90195
1.87354
1.85047
1.83586
1.82664
1.80377
1.77175
1.72472
1.65588
1.6018
1.58174
1.56833
1.55241
1.53466
1.51626
1.49877
1.48548
1.45877
1.41582
1.37907
1.38844
1.42758
1.49738
1.58952
1.70437
1.83914
1.95652
2.06125
2.10484
2.12197
2.1616
2.17047
2.17629
2.17546
5.73862
5.2974
4.85005
4.44473
4.09062
3.72834
3.39236
3.12854
2.88219
2.6291
2.42122
2.26895
2.1061
1.95058
1.80472
1.71377
1.61342
1.51739
1.41738
1.35151
1.29608
1.22625
1.1599
1.1243
1.08599
1.02068
0.974954
0.94992
0.917465
0.865725
0.85426
0.850784
0.834565
0.830733
0.839781
0.97626
1.39098
1.92978
2.36963
2.40504
2.48567
2.54632
2.55059
2.51344
2.50754
2.5303
2.55707
2.57083
2.55848
2.51593
2.45115
2.37042
2.28517
2.23153
2.2043
2.17826
2.14257
2.1148
2.09528
2.06394
2.01264
1.93689
1.86791
1.83622
1.81635
1.80946
1.80271
1.77642
1.74503
1.70531
1.63968
1.5714
1.54537
1.52973
1.52015
1.51355
1.494
1.47286
1.4549
1.43362
1.40442
1.36058
1.3169
1.29968
1.29198
1.29059
1.30317
1.3344
1.38881
1.46728
1.56339
1.63264
1.69435
1.77509
1.83274
1.92057
5.79083
5.38079
4.96508
4.58808
4.24752
3.89407
3.58128
3.3228
3.07303
2.80274
2.61053
2.44368
2.27821
2.10609
1.96668
1.86018
1.744
1.64087
1.5446
1.47842
1.41225
1.33521
1.25379
1.21444
1.1752
1.114
1.06611
1.03658
1.00015
0.938822
0.904821
0.885869
0.855247
0.870035
1.03356
1.55672
2.0043
2.2599
2.29476
2.25515
2.20741
2.17497
2.1611
2.17434
2.21023
2.28632
2.36654
2.41609
2.43312
2.41262
2.37318
2.314
2.24733
2.19077
2.14126
2.10857
2.08501
2.07724
2.07144
2.04149
1.99433
1.93141
1.8586
1.80732
1.78095
1.76347
1.74218
1.71831
1.69685
1.67166
1.62122
1.54742
1.51335
1.49859
1.4879
1.48816
1.47666
1.4555
1.43531
1.41375
1.38499
1.34716
1.30931
1.2759
1.26075
1.25322
1.24346
1.23217
1.22148
1.21717
1.22295
1.22779
1.24151
1.26889
1.31016
1.43565
5.85821
5.47547
5.08986
4.72806
4.39043
4.05431
3.75913
3.50275
3.24082
2.97507
2.78702
2.61084
2.43849
2.24945
2.1198
2.00059
1.8802
1.76543
1.6668
1.59624
1.51858
1.44054
1.36352
1.31673
1.26932
1.19491
1.1431
1.11873
1.0872
1.03351
0.990945
0.960778
0.99528
1.20203
1.76988
2.29732
2.37884
2.3727
2.31077
2.20703
2.14196
2.08845
2.02756
1.98828
1.97617
1.98111
2.02529
2.07111
2.12058
2.1589
2.18246
2.19541
2.16577
2.10646
2.06771
2.04025
2.02798
2.03681
2.03501
2.00753
1.96599
1.9116
1.85705
1.80835
1.76467
1.7285
1.69358
1.66543
1.64466
1.62208
1.59233
1.53641
1.48863
1.47286
1.46279
1.46213
1.45695
1.4358
1.41288
1.38493
1.34345
1.30993
1.28731
1.26613
1.25421
1.24151
1.22504
1.20635
1.19161
1.17837
1.15886
1.1383
1.12394
1.11044
1.09846
1.1083
5.93155
5.55337
5.19424
4.85396
4.51309
4.18328
3.91161
3.661
3.39338
3.13966
2.94671
2.76424
2.57684
2.39589
2.26837
2.13529
2.00954
1.87702
1.78909
1.71291
1.63009
1.54037
1.46054
1.41303
1.36036
1.29099
1.23295
1.19938
1.15934
1.10821
1.07395
1.12793
1.43444
2.0273
2.56909
2.61018
2.53132
2.43629
2.33311
2.24292
2.1685
2.10233
2.03309
1.98414
1.95063
1.93213
1.90814
1.8858
1.87499
1.8695
1.87219
1.90323
1.92246
1.929
1.94629
1.92191
1.89745
1.8932
1.88468
1.88401
1.88443
1.8648
1.83753
1.80377
1.76157
1.70872
1.65994
1.63032
1.60719
1.57955
1.55142
1.51332
1.4694
1.45229
1.44339
1.44233
1.43579
1.41294
1.38727
1.35814
1.31635
1.2689
1.24638
1.24303
1.24099
1.2306
1.21305
1.19496
1.17792
1.15797
1.13411
1.11082
1.08735
1.06791
1.05846
1.04112
5.98633
5.62361
5.28271
4.95806
4.63107
4.31982
4.04986
3.79419
3.53194
3.30008
3.10369
2.91033
2.7092
2.53689
2.40742
2.27088
2.14163
2.00449
1.91332
1.82286
1.73512
1.64443
1.57058
1.51388
1.45149
1.37493
1.32149
1.28001
1.24344
1.21529
1.32241
1.80395
2.4061
2.86258
2.86849
2.75056
2.60287
2.49037
2.41461
2.34516
2.28107
2.21832
2.1416
2.05447
1.97702
1.9143
1.85938
1.82735
1.80222
1.77813
1.75895
1.74402
1.72047
1.68775
1.68349
1.68915
1.67179
1.6718
1.68741
1.70138
1.71159
1.72787
1.74049
1.7466
1.72485
1.68451
1.6444
1.6108
1.57143
1.54295
1.51034
1.47325
1.44446
1.43121
1.42233
1.42036
1.40914
1.38544
1.35969
1.33309
1.29683
1.24967
1.21254
1.19178
1.18611
1.1871
1.18641
1.17669
1.16343
1.14435
1.1209
1.09657
1.07124
1.0432
1.02249
1.0088
6.02508
5.69055
5.3675
5.04682
4.72825
4.44995
4.18466
3.92081
3.66135
3.45228
3.24657
3.04564
2.83919
2.68526
2.54436
2.39998
2.25454
2.12472
2.03816
1.93898
1.84412
1.7383
1.67061
1.60811
1.53964
1.4696
1.40581
1.35577
1.3762
1.57057
2.23826
2.94661
3.20271
3.13269
2.98016
2.81184
2.67042
2.58037
2.52343
2.47026
2.40825
2.32878
2.23505
2.13263
2.03292
1.94575
1.87873
1.83365
1.79306
1.75327
1.72136
1.69262
1.66605
1.65071
1.62194
1.57988
1.52103
1.48181
1.47022
1.47036
1.47831
1.50002
1.54174
1.56986
1.59643
1.60831
1.58861
1.53621
1.52034
1.50482
1.4806
1.45605
1.42889
1.41258
1.402
1.38601
1.36582
1.34685
1.33124
1.31327
1.28823
1.24991
1.20131
1.16537
1.1434
1.13211
1.12481
1.12585
1.13307
1.12627
1.11372
1.09837
1.07377
1.03653
1.00338
0.977804
6.11168
5.78509
5.4721
5.15407
4.85409
4.58966
4.32751
4.04538
3.79738
3.59872
3.39273
3.18285
2.97572
2.83097
2.6745
2.52957
2.37564
2.25671
2.15672
2.0483
1.94748
1.84422
1.77986
1.70568
1.62486
1.5532
1.49569
1.55532
1.9006
2.68445
3.42702
3.53632
3.44573
3.25082
3.05459
2.89625
2.78286
2.71052
2.64312
2.57439
2.49985
2.41824
2.33245
2.24267
2.14653
2.04591
1.96168
1.89714
1.84076
1.78705
1.73724
1.6892
1.64711
1.6201
1.59672
1.56861
1.52921
1.47426
1.41284
1.37201
1.34858
1.34023
1.35216
1.35953
1.36999
1.39828
1.40533
1.40119
1.41321
1.4203
1.42071
1.40556
1.37222
1.3404
1.32344
1.31101
1.30065
1.29744
1.30256
1.2948
1.27546
1.24627
1.20976
1.16307
1.12164
1.09243
1.079
1.07435
1.07548
1.09283
1.09747
1.08542
1.06809
1.04159
0.998031
0.953188
6.20877
5.87757
5.5636
5.25532
4.96738
4.70225
4.44375
4.17104
3.93828
3.72642
3.51622
3.28966
3.11013
2.96602
2.8067
2.64675
2.47975
2.37897
2.27059
2.16299
2.04633
1.94799
1.87884
1.79138
1.71817
1.659
1.75773
2.35202
3.16123
3.84779
3.86081
3.71609
3.51959
3.33284
3.16835
3.02941
2.91011
2.81698
2.73441
2.65289
2.57162
2.48992
2.40772
2.32455
2.2363
2.14054
2.04677
1.96531
1.89525
1.82955
1.76721
1.71096
1.66468
1.62664
1.59401
1.56354
1.52886
1.4809
1.42377
1.37145
1.33253
1.30488
1.28291
1.26454
1.25052
1.24611
1.24215
1.23158
1.22882
1.24273
1.27204
1.29178
1.2883
1.26407
1.24293
1.23619
1.22779
1.21936
1.21574
1.22073
1.22766
1.2223
1.20372
1.1708
1.12301
1.07664
1.05306
1.04505
1.04114
1.04316
1.05603
1.05778
1.05042
1.03258
0.995685
0.939952
6.2225
5.98033
5.64784
5.34114
5.06576
4.80836
4.5473
4.2802
4.05642
3.84701
3.64138
3.4147
3.24294
3.08419
2.92563
2.76046
2.60873
2.50353
2.382
2.2696
2.14286
2.06178
1.97348
1.88786
1.86761
2.07936
2.89418
3.81362
4.17025
4.14904
3.98168
3.77601
3.58408
3.43515
3.31015
3.18274
3.04868
2.92572
2.82053
2.72448
2.63416
2.54898
2.46763
2.38926
2.30962
2.22416
2.13306
2.04261
1.96226
1.89438
1.83397
1.77693
1.72372
1.6738
1.62563
1.57878
1.53448
1.49413
1.45408
1.41252
1.36572
1.30441
1.26607
1.24489
1.22473
1.20517
1.18692
1.16389
1.13932
1.13189
1.13612
1.13396
1.13183
1.13146
1.12074
1.10742
1.11005
1.11324
1.11657
1.12451
1.13718
1.14806
1.14822
1.13692
1.10778
1.06646
1.04316
1.03222
1.02427
1.01867
1.0175
1.01551
1.00939
1.00082
0.985891
0.936996
5.7121
6.04421
5.77193
5.44809
5.17351
4.91338
4.64483
4.40073
4.18039
3.9723
3.75088
3.5293
3.36713
3.20979
3.0543
2.86625
2.73195
2.61854
2.49485
2.37314
2.24019
2.15943
2.06935
2.13268
2.56909
3.55796
4.54023
4.571
4.40844
4.18588
4.00514
3.84124
3.69205
3.56766
3.4426
3.30041
3.15396
3.02047
2.90398
2.79875
2.69987
2.60731
2.52182
2.44258
2.36599
2.28752
2.20226
2.10712
2.01014
1.92949
1.86984
1.82148
1.77771
1.73362
1.68451
1.63009
1.57051
1.50657
1.45311
1.41725
1.37869
1.32782
1.29261
1.26709
1.23344
1.19586
1.16926
1.14415
1.11292
1.09113
1.08176
1.07157
1.05798
1.04613
1.02819
0.99692
0.98352
0.981655
0.983879
0.995786
1.01621
1.03894
1.05005
1.04858
1.03744
1.02245
1.01768
1.00639
0.993488
0.989116
0.989556
0.984747
0.975864
0.961842
0.947668
0.919718
3.82153
5.6733
5.85307
5.58912
5.27401
5.00825
4.75854
4.51893
4.29061
4.07877
3.87135
3.67363
3.48966
3.3199
3.14935
2.98136
2.85844
2.73496
2.61445
2.45137
2.33808
2.27074
2.43258
3.19257
4.408
5.13131
5.07398
4.85221
4.54269
4.26855
4.07768
3.9419
3.81317
3.68596
3.5458
3.39275
3.24234
3.1073
2.9889
2.87941
2.7717
2.66602
2.56884
2.48503
2.41082
2.33905
2.2619
2.1731
2.07834
1.99285
1.92167
1.85942
1.80332
1.75642
1.71404
1.66749
1.61687
1.56264
1.5063
1.45497
1.40263
1.34876
1.30907
1.27951
1.25058
1.21979
1.19016
1.15885
1.11713
1.08417
1.06777
1.04912
1.02728
1.00653
0.988703
0.969183
0.946495
0.923756
0.907315
0.90217
0.903922
0.916407
0.926197
0.925849
0.920241
0.909403
0.909144
0.914904
0.921917
0.93397
0.945374
0.947172
0.943059
0.931719
0.910322
0.885591
1.62753
4.19837
5.62491
5.68252
5.41999
5.11585
4.85281
4.62249
4.41205
4.19906
3.97195
3.77599
3.61435
3.44488
3.26056
3.08737
2.96028
2.83737
2.71195
2.56565
2.52103
2.85245
3.98845
5.20827
5.69477
5.52908
5.1991
4.88366
4.62793
4.40549
4.20814
4.0516
3.90883
3.76746
3.62308
3.47304
3.32214
3.18187
3.0594
2.95014
2.84448
2.73743
2.63198
2.53533
2.44848
2.36664
2.28454
2.19833
2.11327
2.04091
1.98229
1.93029
1.87647
1.8157
1.74469
1.66855
1.61225
1.57396
1.53705
1.49926
1.45731
1.41123
1.36087
1.30827
1.25969
1.22154
1.19509
1.17377
1.149
1.12084
1.09002
1.0558
1.0258
0.998105
0.969326
0.944066
0.922713
0.905805
0.888911
0.877795
0.8711
0.865202
0.857646
0.846913
0.830133
0.808056
0.798655
0.79985
0.806745
0.821163
0.845422
0.873344
0.884617
0.882533
0.862401
0.840081
1.0338
1.90077
4.42262
5.51785
5.54056
5.27713
4.97586
4.74046
4.52343
4.2999
4.08012
3.89806
3.73235
3.55189
3.36081
3.20124
3.07253
2.95111
2.80231
2.88647
3.58094
4.94648
6.03399
6.19041
6.00364
5.65526
5.29943
5.01113
4.73791
4.51703
4.32834
4.16072
4.00342
3.84664
3.69532
3.54751
3.40194
3.26095
3.12473
2.99674
2.8805
2.77588
2.68171
2.59586
2.51315
2.42784
2.33646
2.23765
2.13897
2.05656
1.99492
1.94574
1.90167
1.85595
1.79785
1.72692
1.65377
1.59236
1.53852
1.49519
1.46856
1.44308
1.40428
1.3575
1.30936
1.25362
1.20323
1.168
1.14879
1.13725
1.11923
1.08544
1.04858
1.01067
0.971111
0.938425
0.912006
0.891403
0.877454
0.867672
0.860393
0.853261
0.844938
0.830996
0.803858
0.762693
0.740095
0.735467
0.735493
0.737515
0.74456
0.760947
0.774353
0.775793
0.767207
0.766377
1.00038
1.06642
2.13395
4.5432
5.40326
5.40053
5.14013
4.85858
4.62988
4.42055
4.20924
4.00305
3.83209
3.66244
3.49846
3.30906
3.16759
3.08817
3.35143
4.54309
6.12832
6.72938
6.61762
6.34763
6.02575
5.70098
5.4187
5.17062
4.90673
4.64954
4.43991
4.26782
4.10794
3.94106
3.77077
3.60729
3.45917
3.32595
3.19527
3.06113
2.92883
2.81034
2.71196
2.62685
2.54549
2.4622
2.37721
2.29241
2.20706
2.12124
2.03785
1.96065
1.88982
1.83184
1.79631
1.75622
1.69764
1.64325
1.59368
1.53874
1.48527
1.44631
1.4163
1.38046
1.33727
1.28945
1.24072
1.20266
1.17023
1.13757
1.12045
1.10949
1.08439
1.03962
0.981068
0.941909
0.931132
0.9195
0.903836
0.887767
0.872636
0.857785
0.841885
0.824497
0.798138
0.754778
0.7212
0.712055
0.708554
0.706642
0.705254
0.704069
0.701451
0.695063
0.6808
0.670957
1
1.00103
1.10446
2.32112
4.57853
5.28308
5.26719
5.02675
4.75217
4.52266
4.31229
4.13248
3.95199
3.78403
3.5861
3.42525
3.41113
4.00791
5.62579
7.24584
7.65701
7.32806
6.81056
6.41748
6.07202
5.7905
5.54009
5.27746
5.01075
4.76527
4.55366
4.37098
4.19932
4.02435
3.84597
3.67564
3.52518
3.38948
3.25424
3.11489
2.97838
2.85713
2.75494
2.6625
2.57108
2.47748
2.38595
2.30884
2.24256
2.17029
2.08821
2.00587
1.92994
1.85562
1.78742
1.73724
1.69897
1.66344
1.62413
1.57627
1.52338
1.47235
1.4178
1.36232
1.31767
1.29306
1.27495
1.24526
1.20826
1.17443
1.14126
1.10801
1.07593
1.04593
1.01577
0.979101
0.937138
0.907897
0.888924
0.872852
0.858388
0.844234
0.829455
0.81165
0.789117
0.75674
0.718668
0.704747
0.700132
0.695911
0.691522
0.686341
0.679798
0.670422
0.653837
0.628072
1
1
1.00204
1.14316
2.45271
4.52323
5.17906
5.16094
4.9173
4.64739
4.44521
4.24104
4.0589
3.90636
3.68774
3.80668
4.91155
7.08719
8.14185
8.06829
7.74452
7.23458
6.8461
6.51803
6.20109
5.91539
5.63801
5.35217
5.08791
4.85491
4.64589
4.44881
4.25402
4.06334
3.88331
3.72219
3.58177
3.4492
3.31106
3.16651
3.02666
2.90358
2.79776
2.6996
2.60134
2.5062
2.41466
2.3272
2.25739
2.1945
2.11474
2.02762
1.95212
1.88296
1.81779
1.76358
1.71323
1.66194
1.61668
1.57861
1.54127
1.48548
1.42363
1.37824
1.34526
1.31191
1.27395
1.23278
1.18971
1.16448
1.14158
1.11213
1.08944
1.06738
1.03246
0.984912
0.940454
0.912032
0.892853
0.877073
0.863917
0.851669
0.83809
0.821645
0.799184
0.763298
0.723815
0.708659
0.70193
0.696014
0.689863
0.682675
0.674514
0.664275
0.648812
0.618845
1
1
1.00001
1.00331
1.17611
2.4911
4.4683
5.09645
5.05531
4.8114
4.57672
4.354
4.18123
4.00456
4.33159
6.23836
8.39915
9.34839
9.09593
8.42115
7.76888
7.23699
6.89739
6.6214
6.33778
6.03675
5.72336
5.42065
5.1578
4.93192
4.7236
4.51548
4.30379
4.09909
3.91773
3.76453
3.62911
3.49661
3.355
3.20459
3.06211
2.9399
2.83275
2.73082
2.62921
2.53497
2.45094
2.36838
2.28563
2.21344
2.15844
2.09171
2.00653
1.92879
1.85757
1.78939
1.73241
1.69049
1.65107
1.59703
1.54295
1.51345
1.48146
1.44158
1.39701
1.34845
1.30033
1.25289
1.20284
1.16965
1.15617
1.1471
1.13284
1.10784
1.06378
1.0084
0.967061
0.944351
0.929009
0.916033
0.903725
0.890582
0.875509
0.857546
0.833065
0.796186
0.754941
0.730945
0.719381
0.710642
0.701982
0.693562
0.68515
0.674173
0.657493
0.616305
1
1
1
1.00002
1.00449
1.1946
2.47963
4.44171
4.94239
4.92507
4.73927
4.47069
4.31769
5.0451
7.74969
10.0896
9.91892
9.54031
9.01513
8.48118
7.94538
7.45634
7.04724
6.71597
6.40881
6.10198
5.7989
5.51245
5.25112
5.01481
4.79286
4.56539
4.33508
4.12454
3.95186
3.80983
3.67825
3.54428
3.40065
3.24572
3.08719
2.94352
2.82971
2.74108
2.66818
2.60046
2.52524
2.4363
2.34173
2.2547
2.16411
2.05986
1.96672
1.89523
1.84929
1.8162
1.77961
1.73291
1.67958
1.6223
1.56583
1.51049
1.45804
1.40896
1.36104
1.31425
1.27018
1.23257
1.20709
1.18798
1.16732
1.14152
1.11381
1.07872
1.033
0.985584
0.95055
0.92913
0.914304
0.901674
0.889333
0.876436
0.862254
0.845422
0.822245
0.786864
0.745731
0.720484
0.708
0.698618
0.689471
0.680963
0.672483
0.661279
0.644996
0.607904
1
1
1
1
1.00003
1.0055
1.19652
2.48599
4.2831
4.83068
4.78274
4.69658
5.77348
9.27968
11.5371
11.5012
10.5352
9.59441
8.88697
8.43218
8.02382
7.5934
7.16772
6.78923
6.45407
6.13795
5.8381
5.5627
5.31026
5.07372
4.84749
4.61718
4.37667
4.15767
3.97647
3.82584
3.68718
3.54988
3.41098
3.26937
3.12631
2.99049
2.87198
2.77008
2.67989
2.59534
2.51252
2.42888
2.344
2.2573
2.16111
2.05882
1.97699
1.91952
1.86974
1.82084
1.77428
1.72896
1.68061
1.62754
1.57085
1.51385
1.46111
1.41087
1.36191
1.31501
1.27351
1.24348
1.22195
1.20069
1.17618
1.14803
1.11655
1.07849
1.03241
0.98702
0.953792
0.932466
0.917298
0.904472
0.892175
0.879571
0.865785
0.849291
0.826492
0.791259
0.749252
0.723017
0.710058
0.700261
0.691041
0.682981
0.674918
0.663865
0.647324
0.610637
1
1
1
1
1
1.00003
1.00567
1.20069
2.40662
4.07434
4.70205
6.73217
10.5977
12.3529
11.7599
11.0731
10.3858
9.71606
9.04243
8.49772
8.05262
7.64469
7.2488
6.87414
6.5272
6.20053
5.89118
5.60651
5.35502
5.13117
4.90989
4.68916
4.48876
4.28747
4.10264
3.94312
3.7982
3.65959
3.52423
3.38793
3.2465
3.10253
2.96641
2.8472
2.74437
2.65225
2.56712
2.48391
2.39764
2.30917
2.22047
2.13525
2.05799
1.9842
1.91494
1.85714
1.80968
1.76549
1.71831
1.66534
1.60902
1.5543
1.50108
1.4477
1.39564
1.34998
1.31431
1.28601
1.26044
1.23557
1.20966
1.18011
1.1456
1.10566
1.06078
1.01738
0.983284
0.959648
0.943118
0.930253
0.918662
0.906634
0.892834
0.875771
0.851939
0.81496
0.771019
0.743898
0.730341
0.71994
0.710979
0.703506
0.696175
0.685786
0.669208
0.629155
1
1
1
1
1
1
1.00004
1.00628
1.19964
2.51976
5.54355
12.7826
17.1544
15.2211
12.4888
10.9052
10.2243
9.63617
9.05375
8.48974
8.00352
7.59864
7.2401
6.89792
6.55941
6.22953
5.92231
5.64731
5.39244
5.13857
4.88921
4.65387
4.42205
4.20833
4.01874
3.85096
3.70033
3.56186
3.43126
3.30161
3.16558
3.02282
2.88334
2.76028
2.65775
2.57135
2.49358
2.41559
2.33126
2.242
2.15392
2.07334
2.00001
1.9286
1.86027
1.80145
1.75231
1.70887
1.66615
1.61816
1.56378
1.50671
1.45146
1.39948
1.35111
1.31017
1.27694
1.2478
1.22186
1.19894
1.17454
1.14423
1.1081
1.06813
1.02597
0.987251
0.956281
0.932239
0.914338
0.901499
0.891083
0.880578
0.868147
0.851873
0.828302
0.791181
0.747749
0.722472
0.709617
0.698665
0.689674
0.682879
0.677257
0.668661
0.652611
0.611786
)
;

boundaryField
{
    inlet
    {
        type            fixedValue;
        value           uniform 1;
    }
    outlet
    {
        type            zeroGradient;
    }
    bottom
    {
        type            symmetryPlane;
    }
    top
    {
        type            symmetryPlane;
    }
    obstacle
    {
        type            zeroGradient;
    }
    defaultFaces
    {
        type            empty;
    }
}


// ************************************************************************* //
