/*--------------------------------*- C++ -*----------------------------------*\
  =========                 |
  \\      /  F ield         | OpenFOAM: The Open Source CFD Toolbox
   \\    /   O peration     | Website:  https://openfoam.org
    \\  /    A nd           | Version:  7
     \\/     M anipulation  |
\*---------------------------------------------------------------------------*/
FoamFile
{
    version     2.0;
    format      ascii;
    class       volScalarField;
    location    "1.5";
    object      rho;
}
// * * * * * * * * * * * * * * * * * * * * * * * * * * * * * * * * * * * * * //

dimensions      [1 -3 0 0 0 0 0];

internalField   nonuniform List<scalar> 
64512
(
1.40001
1.40001
1.40001
1.40001
1.40001
1.40001
1.40001
1.40001
1.40001
1.40001
1.40001
1.40001
1.40001
1.40001
1.40001
1.40001
1.40001
1.40001
1.40001
1.40001
1.40001
1.40001
1.40001
1.40001
1.40001
1.40001
1.40001
1.40001
1.40001
1.40001
1.40001
1.40001
1.40001
1.40001
1.40001
1.40001
1.40001
1.40001
1.40001
1.40001
1.40001
1.40001
1.40001
1.40001
1.40001
1.40001
1.40001
1.40001
1.40001
1.40001
1.40001
2.91066
5.3084
5.45969
5.45517
5.4632
5.47461
5.49335
5.51966
5.55196
5.5861
5.6168
5.64224
5.66427
5.6837
5.70077
5.71631
5.73188
5.74796
5.76362
5.77829
5.79003
5.79733
5.80194
5.80945
5.82254
5.83939
5.85764
5.87588
5.89077
5.89815
5.89807
5.89563
5.8964
5.902
5.9113
5.92153
5.92965
5.93339
5.92983
5.91511
5.88609
5.84259
5.79576
5.76572
5.75721
1.40001
1.40001
1.40001
1.40001
1.40001
1.40001
1.40001
1.40001
1.40001
1.40001
1.40001
1.40001
1.40001
1.40001
1.40001
1.40001
1.40001
1.40001
1.40001
1.40001
1.40001
1.40001
1.40001
1.40001
1.40001
1.40001
1.40001
1.40001
1.40001
1.40001
1.40001
1.40001
1.40001
1.40001
1.40001
1.40001
1.40001
1.40001
1.40001
1.40001
1.40001
1.40001
1.40001
1.40001
1.40001
1.40001
1.40001
1.40001
1.40001
1.40001
1.40001
2.89347
5.29287
5.46112
5.45591
5.46353
5.47431
5.49282
5.51925
5.55202
5.58653
5.61764
5.64357
5.66564
5.68424
5.7003
5.71525
5.73076
5.74739
5.76372
5.77864
5.7901
5.79681
5.80103
5.80859
5.82211
5.83916
5.85702
5.87449
5.88883
5.89641
5.89696
5.89523
5.89647
5.90196
5.91059
5.92008
5.92785
5.93169
5.9288
5.91519
5.88691
5.84321
5.79516
5.76322
5.75324
1.40001
1.40001
1.40001
1.40001
1.40001
1.40001
1.40001
1.40001
1.40001
1.40001
1.40001
1.40001
1.40001
1.40001
1.40001
1.40001
1.40001
1.40001
1.40001
1.40001
1.40001
1.40001
1.40001
1.40001
1.40001
1.40001
1.40001
1.40001
1.40001
1.40001
1.40001
1.40001
1.40001
1.40001
1.40001
1.40001
1.40001
1.40001
1.40001
1.40001
1.40001
1.40001
1.40001
1.40001
1.40001
1.40001
1.40001
1.40001
1.40001
1.40001
1.40001
2.85804
5.27634
5.46089
5.45602
5.46349
5.4738
5.4919
5.51815
5.55124
5.58625
5.61807
5.64479
5.66696
5.6845
5.6993
5.71321
5.72836
5.74555
5.76283
5.77845
5.78999
5.7962
5.79982
5.8072
5.82106
5.83837
5.85583
5.87248
5.88621
5.89395
5.89517
5.89439
5.89634
5.90176
5.90945
5.9177
5.92459
5.9284
5.92665
5.91491
5.88781
5.84386
5.79399
5.75926
5.74683
1.40001
1.40001
1.40001
1.40001
1.40001
1.40001
1.40001
1.40001
1.40001
1.40001
1.40001
1.40001
1.40001
1.40001
1.40001
1.40001
1.40001
1.40001
1.40001
1.40001
1.40001
1.40001
1.40001
1.40001
1.40001
1.40001
1.40001
1.40001
1.40001
1.40001
1.40001
1.40001
1.40001
1.40001
1.40001
1.40001
1.40001
1.40001
1.40001
1.40001
1.40001
1.40001
1.40001
1.40001
1.40001
1.40001
1.40001
1.40001
1.40001
1.40001
1.40001
2.80178
5.25727
5.46025
5.45634
5.46408
5.47444
5.49212
5.51776
5.55061
5.58584
5.61832
5.64576
5.66806
5.68467
5.69821
5.71089
5.72532
5.74278
5.76086
5.77733
5.78926
5.79533
5.79858
5.80554
5.81926
5.8365
5.85355
5.86959
5.88286
5.89082
5.89282
5.8931
5.8958
5.90106
5.90773
5.91456
5.92035
5.92407
5.92363
5.91397
5.88807
5.84366
5.79161
5.75371
5.73848
1.40001
1.40001
1.40001
1.40001
1.40001
1.40001
1.40001
1.40001
1.40001
1.40001
1.40001
1.40001
1.40001
1.40001
1.40001
1.40001
1.40001
1.40001
1.40001
1.40001
1.40001
1.40001
1.40001
1.40001
1.40001
1.40001
1.40001
1.40001
1.40001
1.40001
1.40001
1.40001
1.40001
1.40001
1.40001
1.40001
1.40001
1.40001
1.40001
1.40001
1.40001
1.40001
1.40001
1.40001
1.40001
1.40001
1.40001
1.40001
1.40001
1.40001
1.40001
2.72532
5.23483
5.45998
5.45714
5.46466
5.47511
5.49208
5.51659
5.54876
5.58377
5.61706
5.64546
5.66825
5.68453
5.69714
5.70849
5.72183
5.73909
5.75757
5.7748
5.78757
5.79411
5.79743
5.80385
5.81681
5.83347
5.8501
5.86588
5.879
5.88733
5.89017
5.89142
5.89464
5.89972
5.90546
5.91097
5.91564
5.9192
5.91983
5.91189
5.88714
5.84213
5.78797
5.7473
5.72953
1.40001
1.40001
1.40001
1.40001
1.40001
1.40001
1.40001
1.40001
1.40001
1.40001
1.40001
1.40001
1.40001
1.40001
1.40001
1.40001
1.40001
1.40001
1.40001
1.40001
1.40001
1.40001
1.40001
1.40001
1.40001
1.40001
1.40001
1.40001
1.40001
1.40001
1.40001
1.40001
1.40001
1.40001
1.40001
1.40001
1.40001
1.40001
1.40001
1.40001
1.40001
1.40001
1.40001
1.40001
1.40001
1.40001
1.40001
1.40001
1.40001
1.40001
1.40001
2.63267
5.20412
5.45777
5.45664
5.46524
5.47619
5.493
5.51715
5.54889
5.58344
5.6167
5.64496
5.66758
5.68358
5.69554
5.70567
5.71801
5.73484
5.75331
5.77104
5.78477
5.79222
5.79611
5.80211
5.81396
5.82955
5.84564
5.86142
5.87476
5.88362
5.88721
5.88907
5.89252
5.89742
5.90252
5.90704
5.91087
5.91414
5.91526
5.90826
5.884
5.83843
5.78284
5.74056
5.72113
1.40001
1.40001
1.40001
1.40001
1.40001
1.40001
1.40001
1.40001
1.40001
1.40001
1.40001
1.40001
1.40001
1.40001
1.40001
1.40001
1.40001
1.40001
1.40001
1.40001
1.40001
1.40001
1.40001
1.40001
1.40001
1.40001
1.40001
1.40001
1.40001
1.40001
1.40001
1.40001
1.40001
1.40001
1.40001
1.40001
1.40001
1.40001
1.40001
1.40001
1.40001
1.40001
1.40001
1.40001
1.40001
1.40001
1.40001
1.40001
1.40001
1.40001
1.40001
2.52707
5.16155
5.45469
5.45706
5.46576
5.47737
5.49484
5.51921
5.55029
5.58394
5.61652
5.64408
5.66594
5.68163
5.69293
5.70195
5.71366
5.7301
5.74847
5.76642
5.78092
5.78932
5.79398
5.79982
5.8107
5.82517
5.84058
5.85638
5.87009
5.87954
5.88382
5.88607
5.88945
5.8941
5.89875
5.90257
5.90583
5.90888
5.91003
5.90306
5.8783
5.83215
5.77618
5.7339
5.7141
1.40001
1.40001
1.40001
1.40001
1.40001
1.40001
1.40001
1.40001
1.40001
1.40001
1.40001
1.40001
1.40001
1.40001
1.40001
1.40001
1.40001
1.40001
1.40001
1.40001
1.40001
1.40001
1.40001
1.40001
1.40001
1.40001
1.40001
1.40001
1.40001
1.40001
1.40001
1.40001
1.40001
1.40001
1.40001
1.40001
1.40001
1.40001
1.40001
1.40001
1.40001
1.40001
1.40001
1.40001
1.40001
1.40001
1.40001
1.40001
1.40001
1.40001
1.40001
2.41103
5.10922
5.45362
5.45691
5.46705
5.47909
5.49711
5.52149
5.55145
5.58426
5.61636
5.64304
5.66419
5.67913
5.68883
5.69667
5.708
5.72448
5.74313
5.76135
5.77636
5.78545
5.79077
5.79669
5.80706
5.82077
5.83555
5.85119
5.86509
5.87492
5.87977
5.88228
5.88545
5.88972
5.89395
5.89738
5.90028
5.90325
5.90425
5.89642
5.87033
5.82342
5.76809
5.72729
5.70837
1.40001
1.40001
1.40001
1.40001
1.40001
1.40001
1.40001
1.40001
1.40001
1.40001
1.40001
1.40001
1.40001
1.40001
1.40001
1.40001
1.40001
1.40001
1.40001
1.40001
1.40001
1.40001
1.40001
1.40001
1.40001
1.40001
1.40001
1.40001
1.40001
1.40001
1.40001
1.40001
1.40001
1.40001
1.40001
1.40001
1.40001
1.40001
1.40001
1.40001
1.40001
1.40001
1.40001
1.40001
1.40001
1.40001
1.40001
1.40001
1.40001
1.40001
1.40001
2.28411
5.03984
5.45573
5.45766
5.46761
5.47926
5.49816
5.52273
5.55187
5.58459
5.6156
5.64234
5.66279
5.67589
5.68334
5.68982
5.70076
5.71772
5.73714
5.75581
5.77108
5.78047
5.7862
5.79245
5.80294
5.81641
5.83068
5.84587
5.85967
5.86962
5.87486
5.87761
5.88059
5.88437
5.88814
5.89115
5.89382
5.8969
5.89767
5.88856
5.86074
5.81315
5.75899
5.72059
5.70346
1.40001
1.40001
1.40001
1.40001
1.40001
1.40001
1.40001
1.40001
1.40001
1.40001
1.40001
1.40001
1.40001
1.40001
1.40001
1.40001
1.40001
1.40001
1.40001
1.40001
1.40001
1.40001
1.40001
1.40001
1.40001
1.40001
1.40001
1.40001
1.40001
1.40001
1.40001
1.40001
1.40001
1.40001
1.40001
1.40001
1.40001
1.40001
1.40001
1.40001
1.40001
1.40001
1.40001
1.40001
1.40001
1.40001
1.40001
1.40001
1.40001
1.40001
1.40001
2.1445
4.95832
5.46059
5.45867
5.46968
5.48137
5.50005
5.52341
5.55202
5.58285
5.61397
5.64084
5.66067
5.67199
5.6772
5.68204
5.69232
5.70985
5.73021
5.74951
5.76495
5.77442
5.78038
5.78711
5.79818
5.81188
5.82585
5.84041
5.85381
5.86359
5.86891
5.87183
5.87472
5.87802
5.88118
5.88369
5.88625
5.88943
5.89004
5.87979
5.85045
5.80231
5.74931
5.7133
5.69823
1.40001
1.40001
1.40001
1.40001
1.40001
1.40001
1.40001
1.40001
1.40001
1.40001
1.40001
1.40001
1.40001
1.40001
1.40001
1.40001
1.40001
1.40001
1.40001
1.40001
1.40001
1.40001
1.40001
1.40001
1.40001
1.40001
1.40001
1.40001
1.40001
1.40001
1.40001
1.40001
1.40001
1.40001
1.40001
1.40001
1.40001
1.40001
1.40001
1.40001
1.40001
1.40001
1.40001
1.40001
1.40001
1.40001
1.40001
1.40001
1.40001
1.40001
1.40001
1.99441
4.85864
5.46618
5.46062
5.47181
5.48333
5.50037
5.52248
5.54871
5.57907
5.60936
5.63682
5.65676
5.66702
5.67043
5.67366
5.68322
5.70119
5.72245
5.74253
5.75827
5.76782
5.77387
5.78094
5.79249
5.80651
5.82037
5.83437
5.84733
5.85676
5.86189
5.86486
5.86783
5.87082
5.87336
5.87521
5.87751
5.88061
5.88112
5.87023
5.84008
5.79166
5.73941
5.70483
5.69136
1.40001
1.40001
1.40001
1.40001
1.40001
1.40001
1.40001
1.40001
1.40001
1.40001
1.40001
1.40001
1.40001
1.40001
1.40001
1.40001
1.40001
1.40001
1.40001
1.40001
1.40001
1.40001
1.40001
1.40001
1.40001
1.40001
1.40001
1.40001
1.40001
1.40001
1.40001
1.40001
1.40001
1.40001
1.40001
1.40001
1.40001
1.40001
1.40001
1.40001
1.40001
1.40001
1.40001
1.40001
1.40001
1.40001
1.40001
1.40001
1.40001
1.40001
1.40001
1.8462
4.73356
5.46936
5.46231
5.47353
5.48599
5.50031
5.51931
5.5434
5.57116
5.60126
5.62947
5.65013
5.66028
5.66276
5.66484
5.67388
5.69204
5.71384
5.73459
5.75078
5.76062
5.76684
5.77409
5.78578
5.80001
5.81396
5.82774
5.8405
5.84942
5.85399
5.8567
5.85971
5.86261
5.8647
5.86586
5.86766
5.87037
5.87077
5.85992
5.83001
5.78184
5.72976
5.6951
5.68225
1.40001
1.40001
1.40001
1.40001
1.40001
1.40001
1.40001
1.40001
1.40001
1.40001
1.40001
1.40001
1.40001
1.40001
1.40001
1.40001
1.40001
1.40001
1.40001
1.40001
1.40001
1.40001
1.40001
1.40001
1.40001
1.40001
1.40001
1.40001
1.40001
1.40001
1.40001
1.40001
1.40001
1.40001
1.40001
1.40001
1.40001
1.40001
1.40001
1.40001
1.40001
1.40001
1.40001
1.40001
1.40001
1.40001
1.40001
1.40001
1.40001
1.40001
1.40001
1.70684
4.58097
5.47331
5.46326
5.47126
5.48254
5.49688
5.51413
5.53581
5.562
5.59155
5.62013
5.64168
5.6523
5.65455
5.65587
5.6644
5.68235
5.7044
5.72578
5.74267
5.75317
5.75967
5.76684
5.77813
5.79224
5.8063
5.82018
5.83301
5.84127
5.84493
5.84704
5.84998
5.85307
5.85513
5.85588
5.85708
5.85907
5.85919
5.84886
5.82017
5.77277
5.72032
5.68407
5.6707
1.40001
1.40001
1.40001
1.40001
1.40001
1.40001
1.40001
1.40001
1.40001
1.40001
1.40001
1.40001
1.40001
1.40001
1.40001
1.40001
1.40001
1.40001
1.40001
1.40001
1.40001
1.40001
1.40001
1.40001
1.40001
1.40001
1.40001
1.40001
1.40001
1.40001
1.40001
1.40001
1.40001
1.40001
1.40001
1.40001
1.40001
1.40001
1.40001
1.40001
1.40001
1.40001
1.40001
1.40001
1.40001
1.40001
1.40001
1.40001
1.40001
1.40001
1.40001
1.58077
4.40807
5.4754
5.45863
5.46496
5.4765
5.49157
5.50936
5.53017
5.55451
5.58232
5.60995
5.63165
5.64312
5.64603
5.64727
5.65541
5.6727
5.69446
5.71607
5.73366
5.74511
5.75219
5.75928
5.76989
5.78347
5.79748
5.81151
5.82434
5.8319
5.8346
5.83596
5.83874
5.84226
5.84473
5.84545
5.84606
5.84707
5.84655
5.83683
5.80991
5.76364
5.71048
5.67166
5.65694
1.40001
1.40001
1.40001
1.40001
1.40001
1.40001
1.40001
1.40001
1.40001
1.40001
1.40001
1.40001
1.40001
1.40001
1.40001
1.40001
1.40001
1.40001
1.40001
1.40001
1.40001
1.40001
1.40001
1.40001
1.40001
1.40001
1.40001
1.40001
1.40001
1.40001
1.40001
1.40001
1.40001
1.40001
1.40001
1.40001
1.40001
1.40001
1.40001
1.40001
1.40001
1.40001
1.40001
1.40001
1.40001
1.40001
1.40001
1.40001
1.40001
1.40001
1.40001
1.44912
4.18859
5.47127
5.45524
5.46022
5.46888
5.48235
5.49947
5.52043
5.54476
5.57226
5.59973
5.62196
5.6346
5.63845
5.63968
5.64716
5.66353
5.68479
5.70636
5.72444
5.7367
5.7442
5.75103
5.76084
5.77374
5.78765
5.80198
5.81471
5.82164
5.82334
5.82374
5.82601
5.82976
5.83278
5.83393
5.8343
5.83441
5.83307
5.82383
5.79867
5.75363
5.69972
5.65822
5.64186
1.40001
1.40001
1.40001
1.40001
1.40001
1.40001
1.40001
1.40001
1.40001
1.40001
1.40001
1.40001
1.40001
1.40001
1.40001
1.40001
1.40001
1.40001
1.40001
1.40001
1.40001
1.40001
1.40001
1.40001
1.40001
1.40001
1.40001
1.40001
1.40001
1.40001
1.40001
1.40001
1.40001
1.40001
1.40001
1.40001
1.40001
1.40001
1.40001
1.40001
1.40001
1.40001
1.40001
1.40001
1.40001
1.40001
1.40001
1.40001
1.40001
1.40001
1.40001
1.4016
3.91896
5.42745
5.42475
5.43686
5.45272
5.47033
5.49003
5.51227
5.53673
5.56382
5.59125
5.61435
5.62835
5.63294
5.63368
5.63977
5.65456
5.67463
5.69546
5.71368
5.72674
5.73503
5.74203
5.75155
5.76408
5.77771
5.79198
5.80412
5.81018
5.81091
5.81045
5.81214
5.81593
5.81947
5.82142
5.8221
5.82165
5.8194
5.81013
5.78598
5.74175
5.68722
5.64361
5.62593
1.40001
1.40001
1.40001
1.40001
1.40001
1.40001
1.40001
1.40001
1.40001
1.40001
1.40001
1.40001
1.40001
1.40001
1.40001
1.40001
1.40001
1.40001
1.40001
1.40001
1.40001
1.40001
1.40001
1.40001
1.40001
1.40001
1.40001
1.40001
1.40001
1.40001
1.40001
1.40001
1.40001
1.40001
1.40001
1.40001
1.40001
1.40001
1.40001
1.40001
1.40001
1.40001
1.40001
1.40001
1.40001
1.40001
1.40001
1.40001
1.40001
1.40001
1.40001
1.40001
3.59783
5.37669
5.40422
5.42026
5.43826
5.45806
5.48013
5.50447
5.53037
5.55776
5.58502
5.60809
5.62258
5.62749
5.62782
5.6329
5.64645
5.6654
5.68516
5.7032
5.71677
5.72573
5.73289
5.74197
5.75386
5.76705
5.78071
5.79187
5.79703
5.79718
5.7963
5.79753
5.80112
5.80485
5.80751
5.8086
5.80799
5.80496
5.79526
5.77135
5.72756
5.67281
5.62813
5.60993
1.40001
1.40001
1.40001
1.40001
1.40001
1.40001
1.40001
1.40001
1.40001
1.40001
1.40001
1.40001
1.40001
1.40001
1.40001
1.40001
1.40001
1.40001
1.40001
1.40001
1.40001
1.40001
1.40001
1.40001
1.40001
1.40001
1.40001
1.40001
1.40001
1.40001
1.40001
1.40001
1.40001
1.40001
1.40001
1.40001
1.40001
1.40001
1.40001
1.40001
1.40001
1.40001
1.40001
1.40001
1.40001
1.40001
1.40001
1.40001
1.40001
1.40001
1.40001
1.40001
3.25854
5.31695
5.38836
5.4077
5.42848
5.44957
5.47224
5.49672
5.52287
5.55021
5.5776
5.60148
5.61755
5.62379
5.62433
5.62827
5.63997
5.65733
5.67584
5.6935
5.70719
5.71644
5.72336
5.73161
5.74245
5.75497
5.76789
5.77829
5.78291
5.78268
5.78137
5.78197
5.78484
5.78823
5.79138
5.79313
5.79301
5.7897
5.77942
5.75509
5.71122
5.65634
5.61135
5.59333
1.40001
1.40001
1.40001
1.40001
1.40001
1.40001
1.40001
1.40001
1.40001
1.40001
1.40001
1.40001
1.40001
1.40001
1.40001
1.40001
1.40001
1.40001
1.40001
1.40001
1.40001
1.40001
1.40001
1.40001
1.40001
1.40001
1.40001
1.40001
1.40001
1.40001
1.40001
1.40001
1.40001
1.40001
1.40001
1.40001
1.40001
1.40001
1.40001
1.40001
1.40001
1.40001
1.40001
1.40001
1.40001
1.40001
1.40001
1.40001
1.40001
1.40001
1.40001
1.40001
2.90036
5.23974
5.38753
5.40334
5.42356
5.44339
5.46593
5.49085
5.51726
5.54378
5.57031
5.59453
5.61232
5.62067
5.62236
5.62555
5.63522
5.65072
5.66791
5.68484
5.69821
5.7073
5.71341
5.72025
5.72953
5.74115
5.75333
5.76306
5.76725
5.76672
5.76513
5.76523
5.76733
5.77006
5.77336
5.7758
5.77633
5.77294
5.76207
5.73702
5.69279
5.63781
5.59294
5.57568
1.40001
1.40001
1.40001
1.40001
1.40001
1.40001
1.40001
1.40001
1.40001
1.40001
1.40001
1.40001
1.40001
1.40001
1.40001
1.40001
1.40001
1.40001
1.40001
1.40001
1.40001
1.40001
1.40001
1.40001
1.40001
1.40001
1.40001
1.40001
1.40001
1.40001
1.40001
1.40001
1.40001
1.40001
1.40001
1.40001
1.40001
1.40001
1.40001
1.40001
1.40001
1.40001
1.40001
1.40001
1.40001
1.40001
1.40001
1.40001
1.40001
1.40001
1.40001
1.40001
2.54374
5.11766
5.40248
5.41142
5.42626
5.44263
5.46345
5.48749
5.51315
5.53835
5.5633
5.58709
5.60645
5.61762
5.6214
5.62421
5.63138
5.64413
5.65972
5.67578
5.68892
5.69799
5.70337
5.70829
5.71532
5.72532
5.73651
5.74582
5.74996
5.74953
5.7479
5.74753
5.74883
5.75063
5.75358
5.75624
5.75715
5.75379
5.74256
5.71698
5.67239
5.61721
5.57234
5.55599
1.40001
1.40001
1.40001
1.40001
1.40001
1.40001
1.40001
1.40001
1.40001
1.40001
1.40001
1.40001
1.40001
1.40001
1.40001
1.40001
1.40001
1.40001
1.40001
1.40001
1.40001
1.40001
1.40001
1.40001
1.40001
1.40001
1.40001
1.40001
1.40001
1.40001
1.40001
1.40001
1.40001
1.40001
1.40001
1.40001
1.40001
1.40001
1.40001
1.40001
1.40001
1.40001
1.40001
1.40001
1.40001
1.40001
1.40001
1.40001
1.40001
1.40001
1.40001
1.40001
2.18979
4.95334
5.43486
5.43031
5.43817
5.44748
5.46389
5.48485
5.50874
5.53231
5.55545
5.57837
5.59879
5.61265
5.61888
5.62182
5.62685
5.63669
5.65052
5.66587
5.67915
5.68841
5.69306
5.69584
5.70013
5.70786
5.71774
5.72675
5.73106
5.73097
5.7293
5.72851
5.72907
5.72967
5.73166
5.73386
5.73466
5.73132
5.72015
5.69469
5.6502
5.59483
5.54961
5.534
1.40001
1.40001
1.40001
1.40001
1.40001
1.40001
1.40001
1.40001
1.40001
1.40001
1.40001
1.40001
1.40001
1.40001
1.40001
1.40001
1.40001
1.40001
1.40001
1.40001
1.40001
1.40001
1.40001
1.40001
1.40001
1.40001
1.40001
1.40001
1.40001
1.40001
1.40001
1.40001
1.40001
1.40001
1.40001
1.40001
1.40001
1.40001
1.40001
1.40001
1.40001
1.40001
1.40001
1.40001
1.40001
1.40001
1.40001
1.40001
1.40001
1.40001
1.40001
1.40001
1.85483
4.76493
5.47595
5.44304
5.44874
5.4524
5.46408
5.48178
5.50273
5.52411
5.54547
5.56721
5.58795
5.60397
5.61288
5.61681
5.62062
5.62804
5.63997
5.65424
5.66757
5.67727
5.68175
5.68267
5.68409
5.68915
5.69729
5.70582
5.71038
5.71064
5.70882
5.7076
5.70748
5.70695
5.70775
5.70903
5.70918
5.70562
5.69468
5.66983
5.62574
5.57003
5.52388
5.50847
1.40001
1.40001
1.40001
1.40001
1.40001
1.40001
1.40001
1.40001
1.40001
1.40001
1.40001
1.40001
1.40001
1.40001
1.40001
1.40001
1.40001
1.40001
1.40001
1.40001
1.40001
1.40001
1.40001
1.40001
1.40001
1.40001
1.40001
1.40001
1.40001
1.40001
1.40001
1.40001
1.40001
1.40001
1.40001
1.40001
1.40001
1.40001
1.40001
1.40001
1.40001
1.40001
1.40001
1.40001
1.40001
1.40001
1.40001
1.40001
1.40001
1.40001
1.40001
1.40001
1.56781
4.46375
5.48466
5.44767
5.45184
5.45441
5.46118
5.47329
5.49106
5.5114
5.53293
5.55483
5.57558
5.59213
5.60224
5.60707
5.61074
5.61699
5.62748
5.64048
5.65359
5.66367
5.66821
5.66759
5.66667
5.66907
5.67526
5.68303
5.68775
5.68838
5.68651
5.68496
5.68426
5.68239
5.68165
5.68161
5.68023
5.67568
5.66485
5.64107
5.59804
5.54246
5.49549
5.48011
1.40001
1.40001
1.40001
1.40001
1.40001
1.40001
1.40001
1.40001
1.40001
1.40001
1.40001
1.40001
1.40001
1.40001
1.40001
1.40001
1.40001
1.40001
1.40001
1.40001
1.40001
1.40001
1.40001
1.40001
1.40001
1.40001
1.40001
1.40001
1.40001
1.40001
1.40001
1.40001
1.40001
1.40001
1.40001
1.40001
1.40001
1.40001
1.40001
1.40001
1.40001
1.40001
1.40001
1.40001
1.40001
1.40001
1.40001
1.40001
1.40001
1.40001
1.40001
1.40001
1.40921
4.07213
5.41821
5.41154
5.43186
5.4416
5.44937
5.46158
5.4795
5.49963
5.52052
5.54148
5.56135
5.57782
5.58915
5.59556
5.59992
5.6056
5.61442
5.62521
5.63714
5.64707
5.65171
5.65026
5.64779
5.64793
5.65227
5.65907
5.66368
5.66435
5.66226
5.66035
5.65891
5.65568
5.65338
5.65165
5.64844
5.64254
5.63138
5.60835
5.56618
5.51061
5.46285
5.44694
1.40001
1.40001
1.40001
1.40001
1.40001
1.40001
1.40001
1.40001
1.40001
1.40001
1.40001
1.40001
1.40001
1.40001
1.40001
1.40001
1.40001
1.40001
1.40001
1.40001
1.40001
1.40001
1.40001
1.40001
1.40001
1.40001
1.40001
1.40001
1.40001
1.40001
1.40001
1.40001
1.40001
1.40001
1.40001
1.40001
1.40001
1.40001
1.40001
1.40001
1.40001
1.40001
1.40001
1.40001
1.40001
1.40001
1.40001
1.40001
1.40001
1.40001
1.40001
1.40001
1.40006
3.60197
5.32722
5.38149
5.40457
5.41897
5.43054
5.44554
5.46441
5.48448
5.50462
5.52467
5.54349
5.55939
5.57097
5.57818
5.58327
5.58935
5.59784
5.60781
5.61927
5.62876
5.63274
5.63014
5.62613
5.62462
5.62766
5.63359
5.63799
5.63854
5.63614
5.63377
5.63144
5.62701
5.62319
5.61937
5.61376
5.60537
5.59255
5.56938
5.52808
5.4733
5.42586
5.40997
1.40001
1.40001
1.40001
1.40001
1.40001
1.40001
1.40001
1.40001
1.40001
1.40001
1.40001
1.40001
1.40001
1.40001
1.40001
1.40001
1.40001
1.40001
1.40001
1.40001
1.40001
1.40001
1.40001
1.40001
1.40001
1.40001
1.40001
1.40001
1.40001
1.40001
1.40001
1.40001
1.40001
1.40001
1.40001
1.40001
1.40001
1.40001
1.40001
1.40001
1.40001
1.40001
1.40001
1.40001
1.40001
1.40001
1.40001
1.40001
1.40001
1.40001
1.40001
1.40001
1.40001
3.13023
5.20158
5.35635
5.38963
5.40721
5.42016
5.43491
5.45267
5.47163
5.49045
5.5092
5.52651
5.54093
5.5515
5.55861
5.56422
5.5712
5.57998
5.58952
5.60028
5.60883
5.61165
5.60785
5.60282
5.60042
5.60239
5.60722
5.61114
5.61134
5.60848
5.60535
5.60181
5.59623
5.59079
5.58458
5.57632
5.56502
5.5498
5.5254
5.48381
5.42892
5.38161
5.36499
1.40001
1.40001
1.40001
1.40001
1.40001
1.40001
1.40001
1.40001
1.40001
1.40001
1.40001
1.40001
1.40001
1.40001
1.40001
1.40001
1.40001
1.40001
1.40001
1.40001
1.40001
1.40001
1.40001
1.40001
1.40001
1.40001
1.40001
1.40001
1.40001
1.40001
1.40001
1.40001
1.40001
1.40001
1.40001
1.40001
1.40001
1.40001
1.40001
1.40001
1.40001
1.40001
1.40001
1.40001
1.40001
1.40001
1.40001
1.40001
1.40001
1.40001
1.40001
1.40001
1.40001
2.66831
5.06382
5.3446
5.37409
5.39578
5.41045
5.42483
5.44146
5.46005
5.47861
5.49658
5.51246
5.52469
5.53295
5.53886
5.54471
5.55288
5.56216
5.57147
5.58112
5.58851
5.59001
5.58475
5.57871
5.57559
5.57657
5.57997
5.58302
5.58268
5.57916
5.57491
5.56981
5.56294
5.55578
5.54704
5.53547
5.52012
5.50059
5.47285
5.42984
5.3751
5.32886
5.31295
1.40001
1.40001
1.40001
1.40001
1.40001
1.40001
1.40001
1.40001
1.40001
1.40001
1.40001
1.40001
1.40001
1.40001
1.40001
1.40001
1.40001
1.40001
1.40001
1.40001
1.40001
1.40001
1.40001
1.40001
1.40001
1.40001
1.40001
1.40001
1.40001
1.40001
1.40001
1.40001
1.40001
1.40001
1.40001
1.40001
1.40001
1.40001
1.40001
1.40001
1.40001
1.40001
1.40001
1.40001
1.40001
1.40001
1.40001
1.40001
1.40001
1.40001
1.40001
1.40001
1.40001
2.17637
4.88409
5.41543
5.40057
5.41147
5.41944
5.42851
5.44026
5.4551
5.4711
5.48679
5.50046
5.51005
5.51565
5.51973
5.52537
5.53429
5.54418
5.55328
5.56193
5.5681
5.56831
5.56182
5.55458
5.55039
5.55007
5.55174
5.55354
5.55242
5.54807
5.54247
5.53558
5.52701
5.51787
5.50625
5.49036
5.47028
5.44634
5.41496
5.36921
5.31138
5.26227
5.24295
1.40001
1.40001
1.40001
1.40001
1.40001
1.40001
1.40001
1.40001
1.40001
1.40001
1.40001
1.40001
1.40001
1.40001
1.40001
1.40001
1.40001
1.40001
1.40001
1.40001
1.40001
1.40001
1.40001
1.40001
1.40001
1.40001
1.40001
1.40001
1.40001
1.40001
1.40001
1.40001
1.40001
1.40001
1.40001
1.40001
1.40001
1.40001
1.40001
1.40001
1.40001
1.40001
1.40001
1.40001
1.40001
1.40001
1.40001
1.40001
1.40001
1.40001
1.40001
1.40001
1.40001
1.70359
4.66174
5.49136
5.43693
5.42534
5.42354
5.42719
5.43738
5.45186
5.46695
5.48097
5.49263
5.49971
5.50246
5.50384
5.50767
5.51586
5.52599
5.5346
5.54257
5.54801
5.54704
5.53976
5.53125
5.52549
5.52348
5.52302
5.52296
5.52061
5.51502
5.50782
5.49892
5.48817
5.47632
5.46126
5.44051
5.41434
5.38376
5.34545
5.29272
5.22917
5.17611
5.15768
1.40001
1.40001
1.40001
1.40001
1.40001
1.40001
1.40001
1.40001
1.40001
1.40001
1.40001
1.40001
1.40001
1.40001
1.40001
1.40001
1.40001
1.40001
1.40001
1.40001
1.40001
1.40001
1.40001
1.40001
1.40001
1.40001
1.40001
1.40001
1.40001
1.40001
1.40001
1.40001
1.40001
1.40001
1.40001
1.40001
1.40001
1.40001
1.40001
1.40001
1.40001
1.40001
1.40001
1.40001
1.40001
1.40001
1.40001
1.40001
1.40001
1.40001
1.40001
1.40001
1.40001
1.42178
4.20436
5.4223
5.39584
5.41506
5.42177
5.42846
5.43922
5.45034
5.46244
5.4748
5.48552
5.49181
5.49333
5.49279
5.49376
5.49909
5.50791
5.51533
5.52273
5.52768
5.52621
5.51885
5.50931
5.50171
5.49725
5.49407
5.49149
5.48714
5.47957
5.47066
5.45972
5.44657
5.43118
5.41149
5.38503
5.35116
5.31213
5.26732
5.20785
5.13473
5.066
5.0275
1.40001
1.40001
1.40001
1.40001
1.40001
1.40001
1.40001
1.40001
1.40001
1.40001
1.40001
1.40001
1.40001
1.40001
1.40001
1.40001
1.40001
1.40001
1.40001
1.40001
1.40001
1.40001
1.40001
1.40001
1.40001
1.40001
1.40001
1.40001
1.40001
1.40001
1.40001
1.40001
1.40001
1.40001
1.40001
1.40001
1.40001
1.40001
1.40001
1.40001
1.40001
1.40001
1.40001
1.40001
1.40001
1.40001
1.40001
1.40001
1.40001
1.40001
1.40001
1.40001
1.40001
1.4001
3.57927
5.24696
5.35322
5.39196
5.40554
5.41399
5.4258
5.43811
5.45109
5.4642
5.47531
5.48254
5.48523
5.48489
5.484
5.48563
5.49088
5.49635
5.50237
5.50643
5.50481
5.49794
5.48784
5.47848
5.47164
5.46536
5.4598
5.45282
5.44277
5.43131
5.41809
5.40206
5.38212
5.35621
5.32262
5.28118
5.23288
5.17519
5.09711
4.99422
4.89679
4.84154
1.40001
1.40001
1.40001
1.40001
1.40001
1.40001
1.40001
1.40001
1.40001
1.40001
1.40001
1.40001
1.40001
1.40001
1.40001
1.40001
1.40001
1.40001
1.40001
1.40001
1.40001
1.40001
1.40001
1.40001
1.40001
1.40001
1.40001
1.40001
1.40001
1.40001
1.40001
1.40001
1.40001
1.40001
1.40001
1.40001
1.40001
1.40001
1.40001
1.40001
1.40001
1.40001
1.40001
1.40001
1.40001
1.40001
1.40001
1.40001
1.40001
1.40001
1.40001
1.40001
1.40001
1.4
3.01091
5.11586
5.33161
5.36765
5.38914
5.40277
5.41227
5.42357
5.4362
5.44883
5.46003
5.46855
5.47367
5.47561
5.47513
5.4744
5.47582
5.47814
5.48165
5.48427
5.48247
5.47627
5.46613
5.45542
5.44628
5.43696
5.42793
5.4176
5.40457
5.39011
5.37406
5.35451
5.32921
5.29591
5.25356
5.20291
5.14311
5.06774
4.96742
4.83744
4.6935
4.60245
1.40001
1.40001
1.40001
1.40001
1.40001
1.40001
1.40001
1.40001
1.40001
1.40001
1.40001
1.40001
1.40001
1.40001
1.40001
1.40001
1.40001
1.40001
1.40001
1.40001
1.40001
1.40001
1.40001
1.40001
1.40001
1.40001
1.40001
1.40001
1.40001
1.40001
1.40001
1.40001
1.40001
1.40001
1.40001
1.40001
1.40001
1.40001
1.40001
1.40001
1.40001
1.40001
1.40001
1.40001
1.40001
1.40001
1.40001
1.40001
1.40001
1.40001
1.40001
1.40001
1.40001
1.40001
2.42182
4.93154
5.35058
5.35988
5.37249
5.38374
5.3948
5.40691
5.41952
5.43179
5.44258
5.45123
5.45779
5.46221
5.46335
5.46196
5.46075
5.45985
5.46013
5.46058
5.45828
5.45254
5.44275
5.43118
5.41987
5.40791
5.39552
5.38172
5.36548
5.34764
5.32797
5.30401
5.27254
5.23107
5.17878
5.11693
5.04386
4.95045
4.81952
4.61809
4.23991
3.33766
1.40001
1.40001
1.40001
1.40001
1.40001
1.40001
1.40001
1.40001
1.40001
1.40001
1.40001
1.40001
1.40001
1.40001
1.40001
1.40001
1.40001
1.40001
1.40001
1.40001
1.40001
1.40001
1.40001
1.40001
1.40001
1.40001
1.40001
1.40001
1.40001
1.40001
1.40001
1.40001
1.40001
1.40001
1.40001
1.40001
1.40001
1.40001
1.40001
1.40001
1.40001
1.40001
1.40001
1.40001
1.40001
1.40001
1.40001
1.40001
1.40001
1.40001
1.40001
1.40001
1.40001
1.40001
1.84681
4.75796
5.40989
5.36742
5.36559
5.37269
5.38173
5.39084
5.4015
5.41277
5.42301
5.43159
5.43908
5.44523
5.44777
5.44655
5.44395
5.44058
5.43764
5.43532
5.43206
5.42626
5.41693
5.40492
5.39182
5.37764
5.3622
5.34509
5.32552
5.30383
5.27965
5.25044
5.21237
5.16267
5.10031
5.02578
4.93653
4.81833
4.6466
4.36846
3.92861
2.933
1.40001
1.40001
1.40001
1.40001
1.40001
1.40001
1.40001
1.40001
1.40001
1.40001
1.40001
1.40001
1.40001
1.40001
1.40001
1.40001
1.40001
1.40001
1.40001
1.40001
1.40001
1.40001
1.40001
1.40001
1.40001
1.40001
1.40001
1.40001
1.40001
1.40001
1.40001
1.40001
1.40001
1.40001
1.40001
1.40001
1.40001
1.40001
1.40001
1.40001
1.40001
1.40001
1.40001
1.40001
1.40001
1.40001
1.40001
1.40001
1.40001
1.40001
1.40001
1.40001
1.40001
1.40001
1.44659
4.26334
5.4028
5.37518
5.37422
5.37316
5.37494
5.37815
5.38505
5.39446
5.40422
5.41268
5.42031
5.42681
5.42957
5.42823
5.42458
5.41971
5.41457
5.4095
5.40461
5.39801
5.38852
5.37601
5.36151
5.34529
5.32718
5.30716
5.28432
5.2585
5.22923
5.1942
5.1495
5.09205
5.02015
4.93292
4.82615
4.68762
4.48301
4.20181
3.64203
2.77528
1.40001
1.40001
1.40001
1.40001
1.40001
1.40001
1.40001
1.40001
1.40001
1.40001
1.40001
1.40001
1.40001
1.40001
1.40001
1.40001
1.40001
1.40001
1.40001
1.40001
1.40001
1.40001
1.40001
1.40001
1.40001
1.40001
1.40001
1.40001
1.40001
1.40001
1.40001
1.40001
1.40001
1.40001
1.40001
1.40001
1.40001
1.40001
1.40001
1.40001
1.40001
1.40001
1.40001
1.40001
1.40001
1.40001
1.40001
1.40001
1.40001
1.40001
1.40001
1.40001
1.40001
1.40001
1.4003
3.54507
5.21539
5.33168
5.35959
5.36673
5.36666
5.36794
5.3717
5.37829
5.38676
5.39495
5.40212
5.40791
5.41006
5.40796
5.40301
5.39703
5.39059
5.38351
5.37692
5.36882
5.35814
5.34485
5.3291
5.3109
5.2904
5.26767
5.2416
5.21153
5.1769
5.13596
5.08504
5.02085
4.94035
4.84197
4.7192
4.56392
4.34158
4.02589
3.48232
2.8071
1.40001
1.40001
1.40001
1.40001
1.40001
1.40001
1.40001
1.40001
1.40001
1.40001
1.40001
1.40001
1.40001
1.40001
1.40001
1.40001
1.40001
1.40001
1.40001
1.40001
1.40001
1.40001
1.40001
1.40001
1.40001
1.40001
1.40001
1.40001
1.40001
1.40001
1.40001
1.40001
1.40001
1.40001
1.40001
1.40001
1.40001
1.40001
1.40001
1.40001
1.40001
1.40001
1.40001
1.40001
1.40001
1.40001
1.40001
1.40001
1.40001
1.40001
1.40001
1.40001
1.40001
1.40001
1.4
2.87475
5.06602
5.32621
5.34722
5.3576
5.35956
5.35948
5.36135
5.36578
5.37254
5.37972
5.38593
5.3906
5.39183
5.38824
5.38128
5.37353
5.36568
5.35715
5.34896
5.33932
5.32719
5.31247
5.29525
5.27521
5.25238
5.22683
5.19747
5.16316
5.12322
5.07672
5.02034
4.95072
4.86327
4.75548
4.62068
4.44895
4.22002
3.88852
3.41098
2.86901
1.40001
1.40001
1.40001
1.40001
1.40001
1.40001
1.40001
1.40001
1.40001
1.40001
1.40001
1.40001
1.40001
1.40001
1.40001
1.40001
1.40001
1.40001
1.40001
1.40001
1.40001
1.40001
1.40001
1.40001
1.40001
1.40001
1.40001
1.40001
1.40001
1.40001
1.40001
1.40001
1.40001
1.40001
1.40001
1.40001
1.40001
1.40001
1.40001
1.40001
1.40001
1.40001
1.40001
1.40001
1.40001
1.40001
1.40001
1.40001
1.40001
1.40001
1.40001
1.40001
1.40001
1.40001
1.4
2.18656
4.8649
5.3663
5.34923
5.34768
5.34705
5.34822
5.3512
5.35549
5.36085
5.36616
5.37075
5.37413
5.3745
5.36966
5.36046
5.35038
5.34081
5.33072
5.32095
5.30996
5.29651
5.28035
5.26139
5.23927
5.21376
5.18496
5.15204
5.11374
5.06903
5.01757
4.95662
4.88265
4.79023
4.67525
4.53194
4.34994
4.11859
3.79641
3.39044
2.94372
1.40001
1.40001
1.40001
1.40001
1.40001
1.40001
1.40001
1.40001
1.40001
1.40001
1.40001
1.40001
1.40001
1.40001
1.40001
1.40001
1.40001
1.40001
1.40001
1.40001
1.40001
1.40001
1.40001
1.40001
1.40001
1.40001
1.40001
1.40001
1.40001
1.40001
1.40001
1.40001
1.40001
1.40001
1.40001
1.40001