/*--------------------------------*- C++ -*----------------------------------*\
  =========                 |
  \\      /  F ield         | OpenFOAM: The Open Source CFD Toolbox
   \\    /   O peration     | Website:  https://openfoam.org
    \\  /    A nd           | Version:  7
     \\/     M anipulation  |
\*---------------------------------------------------------------------------*/
FoamFile
{
    version     2.0;
    format      ascii;
    class       volScalarField;
    location    "1.5";
    object      T;
}
// * * * * * * * * * * * * * * * * * * * * * * * * * * * * * * * * * * * * * //

dimensions      [0 0 0 1 0 0 0];

internalField   nonuniform List<scalar> 
64512
(
1
1
1
1
1
1
1
1
1
1
1
1
1
1
1
1
1
1
1
1
1
1
1
1
1
1
1
1
1
1
1
1
1
1
1
1
1
1
1
1
1
1
1
1
1
1
1
1
1
1
1
1.91618
2.67185
2.72491
2.73557
2.74314
2.74663
2.7486
2.75027
2.75168
2.75209
2.75136
2.75039
2.75113
2.75514
2.76279
2.7714
2.77783
2.78086
2.78186
2.78318
2.7867
2.79355
2.80235
2.80991
2.81333
2.8134
2.81255
2.81178
2.81236
2.8156
2.82136
2.82719
2.83186
2.83501
2.83731
2.8398
2.843
2.84716
2.85209
2.85911
2.87207
2.89322
2.91854
2.93819
2.94575
1
1
1
1
1
1
1
1
1
1
1
1
1
1
1
1
1
1
1
1
1
1
1
1
1
1
1
1
1
1
1
1
1
1
1
1
1
1
1
1
1
1
1
1
1
1
1
1
1
1
1
1.91096
2.66992
2.72523
2.73566
2.74313
2.74653
2.7485
2.75018
2.75165
2.75207
2.75138
2.75049
2.75128
2.75524
2.76277
2.7713
2.77772
2.78084
2.78195
2.7833
2.78676
2.79347
2.80218
2.80972
2.81318
2.81326
2.81235
2.81146
2.81199
2.81527
2.82116
2.82717
2.83193
2.83501
2.83718
2.83953
2.84268
2.84688
2.85197
2.85921
2.87234
2.89349
2.91856
2.9378
2.94504
1
1
1
1
1
1
1
1
1
1
1
1
1
1
1
1
1
1
1
1
1
1
1
1
1
1
1
1
1
1
1
1
1
1
1
1
1
1
1
1
1
1
1
1
1
1
1
1
1
1
1
1.89872
2.66811
2.72494
2.73542
2.74284
2.74615
2.74808
2.74975
2.75124
2.75166
2.75103
2.75028
2.75119
2.75521
2.76271
2.77119
2.7776
2.7808
2.78201
2.78341
2.7868
2.79334
2.80188
2.80934
2.81277
2.81288
2.81191
2.81094
2.81147
2.81479
2.82085
2.82715
2.832
2.83497
2.83696
2.83911
2.84212
2.84637
2.85174
2.8594
2.87288
2.89406
2.91875
2.93734
2.94404
1
1
1
1
1
1
1
1
1
1
1
1
1
1
1
1
1
1
1
1
1
1
1
1
1
1
1
1
1
1
1
1
1
1
1
1
1
1
1
1
1
1
1
1
1
1
1
1
1
1
1
1.87687
2.6644
2.72417
2.73495
2.74233
2.74559
2.74743
2.749
2.75042
2.75078
2.75025
2.74971
2.7508
2.75502
2.76262
2.77116
2.77761
2.78086
2.78207
2.78344
2.78672
2.79305
2.80141
2.80876
2.81213
2.8122
2.81119
2.81019
2.81076
2.81417
2.82042
2.82703
2.832
2.83484
2.83661
2.83855
2.84142
2.84573
2.85141
2.85956
2.87351
2.89474
2.91896
2.93679
2.94285
1
1
1
1
1
1
1
1
1
1
1
1
1
1
1
1
1
1
1
1
1
1
1
1
1
1
1
1
1
1
1
1
1
1
1
1
1
1
1
1
1
1
1
1
1
1
1
1
1
1
1
1.84532
2.65894
2.72346
2.73444
2.74133
2.74442
2.74608
2.74741
2.7487
2.74907
2.74871
2.74849
2.7499
2.75454
2.76247
2.7712
2.77775
2.78101
2.78209
2.78334
2.78646
2.79259
2.80079
2.80799
2.81125
2.81124
2.81017
2.80921
2.80987
2.81346
2.81991
2.82674
2.8318
2.83455
2.83614
2.8379
2.84066
2.84499
2.85095
2.85961
2.87397
2.89529
2.9191
2.93624
2.94169
1
1
1
1
1
1
1
1
1
1
1
1
1
1
1
1
1
1
1
1
1
1
1
1
1
1
1
1
1
1
1
1
1
1
1
1
1
1
1
1
1
1
1
1
1
1
1
1
1
1
1
1.80597
2.65201
2.72246
2.73318
2.73956
2.7425
2.74422
2.74554
2.74681
2.74718
2.74689
2.74677
2.74847
2.75366
2.76215
2.77125
2.778
2.78122
2.78209
2.78311
2.78602
2.79197
2.80004
2.80706
2.81018
2.81002
2.80886
2.808
2.80882
2.81264
2.81927
2.82623
2.83135
2.83404
2.83552
2.83718
2.83989
2.84418
2.85032
2.85941
2.87406
2.89547
2.91906
2.93575
2.94077
1
1
1
1
1
1
1
1
1
1
1
1
1
1
1
1
1
1
1
1
1
1
1
1
1
1
1
1
1
1
1
1
1
1
1
1
1
1
1
1
1
1
1
1
1
1
1
1
1
1
1
1.7593
2.64277
2.72048
2.73086
2.7367
2.73994
2.74206
2.74355
2.7447
2.7449
2.74464
2.74459
2.74657
2.75241
2.76167
2.77127
2.77825
2.78138
2.78203
2.78279
2.78546
2.79121
2.79911
2.80594
2.80891
2.80861
2.80736
2.80659
2.8076
2.81167
2.81848
2.82556
2.83068
2.83329
2.83469
2.83631
2.83902
2.84328
2.84949
2.85884
2.87369
2.89519
2.91878
2.93537
2.94024
1
1
1
1
1
1
1
1
1
1
1
1
1
1
1
1
1
1
1
1
1
1
1
1
1
1
1
1
1
1
1
1
1
1
1
1
1
1
1
1
1
1
1
1
1
1
1
1
1
1
1
1.70496
2.63046
2.71677
2.72711
2.73354
2.73729
2.73972
2.74111
2.74192
2.74207
2.74194
2.74207
2.74455
2.75118
2.76113
2.77117
2.7783
2.78137
2.78187
2.78245
2.78487
2.79037
2.79802
2.80462
2.80747
2.80707
2.80577
2.80507
2.80626
2.81055
2.81753
2.82471
2.8298
2.8323
2.83362
2.83526
2.83796
2.8422
2.84847
2.85787
2.87277
2.89437
2.91817
2.93502
2.94003
1
1
1
1
1
1
1
1
1
1
1
1
1
1
1
1
1
1
1
1
1
1
1
1
1
1
1
1
1
1
1
1
1
1
1
1
1
1
1
1
1
1
1
1
1
1
1
1
1
1
1
1.64268
2.6124
2.7123
2.72306
2.7304
2.73443
2.7369
2.73801
2.73857
2.73892
2.73891
2.73956
2.74284
2.75024
2.76072
2.77098
2.7781
2.78112
2.78157
2.78206
2.78427
2.78944
2.79675
2.8031
2.80586
2.80544
2.80412
2.80347
2.80479
2.80927
2.81641
2.82369
2.82873
2.83111
2.83234
2.83393
2.83658
2.84086
2.84719
2.85654
2.87135
2.89308
2.91727
2.93464
2.94
1
1
1
1
1
1
1
1
1
1
1
1
1
1
1
1
1
1
1
1
1
1
1
1
1
1
1
1
1
1
1
1
1
1
1
1
1
1
1
1
1
1
1
1
1
1
1
1
1
1
1
1.56637
2.58702
2.70947
2.7194
2.72764
2.73176
2.73395
2.73456
2.73508
2.73541
2.73594
2.73739
2.74161
2.74979
2.7606
2.77079
2.7777
2.78062
2.7811
2.78159
2.78361
2.78842
2.79532
2.80136
2.80404
2.80365
2.80239
2.80178
2.80319
2.80782
2.81509
2.82246
2.82747
2.8297
2.83081
2.83228
2.83488
2.83922
2.8456
2.85487
2.86961
2.89148
2.91611
2.93408
2.93989
1
1
1
1
1
1
1
1
1
1
1
1
1
1
1
1
1
1
1
1
1
1
1
1
1
1
1
1
1
1
1
1
1
1
1
1
1
1
1
1
1
1
1
1
1
1
1
1
1
1
1
1.47427
2.55369
2.7089
2.71658
2.72445
2.72847
2.73036
2.73095
2.73134
2.7321
2.73315
2.73554
2.7408
2.74969
2.76064
2.77056
2.77716
2.77996
2.7805
2.78104
2.78295
2.78738
2.79378
2.79942
2.80193
2.80159
2.80044
2.79991
2.80141
2.80617
2.81357
2.82102
2.82602
2.82811
2.82906
2.83036
2.83287
2.83724
2.84366
2.8529
2.86766
2.88971
2.91473
2.93319
2.93942
1
1
1
1
1
1
1
1
1
1
1
1
1
1
1
1
1
1
1
1
1
1
1
1
1
1
1
1
1
1
1
1
1
1
1
1
1
1
1
1
1
1
1
1
1
1
1
1
1
1
1
1.37528
2.51337
2.70775
2.71436
2.72157
2.72548
2.727
2.72765
2.72824
2.72908
2.73075
2.73403
2.74015
2.74957
2.76059
2.7702
2.77651
2.77918
2.77978
2.78038
2.78218
2.78626
2.7921
2.79724
2.79951
2.7992
2.79822
2.79787
2.7995
2.8044
2.81188
2.81936
2.82435
2.8263
2.82706
2.82818
2.8306
2.83491
2.84135
2.85065
2.86557
2.88785
2.91319
2.93192
2.93841
1
1
1
1
1
1
1
1
1
1
1
1
1
1
1
1
1
1
1
1
1
1
1
1
1
1
1
1
1
1
1
1
1
1
1
1
1
1
1
1
1
1
1
1
1
1
1
1
1
1
1
1.27018
2.46209
2.7049
2.71232
2.71928
2.72325
2.7251
2.72576
2.72624
2.72715
2.72909
2.73289
2.73956
2.7493
2.76028
2.76958
2.77566
2.77822
2.7789
2.77957
2.7813
2.78501
2.79026
2.79483
2.79678
2.79646
2.79567
2.79558
2.7974
2.80247
2.80998
2.81742
2.82235
2.82421
2.82484
2.82582
2.82813
2.83232
2.83872
2.84814
2.86333
2.8859
2.91149
2.93025
2.93678
1
1
1
1
1
1
1
1
1
1
1
1
1
1
1
1
1
1
1
1
1
1
1
1
1
1
1
1
1
1
1
1
1
1
1
1
1
1
1
1
1
1
1
1
1
1
1
1
1
1
1
1.16378
2.40226
2.70241
2.71052
2.71824
2.72284
2.72479
2.7255
2.72584
2.72643
2.72812
2.73187
2.73865
2.74846
2.75937
2.76855
2.77458
2.77713
2.77785
2.77854
2.78013
2.78345
2.7881
2.79213
2.79379
2.79347
2.79283
2.79299
2.79508
2.80032
2.80785
2.81521
2.82005
2.82185
2.82242
2.82334
2.82553
2.82953
2.83579
2.84534
2.86085
2.88376
2.90954
2.92813
2.93453
1
1
1
1
1
1
1
1
1
1
1
1
1
1
1
1
1
1
1
1
1
1
1
1
1
1
1
1
1
1
1
1
1
1
1
1
1
1
1
1
1
1
1
1
1
1
1
1
1
1
1
1.04486
2.33358
2.70285
2.71223
2.71965
2.72329
2.72455
2.72485
2.72505
2.72553
2.72709
2.73069
2.7373
2.74695
2.7578
2.76706
2.77324
2.77589
2.77668
2.77734
2.7787
2.78148
2.78546
2.789
2.79049
2.79024
2.78978
2.79018
2.79262
2.79806
2.80557
2.81276
2.81743
2.81915
2.8197
2.82062
2.82275
2.82655
2.83265
2.84227
2.85807
2.8813
2.90724
2.92563
2.93184
1
1
1
1
1
1
1
1
1
1
1
1
1
1
1
1
1
1
1
1
1
1
1
1
1
1
1
1
1
1
1
1
1
1
1
1
1
1
1
1
1
1
1
1
1
1
1
1
1
1
1
1.00095
2.256
2.69763
2.71281
2.72014
2.72326
2.72443
2.72473
2.7248
2.72501
2.7262
2.72939
2.7356
2.74496
2.75574
2.76515
2.7715
2.77427
2.77503
2.77553
2.77654
2.77872
2.7821
2.78536
2.78695
2.78695
2.78676
2.78736
2.79005
2.79563
2.80309
2.81008
2.81454
2.81616
2.81671
2.81769
2.81984
2.82351
2.82942
2.83899
2.8549
2.87835
2.90443
2.92271
2.9288
1
1
1
1
1
1
1
1
1
1
1
1
1
1
1
1
1
1
1
1
1
1
1
1
1
1
1
1
1
1
1
1
1
1
1
1
1
1
1
1
1
1
1
1
1
1
1
1
1
1
1
1
2.15871
2.69229
2.71583
2.72127
2.72346
2.72416
2.72438
2.72444
2.72459
2.72545
2.72801
2.73343
2.74213
2.75266
2.76226
2.76899
2.77208
2.77289
2.77319
2.77379
2.77535
2.77816
2.78124
2.78312
2.78358
2.78369
2.7845
2.78734
2.79297
2.80036
2.80717
2.81142
2.81295
2.81346
2.81447
2.81664
2.82026
2.82598
2.8354
2.85124
2.87477
2.90105
2.91945
2.92557
1
1
1
1
1
1
1
1
1
1
1
1
1
1
1
1
1
1
1
1
1
1
1
1
1
1
1
1
1
1
1
1
1
1
1
1
1
1
1
1
1
1
1
1
1
1
1
1
1
1
1
1
2.04234
2.67878
2.7152
2.72063
2.72319
2.72365
2.72363
2.72342
2.72335
2.72383
2.7258
2.73044
2.73845
2.74868
2.75845
2.7656
2.76913
2.77006
2.77018
2.77047
2.77149
2.77376
2.77664
2.77885
2.77988
2.78048
2.78167
2.78469
2.79027
2.79749
2.80403
2.80802
2.8094
2.80981
2.81079
2.81303
2.81673
2.82232
2.83151
2.84712
2.87057
2.89706
2.91574
2.92207
1
1
1
1
1
1
1
1
1
1
1
1
1
1
1
1
1
1
1
1
1
1
1
1
1
1
1
1
1
1
1
1
1
1
1
1
1
1
1
1
1
1
1
1
1
1
1
1
1
1
1
1
1.90571
2.65516
2.71228
2.71786
2.72095
2.72118
2.7213
2.72122
2.72119
2.72146
2.72289
2.72674
2.7339
2.7436
2.7534
2.76099
2.76516
2.76641
2.76653
2.76669
2.76731
2.76907
2.7717
2.77419
2.77584
2.7771
2.77879
2.78201
2.78744
2.79433
2.80055
2.80431
2.80555
2.80583
2.80676
2.80904
2.81281
2.81829
2.82724
2.84251
2.86579
2.89247
2.91154
2.91821
1
1
1
1
1
1
1
1
1
1
1
1
1
1
1
1
1
1
1
1
1
1
1
1
1
1
1
1
1
1
1
1
1
1
1
1
1
1
1
1
1
1
1
1
1
1
1
1
1
1
1
1
1.75715
2.61958
2.70513
2.71165
2.71519
2.71598
2.71683
2.71751
2.71797
2.71835
2.71949
2.72261
2.72878
2.73763
2.74719
2.75512
2.75994
2.76173
2.7621
2.76231
2.76278
2.76424
2.76672
2.76941
2.77163
2.77353
2.77572
2.77914
2.78439
2.79091
2.7968
2.80034
2.80145
2.80156
2.80237
2.80458
2.80834
2.81375
2.82246
2.83738
2.86046
2.88729
2.90673
2.91378
1
1
1
1
1
1
1
1
1
1
1
1
1
1
1
1
1
1
1
1
1
1
1
1
1
1
1
1
1
1
1
1
1
1
1
1
1
1
1
1
1
1
1
1
1
1
1
1
1
1
1
1
1.57473
2.56061
2.69388
2.70002
2.70484
2.70744
2.71012
2.71228
2.71381
2.71471
2.7159
2.71852
2.72361
2.73124
2.74011
2.74813
2.75356
2.75611
2.75702
2.75751
2.7581
2.75951
2.76195
2.76484
2.76748
2.76991
2.77251
2.77605
2.78106
2.78717
2.79272
2.79603
2.79698
2.79695
2.79757
2.79956
2.80318
2.80848
2.81701
2.83168
2.85459
2.88156
2.90131
2.90871
1
1
1
1
1
1
1
1
1
1
1
1
1
1
1
1
1
1
1
1
1
1
1
1
1
1
1
1
1
1
1
1
1
1
1
1
1
1
1
1
1
1
1
1
1
1
1
1
1
1
1
1
1.35388
2.48046
2.68945
2.68795
2.69277
2.69752
2.70235
2.70634
2.70931
2.71114
2.71268
2.71501
2.71912
2.72541
2.73323
2.741
2.74686
2.75015
2.75167
2.75247
2.75327
2.75484
2.75749
2.76066
2.76362
2.76641
2.7692
2.77269
2.77736
2.78304
2.78821
2.79127
2.79207
2.79195
2.79235
2.79404
2.7974
2.80251
2.81087
2.82532
2.84807
2.87514
2.8951
2.90275
1
1
1
1
1
1
1
1
1
1
1
1
1
1
1
1
1
1
1
1
1
1
1
1
1
1
1
1
1
1
1
1
1
1
1
1
1
1
1
1
1
1
1
1
1
1
1
1
1
1
1
1
1.13611
2.38891
2.68959
2.68621
2.68948
2.69366
2.69811
2.70226
2.70581
2.7083
2.71032
2.71268
2.71617
2.72127
2.72789
2.73499
2.74092
2.74463
2.74652
2.74747
2.74844
2.75026
2.75328
2.75681
2.76008
2.763
2.7658
2.76905
2.77328
2.77848
2.78326
2.78608
2.78675
2.78652
2.78665
2.78791
2.79083
2.79563
2.80377
2.81802
2.84066
2.86791
2.88814
2.89604
1
1
1
1
1
1
1
1
1
1
1
1
1
1
1
1
1
1
1
1
1
1
1
1
1
1
1
1
1
1
1
1
1
1
1
1
1
1
1
1
1
1
1
1
1
1
1
1
1
1
1
1
1.00534
2.29662
2.68658
2.68587
2.6909
2.69504
2.69867
2.70223
2.70527
2.70745
2.70922
2.71129
2.71432
2.7188
2.72481
2.73146
2.73712
2.74064
2.74227
2.74289
2.74375
2.74578
2.74929
2.75328
2.75689
2.75974
2.76242
2.76524
2.76888
2.77349
2.77782
2.78039
2.78093
2.78057
2.78042
2.78122
2.78361
2.78804
2.79585
2.80976
2.83218
2.85954
2.88011
2.88818
1
1
1
1
1
1
1
1
1
1
1
1
1
1
1
1
1
1
1
1
1
1
1
1
1
1
1
1
1
1
1
1
1
1
1
1
1
1
1
1
1
1
1
1
1
1
1
1
1
1
1
1
1.00002
2.16831
2.68634
2.69105
2.69483
2.6977
2.69989
2.70228
2.70463
2.70639
2.70779
2.70954
2.71232
2.71667
2.72257
2.72901
2.7343
2.73737
2.7385
2.73877
2.73948
2.74167
2.74556
2.74986
2.75372
2.75651
2.75879
2.76108
2.76407
2.76802
2.77184
2.77417
2.77459
2.77409
2.77367
2.77403
2.77575
2.77955
2.78672
2.80006
2.82216
2.84976
2.87095
2.87938
1
1
1
1
1
1
1
1
1
1
1
1
1
1
1
1
1
1
1
1
1
1
1
1
1
1
1
1
1
1
1
1
1
1
1
1
1
1
1
1
1
1
1
1
1
1
1
1
1
1
1
1
1
2.00725
2.66772
2.69265
2.69723
2.69951
2.70101
2.70264
2.70428
2.70531
2.70607
2.70741
2.71006
2.71463
2.7209
2.72752
2.73256
2.73504
2.73546
2.73528
2.73567
2.7378
2.74193
2.74645
2.75058
2.75327
2.75501
2.75663
2.75886
2.76206
2.7653
2.76738
2.76768
2.76704
2.76635
2.7663
2.76732
2.77032
2.77667
2.78917
2.81063
2.83822
2.86003
2.8687
1
1
1
1
1
1
1
1
1
1
1
1
1
1
1
1
1
1
1
1
1
1
1
1
1
1
1
1
1
1
1
1
1
1
1
1
1
1
1
1
1
1
1
1
1
1
1
1
1
1
1
1
1
1.81462
2.61759
2.68485
2.68993
2.69377
2.69654
2.69902
2.70097
2.70208
2.70281
2.70411
2.70694
2.71203
2.71892
2.72595
2.73094
2.73296
2.73286
2.7323
2.73238
2.73422
2.73832
2.7429
2.74723
2.74977
2.75091
2.7518
2.75321
2.75555
2.75812
2.75991
2.76008
2.75935
2.7584
2.75793
2.75827
2.76013
2.76514
2.77627
2.79675
2.82434
2.84704
2.85633
1
1
1
1
1
1
1
1
1
1
1
1
1
1
1
1
1
1
1
1
1
1
1
1
1
1
1
1
1
1
1
1
1
1
1
1
1
1
1
1
1
1
1
1
1
1
1
1
1
1
1
1
1
1.54648
2.51774
2.67605
2.67669
2.68156
2.6864
2.69074
2.69401
2.69604
2.69722
2.69873
2.70188
2.70757
2.7153
2.72308
2.72842
2.73035
2.73006
2.72927
2.72913
2.73059
2.73439
2.73891
2.74337
2.74572
2.74626
2.74651
2.74709
2.74842
2.75027
2.75171
2.75176
2.75099
2.74978
2.74878
2.74834
2.74902
2.75245
2.76198
2.78112
2.80797
2.83077
2.83985
1
1
1
1
1
1
1
1
1
1
1
1
1
1
1
1
1
1
1
1
1
1
1
1
1
1
1
1
1
1
1
1
1
1
1
1
1
1
1
1
1
1
1
1
1
1
1
1
1
1
1
1
1
1.21609
2.40403
2.66582
2.66248
2.66661
2.67236
2.67847
2.68387
2.6875
2.68959
2.69158
2.69505
2.70107
2.70934
2.71786
2.72406
2.7265
2.72637
2.7256
2.72539
2.72655
2.72979
2.73419
2.73864
2.74088
2.74103
2.74073
2.74054
2.74081
2.74174
2.7427
2.74266
2.74183
2.74034
2.73866
2.73721
2.73666
2.73819
2.74505
2.76158
2.787
2.80977
2.81967
1
1
1
1
1
1
1
1
1
1
1
1
1
1
1
1
1
1
1
1
1
1
1
1
1
1
1
1
1
1
1
1
1
1
1
1
1
1
1
1
1
1
1
1
1
1
1
1
1
1
1
1
1
1.01145
2.3105
2.65933
2.65402
2.66008
2.66582
2.67122
2.67593
2.67901
2.68123
2.68356
2.68711
2.69294
2.70108
2.70993
2.7171
2.72073
2.72124
2.72072
2.72062
2.7216
2.72432
2.72844
2.73281
2.73508
2.7351
2.7344
2.73339
2.7327
2.73264
2.73292
2.73276
2.73182
2.72997
2.72745
2.72467
2.72255
2.7222
2.72627
2.7398
2.76282
2.78262
2.78821
1
1
1
1
1
1
1
1
1
1
1
1
1
1
1
1
1
1
1
1
1
1
1
1
1
1
1
1
1
1
1
1
1
1
1
1
1
1
1
1
1
1
1
1
1
1
1
1
1
1
1
1
1
1.00004
2.15998
2.653
2.66032
2.66401
2.66644
2.6683
2.6706
2.67277
2.6748
2.67695
2.67989
2.68463
2.69168
2.70012
2.70778
2.71279
2.71456
2.71442
2.71452
2.71548
2.71774
2.7214
2.72561
2.72808
2.72826
2.72742
2.72584
2.72421
2.72305
2.72259
2.72207
2.72085
2.71848
2.71496
2.71069
2.70649
2.70395
2.70471
2.71205
2.72739
2.74114
2.74331
1
1
1
1
1
1
1
1
1
1
1
1
1
1
1
1
1
1
1
1
1
1
1
1
1
1
1
1
1
1
1
1
1
1
1
1
1
1
1
1
1
1
1
1
1
1
1
1
1
1
1
1
1
1
1.96027
2.63667
2.66866
2.66793
2.66868
2.6698
2.67077
2.67187
2.67282
2.67371
2.6751
2.67789
2.68288
2.68998
2.69752
2.70332
2.70638
2.70703
2.70744
2.70839
2.71016
2.71318
2.71701
2.71976
2.72035
2.71958
2.71774
2.71535
2.71315
2.71173
2.7106
2.70888
2.70583
2.70121
2.69527
2.68871
2.68259
2.6788
2.67952
2.68623
2.69428
2.69958
1
1
1
1
1
1
1
1
1
1
1
1
1
1
1
1
1
1
1
1
1
1
1
1
1
1
1
1
1
1
1
1
1
1
1
1
1
1
1
1
1
1
1
1
1
1
1
1
1
1
1
1
1
1
1.6763
2.5537
2.66343
2.66351
2.66524
2.66742
2.66948
2.67113
2.67212
2.6725
2.67281
2.67371
2.67628
2.68135
2.68793
2.69377
2.69759
2.6991
2.69981
2.70064
2.70183
2.70407
2.70724
2.71006
2.71114
2.7106
2.70885
2.70607
2.70302
2.70054
2.6985
2.69599
2.69205
2.68618
2.67843
2.66933
2.65956
2.64999
2.64038
2.62579
2.58307
2.45608
1
1
1
1
1
1
1
1
1
1
1
1
1
1
1
1
1
1
1
1
1
1
1
1
1
1
1
1
1
1
1
1
1
1
1
1
1
1
1
1
1
1
1
1
1
1
1
1
1
1
1
1
1
1
1.30846
2.4283
2.65156
2.65029
2.65406
2.65978
2.66485
2.6684
2.6703
2.67079
2.67071
2.67073
2.67171
2.67496
2.68022
2.68558
2.68959
2.6916
2.69233
2.69278
2.69341
2.69471
2.69692
2.6994
2.70076
2.7005
2.69904
2.69622
2.69262
2.68909
2.68587
2.68227
2.67724
2.67004
2.66045
2.64866
2.63478
2.61775
2.59502
2.55687
2.49315
2.29522
1
1
1
1
1
1
1
1
1
1
1
1
1
1
1
1
1
1
1
1
1
1
1
1
1
1
1
1
1
1
1
1
1
1
1
1
1
1
1
1
1
1
1
1
1
1
1
1
1
1
1
1
1
1
1.02406
2.30822
2.64686
2.64344
2.64586
2.65081
2.65726
2.66257
2.66598
2.66741
2.66764
2.66758
2.66802
2.67018
2.67433
2.6791
2.683
2.68522
2.68578
2.68568
2.68562
2.68588
2.68687
2.68847
2.68964
2.68953
2.68835
2.68571
2.68183
2.67739
2.67287
2.66794
2.66164
2.65307
2.64169
2.62725
2.6091
2.58576
2.55174
2.50653
2.39981
2.19768
1
1
1
1
1
1
1
1
1
1
1
1
1
1
1
1
1
1
1
1
1
1
1
1
1
1
1
1
1
1
1
1
1
1
1
1
1
1
1
1
1
1
1
1
1
1
1
1
1
1
1
1
1
1
1.00013
2.13466
2.6246
2.63445
2.64045
2.64559
2.65065
2.65555
2.65937
2.66161
2.66257
2.66298
2.66362
2.66554
2.66921
2.6736
2.67747
2.6798
2.68018
2.67972
2.67889
2.67807
2.6778
2.67811
2.67854
2.67832
2.67719
2.67467
2.67062
2.66543
2.65963
2.65327
2.64558
2.63567
2.6226
2.60579
2.58378
2.55527
2.51394
2.45434
2.33763
2.16448
1
1
1
1
1
1
1
1
1
1
1
1
1
1
1
1
1
1
1
1
1
1
1
1
1
1
1
1
1
1
1
1
1
1
1
1
1
1
1
1
1
1
1
1
1
1
1
1
1
1
1
1
1
1
1
1.89098
2.59053
2.63408
2.63881
2.64285
2.64646
2.64958
2.65247
2.6546
2.6559
2.65679
2.65788
2.66011
2.66389
2.66823
2.67229
2.67482
2.67512
2.6745
2.67311
2.67138
2.66987
2.66889
2.6683
2.66754
2.66609
2.66343
2.65916
2.65332
2.64635
2.63857
2.6295
2.61832
2.60375
2.58486
2.55992
2.52665
2.48109
2.41201
2.30327
2.16604
1
1
1
1
1
1
1
1
1
1
1
1
1
1
1
1
1
1
1
1
1
1
1
1
1
1
1
1
1
1
1
1
1
1
1
1
1
1
1
1
1
1
1
1
1
1
1
1
1
1
1
1
1
1
1
1.5289
2.48612
2.63211
2.63406
2.63774
2.64098
2.64373
2.64615
2.64783
2.64888
2.64969
2.6509
2.65338
2.65745
2.66204
2.66659
2.66955
2.67001
2.66938
2.66775
2.66544
2.66303
2.66096
2.65928
2.65766
2.65553
2.65237
2.64768
2.64125
2.63328
2.62422
2.61385
2.60144
2.58559
2.56496
2.53784
2.50149
2.45333
2.38218
2.28608
2.17239
1
1
1
1
1
1
1
1
1
1
1
1
1
1
1
1
1
1
1
1
1
1
1
1
1
1
1
1
1
1
1
1
1
1
1
1
1
1
1
1
1
1
1
1
1
1
1
1
1
1
1
1
1
1
1
1.09825
2.3432
2.63187
2.62837
2.63029
2.63402
2.63734
2.6399
2.64148
2.64223
2.64268
2.64363
2.64594
2.64991
2.65472
2.65975
2.66333
2.66422
2.6637
2.66211
2.6596
2.65669
2.65387
2.6513
2.64875
2.64575
2.64184
2.63654
2.62956
2.62081
2.61064
2.59902
2.58536
2.56838
2.54656
2.51807
2.48012
2.4311
2.36305
2.27852
2.18104
1
1
1
1
1
1
1
1
1
1
1
1
1
1
1
1
1
1
1
1
1
1
1
1
1
1
1
1
1
1
1
1
1
1
1
1
1
1
1
1
1
1
1
1
1
1
1
1
1
1
1
1
1
1
1
1.00206
2.19563
2.60852
2.61466
2.6206
2.62604
2.63025
2.63333
2.63521
2.63593
2.63615
2.63673
2.63851
2.64191
2.64654
2.65173
2.65588
2.6574
2.65709
2.65569
2.65326
2.65025
2.64708
2.6439
2.64057
2.63672
2.632
2.62605
2.61853
2.60919
2.59811
2.58532
2.57039
2.55232
2.52967
2.50062
2.46248
2.41402
2.35071
2.2786
2.19311
1
1
1
1
1
1
1
1
1
1
1
1
1
1
1
1
1
1
1
1
1
1
1
1
1
1
1
1
1
1
1
1
1
1
1
1
1
1
1
1
1
1
1
1
1
1
1
1
1
1
1
1
1
1
1
0.999995
1.94216
2.57761
2.6097
2.61656
2.62119
2.62466
2.62745
2.62953
2.63035
2.63057
2.63097
2.63205
2.63456
2.63846
2.64312
2.64735
2.64939
2.64929
2.64814
2.64595
2.6431
2.63989
2.63644
2.63261
2.62813
2.62278
2.61628
2.60831
2.5985
2.58669
2.57285
2.55673
2.53765
2.5144
2.48538
2.44825
2.40107
2.34354
2.28067
2.20454
1
1
1
1
1
1
1
1
1
1
1
1
1
1
1
1
1
1
1
1
1
1
1
1
1
1
1
1
1
1
1
1
1
1
1
1
1
1
1
1
1
1
1
1
1
1
1
1
1
1
1
1
1
1
1
0.999999
1.54338
2.47534
2.60855
2.61083
2.61431
2.6182
2.62111
2.6234
2.62466
2.62517
2.62541
2.62598
2.62772
2.63076
2.63458
2.63844
2.64067
2.64069
2.63973
2.6378
2.63513
2.63195
2.62832
2.62419
2.61937
2.61368
2.60692
2.59872
2.58862
2.57627
2.56158
2.54446
2.5245
2.50085
2.47198
2.43629
2.39217
2.33984
2.28304
2.21406
1
1
1
1
1
1
1
1
1
1
1
1
1
1
1
1
1
1
1
1
1
1
1
1
1
1
1
1
1
1
1
1
1
1
1
1
1
1
1
1
1
1
1
1
1
1
1
1
1
1
1
1
1
1
1
1
1.07893
2.32332
2.61009
2.60591
2.60785
2.61093
2.61379
2.61632
2.61827
2.61944
2.61975
2.62015
2.62135
2.62357
2.62645
2.62957
2.63161
2.63162
2.63077
2.62905
2.62649
2.62323
2.61941
2.61508
2.61012
2.60437
2.59757
2.58932
2.57909
2.56644
2.55124
2.53346
2.51292
2.48901
2.46044
2.42681
2.38549
2.33719
2.28607
2.22399
1
1
1
1
1
1
1
1
1
1
1
1
1
1
1
1
1
1
1
1
1
1
1
1
1
1
1
1
1
1
1
1
1
1
1
1
1
1
1
1
1
1
1
1
1
1
1
1
1
1
1
1
1
1
1
1
1.00143
2.14709
2.58058
2.59362
2.6011
2.60523
2.60661
2.60885
2.61126
2.613
2.61361
2.61395
2.61483
2.61646
2.61859
2.62094
2.62263
2.62261
2.62184
2.62025
2.61767
2.61416
2.60998
2.60534
2.60022
2.59446
2.58774
2.57956
2.5694
2.55677
2.54147
2.52345
2.50265
2.47862
2.45114
2.41878
2.37921
2.33678
2.2898
2.23338
1
1
1
1
1
1
1
1
1
1
1
1
1
1
1
1
1
1
1
1
1
1
1
1
1
1
1
1
1
1
1
1
1
1
1
1
1
1
1
1
1
1
1
1
1
1
1
1
1
1
1
1
1
1
1
1
0.999994
1.82071
2.52896
2.59199
2.59712
2.59901
2.6003
2.60223
2.60456
2.60649
2.60733
2.60758
2.60815
2.60914
2.61057
2.61223
2.61364
2.61378
2.61313
2.6116
2.60895
2.60517
2.60056
2.59552
2.59011
2.58421
2.57742
2.56926
2.55919
2.5468
2.5318
2.51398
2.49338
2.46953
2.44326
2.41134
2.3745
2.33688
2.2923
2.24151
1
1
1
1
1
1
1
1
1
1
1
1
1
1
1
1
1
1
1
1
1
1
1
1
1
1
1
1
1
1
1
1
1
1
1
1
1
1
1
1
1
1
1
1
1
1
1
1
1
1
1
1
1
1
1
1
0.999999
1.35397
2.41051
2.58748
2.58594
2.58925
2.59243
2.59482
2.59709
2.59901
2.60003
2.60047
2.60094
2.60145
2.60233
2.60349
2.60474
2.60525
2.60473
2.60325
2.60054
2.59655
2.59156
2.58606
2.58017
2.57383
2.56672
2.55841
2.54841
2.53638
2.52197
2.50476
2.48482
2.46118
2.43595
2.40517
2.3717
2.33662
2.29331
2.2488
1
1
1
1
1
1
1
1
1
1
1
1
1
1
1
1
1
1
1
1
1
1
1
1
1
1
1
1
1
1
1
1
1
1
1
1
1
1
1
1
1
1
1
1
1
1
1
1
1
1
1
1
1
1
1
1
1
1.02956
2.26787
2.58075
2.5782
2.58027
2.5836
2.58644
2.58886
2.59082
2.59205
2.59284
2.59326
2.59335
2.59376
2.59453
2.59569
2.59665
2.59639
2.5951
2.59245
2.58837
2.58314
2.57724
2.57077
2.5638
2.55614
2.54748
2.5374
2.52565
2.51185
2.49551
2.47639
2.45341
2.42935
2.39992
2.36919
2.33488
2.29459
2.25603
1
1
1
1
1
1
1
1
1
1
1
1
1
1
1
1
1
1
1
1
1
1
1
1
1
1
1
1
1
1
1
1
1
1
1
1
1
1
1
1
1
1
1
1
1
1
1
1
1
1
1
1
1
1
1
1
1
1.00015
1.99871
2.55076
2.56914
2.5739
2.57681
2.57893
2.5812
2.58311
2.58439
2.58527
2.58544
2.58522
2.58528
2.58568
2.58667
2.58799
2.58804
2.58704
2.58453
2.58046
2.57515
2.56894
2.56193
2.55424
2.54593
2.53684
2.5266
2.51496
2.50161
2.48608
2.46784
2.44641
2.42298
2.39485
2.36636
2.33335
2.298
2.26204
1
1
1
1
1
1
1
1
1
1
1
1
1
1
1
1
1
1
1
1
1
1
1
1
1
1
1
1
1
1
1
1
1
1
1
1
1
1
1
1
1
1
1
1
1
1
1
1
1
1
1
1
1
1
1
1
1
0.999999
1.54574
2.46272
2.56906
2.56686
2.56826
2.57072
2.57306
2.57505
2.57648
2.57741
2.5774
2.57697
2.57663
2.5768
2.57753
2.57895
2.57951
2.57878
2.57654
2.57265
2.5674
2.56102
2.55358
2.54532
2.53644
2.52693
2.51648
2.50477
2.49162
2.4765
2.45919
2.43948
2.4164
2.3901
2.36355
2.33295
2.30075
2.26541
1
1
1
1
1
1
1
1
1
1
1
1
1
1
1
1
1
1
1
1
1
1
1
1
1
1
1
1
1
1
1
1
1
1
1
1
1
1
1
1
1
1
1
1
1
1
1
1
1
1
1
1
1
1
1
1
1
1
1.07425
2.30171
2.57044
2.56217
2.56157
2.56272
2.56471
2.56701
2.56896
2.57007
2.56995
2.56924
2.56842
2.56826
2.56865
2.56986
2.57072
2.57022
2.56827
2.56469
2.55965
2.55324
2.54557
2.53694
2.52767
2.51783
2.50716
2.49533
2.48224
2.46714
2.45068
2.43204
2.40973
2.3859
2.36138
2.33226
2.30146
2.26778
1
1
1
1
1
1
1
1
1
1
1
1
1
1
1
1
1
1
1
1
1
1
1
1
1
1
1
1
1
1
1
1
1
1
1
1
1
1
1
1
1
1
1
1
1
1
1
1
1
1
1
1
1
1
1
1
1
1
1.00112
2.06123
2.53787
2.54649
2.55177
2.55523
2.55642
2.5591
2.56188
2.56344
2.56329
2.56233
2.56098
2.56013
2.56014
2.56085
2.56162
2.56126
2.55962
2.55651
2.55184
2.54552
2.53775
2.52895
2.51946
2.50939
2.49856
2.48661
2.4735
2.45839
2.44243
2.42409
2.40327
2.38215
2.35809
2.32984
2.30146
2.27119
1
1
1
1
1
1
1
1
1
1
1
1
1
1
1
1
1
1
1
1
1
1
1
1
1
1
1
1
1
1
1
1
1
1
1
1
1
1
1
1
1
1
1
1
1
1
1
1
1
1
1
1
1
1
1
1
1
1
0.999996
1.60112
2.45396
2.54827
2.54611
2.54729
2.54864
2.5514
2.55454
2.55646
2.55641
2.55545
2.55382
2.55233
2.55172
2.55198
2.55237
2.55204
2.55069
2.54807
2.54387
2.53777
2.53003
2.5212
2.5116
2.50138
2.49044
2.47843
2.46542
2.45045
2.4347
2.41672
2.3977
2.37745
2.35329
2.32766
2.30222
2.27485
1
1
1
1
1
1
1
1
1
1
1
1
1
1
1
1
1
1
1
1
1
1
1
1
1
1
1
1
1
1
1
1
1
1
1
1
1
1
1
1
1
1
1
1
1
1
1
1
1
1
1
1
1
1
1
1
1
1
0.999999
1.09116
2.29445
2.54912
2.54139
2.53985
2.54132
2.544
2.54715
2.54917
2.54925
2.54841
2.54665
2.54464
2.54332
2.54303
2.54297
2.54261
2.54157
2.53943
2.53567
2.52988
2.52225
2.51347
2.50382
2.49343
2.48245
2.47055
2.45774
2.44317
2.42789
2.41053
2.39221
2.37171
2.34938
2.32646
2.30235
2.27549
1
1
1
1
1
1
1
1
1
1
1
1
1
1
1
1
1
1
1
1
1
1
1
1
1
1
1
1
1
1
1
1
1
1
1
1
1
1
1
1
1
1
1
1
1
1
1
1
1
1
1
1
1
1
1
1
1
1
1
1.0017
2.04482
2.5147
2.52549
2.53179
2.53527
2.53743
2.53996
2.5417
2.54186
2.54114
2.53933
2.53687
2.53484
2.53383
2.53338
2.53303
2.53231
2.53059
2.52719
2.52178
2.51437
2.50574
2.4961
2.4856
2.47458
2.46283
2.45036
2.43662
2.42195
2.40512
2.38701
2.36739
2.34696
2.32469
2.30103
2.27486
1
1
1
1
1
1
1
1
1
1
1
1
1
1
1
1
1
1
1
1
1
1
1
1
1
1
1
1
1
1
1
1
1
1
1
1
1
1
1
1
1
1
1
1
1
1
1
1
1
1
1
1
1
1
1
1
1
1
1
0.999995
1.54878
2.42385
2.52668
2.52614
2.52792
2.52978
2.53175
2.53312
2.53338
2.53287
2.53122
2.52865
2.52615
2.52453
2.52373
2.52341
2.52291
2.52151
2.51842
2.51342
2.5063
2.49791
2.48826
2.47771
2.46673
2.45502
2.44309
2.43034
2.41608
2.40002
2.38284
2.36472
2.34467
2.32191
2.29892
2.27456
1
1
1
1
1
1
1
1
1
1
1
1
1
1
1
1
1
1
1
1
1
1
1
1
1
1
1
1
1
1
1
1
1
1
1
1
1
1
1
1
1
1
1
1
1
1
1
1
1
1
1
1
1
1
1
1
1
1
1
0.999999
1.07312
2.2626
2.5228
2.51936
2.52065
2.5219
2.52332
2.5244
2.52459
2.52418
2.52274
2.52025
2.51749
2.51537
2.51421
2.51385
2.51344
2.51228
2.50951
2.50493
2.49827
2.49009
2.48053
2.47009
2.45915
2.44744
2.43605
2.42391
2.41018
2.39528
2.37934
2.36209
2.34182
2.32001
2.29845
2.27535
1
1
1
1
1
1
1
1
1
1
1
1
1
1
1
1
1
1
1
1
1
1
1
1
1
1
1
1
1
1
1
1
1
1
1
1
1
1
1
1
1
1
1
1
1
1
1
1
1
1
1
1
1
1
1
1
1
1
1
1
1.00101
1.94568
2.48031
2.50786
2.51266
2.51473
2.51673
2.51712
2.51685
2.51601
2.51434
2.51187
2.50904
2.50665
2.50515
2.50451
2.50401
2.5029
2.50044
2.4963
2.49022
2.48225
2.4729
2.46263
2.45181
2.44023
2.4291
2.4171
2.40409
2.3903
2.37535
2.35852
2.33892
2.31923
2.29855
2.27627
1
1
1
1
1
1
1
1
1
1
1
1
1
1
1
1
1
1
1
1
1
1
1
1
1
1
1
1
1
1
1
1
1
1
1
1
1
1
1
1
1
1
1
1
1
1
1
1
1
1
1
1
1
1
1
1
1
1
1
1
0.999998
1.37299
2.36804
2.51323
2.50631
2.50737
2.50893
2.50922
2.50873
2.50759
2.50581
2.50352
2.50089
2.49845
2.4966
2.49558
2.4948
2.49356
2.49134
2.48766
2.48217
2.47462
2.46554
2.4555
2.44491
2.43363
2.42239
2.41033
2.39789
2.38477
2.37065
2.35449
2.33657
2.31849
2.2985
2.27705
1
1
1
1
1
1
1
1
1
1
1
1
1
1
1
1
1
1
1
1
1
1
1
1
1
1
1
1
1
1
1
1
1
1
1
1
1
1
1
1
1
1
1
1
1
1
1
1
1
1
1
1
1
1
1
1
1
1
1
1
0.999999
1.03054
2.20281
2.49353
2.49296
2.49675
2.49998
2.50069
2.50023
2.4992
2.49761
2.49561
2.4933
2.49094
2.48881
2.48728
2.48595
2.48437
2.48215
2.47879
2.47385
2.46691
2.45831
2.44855
2.4382
2.42727
2.41583
2.40378
2.39159
2.3788
2.3653
2.35003
2.33393
2.31691
2.2977
2.27744
1
1
1
1
1
1
1
1
1
1
1
1
1
1
1
1
1
1
1
1
1
1
1
1
1
1
1
1
1
1
1
1
1
1
1
1
1
1
1
1
1
1
1
1
1
1
1
1
1
1
1
1
1
1
1
1
1
1
1
1
1
1.00014
1.77477
2.43198
2.48397
2.49146
2.49299
2.49218
2.49152
2.49092
2.48989
2.48826
2.48622
2.4839
2.48155
2.47955
2.47761
2.47551
2.47302
2.46979
2.46532
2.45911
2.45116
2.4418
2.43168
2.42103
2.4096
2.39774
2.38557
2.37296
2.35979
2.34545
2.33071
2.31451
2.29654
2.27777
1
1
1
1
1
1
1
1
1
1
1
1
1
1
1
1
1
1
1
1
1
1
1
1
1
1
1
1
1
1
1
1
1
1
1
1
1
1
1
1
1
1
1
1
1
1
1
1
1
1
1
1
1
1
1
1
1
1
1
1
1
1
1.16204
2.28487
2.48918
2.48401
2.48339
2.48244
2.482
2.48193
2.48154
2.48047
2.47876
2.4765
2.47405
2.47173
2.46937
2.46685
2.46403
2.46076
2.45662
2.45111
2.44394
2.43515
2.42533
2.41479
2.40352
2.39196
2.37984
2.36741
2.35455
2.34092
2.32683
2.31136
2.2949
2.27754
1
1
1
1
1
1
1
1
1
1
1
1
1
1
1
1
1
1
1
1
1
1
1
1
1
1
1
1
1
1
1
1
1
1
1
1
1
1
1
1
1
1
1
1
1
1
1
1
1
1
1
1
1
1
1
1
1
1
1
1
1
1
1.00565
2.02443
2.45509
2.46525
2.47028
2.47208
2.47379
2.47427
2.4739
2.47284
2.47114
2.46887
2.46636
2.46389
2.46124
2.45835
2.45517
2.45178
2.44787
2.44297
2.43664
2.42861
2.4192
2.40873
2.39769
2.38639
2.37444
2.36225
2.34965
2.33638
2.32257
2.30783
2.2927
2.27674
1
1
1
1
1
1
1
1
1
1
1
1
1
1
1
1
1
1
1
1
1
1
1
1
1
1
1
1
1
1
1
1
1
1
1
1
1
1
1
1
1
1
1
1
1
1
1
1
1
1
1
1
1
1
1
1
1
1
1
1
1
1
0.999997
1.43723
2.34842
2.46947
2.46331
2.46381
2.46546
2.46608
2.46566
2.46456
2.46291
2.46077
2.45839
2.45584
2.45294
2.44979
2.44642
2.44296
2.43926
2.43488
2.42931
2.42212
2.41326
2.40302
2.39222
2.38103
2.36925
2.3573
2.34479
2.33167
2.31806
2.30401
2.28976
2.27482
1
1
1
1
1
1
1
1
1
1
1
1
1
1
1
1
1
1
1
1
1
1
1
1
1
1
1
1
1
1
1
1
1
1
1
1
1
1
1
1
1
1
1
1
1
1
1
1
1
1
1
1
1
1
1
1
1
1
1
1
1
1
0.999998
1.04281
2.17851
2.45328
2.45228
2.45483
2.45624
2.45693
2.4567
2.45591
2.45453
2.45264
2.45039
2.44778
2.44476
2.4414
2.43785
2.43433
2.43076
2.42675
2.42178
2.41535
2.40718
2.39748
2.38703
2.37592
2.36426
2.35237
2.33991
2.32691
2.31358
2.30007
2.2863
2.272
1
1
1
1
1
1
1
1
1
1
1
1
1
1
1
1
1
1
1
1
1
1
1
1
1
1
1
1
1
1
1
1
1
1
1
1
1
1
1
1
1
1
1
1
1
1
1
1
1
1
1
1
1
1
1
1
1
1
1
1
1
1
1
1.00031
1.71916
2.38107
2.44613
2.44942
2.44934
2.44887
2.44855
2.44796
2.44687
2.44523
2.44302
2.44024
2.43695
2.43333
2.42963
2.42608
2.42258
2.4188
2.41423
2.40835
2.40088
2.39195
2.38202
2.37105
2.35942
2.34748
2.33501
2.32216
2.30915
2.29603
2.28258
2.26877
1
1
1
1
1
1
1
1
1
1
1
1
1
1
1
1
1
1
1
1
1
1
1
1
1
1
1
1
1
1
1
1
1
1
1
1
1
1
1
1
1
1
1
1
1
1
1
1
1
1
1
1
1
1
1
1
1
1
1
1
1
1
1
1
1.13711
2.23244
2.44909
2.44293
2.44072
2.43971
2.43963
2.43947
2.43885
2.43751
2.43537
2.43247
2.42902
2.42523
2.42142
2.4178
2.41429
2.41058
2.40619
2.40067
2.39385
2.3859
2.37678
2.36634
2.35486
2.34285
2.33041
2.31769
2.30496
2.29209
2.27891
2.26552
1
1
1
1
1
1
1
1
1
1
1
1
1
1
1
1
1
1
1
1
1
1
1
1
1
1
1
1
1
1
1
1
1
1
1
1
1
1
1
1
1
1
1
1
1
1
1
1
1
1
1
1
1
1
1
1
1
1
1
1
1
1
1
1
1.00374
1.89359
2.40143
2.42572
2.43005
2.43113
2.43204
2.43195
2.43151
2.43042
2.42837
2.42534
2.42161
2.41763
2.41374
2.41003
2.40638
2.40252
2.39808
2.3927
2.38644
2.37939
2.37114
2.36128
2.35013
2.33831
2.3261
2.31359
2.30105
2.28837
2.2754
2.26242
1
1
1
1
1
1
1
1
1
1
1
1
1
1
1
1
1
1
1
1
1
1
1
1
1
1
1
1
1
1
1
1
1
1
1
1
1
1
1
1
1
1
1
1
1
1
1
1
1
1
1
1
1
1
1
1
1
1
1
1
1
1
1
1
1
1.24364
2.25974
2.43246
2.42441
2.42438
2.42483
2.42445
2.42375
2.42264
2.42069
2.41767
2.41389
2.40993
2.40603
2.40218
2.39827