/*--------------------------------*- C++ -*----------------------------------*\
  =========                 |
  \\      /  F ield         | OpenFOAM: The Open Source CFD Toolbox
   \\    /   O peration     | Website:  https://openfoam.org
    \\  /    A nd           | Version:  7
     \\/     M anipulation  |
\*---------------------------------------------------------------------------*/
FoamFile
{
    version     2.0;
    format      ascii;
    class       volVectorField;
    location    "1.5";
    object      U;
}
// * * * * * * * * * * * * * * * * * * * * * * * * * * * * * * * * * * * * * //

dimensions      [0 1 -1 0 0 0 0];

internalField   nonuniform List<vector> 
64512
(
(3 1.86554e-17 0)
(3 1.15916e-17 0)
(3 2.72265e-17 0)
(3 3.4329e-16 0)
(3 1.94281e-16 0)
(3 2.9333e-16 0)
(3 5.19929e-16 0)
(3 -6.03566e-16 0)
(3 -7.06784e-16 0)
(3 -5.57587e-16 0)
(3 -2.75542e-16 0)
(3 -1.66555e-16 0)
(3 1.06496e-16 0)
(3 7.19863e-16 0)
(3 1.36225e-15 0)
(3 2.00392e-15 0)
(3 2.14045e-15 0)
(3 9.15503e-16 0)
(3 6.70515e-16 0)
(3 -3.94551e-16 0)
(3 -1.38994e-15 0)
(3 -6.86156e-16 0)
(3 -5.41454e-16 0)
(3 -5.272e-16 0)
(3 -6.76976e-16 0)
(3 -6.75088e-16 0)
(3 -6.97471e-17 0)
(3 4.47135e-16 0)
(3 4.27019e-16 0)
(3 4.7412e-16 0)
(3 7.12129e-16 0)
(3 4.18793e-16 0)
(3 1.64233e-16 0)
(3 8.53443e-17 0)
(3 -2.49645e-16 0)
(3 -2.51738e-16 0)
(3 -1.36093e-16 0)
(3 3.27314e-16 0)
(3 8.79396e-16 0)
(3 7.84109e-16 0)
(3 5.15633e-16 0)
(3 2.56534e-16 0)
(3 -6.25763e-16 0)
(3 -5.24754e-16 0)
(3 -2.41671e-16 0)
(3 -8.01235e-17 0)
(3 1.62985e-16 0)
(3 4.11271e-16 0)
(3 -1.63395e-16 0)
(3 -9.1761e-16 0)
(3 -7.46456e-16 0)
(1.74228 0.00275803 0)
(0.787408 0.00158035 0)
(0.734897 0.00758061 0)
(0.718374 0.00854235 0)
(0.699801 0.00892225 0)
(0.68261 0.00838843 0)
(0.666461 0.00719075 0)
(0.651184 0.00595937 0)
(0.635977 0.00550863 0)
(0.620518 0.00583048 0)
(0.604866 0.00681348 0)
(0.587984 0.00825242 0)
(0.569112 0.00926968 0)
(0.548985 0.0088747 0)
(0.530465 0.00727102 0)
(0.514723 0.00610157 0)
(0.500621 0.00598567 0)
(0.48642 0.00658947 0)
(0.471167 0.00729781 0)
(0.45556 0.00738123 0)
(0.440625 0.00697681 0)
(0.426522 0.006662 0)
(0.412542 0.00682989 0)
(0.397925 0.0071545 0)
(0.382235 0.00761589 0)
(0.364608 0.0082959 0)
(0.345819 0.00878387 0)
(0.326703 0.00872545 0)
(0.308766 0.00830689 0)
(0.291935 0.00803477 0)
(0.275093 0.00805725 0)
(0.258647 0.00823898 0)
(0.242032 0.00841533 0)
(0.22467 0.0085305 0)
(0.206999 0.00859607 0)
(0.189007 0.00869848 0)
(0.17058 0.00886147 0)
(0.151672 0.00912098 0)
(0.132353 0.00948641 0)
(0.113852 0.00991422 0)
(0.0953285 0.0102688 0)
(0.0762603 0.010546 0)
(0.0558938 0.0107329 0)
(0.0346021 0.0107231 0)
(0.0120348 0.0107798 0)
(3 2.07312e-16 0)
(3 2.15344e-16 0)
(3 2.1431e-16 0)
(3 2.46614e-16 0)
(3 4.99427e-16 0)
(3 6.34415e-16 0)
(3 6.26441e-16 0)
(3 -3.8724e-16 0)
(3 -4.07148e-16 0)
(3 -3.71966e-16 0)
(3 -2.07721e-16 0)
(3 -3.49176e-16 0)
(3 4.80734e-16 0)
(3 1.30474e-15 0)
(3 2.06974e-15 0)
(3 3.20178e-15 0)
(3 3.41983e-15 0)
(3 1.637e-15 0)
(3 -4.64506e-16 0)
(3 -1.26416e-15 0)
(3 -2.24775e-15 0)
(3 -1.26253e-15 0)
(3 3.34634e-16 0)
(3 6.21306e-16 0)
(3 2.84994e-16 0)
(3 2.50646e-16 0)
(3 9.68353e-16 0)
(3 1.39308e-15 0)
(3 7.82661e-16 0)
(3 6.68768e-16 0)
(3 7.93065e-16 0)
(3 6.03056e-16 0)
(3 -3.46735e-16 0)
(3 -8.39762e-16 0)
(3 -1.05836e-15 0)
(3 -6.26106e-16 0)
(3 -5.30495e-16 0)
(3 -2.82224e-16 0)
(3 -4.59037e-16 0)
(3 -2.80349e-16 0)
(3 -1.0782e-16 0)
(3 -8.39715e-16 0)
(3 -2.00937e-15 0)
(3 -1.87444e-15 0)
(3 -1.12671e-15 0)
(3 -4.35283e-16 0)
(3 1.58473e-16 0)
(3 6.9887e-16 0)
(3 6.05926e-16 0)
(3 -1.27968e-15 0)
(3 8.73817e-16 0)
(1.75027 0.0147941 0)
(0.78362 0.00986018 0)
(0.73035 0.0202907 0)
(0.715031 0.0241634 0)
(0.697285 0.0257206 0)
(0.680652 0.0246751 0)
(0.664826 0.0215696 0)
(0.649463 0.0182156 0)
(0.63366 0.0167975 0)
(0.617418 0.0175922 0)
(0.600889 0.0202196 0)
(0.583389 0.0239872 0)
(0.564365 0.026322 0)
(0.544777 0.0250075 0)
(0.527099 0.0208416 0)
(0.511704 0.0177658 0)
(0.497751 0.0175312 0)
(0.483888 0.0193165 0)
(0.469031 0.021397 0)
(0.453636 0.0217806 0)
(0.438617 0.0208613 0)
(0.424037 0.0201412 0)
(0.40948 0.0206337 0)
(0.394371 0.0214426 0)
(0.378379 0.0225329 0)
(0.360742 0.0243611 0)
(0.342174 0.025792 0)
(0.323388 0.0257869 0)
(0.305802 0.0248344 0)
(0.289135 0.0242167 0)
(0.272367 0.0242972 0)
(0.255896 0.0246983 0)
(0.239148 0.0250518 0)
(0.221797 0.0253411 0)
(0.204228 0.0256175 0)
(0.186485 0.0260454 0)
(0.168486 0.0265948 0)
(0.150176 0.0274022 0)
(0.131317 0.028428 0)
(0.113127 0.0295397 0)
(0.0947228 0.030534 0)
(0.075692 0.0314277 0)
(0.0554195 0.0322556 0)
(0.0342277 0.0326823 0)
(0.0117935 0.03314 0)
(3 -5.68847e-17 0)
(3 -5.76638e-17 0)
(3 -1.38882e-16 0)
(3 -1.68954e-16 0)
(3 1.01354e-16 0)
(3 1.46885e-17 0)
(3 -1.41581e-16 0)
(3 1.4069e-16 0)
(3 3.14045e-17 0)
(3 -1.88071e-17 0)
(3 6.51577e-17 0)
(3 1.68621e-16 0)
(3 3.19009e-16 0)
(3 6.65764e-16 0)
(3 1.08092e-15 0)
(3 1.45148e-15 0)
(3 1.10041e-15 0)
(3 9.03859e-16 0)
(3 1.41719e-16 0)
(3 -3.63911e-16 0)
(3 -5.56076e-16 0)
(3 -5.91149e-16 0)
(3 -4.31916e-16 0)
(3 -4.02985e-16 0)
(3 -3.08276e-16 0)
(3 -5.54743e-16 0)
(3 -6.00822e-16 0)
(3 -5.1585e-16 0)
(3 -7.20749e-16 0)
(3 -7.5251e-16 0)
(3 -5.6104e-16 0)
(3 -7.07813e-16 0)
(3 -7.75704e-16 0)
(3 -9.91329e-16 0)
(3 -7.44722e-16 0)
(3 -3.13975e-16 0)
(3 -3.57779e-16 0)
(3 -5.71065e-16 0)
(3 -1.67769e-17 0)
(3 5.43645e-16 0)
(3 7.4822e-16 0)
(3 4.4807e-16 0)
(3 -7.2394e-16 0)
(3 -1.25468e-15 0)
(3 -1.09426e-15 0)
(3 -9.26685e-16 0)
(3 -3.61834e-16 0)
(3 2.95931e-16 0)
(3 4.528e-16 0)
(3 -4.34587e-16 0)
(3 -1.02401e-15 0)
(1.77509 0.028272 0)
(0.783826 0.0193167 0)
(0.729059 0.0331038 0)
(0.714529 0.0395347 0)
(0.697366 0.0420471 0)
(0.681377 0.0404578 0)
(0.666214 0.0359403 0)
(0.650914 0.0312264 0)
(0.634368 0.0293904 0)
(0.617043 0.0309803 0)
(0.599298 0.0353764 0)
(0.580846 0.0409883 0)
(0.561353 0.0435938 0)
(0.542216 0.0407146 0)
(0.525375 0.0342104 0)
(0.510227 0.0295927 0)
(0.496285 0.0293584 0)
(0.482755 0.0322963 0)
(0.468353 0.0355556 0)
(0.453283 0.0361847 0)
(0.438335 0.034917 0)
(0.423319 0.0340608 0)
(0.4081 0.0351509 0)
(0.392255 0.0366499 0)
(0.375614 0.0383091 0)
(0.357631 0.0408932 0)
(0.33898 0.042767 0)
(0.320228 0.0424611 0)
(0.302702 0.0409581 0)
(0.28594 0.0402157 0)
(0.269245 0.0406299 0)
(0.252643 0.0413265 0)
(0.235644 0.041761 0)
(0.218204 0.0420384 0)
(0.200603 0.0423771 0)
(0.182953 0.0430878 0)
(0.165236 0.0440715 0)
(0.147455 0.0454887 0)
(0.12901 0.04713 0)
(0.111144 0.0487716 0)
(0.0930269 0.0503634 0)
(0.0743126 0.0518218 0)
(0.0544724 0.0532973 0)
(0.033658 0.0541874 0)
(0.0113943 0.0551456 0)
(3 -1.84645e-16 0)
(3 -5.05993e-17 0)
(3 8.00493e-17 0)
(3 5.47245e-16 0)
(3 3.97259e-16 0)
(3 -1.9891e-17 0)
(3 1.29824e-16 0)
(3 4.48407e-17 0)
(3 -2.24101e-16 0)
(3 -3.56724e-16 0)
(3 -1.05187e-16 0)
(3 7.21735e-16 0)
(3 4.14241e-16 0)
(3 2.52433e-16 0)
(3 -3.06545e-17 0)
(3 -3.22006e-17 0)
(3 7.52924e-17 0)
(3 -4.07212e-16 0)
(3 -2.15825e-16 0)
(3 4.80517e-16 0)
(3 1.30018e-15 0)
(3 1.32601e-15 0)
(3 3.9105e-16 0)
(3 -4.43581e-16 0)
(3 -5.66847e-16 0)
(3 -8.47341e-16 0)
(3 -1.99901e-15 0)
(3 -2.31961e-15 0)
(3 -1.3502e-15 0)
(3 -1.82753e-15 0)
(3 -1.71496e-15 0)
(3 -1.18957e-15 0)
(3 -5.30804e-16 0)
(3 -1.53373e-16 0)
(3 -1.35718e-16 0)
(3 -5.71142e-16 0)
(3 -1.09556e-15 0)
(3 -5.88602e-16 0)
(3 -1.82756e-16 0)
(3 -5.24176e-17 0)
(3 4.09031e-16 0)
(3 3.51642e-16 0)
(3 2.40355e-16 0)
(3 3.2556e-16 0)
(3 3.68818e-16 0)
(3 1.69107e-16 0)
(3 2.38928e-16 0)
(3 6.81515e-16 0)
(3 7.69375e-16 0)
(3 4.73623e-16 0)
(3 -2.32605e-15 0)
(1.81781 0.0421306 0)
(0.787618 0.0296562 0)
(0.729112 0.04568 0)
(0.714966 0.0543051 0)
(0.698611 0.0572962 0)
(0.683946 0.054954 0)
(0.669951 0.0495407 0)
(0.654815 0.0443415 0)
(0.637531 0.0428084 0)
(0.619035 0.0455875 0)
(0.600079 0.0518198 0)
(0.580815 0.0587329 0)
(0.561166 0.0605395 0)
(0.542895 0.0556618 0)
(0.526956 0.0471453 0)
(0.511957 0.0413672 0)
(0.497852 0.0412067 0)
(0.484489 0.0451809 0)
(0.470373 0.0495239 0)
(0.455492 0.0504413 0)
(0.440564 0.0490189 0)
(0.425128 0.0483095 0)
(0.40929 0.0502492 0)
(0.392719 0.0526971 0)
(0.375347 0.0550027 0)
(0.356908 0.0581144 0)
(0.338069 0.06006 0)
(0.319289 0.0592147 0)
(0.301704 0.057196 0)
(0.284688 0.056498 0)
(0.267831 0.0573794 0)
(0.250876 0.0584442 0)
(0.233424 0.0588713 0)
(0.215698 0.0590322 0)
(0.197893 0.0593363 0)
(0.180165 0.0602696 0)
(0.162518 0.061662 0)
(0.144986 0.0635755 0)
(0.126677 0.0656786 0)
(0.108923 0.0676916 0)
(0.0909878 0.0697063 0)
(0.0726127 0.071702 0)
(0.0532916 0.0738753 0)
(0.0329496 0.0752774 0)
(0.0109229 0.0768174 0)
(3 4.78431e-16 0)
(3 4.54563e-16 0)
(3 9.21822e-16 0)
(3 1.33206e-15 0)
(3 1.10295e-15 0)
(3 6.86542e-16 0)
(3 3.32049e-16 0)
(3 1.1455e-17 0)
(3 -3.55379e-17 0)
(3 -3.61653e-16 0)
(3 -5.82671e-16 0)
(3 -1.27656e-16 0)
(3 5.29118e-16 0)
(3 6.49444e-16 0)
(3 7.04047e-16 0)
(3 5.02617e-16 0)
(3 3.09398e-16 0)
(3 5.20639e-16 0)
(3 2.06659e-16 0)
(3 -2.27629e-16 0)
(3 -2.9032e-16 0)
(3 -3.27665e-16 0)
(3 -7.13639e-16 0)
(3 -1.02004e-15 0)
(3 -1.2579e-15 0)
(3 -1.95884e-15 0)
(3 -2.46198e-15 0)
(3 -1.80287e-15 0)
(3 -1.52906e-15 0)
(3 -1.64565e-15 0)
(3 -1.671e-15 0)
(3 -1.70243e-15 0)
(3 -1.75713e-15 0)
(3 -8.05506e-16 0)
(3 -1.59902e-16 0)
(3 1.01169e-17 0)
(3 -7.58669e-16 0)
(3 -5.23604e-16 0)
(3 4.17078e-17 0)
(3 2.38523e-16 0)
(3 -1.26893e-17 0)
(3 -3.80878e-16 0)
(3 -4.24297e-16 0)
(3 -1.6152e-16 0)
(3 7.19113e-16 0)
(3 6.26479e-16 0)
(3 2.06995e-16 0)
(3 -2.76383e-17 0)
(3 -5.04902e-18 0)
(3 -8.3733e-17 0)
(3 2.08499e-15 0)
(1.87841 0.054158 0)
(0.793813 0.0401515 0)
(0.728041 0.060021 0)
(0.711517 0.0696478 0)
(0.6949 0.0715932 0)
(0.681588 0.0681077 0)
(0.669195 0.062508 0)
(0.654912 0.0576996 0)
(0.637732 0.0570697 0)
(0.618873 0.0613993 0)
(0.599357 0.0692785 0)
(0.579995 0.0763851 0)
(0.561249 0.0764668 0)
(0.54483 0.0695382 0)
(0.530332 0.059515 0)
(0.515814 0.0529309 0)
(0.501627 0.0529251 0)
(0.488275 0.0578867 0)
(0.47418 0.0632742 0)
(0.459229 0.0646254 0)
(0.444182 0.0632372 0)
(0.428355 0.0628672 0)
(0.411989 0.06578 0)
(0.394817 0.0693372 0)
(0.376792 0.072352 0)
(0.357978 0.0758118 0)
(0.339066 0.0775517 0)
(0.320459 0.0760241 0)
(0.302916 0.0735418 0)
(0.285627 0.0730015 0)
(0.268356 0.0744559 0)
(0.250884 0.07597 0)
(0.232991 0.0764477 0)
(0.214934 0.0764696 0)
(0.196909 0.0767395 0)
(0.179023 0.07786 0)
(0.161229 0.0796286 0)
(0.143494 0.081907 0)
(0.125028 0.0842755 0)
(0.10698 0.0863967 0)
(0.0890964 0.0887312 0)
(0.071045 0.0911399 0)
(0.0522545 0.0939565 0)
(0.0323945 0.095889 0)
(0.0105374 0.0981109 0)
(3 -1.75387e-17 0)
(3 1.77763e-16 0)
(3 1.92396e-17 0)
(3 3.73996e-17 0)
(3 -4.72273e-17 0)
(3 -9.04287e-17 0)
(3 -2.45842e-16 0)
(3 2.26454e-17 0)
(3 -2.98836e-16 0)
(3 -5.98661e-16 0)
(3 -1.19547e-15 0)
(3 -9.93091e-16 0)
(3 -5.17438e-16 0)
(3 -8.40143e-18 0)
(3 2.60459e-16 0)
(3 2.7483e-16 0)
(3 5.22345e-16 0)
(3 8.07139e-16 0)
(3 6.11477e-16 0)
(3 2.60504e-16 0)
(3 1.47368e-16 0)
(3 -6.85206e-16 0)
(3 -8.8613e-16 0)
(3 -1.18348e-15 0)
(3 -1.80961e-15 0)
(3 -2.80117e-15 0)
(3 -2.3274e-15 0)
(3 -2.13773e-15 0)
(3 -2.0996e-15 0)
(3 -1.75641e-15 0)
(3 -1.2045e-15 0)
(3 -1.20843e-15 0)
(3 -1.69555e-15 0)
(3 -1.55249e-15 0)
(3 -1.01957e-15 0)
(3 -7.56248e-16 0)
(3 -2.86257e-16 0)
(3 -3.63651e-16 0)
(3 5.06485e-16 0)
(3 1.50672e-15 0)
(3 5.77863e-16 0)
(3 -4.18357e-16 0)
(3 -6.22732e-16 0)
(3 -1.90232e-16 0)
(3 1.75006e-16 0)
(3 1.25867e-16 0)
(3 -4.60947e-16 0)
(3 -1.28301e-15 0)
(3 -9.46219e-16 0)
(3 -5.79903e-16 0)
(3 -1.17344e-15 0)
(1.95325 0.0648777 0)
(0.801181 0.0531609 0)
(0.725077 0.0776119 0)
(0.7065 0.0852628 0)
(0.691815 0.084531 0)
(0.681993 0.079412 0)
(0.671446 0.0737951 0)
(0.657445 0.0702684 0)
(0.639641 0.0715023 0)
(0.619414 0.0779241 0)
(0.598685 0.0871658 0)
(0.579156 0.0931634 0)
(0.562139 0.0907784 0)
(0.548228 0.082078 0)
(0.535386 0.0710978 0)
(0.521355 0.0642071 0)
(0.506907 0.0646069 0)
(0.493084 0.0706365 0)
(0.478436 0.0771908 0)
(0.462918 0.0791882 0)
(0.447428 0.0780214 0)
(0.431135 0.0780716 0)
(0.41429 0.0818898 0)
(0.396648 0.0865227 0)
(0.378098 0.0902145 0)
(0.359048 0.0938757 0)
(0.340258 0.0952373 0)
(0.322141 0.0929731 0)
(0.304889 0.0900591 0)
(0.287483 0.0896973 0)
(0.269834 0.0917735 0)
(0.251827 0.0938266 0)
(0.2335 0.0944589 0)
(0.215232 0.0944061 0)
(0.19717 0.0946599 0)
(0.179244 0.0959365 0)
(0.161243 0.0980192 0)
(0.143033 0.100544 0)
(0.124102 0.103026 0)
(0.105463 0.105132 0)
(0.0874833 0.107544 0)
(0.0697246 0.11028 0)
(0.0514512 0.113657 0)
(0.0320481 0.11609 0)
(0.0102958 0.119007 0)
(3 -2.41275e-16 0)
(3 -2.55829e-16 0)
(3 -5.3503e-16 0)
(3 -5.35399e-16 0)
(3 -6.07412e-16 0)
(3 -4.06331e-16 0)
(3 -4.09768e-16 0)
(3 -4.04434e-16 0)
(3 -6.29981e-16 0)
(3 -7.43308e-16 0)
(3 -7.55031e-16 0)
(3 -8.11307e-16 0)
(3 -7.63706e-16 0)
(3 1.98985e-16 0)
(3 -3.00906e-16 0)
(3 -8.27157e-16 0)
(3 2.71091e-16 0)
(3 2.25655e-16 0)
(3 4.03644e-16 0)
(3 5.41427e-16 0)
(3 4.76707e-16 0)
(3 4.78163e-16 0)
(3 6.68645e-16 0)
(3 2.34333e-17 0)
(3 -1.3832e-15 0)
(3 -1.61294e-15 0)
(3 -1.27398e-15 0)
(3 -1.32267e-15 0)
(3 -1.48029e-15 0)
(3 -6.77376e-16 0)
(3 1.9799e-17 0)
(3 -2.78119e-16 0)
(3 -9.14581e-17 0)
(3 -3.44091e-16 0)
(3 -3.4047e-16 0)
(3 -4.16085e-16 0)
(3 -8.964e-17 0)
(3 1.18446e-16 0)
(3 2.29215e-16 0)
(3 1.03197e-15 0)
(3 2.91874e-16 0)
(3 5.25846e-17 0)
(3 -1.56148e-16 0)
(3 1.88218e-16 0)
(3 1.67532e-16 0)
(3 -3.56874e-16 0)
(3 -4.09736e-16 0)
(3 5.00741e-17 0)
(3 -6.16316e-17 0)
(3 -2.52961e-16 0)
(3 -1.38104e-15 0)
(2.04115 0.0754991 0)
(0.811246 0.0697986 0)
(0.723622 0.0967526 0)
(0.705914 0.099683 0)
(0.695152 0.0949667 0)
(0.686496 0.088667 0)
(0.675113 0.0845658 0)
(0.659731 0.0836144 0)
(0.640157 0.0875842 0)
(0.618077 0.0959348 0)
(0.596772 0.104765 0)
(0.57863 0.10783 0)
(0.56485 0.102947 0)
(0.553502 0.0931055 0)
(0.541654 0.0821236 0)
(0.527618 0.0757408 0)
(0.512512 0.0769535 0)
(0.497691 0.0841062 0)
(0.482026 0.0917576 0)
(0.465658 0.0943873 0)
(0.449575 0.0934865 0)
(0.432855 0.0939325 0)
(0.415718 0.0984834 0)
(0.397893 0.104037 0)
(0.379144 0.108316 0)
(0.360154 0.112037 0)
(0.341741 0.112912 0)
(0.324335 0.109941 0)
(0.307495 0.106663 0)
(0.290048 0.106488 0)
(0.272015 0.109207 0)
(0.253415 0.111904 0)
(0.234618 0.112848 0)
(0.216177 0.11286 0)
(0.198202 0.113134 0)
(0.180405 0.114522 0)
(0.162254 0.116797 0)
(0.143472 0.119414 0)
(0.12382 0.121928 0)
(0.104485 0.123986 0)
(0.0863013 0.126469 0)
(0.0687766 0.129371 0)
(0.0509824 0.133245 0)
(0.0319691 0.136015 0)
(0.0102493 0.13953 0)
(3 1.52303e-16 0)
(3 1.16147e-16 0)
(3 6.74271e-17 0)
(3 6.70371e-17 0)
(3 4.58271e-16 0)
(3 -1.53787e-17 0)
(3 -1.60639e-16 0)
(3 -4.06614e-16 0)
(3 -3.43038e-16 0)
(3 1.64353e-16 0)
(3 2.60112e-16 0)
(3 -4.53781e-16 0)
(3 -1.57609e-16 0)
(3 -4.7202e-16 0)
(3 -6.13913e-16 0)
(3 -6.66623e-16 0)
(3 -3.68745e-16 0)
(3 -1.73067e-16 0)
(3 2.9298e-16 0)
(3 6.20969e-16 0)
(3 9.57285e-16 0)
(3 6.25172e-16 0)
(3 3.75845e-17 0)
(3 -4.62547e-16 0)
(3 -4.81239e-16 0)
(3 3.43436e-16 0)
(3 3.24413e-16 0)
(3 3.16129e-17 0)
(3 4.11172e-16 0)
(3 3.49385e-16 0)
(3 -2.19598e-16 0)
(3 3.13678e-16 0)
(3 6.29533e-16 0)
(3 5.13914e-16 0)
(3 1.22051e-15 0)
(3 1.32143e-15 0)
(3 1.15654e-15 0)
(3 4.43593e-16 0)
(3 -2.04265e-16 0)
(3 -6.43267e-16 0)
(3 -7.08424e-16 0)
(3 -2.846e-16 0)
(3 -1.08302e-16 0)
(3 -4.10471e-16 0)
(3 -5.45675e-16 0)
(3 -1.0093e-15 0)
(3 -8.03288e-16 0)
(3 -4.30053e-16 0)
(3 -4.51173e-16 0)
(3 -9.1582e-16 0)
(3 -3.11864e-15 0)
(2.14299 0.0857324 0)
(0.825855 0.0899091 0)
(0.724613 0.113529 0)
(0.712158 0.109711 0)
(0.702183 0.103611 0)
(0.691249 0.0992972 0)
(0.676965 0.0979105 0)
(0.658697 0.0996533 0)
(0.637096 0.105619 0)
(0.614786 0.113927 0)
(0.59572 0.119902 0)
(0.581539 0.119108 0)
(0.57079 0.112528 0)
(0.560238 0.103065 0)
(0.548219 0.093402 0)
(0.533659 0.0882578 0)
(0.517683 0.0904949 0)
(0.501766 0.0986303 0)
(0.485081 0.107079 0)
(0.467938 0.110126 0)
(0.451293 0.109435 0)
(0.434182 0.110223 0)
(0.416863 0.115357 0)
(0.399039 0.121684 0)
(0.380337 0.126459 0)
(0.361591 0.130094 0)
(0.34363 0.130423 0)
(0.326842 0.126868 0)
(0.310277 0.123355 0)
(0.292714 0.123388 0)
(0.274283 0.126739 0)
(0.255126 0.130166 0)
(0.235915 0.131565 0)
(0.217367 0.131792 0)
(0.199564 0.132129 0)
(0.182015 0.133583 0)
(0.163753 0.13591 0)
(0.144402 0.138423 0)
(0.123911 0.140968 0)
(0.10386 0.143017 0)
(0.0853691 0.145611 0)
(0.0679997 0.14867 0)
(0.0506021 0.152877 0)
(0.0319528 0.155775 0)
(0.0103248 0.15971 0)
(3 1.029e-16 0)
(3 2.12825e-16 0)
(3 7.05562e-17 0)
(3 -1.72058e-16 0)
(3 7.68754e-17 0)
(3 1.5705e-16 0)
(3 4.40182e-16 0)
(3 1.62526e-16 0)
(3 -2.09296e-16 0)
(3 2.8521e-16 0)
(3 4.42672e-16 0)
(3 -1.08081e-16 0)
(3 -6.36234e-16 0)
(3 -1.28618e-15 0)
(3 -8.25644e-16 0)
(3 -3.82478e-16 0)
(3 -1.06717e-15 0)
(3 -1.1658e-15 0)
(3 -8.26978e-16 0)
(3 -3.27005e-16 0)
(3 4.43725e-16 0)
(3 -1.45084e-16 0)
(3 -1.19958e-15 0)
(3 -6.41046e-16 0)
(3 9.43155e-16 0)
(3 1.80872e-15 0)
(3 1.53371e-15 0)
(3 7.54613e-16 0)
(3 1.11541e-15 0)
(3 1.04181e-15 0)
(3 2.76015e-16 0)
(3 3.81425e-16 0)
(3 -5.92611e-16 0)
(3 -9.03112e-18 0)
(3 9.39081e-16 0)
(3 1.07295e-15 0)
(3 1.01296e-15 0)
(3 -1.5021e-16 0)
(3 -1.14768e-15 0)
(3 -1.42592e-15 0)
(3 -7.32457e-16 0)
(3 -3.44688e-16 0)
(3 -3.42806e-16 0)
(3 -5.40797e-16 0)
(3 -9.39743e-16 0)
(3 -1.2836e-15 0)
(3 -1.4537e-15 0)
(3 -1.80311e-15 0)
(3 -1.30169e-15 0)
(3 -1.34163e-15 0)
(3 -1.8329e-15 0)
(2.25658 0.096435 0)
(0.843327 0.111537 0)
(0.73108 0.124266 0)
(0.720445 0.118434 0)
(0.70763 0.114826 0)
(0.693199 0.113198 0)
(0.675663 0.114377 0)
(0.655386 0.118028 0)
(0.63379 0.124123 0)
(0.614421 0.129751 0)
(0.59991 0.130772 0)
(0.588958 0.126747 0)
(0.578499 0.120693 0)
(0.567212 0.11306 0)
(0.55421 0.105502 0)
(0.538807 0.102039 0)
(0.521938 0.105389 0)
(0.505125 0.114301 0)
(0.487706 0.123105 0)
(0.470076 0.126258 0)
(0.453052 0.125682 0)
(0.435648 0.126771 0)
(0.418245 0.132397 0)
(0.400551 0.139411 0)
(0.382055 0.144603 0)
(0.363625 0.148003 0)
(0.346081 0.147759 0)
(0.329713 0.143747 0)
(0.313246 0.140112 0)
(0.295521 0.140367 0)
(0.276778 0.144293 0)
(0.257236 0.148493 0)
(0.23775 0.150448 0)
(0.21915 0.151025 0)
(0.201507 0.151537 0)
(0.184141 0.15301 0)
(0.165903 0.155277 0)
(0.146079 0.157591 0)
(0.124836 0.160157 0)
(0.104144 0.162289 0)
(0.0852677 0.165065 0)
(0.0678285 0.168277 0)
(0.0505579 0.172708 0)
(0.032082 0.175504 0)
(0.0105277 0.179678 0)
(3 -1.33327e-16 0)
(3 -1.73965e-16 0)
(3 4.27355e-17 0)
(3 -6.37545e-17 0)
(3 -1.18713e-16 0)
(3 6.66469e-16 0)
(3 9.37368e-16 0)
(3 9.59384e-16 0)
(3 2.83548e-16 0)
(3 -1.55709e-16 0)
(3 2.0123e-16 0)
(3 6.26724e-16 0)
(3 6.81599e-16 0)
(3 4.05879e-16 0)
(3 3.60874e-16 0)
(3 -2.44802e-16 0)
(3 -7.64876e-16 0)
(3 -8.29046e-16 0)
(3 -6.79881e-16 0)
(3 -7.71408e-17 0)
(3 2.15609e-16 0)
(3 -2.23782e-16 0)
(3 -1.42107e-16 0)
(3 7.45575e-16 0)
(3 1.98735e-15 0)
(3 2.58048e-15 0)
(3 1.43614e-15 0)
(3 1.01083e-15 0)
(3 8.98172e-16 0)
(3 4.09536e-16 0)
(3 1.19109e-15 0)
(3 8.56436e-16 0)
(3 -8.72423e-16 0)
(3 -1.15876e-15 0)
(3 -1.04151e-15 0)
(3 -4.26288e-16 0)
(3 -7.06861e-17 0)
(3 -2.62417e-16 0)
(3 -8.88075e-16 0)
(3 -6.87185e-16 0)
(3 5.74964e-16 0)
(3 1.50951e-15 0)
(3 9.25653e-16 0)
(3 -2.73299e-16 0)
(3 -4.04142e-16 0)
(3 -1.84451e-16 0)
(3 -6.17359e-16 0)
(3 -8.43383e-16 0)
(3 -6.32426e-16 0)
(3 -3.37067e-16 0)
(3 -7.49536e-16 0)
(2.39002 0.104904 0)
(0.866987 0.129644 0)
(0.738941 0.132404 0)
(0.726919 0.128716 0)
(0.710862 0.128835 0)
(0.693082 0.13042 0)
(0.672866 0.133336 0)
(0.652409 0.136915 0)
(0.634249 0.140749 0)
(0.620053 0.141146 0)
(0.60906 0.13719 0)
(0.59819 0.133549 0)
(0.586456 0.129299 0)
(0.573502 0.123922 0)
(0.558976 0.118667 0)
(0.542584 0.116978 0)
(0.525001 0.121393 0)
(0.507707 0.130777 0)
(0.490065 0.139486 0)
(0.472399 0.142428 0)
(0.455279 0.141899 0)
(0.437702 0.14332 0)
(0.420238 0.14948 0)
(0.402663 0.157216 0)
(0.384362 0.16278 0)
(0.366196 0.1658 0)
(0.348988 0.164951 0)
(0.332859 0.160568 0)
(0.316368 0.156874 0)
(0.298524 0.157347 0)
(0.279659 0.161777 0)
(0.259999 0.166747 0)
(0.24042 0.169309 0)
(0.221813 0.170327 0)
(0.204251 0.171166 0)
(0.18694 0.17266 0)
(0.168675 0.174805 0)
(0.14849 0.176979 0)
(0.126652 0.179538 0)
(0.105408 0.181857 0)
(0.0860467 0.184901 0)
(0.0682357 0.188288 0)
(0.0507368 0.192894 0)
(0.032194 0.195417 0)
(0.0107451 0.199672 0)
(3 8.87758e-17 0)
(3 1.34944e-16 0)
(3 1.11781e-16 0)
(3 -1.84268e-18 0)
(3 2.03424e-16 0)
(3 3.08182e-17 0)
(3 4.23195e-17 0)
(3 4.17306e-16 0)
(3 4.94677e-16 0)
(3 3.29434e-16 0)
(3 5.74005e-17 0)
(3 5.61396e-16 0)
(3 5.31768e-16 0)
(3 3.0129e-16 0)
(3 1.24768e-16 0)
(3 -5.13676e-16 0)
(3 -6.14015e-16 0)
(3 1.01738e-16 0)
(3 3.48163e-16 0)
(3 -3.83531e-17 0)
(3 -6.41971e-16 0)
(3 -1.01538e-15 0)
(3 -5.92041e-16 0)
(3 2.86955e-16 0)
(3 8.93923e-16 0)
(3 9.51512e-16 0)
(3 3.62429e-16 0)
(3 -2.21185e-16 0)
(3 -6.7695e-17 0)
(3 -7.52843e-17 0)
(3 1.13947e-16 0)
(3 1.83257e-16 0)
(3 5.78207e-17 0)
(3 -2.40902e-16 0)
(3 -1.13274e-15 0)
(3 -9.18338e-16 0)
(3 -3.71626e-16 0)
(3 8.18325e-16 0)
(3 8.29187e-16 0)
(3 9.80427e-16 0)
(3 1.55058e-15 0)
(3 1.92195e-15 0)
(3 2.04454e-15 0)
(3 1.87108e-15 0)
(3 1.47688e-15 0)
(3 7.67442e-16 0)
(3 -1.70669e-16 0)
(3 -3.99246e-16 0)
(3 -4.86752e-16 0)
(3 6.25554e-16 0)
(3 -1.49095e-15 0)
(2.54026 0.103453 0)
(0.89689 0.142648 0)
(0.74344 0.143635 0)
(0.727482 0.14249 0)
(0.708019 0.145562 0)
(0.688889 0.148974 0)
(0.670476 0.151869 0)
(0.654732 0.153469 0)
(0.641945 0.152415 0)
(0.631118 0.148082 0)
(0.619801 0.144506 0)
(0.607203 0.142345 0)
(0.593254 0.139931 0)
(0.57816 0.136445 0)
(0.56203 0.133011 0)
(0.54488 0.13272 0)
(0.527041 0.137932 0)
(0.509783 0.14747 0)
(0.492301 0.155775 0)
(0.474792 0.158392 0)
(0.457591 0.157991 0)
(0.439765 0.159881 0)
(0.422097 0.166682 0)
(0.40454 0.175195 0)
(0.386424 0.181044 0)
(0.368645 0.183496 0)
(0.35196 0.181958 0)
(0.33621 0.177227 0)
(0.319786 0.17349 0)
(0.301931 0.17417 0)
(0.28307 0.179096 0)
(0.263402 0.18486 0)
(0.243715 0.188085 0)
(0.22494 0.18962 0)
(0.207173 0.190918 0)
(0.189618 0.192567 0)
(0.171118 0.194645 0)
(0.15065 0.196772 0)
(0.128435 0.19931 0)
(0.106829 0.201844 0)
(0.087 0.205158 0)
(0.0686519 0.20869 0)
(0.0507191 0.213435 0)
(0.0319787 0.215615 0)
(0.0108057 0.219883 0)
(3 -1.40071e-16 0)
(3 2.72326e-16 0)
(3 2.46283e-16 0)
(3 3.71725e-16 0)
(3 5.3648e-16 0)
(3 1.41879e-16 0)
(3 -1.38244e-16 0)
(3 -2.97896e-16 0)
(3 -6.21667e-17 0)
(3 -6.4757e-18 0)
(3 -3.66492e-16 0)
(3 -8.99223e-16 0)
(3 -1.1361e-15 0)
(3 -1.47475e-15 0)
(3 -1.48689e-15 0)
(3 -7.7867e-16 0)
(3 -7.62888e-16 0)
(3 -6.2453e-16 0)
(3 -5.78893e-16 0)
(3 -1.14581e-15 0)
(3 -1.3761e-15 0)
(3 -6.56428e-16 0)
(3 -6.41605e-17 0)
(3 -1.6067e-16 0)
(3 -3.29072e-16 0)
(3 -5.86853e-16 0)
(3 4.52058e-16 0)
(3 6.68836e-16 0)
(3 5.88752e-16 0)
(3 6.03052e-16 0)
(3 -2.7727e-16 0)
(3 -1.24946e-15 0)
(3 -1.07093e-15 0)
(3 -4.66728e-16 0)
(3 -4.45005e-16 0)
(3 -2.12864e-16 0)
(3 7.7641e-16 0)
(3 1.37805e-15 0)
(3 1.75525e-15 0)
(3 1.42768e-15 0)
(3 1.21108e-15 0)
(3 1.19128e-15 0)
(3 1.8052e-15 0)
(3 1.62124e-15 0)
(3 1.15981e-15 0)
(3 7.27306e-16 0)
(3 4.09573e-16 0)
(3 8.90083e-16 0)
(3 -3.60367e-16 0)
(3 6.93706e-17 0)
(3 -6.92053e-16 0)
(2.68429 0.0957852 0)
(0.930803 0.158312 0)
(0.742263 0.156822 0)
(0.724479 0.158404 0)
(0.705766 0.163057 0)
(0.689875 0.165967 0)
(0.676227 0.166467 0)
(0.664673 0.163986 0)
(0.65392 0.160704 0)
(0.642652 0.157145 0)
(0.629477 0.154993 0)
(0.614399 0.154384 0)
(0.597904 0.153194 0)
(0.580893 0.150616 0)
(0.563693 0.148181 0)
(0.546367 0.148728 0)
(0.528779 0.154436 0)
(0.511865 0.163921 0)
(0.494661 0.171735 0)
(0.477348 0.174101 0)
(0.460126 0.173961 0)
(0.442192 0.176435 0)
(0.424453 0.183912 0)
(0.407015 0.193129 0)
(0.389144 0.199078 0)
(0.371814 0.200784 0)
(0.355643 0.198546 0)
(0.340145 0.19361 0)
(0.32359 0.189969 0)
(0.305555 0.190937 0)
(0.286576 0.19644 0)
(0.266873 0.203054 0)
(0.24706 0.206971 0)
(0.228081 0.209026 0)
(0.210028 0.210797 0)
(0.19215 0.212724 0)
(0.1734 0.214823 0)
(0.152853 0.217011 0)
(0.130583 0.219543 0)
(0.108849 0.222254 0)
(0.0885803 0.225776 0)
(0.0695349 0.229402 0)
(0.0509323 0.234263 0)
(0.0317305 0.236152 0)
(0.0107636 0.24043 0)
(3 -4.69762e-16 0)
(3 3.37636e-17 0)
(3 2.81333e-16 0)
(3 8.70396e-16 0)
(3 5.34367e-16 0)
(3 7.97727e-16 0)
(3 7.52506e-16 0)
(3 5.03011e-16 0)
(3 -1.55019e-16 0)
(3 -1.32834e-15 0)
(3 -2.52853e-15 0)
(3 -2.66947e-15 0)
(3 -2.25977e-15 0)
(3 -1.66152e-15 0)
(3 -1.44893e-15 0)
(3 -1.29111e-15 0)
(3 -9.04789e-16 0)
(3 -1.08749e-15 0)
(3 -1.30883e-15 0)
(3 -9.47809e-16 0)
(3 -3.36175e-16 0)
(3 -5.30913e-17 0)
(3 9.86943e-17 0)
(3 -5.69712e-16 0)
(3 -7.85621e-16 0)
(3 -2.26206e-16 0)
(3 1.99297e-16 0)
(3 6.42905e-16 0)
(3 6.39094e-16 0)
(3 1.02135e-15 0)
(3 -2.52806e-17 0)
(3 -1.15497e-15 0)
(3 -1.66669e-15 0)
(3 -6.80992e-16 0)
(3 -2.45217e-16 0)
(3 -3.23845e-16 0)
(3 1.08773e-16 0)
(3 -5.01446e-17 0)
(3 1.98911e-16 0)
(3 4.03858e-16 0)
(3 6.6637e-16 0)
(3 7.65158e-16 0)
(3 4.30709e-16 0)
(3 -1.30668e-17 0)
(3 -6.43926e-18 0)
(3 4.79613e-16 0)
(3 1.50483e-15 0)
(3 1.29192e-15 0)
(3 1.21749e-16 0)
(3 -1.54781e-16 0)
(3 4.04908e-16 0)
(2.81474 0.0848976 0)
(0.974401 0.174971 0)
(0.743179 0.170635 0)
(0.726427 0.174554 0)
(0.710873 0.178049 0)
(0.698535 0.177208 0)
(0.687598 0.174594 0)
(0.67641 0.172332 0)
(0.664499 0.170423 0)
(0.651291 0.168637 0)
(0.635962 0.168574 0)
(0.618583 0.169401 0)
(0.600055 0.168636 0)
(0.581823 0.165914 0)
(0.564235 0.163627 0)
(0.547233 0.164513 0)
(0.530247 0.170549 0)
(0.513797 0.179962 0)
(0.496853 0.187381 0)
(0.479695 0.189637 0)
(0.462478 0.189865 0)
(0.444547 0.192963 0)
(0.426828 0.20105 0)
(0.409567 0.2108 0)
(0.39196 0.216681 0)
(0.375088 0.21765 0)
(0.35936 0.2149 0)
(0.344115 0.209986 0)
(0.327528 0.206551 0)
(0.309511 0.207786 0)
(0.290672 0.213833 0)
(0.271251 0.221254 0)
(0.251554 0.22584 0)
(0.2325 0.22837 0)
(0.214162 0.230576 0)
(0.195861 0.232932 0)
(0.176709 0.235239 0)
(0.156033 0.237653 0)
(0.133776 0.240255 0)
(0.111906 0.243104 0)
(0.0910842 0.246779 0)
(0.0711404 0.25048 0)
(0.0516284 0.255468 0)
(0.0316667 0.257218 0)
(0.0106817 0.261552 0)
(3 4.80646e-17 0)
(3 -5.72216e-16 0)
(3 -3.61592e-16 0)
(3 -3.59763e-16 0)
(3 -4.53683e-16 0)
(3 -3.88062e-16 0)
(3 -3.58859e-16 0)
(3 -4.55506e-16 0)
(3 -7.10924e-16 0)
(3 -1.50252e-15 0)
(3 -1.88657e-15 0)
(3 -1.40209e-15 0)
(3 -1.31358e-15 0)
(3 -1.02355e-15 0)
(3 -1.25268e-15 0)
(3 -3.64434e-16 0)
(3 6.19217e-17 0)
(3 -3.89943e-16 0)
(3 -5.93391e-16 0)
(3 -5.9081e-16 0)
(3 -3.06807e-16 0)
(3 -2.06703e-16 0)
(3 -3.43812e-17 0)
(3 2.98887e-16 0)
(3 4.72479e-16 0)
(3 -5.04005e-17 0)
(3 -5.31738e-16 0)
(3 -2.14887e-16 0)
(3 -1.97085e-17 0)
(3 3.14344e-16 0)
(3 3.62493e-16 0)
(3 -2.30111e-16 0)
(3 -1.77408e-16 0)
(3 -2.40999e-16 0)
(3 -1.72008e-16 0)
(3 -2.80343e-16 0)
(3 -1.75488e-15 0)
(3 -1.79612e-15 0)
(3 -1.30328e-15 0)
(3 -2.64942e-16 0)
(3 1.06362e-15 0)
(3 1.82721e-15 0)
(3 1.78289e-15 0)
(3 1.76568e-15 0)
(3 1.34672e-15 0)
(3 1.33069e-15 0)
(3 1.26882e-15 0)
(3 8.86774e-16 0)
(3 1.49874e-15 0)
(3 1.76477e-15 0)
(3 1.32837e-15 0)
(2.92024 0.0572804 0)
(1.02204 0.196105 0)
(0.748777 0.18152 0)
(0.734662 0.188292 0)
(0.71993 0.189559 0)
(0.70782 0.187085 0)
(0.696261 0.184591 0)
(0.68411 0.18313 0)
(0.670649 0.182698 0)
(0.655114 0.182771 0)
(0.637461 0.184324 0)
(0.618455 0.185808 0)
(0.599528 0.184633 0)
(0.582011 0.181143 0)
(0.565459 0.178625 0)
(0.549305 0.179746 0)
(0.532884 0.186201 0)
(0.516455 0.19572 0)
(0.499308 0.202879 0)
(0.482077 0.205089 0)
(0.464863 0.205711 0)
(0.447082 0.209412 0)
(0.42953 0.217985 0)
(0.412516 0.228021 0)
(0.395249 0.233648 0)
(0.378942 0.233929 0)
(0.363833 0.230823 0)
(0.348992 0.226093 0)
(0.332663 0.222887 0)
(0.314831 0.224355 0)
(0.296161 0.230957 0)
(0.276963 0.239277 0)
(0.257208 0.244694 0)
(0.237832 0.247793 0)
(0.218946 0.250469 0)
(0.199974 0.253418 0)
(0.180193 0.256102 0)
(0.159256 0.258873 0)
(0.137059 0.261634 0)
(0.115058 0.264571 0)
(0.0937038 0.268319 0)
(0.0728777 0.272043 0)
(0.0524515 0.277142 0)
(0.0316644 0.278899 0)
(0.0105525 0.283347 0)
(3 1.18635e-16 0)
(3 2.08303e-16 0)
(3 1.15531e-16 0)
(3 -3.24802e-16 0)
(3 -7.92766e-16 0)
(3 -1.39998e-15 0)
(3 -1.21738e-15 0)
(3 -8.43275e-16 0)
(3 -7.02168e-16 0)
(3 5.75626e-17 0)
(3 8.62828e-16 0)
(3 7.05531e-16 0)
(3 4.30638e-16 0)
(3 4.25322e-16 0)
(3 9.95265e-17 0)
(3 2.99845e-16 0)
(3 5.04893e-16 0)
(3 3.07387e-16 0)
(3 -9.50562e-17 0)
(3 -2.40398e-16 0)
(3 -4.51355e-16 0)
(3 -3.09298e-16 0)
(3 -9.09601e-17 0)
(3 7.27214e-16 0)
(3 4.7432e-16 0)
(3 4.08876e-16 0)
(3 -3.51332e-16 0)
(3 -1.17176e-15 0)
(3 -2.05987e-15 0)
(3 -1.95952e-15 0)
(3 -5.52419e-16 0)
(3 -2.48494e-16 0)
(3 1.35245e-17 0)
(3 -4.38247e-16 0)
(3 -7.36179e-16 0)
(3 -1.18916e-15 0)
(3 -2.61128e-15 0)
(3 -2.39754e-15 0)
(3 -1.49615e-15 0)
(3 9.08307e-16 0)
(3 2.52596e-15 0)
(3 2.46562e-15 0)
(3 2.45255e-15 0)
(3 2.56011e-15 0)
(3 2.41885e-15 0)
(3 9.16631e-16 0)
(3 6.46992e-16 0)
(3 1.08285e-15 0)
(3 1.97051e-15 0)
(3 2.27679e-15 0)
(3 1.42909e-15 0)
(2.98526 0.0146899 0)
(1.07938 0.212964 0)
(0.756938 0.186576 0)
(0.743213 0.203339 0)
(0.725936 0.204493 0)
(0.711125 0.200436 0)
(0.697056 0.196596 0)
(0.68332 0.194959 0)
(0.669459 0.195554 0)
(0.654544 0.197357 0)
(0.638012 0.200222 0)
(0.620063 0.201728 0)
(0.60216 0.199577 0)
(0.585404 0.195151 0)
(0.569176 0.192611 0)
(0.553081 0.194425 0)
(0.536661 0.201745 0)
(0.519863 0.211693 0)
(0.502189 0.218661 0)
(0.48458 0.220772 0)
(0.467055 0.22174 0)
(0.449203 0.225927 0)
(0.431851 0.234764 0)
(0.415418 0.244712 0)
(0.399042 0.249782 0)
(0.383737 0.249337 0)
(0.369386 0.246054 0)
(0.354637 0.241864 0)
(0.338173 0.239198 0)
(0.320057 0.241147 0)
(0.301067 0.248478 0)
(0.281796 0.257828 0)
(0.261893 0.264166 0)
(0.2423 0.267777 0)
(0.223132 0.270777 0)
(0.203851 0.274268 0)
(0.183703 0.277339 0)
(0.162679 0.28051 0)
(0.140605 0.283545 0)
(0.11846 0.286597 0)
(0.0965616 0.290418 0)
(0.0748704 0.294165 0)
(0.0535406 0.299361 0)
(0.0318947 0.301191 0)
(0.0104834 0.305784 0)
(3 1.62346e-16 0)
(3 1.71772e-16 0)
(3 -1.23172e-16 0)
(3 -3.74989e-16 0)
(3 -2.76209e-16 0)
(3 -2.92053e-16 0)