/*--------------------------------*- C++ -*----------------------------------*\
  =========                 |
  \\      /  F ield         | OpenFOAM: The Open Source CFD Toolbox
   \\    /   O peration     | Website:  https://openfoam.org
    \\  /    A nd           | Version:  7
     \\/     M anipulation  |
\*---------------------------------------------------------------------------*/
FoamFile
{
    version     2.0;
    format      ascii;
    class       volScalarField;
    location    "0.5";
    object      p;
}
// * * * * * * * * * * * * * * * * * * * * * * * * * * * * * * * * * * * * * //

dimensions      [1 -1 -2 0 0 0 0];

internalField   nonuniform List<scalar> 
16128
(
1
1
1
1
1
1
1
1
1
1
1
1
1
1
1
1
1
1
1
1
1
1
1
1
1
1
1
1
1
1
3.72865
10.6507
11.537
11.6185
11.6278
11.5957
11.6305
11.7963
12.0063
12.1937
12.3185
12.349
12.34
12.3436
12.3857
12.4635
12.537
12.6069
1
1
1
1
1
1
1
1
1
1
1
1
1
1
1
1
1
1
1
1
1
1
1
1
1
1
1
1
1
1
3.65364
10.5785
11.5142
11.6079
11.6208
11.5879
11.6227
11.7912
12.002
12.1921
12.3173
12.3464
12.3357
12.3348
12.3719
12.4458
12.518
12.5875
1
1
1
1
1
1
1
1
1
1
1
1
1
1
1
1
1
1
1
1
1
1
1
1
1
1
1
1
1
1
3.48275
10.4535
11.482
11.58
11.6017
11.569
11.6035
11.7763
11.9922
12.1892
12.3165
12.343
12.328
12.3186
12.348
12.4169
12.4873
12.5565
1
1
1
1
1
1
1
1
1
1
1
1
1
1
1
1
1
1
1
1
1
1
1
1
1
1
1
1
1
1
3.24805
10.2482
11.443
11.5445
11.5704
11.5395
11.5749
11.7531
11.9772
12.1826
12.3117
12.3332
12.3127
12.2941
12.3155
12.3789
12.4483
12.5173
1
1
1
1
1
1
1
1
1
1
1
1
1
1
1
1
1
1
1
1
1
1
1
1
1
1
1
1
1
1
2.94465
9.94538
11.4047
11.4981
11.535
11.505
11.5409
11.7228
11.9575
12.1716
12.3008
12.3144
12.2856
12.2583
12.2726
12.3317
12.4021
12.4721
1
1
1
1
1
1
1
1
1
1
1
1
1
1
1
1
1
1
1
1
1
1
1
1
1
1
1
1
1
1
2.55354
9.52422
11.3798
11.45
11.4956
11.4655
11.5028
11.6876
11.9371
12.1565
12.2804
12.2842
12.2465
12.2112
12.2195
12.275
12.3463
12.417
1
1
1
1
1
1
1
1
1
1
1
1
1
1
1
1
1
1
1
1
1
1
1
1
1
1
1
1
1
1
2.06755
8.97099
11.3807
11.4073
11.4495
11.4237
11.4626
11.6501
11.9124
12.1309
12.2447
12.239
12.1937
12.153
12.1557
12.2073
12.2793
12.3492
1
1
1
1
1
1
1
1
1
1
1
1
1
1
1
1
1
1
1
1
1
1
1
1
1
1
1
1
1
1
1.55295
8.21218
11.3429
11.3606
11.3982
11.385
11.4226
11.609
11.8766
12.0894
12.1935
12.1819
12.1296
12.0849
12.0808
12.1257
12.1963
12.2625
1
1
1
1
1
1
1
1
1
1
1
1
1
1
1
1
1
1
1
1
1
1
1
1
1
1
1
1
1
1
1.11176
7.19248
11.2697
11.3149
11.3325
11.3389
11.3853
11.565
11.823
12.0249
12.1216
12.1093
12.0517
12.0023
11.9901
12.0271
12.0967
12.1587
1
1
1
1
1
1
1
1
1
1
1
1
1
1
1
1
1
1
1
1
1
1
1
1
1
1
1
1
1
1
1.0016
6.07232
11.0521
11.2331
11.286
11.305
11.3504
11.5073
11.7438
11.9344
12.029
12.0227
11.9634
11.9094
11.8845
11.9072
11.9707
12.025
1
1
1
1
1
1
1
1
1
1
1
1
1
1
1
1
1
1
1
1
1
1
1
1
1
1
1
1
1
1
1
4.93088
10.7341
11.1695
11.2533
11.2764
11.3102
11.4365
11.6411
11.8203
11.9163
11.9166
11.8561
11.7951
11.7528
11.7583
11.8147
11.8644
1
1
1
1
1
1
1
1
1
1
1
1
1
1
1
1
1
1
1
1
1
1
1
1
1
1
1
1
1
1
1
3.7885
10.2783
11.119
11.2103
11.2419
11.2591
11.3525
11.5179
11.6844
11.7818
11.7874
11.7289
11.6673
11.61
11.5877
11.6152
11.6394
1
1
1
1
1
1
1
1
1
1
1
1
1
1
1
1
1
1
1
1
1
1
1
1
1
1
1
1
1
1
1
2.65473
9.61301
11.06
11.1576
11.1957
11.189
11.2459
11.372
11.5299
11.6338
11.641
11.5769
11.499
11.4122
11.3563
11.3535
11.3694
1
1
1
1
1
1
1
1
1
1
1
1
1
1
1
1
1
1
1
1
1
1
1
1
1
1
1
1
1
1
1
1.68033
8.59023
11.0936
11.1059
11.1057
11.08
11.1007
11.2017
11.3598
11.4678
11.4695
11.3939
11.2985
11.1916
11.1022
11.0453
10.9592
1
1
1
1
1
1
1
1
1
1
1
1
1
1
1
1
1
1
1
1
1
1
1
1
1
1
1
1
1
1
1
1.06353
7.2089
10.8631
11.0134
11.0636
11.0124
10.9725
11.0173
11.1539
11.2664
11.2723
11.1854
11.054
10.8825
10.6877
10.531
10.423
1
1
1
1
1
1
1
1
1
1
1
1
1
1
1
1
1
1
1
1
1
1
1
1
1
1
1
1
1
1
1
1.00056
5.38494
10.4588
10.8598
10.967
10.9348
10.8532
10.847
10.9436
11.0402
11.0367
10.9331
10.7606
10.5386
10.264
10.0092
9.92094
1
1
1
1
1
1
1
1
1
1
1
1
1
1
1
1
1
1
1
1
1
1
1
1
1
1
1
1
1
1
1
1
3.49709
9.87184
10.7427
10.8269
10.8577
10.7755
10.723
10.7549
10.7994
10.7743
10.6505
10.4493
10.1462
9.67311
8.70942
6.73244
1
1
1
1
1
1
1
1
1
1
1
1
1
1
1
1
1
1
1
1
1
1
1
1
1
1
1
1
1
1
1
1
1.8423
8.74194
10.8515
10.7373
10.719
10.595
10.5063
10.5222
10.5609
10.5247
10.3585
10.0906
9.66462
8.97622
7.91069
5.74518
1
1
1
1
1
1
1
1
1
1
1
1
1
1
1
1
1
1
1
1
1
1
1
1
1
1
1
1
1
1
1
1
1.05863
6.85797
10.5387
10.6006
10.6281
10.5087
10.3533
10.3142
10.3108
10.2518
10.047
9.7188
9.21623
8.51182
7.28053
5.43902
1
1
1
1
1
1
1
1
1
1
1
1
1
1
1
1
1
1
1
1
1
1
1
1
1
1
1
1
1
1
1
1
1.00046
4.40141
9.9467
10.4634
10.5127
10.42
10.2303
10.1126
10.0286
9.93174
9.7103
9.35261
8.82186
8.07732
6.86507
5.35978
1
1
1
1
1
1
1
1
1
1
1
1
1
1
1
1
1
1
1
1
1
1
1
1
1
1
1
1
1
1
1
1
1
2.19674
8.89035
10.3534
10.3536
10.276
10.0971
9.93009
9.77656
9.63321
9.40087
9.02564
8.51227
7.71908
6.65991
5.44746
1
1
1
1
1
1
1
1
1
1
1
1
1
1
1
1
1
1
1
1
1
1
1
1
1
1
1
1
1
1
1
1
1
1.10403
6.91772
10.0736
10.1755
10.136
9.9588
9.72417
9.54193
9.37584
9.13567
8.76162
8.22774
7.45456
6.53506
5.52071
1
1
1
1
1
1
1
1
1
1
1
1
1
1
1
1
1
1
1
1
1
1
1
1
1
1
1
1
1
1
1
1
1
1.00101
4.11387
9.47517
10.0346
10.0366
9.83622
9.55417
9.31949
9.10073
8.84516
8.5139
8.00469
7.30638
6.50803
5.63965
1
1
1
1
1
1
1
1
1
1
1
1
1
1
1
1
1
1
1
1
1
1
1
1
1
1
1
1
1
1
1
1
1
1
1.71592
8.18584
9.95188
9.86904
9.71421
9.4523
9.15443
8.86769
8.59673
8.27261
7.82691
7.22225
6.51516
5.73701
1
1
1
1
1
1
1
1
1
1
1
1
1
1
1
1
1
1
1
1
1
1
1
1
1
1
1
1
1
1
1
1
1
1
1.0363
5.65615
9.37551
9.55076
9.57634
9.3942
9.07471
8.72302
8.39246
8.04672
7.64379
7.13621
6.53053
5.84518
1
1
1
1
1
1
1
1
1
1
1
1
1
1
1
1
1
1
1
1
1
1
1
1
1
1
1
1
1
1
1
1
1
1
1.00012
2.58463
8.59213
9.45952
9.42583
9.27223
8.99062
8.64207
8.27525
7.89441
7.49327
7.04493
6.51592
5.91727
1
1
1
1
1
1
1
1
1
1
1
1
1
1
1
1
1
1
1
1
1
1
1
1
1
1
1
1
1
1
1
1
1
1
1
1.14986
6.38403
9.20033
9.18003
9.09831
8.90551
8.58404
8.20374
7.79633
7.37806
6.95464
6.48491
5.96763
1
1
1
1
1
1
1
1
1
1
1
1
1
1
1
1
1
1
1
1
1
1
1
1
1
1
1
1
1
1
1
1
1
1
1
1.0017
3.05418
8.55285
9.09349
8.94727
8.77104
8.50777
8.15745
7.75404
7.32339
6.89922
6.45861
5.99596
1
1
1
1
1
1
1
1
1
1
1
1
1
1
1
1
1
1
1
1
1
1
1
1
1
1
1
1
1
1
1
1
1
1
1
1
1.23251
6.41336
8.84925
8.75526
8.61421
8.40268
8.10471
7.73468
7.31469
6.88631
6.45098
6.01832
1
1
1
1
1
1
1
1
1
1
1
1
1
1
1
1
1
1
1
1
1
1
1
1
1
1
1
1
1
1
1
1
1
1
1
1
1.00384
2.88213
8.14922
8.73888
8.5312
8.32038
8.05524
7.73024
7.33575
6.90541
6.47253
6.06202
1
1
1
1
1
1
1
1
1
1
1
1
1
1
1
1
1
1
1
1
1
1
1
1
1
1
1
1
1
1
1
1
1
1
1
1
1.00001
1.19137
5.78843
8.4531
8.3535
8.15936
7.95055
7.68808
7.34258
6.93833
6.52184
6.12329
1
1
1
1
1
1
1
1
1
1
1
1
1
1
1
1
1
1
1
1
1
1
1
1
1
1
1
1
1
1
1
1
1
1
1
1
1
1.00263
2.2924
7.51164
8.40649
8.12629
7.88728
7.61727
7.30502
6.94977
6.57233
6.19544
1
1
1
1
1
1
1
1
1
1
1
1
1
1
1
1
1
1
1
1
1
1
1
1
1
1
1
1
1
1
1
1
1
1
1
1
1
1
1.0958
4.51646
7.91299
8.05846
7.81675
7.58214
7.29909
6.97663
6.62988
6.27277
1
1
1
1
1
1
1
1
1
1
1
1
1
1
1
1
1
1
1
1
1
1
1
1
1
1
1
1
1
1
1
1
1
1
1
1
1
1
1.00093
1.65998
6.30094
8.05091
7.80362
7.49731
7.19393
6.89956
6.60857
6.3015
1
1
1
1
1
1
1
1
1
1
1
1
1
1
1
1
1
1
1
1
1
1
1
1
1
1
1
1
1
1
1
1
1
1
1
1
1
1
1
1.02507
2.86067
7.22907
7.8668
7.51884
7.22157
6.90878
6.60378
6.29942
1
1
1
1
1
1
1
1
1
1
1
1
1
1
1
1
1
1
1
1
1
1
1
1
1
1
1
1
1
1
1
1
1
1
1
1
1
1
1
1.00013
1.18593
4.41064
7.37764
7.52279
7.21676
6.93946
6.64872
6.35462
1
1
1
1
1
1
1
1
1
1
1
1
1
1
1
1
1
1
1
1
1
1
1
1
1
1
1
1
1
1
1
1
1
1
1
1
1
1
1
1
1.00292
1.6564
5.57711
7.43008
7.2327
6.91192
6.64585
6.36894
1
1
1
1
1
1
1
1
1
1
1
1
1
1
1
1
1
1
1
1
1
1
1
1
1
1
1
1
1
1
1
1
1
1
1
1
1
1
1
1
1.00001
1.02539
2.40499
6.32001
7.28358
7.01247
6.69562
6.39168
1
1
1
1
1
1
1
1
1
1
1
1
1
1
1
1
1
1
1
1
1
1
1
1
1
1
1
1
1
1
1
1
1
1
1
1
1
1
1
1
1
1.00015
1.10984
3.26608
6.60067
7.08663
6.80521
6.48568
1
1
1
1
1
1
1
1
1
1
1
1
1
1
1
1
1
1
1
1
1
1
1
1
1
1
1
1
1
1
1
1
1
1
1
1
1
1
1
1
1
1
1.00137
1.28869
3.98992
6.64504
6.86618
6.58383
1
1
1
1
1
1
1
1
1
1
1
1
1
1
1
1
1
1
1
1
1
1
1
1
1
1
1
1
1
1
1
1
1
1
1
1
1
1
1
1
1
1
1
1.00646
1.54429
4.52813
6.54307
6.6595
1
1
1
1
1
1
1
1
1
1
1
1
1
1
1
1
1
1
1
1
1
1
1
1
1
1
1
1
1
1
1
1
1
1
1
1
1
1
1
1
1
1
1
1.00002
1.01954
1.82736
4.86514
6.37533
1
1
1
1
1
1
1
1
1
1
1
1
1
1
1
1
1
1
1
1
1
1
1
1
1
1
1
1
1
1
1
1
1
1
1
1
1
1
1
1
1
1
1
1
1.00012
1.04191
2.08824
5.01186
1
1
1
1
1
1
1
1
1
1
1
1
1
1
1
1
1
1
1
1
1
1
1
1
1
1
1
1
1
1
1
1
1
1
1
1
1
1
1
1
1
1
1
1
1
1.00036
1.07072
2.27691
1
1
1
1
1
1
1
1
1
1
1
1
1
1
1
1
1
1
1
1
1
1
1
1
1
1
1
1
1
1
1
1
1
1
1
1
1
1
1
1
1
1
1
1
1
1
1.00079
1.09825
1
1
1
1
1
1
1
1
1
1
1
1
1
1
1
1
1
1
1
1
1
1
1
1
1
1
1
1
1
1
1
1
1
1
1
1
1
1
1
1
1
1
1
1
1
1
1
1.0013
1
1
1
1
1
1
1
1
1
1
1
1
1
1
1
1
1
1
1
1
1
1
1
1
1
1
1
1
1
1
1
1
1
1
1
1
1
1
1
1
1
1
1
1
1
1
1
1
1
1
1
1
1
1
1
1
1
1
1
1
1
1
1
1
1
1
1
1
1
1
1
1
1
1
1
1
1
1
1
1
1
1
1
1
1
1
1
1
1
1
1
1
1
1
1
1
1
1
1
1
1
1
1
1
1
1
1
1
1
1
1
1
1
1
1
1
1
1
1
1
1
1
1
1
1
1
1
1
1
1
1
1
1
1
1
1
1
1
1
1
1
1
1
1
1
1
1
1
1
1
1
1
1
1
1
1
1
1
1
1
1
1
1
1
1
1
1
1
1
1
1
1
1
1
1
1
1
1
1
1
1
1
1
1
1
1
1
1
1
1
1
1
1
1
1
1
1
1
1
1
1
1
1
1
1
1
1
1
1
1
1
1
1
1
1
1
1
1
1
1
1
1
1
1
1
1
1
1
1
1
1
1
1
1
1
1
1
1
1
1
1
1
1
1
1
1
1
1
1
1
1
1
1
1
1
1
1
1
1
1
1
1
1
1
1
1
1
1
1
1
1
1
1
1
1
1
1
1
1
1
1
1
1
1
1
1
1
1
1
1
1
1
1
1
1
1
1
1
1
1
1
1
1
1
1
1
1
1
1
1
1
1
1
1
1
1
1
1
1
1
1
1
1
1
1
1
1
1
1
1
1
1
1
1
1
1
1
1
1
1
1
1
1
1
1
1
1
1
1
1
1
1
1
1
1
1
1
1
1
1
1
1
1
1
1
1
1
1
1
1
1
1
1
1
1
1
1
1
1
1
1
1
1
1
1
1
1
1
1
1
1
1
1
1
1
1
1
1
1
1
1
1
1
1
1
1
1
1
1
1
1
1
1
1
1
1
1
1
1
1
1
1
1
1
1
1
1
1
1
1
1
1
1
1
1
1
1
1
1
1
1
1
1
1
1
1
1
1
1
1
1
1
1
1
1
1
1
1
1
1
1
1
1
1
1
1
1
1
1
1
1
1
1
1
1
1
1
1
1
1
1
1
1
1
1
1
1
1
1
1
1
1
1
1
1
1
1
1
1
1
1
1
1
1
1
1
1
1
1
1
1
1
1
1
1
1
1
1
1
1
1
1
1
1
1
1
1
1
1
1
1
1
1
1
1
1
1
1
1
1
1
1
1
1
1
1
1
1
1
1
1
1
1
1
1
1
1
1
1
1
1
1
1
1
1
1
1
1
1
1
1
1
1
1
1
1
1
1
1
1
1
1
1
1
1
1
1
1
1
1
1
1
1
1
1
1
1
1
1
1
1
1
1
1
1
1
1
1
1
1
1
1
1
1
1
1
1
1
1
1
1
1
1
1
1
1
1
1
1
1
1
1
1
1
1
1
1
1
1
1
1
1
1
1
1
1
1
1
1
1
1
1
1
1
1
1
1
1
1
1
1
1
1
1
1
1
1
1
1
1
1
1
1
1
1
1
1
1
1
1
1
1
1
1
1
1
1
1
1
1
1
1
1
1
1
1
1
1
1
1
1
1
1
1
1
1
1
1
1
1
1
1
1
1
1
1
1
1
1
1
1
1
1
1
1
1
1
1
1
1
1
1
1
1
1
1
1
1
1
1
1
1
1
1
1
1
1
1
1
1
1
1
1
1
1
1
1
1
1
1
1
1
1
1
1
1
1
1
1
1
1
1
1
1
1
1
1
1
1
1
1
1
1
1
1
1
1
1
1
1
1
1
1
1
1
1
1
1
1
1
1
1
1
1
1
1
1
1
1
1
1
1
1
1
1
1
1
1
1
1
1
1
1
1
1
1
1
1
1
1
1
1
1
1
1
1
1
1
1
1
1
1
1
1
1
1
1
1
1
1
1
1
1
1
1
1
1
1
1
1
1
1
1
1
1
1
1
1
1
1
1
1
1
1
1
1
1
1
1
1
1
1
1
1
1
1
1
1
1
1
1
1
1
1
1
1
1
1
1
1
1
1
1
1
1
1
1
1
1
1
1
1
1
1
1
1
1
1
1
1
1
1
1
1
1
1
1
1
1
1
1
1
1
1
1
1
1
1
1
1
1
1
1
1
1
1
1
1
1
1
1
1
1
1
1
1
1
1
1
1
1
1
1
1
1
1
1
1
1
1
1
1
1
1
1
1
1
1
1
1
1
1
1
1
1
1
1
1
1
1
1
1
1
1
1
1
1
1
1
1
1
1
1
1
1
1
1
1
1
1
1
1
1
1
1
1
1
1
1
1
1
1
1
1
1
1
1
1
1
1
1
1
1
1
1
1
1
1
1
1
1
1
1
1
1
1
1
1
1
1
1
1
1
1
1
1
1
1
1
1
1
1
1
1
1
1
1
1
1
1
1
1
1
1
1
1
1
1
1
1
1
1
1
1
1
1
1
1
1
1
1
1
1
1
1
1
1
1
1
1
1
1
1
1
1
1
1
1
1
1
1
1
1
1
1
1
1
1
1
1
1
1
1
1
1
1
1
1
1
1
1
1
1
1
1
1
1
1
1
1
1
1
1
1
1
1
1
1
1
1
1
1
1
1
1
1
1
1
1
1
1
1
1
1
1
1
1
1
1
1
1
1
1
1
1
1
1
1
1
1
1
1
1
1
1
1
1
1
1
1
1
1
1
1
1
1
1
1
1
1
1
1
1
1
1
1
1
1
1
1
1
1
1
1
1
1
1
1
1
1
1
1
1
1
1
1
1
1
1
1
1
1
1
1
1
1
1
1
1
1
1
1
1
1
1
1
1
1
1
1
1
1
1
1
1
1
1
1
1
1
1
1
1
1
1
1
1
1
1
1
1
1
1
1
1
1
1
1
1
1
1
1
1
1
1
1
1
1
1
1
1
1
1
1
1
1
1
1
1
1
1
1
1
1
1
1
1
1
1
1
1
1
1
1
1
1
1
1
1
1
1
1
1
1
1
1
1
1
1
1
1
1
1
1
1
1
1
1
1
1
1
1
1
1
1
1
1
1
1
1
1
1
1
1
1
1
1
1
1
1
1
1
1
1
1
1
1
1
1
1
1
1
1
1
1
1
1
1
1
1
1
1
1
1
1
1
1
1
1
1
1
1
1
1
1
1
1
1
1
1
1
1
1
1
1
1
1
1
1
1
1
1
1
1
1
1
1
1
1
1
1
1
1
1
1
1
1
1
1
1
1
1
1
1
1
1
1
1
1
1
1
1
1
1
1
1
1
1
1
1
1
1
1
1
1
1
1
1
1
1
1
1
1
1
1
1
1
1
1
1
1
1
1
1
1
1
1
1
1
1
1
1
1
1
1
1
1
1
1
1
1
1
1
1
1
1
1
1
1
1
1
1
1
1
1
1
1
1
1
1
1
1
1
1
1
1
1
1
1
1
1
1
1
1
1
1
1
1
1
1
1
1
1
1
1
1
1
1
1
1
1
1
1
1
1
1
1
1
1
1
1
1
1
1
1
1
1
1
1
1
1
1
1
1
1
1
1
1
1
1
1
1
1
1
1
1
1
1
1
1
1
1
1
1
1
1
1
1
1
1
1
1
1
1
1
1
1
1
1
1
1
1
1
1
1
1
1
1
1
1
1
1
1
1
1
1
1
1
1
1
1
1
1
1
1
1
1
1
1
1
1
1
1.30467
0.315053
0.0471533
0.0138588
0.0296617
0.0912641
0.149896
0.181218
0.232815
0.325674
0.413051
0.463979
0.511292
0.562253
0.586274
0.620413
0.693157
0.779076
0.835247
0.854668
0.84877
0.850317
0.86372
0.86888
0.872881
0.883198
0.895952
0.90385
0.898659
0.902345
0.915933
0.933115
0.94596
0.95753
0.963935
0.960942
0.958138
0.951196
0.946594
0.947963
0.95297
0.964703
0.973695
0.971704
0.969488
0.960792
0.949104
0.945142
0.941845
0.939262
0.941481
0.939369
0.932899
0.924116
0.91035
0.901547
0.898363
0.896944
0.895089
0.889928
0.88025
0.863012
0.848392
0.844548
0.843279
0.842386
0.843846
0.848294
0.849678
0.84817
0.845061
0.84097
0.842688
0.84687
0.852899
0.860998
0.868853
0.874123
0.877206
0.879503
0.881661
0.884543
0.889931
0.900106
0.906347
0.905114
0.902927
0.900464
0.90141
0.901626
0.901506
0.904534
0.910729
0.921104
0.942181
0.948742
0.936316
0.926528
0.92054
0.920388
0.926841
0.940108
0.952673
0.962213
0.969503
0.973891
0.976075
0.971778
0.957367
0.942536
0.956766
1.00118
1.00884
1.0004
0.991038
0.985583
0.983482
0.983828
0.997806
1.02055
1.02357
1.02137
1.02028
1.01953
1.01824
1.01659
1.01621
1.0162
1.01662
1.02072
1.0269
1.0279
1.02726
1.02653
1.0258
1.02476
1.02253
1.01751
1.01062
1.00741
1.007
1.00688
1.0068
1.00674
1.00676
1.00736
1.00986
1.01658
1.02876
1.03872
1.0407
1.04078
1.04079
1.04042
1.03864
1.03356
1.02226
1.00744
1.00062
1.00001
1
1
1
1
1
1
1
1
1
1
1
1
1
1
1
1
1
1
1
1
1
1
1
1
1
1
1
1
1
1
1
1
2.27203
1.15167
0.607314
0.27462
0.208625
0.262547
0.269271
0.244218
0.240774
0.245156
0.260153
0.2953
0.323462
0.363182
0.421059
0.487199
0.551615
0.607678
0.662361
0.723657
0.765051
0.789057
0.816778
0.835071
0.845242
0.867721
0.88761
0.901151
0.897843
0.896847
0.909472
0.927948
0.937994
0.94408
0.949877
0.950299
0.950491
0.949697
0.950077
0.952024
0.95648
0.966497
0.971708
0.968959
0.966623
0.959376
0.946369
0.940899
0.939411
0.939399
0.945134
0.946691
0.940503
0.931764
0.918098
0.89881
0.885449
0.880614
0.878829
0.877269
0.872129
0.864776
0.85614
0.850919
0.848973
0.847772
0.847689
0.849346
0.849361
0.84805
0.84598
0.842295
0.84362
0.847252
0.853037
0.862529
0.87028
0.873207
0.874785
0.875353
0.8769
0.879426
0.883934
0.891402
0.899935
0.906141
0.908213
0.909403
0.909153
0.907861
0.906441
0.906281
0.910126
0.920908
0.933081
0.938034
0.934504
0.929849
0.927563
0.926788
0.930944
0.940363
0.950995
0.959116
0.963935
0.964961
0.959412
0.951722
0.948425
0.954813
0.97132
0.992535
0.996603
0.990615
0.985249
0.981314
0.979232
0.979342
0.990352
1.01221
1.01789
1.01616
1.0153
1.01534
1.0148
1.01419
1.01419
1.01432
1.01473
1.01808
1.02434
1.02645
1.02606
1.02541
1.02471
1.02381
1.0219
1.01727
1.01046
1.00707
1.00667
1.0066
1.00654
1.00651
1.00658
1.00722
1.00961
1.01619
1.02876
1.03894
1.04087
1.04091
1.04085
1.04041
1.03885
1.0341
1.02262
1.00727
1.00056
1
1
1
1
1
1
1
1
1
1
1
1
1
1
1
1
1
1
1
1
1
1
1
1
1
1
1
1
1
1
1
1
1
3.02916
1.75498
1.20457
0.832584
0.619777
0.5423
0.463198
0.348752
0.313258
0.314704
0.301327
0.301735
0.321349
0.352456
0.389679
0.430638
0.460946
0.490432
0.527584
0.584742
0.654308
0.702685
0.750916
0.802493
0.833833
0.863087
0.884452
0.908266
0.910791
0.907966
0.924233
0.947864
0.953585
0.950173
0.947759
0.94848
0.945593
0.942417
0.943552
0.94677
0.953017
0.962379
0.968445
0.968693
0.969139
0.966044
0.953059
0.940213
0.937496
0.936574
0.939602
0.944359
0.941527
0.937077
0.931388
0.920599
0.901942
0.880424
0.865065
0.858654
0.855849
0.853168
0.850925
0.850808
0.851624
0.853156
0.855045
0.855644
0.854995
0.8536
0.849476
0.842124
0.842052
0.845079
0.850193
0.859435
0.870243
0.877094
0.881347
0.884334
0.885286
0.883269
0.88178
0.881859
0.883525
0.889091
0.899135
0.908113
0.913868
0.918044
0.920851
0.922325
0.924245
0.927116
0.928168
0.927753
0.926222
0.926619
0.929901
0.936419
0.944963
0.953489
0.959852
0.962742
0.961689
0.95686
0.952272
0.95259
0.956535
0.962619
0.981749
0.999555
0.996613
0.991059
0.988764
0.987837
0.987784
0.990078
1.00211
1.01784
1.02024
1.01857
1.01803
1.01777
1.01703
1.01662
1.01649
1.01635
1.01649
1.01916
1.02487
1.02721
1.02685
1.02603
1.02522
1.02423
1.02234
1.01802
1.0113
1.00742
1.00688
1.00679
1.00673
1.00669
1.00673
1.00737
1.00985
1.01661
1.0292
1.03926
1.04114
1.04119
1.04118
1.04078
1.03895
1.0336
1.02161
1.00653
1.00045
1
1
1
1
1
1
1
1
1
1
1
1
1
1
1
1
1
1
1
1
1
1
1
1
1
1
1
1
1
1
1
1
1
3.59217
2.51631
1.842
1.32794
1.00104
0.867707
0.747867
0.60682
0.540381
0.513501
0.462767
0.424802
0.427842
0.421051
0.405897
0.400415
0.404211
0.411319
0.421441
0.44382
0.502466
0.571584
0.635782
0.700275
0.748169
0.771462
0.791676
0.832637
0.870337
0.888161
0.915852
0.94343
0.958478
0.959903
0.954656
0.946963
0.942608
0.939689
0.940457
0.942605
0.94706
0.952643
0.958883
0.963381
0.965791
0.966052
0.957762
0.943469
0.937098
0.936177
0.937158
0.939251
0.936231
0.932463
0.92862
0.922489
0.910293
0.890663
0.871588
0.860035
0.854223
0.849636
0.846963
0.846816
0.847717
0.849266
0.852022
0.854758
0.855618
0.855586
0.853616
0.845505
0.840308
0.842487
0.847002
0.854175
0.864891
0.872723
0.877237
0.881573
0.88516
0.888102
0.889813
0.889394
0.888885
0.891469
0.898059
0.905469
0.910078
0.913126
0.916875
0.920875
0.924865
0.928459
0.92961
0.927331
0.925999
0.928434
0.933205
0.939792
0.946303
0.950991
0.953698
0.955101
0.955302
0.953874
0.952657
0.955009
0.961422
0.968899
0.982994
1.0003
0.993506
0.984978
0.981424
0.980501
0.985816
0.999092
1.01445
1.02003
1.01876
1.01716
1.01733
1.01734
1.01672
1.01647
1.01646
1.0164
1.01661
1.01916
1.02453
1.02679
1.02646
1.02575
1.02486
1.02382
1.02209
1.01833
1.01202
1.0076
1.00687
1.00678
1.00671
1.00666
1.00669
1.0073
1.00985
1.01693
1.02995
1.04007
1.04189
1.04197
1.04195
1.04142
1.03931
1.03335
1.02035
1.00548
1.00031
1
1
1
1
1
1
1
1
1
1
1
1
1
1
1
1
1
1
1
1
1
1
1
1
1
1
1
1
1
1
1
1
1
4.09657
3.07866
2.39193
1.88837
1.51356
1.24715
1.03574
0.864646
0.785206
0.729811
0.65672
0.584453
0.559854
0.53385
0.488295
0.452561
0.455595
0.45239
0.443271
0.45166
0.46506
0.476366
0.49189
0.524506
0.578205
0.627893
0.672066
0.736134
0.804373
0.846482
0.863754
0.881178
0.907784
0.923168
0.925362
0.933287
0.952659
0.964516
0.967129
0.968072
0.965179
0.957456
0.951488
0.949528
0.949183
0.949626
0.94859
0.946062
0.944993
0.944676
0.944973
0.943504
0.939261
0.934055
0.926967
0.917225
0.904681
0.890001
0.876473
0.866106
0.857317
0.849734
0.846333
0.845555
0.845797
0.846743
0.848426
0.851798
0.853926
0.854483
0.854734
0.851468
0.84399
0.844079
0.84722
0.852427
0.861442
0.869907
0.874112
0.877739
0.880815
0.883558
0.884814
0.8851
0.886789
0.893114
0.903254
0.910691
0.912536
0.912291
0.912844
0.913059
0.91385
0.915846
0.918888
0.923175
0.9293
0.936811
0.944273
0.948211
0.947441
0.944548
0.941565
0.940039
0.941311
0.945815
0.95184
0.956181
0.96066
0.970914
0.985528
0.992915
0.98373
0.978308
0.979481
0.983367
0.996572
1.01432
1.01974
1.01917
1.01646
1.01399
1.01416
1.01441
1.01441
1.01444
1.01444
1.01473
1.01636
1.01954
1.02352
1.02641
1.02702
1.02661
1.02576
1.02462
1.02276
1.01914
1.01294
1.00783
1.00677
1.00668
1.00662
1.00657
1.00661
1.00727
1.00994
1.01727
1.03063
1.04088
1.04273
1.04281
1.04278
1.04214
1.03969
1.03282
1.01865
1.0043
1.00019
1
1
1
1
1
1
1
1
1
1
1
1
1
1
1
1
1
1
1
1
1
1
1
1
1
1
1
1
1
1
1
1
1
4.46079
3.61774
2.89837
2.33702
1.98256
1.6636
1.40463
1.19069
1.05211
0.937507
0.843157
0.776212
0.740818
0.697896
0.6246
0.579932
0.568168
0.548386
0.512312
0.502614
0.500742
0.492972
0.482221
0.477221
0.482305
0.494134
0.517828
0.565944
0.643775
0.736495
0.781013
0.803208
0.841627
0.880047
0.891384
0.90221
0.925495
0.959975
0.972116
0.97433
0.97322
0.961668
0.942775
0.932927
0.933039
0.937056
0.945365
0.954965
0.958227
0.955834
0.949559
0.942396
0.935055
0.927302
0.91878
0.909292
0.899652
0.891816
0.88552
0.876838
0.863201
0.851191
0.846938
0.845057
0.843956
0.8434
0.843497
0.845803
0.849977
0.851587
0.852091
0.851234
0.84597
0.844654
0.847424
0.851798
0.858291
0.865779
0.872103
0.878119
0.882321
0.885028
0.886853
0.886502
0.887638
0.894622
0.905419
0.910667
0.911838
0.912013
0.913353
0.914763
0.914573
0.91439
0.916886
0.922859
0.93057
0.938467
0.94542
0.948414
0.946377
0.941935
0.937735
0.935509
0.93688
0.94285
0.952064
0.960851
0.9671
0.973913
0.984206
0.989637
0.978861
0.975563
0.980969
0.992834
1.01136
1.01959
1.01922
1.01668
1.01288
1.01156
1.01373
1.01505
1.01544
1.01558
1.01569
1.0165
1.01838
1.0206
1.02292
1.02539
1.02643
1.02624
1.02568
1.02479
1.02328
1.0201
1.01402
1.00805
1.00651
1.00643
1.00638
1.00634
1.00642
1.00723
1.0102
1.01801
1.03186
1.04205
1.04379
1.04387
1.04379
1.04296
1.03999
1.03193
1.01649
1.00311
1.0001
1
1
1
1
1
1
1
1
1
1
1
1
1
1
1
1
1
1
1
1
1
1
1
1
1
1
1
1
1
1
1
1
1
4.74019
4.00325
3.32847
2.78851
2.38433
2.0324
1.71619
1.50752
1.35322
1.19935
1.04503
0.956955
0.906804
0.844652
0.766911
0.711013
0.686239
0.657214
0.606151
0.580686
0.575847
0.56106
0.525944
0.499232
0.496732
0.500693
0.501111
0.507084
0.528585
0.574693
0.627416
0.665941
0.70563
0.764097
0.809899
0.839518
0.88306
0.932756
0.950703
0.956027
0.95849
0.953634
0.936646
0.927417
0.929689
0.936281
0.950696
0.962214
0.963331
0.960286
0.948505
0.935542
0.928201
0.922414
0.91699
0.911377
0.905329
0.899482
0.892534
0.879113
0.863163
0.854508
0.850044
0.84639
0.843512
0.841684
0.840807
0.842484
0.846729
0.849136
0.849653
0.849036
0.846516
0.844876
0.846602
0.850256
0.855543
0.861556
0.869357
0.879175
0.883892
0.886213
0.889001
0.890495
0.891646
0.897289
0.905278
0.907492
0.907902
0.908102
0.908112
0.909399
0.912597
0.917449
0.924934
0.932853
0.939583
0.943849
0.945447
0.943845
0.939194
0.933553
0.92982
0.930978
0.939072
0.952086
0.963667
0.969267
0.970486
0.972788
0.979752
0.984778
0.97849
0.977873
0.985281
0.998832
1.01442
1.01847
1.01749
1.01431
1.00893
1.00803
1.01116
1.01316
1.0136
1.01489
1.01711
1.0191
1.02064
1.02161
1.02258
1.02398
1.02554
1.02601
1.02585
1.02525
1.02394
1.02103
1.01513
1.0084
1.00618
1.00603
1.00598
1.00595
1.00606
1.00701
1.01028
1.01887
1.03354
1.04347
1.04497
1.04505
1.04493
1.04386
1.04019
1.03059
1.0139
1.00203
1.00004
1
1
1
1
1
1
1
1
1
1
1
1
1
1
1
1
1
1
1
1
1
1
1
1
1
1
1
1
1
1
1
1
1
4.97004
4.30178
3.66196
3.16416
2.75312
2.38143
2.03223
1.79354
1.59344
1.43226
1.28344
1.18438
1.09751
1.00941
0.907453
0.845411
0.816375
0.784166
0.735951
0.697997
0.682402
0.654633
0.60584
0.563465
0.553722
0.545457
0.524122
0.51703
0.525962
0.540257
0.543607
0.547639
0.561445
0.596662
0.65602
0.721119
0.783716
0.86523
0.908519
0.921335
0.932304
0.933556
0.924743
0.916165
0.922374
0.936023
0.956952
0.967317
0.964621
0.957353
0.941742
0.930418
0.926661
0.924467
0.92245
0.918566
0.913496
0.904525
0.88682
0.866851
0.856528
0.853439
0.851231
0.849086
0.846788
0.845078
0.844877
0.846111
0.845814
0.844234
0.842949
0.842713
0.842297
0.842603
0.845079
0.849303
0.855113
0.860905
0.869697
0.88279
0.88715
0.887914
0.88947
0.892757
0.893921
0.897225
0.901654
0.904454
0.906446
0.908197
0.909091
0.910256
0.915244
0.923979
0.934133
0.941821
0.946124
0.947324
0.946349
0.943098
0.937584
0.932587
0.932739
0.940832
0.953709
0.962333
0.962402
0.959127
0.960037
0.968498
0.98051
0.985657
0.981431
0.979474
0.98474
0.998297
1.01305
1.01586
1.01508
1.01265
1.00853
1.00752
1.01062
1.01374
1.01607
1.01784
1.01946
1.02043
1.02081
1.02108
1.0217
1.02302
1.02503
1.02627
1.02632
1.02599
1.02489
1.02211
1.01613
1.00873
1.00595
1.00574
1.00567
1.00561
1.00568
1.0066
1.01032
1.02011
1.03581
1.04512
1.04629
1.04636
1.04618
1.04479
1.04017
1.02861
1.01097
1.00115
1.00001
1
1
1
1
1
1
1
1
1
1
1
1
1
1
1
1
1
1
1
1
1
1
1
1
1
1
1
1
1
1
1
1
1
5.16479
4.54292
3.95395
3.47244
3.06256
2.67041
2.33165
2.08873
1.86734
1.66292
1.49096
1.38417
1.27557
1.18451
1.09
1.00446
0.944835
0.893297
0.833557
0.798107
0.77838
0.743697
0.688274
0.636952
0.62714
0.620435
0.597291
0.56291
0.558941
0.557894
0.545945
0.543547
0.550338
0.556551
0.564043
0.589441
0.636122
0.708787
0.782102
0.818518
0.849704
0.894221
0.903551
0.894852
0.904543
0.927688
0.954397
0.96563
0.962841
0.952289
0.937993
0.932998
0.931439
0.931604
0.928748
0.923105
0.915349
0.898652
0.872509
0.856484
0.8523
0.850618
0.850521
0.852961
0.854206
0.853021
0.850335
0.84668
0.841575
0.837436
0.835399
0.834979
0.83694
0.841219
0.846492
0.85165
0.85683
0.861835
0.869984
0.883414
0.888024
0.888205
0.888614
0.891183
0.892697
0.894062
0.897402
0.901506
0.905238
0.908776
0.912223
0.915355
0.920459
0.928878
0.937463
0.942744
0.944575
0.944544
0.943516
0.940918
0.937369
0.937287
0.945509
0.958067
0.962776
0.956868
0.950862
0.954953
0.971813
0.98993
0.993296
0.986477
0.980439
0.977587
0.980778
0.99381
1.00993
1.01366
1.01319
1.01037
1.00677
1.00722
1.01049
1.01493
1.01974
1.02016
1.01991
1.02038
1.0204
1.01993
1.01997
1.02129
1.02428
1.02686
1.02731
1.02715
1.02617
1.02328
1.01674
1.00858
1.00541
1.00516
1.00509
1.00504
1.00518
1.00645
1.0109
1.02215
1.03868
1.04696
1.04778
1.04784
1.04755
1.04568
1.03973
1.0258
1.00791
1.00056
1
1
1
1
1
1
1
1
1
1
1
1
1
1
1
1
1
1
1
1
1
1
1
1
1
1
1
1
1
1
1
1
1
1
5.31778
4.74113
4.20375
3.75369
3.34083
2.93467
2.61917
2.3476
2.1107
1.89369
1.7359
1.60128
1.45856
1.33197
1.24133
1.16105
1.09268
1.03867
0.965163
0.896268
0.867346
0.83007
0.778115
0.725105
0.713653
0.707539
0.687953
0.645588
0.627014
0.618064
0.596976
0.566651
0.559509
0.563647
0.565104
0.560549
0.564697
0.581514
0.613813
0.649908
0.689446
0.747461
0.825363
0.862247
0.882121
0.911356
0.94324
0.952094
0.948306
0.943652
0.942766
0.94245
0.943136
0.941623
0.935515
0.926042
0.910063
0.884182
0.862106
0.854453
0.850661
0.848753
0.851745
0.858811
0.85921
0.855877
0.851597
0.8444
0.836165
0.832429
0.83055
0.831025
0.836004
0.843041
0.84818
0.853246
0.857164
0.860168
0.866467
0.878662
0.884879
0.886386
0.887399
0.889426
0.891301
0.893099
0.896523
0.901065
0.905679
0.910377
0.915285
0.919603
0.923826
0.929283
0.934265
0.937205
0.939019
0.940632
0.941025
0.939648
0.940393
0.948863
0.961173
0.963767
0.954333
0.944479
0.94855
0.974315
0.998564
0.995946
0.986042
0.98009
0.977393
0.977217
0.982535
0.99649
1.00964
1.01182
1.01148
1.00952
1.00759
1.00856
1.01191
1.01736
1.02059
1.02056
1.01955
1.01932
1.01928
1.01919
1.01979
1.02143
1.0248
1.02793
1.02853
1.02841
1.02743
1.02432
1.01714
1.0082
1.00478
1.00451
1.00443
1.00437
1.00455
1.0061
1.01166
1.02497
1.04208
1.04892
1.04945
1.04949
1.04902
1.04649
1.03867
1.02208
1.00507
1.00022
1
1
1
1
1
1
1
1
1
1
1
1
1
1
1
1
1
1
1
1
1
1
1
1
1
1
1
1
1
1
1
1
1
1
5.43782
4.90199
4.40745
3.98512
3.57165
3.1795
2.88296
2.61176
2.35387
2.10954
1.94953
1.79434
1.6555
1.51828
1.41112
1.30372
1.21293
1.15624
1.09194
1.01651
0.967545
0.921411
0.860803
0.801162
0.791323
0.786487
0.768094
0.731544
0.697292
0.678764
0.656892
0.620814
0.599365
0.597166
0.591439
0.578412
0.569715
0.573798
0.570752
0.565742
0.571693
0.595761
0.654941
0.743552
0.804724
0.85732
0.916553
0.930506
0.926138
0.929163
0.942422
0.953643
0.954429
0.950763
0.940129
0.922369
0.89989
0.873911
0.862064
0.857887
0.854008
0.853041
0.859944
0.864409
0.86151
0.856332
0.849241
0.839861
0.833903
0.831149
0.830146
0.832601
0.839093
0.844287
0.8459
0.849958
0.853283
0.85475
0.860211
0.871852
0.880684
0.884912
0.886921
0.888451
0.89056
0.892801
0.895906
0.900628
0.906884
0.913375
0.919041
0.922054
0.923818
0.926249
0.928691
0.930506
0.932544
0.935188
0.937122
0.939819
0.949511
0.963919
0.965948
0.954002
0.941634
0.943014
0.970452
1.00139
0.998995
0.988483
0.979346
0.972177
0.970086
0.972039
0.982987
1.00264
1.01197
1.0124
1.01168
1.0098
1.00903
1.01011
1.01373
1.01888
1.02028
1.01989
1.01866
1.01776
1.01745
1.01755
1.01845
1.02118
1.02623
1.02951
1.02991
1.02976
1.0286
1.02498
1.01708
1.00765
1.00424
1.00398
1.00391
1.00387
1.00415
1.00618
1.01313
1.02878
1.04578
1.05092
1.05122
1.05124
1.05047
1.04689
1.03661
1.01753
1.00279
1.00007
1
1
1
1
1
1
1
1
1
1
1
1
1
1
1
1
1
1
1
1
1
1
1
1
1
1
1
1
1
1
1
1
1
1
5.51993
5.0325
4.58078
4.1769
3.77159
3.41207
3.11219
2.83707
2.55577
2.33002
2.15776
1.98693
1.81971
1.67709
1.56744
1.45923
1.36556
1.29505
1.20876
1.1058
1.05
1.01249
0.96079
0.895359
0.880457
0.874082
0.853604
0.818364
0.780273
0.747236
0.718244
0.680003
0.658156
0.655569
0.650669
0.638657
0.620864
0.604893
0.582924
0.559366
0.554269
0.555902
0.567478
0.601979
0.653723
0.710316
0.784016
0.851461
0.883133
0.903093
0.932348
0.943907
0.943804
0.940965
0.931574
0.911925
0.885101
0.868708
0.864615
0.863285
0.863487
0.868187
0.871814
0.86868
0.862852
0.853602
0.842305
0.836332
0.833072
0.831607
0.833679
0.837495
0.840676
0.840227
0.838959
0.842266
0.846755
0.8489
0.855054
0.868914
0.880339
0.886438
0.889101
0.889003
0.889293
0.89071
0.893389
0.899631
0.909017
0.91744
0.923344
0.923954
0.923225
0.923981
0.924843
0.924986
0.926428
0.930527
0.937831
0.951927
0.969838
0.971381
0.95575
0.939936
0.936225
0.958434
0.997539
1.00124
0.989408
0.980598
0.967315
0.962441
0.964073
0.972353
0.99239
1.01075
1.01358
1.01333
1.01172
1.00972
1.00966
1.01115
1.01507
1.01878
1.01921
1.01846
1.01744
1.01723
1.0173
1.01767
1.01891
1.02275
1.02871
1.03119
1.03134
1.03105
1.02952
1.02523
1.01627
1.00649
1.00339
1.0032
1.00314
1.00313
1.00367
1.00659
1.01563
1.03379
1.04959
1.05298
1.05315
1.05309
1.05184
1.04674
1.03328
1.01255
1.00126
1.00001
1
1
1
1
1
1
1
1
1
1
1
1
1
1
1
1
1
1
1
1
1
1
1
1
1
1
1
1
1
1
1
1
1
1
5.58147
5.13939
4.7226
4.33364
3.9491
3.60796
3.30936
3.03368
2.76514
2.53836
2.33415
2.15579
1.98643
1.85025
1.72417
1.59016
1.48484
1.42069
1.34328
1.24171
1.15988
1.10353
1.03936
0.972614
0.960358
0.95803
0.936619
0.90057
0.863031
0.821386
0.779582
0.731903
0.71073
0.707523
0.702977
0.691302
0.674045
0.653674
0.62351
0.583765
0.563782
0.562005
0.566314
0.575598
0.585189
0.600428
0.631626
0.690021
0.760985
0.82192
0.894311
0.921874
0.923074
0.920599
0.915065
0.895553
0.873653
0.866572
0.864934
0.871145
0.882747
0.88571
0.880164
0.871505
0.859562
0.844883
0.837383
0.833547
0.83197
0.83514
0.838655
0.839286
0.837369
0.833781
0.83152
0.834241
0.840579
0.846169
0.855674
0.873538
0.883921
0.8874
0.889296
0.887036
0.884923
0.885703
0.889884
0.900863
0.913856
0.922998
0.928545
0.927331
0.925533
0.924448
0.921792
0.918999
0.921099
0.931974
0.952444
0.97603
0.979694
0.961409
0.941791
0.932881
0.94448
0.983418
1.00163
0.989415
0.979553
0.966971
0.959299
0.960192
0.965837
0.983059
1.00705
1.01454
1.0147
1.01391
1.01119
1.00935
1.00976