/*--------------------------------*- C++ -*----------------------------------*\
  =========                 |
  \\      /  F ield         | OpenFOAM: The Open Source CFD Toolbox
   \\    /   O peration     | Website:  https://openfoam.org
    \\  /    A nd           | Version:  7
     \\/     M anipulation  |
\*---------------------------------------------------------------------------*/
FoamFile
{
    version     2.0;
    format      ascii;
    class       volScalarField;
    location    "0.5";
    object      T;
}
// * * * * * * * * * * * * * * * * * * * * * * * * * * * * * * * * * * * * * //

dimensions      [0 0 0 1 0 0 0];

internalField   nonuniform List<scalar> 
16128
(
1
1
1
1
1
1
1
1
1
1
1
1
1
1
1
1
1
1
1
1
1
1
1
1
1
1
1
1
1
1
1.92499
2.80664
2.8571
2.87584
2.88635
2.88958
2.89618
2.91349
2.93684
2.96514
2.99691
3.03461
3.09836
3.20225
3.33672
3.46159
3.53616
3.56189
1
1
1
1
1
1
1
1
1
1
1
1
1
1
1
1
1
1
1
1
1
1
1
1
1
1
1
1
1
1
1.91079
2.80045
2.85524
2.87533
2.88631
2.88923
2.8956
2.91304
2.93653
2.96527
2.99742
3.0355
3.10008
3.20455
3.33851
3.46186
3.53518
3.56049
1
1
1
1
1
1
1
1
1
1
1
1
1
1
1
1
1
1
1
1
1
1
1
1
1
1
1
1
1
1
1.87441
2.78707
2.85141
2.87362
2.88566
2.88807
2.89392
2.91152
2.9356
2.96535
2.99816
3.03685
3.10288
3.20856
3.3419
3.4627
3.53385
3.55838
1
1
1
1
1
1
1
1
1
1
1
1
1
1
1
1
1
1
1
1
1
1
1
1
1
1
1
1
1
1
1.82254
2.76468
2.84548
2.87065
2.88368
2.88567
2.89098
2.90881
2.93378
2.96468
2.99813
3.03707
3.1041
3.21062
3.34362
3.46255
3.53182
3.55561
1
1
1
1
1
1
1
1
1
1
1
1
1
1
1
1
1
1
1
1
1
1
1
1
1
1
1
1
1
1
1.75001
2.73036
2.83789
2.8656
2.88088
2.88226
2.88698
2.90492
2.93098
2.96289
2.99663
3.03519
3.10214
3.20874
3.34166
3.46002
3.52852
3.55203
1
1
1
1
1
1
1
1
1
1
1
1
1
1
1
1
1
1
1
1
1
1
1
1
1
1
1
1
1
1
1.64421
2.67731
2.83001
2.85996
2.87713
2.87777
2.88202
2.90003
2.92755
2.96005
2.99315
3.03039
3.09606
3.20185
3.33482
3.4538
3.52323
3.54712
1
1
1
1
1
1
1
1
1
1
1
1
1
1
1
1
1
1
1
1
1
1
1
1
1
1
1
1
1
1
1.48643
2.599
2.82446
2.85588
2.87232
2.87202
2.87596
2.89441
2.92359
2.95607
2.98771
3.02289
3.08581
3.18937
3.32225
3.44349
3.51562
3.54048
1
1
1
1
1
1
1
1
1
1
1
1
1
1
1
1
1
1
1
1
1
1
1
1
1
1
1
1
1
1
1.27804
2.4942
2.82118
2.8544
2.86611
2.8647
2.8686
2.88819
2.91896
2.95094
2.98071
3.01343
3.07246
3.17258
3.30488
3.42924
3.50533
3.53153
1
1
1
1
1
1
1
1
1
1
1
1
1
1
1
1
1
1
1
1
1
1
1
1
1
1
1
1
1
1
1.06143
2.37677
2.8258
2.85381
2.85627
2.85466
2.86017
2.88174
2.91338
2.94422
2.97188
3.00198
3.05643
3.15206
3.2832
3.41117
3.49236
3.52041
1
1
1
1
1
1
1
1
1
1
1
1
1
1
1
1
1
1
1
1
1
1
1
1
1
1
1
1
1
1
1.00068
2.26174
2.82816
2.84583
2.84415
2.84382
2.85172
2.87454
2.90607
2.93538
2.96098
2.98869
3.03833
3.12867
3.25775
3.38919
3.47597
3.50604
1
1
1
1
1
1
1
1
1
1
1
1
1
1
1
1
1
1
1
1
1
1
1
1
1
1
1
1
1
1
1
2.11722
2.81378
2.83225
2.83154
2.83372
2.84388
2.86676
2.89679
2.92401
2.94756
2.97309
3.0178
3.10204
3.22792
3.36263
3.45577
3.48866
1
1
1
1
1
1
1
1
1
1
1
1
1
1
1
1
1
1
1
1
1
1
1
1
1
1
1
1
1
1
1
1.9173
2.75924
2.81138
2.818
2.82559
2.83725
2.85866
2.88512
2.90954
2.93108
2.95477
2.99516
3.07358
3.19551
3.33222
3.43051
3.46496
1
1
1
1
1
1
1
1
1
1
1
1
1
1
1
1
1
1
1
1
1
1
1
1
1
1
1
1
1
1
1
1.64344
2.65519
2.78181
2.80454
2.81927
2.83139
2.84909
2.86997
2.89162
2.91187
2.93417
2.97042
3.04151
3.15678
3.29393
3.39773
3.43573
1
1
1
1
1
1
1
1
1
1
1
1
1
1
1
1
1
1
1
1
1
1
1
1
1
1
1
1
1
1
1
1.31131
2.51083
2.76487
2.79436
2.81231
2.82322
2.83533
2.85083
2.87029
2.8899
2.91107
2.94359
3.00709
3.11493
3.2512
3.3578
3.39039
1
1
1
1
1
1
1
1
1
1
1
1
1
1
1
1
1
1
1
1
1
1
1
1
1
1
1
1
1
1
1
1.03027
2.36551
2.74844
2.79259
2.81065
2.81536
2.8195
2.82789
2.84465
2.86493
2.88651
2.91573
2.96938
3.06277
3.18845
3.29549
3.33297
1
1
1
1
1
1
1
1
1
1
1
1
1
1
1
1
1
1
1
1
1
1
1
1
1
1
1
1
1
1
1
1.00019
2.16237
2.73133
2.78135
2.79924
2.80164
2.79993
2.80425
2.81807
2.83908
2.86036
2.88551
2.92725
3.00304
3.11592
3.23237
3.29977
1
1
1
1
1
1
1
1
1
1
1
1
1
1
1
1
1
1
1
1
1
1
1
1
1
1
1
1
1
1
1
1
1.83812
2.67339
2.76031
2.77575
2.78197
2.77921
2.78267
2.79421
2.81361
2.83359
2.85335
2.88324
2.93721
3.01561
3.06107
3.01078
1
1
1
1
1
1
1
1
1
1
1
1
1
1
1
1
1
1
1
1
1
1
1
1
1
1
1
1
1
1
1
1
1.36313
2.52551
2.75374
2.75244
2.7564
2.75276
2.75609
2.76927
2.7895
2.80767
2.81976
2.8351
2.86198
2.89594
2.90874
2.80376
1
1
1
1
1
1
1
1
1
1
1
1
1
1
1
1
1
1
1
1
1
1
1
1
1
1
1
1
1
1
1
1
1.02457
2.32414
2.71919
2.73708
2.74503
2.74062
2.73849
2.74784
2.76389
2.77855
2.78353
2.78599
2.78998
2.79787
2.76837
2.64602
1
1
1
1
1
1
1
1
1
1
1
1
1
1
1
1
1
1
1
1
1
1
1
1
1
1
1
1
1
1
1
1
1.00015
1.98683
2.65464
2.72091
2.73293
2.72945
2.72289
2.72585
2.73378
2.7436
2.74392
2.73824
2.72689
2.7103
2.65742
2.55052
1
1
1
1
1
1
1
1
1
1
1
1
1
1
1
1
1
1
1
1
1
1
1
1
1
1
1
1
1
1
1
1
1
1.47102
2.51544
2.69535
2.71238
2.71222
2.7044
2.70112
2.70372
2.70828
2.70581
2.69463
2.67593
2.63886
2.57818
2.49251
1
1
1
1
1
1
1
1
1
1
1
1
1
1
1
1
1
1
1
1
1
1
1
1
1
1
1
1
1
1
1
1
1
1.04349
2.30916
2.65597
2.68798
2.69211
2.68349
2.67411
2.67355
2.67503
2.67101
2.65677
2.63024
2.58429
2.52302
2.44651
1
1
1
1
1
1
1
1
1
1
1
1
1
1
1
1
1
1
1
1
1
1
1
1
1
1
1
1
1
1
1
1
1
1.00036
1.91703
2.57858
2.66035
2.67177
2.66327
2.65135
2.64473
2.64024
2.63313
2.61986
2.59162
2.54623
2.48988
2.42108
1
1
1
1
1
1
1
1
1
1
1
1
1
1
1
1
1
1
1
1
1
1
1
1
1
1
1
1
1
1
1
1
1
1
1.29541
2.40506
2.63139
2.64201
2.64234
2.63312
2.6202
2.60872
2.59838
2.58341
2.55816
2.51806
2.46657
2.40279
1
1
1
1
1
1
1
1
1
1
1
1
1
1
1
1
1
1
1
1
1
1
1
1
1
1
1
1
1
1
1
1
1
1
1.01496
2.13104
2.55791
2.60847
2.62338
2.6154
2.60022
2.58352
2.56703
2.54836
2.52489
2.49181
2.44787
2.39188
1
1
1
1
1
1
1
1
1
1
1
1
1
1
1
1
1
1
1
1
1
1
1
1
1
1
1
1
1
1
1
1
1
1
1.00004
1.55785
2.43642
2.58413
2.59568
2.5917
2.57998
2.56202
2.54148
2.51907
2.49473
2.4657
2.42776
2.37974
1
1
1
1
1
1
1
1
1
1
1
1
1
1
1
1
1
1
1
1
1
1
1
1
1
1
1
1
1
1
1
1
1
1
1
1.06184
2.20698
2.54071
2.56008
2.56411
2.55775
2.54129
2.51905
2.494
2.46763
2.44004
2.40697
2.36691
1
1
1
1
1
1
1
1
1
1
1
1
1
1
1
1
1
1
1
1
1
1
1
1
1
1
1
1
1
1
1
1
1
1
1
1.00063
1.66736
2.43168
2.53621
2.5316
2.52768
2.51739
2.49896
2.47488
2.44698
2.41882
2.38801
2.35291
1
1
1
1
1
1
1
1
1
1
1
1
1
1
1
1
1
1
1
1
1
1
1
1
1
1
1
1
1
1
1
1
1
1
1
1
1.09576
2.19494
2.49152
2.49359
2.4949
2.48977
2.47668
2.45669
2.43096
2.40264
2.37145
2.33834
1
1
1
1
1
1
1
1
1
1
1
1
1
1
1
1
1
1
1
1
1
1
1
1
1
1
1
1
1
1
1
1
1
1
1
1
1.00145
1.61601
2.36649
2.47501
2.46609
2.46202
2.45296
2.43807
2.41582
2.38801
2.35696
2.32543
1
1
1
1
1
1
1
1
1
1
1
1
1
1
1
1
1
1
1
1
1
1
1
1
1
1
1
1
1
1
1
1
1
1
1
1
1
1.07863
2.10071
2.42436
2.43097
2.42877
2.42435
2.41454
2.39698
2.37249
2.34371
2.31344
1
1
1
1
1
1
1
1
1
1
1
1
1
1
1
1
1
1
1
1
1
1
1
1
1
1
1
1
1
1
1
1
1
1
1
1
1
1.00097
1.45294
2.27144
2.41833
2.40513
2.39788
2.3868
2.3724
2.35331
2.32931
2.30179
1
1
1
1
1
1
1
1
1
1
1
1
1
1
1
1
1
1
1
1
1
1
1
1
1
1
1
1
1
1
1
1
1
1
1
1
1
1
1.03879
1.90439
2.33438
2.38534
2.37058
2.36115
2.34985
2.33475
2.31469
2.28966
1
1
1
1
1
1
1
1
1
1
1
1
1
1
1
1
1
1
1
1
1
1
1
1
1
1
1
1
1
1
1
1
1
1
1
1
1
1
1.00032
1.25536
2.1267
2.36002
2.34498
2.32982
2.31877
2.30715
2.29166
2.27086
1
1
1
1
1
1
1
1
1
1
1
1
1
1
1
1
1
1
1
1
1
1
1
1
1
1
1
1
1
1
1
1
1
1
1
1
1
1
1
1.00992
1.58193
2.22577
2.32952
2.30878
2.29945
2.28542
2.26706
2.24674
1
1
1
1
1
1
1
1
1
1
1
1
1
1
1
1
1
1
1
1
1
1
1
1
1
1
1
1
1
1
1
1
1
1
1
1
1
1
1
1.00004
1.07513
1.86139
2.24321
2.29365
2.27426
2.26064
2.24515
2.22883
1
1
1
1
1
1
1
1
1
1
1
1
1
1
1
1
1
1
1
1
1
1
1
1
1
1
1
1
1
1
1
1
1
1
1
1
1
1
1
1
1.00103
1.24831
2.0104
2.25804
2.24838
2.23296
2.22111
2.20702
1
1
1
1
1
1
1
1
1
1
1
1
1
1
1
1
1
1
1
1
1
1
1
1
1
1
1
1
1
1
1
1
1
1
1
1
1
1
1
1
1
1.00982
1.46168
2.09085
2.23095
2.21707
2.20093
2.1855
1
1
1
1
1
1
1
1
1
1
1
1
1
1
1
1
1
1
1
1
1
1
1
1
1
1
1
1
1
1
1
1
1
1
1
1
1
1
1
1
1
1.00005
1.04384
1.64164
2.11937
2.20363
2.18628
2.16967
1
1
1
1
1
1
1
1
1
1
1
1
1
1
1
1
1
1
1
1
1
1
1
1
1
1
1
1
1
1
1
1
1
1
1
1
1
1
1
1
1
1
1.00046
1.11361
1.76083
2.11857
2.1738
2.15444
1
1
1
1
1
1
1
1
1
1
1
1
1
1
1
1
1
1
1
1
1
1
1
1
1
1
1
1
1
1
1
1
1
1
1
1
1
1
1
1
1
1
1
1.00233
1.20425
1.83158
2.10033
2.14262
1
1
1
1
1
1
1
1
1
1
1
1
1
1
1
1
1
1
1
1
1
1
1
1
1
1
1
1
1
1
1
1
1
1
1
1
1
1
1
1
1
1
1
1.00001
1.00732
1.29227
1.86752
2.07409
1
1
1
1
1
1
1
1
1
1
1
1
1
1
1
1
1
1
1
1
1
1
1
1
1
1
1
1
1
1
1
1
1
1
1
1
1
1
1
1
1
1
1
1
1.00004
1.01605
1.36275
1.87806
1
1
1
1
1
1
1
1
1
1
1
1
1
1
1
1
1
1
1
1
1
1
1
1
1
1
1
1
1
1
1
1
1
1
1
1
1
1
1
1
1
1
1
1
1
1.00011
1.02741
1.40749
1
1
1
1
1
1
1
1
1
1
1
1
1
1
1
1
1
1
1
1
1
1
1
1
1
1
1
1
1
1
1
1
1
1
1
1
1
1
1
1
1
1
1
1
1
1
1.00025
1.03811
1
1
1
1
1
1
1
1
1
1
1
1
1
1
1
1
1
1
1
1
1
1
1
1
1
1
1
1
1
1
1
1
1
1
1
1
1
1
1
1
1
1
1
1
1
1
1
1.00043
1
1
1
1
1
1
1
1
1
1
1
1
1
1
1
1
1
1
1
1
1
1
1
1
1
1
1
1
1
1
1
1
1
1
1
1
1
1
1
1
1
1
1
1
1
1
1
1
1
1
1
1
1
1
1
1
1
1
1
1
1
1
1
1
1
1
1
1
1
1
1
1
1
1
1
1
1
1
1
1
1
1
1
1
1
1
1
1
1
1
1
1
1
1
1
1
1
1
1
1
1
1
1
1
1
1
1
1
1
1
1
1
1
1
1
1
1
1
1
1
1
1
1
1
1
1
1
1
1
1
1
1
1
1
1
1
1
1
1
1
1
1
1
1
1
1
1
1
1
1
1
1
1
1
1
1
1
1
1
1
1
1
1
1
1
1
1
1
1
1
1
1
1
1
1
1
1
1
1
1
1
1
1
1
1
1
1
1
1
1
1
1
1
1
1
1
1
1
1
1
1
1
1
1
1
1
1
1
1
1
1
1
1
1
1
1
1
1
1
1
1
1
1
1
1
1
1
1
1
1
1
1
1
1
1
1
1
1
1
1
1
1
1
1
1
1
1
1
1
1
1
1
1
1
1
1
1
1
1
1
1
1
1
1
1
1
1
1
1
1
1
1
1
1
1
1
1
1
1
1
1
1
1
1
1
1
1
1
1
1
1
1
1
1
1
1
1
1
1
1
1
1
1
1
1
1
1
1
1
1
1
1
1
1
1
1
1
1
1
1
1
1
1
1
1
1
1
1
1
1
1
1
1
1
1
1
1
1
1
1
1
1
1
1
1
1
1
1
1
1
1
1
1
1
1
1
1
1
1
1
1
1
1
1
1
1
1
1
1
1
1
1
1
1
1
1
1
1
1
1
1
1
1
1
1
1
1
1
1
1
1
1
1
1
1
1
1
1
1
1
1
1
1
1
1
1
1
1
1
1
1
1
1
1
1
1
1
1
1
1
1
1
1
1
1
1
1
1
1
1
1
1
1
1
1
1
1
1
1
1
1
1
1
1
1
1
1
1
1
1
1
1
1
1
1
1
1
1
1
1
1
1
1
1
1
1
1
1
1
1
1
1
1
1
1
1
1
1
1
1
1
1
1
1
1
1
1
1
1
1
1
1
1
1
1
1
1
1
1
1
1
1
1
1
1
1
1
1
1
1
1
1
1
1
1
1
1
1
1
1
1
1
1
1
1
1
1
1
1
1
1
1
1
1
1
1
1
1
1
1
1
1
1
1
1
1
1
1
1
1
1
1
1
1
1
1
1
1
1
1
1
1
1
1
1
1
1
1
1
1
1
1
1
1
1
1
1
1
1
1
1
1
1
1
1
1
1
1
1
1
1
1
1
1
1
1
1
1
1
1
1
1
1
1
1
1
1
1
1
1
1
1
1
1
1
1
1
1
1
1
1
1
1
1
1
1
1
1
1
1
1
1
1
1
1
1
1
1
1
1
1
1
1
1
1
1
1
1
1
1
1
1
1
1
1
1
1
1
1
1
1
1
1
1
1
1
1
1
1
1
1
1
1
1
1
1
1
1
1
1
1
1
1
1
1
1
1
1
1
1
1
1
1
1
1
1
1
1
1
1
1
1
1
1
1
1
1
1
1
1
1
1
1
1
1
1
1
1
1
1
1
1
1
1
1
1
1
1
1
1
1
1
1
1
1
1
1
1
1
1
1
1
1
1
1
1
1
1
1
1
1
1
1
1
1
1
1
1
1
1
1
1
1
1
1
1
1
1
1
1
1
1
1
1
1
1
1
1
1
1
1
1
1
1
1
1
1
1
1
1
1
1
1
1
1
1
1
1
1
1
1
1
1
1
1
1
1
1
1
1
1
1
1
1
1
1
1
1
1
1
1
1
1
1
1
1
1
1
1
1
1
1
1
1
1
1
1
1
1
1
1
1
1
1
1
1
1
1
1
1
1
1
1
1
1
1
1
1
1
1
1
1
1
1
1
1
1
1
1
1
1
1
1
1
1
1
1
1
1
1
1
1
1
1
1
1
1
1
1
1
1
1
1
1
1
1
1
1
1
1
1
1
1
1
1
1
1
1
1
1
1
1
1
1
1
1
1
1
1
1
1
1
1
1
1
1
1
1
1
1
1
1
1
1
1
1
1
1
1
1
1
1
1
1
1
1
1
1
1
1
1
1
1
1
1
1
1
1
1
1
1
1
1
1
1
1
1
1
1
1
1
1
1
1
1
1
1
1
1
1
1
1
1
1
1
1
1
1
1
1
1
1
1
1
1
1
1
1
1
1
1
1
1
1
1
1
1
1
1
1
1
1
1
1
1
1
1
1
1
1
1
1
1
1
1
1
1
1
1
1
1
1
1
1
1
1
1
1
1
1
1
1
1
1
1
1
1
1
1
1
1
1
1
1
1
1
1
1
1
1
1
1
1
1
1
1
1
1
1
1
1
1
1
1
1
1
1
1
1
1
1
1
1
1
1
1
1
1
1
1
1
1
1
1
1
1
1
1
1
1
1
1
1
1
1
1
1
1
1
1
1
1
1
1
1
1
1
1
1
1
1
1
1
1
1
1
1
1
1
1
1
1
1
1
1
1
1
1
1
1
1
1
1
1
1
1
1
1
1
1
1
1
1
1
1
1
1
1
1
1
1
1
1
1
1
1
1
1
1
1
1
1
1
1
1
1
1
1
1
1
1
1
1
1
1
1
1
1
1
1
1
1
1
1
1
1
1
1
1
1
1
1
1
1
1
1
1
1
1
1
1
1
1
1
1
1
1
1
1
1
1
1
1
1
1
1
1
1
1
1
1
1
1
1
1
1
1
1
1
1
1
1
1
1
1
1
1
1
1
1
1
1
1
1
1
1
1
1
1
1
1
1
1
1
1
1
1
1
1
1
1
1
1
1
1
1
1
1
1
1
1
1
1
1
1
1
1
1
1
1
1
1
1
1
1
1
1
1
1
1
1
1
1
1
1
1
1
1
1
1
1
1
1
1
1
1
1
1
1
1
1
1
1
1
1
1
1
1
1
1
1
1
1
1
1
1
1
1
1
1
1
1
1
1
1
1
1
1
1
1
1
1
1
1
1
1
1
1
1
1
1
1
1
1
1
1
1
1
1
1
1
1
1
1
1
1
1
1
1
1
1
1
1
1
1
1
1
1
1
1
1
1
1
1
1
1
1
1
1
1
1
1
1
1
1
1
1
1
1
1
1
1
1
1
1
1
1
1
1
1
1
1
1
1
1
1
1
1
1
1
1
1
1
1
1
1
1
1
1
1
1
1
1
1
1
1
1
1
1
1
1
1
1
1
1
1
1
1
1
1
1
1
1
1
1
1
1
1
1
1
1
1
1
1
1
1
1
1
1
1
1
1
1
1
1
1
1
1
1
1
1
1
1
1
1
1
1
1
1
1
1
1
1
1
1
1
1
1
1
1
1
1
1
1
1
1
1
1
1
1
1
1
1
1
1
1
1
1
1
1
1
1
1
1
1
1
1
1
1
1
1
1
1
1
1
1
1
1
1
1
1
1
1
1
1
1
1
1
1
1
1
1
1
1
1
1
1
1
1
1
1
1
1
1
1
1
1
1
1
1
1
1
1
1
1
1
1
1
1
1
1
1
1
1
1
1
1
1
1
1
1
1
1
1
1
1
1
1
1
1
1
1
1
1
1
1
1
1
1
1
1
1
1
1
1
1
1
1
1
1
1
1
1.99467
1.34396
0.802405
0.589197
0.920555
1.33191
1.43778
1.50433
1.64789
1.78588
1.81625
1.80348
1.80321
1.8179
1.83621
1.86931
1.93276
2.0036
2.0192
2.01263
1.98708
1.96593
1.96584
1.97411
1.98869
2.00596
2.00932
2.00018
1.97692
1.9707
1.97664
1.99369
2.0032
2.00442
2.00012
1.98838
1.98269
1.98095
1.98148
1.98198
1.98004
1.97612
1.97025
1.96162
1.95707
1.95214
1.94726
1.94442
1.94043
1.93669
1.93673
1.93433
1.92936
1.92476
1.91883
1.91602
1.91541
1.91488
1.91338
1.90984
1.90489
1.89653
1.88907
1.88673
1.88525
1.88345
1.88281
1.88272
1.88052
1.87524
1.86931
1.86558
1.86612
1.86687
1.86859
1.87304
1.87866
1.88122
1.88109
1.8802
1.87859
1.87622
1.87353
1.87173
1.86746
1.85969
1.85437
1.85104
1.84947
1.84572
1.83965
1.83166
1.81756
1.79167
1.75737
1.72082
1.69298
1.67956
1.67504
1.67404
1.67424
1.67415
1.67103
1.65865
1.63203
1.58945
1.53191
1.45643
1.35575
1.22736
1.09889
1.02148
0.994252
0.986486
0.984356
0.984452
0.984865
0.985962
0.992114
1.00001
1.00128
1.0013
1.00201
1.00289
1.00356
1.00408
1.00481
1.00541
1.0059
1.00721
1.00861
1.00877
1.00848
1.00805
1.0076
1.00705
1.00622
1.00473
1.00283
1.00196
1.00186
1.00184
1.00184
1.00184
1.00187
1.00209
1.00286
1.00478
1.00818
1.01093
1.01147
1.01149
1.0115
1.01139
1.01089
1.00948
1.00632
1.00213
1.00018
1
1
1
1
1
1
1
1
1
1
1
1
1
1
1
1
1
1
1
1
1
1
1
1
1
1
1
1
1
1
1
1
1
2.27982
1.92226
1.73332
1.51285
1.33564
1.3987
1.38252
1.36868
1.39223
1.40388
1.41437
1.44235
1.45988
1.49645
1.56225
1.63217
1.68837
1.73006
1.76332
1.80285
1.83207
1.84534
1.85987
1.87584
1.89351
1.92293
1.93183
1.92642
1.91433
1.91133
1.92025
1.93857
1.94642
1.94664
1.94521
1.93982
1.93899
1.94031
1.94528
1.94814
1.94718
1.94471
1.93961
1.93194
1.92806
1.92497
1.92044
1.91774
1.91601
1.91507
1.91678
1.91713
1.9131
1.90911
1.90379
1.8954
1.8889
1.88603
1.88481
1.88419
1.88251
1.88045
1.87724
1.87494
1.87382
1.87233
1.871
1.86984
1.86667
1.86186
1.85724
1.85372
1.85409
1.85459
1.85603
1.86118
1.86669
1.86788
1.86777
1.86667
1.86533
1.86327
1.8606
1.85792
1.85541
1.85305
1.85013
1.84787
1.84487
1.8403
1.83393
1.82479
1.81056
1.7876
1.75315
1.71521
1.68748
1.6748
1.67026
1.66812
1.66731
1.6664
1.66278
1.65015
1.62306
1.57967
1.51951
1.44383
1.35
1.23324
1.10596
1.01931
0.990542
0.984301
0.983069
0.983157
0.983544
0.984607
0.989852
0.997646
0.999843
0.999947
1.00065
1.00175
1.00266
1.00348
1.0043
1.00488
1.00534
1.00643
1.0079
1.00831
1.00812
1.00771
1.00725
1.00676
1.00603
1.00466
1.00279
1.00186
1.00177
1.00177
1.00177
1.00178
1.00182
1.00206
1.00279
1.00466
1.00818
1.01099
1.01152
1.01153
1.01151
1.01139
1.01095
1.00963
1.00643
1.00209
1.00016
1
1
1
1
1
1
1
1
1
1
1
1
1
1
1
1
1
1
1
1
1
1
1
1
1
1
1
1
1
1
1
1
1
2.32862
2.05141
1.91745
1.77294
1.65562
1.59577
1.51997
1.40908
1.36309
1.35717
1.32552
1.31982
1.33784
1.37073
1.40765
1.43969
1.45892
1.47876
1.50706
1.55416
1.61605
1.65778
1.69204
1.72725
1.75646
1.78552
1.80018
1.80962
1.81073
1.81173
1.8264
1.84193
1.84344
1.84149
1.84205
1.84548
1.84604
1.84636
1.85069
1.85683
1.86101
1.86237
1.86193
1.85933
1.85946
1.85973
1.85714
1.85328
1.85308
1.8531
1.85471
1.85703
1.85575
1.8552
1.85511
1.8528
1.84466
1.83292
1.82469
1.82271
1.82293
1.82386
1.82498
1.82692
1.829
1.83099
1.83194
1.83139
1.82892
1.82519
1.81988
1.81455
1.81421
1.8146
1.8155
1.81978
1.82655
1.83104
1.83377
1.83528
1.83532
1.83255
1.82845
1.82388
1.81959
1.81797
1.81853
1.81912
1.81853
1.81671
1.81333
1.80696
1.79559
1.7756
1.74402
1.70698
1.67502
1.65555
1.64753
1.64607
1.64615
1.64543
1.64033
1.62607
1.59858
1.55557
1.49895
1.43073
1.34605
1.23824
1.11862
1.02666
0.991307
0.98506
0.984518
0.984676
0.98532
0.987352
0.993004
0.999074
1.00047
1.00077
1.00179
1.00298
1.00388
1.00466
1.00527
1.00559
1.00581
1.00664
1.008
1.00847
1.00828
1.00782
1.00732
1.00682
1.00613
1.00487
1.00304
1.00198
1.00185
1.00184
1.00184
1.00184
1.00187
1.0021
1.00285
1.00478
1.0083
1.01108
1.01159
1.01161
1.0116
1.01149
1.01098
1.00949
1.00614
1.00188
1.00013
1
1
1
1
1
1
1
1
1
1
1
1
1
1
1
1
1
1
1
1
1
1
1
1
1
1
1
1
1
1
1
1
1
2.34175
2.17755
2.04755
1.90917
1.78887
1.73413
1.66339
1.56368
1.50832
1.48361
1.43903
1.40203
1.40127
1.39064
1.37127
1.35747
1.35878
1.36259
1.36836
1.38563
1.43444
1.48951
1.53572
1.5769
1.60899
1.62654
1.63978
1.6634
1.68799
1.70463
1.72549
1.73795
1.742
1.74499
1.74641
1.74907
1.74994
1.749
1.75031
1.75408
1.75931
1.76329
1.76608
1.76805
1.77045
1.77325
1.77322
1.77139
1.77126
1.77232
1.77344
1.77443
1.77338
1.77357
1.77449
1.77447
1.77109
1.7626
1.75374
1.74929
1.74857
1.74856
1.74928
1.75187
1.75533
1.75866
1.7619
1.76339
1.76317
1.76203
1.75932
1.75365
1.75026
1.75083
1.75154
1.75361
1.75908
1.76414
1.76736
1.77059
1.77357
1.77542
1.77553
1.77424
1.7714
1.76885
1.76745
1.76652
1.76405
1.76015
1.75716
1.75435
1.74973
1.74018
1.72143
1.69264
1.66099
1.63412
1.61564
1.60526
1.59915
1.59324
1.58432
1.56938
1.54491
1.50779
1.45807
1.3982
1.32666
1.23566
1.12837
1.03716
0.993648
0.983991
0.982275
0.9821
0.983958
0.989295
0.995878
0.999156
0.999762
1.00071
1.00238
1.00384
1.00473
1.00535
1.0057
1.00579
1.00586
1.00648
1.00777
1.00825
1.00807
1.00764
1.00713
1.00663
1.00602
1.00496
1.00326
1.00206
1.00187
1.00186
1.00186
1.00186
1.00188
1.00209
1.00285
1.00486
1.0085
1.0113
1.0118
1.01182
1.01181
1.01166
1.01108
1.00942
1.00579
1.00158
1.00009
1
1
1
1
1
1
1
1
1
1
1
1
1
1
1
1
1
1
1
1
1
1
1
1
1
1
1
1
1
1
1
1
1
2.35287
2.21929
2.11187
2.01507
1.92345
1.84062
1.75063
1.65986
1.62053
1.59328
1.55267
1.50379
1.48128
1.45512
1.41343
1.37892
1.37874
1.37299
1.35869
1.36367
1.37534
1.38268
1.39086
1.41343
1.45244
1.48649
1.5144
1.55101
1.58885
1.61557
1.62815
1.63689
1.64758
1.65831
1.66568
1.67658
1.6902
1.69209
1.6927
1.69422
1.69432
1.69264
1.69045
1.69032
1.69076
1.69285
1.69626
1.7002
1.70353
1.7051
1.70561
1.70482
1.70307
1.70175
1.70017
1.6978
1.69421
1.68901
1.68353
1.67953
1.6769
1.67559
1.67595
1.67779
1.6808
1.68391
1.68683
1.68976
1.69077
1.69067
1.6903
1.68759
1.68272
1.68243
1.6827
1.68301
1.68563
1.68986
1.6924
1.69493
1.69729
1.69915
1.6998
1.69969
1.69991
1.70162
1.7031
1.70251
1.69802
1.69041
1.6845
1.68085
1.67838
1.67523
1.66864
1.65599
1.63636
1.61174
1.58657
1.56395
1.54437
1.52684
1.50924
1.48892
1.46298
1.42903
1.38623
1.33542
1.27783
1.21013
1.1267
1.04362
0.995339
0.983205
0.98204
0.982401
0.986309
0.993303
0.996761
0.997836
0.998813
1.00016
1.00218
1.00378
1.00471
1.00518
1.00538
1.00552
1.00586
1.00643
1.00726
1.00793
1.00803
1.00777
1.00726
1.00673
1.00614
1.00519
1.00357
1.00217
1.00188
1.00187
1.00186
1.00186
1.00188
1.00209
1.00287
1.00494
1.00868
1.01152
1.01203
1.01205
1.01204
1.01186
1.01118
1.00928
1.00531
1.00124
1.00005
1
1
1
1
1
1
1
1
1
1
1
1
1
1
1
1
1
1
1
1
1
1
1
1
1
1
1
1
1
1
1
1
1
2.34572
2.25317
2.15568
2.06048
1.99388
1.91584
1.84007
1.76604
1.71496
1.66531
1.61827
1.58287
1.5628
1.53486
1.4854
1.44959
1.43672
1.41881
1.38944
1.38
1.37728
1.37015
1.36214
1.35772
1.36091
1.36831
1.38298
1.41509
1.46514
1.52035
1.54521
1.55606
1.57422
1.59441
1.60517
1.61527
1.63026
1.64557
1.65016
1.65158
1.65142
1.64687
1.63874
1.63504
1.63566
1.63923
1.64589
1.6541
1.65821
1.65808
1.65615
1.65275
1.64911
1.64572
1.64255
1.63957
1.63701
1.63502
1.63293
1.62909
1.62293
1.61891
1.61884
1.61955
1.62099
1.62249
1.62367
1.62584
1.62807
1.62836
1.62811
1.62671
1.62239
1.62098
1.62128
1.6208
1.62089
1.62271
1.62532
1.62826
1.62985
1.62995
1.62965
1.62853
1.6287
1.63163
1.63439
1.63346
1.62885
1.62102
1.61405
1.61012
1.60785
1.60626
1.60504
1.6021
1.59368
1.57661
1.55194
1.5233
1.49413
1.46625
1.43908
1.41052
1.37836
1.34125
1.29935
1.25445
1.20814
1.159
1.10223
1.04086
0.997327
0.984481
0.983605
0.985166
0.990903
0.995005
0.995837
0.996575
0.997678
0.999639
1.00266
1.0047
1.00558
1.00592
1.00606
1.00622
1.00638
1.00656
1.00685
1.00735
1.00756
1.00742
1.00707
1.00667
1.00624
1.00549
1.00394
1.00229
1.00186
1.00184
1.00183
1.00183
1.00185
1.00209
1.00293
1.00513
1.00902
1.01184
1.01232
1.01234
1.01232
1.01209
1.01127
1.00903
1.00471
1.0009
1.00003
1
1
1
1
1
1
1
1
1
1
1
1
1
1
1
1
1
1
1
1
1
1
1
1
1
1
1
1
1
1
1
1
1
2.338
2.26322
2.18054
2.10185
2.03446
1.96469
1.88995
1.83606
1.7914
1.73886
1.67708
1.63842
1.61515
1.58269
1.54001
1.5062
1.48961
1.47013
1.43593
1.4176
1.41299
1.40183
1.37804
1.35588
1.35101
1.35221
1.35047
1.35269
1.36578
1.39687
1.43261
1.4571
1.48001
1.51191
1.53612
1.55178
1.57424
1.59881
1.60836
1.61175
1.61332
1.61122
1.60394
1.60083
1.60305
1.60789
1.61563
1.62231
1.62427
1.62434
1.62031
1.61386
1.61009
1.60747
1.60535
1.6036
1.60204
1.60048
1.59766
1.59052
1.58238
1.57968
1.57909
1.57857
1.5782
1.57793
1.57764
1.57852
1.58017
1.58036
1.5796
1.57772
1.5743
1.57163
1.57092
1.56992
1.56905
1.56913
1.57126
1.57514
1.57539
1.57448
1.57267
1.56973
1.56851
1.5701
1.57178
1.57029
1.56598
1.55896
1.5507
1.54528
1.54383
1.54411
1.546
1.54647
1.54351
1.53231
1.51113
1.48193
1.44829
1.41333
1.37837
1.34309
1.30632
1.26651
1.22294
1.17805
1.13619
1.09894
1.06351
1.02742
0.998176
0.987579
0.986739
0.988237
0.992763
0.994962
0.995433
0.99605
0.996716
0.998773
1.00251
1.00496
1.00565
1.00623
1.00675
1.00689
1.00687
1.0067
1.00661
1.00668
1.00696
1.00708
1.00699
1.00676
1.00644
1.00579
1.00432
1.00245
1.0018
1.00176
1.00175
1.00174
1.00177
1.00203
1.00294
1.00536
1.00948
1.01224
1.01265
1.01267
1.01264
1.01234
1.01133
1.00866
1.00398
1.00059
1.00001
1
1
1
1
1
1
1
1
1
1
1
1
1
1
1
1
1
1
1
1
1
1
1
1
1
1
1
1
1
1
1
1
1
2.33314
2.26699
2.1924
2.1281
2.06779
2.00497
1.9339
1.87996
1.82727
1.78049
1.7331
1.70006
1.66754
1.63037
1.58213
1.55108
1.53661
1.51985
1.49368
1.47215
1.46266
1.44458
1.41377
1.38511
1.37502
1.3662
1.34738
1.34108
1.34778
1.35823
1.35927
1.36115
1.36995
1.39271
1.42976
1.46731
1.49973
1.54086
1.56303
1.57021
1.57616
1.57727
1.57365
1.57038
1.57457
1.58275
1.59347
1.5987
1.5981
1.59646
1.59012
1.58423
1.58232
1.58146
1.58075
1.57934
1.57751
1.57364
1.56478
1.55394
1.5488
1.54854
1.54854
1.54839
1.54767
1.54639
1.54561
1.54527
1.54389
1.54123
1.53863
1.53639
1.53351
1.53094
1.5295
1.52857
1.52818
1.52808
1.53
1.53416
1.5339
1.53163
1.52779
1.52311
1.51863
1.51802
1.51798
1.5168
1.51385
1.5089
1.50187
1.49533
1.49311
1.49334
1.49458
1.49451
1.49116
1.48146
1.46417
1.43886
1.40651
1.37005
1.33235
1.29401
1.25319
1.20746
1.15843
1.11305
1.07754
1.05225
1.0328
1.01458
0.998588
0.990661
0.989319
0.99039
0.993856
0.995244
0.995526
0.996044
0.996847
0.998929
1.00269
1.00571
1.00677
1.00708
1.00727
1.00722
1.00689
1.00642
1.00621
1.00625
1.00661
1.00702
1.00704
1.00698
1.00676
1.00616
1.00464
1.00256
1.00175
1.00169
1.00167
1.00165
1.00166
1.00191
1.00295
1.00571
1.01012
1.01269
1.01301
1.01303
1.01298
1.0126
1.01132
1.00811
1.00315
1.00033
1
1
1
1
1
1
1
1
1
1
1
1
1
1
1
1
1
1
1
1
1
1
1
1
1
1
1
1
1
1
1
1
1
1
2.33057
2.26942
2.20363
2.14498
2.08952
2.02808
1.9669
1.91899
1.86898
1.81766
1.76979
1.73962
1.7043
1.67238
1.63662
1.60206
1.57691
1.55359
1.52447
1.50731
1.49763
1.47856
1.44751
1.41698
1.4079
1.40128
1.38344
1.35882
1.35632
1.35554
1.34798
1.34381
1.34702
1.34914
1.35221
1.36713
1.39639
1.43992
1.48036
1.4994
1.51507
1.53667
1.54237
1.53868
1.54386
1.55557
1.5695
1.57602
1.5754
1.57178
1.56501
1.5616
1.56069
1.56088
1.55973
1.55737
1.55364
1.5448
1.53105
1.52268
1.52128
1.52127
1.52153
1.52314
1.5235
1.52212
1.51904
1.51512
1.51042
1.50606
1.5027
1.50003
1.4976
1.4959
1.49489
1.49422
1.49391
1.49384
1.49513
1.49845
1.49802
1.49512
1.48988
1.48322
1.47652
1.47287
1.47177
1.47084
1.46905
1.46597
1.46139
1.4559
1.45186
1.45001
1.44842
1.44512
1.43853
1.42794
1.41252
1.39078
1.36237
1.32936
1.29392
1.25467
1.20815
1.15586
1.10679
1.0698
1.04699
1.03276
1.02003
1.00754
0.998063
0.99255
0.990835
0.991643
0.994977
0.996299
0.996348
0.99636
0.996786
0.999037
1.00279
1.00615
1.00764
1.00762
1.00737
1.00718
1.00668
1.006
1.00569
1.00574
1.00632
1.00714
1.00734
1.00733
1.00717
1.00654
1.00484
1.00253
1.0016
1.00152
1.0015
1.00148
1.00151
1.00186
1.00311
1.00629
1.01092
1.0132
1.01343
1.01344
1.01336
1.01285
1.0112
1.00733
1.00228
1.00016
1
1
1
1
1
1
1
1
1
1
1
1
1
1
1
1
1
1
1
1
1
1
1
1
1
1
1
1
1
1
1
1
1
1
2.32708
2.27111
2.21328
2.16116
2.10788
2.04707
1.99547
1.94566
1.89779
1.84959
1.8133
1.77995
1.73938
1.69966
1.6703
1.6434
1.61935
1.59946
1.56923
1.5381
1.52471
1.50586
1.47905
1.45062
1.44306
1.43856
1.42599
1.39975
1.38796
1.38177
1.36819
1.34755
1.33869
1.33998
1.33958
1.33481
1.33639
1.34553
1.36566
1.38816
1.41157
1.44396
1.48523
1.50479
1.5133
1.52544
1.54176
1.54807
1.54735
1.54623
1.5452
1.54342
1.54312
1.54244
1.53985
1.53563
1.5276
1.51362
1.50176
1.49801
1.49654
1.4958
1.49729
1.50026
1.49977
1.49631
1.49174
1.48547
1.47867
1.47412
1.47069
1.46785
1.46604
1.46472
1.46313
1.46249
1.46165
1.46068
1.46114
1.46329
1.4629
1.46021
1.45472
1.4469
1.43897
1.43393
1.43185
1.43066
1.42924
1.42709
1.42379
1.41909
1.41399
1.40948
1.40447
1.39759
1.38835
1.37655
1.36107
1.34075
1.31617
1.28854
1.2558
1.2136
1.16263
1.11163
1.07186
1.04883
1.03515
1.02179
1.00991
1.00219
0.99737
0.99423
0.993261
0.994429
0.997185
0.997721
0.997613
0.99751
0.997919
0.999859
1.00324
1.00647
1.00754
1.00755
1.0072
1.00679
1.00631
1.00584
1.0057
1.00578
1.00651
1.00752
1.00776
1.00775
1.00756
1.00684
1.00495
1.00242
1.00141
1.00133
1.0013
1.00128
1.00133
1.00175
1.00332
1.00709
1.01186
1.01374
1.01389
1.0139
1.01377
1.01307
1.01091
1.00629
1.00146
1.00006
1
1
1
1
1
1
1
1
1
1
1
1
1
1
1
1
1
1
1
1
1
1
1
1
1
1
1
1
1
1
1
1
1
1
2.32195
2.27102
2.21941
2.17192
2.11949
2.06336
2.01847
1.97337
1.92661
1.8769
1.8443
1.80885
1.77506
1.73871
1.70898
1.67611
1.64619
1.62727
1.6043
1.57471
1.55428
1.53332
1.50437
1.47456
1.47001
1.4676
1.45779
1.43819
1.41907
1.40748
1.39319
1.3701
1.35446
1.35045
1.34482
1.33538
1.32808
1.33013
1.32705
1.3196
1.32278
1.33809
1.37508
1.42688
1.45803
1.48178
1.50852
1.51666
1.51573
1.51845
1.52542
1.52812
1.52789
1.52568
1.5203
1.51172
1.50033
1.48632
1.47949
1.47725
1.47532
1.47463
1.47718
1.47799
1.47491
1.46969
1.4635
1.4559
1.44967
1.44524
1.4419
1.43926
1.43744
1.43474
1.4311
1.43017
1.42903
1.42684
1.42674
1.42813
1.42801
1.4259
1.42029
1.41171
1.40345
1.39774
1.39452
1.3928
1.39167
1.39008
1.38698
1.38163
1.37528
1.36893
1.36164
1.35234
1.34091
1.32731
1.31084
1.29161
1.27112
1.24721
1.21323
1.1683
1.12023
1.07951
1.0542
1.03926
1.02433
1.0117
1.0032
0.997981
0.995163
0.99384
0.994422
0.997983
1.00003
0.999913
0.999422
0.999167
0.999477
1.00081
1.00363
1.00633
1.00699
1.00697
1.00673
1.00621
1.00576
1.00546
1.0054
1.00576
1.00708
1.00812
1.00825
1.00822
1.00793
1.00701
1.00489
1.00223
1.00124
1.00117
1.00115
1.00113
1.00121
1.00178
1.00375
1.00817
1.01289
1.0143
1.01438
1.01438
1.01417
1.01319
1.01034
1.00501
1.00081
1.00002
1
1
1
1
1
1
1
1
1
1
1
1
1
1
1
1
1
1
1
1
1
1
1
1
1
1
1
1
1
1
1
1
1
1
2.31336
2.2683
2.22233
2.17791
2.12782
2.07938
2.03644
1.99396
1.94547
1.90444
1.87258
1.8379
1.80043
1.76627
1.73911
1.70973
1.683
1.66202
1.633
1.59428
1.57262
1.55746
1.53548
1.50608
1.50081
1.49863
1.48923
1.47226
1.45307
1.43458
1.41691
1.39375
1.37937
1.37586
1.37121
1.36243
1.35078
1.3402
1.32462
1.30739
1.30187
1.30217
1.30782
1.3282
1.35936
1.39128
1.42951
1.46227
1.47708
1.48738
1.50173
1.50386
1.50311
1.50082
1.49563
1.4861
1.47275
1.46315
1.45981
1.45854
1.45835
1.4595
1.45966
1.45599
1.44983
1.44236
1.43407
1.42756
1.42245
1.41858
1.41595
1.41325
1.40967
1.40388
1.39849
1.39752
1.39669
1.39418
1.39358
1.3951
1.39528
1.3931
1.38687
1.37737
1.3686
1.36227
1.3579
1.35588
1.35513
1.3536
1.34976
1.34298
1.33556
1.32836
1.31975
1.30865
1.29566
1.28118
1.26532
1.24933
1.23178
1.20521
1.16723
1.12506
1.0865
1.05963
1.04412
1.02817
1.01341
1.00424
0.997295
0.994339
0.993549
0.993738
0.997369
1.002
1.00239
1.00189
1.00092
1.00053
1.00068
1.00164
1.00377
1.00573
1.00613
1.00613
1.00603
1.00588
1.00575
1.0056
1.00563
1.00636
1.00802
1.00875
1.00877
1.00867
1.0082
1.00704
1.00461
1.00187
1.00099
1.00093
1.00092
1.00092
1.00107
1.00191
1.00447
1.00958
1.01394
1.01487
1.01491
1.0149
1.01455
1.01315
1.00942
1.0036
1.00037
1
1
1
1
1
1
1
1
1
1
1
1
1
1
1
1
1
1
1
1
1
1
1
1
1
1
1
1
1
1
1
1
1
1
1
2.30221
2.26215
2.22092
2.17885
2.1332
2.08968
2.04928
2.00947
1.96727
1.92992
1.89389
1.86035
1.82577
1.79713
1.76831
1.7336
1.70455
1.68734
1.66432
1.63067
1.60174
1.58071
1.55518
1.52746
1.52492
1.52536
1.51699
1.50108
1.48361
1.46212
1.43896
1.41221
1.39927
1.39622
1.39252
1.3848
1.37419
1.36126
1.34092
1.31472
1.29998
1.2961
1.2979
1.30256
1.3068
1.31384
1.33175
1.36531
1.40255
1.43189
1.4667
1.47494
1.47462
1.47245
1.46879
1.4596
1.44908
1.44369
1.44142
1.44277
1.44645
1.44667
1.44155
1.43367
1.42411
1.41363
1.40647
1.40104
1.397
1.39472
1.39217
1.38791
1.38161
1.37397
1.36794
1.36668
1.36628
1.36462
1.36422
1.36613
1.3654
1.36066
1.35314
1.34321
1.33402
1.32723
1.32235
1.32074
1.32012
1.31764
1.31224
1.30428
1.29644
1.28831
1.27797
1.26551
1.25275
1.24042
1.2283
1.21488
1.1936
1.16106
1.12478
1.0909
1.06379
1.04758
1.0331
1.01604
1.00481
0.997516
0.994257
0.993481
0.993382
0.996243
1.00263
1.00445
1.00414
1.00323
1.00192
1.00143
1.00155
1.00221
1.00378
1.00503
1.00527
1.00528
1.00526
1.0053
1.00539
1.00553
1.00606
1.00754
1.00905
1.00935
1.00934
1.00911
1.00843
1.00693
1.00413
1.00144
1.00074
1.00071
1.0007
1.00072
1.00099
1.00218
1.00553
1.01125
1.01493
1.01544
1.01547
1.01542
1.01487
1.01285
1.00808
1.00225
1.00013
1
1
1
1
1
1
1
1
1
1
1
1
1
1
1
1
1
1
1
1
1
1
1
1
1
1
1
1
1
1
1
1
1
1
1
2.29115
2.25475
2.2178
2.17762
2.13509
2.09765
2.06046
2.0194
1.98157
1.95106
1.91647
1.88098
1.84579
1.81981
1.7914
1.76314
1.73269
1.70811
1.6816
1.65239
1.63063
1.61535
1.59228
1.55552
1.54599
1.54397
1.53396
1.5183
1.50578
1.49066
1.46941
1.43973
1.42698
1.42353
1.41776
1.40721
1.39394
1.37931
1.36012
1.33812
1.32104
1.31542
1.31193
1.30773
1.30361
1.29806
1.29649
1.29936
1.31542
1.34855
1.39052
1.4312
1.44859
1.448
1.44415
1.43418
1.42802
1.42711
1.42901
1.43575
1.43827
1.43428
1.42527
1.41347
1.39861
1.38727
1.38085
1.37603
1.37394
1.37243
1.36905
1.36316
1.35529
1.34693
1.3408
1.33884
1.33902
1.33909
1.33921
1.33937
1.33443
1.32641
1.31951
1.31051
1.30115
1.29427
1.2905
1.28978
1.2878
1.28177
1.27485
1.26655
1.2575
1.24733
1.23597
1.22488
1.21529
1.20725
1.19772
1.18033
1.15248
1.12109
1.0922
1.06784
1.05051
1.03671
1.02017
1.00693
0.998642
0.993989
0.993271
0.993302