/*--------------------------------*- C++ -*----------------------------------*\
  =========                 |
  \\      /  F ield         | OpenFOAM: The Open Source CFD Toolbox
   \\    /   O peration     | Website:  https://openfoam.org
    \\  /    A nd           | Version:  7
     \\/     M anipulation  |
\*---------------------------------------------------------------------------*/
FoamFile
{
    version     2.0;
    format      ascii;
    class       volVectorField;
    location    "0.5";
    object      U;
}
// * * * * * * * * * * * * * * * * * * * * * * * * * * * * * * * * * * * * * //

dimensions      [0 1 -1 0 0 0 0];

internalField   nonuniform List<vector> 
16128
(
(3 1.32532e-18 0)
(3 -1.73292e-17 0)
(3 -9.63484e-17 0)
(3 5.59677e-17 0)
(3 4.91099e-16 0)
(3 6.18294e-16 0)
(3 7.27536e-16 0)
(3 6.15486e-16 0)
(3 4.90818e-16 0)
(3 5.81997e-16 0)
(3 4.42322e-16 0)
(3 4.76395e-16 0)
(3 -2.06108e-16 0)
(3 -5.32863e-16 0)
(3 -8.79428e-16 0)
(3 -1.14444e-15 0)
(3 -1.36144e-15 0)
(3 -1.38539e-15 0)
(3 -9.34341e-16 0)
(3 -4.99744e-16 0)
(3 -1.05973e-15 0)
(3 -2.30515e-16 0)
(3 -3.17871e-16 0)
(3 -3.9811e-16 0)
(3 -3.07883e-16 0)
(3 -4.24322e-16 0)
(3 -7.97819e-17 0)
(3 -5.71782e-16 0)
(3 -7.0714e-16 0)
(3 -2.7642e-15 0)
(1.82605 0.0102354 0)
(0.696696 0.0146263 0)
(0.597237 0.0146599 0)
(0.563565 0.016042 0)
(0.535253 0.017153 0)
(0.501527 0.0169324 0)
(0.458854 0.0161311 0)
(0.402316 0.0159374 0)
(0.351848 0.0161259 0)
(0.319152 0.0171466 0)
(0.294293 0.0180262 0)
(0.280395 0.0187893 0)
(0.261167 0.0198482 0)
(0.229555 0.0211838 0)
(0.184841 0.0221039 0)
(0.131925 0.0222148 0)
(0.0769432 0.0223259 0)
(0.0287952 0.0229656 0)
(3 1.6038e-16 0)
(3 3.86316e-16 0)
(3 4.62764e-16 0)
(3 5.75227e-16 0)
(3 8.31095e-16 0)
(3 4.58086e-16 0)
(3 6.56682e-16 0)
(3 9.34399e-16 0)
(3 1.64374e-15 0)
(3 1.8518e-15 0)
(3 9.92167e-16 0)
(3 1.64023e-16 0)
(3 -7.10165e-16 0)
(3 -1.36658e-15 0)
(3 -2.44931e-15 0)
(3 -2.49775e-15 0)
(3 -2.2095e-15 0)
(3 -2.13987e-15 0)
(3 -1.34405e-15 0)
(3 -1.61662e-15 0)
(3 -2.02562e-15 0)
(3 -1.22733e-15 0)
(3 -1.47078e-16 0)
(3 7.96391e-16 0)
(3 1.09221e-15 0)
(3 7.72736e-16 0)
(3 3.24157e-16 0)
(3 -8.62143e-16 0)
(3 -2.84561e-15 0)
(3 -3.01615e-15 0)
(1.84683 0.0460747 0)
(0.69334 0.0580851 0)
(0.585665 0.0474777 0)
(0.550561 0.0441761 0)
(0.523941 0.0469454 0)
(0.491878 0.0482827 0)
(0.450109 0.0473661 0)
(0.393358 0.0469794 0)
(0.342521 0.0475139 0)
(0.309232 0.0502491 0)
(0.283253 0.0522907 0)
(0.268681 0.0544029 0)
(0.248956 0.0573247 0)
(0.217948 0.0612796 0)
(0.175247 0.0643734 0)
(0.125292 0.065548 0)
(0.0733431 0.0666868 0)
(0.0277879 0.0693036 0)
(3 2.82411e-16 0)
(3 8.70949e-16 0)
(3 8.28678e-16 0)
(3 5.7489e-16 0)
(3 1.73771e-16 0)
(3 -1.4058e-16 0)
(3 -2.84803e-16 0)
(3 1.50379e-16 0)
(3 1.00449e-15 0)
(3 5.83243e-16 0)
(3 6.07447e-16 0)
(3 3.09044e-16 0)
(3 -2.73128e-16 0)
(3 -8.90361e-16 0)
(3 -9.76162e-16 0)
(3 -1.20773e-15 0)
(3 -7.63784e-16 0)
(3 2.26814e-16 0)
(3 -3.12482e-16 0)
(3 -1.09339e-16 0)
(3 6.70959e-16 0)
(3 1.06376e-15 0)
(3 2.0156e-15 0)
(3 1.6718e-15 0)
(3 8.8975e-16 0)
(3 8.56149e-16 0)
(3 -1.59294e-16 0)
(3 -3.16084e-15 0)
(3 -2.86341e-15 0)
(3 -2.28028e-15 0)
(1.91318 0.0801328 0)
(0.704788 0.101247 0)
(0.588787 0.0831654 0)
(0.551419 0.0761968 0)
(0.523798 0.0781709 0)
(0.491887 0.0808726 0)
(0.450423 0.080852 0)
(0.392988 0.0812207 0)
(0.340909 0.0822547 0)
(0.305797 0.0863999 0)
(0.276944 0.0891961 0)
(0.2599 0.0917092 0)
(0.238128 0.0956417 0)
(0.206408 0.100861 0)
(0.16458 0.104601 0)
(0.116993 0.105833 0)
(0.0681753 0.107661 0)
(0.0260901 0.112366 0)
(3 -1.83894e-16 0)
(3 -5.48068e-16 0)
(3 -6.40219e-16 0)
(3 -5.61146e-16 0)
(3 -7.10328e-17 0)
(3 -3.79304e-17 0)
(3 -4.11096e-16 0)
(3 -2.24967e-16 0)
(3 -2.07095e-16 0)
(3 -8.67468e-16 0)
(3 -8.23507e-16 0)
(3 -4.03757e-16 0)
(3 -5.83401e-16 0)
(3 -6.82532e-16 0)
(3 4.07867e-17 0)
(3 1.93708e-16 0)
(3 5.94693e-16 0)
(3 6.7026e-16 0)
(3 7.78922e-16 0)
(3 1.0233e-15 0)
(3 1.58985e-15 0)
(3 1.34582e-15 0)
(3 1.37306e-15 0)
(3 1.02495e-16 0)
(3 -1.14244e-15 0)
(3 -1.36511e-15 0)
(3 -1.68126e-15 0)
(3 -2.8211e-15 0)
(3 -2.45934e-15 0)
(3 -2.1216e-15 0)
(2.00508 0.110666 0)
(0.716422 0.145061 0)
(0.59226 0.118217 0)
(0.557766 0.106469 0)
(0.531567 0.10805 0)
(0.500162 0.11295 0)
(0.459282 0.114613 0)
(0.401882 0.116345 0)
(0.349066 0.118465 0)
(0.312418 0.124511 0)
(0.280435 0.128325 0)
(0.260274 0.131143 0)
(0.235439 0.135921 0)
(0.201982 0.141625 0)
(0.159881 0.14476 0)
(0.112983 0.14457 0)
(0.0654761 0.146495 0)
(0.0251243 0.152684 0)
(3 -3.67765e-17 0)
(3 -3.88303e-16 0)
(3 -4.36366e-16 0)
(3 -6.89352e-16 0)
(3 -5.31404e-16 0)
(3 -5.44558e-16 0)
(3 -3.70256e-16 0)
(3 1.24929e-16 0)
(3 -1.29023e-16 0)
(3 -1.48215e-16 0)
(3 -4.09091e-16 0)
(3 -2.87729e-16 0)
(3 -1.87795e-16 0)
(3 -5.35859e-16 0)
(3 -7.2277e-16 0)
(3 -3.67468e-16 0)
(3 3.53355e-16 0)
(3 4.07551e-16 0)
(3 4.49175e-16 0)
(3 4.88174e-16 0)
(3 9.91055e-16 0)
(3 1.31188e-15 0)
(3 3.3016e-16 0)
(3 1.26438e-16 0)
(3 8.33389e-17 0)
(3 -9.03766e-16 0)
(3 -1.70079e-15 0)
(3 -1.71691e-15 0)
(3 -1.33165e-15 0)
(3 -7.75678e-16 0)
(2.13103 0.142863 0)
(0.733414 0.190644 0)
(0.598359 0.1495 0)
(0.568846 0.133662 0)
(0.541673 0.137887 0)
(0.508808 0.146434 0)
(0.467909 0.149891 0)
(0.411782 0.152895 0)
(0.359656 0.156167 0)
(0.322714 0.16396 0)
(0.288647 0.168959 0)
(0.266326 0.172296 0)
(0.239321 0.177796 0)
(0.204443 0.183283 0)
(0.161834 0.185353 0)
(0.114395 0.183842 0)
(0.0662843 0.185018 0)
(0.025435 0.192226 0)
(3 -2.6917e-17 0)
(3 2.36859e-16 0)
(3 3.8773e-16 0)
(3 2.02299e-16 0)
(3 -4.20874e-16 0)
(3 -2.98182e-16 0)
(3 2.72395e-16 0)
(3 2.17994e-16 0)
(3 1.22045e-16 0)
(3 7.96856e-16 0)
(3 7.74407e-16 0)
(3 3.42526e-17 0)
(3 -4.28719e-16 0)
(3 -5.84425e-16 0)
(3 -8.83063e-16 0)
(3 -1.29176e-15 0)
(3 -1.12224e-15 0)
(3 -8.77918e-16 0)
(3 -1.91001e-16 0)
(3 8.00318e-16 0)
(3 1.47057e-15 0)
(3 1.63839e-15 0)
(3 9.94824e-16 0)
(3 1.12604e-15 0)
(3 2.35669e-16 0)
(3 -8.14621e-16 0)
(3 -1.76815e-15 0)
(3 -1.73829e-15 0)
(3 -9.2599e-16 0)
(3 9.43357e-17 0)
(2.30474 0.17284 0)
(0.761794 0.235655 0)
(0.610721 0.176231 0)
(0.582778 0.16019 0)
(0.552518 0.170377 0)
(0.516731 0.182324 0)
(0.475845 0.186182 0)
(0.422998 0.189688 0)
(0.37258 0.194227 0)
(0.335253 0.20369 0)
(0.299211 0.210142 0)
(0.274765 0.214381 0)
(0.246307 0.221095 0)
(0.21057 0.226614 0)
(0.167502 0.22753 0)
(0.119194 0.224473 0)
(0.0695076 0.224824 0)
(0.0265376 0.232993 0)
(3 1.43381e-16 0)
(3 4.84967e-18 0)
(3 2.11239e-17 0)
(3 4.33448e-16 0)
(3 8.50074e-16 0)
(3 1.05741e-15 0)
(3 9.09157e-16 0)
(3 3.01698e-16 0)
(3 3.31986e-16 0)
(3 -1.10712e-16 0)
(3 -2.61216e-16 0)
(3 -3.2489e-16 0)
(3 -1.13525e-15 0)
(3 -1.06175e-15 0)
(3 -2.21677e-16 0)
(3 -3.7509e-16 0)
(3 -1.12368e-15 0)
(3 -8.94526e-16 0)
(3 -5.48472e-17 0)
(3 1.80518e-15 0)
(3 2.00146e-15 0)
(3 1.76276e-15 0)
(3 1.2671e-15 0)
(3 5.29828e-16 0)
(3 -7.13954e-16 0)
(3 -1.50177e-15 0)
(3 -1.95636e-15 0)
(3 -9.66672e-16 0)
(3 8.56764e-17 0)
(3 1.24425e-16 0)
(2.54474 0.181911 0)
(0.8172 0.271321 0)
(0.62804 0.198948 0)
(0.596735 0.190574 0)
(0.560469 0.207952 0)
(0.521993 0.220606 0)
(0.483317 0.223057 0)
(0.435254 0.226444 0)
(0.386823 0.23257 0)
(0.348501 0.243409 0)
(0.310712 0.251342 0)
(0.284217 0.256834 0)
(0.254915 0.2651 0)
(0.218857 0.271274 0)
(0.175842 0.271393 0)
(0.126497 0.267256 0)
(0.0745564 0.26706 0)
(0.0281523 0.276269 0)
(3 1.14909e-16 0)
(3 9.52207e-17 0)
(3 -1.58117e-16 0)
(3 -5.86079e-17 0)
(3 3.28487e-16 0)
(3 3.34958e-16 0)
(3 2.442e-16 0)
(3 -2.70897e-16 0)
(3 -8.04129e-16 0)
(3 -8.12875e-16 0)
(3 -4.42248e-16 0)
(3 -3.52314e-16 0)
(3 -4.63541e-16 0)
(3 -1.29786e-15 0)
(3 -9.62635e-16 0)
(3 -2.87509e-16 0)
(3 -3.69601e-16 0)
(3 -1.21559e-16 0)
(3 -8.70297e-17 0)
(3 4.28145e-16 0)
(3 4.30565e-16 0)
(3 1.67478e-16 0)
(3 -8.25348e-17 0)
(3 -7.33485e-16 0)
(3 -9.26467e-16 0)
(3 -5.71041e-16 0)
(3 1.17819e-16 0)
(3 4.41035e-16 0)
(3 3.262e-16 0)
(3 -1.31294e-15 0)
(2.80966 0.146134 0)
(0.905412 0.288478 0)
(0.643348 0.220249 0)
(0.606878 0.229686 0)
(0.56349 0.251356 0)
(0.525741 0.259517 0)
(0.493124 0.259171 0)
(0.450528 0.262544 0)
(0.403258 0.27066 0)
(0.362635 0.282862 0)
(0.322405 0.292468 0)
(0.293498 0.299527 0)
(0.263339 0.309781 0)
(0.227026 0.317391 0)
(0.184292 0.317683 0)
(0.13428 0.313081 0)
(0.0802554 0.31254 0)
(0.0297425 0.322609 0)
(3 8.02941e-17 0)
(3 1.50803e-16 0)
(3 2.34648e-16 0)
(3 -1.27326e-17 0)
(3 -3.87825e-16 0)
(3 -6.49867e-16 0)
(3 -5.95473e-16 0)
(3 -5.2923e-16 0)
(3 -3.77613e-16 0)
(3 -3.6082e-16 0)
(3 3.23526e-17 0)
(3 7.18628e-16 0)
(3 6.03303e-16 0)
(3 3.0232e-16 0)
(3 8.94185e-18 0)
(3 1.73336e-16 0)
(3 9.13634e-16 0)
(3 1.0248e-16 0)
(3 -5.97931e-17 0)
(3 -7.62729e-16 0)
(3 -8.01542e-16 0)
(3 -8.60464e-16 0)
(3 -3.82108e-16 0)
(3 -1.62233e-16 0)
(3 -1.65401e-16 0)
(3 1.26088e-16 0)
(3 7.41012e-16 0)
(3 1.39279e-15 0)
(3 -7.15204e-16 0)
(3 -2.24831e-15 0)
(2.98145 0.0323262 0)
(1.02569 0.294186 0)
(0.660731 0.246553 0)
(0.60774 0.274859 0)
(0.561081 0.294593 0)
(0.533594 0.294755 0)
(0.508122 0.293338 0)
(0.469218 0.29831 0)
(0.420865 0.309448 0)
(0.37666 0.323052 0)
(0.334199 0.333986 0)
(0.303801 0.342134 0)
(0.273789 0.354481 0)
(0.237704 0.364279 0)
(0.195538 0.366032 0)
(0.144888 0.362279 0)
(0.088216 0.361866 0)
(0.0321381 0.372696 0)
(3 6.00333e-17 0)
(3 3.11301e-17 0)
(3 1.50104e-16 0)
(3 7.2664e-16 0)
(3 5.99228e-16 0)
(3 1.95693e-16 0)
(3 -4.65153e-16 0)
(3 -2.73764e-16 0)
(3 -5.02815e-16 0)
(3 -7.72237e-16 0)
(3 -9.14711e-16 0)
(3 1.44879e-16 0)
(3 1.38688e-15 0)
(3 2.19721e-15 0)
(3 1.88187e-15 0)
(3 1.48307e-15 0)
(3 1.74447e-15 0)
(3 1.35593e-15 0)
(3 1.47065e-15 0)
(3 -1.04597e-16 0)
(3 1.80282e-16 0)
(3 7.96153e-16 0)
(3 1.14353e-15 0)
(3 2.12962e-15 0)
(3 2.17925e-15 0)
(3 1.71708e-15 0)
(3 1.80198e-15 0)
(3 1.708e-15 0)
(3 5.2328e-16 0)
(3 -1.40465e-15 0)
(3.00087 0.000858528 0)
(1.20522 0.310735 0)
(0.667576 0.285721 0)
(0.604196 0.319855 0)
(0.570057 0.32981 0)
(0.550739 0.324644 0)
(0.527314 0.326927 0)
(0.489156 0.335631 0)
(0.438884 0.349709 0)
(0.391501 0.363791 0)
(0.347999 0.375249 0)
(0.316645 0.383969 0)
(0.28692 0.399004 0)
(0.250509 0.412405 0)
(0.207853 0.417769 0)
(0.155915 0.416652 0)
(0.0965593 0.416643 0)
(0.0343702 0.427734 0)
(3 -1.17916e-16 0)
(3 -7.45965e-16 0)
(3 -5.27177e-16 0)
(3 -2.13819e-16 0)
(3 6.30611e-16 0)
(3 6.10141e-16 0)
(3 4.21314e-16 0)
(3 -3.16018e-16 0)
(3 -5.43811e-16 0)
(3 7.18008e-18 0)
(3 2.36428e-16 0)
(3 2.25404e-16 0)
(3 4.67271e-16 0)
(3 1.06983e-15 0)
(3 3.36576e-16 0)
(3 5.15243e-16 0)
(3 1.00781e-15 0)
(3 1.49183e-15 0)
(3 1.05729e-15 0)
(3 5.28034e-16 0)
(3 4.27867e-16 0)
(3 4.9308e-16 0)
(3 1.03416e-15 0)
(3 1.20408e-15 0)
(3 6.70319e-16 0)
(3 4.05172e-16 0)
(3 -5.92436e-17 0)
(3 -4.42792e-16 0)
(3 -4.85351e-16 0)
(3 -1.36248e-15 0)
(3 8.09246e-07 0)
(1.4634 0.350181 0)
(0.692584 0.338634 0)
(0.617656 0.360568 0)
(0.593246 0.356314 0)
(0.573539 0.353298 0)
(0.549207 0.361998 0)
(0.509746 0.375067 0)
(0.457728 0.39109 0)
(0.40814 0.40444 0)
(0.365192 0.415882 0)
(0.333275 0.425188 0)
(0.304705 0.443628 0)
(0.26868 0.462103 0)
(0.225808 0.472626 0)
(0.172114 0.476008 0)
(0.108394 0.477819 0)
(0.0383236 0.489661 0)
(3 -1.48037e-16 0)
(3 -2.50708e-16 0)
(3 -8.64913e-17 0)
(3 -8.1668e-17 0)
(3 1.06559e-16 0)
(3 5.75306e-16 0)
(3 4.44156e-16 0)
(3 1.51226e-16 0)
(3 1.54408e-16 0)
(3 3.43965e-16 0)
(3 6.56701e-16 0)
(3 4.21635e-16 0)
(3 1.73555e-16 0)
(3 2.21713e-16 0)
(3 4.70817e-16 0)
(3 5.21227e-16 0)
(3 7.05291e-16 0)
(3 8.21588e-16 0)
(3 1.11953e-16 0)
(3 2.60329e-17 0)
(3 -4.63121e-16 0)
(3 -5.73304e-16 0)
(3 -6.39695e-16 0)
(3 -4.66153e-16 0)
(3 -6.8153e-16 0)
(3 -1.17061e-15 0)
(3 -9.80588e-16 0)
(3 -1.55525e-15 0)
(3 -2.03113e-15 0)
(3 -1.71979e-15 0)
(3 3.67885e-11 0)
(1.8305 0.386361 0)
(0.753461 0.394674 0)
(0.654401 0.386325 0)
(0.627228 0.379793 0)
(0.600327 0.383592 0)
(0.571738 0.400818 0)
(0.52911 0.417524 0)
(0.477485 0.432742 0)
(0.428532 0.443549 0)
(0.387867 0.454712 0)
(0.355579 0.465416 0)
(0.327753 0.488588 0)
(0.290899 0.514038 0)
(0.245333 0.532858 0)
(0.187611 0.543922 0)
(0.119086 0.549036 0)
(0.0404008 0.561186 0)
(3 1.79726e-16 0)
(3 4.2303e-16 0)
(3 2.27712e-16 0)
(3 -3.32941e-16 0)
(3 -9.21251e-16 0)
(3 -1.14138e-15 0)
(3 -1.21385e-15 0)
(3 -8.75792e-16 0)
(3 -2.9331e-16 0)
(3 -5.54938e-16 0)
(3 -7.97545e-16 0)
(3 -4.73669e-16 0)
(3 1.17913e-16 0)
(3 3.42798e-16 0)
(3 5.90523e-16 0)
(3 7.00158e-16 0)
(3 9.3991e-16 0)
(3 1.2295e-15 0)
(3 1.30522e-15 0)
(3 8.16352e-16 0)
(3 4.85178e-16 0)
(3 3.70077e-16 0)
(3 -3.1039e-16 0)
(3 -8.62478e-16 0)
(3 -1.14718e-15 0)
(3 -1.32966e-15 0)
(3 -8.41354e-16 0)
(3 -9.54012e-16 0)
(3 -1.04655e-15 0)
(3 -5.33974e-16 0)
(3 -2.47519e-15 0)
(2.32959 0.348399 0)
(0.855575 0.434301 0)
(0.700973 0.415722 0)
(0.661337 0.411683 0)
(0.624705 0.425941 0)
(0.587882 0.448053 0)
(0.543545 0.462794 0)
(0.499904 0.471907 0)
(0.45584 0.478777 0)
(0.418063 0.491124 0)
(0.384634 0.506166 0)
(0.356528 0.535994 0)
(0.319728 0.57027 0)
(0.274544 0.597859 0)
(0.216785 0.616716 0)
(0.141162 0.62944 0)
(0.0497114 0.646354 0)
(3 8.04084e-17 0)
(3 1.77757e-16 0)
(3 -5.77287e-17 0)
(3 -6.40862e-16 0)
(3 -2.08447e-16 0)
(3 -1.61085e-16 0)
(3 -2.20038e-16 0)
(3 -4.15528e-16 0)
(3 -3.71791e-16 0)
(3 -2.51914e-16 0)
(3 -4.3891e-16 0)
(3 -7.21686e-16 0)
(3 -6.1396e-16 0)
(3 -2.10331e-16 0)
(3 7.47826e-16 0)
(3 1.60655e-15 0)
(3 1.28956e-15 0)
(3 1.23901e-15 0)
(3 1.74565e-15 0)
(3 1.50237e-15 0)
(3 1.08721e-15 0)
(3 8.47698e-16 0)
(3 2.76409e-16 0)
(3 -4.7765e-16 0)
(3 -1.02273e-15 0)
(3 -5.72554e-16 0)
(3 -6.11924e-16 0)
(3 -6.77397e-16 0)
(3 -7.87253e-16 0)
(3 4.23988e-17 0)
(3 -1.20264e-15 0)
(2.83758 0.186741 0)
(0.990597 0.455851 0)
(0.734003 0.455795 0)
(0.677065 0.458518 0)
(0.627781 0.479362 0)
(0.593919 0.498565 0)
(0.565906 0.503318 0)
(0.53461 0.502626 0)
(0.495111 0.508687 0)
(0.458413 0.524943 0)
(0.423338 0.54683 0)
(0.393252 0.584101 0)
(0.355568 0.628222 0)
(0.307067 0.668424 0)
(0.24199 0.703506 0)
(0.158989 0.732778 0)
(0.0495875 0.755886 0)
(3 -5.92383e-18 0)
(3 -1.34817e-16 0)
(3 -4.88938e-18 0)
(3 7.52946e-16 0)
(3 1.443e-15 0)
(3 1.37029e-15 0)
(3 1.53419e-15 0)
(3 1.12682e-15 0)
(3 6.29126e-16 0)
(3 7.13992e-16 0)
(3 1.10807e-15 0)
(3 8.88265e-16 0)
(3 -4.6939e-16 0)
(3 -1.09331e-15 0)
(3 9.80459e-16 0)
(3 2.19572e-15 0)
(3 1.15175e-15 0)
(3 6.32742e-16 0)
(3 1.16059e-15 0)
(3 1.32495e-15 0)
(3 8.17923e-16 0)
(3 5.1162e-16 0)
(3 -2.46505e-16 0)
(3 -2.92806e-16 0)
(3 -3.83958e-16 0)
(3 7.86345e-16 0)
(3 8.11343e-16 0)
(3 3.90995e-16 0)
(3 5.90383e-16 0)
(3 8.20509e-16 0)
(3 -5.37128e-16 0)
(3.02935 0.0230033 0)
(1.13406 0.458974 0)
(0.72839 0.499637 0)
(0.672521 0.508092 0)
(0.644737 0.52804 0)
(0.624841 0.535946 0)
(0.608312 0.531466 0)
(0.582549 0.527724 0)
(0.543659 0.537224 0)
(0.5044 0.559654 0)
(0.465142 0.59107 0)
(0.429603 0.637207 0)
(0.391629 0.693104 0)
(0.3491 0.748808 0)
(0.296683 0.797775 0)
(0.22071 0.841627 0)
(0.0862516 0.890243 0)
(3 -1.94823e-17 0)
(3 7.03215e-17 0)
(3 2.07467e-16 0)
(3 6.64895e-16 0)
(3 1.12054e-16 0)
(3 7.46085e-19 0)
(3 2.72749e-16 0)
(3 7.57823e-16 0)
(3 1.37858e-15 0)
(3 1.97961e-15 0)
(3 2.41303e-15 0)
(3 1.66065e-15 0)
(3 6.39924e-16 0)
(3 7.93667e-16 0)
(3 5.9255e-16 0)
(3 1.14885e-16 0)
(3 -6.67829e-17 0)
(3 -3.24519e-16 0)
(3 2.72378e-16 0)
(3 6.72764e-16 0)
(3 6.28436e-16 0)
(3 4.57018e-16 0)
(3 4.1337e-17 0)
(3 -6.23414e-16 0)
(3 -1.58079e-16 0)
(3 -3.22961e-17 0)
(3 -2.70201e-16 0)
(3 1.28136e-16 0)
(3 7.66997e-16 0)
(3 3.54111e-16 0)
(3 -8.60062e-16 0)
(3.00141 0.000165351 0)
(1.45148 0.511125 0)
(0.749908 0.553246 0)
(0.699819 0.536983 0)
(0.689436 0.546399 0)
(0.677149 0.55411 0)
(0.663031 0.553486 0)
(0.633709 0.553452 0)
(0.591631 0.572027 0)
(0.543483 0.605373 0)
(0.498803 0.644704 0)
(0.464855 0.694587 0)
(0.439017 0.753941 0)
(0.411511 0.814 0)
(0.368824 0.889178 0)
(0.267243 1.00564 0)
(0.137145 1.14872 0)
(3 1.13673e-16 0)
(3 1.01704e-16 0)
(3 -2.80729e-16 0)
(3 -6.16688e-16 0)
(3 -5.90882e-16 0)
(3 -5.60006e-16 0)
(3 1.77589e-16 0)
(3 8.74634e-16 0)
(3 1.55384e-15 0)
(3 1.56509e-15 0)
(3 1.19213e-15 0)
(3 5.08753e-16 0)
(3 1.50493e-15 0)
(3 2.86863e-15 0)
(3 1.26539e-16 0)
(3 -9.43834e-16 0)
(3 -1.01186e-15 0)
(3 -7.8013e-16 0)
(3 -4.89609e-16 0)
(3 9.35545e-17 0)
(3 6.51409e-16 0)
(3 7.90524e-16 0)
(3 6.86961e-16 0)
(3 2.09199e-16 0)
(3 -4.07616e-16 0)
(3 -1.85397e-15 0)
(3 -1.74519e-15 0)
(3 -9.26755e-16 0)
(3 -8.40824e-16 0)
(3 -1.85832e-15 0)
(3 -2.16409e-15 0)
(3 -9.85952e-09 0)
(2.05341 0.503743 0)
(0.849731 0.588303 0)
(0.760487 0.542928 0)
(0.747272 0.562 0)
(0.727641 0.583572 0)
(0.707842 0.591275 0)
(0.670367 0.595498 0)
(0.61884 0.619738 0)
(0.571063 0.658739 0)
(0.534536 0.697929 0)
(0.511519 0.742735 0)
(0.500436 0.802427 0)
(0.48373 0.876149 0)
(0.473262 1.00254 0)
(0.472697 1.18371 0)
(0.565652 1.47584 0)
(3 1.39512e-16 0)
(3 5.87467e-17 0)
(3 -3.28993e-16 0)
(3 -8.08155e-16 0)
(3 -1.96959e-16 0)
(3 5.3324e-16 0)
(3 7.70181e-16 0)
(3 8.62112e-16 0)
(3 1.14695e-15 0)
(3 1.09175e-16 0)
(3 -4.83194e-16 0)
(3 -1.11018e-16 0)
(3 1.81256e-15 0)
(3 2.12866e-15 0)
(3 -8.35314e-17 0)
(3 -1.05249e-15 0)
(3 -6.28668e-16 0)
(3 -8.03328e-16 0)
(3 -8.88005e-16 0)
(3 -6.02923e-17 0)
(3 7.06641e-16 0)
(3 1.11695e-15 0)
(3 1.01579e-15 0)
(3 3.64766e-16 0)
(3 -1.29803e-15 0)
(3 -2.20965e-15 0)
(3 -1.72762e-15 0)
(3 -1.50327e-15 0)
(3 -1.99794e-15 0)
(3 -2.13971e-15 0)
(3 -1.77424e-15 0)
(3 -3.66997e-12 0)
(2.81177 0.257664 0)
(1.03619 0.594673 0)
(0.814571 0.56862 0)
(0.780044 0.605233 0)
(0.735736 0.630318 0)
(0.708693 0.642733 0)
(0.682406 0.647831 0)
(0.648673 0.666075 0)
(0.615401 0.697273 0)
(0.589652 0.735232 0)
(0.57452 0.780456 0)
(0.575341 0.845935 0)
(0.579407 0.937721 0)
(0.609347 1.0674 0)
(0.701668 1.23548 0)
(1.00411 1.46195 0)
(3 -1.78938e-16 0)
(3 -1.71906e-16 0)
(3 2.14561e-16 0)
(3 6.2033e-16 0)
(3 3.30906e-16 0)
(3 2.97821e-17 0)
(3 -2.7743e-17 0)
(3 -7.8479e-16 0)
(3 -1.41562e-15 0)
(3 -7.98001e-16 0)
(3 -1.69319e-16 0)
(3 6.73841e-16 0)
(3 1.54536e-15 0)
(3 1.43439e-15 0)
(3 7.94189e-16 0)
(3 3.21713e-16 0)
(3 7.24886e-17 0)
(3 2.84428e-17 0)
(3 1.60403e-16 0)
(3 4.3019e-16 0)
(3 8.43108e-18 0)
(3 8.68118e-17 0)
(3 4.54839e-16 0)
(3 -7.71335e-17 0)
(3 -4.99124e-16 0)
(3 -9.64689e-16 0)
(3 -1.72455e-15 0)
(3 -1.89456e-15 0)
(3 -1.85218e-15 0)
(3 -1.23657e-15 0)
(3 3.58693e-17 0)
(3 -4.36461e-13 0)
(3.0467 0.0229034 0)
(1.24455 0.577663 0)
(0.80938 0.608227 0)
(0.766833 0.651843 0)
(0.737918 0.674267 0)
(0.726273 0.682041 0)
(0.71856 0.683855 0)
(0.699414 0.699949 0)
(0.677097 0.728439 0)
(0.660275 0.766484 0)
(0.649575 0.812042 0)
(0.659268 0.880516 0)
(0.679746 0.972769 0)
(0.745152 1.08751 0)
(0.896031 1.23595 0)
(1.2308 1.38117 0)
(3 -5.6977e-17 0)
(3 -1.64044e-16 0)
(3 -9.4029e-17 0)
(3 -8.78506e-17 0)
(3 2.49208e-16 0)
(3 -4.43715e-16 0)
(3 -1.30966e-15 0)
(3 -9.66431e-16 0)
(3 -9.76521e-16 0)
(3 -2.38745e-16 0)
(3 6.36571e-16 0)
(3 8.41701e-16 0)
(3 8.64826e-16 0)
(3 7.08046e-16 0)
(3 8.22871e-16 0)
(3 -5.35019e-16 0)
(3 -1.20939e-15 0)
(3 -8.5306e-16 0)
(3 -1.85078e-16 0)
(3 4.02642e-16 0)
(3 3.45827e-16 0)
(3 9.80318e-17 0)
(3 -1.10234e-16 0)
(3 1.28787e-16 0)
(3 8.07088e-16 0)
(3 5.02686e-16 0)
(3 -7.11604e-17 0)
(3 -5.72298e-16 0)
(3 -7.19924e-16 0)
(3 -1.17722e-15 0)
(3 -5.85475e-16 0)
(3 -1.49414e-14 0)
(3.00129 0.000133254 0)
(1.77662 0.593473 0)
(0.855529 0.65659 0)
(0.78693 0.680488 0)
(0.768836 0.701631 0)
(0.762675 0.705021 0)
(0.768886 0.705793 0)
(0.763731 0.719189 0)
(0.74866 0.748093 0)
(0.735564 0.792249 0)
(0.724265 0.84195 0)
(0.73875 0.909833 0)
(0.775107 0.990124 0)
(0.863734 1.08618 0)
(1.03525 1.20059 0)
(1.33812 1.2934 0)
(3 1.06336e-16 0)
(3 4.02399e-16 0)
(3 1.0653e-16 0)
(3 -7.63402e-16 0)
(3 -1.41339e-15 0)
(3 -1.29315e-15 0)
(3 -1.116e-15 0)
(3 -1.95657e-16 0)
(3 4.86471e-17 0)
(3 3.8289e-16 0)
(3 7.03621e-16 0)
(3 4.10317e-16 0)
(3 -2.18406e-16 0)
(3 -2.48427e-16 0)
(3 -1.78204e-16 0)
(3 -6.49564e-16 0)
(3 -5.63284e-16 0)
(3 -5.82752e-16 0)
(3 -1.06418e-15 0)
(3 -9.65622e-16 0)
(3 -7.71513e-16 0)
(3 -8.29318e-16 0)
(3 -6.9058e-16 0)
(3 -2.46868e-16 0)
(3 5.12786e-16 0)
(3 6.78893e-16 0)
(3 8.54686e-16 0)
(3 5.42929e-16 0)
(3 4.01049e-16 0)
(3 4.8419e-16 0)
(3 -3.08592e-16 0)
(3 -2.62448e-15 0)
(3 1.11271e-07 0)
(2.66256 0.363119 0)
(1.04082 0.684163 0)
(0.854147 0.693338 0)
(0.827876 0.71972 0)
(0.81298 0.724164 0)
(0.819828 0.723413 0)
(0.817091 0.739889 0)
(0.804051 0.774934 0)
(0.794207 0.825306 0)
(0.789232 0.874338 0)
(0.808026 0.932317 0)
(0.860329 0.999384 0)
(0.962979 1.08012 0)
(1.1285 1.16289 0)
(1.38261 1.22336 0)
(3 -2.18575e-17 0)
(3 5.88766e-16 0)
(3 1.38193e-15 0)
(3 8.61158e-16 0)
(3 -6.61107e-16 0)
(3 -9.34857e-16 0)
(3 -3.2332e-16 0)
(3 9.25373e-17 0)
(3 4.82389e-16 0)
(3 2.05223e-16 0)
(3 -7.66843e-17 0)
(3 -1.23214e-16 0)
(3 -5.68409e-16 0)
(3 -6.13094e-16 0)
(3 -6.10968e-16 0)
(3 -1.74603e-16 0)
(3 -6.16754e-16 0)
(3 -1.09674e-15 0)
(3 -1.26932e-15 0)
(3 -1.22569e-15 0)
(3 -5.75384e-16 0)
(3 -4.70128e-16 0)
(3 -1.59886e-17 0)
(3 -3.44602e-16 0)
(3 -1.15504e-15 0)
(3 -7.95159e-16 0)
(3 -5.75598e-16 0)
(3 3.59496e-16 0)
(3 9.41876e-16 0)
(3 1.34903e-15 0)
(3 1.31394e-15 0)
(3 1.17107e-16 0)
(3 7.01638e-12 0)
(3.06804 0.0385128 0)
(1.30934 0.665574 0)
(0.894254 0.740562 0)
(0.860581 0.758517 0)
(0.842958 0.762221 0)
(0.845079 0.761933 0)
(0.847523 0.773659 0)
(0.845709 0.801371 0)
(0.845684 0.844371 0)
(0.851599 0.890707 0)
(0.876291 0.940358 0)
(0.934158 0.994863 0)
(1.03831 1.05841 0)
(1.18878 1.11695 0)
(1.39217 1.1566 0)
(3 -7.02466e-17 0)
(3 -1.24139e-16 0)
(3 1.87401e-16 0)
(3 1.17206e-15 0)
(3 1.28831e-15 0)
(3 3.74747e-16 0)
(3 8.58136e-17 0)
(3 2.32773e-16 0)
(3 -6.86645e-17 0)
(3 -4.57854e-16 0)
(3 1.52374e-16 0)
(3 5.30398e-16 0)
(3 4.16649e-16 0)
(3 -2.50598e-16 0)
(3 -4.84732e-17 0)
(3 4.47157e-16 0)
(3 1.80375e-16 0)
(3 1.08621e-16 0)
(3 4.25515e-16 0)
(3 4.96688e-16 0)
(3 3.47639e-16 0)
(3 -5.70754e-17 0)
(3 5.04733e-16 0)
(3 6.43587e-16 0)
(3 6.19596e-16 0)
(3 1.10418e-15 0)
(3 1.10215e-15 0)
(3 1.47693e-15 0)
(3 1.22371e-15 0)
(3 3.53613e-17 0)
(3 -2.97245e-16 0)
(3 -4.45566e-17 0)
(3 -1.22735e-13 0)
(3.00308 0.000294837 0)
(1.91463 0.644852 0)
(0.959462 0.783139 0)
(0.906216 0.760024 0)
(0.889256 0.7734 0)
(0.885524 0.782259 0)
(0.888548 0.794964 0)
(0.889627 0.823186 0)
(0.895489 0.860671 0)
(0.910255 0.901286 0)
(0.942739 0.945172 0)
(1.0042 0.99133 0)
(1.10345 1.04038 0)
(1.23905 1.08372 0)
(1.40496 1.11097 0)
(3 7.47311e-17 0)
(3 -4.89682e-16 0)
(3 -5.61111e-16 0)
(3 1.6107e-16 0)
(3 8.33946e-16 0)
(3 1.04208e-15 0)
(3 -7.87749e-17 0)
(3 -8.46449e-16 0)
(3 -2.04783e-15 0)
(3 -1.41112e-15 0)
(3 4.56584e-16 0)
(3 1.21875e-15 0)
(3 2.42533e-15 0)
(3 2.51228e-15 0)
(3 2.30456e-15 0)
(3 2.10657e-15 0)
(3 1.91072e-15 0)
(3 2.28465e-15 0)
(3 2.0603e-15 0)
(3 1.48816e-15 0)
(3 5.07903e-16 0)
(3 3.69916e-16 0)
(3 -1.01435e-16 0)
(3 4.20944e-16 0)
(3 1.77535e-15 0)
(3 1.96612e-15 0)
(3 1.52352e-15 0)
(3 8.29699e-16 0)
(3 3.68779e-18 0)
(3 -3.47799e-16 0)
(3 -5.89123e-16 0)
(3 -1.39493e-16 0)
(3 -9.88042e-14 0)
(3 3.93357e-07 0)
(2.90104 0.255461 0)
(1.19752 0.773787 0)
(0.982761 0.785222 0)
(0.950839 0.790707 0)
(0.926251 0.808815 0)
(0.92021 0.829293 0)
(0.923816 0.855701 0)
(0.940205 0.884503 0)
(0.966643 0.912425 0)
(1.00535 0.943879 0)
(1.06783 0.980128 0)
(1.15823 1.01598 0)
(1.27669 1.04761 0)
(1.4168 1.06918 0)
(3 6.996e-17 0)
(3 -8.58137e-17 0)
(3 -4.09933e-16 0)
(3 -1.26722e-16 0)
(3 6.19518e-16 0)
(3 8.70924e-16 0)
(3 3.2753e-16 0)
(3 -6.45858e-16 0)
(3 -4.43315e-17 0)
(3 1.03513e-15 0)
(3 2.06953e-15 0)
(3 2.55597e-15 0)
(3 2.1731e-15 0)
(3 1.59455e-15 0)
(3 1.38715e-15 0)
(3 1.99999e-15 0)
(3 2.29569e-15 0)
(3 2.19419e-15 0)
(3 1.63124e-15 0)
(3 7.12215e-16 0)
(3 2.56262e-16 0)
(3 2.78269e-16 0)
(3 2.21576e-16 0)
(3 3.16978e-16 0)
(3 4.52113e-16 0)
(3 6.47602e-17 0)
(3 -1.55529e-16 0)
(3 -6.21973e-16 0)
(3 -5.66277e-16 0)
(3 -2.75162e-16 0)
(3 -3.16828e-16 0)
(3 -2.15259e-16 0)
(3 -4.44031e-15 0)
(3 -5.04213e-09 0)
(3.03648 0.0114866 0)
(1.57089 0.744467 0)
(1.00817 0.838469 0)
(0.975404 0.834282 0)
(0.958799 0.847971 0)
(0.961602 0.852998 0)
(0.969858 0.870382 0)
(0.990906 0.889992 0)
(1.0232 0.913498 0)
(1.06539 0.940842 0)
(1.12559 0.973076 0)
(1.20778 1.00274 0)
(1.31076 1.0285 0)
(1.42994 1.04563 0)
(3 -2.36129e-18 0)
(3 1.35051e-16 0)
(3 -8.54801e-17 0)
(3 -5.95274e-16 0)
(3 -6.65045e-16 0)
(3 -4.13368e-16 0)
(3 4.4729e-16 0)
(3 7.95422e-16 0)
(3 1.38651e-15 0)
(3 2.83403e-15 0)
(3 2.21706e-15 0)
(3 8.87328e-16 0)
(3 -1.44944e-16 0)
(3 -3.08344e-16 0)
(3 -4.44372e-16 0)
(3 5.0668e-16 0)
(3 2.16612e-15 0)
(3 1.92985e-15 0)
(3 1.73994e-15 0)
(3 1.19326e-15 0)
(3 2.49312e-16 0)
(3 -3.63816e-16 0)
(3 -5.45208e-16 0)
(3 -3.43336e-16 0)
(3 -2.67273e-16 0)
(3 4.28345e-16 0)
(3 5.24307e-16 0)
(3 5.78266e-16 0)
(3 1.05001e-16 0)
(3 -4.25917e-16 0)
(3 -4.57281e-16 0)
(3 -7.77878e-16 0)
(3 -1.76303e-15 0)
(3 -2.01578e-10 0)
(3.00046 8.84318e-05 0)
(2.52856 0.48725 0)
(1.15611 0.83386 0)
(1.0361 0.846754 0)
(1.01864 0.862281 0)
(1.00992 0.881268 0)
(1.01672 0.894811 0)
(1.03694 0.910529 0)
(1.07322 0.927195 0)
(1.11854 0.943975 0)
(1.17639 0.964363 0)
(1.24944 0.98567 0)
(1.33754 1.00607 0)
(1.44099 1.0204 0)
(3 1.10867e-16 0)
(3 8.08105e-17 0)
(3 1.38026e-16 0)
(3 2.38543e-16 0)
(3 -2.17268e-16 0)
(3 2.84943e-18 0)
(3 5.18231e-16 0)
(3 6.42422e-16 0)
(3 7.30612e-16 0)
(3 7.75409e-16 0)
(3 3.51886e-16 0)
(3 -2.10743e-16 0)
(3 -3.46622e-16 0)
(3 -1.45961e-16 0)
(3 -4.30649e-16 0)
(3 -8.45928e-16 0)
(3 -3.07028e-16 0)
(3 1.19328e-16 0)
(3 7.49759e-16 0)
(3 9.01403e-16 0)
(3 8.61271e-16 0)
(3 5.16863e-16 0)
(3 3.87583e-16 0)
(3 8.64699e-16 0)
(3 8.43332e-16 0)
(3 4.92643e-16 0)
(3 1.92719e-16 0)
(3 -3.45849e-16 0)
(3 -6.39555e-16 0)
(3 -9.96623e-16 0)
(3 -7.74562e-16 0)
(3 1.50161e-16 0)
(3 4.43833e-16 0)
(3 -2.09058e-12 0)
(3 4.32535e-08 0)
(3.06512 0.0530883 0)
(1.48578 0.801512 0)
(1.07293 0.89694 0)
(1.05584 0.901735 0)
(1.04981 0.918341 0)
(1.06273 0.921553 0)
(1.08738 0.921162 0)
(1.12291 0.926914 0)
(1.16649 0.939797 0)
(1.22018 0.958731 0)
(1.28504 0.980524 0)
(1.36171 0.999109 0)
(1.45267 1.00902 0)
(3 -2.34588e-17 0)
(3 4.48455e-18 0)
(3 -2.18959e-19 0)
(3 5.97586e-17 0)
(3 3.02123e-16 0)
(3 1.34847e-16 0)
(3 4.58035e-16 0)
(3 4.33989e-16 0)
(3 4.9899e-16 0)
(3 1.01218e-15 0)
(3 1.20245e-15 0)
(3 1.40344e-15 0)
(3 8.19445e-16 0)
(3 3.93507e-16 0)
(3 4.40069e-16 0)
(3 1.04619e-16 0)
(3 -1.4982e-15 0)
(3 -1.40315e-15 0)
(3 -6.05778e-16 0)
(3 -7.68254e-17 0)
(3 6.92816e-16 0)
(3 1.12982e-15 0)
(3 1.53191e-15 0)
(3 1.71022e-15 0)
(3 1.20595e-15 0)
(3 -7.78645e-17 0)
(3 -3.69425e-16 0)
(3 -7.78355e-16 0)
(3 -1.3948e-15 0)
(3 -1.487e-15 0)
(3 -9.45962e-16 0)
(3 -2.01556e-16 0)
(3 5.07612e-17 0)
(3 1.94604e-14 0)
(3 -3.5011e-11 0)
(3.00333 0.000837312 0)
(2.35709 0.594794 0)
(1.19509 0.905219 0)
(1.10784 0.909034 0)
(1.10809 0.914127 0)
(1.11279 0.932424 0)
(1.13073 0.941923 0)
(1.16207 0.948957 0)
(1.20366 0.957061 0)
(1.25484 0.967532 0)
(1.31582 0.978523 0)
(1.38516 0.987592 0)
(1.46709 0.991954 0)
(3 -3.86835e-16 0)
(3 -2.8834e-16 0)
(3 -1.5917e-16 0)
(3 -2.53475e-16 0)
(3 -8.15235e-16 0)
(3 -9.66859e-16 0)
(3 -6.79618e-16 0)
(3 -6.46823e-16 0)
(3 2.14207e-16 0)
(3 6.78109e-16 0)
(3 5.35154e-16 0)
(3 1.68828e-15 0)
(3 2.03797e-15 0)
(3 1.99876e-15 0)
(3 1.45133e-15 0)
(3 1.26417e-15 0)
(3 -4.47382e-16 0)
(3 -1.08006e-15 0)
(3 -9.55161e-16 0)
(3 -5.32624e-16 0)
(3 3.31883e-16 0)
(3 1.32991e-15 0)
(3 1.28548e-15 0)
(3 2.63851e-16 0)
(3 2.09714e-16 0)
(3 -1.16115e-16 0)
(3 -1.13982e-16 0)
(3 6.27706e-16 0)
(3 1.31293e-16 0)
(3 1.98556e-16 0)
(3 3.97279e-16 0)
(3 1.83737e-16 0)
(3 6.68143e-16 0)
(3 1.32728e-15 0)
(3 -1.82574e-11 0)
(3 2.0692e-06 0)
(3.0552 0.0851835 0)
(1.53522 0.865678 0)
(1.14734 0.948338 0)
(1.14768 0.949161 0)
(1.15523 0.95704 0)
(1.17152 0.959854 0)
(1.20242 0.959196 0)
(1.24256 0.962435 0)
(1.2906 0.969969 0)
(1.34362 0.980548 0)
(1.40381 0.989659 0)
(1.47713 0.992867 0)
(3 4.6735e-17 0)
(3 1.06881e-17 0)
(3 -1.14576e-16 0)
(3 -1.11996e-16 0)
(3 -2.3054e-16 0)
(3 -2.46037e-16 0)
(3 1.19416e-16 0)
(3 6.69271e-16 0)
(3 8.47926e-16 0)
(3 3.01012e-16 0)
(3 2.73778e-16 0)
(3 8.56189e-16 0)
(3 1.94626e-15 0)
(3 2.04225e-15 0)
(3 1.69331e-15 0)
(3 1.2331e-15 0)
(3 7.25638e-16 0)
(3 5.68668e-16 0)
(3 -2.00257e-18 0)
(3 -9.14486e-17 0)
(3 1.82598e-16 0)
(3 8.64802e-16 0)
(3 1.02669e-15 0)
(3 2.35265e-16 0)
(3 -5.88212e-16 0)
(3 -1.62449e-16 0)
(3 -1.52387e-16 0)
(3 1.08834e-15 0)
(3 1.5171e-15 0)
(3 9.07325e-16 0)
(3 6.02026e-16 0)
(3 9.37209e-16 0)
(3 9.78016e-16 0)
(3 2.35593e-15 0)
(3 -9.03392e-13 0)
(3 2.10153e-10 0)
(3.00513 0.00196883 0)
(2.45083 0.594085 0)
(1.28961 0.955197 0)
(1.19545 0.947595 0)
(1.21029 0.949086 0)
(1.21844 0.967432 0)
(1.2394 0.98044 0)
(1.27198 0.988618 0)
(1.31462 0.992528 0)
(1.36461 0.994042 0)
(1.42257 0.992063 0)
(1.49209 0.987351 0)
(3 1.66674e-16 0)
(3 2.83943e-16 0)
(3 1.03745e-16 0)
(3 -2.35492e-16 0)
(3 2.26277e-16 0)
(3 8.85965e-16 0)
(3 1.71825e-15 0)
(3 2.37374e-15 0)
(3 2.06095e-15 0)
(3 1.31996e-15 0)
(3 6.77449e-16 0)
(3 -1.4834e-16 0)
(3 -4.92693e-16 0)
(3 -6.83726e-16 0)
(3 -2.39094e-16 0)
(3 3.30366e-17 0)
(3 3.78267e-16 0)
(3 2.16907e-16 0)
(3 2.04887e-17 0)
(3 -4.11955e-16 0)
(3 -1.045e-15 0)
(3 -4.95633e-16 0)
(3 5.03189e-16 0)
(3 5.91221e-16 0)
(3 -2.01301e-16 0)
(3 -9.99021e-16 0)
(3 -1.36324e-15 0)
(3 4.11414e-17 0)
(3 1.23278e-15 0)
(3 1.53875e-15 0)
(3 1.3687e-15 0)
(3 9.48454e-16 0)
(3 3.12945e-16 0)
(3 1.16187e-15 0)
(3 -1.68167e-15 0)
(3 1.14213e-14 0)
(3.00001 7.58702e-06 0)
(3.04711 0.0684538 0)
(1.68445 0.894189 0)
(1.23034 0.988966 0)
(1.23089 0.986615 0)
(1.24896 0.990334 0)
(1.27579 0.988426 0)
(1.3082 0.989191 0)
(1.34607 0.99517 0)
(1.38984 1.00018 0)
(1.44081 1.00052 0)
(1.50275 0.997509 0)
(3 -8.73066e-17 0)
(3 3.10731e-16 0)
(3 1.10245e-15 0)
(3 1.04764e-15 0)
(3 5.77668e-16 0)
(3 3.70875e-16 0)
(3 5.27152e-16 0)
(3 3.04844e-16 0)
(3 4.22865e-16 0)
(3 2.53181e-16 0)
(3 -2.53778e-16 0)
(3 2.41813e-16 0)
(3 -4.4679e-17 0)
(3 -8.39052e-17 0)
(3 -4.81223e-16 0)
(3 -5.24567e-16 0)
(3 -9.60146e-17 0)
(3 -2.78231e-16 0)
(3 -5.02012e-16 0)