/*--------------------------------*- C++ -*----------------------------------*\
  =========                 |
  \\      /  F ield         | OpenFOAM: The Open Source CFD Toolbox
   \\    /   O peration     | Website:  https://openfoam.org
    \\  /    A nd           | Version:  7
     \\/     M anipulation  |
\*---------------------------------------------------------------------------*/
FoamFile
{
    version     2.0;
    format      ascii;
    class       volScalarField;
    location    "2.7";
    object      p;
}
// * * * * * * * * * * * * * * * * * * * * * * * * * * * * * * * * * * * * * //

dimensions      [1 -1 -2 0 0 0 0];

internalField   nonuniform List<scalar> 
64512
(
1
1
1
1
1
1
1
1
1
1
1
1
1
1
1
1
1
1
1
1
1
1
1
1
1
1
1
1
1
1
1
1
1
1
1
1
1
1
1
1
1
1
1
1
1
1
1
1
1
4.3152
10.1468
10.4601
10.5081
10.5672
10.6222
10.6793
10.7361
10.7905
10.8413
10.8907
10.9421
10.998
11.0564
11.113
11.1664
11.2173
11.2663
11.3143
11.3612
11.4059
11.4483
11.4896
11.5286
11.5639
11.5951
11.623
11.6503
11.6811
11.7183
11.7606
11.8032
11.8409
11.8711
11.8942
11.913
11.9299
11.9455
11.9586
11.9685
11.9765
11.9848
11.9953
12.0081
12.0199
12.0288
12.0366
1
1
1
1
1
1
1
1
1
1
1
1
1
1
1
1
1
1
1
1
1
1
1
1
1
1
1
1
1
1
1
1
1
1
1
1
1
1
1
1
1
1
1
1
1
1
1
1
1
4.2792
10.1164
10.4562
10.505
10.5663
10.6229
10.6809
10.7383
10.7931
10.8441
10.8931
10.9436
10.9983
11.0562
11.1131
11.1666
11.2168
11.2645
11.3105
11.356
11.4006
11.4445
11.4874
11.5274
11.5626
11.5931
11.6203
11.6475
11.6789
11.7167
11.7593
11.8016
11.8387
11.8684
11.8916
11.9106
11.9277
11.9433
11.9561
11.9657
11.9736
11.9819
11.9921
12.0049
12.0166
12.0259
12.034
1
1
1
1
1
1
1
1
1
1
1
1
1
1
1
1
1
1
1
1
1
1
1
1
1
1
1
1
1
1
1
1
1
1
1
1
1
1
1
1
1
1
1
1
1
1
1
1
1
4.19818
10.0771
10.4484
10.4991
10.5623
10.6205
10.6803
10.739
10.7946
10.8458
10.8943
10.9436
10.9972
11.0549
11.1121
11.1659
11.2154
11.2616
11.3051
11.3488
11.3931
11.4383
11.4831
11.5245
11.56
11.5897
11.6159
11.6428
11.6746
11.7132
11.7561
11.7983
11.8349
11.8642
11.8874
11.9068
11.9242
11.9397
11.9521
11.9612
11.9689
11.9768
11.9869
11.9997
12.0115
12.021
12.0296
1
1
1
1
1
1
1
1
1
1
1
1
1
1
1
1
1
1
1
1
1
1
1
1
1
1
1
1
1
1
1
1
1
1
1
1
1
1
1
1
1
1
1
1
1
1
1
1
1
4.07359
10.0235
10.4423
10.4951
10.559
10.6182
10.6792
10.7387
10.7945
10.8459
10.8941
10.9426
10.9952
11.0526
11.1098
11.1631
11.2113
11.2558
11.2969
11.3393
11.3837
11.4305
11.4772
11.5197
11.5553
11.5842
11.6095
11.6362
11.6685
11.7078
11.7511
11.7931
11.8293
11.8583
11.8816
11.9013
11.919
11.9341
11.946
11.9546
11.9619
11.9695
11.9792
11.9918
12.0037
12.0137
12.0229
1
1
1
1
1
1
1
1
1
1
1
1
1
1
1
1
1
1
1
1
1
1
1
1
1
1
1
1
1
1
1
1
1
1
1
1
1
1
1
1
1
1
1
1
1
1
1
1
1
3.91353
9.95589
10.4371
10.4903
10.5535
10.6136
10.6759
10.7357
10.7916
10.8433
10.8917
10.9399
10.9921
11.0492
11.1061
11.1584
11.205
11.2479
11.2874
11.3292
11.3738
11.4217
11.4695
11.5126
11.548
11.5762
11.6009
11.6275
11.6601
11.6996
11.743
11.7849
11.821
11.8502
11.8739
11.8941
11.9119
11.9268
11.9382
11.9465
11.9535
11.9605
11.9696
11.9819
11.994
12.0046
12.0141
1
1
1
1
1
1
1
1
1
1
1
1
1
1
1
1
1
1
1
1
1
1
1
1
1
1
1
1
1
1
1
1
1
1
1
1
1
1
1
1
1
1
1
1
1
1
1
1
1
3.72054
9.87023
10.4315
10.4853
10.5483
10.6089
10.6718
10.7316
10.7875
10.8395
10.888
10.9357
10.9868
11.0427
11.0985
11.1494
11.1946
11.2369
11.276
11.3183
11.3637
11.4122
11.4604
11.5036
11.5387
11.5666
11.5911
11.6178
11.6505
11.6899
11.733
11.7747
11.8109
11.8405
11.8645
11.8849
11.9025
11.917
11.928
11.9361
11.943
11.9496
11.9581
11.9702
11.9826
11.9936
12.0033
1
1
1
1
1
1
1
1
1
1
1
1
1
1
1
1
1
1
1
1
1
1
1
1
1
1
1
1
1
1
1
1
1
1
1
1
1
1
1
1
1
1
1
1
1
1
1
1
1
3.49277
9.76628
10.4274
10.48
10.5421
10.6025
10.6658
10.7258
10.7816
10.8339
10.8826
10.93
10.9799
11.0343
11.089
11.1386
11.1831
11.2253
11.2646
11.3073
11.3532
11.4015
11.4492
11.4918
11.5267
11.5546
11.5795
11.6065
11.6392
11.6782
11.7207
11.7621
11.7985
11.8285
11.8529
11.8734
11.8908
11.9049
11.9156
11.9235
11.9304
11.9369
11.9449
11.9567
11.9694
11.9808
11.9902
1
1
1
1
1
1
1
1
1
1
1
1
1
1
1
1
1
1
1
1
1
1
1
1
1
1
1
1
1
1
1
1
1
1
1
1
1
1
1
1
1
1
1
1
1
1
1
1
1
3.23291
9.63768
10.4248
10.4754
10.5361
10.5948
10.6576
10.7175
10.7733
10.8256
10.8745
10.9215
10.97
11.0227
11.0763
11.1252
11.1696
11.2123
11.2523
11.2954
11.3416
11.3896
11.4369
11.4793
11.5143
11.5426
11.5675
11.5941
11.6257
11.6632
11.7045
11.7453
11.782
11.8128
11.8381
11.859
11.8764
11.8902
11.9007
11.9085
11.9155
11.9223
11.9301
11.9416
11.9543
11.9657
11.9744
1
1
1
1
1
1
1
1
1
1
1
1
1
1
1
1
1
1
1
1
1
1
1
1
1
1
1
1
1
1
1
1
1
1
1
1
1
1
1
1
1
1
1
1
1
1
1
1
1
2.94755
9.4754
10.4229
10.4704
10.5302
10.5865
10.6478
10.7072
10.7632
10.8157
10.8651
10.9119
10.9592
11.0101
11.0625
11.111
11.1555
11.1986
11.2391
11.2821
11.328
11.3751
11.4217
11.4637
11.4989
11.5277
11.553
11.5795
11.6103
11.6466
11.6865
11.7267
11.7635
11.7951
11.8211
11.8424
11.8597
11.8731
11.8833
11.8911
11.8985
11.9059
11.9141
11.9253
11.9375
11.9483
11.9561
1
1
1
1
1
1
1
1
1
1
1
1
1
1
1
1
1
1
1
1
1
1
1
1
1
1
1
1
1
1
1
1
1
1
1
1
1
1
1
1
1
1
1
1
1
1
1
1
1
2.64437
9.27166
10.4247
10.464
10.5231
10.5777
10.6373
10.6961
10.7517
10.804
10.8534
10.9001
10.9462
10.9956
11.0472
11.0958
11.1406
11.1842
11.2252
11.2678
11.313
11.3592
11.4049
11.4466
11.482
11.5115
11.5373
11.5636
11.5935
11.6282
11.6663
11.7052
11.7417
11.774
11.801
11.8231
11.8405
11.8536
11.8636
11.8714
11.8793
11.8875
11.8963
11.9072
11.9183
11.9281
11.9346
1
1
1
1
1
1
1
1
1
1
1
1
1
1
1
1
1
1
1
1
1
1
1
1
1
1
1
1
1
1
1
1
1
1
1
1
1
1
1
1
1
1
1
1
1
1
1
1
1
2.33464
9.0176
10.4308
10.4551
10.5136
10.5666
10.625
10.6837
10.739
10.7905
10.8394
10.8858
10.9317
10.9805
11.0319
11.0805
11.1251
11.1685
11.2096
11.2513
11.2958
11.3409
11.3858
11.427
11.4625
11.4926
11.5189
11.5455
11.5748
11.608
11.6441
11.6814
11.7175
11.7504
11.7785
11.8014
11.8187
11.8311
11.8406
11.8486
11.8571
11.8666
11.8763
11.8869
11.8967
11.9051
11.9101
1
1
1
1
1
1
1
1
1
1
1
1
1
1
1
1
1
1
1
1
1
1
1
1
1
1
1
1
1
1
1
1
1
1
1
1
1
1
1
1
1
1
1
1
1
1
1
1
1
2.02823
8.69768
10.4374
10.4465
10.5043
10.5542
10.6107
10.6689
10.7243
10.7757
10.8243
10.871
10.917
10.9652
11.0156
11.0639
11.1078
11.1509
11.1921
11.2334
11.2775
11.3217
11.3653
11.4054
11.4403
11.4707
11.4979
11.5252
11.5544
11.5861
11.6201
11.6555
11.6907
11.7239
11.7529
11.7763
11.7937
11.8058
11.8151
11.8235
11.833
11.8436
11.8538
11.8637
11.8719
11.8783
11.8815
1
1
1
1
1
1
1
1
1
1
1
1
1
1
1
1
1
1
1
1
1
1
1
1
1
1
1
1
1
1
1
1
1
1
1
1
1
1
1
1
1
1
1
1
1
1
1
1
1
1.74396
8.31853
10.4351
10.4383
10.4965
10.5427
10.5966
10.6534
10.709
10.7604
10.8086
10.8551
10.901
10.9482
10.9977
11.0457
11.0896
11.1324
11.1738
11.2146
11.2579
11.3007
11.3426
11.3813
11.4155
11.4464
11.4747
11.503
11.5321
11.5624
11.5941
11.6275
11.6617
11.6949
11.7243
11.7481
11.7655
11.7775
11.7868
11.7957
11.8062
11.8175
11.8277
11.837
11.8438
11.8481
11.8497
1
1
1
1
1
1
1
1
1
1
1
1
1
1
1
1
1
1
1
1
1
1
1
1
1
1
1
1
1
1
1
1
1
1
1
1
1
1
1
1
1
1
1
1
1
1
1
1
1
1.48386
7.86548
10.4193
10.4297
10.4831
10.5284
10.5819
10.6381
10.6932
10.7441
10.7914
10.8374
10.883
10.9299
10.979
11.0268
11.0705
11.1126
11.1537
11.1938
11.2363
11.278
11.3184
11.3557
11.3892
11.4201
11.4492
11.4783
11.5073
11.5365
11.5663
11.5977
11.6307
11.6633
11.6925
11.7162
11.7337
11.7461
11.756
11.7653
11.7766
11.7882
11.7981
11.8067
11.8122
11.8147
11.8152
1
1
1
1
1
1
1
1
1
1
1
1
1
1
1
1
1
1
1
1
1
1
1
1
1
1
1
1
1
1
1
1
1
1
1
1
1
1
1
1
1
1
1
1
1
1
1
1
1
1.24983
7.37006
10.3981
10.4188
10.4632
10.5093
10.5625
10.6184
10.6736
10.7245
10.7715
10.8177
10.8636
10.9102
10.9585
11.0057
11.0489
11.0902
11.131
11.1707
11.2126
11.2534
11.2924
11.3283
11.3606
11.3912
11.4209
11.4507
11.48
11.5084
11.5367
11.5662
11.5974
11.6288
11.6571
11.6804
11.6982
11.7114
11.7223
11.7323
11.7436
11.755
11.7645
11.7723
11.7769
11.7781
11.7782
1
1
1
1
1
1
1
1
1
1
1
1
1
1
1
1
1
1
1
1
1
1
1
1
1
1
1
1
1
1
1
1
1
1
1
1
1
1
1
1
1
1
1
1
1
1
1
1
1
1.0378
6.8191
10.3589
10.3941
10.4352
10.4848
10.5378
10.5944
10.6508
10.7026
10.7498
10.7955
10.8406
10.8866
10.9346
10.9814
11.0244
11.0652
11.1058
11.1452
11.1862
11.226
11.2638
11.2985
11.33
11.3602
11.39
11.4202
11.4497
11.4777
11.5047
11.5322
11.5614
11.5909
11.6181
11.6411
11.6594
11.6738
11.6858
11.6965
11.7072
11.7178
11.7268
11.7337
11.7376
11.7377
11.7378
1
1
1
1
1
1
1
1
1
1
1
1
1
1
1
1
1
1
1
1
1
1
1
1
1
1
1
1
1
1
1
1
1
1
1
1
1
1
1
1
1
1
1
1
1
1
1
1
1
1.00067
6.18224
10.2426
10.3476
10.4037
10.4605
10.5142
10.5708
10.6273
10.6789
10.7254
10.7709
10.8163
10.8617
10.9088
10.9545
10.9969
11.037
11.0773
11.1162
11.1561
11.195
11.2319
11.266
11.297
11.3268
11.3564
11.3865
11.4159
11.4437
11.4697
11.4955
11.5221
11.5494
11.5753
11.5981
11.6173
11.6328
11.6456
11.6566
11.6666
11.6759
11.6843
11.6903
11.6938
11.6934
11.694
1
1
1
1
1
1
1
1
1
1
1
1
1
1
1
1
1
1
1
1
1
1
1
1
1
1
1
1
1
1
1
1
1
1
1
1
1
1
1
1
1
1
1
1
1
1
1
1
1
1
5.44418
10.1195
10.3111
10.3717
10.4339
10.4907
10.5481
10.6044
10.6565
10.7026
10.7464
10.7903
10.8341
10.8798
10.9243
10.9662
11.0061
11.0464
11.0851
11.1239
11.1612
11.1968
11.2302
11.2611
11.2905
11.3198
11.3495
11.3788
11.4062
11.4313
11.455
11.4791
11.5041
11.5288
11.5518
11.5719
11.5884
11.6016
11.6125
11.6215
11.6293
11.6367
11.6417
11.6447
11.644
11.645
1
1
1
1
1
1
1
1
1
1
1
1
1
1
1
1
1
1
1
1
1
1
1
1
1
1
1
1
1
1
1
1
1
1
1
1
1
1
1
1
1
1
1
1
1
1
1
1
1
1
4.67369
9.96833
10.2755
10.3465
10.4065
10.4639
10.5211
10.5774
10.6302
10.6777
10.7222
10.7664
10.8095
10.8538
10.8967
10.9369
10.9752
11.0141
11.0515
11.0884
11.124
11.1581
11.1908
11.2218
11.2516
11.2807
11.3098
11.3383
11.3647
11.3884
11.4101
11.4319
11.455
11.479
11.5022
11.5229
11.5398
11.5526
11.5625
11.5704
11.5767
11.5831
11.5874
11.5902
11.5896
11.5913
1
1
1
1
1
1
1
1
1
1
1
1
1
1
1
1
1
1
1
1
1
1
1
1
1
1
1
1
1
1
1
1
1
1
1
1
1
1
1
1
1
1
1
1
1
1
1
1
1
1
3.88734
9.73675
10.2486
10.3214
10.3882
10.4456
10.5005
10.5542
10.6057
10.6525
10.6948
10.7378
10.7806
10.824
10.866
10.9059
10.9437
10.9813
11.0178
11.0524
11.0852
11.1171
11.1487
11.1797
11.2096
11.2385
11.2667
11.2938
11.3187
11.3406
11.3605
11.3805
11.4024
11.4258
11.4492
11.4701
11.4866
11.4985
11.5069
11.5132
11.5182
11.5234
11.5266
11.5289
11.5284
11.5307
1
1
1
1
1
1
1
1
1
1
1
1
1
1
1
1
1
1
1
1
1
1
1
1
1
1
1
1
1
1
1
1
1
1
1
1
1
1
1
1
1
1
1
1
1
1
1
1
1
1
3.1489
9.38098
10.2527
10.3037
10.37
10.4259
10.4807
10.5329
10.5828
10.6304
10.6734
10.714
10.7542
10.795
10.8359
10.8744
10.911
10.9469
10.9819
11.0149
11.0452
11.0743
11.1039
11.1343
11.1643
11.193
11.2201
11.2454
11.2681
11.288
11.3062
11.3248
11.3458
11.3689
11.3919
11.4122
11.4277
11.4379
11.4442
11.4484
11.4519
11.4558
11.4584
11.4607
11.4608
11.4637
1
1
1
1
1
1
1
1
1
1
1
1
1
1
1
1
1
1
1
1
1
1
1
1
1
1
1
1
1
1
1
1
1
1
1
1
1
1
1
1
1
1
1
1
1
1
1
1
1
1
2.44362
8.85597
10.2684
10.3004
10.3674
10.4144
10.4634
10.5107
10.5576
10.6043
10.6469
10.688
10.728
10.7676
10.8072
10.8449
10.8792
10.9119
10.9442
10.9749
11.0029
11.0298
11.0576
11.087
11.1159
11.1433
11.1687
11.1919
11.2124
11.2304
11.2472
11.265
11.2853
11.3076
11.3298
11.3488
11.3626
11.3709
11.3749
11.3766
11.3782
11.3803
11.3816
11.3834
11.3837
11.3869
1
1
1
1
1
1
1
1
1
1
1
1
1
1
1
1
1
1
1
1
1
1
1
1
1
1
1
1
1
1
1
1
1
1
1
1
1
1
1
1
1
1
1
1
1
1
1
1
1
1
1.76598
8.27051
10.3403
10.2831
10.3448
10.3897
10.4406
10.49
10.5359
10.5797
10.6213
10.6611
10.7002
10.7388
10.7776
10.8145
10.8477
10.8777
10.9071
10.9359
10.9623
10.987
11.0119
11.0381
11.065
11.09
11.1127
11.1332
11.1516
11.168
11.1837
11.2007
11.2201
11.2411
11.2616
11.2787
11.2901
11.2959
11.2966
11.2952
11.2941
11.2941
11.2945
11.2963
11.2974
11.3012
1
1
1
1
1
1
1
1
1
1
1
1
1
1
1
1
1
1
1
1
1
1
1
1
1
1
1
1
1
1
1
1
1
1
1
1
1
1
1
1
1
1
1
1
1
1
1
1
1
1
1.20695
7.47055
10.3973
10.3135
10.3347
10.3659
10.4108
10.4593
10.5063
10.5499
10.5907
10.6301
10.6699
10.7087
10.7463
10.7819
10.8139
10.8421
10.8695
10.8968
10.9224
10.9455
10.9677
10.9899
11.0122
11.0334
11.0526
11.0702
11.0864
11.1014
11.1161
11.132
11.1497
11.1685
11.1864
11.2009
11.2098
11.2129
11.21
11.2055
11.2012
11.1981
11.196
11.1961
11.1967
11.1997
1
1
1
1
1
1
1
1
1
1
1
1
1
1
1
1
1
1
1
1
1
1
1
1
1
1
1
1
1
1
1
1
1
1
1
1
1
1
1
1
1
1
1
1
1
1
1
1
1
1
1.00686
6.59959
10.2157
10.1912
10.2643
10.3168
10.3724
10.4218
10.4675
10.5106
10.5537
10.5953
10.6366
10.6762
10.7129
10.7471
10.778
10.8051
10.831
10.8567
10.8817
10.9036
10.9229
10.9409
10.9587
10.9756
10.991
11.0051
11.0189
11.0321
11.0451
11.0589
11.0739
11.0894
11.1037
11.1148
11.1207
11.1199
11.1124
11.1032
11.0939
11.0868
11.0822
11.0811
11.0816
11.0848
1
1
1
1
1
1
1
1
1
1
1
1
1
1
1
1
1
1
1
1
1
1
1
1
1
1
1
1
1
1
1
1
1
1
1
1
1
1
1
1
1
1
1
1
1
1
1
1
1
1
1.00002
5.51069
9.99528
10.1613
10.2392
10.2964
10.3487
10.3984
10.4436
10.4846
10.5217
10.5588
10.5981
10.6393
10.6761
10.709
10.7386
10.7647
10.7899
10.8144
10.8386
10.8596
10.8763
10.8903
10.9035
10.9164
10.9283
10.9395
10.9504
10.9611
10.9713
10.9817
10.9927
11.0036
11.0133
11.0202
11.0221
11.0163
11.0039
10.9896
10.9751
10.9631
10.9534
10.9469
10.9434
10.943
1
1
1
1
1
1
1
1
1
1
1
1
1
1
1
1
1
1
1
1
1
1
1
1
1
1
1
1
1
1
1
1
1
1
1
1
1
1
1
1
1
1
1
1
1
1
1
1
1
1
1
4.46127
9.73076
10.0987
10.1862
10.262
10.3172
10.3672
10.4106
10.4497
10.4878
10.5227
10.5609
10.5965
10.6329
10.6661
10.6952
10.7207
10.7457
10.7692
10.7922
10.8122
10.8271
10.838
10.8474
10.8563
10.8649
10.8731
10.8811
10.8886
10.8951
10.9008
10.9066
10.9118
10.9159
10.9176
10.9135
10.9015
10.8825
10.86
10.8367
10.8157
10.7988
10.7871
10.7805
10.7799
1
1
1
1
1
1
1
1
1
1
1
1
1
1
1
1
1
1
1
1
1
1
1
1
1
1
1
1
1
1
1
1
1
1
1
1
1
1
1
1
1
1
1
1
1
1
1
1
1
1
1
3.43219
9.2945
10.0909
10.1931
10.2626
10.3057
10.3465
10.3829
10.4194
10.4525
10.4845
10.5172
10.5555
10.5895
10.6197
10.6482
10.6733
10.6977
10.7205
10.7418
10.7605
10.7743
10.7833
10.7897
10.7953
10.8004
10.8053
10.8101
10.8136
10.8157
10.8163
10.8159
10.8143
10.812
10.8067
10.795
10.7748
10.7468
10.7148
10.6819
10.6515
10.6245
10.5987
10.5778
10.5648
1
1
1
1
1
1
1
1
1
1
1
1
1
1
1
1
1
1
1
1
1
1
1
1
1
1
1
1
1
1
1
1
1
1
1
1
1
1
1
1
1
1
1
1
1
1
1
1
1
1
1
2.39192
8.61906
10.1786
10.2003
10.2293
10.2625
10.3079
10.3506
10.3885
10.4203
10.4497
10.4783
10.5086
10.5422
10.5716
10.5983
10.6218
10.6452
10.6675
10.6872
10.7045
10.7176
10.7255
10.7299
10.7331
10.7352
10.7366
10.7371
10.7361
10.7335
10.7284
10.7206
10.7122
10.702
10.6882
10.6671
10.6365
10.597
10.5519
10.5031
10.4525
10.402
10.3565
10.3213
10.3091
1
1
1
1
1
1
1
1
1
1
1
1
1
1
1
1
1
1
1
1
1
1
1
1
1
1
1
1
1
1
1
1
1
1
1
1
1
1
1
1
1
1
1
1
1
1
1
1
1
1
1
1.47816
7.90614
10.3198
10.1702
10.1878
10.2279
10.274
10.3147
10.3508
10.3837
10.4136
10.4407
10.4684
10.4983
10.5246
10.5483
10.5691
10.5899
10.6109
10.6292
10.6451
10.6573
10.6641
10.6671
10.6684
10.6678
10.6655
10.6618
10.6557
10.6474
10.6357
10.621
10.6048
10.5857
10.5619
10.5296
10.4863
10.4317
10.3684
10.299
10.2264
10.1523
10.078
9.99757
9.92875
1
1
1
1
1
1
1
1
1
1
1
1
1
1
1
1
1
1
1
1
1
1
1
1
1
1
1
1
1
1
1
1
1
1
1
1
1
1
1
1
1
1
1
1
1
1
1
1
1
1
1
1.02909
6.87989
10.1793
10.1061
10.1517
10.1906
10.2326
10.2763
10.3134
10.3459
10.3749
10.4011
10.4267
10.4545
10.4806
10.5016
10.5184
10.5343
10.5526
10.5693
10.5828
10.5934
10.5991
10.6009
10.6003
10.5971
10.5916
10.5837
10.5725
10.5582
10.54
10.5179
10.4928
10.4638
10.4285
10.3833
10.3249
10.2523
10.1674
10.0712
9.96139
9.82878
9.67108
9.5142
9.40086
1
1
1
1
1
1
1
1
1
1
1
1
1
1
1
1
1
1
1
1
1
1
1
1
1
1
1
1
1
1
1
1
1
1
1
1
1
1
1
1
1
1
1
1
1
1
1
1
1
1
1
1.00005
5.53319
9.86277
10.0152
10.0879
10.1457
10.1967
10.2376
10.2732
10.3047
10.333
10.3589
10.3836
10.4093
10.434
10.4542
10.4696
10.4821
10.4945
10.509
10.5197
10.5277
10.5316
10.5317
10.5287
10.5227
10.5138
10.5017
10.4858
10.4657
10.4409
10.4109
10.3761
10.3357
10.2878
10.2281
10.1531
10.0596
9.94725
9.81288
9.65045
9.4538
9.21683
8.95865
8.79136
1
1
1
1
1
1
1
1
1
1
1
1
1
1
1
1
1
1
1
1
1
1
1
1
1
1
1
1
1
1
1
1
1
1
1
1
1
1
1
1
1
1
1
1
1
1
1
1
1
1
1
0.999999
4.24736
9.5601
9.9794
10.0629
10.1242
10.163
10.1936
10.226
10.2579
10.2871
10.3134
10.3379
10.3625
10.3857
10.4049
10.4196
10.4307
10.4392
10.4485
10.4566
10.4613
10.4624
10.4603
10.4541
10.4447
10.432
10.4159
10.3956
10.3701
10.3389
10.3007
10.2557
10.2031
10.1413
10.066
9.97271
9.85592
9.71236
9.5364
9.31853
9.02782
8.5909
7.75155
5.79081
1
1
1
1
1
1
1
1
1
1
1
1
1
1
1
1
1
1
1
1
1
1
1
1
1
1
1
1
1
1
1
1
1
1
1
1
1
1
1
1
1
1
1
1
1
1
1
1
1
1
1
1
2.99272
8.93799
9.96616
10.0411
10.1031
10.1367
10.1648
10.1903
10.2167
10.2431
10.268
10.2916
10.3146
10.3358
10.3538
10.3677
10.3778
10.3838
10.3884
10.3931
10.3944
10.392
10.3871
10.3775
10.3639
10.347
10.3264
10.3016
10.271
10.2335
10.1872
10.1317
10.0663
9.98984
9.89811
9.78562
9.64459
9.46797
9.24532
8.95434
8.54846
7.90761
6.9373
4.72009
1
1
1
1
1
1
1
1
1
1
1
1
1
1
1
1
1
1
1
1
1
1
1
1
1
1
1
1
1
1
1
1
1
1
1
1
1
1
1
1
1
1
1
1
1
1
1
1
1
1
1
1
1.84048
8.15204
10.1066
10.0427
10.0632
10.095
10.1288
10.1569
10.1816
10.2032
10.2234
10.2441
10.2648
10.284
10.3009
10.3141
10.3233
10.3276
10.3285
10.3292
10.3272
10.3215
10.313
10.3
10.2821
10.26
10.2344
10.2045
10.1685
10.1248
10.0707
10.0052
9.92713
9.83588
9.72734
9.59535
9.42995
9.22146
8.95321
8.6044
8.10778
7.45057
6.16802
4.35569
1
1
1
1
1
1
1
1
1
1
1
1
1
1
1
1
1
1
1
1
1
1
1
1
1
1
1
1
1
1
1
1
1
1
1
1
1
1
1
1
1
1
1
1
1
1
1
1
1
1
1
1
1.08773
7.00041
10.1338
10.0355
10.0197
10.0498
10.0894
10.1178
10.1424
10.163
10.1807
10.1983
10.2159
10.2327
10.2479
10.2598
10.2674
10.2701
10.268
10.2646
10.259
10.2503
10.2378
10.221
10.1992
10.1718
10.1406
10.1051
10.0632
10.0132
9.95166
9.87673
9.78683
9.68121
9.55589
9.40507
9.21652
8.98079
8.67461
8.28371
7.7389
6.98799
5.75105
4.25475
1
1
1
1
1
1
1
1
1
1
1
1
1
1
1
1
1
1
1
1
1
1
1
1
1
1
1
1
1
1
1
1
1
1
1
1
1
1
1
1
1
1
1
1
1
1
1
1
1
1
1
1
1.00061
5.55147
9.73759
9.86509
9.94985
10.0007
10.0417
10.072
10.0984
10.1198
10.1369
10.1522
10.167
10.1808
10.1942
10.2041
10.2101
10.211
10.2067
10.1997
10.1908
10.1789
10.1627
10.1418
10.1161
10.0838
10.0467
10.0049
9.95664
9.89973
9.83081
9.74713
9.64639
9.52758
9.38646
9.21827
9.00992
8.75137
8.41905
7.99146
7.43057
6.64678
5.55516
4.35463
1
1
1
1
1
1
1
1
1
1
1
1
1
1
1
1
1
1
1
1
1
1
1
1
1
1
1
1
1
1
1
1
1
1
1
1
1
1
1
1
1
1
1
1
1
1
1
1
1
1
1
1
0.999993
4.03297
9.32739
9.85401
9.93242
9.98319
10.0076
10.0302
10.0539
10.0742
10.0906
10.1044
10.1169
10.1284
10.1395
10.1475
10.1519
10.1507
10.1443
10.1344
10.1222
10.1068
10.0868
10.0617
10.0314
9.99482
9.95216
9.90412
9.84938
9.78554
9.70933
9.61772
9.50743
9.37691
9.22165
9.0377
8.8136
8.53733
8.18958
7.74412
7.17592
6.42507
5.49732
4.4957
1
1
1
1
1
1
1
1
1
1
1
1
1
1
1
1
1
1
1
1
1
1
1
1
1
1
1
1
1
1
1
1
1
1
1
1
1
1
1
1
1
1
1
1
1
1
1
1
1
1
1
1
0.999998
2.54787
8.62247
9.93142
9.92915
9.94728
9.96527
9.99156
10.0128
10.0304
10.0453
10.0572
10.0674
10.0764
10.0846
10.0906
10.0933
10.09
10.0815
10.069
10.0536
10.0346
10.0109
9.98168
9.94675
9.9058
9.85827
9.80432
9.74302
9.67244
9.58876
9.48944
9.37055
9.22991
9.06281
8.86561
8.62938
8.34183
7.9871
7.54246
6.97859
6.29688
5.49809
4.63336
1
1
1
1
1
1
1
1
1
1
1
1
1
1
1
1
1
1
1
1
1
1
1
1
1
1
1
1
1
1
1
1
1
1
1
1
1
1
1
1
1
1
1
1
1
1
1
1
1
1
1
1
1
1.34908
7.67559
10.0801
9.93511
9.89756
9.91853
9.94772
9.96771
9.98409
9.99784
10.0084
10.0166
10.0231
10.0289
10.0327
10.0337
10.0285
10.018
10.003
9.98443
9.96198
9.93462
9.90154
9.86219
9.81652
9.76414
9.70485
9.63722
9.5603
9.46978
9.36354
9.23723
9.08832
8.91203
8.70469
8.45954
8.16583
7.81126
7.37652
6.84129
6.22298
5.52034
4.77109
1
1
1
1
1
1
1
1
1
1
1
1
1
1
1
1
1
1
1
1
1
1
1
1
1
1
1
1
1
1
1
1
1
1
1
1
1
1
1
1
1
1
1
1
1
1
1
1
1
1
1
1
1
1.01342
6.26015
9.72545
9.76247
9.82581
9.86395
9.89735
9.91838
9.93543
9.94905
9.95854
9.96494
9.9694
9.97291
9.97452
9.9736
9.96702
9.95464
9.93718
9.91562
9.88944
9.85834
9.82144
9.77803
9.72806
9.67118
9.6071
9.53376
9.4505
9.35365
9.2412
9.10809
8.95252
8.76946
8.5553
8.30485
8.00905
7.65955
7.23825
6.74773
6.18459
5.55029
4.90495
1
1
1
1
1
1
1
1
1
1
1
1
1
1
1
1
1
1
1
1
1
1
1
1
1
1
1
1
1
1
1
1
1
1
1
1
1
1
1
1
1
1
1
1
1
1
1
1
1
1
1
1
1
0.999943
4.49924
9.30643
9.71353
9.80194
9.8428
9.86057
9.87507
9.88969
9.90181
9.9101
9.91473
9.91697
9.91789
9.91691
9.9135
9.90529
9.89118
9.8713
9.84669
9.81691
9.78214
9.74172
9.69473
9.64098
9.57985
9.51102
9.43237
9.3429
9.23991
9.12215
8.98385
8.82345
8.63615
8.41847
8.16598
7.87118
7.53115
7.12524
6.67528
6.16343
5.59161
5.03768
1
1
1
1
1
1
1
1
1
1
1
1
1
1
1
1
1
1
1
1
1
1
1
1
1
1
1
1
1
1
1
1
1
1
1
1
1
1
1
1
1
1
1
1
1
1
1
1
1
1
1
1
1
0.999985
2.76556
8.70032
9.78979
9.79458
9.8047
9.81594
9.83242
9.84538
9.85564
9.86218
9.86474
9.8645
9.86262
9.8589
9.85305
9.84312
9.8276
9.80574
9.77825
9.74513
9.70657
9.66243
9.61189
9.55468
9.4898
9.41673
9.33341
9.23851
9.13012
9.00681
8.86498
8.70176
8.51179
8.2929
8.04192
7.75099
7.42327
7.031
6.61561
6.15652
5.64163
5.14757
1
1
1
1
1
1
1
1
1
1
1
1
1
1
1
1
1
1
1
1
1
1
1
1
1
1
1
1
1
1
1
1
1
1
1
1
1
1
1
1
1
1
1
1
1
1
1
1
1
1
1
1
1
0.999998
1.39359
7.71664
9.9341
9.7935
9.74834
9.76465
9.78569
9.79928
9.80919
9.81476
9.81589
9.81355
9.8089
9.80222
9.79363
9.78144
9.7639
9.73995
9.70963
9.67351
9.63167
9.58423
9.53051
9.47016
9.40191
9.32499
9.23738
9.13768
9.0247
8.89662
8.75145
8.58639
8.39673
8.17866
7.93103
7.64764
7.32859
6.95609
6.57794
6.15249
5.68091
5.23391
1
1
1
1
1
1
1
1
1
1
1
1
1
1
1
1
1
1
1
1
1
1
1
1
1
1
1
1
1
1
1
1
1
1
1
1
1
1
1
1
1
1
1
1
1
1
1
1
1
1
1
1
1
1
1.01629
6.18027
9.56447
9.62074
9.67574
9.70794
9.73413
9.75037
9.76162
9.76671
9.76681
9.7626
9.75531
9.74571
9.73425
9.71963
9.69995
9.67409
9.64144
9.60276
9.55811
9.5076
9.4506
9.38688
9.31519
9.23472
9.14345
9.04
8.92349
8.79211
8.64465
8.4781
8.28937
8.07456
7.83183
7.55553
7.24662
6.90375
6.55214
6.14168
5.71683
5.30785
1
1
1
1
1
1
1
1
1
1
1
1
1
1
1
1
1
1
1
1
1
1
1
1
1
1
1
1
1
1
1
1
1
1
1
1
1
1
1
1
1
1
1
1
1
1
1
1
1
1
1
1
1
1
0.999931
4.25295
9.13838
9.57382
9.64489
9.68081
9.69657
9.70714
9.71565
9.71928
9.71801
9.71208
9.70249
9.69019
9.67572
9.65836
9.63621
9.6083
9.5736
9.53265
9.48551
9.43238
9.37249
9.30572
9.23091
9.14725
9.05284
8.94644
8.82726
8.69377
8.54481
8.37786
8.19011
7.9792
7.74324
7.47517
7.17897
6.8632
6.52486
6.13122
5.76002
5.37642
1
1
1
1
1
1
1
1
1
1
1
1
1
1
1
1
1
1
1
1
1
1
1
1
1
1
1
1
1
1
1
1
1
1
1
1
1
1
1
1
1
1
1
1
1
1
1
1
1
1
1
1
1
1
0.999982
2.397
8.43365
9.66375
9.63805
9.64402
9.65777
9.66783
9.67304
9.674
9.67043
9.66235
9.65034
9.63527
9.61761
9.59722
9.57256
9.54272
9.50642
9.46373
9.41444
9.35887
9.29628
9.22661
9.14877
9.06207
8.96485
8.85628
8.7354
8.60091
8.45136
8.2848
8.09884
7.89213
7.66378
7.40451
7.12215
6.82658
6.49898
6.138
5.80508
5.43528
1
1
1
1
1
1
1
1
1
1
1
1
1
1
1
1
1
1
1
1
1
1
1
1
1
1
1
1
1
1
1
1
1
1
1
1
1
1
1
1
1
1
1
1
1
1
1
1
1
1
1
1
1
1
0.999997
1.18049
7.14031
9.72963
9.61674
9.59298
9.60946
9.62172
9.62678
9.62676
9.6218
9.61217
9.59822
9.58073
9.56011
9.53667
9.50955
9.47788
9.44026
9.39616
9.34492
9.28694
9.22185
9.14965
9.06929
8.98014
8.8807
8.77058
8.64867
8.51393
8.36461
8.19906
8.01568
7.81286
7.59306
7.3416
7.07279
6.79438
6.48124
6.15556
5.83711
5.48126
1
1
1
1
1
1
1
1
1
1
1
1
1
1
1
1
1
1
1
1
1
1
1
1
1
1
1
1
1
1
1
1
1
1
1
1
1
1
1
1
1
1
1
1
1
1
1
1
1
1
1
1
1
1
1
1.00276
5.28399
9.24655
9.4632
9.54122
9.57068
9.57812
9.58081
9.57919
9.57287
9.5618
9.54609
9.52632
9.50302
9.47669
9.44722
9.41382
9.37497
9.32969
9.27677
9.21659
9.14921
9.07481
8.99239
8.9013
8.80015
8.68898
8.56641
8.43192
8.28354
8.11969
7.93943
7.74029
7.52778
7.28511
7.03071
6.76636
6.46943
6.17062
5.86183
5.53104
1
1
1
1
1
1
1
1
1
1
1
1
1
1
1
1
1
1
1
1
1
1
1
1
1
1
1
1
1
1
1
1
1
1
1
1
1
1
1
1
1
1
1
1
1
1
1
1
1
1
1
1
1
1
1
0.999971
3.11984
8.72537
9.53699
9.53095
9.53416
9.54224
9.54185
9.53655
9.52747
9.51401
9.49602
9.47373
9.44778
9.41872
9.38682
9.35145
9.31114
9.26459
9.21017
9.14813
9.07873
9.00243
8.91834
8.82583
8.72355
8.61168
8.48879
8.35477
8.20774
8.04619
7.86954
7.67421
7.46727
7.23393
6.99499
6.74315
6.4606
6.18115
5.88419
5.58409
1
1
1
1
1
1
1
1
1
1
1
1
1
1
1
1
1
1
1
1
1
1
1
1
1
1
1
1
1
1
1
1
1
1
1
1
1
1
1
1
1
1
1
1
1
1
1
1
1
1
1
1
1
1
1
0.999993
1.42792
7.70276
9.65976
9.51887
9.48466
9.48993
9.49069
9.48633
9.47775
9.46371
9.4446
9.4207
9.39293
9.36185
9.32775
9.29027
9.24816
9.20011
9.14437
9.08094
9.01002
8.93222
8.84687
8.7534
8.65064
8.53835
8.41551
8.282
8.13642
7.97724
7.80479
7.61383
7.41125
7.18701
6.96466
6.72129
6.45373
6.189
5.90811
5.63396
1
1
1
1
1
1
1
1
1
1
1
1
1
1
1
1
1
1
1
1
1
1
1
1
1
1
1
1
1
1
1
1
1
1
1
1
1
1
1
1
1
1
1
1
1
1
1
1
1
1
1
1
1
1
1
0.999999
1.01746
5.92945
9.25594
9.36965
9.43076
9.4464
9.44054
9.43658
9.42839
9.41417
9.39424
9.36915
9.33984
9.30697
9.27062
9.23076
9.18643
9.13661
9.0797
9.01541
8.94351
8.8646
8.77826
8.68401
8.58104
8.46865
8.34619
8.21323
8.06932
7.9121
7.7443
7.55858
7.36002
7.14734
6.93858
6.69484
6.44463
6.19823
5.93845
5.67573
1
1
1
1
1
1
1
1
1
1
1
1
1
1
1
1
1
1
1
1
1
1
1
1
1
1
1
1
1
1
1
1
1
1
1
1
1
1
1
1
1
1
1
1
1
1
1
1
1
1
1
1
1
1
1
1
0.999923
3.59901
8.7965
9.40013
9.40718
9.4048
9.40344
9.39793
9.38598
9.36867
9.3464
9.3192
9.28799
9.2532
9.21467
9.1724
9.12568
9.07395
9.01596
8.95112
8.87875
8.79923
8.71224
8.61744
8.51437
8.40228
8.2807
8.14877
8.0067
7.85111
7.68767
7.50738
7.31494
7.11608
6.90683
6.66899
6.4432
6.21149
5.96444
5.70558
1
1
1
1
1
1
1
1
1
1
1
1
1
1
1
1
1
1
1
1
1
1
1
1
1
1
1
1
1
1
1
1
1
1
1
1
1
1
1
1
1
1
1
1
1
1
1
1
1
1
1
1
1
1
1
1
0.99998
1.65681
7.94546
9.52533
9.39429
9.35921
9.35323
9.34783
9.33565
9.31839
9.29586
9.26797
9.2356
9.1993
9.15896
9.11459
9.06576
9.01241
8.95353
8.88842
8.81602
8.73641
8.64915
8.554
8.45072
8.33906
8.21874
8.08826
7.94863
7.794
7.63449
7.45976
7.27591
7.08553
6.87325
6.65608
6.44657
6.21749
5.97624
5.7286
1
1
1
1
1
1
1
1
1
1
1
1
1
1
1
1
1
1
1
1
1
1
1
1
1
1
1
1
1
1
1
1
1
1
1
1
1
1
1
1
1
1
1
1
1
1
1
1
1
1
1
1
1
1
1
1
0.999997
1.03941
6.18153
9.18543
9.26467
9.30287
9.31002
9.29982
9.28557
9.26784
9.24503
9.21722
9.18381
9.14615
9.10423
9.05806
9.00752
8.95277
8.89293
8.82743
8.75514
8.67584
8.58877
8.49363
8.39046
8.2793
8.16048
8.03161
7.89444
7.74095
7.586
7.41613
7.24021
7.05406
6.85029
6.6519
6.44348
6.217
5.98905
5.76232
1
1
1
1
1
1
1
1
1
1
1
1
1
1
1
1
1
1
1
1
1
1
1
1
1
1
1
1
1
1
1
1
1
1
1
1
1
1
1
1
1
1
1
1
1
1
1
1
1
1
1
1
1
1
1
1
1
0.999989
3.70225
8.72622
9.27231
9.27493
9.2634
9.25926
9.24514
9.22438
9.19894
9.16943
9.13418
9.09451
9.05078
9.00294
8.95102
8.89509
8.83432
8.76828
8.6961
8.61732
8.53078
8.43616
8.33334
8.22292
8.1057
7.97799
7.84275
7.69231
7.54196
7.37529
7.20577
7.02593
6.8366
6.64304
6.4317
6.2209
6.01005
5.79635
1
1
1
1
1
1
1
1
1
1
1
1
1
1
1
1
1
1
1
1
1
1
1
1
1
1
1
1
1
1
1
1
1
1
1
1
1
1
1
1
1
1
1
1
1
1
1
1
1
1
1
1
1
1
1
1
1
0.99999
1.63247
7.87286
9.4119
9.2702
9.23311
9.21027
9.19431
9.17281
9.14815
9.11904
9.08377
9.0431
8.9983
8.94938
8.89658
8.83982
8.7781
8.71146
8.63914
8.56075
8.4749
8.3809
8.27938
8.17039
8.05415
7.92717
7.79379
7.64872
7.50075
7.33798
7.17522
7.00256
6.82116
6.62786
6.4272
6.23424
6.03199
5.82106
1
1
1
1
1
1
1
1
1
1
1
1
1
1
1
1
1
1
1
1
1
1
1
1
1
1
1
1
1
1
1
1
1
1
1
1
1
1
1
1
1
1
1
1
1
1
1
1
1
1
1
1
1
1
1
1
1
0.999998
1.0356
6.02524
9.05235
9.12495
9.15865
9.16439
9.14659
9.12279
9.09857
9.06964
9.03462
8.99352
8.94787
8.89802
8.84443
8.78685
8.72433
8.65711
8.58441
8.50616
8.4207
8.32775
8.22717
8.12063
8.00416
7.87892
7.74804
7.6085
7.46146
7.30503
7.14848
6.97914
6.80052
6.61487
6.43144
6.24531
6.04385
5.83458
1
1
1
1
1
1
1
1
1
1
1
1
1
1
1
1
1
1
1
1
1
1
1
1
1
1
1
1
1
1
1
1
1
1
1
1
1
1
1
1
1
1
1
1
1
1
1
1
1
1
1
1
1
1
1
1
1
1
0.999967
3.40086
8.53379
9.16696
9.15043
9.12093
9.10183
9.08267
9.05785
9.02613
8.98918
8.94689
8.89993
8.84889
8.79434
8.73594
8.67295
8.60534
8.53257
8.45404
8.36886
8.27685
8.17764
8.07182
7.95754
7.83475
7.70645
7.57046
7.42543
7.27623
7.12252
6.95529
6.78234
6.60881
6.43379
6.24763
6.04995
5.85135
1
1
1
1
1
1
1
1
1
1
1
1
1
1
1
1
1
1
1
1
1
1
1
1
1
1
1
1
1
1
1
1
1
1
1
1
1
1
1
1
1
1
1
1
1
1
1
1
1
1
1
1
1
1
1
1
1
1
0.999986
1.38764
7.50584
9.30615
9.14117
9.08637
9.05335
9.03707
9.00934
8.97654
8.94025
8.89883
8.85216
8.8009
8.74584
8.68697
8.62373
8.55605
8.48319
8.40441
8.31947
8.22799
8.13018
8.02507
7.91341
7.7932
7.66763
7.53375
7.39266
7.24898
7.09623
6.93333
6.76915
6.60407
6.42815
6.24429
6.06077
5.87514
1
1
1
1
1
1
1
1
1
1
1
1
1
1
1
1
1
1
1
1
1
1
1
1
1
1
1
1
1
1
1
1
1
1
1
1
1
1
1
1
1
1
1
1
1
1
1
1
1
1
1
1
1
1
1
1
1
1
0.999998
1.01347
5.46287
8.84153
8.94867
8.99737
9.01654
8.997
8.96276
8.92834
8.89236
8.85192
8.8059
8.75482
8.69948
8.64018
8.57668
8.5091
8.4362
8.35774
8.27313
8.18237
8.08553
7.98212
7.87211
7.75445
7.63139
7.49983
7.36335
7.22244
7.07192
6.9154
6.75826
6.59644
6.42066
6.24736
6.07747
5.89891
1
1
1
1
1
1
1
1
1
1
1
1
1
1
1
1
1
1
1
1
1
1
1
1
1
1
1
1
1
1
1
1
1
1
1
1
1
1
1
1
1
1
1
1
1
1
1
1
1
1
1
1
1
1
1
1
1
1
1
0.999925
2.79777
8.23696
9.01652
9.01972
9.00533
8.95851
8.91776
8.8837
8.84856
8.80818
8.76237
8.71149
8.65593
8.59605
8.53199
8.46401
8.39097
8.31282
8.22866
8.1387
8.0427
7.94067
7.83218
7.71726
7.59664
7.4684
7.33567
7.1966
7.05068
6.90008
6.74675
6.58662
6.41667
6.25577
6.09279
5.91565
1
1
1
1
1
1
1
1
1
1
1
1
1
1
1
1
1
1
1
1
1
1
1
1
1
1
1
1
1
1
1
1
1
1
1
1
1
1
1
1
1
1
1
1
1
1
1
1
1
1
1
1
1
1
1
1
1
1
1
0.999981
1.23573
6.7814
9.05711
8.99475
8.95577
8.90369
8.86734
8.83717
8.80251
8.76245
8.71812
8.66886
8.61423
8.5545
8.49004
8.42144
8.34814
8.27006
8.18652
8.09745
8.00249
7.90173
7.79475
7.68219
7.56389
7.43918
7.30903
7.17269
7.03231
6.88534
6.73469
6.57889
6.41711
6.26394
6.10335
5.92899
1
1
1
1
1
1
1
1
1
1
1
1
1
1
1
1
1
1
1
1
1
1
1
1
1
1
1
1
1
1
1
1
1
1
1
1
1
1
1
1
1
1
1
1
1
1
1
1
1
1
1
1
1
1
1
1
1
1
1
0.999997
1.00434
4.2673
8.57377
8.90038
8.882
8.84441
8.8309
8.80452
8.76584
8.72337
8.67895
8.63012
8.57578
8.51573
8.45057
8.38103
8.30703
8.22872
8.14558
8.05724
7.96332
7.86375
7.75833
7.6478
7.53201
7.41056
7.28273
7.15051
7.01489
6.87008
6.72334
6.57417
6.41919
6.2684
6.10874
5.94161
1
1
1
1
1
1
1
1
1
1
1
1
1
1
1
1
1
1
1
1
1
1
1
1
1
1
1
1
1
1
1
1
1
1
1
1
1
1
1
1
1
1
1
1
1
1
1
1
1
1
1
1
1
1
1
1
1
1
1
1
0.999981
1.73064
7.7438
9.05971
8.89509
8.84487
8.80547
8.76961
8.7241
8.68165
8.63898
8.59183
8.53871
8.47919
8.41419
8.3442
8.26951
8.19068
8.10733
8.0193
7.92615
7.82774
7.72391
7.61517
7.50165
7.38274
7.25729
7.1294
6.99716
6.85504
6.7138
6.57077
6.42064
6.27083
6.11415
5.95627
1
1
1
1
1
1
1
1
1
1
1
1
1
1
1
1
1
1
1
1
1
1
1
1
1
1
1
1
1
1
1
1
1
1
1
1
1
1
1
1
1
1
1
1
1