/*--------------------------------*- C++ -*----------------------------------*\
  =========                 |
  \\      /  F ield         | OpenFOAM: The Open Source CFD Toolbox
   \\    /   O peration     | Website:  https://openfoam.org
    \\  /    A nd           | Version:  7
     \\/     M anipulation  |
\*---------------------------------------------------------------------------*/
FoamFile
{
    version     2.0;
    format      ascii;
    class       volScalarField;
    location    "2.7";
    object      rho;
}
// * * * * * * * * * * * * * * * * * * * * * * * * * * * * * * * * * * * * * //

dimensions      [1 -3 0 0 0 0 0];

internalField   nonuniform List<scalar> 
64512
(
1.40001
1.40001
1.40001
1.40001
1.40001
1.40001
1.40001
1.40001
1.40001
1.40001
1.40001
1.40001
1.40001
1.40001
1.40001
1.40001
1.40001
1.40001
1.40001
1.40001
1.40001
1.40001
1.40001
1.40001
1.40001
1.40001
1.40001
1.40001
1.40001
1.40001
1.40001
1.40001
1.40001
1.40001
1.40001
1.40001
1.40001
1.40001
1.40001
1.40001
1.40001
1.40001
1.40001
1.40001
1.40001
1.40001
1.40001
1.40001
1.40001
3.07269
5.34175
5.43926
5.44397
5.45763
5.47418
5.49482
5.51812
5.54284
5.56803
5.59333
5.61876
5.64348
5.66441
5.67896
5.68833
5.69657
5.70839
5.72641
5.74851
5.77069
5.79136
5.80939
5.82248
5.83082
5.83738
5.84513
5.85536
5.86827
5.88368
5.90027
5.91603
5.92936
5.93976
5.94784
5.95473
5.96144
5.96801
5.97363
5.97744
5.97912
5.97868
5.97646
5.97322
5.96981
5.96776
5.96862
1.40001
1.40001
1.40001
1.40001
1.40001
1.40001
1.40001
1.40001
1.40001
1.40001
1.40001
1.40001
1.40001
1.40001
1.40001
1.40001
1.40001
1.40001
1.40001
1.40001
1.40001
1.40001
1.40001
1.40001
1.40001
1.40001
1.40001
1.40001
1.40001
1.40001
1.40001
1.40001
1.40001
1.40001
1.40001
1.40001
1.40001
1.40001
1.40001
1.40001
1.40001
1.40001
1.40001
1.40001
1.40001
1.40001
1.40001
1.40001
1.40001
3.05549
5.32965
5.43812
5.44314
5.45748
5.4745
5.4954
5.5189
5.54378
5.56903
5.59417
5.61924
5.64352
5.66431
5.67901
5.6884
5.6964
5.70777
5.72506
5.74665
5.76884
5.79007
5.80862
5.82198
5.83031
5.83664
5.84416
5.85438
5.8675
5.88312
5.89979
5.91543
5.92856
5.93883
5.9469
5.9539
5.96069
5.96723
5.97275
5.97647
5.9781
5.97759
5.97529
5.97203
5.96865
5.9667
5.96768
1.40001
1.40001
1.40001
1.40001
1.40001
1.40001
1.40001
1.40001
1.40001
1.40001
1.40001
1.40001
1.40001
1.40001
1.40001
1.40001
1.40001
1.40001
1.40001
1.40001
1.40001
1.40001
1.40001
1.40001
1.40001
1.40001
1.40001
1.40001
1.40001
1.40001
1.40001
1.40001
1.40001
1.40001
1.40001
1.40001
1.40001
1.40001
1.40001
1.40001
1.40001
1.40001
1.40001
1.40001
1.40001
1.40001
1.40001
1.40001
1.40001
3.0188
5.31536
5.43686
5.44215
5.45672
5.47387
5.49523
5.51913
5.54428
5.56955
5.59444
5.61904
5.64296
5.66379
5.67873
5.68829
5.69608
5.7069
5.72323
5.74407
5.76616
5.78793
5.80704
5.82083
5.82927
5.83541
5.84263
5.85273
5.86602
5.8819
5.8987
5.91428
5.92721
5.93732
5.9454
5.95254
5.95947
5.96599
5.97134
5.97487
5.97634
5.97569
5.9733
5.97006
5.96674
5.96495
5.96611
1.40001
1.40001
1.40001
1.40001
1.40001
1.40001
1.40001
1.40001
1.40001
1.40001
1.40001
1.40001
1.40001
1.40001
1.40001
1.40001
1.40001
1.40001
1.40001
1.40001
1.40001
1.40001
1.40001
1.40001
1.40001
1.40001
1.40001
1.40001
1.40001
1.40001
1.40001
1.40001
1.40001
1.40001
1.40001
1.40001
1.40001
1.40001
1.40001
1.40001
1.40001
1.40001
1.40001
1.40001
1.40001
1.40001
1.40001
1.40001
1.40001
2.96282
5.29762
5.4374
5.4425
5.45664
5.47354
5.49499
5.51906
5.54427
5.56951
5.59418
5.61833
5.64189
5.66282
5.67807
5.68775
5.69521
5.70537
5.7206
5.74072
5.76279
5.78511
5.8048
5.819
5.82756
5.83352
5.84047
5.8505
5.86395
5.88004
5.89692
5.91242
5.9252
5.93521
5.94336
5.95065
5.95765
5.96407
5.96921
5.97251
5.97379
5.97291
5.97034
5.96707
5.96386
5.9623
5.96366
1.40001
1.40001
1.40001
1.40001
1.40001
1.40001
1.40001
1.40001
1.40001
1.40001
1.40001
1.40001
1.40001
1.40001
1.40001
1.40001
1.40001
1.40001
1.40001
1.40001
1.40001
1.40001
1.40001
1.40001
1.40001
1.40001
1.40001
1.40001
1.40001
1.40001
1.40001
1.40001
1.40001
1.40001
1.40001
1.40001
1.40001
1.40001
1.40001
1.40001
1.40001
1.40001
1.40001
1.40001
1.40001
1.40001
1.40001
1.40001
1.40001
2.88951
5.27459
5.43814
5.44233
5.45576
5.47264
5.49433
5.51848
5.54362
5.56876
5.59319
5.61698
5.64025
5.66132
5.67701
5.68692
5.69418
5.70373
5.71789
5.73729
5.75922
5.78176
5.8018
5.81633
5.82505
5.83094
5.83768
5.8476
5.86108
5.87721
5.89408
5.90953
5.92228
5.93237
5.94067
5.94813
5.9552
5.96153
5.96648
5.96959
5.97067
5.96952
5.96669
5.96331
5.96024
5.95894
5.96048
1.40001
1.40001
1.40001
1.40001
1.40001
1.40001
1.40001
1.40001
1.40001
1.40001
1.40001
1.40001
1.40001
1.40001
1.40001
1.40001
1.40001
1.40001
1.40001
1.40001
1.40001
1.40001
1.40001
1.40001
1.40001
1.40001
1.40001
1.40001
1.40001
1.40001
1.40001
1.40001
1.40001
1.40001
1.40001
1.40001
1.40001
1.40001
1.40001
1.40001
1.40001
1.40001
1.40001
1.40001
1.40001
1.40001
1.40001
1.40001
1.40001
2.79943
5.24392
5.4381
5.4417
5.4549
5.4721
5.49419
5.51847
5.54346
5.56826
5.59216
5.61521
5.63774
5.65847
5.67445
5.68476
5.69226
5.70168
5.71512
5.73393
5.75564
5.7781
5.79821
5.81297
5.82198
5.82799
5.83466
5.84447
5.85783
5.87383
5.89055
5.90593
5.91873
5.92895
5.93739
5.94491
5.95193
5.9581
5.96289
5.96585
5.96679
5.96543
5.96234
5.95887
5.95595
5.95495
5.95659
1.40001
1.40001
1.40001
1.40001
1.40001
1.40001
1.40001
1.40001
1.40001
1.40001
1.40001
1.40001
1.40001
1.40001
1.40001
1.40001
1.40001
1.40001
1.40001
1.40001
1.40001
1.40001
1.40001
1.40001
1.40001
1.40001
1.40001
1.40001
1.40001
1.40001
1.40001
1.40001
1.40001
1.40001
1.40001
1.40001
1.40001
1.40001
1.40001
1.40001
1.40001
1.40001
1.40001
1.40001
1.40001
1.40001
1.40001
1.40001
1.40001
2.69209
5.20703
5.43858
5.44091
5.45377
5.47135
5.49411
5.5187
5.54362
5.56803
5.59123
5.6133
5.63466
5.65469
5.67091
5.682
5.69035
5.70009
5.713
5.731
5.75209
5.77397
5.79378
5.80863
5.81804
5.82441
5.8312
5.84093
5.85408
5.86978
5.88623
5.9015
5.91438
5.92478
5.93336
5.9409
5.94782
5.95382
5.95847
5.96133
5.9622
5.96071
5.95742
5.95385
5.95106
5.95027
5.9519
1.40001
1.40001
1.40001
1.40001
1.40001
1.40001
1.40001
1.40001
1.40001
1.40001
1.40001
1.40001
1.40001
1.40001
1.40001
1.40001
1.40001
1.40001
1.40001
1.40001
1.40001
1.40001
1.40001
1.40001
1.40001
1.40001
1.40001
1.40001
1.40001
1.40001
1.40001
1.40001
1.40001
1.40001
1.40001
1.40001
1.40001
1.40001
1.40001
1.40001
1.40001
1.40001
1.40001
1.40001
1.40001
1.40001
1.40001
1.40001
1.40001
2.56849
5.16289
5.44053
5.44083
5.45305
5.47051
5.49372
5.51869
5.54363
5.56763
5.59003
5.61082
5.63057
5.64953
5.66594
5.67817
5.68794
5.69848
5.71118
5.72825
5.74843
5.7695
5.78894
5.80402
5.81407
5.82098
5.82784
5.83719
5.84968
5.86466
5.88055
5.8956
5.90862
5.91934
5.92821
5.93589
5.94278
5.94866
5.95319
5.95597
5.95682
5.95535
5.95199
5.94831
5.9455
5.94475
5.94624
1.40001
1.40001
1.40001
1.40001
1.40001
1.40001
1.40001
1.40001
1.40001
1.40001
1.40001
1.40001
1.40001
1.40001
1.40001
1.40001
1.40001
1.40001
1.40001
1.40001
1.40001
1.40001
1.40001
1.40001
1.40001
1.40001
1.40001
1.40001
1.40001
1.40001
1.40001
1.40001
1.40001
1.40001
1.40001
1.40001
1.40001
1.40001
1.40001
1.40001
1.40001
1.40001
1.40001
1.40001
1.40001
1.40001
1.40001
1.40001
1.40001
2.4307
5.10727
5.44369
5.44155
5.45304
5.46981
5.49289
5.51815
5.54327
5.5671
5.58887
5.60836
5.62636
5.64396
5.66036
5.67383
5.68523
5.69682
5.70946
5.72546
5.74439
5.76431
5.78314
5.79834
5.80905
5.81664
5.82374
5.83281
5.84471
5.859
5.87432
5.88911
5.9022
5.91319
5.92233
5.93011
5.9369
5.9426
5.94701
5.94976
5.95068
5.94941
5.94619
5.94239
5.93935
5.93846
5.93965
1.40001
1.40001
1.40001
1.40001
1.40001
1.40001
1.40001
1.40001
1.40001
1.40001
1.40001
1.40001
1.40001
1.40001
1.40001
1.40001
1.40001
1.40001
1.40001
1.40001
1.40001
1.40001
1.40001
1.40001
1.40001
1.40001
1.40001
1.40001
1.40001
1.40001
1.40001
1.40001
1.40001
1.40001
1.40001
1.40001
1.40001
1.40001
1.40001
1.40001
1.40001
1.40001
1.40001
1.40001
1.40001
1.40001
1.40001
1.40001
1.40001
2.28024
5.03498
5.44761
5.44267
5.4535
5.46937
5.49183
5.51709
5.54227
5.56588
5.58704
5.60531
5.62162
5.63785
5.65416
5.66889
5.68201
5.69488
5.70776
5.72274
5.74025
5.75884
5.77693
5.79218
5.80356
5.81191
5.81933
5.82817
5.83941
5.85284
5.86736
5.88165
5.89467
5.90591
5.91539
5.92339
5.93016
5.93568
5.93997
5.94274
5.94378
5.94279
5.93984
5.93591
5.93243
5.93121
5.93199
1.40001
1.40001
1.40001
1.40001
1.40001
1.40001
1.40001
1.40001
1.40001
1.40001
1.40001
1.40001
1.40001
1.40001
1.40001
1.40001
1.40001
1.40001
1.40001
1.40001
1.40001
1.40001
1.40001
1.40001
1.40001
1.40001
1.40001
1.40001
1.40001
1.40001
1.40001
1.40001
1.40001
1.40001
1.40001
1.40001
1.40001
1.40001
1.40001
1.40001
1.40001
1.40001
1.40001
1.40001
1.40001
1.40001
1.40001
1.40001
1.40001
2.12366
4.94376
5.45101
5.44309
5.45412
5.46883
5.49035
5.51534
5.54036
5.56354
5.58411
5.60151
5.6167
5.63196
5.64816
5.66384
5.67829
5.69225
5.70544
5.7195
5.73564
5.75288
5.77012
5.78527
5.79716
5.80625
5.8141
5.82285
5.83354
5.84611
5.85974
5.87344
5.88632
5.89781
5.90764
5.91584
5.9225
5.92772
5.93179
5.93461
5.93587
5.9353
5.93272
5.92869
5.92469
5.92294
5.92319
1.40001
1.40001
1.40001
1.40001
1.40001
1.40001
1.40001
1.40001
1.40001
1.40001
1.40001
1.40001
1.40001
1.40001
1.40001
1.40001
1.40001
1.40001
1.40001
1.40001
1.40001
1.40001
1.40001
1.40001
1.40001
1.40001
1.40001
1.40001
1.40001
1.40001
1.40001
1.40001
1.40001
1.40001
1.40001
1.40001
1.40001
1.40001
1.40001
1.40001
1.40001
1.40001
1.40001
1.40001
1.40001
1.40001
1.40001
1.40001
1.40001
1.96557
4.82784
5.45167
5.44314
5.45553
5.46879
5.48872
5.5128
5.5374
5.56021
5.58043
5.59753
5.61219
5.62662
5.64235
5.65842
5.67368
5.68852
5.70223
5.71584
5.73097
5.74691
5.76308
5.77777
5.78985
5.79957
5.80796
5.81686
5.82717
5.83892
5.85158
5.86454
5.87713
5.88872
5.89879
5.90714
5.91373
5.91875
5.92271
5.92567
5.92726
5.92708
5.92472
5.92045
5.91584
5.91335
5.91294
1.40001
1.40001
1.40001
1.40001
1.40001
1.40001
1.40001
1.40001
1.40001
1.40001
1.40001
1.40001
1.40001
1.40001
1.40001
1.40001
1.40001
1.40001
1.40001
1.40001
1.40001
1.40001
1.40001
1.40001
1.40001
1.40001
1.40001
1.40001
1.40001
1.40001
1.40001
1.40001
1.40001
1.40001
1.40001
1.40001
1.40001
1.40001
1.40001
1.40001
1.40001
1.40001
1.40001
1.40001
1.40001
1.40001
1.40001
1.40001
1.40001
1.81499
4.68923
5.4478
5.44235
5.45732
5.46968
5.488
5.5105
5.53414
5.55635
5.57616
5.59315
5.60765
5.62153
5.63672
5.65283
5.6686
5.68411
5.69841
5.71183
5.72609
5.74071
5.75563
5.76962
5.78169
5.79197
5.80103
5.81024
5.82025
5.8312
5.84284
5.85498
5.86719
5.87878
5.88896
5.89734
5.90385
5.90876
5.91267
5.91572
5.91768
5.91782
5.9155
5.91098
5.90582
5.90257
5.9016
1.40001
1.40001
1.40001
1.40001
1.40001
1.40001
1.40001
1.40001
1.40001
1.40001
1.40001
1.40001
1.40001
1.40001
1.40001
1.40001
1.40001
1.40001
1.40001
1.40001
1.40001
1.40001
1.40001
1.40001
1.40001
1.40001
1.40001
1.40001
1.40001
1.40001
1.40001
1.40001
1.40001
1.40001
1.40001
1.40001
1.40001
1.40001
1.40001
1.40001
1.40001
1.40001
1.40001
1.40001
1.40001
1.40001
1.40001
1.40001
1.40001
1.67642
4.52731
5.44087
5.43995
5.4554
5.46909
5.48746
5.50866
5.53084
5.55189
5.57097
5.58792
5.60266
5.6166
5.63155
5.64748
5.66326
5.67889
5.69355
5.70694
5.72064
5.73425
5.74804
5.76123
5.77308
5.78368
5.79327
5.80276
5.81255
5.82279
5.83352
5.84487
5.85661
5.86799
5.87803
5.88627
5.8927
5.89768
5.90173
5.90492
5.90713
5.90746
5.90506
5.90025
5.89459
5.89065
5.88928
1.40001
1.40001
1.40001
1.40001
1.40001
1.40001
1.40001
1.40001
1.40001
1.40001
1.40001
1.40001
1.40001
1.40001
1.40001
1.40001
1.40001
1.40001
1.40001
1.40001
1.40001
1.40001
1.40001
1.40001
1.40001
1.40001
1.40001
1.40001
1.40001
1.40001
1.40001
1.40001
1.40001
1.40001
1.40001
1.40001
1.40001
1.40001
1.40001
1.40001
1.40001
1.40001
1.40001
1.40001
1.40001
1.40001
1.40001
1.40001
1.40001
1.54801
4.34733
5.4303
5.43441
5.44904
5.46496
5.48389
5.50436
5.52544
5.54556
5.56416
5.58143
5.59689
5.6113
5.62616
5.64166
5.65708
5.6725
5.68739
5.70095
5.71445
5.7274
5.74018
5.75246
5.76382
5.77447
5.78445
5.79424
5.80395
5.8137
5.82366
5.8342
5.84527
5.85617
5.86585
5.87385
5.88026
5.88545
5.88979
5.89315
5.89539
5.89574
5.89326
5.88815
5.88211
5.87763
5.8761
1.40001
1.40001
1.40001
1.40001
1.40001
1.40001
1.40001
1.40001
1.40001
1.40001
1.40001
1.40001
1.40001
1.40001
1.40001
1.40001
1.40001
1.40001
1.40001
1.40001
1.40001
1.40001
1.40001
1.40001
1.40001
1.40001
1.40001
1.40001
1.40001
1.40001
1.40001
1.40001
1.40001
1.40001
1.40001
1.40001
1.40001
1.40001
1.40001
1.40001
1.40001
1.40001
1.40001
1.40001
1.40001
1.40001
1.40001
1.40001
1.40001
1.42441
4.13128
5.40634
5.42085
5.43657
5.45508
5.47466
5.49561
5.51694
5.53708
5.55559
5.57295
5.58885
5.60388
5.61911
5.6345
5.64965
5.6648
5.67984
5.69364
5.70709
5.71962
5.73162
5.74311
5.75397
5.7645
5.77467
5.78467
5.79435
5.80373
5.81303
5.82275
5.83297
5.84318
5.85239
5.86019
5.86669
5.87219
5.87685
5.88039
5.8825
5.88267
5.88007
5.87459
5.8682
5.8633
5.86173
1.40001
1.40001
1.40001
1.40001
1.40001
1.40001
1.40001
1.40001
1.40001
1.40001
1.40001
1.40001
1.40001
1.40001
1.40001
1.40001
1.40001
1.40001
1.40001
1.40001
1.40001
1.40001
1.40001
1.40001
1.40001
1.40001
1.40001
1.40001
1.40001
1.40001
1.40001
1.40001
1.40001
1.40001
1.40001
1.40001
1.40001
1.40001
1.40001
1.40001
1.40001
1.40001
1.40001
1.40001
1.40001
1.40001
1.40001
1.40001
1.40001
1.40054
3.86702
5.35116
5.39703
5.41975
5.44188
5.46247
5.4842
5.50603
5.52626
5.54459
5.56216
5.57884
5.59451
5.61017
5.62552
5.64046
5.65534
5.67043
5.68443
5.69793
5.7103
5.72189
5.73287
5.74335
5.75365
5.76379
5.77382
5.78347
5.79263
5.80142
5.81033
5.8196
5.82895
5.83763
5.84526
5.85191
5.85769
5.86256
5.86615
5.86809
5.86799
5.86519
5.85939
5.85277
5.84759
5.84612
1.40001
1.40001
1.40001
1.40001
1.40001
1.40001
1.40001
1.40001
1.40001
1.40001
1.40001
1.40001
1.40001
1.40001
1.40001
1.40001
1.40001
1.40001
1.40001
1.40001
1.40001
1.40001
1.40001
1.40001
1.40001
1.40001
1.40001
1.40001
1.40001
1.40001
1.40001
1.40001
1.40001
1.40001
1.40001
1.40001
1.40001
1.40001
1.40001
1.40001
1.40001
1.40001
1.40001
1.40001
1.40001
1.40001
1.40001
1.40001
1.40001
1.40001
3.55756
5.30119
5.3776
5.40259
5.42728
5.44962
5.47212
5.4942
5.51478
5.53308
5.55026
5.56681
5.58255
5.59846
5.61392
5.62897
5.6439
5.65921
5.67359
5.68719
5.69946
5.71073
5.72136
5.73159
5.7417
5.75173
5.7617
5.77129
5.78025
5.78857
5.79665
5.8049
5.81338
5.82156
5.82915
5.836
5.84202
5.84695
5.85041
5.85208
5.8516
5.8485
5.84233
5.83544
5.83002
5.82869
1.40001
1.40001
1.40001
1.40001
1.40001
1.40001
1.40001
1.40001
1.40001
1.40001
1.40001
1.40001
1.40001
1.40001
1.40001
1.40001
1.40001
1.40001
1.40001
1.40001
1.40001
1.40001
1.40001
1.40001
1.40001
1.40001
1.40001
1.40001
1.40001
1.40001
1.40001
1.40001
1.40001
1.40001
1.40001
1.40001
1.40001
1.40001
1.40001
1.40001
1.40001
1.40001
1.40001
1.40001
1.40001
1.40001
1.40001
1.40001
1.40001
1.40001
3.23078
5.2555
5.36531
5.39232
5.41525
5.43722
5.45929
5.48117
5.50197
5.52079
5.53817
5.55493
5.57073
5.58667
5.60205
5.61685
5.63146
5.6465
5.66083
5.67434
5.68653
5.69766
5.70818
5.71843
5.72856
5.73856
5.74839
5.75776
5.76634
5.77409
5.78136
5.7887
5.79646
5.80431
5.81188
5.81884
5.82485
5.82952
5.83258
5.83387
5.83303
5.82969
5.82325
5.81618
5.81069
5.80957
1.40001
1.40001
1.40001
1.40001
1.40001
1.40001
1.40001
1.40001
1.40001
1.40001
1.40001
1.40001
1.40001
1.40001
1.40001
1.40001
1.40001
1.40001
1.40001
1.40001
1.40001
1.40001
1.40001
1.40001
1.40001
1.40001
1.40001
1.40001
1.40001
1.40001
1.40001
1.40001
1.40001
1.40001
1.40001
1.40001
1.40001
1.40001
1.40001
1.40001
1.40001
1.40001
1.40001
1.40001
1.40001
1.40001
1.40001
1.40001
1.40001
1.40001
2.88355
5.18912
5.36681
5.38982
5.41275
5.43285
5.45248
5.47207
5.49158
5.50964
5.5259
5.54203
5.55773
5.57343
5.5887
5.60355
5.61807
5.63288
5.64719
5.66031
5.67212
5.68296
5.69341
5.7038
5.71402
5.72396
5.73354
5.74252
5.75059
5.75774
5.76433
5.77101
5.77826
5.78587
5.7934
5.80028
5.80605
5.81024
5.81271
5.81349
5.81226
5.80857
5.80181
5.79448
5.78892
5.78793
1.40001
1.40001
1.40001
1.40001
1.40001
1.40001
1.40001
1.40001
1.40001
1.40001
1.40001
1.40001
1.40001
1.40001
1.40001
1.40001
1.40001
1.40001
1.40001
1.40001
1.40001
1.40001
1.40001
1.40001
1.40001
1.40001
1.40001
1.40001
1.40001
1.40001
1.40001
1.40001
1.40001
1.40001
1.40001
1.40001
1.40001
1.40001
1.40001
1.40001
1.40001
1.40001
1.40001
1.40001
1.40001
1.40001
1.40001
1.40001
1.40001
1.40001
2.53493
5.07345
5.38817
5.39824
5.41773
5.43458
5.45156
5.46835
5.48543
5.5026
5.51841
5.53315
5.54738
5.56168
5.57613
5.59022
5.60416
5.61829
5.63223
5.64508
5.65644
5.66682
5.67698
5.68738
5.69778
5.70775
5.71704
5.72551
5.73295
5.73947
5.74548
5.75169
5.75862
5.76605
5.77339
5.77994
5.78514
5.7886
5.79023
5.79032
5.78866
5.78461
5.77766
5.77025
5.76479
5.76401
1.40001
1.40001
1.40001
1.40001
1.40001
1.40001
1.40001
1.40001
1.40001
1.40001
1.40001
1.40001
1.40001
1.40001
1.40001
1.40001
1.40001
1.40001
1.40001
1.40001
1.40001
1.40001
1.40001
1.40001
1.40001
1.40001
1.40001
1.40001
1.40001
1.40001
1.40001
1.40001
1.40001
1.40001
1.40001
1.40001
1.40001
1.40001
1.40001
1.40001
1.40001
1.40001
1.40001
1.40001
1.40001
1.40001
1.40001
1.40001
1.40001
1.40001
2.1902
4.90418
5.4142
5.41715
5.43549
5.44608
5.4576
5.4697
5.4833
5.49844
5.51305
5.52712
5.54029
5.55296
5.56585
5.57871
5.59122
5.60385
5.61663
5.62879
5.63956
5.64949
5.65941
5.66975
5.67991
5.68954
5.69834
5.70622
5.71306
5.71907
5.72474
5.73073
5.73746
5.74465
5.75162
5.7576
5.76203
5.76462
5.76537
5.76464
5.76233
5.75771
5.75038
5.74275
5.73728
5.73652
1.40001
1.40001
1.40001
1.40001
1.40001
1.40001
1.40001
1.40001
1.40001
1.40001
1.40001
1.40001
1.40001
1.40001
1.40001
1.40001
1.40001
1.40001
1.40001
1.40001
1.40001
1.40001
1.40001
1.40001
1.40001
1.40001
1.40001
1.40001
1.40001
1.40001
1.40001
1.40001
1.40001
1.40001
1.40001
1.40001
1.40001
1.40001
1.40001
1.40001
1.40001
1.40001
1.40001
1.40001
1.40001
1.40001
1.40001
1.40001
1.40001
1.40001
1.84894
4.72988
5.45207
5.42549
5.44378
5.45278
5.46371
5.47484
5.48648
5.49937
5.51267
5.52528
5.53681
5.54742
5.55812
5.56907
5.58
5.59082
5.60205
5.61325
5.6234
5.63264
5.64169
5.6511
5.66067
5.66956
5.67749
5.68459
5.69092
5.69662
5.70214
5.70803
5.71451
5.72125
5.72758
5.73275
5.73618
5.73769
5.73723
5.7354
5.7322
5.72696
5.71936
5.71169
5.70639
5.70579
1.40001
1.40001
1.40001
1.40001
1.40001
1.40001
1.40001
1.40001
1.40001
1.40001
1.40001
1.40001
1.40001
1.40001
1.40001
1.40001
1.40001
1.40001
1.40001
1.40001
1.40001
1.40001
1.40001
1.40001
1.40001
1.40001
1.40001
1.40001
1.40001
1.40001
1.40001
1.40001
1.40001
1.40001
1.40001
1.40001
1.40001
1.40001
1.40001
1.40001
1.40001
1.40001
1.40001
1.40001
1.40001
1.40001
1.40001
1.40001
1.40001
1.40001
1.53438
4.43045
5.4736
5.43745
5.44257
5.45042
5.46249
5.47536
5.48802
5.50058
5.51302
5.52488
5.53575
5.54499
5.55328
5.5617
5.5704
5.57931
5.58886
5.59883
5.60826
5.6167
5.62467
5.6326
5.64054
5.64801
5.65474
5.66093
5.66674
5.67224
5.6777
5.68345
5.68952
5.69555
5.70094
5.70509
5.70738
5.70781
5.70609
5.70311
5.69883
5.69262
5.68422
5.67587
5.67023
5.66929
1.40001
1.40001
1.40001
1.40001
1.40001
1.40001
1.40001
1.40001
1.40001
1.40001
1.40001
1.40001
1.40001
1.40001
1.40001
1.40001
1.40001
1.40001
1.40001
1.40001
1.40001
1.40001
1.40001
1.40001
1.40001
1.40001
1.40001
1.40001
1.40001
1.40001
1.40001
1.40001
1.40001
1.40001
1.40001
1.40001
1.40001
1.40001
1.40001
1.40001
1.40001
1.40001
1.40001
1.40001
1.40001
1.40001
1.40001
1.40001
1.40001
1.40001
1.40532
4.04727
5.38131
5.37734
5.40758
5.42885
5.44948
5.46628
5.48105
5.49499
5.50931
5.5227
5.53439
5.54349
5.55037
5.55663
5.56313
5.56996
5.57761
5.58589
5.59422
5.60158
5.60805
5.61415
5.6202
5.62596
5.6312
5.63619
5.64131
5.64651
5.65172
5.65703
5.66236
5.66731
5.6714
5.67421
5.67531
5.67438
5.67086
5.66607
5.66014
5.65271
5.64352
5.63466
5.62884
5.62788
1.40001
1.40001
1.40001
1.40001
1.40001
1.40001
1.40001
1.40001
1.40001
1.40001
1.40001
1.40001
1.40001
1.40001
1.40001
1.40001
1.40001
1.40001
1.40001
1.40001
1.40001
1.40001
1.40001
1.40001
1.40001
1.40001
1.40001
1.40001
1.40001
1.40001
1.40001
1.40001
1.40001
1.40001
1.40001
1.40001
1.40001
1.40001
1.40001
1.40001
1.40001
1.40001
1.40001
1.40001
1.40001
1.40001
1.40001
1.40001
1.40001
1.40001
1.40002
3.57432
5.25715
5.34586
5.38427
5.41074
5.43344
5.45335
5.47085
5.48678
5.50134
5.51513
5.52805
5.53923
5.54668
5.55207
5.55703
5.56211
5.56803
5.57443
5.58123
5.58719
5.59194
5.59593
5.59981
5.60361
5.6073
5.61108
5.61528
5.61985
5.62442
5.62884
5.63299
5.63641
5.63883
5.64007
5.63976
5.63703
5.63159
5.62484
5.61704
5.60816
5.59728
5.58638
5.57891
5.57659
1.40001
1.40001
1.40001
1.40001
1.40001
1.40001
1.40001
1.40001
1.40001
1.40001
1.40001
1.40001
1.40001
1.40001
1.40001
1.40001
1.40001
1.40001
1.40001
1.40001
1.40001
1.40001
1.40001
1.40001
1.40001
1.40001
1.40001
1.40001
1.40001
1.40001
1.40001
1.40001
1.40001
1.40001
1.40001
1.40001
1.40001
1.40001
1.40001
1.40001
1.40001
1.40001
1.40001
1.40001
1.40001
1.40001
1.40001
1.40001
1.40001
1.40001
1.40001
3.12719
5.14746
5.30861
5.35312
5.38832
5.41333
5.43513
5.45357
5.47048
5.48687
5.5017
5.51658
5.5284
5.53813
5.54509
5.5502
5.55457
5.55937
5.56415
5.56912
5.57347
5.57648
5.57841
5.58002
5.58164
5.58348
5.58582
5.5889
5.59252
5.59603
5.59904
5.6015
5.60297
5.60345
5.60294
5.60056
5.5953
5.58742
5.57779
5.5667
5.55462
5.54146
5.52864
5.51986
5.51736
1.40001
1.40001
1.40001
1.40001
1.40001
1.40001
1.40001
1.40001
1.40001
1.40001
1.40001
1.40001
1.40001
1.40001
1.40001
1.40001
1.40001
1.40001
1.40001
1.40001
1.40001
1.40001
1.40001
1.40001
1.40001
1.40001
1.40001
1.40001
1.40001
1.40001
1.40001
1.40001
1.40001
1.40001
1.40001
1.40001
1.40001
1.40001
1.40001
1.40001
1.40001
1.40001
1.40001
1.40001
1.40001
1.40001
1.40001
1.40001
1.40001
1.40001
1.40001
2.67016
5.02166
5.31316
5.35741
5.38672
5.4046
5.42159
5.4377
5.4539
5.46887
5.48341
5.49778
5.51303
5.52483
5.53349
5.54036
5.54543
5.55005
5.55393
5.55729
5.56003
5.56142
5.56156
5.56106
5.56041
5.56005
5.56056
5.56224
5.5644
5.56636
5.56763
5.56793
5.56715
5.56556
5.56264
5.55732
5.54897
5.53789
5.52498
5.51028
5.49462
5.47809
5.46015
5.44597
5.43884
1.40001
1.40001
1.40001
1.40001
1.40001
1.40001
1.40001
1.40001
1.40001
1.40001
1.40001
1.40001
1.40001
1.40001
1.40001
1.40001
1.40001
1.40001
1.40001
1.40001
1.40001
1.40001
1.40001
1.40001
1.40001
1.40001
1.40001
1.40001
1.40001
1.40001
1.40001
1.40001
1.40001
1.40001
1.40001
1.40001
1.40001
1.40001
1.40001
1.40001
1.40001
1.40001
1.40001
1.40001
1.40001
1.40001
1.40001
1.40001
1.40001
1.40001
1.40001
2.18345
4.85546
5.3836
5.37873
5.38446
5.39314
5.40784
5.42335
5.43844
5.45206
5.46519
5.47827
5.49184
5.50574
5.51676
5.52557
5.53214
5.53773
5.54194
5.54456
5.54615
5.54641
5.54521
5.5429
5.54016
5.53745
5.53582
5.53553
5.53557
5.53556
5.53477
5.53252
5.5294
5.52509
5.51911
5.51035
5.49823
5.48294
5.46528
5.44502
5.4219
5.3965
5.37144
5.35178
5.34478
1.40001
1.40001
1.40001
1.40001
1.40001
1.40001
1.40001
1.40001
1.40001
1.40001
1.40001
1.40001
1.40001
1.40001
1.40001
1.40001
1.40001
1.40001
1.40001
1.40001
1.40001
1.40001
1.40001
1.40001
1.40001
1.40001
1.40001
1.40001
1.40001
1.40001
1.40001
1.40001
1.40001
1.40001
1.40001
1.40001
1.40001
1.40001
1.40001
1.40001
1.40001
1.40001
1.40001
1.40001
1.40001
1.40001
1.40001
1.40001
1.40001
1.40001
1.40001
1.70998
4.65903
5.4746
5.40098
5.39506
5.39845
5.40702
5.41605
5.42579
5.4367
5.44825
5.45991
5.47224
5.4854
5.49685
5.50662
5.51445
5.52116
5.52653
5.52965
5.53104
5.53075
5.52871
5.52514
5.52065
5.51564
5.51143
5.50867
5.50615
5.5036
5.50014
5.49539
5.48949
5.48198
5.47236
5.45956
5.44281
5.42193
5.3976
5.36991
5.33887
5.30458
5.26875
5.23215
5.20412
1.40001
1.40001
1.40001
1.40001
1.40001
1.40001
1.40001
1.40001
1.40001
1.40001
1.40001
1.40001
1.40001
1.40001
1.40001
1.40001
1.40001
1.40001
1.40001
1.40001
1.40001
1.40001
1.40001
1.40001
1.40001
1.40001
1.40001
1.40001
1.40001
1.40001
1.40001
1.40001
1.40001
1.40001
1.40001
1.40001
1.40001
1.40001
1.40001
1.40001
1.40001
1.40001
1.40001
1.40001
1.40001
1.40001
1.40001
1.40001
1.40001
1.40001
1.40001
1.42344
4.20127
5.41046
5.38087
5.39403
5.40158
5.40848
5.41587
5.42192
5.42829
5.43563
5.4441
5.45387
5.46541
5.47685
5.48646
5.49413
5.5008
5.50725
5.51162
5.51341
5.5133
5.51113
5.50697
5.50122
5.49422
5.48737
5.48176
5.47651
5.47097
5.46462
5.45693
5.44772
5.4365
5.42268
5.40513
5.38287
5.35533
5.32295
5.28538
5.24061
5.18455
5.11719
5.05137
5.00606
1.40001
1.40001
1.40001
1.40001
1.40001
1.40001
1.40001
1.40001
1.40001
1.40001
1.40001
1.40001
1.40001
1.40001
1.40001
1.40001
1.40001
1.40001
1.40001
1.40001
1.40001
1.40001
1.40001
1.40001
1.40001
1.40001
1.40001
1.40001
1.40001
1.40001
1.40001
1.40001
1.40001
1.40001
1.40001
1.40001
1.40001
1.40001
1.40001
1.40001
1.40001
1.40001
1.40001
1.40001
1.40001
1.40001
1.40001
1.40001
1.40001
1.40001
1.40001
1.40004
3.59837
5.24612
5.32876
5.36491
5.38913
5.4058
5.41536
5.42114
5.42511
5.4288
5.43331
5.43934
5.4476
5.45701
5.46577
5.47314
5.47931
5.48496
5.4904
5.49307
5.49348
5.49166
5.48754
5.48114
5.47263
5.46327
5.45465
5.44659
5.43781
5.42826
5.41716
5.40411
5.38859
5.37
5.34708
5.31862
5.28333
5.24062
5.18868
5.12429
5.04434
4.94614
4.83521
4.75611
1.40001
1.40001
1.40001
1.40001
1.40001
1.40001
1.40001
1.40001
1.40001
1.40001
1.40001
1.40001
1.40001
1.40001
1.40001
1.40001
1.40001
1.40001
1.40001
1.40001
1.40001
1.40001
1.40001
1.40001
1.40001
1.40001
1.40001
1.40001
1.40001
1.40001
1.40001
1.40001
1.40001
1.40001
1.40001
1.40001
1.40001
1.40001
1.40001
1.40001
1.40001
1.40001
1.40001
1.40001
1.40001
1.40001
1.40001
1.40001
1.40001
1.40001
1.40001
1.4
3.03641
5.10729
5.29888
5.34447
5.37494
5.39293
5.40445
5.41347
5.41971
5.42358
5.42625
5.42922
5.43382
5.43984
5.44615
5.45213
5.45756
5.46218
5.46675
5.47009
5.47097
5.4696
5.46598
5.45946
5.45008
5.43873
5.42733
5.41638
5.40446
5.39148
5.3766
5.35928
5.33892
5.31499
5.28612
5.25075
5.20662
5.15206
5.08428
4.99881
4.883
4.70668
4.35395
3.44286
1.40001
1.40001
1.40001
1.40001
1.40001
1.40001
1.40001
1.40001
1.40001
1.40001
1.40001
1.40001
1.40001
1.40001
1.40001
1.40001
1.40001
1.40001
1.40001
1.40001
1.40001
1.40001
1.40001
1.40001
1.40001
1.40001
1.40001
1.40001
1.40001
1.40001
1.40001
1.40001
1.40001
1.40001
1.40001
1.40001
1.40001
1.40001
1.40001
1.40001
1.40001
1.40001
1.40001
1.40001
1.40001
1.40001
1.40001
1.40001
1.40001
1.40001
1.40001
1.4
2.47386
4.91764
5.2967
5.33371
5.36212
5.37833
5.39102
5.4013
5.40985
5.41599
5.41959
5.42181
5.42389
5.42641
5.42939
5.43269
5.43625
5.43946
5.44235
5.44513
5.44598
5.44476
5.44174
5.43546
5.42577
5.41324
5.3995
5.38568
5.37074
5.35425
5.33539
5.31348
5.28785
5.25807
5.22273
5.17989
5.12642
5.05914
4.97329
4.85941
4.69814
4.43776
4.02172
2.99986
1.40001
1.40001
1.40001
1.40001
1.40001
1.40001
1.40001
1.40001
1.40001
1.40001
1.40001
1.40001
1.40001
1.40001
1.40001
1.40001
1.40001
1.40001
1.40001
1.40001
1.40001
1.40001
1.40001
1.40001
1.40001
1.40001
1.40001
1.40001
1.40001
1.40001
1.40001
1.40001
1.40001
1.40001
1.40001
1.40001
1.40001
1.40001
1.40001
1.40001
1.40001
1.40001
1.40001
1.40001
1.40001
1.40001
1.40001
1.40001
1.40001
1.40001
1.40001
1.40001
1.91413
4.72912
5.3747
5.34361
5.34936
5.36088
5.37468
5.38661
5.39658
5.40412
5.40929
5.41268
5.41448
5.41523
5.41571
5.41615
5.41692
5.41782
5.41853
5.41955
5.41959
5.41812
5.41501
5.40897
5.39924
5.38618
5.37084
5.35449
5.33657
5.31664
5.29381
5.26728
5.23624
5.20031
5.15811
5.10745
5.04435
4.96455
4.86073
4.72368
4.52488
4.25448
3.70471
2.86766
1.40001
1.40001
1.40001
1.40001
1.40001
1.40001
1.40001
1.40001
1.40001
1.40001
1.40001
1.40001
1.40001
1.40001
1.40001
1.40001
1.40001
1.40001
1.40001
1.40001
1.40001
1.40001
1.40001
1.40001
1.40001
1.40001
1.40001
1.40001
1.40001
1.40001
1.40001
1.40001
1.40001
1.40001
1.40001
1.40001
1.40001
1.40001
1.40001
1.40001
1.40001
1.40001
1.40001
1.40001
1.40001
1.40001
1.40001
1.40001
1.40001
1.40001
1.40001
1.40001
1.47072
4.28242
5.39903
5.35485
5.34243
5.34906
5.36092
5.37077
5.38034
5.38869
5.39524
5.40031
5.4034
5.40433
5.40389
5.40242
5.4004
5.39826
5.39612
5.39464
5.39284
5.3903
5.38627
5.37993
5.37036
5.35692
5.34059
5.32224
5.30168
5.27864
5.2521
5.22111
5.18476
5.14261
5.09329
5.03476
4.96219
4.87135
4.75218
4.59765
4.37755
4.06566
3.53166
2.84497
1.40001
1.40001
1.40001
1.40001
1.40001
1.40001
1.40001
1.40001
1.40001
1.40001
1.40001
1.40001
1.40001
1.40001
1.40001
1.40001
1.40001
1.40001
1.40001
1.40001
1.40001
1.40001
1.40001
1.40001
1.40001
1.40001
1.40001
1.40001
1.40001
1.40001
1.40001
1.40001
1.40001
1.40001
1.40001
1.40001
1.40001
1.40001
1.40001
1.40001
1.40001
1.40001
1.40001
1.40001
1.40001
1.40001
1.40001
1.40001
1.40001
1.40001
1.40001
1.40001
1.40052
3.6334
5.23364
5.29373
5.32453
5.33806
5.34797
5.35555
5.36378
5.37171
5.37865
5.38455
5.38893
5.391
5.3912
5.38932
5.38579
5.3811
5.37594
5.3714
5.36726
5.36268
5.35697
5.34947
5.33946
5.3257
5.30865
5.28883
5.26615
5.2403
5.21035
5.17525
5.13391
5.08584
5.02953
4.96338
4.88226
4.78176
4.65151
4.48131
4.25285
3.92466
3.44978
2.89617
1.40001
1.40001
1.40001
1.40001
1.40001
1.40001
1.40001
1.40001
1.40001
1.40001
1.40001
1.40001
1.40001
1.40001
1.40001
1.40001
1.40001
1.40001
1.40001
1.40001
1.40001
1.40001
1.40001
1.40001
1.40001
1.40001
1.40001
1.40001
1.40001
1.40001
1.40001
1.40001
1.40001
1.40001
1.40001
1.40001
1.40001
1.40001
1.40001
1.40001
1.40001
1.40001
1.40001
1.40001
1.40001
1.40001
1.40001
1.40001
1.40001
1.40001
1.40001
1.40001
1.4
2.95656
5.07263
5.28675
5.31865
5.33628
5.34097
5.34479
5.35001
5.35569
5.3615
5.36695
5.37163
5.37472
5.376
5.37478
5.37129
5.36535
5.35787
5.35033
5.34343
5.33617
5.32794
5.31837
5.30686
5.29241
5.27463
5.25372
5.22947
5.20139
5.16857
5.12998
5.08429
5.03085
4.96806
4.89465
4.8062
4.69762
4.5602
4.38162
4.14867
3.83224
3.42681
2.96672
1.40001
1.40001
1.40001
1.40001
1.40001
1.40001
1.40001
1.40001
1.40001
1.40001
1.40001
1.40001
1.40001
1.40001
1.40001
1.40001
1.40001
1.40001
1.40001
1.40001
1.40001
1.40001
1.40001
1.40001
1.40001
1.40001
1.40001
1.40001
1.40001
1.40001
1.40001
1.40001
1.40001
1.40001
1.40001
1.40001
1.40001
1.40001
1.40001
1.40001
1.40001