/*--------------------------------*- C++ -*----------------------------------*\
  =========                 |
  \\      /  F ield         | OpenFOAM: The Open Source CFD Toolbox
   \\    /   O peration     | Website:  https://openfoam.org
    \\  /    A nd           | Version:  7
     \\/     M anipulation  |
\*---------------------------------------------------------------------------*/
FoamFile
{
    version     2.0;
    format      ascii;
    class       volScalarField;
    location    "3.3";
    object      p;
}
// * * * * * * * * * * * * * * * * * * * * * * * * * * * * * * * * * * * * * //

dimensions      [1 -1 -2 0 0 0 0];

internalField   nonuniform List<scalar> 
64512
(
1
1
1
1
1
1
1
1
1
1
1
1
1
1
1
1
1
1
1
1
1
1
1
1
1
1
1
1
1
1
1
1
1
1
1
1
1
1
1
1
1
1
1
1
1
1
1
1
1
6.36498
10.3761
10.4496
10.5054
10.5664
10.6237
10.6803
10.7371
10.7937
10.8494
10.9031
10.9547
11.0054
11.0563
11.1087
11.1609
11.2102
11.255
11.2962
11.3352
11.3739
11.4132
11.4515
11.4883
11.5258
11.5655
11.6061
11.6461
11.6849
11.7218
11.7558
11.7864
11.8145
11.8406
11.8655
11.8891
11.9107
11.9296
11.9459
11.9608
11.9758
11.992
12.0094
12.0265
12.041
12.0514
12.0584
1
1
1
1
1
1
1
1
1
1
1
1
1
1
1
1
1
1
1
1
1
1
1
1
1
1
1
1
1
1
1
1
1
1
1
1
1
1
1
1
1
1
1
1
1
1
1
1
1
6.31709
10.3648
10.4515
10.5047
10.5659
10.623
10.6795
10.7365
10.7931
10.8484
10.9019
10.9536
11.0046
11.0557
11.1077
11.1594
11.2082
11.2529
11.2941
11.3331
11.3715
11.4104
11.4487
11.4862
11.5244
11.5647
11.6055
11.6451
11.6835
11.7198
11.7532
11.7835
11.8115
11.8377
11.8627
11.8864
11.908
11.9268
11.9432
11.9581
11.973
11.9891
12.0062
12.0229
12.0372
12.0474
12.0544
1
1
1
1
1
1
1
1
1
1
1
1
1
1
1
1
1
1
1
1
1
1
1
1
1
1
1
1
1
1
1
1
1
1
1
1
1
1
1
1
1
1
1
1
1
1
1
1
1
6.22003
10.3583
10.449
10.5009
10.5631
10.6202
10.6769
10.734
10.7908
10.8459
10.8991
10.951
11.0023
11.0535
11.105
11.1561
11.2043
11.2488
11.2902
11.3294
11.3675
11.4061
11.4442
11.4823
11.5215
11.5627
11.6037
11.6431
11.6809
11.7165
11.7492
11.779
11.8069
11.8332
11.8583
11.8819
11.9034
11.9222
11.9386
11.9537
11.9686
11.9845
12.0011
12.0173
12.0312
12.0412
12.0481
1
1
1
1
1
1
1
1
1
1
1
1
1
1
1
1
1
1
1
1
1
1
1
1
1
1
1
1
1
1
1
1
1
1
1
1
1
1
1
1
1
1
1
1
1
1
1
1
1
6.07852
10.3469
10.4467
10.4967
10.5602
10.617
10.6734
10.7303
10.7871
10.8421
10.8953
10.9473
10.9989
11.0499
11.1005
11.1506
11.1981
11.2423
11.2838
11.3232
11.3613
11.3999
11.4381
11.4771
11.5174
11.5593
11.6004
11.6395
11.6765
11.711
11.7428
11.7722
11.8001
11.8266
11.8519
11.8755
11.8968
11.9155
11.932
11.9471
11.962
11.9774
11.9933
12.0088
12.0221
12.0318
12.0385
1
1
1
1
1
1
1
1
1
1
1
1
1
1
1
1
1
1
1
1
1
1
1
1
1
1
1
1
1
1
1
1
1
1
1
1
1
1
1
1
1
1
1
1
1
1
1
1
1
5.89169
10.3282
10.4429
10.4916
10.5566
10.613
10.669
10.7254
10.782
10.837
10.8901
10.9422
10.9938
11.0443
11.0938
11.1431
11.1901
11.234
11.2756
11.3153
11.3534
11.3924
11.4309
11.4708
11.5118
11.5542
11.5953
11.6338
11.6699
11.7034
11.7343
11.7633
11.7913
11.8182
11.8437
11.8673
11.8884
11.9069
11.9234
11.9387
11.9534
11.9683
11.9834
11.9979
12.0104
12.0196
12.0262
1
1
1
1
1
1
1
1
1
1
1
1
1
1
1
1
1
1
1
1
1
1
1
1
1
1
1
1
1
1
1
1
1
1
1
1
1
1
1
1
1
1
1
1
1
1
1
1
1
5.66028
10.2999
10.437
10.4855
10.5521
10.6082
10.6638
10.7195
10.7758
10.8307
10.8837
10.9356
10.9868
11.0367
11.0853
11.1339
11.1805
11.2241
11.2657
11.3058
11.3442
11.3837
11.4226
11.4631
11.5045
11.5471
11.5878
11.6255
11.6606
11.6931
11.7233
11.7521
11.7802
11.8075
11.8332
11.8568
11.8777
11.8962
11.9127
11.9281
11.9427
11.9571
11.9713
11.9848
11.9965
12.0052
12.0116
1
1
1
1
1
1
1
1
1
1
1
1
1
1
1
1
1
1
1
1
1
1
1
1
1
1
1
1
1
1
1
1
1
1
1
1
1
1
1
1
1
1
1
1
1
1
1
1
1
5.38726
10.2588
10.4285
10.4778
10.5459
10.6019
10.6576
10.7126
10.7686
10.8235
10.876
10.9272
10.9776
11.0267
11.0745
11.1228
11.1695
11.2131
11.2548
11.2953
11.334
11.3741
11.4133
11.454
11.4956
11.5378
11.5779
11.6146
11.6488
11.6805
11.7102
11.7387
11.767
11.7946
11.8205
11.844
11.8649
11.8833
11.8998
11.9152
11.9296
11.9434
11.9567
11.9691
11.9799
11.9881
11.9942
1
1
1
1
1
1
1
1
1
1
1
1
1
1
1
1
1
1
1
1
1
1
1
1
1
1
1
1
1
1
1
1
1
1
1
1
1
1
1
1
1
1
1
1
1
1
1
1
1
5.07676
10.2011
10.4177
10.4688
10.5381
10.5943
10.6503
10.7048
10.7602
10.8149
10.8668
10.9171
10.9665
11.0151
11.0624
11.1104
11.1575
11.2013
11.2433
11.2843
11.3233
11.3638
11.4031
11.4435
11.4847
11.5262
11.5655
11.6013
11.6347
11.6659
11.6952
11.7237
11.7521
11.7797
11.8056
11.8292
11.8501
11.8684
11.8848
11.9
11.9141
11.9273
11.9397
11.9511
11.961
11.9684
11.9741
1
1
1
1
1
1
1
1
1
1
1
1
1
1
1
1
1
1
1
1
1
1
1
1
1
1
1
1
1
1
1
1
1
1
1
1
1
1
1
1
1
1
1
1
1
1
1
1
1
4.73239
10.1227
10.4053
10.4583
10.5287
10.5853
10.6415
10.6956
10.7504
10.8048
10.8564
10.9057
10.9543
11.0024
11.0494
11.0972
11.1445
11.1885
11.2307
11.2721
11.3113
11.3518
11.391
11.4308
11.4714
11.512
11.5503
11.5852
11.618
11.6488
11.678
11.7063
11.7344
11.7619
11.7876
11.8111
11.8321
11.8505
11.867
11.8821
11.896
11.9088
11.9205
11.9311
11.9402
11.947
11.9523
1
1
1
1
1
1
1
1
1
1
1
1
1
1
1
1
1
1
1
1
1
1
1
1
1
1
1
1
1
1
1
1
1
1
1
1
1
1
1
1
1
1
1
1
1
1
1
1
1
4.35741
10.0192
10.3929
10.4467
10.5173
10.5743
10.6309
10.685
10.7391
10.7934
10.8449
10.8936
10.9414
10.9891
11.0359
11.0831
11.1306
11.1747
11.2169
11.2585
11.2978
11.3379
11.3767
11.4155
11.4553
11.4949
11.5323
11.5663
11.5987
11.6293
11.6583
11.6865
11.7145
11.7416
11.7671
11.7906
11.8116
11.8303
11.8468
11.8619
11.8755
11.8878
11.8987
11.9085
11.9168
11.9229
11.9277
1
1
1
1
1
1
1
1
1
1
1
1
1
1
1
1
1
1
1
1
1
1
1
1
1
1
1
1
1
1
1
1
1
1
1
1
1
1
1
1
1
1
1
1
1
1
1
1
1
3.95626
9.88114
10.3813
10.4361
10.5064
10.5634
10.6199
10.6739
10.7276
10.7815
10.8334
10.882
10.9293
10.9771
11.0239
11.0703
11.1177
11.162
11.2037
11.2447
11.2836
11.3228
11.361
11.3985
11.4373
11.4757
11.5123
11.5455
11.5772
11.6074
11.6361
11.664
11.6915
11.7182
11.7433
11.7665
11.7876
11.8065
11.8232
11.8383
11.8518
11.8638
11.8742
11.8833
11.8908
11.8964
11.9008
1
1
1
1
1
1
1
1
1
1
1
1
1
1
1
1
1
1
1
1
1
1
1
1
1
1
1
1
1
1
1
1
1
1
1
1
1
1
1
1
1
1
1
1
1
1
1
1
1
3.53631
9.70127
10.3681
10.4252
10.4948
10.5517
10.6077
10.6613
10.7142
10.7675
10.8194
10.8682
10.9152
10.9628
11.0098
11.0555
11.1027
11.1473
11.1884
11.2289
11.2672
11.3051
11.3426
11.379
11.4171
11.4545
11.4906
11.5232
11.5544
11.584
11.6122
11.6395
11.6665
11.6926
11.7172
11.74
11.7609
11.7798
11.7968
11.8121
11.8255
11.8372
11.8471
11.8553
11.8619
11.8668
11.8706
1
1
1
1
1
1
1
1
1
1
1
1
1
1
1
1
1
1
1
1
1
1
1
1
1
1
1
1
1
1
1
1
1
1
1
1
1
1
1
1
1
1
1
1
1
1
1
1
1
3.10507
9.47135
10.356
10.4145
10.4818
10.5374
10.5925
10.6455
10.698
10.7507
10.8029
10.8523
10.8993
10.9465
10.9935
11.0388
11.0851
11.1297
11.1703
11.2101
11.248
11.2847
11.3219
11.3574
11.395
11.4316
11.4672
11.4993
11.5297
11.5585
11.5859
11.6125
11.6388
11.6644
11.6885
11.7108
11.7314
11.7502
11.7672
11.7826
11.796
11.8072
11.8167
11.8241
11.8299
11.8341
11.8373
1
1
1
1
1
1
1
1
1
1
1
1
1
1
1
1
1
1
1
1
1
1
1
1
1
1
1
1
1
1
1
1
1
1
1
1
1
1
1
1
1
1
1
1
1
1
1
1
1
2.67066
9.17718
10.3505
10.4095
10.4728
10.5265
10.5804
10.6326
10.6846
10.7361
10.7876
10.837
10.8838
10.9307
10.9773
11.022
11.0666
11.1107
11.1509
11.1898
11.2269
11.2624
11.299
11.3336
11.3702
11.406
11.4412
11.4728
11.5023
11.5303
11.5568
11.5828
11.6086
11.6339
11.6576
11.6793
11.6993
11.7177
11.7346
11.7499
11.7631
11.7741
11.783
11.7897
11.7945
11.798
11.8003
1
1
1
1
1
1
1
1
1
1
1
1
1
1
1
1
1
1
1
1
1
1
1
1
1
1
1
1
1
1
1
1
1
1
1
1
1
1
1
1
1
1
1
1
1
1
1
1
1
2.24713
8.80892
10.3578
10.3985
10.4595
10.5119
10.5663
10.6186
10.6705
10.7212
10.7716
10.8207
10.8676
10.9143
10.9606
11.0047
11.0477
11.0905
11.1299
11.1673
11.2034
11.2375
11.2733
11.3071
11.3428
11.3779
11.4127
11.444
11.4728
11.4998
11.5254
11.5505
11.5756
11.6003
11.6235
11.6447
11.664
11.6818
11.6984
11.7135
11.7266
11.7372
11.7458
11.7518
11.7558
11.7583
11.7596
1
1
1
1
1
1
1
1
1
1
1
1
1
1
1
1
1
1
1
1
1
1
1
1
1
1
1
1
1
1
1
1
1
1
1
1
1
1
1
1
1
1
1
1
1
1
1
1
1
1.83336
8.35537
10.3849
10.3977
10.4535
10.5003
10.5515
10.6026
10.6533
10.7031
10.7527
10.8019
10.8491
10.8957
10.9418
10.9858
11.0274
11.0686
11.1074
11.1436
11.1787
11.2115
11.2462
11.2794
11.314
11.3483
11.3822
11.4128
11.4406
11.4664
11.4909
11.5149
11.5392
11.5634
11.5862
11.6069
11.6257
11.643
11.6589
11.6736
11.6863
11.6965
11.7046
11.7099
11.713
11.7143
11.7147
1
1
1
1
1
1
1
1
1
1
1
1
1
1
1
1
1
1
1
1
1
1
1
1
1
1
1
1
1
1
1
1
1
1
1
1
1
1
1
1
1
1
1
1
1
1
1
1
1
1.46646
7.83439
10.4144
10.3828
10.4344
10.4797
10.5299
10.5816
10.6333
10.6833
10.7322
10.7806
10.8278
10.8744
10.9202
10.9637
11.0045
11.0441
11.0824
11.1178
11.1525
11.1845
11.2178
11.2506
11.2839
11.317
11.3496
11.3792
11.4058
11.4303
11.4536
11.4765
11.4998
11.5232
11.5454
11.5657
11.5838
11.6003
11.6153
11.6291
11.6412
11.6512
11.659
11.6638
11.666
11.6663
11.6658
1
1
1
1
1
1
1
1
1
1
1
1
1
1
1
1
1
1
1
1
1
1
1
1
1
1
1
1
1
1
1
1
1
1
1
1
1
1
1
1
1
1
1
1
1
1
1
1
1
1.17066
7.24476
10.389
10.3681
10.412
10.4574
10.5068
10.5573
10.6073
10.6568
10.7063
10.7555
10.8034
10.85
10.8954
10.9386
10.9789
11.0172
11.055
11.0901
11.1245
11.156
11.1877
11.2201
11.2521
11.2842
11.315
11.3434
11.3687
11.3918
11.4137
11.4353
11.4574
11.4796
11.5011
11.5207
11.5382
11.5536
11.5675
11.5804
11.5918
11.6014
11.6088
11.6129
11.6141
11.6131
11.6118
1
1
1
1
1
1
1
1
1
1
1
1
1
1
1
1
1
1
1
1
1
1
1
1
1
1
1
1
1
1
1
1
1
1
1
1
1
1
1
1
1
1
1
1
1
1
1
1
1
1.00758
6.54976
10.2809
10.3209
10.3687
10.4206
10.4735
10.5278
10.581
10.6323
10.6813
10.7285
10.7751
10.821
10.8661
10.909
10.9491
10.9869
11.024
11.0592
11.0934
11.125
11.1553
11.1872
11.2183
11.2493
11.2783
11.3054
11.3294
11.351
11.3713
11.3913
11.4118
11.4326
11.453
11.4718
11.4881
11.5023
11.5148
11.5263
11.537
11.546
11.5529
11.5564
11.5568
11.5549
11.5531
1
1
1
1
1
1
1
1
1
1
1
1
1
1
1
1
1
1
1
1
1
1
1
1
1
1
1
1
1
1
1
1
1
1
1
1
1
1
1
1
1
1
1
1
1
1
1
1
1
1.00004
5.80197
10.1493
10.273
10.3377
10.3975
10.4496
10.5011
10.5513
10.6009
10.6497
10.6972
10.7431
10.7878
10.8319
10.8749
10.9155
10.9533
10.99
11.0252
11.0592
11.0911
11.1205
11.1516
11.1818
11.2117
11.2392
11.2648
11.2875
11.3076
11.3262
11.3445
11.3631
11.3823
11.4013
11.4187
11.4337
11.4463
11.4572
11.4674
11.4769
11.485
11.491
11.4934
11.493
11.49
11.4878
1
1
1
1
1
1
1
1
1
1
1
1
1
1
1
1
1
1
1
1
1
1
1
1
1
1
1
1
1
1
1
1
1
1
1
1
1
1
1
1
1
1
1
1
1
1
1
1
1
1
4.9571
9.97028
10.2322
10.299
10.3643
10.4217
10.4772
10.5296
10.5792
10.6263
10.6708
10.7137
10.7558
10.7978
10.8397
10.8793
10.917
10.9531
10.988
11.0212
11.0535
11.0826
11.1126
11.1421
11.171
11.1975
11.2215
11.2428
11.2613
11.2781
11.2944
11.311
11.3283
11.3455
11.3611
11.3742
11.3848
11.3938
11.4021
11.4098
11.4168
11.4215
11.4229
11.422
11.4186
11.4167
1
1
1
1
1
1
1
1
1
1
1
1
1
1
1
1
1
1
1
1
1
1
1
1
1
1
1
1
1
1
1
1
1
1
1
1
1
1
1
1
1
1
1
1
1
1
1
1
1
1
4.09062
9.73496
10.1955
10.2789
10.3426
10.3966
10.4494
10.5005
10.5502
10.5981
10.6432
10.6856
10.7259
10.7654
10.8048
10.8434
10.8785
10.9133
10.9477
10.98
11.0119
11.0412
11.0701
11.0989
11.1269
11.1524
11.175
11.1948
11.2118
11.2267
11.241
11.2555
11.2706
11.2855
11.2989
11.3097
11.318
11.3248
11.3309
11.3366
11.3415
11.3441
11.3441
11.3421
11.3381
11.3362
1
1
1
1
1
1
1
1
1
1
1
1
1
1
1
1
1
1
1
1
1
1
1
1
1
1
1
1
1
1
1
1
1
1
1
1
1
1
1
1
1
1
1
1
1
1
1
1
1
1
3.26962
9.36692
10.1997
10.2537
10.3198
10.3795
10.4339
10.4822
10.5283
10.572
10.6132
10.6532
10.6924
10.7309
10.7693
10.8065
10.842
10.8732
10.9052
10.9357
10.9668
10.9962
11.024
11.052
11.0789
11.1036
11.125
11.1434
11.1587
11.1718
11.1839
11.1961
11.2085
11.2207
11.2313
11.2392
11.2447
11.2488
11.2519
11.2543
11.2561
11.2564
11.255
11.2524
11.2486
11.2475
1
1
1
1
1
1
1
1
1
1
1
1
1
1
1
1
1
1
1
1
1
1
1
1
1
1
1
1
1
1
1
1
1
1
1
1
1
1
1
1
1
1
1
1
1
1
1
1
1
1
2.48098
8.80983
10.2195
10.256
10.3191
10.3636
10.4075
10.4541
10.5025
10.5479
10.5897
10.6273
10.6624
10.6968
10.7319
10.7674
10.8014
10.8333
10.8628
10.8909
10.9188
10.9472
10.9742
11.0011
11.0268
11.0506
11.071
11.088
11.1018
11.113
11.1228
11.1324
11.1419
11.1509
11.1582
11.1629
11.1653
11.1661
11.1653
11.1641
11.1621
11.1589
11.1548
11.1502
11.1456
11.144
1
1
1
1
1
1
1
1
1
1
1
1
1
1
1
1
1
1
1
1
1
1
1
1
1
1
1
1
1
1
1
1
1
1
1
1
1
1
1
1
1
1
1
1
1
1
1
1
1
1
1.72639
8.19859
10.3122
10.2338
10.2906
10.336
10.3864
10.4336
10.4773
10.5186
10.5588
10.597
10.6327
10.666
10.6982
10.7301
10.7611
10.7905
10.8182
10.8442
10.8692
10.8963
10.9212
10.9465
10.9707
10.9933
11.0127
11.0285
11.0408
11.0501
11.0576
11.0642
11.0701
11.0753
11.0788
11.0799
11.0784
11.0746
11.0688
11.0618
11.0542
11.0465
11.0395
11.0336
11.0289
11.0279
1
1
1
1
1
1
1
1
1
1
1
1
1
1
1
1
1
1
1
1
1
1
1
1
1
1
1
1
1
1
1
1
1
1
1
1
1
1
1
1
1
1
1
1
1
1
1
1
1
1
1.13393
7.33907
10.3619
10.2639
10.2786
10.3075
10.3508
10.3978
10.4451
10.4887
10.5287
10.5662
10.6005
10.6325
10.6632
10.6937
10.7226
10.7497
10.7749
10.7979
10.8195
10.8414
10.8668
10.8889
10.9109
10.9317
10.9498
10.9643
10.9751
10.9826
10.9877
10.9911
10.9931
10.9941
10.9931
10.9898
10.9833
10.974
10.9624
10.9492
10.9355
10.9221
10.9096
10.8986
10.8902
10.8865
1
1
1
1
1
1
1
1
1
1
1
1
1
1
1
1
1
1
1
1
1
1
1
1
1
1
1
1
1
1
1
1
1
1
1
1
1
1
1
1
1
1
1
1
1
1
1
1
1
1
1.00275
6.36517
10.1299
10.1264
10.2059
10.2635
10.3165
10.3622
10.4064
10.4527
10.4954
10.5329
10.5665
10.5977
10.6271
10.6557
10.6826
10.7079
10.7313
10.7523
10.7713
10.789
10.8085
10.8296
10.8485
10.8665
10.8827
10.8956
10.9046
10.9103
10.9128
10.9122
10.9102
10.9063
10.9003
10.8914
10.879
10.8632
10.8439
10.8218
10.7981
10.7748
10.7543
10.7385
10.7279
10.7247
1
1
1
1
1
1
1
1
1
1
1
1
1
1
1
1
1
1
1
1
1
1
1
1
1
1
1
1
1
1
1
1
1
1
1
1
1
1
1
1
1
1
1
1
1
1
1
1
1
1
0.999999
5.20784
9.88309
10.0884
10.1764
10.2367
10.2883
10.3347
10.3785
10.4186
10.4555
10.4933
10.5281
10.5596
10.5884
10.6159
10.6414
10.6648
10.6863
10.7056
10.7227
10.7375
10.7526
10.769
10.7849
10.7994
10.8125
10.8229
10.8299
10.8334
10.8323
10.828
10.8214
10.8121
10.8003
10.7848
10.7652
10.741
10.7121
10.6796
10.6453
10.6118
10.5804
10.5511
10.527
10.5121
1
1
1
1
1
1
1
1
1
1
1
1
1
1
1
1
1
1
1
1
1
1
1
1
1
1
1
1
1
1
1
1
1
1
1
1
1
1
1
1
1
1
1
1
1
1
1
1
1
1
1
4.09023
9.54613
10.051
10.1361
10.2046
10.2587
10.303
10.3405
10.3779
10.4167
10.4522
10.485
10.5169
10.546
10.5728
10.5973
10.6195
10.6397
10.6574
10.6726
10.6851
10.6964
10.7089
10.7207
10.7311
10.7402
10.7472
10.7516
10.7515
10.7464
10.7379
10.7261
10.7111
10.6925
10.6692
10.6407
10.6065
10.5664
10.5206
10.4697
10.415
10.3601
10.3106
10.2728
10.2594
1
1
1
1
1
1
1
1
1
1
1
1
1
1
1
1
1
1
1
1
1
1
1
1
1
1
1
1
1
1
1
1
1
1
1
1
1
1
1
1
1
1
1
1
1
1
1
1
1
1
1
3.02065
9.00718
10.0295
10.1184
10.2033
10.2468
10.2805
10.3119
10.3453
10.3779
10.41
10.4424
10.472
10.4997
10.5259
10.5498
10.5713
10.5904
10.607
10.6208
10.6315
10.6396
10.6479
10.6561
10.6622
10.6667
10.6694
10.6702
10.6657
10.656
10.6426
10.6251
10.6035
10.5771
10.545
10.5061
10.4598
10.4052
10.3416
10.2696
10.1923
10.1129
10.0346
9.95234
9.88289
1
1
1
1
1
1
1
1
1
1
1
1
1
1
1
1
1
1
1
1
1
1
1
1
1
1
1
1
1
1
1
1
1
1
1
1
1
1
1
1
1
1
1
1
1
1
1
1
1
1
1
1.95853
8.26663
10.1936
10.1445
10.1748
10.2028
10.2387
10.2768
10.3123
10.3444
10.3738
10.4005
10.4265
10.4522
10.4763
10.499
10.5197
10.5381
10.5541
10.5664
10.5758
10.5814
10.5857
10.5898
10.592
10.5921
10.5903
10.5857
10.5764
10.5617
10.5425
10.5185
10.4894
10.4543
10.4119
10.3609
10.3004
10.2286
10.1445
10.0464
9.93192
9.7939
9.63206
9.47379
9.36095
1
1
1
1
1
1
1
1
1
1
1
1
1
1
1
1
1
1
1
1
1
1
1
1
1
1
1
1
1
1
1
1
1
1
1
1
1
1
1
1
1
1
1
1
1
1
1
1
1
1
1
1.12994
7.32611
10.2935
10.1498
10.1252
10.1549
10.1992
10.2394
10.2746
10.307
10.3364
10.3625
10.3857
10.4067
10.4273
10.4473
10.4662
10.4831
10.4984
10.5091
10.5171
10.5208
10.5222
10.5222
10.5205
10.5164
10.5094
10.4991
10.4845
10.4645
10.4388
10.4074
10.3699
10.3249
10.2711
10.2066
10.1298
10.0381
9.92802
9.79315
9.62655
9.42353
9.18215
8.92444
8.75804
1
1
1
1
1
1
1
1
1
1
1
1
1
1
1
1
1
1
1
1
1
1
1
1
1
1
1
1
1
1
1
1
1
1
1
1
1
1
1
1
1
1
1
1
1
1
1
1
1
1
1
1.00172
6.14068
9.97488
9.98034
10.061
10.1101
10.1566
10.1999
10.2354
10.268
10.2969
10.322
10.3443
10.3638
10.3808
10.3967
10.4125
10.4272
10.4401
10.4492
10.4553
10.4575
10.4564
10.4529
10.4473
10.4386
10.4264
10.4105
10.39
10.364
10.3318
10.2925
10.2457
10.19
10.1237
10.0444
9.94963
9.83502
9.69503
9.5202
9.29933
9.00431
8.5664
7.73153
5.78172
1
1
1
1
1
1
1
1
1
1
1
1
1
1
1
1
1
1
1
1
1
1
1
1
1
1
1
1
1
1
1
1
1
1
1
1
1
1
1
1
1
1
1
1
1
1
1
1
1
1
1
0.999983
4.73706
9.60219
9.93659
10.0405
10.0848
10.1208
10.1588
10.1931
10.2254
10.2541
10.2788
10.3002
10.3186
10.334
10.3473
10.3595
10.3711
10.3809
10.3885
10.3916
10.392
10.3884
10.3817
10.3724
10.3593
10.3421
10.3204
10.2939
10.2613
10.2221
10.1748
10.1183
10.0514
9.97186
9.87679
9.76264
9.62358
9.45131
9.23182
8.9401
8.53313
7.89331
6.93314
4.73358
1
1
1
1
1
1
1
1
1
1
1
1
1
1
1
1
1
1
1
1
1
1
1
1
1
1
1
1
1
1
1
1
1
1
1
1
1
1
1
1
1
1
1
1
1
1
1
1
1
1
1
0.999996
3.42542
9.12241
9.93775
10.0066
10.0599
10.0994
10.1213
10.148
10.1782
10.2069
10.232
10.2531
10.2708
10.2852
10.2968
10.3063
10.3144
10.3211
10.3263
10.3264
10.3243
10.3179
10.3081
10.2951
10.2781
10.2563
10.2289
10.1961
10.1567
10.11
10.0546
9.98863
9.91027
9.81735
9.70621
9.57227
9.40822
9.20403
8.9407
8.59381
8.09863
7.43969
6.17763
4.36426
1
1
1
1
1
1
1
1
1
1
1
1
1
1
1
1
1
1
1
1
1
1
1
1
1
1
1
1
1
1
1
1
1
1
1
1
1
1
1
1
1
1
1
1
1
1
1
1
1
1
1
0.999999
2.15562
8.36091
10.0354
10.0054
10.0313
10.0597
10.0851
10.1116
10.138
10.1638
10.1872
10.2067
10.2228
10.2354
10.2451
10.2526
10.258
10.2615
10.2634
10.2614
10.256
10.2464
10.2332
10.2163
10.1952
10.169
10.1365
10.0974
10.0511
9.99678
9.93296
9.85781
9.7685
9.66257
9.53561
9.3826
9.19445
8.96195
8.6615
8.27445
7.73204
6.98479
5.7554
4.26228
1
1
1
1
1
1
1
1
1
1
1
1
1
1
1
1
1
1
1
1
1
1
1
1
1
1
1
1
1
1
1
1
1
1
1
1
1
1
1
1
1
1
1
1
1
1
1
1
1
1
1
1
1.15598
7.33893
10.1495
10.0239
9.99038
10.0101
10.0439
10.0707
10.0959
10.1195
10.1409
10.1587
10.1733
10.184
10.1918
10.1973
10.2002
10.2009
10.1994
10.195
10.1866
10.1737
10.157
10.1361
10.1109
10.0803
10.0431
9.99832
9.94528
9.88327
9.8109
9.72654
9.62691
9.50915
9.3674
9.19735
8.98802
8.73139
8.40442
7.98346
7.42745
6.64308
5.55345
4.37303
1
1
1
1
1
1
1
1
1
1
1
1
1
1
1
1
1
1
1
1
1
1
1
1
1
1
1
1
1
1
1
1
1
1
1
1
1
1
1
1
1
1
1
1
1
1
1
1
1
1
1
1
1.00236
5.96988
9.77032
9.83944
9.91356
9.95375
9.99486
10.0244
10.0509
10.0741
10.0942
10.1105
10.1235
10.1324
10.1379
10.1413
10.1419
10.1404
10.1357
10.1283
10.1171
10.1011
10.0809
10.0561
10.0263
9.99095
9.94893
9.89884
9.83947
9.77026
9.68978
9.59656
9.48704
9.35871
9.20396
9.01925
8.79274
8.51659
8.17241
7.73446
7.17283
6.42312
5.49493
4.51364
1
1
1
1
1
1
1
1
1
1
1
1
1
1
1
1
1
1
1
1
1
1
1
1
1
1
1
1
1
1
1
1
1
1
1
1
1
1
1
1
1
1
1
1
1
1
1
1
1
1
1
1
0.999969
4.379
9.36639
9.80754
9.89345
9.93592
9.95795
9.98137
10.0057
10.0278
10.0467
10.0619
10.0732
10.0805
10.0835
10.0847
10.0829
10.0791
10.0716
10.061
10.0467
10.0278
10.004
9.97548
9.94154
9.90141
9.85451
9.79945
9.73446
9.65872
9.57063
9.46907
9.35035
9.21204
9.04682
8.85038
8.61145
8.32182
7.9679
7.5282
6.97505
6.29426
5.48981
4.64781
1
1
1
1
1
1
1
1
1
1
1
1
1
1
1
1
1
1
1
1
1
1
1
1
1
1
1
1
1
1
1
1
1
1
1
1
1
1
1
1
1
1
1
1
1
1
1
1
1
1
1
1
0.999992
2.82377
8.75342
9.86482
9.88508
9.89843
9.91724
9.94177
9.96283
9.98257
9.99975
10.0134
10.0232
10.0291
10.0295
10.0283
10.024
10.0174
10.0075
9.99374
9.97631
9.95455
9.92747
9.89519
9.85743
9.81284
9.76073
9.70046
9.6302
9.54865
9.45379
9.3447
9.21805
9.07073
8.8971
8.69164
8.44522
8.14801
7.79223
7.35697
6.83031
6.2141
5.51147
4.78859
1
1
1
1
1
1
1
1
1
1
1
1
1
1
1
1
1
1
1
1
1
1
1
1
1
1
1
1
1
1
1
1
1
1
1
1
1
1
1
1
1
1
1
1
1
1
1
1
1
1
1
1
0.999999
1.52927
7.90855
10.0013
9.86538
9.84448
9.87261
9.89911
9.91836
9.93624
9.95187
9.96419
9.97282
9.97733
9.97554
9.97193
9.96511
9.95582
9.94324
9.9267
9.90614
9.88115
9.85089
9.81485
9.77301
9.72466
9.66798
9.60271
9.52754
9.44084
9.34018
9.22444
9.0909
8.93613
8.75593
8.54402
8.29387
7.9951
7.64473
7.21681
6.72573
6.17359
5.54849
4.92082
1
1
1
1
1
1
1
1
1
1
1
1
1
1
1
1
1
1
1
1
1
1
1
1
1
1
1
1
1
1
1
1
1
1
1
1
1
1
1
1
1
1
1
1
1
1
1
1
1
1
1
1
1
1.0312
6.50735
9.74703
9.73697
9.78304
9.82043
9.85062
9.87031
9.8875
9.90224
9.91381
9.92181
9.92491
9.92181
9.9159
9.90673
9.89463
9.87914
9.8596
9.83599
9.80795
9.77456
9.73519
9.68945
9.63724
9.57684
9.50714
9.42692
9.3353
9.2296
9.10829
8.96898
8.80851
8.62353
8.40803
8.15666
7.86074
7.52089
7.10532
6.65262
6.15413
5.58852
5.03854
1
1
1
1
1
1
1
1
1
1
1
1
1
1
1
1
1
1
1
1
1
1
1
1
1
1
1
1
1
1
1
1
1
1
1
1
1
1
1
1
1
1
1
1
1
1
1
1
1
1
1
1
1
0.99999
4.67717
9.30615
9.67177
9.76002
9.79957
9.81547
9.8282
9.84176
9.85425
9.86465
9.87094
9.87246
9.86809
9.85992
9.84839
9.83371
9.81549
9.79311
9.7666
9.73562
9.6992
9.65667
9.60718
9.55081
9.4865
9.41337
9.3289
9.23282
9.12279
8.99698
8.85303
8.68841
8.50026
8.28354
8.03339
7.74398
7.41449
7.01939
6.60709
6.14126
5.62434
5.13851
1
1
1
1
1
1
1
1
1
1
1
1
1
1
1
1
1
1
1
1
1
1
1
1
1
1
1
1
1
1
1
1
1
1
1
1
1
1
1
1
1
1
1
1
1
1
1
1
1
1
1
1
1
0.999992
2.8866
8.75327
9.75362
9.75882
9.76374
9.77266
9.78558
9.79677
9.80694
9.81533
9.81985
9.81986
9.81419
9.80404
9.79019
9.77316
9.75232
9.72718
9.6976
9.66356
9.62419
9.57875
9.526
9.46598
9.3979
9.32124
9.23362
9.13391
9.01983
8.89036
8.74296
8.57557
8.38579
8.16962
7.92299
7.64156
7.32208
6.95544
6.57425
6.13066
5.66959
5.2301
1
1
1
1
1
1
1
1
1
1
1
1
1
1
1
1
1
1
1
1
1
1
1
1
1
1
1
1
1
1
1
1
1
1
1
1
1
1
1
1
1
1
1
1
1
1
1
1
1
1
1
1
1
0.999999
1.45735
7.80188
9.8933
9.75193
9.70401
9.71983
9.73821
9.74971
9.75882
9.76552
9.76865
9.76723
9.76024
9.74833
9.73226
9.71279
9.68945
9.66184
9.62953
9.59257
9.5504
9.50232
9.44676
9.38347
9.31177
9.23125
9.14038
9.03794
8.9211
8.78896
8.63912
8.47024
8.28013
8.06596
7.82437
7.55094
7.24484
6.90547
6.54353
6.1305
5.72552
5.30953
1
1
1
1
1
1
1
1
1
1
1
1
1
1
1
1
1
1
1
1
1
1
1
1
1
1
1
1
1
1
1
1
1
1
1
1
1
1
1
1
1
1
1
1
1
1
1
1
1
1
1
1
1
1
1.02186
6.26396
9.54503
9.58436
9.63627
9.66501
9.68801
9.70126
9.70988
9.71538
9.71734
9.71463
9.70634
9.69271
9.67454
9.65267
9.62689
9.59699
9.56213
9.52238
9.47736
9.42656
9.36847
9.30241
9.2276
9.14378
9.0499
8.94473
8.82607
8.69274
8.54149
8.37206
8.18277
7.97133
7.73589
7.47179
7.17944
6.85914
6.51869
6.14142
5.77358
5.37394
1
1
1
1
1
1
1
1
1
1
1
1
1
1
1
1
1
1
1
1
1
1
1
1
1
1
1
1
1
1
1
1
1
1
1
1
1
1
1
1
1
1
1
1
1
1
1
1
1
1
1
1
1
1
0.999936
4.29614
9.1104
9.53333
9.60566
9.63833
9.65138
9.65728
9.66246
9.66562
9.66586
9.66172
9.65227
9.63723
9.61729
9.59317
9.56497
9.53283
9.49566
9.45336
9.40565
9.35232
9.29194
9.2236
9.14625
9.05962
8.96298
8.85525
8.73488
8.60057
8.44966
8.28107
8.09317
7.885
7.65749
7.40132
7.11985
6.822
6.50391
6.15377
5.80721
5.42873
1
1
1
1
1
1
1
1
1
1
1
1
1
1
1
1
1
1
1
1
1
1
1
1
1
1
1
1
1
1
1
1
1
1
1
1
1
1
1
1
1
1
1
1
1
1
1
1
1
1
1
1
1
1
0.999982
2.40351
8.42121
9.63194
9.60237
9.60233
9.61191
9.61654
9.61826
9.61797
9.61556
9.60947
9.59864
9.58217
9.56042
9.53414
9.50358
9.46925
9.42995
9.38534
9.33513
9.27937
9.21667
9.14621
9.06684
8.9781
8.87927
8.76958
8.64805
8.51314
8.36291
8.19638
8.01172
7.80628
7.58563
7.33611
7.07176
6.7976
6.48486
6.15596
5.83378
5.48749
1
1
1
1
1
1
1
1
1
1
1
1
1
1
1
1
1
1
1
1
1
1
1
1
1
1
1
1
1
1
1
1
1
1
1
1
1
1
1
1
1
1
1
1
1
1
1
1
1
1
1
1
1
1
0.999997
1.18064
7.11454
9.69193
9.576
9.55014
9.56193
9.56959
9.57089
9.56896
9.56463
9.55683
9.54476
9.52724
9.50413
9.47609
9.44336
9.40682
9.36549
9.31882
9.26628
9.20814
9.14331
9.07101
8.99008
8.89982
8.7994
8.68831
8.56589
8.43086
8.28153
8.11728
7.93688
7.73435
7.51985
7.27903
7.03402
6.76617
6.45789
6.16833
5.86679
5.54322
1
1
1
1
1
1
1
1
1
1
1
1
1
1
1
1
1
1
1
1
1
1
1
1
1
1
1
1
1
1
1
1
1
1
1
1
1
1
1
1
1
1
1
1
1
1
1
1
1
1
1
1
1
1
1
1.00272
5.23862
9.20307
9.4211
9.49663
9.52424
9.5265
9.52464
9.52016
9.5136
9.50399
9.49066
9.47225
9.44812
9.41862
9.38395
9.34531
9.30203
9.25354
9.19901
9.13863
9.07178
8.99787
8.91554
8.82414
8.72268
8.61087
8.48807
8.35338
8.20544
8.04368
7.8669
7.66865
7.46258
7.23058
6.9951
6.72988
6.45106
6.18878
5.88882
5.58502
1
1
1
1
1
1
1
1
1
1
1
1
1
1
1
1
1
1
1
1
1
1
1
1
1
1
1
1
1
1
1
1
1
1
1
1
1
1
1
1
1
1
1
1
1
1
1
1
1
1
1
1
1
1
1
0.999971
3.04667
8.67003
9.5042
9.49105
9.48723
9.48985
9.48571
9.47684
9.46653
9.45404
9.43857
9.41877
9.39368
9.36279
9.32636
9.28563
9.24034
9.19006
9.13379
9.07142
9.00254
8.92711
8.84363
8.75142
8.64939
8.53743
8.41476
8.28077
8.13458
7.97513
7.80161
7.60995
7.40965
7.18518
6.95926
6.70713
6.45455
6.19261
5.90026
5.62933
1
1
1
1
1
1
1
1
1
1
1
1
1
1
1
1
1
1
1
1
1
1
1
1
1
1
1
1
1
1
1
1
1
1
1
1
1
1
1
1
1
1
1
1
1
1
1
1
1
1
1
1
1
1
1
0.999993
1.36897
7.60735
9.62399
9.47622
9.43879
9.43738
9.43489
9.42642
9.41563
9.40196
9.38526
9.36459
9.33892
9.30729
9.26961
9.22714
9.17999
9.12796
9.07014
9.00616
8.93558
8.85864
8.77409
8.6813
8.57896
8.46729
8.34528
8.21249
8.06853
7.9112
7.74185
7.55642
7.35821
7.14498
6.93261
6.69162
6.44748
6.18864
5.92797
5.67704
1
1
1
1
1
1
1
1
1
1
1
1
1
1
1
1
1
1
1
1
1
1
1
1
1
1
1
1
1
1
1
1
1
1
1
1
1
1
1
1
1
1
1
1
1
1
1
1
1
1
1
1
1
1
1
0.999999
1.0129
5.79102
9.1936
9.31541
9.37886
9.39596
9.38654
9.37681
9.3652
9.35059
9.33306
9.31162
9.28526
9.25308
9.21451
9.17052
9.12152
9.06769
9.00837
8.94308
8.87116
8.79283
8.70713
8.61387
8.51149
8.40047
8.27956
8.14837
8.00688
7.85144
7.6871
7.5048
7.311
7.11483
6.90652
6.66887
6.43887
6.20074
5.96067
5.70925
1
1
1
1
1
1
1
1
1
1
1
1
1
1
1
1
1
1
1
1
1
1
1
1
1
1
1
1
1
1
1
1
1
1
1
1
1
1
1
1
1
1
1
1
1
1
1
1
1
1
1
1
1
1
1
1
0.999918
3.43408
8.71933
9.36779
9.36538
9.35315
9.34796
9.33804
9.32261
9.30432
9.284
9.26066
9.23273
9.19957
9.16024
9.11507
9.06443
9.00889
8.94811
8.88166
8.80873
8.7294
8.6428
8.54894
8.44679
8.33652
8.21717
8.08783
7.94881
7.79542
7.63525
7.45649
7.27278
7.08621
6.87398
6.65236
6.44125
6.21548
5.98014
5.73029
1
1
1
1
1
1
1
1
1
1
1
1
1
1
1
1
1
1
1
1
1
1
1
1
1
1
1
1
1
1
1
1
1
1
1
1
1
1
1
1
1
1
1
1
1
1
1
1
1
1
1
1
1
1
1
1
0.999979
1.53126
7.78382
9.49449
9.34854
9.31097
9.2976
9.28825
9.27268
9.25426
9.23297
9.20866
9.17978
9.14592
9.10627
9.06052
9.00867
8.95171
8.88961
8.82212
8.74844
8.66843
8.58136
8.48687
8.38529
8.27553
8.15831
8.03009
7.89323
7.7424
7.58608
7.41322
7.23929
7.05231
6.84611
6.64864
6.44361
6.21799
5.9896
5.75681
1
1
1
1
1
1
1
1
1
1
1
1
1
1
1
1
1
1
1
1
1
1
1
1
1
1
1
1
1
1
1
1
1
1
1
1
1
1
1
1
1
1
1
1
1
1
1
1
1
1
1
1
1
1
1
1
0.999996
1.02608
5.95869
9.11362
9.19918
9.24448
9.25516
9.2433
9.22528
9.20589
9.18315
9.15741
9.12772
9.09292
9.05282
9.00671
8.95413
8.89607
8.83279
8.76428
8.69
8.60954
8.52248
8.4279
8.32698
8.21775
8.10246
7.97467
7.84003
7.69278
7.54098
7.37448
7.20605
7.02176
6.83113
6.64315
6.43554
6.21869
6.00718
5.79267
1
1
1
1
1
1
1
1
1
1
1
1
1
1
1
1
1
1
1
1
1
1
1
1
1
1
1
1
1
1
1
1
1
1
1
1
1
1
1
1
1
1
1
1
1
1
1
1
1
1
1
1
1
1
1
1
1
0.999925
3.44364
8.61639
9.2425
9.23269
9.21199
9.20246
9.18742
9.16513
9.13865
9.10956
9.07764
9.04131
9.00028
8.95369
8.90085
8.84226
8.77815
8.70877
8.63395
8.55316
8.4662
8.37224
8.27191
8.16361
8.04867
7.92193
7.78948
7.64711
7.49907
7.33791
7.17458
6.9979
6.81723
6.62802
6.42605
6.22805
6.02947
5.8221
1
1
1
1
1
1
1
1
1
1
1
1
1
1
1
1
1
1
1
1
1
1
1
1
1
1
1
1
1
1
1
1
1
1
1
1
1
1
1
1
1
1
1
1
1
1
1
1
1
1
1
1
1
1
1
1
1
0.999979
1.45769
7.64801
9.37982
9.22289
9.18084
9.15616
9.14142
9.11697
9.08951
9.0595
9.02651
8.98961
8.94792
8.90093
8.84823
8.78972
8.72522
8.65525
8.57999
8.49912
8.41226
8.31926
8.21974
8.11282
7.99761
7.87271
7.74262
7.60538
7.45957
7.30446
7.14712
6.97708
6.7995
6.61461
6.42798
6.23943
6.0453
5.8413
1
1
1
1
1
1
1
1
1
1
1
1
1
1
1
1
1
1
1
1
1
1
1
1
1
1
1
1
1
1
1
1
1
1
1
1
1
1
1
1
1
1
1
1
1
1
1
1
1
1
1
1
1
1
1
1
1
0.999997
1.01902
5.71376
8.95196
9.0467
9.09325
9.1154
9.09851
9.06993
9.04166
9.01086
8.97699
8.93938
8.89714
8.84971
8.79708
8.73896
8.67455
8.60447
8.5287
8.44782
8.3609
8.26869
8.1699
8.06421
7.9495
7.82682
7.6995
7.56564
7.42208
7.27418
7.12103
6.95444
6.78144
6.60795
6.43247
6.24321
6.05217
5.85809
1
1
1
1
1
1
1
1
1
1
1
1
1
1
1
1
1
1
1
1
1
1
1
1
1
1
1
1
1
1
1
1
1
1
1
1
1
1
1
1
1
1
1
1
1
1
1
1
1
1
1
1
1
1
1
1
1
1
0.999914
3.10964
8.40203
9.11743
9.10757
9.08629
9.05803
9.03011
9.00041
8.96697
8.93092
8.89151
8.84797
8.79973
8.74682
8.68901
8.62498
8.55536
8.47938
8.39844
8.312
8.2197
8.12303
8.01709
7.9046
7.78478
7.66028
7.52805
7.38835
7.24643
7.09511
6.93313
6.76812
6.60416
6.43195
6.24295
6.06205
5.88091
1
1
1
1
1
1
1
1
1
1
1
1
1
1
1
1
1
1
1
1
1
1
1
1
1
1
1
1
1
1
1
1
1
1
1
1
1
1
1
1
1
1
1
1
1
1
1
1
1
1
1
1
1
1
1
1
1
1
0.999977
1.31485
7.18906
9.22738
9.09336
9.03379
9.00526
8.98241
8.95305
8.91949
8.88337
8.84366
8.79961
8.7512
8.69819
8.64069
8.57711
8.50822
8.43245
8.35158
8.26528
8.17339
8.07603
7.97196
7.86217
7.7453
7.62311
7.49245
7.35752
7.21832
7.06902
6.9149
6.75715
6.59722
6.42595
6.24432
6.07701
5.90384
1
1
1
1
1
1
1
1
1
1
1
1
1
1
1
1
1
1
1
1
1
1
1
1
1
1
1
1
1
1
1
1
1
1
1
1
1
1
1
1
1
1
1
1
1
1
1
1
1
1
1
1
1
1
1
1
1
1
0.999996
1.00849
5.01981
8.75807
8.92609
8.96603
8.96606
8.94354
8.91044
8.87608
8.83911
8.79837
8.75328
8.70439
8.65101
8.59354
8.53043
8.46228
8.38735
8.30705
8.22099
8.1294
8.03194
7.92954
7.82208
7.70822
7.58832
7.46038
7.32926
7.19103
7.04629
6.89974
6.74572
6.58871
6.42183
6.25131
6.09279
5.92249
1
1
1
1
1
1
1
1
1
1
1
1
1
1
1
1
1
1
1
1
1
1
1
1
1
1
1
1
1
1
1
1
1
1
1
1
1
1
1
1
1
1
1
1
1
1
1
1
1
1
1
1
1
1
1
1
1
1
1
0.999951
2.39892
8.12174
8.99565
8.9676
8.94252
8.90524
8.87102
8.83669
8.79879
8.75642
8.71007
8.66063
8.60677
8.54896
8.4859
8.418
8.34392
8.26425
8.1789
8.0877
7.99099
7.88914
7.78277
7.67181
7.55457
7.43014
7.30165
7.16536
7.02676
6.88434
6.73215
6.57988
6.42123
6.26063
6.10339
5.93438
1
1
1
1
1
1
1
1
1
1
1
1
1
1
1
1
1
1
1
1
1
1
1
1
1
1
1
1
1
1
1
1
1
1
1
1
1
1
1
1
1
1
1
1
1
1
1
1
1
1
1
1
1
1
1
1
1
1
1
0.999988
1.15002
6.4505
8.94772
8.91283
8.89184
8.85671
8.82659
8.79515
8.75599
8.71211
8.66534
8.6162
8.56269
8.50518
8.44256
8.37525
8.30237
8.22374
8.13958
8.04926
7.95349
7.85247
7.7468
7.63772
7.52267
7.4017
7.27593
7.14321
7.00963
6.86869
6.71945
6.57369
6.42286
6.26839
6.11027
5.94579
1
1
1
1
1
1
1
1
1
1
1
1
1
1
1
1
1
1
1
1
1
1
1
1
1
1
1
1
1
1
1
1
1
1
1
1
1
1
1
1
1
1
1
1
1
1
1
1
1
1
1
1
1
1
1
1
1
1
1
0.999998
1.00152
3.74562
8.39723
8.84552
8.84141
8.81374
8.79868
8.76686
8.72239
8.67461
8.62594
8.57625
8.52246
8.46468
8.40172
8.3343
8.26176
8.18395
8.10094
8.01194
7.91753
7.81767
7.71322
7.60538
7.49184
7.37393
7.25127
7.12284
6.99242
6.85295