/*--------------------------------*- C++ -*----------------------------------*\
  =========                 |
  \\      /  F ield         | OpenFOAM: The Open Source CFD Toolbox
   \\    /   O peration     | Website:  https://openfoam.org
    \\  /    A nd           | Version:  7
     \\/     M anipulation  |
\*---------------------------------------------------------------------------*/
FoamFile
{
    version     2.0;
    format      ascii;
    class       volScalarField;
    location    "3.3";
    object      rho;
}
// * * * * * * * * * * * * * * * * * * * * * * * * * * * * * * * * * * * * * //

dimensions      [1 -3 0 0 0 0 0];

internalField   nonuniform List<scalar> 
64512
(
1.40001
1.40001
1.40001
1.40001
1.40001
1.40001
1.40001
1.40001
1.40001
1.40001
1.40001
1.40001
1.40001
1.40001
1.40001
1.40001
1.40001
1.40001
1.40001
1.40001
1.40001
1.40001
1.40001
1.40001
1.40001
1.40001
1.40001
1.40001
1.40001
1.40001
1.40001
1.40001
1.40001
1.40001
1.40001
1.40001
1.40001
1.40001
1.40001
1.40001
1.40001
1.40001
1.40001
1.40001
1.40001
1.40001
1.40001
1.40001
1.40001
3.95102
5.40632
5.42663
5.44643
5.4705
5.49474
5.51928
5.54339
5.56609
5.58663
5.60474
5.62082
5.63585
5.65102
5.6675
5.68558
5.70463
5.72382
5.7425
5.76011
5.77605
5.78934
5.79928
5.80731
5.81675
5.83004
5.8466
5.86407
5.8803
5.89371
5.90408
5.91304
5.92249
5.93286
5.94342
5.95305
5.96076
5.96646
5.97103
5.9755
5.98032
5.98541
5.99018
5.99417
5.99711
5.99922
6.00113
1.40001
1.40001
1.40001
1.40001
1.40001
1.40001
1.40001
1.40001
1.40001
1.40001
1.40001
1.40001
1.40001
1.40001
1.40001
1.40001
1.40001
1.40001
1.40001
1.40001
1.40001
1.40001
1.40001
1.40001
1.40001
1.40001
1.40001
1.40001
1.40001
1.40001
1.40001
1.40001
1.40001
1.40001
1.40001
1.40001
1.40001
1.40001
1.40001
1.40001
1.40001
1.40001
1.40001
1.40001
1.40001
1.40001
1.40001
1.40001
1.40001
3.93057
5.4011
5.427
5.44623
5.47041
5.49456
5.51906
5.5432
5.56586
5.58624
5.60423
5.62031
5.63545
5.65066
5.66703
5.68495
5.70388
5.72307
5.74181
5.75942
5.77521
5.78833
5.79821
5.80647
5.8162
5.82975
5.84639
5.86376
5.8798
5.89298
5.90315
5.91199
5.92142
5.93183
5.94243
5.95206
5.95976
5.96545
5.97004
5.97454
5.97935
5.98437
5.98903
5.99289
5.99574
5.9978
5.9997
1.40001
1.40001
1.40001
1.40001
1.40001
1.40001
1.40001
1.40001
1.40001
1.40001
1.40001
1.40001
1.40001
1.40001
1.40001
1.40001
1.40001
1.40001
1.40001
1.40001
1.40001
1.40001
1.40001
1.40001
1.40001
1.40001
1.40001
1.40001
1.40001
1.40001
1.40001
1.40001
1.40001
1.40001
1.40001
1.40001
1.40001
1.40001
1.40001
1.40001
1.40001
1.40001
1.40001
1.40001
1.40001
1.40001
1.40001
1.40001
1.40001
3.89065
5.39735
5.42549
5.4447
5.46944
5.49363
5.51813
5.54233
5.56504
5.58531
5.60313
5.61914
5.63427
5.64946
5.66569
5.6835
5.7024
5.72166
5.74056
5.75825
5.77389
5.78679
5.79646
5.80488
5.81497
5.82891
5.84574
5.86309
5.87894
5.89182
5.9017
5.91037
5.91978
5.93024
5.94087
5.95048
5.95811
5.96377
5.96839
5.97295
5.97777
5.98271
5.98721
5.99089
5.9936
5.99559
5.99747
1.40001
1.40001
1.40001
1.40001
1.40001
1.40001
1.40001
1.40001
1.40001
1.40001
1.40001
1.40001
1.40001
1.40001
1.40001
1.40001
1.40001
1.40001
1.40001
1.40001
1.40001
1.40001
1.40001
1.40001
1.40001
1.40001
1.40001
1.40001
1.40001
1.40001
1.40001
1.40001
1.40001
1.40001
1.40001
1.40001
1.40001
1.40001
1.40001
1.40001
1.40001
1.40001
1.40001
1.40001
1.40001
1.40001
1.40001
1.40001
1.40001
3.83247
5.3922
5.42383
5.44278
5.46822
5.49246
5.51693
5.54112
5.56387
5.58403
5.60164
5.61747
5.63246
5.64741
5.66333
5.68101
5.69995
5.7194
5.73854
5.75639
5.77192
5.78464
5.7941
5.80267
5.81311
5.82745
5.8445
5.8618
5.87741
5.88993
5.89946
5.90794
5.91735
5.92791
5.93861
5.94818
5.95572
5.96133
5.96598
5.97059
5.97539
5.98017
5.98442
5.98783
5.99033
5.99221
5.99405
1.40001
1.40001
1.40001
1.40001
1.40001
1.40001
1.40001
1.40001
1.40001
1.40001
1.40001
1.40001
1.40001
1.40001
1.40001
1.40001
1.40001
1.40001
1.40001
1.40001
1.40001
1.40001
1.40001
1.40001
1.40001
1.40001
1.40001
1.40001
1.40001
1.40001
1.40001
1.40001
1.40001
1.40001
1.40001
1.40001
1.40001
1.40001
1.40001
1.40001
1.40001
1.40001
1.40001
1.40001
1.40001
1.40001
1.40001
1.40001
1.40001
3.75519
5.38497
5.42122
5.4401
5.46646
5.49089
5.51548
5.53968
5.5625
5.58257
5.59986
5.61528
5.62988
5.64442
5.65993
5.6775
5.69664
5.71643
5.73592
5.75404
5.76957
5.78217
5.79137
5.79994
5.81057
5.82522
5.84246
5.85973
5.87513
5.88732
5.89651
5.90479
5.9142
5.92488
5.93564
5.94519
5.95265
5.95823
5.96292
5.96757
5.97232
5.97689
5.98082
5.98389
5.98612
5.98786
5.98964
1.40001
1.40001
1.40001
1.40001
1.40001
1.40001
1.40001
1.40001
1.40001
1.40001
1.40001
1.40001
1.40001
1.40001
1.40001
1.40001
1.40001
1.40001
1.40001
1.40001
1.40001
1.40001
1.40001
1.40001
1.40001
1.40001
1.40001
1.40001
1.40001
1.40001
1.40001
1.40001
1.40001
1.40001
1.40001
1.40001
1.40001
1.40001
1.40001
1.40001
1.40001
1.40001
1.40001
1.40001
1.40001
1.40001
1.40001
1.40001
1.40001
3.65896
5.37523
5.41692
5.43637
5.46396
5.48887
5.51383
5.53816
5.56115
5.58121
5.5981
5.61284
5.62667
5.64058
5.65559
5.67307
5.69255
5.71277
5.73271
5.75123
5.76689
5.77942
5.78831
5.7967
5.80731
5.82208
5.83942
5.85665
5.8719
5.88386
5.89276
5.90084
5.91023
5.92099
5.93183
5.94137
5.94881
5.95438
5.95911
5.96381
5.96851
5.97286
5.97646
5.97917
5.98113
5.9827
5.98441
1.40001
1.40001
1.40001
1.40001
1.40001
1.40001
1.40001
1.40001
1.40001
1.40001
1.40001
1.40001
1.40001
1.40001
1.40001
1.40001
1.40001
1.40001
1.40001
1.40001
1.40001
1.40001
1.40001
1.40001
1.40001
1.40001
1.40001
1.40001
1.40001
1.40001
1.40001
1.40001
1.40001
1.40001
1.40001
1.40001
1.40001
1.40001
1.40001
1.40001
1.40001
1.40001
1.40001
1.40001
1.40001
1.40001
1.40001
1.40001
1.40001
3.54443
5.36221
5.41092
5.43149
5.46045
5.48609
5.51171
5.5364
5.55978
5.58004
5.59654
5.61035
5.62306
5.63599
5.65038
5.66779
5.68772
5.7085
5.729
5.74806
5.76396
5.77649
5.78502
5.79301
5.80338
5.81807
5.83541
5.85257
5.86776
5.8796
5.88831
5.8962
5.9055
5.91628
5.92717
5.93674
5.94419
5.94979
5.95454
5.95923
5.96382
5.96794
5.97118
5.97351
5.97518
5.97655
5.97817
1.40001
1.40001
1.40001
1.40001
1.40001
1.40001
1.40001
1.40001
1.40001
1.40001
1.40001
1.40001
1.40001
1.40001
1.40001
1.40001
1.40001
1.40001
1.40001
1.40001
1.40001
1.40001
1.40001
1.40001
1.40001
1.40001
1.40001
1.40001
1.40001
1.40001
1.40001
1.40001
1.40001
1.40001
1.40001
1.40001
1.40001
1.40001
1.40001
1.40001
1.40001
1.40001
1.40001
1.40001
1.40001
1.40001
1.40001
1.40001
1.40001
3.41241
5.34488
5.40446
5.42623
5.45615
5.48244
5.50874
5.53393
5.55788
5.57872
5.59516
5.60814
5.61956
5.63125
5.64476
5.66192
5.6823
5.70375
5.72486
5.74457
5.76084
5.7734
5.78156
5.78894
5.79881
5.81319
5.83043
5.84753
5.86276
5.87463
5.88328
5.89101
5.90014
5.91083
5.92171
5.93132
5.93885
5.9445
5.94925
5.95387
5.95832
5.96217
5.96505
5.96701
5.96836
5.96949
5.97097
1.40001
1.40001
1.40001
1.40001
1.40001
1.40001
1.40001
1.40001
1.40001
1.40001
1.40001
1.40001
1.40001
1.40001
1.40001
1.40001
1.40001
1.40001
1.40001
1.40001
1.40001
1.40001
1.40001
1.40001
1.40001
1.40001
1.40001
1.40001
1.40001
1.40001
1.40001
1.40001
1.40001
1.40001
1.40001
1.40001
1.40001
1.40001
1.40001
1.40001
1.40001
1.40001
1.40001
1.40001
1.40001
1.40001
1.40001
1.40001
1.40001
3.26336
5.3223
5.39902
5.42101
5.45117
5.47786
5.50465
5.53032
5.55491
5.57673
5.59379
5.60643
5.61675
5.62705
5.63935
5.65582
5.67642
5.69842
5.72003
5.74036
5.75709
5.76979
5.77765
5.78431
5.79352
5.8074
5.82444
5.84145
5.85675
5.86876
5.87743
5.88499
5.89384
5.90432
5.9151
5.92475
5.93242
5.93819
5.94298
5.94756
5.95188
5.95555
5.95815
5.9598
5.9609
5.96182
5.96317
1.40001
1.40001
1.40001
1.40001
1.40001
1.40001
1.40001
1.40001
1.40001
1.40001
1.40001
1.40001
1.40001
1.40001
1.40001
1.40001
1.40001
1.40001
1.40001
1.40001
1.40001
1.40001
1.40001
1.40001
1.40001
1.40001
1.40001
1.40001
1.40001
1.40001
1.40001
1.40001
1.40001
1.40001
1.40001
1.40001
1.40001
1.40001
1.40001
1.40001
1.40001
1.40001
1.40001
1.40001
1.40001
1.40001
1.40001
1.40001
1.40001
3.09757
5.29267
5.39696
5.41697
5.44598
5.47249
5.49944
5.52546
5.55062
5.57363
5.59203
5.60525
5.61509
5.62414
5.63488
5.65
5.67029
5.69255
5.71437
5.73515
5.75246
5.76547
5.77322
5.77916
5.78759
5.80075
5.81746
5.83433
5.84972
5.86194
5.87075
5.8782
5.88676
5.89696
5.9076
5.91728
5.92511
5.93105
5.9359
5.94042
5.9446
5.94804
5.95036
5.95168
5.95249
5.95318
5.95436
1.40001
1.40001
1.40001
1.40001
1.40001
1.40001
1.40001
1.40001
1.40001
1.40001
1.40001
1.40001
1.40001
1.40001
1.40001
1.40001
1.40001
1.40001
1.40001
1.40001
1.40001
1.40001
1.40001
1.40001
1.40001
1.40001
1.40001
1.40001
1.40001
1.40001
1.40001
1.40001
1.40001
1.40001
1.40001
1.40001
1.40001
1.40001
1.40001
1.40001
1.40001
1.40001
1.40001
1.40001
1.40001
1.40001
1.40001
1.40001
1.40001
2.91578
5.25136
5.39982
5.41607
5.44242
5.46752
5.49392
5.51995
5.54545
5.56959
5.58982
5.60456
5.61487
5.62334
5.63257
5.6457
5.66486
5.6869
5.70859
5.72943
5.74723
5.76063
5.76855
5.77389
5.78148
5.79369
5.80985
5.82647
5.84181
5.85418
5.86311
5.87045
5.87867
5.88851
5.89892
5.90857
5.91652
5.92265
5.9276
5.93212
5.93622
5.93951
5.9416
5.94264
5.9432
5.94368
5.94471
1.40001
1.40001
1.40001
1.40001
1.40001
1.40001
1.40001
1.40001
1.40001
1.40001
1.40001
1.40001
1.40001
1.40001
1.40001
1.40001
1.40001
1.40001
1.40001
1.40001
1.40001
1.40001
1.40001
1.40001
1.40001
1.40001
1.40001
1.40001
1.40001
1.40001
1.40001
1.40001
1.40001
1.40001
1.40001
1.40001
1.40001
1.40001
1.40001
1.40001
1.40001
1.40001
1.40001
1.40001
1.40001
1.40001
1.40001
1.40001
1.40001
2.71992
5.19292
5.40614
5.41771
5.4405
5.46327
5.48824
5.5137
5.53919
5.56404
5.58604
5.60284
5.61444
5.62301
5.63112
5.642
5.6592
5.68046
5.70187
5.72264
5.74088
5.7548
5.76328
5.76834
5.7752
5.78631
5.80176
5.81807
5.8333
5.84579
5.85484
5.86205
5.86991
5.87934
5.88946
5.89897
5.90698
5.91326
5.91833
5.92289
5.92692
5.93005
5.9319
5.93262
5.93285
5.93309
5.9339
1.40001
1.40001
1.40001
1.40001
1.40001
1.40001
1.40001
1.40001
1.40001
1.40001
1.40001
1.40001
1.40001
1.40001
1.40001
1.40001
1.40001
1.40001
1.40001
1.40001
1.40001
1.40001
1.40001
1.40001
1.40001
1.40001
1.40001
1.40001
1.40001
1.40001
1.40001
1.40001
1.40001
1.40001
1.40001
1.40001
1.40001
1.40001
1.40001
1.40001
1.40001
1.40001
1.40001
1.40001
1.40001
1.40001
1.40001
1.40001
1.40001
2.51159
5.11132
5.41432
5.42136
5.44012
5.46
5.48277
5.50698
5.53207
5.55716
5.58056
5.59961
5.61325
5.6228
5.63047
5.63934
5.65372
5.67328
5.69416
5.71473
5.73327
5.74789
5.7574
5.76264
5.76889
5.77879
5.79329
5.8091
5.82404
5.83655
5.8457
5.8528
5.86031
5.86933
5.87912
5.88845
5.89641
5.90276
5.90791
5.91249
5.91645
5.91942
5.92105
5.92146
5.92141
5.92141
5.92197
1.40001
1.40001
1.40001
1.40001
1.40001
1.40001
1.40001
1.40001
1.40001
1.40001
1.40001
1.40001
1.40001
1.40001
1.40001
1.40001
1.40001
1.40001
1.40001
1.40001
1.40001
1.40001
1.40001
1.40001
1.40001
1.40001
1.40001
1.40001
1.40001
1.40001
1.40001
1.40001
1.40001
1.40001
1.40001
1.40001
1.40001
1.40001
1.40001
1.40001
1.40001
1.40001
1.40001
1.40001
1.40001
1.40001
1.40001
1.40001
1.40001
2.29684
5.00361
5.42187
5.42787
5.44358
5.46069
5.48091
5.50302
5.52688
5.5513
5.5751
5.59581
5.61165
5.62292
5.63095
5.63839
5.64957
5.6665
5.68628
5.70635
5.72495
5.74018
5.75089
5.75657
5.76229
5.77086
5.78411
5.79918
5.81375
5.82623
5.83554
5.84266
5.8499
5.85853
5.868
5.87708
5.88492
5.89124
5.8964
5.90096
5.90484
5.90762
5.90902
5.90913
5.90874
5.90845
5.90873
1.40001
1.40001
1.40001
1.40001
1.40001
1.40001
1.40001
1.40001
1.40001
1.40001
1.40001
1.40001
1.40001
1.40001
1.40001
1.40001
1.40001
1.40001
1.40001
1.40001
1.40001
1.40001
1.40001
1.40001
1.40001
1.40001
1.40001
1.40001
1.40001
1.40001
1.40001
1.40001
1.40001
1.40001
1.40001
1.40001
1.40001
1.40001
1.40001
1.40001
1.40001
1.40001
1.40001
1.40001
1.40001
1.40001
1.40001
1.40001
1.40001
2.08182
4.87069
5.42927
5.4321
5.44744
5.46273
5.48101
5.50096
5.52301
5.54613
5.56946
5.59114
5.60904
5.62251
5.63171
5.63855
5.64706
5.66076
5.67848
5.6976
5.71586
5.73143
5.74332
5.74983
5.7553
5.76264
5.77442
5.78858
5.8027
5.81505
5.82451
5.83166
5.83859
5.84676
5.85581
5.86459
5.87224
5.87848
5.88361
5.8881
5.89186
5.89449
5.89572
5.89559
5.89487
5.89424
5.89418
1.40001
1.40001
1.40001
1.40001
1.40001
1.40001
1.40001
1.40001
1.40001
1.40001
1.40001
1.40001
1.40001
1.40001
1.40001
1.40001
1.40001
1.40001
1.40001
1.40001
1.40001
1.40001
1.40001
1.40001
1.40001
1.40001
1.40001
1.40001
1.40001
1.40001
1.40001
1.40001
1.40001
1.40001
1.40001
1.40001
1.40001
1.40001
1.40001
1.40001
1.40001
1.40001
1.40001
1.40001
1.40001
1.40001
1.40001
1.40001
1.40001
1.86882
4.71672
5.44184
5.43922
5.4543
5.46715
5.48275
5.50027
5.51982
5.54101
5.56329
5.58527
5.60474
5.6204
5.63142
5.63874
5.64557
5.65616
5.67131
5.68894
5.70662
5.72224
5.73512
5.74275
5.74818
5.7544
5.76447
5.77737
5.79079
5.80282
5.81235
5.81954
5.82619
5.83387
5.84249
5.851
5.85849
5.86464
5.86965
5.87398
5.87756
5.87999
5.88102
5.88063
5.87954
5.87849
5.87805
1.40001
1.40001
1.40001
1.40001
1.40001
1.40001
1.40001
1.40001
1.40001
1.40001
1.40001
1.40001
1.40001
1.40001
1.40001
1.40001
1.40001
1.40001
1.40001
1.40001
1.40001
1.40001
1.40001
1.40001
1.40001
1.40001
1.40001
1.40001
1.40001
1.40001
1.40001
1.40001
1.40001
1.40001
1.40001
1.40001
1.40001
1.40001
1.40001
1.40001
1.40001
1.40001
1.40001
1.40001
1.40001
1.40001
1.40001
1.40001
1.40001
1.67428
4.53848
5.45245
5.4372
5.45322
5.46583
5.48092
5.49795
5.51658
5.5363
5.55705
5.57826
5.59834
5.6158
5.62901
5.63767
5.64404
5.65223
5.66471
5.6804
5.69734
5.71279
5.72625
5.73516
5.74079
5.7461
5.75432
5.76565
5.77812
5.78966
5.79916
5.80639
5.81277
5.8199
5.82801
5.83617
5.84343
5.84938
5.85416
5.85822
5.86157
5.86383
5.86473
5.86414
5.86273
5.86127
5.86052
1.40001
1.40001
1.40001
1.40001
1.40001
1.40001
1.40001
1.40001
1.40001
1.40001
1.40001
1.40001
1.40001
1.40001
1.40001
1.40001
1.40001
1.40001
1.40001
1.40001
1.40001
1.40001
1.40001
1.40001
1.40001
1.40001
1.40001
1.40001
1.40001
1.40001
1.40001
1.40001
1.40001
1.40001
1.40001
1.40001
1.40001
1.40001
1.40001
1.40001
1.40001
1.40001
1.40001
1.40001
1.40001
1.40001
1.40001
1.40001
1.40001
1.50446
4.31041
5.43597
5.4274
5.44277
5.45769
5.4742
5.49176
5.50978
5.52845
5.54836
5.56912
5.58948
5.60807
5.62336
5.63417
5.64148
5.64851
5.65871
5.67225
5.68807
5.70316
5.71667
5.72676
5.73285
5.7376
5.74404
5.75362
5.76489
5.77577
5.78504
5.79222
5.79828
5.80481
5.81231
5.82004
5.82701
5.83269
5.83718
5.84092
5.844
5.84605
5.84677
5.84591
5.84411
5.84218
5.84112
1.40001
1.40001
1.40001
1.40001
1.40001
1.40001
1.40001
1.40001
1.40001
1.40001
1.40001
1.40001
1.40001
1.40001
1.40001
1.40001
1.40001
1.40001
1.40001
1.40001
1.40001
1.40001
1.40001
1.40001
1.40001
1.40001
1.40001
1.40001
1.40001
1.40001
1.40001
1.40001
1.40001
1.40001
1.40001
1.40001
1.40001
1.40001
1.40001
1.40001
1.40001
1.40001
1.40001
1.40001
1.40001
1.40001
1.40001
1.40001
1.40001
1.40568
4.02122
5.37816
5.39924
5.41944
5.43912
5.45892
5.47932
5.49935
5.51906
5.53853
5.55807
5.5777
5.59662
5.61356
5.6268
5.63611
5.64353
5.65239
5.66404
5.67842
5.69301
5.70624
5.71723
5.72403
5.7286
5.73355
5.74131
5.75117
5.76122
5.77003
5.777
5.7827
5.78856
5.79535
5.80251
5.80903
5.81431
5.81838
5.8217
5.82444
5.82625
5.82677
5.82569
5.82356
5.82125
5.82002
1.40001
1.40001
1.40001
1.40001
1.40001
1.40001
1.40001
1.40001
1.40001
1.40001
1.40001
1.40001
1.40001
1.40001
1.40001
1.40001
1.40001
1.40001
1.40001
1.40001
1.40001
1.40001
1.40001
1.40001
1.40001
1.40001
1.40001
1.40001
1.40001
1.40001
1.40001
1.40001
1.40001
1.40001
1.40001
1.40001
1.40001
1.40001
1.40001
1.40001
1.40001
1.40001
1.40001
1.40001
1.40001
1.40001
1.40001
1.40001
1.40001
1.40004
3.70692
5.31271
5.37008
5.39821
5.42297
5.44406
5.46459
5.48466
5.5046
5.52432
5.54379
5.56298
5.58171
5.59944
5.61487
5.62689
5.63602
5.64482
5.65535
5.66826
5.68218
5.695
5.70642
5.714
5.71873
5.72265
5.72867
5.73699
5.74599
5.75413
5.76072
5.76599
5.77117
5.77714
5.78358
5.78949
5.79423
5.79783
5.80069
5.803
5.80441
5.80457
5.80312
5.80062
5.7979
5.79653
1.40001
1.40001
1.40001
1.40001
1.40001
1.40001
1.40001
1.40001
1.40001
1.40001
1.40001
1.40001
1.40001
1.40001
1.40001
1.40001
1.40001
1.40001
1.40001
1.40001
1.40001
1.40001
1.40001
1.40001
1.40001
1.40001
1.40001
1.40001
1.40001
1.40001
1.40001
1.40001
1.40001
1.40001
1.40001
1.40001
1.40001
1.40001
1.40001
1.40001
1.40001
1.40001
1.40001
1.40001
1.40001
1.40001
1.40001
1.40001
1.40001
1.4
3.35146
5.24729
5.34824
5.37694
5.40413
5.42775
5.4504
5.472
5.49242
5.51175
5.53013
5.54814
5.56589
5.58334
5.59981
5.6137
5.62508
5.63492
5.64518
5.6569
5.67009
5.68257
5.69405
5.70243
5.70766
5.71111
5.71562
5.72229
5.73003
5.73729
5.74329
5.74805
5.7525
5.75755
5.76307
5.76814
5.77216
5.77512
5.77736
5.77901
5.77993
5.77965
5.77783
5.77509
5.77218
5.77088
1.40001
1.40001
1.40001
1.40001
1.40001
1.40001
1.40001
1.40001
1.40001
1.40001
1.40001
1.40001
1.40001
1.40001
1.40001
1.40001
1.40001
1.40001
1.40001
1.40001
1.40001
1.40001
1.40001
1.40001
1.40001
1.40001
1.40001
1.40001
1.40001
1.40001
1.40001
1.40001
1.40001
1.40001
1.40001
1.40001
1.40001
1.40001
1.40001
1.40001
1.40001
1.40001
1.40001
1.40001
1.40001
1.40001
1.40001
1.40001
1.40001
1.40001
2.97755
5.18301
5.33858
5.37009
5.39493
5.41628
5.43741
5.45818
5.47836
5.4978
5.51615
5.5336
5.55041
5.56701
5.58323
5.59823
5.61061
5.62174
5.63265
5.64383
5.65633
5.66854
5.67992
5.68902
5.69498
5.69847
5.70186
5.70692
5.71325
5.71947
5.72473
5.72886
5.73253
5.73654
5.74094
5.745
5.74816
5.75036
5.75184
5.75272
5.75291
5.75187
5.74946
5.74628
5.74314
5.74186
1.40001
1.40001
1.40001
1.40001
1.40001
1.40001
1.40001
1.40001
1.40001
1.40001
1.40001
1.40001
1.40001
1.40001
1.40001
1.40001
1.40001
1.40001
1.40001
1.40001
1.40001
1.40001
1.40001
1.40001
1.40001
1.40001
1.40001
1.40001
1.40001
1.40001
1.40001
1.40001
1.40001
1.40001
1.40001
1.40001
1.40001
1.40001
1.40001
1.40001
1.40001
1.40001
1.40001
1.40001
1.40001
1.40001
1.40001
1.40001
1.40001
1.40001
2.59769
5.07503
5.36201
5.37283
5.39361
5.41449
5.43444
5.45243
5.46977
5.48653
5.50253
5.51828
5.53406
5.54993
5.56586
5.58109
5.59492
5.6063
5.6175
5.62845
5.64049
5.65262
5.6638
5.6735
5.6803
5.68427
5.68707
5.69075
5.6956
5.70063
5.70496
5.7083
5.71101
5.71384
5.71694
5.71979
5.72183
5.72301
5.72339
5.72313
5.72225
5.72032
5.71733
5.7139
5.71081
5.70977
1.40001
1.40001
1.40001
1.40001
1.40001
1.40001
1.40001
1.40001
1.40001
1.40001
1.40001
1.40001
1.40001
1.40001
1.40001
1.40001
1.40001
1.40001
1.40001
1.40001
1.40001
1.40001
1.40001
1.40001
1.40001
1.40001
1.40001
1.40001
1.40001
1.40001
1.40001
1.40001
1.40001
1.40001
1.40001
1.40001
1.40001
1.40001
1.40001
1.40001
1.40001
1.40001
1.40001
1.40001
1.40001
1.40001
1.40001
1.40001
1.40001
1.40001
2.21608
4.9067
5.4003
5.39831
5.41252
5.42293
5.43495
5.44901
5.46472
5.48005
5.49442
5.50767
5.52063
5.53403
5.54827
5.56298
5.5769
5.58954
5.60079
5.61148
5.62251
5.63427
5.64547
5.65557
5.66319
5.66796
5.67074
5.67343
5.67692
5.68069
5.68394
5.68631
5.6879
5.68942
5.69104
5.69247
5.69321
5.69315
5.6922
5.69065
5.68836
5.68516
5.68112
5.67691
5.67348
5.67228
1.40001
1.40001
1.40001
1.40001
1.40001
1.40001
1.40001
1.40001
1.40001
1.40001
1.40001
1.40001
1.40001
1.40001
1.40001
1.40001
1.40001
1.40001
1.40001
1.40001
1.40001
1.40001
1.40001
1.40001
1.40001
1.40001
1.40001
1.40001
1.40001
1.40001
1.40001
1.40001
1.40001
1.40001
1.40001
1.40001
1.40001
1.40001
1.40001
1.40001
1.40001
1.40001
1.40001
1.40001
1.40001
1.40001
1.40001
1.40001
1.40001
1.40001
1.835
4.72903
5.45338
5.41396
5.42678
5.43357
5.44397
5.45515
5.46645
5.47752
5.48856
5.49943
5.51036
5.52164
5.53368
5.54649
5.55929
5.57134
5.58246
5.59276
5.60295
5.61428
5.62497
5.6352
5.64351
5.6492
5.65242
5.65458
5.65694
5.65948
5.66155
5.66269
5.66297
5.66297
5.6629
5.66273
5.66192
5.66011
5.6573
5.65364
5.64934
5.64452
5.63938
5.63462
5.6311
5.63012
1.40001
1.40001
1.40001
1.40001
1.40001
1.40001
1.40001
1.40001
1.40001
1.40001
1.40001
1.40001
1.40001
1.40001
1.40001
1.40001
1.40001
1.40001
1.40001
1.40001
1.40001
1.40001
1.40001
1.40001
1.40001
1.40001
1.40001
1.40001
1.40001
1.40001
1.40001
1.40001
1.40001
1.40001
1.40001
1.40001
1.40001
1.40001
1.40001
1.40001
1.40001
1.40001
1.40001
1.40001
1.40001
1.40001
1.40001
1.40001
1.40001
1.40001
1.49232
4.39018
5.47196
5.42896
5.4311
5.43666
5.44673
5.45782
5.46927
5.47939
5.48831
5.4964
5.50405
5.51221
5.52167
5.53254
5.54379
5.55462
5.56467
5.57383
5.58267
5.59206
5.60308
5.61265
5.62123
5.6277
5.63161
5.63373
5.63532
5.63671
5.63753
5.63739
5.63628
5.6346
5.63267
5.63055
5.62761
5.62368
5.61872
5.61284
5.60626
5.59931
5.59217
5.58545
5.58055
5.57854
1.40001
1.40001
1.40001
1.40001
1.40001
1.40001
1.40001
1.40001
1.40001
1.40001
1.40001
1.40001
1.40001
1.40001
1.40001
1.40001
1.40001
1.40001
1.40001
1.40001
1.40001
1.40001
1.40001
1.40001
1.40001
1.40001
1.40001
1.40001
1.40001
1.40001
1.40001
1.40001
1.40001
1.40001
1.40001
1.40001
1.40001
1.40001
1.40001
1.40001
1.40001
1.40001
1.40001
1.40001
1.40001
1.40001
1.40001
1.40001
1.40001
1.40001
1.40216
3.9535
5.3572
5.36329
5.39776
5.42097
5.43978
5.45402
5.46648
5.47871
5.48876
5.49603
5.50163
5.50712
5.51359
5.52158
5.53043
5.53942
5.54796
5.55573
5.56308
5.57054
5.57924
5.58871
5.59693
5.60364
5.60818
5.61055
5.61162
5.61206
5.61171
5.61012
5.60751
5.60393
5.59995
5.59545
5.58991
5.5834
5.57561
5.56652
5.55631
5.54561
5.53542
5.52696
5.52112
5.51924
1.40001
1.40001
1.40001
1.40001
1.40001
1.40001
1.40001
1.40001
1.40001
1.40001
1.40001
1.40001
1.40001
1.40001
1.40001
1.40001
1.40001
1.40001
1.40001
1.40001
1.40001
1.40001
1.40001
1.40001
1.40001
1.40001
1.40001
1.40001
1.40001
1.40001
1.40001
1.40001
1.40001
1.40001
1.40001
1.40001
1.40001
1.40001
1.40001
1.40001
1.40001
1.40001
1.40001
1.40001
1.40001
1.40001
1.40001
1.40001
1.40001
1.40001
1.4
3.44701
5.21918
5.32807
5.37238
5.40105
5.42373
5.44279
5.45939
5.47335
5.48408
5.49305
5.49938
5.50404
5.50852
5.514
5.52026
5.52677
5.53303
5.53878
5.54427
5.54981
5.55635
5.56397
5.57142
5.57776
5.58244
5.58499
5.58576
5.5854
5.58377
5.58084
5.57659
5.57109
5.56473
5.55728
5.54872
5.53891
5.52751
5.51457
5.5005
5.486
5.4717
5.45812
5.44715
5.44088
1.40001
1.40001
1.40001
1.40001
1.40001
1.40001
1.40001
1.40001
1.40001
1.40001
1.40001
1.40001
1.40001
1.40001
1.40001
1.40001
1.40001
1.40001
1.40001
1.40001
1.40001
1.40001
1.40001
1.40001
1.40001
1.40001
1.40001
1.40001
1.40001
1.40001
1.40001
1.40001
1.40001
1.40001
1.40001
1.40001
1.40001
1.40001
1.40001
1.40001
1.40001
1.40001
1.40001
1.40001
1.40001
1.40001
1.40001
1.40001
1.40001
1.40001
1.4
2.96579
5.08826
5.29948
5.34465
5.37815
5.4039
5.42452
5.44166
5.45798
5.47303
5.48464
5.49292
5.49914
5.50375
5.50802
5.51232
5.51655
5.52045
5.52377
5.52685
5.53003
5.53406
5.53964
5.54559
5.5508
5.55491
5.5572
5.5577
5.55645
5.55355
5.5492
5.54323
5.53567
5.52657
5.51589
5.5037
5.48989
5.47413
5.4562
5.43597
5.41365
5.39054
5.36927
5.35301
5.3472
1.40001
1.40001
1.40001
1.40001
1.40001
1.40001
1.40001
1.40001
1.40001
1.40001
1.40001
1.40001
1.40001
1.40001
1.40001
1.40001
1.40001
1.40001
1.40001
1.40001
1.40001
1.40001
1.40001
1.40001
1.40001
1.40001
1.40001
1.40001
1.40001
1.40001
1.40001
1.40001
1.40001
1.40001
1.40001
1.40001
1.40001
1.40001
1.40001
1.40001
1.40001
1.40001
1.40001
1.40001
1.40001
1.40001
1.40001
1.40001
1.40001
1.40001
1.4
2.48388
4.94409
5.30314
5.33945
5.37409
5.39321
5.40928
5.42485
5.44073
5.45581
5.4693
5.48093
5.48947
5.49571
5.5006
5.50452
5.50756
5.50965
5.51079
5.51138
5.51197
5.51311
5.51597
5.52002
5.52354
5.52625
5.52759
5.52761
5.52544
5.52111
5.51522
5.50744
5.49763
5.48561
5.47138
5.45498
5.43632
5.41488
5.39018
5.36204
5.33122
5.29884
5.2666
5.23378
5.20727
1.40001
1.40001
1.40001
1.40001
1.40001
1.40001
1.40001
1.40001
1.40001
1.40001
1.40001
1.40001
1.40001
1.40001
1.40001
1.40001
1.40001
1.40001
1.40001
1.40001
1.40001
1.40001
1.40001
1.40001
1.40001
1.40001
1.40001
1.40001
1.40001
1.40001
1.40001
1.40001
1.40001
1.40001
1.40001
1.40001
1.40001
1.40001
1.40001
1.40001
1.40001
1.40001
1.40001
1.40001
1.40001
1.40001
1.40001
1.40001
1.40001
1.40001
1.40001
1.97069
4.76827
5.40184
5.36909
5.37334
5.37994
5.3924
5.40813
5.42394
5.43884
5.45233
5.46397
5.47404
5.48251
5.48908
5.49408
5.49748
5.49899
5.49893
5.49754
5.49572
5.49397
5.49364
5.49486
5.49631
5.49713
5.49703
5.49565
5.49223
5.48655
5.47892
5.46912
5.45687
5.44175
5.42362
5.4024
5.37798
5.34977
5.31711
5.27902
5.23413
5.17952
5.11548
5.05361
5.01034
1.40001
1.40001
1.40001
1.40001
1.40001
1.40001
1.40001
1.40001
1.40001
1.40001
1.40001
1.40001
1.40001
1.40001
1.40001
1.40001
1.40001
1.40001
1.40001
1.40001
1.40001
1.40001
1.40001
1.40001
1.40001
1.40001
1.40001
1.40001
1.40001
1.40001
1.40001
1.40001
1.40001
1.40001
1.40001
1.40001
1.40001
1.40001
1.40001
1.40001
1.40001
1.40001
1.40001
1.40001
1.40001
1.40001
1.40001
1.40001
1.40001
1.40001
1.40001
1.50062
4.42702
5.46692
5.39864
5.37622
5.37792
5.38668
5.39761
5.40969
5.42262
5.43531
5.4468
5.45682
5.46544
5.47307
5.47948
5.48416
5.48644
5.4865
5.48423
5.48075
5.47653
5.47307
5.47101
5.46978
5.46822
5.46587
5.46244
5.45732
5.45009
5.44056
5.42854
5.41362
5.3952
5.37287
5.34636
5.31544
5.27926
5.23642
5.18417
5.11939
5.04003
4.94477
4.83842
4.76152
1.40001
1.40001
1.40001
1.40001
1.40001
1.40001
1.40001
1.40001
1.40001
1.40001
1.40001
1.40001
1.40001
1.40001
1.40001
1.40001
1.40001
1.40001
1.40001
1.40001
1.40001
1.40001
1.40001
1.40001
1.40001
1.40001
1.40001
1.40001
1.40001
1.40001
1.40001
1.40001
1.40001
1.40001
1.40001
1.40001
1.40001
1.40001
1.40001
1.40001
1.40001
1.40001
1.40001
1.40001
1.40001
1.40001
1.40001
1.40001
1.40001
1.40001
1.40001
1.40145
3.88373
5.32836
5.33466
5.36339
5.37486
5.3844
5.39365
5.402
5.41131
5.42087
5.43013
5.43904
5.44726
5.45459
5.46118
5.46686
5.47054
5.47156
5.46969
5.46567
5.46011
5.45409
5.44868
5.44423
5.43986
5.43462
5.42853
5.42108
5.4118
5.40022
5.38579
5.36799
5.34608
5.31936
5.28723
5.24916
5.20381
5.14911
5.08117
4.99527
4.88014
4.70716
4.35963
3.45387
1.40001
1.40001
1.40001
1.40001
1.40001
1.40001
1.40001
1.40001
1.40001
1.40001
1.40001
1.40001
1.40001
1.40001
1.40001
1.40001
1.40001
1.40001
1.40001
1.40001
1.40001
1.40001
1.40001
1.40001
1.40001
1.40001
1.40001
1.40001
1.40001
1.40001
1.40001
1.40001
1.40001
1.40001
1.40001
1.40001
1.40001
1.40001
1.40001
1.40001
1.40001
1.40001
1.40001
1.40001
1.40001
1.40001
1.40001
1.40001
1.40001
1.40001
1.40001
1.39999
3.25502
5.14672
5.30125
5.34817
5.36661
5.37852
5.38874
5.39655
5.40366
5.41008
5.41612
5.42232
5.42875
5.43508
5.4411
5.44662
5.45107
5.45324
5.45273
5.44916
5.44347
5.43599
5.42788
5.42009
5.41243
5.40414
5.39477
5.38437
5.37235
5.35828
5.34122
5.3204
5.29487
5.26366
5.22574
5.18013
5.12498
5.05729
4.97151
4.85746
4.69737
4.44005
4.03071
3.01808
1.40001
1.40001
1.40001
1.40001
1.40001
1.40001
1.40001
1.40001
1.40001
1.40001
1.40001
1.40001
1.40001
1.40001
1.40001
1.40001
1.40001
1.40001
1.40001
1.40001
1.40001
1.40001
1.40001
1.40001
1.40001
1.40001
1.40001
1.40001
1.40001
1.40001
1.40001
1.40001
1.40001
1.40001
1.40001
1.40001
1.40001
1.40001
1.40001
1.40001
1.40001
1.40001
1.40001
1.40001
1.40001
1.40001
1.40001
1.40001
1.40001
1.40001
1.40001
1.4
2.67356
4.97913
5.29149
5.32896
5.35449
5.37132
5.37923
5.38721
5.39475
5.40051
5.40465
5.40813
5.41186
5.41601
5.4205
5.42499
5.42898
5.43165
5.43236
5.4298
5.42487
5.41718
5.40757
5.39699
5.38612
5.37474
5.36177
5.34779
5.33236
5.3151
5.29506
5.2711
5.24191
5.20626
5.16262
5.10947
5.04435
4.96365
4.85993
4.72304
4.52562
4.25637
3.71692
2.88178
1.40001
1.40001
1.40001
1.40001
1.40001
1.40001
1.40001
1.40001
1.40001
1.40001
1.40001
1.40001
1.40001
1.40001
1.40001
1.40001
1.40001
1.40001
1.40001
1.40001
1.40001
1.40001
1.40001
1.40001
1.40001
1.40001
1.40001
1.40001
1.40001
1.40001
1.40001
1.40001
1.40001
1.40001
1.40001
1.40001
1.40001
1.40001
1.40001
1.40001
1.40001
1.40001
1.40001
1.40001
1.40001
1.40001
1.40001
1.40001
1.40001
1.40001
1.40001
1.4
2.07638
4.78331
5.3485
5.33475
5.34456
5.35654
5.36701
5.37691
5.38519
5.39146
5.39533
5.39718
5.39829
5.3995
5.40123
5.40366
5.40637
5.4084
5.4092
5.40767
5.40365
5.39653
5.38664
5.37444
5.36086
5.34629
5.33004
5.31216
5.29279
5.27169
5.24805
5.22068
5.18782
5.14788
5.09878
5.03854
4.9639
4.87153
4.75219
4.59781
4.37863
4.06934
3.53994
2.85546
1.40001
1.40001
1.40001
1.40001
1.40001
1.40001
1.40001
1.40001
1.40001
1.40001
1.40001
1.40001
1.40001
1.40001
1.40001
1.40001
1.40001
1.40001
1.40001
1.40001
1.40001
1.40001
1.40001
1.40001
1.40001
1.40001
1.40001
1.40001
1.40001
1.40001
1.40001
1.40001
1.40001
1.40001
1.40001
1.40001
1.40001
1.40001
1.40001
1.40001
1.40001
1.40001
1.40001
1.40001
1.40001
1.40001
1.40001
1.40001
1.40001
1.40001
1.40001
1.4
1.52285
4.43807
5.41757
5.35991
5.33898
5.34315
5.35406
5.36354
5.37224
5.37937
5.38415
5.38614
5.38627
5.38536
5.38425
5.38381
5.38412
5.38465
5.38443
5.38304
5.37945
5.37292
5.36353
5.351
5.33581
5.31865
5.2995
5.27793
5.25441
5.22897
5.20106
5.16972
5.13302
5.08907
5.03493
4.96856
4.88569
4.78335
4.65241
4.48275
4.25538
3.92721
3.4542
2.91105
1.40001
1.40001
1.40001
1.40001
1.40001
1.40001
1.40001
1.40001
1.40001
1.40001
1.40001
1.40001
1.40001
1.40001
1.40001
1.40001
1.40001
1.40001
1.40001
1.40001
1.40001
1.40001
1.40001
1.40001
1.40001
1.40001
1.40001
1.40001
1.40001
1.40001
1.40001
1.40001
1.40001
1.40001
1.40001
1.40001
1.40001
1.40001
1.40001
1.40001
1.40001
1.40001
1.40001
1.40001
1.40001
1.40001
1.40001
1.40001
1.40001
1.40001
1.40001
1.40001
1.40201
3.82087
5.25981
5.29289
5.3194
5.32928
5.34054
5.34916
5.35763
5.36505
5.37068
5.37371
5.37425
5.37266
5.36969
5.36661
5.36394
5.36209
5.36007
5.35744
5.35343
5.3471
5.33812
5.32583
5.31004
5.29127
5.26961
5.245
5.2176
5.18775
5.15522
5.11941
5.07844
5.03056
4.97189
4.90037
4.81102
4.70069
4.56194
4.38376
4.15176
3.83518
3.42975
2.98003
1.40001
1.40001
1.40001
1.40001
1.40001
1.40001
1.40001
1.40001
1.40001
1.40001
1.40001
1.40001
1.40001
1.40001
1.40001
1.40001
1.40001
1.40001
1.40001
1.40001
1.40001
1.40001
1.40001
1.40001
1.40001
1.40001
1.40001
1.40001
1.40001
1.40001
1.40001
1.40001
1.40001
1.40001
1.40001
1.40001
1.40001
1.40001
1.40001
1.40001
1.40001
1.40001
1.40001
1.40001