/*--------------------------------*- C++ -*----------------------------------*\
  =========                 |
  \\      /  F ield         | OpenFOAM: The Open Source CFD Toolbox
   \\    /   O peration     | Website:  https://openfoam.org
    \\  /    A nd           | Version:  7
     \\/     M anipulation  |
\*---------------------------------------------------------------------------*/
FoamFile
{
    version     2.0;
    format      ascii;
    class       volScalarField;
    location    "3.3";
    object      T;
}
// * * * * * * * * * * * * * * * * * * * * * * * * * * * * * * * * * * * * * //

dimensions      [0 0 0 1 0 0 0];

internalField   nonuniform List<scalar> 
64512
(
1
1
1
1
1
1
1
1
1
1
1
1
1
1
1
1
1
1
1
1
1
1
1
1
1
1
1
1
1
1
1
1
1
1
1
1
1
1
1
1
1
1
1
1
1
1
1
1
1
2.25537
2.68697
2.69586
2.70042
2.70415
2.7068
2.70912
2.71169
2.71489
2.71886
2.72349
2.72855
2.73385
2.73914
2.7441
2.74824
2.75115
2.7529
2.75397
2.75504
2.75683
2.75999
2.7645
2.76955
2.77408
2.77729
2.77915
2.78042
2.78199
2.78443
2.78759
2.79062
2.7928
2.79409
2.79498
2.79602
2.79748
2.79924
2.80092
2.80231
2.80355
2.80498
2.80679
2.80892
2.81094
2.81237
2.81311
1
1
1
1
1
1
1
1
1
1
1
1
1
1
1
1
1
1
1
1
1
1
1
1
1
1
1
1
1
1
1
1
1
1
1
1
1
1
1
1
1
1
1
1
1
1
1
1
1
2.25005
2.68662
2.69617
2.70034
2.70407
2.70671
2.70905
2.71164
2.71485
2.7188
2.72342
2.72851
2.73385
2.73916
2.74409
2.74816
2.75102
2.75273
2.7538
2.75486
2.75664
2.75981
2.76434
2.76944
2.77401
2.77725
2.7791
2.78034
2.78188
2.78429
2.78742
2.79043
2.7926
2.79388
2.79479
2.79583
2.7973
2.79906
2.80074
2.80213
2.80337
2.80478
2.80658
2.80868
2.81068
2.81211
2.81284
1
1
1
1
1
1
1
1
1
1
1
1
1
1
1
1
1
1
1
1
1
1
1
1
1
1
1
1
1
1
1
1
1
1
1
1
1
1
1
1
1
1
1
1
1
1
1
1
1
2.23821
2.6868
2.69629
2.70011
2.70382
2.70646
2.70883
2.71144
2.71466
2.71862
2.72327
2.72843
2.73386
2.7392
2.74408
2.74805
2.75079
2.75241
2.75344
2.75451
2.7563
2.7595
2.76408
2.76928
2.77391
2.77716
2.77898
2.78018
2.78168
2.78406
2.78715
2.79013
2.79228
2.79357
2.79448
2.79553
2.797
2.79877
2.80044
2.80183
2.80307
2.80447
2.80625
2.80832
2.81029
2.8117
2.81242
1
1
1
1
1
1
1
1
1
1
1
1
1
1
1
1
1
1
1
1
1
1
1
1
1
1
1
1
1
1
1
1
1
1
1
1
1
1
1
1
1
1
1
1
1
1
1
1
1
2.22049
2.68643
2.69651
2.7
2.70367
2.70622
2.70853
2.7111
2.7143
2.71829
2.72303
2.72833
2.73389
2.73929
2.74409
2.74791
2.75045
2.75192
2.75286
2.75391
2.75572
2.75902
2.76373
2.76908
2.77379
2.77704
2.7788
2.77992
2.78134
2.78365
2.7867
2.78967
2.79182
2.79311
2.79404
2.79511
2.79658
2.79833
2.80001
2.8014
2.80263
2.80401
2.80574
2.80776
2.80969
2.81108
2.81179
1
1
1
1
1
1
1
1
1
1
1
1
1
1
1
1
1
1
1
1
1
1
1
1
1
1
1
1
1
1
1
1
1
1
1
1
1
1
1
1
1
1
1
1
1
1
1
1
1
2.19653
2.68516
2.69682
2.70001
2.70364
2.70599
2.70814
2.71056
2.71369
2.71771
2.7226
2.72812
2.73386
2.73935
2.7441
2.74777
2.75008
2.75131
2.75211
2.7531
2.75494
2.75838
2.7633
2.76884
2.77366
2.77689
2.77854
2.77954
2.78085
2.78306
2.78607
2.78904
2.79122
2.79255
2.79349
2.79457
2.79603
2.79777
2.79944
2.80083
2.80206
2.80341
2.80509
2.80705
2.80893
2.81028
2.81098
1
1
1
1
1
1
1
1
1
1
1
1
1
1
1
1
1
1
1
1
1
1
1
1
1
1
1
1
1
1
1
1
1
1
1
1
1
1
1
1
1
1
1
1
1
1
1
1
1
2.16576
2.68265
2.69744
2.70027
2.70372
2.70575
2.70763
2.7098
2.71278
2.7168
2.72185
2.72766
2.73368
2.73933
2.74409
2.74762
2.74969
2.75065
2.75125
2.75213
2.75399
2.75759
2.76275
2.76853
2.77347
2.77666
2.77818
2.77902
2.78017
2.78226
2.78523
2.78823
2.79048
2.79185
2.79282
2.79389
2.79533
2.79706
2.79872
2.80012
2.80134
2.80268
2.80431
2.80621
2.80802
2.80933
2.81002
1
1
1
1
1
1
1
1
1
1
1
1
1
1
1
1
1
1
1
1
1
1
1
1
1
1
1
1
1
1
1
1
1
1
1
1
1
1
1
1
1
1
1
1
1
1
1
1
1
2.1279
2.67846
2.69824
2.70072
2.70387
2.70552
2.70709
2.70893
2.71165
2.71555
2.72069
2.72676
2.73315
2.73909
2.74396
2.74744
2.74931
2.74999
2.75036
2.7511
2.75292
2.75666
2.76207
2.76811
2.77319
2.77635
2.77771
2.77836
2.77932
2.78128
2.78421
2.78726
2.78959
2.79102
2.79201
2.79307
2.79449
2.79618
2.79784
2.79924
2.80046
2.80178
2.80336
2.80519
2.80694
2.80821
2.80887
1
1
1
1
1
1
1
1
1
1
1
1
1
1
1
1
1
1
1
1
1
1
1
1
1
1
1
1
1
1
1
1
1
1
1
1
1
1
1
1
1
1
1
1
1
1
1
1
1
2.08284
2.672
2.69868
2.70103
2.704
2.70538
2.70669
2.70815
2.71045
2.71404
2.71907
2.72531
2.7321
2.7385
2.74368
2.74724
2.74897
2.74939
2.74952
2.75008
2.75181
2.75563
2.76125
2.76752
2.77276
2.77589
2.7771
2.77755
2.77833
2.78015
2.78304
2.78615
2.78857
2.79007
2.79107
2.79212
2.79349
2.79516
2.7968
2.7982
2.79942
2.80071
2.80225
2.80402
2.8057
2.80691
2.80755
1
1
1
1
1
1
1
1
1
1
1
1
1
1
1
1
1
1
1
1
1
1
1
1
1
1
1
1
1
1
1
1
1
1
1
1
1
1
1
1
1
1
1
1
1
1
1
1
1
2.03023
2.66272
2.69817
2.70092
2.70405
2.70533
2.70647
2.70761
2.70941
2.71248
2.71712
2.7233
2.73041
2.73738
2.74309
2.74692
2.74863
2.74882
2.74876
2.74912
2.75068
2.75445
2.7602
2.76665
2.77207
2.77523
2.77632
2.77659
2.77719
2.77886
2.78169
2.78485
2.78736
2.78892
2.78993
2.79095
2.79228
2.79391
2.79555
2.79696
2.79819
2.79947
2.80099
2.80271
2.80433
2.8055
2.80611
1
1
1
1
1
1
1
1
1
1
1
1
1
1
1
1
1
1
1
1
1
1
1
1
1
1
1
1
1
1
1
1
1
1
1
1
1
1
1
1
1
1
1
1
1
1
1
1
1
1.96941
2.65025
2.69597
2.69992
2.70369
2.70519
2.70633
2.7073
2.70868
2.71111
2.71511
2.72086
2.728
2.73548
2.74191
2.74626
2.74816
2.74826
2.7481
2.7483
2.74959
2.75315
2.75886
2.76542
2.77102
2.77427
2.77532
2.77545
2.7759
2.77742
2.78018
2.78337
2.78597
2.78759
2.78862
2.7896
2.79089
2.7925
2.79412
2.79554
2.79678
2.79805
2.79954
2.80121
2.80278
2.8039
2.80448
1
1
1
1
1
1
1
1
1
1
1
1
1
1
1
1
1
1
1
1
1
1
1
1
1
1
1
1
1
1
1
1
1
1
1
1
1
1
1
1
1
1
1
1
1
1
1
1
1
1.89959
2.6343
2.69155
2.69763
2.70267
2.70484
2.70624
2.70719
2.70828
2.71011
2.7133
2.7183
2.72511
2.73288
2.74006
2.74519
2.74762
2.74786
2.74765
2.74769
2.74864
2.75178
2.75726
2.76381
2.76959
2.77302
2.77413
2.77418
2.77451
2.77586
2.7785
2.78167
2.78434
2.78603
2.78706
2.78801
2.78926
2.79083
2.79246
2.7939
2.79514
2.79642
2.7979
2.79953
2.80105
2.80213
2.80269
1
1
1
1
1
1
1
1
1
1
1
1
1
1
1
1
1
1
1
1
1
1
1
1
1
1
1
1
1
1
1
1
1
1
1
1
1
1
1
1
1
1
1
1
1
1
1
1
1
1.82022
2.61545
2.68498
2.69401
2.70063
2.70396
2.70594
2.70705
2.70796
2.70927
2.71163
2.71569
2.7218
2.72949
2.73725
2.74331
2.74664
2.74735
2.74715
2.74707
2.74769
2.75026
2.75533
2.76173
2.7677
2.77143
2.77275
2.77283
2.77308
2.77425
2.77671
2.77981
2.78252
2.78428
2.78533
2.78625
2.78744
2.78896
2.79059
2.79205
2.79332
2.79459
2.79606
2.79766
2.79912
2.80016
2.80067
1
1
1
1
1
1
1
1
1
1
1
1
1
1
1
1
1
1
1
1
1
1
1
1
1
1
1
1
1
1
1
1
1
1
1
1
1
1
1
1
1
1
1
1
1
1
1
1
1
1.73082
2.59423
2.6778
2.68943
2.69746
2.70191
2.70477
2.70634
2.70735
2.7084
2.71015
2.71326
2.7184
2.72555
2.73352
2.74046
2.74495
2.74649
2.74641
2.74628
2.74664
2.74861
2.75309
2.75923
2.76535
2.76948
2.77117
2.77136
2.77156
2.77253
2.77475
2.77774
2.78047
2.78231
2.78341
2.7843
2.78542
2.78688
2.78849
2.78998
2.79127
2.79254
2.794
2.79556
2.79697
2.79796
2.79843
1
1
1
1
1
1
1
1
1
1
1
1
1
1
1
1
1
1
1
1
1
1
1
1
1
1
1
1
1
1
1
1
1
1
1
1
1
1
1
1
1
1
1
1
1
1
1
1
1
1.62786
2.56777
2.67265
2.68491
2.69345
2.69876
2.70258
2.705
2.70649
2.70759
2.70896
2.71128
2.71532
2.72155
2.72925
2.73675
2.74239
2.74509
2.74543
2.74532
2.74548
2.74686
2.75064
2.75635
2.76251
2.76708
2.76926
2.76969
2.76987
2.77065
2.7726
2.77543
2.77819
2.78013
2.7813
2.78218
2.78323
2.78461
2.78618
2.78767
2.78898
2.79025
2.79171
2.79323
2.79457
2.79552
2.79593
1
1
1
1
1
1
1
1
1
1
1
1
1
1
1
1
1
1
1
1
1
1
1
1
1
1
1
1
1
1
1
1
1
1
1
1
1
1
1
1
1
1
1
1
1
1
1
1
1
1.51117
2.53199
2.67088
2.67998
2.68812
2.69403
2.69892
2.70246
2.70483
2.70635
2.70768
2.70948
2.71253
2.71767
2.72474
2.73238
2.73891
2.74288
2.74403
2.74402
2.74408
2.74496
2.748
2.75313
2.7592
2.76422
2.76701
2.7678
2.76801
2.76863
2.77029
2.77292
2.77565
2.7777
2.77895
2.77983
2.78082
2.78211
2.78362
2.78511
2.78643
2.78771
2.78917
2.79065
2.79194
2.79283
2.79319
1
1
1
1
1
1
1
1
1
1
1
1
1
1
1
1
1
1
1
1
1
1
1
1
1
1
1
1
1
1
1
1
1
1
1
1
1
1
1
1
1
1
1
1
1
1
1
1
1
1.37344
2.48002
2.67169
2.67627
2.68319
2.68887
2.69429
2.69871
2.70202
2.70427
2.70593
2.7076
2.70999
2.71404
2.7202
2.72759
2.7346
2.73969
2.74195
2.74236
2.74246
2.74301
2.74533
2.74977
2.7556
2.76096
2.76438
2.76561
2.76592
2.76641
2.76777
2.77014
2.77282
2.77497
2.77634
2.77726
2.7782
2.77941
2.78084
2.78229
2.78361
2.7849
2.78634
2.78779
2.78902
2.78985
2.79014
1
1
1
1
1
1
1
1
1
1
1
1
1
1
1
1
1
1
1
1
1
1
1
1
1
1
1
1
1
1
1
1
1
1
1
1
1
1
1
1
1
1
1
1
1
1
1
1
1
1.22623
2.41671
2.67407
2.67343
2.67882
2.68426
2.68968
2.69452
2.69854
2.70157
2.70381
2.70567
2.70776
2.71097
2.71598
2.72263
2.72967
2.73551
2.73896
2.74013
2.74049
2.74092
2.74263
2.74637
2.75179
2.75734
2.76132
2.76308
2.76356
2.76397
2.76506
2.76716
2.76973
2.77196
2.77345
2.77442
2.77533
2.77643
2.77776
2.77914
2.78045
2.78175
2.7832
2.78462
2.78582
2.78657
2.78681
1
1
1
1
1
1
1
1
1
1
1
1
1
1
1
1
1
1
1
1
1
1
1
1
1
1
1
1
1
1
1
1
1
1
1
1
1
1
1
1
1
1
1
1
1
1
1
1
1
1.08938
2.35307
2.67562
2.67447
2.67821
2.68254
2.68708
2.69136
2.69527
2.69868
2.7015
2.70381
2.70595
2.70861
2.71254
2.71806
2.72456
2.73066
2.73508
2.73722
2.73808
2.73856
2.73985
2.74294
2.74785
2.75341
2.75784
2.76016
2.7609
2.76129
2.76217
2.76397
2.7664
2.76866
2.77026
2.7713
2.77218
2.77318
2.77439
2.77569
2.77698
2.77829
2.77972
2.7811
2.78225
2.78293
2.78312
1
1
1
1
1
1
1
1
1
1
1
1
1
1
1
1
1
1
1
1
1
1
1
1
1
1
1
1
1
1
1
1
1
1
1
1
1
1
1
1
1
1
1
1
1
1
1
1
1
1.00351
2.28033
2.67625
2.67618
2.67855
2.68222
2.68606
2.68994
2.69367
2.69707
2.69997
2.70238
2.70457
2.70689
2.70996
2.71426
2.71974
2.72555
2.73048
2.73355
2.73506
2.73582
2.7369
2.73946
2.74381
2.74919
2.75392
2.7568
2.7579
2.75834
2.75906
2.76059
2.76282
2.76506
2.76675
2.76786
2.7687
2.76959
2.77066
2.77186
2.77311
2.77442
2.77584
2.77718
2.7783
2.77893
2.77909
1
1
1
1
1
1
1
1
1
1
1
1
1
1
1
1
1
1
1
1
1
1
1
1
1
1
1
1
1
1
1
1
1
1
1
1
1
1
1
1
1
1
1
1
1
1
1
1
1
1.00001
2.19125
2.67455
2.67821
2.68104
2.68424
2.68724
2.69033
2.69331
2.69617
2.69891
2.70142
2.70367
2.7058
2.70826
2.71153
2.71584
2.72084
2.72568
2.72934
2.73151
2.73269
2.73376
2.73591
2.73968
2.74473
2.74959
2.75296
2.7545
2.75508
2.75572
2.757
2.75901
2.76119
2.76293
2.76408
2.76489
2.76566
2.76658
2.76767
2.76886
2.77015
2.77151
2.77279
2.77388
2.77445
2.77459
1
1
1
1
1
1
1
1
1
1
1
1
1
1
1
1
1
1
1
1
1
1
1
1
1
1
1
1
1
1
1
1
1
1
1
1
1
1
1
1
1
1
1
1
1
1
1
1
1
1
2.07073
2.66012
2.67846
2.68156
2.68499
2.68813
2.69119
2.69398
2.69662
2.69912
2.70141
2.70348
2.70543
2.70751
2.71002
2.71319
2.7171
2.72131
2.72502
2.72759
2.72921
2.7304
2.73228
2.7355
2.74009
2.74491
2.74864
2.75064
2.75145
2.75207
2.75316
2.75494
2.75701
2.75876
2.75993
2.76068
2.76132
2.76208
2.76302
2.76411
2.76535
2.76663
2.76785
2.76893
2.7695
2.76966
1
1
1
1
1
1
1
1
1
1
1
1
1
1
1
1
1
1
1
1
1
1
1
1
1
1
1
1
1
1
1
1
1
1
1
1
1
1
1
1
1
1
1
1
1
1
1
1
1
1
1.92336
2.62955
2.6737
2.67976
2.68395
2.68731
2.69049
2.69336
2.69611
2.69879
2.70127
2.70347
2.70544
2.70732
2.70933
2.71172
2.7145
2.71778
2.72107
2.72368
2.72557
2.72692
2.72859
2.73131
2.73534
2.73993
2.74385
2.74628
2.74739
2.74806
2.74902
2.75059
2.75252
2.75423
2.75538
2.75606
2.75658
2.75717
2.75796
2.75892
2.76002
2.76115
2.76231
2.76334
2.76389
2.76405
1
1
1
1
1
1
1
1
1
1
1
1
1
1
1
1
1
1
1
1
1
1
1
1
1
1
1
1
1
1
1
1
1
1
1
1
1
1
1
1
1
1
1
1
1
1
1
1
1
1
1.76213
2.58397
2.6631
2.67181
2.67867
2.68378
2.68796
2.69149
2.69475
2.69767
2.70031
2.70276
2.70497
2.70694
2.70884
2.71079
2.71297
2.71526
2.71782
2.72012
2.72202
2.72348
2.72496
2.7272
2.73059
2.73477
2.73868
2.74142
2.74287
2.74365
2.74454
2.74592
2.74767
2.74929
2.75039
2.75097
2.75134
2.75177
2.75234
2.75305
2.75392
2.75492
2.75602
2.75703
2.75761
2.75782
1
1
1
1
1
1
1
1
1
1
1
1
1
1
1
1
1
1
1
1
1
1
1
1
1
1
1
1
1
1
1
1
1
1
1
1
1
1
1
1
1
1
1
1
1
1
1
1
1
1
1.56736
2.51367
2.64935
2.65981
2.66914
2.67551
2.68091
2.68594
2.69063
2.6947
2.69831
2.70137
2.70394
2.7061
2.70799
2.70978
2.71154
2.71341
2.71532
2.71717
2.71877
2.72016
2.72146
2.72325
2.72595
2.72953
2.73323
2.73614
2.73786
2.7388
2.73965
2.74088
2.74244
2.74393
2.74493
2.74541
2.74564
2.74586
2.74613
2.74658
2.74718
2.74795
2.74888
2.7498
2.75032
2.7505
1
1
1
1
1
1
1
1
1
1
1
1
1
1
1
1
1
1
1
1
1
1
1
1
1
1
1
1
1
1
1
1
1
1
1
1
1
1
1
1
1
1
1
1
1
1
1
1
1
1
1.31715
2.42715
2.64737
2.64637
2.65477
2.66317
2.67104
2.67767
2.68332
2.68845
2.69331
2.69771
2.70142
2.70434
2.70661
2.70842
2.70999
2.71151
2.71306
2.71457
2.71589
2.71716
2.7182
2.71954
2.72155
2.7244
2.72766
2.73051
2.73242
2.7335
2.73435
2.73543
2.73676
2.73806
2.73894
2.73929
2.73932
2.73925
2.73918
2.73923
2.73942
2.73986
2.74061
2.74147
2.74202
2.74224
1
1
1
1
1
1
1
1
1
1
1
1
1
1
1
1
1
1
1
1
1
1
1
1
1
1
1
1
1
1
1
1
1
1
1
1
1
1
1
1
1
1
1
1
1
1
1
1
1
1
1.06379
2.34039
2.6511
2.64682
2.64956
2.6543
2.66053
2.66717
2.67371
2.67991
2.68576
2.69136
2.69634
2.70046
2.70364
2.70604
2.70785
2.70939
2.71083
2.71216
2.71327
2.7142
2.71522
2.71609
2.71743
2.71948
2.7221
2.72468
2.7266
2.72778
2.72864
2.72955
2.7306
2.73166
2.73235
2.73254
2.73236
2.73196
2.73147
2.73106
2.73083
2.73088
2.73122
2.73174
2.73206
2.73211
1
1
1
1
1
1
1
1
1
1
1
1
1
1
1
1
1
1
1
1
1
1
1
1
1
1
1
1
1
1
1
1
1
1
1
1
1
1
1
1
1
1
1
1
1
1
1
1
1
1
1.00121
2.25402
2.64726
2.64335
2.64709
2.65062
2.65509
2.65989
2.66515
2.67104
2.67705
2.68304
2.68887
2.69411
2.69843
2.70177
2.70426
2.70625
2.708
2.70951
2.71071
2.71152
2.71218
2.71287
2.71363
2.71488
2.71672
2.71878
2.72052
2.72172
2.72253
2.72315
2.72391
2.72467
2.7251
2.72508
2.72468
2.72388
2.72284
2.72174
2.72076
2.72012
2.71994
2.72012
2.72031
2.72042
1
1
1
1
1
1
1
1
1
1
1
1
1
1
1
1
1
1
1
1
1
1
1
1
1
1
1
1
1
1
1
1
1
1
1
1
1
1
1
1
1
1
1
1
1
1
1
1
1
1
1
2.11516
2.65106
2.65084
2.6519
2.65346
2.65568
2.65831
2.66146
2.66492
2.66914
2.6744
2.68021
2.68594
2.69107
2.69537
2.69878
2.70155
2.70393
2.70599
2.70762
2.70866
2.70928
2.7097
2.71006
2.71063
2.71164
2.71301
2.7144
2.71544
2.71596
2.71631
2.71671
2.71707
2.71721
2.71694
2.71618
2.71487
2.71316
2.71127
2.70949
2.70809
2.70713
2.70635
2.7056
2.7049
1
1
1
1
1
1
1
1
1
1
1
1
1
1
1
1
1
1
1
1
1
1
1
1
1
1
1
1
1
1
1
1
1
1
1
1
1
1
1
1
1
1
1
1
1
1
1
1
1
1
1
1.9308
2.62656
2.65526
2.6551
2.65639
2.65775
2.65909
2.66036
2.66201
2.66461
2.66802
2.67236
2.67747
2.68262
2.68736
2.69147
2.69505
2.69826
2.70112
2.70348
2.70508
2.70598
2.70641
2.70649
2.70656
2.70686
2.70751
2.70837
2.70896
2.70909
2.70906
2.709
2.70891
2.70865
2.70799
2.70674
2.70483
2.70234
2.69947
2.69642
2.69339
2.69067
2.68844
2.68671
2.68611
1
1
1
1
1
1
1
1
1
1
1
1
1
1
1
1
1
1
1
1
1
1
1
1
1
1
1
1
1
1
1
1
1
1
1
1
1
1
1
1
1
1
1
1
1
1
1
1
1
1
1
1.70255
2.55054
2.64773
2.65304
2.65806
2.65994
2.66074
2.66121
2.66205
2.66307
2.66471
2.66733
2.67073
2.67476
2.67903
2.6832
2.68718
2.69103
2.69469
2.69791
2.70034
2.70183
2.70255
2.70264
2.70246
2.70227
2.7023
2.70248
2.70241
2.70208
2.70156
2.70092
2.70025
2.69943
2.69822
2.69636
2.6937
2.69023
2.68605
2.68136
2.67655
2.67193
2.66748
2.66219
2.65707
1
1
1
1
1
1
1
1
1
1
1
1
1
1
1
1
1
1
1
1
1
1
1
1
1
1
1
1
1
1
1
1
1
1
1
1
1
1
1
1
1
1
1
1
1
1
1
1
1
1
1
1.39136
2.42715
2.6419
2.64521
2.65101
2.65504
2.65822
2.66037
2.66176
2.66275
2.6637
2.66486
2.66661
2.66906
2.67202
2.67536
2.67899
2.68291
2.68702
2.69083
2.69413
2.69642
2.69767
2.69811
2.69796
2.69759
2.69717
2.69667
2.69598
2.69505
2.69388
2.69255
2.69115
2.68958
2.68763
2.68498
2.68141
2.67678
2.67106
2.66432
2.65655
2.64725
2.6361
2.62453
2.61567
1
1
1
1
1
1
1
1
1
1
1
1
1
1
1
1
1
1
1
1
1
1
1
1
1
1
1
1
1
1
1
1
1
1
1
1
1
1
1
1
1
1
1
1
1
1
1
1
1
1
1
1.05417
2.31682
2.63602
2.63211
2.63667
2.64358
2.65078
2.65584
2.65903
2.66106
2.66242
2.6635
2.66456
2.66574
2.66729
2.66929
2.67183
2.67504
2.6789
2.68275
2.6865
2.68952
2.69157
2.69259
2.69274
2.69246
2.69182
2.69089
2.68965
2.68808
2.68618
2.68404
2.68173
2.67923
2.67633
2.67271
2.66805
2.66201
2.65435
2.64468
2.63258
2.61764
2.59973
2.5823
2.57508
1
1
1
1
1
1
1
1
1
1
1
1
1
1
1
1
1
1
1
1
1
1
1
1
1
1
1
1
1
1
1
1
1
1
1
1
1
1
1
1
1
1
1
1
1
1
1
1
1
1
1
1.00069
2.21359
2.62086
2.6192
2.62622
2.63341
2.64083
2.64753
2.65265
2.65653
2.6593
2.66124
2.66262
2.66361
2.66439
2.66525
2.66652
2.66849
2.6713
2.67456
2.67807
2.68137
2.68404
2.68582
2.68656
2.68649
2.68594
2.68485
2.68324
2.68111
2.6785
2.67547
2.67213
2.66852
2.66447
2.65966
2.65367
2.64596
2.63601
2.62308
2.60629
2.58314
2.54782
2.48282
2.34358
1
1
1
1
1
1
1
1
1
1
1
1
1
1
1
1
1
1
1
1
1
1
1
1
1
1
1
1
1
1
1
1
1
1
1
1
1
1
1
1
1
1
1
1
1
1
1
1
1
1
1
0.999995
2.03744
2.61198
2.62415
2.62832
2.63086
2.63439
2.63927
2.64436
2.64925
2.65352
2.65694
2.65944
2.66104
2.66191
2.66237
2.66282
2.66362
2.66508
2.66729
2.66982
2.67271
2.67546
2.67773
2.67917
2.67957
2.67925
2.67826
2.67653
2.67404
2.67083
2.66694
2.66253
2.65766
2.65227
2.64605
2.6385
2.6289
2.6164
2.59974
2.5767
2.54321
2.48886
2.40812
2.19578
1
1
1
1
1
1
1
1
1
1
1
1
1
1
1
1
1
1
1
1
1
1
1
1
1
1
1
1
1
1
1
1
1
1
1
1
1
1
1
1
1
1
1
1
1
1
1
1
1
1
1
0.999999
1.79372
2.56499
2.62929
2.62891
2.6303
2.63236
2.63418
2.63721
2.64138
2.64601
2.65047
2.65423
2.65699
2.65865
2.65945
2.65971
2.65985
2.66027
2.66125
2.66254
2.6644
2.66654
2.66873
2.6706
2.67156
2.67154
2.67085
2.66925
2.66662
2.663
2.65841
2.65298
2.64683
2.63997
2.63214
2.62282
2.61115
2.59601
2.57555
2.54738
2.50532
2.44706
2.32685
2.12022
1
1
1
1
1
1
1
1
1
1
1
1
1
1
1
1
1
1
1
1
1
1
1
1
1
1
1
1
1
1
1
1
1
1
1
1
1
1
1
1
1
1
1
1
1
1
1
1
1
1
1
1
1.45343
2.44712
2.62683
2.62573
2.6277
2.62925
2.63074
2.6328
2.6356
2.63923
2.64341
2.64759
2.65121
2.65389
2.65555
2.6563
2.65636
2.65628
2.65637
2.65659
2.65718
2.6582
2.65965
2.66127
2.66252
2.66289
2.66248
2.66115
2.65864
2.65485
2.64978
2.64352
2.63617
2.62781
2.61826
2.60704
2.59318
2.57553
2.5517
2.51952
2.47221
2.40303
2.27619
2.08976
1
1
1
1
1
1
1
1
1
1
1
1
1
1
1
1
1
1
1
1
1
1
1
1
1
1
1
1
1
1
1
1
1
1
1
1
1
1
1
1
1
1
1
1
1
1
1
1
1
1
1
1
1.06273
2.31509
2.62282
2.61823
2.61971
2.62282
2.62632
2.62868
2.63099
2.63366
2.63687
2.64052
2.64425
2.6475
2.65005
2.65169
2.65229
2.65223
2.65195
2.65149
2.65106
2.65092
2.65122
2.65196
2.65289
2.65339
2.65317
2.65212
2.64986
2.64615
2.64087
2.63403
2.62569
2.61597
2.60469
2.59156
2.57554
2.55553
2.52906
2.49331
2.44361
2.36818
2.25084
2.10311
1
1
1
1
1
1
1
1
1
1
1
1
1
1
1
1
1
1
1
1
1
1
1
1
1
1
1
1
1
1
1
1
1
1
1
1
1
1
1
1
1
1
1
1
1
1
1
1
1
1
1
1
1.00093
2.18742
2.60057
2.6026
2.60914
2.61486
2.62012
2.62363
2.6264
2.62882
2.6313
2.63407
2.63721
2.6403
2.64318
2.64559
2.64708
2.64758
2.64736
2.64673
2.64578
2.64473
2.64388
2.64345
2.64346
2.64348
2.64319
2.64222
2.64016
2.63668
2.63145
2.62437
2.61535
2.60453
2.59169
2.57674
2.55868
2.53649
2.50802
2.47009
2.41873
2.34471
2.243
2.12049
1
1
1
1
1
1
1
1
1
1
1
1
1
1
1
1
1
1
1
1
1
1
1
1
1
1
1
1
1
1
1
1
1
1
1
1
1
1
1
1
1
1
1
1
1
1
1
1
1
1
1
1
0.999992
1.97005
2.57712
2.60353
2.60826
2.61181
2.61493
2.61823
2.62133
2.62394
2.6262
2.62836
2.6307
2.63323
2.63576
2.63833
2.64047
2.64178
2.64201
2.6416
2.64062
2.63917
2.6375
2.63597
2.63477
2.63383
2.63293
2.63169
2.62965
2.62636
2.62135
2.61432
2.60499
2.59341
2.57937
2.56285
2.54303
2.51898
2.48898
2.45016
2.39859
2.33026
2.24123
2.13719
1
1
1
1
1
1
1
1
1
1
1
1
1
1
1
1
1
1
1
1
1
1
1
1
1
1
1
1
1
1
1
1
1
1
1
1
1
1
1
1
1
1
1
1
1
1
1
1
1
1
1
1
0.999998
1.64071
2.49713
2.60221
2.60532
2.60698
2.60944
2.61271
2.61582
2.61866
2.62103
2.623
2.62485
2.62679
2.62862
2.63077
2.63294
2.63478
2.6357
2.63565
2.63502
2.63367
2.6317
2.62942
2.62713
2.625
2.62302
2.62103
2.61861
2.61527
2.61044
2.60363
2.59438
2.58245
2.56769
2.54999
2.52883
2.50331
2.47232
2.4331
2.3832
2.32073
2.24327
2.15508
1
1
1
1
1
1
1
1
1
1
1
1
1
1
1
1
1
1
1
1
1
1
1
1
1
1
1
1
1
1
1
1
1
1
1
1
1
1
1
1
1
1
1
1
1
1
1
1
1
1
1
1
1
1.22217
2.3675
2.60046
2.59563
2.59787
2.60225
2.60626
2.6096
2.61266
2.61531
2.61744
2.61922
2.62081
2.62203
2.62354
2.62524
2.62702
2.62837
2.62885
2.62859
2.62764
2.62584
2.6233
2.62028
2.61711
2.61391
2.61079
2.60756
2.6038
2.59891
2.59228
2.58329
2.57144
2.55646
2.5381
2.5161
2.48966
2.45829
2.41886
2.37162
2.31527
2.24663
2.17134
1
1
1
1
1
1
1
1
1
1
1
1
1
1
1
1
1
1
1
1
1
1
1
1
1
1
1
1
1
1
1
1
1
1
1
1
1
1
1
1
1
1
1
1
1
1
1
1
1
1
1
1
1
1.01281
2.24343
2.58637
2.58456
2.58946
2.59452
2.59906
2.6027
2.60597
2.60888
2.61134
2.61336
2.61488
2.61587
2.61686
2.61795
2.61921
2.62044
2.62122
2.62128
2.62077
2.61941
2.61707
2.61383
2.60999
2.60577
2.60142
2.59702
2.59241
2.58706
2.58037
2.57161
2.5601
2.54536
2.52696
2.50468
2.47792
2.44669
2.40753
2.36328
2.31207
2.2501
2.18511
1
1
1
1
1
1
1
1
1
1
1
1
1
1
1
1
1
1
1
1
1
1
1
1
1
1
1
1
1
1
1
1
1
1
1
1
1
1
1
1
1
1
1
1
1
1
1
1
1
1
1
1
1
1.00001
2.01332
2.56186
2.58225
2.58775
2.59121
2.59387
2.59656
2.59942
2.60224
2.60488
2.60706
2.60873
2.60977
2.61052
2.61114
2.61179
2.61253
2.61315
2.61337
2.61312
2.6122
2.61029
2.60725
2.60319
2.59833
2.59301
2.58739
2.58162
2.57542
2.5683
2.55953
2.54836
2.53412
2.51621
2.49425
2.46785
2.43702
2.39903
2.35809
2.30974
2.25308
2.19634
1
1
1
1
1
1
1
1
1
1
1
1
1
1
1
1
1
1
1
1
1
1
1
1
1
1
1
1
1
1
1
1
1
1
1
1
1
1
1
1
1
1
1
1
1
1
1
1
1
1
1
1
1
0.999999
1.64991
2.48641
2.58324
2.58546
2.58678
2.58853
2.59083
2.59324
2.59575
2.59822
2.6004
2.60221
2.60344
2.6042
2.6046
2.60481
2.60498
2.60513
2.60514
2.60492
2.60421
2.6027
2.60008
2.59622
2.5912
2.58529
2.57873
2.57181
2.56448
2.55653
2.54739
2.53633
2.52261
2.50547
2.48436
2.45888
2.42877
2.39305
2.35465
2.30818
2.2575
2.20653
1
1
1
1
1
1
1
1
1
1
1
1
1
1
1
1
1
1
1
1
1
1
1
1
1
1
1
1
1
1
1
1
1
1
1
1
1
1
1
1
1
1
1
1
1
1
1
1
1
1
1
1
1
1
1.19025
2.34933
2.5829
2.5773
2.57816
2.58116
2.58441
2.58705
2.58945
2.59165
2.59367
2.59544
2.59679
2.59767
2.59805
2.59802
2.59781
2.59748
2.59706
2.59655
2.59577
2.59445
2.5922
2.58874
2.58392
2.57786
2.57076
2.56296
2.55456
2.54559
2.53571
2.52441
2.51097
2.49461
2.47463
2.45038
2.42174
2.38858
2.3518
2.30823
2.26355
2.21546
1
1
1
1
1
1
1
1
1
1
1
1
1
1
1
1
1
1
1
1
1
1
1
1
1
1
1
1
1
1
1
1
1
1
1
1
1
1
1
1
1
1
1
1
1
1
1
1
1
1
1
1
1
1
1.00897
2.21281
2.56386
2.5631
2.56807
2.57301
2.5773
2.58055
2.58308
2.5852
2.58705
2.58865
2.58994
2.59085
2.59128
2.5912
2.59081
2.59014
2.58929
2.58832
2.5872
2.58575
2.58365
2.58053
2.57611
2.57027
2.56309
2.55481
2.54563
2.53574
2.52495
2.51306
2.49955
2.48369
2.46481
2.44205
2.41523
2.38422
2.34967
2.30972
2.26909
2.22296
1
1
1
1
1
1
1
1
1
1
1
1
1
1
1
1
1
1
1
1
1
1
1
1
1
1
1
1
1
1
1
1
1
1
1
1
1
1
1
1
1
1
1
1
1
1
1
1
1
1
1
1
1
1
0.999996
1.9424
2.53234
2.56054
2.56507
2.56848
2.57158
2.57417
2.57662
2.57872
2.58047
2.58191
2.58304
2.58387
2.58431
2.58421
2.58377
2.58297
2.58181
2.5804
2.57882
2.57702
2.57479
2.5718
2.5677
2.56225
2.55533
2.547
2.53745
2.52689
2.51534
2.50275
2.48881
2.47305
2.45509
2.43358
2.40839
2.38009
2.34823
2.31142
2.27324
2.22962
1
1
1
1
1
1
1
1
1
1
1
1
1
1
1
1
1
1
1
1
1
1
1
1
1
1
1
1
1
1
1
1
1
1
1
1
1
1
1
1
1
1
1
1
1
1
1
1
1
1
1
1
1
1
0.999997
1.51239
2.4318
2.56332
2.5625
2.56367
2.56597
2.5682
2.57033
2.57226
2.57392
2.57523
2.57621
2.57688
2.5772
2.57707
2.57659
2.57574
2.57444
2.57273
2.57071
2.56847
2.56589
2.56277
2.5588
2.55368
2.54715
2.53912
2.52964
2.51882
2.50678
2.49362
2.47922
2.46315
2.4456
2.42485
2.4017
2.37637
2.34574
2.31151
2.2764
2.23683
1
1
1
1
1
1
1
1
1
1
1
1
1
1
1
1
1
1
1
1
1
1
1
1
1
1
1
1
1
1
1
1
1
1
1
1
1
1
1
1
1
1
1
1
1
1
1
1
1
1
1
1
1
1
0.999999
1.07187
2.28256
2.56376
2.55684
2.55757
2.5598
2.56213
2.56402
2.56574
2.56727
2.56848
2.56937
2.5699
2.57007
2.56987
2.56933
2.56843
2.56707
2.56521
2.56287
2.56021
2.55722
2.55381
2.54975
2.54477
2.53858
2.53096
2.52183
2.51116
2.49902
2.48556
2.47084
2.45432
2.43678
2.41657
2.39541
2.37116
2.34139
2.3119
2.27974
2.24339
1
1
1
1
1
1
1
1
1
1
1
1
1
1
1
1
1
1
1
1
1
1
1
1
1
1
1
1
1
1
1
1
1
1
1
1
1
1
1
1
1
1
1
1
1
1
1
1
1
1
1
1
1
1
1
1.0011
2.07925
2.53117
2.5425
2.55028
2.55448
2.55649
2.55806
2.55944
2.56069
2.56172
2.5625
2.56293
2.56296
2.56268
2.56202
2.56104
2.55962
2.55768
2.55518
2.55221
2.54885
2.54509
2.54078
2.53575
2.52972
2.52246
2.51376
2.50351
2.49164
2.47825
2.46342
2.44667
2.42924
2.40933
2.38882
2.36482
2.33833
2.31226
2.28104
2.2477
1
1
1
1
1
1
1
1
1
1
1
1
1
1
1
1
1
1
1
1
1
1
1
1
1
1
1
1
1
1
1
1
1
1
1
1
1
1
1
1
1
1
1
1
1
1
1
1
1
1
1
1
1
1
1
0.999992
1.6746
2.45596
2.54388
2.54548
2.54795
2.55061
2.55239
2.55356
2.55452
2.55528
2.55583
2.55611
2.55601
2.5556
2.55482
2.5537
2.55218
2.55016
2.54756
2.54441
2.54077
2.5367
2.5321
2.52689
2.52085
2.51379
2.50546
2.49567
2.4843
2.47127
2.45663
2.44012
2.42268
2.40289
2.38279
2.35972
2.33603
2.31065
2.28056
2.25147
1
1
1
1
1
1
1
1
1
1
1
1
1
1
1
1
1
1
1
1
1
1
1
1
1
1
1
1
1
1
1
1
1
1
1
1
1
1
1
1
1
1
1
1
1
1
1
1
1
1
1
1
1
1
1
0.999998
1.14872
2.31246
2.54338
2.53639
2.53837
2.54194
2.54483
2.54664
2.54787
2.54864
2.54911
2.54927
2.54909
2.54858
2.54768
2.54641
2.54475
2.54264
2.53997
2.53671
2.53289
2.52858
2.52374
2.51832
2.51216
2.50514
2.49703
2.48764
2.47681
2.46427
2.45016
2.43417
2.41667
2.39749
2.3782
2.35582
2.33272
2.30751
2.28111
2.25466
1
1
1
1
1
1
1
1
1
1
1
1
1
1
1
1
1
1
1
1
1
1
1
1
1
1
1
1
1
1
1
1
1
1
1
1
1
1
1
1
1
1
1
1
1
1
1
1
1
1
1
1
1
1
1
1
1.0052
2.14452
2.5176
2.52063
2.52744
2.53326
2.53618
2.53872
2.54055
2.54168
2.54232
2.54249
2.54228
2.54169
2.54068
2.53927
2.53746
2.53521
2.53243
2.5291
2.52516
2.5207
2.51567
2.51008
2.50377
2.49671
2.4887
2.47956
2.46917
2.45709
2.44371
2.42819
2.4111
2.39338
2.37414
2.35169
2.32962
2.30631
2.28194
2.2556
1
1
1
1
1
1
1
1
1
1
1
1
1
1
1
1
1
1
1
1
1
1
1
1
1
1
1
1
1
1
1
1
1
1
1
1
1
1
1
1
1
1
1
1
1
1
1
1
1
1
1
1
1
1
1
1
0.999983
1.75833
2.4605
2.52174
2.52326
2.52512
2.52808
2.53081
2.53288
2.53434
2.53527
2.53562
2.53542
2.53482
2.53375
2.53223
2.53027
2.52787
2.52497
2.52154
2.51753
2.51297
2.50782
2.5021
2.49569
2.48858
2.4806
2.4716
2.46149
2.44977
2.43701
2.42206
2.40611
2.3894
2.36972
2.34861
2.32817
2.30567
2.28175
2.25559
1
1
1
1
1
1
1
1
1
1
1
1
1
1
1
1
1
1
1
1
1
1
1
1
1
1
1
1
1
1
1
1
1
1
1
1
1
1
1
1
1
1
1
1
1
1
1
1
1
1
1
1
1
1
1
1
0.999995
1.2122
2.32699
2.52406
2.51617
2.51699
2.5191
2.52178
2.52405
2.52596
2.52737
2.52818
2.52815
2.52772
2.52675
2.52523
2.52318
2.52065
2.51763
2.5141
2.51002
2.50538
2.50017
2.49435
2.48792
2.48075
2.47284
2.46383
2.45387
2.4424
2.43012
2.41592
2.40115
2.38463
2.36566
2.34696
2.32703
2.30438
2.28098
2.25641
1
1
1
1
1
1
1
1
1
1
1
1
1
1
1
1
1
1
1
1
1
1
1
1
1
1
1
1
1
1
1
1
1
1
1
1
1
1
1
1
1
1
1
1
1
1
1
1
1
1
1
1
1
1
1
1
0.999999
1.0105
2.16231
2.50324
2.50302
2.50678
2.51096
2.51316
2.51518
2.51719
2.51885
2.52005
2.52049
2.52024
2.51948
2.51811
2.5161
2.51352
2.51041
2.50678
2.50262
2.49792
2.49268
2.48681
2.48039
2.4732
2.46537
2.4563
2.44643
2.43522
2.42335
2.40983
2.39577
2.37973
2.36251
2.34502
2.32487
2.30315
2.28142
2.25874
1
1
1
1
1
1
1
1
1
1
1
1
1
1
1
1
1
1
1
1
1
1
1
1
1
1
1
1
1
1
1
1
1
1
1
1
1
1
1
1
1
1
1
1
1
1
1
1
1
1
1
1
1
1
1
1
1
0.999997
1.75673
2.44597
2.50465
2.50425
2.50432
2.50576
2.50748
2.50898
2.51034
2.51154
2.51231
2.51228
2.5118
2.51069
2.50888
2.5064
2.5033
2.49962
2.4954
2.49064
2.48536
2.4795
2.47308
2.46592
2.45807
2.44901
2.43924
2.42838
2.41679
2.40376
2.39025
2.37511
2.35914
2.34176
2.32237
2.30283
2.28255
2.26069
1
1
1
1
1
1
1
1
1
1
1
1
1
1
1
1
1
1
1
1
1
1
1
1
1
1
1
1
1
1
1
1
1
1
1
1
1
1
1
1
1
1
1
1
1
1
1
1
1
1
1
1
1
1
1
1
1
0.999996
1.18157
2.30942
2.50915
2.49949
2.49851
2.49879
2.49987
2.50062
2.50155
2.50256
2.50344
2.50378
2.50354
2.50276
2.50129
2.49909
2.49614
2.49251
2.48829
2.48351
2.4782
2.47237
2.46597
2.45889
2.45096
2.44202
2.4324
2.42192
2.41046
2.39793
2.38497
2.37055
2.35504
2.33824
2.32078
2.30247
2.28286
2.26153
1
1
1
1
1
1
1
1
1
1
1
1
1
1
1
1
1
1
1
1
1
1
1
1
1
1
1
1
1
1
1
1
1
1
1
1
1
1
1
1
1
1
1
1
1
1
1
1
1
1
1
1
1
1
1
1
1
0.999999
1.00759
2.12678
2.48315
2.48414
2.48766
2.49222
2.49277
2.49287
2.49332
2.49391
2.49454
2.49497
2.49488
2.49437
2.49327
2.49145
2.48881
2.4854
2.48127
2.47654
2.47121
2.4654
2.45901
2.45198
2.44406
2.43528
2.42587
2.41565
2.40434
2.39242
2.37982
2.36571
2.35068
2.33521
2.3191
2.30104
2.28201
2.26194
1
1
1
1
1
1
1
1
1
1
1
1
1
1
1
1
1
1
1
1
1
1
1
1
1
1
1
1
1
1
1
1
1
1
1
1
1
1
1
1
1
1
1
1
1
1
1
1
1
1
1
1
1
1
1
1
1
1
0.999986
1.67623
2.41111
2.48703
2.48726
2.48717
2.48678
2.48659
2.48645
2.48628
2.48626
2.48627
2.48611
2.48566
2.48478
2.48332
2.48108
2.47804
2.47414
2.46955
2.46432
2.4585
2.45225
2.44516
2.43739
2.42883
2.41966
2.40957
2.39858
2.38718
2.3747
2.36099
2.34673
2.33229
2.31665
2.29876
2.28104
2.26268
1
1
1
1
1
1
1
1
1
1
1
1
1
1
1
1
1
1
1
1
1
1
1
1
1
1
1
1
1
1
1
1
1
1
1
1
1
1
1
1
1
1
1
1
1
1
1
1
1
1
1
1
1
1
1
1
1
1
0.999995
1.1237
2.26224
2.49061
2.48232
2.47995
2.48008
2.48015
2.47974
2.47911
2.47853
2.47802
2.4775
2.4769
2.47605
2.47483
2.47294
2.47033
2.46678
2.46246
2.4574
2.45169
2.4454
2.43845
2.43089
2.42257
2.4136
2.40365
2.39309
2.38192
2.3696
2.3566
2.34303
2.329
2.31348
2.29645
2.28039
2.26311
1
1
1
1
1
1
1
1
1
1
1
1
1
1
1
1
1
1
1
1
1
1
1
1
1
1
1
1
1
1
1
1
1
1
1
1
1
1
1
1
1
1
1
1
1
1
1
1
1
1
1
1
1
1
1
1
1
1
0.999999
1.00336
2.02256
2.45613
2.46408
2.47021
2.47352
2.47388
2.47339
2.47266
2.47172
2.47065
2.46955
2.46852
2.46743
2.46618
2.46448
2.4622
2.45907
2.45512
2.45035
2.44484
2.43864
2.43186
2.42452
2.41647
2.4077
2.39801
2.38781
2.37673
2.36481
2.35252
2.3393
2.32552
2.31045
2.29462
2.27964
2.26291
1
1
1
1
1
1
1
1
1
1
1
1
1
1
1
1
1
1
1
1
1
1
1
1
1
1
1
1
1
1
1
1
1
1
1
1
1
1
1
1
1
1
1
1
1
1
1
1
1
1
1
1
1
1
1
1
1
1
1
0.999989
1.48635
2.35372
2.46318
2.46455
2.46656
2.46671
2.46675
2.46643
2.46552
2.46412
2.46251
2.46094
2.45939
2.45784
2.45605
2.45388
2.45104
2.44745
2.44305
2.43782
2.43187
2.42526
2.41809
2.41034
2.40185
2.3925
2.38255
2.37166
2.36031
2.34841
2.33532
2.32198
2.30774
2.29297
2.27822
2.26176
1
1
1
1
1
1
1
1
1
1
1
1
1
1
1
1
1
1
1
1
1
1
1
1
1
1
1
1
1
1
1
1
1
1
1
1
1
1
1
1
1
1
1
1
1
1
1
1
1
1
1
1
1
1
1
1
1
1
1
0.999997
1.05885
2.18816
2.45849
2.45615
2.45726
2.4578
2.45883
2.45931
2.45872
2.45742
2.45569
2.45384
2.45189
2.44995
2.4479
2.44563
2.44292
2.43958
2.43553
2.43065
2.42502
2.41868
2.41172
2.40425
2.39604
2.38706
2.3774
2.36686
2.356
2.34422
2.33137
2.31867
2.30521
2.2911
2.27628
2.26036
1
1
1
1
1
1
1
1
1
1
1
1
1
1
1
1
1
1
1
1
1
1
1
1
1
1
1
1
1
1
1
1
1
1
1
1
1
1
1
1
1
1
1
1
1
1
1
1
1
1
1
1
1
1
1
1
1
1
1
0.999999
1.00062
1.7974
2.3989
2.44411
2.44769
2.44892
2.4514
2.45221
2.45172
2.45065
2.44911
2.44727
2.44511
2.44282
2.44037
2.43779
2.43493
2.43163
2.42777
2.42319
2.41791
2.4119
2.40524
2.39805
2.39012
2.38153
2.37224
2.36215
2.35161
2.33995
2.32762
2.31547
2.30246
2.28867
2.27407
2.25923
1
1
1
1
1