/*--------------------------------*- C++ -*----------------------------------*\
  =========                 |
  \\      /  F ield         | OpenFOAM: The Open Source CFD Toolbox
   \\    /   O peration     | Website:  https://openfoam.org
    \\  /    A nd           | Version:  7
     \\/     M anipulation  |
\*---------------------------------------------------------------------------*/
FoamFile
{
    version     2.0;
    format      ascii;
    class       volVectorField;
    location    "3.3";
    object      U;
}
// * * * * * * * * * * * * * * * * * * * * * * * * * * * * * * * * * * * * * //

dimensions      [0 1 -1 0 0 0 0];

internalField   nonuniform List<vector> 
64512
(
(3 -8.26814e-17 0)
(3 -8.13101e-17 0)
(3 3.0077e-16 0)
(3 3.52156e-16 0)
(3 -9.47139e-17 0)
(3 1.26145e-18 0)
(3 1.05381e-16 0)
(3 1.84455e-16 0)
(3 -3.63644e-17 0)
(3 -1.09503e-16 0)
(3 -2.00943e-16 0)
(3 -5.08073e-17 0)
(3 -2.55532e-16 0)
(3 -4.84028e-17 0)
(3 4.48531e-16 0)
(3 7.64854e-16 0)
(3 6.94166e-16 0)
(3 8.35614e-16 0)
(3 -3.16509e-16 0)
(3 -5.10557e-16 0)
(3 -3.3163e-16 0)
(3 -3.69512e-16 0)
(3 -4.28662e-16 0)
(3 -9.24335e-16 0)
(3 -1.09695e-15 0)
(3 2.57533e-16 0)
(3 5.49964e-16 0)
(3 2.92389e-16 0)
(3 3.94385e-16 0)
(3 5.93482e-16 0)
(3 8.19606e-16 0)
(3 6.43746e-16 0)
(3 5.06658e-16 0)
(3 3.51946e-16 0)
(3 3.79733e-16 0)
(3 4.92737e-16 0)
(3 7.62098e-16 0)
(3 7.29097e-16 0)
(3 6.93488e-16 0)
(3 6.89841e-16 0)
(3 8.49214e-16 0)
(3 8.20452e-16 0)
(3 4.55553e-16 0)
(3 2.39391e-16 0)
(3 1.75849e-16 0)
(3 3.22277e-16 0)
(3 -1.31823e-16 0)
(3 -1.14527e-16 0)
(3 -1.10342e-15 0)
(1.15396 0.004308 0)
(0.768892 0.0034679 0)
(0.75032 0.00589965 0)
(0.73457 0.00662667 0)
(0.717839 0.00696479 0)
(0.701322 0.00690807 0)
(0.685532 0.00645382 0)
(0.670871 0.00597001 0)
(0.657072 0.00576984 0)
(0.643537 0.00587018 0)
(0.629683 0.00621335 0)
(0.615039 0.006714 0)
(0.599418 0.00719787 0)
(0.583114 0.00740606 0)
(0.56693 0.00713394 0)
(0.551647 0.00661133 0)
(0.537224 0.00632617 0)
(0.522922 0.00648199 0)
(0.508027 0.00695663 0)
(0.492257 0.00746799 0)
(0.475909 0.0076119 0)
(0.459803 0.00726298 0)
(0.444332 0.00695046 0)
(0.428895 0.00717009 0)
(0.41268 0.00765675 0)
(0.395793 0.00785556 0)
(0.379059 0.00776192 0)
(0.362828 0.00775528 0)
(0.346823 0.00791197 0)
(0.330753 0.00807657 0)
(0.314518 0.00817968 0)
(0.298031 0.00825546 0)
(0.281117 0.0083358 0)
(0.263721 0.0084238 0)
(0.245994 0.00852699 0)
(0.228102 0.00865539 0)
(0.210153 0.00880172 0)
(0.192182 0.00896593 0)
(0.174099 0.00915303 0)
(0.155724 0.00935893 0)
(0.136867 0.00959695 0)
(0.117389 0.0098554 0)
(0.0972347 0.0101279 0)
(0.0764422 0.0103865 0)
(0.0550612 0.0106284 0)
(0.0331991 0.0107256 0)
(0.0113321 0.0108007 0)
(3 -1.96391e-16 0)
(3 -2.22076e-16 0)
(3 4.98675e-16 0)
(3 4.69409e-16 0)
(3 -1.31354e-16 0)
(3 -2.42594e-16 0)
(3 -5.16055e-17 0)
(3 7.03635e-17 0)
(3 -5.48027e-16 0)
(3 -7.13879e-16 0)
(3 -8.33998e-16 0)
(3 -7.76089e-16 0)
(3 -7.90295e-16 0)
(3 7.91591e-19 0)
(3 5.76765e-16 0)
(3 1.14512e-15 0)
(3 1.68098e-15 0)
(3 2.23845e-15 0)
(3 3.88474e-16 0)
(3 -6.60476e-16 0)
(3 -7.89466e-16 0)
(3 -5.04959e-16 0)
(3 7.18192e-17 0)
(3 -7.42197e-16 0)
(3 -8.14029e-17 0)
(3 1.14208e-15 0)
(3 6.0036e-17 0)
(3 -1.42522e-16 0)
(3 4.73887e-16 0)
(3 8.84581e-16 0)
(3 1.67488e-15 0)
(3 1.78398e-15 0)
(3 2.06193e-15 0)
(3 1.1584e-15 0)
(3 3.14682e-16 0)
(3 -4.7159e-16 0)
(3 -6.87714e-17 0)
(3 8.45253e-16 0)
(3 9.58865e-16 0)
(3 9.35082e-16 0)
(3 1.42081e-15 0)
(3 1.28567e-15 0)
(3 7.85281e-16 0)
(3 2.09805e-16 0)
(3 2.7194e-16 0)
(3 5.58338e-16 0)
(3 4.36199e-16 0)
(3 1.13915e-16 0)
(3 3.74583e-16 0)
(1.16007 0.0194044 0)
(0.76627 0.0142422 0)
(0.746566 0.0163769 0)
(0.731623 0.0189221 0)
(0.715367 0.0201976 0)
(0.69917 0.0204139 0)
(0.683335 0.0193637 0)
(0.668361 0.0178669 0)
(0.654207 0.0170258 0)
(0.64043 0.0171699 0)
(0.626482 0.0181326 0)
(0.611909 0.0196077 0)
(0.59649 0.0210568 0)
(0.580387 0.0217758 0)
(0.564253 0.0211478 0)
(0.548845 0.0196885 0)
(0.534185 0.0187793 0)
(0.519708 0.0191456 0)
(0.504797 0.020507 0)
(0.489115 0.0220316 0)
(0.472849 0.0225343 0)
(0.45678 0.0216174 0)
(0.441224 0.0207292 0)
(0.425697 0.021288 0)
(0.409516 0.0226467 0)
(0.392696 0.0231918 0)
(0.376018 0.0229497 0)
(0.359775 0.0229922 0)
(0.343724 0.0235186 0)
(0.327601 0.0240593 0)
(0.311336 0.0244061 0)
(0.294866 0.024656 0)
(0.27803 0.0249069 0)
(0.260771 0.02518 0)
(0.243228 0.0255046 0)
(0.225557 0.0259121 0)
(0.207861 0.0263776 0)
(0.190168 0.0268945 0)
(0.172381 0.0274747 0)
(0.154308 0.0281076 0)
(0.135749 0.0288405 0)
(0.11656 0.0296451 0)
(0.0966734 0.030507 0)
(0.0761152 0.0313407 0)
(0.0549229 0.0321325 0)
(0.0331812 0.0324946 0)
(0.0113577 0.0328119 0)
(3 8.06725e-17 0)
(3 1.18767e-16 0)
(3 4.13208e-16 0)
(3 3.34874e-16 0)
(3 1.38572e-16 0)
(3 -3.34587e-16 0)
(3 -3.5599e-16 0)
(3 -6.83674e-16 0)
(3 -9.32427e-16 0)
(3 -7.02152e-16 0)
(3 -5.71079e-16 0)
(3 -4.25834e-16 0)
(3 -2.93356e-16 0)
(3 3.11897e-16 0)
(3 2.7317e-16 0)
(3 9.27903e-16 0)
(3 1.35277e-15 0)
(3 1.70444e-15 0)
(3 2.84864e-15 0)
(3 2.40037e-15 0)
(3 1.52706e-15 0)
(3 1.47355e-15 0)
(3 6.71296e-16 0)
(3 -2.88907e-16 0)
(3 -5.28122e-17 0)
(3 -2.31299e-16 0)
(3 -1.43902e-15 0)
(3 -1.32259e-15 0)
(3 -6.68277e-16 0)
(3 3.52995e-16 0)
(3 1.08682e-15 0)
(3 8.07131e-16 0)
(3 2.36757e-17 0)
(3 -5.75128e-16 0)
(3 -1.0954e-15 0)
(3 -8.39814e-16 0)
(3 -1.27344e-18 0)
(3 1.86087e-15 0)
(3 2.8961e-15 0)
(3 2.08518e-15 0)
(3 1.83751e-15 0)
(3 1.46267e-15 0)
(3 8.654e-16 0)
(3 6.13616e-16 0)
(3 1.31884e-16 0)
(3 -6.94159e-16 0)
(3 -8.15004e-16 0)
(3 -7.35726e-16 0)
(3 2.10263e-15 0)
(1.17804 0.0335237 0)
(0.76783 0.0253335 0)
(0.746886 0.0277687 0)
(0.732155 0.0315372 0)
(0.716014 0.0335036 0)
(0.700014 0.0340415 0)
(0.684095 0.0327075 0)
(0.668693 0.0304646 0)
(0.653928 0.028984 0)
(0.639616 0.0290501 0)
(0.62534 0.0304899 0)
(0.610696 0.0327951 0)
(0.595411 0.0350996 0)
(0.579489 0.0362814 0)
(0.563414 0.035402 0)
(0.547866 0.0331725 0)
(0.532865 0.0317131 0)
(0.518056 0.0322293 0)
(0.502997 0.0343284 0)
(0.487308 0.0366997 0)
(0.471033 0.0375034 0)
(0.454931 0.0361433 0)
(0.439206 0.0348374 0)
(0.423492 0.0357811 0)
(0.407259 0.037956 0)
(0.390389 0.0388021 0)
(0.37364 0.0383745 0)
(0.357241 0.0384181 0)
(0.340982 0.039246 0)
(0.324622 0.0400962 0)
(0.30812 0.040635 0)
(0.291449 0.0410169 0)
(0.274469 0.0413937 0)
(0.25713 0.0417994 0)
(0.23957 0.0422841 0)
(0.221942 0.0429045 0)
(0.204354 0.0436267 0)
(0.186847 0.0444442 0)
(0.169327 0.0453781 0)
(0.151592 0.0464079 0)
(0.13343 0.0476148 0)
(0.114669 0.0489566 0)
(0.0952184 0.0504167 0)
(0.0750735 0.0518571 0)
(0.0542599 0.0532548 0)
(0.0328339 0.0539574 0)
(0.0112711 0.0546176 0)
(3 2.22108e-16 0)
(3 2.52049e-16 0)
(3 1.55078e-16 0)
(3 -1.30704e-17 0)
(3 -1.10159e-16 0)
(3 3.62254e-17 0)
(3 3.69299e-16 0)
(3 7.42943e-16 0)
(3 1.08986e-15 0)
(3 1.24622e-15 0)
(3 1.01599e-15 0)
(3 6.7022e-16 0)
(3 4.92557e-16 0)
(3 4.34843e-16 0)
(3 2.00202e-16 0)
(3 4.42638e-16 0)
(3 8.67731e-16 0)
(3 9.8638e-16 0)
(3 1.59701e-15 0)
(3 2.1828e-15 0)
(3 2.31013e-15 0)
(3 1.86627e-15 0)
(3 1.56927e-15 0)
(3 7.72842e-16 0)
(3 -9.82764e-16 0)
(3 -1.558e-15 0)
(3 -2.00391e-15 0)
(3 -2.29698e-15 0)
(3 -1.64139e-15 0)
(3 3.61408e-17 0)
(3 3.52985e-16 0)
(3 -6.19289e-18 0)
(3 -7.60677e-16 0)
(3 -1.16502e-15 0)
(3 -5.37383e-16 0)
(3 8.28792e-16 0)
(3 1.84832e-15 0)
(3 2.98222e-15 0)
(3 3.5258e-15 0)
(3 2.91294e-15 0)
(3 1.7508e-15 0)
(3 7.75916e-16 0)
(3 2.09648e-16 0)
(3 1.58259e-16 0)
(3 -8.20165e-16 0)
(3 -1.21219e-15 0)
(3 -1.41315e-15 0)
(3 -9.04485e-16 0)
(3 6.19453e-16 0)
(1.20411 0.0471 0)
(0.769081 0.0368388 0)
(0.747102 0.038951 0)
(0.733109 0.0437244 0)
(0.717338 0.0462505 0)
(0.701775 0.0472445 0)
(0.68595 0.0460044 0)
(0.670315 0.0433296 0)
(0.655159 0.0412193 0)
(0.640552 0.0410803 0)
(0.626217 0.042856 0)
(0.611735 0.0458314 0)
(0.596742 0.0488674 0)
(0.581062 0.050499 0)
(0.56503 0.049568 0)
(0.549315 0.046804 0)
(0.533978 0.0448955 0)
(0.51886 0.0455305 0)
(0.503695 0.0482585 0)
(0.488039 0.0513623 0)
(0.47177 0.0524731 0)
(0.455623 0.0508293 0)
(0.439696 0.0492604 0)
(0.423765 0.0506016 0)
(0.407463 0.0535311 0)
(0.390485 0.0546736 0)
(0.373577 0.0541011 0)
(0.356906 0.0541698 0)
(0.340325 0.0552997 0)
(0.323603 0.0564702 0)
(0.306725 0.0572271 0)
(0.289694 0.0577617 0)
(0.272385 0.0582593 0)
(0.254759 0.0587635 0)
(0.236943 0.0593464 0)
(0.219091 0.060091 0)
(0.201332 0.0609612 0)
(0.183737 0.0619595 0)
(0.166239 0.0631272 0)
(0.148646 0.0644433 0)
(0.130746 0.0660348 0)
(0.112345 0.0678547 0)
(0.0933219 0.0698924 0)
(0.0736318 0.0719563 0)
(0.0532831 0.0740108 0)
(0.0322811 0.0751294 0)
(0.011114 0.076232 0)
(3 -2.41291e-16 0)
(3 -2.23617e-16 0)
(3 -2.50445e-16 0)
(3 1.32002e-16 0)
(3 4.18484e-16 0)
(3 9.55624e-16 0)
(3 9.75669e-16 0)
(3 1.14537e-15 0)
(3 1.53016e-15 0)
(3 1.05664e-15 0)
(3 5.81252e-16 0)
(3 5.25371e-16 0)
(3 5.23728e-16 0)
(3 6.49282e-17 0)
(3 2.05002e-16 0)
(3 2.12159e-16 0)
(3 7.47342e-16 0)
(3 1.04655e-15 0)
(3 9.1305e-16 0)
(3 9.98884e-16 0)
(3 9.95843e-16 0)
(3 3.22333e-16 0)
(3 2.05184e-16 0)
(3 -4.89118e-17 0)
(3 -7.84897e-16 0)
(3 -1.27726e-15 0)
(3 -1.27009e-15 0)
(3 -1.13714e-15 0)
(3 -1.04429e-15 0)
(3 -5.12791e-16 0)
(3 -2.55776e-16 0)
(3 -4.22661e-16 0)
(3 -5.6746e-16 0)
(3 7.04821e-16 0)
(3 1.53329e-15 0)
(3 1.71281e-15 0)
(3 1.84948e-15 0)
(3 2.09166e-15 0)
(3 2.22836e-15 0)
(3 1.72731e-15 0)
(3 8.07863e-16 0)
(3 4.57719e-16 0)
(3 -4.60134e-16 0)
(3 -8.77701e-16 0)
(3 -1.0483e-15 0)
(3 -1.48141e-15 0)
(3 -1.24242e-15 0)
(3 -1.17173e-15 0)
(3 1.86119e-15 0)
(1.2398 0.0609291 0)
(0.770686 0.0488682 0)
(0.746965 0.0500098 0)
(0.7336 0.0557038 0)
(0.717954 0.0586784 0)
(0.702629 0.0602605 0)
(0.686735 0.0594353 0)
(0.670764 0.0566333 0)
(0.655176 0.0538665 0)
(0.64028 0.0532685 0)
(0.626002 0.0551496 0)
(0.611874 0.0586323 0)
(0.597348 0.062292 0)
(0.582036 0.0644518 0)
(0.566105 0.063704 0)
(0.550268 0.06063 0)
(0.534691 0.0582912 0)
(0.519397 0.0589208 0)
(0.504318 0.0621273 0)
(0.48893 0.0658639 0)
(0.47289 0.0673291 0)
(0.45689 0.0655791 0)
(0.440946 0.0638715 0)
(0.424983 0.0655849 0)
(0.408792 0.0691951 0)
(0.391861 0.0706447 0)
(0.374923 0.0699734 0)
(0.3581 0.0700769 0)
(0.341316 0.0714979 0)
(0.324344 0.0730106 0)
(0.307179 0.074049 0)
(0.289849 0.0748128 0)
(0.27224 0.0754912 0)
(0.254308 0.076128 0)
(0.236165 0.0768154 0)
(0.217959 0.0776607 0)
(0.199836 0.0786256 0)
(0.181904 0.0797198 0)
(0.164147 0.081006 0)
(0.146409 0.0824664 0)
(0.128504 0.0842911 0)
(0.110239 0.0864507 0)
(0.0914782 0.0889635 0)
(0.072142 0.0915959 0)
(0.0522234 0.0943077 0)
(0.03165 0.0958891 0)
(0.0109263 0.0975077 0)
(3 -8.76124e-17 0)
(3 3.23131e-17 0)
(3 2.57613e-16 0)
(3 9.11608e-16 0)
(3 1.23137e-15 0)
(3 1.0327e-15 0)
(3 6.33852e-16 0)
(3 -4.29924e-16 0)
(3 -7.53352e-16 0)
(3 -9.88372e-16 0)
(3 -5.95276e-16 0)
(3 1.25382e-16 0)
(3 6.64455e-16 0)
(3 2.58946e-16 0)
(3 2.69365e-16 0)
(3 3.30419e-16 0)
(3 2.17697e-16 0)
(3 7.40327e-16 0)
(3 1.07751e-15 0)
(3 8.06271e-16 0)
(3 3.64102e-16 0)
(3 -4.36955e-16 0)
(3 -1.35459e-15 0)
(3 -1.28926e-15 0)
(3 -1.50692e-15 0)
(3 -1.06181e-15 0)
(3 -5.49793e-16 0)
(3 -5.50373e-16 0)
(3 -3.9807e-16 0)
(3 -3.66295e-16 0)
(3 -6.27214e-16 0)
(3 -9.45477e-16 0)
(3 -5.3726e-16 0)
(3 7.39166e-16 0)
(3 8.60769e-16 0)
(3 5.05208e-16 0)
(3 8.12148e-16 0)
(3 4.83891e-16 0)
(3 4.8871e-16 0)
(3 1.26311e-16 0)
(3 -3.11868e-16 0)
(3 -5.52025e-16 0)
(3 -2.60576e-16 0)
(3 -9.17664e-16 0)
(3 -1.03943e-15 0)
(3 -1.17558e-15 0)
(3 -7.82072e-16 0)
(3 3.30466e-16 0)
(3 -2.98821e-15 0)
(1.28691 0.0748104 0)
(0.773183 0.0614555 0)
(0.746902 0.0610723 0)
(0.73391 0.0675197 0)
(0.718219 0.0709291 0)
(0.703047 0.0731664 0)
(0.687112 0.07295 0)
(0.670901 0.0702956 0)
(0.654981 0.0669197 0)
(0.639812 0.065576 0)
(0.625573 0.0672369 0)
(0.611816 0.0710119 0)
(0.597774 0.0752613 0)
(0.58282 0.0780616 0)
(0.56695 0.0777979 0)
(0.550946 0.0746647 0)
(0.535123 0.0719018 0)
(0.519635 0.0723578 0)
(0.504661 0.0758616 0)
(0.489623 0.0801406 0)
(0.473906 0.0820337 0)
(0.458133 0.0803508 0)
(0.442281 0.0785945 0)
(0.426396 0.0806234 0)
(0.410419 0.0848312 0)
(0.393617 0.0866178 0)
(0.376712 0.0859153 0)
(0.359828 0.0860627 0)
(0.342966 0.0877481 0)
(0.325897 0.0896096 0)
(0.30861 0.090984 0)
(0.291142 0.0920528 0)
(0.273379 0.0929802 0)
(0.255266 0.0938015 0)
(0.236887 0.0946298 0)
(0.218373 0.0955989 0)
(0.199872 0.0966693 0)
(0.181525 0.0978502 0)
(0.16337 0.099214 0)
(0.145303 0.100733 0)
(0.127184 0.102663 0)
(0.108842 0.105009 0)
(0.0901446 0.107849 0)
(0.0709925 0.110932 0)
(0.0513745 0.114246 0)
(0.0311231 0.116298 0)
(0.0107716 0.118472 0)
(3 1.7698e-16 0)
(3 5.91433e-16 0)
(3 1.17722e-15 0)
(3 1.11052e-15 0)
(3 9.32806e-16 0)
(3 4.69839e-16 0)
(3 1.62092e-16 0)
(3 -5.25367e-16 0)
(3 -6.70379e-16 0)
(3 -1.12869e-15 0)
(3 -3.48076e-16 0)
(3 6.42739e-17 0)
(3 7.04959e-17 0)
(3 1.66439e-16 0)
(3 3.36395e-16 0)
(3 5.35067e-16 0)
(3 8.70819e-16 0)
(3 8.36179e-16 0)
(3 1.33423e-15 0)
(3 1.20805e-15 0)
(3 7.23353e-16 0)
(3 -5.52401e-16 0)
(3 -1.14963e-15 0)
(3 -1.44753e-15 0)
(3 -1.59459e-15 0)
(3 -1.57659e-15 0)
(3 -1.15553e-15 0)
(3 -1.25925e-16 0)
(3 3.33867e-16 0)
(3 2.78175e-16 0)
(3 -6.7222e-17 0)
(3 -1.37969e-16 0)
(3 5.48913e-16 0)
(3 7.86135e-16 0)
(3 1.19113e-15 0)
(3 1.16132e-15 0)
(3 5.67924e-16 0)
(3 -1.02504e-16 0)
(3 -1.34211e-15 0)
(3 -1.95707e-15 0)
(3 -1.70084e-15 0)
(3 -1.65317e-15 0)
(3 -1.47237e-15 0)
(3 -1.459e-15 0)
(3 -1.13834e-15 0)
(3 -1.01861e-15 0)
(3 -8.3935e-16 0)
(3 -1.42731e-16 0)
(3 -1.51424e-15 0)
(1.34673 0.0885673 0)
(0.776759 0.0747173 0)
(0.746963 0.0722846 0)
(0.734077 0.0792906 0)
(0.718326 0.0830818 0)
(0.703351 0.0859849 0)
(0.687498 0.0864831 0)
(0.671179 0.0842194 0)
(0.654999 0.0804019 0)
(0.639495 0.0781042 0)
(0.625072 0.079161 0)
(0.611502 0.0829565 0)
(0.597907 0.0877545 0)
(0.583382 0.0913841 0)
(0.567681 0.091874 0)
(0.551593 0.0889438 0)
(0.53559 0.0857911 0)
(0.519885 0.0858983 0)
(0.504943 0.0894897 0)
(0.490206 0.0942038 0)
(0.474774 0.0965849 0)
(0.459172 0.0951116 0)
(0.443403 0.0933574 0)
(0.427596 0.0956291 0)
(0.411823 0.100363 0)
(0.395121 0.102542 0)
(0.378198 0.101901 0)
(0.361221 0.102113 0)
(0.344278 0.104034 0)
(0.327145 0.106241 0)
(0.309785 0.107994 0)
(0.292235 0.109435 0)
(0.274373 0.110681 0)
(0.256127 0.111746 0)
(0.237558 0.112761 0)
(0.218776 0.113887 0)
(0.19992 0.115085 0)
(0.181154 0.116359 0)
(0.162566 0.117782 0)
(0.144114 0.119301 0)
(0.125712 0.121233 0)
(0.107221 0.123621 0)
(0.0885288 0.126633 0)
(0.0695335 0.130023 0)
(0.0502458 0.133858 0)
(0.0303913 0.136362 0)
(0.0105378 0.139094 0)
(3 7.27771e-17 0)
(3 1.28913e-16 0)
(3 2.86788e-16 0)
(3 -2.73559e-17 0)
(3 -2.94654e-16 0)
(3 -6.45972e-16 0)
(3 -9.68783e-16 0)
(3 -8.86843e-16 0)
(3 -4.71176e-16 0)
(3 -1.48593e-16 0)
(3 7.49847e-17 0)
(3 3.53815e-17 0)
(3 2.43838e-16 0)
(3 7.02641e-16 0)
(3 1.22672e-15 0)
(3 1.06347e-15 0)
(3 8.46872e-16 0)
(3 8.72623e-16 0)
(3 8.75144e-16 0)
(3 9.17212e-16 0)
(3 9.64232e-16 0)
(3 -4.0268e-16 0)
(3 -7.46262e-16 0)
(3 -1.79434e-15 0)
(3 -1.58592e-15 0)
(3 -2.02728e-15 0)
(3 -1.44164e-15 0)
(3 6.8143e-17 0)
(3 4.37251e-16 0)
(3 -2.77533e-17 0)
(3 1.11874e-16 0)
(3 1.5385e-15 0)
(3 1.43091e-15 0)
(3 2.17111e-15 0)
(3 2.14599e-15 0)
(3 1.71112e-15 0)
(3 -1.36773e-18 0)
(3 -1.82039e-15 0)
(3 -3.07739e-15 0)
(3 -3.48275e-15 0)
(3 -3.47689e-15 0)
(3 -2.92745e-15 0)
(3 -2.32359e-15 0)
(3 -2.23734e-15 0)
(3 -1.24268e-15 0)
(3 -9.51822e-16 0)
(3 -1.06294e-15 0)
(3 -9.49525e-16 0)
(3 -4.75781e-15 0)
(1.42066 0.102174 0)
(0.781592 0.0887607 0)
(0.747326 0.0836484 0)
(0.73438 0.0910248 0)
(0.718528 0.0951889 0)
(0.70367 0.0987452 0)
(0.687912 0.0999952 0)
(0.671578 0.0982849 0)
(0.655225 0.0942646 0)
(0.639422 0.0909614 0)
(0.624657 0.0910873 0)
(0.61102 0.0945617 0)
(0.597769 0.0997652 0)
(0.58376 0.104329 0)
(0.568386 0.105816 0)
(0.552355 0.103386 0)
(0.536303 0.0999713 0)
(0.520412 0.0996382 0)
(0.505422 0.103145 0)
(0.490876 0.108189 0)
(0.475629 0.111095 0)
(0.460085 0.109932 0)
(0.444337 0.10818 0)
(0.428568 0.110591 0)
(0.412984 0.115778 0)
(0.396392 0.118418 0)
(0.379459 0.117942 0)
(0.362428 0.118251 0)
(0.345459 0.120383 0)
(0.328334 0.122922 0)
(0.310979 0.125076 0)
(0.293419 0.126943 0)
(0.275522 0.128572 0)
(0.257207 0.129948 0)
(0.238517 0.131212 0)
(0.219544 0.132547 0)
(0.200403 0.133915 0)
(0.181267 0.135308 0)
(0.162263 0.136793 0)
(0.143404 0.138278 0)
(0.124661 0.14013 0)
(0.105932 0.142425 0)
(0.0871307 0.145436 0)
(0.068175 0.148933 0)
(0.0491314 0.153136 0)
(0.029634 0.156009 0)
(0.0102793 0.159235 0)
(3 2.62323e-16 0)
(3 1.0667e-16 0)
(3 -1.66415e-16 0)
(3 -8.49088e-16 0)
(3 -1.28365e-15 0)
(3 -1.2945e-15 0)
(3 -8.45166e-16 0)
(3 -4.40288e-17 0)
(3 -6.59698e-17 0)
(3 6.25261e-18 0)
(3 -5.96052e-17 0)
(3 -3.77833e-16 0)
(3 -8.88939e-16 0)
(3 -3.26768e-16 0)
(3 -3.54906e-16 0)
(3 -2.39794e-16 0)
(3 2.17363e-16 0)
(3 -9.55569e-18 0)
(3 1.06855e-16 0)
(3 7.43723e-16 0)
(3 4.35902e-16 0)
(3 -5.62613e-16 0)
(3 -8.96337e-16 0)
(3 -1.09227e-15 0)
(3 -1.16756e-15 0)
(3 -7.79269e-16 0)
(3 -6.58195e-16 0)
(3 -9.66012e-16 0)
(3 -9.7906e-16 0)
(3 -1.20375e-16 0)
(3 2.30519e-16 0)
(3 9.65335e-16 0)
(3 1.47982e-15 0)
(3 1.42832e-15 0)
(3 1.22498e-15 0)
(3 1.01639e-15 0)
(3 1.58292e-16 0)
(3 -1.08676e-15 0)
(3 -1.51428e-15 0)
(3 -1.97519e-15 0)
(3 -2.59193e-15 0)
(3 -2.62259e-15 0)
(3 -2.59838e-15 0)
(3 -2.29097e-15 0)
(3 -1.87585e-15 0)
(3 -1.79567e-15 0)
(3 -1.78789e-15 0)
(3 -1.69114e-15 0)
(3 -5.19949e-15 0)
(1.51057 0.115634 0)
(0.788064 0.1037 0)
(0.747881 0.0950378 0)
(0.734827 0.102648 0)
(0.718849 0.107319 0)
(0.70402 0.11154 0)
(0.688351 0.113509 0)
(0.672062 0.112404 0)
(0.655588 0.108419 0)
(0.63953 0.104199 0)
(0.624372 0.103203 0)
(0.610442 0.106048 0)
(0.597324 0.11139 0)
(0.583863 0.116851 0)
(0.568991 0.119482 0)
(0.553208 0.117829 0)
(0.537336 0.114329 0)
(0.521468 0.113526 0)
(0.50657 0.116817 0)
(0.492302 0.122086 0)
(0.477324 0.125525 0)
(0.461884 0.124747 0)
(0.446213 0.122965 0)
(0.430523 0.125385 0)
(0.415177 0.130933 0)
(0.398765 0.134097 0)
(0.381878 0.133902 0)
(0.36486 0.134356 0)
(0.347941 0.136681 0)
(0.330918 0.139525 0)
(0.313675 0.142075 0)
(0.296215 0.144389 0)
(0.278393 0.146447 0)
(0.260117 0.148195 0)
(0.241416 0.149775 0)
(0.222357 0.15139 0)
(0.203023 0.152999 0)
(0.183571 0.154579 0)
(0.164152 0.156186 0)
(0.144827 0.157677 0)
(0.125621 0.159453 0)
(0.10647 0.161601 0)
(0.0873208 0.164504 0)
(0.0681039 0.167937 0)
(0.048956 0.172341 0)
(0.0294517 0.175462 0)
(0.0102094 0.179079 0)
(3 -8.16848e-17 0)
(3 -3.68432e-17 0)
(3 -5.16229e-16 0)
(3 -4.65958e-16 0)
(3 -5.17654e-16 0)
(3 -5.8608e-16 0)
(3 -1.65776e-16 0)
(3 2.02528e-16 0)
(3 3.61985e-16 0)
(3 -1.40533e-16 0)
(3 -8.48486e-16 0)
(3 -2.99936e-16 0)
(3 2.61393e-16 0)
(3 4.73423e-16 0)
(3 5.3184e-16 0)
(3 7.05259e-16 0)
(3 7.59179e-16 0)
(3 7.75624e-16 0)
(3 6.94116e-16 0)
(3 2.19256e-17 0)
(3 -3.85389e-16 0)
(3 1.77235e-16 0)
(3 4.77296e-16 0)
(3 3.89156e-16 0)
(3 -6.05601e-16 0)
(3 -1.03251e-15 0)
(3 -1.21648e-15 0)
(3 -1.86873e-15 0)
(3 -1.54339e-15 0)
(3 -1.24362e-15 0)
(3 -9.26992e-16 0)
(3 -1.76841e-16 0)
(3 4.79634e-16 0)
(3 -2.48456e-17 0)
(3 -5.20106e-16 0)
(3 -5.92776e-16 0)
(3 -1.29392e-16 0)
(3 -2.64344e-16 0)
(3 -6.28974e-16 0)
(3 1.69234e-16 0)
(3 3.97475e-16 0)
(3 -3.15299e-16 0)
(3 -1.52647e-15 0)
(3 -2.10533e-15 0)
(3 -2.35315e-15 0)
(3 -2.19492e-15 0)
(3 -1.66088e-15 0)
(3 -1.25866e-15 0)
(3 -1.57593e-15 0)
(1.61899 0.12901 0)
(0.796926 0.119763 0)
(0.748855 0.107063 0)
(0.735231 0.11438 0)
(0.719159 0.119462 0)
(0.704455 0.124271 0)
(0.689001 0.126942 0)
(0.672833 0.126516 0)
(0.656225 0.122836 0)
(0.639853 0.117926 0)
(0.624202 0.115698 0)
(0.609788 0.1177 0)
(0.596373 0.122827 0)
(0.58312 0.128956 0)
(0.568645 0.132762 0)
(0.553076 0.132106 0)
(0.537392 0.128705 0)
(0.521573 0.127396 0)
(0.506762 0.130374 0)
(0.49281 0.135835 0)
(0.478123 0.139844 0)
(0.462766 0.13956 0)
(0.447163 0.137727 0)
(0.431547 0.140012 0)
(0.416492 0.14583 0)
(0.400402 0.14958 0)
(0.383717 0.149774 0)
(0.366886 0.150416 0)
(0.3502 0.152911 0)
(0.333457 0.156019 0)
(0.316485 0.158941 0)
(0.299251 0.161705 0)
(0.281594 0.164231 0)
(0.263412 0.166421 0)
(0.244735 0.16841 0)
(0.225624 0.170401 0)
(0.206135 0.172342 0)
(0.186409 0.174188 0)
(0.166617 0.175981 0)
(0.14686 0.177527 0)
(0.127217 0.179252 0)
(0.107655 0.18124 0)
(0.0881467 0.183986 0)
(0.0686147 0.18725 0)
(0.049249 0.19174 0)
(0.029584 0.195017 0)
(0.0102449 0.198944 0)
(3 -2.43583e-16 0)
(3 -3.42013e-16 0)
(3 -7.80419e-16 0)
(3 -6.32467e-16 0)
(3 -4.54118e-16 0)
(3 -5.81831e-16 0)
(3 -6.35004e-16 0)
(3 -3.49293e-16 0)
(3 1.32062e-16 0)
(3 3.67701e-17 0)
(3 4.05738e-16 0)
(3 1.00579e-15 0)
(3 1.64337e-15 0)
(3 1.70092e-15 0)
(3 1.50244e-15 0)
(3 1.41385e-15 0)
(3 1.10967e-15 0)
(3 6.89927e-16 0)
(3 6.88314e-17 0)
(3 -6.88351e-16 0)
(3 -2.76154e-16 0)
(3 4.2648e-16 0)
(3 2.15205e-16 0)
(3 -1.84424e-16 0)
(3 -4.62251e-16 0)
(3 -1.49571e-15 0)
(3 -2.08501e-15 0)
(3 -2.42904e-15 0)
(3 -2.3395e-15 0)
(3 -2.09698e-15 0)
(3 -1.72311e-15 0)
(3 -6.80589e-16 0)
(3 -4.83694e-16 0)
(3 -5.68764e-16 0)
(3 -7.43701e-16 0)
(3 -1.10844e-15 0)
(3 -8.64013e-16 0)
(3 -7.04133e-17 0)
(3 3.05571e-16 0)
(3 1.01891e-15 0)
(3 9.86145e-16 0)
(3 8.22978e-16 0)
(3 -3.37626e-16 0)
(3 -1.14838e-15 0)
(3 -1.33853e-15 0)
(3 -7.21587e-16 0)
(3 -3.26284e-16 0)
(3 -1.88625e-16 0)
(3 -5.12552e-15 0)
(1.74862 0.141431 0)
(0.808988 0.136712 0)
(0.751515 0.119917 0)
(0.736733 0.126648 0)
(0.720182 0.131644 0)
(0.705522 0.136832 0)
(0.690405 0.140185 0)
(0.674578 0.140599 0)
(0.658053 0.137556 0)
(0.641472 0.132361 0)
(0.625348 0.128926 0)
(0.610375 0.129951 0)
(0.59657 0.134802 0)
(0.583219 0.141308 0)
(0.568987 0.1461 0)
(0.55354 0.146501 0)
(0.537831 0.143348 0)
(0.521878 0.141486 0)
(0.506834 0.143973 0)
(0.492911 0.149528 0)
(0.47834 0.154112 0)
(0.462905 0.154414 0)
(0.447228 0.152516 0)
(0.431513 0.154477 0)
(0.416591 0.160435 0)
(0.400754 0.164812 0)
(0.384195 0.165503 0)
(0.367456 0.16638 0)
(0.350912 0.169047 0)
(0.334376 0.172408 0)
(0.317645 0.175697 0)
(0.300664 0.178919 0)
(0.283265 0.181943 0)
(0.265337 0.184627 0)
(0.246907 0.187087 0)
(0.228026 0.189521 0)
(0.208711 0.191856 0)
(0.189061 0.19402 0)
(0.16923 0.19605 0)
(0.149323 0.197704 0)
(0.129439 0.199432 0)
(0.109575 0.201297 0)
(0.0897384 0.203907 0)
(0.0698437 0.206969 0)
(0.0501262 0.211482 0)
(0.0301105 0.214859 0)
(0.0104198 0.219048 0)
(3 4.98367e-17 0)
(3 -1.72553e-16 0)
(3 -2.47414e-16 0)
(3 -1.74079e-16 0)
(3 2.42408e-16 0)
(3 5.95078e-16 0)
(3 9.07891e-17 0)
(3 1.43241e-16 0)
(3 1.54898e-16 0)
(3 8.83518e-16 0)
(3 1.84028e-15 0)
(3 2.26151e-15 0)
(3 1.92702e-15 0)
(3 1.19645e-15 0)
(3 1.09423e-15 0)
(3 1.69718e-15 0)
(3 1.35317e-15 0)
(3 7.08554e-18 0)
(3 -7.39303e-16 0)
(3 -8.57446e-16 0)
(3 -8.23466e-16 0)
(3 -9.8452e-16 0)
(3 -1.06654e-15 0)
(3 -1.17254e-15 0)
(3 -9.23617e-16 0)
(3 -6.97234e-16 0)
(3 -8.37944e-16 0)
(3 -1.26123e-15 0)
(3 -2.2371e-15 0)
(3 -1.78247e-15 0)
(3 7.08538e-17 0)
(3 -2.53939e-17 0)
(3 -1.03237e-15 0)
(3 -1.19874e-15 0)
(3 -1.91025e-15 0)
(3 -1.38556e-15 0)
(3 -1.15353e-15 0)
(3 -9.18216e-16 0)
(3 -5.60895e-17 0)
(3 1.36039e-16 0)
(3 5.60024e-16 0)
(3 1.32374e-15 0)
(3 1.577e-15 0)
(3 1.03962e-15 0)
(3 -3.45891e-16 0)
(3 -2.66405e-16 0)
(3 -3.87246e-17 0)
(3 2.262e-16 0)
(3 -1.41822e-15 0)
(1.89966 0.151707 0)
(0.824966 0.153912 0)
(0.754514 0.133405 0)
(0.739308 0.13918 0)
(0.722718 0.143715 0)
(0.708488 0.148858 0)
(0.694099 0.152678 0)
(0.678952 0.153963 0)
(0.662789 0.151885 0)
(0.646185 0.146957 0)
(0.629741 0.142533 0)
(0.614224 0.14238 0)
(0.600075 0.146663 0)
(0.586676 0.153384 0)
(0.572704 0.159038 0)
(0.557461 0.160641 0)
(0.541657 0.158077 0)
(0.525488 0.155789 0)
(0.509963 0.157702 0)
(0.495758 0.163244 0)
(0.481154 0.168386 0)
(0.465516 0.16939 0)
(0.449612 0.167481 0)
(0.433578 0.168992 0)
(0.4185 0.174956 0)
(0.4027 0.179975 0)
(0.38601 0.181271 0)
(0.369066 0.182425 0)
(0.35236 0.185234 0)
(0.335736 0.188775 0)
(0.319001 0.192343 0)
(0.302103 0.195942 0)
(0.284882 0.199408 0)
(0.267203 0.202558 0)
(0.249068 0.205493 0)
(0.230497 0.208409 0)
(0.211452 0.211205 0)
(0.191975 0.213781 0)
(0.172185 0.216159 0)
(0.152165 0.218049 0)
(0.132039 0.219911 0)
(0.111833 0.221765 0)
(0.0916171 0.22433 0)
(0.0713005 0.227215 0)
(0.0511696 0.231728 0)
(0.0307527 0.235165 0)
(0.0106249 0.239584 0)
(3 2.95157e-17 0)
(3 -1.5869e-16 0)
(3 9.73756e-17 0)
(3 8.1651e-16 0)
(3 1.06563e-15 0)
(3 8.66533e-16 0)
(3 8.86891e-16 0)
(3 8.4383e-16 0)
(3 6.67882e-16 0)
(3 1.04715e-15 0)
(3 1.20377e-15 0)
(3 1.1451e-15 0)
(3 7.95764e-16 0)
(3 9.69682e-16 0)
(3 1.87509e-15 0)
(3 1.97463e-15 0)
(3 9.92581e-16 0)
(3 3.48654e-16 0)
(3 -2.01404e-16 0)
(3 -7.80663e-16 0)
(3 -1.09362e-15 0)
(3 -1.18996e-15 0)
(3 -1.08175e-15 0)
(3 -4.63474e-16 0)
(3 -2.65038e-16 0)
(3 -3.70809e-16 0)
(3 -3.10052e-16 0)
(3 -1.70036e-16 0)
(3 -2.51613e-16 0)
(3 -5.72449e-16 0)
(3 -6.37336e-16 0)
(3 -9.48956e-16 0)
(3 -6.11053e-16 0)
(3 -1.77822e-15 0)
(3 -2.44179e-15 0)
(3 -2.30483e-15 0)
(3 -1.38235e-15 0)
(3 -3.94397e-16 0)
(3 -5.64267e-17 0)
(3 -1.68867e-16 0)
(3 1.29779e-15 0)
(3 2.23249e-15 0)
(3 1.98205e-15 0)
(3 1.57687e-15 0)
(3 6.755e-16 0)
(3 1.38165e-16 0)
(3 -6.55797e-16 0)
(3 -4.70146e-16 0)
(3 -2.86827e-15 0)
(2.06952 0.159425 0)
(0.843468 0.172791 0)
(0.754506 0.148361 0)
(0.738038 0.151858 0)
(0.721762 0.155956 0)
(0.707833 0.160315 0)
(0.694394 0.164545 0)
(0.680205 0.166934 0)
(0.664674 0.166125 0)
(0.648241 0.162026 0)
(0.631609 0.157108 0)
(0.615536 0.155663 0)
(0.600906 0.159083 0)
(0.587482 0.165707 0)
(0.573923 0.171992 0)
(0.559309 0.174666 0)
(0.54399 0.17293 0)
(0.528306 0.170366 0)
(0.512866 0.171541 0)
(0.498833 0.176863 0)
(0.484673 0.182512 0)
(0.469188 0.184349 0)
(0.45321 0.182604 0)
(0.436875 0.183661 0)
(0.421525 0.189565 0)
(0.405693 0.195277 0)
(0.388804 0.197327 0)
(0.371588 0.198822 0)
(0.35466 0.201749 0)
(0.337898 0.205388 0)
(0.321108 0.209129 0)
(0.304224 0.212994 0)
(0.287087 0.216811 0)
(0.269532 0.220366 0)
(0.251539 0.223747 0)
(0.233121 0.227152 0)
(0.21422 0.230462 0)
(0.194834 0.233531 0)
(0.175053 0.236362 0)
(0.154928 0.238604 0)
(0.134589 0.240719 0)
(0.114075 0.242671 0)
(0.0935184 0.245282 0)
(0.0727893 0.248023 0)
(0.052278 0.252526 0)
(0.0314333 0.255981 0)
(0.0108497 0.260598 0)
(3 -1.04208e-16 0)
(3 -1.83551e-16 0)
(3 1.44748e-16 0)
(3 4.64888e-16 0)
(3 9.27209e-16 0)
(3 7.54779e-16 0)
(3 9.17844e-16 0)
(3 1.22085e-15 0)
(3 1.24216e-15 0)
(3 7.77934e-16 0)
(3 6.12284e-16 0)
(3 8.87116e-16 0)
(3 1.11957e-15 0)
(3 1.17078e-15 0)
(3 1.64886e-15 0)
(3 1.03644e-15 0)
(3 2.51319e-16 0)
(3 -2.26698e-16 0)
(3 -8.8426e-16 0)
(3 -1.28427e-15 0)
(3 -1.3336e-15 0)
(3 -5.00917e-16 0)
(3 5.89749e-17 0)
(3 6.42459e-16 0)
(3 6.03712e-16 0)
(3 1.06492e-16 0)
(3 4.79373e-17 0)
(3 5.71398e-16 0)
(3 1.5415e-15 0)
(3 1.4075e-15 0)
(3 -6.16519e-16 0)
(3 -8.17507e-16 0)
(3 -4.59631e-16 0)
(3 -2.38688e-16 0)
(3 -3.74072e-16 0)
(3 -1.11772e-15 0)
(3 -6.9208e-16 0)
(3 4.84102e-16 0)
(3 7.51615e-16 0)
(3 7.06942e-16 0)
(3 7.19555e-16 0)
(3 7.65093e-16 0)
(3 4.96246e-16 0)
(3 2.46323e-16 0)
(3 3.92862e-16 0)
(3 9.81866e-16 0)
(3 5.1588e-16 0)
(3 3.16111e-16 0)
(3 -3.0271e-15 0)
(2.26176 0.163308 0)
(0.870157 0.193331 0)
(0.755954 0.165028 0)
(0.739227 0.165169 0)
(0.724172 0.168218 0)
(0.710751 0.17231 0)
(0.697426 0.176331 0)
(0.683433 0.179667 0)
(0.667784 0.18025 0)
(0.650905 0.177338 0)
(0.63374 0.172396 0)
(0.617058 0.169615 0)
(0.601871 0.171736 0)
(0.588423 0.177829 0)
(0.575285 0.184454 0)
(0.561254 0.188008 0)
(0.546401 0.187242 0)
(0.531135 0.184669 0)
(0.515682 0.185109 0)
(0.501662 0.1901 0)
(0.487949 0.1963 0)
(0.472723 0.199194 0)
(0.456773 0.197898 0)
(0.440342 0.198546 0)
(0.424946 0.204254 0)
(0.409481 0.210594 0)
(0.392851 0.213464 0)
(0.375775 0.215333 0)
(0.358881 0.218357 0)
(0.342099 0.222067 0)
(0.325216 0.225963 0)
(0.308169 0.230095 0)
(0.290836 0.234278 0)
(0.273068 0.238251 0)
(0.254861 0.242075 0)
(0.23627 0.24596 0)
(0.217251 0.249786 0)
(0.19778 0.253368 0)
(0.177906 0.2567 0)
(0.157628 0.25937 0)
(0.137059 0.261835 0)
(0.116229 0.263994 0)
(0.0953354 0.266744 0)
(0.0741779 0.269398 0)
(0.0533181 0.273892 0)
(0.0320536 0.277332 0)
(0.0110473 0.282113 0)
(3 -6.43327e-17 0)
(3 9.65503e-17 0)
(3 4.97724e-18 0)
(3 -3.88028e-16 0)
(3 -2.99235e-16 0)
(3 6.88535e-17 0)
(3 4.25399e-16 0)
(3 4.81791e-16 0)
(3 8.64095e-16 0)
(3 1.20014e-15 0)
(3 1.36651e-15 0)
(3 1.44769e-15 0)
(3 1.93102e-15 0)
(3 1.4038e-15 0)
(3 4.55807e-16 0)
(3 1.08122e-16 0)
(3 -9.53168e-17 0)
(3 -2.74728e-18 0)
(3 3.87253e-16 0)
(3 3.9448e-17 0)
(3 -4.16319e-16 0)
(3 -2.93774e-16 0)
(3 2.35382e-16 0)
(3 4.24075e-16 0)
(3 1.37171e-16 0)
(3 -3.07974e-18 0)
(3 3.39492e-16 0)
(3 1.38633e-15 0)
(3 1.38291e-15 0)
(3 7.28844e-16 0)
(3 -2.66111e-16 0)
(3 -4.28696e-16 0)
(3 -1.85486e-17 0)
(3 1.39863e-16 0)
(3 7.02189e-16 0)
(3 8.74927e-16 0)
(3 6.74127e-16 0)
(3 7.37e-16 0)
(3 3.61836e-16 0)
(3 3.23275e-16 0)
(3 -1.50182e-16 0)
(3 -4.77462e-16 0)
(3 -8.92896e-16 0)
(3 1.04676e-16 0)
(3 9.30388e-16 0)
(3 1.51598e-15 0)
(3 2.09638e-15 0)
(3 1.59373e-15 0)
(3 1.41516e-15 0)
(2.46898 0.164969 0)
(0.906527 0.216152 0)
(0.765198 0.182216 0)
(0.750107 0.17677 0)
(0.734863 0.179045 0)
(0.720957 0.18337 0)
(0.706536 0.188384 0)
(0.691648 0.192932 0)
(0.675324 0.19509 0)
(0.657853 0.193441 0)
(0.640138 0.188731 0)
(0.622801 0.184693 0)
(0.606676 0.185148 0)
(0.592497 0.190199 0)
(0.579123 0.196939 0)
(0.56493 0.201321 0)
(0.549747 0.20161 0)
(0.534016 0.199327 0)
(0.518078 0.198978 0)
(0.503442 0.203312 0)
(0.489955 0.209875 0)
(0.475181 0.213832 0)
(0.459584 0.213151 0)
(0.443528 0.21334 0)
(0.428475 0.218619 0)
(0.413787 0.225447 0)
(0.397782 0.229241 0)
(0.38107 0.23165 0)
(0.364255 0.234923 0)
(0.347398 0.238864 0)
(0.330297 0.243064 0)
(0.312931 0.247571 0)
(0.295258 0.252177 0)
(0.277166 0.256574 0)
(0.258669 0.260792 0)
(0.239851 0.265077 0)
(0.22068 0.269344 0)
(0.201092 0.273393 0)
(0.181096 0.277222 0)
(0.160629 0.28037 0)
(0.139795 0.283273 0)
(0.118615 0.285754 0)
(0.0973247 0.288732 0)
(0.0757382 0.291368 0)
(0.0544525 0.295849 0)
(0.0327426 0.299241 0)
(0.0112498 0.304147 0)
(3 1.78671e-16 0)
(3 4.44322e-16 0)