/*--------------------------------*- C++ -*----------------------------------*\
  =========                 |
  \\      /  F ield         | OpenFOAM: The Open Source CFD Toolbox
   \\    /   O peration     | Website:  https://openfoam.org
    \\  /    A nd           | Version:  7
     \\/     M anipulation  |
\*---------------------------------------------------------------------------*/
FoamFile
{
    version     2.0;
    format      ascii;
    class       volScalarField;
    location    "0.6";
    object      p;
}
// * * * * * * * * * * * * * * * * * * * * * * * * * * * * * * * * * * * * * //

dimensions      [1 -1 -2 0 0 0 0];

internalField   nonuniform List<scalar> 
4032
(
1
1
1
1
1
1
1
1
1
1
1
1
1
1
2.60272
9.70784
11.3543
11.5437
11.7977
11.9666
12.1535
12.2797
12.4677
12.5964
1
1
1
1
1
1
1
1
1
1
1
1
1
1
2.49526
9.50485
11.3074
11.5183
11.7563
11.9328
12.1157
12.237
12.4066
12.5217
1
1
1
1
1
1
1
1
1
1
1
1
1
1
2.24503
9.13718
11.2478
11.4596
11.6985
11.8831
12.0634
12.1789
12.3203
12.4111
1
1
1
1
1
1
1
1
1
1
1
1
1
1
1.85493
8.55869
11.1991
11.3926
11.6311
11.8108
11.9825
12.0818
12.1916
12.247
1
1
1
1
1
1
1
1
1
1
1
1
1
1
1.36484
7.67353
11.1321
11.3056
11.5282
11.6812
11.8204
11.8908
11.9874
12.0473
1
1
1
1
1
1
1
1
1
1
1
1
1
1
1.02296
6.47927
10.9636
11.1392
11.3295
11.4845
11.6344
11.6955
11.7793
11.7488
1
1
1
1
1
1
1
1
1
1
1
1
1
1
1.00021
5.05636
10.5961
10.9734
11.136
11.2731
11.3754
11.3209
11.3341
11.3013
1
1
1
1
1
1
1
1
1
1
1
1
1
1
1
3.56092
9.96658
10.8195
10.9115
10.993
11.0251
10.9148
10.8593
10.9227
1
1
1
1
1
1
1
1
1
1
1
1
1
1
1
2.14222
8.94449
10.6521
10.6488
10.6818
10.6076
10.313
9.53183
7.50634
1
1
1
1
1
1
1
1
1
1
1
1
1
1
1
1.14027
7.30489
10.3713
10.302
10.2309
10.0447
9.5561
8.6888
6.59323
1
1
1
1
1
1
1
1
1
1
1
1
1
1
1
1.00198
5.02786
9.82503
9.99023
9.88257
9.6081
9.06483
8.12274
6.22858
1
1
1
1
1
1
1
1
1
1
1
1
1
1
1
0.999997
2.64236
8.87769
9.72578
9.54309
9.18823
8.61258
7.60875
6.09164
1
1
1
1
1
1
1
1
1
1
1
1
1
1
1
1
1.19279
6.89557
9.44133
9.17929
8.82426
8.24692
7.34379
6.14884
1
1
1
1
1
1
1
1
1
1
1
1
1
1
1
1
1.00319
3.8348
8.63537
8.94339
8.53836
7.9737
7.16563
6.1724
1
1
1
1
1
1
1
1
1
1
1
1
1
1
1
1
0.999999
1.4536
7.02369
8.79609
8.26883
7.74717
7.05172
6.22409
1
1
1
1
1
1
1
1
1
1
1
1
1
1
1
1
1
1.0151
3.78877
8.02505
8.16143
7.62043
6.99733
6.27821
1
1
1
1
1
1
1
1
1
1
1
1
1
1
1
1
1
1.00004
1.42683
6.15772
8.11635
7.55235
6.92246
6.28041
1
1
1
1
1
1
1
1
1
1
1
1
1
1
1
1
1
1
1.01215
2.73829
7.0478
7.59511
6.97304
6.39868
1
1
1
1
1
1
1
1
1
1
1
1
1
1
1
1
1
1
1.00004
1.17602
4.47535
7.23764
6.94243
6.36355
1
1
1
1
1
1
1
1
1
1
1
1
1
1
1
1
1
1
1
1.00271
1.74541
5.58258
6.99107
6.49129
1
1
1
1
1
1
1
1
1
1
1
1
1
1
1
1
1
1
1
1.00001
1.03572
2.55838
5.98091
6.57534
1
1
1
1
1
1
1
1
1
1
1
1
1
1
1
1
1
1
1
1
1.00028
1.14589
3.24463
5.96023
1
1
1
1
1
1
1
1
1
1
1
1
1
1
1
1
1
1
1
1
1
1.00233
1.31686
3.66484
1
1
1
1
1
1
1
1
1
1
1
1
1
1
1
1
1
1
1
1
1
1.00001
1.00853
1.48812
1
1
1
1
1
1
1
1
1
1
1
1
1
1
1
1
1
1
1
1
1
1
1.00004
1.01816
1
1
1
1
1
1
1
1
1
1
1
1
1
1
1
1
1
1
1
1
1
1
1
1.00012
1
1
1
1
1
1
1
1
1
1
1
1
1
1
1
1
1
1
1
1
1
1
1
1
1
1
1
1
1
1
1
1
1
1
1
1
1
1
1
1
1
1
1
1
1
1
1
1
1
1
1
1
1
1
1
1
1
1
1
1
1
1
1
1
1
1
1
1
1
1
1
1
1
1
1
1
1
1
1
1
1
1
1
1
1
1
1
1
1
1
1
1
1
1
1
1
1
1
1
1
1
1
1
1
1
1
1
1
1
1
1
1
1
1
1
1
1
1
1
1
1
1
1
1
1
1
1
1
1
1
1
1
1
1
1
1
1
1
1
1
1
1
1
1
1
1
1
1
1
1
1
1
1
1
1
1
1
1
1
1
1
1
1
1
1
1
1
1
1
1
1
1
1
1
1
1
1
1
1
1
1
1
1
1
1
1
1
1
1
1
1
1
1
1
1
1
1
1
1
1
1
1
1
1
1
1
1
1
1
1
1
1
1
1
1
1
1
1
1
1
1
1
1
1
1
1
1
1
1
1
1
1
1
1
1
1
1
1
1
1
1
1
1
1
1
1
1
1
1
1
1
1
1
1
1
1
1
1
1
1
1
1
1
1
1
1
1
1
1
1
1
1
1
1
1
1
1
1
1
1
1
1
1
1
1
1
1
1
1
1
1
1
1
1
1
1
1
1
1
1
1
1
1
1
1
1
1
1
1
1
1
1
1
1
1
1
1
1
1
1
1
1
1
1
1
1
1
1
1
1
1
1
1
1
1
1
1.62334
0.493556
0.213112
0.132834
0.145501
0.222157
0.344736
0.470566
0.660201
0.822658
0.91926
0.920955
0.898821
0.922877
0.968929
0.990269
1.00637
1.02192
1.03563
1.02848
1.01128
0.992124
0.969894
0.952483
0.946071
0.939569
0.93425
0.934925
0.92956
0.917657
0.898875
0.873442
0.863993
0.861946
0.860158
0.865476
0.879976
0.881705
0.874144
0.859227
0.833544
0.825213
0.82976
0.840248
0.856422
0.873771
0.887936
0.897411
0.906346
0.898976
0.883895
0.882617
0.892404
0.913554
0.931308
0.937423
0.941118
0.944019
0.946047
0.947006
0.948445
0.951838
0.957926
0.966244
0.979097
0.995538
1.00058
1.00275
0.998541
0.99441
0.992192
0.994217
1.00187
1.00357
1.00168
0.999918
0.99891
0.998473
0.998419
0.998307
0.998116
0.998013
0.998945
1.00446
1.0201
1.03952
1.04597
1.04628
1.04633
1.04613
1.04462
1.0392
1.02549
1.00759
1.00049
1
2.86849
1.48965
1.0358
0.709513
0.498193
0.504488
0.506439
0.496099
0.511211
0.554645
0.619137
0.665816
0.710996
0.773423
0.850215
0.897983
0.925448
0.963189
0.983248
0.982352
0.97621
0.961845
0.951475
0.951812
0.952058
0.949371
0.946216
0.944935
0.938246
0.923933
0.904895
0.884191
0.871283
0.866657
0.8635
0.862083
0.866803
0.868854
0.863872
0.856367
0.845109
0.840403
0.842546
0.84996
0.859106
0.867904
0.876416
0.883553
0.887212
0.886248
0.886717
0.894062
0.907853
0.922555
0.929949
0.934474
0.938861
0.943289
0.94733
0.950367
0.953118
0.957145
0.964066
0.974806
0.98178
0.968016
0.960501
0.985594
1.00162
1.00021
0.99546
0.993341
0.994871
0.998216
0.997201
0.995662
0.995298
0.995675
0.995917
0.995967
0.995926
0.995923
0.997234
1.00474
1.02239
1.04141
1.04677
1.04696
1.04696
1.04663
1.04475
1.03855
1.02429
1.00687
1.00041
1
3.79408
2.38694
1.69763
1.29294
0.985986
0.833133
0.727641
0.615102
0.535606
0.545546
0.577237
0.610689
0.654464
0.701164
0.759116
0.804372
0.831302
0.874074
0.929267
0.958527
0.969991
0.968853
0.973398
0.988664
0.984594
0.973948
0.963928
0.950145
0.934696
0.916735
0.894322
0.878587
0.875968
0.876932
0.877095
0.875734
0.869694
0.858335
0.844038
0.835751
0.836277
0.840347
0.848921
0.863794
0.873788
0.877807
0.8817
0.881743
0.875787
0.868663
0.87275
0.894542
0.921276
0.93419
0.938584
0.940326
0.939996
0.938523
0.937732
0.939475
0.944381
0.953963
0.970036
0.990021
0.997585
0.972026
0.960504
0.984423
1.00334
1.00522
1.00369
1.00326
1.00519
1.00446
1.00111
0.997576
0.995783
0.996116
0.996471
0.996495
0.996433
0.996568
0.998486
1.00657
1.02508
1.04324
1.04759
1.04774
1.04777
1.04728
1.04493
1.03795
1.02269
1.00573
1.00028
1
4.40517
3.22254
2.43734
1.86922
1.4576
1.24032
1.09257
0.932806
0.772615
0.745933
0.710133
0.648283
0.630993
0.641029
0.661026
0.675849
0.702513
0.749643
0.811633
0.856118
0.876634
0.897261
0.928552
0.973618
1.00589
1.00488
0.993627
0.967822
0.93396
0.90489
0.881528
0.872067
0.871042
0.874027
0.878191
0.878363
0.87525
0.865756
0.849554
0.838848
0.835956
0.835901
0.841952
0.853061
0.860908
0.866621
0.871531
0.875586
0.876653
0.875282
0.882064
0.906366
0.925458
0.930065
0.932067
0.93401
0.934734
0.933505
0.932383
0.934423
0.941136
0.95352
0.971517
0.989132
0.988914
0.962417
0.960334
0.987232
1.00449
1.00581
1.00502
1.0063
1.00784
1.00591
1.00252
0.998025
0.995085
0.995182
0.995616
0.995592
0.995463
0.995804
0.999057
1.00941
1.02949
1.04586
1.04886
1.04896
1.04892
1.04809
1.04511
1.03698
1.0204
1.00433
1.00016
1
4.84727
3.77983
3.0181
2.46421
1.98663
1.63488
1.4043
1.20649
1.03558
0.961861
0.887403
0.788829
0.694348
0.682595
0.668868
0.64672
0.641029
0.653129
0.687356
0.730869
0.770868
0.812594
0.8501
0.892826
0.941547
0.965957
0.98338
0.981229
0.960577
0.92356
0.895322
0.881674
0.876156
0.874506
0.874544
0.871846
0.864374
0.852489
0.844482
0.842031
0.84077
0.843515
0.850878
0.854391
0.856237
0.855992
0.85542
0.859736
0.864602
0.870758
0.892236
0.924753
0.936927
0.936241
0.934244
0.932103
0.930216
0.928511
0.92943
0.937852
0.955716
0.977647
0.992529
0.993033
0.977487
0.957316
0.969397
0.997116
1.0066
1.00616
1.00519
1.00639
1.00752
1.00665
1.00411
0.999088
0.994442
0.993637
0.993816
0.993686
0.993632
0.994864
0.999908
1.01301
1.03496
1.04892
1.05071
1.0508
1.05059
1.04917
1.04512
1.03522
1.01716
1.00282
1.00007
1
5.12834
4.23121
3.49377
2.90055
2.41908
2.05389
1.79279
1.52934
1.29436
1.18877
1.09489
0.994099
0.882685
0.839102
0.792624
0.720744
0.667768
0.66501
0.662393
0.658755
0.665058
0.695366
0.740145
0.790092
0.858786
0.903125
0.932025
0.950769
0.950554
0.937646
0.923797
0.915538
0.9036
0.885557
0.868968
0.85539
0.844391
0.839089
0.836105
0.836941
0.844324
0.856217
0.861698
0.859188
0.853013
0.844292
0.846003
0.852926
0.861035
0.87396
0.90712
0.938996
0.94221
0.935051
0.926935
0.919844
0.915095
0.911307
0.912486
0.92801
0.95846
0.984573
0.989586
0.978425
0.962313
0.95895
0.984244
1.00447
1.00597
1.00501
1.0043
1.00611
1.00856
1.00894
1.00609
0.999648
0.993509
0.992177
0.991989
0.991732
0.991846
0.993866
1.00069
1.01747
1.04122
1.0521
1.05302
1.05308
1.05256
1.05048
1.04522
1.03279
1.01316
1.00148
1.00002
1
5.34532
4.53249
3.85547
3.30491
2.81377
2.38619
2.09092
1.83658
1.6065
1.45252
1.32152
1.16933
1.02979
0.973061
0.915658
0.836287
0.745805
0.712022
0.69403
0.666073
0.657353
0.661163
0.670733
0.691088
0.729881
0.787194
0.840929
0.893222
0.916571
0.914078
0.92003
0.924357
0.918983
0.899834
0.869653
0.847752
0.841833
0.840104
0.838607
0.840209
0.850514
0.858835
0.85473
0.844073
0.829815
0.828659
0.835063
0.846866
0.867577
0.898504
0.934338
0.949175
0.941674
0.927876
0.91117
0.899419
0.894922
0.895597
0.907467
0.940344
0.9794
0.991984
0.982578
0.96993
0.962292
0.968978
0.990953
1.00234
1.00285
1.00259
1.00377
1.008
1.01239
1.0133
1.00934
1.00033
0.991897
0.989828
0.989394
0.989098
0.989854
0.993172
1.00283
1.02437
1.04814
1.05521
1.05559
1.05558
1.05473
1.0519
1.04479
1.02894
1.00871
1.00058
1
1
5.50292
4.7834
4.16295
3.61144
3.123
2.73712
2.41914
2.09677
1.82465
1.67697
1.55339
1.40112
1.2282
1.13452
1.05079
0.96433
0.878738
0.836651
0.810776
0.766099
0.709786
0.68258
0.677358
0.667961
0.664798
0.676538
0.715035
0.777167
0.846943
0.878463
0.893988
0.901889
0.900062
0.888488
0.871684
0.861351
0.857766
0.861506
0.862063
0.858881
0.85818
0.854794
0.841265
0.819017
0.809631
0.812836
0.822368
0.842253
0.883318
0.925826
0.939992
0.939502
0.932235
0.917233
0.897928
0.886693
0.886025
0.900136
0.943139
1.00557
1.02712
1.0047
0.980684
0.96882
0.968153
0.977127
0.989744
0.996856
0.999644
1.00132
1.00515
1.01232
1.0179
1.01897
1.01345
1.00035
0.989478
0.986936
0.986318
0.98604
0.987199
0.992223
1.00641
1.03353
1.05475
1.05846
1.05868
1.05862
1.05736
1.05339
1.04325
1.02315
1.00456
1.00015
1
1
5.60435
4.96085
4.38492
3.8812
3.40854
2.98907
2.66777
2.37895
2.10696
1.90331
1.73982
1.56968
1.40887
1.30613
1.21243
1.10479
0.986016
0.940734
0.908021
0.856853
0.79212
0.739726
0.714361
0.678325
0.657047
0.662392
0.677689
0.703199
0.751126
0.809568
0.840828
0.860306
0.865827
0.860762
0.854845
0.856708
0.869354
0.884954
0.886859
0.879215
0.867494
0.853202
0.828301
0.807169
0.801926
0.804222
0.815142
0.837495
0.878322
0.915771
0.922931
0.921169
0.916641
0.90324
0.889435
0.887187
0.897861
0.932189
1.00052
1.03175
1.0054
0.974822
0.957959
0.954131
0.962903
0.98187
0.994466
0.99685
0.999499
1.00432
1.01221
1.01956
1.02323
1.02257
1.01438
0.998109
0.986377
0.984101
0.983633
0.983925
0.986138
0.99329
1.01284
1.04399
1.06057
1.06232
1.06256
1.06244
1.06062
1.0546
1.03952
1.01558
1.00166
1.00002
1
1
5.76654
5.15833
4.60933
4.0965
3.6367
3.26455
2.94093
2.61129
2.31439
2.11664
1.95263
1.76991
1.57962
1.44516
1.33638
1.23344
1.11966
1.07144
1.0284
0.9672
0.899777
0.849411
0.811042
0.762808
0.707367
0.690752
0.69344
0.705292
0.715855
0.730668
0.748129
0.774778
0.804614
0.819392
0.827203
0.835705
0.852105
0.870579
0.875078
0.86936
0.858804
0.845217
0.827423
0.816131
0.81
0.810655
0.82158
0.84109
0.869115
0.895359
0.904976
0.906382
0.902992
0.893354
0.887297
0.896884
0.924334
0.96641
1.00226
0.99445
0.964835
0.940798
0.934632
0.940218
0.957391
0.982681
0.999929
1.00628
1.01155
1.01862
1.02394
1.02636
1.02515
1.01934
1.00838
0.991862
0.981673
0.980226
0.980328
0.981477
0.985175
0.996031
1.02215
1.05454
1.06595
1.06686
1.06715
1.06686
1.06396
1.0542
1.03228
1.00789
1.00036
1
1
1
5.8207
5.26756
4.76934
4.31781
3.87799
3.4797
3.17256
2.8853
2.59128
2.33152
2.12715
1.93168
1.75944
1.63116
1.5145
1.3549
1.21501
1.17945
1.13656
1.07931
1.01211
0.959407
0.908991
0.848532
0.774405
0.724772
0.720179
0.724289
0.715644
0.713113
0.722052
0.735158
0.749376
0.770486
0.786532
0.801323
0.820453
0.839944
0.845237
0.839217
0.829983
0.824875
0.829715
0.831865
0.83091
0.832696
0.836929
0.84909
0.870327
0.888473
0.898125
0.901994
0.90024
0.898687
0.905904
0.926388
0.95771
0.979695
0.971863
0.948202
0.93154
0.927371
0.930514
0.942726
0.963859
0.988531
1.00772
1.02028
1.02799
1.03168
1.03357
1.03312
1.02695
1.01526
0.998379
0.983361
0.97904
0.979115
0.97974
0.981331
0.986253
1.00143
1.0342
1.06489
1.07182
1.07243
1.0727
1.07188
1.06651
1.05002
1.02128
1.00257
1.00004
1
1
1
5.9311
5.40882
4.89832
4.4561
4.06979
3.70007
3.35982
3.04087
2.77181
2.54815
2.34339
2.11837
1.90006
1.78132
1.67564
1.5287
1.36681
1.30055
1.24818
1.17685
1.099
1.0567
1.01597
0.959889
0.880517
0.802247
0.788406
0.787057
0.768074
0.738478
0.737179
0.744406
0.747573
0.744359
0.74229
0.749301
0.767831
0.792014
0.803371
0.798146
0.794644
0.800709
0.811636
0.822811
0.829039
0.831251
0.834581
0.847513
0.869742
0.888582
0.899094
0.903003
0.904606
0.911618
0.930898
0.960752
0.985558
0.981985
0.959647
0.937346
0.927553
0.935094
0.955709
0.982394
1.00611
1.02198
1.02993
1.03164
1.031
1.02974
1.03085
1.0322
1.02668
1.00875
0.98718
0.978003
0.976807
0.976968
0.978269
0.981306
0.989302
1.01079
1.04928
1.07499
1.07876
1.07934
1.07949
1.07732
1.06646
1.03988
1.0097
1.00042
1
1
1
1
6.11549
5.58904
5.08942
4.64072
4.26091
3.88369
3.52138
3.22581
2.95509
2.70769
2.50991
2.29073
2.07426
1.93929
1.83199
1.68439
1.50318
1.42374
1.37486
1.30851
1.20528
1.14775
1.10836
1.05348
0.978793
0.890682
0.863476
0.854778
0.827337
0.784795
0.756344
0.757487
0.755445
0.740245
0.734449
0.737901
0.754229
0.775895
0.788708
0.78571
0.778891
0.778229
0.784181
0.794365
0.804415
0.812645
0.821463
0.834293
0.84965
0.860905
0.86578
0.867547
0.871782
0.884317
0.90724
0.936457
0.959931
0.967188
0.964079
0.957439
0.95954
0.976155
1.00524
1.03083
1.03986
1.04241
1.04264
1.04148
1.03919
1.03328
1.0268
1.02128
1.01054
0.990899
0.976301
0.973799
0.97388
0.974988
0.977243
0.982167
0.994721
1.02431
1.06602
1.08472
1.08664
1.08719
1.08691
1.08132
1.06027
1.02382
1.00244
1.00003
1
1
1
1
6.21431
5.80755
5.27459
4.82393
4.44099
4.08561
3.74013
3.38672
3.08438
2.88256
2.70352
2.49635
2.23253
2.05368
1.97684
1.87118
1.70517
1.53775
1.47282
1.41227
1.31344
1.24509
1.20446
1.15711
1.08395
0.981824
0.94666
0.937831
0.910279
0.865328
0.818478
0.806013
0.799909
0.776187
0.755957
0.750175
0.7546
0.765196
0.762643
0.754032
0.746542
0.744421
0.748588
0.758037
0.771083
0.785511
0.800269
0.814678
0.824529
0.829609
0.826982
0.823009
0.83116
0.849945
0.874869
0.901256
0.925415
0.94224
0.948681
0.959438
0.978168
1.00047
1.0245
1.03661
1.03975
1.04142
1.04218
1.04181
1.04048
1.03557
1.02225
1.00176
0.983713
0.974149
0.971563
0.97223
0.973868
0.976043
0.979555
0.987024
1.00508
1.04314
1.08385
1.09524
1.09631
1.0967
1.09466
1.07994
1.04374
1.00843
1.00024
1
1
1
1
1
5.75776
5.90035
5.53454
5.03744
4.62811
4.24175
3.91948
3.6226
3.30729
2.98274
2.80721
2.67195
2.47326
2.24472
2.07309
1.98538
1.86757
1.70645
1.59827
1.52809
1.42583
1.32885
1.29023
1.25835
1.19838
1.09367
1.02949
1.01652
0.991799
0.944354
0.892394
0.863746
0.851143
0.828542
0.790014
0.773565
0.769717
0.770115
0.759174
0.745146
0.737312
0.733391
0.736033
0.745144
0.757685
0.773105
0.785978
0.792229
0.792681
0.794278
0.797387
0.799348
0.800952
0.811952
0.834313
0.85664
0.877512
0.901996
0.924875
0.945831
0.969847
1.00196
1.02224
1.02715
1.02968
1.03147
1.03165
1.03005
1.02398
1.00991
0.988029
0.968466
0.962676
0.964347
0.967279
0.97037
0.974578
0.979589
0.985648
0.996175
1.02049
1.06598
1.10085
1.10671
1.10749
1.10733
1.09863
1.06673
1.02027
1.00125
1.00001
1
1
1
1
1
3.80665
5.48699
5.60841
5.30879
4.86516
4.44492
4.08884
3.79051
3.50382
3.19963
2.95815
2.78202
2.62848
2.44565
2.2408
2.111
2.00546
1.86723
1.71814
1.63836
1.55978
1.45445
1.37397
1.33466
1.29556
1.21844
1.12592
1.09379
1.0698
1.02761
0.966208
0.923367
0.912366
0.898517
0.86375
0.828826
0.816085
0.810065
0.796119
0.771698
0.759926
0.752107
0.748987
0.754894
0.766249
0.776813
0.778987
0.76818
0.757249
0.753904
0.758739
0.765142
0.768869
0.772724
0.781378
0.796128
0.817028
0.847314
0.884491
0.918676
0.956195
0.997404
1.01293
1.01499
1.01579
1.0153
1.01098
0.998954
0.980136
0.961895
0.953746
0.954244
0.957834
0.962495
0.967415
0.972151
0.977455
0.984085
0.993269
1.01006
1.04622
1.09673
1.11834
1.12031
1.12082
1.11649
1.0902
1.0377
1.00409
1.00005
1
1
1
1
1
1
1.58975
3.72568
5.22161
5.33542
5.13091
4.70677
4.28548
3.98028
3.68957
3.38705
3.12878
2.9326
2.78137
2.62536
2.42841
2.23157
2.12044
2.02591
1.88293
1.74025
1.66026
1.58867
1.49685
1.40883
1.37347
1.33313
1.25645
1.17532
1.13984
1.11127
1.05738
0.993176
0.97508
0.96402
0.935661
0.891988
0.867285
0.855262
0.840812
0.81164
0.793245
0.78288
0.776464
0.779289
0.789055
0.791694
0.78089
0.765694
0.753672
0.748097
0.752364
0.763288
0.768781
0.767166
0.766905
0.782116
0.807915
0.830845
0.857352
0.890824
0.929299
0.952952
0.9609
0.964925
0.965932
0.964751
0.959286
0.947819
0.939235
0.939612
0.943401
0.949187
0.95773
0.967888
0.976762
0.982787
0.986518
0.990196
0.999594
1.02607
1.0808
1.12717
1.13543
1.13636
1.13488
1.11346
1.05858
1.00954
1.0002
1
1
1
1
1
1
1
1.02595
1.59686
3.5616
4.87569
5.14034
4.98827
4.57098
4.18361
3.87635
3.59624
3.32215
3.07184
2.90667
2.78486
2.63061
2.41569
2.22177
2.13566
2.0385
1.88052
1.75079
1.70245
1.64651
1.54245
1.44674
1.41339
1.36699
1.28307
1.20682
1.18144
1.14908
1.08422
1.04934
1.037
1.01276
0.968739
0.926661
0.906847
0.895571
0.871887
0.848992
0.836973
0.830885
0.834711
0.837704
0.827896
0.811252
0.791306
0.777474
0.771989
0.77674
0.783747
0.7845
0.780176
0.780226
0.794774
0.816747
0.836849
0.85095
0.867971
0.888809
0.900265
0.906772
0.913911
0.921003
0.926509
0.929764
0.932081
0.934899
0.937813
0.941645
0.947788
0.956604
0.967806
0.978698
0.987228
0.995446
1.00552
1.02456
1.06913
1.13056
1.15343
1.1552
1.15508
1.13653
1.08045
1.01717
1.00056
1
1
1
1
1
1
1
1
1.0002
1.02729
1.55313
3.18948
4.69866
4.9509
4.823
4.47542
4.09347
3.7769
3.5304
3.27742
3.03701
2.89901
2.78821
2.62011
2.38131
2.23636
2.16223
2.04522
1.87855
1.78756
1.75101
1.67516
1.55714
1.50238
1.46336
1.39499
1.29464
1.24691
1.22944
1.18748
1.12694
1.10802
1.08835
1.0463
0.994829
0.967099
0.955575
0.937621
0.911152
0.897045
0.891162
0.893692
0.887891
0.872949
0.850395
0.830228
0.818166
0.814139
0.817271
0.816911
0.813643
0.811129
0.814061
0.825618
0.837689
0.846324
0.85374
0.867979
0.887017
0.895976
0.900894
0.907464
0.916029
0.92311
0.928238
0.93337
0.939103
0.946137
0.955848
0.96917
0.981857
0.987616
0.988772
0.990482
0.995993
1.01355
1.05865
1.13195
1.17395
1.17847
1.17876
1.16031
1.10124
1.02526
1.00107
1
1
1
1
1
1
1
1
1
1
1.00022
1.0247
1.43392
2.88485
4.46119
4.64613
4.58784
4.40615
4.05298
3.71521
3.45894
3.18681
3.01675
2.92707
2.79239
2.57668
2.3828
2.27564
2.16804
2.02263
1.90989
1.86358
1.7938
1.66859
1.59504
1.55872
1.49919
1.39511
1.32558
1.31089
1.28491
1.22336
1.18204
1.1603
1.12082
1.065
1.03355
1.02177
1.00877
0.982944
0.967077
0.961067
0.960013
0.9487
0.928347
0.903235
0.884807
0.874371
0.874427
0.877566
0.872827
0.867999
0.868761
0.87544
0.884311
0.887956
0.885564
0.884506
0.890401
0.901001
0.903684
0.904735
0.908429
0.915756
0.923057
0.92792
0.932558
0.93899
0.94892
0.963233
0.979458
0.992228
1.00146
1.00856
1.01569
1.03002
1.06678
1.13851
1.19719
1.20736
1.20701
1.18532
1.11924
1.03157
1.00151
1
1
1
1
1
1
1
1
1
1
1
1
1.00019
1.01759
1.30981
2.62531
3.93329
4.37329
4.46682
4.33667
3.99929
3.68153
3.39022
3.13869
3.03951
2.94254
2.75821
2.5457
2.41216
2.30352
2.14916
2.02035
1.97801
1.92321
1.80596
1.69521
1.65419
1.6014
1.49696
1.41396
1.39768
1.37601
1.32095
1.25872
1.23263
1.19974
1.14507
1.1087
1.09357
1.08461
1.05999
1.04059
1.03342
1.02612
1.01115
0.988447
0.964277
0.949048
0.940065
0.938348
0.936042
0.930786
0.928868
0.93365
0.937508
0.936686
0.934963
0.931671
0.927285
0.924764
0.923822
0.923437
0.920861
0.919499
0.92411
0.931759
0.93948
0.94814
0.958721
0.970856
0.982589
0.991247
0.997005
1.00303
1.01505
1.0396
1.08515
1.15959
1.2249
1.24004
1.23772
1.20946
1.13238
1.0344
1.00163
1.00001
1
1
1
1
1
1
1
1
1
1
1
1
1
1.00012
1.01041
1.21869
2.21122
3.3846
4.17888
4.28839
4.20532
3.96031
3.67063
3.40123
3.18623
3.05296
2.91867
2.71051
2.53082
2.43539
2.30938
2.14433
2.07928
2.04086
1.95021
1.82522
1.76324
1.70798
1.60425
1.50954
1.49009
1.46813
1.4159
1.34121
1.30827
1.2819
1.23253
1.18929
1.17129
1.16474
1.1443
1.12079
1.10753
1.09174
1.07545
1.05368
1.03104
1.01803
1.01275
1.0117
1.00556
0.998928
0.99658
1.00199
1.0028
0.996724
0.990309
0.984805
0.97794
0.972207
0.969182
0.966873
0.960963
0.958814
0.962541
0.969379
0.977417
0.987069
0.998668
1.0108
1.02148
1.03034
1.03945
1.05305
1.07815
1.12536
1.19927
1.26088
1.27462
1.2677
1.22947
1.13724
1.03242
1.00135
1
1
1
1
1
1
1
1
1
1
1
1
1
1
1
1
1.00006
1.00574
1.12716
1.73286
2.83563
3.96841
4.06079
3.98337
3.91321
3.7371
3.46345
3.20107
3.04703
2.89688
2.67659
2.53991
2.44659
2.30422
2.20693
2.16068
2.08302
1.96336
1.88418
1.82166
1.72078
1.61529
1.58777
1.56236
1.51123
1.43287
1.39264
1.36979
1.32701
1.27646
1.25611
1.24954
1.23175
1.20372
1.18156
1.15814
1.14359
1.12562
1.10389
1.09146
1.08841
1.08743
1.07777
1.06808
1.06408
1.06616
1.06697
1.06103
1.05168
1.04218
1.03124
1.02108
1.01396
1.00595
0.997182
0.9974
1.00074
1.005
1.00992
1.01658
1.0255
1.03674
1.05044
1.06769
1.09133
1.12712
1.18294
1.2553
1.30242
1.3082
1.29305
1.24068
1.12992
1.02555
1.00083
1
1
1
1
1
1
1
1
1
1
1
1
1
1
1
1
1
1
1.00002
1.00226
1.0497
1.36484
2.47364
3.41856
3.77395
3.92805
3.88497
3.75328
3.50992
3.26056
3.08315
2.87226
2.66979
2.56373
2.45021
2.34346
2.27848
2.20548
2.10285
2.01331
1.93691
1.83287
1.72367
1.69318
1.66252
1.60754
1.53628
1.48879
1.46193
1.42292
1.37085
1.35092
1.34299
1.32209
1.28779
1.25632
1.22637
1.21489
1.20399
1.18221
1.16926
1.16709
1.16585
1.15302
1.1373
1.13358
1.1338
1.12875
1.11933
1.10866
1.09712
1.08548
1.07647
1.06887
1.06178
1.06057
1.06335
1.06794
1.07335
1.07993
1.08812
1.09845
1.11209
1.13112
1.15911
1.20137
1.2606
1.31939
1.34269
1.33877
1.30992
1.23699
1.10765
1.01592
1.00036
1
1
1
1
1
1
1
1
1
1
1
1
1
1
1
1
1
1
1
1
1.00001
1.00052
1.01554
1.21144
1.98709
2.81382
3.55398
3.77448
3.70339
3.61258
3.52327
3.35523
3.12994
2.88488
2.72198
2.59909
2.48113
2.40556
2.32087
2.21919
2.1344
2.05401
1.93459
1.82629
1.80116
1.77133
1.71145
1.64324
1.59494
1.56123
1.51862
1.47118
1.45479
1.44119
1.41241
1.37153
1.3294
1.29953
1.29107
1.28852
1.26813
1.2482
1.24413
1.24334
1.2299
1.2052
1.19878
1.19805
1.19188
1.1813
1.16916
1.15484
1.13995
1.12766
1.11937
1.11731
1.11891
1.12266
1.12787
1.1351
1.14544
1.15981
1.1797
1.2073
1.24517
1.2945
1.34635
1.37614
1.37777
1.3593
1.31199
1.20981
1.07315
1.00724
1.0001
1
1
1
1
1
1
1
1
1
1
1
1
1
1
1
1
1
1
1
1
1
1
1
1.00011
1.00603
1.10307
1.45657
2.18078
3.13577
3.44428
3.55437
3.52444
3.46909
3.35943
3.18655
2.99064
2.82542
2.66053
2.55075
2.45901
2.33082
2.2345
2.156
2.03104
1.9322
1.91161
1.88417
1.82198
1.75103
1.7027
1.66243
1.60604
1.56966
1.55917
1.5418
1.50751
1.45425
1.40105
1.37767
1.37253
1.37333
1.36064
1.33251
1.31842
1.31478
1.30269
1.2733
1.26306
1.26108
1.25477
1.24333
1.22915
1.21289
1.19774
1.18908
1.1873
1.189
1.19356
1.20046
1.21055
1.225
1.24504
1.27248
1.30856
1.35188
1.39383
1.41674
1.41789
1.40122
1.36412
1.28904
1.15595
1.03698
1.00216
1.00002
1
1
1
1
1
1
1
1
1
1
1
1
1
1
1
1
1
1
1
1
1
1
1
1
1
1.00003
1.00176
1.02157
1.16127
1.67646
2.42277
3.0593
3.37931
3.40106
3.34526
3.27186
3.21424
3.10568
2.94294
2.76933
2.63861
2.49293
2.35605
2.26165
2.13805
2.04246
2.02402
1.99924
1.9349
1.84936
1.80175
1.7576
1.69428
1.66474
1.65616
1.63835
1.59778
1.53053
1.47756
1.46208
1.45948
1.45986
1.44689
1.42119
1.39283
1.37892
1.36848
1.34643
1.33088
1.3269
1.32099
1.30955
1.29349
1.27633
1.26573
1.26347
1.26497
1.27054
1.28085
1.29717
1.32027
1.35037
1.38677
1.42535
1.45558
1.46683
1.46203
1.43966
1.40593
1.34432
1.22738
1.08688
1.01233
1.00038
1
1
1
1
1
1
1
1
1
1
1
1
1
1
1
1
1
1
1
1
1
1
1
1
1
1
1
1
1
1.00014
1.00387
1.04621
1.28759
1.78692
2.42377
3.02393
3.19464
3.21683
3.17599
3.16234
3.11631
3.01344
2.87363
2.71426
2.54884
2.43025
2.31684
2.20558
2.15628
2.12417
2.05699
1.94831
1.89414
1.85231
1.78902
1.7615
1.75403
1.73078
1.67325
1.59863
1.56601
1.55543
1.55235
1.5479
1.52996
1.50563
1.47413
1.44542
1.43646
1.42571
1.40981
1.40197
1.39503
1.38411
1.37015
1.36036
1.35836
1.36096
1.36971
1.38601
1.41037
1.4418
1.47699
1.50767
1.52377
1.52379
1.50766
1.47948
1.44505
1.38414
1.27553
1.13376
1.03147
1.00236
1.00004
1
1
1
1
1
1
1
1
1
1
1
1
1
1
1
1
1
1
1
1
1
1
1
1
1
1
1
1
1
1
1
1.00001
1.0005
1.01063
1.0697
1.31326
1.80584
2.37797
2.83046
2.98539
3.07209
3.08049
3.04869
2.96455
2.86221
2.76025
2.6737
2.58444
2.46985
2.36374
2.29237
2.20642
2.08067
2.01624
1.98172
1.92139
1.88315
1.87231
1.84109
1.76084
1.70081
1.68793
1.68285
1.67231
1.66215
1.64509
1.61801
1.57909
1.54618
1.53674
1.53041
1.51727
1.50558
1.49726
1.48996
1.48568
1.48602
1.49157
1.50337
1.52298
1.54819
1.57265
1.58738
1.58862
1.57718
1.55292
1.52364
1.48219
1.41259
1.30154
1.16171
1.04945
1.00626
1.00023
1
1
1
1
1
1
1
1
1
1
1
1
1
1
1
1
1
1
1
1
1
1
1
1
1
1
1
1
1
1
1
1
1
1
1
1.00005
1.00092
1.01274
1.07907
1.30808
1.71176
2.19407
2.5852
2.83994
2.93213
2.90932
2.85503
2.80058
2.76835
2.74429
2.6961
2.62023
2.53839
2.46135
2.37453
2.32884
2.32091
2.28806
2.23451
2.21447
2.18487
2.11975
2.09041
2.08676
2.08723
2.06526
2.04022
2.01433
1.97494
1.91767
1.86973
1.84178
1.81902
1.79269
1.76461
1.74004
1.7202
1.70324
1.68714
1.67338
1.665
1.6595
1.65171
1.63761
1.61899
1.59576
1.56397
1.51151
1.4268
1.3049
1.16493
1.05611
1.00944
1.00058
1.00001
1
1
1
1
1
1
1
1
1
1
1
1
1
1
1
1
1
1
1
1
1
1
1
1
1
1
1
1
1
1
1
1
1
1
1
1
1
1
1.00007
1.00118
1.01252
1.06644
1.23168
1.54555
1.94555
2.31261
2.54308
2.67374
2.72721
2.77854
2.8641
2.96556
3.03199
3.07035
3.09509
3.13208
3.17173
3.22809
3.25887
3.21531
3.1473
3.13788
3.13226
3.09301
3.05709
3.0198
2.97033
2.9087
2.83839
2.75597
2.66459
2.58236
2.51434
2.44992
2.3821
2.31016
2.2352
2.15651
2.07277
1.98498
1.89743
1.8145
1.74007
1.68074
1.64024
1.59355
1.52034
1.41436
1.27993
1.14382
1.04891
1.0092
1.00076
1.00002
1
1
1
1
1
1
1
1
1
1
1
1
1
1
1
1
1
1
1
1
1
1
1
1
1
1
1
1
1
1
1
1
1
1
1
1
1
1
1
1
1
1
1.00006
1.0009
1.00776
1.04121
1.14625
1.37616
1.74613
2.22772
2.75444
3.25571
3.6832
4.03826
4.31956
4.53614
4.71755
4.86098
4.99354
5.07492
5.04988
4.97418
4.91152
4.86915
4.84565
4.77477
4.66389
4.55086
4.43258
4.29881
4.14931
3.99252
3.84165
3.70405
3.5767
3.45205
3.32328
3.1851
3.03428
2.871
2.70023
2.52898
2.36115
2.19483
2.0223
1.83277
1.62124
1.41446
1.23703
1.1062
1.03296
1.00612
1.00057
1.00002
1
1
1
1
1
1
1
1
1
1
1
1
1
1
1
1
1
1
1
1
1
1
1
1
1
1
)
;

boundaryField
{
    inlet
    {
        type            fixedValue;
        value           uniform 1;
    }
    outlet
    {
        type            zeroGradient;
    }
    bottom
    {
        type            symmetryPlane;
    }
    top
    {
        type            symmetryPlane;
    }
    obstacle
    {
        type            zeroGradient;
    }
    defaultFaces
    {
        type            empty;
    }
}


// ************************************************************************* //
