/*--------------------------------*- C++ -*----------------------------------*\
  =========                 |
  \\      /  F ield         | OpenFOAM: The Open Source CFD Toolbox
   \\    /   O peration     | Website:  https://openfoam.org
    \\  /    A nd           | Version:  7
     \\/     M anipulation  |
\*---------------------------------------------------------------------------*/
FoamFile
{
    version     2.0;
    format      ascii;
    class       volScalarField;
    location    "0.6";
    object      rho;
}
// * * * * * * * * * * * * * * * * * * * * * * * * * * * * * * * * * * * * * //

dimensions      [1 -3 0 0 0 0 0];

internalField   nonuniform List<scalar> 
4032
(
1.40001
1.40001
1.40001
1.40001
1.40001
1.40001
1.40001
1.40001
1.40001
1.40001
1.40001
1.40001
1.40001
1.40001
2.20264
5.02105
5.57267
5.62866
5.71673
5.76339
5.75004
5.57411
5.33151
5.2116
1.40001
1.40001
1.40001
1.40001
1.40001
1.40001
1.40001
1.40001
1.40001
1.40001
1.40001
1.40001
1.40001
1.40001
2.14836
4.94795
5.55559
5.61931
5.70281
5.75188
5.73444
5.55418
5.30778
5.18671
1.40001
1.40001
1.40001
1.40001
1.40001
1.40001
1.40001
1.40001
1.40001
1.40001
1.40001
1.40001
1.40001
1.40001
2.03099
4.83521
5.54094
5.59818
5.6818
5.73476
5.71347
5.52616
5.27213
5.14794
1.40001
1.40001
1.40001
1.40001
1.40001
1.40001
1.40001
1.40001
1.40001
1.40001
1.40001
1.40001
1.40001
1.40001
1.84415
4.67311
5.53894
5.57351
5.6556
5.71076
5.68774
5.49136
5.22707
5.09512
1.40001
1.40001
1.40001
1.40001
1.40001
1.40001
1.40001
1.40001
1.40001
1.40001
1.40001
1.40001
1.40001
1.40001
1.60761
4.40469
5.52658
5.54024
5.61928
5.67283
5.64718
5.44487
5.17421
5.04112
1.40001
1.40001
1.40001
1.40001
1.40001
1.40001
1.40001
1.40001
1.40001
1.40001
1.40001
1.40001
1.40001
1.40001
1.41857
3.94563
5.4541
5.48181
5.56089
5.62308
5.61405
5.4219
5.14229
4.97305
1.40001
1.40001
1.40001
1.40001
1.40001
1.40001
1.40001
1.40001
1.40001
1.40001
1.40001
1.40001
1.40001
1.40001
1.40021
3.33539
5.30766
5.43489
5.5171
5.57823
5.56845
5.36113
5.05381
4.86229
1.40001
1.40001
1.40001
1.40001
1.40001
1.40001
1.40001
1.40001
1.40001
1.40001
1.40001
1.40001
1.40001
1.40001
1.40001
2.68701
5.12086
5.4102
5.46703
5.51015
5.49311
5.29666
4.95228
4.72746
1.40001
1.40001
1.40001
1.40001
1.40001
1.40001
1.40001
1.40001
1.40001
1.40001
1.40001
1.40001
1.40001
1.40001
1.40001
2.03641
4.86299
5.40173
5.40643
5.42722
5.38326
5.16167
4.62304
3.58649
1.40001
1.40001
1.40001
1.40001
1.40001
1.40001
1.40001
1.40001
1.40001
1.40001
1.40001
1.40001
1.40001
1.40001
1.40001
1.50254
4.31513
5.34388
5.31288
5.28955
5.21021
4.95088
4.45198
3.44108
1.40001
1.40001
1.40001
1.40001
1.40001
1.40001
1.40001
1.40001
1.40001
1.40001
1.40001
1.40001
1.40001
1.40001
1.40001
1.40176
3.37831
5.17204
5.22033
5.18149
5.07283
4.82287
4.35143
3.4656
1.40001
1.40001
1.40001
1.40001
1.40001
1.40001
1.40001
1.40001
1.40001
1.40001
1.40001
1.40001
1.40001
1.40001
1.40001
1.4
2.31832
4.9063
5.14843
5.07606
4.93455
4.68791
4.23144
3.52682
1.40001
1.40001
1.40001
1.40001
1.40001
1.40001
1.40001
1.40001
1.40001
1.40001
1.40001
1.40001
1.40001
1.40001
1.40001
1.4
1.54672
4.19374
5.07496
4.96438
4.81713
4.57438
4.17908
3.63118
1.40001
1.40001
1.40001
1.40001
1.40001
1.40001
1.40001
1.40001
1.40001
1.40001
1.40001
1.40001
1.40001
1.40001
1.40001
1.40001
1.40277
2.90824
4.85874
4.90238
4.73576
4.49558
4.1451
3.69756
1.40001
1.40001
1.40001
1.40001
1.40001
1.40001
1.40001
1.40001
1.40001
1.40001
1.40001
1.40001
1.40001
1.40001
1.40001
1.40001
1.4
1.72039
4.34377
4.90282
4.6739
4.44144
4.13539
3.7618
1.40001
1.40001
1.40001
1.40001
1.40001
1.40001
1.40001
1.40001
1.40001
1.40001
1.40001
1.40001
1.40001
1.40001
1.40001
1.40001
1.40001
1.41279
2.94204
4.723
4.67506
4.43526
4.155
3.82431
1.40001
1.40001
1.40001
1.40001
1.40001
1.40001
1.40001
1.40001
1.40001
1.40001
1.40001
1.40001
1.40001
1.40001
1.40001
1.40001
1.40001
1.40004
1.7062
4.04905
4.71911
4.46456
4.17325
3.86837
1.40001
1.40001
1.40001
1.40001
1.40001
1.40001
1.40001
1.40001
1.40001
1.40001
1.40001
1.40001
1.40001
1.40001
1.40001
1.40001
1.40001
1.40001
1.41039
2.46964
4.43969
4.53505
4.24891
3.97008
1.40001
1.40001
1.40001
1.40001
1.40001
1.40001
1.40001
1.40001
1.40001
1.40001
1.40001
1.40001
1.40001
1.40001
1.40001
1.40001
1.40001
1.40001
1.40005
1.5387
3.34084
4.46596
4.31027
4.01077
1.40001
1.40001
1.40001
1.40001
1.40001
1.40001
1.40001
1.40001
1.40001
1.40001
1.40001
1.40001
1.40001
1.40001
1.40001
1.40001
1.40001
1.40001
1.40001
1.40246
1.91631
3.8783
4.39547
4.13733
1.40001
1.40001
1.40001
1.40001
1.40001
1.40001
1.40001
1.40001
1.40001
1.40001
1.40001
1.40001
1.40001
1.40001
1.40001
1.40001
1.40001
1.40001
1.40001
1.40001
1.43031
2.40401
4.07926
4.23777
1.40001
1.40001
1.40001
1.40001
1.40001
1.40001
1.40001
1.40001
1.40001
1.40001
1.40001
1.40001
1.40001
1.40001
1.40001
1.40001
1.40001
1.40001
1.40001
1.40001
1.40027
1.51771
2.79145
4.08714
1.40001
1.40001
1.40001
1.40001
1.40001
1.40001
1.40001
1.40001
1.40001
1.40001
1.40001
1.40001
1.40001
1.40001
1.40001
1.40001
1.40001
1.40001
1.40001
1.40001
1.40001
1.40216
1.64377
3.03771
1.40001
1.40001
1.40001
1.40001
1.40001
1.40001
1.40001
1.40001
1.40001
1.40001
1.40001
1.40001
1.40001
1.40001
1.40001
1.40001
1.40001
1.40001
1.40001
1.40001
1.40001
1.40001
1.4077
1.76528
1.40001
1.40001
1.40001
1.40001
1.40001
1.40001
1.40001
1.40001
1.40001
1.40001
1.40001
1.40001
1.40001
1.40001
1.40001
1.40001
1.40001
1.40001
1.40001
1.40001
1.40001
1.40001
1.40005
1.41609
1.40001
1.40001
1.40001
1.40001
1.40001
1.40001
1.40001
1.40001
1.40001
1.40001
1.40001
1.40001
1.40001
1.40001
1.40001
1.40001
1.40001
1.40001
1.40001
1.40001
1.40001
1.40001
1.40001
1.40012
1.40001
1.40001
1.40001
1.40001
1.40001
1.40001
1.40001
1.40001
1.40001
1.40001
1.40001
1.40001
1.40001
1.40001
1.40001
1.40001
1.40001
1.40001
1.40001
1.40001
1.40001
1.40001
1.40001
1.40001
1.40001
1.40001
1.40001
1.40001
1.40001
1.40001
1.40001
1.40001
1.40001
1.40001
1.40001
1.40001
1.40001
1.40001
1.40001
1.40001
1.40001
1.40001
1.40001
1.40001
1.40001
1.40001
1.40001
1.40001
1.40001
1.40001
1.40001
1.40001
1.40001
1.40001
1.40001
1.40001
1.40001
1.40001
1.40001
1.40001
1.40001
1.40001
1.40001
1.40001
1.40001
1.40001
1.40001
1.40001
1.40001
1.40001
1.40001
1.40001
1.40001
1.40001
1.40001
1.40001
1.40001
1.40001
1.40001
1.40001
1.40001
1.40001
1.40001
1.40001
1.40001
1.40001
1.40001
1.40001
1.40001
1.40001
1.40001
1.40001
1.40001
1.40001
1.40001
1.40001
1.40001
1.40001
1.40001
1.40001
1.40001
1.40001
1.40001
1.40001
1.40001
1.40001
1.40001
1.40001
1.40001
1.40001
1.40001
1.40001
1.40001
1.40001
1.40001
1.40001
1.40001
1.40001
1.40001
1.40001
1.40001
1.40001
1.40001
1.40001
1.40001
1.40001
1.40001
1.40001
1.40001
1.40001
1.40001
1.40001
1.40001
1.40001
1.40001
1.40001
1.40001
1.40001
1.40001
1.40001
1.40001
1.40001
1.40001
1.40001
1.40001
1.40001
1.40001
1.40001
1.40001
1.40001
1.40001
1.40001
1.40001
1.40001
1.40001
1.40001
1.40001
1.40001
1.40001
1.40001
1.40001
1.40001
1.40001
1.40001
1.40001
1.40001
1.40001
1.40001
1.40001
1.40001
1.40001
1.40001
1.40001
1.40001
1.40001
1.40001
1.40001
1.40001
1.40001
1.40001
1.40001
1.40001
1.40001
1.40001
1.40001
1.40001
1.40001
1.40001
1.40001
1.40001
1.40001
1.40001
1.40001
1.40001
1.40001
1.40001
1.40001
1.40001
1.40001
1.40001
1.40001
1.40001
1.40001
1.40001
1.40001
1.40001
1.40001
1.40001
1.40001
1.40001
1.40001
1.40001
1.40001
1.40001
1.40001
1.40001
1.40001
1.40001
1.40001
1.40001
1.40001
1.40001
1.40001
1.40001
1.40001
1.40001
1.40001
1.40001
1.40001
1.40001
1.40001
1.40001
1.40001
1.40001
1.40001
1.40001
1.40001
1.40001
1.40001
1.40001
1.40001
1.40001
1.40001
1.40001
1.40001
1.40001
1.40001
1.40001
1.40001
1.40001
1.40001
1.40001
1.40001
1.40001
1.40001
1.40001
1.40001
1.40001
1.40001
1.40001
1.40001
1.40001
1.40001
1.40001
1.40001
1.40001
1.40001
1.40001
1.40001
1.40001
1.40001
1.40001
1.40001
1.40001
1.40001
1.40001
1.40001
1.40001
1.40001
1.40001
1.40001
1.40001
1.40001
1.40001
1.40001
1.40001
1.40001
1.40001
1.40001
1.40001
1.40001
1.40001
1.40001
1.40001
1.40001
1.40001
1.40001
1.40001
1.40001
1.40001
1.40001
1.40001
1.40001
1.40001
1.40001
1.40001
1.40001
1.40001
1.40001
1.40001
1.40001
1.40001
1.40001
1.40001
1.40001
1.40001
1.40001
1.40001
1.40001
1.40001
1.40001
1.40001
1.40001
1.40001
1.40001
1.40001
1.40001
1.40001
1.40001
1.40001
1.40001
1.40001
1.40001
1.40001
1.40001
1.40001
1.10921
0.466999
0.222177
0.139915
0.150115
0.205092
0.288837
0.366615
0.465374
0.557885
0.627814
0.637787
0.627057
0.633471
0.646973
0.660525
0.677903
0.700559
0.714657
0.712627
0.702712
0.690107
0.677139
0.668627
0.666041
0.663615
0.662915
0.666752
0.668573
0.66564
0.654948
0.638219
0.63161
0.6305
0.630747
0.636354
0.648818
0.654706
0.655667
0.650787
0.635839
0.630002
0.630993
0.633974
0.641976
0.654096
0.666151
0.680886
0.70393
0.720128
0.72353
0.726674
0.734718
0.748742
0.759383
0.76399
0.767985
0.774602
0.786501
0.806525
0.838316
0.884112
0.944957
1.02471
1.13593
1.27693
1.37781
1.40757
1.40709
1.40321
1.40074
1.40261
1.40947
1.41022
1.40735
1.40402
1.40137
1.39961
1.39856
1.39775
1.39718
1.39692
1.39777
1.40346
1.4195
1.43905
1.44553
1.44589
1.44597
1.44584
1.44447
1.43915
1.42544
1.40755
1.40049
1.40001
1.75486
1.04969
0.764032
0.562229
0.440542
0.449693
0.451297
0.438932
0.443012
0.468053
0.513389
0.545363
0.570679
0.601067
0.635205
0.655912
0.675725
0.704484
0.720378
0.719831
0.713936
0.700695
0.690662
0.68804
0.687624
0.686279
0.685474
0.686944
0.686813
0.681905
0.670629
0.6562
0.646799
0.643434
0.642207
0.643429
0.649904
0.656262
0.658065
0.656291
0.649442
0.645876
0.645851
0.647471
0.651805
0.658451
0.666786
0.679476
0.697991
0.717356
0.730556
0.739713
0.750652
0.760518
0.765704
0.76962
0.774577
0.78239
0.795202
0.815714
0.847388
0.893037
0.955043
1.03907
1.14941
1.26333
1.34219
1.38989
1.41055
1.40914
1.404
1.40134
1.40245
1.40483
1.40282
1.39973
1.39774
1.39673
1.39593
1.39532
1.39495
1.39481
1.39605
1.40381
1.42187
1.44097
1.44634
1.44655
1.44658
1.44635
1.44461
1.43849
1.42424
1.40684
1.40041
1.40001
2.32282
1.59741
1.21122
0.973674
0.787096
0.694343
0.631028
0.557535
0.502758
0.510406
0.534593
0.561894
0.593509
0.623137
0.656152
0.678217
0.692259
0.718365
0.752891
0.767543
0.767221
0.757854
0.751772
0.75264
0.748935
0.741786
0.735372
0.727495
0.720032
0.711192
0.696943
0.684751
0.680578
0.678117
0.6772
0.676627
0.67514
0.672892
0.668736
0.665307
0.665691
0.668114
0.672496
0.67923
0.684038
0.687081
0.691506
0.69786
0.707312
0.720955
0.737291
0.757238
0.777924
0.787981
0.79269
0.796776
0.800794
0.806178
0.815946
0.834218
0.864913
0.911999
0.979726
1.07258
1.18628
1.28572
1.34722
1.38938
1.41338
1.41483
1.41268
1.41162
1.41264
1.41136
1.40667
1.40132
1.39796
1.39692
1.3962
1.39567
1.3954
1.39546
1.39744
1.40591
1.42475
1.44285
1.44718
1.44736
1.4474
1.447
1.44475
1.43785
1.42263
1.40571
1.40029
1.40001
2.71717
2.10422
1.6755
1.3537
1.11382
0.981922
0.894142
0.795005
0.689448
0.674499
0.654902
0.618341
0.608876
0.616092
0.631131
0.641661
0.658685
0.689102
0.728881
0.755229
0.761802
0.766255
0.776274
0.796271
0.809412
0.807113
0.799409
0.783277
0.763149
0.74596
0.730019
0.72188
0.718558
0.716454
0.715964
0.715417
0.713933
0.710413
0.703281
0.698599
0.698234
0.698809
0.703064
0.70951
0.713466
0.717039
0.721307
0.727279
0.736304
0.749352
0.767302
0.791996
0.810433
0.818482
0.825416
0.833227
0.841511
0.850127
0.861507
0.880075
0.91035
0.956607
1.02285
1.111
1.21214
1.29651
1.35233
1.39422
1.41547
1.41615
1.41483
1.4153
1.41564
1.41268
1.4074
1.40079
1.3964
1.39538
1.39481
1.39447
1.39432
1.39475
1.39836
1.40921
1.42939
1.44551
1.44848
1.4486
1.44857
1.4478
1.44489
1.43684
1.42032
1.40431
1.40016
1.40001
3.00799
2.46553
2.0527
1.73837
1.46403
1.25832
1.12145
0.999109
0.889045
0.8422
0.797492
0.735513
0.673496
0.66608
0.657665
0.640957
0.63571
0.643674
0.667399
0.695986
0.719619
0.742056
0.761134
0.784397
0.811071
0.823664
0.831616
0.829566
0.815701
0.791385
0.772538
0.761993
0.756452
0.752744
0.750099
0.747281
0.742591
0.736829
0.733388
0.733082
0.733895
0.737737
0.744364
0.747733
0.749175
0.749106
0.749615
0.754981
0.764526
0.779194
0.804251
0.835405
0.851589
0.860574
0.869463
0.879484
0.891674
0.90583
0.923652
0.950206
0.989962
1.04227
1.10271
1.17014
1.2432
1.31171
1.36783
1.40754
1.41862
1.4178
1.41618
1.41619
1.41543
1.41251
1.40778
1.40064
1.39441
1.39294
1.39253
1.39232
1.39238
1.39398
1.39971
1.41328
1.43498
1.4486
1.45036
1.45045
1.45025
1.44886
1.44487
1.43505
1.41708
1.40281
1.40007
1.4
3.20258
2.75089
2.35919
2.03151
1.758
1.54433
1.38655
1.2262
1.08232
1.0178
0.961225
0.897838
0.825666
0.79629
0.764072
0.713533
0.670515
0.665656
0.662372
0.657915
0.660821
0.679251
0.707393
0.739433
0.784633
0.812585
0.830093
0.839774
0.836903
0.825979
0.8147
0.808071
0.799417
0.786697
0.774628
0.76522
0.758642
0.756383
0.755668
0.75699
0.763929
0.775001
0.781275
0.782073
0.779561
0.774138
0.776105
0.783903
0.796525
0.814831
0.846415
0.87685
0.888666
0.896815
0.905294
0.916476
0.932629
0.952397
0.977606
1.01571
1.06948
1.1257
1.17383
1.21992
1.27091
1.3293
1.38807
1.41742
1.4197
1.41844
1.41685
1.41666
1.41596
1.41353
1.40848
1.39965
1.39215
1.39058
1.39036
1.39028
1.3907
1.39337
1.40107
1.41805
1.44119
1.45176
1.45267
1.45272
1.45221
1.45015
1.44494
1.43261
1.4131
1.40148
1.40002
1.4
3.34838
2.94598
2.59335
2.29419
2.01949
1.77524
1.60102
1.44824
1.30832
1.21419
1.13391
1.0386
0.948039
0.907994
0.866996
0.810328
0.743753
0.71462
0.6982
0.673949
0.664253
0.665706
0.671602
0.686365
0.714528
0.75458
0.791199
0.826096
0.837837
0.832308
0.832855
0.833734
0.829989
0.817082
0.797006
0.783012
0.779683
0.779153
0.779344
0.78205
0.791905
0.800955
0.801731
0.798486
0.789991
0.789361
0.795437
0.808434
0.831782
0.862691
0.896382
0.915193
0.922563
0.927554
0.931927
0.943004
0.964117
0.993119
1.0332
1.09234
1.15852
1.2046
1.2364
1.26812
1.30513
1.351
1.39715
1.41644
1.41778
1.41736
1.41755
1.41869
1.41868
1.41664
1.4104
1.39862
1.38939
1.38776
1.38768
1.38778
1.38902
1.39327
1.40372
1.42496
1.44793
1.45482
1.4552
1.45519
1.45435
1.45155
1.44451
1.42878
1.40866
1.40058
1.40001
1.4
3.45717
3.10342
2.7855
2.49335
2.2269
2.00907
1.8255
1.63802
1.47704
1.38641
1.30945
1.21304
1.10096
1.03562
0.976148
0.913841
0.851201
0.816565
0.794421
0.759027
0.714543
0.692246
0.689312
0.684416
0.683612
0.692302
0.71997
0.763299
0.80972
0.828038
0.836125
0.838659
0.836907
0.828618
0.817704
0.81211
0.811042
0.814498
0.81587
0.816461
0.819699
0.820975
0.815689
0.803551
0.798578
0.801527
0.811111
0.831482
0.871608
0.912705
0.930412
0.941936
0.951077
0.955348
0.95938
0.973718
1.00148
1.04518
1.11585
1.20559
1.25885
1.27597
1.2894
1.30814
1.33441
1.367
1.3962
1.41019
1.41459
1.41671
1.41938
1.42226
1.42283
1.42116
1.41321
1.3973
1.38652
1.38487
1.3848
1.38501
1.38676
1.39281
1.40748
1.43383
1.45437
1.45801
1.45824
1.45818
1.45694
1.45302
1.44298
1.42302
1.40453
1.40015
1.40001
1.4
3.53981
3.22046
2.92844
2.66639
2.41514
2.18594
2.0042
1.83752
1.67741
1.55397
1.45256
1.34512
1.24028
1.16825
1.10098
1.02304
0.937023
0.900068
0.87381
0.835747
0.78793
0.749451
0.731769
0.706536
0.68933
0.692936
0.703836
0.722053
0.756306
0.796745
0.817515
0.830467
0.833291
0.829393
0.825575
0.827791
0.839089
0.852832
0.855365
0.853237
0.84959
0.843217
0.827873
0.815608
0.814995
0.81867
0.830809
0.854893
0.896773
0.936295
0.952343
0.964548
0.975392
0.981485
0.991664
1.01599
1.05557
1.11844
1.21474
1.27638
1.28855
1.29572
1.30504
1.31902
1.34282
1.37613
1.39968
1.40799
1.41285
1.41879
1.42514
1.42769
1.4273
1.42424
1.41307
1.39449
1.38369
1.38233
1.38235
1.38311
1.3861
1.39416
1.41371
1.44389
1.46006
1.46179
1.46204
1.46192
1.46013
1.45421
1.43928
1.41549
1.40165
1.40002
1.4
1.4
3.65735
3.35176
3.07313
2.81062
2.56993
2.36928
2.18912
2.00165
1.82915
1.70957
1.60726
1.49141
1.36854
1.27694
1.20029
1.12537
1.04273
1.00438
0.971327
0.926904
0.879436
0.845343
0.81883
0.783859
0.740894
0.724913
0.726541
0.735025
0.743703
0.755186
0.767919
0.787435
0.80909
0.819308
0.824966
0.832532
0.847971
0.865423
0.870547
0.869974
0.867465
0.860823
0.849436
0.84375
0.8432
0.847669
0.862243
0.886534
0.920199
0.953912
0.974762
0.9897
1.00195
1.01238
1.03059
1.06677
1.12197
1.19259
1.25925
1.2856
1.29145
1.2939
1.30292
1.31845
1.34446
1.37951
1.40382
1.41448
1.42211
1.43006
1.43337
1.43291
1.42888
1.42036
1.40629
1.38883
1.37977
1.37885
1.3792
1.38084
1.38538
1.39682
1.42254
1.45411
1.46534
1.46625
1.46653
1.46625
1.46342
1.4538
1.43208
1.40784
1.40036
1.40001
1.4
1.4
3.72966
3.44691
3.19227
2.96095
2.73188
2.51998
2.3495
2.18616
2.01566
1.85996
1.73392
1.61176
1.50066
1.41346
1.33247
1.22422
1.12723
1.09764
1.06486
1.02305
0.975891
0.939841
0.904774
0.860946
0.805451
0.764698
0.759711
0.762198
0.75479
0.753551
0.760793
0.771648
0.783477
0.800546
0.813648
0.826426
0.845675
0.865874
0.872746
0.872726
0.871411
0.869369
0.87441
0.878968
0.882881
0.890626
0.902704
0.923471
0.953523
0.982223
1.00454
1.0228
1.0381
1.05664
1.08699
1.13384
1.19336
1.24422
1.26761
1.27705
1.28604
1.29744
1.31011
1.329
1.35727
1.38736
1.41036
1.42598
1.43531
1.43904
1.43986
1.43815
1.42966
1.41493
1.39648
1.38188
1.37799
1.37812
1.37891
1.38086
1.38631
1.40176
1.43409
1.46422
1.47108
1.47169
1.47196
1.47116
1.46591
1.44965
1.42114
1.40255
1.40004
1.4
1.4
1.4
3.84471
3.57275
3.30708
3.07463
2.87153
2.67344
2.486
2.30528
2.14625
2.00978
1.88366
1.74464
1.60689
1.5267
1.45539
1.35782
1.24829
1.1999
1.16222
1.11234
1.05779
1.02701
0.997405
0.956454
0.897812
0.837446
0.824749
0.822875
0.807451
0.784305
0.785115
0.792418
0.797203
0.797046
0.798477
0.805829
0.824526
0.84992
0.863404
0.865233
0.867518
0.873858
0.884883
0.897972
0.908352
0.917652
0.930643
0.953417
0.985324
1.01521
1.03907
1.05889
1.07881
1.1059
1.14725
1.2024
1.25532
1.27993
1.28632
1.29101
1.29874
1.31502
1.34359
1.3764
1.4026
1.42036
1.43073
1.43449
1.43561
1.43457
1.43504
1.43518
1.42811
1.40823
1.38645
1.37745
1.37619
1.37631
1.37759
1.38078
1.38905
1.41066
1.44874
1.4741
1.47785
1.47843
1.47859
1.47648
1.46584
1.43959
1.40963
1.40043
1.40001
1.4
1.4
1.4
4.00393
3.73002
3.46478
3.22328
3.01663
2.81014
2.60824
2.43817
2.27807
2.12991
2.00803
1.87205
1.73487
1.64613
1.57534
1.47826
1.35896
1.30473
1.271
1.2247
1.15173
1.10868
1.07923
1.03938
0.984483
0.917699
0.895142
0.887831
0.867283
0.835599
0.814467
0.817614
0.818369
0.808517
0.808362
0.814083
0.83126
0.855405
0.871951
0.87598
0.877091
0.880182
0.88808
0.901244
0.916249
0.931852
0.950202
0.97374
1.00069
1.02485
1.04455
1.06307
1.0855
1.11763
1.16234
1.21549
1.26334
1.29427
1.31383
1.3266
1.34072
1.36452
1.39953
1.42603
1.43569
1.43917
1.44087
1.44182
1.44145
1.43642
1.42929
1.42274
1.41097
1.39091
1.37627
1.37359
1.37354
1.37439
1.37651
1.38148
1.3942
1.4238
1.46508
1.48359
1.48551
1.48606
1.4858
1.48038
1.45971
1.42364
1.40242
1.40003
1.4
1.4
1.4
1.4
4.11279
3.90531
3.62691
3.3814
3.16627
2.96414
2.76498
2.55994
2.38284
2.26189
2.15107
2.02154
1.8573
1.74398
1.69233
1.62205
1.51324
1.4039
1.35988
1.31721
1.24681
1.19531
1.16402
1.12899
1.07557
0.999585
0.972459
0.965934
0.946479
0.914155
0.877968
0.87068
0.868711
0.852762
0.840324
0.841411
0.850254
0.866348
0.870884
0.871153
0.871793
0.874869
0.882665
0.896268
0.915094
0.937308
0.961341
0.986793
1.00982
1.02935
1.0423
1.05512
1.07995
1.11756
1.16417
1.21294
1.25726
1.29201
1.31511
1.33819
1.36527
1.3942
1.41959
1.431
1.43478
1.43716
1.43901
1.44033
1.44058
1.43671
1.42321
1.40213
1.38403
1.3745
1.37174
1.37225
1.37354
1.3754
1.37873
1.38617
1.40432
1.44225
1.4825
1.4938
1.49488
1.49528
1.49333
1.479
1.44335
1.40835
1.40025
1.40001
1.4
1.4
1.4
1.4
4.02816
4.01207
3.82151
3.55817
3.3283
3.10228
2.90858
2.73005
2.54318
2.35263
2.2451
2.15909
2.03396
1.88974
1.78057
1.72373
1.64665
1.54155
1.468
1.41777
1.34475
1.27377
1.24337
1.21927
1.17528
1.0977
1.0506
1.04258
1.02631
0.992823
0.953202
0.932374
0.925777
0.911916
0.884399
0.877624
0.881548
0.889508
0.887972
0.883466
0.883782
0.886371
0.894123
0.908521
0.928084
0.952337
0.975405
0.994389
1.00947
1.02534
1.04249
1.0595
1.07768
1.10641
1.14873
1.19091
1.22733
1.2654
1.3006
1.33072
1.36201
1.39691
1.41592
1.4206
1.42364
1.42624
1.42753
1.42766
1.42352
1.41014
1.38798
1.36836
1.3627
1.36447
1.36746
1.37033
1.37418
1.37884
1.38469
1.39515
1.41949
1.46462
1.49903
1.50488
1.50567
1.50554
1.49716
1.46597
1.42008
1.40124
1.40001
1.4
1.4
1.4
1.4
1.4
3.14274
3.94322
3.91914
3.75766
3.51581
3.27412
3.05775
2.87254
2.69757
2.51448
2.36942
2.26099
2.16423
2.04625
1.91529
1.83302
1.76522
1.67414
1.57358
1.5167
1.45985
1.38356
1.32427
1.29497
1.26555
1.20773
1.13983
1.11921
1.10467
1.07597
1.02952
0.996736
0.992091
0.985907
0.963164
0.93973
0.938605
0.942384
0.939708
0.926377
0.92368
0.924264
0.928274
0.940612
0.960025
0.980276
0.993904
0.997158
1.00112
1.01075
1.02845
1.04896
1.06779
1.08812
1.11479
1.14503
1.17679
1.21823
1.26539
1.30673
1.34838
1.38954
1.4048
1.40765
1.40898
1.4093
1.40683
1.39699
1.37935
1.36135
1.35331
1.3539
1.35765
1.36242
1.3673
1.37184
1.37688
1.38326
1.39227
1.409
1.44491
1.49466
1.51597
1.51798
1.5185
1.51438
1.4889
1.43728
1.40405
1.40005
1.4
1.4
1.4
1.4
1.4
1.40001
1.83871
3.12919
3.85902
3.82759
3.71213
3.47708
3.2317
3.04054
2.85672
2.66984
2.51223
2.39152
2.29571
2.1951
2.06834
1.94294
1.87146
1.80802
1.71104
1.61269
1.55539
1.50254
1.43454
1.36984
1.34375
1.31382
1.25793
1.20053
1.17851
1.16059
1.12113
1.07083
1.06088
1.05726
1.04102
1.01169
1.00082
1.00146
0.999086
0.982071
0.97319
0.972371
0.974198
0.984698
1.00374
1.01654
1.01773
1.01664
1.01816
1.02419
1.04034
1.06521
1.08487
1.09831
1.11291
1.13821
1.1749
1.20668
1.2398
1.27802
1.31903
1.34356
1.35188
1.35712
1.35898
1.35895
1.35557
1.34593
1.33802
1.33866
1.34283
1.34874
1.35737
1.36763
1.37642
1.38225
1.38578
1.38928
1.39853
1.42482
1.47876
1.52424
1.53242
1.53337
1.532
1.51141
1.45779
1.40942
1.4002
1.4
1.4
1.4
1.4
1.4
1.40001
1.40001
1.42286
1.84784
3.06855
3.71998
3.77506
3.69103
3.45546
3.22507
3.02929
2.84812
2.67484
2.5194
2.41472
2.33611
2.23643
2.09765
1.97138
1.91258
1.84522
1.73674
1.64695
1.61069
1.56752
1.48954
1.41944
1.39653
1.36463
1.30534
1.25239
1.23728
1.2151
1.16526
1.14051
1.13602
1.12373
1.09598
1.07076
1.06675
1.06721
1.05559
1.04282
1.04111
1.04368
1.0564
1.06988
1.07163
1.06841
1.06165
1.06063
1.06573
1.08216
1.10245
1.11603
1.12512
1.13656
1.15891
1.18993
1.21634
1.23392
1.25367
1.27671
1.2899
1.29752
1.30549
1.31336
1.32088
1.32604
1.3299
1.33377
1.33717
1.341
1.347
1.35585
1.36718
1.37815
1.38663
1.39476
1.40472
1.42352
1.46725
1.52714
1.54955
1.55134
1.55127
1.53356
1.47913
1.41691
1.40055
1.40001
1.4
1.4
1.4
1.4
1.40001
1.40001
1.40001
1.4002
1.42405
1.82479
2.87441
3.66496
3.72229
3.65453
3.45584
3.22281
3.0164
2.85294
2.69118
2.54134
2.45251
2.38008
2.26977
2.11233
2.01366
1.9617
1.88121
1.76775
1.70126
1.67178
1.61324
1.52483
1.48685
1.46216
1.41606
1.34488
1.31255
1.30191
1.2712
1.22475
1.21555
1.20756
1.1828
1.15015
1.13988
1.14079
1.13479
1.11956
1.11645
1.11972
1.13193
1.13724
1.13569
1.12663
1.11924
1.11928
1.12601
1.14095
1.15226
1.15987
1.1677
1.17914
1.19785
1.21578
1.2277
1.23701
1.25312
1.27429
1.28546
1.29175
1.29935
1.30883
1.31754
1.32456
1.33135
1.33818
1.34557
1.35517
1.36837
1.3811
1.38691
1.3881
1.38981
1.39528
1.4127
1.45705
1.52824
1.56896
1.57344
1.57376
1.55625
1.49927
1.42483
1.40105
1.40001
1.4
1.4
1.4
1.4
1.40001
1.40001
1.40001
1.40001
1.40001
1.40022
1.42203
1.74231
2.70069
3.56107
3.62777
3.58219
3.46426
3.24197
3.02378
2.85478
2.68243
2.57478
2.51487
2.42488
2.2798
2.14825
2.07443
2.00106
1.90139
1.82035
1.7838
1.73023
1.63616
1.584
1.56169
1.52305
1.44932
1.39974
1.39137
1.37381
1.32724
1.29942
1.2905
1.26875
1.23288
1.21949
1.22073
1.2191
1.20516
1.20056
1.20419
1.21338
1.21442
1.20861
1.19635
1.19046
1.19152
1.20198
1.21618
1.22146
1.22541
1.23322
1.24617
1.26062
1.26811
1.26869
1.26902
1.27577
1.28871
1.29352
1.29604
1.30063
1.30885
1.31777
1.32455
1.33075
1.33815
1.34824
1.36235
1.37853
1.39143
1.4008
1.40798
1.4151
1.42924
1.46517
1.53445
1.59085
1.60073
1.60044
1.57999
1.51659
1.43097
1.40148
1.40001
1.4
1.4
1.4
1.4
1.40001
1.40001
1.40001
1.40001
1.40001
1.40001
1.40001
1.40019
1.41595
1.65043
2.54356
3.31633
3.55126
3.55262
3.46991
3.25277
3.04383
2.85475
2.6998
2.63517
2.56848
2.44265
2.2977
2.20644
2.132
2.02596
1.93454
1.9007
1.8582
1.76999
1.69004
1.66464
1.63075
1.55679
1.49614
1.48659
1.47279
1.43238
1.38714
1.37563
1.35969
1.32511
1.30688
1.30597
1.30762
1.29535
1.28712
1.29016
1.2942
1.29309
1.28446
1.27192
1.26818
1.26962
1.27752
1.28452
1.28763
1.29226
1.30256
1.31128
1.31442
1.31599
1.3153
1.31236
1.31117
1.31209
1.31393
1.31345
1.31253
1.31767
1.32691
1.33655
1.34665
1.3578
1.36983
1.3814
1.3901
1.39598
1.40215
1.41427
1.43863
1.48313
1.55465
1.61687
1.63138
1.62927
1.60278
1.5291
1.43366
1.40159
1.40001
1.4
1.4
1.4
1.4
1.40001
1.40001
1.40001
1.40001
1.40001
1.40001
1.40001
1.40001
1.40001
1.40012
1.40955
1.58064
2.28526
3.04047
3.49901
3.48147
3.42152
3.26332
3.08053
2.91203
2.77751
2.68826
2.59411
2.45048
2.32796
2.26248
2.17545
2.06045
2.01041
1.97981
1.91159
1.82034
1.77947
1.74362
1.66999
1.59971
1.5876
1.57383
1.53645
1.48072
1.46404
1.4535
1.42381
1.3989
1.39601
1.39962
1.39136
1.3795
1.37717
1.37411
1.37145
1.36208
1.34966
1.34761
1.35165
1.35905
1.36027
1.36091
1.36367
1.37324
1.37728
1.37498
1.37184
1.36863
1.36355
1.35963
1.3587
1.35862
1.35477
1.35303
1.35741
1.36587
1.37563
1.38629
1.39797
1.40982
1.42034
1.4292
1.43831
1.45178
1.47636
1.52196
1.59227
1.65051
1.66359
1.65723
1.62155
1.53357
1.43164
1.40132
1.40001
1.4
1.4
1.4
1.4
1.40001
1.40001
1.40001
1.40001
1.40001
1.40001
1.40001
1.40001
1.40001
1.40001
1.40001
1.40006
1.40533
1.50807
1.96639
2.73231
3.38502
3.37673
3.32353
3.28154
3.17418
3.00304
2.83115
2.72375
2.61752
2.46697
2.37447
2.3103
2.2103
2.13909
2.10361
2.04567
1.95838
1.9039
1.86235
1.79078
1.71221
1.69358
1.67716
1.64121
1.58261
1.55981
1.55213
1.52808
1.49598
1.49077
1.49439
1.4886
1.47319
1.46287
1.45313
1.45078
1.44285
1.42989
1.42786
1.43304
1.4389
1.4358
1.43235
1.43277
1.43775
1.44126
1.43873
1.43264
1.4256
1.41683
1.4088
1.40378
1.39789
1.39081
1.39156
1.39608
1.40191
1.40813
1.41532
1.42411
1.43511
1.44868
1.46578
1.48896
1.52361
1.57682
1.64487
1.68909
1.69464
1.68074
1.63196
1.52625
1.42486
1.40081
1.40001
1.4
1.4
1.4
1.40001
1.40001
1.40001
1.40001
1.40001
1.40001
1.40001
1.40001
1.40001
1.40001
1.40001
1.40001
1.40001
1.40001
1.40003
1.40213
1.44415
1.70091
2.48641
3.05817
3.26652
3.33855
3.31233
3.23043
3.07085
2.90325
2.78145
2.63903
2.50362
2.43115
2.35088
2.27331
2.2249
2.17092
2.0966
2.03403
1.98199
1.90787
1.82667
1.80566
1.78526
1.74679
1.69496
1.66565
1.65439
1.63284
1.59821
1.5921
1.59447
1.58631
1.56537
1.54689
1.53131
1.52975
1.52599
1.51175
1.50858
1.51367
1.51817
1.51194
1.50178
1.50151
1.50397
1.50173
1.49561
1.48814
1.47955
1.47055
1.46392
1.45855
1.45358
1.45345
1.45723
1.46347
1.47026
1.47742
1.4855
1.49547
1.50871
1.52719
1.55411
1.59421
1.64969
1.7044
1.7262
1.72273
1.69632
1.62829
1.50449
1.41544
1.40035
1.40001
1.4
1.4
1.4
1.40001
1.40001
1.40001
1.40001
1.40001
1.40001
1.40001
1.40001
1.40001
1.40001
1.40001
1.40001
1.40001
1.40001
1.40001
1.40001
1.40001
1.40051
1.4143
1.57858
2.14779
2.71499
3.17916
3.29352
3.23375
3.16722
3.10793
2.99867
2.85276
2.69033
2.57852
2.4923
2.40682
2.35049
2.28869
2.21575
2.15702
2.10162
2.01537
1.93508
1.91908
1.89983
1.85759
1.80885
1.77903
1.76167
1.73586
1.70398
1.69903
1.69602
1.68076
1.65398
1.6263
1.61054
1.60948
1.6112
1.59782
1.58682
1.58986
1.59422
1.5873
1.56813
1.56473
1.56592
1.56248
1.55523
1.54663
1.53569
1.52375
1.51403
1.50803
1.50752
1.51025
1.51553
1.52223
1.53017
1.54031
1.5541
1.57319
1.59951
1.63517
1.68105
1.72895
1.75657
1.75822
1.74156
1.69815
1.60228
1.4709
1.407
1.4001
1.40001
1.40001
1.40001
1.40001
1.40001
1.40001
1.40001
1.40001
1.40001
1.40001
1.40001
1.40001
1.40001
1.40001
1.40001
1.40001
1.40001
1.40001
1.40001
1.40001
1.40001
1.40001
1.40001
1.40012
1.40561
1.48931
1.77133
2.30629
2.94545
3.11729
3.1672
3.14272
3.10611
3.03852
2.92669
2.79698
2.68393
2.56779
2.48827
2.42193
2.33024
2.26271
2.20823
2.11734
2.04478
2.03273
2.01558
1.9717
1.92131
1.89144
1.86765
1.82867
1.80498
1.80332
1.79648
1.77624
1.73883
1.70154
1.69018
1.69014
1.69415
1.68747
1.66773
1.66125
1.66295
1.65696
1.63339
1.62605
1.62598
1.62231
1.61442
1.60416
1.59151
1.57942
1.57334
1.57315
1.57605
1.58224
1.59075
1.60136
1.61527
1.63418
1.65998
1.69362
1.73358
1.77206
1.7932
1.79445
1.77962
1.74592
1.67661
1.55056
1.43577
1.40209
1.40002
1.40001
1.40001
1.40001
1.40001
1.40001
1.40001
1.40001
1.40001
1.40001
1.40001
1.40001
1.40001
1.40001
1.40001
1.40001
1.40001
1.40001
1.40001
1.40001
1.40001
1.40001
1.40001
1.40001
1.40001
1.40001
1.40003
1.40168
1.4197
1.53954
1.9427
2.47341
2.89614
3.09956
3.09759
3.0584
3.01122
2.97517
2.90327
2.79324
2.67321
2.58164
2.47895
2.38163
2.31529
2.22605
2.15598
2.14549
2.13026
2.08498
2.02344
1.99338
1.96475
1.91805
1.89897
1.89785
1.89025
1.86474
1.81553
1.7781
1.77156
1.77276
1.77631
1.76955
1.75177
1.73113
1.72386
1.71863
1.70198
1.68973
1.68798
1.68474
1.67706
1.66513
1.65158
1.64382
1.64328
1.6459
1.65315
1.66497
1.6813
1.703
1.73089
1.76441
1.79977
1.82744
1.83796
1.83398
1.81418
1.78376
1.72756
1.61839
1.4839
1.41191
1.40037
1.40001
1.40001
1.40001
1.40001
1.40001
1.40001
1.40001
1.40001
1.40001
1.40001
1.40001
1.40001
1.40001
1.40001
1.40001
1.40001
1.40001
1.40001
1.40001
1.40001
1.40001
1.40001
1.40001
1.40001
1.40001
1.40001
1.40001
1.40001
1.40001
1.40014
1.40366
1.44152
1.64104
2.02842
2.49142
2.89435
2.99786
3.00565
2.97304
2.965
2.93793
2.8696
2.77286
2.66207
2.54658
2.4639
2.38353
2.30273
2.26856
2.24801
2.20142
2.12228
2.08551
2.05679
2.00876
1.99074
1.98997
1.97777
1.93781
1.88245
1.86208
1.85773
1.85857
1.8584
1.8472
1.82997
1.80632
1.78574
1.78168
1.7749
1.76268
1.75763
1.75371
1.74661
1.73648
1.72959
1.72912
1.73267
1.74296
1.75993
1.78323
1.8122
1.84436
1.87247
1.88759
1.88809
1.87443
1.84954
1.81879
1.76375
1.66341
1.52882
1.43038
1.40229
1.40004
1.40001
1.40001
1.40001
1.40001
1.40001
1.40001
1.40001
1.40001
1.40001
1.40001
1.40001
1.40001
1.40001
1.40001
1.40001
1.40001
1.40001
1.40001
1.40001
1.40001
1.40001
1.40001
1.40001