/*--------------------------------*- C++ -*----------------------------------*\
  =========                 |
  \\      /  F ield         | OpenFOAM: The Open Source CFD Toolbox
   \\    /   O peration     | Website:  https://openfoam.org
    \\  /    A nd           | Version:  7
     \\/     M anipulation  |
\*---------------------------------------------------------------------------*/
FoamFile
{
    version     2.0;
    format      ascii;
    class       volScalarField;
    location    "0.6";
    object      T;
}
// * * * * * * * * * * * * * * * * * * * * * * * * * * * * * * * * * * * * * //

dimensions      [0 0 0 1 0 0 0];

internalField   nonuniform List<scalar> 
4032
(
1
1
1
1
1
1
1
1
1
1
1
1
1
1
1.6543
2.70681
2.8525
2.87123
2.88921
2.90684
2.9591
3.08419
3.27389
3.3838
1
1
1
1
1
1
1
1
1
1
1
1
1
1
1.62607
2.68936
2.84945
2.86968
2.8861
2.90444
2.95792
3.0845
3.27242
3.37987
1
1
1
1
1
1
1
1
1
1
1
1
1
1
1.54754
2.64562
2.84194
2.86585
2.88253
2.90098
2.95597
3.08541
3.27164
3.37526
1
1
1
1
1
1
1
1
1
1
1
1
1
1
1.40819
2.56408
2.83065
2.8617
2.87921
2.89543
2.94943
3.0802
3.26537
3.36516
1
1
1
1
1
1
1
1
1
1
1
1
1
1
1.18858
2.43899
2.82001
2.8569
2.87218
2.88283
2.93042
3.05742
3.24347
3.34575
1
1
1
1
1
1
1
1
1
1
1
1
1
1
1.00957
2.299
2.81422
2.84486
2.8523
2.85935
2.90132
3.01994
3.20694
3.3075
1
1
1
1
1
1
1
1
1
1
1
1
1
1
1.00006
2.12237
2.79494
2.8267
2.82583
2.82929
2.85996
2.95635
3.13976
3.25401
1
1
1
1
1
1
1
1
1
1
1
1
1
1
1
1.85533
2.72479
2.79977
2.79422
2.79307
2.80992
2.88498
3.06991
3.23467
1
1
1
1
1
1
1
1
1
1
1
1
1
1
1
1.47274
2.57502
2.76079
2.75754
2.75547
2.75867
2.79721
2.88655
2.93014
1
1
1
1
1
1
1
1
1
1
1
1
1
1
1
1.06246
2.37001
2.7171
2.71469
2.70785
2.69906
2.70227
2.73235
2.68246
1
1
1
1
1
1
1
1
1
1
1
1
1
1
1
1.00073
2.0836
2.65951
2.67921
2.67021
2.65165
2.63138
2.61336
2.51617
1
1
1
1
1
1
1
1
1
1
1
1
1
1
1
0.999999
1.59569
2.53323
2.64472
2.63204
2.60684
2.57208
2.51742
2.41813
1
1
1
1
1
1
1
1
1
1
1
1
1
1
1
1
1.07965
2.30197
2.60454
2.58865
2.5646
2.524
2.46019
2.37069
1
1
1
1
1
1
1
1
1
1
1
1
1
1
1
1
1.00121
1.84605
2.48821
2.55402
2.52415
2.48316
2.42019
2.33705
1
1
1
1
1
1
1
1
1
1
1
1
1
1
1
1
1
1.1829
2.26375
2.51173
2.47682
2.44202
2.38731
2.31638
1
1
1
1
1
1
1
1
1
1
1
1
1
1
1
1
1
1.00591
1.80293
2.37881
2.44404
2.40541
2.35771
2.29833
1
1
1
1
1
1
1
1
1
1
1
1
1
1
1
1
1
1.00001
1.17077
2.1291
2.40785
2.36828
2.32228
2.27295
1
1
1
1
1
1
1
1
1
1
1
1
1
1
1
1
1
1
1.0047
1.5523
2.22245
2.34467
2.2976
2.25643
1
1
1
1
1
1
1
1
1
1
1
1
1
1
1
1
1
1
1.00001
1.07002
1.87543
2.26888
2.25495
2.22127
1
1
1
1
1
1
1
1
1
1
1
1
1
1
1
1
1
1
1
1.00095
1.27515
2.01522
2.22673
2.19655
1
1
1
1
1
1
1
1
1
1
1
1
1
1
1
1
1
1
1
1
1.01377
1.4899
2.05265
2.17225
1
1
1
1
1
1
1
1
1
1
1
1
1
1
1
1
1
1
1
1
1.00009
1.05702
1.62729
2.04161
1
1
1
1
1
1
1
1
1
1
1
1
1
1
1
1
1
1
1
1
1
1.00079
1.12158
1.68904
1
1
1
1
1
1
1
1
1
1
1
1
1
1
1
1
1
1
1
1
1
1
1.00302
1.18019
1
1
1
1
1
1
1
1
1
1
1
1
1
1
1
1
1
1
1
1
1
1
1.00001
1.0066
1
1
1
1
1
1
1
1
1
1
1
1
1
1
1
1
1
1
1
1
1
1
1
1.00004
1
1
1
1
1
1
1
1
1
1
1
1
1
1
1
1
1
1
1
1
1
1
1
1
1
1
1
1
1
1
1
1
1
1
1
1
1
1
1
1
1
1
1
1
1
1
1
1
1
1
1
1
1
1
1
1
1
1
1
1
1
1
1
1
1
1
1
1
1
1
1
1
1
1
1
1
1
1
1
1
1
1
1
1
1
1
1
1
1
1
1
1
1
1
1
1
1
1
1
1
1
1
1
1
1
1
1
1
1
1
1
1
1
1
1
1
1
1
1
1
1
1
1
1
1
1
1
1
1
1
1
1
1
1
1
1
1
1
1
1
1
1
1
1
1
1
1
1
1
1
1
1
1
1
1
1
1
1
1
1
1
1
1
1
1
1
1
1
1
1
1
1
1
1
1
1
1
1
1
1
1
1
1
1
1
1
1
1
1
1
1
1
1
1
1
1
1
1
1
1
1
1
1
1
1
1
1
1
1
1
1
1
1
1
1
1
1
1
1
1
1
1
1
1
1
1
1
1
1
1
1
1
1
1
1
1
1
1
1
1
1
1
1
1
1
1
1
1
1
1
1
1
1
1
1
1
1
1
1
1
1
1
1
1
1
1
1
1
1
1
1
1
1
1
1
1
1
1
1
1
1
1
1
1
1
1
1
1
1
1
1
1
1
1
1
1
1
1
1
1
1
1
1
1
1
1
1
1
1
1
1
1
1
1
1
1
1
1
1
1
1
1
1
1
1
1
1
1
1
1
1
1
1
1
1
1
2.04893
1.47962
1.34288
1.32915
1.35697
1.51649
1.67095
1.79696
1.98611
2.06445
2.04992
2.02159
2.00676
2.03961
2.09669
2.09891
2.07835
2.04221
2.02878
2.02052
2.01477
2.0127
2.00529
1.99436
1.98862
1.98217
1.97304
1.9631
1.94652
1.93006
1.92142
1.91599
1.9151
1.91392
1.9092
1.90408
1.89879
1.88541
1.8665
1.84841
1.83532
1.83381
1.84102
1.85552
1.86766
1.87019
1.86612
1.84521
1.80258
1.74771
1.71031
1.70044
1.70048
1.70817
1.71697
1.71782
1.71562
1.70621
1.684
1.64386
1.58392
1.50725
1.41922
1.32013
1.20671
1.09149
1.0167
0.997363
0.99351
0.99214
0.991672
0.992369
0.995145
0.996307
0.996457
0.997056
0.997936
0.998758
0.999453
0.999917
1.00014
1.00022
1.00054
1.00199
1.00609
1.01131
1.01303
1.01308
1.01307
1.01296
1.01246
1.01094
1.00719
1.00218
1.00014
1
2.28845
1.98679
1.89798
1.76676
1.58322
1.5706
1.57107
1.58234
1.61553
1.65901
1.68838
1.70922
1.74423
1.80146
1.87389
1.91669
1.9174
1.91412
1.91088
1.91059
1.91432
1.92179
1.92868
1.93672
1.93839
1.93671
1.93254
1.9258
1.91253
1.89691
1.88906
1.88643
1.88591
1.8857
1.88242
1.87577
1.86724
1.85353
1.83785
1.82681
1.82181
1.82166
1.82638
1.83784
1.84527
1.84535
1.84015
1.82049
1.77954
1.72962
1.69927
1.69213
1.69319
1.69829
1.70031
1.69989
1.69694
1.68792
1.66784
1.63111
1.57469
1.50051
1.41323
1.31341
1.19583
1.07274
1.00188
0.992765
0.994138
0.993725
0.99263
0.992392
0.993137
0.994785
0.995198
0.995858
0.996914
0.998008
0.998823
0.999313
0.999534
0.999632
1.00006
1.00202
1.00667
1.01181
1.01324
1.01327
1.01325
1.0131
1.0125
1.01076
1.00686
1.00198
1.00012
1
2.28676
2.09196
1.96223
1.85907
1.75377
1.67985
1.61435
1.54456
1.49148
1.49639
1.51168
1.52158
1.54379
1.57531
1.61969
1.66042
1.6812
1.70346
1.72798
1.74836
1.77002
1.78979
1.81273
1.83904
1.84053
1.83817
1.83513
1.82848
1.81739
1.80462
1.79649
1.79631
1.80194
1.81047
1.81326
1.81198
1.80344
1.78583
1.767
1.75867
1.75876
1.76091
1.76729
1.78042
1.78836
1.78863
1.78507
1.7689
1.73347
1.68684
1.65722
1.65386
1.65799
1.65977
1.65768
1.65224
1.64337
1.62983
1.60897
1.57665
1.52864
1.46442
1.38616
1.29224
1.17732
1.05843
0.998135
0.991953
0.99385
0.994684
0.994678
0.995007
0.996196
0.996382
0.996368
0.99664
0.997242
0.998316
0.99919
0.999592
0.999722
0.999817
1.00032
1.00234
1.00727
1.01227
1.01344
1.01346
1.01346
1.01327
1.01256
1.01063
1.00643
1.00165
1.00008
1
2.26974
2.14406
2.03657
1.93316
1.83212
1.76842
1.71069
1.64267
1.56888
1.54827
1.51807
1.4678
1.45086
1.45667
1.46632
1.4746
1.49316
1.523
1.55895
1.58703
1.61104
1.63936
1.67464
1.71182
1.73984
1.74305
1.74014
1.72986
1.71336
1.69828
1.69056
1.69128
1.6971
1.70792
1.71722
1.71888
1.71634
1.70614
1.69119
1.68107
1.67615
1.67466
1.67657
1.68326
1.68933
1.69206
1.69158
1.68549
1.66686
1.63528
1.6094
1.60218
1.59871
1.59087
1.5809
1.56934
1.5551
1.53731
1.51518
1.48646
1.44735
1.39549
1.32975
1.24643
1.14218
1.03924
0.994191
0.99133
0.993511
0.994346
0.994487
0.995421
0.996708
0.996884
0.997256
0.997462
0.997652
0.998484
0.999324
0.999544
0.999524
0.999556
1.00023
1.00281
1.00833
1.01293
1.01375
1.01377
1.01375
1.01349
1.01264
1.0104
1.0058
1.00125
1.00005
1
2.25606
2.14631
2.05844
1.98457
1.89975
1.81897
1.75311
1.6906
1.63076
1.59892
1.55784
1.50149
1.44335
1.43472
1.42385
1.41259
1.41172
1.42057
1.44187
1.47017
1.49971
1.53308
1.56365
1.59353
1.62522
1.64186
1.6555
1.65596
1.64866
1.63383
1.62252
1.61989
1.62155
1.62647
1.63227
1.63337
1.6296
1.61976
1.61208
1.60807
1.60388
1.60074
1.60034
1.59971
1.60007
1.59977
1.59761
1.59426
1.58327
1.56452
1.55317
1.54974
1.5403
1.5231
1.50432
1.48377
1.46052
1.43506
1.40876
1.3818
1.35158
1.3132
1.26011
1.18811
1.10077
1.02176
0.992203
0.99178
0.993388
0.993531
0.993709
0.994894
0.996539
0.99774
0.998564
0.998637
0.998434
0.998678
0.99915
0.999169
0.999073
0.999167
1.00012
1.00349
1.00974
1.01373
1.01423
1.01426
1.01419
1.01379
1.01267
1.00994
1.0049
1.00082
1.00002
1
2.24185
2.15338
2.0733
1.9989
1.92647
1.86194
1.81019
1.74612
1.67429
1.63517
1.59469
1.55011
1.49669
1.47528
1.45232
1.41415
1.39427
1.39865
1.40005
1.40179
1.40898
1.43322
1.46483
1.49592
1.53231
1.556
1.57192
1.58505
1.59013
1.58928
1.58748
1.58619
1.58246
1.57593
1.57051
1.56497
1.55825
1.55309
1.54903
1.54787
1.54734
1.54672
1.54412
1.53805
1.53192
1.52688
1.52609
1.52328
1.51339
1.5016
1.50041
1.49923
1.48436
1.45969
1.43347
1.40515
1.37368
1.3396
1.30675
1.27913
1.25468
1.22449
1.18026
1.12286
1.06006
1.00996
0.992708
0.992131
0.992019
0.991952
0.992364
0.994282
0.99719
0.999286
1.00004
0.999904
0.999113
0.998902
0.998869
0.998673
0.998479
0.998596
0.999925
1.00452
1.01147
1.01459
1.01485
1.01486
1.01472
1.01415
1.01271
1.00928
1.00378
1.00043
1.00001
1
2.23495
2.15396
2.08136
2.01678
1.95064
1.88182
1.82839
1.77541
1.71909
1.6748
1.63164
1.57623
1.52072
1.50033
1.47858
1.44485
1.40387
1.39492
1.39164
1.38364
1.38546
1.39045
1.39819
1.40964
1.43009
1.46052
1.488
1.51377
1.53157
1.53755
1.54654
1.55218
1.55012
1.54179
1.52762
1.51576
1.5116
1.50953
1.50646
1.50412
1.50362
1.50118
1.49255
1.47993
1.47058
1.4697
1.46975
1.46656
1.46025
1.45812
1.45929
1.45199
1.42901
1.40049
1.36882
1.3353
1.29953
1.26253
1.22963
1.2052
1.18354
1.1529
1.1126
1.0708
1.03224
1.00412
0.99298
0.990707
0.990273
0.990315
0.99135
0.994726
0.99906
1.00141
1.00191
1.00131
0.999473
0.998564
0.998181
0.997813
0.997686
0.997973
1.00017
1.00643
1.01344
1.01545
1.01555
1.01555
1.01532
1.01455
1.0126
1.00822
1.00251
1.00017
1
1
2.22845
2.15787
2.09232
2.02781
1.96336
1.90734
1.85528
1.79209
1.72949
1.69342
1.66082
1.61708
1.56181
1.5337
1.50706
1.47735
1.4453
1.43444
1.42883
1.41305
1.39068
1.38046
1.37573
1.36635
1.36147
1.36813
1.39041
1.42544
1.46436
1.48526
1.49689
1.50556
1.50565
1.50116
1.49242
1.48489
1.48066
1.48081
1.47927
1.47274
1.46573
1.45768
1.4439
1.42695
1.41938
1.41976
1.41943
1.41814
1.41881
1.42013
1.41442
1.39639
1.37227
1.34415
1.31033
1.27488
1.23861
1.20572
1.18331
1.16773
1.14229
1.10237
1.06481
1.03686
1.01574
1.00072
0.992443
0.989655
0.989337
0.989515
0.991427
0.996481
1.00157
1.0038
1.00398
1.00229
0.9991
0.997724
0.997146
0.996714
0.996626
0.997346
1.00107
1.00915
1.01532
1.01635
1.01641
1.01639
1.01604
1.01496
1.01218
1.0066
1.00132
1.00004
1
1
2.21653
2.15659
2.09631
2.03785
1.97586
1.91437
1.86353
1.81252
1.75852
1.71473
1.67687
1.63373
1.5903
1.56525
1.54173
1.51188
1.47321
1.46326
1.45482
1.43536
1.40745
1.38184
1.3667
1.34411
1.33444
1.33829
1.348
1.36345
1.39042
1.42254
1.43993
1.45031
1.45467
1.45296
1.44964
1.44891
1.4505
1.45274
1.45155
1.44263
1.42951
1.41658
1.40073
1.38552
1.37755
1.3753
1.37361
1.37151
1.3712
1.36932
1.35677
1.33704
1.31568
1.28839
1.25568
1.22252
1.19084
1.16687
1.15311
1.13168
1.09236
1.05328
1.02767
1.01271
1.00391
0.998907
0.994696
0.991194
0.990411
0.991026
0.994363
0.999789
1.00366
1.00517
1.005
1.00206
0.99801
0.996683
0.996199
0.995942
0.996031
0.997456
1.00302
1.01226
1.01695
1.01741
1.01748
1.01744
1.01694
1.01529
1.01116
1.00447
1.00048
1.00001
1
1
2.20739
2.1546
2.09984
2.04052
1.98114
1.92902
1.88081
1.8264
1.77141
1.73336
1.70083
1.66144
1.61594
1.58443
1.55874
1.53444
1.50329
1.49349
1.48226
1.46087
1.43239
1.40674
1.38669
1.36241
1.33665
1.33403
1.33622
1.34337
1.34758
1.35455
1.36392
1.3775
1.39226
1.40015
1.4038
1.40534
1.40683
1.40835
1.40729
1.39902
1.38603
1.37462
1.36372
1.35418
1.34488
1.33887
1.33398
1.32824
1.32229
1.31407
1.29978
1.28215
1.26174
1.2354
1.20535
1.17705
1.1534
1.13449
1.11429
1.08295
1.04593
1.01795
1.00427
0.998373
0.996949
0.99728
0.997209
0.995988
0.995826
0.99721
1.00011
1.00279
1.00443
1.00473
1.00388
0.999844
0.996068
0.995264
0.995113
0.995096
0.995576
0.998304
1.00595
1.0153
1.01843
1.01866
1.01874
1.01866
1.01786
1.01519
1.00916
1.00228
1.0001
1
1
1
2.18492
2.13948
2.09165
2.04156
1.98735
1.93319
1.89045
1.84773
1.79982
1.75496
1.7175
1.67789
1.64143
1.61563
1.59126
1.54945
1.50903
1.50434
1.49427
1.477
1.45196
1.42915
1.40653
1.37982
1.34604
1.32691
1.32716
1.33037
1.3274
1.32488
1.32871
1.3338
1.33907
1.34744
1.35335
1.35748
1.35825
1.35808
1.35588
1.34625
1.33345
1.32835
1.32844
1.32498
1.31759
1.30894
1.29799
1.28724
1.27785
1.26638
1.2517
1.23464
1.21409
1.19073
1.16677
1.14386
1.12355
1.10236
1.07337
1.03949
1.01409
1.00068
0.99436
0.993096
0.994208
0.997543
1.00032
1.0017
1.0027
1.00369
1.00496
1.00572
1.00564
1.00455
1.0009
0.996258
0.99468
0.99466
0.994727
0.994936
0.995996
1.00017
1.00962
1.01819
1.02004
1.02019
1.02026
1.02003
1.01856
1.01406
1.00609
1.00075
1.00001
1
1
1
2.15974
2.11948
2.07364
2.02904
1.98421
1.93762
1.8921
1.84673
1.80806
1.77503
1.74169
1.69991
1.65543
1.63349
1.61187
1.57619
1.53293
1.51744
1.50355
1.4812
1.45454
1.44048
1.42606
1.40503
1.37304
1.34116
1.33831
1.33906
1.33173
1.3182
1.31453
1.31518
1.31285
1.30746
1.30149
1.3018
1.30374
1.30462
1.30266
1.29145
1.2824
1.28281
1.28412
1.28282
1.27776
1.26819
1.25549
1.24449
1.23578
1.22538
1.2114
1.1939
1.17393
1.15406
1.13599
1.11864
1.09915
1.07411
1.04446
1.01648
0.999876
0.995523
0.995835
0.999244
1.00425
1.00734
1.00781
1.00684
1.00543
1.00492
1.00568
1.0069
1.00648
1.00286
0.996828
0.994015
0.993711
0.993791
0.994189
0.994971
0.997101
1.00315
1.01398
1.02096
1.02194
1.02209
1.02212
1.02152
1.01856
1.01129
1.00281
1.00012
1
1
1
1
2.13833
2.09776
2.05647
2.01566
1.97747
1.93484
1.89015
1.85227
1.81607
1.77978
1.74992
1.71311
1.67389
1.64933
1.62809
1.59522
1.54858
1.5277
1.5144
1.49581
1.4651
1.44935
1.4378
1.41899
1.39191
1.35879
1.35048
1.34789
1.33552
1.31489
1.3001
1.29705
1.29236
1.28179
1.272
1.26899
1.27027
1.26987
1.26635
1.25573
1.24326
1.23784
1.23621
1.23398
1.22912
1.22091
1.21032
1.19951
1.1887
1.17605
1.1604
1.14251
1.12437
1.10774
1.09275
1.07862
1.06378
1.0462
1.02731
1.01042
1.00197
1.00154
1.00558
1.01202
1.01402
1.01404
1.01308
1.01128
1.00931
1.00709
1.00576
1.00496
1.00269
0.997379
0.993142
0.992524
0.992645
0.993159
0.993924
0.995337
0.998861
1.00719
1.01867
1.02361
1.02409
1.02423
1.02415
1.02261
1.0169
1.00683
1.00071
1.00001
1
1
1
1
2.11537
2.08194
2.03602
1.99726
1.96364
1.92969
1.89376
1.85216
1.81219
1.78417
1.75957
1.72883
1.68285
1.64862
1.63537
1.61503
1.57758
1.53349
1.51628
1.50104
1.47482
1.45831
1.44863
1.43488
1.41092
1.37513
1.36286
1.35927
1.34646
1.32523
1.30514
1.29602
1.28913
1.27429
1.25945
1.2482
1.2425
1.23654
1.226
1.21178
1.19887
1.19126
1.18734
1.18408
1.17968
1.17327
1.16544
1.15582
1.14312
1.12835
1.11079
1.09202
1.07748
1.06476
1.0521
1.04025
1.03048
1.021
1.00992
1.00375
1.00305
1.00464
1.01036
1.01416
1.01455
1.0145
1.01393
1.01264
1.01117
1.00912
1.00559
1.00024
0.995068
0.992224
0.99158
0.991892
0.992631
0.993507
0.994673
0.996874
1.00198
1.01259
1.02354
1.02647
1.02673
1.02682
1.02625
1.02226
1.0124
1.00245
1.00007
1
1
1
1
1
2.00113
2.05892
2.02757
1.98204
1.94675
1.91423
1.88659
1.85772
1.82064
1.77497
1.75053
1.73255
1.70238
1.66299
1.63
1.61251
1.58784
1.54977
1.52424
1.50893
1.48442
1.46054
1.45277
1.44487
1.42752
1.39487
1.37188
1.36501
1.35293
1.33166
1.31069
1.29696
1.28714
1.27201
1.25059
1.23401
1.2224
1.21209
1.19694
1.18081
1.16798
1.15838
1.15247
1.14825
1.14296
1.13652
1.12812
1.11538
1.09935
1.08451
1.07084
1.05624
1.04051
1.02741
1.01681
1.00705
1.00097
0.997948
0.995566
0.995079
0.9969
1.00418
1.01075
1.01226
1.01259
1.01249
1.01176
1.0101
1.00706
1.00265
0.996587
0.99086
0.989033
0.989462
0.990303
0.991381
0.992897
0.994623
0.996553
0.999641
1.00649
1.01896
1.02812
1.02958
1.02977
1.02971
1.02733
1.01873
1.00585
1.00037
1
1
1
1
1
1
1.69576
1.94811
2.00345
1.97792
1.93732
1.90063
1.87209
1.8474
1.81844
1.78148
1.74787
1.72263
1.70032
1.67326
1.63794
1.61232
1.59054
1.56148
1.52862
1.51231
1.49584
1.47174
1.45255
1.44291
1.43321
1.41242
1.38293
1.36821
1.35581
1.33708
1.31391
1.29695
1.2875
1.27591
1.2555
1.23478
1.21726
1.20343
1.18608
1.16624
1.15181
1.13923
1.12961
1.12358
1.11742
1.10942
1.09727
1.07852
1.05897
1.04424
1.03285
1.02121
1.00808
0.994205
0.981293
0.973407
0.972005
0.973743
0.978588
0.984254
0.992802
1.00492
1.00947
1.00947
1.00932
1.0086
1.00608
1.00111
0.994813
0.989205
0.986658
0.986743
0.987717
0.989045
0.990553
0.992107
0.993872
0.996001
0.998785
1.00362
1.01371
1.02727
1.03279
1.03324
1.03336
1.03216
1.02512
1.01079
1.0012
1.00001
1
1
1
1
1
1
1.21045
1.66688
1.89434
1.95152
1.93509
1.89513
1.85651
1.8327
1.80817
1.7761
1.7436
1.71675
1.69618
1.67442
1.64373
1.60798
1.58626
1.56873
1.54064
1.51074
1.4944
1.48026
1.46081
1.43985
1.43096
1.42059
1.39836
1.3706
1.35407
1.34051
1.32039
1.29849
1.28678
1.27654
1.25832
1.23436
1.21321
1.19562
1.17822
1.15705
1.14114
1.12718
1.11585
1.10796
1.10056
1.09034
1.07421
1.05443
1.03632
1.02261
1.01247
1.00319
0.992096
0.9779
0.964738
0.962004
0.962704
0.963957
0.96814
0.975854
0.986345
0.992989
0.995103
0.995414
0.995093
0.993897
0.990731
0.9859
0.982744
0.982671
0.983573
0.985265
0.987815
0.990799
0.993502
0.995411
0.996642
0.997837
1.00065
1.0082
1.02325
1.0353
1.03731
1.03753
1.0371
1.03139
1.01662
1.0028
1.00006
1
1
1
1
1
1
1
1.00947
1.20986
1.62496
1.83496
1.90633
1.89205
1.85197
1.81611
1.79148
1.76774
1.7388
1.70699
1.68523
1.66894
1.64676
1.61227
1.57782
1.5633
1.54665
1.51591
1.48827
1.47977
1.47055
1.44973
1.42693
1.41691
1.40243
1.37613
1.34906
1.33682
1.32394
1.30264
1.28809
1.27797
1.26176
1.23747
1.2116
1.19015
1.17484
1.15636
1.13978
1.1255
1.11456
1.10621
1.09618
1.08158
1.06304
1.0435
1.02624
1.01413
1.00488
0.995282
0.984116
0.970787
0.961076
0.960114
0.960936
0.963208
0.965485
0.969283
0.974646
0.977111
0.978391
0.98008
0.981761
0.982009
0.981628
0.981217
0.981325
0.981881
0.983081
0.985081
0.98776
0.991045
0.994219
0.996749
0.999191
1.00215
1.00764
1.02013
1.03644
1.04211
1.04251
1.04245
1.03755
1.02265
1.00503
1.00017
1
1
1
1
1
1
1
1
1.00006
1.00994
1.19158
1.55346
1.79488
1.8621
1.84763
1.81305
1.77823
1.75298
1.73245
1.70498
1.67306
1.65488
1.64008
1.61609
1.57828
1.55483
1.54311
1.52206
1.48776
1.47102
1.46636
1.45374
1.42967
1.41463
1.40115
1.37918
1.3477
1.32999
1.32207
1.3078
1.2882
1.27616
1.2618
1.23844
1.21095
1.1878
1.17271
1.15675
1.1394
1.12488
1.11424
1.10534
1.09304
1.07611
1.05675
1.03849
1.02336
1.01225
1.00283
0.992551
0.982094
0.972497
0.966541
0.964952
0.964623
0.965101
0.96623
0.96972
0.974522
0.975812
0.976393
0.977761
0.979839
0.980888
0.981107
0.981499
0.98249
0.98441
0.987471
0.991579
0.995299
0.996938
0.997251
0.997747
0.99937
1.00445
1.0172
1.03697
1.04753
1.04857
1.04862
1.04381
1.02833
1.00739
1.00032
1
1
1
1
1
1
1
1
1
1
1.00007
1.00883
1.1522
1.49547
1.75388
1.793
1.79304
1.78065
1.75023
1.72013
1.69629
1.66325
1.64032
1.62947
1.61218
1.58232
1.55286
1.5358
1.51683
1.48928
1.46887
1.46262
1.45145
1.42775
1.40977
1.39734
1.37807
1.34765
1.32583
1.31902
1.30941
1.29042
1.27354
1.25876
1.23677
1.20937
1.18654
1.17183
1.15847
1.14186
1.12773
1.11735
1.10767
1.09368
1.07536
1.057
1.04055
1.02736
1.01849
1.01021
1.00041
0.991668
0.986259
0.983512
0.982085
0.980315
0.977223
0.975801
0.97711
0.97881
0.978077
0.977312
0.977837
0.979531
0.980663
0.980782
0.981091
0.982397
0.985353
0.989857
0.994718
0.998344
1.00089
1.00285
1.00485
1.00895
1.01933
1.03875
1.05357
1.05597
1.05585
1.05029
1.0332
1.00925
1.00046
1
1
1
1
1
1
1
1
1
1
1
1
1.00006
1.00613
1.11107
1.445
1.66046
1.72407
1.76027
1.74972
1.72131
1.69331
1.6626
1.62759
1.61482
1.60389
1.58087
1.55112
1.53054
1.51264
1.48514
1.46211
1.45695
1.44898
1.42846
1.40429
1.39121
1.3748
1.3462
1.32311
1.31628
1.30801
1.29109
1.27039
1.25446
1.23532
1.20979
1.18771
1.17232
1.16124
1.14564
1.13186
1.1214
1.11001
1.09476
1.07737
1.06139
1.0477
1.03661
1.02832
1.0202
1.01202
1.00631
1.00349
1.00094
0.997674
0.994652
0.991667
0.989213
0.987418
0.985721
0.983928
0.981547
0.980779
0.98185
0.983088
0.98408
0.985704
0.98852
0.992239
0.995821
0.998312
0.999881
1.0015
1.00481
1.01169
1.02433
1.04424
1.06061
1.06417
1.06355
1.05645
1.03678
1.01012
1.00049
1
1
1
1
1
1
1
1
1
1
1
1
1
1
1.00004
1.00356
1.07942
1.35465
1.55846
1.67203
1.72449
1.72072
1.69902
1.66819
1.6352
1.60602
1.58993
1.57516
1.54857
1.52201
1.507
1.48619
1.457
1.44796
1.44317
1.42829
1.40376
1.38723
1.37139
1.34489
1.32109
1.31401
1.30598
1.29016
1.2681
1.25105
1.23472
1.21193
1.19022
1.17465
1.16506
1.15141
1.13745
1.1259
1.11231
1.09784
1.08301
1.06951
1.05761
1.04898
1.04219
1.03494
1.02763
1.02313
1.02152
1.01935
1.01486
1.01064
1.00738
1.00409
1.00108
0.998647
0.996326
0.993051
0.992105
0.992749
0.993604
0.994735
0.996838
1.00012
1.00377
1.00686
1.00929
1.01176
1.01549
1.0224
1.03518
1.05446
1.06951
1.07267
1.07093
1.06149
1.0382
1.00961
1.00041
1
1
1
1
1
1
1
1
1
1
1
1
1
1
1
1
1.00002
1.00193
1.04639
1.23374
1.45294
1.64129
1.68362
1.67796
1.66949
1.64829
1.61464
1.58293
1.56617
1.54942
1.51897
1.49755
1.4826
1.4595
1.44441
1.43799
1.42556
1.40357
1.3855
1.36942
1.34527
1.32076
1.31254
1.30418
1.28913
1.26754
1.24995
1.23554
1.21579
1.19457
1.17963
1.17062
1.15844
1.14392
1.13078
1.1158
1.10357
1.0922
1.08082
1.07016
1.06332
1.05803
1.05091
1.04396
1.03974
1.03818
1.03643
1.03247
1.02773
1.02347
1.01899
1.0147
1.01123
1.00747
1.00377
1.00345
1.00355
1.00363
1.00409
1.00559
1.00815
1.01138
1.01514
1.01978
1.02613
1.03568
1.05029
1.06843
1.07951
1.08076
1.07707
1.06433
1.03646
1.00766
1.00026
1
1
1
1
1
1
1
1
1
1
1
1
1
1
1
1
1
1
1.00001
1.00074
1.0176
1.12339
1.39282
1.56499
1.61749
1.64721
1.64204
1.6266
1.60018
1.57231
1.55186
1.52373
1.49292
1.47636
1.45916
1.44321
1.43372
1.42229
1.40418
1.38575
1.36816
1.34497
1.32106
1.31279
1.30375
1.2884
1.26893
1.25135
1.23714
1.22002
1.20084
1.18793
1.1792
1.16681
1.15175
1.13703
1.12121
1.11185
1.10459
1.09482
1.08511
1.07946
1.0751
1.06765
1.06023
1.05695
1.05543
1.05229
1.04778
1.043
1.03814
1.03341
1.02947
1.02597
1.02264
1.02156
1.02159
1.02163
1.02206
1.02334
1.02549
1.02833
1.03196
1.03692
1.04418
1.05502
1.06981
1.08376
1.08897
1.08797
1.0811
1.06357
1.03073
1.00484
1.00011
1
1
1
1
1
1
1
1
1
1
1
1
1
1
1
1
1
1
1
1
1
1.00016
1.00527
1.0744
1.29526
1.45096
1.56506
1.60445
1.60333
1.59687
1.5871
1.56647
1.53603
1.50124
1.4779
1.45999
1.44323
1.43281
1.41969
1.40218
1.38533
1.36829
1.34389
1.3213
1.31398
1.30531
1.28986
1.27183
1.25514
1.24072
1.2248
1.20874
1.19875
1.18965
1.17647
1.16093
1.14442
1.12965
1.12304
1.11962
1.11113
1.10125
1.09556
1.09188
1.08478
1.07598
1.07257
1.07111
1.06794
1.0634
1.05832
1.05281
1.04737
1.04273
1.03918
1.03762
1.03723
1.03708
1.03731
1.03854
1.0411
1.04481
1.04983
1.05671
1.06609
1.07808
1.0902
1.0968
1.09707
1.09271
1.08164
1.05708
1.02143
1.00223
1.00003
1
1
1
1
1
1
1
1
1
1
1
1
1
1
1
1
1
1
1
1
1
1
1
1.00003
1.00201
1.03692
1.15123
1.32382
1.49047
1.54686
1.57115
1.57005
1.56361
1.54786
1.52431
1.49694
1.47381
1.45057
1.43516
1.42144
1.40035
1.38255
1.36689
1.34294
1.32293
1.31658
1.30873
1.29369
1.27593
1.2603
1.24617
1.22956
1.21748
1.21046
1.20153
1.1882
1.17088
1.15277
1.14115
1.13692
1.13489
1.12885
1.1186
1.11109
1.10689
1.10068
1.09137
1.08748
1.08581
1.08283
1.0782
1.07272
1.06695
1.06168
1.05808
1.05662
1.05619
1.05609
1.05652
1.05833
1.06175
1.06663
1.07319
1.08171
1.09175
1.10119
1.10609
1.10622
1.10233
1.09385
1.07637
1.04371
1.01115
1.00067
1.00001
1
1
1
1
1
1
1
1
1
1
1
1
1
1
1
1
1
1
1
1
1
1
1
1
1
1.00001
1.00056
1.0074
1.05602
1.20814
1.37134
1.47888
1.52636
1.53717
1.53132
1.52118
1.5125
1.49761
1.47503
1.45034
1.43089
1.4079
1.38497
1.36757
1.34466
1.32629
1.32074
1.3139
1.29923
1.27956
1.26542
1.2524
1.23667
1.22732
1.22172
1.21344
1.19958
1.18023
1.16337
1.15543
1.1526
1.15059
1.14473
1.13581
1.12641
1.11986
1.11477
1.10754
1.10268
1.10052
1.09773
1.09321
1.08754
1.08191
1.07799
1.07642
1.07599
1.07598
1.07702
1.08015
1.08537
1.09223
1.10036
1.10875
1.11512
1.1173
1.11607
1.11099
1.10345
1.08943
1.06176
1.02543
1.00379
1.00012
1
1
1
1
1
1
1
1
1
1
1
1
1
1
1
1
1
1
1
1
1
1
1
1
1
1
1
1
1
1.00004
1.00126
1.01608
1.09847
1.23333
1.36199
1.46268
1.4919
1.49837
1.49557
1.49318
1.48501
1.47018
1.45088
1.42746
1.40125
1.38089
1.36083
1.34094
1.33071
1.32288
1.30816
1.28524
1.27154
1.26082
1.24686
1.23878
1.23401
1.22517
1.20887
1.18892
1.1774
1.17219
1.16934
1.16609
1.15957
1.15187
1.14254
1.1332
1.12874
1.12457
1.11974
1.11671
1.11367
1.10944
1.10466
1.10114
1.09981
1.09966
1.1002
1.10256
1.10728
1.11386
1.12115
1.12725
1.13017
1.12988
1.12607
1.11989
1.11232
1.09868
1.07355
1.03823
1.00956
1.00073
1.00001
1
1
1
1
1
1
1
1
1
1
1
1
1
1
1
1
1
1
1
1
1
1
1
1
1
1
1
1
1
1
1
1
1.00016
1.00356
1.02407
1.10422
1.23445
1.35168
1.42603
1.45086
1.46394
1.46907
1.4642
1.45195
1.43734
1.42165
1.4076
1.39282
1.37368
1.35508
1.34115
1.32401
1.29952
1.28549
1.27737
1.26485
1.2557
1.2506
1.24081
1.22153
1.20528
1.19902
1.1956
1.19108
1.18683
1.18117
1.17351
1.16323
1.15355
1.14936
1.14652
1.14232
1.1384
1.13504
1.13187
1.12971
1.1291
1.1293
1.13064
1.13372
1.13817
1.14252
1.14482
1.14457
1.14147
1.13609
1.12974
1.12071
1.10534
1.07999
1.04572
1.01488
1.00193
1.00007
1
1
1
1
1
1
1
1
1
1
1
1
1
1
1
1
1
1
1
1
1
1
1
1
1
1
1
1
1
1
1
1
1
1
1
1.00001
1.00029
1.00426
1.02717
1.10244
1.21023
1.31102
1.37763
1.41793
1.4326
1.43229
1.42654
1.41841
1.41191
1.40714
1.39833
1.38556
1.37178
1.35805
1.34259
1.33354
1.33075
1.32406
1.31393
1.30758
1.29938
1.28587
1.27729
1.27377
1.27137
1.26474
1.25798
1.25124
1.24216
1.22981
1.21863
1.21131
1.20522
1.19846
1.19129
1.18478
1.17932
1.17463
1.17024
1.16631
1.16353
1.16148
1.15907
1.15549
1.15108
1.14582
1.13885
1.12753
1.10898
1.08126
1.0468
1.01686
1.0029
1.00018
1
1
1
1
1
1
1
1
1
1
1
1
1
1
1
1
1
1
1
1
1
1
1
1
1
1
1
1
1
1
1
1
1
1
1
1
1
1
1
1.00002
1.00037
1.00418
1.02269
1.07733
1.1665
1.25698
1.32486
1.36362
1.38602
1.39575
1.4039
1.41696
1.43154
1.44106
1.4466
1.44954
1.45364
1.45664
1.46054
1.46179
1.45468
1.44177
1.43716
1.43423
1.42585
1.41751
1.4091
1.39935
1.38839
1.37651
1.36305
1.34832
1.33477
1.3231
1.31175
1.29968
1.28682
1.27334
1.25908
1.24372
1.22729
1.21041
1.19379
1.1782
1.16525
1.15624
1.14597
1.13007
1.10688
1.07596
1.04153
1.01478
1.00282
1.00023
1.00001
1
1
1
1
1
1
1
1
1
1
1
1
1
1
1
1
1
1
1
1
1
1
1
1
1
1
1
1
1
1
1
1
1
1
1
1
1
1
1
1
1
1
1.00002
1.00028
1.00256
1.01407
1.04969
1.12006
1.21307
1.30997
1.39634
1.46588
1.51604
1.55385
1.58245
1.60449
1.62295
1.63638
1.64799
1.65184
1.64859
1.64088
1.63399
1.62808
1.62371
1.61432
1.60051
1.58575
1.57027
1.55346
1.53535
1.5166
1.49825
1.4808
1.46385
1.44664
1.42848
1.40883
1.38727
1.36375
1.33868
1.31276
1.28634
1.25903
1.22951
1.19552
1.15473
1.11045
1.06746
1.03179
1.0101
1.00188
1.00017
1.00001
1
1
1
1
1
1
1
1
1
1
1
1
1
1
1
1
1
1
1
1
1
1
1
1
1
1
)
;

boundaryField
{
    inlet
    {
        type            fixedValue;
        value           uniform 1;
    }
    outlet
    {
        type            inletOutlet;
        inletValue      uniform 1;
        value           nonuniform List<scalar> 
32
(
1
1
1
1
1
1
1
1
1
1
1
1
1
1
1
1
1
1
1
1
1
1
1
1
1
1
1
1
1
1
1
1
)
;
    }
    bottom
    {
        type            symmetryPlane;
    }
    top
    {
        type            symmetryPlane;
    }
    obstacle
    {
        type            zeroGradient;
    }
    defaultFaces
    {
        type            empty;
    }
}


// ************************************************************************* //
