/*--------------------------------*- C++ -*----------------------------------*\
  =========                 |
  \\      /  F ield         | OpenFOAM: The Open Source CFD Toolbox
   \\    /   O peration     | Website:  https://openfoam.org
    \\  /    A nd           | Version:  7
     \\/     M anipulation  |
\*---------------------------------------------------------------------------*/
FoamFile
{
    version     2.0;
    format      ascii;
    class       volScalarField;
    location    "1.2";
    object      p;
}
// * * * * * * * * * * * * * * * * * * * * * * * * * * * * * * * * * * * * * //

dimensions      [1 -1 -2 0 0 0 0];

internalField   nonuniform List<scalar> 
4032
(
1
1
1
1
1
1
1
1
1
1
1
1
1.23707
7.39233
10.7496
10.9537
11.175
11.3842
11.5934
11.7765
11.9374
12.0733
12.1774
12.2549
1
1
1
1
1
1
1
1
1
1
1
1
1.19063
7.20435
10.737
10.9327
11.147
11.3548
11.5547
11.7229
11.8718
11.9971
12.0929
12.1668
1
1
1
1
1
1
1
1
1
1
1
1
1.04899
6.7755
10.7283
10.9099
11.1103
11.309
11.4932
11.6481
11.786
11.8947
11.9705
12.0341
1
1
1
1
1
1
1
1
1
1
1
1
1.00099
6.20471
10.6113
10.8196
11.0232
11.2262
11.3997
11.5427
11.6685
11.7534
11.7996
11.835
1
1
1
1
1
1
1
1
1
1
1
1
1
5.43437
10.4218
10.7274
10.9242
11.1245
11.2807
11.404
11.5001
11.5462
11.5569
11.5864
1
1
1
1
1
1
1
1
1
1
1
1
1
4.51604
10.1202
10.617
10.8003
10.9928
11.1296
11.24
11.32
11.3444
11.326
11.2526
1
1
1
1
1
1
1
1
1
1
1
1
1
3.50809
9.65102
10.5365
10.704
10.8644
10.9653
11.0403
11.0571
10.9843
10.8681
10.7871
1
1
1
1
1
1
1
1
1
1
1
1
1
2.4246
8.87397
10.4158
10.5486
10.6951
10.77
10.7955
10.7442
10.6253
10.4362
10.386
1
1
1
1
1
1
1
1
1
1
1
1
1
1.41507
7.84832
10.4432
10.4466
10.4774
10.4737
10.4364
10.3037
10.0297
9.23359
7.28602
1
1
1
1
1
1
1
1
1
1
1
1
1
1.02081
6.37164
9.97706
10.0624
10.0997
10.0826
10.0043
9.78807
9.3255
8.45538
6.41798
1
1
1
1
1
1
1
1
1
1
1
1
1
1.00003
4.46537
9.48078
9.85022
9.84254
9.78606
9.64119
9.34412
8.76475
7.8714
5.96809
1
1
1
1
1
1
1
1
1
1
1
1
1
0.999999
2.52551
8.54761
9.64395
9.60553
9.50725
9.30119
8.9333
8.35678
7.38801
5.87539
1
1
1
1
1
1
1
1
1
1
1
1
1
1
1.20311
6.89234
9.40171
9.36678
9.23242
8.99867
8.5885
8.05814
7.08035
5.88764
1
1
1
1
1
1
1
1
1
1
1
1
1
1
1.00367
4.49872
8.81224
9.16051
9.03669
8.76934
8.34913
7.79965
6.91945
5.97005
1
1
1
1
1
1
1
1
1
1
1
1
1
1
0.99998
1.9933
7.90629
9.10382
8.84036
8.54002
8.09765
7.54489
6.80943
6.02551
1
1
1
1
1
1
1
1
1
1
1
1
1
1
0.999996
1.07793
5.87724
8.75109
8.53413
8.28153
7.88823
7.38266
6.75462
6.07749
1
1
1
1
1
1
1
1
1
1
1
1
1
1
0.999999
1.00039
2.90159
8.00849
8.42831
8.15377
7.76328
7.28193
6.71234
6.1169
1
1
1
1
1
1
1
1
1
1
1
1
1
1
1
0.999999
1.23268
6.11124
8.33138
8.00297
7.64661
7.19343
6.67771
6.15269
1
1
1
1
1
1
1
1
1
1
1
1
1
1
1
1
1.0041
3.02212
7.51001
7.90254
7.55926
7.14515
6.67597
6.19369
1
1
1
1
1
1
1
1
1
1
1
1
1
1
1
1
1.00001
1.26551
5.67282
7.8794
7.50062
7.09287
6.64971
6.20201
1
1
1
1
1
1
1
1
1
1
1
1
1
1
1
1
1
1.00554
2.51784
6.8469
7.44984
7.04889
6.65843
6.24531
1
1
1
1
1
1
1
1
1
1
1
1
1
1
1
1
1
1.00002
1.15515
4.57024
7.29802
7.05818
6.68949
6.28955
1
1
1
1
1
1
1
1
1
1
1
1
1
1
1
1
1
1
1.00234
1.8545
5.89259
7.13159
6.72442
6.34986
1
1
1
1
1
1
1
1
1
1
1
1
1
1
1
1
1
1
1.00001
1.05163
3.03705
6.35611
6.75949
6.37521
1
1
1
1
1
1
1
1
1
1
1
1
1
1
1
1
1
1
1
1.00055
1.27362
4.25994
6.49146
6.43624
1
1
1
1
1
1
1
1
1
1
1
1
1
1
1
1
1
1
1
1
1.0071
1.76661
5.02331
6.38819
1
1
1
1
1
1
1
1
1
1
1
1
1
1
1
1
1
1
1
1
1.00004
1.04373
2.36778
5.42736
1
1
1
1
1
1
1
1
1
1
1
1
1
1
1
1
1
1
1
1
1
1.0005
1.13172
2.95313
1
1
1
1
1
1
1
1
1
1
1
1
1
1
1
1
1
1
1
1
1
1
1.00249
1.27259
1
1
1
1
1
1
1
1
1
1
1
1
1
1
1
1
1
1
1
1
1
1
1.00001
1.00788
1
1
1
1
1
1
1
1
1
1
1
1
1
1
1
1
1
1
1
1
1
1
1
1.00005
1
1
1
1
1
1
1
1
1
1
1
1
1
1
1
1
1
1
1
1
1
1
1
1
1
1
1
1
1
1
1
1
1
1
1
1
1
1
1
1
1
1
1
1
1
1
1
1
1
1
1
1
1
1
1
1
1
1
1
1
1
1
1
1
1
1
1
1
1
1
1
1
1
1
1
1
1
1
1
1
1
1
1
1
1
1
1
1
1
1
1
1
1
1
1
1
1
1
1
1
1
1
1
1
1
1
1
1
1
1
1
1
1
1
1
1
1
1
1
1
1
1
1
1
1
1
1
1
1
1
1
1
1
1
1
1
1
1
1
1
1
1
1
1
1
1
1
1
1
1
1
1
1
1
1
1
1
1
1
1
1
1
1
1
1
1
1
1
1
1
1
1
1
1
1
1
1
1
1
1
1
1
1
1
1
1
1
1
1
1
1
1
1
1
1
1
1
1
1
1
1
1
1
1
1
1
1
1
1
1
1
1
1
1
1
1
1.63543
0.367192
0.221177
0.196413
0.189817
0.216518
0.303198
0.437707
0.595189
0.745054
0.890542
1.03728
1.0977
1.09051
1.1129
1.14599
1.15291
1.14834
1.1493
1.17354
1.19825
1.20621
1.21281
1.20409
1.19203
1.17492
1.16202
1.16203
1.16523
1.16521
1.16607
1.16672
1.16752
1.16353
1.15748
1.14639
1.12896
1.11459
1.10437
1.09589
1.08992
1.08468
1.07882
1.07254
1.0663
1.05859
1.04844
1.03847
1.02989
1.02215
1.01603
1.01213
1.00573
0.996106
0.987116
0.977769
0.965471
0.950435
0.938464
0.930556
0.924717
0.92014
0.916067
0.911682
0.906131
0.895338
0.88487
0.900192
0.940777
1.01208
1.12731
1.2934
1.501
1.75023
2.0215
2.28108
2.48454
2.64738
2.78529
2.89398
2.99388
3.0821
3.15482
3.22484
3.27015
3.26137
3.20231
3.12466
3.05394
2.97544
2.87751
2.80714
2.76955
2.76192
2.76192
2.7244
2.88809
1.45231
0.867824
0.703802
0.573728
0.491595
0.491771
0.494339
0.50462
0.546817
0.612408
0.702345
0.813406
0.89833
0.956237
1.00356
1.04334
1.05804
1.0766
1.1145
1.1613
1.17364
1.18818
1.19167
1.18768
1.17415
1.16326
1.16227
1.16577
1.16774
1.16595
1.16249
1.1586
1.15331
1.1445
1.13183
1.11675
1.10924
1.10492
1.09793
1.08975
1.08192
1.07385
1.06585
1.06087
1.05737
1.05131
1.04367
1.03536
1.02708
1.01823
1.01022
1.00208
0.991894
0.982528
0.974821
0.966776
0.956703
0.944665
0.932167
0.921854
0.91426
0.911395
0.916328
0.936318
0.985676
1.0716
1.18634
1.31615
1.43356
1.55355
1.64293
1.70885
1.74441
1.76478
1.79233
1.85541
1.92975
2.02252
2.1179
2.18307
2.2462
2.29473
2.35219
2.4298
2.47932
2.48829
2.50545
2.53317
2.54271
2.53351
2.53739
2.56773
2.59789
2.61629
2.60365
3.64854
2.43986
1.67197
1.25125
0.9856
0.781846
0.702534
0.653569
0.588943
0.588755
0.60881
0.642962
0.714717
0.794657
0.840344
0.875943
0.930049
0.981361
1.02284
1.07577
1.14895
1.17518
1.19184
1.20775
1.20974
1.19708
1.17809
1.17115
1.17
1.16669
1.15888
1.1531
1.14913
1.14536
1.13718
1.123
1.10776
1.10294
1.10523
1.10352
1.09821
1.09156
1.08278
1.06927
1.05356
1.04616
1.04163
1.03715
1.03177
1.02413
1.01629
1.00908
1.00138
0.989538
0.976105
0.965438
0.956605
0.949349
0.94079
0.931752
0.928443
0.941055
0.977056
1.05571
1.18751
1.34783
1.50752
1.64099
1.72721
1.80077
1.82186
1.8105
1.79173
1.75574
1.71028
1.67343
1.65639
1.64734
1.6381
1.63259
1.63793
1.66285
1.70177
1.73769
1.79758
1.87813
1.96988
2.05686
2.13971
2.20132
2.23846
2.26947
2.31379
2.35039
2.37102
2.37478
4.2766
3.14687
2.38915
1.885
1.50808
1.2378
1.06615
0.944778
0.835706
0.791732
0.749286
0.688034
0.688651
0.700797
0.712963
0.733292
0.78609
0.85352
0.915476
0.970006
1.03759
1.08056
1.10268
1.13481
1.18541
1.19987
1.19406
1.19551
1.19477
1.18483
1.16863
1.153
1.14043
1.13336
1.12409
1.11092
1.10183
1.09698
1.09764
1.09924
1.09697
1.09218
1.0848
1.07352
1.05822
1.04606
1.03872
1.03242
1.02701
1.02002
1.01226
1.00522
0.998899
0.988885
0.974634
0.963494
0.954347
0.952414
0.960268
0.988491
1.05648
1.1699
1.3311
1.50353
1.66011
1.77812
1.82551
1.85641
1.86464
1.85962
1.84361
1.8169
1.78051
1.73794
1.69065
1.63424
1.60042
1.58074
1.56161
1.54705
1.53968
1.53465
1.51905
1.49685
1.48082
1.47814
1.4939
1.52565
1.57903
1.64427
1.7079
1.76523
1.81718
1.86883
1.90025
1.95537
4.70541
3.71994
2.99158
2.44716
1.98731
1.65768
1.47058
1.29686
1.11159
1.0087
0.930112
0.820029
0.74899
0.732246
0.709995
0.711689
0.728317
0.757287
0.798614
0.837793
0.885829
0.950146
0.999183
1.04015
1.1025
1.14499
1.14786
1.15882
1.17326
1.17442
1.16927
1.16179
1.15514
1.1431
1.12969
1.11708
1.10984
1.1021
1.0922
1.08734
1.08538
1.08261
1.07771
1.07121
1.06319
1.05321
1.04425
1.03852
1.03436
1.02787
1.0178
1.00699
0.99585
0.983945
0.967828
0.964679
0.976848
1.02095
1.12545
1.29161
1.50317
1.69208
1.81755
1.91538
1.94297
1.94361
1.92552
1.89018
1.85611
1.83167
1.8065
1.77639
1.74324
1.70922
1.66714
1.61175
1.57306
1.5513
1.5339
1.52041
1.51134
1.50037
1.48173
1.46054
1.43596
1.41708
1.40845
1.4084
1.40617
1.39984
1.39634
1.3945
1.39725
1.40727
1.41986
1.45673
5.02508
4.15993
3.47851
2.92578
2.45269
2.07829
1.81427
1.60256
1.39296
1.26301
1.17686
1.05932
0.928339
0.887484
0.836927
0.781213
0.777154
0.775063
0.763321
0.757279
0.763552
0.787015
0.824798
0.874953
0.949784
1.04573
1.09051
1.11509
1.13604
1.14475
1.14267
1.13793
1.13749
1.14411
1.15068
1.14726
1.14103
1.13006
1.11231
1.08988
1.07335
1.06245
1.05673
1.05336
1.05164
1.04833
1.04378
1.04197
1.03901
1.03323
1.02307
1.01147
1.00019
0.987731
0.995638
1.04196
1.15334
1.36876
1.58321
1.81343
1.953
2.03052
2.03943
2.01878
1.99712
1.96114
1.9179
1.86272
1.82175
1.79714
1.77031
1.73721
1.71085
1.68627
1.64097
1.57845
1.53848
1.5223
1.50833
1.49884
1.49685
1.48693
1.47415
1.4597
1.43244
1.39622
1.38268
1.37875
1.37102
1.35795
1.34913
1.34235
1.32889
1.32061
1.31468
1.30947
5.22997
4.46766
3.85529
3.31843
2.80646
2.45238
2.16303
1.90985
1.66742
1.51058
1.38451
1.26034
1.13688
1.06386
0.996399
0.906549
0.856972
0.828075
0.784683
0.759457
0.762389
0.769197
0.770802
0.779913
0.811159
0.875046
0.951929
1.00647
1.04637
1.08881
1.10009
1.10261
1.11317
1.12995
1.14528
1.1512
1.14957
1.14254
1.1296
1.1083
1.07983
1.05576
1.04803
1.04458
1.04243
1.04125
1.03905
1.03384
1.02492
1.01864
1.01339
1.01129
1.02793
1.09283
1.2355
1.46254
1.71389
1.8912
1.98219
2.08142
2.08634
2.06647
2.04645
2.01911
1.97187
1.91924
1.87787
1.84243
1.79431
1.77075
1.74666
1.71447
1.67985
1.64188
1.60331
1.55283
1.52514
1.51315
1.50385
1.50088
1.4927
1.48012
1.46752
1.44249
1.40384
1.36923
1.36243
1.3602
1.35381
1.34498
1.33976
1.33109
1.31829
1.30571
1.29272
1.2818
5.38445
4.71553
4.14865
3.63126
3.14535
2.78154
2.47695
2.18028
1.9295
1.77158
1.61368
1.45149
1.32199
1.24085
1.16045
1.06753
1.00626
0.968796
0.907249
0.844021
0.832254
0.815541
0.787488
0.777935
0.782556
0.790168
0.801744
0.830043
0.876123
0.93699
1.00054
1.03791
1.06743
1.09944
1.12453
1.13231
1.13239
1.12957
1.1249
1.11422
1.09333
1.06635
1.05504
1.04981
1.04552
1.04043
1.03441
1.02869
1.0176
1.01018
1.03135
1.11183
1.29915
1.56603
1.85372
2.02568
2.14185
2.145
2.1071
2.08003
2.07659
2.06629
2.03641
1.98275
1.92286
1.87671
1.84229
1.79876
1.75388
1.71725
1.68519
1.65461
1.62789
1.60182
1.57533
1.55999
1.53823
1.51174
1.49154
1.47468
1.45875
1.44459
1.43023
1.40719
1.36996
1.34645
1.33849
1.33542
1.33532
1.33948
1.33583
1.32118
1.29883
1.28181
1.27166
1.26292
5.499
4.90051
4.38175
3.88291
3.42254
3.06415
2.75094
2.43993
2.18927
1.9992
1.82426
1.64931
1.51582
1.42181
1.32582
1.21141
1.14177
1.09196
1.0268
0.950231
0.916138
0.88871
0.844486
0.799135
0.796951
0.794759
0.785109
0.781391
0.787549
0.807007
0.845479
0.899933
0.953974
1.01838
1.06534
1.08038
1.09015
1.10351
1.10944
1.10475
1.09183
1.07538
1.06295
1.05675
1.05169
1.04497
1.03821
1.03361
1.05613
1.14727
1.33855
1.63066
1.91318
2.0794
2.22682
2.26807
2.24853
2.16888
2.09783
2.06928
2.04739
2.01396
1.96901
1.92414
1.88738
1.85554
1.81609
1.76694
1.72081
1.68087
1.64529
1.61716
1.59351
1.57805
1.57644
1.56669
1.53913
1.49658
1.45861
1.43986
1.42684
1.41476
1.39835
1.37317
1.34825
1.32903
1.31581
1.31486
1.32379
1.32491
1.31488
1.29582
1.27094
1.25516
1.25015
1.24674
5.59437
5.05691
4.58019
4.10279
3.66837
3.32622
3.00312
2.66083
2.42158
2.22531
2.03668
1.83426
1.70037
1.5927
1.48332
1.36649
1.29009
1.23049
1.15713
1.06531
1.02481
0.99627
0.950613
0.884294
0.868436
0.85003
0.816588
0.788819
0.787162
0.785036
0.783031
0.789997
0.816462
0.871478
0.942237
0.996839
1.02202
1.04234
1.06432
1.07501
1.07414
1.06699
1.06467
1.05885
1.05315
1.05029
1.07308
1.17344
1.39886
1.71746
2.00793
2.15886
2.24174
2.30141
2.31605
2.28421
2.20969
2.11727
2.04249
1.99183
1.96405
1.93889
1.91024
1.88418
1.86024
1.83437
1.79343
1.74063
1.69337
1.65333
1.616
1.58917
1.5752
1.57431
1.57182
1.54833
1.51704
1.47226
1.42829
1.40549
1.39202
1.3795
1.36277
1.346
1.33469
1.32297
1.31469
1.31648
1.31582
1.30703
1.28926
1.26096
1.24501
1.2398
1.2367
1.23976
5.67746
5.18571
4.73771
4.28724
3.8755
3.53554
3.21211
2.88812
2.64179
2.43076
2.22477
2.01569
1.8854
1.76787
1.64516
1.50759
1.42861
1.35972
1.28184
1.1913
1.14265
1.10624
1.05166
0.972212
0.936826
0.910674
0.870577
0.816617
0.8005
0.798565
0.785846
0.782817
0.788464
0.799578
0.822534
0.848601
0.876616
0.912852
0.955438
0.990317
1.01362
1.03556
1.05271
1.05947
1.08092
1.17382
1.41213
1.7445
2.08856
2.25581
2.32111
2.35311
2.35524
2.33247
2.28478
2.21705
2.13677
2.06514
1.99248
1.9257
1.8977
1.88005
1.86692
1.84884
1.83094
1.80753
1.76373
1.72224
1.68802
1.65112
1.61401
1.58264
1.56438
1.55369
1.53747
1.51513
1.48846
1.45221
1.40648
1.3743
1.35646
1.34453
1.33598
1.33483
1.33164
1.31793
1.30073
1.28263
1.27148
1.26527
1.25429
1.24089
1.23021
1.22259
1.21971
1.22521
5.73065
5.28377
4.86302
4.43539
4.0529
3.72942
3.40022
3.07886
2.83501
2.62436
2.41269
2.20945
2.06007
1.92497
1.79748
1.66439
1.57437
1.49282
1.40038
1.29342
1.25034
1.21792
1.16578
1.08435
1.03686
1.00588
0.962097
0.8905
0.862134
0.858255
0.840007
0.810015
0.802034
0.805675
0.799362
0.785261
0.78122
0.793473
0.823234
0.869936
0.918368
0.96766
1.02545
1.11171
1.37021
1.76593
2.09456
2.29664
2.42224
2.43183
2.42624
2.40632
2.37201
2.31751
2.23883
2.16004
2.09963
2.03889
1.95804
1.88575
1.85656
1.83571
1.81664
1.80434
1.79034
1.76609
1.74299
1.72505
1.69765
1.65585
1.6051
1.5625
1.53671
1.51585
1.49715
1.4782
1.45638
1.43
1.39502
1.35331
1.33226
1.32268
1.31912
1.32093
1.30917
1.29512
1.27813
1.25072
1.23177
1.22567
1.22486
1.22399
1.2199
1.21079
1.20537
1.19809
5.80811
5.38404
4.98369
4.58854
4.22193
3.89082
3.57189
3.28394
3.03693
2.80532
2.57659
2.39538
2.23998
2.09485
1.95072
1.8054
1.70322
1.61841
1.53121
1.42098
1.35878
1.3159
1.25837
1.17996
1.13732
1.10668
1.05954
0.979028
0.928935
0.916515
0.894587
0.850427
0.82245
0.821638
0.8112
0.789232
0.777286
0.777933
0.780037
0.787885
0.808101
0.869993
1.04972
1.45256
1.97556
2.2321
2.35241
2.39909
2.39615
2.38291
2.35818
2.32109
2.2493
2.18647
2.14124
2.10162
2.06589
2.01976
1.95296
1.87978
1.83252
1.79775
1.77334
1.75978
1.74614
1.73559
1.72803
1.71256
1.68437
1.64642
1.59805
1.54694
1.4989
1.46782
1.45118
1.43462
1.41569
1.40014
1.38348
1.3552
1.32299
1.30766
1.29893
1.28672
1.27088
1.25439
1.2394
1.21824
1.2055
1.20299
1.20425
1.20181
1.19796
1.19182
1.17692
1.15383
5.88055
5.47806
5.08968
4.72337
4.38212
4.05542
3.73439
3.46167
3.21596
2.97392
2.74331
2.57009
2.39917
2.23661
2.09546
1.96645
1.844
1.73961
1.64963
1.53919
1.4696
1.42465
1.36736
1.27557
1.22087
1.19396
1.15189
1.07713
1.0194
1.00133
0.977275
0.928536
0.88243
0.876003
0.864311
0.833912
0.802298
0.7932
0.790178
0.805506
0.894761
1.16885
1.54669
1.99843
2.15498
2.20191
2.22214
2.22878
2.20085
2.16199
2.1301
2.09665
2.0504
2.02175
2.01641
2.0261
2.02195
2.00487
1.96883
1.912
1.84456
1.78257
1.74448
1.72676
1.70814
1.6945
1.69465
1.68041
1.65278
1.61935
1.57482
1.5214
1.46082
1.42413
1.41016
1.39988
1.38812
1.37516
1.36531
1.35175
1.3242
1.28132
1.25451
1.23798
1.22271
1.20714
1.19786
1.19642
1.19793
1.19114
1.181
1.17334
1.16583
1.15728
1.14374
1.1197
5.9705
5.58101
5.19751
4.85898
4.53257
4.19786
3.8892
3.64048
3.39296
3.13524
2.89946
2.73076
2.55708
2.39075
2.22682
2.10458
1.97077
1.85238
1.77176
1.67312
1.57285
1.51498
1.46009
1.3805
1.31172
1.27695
1.23193
1.1617
1.09908
1.0794
1.05756
1.008
0.947775
0.931191
0.91298
0.878897
0.844114
0.825534
0.863831
1.02868
1.40552
1.75493
1.99917
2.13144
2.12274
2.08185
2.00366
1.93553
1.90398
1.87581
1.84504
1.81969
1.81659
1.82581
1.83981
1.86834
1.91202
1.92143
1.90047
1.85692
1.80701
1.75484
1.71478
1.68469
1.66975
1.66247
1.66146
1.64381
1.61823
1.5862
1.5456
1.49524
1.43832
1.39498
1.37507
1.36518
1.35831
1.35352
1.34596
1.33088
1.3071
1.26273
1.22144
1.20123
1.18451
1.17333
1.16995
1.17986
1.18241
1.17011
1.14674
1.12409
1.116
1.11221
1.10774
1.09579
6.00334
5.64304
5.28285
4.94989
4.63732
4.31555
4.02641
3.77136
3.52384
3.2633
3.05138
2.8738
2.69718
2.51158
2.35469
2.23942
2.11066
1.96788
1.87249
1.79711
1.69521
1.61848
1.56097
1.47225
1.39036
1.353
1.31442
1.25649
1.18984
1.16422
1.13884
1.09083
1.01964
0.99172
0.976563
0.951279
0.955844
1.05862
1.34186
1.7834
2.09729
2.17807
2.20552
2.16715
2.06724
1.97257
1.89676
1.84275
1.80608
1.76123
1.70789
1.64263
1.60697
1.59596
1.59337
1.60602
1.64324
1.69416
1.72103
1.73171
1.71828
1.67917
1.61634
1.5777
1.56764
1.58336
1.61316
1.61073
1.58988
1.5509
1.51986
1.4855
1.43923
1.38804
1.34635
1.33118
1.32448
1.32478
1.31975
1.30245
1.28028
1.24723
1.20449
1.17691
1.16122
1.15401
1.16104
1.16342
1.15251
1.13464
1.10794
1.08292
1.07352
1.0705
1.06889
1.06836
6.09121
5.72812
5.38436
5.06021
4.75437
4.4448
4.15833
3.90163
3.65968
3.41443
3.2072
3.0073
2.82507
2.64749
2.49282
2.35913
2.23183
2.09066
1.98042
1.91402
1.81255
1.71373
1.65779
1.58492
1.48284
1.42583
1.38576
1.33206
1.26874
1.24137
1.2166
1.17597
1.10315
1.0611
1.04944
1.11868
1.34298
1.76136
2.18748
2.47513
2.4348
2.34019
2.2384
2.12951
2.03107
1.94507
1.87253
1.82265
1.78633
1.74891
1.70717
1.64624
1.57967
1.54209
1.51684
1.49283
1.47757
1.48216
1.49077
1.48734
1.482
1.47767
1.46568
1.45077
1.44276
1.45864
1.47692
1.48598
1.49131
1.49825
1.48743
1.46739
1.4324
1.38512
1.34062
1.31085
1.30205
1.29467
1.27483
1.25769
1.24379
1.22755
1.1967
1.16202
1.15124
1.14522
1.13119
1.11889
1.10548
1.08906
1.07184
1.05384
1.03911
1.03686
1.04591
1.05547
6.2083
5.84322
5.50427
5.18098
4.86842
4.57841
4.30683
4.04382
3.77297
3.53963
3.35637
3.16851
2.96554
2.76761
2.6314
2.48846
2.35672
2.20751
2.09909
2.02725
1.92825
1.81654
1.74956
1.68383
1.58093
1.51152
1.4713
1.42034
1.34559
1.30434
1.27536
1.24238
1.19304
1.2079
1.34117
1.76806
2.27676
2.61944
2.71601
2.67243
2.55611
2.42257
2.28676
2.15626
2.04355
1.96051
1.91843
1.89392
1.8652
1.8287
1.78154
1.70788
1.60876
1.52775
1.49035
1.46236
1.4343
1.4087
1.3919
1.38405
1.37953
1.36297
1.33647
1.30989
1.2945
1.2856
1.29908
1.328
1.34568
1.35894
1.37067
1.38535
1.38314
1.36401
1.33768
1.31134
1.29123
1.26425
1.23984
1.22867
1.21611
1.19616
1.17513
1.15152
1.12832
1.1106
1.09648
1.08498
1.07098
1.05436
1.0455
1.03504
1.01323
1.00355
1.00563
1.0085
6.18093
5.9614
5.60882
5.28591
4.98849
4.7052
4.43328
4.17638
3.92294
3.69178
3.48257
3.28819
3.09019
2.91149
2.76603
2.61861
2.46883
2.30529
2.21789
2.13484
2.0362
1.91636
1.84837
1.7841
1.68343
1.5935
1.55078
1.49876
1.42903
1.37994
1.34558
1.32758
1.41681
1.76513
2.31726
2.76627
2.95227
2.97848
2.90434
2.78075
2.62282
2.46355
2.31835
2.19274
2.09114
2.04027
2.00082
1.97005
1.93406
1.88838
1.83159
1.7578
1.67068
1.59109
1.5314
1.48235
1.43172
1.39136
1.36759
1.35053
1.32981
1.30706
1.29673
1.28776
1.2473
1.18346
1.15445
1.14871
1.15417
1.16399
1.18763
1.22355
1.2594
1.27983
1.2767
1.24614
1.21931
1.21765
1.216
1.21496
1.19866
1.17704
1.15335
1.12597
1.10259
1.07925
1.06357
1.05207
1.04035
1.03073
1.02293
1.0122
0.993418
0.976826
0.975478
0.971971
5.56186
6.00168
5.75836
5.40393
5.08606
4.81721
4.56709
4.30412
4.03148
3.81936
3.62734
3.43336
3.21814
3.04373
2.89203
2.7432
2.59523
2.44073
2.33659
2.23386
2.12734
2.01153
1.94337
1.88342
1.78429
1.69282
1.63712
1.57598
1.50049
1.46143
1.51248
1.74778
2.32507
2.9376
3.23543
3.31041
3.24837
3.11139
2.91962
2.75048
2.62543
2.51493
2.39998
2.28287
2.20593
2.1458
2.08723
2.03668
1.98786
1.9352
1.87836
1.81677
1.74774
1.67418
1.60212
1.5326
1.47058
1.42889
1.39624
1.36246
1.32758
1.3011
1.28441
1.26821
1.2419
1.19447
1.13257
1.09435
1.08236
1.07443
1.07234
1.08067
1.09182
1.11422
1.12529
1.11973
1.11824
1.13012
1.1386
1.14279
1.1594
1.16246
1.15127
1.12716
1.08789
1.04769
1.03276
1.02438
1.0148
1.00884
1.00152
0.992375
0.979201
0.956704
0.94143
0.934567
3.41629
5.54551
5.82004
5.57003
5.22267
4.92776
4.67139
4.42593
4.18258
3.9567
3.7405
3.52976
3.33237
3.18258
3.02611
2.86808
2.68864
2.55969
2.46549
2.3533
2.23713
2.10443
2.03445
1.97207
1.87517
1.77323
1.71795
1.66611
1.63773
1.79142
2.32231
2.96764
3.5674
3.72657
3.606
3.43127
3.24252
3.05346
2.89869
2.77944
2.69652
2.63365
2.55138
2.41987
2.28588
2.20601
2.14166
2.08462
2.03398
1.98422
1.93008
1.86994
1.80738
1.74356
1.67152
1.57334
1.48415
1.45138
1.4266
1.39661
1.36277
1.33001
1.30149
1.27193
1.2361
1.19232
1.13063
1.07615
1.06033
1.0511
1.04419
1.03816
1.02668
1.01372
1.00552
0.997109
0.983677
0.987471
1.00471
1.03609
1.08327
1.10995
1.10749
1.09011
1.05742
1.02971
1.01186
1.00222
1.00044
0.997794
0.989405
0.978503
0.963778
0.935777
0.909314
0.902934
1.44255
3.72995
5.45268
5.6427
5.39382
5.06708
4.79123
4.54345
4.29997
4.07761
3.8742
3.66277
3.45844
3.29618
3.13795
2.98264
2.81766
2.69336
2.57775
2.45658
2.33305
2.21119
2.14048
2.07319
1.96928
1.86025
1.82028
1.9124
2.26256
3.01048
3.86897
4.10602
4.0278
3.88301
3.64914
3.42615
3.23892
3.0707
2.98252
2.91971
2.83756
2.73875
2.62929
2.51008
2.39141
2.2819
2.18593
2.10829
2.05044
2.00303
1.95336
1.90119
1.85325
1.80682
1.75228
1.6608
1.5379
1.47897
1.44874
1.41845
1.38646
1.35456
1.32507
1.29654
1.26198
1.21021
1.13767
1.0819
1.06533
1.05513
1.04077
1.02297
1.0081
0.993238
0.975352
0.952117
0.914725
0.900775
0.902118
0.910424
0.937859
0.98318
1.00441
1.00556
0.993744
0.98703
0.981017
0.963613
0.955467
0.953375
0.946969
0.936206
0.922072
0.90209
0.883833
0.879322
1.01794
1.60687
3.90582
5.34597
5.47392
5.2517
4.9194
4.64532
4.4276
4.21758
4.00397
3.76435
3.57855
3.43168
3.28562
3.10459
2.91777
2.81189
2.69778
2.57588
2.44127
2.31719
2.2264
2.15424
2.06982
2.06019
2.29886
3.05826
3.94838
4.39246
4.51954
4.40701
4.17196
3.90295
3.6638
3.47847
3.34965
3.21717
3.07079
2.97403
2.88294
2.78606
2.69475
2.60772
2.51046
2.38644
2.26401
2.16868
2.07868
2.01268
1.9703
1.93054
1.88983
1.84828
1.7994
1.7209
1.60794
1.53221
1.48888
1.45183
1.41684
1.3827
1.35258
1.32508
1.29499
1.2499
1.17132
1.09904
1.0783
1.06792
1.05571
1.0379
1.01671
0.991896
0.96682
0.939554
0.899163
0.864715
0.859689
0.858394
0.859824
0.868695
0.888116
0.90106
0.900577
0.896892
0.90693
0.915683
0.915774
0.919229
0.916919
0.908308
0.892992
0.876187
0.864823
0.85823
1.00015
1.03163
1.73712
3.99506
5.21405
5.31747
5.10686
4.79901
4.53172
4.32628
4.13553
3.91969
3.70722
3.535
3.39144
3.22392
3.0612
2.93562
2.80414
2.66945
2.52765
2.42027
2.34224
2.27772
2.44616
3.06557
4.07321
4.78012
5.07385
4.96329
4.77582
4.52758
4.24701
3.97374
3.73529
3.53664
3.3933
3.28505
3.16169
3.03794
2.93473
2.84647
2.76532
2.68366
2.59036
2.46699
2.32275
2.20685
2.1218
2.05962
2.0125
1.9651
1.9151
1.86395
1.80386
1.72528
1.63363
1.57237
1.53558
1.49874
1.45779
1.41322
1.36851
1.32817
1.29162
1.25685
1.21378
1.14797
1.09817
1.07517
1.05398
1.03181
1.01115
0.992444
0.973384
0.943334
0.897635
0.8563
0.842216
0.837696
0.833796
0.831197
0.831282
0.830342
0.827896
0.820239
0.818397
0.832863
0.848178
0.860203
0.867106
0.863949
0.852349
0.841922
0.839505
0.835004
1
1.00034
1.0457
1.83284
3.97139
5.06814
5.18191
5.00326
4.71127
4.46134
4.25082
4.03353
3.83398
3.68366
3.52286
3.32135
3.15462
3.05161
2.93094
2.78324
2.63337
2.52119
2.60647
3.07927
4.23312
5.19858
5.68456
5.53704
5.32627
5.02947
4.7099
4.42601
4.18772
3.99385
3.82618
3.66202
3.50334
3.36493
3.23808
3.11803
3.00653
2.90432
2.81154
2.72164
2.62441
2.50482
2.36009
2.24475
2.17227
2.11467
2.06363
2.01052
1.95196
1.88979
1.81691
1.72946
1.64831
1.59352
1.55938
1.52803
1.49165
1.44812
1.40086
1.35893
1.32428
1.28536
1.22819
1.16184
1.12545
1.10854
1.09004
1.06568
1.0376
1.01016
0.983324
0.951703
0.910891
0.867007
0.841815
0.830426
0.823559
0.819459
0.816491
0.808802
0.798077
0.783859
0.764965
0.763573
0.770212
0.77772
0.792442
0.802358
0.798935
0.794872
0.799085
0.808728
1
1
1.00059
1.05745
1.87404
3.83556
4.94786
5.07499
4.91488
4.63109
4.39492
4.15924
3.95269
3.80088
3.63338
3.45252
3.27848
3.15929
3.04277
2.89196
2.84218
3.14074
4.17348
5.35765
6.30675
6.39448
6.14035
5.68434
5.28919
4.9568
4.66162
4.43481
4.2575
4.12322
3.98754
3.79905
3.59555
3.42905
3.29606
3.18652
3.08204
2.9692
2.85362
2.74535
2.6428
2.53323
2.40841
2.29826
2.21972
2.15598
2.09954
2.0423
1.97958
1.91509
1.84953
1.77485
1.69206
1.61737
1.56582
1.52832
1.49291
1.45927
1.42538
1.38644
1.34888
1.3146
1.26438
1.18461
1.13669
1.12108
1.10894
1.09074
1.06502
1.03945
1.01727
0.994718
0.960034
0.909202
0.857404
0.829068
0.8188
0.812854
0.806873
0.798915
0.788382
0.773543
0.747614
0.727909
0.727041
0.726433
0.730583
0.74369
0.749916
0.74385
0.742324
0.758713
1
1
1
1.00082
1.06384
1.8308
3.69108
4.86842
4.95705
4.80541
4.56965
4.29038
4.07137
3.92447
3.74514
3.57454
3.38449
3.27335
3.18927
3.37107
4.21126
5.68198
6.68419
6.9021
6.76894
6.41196
6.0142
5.62364
5.28304
5.01435
4.7883
4.58771
4.42203
4.26992
4.10056
3.89549
3.67068
3.46557
3.31103
3.2068
3.11555
3.01243
2.90008
2.78983
2.68396
2.58123
2.4708
2.35024
2.24384
2.1623
2.09696
2.03664
1.98012
1.92575
1.87496
1.82722
1.76551
1.68061
1.60141
1.54269
1.49657
1.45509
1.43097
1.41514
1.39444
1.35294
1.26216
1.1744
1.1463
1.13067
1.11523
1.10125
1.0833
1.05719
1.02884
0.995014
0.949395
0.897753
0.862011
0.840776
0.826034
0.814841
0.803021
0.79164
0.782553
0.769374
0.744307
0.718816
0.713589
0.711997
0.711698
0.713552
0.711143
0.701329
0.695264
0.702258
1
1
1
1
1.00094
1.06104
1.74361
3.65049
4.69758
4.78073
4.71698
4.48193
4.21796
4.03397
3.84536
3.67351
3.52881
3.54719
4.19635
5.89851
7.26763
8.05778
7.8447
7.44698
6.91433
6.37639
5.94163
5.62456
5.33191
5.09804
4.90271
4.71658
4.5427
4.3666
4.17187
3.95982
3.73946
3.53258
3.36243
3.23968
3.14347
3.04391
2.9364
2.82822
2.71979
2.61516
2.51758
2.41574
2.29821
2.19486
2.1132
2.04663
1.99395
1.94814
1.90137
1.84415
1.7551
1.63924
1.58513
1.55888
1.52564
1.49092
1.45829
1.42462
1.38421
1.32454
1.25042
1.19239
1.16713
1.14641
1.12523
1.10794
1.09362
1.0801
1.05557
1.01866
0.968063
0.906152
0.867191
0.849368
0.836352
0.82525
0.814775
0.801323
0.788607
0.778176
0.757502
0.725603
0.713973
0.711538
0.70512
0.695417
0.687597
0.679294
0.672942
0.673268
1
1
1
1
1
1.00089
1.05335
1.70706
3.47442
4.42682
4.7057
4.64458
4.39457
4.15119
3.96647
3.83706
4.1617
5.59733
7.6738
8.86972
8.55661
8.24207
7.81515
7.36209
6.89564
6.4355
6.03693
5.7165
5.42371
5.17276
4.96524
4.77353
4.59026
4.4104
4.22844
4.03805
3.83954
3.64873
3.47061
3.31174
3.1804
3.06334
2.95743
2.86457
2.76947
2.66295
2.53926
2.39236
2.27354
2.20108
2.14311
2.09194
2.0486
2.00563
1.95337
1.88006
1.77544
1.65345
1.56939
1.53088
1.50731
1.48716
1.46805
1.44524
1.4074
1.33849
1.2579
1.22864
1.2054
1.17903
1.15061
1.12397
1.09838
1.06941
1.0385
0.997367
0.943245
0.904381
0.883211
0.867652
0.854448
0.842915
0.832697
0.819625
0.802874
0.780489
0.742862
0.701424
0.689853
0.686579
0.682861
0.676274
0.669137
0.664832
0.663301
0.660965
1
1
1
1
1
1
1.00083
1.04675
1.64188
3.09175
4.33373
4.58285
4.5049
4.34407
4.42109
5.31161
7.42933
9.52392
10.1141
9.81996
9.14735
8.23639
7.60575
7.18982
6.84223
6.4965
6.15789
5.81929
5.49418
5.20667
4.96414
4.76054
4.58422
4.41751
4.25008
4.07442
3.88417
3.68215
3.48914
3.32942
3.20235
3.09185
2.991
2.89747
2.80037
2.68983
2.5579
2.41673
2.30685
2.2271
2.1624
2.10832
2.05995
2.00853
1.94881
1.87795
1.78051
1.65793
1.58431
1.55347
1.52774
1.50221
1.47544
1.44533
1.40546
1.34441
1.27618
1.22166
1.19264
1.17101
1.14914
1.12591
1.10001
1.07242
1.04348
1.00294
0.948274
0.907693
0.888588
0.87578
0.864325
0.853795
0.842683
0.828386
0.809462
0.784101
0.745083
0.702149
0.688171
0.683886
0.678722
0.671276
0.66568
0.662878
0.662591
0.657161
1
1
1
1
1
1
1
1.00065
1.03918
1.478
2.81397
3.99609
4.62019
5.48803
7.25365
9.34754
10.3491
10.459
10.0254
9.40923
8.79612
8.31013
7.82078
7.38144
7.01919
6.70398
6.3942
6.06897
5.75044
5.45102
5.18252
4.95624
4.76403
4.58567
4.40995
4.22878
4.02837
3.80367
3.58346
3.41133
3.28997
3.19168
3.10021
3.00637
2.89858
2.77369
2.63702
2.50364
2.39173
2.30458
2.23515
2.17596
2.11927
2.05819
1.99252
1.92072
1.82922
1.72893
1.66093
1.61341
1.57373
1.54041
1.51029
1.47916
1.44125
1.38926
1.31448
1.24634
1.21593
1.19513
1.17187
1.14715
1.12395
1.10221
1.07504
1.02958
0.966101
0.925542
0.910926
0.900638
0.890371
0.879546
0.867218
0.852613
0.834425
0.808626
0.764691
0.718334
0.704892
0.698716
0.690032
0.683224
0.679891
0.678174
0.675934
0.666241
1
1
1
1
1
1
1
1
1.00049
1.02558
1.35751
2.88558
5.81554
9.7965
13.497
14.7835
13.5788
11.4885
9.83581
8.88681
8.37279
8.09538
7.70172
7.25962
6.86171
6.54828
6.25346
5.9466
5.64115
5.34658
5.07823
4.85232
4.65932
4.47648
4.29275
4.10566
3.90783
3.69184
3.47891
3.30694
3.17994
3.08112
2.9992
2.91862
2.81977
2.69579
2.55586
2.42127
2.31347
2.23144
2.16443
2.10736
2.0538
1.99539
1.92947
1.85437
1.76429
1.67482
1.61149
1.56222
1.51908
1.48507
1.4581
1.42992
1.39219
1.33809
1.26468
1.20465
1.17867
1.15767
1.13236
1.10571
1.0823
1.06221
1.03753
0.994994
0.933671
0.893117
0.87912
0.869896
0.8607
0.850678
0.839175
0.825691
0.808737
0.782308
0.734123
0.689637
0.680039
0.674137
0.66504
0.658343
0.655389
0.65396
0.65211
0.643607
)
;

boundaryField
{
    inlet
    {
        type            fixedValue;
        value           uniform 1;
    }
    outlet
    {
        type            zeroGradient;
    }
    bottom
    {
        type            symmetryPlane;
    }
    top
    {
        type            symmetryPlane;
    }
    obstacle
    {
        type            zeroGradient;
    }
    defaultFaces
    {
        type            empty;
    }
}


// ************************************************************************* //
