/*--------------------------------*- C++ -*----------------------------------*\
  =========                 |
  \\      /  F ield         | OpenFOAM: The Open Source CFD Toolbox
   \\    /   O peration     | Website:  https://openfoam.org
    \\  /    A nd           | Version:  7
     \\/     M anipulation  |
\*---------------------------------------------------------------------------*/
FoamFile
{
    version     2.0;
    format      ascii;
    class       volScalarField;
    location    "2.9";
    object      rho;
}
// * * * * * * * * * * * * * * * * * * * * * * * * * * * * * * * * * * * * * //

dimensions      [1 -3 0 0 0 0 0];

internalField   nonuniform List<scalar> 
64512
(
1.40001
1.40001
1.40001
1.40001
1.40001
1.40001
1.40001
1.40001
1.40001
1.40001
1.40001
1.40001
1.40001
1.40001
1.40001
1.40001
1.40001
1.40001
1.40001
1.40001
1.40001
1.40001
1.40001
1.40001
1.40001
1.40001
1.40001
1.40001
1.40001
1.40001
1.40001
1.40001
1.40001
1.40001
1.40001
1.40001
1.40001
1.40001
1.40001
1.40001
1.40001
1.40001
1.40001
1.40001
1.40001
1.40001
1.40001
1.40001
1.40001
3.41233
5.34567
5.41793
5.44449
5.4743
5.50272
5.52967
5.55458
5.57687
5.59566
5.61081
5.62325
5.63468
5.64822
5.66485
5.68292
5.70246
5.72426
5.74703
5.76687
5.78061
5.78823
5.79404
5.80382
5.82005
5.84021
5.86037
5.87747
5.88961
5.89712
5.90277
5.9094
5.91761
5.92643
5.93496
5.94305
5.95116
5.95983
5.96883
5.97719
5.98378
5.98775
5.98879
5.987
5.98414
5.98219
5.98225
1.40001
1.40001
1.40001
1.40001
1.40001
1.40001
1.40001
1.40001
1.40001
1.40001
1.40001
1.40001
1.40001
1.40001
1.40001
1.40001
1.40001
1.40001
1.40001
1.40001
1.40001
1.40001
1.40001
1.40001
1.40001
1.40001
1.40001
1.40001
1.40001
1.40001
1.40001
1.40001
1.40001
1.40001
1.40001
1.40001
1.40001
1.40001
1.40001
1.40001
1.40001
1.40001
1.40001
1.40001
1.40001
1.40001
1.40001
1.40001
1.40001
3.39116
5.33534
5.41968
5.446
5.47544
5.50329
5.52987
5.55431
5.57631
5.59514
5.61053
5.62323
5.63453
5.64742
5.66351
5.68145
5.701
5.7231
5.74643
5.76659
5.78048
5.78798
5.7937
5.80338
5.81944
5.83949
5.85956
5.87663
5.88876
5.89626
5.90193
5.90858
5.91683
5.92569
5.93426
5.94236
5.9504
5.95895
5.9678
5.97607
5.98265
5.98667
5.98775
5.98591
5.98295
5.98085
5.98082
1.40001
1.40001
1.40001
1.40001
1.40001
1.40001
1.40001
1.40001
1.40001
1.40001
1.40001
1.40001
1.40001
1.40001
1.40001
1.40001
1.40001
1.40001
1.40001
1.40001
1.40001
1.40001
1.40001
1.40001
1.40001
1.40001
1.40001
1.40001
1.40001
1.40001
1.40001
1.40001
1.40001
1.40001
1.40001
1.40001
1.40001
1.40001
1.40001
1.40001
1.40001
1.40001
1.40001
1.40001
1.40001
1.40001
1.40001
1.40001
1.40001
3.35026
5.32746
5.41961
5.44555
5.47472
5.50208
5.52865
5.55314
5.57514
5.59421
5.60995
5.62285
5.63395
5.64617
5.66164
5.67937
5.69895
5.72136
5.74521
5.76567
5.77984
5.78736
5.793
5.80258
5.8184
5.83825
5.85815
5.87519
5.88733
5.89488
5.90061
5.90729
5.91554
5.92441
5.93302
5.94113
5.94913
5.95752
5.96618
5.9743
5.98085
5.98494
5.98607
5.98417
5.98104
5.9787
5.97848
1.40001
1.40001
1.40001
1.40001
1.40001
1.40001
1.40001
1.40001
1.40001
1.40001
1.40001
1.40001
1.40001
1.40001
1.40001
1.40001
1.40001
1.40001
1.40001
1.40001
1.40001
1.40001
1.40001
1.40001
1.40001
1.40001
1.40001
1.40001
1.40001
1.40001
1.40001
1.40001
1.40001
1.40001
1.40001
1.40001
1.40001
1.40001
1.40001
1.40001
1.40001
1.40001
1.40001
1.40001
1.40001
1.40001
1.40001
1.40001
1.40001
3.29317
5.3179
5.41856
5.44367
5.47267
5.49985
5.52657
5.55153
5.57395
5.59349
5.6096
5.6224
5.63291
5.64409
5.65892
5.67663
5.6964
5.71928
5.74356
5.76433
5.77882
5.78641
5.79193
5.80134
5.81681
5.83635
5.85599
5.87298
5.88519
5.8929
5.89876
5.90549
5.91368
5.92247
5.93106
5.93918
5.94715
5.95541
5.96386
5.97177
5.97821
5.9823
5.98341
5.98138
5.97801
5.97535
5.9749
1.40001
1.40001
1.40001
1.40001
1.40001
1.40001
1.40001
1.40001
1.40001
1.40001
1.40001
1.40001
1.40001
1.40001
1.40001
1.40001
1.40001
1.40001
1.40001
1.40001
1.40001
1.40001
1.40001
1.40001
1.40001
1.40001
1.40001
1.40001
1.40001
1.40001
1.40001
1.40001
1.40001
1.40001
1.40001
1.40001
1.40001
1.40001
1.40001
1.40001
1.40001
1.40001
1.40001
1.40001
1.40001
1.40001
1.40001
1.40001
1.40001
3.22058
5.30441
5.4162
5.44022
5.46905
5.49604
5.52296
5.54884
5.57242
5.59285
5.60945
5.62199
5.63166
5.64157
5.65579
5.67368
5.69375
5.71712
5.7416
5.76259
5.77739
5.78507
5.79041
5.79954
5.81456
5.83366
5.85293
5.86987
5.88224
5.89022
5.89631
5.90307
5.91113
5.91976
5.92827
5.93641
5.94439
5.95259
5.96088
5.96862
5.97495
5.97899
5.98002
5.97782
5.97416
5.97119
5.97049
1.40001
1.40001
1.40001
1.40001
1.40001
1.40001
1.40001
1.40001
1.40001
1.40001
1.40001
1.40001
1.40001
1.40001
1.40001
1.40001
1.40001
1.40001
1.40001
1.40001
1.40001
1.40001
1.40001
1.40001
1.40001
1.40001
1.40001
1.40001
1.40001
1.40001
1.40001
1.40001
1.40001
1.40001
1.40001
1.40001
1.40001
1.40001
1.40001
1.40001
1.40001
1.40001
1.40001
1.40001
1.40001
1.40001
1.40001
1.40001
1.40001
3.13171
5.28551
5.41341
5.43583
5.46435
5.49111
5.51813
5.54511
5.57045
5.59225
5.60949
5.62172
5.63036
5.6388
5.65237
5.67056
5.69094
5.71473
5.73924
5.76039
5.77548
5.78327
5.78837
5.79711
5.81159
5.83017
5.84902
5.86591
5.87852
5.88689
5.89326
5.90007
5.90799
5.91644
5.92485
5.93297
5.94096
5.94911
5.95727
5.96486
5.97105
5.97497
5.97581
5.97339
5.96942
5.96618
5.96527
1.40001
1.40001
1.40001
1.40001
1.40001
1.40001
1.40001
1.40001
1.40001
1.40001
1.40001
1.40001
1.40001
1.40001
1.40001
1.40001
1.40001
1.40001
1.40001
1.40001
1.40001
1.40001
1.40001
1.40001
1.40001
1.40001
1.40001
1.40001
1.40001
1.40001
1.40001
1.40001
1.40001
1.40001
1.40001
1.40001
1.40001
1.40001
1.40001
1.40001
1.40001
1.40001
1.40001
1.40001
1.40001
1.40001
1.40001
1.40001
1.40001
3.02524
5.26107
5.41047
5.43104
5.45979
5.48604
5.51292
5.54054
5.56756
5.59112
5.60936
5.6216
5.62935
5.63626
5.64897
5.66738
5.688
5.71203
5.73642
5.75772
5.77309
5.78098
5.78573
5.79392
5.80774
5.8258
5.84429
5.86122
5.87415
5.88293
5.88955
5.89635
5.90408
5.91232
5.92059
5.92864
5.93657
5.94467
5.95277
5.96032
5.96643
5.97021
5.9708
5.9681
5.96382
5.96035
5.95929
1.40001
1.40001
1.40001
1.40001
1.40001
1.40001
1.40001
1.40001
1.40001
1.40001
1.40001
1.40001
1.40001
1.40001
1.40001
1.40001
1.40001
1.40001
1.40001
1.40001
1.40001
1.40001
1.40001
1.40001
1.40001
1.40001
1.40001
1.40001
1.40001
1.40001
1.40001
1.40001
1.40001
1.40001
1.40001
1.40001
1.40001
1.40001
1.40001
1.40001
1.40001
1.40001
1.40001
1.40001
1.40001
1.40001
1.40001
1.40001
1.40001
2.89995
5.23206
5.40826
5.42643
5.4556
5.48135
5.50792
5.53554
5.56375
5.58913
5.60878
5.62156
5.62885
5.63446
5.64598
5.66427
5.68506
5.70901
5.73317
5.75465
5.77032
5.77838
5.78275
5.79026
5.8033
5.82081
5.839
5.856
5.86922
5.8783
5.88502
5.8917
5.89925
5.90736
5.91553
5.92346
5.93124
5.9392
5.94724
5.95483
5.96098
5.96467
5.96504
5.96208
5.95754
5.95395
5.95284
1.40001
1.40001
1.40001
1.40001
1.40001
1.40001
1.40001
1.40001
1.40001
1.40001
1.40001
1.40001
1.40001
1.40001
1.40001
1.40001
1.40001
1.40001
1.40001
1.40001
1.40001
1.40001
1.40001
1.40001
1.40001
1.40001
1.40001
1.40001
1.40001
1.40001
1.40001
1.40001
1.40001
1.40001
1.40001
1.40001
1.40001
1.40001
1.40001
1.40001
1.40001
1.40001
1.40001
1.40001
1.40001
1.40001
1.40001
1.40001
1.40001
2.75615
5.1967
5.40861
5.42336
5.45199
5.47707
5.50326
5.53048
5.55914
5.58602
5.60735
5.62117
5.62858
5.63335
5.64328
5.66086
5.6816
5.70512
5.72903
5.7507
5.76673
5.77505
5.77907
5.78587
5.79806
5.81503
5.83301
5.85009
5.86356
5.87284
5.87955
5.88607
5.89348
5.90156
5.90972
5.91757
5.9252
5.93299
5.94098
5.94863
5.95482
5.9584
5.95849
5.95518
5.95037
5.94666
5.94554
1.40001
1.40001
1.40001
1.40001
1.40001
1.40001
1.40001
1.40001
1.40001
1.40001
1.40001
1.40001
1.40001
1.40001
1.40001
1.40001
1.40001
1.40001
1.40001
1.40001
1.40001
1.40001
1.40001
1.40001
1.40001
1.40001
1.40001
1.40001
1.40001
1.40001
1.40001
1.40001
1.40001
1.40001
1.40001
1.40001
1.40001
1.40001
1.40001
1.40001
1.40001
1.40001
1.40001
1.40001
1.40001
1.40001
1.40001
1.40001
1.40001
2.5969
5.15034
5.41144
5.42253
5.44987
5.47334
5.49866
5.52527
5.5538
5.5817
5.60478
5.62022
5.62844
5.63302
5.64115
5.65735
5.67781
5.70063
5.72429
5.74609
5.76244
5.77112
5.77487
5.781
5.79229
5.8087
5.82645
5.84355
5.85719
5.86662
5.8733
5.87968
5.887
5.8951
5.90328
5.911
5.91835
5.92584
5.93363
5.94125
5.94747
5.95102
5.95089
5.94727
5.94227
5.9385
5.93745
1.40001
1.40001
1.40001
1.40001
1.40001
1.40001
1.40001
1.40001
1.40001
1.40001
1.40001
1.40001
1.40001
1.40001
1.40001
1.40001
1.40001
1.40001
1.40001
1.40001
1.40001
1.40001
1.40001
1.40001
1.40001
1.40001
1.40001
1.40001
1.40001
1.40001
1.40001
1.40001
1.40001
1.40001
1.40001
1.40001
1.40001
1.40001
1.40001
1.40001
1.40001
1.40001
1.40001
1.40001
1.40001
1.40001
1.40001
1.40001
1.40001
2.42528
5.08538
5.41695
5.42473
5.44942
5.47055
5.49424
5.5197
5.54756
5.57593
5.60052
5.61788
5.62764
5.63269
5.63917
5.65355
5.67342
5.69534
5.71877
5.74052
5.75705
5.76621
5.76992
5.77559
5.78606
5.80185
5.81926
5.83628
5.85001
5.85957
5.86628
5.87256
5.87979
5.88786
5.89599
5.90356
5.91064
5.91784
5.92543
5.93298
5.93918
5.94267
5.94233
5.93844
5.93332
5.92951
5.92856
1.40001
1.40001
1.40001
1.40001
1.40001
1.40001
1.40001
1.40001
1.40001
1.40001
1.40001
1.40001
1.40001
1.40001
1.40001
1.40001
1.40001
1.40001
1.40001
1.40001
1.40001
1.40001
1.40001
1.40001
1.40001
1.40001
1.40001
1.40001
1.40001
1.40001
1.40001
1.40001
1.40001
1.40001
1.40001
1.40001
1.40001
1.40001
1.40001
1.40001
1.40001
1.40001
1.40001
1.40001
1.40001
1.40001
1.40001
1.40001
1.40001
2.24748
4.9956
5.42405
5.42955
5.45054
5.469
5.49078
5.51473
5.54139
5.56954
5.59522
5.61465
5.62658
5.63275
5.63814
5.65031
5.66904
5.68989
5.71275
5.73425
5.75078
5.76054
5.76448
5.76994
5.77966
5.79468
5.81153
5.82824
5.84195
5.85167
5.85852
5.86482
5.87196
5.87989
5.88782
5.89513
5.90193
5.90886
5.91624
5.92362
5.9297
5.93305
5.93256
5.92854
5.92341
5.9196
5.91881
1.40001
1.40001
1.40001
1.40001
1.40001
1.40001
1.40001
1.40001
1.40001
1.40001
1.40001
1.40001
1.40001
1.40001
1.40001
1.40001
1.40001
1.40001
1.40001
1.40001
1.40001
1.40001
1.40001
1.40001
1.40001
1.40001
1.40001
1.40001
1.40001
1.40001
1.40001
1.40001
1.40001
1.40001
1.40001
1.40001
1.40001
1.40001
1.40001
1.40001
1.40001
1.40001
1.40001
1.40001
1.40001
1.40001
1.40001
1.40001
1.40001
2.06626
4.87796
5.42955
5.43444
5.45258
5.46839
5.48806
5.51024
5.53539
5.56279
5.58912
5.6104
5.62461
5.63238
5.63765
5.64753
5.6644
5.68432
5.70632
5.72725
5.74363
5.75408
5.75859
5.7641
5.77317
5.78727
5.80332
5.81947
5.83301
5.84289
5.84997
5.85637
5.8634
5.87105
5.87861
5.88556
5.8921
5.89885
5.90605
5.91321
5.91906
5.92221
5.92163
5.91763
5.91266
5.90891
5.90831
1.40001
1.40001
1.40001
1.40001
1.40001
1.40001
1.40001
1.40001
1.40001
1.40001
1.40001
1.40001
1.40001
1.40001
1.40001
1.40001
1.40001
1.40001
1.40001
1.40001
1.40001
1.40001
1.40001
1.40001
1.40001
1.40001
1.40001
1.40001
1.40001
1.40001
1.40001
1.40001
1.40001
1.40001
1.40001
1.40001
1.40001
1.40001
1.40001
1.40001
1.40001
1.40001
1.40001
1.40001
1.40001
1.40001
1.40001
1.40001
1.40001
1.88787
4.7384
5.43562
5.43882
5.45476
5.46869
5.48612
5.50613
5.52955
5.55586
5.58229
5.6049
5.62122
5.631
5.63706
5.64521
5.65986
5.67855
5.69953
5.71966
5.7357
5.74684
5.75229
5.75813
5.76668
5.7797
5.79468
5.80998
5.82315
5.83312
5.8405
5.84708
5.85402
5.86129
5.86836
5.8749
5.88121
5.88785
5.89491
5.90177
5.90723
5.9101
5.90946
5.90556
5.90084
5.8972
5.89678
1.40001
1.40001
1.40001
1.40001
1.40001
1.40001
1.40001
1.40001
1.40001
1.40001
1.40001
1.40001
1.40001
1.40001
1.40001
1.40001
1.40001
1.40001
1.40001
1.40001
1.40001
1.40001
1.40001
1.40001
1.40001
1.40001
1.40001
1.40001
1.40001
1.40001
1.40001
1.40001
1.40001
1.40001
1.40001
1.40001
1.40001
1.40001
1.40001
1.40001
1.40001
1.40001
1.40001
1.40001
1.40001
1.40001
1.40001
1.40001
1.40001
1.72191
4.57522
5.43968
5.44007
5.45476
5.46904
5.48547
5.50359
5.52493
5.54942
5.57495
5.59795
5.61586
5.62787
5.63548
5.64308
5.65575
5.67266
5.69217
5.7114
5.72711
5.73891
5.74556
5.75186
5.75995
5.77179
5.78553
5.79981
5.81249
5.8225
5.83019
5.83695
5.84373
5.85055
5.85705
5.86314
5.86923
5.87576
5.88261
5.88902
5.89395
5.8965
5.8959
5.89229
5.88797
5.88452
5.88432
1.40001
1.40001
1.40001
1.40001
1.40001
1.40001
1.40001
1.40001
1.40001
1.40001
1.40001
1.40001
1.40001
1.40001
1.40001
1.40001
1.40001
1.40001
1.40001
1.40001
1.40001
1.40001
1.40001
1.40001
1.40001
1.40001
1.40001
1.40001
1.40001
1.40001
1.40001
1.40001
1.40001
1.40001
1.40001
1.40001
1.40001
1.40001
1.40001
1.40001
1.40001
1.40001
1.40001
1.40001
1.40001
1.40001
1.40001
1.40001
1.40001
1.57233
4.38393
5.43529
5.43447
5.44842
5.46436
5.48095
5.49836
5.51823
5.54115
5.56573
5.58898
5.60828
5.62258
5.63221
5.6403
5.65156
5.66662
5.68438
5.7026
5.71799
5.73023
5.7381
5.74491
5.75269
5.76338
5.77589
5.7891
5.80119
5.81113
5.819
5.82585
5.83239
5.8387
5.84462
5.85028
5.85615
5.86253
5.86906
5.87489
5.8792
5.88142
5.88094
5.87771
5.87383
5.87058
5.87052
1.40001
1.40001
1.40001
1.40001
1.40001
1.40001
1.40001
1.40001
1.40001
1.40001
1.40001
1.40001
1.40001
1.40001
1.40001
1.40001
1.40001
1.40001
1.40001
1.40001
1.40001
1.40001
1.40001
1.40001
1.40001
1.40001
1.40001
1.40001
1.40001
1.40001
1.40001
1.40001
1.40001
1.40001
1.40001
1.40001
1.40001
1.40001
1.40001
1.40001
1.40001
1.40001
1.40001
1.40001
1.40001
1.40001
1.40001
1.40001
1.40001
1.43715
4.15713
5.40573
5.41744
5.43519
5.45569
5.4749
5.49342
5.51243
5.53329
5.55589
5.57834
5.59817
5.61417
5.62598
5.6354
5.64613
5.65976
5.67578
5.69294
5.70802
5.72053
5.72959
5.73697
5.74466
5.75429
5.76563
5.77776
5.78922
5.79899
5.80693
5.81372
5.81993
5.82569
5.83105
5.83629
5.8419
5.848
5.85404
5.85917
5.86281
5.86469
5.86438
5.86164
5.85824
5.8552
5.85528
1.40001
1.40001
1.40001
1.40001
1.40001
1.40001
1.40001
1.40001
1.40001
1.40001
1.40001
1.40001
1.40001
1.40001
1.40001
1.40001
1.40001
1.40001
1.40001
1.40001
1.40001
1.40001
1.40001
1.40001
1.40001
1.40001
1.40001
1.40001
1.40001
1.40001
1.40001
1.40001
1.40001
1.40001
1.40001
1.40001
1.40001
1.40001
1.40001
1.40001
1.40001
1.40001
1.40001
1.40001
1.40001
1.40001
1.40001
1.40001
1.40001
1.40109
3.87755
5.34771
5.39202
5.4173
5.44192
5.46217
5.48129
5.50025
5.52057
5.54246
5.56453
5.58474
5.60204
5.61576
5.62695
5.63816
5.65116
5.6659
5.6821
5.69702
5.70969
5.71981
5.72776
5.7355
5.74421
5.75448
5.76564
5.77655
5.7861
5.79397
5.8005
5.8062
5.81137
5.81623
5.82114
5.82647
5.83215
5.83752
5.84184
5.84479
5.84631
5.84612
5.84383
5.84084
5.838
5.83816
1.40001
1.40001
1.40001
1.40001
1.40001
1.40001
1.40001
1.40001
1.40001
1.40001
1.40001
1.40001
1.40001
1.40001
1.40001
1.40001
1.40001
1.40001
1.40001
1.40001
1.40001
1.40001
1.40001
1.40001
1.40001
1.40001
1.40001
1.40001
1.40001
1.40001
1.40001
1.40001
1.40001
1.40001
1.40001
1.40001
1.40001
1.40001
1.40001
1.40001
1.40001
1.40001
1.40001
1.40001
1.40001
1.40001
1.40001
1.40001
1.40001
1.40001
3.5497
5.28793
5.37074
5.40003
5.4279
5.45042
5.47054
5.48977
5.50966
5.53043
5.55145
5.57117
5.58852
5.60339
5.61593
5.62786
5.6408
5.65475
5.67001
5.68471
5.69743
5.7084
5.71691
5.72487
5.73295
5.74236
5.75269
5.76305
5.77229
5.77989
5.786
5.79115
5.79578
5.80024
5.80481
5.80967
5.81464
5.8191
5.82253
5.82483
5.82605
5.82596
5.82406
5.82144
5.81881
5.81909
1.40001
1.40001
1.40001
1.40001
1.40001
1.40001
1.40001
1.40001
1.40001
1.40001
1.40001
1.40001
1.40001
1.40001
1.40001
1.40001
1.40001
1.40001
1.40001
1.40001
1.40001
1.40001
1.40001
1.40001
1.40001
1.40001
1.40001
1.40001
1.40001
1.40001
1.40001
1.40001
1.40001
1.40001
1.40001
1.40001
1.40001
1.40001
1.40001
1.40001
1.40001
1.40001
1.40001
1.40001
1.40001
1.40001
1.40001
1.40001
1.40001
1.40001
3.20623
5.23307
5.35998
5.38982
5.41489
5.43736
5.45771
5.47714
5.49717
5.51777
5.53843
5.55786
5.57502
5.59
5.60313
5.61532
5.62797
5.64138
5.65577
5.67045
5.68339
5.69504
5.70413
5.71246
5.72025
5.72898
5.73858
5.7484
5.75726
5.76452
5.77019
5.7748
5.77893
5.78297
5.78707
5.79125
5.79529
5.79877
5.80137
5.80308
5.80404
5.80383
5.80197
5.79946
5.79692
5.79724
1.40001
1.40001
1.40001
1.40001
1.40001
1.40001
1.40001
1.40001
1.40001
1.40001
1.40001
1.40001
1.40001
1.40001
1.40001
1.40001
1.40001
1.40001
1.40001
1.40001
1.40001
1.40001
1.40001
1.40001
1.40001
1.40001
1.40001
1.40001
1.40001
1.40001
1.40001
1.40001
1.40001
1.40001
1.40001
1.40001
1.40001
1.40001
1.40001
1.40001
1.40001
1.40001
1.40001
1.40001
1.40001
1.40001
1.40001
1.40001
1.40001
1.40001
2.84436
5.15565
5.36342
5.3885
5.41289
5.4332
5.4507
5.46786
5.48614
5.50505
5.5245
5.54326
5.56023
5.57536
5.58902
5.60169
5.61436
5.62702
5.64069
5.65472
5.66779
5.67981
5.68938
5.69804
5.70585
5.71417
5.72317
5.73245
5.74089
5.74775
5.75298
5.75709
5.76072
5.76427
5.76772
5.77094
5.77384
5.77621
5.77798
5.77907
5.77971
5.77925
5.7773
5.77473
5.77226
5.77265
1.40001
1.40001
1.40001
1.40001
1.40001
1.40001
1.40001
1.40001
1.40001
1.40001
1.40001
1.40001
1.40001
1.40001
1.40001
1.40001
1.40001
1.40001
1.40001
1.40001
1.40001
1.40001
1.40001
1.40001
1.40001
1.40001
1.40001
1.40001
1.40001
1.40001
1.40001
1.40001
1.40001
1.40001
1.40001
1.40001
1.40001
1.40001
1.40001
1.40001
1.40001
1.40001
1.40001
1.40001
1.40001
1.40001
1.40001
1.40001
1.40001
1.40001
2.48465
5.03695
5.39011
5.39972
5.41836
5.43386
5.44885
5.46405
5.48026
5.49788
5.51578
5.53256
5.54771
5.56127
5.57416
5.58675
5.59926
5.61185
5.62443
5.63819
5.65089
5.66253
5.67251
5.68149
5.68961
5.69769
5.70617
5.71486
5.7228
5.72928
5.73415
5.73785
5.741
5.74391
5.74646
5.7485
5.75014
5.75144
5.75247
5.75297
5.75315
5.75211
5.74964
5.7465
5.7438
5.74403
1.40001
1.40001
1.40001
1.40001
1.40001
1.40001
1.40001
1.40001
1.40001
1.40001
1.40001
1.40001
1.40001
1.40001
1.40001
1.40001
1.40001
1.40001
1.40001
1.40001
1.40001
1.40001
1.40001
1.40001
1.40001
1.40001
1.40001
1.40001
1.40001
1.40001
1.40001
1.40001
1.40001
1.40001
1.40001
1.40001
1.40001
1.40001
1.40001
1.40001
1.40001
1.40001
1.40001
1.40001
1.40001
1.40001
1.40001
1.40001
1.40001
1.40001
2.11732
4.86135
5.43288
5.42624
5.43993
5.44833
5.45675
5.46592
5.47821
5.49354
5.50965
5.52492
5.53855
5.5505
5.56166
5.57286
5.58447
5.59614
5.6079
5.61985
5.63275
5.64401
5.65396
5.66281
5.6713
5.67932
5.68735
5.6954
5.70285
5.70901
5.71364
5.71701
5.71962
5.72173
5.7231
5.72371
5.72397
5.72411
5.7242
5.72393
5.72333
5.72145
5.71833
5.7145
5.71154
5.7116
1.40001
1.40001
1.40001
1.40001
1.40001
1.40001
1.40001
1.40001
1.40001
1.40001
1.40001
1.40001
1.40001
1.40001
1.40001
1.40001
1.40001
1.40001
1.40001
1.40001
1.40001
1.40001
1.40001
1.40001
1.40001
1.40001
1.40001
1.40001
1.40001
1.40001
1.40001
1.40001
1.40001
1.40001
1.40001
1.40001
1.40001
1.40001
1.40001
1.40001
1.40001
1.40001
1.40001
1.40001
1.40001
1.40001
1.40001
1.40001
1.40001
1.40001
1.76254
4.68078
5.47884
5.43232
5.44623
5.45448
5.46301
5.47162
5.48223
5.4955
5.50936
5.52208
5.53292
5.54239
5.55158
5.56114
5.57135
5.58191
5.59239
5.60276
5.61351
5.62438
5.634
5.64265
5.65111
5.65897
5.6665
5.67388
5.68081
5.68668
5.69113
5.69423
5.69626
5.6973
5.69725
5.69635
5.69518
5.69412
5.69333
5.69224
5.69049
5.68742
5.68296
5.67774
5.67387
5.67322
1.40001
1.40001
1.40001
1.40001
1.40001
1.40001
1.40001
1.40001
1.40001
1.40001
1.40001
1.40001
1.40001
1.40001
1.40001
1.40001
1.40001
1.40001
1.40001
1.40001
1.40001
1.40001
1.40001
1.40001
1.40001
1.40001
1.40001
1.40001
1.40001
1.40001
1.40001
1.40001
1.40001
1.40001
1.40001
1.40001
1.40001
1.40001
1.40001
1.40001
1.40001
1.40001
1.40001
1.40001
1.40001
1.40001
1.40001
1.40001
1.40001
1.40001
1.47748
4.34391
5.45222
5.42032
5.43495
5.44791
5.46061
5.47224
5.48433
5.49784
5.51091
5.52217
5.53092
5.53797
5.54457
5.55172
5.55999
5.56912
5.5783
5.58697
5.59593
5.60539
5.61407
5.62173
5.62942
5.63697
5.64373
5.65029
5.65664
5.66222
5.66653
5.66932
5.67066
5.67057
5.66893
5.66636
5.66364
5.66118
5.65892
5.65619
5.65268
5.64802
5.64203
5.63544
5.6307
5.62957
1.40001
1.40001
1.40001
1.40001
1.40001
1.40001
1.40001
1.40001
1.40001
1.40001
1.40001
1.40001
1.40001
1.40001
1.40001
1.40001
1.40001
1.40001
1.40001
1.40001
1.40001
1.40001
1.40001
1.40001
1.40001
1.40001
1.40001
1.40001
1.40001
1.40001
1.40001
1.40001
1.40001
1.40001
1.40001
1.40001
1.40001
1.40001
1.40001
1.40001
1.40001
1.40001
1.40001
1.40001
1.40001
1.40001
1.40001
1.40001
1.40001
1.40001
1.402
3.90646
5.3358
5.36406
5.39704
5.42393
5.44632
5.46386
5.47795
5.49235
5.50705
5.52029
5.52945
5.53543
5.54014
5.54522
5.55133
5.55853
5.56598
5.57281
5.5796
5.58722
5.59474
5.60137
5.60748
5.61358
5.61944
5.62496
5.63047
5.63554
5.6395
5.64187
5.6425
5.64105
5.63777
5.63344
5.62903
5.62488
5.6208
5.6164
5.61086
5.60391
5.59555
5.58621
5.57925
5.57637
1.40001
1.40001
1.40001
1.40001
1.40001
1.40001
1.40001
1.40001
1.40001
1.40001
1.40001
1.40001
1.40001
1.40001
1.40001
1.40001
1.40001
1.40001
1.40001
1.40001
1.40001
1.40001
1.40001
1.40001
1.40001
1.40001
1.40001
1.40001
1.40001
1.40001
1.40001
1.40001
1.40001
1.40001
1.40001
1.40001
1.40001
1.40001
1.40001
1.40001
1.40001
1.40001
1.40001
1.40001
1.40001
1.40001
1.40001
1.40001
1.40001
1.40001
1.40001
3.43836
5.23478
5.32198
5.36517
5.40045
5.42757
5.44836
5.46625
5.4827
5.49898
5.51241
5.52356
5.53123
5.53595
5.53989
5.54445
5.54987
5.55557
5.56054
5.56506
5.57024
5.57592
5.58114
5.58574
5.5901
5.59432
5.59853
5.60281
5.60696
5.61024
5.61196
5.61164
5.60878
5.60389
5.59778
5.59138
5.58491
5.57829
5.57098
5.56202
5.55116
5.53919
5.52741
5.51867
5.51515
1.40001
1.40001
1.40001
1.40001
1.40001
1.40001
1.40001
1.40001
1.40001
1.40001
1.40001
1.40001
1.40001
1.40001
1.40001
1.40001
1.40001
1.40001
1.40001
1.40001
1.40001
1.40001
1.40001
1.40001
1.40001
1.40001
1.40001
1.40001
1.40001
1.40001
1.40001
1.40001
1.40001
1.40001
1.40001
1.40001
1.40001
1.40001
1.40001
1.40001
1.40001
1.40001
1.40001
1.40001
1.40001
1.40001
1.40001
1.40001
1.40001
1.40001
1.40001
2.96233
5.09863
5.3061
5.34843
5.38129
5.40722
5.42968
5.44803
5.46453
5.48164
5.49882
5.5124
5.52147
5.52817
5.53305
5.53746
5.54197
5.54638
5.54977
5.55227
5.55493
5.55813
5.56133
5.56404
5.56658
5.56908
5.57144
5.57391
5.57662
5.57875
5.57953
5.5779
5.57366
5.56719
5.55901
5.55009
5.54065
5.53058
5.51962
5.50708
5.49244
5.4758
5.45824
5.44365
5.43509
1.40001
1.40001
1.40001
1.40001
1.40001
1.40001
1.40001
1.40001
1.40001
1.40001
1.40001
1.40001
1.40001
1.40001
1.40001
1.40001
1.40001
1.40001
1.40001
1.40001
1.40001
1.40001
1.40001
1.40001
1.40001
1.40001
1.40001
1.40001
1.40001
1.40001
1.40001
1.40001
1.40001
1.40001
1.40001
1.40001
1.40001
1.40001
1.40001
1.40001
1.40001
1.40001
1.40001
1.40001
1.40001
1.40001
1.40001
1.40001
1.40001
1.40001
1.40001
2.49463
4.96678
5.30991
5.3424
5.37594
5.39955
5.41695
5.43191
5.44716
5.4628
5.47866
5.49398
5.50649
5.51567
5.52197
5.5278
5.53285
5.53698
5.53952
5.54054
5.54097
5.54154
5.54235
5.54288
5.54337
5.54386
5.54413
5.54438
5.54498
5.54552
5.54485
5.54179
5.53598
5.52763
5.5171
5.50518
5.49207
5.47765
5.46164
5.44294
5.42045
5.39461
5.36874
5.34829
5.3398
1.40001
1.40001
1.40001
1.40001
1.40001
1.40001
1.40001
1.40001
1.40001
1.40001
1.40001
1.40001
1.40001
1.40001
1.40001
1.40001
1.40001
1.40001
1.40001
1.40001
1.40001
1.40001
1.40001
1.40001
1.40001
1.40001
1.40001
1.40001
1.40001
1.40001
1.40001
1.40001
1.40001
1.40001
1.40001
1.40001
1.40001
1.40001
1.40001
1.40001
1.40001
1.40001
1.40001
1.40001
1.40001
1.40001
1.40001
1.40001
1.40001
1.40001
1.40001
1.99595
4.78792
5.4073
5.37812
5.38609
5.39326
5.40342
5.41663
5.43115
5.44516
5.45944
5.47378
5.48672
5.49721
5.50592
5.51342
5.5199
5.52498
5.52783
5.5284
5.52744
5.5258
5.52422
5.52247
5.52061
5.51868
5.51656
5.51415
5.51224
5.51053
5.50793
5.50318
5.49563
5.48519
5.47192
5.4564
5.43871
5.41855
5.39557
5.36882
5.33784
5.30267
5.26578
5.22846
5.199
1.40001
1.40001
1.40001
1.40001
1.40001
1.40001
1.40001
1.40001
1.40001
1.40001
1.40001
1.40001
1.40001
1.40001
1.40001
1.40001
1.40001
1.40001
1.40001
1.40001
1.40001
1.40001
1.40001
1.40001
1.40001
1.40001
1.40001
1.40001
1.40001
1.40001
1.40001
1.40001
1.40001
1.40001
1.40001
1.40001
1.40001
1.40001
1.40001
1.40001
1.40001
1.40001
1.40001
1.40001
1.40001
1.40001
1.40001
1.40001
1.40001
1.40001
1.40001
1.53586
4.47244
5.47482
5.40956
5.39069
5.39325
5.40117
5.40994
5.41879
5.42937
5.44144
5.45426
5.46695
5.47779
5.48661
5.49474
5.50293
5.50933
5.51333
5.51447
5.51312
5.51023
5.50675
5.50294
5.49854
5.49409
5.4893
5.4839
5.47897
5.47448
5.46952
5.46272
5.45309
5.44017
5.42368
5.40386
5.38066
5.3536
5.32226
5.28518
5.24007
5.18279
5.11423
5.0477
5.00148
1.40001
1.40001
1.40001
1.40001
1.40001
1.40001
1.40001
1.40001
1.40001
1.40001
1.40001
1.40001
1.40001
1.40001
1.40001
1.40001
1.40001
1.40001
1.40001
1.40001
1.40001
1.40001
1.40001
1.40001
1.40001
1.40001
1.40001
1.40001
1.40001
1.40001
1.40001
1.40001
1.40001
1.40001
1.40001
1.40001
1.40001
1.40001
1.40001
1.40001
1.40001
1.40001
1.40001
1.40001
1.40001
1.40001
1.40001
1.40001
1.40001
1.40001
1.40001
1.40341
3.95512
5.35364
5.35191
5.38105
5.39405
5.40291
5.4104
5.4147
5.42024
5.42781
5.437
5.44748
5.45778
5.46677
5.47461
5.48234
5.48974
5.49494
5.49713
5.49644
5.4934
5.48893
5.48361
5.47696
5.46994
5.46219
5.45373
5.44534
5.43756
5.42965
5.42034
5.40824
5.39247
5.37231
5.3476
5.31811
5.28295
5.24092
5.18919
5.12422
5.04295
4.94358
4.83192
4.75181
1.40001
1.40001
1.40001
1.40001
1.40001
1.40001
1.40001
1.40001
1.40001
1.40001
1.40001
1.40001
1.40001
1.40001
1.40001
1.40001
1.40001
1.40001
1.40001
1.40001
1.40001
1.40001
1.40001
1.40001
1.40001
1.40001
1.40001
1.40001
1.40001
1.40001
1.40001
1.40001
1.40001
1.40001
1.40001
1.40001
1.40001
1.40001
1.40001
1.40001
1.40001
1.40001
1.40001
1.40001
1.40001
1.40001
1.40001
1.40001
1.40001
1.40001
1.40001
1.39999
3.33724
5.1695
5.31453
5.363
5.38285
5.39672
5.40621
5.41138
5.41508
5.41899
5.42421
5.43118
5.43903
5.44679
5.454
5.46089
5.46763
5.47328
5.4765
5.47694
5.47458
5.46998
5.46392
5.45573
5.44627
5.43564
5.42428
5.41224
5.40071
5.3893
5.37686
5.36176
5.34265
5.31838
5.28825
5.25172
5.20724
5.15289
5.08508
4.99906
4.88231
4.70551
4.3532
3.43993
1.40001
1.40001
1.40001
1.40001
1.40001
1.40001
1.40001
1.40001
1.40001
1.40001
1.40001
1.40001
1.40001
1.40001
1.40001
1.40001
1.40001
1.40001
1.40001
1.40001
1.40001
1.40001
1.40001
1.40001
1.40001
1.40001
1.40001
1.40001
1.40001
1.40001
1.40001
1.40001
1.40001
1.40001
1.40001
1.40001
1.40001
1.40001
1.40001
1.40001
1.40001
1.40001
1.40001
1.40001
1.40001
1.40001
1.40001
1.40001
1.40001
1.40001
1.40001
1.4
2.77303
5.01021
5.29815
5.33888
5.36689
5.38761
5.39634
5.40321
5.40833
5.41181
5.41495
5.41882
5.42336
5.42858
5.434
5.43932
5.44468
5.44961
5.45301
5.45422
5.45286
5.44858
5.4426
5.43376
5.4225
5.40955
5.3954
5.37983
5.36422
5.34872
5.33241
5.3136
5.29065
5.26197
5.22613
5.18216
5.12787
5.06028
4.97421
4.8598
4.69819
4.43844
4.024
3.00313
1.40001
1.40001
1.40001
1.40001
1.40001
1.40001
1.40001
1.40001
1.40001
1.40001
1.40001
1.40001
1.40001
1.40001
1.40001
1.40001
1.40001
1.40001
1.40001
1.40001
1.40001
1.40001
1.40001
1.40001
1.40001
1.40001
1.40001
1.40001
1.40001
1.40001
1.40001
1.40001
1.40001
1.40001
1.40001
1.40001
1.40001
1.40001
1.40001
1.40001
1.40001
1.40001
1.40001
1.40001
1.40001
1.40001
1.40001
1.40001
1.40001
1.40001
1.40001
1.4
2.18823
4.82166
5.34353
5.34201
5.35593
5.37082
5.38264
5.39248
5.39915
5.40369
5.40682
5.40927
5.41122
5.41353
5.4163
5.41921
5.42238
5.4258
5.42838
5.42951
5.42856
5.42476
5.41918
5.41037
5.39835
5.38376
5.36701
5.34829
5.32863
5.30868
5.2879
5.26478
5.23741
5.20398
5.16227
5.11074
5.0465
4.96583
4.86159
4.72391
4.52548
4.25568
3.71066
2.87547
1.40001
1.40001
1.40001
1.40001
1.40001
1.40001
1.40001
1.40001
1.40001
1.40001
1.40001
1.40001
1.40001
1.40001
1.40001
1.40001
1.40001
1.40001
1.40001
1.40001
1.40001
1.40001
1.40001
1.40001
1.40001
1.40001
1.40001
1.40001
1.40001
1.40001
1.40001
1.40001
1.40001
1.40001
1.40001
1.40001
1.40001
1.40001
1.40001
1.40001
1.40001
1.40001
1.40001
1.40001
1.40001
1.40001
1.40001
1.40001
1.40001
1.40001
1.40001
1.4
1.62912
4.56358
5.43202
5.3715
5.34964
5.35566
5.36834
5.379
5.38692
5.39269
5.39686
5.39959
5.40072
5.40116
5.40143
5.4016
5.40186
5.40282
5.40384
5.40398
5.40229
5.39868
5.39306
5.38451
5.37268
5.35741
5.3388
5.31735
5.29406
5.26961
5.24385
5.21576
5.18333
5.14475
5.09719
5.0386
4.96498
4.87285
4.75292
4.59757
4.37883
4.06549
3.53698
2.85617
1.40001
1.40001
1.40001
1.40001
1.40001
1.40001
1.40001
1.40001
1.40001
1.40001
1.40001
1.40001
1.40001
1.40001
1.40001
1.40001
1.40001
1.40001
1.40001
1.40001
1.40001
1.40001
1.40001
1.40001
1.40001
1.40001
1.40001
1.40001
1.40001
1.40001
1.40001
1.40001
1.40001
1.40001
1.40001
1.40001
1.40001
1.40001
1.40001
1.40001
1.40001
1.40001
1.40001
1.40001
1.40001
1.40001
1.40001
1.40001
1.40001
1.40001
1.40001
1.40001
1.41026
3.99968
5.30497
5.31326
5.33101
5.34344
5.35586
5.36541
5.37303
5.37917
5.38414
5.38766
5.38921
5.38924
5.38817
5.38623
5.38385
5.38197
5.38066
5.37906
5.37575
5.37126
5.36513
5.35681
5.34524
5.32988
5.31018
5.28665
5.26021
5.23153
5.20074
5.16737
5.12957
5.08555
5.03216
4.96714
4.88545
4.7837
4.65225
4.48111
4.25227
3.92417
3.45532
2.90574
1.40001
1.40001
1.40001
1.40001
1.40001
1.40001
1.40001
1.40001
1.40001
1.40001
1.40001
1.40001
1.40001
1.40001
1.40001
1.40001
1.40001
1.40001
1.40001
1.40001
1.40001
1.40001
1.40001
1.40001
1.40001
1.40001
1.40001
1.40001
1.40001
1.40001
1.40001
1.40001
1.40001
1.40001
1.40001
1.40001
1.40001
1.40001
1.40001
1.40001
1.40001
1.40001
1.40001
1.40001
1.40001
1.40001
1.40001
1.40001
1.40001
1.40001
1.40001
1.40001
1.39996
3.28551
5.12593
5.27947
5.31661
5.33474
5.34422
5.3526
5.35922
5.36478
5.36968
5.37356
5.37586
5.37638
5.37507
5.37211
5.36793
5.36347
5.35937
5.35537
5.35005
5.3436
5.33607
5.3271
5.31549
5.30023
5.28023
5.25546
5.22668
5.19452
5.15915
5.12052
5.07715
5.02743
4.96822
4.89715
4.80912
4.69997
4.56128
4.38191
4.14769
3.83193
3.43001
2.97345
1.40001
1.40001
1.40001
1.40001
1.40001
1.40001
1.40001
1.40001
1.40001
1.40001
1.40001
1.40001
1.40001
1.40001
1.40001
1.40001
1.40001
1.40001
1.40001
1.40001
1.40001
1.40001
1.40001
1.40001
1.40001
1.40001
1.40001
1.40001
1.40001
1.40001
1.40001
1.40001
1.40001
1.40001
1.40001
1.40001
1.40001
1.40001
1.40001
1.40001
1.40001
1.40001
1.40001
1.40001