/*--------------------------------*- C++ -*----------------------------------*\
  =========                 |
  \\      /  F ield         | OpenFOAM: The Open Source CFD Toolbox
   \\    /   O peration     | Website:  https://openfoam.org
    \\  /    A nd           | Version:  7
     \\/     M anipulation  |
\*---------------------------------------------------------------------------*/
FoamFile
{
    version     2.0;
    format      ascii;
    class       volScalarField;
    location    "2.9";
    object      T;
}
// * * * * * * * * * * * * * * * * * * * * * * * * * * * * * * * * * * * * * //

dimensions      [0 0 0 1 0 0 0];

internalField   nonuniform List<scalar> 
64512
(
1
1
1
1
1
1
1
1
1
1
1
1
1
1
1
1
1
1
1
1
1
1
1
1
1
1
1
1
1
1
1
1
1
1
1
1
1
1
1
1
1
1
1
1
1
1
1
1
1
2.0942
2.69819
2.70133
2.70114
2.70213
2.70335
2.70507
2.70782
2.71237
2.71917
2.72784
2.73711
2.74523
2.75082
2.75313
2.75311
2.75267
2.75253
2.75325
2.75547
2.7599
2.76598
2.7719
2.7761
2.77825
2.7792
2.77994
2.78121
2.78367
2.78726
2.79099
2.79382
2.79548
2.79651
2.79756
2.79899
2.80078
2.80256
2.80388
2.80466
2.80525
2.8063
2.80815
2.81081
2.81406
2.81661
2.81769
1
1
1
1
1
1
1
1
1
1
1
1
1
1
1
1
1
1
1
1
1
1
1
1
1
1
1
1
1
1
1
1
1
1
1
1
1
1
1
1
1
1
1
1
1
1
1
1
1
2.08777
2.69606
2.70193
2.70155
2.7025
2.70358
2.70518
2.70778
2.71223
2.719
2.72771
2.73703
2.74515
2.75066
2.75292
2.75285
2.75238
2.7523
2.75309
2.75539
2.75987
2.76594
2.77183
2.776
2.77811
2.77904
2.77977
2.78105
2.78352
2.78712
2.79084
2.79366
2.79532
2.79636
2.79742
2.79886
2.80064
2.80239
2.80368
2.80444
2.80503
2.8061
2.80796
2.81062
2.81385
2.81636
2.81742
1
1
1
1
1
1
1
1
1
1
1
1
1
1
1
1
1
1
1
1
1
1
1
1
1
1
1
1
1
1
1
1
1
1
1
1
1
1
1
1
1
1
1
1
1
1
1
1
1
2.07317
2.69307
2.70253
2.70198
2.70291
2.70383
2.70523
2.70764
2.71186
2.71848
2.72717
2.73657
2.74482
2.75041
2.7527
2.75256
2.75201
2.75194
2.75276
2.75512
2.75966
2.76574
2.77163
2.7758
2.77786
2.77874
2.77945
2.78075
2.78327
2.7869
2.79062
2.79341
2.79506
2.79611
2.79719
2.79864
2.80041
2.80211
2.80335
2.80408
2.80468
2.80579
2.80768
2.81033
2.81352
2.81598
2.817
1
1
1
1
1
1
1
1
1
1
1
1
1
1
1
1
1
1
1
1
1
1
1
1
1
1
1
1
1
1
1
1
1
1
1
1
1
1
1
1
1
1
1
1
1
1
1
1
1
2.05179
2.68761
2.70344
2.70276
2.70369
2.70445
2.70556
2.70756
2.71131
2.71755
2.72609
2.73558
2.74407
2.74993
2.75239
2.75226
2.75164
2.75154
2.75235
2.75468
2.7592
2.76528
2.77121
2.77543
2.77748
2.77833
2.779
2.78031
2.78287
2.78654
2.79027
2.79304
2.79467
2.79572
2.79683
2.7983
2.80005
2.80169
2.80287
2.80356
2.80416
2.80531
2.80723
2.80987
2.81301
2.8154
2.81637
1
1
1
1
1
1
1
1
1
1
1
1
1
1
1
1
1
1
1
1
1
1
1
1
1
1
1
1
1
1
1
1
1
1
1
1
1
1
1
1
1
1
1
1
1
1
1
1
1
2.0244
2.67968
2.70452
2.70385
2.70485
2.70538
2.70608
2.70752
2.71061
2.71624
2.72446
2.73402
2.74291
2.74922
2.75205
2.752
2.75137
2.75118
2.75189
2.75407
2.75846
2.7645
2.77051
2.77485
2.77695
2.77778
2.77839
2.77969
2.78228
2.78599
2.78974
2.79252
2.79415
2.7952
2.79632
2.7978
2.79954
2.80114
2.80226
2.80292
2.80353
2.80472
2.80667
2.80929
2.81238
2.81469
2.81559
1
1
1
1
1
1
1
1
1
1
1
1
1
1
1
1
1
1
1
1
1
1
1
1
1
1
1
1
1
1
1
1
1
1
1
1
1
1
1
1
1
1
1
1
1
1
1
1
1
1.99084
2.67008
2.7051
2.7046
2.70589
2.70637
2.70671
2.70758
2.70992
2.71476
2.72247
2.73201
2.74134
2.74826
2.7516
2.75174
2.75114
2.75082
2.75139
2.75331
2.75746
2.76341
2.7695
2.77404
2.77626
2.77708
2.77763
2.7789
2.7815
2.78524
2.78903
2.79185
2.79351
2.79457
2.79569
2.79717
2.79889
2.80045
2.80153
2.80217
2.80278
2.804
2.80596
2.80857
2.8116
2.81383
2.81468
1
1
1
1
1
1
1
1
1
1
1
1
1
1
1
1
1
1
1
1
1
1
1
1
1
1
1
1
1
1
1
1
1
1
1
1
1
1
1
1
1
1
1
1
1
1
1
1
1
1.95006
2.65913
2.70493
2.70467
2.70639
2.70708
2.70728
2.70774
2.70938
2.71333
2.72034
2.72972
2.73943
2.74701
2.75099
2.75146
2.75088
2.75044
2.75083
2.75244
2.75626
2.76206
2.76822
2.77296
2.77533
2.77618
2.77669
2.77793
2.78053
2.7843
2.78813
2.79099
2.79269
2.79379
2.79491
2.79638
2.79806
2.79958
2.80064
2.80129
2.80191
2.80314
2.8051
2.80768
2.81065
2.81282
2.81363
1
1
1
1
1
1
1
1
1
1
1
1
1
1
1
1
1
1
1
1
1
1
1
1
1
1
1
1
1
1
1
1
1
1
1
1
1
1
1
1
1
1
1
1
1
1
1
1
1
1.90036
2.64654
2.70361
2.70393
2.70632
2.70732
2.70764
2.70793
2.70906
2.71218
2.71832
2.72729
2.73722
2.74543
2.75015
2.75108
2.75054
2.75
2.75022
2.7515
2.75496
2.76056
2.76673
2.77165
2.77418
2.77509
2.77559
2.77682
2.7794
2.78315
2.78699
2.78991
2.79168
2.79283
2.79397
2.7954
2.79703
2.79851
2.79956
2.80023
2.80088
2.80213
2.80409
2.80664
2.80958
2.8117
2.81249
1
1
1
1
1
1
1
1
1
1
1
1
1
1
1
1
1
1
1
1
1
1
1
1
1
1
1
1
1
1
1
1
1
1
1
1
1
1
1
1
1
1
1
1
1
1
1
1
1
1.84062
2.63159
2.70046
2.70222
2.70585
2.70721
2.70777
2.70803
2.70891
2.71137
2.71656
2.7248
2.73466
2.7434
2.74886
2.7504
2.74997
2.74938
2.74946
2.75044
2.75351
2.75887
2.765
2.77006
2.77276
2.77376
2.77429
2.77552
2.77807
2.78178
2.78561
2.78858
2.79045
2.79168
2.79286
2.79428
2.79586
2.79729
2.79834
2.79904
2.79972
2.80099
2.80291
2.80541
2.80831
2.81041
2.81119
1
1
1
1
1
1
1
1
1
1
1
1
1
1
1
1
1
1
1
1
1
1
1
1
1
1
1
1
1
1
1
1
1
1
1
1
1
1
1
1
1
1
1
1
1
1
1
1
1
1.77129
2.61439
2.69539
2.69949
2.7047
2.70666
2.70763
2.70802
2.70882
2.71082
2.71512
2.72238
2.7318
2.74086
2.74703
2.74935
2.74912
2.74856
2.74856
2.74931
2.752
2.75706
2.76308
2.76822
2.77107
2.7722
2.7728
2.77405
2.77656
2.78019
2.784
2.78703
2.78903
2.79037
2.79161
2.79301
2.79452
2.79589
2.79691
2.79763
2.79834
2.79962
2.80152
2.80398
2.80686
2.80895
2.80973
1
1
1
1
1
1
1
1
1
1
1
1
1
1
1
1
1
1
1
1
1
1
1
1
1
1
1
1
1
1
1
1
1
1
1
1
1
1
1
1
1
1
1
1
1
1
1
1
1
1.69367
2.59523
2.68884
2.69597
2.70279
2.70556
2.70712
2.70779
2.70861
2.71034
2.71387
2.72004
2.72867
2.73772
2.74448
2.74769
2.74785
2.74746
2.74744
2.74804
2.7504
2.75511
2.76093
2.76608
2.76908
2.77039
2.7711
2.7724
2.77486
2.77841
2.78218
2.78528
2.78741
2.78887
2.79017
2.79155
2.793
2.79432
2.79531
2.79605
2.79678
2.79806
2.79993
2.80237
2.80523
2.80731
2.80811
1
1
1
1
1
1
1
1
1
1
1
1
1
1
1
1
1
1
1
1
1
1
1
1
1
1
1
1
1
1
1
1
1
1
1
1
1
1
1
1
1
1
1
1
1
1
1
1
1
1.60642
2.57192
2.68277
2.692
2.69999
2.70378
2.70614
2.70728
2.70827
2.70987
2.71282
2.71796
2.72556
2.73418
2.74131
2.74542
2.7463
2.74608
2.74612
2.74667
2.74874
2.7531
2.75863
2.76373
2.76684
2.76836
2.7692
2.77056
2.77298
2.77644
2.78017
2.78334
2.78559
2.78717
2.78851
2.78988
2.79128
2.79254
2.79351
2.79425
2.79498
2.79624
2.79808
2.80052
2.80341
2.80548
2.80631
1
1
1
1
1
1
1
1
1
1
1
1
1
1
1
1
1
1
1
1
1
1
1
1
1
1
1
1
1
1
1
1
1
1
1
1
1
1
1
1
1
1
1
1
1
1
1
1
1
1.50675
2.54092
2.67942
2.68813
2.69622
2.70094
2.7043
2.70619
2.70756
2.7092
2.71177
2.71603
2.72249
2.73037
2.73759
2.74245
2.74428
2.74437
2.74456
2.74518
2.74704
2.75103
2.75622
2.76117
2.76438
2.7661
2.7671
2.76853
2.77091
2.77428
2.77797
2.78119
2.78356
2.78524
2.78661
2.78796
2.78932
2.79055
2.79151
2.79224
2.79296
2.79417
2.796
2.79846
2.80139
2.80348
2.80434
1
1
1
1
1
1
1
1
1
1
1
1
1
1
1
1
1
1
1
1
1
1
1
1
1
1
1
1
1
1
1
1
1
1
1
1
1
1
1
1
1
1
1
1
1
1
1
1
1
1.39444
2.4998
2.67918
2.68525
2.69231
2.69725
2.7013
2.70402
2.70604
2.70802
2.71054
2.71419
2.71959
2.72651
2.73347
2.73877
2.74158
2.7423
2.74278
2.74354
2.74528
2.74892
2.75372
2.75846
2.76172
2.76364
2.76481
2.7663
2.76864
2.77192
2.77556
2.77883
2.7813
2.78306
2.78446
2.78579
2.78713
2.78836
2.78932
2.79002
2.7907
2.79185
2.79365
2.79615
2.79915
2.80126
2.80216
1
1
1
1
1
1
1
1
1
1
1
1
1
1
1
1
1
1
1
1
1
1
1
1
1
1
1
1
1
1
1
1
1
1
1
1
1
1
1
1
1
1
1
1
1
1
1
1
1
1.27229
2.44492
2.67936
2.68328
2.68894
2.69341
2.69762
2.70103
2.70383
2.70641
2.70917
2.71254
2.71706
2.72291
2.72923
2.7346
2.73818
2.73976
2.74067
2.7417
2.74345
2.74677
2.75114
2.7556
2.75888
2.76095
2.76229
2.76385
2.76617
2.76936
2.77295
2.77625
2.77879
2.78062
2.78204
2.78336
2.7847
2.78594
2.78689
2.78755
2.78815
2.78922
2.79101
2.79357
2.79666
2.79883
2.79977
1
1
1
1
1
1
1
1
1
1
1
1
1
1
1
1
1
1
1
1
1
1
1
1
1
1
1
1
1
1
1
1
1
1
1
1
1
1
1
1
1
1
1
1
1
1
1
1
1
1.14862
2.38144
2.68024
2.68249
2.68657
2.69034
2.69422
2.69789
2.70129
2.70455
2.70779
2.71119
2.71511
2.7199
2.72525
2.73027
2.73425
2.73668
2.73821
2.73964
2.74148
2.74451
2.74845
2.75259
2.75583
2.75804
2.75956
2.76121
2.76352
2.76663
2.77014
2.77342
2.77601
2.77789
2.77934
2.78067
2.78202
2.78327
2.78421
2.7848
2.78532
2.7863
2.78808
2.7907
2.79388
2.79613
2.79712
1
1
1
1
1
1
1
1
1
1
1
1
1
1
1
1
1
1
1
1
1
1
1
1
1
1
1
1
1
1
1
1
1
1
1
1
1
1
1
1
1
1
1
1
1
1
1
1
1
1.0313
2.31756
2.68199
2.68292
2.68568
2.68939
2.6931
2.6967
2.70017
2.70358
2.70696
2.71028
2.71369
2.71753
2.72182
2.72619
2.73016
2.73319
2.73534
2.73725
2.73926
2.74205
2.74562
2.74941
2.75259
2.7549
2.7566
2.75835
2.76066
2.76369
2.7671
2.77034
2.77295
2.77486
2.77635
2.7777
2.77907
2.78033
2.78123
2.78174
2.78216
2.78306
2.78483
2.78751
2.79079
2.79313
2.79417
1
1
1
1
1
1
1
1
1
1
1
1
1
1
1
1
1
1
1
1
1
1
1
1
1
1
1
1
1
1
1
1
1
1
1
1
1
1
1
1
1
1
1
1
1
1
1
1
1
1.00063
2.24226
2.6808
2.68316
2.6859
2.68948
2.69271
2.69599
2.69931
2.70273
2.7062
2.70953
2.71266
2.71583
2.71923
2.72283
2.72644
2.72967
2.73226
2.73456
2.73679
2.73941
2.74266
2.7461
2.74918
2.75152
2.75338
2.75525
2.75759
2.76054
2.76384
2.76699
2.76957
2.77151
2.77305
2.77445
2.77585
2.77709
2.77793
2.77836
2.77867
2.77949
2.78124
2.78397
2.78734
2.78976
2.79085
1
1
1
1
1
1
1
1
1
1
1
1
1
1
1
1
1
1
1
1
1
1
1
1
1
1
1
1
1
1
1
1
1
1
1
1
1
1
1
1
1
1
1
1
1
1
1
1
1
1
2.14161
2.67319
2.68303
2.68626
2.69017
2.69351
2.69665
2.69976
2.70297
2.70625
2.70943
2.71235
2.71507
2.71783
2.72069
2.72369
2.72669
2.72936
2.73183
2.73418
2.73665
2.73961
2.7427
2.74563
2.74796
2.74994
2.75192
2.75428
2.75715
2.76031
2.76333
2.76586
2.76784
2.76945
2.77091
2.77231
2.7735
2.77425
2.77457
2.77479
2.77555
2.77728
2.78005
2.78348
2.78599
2.78714
1
1
1
1
1
1
1
1
1
1
1
1
1
1
1
1
1
1
1
1
1
1
1
1
1
1
1
1
1
1
1
1
1
1
1
1
1
1
1
1
1
1
1
1
1
1
1
1
1
1
2.01817
2.65397
2.67978
2.68465
2.689
2.69294
2.6964
2.69961
2.70285
2.70614
2.70936
2.71227
2.71483
2.71718
2.7195
2.72188
2.72438
2.72682
2.72918
2.73154
2.73388
2.73655
2.7393
2.74201
2.74428
2.7463
2.74833
2.75069
2.75346
2.75647
2.75937
2.76185
2.76385
2.76553
2.76703
2.76841
2.76951
2.77016
2.7704
2.77055
2.77126
2.77295
2.77567
2.77912
2.78169
2.78288
1
1
1
1
1
1
1
1
1
1
1
1
1
1
1
1
1
1
1
1
1
1
1
1
1
1
1
1
1
1
1
1
1
1
1
1
1
1
1
1
1
1
1
1
1
1
1
1
1
1
1.87333
2.62132
2.6712
2.67902
2.68555
2.69076
2.69499
2.69864
2.70199
2.7052
2.70843
2.71148
2.71414
2.71648
2.71864
2.72073
2.72286
2.7249
2.727
2.72913
2.73127
2.73364
2.73602
2.73843
2.74056
2.74253
2.74454
2.74684
2.74948
2.75233
2.75508
2.7575
2.75953
2.76125
2.76277
2.76408
2.76507
2.7656
2.76578
2.76587
2.76651
2.76811
2.77078
2.77422
2.77685
2.77808
1
1
1
1
1
1
1
1
1
1
1
1
1
1
1
1
1
1
1
1
1
1
1
1
1
1
1
1
1
1
1
1
1
1
1
1
1
1
1
1
1
1
1
1
1
1
1
1
1
1
1.71712
2.57772
2.65994
2.6691
2.67745
2.6842
2.69016
2.69509
2.69918
2.70295
2.70659
2.70992
2.71284
2.71531
2.71749
2.7195
2.72141
2.72327
2.72504
2.72702
2.72891
2.73088
2.7329
2.73498
2.7369
2.73871
2.74058
2.74273
2.74519
2.74785
2.75046
2.75281
2.75484
2.75659
2.75808
2.75928
2.76014
2.76059
2.76072
2.76079
2.76133
2.76273
2.76527
2.76863
2.77126
2.77248
1
1
1
1
1
1
1
1
1
1
1
1
1
1
1
1
1
1
1
1
1
1
1
1
1
1
1
1
1
1
1
1
1
1
1
1
1
1
1
1
1
1
1
1
1
1
1
1
1
1
1.51516
2.505
2.65083
2.65743
2.66626
2.67428
2.68165
2.68769
2.69289
2.69763
2.70207
2.70632
2.71014
2.7133
2.71582
2.71791
2.71977
2.72148
2.72311
2.72475
2.72662
2.72833
2.73001
2.73168
2.73334
2.7349
2.73653
2.73842
2.74063
2.74306
2.74552
2.74779
2.74978
2.7515
2.75291
2.75396
2.75468
2.75503
2.75511
2.75513
2.7555
2.75664
2.75902
2.76228
2.76492
2.76613
1
1
1
1
1
1
1
1
1
1
1
1
1
1
1
1
1
1
1
1
1
1
1
1
1
1
1
1
1
1
1
1
1
1
1
1
1
1
1
1
1
1
1
1
1
1
1
1
1
1
1.26976
2.42233
2.65256
2.64797
2.65489
2.66268
2.6708
2.67808
2.68428
2.68975
2.69488
2.70008
2.70503
2.70932
2.71274
2.71536
2.71747
2.71929
2.72094
2.7225
2.72412
2.72577
2.72724
2.72857
2.72989
2.73112
2.73241
2.73395
2.73583
2.738
2.74025
2.74239
2.74431
2.74594
2.74719
2.74808
2.74866
2.74891
2.74895
2.74891
2.74906
2.74987
2.75194
2.75496
2.75749
2.7586
1
1
1
1
1
1
1
1
1
1
1
1
1
1
1
1
1
1
1
1
1
1
1
1
1
1
1
1
1
1
1
1
1
1
1
1
1
1
1
1
1
1
1
1
1
1
1
1
1
1
1.05888
2.34614
2.65719
2.65065
2.65398
2.65815
2.66361
2.66934
2.67491
2.68045
2.68603
2.69182
2.69769
2.70313
2.70763
2.71108
2.71377
2.71603
2.71801
2.71978
2.72151
2.7232
2.72455
2.72558
2.72652
2.72742
2.72829
2.72939
2.73088
2.7327
2.7347
2.73665
2.73845
2.73991
2.7409
2.74162
2.74205
2.74214
2.74201
2.74176
2.74162
2.74206
2.74374
2.7465
2.74893
2.74998
1
1
1
1
1
1
1
1
1
1
1
1
1
1
1
1
1
1
1
1
1
1
1
1
1
1
1
1
1
1
1
1
1
1
1
1
1
1
1
1
1
1
1
1
1
1
1
1
1
1
1.00119
2.25066
2.65859
2.65515
2.65639
2.65872
2.66176
2.66507
2.66859
2.67268
2.67759
2.68326
2.68934
2.69532
2.70061
2.70492
2.70835
2.71125
2.71383
2.71612
2.71822
2.72018
2.7217
2.72265
2.72323
2.7237
2.72418
2.72482
2.72584
2.72724
2.72888
2.73059
2.73215
2.73327
2.73403
2.73452
2.73472
2.73462
2.73429
2.73376
2.73332
2.73338
2.73446
2.73663
2.73867
2.73942
1
1
1
1
1
1
1
1
1
1
1
1
1
1
1
1
1
1
1
1
1
1
1
1
1
1
1
1
1
1
1
1
1
1
1
1
1
1
1
1
1
1
1
1
1
1
1
1
1
1
1
2.11234
2.66313
2.66208
2.66217
2.66305
2.66416
2.66565
2.66767
2.67009
2.67314
2.67687
2.68174
2.68725
2.69258
2.69727
2.70129
2.70484
2.70814
2.71115
2.71389
2.71633
2.7182
2.71932
2.71982
2.72
2.7201
2.72031
2.72083
2.72173
2.72291
2.72424
2.72542
2.72613
2.72659
2.72677
2.72668
2.72632
2.72563
2.72459
2.72347
2.72287
2.7233
2.72482
2.72652
2.72721
1
1
1
1
1
1
1
1
1
1
1
1
1
1
1
1
1
1
1
1
1
1
1
1
1
1
1
1
1
1
1
1
1
1
1
1
1
1
1
1
1
1
1
1
1
1
1
1
1
1
1
1.92982
2.63281
2.66419
2.66461
2.6659
2.66657
2.66738
2.66834
2.66963
2.67132
2.67383
2.67694
2.68064
2.68495
2.68928
2.69336
2.69724
2.70106
2.70478
2.70824
2.71131
2.71371
2.71522
2.7159
2.71604
2.71593
2.7158
2.71585
2.7162
2.71685
2.71765
2.71823
2.7185
2.71856
2.71834
2.71787
2.71708
2.71586
2.71419
2.71233
2.71097
2.71056
2.71092
2.71146
2.71123
1
1
1
1
1
1
1
1
1
1
1
1
1
1
1
1
1
1
1
1
1
1
1
1
1
1
1
1
1
1
1
1
1
1
1
1
1
1
1
1
1
1
1
1
1
1
1
1
1
1
1
1.71011
2.55878
2.65432
2.65995
2.66467
2.66745
2.66902
2.66974
2.67042
2.67146
2.6727
2.67451
2.6768
2.67947
2.68241
2.68577
2.68937
2.69324
2.6973
2.70133
2.70498
2.70796
2.71005
2.71118
2.71156
2.71145
2.71117
2.71082
2.71066
2.71075
2.71085
2.71078
2.71053
2.71004
2.70928
2.70827
2.7069
2.70498
2.70241
2.69933
2.69628
2.69399
2.69277
2.69217
2.69195
1
1
1
1
1
1
1
1
1
1
1
1
1
1
1
1
1
1
1
1
1
1
1
1
1
1
1
1
1
1
1
1
1
1
1
1
1
1
1
1
1
1
1
1
1
1
1
1
1
1
1
1.41173
2.4394
2.64654
2.65007
2.65656
2.66143
2.66535
2.66831
2.67024
2.67159
2.67278
2.67392
2.67502
2.6762
2.67773
2.67973
2.68234
2.68559
2.6894
2.69355
2.69749
2.70092
2.7036
2.70537
2.70625
2.7064
2.70612
2.70555
2.70496
2.70444
2.70388
2.70316
2.70222
2.70105
2.6996
2.69786
2.69567
2.69274
2.6889
2.68421
2.67936
2.67508
2.67154
2.66732
2.66252
1
1
1
1
1
1
1
1
1
1
1
1
1
1
1
1
1
1
1
1
1
1
1
1
1
1
1
1
1
1
1
1
1
1
1
1
1
1
1
1
1
1
1
1
1
1
1
1
1
1
1
1.08374
2.33265
2.63912
2.63552
2.6405
2.64823
2.65611
2.66243
2.66679
2.66976
2.67185
2.67326
2.67426
2.6748
2.67512
2.67576
2.67715
2.67923
2.68213
2.6857
2.68941
2.69293
2.69599
2.69837
2.69991
2.70056
2.70041
2.69985
2.699
2.69798
2.69682
2.69542
2.69372
2.69172
2.68938
2.68667
2.68339
2.67918
2.67376
2.66703
2.65918
2.65011
2.63978
2.62924
2.6207
1
1
1
1
1
1
1
1
1
1
1
1
1
1
1
1
1
1
1
1
1
1
1
1
1
1
1
1
1
1
1
1
1
1
1
1
1
1
1
1
1
1
1
1
1
1
1
1
1
1
1
1.00175
2.23782
2.62733
2.62427
2.63143
2.63819
2.64526
2.6526
2.65896
2.66422
2.66825
2.67099
2.67269
2.6734
2.6734
2.67336
2.67362
2.67455
2.67618
2.6786
2.68158
2.68461
2.6876
2.6903
2.69239
2.69366
2.69385
2.69344
2.6925
2.69117
2.68951
2.68747
2.68499
2.68207
2.67868
2.67476
2.67012
2.6643
2.65681
2.64712
2.63493
2.62021
2.60307
2.5866
2.57989
1
1
1
1
1
1
1
1
1
1
1
1
1
1
1
1
1
1
1
1
1
1
1
1
1
1
1
1
1
1
1
1
1
1
1
1
1
1
1
1
1
1
1
1
1
1
1
1
1
1
1
0.999997
2.07264
2.62454
2.62983
2.63333
2.63512
2.63839
2.64338
2.64935
2.65554
2.66123
2.66585
2.66907
2.67076
2.67122
2.67114
2.67104
2.6712
2.67176
2.67293
2.67475
2.67682
2.67917
2.68167
2.68393
2.6857
2.68641
2.68617
2.68532
2.68389
2.6819
2.67934
2.67612
2.67223
2.66764
2.66231
2.65602
2.64823
2.63826
2.62525
2.60838
2.58531
2.55043
2.48629
2.34744
1
1
1
1
1
1
1
1
1
1
1
1
1
1
1
1
1
1
1
1
1
1
1
1
1
1
1
1
1
1
1
1
1
1
1
1
1
1
1
1
1
1
1
1
1
1
1
1
1
1
1
0.999999
1.84683
2.59045
2.63629
2.63486
2.63559
2.63733
2.63889
2.64201
2.64684
2.65253
2.65812
2.66276
2.66587
2.66751
2.6681
2.66819
2.66819
2.66823
2.66846
2.66909
2.67011
2.67136
2.67311
2.67502
2.67687
2.67797
2.67794
2.67732
2.67593
2.67378
2.67081
2.66694
2.66212
2.65631
2.64943
2.64129
2.63129
2.61852
2.60164
2.57845
2.54488
2.49077
2.41012
2.19903
1
1
1
1
1
1
1
1
1
1
1
1
1
1
1
1
1
1
1
1
1
1
1
1
1
1
1
1
1
1
1
1
1
1
1
1
1
1
1
1
1
1
1
1
1
1
1
1
1
1
1
1
1.52861
2.48239
2.633
2.63199
2.63387
2.63505
2.63616
2.63802
2.6409
2.64501
2.64992
2.6548
2.6588
2.66166
2.6634
2.6643
2.66469
2.66476
2.6646
2.66449
2.66455
2.66464
2.66527
2.66634
2.66771
2.66879
2.66894
2.66846
2.66717
2.66498
2.66178
2.65743
2.6518
2.64483
2.63637
2.62626
2.61387
2.59816
2.57728
2.54878
2.50658
2.44862
2.32775
2.12377
1
1
1
1
1
1
1
1
1
1
1
1
1
1
1
1
1
1
1
1
1
1
1
1
1
1
1
1
1
1
1
1
1
1
1
1
1
1
1
1
1
1
1
1
1
1
1
1
1
1
1
1
1.14292
2.34967
2.6287
2.62404
2.62562
2.62878
2.6321
2.63441
2.63664
2.6394
2.64291
2.6469
2.65079
2.65419
2.65688
2.65878
2.65999
2.6606
2.66053
2.66021
2.65956
2.65883
2.65839
2.65845
2.65885
2.65937
2.65938
2.65888
2.6576
2.65539
2.65206
2.6474
2.64113
2.63315
2.62323
2.61123
2.59643
2.57792
2.5534
2.5207
2.47339
2.40346
2.27736
2.09252
1
1
1
1
1
1
1
1
1
1
1
1
1
1
1
1
1
1
1
1
1
1
1
1
1
1
1
1
1
1
1
1
1
1
1
1
1
1
1
1
1
1
1
1
1
1
1
1
1
1
1
1
1.0052
2.23796
2.61078
2.61069
2.61545
2.62101
2.62612
2.62969
2.63233
2.6347
2.63723
2.64009
2.64316
2.6463
2.64922
2.65173
2.65376
2.65518
2.65573
2.65555
2.65477
2.65362
2.6524
2.65145
2.65079
2.65038
2.64979
2.64884
2.64731
2.64497
2.64154
2.6367
2.63003
2.6213
2.61016
2.5965
2.5795
2.55844
2.53096
2.49433
2.44398
2.36853
2.25266
2.10369
1
1
1
1
1
1
1
1
1
1
1
1
1
1
1
1
1
1
1
1
1
1
1
1
1
1
1
1
1
1
1
1
1
1
1
1
1
1
1
1
1
1
1
1
1
1
1
1
1
1
1
1
0.999995
2.04015
2.59537
2.61109
2.61443
2.61739
2.62055
2.62413
2.62726
2.62985
2.63213
2.63432
2.63659
2.63906
2.64158
2.64403
2.64635
2.6484
2.64973
2.65005
2.64953
2.64837
2.6468
2.64513
2.64353
2.64207
2.64054
2.63879
2.63666
2.63395
2.63029
2.62529
2.61839
2.60919
2.59717
2.58216
2.56341
2.54018
2.51051
2.47144
2.41899
2.34486
2.24412
2.12006
1
1
1
1
1
1
1
1
1
1
1
1
1
1
1
1
1
1
1
1
1
1
1
1
1
1
1
1
1
1
1
1
1
1
1
1
1
1
1
1
1
1
1
1
1
1
1
1
1
1
1
1
0.999998
1.75294
2.53936
2.60937
2.61168
2.61396
2.6164
2.61911
2.62198
2.62465
2.62696
2.62894
2.63076
2.63263
2.63456
2.63648
2.63853
2.64067
2.64252
2.64353
2.64339
2.64258
2.64108
2.63914
2.63692
2.63457
2.63203
2.62922
2.62612
2.62264
2.61847
2.61318
2.60611
2.59668
2.58421
2.5683
2.54832
2.52352
2.4923
2.45246
2.39928
2.3304
2.24224
2.13619
1
1
1
1
1
1
1
1
1
1
1
1
1
1
1
1
1
1
1
1
1
1
1
1
1
1
1
1
1
1
1
1
1
1
1
1
1
1
1
1
1
1
1
1
1
1
1
1
1
1
1
1
0.999999
1.36532
2.41595
2.6062
2.60485
2.60773
2.61133
2.61426
2.61694
2.61946
2.62176
2.62372
2.62541
2.62696
2.62836
2.6297
2.63112
2.63283
2.63462
2.63602
2.6364
2.63596
2.63477
2.63289
2.63042
2.62749
2.62411
2.62029
2.61607
2.61154
2.60654
2.60071
2.59335
2.58379
2.57119
2.55489
2.53428
2.50855
2.4766
2.43664
2.38501
2.32179
2.24423
2.15381
1
1
1
1
1
1
1
1
1
1
1
1
1
1
1
1
1
1
1
1
1
1
1
1
1
1
1
1
1
1
1
1
1
1
1
1
1
1
1
1
1
1
1
1
1
1
1
1
1
1
1
1
1
1.03708
2.27993
2.60689
2.60212
2.60293
2.60596
2.60894
2.61153
2.6139
2.61613
2.61816
2.61984
2.62126
2.62245
2.62342
2.6243
2.62538
2.6267
2.62801
2.62869
2.6285
2.62764
2.62602
2.62362
2.62049
2.61662
2.61207
2.60683
2.60111
2.59496
2.58822
2.58031
2.57051
2.55795
2.54172
2.5211
2.49518
2.46338
2.42346
2.37502
2.31758
2.24801
2.171
1
1
1
1
1
1
1
1
1
1
1
1
1
1
1
1
1
1
1
1
1
1
1
1
1
1
1
1
1
1
1
1
1
1
1
1
1
1
1
1
1
1
1
1
1
1
1
1
1
1
1
1
1
1.00025
2.09284
2.5793
2.59038
2.59624
2.5995
2.60267
2.60555
2.60805
2.61033
2.6124
2.614
2.6154
2.61656
2.61742
2.61798
2.61856
2.61931
2.62014
2.62066
2.62052
2.61984
2.61843
2.6162
2.61312
2.6091
2.60414
2.59819
2.59148
2.58414
2.57628
2.56752
2.55724
2.54461
2.52867
2.50852
2.48312
2.45218
2.41288
2.36809
2.31606
2.25258
2.18586
1
1
1
1
1
1
1
1
1
1
1
1
1
1
1
1
1
1
1
1
1
1
1
1
1
1
1
1
1
1
1
1
1
1
1
1
1
1
1
1
1
1
1
1
1
1
1
1
1
1
1
1
1
0.999998
1.79133
2.52847
2.58722
2.5899
2.59307
2.59641
2.5995
2.60217
2.60452
2.60646
2.60792
2.60925
2.61039
2.61127
2.6118
2.61214
2.61246
2.61274
2.61279
2.61249
2.61168
2.61025
2.60809
2.60513
2.60121
2.5962
2.58996
2.58263
2.57432
2.5653
2.55541
2.54434
2.53138
2.51565
2.49622
2.47184
2.4422
2.4047
2.36351
2.31511
2.2572
2.19901
1
1
1
1
1
1
1
1
1
1
1
1
1
1
1
1
1
1
1
1
1
1
1
1
1
1
1
1
1
1
1
1
1
1
1
1
1
1
1
1
1
1
1
1
1
1
1
1
1
1
1
1
1
1
1.37296
2.41023
2.58054
2.57979
2.58385
2.58899
2.5929
2.59597
2.59841
2.60027
2.60161
2.6028
2.60387
2.60477
2.6054
2.60573
2.60585
2.60575
2.60538
2.60467
2.60351
2.60184
2.59956
2.5966
2.5928
2.58793
2.58176
2.57418
2.5653
2.55538
2.54441
2.53235
2.51876
2.50297
2.48412
2.46094
2.43284
2.3984
2.36
2.31424
2.26267
2.21044
1
1
1
1
1
1
1
1
1
1
1
1
1
1
1
1
1
1
1
1
1
1
1
1
1
1
1
1
1
1
1
1
1
1
1
1
1
1
1
1
1
1
1
1
1
1
1
1
1
1
1
1
1
1
1.03647
2.26794
2.58332
2.57854
2.5795
2.58229
2.5858
2.58907
2.59175
2.59375
2.5951
2.59618
2.59711
2.59796
2.59868
2.59912
2.5992
2.59895
2.59831
2.59723
2.59566
2.59357
2.59093
2.58776
2.5839
2.57916
2.57322
2.56581
2.55682
2.54639
2.53463
2.52163
2.50717
2.491
2.47243
2.45029
2.42376
2.39248
2.35672
2.31394
2.26822
2.21998
1
1
1
1
1
1
1
1
1
1
1
1
1
1
1
1
1
1
1
1
1
1
1
1
1
1
1
1
1
1
1
1
1
1
1
1
1
1
1
1
1
1
1
1
1
1
1
1
1
1
1
1
1
1
1.00024
2.04794
2.55174
2.56783
2.57362
2.57735
2.57988
2.58231
2.58482
2.58689
2.58831
2.58932
2.59011
2.59083
2.59154
2.59207
2.59222
2.59197
2.59125
2.58997
2.58809
2.58562
2.58255
2.57898
2.57487
2.57008
2.56432
2.55723
2.54849
2.53799
2.52582
2.51215
2.49695
2.48017
2.46158
2.44005
2.41478
2.38625
2.35355
2.31381
2.27322
2.22808
1
1
1
1
1
1
1
1
1
1
1
1
1
1
1
1
1
1
1
1
1
1
1
1
1
1
1
1
1
1
1
1
1
1
1
1
1
1
1
1
1
1
1
1
1
1
1
1
1
1
1
1
1
1
0.999999
1.66844
2.47798
2.56972
2.57084
2.57241
2.57413
2.57622
2.5784
2.58034
2.58174
2.58263
2.58323
2.58372
2.58427
2.58475
2.58493
2.5847
2.58399
2.58268
2.58067
2.57794
2.57451
2.57051
2.56598
2.56091
2.55511
2.54825
2.5399
2.52973
2.51766
2.50373
2.4881
2.47073
2.45198
2.43051
2.40631
2.38019
2.34954
2.31295
2.27679
2.23458
1
1
1
1
1
1
1
1
1
1
1
1
1
1
1
1
1
1
1
1
1
1
1
1
1
1
1
1
1
1
1
1
1
1
1
1
1
1
1
1
1
1
1
1
1
1
1
1
1
1
1
1
1
1
1
1.18156
2.33864
2.56839
2.56282
2.56368
2.56634
2.56915
2.57156
2.57355
2.57499
2.57585
2.57631
2.57658
2.5769
2.57719
2.57729
2.57707
2.5764
2.57514
2.57314
2.57035
2.56674
2.56245
2.55752
2.55205
2.54599
2.53911
2.53103
2.52131
2.50967
2.49597
2.4803
2.46262
2.44375
2.42227
2.39893
2.37403
2.34406
2.3116
2.27922
2.23995
1
1
1
1
1
1
1
1
1
1
1
1
1
1
1
1
1
1
1
1
1
1
1
1
1
1
1
1
1
1
1
1
1
1
1
1
1
1
1
1
1
1
1
1
1
1
1
1
1
1
1
1
1
1
1
1.00782
2.19196
2.54789
2.5485
2.55343
2.55794
2.56171
2.56463
2.56687
2.56845
2.56933
2.56967
2.56968
2.56969
2.56967
2.56956
2.56924
2.56854
2.56729
2.56535
2.56261
2.55902
2.55463
2.54946
2.54362
2.53715
2.53001
2.52194
2.51256
2.50148
2.48835
2.47313
2.45558
2.43676
2.41541
2.39271
2.36819
2.33915
2.31067
2.2797
2.24361
1
1
1
1
1
1
1
1
1
1
1
1
1
1
1
1
1
1
1
1
1
1
1
1
1
1
1
1
1
1
1
1
1
1
1
1
1
1
1
1
1
1
1
1
1
1
1
1
1
1
1
1
1
1
1
0.999992
1.88287
2.51286
2.54036
2.54619
2.5509
2.55419
2.55734
2.55996
2.56189
2.56296
2.56326
2.56309
2.56276
2.56238
2.56196
2.56142
2.56056
2.55924
2.5573
2.55466
2.55121
2.5469
2.5417
2.53565
2.52884
2.52132
2.51301
2.5037
2.49304
2.48059
2.46607
2.44918
2.43081
2.40957
2.38738
2.36348
2.33612
2.30931
2.27892
2.24668
1
1
1
1
1
1
1
1
1
1
1
1
1
1
1
1
1
1
1
1
1
1
1
1
1
1
1
1
1
1
1
1
1
1
1
1
1
1
1
1
1
1
1
1
1
1
1
1
1
1
1
1
1
1
1
0.999996
1.40589
2.40283
2.54229
2.53994
2.54257
2.54622
2.54959
2.55247
2.55478
2.55621
2.55674
2.55652
2.55597
2.55526
2.5545
2.55367
2.55259
2.55111
2.5491
2.54648
2.54315
2.53902
2.53394
2.5279
2.52092
2.51311
2.50446
2.49499
2.4845
2.47257
2.45882
2.44299
2.42511
2.40436
2.3833
2.35997
2.33371
2.30754
2.27884
2.24977
1
1
1
1
1
1
1
1
1
1
1
1
1
1
1
1
1
1
1
1
1
1
1
1
1
1
1
1
1
1
1
1
1
1
1
1
1
1
1
1
1
1
1
1
1
1
1
1
1
1
1
1
1
1
1
0.999999
1.04184
2.24875
2.54225
2.53518
2.53538
2.53845
2.5415
2.54448
2.54713
2.54903
2.55001
2.54992
2.54934
2.54844
2.54737
2.54621
2.54486
2.54317
2.541
2.53829
2.53498
2.53096
2.52606
2.52017
2.51325
2.50533
2.49644
2.48674
2.47619
2.4645
2.45139
2.43656
2.41918
2.39988
2.38026
2.35671
2.33152
2.3068
2.27986
2.25217
1
1
1
1
1
1
1
1
1
1
1
1
1
1
1
1
1
1
1
1
1
1
1
1
1
1
1
1
1
1
1
1
1
1
1
1
1
1
1
1
1
1
1
1
1
1
1
1
1
1
1
1
1
1
1
1
1.0003
1.9672
2.5055
2.52437
2.52969
2.53297
2.53462
2.5368
2.53916
2.54119
2.54259
2.54293
2.54249
2.54155
2.54032
2.53893
2.53734
2.53544
2.53308
2.5302
2.52677
2.52274
2.51794
2.51225
2.50555
2.49774
2.48886
2.47903
2.46835
2.45667
2.44397
2.42968
2.41331
2.3959
2.37656
2.35332
2.33066
2.30701
2.28109
2.25374
1
1
1
1
1
1
1
1
1
1
1
1
1
1
1
1
1
1
1
1
1
1
1
1
1
1
1
1
1
1
1
1
1
1
1
1
1
1
1
1
1
1
1
1
1
1
1
1
1
1
1
1
1
1
1
1
0.999998
1.47873
2.40306
2.52609
2.52459
2.52635
2.52829
2.52989
2.53156
2.53328
2.53478
2.53556
2.53535
2.53455
2.53331
2.5318
2.53004
2.52798
2.52546
2.52241
2.51877
2.51457
2.50973
2.50416
2.4977
2.49015
2.4815
2.47174
2.46103
2.44931
2.43676
2.42283
2.40761
2.39123
2.37187
2.35087
2.33041
2.3071
2.28167
2.2552
1
1
1
1
1
1
1
1
1
1
1
1
1
1
1
1
1
1
1
1
1
1
1
1
1
1
1
1
1
1
1
1
1
1
1
1
1
1
1
1
1
1
1
1
1
1
1
1
1
1
1
1
1
1
1
1
1
1.05849
2.24511
2.52665
2.52014
2.51979
2.52136
2.52256
2.52381
2.52522
2.5266
2.5276
2.52776
2.52723
2.52612
2.52461
2.52281
2.52069
2.51808
2.51489
2.51106
2.50662
2.5016
2.49602
2.48971
2.48242
2.47415
2.46464
2.45409
2.44241
2.43004
2.41639
2.40181
2.38582
2.36759
2.34914
2.32924
2.30605
2.28225
2.25816
1
1
1
1
1
1
1
1
1
1
1
1
1
1
1
1
1
1
1
1
1
1
1
1
1
1
1
1
1
1
1
1
1
1
1
1
1
1
1
1
1
1
1
1
1
1
1
1
1
1
1
1
1
1
1
1
1
1.00063
1.9665
2.4862
2.50463
2.51178
2.51531
2.51569
2.51651
2.51762
2.51869
2.5196
2.51999
2.51963
2.51867
2.51725
2.51547
2.51334
2.51073
2.50753
2.5036
2.499
2.49378
2.48803
2.48174
2.47459
2.46671
2.45749
2.44727
2.43588
2.42384
2.41033
2.39606
2.38071
2.36395
2.3463
2.32631
2.30504
2.28376
2.26146
1
1
1
1
1
1
1
1
1
1
1
1
1
1
1
1
1
1
1
1
1
1
1
1
1
1
1
1
1
1
1
1
1
1
1
1
1
1
1
1
1
1
1
1
1
1
1
1
1
1
1
1
1
1
1
1
1
0.999997
1.45365
2.38181
2.50523
2.50477
2.50701
2.50821
2.50955
2.51061
2.51134
2.51188
2.51216
2.51188
2.51105
2.50972
2.50798
2.50589
2.50334
2.50021
2.49634
2.4917
2.48637
2.48043
2.474
2.46686
2.45919
2.45024
2.44046
2.42958
2.41781
2.40455
2.39083
2.37616
2.35994
2.34233
2.32378
2.30473
2.28453
2.263
1
1
1
1
1
1
1
1
1
1
1
1
1
1
1
1
1
1
1
1
1
1
1
1
1
1
1
1
1
1
1
1
1
1
1
1
1
1
1
1
1
1
1
1
1
1
1
1
1
1
1
1
1
1
1
1
1
0.999999
1.05087
2.22366
2.50052
2.49663
2.49791
2.49975
2.50181
2.50326
2.50389
2.50418
2.50427
2.50402
2.50329
2.50202
2.50027
2.49814
2.49563
2.49265
2.48898
2.4845
2.47923
2.47322
2.46663
2.45944
2.45171
2.44302
2.43364
2.42329
2.41176
2.39908
2.38606
2.37159
2.3555
2.33877
2.32213
2.30396
2.28389
2.26315
1
1
1
1
1
1
1
1
1
1
1
1
1
1
1
1
1
1
1
1
1
1
1
1
1
1
1
1
1
1
1
1
1
1
1
1
1
1
1
1
1
1
1
1
1
1
1
1
1
1
1
1
1
1
1
1
1
1
1.00045
1.89028
2.45504
2.48526
2.48899
2.49186
2.49498
2.49637
2.49695
2.49703
2.49695
2.4966
2.49582
2.49449
2.49263
2.49037
2.4878
2.48489
2.48144
2.47727
2.47225
2.46636
2.45971
2.45246
2.44455
2.43601
2.42689
2.4169
2.40568
2.39374
2.38111
2.3668
2.3515
2.33606
2.32019
2.30183
2.28202
2.26328
1
1
1
1
1
1
1
1
1
1
1
1
1
1
1
1
1
1
1
1
1
1
1
1
1
1
1
1
1
1
1
1
1
1
1
1
1
1
1
1
1
1
1
1
1
1
1
1
1
1
1
1
1
1
1
1
1
1
0.999998
1.31685
2.33499
2.49037
2.48363
2.48525
2.48686
2.48815
2.4889
2.48931
2.48929
2.48901
2.48828
2.48695
2.48501
2.48258
2.47984
2.47686
2.47354
2.46966
2.46504
2.45946
2.45308
2.44581
2.43779
2.42929
2.42031
2.41051
2.3997
2.38832
2.37586
2.3622
2.34805
2.33329
2.3174
2.29916
2.28087
2.2639
1
1
1
1
1
1
1
1
1
1
1
1
1
1
1
1
1
1
1
1
1
1
1
1
1
1
1
1
1
1
1
1
1
1
1
1
1
1
1
1
1
1
1
1
1
1
1
1
1
1
1
1
1
1
1
1
1
1
1
1.02313
2.17246
2.4724
2.47233
2.4754
2.47772
2.47898
2.48001
2.48103
2.48143
2.48134
2.48083
2.47963
2.47769
2.47513
2.47217
2.46897
2.46557
2.46181
2.45749
2.45239
2.4463
2.43937
2.43146
2.42297
2.414
2.40429
2.39382
2.3827
2.37052
2.35783
2.34444
2.32977
2.31421
2.29722
2.2804
2.2641
1
1
1
1
1
1
1
1
1
1
1
1
1
1
1
1
1
1
1
1
1
1
1
1
1
1
1
1
1
1
1
1
1
1
1
1
1
1
1
1
1
1
1
1
1
1
1
1
1
1
1
1
1
1
1
1
1
1
1
1.00006
1.74516
2.41175
2.47183
2.47168
2.47052
2.47103
2.47223
2.47323
2.47373
2.47369
2.47329
2.47224
2.4704
2.46783
2.46471
2.46126
2.45762
2.45376
2.44956
2.44481
2.43923
2.43275
2.42526
2.41694
2.408
2.39835
2.38809
2.37715
2.36549
2.35356
2.34037
2.32592
2.31152
2.29585
2.27969
2.26336
1
1
1
1
1
1
1
1
1
1
1
1
1
1
1
1
1
1
1
1
1
1
1
1
1
1
1
1
1
1
1
1
1
1
1
1
1
1
1
1
1
1
1
1
1
1
1
1
1
1
1
1
1
1
1
1
1
1
1
1
1.15248
2.27267
2.47768
2.46735
2.46448
2.46377
2.46462
2.46507
2.46555
2.4656
2.46534
2.46451
2.46297
2.46063
2.45757
2.454
2.45008
2.44594
2.4416
2.43697
2.4318
2.42581
2.41883
2.41091
2.40219
2.39264
2.38254
2.37185
2.36065
2.34899
2.33588
2.32223
2.30893
2.29409
2.278
2.26166
1
1
1
1
1
1
1
1
1
1
1
1
1
1
1
1
1
1
1
1
1
1
1
1
1
1
1
1
1
1
1
1
1
1
1
1
1
1
1
1
1
1
1
1
1
1
1
1
1
1
1
1
1
1
1
1
1
1
1
1
1.00516
2.04772
2.44771
2.4492
2.45269
2.4564
2.45757
2.45752
2.45782
2.45779
2.45741
2.4566
2.45527
2.45322
2.45042
2.44691
2.44285
2.43845
2.43383
2.42909
2.42407
2.41853
2.41211
2.40477
2.39646
2.38718
2.37735
2.36697
2.35602
2.3444
2.33164
2.31881
2.30604
2.29154
2.27577
2.26022
1
1
1
1
1
1
1
1
1
1
1
1
1
1
1
1
1
1
1
1
1
1
1
1
1
1
1
1
1
1
1
1
1
1
1
1
1
1
1
1
1
1
1
1
1
1
1
1
1
1
1
1
1
1
1
1
1
1
1
1
0.999989
1.50829
2.35139
2.4493
2.44932
2.45041
2.45047
2.45075
2.451
2.45066
2.44989
2.44889
2.44756
2.44574
2.44326
2.43999
2.436
2.43147
2.42658
2.42154
2.41637
2.41095
2.40498
2.39824
2.39049
2.38169
2.37231
2.36222
2.35139
2.33996
2.32774
2.31535
2.30262
2.2884
2.27353
2.25916
1
1
1
1
1
1
1
1
1
1
1
1
1
1
1
1
1
1
1
1
1
1
1
1
1
1
1
1
1
1
1
1
1
1
1
1
1
1
1
1
1
1
1
1
1
1
1
1
1
1
1
1
1
1
1
1
1
1
1
1
0.999997
1.06386
2.18208
2.44646
2.44259