/*--------------------------------*- C++ -*----------------------------------*\
  =========                 |
  \\      /  F ield         | OpenFOAM: The Open Source CFD Toolbox
   \\    /   O peration     | Website:  https://openfoam.org
    \\  /    A nd           | Version:  7
     \\/     M anipulation  |
\*---------------------------------------------------------------------------*/
FoamFile
{
    version     2.0;
    format      ascii;
    class       volVectorField;
    location    "2.9";
    object      U;
}
// * * * * * * * * * * * * * * * * * * * * * * * * * * * * * * * * * * * * * //

dimensions      [0 1 -1 0 0 0 0];

internalField   nonuniform List<vector> 
64512
(
(3 2.58983e-18 0)
(3 2.09699e-16 0)
(3 -2.81204e-17 0)
(3 -5.03014e-16 0)
(3 -4.59351e-16 0)
(3 -2.21853e-16 0)
(3 1.91658e-17 0)
(3 -6.5838e-17 0)
(3 -8.74662e-18 0)
(3 2.8472e-16 0)
(3 3.22087e-16 0)
(3 4.72048e-16 0)
(3 6.01619e-16 0)
(3 1.84685e-16 0)
(3 3.62615e-17 0)
(3 9.22851e-16 0)
(3 1.13013e-15 0)
(3 1.7302e-15 0)
(3 1.2669e-15 0)
(3 -1.49409e-16 0)
(3 2.57978e-16 0)
(3 8.99947e-16 0)
(3 9.73344e-16 0)
(3 1.12955e-15 0)
(3 1.11445e-16 0)
(3 2.16826e-16 0)
(3 2.93652e-16 0)
(3 3.72917e-16 0)
(3 3.79349e-17 0)
(3 -1.24219e-17 0)
(3 -4.20232e-16 0)
(3 -7.49659e-16 0)
(3 -9.1635e-16 0)
(3 -1.03803e-15 0)
(3 -7.48012e-16 0)
(3 -5.0744e-16 0)
(3 -6.23731e-16 0)
(3 -1.42318e-15 0)
(3 -3.44328e-16 0)
(3 5.20965e-16 0)
(3 5.16224e-16 0)
(3 6.16167e-16 0)
(3 3.82607e-16 0)
(3 -3.08043e-16 0)
(3 -1.04001e-15 0)
(3 -8.3961e-16 0)
(3 -8.22857e-16 0)
(3 -9.24654e-16 0)
(3 -7.97965e-16 0)
(1.41237 0.00436187 0)
(0.78412 0.00310634 0)
(0.748507 0.00852136 0)
(0.730408 0.00730833 0)
(0.713599 0.00638411 0)
(0.699523 0.00562342 0)
(0.686907 0.00548702 0)
(0.674156 0.00575885 0)
(0.659976 0.00625769 0)
(0.643779 0.00690913 0)
(0.625756 0.00759515 0)
(0.606916 0.0080257 0)
(0.588817 0.00779716 0)
(0.573113 0.00679998 0)
(0.560115 0.00589866 0)
(0.548115 0.00576287 0)
(0.535422 0.00622703 0)
(0.520498 0.00708112 0)
(0.503079 0.00793806 0)
(0.4845 0.00819284 0)
(0.466938 0.00751945 0)
(0.451618 0.00676266 0)
(0.437746 0.00681345 0)
(0.423324 0.00747186 0)
(0.407439 0.0079421 0)
(0.390841 0.00790683 0)
(0.374276 0.0077504 0)
(0.357746 0.00778852 0)
(0.341035 0.0079436 0)
(0.324172 0.00807377 0)
(0.307401 0.00814033 0)
(0.290771 0.00818844 0)
(0.27422 0.00826503 0)
(0.257648 0.0083718 0)
(0.240841 0.00849273 0)
(0.223543 0.00862144 0)
(0.205649 0.00874842 0)
(0.187317 0.00884802 0)
(0.168859 0.00896325 0)
(0.150451 0.00914452 0)
(0.132086 0.00937127 0)
(0.11354 0.00966703 0)
(0.0942611 0.00990611 0)
(0.0744902 0.0101376 0)
(0.0538207 0.0103278 0)
(0.0325375 0.0104031 0)
(0.011055 0.0104678 0)
(3 1.94745e-16 0)
(3 2.41964e-16 0)
(3 -7.19042e-16 0)
(3 -7.63763e-16 0)
(3 -7.48933e-16 0)
(3 -3.72711e-16 0)
(3 5.22959e-17 0)
(3 -2.28666e-16 0)
(3 -1.4429e-16 0)
(3 3.48987e-16 0)
(3 4.67157e-16 0)
(3 4.8698e-16 0)
(3 8.40603e-16 0)
(3 -5.1825e-16 0)
(3 -3.82494e-16 0)
(3 3.8713e-16 0)
(3 1.17792e-15 0)
(3 2.17965e-15 0)
(3 1.33967e-15 0)
(3 -3.09902e-17 0)
(3 1.79503e-17 0)
(3 1.34261e-15 0)
(3 1.30072e-15 0)
(3 6.76874e-16 0)
(3 5.04685e-16 0)
(3 5.4642e-16 0)
(3 7.32152e-16 0)
(3 1.01189e-15 0)
(3 6.93418e-16 0)
(3 5.20392e-16 0)
(3 -8.30152e-16 0)
(3 -9.28124e-16 0)
(3 -1.4536e-15 0)
(3 -2.20179e-15 0)
(3 -1.79475e-15 0)
(3 -1.70997e-15 0)
(3 -1.88602e-15 0)
(3 -1.66683e-15 0)
(3 -7.37596e-16 0)
(3 5.74564e-16 0)
(3 5.68607e-16 0)
(3 6.51105e-16 0)
(3 1.27777e-17 0)
(3 -9.7136e-16 0)
(3 -1.47092e-15 0)
(3 -1.07278e-15 0)
(3 -5.52894e-16 0)
(3 -9.04445e-16 0)
(3 2.81128e-16 0)
(1.42163 0.0206173 0)
(0.780329 0.0144634 0)
(0.74468 0.0233625 0)
(0.727774 0.0211398 0)
(0.710844 0.0190071 0)
(0.696045 0.0164484 0)
(0.682704 0.0152459 0)
(0.669746 0.0159072 0)
(0.655723 0.0175654 0)
(0.639959 0.0196914 0)
(0.622585 0.0218862 0)
(0.604417 0.0233554 0)
(0.586661 0.023107 0)
(0.570729 0.0207099 0)
(0.557047 0.0179585 0)
(0.544349 0.0170506 0)
(0.531369 0.0181779 0)
(0.51666 0.0206515 0)
(0.499716 0.023139 0)
(0.481679 0.0239433 0)
(0.464491 0.022279 0)
(0.449045 0.0203238 0)
(0.434715 0.0203871 0)
(0.420033 0.0221836 0)
(0.404077 0.0234847 0)
(0.387583 0.023383 0)
(0.37116 0.0230187 0)
(0.35471 0.0232189 0)
(0.338039 0.0237188 0)
(0.321209 0.0241213 0)
(0.304477 0.024344 0)
(0.287882 0.0245229 0)
(0.271361 0.0247756 0)
(0.254827 0.0250933 0)
(0.238086 0.0254378 0)
(0.220899 0.0258109 0)
(0.203171 0.0261987 0)
(0.185057 0.0265245 0)
(0.166867 0.0269032 0)
(0.148773 0.0274681 0)
(0.130755 0.0281505 0)
(0.112571 0.0290353 0)
(0.0936248 0.0297677 0)
(0.0741415 0.0305229 0)
(0.053682 0.0311788 0)
(0.0325214 0.0315091 0)
(0.0110837 0.0318234 0)
(3 -1.18942e-16 0)
(3 -4.68622e-16 0)
(3 -4.99298e-16 0)
(3 5.16968e-17 0)
(3 2.37979e-16 0)
(3 3.9264e-16 0)
(3 9.31687e-16 0)
(3 1.00305e-15 0)
(3 9.54822e-16 0)
(3 8.84006e-16 0)
(3 1.07088e-15 0)
(3 8.76368e-16 0)
(3 6.91543e-16 0)
(3 3.65085e-16 0)
(3 -2.92282e-17 0)
(3 3.34367e-16 0)
(3 1.6618e-15 0)
(3 1.54026e-15 0)
(3 9.21212e-16 0)
(3 1.1475e-15 0)
(3 7.86574e-16 0)
(3 8.64388e-17 0)
(3 -4.23711e-16 0)
(3 -2.67343e-16 0)
(3 3.83621e-16 0)
(3 6.28972e-16 0)
(3 7.39723e-16 0)
(3 6.22275e-17 0)
(3 -3.68654e-16 0)
(3 -7.11354e-16 0)
(3 -1.00275e-15 0)
(3 -9.00051e-16 0)
(3 -1.54552e-15 0)
(3 -2.07549e-15 0)
(3 -2.06684e-15 0)
(3 -2.76497e-15 0)
(3 -3.12623e-15 0)
(3 -1.98246e-15 0)
(3 -1.30113e-15 0)
(3 -7.11444e-16 0)
(3 1.54357e-16 0)
(3 2.87747e-16 0)
(3 -4.82089e-16 0)
(3 -1.11009e-15 0)
(3 -1.06282e-15 0)
(3 -7.33911e-16 0)
(3 -6.57692e-16 0)
(3 -6.00453e-16 0)
(3 1.49846e-15 0)
(1.44754 0.0351486 0)
(0.781409 0.0259963 0)
(0.745688 0.0374923 0)
(0.729545 0.0350977 0)
(0.712374 0.0326916 0)
(0.696428 0.0292227 0)
(0.681472 0.0268341 0)
(0.667346 0.0270613 0)
(0.652947 0.0292811 0)
(0.637402 0.0324669 0)
(0.62073 0.0359007 0)
(0.603463 0.0383048 0)
(0.58638 0.0381817 0)
(0.57051 0.0349519 0)
(0.556142 0.0308575 0)
(0.542357 0.0291998 0)
(0.528566 0.0307038 0)
(0.513712 0.0344841 0)
(0.497023 0.0383318 0)
(0.479399 0.0395781 0)
(0.462646 0.0371493 0)
(0.447193 0.0342859 0)
(0.432423 0.034423 0)
(0.417413 0.0371875 0)
(0.401208 0.0391435 0)
(0.384596 0.0388965 0)
(0.368106 0.0383183 0)
(0.351555 0.0386717 0)
(0.334768 0.0394738 0)
(0.31782 0.0401042 0)
(0.300974 0.0404709 0)
(0.284261 0.040796 0)
(0.267619 0.0412343 0)
(0.250978 0.0417396 0)
(0.234169 0.0422492 0)
(0.216979 0.0427899 0)
(0.19933 0.0433606 0)
(0.181374 0.0438417 0)
(0.163419 0.044419 0)
(0.145644 0.045314 0)
(0.128027 0.0464101 0)
(0.110321 0.0478629 0)
(0.0918745 0.0490937 0)
(0.0728875 0.0504183 0)
(0.0528771 0.0516271 0)
(0.0320925 0.0523126 0)
(0.0109631 0.0530185 0)
(3 -1.56743e-16 0)
(3 9.0084e-17 0)
(3 3.32646e-16 0)
(3 -1.95598e-16 0)
(3 -1.0184e-16 0)
(3 -1.06777e-16 0)
(3 -9.63978e-17 0)
(3 8.4333e-16 0)
(3 7.89436e-16 0)
(3 5.88583e-16 0)
(3 6.5017e-16 0)
(3 1.20606e-15 0)
(3 1.28771e-15 0)
(3 1.29103e-15 0)
(3 9.18906e-16 0)
(3 1.18145e-15 0)
(3 1.51397e-15 0)
(3 1.71782e-15 0)
(3 2.04831e-15 0)
(3 2.72951e-15 0)
(3 1.95616e-15 0)
(3 2.28863e-16 0)
(3 -1.45612e-15 0)
(3 -8.89765e-16 0)
(3 -3.31833e-16 0)
(3 3.58875e-16 0)
(3 1.06497e-15 0)
(3 -2.44789e-16 0)
(3 -1.512e-15 0)
(3 -1.54753e-15 0)
(3 -1.44505e-15 0)
(3 -1.63351e-15 0)
(3 -9.19522e-16 0)
(3 -9.22712e-16 0)
(3 -1.30119e-15 0)
(3 -2.12121e-15 0)
(3 -2.70985e-15 0)
(3 -2.47942e-15 0)
(3 -1.89887e-15 0)
(3 -1.36188e-15 0)
(3 -4.63818e-16 0)
(3 -4.45324e-17 0)
(3 -5.43601e-16 0)
(3 -1.51703e-16 0)
(3 -1.02429e-16 0)
(3 -6.25258e-16 0)
(3 -5.96676e-16 0)
(3 2.41039e-16 0)
(3 1.07374e-16 0)
(1.48423 0.0475655 0)
(0.782985 0.0372677 0)
(0.747749 0.0504058 0)
(0.732434 0.0487356 0)
(0.715403 0.0467193 0)
(0.698813 0.0430056 0)
(0.682604 0.0395598 0)
(0.667288 0.0388121 0)
(0.652551 0.0410195 0)
(0.637413 0.0448016 0)
(0.62161 0.0490675 0)
(0.60533 0.0522309 0)
(0.588919 0.0525439 0)
(0.573019 0.0492919 0)
(0.557966 0.0444962 0)
(0.543095 0.0422069 0)
(0.52845 0.0438828 0)
(0.513396 0.0486024 0)
(0.496981 0.0534529 0)
(0.479732 0.054969 0)
(0.463323 0.0520261 0)
(0.44775 0.0486213 0)
(0.432482 0.0489553 0)
(0.417109 0.0525825 0)
(0.400587 0.0550951 0)
(0.383746 0.054705 0)
(0.367045 0.0539659 0)
(0.350257 0.0544921 0)
(0.333233 0.0555768 0)
(0.316049 0.056414 0)
(0.298952 0.0569291 0)
(0.281955 0.0574186 0)
(0.265 0.058045 0)
(0.248043 0.0587074 0)
(0.230958 0.0593175 0)
(0.213564 0.0599377 0)
(0.195794 0.0605909 0)
(0.177791 0.0611193 0)
(0.159853 0.0617763 0)
(0.142178 0.0628777 0)
(0.124764 0.0642683 0)
(0.107402 0.0662009 0)
(0.0893836 0.067881 0)
(0.0709364 0.0697803 0)
(0.0515053 0.0716063 0)
(0.0312861 0.0727288 0)
(0.010706 0.0739465 0)
(3 4.03547e-16 0)
(3 7.66085e-17 0)
(3 7.37324e-17 0)
(3 -8.55546e-17 0)
(3 -7.90219e-16 0)
(3 -1.25843e-15 0)
(3 -2.12033e-15 0)
(3 -1.31459e-15 0)
(3 -7.61915e-16 0)
(3 -3.77996e-16 0)
(3 -2.03357e-16 0)
(3 6.23668e-17 0)
(3 2.31759e-16 0)
(3 4.89409e-16 0)
(3 5.56425e-16 0)
(3 5.77762e-16 0)
(3 4.20193e-16 0)
(3 7.80672e-16 0)
(3 1.41883e-15 0)
(3 1.88429e-15 0)
(3 1.66001e-15 0)
(3 2.73338e-16 0)
(3 -4.05521e-16 0)
(3 -6.7123e-17 0)
(3 1.04931e-15 0)
(3 1.21884e-15 0)
(3 6.89193e-16 0)
(3 -6.36501e-19 0)
(3 -5.87363e-16 0)
(3 -8.96421e-16 0)
(3 -1.81438e-15 0)
(3 -1.97477e-15 0)
(3 -1.11715e-15 0)
(3 -1.22206e-15 0)
(3 -1.83275e-15 0)
(3 -1.1996e-15 0)
(3 -9.8284e-16 0)
(3 -2.03297e-15 0)
(3 -2.62367e-15 0)
(3 -2.82626e-15 0)
(3 -2.39086e-15 0)
(3 -1.96015e-15 0)
(3 -1.02262e-15 0)
(3 3.94217e-16 0)
(3 5.72196e-16 0)
(3 6.19757e-17 0)
(3 3.5533e-16 0)
(3 -1.14766e-16 0)
(3 9.21391e-16 0)
(1.5311 0.0591086 0)
(0.784546 0.0479301 0)
(0.749398 0.0624137 0)
(0.734384 0.0622799 0)
(0.717275 0.061202 0)
(0.700089 0.0579369 0)
(0.682885 0.0537364 0)
(0.666488 0.0512835 0)
(0.65133 0.052557 0)
(0.636722 0.0563684 0)
(0.621988 0.0611787 0)
(0.606844 0.0651398 0)
(0.591191 0.0663793 0)
(0.575328 0.0638997 0)
(0.559791 0.0589865 0)
(0.544114 0.0560282 0)
(0.52891 0.0574813 0)
(0.513912 0.0626672 0)
(0.498075 0.0681725 0)
(0.481377 0.0699262 0)
(0.465341 0.0667905 0)
(0.449715 0.0631643 0)
(0.434124 0.0637711 0)
(0.418589 0.0681407 0)
(0.401935 0.0711177 0)
(0.385001 0.0706128 0)
(0.368199 0.0697883 0)
(0.351282 0.0705284 0)
(0.334127 0.0719091 0)
(0.316787 0.0729744 0)
(0.299471 0.0736869 0)
(0.282172 0.0744031 0)
(0.264837 0.0752668 0)
(0.247464 0.0761076 0)
(0.22998 0.0768113 0)
(0.212249 0.0774815 0)
(0.194209 0.0781701 0)
(0.175981 0.0786824 0)
(0.157834 0.0793275 0)
(0.139979 0.0805105 0)
(0.122453 0.082037 0)
(0.105119 0.0842884 0)
(0.0872514 0.0862763 0)
(0.069147 0.0886436 0)
(0.0501848 0.0910641 0)
(0.030473 0.092638 0)
(0.0104378 0.0944309 0)
(3 9.52153e-17 0)
(3 -1.45533e-16 0)
(3 -4.46336e-16 0)
(3 -2.02305e-16 0)
(3 -3.90484e-16 0)
(3 -9.22775e-16 0)
(3 -8.85907e-16 0)
(3 -1.0647e-15 0)
(3 -8.87411e-16 0)
(3 -3.83237e-16 0)
(3 -2.5313e-16 0)
(3 -3.26818e-16 0)
(3 -2.75252e-16 0)
(3 3.37847e-16 0)
(3 2.39911e-16 0)
(3 1.11613e-16 0)
(3 1.8854e-16 0)
(3 5.15401e-16 0)
(3 1.01539e-15 0)
(3 8.96658e-16 0)
(3 1.62154e-15 0)
(3 1.97104e-15 0)
(3 2.06607e-15 0)
(3 2.0033e-15 0)
(3 2.1123e-15 0)
(3 1.19057e-15 0)
(3 2.94082e-17 0)
(3 -5.25532e-16 0)
(3 -7.39963e-16 0)
(3 -1.0019e-15 0)
(3 -1.1294e-15 0)
(3 -6.25094e-16 0)
(3 -3.79891e-16 0)
(3 -1.3061e-16 0)
(3 9.9881e-17 0)
(3 4.44726e-16 0)
(3 7.9275e-17 0)
(3 -1.08842e-15 0)
(3 -1.82404e-15 0)
(3 -2.3417e-15 0)
(3 -2.68916e-15 0)
(3 -2.43787e-15 0)
(3 -1.19707e-15 0)
(3 8.81139e-17 0)
(3 8.24049e-16 0)
(3 2.60105e-16 0)
(3 -4.87628e-16 0)
(3 -2.13737e-16 0)
(3 -2.36843e-15 0)
(1.58963 0.07073 0)
(0.786807 0.0583968 0)
(0.750312 0.0738311 0)
(0.735584 0.0757173 0)
(0.718551 0.0756897 0)
(0.701325 0.0732713 0)
(0.683671 0.0689637 0)
(0.666457 0.0648444 0)
(0.650432 0.0643008 0)
(0.635749 0.0673777 0)
(0.621589 0.0723313 0)
(0.607281 0.0771381 0)
(0.592326 0.0797424 0)
(0.576679 0.0786684 0)
(0.560997 0.0741699 0)
(0.544904 0.0705457 0)
(0.529407 0.071354 0)
(0.51457 0.0764902 0)
(0.499427 0.0823569 0)
(0.483281 0.0844392 0)
(0.467501 0.0814627 0)
(0.451821 0.0778789 0)
(0.436046 0.0787853 0)
(0.420532 0.083746 0)
(0.403942 0.0870729 0)
(0.387079 0.0864714 0)
(0.370314 0.0856215 0)
(0.35341 0.0866038 0)
(0.336261 0.0882989 0)
(0.318874 0.0896282 0)
(0.301412 0.0905998 0)
(0.283849 0.0916137 0)
(0.266147 0.0927734 0)
(0.248349 0.0938306 0)
(0.230448 0.0946467 0)
(0.212352 0.0953709 0)
(0.194006 0.0960857 0)
(0.175499 0.0965602 0)
(0.157059 0.0971502 0)
(0.13889 0.0983443 0)
(0.121065 0.0999001 0)
(0.10354 0.102345 0)
(0.0855893 0.104509 0)
(0.0676367 0.107204 0)
(0.0490119 0.110148 0)
(0.0297154 0.112134 0)
(0.0101826 0.114503 0)
(3 -2.81736e-16 0)
(3 -3.16959e-16 0)
(3 -5.44349e-16 0)
(3 -5.94794e-16 0)
(3 -6.60343e-16 0)
(3 -8.24302e-16 0)
(3 -3.90124e-16 0)
(3 -5.41829e-16 0)
(3 -4.76088e-16 0)
(3 -3.61804e-16 0)
(3 -8.22882e-17 0)
(3 5.02137e-16 0)
(3 1.08286e-15 0)
(3 1.19821e-15 0)
(3 8.72545e-16 0)
(3 2.42575e-16 0)
(3 8.81223e-17 0)
(3 7.00432e-16 0)
(3 9.4044e-16 0)
(3 4.60282e-16 0)
(3 2.20753e-16 0)
(3 6.43075e-16 0)
(3 1.35189e-15 0)
(3 1.987e-15 0)
(3 1.33077e-15 0)
(3 5.73937e-16 0)
(3 1.00839e-16 0)
(3 6.046e-17 0)
(3 -3.50498e-16 0)
(3 -6.8629e-16 0)
(3 -4.356e-16 0)
(3 1.2801e-16 0)
(3 3.14875e-16 0)
(3 4.05208e-16 0)
(3 4.45595e-16 0)
(3 1.67561e-16 0)
(3 -6.65414e-16 0)
(3 -5.51556e-16 0)
(3 -5.44937e-16 0)
(3 -8.83518e-16 0)
(3 -1.62021e-15 0)
(3 -1.10384e-15 0)
(3 -3.18658e-16 0)
(3 -4.65179e-16 0)
(3 -1.4692e-16 0)
(3 1.84196e-16 0)
(3 1.03674e-16 0)
(3 5.96215e-16 0)
(3 1.18707e-19 0)
(1.66241 0.0831059 0)
(0.790879 0.0695035 0)
(0.750645 0.0845758 0)
(0.736452 0.0887521 0)
(0.719515 0.0898405 0)
(0.702633 0.0885266 0)
(0.684907 0.0847068 0)
(0.667234 0.0795139 0)
(0.650281 0.0768012 0)
(0.634893 0.0784238 0)
(0.620652 0.0830304 0)
(0.606712 0.0885591 0)
(0.592309 0.0926634 0)
(0.577039 0.0933287 0)
(0.561449 0.0896694 0)
(0.54533 0.085494 0)
(0.529677 0.0853567 0)
(0.514872 0.0900225 0)
(0.500249 0.0960774 0)
(0.484422 0.0986675 0)
(0.468629 0.0961521 0)
(0.452801 0.0927567 0)
(0.43689 0.0939073 0)
(0.421499 0.0992967 0)
(0.405107 0.102893 0)
(0.38841 0.10226 0)
(0.371726 0.101485 0)
(0.35485 0.102782 0)
(0.337684 0.10486 0)
(0.320199 0.106525 0)
(0.302544 0.107821 0)
(0.28472 0.109172 0)
(0.266732 0.110632 0)
(0.248677 0.111886 0)
(0.2306 0.112791 0)
(0.212432 0.113558 0)
(0.194086 0.114301 0)
(0.17558 0.114745 0)
(0.157063 0.11528 0)
(0.138702 0.116465 0)
(0.120588 0.117995 0)
(0.102784 0.120545 0)
(0.0845843 0.122777 0)
(0.0665973 0.12564 0)
(0.0481418 0.128997 0)
(0.029115 0.131305 0)
(0.00997665 0.134188 0)
(3 -1.66972e-16 0)
(3 1.55301e-16 0)
(3 3.13519e-16 0)
(3 6.82238e-17 0)
(3 -2.88847e-16 0)
(3 -2.68104e-16 0)
(3 -5.64946e-16 0)
(3 1.23081e-16 0)
(3 2.43639e-16 0)
(3 3.91121e-16 0)
(3 8.88148e-16 0)
(3 4.52501e-16 0)
(3 7.57514e-16 0)
(3 7.46007e-16 0)
(3 1.11148e-15 0)
(3 5.45599e-18 0)
(3 -4.90489e-16 0)
(3 -3.8717e-16 0)
(3 -6.23719e-16 0)
(3 -9.57746e-16 0)
(3 -1.3855e-15 0)
(3 -1.06959e-15 0)
(3 -3.90887e-16 0)
(3 1.20926e-15 0)
(3 9.98058e-16 0)
(3 8.11148e-16 0)
(3 4.48195e-16 0)
(3 4.75908e-16 0)
(3 -7.75672e-17 0)
(3 -2.81534e-16 0)
(3 -4.44718e-17 0)
(3 -5.99586e-16 0)
(3 -6.43092e-16 0)
(3 -6.00087e-16 0)
(3 -7.63208e-16 0)
(3 -1.08955e-15 0)
(3 -7.57927e-16 0)
(3 -7.18912e-16 0)
(3 -7.10089e-16 0)
(3 -1.32395e-15 0)
(3 -2.47811e-15 0)
(3 -1.82035e-15 0)
(3 -1.83743e-15 0)
(3 -2.46073e-15 0)
(3 -2.17664e-15 0)
(3 6.03757e-16 0)
(3 1.40115e-15 0)
(3 2.08751e-15 0)
(3 -7.35175e-16 0)
(1.75311 0.096061 0)
(0.798153 0.0819802 0)
(0.750466 0.0950819 0)
(0.737217 0.101578 0)
(0.720489 0.103348 0)
(0.704301 0.103299 0)
(0.687003 0.100412 0)
(0.669271 0.0949821 0)
(0.651634 0.0903999 0)
(0.635158 0.0901107 0)
(0.620275 0.0939098 0)
(0.606278 0.0998201 0)
(0.592266 0.105321 0)
(0.577476 0.107725 0)
(0.562115 0.105181 0)
(0.546219 0.100689 0)
(0.530484 0.099517 0)
(0.515486 0.103462 0)
(0.501094 0.109616 0)
(0.485357 0.11286 0)
(0.469353 0.110982 0)
(0.453312 0.107784 0)
(0.43724 0.109025 0)
(0.42194 0.114665 0)
(0.405734 0.118508 0)
(0.389158 0.117966 0)
(0.372517 0.117391 0)
(0.355677 0.119072 0)
(0.338548 0.121569 0)
(0.321093 0.123584 0)
(0.30348 0.125196 0)
(0.285744 0.126857 0)
(0.267908 0.128572 0)
(0.250071 0.129968 0)
(0.232267 0.130919 0)
(0.214389 0.131717 0)
(0.196286 0.132516 0)
(0.1779 0.133002 0)
(0.159316 0.133572 0)
(0.140688 0.134832 0)
(0.122134 0.136388 0)
(0.103827 0.139044 0)
(0.0851081 0.141315 0)
(0.0667603 0.144228 0)
(0.0481351 0.147886 0)
(0.029032 0.150409 0)
(0.00995027 0.153714 0)
(3 -2.99808e-17 0)
(3 2.08492e-16 0)
(3 3.50277e-16 0)
(3 1.43818e-17 0)
(3 2.97534e-16 0)
(3 3.29335e-16 0)
(3 2.04984e-16 0)
(3 4.13268e-16 0)
(3 8.09011e-17 0)
(3 8.70509e-17 0)
(3 4.78357e-16 0)
(3 -1.95531e-16 0)
(3 -5.77565e-16 0)
(3 2.51798e-16 0)
(3 1.21023e-15 0)
(3 1.19404e-15 0)
(3 5.34806e-16 0)
(3 -8.0831e-16 0)
(3 -9.11778e-16 0)
(3 -7.66525e-16 0)
(3 -5.51114e-16 0)
(3 -5.33105e-16 0)
(3 9.9281e-16 0)
(3 1.09624e-15 0)
(3 8.67889e-16 0)
(3 2.53112e-16 0)
(3 -6.89304e-17 0)
(3 -1.49707e-15 0)
(3 -1.99499e-15 0)
(3 -1.27785e-15 0)
(3 -1.01182e-15 0)
(3 -1.11517e-15 0)
(3 -1.83596e-15 0)
(3 -1.56884e-15 0)
(3 -8.9944e-16 0)
(3 -4.98401e-16 0)
(3 -1.14249e-16 0)
(3 -5.73742e-16 0)
(3 -6.60786e-16 0)
(3 -4.05399e-16 0)
(3 -9.9632e-16 0)
(3 -1.22944e-15 0)
(3 -1.84216e-15 0)
(3 -2.85427e-15 0)
(3 -2.41472e-15 0)
(3 -1.52544e-15 0)
(3 1.74376e-16 0)
(3 1.09361e-15 0)
(3 -1.40206e-15 0)
(1.86454 0.108186 0)
(0.809493 0.0961807 0)
(0.750387 0.105685 0)
(0.738345 0.113816 0)
(0.722167 0.116094 0)
(0.706925 0.117154 0)
(0.690367 0.115524 0)
(0.672859 0.110703 0)
(0.654852 0.105044 0)
(0.637333 0.102791 0)
(0.621447 0.105361 0)
(0.607084 0.1112 0)
(0.593365 0.117727 0)
(0.579147 0.121623 0)
(0.564179 0.120359 0)
(0.548695 0.115857 0)
(0.53301 0.113722 0)
(0.517794 0.116861 0)
(0.503503 0.123059 0)
(0.48784 0.127054 0)
(0.471625 0.125942 0)
(0.455398 0.122922 0)
(0.439149 0.124092 0)
(0.423867 0.129831 0)
(0.407797 0.133947 0)
(0.391275 0.13363 0)
(0.374651 0.133335 0)
(0.357875 0.135394 0)
(0.340855 0.138254 0)
(0.323538 0.140537 0)
(0.306107 0.142381 0)
(0.28862 0.144273 0)
(0.27109 0.146179 0)
(0.253572 0.147677 0)
(0.236045 0.148685 0)
(0.218337 0.149595 0)
(0.200245 0.150611 0)
(0.181669 0.151351 0)
(0.162692 0.152167 0)
(0.143508 0.15366 0)
(0.124281 0.155322 0)
(0.1053 0.158072 0)
(0.0859089 0.160336 0)
(0.067107 0.163178 0)
(0.0482364 0.167029 0)
(0.0290057 0.169666 0)
(0.00994546 0.173303 0)
(3 -1.74507e-16 0)
(3 -5.32511e-16 0)
(3 -6.3847e-16 0)
(3 5.57223e-17 0)
(3 3.30596e-16 0)
(3 2.56745e-17 0)
(3 -1.71429e-16 0)
(3 -7.51432e-16 0)
(3 -6.34581e-16 0)
(3 -4.34063e-16 0)
(3 -4.3998e-16 0)
(3 4.82817e-17 0)
(3 -2.26867e-16 0)
(3 -1.09393e-16 0)
(3 6.8778e-17 0)
(3 8.86809e-16 0)
(3 1.44186e-15 0)
(3 1.02194e-15 0)
(3 1.04748e-16 0)
(3 -1.01582e-16 0)
(3 6.93091e-17 0)
(3 -2.09413e-16 0)
(3 -4.22724e-17 0)
(3 -6.60699e-16 0)
(3 -1.03637e-15 0)
(3 -2.23449e-17 0)
(3 1.57451e-16 0)
(3 -6.2724e-16 0)
(3 -1.65397e-15 0)
(3 -2.35371e-15 0)
(3 -2.28437e-15 0)
(3 -2.36347e-15 0)
(3 -2.30073e-15 0)
(3 -2.54992e-15 0)
(3 -2.27945e-15 0)
(3 -1.99353e-15 0)
(3 -1.83568e-15 0)
(3 -1.37335e-15 0)
(3 -6.07009e-16 0)
(3 1.21809e-15 0)
(3 1.63404e-15 0)
(3 -9.71832e-17 0)
(3 -2.5521e-15 0)
(3 -2.371e-15 0)
(3 -1.58377e-15 0)
(3 -8.10191e-16 0)
(3 3.69391e-17 0)
(3 8.08803e-16 0)
(3 7.63289e-16 0)
(1.99531 0.118059 0)
(0.82486 0.112838 0)
(0.74918 0.115751 0)
(0.738524 0.125442 0)
(0.722977 0.127898 0)
(0.708972 0.130074 0)
(0.693506 0.12981 0)
(0.676641 0.126165 0)
(0.658762 0.120377 0)
(0.640696 0.116489 0)
(0.623875 0.11752 0)
(0.608941 0.122781 0)
(0.595293 0.129828 0)
(0.581514 0.134931 0)
(0.566898 0.135022 0)
(0.551742 0.130866 0)
(0.536043 0.127955 0)
(0.520567 0.130281 0)
(0.506244 0.136473 0)
(0.490672 0.141274 0)
(0.47426 0.141031 0)
(0.457853 0.138178 0)
(0.441395 0.139135 0)
(0.426069 0.144861 0)
(0.410133 0.149315 0)
(0.393666 0.149352 0)
(0.37711 0.149363 0)
(0.36048 0.151738 0)
(0.343659 0.154867 0)
(0.326559 0.157325 0)
(0.309358 0.159334 0)
(0.292114 0.16144 0)
(0.27482 0.163571 0)
(0.257471 0.165261 0)
(0.239995 0.166462 0)
(0.222185 0.167659 0)
(0.203834 0.169082 0)
(0.184856 0.170249 0)
(0.16538 0.17143 0)
(0.145658 0.1732 0)
(0.12587 0.174943 0)
(0.106347 0.177688 0)
(0.0864689 0.179848 0)
(0.0672985 0.182473 0)
(0.0482489 0.186401 0)
(0.0289344 0.189054 0)
(0.00993925 0.19295 0)
(3 1.86455e-16 0)
(3 1.84682e-16 0)
(3 1.48169e-16 0)
(3 -2.9873e-17 0)
(3 -7.35065e-16 0)
(3 -6.4817e-16 0)
(3 -8.94081e-16 0)
(3 -9.62128e-16 0)
(3 -7.43634e-16 0)
(3 -7.95573e-16 0)
(3 -1.31093e-15 0)
(3 -1.02165e-15 0)
(3 -5.38925e-16 0)
(3 -4.11985e-16 0)
(3 -3.13683e-16 0)
(3 -1.58271e-16 0)
(3 1.56101e-16 0)
(3 1.7182e-16 0)
(3 -2.33742e-16 0)
(3 -4.51292e-16 0)
(3 5.04968e-16 0)
(3 -6.19791e-16 0)
(3 -1.41282e-15 0)
(3 -1.23023e-15 0)
(3 -1.02998e-15 0)
(3 -6.53225e-16 0)
(3 -6.31858e-16 0)
(3 -8.8601e-16 0)
(3 -9.05911e-16 0)
(3 -1.03939e-15 0)
(3 -1.11457e-15 0)
(3 -1.08552e-15 0)
(3 -1.42594e-15 0)
(3 -2.22735e-15 0)
(3 -2.39548e-15 0)
(3 -2.01094e-15 0)
(3 -1.49499e-15 0)
(3 -1.26597e-15 0)
(3 -1.16872e-15 0)
(3 -3.12134e-16 0)
(3 6.15426e-16 0)
(3 2.93804e-16 0)
(3 -2.20992e-16 0)
(3 9.76081e-17 0)
(3 2.82181e-16 0)
(3 4.42839e-16 0)
(3 6.72314e-16 0)
(3 5.9364e-16 0)
(3 -3.4347e-15 0)
(2.14186 0.125885 0)
(0.843476 0.133507 0)
(0.746551 0.126184 0)
(0.736684 0.136305 0)
(0.721598 0.139026 0)
(0.708473 0.142131 0)
(0.693811 0.143386 0)
(0.677523 0.14128 0)
(0.660023 0.136086 0)
(0.641966 0.131178 0)
(0.624661 0.130555 0)
(0.609338 0.134807 0)
(0.595824 0.141879 0)
(0.582522 0.147834 0)
(0.568346 0.149302 0)
(0.553531 0.145848 0)
(0.53783 0.14237 0)
(0.522265 0.143878 0)
(0.50791 0.149944 0)
(0.49265 0.155511 0)
(0.476283 0.156198 0)
(0.459921 0.153518 0)
(0.443456 0.154135 0)
(0.428244 0.15974 0)
(0.412635 0.164573 0)
(0.396395 0.165054 0)
(0.380058 0.165359 0)
(0.36369 0.167972 0)
(0.347137 0.171291 0)
(0.330262 0.17388 0)
(0.313232 0.176056 0)
(0.296116 0.178425 0)
(0.278897 0.180877 0)
(0.261532 0.182885 0)
(0.243921 0.184414 0)
(0.225859 0.18602 0)
(0.207159 0.187949 0)
(0.187751 0.189624 0)
(0.167806 0.19122 0)
(0.147616 0.193277 0)
(0.127351 0.195082 0)
(0.107347 0.197749 0)
(0.0870825 0.199746 0)
(0.0675453 0.202049 0)
(0.048301 0.205974 0)
(0.0288823 0.208581 0)
(0.00994681 0.212689 0)
(3 3.77532e-17 0)
(3 5.27935e-16 0)
(3 4.25868e-16 0)
(3 -2.08114e-16 0)
(3 -3.12315e-16 0)
(3 -3.9864e-16 0)
(3 -3.8333e-16 0)
(3 -4.045e-16 0)
(3 -1.09421e-15 0)
(3 -2.49198e-15 0)
(3 -2.59522e-15 0)
(3 -2.43567e-15 0)
(3 -1.42585e-15 0)
(3 -9.77801e-16 0)
(3 -7.95504e-16 0)
(3 -1.08427e-15 0)
(3 -1.4378e-15 0)
(3 -1.51352e-15 0)
(3 -9.16651e-16 0)
(3 1.61757e-16 0)
(3 2.13339e-16 0)
(3 -8.88962e-17 0)
(3 -3.23165e-16 0)
(3 -6.43948e-16 0)
(3 -9.09816e-16 0)
(3 -1.37517e-15 0)
(3 -1.45651e-15 0)
(3 -1.10174e-15 0)
(3 -8.18388e-16 0)
(3 -4.24732e-16 0)
(3 -8.22056e-16 0)
(3 -7.05347e-16 0)
(3 -1.18584e-15 0)
(3 -1.52079e-15 0)
(3 -1.97134e-15 0)
(3 -1.4577e-15 0)
(3 -7.67436e-16 0)
(3 -5.89079e-16 0)
(3 -8.66278e-16 0)
(3 -6.48119e-16 0)
(3 -6.71537e-16 0)
(3 8.73678e-17 0)
(3 1.11227e-15 0)
(3 1.02746e-15 0)
(3 6.4274e-16 0)
(3 9.00959e-16 0)
(3 5.43897e-16 0)
(3 -2.36154e-16 0)
(3 -1.90569e-15 0)
(2.305 0.131933 0)
(0.869535 0.156487 0)
(0.74953 0.137804 0)
(0.739328 0.14725 0)
(0.724315 0.150387 0)
(0.711083 0.154259 0)
(0.696409 0.156738 0)
(0.680261 0.155961 0)
(0.663074 0.151574 0)
(0.645324 0.146198 0)
(0.627862 0.1441 0)
(0.612076 0.147087 0)
(0.598287 0.153785 0)
(0.584953 0.160471 0)
(0.570742 0.163265 0)
(0.555774 0.160774 0)
(0.539996 0.156921 0)
(0.524143 0.157533 0)
(0.509675 0.163316 0)
(0.494769 0.169523 0)
(0.478553 0.171191 0)
(0.462304 0.168748 0)
(0.445925 0.168952 0)
(0.430877 0.174346 0)
(0.415693 0.179584 0)
(0.399739 0.1806 0)
(0.383632 0.181206 0)
(0.36748 0.184031 0)
(0.351101 0.187547 0)
(0.334314 0.190322 0)
(0.317279 0.192742 0)
(0.300087 0.195468 0)
(0.282726 0.198351 0)
(0.265128 0.200798 0)
(0.247194 0.202763 0)
(0.228754 0.20485 0)
(0.209667 0.207328 0)
(0.189882 0.209528 0)
(0.169595 0.211533 0)
(0.149103 0.213845 0)
(0.128543 0.215676 0)
(0.108219 0.218202 0)
(0.0876982 0.219986 0)
(0.0678654 0.221894 0)
(0.0484344 0.225758 0)
(0.0288819 0.228276 0)
(0.00998099 0.232574 0)
(3 2.81977e-17 0)
(3 3.73864e-16 0)
(3 5.3488e-16 0)
(3 8.35889e-16 0)
(3 8.962e-16 0)
(3 3.81627e-16 0)
(3 8.15832e-17 0)
(3 -8.39988e-16 0)
(3 -1.16274e-15 0)
(3 -1.83477e-15 0)
(3 -2.25568e-15 0)
(3 -2.92509e-15 0)
(3 -3.11383e-15 0)
(3 -2.62986e-15 0)
(3 -1.08702e-15 0)
(3 -1.05658e-15 0)
(3 -1.3624e-15 0)
(3 -7.99249e-16 0)
(3 3.38686e-16 0)
(3 1.63504e-15 0)
(3 1.91078e-15 0)
(3 1.59789e-15 0)
(3 7.61055e-16 0)
(3 -4.28778e-16 0)
(3 -1.31288e-15 0)
(3 -1.87992e-15 0)
(3 -1.78328e-15 0)
(3 -1.29603e-15 0)
(3 -1.07791e-15 0)
(3 -9.66214e-16 0)
(3 -1.84441e-15 0)
(3 -2.99696e-15 0)
(3 -2.48771e-15 0)
(3 -1.16799e-15 0)
(3 -1.05004e-15 0)
(3 -7.83836e-16 0)
(3 -8.13555e-16 0)
(3 -1.1282e-15 0)
(3 -1.10105e-15 0)
(3 -1.94818e-15 0)
(3 -1.47563e-15 0)
(3 -5.43125e-16 0)
(3 4.51864e-16 0)
(3 8.46706e-16 0)
(3 9.69638e-16 0)
(3 9.9495e-16 0)
(3 -3.64742e-16 0)
(3 -8.52152e-16 0)
(3 -2.95786e-15 0)
(2.48032 0.133024 0)
(0.904086 0.177476 0)
(0.758918 0.148167 0)
(0.747574 0.157108 0)
(0.731813 0.161704 0)
(0.717567 0.166873 0)
(0.702244 0.170481 0)
(0.686192 0.170583 0)
(0.669592 0.166809 0)
(0.65238 0.161324 0)
(0.634845 0.158129 0)
(0.61831 0.159911 0)
(0.603648 0.166131 0)
(0.58977 0.173405 0)
(0.575145 0.177382 0)
(0.559738 0.175983 0)
(0.543856 0.171946 0)
(0.527555 0.171503 0)
(0.512658 0.176743 0)
(0.497948 0.183425 0)
(0.481834 0.186074 0)
(0.465621 0.18394 0)
(0.449299 0.183656 0)
(0.43431 0.188728 0)
(0.41946 0.19437 0)
(0.403656 0.196022 0)
(0.387589 0.196977 0)
(0.371447 0.200046 0)
(0.35506 0.203829 0)
(0.338221 0.20688 0)
(0.321091 0.209618 0)
(0.303779 0.212749 0)
(0.286269 0.216108 0)
(0.268462 0.219042 0)
(0.250267 0.221482 0)
(0.231561 0.224063 0)
(0.212252 0.22708 0)
(0.192289 0.229782 0)
(0.171858 0.232165 0)
(0.151222 0.2347 0)
(0.130466 0.236547 0)
(0.10986 0.238925 0)
(0.0890454 0.24052 0)
(0.068831 0.24204 0)
(0.0490661 0.245844 0)
(0.0291892 0.248267 0)
(0.0101228 0.252751 0)
(3 1.49312e-16 0)
(3 1.13129e-16 0)
(3 2.56061e-16 0)
(3 -2.11751e-16 0)
(3 -3.93682e-16 0)
(3 -4.52864e-16 0)
(3 -6.2186e-16 0)
(3 -3.29946e-16 0)
(3 -3.54031e-16 0)
(3 -1.10266e-17 0)
(3 -5.58839e-16 0)
(3 -1.77779e-15 0)
(3 -2.08248e-15 0)
(3 -2.15379e-15 0)
(3 -2.2885e-15 0)
(3 -8.06427e-16 0)
(3 -3.76438e-16 0)
(3 7.5617e-17 0)
(3 3.78945e-16 0)
(3 4.14757e-16 0)
(3 7.11766e-16 0)
(3 1.74183e-15 0)
(3 1.24161e-15 0)
(3 8.89445e-17 0)
(3 -7.49185e-17 0)
(3 -1.14135e-15 0)
(3 -1.35921e-15 0)
(3 -1.78374e-15 0)
(3 -2.30478e-15 0)
(3 -2.37023e-15 0)
(3 -2.4944e-15 0)
(3 -2.72346e-15 0)
(3 -1.7798e-15 0)
(3 -1.35487e-15 0)
(3 -1.36227e-15 0)
(3 -1.2687e-15 0)
(3 -1.94619e-15 0)
(3 -2.0805e-15 0)
(3 -1.95468e-15 0)
(3 -2.38471e-15 0)
(3 -1.40292e-15 0)
(3 -4.7468e-16 0)
(3 5.8843e-16 0)
(3 1.25117e-15 0)
(3 1.13359e-15 0)
(3 -9.11335e-16 0)
(3 -1.28222e-15 0)
(3 -1.3201e-15 0)
(3 -2.69933e-15 0)
(2.65642 0.12554 0)
(0.946143 0.193579 0)
(0.769157 0.160218 0)
(0.757044 0.168793 0)
(0.741176 0.174668 0)
(0.726878 0.180427 0)
(0.712013 0.184147 0)
(0.696934 0.184215 0)
(0.681222 0.180833 0)
(0.664323 0.175839 0)
(0.646374 0.172409 0)
(0.62869 0.173447 0)
(0.612639 0.179213 0)
(0.597831 0.186831 0)
(0.582652 0.191709 0)
(0.566779 0.191417 0)
(0.550522 0.187502 0)
(0.533633 0.186013 0)
(0.517955 0.190463 0)
(0.503114 0.197403 0)
(0.486956 0.200972 0)
(0.470558 0.19925 0)
(0.45405 0.198461 0)
(0.438744 0.203136 0)
(0.423865 0.209188 0)
(0.407907 0.211572 0)
(0.391629 0.212889 0)
(0.375338 0.216179 0)
(0.358904 0.220236 0)
(0.34207 0.223594 0)
(0.324964 0.226664 0)
(0.30767 0.230193 0)
(0.290139 0.234029 0)
(0.272231 0.237478 0)
(0.253855 0.24043 0)
(0.234945 0.243534 0)
(0.215466 0.247108 0)
(0.195364 0.25032 0)
(0.174806 0.253077 0)
(0.154014 0.255831 0)
(0.133024 0.25772 0)
(0.112081 0.259991 0)
(0.0909094 0.261459 0)
(0.0702448 0.26264 0)
(0.0500534 0.26641 0)
(0.0297264 0.268746 0)
(0.0103397 0.273412 0)
(3 -2.48241e-16 0)
(3 -2.81556e-16 0)
(3 -4.9799e-16 0)
(3 -1.17512e-15 0)
(3 -1.82839e-15 0)
(3 -1.32949e-15 0)
(3 -9.82423e-16 0)
(3 -4.37148e-16 0)
(3 -1.72691e-16 0)
(3 6.99165e-16 0)
(3 1.12389e-15 0)
(3 5.18895e-16 0)
(3 -4.72933e-16 0)
(3 -1.56439e-15 0)
(3 -2.13631e-15 0)
(3 -1.67703e-15 0)
(3 -1.45709e-15 0)
(3 -6.9462e-16 0)
(3 -8.01805e-16 0)
(3 -1.2815e-15 0)
(3 -7.21919e-16 0)
(3 5.61389e-16 0)
(3 8.52604e-16 0)
(3 2.03976e-16 0)
(3 -1.14756e-16 0)
(3 -2.90114e-16 0)
(3 -5.98545e-16 0)
(3 -1.689e-15 0)
(3 -2.70872e-15 0)
(3 -2.5204e-15 0)
(3 -1.62409e-15 0)
(3 -7.39803e-16 0)
(3 -1.00789e-15 0)
(3 -1.71983e-15 0)
(3 -1.93192e-15 0)
(3 -2.90159e-15 0)
(3 -2.96618e-15 0)
(3 -2.2578e-15 0)
(3 -2.41115e-15 0)
(3 -1.9148e-15 0)
(3 -1.34894e-15 0)
(3 -1.34597e-15 0)
(3 -2.30779e-16 0)
(3 8.6169e-17 0)
(3 -4.1569e-16 0)
(3 -2.16284e-15 0)
(3 -1.94543e-15 0)
(3 -1.57744e-15 0)
(3 -9.86387e-16 0)
(2.81934 0.108151 0)
(0.996379 0.203286 0)
(0.779437 0.170002 0)
(0.768424 0.178582 0)
(0.753597 0.185395 0)
(0.739783 0.191774 0)
(0.725474 0.195848 0)
(0.711042 0.196461 0)
(0.695838 0.194172 0)
(0.67908 0.19047 0)
(0.660798 0.187619 0)
(0.642185 0.188259 0)
(0.624861 0.193358 0)
(0.609147 0.200825 0)
(0.593491 0.20628 0)
(0.577175 0.207057 0)
(0.560347 0.203672 0)
(0.542825 0.201321 0)
(0.52615 0.204745 0)
(0.510863 0.211638 0)
(0.494467 0.216064 0)
(0.477505 0.215011 0)
(0.46039 0.213835 0)
(0.444319 0.218042 0)
(0.429059 0.224405 0)
(0.412796 0.22747 0)
(0.396228 0.229033 0)
(0.379747 0.232418 0)
(0.363262 0.2367 0)
(0.346449 0.240381 0)
(0.329385 0.243799 0)
(0.312135 0.247724 0)
(0.294614 0.252043 0)
(0.276633 0.256045 0)
(0.258101 0.25957 0)
(0.239011 0.26325 0)
(0.219396 0.267414 0)
(0.199202 0.271148 0)
(0.178576 0.274269 0)
(0.157688 0.277232 0)
(0.136516 0.279184 0)
(0.115273 0.281414 0)
(0.0937077 0.282858 0)
(0.0725111 0.283801 0)
(0.0517383 0.287611 0)