/*--------------------------------*- C++ -*----------------------------------*\
  =========                 |
  \\      /  F ield         | OpenFOAM: The Open Source CFD Toolbox
   \\    /   O peration     | Website:  https://openfoam.org
    \\  /    A nd           | Version:  7
     \\/     M anipulation  |
\*---------------------------------------------------------------------------*/
FoamFile
{
    version     2.0;
    format      ascii;
    class       volScalarField;
    location    "0.7";
    object      rho;
}
// * * * * * * * * * * * * * * * * * * * * * * * * * * * * * * * * * * * * * //

dimensions      [1 -3 0 0 0 0 0];

internalField   nonuniform List<scalar> 
4032
(
1.40001
1.40001
1.40001
1.40001
1.40001
1.40001
1.40001
1.40001
1.40001
1.40001
1.40001
1.40001
1.40001
1.40001
3.41424
5.52966
5.63626
5.69371
5.73778
5.75479
5.73706
5.62396
5.43669
5.3358
1.40001
1.40001
1.40001
1.40001
1.40001
1.40001
1.40001
1.40001
1.40001
1.40001
1.40001
1.40001
1.40001
1.40001
3.33746
5.48773
5.62106
5.68129
5.7237
5.74007
5.71895
5.60252
5.41332
5.31213
1.40001
1.40001
1.40001
1.40001
1.40001
1.40001
1.40001
1.40001
1.40001
1.40001
1.40001
1.40001
1.40001
1.40001
3.18037
5.432
5.59679
5.66022
5.70104
5.71743
5.69159
5.57054
5.37962
5.27857
1.40001
1.40001
1.40001
1.40001
1.40001
1.40001
1.40001
1.40001
1.40001
1.40001
1.40001
1.40001
1.40001
1.40001
2.95008
5.34247
5.56534
5.63086
5.66917
5.68686
5.65686
5.53025
5.33423
5.22792
1.40001
1.40001
1.40001
1.40001
1.40001
1.40001
1.40001
1.40001
1.40001
1.40001
1.40001
1.40001
1.40001
1.40001
2.66368
5.20912
5.54288
5.59703
5.62766
5.64153
5.60458
5.474
5.27289
5.16476
1.40001
1.40001
1.40001
1.40001
1.40001
1.40001
1.40001
1.40001
1.40001
1.40001
1.40001
1.40001
1.40001
1.40001
2.29254
5.01934
5.53086
5.55638
5.5818
5.5916
5.5508
5.41575
5.20382
5.05708
1.40001
1.40001
1.40001
1.40001
1.40001
1.40001
1.40001
1.40001
1.40001
1.40001
1.40001
1.40001
1.40001
1.40001
1.87485
4.80166
5.56131
5.53786
5.53624
5.52174
5.46207
5.30483
5.06444
4.90671
1.40001
1.40001
1.40001
1.40001
1.40001
1.40001
1.40001
1.40001
1.40001
1.40001
1.40001
1.40001
1.40001
1.40001
1.48596
4.33713
5.5169
5.47002
5.45377
5.43196
5.3697
5.22177
4.9493
4.76117
1.40001
1.40001
1.40001
1.40001
1.40001
1.40001
1.40001
1.40001
1.40001
1.40001
1.40001
1.40001
1.40001
1.40001
1.40164
3.56644
5.34564
5.3807
5.36979
5.35232
5.27631
5.08654
4.64258
3.66251
1.40001
1.40001
1.40001
1.40001
1.40001
1.40001
1.40001
1.40001
1.40001
1.40001
1.40001
1.40001
1.40001
1.40001
1.40001
2.66358
5.06028
5.32662
5.29996
5.25502
5.13491
4.89559
4.45826
3.50194
1.40001
1.40001
1.40001
1.40001
1.40001
1.40001
1.40001
1.40001
1.40001
1.40001
1.40001
1.40001
1.40001
1.40001
1.40001
1.79163
4.65941
5.32372
5.25015
5.16007
4.99174
4.7357
4.30397
3.48678
1.40001
1.40001
1.40001
1.40001
1.40001
1.40001
1.40001
1.40001
1.40001
1.40001
1.40001
1.40001
1.40001
1.40001
1.40001
1.42695
3.7704
5.21432
5.17534
5.0783
4.89543
4.6483
4.18861
3.54555
1.40001
1.40001
1.40001
1.40001
1.40001
1.40001
1.40001
1.40001
1.40001
1.40001
1.40001
1.40001
1.40001
1.40001
1.40001
1.40012
2.53291
4.99805
5.14897
5.00701
4.80102
4.53347
4.10506
3.59661
1.40001
1.40001
1.40001
1.40001
1.40001
1.40001
1.40001
1.40001
1.40001
1.40001
1.40001
1.40001
1.40001
1.40001
1.40001
1.4
1.59142
4.34582
5.10538
4.91891
4.71604
4.44033
4.07017
3.65214
1.40001
1.40001
1.40001
1.40001
1.40001
1.40001
1.40001
1.40001
1.40001
1.40001
1.40001
1.40001
1.40001
1.40001
1.40001
1.40001
1.40444
3.00188
4.93567
4.88767
4.68665
4.41402
4.07076
3.69859
1.40001
1.40001
1.40001
1.40001
1.40001
1.40001
1.40001
1.40001
1.40001
1.40001
1.40001
1.40001
1.40001
1.40001
1.40001
1.40001
1.40001
1.73179
4.39258
4.9024
4.6611
4.39491
4.07726
3.74417
1.40001
1.40001
1.40001
1.40001
1.40001
1.40001
1.40001
1.40001
1.40001
1.40001
1.40001
1.40001
1.40001
1.40001
1.40001
1.40001
1.40001
1.41304
2.98339
4.72595
4.64597
4.39968
4.12203
3.82123
1.40001
1.40001
1.40001
1.40001
1.40001
1.40001
1.40001
1.40001
1.40001
1.40001
1.40001
1.40001
1.40001
1.40001
1.40001
1.40001
1.40001
1.40004
1.72205
4.08068
4.71001
4.45551
4.17661
3.88993
1.40001
1.40001
1.40001
1.40001
1.40001
1.40001
1.40001
1.40001
1.40001
1.40001
1.40001
1.40001
1.40001
1.40001
1.40001
1.40001
1.40001
1.40001
1.41163
2.50557
4.4613
4.53424
4.25001
3.99235
1.40001
1.40001
1.40001
1.40001
1.40001
1.40001
1.40001
1.40001
1.40001
1.40001
1.40001
1.40001
1.40001
1.40001
1.40001
1.40001
1.40001
1.40001
1.40006
1.54876
3.38262
4.48875
4.33975
4.06749
1.40001
1.40001
1.40001
1.40001
1.40001
1.40001
1.40001
1.40001
1.40001
1.40001
1.40001
1.40001
1.40001
1.40001
1.40001
1.40001
1.40001
1.40001
1.40001
1.40284
1.93873
3.91756
4.42299
4.19545
1.40001
1.40001
1.40001
1.40001
1.40001
1.40001
1.40001
1.40001
1.40001
1.40001
1.40001
1.40001
1.40001
1.40001
1.40001
1.40001
1.40001
1.40001
1.40001
1.40001
1.43317
2.4483
4.11706
4.27417
1.40001
1.40001
1.40001
1.40001
1.40001
1.40001
1.40001
1.40001
1.40001
1.40001
1.40001
1.40001
1.40001
1.40001
1.40001
1.40001
1.40001
1.40001
1.40001
1.40001
1.40033
1.5309
2.85672
4.12322
1.40001
1.40001
1.40001
1.40001
1.40001
1.40001
1.40001
1.40001
1.40001
1.40001
1.40001
1.40001
1.40001
1.40001
1.40001
1.40001
1.40001
1.40001
1.40001
1.40001
1.40001
1.40268
1.67078
3.12829
1.40001
1.40001
1.40001
1.40001
1.40001
1.40001
1.40001
1.40001
1.40001
1.40001
1.40001
1.40001
1.40001
1.40001
1.40001
1.40001
1.40001
1.40001
1.40001
1.40001
1.40001
1.40001
1.40939
1.81569
1.40001
1.40001
1.40001
1.40001
1.40001
1.40001
1.40001
1.40001
1.40001
1.40001
1.40001
1.40001
1.40001
1.40001
1.40001
1.40001
1.40001
1.40001
1.40001
1.40001
1.40001
1.40001
1.40006
1.42086
1.40001
1.40001
1.40001
1.40001
1.40001
1.40001
1.40001
1.40001
1.40001
1.40001
1.40001
1.40001
1.40001
1.40001
1.40001
1.40001
1.40001
1.40001
1.40001
1.40001
1.40001
1.40001
1.40001
1.40019
1.40001
1.40001
1.40001
1.40001
1.40001
1.40001
1.40001
1.40001
1.40001
1.40001
1.40001
1.40001
1.40001
1.40001
1.40001
1.40001
1.40001
1.40001
1.40001
1.40001
1.40001
1.40001
1.40001
1.40001
1.40001
1.40001
1.40001
1.40001
1.40001
1.40001
1.40001
1.40001
1.40001
1.40001
1.40001
1.40001
1.40001
1.40001
1.40001
1.40001
1.40001
1.40001
1.40001
1.40001
1.40001
1.40001
1.40001
1.40001
1.40001
1.40001
1.40001
1.40001
1.40001
1.40001
1.40001
1.40001
1.40001
1.40001
1.40001
1.40001
1.40001
1.40001
1.40001
1.40001
1.40001
1.40001
1.40001
1.40001
1.40001
1.40001
1.40001
1.40001
1.40001
1.40001
1.40001
1.40001
1.40001
1.40001
1.40001
1.40001
1.40001
1.40001
1.40001
1.40001
1.40001
1.40001
1.40001
1.40001
1.40001
1.40001
1.40001
1.40001
1.40001
1.40001
1.40001
1.40001
1.40001
1.40001
1.40001
1.40001
1.40001
1.40001
1.40001
1.40001
1.40001
1.40001
1.40001
1.40001
1.40001
1.40001
1.40001
1.40001
1.40001
1.40001
1.40001
1.40001
1.40001
1.40001
1.40001
1.40001
1.40001
1.40001
1.40001
1.40001
1.40001
1.40001
1.40001
1.40001
1.40001
1.40001
1.40001
1.40001
1.40001
1.40001
1.40001
1.40001
1.40001
1.40001
1.40001
1.40001
1.40001
1.40001
1.40001
1.40001
1.40001
1.40001
1.40001
1.40001
1.40001
1.40001
1.40001
1.40001
1.40001
1.40001
1.40001
1.40001
1.40001
1.40001
1.40001
1.40001
1.40001
1.40001
1.40001
1.40001
1.40001
1.40001
1.40001
1.40001
1.40001
1.40001
1.40001
1.40001
1.40001
1.40001
1.40001
1.40001
1.40001
1.40001
1.40001
1.40001
1.40001
1.40001
1.40001
1.40001
1.40001
1.40001
1.40001
1.40001
1.40001
1.40001
1.40001
1.40001
1.40001
1.40001
1.40001
1.40001
1.40001
1.40001
1.40001
1.40001
1.40001
1.40001
1.40001
1.40001
1.40001
1.40001
1.40001
1.40001
1.40001
1.40001
1.40001
1.40001
1.40001
1.40001
1.40001
1.40001
1.40001
1.40001
1.40001
1.40001
1.40001
1.40001
1.40001
1.40001
1.40001
1.40001
1.40001
1.40001
1.40001
1.40001
1.40001
1.40001
1.40001
1.40001
1.40001
1.40001
1.40001
1.40001
1.40001
1.40001
1.40001
1.40001
1.40001
1.40001
1.40001
1.40001
1.40001
1.40001
1.40001
1.40001
1.40001
1.40001
1.40001
1.40001
1.40001
1.40001
1.40001
1.40001
1.40001
1.40001
1.40001
1.40001
1.40001
1.40001
1.40001
1.40001
1.40001
1.40001
1.40001
1.40001
1.40001
1.40001
1.40001
1.40001
1.40001
1.40001
1.40001
1.40001
1.40001
1.40001
1.40001
1.40001
1.40001
1.40001
1.40001
1.40001
1.40001
1.40001
1.40001
1.40001
1.40001
1.40001
1.40001
1.40001
1.40001
1.40001
1.40001
1.40001
1.40001
1.40001
1.40001
1.40001
1.40001
1.40001
1.40001
1.40001
1.40001
1.40001
1.40001
1.40001
1.40001
1.40001
1.19111
0.485848
0.183654
0.148037
0.177529
0.26105
0.316593
0.367699
0.460977
0.55306
0.614713
0.633892
0.655972
0.678717
0.687548
0.699008
0.717237
0.732933
0.733719
0.725403
0.719632
0.713454
0.706489
0.701968
0.69712
0.690964
0.689267
0.690618
0.693615
0.694741
0.691183
0.681869
0.673187
0.670122
0.66864
0.665085
0.659899
0.654957
0.650474
0.646528
0.642496
0.637978
0.634081
0.632278
0.632097
0.632531
0.633938
0.637657
0.642648
0.646037
0.649104
0.653169
0.658845
0.662847
0.665541
0.667712
0.669559
0.673194
0.680718
0.694612
0.714931
0.738239
0.754892
0.759072
0.760035
0.760715
0.761143
0.762299
0.766319
0.775718
0.793723
0.824112
0.868461
0.926089
1.00299
1.11841
1.26366
1.34205
1.36255
1.37736
1.40263
1.4254
1.42913
1.42808
1.42657
1.42326
1.41847
1.41336
1.40777
1.40377
1.40274
1.40217
1.40177
1.4015
1.40137
1.40215
1.82035
1.13944
0.781029
0.544744
0.510308
0.515042
0.480296
0.447731
0.451562
0.475341
0.513374
0.544951
0.580302
0.626601
0.666933
0.692587
0.714736
0.732859
0.734737
0.730245
0.727532
0.730431
0.72808
0.72511
0.720008
0.713132
0.711527
0.713501
0.718359
0.719147
0.716801
0.709487
0.697116
0.684461
0.67602
0.669162
0.66327
0.658981
0.656195
0.654735
0.652657
0.648813
0.644171
0.640077
0.637545
0.636351
0.636846
0.640131
0.646082
0.652127
0.65809
0.663128
0.665293
0.666824
0.668336
0.668689
0.670141
0.675303
0.683723
0.697642
0.720281
0.748406
0.760221
0.761449
0.761958
0.763159
0.765437
0.768738
0.774764
0.785943
0.804686
0.83358
0.874234
0.927044
0.996444
1.09752
1.2306
1.33317
1.37277
1.38897
1.40423
1.41848
1.42169
1.42033
1.4203
1.41804
1.41369
1.40999
1.40607
1.40207
1.40063
1.40023
1.40006
1.40005
1.40026
1.40128
2.35825
1.67176
1.29043
1.02764
0.848392
0.754393
0.664951
0.565789
0.538916
0.536126
0.539894
0.559744
0.597444
0.637955
0.679028
0.705892
0.729141
0.755672
0.775031
0.776876
0.781118
0.792366
0.801694
0.805765
0.799646
0.787464
0.775963
0.767843
0.761967
0.756894
0.752498
0.746961
0.736482
0.723118
0.712788
0.703911
0.693696
0.683008
0.677269
0.67684
0.676321
0.673269
0.67041
0.668147
0.66524
0.660103
0.653167
0.651135
0.653702
0.66001
0.671528
0.685558
0.691046
0.692785
0.693558
0.690173
0.685029
0.687183
0.692206
0.701924
0.723768
0.758965
0.77769
0.7807
0.781626
0.782752
0.785011
0.788492
0.795289
0.808749
0.830978
0.862285
0.901796
0.950263
1.01474
1.11108
1.24103
1.34647
1.39258
1.40938
1.41499
1.41533
1.41475
1.41727
1.42408
1.42359
1.42001
1.41658
1.41274
1.40714
1.40188
1.40054
1.40023
1.40002
1.39991
1.40088
2.75982
2.17647
1.74213
1.41183
1.2102
1.06624
0.942097
0.806289
0.750477
0.715064
0.662393
0.626048
0.63179
0.633368
0.639937
0.657057
0.689631
0.726206
0.75408
0.765906
0.778024
0.797495
0.817969
0.837563
0.848354
0.851918
0.848636
0.839725
0.825992
0.81338
0.803523
0.794129
0.783592
0.771401
0.761446
0.752902
0.738708
0.720362
0.712453
0.710825
0.709137
0.706323
0.704109
0.702404
0.700645
0.697454
0.690474
0.685724
0.685786
0.688194
0.695786
0.709775
0.718551
0.721096
0.722788
0.722267
0.72009
0.722332
0.725535
0.73087
0.744818
0.772831
0.796537
0.803503
0.808367
0.813653
0.819473
0.825691
0.834822
0.851079
0.875217
0.904488
0.938041
0.979183
1.03558
1.12384
1.25386
1.36755
1.40884
1.41241
1.41061
1.40695
1.40527
1.40946
1.42057
1.42169
1.41967
1.4178
1.41484
1.4099
1.4034
1.4002
1.39969
1.39938
1.39912
1.40008
3.01556
2.52163
2.13938
1.80762
1.53909
1.34395
1.18497
1.03757
0.9609
0.896159
0.818763
0.739431
0.718235
0.694347
0.656899
0.656478
0.665332
0.679266
0.694919
0.715371
0.738387
0.768057
0.801461
0.827024
0.846676
0.860016
0.866825
0.865887
0.860182
0.860288
0.85813
0.850398
0.838605
0.823311
0.808055
0.793871
0.774687
0.751709
0.744398
0.742766
0.741311
0.741364
0.741082
0.738818
0.735921
0.731298
0.723346
0.719854
0.719814
0.721242
0.727348
0.740961
0.751418
0.753982
0.755149
0.754813
0.755857
0.758801
0.762655
0.768683
0.780353
0.802904
0.821062
0.828554
0.835546
0.843827
0.855129
0.871121
0.892382
0.917999
0.944582
0.970902
0.999574
1.03414
1.08189
1.16023
1.28719
1.39296
1.4112
1.40966
1.40142
1.39927
1.40159
1.41097
1.41851
1.41904
1.4188
1.41816
1.41596
1.41205
1.40624
1.40068
1.3989
1.39866
1.39848
1.39947
3.1985
2.78533
2.42011
2.10311
1.8393
1.63909
1.44693
1.25513
1.15124
1.07653
1.00121
0.91767
0.873089
0.832017
0.771559
0.717857
0.715072
0.713571
0.698023
0.691174
0.69639
0.714992
0.742717
0.767672
0.798155
0.830695
0.857238
0.865248
0.862656
0.862942
0.867165
0.872547
0.874701
0.867602
0.852837
0.833309
0.810107
0.782136
0.769392
0.766879
0.766037
0.767977
0.770698
0.769306
0.766216
0.760963
0.75329
0.749772
0.749164
0.749997
0.755936
0.767672
0.779748
0.784785
0.786966
0.789151
0.792527
0.795938
0.800334
0.807277
0.819145
0.837095
0.848875
0.856236
0.86405
0.874377
0.891281
0.918318
0.953247
0.988259
1.01916
1.04739
1.07364
1.10164
1.14233
1.2164
1.33343
1.40255
1.40903
1.40852
1.40338
1.40187
1.40412
1.41365
1.41772
1.41798
1.41861
1.41835
1.41647
1.41317
1.40826
1.40186
1.39795
1.3974
1.39728
1.39848
3.30813
2.9533
2.64253
2.34878
2.07377
1.86349
1.67656
1.49472
1.36233
1.26175
1.15526
1.05886
1.00651
0.956405
0.892561
0.813577
0.787389
0.770215
0.739756
0.70988
0.710837
0.718324
0.717184
0.717275
0.727543
0.754753
0.792291
0.823937
0.839537
0.849388
0.862501
0.87576
0.880362
0.881539
0.878004
0.865286
0.844322
0.822494
0.803881
0.789036
0.78551
0.785706
0.787152
0.786521
0.784445
0.781613
0.778728
0.777541
0.777872
0.781935
0.788221
0.793256
0.79799
0.804076
0.808623
0.813664
0.820326
0.828018
0.836463
0.845104
0.855505
0.868062
0.876286
0.882817
0.890543
0.903245
0.927478
0.96725
1.01656
1.06427
1.1021
1.12644
1.14252
1.1623
1.19915
1.27411
1.37078
1.40232
1.40469
1.40349
1.40206
1.40369
1.41161
1.41877
1.41798
1.41694
1.4175
1.41753
1.41643
1.41404
1.40988
1.40336
1.39742
1.39589
1.39576
1.39727
3.40231
3.09387
2.80478
2.52149
2.28121
2.07758
1.87128
1.67588
1.54657
1.44206
1.33304
1.22169
1.14577
1.07737
1.00745
0.931317
0.901626
0.879798
0.84544
0.793011
0.776686
0.769006
0.747213
0.723476
0.719652
0.72322
0.734573
0.752813
0.774016
0.803709
0.829572
0.847994
0.863735
0.878098
0.880656
0.881419
0.875459
0.865068
0.849363
0.830268
0.810487
0.798623
0.795393
0.795108
0.795336
0.796357
0.798794
0.802843
0.808444
0.812955
0.813903
0.813072
0.813652
0.816961
0.823068
0.833266
0.84638
0.858428
0.868739
0.878075
0.886392
0.894731
0.901141
0.907215
0.915791
0.933642
0.969235
1.02354
1.08504
1.13251
1.1563
1.16797
1.18065
1.20135
1.24265
1.32231
1.38883
1.39921
1.4002
1.39903
1.40012
1.406
1.41682
1.41955
1.41774
1.4162
1.41667
1.41751
1.41751
1.41587
1.41124
1.40354
1.39655
1.39452
1.39436
1.39619
3.50351
3.2093
2.94519
2.68632
2.4369
2.23565
2.05365
1.87201
1.71977
1.5904
1.46196
1.36112
1.29076
1.221
1.1328
1.03119
0.999173
0.973878
0.935394
0.880888
0.848133
0.828763
0.798225
0.757457
0.733599
0.73418
0.744548
0.740605
0.734565
0.742141
0.758865
0.783355
0.811005
0.837169
0.865202
0.88217
0.887558
0.887225
0.882401
0.868382
0.844501
0.818186
0.808456
0.806758
0.806911
0.810801
0.818699
0.82691
0.831408
0.832105
0.830016
0.826188
0.826911
0.830723
0.840769
0.860237
0.879143
0.889947
0.898859
0.904328
0.907435
0.912332
0.92029
0.929592
0.944134
0.973729
1.02479
1.08927
1.14089
1.16208
1.17367
1.18704
1.20695
1.24214
1.30408
1.36825
1.39156
1.39573
1.39663
1.39756
1.39959
1.40657
1.41602
1.41716
1.41622
1.41599
1.41786
1.41974
1.42001
1.41835
1.41253
1.40289
1.39475
1.39284
1.39272
1.39511
3.59361
3.31637
3.06231
2.81258
2.5841
2.3898
2.19605
2.01408
1.87532
1.75483
1.6177
1.48656
1.40666
1.33743
1.25418
1.15358
1.10884
1.07889
1.03581
0.968513
0.929204
0.911595
0.884032
0.83842
0.796088
0.789822
0.783342
0.765867
0.748968
0.733412
0.72362
0.725962
0.740845
0.772406
0.814163
0.861258
0.887716
0.888607
0.884832
0.87752
0.865948
0.845595
0.83315
0.830043
0.830137
0.835964
0.842724
0.845111
0.845155
0.84445
0.839912
0.838495
0.841109
0.848566
0.866615
0.891413
0.905192
0.915413
0.925984
0.928969
0.929577
0.93256
0.942125
0.959339
0.988453
1.03467
1.09455
1.1463
1.16865
1.17882
1.19039
1.20829
1.24194
1.30632
1.37105
1.38601
1.38784
1.39265
1.3957
1.39768
1.40027
1.40675
1.41391
1.41441
1.41411
1.41539
1.41994
1.42252
1.42291
1.42134
1.4138
1.40093
1.39237
1.39094
1.39084
1.39381
3.71616
3.44002
3.1933
2.95923
2.72414
2.5213
2.34763
2.17357
2.01287
1.88103
1.7465
1.62169
1.53669
1.46374
1.37339
1.25741
1.20322
1.17853
1.14245
1.07352
1.01607
0.987617
0.956523
0.907847
0.856429
0.843291
0.829768
0.80416
0.775517
0.747471
0.735678
0.734858
0.731397
0.734738
0.757486
0.80141
0.854138
0.876902
0.876637
0.875461
0.87177
0.864365
0.858194
0.855835
0.858858
0.868841
0.869535
0.865063
0.860302
0.855807
0.853064
0.854945
0.861403
0.874806
0.897292
0.915212
0.924437
0.933579
0.945491
0.954464
0.957891
0.963762
0.979566
1.00932
1.05198
1.1016
1.14845
1.17691
1.19034
1.20193
1.21727
1.24669
1.30832
1.37219
1.38797
1.3896
1.386
1.38559
1.38938
1.39386
1.40022
1.40924
1.41406
1.41501
1.41633
1.42044
1.4252
1.4262
1.42604
1.42288
1.41222
1.39693
1.38987
1.38915
1.38913
1.39362
3.80212
3.53827
3.28548
3.06235
2.8559
2.6585
2.46934
2.30205
2.15925
2.02921
1.88894
1.74222
1.64118
1.57879
1.50815
1.41435
1.32047
1.26673
1.22191
1.16049
1.10116
1.07103
1.04413
0.998669
0.933126
0.90931
0.895852
0.872487
0.840372
0.80172
0.777965
0.766488
0.750527
0.744805
0.746798
0.759791
0.791936
0.826174
0.844887
0.859005
0.868057
0.868515
0.866672
0.867575
0.876987
0.889607
0.893762
0.890813
0.884335
0.87928
0.879104
0.882662
0.892964
0.909869
0.925328
0.932716
0.937701
0.945233
0.957927
0.973239
0.985874
1.00093
1.02483
1.05948
1.10071
1.1397
1.16949
1.19102
1.20913
1.22776
1.25449
1.30524
1.36448
1.38362
1.38644
1.38416
1.37418
1.37316
1.3761
1.38339
1.39616
1.40982
1.41784
1.42167
1.42582
1.43074
1.43253
1.43172
1.42717
1.41871
1.40462
1.39069
1.38674
1.38663
1.38691
1.39352
3.92241
3.66144
3.41277
3.18055
2.9617
2.77312
2.60437
2.43291
2.26554
2.13487
2.01606
1.89278
1.77377
1.67477
1.60665
1.53671
1.45186
1.37634
1.31827
1.25314
1.18033
1.13885
1.11697
1.08832
1.03752
0.989288
0.958722
0.931137
0.900529
0.863431
0.825609
0.804053
0.785781
0.762959
0.756792
0.762609
0.775532
0.78971
0.801486
0.816775
0.840025
0.856106
0.863352
0.868791
0.879756
0.891566
0.900779
0.910571
0.912538
0.91394
0.918414
0.924215
0.932563
0.944021
0.947535
0.947821
0.94992
0.957227
0.972166
0.992872
1.01421
1.03573
1.06131
1.09455
1.13316
1.16633
1.18856
1.20683
1.2281
1.25697
1.30111
1.35132
1.37395
1.37829
1.37721
1.36716
1.36486
1.36687
1.37099
1.37915
1.39339
1.41157
1.42445
1.43167
1.43629
1.43836
1.43863
1.43572
1.42703
1.41174
1.39443
1.38699
1.38638
1.38652
1.3871
1.39532
4.05887
3.79195
3.555
3.32239
3.09993
2.90282
2.7264
2.55655
2.39962
2.26007
2.1306
2.0176
1.90034
1.78644
1.70712
1.6447
1.56895
1.47641
1.40081
1.34583
1.29014
1.23247
1.18579
1.15606
1.12098
1.07292
1.02548
0.992197
0.971377
0.944303
0.901883
0.867493
0.848125
0.823326
0.793794
0.788594
0.792819
0.7993
0.799572
0.800452
0.810236
0.826251
0.842384
0.859578
0.872269
0.885245
0.900965
0.914788
0.92361
0.93028
0.938499
0.948366
0.95929
0.969661
0.972629
0.971465
0.971819
0.977695
0.99329
1.01686
1.04355
1.07122
1.10236
1.1396
1.17792
1.20773
1.22719
1.24365
1.26622
1.30158
1.34202
1.3611
1.36404
1.36102
1.35058
1.34991
1.35612
1.36728
1.37838
1.39342
1.41402
1.43101
1.43818
1.44052
1.44094
1.43949
1.43718
1.43265
1.42074
1.40071
1.38741
1.38503
1.38507
1.3856
1.3867
1.39805
4.15592
3.94214
3.68689
3.45892
3.23701
3.04119
2.87081
2.69848
2.51917
2.3617
2.25074
2.1512
2.04504
1.91548
1.7886
1.733
1.68328
1.60945
1.50952
1.42126
1.37763
1.32747
1.27082
1.22529
1.19761
1.16161
1.10654
1.04827
1.02637
1.01132
0.980798
0.938119
0.911745
0.889281
0.853439
0.820241
0.815541
0.814957
0.808167
0.808072
0.813359
0.826709
0.842865
0.857617
0.872036
0.884058
0.895806
0.908594
0.920528
0.929179
0.938586
0.952777
0.969098
0.98251
0.991504
0.995842
1.00026
1.00793
1.02166
1.04397
1.0733
1.1069
1.14474
1.1855
1.22285
1.25323
1.27585
1.29341
1.31432
1.33996
1.35349
1.35639
1.35511
1.34724
1.34491
1.34761
1.35431
1.36724
1.39236
1.42218
1.44074
1.44679
1.44884
1.44986
1.44927
1.44291
1.43332
1.4214
1.40422
1.39011
1.38651
1.38589
1.38532
1.3856
1.38717
1.40239
4.06338
4.05618
3.85581
3.60158
3.37866
3.18668
2.99995
2.8282
2.66917
2.51411
2.35392
2.23738
2.16272
2.06552
1.93685
1.82039
1.75623
1.70364
1.62306
1.53349
1.47631
1.4294
1.36084
1.28523
1.26209
1.2437
1.20432
1.14236
1.0851
1.07001
1.0484
1.00583
0.971232
0.956492
0.935243
0.890315
0.864898
0.861668
0.854413
0.843121
0.842066
0.844705
0.849981
0.856281
0.863728
0.873301
0.884726
0.897988
0.91115
0.922926
0.935593
0.95203
0.971951
0.988917
0.999012
1.00528
1.01293
1.02421
1.03833
1.05722
1.08555
1.1227
1.16179
1.19955
1.23317
1.2609
1.28395
1.30319
1.32201
1.34391
1.35311
1.35373
1.35124
1.34917
1.3517
1.36037
1.37664
1.40354
1.4323
1.4447
1.44698
1.44815
1.4493
1.45033
1.44981
1.44318
1.42566
1.40266
1.3877
1.38409
1.38397
1.38443
1.38533
1.38693
1.39009
1.41058
3.26188
3.98666
3.97318
3.78796
3.53304
3.32848
3.15668
2.971
2.79046
2.65154
2.50927
2.36954
2.26191
2.17121
2.0636
1.93467
1.85672
1.80408
1.73171
1.63096
1.56245
1.52911
1.47387
1.38647
1.32718
1.30606
1.27509
1.22176
1.16568
1.14352
1.1226
1.08394
1.03128
1.01473
1.00134
0.967356
0.923332
0.911613
0.904675
0.890184
0.874832
0.873646
0.872576
0.871329
0.874049
0.881245
0.892757
0.906473
0.918961
0.929742
0.942464
0.959371
0.97705
0.989212
0.996193
1.0015
1.00903
1.02204
1.04012
1.06172
1.09022
1.12515
1.1612
1.19604
1.22756
1.25509
1.27954
1.30177
1.32276
1.33995
1.34677
1.34981
1.35312
1.35807
1.36688
1.38625
1.41841
1.44141
1.44705
1.44852
1.44958
1.45007
1.44805
1.44424
1.43823
1.42403
1.40008
1.38281
1.38011
1.38098
1.38215
1.38348
1.38575
1.3893
1.39493
1.42217
1.9219
3.29339
3.90947
3.89599
3.73369
3.49263
3.29164
3.11369
2.94858
2.79604
2.64443
2.49862
2.38553
2.29662
2.19429
2.05361
1.94468
1.89781
1.84386
1.75963
1.66473
1.60966
1.55918
1.47957
1.41079
1.38365
1.35439
1.30215
1.23937
1.21687
1.1982
1.1635
1.10907
1.07807
1.06482
1.03919
0.989855
0.967803
0.964728
0.95502
0.932212
0.923841
0.923006
0.916119
0.909333
0.909993
0.914056
0.920975
0.929127
0.93799
0.950275
0.965041
0.975762
0.982983
0.98763
0.991588
0.997819
1.01042
1.0315
1.06164
1.0948
1.12539
1.15069
1.17225
1.19455
1.22068
1.24964
1.27975
1.30897
1.3283
1.33599
1.3414
1.34865
1.36027
1.37748
1.40489
1.43228
1.44191
1.44503
1.44711
1.44869
1.44947
1.44754
1.43526
1.41244
1.39034
1.38051
1.37901
1.37974
1.38134
1.38364
1.38637
1.38997
1.39501
1.40357
1.43837
1.43275
1.96794
3.25634
3.85383
3.8219
3.67357
3.46694
3.26046
3.08469
2.94479
2.80323
2.64367
2.49069
2.40514
2.32386
2.20602
2.07452
1.996
1.93504
1.85887
1.7755
1.71515
1.65711
1.57761
1.48622
1.45674
1.43718
1.38906
1.32437
1.29799
1.27612
1.24326
1.187
1.14573
1.13283
1.11078
1.06343
1.03112
1.02767
1.02119
1
0.979558
0.978813
0.974659
0.958866
0.948646
0.947167
0.948095
0.95301
0.960989
0.971528
0.980618
0.987224
0.993417
0.998124
1.0012
1.0055
1.01641
1.03872
1.07108
1.10144
1.12146
1.13341
1.14264
1.15482
1.17278
1.19833
1.22902
1.25922
1.28689
1.30889
1.32439
1.33842
1.35715
1.38579
1.41157
1.42488
1.43061
1.43445
1.43687
1.43789
1.43567
1.42209
1.39668
1.37639
1.37194
1.37333
1.37571
1.37813
1.38191
1.38727
1.39293
1.39799
1.40369
1.41555
1.45859
1.40035
1.43993
1.95498
3.22429
3.73221
3.72972
3.65585
3.46178
3.24745
3.08322
2.94051
2.79341
2.6454
2.52786
2.43265
2.33027
2.20947
2.12071
2.0506
1.9658
1.87219
1.81224
1.75727
1.68309
1.5795
1.53745
1.52171
1.48158
1.41174
1.37691
1.35773
1.32889
1.27401
1.22202
1.20384
1.1827
1.13836
1.10147
1.09689
1.09255
1.07576
1.04507
1.03996
1.03752
1.02202
1.0026
0.998484
0.998983
1.00444
1.01009
1.01398
1.01611
1.01651
1.01675
1.01867
1.02111
1.02529
1.03718
1.06278
1.09085
1.10816
1.1136
1.11608
1.12105
1.13093
1.14471
1.16132
1.18165
1.20427
1.23075
1.26023
1.28743
1.31414
1.34621
1.38412
1.40779
1.41139
1.41287
1.41363
1.41326
1.40825
1.39515
1.37777
1.36954
1.37016
1.37139
1.37287
1.37579
1.38026
1.38624
1.39285
1.39936
1.40608
1.41512
1.43587
1.48727
1.40001
1.40049
1.43921
1.93574
3.04382
3.6189
3.71719
3.65337
3.45786
3.26132
3.09456
2.93174
2.78913
2.66647
2.56103
2.46717
2.34949
2.22799
2.15973
2.08818
1.98623
1.91192
1.8625
1.79738
1.68828
1.6216
1.60457
1.5712
1.51227
1.47406
1.4493
1.41662
1.35721
1.29282
1.27336
1.256
1.21698
1.17743
1.17166
1.16835
1.15443
1.12144
1.10458
1.09928
1.08338
1.06029
1.05567
1.0569
1.0653
1.06819
1.06561
1.06368
1.0596
1.05467
1.05426
1.05513
1.05993
1.07554
1.1019
1.11714
1.12206
1.12315
1.12423
1.12813
1.1358
1.14613
1.16011
1.17744
1.19743
1.2205
1.24862
1.279
1.30695
1.33723
1.36046
1.36895
1.37261
1.3743
1.37446
1.37374
1.36996
1.36494
1.36319
1.36454
1.36707
1.37095
1.37653
1.38409
1.39354
1.40137
1.40551
1.40768
1.41203
1.42534
1.46399
1.51941
1.40001
1.40001
1.4005
1.43464
1.85222
2.79432
3.56514
3.67084
3.62273
3.47366
3.28455
3.09146
2.94214
2.80179
2.66839
2.5852
2.50641
2.38316
2.26941
2.19915
2.10868
2.01913
1.96637
1.90627
1.8038
1.73216
1.704
1.66417
1.60049
1.56444
1.54291
1.51075
1.45005
1.3766
1.3513
1.33418
1.2974
1.25544
1.24886
1.24582
1.23176
1.20001
1.17344
1.16542
1.15141
1.12778
1.12241
1.12411
1.13226
1.13306
1.12798
1.12177
1.11397
1.10945
1.10933
1.11135
1.11952
1.13752
1.15126
1.15419
1.15396
1.15238
1.15338
1.15848
1.16592
1.17267
1.1805
1.19274
1.21067
1.2315
1.25339
1.27671
1.30085
1.3201
1.32861
1.33468
1.34126
1.34791
1.35365
1.35717
1.35985
1.36176
1.36299
1.36431
1.36631
1.37001
1.37722
1.3888
1.40057
1.40859
1.41478
1.42099
1.43114
1.45773
1.51596
1.55009
1.40001
1.40001
1.40001
1.40039
1.42574
1.71943
2.58999
3.47611
3.58347
3.54816
3.47592
3.29301
3.10068
2.95224
2.80595
2.68137
2.62942
2.54624
2.41913
2.3168
2.22415
2.13404
2.07631
2.01891
1.91599
1.84098
1.80783
1.76716
1.69983
1.65519
1.63512
1.60333
1.54151
1.46739
1.43908
1.42003
1.3831
1.33777
1.32919
1.32562
1.30998
1.27666
1.24431
1.234
1.22213
1.19806
1.19111
1.19366
1.20219
1.20159
1.19381
1.18143
1.17113
1.16806
1.16803
1.17051
1.18014
1.19576
1.20171
1.20186
1.19739
1.19154
1.19175
1.19492
1.19841
1.20077
1.20338
1.20967
1.22445
1.2448
1.2638
1.28213
1.30247
1.31878
1.32644
1.33214
1.33886
1.34642
1.35242
1.35615
1.35987
1.36405
1.36858
1.37367
1.38049
1.39117
1.40495
1.41385
1.41543
1.41447
1.41613
1.42485
1.45191
1.51061
1.57021
1.57307
1.40001
1.40001
1.40001
1.40001
1.40024
1.41492
1.61638
2.45708
3.22918
3.50333
3.53554
3.47859
3.29308
3.1233
2.966
2.81104
2.75124
2.67333
2.55919
2.45067
2.35058
2.2414
2.18463
2.13478
2.04533
1.95855
1.91191
1.86672
1.79527
1.75414
1.73375
1.69938
1.63535
1.55939
1.52821
1.50727
1.46919
1.42201
1.41278
1.40856
1.39035
1.35276
1.3195
1.30877
1.29756
1.27145
1.26206
1.26479
1.27258
1.27082
1.25841
1.24204
1.23525
1.23499
1.23761
1.24318
1.25026
1.25696
1.25834
1.25529
1.24878
1.24716
1.24926
1.25163
1.25265
1.25352
1.25518
1.26144
1.27597
1.29158
1.30278
1.31393
1.32536
1.33132
1.33366
1.33447
1.33856
1.3457
1.35237
1.35712
1.36065
1.3644
1.36962
1.37754
1.3895
1.40479
1.41721
1.42436
1.43001
1.43445
1.44223
1.46478
1.51896
1.58419
1.60524
1.58978
1.40001
1.40001
1.40001
1.40001
1.40001
1.40012
1.40827
1.56082
2.21691
2.92219
3.43771
3.48367
3.43747
3.29514
3.14646
3.00256
2.90967
2.80279
2.67332
2.57788
2.4827
2.35584
2.29525
2.25449
2.17799
2.07985
2.02374
1.97421
1.89374
1.85071
1.83291
1.80075
1.73583
1.65766
1.62278
1.59891
1.55545
1.50522
1.49625
1.49175
1.47077
1.42984
1.39777
1.38959
1.38129
1.35481
1.34488
1.34889
1.36099
1.36197
1.34788
1.33552
1.33636
1.34205
1.35216
1.36102
1.36122
1.35979
1.35741
1.348
1.33623
1.33199
1.32939
1.32576
1.32117
1.31814
1.31711
1.32077
1.33206
1.34128
1.34405
1.34695
1.35055
1.35334
1.35438
1.3485
1.34693
1.35189
1.35844
1.3651
1.37302
1.38238
1.39278
1.40432
1.4155
1.42186
1.42409
1.42619
1.43128
1.44643
1.47995
1.54072
1.6075
1.63083
1.63062
1.58181
1.40001
1.40001
1.40001
1.40001
1.40001
1.40001
1.40006
1.40475
1.49437
1.87166
2.57923
3.32313
3.36578
3.3152
3.30364
3.2313
3.08953
2.9516
2.7984
2.6903
2.6196
2.50078
2.39645
2.35734
2.30513
2.21541
2.14398
2.0844
1.99785
1.95044
1.93284
1.90154
1.83543
1.7523
1.71611
1.69179
1.64419
1.59082
1.58311
1.5835
1.56912
1.5357
1.51396
1.5183
1.53085
1.53761
1.55152
1.57274
1.61433
1.64092
1.64529
1.65238
1.6762
1.70725
1.7263
1.72689
1.72072
1.70944
1.68962
1.65891
1.6289
1.60704
1.58746
1.56525
1.53822
1.50746
1.47832
1.45408
1.43484
1.42231
1.41462
1.40846
1.40331
1.39912
1.39222
1.37985
1.37679
1.3803
1.3861
1.39287
1.40133
1.41161
1.42292
1.4342
1.4435
1.44953
1.45444
1.462
1.47836
1.51419
1.57708
1.63924
1.65752
1.65376
1.62683
1.51978
1.40001
1.40001
1.40001
1.40001
1.40001
1.40001
1.40001
1.40003
1.4017
1.43062
1.62954
2.35169
3.00911
3.21726
3.32114
3.34341
3.28594
3.15724
2.98298
2.79881
2.721
2.64596
2.54736
2.47463
2.40165
2.31219
2.25343
2.20378
2.11752
2.05155
2.03123
2.00225
1.93581
1.84511
1.80874
1.79436
1.76074
1.73332
1.7428
1.78872
1.85029
1.88651
1.91739
1.9597
2.03245
2.1141
2.15912
2.20153
2.25152
2.25807
2.25023
2.25165
2.26388
2.27863
2.2821
2.27311
2.25889
2.23786
2.20067
2.15278
2.11178
2.07914
2.04729
2.01317
1.97397
1.92643
1.8717
1.81449
1.75725
1.69908
1.63972
1.58151
1.5281
1.48064
1.43958
1.41507
1.41046
1.41217
1.41588
1.42086
1.42693
1.43368
1.44114
1.44934
1.45872
1.47052
1.48731
1.51463
1.5608
1.62594
1.67538
1.68454
1.67504
1.63555
1.54112
1.42792
1.40001
1.40001
1.40001
1.40001
1.40001
1.40001
1.40001
1.40001
1.40001
1.4003
1.40915
1.5398
2.08387
2.65993
3.08364
3.31157
3.31178
3.2707
3.16179
2.9952
2.85628
2.76408
2.679
2.59944
2.5258
2.41369
2.33175
2.30014
2.24574
2.16781
2.1354
2.11824
2.07858
2.0227
2.02447
2.07204
2.15641
2.2504
2.35666
2.51564
2.64731
2.70646