/*--------------------------------*- C++ -*----------------------------------*\
  =========                 |
  \\      /  F ield         | OpenFOAM: The Open Source CFD Toolbox
   \\    /   O peration     | Website:  https://openfoam.org
    \\  /    A nd           | Version:  7
     \\/     M anipulation  |
\*---------------------------------------------------------------------------*/
FoamFile
{
    version     2.0;
    format      ascii;
    class       volScalarField;
    location    "0.7";
    object      T;
}
// * * * * * * * * * * * * * * * * * * * * * * * * * * * * * * * * * * * * * //

dimensions      [0 0 0 1 0 0 0];

internalField   nonuniform List<scalar> 
4032
(
1
1
1
1
1
1
1
1
1
1
1
1
1
1
2.17929
2.86685
2.87602
2.88038
2.88537
2.89553
2.92977
3.02077
3.15876
3.24166
1
1
1
1
1
1
1
1
1
1
1
1
1
1
2.1582
2.86069
2.87324
2.87758
2.8823
2.89274
2.92744
3.01907
3.15626
3.23795
1
1
1
1
1
1
1
1
1
1
1
1
1
1
2.10588
2.85121
2.86689
2.87151
2.87672
2.88839
2.92411
3.01691
3.15392
3.23459
1
1
1
1
1
1
1
1
1
1
1
1
1
1
2.02059
2.82936
2.85237
2.8599
2.86802
2.88246
2.91878
3.01111
3.14747
3.2268
1
1
1
1
1
1
1
1
1
1
1
1
1
1
1.89776
2.78381
2.8277
2.84217
2.85625
2.87361
2.90765
2.99611
3.13095
3.21126
1
1
1
1
1
1
1
1
1
1
1
1
1
1
1.69847
2.69115
2.79224
2.81978
2.84333
2.86359
2.89381
2.97486
3.10402
3.17483
1
1
1
1
1
1
1
1
1
1
1
1
1
1
1.39117
2.54549
2.75994
2.80268
2.83126
2.84793
2.86768
2.93025
3.04784
3.12305
1
1
1
1
1
1
1
1
1
1
1
1
1
1
1.06206
2.3743
2.72886
2.78552
2.81421
2.82493
2.83315
2.87742
2.98961
3.10109
1
1
1
1
1
1
1
1
1
1
1
1
1
1
1.00069
2.17175
2.69488
2.76769
2.79159
2.79634
2.79165
2.80247
2.83148
2.81939
1
1
1
1
1
1
1
1
1
1
1
1
1
1
1
1.82316
2.61033
2.73565
2.75243
2.75248
2.73751
2.71372
2.69325
2.59925
1
1
1
1
1
1
1
1
1
1
1
1
1
1
1
1.27382
2.42919
2.69148
2.70057
2.69958
2.68051
2.64257
2.58341
2.44406
1
1
1
1
1
1
1
1
1
1
1
1
1
1
1
1.01374
2.1804
2.61603
2.65965
2.65423
2.63196
2.5929
2.5071
2.37918
1
1
1
1
1
1
1
1
1
1
1
1
1
1
1
1.00004
1.68743
2.48598
2.62354
2.6077
2.58322
2.54166
2.45721
2.34588
1
1
1
1
1
1
1
1
1
1
1
1
1
1
1
1
1.1064
2.27455
2.57334
2.55267
2.53414
2.49642
2.42765
2.33618
1
1
1
1
1
1
1
1
1
1
1
1
1
1
1
1
1.00198
1.8517
2.45928
2.52224
2.49999
2.46239
2.40269
2.32649
1
1
1
1
1
1
1
1
1
1
1
1
1
1
1
1
1
1.18905
2.23765
2.48846
2.4582
2.42531
2.37529
2.31321
1
1
1
1
1
1
1
1
1
1
1
1
1
1
1
1
1
1.00609
1.80126
2.361
2.41939
2.39056
2.35066
2.29924
1
1
1
1
1
1
1
1
1
1
1
1
1
1
1
1
1
1.00001
1.17744
2.11793
2.38787
2.35501
2.3175
2.27302
1
1
1
1
1
1
1
1
1
1
1
1
1
1
1
1
1
1
1.00529
1.55798
2.21056
2.32817
2.28225
2.24545
1
1
1
1
1
1
1
1
1
1
1
1
1
1
1
1
1
1
1.00002
1.07424
1.87266
2.25687
2.24104
2.20892
1
1
1
1
1
1
1
1
1
1
1
1
1
1
1
1
1
1
1
1.00111
1.28164
2.01409
2.21022
2.18375
1
1
1
1
1
1
1
1
1
1
1
1
1
1
1
1
1
1
1
1
1.015
1.50243
2.04487
2.15934
1
1
1
1
1
1
1
1
1
1
1
1
1
1
1
1
1
1
1
1
1.0001
1.06303
1.64189
2.03403
1
1
1
1
1
1
1
1
1
1
1
1
1
1
1
1
1
1
1
1
1
1.00098
1.13443
1.70792
1
1
1
1
1
1
1
1
1
1
1
1
1
1
1
1
1
1
1
1
1
1
1.00373
1.2026
1
1
1
1
1
1
1
1
1
1
1
1
1
1
1
1
1
1
1
1
1
1
1.00002
1.00864
1
1
1
1
1
1
1
1
1
1
1
1
1
1
1
1
1
1
1
1
1
1
1
1.00006
1
1
1
1
1
1
1
1
1
1
1
1
1
1
1
1
1
1
1
1
1
1
1
1
1
1
1
1
1
1
1
1
1
1
1
1
1
1
1
1
1
1
1
1
1
1
1
1
1
1
1
1
1
1
1
1
1
1
1
1
1
1
1
1
1
1
1
1
1
1
1
1
1
1
1
1
1
1
1
1
1
1
1
1
1
1
1
1
1
1
1
1
1
1
1
1
1
1
1
1
1
1
1
1
1
1
1
1
1
1
1
1
1
1
1
1
1
1
1
1
1
1
1
1
1
1
1
1
1
1
1
1
1
1
1
1
1
1
1
1
1
1
1
1
1
1
1
1
1
1
1
1
1
1
1
1
1
1
1
1
1
1
1
1
1
1
1
1
1
1
1
1
1
1
1
1
1
1
1
1
1
1
1
1
1
1
1
1
1
1
1
1
1
1
1
1
1
1
1
1
1
1
1
1
1
1
1
1
1
1
1
1
1
1
1
1
1
1
1
1
1
1
1
1
1
1
1
1
1
1
1
1
1
1
1
1
1
1
1
1
1
1
1
1
1
1
1
1
1
1
1
1
1
1
1
1
1
1
1
1
1
1
1
1
1
1
1
1
1
1
1
1
1
1
1
1
1
1
1
1
1
1
1
1
1
1
1
1
1
1
1
1
1
1
1
1
1
1
1
1
1
1
1
1
1
1
1
1
1
1
1
1
1.96497
1.44281
1.18912
1.17027
1.29965
1.48799
1.58224
1.7109
1.91236
1.95857
1.94961
1.93937
1.9655
2.03094
2.04081
2.03713
2.03334
2.03774
2.04028
2.03468
2.02426
2.00075
1.97318
1.96298
1.96238
1.96662
1.97556
1.97595
1.9651
1.93935
1.92193
1.91807
1.919
1.92908
1.93628
1.93542
1.93305
1.92704
1.91192
1.8897
1.874
1.87104
1.87169
1.8765
1.88375
1.88563
1.88444
1.87809
1.86343
1.84548
1.83729
1.83687
1.84178
1.85355
1.86446
1.86775
1.86703
1.86108
1.8424
1.80456
1.75289
1.71821
1.7098
1.7075
1.70609
1.70445
1.70122
1.69566
1.68685
1.67139
1.64406
1.60062
1.5403
1.46521
1.37454
1.26052
1.12649
1.02147
0.987841
0.985156
0.987893
0.995736
0.999473
1.00024
1.00031
0.999862
0.999448
0.999516
0.999656
0.999954
1.00094
1.0015
1.00153
1.00151
1.0014
1.00142
2.17059
1.93861
1.80993
1.57976
1.49664
1.50912
1.49948
1.50856
1.53852
1.5704
1.59581
1.62884
1.68232
1.75547
1.82016
1.85626
1.87422
1.89065
1.90098
1.90337
1.9036
1.9019
1.89003
1.8874
1.89028
1.90235
1.91621
1.91857
1.91375
1.89828
1.88955
1.8892
1.89052
1.89515
1.89631
1.89529
1.89376
1.89006
1.87919
1.86296
1.85048
1.84802
1.84882
1.85295
1.85907
1.85982
1.85859
1.85419
1.84501
1.83245
1.82654
1.82674
1.82856
1.83516
1.84357
1.84491
1.84444
1.84134
1.82719
1.79471
1.75023
1.71796
1.70134
1.69349
1.69003
1.68797
1.68562
1.68167
1.67487
1.66187
1.63671
1.59384
1.53227
1.45448
1.35896
1.23982
1.10676
1.0139
0.988848
0.987475
0.988903
0.993837
0.997111
0.998044
0.998714
0.998274
0.997997
0.998329
0.998983
0.999594
1.00046
1.00098
1.00107
1.00108
1.00107
1.00112
2.17917
1.99531
1.88022
1.77406
1.66611
1.59371
1.52405
1.44433
1.42634
1.41938
1.42278
1.44191
1.47905
1.51763
1.56841
1.61238
1.6438
1.67366
1.70013
1.71814
1.73777
1.75623
1.76283
1.77189
1.77878
1.78741
1.79177
1.79126
1.78649
1.78206
1.78291
1.78873
1.7987
1.80837
1.81435
1.815
1.81399
1.80862
1.79826
1.78887
1.78194
1.78055
1.78319
1.79187
1.79997
1.80046
1.7966
1.7892
1.78426
1.78007
1.78022
1.78575
1.79058
1.79497
1.79916
1.79769
1.79136
1.78729
1.77678
1.7525
1.72075
1.69721
1.67879
1.66347
1.65417
1.64808
1.64275
1.63676
1.62953
1.61882
1.59922
1.5633
1.50696
1.43177
1.33838
1.22409
1.09896
1.01198
0.991864
0.991757
0.992519
0.993396
0.994202
0.99665
0.999854
0.999955
0.999949
1.00058
1.00138
1.0014
1.00107
1.00105
1.00108
1.00105
1.00089
1.00091
2.19334
2.05344
1.93954
1.83102
1.75383
1.68364
1.61151
1.5297
1.49881
1.47374
1.43166
1.40173
1.40839
1.41174
1.41734
1.4349
1.46781
1.50218
1.53075
1.54896
1.56742
1.58889
1.60848
1.62673
1.64412
1.66013
1.66877
1.67072
1.66911
1.66907
1.67285
1.68148
1.69208
1.70185
1.71141
1.71687
1.71535
1.7062
1.69793
1.69365
1.68959
1.68872
1.69118
1.69963
1.71073
1.71604
1.71534
1.71166
1.70965
1.7081
1.70737
1.71064
1.7142
1.71542
1.7182
1.71903
1.71679
1.71547
1.70937
1.69423
1.67261
1.65236
1.63269
1.61077
1.59581
1.58547
1.57565
1.56478
1.55339
1.54078
1.52184
1.48888
1.43813
1.37197
1.29105
1.19281
1.08781
1.01574
0.994589
0.991514
0.990435
0.990193
0.99049
0.993525
0.998483
0.999904
1.00073
1.00218
1.00287
1.00284
1.00206
1.00116
1.00095
1.00078
1.00048
1.00046
2.20672
2.08578
1.9907
1.8975
1.81004
1.73618
1.66902
1.60075
1.56751
1.53263
1.48467
1.42924
1.41661
1.39996
1.37654
1.38144
1.39579
1.40926
1.42035
1.43508
1.45081
1.47008
1.49177
1.50921
1.52603
1.54147
1.55539
1.5675
1.57725
1.59136
1.60862
1.6217
1.6264
1.62735
1.62977
1.63189
1.62816
1.61358
1.60896
1.60797
1.60691
1.60816
1.61259
1.61908
1.62662
1.6299
1.62901
1.6282
1.62858
1.62929
1.62997
1.63265
1.63374
1.63213
1.63228
1.63197
1.63182
1.63087
1.62754
1.62151
1.61152
1.59806
1.57695
1.55084
1.53082
1.51466
1.49909
1.48364
1.46822
1.45055
1.42558
1.38942
1.34289
1.28814
1.22392
1.14821
1.07306
1.02055
0.995641
0.988279
0.986573
0.986719
0.988432
0.993198
0.997781
1.00006
1.00209
1.00371
1.00419
1.00422
1.00359
1.0018
1.00069
1.00033
0.999969
0.999943
2.22528
2.12026
2.02458
1.93588
1.85724
1.79679
1.73106
1.6516
1.60851
1.57545
1.54126
1.49805
1.47512
1.45075
1.41244
1.3861
1.38942
1.39015
1.38096
1.36971
1.36991
1.37565
1.38934
1.40509
1.42685
1.45151
1.47493
1.49259
1.50588
1.52202
1.54212
1.56404
1.58623
1.58691
1.58448
1.58011
1.57098
1.55223
1.54427
1.54447
1.5451
1.54919
1.55694
1.56218
1.56535
1.56566
1.56341
1.5622
1.56181
1.56172
1.56304
1.56502
1.5658
1.56393
1.5625
1.56212
1.5615
1.55921
1.55635
1.55334
1.54817
1.53825
1.51799
1.49344
1.47204
1.45223
1.43235
1.41209
1.38998
1.36267
1.32833
1.28851
1.24495
1.19884
1.15028
1.1001
1.0553
1.01755
0.994021
0.98747
0.986315
0.986407
0.987954
0.993235
0.998003
1.00103
1.00376
1.00506
1.00531
1.00532
1.00474
1.00249
1.00028
0.999589
0.999259
0.999292
2.23408
2.14265
2.05875
1.97649
1.89599
1.83384
1.77402
1.70959
1.66136
1.62283
1.57713
1.53304
1.5126
1.48983
1.45717
1.4131
1.39916
1.38765
1.36657
1.34622
1.3427
1.34299
1.33534
1.33237
1.3402
1.3621
1.39374
1.42465
1.44722
1.46679
1.48877
1.51005
1.53032
1.54678
1.54805
1.54389
1.53321
1.52015
1.50759
1.50152
1.50248
1.50614
1.51244
1.51652
1.51779
1.51774
1.51696
1.51568
1.51491
1.51569
1.51606
1.5143
1.5097
1.50678
1.50495
1.50438
1.50374
1.50284
1.50195
1.49912
1.49176
1.47883
1.45916
1.43779
1.41734
1.39728
1.37706
1.35513
1.32801
1.29344
1.25246
1.20758
1.16283
1.12257
1.08829
1.06079
1.03772
1.01081
0.9918
0.986389
0.985793
0.986107
0.989095
0.994859
0.998693
1.00186
1.00485
1.00601
1.00615
1.0061
1.00536
1.00283
0.99985
0.998803
0.998549
0.998657
2.23764
2.16156
2.0842
2.00393
1.9343
1.8748
1.81012
1.74282
1.69906
1.66319
1.62396
1.58087
1.55258
1.52329
1.49077
1.45219
1.43743
1.42363
1.40053
1.3666
1.35187
1.3433
1.32268
1.3067
1.30669
1.31211
1.32708
1.34905
1.37574
1.40831
1.43412
1.45238
1.47001
1.48779
1.50079
1.50678
1.50421
1.49897
1.49048
1.48122
1.47264
1.4717
1.47301
1.47469
1.47601
1.4777
1.47966
1.48043
1.48063
1.47975
1.47557
1.46821
1.46177
1.4578
1.4562
1.45652
1.45845
1.45908
1.45793
1.45227
1.43966
1.42231
1.40269
1.38303
1.36402
1.34658
1.32955
1.30859
1.27851
1.23622
1.18558
1.13643
1.09623
1.06616
1.0465
1.03611
1.0246
1.00484
0.990709
0.986495
0.986171
0.986816
0.990874
0.995778
0.999087
1.00254
1.00572
1.00696
1.0071
1.00687
1.00559
1.00247
0.999228
0.998164
0.997999
0.998171
2.23503
2.16792
2.10223
2.03227
1.96092
1.90184
1.84597
1.78742
1.73805
1.69518
1.64951
1.61449
1.59171
1.56578
1.52821
1.47787
1.46206
1.44752
1.42387
1.38897
1.36505
1.35003
1.32855
1.29894
1.29306
1.2966
1.31257
1.31816
1.32503
1.33874
1.35548
1.37554
1.39616
1.41452
1.43575
1.45444
1.46898
1.47223
1.47081
1.4651
1.45464
1.4426
1.44023
1.43984
1.43999
1.44289
1.44741
1.44858
1.44675
1.43985
1.43017
1.42188
1.41743
1.41459
1.41457
1.4195
1.42432
1.42302
1.41732
1.40492
1.38531
1.36448
1.34632
1.32899
1.31314
1.30048
1.28753
1.26618
1.22822
1.17508
1.12256
1.08079
1.05156
1.03533
1.03015
1.02686
1.0161
1.0008
0.991474
0.988192
0.98743
0.988159
0.992001
0.996095
0.999468
1.00323
1.00666
1.00779
1.00792
1.00755
1.0057
1.00186
0.998456
0.997578
0.997496
0.997758
2.22064
2.16459
2.10734
2.04583
1.98474
1.92916
1.8701
1.81242
1.77015
1.73411
1.68967
1.64392
1.61719
1.59139
1.55762
1.51248
1.49138
1.47567
1.45122
1.41009
1.38516
1.37497
1.35912
1.33004
1.31016
1.3133
1.31517
1.31256
1.31073
1.30784
1.30123
1.30195
1.31142
1.33344
1.36152
1.39319
1.42213
1.43388
1.43411
1.43359
1.4302
1.42074
1.41538
1.41365
1.41336
1.41637
1.41836
1.41654
1.40788
1.39486
1.3829
1.37714
1.37504
1.37453
1.37815
1.38668
1.38746
1.38333
1.37341
1.35699
1.3341
1.3116
1.29497
1.28133
1.27075
1.26242
1.24932
1.21993
1.17139
1.11921
1.07623
1.0455
1.02879
1.02653
1.02679
1.01999
1.00705
0.999073
0.994136
0.991031
0.989837
0.9903
0.993245
0.996832
1.00007
1.00379
1.00703
1.00822
1.00843
1.0081
1.00576
1.00107
0.997805
0.997151
0.997065
0.997357
2.20274
2.15575
2.1087
2.05958
2.00175
1.94633
1.89635
1.8455
1.79908
1.76041
1.71777
1.6763
1.64807
1.62161
1.58529
1.53327
1.50802
1.49616
1.47781
1.44016
1.40923
1.39649
1.38214
1.35666
1.32962
1.32902
1.32591
1.31453
1.30178
1.29143
1.28571
1.28205
1.27685
1.27886
1.29377
1.32335
1.36128
1.38392
1.39124
1.39644
1.39647
1.39419
1.39122
1.38937
1.38993
1.39306
1.39196
1.38437
1.37097
1.35372
1.3403
1.33697
1.33653
1.3379
1.34494
1.34801
1.34483
1.3361
1.32484
1.30995
1.28869
1.26802
1.25441
1.24494
1.23729
1.22683
1.20494
1.16637
1.12014
1.07853
1.04653
1.02872
1.02588
1.02571
1.0192
1.00846
1.00069
0.997335
0.994964
0.992916
0.992726
0.993823
0.996406
0.999146
1.002
1.00528
1.00783
1.00874
1.00886
1.00818
1.00496
0.999821
0.997312
0.99693
0.996866
0.997323
2.17652
2.13837
2.09691
2.05351
2.00776
1.95914
1.9083
1.8638
1.82726
1.7921
1.75025
1.70166
1.66566
1.64246
1.61475
1.57623
1.53492
1.51001
1.48892
1.45931
1.43188
1.42133
1.41168
1.39191
1.3588
1.35037
1.34602
1.33458
1.31753
1.29754
1.28427
1.27613
1.26562
1.26021
1.26107
1.26936
1.29197
1.31893
1.33704
1.34972
1.35743
1.35966
1.35866
1.35848
1.36151
1.36317
1.36234
1.35511
1.3411
1.32374
1.30983
1.30417
1.30359
1.30592
1.30864
1.30596
1.29597
1.28399
1.2734
1.26132
1.2453
1.22971
1.21797
1.20864
1.1985
1.18169
1.15325
1.11662
1.08048
1.05031
1.03028
1.02375
1.02232
1.01629
1.00708
1.00053
0.996229
0.994509
0.993178
0.992674
0.993776
0.997233
1.00077
1.0032
1.0056
1.008
1.00924
1.00936
1.0088
1.00678
1.00242
0.997933
0.996593
0.996481
0.996482
0.997202
2.15303
2.11993
2.08396
2.04496
2.00168
1.95929
1.92008
1.87707
1.83276
1.79946
1.76878
1.7326
1.69194
1.65392
1.62696
1.59873
1.56327
1.53201
1.50928
1.48309
1.45222
1.43673
1.43021
1.42038
1.39873
1.37602
1.36113
1.34691
1.32954
1.30721
1.28389
1.27129
1.26055
1.24742
1.24719
1.25129
1.26084
1.27183
1.28037
1.29086
1.30555
1.31591
1.32061
1.32158
1.32384
1.32487
1.32399
1.32132
1.31299
1.30067
1.29044
1.28142
1.27496
1.27324
1.27008
1.26035
1.24671
1.23481
1.22532
1.21558
1.20401
1.19152
1.17987
1.16956
1.15789
1.13964
1.11227
1.08069
1.05263
1.03278
1.02293
1.01845
1.01196
1.00441
0.999309
0.995395
0.994116
0.993455
0.992979
0.993342
0.995911
1.00075
1.00468
1.00718
1.00901
1.01013
1.01052
1.01021
1.0085
1.00437
0.999182
0.99687
0.996623
0.996621
0.996672
0.997684
2.13041
2.09533
2.06552
2.03316
1.99642
1.95848
1.92027
1.88158
1.84439
1.81076
1.77637
1.74416
1.70694
1.66688
1.63792
1.61482
1.58699
1.5518
1.52315
1.50357
1.48364
1.46238
1.44474
1.43386
1.41939
1.39714
1.37389
1.35626
1.34369
1.32716
1.30199
1.28344
1.27385
1.26086
1.24803
1.24785
1.25048
1.25384
1.25192
1.25074
1.25532
1.26342
1.2715
1.28016
1.2823
1.28382
1.28413
1.2824
1.27731
1.26848
1.25929
1.25083
1.24324
1.2379
1.23212
1.22116
1.20653
1.19378
1.18402
1.17498
1.16569
1.15637
1.14785
1.13987
1.12919
1.11167
1.08708
1.06029
1.03853
1.0258
1.01849
1.01037
1.00155
0.995108
0.991446
0.991193
0.991939
0.993743
0.995941
0.999429
1.00434
1.00814
1.00969
1.01032
1.01054
1.01036
1.01014
1.0094
1.00644
1.0009
0.997128
0.996423
0.996413
0.996497
0.996716
0.998387
2.10999
2.07787
2.04211
2.01324
1.98218
1.95107
1.92032
1.88655
1.84703
1.80899
1.78003
1.75286
1.72249
1.68151
1.63677
1.6192
1.60501
1.5818
1.54729
1.51359
1.49845
1.48092
1.46103
1.44376
1.43227
1.41621
1.38956
1.35794
1.34481
1.33614
1.3203
1.2992
1.28735
1.27699
1.25954
1.24332
1.24044
1.23941
1.2347
1.22988
1.23082
1.23532
1.24122
1.24651
1.25005
1.24944
1.24694
1.24276
1.23681
1.22772
1.2178
1.21055
1.20463
1.19925
1.19359
1.18482
1.17316
1.16081
1.14964
1.14051
1.13276
1.12624
1.12108
1.11541
1.1057
1.09029
1.07077
1.05029
1.03335
1.02166
1.01191
1.00323
0.996098
0.991247
0.990381
0.990653
0.99157
0.994544
1.00134
1.00898
1.01279
1.01338
1.01337
1.01331
1.01301
1.0114
1.00922
1.00625
1.00159
0.997789
0.996941
0.996824
0.996636
0.996658
0.99698
0.99942
1.9988
2.0607
2.0314
1.99283
1.96209
1.93664
1.90967
1.88122
1.8515
1.81789
1.77665
1.74369
1.72279
1.69573
1.65659
1.62031
1.60252
1.58983
1.56642
1.53566
1.51515
1.499
1.47379
1.44305
1.43363
1.42555
1.40687
1.37656
1.3473
1.33955
1.32936
1.30962
1.29486
1.28982
1.28089
1.26
1.24664
1.24246
1.23583
1.22688
1.22003
1.21716
1.21584
1.21549
1.21499
1.21352
1.2101
1.20463
1.19721
1.18824
1.17925
1.17194
1.16639
1.16126
1.15482
1.14627
1.13656
1.12631
1.1152
1.1049
1.09784
1.09358
1.08949
1.08328
1.07309
1.05947
1.04521
1.03186
1.02035
1.01212
1.00523
0.999469
0.994856
0.992995
0.99323
0.99477
0.998779
1.00619
1.01341
1.01545
1.01519
1.01429
1.01365
1.01358
1.01338
1.01175
1.00731
1.00108
0.996991
0.996143
0.996198
0.996475
0.996763
0.997113
0.997842
1.00153
1.72325
1.95765
2.01231
1.98698
1.94613
1.91777
1.89688
1.87125
1.84156
1.8147
1.78258
1.74642
1.71664
1.69188
1.66387
1.62831
1.60862
1.59703
1.57846
1.54774
1.52343
1.51125
1.49046
1.45771
1.43442
1.42426
1.40917
1.38425
1.35763
1.34786
1.33903
1.32276
1.30017
1.29481
1.28975
1.27505
1.25431
1.24447
1.23624
1.22386
1.21143
1.20464
1.19955
1.19475
1.19177
1.18898
1.18509
1.17921
1.17078
1.16045
1.15043
1.14165
1.13339
1.1253
1.1169
1.10754
1.09777
1.08874
1.07989
1.07107
1.06457
1.0604
1.05614
1.04968
1.04027
1.03006
1.02146
1.01476
1.0093
1.0046
0.999919
0.997147
0.996512
0.996667
0.998244
1.00339
1.01193
1.01697
1.0175
1.01712
1.0161
1.01486
1.01319
1.01185
1.01037
1.00687
1.00044
0.995564
0.994862
0.995225
0.995765
0.996258
0.996875
0.997728
0.999183
1.0047
1.24565
1.71063
1.91128
1.96628
1.94379
1.90701
1.87851
1.85465
1.83093
1.80605
1.7761
1.7423
1.71411
1.69307
1.66931
1.63373
1.60563
1.59653
1.58537
1.56443
1.53496
1.51346
1.49318
1.46416
1.43897
1.42751
1.41437
1.39132
1.36383
1.35452
1.34655
1.33204
1.30996
1.29874
1.294
1.28336
1.2622
1.24803
1.24063
1.22951
1.21359
1.20346
1.19794
1.1898
1.18171
1.17401
1.16563
1.15632
1.14599
1.13468
1.12362
1.11285
1.10173
1.09171
1.08251
1.07254
1.06199
1.0533
1.04686
1.04205
1.03746
1.03265
1.02614
1.01599
1.00585
1.00144
0.999677
0.99923
0.999126
0.998342
0.996055
0.995144
0.995581
0.997992
1.00253
1.00971
1.01597
1.0171
1.01706
1.01655
1.01543
1.01433
1.01284
1.00945
1.00376
0.997809
0.994981
0.994565
0.994807
0.995378
0.996175
0.997018
0.997997
0.99931
1.00166
1.0093
1.01375
1.26017
1.68282
1.87238
1.91997
1.9024
1.87197
1.83679
1.8097
1.7905
1.76824
1.73795
1.70449
1.68694
1.66955
1.64304
1.6114
1.59433
1.58116
1.56277
1.5409
1.52102
1.49927
1.4703
1.43703
1.42551
1.41736
1.39784
1.37176
1.36117
1.35195
1.33864
1.31628
1.30126
1.29729
1.28857
1.26938
1.25227
1.24374
1.23378
1.21736
1.20283
1.19647
1.18912
1.17692
1.16533
1.15313
1.14087
1.12951
1.11769
1.10545
1.09241
1.07993
1.07019
1.06164
1.05192
1.04109
1.0323
1.02641
1.02196
1.01638
1.00916
1.00009
0.987904
0.977544
0.975905
0.976508
0.978586
0.981518
0.984767
0.987725
0.990424
0.993679
0.998501
1.00571
1.01133
1.01347
1.01386
1.01381
1.01314
1.01192
1.00986
1.00566
0.999213
0.993876
0.992644
0.99306
0.993724
0.994402
0.995525
0.997134
0.9988
1.00023
1.00181
1.00515
1.01522
1.00011
1.0167
1.25075
1.65554
1.819
1.87378
1.86409
1.8332
1.79612
1.77111
1.75236
1.73109
1.70557
1.68205
1.66212
1.63918
1.61137
1.59309
1.57949
1.56106
1.53763
1.52048
1.50203
1.47593
1.43904
1.4234
1.41741
1.40298
1.37741
1.3639
1.35582
1.34428
1.32322
1.30454
1.29877
1.29068
1.27352
1.25617
1.24673
1.23761
1.22276
1.20474
1.19636
1.1897
1.17722
1.1627
1.14944
1.13704
1.12576
1.11278
1.09765
1.08199
1.06729
1.0552
1.046
1.03667
1.02684
1.01904
1.0141
1.00865
1.00008
0.988962
0.978117
0.968292
0.960707
0.958375
0.958516
0.959838
0.962447
0.966842
0.97322
0.980019
0.987216
0.995612
1.00472
1.00928
1.00921
1.00865
1.00764
1.00593
1.00286
0.998439
0.993763
0.991737
0.992084
0.992652
0.99311
0.993839
0.995012
0.99672
0.998672
1.00058
1.0025
1.00507
1.01091
1.02373
1
1.00015
1.0163
1.23705
1.59196
1.76732
1.83776
1.82977
1.7983
1.76535
1.74098
1.71954
1.69944
1.67744
1.65567
1.63575
1.60969
1.58259
1.57109
1.55829
1.53592
1.51776
1.50305
1.48147
1.44391
1.42054
1.41477
1.40339
1.38343
1.37011
1.3608
1.34825
1.32592
1.30322
1.29711
1.29051
1.27572
1.25871
1.24901
1.24041
1.22713
1.20855
1.19655
1.18843
1.17556
1.15991
1.14657
1.1347
1.12442
1.11109
1.09344
1.07691
1.06151
1.04789
1.0374
1.02785
1.01891
1.0129
1.00868
1.00143
0.990398
0.978887
0.969573
0.961773
0.955362
0.953937
0.954516
0.956315
0.95925
0.963519
0.970057
0.977929
0.984961
0.99206
0.996588
0.997738
0.997624
0.997048
0.995895
0.994189
0.991941
0.990264
0.98984
0.99038
0.991398
0.992688
0.994216
0.996205
0.998803
1.00107
1.00231
1.00298
1.00425
1.00807
1.01879
1.03341
1
1
1.00016
1.01434
1.19768
1.50735
1.73661
1.80699
1.79727
1.76912
1.73922
1.71235
1.69308
1.66966
1.64293
1.62629
1.61075
1.5839
1.5595
1.54881
1.53239
1.51372
1.50053
1.48195
1.44817
1.42423
1.41517
1.40245
1.38169
1.37032
1.36314
1.3516
1.33017
1.30524
1.29669
1.29004
1.27603
1.25893
1.24941
1.24138
1.22863
1.21131
1.19667
1.18721
1.17524
1.16028
1.14754
1.13604
1.12567
1.11168
1.09355
1.07648
1.06067
1.04769
1.03809
1.02961
1.02228
1.01682
1.01006
0.999526
0.987566
0.977141
0.970131
0.964749
0.960162
0.958904
0.959182
0.960469
0.963098
0.966817
0.971612
0.977329
0.982646
0.985748
0.986404
0.987085
0.988291
0.989362
0.989427
0.989206
0.989192
0.989401
0.989834
0.990532
0.991404
0.992538
0.994461
0.997591
1.00089
1.00317
1.00494
1.0067
1.0096
1.01722
1.03296
1.04273
1
1
1
1.00012
1.01028
1.13788
1.44768
1.71627
1.75061
1.74861
1.74039
1.71415
1.68627
1.66514
1.63961
1.61382
1.60421
1.58648
1.55881
1.5398
1.52475
1.50914
1.49772
1.48234
1.44995
1.42457
1.41409
1.40249
1.38318
1.36993
1.36299
1.35165
1.33084
1.30669
1.29703
1.28974
1.27619
1.25891
1.24943
1.24185
1.22931
1.21236
1.1963
1.1859
1.17507
1.16089
1.14849
1.13771
1.12787
1.11369
1.09542
1.07746
1.0616
1.05002
1.04152
1.03407
1.02791
1.02227
1.01394
1.00307
0.991524
0.982016
0.976066
0.971864
0.96816
0.9658
0.965331
0.965598
0.967427
0.970965
0.97461
0.978198
0.98211
0.984579
0.985199
0.985905
0.987292
0.988791
0.989041
0.988955
0.989166
0.990072
0.991642
0.993488
0.995628
0.998623
1.00238
1.00481
1.00525
1.00496
1.00542
1.00787
1.01554
1.03202
1.04766
1.04981
1
1
1
1
1.00007
1.00561
1.09297
1.41593
1.62954
1.68549
1.72066
1.71437
1.689
1.66588
1.64216
1.61136
1.5976
1.58039
1.55624
1.53739
1.5222
1.50344
1.4934
1.48085
1.4538
1.42615
1.41252
1.40103
1.3823
1.37082
1.3638
1.35176
1.33067
1.30655
1.29622
1.28856
1.2752
1.25814
1.24935
1.24236
1.23003
1.21285
1.1967
1.18633
1.17634
1.16257
1.15041
1.14015
1.13076
1.11678
1.09831
1.08072
1.06694
1.05752
1.0509
1.04487
1.03866
1.03141
1.02225
1.01159
1.00218
0.995397
0.990792
0.986669
0.983473
0.981521
0.980964
0.981272
0.983105
0.985069
0.985842
0.98671
0.987789
0.987577
0.986578
0.986174
0.987016
0.988367
0.988892
0.989118
0.989487
0.990484
0.99229
0.994828
0.998261
1.00246
1.00584
1.0078
1.00933
1.01054
1.01273
1.01913
1.03433
1.05184
1.05703
1.05578
1
1
1
1
1
1.00003
1.00299
1.07008
1.33321
1.51655
1.63506
1.69726
1.69528
1.67565
1.65012
1.61907
1.59709
1.57307
1.54845
1.53656
1.52492
1.50283
1.48982
1.47851
1.45589
1.42779
1.4138
1.40256
1.38254
1.3703
1.36366
1.35239
1.33172
1.30793
1.29699
1.28883
1.27446
1.25725
1.24918
1.24284
1.23073
1.2139
1.19851
1.18937
1.18099
1.16797
1.15643
1.14745
1.13997
1.12841
1.11136
1.09675
1.08709
1.08142
1.07703
1.07226
1.06506
1.05587
1.04626
1.03588
1.02676
1.01992
1.01367
1.00806
1.00392
1.00102
0.999051
0.9987
0.999071
0.99909
0.997855
0.996151
0.994933
0.9938
0.992438
0.989548
0.989077
0.989948
0.990522
0.991349
0.99324
0.996171
0.999428
1.00272
1.00572
1.00735
1.0079
1.00844
1.0098
1.01399
1.0234
1.04031
1.0581
1.06392
1.06373
1.05577
1
1
1
1
1
1
1.00002
1.0017
1.04068
1.19544
1.40252
1.61495
1.66578
1.65979
1.6523
1.632
1.59938
1.57233
1.54664
1.53479
1.52889
1.50908
1.48445
1.47186
1.45585
1.4325
1.41706
1.40485
1.38425
1.37057
1.36338
1.35231
1.33231
1.3088
1.29809
1.29014
1.27551
1.25858
1.25119
1.24694
1.2379
1.22515
1.21371
1.20957
1.20893
1.20802
1.20704
1.20606
1.20799
1.20625
1.19775
1.19085
1.19135
1.19108
1.18808
1.18105
1.1706
1.15905
1.14565
1.13048
1.11679
1.1052
1.09368
1.082
1.07056
1.05936
1.04882
1.03905
1.03012
1.02314
1.01796
1.01361
1.0099
1.0067
1.00292
0.998464
0.997316
0.997711
0.998101
0.999051
1.00131
1.00458
1.00795
1.01099
1.0134
1.01498
1.01631
1.0184
1.02297
1.03296
1.05025
1.0665
1.07096
1.0699
1.06263
1.03917
1
1
1
1
1
1
1
1.00001
1.00059
1.01189
1.09284
1.34932
1.5523
1.6049
1.62743
1.62522
1.61067
1.5886
1.56362
1.53742
1.5267
1.51253
1.48928
1.46945
1.45093
1.43031
1.41916
1.40964
1.38979
1.37181
1.3637
1.35352
1.33442
1.3106
1.30069
1.29588
1.2862
1.27654
1.27853
1.29095
1.3098
1.32023
1.3268
1.3346
1.34873
1.36384
1.36419
1.36728
1.36738
1.36091
1.34804
1.33916
1.33233
1.32524
1.31817
1.307
1.29478
1.28237
1.26808
1.25247
1.23813
1.22507
1.21175
1.19843
1.18523
1.17111
1.15528
1.13804
1.12011
1.10172
1.08302
1.06444
1.04684
1.03094
1.01739
1.00908
1.0069
1.00673
1.0067
1.00728
1.00895
1.0111
1.01326
1.0154
1.01781
1.02096
1.02558
1.03313
1.04583
1.06332
1.07585
1.07801
1.07546
1.06514
1.04031
1.00967
1
1
1
1
1
1
1
1
1
1.00009
1.00328
1.05693
1.27517
1.44331
1.53546
1.58109
1.60129
1.59739
1.58463
1.55865
1.5318
1.51016
1.48851
1.46991
1.455
1.43246
1.41611
1.41001
1.39764
1.378
1.36775
1.36141
1.34999
1.33894
1.34245
1.3601
1.38691
1.41272
1.43941
1.4757
1.49992
1.50228
1.4969
1.49378
1.49354
1.48629
1.47189
1.46229
1.45439
1.44253
1.42714
1.41262
1.40062
1.38979
1.3778
1.36428
1.3511
1.33833
1.32505
1.313
1.30248
1.29148
1.28012
1.26973
1.25976
1.24863
1.23534
1.22085
1.20658
1.19269
1.17788
1.1602
1.13789
1.11074
1.08247
1.05939
1.04386
1.03407
1.02844
1.0262
1.02605
1.02682
1.0284
1.03072
1.03417
1.03969
1.0488
1.06274
1.07782
1.08475
1.08463
1.07935
1.06465
1.03441
1.00659
1.00021
1
1
1
1
1
1
1
1
1
1
1.00002
1.00151
1.03029
1.14425
1.30105
1.45962
1.53252
1.57376
1.57286
1.56559
1.54828
1.52302
1.4965
1.47181
1.45743
1.44136
1.42233
1.41526
1.41153
1.40559
1.41315
1.43491
1.47094
1.51157
1.54396
1.57365
1.59205
1.59191
1.59501
1.59258
1.58393
1.56166
1.53472
1.51937
1.50835
1.49374
1.47589
1.45791
1.4417
1.42735
1.41351
1.40085
1.39001
1.37922
1.36727
1.35423
1.3414
1.32762
1.31359
1.30392
1.29595
1.28789
1.2797
1.2717
1.26346
1.25435
1.24459
1.23533
1.22775
1.22124
1.21439
1.20589
1.19469
1.18021
1.16242
1.14138
1.11738
1.09396
1.07346
1.05749
1.04816
1.04533
1.04571
1.04912
1.05639
1.06785
1.08154
1.09098
1.09266
1.08991
1.08071
1.05922
1.0248
1.00314
1.00006
1
1
1
1
1
1
1
1
1
1
1
1
1.00001
1.00041
1.00718
1.04362
1.18634
1.37084
1.48646
1.52309
1.54085
1.53785
1.53017
1.51437
1.49734
1.48616
1.48644
1.49212
1.508
1.53675
1.5809
1.62067
1.65562
1.69083
1.70154
1.70301
1.70042
1.69342
1.68003
1.66067
1.64005
1.61945
1.59437
1.57025
1.55407
1.5393
1.52285
1.50366
1.48226
1.46161
1.44333
1.42771
1.41352
1.39997
1.38666
1.37291
1.3579
1.34182
1.32771
1.32079
1.31591
1.31063
1.3045
1.29817
1.29159
1.2842
1.27608
1.2684
1.26232
1.25776
1.25374
1.24948
1.24412
1.23709
1.22873
1.21968
1.20921
1.19499
1.17622
1.1567
1.13631
1.11592
1.09909
1.09025
1.0891
1.09277
1.09912
1.10112
1.09925
1.09223
1.07713
1.04722
1.01371
1.00101
1.00001
1
1
1
1
1
1
1
1
1
1
1
1
1
1
1
1.00004
1.00079
1.01511
1.09145
1.24973
1.38204
1.46549
1.49551
1.52588
1.56358
1.60122
1.63596
1.66502
1.69276
1.70343
1.72151
1.73723
1.72759
1.7186
1.71359
1.70107
1.6882
1.68439
1.67621
1.65927
1.63753
1.61231
1.58458
1.55329
1.5312
1.51782
1.50434
1.48849
1.46917
1.44719
1.42771
1.4137
1.40246
1.39194
1.38109
1.36838
1.35237
1.33483
1.3192
1.30749
1.30017
1.29506
1.29013
1.28454
1.27814
1.2706
1.26168
1.25195
1.24367
1.23911
1.23619
1.23437
1.23348
1.23241
1.23038
1.22662
1.21983
1.21064
1.20466
1.20031
1.19546
1.19027
1.18454
1.17685
1.16568
1.15042
1.13214
1.11391
1.10195
1.08943
1.06519
1.02958
1.00512
1.00019
1
1
1
1
1
1
1
1
1
1
1
1
1
1
1
1
1
1
1
1.00018
1.00345
1.0325
1.13392
1.3
1.47617
1.62018
1.7306
1.81797
1.87858
1.93063
1.95275
1.95049
1.94779
1.93792
1.90799
1.86471
1.82483
1.78225
1.73803
1.69936
1.66682
1.63499
1.60539
1.57597
1.54197
1.51092
1.49575
1.48475
1.47273
1.45835
1.44013
1.41825
1.40056
1.38897
1.37899
1.36898
1.35832
1.34604
1.33026
1.31164
1.29624
1.28616
1.27991
1.2753
1.27105
1.26628
1.26023
1.25197
1.24103
1.22915
1.21951
1.21339
1.20919
1.20598
1.20363
1.20226
1.20255
1.20459
1.2105
1.22301
1.23926
1.25487
1.26638
1.27186
1.27156
1.26455
1.24926
1.22214
1.1846
1.14132
1.09193
1.0443
1.0119
1.0011
1.00002
1
1
1
1
1
)
;

boundaryField
{
    inlet
    {
        type            fixedValue;
        value           uniform 1;
    }
    outlet
    {
        type            inletOutlet;
        inletValue      uniform 1;
        value           nonuniform List<scalar> 
32
(
1.0014
1.0011
1.00089
1.00043
0.99991
0.999264
0.998637
0.998159
0.997765
0.99738
0.997379
0.997329
0.997897
0.998742
0.99996
1.00234
1.00588
1.0109
1.01725
1.02602
1.03539
1.04362
1.0502
1.05556
1.05355
1.03358
1.00612
1.00007
1
1
1
1
)
;
    }
    bottom
    {
        type            symmetryPlane;
    }
    top
    {
        type            symmetryPlane;
    }
    obstacle
    {
        type            zeroGradient;
    }
    defaultFaces
    {
        type            empty;
    }
}


// ************************************************************************* //
