/*--------------------------------*- C++ -*----------------------------------*\
  =========                 |
  \\      /  F ield         | OpenFOAM: The Open Source CFD Toolbox
   \\    /   O peration     | Website:  https://openfoam.org
    \\  /    A nd           | Version:  7
     \\/     M anipulation  |
\*---------------------------------------------------------------------------*/
FoamFile
{
    version     2.0;
    format      ascii;
    class       volVectorField;
    location    "0.7";
    object      U;
}
// * * * * * * * * * * * * * * * * * * * * * * * * * * * * * * * * * * * * * //

dimensions      [0 1 -1 0 0 0 0];

internalField   nonuniform List<vector> 
4032
(
(3 1.00093e-17 0)
(3 -1.91754e-18 0)
(3 -1.40066e-17 0)
(3 -1.57051e-16 0)
(3 4.76201e-16 0)
(3 6.49634e-16 0)
(3 3.55664e-16 0)
(3 -1.81928e-16 0)
(3 -3.66275e-16 0)
(3 -2.43592e-16 0)
(3 -3.53925e-16 0)
(3 -1.8986e-16 0)
(3 1.34889e-16 0)
(3 2.19254e-16 0)
(1.3309 0.0161612 0)
(0.656633 0.0167169 0)
(0.566793 0.0338796 0)
(0.495326 0.0337553 0)
(0.432657 0.0314523 0)
(0.373305 0.0322577 0)
(0.306249 0.0339925 0)
(0.231144 0.0379521 0)
(0.143954 0.0428548 0)
(0.0530155 0.0480919 0)
(3 9.31564e-17 0)
(3 -1.65371e-16 0)
(3 -3.77027e-16 0)
(3 -7.68389e-16 0)
(3 -1.60423e-16 0)
(3 6.944e-17 0)
(3 -4.75294e-18 0)
(3 -8.31495e-17 0)
(3 -6.63777e-17 0)
(3 5.50719e-16 0)
(3 2.05249e-16 0)
(3 3.44459e-16 0)
(3 1.14153e-16 0)
(3 1.17172e-16 0)
(1.36219 0.0774124 0)
(0.645999 0.0729679 0)
(0.545676 0.104159 0)
(0.472668 0.0987233 0)
(0.411168 0.0909306 0)
(0.353573 0.0943012 0)
(0.289255 0.101239 0)
(0.217536 0.114091 0)
(0.135015 0.13 0)
(0.0496621 0.145864 0)
(3 -2.37019e-17 0)
(3 -9.49352e-18 0)
(3 -7.74711e-16 0)
(3 -7.23973e-16 0)
(3 -7.66651e-16 0)
(3 -8.38917e-16 0)
(3 -1.12589e-15 0)
(3 -7.82866e-16 0)
(3 -7.9591e-17 0)
(3 -6.96894e-17 0)
(3 -3.80482e-17 0)
(3 -4.45041e-16 0)
(3 -6.85934e-16 0)
(3 -4.90066e-16 0)
(1.46279 0.139151 0)
(0.658093 0.135538 0)
(0.54556 0.178117 0)
(0.470564 0.166678 0)
(0.407854 0.152784 0)
(0.349176 0.158009 0)
(0.284452 0.169558 0)
(0.212047 0.189124 0)
(0.129927 0.21288 0)
(0.0469371 0.235557 0)
(3 -5.97961e-17 0)
(3 4.05738e-16 0)
(3 5.66937e-16 0)
(3 4.77329e-16 0)
(3 -1.59024e-17 0)
(3 -1.27876e-16 0)
(3 -3.58201e-16 0)
(3 -2.83113e-16 0)
(3 -5.62428e-16 0)
(3 -1.24016e-15 0)
(3 -1.0577e-15 0)
(3 -1.45151e-15 0)
(3 -1.11355e-15 0)
(3 -7.053e-16 0)
(1.62501 0.195311 0)
(0.679944 0.207145 0)
(0.55038 0.252029 0)
(0.482233 0.233417 0)
(0.423483 0.214972 0)
(0.365223 0.224186 0)
(0.298161 0.243693 0)
(0.22051 0.2705 0)
(0.133439 0.300334 0)
(0.0456858 0.324424 0)
(3 -1.64269e-17 0)
(3 -1.08936e-16 0)
(3 7.86885e-16 0)
(3 1.05966e-15 0)
(3 4.73978e-16 0)
(3 2.61747e-16 0)
(3 3.33818e-16 0)
(3 -1.67146e-16 0)
(3 -1.22823e-15 0)
(3 -1.72945e-15 0)
(3 -1.93494e-15 0)
(3 -1.32395e-15 0)
(3 -1.28442e-15 0)
(3 -7.69634e-16 0)
(1.85381 0.256748 0)
(0.712673 0.294652 0)
(0.564955 0.322274 0)
(0.516339 0.293391 0)
(0.462591 0.273169 0)
(0.404894 0.289816 0)
(0.336252 0.321416 0)
(0.252237 0.357704 0)
(0.1549 0.396312 0)
(0.0533978 0.42288 0)
(3 -3.98528e-17 0)
(3 -1.37175e-16 0)
(3 -9.99226e-17 0)
(3 3.43516e-17 0)
(3 -1.28696e-16 0)
(3 -2.23244e-16 0)
(3 -2.79181e-16 0)
(3 -5.49979e-16 0)
(3 -5.42051e-16 0)
(3 -2.38495e-16 0)
(3 -1.41952e-16 0)
(3 -5.25356e-17 0)
(3 -7.02544e-16 0)
(3 -1.0998e-15 0)
(2.19957 0.30952 0)
(0.785197 0.390088 0)
(0.617056 0.371515 0)
(0.57524 0.336121 0)
(0.515578 0.328678 0)
(0.451883 0.361425 0)
(0.37286 0.412824 0)
(0.271661 0.462728 0)
(0.16598 0.513986 0)
(0.0510631 0.543876 0)
(3 6.97595e-17 0)
(3 -5.4232e-17 0)
(3 -5.59566e-16 0)
(3 -8.6359e-16 0)
(3 -4.14437e-16 0)
(3 -4.01793e-16 0)
(3 -2.41675e-16 0)
(3 6.72523e-16 0)
(3 8.23585e-16 0)
(3 7.94199e-16 0)
(3 1.04055e-15 0)
(3 4.61359e-16 0)
(3 -1.06474e-16 0)
(3 -6.47469e-16 0)
(2.71799 0.24108 0)
(0.934117 0.44678 0)
(0.689891 0.4151 0)
(0.631426 0.391468 0)
(0.555007 0.40385 0)
(0.474128 0.450319 0)
(0.402651 0.517821 0)
(0.322546 0.574393 0)
(0.232393 0.626644 0)
(0.100409 0.687245 0)
(3 9.77499e-17 0)
(3 3.4354e-17 0)
(3 -1.48968e-16 0)
(3 -1.02423e-16 0)
(3 3.23629e-16 0)
(3 6.12115e-16 0)
(3 8.86909e-16 0)
(3 8.40278e-16 0)
(3 8.5086e-16 0)
(3 4.69495e-16 0)
(3 -1.83007e-16 0)
(3 -3.4876e-16 0)
(3 -8.50885e-17 0)
(3 2.25244e-17 0)
(3.03368 0.0434517 0)
(1.12648 0.472009 0)
(0.721964 0.488192 0)
(0.636156 0.470749 0)
(0.562018 0.491983 0)
(0.501988 0.538686 0)
(0.461409 0.602574 0)
(0.401918 0.669388 0)
(0.291275 0.783451 0)
(0.156859 0.963207 0)
(3 -2.96048e-17 0)
(3 2.12926e-16 0)
(3 7.68894e-16 0)
(3 6.93975e-16 0)
(3 4.25853e-16 0)
(3 4.87087e-16 0)
(3 5.17881e-16 0)
(3 -5.76409e-17 0)
(3 1.78058e-16 0)
(3 5.50541e-16 0)
(3 4.58044e-16 0)
(3 4.50103e-16 0)
(3 6.24068e-16 0)
(3 3.27641e-16 0)
(3.00401 0.000683248 0)
(1.41583 0.520409 0)
(0.735826 0.575879 0)
(0.663539 0.549373 0)
(0.617906 0.565649 0)
(0.575621 0.604005 0)
(0.554293 0.67066 0)
(0.522306 0.771506 0)
(0.51149 0.939441 0)
(0.615023 1.22522 0)
(3 -9.49031e-17 0)
(3 -7.60287e-18 0)
(3 7.66815e-17 0)
(3 -2.94382e-17 0)
(3 -4.25223e-16 0)
(3 -4.58723e-16 0)
(3 -5.74273e-16 0)
(3 -4.6875e-16 0)
(3 -6.27391e-16 0)
(3 -3.17233e-16 0)
(3 -2.58687e-17 0)
(3 1.86069e-16 0)
(3 9.99317e-16 0)
(3 8.10231e-16 0)
(3.00001 3.21444e-09 0)
(2.05308 0.547816 0)
(0.843767 0.650013 0)
(0.755222 0.591965 0)
(0.72591 0.609101 0)
(0.68916 0.651434 0)
(0.682513 0.731527 0)
(0.676871 0.845828 0)
(0.7506 0.996252 0)
(1.02793 1.16868 0)
(3 -1.89887e-16 0)
(3 -3.27715e-16 0)
(3 -9.9093e-16 0)
(3 -1.056e-15 0)
(3 -8.69568e-16 0)
(3 -7.27172e-16 0)
(3 -1.23602e-15 0)
(3 -1.18857e-15 0)
(3 -1.47964e-15 0)
(3 -1.26117e-15 0)
(3 -1.39005e-15 0)
(3 -9.1921e-16 0)
(3 -2.7334e-16 0)
(3 6.78872e-17 0)
(3 -2.43059e-09 0)
(2.92994 0.229845 0)
(1.12425 0.685681 0)
(0.876956 0.631893 0)
(0.835822 0.657621 0)
(0.791239 0.710774 0)
(0.793561 0.79585 0)
(0.824989 0.887606 0)
(0.940445 0.989511 0)
(1.22794 1.09215 0)
(3 -7.15273e-17 0)
(3 -2.87777e-16 0)
(3 -1.06497e-16 0)
(3 8.82087e-17 0)
(3 4.23488e-16 0)
(3 5.36767e-16 0)
(3 1.12391e-16 0)
(3 -3.31908e-16 0)
(3 -1.74123e-16 0)
(3 6.05353e-17 0)
(3 -2.10079e-16 0)
(3 -2.17925e-16 0)
(3 3.70602e-16 0)
(3 5.32542e-16 0)
(3 -1.2915e-11 0)
(3.03611 0.0113932 0)
(1.47124 0.664665 0)
(0.905744 0.725051 0)
(0.863319 0.7252 0)
(0.862939 0.766128 0)
(0.88181 0.830636 0)
(0.94421 0.906601 0)
(1.08222 0.98992 0)
(1.33012 1.05284 0)
(3 3.35776e-16 0)
(3 -3.071e-17 0)
(3 2.94174e-16 0)
(3 2.58081e-16 0)
(3 2.06858e-16 0)
(3 7.7699e-17 0)
(3 -8.40152e-18 0)
(3 -1.88706e-17 0)
(3 2.69782e-16 0)
(3 3.79813e-16 0)
(3 8.43945e-16 0)
(3 1.00739e-15 0)
(3 1.48069e-15 0)
(3 1.92816e-15 0)
(3 -2.74317e-13 0)
(3.00045 6.44428e-05 0)
(2.2965 0.551576 0)
(1.02613 0.775668 0)
(0.924695 0.74452 0)
(0.947227 0.781612 0)
(0.968945 0.840108 0)
(1.03508 0.903621 0)
(1.16378 0.962968 0)
(1.35872 0.995506 0)
(3 1.78285e-18 0)
(3 1.21881e-16 0)
(3 -5.35162e-17 0)
(3 1.11578e-16 0)
(3 -6.16873e-16 0)
(3 -1.00355e-15 0)
(3 -1.06223e-15 0)
(3 -7.2771e-16 0)
(3 -4.64041e-16 0)
(3 -7.28598e-16 0)
(3 -6.50114e-16 0)
(3 -1.66658e-16 0)
(3 3.92925e-16 0)
(3 6.78598e-16 0)
(3 -1.51835e-14 0)
(3 1.94298e-08 0)
(3.06702 0.0992132 0)
(1.36417 0.769937 0)
(1.00904 0.800167 0)
(1.01439 0.822525 0)
(1.03544 0.876644 0)
(1.10576 0.924562 0)
(1.22235 0.9637 0)
(1.38069 0.978498 0)
(3 -2.47979e-16 0)
(3 8.87855e-17 0)
(3 -1.58329e-16 0)
(3 6.89909e-17 0)
(3 -2.09186e-16 0)
(3 -6.84383e-16 0)
(3 -3.41171e-16 0)
(3 -3.9262e-18 0)
(3 2.10485e-16 0)
(3 -5.22762e-17 0)
(3 -7.82606e-16 0)
(3 -1.04375e-15 0)
(3 -1.2827e-15 0)
(3 -6.55603e-16 0)
(3 -1.60934e-15 0)
(3 -1.50023e-08 0)
(3.00996 0.00162572 0)
(2.01435 0.687601 0)
(1.11627 0.874973 0)
(1.07241 0.874719 0)
(1.10655 0.886596 0)
(1.16936 0.913239 0)
(1.27226 0.939374 0)
(1.40786 0.950015 0)
(3 6.21309e-17 0)
(3 -3.71266e-16 0)
(3 -7.35171e-16 0)
(3 -8.23345e-16 0)
(3 -6.09771e-16 0)
(3 -2.60445e-16 0)
(3 2.9354e-16 0)
(3 5.35214e-16 0)
(3 8.42258e-16 0)
(3 6.5539e-16 0)
(3 4.32978e-16 0)
(3 -2.34006e-16 0)
(3 -1.0737e-15 0)
(3 -1.84307e-15 0)
(3 -1.72243e-15 0)
(3 -3.77395e-09 0)
(3.00003 7.42068e-06 0)
(2.99418 0.182476 0)
(1.43398 0.861065 0)
(1.14203 0.890663 0)
(1.18959 0.905799 0)
(1.23098 0.93698 0)
(1.31911 0.957934 0)
(1.43327 0.961802 0)
(3 1.29312e-16 0)
(3 4.71209e-17 0)
(3 1.27224e-16 0)
(3 -9.75862e-17 0)
(3 1.37958e-16 0)
(3 7.49874e-16 0)
(3 6.77585e-16 0)
(3 2.57481e-16 0)
(3 3.02115e-18 0)
(3 1.226e-16 0)
(3 4.34035e-16 0)
(3 2.12298e-16 0)
(3 -3.54781e-17 0)
(3 -1.5803e-15 0)
(3 -2.33832e-15 0)
(3 -1.32312e-10 0)
(3 -4.50098e-10 0)
(3.01613 0.00522945 0)
(2.12187 0.734747 0)
(1.23979 0.954195 0)
(1.23558 0.95296 0)
(1.29556 0.950249 0)
(1.3763 0.944659 0)
(1.47603 0.937698 0)
(3 4.74118e-17 0)
(3 3.64614e-16 0)
(3 4.45076e-16 0)
(3 2.67825e-16 0)
(3 -4.73555e-17 0)
(3 -1.36195e-16 0)
(3 -2.08177e-18 0)
(3 -2.46063e-18 0)
(3 -2.7579e-16 0)
(3 1.72586e-16 0)
(3 1.82025e-16 0)
(3 5.49449e-17 0)
(3 9.92648e-18 0)
(3 -5.78333e-16 0)
(3 -1.48938e-15 0)
(3 -2.14306e-13 0)
(3 -2.4893e-09 0)
(3.00009 5.08747e-05 0)
(2.99647 0.17088 0)
(1.63195 0.900516 0)
(1.29762 0.97012 0)
(1.36192 0.964885 0)
(1.42316 0.969148 0)
(1.50399 0.962431 0)
(3 -1.75867e-16 0)
(3 -3.40259e-16 0)
(3 -2.41655e-16 0)
(3 -5.17383e-16 0)
(3 -8.37979e-16 0)
(3 -9.88554e-16 0)
(3 -7.06592e-16 0)
(3 -4.04594e-17 0)
(3 -1.29935e-16 0)
(3 -3.2717e-16 0)
(3 -9.83786e-16 0)
(3 -1.42814e-15 0)
(3 -1.68873e-15 0)
(3 -1.4733e-15 0)
(3 -7.51277e-16 0)
(3 -1.49652e-16 0)
(3 -1.31182e-09 0)
(3 1.83218e-08 0)
(3.00896 0.00682042 0)
(2.50128 0.592572 0)
(1.46084 1.00095 0)
(1.40373 0.987246 0)
(1.47918 0.977311 0)
(1.54209 0.965304 0)
(3 5.92563e-17 0)
(3 1.46244e-16 0)
(3 1.88368e-16 0)
(3 4.70485e-16 0)
(3 8.07164e-16 0)
(3 3.66943e-16 0)
(3 1.82507e-16 0)
(3 2.21133e-17 0)
(3 -4.02664e-16 0)
(3 -1.07087e-15 0)
(3 -1.23069e-15 0)
(3 -2.08036e-15 0)
(3 -2.38677e-15 0)
(3 -2.23918e-15 0)
(3 -1.34598e-15 0)
(3 -1.52656e-16 0)
(3 -1.96367e-10 0)
(3 -3.53872e-10 0)
(3.00003 5.68718e-05 0)
(3.0198 0.0684868 0)
(2.0123 0.85384 0)
(1.47661 1.02078 0)
(1.49997 1.01634 0)
(1.56033 1.005 0)
(3 9.80846e-17 0)
(3 2.98649e-16 0)
(3 3.02285e-16 0)
(3 5.93197e-16 0)
(3 1.00515e-15 0)
(3 1.14895e-15 0)
(3 8.30791e-16 0)
(3 5.27935e-16 0)
(3 -7.18515e-17 0)
(3 -9.22121e-16 0)
(3 -1.16106e-15 0)
(3 -9.82118e-16 0)
(3 -5.59513e-16 0)
(3 -4.28784e-16 0)
(3 -8.04757e-16 0)
(3 -6.09437e-16 0)
(3 -4.84121e-12 0)
(3 -1.34752e-10 0)
(3 2.77627e-08 0)
(3.00131 0.00239386 0)
(2.85944 0.299107 0)
(1.81009 0.954936 0)
(1.5474 1.0315 0)
(1.59871 1.01648 0)
(3 -1.03433e-16 0)
(3 -1.33922e-16 0)
(3 -9.79877e-17 0)
(3 1.1343e-16 0)
(3 4.26021e-16 0)
(3 6.12552e-16 0)
(3 1.17853e-16 0)
(3 -4.88235e-16 0)
(3 -8.87273e-16 0)
(3 -1.17265e-15 0)
(3 -1.21509e-15 0)
(3 -3.60304e-16 0)
(3 1.02654e-16 0)
(3 2.37063e-16 0)
(3 -3.12885e-16 0)
(3 -1.07264e-15 0)
(3 -1.59614e-14 0)
(3 -1.54553e-11 0)
(3 -1.08506e-11 0)
(3 7.71847e-06 0)
(3.00487 0.0196675 0)
(2.55574 0.56341 0)
(1.75522 1.00521 0)
(1.63508 1.04354 0)
(3 1.90102e-18 0)
(3 -7.05889e-17 0)
(3 3.42266e-16 0)
(3 3.51682e-16 0)
(3 3.70226e-17 0)
(3 -6.84544e-16 0)
(3 -8.1021e-16 0)
(3 -1.07499e-15 0)
(3 -1.05512e-15 0)
(3 -4.87055e-16 0)
(3 -1.90568e-16 0)
(3 -1.23385e-16 0)
(3 6.05449e-19 0)
(3 2.36146e-16 0)
(3 1.60391e-16 0)
(3 -6.47487e-16 0)
(3 -5.81592e-16 0)
(3 -2.3876e-13 0)
(3 -2.10953e-12 0)
(3 3.0203e-09 0)
(3.00002 0.000274578 0)
(2.98922 0.0693491 0)
(2.33573 0.724929 0)
(1.78073 1.02871 0)
(3 1.439e-16 0)
(3 2.20587e-16 0)
(3 1.25833e-16 0)
(3 -1.56096e-17 0)
(3 -2.28461e-16 0)
(3 -3.50407e-16 0)
(3 4.07885e-17 0)
(3 2.01129e-16 0)
(3 3.41532e-16 0)
(3 5.6061e-16 0)
(3 1.44402e-15 0)
(3 9.85304e-16 0)
(3 -3.39579e-17 0)
(3 -2.34353e-16 0)
(3 1.34923e-17 0)
(3 -1.8563e-16 0)
(3 -3.22333e-16 0)
(3 7.29272e-16 0)
(3 -5.3896e-14 0)
(3 2.34702e-13 0)
(3 3.21454e-07 0)
(3.00003 0.00221354 0)
(2.93809 0.148252 0)
(2.22911 0.808036 0)
(3 -1.95235e-16 0)
(3 -1.86697e-16 0)
(3 -4.12423e-16 0)
(3 -3.47065e-16 0)
(3 -1.14884e-16 0)
(3 5.27846e-16 0)
(3 8.29066e-16 0)
(3 8.30345e-16 0)
(3 7.53479e-16 0)
(3 7.21922e-16 0)
(3 7.40665e-16 0)
(3 5.27181e-16 0)
(3 -8.70966e-16 0)
(3 -1.22728e-15 0)
(3 -1.25858e-15 0)
(3 -5.40151e-16 0)
(3 7.5229e-16 0)
(3 1.95472e-15 0)
(3 1.30201e-15 0)
(3 1.56855e-15 0)
(3 7.9596e-11 0)
(3 6.04749e-06 0)
(2.99938 0.00718846 0)
(2.86887 0.23418 0)
(3 -2.41637e-17 0)
(3 1.15136e-17 0)
(3 -1.41115e-16 0)
(3 -1.88592e-16 0)
(3 -3.23889e-16 0)
(3 -3.61916e-16 0)
(3 -4.63999e-16 0)
(3 -3.18931e-16 0)
(3 -4.11244e-17 0)
(3 -3.86343e-16 0)
(3 -1.08116e-15 0)
(3 -1.5438e-15 0)
(3 -1.60795e-15 0)
(3 -2.10678e-15 0)
(3 -2.05265e-15 0)
(3 -4.10664e-16 0)
(3 2.05416e-17 0)
(3 -2.21666e-16 0)
(3 1.74148e-17 0)
(3 2.79128e-16 0)
(3 6.53938e-15 0)
(3 3.0937e-09 0)
(2.99999 3.77928e-05 0)
(2.99697 0.0149027 0)
(3 6.08405e-17 0)
(3 -1.71819e-16 0)
(3 -2.0815e-16 0)
(3 -2.618e-17 0)
(3 -3.97598e-16 0)
(3 -8.64188e-16 0)
(3 -1.03561e-15 0)
(3 -1.04322e-15 0)
(3 -1.01176e-15 0)
(3 -1.1482e-15 0)
(3 -1.32321e-15 0)
(3 -1.27812e-15 0)
(3 -1.18105e-15 0)
(3 -7.58577e-16 0)
(3 -1.25538e-16 0)
(3 -5.64131e-16 0)
(3 -7.06702e-16 0)
(3 4.91734e-17 0)
(3 9.23624e-16 0)
(3 1.02796e-15 0)
(3 2.79881e-16 0)
(3 2.19803e-13 0)
(3 3.33181e-08 0)
(2.99997 0.000125312 0)
(3 1.59152e-17 0)
(3 -9.94347e-18 0)
(3 3.41779e-17 0)
(3 -1.8013e-17 0)
(3 -3.50566e-16 0)
(3 -5.96185e-16 0)
(3 -8.37029e-16 0)
(3 -8.61839e-16 0)
(3 -7.55175e-16 0)
(3 -5.55939e-16 0)
(3 -1.02633e-15 0)
(3 -1.38197e-15 0)
(3 -7.28904e-16 0)
(3 4.81064e-17 0)
(3 3.45736e-17 0)
(3 1.03422e-16 0)
(3 -9.97052e-17 0)
(3 3.27494e-17 0)
(3 1.2881e-15 0)
(3 1.40942e-15 0)
(3 2.18014e-16 0)
(3 -1.291e-15 0)
(3 4.02095e-12 0)
(3 1.54987e-07 0)
(3 -2.03083e-17 0)
(3 2.60013e-16 0)
(3 4.48369e-16 0)
(3 1.41387e-16 0)
(3 -1.20199e-16 0)
(3 2.20314e-16 0)
(3 1.75394e-16 0)
(3 2.21377e-16 0)
(3 3.64301e-16 0)
(3 6.86498e-16 0)
(3 2.11286e-16 0)
(3 -2.0212e-17 0)
(3 2.39914e-16 0)
(3 5.15783e-16 0)
(3 3.89972e-16 0)
(3 3.62388e-16 0)
(3 2.58016e-16 0)
(3 -2.86844e-16 0)
(3 -4.9808e-16 0)
(3 -6.52364e-16 0)
(3 -1.3712e-15 0)
(3 -1.02455e-15 0)
(3 1.10266e-16 0)
(3 2.63792e-11 0)
(3 -9.02363e-18 0)
(3 1.32685e-16 0)
(3 4.51971e-17 0)
(3 -2.98595e-16 0)
(3 -1.67431e-16 0)
(3 5.56653e-16 0)
(3 4.08502e-16 0)
(3 6.69147e-16 0)
(3 4.20759e-16 0)
(3 2.27461e-16 0)
(3 7.79773e-16 0)
(3 1.2462e-15 0)
(3 1.04791e-15 0)
(3 1.66907e-15 0)
(3 1.38901e-15 0)
(3 3.72481e-16 0)
(3 -1.53826e-16 0)
(3 4.34297e-17 0)
(3 -1.24735e-15 0)
(3 -1.88975e-15 0)
(3 -1.47156e-15 0)
(3 -2.98878e-16 0)
(3 2.26835e-16 0)
(3 2.50128e-15 0)
(3 1.81436e-16 0)
(3 -9.65115e-18 0)
(3 -3.40131e-16 0)
(3 1.00443e-16 0)
(3 6.82144e-16 0)
(3 5.12115e-16 0)
(3 1.11602e-16 0)
(3 6.61604e-17 0)
(3 1.76087e-16 0)
(3 -1.83326e-16 0)
(3 2.56286e-16 0)
(3 5.47915e-16 0)
(3 8.37765e-16 0)
(3 8.90017e-16 0)
(3 1.55873e-16 0)
(3 -9.86433e-16 0)
(3 -1.52642e-15 0)
(3 -1.51459e-15 0)
(3 -1.18767e-15 0)
(3 -1.65867e-15 0)
(3 -1.57695e-15 0)
(3 -1.24698e-15 0)
(3 -1.03002e-16 0)
(3 3.2488e-16 0)
(3 3.80996e-18 0)
(3 -2.24084e-16 0)
(3 -1.19435e-16 0)
(3 5.61243e-16 0)
(3 1.53693e-15 0)
(3 1.4933e-15 0)
(3 1.43713e-15 0)
(3 1.09394e-15 0)
(3 6.33215e-16 0)
(3 2.8804e-16 0)
(3 3.81351e-16 0)
(3 6.84941e-16 0)
(3 7.83787e-16 0)
(3 1.00222e-16 0)
(3 -2.01083e-16 0)
(3 -5.04984e-16 0)
(3 -7.06431e-16 0)
(3 -5.6585e-16 0)
(3 -9.19474e-16 0)
(3 -1.40891e-15 0)
(3 -2.07036e-15 0)
(3 -2.42309e-15 0)
(3 -1.2139e-15 0)
(3 1.44224e-16 0)
(3 -2.13929e-17 0)
(3 9.24741e-17 0)
(3 1.29418e-16 0)
(3 -2.53021e-16 0)
(3 -3.58774e-16 0)
(3 1.91562e-16 0)
(3 4.42616e-16 0)
(3 3.63121e-16 0)
(3 -1.8188e-16 0)
(3 -5.43598e-16 0)
(3 2.57751e-16 0)
(3 8.84156e-16 0)
(3 1.11557e-15 0)
(3 6.95098e-16 0)
(3 6.48244e-16 0)
(3 3.06805e-16 0)
(3 -3.74799e-16 0)
(3 5.87398e-16 0)
(3 1.61847e-16 0)
(3 1.38126e-16 0)
(3 -4.39865e-16 0)
(3 -6.62445e-16 0)
(3 -7.13799e-16 0)
(3 -4.79966e-16 0)
(3 7.63015e-17 0)
(3 2.98923e-16 0)
(3 2.01663e-16 0)
(3 -3.4739e-16 0)
(3 -1.20106e-15 0)
(3 -1.09298e-15 0)
(3 -6.17754e-16 0)
(3 -7.85984e-16 0)
(3 -6.92795e-16 0)
(3 -2.57307e-16 0)
(3 -1.31603e-16 0)
(3 -8.63131e-18 0)
(3 7.13584e-16 0)
(3 1.14442e-15 0)
(3 8.15511e-16 0)
(3 7.27881e-17 0)
(3 -1.71698e-16 0)
(3 9.6867e-18 0)
(3 5.42452e-16 0)
(3 8.41942e-17 0)
(3 6.11599e-16 0)
(3 -5.32073e-17 0)
(3 -1.43997e-15 0)
(3 -1.60652e-15 0)
(3 7.50071e-18 0)
(3 9.62479e-17 0)
(3 6.4706e-17 0)
(3 -1.718e-16 0)
(3 -4.58872e-16 0)
(3 -9.15604e-16 0)
(3 -8.49326e-16 0)
(3 1.85114e-16 0)
(3 4.73321e-16 0)
(3 4.8981e-16 0)
(3 3.25286e-16 0)
(3 1.55994e-16 0)
(3 2.03419e-16 0)
(3 3.3315e-16 0)
(3 3.67846e-16 0)
(3 3.62126e-17 0)
(3 1.33193e-17 0)
(3 2.39212e-16 0)
(3 2.82403e-16 0)
(3 7.4142e-16 0)
(3 8.54897e-16 0)
(3 4.14668e-16 0)
(3 -2.51912e-16 0)
(3 3.84678e-16 0)
(3 2.53608e-18 0)
(3 -6.2558e-17 0)
(3 -2.76765e-16 0)
(3 -1.68627e-16 0)
(3 -2.50324e-16 0)
(3 -7.54497e-16 0)
(3 -6.19878e-16 0)
(3 3.02504e-16 0)
(3 7.56489e-16 0)
(3 5.35707e-16 0)
(3 5.93918e-16 0)
(3 7.20644e-16 0)
(3 -3.15595e-17 0)
(3 -4.73615e-16 0)
(3 -1.16127e-16 0)
(3 6.84145e-16 0)
(3 4.92997e-16 0)
(3 1.18159e-16 0)
(3 1.12999e-15 0)
(3 1.72625e-15 0)
(3 1.59371e-15 0)
(3 1.3183e-15 0)
(3 1.61844e-15 0)
(3 1.42166e-15 0)
(3 -1.78351e-16 0)
(3 -5.56141e-16 0)
(3 -5.49491e-16 0)
(3 -6.99886e-16 0)
(3 -8.48508e-16 0)
(3 -1.09338e-15 0)
(3 -1.08671e-15 0)
(3 -8.48019e-16 0)
(3 -4.69773e-16 0)
(3 3.6961e-16 0)
(3 8.16318e-16 0)
(3 6.64735e-16 0)
(3 2.19218e-16 0)
(3 4.03658e-16 0)
(3 1.12382e-15 0)
(3 1.98618e-15 0)
(3 2.41319e-15 0)
(3 2.57878e-15 0)
(3 3.11146e-15 0)
(3 2.35018e-15 0)
(3 2.28965e-15 0)
(3 2.95647e-15 0)
(3 2.62532e-15 0)
(3 1.45746e-15 0)
(3 -1.95942e-16 0)
(3 -5.16224e-16 0)
(3 -8.57297e-16 0)
(3 -7.16747e-16 0)
(3 -8.04882e-16 0)
(3 -9.97099e-16 0)
(3 -1.43642e-15 0)
(3 -1.93173e-15 0)
(3 -1.1016e-15 0)
(3 2.45905e-16 0)
(3 8.27092e-16 0)
(3 6.91986e-16 0)
(3 1.39164e-15 0)
(3 1.79288e-15 0)
(3 2.17298e-15 0)
(3 2.13198e-15 0)
(3 2.42842e-15 0)
(3 3.65051e-15 0)
(3 3.78763e-15 0)
(3 2.9068e-15 0)
(3 2.49106e-15 0)
(3 2.11714e-15 0)
(3 1.97882e-15 0)
(3 2.01237e-15 0)
(3 1.27325e-16 0)
(3 2.12589e-16 0)
(3 -1.07763e-16 0)
(3 -3.56471e-16 0)
(3 -2.1799e-16 0)
(3 6.26993e-16 0)
(3 3.64019e-16 0)
(3 -6.61074e-17 0)
(3 3.19131e-16 0)
(3 1.06331e-15 0)
(3 1.35611e-15 0)
(3 1.12585e-15 0)
(3 1.26674e-15 0)
(3 1.14572e-15 0)
(3 1.07597e-15 0)
(3 1.81078e-15 0)
(3 2.3306e-15 0)
(3 2.55585e-15 0)
(3 1.93976e-15 0)
(3 1.75715e-15 0)
(3 1.58875e-15 0)
(3 1.26056e-15 0)
(3 1.60686e-15 0)
(3 1.11664e-15 0)
(3 1.67198e-16 0)
(3 5.35741e-17 0)
(3 8.74374e-19 0)
(3 -1.40255e-16 0)
(3 -7.07779e-17 0)
(3 6.19739e-16 0)
(3 8.63165e-16 0)
(3 6.60711e-16 0)
(3 5.40832e-16 0)
(3 7.94881e-16 0)
(3 8.39677e-16 0)
(3 3.0766e-16 0)
(3 1.76974e-16 0)
(3 2.61516e-16 0)
(3 1.83283e-16 0)
(3 1.01014e-15 0)
(3 2.21381e-15 0)
(3 2.309e-15 0)
(3 1.69973e-15 0)
(3 1.35068e-15 0)
(3 1.12416e-15 0)
(3 1.40898e-15 0)
(3 1.51469e-15 0)
(3 1.26466e-15 0)
(1.64143 1.30271 0)
(2.21184 1.42612 0)
(2.46812 1.69187 0)
(2.6515 0.87124 0)
(2.78858 0.508097 0)
(2.85309 0.0485084 0)
(2.88446 -0.219396 0)
(2.90556 -0.282649 0)
(2.76847 -0.328736 0)
(2.74436 -0.398786 0)
(2.80141 -0.339931 0)
(2.78804 -0.204426 0)
(2.7564 -0.166137 0)
(2.74391 -0.157835 0)
(2.74248 -0.107437 0)
(2.7474 -0.0664347 0)
(2.7568 -0.0455891 0)
(2.78652 -0.0402109 0)
(2.80293 -0.0411865 0)
(2.82296 -0.0352551 0)
(2.82526 -0.0213841 0)
(2.8153 -0.00949665 0)
(2.81929 -8.0863e-05 0)
(2.83721 0.0032702 0)
(2.85808 0.00723848 0)
(2.87953 0.0119058 0)
(2.889 0.0137901 0)
(2.89136 0.0116424 0)
(2.89078 0.00504186 0)
(2.88433 0.00328771 0)
(2.87007 0.00393779 0)
(2.85624 0.00778023 0)
(2.84779 0.0114338 0)
(2.85254 0.0116576 0)
(2.86212 0.00828099 0)
(2.87574 0.00492471 0)
(2.89363 0.00209163 0)
(2.90591 0.00073759 0)
(2.90899 0.000998546 0)
(2.90774 0.0023477 0)
(2.90684 0.00386876 0)
(2.90819 0.00524056 0)
(2.90965 0.00463099 0)
(2.91402 0.00445453 0)
(2.91546 0.00430052 0)
(2.91599 0.00430442 0)
(2.91405 0.00389638 0)
(2.90888 0.00296729 0)
(2.89707 0.00522915 0)
(2.88079 0.00757231 0)
(2.86746 0.00996424 0)
(2.85698 0.0110007 0)
(2.85064 0.00975987 0)
(2.84336 0.00744135 0)
(2.83412 0.00571294 0)
(2.82365 0.0040035 0)
(2.81564 0.000536292 0)
(2.80561 -0.000700763 0)
(2.79425 -0.00221299 0)
(2.78355 -0.00510654 0)
(2.7765 -0.00445604 0)
(2.7807 -0.00016796 0)
(2.7888 -0.000148222 0)
(2.78817 -0.00189622 0)
(2.78722 -0.00277283 0)
(2.78678 -0.00242778 0)
(2.78515 -0.000658546 0)
(2.78268 0.00344401 0)
(2.77752 0.00810567 0)
(2.76967 0.0114368 0)
(2.76328 0.0110596 0)
(2.76354 0.0057333 0)
(2.77286 -0.00450282 0)
(2.79183 -0.0172849 0)
(2.82282 -0.027289 0)
(2.86759 -0.0286289 0)
(2.89849 -0.0207359 0)
(2.88603 -0.012727 0)
(2.88338 -0.010051 0)
(2.89709 -0.00816928 0)
(2.92312 -0.00875518 0)
(2.94827 -0.0107285 0)
(2.96085 -0.0102436 0)
(2.96846 -0.00905033 0)
(2.97411 -0.00822913 0)
(2.97965 -0.00805869 0)
(2.98575 -0.00704653 0)
(2.98994 -0.00535777 0)
(2.99137 -0.00352807 0)
(2.99225 -0.00236084 0)
(2.99411 -0.00219894 0)
(2.9955 -0.00210228 0)
(2.99678 -0.00194428 0)
(2.998 -0.00185333 0)
(2.99905 -0.00163949 0)
(3.00026 -0.0014139 0)
(1.88378 1.11636 0)
(2.44332 0.779234 0)
(2.76794 0.539285 0)
(2.90915 0.232893 0)
(2.95606 -0.267376 0)
(2.93172 -0.548306 0)
(2.9883 -0.580396 0)
(3.02562 -0.620962 0)
(3.0325 -0.599525 0)
(2.99961 -0.542326 0)
(2.94111 -0.432309 0)
(2.86727 -0.279276 0)
(2.8313 -0.207686 0)
(2.80021 -0.196831 0)
(2.7883 -0.134871 0)
(2.79313 -0.0556775 0)
(2.802 -0.0219361 0)
(2.82111 -0.0059403 0)
(2.8269 -0.000522309 0)
(2.82772 0.00893119 0)
(2.81333 0.0216998 0)
(2.80395 0.0146613 0)
(2.81545 0.00946423 0)
(2.83807 0.0170039 0)
(2.85746 0.0244441 0)
(2.8767 0.0304165 0)
(2.88497 0.0311312 0)
(2.8902 0.0232403 0)
(2.89351 -0.000245849 0)
(2.89091 -0.0122309 0)
(2.88513 -0.0149553 0)
(2.87928 -0.0100601 0)
(2.87386 0.00362567 0)
(2.8756 0.0176837 0)
(2.88678 0.0241564 0)
(2.90142 0.0259912 0)
(2.91393 0.0244876 0)
(2.91854 0.0188791 0)
(2.91809 0.00825569 0)
(2.91792 0.00105487 0)
(2.92031 0.000494325 0)
(2.92638 0.00333623 0)
(2.93174 0.00792593 0)
(2.93384 0.0146844 0)
(2.93194 0.0175815 0)
(2.92675 0.0144616 0)
(2.92313 0.0125916 0)
(2.91599 0.00892542 0)
(2.90616 0.00247141 0)
(2.89551 0.00123988 0)
(2.88973 0.00654416 0)
(2.88654 0.0185026 0)
(2.87827 0.0266601 0)
(2.86853 0.0298432 0)
(2.85664 0.0302485 0)
(2.84036 0.0229849 0)
(2.8293 0.0107448 0)
(2.81742 0.00276763 0)
(2.80554 -0.00485192 0)
(2.79569 -0.0147485 0)
(2.79225 -0.0208905 0)
(2.80301 -0.00963045 0)
(2.80437 0.00405363 0)
(2.79964 0.00564005 0)
(2.79589 0.00458972 0)
(2.79294 0.00176842 0)
(2.79034 0.00032955 0)
(2.78728 0.00334348 0)
(2.78396 0.0080817 0)
(2.78079 0.0120782 0)
(2.77969 0.0136606 0)
(2.78214 0.0104538 0)
(2.78895 0.000385395 0)
(2.79978 -0.0162672 0)
(2.81437 -0.0339824 0)
(2.83766 -0.0457992 0)
(2.86388 -0.0455925 0)
(2.87619 -0.0350479 0)
(2.88911 -0.0235134 0)
(2.90689 -0.0146942 0)
(2.92683 -0.00986215 0)
(2.94526 -0.0103148 0)
(2.95741 -0.013134 0)
(2.9653 -0.0145876 0)
(2.97232 -0.0142512 0)
(2.9761 -0.0140061 0)
(2.983 -0.0120025 0)
(2.98827 -0.0093023 0)
(2.99086 -0.0067804 0)
(2.99214 -0.00407019 0)
(2.99393 -0.00323576 0)
(2.9951 -0.00312552 0)
(2.99618 -0.00281125 0)
(2.99738 -0.0022912 0)
(2.99831 -0.00215757 0)
(2.99926 -0.00228178 0)
(1.73186 1.09226 0)
(2.15743 0.919638 0)
(2.53754 0.56005 0)
(2.68446 0.451114 0)
(2.74023 0.313968 0)
(2.8566 -0.0337731 0)
(2.93411 -0.123201 0)
(2.93765 -0.159173 0)
(3.01227 -0.285506 0)
(3.03431 -0.399483 0)
(3.04815 -0.435104 0)
(3.03625 -0.431133 0)
(2.98676 -0.452863 0)
(2.95796 -0.418818 0)
(2.92894 -0.323062 0)
(2.90005 -0.197037 0)
(2.89362 -0.126731 0)
(2.8932 -0.0981701 0)
(2.88289 -0.0663428 0)
(2.86547 -0.029908 0)
(2.86204 0.000998898 0)
(2.85535 0.00318073 0)
(2.85541 0.0211846 0)
(2.87341 0.0312889 0)
(2.88165 0.0306084 0)
(2.89209 0.0315785 0)
(2.89894 0.0210453 0)
(2.90992 -0.000169566 0)
(2.91421 -0.0155834 0)
(2.91287 -0.02065 0)
(2.9107 -0.0163984 0)
(2.90939 -0.00546552 0)
(2.91156 0.00756004 0)
(2.91928 0.0163182 0)
(2.93009 0.020277 0)
(2.94034 0.0262713 0)
(2.94587 0.0330211 0)
(2.94188 0.030172 0)
(2.93881 0.0196561 0)
(2.94173 0.0127595 0)
(2.94463 0.0037883 0)
(2.95229 0.00133841 0)
(2.96311 0.0028471 0)
(2.9694 0.00749315 0)
(2.97127 0.0145903 0)
(2.96613 0.023367 0)
(2.95284 0.0325167 0)
(2.94206 0.0358309 0)
(2.93557 0.0338748 0)
(2.92732 0.0238869 0)
(2.92806 0.0114448 0)
(2.93588 0.00536577 0)
(2.93156 0.00819888 0)
(2.92371 0.0130399 0)
(2.91482 0.0184586 0)
(2.89575 0.0224824 0)
(2.8721 0.0241563 0)
(2.86171 0.0234292 0)
(2.84887 0.0186815 0)
(2.83739 0.0113045 0)
(2.83096 0.00270906 0)
(2.84276 -0.00494627 0)
(2.84198 -0.0060112 0)
(2.83167 -0.00521078 0)
(2.82364 -0.0027565 0)
(2.81802 -0.000248349 0)
(2.8127 0.00190241 0)
(2.80877 0.00540756 0)
(2.80773 0.00876771 0)
(2.8108 0.00998109 0)
(2.81731 0.00674897 0)
(2.82411 -0.00289263 0)
(2.8299 -0.020532 0)
(2.83644 -0.0446134 0)
(2.84714 -0.0702632 0)
(2.86389 -0.0845016 0)
(2.88259 -0.0784222 0)
(2.8964 -0.0546257 0)
(2.91359 -0.0323832 0)
(2.92912 -0.0208621 0)
(2.94146 -0.020524 0)
(2.95104 -0.0244238 0)
(2.95845 -0.0260383 0)
(2.96853 -0.0248192 0)
(2.97876 -0.0219709 0)
(2.98204 -0.0213159 0)
(2.98746 -0.019686 0)
(2.99198 -0.0162656 0)
(2.99448 -0.0128239 0)
(2.99517 -0.00895592 0)
(2.99511 -0.00564226 0)
(2.99612 -0.00482516 0)
(2.99694 -0.00475153 0)
(2.998 -0.00449277 0)
(2.99898 -0.00448414 0)
(2.99973 -0.00441789 0)
(1.67396 1.02294 0)
(2.00674 0.874582 0)
(2.22488 0.759268 0)
(2.40359 0.63683 0)
(2.61939 0.359054 0)
(2.74101 0.078606 0)
(2.81319 0.0116715 0)
(2.82002 -0.0206778 0)
(2.91883 -0.208036 0)
(2.95507 -0.383995 0)
(3.01004 -0.405403 0)
(3.04235 -0.439094 0)
(3.03293 -0.469322 0)
(3.0304 -0.468772 0)
(3.02011 -0.434758 0)
(2.99428 -0.346521 0)
(2.97143 -0.287669 0)
(2.9564 -0.255278 0)
(2.96004 -0.220728 0)
(2.94138 -0.157624 0)
(2.93581 -0.117986 0)
(2.92928 -0.101787 0)
(2.91333 -0.0581437 0)
(2.9105 -0.0157826 0)
(2.90716 0.0342498 0)
(2.91464 0.0657414 0)
(2.91696 0.0657298 0)
(2.92039 0.0561293 0)
(2.92331 0.039748 0)
(2.92479 0.0297003 0)
(2.92656 0.0209501 0)
(2.93261 0.0110308 0)
(2.94413 0.00615361 0)
(2.95943 0.00531771 0)
(2.96861 0.00543352 0)
(2.9718 0.0119692 0)
(2.97081 0.0222532 0)
(2.96413 0.0262295 0)
(2.96405 0.0223907 0)
(2.97048 0.0193019 0)
(2.97568 0.0113032 0)
(2.98418 0.00379961 0)
(2.99419 0.00378928 0)
(3.00174 0.00732607 0)
(3.00647 0.00993531 0)
(3.00557 0.0115814 0)
(2.99536 0.015924 0)
(2.98676 0.021831 0)
(2.98447 0.0244614 0)
(2.9813 0.0283875 0)
(2.98176 0.030873 0)
(2.99153 0.0282119 0)
(2.99129 0.0255184 0)
(2.9823 0.0240943 0)
(2.97326 0.0205205 0)
(2.95664 0.0141544 0)
(2.93774 0.00857799 0)
(2.92945 0.007886 0)
(2.91964 0.00918011 0)
(2.90981 0.0140022 0)
(2.90022 0.0202666 0)
(2.90183 0.0172576 0)
(2.89715 0.00948838 0)
(2.8769 0.00398859 0)
(2.86278 -0.00205727 0)
(2.85298 -0.00915141 0)
(2.84829 -0.0125725 0)
(2.84795 -0.00714727 0)
(2.85305 0.00569343 0)
(2.86347 0.0205955 0)
(2.8764 0.0283334 0)
(2.88702 0.0181543 0)
(2.89435 -0.00625178 0)
(2.90051 -0.0365445 0)
(2.90594 -0.0684091 0)
(2.91245 -0.0932184 0)
(2.92416 -0.0893996 0)
(2.9365 -0.057099 0)
(2.95032 -0.0376991 0)
(2.95504 -0.0341143 0)
(2.9566 -0.0337515 0)
(2.96132 -0.034169 0)
(2.96484 -0.0339974 0)
(2.97245 -0.0322563 0)
(2.98597 -0.0289467 0)
(2.9907 -0.0277487 0)
(2.99419 -0.0258403 0)
(2.99703 -0.022257 0)
(2.99831 -0.0184992 0)
(2.99819 -0.0141107 0)
(2.99669 -0.00912813 0)
(2.99631 -0.00643445 0)
(2.99712 -0.00606284 0)
(2.9979 -0.00582644 0)
(2.9987 -0.00576601 0)
(2.99919 -0.00571426 0)
(1.61295 0.974232 0)
(1.85735 0.889692 0)
(2.06924 0.773253 0)
(2.23936 0.68142 0)
(2.42051 0.5179 0)
(2.55175 0.308144 0)
(2.61343 0.254862 0)
(2.68614 0.164819 0)
(2.79077 -0.0172963 0)
(2.83933 -0.126819 0)
(2.88861 -0.119247 0)
(2.91253 -0.148586 0)
(2.95476 -0.279235 0)
(2.97128 -0.33557 0)
(2.99793 -0.339064 0)
(2.99634 -0.334914 0)
(2.9836 -0.342367 0)
(2.97813 -0.349739 0)
(2.9862 -0.335726 0)
(2.98292 -0.277851 0)
(2.97911 -0.232469 0)
(2.97608 -0.210585 0)
(2.94735 -0.148919 0)
(2.94015 -0.0967719 0)
(2.93279 -0.0485578 0)
(2.93928 -0.0210912 0)
(2.93918 0.00586634 0)
(2.93218 0.0194225 0)
(2.91855 0.0381353 0)
(2.91768 0.0510851 0)
(2.91708 0.0555352 0)
(2.92971 0.0504176 0)
(2.95281 0.03066 0)
(2.97367 0.0175387 0)
(2.9886 0.0152348 0)
(2.99209 0.00995663 0)
(2.98472 0.013015 0)
(2.97676 0.0267661 0)
(2.98361 0.0290055 0)
(2.98978 0.026522 0)
(2.99651 0.0206302 0)
(3.00708 0.0163987 0)
(3.01488 0.0170235 0)
(3.02316 0.0210056 0)
(3.03144 0.0234232 0)
(3.03377 0.0214834 0)
(3.0267 0.0185416 0)
(3.02403 0.0189058 0)
(3.02401 0.0194306 0)
(3.02423 0.0200396 0)
(3.02752 0.0216988 0)
(3.03877 0.0242391 0)
(3.03977 0.0268485 0)
(3.03012 0.0278836 0)
(3.02073 0.0289886 0)
(3.00542 0.0262566 0)
(2.99456 0.0206198 0)
(2.98448 0.0150407 0)
(2.97628 0.0111452 0)
(2.96859 0.0149122 0)
(2.96422 0.0256116 0)
(2.96489 0.0323862 0)
(2.94767 0.0253667 0)
(2.92394 0.0170489 0)
(2.90594 0.00876592 0)
(2.89294 -0.00252372 0)
(2.88798 -0.012727 0)
(2.89193 -0.013437 0)
(2.90451 -0.00148697 0)
(2.92215 0.0107729 0)
(2.93784 0.0107901 0)
(2.94827 -0.00338247 0)
(2.9541 -0.0299585 0)
(2.95697 -0.0632811 0)
(2.95641 -0.0902483 0)
(2.95442 -0.0982657 0)
(2.96535 -0.0802146 0)
(2.9776 -0.0550854 0)
(2.97308 -0.0492057 0)
(2.97013 -0.0480843 0)
(2.96839 -0.0451031 0)
(2.97009 -0.0437947 0)
(2.97308 -0.0415642 0)
(2.98347 -0.0374438 0)
(2.99357 -0.0337312 0)
(2.9981 -0.0315886 0)
(3.00112 -0.0284974 0)
(3.00225 -0.0247014 0)
(3.00281 -0.0206375 0)
(3.0026 -0.0164114 0)
(3.0008 -0.0119887 0)
(2.99853 -0.00872485 0)
(2.99838 -0.00788301 0)
(2.99885 -0.0077791 0)
(2.99932 -0.00773591 0)
(2.99924 -0.00756054 0)
(1.57397 0.954742 0)
(1.76052 0.900173 0)
(1.94586 0.818515 0)
(2.13945 0.700931 0)
(2.30058 0.558521 0)
(2.39792 0.44536 0)
(2.47205 0.400287 0)
(2.57449 0.301885 0)
(2.69317 0.107492 0)
(2.74548 -0.0113077 0)
(2.79286 -0.00668051 0)
(2.83218 -0.0357881 0)