/*--------------------------------*- C++ -*----------------------------------*\
  =========                 |
  \\      /  F ield         | OpenFOAM: The Open Source CFD Toolbox
   \\    /   O peration     | Website:  https://openfoam.org
    \\  /    A nd           | Version:  7
     \\/     M anipulation  |
\*---------------------------------------------------------------------------*/
FoamFile
{
    version     2.0;
    format      ascii;
    class       volScalarField;
    location    "0.7";
    object      T;
}
// * * * * * * * * * * * * * * * * * * * * * * * * * * * * * * * * * * * * * //

dimensions      [0 0 0 1 0 0 0];

internalField   nonuniform List<scalar> 
16128
(
1
1
1
1
1
1
1
1
1
1
1
1
1
1
1
1
1
1
1
1
1
1
1
1
1
1
1
1
1.62449
2.68208
2.79132
2.80383
2.825
2.84568
2.85676
2.86315
2.8724
2.88679
2.90285
2.91621
2.92557
2.9327
2.94739
2.98834
3.07748
3.21151
3.3336
3.3847
1
1
1
1
1
1
1
1
1
1
1
1
1
1
1
1
1
1
1
1
1
1
1
1
1
1
1
1
1.60878
2.67248
2.79028
2.80426
2.82526
2.84549
2.85633
2.86298
2.87238
2.88655
2.90227
2.91546
2.92482
2.93214
2.94722
2.98889
3.07883
3.21282
3.33392
3.38433
1
1
1
1
1
1
1
1
1
1
1
1
1
1
1
1
1
1
1
1
1
1
1
1
1
1
1
1
1.57056
2.65216
2.78992
2.80403
2.82538
2.8449
2.85523
2.8622
2.8718
2.8857
2.90107
2.91419
2.92375
2.93151
2.94737
2.99058
3.08236
3.2165
3.33562
3.38452
1
1
1
1
1
1
1
1
1
1
1
1
1
1
1
1
1
1
1
1
1
1
1
1
1
1
1
1
1.51191
2.6183
2.78835
2.80297
2.82567
2.8444
2.85417
2.86121
2.87055
2.88385
2.89877
2.91189
2.9218
2.93013
2.94686
2.99163
3.08541
3.22009
3.33749
3.38485
1
1
1
1
1
1
1
1
1
1
1
1
1
1
1
1
1
1
1
1
1
1
1
1
1
1
1
1
1.42412
2.56565
2.78616
2.80248
2.82713
2.8443
2.85305
2.85966
2.8683
2.88082
2.89538
2.90858
2.91887
2.92779
2.94518
2.99104
3.08616
3.22138
3.33807
3.38468
1
1
1
1
1
1
1
1
1
1
1
1
1
1
1
1
1
1
1
1
1
1
1
1
1
1
1
1
1.29204
2.48664
2.78277
2.80587
2.8294
2.84395
2.85144
2.85719
2.86494
2.87685
2.89125
2.90445
2.91491
2.92414
2.94179
2.98821
3.08414
3.21992
3.33671
3.38318
1
1
1
1
1
1
1
1
1
1
1
1
1
1
1
1
1
1
1
1
1
1
1
1
1
1
1
1
1.13048
2.3909
2.78073
2.81429
2.83252
2.84269
2.84817
2.85292
2.86023
2.87209
2.88648
2.89946
2.90981
2.91904
2.93639
2.98244
3.07846
3.21504
3.33272
3.37955
1
1
1
1
1
1
1
1
1
1
1
1
1
1
1
1
1
1
1
1
1
1
1
1
1
1
1
1
1.00478
2.29828
2.78551
2.81962
2.83214
2.8379
2.84228
2.84674
2.8544
2.86674
2.88105
2.89358
2.90363
2.91266
2.92923
2.9739
3.0688
3.20585
3.3252
3.37296
1
1
1
1
1
1
1
1
1
1
1
1
1
1
1
1
1
1
1
1
1
1
1
1
1
1
1
1
1.00002
2.20441
2.79126
2.81921
2.82521
2.82847
2.83308
2.83934
2.84857
2.86132
2.87486
2.88636
2.89592
2.90472
2.92017
2.96258
3.05509
3.19205
3.31378
3.36318
1
1
1
1
1
1
1
1
1
1
1
1
1
1
1
1
1
1
1
1
1
1
1
1
1
1
1
1
1
2.08886
2.78736
2.80841
2.81022
2.81425
2.82188
2.83199
2.8436
2.85602
2.86768
2.87741
2.88636
2.89526
2.90964
2.94929
3.03813
3.17388
3.29797
3.34922
1
1
1
1
1
1
1
1
1
1
1
1
1
1
1
1
1
1
1
1
1
1
1
1
1
1
1
1
1
1.93178
2.75899
2.78857
2.78892
2.79628
2.80985
2.82555
2.83937
2.85031
2.85895
2.86645
2.87467
2.88394
2.89719
2.93343
3.01732
3.15098
3.27768
3.33141
1
1
1
1
1
1
1
1
1
1
1
1
1
1
1
1
1
1
1
1
1
1
1
1
1
1
1
1
1
1.71023
2.68748
2.76354
2.76674
2.77888
2.79951
2.82017
2.83426
2.84242
2.84802
2.85348
2.86125
2.87106
2.88345
2.9161
2.99406
3.12397
3.25189
3.30697
1
1
1
1
1
1
1
1
1
1
1
1
1
1
1
1
1
1
1
1
1
1
1
1
1
1
1
1
1
1.44591
2.58006
2.74572
2.75439
2.7711
2.79204
2.8129
2.82529
2.83078
2.83457
2.83906
2.84687
2.85678
2.86782
2.89557
2.96519
3.08954
3.21861
3.27701
1
1
1
1
1
1
1
1
1
1
1
1
1
1
1
1
1
1
1
1
1
1
1
1
1
1
1
1
1
1.19267
2.45363
2.73357
2.74568
2.76537
2.78377
2.80241
2.81267
2.81658
2.81939
2.8236
2.83136
2.84054
2.85019
2.87286
2.93365
3.05095
3.17811
3.23138
1
1
1
1
1
1
1
1
1
1
1
1
1
1
1
1
1
1
1
1
1
1
1
1
1
1
1
1
1
1.0088
2.31821
2.7374
2.7536
2.76307
2.77418
2.7873
2.79528
2.79863
2.80183
2.80679
2.81492
2.82332
2.83086
2.84679
2.89379
2.99482
3.11631
3.17283
1
1
1
1
1
1
1
1
1
1
1
1
1
1
1
1
1
1
1
1
1
1
1
1
1
1
1
1
1
1.00005
2.11892
2.72419
2.74835
2.75186
2.75606
2.76485
2.77161
2.77665
2.78248
2.78902
2.79769
2.80482
2.80885
2.8163
2.84753
2.93148
3.05406
3.13645
1
1
1
1
1
1
1
1
1
1
1
1
1
1
1
1
1
1
1
1
1
1
1
1
1
1
1
1
1
1
1.79165
2.65625
2.73042
2.72992
2.73376
2.74165
2.7497
2.75694
2.76261
2.76999
2.77842
2.7841
2.78459
2.78458
2.79806
2.84482
2.88774
2.85416
1
1
1
1
1
1
1
1
1
1
1
1
1
1
1
1
1
1
1
1
1
1
1
1
1
1
1
1
1
1
1.32873
2.50489
2.71808
2.71432
2.71715
2.72092
2.72708
2.73589
2.74325
2.7516
2.75873
2.7616
2.75803
2.74908
2.74244
2.74487
2.74738
2.65076
1
1
1
1
1
1
1
1
1
1
1
1
1
1
1
1
1
1
1
1
1
1
1
1
1
1
1
1
1
1
1.02081
2.32546
2.68553
2.69765
2.70287
2.70978
2.71762
2.72502
2.72995
2.73451
2.73725
2.73614
2.72903
2.71336
2.69059
2.67067
2.62121
2.49066
1
1
1
1
1
1
1
1
1
1
1
1
1
1
1
1
1
1
1
1
1
1
1
1
1
1
1
1
1
1
1.00012
2.02958
2.63958
2.68483
2.68775
2.6978
2.70914
2.71713
2.71922
2.71862
2.7159
2.70983
2.69757
2.67689
2.64442
2.60771
2.52773
2.40906
1
1
1
1
1
1
1
1
1
1
1
1
1
1
1
1
1
1
1
1
1
1
1
1
1
1
1
1
1
1
1
1.56205
2.53826
2.67386
2.66993
2.68053
2.69524
2.70521
2.70569
2.70245
2.69465
2.6829
2.66531
2.64024
2.60433
2.55461
2.46763
2.36377
1
1
1
1
1
1
1
1
1
1
1
1
1
1
1
1
1
1
1
1
1
1
1
1
1
1
1
1
1
1
1
1.07015
2.3647
2.64752
2.64441
2.65642
2.67298
2.68542
2.68675
2.68306
2.67233
2.65571
2.6337
2.60488
2.56779
2.51211
2.43126
2.34261
1
1
1
1
1
1
1
1
1
1
1
1
1
1
1
1
1
1
1
1
1
1
1
1
1
1
1
1
1
1
1
1.00088
2.05312
2.59589
2.6352
2.64164
2.6528
2.66239
2.66368
2.65981
2.64791
2.6284
2.60388
2.57351
2.5372
2.48088
2.40961
2.33088
1
1
1
1
1
1
1
1
1
1
1
1
1
1
1
1
1
1
1
1
1
1
1
1
1
1
1
1
1
1
1
1
1.51488
2.4782
2.62548
2.62162
2.62718
2.63348
2.63522
2.6319
2.62074
2.60135
2.57661
2.54673
2.51084
2.45886
2.39831
2.32934
1
1
1
1
1
1
1
1
1
1
1
1
1
1
1
1
1
1
1
1
1
1
1
1
1
1
1
1
1
1
1
1
1.05298
2.29429
2.6011
2.59499
2.60072
2.60568
2.60687
2.6041
2.59393
2.57595
2.5525
2.52474
2.49012
2.44544
2.39349
2.33118
1
1
1
1
1
1
1
1
1
1
1
1
1
1
1
1
1
1
1
1
1
1
1
1
1
1
1
1
1
1
1
1
1.0005
1.89418
2.53222
2.58161
2.58246
2.58245
2.58172
2.57851
2.5685
2.55114
2.52995
2.50331
2.47124
2.43405
2.38948
2.33468
1
1
1
1
1
1
1
1
1
1
1
1
1
1
1
1
1
1
1
1
1
1
1
1
1
1
1
1
1
1
1
1
1
1.25348
2.36723
2.56723
2.56253
2.56183
2.55883
2.55412
2.54521
2.5296
2.51101
2.48655
2.45765
2.42516
2.38519
2.33737
1
1
1
1
1
1
1
1
1
1
1
1
1
1
1
1
1
1
1
1
1
1
1
1
1
1
1
1
1
1
1
1
1
1.01054
2.08397
2.50641
2.53845
2.5364
2.53546
2.53145
2.52331
2.51021
2.49323
2.472
2.44582
2.41548
2.37872
2.33696
1
1
1
1
1
1
1
1
1
1
1
1
1
1
1
1
1
1
1
1
1
1
1
1
1
1
1
1
1
1
1
1
1
1.00002
1.47254
2.3829
2.5204
2.51421
2.51409
2.51118
2.50284
2.49024
2.47505
2.45675
2.43368
2.40557
2.37196
2.33467
1
1
1
1
1
1
1
1
1
1
1
1
1
1
1
1
1
1
1
1
1
1
1
1
1
1
1
1
1
1
1
1
1
1
1.04276
2.14143
2.4719
2.4944
2.49269
2.48939
2.48252
2.47116
2.45682
2.43965
2.4184
2.39199
2.36172
2.32853
1
1
1
1
1
1
1
1
1
1
1
1
1
1
1
1
1
1
1
1
1
1
1
1
1
1
1
1
1
1
1
1
1
1
1.00031
1.54626
2.35667
2.48111
2.47229
2.4679
2.46141
2.45152
2.43835
2.4214
2.40062
2.37626
2.3497
2.3196
1
1
1
1
1
1
1
1
1
1
1
1
1
1
1
1
1
1
1
1
1
1
1
1
1
1
1
1
1
1
1
1
1
1
1
1.05984
2.11862
2.43498
2.44781
2.44504
2.43942
2.43089
2.41902
2.40276
2.38227
2.35894
2.33433
2.30682
1
1
1
1
1
1
1
1
1
1
1
1
1
1
1
1
1
1
1
1
1
1
1
1
1
1
1
1
1
1
1
1
1
1
1
1.00059
1.49782
2.30157
2.43638
2.42726
2.42074
2.41124
2.39855
2.38234
2.3625
2.34048
2.31758
2.2927
1
1
1
1
1
1
1
1
1
1
1
1
1
1
1
1
1
1
1
1
1
1
1
1
1
1
1
1
1
1
1
1
1
1
1
1
1.04916
2.03643
2.38414
2.4027
2.3969
2.38743
2.37534
2.36121
2.3437
2.32358
2.30226
2.27953
1
1
1
1
1
1
1
1
1
1
1
1
1
1
1
1
1
1
1
1
1
1
1
1
1
1
1
1
1
1
1
1
1
1
1
1
1.00042
1.39107
2.22984
2.38889
2.37722
2.36742
2.35493
2.34036
2.32402
2.30581
2.28604
2.26517
1
1
1
1
1
1
1
1
1
1
1
1
1
1
1
1
1
1
1
1
1
1
1
1
1
1
1
1
1
1
1
1
1
1
1
1
1
1.02897
1.86341
2.30725
2.35501
2.341
2.3311
2.31875
2.30489
2.28978
2.27269
2.2535
1
1
1
1
1
1
1
1
1
1
1
1
1
1
1
1
1
1
1
1
1
1
1
1
1
1
1
1
1
1
1
1
1
1
1
1
1
1.00021
1.23336
2.11307
2.33731
2.32512
2.31288
2.29998
2.28652
2.27304
2.25849
2.24123
1
1
1
1
1
1
1
1
1
1
1
1
1
1
1
1
1
1
1
1
1
1
1
1
1
1
1
1
1
1
1
1
1
1
1
1
1
1
1.00897
1.58834
2.21375
2.30756
2.29196
2.28332
2.27272
2.26113
2.24737
2.23082
1
1
1
1
1
1
1
1
1
1
1
1
1
1
1
1
1
1
1
1
1
1
1
1
1
1
1
1
1
1
1
1
1
1
1
1
1
1
1.00004
1.08344
1.90655
2.24581
2.27286
2.26404
2.25445
2.24317
2.23035
2.215
1
1
1
1
1
1
1
1
1
1
1
1
1
1
1
1
1
1
1
1
1
1
1
1
1
1
1
1
1
1
1
1
1
1
1
1
1
1
1
1.00134
1.30367
2.05081
2.25876
2.24812
2.23872
2.22676
2.21362
2.19883
1
1
1
1
1
1
1
1
1
1
1
1
1
1
1
1
1
1
1
1
1
1
1
1
1
1
1
1
1
1
1
1
1
1
1
1
1
1
1
1
1.01684
1.56149
2.13256
2.2322
2.21621
2.20814
2.19792
2.18528
1
1
1
1
1
1
1
1
1
1
1
1
1
1
1
1
1
1
1
1
1
1
1
1
1
1
1
1
1
1
1
1
1
1
1
1
1
1
1
1
1.00012
1.08035
1.7801
2.14909
2.20567
2.18918
2.1783
2.16746
1
1
1
1
1
1
1
1
1
1
1
1
1
1
1
1
1
1
1
1
1
1
1
1
1
1
1
1
1
1
1
1
1
1
1
1
1
1
1
1
1
1.00136
1.21267
1.9185
2.15398
2.17292
2.16178
2.15038
1
1
1
1
1
1
1
1
1
1
1
1
1
1
1
1
1
1
1
1
1
1
1
1
1
1
1
1
1
1
1
1
1
1
1
1
1
1
1
1
1
1
1.00826
1.39174
1.98387
2.15018
2.1458
2.13357
1
1
1
1
1
1
1
1
1
1
1
1
1
1
1
1
1
1
1
1
1
1
1
1
1
1
1
1
1
1
1
1
1
1
1
1
1
1
1
1
1
1
1.00005
1.03334
1.54105
2.02359
2.12744
2.11945
1
1
1
1
1
1
1
1
1
1
1
1
1
1
1
1
1
1
1
1
1
1
1
1
1
1
1
1
1
1
1
1
1
1
1
1
1
1
1
1
1
1
1
1.00036
1.08216
1.65627
2.0355
2.10551
1
1
1
1
1
1
1
1
1
1
1
1
1
1
1
1
1
1
1
1
1
1
1
1
1
1
1
1
1
1
1
1
1
1
1
1
1
1
1
1
1
1
1
1
1.00157
1.15081
1.73852
2.03419
1
1
1
1
1
1
1
1
1
1
1
1
1
1
1
1
1
1
1
1
1
1
1
1
1
1
1
1
1
1
1
1
1
1
1
1
1
1
1
1
1
1
1
1
1.00001
1.00471
1.2287
1.79334
1
1
1
1
1
1
1
1
1
1
1
1
1
1
1
1
1
1
1
1
1
1
1
1
1
1
1
1
1
1
1
1
1
1
1
1
1
1
1
1
1
1
1
1
1
1.00002
1.01094
1.30409
1
1
1
1
1
1
1
1
1
1
1
1
1
1
1
1
1
1
1
1
1
1
1
1
1
1
1
1
1
1
1
1
1
1
1
1
1
1
1
1
1
1
1
1
1
1
1.00008
1.02083
1
1
1
1
1
1
1
1
1
1
1
1
1
1
1
1
1
1
1
1
1
1
1
1
1
1
1
1
1
1
1
1
1
1
1
1
1
1
1
1
1
1
1
1
1
1
1
1.0002
1
1
1
1
1
1
1
1
1
1
1
1
1
1
1
1
1
1
1
1
1
1
1
1
1
1
1
1
1
1
1
1
1
1
1
1
1
1
1
1
1
1
1
1
1
1
1
1
1
1
1
1
1
1
1
1
1
1
1
1
1
1
1
1
1
1
1
1
1
1
1
1
1
1
1
1
1
1
1
1
1
1
1
1
1
1
1
1
1
1
1
1
1
1
1
1
1
1
1
1
1
1
1
1
1
1
1
1
1
1
1
1
1
1
1
1
1
1
1
1
1
1
1
1
1
1
1
1
1
1
1
1
1
1
1
1
1
1
1
1
1
1
1
1
1
1
1
1
1
1
1
1
1
1
1
1
1
1
1
1
1
1
1
1
1
1
1
1
1
1
1
1
1
1
1
1
1
1
1
1
1
1
1
1
1
1
1
1
1
1
1
1
1
1
1
1
1
1
1
1
1
1
1
1
1
1
1
1
1
1
1
1
1
1
1
1
1
1
1
1
1
1
1
1
1
1
1
1
1
1
1
1
1
1
1
1
1
1
1
1
1
1
1
1
1
1
1
1
1
1
1
1
1
1
1
1
1
1
1
1
1
1
1
1
1
1
1
1
1
1
1
1
1
1
1
1
1
1
1
1
1
1
1
1
1
1
1
1
1
1
1
1
1
1
1
1
1
1
1
1
1
1
1
1
1
1
1
1
1
1
1
1
1
1
1
1
1
1
1
1
1
1
1
1
1
1
1
1
1
1
1
1
1
1
1
1
1
1
1
1
1
1
1
1
1
1
1
1
1
1
1
1
1
1
1
1
1
1
1
1
1
1
1
1
1
1
1
1
1
1
1
1
1
1
1
1
1
1
1
1
1
1
1
1
1
1
1
1
1
1
1
1
1
1
1
1
1
1
1
1
1
1
1
1
1
1
1
1
1
1
1
1
1
1
1
1
1
1
1
1
1
1
1
1
1
1
1
1
1
1
1
1
1
1
1
1
1
1
1
1
1
1
1
1
1
1
1
1
1
1
1
1
1
1
1
1
1
1
1
1
1
1
1
1
1
1
1
1
1
1
1
1
1
1
1
1
1
1
1
1
1
1
1
1
1
1
1
1
1
1
1
1
1
1
1
1
1
1
1
1
1
1
1
1
1
1
1
1
1
1
1
1
1
1
1
1
1
1
1
1
1
1
1
1
1
1
1
1
1
1
1
1
1
1
1
1
1
1
1
1
1
1
1
1
1
1
1
1
1
1
1
1
1
1
1
1
1
1
1
1
1
1
1
1
1
1
1
1
1
1
1
1
1
1
1
1
1
1
1
1
1
1
1
1
1
1
1
1
1
1
1
1
1
1
1
1
1
1
1
1
1
1
1
1
1
1
1
1
1
1
1
1
1
1
1
1
1
1
1
1
1
1
1
1
1
1
1
1
1
1
1
1
1
1
1
1
1
1
1
1
1
1
1
1
1
1
1
1
1
1
1
1
1
1
1
1
1
1
1
1
1
1
1
1
1
1
1
1
1
1
1
1
1
1
1
1
1
1
1
1
1
1
1
1
1
1
1
1
1
1
1
1
1
1
1
1
1
1
1
1
1
1
1
1
1
1
1
1
1
1
1
1
1
1
1
1
1
1
1
1
1
1
1
1
1
1
1
1
1
1
1
1
1
1
1
1
1
1
1
1
1
1
1
1
1
1
1
1
1
1
1
1
1
1
1
1
1
1
1
1
1
1
1
1
1
1
1
1
1
1
1
1
1
1
1
1
1
1
1
1
1
1
1
1
1
1
1
1
1
1
1
1
1
1
1
1
1
1
1
1
1
1
1
1
1
1
1
1
1
1
1
1
1
1
1
1
1
1
1
1
1
1
1
1
1
1
1
1
1
1
1
1
1
1
1
1
1
1
1
1
1
1
1
1
1
1
1
1
1
1
1
1
1
1
1
1
1
1
1
1
1
1
1
1
1
1
1
1
1
1
1
1
1
1
1
1
1
1
1
1
1
1
1
1
1
1
1
1
1
1
1
1
1
1
1
1
1
1
1
1
1
1
1
1
1
1
1
1
1
1
1
1
1
1
1
1
1
1
1
1
1
1
1
1
1
1
1
1
1
1
1
1
1
1
1
1
1
1
1
1
1
1
1
1
1
1
1
1
1
1
1
1
1
1
1
1
1
1
1
1
1
1
1
1
1
1
1
1
1
1
1
1
1
1
1
1
1
1
1
1
1
1
1
1
1
1
1
1
1
1
1
1
1
1
1
1
1
1
1
1
1
1
1
1
1
1
1
1
1
1
1
1
1
1
1
1
1
1
1
1
1
1
1
1
1
1
1
1
1
1
1
1
1
1
1
1
1
1
1
1
1
1
1
1
1
1
1
1
1
1
1
1
1
1
1
1
1
1
1
1
1
1
1
1
1
1
1
1
1
1
1
1
1
1
1
1
1
1
1
1
1
1
1
1
1
1
1
1
1
1
1
1
1
1
1
1
1
1
1
1
1
1
1
1
1
1
1
1
1
1
1
1
1
1
1
1
1
1
1
1
1
1
1
1
1
1
1
1
1
1
1
1
1
1
1
1
1
1
1
1
1
1
1
1
1
1
1
1
1
1
1
1
1
1
1
1
1
1
1
1
1
1
1
1
1
1
1
1
1
1
1
1
1
1
1
1
1
1
1
1
1
1
1
1
1
1
1
1
1
1
1
1
1
1
1
1
1
1
1
1
1
1
1
1
1
1
1
1
1
1
1
1
1
1
1
1
1
1
1
1
1
1
1
1
1
1
1
1
1
1
1
1
1
1
1
1
1
1
1
1
1
1
1
1
1
1
1
1
1
1
1
1
1
1
1
1
1
1
1
1
1
1
1
1
1
1
1
1
1
1
1
1
1
1
1
1
1
1
1
1
1
1
1
1
1
1
1
1
1
1
1
1
1
1
1
1
1
1
1
1
1
1
1
1
1
1
1
1
1
1
1
1
1
1
1
1
1
1
1
1
1
1
1
1
1
1
1
1
1
1
1
1
1
1
1
1
1
1
1
1
1
1
1
1
1
1
1
1
1
1
1
1
1
1
1
1
1
1
1
1
1
1
1
1
1
1
1
1
1
1
1
1
1
1
1
1
1
1
1
1
1
1
1
1
1
1
1
1
1
1
1
1
1.88433
1.27001
0.915336
0.661842
0.83931
1.11105
1.3208
1.37883
1.42631
1.60685
1.84071
1.86845
1.8665
1.84737
1.83255
1.84185
1.87997
1.92366
1.96827
2.02629
2.03585
2.01781
1.96842
1.93671
1.93765
1.94603
1.96036
1.96404
1.95612
1.93797
1.93582
1.93898
1.95072
1.96442
1.96628
1.96401
1.9572
1.94833
1.94641
1.94731
1.95244
1.9591
1.95938
1.95829
1.95618
1.95367
1.95398
1.95552
1.95774
1.96008
1.96018
1.95886
1.95562
1.95244
1.95084
1.95057
1.95031
1.94867
1.94426
1.93607
1.92664
1.91866
1.91277
1.91042
1.91003
1.91002
1.91079
1.91334
1.91611
1.91697
1.91693
1.91408
1.90544
1.89619
1.89183
1.88967
1.8893
1.89248
1.90119
1.90645
1.90481
1.90055
1.89194
1.87424
1.86047
1.85629
1.85399
1.85375
1.85664
1.8601
1.85943
1.85402
1.84522
1.83531
1.83079
1.8306
1.83237
1.83688
1.84353
1.8507
1.85455
1.85594
1.85508
1.85265
1.85283
1.85704
1.86189
1.86683
1.8732
1.8806
1.88585
1.88801
1.88784
1.88443
1.88042
1.87716
1.87423
1.87282
1.87307
1.87644
1.88063
1.88173
1.88197
1.88075
1.87677
1.87247
1.86984
1.86661
1.86271
1.85867
1.85471
1.85056
1.84554
1.83901
1.83106
1.82336
1.81199
1.79281
1.76225
1.71995
1.67949
1.66156
1.65794
1.65626
1.65513
1.65345
1.6489
1.63852
1.61969
1.5904
1.54987
1.49778
1.43074
1.34001
1.21794
1.08596
1.00343
0.982918
0.979941
0.978793
0.978764
0.979039
0.980547
0.985772
0.988786
0.990168
0.992122
0.994223
0.996
0.997362
0.998656
1.00068
1.00267
1.00323
1.00366
1.0041
1.0044
1.00461
1.00459
1.00453
1.00462
1.00535
1.00706
1.00817
1.00815
1.00779
1.00741
1.00714
1.00697
1.00693
1.00693
1.00699
2.16027
1.8667
1.65545
1.42499
1.27678
1.28883
1.30921
1.2701
1.26612
1.30537
1.38537
1.45113
1.46681
1.48772
1.52771
1.56946
1.61269
1.67362
1.72842
1.77639
1.82237
1.83597
1.83
1.83329
1.84563
1.86101
1.8815
1.88621
1.87767
1.86889
1.87138
1.87896
1.89339
1.90709
1.90867
1.90708
1.90426
1.90234
1.9016
1.90182
1.9044
1.90834
1.90869
1.9099
1.91248
1.91415
1.91591
1.91908
1.92297
1.92624
1.92789
1.92794
1.92725
1.9267
1.92593
1.92502
1.92395
1.9219
1.91762
1.91072
1.90308
1.89649
1.89162
1.88866
1.88803
1.88806
1.88879
1.89118
1.89539
1.89923
1.90161
1.90221
1.9006
1.8946
1.88659
1.88052
1.87719
1.87687
1.88046
1.88249
1.88091
1.87856
1.87463
1.86885
1.8613
1.85335
1.84768
1.84384
1.84277
1.84283
1.84156
1.83753
1.83362
1.83137
1.82887
1.82637
1.82582
1.82732
1.83078
1.83445
1.83833
1.8426
1.84641
1.84969
1.85183
1.85282
1.85415
1.85758
1.86241
1.86693
1.87228
1.87801
1.88069
1.88108
1.8802
1.87534
1.8693
1.86722
1.86659
1.86736
1.87022
1.87448
1.87595
1.87583
1.87466
1.87079
1.865
1.86166
1.85823
1.85358
1.84811
1.84235
1.83835
1.83542
1.8304
1.82266
1.81189
1.79363
1.76333
1.72218
1.68115
1.65959
1.65463
1.65224
1.6499
1.64729
1.64224
1.63155
1.61206
1.5822
1.54112
1.48762
1.42059
1.33748
1.23045
1.10111
1.00388
0.978115
0.977535
0.978022
0.979039
0.979845
0.981826
0.985168
0.986838
0.988399
0.990464
0.99258
0.99434
0.995809
0.997602
0.999712
1.00145
1.00249
1.00304
1.00348
1.0038
1.00416
1.00429
1.0043
1.0044
1.00498
1.00643
1.00768
1.00777
1.00748
1.00715
1.00694
1.00685
1.00684
1.00684
1.00691
2.20718
1.92942
1.80748
1.73328
1.59186
1.48977
1.43142
1.3343
1.27186
1.28357
1.31355
1.31564
1.31864
1.33782
1.36116
1.38021
1.39782
1.41911
1.45815
1.49863
1.54718
1.58847
1.62142
1.65828
1.6891
1.71682
1.74523
1.75788
1.75897
1.76
1.76363
1.77227
1.78766
1.79671
1.79614
1.79349
1.79365
1.79558
1.79913
1.80254
1.80553
1.80574
1.80585
1.80825
1.81451
1.82037
1.8248
1.82845
1.83081
1.83292
1.83585
1.84001
1.84552
1.85202
1.85432
1.8544
1.8536
1.85198
1.85006
1.84772
1.84461
1.84079
1.83617
1.83184
1.83052
1.83071
1.83168
1.83355
1.83693
1.84149
1.84649
1.85149
1.85381
1.85382
1.85354
1.85208
1.8482
1.8421
1.83523
1.82974
1.82606
1.82396
1.82395
1.82677
1.8274
1.82638
1.82427
1.81898
1.81003
1.80088
1.79529
1.7931
1.79388
1.79734
1.801
1.8036
1.80458
1.80422
1.80127
1.79846
1.79926
1.80309
1.81066
1.8203
1.82716
1.83226
1.83649
1.83707
1.83555
1.8345
1.83747
1.84374
1.8507
1.85726
1.85889
1.85852
1.85732
1.85355
1.8473
1.84472
1.84519
1.84626
1.84926
1.85304
1.854
1.85393
1.85336
1.85021
1.84347
1.83745
1.83099
1.82387
1.81809
1.81483
1.81242
1.80807
1.80008
1.78571
1.76118
1.72543
1.6862
1.65933
1.64913
1.64482
1.63965
1.63306
1.62589
1.61361
1.59289
1.5627
1.52274
1.47347
1.41425
1.34059
1.24781
1.1327
1.02583
0.980888
0.976414
0.976747
0.977845
0.981037
0.98543
0.986891
0.987746
0.989371
0.991528
0.993624
0.995335
0.99676
0.998632
1.0015
1.00328
1.00349
1.00375
1.004
1.00413
1.00436
1.00463
1.00473
1.00482
1.00525
1.00651
1.00774
1.00785
1.00759
1.00727
1.00709
1.00704
1.00703
1.00704
1.00711
2.21747
2.02858
1.89651
1.81138
1.71734
1.64889
1.60425
1.50238
1.39737
1.38547
1.37543
1.36876
1.36134
1.34645
1.32052
1.30779
1.30977
1.31133
1.3208
1.34164
1.37345
1.40572
1.44347
1.49084
1.52926
1.55356
1.57833
1.59461
1.61607
1.63926
1.65301
1.66674
1.68544
1.69337
1.6917
1.68892
1.68871
1.68958
1.6914
1.69195
1.69117
1.68881
1.68918
1.69355
1.70276
1.71159
1.7188
1.72277
1.72344
1.72391
1.7255
1.72938
1.73626
1.74645
1.75233
1.75397
1.75441
1.75433
1.75564
1.75928
1.76203
1.762
1.75974
1.75571
1.75322
1.75294
1.75396
1.7571
1.76177
1.76724
1.77258
1.7764
1.77933
1.78204
1.78369
1.78381
1.78298
1.77922
1.77249
1.76561
1.76062
1.75894
1.75893
1.76018
1.76344
1.76468
1.76433
1.76127
1.75271
1.744
1.73955
1.73763
1.73739
1.73969
1.74437
1.74867
1.75169
1.75258
1.75199
1.75127
1.75164
1.75369
1.75858
1.76611
1.77326
1.77946
1.78527
1.78964
1.79066
1.79146
1.79374
1.79851
1.80453
1.80971
1.81308
1.81502
1.81524
1.81407
1.81197
1.81108
1.80996
1.8089
1.80874
1.8094
1.81006
1.81131
1.81269
1.81268
1.80959
1.80711
1.80408
1.79874
1.7911
1.78379
1.77907
1.77462
1.76832
1.75823
1.74183
1.71717
1.68676
1.65839
1.64022
1.62989
1.61999
1.61001
1.59942
1.58543
1.56477
1.53444
1.49385
1.44673
1.39547
1.33439
1.25472
1.15808
1.05667
0.991591
0.975832
0.975001
0.977299
0.983763
0.986872
0.987135
0.987731
0.988861
0.990723
0.992901
0.994966
0.996853
0.998951
1.00233
1.00421
1.00431
1.00431
1.00428
1.00415
1.00417
1.00437
1.00455
1.00477
1.00527
1.00644
1.00761
1.00775
1.00752
1.00723
1.00713
1.0071
1.0071
1.0071
1.0072
2.22038
2.08286
1.98093
1.89395
1.8001
1.73884
1.69282
1.62108
1.54133
1.49678
1.45493
1.42388
1.41363
1.39403
1.36287
1.34389
1.32826
1.30946
1.30979
1.32173
1.31872
1.30976
1.31056
1.32316
1.35218
1.3887
1.43211
1.47103
1.50653
1.53961
1.55719
1.56922
1.58104
1.58981
1.59551
1.60322
1.61078
1.61538
1.62081
1.62138
1.61887
1.61497
1.61497
1.61883
1.62544
1.63017
1.63515
1.63825
1.63744
1.63487
1.63496
1.6377
1.64485
1.65581
1.6643
1.66854
1.67034
1.67206
1.67439
1.67898
1.68358
1.6847
1.68388
1.68161
1.67918
1.6777
1.67762
1.67995
1.68542
1.69202
1.69799
1.70192
1.70535
1.70773
1.70799
1.70781
1.70695
1.70345
1.69575
1.6893
1.68824
1.68832
1.68926
1.69206
1.69431
1.6943
1.6935
1.68861
1.67924
1.67359
1.67266
1.67255
1.67398
1.6775
1.68052
1.68263
1.68342
1.68339
1.68372
1.68586
1.68917
1.69381
1.69955
1.7041
1.70798
1.71228
1.71622
1.71886
1.72165
1.72568
1.73173
1.73875
1.74582
1.75113
1.75382
1.75419
1.75281
1.75232
1.75255
1.75296
1.75425
1.75584
1.75589
1.75534
1.7547
1.75418
1.75219
1.7499
1.74954
1.75006
1.74952
1.74773
1.74511
1.74155
1.73622
1.72924
1.72178
1.71309
1.70215
1.68889
1.67229
1.65168
1.63087
1.61347
1.59737
1.58071
1.56285
1.54235
1.51713
1.48514
1.44592
1.40131
1.35406
1.30396
1.24383
1.16513
1.07436
1.00235
0.978084
0.976833
0.97956
0.986187
0.987731
0.987968
0.988498
0.988994
0.989703
0.991481
0.994135
0.997131
1.00015
1.00243
1.00363
1.00413
1.00447
1.00451
1.00443
1.00435
1.00431
1.00431
1.00449
1.00523
1.00657
1.0075
1.00754
1.00735
1.00717
1.00713
1.00711
1.00711
1.00713
1.00726
2.23233
2.12089
2.02958
1.9567
1.87636
1.81643
1.75547
1.67761
1.61519
1.57998
1.55214
1.51374
1.47746
1.44214
1.40984
1.39205
1.37398
1.34657
1.33245
1.32453
1.31246
1.29796
1.28924
1.28272
1.28344
1.29061
1.30587
1.3368
1.37218
1.41506
1.45286
1.47322
1.49249
1.50982
1.52555
1.54046
1.5492
1.55338
1.55904
1.56515
1.56665
1.56796
1.57185
1.57849
1.58365
1.58395
1.58419
1.58422
1.58267
1.58022
1.58063
1.58371
1.58986
1.59911
1.6073
1.61115
1.61232
1.61227
1.6129
1.61508
1.6185
1.62194
1.62427
1.62545
1.62616
1.62673
1.6274
1.62906
1.63232
1.63562
1.63741
1.63897
1.64197
1.64463
1.64564
1.64537
1.64517
1.6442
1.64078
1.63583
1.63283
1.63137
1.63086
1.63106
1.6312
1.63068
1.62852
1.62447
1.62035
1.6177
1.61723
1.61769
1.61883
1.61988
1.62042
1.62048
1.62055
1.62156
1.62422
1.62818
1.63282
1.63765
1.64127
1.64348
1.64575
1.64807
1.64965
1.65207
1.65686
1.6626
1.66929
1.67631
1.68307
1.68813
1.68903
1.6885
1.68812
1.68843
1.68898
1.69068
1.69366
1.69486
1.69495
1.69469
1.69317
1.69051
1.68648
1.68423
1.68489
1.68609
1.68588
1.68532
1.68484
1.68326
1.67857
1.67084
1.66163
1.65283
1.64599
1.64097
1.63523
1.62583
1.61241
1.59628
1.57768
1.55616
1.53157
1.50358
1.471
1.4327
1.38919
1.34252
1.29508
1.24786
1.19883
1.14191
1.07493
1.01304
0.984353
0.981087
0.982554
0.987417
0.989036
0.989018
0.989268
0.989311
0.989356
0.990298
0.992834
0.996493
1.00078
1.00373
1.00449
1.00468
1.00485
1.00481
1.00455
1.00425
1.0041
1.00409
1.00426
1.00517
1.00669
1.00729
1.00723
1.00708
1.00701
1.00701
1.00702
1.00704
1.00707
1.00726
2.23709
2.1498
2.07191
1.99887
1.92971
1.86784
1.80449
1.74347
1.68675
1.64256
1.59668
1.55989
1.52988
1.49799
1.45788
1.43171
1.40973
1.38921
1.37345
1.35911
1.34328
1.32481
1.3107
1.29936
1.28802
1.28713
1.29131
1.29119
1.28893
1.29494
1.31492
1.33869
1.36936
1.41164
1.44435
1.47767
1.49187
1.49946
1.50947
1.51802
1.52199
1.52612
1.53247
1.53988
1.547
1.55063
1.55144
1.55169
1.5512
1.55198
1.55524
1.55908
1.56398
1.56795
1.57016
1.57014
1.56924
1.56851
1.56841
1.56979
1.57392
1.57977
1.58669
1.59209
1.59609
1.59909
1.60005
1.59822
1.59375
1.59198
1.59209
1.59407
1.59727
1.6003
1.60338
1.60364
1.60376
1.60427
1.60399
1.60122
1.59606
1.59181
1.58892
1.58635
1.58453
1.58296
1.58124
1.58044
1.58001
1.57951
1.57843
1.57639
1.5741
1.57234
1.5714
1.57143
1.57283
1.57613
1.58097
1.58615
1.58971
1.59111
1.59181
1.5921
1.59209
1.59303
1.59629
1.6011
1.608
1.61555
1.62185
1.6265
1.62799
1.6276
1.62561
1.6253
1.62666
1.62849
1.63145
1.63663
1.63897
1.63891
1.63845
1.63701
1.63306
1.6264
1.62218
1.6221
1.62242
1.62299
1.62354
1.62376
1.62356
1.62154
1.61662
1.60894
1.5984
1.58711
1.58061
1.58043
1.58047
1.57923
1.57523
1.56701
1.55292
1.53234
1.50575
1.47333
1.43468
1.39036
1.34197
1.29065
1.23735
1.18441
1.13548
1.09223
1.05123
1.01313
0.990751
0.98614
0.986672
0.9896
0.990895
0.99055
0.990014
0.989552
0.989376
0.989802
0.991719
0.995298
1.00034
1.00427
1.00504
1.00504
1.00508
1.00494
1.00445
1.00395
1.0037
1.00365
1.00394
1.00528
1.00699
1.00743
1.00735
1.00724
1.00718
1.00715
1.00715
1.00717
1.00722
1.00743
2.24747
2.17374
2.10213
2.02918
1.96975
1.90802
1.84729
1.79007
1.74399
1.69537
1.64696
1.59525
1.56265
1.53325
1.50524
1.484
1.46215
1.43407
1.41661
1.39973
1.38355
1.36592
1.34778
1.33063
1.31296
1.30513
1.30047
1.29115
1.27717
1.27279
1.27321
1.27432
1.27801
1.29267
1.31949
1.3538
1.39083
1.42122
1.44392
1.46395
1.47652
1.48772
1.49687
1.50503
1.51307
1.5194
1.52265
1.52417
1.52658
1.53279
1.53965
1.54326
1.54405
1.54489
1.54573
1.54405
1.53821
1.53558
1.53633
1.53975
1.54512
1.55416
1.56523
1.57203
1.57515
1.57701
1.57723
1.57402
1.56674
1.5629
1.56265
1.56426
1.56767
1.57282
1.57729
1.57781
1.57796
1.57819
1.57757
1.57466
1.56982
1.56529
1.5614
1.5575
1.55429
1.55287
1.55235
1.55193
1.55122
1.54988
1.54701
1.54289
1.5401
1.53928
1.53927
1.53997
1.54215
1.54625
1.55067
1.55318
1.55378
1.55394
1.55348
1.55353
1.55478
1.55717
1.56199
1.56923
1.57573
1.57902
1.57971
1.57939
1.57704
1.57403
1.57356
1.57532
1.57827
1.58198
1.58811
1.5919
1.59178
1.59107
1.58932
1.58498
1.57995
1.57473
1.57102
1.56988
1.56951
1.56909
1.56804
1.56644
1.56472
1.56231
1.55823
1.5513
1.54133
1.5306
1.52342
1.52172
1.52231
1.52392
1.52398
1.52231
1.51589
1.5018
1.47858
1.44577
1.40468
1.35826
1.30766
1.25111
1.18773
1.12436
1.07434
1.04288
1.02294
1.00737
0.996088
0.991113
0.990586
0.991512
0.992776
0.992465
0.991165
0.99043
0.990448
0.990922
0.992466
0.995516
1.0005
1.00454
1.00533
1.0053
1.00523
1.00493
1.00421
1.00336
1.00302
1.00305
1.00378
1.00579
1.00727
1.00738
1.0073
1.00721
1.00721
1.00721
1.0072
1.00721
1.00725
1.00748
2.26055
2.1942
2.12365
2.05921
2.00117
1.94211
1.88405
1.83217
1.7807
1.73169
1.67979
1.6413
1.61038
1.5751
1.54071
1.517
1.49785
1.47841
1.4593
1.43823
1.41452
1.39506
1.38011
1.36585
1.35203
1.33952
1.33003
1.31673
1.29595
1.28349
1.2807
1.27588
1.26943
1.27119
1.27419
1.27411
1.28027
1.2983
1.32365
1.36125
1.40096
1.4413
1.46361
1.47031
1.47801
1.48311
1.48666
1.49255
1.49957
1.51084
1.52152
1.52536
1.52623
1.52671
1.52677
1.52592
1.52134
1.51647
1.51637
1.51944
1.52631
1.53652
1.54531
1.5502
1.55311
1.55446
1.5543
1.55256
1.54994
1.5476
1.54613
1.54635
1.54936
1.55533
1.55868
1.55867
1.55835
1.55757
1.55597
1.55339
1.55006
1.54649
1.54292
1.53927
1.53575
1.53295
1.53098
1.5294
1.52774
1.52538
1.52166
1.51793
1.51718
1.51729
1.5177
1.51878
1.52098
1.52367
1.52514
1.52527
1.52521
1.52498
1.52522
1.52619
1.52852
1.53286
1.53817
1.54151
1.54262
1.54282
1.54119
1.5373
1.53518
1.53519
1.537
1.54037
1.54547
1.55114
1.55358
1.5526
1.55006
1.54687
1.54245
1.53875
1.53682
1.53381
1.52961
1.52761
1.52661
1.52408
1.51969
1.51507
1.51111
1.50783
1.50418
1.49901
1.49213
1.48478
1.47841
1.4736
1.47178
1.47188
1.47157
1.47004
1.46702
1.45931
1.44226
1.41358
1.37524
1.32969
1.27655
1.21474
1.1457
1.08037
1.03768
1.01889
1.0095
1.00284
0.99755
0.99424
0.992663
0.992764
0.994001
0.994112
0.993059
0.992041
0.992028
0.992287
0.993231
0.996208
1.00115
1.00438
1.00502
1.0051
1.00497
1.0046
1.00394
1.00334
1.00312
1.00317
1.00424
1.00651
1.00735
1.0073
1.00721
1.00718
1.00718
1.0072
1.00724
1.00728
1.00733
1.00757
2.27422
2.21132
2.1446
2.08646
2.02827
1.96928
1.91555
1.86499
1.812
1.76651
1.72005
1.67846
1.64656
1.61663
1.58759
1.56206
1.53214
1.50766
1.48939
1.47157
1.45133
1.43123
1.41496
1.39875
1.38285
1.37311
1.36323
1.34904
1.3275
1.30868
1.3026
1.2944
1.28284
1.27633
1.27349
1.26484
1.25841
1.25855
1.26183
1.27116
1.29272
1.32633
1.36452
1.39554
1.42262
1.44208
1.45207
1.46388
1.472
1.48119
1.49465
1.50091
1.50411
1.50659
1.50799
1.50817
1.5075
1.5066
1.50758
1.51071
1.51533
1.51766
1.52045
1.52434
1.52818
1.52983
1.53058
1.53161
1.53352
1.53562
1.53621
1.53678
1.53923
1.54185
1.54251
1.54243
1.5417
1.54008
1.53815
1.53628
1.53405
1.53134
1.52833
1.52511
1.52175
1.51838
1.51519
1.51233
1.50954
1.506
1.50224
1.50029
1.49955
1.49961
1.5001
1.50103
1.50214
1.50264
1.50262
1.50261
1.50261
1.5027
1.50334
1.50481
1.50748
1.51058
1.51145
1.51142
1.51116
1.50973
1.50756
1.50548
1.50548
1.50779
1.51283
1.51785
1.5206
1.52101
1.51819
1.51297
1.50892
1.50532
1.5027
1.50128
1.49997
1.49802
1.49461
1.49201
1.48957
1.48479
1.47817
1.47099
1.46439
1.45967
1.45677
1.45436
1.45112
1.44621
1.44002
1.43357
1.4281
1.42393
1.4201
1.41652
1.41362
1.40812
1.3953
1.3722
1.33855
1.29463
1.24123
1.1793
1.11242
1.05621
1.02474
1.00886
1.00172
0.99834
0.996253
0.994255
0.993355
0.994252
0.996534
0.996766
0.995857
0.994537
0.994242
0.994276
0.994919
0.997447
1.00148
1.00387
1.00442
1.0045
1.00428
1.00386
1.00336
1.00295
1.00288
1.00332
1.00523
1.00718
1.0074
1.00724
1.00712
1.00712
1.00713
1.00719
1.00728
1.00734
1.00739
1.00763
2.28354
2.22408
2.16571
2.10938
2.05133
1.9944
1.9452
1.89416
1.84521
1.79762
1.75984
1.71986
1.68538
1.65324
1.6249
1.59713
1.57091
1.54644
1.52358
1.49965
1.4737
1.45868
1.44504
1.43185
1.414
1.40209
1.3899
1.37448
1.35554
1.34123
1.33246
1.32256
1.30878
1.29563
1.28727
1.27665
1.26574
1.26065
1.26066
1.26226
1.26234
1.26604
1.27601
1.29104
1.31051
1.34013
1.3743
1.40872
1.43831
1.45109
1.46182
1.46895
1.47293
1.47827
1.48521
1.48793
1.49066
1.49655
1.50281
1.50586
1.50642
1.50628
1.50461
1.50318
1.5026
1.5029
1.50525
1.5109
1.51823
1.52442
1.52752
1.529
1.52955
1.52873
1.52786
1.52786
1.52761
1.52639
1.52411
1.52178
1.51959
1.51706
1.51393
1.5105
1.50735
1.50466
1.50223
1.49972
1.49638
1.49119
1.48672
1.48469
1.48326
1.48273
1.48289
1.48342
1.48391
1.48408
1.48399
1.48389
1.48378
1.4836
1.4838
1.48448
1.48543
1.48556
1.48532
1.48487
1.48418
1.48277
1.48185
1.48183
1.48348
1.48854
1.49239
1.49246
1.49095
1.48759
1.48105
1.47514
1.47232
1.47096
1.46999
1.4686
1.46692
1.46534
1.46237
1.45888
1.45516
1.44925
1.44106
1.4317
1.42269
1.41659
1.41497
1.41481
1.41323
1.40841
1.40156
1.39406
1.38673
1.37955
1.37241
1.36603
1.3609
1.35421
1.34289
1.32353
1.29236
1.2503
1.20077
1.14472
1.08718
1.04341
1.01621
1.00242
0.997946
0.995335
0.994099
0.993689
0.994056
0.99647
0.998788
0.998731
0.997649
0.996374
0.996036
0.996062
0.996609
0.998668
1.00178
1.00327
1.00359
1.0036
1.00344
1.00333
1.00319
1.00302
1.00307
1.00403
1.00632
1.00755
1.00756
1.00736
1.00721
1.00717
1.00717
1.00717
1.00723
1.0073
1.00737
1.00763
2.28867
2.23537
2.18359
2.129
2.07084
2.02054
1.97205
1.92302
1.87319
1.8336
1.79409
1.75632
1.72133
1.69154
1.66169
1.63057
1.60003
1.57794
1.55577
1.53259
1.50677
1.48842
1.47388
1.45839
1.44098
1.43068
1.41877
1.40383
1.38268
1.36922
1.35974
1.34897
1.33606
1.32314
1.31057
1.29782
1.28315
1.27531
1.27483
1.27266
1.26714
1.266
1.26602
1.26234
1.26222
1.26582
1.27927
1.30605
1.34472
1.38234
1.41234
1.43186
1.43982
1.44407
1.44966
1.45811
1.46935
1.48581
1.49817
1.50055
1.50127
1.50139
1.49792
1.48696
1.48095
1.48144
1.48559
1.49404
1.50605
1.51507
1.51769
1.51871
1.5178
1.51449
1.51392
1.51441
1.515
1.5151
1.51329
1.51036
1.50674