/*--------------------------------*- C++ -*----------------------------------*\
  =========                 |
  \\      /  F ield         | OpenFOAM: The Open Source CFD Toolbox
   \\    /   O peration     | Website:  https://openfoam.org
    \\  /    A nd           | Version:  7
     \\/     M anipulation  |
\*---------------------------------------------------------------------------*/
FoamFile
{
    version     2.0;
    format      ascii;
    class       volVectorField;
    location    "0.7";
    object      U;
}
// * * * * * * * * * * * * * * * * * * * * * * * * * * * * * * * * * * * * * //

dimensions      [0 1 -1 0 0 0 0];

internalField   nonuniform List<vector> 
16128
(
(3 5.09843e-18 0)
(3 -2.34185e-17 0)
(3 -5.64007e-17 0)
(3 -4.50808e-16 0)
(3 -6.91605e-16 0)
(3 -8.33078e-16 0)
(3 -3.09161e-16 0)
(3 9.23722e-16 0)
(3 8.43221e-16 0)
(3 1.17902e-15 0)
(3 1.19105e-15 0)
(3 9.64817e-16 0)
(3 4.00594e-16 0)
(3 -5.04623e-16 0)
(3 -3.84153e-16 0)
(3 7.04923e-16 0)
(3 6.95727e-16 0)
(3 6.47925e-16 0)
(3 6.40943e-16 0)
(3 8.58777e-16 0)
(3 9.9466e-16 0)
(3 2.12454e-15 0)
(3 2.31824e-15 0)
(3 8.77594e-16 0)
(3 2.66551e-16 0)
(3 2.40103e-16 0)
(3 1.17894e-15 0)
(3 1.53337e-15 0)
(2.33579 0.00663673 0)
(0.790304 0.0131754 0)
(0.628592 0.0133546 0)
(0.601263 0.0121736 0)
(0.568791 0.0128518 0)
(0.530829 0.0148096 0)
(0.494247 0.0158895 0)
(0.465119 0.0164123 0)
(0.438513 0.0170362 0)
(0.408441 0.0172131 0)
(0.374095 0.0171223 0)
(0.338481 0.0171427 0)
(0.303655 0.017366 0)
(0.273575 0.0176647 0)
(0.245217 0.0178786 0)
(0.212856 0.0185626 0)
(0.174825 0.0199338 0)
(0.131036 0.0216938 0)
(0.0818021 0.0232785 0)
(0.0286685 0.0245173 0)
(3 6.08537e-17 0)
(3 -8.49283e-17 0)
(3 -3.3954e-17 0)
(3 -1.01821e-16 0)
(3 -4.47391e-16 0)
(3 -4.70224e-16 0)
(3 -2.36781e-16 0)
(3 2.9592e-16 0)
(3 4.91907e-16 0)
(3 9.20599e-16 0)
(3 2.21562e-15 0)
(3 2.72077e-15 0)
(3 2.2898e-15 0)
(3 4.20896e-16 0)
(3 1.3273e-16 0)
(3 6.50242e-16 0)
(3 1.16892e-15 0)
(3 1.09853e-15 0)
(3 7.29061e-16 0)
(3 7.31443e-16 0)
(3 1.24567e-15 0)
(3 2.59688e-15 0)
(3 3.0007e-15 0)
(3 2.6949e-15 0)
(3 1.63296e-15 0)
(3 1.10436e-15 0)
(3 1.13033e-15 0)
(3 1.17992e-15 0)
(2.35484 0.0319179 0)
(0.787775 0.055679 0)
(0.618613 0.0434488 0)
(0.59143 0.0322099 0)
(0.561578 0.0357168 0)
(0.525636 0.0436476 0)
(0.489026 0.0482189 0)
(0.458468 0.0493358 0)
(0.430438 0.0502732 0)
(0.399372 0.0505801 0)
(0.364374 0.0504236 0)
(0.328436 0.0504754 0)
(0.293622 0.0510671 0)
(0.263793 0.0519377 0)
(0.235915 0.0526259 0)
(0.20444 0.0549321 0)
(0.167825 0.0592835 0)
(0.125915 0.0648231 0)
(0.0788357 0.0698486 0)
(0.027761 0.0738901 0)
(3 -3.62405e-18 0)
(3 2.18422e-16 0)
(3 5.66211e-16 0)
(3 1.69006e-15 0)
(3 1.53343e-15 0)
(3 1.66281e-15 0)
(3 9.74429e-16 0)
(3 2.21694e-16 0)
(3 -6.32671e-17 0)
(3 5.23568e-17 0)
(3 -1.05232e-16 0)
(3 4.32361e-16 0)
(3 4.09987e-16 0)
(3 1.12263e-15 0)
(3 6.95312e-16 0)
(3 7.81212e-16 0)
(3 9.57201e-16 0)
(3 -5.76838e-17 0)
(3 -3.10826e-16 0)
(3 -2.0397e-16 0)
(3 2.99135e-16 0)
(3 1.20731e-15 0)
(3 1.65389e-15 0)
(3 2.22112e-15 0)
(3 3.00106e-15 0)
(3 3.1278e-15 0)
(3 2.01492e-15 0)
(3 -2.40531e-16 0)
(2.41277 0.0579973 0)
(0.799097 0.0986677 0)
(0.621251 0.0729755 0)
(0.594299 0.0548373 0)
(0.564374 0.0593566 0)
(0.529668 0.073643 0)
(0.492017 0.0829169 0)
(0.459141 0.0848363 0)
(0.428859 0.0855488 0)
(0.396032 0.085533 0)
(0.359605 0.085191 0)
(0.322405 0.0851547 0)
(0.286469 0.0858245 0)
(0.25542 0.086771 0)
(0.226533 0.0873367 0)
(0.194534 0.0905373 0)
(0.158266 0.0970335 0)
(0.117801 0.10562 0)
(0.0733935 0.113435 0)
(0.0258044 0.120301 0)
(3 -1.66963e-17 0)
(3 1.27281e-16 0)
(3 2.74238e-16 0)
(3 5.1173e-17 0)
(3 -3.94427e-17 0)
(3 3.65885e-16 0)
(3 1.1691e-15 0)
(3 1.78095e-15 0)
(3 9.68774e-16 0)
(3 -5.22511e-17 0)
(3 -1.48917e-15 0)
(3 -1.94889e-15 0)
(3 -1.59565e-15 0)
(3 -6.13408e-16 0)
(3 2.39728e-16 0)
(3 5.63911e-16 0)
(3 -2.25595e-16 0)
(3 -6.17875e-16 0)
(3 -1.6109e-16 0)
(3 -1.98257e-16 0)
(3 1.22344e-16 0)
(3 7.65563e-16 0)
(3 9.76387e-16 0)
(3 6.09425e-16 0)
(3 1.16229e-15 0)
(3 1.32746e-15 0)
(3 6.65667e-16 0)
(3 -8.03604e-16 0)
(2.49627 0.0803192 0)
(0.814562 0.140488 0)
(0.625473 0.0997137 0)
(0.604691 0.0757949 0)
(0.57565 0.0825751 0)
(0.541713 0.103884 0)
(0.501979 0.118742 0)
(0.466587 0.120944 0)
(0.434396 0.120927 0)
(0.400175 0.120851 0)
(0.362627 0.120915 0)
(0.324324 0.121319 0)
(0.287195 0.122488 0)
(0.254371 0.123752 0)
(0.223628 0.124134 0)
(0.189968 0.127814 0)
(0.152791 0.135597 0)
(0.112317 0.145871 0)
(0.0692027 0.154868 0)
(0.0241072 0.163359 0)
(3 7.74409e-18 0)
(3 -3.78476e-18 0)
(3 -9.37344e-16 0)
(3 -1.47896e-15 0)
(3 -1.0178e-15 0)
(3 -5.26805e-16 0)
(3 2.11251e-16 0)
(3 1.86394e-15 0)
(3 2.58912e-15 0)
(3 1.3955e-15 0)
(3 -7.09507e-17 0)
(3 -9.28528e-16 0)
(3 -8.45778e-16 0)
(3 -8.58796e-16 0)
(3 -2.96982e-16 0)
(3 1.31667e-16 0)
(3 3.68327e-18 0)
(3 -2.72875e-16 0)
(3 -6.77702e-17 0)
(3 -5.06263e-17 0)
(3 4.15385e-16 0)
(3 4.92303e-16 0)
(3 6.82945e-16 0)
(3 3.89127e-16 0)
(3 -9.58998e-16 0)
(3 -1.9096e-15 0)
(3 -2.53566e-15 0)
(3 -3.20882e-15 0)
(2.61414 0.101389 0)
(0.843359 0.179651 0)
(0.636257 0.121308 0)
(0.618205 0.0965799 0)
(0.589281 0.110407 0)
(0.551699 0.14029 0)
(0.508336 0.157559 0)
(0.471796 0.157018 0)
(0.439552 0.155314 0)
(0.405668 0.155294 0)
(0.368433 0.156522 0)
(0.329998 0.158091 0)
(0.292338 0.160283 0)
(0.258091 0.162223 0)
(0.225824 0.162706 0)
(0.190565 0.166534 0)
(0.152068 0.174966 0)
(0.110726 0.186273 0)
(0.0675497 0.195271 0)
(0.0233274 0.204441 0)
(3 -6.41413e-17 0)
(3 -2.78654e-16 0)
(3 -9.19388e-16 0)
(3 -8.99934e-16 0)
(3 -5.2922e-16 0)
(3 -5.67554e-16 0)
(3 -5.08427e-16 0)
(3 -3.03202e-16 0)
(3 2.6518e-16 0)
(3 -1.67908e-17 0)
(3 -4.23005e-16 0)
(3 -5.53227e-16 0)
(3 -4.81741e-16 0)
(3 -4.2202e-16 0)
(3 -1.01835e-15 0)
(3 -9.80004e-16 0)
(3 -6.40261e-16 0)
(3 -3.10569e-16 0)
(3 -4.58754e-16 0)
(3 -1.88986e-16 0)
(3 -9.0269e-17 0)
(3 1.49867e-16 0)
(3 8.58939e-17 0)
(3 1.88694e-16 0)
(3 -3.02596e-16 0)
(3 -2.0774e-15 0)
(3 -2.09941e-15 0)
(3 -3.03642e-15 0)
(2.77267 0.106612 0)
(0.896994 0.206405 0)
(0.651748 0.135904 0)
(0.630764 0.122348 0)
(0.600868 0.147956 0)
(0.558121 0.183205 0)
(0.512889 0.196339 0)
(0.477258 0.191118 0)
(0.4458 0.187202 0)
(0.412753 0.188058 0)
(0.376101 0.191651 0)
(0.337477 0.195343 0)
(0.299199 0.199146 0)
(0.263793 0.202148 0)
(0.230594 0.203006 0)
(0.194381 0.20736 0)
(0.154687 0.216131 0)
(0.11198 0.227738 0)
(0.0678064 0.236167 0)
(0.0231992 0.245465 0)
(3 -1.15595e-16 0)
(3 -5.10981e-16 0)
(3 -3.6036e-16 0)
(3 -1.28593e-15 0)
(3 -1.80925e-15 0)
(3 -1.57981e-15 0)
(3 -1.69737e-15 0)
(3 -1.89426e-15 0)
(3 -2.48409e-15 0)
(3 -2.31208e-15 0)
(3 -1.34642e-15 0)
(3 -7.09891e-16 0)
(3 -1.16003e-15 0)
(3 -1.67617e-15 0)
(3 -2.60482e-15 0)
(3 -2.7815e-15 0)
(3 -2.51105e-15 0)
(3 -1.12355e-15 0)
(3 -5.67604e-16 0)
(3 -2.00096e-16 0)
(3 -2.79075e-17 0)
(3 1.48203e-16 0)
(3 -6.49589e-16 0)
(3 -1.51745e-15 0)
(3 -9.96602e-16 0)
(3 -1.1754e-15 0)
(3 -1.56506e-15 0)
(3 -1.27008e-15 0)
(2.92431 0.0637871 0)
(0.975054 0.208646 0)
(0.669049 0.146033 0)
(0.645336 0.158102 0)
(0.608871 0.19481 0)
(0.560777 0.22824 0)
(0.515837 0.233429 0)
(0.482742 0.222653 0)
(0.452447 0.217227 0)
(0.420648 0.219992 0)
(0.384941 0.226756 0)
(0.346395 0.232941 0)
(0.307848 0.238429 0)
(0.271818 0.242721 0)
(0.238261 0.244385 0)
(0.201645 0.249726 0)
(0.160897 0.259223 0)
(0.116299 0.271196 0)
(0.0701221 0.278625 0)
(0.0237295 0.287559 0)
(3 -1.78581e-16 0)
(3 7.84587e-18 0)
(3 4.66378e-16 0)
(3 2.81766e-16 0)
(3 -4.45495e-16 0)
(3 -5.69291e-16 0)
(3 -1.33285e-15 0)
(3 -2.4929e-15 0)
(3 -2.08627e-15 0)
(3 -4.37935e-16 0)
(3 6.00471e-16 0)
(3 6.30104e-16 0)
(3 -8.75208e-17 0)
(3 -1.00372e-15 0)
(3 -1.39032e-15 0)
(3 -1.57675e-15 0)
(3 -1.36741e-15 0)
(3 -5.92807e-16 0)
(3 -6.68845e-16 0)
(3 -3.63359e-17 0)
(3 6.63983e-17 0)
(3 7.63802e-17 0)
(3 -1.33177e-16 0)
(3 -1.10681e-15 0)
(3 -1.05394e-15 0)
(3 -5.6161e-16 0)
(3 -9.90509e-16 0)
(3 -1.58548e-15 0)
(3.00256 0.00571537 0)
(1.09174 0.22112 0)
(0.684228 0.170146 0)
(0.647788 0.203609 0)
(0.606764 0.244844 0)
(0.559798 0.269801 0)
(0.520085 0.265562 0)
(0.490413 0.25125 0)
(0.461737 0.245885 0)
(0.431515 0.251619 0)
(0.396656 0.262001 0)
(0.357841 0.270713 0)
(0.318647 0.277759 0)
(0.281628 0.283657 0)
(0.247473 0.286829 0)
(0.210453 0.29385 0)
(0.168705 0.304634 0)
(0.122237 0.317196 0)
(0.0737871 0.323592 0)
(0.024704 0.331833 0)
(3 -1.72055e-16 0)
(3 3.47589e-16 0)
(3 1.24639e-15 0)
(3 2.4633e-15 0)
(3 1.49693e-15 0)
(3 3.40102e-17 0)
(3 -8.49841e-16 0)
(3 -8.23337e-16 0)
(3 -2.13661e-16 0)
(3 2.19569e-16 0)
(3 6.26274e-16 0)
(3 5.58721e-16 0)
(3 3.86548e-16 0)
(3 3.51163e-16 0)
(3 4.21087e-16 0)
(3 4.66202e-16 0)
(3 3.23771e-16 0)
(3 -2.40617e-16 0)
(3 -7.69064e-16 0)
(3 -5.35451e-16 0)
(3 -7.14998e-16 0)
(3 -8.26909e-16 0)
(3 -3.1343e-16 0)
(3 3.79201e-16 0)
(3 9.75724e-16 0)
(3 1.01039e-15 0)
(3 1.72673e-16 0)
(3 -1.43911e-15 0)
(3.00005 2.79788e-05 0)
(1.25666 0.249373 0)
(0.696231 0.204992 0)
(0.644078 0.251828 0)
(0.602901 0.292062 0)
(0.562718 0.3042 0)
(0.532571 0.291665 0)
(0.505294 0.276291 0)
(0.476918 0.27332 0)
(0.446577 0.283828 0)
(0.410758 0.298575 0)
(0.370759 0.309572 0)
(0.330855 0.317604 0)
(0.293241 0.324901 0)
(0.259224 0.329899 0)
(0.222467 0.339114 0)
(0.179955 0.351977 0)
(0.131383 0.365945 0)
(0.0798114 0.372017 0)
(0.0266296 0.379645 0)
(3 9.11351e-18 0)
(3 4.29281e-16 0)
(3 5.6234e-16 0)
(3 5.34244e-16 0)
(3 4.17175e-16 0)
(3 -7.05372e-16 0)
(3 -2.49278e-16 0)
(3 4.80999e-16 0)
(3 9.51585e-16 0)
(3 1.36989e-15 0)
(3 1.31025e-15 0)
(3 6.69167e-16 0)
(3 1.01752e-15 0)
(3 1.43423e-15 0)
(3 1.46134e-15 0)
(3 1.39415e-15 0)
(3 1.02271e-15 0)
(3 2.11217e-16 0)
(3 -2.87241e-16 0)
(3 -3.32333e-16 0)
(3 -1.33237e-15 0)
(3 -2.21492e-15 0)
(3 -2.38753e-15 0)
(3 -9.29432e-16 0)
(3 -6.54809e-16 0)
(3 -3.72762e-16 0)
(3 -9.55499e-16 0)
(3 -1.07074e-15 0)
(3 1.02556e-08 0)
(1.4807 0.282586 0)
(0.711552 0.247791 0)
(0.647405 0.303771 0)
(0.610597 0.332975 0)
(0.581533 0.329656 0)
(0.557074 0.311398 0)
(0.528267 0.298303 0)
(0.497298 0.30162 0)
(0.463776 0.318978 0)
(0.424898 0.337896 0)
(0.383594 0.349835 0)
(0.343983 0.357829 0)
(0.30653 0.366197 0)
(0.273115 0.373625 0)
(0.236408 0.386105 0)
(0.192613 0.402324 0)
(0.141496 0.418752 0)
(0.0864769 0.42542 0)
(0.0286371 0.432488 0)
(3 1.00289e-16 0)
(3 -1.40191e-18 0)
(3 -6.07643e-16 0)
(3 -7.66821e-16 0)
(3 -8.77113e-16 0)
(3 -4.86121e-16 0)
(3 8.82763e-16 0)
(3 1.69162e-15 0)
(3 2.32324e-15 0)
(3 2.04932e-15 0)
(3 1.64914e-15 0)
(3 1.70097e-15 0)
(3 2.36767e-15 0)
(3 2.51221e-15 0)
(3 2.57854e-15 0)
(3 2.57113e-15 0)
(3 2.63364e-15 0)
(3 2.69849e-15 0)
(3 1.47125e-15 0)
(3 -5.0255e-16 0)
(3 -1.02038e-15 0)
(3 -1.91026e-15 0)
(3 -2.3594e-15 0)
(3 -3.3589e-15 0)
(3 -4.26438e-15 0)
(3 -2.68483e-15 0)
(3 -1.55395e-15 0)
(3 -1.04379e-15 0)
(3 2.52283e-13 0)
(1.78574 0.317139 0)
(0.748883 0.299945 0)
(0.669209 0.347847 0)
(0.638757 0.359636 0)
(0.616079 0.346708 0)
(0.588984 0.329837 0)
(0.554246 0.323961 0)
(0.517274 0.335828 0)
(0.478096 0.359517 0)
(0.436311 0.379546 0)
(0.396503 0.389926 0)
(0.360096 0.397037 0)
(0.324375 0.406771 0)
(0.292522 0.417572 0)
(0.256553 0.434121 0)
(0.211882 0.454751 0)
(0.157746 0.475341 0)
(0.0972929 0.484921 0)
(0.0324218 0.492441 0)
(3 2.41923e-17 0)
(3 -7.71113e-16 0)
(3 -9.76206e-16 0)
(3 -6.55622e-16 0)
(3 -4.0675e-16 0)
(3 6.36713e-16 0)
(3 2.05518e-15 0)
(3 2.45418e-15 0)
(3 1.71321e-15 0)
(3 1.55862e-16 0)
(3 -5.17603e-16 0)
(3 -5.85287e-16 0)
(3 -4.20852e-16 0)
(3 2.77181e-17 0)
(3 1.13877e-15 0)
(3 2.48585e-15 0)
(3 2.7415e-15 0)
(3 1.3023e-15 0)
(3 7.47071e-16 0)
(3 1.9678e-16 0)
(3 -8.80314e-16 0)
(3 -1.72332e-15 0)
(3 -1.48201e-15 0)
(3 -1.48044e-15 0)
(3 -1.711e-15 0)
(3 -1.51231e-15 0)
(3 -6.05712e-16 0)
(3 -7.48329e-16 0)
(3 -1.75857e-15 0)
(2.19182 0.314495 0)
(0.823354 0.341622 0)
(0.708905 0.368795 0)
(0.680037 0.378043 0)
(0.651476 0.368989 0)
(0.615894 0.358879 0)
(0.57364 0.361362 0)
(0.529064 0.379027 0)
(0.486361 0.403761 0)
(0.448395 0.41985 0)
(0.415334 0.426095 0)
(0.383133 0.433236 0)
(0.348453 0.446268 0)
(0.31617 0.462803 0)
(0.278531 0.485661 0)
(0.230621 0.513116 0)
(0.172157 0.539885 0)
(0.10663 0.554059 0)
(0.0346671 0.561864 0)
(3 -1.82158e-16 0)
(3 -2.36228e-16 0)
(3 2.09036e-16 0)
(3 1.95782e-16 0)
(3 4.96218e-16 0)
(3 7.16446e-16 0)
(3 -1.37583e-16 0)
(3 -9.02079e-16 0)
(3 -1.52337e-15 0)
(3 -1.61755e-15 0)
(3 -1.3467e-15 0)
(3 -8.99658e-16 0)
(3 -8.55621e-16 0)
(3 -3.46512e-16 0)
(3 -8.33075e-16 0)
(3 -1.02955e-15 0)
(3 -1.18923e-15 0)
(3 -1.07759e-15 0)
(3 -1.13734e-16 0)
(3 4.02831e-16 0)
(3 9.98033e-17 0)
(3 -3.44647e-17 0)
(3 2.61046e-16 0)
(3 5.36394e-16 0)
(3 7.463e-16 0)
(3 1.82963e-16 0)
(3 3.34469e-16 0)
(3 -1.05115e-16 0)
(3 -4.39544e-16 0)
(2.63665 0.235339 0)
(0.924501 0.364155 0)
(0.738433 0.399852 0)
(0.708284 0.410725 0)
(0.670242 0.405466 0)
(0.624191 0.397453 0)
(0.573863 0.40419 0)
(0.53288 0.4243 0)
(0.500285 0.444794 0)
(0.471975 0.452681 0)
(0.444358 0.456913 0)
(0.413581 0.468014 0)
(0.377946 0.487366 0)
(0.343921 0.511414 0)
(0.305857 0.541394 0)
(0.258627 0.575388 0)
(0.199708 0.608426 0)
(0.127471 0.631563 0)
(0.0435287 0.644053 0)
(3 -9.02421e-17 0)
(3 4.84371e-17 0)
(3 4.64643e-16 0)
(3 5.7152e-16 0)
(3 4.46169e-16 0)
(3 -9.57575e-17 0)
(3 -2.11755e-15 0)
(3 -2.95577e-15 0)
(3 -1.51256e-15 0)
(3 -1.15794e-15 0)
(3 -7.33071e-16 0)
(3 8.96177e-16 0)
(3 9.6347e-16 0)
(3 4.92133e-16 0)
(3 -6.70033e-16 0)
(3 -2.87114e-15 0)
(3 -4.05025e-15 0)
(3 -2.2575e-15 0)
(3 -7.19978e-16 0)
(3 6.26321e-17 0)
(3 5.98459e-16 0)
(3 1.00333e-15 0)
(3 6.77034e-16 0)
(3 7.22807e-16 0)
(3 1.12003e-15 0)
(3 8.40985e-18 0)
(3 -6.84076e-16 0)
(3 -3.64972e-16 0)
(3 3.91475e-16 0)
(2.92937 0.0913873 0)
(1.03329 0.38692 0)
(0.737231 0.437522 0)
(0.69746 0.451773 0)
(0.661964 0.444414 0)
(0.627143 0.43688 0)
(0.586999 0.443628 0)
(0.556658 0.460201 0)
(0.532438 0.475218 0)
(0.508975 0.479609 0)
(0.482636 0.48694 0)
(0.450444 0.503681 0)
(0.413557 0.530279 0)
(0.376745 0.562015 0)
(0.337507 0.599628 0)
(0.288023 0.643691 0)
(0.222571 0.690243 0)
(0.1435 0.730945 0)
(0.0441762 0.750131 0)
(3 -3.22257e-17 0)
(3 3.0053e-16 0)
(3 1.18785e-16 0)
(3 -4.41027e-16 0)
(3 -9.35393e-16 0)
(3 -1.11005e-15 0)
(3 -1.54928e-15 0)
(3 -1.89212e-17 0)
(3 1.17852e-15 0)
(3 1.96518e-15 0)
(3 2.99966e-15 0)
(3 3.47547e-15 0)
(3 2.94285e-15 0)
(3 1.49613e-15 0)
(3 9.39575e-16 0)
(3 -5.52299e-16 0)
(3 -1.20492e-15 0)
(3 -8.90584e-16 0)
(3 -1.25759e-15 0)
(3 -1.31255e-15 0)
(3 -1.05431e-15 0)
(3 -5.37292e-16 0)
(3 -1.7852e-16 0)
(3 -4.96488e-16 0)
(3 -3.3677e-16 0)
(3 -1.78397e-16 0)
(3 -1.00457e-15 0)
(3 -9.31574e-16 0)
(3 -6.13268e-16 0)
(3.01157 0.00872073 0)
(1.19479 0.414692 0)
(0.730179 0.472338 0)
(0.692931 0.485411 0)
(0.677288 0.474938 0)
(0.653249 0.468691 0)
(0.62375 0.473016 0)
(0.600746 0.485129 0)
(0.58087 0.498371 0)
(0.556814 0.504911 0)
(0.527407 0.518305 0)
(0.490619 0.542378 0)
(0.449816 0.577621 0)
(0.408275 0.617691 0)
(0.369271 0.66408 0)
(0.328309 0.720351 0)
(0.274891 0.778046 0)
(0.203028 0.834467 0)
(0.0786839 0.881142 0)
(3 1.32746e-17 0)
(3 5.99262e-16 0)
(3 2.8238e-16 0)
(3 -4.56503e-16 0)
(3 -1.00126e-15 0)
(3 -1.76914e-15 0)
(3 -8.2409e-16 0)
(3 1.71009e-15 0)
(3 1.83651e-15 0)
(3 2.793e-15 0)
(3 4.94899e-15 0)
(3 2.8275e-15 0)
(3 2.04446e-15 0)
(3 2.17957e-15 0)
(3 1.54681e-15 0)
(3 1.19479e-15 0)
(3 1.16774e-15 0)
(3 -8.55895e-17 0)
(3 -1.44774e-15 0)
(3 -2.02806e-15 0)
(3 -2.86031e-15 0)
(3 -2.52984e-15 0)
(3 -1.66911e-15 0)
(3 -9.23826e-16 0)
(3 -5.83797e-16 0)
(3 -2.6556e-16 0)
(3 -3.17545e-16 0)
(3 -7.92713e-16 0)
(3 -4.73363e-16 0)
(3.00025 4.62755e-05 0)
(1.52566 0.489974 0)
(0.757428 0.523641 0)
(0.71733 0.4998 0)
(0.714734 0.486568 0)
(0.701782 0.477164 0)
(0.681225 0.481811 0)
(0.65847 0.499444 0)
(0.63384 0.521412 0)
(0.602468 0.538421 0)
(0.566903 0.560081 0)
(0.523416 0.590617 0)
(0.480182 0.631337 0)
(0.442545 0.675234 0)
(0.414472 0.723745 0)
(0.388568 0.782961 0)
(0.343772 0.863936 0)
(0.250026 0.990787 0)
(0.128251 1.13096 0)
(3 -5.80193e-17 0)
(3 -1.08293e-16 0)
(3 3.92272e-16 0)
(3 4.83728e-16 0)
(3 2.41082e-16 0)
(3 7.70972e-17 0)
(3 1.25012e-15 0)
(3 1.75928e-15 0)
(3 1.52401e-15 0)
(3 6.52878e-16 0)
(3 -2.14947e-16 0)
(3 5.01269e-16 0)
(3 8.53121e-16 0)
(3 1.00962e-15 0)
(3 7.67311e-16 0)
(3 4.95132e-16 0)
(3 -2.37253e-17 0)
(3 -4.37235e-16 0)
(3 -6.81017e-16 0)
(3 -1.28991e-15 0)
(3 -1.67064e-15 0)
(3 -2.20601e-15 0)
(3 -2.41795e-15 0)
(3 -1.72555e-15 0)
(3 -1.23003e-15 0)
(3 -8.81748e-16 0)
(3 -5.90715e-16 0)
(3 -1.76289e-16 0)
(3 -1.2524e-16 0)
(3 3.07848e-08 0)
(2.12289 0.487428 0)
(0.867878 0.563498 0)
(0.779667 0.513961 0)
(0.770269 0.495107 0)
(0.751329 0.491744 0)
(0.73 0.504859 0)
(0.703074 0.531901 0)
(0.667075 0.561523 0)
(0.626638 0.585331 0)
(0.586008 0.611622 0)
(0.547863 0.643233 0)
(0.516367 0.681059 0)
(0.489613 0.722055 0)
(0.472367 0.773186 0)
(0.456178 0.847715 0)
(0.44141 0.973105 0)
(0.446959 1.1513 0)
(0.546431 1.44395 0)
(3 -3.35077e-17 0)
(3 -9.37835e-16 0)
(3 -7.47265e-16 0)
(3 -5.93287e-17 0)
(3 8.28862e-16 0)
(3 2.07269e-15 0)
(3 2.02167e-15 0)
(3 4.75888e-16 0)
(3 -8.14377e-16 0)
(3 -1.7948e-15 0)
(3 -3.26879e-15 0)
(3 -2.54004e-15 0)
(3 -1.22435e-15 0)
(3 -8.25677e-16 0)
(3 -6.83138e-16 0)
(3 -4.47387e-16 0)
(3 -4.26382e-16 0)
(3 -5.8326e-16 0)
(3 -1.14591e-15 0)
(3 -1.97946e-15 0)
(3 -2.74826e-15 0)
(3 -2.93504e-15 0)
(3 -3.01947e-15 0)
(3 -2.92161e-15 0)
(3 -2.37376e-15 0)
(3 -1.66966e-15 0)
(3 -8.92183e-16 0)
(3 -1.95877e-16 0)
(3 -8.66716e-16 0)
(3 2.60827e-12 0)
(2.85186 0.232345 0)
(1.06442 0.56992 0)
(0.822953 0.550235 0)
(0.805853 0.52931 0)
(0.775246 0.525347 0)
(0.739717 0.540677 0)
(0.703739 0.572246 0)
(0.668032 0.607511 0)
(0.638026 0.633519 0)
(0.611006 0.657293 0)
(0.585707 0.684571 0)
(0.564648 0.719858 0)
(0.549381 0.762039 0)
(0.543575 0.819131 0)
(0.549425 0.906556 0)
(0.573671 1.03306 0)
(0.669274 1.19944 0)
(0.977387 1.4294 0)
(3 2.61965e-16 0)
(3 -3.43058e-16 0)
(3 -1.65185e-15 0)
(3 -1.10879e-15 0)
(3 3.24818e-17 0)
(3 1.2867e-15 0)
(3 9.95802e-16 0)
(3 3.33161e-16 0)
(3 -1.30862e-15 0)
(3 -2.78353e-15 0)
(3 -2.48677e-15 0)
(3 -2.45334e-15 0)
(3 -2.68698e-15 0)
(3 -3.35457e-15 0)
(3 -2.31323e-15 0)
(3 -2.06846e-15 0)
(3 -1.4362e-15 0)
(3 -3.53139e-16 0)
(3 -1.30756e-15 0)
(3 -1.40042e-15 0)
(3 -2.16955e-15 0)
(3 -2.3066e-15 0)
(3 -2.32525e-15 0)
(3 -2.70207e-15 0)
(3 -2.06724e-15 0)
(3 -1.17056e-15 0)
(3 -2.22554e-16 0)
(3 -5.74244e-16 0)
(3 -2.58765e-18 0)
(3 -6.85887e-15 0)
(3.04384 0.0193371 0)
(1.24562 0.562615 0)
(0.807462 0.585209 0)
(0.789311 0.567598 0)
(0.769242 0.564166 0)
(0.743369 0.577354 0)
(0.715927 0.608943 0)
(0.68949 0.644243 0)
(0.667821 0.669053 0)
(0.650454 0.691899 0)
(0.635329 0.718194 0)
(0.624685 0.751241 0)
(0.621051 0.792563 0)
(0.629927 0.85025 0)
(0.652114 0.937479 0)
(0.712222 1.04729 0)
(0.862935 1.19203 0)
(1.18643 1.33875 0)
(3 7.43969e-17 0)
(3 3.53459e-16 0)
(3 7.2226e-16 0)
(3 9.62819e-16 0)
(3 1.98069e-16 0)
(3 -1.11531e-15 0)
(3 -2.29128e-15 0)
(3 -2.51706e-15 0)
(3 -2.3956e-15 0)
(3 -1.63443e-15 0)
(3 -1.58197e-15 0)
(3 -1.25093e-15 0)
(3 -1.25669e-15 0)
(3 -2.22146e-15 0)
(3 -2.71218e-15 0)
(3 -2.48174e-15 0)
(3 -1.77189e-15 0)
(3 -4.57424e-16 0)
(3 1.16751e-15 0)
(3 1.41789e-15 0)
(3 1.43466e-15 0)
(3 -7.23632e-16 0)
(3 -1.5176e-15 0)
(3 -2.29286e-15 0)
(3 -2.45953e-15 0)
(3 -2.13057e-15 0)
(3 -1.18764e-15 0)
(3 -1.04108e-15 0)
(3 1.6204e-16 0)
(3 -4.78359e-15 0)
(3.00111 0.000102425 0)
(1.70647 0.598456 0)
(0.837698 0.628007 0)
(0.803326 0.594559 0)
(0.79482 0.592201 0)
(0.773532 0.607993 0)
(0.748554 0.639042 0)
(0.726998 0.671852 0)
(0.710791 0.695837 0)
(0.701079 0.718411 0)
(0.695055 0.743713 0)
(0.69491 0.776192 0)
(0.699489 0.817693 0)
(0.72171 0.874453 0)
(0.755481 0.955902 0)
(0.840828 1.05306 0)
(1.00912 1.16673 0)
(1.30035 1.2616 0)
(3 -1.85278e-16 0)
(3 9.96182e-16 0)
(3 1.68172e-15 0)
(3 7.93e-16 0)
(3 9.80762e-17 0)
(3 -4.75473e-16 0)
(3 -1.81925e-15 0)
(3 -2.32607e-15 0)
(3 -1.52366e-15 0)
(3 -1.22919e-15 0)
(3 -1.3635e-15 0)
(3 -1.42103e-15 0)
(3 -1.55332e-15 0)
(3 -8.85086e-16 0)
(3 -2.00378e-16 0)
(3 1.06451e-15 0)
(3 9.38492e-16 0)
(3 -2.089e-16 0)
(3 7.03053e-16 0)
(3 -3.48068e-17 0)
(3 -7.63561e-16 0)
(3 -7.53136e-16 0)
(3 -1.16232e-15 0)
(3 -1.31491e-15 0)
(3 -1.30304e-15 0)
(3 -1.78682e-15 0)
(3 -2.01142e-15 0)
(3 -7.54127e-16 0)
(3 7.38769e-16 0)
(3 -5.41615e-16 0)
(3 4.74381e-08 0)
(2.53287 0.433441 0)
(0.989944 0.653766 0)
(0.85786 0.600297 0)
(0.847082 0.610483 0)
(0.825384 0.636931 0)
(0.796715 0.667827 0)
(0.774021 0.697273 0)
(0.759116 0.718012 0)
(0.756097 0.738344 0)
(0.757662 0.761656 0)
(0.76598 0.793706 0)
(0.776545 0.834671 0)
(0.806034 0.888432 0)
(0.849251 0.960119 0)
(0.94534 1.04257 0)
(1.10653 1.12532 0)
(1.34847 1.17976 0)
(3 1.84991e-16 0)
(3 4.09316e-16 0)
(3 1.22981e-16 0)
(3 1.34846e-16 0)
(3 6.58445e-16 0)
(3 1.21689e-15 0)
(3 1.38986e-15 0)
(3 1.42456e-15 0)
(3 8.98711e-16 0)
(3 -3.33301e-16 0)
(3 -7.20311e-16 0)
(3 -1.17381e-15 0)
(3 -1.44052e-15 0)
(3 -5.22159e-16 0)
(3 1.00768e-15 0)
(3 1.37735e-15 0)
(3 9.42641e-16 0)
(3 -1.98398e-16 0)
(3 -1.87867e-15 0)
(3 -3.28406e-15 0)
(3 -2.76935e-15 0)
(3 -6.44797e-16 0)
(3 -3.94573e-16 0)
(3 3.08975e-16 0)
(3 2.7913e-16 0)
(3 4.69655e-17 0)
(3 -1.18698e-16 0)
(3 3.30225e-16 0)
(3 9.8827e-16 0)
(3 1.41647e-15 0)
(3 4.41234e-13 0)
(3.077 0.0639561 0)
(1.23768 0.630571 0)
(0.896504 0.653279 0)
(0.862019 0.651996 0)
(0.837461 0.678477 0)
(0.819828 0.70702 0)
(0.810572 0.728003 0)
(0.803788 0.738974 0)
(0.806998 0.754853 0)
(0.814492 0.77595 0)
(0.828164 0.80696 0)
(0.84507 0.847193 0)
(0.877033 0.89892 0)
(0.928754 0.963213 0)
(1.02903 1.03331 0)
(1.1725 1.0935 0)
(1.3715 1.131 0)
(3 2.00583e-16 0)
(3 -4.38647e-16 0)
(3 -2.96821e-16 0)
(3 -4.15352e-16 0)
(3 -2.83425e-16 0)
(3 3.76638e-16 0)
(3 1.33629e-15 0)
(3 1.75705e-15 0)
(3 7.17826e-16 0)
(3 1.40488e-16 0)
(3 -2.52207e-16 0)
(3 4.32072e-17 0)
(3 2.72129e-17 0)
(3 3.4661e-16 0)
(3 2.96127e-16 0)
(3 -9.0721e-16 0)
(3 -1.44454e-15 0)
(3 -1.11723e-15 0)
(3 -1.66175e-15 0)
(3 -1.7599e-15 0)
(3 -2.29479e-15 0)
(3 -2.47929e-15 0)
(3 -1.21866e-15 0)
(3 -1.37289e-16 0)
(3 -2.32375e-16 0)
(3 -1.40173e-16 0)
(3 -3.97623e-16 0)
(3 -6.8759e-16 0)
(3 9.66575e-17 0)
(3 1.40037e-15 0)
(3 -3.76895e-12 0)
(3.00648 0.000635536 0)
(1.66433 0.630637 0)
(0.923795 0.713393 0)
(0.87743 0.692438 0)
(0.865803 0.705357 0)
(0.856255 0.726669 0)
(0.851907 0.74108 0)
(0.848942 0.751101 0)
(0.853763 0.766929 0)
(0.863489 0.787393 0)
(0.879269 0.815983 0)
(0.902143 0.853795 0)
(0.934796 0.902264 0)
(0.991804 0.958329 0)
(1.08596 1.01415 0)
(1.21148 1.05838 0)
(1.37462 1.08388 0)
(3 -2.3954e-16 0)
(3 -3.55708e-16 0)
(3 1.59022e-17 0)
(3 1.36731e-17 0)
(3 -2.30919e-16 0)
(3 -3.14079e-16 0)
(3 9.7271e-17 0)
(3 2.04623e-16 0)
(3 -2.80911e-16 0)
(3 -7.11755e-16 0)
(3 -6.4689e-16 0)
(3 3.03804e-16 0)
(3 4.7356e-16 0)
(3 -7.15856e-17 0)
(3 -1.25239e-15 0)
(3 -2.05072e-15 0)
(3 -1.87598e-15 0)
(3 -1.1344e-15 0)
(3 -6.01528e-16 0)
(3 -1.1614e-15 0)
(3 -2.77357e-15 0)
(3 -2.78738e-15 0)
(3 -2.34794e-15 0)
(3 -1.90301e-15 0)
(3 -2.03874e-15 0)
(3 -2.47323e-15 0)
(3 -2.64556e-15 0)
(3 -1.58821e-15 0)
(3 -2.28567e-16 0)
(3 1.21635e-15 0)
(3 -1.51619e-12 0)
(3.00002 6.19541e-07 0)
(2.58567 0.410906 0)
(1.07277 0.727279 0)
(0.931555 0.701757 0)
(0.919387 0.716417 0)
(0.908315 0.740835 0)
(0.900809 0.752799 0)
(0.894817 0.76292 0)
(0.896363 0.778755 0)
(0.905062 0.798816 0)
(0.921928 0.824826 0)
(0.94834 0.858836 0)
(0.984111 0.901984 0)
(1.04405 0.952063 0)
(1.13129 0.997796 0)
(1.24446 1.03383 0)
(1.38022 1.05535 0)
(3 -8.53886e-17 0)
(3 7.0492e-17 0)
(3 3.24966e-16 0)
(3 5.64742e-16 0)
(3 -4.05086e-16 0)
(3 -7.88905e-16 0)
(3 -2.73483e-16 0)
(3 1.70953e-16 0)
(3 6.88496e-16 0)
(3 -9.35904e-17 0)
(3 -1.93377e-16 0)
(3 1.67679e-17 0)
(3 4.53456e-16 0)
(3 3.6246e-16 0)
(3 -3.92786e-16 0)
(3 -8.72208e-16 0)
(3 -1.32401e-15 0)
(3 -1.63731e-15 0)
(3 -9.65199e-16 0)
(3 -1.0337e-15 0)
(3 -1.79174e-15 0)
(3 -1.03631e-15 0)
(3 -1.08209e-15 0)
(3 -1.13573e-15 0)
(3 -1.33362e-15 0)
(3 -1.33989e-15 0)
(3 -3.24135e-16 0)
(3 6.97609e-16 0)
(3 3.79692e-16 0)
(3 5.65283e-16 0)
(3 -2.54122e-14 0)
(3 -2.02969e-08 0)
(3.07136 0.0458015 0)
(1.33747 0.689651 0)
(0.96395 0.749462 0)
(0.94284 0.756368 0)
(0.933074 0.772296 0)
(0.932279 0.779555 0)
(0.930581 0.788137 0)
(0.932977 0.799781 0)
(0.942572 0.815574 0)
(0.960973 0.837297 0)
(0.988016 0.865976 0)
(1.02752 0.903214 0)
(1.08798 0.944201 0)
(1.16734 0.979234 0)
(1.2681 1.00642 0)
(1.38388 1.02175 0)
(3 1.94808e-17 0)
(3 -4.61406e-16 0)
(3 -8.5992e-16 0)
(3 -1.73342e-15 0)
(3 -2.50621e-15 0)
(3 -1.26754e-15 0)
(3 -4.65505e-16 0)
(3 -3.18214e-16 0)
(3 1.32982e-16 0)
(3 4.98385e-16 0)
(3 1.25721e-15 0)
(3 1.32612e-15 0)
(3 1.46785e-15 0)
(3 1.287e-15 0)
(3 5.73233e-16 0)
(3 -6.89549e-16 0)
(3 -1.58138e-15 0)
(3 -2.32536e-15 0)
(3 -1.80057e-15 0)
(3 8.18792e-17 0)
(3 4.87591e-16 0)
(3 -5.23179e-16 0)
(3 -3.5303e-16 0)
(3 3.79368e-16 0)
(3 1.42035e-15 0)
(3 1.65352e-15 0)
(3 1.2161e-15 0)
(3 1.29586e-15 0)
(3 1.28626e-15 0)
(3 1.39129e-15 0)
(3 1.59121e-15 0)
(3 -2.73186e-09 0)
(3.00398 0.000404444 0)
(1.94352 0.644478 0)
(1.02432 0.789942 0)
(0.970719 0.787261 0)
(0.969472 0.783009 0)
(0.972294 0.787443 0)
(0.97489 0.794722 0)
(0.977173 0.808537 0)
(0.985634 0.825058 0)
(1.00115 0.84865 0)
(1.02731 0.87584 0)
(1.0679 0.906105 0)
(1.12516 0.937935 0)
(1.19947 0.966458 0)
(1.29023 0.988846 0)
(1.39419 0.999941 0)
(3 1.47343e-16 0)
(3 -6.54642e-16 0)
(3 -1.78519e-15 0)
(3 -1.66752e-15 0)
(3 -3.3914e-16 0)
(3 -1.44005e-16 0)
(3 -6.79713e-16 0)
(3 -6.25522e-16 0)
(3 2.0416e-16 0)
(3 1.00668e-15 0)
(3 1.77808e-15 0)
(3 1.64441e-15 0)
(3 5.64539e-16 0)
(3 -5.37667e-16 0)
(3 -7.248e-16 0)
(3 -1.3099e-15 0)
(3 -1.53307e-15 0)
(3 -1.73044e-15 0)
(3 -1.62637e-15 0)
(3 9.70889e-17 0)
(3 3.17226e-15 0)
(3 2.02703e-15 0)
(3 7.73116e-16 0)
(3 6.54915e-16 0)
(3 1.16489e-15 0)
(3 1.87418e-15 0)
(3 1.71761e-15 0)
(3 1.16775e-15 0)
(3 1.17172e-15 0)
(3 1.47648e-15 0)
(3 2.52985e-15 0)
(3 -4.7025e-10 0)
(3.00001 6.80181e-07 0)
(2.93772 0.222117 0)
(1.25368 0.776901 0)
(1.02509 0.800783 0)
(1.0273 0.800095 0)
(1.0198 0.804991 0)
(1.01615 0.814162 0)
(1.01818 0.82579 0)
(1.02547 0.845327 0)
(1.03903 0.867644 0)
(1.06443 0.891976 0)
(1.10549 0.916972 0)
(1.16004 0.939354 0)
(1.22986 0.958496 0)
(1.31106 0.971698 0)
(1.40724 0.976042 0)
(3 -6.44694e-17 0)
(3 -6.31714e-17 0)
(3 3.22391e-16 0)
(3 8.57895e-16 0)
(3 1.93823e-15 0)
(3 1.16614e-15 0)
(3 -6.63222e-16 0)
(3 -1.34564e-15 0)
(3 -9.70583e-16 0)
(3 6.23727e-17 0)
(3 3.64073e-16 0)
(3 -9.50579e-16 0)
(3 -1.32564e-15 0)
(3 -1.29026e-15 0)
(3 -1.03236e-15 0)
(3 -1.42424e-15 0)
(3 -1.32922e-15 0)
(3 -1.15719e-15 0)
(3 -1.29243e-16 0)
(3 2.61532e-16 0)
(3 1.76997e-15 0)
(3 3.575e-15 0)
(3 3.94284e-15 0)
(3 2.98041e-15 0)
(3 2.09616e-15 0)
(3 1.64597e-15 0)
(3 2.20973e-15 0)
(3 2.29189e-15 0)
(3 2.54123e-16 0)
(3 -3.42568e-16 0)
(3 1.64969e-15 0)
(3 -7.86667e-12 0)
(3 -2.98303e-08 0)
(3.02913 0.00765594 0)
(1.65091 0.752627 0)
(1.04782 0.849107 0)
(1.03943 0.843448 0)
(1.04429 0.839839 0)
(1.0532 0.832346 0)
(1.06059 0.835422 0)
(1.06944 0.852457 0)
(1.08219 0.873677 0)
(1.10486 0.89498 0)
(1.14316 0.91647 0)
(1.1944 0.93528 0)
(1.25867 0.951862 0)
(1.33332 0.96279 0)
(1.42251 0.965887 0)
(3 4.02981e-17 0)
(3 5.81761e-16 0)
(3 1.85987e-15 0)
(3 2.08252e-15 0)
(3 7.49844e-16 0)
(3 -8.02773e-16 0)
(3 -1.93199e-15 0)
(3 -2.97787e-15 0)
(3 -3.46813e-15 0)
(3 -2.71106e-15 0)
(3 -1.9193e-15 0)
(3 -1.85158e-15 0)
(3 -2.28537e-15 0)
(3 -1.67492e-15 0)
(3 -1.23477e-15 0)
(3 -1.58146e-15 0)
(3 -6.21746e-16 0)
(3 7.31832e-16 0)
(3 1.15748e-15 0)
(3 5.31423e-16 0)
(3 5.08413e-16 0)
(3 1.55854e-15 0)
(3 2.58918e-15 0)
(3 3.09276e-15 0)
(3 2.67575e-15 0)
(3 1.78456e-15 0)
(3 1.45899e-15 0)
(3 1.89874e-15 0)
(3 1.63761e-15 0)
(3 -1.173e-15 0)
(3 6.671e-16 0)
(3 -9.4453e-14 0)
(3 -6.64408e-09 0)
(3.00029 5.23852e-05 0)
(2.65923 0.429495 0)
(1.22592 0.84134 0)
(1.08073 0.845978 0)
(1.09361 0.849677 0)
(1.10058 0.847786 0)
(1.1027 0.854437 0)
(1.10721 0.873906 0)
(1.12143 0.89256 0)
(1.14462 0.910365 0)
(1.18018 0.927166 0)
(1.22752 0.940896 0)
(1.28625 0.950261 0)
(1.3557 0.953663 0)
(1.43637 0.952217 0)
(3 2.46649e-17 0)
(3 1.64469e-16 0)
(3 7.6603e-16 0)
(3 3.25536e-16 0)
(3 -8.8196e-16 0)
(3 -1.69607e-15 0)
(3 -8.63204e-16 0)
(3 -2.9616e-17 0)
(3 2.69307e-16 0)
(3 1.30875e-17 0)
(3 -5.37975e-16 0)
(3 -1.00436e-15 0)
(3 -1.50667e-15 0)
(3 -1.05134e-15 0)
(3 -2.68276e-16 0)
(3 2.61078e-16 0)
(3 1.59467e-15 0)
(3 2.51278e-15 0)
(3 2.73347e-15 0)
(3 2.23659e-15 0)
(3 3.36093e-16 0)
(3 -5.34586e-16 0)
(3 -4.61799e-16 0)
(3 -5.12465e-16 0)
(3 5.02997e-16 0)
(3 3.3325e-16 0)
(3 -2.42752e-16 0)
(3 1.85479e-16 0)
(3 1.32182e-15 0)
(3 8.54976e-16 0)
(3 1.03249e-15 0)
(3 1.18639e-15 0)
(3 -1.21824e-09 0)
(3 1.42687e-08 0)
(3.05679 0.0342332 0)
(1.57885 0.80835 0)
(1.10761 0.88861 0)
(1.10873 0.887504 0)
(1.11719 0.887694 0)
(1.12638 0.890156 0)
(1.14255 0.890607 0)
(1.16247 0.897487 0)
(1.18768 0.910175 0)
(1.22048 0.923519 0)
(1.26261 0.935075 0)
(1.31405 0.943392 0)
(1.37681 0.947336 0)
(1.44829 0.947444 0)
(3 -2.77132e-16 0)
(3 -2.56372e-16 0)
(3 -6.733e-16 0)
(3 -7.22039e-16 0)
(3 -8.87988e-16 0)
(3 4.93105e-16 0)
(3 2.97184e-15 0)
(3 3.6471e-15 0)
(3 3.86031e-15 0)
(3 3.34332e-15 0)
(3 2.08549e-15 0)
(3 1.61137e-16 0)
(3 -4.57952e-16 0)
(3 3.10029e-16 0)
(3 1.01871e-15 0)
(3 2.12819e-15 0)
(3 1.8071e-15 0)
(3 2.14505e-15 0)
(3 2.07504e-15 0)
(3 1.92323e-15 0)
(3 2.05831e-15 0)
(3 1.72135e-15 0)
(3 1.74605e-15 0)
(3 1.13644e-15 0)
(3 3.98982e-16 0)
(3 -6.68126e-17 0)
(3 -3.31746e-16 0)
(3 -1.07299e-15 0)
(3 -3.90672e-16 0)
(3 2.27086e-15 0)
(3 2.55924e-15 0)
(3 1.82947e-15 0)
(3 -1.17493e-11 0)
(3 -7.90726e-10 0)
(3.0018 0.000542727 0)
(2.54488 0.516367 0)
(1.26045 0.886992 0)
(1.14498 0.889198 0)
(1.1575 0.891468 0)
(1.16716 0.898006 0)
(1.18148 0.902879 0)
(1.19892 0.913083 0)
(1.22402 0.925837 0)
(1.25602 0.937495 0)
(1.29469 0.945373 0)
(1.34088 0.947581 0)
(1.39728 0.945025 0)
(1.46133 0.939594 0)
(3 1.41415e-16 0)
(3 7.2287e-17 0)