/*--------------------------------*- C++ -*----------------------------------*\
  =========                 |
  \\      /  F ield         | OpenFOAM: The Open Source CFD Toolbox
   \\    /   O peration     | Website:  https://openfoam.org
    \\  /    A nd           | Version:  7
     \\/     M anipulation  |
\*---------------------------------------------------------------------------*/
FoamFile
{
    version     2.0;
    format      ascii;
    class       volScalarField;
    location    "1.5";
    object      p;
}
// * * * * * * * * * * * * * * * * * * * * * * * * * * * * * * * * * * * * * //

dimensions      [1 -1 -2 0 0 0 0];

internalField   nonuniform List<scalar> 
16128
(
1
1
1
1
1
1
1
1
1
1
1
1
1
1
1
1
1
1
1
1
1
1
1
1
1
3.31771
9.90066
10.6845
10.7454
10.8497
10.9607
11.0828
11.2018
11.3095
11.3996
11.4711
11.5327
11.5932
11.6567
11.7305
11.8154
11.8886
11.949
12.0045
12.0467
12.0692
12.0919
12.1033
1
1
1
1
1
1
1
1
1
1
1
1
1
1
1
1
1
1
1
1
1
1
1
1
1
3.26209
9.83124
10.6762
10.7396
10.8463
10.9567
11.0776
11.195
11.3011
11.3906
11.4621
11.5243
11.5852
11.6471
11.72
11.8045
11.8778
11.9376
11.9911
12.0308
12.0543
12.0778
12.0911
1
1
1
1
1
1
1
1
1
1
1
1
1
1
1
1
1
1
1
1
1
1
1
1
1
3.12384
9.73003
10.6599
10.7229
10.8349
10.9453
11.0653
11.1812
11.2857
11.3749
11.4468
11.5101
11.5718
11.6328
11.7057
11.7901
11.8623
11.9199
11.9698
12.0063
12.0317
12.0555
12.0706
1
1
1
1
1
1
1
1
1
1
1
1
1
1
1
1
1
1
1
1
1
1
1
1
1
2.90746
9.57343
10.6436
10.7083
10.8246
10.9341
11.0516
11.1635
11.2646
11.3531
11.4255
11.4897
11.5518
11.6118
11.6843
11.7677
11.8382
11.8933
11.9392
11.9722
11.9988
12.0216
12.0382
1
1
1
1
1
1
1
1
1
1
1
1
1
1
1
1
1
1
1
1
1
1
1
1
1
2.64599
9.36172
10.6222
10.6847
10.8035
10.9121
11.0274
11.1354
11.2357
11.3233
11.3975
11.4638
11.5267
11.5866
11.6574
11.7383
11.8058
11.8577
11.8996
11.9293
11.956
11.9772
11.9947
1
1
1
1
1
1
1
1
1
1
1
1
1
1
1
1
1
1
1
1
1
1
1
1
1
2.33571
9.06932
10.6094
10.6681
10.7849
10.8878
10.9983
11.1006
11.2001
11.2894
11.3666
11.4349
11.4977
11.5566
11.6233
11.6995
11.7627
11.8112
11.8498
11.8763
11.9018
11.9202
11.9375
1
1
1
1
1
1
1
1
1
1
1
1
1
1
1
1
1
1
1
1
1
1
1
1
1
1.99563
8.68565
10.6039
10.6567
10.7654
10.8607
10.9634
11.0601
11.1592
11.2495
11.3289
11.3982
11.4605
11.5182
11.5799
11.6501
11.7081
11.7523
11.7881
11.812
11.8355
11.8507
11.8666
1
1
1
1
1
1
1
1
1
1
1
1
1
1
1
1
1
1
1
1
1
1
1
1
1
1.64665
8.18217
10.5943
10.634
10.7361
10.8265
10.9232
11.0143
11.1099
11.2019
11.2847
11.3552
11.4167
11.4718
11.5269
11.5902
11.6426
11.6825
11.7156
11.7364
11.7557
11.7663
11.7783
1
1
1
1
1
1
1
1
1
1
1
1
1
1
1
1
1
1
1
1
1
1
1
1
1
1.31789
7.5795
10.5771
10.6063
10.7055
10.7997
10.891
10.9732
11.0593
11.1446
11.2241
11.2942
11.3545
11.4067
11.4557
11.513
11.5618
11.5989
11.6298
11.6469
11.6605
11.6661
11.6735
1
1
1
1
1
1
1
1
1
1
1
1
1
1
1
1
1
1
1
1
1
1
1
1
1
1.02193
6.81038
10.5042
10.5578
10.6436
10.7365
10.8233
10.9038
10.9869
11.0694
11.1497
11.2231
11.2863
11.3388
11.3829
11.4314
11.4723
11.5016
11.525
11.5351
11.5407
11.5417
11.5446
1
1
1
1
1
1
1
1
1
1
1
1
1
1
1
1
1
1
1
1
1
1
1
1
1
1.0002
5.84771
10.3289
10.489
10.5804
10.6774
10.7619
10.8398
10.9191
10.9978
11.0738
11.1424
11.1984
11.2426
11.2766
11.3164
11.3515
11.3757
11.391
11.3929
11.3945
11.3951
11.4002
1
1
1
1
1
1
1
1
1
1
1
1
1
1
1
1
1
1
1
1
1
1
1
1
1
1
4.80727
10.0727
10.4281
10.5303
10.6284
10.7098
10.7825
10.8546
10.9269
10.9965
11.0595
11.1094
11.1467
11.1685
11.1953
11.2201
11.2377
11.243
11.2345
11.2228
11.2103
11.2024
1
1
1
1
1
1
1
1
1
1
1
1
1
1
1
1
1
1
1
1
1
1
1
1
1
1
3.76358
9.68427
10.3784
10.4756
10.5726
10.6524
10.7233
10.7907
10.8565
10.9179
10.9729
11.0143
11.0422
11.0486
11.061
11.0717
11.0759
11.0571
11.0226
10.9921
10.9667
10.9685
1
1
1
1
1
1
1
1
1
1
1
1
1
1
1
1
1
1
1
1
1
1
1
1
1
1
2.69769
9.00816
10.3861
10.4434
10.5302
10.6023
10.667
10.726
10.782
10.8338
10.8799
10.9139
10.9327
10.9233
10.9164
10.9058
10.8851
10.845
10.7898
10.7392
10.6742
10.5984
1
1
1
1
1
1
1
1
1
1
1
1
1
1
1
1
1
1
1
1
1
1
1
1
1
1
1.71796
8.29679
10.4465
10.3475
10.4285
10.5098
10.588
10.6507
10.6999
10.7399
10.7732
10.7978
10.8039
10.7809
10.7526
10.718
10.6707
10.5968
10.4844
10.3398
10.1951
10.0887
1
1
1
1
1
1
1
1
1
1
1
1
1
1
1
1
1
1
1
1
1
1
1
1
1
1
1.06189
7.16606
10.3372
10.2753
10.3702
10.4491
10.5131
10.5635
10.6008
10.6277
10.6487
10.6633
10.6579
10.6247
10.5752
10.5123
10.4261
10.2998
10.1248
9.9124
9.6969
9.60403
1
1
1
1
1
1
1
1
1
1
1
1
1
1
1
1
1
1
1
1
1
1
1
1
1
1
1.00049
5.66097
9.91781
10.1243
10.2523
10.3363
10.3926
10.4377
10.4728
10.4919
10.5021
10.5048
10.4883
10.444
10.3741
10.282
10.1574
9.98432
9.72705
9.32997
8.47493
6.51707
1
1
1
1
1
1
1
1
1
1
1
1
1
1
1
1
1
1
1
1
1
1
1
1
1
1
0.999998
4.23809
9.53328
10.0636
10.1784
10.2674
10.3097
10.3403
10.3583
10.3625
10.3571
10.3434
10.3125
10.2517
10.1579
10.0348
9.8701
9.63398
9.27447
8.66686
7.72645
5.5469
1
1
1
1
1
1
1
1
1
1
1
1
1
1
1
1
1
1
1
1
1
1
1
1
1
1
1
2.74209
8.79256
10.0396
10.096
10.1664
10.2054
10.2309
10.2398
10.2315
10.2103
10.1772
10.1278
10.0487
9.93243
9.77748
9.57374
9.28141
8.8477
8.18621
7.08957
5.20118
1
1
1
1
1
1
1
1
1
1
1
1
1
1
1
1
1
1
1
1
1
1
1
1
1
1
1
1.45106
7.83023
10.2139
10.1058
10.0772
10.0898
10.1043
10.1057
10.0925
10.0619
10.013
9.94637
9.84859
9.70969
9.52395
9.28103
8.95068
8.46249
7.79694
6.66118
5.14703
1
1
1
1
1
1
1
1
1
1
1
1
1
1
1
1
1
1
1
1
1
1
1
1
1
1
1
1.0225
6.32925
9.79333
9.85533
9.90284
9.93637
9.95565
9.95867
9.94555
9.9081
9.84903
9.76791
9.65401
9.49558
9.28636
9.01133
8.65524
8.15405
7.47795
6.4298
5.24529
1
1
1
1
1
1
1
1
1
1
1
1
1
1
1
1
1
1
1
1
1
1
1
1
1
1
1
1
4.39061
9.40442
9.79185
9.82796
9.85355
9.85307
9.84511
9.82209
9.77188
9.69852
9.59987
9.46949
9.29358
9.06643
8.77279
8.39696
7.90215
7.2391
6.33127
5.35931
1
1
1
1
1
1
1
1
1
1
1
1
1
1
1
1
1
1
1
1
1
1
1
1
1
1
1
0.999996
2.48299
8.59323
9.78609
9.74933
9.7629
9.75386
9.73564
9.69908
9.63706
9.55153
9.43817
9.29415
9.10514
8.86556
8.5641
8.18131
7.69792
7.07038
6.29827
5.47316
1
1
1
1
1
1
1
1
1
1
1
1
1
1
1
1
1
1
1
1
1
1
1
1
1
1
1
0.999999
1.19157
7.2419
9.82428
9.67537
9.64854
9.63971
9.61446
9.57053
9.50289
9.40805
9.28338
9.12716
8.92695
8.67828
8.37557
7.99699
7.52834
6.95345
6.28799
5.56598
1
1
1
1
1
1
1
1
1
1
1
1
1
1
1
1
1
1
1
1
1
1
1
1
1
1
1
1
1.00335
5.26947
9.29836
9.48982
9.53168
9.52425
9.49252
9.44177
9.3692
9.27075
9.14148
8.97706
8.76772
8.51179
8.21164
7.83994
7.38939
6.86797
6.28313
5.65137
1
1
1
1
1
1
1
1
1
1
1
1
1
1
1
1
1
1
1
1
1
1
1
1
1
1
1
1
0.99998
2.92074
8.63236
9.45319
9.46678
9.45877
9.41045
9.34314
9.25353
9.14123
9.00084
8.8289
8.6171
8.35995
8.06022
7.69633
7.27244
6.80185
6.27841
5.72146
1
1
1
1
1
1
1
1
1
1
1
1
1
1
1
1
1
1
1
1
1
1
1
1
1
1
1
1
0.999996
1.27361
7.27167
9.54167
9.42898
9.37284
9.30482
9.22371
9.12536
9.00771
8.86399
8.69226
8.47982
8.23517
7.93084
7.58118
7.18714
6.76003
6.2822
5.7886
1
1
1
1
1
1
1
1
1
1
1
1
1
1
1
1
1
1
1
1
1
1
1
1
1
1
1
1
0.999999
1.00661
5.12473
9.05243
9.25144
9.24971
9.18151
9.09813
8.99956
8.882
8.7344
8.56105
8.35071
8.11078
7.81642
7.48581
7.11959
6.72721
6.28405
5.83866
1
1
1
1
1
1
1
1
1
1
1
1
1
1
1
1
1
1
1
1
1
1
1
1
1
1
1
1
1
0.999964
2.59231
8.4322
9.22185
9.14807
9.06038
8.97739
8.88082
8.76254
8.61215
8.44263
8.23349
8.00147
7.72535
7.41418
7.07241
6.70498
6.29416
5.88584
1
1
1
1
1
1
1
1
1
1
1
1
1
1
1
1
1
1
1
1
1
1
1
1
1
1
1
1
1
0.999992
1.18434
6.76515
9.12928
9.01496
8.95777
8.87201
8.76819
8.64404
8.49771
8.33264
8.13308
7.90531
7.64325
7.34868
7.02773
6.68057
6.30303
5.922
1
1
1
1
1
1
1
1
1
1
1
1
1
1
1
1
1
1
1
1
1
1
1
1
1
1
1
1
1
0.999999
1.00257
4.05399
8.53536
8.8826
8.87659
8.81479
8.70675
8.57062
8.41966
8.24985
8.05084
7.82797
7.57603
7.29582
6.99136
6.66334
6.31394
5.95533
1
1
1
1
1
1
1
1
1
1
1
1
1
1
1
1
1
1
1
1
1
1
1
1
1
1
1
1
1
1
0.999993
1.56704
7.53768
9.01919
8.85645
8.73607
8.61578
8.47845
8.33013
8.15904
7.96492
7.74971
7.50998
7.24507
6.95584
6.64544
6.3169
5.98212
1
1
1
1
1
1
1
1
1
1
1
1
1
1
1
1
1
1
1
1
1
1
1
1
1
1
1
1
1
1
0.999999
1.02648
5.27136
8.56293
8.66419
8.62075
8.52904
8.40384
8.25713
8.08569
7.89287
7.68198
7.45186
7.19977
6.92397
6.62925
6.31987
6.00856
1
1
1
1
1
1
1
1
1
1
1
1
1
1
1
1
1
1
1
1
1
1
1
1
1
1
1
1
1
1
1
0.999982
2.29592
7.85728
8.71583
8.5803
8.46262
8.336
8.18953
8.0185
7.828
7.62089
7.39786
7.15655
6.89407
6.61532
6.32483
6.03216
1
1
1
1
1
1
1
1
1
1
1
1
1
1
1
1
1
1
1
1
1
1
1
1
1
1
1
1
1
1
1
0.999993
1.11917
5.92623
8.53179
8.46747
8.37219
8.2534
8.11159
7.94786
7.76475
7.56367
7.34667
7.11401
6.86553
6.60262
6.32939
6.05267
1
1
1
1
1
1
1
1
1
1
1
1
1
1
1
1
1
1
1
1
1
1
1
1
1
1
1
1
1
1
1
0.999999
1.001
2.81046
7.8322
8.44444
8.32781
8.19878
8.0531
7.89226
7.71294
7.51558
7.30406
7.0803
6.84333
6.59351
6.33491
6.07289
1
1
1
1
1
1
1
1
1
1
1
1
1
1
1
1
1
1
1
1
1
1
1
1
1
1
1
1
1
1
1
1
1
1.21394
6.07675
8.37317
8.26287
8.13683
7.99144
7.8347
7.6604
7.46908
7.26454
7.04888
6.82129
6.5831
6.33826
6.09069
1
1
1
1
1
1
1
1
1
1
1
1
1
1
1
1
1
1
1
1
1
1
1
1
1
1
1
1
1
1
1
1
1
1.00347
2.93785
7.64897
8.21019
8.08499
7.94971
7.79186
7.61819
7.43163
7.23421
7.02614
6.80726
6.57973
6.34777
6.11299
1
1
1
1
1
1
1
1
1
1
1
1
1
1
1
1
1
1
1
1
1
1
1
1
1
1
1
1
1
1
1
1
1
1
1.24162
5.9075
8.17374
8.05701
7.9123
7.74719
7.57406
7.39326
7.20328
7.00323
6.79367
6.57699
6.35679
6.13366
1
1
1
1
1
1
1
1
1
1
1
1
1
1
1
1
1
1
1
1
1
1
1
1
1
1
1
1
1
1
1
1
1
1
1.00449
2.69754
7.39792
8.01687
7.86022
7.71215
7.54596
7.37054
7.18494
6.99066
6.78908
6.58164
6.36983
6.15475
1
1
1
1
1
1
1
1
1
1
1
1
1
1
1
1
1
1
1
1
1
1
1
1
1
1
1
1
1
1
1
1
1
1
1.00001
1.18881
5.49849
7.93788
7.84079
7.68179
7.51273
7.33999
7.15995
6.97402
6.78256
6.58545
6.38201
6.17203
1
1
1
1
1
1
1
1
1
1
1
1
1
1
1
1
1
1
1
1
1
1
1
1
1
1
1
1
1
1
1
1
1
1
1
1.00287
2.34524
7.00824
7.81201
7.64035
7.49591
7.33003
7.15263
6.96946
6.78274
6.59228
6.39613
6.19185
1
1
1
1
1
1
1
1
1
1
1
1
1
1
1
1
1
1
1
1
1
1
1
1
1
1
1
1
1
1
1
1
1
1
1
1.00001
1.12139
4.72534
7.60973
7.62755
7.47732
7.3095
7.13483
6.9558
6.77459
6.5908
6.40251
6.20772
1
1
1
1
1
1
1
1
1
1
1
1
1
1
1
1
1
1
1
1
1
1
1
1
1
1
1
1
1
1
1
1
1
1
1
1
1.00148
1.89636
6.37974
7.64791
7.45416
7.29435
7.12866
6.95768
6.78211
6.60239
6.41866
6.23156
1
1
1
1
1
1
1
1
1
1
1
1
1
1
1
1
1
1
1
1
1
1
1
1
1
1
1
1
1
1
1
1
1
1
1
1
1
1.05641
3.56897
7.1569
7.40668
7.2617
7.11438
6.95454
6.78647
6.61015
6.42861
6.24502
1
1
1
1
1
1
1
1
1
1
1
1
1
1
1
1
1
1
1
1
1
1
1
1
1
1
1
1
1
1
1
1
1
1
1
1
1
1.00055
1.43132
5.45934
7.45542
7.29196
7.1405
6.97598
6.80912
6.63424
6.45433
6.27257
1
1
1
1
1
1
1
1
1
1
1
1
1
1
1
1
1
1
1
1
1
1
1
1
1
1
1
1
1
1
1
1
1
1
1
1
1
1
1.01463
2.48402
6.54529
7.28531
7.09227
6.94752
6.79062
6.62552
6.45493
6.28147
1
1
1
1
1
1
1
1
1
1
1
1
1
1
1
1
1
1
1
1
1
1
1
1
1
1
1
1
1
1
1
1
1
1
1
1
1
1
1.00009
1.14659
4.07285
6.98542
7.11372
6.96825
6.80978
6.64935
6.48464
6.31501
1
1
1
1
1
1
1
1
1
1
1
1
1
1
1
1
1
1
1
1
1
1
1
1
1
1
1
1
1
1
1
1
1
1
1
1
1
1
1
1.0025
1.62728
5.45634
7.13624
7.00325
6.83871
6.67648
6.51114
6.34325
1
1
1
1
1
1
1
1
1
1
1
1
1
1
1
1
1
1
1
1
1
1
1
1
1
1
1
1
1
1
1
1
1
1
1
1
1
1
1
1.00001
1.02941
2.57962
6.31992
6.99161
6.84042
6.6736
6.51316
6.35227
1
1
1
1
1
1
1
1
1
1
1
1
1
1
1
1
1
1
1
1
1
1
1
1
1
1
1
1
1
1
1
1
1
1
1
1
1
1
1
1
1.00027
1.16711
3.87162
6.64399
6.87014
6.70192
6.53853
6.38264
1
1
1
1
1
1
1
1
1
1
1
1
1
1
1
1
1
1
1
1
1
1
1
1
1
1
1
1
1
1
1
1
1
1
1
1
1
1
1
1
1
1.00327
1.55213
5.01654
6.77168
6.74027
6.58311
6.42367
1
1
1
1
1
1
1
1
1
1
1
1
1
1
1
1
1
1
1
1
1
1
1
1
1
1
1
1
1
1
1
1
1
1
1
1
1
1
1
1
1
1.00002
1.02381
2.25342
5.76085
6.72498
6.61946
6.45174
1
1
1
1
1
1
1
1
1
1
1
1
1
1
1
1
1
1
1
1
1
1
1
1
1
1
1
1
1
1
1
1
1
1
1
1
1
1
1
1
1
1
1.00021
1.10813
3.14946
6.20802
6.6317
6.49218
1
1
1
1
1
1
1
1
1
1
1
1
1
1
1
1
1
1
1
1
1
1
1
1
1
1
1
1
1
1
1
1
1
1
1
1
1
1
1
1
1
1
1
1.00179
1.31418
4.11417
6.34914
6.53347
1
1
1
1
1
1
1
1
1
1
1
1
1
1
1
1
1
1
1
1
1
1
1
1
1
1
1
1
1
1
1
1
1
1
1
1
1
1
1
1
1
1
1
1.00001
1.00944
1.69799
4.88666
6.39407
1
1
1
1
1
1
1
1
1
1
1
1
1
1
1
1
1
1
1
1
1
1
1
1
1
1
1
1
1
1
1
1
1
1
1
1
1
1
1
1
1
1
1
1
1.00006
1.0376
2.24811
5.39702
1
1
1
1
1
1
1
1
1
1
1
1
1
1
1
1
1
1
1
1
1
1
1
1
1
1
1
1
1
1
1
1
1
1
1
1
1
1
1
1
1
1
1
1
1
1.00042
1.11077
2.87532
1
1
1
1
1
1
1
1
1
1
1
1
1
1
1
1
1
1
1
1
1
1
1
1
1
1
1
1
1
1
1
1
1
1
1
1
1
1
1
1
1
1
1
1
1
1
1.002
1.24986
1
1
1
1
1
1
1
1
1
1
1
1
1
1
1
1
1
1
1
1
1
1
1
1
1
1
1
1
1
1
1
1
1
1
1
1
1
1
1
1
1
1
1
1
1
1
1.00001
1.00693
1
1
1
1
1
1
1
1
1
1
1
1
1
1
1
1
1
1
1
1
1
1
1
1
1
1
1
1
1
1
1
1
1
1
1
1
1
1
1
1
1
1
1
1
1
1
1
1.00004
1
1
1
1
1
1
1
1
1
1
1
1
1
1
1
1
1
1
1
1
1
1
1
1
1
1
1
1
1
1
1
1
1
1
1
1
1
1
1
1
1
1
1
1
1
1
1
1
1
1
1
1
1
1
1
1
1
1
1
1
1
1
1
1
1
1
1
1
1
1
1
1
1
1
1
1
1
1
1
1
1
1
1
1
1
1
1
1
1
1
1
1
1
1
1
1
1
1
1
1
1
1
1
1
1
1
1
1
1
1
1
1
1
1
1
1
1
1
1
1
1
1
1
1
1
1
1
1
1
1
1
1
1
1
1
1
1
1
1
1
1
1
1
1
1
1
1
1
1
1
1
1
1
1
1
1
1
1
1
1
1
1
1
1
1
1
1
1
1
1
1
1
1
1
1
1
1
1
1
1
1
1
1
1
1
1
1
1
1
1
1
1
1
1
1
1
1
1
1
1
1
1
1
1
1
1
1
1
1
1
1
1
1
1
1
1
1
1
1
1
1
1
1
1
1
1
1
1
1
1
1
1
1
1
1
1
1
1
1
1
1
1
1
1
1
1
1
1
1
1
1
1
1
1
1
1
1
1
1
1
1
1
1
1
1
1
1
1
1
1
1
1
1
1
1
1
1
1
1
1
1
1
1
1
1
1
1
1
1
1
1
1
1
1
1
1
1
1
1
1
1
1
1
1
1
1
1
1
1
1
1
1
1
1
1
1
1
1
1
1
1
1
1
1
1
1
1
1
1
1
1
1
1
1
1
1
1
1
1
1
1
1
1
1
1
1
1
1
1
1
1
1
1
1
1
1
1
1
1
1
1
1
1
1
1
1
1
1
1
1
1
1
1
1
1
1
1
1
1
1
1
1
1
1
1
1
1
1
1
1
1
1
1
1
1
1
1
1
1
1
1
1
1
1
1
1
1
1
1
1
1
1
1
1
1
1
1
1
1
1
1
1
1
1
1
1
1
1
1
1
1
1
1
1
1
1
1
1
1
1
1
1
1
1
1
1
1
1
1
1
1
1
1
1
1
1
1
1
1
1
1
1
1
1
1
1
1
1
1
1
1
1
1
1
1
1
1
1
1
1
1
1
1
1
1
1
1
1
1
1
1
1
1
1
1
1
1
1
1
1
1
1
1
1
1
1
1
1
1
1
1
1
1
1
1
1
1
1
1
1
1
1
1
1
1
1
1
1
1
1
1
1
1
1
1
1
1
1
1
1
1
1
1
1
1
1
1
1
1
1
1
1
1
1
1
1
1
1
1
1
1
1
1
1
1
1
1
1
1
1
1
1
1
1
1
1
1
1
1
1
1
1
1
1
1
1
1
1
1
1
1
1
1
1
1
1
1
1
1
1
1
1
1
1
1
1
1
1
1
1
1
1
1
1
1
1
1
1
1
1
1
1
1
1
1
1
1
1
1
1
1
1
1
1
1
1
1
1
1
1
1
1
1
1
1
1
1
1
1
1
1
1
1
1
1
1
1
1
1
1
1
1
1
1
1
1
1
1
1
1
1
1
1
1
1
1
1
1
1
1
1
1
1
1
1
1
1
1
1
1
1
1
1
1
1
1
1
1
1
1
1
1
1
1
1
1
1
1
1
1
1
1
1
1
1
1
1
1
1
1
1
1
1
1
1
1
1
1
1
1
1
1
1
1
1
1
1
1
1
1
1
1
1
1
1
1
1
1
1
1
1
1
1
1
1
1
1
1
1
1
1
1
1
1
1
1
1
1
1
1
1
1
1
1
1
1
1
1
1
1
1
1
1
1
1
1
1
1
1
1
1
1
1
1
1
1
1
1
1
1
1
1
1
1
1
1
1
1
1
1
1
1
1
1
1
1
1
1
1
1
1
1
1
1
1
1
1
1
1
1
1
1
1
1
1
1
1
1
1
1
1
1
1
1
1
1
1
1
1
1
1
1
1
1
1
1
1
1
1
1
1
1
1
1
1
1
1
1
1
1
1
1
1
1
1
1
1
1
1
1
1
1
1
1
1
1
1
1
1
1
1
1
1
1
1
1
1
1
1
1
1
1
1
1
1
1
1
1
1
1
1
1
1.20467
0.252105
0.0783601
0.0339397
0.0457041
0.0769431
0.105671
0.142271
0.189076
0.244096
0.319201
0.39183
0.472388
0.574453
0.636963
0.703042
0.790022
0.841896
0.876024
0.912603
0.930876
0.949549
0.973351
1.01222
1.0333
1.05049
1.05958
1.07396
1.07821
1.06722
1.07027
1.085
1.11024
1.13153
1.14824
1.1593
1.16151
1.1727
1.18701
1.20148
1.21056
1.21205
1.20846
1.20713
1.2145
1.23059
1.24999
1.2553
1.25172
1.24477
1.23521
1.22262
1.21299
1.21052
1.21515
1.22831
1.23835
1.24425
1.24468
1.23615
1.2217
1.21419
1.21265
1.21416
1.21927
1.22919
1.23594
1.23841
1.23613
1.2307
1.22416
1.21847
1.21539
1.21719
1.22017
1.2171
1.21098
1.20225
1.19528
1.19129
1.18812
1.18719
1.19043
1.1912
1.19027
1.18943
1.18671
1.18054
1.17337
1.1696
1.16725
1.16468
1.16163
1.15781
1.15289
1.14723
1.14304
1.14154
1.13981
1.13686
1.13239
1.12517
1.11328
1.11395
1.15267
1.31287
1.697
2.29577
3.06529
3.77797
4.36685
4.83879
5.17255
5.30313
5.2671
5.14848
4.93313
4.74231
4.60935
4.54592
4.4799
4.41947
4.35437
4.30846
4.27768
4.26278
4.24771
4.21387
4.17359
4.12398
4.07688
4.03523
3.99056
3.94156
3.89314
3.8477
3.80621
3.76801
3.7311
3.6942
3.65981
3.63051
3.60372
3.57476
3.54116
3.49838
3.43797
3.37625
3.34501
3.32531
3.30714
3.2899
3.27169
3.25085
3.2239
3.18972
3.15299
3.11728
3.08119
3.04119
2.99594
2.94946
2.91057
2.88576
2.869
2.85492
2.84505
2.8343
2.82263
2.80874
2.78873
2.75768
2.7053
2.62925
2.57566
2.55683
2.54439
2.53481
2.53118
2.53321
2.53077
2.52218
2.50971
2.49573
2.47805
2.4451
2.37648
2.30919
2.28851
2.27685
2.26717
2.24768
2.14344
1.00131
0.617619
0.320024
0.226608
0.238565
0.228738
0.211381
0.212996
0.231382
0.239453
0.2608
0.290252
0.323791
0.387846
0.469507
0.56764
0.653435
0.701529
0.754966
0.822809
0.879038
0.921852
0.970556
1.00553
1.02643
1.04668
1.06329
1.07175
1.05976
1.05766
1.07246
1.09468
1.10727
1.11771
1.13394
1.1472
1.16094
1.17387
1.18663
1.2023
1.21484
1.217
1.21631
1.21893
1.22416
1.23153
1.23754
1.23507
1.23298
1.23133
1.22753
1.22106
1.21974
1.22228
1.22493
1.22785
1.23185
1.23565
1.23484
1.23085
1.228
1.22528
1.2216
1.21936
1.21879
1.21838
1.21859
1.22145
1.2243
1.22456
1.2228
1.22148
1.22181
1.22083
1.21742
1.21257
1.20677
1.20163
1.19774
1.19486
1.19289
1.19052
1.18827
1.18678
1.18519
1.18218
1.17677
1.16985
1.16541
1.16326
1.16126
1.15888
1.15585
1.15225
1.14754
1.14143
1.13826
1.13596
1.1325
1.12852
1.12883
1.14899
1.24852
1.49202
1.86053
2.17093
2.36084
2.55467
2.89012
3.27829
3.58809
3.87173
4.17646
4.44988
4.6392
4.67858
4.68033
4.62434
4.58621
4.5306
4.47623
4.41675
4.35684
4.31736
4.28879
4.25822
4.21936
4.17363
4.11891
4.06266
4.0112
3.95729
3.90707
3.86725
3.83102
3.79783
3.76639
3.73355
3.69751
3.66186
3.63291
3.60555
3.57671
3.54591
3.51007
3.46524
3.41297
3.361
3.31889
3.2882
3.2675
3.25027
3.23094
3.20664
3.17818
3.14804
3.11721
3.0848
3.04927
3.01112
2.97088
2.92762
2.88824
2.86394
2.84933
2.83984
2.82845
2.81632
2.80368
2.78689
2.76253
2.72579
2.6708
2.60243
2.55908
2.54216
2.53081
2.52364
2.52241
2.52339
2.5187
2.50844
2.49542
2.47853
2.45013
2.39456
2.32303
2.2925
2.28029
2.27047
2.25479
3.00877
1.84643
1.21781
0.807264
0.569969
0.500741
0.413251
0.326827
0.310997
0.31955
0.307199
0.305778
0.320493
0.333657
0.362583
0.384008
0.410159
0.462773
0.536893
0.608196
0.687955
0.770537
0.846316
0.91374
0.968252
1.00581
1.03411
1.05438
1.07196
1.07184
1.07518
1.09512
1.11398
1.12457
1.13378
1.13847
1.1396
1.14588
1.1564
1.16616
1.18102
1.20138
1.21789
1.23137
1.24004
1.24066
1.23666
1.23137
1.22548
1.2194
1.21739
1.21929
1.22384
1.23304
1.24148
1.24471
1.24437
1.23678
1.2246
1.21903
1.22125
1.22648
1.23426
1.24093
1.24134
1.23572
1.22605
1.21589
1.21049
1.20884
1.21143
1.21739
1.22345
1.22552
1.22285
1.21785
1.21071
1.20547
1.20214
1.19964
1.19952
1.19963
1.19707
1.19474
1.19232
1.18859
1.18299
1.1757
1.16704
1.1609
1.15842
1.15714
1.1557
1.15396
1.15203
1.14781
1.14022
1.13137
1.12459
1.1242
1.1396
1.20951
1.41601
1.75152
2.14703
2.38907
2.42576
2.45008
2.48113
2.47609
2.51921
2.66028
2.91218
3.28889
3.73405
4.12947
4.37699
4.54723
4.56905
4.61324
4.60039
4.5589
4.49831
4.41362
4.34335
4.2719
4.22352
4.17958
4.13337
4.08953
4.04564
3.99976
3.94922
3.90657
3.87701
3.84763
3.81726
3.7858
3.75117
3.71036
3.66551
3.62291
3.58418
3.54862
3.51608
3.4857
3.4553
3.42183
3.38356
3.3391
3.28922
3.24936
3.22977
3.21355
3.19438
3.1729
3.14698
3.11284
3.07457
3.04198
3.01626
2.99286
2.96474
2.92442
2.87964
2.84748
2.82645
2.80843
2.78996
2.77154
2.75504
2.7386
2.71965
2.69354
2.65067
2.59027
2.54253
2.52272
2.51036
2.50233
2.50149
2.50166
2.4929
2.48087
2.46653
2.44498
2.40371
2.33705
2.28568
2.26605
2.25583
2.2466
3.52741
2.52895
1.86543
1.30733
0.99932
0.858301
0.712024
0.550823
0.525256
0.516495
0.468689
0.431287
0.432384
0.427425
0.410012
0.404474
0.409355
0.417421
0.437868
0.473761
0.529954
0.604093
0.697837
0.787954
0.850206
0.898905
0.929908
0.958149
1.0071
1.03995
1.05954
1.09056
1.11657
1.12477
1.12426
1.12944
1.13648
1.13744
1.1439
1.15342
1.17133
1.20095
1.22914
1.24368
1.24639
1.24285
1.23215
1.21837
1.20985
1.20505
1.20302
1.20565
1.21372
1.22749
1.23582
1.23935
1.24198
1.2394
1.2296
1.2201
1.21896
1.2218
1.22805
1.23525
1.23625
1.23324
1.22827
1.22241
1.21711
1.21339
1.21262
1.21422
1.21552
1.21583
1.21482
1.21173
1.20772
1.20494
1.20352
1.20367
1.20172
1.19809
1.19462
1.19097
1.18726
1.18355
1.17984
1.17583
1.17086
1.16562
1.16126
1.15807
1.15537
1.15346
1.1508
1.14606
1.13994
1.13364
1.14217
1.18289
1.33379
1.65373
2.00592
2.359
2.52791
2.51908
2.49687
2.48645
2.48573
2.46464
2.43807
2.39358
2.38988
2.46139
2.68466
3.06378
3.50914
3.9328
4.19367
4.34234
4.3924
4.42435
4.43036
4.4025
4.39366
4.34975
4.29604
4.24428
4.18428
4.12345
4.06507
4.00565
3.94813
3.89903
3.85947
3.82351
3.79181
3.7625
3.733
3.70193
3.66482
3.6203
3.57705
3.54022
3.50602
3.47405
3.4464
3.42166
3.39719
3.367
3.32184
3.26068
3.21135
3.18985
3.17576
3.16117
3.14279
3.11854
3.08776
3.05517
3.02579
3.00062
2.97554
2.94283
2.89646
2.84687
2.81581
2.79891
2.78302
2.76541
2.74844
2.73294
2.71774
2.70081
2.67674
2.63782
2.58259
2.52931
2.50036
2.48679
2.47836
2.47586
2.47234
2.46387
2.45311
2.43783
2.41345
2.3767
2.32942
2.28252
2.25814
2.24121
3.96688
3.03733
2.41745
1.89064
1.4588
1.2197
1.03353
0.844111
0.774236
0.726115
0.660085
0.597592
0.566275
0.546884
0.518613
0.501068
0.485607
0.479761
0.4868
0.500465
0.497947
0.503315
0.525107
0.566407
0.61686
0.682588
0.75973
0.832528
0.91594
0.980505
1.0068
1.03408
1.06548
1.07468
1.07669
1.08671
1.11042
1.11878
1.12667
1.14675
1.17766
1.22243
1.25421
1.26106
1.2595
1.24518
1.21989
1.20141
1.19699
1.19726
1.20081
1.20988
1.22055
1.22618
1.22798
1.22909
1.23
1.23157
1.23406
1.2344
1.22917
1.22183
1.21775
1.21545
1.21516
1.2176
1.21923
1.22091
1.22361
1.22455
1.22327
1.22033
1.21601
1.21195
1.20987
1.20969
1.21071
1.21155
1.21115
1.20845
1.20376
1.19794
1.19269
1.18877
1.18603
1.18431
1.18244
1.179
1.17414
1.16837
1.16219
1.1565
1.15133
1.1473
1.14268
1.13789
1.14065
1.16733
1.26643
1.53515
1.92479
2.24865
2.49545
2.60943
2.5866
2.52294
2.49981
2.50151
2.50815
2.48266
2.43498
2.37988
2.35446
2.3427
2.34537
2.38675
2.51463
2.77114
3.16903
3.57833
3.89144
4.11137
4.24667
4.27
4.29143
4.26033
4.24027
4.23469
4.22753
4.19003
4.13248
4.06197
3.98844
3.92046
3.85757
3.79816
3.75232
3.72522
3.70586
3.68708
3.66271
3.62269
3.572
3.52921
3.49565
3.46913
3.44777
3.42748
3.40373
3.37454
3.33481
3.2741
3.20302
3.1554
3.13393
3.12036
3.10896
3.09824
3.08444
3.06755
3.04634
3.02008
2.99005
2.95615
2.91216
2.8539
2.80035
2.77771
2.76573
2.75295
2.73983
2.7272
2.71432
2.69851
2.67885
2.65339
2.61617
2.56169
2.50424
2.47496
2.4631
2.45384
2.44431
2.43182
2.41819
2.40589
2.39415
2.38017
2.3604
2.32735
2.28489
2.24878
4.32424
3.52141
2.86292
2.33325
1.939
1.61646
1.37759
1.16526
1.04206
0.958074
0.877401
0.807828
0.754097
0.716026
0.674666
0.632461
0.597203
0.577898
0.572445
0.561378
0.541027
0.537594
0.540209
0.538386
0.540412
0.55097
0.578569
0.628895
0.700676
0.794953
0.873461
0.918953
0.974118
1.00721
1.02778
1.04775
1.07981
1.09764
1.10273
1.12164
1.15387
1.1994
1.23249
1.23903
1.23812
1.226
1.20652
1.20063
1.20136
1.20616
1.21733
1.22386
1.22062
1.21351
1.2101
1.21137
1.21596
1.22321
1.22831
1.22994
1.22691
1.21772
1.21012
1.20886
1.21121
1.22043
1.2285
1.22978
1.22883
1.22601
1.2219
1.21819
1.21572
1.21391
1.2129
1.21306
1.21328
1.21147
1.207
1.20105
1.19593
1.19296
1.19141
1.1905
1.1894
1.18668
1.18136
1.17466
1.169
1.16414
1.15921
1.15414
1.14916
1.14423
1.14236
1.15513
1.21131
1.42014
1.78036
2.17725
2.43913
2.61598
2.63965
2.59009
2.54342
2.52175
2.52562
2.52785
2.50248
2.46267
2.4177
2.38703
2.37083
2.35203
2.32596
2.29833
2.2795
2.28701
2.35502
2.5278
2.84157
3.1908
3.56358
3.81437
4.02132
4.06268
4.1092
4.13988
4.14928
4.14613
4.13232
4.10217
4.06122
4.00245
3.924
3.83543
3.76228
3.71945
3.69108
3.66519
3.63666
3.59249
3.5437
3.50842
3.48586
3.47059
3.45835
3.44093
3.41644
3.38141
3.34055
3.2916
3.23493
3.17327
3.11702
3.09052
3.07789
3.07027
3.06861
3.06085
3.04659
3.03139
3.00889
2.97384
2.92846
2.87386
2.81251
2.77115
2.75513
2.742
2.72446
2.71057
2.7018
2.68993
2.67465
2.65682
2.63324
2.59674
2.54211
2.48259
2.44666
2.42918
2.41443
2.40157
2.39286
2.38812
2.38608
2.37998
2.36875
2.35287
2.32447
2.26559
4.61943
3.90976
3.26988
2.75658
2.35205
2.00159
1.70681
1.5152
1.34791
1.21379
1.10661
1.01865
0.936407
0.870919
0.823183
0.777033
0.719483
0.699025
0.685723
0.664957
0.64426
0.629107
0.610444
0.583008
0.56896
0.570208
0.576015
0.58374
0.596316
0.618506
0.662449
0.712823
0.764709
0.836738
0.904198
0.947099
0.99764
1.05008
1.07016
1.09518
1.12854
1.16418
1.19325
1.20333
1.20433
1.19949
1.19638
1.19819
1.20242
1.21395
1.22554
1.22479
1.21912
1.20844
1.19997
1.20001
1.20485
1.21239
1.21788
1.22032
1.22196
1.22063
1.21909
1.221
1.2272
1.23361
1.23251
1.22825
1.22122
1.21308
1.20974
1.20883
1.20947
1.21198
1.21363
1.21305
1.21065
1.20595
1.20043
1.19722
1.19528
1.19371
1.1918
1.18956
1.18585
1.17963
1.17231
1.16781
1.16568
1.16512
1.16336
1.16139
1.1578
1.15881
1.188
1.33129
1.6383
2.08093
2.39731
2.60402
2.64616
2.62344
2.59759
2.57656
2.57067
2.56993
2.54476
2.51006
2.47407
2.43804
2.4164
2.40796
2.3863
2.35079
2.31238
2.2841
2.26394
2.25028
2.23859
2.22939
2.25175
2.32558
2.50259
2.78016
3.11278
3.45333
3.72774
3.86031
3.93968
3.98252
4.00426
4.03633
4.03519
4.00737
3.95955
3.88636
3.81268
3.75666
3.70675
3.66035
3.61782
3.57081
3.52835
3.50154
3.47912
3.45427
3.42624
3.39246
3.36607
3.35146
3.3299
3.29904
3.26829
3.22482
3.15885
3.09824
3.07217
3.06173
3.0588
3.05253
3.04142
3.02709
3.00683
2.97442
2.93286
2.89155
2.84603
2.79251
2.74822
2.72297
2.70803
2.70172
2.7015
2.68593
2.6722
2.65851
2.64022
2.61439
2.57733
2.52004
2.45005
2.40237
2.38194
2.37185
2.36671
2.36836
2.37541
2.38256
2.37984
2.36984
2.35513
2.29385
4.85076
4.21145
3.60624
3.13776
2.73113
2.36166
2.04912
1.84018
1.63802
1.46188
1.35039
1.24787
1.14313
1.03389
0.964938
0.917735
0.860772
0.832141
0.810642
0.784744
0.761199
0.740662
0.712335
0.668551
0.627191
0.617162
0.606298
0.59891
0.603242
0.61941
0.622654
0.624561
0.627423
0.641454
0.681367
0.738653
0.803507
0.883152
0.958894
1.02611
1.09358
1.11793
1.14203
1.16827
1.17485
1.17759
1.18665
1.19101
1.19379
1.207
1.21925
1.2186
1.21502
1.20935
1.19808
1.19122
1.19274
1.19748
1.20485
1.21226
1.21616
1.22028
1.22745
1.23621
1.23932
1.23798
1.23306
1.22392
1.21155
1.20323
1.20115
1.20023
1.20264
1.21015
1.21357
1.21295
1.21011
1.20452
1.20038
1.19794
1.19504
1.19158
1.18774
1.18359
1.17912
1.1738
1.16959
1.1687
1.16929
1.16922
1.16843
1.16717
1.18029
1.26449
1.51372
1.93475
2.31719
2.59824
2.67103
2.64531
2.61999
2.60776
2.61341
2.61864
2.59732
2.56228
2.52538
2.48961
2.45715
2.44186
2.43007
2.40347
2.36773
2.3317
2.30019
2.27946
2.2636
2.24546
2.22675
2.20994
2.19424
2.18044
2.17348
2.19762
2.27339
2.45877
2.72024
3.03156
3.32999
3.58702
3.70696
3.83309
3.90061
3.93038
3.91509
3.88315
3.84012
3.79552
3.74226
3.69487
3.64488
3.58866
3.53711
3.50077
3.47127
3.4418
3.40765
3.36252
3.32418
3.3024
3.28779
3.28506
3.27047
3.2446
3.20663
3.15502
3.10173
3.05947
3.03138
3.01877
3.02563
3.02451
3.00439
2.97348
2.93865
2.90789
2.87467
2.82596
2.76383
2.72176
2.70157
2.68418
2.66933
2.66629
2.66524
2.65536
2.63808
2.61688
2.59189
2.55649
2.49781
2.42464
2.38288
2.36867
2.36065
2.35446
2.36447
2.39194
2.39288
2.38
2.36198
2.30289
5.03957
4.45113
3.90268
3.46709
3.06524
2.65495
2.37017
2.14048
1.92775
1.71795
1.57536
1.44763
1.32247
1.22439
1.14611
1.07546
0.997627
0.959074
0.929349
0.896313
0.867807
0.844902
0.813861
0.769796
0.723557
0.706162
0.693642
0.672941
0.662518
0.654843
0.646443
0.642344
0.632176
0.617919
0.617598
0.624452
0.642484
0.684057
0.746528
0.814432
0.891857
0.970055
1.02849
1.09646
1.15334
1.1653
1.17818
1.18107
1.17563
1.18116
1.19472
1.20643
1.20902
1.20748
1.20332
1.1932
1.18499
1.18583
1.18989
1.19661
1.20413
1.21388
1.22765
1.23936
1.24274
1.24188
1.23641
1.22187
1.20219
1.19497
1.19349
1.19326
1.19921
1.2114
1.21535
1.21438
1.21131
1.20601
1.20061
1.19602
1.19156
1.18704
1.18258
1.17884
1.17519
1.17319
1.17331
1.17364
1.1741
1.17114
1.17522
1.21231
1.38169
1.77693
2.19761
2.52828
2.69487
2.66955
2.65142
2.6452
2.64099
2.64791
2.63302
2.60367
2.57123
2.54038
2.50997
2.48738
2.47076
2.44526
2.41191
2.37721
2.34704
2.31774
2.29923
2.28535
2.26747
2.24305
2.21879
2.20005
2.18168
2.16557
2.15009
2.1378
2.12617
2.11633
2.13344
2.20988
2.35944
2.61308
2.9168
3.21628
3.44621
3.64552
3.74179
3.80631
3.79524
3.7667
3.74125
3.71651
3.68391
3.64074
3.59772
3.54341
3.47498
3.42228
3.37984
3.34177
3.30686
3.28218
3.25944
3.24053
3.22738
3.22201
3.20905
3.182
3.14022
3.08361
3.03628
3.0048
2.98305
2.97053
2.96309
2.95455
2.93896
2.91897
2.89335
2.85807
2.81096
2.75373
2.69982
2.65912
2.64164
2.62885
2.6144
2.60606
2.61174
2.61016
2.59276
2.57182
2.54317
2.48908
2.41585
2.37479
2.3607
2.35153
2.34549
2.34276
2.34447
2.34244
2.33285
2.29596
5.18096
4.63788
4.15137
3.73347
3.3333
2.95251
2.65855
2.40103
2.16935
1.97131
1.81037
1.65901
1.50278
1.38357
1.30989
1.24112
1.16824
1.11788
1.06912
1.00992
0.965509
0.938155
0.901647
0.86234
0.828564
0.799616
0.776122
0.75932
0.745042
0.726517
0.700869
0.678382
0.658248
0.640943
0.635426
0.636723
0.642304
0.645339
0.650242
0.660089
0.679847
0.717337
0.774707
0.851158
0.961047
1.0413
1.11318
1.14924
1.15184
1.16315
1.17596
1.18921
1.20035
1.20072
1.19637
1.18671
1.17766
1.17654
1.17946
1.18541
1.19321
1.20445
1.21992
1.23313
1.2371
1.23664
1.23112
1.21746
1.20321
1.19568
1.1928
1.19312
1.20277
1.21392
1.21531
1.21362
1.21054
1.20508
1.19786
1.19191
1.18696
1.18249
1.17899
1.17658
1.17595
1.1766
1.17833
1.17932
1.17616
1.18977
1.28719
1.58602
2.03068
2.45953
2.67701
2.67671
2.68661
2.68849
2.69408
2.68845
2.66386
2.62841
2.59682
2.57337
2.55034
2.53682
2.51937
2.48953
2.45391
2.41898
2.3869
2.36006
2.33601
2.32123
2.30582
2.28435
2.25934
2.23251
2.21189
2.19619
2.17701
2.15389
2.13444
2.11811
2.10515
2.0898
2.07648
2.05853
2.02904
2.04178
2.11058
2.2673
2.51971
2.81117
3.11451
3.35736
3.53268
3.58142
3.62362
3.63644
3.62891
3.64055
3.63551
3.60019
3.53742
3.4541
3.37325
3.33068
3.30408
3.27833
3.24868
3.22243
3.20354
3.1893
3.1809
3.17127
3.15079
3.11512
3.05841
3.00155
2.96411
2.94308
2.92753
2.92235
2.93063
2.92151
2.90437
2.88431
2.85604
2.80424
2.72161
2.65407
2.62178
2.60278
2.58875
2.57856
2.5784
2.59565
2.59184
2.57698
2.55996
2.53316
2.4809
2.40838
2.36442
2.34881
2.33543
2.31799
2.30555
2.2986
2.29593
2.2788
5.30498
4.8007
4.36071
3.97002
3.5568
3.21006
2.92788
2.65907
2.39218
2.19721
2.02043
1.86111
1.70631
1.58094
1.47687
1.38274
1.31389
1.26702
1.217
1.15003
1.08594
1.03104
0.977112
0.932008
0.915584
0.898081
0.873156
0.845403
0.827826
0.809314
0.781421
0.747863
0.719554
0.691377
0.677939
0.677944
0.675199
0.670562
0.668825
0.667066
0.655892
0.646298
0.650964
0.669785
0.721366
0.810438
0.905762
1.01973
1.10414
1.14729
1.16355
1.17749
1.18288
1.18042