/*--------------------------------*- C++ -*----------------------------------*\
  =========                 |
  \\      /  F ield         | OpenFOAM: The Open Source CFD Toolbox
   \\    /   O peration     | Website:  https://openfoam.org
    \\  /    A nd           | Version:  7
     \\/     M anipulation  |
\*---------------------------------------------------------------------------*/
FoamFile
{
    version     2.0;
    format      ascii;
    class       volScalarField;
    location    "1.5";
    object      T;
}
// * * * * * * * * * * * * * * * * * * * * * * * * * * * * * * * * * * * * * //

dimensions      [0 0 0 1 0 0 0];

internalField   nonuniform List<scalar> 
16128
(
1
1
1
1
1
1
1
1
1
1
1
1
1
1
1
1
1
1
1
1
1
1
1
1
1
1.79804
2.68219
2.74836
2.74691
2.7502
2.75583
2.76366
2.77095
2.77529
2.77674
2.77775
2.78194
2.79256
2.80796
2.82369
2.83483
2.83867
2.84006
2.8457
2.86043
2.88425
2.90874
2.91961
1
1
1
1
1
1
1
1
1
1
1
1
1
1
1
1
1
1
1
1
1
1
1
1
1
1.78759
2.67752
2.74782
2.74632
2.74974
2.75542
2.76326
2.77042
2.7746
2.776
2.77706
2.78141
2.79216
2.80747
2.82306
2.83406
2.83784
2.83927
2.84486
2.85948
2.88344
2.90794
2.91889
1
1
1
1
1
1
1
1
1
1
1
1
1
1
1
1
1
1
1
1
1
1
1
1
1
1.75645
2.66748
2.74565
2.74406
2.74797
2.75403
2.76211
2.76921
2.77322
2.77465
2.77588
2.78053
2.79153
2.8068
2.82224
2.83298
2.83656
2.83804
2.84362
2.85819
2.88249
2.9069
2.91784
1
1
1
1
1
1
1
1
1
1
1
1
1
1
1
1
1
1
1
1
1
1
1
1
1
1.70349
2.64897
2.74199
2.74071
2.74527
2.75196
2.76036
2.76732
2.77117
2.77279
2.77434
2.77934
2.79046
2.80562
2.82084
2.83122
2.83461
2.83622
2.84183
2.85637
2.88101
2.90529
2.91619
1
1
1
1
1
1
1
1
1
1
1
1
1
1
1
1
1
1
1
1
1
1
1
1
1
1.63641
2.62506
2.7372
2.73589
2.74098
2.7483
2.75711
2.76407
2.76828
2.77038
2.77255
2.77797
2.78907
2.80402
2.81886
2.82885
2.83206
2.83378
2.83939
2.85386
2.87881
2.90301
2.91389
1
1
1
1
1
1
1
1
1
1
1
1
1
1
1
1
1
1
1
1
1
1
1
1
1
1.54978
2.59294
2.73225
2.73078
2.73618
2.74374
2.75273
2.75981
2.76476
2.76789
2.77095
2.77672
2.78752
2.80196
2.81618
2.82572
2.82878
2.83055
2.8361
2.85044
2.87557
2.89974
2.91061
1
1
1
1
1
1
1
1
1
1
1
1
1
1
1
1
1
1
1
1
1
1
1
1
1
1.44124
2.54786
2.72558
2.72512
2.73109
2.73887
2.74773
2.75505
2.76101
2.76534
2.76932
2.77529
2.78556
2.79927
2.81267
2.82175
2.82467
2.82638
2.83177
2.84591
2.87113
2.89537
2.90627
1
1
1
1
1
1
1
1
1
1
1
1
1
1
1
1
1
1
1
1
1
1
1
1
1
1.30977
2.483
2.7149
2.71845
2.72663
2.73458
2.74305
2.75043
2.75711
2.7627
2.7677
2.7738
2.78333
2.79599
2.80832
2.81691
2.81974
2.82134
2.82649
2.84029
2.86536
2.88966
2.90051
1
1
1
1
1
1
1
1
1
1
1
1
1
1
1
1
1
1
1
1
1
1
1
1
1
1.16304
2.40369
2.70491
2.71264
2.72323
2.73184
2.73983
2.74689
2.75374
2.75984
2.76527
2.77124
2.77985
2.79126
2.80253
2.81069
2.8136
2.8152
2.82011
2.8334
2.85812
2.88251
2.89331
1
1
1
1
1
1
1
1
1
1
1
1
1
1
1
1
1
1
1
1
1
1
1
1
1
1.00968
2.31401
2.70044
2.70879
2.71783
2.72652
2.7345
2.74204
2.74951
2.75617
2.76201
2.76794
2.77582
2.7862
2.79656
2.80398
2.80665
2.80797
2.81224
2.82459
2.84871
2.87324
2.88408
1
1
1
1
1
1
1
1
1
1
1
1
1
1
1
1
1
1
1
1
1
1
1
1
1
1.00006
2.20539
2.69711
2.70578
2.7127
2.72131
2.72981
2.7381
2.74605
2.75287
2.75847
2.76367
2.77018
2.77902
2.78804
2.7947
2.79725
2.79852
2.80208
2.81318
2.83682
2.8619
2.87338
1
1
1
1
1
1
1
1
1
1
1
1
1
1
1
1
1
1
1
1
1
1
1
1
1
1
2.06274
2.68532
2.70017
2.70685
2.71575
2.72503
2.73402
2.74227
2.74904
2.75417
2.75862
2.76402
2.77159
2.77911
2.7847
2.78692
2.78794
2.79055
2.80021
2.82253
2.84727
2.8584
1
1
1
1
1
1
1
1
1
1
1
1
1
1
1
1
1
1
1
1
1
1
1
1
1
1
1.88302
2.64916
2.68884
2.69676
2.70673
2.71708
2.72723
2.7364
2.74356
2.74849
2.75233
2.75675
2.76299
2.76882
2.7734
2.77499
2.77537
2.77596
2.78298
2.80326
2.8275
2.83988
1
1
1
1
1
1
1
1
1
1
1
1
1
1
1
1
1
1
1
1
1
1
1
1
1
1
1.63486
2.56132
2.67606
2.68385
2.69411
2.70499
2.71632
2.72675
2.73492
2.74034
2.74414
2.74811
2.75323
2.75734
2.76065
2.76112
2.76019
2.75935
2.76414
2.78183
2.80269
2.80884
1
1
1
1
1
1
1
1
1
1
1
1
1
1
1
1
1
1
1
1
1
1
1
1
1
1
1.31351
2.44828
2.66847
2.66532
2.675
2.68717
2.70041
2.71258
2.72221
2.72875
2.73308
2.73697
2.7409
2.74366
2.74563
2.74512
2.74252
2.73932
2.73944
2.74815
2.76244
2.76663
1
1
1
1
1
1
1
1
1
1
1
1
1
1
1
1
1
1
1
1
1
1
1
1
1
1
1.02578
2.33276
2.66382
2.6593
2.66658
2.67486
2.68477
2.69566
2.70571
2.71331
2.71868
2.7229
2.72602
2.72785
2.7285
2.72706
2.72222
2.71443
2.70859
2.7111
2.7239
2.74243
1
1
1
1
1
1
1
1
1
1
1
1
1
1
1
1
1
1
1
1
1
1
1
1
1
1
1.00017
2.17645
2.65241
2.65501
2.65945
2.66423
2.67026
2.67851
2.68786
2.69555
2.70147
2.70582
2.70841
2.70925
2.7086
2.706
2.69935
2.68807
2.67357
2.65683
2.61619
2.51422
1
1
1
1
1
1
1
1
1
1
1
1
1
1
1
1
1
1
1
1
1
1
1
1
1
1
1
1.9629
2.62907
2.65575
2.65849
2.66194
2.66455
2.66901
2.67496
2.68058
2.68525
2.68847
2.68986
2.68918
2.68684
2.68243
2.67378
2.65817
2.63358
2.59378
2.53576
2.36481
1
1
1
1
1
1
1
1
1
1
1
1
1
1
1
1
1
1
1
1
1
1
1
1
1
1
1
1.63172
2.52911
2.64635
2.6516
2.65585
2.65793
2.66104
2.66495
2.66845
2.67096
2.67187
2.67132
2.6688
2.66419
2.65724
2.64612
2.62669
2.59493
2.54558
2.45966
2.27779
1
1
1
1
1
1
1
1
1
1
1
1
1
1
1
1
1
1
1
1
1
1
1
1
1
1
1
1.19387
2.37676
2.6448
2.64282
2.64476
2.64763
2.65116
2.65445
2.65716
2.65804
2.65718
2.65468
2.6498
2.64241
2.63224
2.6178
2.59546
2.55854
2.50515
2.40416
2.24196
1
1
1
1
1
1
1
1
1
1
1
1
1
1
1
1
1
1
1
1
1
1
1
1
1
1
1
1.00919
2.23094
2.61088
2.61733
2.62428
2.63075
2.63624
2.6407
2.64414
2.64463
2.64319
2.63943
2.63267
2.62264
2.60933
2.59131
2.56629
2.52754
2.47063
2.37173
2.24517
1
1
1
1
1
1
1
1
1
1
1
1
1
1
1
1
1
1
1
1
1
1
1
1
1
1
1
1.00001
1.96778
2.57587
2.60341
2.61032
2.61621
2.62045
2.62527
2.62952
2.6307
2.62924
2.62493
2.6171
2.60511
2.58914
2.56819
2.5403
2.501
2.44344
2.35556
2.25086
1
1
1
1
1
1
1
1
1
1
1
1
1
1
1
1
1
1
1
1
1
1
1
1
1
1
1
0.999999
1.54396
2.46729
2.59482
2.59574
2.60013
2.60368
2.60785
2.61194
2.61414
2.61327
2.60946
2.60175
2.58905
2.57146
2.54864
2.51874
2.47904
2.42331
2.34774
2.2585
1
1
1
1
1
1
1
1
1
1
1
1
1
1
1
1
1
1
1
1
1
1
1
1
1
1
1
1
1.07733
2.30771
2.59231
2.58419
2.58522
2.58742
2.58964
2.59252
2.59507
2.59489
2.59215
2.58526
2.57284
2.55478
2.53127
2.50063
2.46093
2.40894
2.34342
2.26553
1
1
1
1
1
1
1
1
1
1
1
1
1
1
1
1
1
1
1
1
1
1
1
1
1
1
1
1
1.00131
2.08851
2.55076
2.56529
2.5722
2.57294
2.5729
2.57353
2.57487
2.57523
2.57334
2.56756
2.55608
2.53848
2.51541
2.48491
2.44599
2.39827
2.34069
2.27302
1
1
1
1
1
1
1
1
1
1
1
1
1
1
1
1
1
1
1
1
1
1
1
1
1
1
1
1
0.999995
1.64608
2.45738
2.55021
2.56119
2.56275
2.56075
2.55838
2.55678
2.55556
2.55313
2.54785
2.53763
2.52121
2.49895
2.46934
2.43264
2.38951
2.33814
2.27928
1
1
1
1
1
1
1
1
1
1
1
1
1
1
1
1
1
1
1
1
1
1
1
1
1
1
1
1
0.999999
1.10918
2.28872
2.55118
2.5491
2.5496
2.547
2.54264
2.53877
2.53599
2.53281
2.52775
2.5183
2.5039
2.48218
2.45442
2.42082
2.3822
2.336
2.28489
1
1
1
1
1
1
1
1
1
1
1
1
1
1
1
1
1
1
1
1
1
1
1
1
1
1
1
1
1
1.00262
2.05028
2.50915
2.5289
2.53277
2.52997
2.52585
2.52151
2.51775
2.5134
2.50777
2.49857
2.4851
2.46486
2.43938
2.40892
2.37428
2.33229
2.2872
1
1
1
1
1
1
1
1
1
1
1
1
1
1
1
1
1
1
1
1
1
1
1
1
1
1
1
1
1
0.999992
1.5507
2.40976
2.51536
2.51338
2.51086
2.50833
2.50477
2.50049
2.49505
2.48902
2.47958
2.46686
2.4485
2.42515
2.39734
2.36551
2.3277
2.28732
1
1
1
1
1
1
1
1
1
1
1
1
1
1
1
1
1
1
1
1
1
1
1
1
1
1
1
1
1
0.999998
1.07367
2.23385
2.49947
2.49218
2.49328
2.49157
2.48804
2.48306
2.47731
2.47104
2.46205
2.44972
2.4328
2.41119
2.38556
2.35595
2.32188
2.28546
1
1
1
1
1
1
1
1
1
1
1
1
1
1
1
1
1
1
1
1
1
1
1
1
1
1
1
1
1
1
1.00101
1.86416
2.43146
2.47194
2.47927
2.47856
2.47459
2.46847
2.46202
2.45506
2.446
2.43423
2.41853
2.39856
2.3747
2.34716
2.31601
2.28235
1
1
1
1
1
1
1
1
1
1
1
1
1
1
1
1
1
1
1
1
1
1
1
1
1
1
1
1
1
1
0.999998
1.22009
2.27995
2.47377
2.46749
2.46404
2.45918
2.45265
2.44593
2.43839
2.42953
2.41858
2.40437
2.38633
2.36429
2.33858
2.3095
2.27828
1
1
1
1
1
1
1
1
1
1
1
1
1
1
1
1
1
1
1
1
1
1
1
1
1
1
1
1
1
1
1
1.01043
2.04458
2.43072
2.4461
2.44601
2.44342
2.43807
2.43129
2.42324
2.4141
2.4035
2.39051
2.37424
2.35398
2.3301
2.30303
2.27418
1
1
1
1
1
1
1
1
1
1
1
1
1
1
1
1
1
1
1
1
1
1
1
1
1
1
1
1
1
1
1
1.00001
1.45365
2.31075
2.43742
2.43079
2.42739
2.42298
2.41668
2.40852
2.39919
2.38866
2.37638
2.36144
2.34298
2.32115
2.2963
2.26955
1
1
1
1
1
1
1
1
1
1
1
1
1
1
1
1
1
1
1
1
1
1
1
1
1
1
1
1
1
1
1
0.999999
1.04712
2.11662
2.4135
2.41127
2.40902
2.40572
2.40027
2.39279
2.38386
2.37358
2.36167
2.34755
2.33084
2.3111
2.28853
2.26388
1
1
1
1
1
1
1
1
1
1
1
1
1
1
1
1
1
1
1
1
1
1
1
1
1
1
1
1
1
1
1
1
1.00039
1.58201
2.3061
2.39924
2.39389
2.38962
2.38402
2.37693
2.36831
2.35826
2.34681
2.33368
2.31823
2.30014
2.27958
2.25708
1
1
1
1
1
1
1
1
1
1
1
1
1
1
1
1
1
1
1
1
1
1
1
1
1
1
1
1
1
1
1
1
1
1.08421
2.11953
2.38356
2.37831
2.37345
2.36741
2.36051
2.35226
2.34267
2.33175
2.31929
2.30477
2.28804
2.26931
2.24898
1
1
1
1
1
1
1
1
1
1
1
1
1
1
1
1
1
1
1
1
1
1
1
1
1
1
1
1
1
1
1
1
1
1.00133
1.60361
2.2748
2.36388
2.35758
2.35236
2.34543
2.33726
2.32805
2.31768
2.30577
2.29197
2.27632
2.2592
2.24078
1
1
1
1
1
1
1
1
1
1
1
1
1
1
1
1
1
1
1
1
1
1
1
1
1
1
1
1
1
1
1
1
1
1
1.09455
2.08686
2.35033
2.34466
2.33815
2.33043
2.32226
2.31357
2.30386
2.2926
2.27958
2.26497
2.24922
2.23244
1
1
1
1
1
1
1
1
1
1
1
1
1
1
1
1
1
1
1
1
1
1
1
1
1
1
1
1
1
1
1
1
1
1
1.0017
1.54022
2.22955
2.33004
2.3215
2.31589
2.30885
2.30086
2.29159
2.28083
2.26852
2.25484
2.2401
2.22446
1
1
1
1
1
1
1
1
1
1
1
1
1
1
1
1
1
1
1
1
1
1
1
1
1
1
1
1
1
1
1
1
1
1
1
1.07381
2.02569
2.31339
2.30935
2.30186
2.29453
2.28708
2.27854
2.26865
2.2574
2.24488
2.23118
2.21634
1
1
1
1
1
1
1
1
1
1
1
1
1
1
1
1
1
1
1
1
1
1
1
1
1
1
1
1
1
1
1
1
1
1
1
1.00107
1.4469
2.1771
2.29534
2.28542
2.28099
2.27481
2.2669
2.25748
2.24685
2.23517
2.22242
2.20838
1
1
1
1
1
1
1
1
1
1
1
1
1
1
1
1
1
1
1
1
1
1
1
1
1
1
1
1
1
1
1
1
1
1
1
1
1.04724
1.91144
2.26008
2.27607
2.26912
2.26185
2.25396
2.24504
2.23517
2.22438
2.21258
2.19963
1
1
1
1
1
1
1
1
1
1
1
1
1
1
1
1
1
1
1
1
1
1
1
1
1
1
1
1
1
1
1
1
1
1
1
1
1.00052
1.31816
2.09515
2.26341
2.25286
2.2476
2.24114
2.23329
2.22424
2.21411
2.20297
2.19098
1
1
1
1
1
1
1
1
1
1
1
1
1
1
1
1
1
1
1
1
1
1
1
1
1
1
1
1
1
1
1
1
1
1
1
1
1
1.02177
1.70237
2.18177
2.23925
2.23136
2.22594
2.21945
2.21157
2.20219
2.19163
2.18033
1
1
1
1
1
1
1
1
1
1
1
1
1
1
1
1
1
1
1
1
1
1
1
1
1
1
1
1
1
1
1
1
1
1
1
1
1
1.00018
1.16237
1.97717
2.22749
2.21956
2.2137
2.20694
2.19955
2.19074
2.18077
2.17007
1
1
1
1
1
1
1
1
1
1
1
1
1
1
1
1
1
1
1
1
1
1
1
1
1
1
1
1
1
1
1
1
1
1
1
1
1
1
1.00546
1.4663
2.09742
2.20645
2.19441
2.18975
2.18361
2.17599
2.16721
2.15761
1
1
1
1
1
1
1
1
1
1
1
1
1
1
1
1
1
1
1
1
1
1
1
1
1
1
1
1
1
1
1
1
1
1
1
1
1
1
1.00003
1.05641
1.77931
2.15163
2.18974
2.18009
2.17187
2.1643
2.15632
2.14745
1
1
1
1
1
1
1
1
1
1
1
1
1
1
1
1
1
1
1
1
1
1
1
1
1
1
1
1
1
1
1
1
1
1
1
1
1
1
1
1.00086
1.22803
1.95921
2.1758
2.16922
2.16085
2.15296
2.14492
2.13644
1
1
1
1
1
1
1
1
1
1
1
1
1
1
1
1
1
1
1
1
1
1
1
1
1
1
1
1
1
1
1
1
1
1
1
1
1
1
1
1
1.01105
1.48206
2.05734
2.15629
2.14693
2.13844
2.13097
2.12336
1
1
1
1
1
1
1
1
1
1
1
1
1
1
1
1
1
1
1
1
1
1
1
1
1
1
1
1
1
1
1
1
1
1
1
1
1
1
1
1
1.00008
1.06389
1.7324
2.09712
2.14091
2.12908
2.11995
2.11239
1
1
1
1
1
1
1
1
1
1
1
1
1
1
1
1
1
1
1
1
1
1
1
1
1
1
1
1
1
1
1
1
1
1
1
1
1
1
1
1
1
1.00112
1.20138
1.89149
2.11607
2.12074
2.11253
2.10401
1
1
1
1
1
1
1
1
1
1
1
1
1
1
1
1
1
1
1
1
1
1
1
1
1
1
1
1
1
1
1
1
1
1
1
1
1
1
1
1
1
1
1.00879
1.40025
1.97521
2.10673
2.10215
2.09351
1
1
1
1
1
1
1
1
1
1
1
1
1
1
1
1
1
1
1
1
1
1
1
1
1
1
1
1
1
1
1
1
1
1
1
1
1
1
1
1
1
1
1.00006
1.04111
1.59122
2.02456
2.09292
2.08421
1
1
1
1
1
1
1
1
1
1
1
1
1
1
1
1
1
1
1
1
1
1
1
1
1
1
1
1
1
1
1
1
1
1
1
1
1
1
1
1
1
1
1
1.00059
1.11771
1.75136
2.04111
2.0795
1
1
1
1
1
1
1
1
1
1
1
1
1
1
1
1
1
1
1
1
1
1
1
1
1
1
1
1
1
1
1
1
1
1
1
1
1
1
1
1
1
1
1
1
1.00334
1.24413
1.85207
2.04701
1
1
1
1
1
1
1
1
1
1
1
1
1
1
1
1
1
1
1
1
1
1
1
1
1
1
1
1
1
1
1
1
1
1
1
1
1
1
1
1
1
1
1
1
1.00002
1.01386
1.39161
1.90813
1
1
1
1
1
1
1
1
1
1
1
1
1
1
1
1
1
1
1
1
1
1
1
1
1
1
1
1
1
1
1
1
1
1
1
1
1
1
1
1
1
1
1
1
1
1.00013
1.04169
1.52509
1
1
1
1
1
1
1
1
1
1
1
1
1
1
1
1
1
1
1
1
1
1
1
1
1
1
1
1
1
1
1
1
1
1
1
1
1
1
1
1
1
1
1
1
1
1
1.00066
1.09316
1
1
1
1
1
1
1
1
1
1
1
1
1
1
1
1
1
1
1
1
1
1
1
1
1
1
1
1
1
1
1
1
1
1
1
1
1
1
1
1
1
1
1
1
1
1
1
1.0024
1
1
1
1
1
1
1
1
1
1
1
1
1
1
1
1
1
1
1
1
1
1
1
1
1
1
1
1
1
1
1
1
1
1
1
1
1
1
1
1
1
1
1
1
1
1
1
1.00001
1
1
1
1
1
1
1
1
1
1
1
1
1
1
1
1
1
1
1
1
1
1
1
1
1
1
1
1
1
1
1
1
1
1
1
1
1
1
1
1
1
1
1
1
1
1
1
1
1
1
1
1
1
1
1
1
1
1
1
1
1
1
1
1
1
1
1
1
1
1
1
1
1
1
1
1
1
1
1
1
1
1
1
1
1
1
1
1
1
1
1
1
1
1
1
1
1
1
1
1
1
1
1
1
1
1
1
1
1
1
1
1
1
1
1
1
1
1
1
1
1
1
1
1
1
1
1
1
1
1
1
1
1
1
1
1
1
1
1
1
1
1
1
1
1
1
1
1
1
1
1
1
1
1
1
1
1
1
1
1
1
1
1
1
1
1
1
1
1
1
1
1
1
1
1
1
1
1
1
1
1
1
1
1
1
1
1
1
1
1
1
1
1
1
1
1
1
1
1
1
1
1
1
1
1
1
1
1
1
1
1
1
1
1
1
1
1
1
1
1
1
1
1
1
1
1
1
1
1
1
1
1
1
1
1
1
1
1
1
1
1
1
1
1
1
1
1
1
1
1
1
1
1
1
1
1
1
1
1
1
1
1
1
1
1
1
1
1
1
1
1
1
1
1
1
1
1
1
1
1
1
1
1
1
1
1
1
1
1
1
1
1
1
1
1
1
1
1
1
1
1
1
1
1
1
1
1
1
1
1
1
1
1
1
1
1
1
1
1
1
1
1
1
1
1
1
1
1
1
1
1
1
1
1
1
1
1
1
1
1
1
1
1
1
1
1
1
1
1
1
1
1
1
1
1
1
1
1
1
1
1
1
1
1
1
1
1
1
1
1
1
1
1
1
1
1
1
1
1
1
1
1
1
1
1
1
1
1
1
1
1
1
1
1
1
1
1
1
1
1
1
1
1
1
1
1
1
1
1
1
1
1
1
1
1
1
1
1
1
1
1
1
1
1
1
1
1
1
1
1
1
1
1
1
1
1
1
1
1
1
1
1
1
1
1
1
1
1
1
1
1
1
1
1
1
1
1
1
1
1
1
1
1
1
1
1
1
1
1
1
1
1
1
1
1
1
1
1
1
1
1
1
1
1
1
1
1
1
1
1
1
1
1
1
1
1
1
1
1
1
1
1
1
1
1
1
1
1
1
1
1
1
1
1
1
1
1
1
1
1
1
1
1
1
1
1
1
1
1
1
1
1
1
1
1
1
1
1
1
1
1
1
1
1
1
1
1
1
1
1
1
1
1
1
1
1
1
1
1
1
1
1
1
1
1
1
1
1
1
1
1
1
1
1
1
1
1
1
1
1
1
1
1
1
1
1
1
1
1
1
1
1
1
1
1
1
1
1
1
1
1
1
1
1
1
1
1
1
1
1
1
1
1
1
1
1
1
1
1
1
1
1
1
1
1
1
1
1
1
1
1
1
1
1
1
1
1
1
1
1
1
1
1
1
1
1
1
1
1
1
1
1
1
1
1
1
1
1
1
1
1
1
1
1
1
1
1
1
1
1
1
1
1
1
1
1
1
1
1
1
1
1
1
1
1
1
1
1
1
1
1
1
1
1
1
1
1
1
1
1
1
1
1
1
1
1
1
1
1
1
1
1
1
1
1
1
1
1
1
1
1
1
1
1
1
1
1
1
1
1
1
1
1
1
1
1
1
1
1
1
1
1
1
1
1
1
1
1
1
1
1
1
1
1
1
1
1
1
1
1
1
1
1
1
1
1
1
1
1
1
1
1
1
1
1
1
1
1
1
1
1
1
1
1
1
1
1
1
1
1
1
1
1
1
1
1
1
1
1
1
1
1
1
1
1
1
1
1
1
1
1
1
1
1
1
1
1
1
1
1
1
1
1
1
1
1
1
1
1
1
1
1
1
1
1
1
1
1
1
1
1
1
1
1
1
1
1
1
1
1
1
1
1
1
1
1
1
1
1
1
1
1
1
1
1
1
1
1
1
1
1
1
1
1
1
1
1
1
1
1
1
1
1
1
1
1
1
1
1
1
1
1
1
1
1
1
1
1
1
1
1
1
1
1
1
1
1
1
1
1
1
1
1.62696
1.0046
0.80141
0.807443
0.986171
1.13047
1.1412
1.16703
1.20605
1.25263
1.31731
1.38897
1.47972
1.5943
1.61315
1.61178
1.61524
1.63048
1.68644
1.74986
1.7533
1.7289
1.69931
1.70226
1.72389
1.75243
1.76129
1.75805
1.73266
1.69894
1.69318
1.70252
1.7264
1.73883
1.73904
1.73312
1.72169
1.72113
1.72514
1.73443
1.73792
1.73586
1.72806
1.71961
1.71779
1.72086
1.7308
1.73626
1.73631
1.73531
1.73074
1.72154
1.71296
1.71051
1.71237
1.72134
1.7333
1.74175
1.74417
1.74264
1.73798
1.73645
1.73765
1.74125
1.74626
1.75095
1.75266
1.75239
1.74862
1.74089
1.73195
1.72409
1.71851
1.71564
1.71421
1.71097
1.70691
1.70283
1.69981
1.69803
1.69673
1.69652
1.69851
1.70027
1.70219
1.70479
1.70625
1.70614
1.70503
1.70466
1.70467
1.70472
1.70489
1.70524
1.70581
1.70656
1.70747
1.70854
1.7087
1.70837
1.70716
1.70388
1.69976
1.69844
1.71637
1.79018
1.9389
2.1093
2.2826
2.41567
2.51247
2.58448
2.6335
2.64562
2.63807
2.61579
2.57984
2.54851
2.52762
2.51901
2.51033
2.50307
2.49516
2.48958
2.48539
2.48301
2.48025
2.47375
2.46538
2.45488
2.44458
2.43504
2.42453
2.41269
2.40065
2.38925
2.37876
2.36873
2.35871
2.34915
2.34184
2.33779
2.33583
2.33449
2.33299
2.33004
2.32358
2.31676
2.31506
2.31424
2.31351
2.31301
2.31216
2.31042
2.3068
2.3007
2.29294
2.28441
2.27502
2.26419
2.25179
2.23893
2.2278
2.22024
2.21536
2.21224
2.21221
2.21272
2.21386
2.21482
2.2146
2.21166
2.20272
2.18678
2.17487
2.17066
2.16794
2.16603
2.16556
2.16667
2.16732
2.1676
2.16729
2.16647
2.16458
2.15832
2.14127
2.12225
2.11487
2.10977
2.10504
2.09785
1.86987
1.54176
1.38998
1.15372
1.06544
1.08909
1.08549
1.06255
1.04855
1.05998
1.08283
1.13164
1.18236
1.22064
1.2781
1.32909
1.37662
1.42304
1.47394
1.53507
1.59275
1.60953
1.61033
1.62098
1.64465
1.67223
1.69065
1.68922
1.67303
1.65037
1.64712
1.65762
1.67739
1.68432
1.68454
1.68458
1.6833
1.68438
1.68843
1.69552
1.70246
1.70414
1.70141
1.69634
1.69423
1.69454
1.69764
1.70224
1.70302
1.70392
1.70366
1.70108
1.69619
1.69499
1.69664
1.70125
1.70857
1.71659
1.72244
1.72385
1.72372
1.724
1.72484
1.72617
1.72812
1.72924
1.72895
1.72791
1.72637
1.72342
1.71856
1.71276
1.70765
1.70407
1.70112
1.69768
1.69453
1.69168
1.68929
1.68755
1.68635
1.6858
1.68579
1.68634
1.68798
1.69014
1.69153
1.69162
1.69082
1.69043
1.69073
1.69129
1.69197
1.6929
1.69433
1.69581
1.69643
1.69721
1.69708
1.69618
1.69371
1.69578
1.70542
1.74983
1.85134
1.96864
2.03721
2.06596
2.09875
2.16633
2.24121
2.29441
2.34239
2.39374
2.44033
2.47196
2.48373
2.48733
2.48003
2.4773
2.47253
2.4688
2.46376
2.45769
2.45369
2.45026
2.44576
2.43932
2.43131
2.42138
2.41086
2.40083
2.38986
2.37882
2.36924
2.36042
2.35236
2.34455
2.33625
2.32759
2.32056
2.31716
2.31547
2.31452
2.31389
2.31263
2.30958
2.30459
2.29867
2.29369
2.29061
2.28951
2.2889
2.28761
2.28481
2.28023
2.27421
2.26707
2.25892
2.24963
2.23941
2.22853
2.217
2.20658
2.20009
2.19735
2.19739
2.1978
2.19891
2.20034
2.20076
2.19957
2.19465
2.18409
2.16893
2.15877
2.1549
2.15253
2.15139
2.15172
2.15339
2.15442
2.15458
2.15425
2.15277
2.14793
2.13488
2.11546
2.10563
2.10047
2.09589
2.08972
1.98621
1.7717
1.59945
1.43198
1.29947
1.26456
1.20614
1.13313
1.10244
1.10496
1.08547
1.0803
1.09466
1.10589
1.13667
1.1539
1.16795
1.20202
1.25438
1.30726
1.36929
1.42511
1.46477
1.49448
1.5206
1.54599
1.56791
1.57708
1.57709
1.57488
1.57702
1.58922
1.5988
1.60178
1.60416
1.60496
1.60607
1.60974
1.61465
1.61796
1.62156
1.62655
1.63186
1.63756
1.64097
1.64113
1.63926
1.6371
1.63604
1.63608
1.63776
1.641
1.64487
1.64952
1.65443
1.6586
1.66263
1.66558
1.66652
1.6678
1.67123
1.67494
1.67881
1.68327
1.68566
1.68595
1.68441
1.68075
1.6774
1.67488
1.67323
1.67178
1.67015
1.66776
1.66408
1.66005
1.65629
1.65359
1.65177
1.65059
1.65057
1.65093
1.65099
1.65175
1.6529
1.65376
1.65392
1.6536
1.65247
1.65199
1.65258
1.654
1.65564
1.65764
1.66037
1.66283
1.66377
1.66307
1.66065
1.66139
1.66929
1.7011
1.78302
1.8968
1.9974
2.03659
2.02182
2.00471
1.99419
1.98071
1.9777
2.00042
2.05287
2.12927
2.21153
2.27891
2.32412
2.35626
2.37067
2.38743
2.39286
2.39462
2.39139
2.3829
2.375
2.36569
2.35917
2.35303
2.34628
2.33976
2.33313
2.3259
2.31738
2.30941
2.30343
2.29776
2.29229
2.28674
2.28037
2.27272
2.26531
2.2603
2.25737
2.25574
2.25506
2.2548
2.25432
2.25267
2.24928
2.24404
2.23715
2.23224
2.23141
2.23083
2.22936
2.22684
2.2226
2.2158
2.20754
2.20026
2.19427
2.18857
2.18162
2.17192
2.16183
2.15599
2.15374
2.15304
2.15292
2.15306
2.15373
2.15407
2.15355
2.15038
2.14175
2.12808
2.117
2.11259
2.11022
2.10935
2.11028
2.11225
2.11261
2.11272
2.11232
2.11
2.10195
2.0856
2.07142
2.06436
2.05991
2.05529
2.02966
1.87391
1.74271
1.58554
1.47625
1.42536
1.36431
1.28257
1.25456
1.23724
1.1855
1.15427
1.1579
1.15626
1.1473
1.13563
1.13659
1.13976
1.15262
1.17978
1.21951
1.26897
1.32472
1.37193
1.39832
1.41874
1.4349
1.45
1.47357
1.49182
1.50392
1.51926
1.52538
1.52524
1.52519
1.52832
1.53448
1.53864
1.54327
1.54538
1.54771
1.55384
1.56433
1.57334
1.57599
1.57524
1.57139
1.56525
1.56268
1.56279
1.56502
1.57041
1.578
1.58537
1.58994
1.59316
1.59686
1.59995
1.6014
1.60247
1.60527
1.60841
1.61136
1.61449
1.61606
1.6172
1.61837
1.61852
1.61807
1.61667
1.61546
1.61443
1.61242
1.60983
1.60738
1.60456
1.60191
1.59989
1.59862
1.59827
1.59724
1.59636
1.59644
1.59662
1.59686
1.59729
1.59797
1.59872
1.59917
1.59948
1.60008
1.60126
1.60296
1.60537
1.60801
1.61067
1.61232
1.61355
1.62009
1.63923
1.70266
1.81287
1.90914
1.98764
2.00252
1.98557
1.96242
1.94455
1.93431
1.91973
1.90297
1.88605
1.88087
1.89685
1.94685
2.02458
2.10668
2.17976
2.22674
2.25594
2.27255
2.28784
2.29632
2.29702
2.29859
2.29372
2.28669
2.27919
2.2697
2.2606
2.25243
2.24386
2.23495
2.22703
2.2209
2.21584
2.212
2.20882
2.2053
2.20098
2.19594
2.19112
2.18783
2.18585
2.18405
2.18235
2.18119
2.1801
2.17845
2.17521
2.16875
2.15912
2.15236
2.15119
2.15078
2.14986
2.14757
2.14345
2.13784
2.13218
2.12743
2.12331
2.11859
2.11174
2.10244
2.09385
2.09034
2.09004
2.08998
2.08995
2.09025
2.09056
2.09053
2.08957
2.08589
2.07788
2.06566
2.05358
2.04744
2.04534
2.04468
2.04555
2.04699
2.04788
2.0485
2.04819
2.04534
2.03823
2.02692
2.01396
2.00619
1.99999
2.07917
1.9394
1.83031
1.7171
1.60734
1.54055
1.47684
1.39805
1.36353
1.33601
1.29552
1.25749
1.23969
1.22795
1.20945
1.19445
1.17953
1.17277
1.17725
1.18504
1.18347
1.18719
1.20183
1.22607
1.25375
1.28763
1.32623
1.36025
1.39703
1.42694
1.44139
1.45342
1.4622
1.46376
1.46511
1.47095
1.48331
1.48931
1.49366
1.50048
1.50832
1.52004
1.5319
1.53708
1.537
1.5326
1.52317
1.51547
1.51406
1.51484
1.51868
1.52602
1.53372
1.53808
1.53989
1.54138
1.54325
1.54609
1.55014
1.55363
1.55483
1.55438
1.55376
1.55338
1.5538
1.55612
1.55883
1.56184
1.56507
1.56643
1.56626
1.5647
1.56174
1.55874
1.55674
1.55568
1.55493
1.55409
1.55294
1.55097
1.54876
1.54706
1.54629
1.54616
1.54637
1.54719
1.54808
1.54844
1.54853
1.54855
1.54862
1.54904
1.54992
1.55139
1.55272
1.5548
1.56069
1.57613
1.61991
1.72012
1.83772
1.90858
1.964
1.96904
1.95506
1.9274
1.91274
1.90699
1.90348
1.89243
1.87622
1.86215
1.85597
1.85221
1.85183
1.86147
1.89203
1.94877
2.02738
2.09829
2.14948
2.187
2.21135
2.2183
2.22425
2.22052
2.21906
2.21893
2.21833
2.21322
2.20496
2.19409
2.18255
2.17249
2.16383
2.1559
2.15046
2.14843
2.14725
2.14559
2.14289
2.13839
2.13296
2.12876
2.12554
2.12301
2.12111
2.11917
2.11604
2.11152
2.1048
2.09446
2.08288
2.07624
2.07444
2.07355
2.07237
2.07094
2.06912
2.06734
2.06527
2.06216
2.05769
2.05179
2.04394
2.03401
2.02598
2.0247
2.02475
2.0248
2.02503
2.02517
2.025
2.02377
2.02095
2.01612
2.00818
1.99612
1.98344
1.97784
1.97638
1.97561
1.97521
1.97474
1.9746
1.97471
1.97461
1.97345
1.96973
1.96151
1.95022
1.94005
2.12105
2.00585
1.89732
1.79678
1.71496
1.63707
1.56992
1.50018
1.4569
1.42228
1.38493
1.35313
1.32941
1.31122
1.28808
1.26171
1.23811
1.2254
1.22225
1.21528
1.20278
1.19927
1.19846
1.19532
1.19635
1.20314
1.21997
1.24897
1.28686
1.33332
1.37006
1.38834
1.40878
1.4204
1.42827
1.43661
1.45022
1.45872
1.46148
1.46834
1.47814
1.49199
1.50404
1.50764
1.50753
1.50384
1.49694
1.49464
1.49494
1.49698
1.50252
1.50733
1.50811
1.50822
1.50824
1.50946
1.51235
1.51619
1.51973
1.52192
1.52227
1.52133
1.5202
1.52048
1.52214
1.52596
1.52968
1.53135
1.53246
1.53254
1.53137
1.52958
1.52816
1.5269
1.5259
1.52525
1.52444
1.52264
1.51977
1.51675
1.51434
1.51339
1.5134
1.51386
1.51448
1.51454
1.51369
1.51226
1.51154
1.5115
1.51176
1.5122
1.51274
1.51352
1.51649
1.5246
1.55065
1.6346
1.75205
1.85822
1.9147
1.94744
1.94461
1.92789
1.91001
1.89838
1.89611
1.89396
1.88467
1.87327
1.86275
1.85545
1.85218
1.84802
1.84206
1.83684
1.83392
1.8361
1.85255
1.892
1.95833
2.02355
2.08705
2.12533
2.15599
2.16019
2.16599
2.16955
2.17376
2.17433
2.17319
2.16995
2.16487
2.15696
2.14648
2.13481
2.12576
2.12122
2.11835
2.11537
2.11166
2.10544
2.09845
2.09358
2.09057
2.08846
2.08665
2.08376
2.0794
2.07269
2.06451
2.05534
2.04562
2.03535
2.02608
2.02263
2.02136
2.0207
2.02123
2.02104
2.02024
2.01932
2.01679
2.01137
2.00371
1.99438
1.98402
1.97826
1.97739
1.97669
1.97479
1.97325
1.97273
1.97166
1.96946
1.966
1.9608
1.95257
1.94036
1.92743
1.92056
1.91807
1.91623
1.91528
1.91538
1.91645
1.9178
1.91765
1.91593
1.91227
1.90515
1.89124
2.15479
2.05788
1.95867
1.87024
1.79416
1.71891
1.64588
1.59452
1.54587
1.50215
1.46472
1.43304
1.39992
1.37045
1.34781
1.32569
1.29687
1.28672
1.27996
1.2684
1.25598
1.24621
1.23389
1.21683
1.20798
1.20859
1.21186
1.21607
1.22307
1.23576
1.2608
1.28725
1.31252
1.34666
1.37633
1.3926
1.41134
1.43123
1.43905
1.44805
1.45907
1.47076
1.48094
1.48473
1.48514
1.48402
1.48379
1.48536
1.48781
1.49241
1.49687
1.49699
1.49634
1.49461
1.49287
1.49344
1.49646
1.5005
1.50363
1.50566
1.50753
1.50847
1.50954
1.51134
1.51388
1.51601
1.51582
1.51497
1.51334
1.51096
1.50953
1.5089
1.50894
1.50936
1.50942
1.50877
1.50699
1.50433
1.50153
1.49962
1.49831
1.49744
1.49689
1.49658
1.49598
1.49456
1.49265
1.49187
1.49199
1.49315
1.49442
1.49564
1.49687
1.49939
1.51332
1.57172
1.67805
1.80735
1.88372
1.93121
1.93139
1.92343
1.91372
1.90432
1.90137
1.89961
1.89025
1.87986
1.87109
1.86319
1.85857
1.85692
1.85216
1.84498
1.83757
1.83227
1.82849
1.82529
1.82166
1.81756
1.82155
1.8373
1.87733
1.93584
1.99782
2.056
2.09844
2.1156
2.12669
2.13381
2.13892
2.14766
2.14897
2.14647
2.14146
2.13327
2.12449
2.11777
2.11136
2.10511
2.09896
2.09137
2.08363
2.07832
2.07391
2.06899
2.06339
2.05651
2.05089
2.04726
2.04262
2.03661
2.03072
2.02277
2.01118
2.00121
1.99772
1.99672
1.9971
1.9971
1.99642
1.99498
1.99243
1.98751
1.98074
1.97386
1.96596
1.95632
1.94888
1.94549
1.94365
1.94294
1.94332
1.94098
1.93851
1.93527
1.93071
1.92463
1.91618
1.90356
1.88855
1.87896
1.87595
1.87505
1.87491
1.87627
1.87914
1.88134
1.88092
1.87885
1.87542
1.86291
2.1806
2.09663
2.00781
1.93317
1.86174
1.78907
1.71992
1.67161
1.61997
1.5705
1.53819
1.50638
1.46999
1.42835
1.40072
1.38097
1.35634
1.3445
1.3352
1.32287
1.31056
1.29949
1.28427
1.26115
1.23842
1.23216
1.22555
1.22025
1.22242
1.23082
1.2323
1.23327
1.23535
1.24344
1.26586
1.29497
1.32513
1.36051
1.39299
1.42001
1.44514
1.45319
1.46116
1.46992
1.47189
1.47293
1.47703
1.48025
1.48223
1.48716
1.49124
1.49114
1.4907
1.49025
1.48764
1.48585
1.48697
1.48986
1.4937
1.49752
1.50029
1.50334
1.5074
1.51102
1.512
1.51152
1.50975
1.50643
1.50202
1.49928
1.49859
1.49817
1.49888
1.50099
1.50157
1.5009
1.49895
1.49629
1.49431
1.4928
1.49104
1.48932
1.4879
1.4867
1.4856
1.4844
1.4837
1.48392
1.48504
1.48633
1.4876
1.48947
1.49626
1.531
1.62241
1.75344
1.85182
1.91716
1.9289
1.92217
1.91371
1.90714
1.90708
1.90693
1.89936
1.88906
1.87963
1.8714
1.86441
1.86156
1.85886
1.85322
1.84639
1.83975
1.83413
1.83012
1.82665
1.82186
1.81581
1.80937
1.80261
1.79604
1.79051
1.79498
1.81182
1.85521
1.91246
1.97374
2.02741
2.07107
2.09136
2.11397
2.12583
2.13441
2.13358
2.13087
2.12636
2.12135
2.11469
2.10797
2.0999
2.09007
2.08012
2.07229
2.06536
2.05889
2.05191
2.04265
2.03418
2.02925
2.02607
2.02509
2.02203
2.0173
2.0107
2.00193
1.99316
1.98658
1.98258
1.98125
1.98324
1.98367
1.98093
1.97589
1.96991
1.96476
1.95905
1.95022
1.93845
1.93043
1.92704
1.9244
1.92172
1.92088
1.92041
1.91788
1.91364
1.90837
1.90238
1.89446
1.88182
1.86603
1.85733
1.85504
1.85397
1.85312
1.85595
1.86273
1.86324
1.86093
1.85727
1.84606
2.20171
2.12663
2.05002
1.98444
1.91806
1.84194
1.78535
1.73712
1.68872
1.63599
1.59886
1.56245
1.52286
1.49027
1.46376
1.43899
1.40961
1.39496
1.38277
1.36798
1.35483
1.34458
1.33044
1.30991
1.28716
1.27765
1.27055
1.25901
1.25284
1.248
1.24292
1.2406
1.23439
1.22536
1.22499
1.22889
1.23846
1.26068
1.2933
1.32669
1.36244
1.39551
1.41825
1.44345
1.46387
1.46864
1.47417
1.47624
1.47434
1.47613
1.48095
1.48567
1.48748
1.48815
1.48818
1.48567
1.48324
1.48396
1.48629
1.48976
1.49401
1.49932
1.50551
1.51008
1.51129
1.5109
1.50841
1.50224
1.49462
1.49217
1.49193
1.49198
1.4942
1.4978
1.49846
1.49752
1.49539
1.49289
1.4906
1.48842
1.48615
1.48406
1.4824
1.48131
1.48047
1.48035
1.48096
1.48184
1.48297
1.48363
1.48637
1.50294
1.56937
1.70224
1.81744
1.8971
1.92959
1.92238
1.91671
1.91231
1.9099
1.90996
1.90431
1.89544
1.88675
1.87917
1.8724
1.86786
1.86437
1.85907
1.85273
1.84626
1.84086
1.83565
1.83247
1.82983
1.82519
1.81793
1.80982
1.80248
1.79489
1.78745
1.78017
1.77426
1.76953
1.76588
1.77066
1.79124
1.82955
1.88952
1.95439
2.0127
2.05518
2.09233
2.10982
2.1212
2.12038
2.11707
2.11385
2.11002
2.10411
2.09562
2.0864
2.07509
2.06176
2.0512
2.04247
2.03495
2.02786
2.02219
2.01669
2.01252
2.01025
2.00969
2.0076
2.00283
1.9959
1.98664
1.97863
1.97358
1.97027
1.96854
1.96765
1.96633
1.9633
1.95944
1.95473
1.94857
1.94029
1.92914
1.91826
1.91053
1.90733
1.90423
1.90057
1.89838
1.89913
1.89802
1.89302
1.88775
1.8813
1.86982
1.85381
1.84491
1.84246
1.84106
1.84039
1.84035
1.84154
1.84179
1.84048
1.83385
2.21742
2.14977
2.08435
2.02383
1.96052
1.89469
1.84117
1.79063
1.74108
1.69597
1.65779
1.61828
1.57327
1.53776
1.51593
1.49449
1.47008
1.45259
1.4345
1.41104
1.39299
1.38223
1.36699
1.34989
1.33477
1.32114
1.30936
1.30063
1.29326
1.28375
1.27027
1.25817
1.24638
1.23627
1.23226
1.23251
1.23458
1.23571
1.23822
1.24373
1.2539
1.27375
1.30273
1.33883
1.38728
1.42116
1.44993
1.46297
1.4637
1.46789
1.47329
1.47916
1.4844
1.48513
1.48463
1.48248
1.48024
1.4802
1.48187
1.48502
1.48916
1.49466
1.50153
1.5066
1.50788
1.50754
1.50478
1.49866
1.49281
1.49015
1.48941
1.48966
1.49298
1.49604
1.49597
1.49437
1.49217
1.48971
1.4869
1.48435
1.48211
1.48027
1.47906
1.47844
1.47846
1.4792
1.48067
1.48186
1.48216
1.48849
1.52842
1.63735
1.77086
1.87921
1.92524
1.92216
1.92175
1.91868
1.91852
1.91613
1.90757
1.8973
1.88881
1.8829
1.87761
1.87453
1.87036
1.86412
1.8577
1.85163
1.84616
1.84161
1.83741
1.83508
1.83192
1.82661
1.81962
1.8113
1.80357
1.79648
1.78815
1.779
1.7713
1.7652
1.76079
1.75645
1.75345
1.74979
1.74464
1.74933
1.76992
1.81279
1.87484
1.93886
1.99983
2.04517
2.07593
2.08306
2.09013
2.09295
2.09073
2.09099
2.08875
2.08061
2.06781
2.05185
2.03741
2.02977
2.02441
2.01901
2.01308
2.00759
2.0037
2.00114
2.00011
1.9988
1.99527
1.98915
1.97926
1.96925
1.96293
1.95951
1.95676
1.95573
1.957
1.95469
1.95082
1.94703
1.9422
1.93327
1.918
1.90436
1.8975
1.89336
1.88983
1.88681
1.88613
1.8884
1.88654
1.88201
1.87746
1.87124
1.86027
1.84478
1.8355
1.83303
1.83086
1.82767
1.82591
1.82523
1.82523
1.82211
2.23082
2.16969
2.11243
2.05779
1.995
1.93871
1.89033
1.8407
1.78704
1.7461
1.70649
1.66771
1.62776
1.59488
1.56614
1.53776
1.5161
1.50152
1.4851
1.46158
1.43835
1.41781
1.3965
1.37773
1.37089
1.36334
1.35221
1.33932
1.33091
1.3219
1.30823
1.29148
1.27635
1.26102
1.25309
1.25225
1.25004
1.24699
1.24563
1.24404
1.23711
1.23143
1.23416
1.2444
1.27232
1.31816
1.36316
1.41149
1.44437
1.46076
1.46774
1.47352
1.4774
1.477
1.47527
1.47415
1.47442
1.47587
1.47967
1.48545
1.48932
1.49226
1.49614
1.49884
1.49867
1.49852
1.49669
1.49251
1.4899
1.48909
1.48838
1.48898
1.49222
1.49344
1.49254
1.49038
1.48802
1.48558
1.48294
1.48035
1.4785
1.47734
1.47682
1.47671
1.47792
1.47906
1.48032
1.48254
1.50006
1.57499
1.7106
1.8419
1.91892
1.92235
1.92409
1.92462
1.92577
1.92437
1.91524
1.9028