/*--------------------------------*- C++ -*----------------------------------*\
  =========                 |
  \\      /  F ield         | OpenFOAM: The Open Source CFD Toolbox
   \\    /   O peration     | Website:  https://openfoam.org
    \\  /    A nd           | Version:  7
     \\/     M anipulation  |
\*---------------------------------------------------------------------------*/
FoamFile
{
    version     2.0;
    format      ascii;
    class       volVectorField;
    location    "1.5";
    object      U;
}
// * * * * * * * * * * * * * * * * * * * * * * * * * * * * * * * * * * * * * //

dimensions      [0 1 -1 0 0 0 0];

internalField   nonuniform List<vector> 
16128
(
(3 -7.44015e-18 0)
(3 -1.01584e-16 0)
(3 8.9878e-17 0)
(3 1.93302e-17 0)
(3 1.85181e-16 0)
(3 1.10885e-15 0)
(3 1.24418e-15 0)
(3 8.13994e-17 0)
(3 -2.71684e-16 0)
(3 -2.39142e-16 0)
(3 -4.15503e-16 0)
(3 -9.98547e-16 0)
(3 -8.88067e-16 0)
(3 -7.95307e-16 0)
(3 -9.03639e-16 0)
(3 -7.17094e-16 0)
(3 -5.84296e-16 0)
(3 -8.93651e-16 0)
(3 -5.70194e-16 0)
(3 -5.65268e-16 0)
(3 2.66129e-16 0)
(3 6.56578e-16 0)
(3 9.75238e-16 0)
(3 6.53338e-16 0)
(3 -1.12958e-16 0)
(1.97845 0.00683099 0)
(0.797064 0.0088048 0)
(0.703058 0.0156019 0)
(0.673533 0.0135835 0)
(0.643681 0.0124389 0)
(0.615094 0.0122096 0)
(0.584323 0.0135008 0)
(0.550293 0.0158364 0)
(0.513894 0.0171704 0)
(0.478796 0.0163636 0)
(0.447421 0.015126 0)
(0.41829 0.0145328 0)
(0.389709 0.0140698 0)
(0.361567 0.0136541 0)
(0.33257 0.0142956 0)
(0.299827 0.0154523 0)
(0.264444 0.0164689 0)
(0.227713 0.0174513 0)
(0.189767 0.0185344 0)
(0.149286 0.0195447 0)
(0.109829 0.0208235 0)
(0.0676317 0.0216631 0)
(0.0235511 0.022772 0)
(3 -1.65194e-16 0)
(3 -4.31707e-16 0)
(3 -1.27595e-17 0)
(3 2.17124e-16 0)
(3 7.61918e-16 0)
(3 1.4292e-15 0)
(3 1.85162e-15 0)
(3 8.99395e-16 0)
(3 -4.31519e-16 0)
(3 -4.15838e-16 0)
(3 -9.53894e-16 0)
(3 -1.9617e-15 0)
(3 -2.27218e-15 0)
(3 -2.23519e-15 0)
(3 -2.50429e-15 0)
(3 -2.01602e-15 0)
(3 -1.46848e-15 0)
(3 -1.74739e-15 0)
(3 -1.64367e-15 0)
(3 -1.67386e-15 0)
(3 -7.08325e-16 0)
(3 -4.62087e-16 0)
(3 6.30952e-16 0)
(3 7.56688e-16 0)
(3 6.53812e-16 0)
(1.99282 0.0335792 0)
(0.791119 0.039147 0)
(0.693238 0.0445669 0)
(0.665831 0.038889 0)
(0.636677 0.0361921 0)
(0.60763 0.036115 0)
(0.575639 0.0400793 0)
(0.540524 0.0465038 0)
(0.503811 0.0494813 0)
(0.469749 0.0468874 0)
(0.439705 0.0438139 0)
(0.411427 0.0427752 0)
(0.383086 0.0418466 0)
(0.354702 0.0408607 0)
(0.325317 0.0427631 0)
(0.29238 0.0461178 0)
(0.257371 0.0490031 0)
(0.221729 0.0519934 0)
(0.185211 0.0555071 0)
(0.146475 0.0590452 0)
(0.108098 0.0630962 0)
(0.0666818 0.0657728 0)
(0.0234403 0.0691959 0)
(3 -3.62147e-16 0)
(3 -4.264e-16 0)
(3 -3.59257e-16 0)
(3 -1.9165e-17 0)
(3 1.48067e-16 0)
(3 7.40344e-18 0)
(3 7.30643e-16 0)
(3 1.0961e-15 0)
(3 5.27395e-16 0)
(3 -3.42274e-16 0)
(3 -1.11527e-15 0)
(3 -1.52814e-15 0)
(3 -2.04981e-15 0)
(3 -1.69649e-15 0)
(3 -1.13675e-15 0)
(3 -1.42667e-15 0)
(3 -1.116e-15 0)
(3 -9.14582e-16 0)
(3 -1.46337e-15 0)
(3 -1.12535e-15 0)
(3 -8.07593e-16 0)
(3 -5.11076e-16 0)
(3 -9.52888e-17 0)
(3 1.13416e-15 0)
(3 1.27522e-15 0)
(2.05047 0.0640928 0)
(0.799843 0.0722344 0)
(0.696447 0.0732072 0)
(0.670076 0.0646009 0)
(0.639793 0.0613285 0)
(0.60889 0.0625797 0)
(0.574532 0.0698483 0)
(0.537153 0.0796109 0)
(0.499026 0.0825371 0)
(0.465427 0.077151 0)
(0.436338 0.0721839 0)
(0.408836 0.071106 0)
(0.380741 0.0702913 0)
(0.351782 0.0691975 0)
(0.321109 0.0723741 0)
(0.286788 0.0777123 0)
(0.250805 0.0819482 0)
(0.215024 0.0863222 0)
(0.178812 0.091443 0)
(0.141326 0.0968888 0)
(0.103908 0.10336 0)
(0.0637608 0.10792 0)
(0.0226258 0.113893 0)
(3 4.61508e-17 0)
(3 9.28086e-17 0)
(3 -1.37905e-16 0)
(3 -2.46172e-16 0)
(3 -5.41638e-16 0)
(3 -1.05416e-15 0)
(3 -1.02187e-15 0)
(3 -7.00566e-16 0)
(3 -5.67456e-16 0)
(3 -1.10182e-15 0)
(3 -1.20595e-15 0)
(3 -1.27879e-15 0)
(3 -1.91977e-15 0)
(3 -1.69801e-15 0)
(3 -2.74355e-16 0)
(3 8.40274e-16 0)
(3 1.52018e-15 0)
(3 1.32237e-15 0)
(3 -1.49655e-17 0)
(3 -2.9794e-16 0)
(3 -4.02903e-17 0)
(3 1.84041e-16 0)
(3 -1.35526e-16 0)
(3 3.68901e-16 0)
(3 1.89887e-16 0)
(2.14755 0.0873674 0)
(0.818018 0.102556 0)
(0.706307 0.0991995 0)
(0.680048 0.0892511 0)
(0.648187 0.0867761 0)
(0.615215 0.0904732 0)
(0.578731 0.101566 0)
(0.539535 0.113745 0)
(0.500845 0.115046 0)
(0.468594 0.106407 0)
(0.440693 0.099752 0)
(0.414042 0.0990757 0)
(0.386066 0.0991269 0)
(0.356118 0.0988213 0)
(0.323678 0.103926 0)
(0.287435 0.111607 0)
(0.249687 0.117124 0)
(0.212741 0.122421 0)
(0.17549 0.128195 0)
(0.137954 0.134494 0)
(0.100475 0.142593 0)
(0.0609562 0.14859 0)
(0.0217858 0.15687 0)
(3 1.48586e-16 0)
(3 5.28653e-16 0)
(3 4.74103e-16 0)
(3 3.96864e-16 0)
(3 1.55865e-16 0)
(3 1.44483e-16 0)
(3 -3.88588e-16 0)
(3 -3.21033e-16 0)
(3 -6.03217e-17 0)
(3 -6.30947e-16 0)
(3 -1.09451e-15 0)
(3 -9.33085e-16 0)
(3 -1.40495e-15 0)
(3 -1.75883e-15 0)
(3 -2.09986e-15 0)
(3 -1.17564e-15 0)
(3 4.43444e-16 0)
(3 8.13964e-16 0)
(3 9.54129e-16 0)
(3 -4.36237e-16 0)
(3 -1.10889e-15 0)
(3 -8.39464e-16 0)
(3 -1.01286e-15 0)
(3 -6.49183e-16 0)
(3 -6.2749e-16 0)
(2.26654 0.106317 0)
(0.836764 0.132666 0)
(0.709395 0.125909 0)
(0.682527 0.115464 0)
(0.649409 0.114574 0)
(0.615033 0.12098 0)
(0.578078 0.135099 0)
(0.540009 0.147342 0)
(0.505142 0.145308 0)
(0.477805 0.13336 0)
(0.451971 0.125618 0)
(0.426011 0.126124 0)
(0.397489 0.128161 0)
(0.36566 0.129757 0)
(0.331061 0.137389 0)
(0.292819 0.147591 0)
(0.253262 0.154392 0)
(0.21492 0.160383 0)
(0.17609 0.166265 0)
(0.13762 0.172618 0)
(0.0991907 0.181626 0)
(0.0593958 0.188474 0)
(0.0213289 0.198554 0)
(3 1.09077e-16 0)
(3 2.52695e-16 0)
(3 2.31875e-16 0)
(3 3.89485e-16 0)
(3 7.14123e-16 0)
(3 9.35946e-16 0)
(3 5.90063e-16 0)
(3 3.15414e-16 0)
(3 2.7993e-16 0)
(3 3.68452e-16 0)
(3 -9.46322e-17 0)
(3 -4.95927e-16 0)
(3 2.8008e-16 0)
(3 6.37023e-16 0)
(3 -1.60434e-16 0)
(3 -7.66676e-16 0)
(3 -6.28955e-16 0)
(3 -6.43195e-16 0)
(3 8.18609e-16 0)
(3 4.46703e-16 0)
(3 2.75816e-16 0)
(3 -1.58984e-16 0)
(3 -4.40072e-16 0)
(3 -9.34021e-16 0)
(3 -1.45011e-15 0)
(2.41372 0.121764 0)
(0.86258 0.164451 0)
(0.713234 0.152087 0)
(0.684749 0.141897 0)
(0.650192 0.142988 0)
(0.615428 0.152183 0)
(0.5809 0.167972 0)
(0.547563 0.177205 0)
(0.519526 0.170105 0)
(0.495099 0.156463 0)
(0.468719 0.150199 0)
(0.441361 0.153865 0)
(0.410608 0.159349 0)
(0.375951 0.163386 0)
(0.339232 0.173337 0)
(0.299568 0.185739 0)
(0.258828 0.193597 0)
(0.219476 0.20004 0)
(0.179275 0.205747 0)
(0.139658 0.211763 0)
(0.0999852 0.22134 0)
(0.0593184 0.228665 0)
(0.0213303 0.240113 0)
(3 6.05674e-17 0)
(3 -1.37143e-16 0)
(3 -6.04799e-16 0)
(3 -2.60579e-16 0)
(3 8.05701e-16 0)
(3 7.54295e-16 0)
(3 3.7746e-16 0)
(3 -1.40383e-16 0)
(3 -4.96202e-17 0)
(3 2.18275e-16 0)
(3 4.53058e-16 0)
(3 6.36267e-16 0)
(3 1.18668e-15 0)
(3 2.2128e-15 0)
(3 2.18718e-15 0)
(3 1.06015e-15 0)
(3 -3.14051e-16 0)
(3 -4.74401e-16 0)
(3 1.98755e-16 0)
(3 5.22676e-16 0)
(3 1.07759e-15 0)
(3 8.93533e-16 0)
(3 6.41645e-16 0)
(3 3.80217e-16 0)
(3 -6.58618e-16 0)
(2.58627 0.128943 0)
(0.901372 0.196992 0)
(0.720898 0.178654 0)
(0.69149 0.169802 0)
(0.656993 0.172022 0)
(0.624585 0.182761 0)
(0.594242 0.196865 0)
(0.565974 0.199918 0)
(0.541261 0.190519 0)
(0.515449 0.179391 0)
(0.486244 0.177026 0)
(0.45578 0.18469 0)
(0.422232 0.193665 0)
(0.385187 0.199567 0)
(0.347314 0.210993 0)
(0.307398 0.225048 0)
(0.266394 0.233786 0)
(0.226579 0.240659 0)
(0.185402 0.246325 0)
(0.144551 0.252143 0)
(0.103379 0.262413 0)
(0.0611331 0.270165 0)
(0.0219582 0.282771 0)
(3 -4.90345e-17 0)
(3 -1.21452e-16 0)
(3 -2.3973e-16 0)
(3 2.55445e-16 0)
(3 3.47833e-16 0)
(3 2.93102e-16 0)
(3 1.62744e-16 0)
(3 4.73942e-18 0)
(3 -1.5843e-16 0)
(3 -2.89776e-16 0)
(3 -1.87487e-16 0)
(3 4.3373e-17 0)
(3 -1.12631e-16 0)
(3 7.62766e-16 0)
(3 1.21918e-15 0)
(3 1.09838e-15 0)
(3 5.13204e-16 0)
(3 9.83246e-16 0)
(3 1.49619e-15 0)
(3 1.83058e-15 0)
(3 1.3355e-15 0)
(3 8.44264e-16 0)
(3 1.00759e-15 0)
(3 1.44434e-15 0)
(3 1.17516e-15 0)
(2.77 0.12414 0)
(0.95866 0.226389 0)
(0.736026 0.203068 0)
(0.709317 0.194646 0)
(0.676515 0.197913 0)
(0.645946 0.208228 0)
(0.61668 0.219054 0)
(0.588623 0.220327 0)
(0.561767 0.213066 0)
(0.532674 0.205837 0)
(0.500337 0.207912 0)
(0.466527 0.219409 0)
(0.430241 0.231045 0)
(0.39182 0.237664 0)
(0.354669 0.249443 0)
(0.316552 0.264588 0)
(0.276623 0.274254 0)
(0.236648 0.281979 0)
(0.194163 0.288261 0)
(0.151376 0.294461 0)
(0.108128 0.305734 0)
(0.0638086 0.31394 0)
(0.0226195 0.327418 0)
(3 -2.78527e-16 0)
(3 -4.51474e-16 0)
(3 1.44032e-18 0)
(3 4.41558e-16 0)
(3 1.47059e-16 0)
(3 -4.33573e-16 0)
(3 -1.08995e-15 0)
(3 -1.52824e-15 0)
(3 -1.25199e-15 0)
(3 -1.25216e-15 0)
(3 -1.20546e-15 0)
(3 -1.18842e-15 0)
(3 -1.12831e-15 0)
(3 -6.28126e-16 0)
(3 1.34221e-16 0)
(3 9.32968e-16 0)
(3 1.80214e-15 0)
(3 1.92295e-15 0)
(3 1.60556e-15 0)
(3 1.22265e-15 0)
(3 1.03907e-15 0)
(3 3.46066e-16 0)
(3 2.81369e-16 0)
(3 1.65895e-16 0)
(3 -2.38543e-16 0)
(2.93362 0.0727502 0)
(1.02819 0.255124 0)
(0.754807 0.220626 0)
(0.730079 0.215984 0)
(0.698364 0.2228 0)
(0.66743 0.234241 0)
(0.636287 0.244932 0)
(0.604381 0.247503 0)
(0.571766 0.242371 0)
(0.5375 0.237478 0)
(0.502512 0.242233 0)
(0.469476 0.256143 0)
(0.43639 0.268908 0)
(0.402042 0.274856 0)
(0.368273 0.285749 0)
(0.332626 0.301852 0)
(0.29315 0.313654 0)
(0.251823 0.323923 0)
(0.206724 0.332302 0)
(0.160832 0.33973 0)
(0.114598 0.352214 0)
(0.0674972 0.360645 0)
(0.0234584 0.374394 0)
(3 -1.57101e-16 0)
(3 -4.23057e-17 0)
(3 -9.20845e-17 0)
(3 -1.66443e-16 0)
(3 -7.68849e-16 0)
(3 -1.37639e-15 0)
(3 -1.26767e-15 0)
(3 -1.08807e-15 0)
(3 -1.23098e-15 0)
(3 -1.5738e-15 0)
(3 -9.10559e-16 0)
(3 -6.1244e-16 0)
(3 -4.2469e-17 0)
(3 3.8867e-16 0)
(3 1.03501e-15 0)
(3 1.29972e-15 0)
(3 1.21603e-15 0)
(3 5.42698e-16 0)
(3 -7.17543e-17 0)
(3 3.68432e-16 0)
(3 6.27411e-16 0)
(3 6.82245e-16 0)
(3 6.90599e-16 0)
(3 7.48555e-16 0)
(3 6.52799e-16 0)
(3.0136 0.00869038 0)
(1.12041 0.267945 0)
(0.76425 0.241929 0)
(0.731933 0.244741 0)
(0.700259 0.254141 0)
(0.668296 0.265943 0)
(0.637052 0.275441 0)
(0.606236 0.277583 0)
(0.576105 0.272868 0)
(0.544985 0.268658 0)
(0.513103 0.274055 0)
(0.483084 0.288469 0)
(0.452517 0.301831 0)
(0.419706 0.30862 0)
(0.385657 0.320947 0)
(0.348969 0.340308 0)
(0.306734 0.356154 0)
(0.262162 0.369905 0)
(0.214196 0.380617 0)
(0.166766 0.389068 0)
(0.119535 0.402428 0)
(0.0710522 0.410697 0)
(0.024439 0.424143 0)
(3 1.70546e-16 0)
(3 7.71768e-16 0)
(3 4.5141e-16 0)
(3 -2.34888e-16 0)
(3 -8.73112e-16 0)
(3 -7.50836e-16 0)
(3 -3.97453e-16 0)
(3 3.42717e-16 0)
(3 9.98807e-17 0)
(3 -4.00886e-17 0)
(3 -1.91053e-16 0)
(3 3.90568e-16 0)
(3 8.48492e-16 0)
(3 1.27478e-15 0)
(3 1.1444e-15 0)
(3 5.93733e-16 0)
(3 -3.80911e-16 0)
(3 -9.36594e-16 0)
(3 -7.64435e-16 0)
(3 -6.92229e-16 0)
(3 -4.41406e-16 0)
(3 7.27781e-16 0)
(3 1.33768e-15 0)
(3 1.57995e-15 0)
(3 1.2569e-15 0)
(3.00059 4.32515e-05 0)
(1.26484 0.298511 0)
(0.761783 0.270343 0)
(0.717644 0.266996 0)
(0.689372 0.278905 0)
(0.660255 0.291962 0)
(0.632122 0.301307 0)
(0.604469 0.30377 0)
(0.576905 0.300235 0)
(0.547522 0.297405 0)
(0.516823 0.304243 0)
(0.487541 0.320461 0)
(0.457225 0.336295 0)
(0.424045 0.345563 0)
(0.389739 0.359799 0)
(0.354481 0.382063 0)
(0.314114 0.401114 0)
(0.272069 0.417181 0)
(0.226335 0.429608 0)
(0.180507 0.439003 0)
(0.132503 0.454532 0)
(0.0802627 0.464525 0)
(0.0280551 0.479058 0)
(3 -7.97693e-17 0)
(3 7.39922e-17 0)
(3 2.19932e-16 0)
(3 -1.79462e-16 0)
(3 -3.02989e-16 0)
(3 6.98473e-16 0)
(3 1.02619e-15 0)
(3 1.03622e-15 0)
(3 9.33967e-16 0)
(3 5.18162e-16 0)
(3 4.27578e-16 0)
(3 4.53113e-16 0)
(3 4.12396e-16 0)
(3 3.69582e-16 0)
(3 8.10425e-17 0)
(3 -9.03448e-16 0)
(3 -1.4867e-15 0)
(3 -1.09993e-15 0)
(3 -9.77972e-16 0)
(3 -1.10966e-15 0)
(3 -1.07852e-15 0)
(3 -5.75249e-16 0)
(3 -6.62055e-16 0)
(3 -5.43552e-16 0)
(3 -9.81244e-17 0)
(3 -7.76879e-08 0)
(1.49385 0.331375 0)
(0.777075 0.309877 0)
(0.709568 0.295076 0)
(0.68061 0.305095 0)
(0.654151 0.317757 0)
(0.62879 0.326675 0)
(0.603229 0.329564 0)
(0.576686 0.327546 0)
(0.547911 0.325928 0)
(0.517887 0.333558 0)
(0.489689 0.351087 0)
(0.460775 0.369382 0)
(0.428625 0.381274 0)
(0.395679 0.397335 0)
(0.363837 0.421958 0)
(0.326709 0.444187 0)
(0.286933 0.462609 0)
(0.242985 0.478901 0)
(0.19588 0.492477 0)
(0.145333 0.512833 0)
(0.0888427 0.526654 0)
(0.0300377 0.542128 0)
(3 -6.9157e-17 0)
(3 -4.58265e-16 0)
(3 -2.71592e-16 0)
(3 -2.52178e-16 0)
(3 -3.76065e-16 0)
(3 -6.66086e-17 0)
(3 3.3884e-16 0)
(3 3.92898e-16 0)
(3 -4.98869e-17 0)
(3 2.59295e-16 0)
(3 1.21706e-15 0)
(3 1.34687e-15 0)
(3 1.19141e-15 0)
(3 6.75592e-16 0)
(3 3.68779e-17 0)
(3 -8.82261e-16 0)
(3 -1.24209e-15 0)
(3 -1.128e-15 0)
(3 -1.14863e-15 0)
(3 -9.86503e-16 0)
(3 -6.6292e-16 0)
(3 -8.43437e-16 0)
(3 -7.80442e-16 0)
(3 -7.87908e-16 0)
(3 3.29166e-16 0)
(3 -1.82067e-08 0)
(1.81616 0.36823 0)
(0.808778 0.365042 0)
(0.722563 0.33281 0)
(0.695663 0.335161 0)
(0.670282 0.344247 0)
(0.644663 0.352141 0)
(0.61794 0.356293 0)
(0.589971 0.35651 0)
(0.560233 0.356027 0)
(0.529554 0.363688 0)
(0.501245 0.381789 0)
(0.473088 0.402292 0)
(0.441368 0.416636 0)
(0.409991 0.434247 0)
(0.380323 0.460501 0)
(0.346577 0.486405 0)
(0.307994 0.508194 0)
(0.267832 0.529666 0)
(0.221944 0.548326 0)
(0.170864 0.574308 0)
(0.107821 0.596345 0)
(0.038644 0.616605 0)
(3 1.01153e-16 0)
(3 -6.26523e-17 0)
(3 -2.63064e-16 0)
(3 -3.52424e-16 0)
(3 -2.62478e-16 0)
(3 -9.87625e-16 0)
(3 -9.14235e-16 0)
(3 -5.11579e-18 0)
(3 1.90159e-16 0)
(3 8.78813e-16 0)
(3 1.2343e-15 0)
(3 1.29188e-15 0)
(3 7.56719e-16 0)
(3 3.09743e-17 0)
(3 -4.28843e-16 0)
(3 -2.77158e-16 0)
(3 -3.2781e-17 0)
(3 -7.89835e-16 0)
(3 -8.99818e-16 0)
(3 -7.47007e-16 0)
(3 -9.48383e-16 0)
(3 -1.16283e-15 0)
(3 -8.6341e-16 0)
(3 -1.08763e-15 0)
(3 -4.19001e-16 0)
(3 -2.00552e-09 0)
(2.27486 0.373004 0)
(0.881528 0.407099 0)
(0.777438 0.351694 0)
(0.750753 0.354057 0)
(0.718271 0.365503 0)
(0.685741 0.376604 0)
(0.65371 0.382826 0)
(0.622316 0.38488 0)
(0.590228 0.385613 0)
(0.55738 0.393123 0)
(0.527258 0.411622 0)
(0.498617 0.43437 0)
(0.466214 0.451489 0)
(0.435289 0.470514 0)
(0.406422 0.498299 0)
(0.375244 0.528112 0)
(0.339104 0.55351 0)
(0.300844 0.580575 0)
(0.253102 0.609619 0)
(0.19459 0.648237 0)
(0.124214 0.687435 0)
(0.0387956 0.713137 0)
(3 6.1797e-17 0)
(3 -5.7845e-17 0)
(3 -4.05332e-16 0)
(3 -1.78966e-16 0)
(3 2.36075e-16 0)
(3 1.32788e-16 0)
(3 -2.6229e-16 0)
(3 -2.57664e-16 0)
(3 4.2218e-16 0)
(3 4.17128e-16 0)
(3 8.28115e-17 0)
(3 -9.52348e-18 0)
(3 -1.80101e-16 0)
(3 -2.19766e-16 0)
(3 -2.94609e-16 0)
(3 5.25627e-16 0)
(3 4.38122e-16 0)
(3 -2.06663e-16 0)
(3 -4.19038e-16 0)
(3 -2.4853e-16 0)
(3 -8.66445e-17 0)
(3 -1.20346e-17 0)
(3 -3.69156e-16 0)
(3 -1.20356e-15 0)
(3 -1.3486e-15 0)
(3 -7.16411e-11 0)
(2.83309 0.212615 0)
(1.02911 0.423655 0)
(0.831926 0.369765 0)
(0.812075 0.384635 0)
(0.773423 0.396756 0)
(0.736374 0.405729 0)
(0.701152 0.41131 0)
(0.667623 0.414774 0)
(0.633953 0.417261 0)
(0.599246 0.424406 0)
(0.566958 0.442432 0)
(0.537011 0.466406 0)
(0.504543 0.48597 0)
(0.473018 0.506141 0)
(0.443725 0.534884 0)
(0.414528 0.56837 0)
(0.380073 0.599645 0)
(0.342138 0.635692 0)
(0.299824 0.679219 0)
(0.246751 0.729541 0)
(0.179965 0.784202 0)
(0.0708592 0.833323 0)
(3 -3.93196e-17 0)
(3 -3.26758e-16 0)
(3 -1.30312e-16 0)
(3 4.39825e-17 0)
(3 3.11901e-16 0)
(3 5.83679e-17 0)
(3 -2.01979e-16 0)
(3 -4.75613e-16 0)
(3 5.22838e-18 0)
(3 -2.78671e-16 0)
(3 -3.06363e-16 0)
(3 -3.13555e-16 0)
(3 2.10643e-16 0)
(3 1.14563e-15 0)
(3 1.3742e-15 0)
(3 1.08925e-15 0)
(3 4.8907e-16 0)
(3 5.60398e-16 0)
(3 4.61408e-16 0)
(3 1.10816e-16 0)
(3 2.15141e-16 0)
(3 6.37317e-16 0)
(3 4.59149e-16 0)
(3 2.6236e-17 0)
(3 -6.43941e-16 0)
(3 -5.76112e-13 0)
(3.04893 0.0204132 0)
(1.18584 0.402367 0)
(0.839627 0.398254 0)
(0.821377 0.42801 0)
(0.787654 0.436396 0)
(0.760677 0.438867 0)
(0.735053 0.440371 0)
(0.707902 0.443221 0)
(0.678141 0.4478 0)
(0.645193 0.456005 0)
(0.612519 0.474335 0)
(0.581917 0.500361 0)
(0.550056 0.52313 0)
(0.518526 0.544648 0)
(0.489017 0.573663 0)
(0.462229 0.610301 0)
(0.431792 0.647576 0)
(0.399896 0.689464 0)
(0.365379 0.741072 0)
(0.317123 0.816088 0)
(0.224148 0.930207 0)
(0.122394 1.06246 0)
(3 -2.8096e-17 0)
(3 2.16008e-16 0)
(3 1.48982e-16 0)
(3 7.22291e-18 0)
(3 -1.4788e-16 0)
(3 -3.73557e-16 0)
(3 -2.48189e-16 0)
(3 1.53521e-16 0)
(3 2.48663e-16 0)
(3 3.67657e-16 0)
(3 5.63339e-16 0)
(3 5.80261e-16 0)
(3 6.95807e-16 0)
(3 4.44899e-16 0)
(3 6.94107e-16 0)
(3 7.54464e-16 0)
(3 5.82474e-16 0)
(3 5.09516e-16 0)
(3 1.02575e-16 0)
(3 -3.14477e-16 0)
(3 -6.98279e-16 0)
(3 -6.89098e-16 0)
(3 -4.63224e-16 0)
(3 -3.02787e-16 0)
(3 -5.14232e-16 0)
(3 -3.36183e-14 0)
(3.00238 9.31536e-05 0)
(1.37073 0.408439 0)
(0.816641 0.417389 0)
(0.797359 0.445106 0)
(0.775132 0.454547 0)
(0.755618 0.458466 0)
(0.737617 0.464314 0)
(0.718832 0.470916 0)
(0.697863 0.47907 0)
(0.673697 0.489647 0)
(0.647466 0.508101 0)
(0.623014 0.534607 0)
(0.596859 0.559169 0)
(0.569586 0.581481 0)
(0.542916 0.610071 0)
(0.519982 0.648626 0)
(0.495299 0.690793 0)
(0.469643 0.739228 0)
(0.441709 0.808981 0)
(0.416039 0.929428 0)
(0.406295 1.09014 0)
(0.520024 1.35448 0)
(3 -8.69544e-17 0)
(3 3.21708e-17 0)
(3 -2.13773e-16 0)
(3 -4.28256e-16 0)
(3 -5.94172e-16 0)
(3 -3.98507e-16 0)
(3 -3.611e-16 0)
(3 2.86732e-16 0)
(3 1.28505e-16 0)
(3 6.15179e-16 0)
(3 6.30984e-16 0)
(3 5.32178e-16 0)
(3 -1.3902e-16 0)
(3 -1.05234e-15 0)
(3 -1.04774e-15 0)
(3 -7.28727e-16 0)
(3 -3.12118e-16 0)
(3 -5.12028e-16 0)
(3 -8.51782e-16 0)
(3 -1.18377e-15 0)
(3 -1.38168e-15 0)
(3 -1.3765e-15 0)
(3 -1.2524e-15 0)
(3 -1.14029e-15 0)
(3 -8.60709e-16 0)
(3 -3.34487e-15 0)
(3.00001 -3.89471e-07 0)
(1.71264 0.445387 0)
(0.830742 0.456267 0)
(0.776009 0.455894 0)
(0.77187 0.467128 0)
(0.758362 0.475912 0)
(0.743196 0.483941 0)
(0.726184 0.491457 0)
(0.709263 0.501728 0)
(0.691905 0.515426 0)
(0.672819 0.535141 0)
(0.656035 0.562661 0)
(0.637913 0.590848 0)
(0.617543 0.617158 0)
(0.597029 0.647407 0)
(0.58009 0.687284 0)
(0.564317 0.733949 0)
(0.547992 0.789434 0)
(0.540602 0.871753 0)
(0.548461 0.996584 0)
(0.629537 1.14682 0)
(0.937071 1.34429 0)
(3 -4.57942e-17 0)
(3 -5.43563e-16 0)
(3 -3.6804e-16 0)
(3 -5.74173e-16 0)
(3 -3.81708e-16 0)
(3 2.11374e-16 0)
(3 5.20261e-16 0)
(3 5.88631e-16 0)
(3 5.21315e-16 0)
(3 1.63037e-16 0)
(3 8.17943e-17 0)
(3 -4.04432e-16 0)
(3 -4.90804e-16 0)
(3 -8.02952e-16 0)
(3 -1.0356e-15 0)
(3 -8.18532e-16 0)
(3 -2.64459e-16 0)
(3 -1.03791e-16 0)
(3 6.49977e-17 0)
(3 -2.41576e-16 0)
(3 -3.82817e-16 0)
(3 -5.43968e-16 0)
(3 -4.83002e-16 0)
(3 -6.33888e-16 0)
(3 -3.91165e-16 0)
(3 4.2578e-16 0)
(3 -1.6026e-07 0)
(2.30525 0.440506 0)
(0.922268 0.52634 0)
(0.81423 0.466488 0)
(0.802255 0.474455 0)
(0.784259 0.489957 0)
(0.764559 0.505036 0)
(0.74337 0.514388 0)
(0.724588 0.524232 0)
(0.709241 0.538356 0)
(0.694591 0.557937 0)
(0.683029 0.585189 0)
(0.672475 0.615504 0)
(0.661018 0.645238 0)
(0.649219 0.677523 0)
(0.640181 0.718254 0)
(0.635834 0.768502 0)
(0.633201 0.828557 0)
(0.645757 0.912055 0)
(0.688196 1.0221 0)
(0.829063 1.15504 0)
(1.15633 1.28183 0)
(3 2.39382e-16 0)
(3 3.3974e-16 0)
(3 5.90507e-16 0)
(3 8.71716e-16 0)
(3 9.2372e-16 0)
(3 1.30771e-15 0)
(3 1.39858e-15 0)
(3 8.3466e-16 0)
(3 -6.25526e-17 0)
(3 -4.67548e-16 0)
(3 -7.08211e-16 0)
(3 -5.21323e-16 0)
(3 -2.58693e-16 0)
(3 -2.59733e-16 0)
(3 -5.4105e-16 0)
(3 -5.15193e-16 0)
(3 -2.48065e-16 0)
(3 -2.64153e-17 0)
(3 7.49002e-16 0)
(3 8.47751e-16 0)
(3 1.01673e-15 0)
(3 6.43049e-16 0)
(3 2.03947e-16 0)
(3 -5.42278e-16 0)
(3 -7.81112e-17 0)
(3 1.66174e-16 0)
(3 -2.30553e-08 0)
(2.99658 0.153495 0)
(1.14471 0.530894 0)
(0.885779 0.486022 0)
(0.855623 0.499775 0)
(0.828556 0.51525 0)
(0.801948 0.529652 0)
(0.775066 0.539018 0)
(0.751368 0.546432 0)
(0.733346 0.559394 0)
(0.718477 0.577965 0)
(0.708727 0.604013 0)
(0.702578 0.635122 0)
(0.69793 0.668042 0)
(0.694593 0.703477 0)
(0.694738 0.745545 0)
(0.701823 0.797162 0)
(0.717016 0.858566 0)
(0.745528 0.937148 0)
(0.817678 1.03254 0)
(0.97998 1.13606 0)
(1.25386 1.21074 0)
(3 3.7101e-17 0)
(3 3.88039e-16 0)
(3 1.48046e-15 0)
(3 1.77649e-15 0)
(3 1.66825e-15 0)
(3 1.5119e-15 0)
(3 1.08712e-15 0)
(3 -1.71961e-16 0)
(3 -6.28449e-16 0)
(3 -5.10408e-16 0)
(3 -2.71076e-16 0)
(3 -3.14962e-16 0)
(3 -3.61821e-16 0)
(3 -3.34417e-17 0)
(3 -3.6703e-17 0)
(3 -4.7654e-16 0)
(3 -5.27995e-16 0)
(3 -2.76173e-16 0)
(3 -9.51987e-16 0)
(3 -1.43302e-15 0)
(3 -1.08212e-15 0)
(3 -9.13205e-16 0)
(3 -4.54602e-16 0)
(3 -3.05312e-16 0)
(3 -5.53661e-16 0)
(3 -3.71106e-16 0)
(3 -1.33264e-09 0)
(3.03391 0.00577066 0)
(1.33875 0.498641 0)
(0.898027 0.538551 0)
(0.857774 0.535311 0)
(0.835199 0.547346 0)
(0.816215 0.561202 0)
(0.79525 0.571325 0)
(0.774416 0.575344 0)
(0.757264 0.584251 0)
(0.743634 0.599277 0)
(0.735524 0.621876 0)
(0.732207 0.651029 0)
(0.732328 0.684188 0)
(0.735382 0.720677 0)
(0.743929 0.762792 0)
(0.76026 0.813561 0)
(0.790486 0.873649 0)
(0.834807 0.946514 0)
(0.925631 1.02848 0)
(1.08382 1.10376 0)
(1.31227 1.15015 0)
(3 4.61004e-17 0)
(3 9.76535e-17 0)
(3 2.64516e-16 0)
(3 3.73938e-16 0)
(3 5.14885e-16 0)
(3 4.39852e-16 0)
(3 4.71486e-16 0)
(3 4.84415e-17 0)
(3 8.78452e-17 0)
(3 3.79723e-16 0)
(3 3.50117e-16 0)
(3 -2.84843e-16 0)
(3 -2.42794e-16 0)
(3 1.82288e-16 0)
(3 2.17179e-16 0)
(3 2.17815e-16 0)
(3 3.29026e-16 0)
(3 -5.14071e-17 0)
(3 -4.82739e-16 0)
(3 -3.10364e-16 0)
(3 -4.71632e-16 0)
(3 -3.08443e-16 0)
(3 1.42013e-17 0)
(3 4.7874e-16 0)
(3 4.51548e-17 0)
(3 -1.55556e-16 0)
(3 -1.77394e-11 0)
(3.00055 -3.00373e-06 0)
(1.73609 0.510351 0)
(0.904715 0.570988 0)
(0.858561 0.55564 0)
(0.847684 0.567939 0)
(0.834657 0.58182 0)
(0.820493 0.593179 0)
(0.803622 0.597507 0)
(0.787805 0.604612 0)
(0.775097 0.617956 0)
(0.76695 0.638588 0)
(0.76444 0.666001 0)
(0.766903 0.698268 0)
(0.773643 0.734393 0)
(0.788062 0.775401 0)
(0.811656 0.823159 0)
(0.851435 0.87837 0)
(0.909213 0.944658 0)
(1.00909 1.01383 0)
(1.15562 1.06843 0)
(1.34266 1.09916 0)
(3 -2.98591e-17 0)
(3 -8.70296e-17 0)
(3 -9.06894e-16 0)
(3 -1.03734e-15 0)
(3 -8.98464e-16 0)
(3 -1.05476e-15 0)
(3 -9.03727e-16 0)
(3 -3.00059e-17 0)
(3 4.60518e-16 0)
(3 6.21863e-16 0)
(3 1.022e-15 0)
(3 9.50983e-16 0)
(3 8.83034e-16 0)
(3 8.7028e-16 0)
(3 7.52382e-16 0)
(3 8.67452e-16 0)
(3 6.18289e-16 0)
(3 -1.09737e-16 0)
(3 3.40419e-17 0)
(3 4.19555e-16 0)
(3 3.20279e-16 0)
(3 2.84655e-16 0)
(3 1.66893e-16 0)
(3 4.11144e-16 0)
(3 4.53965e-16 0)
(3 8.1175e-16 0)
(3 -2.91793e-14 0)
(3 -1.82381e-06 0)
(2.48188 0.42413 0)
(1.00966 0.617802 0)
(0.900718 0.561756 0)
(0.885931 0.57581 0)
(0.868214 0.593476 0)
(0.854 0.609587 0)
(0.838327 0.617927 0)
(0.823772 0.62427 0)
(0.812173 0.636033 0)
(0.803675 0.654971 0)
(0.800744 0.680713 0)
(0.80367 0.711284 0)
(0.811982 0.745132 0)
(0.829122 0.782876 0)
(0.856767 0.826035 0)
(0.901478 0.874582 0)
(0.96689 0.932181 0)
(1.06787 0.990048 0)
(1.20308 1.0329 0)
(1.35878 1.05542 0)
(3 -5.4369e-17 0)
(3 -1.31447e-16 0)
(3 -6.17156e-16 0)
(3 -6.00289e-16 0)
(3 -8.39388e-16 0)
(3 -5.58317e-16 0)
(3 -2.48543e-16 0)
(3 3.38592e-16 0)
(3 6.16206e-16 0)
(3 7.64598e-16 0)
(3 1.0462e-15 0)
(3 1.2389e-15 0)
(3 9.8198e-16 0)
(3 1.4709e-15 0)
(3 1.49159e-15 0)
(3 8.68134e-16 0)
(3 -1.84434e-16 0)
(3 -5.52483e-16 0)
(3 -6.48908e-16 0)
(3 -2.06977e-16 0)
(3 8.44133e-17 0)
(3 3.48072e-17 0)
(3 2.3536e-16 0)
(3 4.43072e-17 0)
(3 6.29787e-16 0)
(3 1.18149e-15 0)
(3 -2.48034e-16 0)
(3 -6.25286e-07 0)
(3.08332 0.0684284 0)
(1.2835 0.598541 0)
(0.959576 0.587672 0)
(0.934762 0.608162 0)
(0.910351 0.616704 0)
(0.891533 0.627286 0)
(0.875583 0.635387 0)
(0.860771 0.642523 0)
(0.849154 0.654816 0)
(0.840946 0.673482 0)
(0.838564 0.697721 0)
(0.842205 0.7261 0)
(0.851594 0.757193 0)
(0.869781 0.791282 0)
(0.899366 0.828691 0)
(0.945858 0.869327 0)
(1.01256 0.915495 0)
(1.10891 0.963068 0)
(1.22949 0.997271 0)
(1.36332 1.01384 0)
(3 -2.77106e-18 0)
(3 1.29165e-16 0)
(3 1.84506e-16 0)
(3 5.34461e-16 0)
(3 7.32083e-16 0)
(3 5.53227e-16 0)
(3 3.25759e-16 0)
(3 -8.80216e-17 0)
(3 -7.67613e-17 0)
(3 2.39586e-16 0)
(3 3.8398e-16 0)
(3 3.30197e-16 0)
(3 2.13974e-16 0)
(3 3.2045e-16 0)
(3 9.04653e-16 0)
(3 1.19715e-15 0)
(3 4.05524e-16 0)
(3 1.65108e-16 0)
(3 -9.90021e-17 0)
(3 -4.95233e-16 0)
(3 9.4651e-16 0)
(3 1.58353e-15 0)
(3 1.42192e-15 0)
(3 1.04354e-15 0)
(3 9.65792e-16 0)
(3 3.77244e-16 0)
(3 2.83646e-16 0)
(3 -7.00694e-08 0)
(3.01172 0.000460872 0)
(1.5645 0.576008 0)
(0.954405 0.644633 0)
(0.93281 0.641242 0)
(0.919517 0.645169 0)
(0.90775 0.650689 0)
(0.897258 0.658316 0)
(0.887296 0.665107 0)
(0.879882 0.674954 0)
(0.876092 0.690874 0)
(0.876827 0.713086 0)
(0.882558 0.739911 0)
(0.893026 0.768357 0)
(0.911171 0.798623 0)
(0.941534 0.830734 0)
(0.988047 0.864644 0)
(1.05253 0.900887 0)
(1.1416 0.939277 0)
(1.24862 0.966685 0)
(1.36796 0.979461 0)
(3 -9.36149e-17 0)
(3 -6.61147e-17 0)
(3 6.90868e-17 0)
(3 2.53197e-17 0)
(3 1.63984e-16 0)
(3 -2.62984e-16 0)
(3 -6.60722e-16 0)
(3 -9.1041e-16 0)
(3 -9.40664e-16 0)
(3 -7.94824e-16 0)
(3 -6.56573e-16 0)
(3 -3.26361e-16 0)
(3 -3.14951e-16 0)
(3 -6.77672e-16 0)
(3 -6.03307e-16 0)
(3 -4.08803e-16 0)
(3 8.98514e-17 0)
(3 3.61851e-16 0)
(3 2.72786e-16 0)
(3 -2.45949e-16 0)
(3 1.15977e-15 0)
(3 1.45443e-15 0)
(3 1.15037e-15 0)
(3 6.5377e-16 0)
(3 1.55662e-16 0)
(3 2.98423e-16 0)
(3 1.03324e-15 0)
(3 -2.38071e-09 0)
(3.00007 -2.94091e-06 0)
(2.30757 0.506685 0)
(1.03919 0.684714 0)
(0.952415 0.645389 0)
(0.94341 0.656704 0)
(0.930554 0.665612 0)
(0.922073 0.673439 0)
(0.915609 0.68017 0)
(0.911546 0.689501 0)
(0.911178 0.705291 0)
(0.914892 0.726947 0)
(0.923356 0.75287 0)
(0.934565 0.779684 0)
(0.953664 0.806667 0)
(0.984705 0.832825 0)
(1.02908 0.860046 0)
(1.08833 0.88798 0)
(1.16826 0.917179 0)
(1.26085 0.937829 0)
(1.36675 0.946992 0)
(3 3.93563e-17 0)
(3 1.19593e-16 0)
(3 1.34878e-16 0)
(3 -2.11168e-16 0)
(3 -7.85702e-16 0)
(3 -6.69869e-16 0)
(3 -7.87712e-16 0)
(3 -6.67269e-16 0)
(3 -4.44819e-16 0)
(3 -4.90099e-16 0)
(3 -1.09103e-15 0)
(3 -1.63982e-15 0)
(3 -1.11678e-15 0)
(3 -1.2019e-15 0)
(3 -1.06896e-15 0)
(3 -5.12679e-16 0)
(3 6.40636e-16 0)
(3 1.41219e-15 0)
(3 7.06458e-16 0)
(3 6.78478e-16 0)
(3 6.82504e-16 0)
(3 5.98869e-16 0)
(3 3.92936e-17 0)
(3 -8.90588e-17 0)
(3 -3.96063e-16 0)
(3 -4.74988e-16 0)
(3 4.92695e-16 0)
(3 -5.64948e-12 0)
(3.00001 -2.32197e-06 0)
(3.0723 0.101839 0)
(1.31641 0.669407 0)
(1.01094 0.663852 0)
(0.988022 0.672731 0)
(0.968671 0.680549 0)
(0.956397 0.68705 0)
(0.948924 0.692705 0)
(0.944871 0.701792 0)
(0.945763 0.717622 0)
(0.95075 0.739371 0)
(0.962015 0.766273 0)
(0.974423 0.790727 0)
(0.995683 0.814738 0)
(1.02786 0.836897 0)
(1.07025 0.859103 0)
(1.12476 0.881002 0)
(1.19687 0.902839 0)
(1.27775 0.917203 0)
(1.37202 0.924682 0)
(3 2.50788e-16 0)
(3 -1.77011e-16 0)
(3 -1.55762e-16 0)
(3 -2.88026e-16 0)
(3 -4.7713e-16 0)
(3 -2.57372e-16 0)
(3 1.60947e-16 0)
(3 6.12519e-16 0)
(3 5.17681e-16 0)
(3 2.25822e-16 0)
(3 -2.50955e-16 0)
(3 -4.87339e-16 0)
(3 -6.63143e-16 0)
(3 -5.46638e-16 0)
(3 -5.93137e-16 0)
(3 -2.4731e-16 0)
(3 5.89704e-16 0)
(3 1.36722e-15 0)
(3 1.68558e-15 0)
(3 2.06687e-15 0)
(3 1.2808e-15 0)
(3 7.56171e-16 0)
(3 7.20468e-16 0)
(3 4.43644e-16 0)
(3 3.55938e-16 0)
(3 -2.3366e-16 0)
(3 3.64514e-17 0)
(3 -5.42763e-15 0)
(3 -4.00207e-07 0)
(3.01736 0.000979837 0)
(1.64558 0.639581 0)
(1.01445 0.718097 0)
(0.99392 0.705771 0)
(0.988824 0.712004 0)
(0.985704 0.71538 0)
(0.981753 0.716505 0)
(0.978581 0.720417 0)
(0.980141 0.732984 0)
(0.985971 0.751767 0)
(0.998902 0.776324 0)
(1.01356 0.798869 0)
(1.03601 0.817728 0)
(1.06847 0.837281 0)
(1.10887 0.855058 0)
(1.1592 0.871586 0)
(1.22317 0.886925 0)
(1.29394 0.897115 0)
(1.37738 0.903401 0)
(3 5.91495e-17 0)
(3 -1.39271e-17 0)
(3 -9.76487e-17 0)
(3 1.38302e-16 0)
(3 2.5862e-16 0)
(3 3.41803e-16 0)
(3 4.46183e-16 0)
(3 1.42498e-16 0)
(3 -2.12426e-16 0)
(3 -3.67733e-16 0)
(3 -6.77712e-17 0)
(3 1.21414e-16 0)
(3 2.40646e-17 0)
(3 6.45685e-17 0)
(3 1.77262e-16 0)
(3 1.02842e-16 0)
(3 2.25436e-16 0)
(3 -2.02038e-16 0)
(3 1.3132e-15 0)
(3 1.60981e-15 0)
(3 1.26257e-15 0)
(3 6.38551e-16 0)
(3 5.917e-16 0)
(3 9.07621e-16 0)
(3 1.56642e-15 0)
(3 1.36845e-15 0)
(3 2.27653e-16 0)
(3 3.63994e-17 0)
(3 -2.59791e-08 0)
(3.00014 -1.32894e-06 0)
(2.48682 0.466102 0)
(1.12681 0.735108 0)
(1.02474 0.711478 0)
(1.02257 0.714348 0)
(1.02332 0.723148 0)
(1.02105 0.728995 0)
(1.01817 0.733043 0)
(1.01807 0.744504 0)
(1.02203 0.762541 0)
(1.03375 0.787849 0)
(1.04952 0.807825 0)
(1.07313 0.825051 0)
(1.10547 0.841445 0)
(1.14456 0.855672 0)
(1.19224 0.868744 0)
(1.24947 0.880063 0)
(1.31303 0.887316 0)
(1.38671 0.891868 0)
(3 -6.72706e-17 0)
(3 1.24168e-16 0)
(3 1.0841e-16 0)
(3 1.10637e-16 0)
(3 2.17779e-16 0)
(3 3.26988e-16 0)
(3 2.69287e-16 0)
(3 2.71159e-16 0)
(3 1.33159e-16 0)
(3 -2.70818e-16 0)
(3 -1.90302e-16 0)
(3 -5.88421e-16 0)
(3 -2.80075e-16 0)
(3 3.55284e-16 0)
(3 7.59138e-16 0)
(3 8.74815e-16 0)
(3 -4.33152e-16 0)
(3 -7.64547e-16 0)
(3 -1.02592e-16 0)
(3 1.32341e-15 0)
(3 1.96283e-15 0)
(3 1.63498e-15 0)
(3 7.17239e-16 0)
(3 9.68154e-16 0)
(3 2.05825e-15 0)
(3 2.08805e-15 0)
(3 7.10991e-16 0)
(3 -4.00327e-16 0)
(3 -9.35138e-11 0)
(3.00001 -4.39764e-06 0)
(3.07334 0.060067 0)
(1.41897 0.70014 0)
(1.07413 0.738685 0)
(1.06367 0.737237 0)
(1.05055 0.745466 0)
(1.04437 0.749988 0)
(1.04371 0.753342 0)
(1.04616 0.761795 0)
(1.05264 0.776567 0)
(1.0649 0.796867 0)
(1.08249 0.812538 0)
(1.10684 0.826998 0)
(1.13815 0.839779 0)
(1.17533 0.850929 0)
(1.21993 0.861283 0)
(1.27175 0.869958 0)
(1.32995 0.875401 0)
(1.39541 0.878868 0)
(3 4.29692e-17 0)
(3 -8.93262e-17 0)
(3 -1.27047e-16 0)
(3 -2.58603e-16 0)
(3 -3.20011e-16 0)
(3 -5.40221e-16 0)
(3 -3.57631e-17 0)
(3 6.38366e-16 0)
(3 9.42024e-16 0)
(3 6.54074e-16 0)
(3 -7.21276e-17 0)
(3 -6.22947e-16 0)
(3 -1.09465e-15 0)
(3 -6.6819e-16 0)
(3 -3.47064e-17 0)
(3 -3.18387e-16 0)
(3 -1.02105e-15 0)
(3 -1.36678e-15 0)
(3 -5.77948e-16 0)
(3 5.08965e-16 0)
(3 6.75419e-16 0)
(3 5.34125e-16 0)
(3 4.74705e-16 0)
(3 4.03682e-16 0)
(3 6.92476e-16 0)
(3 1.11279e-15 0)
(3 1.05886e-15 0)
(3 6.09401e-16 0)
(3 -1.02326e-13 0)
(3 -8.32699e-07 0)
(3.00766 0.000544959 0)