/*--------------------------------*- C++ -*----------------------------------*\
  =========                 |
  \\      /  F ield         | OpenFOAM: The Open Source CFD Toolbox
   \\    /   O peration     | Website:  https://openfoam.org
    \\  /    A nd           | Version:  7
     \\/     M anipulation  |
\*---------------------------------------------------------------------------*/
FoamFile
{
    version     2.0;
    format      ascii;
    class       volScalarField;
    location    "3.6";
    object      T;
}
// * * * * * * * * * * * * * * * * * * * * * * * * * * * * * * * * * * * * * //

dimensions      [0 0 0 1 0 0 0];

internalField   nonuniform List<scalar> 
4032
(
1
1
1
1
1
1
1
1
1
1
1
1.11478
2.37608
2.72091
2.73101
2.7451
2.75725
2.76885
2.78016
2.79115
2.80134
2.80946
2.81519
2.81884
1
1
1
1
1
1
1
1
1
1
1
1.09718
2.36036
2.71942
2.73007
2.74355
2.75556
2.76699
2.77813
2.78886
2.79865
2.8062
2.81125
2.81442
1
1
1
1
1
1
1
1
1
1
1
1.03452
2.31435
2.71384
2.72556
2.73929
2.75139
2.76264
2.77349
2.78392
2.79356
2.80121
2.80643
2.81004
1
1
1
1
1
1
1
1
1
1
1
1.00118
2.24986
2.70435
2.71925
2.73333
2.74563
2.7566
2.76707
2.77708
2.78629
2.7933
2.79759
2.80018
1
1
1
1
1
1
1
1
1
1
1
1
2.16163
2.69101
2.71213
2.72567
2.7379
2.74826
2.75777
2.7664
2.77402
2.77983
2.78324
2.78695
1
1
1
1
1
1
1
1
1
1
1
1
2.03853
2.66821
2.70225
2.71534
2.72727
2.7369
2.74546
2.75328
2.76021
2.76456
2.76422
2.75963
1
1
1
1
1
1
1
1
1
1
1
1
1.87179
2.62423
2.68476
2.70082
2.71395
2.72329
2.7303
2.73568
2.73822
2.73551
2.72874
2.72255
1
1
1
1
1
1
1
1
1
1
1
1
1.6393
2.54141
2.65527
2.67974
2.69565
2.70589
2.71195
2.71441
2.71247
2.70816
2.7039
2.71545
1
1
1
1
1
1
1
1
1
1
1
1
1.31244
2.41127
2.62861
2.65213
2.67069
2.68284
2.68789
2.68766
2.68073
2.66363
2.61313
2.5143
1
1
1
1
1
1
1
1
1
1
1
1
1.0289
2.28254
2.6281
2.62578
2.6366
2.64936
2.65528
2.65329
2.64203
2.61107
2.55554
2.39479
1
1
1
1
1
1
1
1
1
1
1
1
1.00016
2.08311
2.59347
2.60557
2.61368
2.61786
2.61949
2.6148
2.60044
2.56371
2.50117
2.31917
1
1
1
1
1
1
1
1
1
1
1
1
0.999999
1.7363
2.50723
2.58769
2.59463
2.5946
2.59066
2.58006
2.55987
2.5218
2.45025
2.29196
1
1
1
1
1
1
1
1
1
1
1
1
1
1.26384
2.35257
2.57312
2.57006
2.56806
2.56123
2.54608
2.52046
2.48209
2.40714
2.28501
1
1
1
1
1
1
1
1
1
1
1
1
1
1.01874
2.17499
2.52334
2.5367
2.53695
2.53103
2.51525
2.48867
2.44547
2.37535
2.28292
1
1
1
1
1
1
1
1
1
1
1
1
1
1.00003
1.77148
2.4316
2.51631
2.51334
2.50562
2.48784
2.46042
2.41521
2.35333
2.2781
1
1
1
1
1
1
1
1
1
1
1
1
1
0.999998
1.17632
2.26986
2.50066
2.48534
2.4744
2.45632
2.43072
2.39026
2.33787
2.27478
1
1
1
1
1
1
1
1
1
1
1
1
1
0.999999
1.00741
2.05681
2.44368
2.43952
2.43491
2.4228
2.40226
2.36906
2.32432
2.27064
1
1
1
1
1
1
1
1
1
1
1
1
1
1
0.999986
1.53125
2.31627
2.41866
2.40811
2.39478
2.37584
2.34748
2.30986
2.26501
1
1
1
1
1
1
1
1
1
1
1
1
1
1
0.999995
1.07189
2.09987
2.39036
2.37932
2.36727
2.34927
2.32408
2.29244
2.2552
1
1
1
1
1
1
1
1
1
1
1
1
1
1
0.999999
1.00099
1.60907
2.25827
2.35641
2.34111
2.32342
2.30077
2.27422
2.24254
1
1
1
1
1
1
1
1
1
1
1
1
1
1
1
1
1.10536
2.04605
2.32769
2.31476
2.30221
2.2819
2.25736
2.22812
1
1
1
1
1
1
1
1
1
1
1
1
1
1
1
1
1.0023
1.52556
2.17336
2.29131
2.27463
2.25677
2.23548
2.20992
1
1
1
1
1
1
1
1
1
1
1
1
1
1
1
1
1.00001
1.07913
1.94978
2.26468
2.24711
2.23168
2.21347
2.192
1
1
1
1
1
1
1
1
1
1
1
1
1
1
1
1
1
1.00139
1.40336
2.08843
2.22369
2.20477
2.18923
2.17149
1
1
1
1
1
1
1
1
1
1
1
1
1
1
1
1
1
1
1.04167
1.77067
2.18278
2.18127
2.16837
2.15298
1
1
1
1
1
1
1
1
1
1
1
1
1
1
1
1
1
1
1.00051
1.23044
1.97684
2.16315
2.14612
2.1299
1
1
1
1
1
1
1
1
1
1
1
1
1
1
1
1
1
1
1
1.01232
1.51764
2.03948
2.13166
2.11256
1
1
1
1
1
1
1
1
1
1
1
1
1
1
1
1
1
1
1
1.0001
1.08096
1.75789
2.08439
2.09959
1
1
1
1
1
1
1
1
1
1
1
1
1
1
1
1
1
1
1
1
1.00178
1.24681
1.88128
2.07545
1
1
1
1
1
1
1
1
1
1
1
1
1
1
1
1
1
1
1
1
1.00001
1.015
1.43362
1.93888
1
1
1
1
1
1
1
1
1
1
1
1
1
1
1
1
1
1
1
1
1
1.00016
1.05724
1.60111
1
1
1
1
1
1
1
1
1
1
1
1
1
1
1
1
1
1
1
1
1
1
1.00116
1.14146
1
1
1
1
1
1
1
1
1
1
1
1
1
1
1
1
1
1
1
1
1
1
1.00001
1.00537
1
1
1
1
1
1
1
1
1
1
1
1
1
1
1
1
1
1
1
1
1
1
1
1.00004
1
1
1
1
1
1
1
1
1
1
1
1
1
1
1
1
1
1
1
1
1
1
1
1
1
1
1
1
1
1
1
1
1
1
1
1
1
1
1
1
1
1
1
1
1
1
1
1
1
1
1
1
1
1
1
1
1
1
1
1
1
1
1
1
1
1
1
1
1
1
1
1
1
1
1
1
1
1
1
1
1
1
1
1
1
1
1
1
1
1
1
1
1
1
1
1
1
1
1
1
1
1
1
1
1
1
1
1
1
1
1
1
1
1
1
1
1
1
1
1
1
1
1
1
1
1
1
1
1
1
1
1
1
1
1
1
1
1
1
1
1
1
1
1
1.6966
1.13604
1.03292
1.0758
1.13606
1.27278
1.4229
1.49074
1.51303
1.51991
1.54274
1.61211
1.70816
1.76327
1.76498
1.74959
1.73632
1.7238
1.71591
1.70159
1.70165
1.70544
1.70809
1.71326
1.7131
1.71031
1.70372
1.69958
1.69806
2.4329
2.83785
2.83635
2.83378
2.8283
2.81501
2.79615
2.77401
2.75417
2.73778
2.72398
2.71117
2.69539
2.67412
2.64937
2.62539
2.60487
2.58883
2.57679
2.56439
2.54627
2.52376
2.50193
2.4831
2.46917
2.4595
2.44624
2.42819
2.40907
2.39037
2.37437
2.36184
2.35434
2.34656
2.33289
2.31641
2.29636
2.27471
2.2581
2.24557
2.23624
2.2316
2.22702
2.21737
2.20561
2.18875
2.17011
2.15599
2.14489
2.13531
2.12899
2.1221
2.11233
2.10003
2.08201
2.06369
2.05233
2.04512
2.03928
2.03504
2.02879
2.01947
2.0051
1.98579
1.97009
1.9617
1.95014
1.94604
1.62139
1.46876
1.36716
1.29899
1.30327
1.31252
1.30503
1.28996
1.30928
1.35058
1.4093
1.47462
1.52981
1.57489
1.59954
1.61708
1.62755
1.63534
1.63982
1.65119
1.65889
1.66255
1.66729
1.67044
1.66955
1.66652
1.66404
1.66355
2.33526
2.81067
2.80755
2.79916
2.78579
2.76983
2.75513
2.73815
2.71803
2.69624
2.67484
2.65751
2.64627
2.63758
2.62384
2.60275
2.58009
2.55836
2.53928
2.52588
2.51661
2.50323
2.48419
2.46491
2.44768
2.43184
2.41933
2.40844
2.3954
2.37986
2.36334
2.34816
2.3346
2.3223
2.31253
2.30147
2.28826
2.27337
2.25602
2.23941
2.22671
2.2165
2.20795
2.20136
2.19276
2.18228
2.16994
2.15489
2.14029
2.12872
2.11892
2.10969
2.10188
2.09247
2.08017
2.06634
2.05267
2.04158
2.03356
2.02656
2.0194
2.01137
2.00074
1.98694
1.97189
1.96065
1.9469
2.0445
1.82905
1.66929
1.57446
1.4781
1.36786
1.31966
1.29538
1.27211
1.25546
1.27126
1.30502
1.32681
1.34615
1.38381
1.42904
1.46403
1.49523
1.52473
1.55317
1.57723
1.5883
1.59221
1.59712
1.60324
1.60312
1.60156
1.5979
1.60632
2.09756
2.70917
2.72036
2.68176
2.65699
2.64301
2.63621
2.63283
2.62899
2.61335
2.59053
2.56677
2.54868
2.53955
2.53706
2.53178
2.5176
2.49985
2.4781
2.45879
2.44493
2.43677
2.42892
2.41744
2.40264
2.38443
2.36638
2.35319
2.34323
2.33595
2.32734
2.31543
2.29957
2.28017
2.2645
2.25473
2.2485
2.24389
2.23508
2.22341
2.20787
2.18775
2.17095
2.16059
2.1537
2.15061
2.14621
2.13856
2.12867
2.11395
2.0966
2.08381
2.07408
2.0663
2.06087
2.05402
2.04566
2.0335
2.01872
2.00657
1.99759
1.98905
1.98158
1.97446
1.9657
1.95572
1.9377
2.10812
1.94667
1.79373
1.70137
1.6269
1.53514
1.42321
1.38165
1.37484
1.34946
1.31544
1.29188
1.27708
1.27547
1.28268
1.30545
1.34172
1.38318
1.4185
1.45373
1.48107
1.49914
1.50941
1.51986
1.53422
1.54824
1.54768
1.55395
1.59313
1.83823
2.46134
2.61549
2.56324
2.51941
2.49776
2.49106
2.49205
2.49694
2.49016
2.47692
2.45841
2.43984
2.42841
2.42221
2.42
2.41387
2.40489
2.39317
2.37553
2.35819
2.34716
2.33958
2.33391
2.32547
2.31556
2.30236
2.2851
2.27273
2.26488
2.25841
2.25041
2.24133
2.23063
2.21624
2.20272
2.19534
2.19005
2.18514
2.17722
2.16568
2.15034
2.13226
2.11682
2.10789
2.10281
2.09988
2.09666
2.09193
2.08338
2.06816
2.04914
2.0363
2.03025
2.02593
2.02274
2.01733
2.0097
1.99718
1.97906
1.96451
1.95734
1.95253
1.94853
1.94416
1.93756
1.92209
2.15003
2.02609
1.90123
1.78968
1.71266
1.65189
1.57709
1.48195
1.43966
1.4254
1.40177
1.35824
1.32214
1.29552
1.28282
1.28626
1.29354
1.30891
1.333
1.3667
1.39657
1.42491
1.45043
1.46392
1.47674
1.494
1.50673
1.55656
1.72157
1.85723
2.1636
2.42114
2.47009
2.44261
2.41624
2.39467
2.38985
2.39558
2.3974
2.39233
2.38176
2.36418
2.34879
2.33949
2.3337
2.33138
2.32697
2.32055
2.3104
2.29393
2.27799
2.26869
2.26173
2.25594
2.24928
2.24142
2.22935
2.21311
2.20029
2.19178
2.18426
2.17752
2.17151
2.16493
2.1559
2.14404
2.13414
2.12656
2.11816
2.10834
2.0975
2.08655
2.07549
2.06423
2.05534
2.04946
2.04465
2.03953
2.03315
2.02483
2.01421
2.0016
1.99177
1.98632
1.98137
1.97574
1.96861
1.95838
1.94473
1.93168
1.92327
1.91853
1.91478
1.91067
1.90579
1.89228
2.18134
2.07812
1.97881
1.88416
1.78696
1.71859
1.67181
1.61015
1.52579
1.48589
1.47334
1.44577
1.40173
1.36947
1.34732
1.3233
1.30814
1.30935
1.31248
1.31471
1.32003
1.33764
1.36601
1.39512
1.41977
1.4512
1.50058
1.6689
1.87943
1.93424
1.98863
2.17387
2.33151
2.38778
2.38318
2.35968
2.34457
2.34056
2.34207
2.34293
2.33641
2.3222
2.30243
2.2886
2.28145
2.27871
2.27824
2.27379
2.2663
2.25451
2.23706
2.223
2.21539
2.20992
2.20399
2.1969
2.18746
2.17219
2.15529
2.14591
2.13964
2.1352
2.13137
2.12595
2.11815
2.10446
2.08844
2.07797
2.0704
2.06335
2.05653
2.04946
2.04141
2.03069
2.0168
2.0047
1.99676
1.99074
1.98606
1.98245
1.97844
1.97123
1.95931
1.94803
1.94049
1.93329
1.92495
1.91608
1.90825
1.90147
1.89398
1.88572
1.87924
1.87394
1.86822
1.85435
2.19774
2.11069
2.02478
1.94849
1.86707
1.7834
1.72853
1.68381
1.62634
1.56549
1.52464
1.50228
1.4711
1.42743
1.39642
1.37667
1.35854
1.33605
1.32324
1.31336
1.3142
1.31457
1.31855
1.32904
1.34747
1.39981
1.58981
1.80267
1.91125
1.93855
1.93516
1.97056
2.11576
2.27635
2.34793
2.34128
2.32777
2.31737
2.31329
2.31389
2.30829
2.29874
2.2836
2.26756
2.25752
2.25235
2.25109
2.24712
2.24001
2.23121
2.21834
2.20226
2.19081
2.18378
2.17714
2.16963
2.16095
2.14948
2.13474
2.12303
2.11674
2.11246
2.1068
2.09908
2.08983
2.07693
2.06014
2.04651
2.03955
2.0341
2.02959
2.02503
2.01798
2.0079
1.99086
1.97129
1.9608
1.95588
1.95286
1.95109
1.9492
1.94542
1.93568
1.91875
1.9049
1.89635
1.88907
1.88316
1.87884
1.87485
1.86973
1.86108
1.84948
1.83935
1.8316
1.81918
2.20615
2.13211
2.05962
1.98851
1.91797
1.84984
1.78904
1.73064
1.68677
1.64496
1.58996
1.54841
1.5262
1.49872
1.45139
1.426
1.41532
1.39451
1.36746
1.35026
1.34043
1.32715
1.31991
1.32464
1.36346
1.51726
1.73169
1.82065
1.84685
1.85607
1.86005
1.86782
1.91179
2.04746
2.22744
2.3077
2.31674
2.30605
2.29496
2.28886
2.28583
2.28115
2.27353
2.26424
2.25238
2.24067
2.23178
2.22536
2.22177
2.21584
2.20774
2.1965
2.18123
2.16799
2.15976
2.15263
2.14542
2.13777
2.12854
2.11544
2.10081
2.09049
2.08269
2.07573
2.06781
2.05865
2.04733
2.0337
2.02367
2.0183
2.01409
2.00822
2.00019
1.9891
1.97327
1.95505
1.94228
1.93715
1.93536
1.93394
1.93075
1.92603
1.91644
1.90025
1.88264
1.87172
1.86608
1.86198
1.85925
1.85579
1.85181
1.84434
1.82985
1.81207
1.80277
1.79349
2.21034
2.14597
2.0846
2.02041
1.95259
1.89664
1.8422
1.78502
1.73214
1.69574
1.65227
1.59947
1.56687
1.54854
1.51733
1.47328
1.45347
1.44205
1.41851
1.39039
1.36702
1.34872
1.33634
1.36219
1.49699
1.6911
1.78997
1.79016
1.77967
1.76933
1.77057
1.78027
1.79514
1.834
1.96073
2.14722
2.26796
2.29386
2.28684
2.27567
2.26765
2.26294
2.26441
2.26206
2.25338
2.23887
2.22174
2.21155
2.20463
2.20097
2.19763
2.18986
2.17804
2.16093
2.14826
2.14079
2.13463
2.12852
2.12043
2.10867
2.09086
2.07471
2.06592
2.05885
2.05224
2.04538
2.03821
2.02979
2.01766
2.00381
1.99261
1.98478
1.97693
1.96793
1.95862
1.94964
1.93951
1.92801
1.91815
1.91134
1.90692
1.90213
1.89593
1.88722
1.87614
1.86364
1.85424
1.84895
1.84484
1.84093
1.83505
1.82625
1.81302
1.79649
1.78762
1.77888
2.21222
2.15711
2.10218
2.04224
1.98398
1.9321
1.87898
1.82479
1.77932
1.73626
1.69445
1.65008
1.61376
1.58763
1.56214
1.52836
1.49395
1.47822
1.46315
1.4384
1.41173
1.39644
1.41964
1.53792
1.70643
1.80303
1.7982
1.78558
1.76886
1.75942
1.75852
1.75225
1.7438
1.74085
1.75426
1.83987
2.02342
2.19537
2.26478
2.26038
2.25539
2.24829
2.25275
2.25559
2.24809
2.23541
2.2149
2.19855
2.19096
2.18565
2.18376
2.17843
2.16962
2.15493
2.13823
2.12893
2.12185
2.11534
2.10789
2.09877
2.0848
2.06585
2.05304
2.04596
2.04014
2.03649
2.03093
2.02255
2.01057
1.99417
1.9783
1.96706
1.95902
1.95261
1.94772
1.94255
1.93503
1.92353
1.90891
1.89766
1.89
1.88424
1.87989
1.8758
1.86993
1.86077
1.84856
1.83722
1.8282
1.81977
1.81163
1.80342
1.79486
1.78698
1.78151
1.77161
2.20996
2.16308
2.11348
2.05804
2.00801
1.96001
1.90893
1.85659
1.81631
1.774
1.73144
1.69071
1.66019
1.62608
1.5941
1.57034
1.54328
1.51393
1.49017
1.47083
1.45773
1.4849
1.61977
1.7709
1.84017
1.83131
1.81437
1.79894
1.78878
1.77998
1.76826
1.75116
1.73667
1.72903
1.72178
1.71905
1.74673
1.88084
2.06791
2.19597
2.22013
2.22851
2.23524
2.23859
2.23237
2.22266
2.20533
2.18413
2.17412
2.1681
2.16589
2.16183
2.15421
2.143
2.12565
2.11306
2.10576
2.09917
2.09251
2.08527
2.07597
2.06128
2.04391
2.03388
2.02783
2.02131
2.01407
2.00671
1.99868
1.98593
1.96818
1.95414
1.94665
1.94153
1.93656
1.93105
1.92517
1.91693
1.90408
1.89003
1.88039
1.87378
1.8689
1.86481
1.86082
1.85407
1.84208
1.82728
1.81441
1.80475
1.79641
1.78853
1.78399
1.78101
1.77795
1.7697
2.20427
2.16314
2.11923
2.07089
2.02574
1.98102
1.93176
1.88673
1.84704
1.80664
1.76258
1.72579
1.69718
1.66537
1.6286
1.60268
1.5809
1.55021
1.52286
1.50987
1.54161
1.68174
1.84807
1.89919
1.88729
1.8589
1.8364
1.82531
1.81732
1.80498
1.78972
1.77087
1.74892
1.72686
1.71494
1.70707
1.70184
1.70388
1.75443
1.9113
2.07938
2.16656
2.18929
2.20629
2.20636
2.19823
2.18584
2.16765
2.15504
2.14814
2.14458
2.14016
2.13282
2.12356
2.10842
2.0924
2.08435
2.07855
2.07361
2.06824
2.06183
2.05267
2.0378
2.02133
2.01144
2.00435
1.99717
1.98956
1.98143
1.97255
1.96063
1.94691
1.93708
1.9306
1.92462
1.91815
1.91083
1.90328
1.89503
1.88501
1.87423
1.86556
1.85916
1.85288
1.84544
1.83758
1.82947
1.81758
1.80336
1.79278
1.78652
1.78264
1.77943
1.77552
1.77089
1.75737
2.19459
2.1592
2.11884
2.07672
2.03713
1.9957
1.94979
1.91039
1.87203
1.83325
1.79088
1.7589
1.72688
1.69613
1.6614
1.63294
1.60669
1.58148
1.56926
1.60672
1.73472
1.89701
1.94855
1.93668
1.91176
1.88269
1.85855
1.84713
1.8373
1.82436
1.80982
1.79265
1.76926
1.74415
1.72457
1.71014
1.69647
1.68741
1.67853
1.68811
1.77131
1.92897
2.06079
2.13546
2.15351
2.16328
2.15732
2.14489
2.13384
2.12513
2.12025
2.11416
2.10713
2.0993
2.08747
2.07075
2.05915
2.05379
2.04997
2.04693
2.04261
2.03691
2.0272
2.01052
1.99401
1.98462
1.97769
1.97069
1.96353
1.95641
1.94877
1.93898
1.92755
1.91767
1.90976
1.90249
1.89565
1.88955
1.88352
1.87592
1.86603
1.85604
1.84732
1.83924
1.83114
1.82247
1.81239
1.80194
1.79166
1.7842
1.78046
1.77716
1.77317
1.76799
1.76019
1.74206
2.18128
2.15064
2.11566
2.07986
2.04432
2.00467
1.96434
1.92966
1.89356
1.8536
1.81576
1.78666
1.75409
1.72234
1.69056
1.65875
1.63258
1.6327
1.68563
1.81522
1.93684
1.9839
1.97343
1.95399
1.93606
1.91522
1.8874
1.86672
1.85315
1.84055
1.82657
1.81081
1.7921
1.76813
1.74069
1.71917
1.70315
1.6873
1.67113
1.66346
1.65673
1.67459
1.7684
1.91989
2.03187
2.09285
2.11067
2.11522
2.10856
2.10028
2.09126
2.08277
2.07649
2.07019
2.06227
2.0508
2.03635
2.0269
2.0226
2.01951
2.01672
2.013
2.00738
1.99645
1.9787
1.96402
1.95687
1.95144
1.94604
1.94036
1.93389
1.92534
1.91364
1.90202
1.89384
1.88764
1.88191
1.87593
1.86954
1.86278
1.85443
1.84361
1.83344
1.82538
1.8177
1.809
1.79905
1.7893
1.78347
1.78034
1.77597
1.77044
1.76391
1.75606
1.74671
1.72859
2.1676
2.14052
2.11007
2.07869
2.04606
2.00968
1.97492
1.94247
1.90831
1.86937
1.83802
1.8083
1.77692
1.74236
1.71196
1.68497
1.69576
1.77116
1.92257
2.00698
2.01747
2
1.97841
1.96611
1.95644
1.94053
1.9162
1.88452
1.86395
1.84953
1.83512
1.81964
1.80386
1.78613
1.76242
1.73296
1.71095
1.69461
1.67848
1.66134
1.64768
1.64032
1.6312
1.6557
1.76057
1.90177
2.01191
2.04791
2.07086
2.07285
2.061
2.049
2.04201
2.03601
2.03151
2.02621
2.01725
2.00371
1.99303
1.98848
1.98522
1.98223
1.97877
1.97304
1.96175
1.9461
1.93607
1.93146
1.92727
1.92238
1.91608
1.90686
1.89348
1.8818
1.87607
1.87188
1.86744
1.86214
1.85507
1.84455
1.83008
1.81995
1.81513
1.81049
1.80514
1.79909
1.79237
1.78474
1.77525
1.76394
1.75599
1.74989
1.74409
1.73827
1.73152
1.71784
2.15054
2.12645
2.10055
2.07359
2.04377
2.01045
1.98054
1.95037
1.91737
1.88231
1.85477
1.82427
1.79252
1.76104
1.73451
1.75528
1.85258
1.99794
2.08514
2.07699
2.0441
2.00841
1.98932
1.98078
1.97258
1.95622
1.93385
1.90292
1.87438
1.85764
1.84323
1.82758
1.81147
1.79426
1.77404
1.74866
1.72264
1.70185
1.68477
1.66835
1.6514
1.63347
1.61961
1.60733
1.60119
1.63781
1.75852
1.88468
1.98169
2.01179
2.01998
2.01666
2.00707
2.00132
1.99889
1.99554
1.99155
1.98265
1.96741
1.95651
1.95184
1.94877
1.94612
1.943
1.93752
1.92709
1.91446
1.90746
1.90381
1.90008
1.89527
1.88734
1.87326
1.85878
1.85378
1.85125
1.84832
1.84466
1.83877
1.82682
1.8098
1.79821
1.79391
1.79109
1.78867
1.78636
1.78287
1.7773
1.76588
1.74936
1.73753
1.73074
1.72482
1.71877
1.71352
1.70757
2.13435
2.11267
2.08981
2.06531
2.03826
2.00946
1.98198
1.95372
1.92214
1.89338
1.86605
1.83492
1.80613
1.78763
1.82488
1.94194
2.05582
2.11696
2.11278
2.08608
2.0548
2.02275
2.00442
1.99321
1.98104
1.96317
1.94198
1.91608
1.88693
1.86458
1.84768
1.83092
1.8137
1.79574
1.77656
1.75514
1.73095
1.70796
1.6889
1.67212
1.65625
1.63983
1.62222
1.60363
1.58711
1.5706
1.57314
1.62578
1.74712
1.86377
1.94044
1.96315
1.96471
1.97023
1.96727
1.9641
1.96104
1.95526
1.94435
1.92937
1.91987
1.91578
1.91318
1.91101
1.90829
1.90281
1.89248
1.88132
1.87545
1.87232
1.8692
1.86441
1.85526
1.84031
1.82887
1.82591
1.82491
1.82327
1.81893
1.81028
1.79511
1.77978
1.77454
1.77251
1.77148
1.77073
1.76786
1.7635
1.75446
1.73642
1.71842
1.70992
1.70473
1.69974
1.69803
1.69549
2.11298
2.09443
2.07487
2.05261
2.02781
2.00499
1.98
1.95344
1.92316
1.89862
1.87062
1.84237
1.84455
1.90325
2.04328
2.1218
2.14421
2.14159
2.11891
2.09455
2.07069
2.04193
2.01765
2.00112
1.98508
1.96699
1.94725
1.92535
1.89892
1.87172
1.85079
1.83217
1.8142
1.79626
1.77793
1.75853
1.73644
1.71224
1.69074
1.67283
1.65641
1.64101
1.62503
1.60683
1.58808
1.56829
1.55058
1.53838
1.54691
1.61201
1.72749
1.83882
1.89492
1.91123
1.9239
1.93319
1.93026
1.92391
1.91639
1.90513
1.89219
1.88398
1.88157
1.87973
1.87744
1.87368
1.86686
1.85659
1.84711
1.842
1.83909
1.83617
1.83143
1.82293
1.81095
1.80091
1.79535
1.79204
1.78959
1.78657
1.78048
1.77037
1.75886
1.75304
1.75107
1.7507
1.75064
1.74782
1.74056
1.72359
1.7021
1.69132
1.68703
1.68528
1.68697
1.68484
2.09379
2.07693
2.05953
2.03962
2.01853
1.99789
1.97577
1.94916
1.9229
1.90098
1.87968
1.89753
1.98675
2.12193
2.20006
2.18225
2.15575
2.13657
2.1216
2.1046
2.08315
2.05429
2.02441
2.00465
1.98753
1.96956
1.95018
1.92904
1.90377
1.87457
1.85132
1.83235
1.81415
1.79599
1.77749
1.75806
1.73683
1.71336
1.69037
1.67096
1.65383
1.63759
1.62157
1.60558
1.58894
1.56954
1.55001
1.53026
1.51914
1.51114
1.52608
1.59695
1.70781
1.80522
1.85971
1.87337
1.88534
1.89367
1.88749
1.87903
1.86829
1.85552
1.85009
1.84796
1.84539
1.84168
1.83696
1.83071
1.82202
1.81346
1.80832
1.80552
1.80293
1.79875
1.79153
1.7813
1.77068
1.76468
1.76186
1.75985
1.75768
1.75315
1.74447
1.73523
1.72973
1.72641
1.72297
1.71939
1.71439
1.70514
1.69001
1.67827
1.67352
1.67192
1.67124
1.6681
2.08201
2.06439
2.04681
2.02716
2.00905
1.98839
1.96789
1.94
1.92312
1.91562
1.95768
2.07036
2.17605
2.23112
2.22255
2.1871
2.15393
2.13185
2.11972
2.1075
2.08684
2.05978
2.02935
2.00669
1.98898
1.9711
1.95146
1.92985
1.90492
1.87633
1.8512
1.83146
1.81298
1.79426
1.77494
1.75462
1.7331
1.7106
1.68857
1.66894
1.65156
1.63538
1.61911
1.60244
1.58528
1.56767
1.54986
1.53143
1.51526
1.50013
1.4941
1.48911
1.50933
1.57886
1.68851
1.76393
1.81634
1.84124
1.8549
1.85531
1.8473
1.83645
1.82547
1.81557
1.81189
1.81014
1.80847
1.80466
1.79817
1.78993
1.78215
1.77634
1.77177
1.76768
1.76381
1.75893
1.75117
1.74214
1.73606
1.73313
1.73107
1.72835
1.72357
1.71644
1.70802
1.70093
1.69585
1.69176
1.68698
1.68075
1.67376
1.66634
1.66013
1.65557
1.65116
1.65232
2.06716
2.05039
2.0321
2.01554
1.99724
1.97792
1.95476
1.9409
1.95049
2.02759
2.16546
2.23285
2.24224
2.23537
2.21267
2.1864
2.15892
2.1343
2.11876
2.10452
2.08524
2.06123
2.03302
2.00791
1.98782
1.96855
1.94815
1.92616
1.90242
1.87665
1.85122
1.82903
1.8088
1.78892
1.76895
1.74852
1.72725
1.70522
1.68364
1.66425
1.64742
1.6323
1.61741
1.60161
1.58424
1.56577
1.54771
1.53181
1.5177
1.50439
1.49106
1.47817
1.47055
1.46526
1.48851
1.55911
1.66006
1.73416
1.78805
1.81218
1.82043
1.81914
1.80855
1.79438
1.78727
1.78321
1.77872
1.7766
1.77443
1.76806
1.75797
1.75003
1.74577
1.74325
1.74119
1.73722
1.72962
1.721
1.71339
1.7078
1.70342
1.70002
1.69726
1.69333
1.68605
1.67748
1.67053
1.66542
1.66156
1.65847
1.65514
1.64885
1.64221
1.63665
1.63705
1.65696
2.04972
2.03738
2.01724
2.00292
1.98231
1.96519
1.95917
1.99731
2.10116
2.22361
2.29216
2.27365
2.24143
2.21889
2.20157
2.1874
2.16547
2.13821
2.11695
2.09946
2.08066
2.0586
2.03239
2.00548
1.98247
1.96154
1.9408
1.91965
1.89734
1.87259
1.84643
1.82254
1.80166
1.78204
1.76285
1.74363
1.7236
1.70227
1.68024
1.66021
1.64359
1.62933
1.61585
1.60163
1.58551
1.567
1.54723
1.52936
1.51621
1.50642
1.49648
1.48387
1.46923
1.45681
1.4443
1.44381
1.46957
1.55048
1.64945
1.72193
1.76696
1.78564
1.78464
1.77911
1.77009
1.7637
1.7591
1.75377
1.74678
1.73977
1.7343
1.73076
1.72746
1.72297
1.71575
1.70861
1.70481
1.69929
1.69167
1.68542
1.68092
1.67752
1.67374
1.66873
1.66402
1.65863
1.65312
1.64865
1.6451
1.64123
1.63572
1.63039
1.62425
1.62738
1.64377
1.7243
1.9597
2.02666
2.00871
1.9863
1.96994
1.97885
2.05737
2.1917
2.26451
2.3003
2.29158
2.26177
2.22976
2.20584
2.19116
2.18027
2.1618
2.13672
2.11268
2.09155
2.07185
2.05097
2.0269
2.00065
1.97603
1.95373
1.93243
1.91142
1.8896
1.86572
1.83984
1.81513
1.79394
1.7751
1.75726
1.73975
1.7216
1.70179
1.67979
1.65897
1.64202
1.62743
1.6138
1.6003
1.58625
1.57028
1.55215
1.5337
1.5179
1.50508
1.49516
1.48675
1.47791
1.46661
1.45211
1.43752
1.42339
1.4288
1.46381
1.55136
1.64724
1.73083
1.74867
1.75415
1.75197
1.74487
1.73815
1.73224
1.72473
1.72163
1.72104
1.71825
1.71346
1.70694
1.69762
1.68559
1.67504
1.67247
1.67187
1.66971
1.66714
1.66442
1.66057
1.65384
1.64351
1.63422
1.62846
1.62563
1.62154
1.61932
1.61622
1.62036
1.639
1.68148
1.73636
1.8191
1.70971
1.97736
1.99666
1.97743
2.00536
2.12404
2.26118
2.31273
2.29552
2.28675
2.27117
2.24715
2.22126
2.20038
2.1844
2.16843
2.15057
2.12874
2.10517
2.08283
2.06179
2.0409
2.01865
1.99447
1.96952
1.94577
1.92364
1.90245
1.88123
1.85898
1.83568
1.8123
1.79114
1.77254
1.75502
1.73773
1.72011
1.70152
1.68084
1.65999
1.64394
1.63082
1.61781
1.60406
1.58932
1.57336
1.55646
1.53933
1.52442
1.51304
1.50465
1.49727
1.48829
1.47617
1.46124
1.444
1.42725
1.41557
1.41279
1.42573
1.47265
1.56925
1.65233
1.72083
1.7496
1.74785
1.74
1.73353
1.72452
1.71653
1.70893
1.70076
1.69335
1.68563
1.67664
1.66669
1.65849
1.65192
1.64673
1.64432
1.64268
1.64006
1.63632
1.62972
1.62021
1.61378
1.60802
1.60438
1.60314
1.60711
1.62762
1.67168
1.73515
1.79544
1.83061
1.85365
1.25045
1.80369
1.92137
2.01865
2.19151
2.30364
2.33954
2.3057
2.282
2.26918
2.2575
2.23977
2.21547
2.19379
2.17753
2.15975
2.14174
2.12203
2.09959
2.0771
2.05585
2.035
2.01332
1.99005
1.96547
1.94091
1.91784
1.8967
1.87676
1.85653
1.83518
1.81348
1.79327
1.77595
1.7603
1.74464
1.72761
1.70908
1.69159
1.67776
1.66509
1.65175
1.63871
1.62589
1.61242
1.59706
1.58016
1.5643
1.55015
1.5377
1.5266
1.51683
1.50778
1.49833
1.48608
1.46933
1.44787
1.42836
1.41766
1.41583
1.41743
1.43546
1.49257
1.58727
1.67689
1.7263
1.74685
1.74257
1.73482
1.72809
1.71817
1.70741
1.69661
1.68429
1.67091
1.65816
1.64818
1.64137
1.63686
1.63367
1.63126
1.62677
1.61888
1.60958
1.60114
1.59673
1.59442
1.59613
1.61208
1.65804
1.72649
1.79035
1.82373
1.84212
1.85586
1.86122
1.01793
1.37797
1.76513
2.24847
2.37674
2.37785
2.35905
2.32071
2.29493
2.27984
2.26791
2.24937
2.22426
2.20339
2.18419
2.16447
2.14318
2.12148
2.09827
2.07488
2.05321
2.03223
2.01038
1.98728
1.96319
1.93911
1.91623
1.89514
1.87564
1.85686
1.83832
1.82031
1.80314
1.78788
1.77362
1.75918
1.7438
1.72798
1.71179
1.69399
1.67607
1.65963
1.64615
1.63531
1.62544
1.61427
1.59939
1.58202
1.5638
1.54738
1.53319
1.51995
1.50785
1.499
1.49071
1.48041
1.46598
1.44959
1.43639
1.42854
1.42312
1.42297
1.4287
1.45293
1.5263
1.62404
1.69829
1.72023
1.73038
1.72695
1.72018
1.71248
1.70209
1.68816
1.67387
1.66168
1.65022
1.64272
1.63873
1.63416
1.62702
1.61722
1.60591
1.59836
1.5934
1.59458
1.60723
1.65148
1.7199
1.78853
1.828
1.85224
1.86244
1.86937
1.86974
1.86497
1.00022
1.04415
1.97114
2.56986
2.53595
2.475
2.42785
2.3854
2.35156
2.32761
2.30785
2.28324
2.25483
2.23101
2.21558
2.19701
2.17414
2.15038
2.12648
2.10317
2.08154
2.06085
2.03959
2.01736
1.99417
1.97062
1.94786
1.92702
1.90828
1.89103
1.87469
1.85861
1.84235
1.82573
1.81088
1.79774
1.78491
1.76998
1.75225
1.73168
1.70985
1.69028
1.6737
1.66048
1.64996
1.64035
1.62911
1.61351
1.59539
1.57751
1.56056
1.5452
1.5293
1.51514
1.50543
1.49879
1.49205
1.48164
1.47023
1.45852
1.44826
1.43845
1.42738
1.42675
1.43759
1.4751
1.55568
1.65048
1.72787
1.72759
1.72272
1.71398
1.70258
1.69013
1.67664
1.66288
1.65255
1.64579
1.63986
1.63296
1.6238
1.61608
1.60887
1.60346
1.61252
1.65382
1.72176
1.79491
1.8462
1.87077
1.88305
1.8856
1.88234
1.87928
1.8759
1.86647
1
1.00444
2.24881
2.72319
2.65359
2.5881
2.53818
2.49013
2.45042
2.4206
2.39188
2.35988
2.32703
2.29842
2.27699
2.25547
2.22896
2.2009
2.17426
2.14951
2.12555
2.1027
2.08001
2.05697
2.03332
2.0094
1.9865
1.96567
1.94729
1.93064
1.91488
1.89928
1.88372
1.86889
1.85432
1.83931
1.82324
1.80582
1.78734
1.76884
1.75123
1.73434
1.718
1.70104
1.68304
1.66475
1.64754
1.63232
1.61809
1.60409
1.58932
1.57486
1.56147
1.547
1.52979
1.51293
1.50086
1.49261
1.48567
1.47774
1.47109
1.46238
1.45107
1.44108
1.43354
1.43464
1.44883
1.49995
1.5961
1.66926
1.72745
1.72675
1.71892
1.70445
1.68862
1.67224
1.65842
1.64758
1.63865
1.63134
1.62668
1.62307
1.63248
1.66685
1.73572
1.80942
1.86234
1.89786
1.91451
1.9146
1.9096
1.90129
1.89347
1.88825
1.8843
1.87599
1
1.09172
2.37819
2.76388
2.74442
2.70889
2.67173
2.62962
2.59071
2.55529
2.51738
2.47587
2.43379
2.39691
2.36807
2.34245
2.31469
2.28389
2.25356
2.22716
2.20102
2.17486
2.14905
2.1236
2.09814
2.07289
2.04964
2.02913
2.01119
1.99486
1.97922
1.96353
1.94726
1.93053
1.91315
1.89495
1.87582
1.85589
1.83637
1.81772
1.79962
1.78094
1.76105
1.73958
1.71733
1.69625
1.67751
1.66227
1.64905
1.63654
1.62335
1.60798
1.58963
1.56966
1.54963
1.53285
1.52161
1.51416
1.50895
1.50367
1.49739
1.48725
1.47275
1.45646
1.44299
1.43645
1.4352
1.44022
1.46322
1.52527
1.61615
1.66963
1.7102
1.70881
1.7022
1.69172
1.67881
1.66516
1.65137
1.64438
1.65375
1.68811
1.75592
1.82784
1.89258
1.91922
1.93252
1.9437
1.9428
1.93775
1.92673
1.91465
1.90684
1.9032
1.90156
1.89612
1
1.1664
2.41754
2.74386
2.7522
2.74511
2.73257
2.71157
2.68541
2.65407
2.61797
2.57927
2.54107
2.50645
2.47581
2.44534
2.41246
2.37831
2.34483
2.31392
2.28546
2.25666
2.22772
2.19922
2.17165
2.14434
2.11962
2.09808
2.07878
2.06024
2.04141
2.0219
2.00164
1.98105
1.96012
1.93902
1.9177
1.89601
1.87434
1.85277
1.83154
1.81018
1.78841
1.7661
1.74343
1.72228
1.70418
1.68884
1.67438
1.65975
1.64404
1.62659
1.60659
1.58512
1.56611
1.55176
1.5419
1.53489
1.52863
1.52095
1.51085
1.49898
1.48633
1.47279
1.46091
1.45194
1.44213
1.43479
1.42612
1.43151
1.46007
1.53334
1.62469
1.66447
1.68557
1.68773
1.69114
1.68988
1.70175
1.73245
1.79214
1.86097
1.92226
1.95147
1.96608
1.97143
1.96993
1.96405
1.95508
1.94658
1.93819
1.92882
1.9245
1.92403
1.92333
1.91767
1
1.17853
2.4185
2.72057
2.73742
2.74417
2.74613
2.74028
2.72571
2.70207
2.6724
2.63954
2.60585
2.57247
2.53789
2.5023
2.46702
2.43323
2.4011
2.37062
2.34086
2.31129
2.27944
2.24793
2.22051
2.19502
2.17097
2.14848
2.12676
2.10482
2.08244
2.05998
2.03757
2.01524
1.99225
1.96798
1.94211
1.91562
1.89061
1.8677
1.84664
1.82627
1.8058
1.78505
1.76336
1.74001
1.71769
1.69912
1.68295
1.66775
1.65237
1.63567
1.61633
1.59564
1.57954
1.56746
1.55621
1.54563
1.53587
1.526
1.51485
1.50309
1.49345
1.48687
1.47864
1.4666
1.45149
1.43629
1.42284
1.41328
1.4047
1.41707
1.46487
1.55184
1.63932
1.68414
1.71567
1.7724
1.83558
1.887
1.92913
1.96205
1.98741
1.99766
1.99116
1.98472
1.97974
1.97253
1.9645
1.95729
1.94969
1.94387
1.94308
1.94228
1.9416
1.93446
1
1.18396
2.42077
2.7103
2.72395
2.73869
2.74499
2.74115
2.72945
2.70989
2.68552
2.65821
2.62879
2.5972
2.56372
2.52928
2.49461
2.46118
2.42909
2.39725
2.36584
2.33385
2.30233
2.27178
2.244
2.21811
2.19317
2.16884
2.14471
2.12053
2.09663
2.07351
2.05067
2.02741
2.00262
1.97585
1.94745
1.91912
1.89366
1.87159
1.85228
1.8342
1.81577
1.79461
1.76928
1.74259
1.71897
1.70002
1.68354
1.66822
1.65337
1.63825
1.62206
1.60452
1.58694
1.57143
1.55842
1.54686
1.53589
1.52435
1.51267
1.50471
1.49722
1.48749
1.47724
1.46659
1.45362
1.43683
1.42054
1.40593
1.39751
1.38685
1.39023
1.42477
1.51582
1.65256
1.7921
1.90077
1.97769
2.04812
2.0764
2.07174
2.05494
2.02785
1.99944
1.98905
1.98028
1.97135
1.96308
1.95635
1.95083
1.94991
1.95065
1.95017
1.94973
1.94151
)
;

boundaryField
{
    inlet
    {
        type            fixedValue;
        value           uniform 1;
    }
    outlet
    {
        type            inletOutlet;
        inletValue      uniform 1;
        value           nonuniform List<scalar> 
32
(
1.95088
1.94725
1.93699
1.92122
1.89158
1.85367
1.81912
1.79415
1.77966
1.77211
1.76973
1.75623
1.74045
1.72709
1.71706
1.7084
1.69681
1.68641
1.66879
1.65257
1.6567
1.72343
1.81829
1.85403
1.86198
1.86489
1.86581
1.87555
1.89643
1.91795
1.93471
1.9416
)
;
    }
    bottom
    {
        type            symmetryPlane;
    }
    top
    {
        type            symmetryPlane;
    }
    obstacle
    {
        type            zeroGradient;
    }
    defaultFaces
    {
        type            empty;
    }
}


// ************************************************************************* //
